/*--------------------------------*- C++ -*----------------------------------*\
  =========                 |
  \\      /  F ield         | OpenFOAM: The Open Source CFD Toolbox
   \\    /   O peration     | Website:  https://openfoam.org
    \\  /    A nd           | Version:  7
     \\/     M anipulation  |
\*---------------------------------------------------------------------------*/
FoamFile
{
    version     2.0;
    format      ascii;
    class       volScalarField;
    location    "1.4";
    object      p;
}
// * * * * * * * * * * * * * * * * * * * * * * * * * * * * * * * * * * * * * //

dimensions      [1 -1 -2 0 0 0 0];

internalField   nonuniform List<scalar> 
18432
(
1
1
1
1
1
1
1
1
1
1
1
1
1
1
1
1
1
1
1
1
1
1
1
1
1
1
1
1
1
1
1
1
1
1
1
1
1
1
1
1
1
1
1
1
1
1
1
1
1
1
1
1
1
1
1
1
1
1
1
1
1
1
1
1
1
1
1
1
1
1
1
1
1
1
1
1
1
1
1
1
1
1
1
1
1
1
1
1
1
1
1
1
1
1
1
1
1
1
1
1
1
1
1
1
1
1
1
1
1
1
1
1
1
1
1
1
1
1
1
1
1
1
1
1
1
1
1
1
1
1
1
1
1
1
1
1
1
1
1
1
1
1
1
1
1
1
1
1
1
1
1
1
1
1
1
1
1
1
1
1
1
1
1
1
1
1
1
1
1
1
1
1
1
1
1
1
1
1
1
1
1
1
1
1
1
1
1
1
1
1
1
1
1
1
1
1
1
1
1
1
1
1
1
1
1
1
1
1
1
1
1
1
1
1
1
1
1
1
1
1
1
1
1
1
1
1
1
1
1
1
1
1
1
1
1
1
1
1
1
1
1
1
1
1
1
1
1
1
1
1
1
1
1
1
1
1
1
1
1
1
1
1
1
1
1
1
1
1
1
1
1
1
1
1
1
1
1
1
1
1
1
1
1
1
1
1
1
1
1
1
1
1
1
1
1
1
1
1
1
1
1
1
1
1
1
1
1
1
1
1
1
1
1
1
1
1
1
1
1
1
1
1
1
1
1
1
1
1
1
1
1
1
1
1
1
1
1
1
1
1
1
1
1
1
1
1
1
1
1
1
1
1
1
1
1
1
1
1
1
1
1
1
1
1
1
1
1
1
1
1
1
1
1
1
1
1
1
1
1
1
1
1
1
1
1
1
1
1
1
1
1
1
1
1
1
1
1
1
1
1
1
1
1
1
1
1
1
1
1
1
1
1
1
1
1
1
1
1
1
1
1
1
1
1
1
1
1
1
1
1
1
1
1
1
1
1
1
1
1
1
1
1
1
1
1
1
1
1
1
1
1
1
1
1
1
1
1
1
1
1
1
1
1
1
1
1
1
1
1
1
1
1
1
1
1
1
1
1
1
1
1
1
1
1
1
1
1
1
1
1
1
1
1
1
1
1
1
1
1
1
1
1
1
1
1
1
1
1
1
1
1
1
1
1
1
1
1
1
1
1
1
1
1
1
1
1
1
1
1
1
1
1
1
1
1
1
1
1
1
1
1
1
1
1
1
1
1
1
1
1
1
1
1
1
1
1
1
1
1
1
1
1
1
1
1
1
1
1
1
1
1
1
1
1
1
1
1
1
1
1
1
1
1
1
1
1
1
1
1
1
1
1
1
1
1
1
1
1
1
1
1
1
1
1
1
1
1
1
1
1
1
1
1
1
1
1
1
1
1
1
1
1
1
1
1
1
1
1
1
1
1
1
1
1
1
1
1
1
1
1
1
1
1
1
1
1
1
1
1
1
1
1
1
1
1
1
1
1
1
1
1
1
1
1
1
1
1
1
1
1
1
1
1
1
1
1
1
1
1
1
1
1
1
1
1
1
1
1
1
1
1
1
1
1
1
1
1
1
1
1
1
1
1
1
1
1
1
1
1
1
1
1
1
1
1
1
1
1
1
1
1
1
1
1
1
1
1
1
1
1
1
1
1
1
1
1
1
1
1
1
1
1
1
1
1
1
1
1
1
1
1
1
1
1
1
1
1
1
1
1
1
1
1
1
1
1
1
1
1
1
1
1
1
1
1
1
1
1
1
1
1
1
1
1
1
1
1
1
1
1
1
1
1
1
1
1
1
1
1
1
1
1
1
1
1
1
1
1
1
1
1
1
1
1
1
1
1
1
1
1
1
1
1
1
1
1
1
1
1
1
1
1
1
1
1
1
1
1
1
1
1
1
1
1
1
1
1
1
1
1
1
1
1
1
1
1
1
1
1
1
1
1
1
1
1
1
1
1
1
1
1
1
1
1
1
1
1
1
1
1
1
1
1
1
1
1
1
1
1
1
1
1
1
1
1
1
1
1
1
1
1
1
1
1
1
1
1
1
1
1
1
1
1
1
1
1
1
1
1
1
1
1
1
1
1
1
1
1
1
1
1
1
1
1
1
1
1
1
1
1
1
1
1
1
1
1
1
1
1
1
1
1
1
1
1
1
1
1
1
1
1
1
1
1
1
1
1
1
1
1
1
1
1
1
1
1
1
1
1
1
1
1
1
1
1
1
1
1
1
1
1
1
1
1
1
1
1
1
1
1
1
1
1
1
1
1
1
1
1
1
1
1
1
1
1
1
1
1
1
1
1
1
1
1
1
1
1
1
1
1
1
1
1
1
1
1
1
1
1
1
1
1
1
1
1
1
1
1
1
1
1
1
1
1
1
1
1
1
1
1
1
1
1
1
1
1
1
1
1
1
1
1
1
1
1
1
1
1
1
1
1
1
1
1
1
1
1
1
1
1
1
1
1
1
1
1
1
1
1
1
1
1
1
1
1
1
1
1
1
1
1
1
1
1
1
1
1
1
1
1
1
1
1
1
1
1
1
1
1
1
1
1
1
1
1
1
1
1
1
1
1
1
1
1
1
1
1
1
1
1
1
1
1
1
1
1
1
1
1
1
1
1
1
1
1
1
1
1
1
1
1
1
1
1
1
1
1
1
1
1
1
1
1
1
1
1
1
1
1
1
1
1
1
1
1
1
1
1
1
1
1
1
1
1
1
1
1
1
1
1
1
1
1
1
1
1
1
1
1
1
1
1
1
1
1
1
1
1
1
1
1
1
1
1
1
1
1
1
1
1
1
1
1
1
1
1
1
1
1
1
1
1
1
1
1
1
1
1
1
1
1
1
1
1
1
1
1
1
1
1
1
1
1
1
1
1
1
1
1
1
1
1
1
1
1
1
1
1
1
1
1
1
1
1
1
1
1
1
1
1
1
1
1
1
1
1
1
1
1
1
1
1
1
1
1
1
1
1
1
1
1
1
1
1
1
1
1
1
1
1
1
1
1
1
1
1
1
1
1
1
1
1
1
1
1
1
1
1
1
1
1
1
1
1
1
1
1
1
1
1
1
1
1
1
1
1
1
1
1
1
1
1
1
1
1
1
1
1
1
1
1
1
1
1
1
1
1
1
1
1
1
1
1
1
1
1
1
1
1
1
1
1
1
1
1
1
1
1
1
1
1
1
1
1
1
1
1
1
1
1
1
1
1
1
1
1
1
1
1
1
1
1
1
1
1
1
1
1
1
1
1
1
1
1
1
1
1
1
1
1
1
1
1
1
1
1
1
1
1
1
1
1
1
1
1
1
1
1
1
1
1
1
1
1
1
1
1
1
1
1
1
1
1
1
1
1
1
1
1
1
1
1
1
1
1
1
1
1
1
1
1
1
1
1
1
1
1
1
1
1
1
1
1
1
1
1
1
1
1
1
1
1
1
1
1
1
1
1
1
1
1
1
1
1
1
1
1
1
1
1
1
1
1
1
1
1
1
1
1
1
1
1
1
1
1
1
1
1
1
1
1
1
1
1
1
1
1
1
1
1
1
1
1
1
1
1
1
1
1
1
1
1
1
1
1
1
1
1
1
1
1
1
1
1
1
1
1
1
1
1
1
1
1
1
1
1
1
1
1
1
1
1
1
1
1
1
1
1
1
1
1
1
1
1
1
1
1
1
1
1
1
1
1
1
1
1
1
1
1
1
1
1
1
1
1
1
1
1
1
1
1
1
1
1
1
1
1
1
1
1
1
1
1
1
1
1
1
1
1
1
1
1
1
1
1
1
1
1
1
1
1
1
1
1
1
1
1
1
1
1
1
1
1
1
1
1
1
1
1
1
1
1
1
1
1
1
1
1
1
1
1
1
1
1
1
1
1
1
1
1
1
1
1
1
1
1
1
1
1
1
1
1
1
1
1
1
1
1
1
1
1
1
1
1
1
1
1
1
1
1
1
1
1
1
1
1
1
1
1
1
1
1
1
1
1
1
1
1
1
1
1
1
1
1
1
1
1
1
1
1
1
1
1
1
1
1
1
1
1
1
1
1
1
1
1
1
1
1
1
1
1
1
1
1
1
1
1
1
1
1
1
1
1
1
1
1
1
1
1
1
1
1
1
1
1
1
1
1
1
1
1
1
1
1
1
1
1
1
1
1
1
1
1
1
1
1
1
1
1
1
1
1
1
1
1
1
1
1
1
1
1
1
1
1
1
1
1
1
1
1
1
1
1
1
1
1
1
1
1
1
1
1
1
1
1
1
1
1
1
1
1
1
1
1
1
1
1
1
1
1
1
1
1
1
1
1
1
1
1
1
1
1
1
1
1
1
1
1
1
1
1
1
1
1
1
1
1
1
1
1
1
1
1
1
1
1
1
1
1
1
1
1
1
1
1
1
1
1
1
1
1
1
1
1
1
1
1
1
1
1
1
1
1
1
1
1
1
1
1
1
1
1
1
1
1
1
1
1
1
1
1
1
1
1
1
1
1
1
1
1
1
1
1
1
1
1
1
1
1
1
1
1
1
1
1
1
1
1
1
1
1
1
1
1
1
1
1
1
1
1
1
1
1
1
1
1
1
1
1
1
1
1
1
1
1
1
1
1
1
1
1
1
1
1
1
1
1
1
1
1
1
1
1
1
1
1
1
1
1
1
1
1
1
1
1
1
1
1
1
1
1
1
1
1
1
1
1
1
1
1
1
1
1
1
1
1
1
1
1
1
1
1
1
1
1
1
1
1
1
1
1
1
1
1
1
1
1
1
1
1
1
1
1
1
1
1
1
1
1
1
1
1
1
1
1
1
1
1
1
1
1
1
1
1
1
1
1
1
1
1
1
1
1
1
1
1
1
1
1
1
1
1
1
1
1
1
1
1
1
1
1
1
1
1
1
1
1
1
1
1
1
1
1
1
1
1
1
1
1
1
1
1
1
1
1
1
1
1
1
1
1
1
1
1
1
1
1
1
1
1
1
1
1
1
1
1
1
1
1
1
1
1
1
1
1
1
1
1
1
1
1
1
1
1
1
1
1
1
1
1
1
1
1
1
1
1
1
1
1
1
1
1
1
1
1
1
1
1
1
1
1
1
1
1
1
1
1
1
1
1
1
1
1
1
1
1
1
1
1
1
1
1
1
1
1
1
1
1
1
1
1
1
1
1
1
1
1
1
1
1
1
1
1
1
1
1
1
1
1
1
1
1
1
1
1
1
1
1
1
1
1
1
1
1
1
1
1
1
1
1
1
1
1
1
1
1
1
1
1
1
1
1
1
1
1
1
1
1
1
1
1
1
1
1
1
1
1
1
1
1
1
1
1
1
1
1
1
1
1
1
1
1
1
1
1
1
1
1
1
1
1
1
1
1
1
1
1
1
1
1
1
1
1
1
1
1
1
1
1
1
1
1
1
1
1
1
1
1
1
1
1
1
1
1
1
1
1
1
1
1
1
1
1
1
1
1
1
1
1
1
1
1
1
1
1
1
1
1
1
1
1
1
1
1
1
1
1
1
1
1
1
1
1
1
1
1
1
1
1
1
1
1
1
1
1
1
1
1
1
1
1
1
1
1
1
1
1
1
1
1
1
1
1
1
1
1
1
1
1
1
1
1
1
1
1
1
1
1
1
1
1
1
1
1
1
1
1
1
1
1
1
1
1
1
1
1
1
1
1
1
1
1
1
1
1
1
1
1
1
1
1
1
1
1
1
1
1
1
1
1
1
1
1
1
1
1
1
1
1
1
1
1
1
1
1
1
1
1
1
1
1
1
1
1
1
1
1
1
1
1
1
1
1
1
1
1
1
1
1
1
1
1
1
1
1
1
1
1
1
1
1
1
1
1
1
1
1
1
1
1
1
1
1
1
1
1
1
1
1
1
1
1
1
1
1
1
1
1
1
1
1
1
1
1
1
1
1
1
1
1
1
1
1
1
1
1
1
1
1
1
1
1
1
1
1
1
1
1
1
1
1
1
1
1
1
1
1
1
1
1
1
1
1
1
1
1
1
1
1
1
1
1
1
1
1
1
1
1
1
1
1
1
1
1
1
1
1
1
1
1
1
1
1
1
1
1
1
1
1
1
1
1
1
1
1
1
1
1
1
1
1
1
1
1
1
1
1
1
1
1
1
1
1
1
1
1
1
1
1
1
1
1
1
1
1
1
1
1
1
1
1
1
1
1
1
1
1
1
1
1
1
1
1
1
1
1
1
1
1
1
1
1
1
1
1
1
1
1
1
1
1
1
1
1
1
1
1
1
1
1
1
1
1
1
1
1
1
1
1
1
1
1
1
1
1
1
1
1
1
1
1
1
1
1
1
1
1
1
1
1
1
1
1
1
1
1
1
1
1
1
1
1
1
1
1
1
1
1
1
1
1
1
1
1
1
1
1
1
1
1
1
1
1
1
1
1
1
1
1
1
1
1
1
1
1
1
1
1
1
1
1
1
1
1
1
1
1
1
1
1
1
1
1
1
1
1
1
1
1
1
1
1
1
1
1
1
1
1
1
1
1
1
1
1
1
1
1
1
1
1
1
1
1
1
1
1
1
1
1
1
1
1
1
1
1
1
1
1
1
1
1
1
1
1
1
1
1
1
1
1
1
1
1
1
1
1
1
1
1
1
1
1
1
1
1
1
1
1
1
1
1
1
1
1
1
1
1
1
1
1
1
1
1
1
1
1
1
1
1
1
1
1
1
1
1
1
1
1
1
1
1
1
1
1
1
1
1
1
1
1
1
1
1
1
1
1
1
1
1
1
1
1
1
1
1
1
1
1
1
1
1
1
1
1
1
1
1
1
1
1
1
1
1
1
1
1
1
1
1
1
1
1
1
1
1
1
1
1
1
1
1
1
1
1
1
1
1
1
1
1
1
1
1
1
1
1
1
1
1
1
1
1
1
1
1
1
1
1
1
1
1
1
1
1
1
1
1
1
1
1
1
1
1.28935
1.75702
2.32382
2.87795
3.57141
4.17627
4.65048
5.11304
5.34697
5.26166
4.92799
4.46584
4.07777
3.79492
3.66591
3.57898
3.55775
3.57419
3.60879
3.6476
3.68639
3.70834
3.71981
3.72808
3.73789
3.74921
3.75922
3.76486
3.76835
3.77437
3.78605
3.79709
3.80001
3.79855
3.79385
3.78493
3.77534
3.76961
3.76695
3.76611
3.76578
3.76649
3.76911
3.76969
3.76968
3.76854
3.76589
3.76599
1.00223
1.01407
1.07333
1.20568
1.40817
1.76919
2.21627
2.75444
3.31416
3.73997
3.89147
4.04902
4.05305
3.96348
3.84118
3.78201
3.74539
3.70364
3.67276
3.6675
3.67789
3.70291
3.72967
3.74359
3.74758
3.74771
3.75305
3.75614
3.75727
3.76003
3.76589
3.7729
3.7781
3.78039
3.77955
3.77636
3.77212
3.76976
3.76984
3.77132
3.7743
3.77783
3.77925
3.7789
3.77754
3.7738
3.76779
3.76774
1
0.999977
1.00006
1.00008
1.0013
1.01338
1.06183
1.221
1.60386
2.34904
3.31609
3.91505
4.31706
4.32617
4.2542
4.11161
3.96685
3.78971
3.6769
3.67339
3.68326
3.70673
3.74047
3.75594
3.75986
3.75926
3.75621
3.75894
3.76104
3.7636
3.76638
3.7697
3.76997
3.76844
3.76507
3.76156
3.75997
3.76053
3.76277
3.76703
3.77416
3.78226
3.78598
3.78614
3.78496
3.7812
3.77473
3.77397
1
1
1
1
0.999998
1
1.00001
1.00007
1.00568
1.06843
1.43716
2.11995
3.22688
3.77634
4.03603
4.0223
3.92806
3.89335
3.84453
3.77058
3.75702
3.72687
3.71302
3.71531
3.72692
3.73518
3.74568
3.7594
3.76825
3.77356
3.77826
3.77859
3.77786
3.7755
3.77146
3.76934
3.76724
3.76613
3.7674
3.771
3.77681
3.78169
3.78321
3.78152
3.77842
3.77283
3.76952
3.77068
1
1
1
1
1
1
1
0.999999
1
0.999921
1.00236
1.04099
1.29693
1.98808
2.83505
3.75725
3.92957
4.01291
3.97848
3.92496
3.81093
3.7287
3.68131
3.66541
3.67135
3.68196
3.69687
3.71898
3.74094
3.75877
3.77364
3.77954
3.7809
3.78035
3.77856
3.77835
3.77755
3.7765
3.77728
3.78034
3.78425
3.78558
3.78399
3.78089
3.77527
3.76811
3.76526
3.76616
1
1
1
1
1
1
1
1
1
0.999997
0.999998
0.999954
1.00074
1.03249
1.20392
1.83272
2.68717
3.47728
3.90767
3.88996
3.86251
3.81947
3.76465
3.72897
3.69781
3.68622
3.68479
3.69631
3.7179
3.73912
3.75667
3.77004
3.77356
3.77412
3.77359
3.7729
3.77086
3.76909
3.77002
3.7735
3.77534
3.77387
3.77132
3.76833
3.76462
3.76206
3.76019
3.76434
1
1
1
1
1
1
1
1
1
1
1
0.999998
0.999998
0.999969
1.0004
1.02002
1.19639
1.66159
2.54762
3.20827
3.75676
3.87951
3.87553
3.82944
3.7848
3.75427
3.72628
3.71288
3.71569
3.72672
3.73958
3.75591
3.76427
3.7686
3.76696
3.7647
3.76313
3.76196
3.76513
3.77116
3.77262
3.772
3.77084
3.76987
3.76947
3.76926
3.76803
3.77211
1
1
1
1
1
1
1
1
1
1
1
1
1
0.999998
0.999998
0.999971
1.00058
1.01172
1.155
1.58439
2.4242
3.12198
3.50664
3.74646
3.78773
3.7905
3.76551
3.74306
3.74239
3.74369
3.74687
3.74877
3.7538
3.75868
3.76184
3.76376
3.76468
3.76757
3.77334
3.77855
3.77953
3.77898
3.77675
3.7752
3.77438
3.77408
3.77362
3.77488
1
1
1
1
1
1
1
1
1
1
1
1
1
1
1
0.999998
0.999998
0.99998
1.00046
1.01152
1.11563
1.57663
2.25646
3.13488
3.4518
3.60301
3.66395
3.73134
3.74047
3.72697
3.72109
3.72702
3.73404
3.74476
3.7559
3.76428
3.77092
3.77678
3.78267
3.78489
3.78425
3.78328
3.78131
3.77703
3.77357
3.77263
3.77251
3.77286
1
1
1
1
1
1
1
1
1
1
1
1
1
1
1
1
1
0.999998
0.999998
0.999985
1.00027
1.0142
1.10147
1.50571
2.23059
3.00606
3.54544
3.61552
3.68682
3.69399
3.69214
3.70187
3.70888
3.71728
3.73028
3.74465
3.75922
3.77123
3.77682
3.77878
3.77855
3.77863
3.7789
3.77716
3.7743
3.77315
3.77389
3.774
1
1
1
1
1
1
1
1
1
1
1
1
1
1
1
1
1
1
1
0.999999
0.999999
0.999988
1.00028
1.01077
1.11528
1.45678
2.22719
2.9445
3.50263
3.69587
3.71837
3.72946
3.73302
3.72724
3.73178
3.7402
3.74962
3.7625
3.77062
3.77298
3.77137
3.77015
3.77029
3.76865
3.76651
3.76599
3.76798
3.76905
1
1
1
1
1
1
1
1
1
1
1
1
1
1
1
1
1
1
1
1
1
0.999998
0.999999
0.999988
1.00048
1.00889
1.12594
1.49334
2.25654
2.95042
3.44707
3.68495
3.7483
3.75087
3.76818
3.7709
3.76942
3.77545
3.78272
3.78494
3.78276
3.77925
3.77508
3.77005
3.76824
3.76889
3.76964
3.77058
1
1
1
1
1
1
1
1
1
1
1
1
1
1
1
1
1
1
1
1
1
1
1
0.999998
0.999999
0.999989
1.00083
1.01231
1.12637
1.57385
2.33631
3.08569
3.41269
3.60175
3.72424
3.7471
3.74846
3.76204
3.77157
3.77684
3.778
3.77514
3.77332
3.77404
3.77573
3.7782
3.77944
3.77868
1
1
1
1
1
1
1
1
1
1
1
1
1
1
1
1
1
1
1
1
1
1
1
1
1
0.999998
0.999999
0.999993
1.00095
1.02141
1.14864
1.6702
2.44522
3.30102
3.54117
3.62532
3.66427
3.70808
3.73196
3.73937
3.74331
3.74877
3.76034
3.77267
3.77692
3.77758
3.77881
3.77822
1
1
1
1
1
1
1
1
1
1
1
1
1
1
1
1
1
1
1
1
1
1
1
1
1
1
1
0.999999
0.999997
1.00001
1.00134
1.03575
1.2142
1.84238
2.67377
3.36758
3.69509
3.72357
3.73831
3.73867
3.73321
3.74121
3.75506
3.76606
3.77132
3.77374
3.77661
3.77661
1
1
1
1
1
1
1
1
1
1
1
1
1
1
1
1
1
1
1
1
1
1
1
1
1
1
1
1
1
1
0.999997
1.00011
1.00306
1.06082
1.34967
2.08513
2.91933
3.48145
3.72877
3.76798
3.77173
3.78798
3.79068
3.79165
3.78978
3.78691
3.78355
3.78099
1
1
1
1
1
1
1
1
1
1
1
1
1
1
1
1
1
1
1
1
1
1
1
1
1
1
1
1
1
1
1
1
0.999996
1.00039
1.00846
1.11622
1.57931
2.46521
3.1757
3.49312
3.68638
3.76818
3.7656
3.77718
3.7865
3.78972
3.78865
3.78378
1
1
1
1
1
1
1
1
1
1
1
1
1
1
1
1
1
1
1
1
1
1
1
1
1
1
1
1
1
1
1
1
0.999999
0.999999
1
1.00151
1.02712
1.23242
1.8999
2.89188
3.50983
3.60436
3.65642
3.71023
3.74779
3.7645
3.76817
3.76571
1
1
1
1
1
1
1
1
1
1
1
1
1
1
1
1
1
1
1
1
1
1
1
1
1
1
1
1
1
1
1
1
1
1
1
0.999998
1.00008
1.0057
1.08514
1.49986
2.39338
3.23957
3.69872
3.75364
3.76664
3.7696
3.76075
3.75558
1
1
1
1
1
1
1
1
1
1
1
1
1
1
1
1
1
1
1
1
1
1
1
1
1
1
1
1
1
1
1
1
1
1
1
1
1
1.00001
1.00088
1.02483
1.24742
1.944
2.89825
3.4931
3.76212
3.80051
3.79802
3.78927
1
1
1
1
1
1
1
1
1
1
1
1
1
1
1
1
1
1
1
1
1
1
1
1
1
1
1
1
1
1
1
1
1
1
1
1
1
1
0.999999
1.00014
1.00632
1.1001
1.60993
2.62537
3.33838
3.55886
3.7112
3.75724
1
1
1
1
1
1
1
1
1
1
1
1
1
1
1
1
1
1
1
1
1
1
1
1
1
1
1
1
1
1
1
1
1
1
1
1
1
1
1
0.999999
1.00001
1.00185
1.04011
1.35436
2.19363
3.2328
3.62454
3.69477
1
1
1
1
1
1
1
1
1
1
1
1
1
1
1
1
1
1
1
1
1
1
1
1
1
1
1
1
1
1
1
1
1
1
1
1
1
1
1
1
1
1
1.00032
1.01712
1.18145
1.92823
2.92195
3.61973
1
1
1
1
1
1
1
1
1
1
1
1
1
1
1
1
1
1
1
1
1
1
1
1
1
1
1
1
1
1
1
1
1
1
1
1
1
1
1
1
1
1
1
1.00012
1.00479
1.11627
1.67353
2.799
1
1
1
1
1
1
1
1
1
1
1
1
1
1
1
1
1
1
1
1
1
1
1
1
1
1
1
1
1
1
1
1
1
1
1
1
1
1
1
1
1
1
1
1
1.00002
1.00295
1.06098
1.4468
1
1
1
1
1
1
1
1
1
1
1
1
1
1
1
1
1
1
1
1
1
1
1
1
1
1
1
1
1
1
1
1
1
1
1
1
1
1
1
1
1
1
1
1
1
1.00001
1.00104
1.01859
1
1
1
1
1
1
1
1
1
1
1
1
1
1
1
1
1
1
1
1
1
1
1
1
1
1
1
1
1
1
1
1
1
1
1
1
1
1
1
1
1
1
1
1
1
1
1.00001
0.999825
1
1
1
1
1
1
1
1
1
1
1
1
1
1
1
1
1
1
1
1
1
1
1
1
1
1
1
1
1
1
1
1
1
1
1
1
1
1
1
1
1
1
1
1
1
1
1
0.999938
1
1
1
1
1
1
1
1
1
1
1
1
1
1
1
1
1
1
1
1
1
1
1
1
1
1
1
1
1
1
1
1
1
1
1
1
1
1
1
1
1
1
1
1
1
1
1
0.999992
1
1
1
1
1
1
1
1
1
1
1
1
1
1
1
1
1
1
1
1
1
1
1
1
1
1
1
1
1
1
1
1
1
1
1
1
1
1
1
1
1
1
1
1
1
1
1
1
1
1
1
1
1
1
1
1
1
1
1
1
1
1
1
1
1
1
1
1
1
1
1
1
1
1
1
1
1
1
1
1
1
1
1
1
1
1
1
1
1
1
1
1
1
1
1
1
1
1
1
1
1
1
1
1
1
1
1
1
1
1
1
1
1
1
1
1
1
1
1
1
1
1
1
1
1
1
1
1
1
1
1
1
1
1
1
1
1
1
1
1
1
1
1
1
1
1
1
1
1
1
1
1
1
1
1
1
1
1
1
1
1
1
1
1
1
1
1
1
1
1
1
1
1
1
1
1
1
1
1
1
1
1
1
1
1
1
1
1
1
1
1
1
1
1
1
1
1
1
1
1
1
1
1
1
1
1
1
1
1
1
1
1
1
1
1
1
1
1
1
1
1
1
1
1
1
1
1
1
1
1
1
1
1
1
1
1
1
1
1
1
1
1
1
1
1
1
1
1
1
1
1
1
1
1
1
1
1
1
1
1
1
1
1
1
1
1
1
1
1
1
1
1
1
1
1
1
1
1
1
1
1
1
1
1
1
1
1
1
1
1
1
1
1
1
1
1
1
1
1
1
1
1
1
1
1
1
1
1
1
1
1
1
1
1
1
1
1
1
1
1
1
1
1
1
1
1
1
1
1
1
1
1
1
1
1
0.999992
1
1
1
1
1
1
1
1
1
1
1
1
1
1
1
1
1
1
1
1
1
1
1
1
1
1
1
1
1
1
1
1
1
1
1
1
1
1
1
1
1
1
1
1
1
1
1
0.999938
1
1
1
1
1
1
1
1
1
1
1
1
1
1
1
1
1
1
1
1
1
1
1
1
1
1
1
1
1
1
1
1
1
1
1
1
1
1
1
1
1
1
1
1
1
1
1.00001
0.999824
1
1
1
1
1
1
1
1
1
1
1
1
1
1
1
1
1
1
1
1
1
1
1
1
1
1
1
1
1
1
1
1
1
1
1
1
1
1
1
1
1
1
1
1
1
1.00001
1.00103
1.01875
1
1
1
1
1
1
1
1
1
1
1
1
1
1
1
1
1
1
1
1
1
1
1
1
1
1
1
1
1
1
1
1
1
1
1
1
1
1
1
1
1
1
1
1
1.00002
1.00296
1.06086
1.44735
1
1
1
1
1
1
1
1
1
1
1
1
1
1
1
1
1
1
1
1
1
1
1
1
1
1
1
1
1
1
1
1
1
1
1
1
1
1
1
1
1
1
1
1.00012
1.00479
1.11628
1.67358
2.7989
1
1
1
1
1
1
1
1
1
1
1
1
1
1
1
1
1
1
1
1
1
1
1
1
1
1
1
1
1
1
1
1
1
1
1
1
1
1
1
1
1
1
1.00032
1.01712
1.18145
1.92809
2.92237
3.6195
1
1
1
1
1
1
1
1
1
1
1
1
1
1
1
1
1
1
1
1
1
1
1
1
1
1
1
1
1
1
1
1
1
1
1
1
1
1
1
0.999999
1.00001
1.00185
1.04012
1.35436
2.19362
3.23276
3.62459
3.69487
1
1
1
1
1
1
1
1
1
1
1
1
1
1
1
1
1
1
1
1
1
1
1
1
1
1
1
1
1
1
1
1
1
1
1
1
1
1
0.999999
1.00014
1.00632
1.10009
1.60994
2.62536
3.33838
3.55887
3.71118
3.75731
1
1
1
1
1
1
1
1
1
1
1
1
1
1
1
1
1
1
1
1
1
1
1
1
1
1
1
1
1
1
1
1
1
1
1
1
1
1.00001
1.00088
1.02483
1.24742
1.94399
2.89826
3.49308
3.76213
3.80052
3.79802
3.78928
1
1
1
1
1
1
1
1
1
1
1
1
1
1
1
1
1
1
1
1
1
1
1
1
1
1
1
1
1
1
1
1
1
1
1
0.999998
1.00008
1.0057
1.08514
1.49986
2.39338
3.23957
3.69872
3.75364
3.76664
3.7696
3.76075
3.75558
1
1
1
1
1
1
1
1
1
1
1
1
1
1
1
1
1
1
1
1
1
1
1
1
1
1
1
1
1
1
1
1
0.999999
0.999999
1
1.00151
1.02712
1.23242
1.8999
2.89188
3.50983
3.60436
3.65642
3.71023
3.74779
3.7645
3.76817
3.76571
1
1
1
1
1
1
1
1
1
1
1
1
1
1
1
1
1
1
1
1
1
1
1
1
1
1
1
1
1
1
1
1
0.999996
1.00039
1.00846
1.11622
1.57931
2.46521
3.1757
3.49311
3.68638
3.76818
3.7656
3.77718
3.7865
3.78972
3.78865
3.78378
1
1
1
1
1
1
1
1
1
1
1
1
1
1
1
1
1
1
1
1
1
1
1
1
1
1
1
1
1
1
0.999997
1.00011
1.00306
1.06082
1.34967
2.08513
2.91933
3.48145
3.72877
3.76798
3.77173
3.78798
3.79068
3.79165
3.78978
3.78691
3.78355
3.78099
1
1
1
1
1
1
1
1
1
1
1
1
1
1
1
1
1
1
1
1
1
1
1
1
1
1
1
0.999999
0.999997
1.00001
1.00134
1.03575
1.2142
1.84238
2.67377
3.36758
3.69509
3.72357
3.73831
3.73867
3.73321
3.74121
3.75505
3.76606
3.77132
3.77374
3.77661
3.77661
1
1
1
1
1
1
1
1
1
1
1
1
1
1
1
1
1
1
1
1
1
1
1
1
1
0.999998
0.999999
0.999993
1.00095
1.02141
1.14864
1.6702
2.44522
3.30102
3.54118
3.62532
3.66427
3.70808
3.73196
3.73937
3.7433
3.74877
3.76034
3.77267
3.77692
3.77758
3.77881
3.77822
1
1
1
1
1
1
1
1
1
1
1
1
1
1
1
1
1
1
1
1
1
1
1
0.999998
0.999999
0.999989
1.00083
1.01231
1.12637
1.57385
2.33631
3.0857
3.41269
3.60174
3.72423
3.7471
3.74846
3.76204
3.77157
3.77684
3.778
3.77514
3.77332
3.77404
3.77573
3.7782
3.77944
3.77868
1
1
1
1
1
1
1
1
1
1
1
1
1
1
1
1
1
1
1
1
1
0.999998
0.999999
0.999988
1.00048
1.00889
1.12594
1.49334
2.25654
2.95042
3.44707
3.68494
3.7483
3.75087
3.76818
3.7709
3.76942
3.77545
3.78272
3.78494
3.78276
3.77925
3.77508
3.77005
3.76824
3.76889
3.76964
3.77058
1
1
1
1
1
1
1
1
1
1
1
1
1
1
1
1
1
1
1
0.999999
0.999999
0.999988
1.00028
1.01077
1.11528
1.45678
2.22719
2.9445
3.50263
3.69587
3.71837
3.72946
3.73302
3.72724
3.73178
3.7402
3.74962
3.7625
3.77062
3.77298
3.77137
3.77015
3.77029
3.76865
3.76651
3.76599
3.76798
3.76905
1
1
1
1
1
1
1
1
1
1
1
1
1
1
1
1
1
0.999998
0.999998
0.999985
1.00027
1.0142
1.10147
1.50571
2.23059
3.00606
3.54544
3.61552
3.68682
3.69399
3.69214
3.70187
3.70888
3.71728
3.73028
3.74465
3.75922
3.77123
3.77682
3.77878
3.77855
3.77863
3.7789
3.77716
3.7743
3.77315
3.77389
3.774
1
1
1
1
1
1
1
1
1
1
1
1
1
1
1
0.999998
0.999998
0.99998
1.00046
1.01152
1.11563
1.57663
2.25646
3.13488
3.4518
3.60301
3.66395
3.73134
3.74047
3.72697
3.72109
3.72702
3.73404
3.74476
3.7559
3.76428
3.77092
3.77678
3.78267
3.78489
3.78425
3.78328
3.78131
3.77703
3.77357
3.77263
3.77251
3.77286
1
1
1
1
1
1
1
1
1
1
1
1
1
0.999998
0.999998
0.999971
1.00058
1.01172
1.155
1.58439
2.4242
3.12198
3.50664
3.74646
3.78773
3.7905
3.76551
3.74306
3.74239
3.74369
3.74687
3.74877
3.7538
3.75868
3.76184
3.76376
3.76468
3.76757
3.77334
3.77855
3.77953
3.77898
3.77675
3.7752
3.77438
3.77408
3.77362
3.77488
1
1
1
1
1
1
1
1
1
1
1
0.999998
0.999998
0.999969
1.0004
1.02002
1.19639
1.66158
2.54762
3.20827
3.75676
3.87951
3.87553
3.82944
3.7848
3.75427
3.72628
3.71288
3.71569
3.72672
3.73958
3.75591
3.76427
3.7686
3.76696
3.7647
3.76313
3.76196
3.76513
3.77116
3.77262
3.772
3.77084
3.76987
3.76947
3.76926
3.76803
3.77211
1
1
1
1
1
1
1
1
1
0.999997
0.999998
0.999954
1.00074
1.03249
1.20392
1.83272
2.68717
3.47728
3.90767
3.88996
3.86251
3.81947
3.76465
3.72897
3.69781
3.68622
3.68479
3.69631
3.7179
3.73912
3.75667
3.77004
3.77356
3.77412
3.77359
3.7729
3.77086
3.7691
3.77002
3.7735
3.77534
3.77387
3.77132
3.76833
3.76462
3.76206
3.76019
3.76434
1
1
1
1
1
1
1
0.999999
1
0.999921
1.00236
1.04099
1.29693
1.98808
2.83505
3.75725
3.92957
4.01291
3.97848
3.92496
3.81093
3.7287
3.68131
3.66541
3.67135
3.68196
3.69687
3.71898
3.74094
3.75877
3.77364
3.77954
3.7809
3.78035
3.77856
3.77835
3.77755
3.7765
3.77728
3.78034
3.78425
3.78558
3.78399
3.78089
3.77527
3.76811
3.76526
3.76616
1
1
1
1
0.999998
1
1.00001
1.00007
1.00568
1.06843
1.43716
2.11995
3.22688
3.77634
4.03603
4.0223
3.92806
3.89335
3.84453
3.77058
3.75702
3.72687
3.71302
3.71531
3.72692
3.73518
3.74568
3.7594
3.76825
3.77356
3.77826
3.77859
3.77786
3.7755
3.77146
3.76934
3.76724
3.76613
3.7674
3.771
3.77681
3.78169
3.78321
3.78152
3.77842
3.77283
3.76952
3.77068
1
0.999977
1.00006
1.00008
1.0013
1.01338
1.06183
1.221
1.60386
2.34904
3.31609
3.91505
4.31706
4.32617
4.2542
4.11161
3.96685
3.78971
3.67689
3.67339
3.68326
3.70673
3.74047
3.75594
3.75986
3.75926
3.75621
3.75894
3.76105
3.7636
3.76638
3.7697
3.76997
3.76844
3.76507
3.76156
3.75997
3.76053
3.76277
3.76703
3.77416
3.78226
3.78598
3.78614
3.78496
3.7812
3.77473
3.77397
1.00223
1.01407
1.07333
1.20568
1.40817
1.76919
2.21627
2.75444
3.31416
3.73997
3.89147
4.04902
4.05305
3.96348
3.84118
3.78201
3.74539
3.70364
3.67276
3.6675
3.67789
3.70291
3.72967
3.74359
3.74758
3.74771
3.75305
3.75614
3.75727
3.76003
3.76589
3.7729
3.7781
3.78039
3.77955
3.77636
3.77212
3.76976
3.76984
3.77131
3.7743
3.77783
3.77925
3.7789
3.77754
3.7738
3.76779
3.76774
1.28935
1.75702
2.32382
2.87795
3.57141
4.17627
4.65048
5.11304
5.34697
5.26166
4.928
4.46584
4.07777
3.79492
3.66591
3.57898
3.55775
3.57419
3.60879
3.6476
3.68639
3.70834
3.71981
3.72808
3.73789
3.74921
3.75922
3.76486
3.76835
3.77437
3.78605
3.79709
3.80001
3.79855
3.79385
3.78493
3.77534
3.76961
3.76695
3.76611
3.76578
3.76649
3.76911
3.76969
3.76968
3.76854
3.76589
3.76599
2.66309
1.66655
1.12196
0.899656
0.702326
0.638085
0.667393
0.739995
0.784955
0.820813
0.902959
1.00192
1.01128
1.00599
1.0218
1.04179
1.04575
1.051
1.06885
1.0786
1.07788
1.0755
1.07414
1.06743
1.0499
1.04261
1.04449
1.04801
1.04796
1.0457
1.04275
1.03966
1.03726
1.03699
1.03782
1.04097
1.04638
1.04844
1.04892
1.04884
1.04687
1.04466
1.04485
1.04615
1.04945
1.05173
1.05203
1.05216
1.05726
1.18746
1.92537
3.37809
5.23368
7.83753
10.1725
9.95844
9.24377
8.40732
8.19417
8.06357
7.77959
7.38233
7.18957
7.10517
7.06588
7.02032
6.89397
6.75673
6.56283
6.22944
5.93605
5.82565
5.75945
5.72787
5.69435
5.61995
5.51618
5.3158
5.09104
5.00843
4.96165
4.91279
4.85024
4.78128
4.69594
4.54482
4.32553
4.20782
4.16457
4.13085
4.11102
4.07985
4.04082
3.99079
3.88446
3.72614
3.60993
3.546
3.4967
3.44839
3.39982
3.34945
3.29589
3.23983
3.20352
3.17286
3.1391
3.09486
3.01717
2.88933
2.80506
2.77896
2.7593
2.74139
2.72717
2.70782
2.68572
2.65314
2.58803
2.48201
2.40756
2.37771
2.3566
2.33781
2.32258
2.30803
2.29054
2.26362
2.22112
2.15531
2.09896
2.07001
2.04973
2.03087
2.01201
1.99184
1.9683
1.93692
1.89581
1.86013
1.83953
1.82356
1.80695
1.78654
1.75598
1.71513
1.68317
1.6651
1.65125
1.63713
1.62324
1.60809
1.59236
1.57665
1.55629
1.52559
1.49556
1.48171
1.47595
1.47095
1.48154
1.5271
1.64348
1.87734
2.20137
2.58876
2.96749
3.3275
3.61246
3.84764
4.02215
4.06801
4.07778
4.04091
3.99878
4.00183
3.9907
3.95839
3.88879
3.78865
3.65215
3.50231
3.43628
3.41872
3.40864
3.41316
3.43316
3.41983
3.39739
3.37874
3.35744
3.2528
3.37237
2.76896
2.11551
1.77704
1.52237
1.22291
1.12616
1.07273
0.988991
0.938466
0.941756
0.940497
0.926342
0.927829
0.944942
0.975867
0.993586
1.00619
1.03029
1.04813
1.04869
1.04867
1.05155
1.05244
1.04725
1.04457
1.04603
1.05016
1.05103
1.04901
1.04753
1.0458
1.04443
1.04406
1.0444
1.04689
1.04832
1.04843
1.04848
1.04771
1.04547
1.04403
1.04395
1.04479
1.04718
1.0484
1.04985
1.06397
1.17387
1.86858
2.85694
3.20485
3.91807
4.86624
6.54731
7.90481
8.54276
8.48736
8.35687
8.1284
7.79955
7.47459
7.2584
7.11803
7.00936
6.91789
6.84108
6.72954
6.57262
6.3299
6.04544
5.85877
5.77322
5.70822
5.65459
5.58347
5.49225
5.35027
5.14369
4.99366
4.93041
4.89365
4.85518
4.7924
4.70812
4.58338
4.40706
4.25431
4.17856
4.13876
4.10352
4.06787
4.02151
3.95288
3.85498
3.7436
3.63935
3.56371
3.51375
3.47608
3.43575
3.37248
3.2973
3.25338
3.22133
3.19015
3.15448
3.10811
3.03599
2.92526
2.82667
2.78308
2.76024
2.74079
2.72185
2.70083
2.67838
2.65249
2.59874
2.50284
2.42381
2.38807
2.36544
2.34587
2.32495
2.30635
2.29254
2.27664
2.2432
2.18375
2.12498
2.09437
2.07432
2.05536
2.03562
2.01411
1.98988
1.95991
1.92114
1.8836
1.85883
1.84112
1.82411
1.804
1.77548
1.73687
1.7034
1.68468
1.67109
1.65732
1.64267
1.62685
1.60911
1.5918
1.57207
1.54128
1.51396
1.5115
1.5261
1.57367
1.68375
1.84088
2.04056
2.20132
2.33191
2.47758
2.64874
2.84203
3.04166
3.2184
3.36444
3.43524
3.49696
3.58084
3.66992
3.8003
3.87478
3.87805
3.84223
3.76813
3.67542
3.55352
3.46449
3.44337
3.43155
3.42397
3.42314
3.42882
3.41903
3.39608
3.36669
3.26399
3.66014
3.3449
2.85543
2.36173
2.00414
1.64553
1.40474
1.27788
1.13383
0.98864
0.972746
0.956516
0.92303
0.920851
0.93021
0.94282
0.953146
0.967596
0.994127
1.02638
1.03028
1.03097
1.03717
1.04154
1.04048
1.04113
1.04667
1.0549
1.05686
1.05598
1.0531
1.04922
1.04789
1.04769
1.04843
1.0496
1.0492
1.04817
1.04657
1.04359
1.04257
1.04267
1.04306
1.04507
1.04704
1.05119
1.09112
1.29983
1.8809
3.0088
3.40196
3.35444
3.39654
3.56146
4.1492
5.82729
7.74681
8.65455
8.54782
8.19966
7.84844
7.6112
7.36957
7.11373
6.90067
6.78188
6.70824
6.62632
6.50803
6.37835
6.18439
5.96044
5.80031
5.71516
5.63231
5.53778
5.4338
5.32562
5.19254
5.03595
4.90674
4.83774
4.77796
4.71297
4.63532
4.54544
4.45297
4.3455
4.2289
4.15025
4.10387
4.04982
3.97752
3.8804
3.77659
3.6974
3.64702
3.59549
3.53856
3.48301
3.42599
3.3613
3.28762
3.21964
3.16893
3.13429
3.10213
3.06141
3.00347
2.92813
2.84947
2.79509
2.7665
2.74599
2.72517
2.69923
2.6657
2.62125
2.55479
2.47262
2.43499
2.41805
2.39705
2.37343
2.34964
2.32567
2.29756
2.26251
2.21525
2.15365
2.1021
2.07497
2.0563
2.03805
2.01829
1.99529
1.96689
1.93352
1.8965
1.864
1.84116
1.82257
1.80499
1.78521
1.75728
1.72006
1.68805
1.66869
1.65568
1.6431
1.62919
1.6147
1.5983
1.58029
1.56229
1.54242
1.54898
1.59356
1.72574
1.92507
2.14713
2.29069
2.41291
2.46602
2.44807
2.43065
2.4446
2.49019
2.5631
2.66761
2.79524
2.94238
3.1107
3.31879
3.52309
3.66957
3.7358
3.76264
3.76894
3.75348
3.69918
3.58775
3.51243
3.48291
3.46827
3.44622
3.43166
3.43534
3.42033
3.3872
3.33893
3.23275
3.74908
3.62224
3.32618
2.89701
2.50402
2.13037
1.80668
1.61746
1.44482
1.23263
1.16944
1.11497
1.01965
0.981505
0.983116
0.970587
0.949805
0.947651
0.958431
0.966049
0.970283
0.976213
0.990253
1.01188
1.02342
1.03232
1.0422
1.04802
1.04983
1.05052
1.04883
1.04847
1.05057
1.05554
1.0596
1.05999
1.05915
1.05649
1.05063
1.04394
1.04241
1.04225
1.04276
1.04576
1.05225
1.10704
1.52059
2.20328
2.97706
3.47469
3.52546
3.45986
3.39972
3.38632
3.37958
3.67124
5.00396
7.10256
7.87333
7.97973
7.89261
7.71528
7.44631
7.15306
6.89272
6.70944
6.60465
6.52126
6.43574
6.34064
6.2489
6.08984
5.88124
5.69754
5.58678
5.48974
5.39543
5.31164
5.23037
5.10663
4.9344
4.79165
4.71184
4.64979
4.5956
4.54429
4.49582
4.42871
4.32491
4.18211
4.05789
3.97826
3.90703
3.83853
3.77167
3.71052
3.65638
3.62052
3.58904
3.52453
3.42664
3.34049
3.2774
3.22383
3.16743
3.11175
3.0723
3.03827
3.00026
2.95253
2.8958
2.83907
2.78057
2.72977
2.70565
2.68632
2.65808
2.60162
2.52014
2.46994
2.44905
2.42212
2.38296
2.34686
2.32715
2.30724
2.28311
2.25163
2.2052
2.14701
2.1028
2.0763
2.05727
2.03946
2.02036
1.99833
1.96928
1.92859
1.8895
1.86094
1.84105
1.82246
1.80213
1.78065
1.75325
1.71903
1.68907
1.66994
1.65692
1.64508
1.63293
1.61994
1.60987
1.59156
1.59385
1.64374
1.78314
1.99193
2.21734
2.42457
2.568
2.57096
2.54673
2.51934
2.49407
2.46242
2.46167
2.47191
2.47306
2.467
2.47108
2.49981
2.57471
2.69638
2.8831
3.06406
3.23213
3.37364
3.48322
3.56912
3.59058
3.57562
3.56271
3.55341
3.54687
3.52116
3.49347
3.47937
3.44297
3.38683
3.32645
3.23038
3.75972
3.73199
3.59388
3.29459
2.95618
2.57115
2.20891
1.97503
1.7636
1.50892
1.3748
1.28213
1.15933
1.06388
1.04634
1.01354
0.961757
0.954965
0.961955
0.958005
0.953696
0.955504
0.962473
0.977482
0.997933
1.01491
1.03044
1.03553
1.03886
1.04247
1.04258
1.04177
1.04749
1.05723
1.05899
1.05909
1.05832
1.05554
1.05055
1.04565
1.04473
1.04444
1.04639
1.05343
1.10599
1.57569
2.58151
3.13133
3.45291
3.52371
3.49528
3.44193
3.36135
3.32962
3.3187
3.25991
3.36538
4.28415
6.06523
7.43776
7.87597
7.78272
7.50343
7.23369
6.98202
6.73543
6.51628
6.40493
6.33456
6.29557
6.20927
6.11146
5.94587
5.7165
5.54133
5.4502
5.37342
5.29595
5.20967
5.10338
4.94485
4.76028
4.66582
4.61741
4.57758
4.54585
4.50173
4.45332
4.36678
4.18712
3.99242
3.90137
3.85398
3.81701
3.79034
3.75821
3.71892
3.66311
3.57287
3.47815
3.39617
3.33286
3.28209
3.23221
3.17415
3.11388
3.06034
3.01472
2.96995
2.92619
2.88541
2.84553
2.79737
2.74674
2.70091
2.66419
2.62593
2.57044
2.5095
2.48094
2.45891
2.43138
2.39387
2.34601
2.32024
2.3068
2.28769
2.25115
2.19034
2.13198
2.10591
2.09266
2.07735
2.06001
2.0412
2.01897
1.98584
1.9312
1.8831
1.86837
1.85578
1.83934
1.81537
1.77656
1.73855
1.71552
1.70313
1.68827
1.67132
1.65817
1.65343
1.64918
1.66223
1.71445
1.82879
2.03677
2.25909
2.48985
2.59248
2.63114
2.65685
2.65097
2.63511
2.59832
2.55448
2.51144
2.47057
2.45789
2.44597
2.42952
2.41292
2.40616
2.39747
2.38636
2.40849
2.47218
2.59877
2.7742
2.97485
3.17301
3.37148
3.51765
3.53345
3.54988
3.55622
3.54111
3.48676
3.41476
3.35095
3.31658
3.29407
3.24869
3.76286
3.75028
3.70407
3.54748
3.30257
2.98292
2.6032
2.32294
2.08705
1.83232
1.65515
1.52812
1.38013
1.2506
1.20264
1.1525
1.06823
1.03963
1.02691
0.995299
0.969527
0.966668
0.966889
0.965092
0.968927
0.980636
0.993033
1.00238
1.01024
1.01962
1.02775
1.03185
1.04193
1.05373
1.05587
1.05655
1.05664
1.05426
1.04848
1.04628
1.04617
1.04916
1.0626
1.14626
1.57261
2.76502
3.30367
3.48927
3.55592
3.49031
3.38467
3.35968
3.33824
3.28757
3.2627
3.23929
3.14907
3.15845
3.64787
5.15998
6.73083
7.307
7.43158
7.32202
7.13388
6.83319
6.51307
6.33784
6.26096
6.21901
6.1624
6.05887
5.93392
5.7443
5.54535
5.42442
5.3476
5.27375
5.19533
5.09941
4.95822
4.78215
4.65481
4.59647
4.55536
4.52458
4.48084
4.42047
4.33307
4.17465
3.98725
3.8915
3.84776
3.81187
3.78176
3.75124
3.71058
3.64291
3.52387
3.42494
3.38099
3.34886
3.31344
3.27125
3.2155
3.13074
3.03157
2.97884
2.95239
2.93003
2.90757
2.87949
2.84321
2.78794
2.70603
2.62636
2.57771
2.55168
2.53448
2.51506
2.49117
2.46116
2.42184
2.37389
2.32568
2.28841
2.25823
2.22116
2.17321
2.13651
2.11655
2.09163
2.05769
2.03246
2.01579
1.9972
1.97118
1.93335
1.89137
1.84889
1.82521
1.81157
1.79378
1.76489
1.73727
1.72026
1.70476
1.6926
1.68342
1.67947
1.698
1.76655
1.89665
2.1098
2.34374
2.48927
2.56167
2.66442
2.72574
2.73445
2.72836
2.71462
2.68405
2.63057
2.56665
2.511
2.47604
2.45562
2.43918
2.42268
2.40742
2.39607
2.38107
2.35871
2.2994
2.2618
2.27033
2.30908
2.40388
2.5655
2.77674
3.0547
3.22415
3.31391
3.39638
3.40933
3.37875
3.32181
3.31279
3.30862
3.30596
3.28995
3.77239
3.76549
3.75636
3.69028
3.54047
3.28304
2.9679
2.68788
2.40858
2.13294
1.94196
1.78118
1.61794
1.47356
1.38402
1.30001
1.18767
1.12939
1.09516
1.04696
0.991252
0.984896
0.981624
0.969976
0.971258
0.978049
0.978269
0.977665
0.979533
0.98539
0.997928