/*--------------------------------*- C++ -*----------------------------------*\
  =========                 |
  \\      /  F ield         | OpenFOAM: The Open Source CFD Toolbox
   \\    /   O peration     | Website:  https://openfoam.org
    \\  /    A nd           | Version:  7
     \\/     M anipulation  |
\*---------------------------------------------------------------------------*/
FoamFile
{
    version     2.0;
    format      ascii;
    class       volScalarField;
    location    "1.4";
    object      T;
}
// * * * * * * * * * * * * * * * * * * * * * * * * * * * * * * * * * * * * * //

dimensions      [0 0 0 1 0 0 0];

internalField   nonuniform List<scalar> 
18432
(
1
1
1
1
1
1
1
1
1
1
1
1
1
1
1
1
1
1
1
1
1
1
1
1
1
1
1
1
1
1
1
1
1
1
1
1
1
1
1
1
1
1
1
1
1
1
1
1
1
1
1
1
1
1
1
1
1
1
1
1
1
1
1
1
1
1
1
1
1
1
1
1
1
1
1
1
1
1
1
1
1
1
1
1
1
1
1
1
1
1
1
1
1
1
1
1
1
1
1
1
1
1
1
1
1
1
1
1
1
1
1
1
1
1
1
1
1
1
1
1
1
1
1
1
1
1
1
1
1
1
1
1
1
1
1
1
1
1
1
1
1
1
1
1
1
1
1
1
1
1
1
1
1
1
1
1
1
1
1
1
1
1
1
1
1
1
1
1
1
1
1
1
1
1
1
1
1
1
1
1
1
1
1
1
1
1
1
1
1
1
1
1
1
1
1
1
1
1
1
1
1
1
1
1
1
1
1
1
1
1
1
1
1
1
1
1
1
1
1
1
1
1
1
1
1
1
1
1
1
1
1
1
1
1
1
1
1
1
1
1
1
1
1
1
1
1
1
1
1
1
1
1
1
1
1
1
1
1
1
1
1
1
1
1
1
1
1
1
1
1
1
1
1
1
1
1
1
1
1
1
1
1
1
1
1
1
1
1
1
1
1
1
1
1
1
1
1
1
1
1
1
1
1
1
1
1
1
1
1
1
1
1
1
1
1
1
1
1
1
1
1
1
1
1
1
1
1
1
1
1
1
1
1
1
1
1
1
1
1
1
1
1
1
1
1
1
1
1
1
1
1
1
1
1
1
1
1
1
1
1
1
1
1
1
1
1
1
1
1
1
1
1
1
1
1
1
1
1
1
1
1
1
1
1
1
1
1
1
1
1
1
1
1
1
1
1
1
1
1
1
1
1
1
1
1
1
1
1
1
1
1
1
1
1
1
1
1
1
1
1
1
1
1
1
1
1
1
1
1
1
1
1
1
1
1
1
1
1
1
1
1
1
1
1
1
1
1
1
1
1
1
1
1
1
1
1
1
1
1
1
1
1
1
1
1
1
1
1
1
1
1
1
1
1
1
1
1
1
1
1
1
1
1
1
1
1
1
1
1
1
1
1
1
1
1
1
1
1
1
1
1
1
1
1
1
1
1
1
1
1
1
1
1
1
1
1
1
1
1
1
1
1
1
1
1
1
1
1
1
1
1
1
1
1
1
1
1
1
1
1
1
1
1
1
1
1
1
1
1
1
1
1
1
1
1
1
1
1
1
1
1
1
1
1
1
1
1
1
1
1
1
1
1
1
1
1
1
1
1
1
1
1
1
1
1
1
1
1
1
1
1
1
1
1
1
1
1
1
1
1
1
1
1
1
1
1
1
1
1
1
1
1
1
1
1
1
1
1
1
1
1
1
1
1
1
1
1
1
1
1
1
1
1
1
1
1
1
1
1
1
1
1
1
1
1
1
1
1
1
1
1
1
1
1
1
1
1
1
1
1
1
1
1
1
1
1
1
1
1
1
1
1
1
1
1
1
1
1
1
1
1
1
1
1
1
1
1
1
1
1
1
1
1
1
1
1
1
1
1
1
1
1
1
1
1
1
1
1
1
1
1
1
1
1
1
1
1
1
1
1
1
1
1
1
1
1
1
1
1
1
1
1
1
1
1
1
1
1
1
1
1
1
1
1
1
1
1
1
1
1
1
1
1
1
1
1
1
1
1
1
1
1
1
1
1
1
1
1
1
1
1
1
1
1
1
1
1
1
1
1
1
1
1
1
1
1
1
1
1
1
1
1
1
1
1
1
1
1
1
1
1
1
1
1
1
1
1
1
1
1
1
1
1
1
1
1
1
1
1
1
1
1
1
1
1
1
1
1
1
1
1
1
1
1
1
1
1
1
1
1
1
1
1
1
1
1
1
1
1
1
1
1
1
1
1
1
1
1
1
1
1
1
1
1
1
1
1
1
1
1
1
1
1
1
1
1
1
1
1
1
1
1
1
1
1
1
1
1
1
1
1
1
1
1
1
1
1
1
1
1
1
1
1
1
1
1
1
1
1
1
1
1
1
1
1
1
1
1
1
1
1
1
1
1
1
1
1
1
1
1
1
1
1
1
1
1
1
1
1
1
1
1
1
1
1
1
1
1
1
1
1
1
1
1
1
1
1
1
1
1
1
1
1
1
1
1
1
1
1
1
1
1
1
1
1
1
1
1
1
1
1
1
1
1
1
1
1
1
1
1
1
1
1
1
1
1
1
1
1
1
1
1
1
1
1
1
1
1
1
1
1
1
1
1
1
1
1
1
1
1
1
1
1
1
1
1
1
1
1
1
1
1
1
1
1
1
1
1
1
1
1
1
1
1
1
1
1
1
1
1
1
1
1
1
1
1
1
1
1
1
1
1
1
1
1
1
1
1
1
1
1
1
1
1
1
1
1
1
1
1
1
1
1
1
1
1
1
1
1
1
1
1
1
1
1
1
1
1
1
1
1
1
1
1
1
1
1
1
1
1
1
1
1
1
1
1
1
1
1
1
1
1
1
1
1
1
1
1
1
1
1
1
1
1
1
1
1
1
1
1
1
1
1
1
1
1
1
1
1
1
1
1
1
1
1
1
1
1
1
1
1
1
1
1
1
1
1
1
1
1
1
1
1
1
1
1
1
1
1
1
1
1
1
1
1
1
1
1
1
1
1
1
1
1
1
1
1
1
1
1
1
1
1
1
1
1
1
1
1
1
1
1
1
1
1
1
1
1
1
1
1
1
1
1
1
1
1
1
1
1
1
1
1
1
1
1
1
1
1
1
1
1
1
1
1
1
1
1
1
1
1
1
1
1
1
1
1
1
1
1
1
1
1
1
1
1
1
1
1
1
1
1
1
1
1
1
1
1
1
1
1
1
1
1
1
1
1
1
1
1
1
1
1
1
1
1
1
1
1
1
1
1
1
1
1
1
1
1
1
1
1
1
1
1
1
1
1
1
1
1
1
1
1
1
1
1
1
1
1
1
1
1
1
1
1
1
1
1
1
1
1
1
1
1
1
1
1
1
1
1
1
1
1
1
1
1
1
1
1
1
1
1
1
1
1
1
1
1
1
1
1
1
1
1
1
1
1
1
1
1
1
1
1
1
1
1
1
1
1
1
1
1
1
1
1
1
1
1
1
1
1
1
1
1
1
1
1
1
1
1
1
1
1
1
1
1
1
1
1
1
1
1
1
1
1
1
1
1
1
1
1
1
1
1
1
1
1
1
1
1
1
1
1
1
1
1
1
1
1
1
1
1
1
1
1
1
1
1
1
1
1
1
1
1
1
1
1
1
1
1
1
1
1
1
1
1
1
1
1
1
1
1
1
1
1
1
1
1
1
1
1
1
1
1
1
1
1
1
1
1
1
1
1
1
1
1
1
1
1
1
1
1
1
1
1
1
1
1
1
1
1
1
1
1
1
1
1
1
1
1
1
1
1
1
1
1
1
1
1
1
1
1
1
1
1
1
1
1
1
1
1
1
1
1
1
1
1
1
1
1
1
1
1
1
1
1
1
1
1
1
1
1
1
1
1
1
1
1
1
1
1
1
1
1
1
1
1
1
1
1
1
1
1
1
1
1
1
1
1
1
1
1
1
1
1
1
1
1
1
1
1
1
1
1
1
1
1
1
1
1
1
1
1
1
1
1
1
1
1
1
1
1
1
1
1
1
1
1
1
1
1
1
1
1
1
1
1
1
1
1
1
1
1
1
1
1
1
1
1
1
1
1
1
1
1
1
1
1
1
1
1
1
1
1
1
1
1
1
1
1
1
1
1
1
1
1
1
1
1
1
1
1
1
1
1
1
1
1
1
1
1
1
1
1
1
1
1
1
1
1
1
1
1
1
1
1
1
1
1
1
1
1
1
1
1
1
1
1
1
1
1
1
1
1
1
1
1
1
1
1
1
1
1
1
1
1
1
1
1
1
1
1
1
1
1
1
1
1
1
1
1
1
1
1
1
1
1
1
1
1
1
1
1
1
1
1
1
1
1
1
1
1
1
1
1
1
1
1
1
1
1
1
1
1
1
1
1
1
1
1
1
1
1
1
1
1
1
1
1
1
1
1
1
1
1
1
1
1
1
1
1
1
1
1
1
1
1
1
1
1
1
1
1
1
1
1
1
1
1
1
1
1
1
1
1
1
1
1
1
1
1
1
1
1
1
1
1
1
1
1
1
1
1
1
1
1
1
1
1
1
1
1
1
1
1
1
1
1
1
1
1
1
1
1
1
1
1
1
1
1
1
1
1
1
1
1
1
1
1
1
1
1
1
1
1
1
1
1
1
1
1
1
1
1
1
1
1
1
1
1
1
1
1
1
1
1
1
1
1
1
1
1
1
1
1
1
1
1
1
1
1
1
1
1
1
1
1
1
1
1
1
1
1
1
1
1
1
1
1
1
1
1
1
1
1
1
1
1
1
1
1
1
1
1
1
1
1
1
1
1
1
1
1
1
1
1
1
1
1
1
1
1
1
1
1
1
1
1
1
1
1
1
1
1
1
1
1
1
1
1
1
1
1
1
1
1
1
1
1
1
1
1
1
1
1
1
1
1
1
1
1
1
1
1
1
1
1
1
1
1
1
1
1
1
1
1
1
1
1
1
1
1
1
1
1
1
1
1
1
1
1
1
1
1
1
1
1
1
1
1
1
1
1
1
1
1
1
1
1
1
1
1
1
1
1
1
1
1
1
1
1
1
1
1
1
1
1
1
1
1
1
1
1
1
1
1
1
1
1
1
1
1
1
1
1
1
1
1
1
1
1
1
1
1
1
1
1
1
1
1
1
1
1
1
1
1
1
1
1
1
1
1
1
1
1
1
1
1
1
1
1
1
1
1
1
1
1
1
1
1
1
1
1
1
1
1
1
1
1
1
1
1
1
1
1
1
1
1
1
1
1
1
1
1
1
1
1
1
1
1
1
1
1
1
1
1
1
1
1
1
1
1
1
1
1
1
1
1
1
1
1
1
1
1
1
1
1
1
1
1
1
1
1
1
1
1
1
1
1
1
1
1
1
1
1
1
1
1
1
1
1
1
1
1
1
1
1
1
1
1
1
1
1
1
1
1
1
1
1
1
1
1
1
1
1
1
1
1
1
1
1
1
1
1
1
1
1
1
1
1
1
1
1
1
1
1
1
1
1
1
1
1
1
1
1
1
1
1
1
1
1
1
1
1
1
1
1
1
1
1
1
1
1
1
1
1
1
1
1
1
1
1
1
1
1
1
1
1
1
1
1
1
1
1
1
1
1
1
1
1
1
1
1
1
1
1
1
1
1
1
1
1
1
1
1
1
1
1
1
1
1
1
1
1
1
1
1
1
1
1
1
1
1
1
1
1
1
1
1
1
1
1
1
1
1
1
1
1
1
1
1
1
1
1
1
1
1
1
1
1
1
1
1
1
1
1
1
1
1
1
1
1
1
1
1
1
1
1
1
1
1
1
1
1
1
1
1
1
1
1
1
1
1
1
1
1
1
1
1
1
1
1
1
1
1
1
1
1
1
1
1
1
1
1
1
1
1
1
1
1
1
1
1
1
1
1
1
1
1
1
1
1
1
1
1
1
1
1
1
1
1
1
1
1
1
1
1
1
1
1
1
1
1
1
1
1
1
1
1
1
1
1
1
1
1
1
1
1
1
1
1
1
1
1
1
1
1
1
1
1
1
1
1
1
1
1
1
1
1
1
1
1
1
1
1
1
1
1
1
1
1
1
1
1
1
1
1
1
1
1
1
1
1
1
1
1
1
1
1
1
1
1
1
1
1
1
1
1
1
1
1
1
1
1
1
1
1
1
1
1
1
1
1
1
1
1
1
1
1
1
1
1
1
1
1
1
1
1
1
1
1
1
1
1
1
1
1
1
1
1
1
1
1
1
1
1
1
1
1
1
1
1
1
1
1
1
1
1
1
1
1
1
1
1
1
1
1
1
1
1
1
1
1
1
1
1
1
1
1
1
1
1
1
1
1
1
1
1
1
1
1
1
1
1
1
1
1
1
1
1
1
1
1
1
1
1
1
1
1
1
1
1
1
1
1
1
1
1
1
1
1
1
1
1
1
1
1
1
1
1
1
1
1
1
1
1
1
1
1
1
1
1
1
1
1
1
1
1
1
1
1
1
1
1
1
1
1
1
1
1
1
1
1
1
1
1
1
1
1
1
1
1
1
1
1
1
1
1
1
1
1
1
1
1
1
1
1
1
1
1
1
1
1
1
1
1
1
1
1
1
1
1
1
1
1
1
1
1
1
1
1
1
1
1
1
1
1
1
1
1
1
1
1
1
1
1
1
1
1
1
1
1
1
1
1
1
1
1
1
1
1
1
1
1
1
1
1
1
1
1
1
1
1
1
1
1
1
1
1
1
1
1
1
1
1
1
1
1
1
1
1
1
1
1
1
1
1
1
1
1
1
1
1
1
1
1
1
1
1
1
1
1
1
1
1
1
1
1
1
1
1
1
1
1
1
1
1
1
1
1
1
1
1
1
1
1
1
1
1
1
1
1
1
1
1
1
1
1
1
1
1
1
1
1
1
1
1
1
1
1
1
1
1
1
1
1
1
1
1
1
1
1
1
1
1
1
1
1
1
1
1
1
1
1
1
1
1
1
1
1
1
1
1
1
1
1
1
1
1
1
1
1
1
1
1
1
1
1
1
1
1
1
1
1
1
1
1
1
1
1
1
1
1
1
1
1
1
1
1
1
1
1
1
1
1
1
1
1
1
1
1
1
1
1
1
1
1
1
1
1
1
1
1
1
1
1
1
1
1
1
1
1
1
1
1
1
1
1
1
1
1
1
1
1
1
1
1
1
1
1
1
1
1
1
1
1
1
1
1
1
1
1
1
1
1
1
1
1
1
1
1
1
1
1
1
1
1
1
1
1
1
1
1
1
1
1
1
1
1
1
1
1
1.07772
1.18112
1.28622
1.37659
1.47682
1.55839
1.61792
1.66972
1.69622
1.6904
1.65984
1.61251
1.57179
1.54035
1.52654
1.51404
1.51292
1.51527
1.52026
1.52577
1.53066
1.53295
1.53416
1.53537
1.53718
1.5394
1.54117
1.54183
1.54209
1.54282
1.54468
1.54647
1.54703
1.54705
1.54679
1.54577
1.54462
1.54417
1.54416
1.54436
1.54462
1.54488
1.54525
1.54539
1.5455
1.54549
1.54539
1.54553
1.00071
1.00471
1.02532
1.06932
1.12816
1.21618
1.29976
1.37958
1.45167
1.50687
1.52882
1.5568
1.56913
1.56357
1.55344
1.5459
1.54076
1.53546
1.53324
1.53323
1.53447
1.53715
1.53991
1.54149
1.54246
1.54302
1.54418
1.54444
1.54434
1.54451
1.54532
1.54646
1.54735
1.54779
1.54773
1.54731
1.54671
1.54648
1.54657
1.54699
1.54758
1.54803
1.54814
1.54808
1.54791
1.54753
1.54694
1.54736
1
0.999993
1.00002
1.00003
1.00046
1.00464
1.02153
1.07437
1.18305
1.34453
1.50067
1.5809
1.62565
1.62424
1.6141
1.59686
1.57965
1.55873
1.54681
1.54657
1.54776
1.55034
1.5538
1.55469
1.55495
1.55494
1.55477
1.55503
1.55485
1.55457
1.55434
1.5545
1.55456
1.55434
1.55381
1.55306
1.55243
1.55222
1.55227
1.55267
1.55349
1.55422
1.55435
1.55411
1.55363
1.55303
1.55218
1.55295
1
1
1
1
0.999999
1
1
1.00003
1.00205
1.02621
1.15604
1.32967
1.5171
1.58351
1.60722
1.60413
1.59225
1.58896
1.58398
1.5757
1.57338
1.56924
1.56679
1.56576
1.56631
1.56669
1.56761
1.56912
1.56956
1.56935
1.56891
1.56829
1.56786
1.56724
1.56635
1.56545
1.56436
1.56346
1.5632
1.56328
1.56362
1.56369
1.56338
1.56248
1.56139
1.56042
1.55966
1.56062
1
1
1
1
1
1
1
1
1
0.999969
1.00087
1.01579
1.11073
1.29965
1.45865
1.5901
1.61037
1.61791
1.61304
1.60578
1.59122
1.58078
1.57405
1.57086
1.5711
1.57181
1.57325
1.57554
1.57728
1.57825
1.57912
1.57948
1.57946
1.57913
1.57832
1.57746
1.57633
1.57534
1.57503
1.57509
1.57516
1.57484
1.57389
1.57258
1.57108
1.56984
1.5689
1.56975
1
1
1
1
1
1
1
1
1
0.999999
0.999999
0.999981
1.00026
1.01214
1.07652
1.26104
1.43331
1.5545
1.60696
1.60297
1.59888
1.59361
1.58648
1.58203
1.57932
1.57796
1.57708
1.57762
1.57899
1.58074
1.5828
1.58469
1.58476
1.58445
1.58378
1.5829
1.58201
1.58144
1.58144
1.58156
1.58147
1.58082
1.57978
1.57869
1.5777
1.57707
1.57636
1.57728
1
1
1
1
1
1
1
1
1
1
1
0.999999
0.999999
0.999988
1.00013
1.00727
1.07283
1.21365
1.40134
1.50559
1.58219
1.59797
1.59769
1.5932
1.58924
1.58532
1.58034
1.57834
1.57869
1.58017
1.58208
1.58427
1.58501
1.58488
1.58423
1.58347
1.5832
1.58314
1.58357
1.58404
1.58396
1.58346
1.5828
1.58235
1.58211
1.58194
1.58153
1.58211
1
1
1
1
1
1
1
1
1
1
1
1
1
0.999999
0.999999
0.999989
1.00019
1.00418
1.05628
1.18993
1.37126
1.48648
1.54233
1.57772
1.58291
1.58308
1.58014
1.57847
1.57895
1.57934
1.57998
1.58045
1.58129
1.58192
1.58209
1.58222
1.58252
1.58321
1.58414
1.58467
1.58467
1.58435
1.58375
1.58357
1.58354
1.5835
1.58335
1.58343
1
1
1
1
1
1
1
1
1
1
1
1
1
1
1
0.999999
0.999999
0.999993
1.00015
1.00403
1.04157
1.18551
1.33657
1.48133
1.52767
1.55004
1.56114
1.57145
1.57312
1.57173
1.57198
1.57315
1.57438
1.57601
1.57765
1.57907
1.58042
1.58168
1.58276
1.58318
1.58319
1.58315
1.58303
1.5828
1.5827
1.58275
1.5828
1.58274
1
1
1
1
1
1
1
1
1
1
1
1
1
1
1
1
1
0.999999
0.999999
0.999995
1.00009
1.00492
1.0362
1.16234
1.32902
1.45847
1.53485
1.54709
1.55799
1.56099
1.56203
1.56402
1.56531
1.56674
1.56889
1.57149
1.57401
1.57596
1.57725
1.57802
1.57843
1.57898
1.57963
1.58001
1.58026
1.58055
1.58107
1.581
1
1
1
1
1
1
1
1
1
1
1
1
1
1
1
1
1
1
1
1
1
0.999995
1.00009
1.00367
1.04101
1.14743
1.32414
1.44715
1.52759
1.55314
1.55655
1.55918
1.561
1.56151
1.56295
1.56466
1.56625
1.56817
1.57001
1.57138
1.5721
1.57285
1.57369
1.5742
1.57469
1.57532
1.57642
1.5767
1
1
1
1
1
1
1
1
1
1
1
1
1
1
1
1
1
1
1
1
1
1
1
0.999995
1.00015
1.00302
1.04384
1.15843
1.32687
1.44317
1.51455
1.54614
1.55648
1.5593
1.56309
1.56329
1.563
1.56375
1.5655
1.56708
1.56798
1.56841
1.56851
1.56854
1.56902
1.56998
1.57141
1.57188
1
1
1
1
1
1
1
1
1
1
1
1
1
1
1
1
1
1
1
1
1
1
1
0.999999
1
0.999996
1.00026
1.00421
1.04351
1.17891
1.33978
1.46073
1.5074
1.53542
1.5535
1.55616
1.55583
1.55743
1.55975
1.56173
1.56303
1.56328
1.56326
1.56354
1.5643
1.56546
1.56721
1.56769
1
1
1
1
1
1
1
1
1
1
1
1
1
1
1
1
1
1
1
1
1
1
1
1
1
0.999999
1
0.999997
1.0003
1.00732
1.05112
1.20177
1.36073
1.49204
1.52561
1.53678
1.54189
1.54776
1.55175
1.554
1.55561
1.55691
1.55803
1.55899
1.55995
1.56087
1.5627
1.56328
1
1
1
1
1
1
1
1
1
1
1
1
1
1
1
1
1
1
1
1
1
1
1
1
1
1
1
1
0.999999
1
1.00043
1.01215
1.07266
1.24096
1.3994
1.50486
1.54585
1.54774
1.5499
1.5516
1.5523
1.55375
1.55482
1.55549
1.55638
1.55768
1.55951
1.55994
1
1
1
1
1
1
1
1
1
1
1
1
1
1
1
1
1
1
1
1
1
1
1
1
1
1
1
1
1
1
0.999999
1.00003
1.001
1.02068
1.11534
1.29246
1.43838
1.51668
1.54935
1.55543
1.55673
1.55843
1.55797
1.55749
1.55737
1.55779
1.55849
1.55858
1
1
1
1
1
1
1
1
1
1
1
1
1
1
1
1
1
1
1
1
1
1
1
1
1
1
1
1
1
1
1
1
0.999999
1.00012
1.00283
1.03947
1.17955
1.36209
1.47547
1.51921
1.54681
1.55576
1.55447
1.5551
1.55621
1.55749
1.55843
1.55837
1
1
1
1
1
1
1
1
1
1
1
1
1
1
1
1
1
1
1
1
1
1
1
1
1
1
1
1
1
1
1
1
1
1
1
1.00047
1.00925
1.0772
1.25402
1.43417
1.52455
1.53497
1.54098
1.54668
1.55171
1.55497
1.55633
1.55613
1
1
1
1
1
1
1
1
1
1
1
1
1
1
1
1
1
1
1
1
1
1
1
1
1
1
1
1
1
1
1
1
1
1
1
0.999999
1.00002
1.00182
1.02908
1.15499
1.35155
1.48844
1.54942
1.5529
1.55464
1.55643
1.55581
1.555
1
1
1
1
1
1
1
1
1
1
1
1
1
1
1
1
1
1
1
1
1
1
1
1
1
1
1
1
1
1
1
1
1
1
1
1
1
1
1.00027
1.0082
1.08287
1.26121
1.4373
1.52164
1.55565
1.56114
1.56076
1.55933
1
1
1
1
1
1
1
1
1
1
1
1
1
1
1
1
1
1
1
1
1
1
1
1
1
1
1
1
1
1
1
1
1
1
1
1
1
1
1
1.00004
1.00207
1.03343
1.18604
1.39238
1.49984
1.53008
1.55096
1.55562
1
1
1
1
1
1
1
1
1
1
1
1
1
1
1
1
1
1
1
1
1
1
1
1
1
1
1
1
1
1
1
1
1
1
1
1
1
1
1
1
1
1.00057
1.01353
1.11421
1.31377
1.48636
1.54067
1.54816
1
1
1
1
1
1
1
1
1
1
1
1
1
1
1
1
1
1
1
1
1
1
1
1
1
1
1
1
1
1
1
1
1
1
1
1
1
1
1
1
1
1
1.00009
1.00554
1.06053
1.25801
1.44039
1.54277
1
1
1
1
1
1
1
1
1
1
1
1
1
1
1
1
1
1
1
1
1
1
1
1
1
1
1
1
1
1
1
1
1
1
1
1
1
1
1
1
1
1
1
1.00003
1.00153
1.03842
1.20036
1.42147
1
1
1
1
1
1
1
1
1
1
1
1
1
1
1
1
1
1
1
1
1
1
1
1
1
1
1
1
1
1
1
1
1
1
1
1
1
1
1
1
1
1
1
1
1
1.00091
1.02029
1.13722
1
1
1
1
1
1
1
1
1
1
1
1
1
1
1
1
1
1
1
1
1
1
1
1
1
1
1
1
1
1
1
1
1
1
1
1
1
1
1
1
1
1
1
1
1
1
1.00031
1.00596
1
1
1
1
1
1
1
1
1
1
1
1
1
1
1
1
1
1
1
1
1
1
1
1
1
1
1
1
1
1
1
1
1
1
1
1
1
1
1
1
1
1
1
1
1
1
1
0.999941
1
1
1
1
1
1
1
1
1
1
1
1
1
1
1
1
1
1
1
1
1
1
1
1
1
1
1
1
1
1
1
1
1
1
1
1
1
1
1
1
1
1
1
1
1
1
1
0.999981
1
1
1
1
1
1
1
1
1
1
1
1
1
1
1
1
1
1
1
1
1
1
1
1
1
1
1
1
1
1
1
1
1
1
1
1
1
1
1
1
1
1
1
1
1
1
1
0.999998
1
1
1
1
1
1
1
1
1
1
1
1
1
1
1
1
1
1
1
1
1
1
1
1
1
1
1
1
1
1
1
1
1
1
1
1
1
1
1
1
1
1
1
1
1
1
1
1
1
1
1
1
1
1
1
1
1
1
1
1
1
1
1
1
1
1
1
1
1
1
1
1
1
1
1
1
1
1
1
1
1
1
1
1
1
1
1
1
1
1
1
1
1
1
1
1
1
1
1
1
1
1
1
1
1
1
1
1
1
1
1
1
1
1
1
1
1
1
1
1
1
1
1
1
1
1
1
1
1
1
1
1
1
1
1
1
1
1
1
1
1
1
1
1
1
1
1
1
1
1
1
1
1
1
1
1
1
1
1
1
1
1
1
1
1
1
1
1
1
1
1
1
1
1
1
1
1
1
1
1
1
1
1
1
1
1
1
1
1
1
1
1
1
1
1
1
1
1
1
1
1
1
1
1
1
1
1
1
1
1
1
1
1
1
1
1
1
1
1
1
1
1
1
1
1
1
1
1
1
1
1
1
1
1
1
1
1
1
1
1
1
1
1
1
1
1
1
1
1
1
1
1
1
1
1
1
1
1
1
1
1
1
1
1
1
1
1
1
1
1
1
1
1
1
1
1
1
1
1
1
1
1
1
1
1
1
1
1
1
1
1
1
1
1
1
1
1
1
1
1
1
1
1
1
1
1
1
1
1
1
1
1
1
1
1
1
1
1
1
1
1
1
1
1
1
1
1
1
1
1
1
1
1
1
1
0.999998
1
1
1
1
1
1
1
1
1
1
1
1
1
1
1
1
1
1
1
1
1
1
1
1
1
1
1
1
1
1
1
1
1
1
1
1
1
1
1
1
1
1
1
1
1
1
1
0.999981
1
1
1
1
1
1
1
1
1
1
1
1
1
1
1
1
1
1
1
1
1
1
1
1
1
1
1
1
1
1
1
1
1
1
1
1
1
1
1
1
1
1
1
1
1
1
1
0.99994
1
1
1
1
1
1
1
1
1
1
1
1
1
1
1
1
1
1
1
1
1
1
1
1
1
1
1
1
1
1
1
1
1
1
1
1
1
1
1
1
1
1
1
1
1
1
1.00031
1.00601
1
1
1
1
1
1
1
1
1
1
1
1
1
1
1
1
1
1
1
1
1
1
1
1
1
1
1
1
1
1
1
1
1
1
1
1
1
1
1
1
1
1
1
1
1
1.00091
1.02026
1.13731
1
1
1
1
1
1
1
1
1
1
1
1
1
1
1
1
1
1
1
1
1
1
1
1
1
1
1
1
1
1
1
1
1
1
1
1
1
1
1
1
1
1
1
1.00003
1.00152
1.03842
1.20037
1.42142
1
1
1
1
1
1
1
1
1
1
1
1
1
1
1
1
1
1
1
1
1
1
1
1
1
1
1
1
1
1
1
1
1
1
1
1
1
1
1
1
1
1
1.00009
1.00554
1.06053
1.25799
1.44046
1.54273
1
1
1
1
1
1
1
1
1
1
1
1
1
1
1
1
1
1
1
1
1
1
1
1
1
1
1
1
1
1
1
1
1
1
1
1
1
1
1
1
1
1.00057
1.01353
1.11421
1.31377
1.48635
1.54068
1.54817
1
1
1
1
1
1
1
1
1
1
1
1
1
1
1
1
1
1
1
1
1
1
1
1
1
1
1
1
1
1
1
1
1
1
1
1
1
1
1
1.00004
1.00207
1.03343
1.18604
1.39238
1.49984
1.53008
1.55096
1.55563
1
1
1
1
1
1
1
1
1
1
1
1
1
1
1
1
1
1
1
1
1
1
1
1
1
1
1
1
1
1
1
1
1
1
1
1
1
1
1.00027
1.0082
1.08287
1.26121
1.4373
1.52164
1.55565
1.56114
1.56076
1.55933
1
1
1
1
1
1
1
1
1
1
1
1
1
1
1
1
1
1
1
1
1
1
1
1
1
1
1
1
1
1
1
1
1
1
1
0.999999
1.00002
1.00182
1.02908
1.15499
1.35155
1.48844
1.54942
1.5529
1.55464
1.55643
1.55581
1.555
1
1
1
1
1
1
1
1
1
1
1
1
1
1
1
1
1
1
1
1
1
1
1
1
1
1
1
1
1
1
1
1
1
1
1
1.00047
1.00925
1.0772
1.25402
1.43417
1.52455
1.53497
1.54098
1.54668
1.55171
1.55497
1.55633
1.55613
1
1
1
1
1
1
1
1
1
1
1
1
1
1
1
1
1
1
1
1
1
1
1
1
1
1
1
1
1
1
1
1
0.999999
1.00012
1.00283
1.03947
1.17955
1.36209
1.47547
1.51921
1.54681
1.55576
1.55447
1.5551
1.55621
1.55749
1.55843
1.55837
1
1
1
1
1
1
1
1
1
1
1
1
1
1
1
1
1
1
1
1
1
1
1
1
1
1
1
1
1
1
0.999999
1.00003
1.001
1.02068
1.11534
1.29246
1.43838
1.51668
1.54935
1.55543
1.55673
1.55843
1.55797
1.55749
1.55737
1.55779
1.55849
1.55858
1
1
1
1
1
1
1
1
1
1
1
1
1
1
1
1
1
1
1
1
1
1
1
1
1
1
1
1
0.999999
1
1.00043
1.01215
1.07266
1.24096
1.3994
1.50486
1.54585
1.54774
1.5499
1.5516
1.5523
1.55375
1.55482
1.55549
1.55638
1.55768
1.55951
1.55994
1
1
1
1
1
1
1
1
1
1
1
1
1
1
1
1
1
1
1
1
1
1
1
1
1
0.999999
1
0.999997
1.0003
1.00732
1.05112
1.20177
1.36073
1.49204
1.52561
1.53678
1.54189
1.54776
1.55175
1.554
1.55561
1.55691
1.55803
1.55899
1.55995
1.56087
1.5627
1.56328
1
1
1
1
1
1
1
1
1
1
1
1
1
1
1
1
1
1
1
1
1
1
1
0.999999
1
0.999996
1.00026
1.00421
1.04351
1.17891
1.33978
1.46073
1.5074
1.53542
1.5535
1.55616
1.55583
1.55743
1.55975
1.56173
1.56303
1.56328
1.56326
1.56354
1.5643
1.56546
1.56721
1.56769
1
1
1
1
1
1
1
1
1
1
1
1
1
1
1
1
1
1
1
1
1
1
1
0.999995
1.00015
1.00302
1.04384
1.15843
1.32687
1.44317
1.51455
1.54614
1.55648
1.5593
1.56309
1.56329
1.563
1.56375
1.5655
1.56708
1.56798
1.56841
1.56851
1.56854
1.56902
1.56998
1.57141
1.57188
1
1
1
1
1
1
1
1
1
1
1
1
1
1
1
1
1
1
1
1
1
0.999995
1.00009
1.00367
1.04101
1.14743
1.32414
1.44715
1.52759
1.55314
1.55655
1.55918
1.561
1.56151
1.56295
1.56466
1.56625
1.56817
1.57001
1.57138
1.5721
1.57285
1.57369
1.5742
1.57469
1.57532
1.57642
1.5767
1
1
1
1
1
1
1
1
1
1
1
1
1
1
1
1
1
0.999999
0.999999
0.999995
1.00009
1.00492
1.0362
1.16234
1.32902
1.45847
1.53485
1.54709
1.55799
1.56099
1.56203
1.56402
1.56531
1.56674
1.56889
1.57149
1.57401
1.57596
1.57725
1.57802
1.57843
1.57898
1.57963
1.58001
1.58026
1.58055
1.58107
1.581
1
1
1
1
1
1
1
1
1
1
1
1
1
1
1
0.999999
0.999999
0.999993
1.00015
1.00403
1.04157
1.18551
1.33657
1.48133
1.52767
1.55004
1.56114
1.57145
1.57312
1.57173
1.57198
1.57315
1.57438
1.57601
1.57765
1.57907
1.58042
1.58168
1.58276
1.58318
1.58319
1.58315
1.58303
1.5828
1.5827
1.58275
1.5828
1.58274
1
1
1
1
1
1
1
1
1
1
1
1
1
0.999999
0.999999
0.999989
1.00019
1.00418
1.05628
1.18993
1.37126
1.48648
1.54233
1.57772
1.58291
1.58308
1.58014
1.57847
1.57895
1.57934
1.57998
1.58045
1.58129
1.58192
1.58209
1.58222
1.58252
1.58321
1.58414
1.58467
1.58467
1.58435
1.58375
1.58357
1.58354
1.5835
1.58335
1.58343
1
1
1
1
1
1
1
1
1
1
1
0.999999
0.999999
0.999988
1.00013
1.00727
1.07283
1.21365
1.40135
1.50559
1.58219
1.59797
1.59769
1.5932
1.58924
1.58532
1.58034
1.57834
1.57869
1.58017
1.58208
1.58427
1.58501
1.58488
1.58423
1.58347
1.5832
1.58314
1.58357
1.58404
1.58396
1.58346
1.5828
1.58235
1.58211
1.58194
1.58153
1.58211
1
1
1
1
1
1
1
1
1
0.999999
0.999999
0.999981
1.00026
1.01214
1.07652
1.26104
1.43331
1.5545
1.60696
1.60297
1.59888
1.59361
1.58648
1.58203
1.57932
1.57796
1.57708
1.57762
1.57899
1.58074
1.5828
1.58469
1.58476
1.58445
1.58378
1.5829
1.58201
1.58144
1.58144
1.58156
1.58147
1.58082
1.57978
1.57869
1.5777
1.57707
1.57636
1.57728
1
1
1
1
1
1
1
1
1
0.999969
1.00087
1.01579
1.11073
1.29965
1.45865
1.5901
1.61038
1.61791
1.61304
1.60578
1.59122
1.58078
1.57405
1.57086
1.5711
1.57181
1.57325
1.57554
1.57728
1.57825
1.57912
1.57948
1.57946
1.57913
1.57832
1.57746
1.57633
1.57534
1.57503
1.57509
1.57516
1.57484
1.57389
1.57258
1.57108
1.56984
1.5689
1.56975
1
1
1
1
0.999999
1
1
1.00003
1.00205
1.02621
1.15604
1.32967
1.5171
1.58351
1.60722
1.60413
1.59225
1.58896
1.58398
1.5757
1.57338
1.56924
1.56679
1.56576
1.56631
1.56669
1.56761
1.56912
1.56956
1.56935
1.56891
1.56829
1.56786
1.56724
1.56635
1.56545
1.56436
1.56346
1.5632
1.56328
1.56362
1.56369
1.56338
1.56248
1.56139
1.56042
1.55966
1.56062
1
0.999993
1.00002
1.00003
1.00046
1.00464
1.02153
1.07437
1.18305
1.34453
1.50067
1.5809
1.62565
1.62424
1.6141
1.59686
1.57965
1.55873
1.54681
1.54657
1.54776
1.55034
1.5538
1.55469
1.55495
1.55494
1.55477
1.55503
1.55485
1.55457
1.55434
1.5545
1.55456
1.55434
1.55381
1.55306
1.55243
1.55222
1.55227
1.55267
1.55349
1.55422
1.55435
1.55411
1.55363
1.55303
1.55218
1.55295
1.00071
1.00471
1.02532
1.06932
1.12816
1.21618
1.29976
1.37958
1.45167
1.50687
1.52882
1.5568
1.56913
1.56357
1.55344
1.5459
1.54076
1.53546
1.53324
1.53323
1.53447
1.53714
1.53991
1.54149
1.54246
1.54302
1.54418
1.54444
1.54434
1.54451
1.54532
1.54646
1.54735
1.54779
1.54773
1.54731
1.54671
1.54648
1.54657
1.54699
1.54758
1.54803
1.54814
1.54808
1.54791
1.54753
1.54694
1.54736
1.07772
1.18112
1.28622
1.37659
1.47682
1.55839
1.61792
1.66972
1.69622
1.6904
1.65984
1.61251
1.57179
1.54035
1.52654
1.51404
1.51292
1.51527
1.52026
1.52577
1.53066
1.53295
1.53416
1.53537
1.53718
1.5394
1.54117
1.54183
1.54209
1.54282
1.54468
1.54647
1.54703
1.54705
1.54679
1.54577
1.54462
1.54417
1.54416
1.54436
1.54462
1.54488
1.54525
1.54539
1.5455
1.54549
1.54539
1.54553
1.40379
1.23232
1.10272
1.04939
0.996223
0.982196
0.999144
1.03161
1.04078
1.04933
1.07912
1.11129
1.11233
1.10817
1.11039
1.11243
1.11306
1.11555
1.12213
1.12286
1.1219
1.11968
1.11817
1.11578
1.11105
1.10836
1.10856
1.1086
1.10813
1.10673
1.10546
1.10454
1.10356
1.10325
1.10329
1.10379
1.10501
1.10524
1.10516
1.10487
1.10379
1.10287
1.10283
1.10294
1.10364
1.10419
1.10399
1.10379
1.10528
1.14889
1.35766
1.61269
1.82007
2.04194
2.2279
2.22143
2.17768
2.11357
2.09702
2.09057
2.07278
2.04365
2.02786
2.02061
2.0173
2.01409
2.00513
1.99506
1.97885
1.94917
1.92248
1.91259
1.90686
1.90427
1.90133
1.89444
1.88474
1.8652
1.84264
1.83388
1.82864
1.82342
1.81665
1.80901
1.79942
1.78226
1.75742
1.74386
1.73894
1.73522
1.73319
1.72975
1.72528
1.71931
1.70611
1.68589
1.67094
1.66285
1.65647
1.65012
1.64348
1.63599
1.628
1.61975
1.61431
1.60975
1.60476
1.59811
1.58625
1.56662
1.55358
1.54949
1.54637
1.54348
1.54114
1.53808
1.53481
1.5298
1.51904
1.50066
1.48738
1.48212
1.47851
1.47543
1.47306
1.47072
1.46762
1.46259
1.4543
1.44116
1.42949
1.42325
1.41887
1.41485
1.41084
1.40655
1.40152
1.39483
1.38599
1.37813
1.37358
1.37026
1.36712
1.36342
1.35752
1.34892
1.34174
1.33744
1.33388
1.32999
1.32595
1.32161
1.31731
1.3133
1.3084
1.301
1.29356
1.28996
1.28841
1.28695
1.28965
1.30136
1.33048
1.38475
1.45122
1.52176
1.58311
1.63554
1.67346
1.70308
1.72461
1.73151
1.73486
1.73134
1.72569
1.72474
1.72283
1.71877
1.71084
1.69942
1.68171
1.65982
1.64857
1.64492
1.64312
1.64377
1.64684
1.64531
1.64273
1.64028
1.6371
1.62331
1.50164
1.42147
1.31463
1.25073
1.20015
1.12742
1.10433
1.09114
1.06605
1.05927
1.06388
1.06638
1.06436
1.06467
1.069
1.07719
1.08336
1.0884
1.09692
1.10221
1.10219
1.10174
1.10226
1.10288
1.10175
1.10133
1.10168
1.10233
1.10227
1.10126
1.10086
1.10059
1.10023
1.1
1.09998
1.1004
1.10063
1.1006
1.10055
1.10009
1.09904
1.09839
1.09832
1.09852
1.09923
1.09931
1.09997
1.10466
1.14004
1.32879
1.53702
1.58546
1.67512
1.78042
1.94605
2.06738
2.12486
2.12393
2.11728
2.10256
2.07844
2.05409
2.03727
2.02591
2.01659
2.00897
2.00359
1.99548
1.98264
1.96097
1.9348
1.9177
1.91008
1.9043
1.89945
1.89278
1.88399
1.86998
1.84916
1.83357
1.82661
1.82228
1.81806
1.81148
1.80259
1.78874
1.76852
1.75081
1.74212
1.73777
1.73387
1.7297
1.72423
1.71592
1.70381
1.68946
1.67588
1.66623
1.65972
1.65466
1.64899
1.63988
1.62891
1.62226
1.61724
1.61254
1.60748
1.6009
1.59024
1.57304
1.55763
1.5509
1.54745
1.54431
1.54101
1.53747
1.53389
1.52978
1.52102
1.50477
1.49092
1.48483
1.48099
1.47762
1.47405
1.47083
1.46818
1.46493
1.45831
1.44668
1.43481
1.42828
1.42398
1.42001
1.41591
1.4114
1.40617
1.39967
1.39141
1.38335
1.37797
1.37425
1.37094
1.36725
1.36184
1.35388
1.34647
1.34203
1.33857
1.33484
1.3307
1.32625
1.32151
1.31715
1.31242
1.30501
1.2983
1.29742
1.30113
1.31318
1.34004
1.37586
1.41777
1.44961
1.47494
1.50238
1.53296
1.56446
1.59502
1.62048
1.64044
1.64977
1.65818
1.66982
1.68161
1.69737
1.70765
1.70879
1.70516
1.69713
1.68557
1.66836
1.65395
1.64962
1.6476
1.64642
1.64669
1.64807
1.64722
1.64421
1.6397
1.62578
1.53797
1.4985
1.43235
1.35774
1.29549
1.22164
1.16784
1.13786
1.10117
1.06055
1.05674
1.05235
1.04263
1.0423
1.04551
1.05045
1.05437
1.05934
1.06785
1.07765
1.07915
1.07959
1.08159
1.08411
1.08508
1.0861
1.08832
1.09082
1.0915
1.09131
1.09075
1.08998
1.08989
1.08995
1.09026
1.09058
1.09048
1.09034
1.09005
1.08914
1.08868
1.0887
1.08886
1.08961
1.09051
1.09233
1.10615
1.1736
1.31629
1.52595
1.60682
1.60232
1.60693
1.62702
1.70655
1.90108
2.08285
2.15559
2.14703
2.11933
2.09176
2.07371
2.05524
2.03486
2.01746
2.00696
2.00083
1.99449
1.98503
1.97362
1.95505
1.93335
1.91822
1.9103
1.90252
1.89333
1.8829
1.87209
1.85822
1.84169
1.82807
1.82047
1.81405
1.80722
1.79902
1.78935
1.7785
1.76582
1.75232
1.74322
1.73783
1.73156
1.72281
1.71056
1.69688
1.6864
1.67991
1.67335
1.66606
1.65823
1.64954
1.64001
1.62902
1.61893
1.61168
1.6068
1.60222
1.59654
1.58817
1.57616
1.56308
1.55453
1.5503
1.54696
1.54331
1.53911
1.53359
1.52606
1.51485
1.50059
1.49417
1.4915
1.48791
1.48358
1.47938
1.47522
1.4701
1.46327
1.45395
1.44171
1.43113
1.42529
1.42123
1.41734
1.41323
1.4085
1.40263
1.39554
1.38754
1.38036
1.37527
1.37134
1.36784
1.36399
1.35843
1.35054
1.34335
1.33879
1.33544
1.33192
1.32789
1.32373
1.31933
1.31481
1.31043
1.30562
1.3074
1.31885
1.35149
1.39687
1.44165
1.46808
1.49
1.50053
1.49801
1.49544
1.49819
1.5068
1.51986
1.53784
1.55888
1.58237
1.60838
1.63945
1.66853
1.68753
1.695
1.69825
1.69984
1.69801
1.6909
1.67566
1.66362
1.65813
1.65573
1.65228
1.65122
1.6525
1.65085
1.64616
1.63869
1.62334
1.5558
1.53799
1.4989
1.44032
1.38089
1.31615
1.25563
1.21783
1.17795
1.12322
1.1067
1.09157
1.06441
1.05366
1.05483
1.05177
1.04632
1.04607
1.04962
1.05169
1.05293
1.05478
1.05917
1.06607
1.07048
1.07378
1.07673
1.07843
1.07954
1.0803
1.08019
1.0803
1.08128
1.08305
1.08442
1.08457
1.0844
1.08381
1.08223
1.08039
1.08015
1.08025
1.08063
1.08186
1.08417
1.10243
1.23373
1.38949
1.50969
1.59702
1.62212
1.61837
1.61441
1.61295
1.61258
1.65757
1.83532
2.05027
2.11353
2.11648
2.11037
2.09683
2.07516
2.0506
2.02907
2.01348
2.00368
1.99592
1.98844
1.98018
1.97137
1.95546
1.93453
1.91663
1.90579
1.89613
1.88663
1.87796
1.86921
1.85603
1.83801
1.82299
1.81393
1.80679
1.80054
1.79485
1.78966
1.78222
1.77006
1.75281
1.73785
1.72834
1.71949
1.71049
1.70131
1.69301
1.68569
1.68055
1.67601
1.66711
1.65325
1.64035
1.63054
1.62259
1.61486
1.6072
1.60162
1.59679
1.59127
1.58388
1.57422
1.56457
1.55488
1.54663
1.54301
1.54015
1.53575
1.52635
1.51171
1.5023
1.49842
1.49341
1.48631
1.48011
1.47681
1.47351
1.46927
1.46331
1.45417
1.44241
1.43328
1.4279
1.42383
1.42
1.41608
1.41167
1.40576
1.39725
1.38878
1.38239
1.37788
1.3738
1.36939
1.36476
1.35902
1.35164
1.34505
1.34058
1.33712
1.33366
1.32997
1.32602
1.32302
1.31822
1.31894
1.33159
1.36512
1.41107
1.45678
1.49563
1.5204
1.52071
1.51631
1.5123
1.50902
1.50447
1.50437
1.50652
1.50706
1.50687
1.50818
1.51361
1.52645
1.54733
1.57868
1.60677
1.6311
1.65066
1.66603
1.67771
1.67932
1.67669
1.67397
1.67249
1.67158
1.66814
1.66401
1.66196
1.6568
1.64874
1.64013
1.626
1.56605
1.55983
1.53974
1.49945
1.45201
1.39242
1.33295
1.29226
1.25031
1.19293
1.1617
1.13862
1.10652
1.07973
1.07483
1.06468
1.04878
1.04752
1.05008
1.04912
1.04773
1.04817
1.0501
1.05468
1.06103
1.06613
1.07041
1.07169
1.07271
1.07412
1.07472
1.07487
1.07673
1.0796
1.08035
1.08045
1.08036
1.07983
1.07869
1.07745
1.07728
1.07735
1.07821
1.08048
1.09741
1.23889
1.47341
1.55548
1.59499
1.61852
1.61962
1.61936
1.61577
1.6138
1.61229
1.60352
1.62097
1.75868
1.96353
2.09753
2.12488
2.1154
2.09103
2.06904
2.04767
2.02569
2.00586
1.99533
1.98824
1.9838
1.97528
1.9657
1.94915
1.9264
1.90918
1.90008
1.89222
1.88412
1.87498
1.86371
1.84647
1.82603
1.81507
1.80912
1.80421
1.80038
1.79546
1.79008
1.78002
1.75865
1.73484
1.72325
1.71701
1.71197
1.70819
1.70352
1.6977
1.68967
1.67729
1.66464
1.65355
1.64423
1.63646
1.62883
1.61997
1.61096
1.60335
1.59692
1.59045
1.5842
1.57781
1.57072
1.562
1.55346
1.54621
1.54038
1.53422
1.52491
1.5139
1.50833
1.50365
1.49766
1.4905
1.4824
1.47801
1.47563
1.47224
1.46551
1.45359
1.44161
1.43628
1.43359
1.4302
1.42635
1.4226
1.41836
1.4117
1.40019
1.38983
1.38635
1.38325
1.37949
1.37414
1.36562
1.35721
1.35236
1.34984
1.34642
1.34204
1.33828
1.33634
1.33416
1.33681
1.34898
1.37567
1.42098
1.46592
1.50901
1.52798
1.53372
1.53876
1.53824
1.53621
1.53054
1.52337
1.51617
1.50883
1.50663
1.50491
1.50275
1.50065
1.49945
1.49722
1.49431
1.49833
1.5105
1.53359
1.56342
1.59528
1.62526
1.6538
1.6734
1.67525
1.67762
1.67829
1.67613
1.66809
1.65716
1.64734
1.64183
1.63859
1.63191
1.57448
1.57071
1.56232
1.53996
1.50595
1.45979
1.40302
1.35828
1.31516
1.26459
1.22941
1.20193
1.16618
1.13273
1.12058
1.10667
1.08216
1.07404
1.0708
1.06201
1.05387
1.05259
1.05252
1.05199
1.05326
1.057
1.06102
1.06388
1.06619
1.069
1.07173
1.07303
1.07569
1.07869
1.07938
1.07978
1.08
1.07968
1.07843
1.07786
1.07782
1.07861
1.08275
1.11001
1.23422
1.49585
1.59983
1.62292
1.63233
1.624
1.61275
1.61476
1.61694
1.61344
1.61032
1.60598
1.59158
1.59364
1.67268
1.87349
2.03561
2.0818
2.08999
2.08136
2.06468
2.03824
2.01047
1.99527
1.98779
1.98233
1.97536
1.96466
1.95266
1.93425
1.91465
1.90255
1.89477
1.88717
1.87892
1.86855
1.85312
1.83341
1.81892
1.81193
1.80667
1.80271
1.79712
1.78959
1.77942
1.76097
1.73766
1.72506
1.71909
1.71407
1.70955
1.70504
1.6994
1.6906
1.67502
1.66124
1.65489
1.65029
1.64508
1.6386
1.62995
1.61716
1.60256
1.59488
1.59102
1.58787
1.58468
1.58001
1.57355
1.56413
1.5507
1.53752
1.52902
1.5243
1.52134
1.51774
1.51276
1.50645
1.49896
1.49033
1.48168
1.47483
1.4693
1.46243
1.45294
1.44496
1.44025
1.4346
1.42755
1.42242
1.41911
1.41561
1.41067
1.40277
1.39336
1.38388
1.37846
1.37522
1.37125
1.36508
1.35859
1.35458
1.35094
1.34809
1.34574
1.34398
1.34811
1.36363
1.39226
1.43685
1.48179
1.50981
1.52435
1.54287
1.55433
1.55582
1.55456
1.55232
1.54785
1.5396
1.52855
1.5184
1.51199
1.50816
1.50536
1.50299
1.50089
1.49907
1.49597
1.49086
1.47862
1.47247
1.47443
1.4822
1.50028
1.5295
1.56528
1.60932
1.63439
1.64716
1.65902
1.66043
1.6562
1.64743
1.64548
1.64397
1.64275
1.63993
1.58079
1.57856
1.57579
1.56544
1.54446
1.50867
1.46412
1.42213
1.37583
1.3265
1.29216
1.26017
1.22421
1.19112
1.17073
1.14977
1.11918
1.10335
1.09428
1.08092
1.06444
1.06196
1.0606
1.05668
1.05712
1.05944
1.05965
1.05962
1.06026
1.06223
1.06637
1.07127
1.07639
1.08033
1.08085
1.08111
1.08152
1.08121
1.08023
1.07945
1.07976
1.08635
1.15139
1.29234
1.48349
1.62734
1.65139
1.64769
1.64215
1.63068
1.61522
1.61108
1.61024
1.6089
1.60586
1.60197
1.59416
1.57566
1.56598
1.60559
1.76887
1.94611
2.05666
2.07364
2.06886
2.04631