/*--------------------------------*- C++ -*----------------------------------*\
  =========                 |
  \\      /  F ield         | OpenFOAM: The Open Source CFD Toolbox
   \\    /   O peration     | Website:  https://openfoam.org
    \\  /    A nd           | Version:  7
     \\/     M anipulation  |
\*---------------------------------------------------------------------------*/
FoamFile
{
    version     2.0;
    format      ascii;
    class       volVectorField;
    location    "1";
    object      U;
}
// * * * * * * * * * * * * * * * * * * * * * * * * * * * * * * * * * * * * * //

dimensions      [0 1 -1 0 0 0 0];

internalField   nonuniform List<vector> 
73728
(
(3 4.20029e-17 0)
(3 -4.5701e-17 0)
(3 -1.10648e-16 0)
(3 9.15808e-18 0)
(3 -1.04234e-16 0)
(3 -4.79862e-16 0)
(3 -7.07244e-16 0)
(3 -1.11565e-15 0)
(3 -1.23714e-15 0)
(3 -1.12043e-15 0)
(3 -7.95175e-16 0)
(3 -1.40433e-16 0)
(3 4.10986e-16 0)
(3 3.80752e-16 0)
(3 -5.5423e-17 0)
(3 -4.55282e-16 0)
(3 -5.48718e-16 0)
(3 -5.47779e-16 0)
(3 -5.5897e-16 0)
(3 -5.17238e-16 0)
(3 -8.23218e-16 0)
(3 -1.09509e-15 0)
(3 -2.49388e-15 0)
(3 -2.6369e-15 0)
(3 -1.76919e-15 0)
(3 -9.57392e-16 0)
(3 4.07287e-16 0)
(3 -5.24738e-16 0)
(3 -1.94787e-17 0)
(3 1.18499e-15 0)
(3 1.50987e-15 0)
(3 1.8042e-15 0)
(3 1.55465e-15 0)
(3 1.92246e-15 0)
(3 1.75457e-15 0)
(3 5.84913e-16 0)
(3 2.59196e-16 0)
(3 1.12015e-15 0)
(3 2.46057e-15 0)
(3 3.05811e-15 0)
(3 3.66481e-15 0)
(3 3.75385e-15 0)
(3 3.03019e-15 0)
(3 -1.07492e-15 0)
(3 -2.65042e-15 0)
(3 -2.5769e-15 0)
(3 -2.17638e-15 0)
(3 -2.47647e-15 0)
(3 -2.9669e-15 0)
(3 -2.76174e-15 0)
(3 -1.29071e-15 0)
(3 -1.25803e-15 0)
(3 -1.077e-15 0)
(3 -1.06034e-15 0)
(3 -4.3454e-16 0)
(3 1.91433e-15 0)
(3 3.58542e-15 0)
(3 3.23179e-15 0)
(3 2.49826e-15 0)
(3 2.44872e-15 0)
(3 2.78961e-15 0)
(3 1.58754e-15 0)
(3 3.66246e-16 0)
(3 1.57455e-16 0)
(3 7.91737e-16 0)
(3 5.69291e-16 0)
(3 1.25663e-15 0)
(3 6.49432e-16 0)
(3 1.92394e-16 0)
(3 -1.01189e-16 0)
(3 -2.02027e-17 0)
(3 -3.37505e-16 0)
(3 5.63414e-16 0)
(3 2.37541e-15 0)
(3 2.01542e-15 0)
(3 1.43323e-15 0)
(3 3.86051e-16 0)
(3 -6.81768e-16 0)
(3 -2.17967e-15 0)
(3 -3.21187e-15 0)
(3 -3.08247e-15 0)
(3 -2.09711e-15 0)
(3 -2.32569e-15 0)
(3 -3.12424e-15 0)
(3 -3.88742e-15 0)
(3 -3.388e-15 0)
(3 -2.48767e-15 0)
(3 -2.35531e-15 0)
(3 -1.26215e-15 0)
(3 -6.68287e-16 0)
(3 -1.91174e-16 0)
(3 4.66152e-16 0)
(3 2.07071e-15 0)
(3 1.651e-15 0)
(3 4.53267e-16 0)
(3 -8.81548e-16 0)
(3 4.63582e-16 0)
(3 -3.80073e-16 0)
(3 -7.46249e-16 0)
(3 -3.67878e-16 0)
(3 -4.51196e-16 0)
(3 -1.06682e-15 0)
(3 -1.79856e-15 0)
(3 -1.90102e-15 0)
(3 -1.92248e-15 0)
(3 -1.88633e-15 0)
(3 -1.73008e-15 0)
(3 -1.13213e-15 0)
(3 -6.47271e-16 0)
(3 -3.34912e-16 0)
(3 1.3613e-16 0)
(3 -2.49614e-16 0)
(3 -5.83677e-16 0)
(3 -9.32287e-16 0)
(3 -5.3732e-16 0)
(3 -2.39724e-16 0)
(3 -5.1451e-16 0)
(3 -8.05027e-16 0)
(3 -1.10528e-15 0)
(3 -6.53651e-16 0)
(3 -8.91503e-17 0)
(3 8.32371e-16 0)
(3 1.52704e-15 0)
(3 7.95457e-16 0)
(3 1.68038e-15 0)
(3 2.15199e-15 0)
(3 2.6761e-15 0)
(3 1.39282e-15 0)
(3 5.91884e-16 0)
(3 1.33364e-15 0)
(3 1.74002e-15 0)
(3 1.7079e-15 0)
(3 1.49232e-15 0)
(3 1.43246e-15 0)
(3 2.16266e-15 0)
(3 2.44355e-15 0)
(3 2.70045e-15 0)
(3 2.99024e-15 0)
(3 1.04243e-15 0)
(3 4.89313e-17 0)
(3 -2.15991e-15 0)
(3 -2.56275e-15 0)
(3 -9.54905e-16 0)
(3 -5.0296e-17 0)
(3 -1.08042e-16 0)
(3 7.34595e-17 0)
(3 1.11774e-15 0)
(3 1.40698e-15 0)
(3 1.14262e-15 0)
(3 5.07871e-16 0)
(3 9.18983e-16 0)
(3 4.28994e-15 0)
(3 4.52969e-15 0)
(3 3.59004e-15 0)
(3 3.35361e-15 0)
(3 3.63638e-15 0)
(3 4.72965e-15 0)
(3 3.47505e-15 0)
(3 2.29895e-15 0)
(3 1.8222e-15 0)
(3 1.13158e-15 0)
(3 4.26374e-16 0)
(3 2.9358e-16 0)
(3 4.59349e-16 0)
(3 5.1899e-16 0)
(3 3.35327e-16 0)
(3 2.27822e-16 0)
(3 -1.52121e-16 0)
(3 -2.45999e-17 0)
(3 2.09459e-16 0)
(3 3.04965e-16 0)
(3 1.53431e-17 0)
(3 -4.08208e-16 0)
(3 -2.08481e-15 0)
(3 -3.75076e-15 0)
(3 -3.96629e-15 0)
(3 -4.01738e-15 0)
(3 -4.06073e-15 0)
(3 -4.38915e-15 0)
(3 -3.22803e-15 0)
(3 -3.12397e-15 0)
(3 -2.6445e-15 0)
(3 -1.08439e-15 0)
(3 -6.14977e-16 0)
(3 -4.80317e-16 0)
(3 -2.12819e-16 0)
(3 -5.90667e-16 0)
(3 4.33345e-16 0)
(3 1.53957e-15 0)
(3 1.05392e-15 0)
(3 -3.97523e-16 0)
(3 -6.022e-16 0)
(3 3.59338e-16 0)
(3 -3.23925e-17 0)
(3 -4.92154e-16 0)
(3 -4.78603e-16 0)
(3 -4.55954e-16 0)
(3 -3.63833e-16 0)
(3 -8.89742e-16 0)
(3 -1.63206e-15 0)
(3 -1.91982e-15 0)
(3 -1.97321e-15 0)
(3 -1.73148e-15 0)
(3 -1.53448e-15 0)
(3 -1.18636e-15 0)
(3 -7.89812e-16 0)
(3 -4.35695e-16 0)
(3 4.69824e-16 0)
(3 1.13821e-16 0)
(3 1.65031e-16 0)
(3 2.42763e-16 0)
(3 1.74611e-16 0)
(3 3.11706e-16 0)
(3 1.45411e-16 0)
(3 6.80982e-16 0)
(3 1.12473e-15 0)
(3 1.27299e-15 0)
(3 1.23843e-15 0)
(3 1.61453e-15 0)
(3 2.37896e-15 0)
(3 3.01011e-15 0)
(3 2.12885e-15 0)
(3 2.22003e-15 0)
(3 1.1688e-15 0)
(3 1.22404e-15 0)
(3 1.93264e-15 0)
(3 2.68886e-15 0)
(3 2.5066e-15 0)
(3 2.45089e-15 0)
(3 2.32981e-15 0)
(3 7.55652e-16 0)
(3 -9.59578e-16 0)
(3 -2.80734e-15 0)
(3 -3.02362e-15 0)
(3 -7.65249e-16 0)
(3 7.59985e-16 0)
(3 8.11039e-16 0)
(3 1.19089e-16 0)
(3 -1.96872e-15 0)
(3 -2.58032e-15 0)
(3 -2.38196e-15 0)
(3 -2.31768e-15 0)
(3 -2.61303e-15 0)
(3 -3.01193e-15 0)
(3 -2.66397e-15 0)
(3 -2.33148e-15 0)
(3 -3.9453e-16 0)
(3 8.98993e-16 0)
(3 9.6248e-16 0)
(3 1.89058e-15 0)
(3 3.02062e-15 0)
(3 3.01611e-15 0)
(3 3.45443e-15 0)
(3 3.96632e-15 0)
(3 1.70538e-15 0)
(3 1.10647e-15 0)
(3 -3.23963e-16 0)
(3 -3.34009e-16 0)
(3 -1.99147e-16 0)
(3 -7.14034e-16 0)
(3 -8.56429e-16 0)
(3 -1.21956e-15 0)
(3 -1.73608e-15 0)
(3 -9.32576e-16 0)
(3 -1.61187e-15 0)
(3 -2.1169e-15 0)
(3 -2.65565e-15 0)
(3 -2.66701e-15 0)
(3 -2.90472e-15 0)
(3 -3.19254e-15 0)
(3 -2.6712e-15 0)
(3 -2.80979e-15 0)
(3 -3.70211e-15 0)
(3 -4.00921e-15 0)
(3 -4.32608e-15 0)
(3 -2.98357e-15 0)
(3 -1.72356e-15 0)
(3 -1.7335e-15 0)
(3 -1.19762e-15 0)
(3 2.49613e-16 0)
(3 1.50008e-15 0)
(3 1.22536e-15 0)
(3 1.91688e-17 0)
(3 -3.3605e-16 0)
(3 1.67418e-17 0)
(3 -4.56549e-17 0)
(3 -7.2984e-16 0)
(3 1.23363e-15 0)
(3 -8.89098e-17 0)
(3 -2.05697e-16 0)
(3 -1.24709e-16 0)
(3 -5.10425e-16 0)
(3 -1.34163e-16 0)
(3 -1.362e-16 0)
(3 1.5906e-16 0)
(3 -2.54394e-16 0)
(3 -6.40784e-16 0)
(3 -8.97283e-16 0)
(3 -1.29356e-15 0)
(3 -1.02203e-15 0)
(3 -5.17404e-16 0)
(3 -3.13739e-16 0)
(3 -2.03382e-16 0)
(3 2.87844e-16 0)
(3 2.7841e-16 0)
(3 6.43636e-16 0)
(3 5.74082e-16 0)
(3 3.22958e-16 0)
(3 5.28213e-17 0)
(3 1.75775e-17 0)
(3 2.0881e-16 0)
(3 7.56369e-16 0)
(3 1.06763e-15 0)
(3 8.88248e-16 0)
(3 1.46419e-15 0)
(3 2.5932e-15 0)
(3 2.58623e-15 0)
(3 2.79884e-15 0)
(3 2.45437e-15 0)
(3 2.27381e-15 0)
(3 2.78324e-15 0)
(3 3.91848e-15 0)
(3 4.47397e-15 0)
(3 3.87486e-15 0)
(3 3.71561e-15 0)
(3 4.01139e-15 0)
(3 2.14015e-15 0)
(3 -1.39e-15 0)
(3 -2.20549e-15 0)
(3 -2.45235e-15 0)
(3 -3.0754e-15 0)
(3 -1.39096e-15 0)
(3 4.23278e-17 0)
(3 -1.99219e-16 0)
(3 -1.24283e-15 0)
(3 -2.23552e-15 0)
(3 -2.57104e-15 0)
(3 -2.42515e-15 0)
(3 -2.2487e-15 0)
(3 -2.3253e-15 0)
(3 -2.27685e-15 0)
(3 -1.4634e-15 0)
(3 -1.30548e-15 0)
(3 -8.65646e-16 0)
(3 -3.16516e-17 0)
(3 1.75794e-15 0)
(3 2.18451e-15 0)
(3 1.68677e-15 0)
(3 2.18358e-16 0)
(3 1.70605e-16 0)
(3 1.29575e-16 0)
(3 4.26156e-16 0)
(3 -3.77607e-17 0)
(3 -4.79422e-16 0)
(3 -1.441e-15 0)
(3 -1.83506e-15 0)
(3 -1.5337e-15 0)
(3 -1.39936e-15 0)
(3 -1.28563e-15 0)
(3 -2.2038e-15 0)
(3 -2.56186e-15 0)
(3 -2.38982e-15 0)
(3 -2.34398e-15 0)
(3 -2.67587e-15 0)
(3 -2.16404e-15 0)
(3 -1.09674e-15 0)
(3 -1.11304e-15 0)
(3 -2.37946e-15 0)
(3 -3.2797e-15 0)
(3 -3.68336e-15 0)
(3 -3.75661e-15 0)
(3 -2.42319e-15 0)
(3 -2.68509e-15 0)
(3 -2.4412e-15 0)
(3 -2.12496e-15 0)
(3 -1.00681e-15 0)
(3 5.6703e-18 0)
(3 -4.38096e-17 0)
(3 -5.74845e-16 0)
(3 -1.07786e-15 0)
(3 -1.23205e-15 0)
(3 -1.36425e-15 0)
(3 -1.08842e-15 0)
(3 -2.0479e-15 0)
(3 6.24405e-17 0)
(3 -9.63443e-17 0)
(3 1.8224e-16 0)
(3 2.96753e-16 0)
(3 3.79225e-16 0)
(3 3.63792e-16 0)
(3 6.2825e-16 0)
(3 9.12689e-16 0)
(3 5.83149e-16 0)
(3 4.83146e-16 0)
(3 -1.59425e-16 0)
(3 -3.29698e-16 0)
(3 -8.00847e-16 0)
(3 -4.83472e-16 0)
(3 -1.48028e-16 0)
(3 7.9989e-16 0)
(3 1.03324e-15 0)
(3 8.54707e-16 0)
(3 9.72381e-16 0)
(3 4.05095e-16 0)
(3 1.05728e-16 0)
(3 1.2304e-16 0)
(3 1.98156e-16 0)
(3 3.31266e-16 0)
(3 6.83901e-16 0)
(3 7.39779e-16 0)
(3 2.42925e-15 0)
(3 3.49892e-15 0)
(3 4.25786e-15 0)
(3 4.36789e-15 0)
(3 4.06623e-15 0)
(3 4.25631e-15 0)
(3 4.72901e-15 0)
(3 4.37904e-15 0)
(3 3.70443e-15 0)
(3 2.56582e-15 0)
(3 2.6315e-15 0)
(3 2.42284e-15 0)
(3 2.07475e-15 0)
(3 8.37505e-16 0)
(3 3.35322e-16 0)
(3 2.76874e-16 0)
(3 -3.29189e-16 0)
(3 -2.52854e-15 0)
(3 -2.61841e-15 0)
(3 -2.15575e-15 0)
(3 -8.90781e-16 0)
(3 -7.97468e-16 0)
(3 -2.12834e-15 0)
(3 -1.41527e-15 0)
(3 -7.39892e-16 0)
(3 2.41613e-16 0)
(3 6.52475e-17 0)
(3 -1.01628e-15 0)
(3 -1.35004e-15 0)
(3 -1.01965e-15 0)
(3 -5.94477e-16 0)
(3 3.13479e-16 0)
(3 6.92254e-16 0)
(3 1.06199e-15 0)
(3 8.91869e-16 0)
(3 1.19893e-15 0)
(3 6.88349e-16 0)
(3 6.841e-16 0)
(3 4.19613e-16 0)
(3 -1.64384e-15 0)
(3 -3.53924e-15 0)
(3 -3.50436e-15 0)
(3 -3.85696e-15 0)
(3 -3.76658e-15 0)
(3 -3.30572e-15 0)
(3 -3.0898e-15 0)
(3 -3.61768e-15 0)
(3 -4.24779e-15 0)
(3 -3.80224e-15 0)
(3 -2.83555e-15 0)
(3 -2.0853e-15 0)
(3 -1.03378e-16 0)
(3 3.17953e-16 0)
(3 -3.19927e-16 0)
(3 -1.52598e-15 0)
(3 -2.12153e-15 0)
(3 -2.87379e-15 0)
(3 -1.88131e-15 0)
(3 -2.34387e-15 0)
(3 -2.80109e-15 0)
(3 -3.12473e-15 0)
(3 -3.26896e-15 0)
(3 -2.75186e-15 0)
(3 -2.82319e-15 0)
(3 -2.14063e-15 0)
(3 -2.48676e-15 0)
(3 -3.62797e-15 0)
(3 -3.24956e-15 0)
(3 -2.07757e-15 0)
(3 -1.30381e-15 0)
(3 -6.34054e-18 0)
(3 9.70011e-17 0)
(3 6.46451e-16 0)
(3 1.02563e-15 0)
(3 1.14369e-15 0)
(3 1.37803e-15 0)
(3 1.02171e-15 0)
(3 9.0399e-16 0)
(3 3.87747e-16 0)
(3 1.21917e-16 0)
(3 5.57378e-16 0)
(3 1.49709e-16 0)
(3 1.10325e-16 0)
(3 9.91015e-17 0)
(3 1.48497e-16 0)
(3 1.0509e-15 0)
(3 1.14938e-15 0)
(3 3.51277e-16 0)
(3 -2.33952e-16 0)
(3 -3.02169e-16 0)
(3 -1.59712e-16 0)
(3 8.40847e-17 0)
(3 4.0811e-17 0)
(3 -4.34843e-16 0)
(3 -2.80187e-16 0)
(3 8.63873e-16 0)
(3 2.31564e-15 0)
(3 3.33297e-15 0)
(3 4.54264e-15 0)
(3 5.04646e-15 0)
(3 5.45785e-15 0)
(3 5.54434e-15 0)
(3 4.45326e-15 0)
(3 3.68461e-15 0)
(3 3.53205e-15 0)
(3 3.74515e-15 0)
(3 3.31947e-15 0)
(3 3.149e-15 0)
(3 3.08727e-15 0)
(3 2.75827e-15 0)
(3 2.02531e-15 0)
(3 6.87081e-16 0)
(3 -6.59666e-17 0)
(3 -1.66469e-15 0)
(3 -2.80328e-15 0)
(3 -2.77772e-15 0)
(3 -3.04064e-15 0)
(3 -3.11381e-15 0)
(3 -2.16168e-15 0)
(3 -1.19876e-15 0)
(3 2.15569e-16 0)
(3 1.18131e-15 0)
(3 2.12821e-15 0)
(3 1.59493e-15 0)
(3 1.11229e-15 0)
(3 1.21337e-15 0)
(3 1.86218e-15 0)
(3 2.70384e-15 0)
(3 3.56844e-15 0)
(3 3.38955e-15 0)
(3 3.50539e-15 0)
(3 2.85315e-15 0)
(3 1.88353e-15 0)
(3 1.04954e-15 0)
(3 -1.84647e-15 0)
(3 -4.54993e-15 0)
(3 -5.13789e-15 0)
(3 -5.19612e-15 0)
(3 -4.89196e-15 0)
(3 -4.25528e-15 0)
(3 -3.3008e-15 0)
(3 -2.68366e-15 0)
(3 -3.00706e-15 0)
(3 -2.81583e-15 0)
(3 -5.26595e-16 0)
(3 -2.01721e-16 0)
(3 -1.76491e-16 0)
(3 -3.39547e-16 0)
(3 -7.46055e-16 0)
(3 -4.27259e-16 0)
(3 -6.97259e-16 0)
(3 -2.11289e-15 0)
(3 -4.7049e-15 0)
(3 -5.26197e-15 0)
(3 -3.7851e-15 0)
(3 -2.51909e-15 0)
(3 -8.20078e-16 0)
(3 -6.53101e-16 0)
(3 -1.41807e-15 0)
(3 -1.46105e-15 0)
(3 -6.12778e-17 0)
(3 2.91709e-16 0)
(3 -3.92071e-16 0)
(3 -1.28586e-15 0)
(3 -1.01395e-15 0)
(3 5.45129e-16 0)
(3 -5.86663e-17 0)
(3 1.25223e-16 0)
(3 2.67765e-16 0)
(3 4.4753e-16 0)
(3 4.48017e-16 0)
(3 2.81681e-16 0)
(3 -2.57193e-18 0)
(3 -9.8387e-17 0)
(3 9.51399e-17 0)
(3 -4.43209e-16 0)
(3 -5.04348e-16 0)
(3 -4.05479e-16 0)
(3 -2.39986e-16 0)
(3 -2.71039e-16 0)
(3 -4.49114e-16 0)
(3 -5.95688e-16 0)
(3 4.90691e-17 0)
(3 2.6151e-16 0)
(3 3.44326e-16 0)
(3 6.64766e-16 0)
(3 5.4573e-16 0)
(3 8.38672e-16 0)
(3 4.36433e-16 0)
(3 6.89389e-17 0)
(3 2.9792e-16 0)
(3 8.77353e-16 0)
(3 1.17655e-15 0)
(3 1.62873e-15 0)
(3 2.38187e-15 0)
(3 3.30865e-15 0)
(3 4.19135e-15 0)
(3 3.77195e-15 0)
(3 1.92722e-15 0)
(3 1.63162e-15 0)
(3 2.63714e-15 0)
(3 3.95899e-15 0)
(3 4.63926e-15 0)
(3 5.9017e-15 0)
(3 5.37337e-15 0)
(3 3.81986e-15 0)
(3 2.17808e-15 0)
(3 2.07768e-16 0)
(3 -1.42421e-15 0)
(3 -1.31909e-15 0)
(3 -1.52137e-15 0)
(3 -2.15756e-15 0)
(3 -3.23256e-15 0)
(3 -3.9759e-15 0)
(3 -1.9621e-15 0)
(3 -5.32729e-16 0)
(3 8.60145e-16 0)
(3 1.15655e-15 0)
(3 2.04435e-15 0)
(3 2.33866e-15 0)
(3 2.02087e-15 0)
(3 2.38309e-15 0)
(3 2.46879e-15 0)
(3 3.01008e-15 0)
(3 4.9172e-15 0)
(3 3.6997e-15 0)
(3 3.35643e-15 0)
(3 1.91698e-15 0)
(3 6.05491e-16 0)
(3 -1.31823e-15 0)
(3 -2.63384e-15 0)
(3 -2.98522e-15 0)
(3 -3.25958e-15 0)
(3 -3.46476e-15 0)
(3 -2.64212e-15 0)
(3 -3.01006e-16 0)
(3 -1.80555e-17 0)
(3 -4.71366e-16 0)
(3 -2.0827e-17 0)
(3 2.0633e-15 0)
(3 2.50725e-15 0)
(3 1.47638e-15 0)
(3 9.27219e-16 0)
(3 -4.09624e-16 0)
(3 -1.60322e-15 0)
(3 -1.66419e-15 0)
(3 -8.46715e-16 0)
(3 -3.04953e-15 0)
(3 -3.77927e-15 0)
(3 -3.8215e-15 0)
(3 -3.06518e-15 0)
(3 -1.34527e-15 0)
(3 -5.6108e-16 0)
(3 -9.977e-16 0)
(3 -1.1073e-15 0)
(3 -1.05337e-15 0)
(3 -1.88325e-15 0)
(3 -4.18411e-16 0)
(3 2.33192e-15 0)
(3 2.63483e-15 0)
(3 1.9882e-15 0)
(3 -3.34689e-16 0)
(3 7.18788e-17 0)
(3 -2.22223e-17 0)
(3 -2.28868e-16 0)
(3 -3.21304e-16 0)
(3 -4.48095e-16 0)
(3 -5.49106e-16 0)
(3 -5.01921e-16 0)
(3 -2.59067e-16 0)
(3 2.3838e-16 0)
(3 4.21458e-16 0)
(3 -1.95044e-16 0)
(3 -3.87635e-16 0)
(3 -4.60019e-16 0)
(3 -7.41082e-16 0)
(3 -1.1012e-15 0)
(3 -9.35119e-16 0)
(3 -4.84308e-16 0)
(3 -4.5787e-16 0)
(3 3.56526e-16 0)
(3 8.67102e-16 0)
(3 6.94619e-16 0)
(3 -9.46892e-17 0)
(3 -2.79007e-16 0)
(3 -2.30604e-17 0)
(3 -1.27353e-16 0)
(3 -2.48489e-16 0)
(3 2.81978e-16 0)
(3 1.36581e-15 0)
(3 1.69565e-15 0)
(3 2.50405e-15 0)
(3 2.84739e-15 0)
(3 3.28535e-15 0)
(3 2.77479e-15 0)
(3 2.08351e-15 0)
(3 2.00353e-15 0)
(3 2.11177e-15 0)
(3 2.85253e-15 0)
(3 3.83645e-15 0)
(3 3.98187e-15 0)
(3 3.60202e-15 0)
(3 2.7823e-15 0)
(3 1.7436e-15 0)
(3 6.86928e-16 0)
(3 5.51762e-17 0)
(3 -3.7089e-16 0)
(3 -1.26352e-15 0)
(3 -8.29352e-16 0)
(3 -2.20234e-16 0)
(3 -1.1068e-16 0)
(3 3.43085e-16 0)
(3 9.3664e-16 0)
(3 6.6028e-16 0)
(3 1.0404e-15 0)
(3 1.3739e-15 0)
(3 2.28968e-15 0)
(3 2.5703e-15 0)
(3 2.85311e-15 0)
(3 3.14774e-15 0)
(3 2.29919e-15 0)
(3 2.23571e-15 0)
(3 1.93416e-15 0)
(3 1.52029e-15 0)
(3 5.36408e-16 0)
(3 -5.21071e-16 0)
(3 5.02662e-16 0)
(3 7.58509e-16 0)
(3 4.02444e-16 0)
(3 2.035e-16 0)
(3 -3.84003e-16 0)
(3 -1.76483e-15 0)
(3 -2.04829e-15 0)
(3 -1.53581e-15 0)
(3 -6.31128e-16 0)
(3 -7.43654e-17 0)
(3 6.32637e-16 0)
(3 7.37378e-16 0)
(3 2.06372e-16 0)
(3 -4.97444e-16 0)
(3 -3.25912e-16 0)
(3 -2.85769e-16 0)
(3 6.56422e-17 0)
(3 8.61894e-16 0)
(3 -6.64955e-16 0)
(3 -8.16384e-16 0)
(3 -1.14596e-15 0)
(3 -1.59006e-15 0)
(3 -2.42515e-15 0)
(3 -3.58804e-15 0)
(3 -2.96437e-15 0)
(3 -2.50956e-15 0)
(3 -2.42329e-15 0)
(3 -1.26638e-15 0)
(3 1.9124e-15 0)
(3 4.64645e-15 0)
(3 3.1297e-15 0)
(3 2.33045e-15 0)
(3 1.02228e-17 0)
(3 -2.17851e-16 0)
(3 -5.53015e-16 0)
(3 -1.11629e-15 0)
(3 -8.85297e-16 0)
(3 -3.3665e-16 0)
(3 4.0143e-16 0)
(3 6.86881e-16 0)
(3 7.85395e-16 0)
(3 1.01676e-15 0)
(3 1.22373e-15 0)
(3 1.04153e-15 0)
(3 8.09748e-16 0)
(3 2.3373e-16 0)
(3 1.0297e-16 0)
(3 -4.88564e-16 0)
(3 -1.42548e-15 0)
(3 -1.49936e-15 0)
(3 -2.14359e-15 0)
(3 -2.59034e-15 0)
(3 -2.16557e-15 0)
(3 -2.00943e-15 0)
(3 -6.82284e-16 0)
(3 -3.35383e-16 0)
(3 -8.16725e-16 0)
(3 -9.85867e-16 0)
(3 -7.35716e-16 0)
(3 -4.42314e-16 0)
(3 -5.72598e-16 0)
(3 -4.36056e-16 0)
(3 -2.7789e-16 0)
(3 1.65275e-15 0)
(3 2.62668e-15 0)
(3 2.69588e-15 0)
(3 1.97016e-15 0)
(3 5.96273e-16 0)
(3 7.86419e-16 0)
(3 7.02946e-16 0)
(3 1.18578e-15 0)
(3 1.79355e-15 0)
(3 9.04669e-16 0)
(3 5.15681e-16 0)
(3 -5.51627e-17 0)
(3 -6.44641e-16 0)
(3 -4.41071e-16 0)
(3 2.44014e-16 0)
(3 1.18295e-15 0)
(3 1.82848e-15 0)
(3 2.33132e-15 0)
(3 1.89969e-15 0)
(3 1.20702e-15 0)
(3 1.59231e-15 0)
(3 1.77228e-15 0)
(3 2.56927e-15 0)
(3 4.33413e-15 0)
(3 3.97997e-15 0)
(3 4.12388e-15 0)
(3 3.38162e-15 0)
(3 2.82022e-15 0)
(3 1.4838e-15 0)
(3 4.54077e-16 0)
(3 4.76254e-16 0)
(3 5.89498e-16 0)
(3 -3.22774e-16 0)
(3 2.14302e-16 0)
(3 8.84399e-16 0)
(3 1.40968e-15 0)
(3 1.12143e-15 0)
(3 1.47861e-17 0)
(3 -5.95263e-16 0)
(3 -7.19652e-16 0)
(3 -3.26002e-16 0)
(3 5.39783e-16 0)
(3 3.14426e-16 0)
(3 -4.00817e-16 0)
(3 -5.00711e-16 0)
(3 9.82605e-16 0)
(3 1.16058e-15 0)
(3 1.92235e-15 0)
(3 1.73409e-15 0)
(3 1.92635e-15 0)
(3 1.57296e-15 0)
(3 -1.20669e-15 0)
(3 -1.89564e-15 0)
(3 -2.26581e-15 0)
(3 -2.70546e-15 0)
(3 -2.51286e-15 0)
(3 -2.29828e-15 0)
(3 -1.96722e-15 0)
(3 -2.50624e-15 0)
(3 -1.51243e-15 0)
(3 5.18991e-16 0)
(3 1.49909e-15 0)
(3 2.40132e-15 0)
(3 3.68129e-15 0)
(3 5.21484e-15 0)
(3 1.48211e-17 0)
(3 1.45681e-16 0)
(3 -5.60886e-17 0)
(3 -4.48903e-16 0)
(3 -4.2053e-16 0)
(3 -2.632e-16 0)
(3 2.88375e-16 0)
(3 6.84134e-16 0)
(3 9.18697e-16 0)
(3 7.73133e-16 0)
(3 1.28693e-15 0)
(3 1.61246e-15 0)
(3 1.25369e-15 0)
(3 1.09239e-15 0)
(3 4.31412e-16 0)
(3 -5.56959e-16 0)
(3 -1.60522e-15 0)
(3 -1.39981e-15 0)
(3 -1.20805e-15 0)
(3 -1.39764e-15 0)
(3 -7.58138e-16 0)
(3 1.24277e-15 0)
(3 1.52865e-15 0)
(3 1.48476e-15 0)
(3 -2.7123e-16 0)
(3 -1.07308e-15 0)
(3 -1.58431e-15 0)
(3 -9.96212e-17 0)
(3 4.74544e-16 0)
(3 6.6698e-16 0)
(3 1.16457e-15 0)
(3 2.00727e-15 0)
(3 2.352e-15 0)
(3 2.14822e-15 0)
(3 1.67244e-15 0)
(3 9.68975e-16 0)
(3 -2.0746e-16 0)
(3 -2.03111e-15 0)
(3 -2.52164e-15 0)
(3 -2.36483e-15 0)
(3 -3.67606e-15 0)
(3 -4.90467e-15 0)
(3 -3.275e-15 0)
(3 -3.10206e-15 0)
(3 -3.09245e-15 0)
(3 -7.32072e-17 0)
(3 1.45532e-15 0)
(3 1.72004e-15 0)
(3 2.04629e-15 0)
(3 1.95109e-15 0)
(3 1.84454e-15 0)
(3 2.5923e-15 0)
(3 3.48258e-15 0)
(3 3.9957e-15 0)
(3 3.77516e-15 0)
(3 3.44711e-15 0)
(3 3.31048e-15 0)
(3 2.58663e-15 0)
(3 1.78405e-15 0)
(3 6.03233e-16 0)
(3 2.20104e-17 0)
(3 1.21415e-15 0)
(3 2.01791e-15 0)
(3 1.76313e-15 0)
(3 -1.35894e-16 0)
(3 -8.90035e-16 0)
(3 -4.79718e-16 0)
(3 3.22313e-16 0)
(3 4.96604e-16 0)
(3 8.52577e-16 0)
(3 7.02469e-16 0)
(3 -1.29432e-16 0)
(3 -7.99773e-16 0)
(3 -2.15065e-15 0)
(3 -3.09632e-15 0)
(3 -3.45239e-15 0)
(3 -1.28767e-15 0)
(3 1.50554e-15 0)
(3 1.16022e-15 0)
(3 1.06682e-15 0)
(3 1.24729e-15 0)
(3 -6.00013e-16 0)
(3 -3.50878e-15 0)
(3 -4.49964e-15 0)
(3 -3.18973e-15 0)
(3 -2.10196e-15 0)
(3 -1.84858e-15 0)
(3 -5.86735e-16 0)
(3 -7.35462e-16 0)
(3 -1.2428e-15 0)
(3 -6.75548e-16 0)
(3 -2.26427e-16 0)
(3 -6.48633e-16 0)
(3 -1.18638e-15 0)
(3 -8.3114e-16 0)
(3 -2.94324e-16 0)
(3 -1.62208e-18 0)
(3 9.80616e-17 0)
(3 6.90381e-17 0)
(3 -1.0366e-17 0)
(3 -6.18199e-16 0)
(3 -1.1204e-15 0)
(3 -8.2177e-16 0)
(3 1.80917e-16 0)
(3 7.79434e-16 0)
(3 9.29397e-16 0)
(3 1.31351e-15 0)
(3 1.34943e-15 0)
(3 1.37862e-15 0)
(3 1.12934e-15 0)
(3 1.31375e-15 0)
(3 7.00426e-16 0)
(3 1.19671e-16 0)
(3 -5.36826e-16 0)
(3 -1.22543e-15 0)
(3 -6.02145e-16 0)
(3 -2.48524e-16 0)
(3 5.20898e-16 0)
(3 1.38278e-15 0)
(3 8.91004e-16 0)
(3 -5.94845e-16 0)
(3 -4.15067e-16 0)
(3 4.32433e-16 0)
(3 3.13712e-16 0)
(3 1.92789e-16 0)
(3 1.86477e-16 0)
(3 5.59559e-16 0)
(3 1.23703e-15 0)
(3 1.89909e-15 0)
(3 9.95056e-16 0)
(3 8.88045e-16 0)
(3 -1.0832e-16 0)
(3 -7.16768e-16 0)
(3 -1.5689e-15 0)
(3 -3.73817e-15 0)
(3 -4.4289e-15 0)
(3 -4.89595e-15 0)
(3 -5.09689e-15 0)
(3 -3.08756e-15 0)
(3 -2.47378e-15 0)
(3 -1.2572e-15 0)
(3 5.65834e-16 0)
(3 1.9642e-15 0)
(3 2.52158e-15 0)
(3 1.83793e-15 0)
(3 1.73541e-15 0)
(3 1.57231e-15 0)
(3 1.16512e-15 0)
(3 1.84023e-15 0)
(3 2.16581e-15 0)
(3 1.52658e-15 0)
(3 1.64641e-15 0)
(3 1.36086e-15 0)
(3 1.06639e-15 0)
(3 5.99116e-16 0)
(3 8.80966e-16 0)
(3 2.3053e-15 0)
(3 4.75109e-15 0)
(3 5.13479e-15 0)
(3 2.93373e-15 0)
(3 -4.76284e-16 0)
(3 -2.52152e-15 0)
(3 -3.63918e-15 0)
(3 -2.82773e-15 0)
(3 -1.492e-15 0)
(3 -1.75638e-15 0)
(3 -1.96685e-15 0)
(3 -2.90563e-15 0)
(3 -3.82661e-15 0)
(3 -4.44874e-15 0)
(3 -4.91521e-15 0)
(3 -4.68492e-15 0)
(3 -3.78904e-15 0)
(3 -2.31428e-15 0)
(3 -1.43885e-15 0)
(3 -5.06918e-16 0)
(3 -1.11305e-16 0)
(3 -1.09334e-15 0)
(3 -1.61405e-15 0)
(3 -2.51055e-15 0)
(3 -2.44605e-15 0)
(3 -2.34025e-15 0)
(3 -3.01682e-15 0)
(3 -3.41597e-15 0)
(3 -3.46785e-15 0)
(3 -3.05786e-15 0)
(3 -3.52401e-15 0)
(3 -3.49651e-15 0)
(3 -3.58246e-15 0)
(3 -3.10919e-15 0)
(3 -1.72244e-15 0)
(3 -1.5655e-15 0)
(3 1.32707e-16 0)
(3 -1.26773e-16 0)
(3 -3.81985e-16 0)
(3 -3.84721e-16 0)
(3 -3.81345e-16 0)
(3 -2.3277e-16 0)
(3 -1.40755e-16 0)
(3 4.42186e-16 0)
(3 1.7357e-15 0)
(3 2.49394e-15 0)
(3 2.25337e-15 0)
(3 2.01057e-15 0)
(3 2.15785e-15 0)
(3 2.16305e-15 0)
(3 2.59597e-15 0)
(3 2.84771e-15 0)
(3 2.69345e-15 0)
(3 2.48855e-15 0)
(3 1.30168e-15 0)
(3 -6.91686e-16 0)
(3 -6.94224e-16 0)
(3 -4.47603e-16 0)
(3 -2.78167e-16 0)
(3 -2.5356e-16 0)
(3 -1.8349e-16 0)
(3 5.03041e-16 0)
(3 1.4034e-15 0)
(3 1.71261e-15 0)
(3 1.96955e-15 0)
(3 2.80168e-15 0)
(3 3.20664e-15 0)
(3 3.41385e-15 0)
(3 3.36043e-15 0)
(3 2.61977e-15 0)
(3 1.02512e-16 0)
(3 -6.61749e-16 0)
(3 -8.08277e-16 0)
(3 -1.25979e-15 0)
(3 -1.44979e-15 0)
(3 -2.12116e-15 0)
(3 -2.3593e-15 0)
(3 -1.87582e-15 0)
(3 -9.00832e-16 0)
(3 7.29155e-16 0)
(3 2.26133e-15 0)
(3 3.03907e-15 0)
(3 3.2589e-15 0)
(3 2.75321e-15 0)
(3 2.60307e-15 0)
(3 2.39272e-15 0)
(3 1.87264e-15 0)
(3 1.21899e-15 0)
(3 6.14429e-16 0)
(3 4.26828e-16 0)
(3 1.44788e-16 0)
(3 -1.29183e-15 0)
(3 -1.07857e-15 0)
(3 -3.94041e-16 0)
(3 3.62222e-16 0)
(3 1.79084e-15 0)
(3 3.7674e-15 0)
(3 4.44801e-15 0)
(3 4.11531e-15 0)
(3 1.447e-15 0)
(3 4.18267e-16 0)
(3 2.99954e-16 0)
(3 -9.31984e-16 0)
(3 -2.75158e-15 0)
(3 -3.14689e-15 0)
(3 -4.88182e-15 0)
(3 -5.58484e-15 0)
(3 -7.61849e-15 0)
(3 -8.55329e-15 0)
(3 -8.35733e-15 0)
(3 -6.90445e-15 0)
(3 -6.08331e-15 0)
(3 -5.94489e-15 0)
(3 -5.21643e-15 0)
(3 -2.59065e-15 0)
(3 -1.81216e-15 0)
(3 -2.08939e-15 0)
(3 -4.07961e-15 0)
(3 -2.77717e-15 0)
(3 -2.35666e-15 0)
(3 -2.58317e-15 0)
(3 -3.45024e-15 0)
(3 -3.33368e-15 0)
(3 -3.3436e-15 0)
(3 -2.7382e-15 0)
(3 -3.36851e-15 0)
(3 -3.5363e-15 0)
(3 -3.59659e-15 0)
(3 -3.71839e-15 0)
(3 -2.79297e-15 0)
(3 -2.13822e-15 0)
(3 -1.09577e-15 0)
(3 7.33729e-18 0)
(3 -2.84602e-16 0)
(3 -3.12302e-17 0)
(3 2.24604e-16 0)
(3 9.22784e-16 0)
(3 1.63749e-15 0)
(3 1.78992e-15 0)
(3 1.70553e-15 0)
(3 1.95427e-15 0)
(3 1.96009e-15 0)
(3 1.52222e-15 0)
(3 1.56253e-15 0)
(3 1.69757e-15 0)
(3 1.70353e-15 0)
(3 1.42494e-15 0)
(3 2.88259e-15 0)
(3 3.08065e-15 0)
(3 2.59853e-15 0)
(3 2.39021e-15 0)
(3 1.3416e-15 0)
(3 -1.59449e-15 0)
(3 -2.15222e-15 0)
(3 -1.90165e-15 0)
(3 -6.26074e-16 0)
(3 7.97504e-16 0)
(3 1.05087e-15 0)
(3 2.06876e-15 0)
(3 4.54588e-15 0)
(3 5.27851e-15 0)
(3 5.16339e-15 0)
(3 4.5866e-15 0)
(3 4.15239e-15 0)
(3 3.58886e-15 0)
(3 3.38626e-15 0)
(3 2.71702e-15 0)
(3 2.76069e-15 0)
(3 2.79341e-15 0)
(3 1.69244e-15 0)
(3 1.38453e-15 0)
(3 6.06804e-16 0)
(3 4.47949e-16 0)
(3 6.18843e-16 0)
(3 4.39514e-16 0)
(3 1.0839e-15 0)
(3 1.76412e-15 0)
(3 1.97538e-15 0)
(3 1.47278e-15 0)
(3 1.13647e-15 0)
(3 1.654e-15 0)
(3 1.74201e-15 0)
(3 2.04269e-15 0)
(3 2.31381e-15 0)
(3 1.99362e-15 0)
(3 8.02849e-16 0)
(3 -1.69393e-15 0)
(3 -3.7035e-15 0)
(3 -3.65417e-15 0)
(3 -2.8931e-15 0)
(3 1.74678e-16 0)
(3 2.21029e-15 0)
(3 1.69347e-15 0)
(3 2.55206e-16 0)
(3 -1.4564e-15 0)
(3 -2.33506e-16 0)
(3 1.03441e-15 0)
(3 1.10472e-15 0)
(3 7.7973e-16 0)
(3 -9.41049e-16 0)
(3 -2.09522e-15 0)
(3 -3.19468e-15 0)
(3 -4.56026e-15 0)
(3 -5.05393e-15 0)
(3 -5.37962e-15 0)
(3 -4.84253e-15 0)
(3 -4.65289e-15 0)
(3 -4.21272e-15 0)
(3 -3.87472e-15 0)
(3 -3.31155e-15 0)
(3 -3.30966e-15 0)
(3 -3.40824e-15 0)
(3 -3.75709e-15 0)
(3 -4.60306e-15 0)
(3 -4.40633e-15 0)
(3 -3.23036e-15 0)
(3 -3.35027e-15 0)
(3 -3.57663e-15 0)
(3 -3.17635e-15 0)
(3 -2.39181e-15 0)
(3 -2.87929e-15 0)
(3 -3.53216e-15 0)
(3 -3.39189e-15 0)
(3 -3.66914e-15 0)
(3 -4.26947e-15 0)
(3 -3.87831e-15 0)
(3 -2.97861e-15 0)
(3 -2.6195e-15 0)
(3 -7.64212e-18 0)
(3 -7.07928e-17 0)
(3 6.88808e-16 0)
(3 6.39303e-16 0)
(3 2.84491e-16 0)
(3 7.90188e-16 0)
(3 7.85443e-16 0)
(3 5.3521e-16 0)
(3 3.48109e-16 0)
(3 -5.75394e-17 0)
(3 1.90976e-16 0)
(3 2.03492e-16 0)
(3 3.67658e-16 0)
(3 -8.04986e-17 0)
(3 -4.12302e-16 0)
(3 8.20539e-16 0)
(3 2.47254e-15 0)
(3 2.63433e-15 0)
(3 2.93897e-15 0)
(3 2.81975e-15 0)
(3 5.68524e-16 0)
(3 -6.35748e-16 0)
(3 -3.19677e-16 0)
(3 5.64494e-16 0)
(3 1.01289e-15 0)
(3 9.30406e-16 0)
(3 2.06522e-15 0)
(3 3.01288e-15 0)
(3 3.34849e-15 0)
(3 9.81866e-16 0)
(3 1.26756e-15 0)
(3 2.0646e-15 0)
(3 1.08071e-15 0)
(3 4.94108e-16 0)
(3 -4.55049e-17 0)
(3 3.9684e-16 0)
(3 8.05608e-16 0)
(3 1.22129e-15 0)
(3 1.227e-15 0)
(3 1.9155e-15 0)
(3 2.35678e-15 0)
(3 2.49907e-15 0)
(3 2.28613e-15 0)
(3 1.6618e-15 0)
(3 1.46103e-15 0)
(3 1.21676e-15 0)
(3 1.40125e-15 0)
(3 2.21806e-15 0)
(3 2.92694e-15 0)
(3 3.21047e-15 0)
(3 2.99948e-15 0)
(3 3.14666e-15 0)
(3 3.01726e-15 0)
(3 1.66275e-15 0)
(3 -3.25215e-16 0)
(3 -1.03354e-15 0)
(3 -2.89795e-17 0)
(3 3.09104e-16 0)
(3 9.47956e-16 0)
(3 4.41053e-16 0)
(3 -1.30903e-15 0)
(3 -3.43349e-15 0)
(3 -3.55903e-15 0)
(3 -8.69635e-16 0)
(3 2.41255e-15 0)
(3 1.94447e-15 0)
(3 3.31468e-16 0)
(3 1.51018e-16 0)
(3 2.71193e-16 0)
(3 -3.31139e-15 0)
(3 -4.06458e-15 0)
(3 -2.61053e-15 0)
(3 -1.50502e-15 0)
(3 -1.9829e-15 0)
(3 -2.48401e-15 0)
(3 -1.72623e-15 0)
(3 -7.56024e-16 0)
(3 -1.12464e-15 0)
(3 -2.16367e-15 0)
(3 -2.32279e-15 0)
(3 -2.62776e-15 0)
(3 -2.9468e-15 0)
(3 -3.45136e-15 0)
(3 -3.71924e-15 0)
(3 -3.5019e-15 0)
(3 -3.34892e-15 0)
(3 -3.23227e-15 0)
(3 -2.80439e-15 0)
(3 -2.51104e-15 0)
(3 -1.74598e-15 0)
(3 -1.42098e-15 0)
(3 -1.8968e-15 0)
(3 -2.87449e-15 0)
(3 -2.64432e-15 0)
(3 -2.19059e-15 0)
(3 -1.77079e-15 0)
(3 -8.46697e-17 0)
(3 3.03596e-16 0)
(3 1.69032e-16 0)
(3 -3.78949e-16 0)
(3 -1.94456e-16 0)
(3 1.02637e-16 0)
(3 -1.0389e-16 0)
(3 -6.11755e-16 0)
(3 -8.50881e-16 0)
(3 -5.95834e-16 0)
(3 -2.42593e-17 0)
(3 -2.0857e-16 0)
(3 -1.43699e-16 0)
(3 -6.37216e-16 0)
(3 -7.33959e-16 0)
(3 -6.61229e-16 0)
(3 -2.16431e-16 0)
(3 -5.57078e-17 0)
(3 1.83732e-16 0)
(3 3.7671e-16 0)
(3 1.71432e-15 0)
(3 1.69089e-15 0)
(3 1.54405e-15 0)
(3 1.48543e-15 0)
(3 2.02913e-15 0)
(3 2.66746e-15 0)
(3 2.53239e-15 0)
(3 2.43617e-15 0)
(3 1.6674e-15 0)
(3 -5.66592e-16 0)
(3 -8.4716e-16 0)
(3 -2.04022e-15 0)
(3 -2.39109e-15 0)
(3 -2.52202e-15 0)
(3 -1.29097e-15 0)
(3 -9.72921e-16 0)
(3 -1.31236e-15 0)
(3 -1.34614e-15 0)
(3 -3.49799e-16 0)
(3 1.08396e-16 0)
(3 8.1314e-16 0)
(3 1.70256e-15 0)
(3 2.12846e-15 0)
(3 1.50379e-15 0)
(3 3.83244e-16 0)
(3 8.14315e-16 0)
(3 3.33614e-15 0)
(3 4.77612e-15 0)
(3 4.14105e-15 0)
(3 3.70664e-15 0)
(3 3.64234e-15 0)
(3 2.08793e-15 0)
(3 1.50246e-15 0)
(3 1.76571e-15 0)
(3 2.17783e-15 0)
(3 1.03523e-15 0)
(3 5.76557e-16 0)
(3 9.24971e-16 0)
(3 9.94843e-16 0)
(3 7.17033e-17 0)
(3 -1.54777e-16 0)
(3 -3.46876e-16 0)
(3 3.36026e-16 0)
(3 1.04991e-15 0)
(3 1.31075e-15 0)
(3 1.70442e-15 0)
(3 1.49734e-15 0)
(3 8.87152e-16 0)
(3 -1.83131e-15 0)
(3 -4.68907e-15 0)
(3 -5.03534e-15 0)
(3 -2.99082e-15 0)
(3 -1.36308e-15 0)
(3 -1.92503e-15 0)
(3 -2.35817e-15 0)
(3 -1.55884e-15 0)
(3 -1.35986e-15 0)
(3 -2.26369e-15 0)
(3 -3.98522e-15 0)
(3 -4.80689e-15 0)
(3 -3.7992e-15 0)
(3 -2.98477e-15 0)
(3 -2.68524e-15 0)
(3 -1.80241e-15 0)
(3 -1.81338e-15 0)
(3 -1.55489e-15 0)
(3 -3.05068e-15 0)
(3 -4.05192e-15 0)
(3 -3.07925e-15 0)
(3 -1.37757e-16 0)
(3 -4.57137e-16 0)
(3 -1.02118e-15 0)
(3 -9.3263e-16 0)
(3 -2.66713e-16 0)
(3 1.76732e-16 0)
(3 5.2952e-16 0)
(3 -3.1402e-16 0)
(3 -2.60188e-17 0)
(3 -4.85592e-18 0)
(3 -1.32273e-16 0)
(3 5.71407e-17 0)
(3 -2.87068e-17 0)
(3 -2.86118e-16 0)
(3 -7.13637e-16 0)
(3 -9.03587e-16 0)
(3 -8.37894e-16 0)
(3 -9.77303e-16 0)
(3 -8.90799e-16 0)
(3 -1.02226e-15 0)
(3 -1.01994e-15 0)
(3 -1.66375e-15 0)
(3 -2.02397e-15 0)
(3 -2.17457e-15 0)
(3 -2.08009e-15 0)
(3 -1.346e-15 0)
(3 -3.31967e-16 0)
(3 6.96784e-16 0)
(3 1.27483e-15 0)
(3 1.78282e-15 0)
(3 2.33589e-15 0)
(3 4.22966e-15 0)
(3 4.83707e-15 0)
(3 4.32078e-15 0)
(3 1.47878e-15 0)
(3 -8.50334e-16 0)
(3 -1.78901e-15 0)
(3 -2.30634e-15 0)
(3 -2.16616e-15 0)
(3 -1.65588e-15 0)
(3 -1.17315e-15 0)
(3 2.70428e-16 0)
(3 3.51486e-16 0)
(3 -1.22073e-15 0)
(3 -1.8732e-15 0)
(3 -1.36879e-15 0)
(3 -5.61291e-16 0)
(3 -2.338e-16 0)
(3 -4.38046e-16 0)
(3 -1.22425e-16 0)
(3 4.20907e-16 0)
(3 5.31053e-16 0)
(3 8.96449e-16 0)
(3 7.77288e-16 0)
(3 1.09496e-15 0)
(3 1.23758e-15 0)
(3 1.63303e-15 0)
(3 4.28961e-16 0)
(3 -5.99944e-16 0)
(3 -6.26909e-16 0)
(3 1.72577e-15 0)
(3 3.60851e-15 0)
(3 2.79606e-15 0)
(3 1.81765e-15 0)
(3 1.83014e-15 0)
(3 1.77683e-15 0)
(3 8.97204e-16 0)
(3 1.96894e-15 0)
(3 2.16417e-15 0)
(3 2.12421e-15 0)
(3 1.76522e-15 0)
(3 2.0546e-15 0)
(3 1.12696e-15 0)
(3 1.24468e-15 0)
(3 1.94574e-16 0)
(3 -1.28822e-15 0)
(3 -1.35631e-15 0)
(3 -1.29129e-15 0)
(3 -4.36553e-16 0)
(3 6.88724e-16 0)
(3 8.48695e-16 0)
(3 6.4101e-16 0)
(3 -1.53939e-16 0)
(3 -1.82979e-15 0)
(3 -3.15819e-15 0)
(3 -5.35982e-15 0)
(3 -7.01717e-15 0)
(3 -6.35799e-15 0)
(3 -4.18124e-15 0)
(3 -2.8492e-15 0)
(3 -1.55546e-15 0)
(3 -7.23124e-16 0)
(3 -2.80295e-16 0)
(3 -5.30581e-16 0)
(3 -2.39484e-15 0)
(3 -3.33803e-15 0)
(3 -4.03194e-15 0)
(3 -3.41715e-15 0)
(3 -1.78637e-15 0)
(3 -1.31908e-15 0)
(3 -1.96869e-15 0)
(3 -2.63506e-15 0)
(3 -2.06428e-15 0)
(3 6.21467e-17 0)
(3 -1.55059e-16 0)
(3 -1.26387e-17 0)
(3 4.01007e-16 0)
(3 1.44123e-16 0)
(3 -3.58116e-16 0)
(3 -6.94925e-16 0)
(3 -8.78589e-16 0)
(3 -1.36036e-15 0)
(3 -1.82635e-15 0)
(3 -1.91458e-15 0)
(3 -1.78122e-15 0)
(3 -2.02782e-15 0)
(3 -1.71523e-15 0)
(3 -1.56451e-15 0)
(3 -1.92624e-15 0)
(3 -2.21406e-15 0)
(3 -1.8074e-15 0)
(3 -9.63423e-16 0)
(3 1.04945e-15 0)
(3 1.00764e-15 0)
(3 7.88128e-16 0)
(3 8.3291e-16 0)
(3 1.70661e-15 0)
(3 2.0259e-15 0)
(3 1.92386e-15 0)
(3 1.14187e-15 0)
(3 3.30533e-16 0)
(3 -9.22696e-17 0)
(3 -6.88102e-16 0)
(3 -9.62157e-16 0)
(3 -5.30563e-16 0)
(3 -2.93306e-16 0)
(3 -1.12034e-15 0)
(3 -1.91139e-15 0)
(3 -1.783e-15 0)
(3 -2.44702e-15 0)
(3 -2.79436e-15 0)
(3 -9.46039e-16 0)
(3 9.72172e-16 0)
(3 1.81539e-15 0)
(3 1.62523e-15 0)
(3 1.8378e-15 0)
(3 1.85995e-15 0)
(3 2.52354e-15 0)
(3 1.9587e-15 0)
(3 3.33234e-16 0)
(3 -2.88629e-16 0)
(3 -5.44916e-16 0)
(3 -1.08782e-15 0)
(3 -2.24552e-15 0)
(3 -1.39252e-15 0)
(3 -4.39682e-16 0)
(3 6.97363e-16 0)
(3 3.42358e-15 0)
(3 4.98935e-15 0)
(3 4.43294e-15 0)
(3 3.2133e-15 0)