/*--------------------------------*- C++ -*----------------------------------*\
  =========                 |
  \\      /  F ield         | OpenFOAM: The Open Source CFD Toolbox
   \\    /   O peration     | Website:  https://openfoam.org
    \\  /    A nd           | Version:  7
     \\/     M anipulation  |
\*---------------------------------------------------------------------------*/
FoamFile
{
    version     2.0;
    format      ascii;
    class       volVectorField;
    location    "0.2";
    object      U;
}
// * * * * * * * * * * * * * * * * * * * * * * * * * * * * * * * * * * * * * //

dimensions      [0 1 -1 0 0 0 0];

internalField   nonuniform List<vector> 
73728
(
(3 -3.52586e-18 0)
(3 3.00365e-17 0)
(3 9.40451e-17 0)
(3 1.7935e-16 0)
(3 1.24025e-16 0)
(3 -3.92781e-16 0)
(3 -5.52806e-16 0)
(3 -1.20641e-15 0)
(3 -1.19546e-15 0)
(3 -1.12043e-15 0)
(3 -4.85041e-16 0)
(3 3.61771e-16 0)
(3 1.33767e-15 0)
(3 1.83285e-15 0)
(3 1.73793e-15 0)
(3 1.66395e-15 0)
(3 1.24959e-15 0)
(3 2.78364e-16 0)
(3 -3.87969e-16 0)
(3 -3.14434e-16 0)
(3 5.70476e-16 0)
(3 1.37129e-15 0)
(3 2.05972e-15 0)
(3 2.67901e-15 0)
(3 2.87758e-15 0)
(3 3.24805e-15 0)
(3 3.70603e-15 0)
(3 2.78793e-15 0)
(3 1.79012e-15 0)
(3 6.26893e-16 0)
(3 -4.29362e-16 0)
(3 -7.36799e-16 0)
(3 -6.9678e-16 0)
(3 -8.74998e-16 0)
(3 -1.43314e-15 0)
(3 -1.43541e-15 0)
(3 1.66153e-16 0)
(3 6.36189e-16 0)
(3 5.51855e-16 0)
(3 1.64802e-15 0)
(3 3.39846e-15 0)
(3 2.08433e-15 0)
(3 1.38583e-15 0)
(3 1.11342e-16 0)
(3 -9.82579e-16 0)
(3 -1.678e-15 0)
(3 -1.3048e-15 0)
(3 -5.99384e-16 0)
(3 -5.17712e-16 0)
(3 -9.54392e-16 0)
(3 -1.29614e-15 0)
(3 -5.18175e-16 0)
(3 -4.60171e-16 0)
(3 -3.25886e-16 0)
(3 -4.4538e-16 0)
(3 -6.77534e-16 0)
(3 -1.7324e-15 0)
(3 -2.32553e-15 0)
(3 -2.19513e-15 0)
(3 -1.98587e-15 0)
(3 -3.93394e-16 0)
(3 5.83532e-16 0)
(3 2.15438e-15 0)
(3 2.57069e-15 0)
(3 2.92147e-15 0)
(3 3.22705e-15 0)
(3 2.84716e-15 0)
(3 2.3503e-15 0)
(3 1.82425e-15 0)
(3 1.12572e-15 0)
(3 9.3925e-16 0)
(3 3.22242e-16 0)
(3 7.99592e-16 0)
(3 6.24801e-16 0)
(3 1.75015e-16 0)
(3 -4.79353e-16 0)
(3 -1.05035e-15 0)
(3 -1.52922e-15 0)
(3 -2.87235e-16 0)
(3 -4.70262e-16 0)
(3 -1.38756e-15 0)
(3 -2.38757e-15 0)
(3 -1.92306e-15 0)
(3 -1.95209e-15 0)
(3 -2.29634e-15 0)
(3 -3.06606e-15 0)
(3 -3.27873e-15 0)
(3 -3.74429e-15 0)
(3 -3.74137e-15 0)
(3 -3.82756e-15 0)
(3 -3.43372e-15 0)
(3 -3.02232e-15 0)
(3 -2.14231e-15 0)
(3 -1.99568e-15 0)
(3 -1.8134e-15 0)
(3 -5.2989e-16 0)
(3 -1.0843e-16 0)
(3 2.07569e-16 0)
(3 7.93449e-16 0)
(3 4.54716e-16 0)
(3 2.53647e-16 0)
(3 -6.53557e-16 0)
(3 -8.62055e-16 0)
(3 -1.17213e-15 0)
(3 -1.20962e-15 0)
(3 -6.89775e-16 0)
(3 -3.37226e-16 0)
(3 8.54195e-16 0)
(3 2.33799e-15 0)
(3 2.50405e-15 0)
(3 1.62078e-15 0)
(3 1.05176e-15 0)
(3 8.08794e-16 0)
(3 1.94772e-16 0)
(3 2.15698e-16 0)
(3 4.03097e-16 0)
(3 1.07428e-15 0)
(3 3.39255e-15 0)
(3 4.40676e-15 0)
(3 6.48924e-15 0)
(3 7.46383e-15 0)
(3 7.06092e-15 0)
(3 5.31913e-15 0)
(3 4.08481e-15 0)
(3 1.98643e-15 0)
(3 -2.56595e-16 0)
(3 -5.94761e-16 0)
(3 -1.1294e-15 0)
(3 -2.35198e-15 0)
(3 -2.27301e-15 0)
(3 -1.78974e-15 0)
(3 -1.60941e-15 0)
(3 -4.87373e-16 0)
(3 7.27933e-16 0)
(3 1.44788e-15 0)
(3 1.61741e-15 0)
(3 1.9568e-15 0)
(3 2.16964e-15 0)
(3 1.6131e-15 0)
(3 2.95043e-17 0)
(3 -3.5104e-16 0)
(3 -7.46923e-16 0)
(3 -2.20178e-17 0)
(3 2.79458e-16 0)
(3 6.92182e-16 0)
(3 3.88214e-18 0)
(3 -3.96155e-16 0)
(3 -2.7337e-16 0)
(3 -2.57616e-16 0)
(3 1.27616e-16 0)
(3 -6.36922e-16 0)
(3 -1.78403e-15 0)
(3 -4.42759e-15 0)
(3 -5.0863e-15 0)
(3 -3.81705e-15 0)
(3 -2.14971e-15 0)
(3 -1.01034e-15 0)
(3 7.92702e-16 0)
(3 1.56366e-15 0)
(3 2.58593e-15 0)
(3 3.7313e-15 0)
(3 3.32607e-15 0)
(3 2.65484e-15 0)
(3 1.07627e-15 0)
(3 9.7538e-16 0)
(3 9.23243e-16 0)
(3 1.1843e-15 0)
(3 1.63468e-15 0)
(3 3.15852e-15 0)
(3 3.02024e-15 0)
(3 2.43843e-15 0)
(3 5.17971e-16 0)
(3 -4.21639e-16 0)
(3 -1.81074e-15 0)
(3 -1.83046e-15 0)
(3 -3.17509e-15 0)
(3 -4.44292e-15 0)
(3 -5.31878e-15 0)
(3 -3.96778e-15 0)
(3 -3.1904e-15 0)
(3 -3.36526e-15 0)
(3 -3.88703e-15 0)
(3 -4.09884e-15 0)
(3 -5.70163e-15 0)
(3 -6.2877e-15 0)
(3 -5.63354e-15 0)
(3 -4.55622e-15 0)
(3 -4.15359e-15 0)
(3 -2.15329e-15 0)
(3 -1.39919e-15 0)
(3 -6.36462e-16 0)
(3 9.27788e-16 0)
(3 7.31647e-17 0)
(3 1.28431e-16 0)
(3 1.46624e-16 0)
(3 -7.29541e-17 0)
(3 -5.01582e-16 0)
(3 -4.40986e-16 0)
(3 -5.9695e-16 0)
(3 -3.28974e-16 0)
(3 -1.35724e-16 0)
(3 -4.28257e-16 0)
(3 -4.80797e-16 0)
(3 -1.92091e-16 0)
(3 3.47735e-17 0)
(3 -1.38145e-15 0)
(3 -1.67591e-15 0)
(3 -2.04199e-15 0)
(3 -1.41575e-15 0)
(3 -7.32171e-16 0)
(3 2.18998e-16 0)
(3 1.80938e-15 0)
(3 3.20119e-15 0)
(3 5.28109e-15 0)
(3 6.31147e-15 0)
(3 6.62188e-15 0)
(3 6.17951e-15 0)
(3 4.1669e-15 0)
(3 3.04197e-15 0)
(3 2.42415e-15 0)
(3 8.04434e-16 0)
(3 2.60741e-16 0)
(3 -1.71352e-16 0)
(3 -8.50011e-16 0)
(3 -1.86442e-15 0)
(3 -1.89572e-15 0)
(3 -1.54654e-15 0)
(3 -1.2263e-15 0)
(3 -7.36356e-16 0)
(3 3.76987e-16 0)
(3 1.38317e-15 0)
(3 2.22164e-15 0)
(3 2.50967e-15 0)
(3 3.95006e-15 0)
(3 3.37978e-15 0)
(3 3.20663e-15 0)
(3 3.01992e-15 0)
(3 3.4078e-15 0)
(3 3.25105e-15 0)
(3 2.945e-15 0)
(3 2.95226e-15 0)
(3 2.39135e-15 0)
(3 2.11268e-15 0)
(3 1.40463e-15 0)
(3 4.83667e-16 0)
(3 1.53979e-16 0)
(3 -1.16496e-15 0)
(3 -2.79715e-15 0)
(3 -4.67181e-15 0)
(3 -4.22934e-15 0)
(3 -4.04522e-15 0)
(3 -2.79377e-15 0)
(3 -2.00023e-16 0)
(3 8.21711e-16 0)
(3 2.02898e-15 0)
(3 3.47179e-15 0)
(3 3.75313e-15 0)
(3 3.44182e-15 0)
(3 2.73763e-15 0)
(3 2.25763e-15 0)
(3 3.78804e-15 0)
(3 4.53166e-15 0)
(3 4.99589e-15 0)
(3 5.06636e-15 0)
(3 4.52488e-15 0)
(3 4.41663e-15 0)
(3 3.96735e-15 0)
(3 2.31403e-15 0)
(3 3.66088e-16 0)
(3 -5.03201e-16 0)
(3 -2.35688e-15 0)
(3 -4.79505e-15 0)
(3 -5.08448e-15 0)
(3 -6.16988e-15 0)
(3 -8.12673e-15 0)
(3 -7.36431e-15 0)
(3 -6.59226e-15 0)
(3 -6.04455e-15 0)
(3 -5.41443e-15 0)
(3 -5.95193e-15 0)
(3 -8.17447e-15 0)
(3 -7.07611e-15 0)
(3 -5.98671e-15 0)
(3 -4.5044e-15 0)
(3 -3.27321e-15 0)
(3 -2.24629e-15 0)
(3 -7.67515e-16 0)
(3 -3.1258e-16 0)
(3 4.73647e-16 0)
(3 6.38462e-16 0)
(3 -4.27915e-16 0)
(3 -1.10308e-15 0)
(3 -1.77662e-15 0)
(3 -1.91449e-15 0)
(3 -1.80702e-15 0)
(3 -1.65444e-15 0)
(3 -1.04358e-15 0)
(3 -8.84481e-16 0)
(3 -1.54063e-15 0)
(3 -2.03318e-15 0)
(3 -2.4328e-15 0)
(3 -3.02161e-15 0)
(3 -2.41515e-15 0)
(3 -1.79167e-15 0)
(3 -1.49e-15 0)
(3 -1.20299e-15 0)
(3 -1.02975e-15 0)
(3 6.3691e-16 0)
(3 1.2368e-15 0)
(3 1.69818e-15 0)
(3 2.53481e-15 0)
(3 2.20361e-15 0)
(3 9.6459e-16 0)
(3 5.66255e-16 0)
(3 7.23524e-16 0)
(3 1.00322e-15 0)
(3 4.94436e-16 0)
(3 3.01955e-17 0)
(3 -6.86813e-16 0)
(3 -1.31328e-15 0)
(3 -1.11835e-15 0)
(3 -1.64707e-15 0)
(3 -1.68232e-15 0)
(3 -5.33394e-16 0)
(3 3.16214e-16 0)
(3 2.00999e-15 0)
(3 2.75534e-15 0)
(3 3.00253e-15 0)
(3 3.53864e-15 0)
(3 4.19437e-15 0)
(3 3.87783e-15 0)
(3 4.0893e-15 0)
(3 4.11615e-15 0)
(3 4.01997e-15 0)
(3 2.92873e-15 0)
(3 2.33212e-15 0)
(3 1.92774e-15 0)
(3 1.78408e-15 0)
(3 1.67284e-15 0)
(3 1.46368e-15 0)
(3 -4.49639e-16 0)
(3 -1.39771e-15 0)
(3 -1.41483e-15 0)
(3 -1.46726e-15 0)
(3 -1.03826e-15 0)
(3 -1.20558e-15 0)
(3 -1.31314e-15 0)
(3 -1.52227e-15 0)
(3 -1.2225e-16 0)
(3 1.91569e-15 0)
(3 2.69965e-15 0)
(3 2.26451e-15 0)
(3 2.49958e-15 0)
(3 2.25684e-15 0)
(3 2.01905e-15 0)
(3 2.55591e-15 0)
(3 2.90396e-15 0)
(3 3.73326e-15 0)
(3 3.44816e-15 0)
(3 2.846e-15 0)
(3 1.87813e-15 0)
(3 9.51241e-16 0)
(3 7.0328e-16 0)
(3 8.80768e-16 0)
(3 1.25758e-15 0)
(3 3.12096e-16 0)
(3 -1.16488e-15 0)
(3 -2.09551e-15 0)
(3 -3.02604e-15 0)
(3 -3.92922e-15 0)
(3 -5.2682e-15 0)
(3 -7.52207e-15 0)
(3 -8.50803e-15 0)
(3 -8.12958e-15 0)
(3 -7.70162e-15 0)
(3 -6.67238e-15 0)
(3 -5.86002e-15 0)
(3 -4.11367e-15 0)
(3 -3.56719e-15 0)
(3 -2.75345e-15 0)
(3 -2.95659e-15 0)
(3 -3.1237e-15 0)
(3 -3.03254e-15 0)
(3 -2.30696e-15 0)
(3 2.75424e-16 0)
(3 1.60597e-16 0)
(3 2.48067e-16 0)
(3 -3.47015e-16 0)
(3 -1.10532e-15 0)
(3 -9.7654e-16 0)
(3 -7.29013e-16 0)
(3 -7.12573e-16 0)
(3 -9.72637e-16 0)
(3 -6.04727e-16 0)
(3 -9.66608e-16 0)
(3 -1.30345e-15 0)
(3 -2.02054e-15 0)
(3 -1.2666e-15 0)
(3 -1.57015e-16 0)
(3 6.74773e-16 0)
(3 7.45802e-16 0)
(3 8.14951e-16 0)
(3 1.07019e-15 0)
(3 9.07266e-16 0)
(3 4.24054e-16 0)
(3 9.1314e-16 0)
(3 7.38278e-16 0)
(3 4.1287e-16 0)
(3 2.19777e-16 0)
(3 4.68563e-16 0)
(3 1.66435e-15 0)
(3 1.98554e-15 0)
(3 2.60802e-15 0)
(3 2.35079e-15 0)
(3 1.84337e-15 0)
(3 1.01746e-15 0)
(3 1.99057e-16 0)
(3 1.30137e-16 0)
(3 3.12767e-17 0)
(3 -4.5895e-16 0)
(3 -1.97791e-16 0)
(3 8.29055e-16 0)
(3 1.729e-15 0)
(3 2.68234e-15 0)
(3 3.47597e-15 0)
(3 3.44072e-15 0)
(3 3.73935e-15 0)
(3 3.20889e-15 0)
(3 2.36243e-15 0)
(3 2.47178e-15 0)
(3 1.95479e-15 0)
(3 1.47857e-15 0)
(3 1.02751e-15 0)
(3 9.09856e-16 0)
(3 3.53892e-16 0)
(3 -7.75345e-16 0)
(3 -1.77487e-15 0)
(3 -1.75166e-15 0)
(3 -1.63837e-15 0)
(3 -3.56767e-16 0)
(3 1.70755e-15 0)
(3 1.33056e-15 0)
(3 1.10216e-15 0)
(3 1.02272e-15 0)
(3 1.27718e-15 0)
(3 1.06827e-15 0)
(3 2.05748e-15 0)
(3 2.06819e-15 0)
(3 2.32207e-15 0)
(3 2.3772e-15 0)
(3 2.99353e-15 0)
(3 2.42399e-15 0)
(3 1.43534e-15 0)
(3 7.42406e-16 0)
(3 3.56641e-16 0)
(3 -6.9385e-17 0)
(3 -1.45479e-16 0)
(3 5.9952e-17 0)
(3 3.43187e-16 0)
(3 7.72218e-16 0)
(3 1.04865e-15 0)
(3 1.36274e-15 0)
(3 1.64252e-15 0)
(3 5.26019e-16 0)
(3 -1.48223e-15 0)
(3 -3.04708e-15 0)
(3 -4.53102e-15 0)
(3 -5.25263e-15 0)
(3 -6.12662e-15 0)
(3 -5.96623e-15 0)
(3 -5.29606e-15 0)
(3 -3.72075e-15 0)
(3 -2.01655e-15 0)
(3 -1.11146e-16 0)
(3 5.50742e-17 0)
(3 -7.52496e-16 0)
(3 -1.66546e-15 0)
(3 -1.69932e-15 0)
(3 -1.60936e-15 0)
(3 -1.72631e-15 0)
(3 -1.319e-16 0)
(3 -2.40888e-16 0)
(3 4.01481e-16 0)
(3 8.6888e-16 0)
(3 1.19787e-15 0)
(3 1.25486e-15 0)
(3 1.40301e-15 0)
(3 7.70355e-16 0)
(3 6.08373e-16 0)
(3 4.7815e-17 0)
(3 5.90985e-16 0)
(3 4.61814e-16 0)
(3 1.31843e-16 0)
(3 -2.59718e-16 0)
(3 1.06725e-16 0)
(3 5.89948e-16 0)
(3 1.19878e-15 0)
(3 1.23135e-15 0)
(3 1.10085e-15 0)
(3 1.96852e-16 0)
(3 3.63097e-16 0)
(3 4.3114e-16 0)
(3 -9.12504e-16 0)
(3 -1.09623e-15 0)
(3 -8.41847e-16 0)
(3 3.68772e-18 0)
(3 1.01673e-15 0)
(3 1.67891e-15 0)
(3 3.3679e-15 0)
(3 4.50672e-15 0)
(3 4.59412e-15 0)
(3 5.66627e-15 0)
(3 4.39648e-15 0)
(3 3.70426e-15 0)
(3 2.79191e-15 0)
(3 2.02853e-15 0)
(3 1.64983e-15 0)
(3 1.44724e-15 0)
(3 1.49475e-15 0)
(3 2.69486e-15 0)
(3 3.06468e-15 0)
(3 2.97549e-15 0)
(3 2.88287e-15 0)
(3 2.87195e-15 0)
(3 2.11721e-15 0)
(3 1.68172e-15 0)
(3 1.61566e-15 0)
(3 1.92178e-15 0)
(3 2.00602e-15 0)
(3 1.58701e-15 0)
(3 6.05135e-16 0)
(3 -5.44276e-16 0)
(3 -5.95784e-16 0)
(3 -1.62269e-15 0)
(3 -1.7592e-15 0)
(3 -1.24758e-15 0)
(3 -3.96587e-16 0)
(3 1.09228e-16 0)
(3 2.89903e-16 0)
(3 1.53311e-15 0)
(3 1.50352e-15 0)
(3 1.64705e-15 0)
(3 1.35085e-15 0)
(3 2.29871e-15 0)
(3 2.99775e-15 0)
(3 3.27642e-15 0)
(3 3.12676e-15 0)
(3 2.18355e-15 0)
(3 4.47012e-16 0)
(3 -7.63918e-16 0)
(3 -6.97078e-16 0)
(3 1.78801e-16 0)
(3 5.79664e-16 0)
(3 2.34973e-16 0)
(3 1.10485e-16 0)
(3 6.08559e-17 0)
(3 4.0945e-17 0)
(3 -6.2404e-16 0)
(3 -1.56223e-15 0)
(3 -1.97155e-15 0)
(3 -3.06312e-15 0)
(3 -4.59523e-15 0)
(3 -5.75518e-15 0)
(3 -5.41316e-15 0)
(3 -4.33177e-15 0)
(3 -4.04726e-15 0)
(3 -3.64322e-15 0)
(3 -1.59447e-15 0)
(3 -8.80514e-16 0)
(3 6.48439e-16 0)
(3 2.06959e-15 0)
(3 1.95955e-15 0)
(3 1.49225e-15 0)
(3 8.69046e-16 0)
(3 4.07359e-16 0)
(3 4.50827e-16 0)
(3 2.65381e-17 0)
(3 6.76847e-16 0)
(3 9.74793e-16 0)
(3 1.49336e-15 0)
(3 1.79526e-15 0)
(3 1.83959e-15 0)
(3 1.71677e-15 0)
(3 1.48267e-15 0)
(3 1.6896e-15 0)
(3 2.15722e-15 0)
(3 2.54662e-15 0)
(3 2.16418e-15 0)
(3 1.75882e-15 0)
(3 1.20766e-15 0)
(3 1.34678e-16 0)
(3 -4.98384e-18 0)
(3 5.09398e-16 0)
(3 1.30739e-15 0)
(3 1.37093e-15 0)
(3 7.519e-16 0)
(3 -5.94233e-16 0)
(3 -2.45022e-15 0)
(3 -4.59316e-15 0)
(3 -4.75998e-15 0)
(3 -3.70806e-15 0)
(3 -2.10503e-15 0)
(3 -1.23593e-15 0)
(3 1.2854e-16 0)
(3 3.10714e-15 0)
(3 4.46971e-15 0)
(3 4.49674e-15 0)
(3 4.03083e-15 0)
(3 4.0144e-15 0)
(3 3.33512e-15 0)
(3 2.46157e-15 0)
(3 2.69755e-15 0)
(3 2.97017e-15 0)
(3 3.05584e-15 0)
(3 1.97547e-15 0)
(3 1.73205e-15 0)
(3 1.11812e-15 0)
(3 7.71866e-16 0)
(3 1.17465e-15 0)
(3 2.70445e-15 0)
(3 2.35666e-15 0)
(3 1.1873e-15 0)
(3 1.6413e-16 0)
(3 3.48099e-16 0)
(3 1.63696e-15 0)
(3 2.34103e-15 0)
(3 9.80773e-16 0)
(3 3.12479e-16 0)
(3 -2.49995e-16 0)
(3 -1.34783e-15 0)
(3 -2.01759e-15 0)
(3 -2.28729e-15 0)
(3 -1.77071e-15 0)
(3 -1.26581e-15 0)
(3 -1.06284e-15 0)
(3 -5.75147e-16 0)
(3 -1.31787e-16 0)
(3 6.17425e-16 0)
(3 1.39492e-15 0)
(3 1.49121e-15 0)
(3 1.40263e-15 0)
(3 1.91058e-15 0)
(3 1.92122e-15 0)
(3 2.87951e-15 0)
(3 2.88954e-15 0)
(3 1.66592e-15 0)
(3 8.0375e-16 0)
(3 2.52931e-16 0)
(3 5.5275e-16 0)
(3 1.15575e-15 0)
(3 1.41946e-15 0)
(3 1.56409e-15 0)
(3 1.93596e-15 0)
(3 -4.70467e-17 0)
(3 -1.75731e-15 0)
(3 -2.42524e-15 0)
(3 -3.24535e-15 0)
(3 -3.85128e-15 0)
(3 -4.81284e-15 0)
(3 -4.8797e-15 0)
(3 -2.47723e-15 0)
(3 -5.237e-16 0)
(3 -1.34943e-17 0)
(3 8.11375e-16 0)
(3 4.18494e-16 0)
(3 7.41211e-16 0)
(3 7.06745e-16 0)
(3 9.18644e-16 0)
(3 6.00188e-16 0)
(3 8.47595e-16 0)
(3 7.33051e-16 0)
(3 2.16552e-16 0)
(3 -1.23923e-16 0)
(3 -1.12665e-16 0)
(3 -3.35214e-16 0)
(3 -4.49311e-16 0)
(3 -1.79555e-16 0)
(3 -2.98081e-16 0)
(3 -2.58785e-16 0)
(3 5.43732e-17 0)
(3 1.4747e-16 0)
(3 9.30189e-16 0)
(3 1.10319e-15 0)
(3 1.75935e-15 0)
(3 2.20327e-15 0)
(3 2.33952e-15 0)
(3 1.71278e-15 0)
(3 1.25755e-15 0)
(3 1.28782e-15 0)
(3 1.92801e-15 0)
(3 2.56434e-15 0)
(3 2.67607e-15 0)
(3 -9.92563e-16 0)
(3 -3.56262e-15 0)
(3 -3.87455e-15 0)
(3 -3.40087e-15 0)
(3 -2.31795e-15 0)
(3 -1.36745e-15 0)
(3 2.36431e-16 0)
(3 1.3801e-15 0)
(3 1.79473e-15 0)
(3 3.33116e-15 0)
(3 4.28027e-15 0)
(3 3.41469e-15 0)
(3 2.53261e-15 0)
(3 1.54181e-15 0)
(3 1.32905e-15 0)
(3 1.84366e-15 0)
(3 2.33231e-15 0)
(3 2.88715e-15 0)
(3 2.39967e-15 0)
(3 1.92361e-15 0)
(3 1.63057e-15 0)
(3 1.56335e-15 0)
(3 1.99852e-15 0)
(3 2.07234e-15 0)
(3 2.03981e-15 0)
(3 1.44603e-15 0)
(3 1.55314e-15 0)
(3 1.42007e-15 0)
(3 1.09117e-15 0)
(3 1.52255e-15 0)
(3 1.22432e-15 0)
(3 2.63201e-16 0)
(3 -6.92294e-16 0)
(3 -1.98412e-15 0)
(3 -2.43939e-15 0)
(3 -2.71445e-15 0)
(3 -2.94617e-15 0)
(3 -2.73216e-15 0)
(3 -3.13379e-15 0)
(3 -2.17271e-15 0)
(3 -7.74976e-16 0)
(3 -8.337e-16 0)
(3 -7.07117e-16 0)
(3 -8.75876e-16 0)
(3 -1.27683e-15 0)
(3 5.56567e-16 0)
(3 1.23256e-15 0)
(3 2.87986e-15 0)
(3 3.82203e-15 0)
(3 2.44697e-15 0)
(3 -3.13662e-16 0)
(3 -7.56435e-16 0)
(3 -5.66244e-16 0)
(3 1.36546e-15 0)
(3 2.31069e-15 0)
(3 1.57219e-15 0)
(3 6.18534e-16 0)
(3 -9.37996e-16 0)
(3 -1.46513e-15 0)
(3 -2.32397e-15 0)
(3 -2.82517e-15 0)
(3 -2.61664e-15 0)
(3 -2.72927e-15 0)
(3 -1.78907e-15 0)
(3 7.17529e-16 0)
(3 2.29708e-15 0)
(3 3.0227e-15 0)
(3 3.70462e-15 0)
(3 3.95134e-15 0)
(3 3.5248e-15 0)
(3 2.86788e-15 0)
(3 1.06343e-15 0)
(3 1.17215e-15 0)
(3 5.34804e-16 0)
(3 2.77942e-16 0)
(3 -9.23771e-16 0)
(3 -1.24691e-16 0)
(3 -7.43217e-16 0)
(3 -1.69252e-15 0)
(3 -2.31711e-15 0)
(3 -2.20607e-15 0)
(3 -1.9618e-15 0)
(3 -2.15461e-15 0)
(3 -3.01596e-15 0)
(3 -3.06937e-15 0)
(3 -3.25445e-15 0)
(3 -3.40064e-15 0)
(3 -2.04619e-15 0)
(3 -1.00496e-15 0)
(3 -9.88723e-16 0)
(3 -8.98461e-16 0)
(3 -5.4788e-16 0)
(3 -2.06534e-16 0)
(3 3.15213e-16 0)
(3 4.03624e-16 0)
(3 1.36034e-15 0)
(3 1.6796e-15 0)
(3 1.27353e-15 0)
(3 9.67207e-16 0)
(3 1.28412e-15 0)
(3 1.48466e-15 0)
(3 1.52364e-15 0)
(3 1.87924e-15 0)
(3 1.68992e-15 0)
(3 7.65181e-16 0)
(3 4.33807e-16 0)
(3 9.58779e-16 0)
(3 8.20349e-16 0)
(3 4.41446e-16 0)
(3 1.78782e-16 0)
(3 6.62487e-16 0)
(3 1.00995e-15 0)
(3 1.28155e-15 0)
(3 1.61897e-15 0)
(3 2.03112e-15 0)
(3 1.83906e-15 0)
(3 2.64548e-15 0)
(3 3.21837e-15 0)
(3 3.57787e-15 0)
(3 1.67688e-15 0)
(3 1.51189e-15 0)
(3 2.05552e-15 0)
(3 2.91855e-15 0)
(3 2.9491e-15 0)
(3 1.77194e-15 0)
(3 -2.55451e-16 0)
(3 -8.80838e-16 0)
(3 -1.18832e-15 0)
(3 -1.65537e-15 0)
(3 -2.14142e-15 0)
(3 -3.0149e-15 0)
(3 -3.2805e-15 0)
(3 -3.97957e-15 0)
(3 -3.90895e-15 0)
(3 -2.36341e-15 0)
(3 -2.35795e-15 0)
(3 -2.38515e-15 0)
(3 -3.09325e-15 0)
(3 -3.34406e-15 0)
(3 -3.41668e-15 0)
(3 -2.28304e-15 0)
(3 -1.7875e-15 0)
(3 -1.76287e-15 0)
(3 -1.32389e-15 0)
(3 -9.72318e-16 0)
(3 -1.81436e-15 0)
(3 -1.92935e-15 0)
(3 -1.10063e-15 0)
(3 -7.89394e-16 0)
(3 -6.76896e-16 0)
(3 -1.14098e-15 0)
(3 -1.41753e-15 0)
(3 -1.91239e-15 0)
(3 -1.84185e-15 0)
(3 -2.27624e-15 0)
(3 -2.61046e-15 0)
(3 -1.06602e-15 0)
(3 -1.1767e-15 0)
(3 -2.39988e-15 0)
(3 -1.63065e-15 0)
(3 5.2812e-16 0)
(3 1.63324e-15 0)
(3 1.98568e-15 0)
(3 2.84308e-15 0)
(3 3.66885e-15 0)
(3 3.65489e-15 0)
(3 3.94844e-15 0)
(3 1.91237e-15 0)
(3 1.32788e-15 0)
(3 3.9829e-17 0)
(3 -8.83289e-16 0)
(3 -5.94857e-16 0)
(3 1.25179e-16 0)
(3 1.23842e-16 0)
(3 -5.99262e-17 0)
(3 -2.52267e-16 0)
(3 -9.32679e-16 0)
(3 -6.21199e-16 0)
(3 -1.30114e-15 0)
(3 -1.80275e-15 0)
(3 -2.23193e-15 0)
(3 -2.6184e-15 0)
(3 -3.2595e-15 0)
(3 -3.86691e-15 0)
(3 -3.37079e-15 0)
(3 -2.67719e-15 0)
(3 -1.47412e-15 0)
(3 -8.56588e-16 0)
(3 -2.42896e-16 0)
(3 3.62799e-16 0)
(3 8.51685e-16 0)
(3 1.19696e-15 0)
(3 2.30761e-15 0)
(3 3.39071e-15 0)
(3 4.35642e-15 0)
(3 4.54028e-15 0)
(3 3.54965e-15 0)
(3 1.55293e-15 0)
(3 -8.84875e-16 0)
(3 -1.50619e-15 0)
(3 -1.64454e-15 0)
(3 -1.97563e-15 0)
(3 -1.7752e-15 0)
(3 -2.29518e-15 0)
(3 -1.83539e-15 0)
(3 -1.43151e-15 0)
(3 -9.66877e-16 0)
(3 -2.23849e-16 0)
(3 9.64577e-16 0)
(3 1.51458e-15 0)
(3 1.8905e-15 0)
(3 1.7606e-15 0)
(3 2.27718e-15 0)
(3 3.33041e-15 0)
(3 3.87968e-15 0)
(3 3.40621e-15 0)
(3 2.49238e-15 0)
(3 3.89798e-15 0)
(3 3.80467e-15 0)
(3 3.31823e-15 0)
(3 2.08191e-15 0)
(3 -3.98973e-16 0)
(3 -1.31049e-15 0)
(3 -1.00751e-15 0)
(3 -5.68284e-16 0)
(3 2.75376e-17 0)
(3 -7.49068e-16 0)
(3 -9.05413e-16 0)
(3 -1.14192e-15 0)
(3 -1.24003e-15 0)
(3 -1.30529e-15 0)
(3 -2.40464e-15 0)
(3 -3.42919e-15 0)
(3 -4.55217e-15 0)
(3 -4.68203e-15 0)
(3 -4.73739e-15 0)
(3 -3.85114e-15 0)
(3 -3.53821e-15 0)
(3 -4.57815e-15 0)
(3 -5.1366e-15 0)
(3 -4.84448e-15 0)
(3 -4.8308e-15 0)
(3 -4.21186e-15 0)
(3 -3.31645e-15 0)
(3 -2.69743e-15 0)
(3 -3.25413e-15 0)
(3 -3.85186e-15 0)
(3 -3.72093e-15 0)
(3 -2.23252e-15 0)
(3 -1.60488e-15 0)
(3 -1.17669e-15 0)
(3 -2.09758e-15 0)
(3 -1.00324e-15 0)
(3 6.25316e-16 0)
(3 7.83466e-16 0)
(3 6.46598e-16 0)
(3 6.17033e-16 0)
(3 1.64006e-15 0)
(3 2.44199e-15 0)
(3 3.03501e-15 0)
(3 3.09998e-15 0)
(3 2.24601e-15 0)
(3 1.11507e-15 0)
(3 9.96462e-16 0)
(3 9.15802e-16 0)
(3 7.03396e-16 0)
(3 -3.62609e-16 0)
(3 -3.34106e-16 0)
(3 -1.00658e-16 0)
(3 -1.14083e-16 0)
(3 -5.19371e-17 0)
(3 3.56653e-16 0)
(3 7.22287e-16 0)
(3 3.02082e-16 0)
(3 -3.31846e-16 0)
(3 -6.44903e-16 0)
(3 -1.01429e-15 0)
(3 -1.46614e-15 0)
(3 -1.40972e-15 0)
(3 -1.04401e-15 0)
(3 -7.36101e-16 0)
(3 -2.67015e-16 0)
(3 6.21746e-16 0)
(3 1.66503e-15 0)
(3 1.78706e-15 0)
(3 1.08999e-15 0)
(3 4.74287e-16 0)
(3 -9.17716e-16 0)
(3 -6.51578e-16 0)
(3 8.82006e-16 0)
(3 1.47124e-15 0)
(3 4.31345e-16 0)
(3 -3.70778e-16 0)
(3 -3.61542e-16 0)
(3 -6.4106e-16 0)
(3 -1.31948e-15 0)
(3 -2.40915e-15 0)
(3 -2.66634e-15 0)
(3 -2.50413e-15 0)
(3 -2.28685e-15 0)
(3 -1.92883e-15 0)
(3 -1.36416e-15 0)
(3 -5.05926e-16 0)
(3 6.69788e-17 0)
(3 9.1666e-16 0)
(3 7.00162e-16 0)
(3 9.67215e-16 0)
(3 1.0754e-15 0)
(3 8.37217e-16 0)
(3 1.27106e-15 0)
(3 1.76723e-15 0)
(3 2.19048e-15 0)
(3 3.28775e-15 0)
(3 3.4454e-15 0)
(3 2.84824e-15 0)
(3 1.01595e-15 0)
(3 3.09133e-16 0)
(3 5.10865e-16 0)
(3 6.31769e-16 0)
(3 1.0954e-15 0)
(3 1.52562e-15 0)
(3 1.53996e-15 0)
(3 1.24582e-15 0)
(3 7.35757e-16 0)
(3 1.0991e-15 0)
(3 8.23593e-16 0)
(3 4.56211e-16 0)
(3 -3.41425e-16 0)
(3 -1.5376e-15 0)
(3 -2.74725e-15 0)
(3 -3.80605e-15 0)
(3 -3.35392e-15 0)
(3 -4.81594e-15 0)
(3 -5.45498e-15 0)
(3 -5.09214e-15 0)
(3 -5.57125e-15 0)
(3 -6.74819e-15 0)
(3 -5.9146e-15 0)
(3 -5.09844e-15 0)
(3 -4.73971e-15 0)
(3 -4.41749e-15 0)
(3 -3.45542e-15 0)
(3 -2.82169e-15 0)
(3 -2.43028e-15 0)
(3 -1.72155e-15 0)
(3 -5.97019e-16 0)
(3 -1.9741e-16 0)
(3 1.20696e-16 0)
(3 3.7122e-16 0)
(3 8.26978e-16 0)
(3 2.26235e-15 0)
(3 2.03455e-15 0)
(3 7.98478e-16 0)
(3 8.05868e-16 0)
(3 1.29967e-15 0)
(3 8.89014e-16 0)
(3 1.55486e-15 0)
(3 1.03138e-15 0)
(3 -4.91942e-16 0)
(3 -3.45363e-16 0)
(3 -2.31724e-16 0)
(3 6.52659e-16 0)
(3 3.04515e-17 0)
(3 -3.55287e-16 0)
(3 -6.28235e-17 0)
(3 -3.92148e-16 0)
(3 5.74425e-16 0)
(3 7.5742e-16 0)
(3 7.33342e-16 0)
(3 3.68424e-16 0)
(3 -4.0308e-16 0)
(3 -3.94617e-16 0)
(3 -2.46371e-16 0)
(3 -6.42485e-17 0)
(3 4.54261e-16 0)
(3 7.30032e-16 0)
(3 1.33016e-15 0)
(3 1.45481e-15 0)
(3 1.83793e-15 0)
(3 2.0812e-15 0)
(3 1.28295e-15 0)
(3 1.26507e-16 0)
(3 -1.11517e-15 0)
(3 -2.11269e-15 0)
(3 -2.61167e-15 0)
(3 -2.7844e-15 0)
(3 -3.54293e-15 0)
(3 -3.28733e-15 0)
(3 -2.74469e-15 0)
(3 -2.32932e-15 0)
(3 -3.50955e-17 0)
(3 8.98007e-16 0)
(3 -1.70881e-16 0)
(3 -9.67684e-16 0)
(3 -1.20507e-15 0)
(3 -7.28423e-16 0)
(3 -1.62236e-16 0)
(3 7.92329e-17 0)
(3 3.29717e-16 0)
(3 1.88488e-16 0)
(3 -7.36485e-16 0)
(3 -1.63164e-15 0)
(3 -1.20162e-15 0)
(3 -6.1878e-16 0)
(3 -5.5261e-16 0)
(3 -1.06824e-15 0)
(3 -5.98763e-16 0)
(3 9.92374e-18 0)
(3 2.36536e-15 0)
(3 3.23129e-15 0)
(3 3.21512e-15 0)
(3 1.39226e-15 0)
(3 5.06116e-16 0)
(3 1.05358e-15 0)
(3 1.68638e-15 0)
(3 1.81599e-15 0)
(3 5.83723e-16 0)
(3 -1.23271e-15 0)
(3 -4.4763e-16 0)
(3 9.89653e-16 0)
(3 1.61183e-15 0)
(3 8.78977e-16 0)
(3 1.00234e-15 0)
(3 3.6481e-16 0)
(3 -3.82542e-16 0)
(3 -1.35019e-15 0)
(3 -2.45634e-15 0)
(3 -3.92994e-15 0)
(3 -4.54648e-15 0)
(3 -4.40448e-15 0)
(3 -3.96577e-15 0)
(3 -4.21518e-15 0)
(3 -4.96798e-15 0)
(3 -4.83644e-15 0)
(3 -4.14781e-15 0)
(3 -3.82805e-15 0)
(3 -3.21009e-15 0)
(3 -1.79303e-15 0)
(3 -1.10618e-15 0)
(3 -6.57019e-16 0)
(3 -3.33501e-16 0)
(3 -3.15686e-16 0)
(3 -6.86322e-16 0)
(3 -9.38177e-16 0)
(3 -7.41725e-16 0)
(3 -9.3067e-17 0)
(3 8.31294e-16 0)
(3 1.99218e-15 0)
(3 3.57889e-15 0)
(3 4.03231e-15 0)
(3 3.26405e-15 0)
(3 1.7167e-15 0)
(3 4.0229e-16 0)
(3 -5.62287e-16 0)
(3 -6.14443e-16 0)
(3 -8.5006e-16 0)
(3 -1.90531e-15 0)
(3 -2.17215e-15 0)
(3 -2.09763e-15 0)
(3 -2.06928e-15 0)
(3 2.78895e-16 0)
(3 5.26531e-16 0)
(3 3.01852e-16 0)
(3 9.09341e-17 0)
(3 -2.19431e-16 0)
(3 -5.65276e-16 0)
(3 -4.02379e-16 0)
(3 8.57615e-16 0)
(3 2.00489e-15 0)
(3 2.63758e-15 0)
(3 2.54487e-15 0)
(3 2.1066e-15 0)
(3 2.03573e-15 0)
(3 1.91445e-15 0)
(3 1.68874e-15 0)
(3 1.14431e-15 0)
(3 -3.94582e-16 0)
(3 -1.86646e-15 0)
(3 -2.38188e-15 0)
(3 -3.02654e-15 0)
(3 -3.45993e-15 0)
(3 -4.06449e-15 0)
(3 -4.0401e-15 0)
(3 -4.09946e-15 0)
(3 -2.23219e-15 0)
(3 -1.23442e-15 0)
(3 -1.08418e-15 0)
(3 -1.07709e-15 0)
(3 5.79852e-17 0)
(3 1.01091e-15 0)
(3 2.02692e-15 0)
(3 2.51248e-15 0)
(3 2.12665e-15 0)
(3 1.82676e-15 0)
(3 1.75564e-15 0)
(3 1.48623e-15 0)
(3 8.11885e-16 0)
(3 5.55483e-16 0)
(3 -3.87098e-16 0)
(3 -5.15679e-16 0)
(3 -3.06305e-18 0)
(3 -1.71686e-16 0)
(3 -6.33347e-17 0)
(3 7.08442e-16 0)
(3 1.14847e-15 0)
(3 9.12807e-16 0)
(3 2.41826e-16 0)
(3 -8.3508e-16 0)
(3 -7.23083e-16 0)
(3 -1.20416e-15 0)
(3 -3.70914e-16 0)
(3 2.50493e-16 0)
(3 1.37656e-17 0)
(3 5.87025e-18 0)
(3 3.51327e-16 0)
(3 2.02253e-15 0)
(3 2.51686e-15 0)
(3 1.91746e-15 0)
(3 1.55594e-15 0)
(3 1.92366e-15 0)
(3 1.47741e-15 0)
(3 -9.84751e-17 0)
(3 -2.37163e-15 0)
(3 -3.36548e-15 0)
(3 -3.55655e-15 0)
(3 -3.18108e-15 0)
(3 -2.86896e-15 0)
(3 -2.56363e-15 0)
(3 -2.03788e-15 0)
(3 -1.83886e-15 0)
(3 -1.82989e-15 0)
(3 -1.52839e-15 0)
(3 -1.08409e-15 0)
(3 -1.30165e-15 0)
(3 -1.42399e-15 0)
(3 -2.04564e-15 0)
(3 -2.24186e-15 0)
(3 -2.94259e-15 0)
(3 -3.00893e-15 0)
(3 -2.91428e-15 0)
(3 -2.41582e-15 0)
(3 -1.26111e-15 0)
(3 -7.64522e-16 0)
(3 -2.81213e-16 0)
(3 7.18499e-16 0)
(3 -1.93933e-16 0)
(3 -5.37056e-16 0)
(3 -2.25761e-16 0)
(3 -5.46221e-16 0)
(3 -1.00421e-16 0)
(3 1.0608e-15 0)
(3 1.05955e-15 0)
(3 1.25961e-15 0)
(3 1.18116e-15 0)
(3 1.09713e-15 0)
(3 1.29392e-15 0)
(3 -1.04383e-16 0)
(3 -4.92562e-16 0)
(3 -1.45636e-15 0)
(3 -1.30708e-15 0)
(3 -1.3992e-15 0)
(3 -9.40663e-16 0)
(3 1.79496e-16 0)
(3 2.42208e-15 0)
(3 3.14241e-15 0)
(3 3.12803e-15 0)
(3 3.21739e-15 0)
(3 1.56521e-15 0)
(3 3.62537e-16 0)
(3 -5.3371e-16 0)
(3 -9.49723e-16 0)
(3 -1.74765e-15 0)
(3 -1.81166e-15 0)
(3 -2.33283e-15 0)
(3 -3.91373e-15 0)
(3 -4.04136e-15 0)
(3 -4.3085e-15 0)
(3 -4.1068e-15 0)
(3 -4.69988e-15 0)
(3 -4.2275e-15 0)
(3 -4.57629e-15 0)
(3 -2.55389e-15 0)
(3 -1.50513e-15 0)
(3 -4.25646e-16 0)
(3 -5.80935e-17 0)
(3 1.24092e-15 0)
(3 1.60491e-15 0)
(3 2.53892e-15 0)
(3 2.5834e-15 0)
(3 3.15614e-15 0)
(3 3.61353e-15 0)
(3 3.7006e-15 0)
(3 3.62706e-15 0)
(3 3.50338e-15 0)
(3 2.60978e-15 0)
(3 2.32862e-15 0)
(3 2.36374e-15 0)
(3 2.35562e-15 0)
(3 2.45813e-15 0)
(3 1.87714e-15 0)
(3 1.42185e-15 0)
(3 7.50431e-16 0)
(3 8.29802e-16 0)
(3 2.65258e-16 0)
(3 -6.05164e-16 0)
(3 -5.53736e-16 0)
(3 -5.64426e-16 0)
(3 -3.79557e-16 0)
(3 7.69679e-16 0)
(3 1.31096e-15 0)
(3 1.70594e-15 0)
(3 2.57124e-15 0)
(3 2.82323e-15 0)
(3 2.54184e-15 0)
(3 2.14371e-15 0)
(3 2.089e-15 0)
(3 1.43726e-15 0)
(3 1.13763e-15 0)
(3 1.54637e-15 0)
(3 9.67557e-16 0)
(3 5.92458e-16 0)
(3 -1.45614e-17 0)
(3 -1.08348e-15 0)
(3 -6.60719e-16 0)
(3 2.70136e-16 0)
(3 6.66747e-16 0)
(3 3.25365e-16 0)
(3 -2.93182e-17 0)
(3 -1.43723e-16 0)
(3 -1.23028e-15 0)
(3 -1.84261e-15 0)
(3 -2.51262e-15 0)
(3 -3.14735e-15 0)
(3 -3.56283e-15 0)
(3 -3.54227e-15 0)
(3 -3.34091e-15 0)
(3 -2.12159e-15 0)
(3 -1.37343e-15 0)
(3 -1.00459e-15 0)
(3 -2.05556e-15 0)
(3 -3.61839e-15 0)
(3 -3.57918e-15 0)
(3 -3.14987e-15 0)
(3 -1.55419e-15 0)
(3 -1.09532e-15 0)
(3 -2.44899e-16 0)
(3 1.27234e-15 0)
(3 2.08071e-15 0)
(3 1.5751e-15 0)
(3 1.09334e-15 0)
(3 6.46409e-16 0)
(3 -3.43162e-16 0)
(3 3.31245e-17 0)
(3 6.23028e-17 0)
(3 -8.42654e-17 0)
(3 2.89902e-16 0)
(3 1.84428e-16 0)
(3 8.56891e-16 0)
(3 1.73525e-15 0)
(3 1.22424e-15 0)
(3 1.65995e-15 0)
(3 6.89109e-16 0)
(3 3.59867e-16 0)
(3 1.04172e-16 0)
(3 -1.20818e-16 0)
(3 -2.16875e-16 0)
(3 -4.80212e-16 0)
(3 -3.41015e-16 0)
(3 -9.67466e-17 0)
(3 -2.50059e-16 0)
(3 -1.10004e-15 0)
(3 -2.16296e-15 0)
(3 -1.74875e-15 0)
(3 -1.22869e-15 0)
(3 -7.8007e-16 0)
(3 7.44836e-16 0)
(3 8.46242e-16 0)
(3 6.28141e-16 0)
(3 9.0541e-16 0)
(3 1.49218e-15 0)
(3 1.40991e-15 0)
(3 2.13705e-15 0)
(3 2.42456e-15 0)
(3 2.42907e-15 0)
(3 2.15575e-15 0)
(3 3.17341e-15 0)
(3 3.91394e-15 0)
(3 3.56022e-15 0)
(3 3.35026e-15 0)
(3 3.24334e-15 0)
(3 2.7413e-15 0)
(3 2.52088e-15 0)
(3 1.12702e-15 0)
(3 7.49228e-16 0)
(3 8.12427e-16 0)
(3 6.39669e-16 0)
(3 2.24238e-16 0)
(3 1.56709e-16 0)
(3 1.46006e-15 0)
(3 1.79705e-15 0)
(3 1.23755e-15 0)
(3 1.61984e-15 0)
(3 8.80918e-16 0)
(3 9.0849e-16 0)
(3 1.93508e-15 0)
(3 2.96924e-15 0)
(3 2.25531e-15 0)
(3 7.06714e-16 0)
(3 5.56332e-16 0)
(3 1.15171e-15 0)
(3 1.03483e-15 0)
(3 6.56588e-16 0)
(3 1.05893e-15 0)
(3 1.52642e-15 0)
(3 2.01143e-15 0)
(3 1.57844e-15 0)
(3 1.31947e-15 0)
(3 1.45699e-15 0)
(3 5.54621e-16 0)
(3 9.65109e-17 0)
(3 4.00695e-16 0)
(3 1.76911e-16 0)
(3 -6.36314e-16 0)
(3 -1.33491e-16 0)
(3 -9.35488e-16 0)
(3 -1.49164e-15 0)
(3 -1.75787e-15 0)
(3 -1.6059e-15 0)
(3 -1.65672e-15 0)
(3 -1.75213e-15 0)
(3 -1.62419e-15 0)
(3 -1.74538e-15 0)
(3 -1.69039e-15 0)
(3 -2.39461e-15 0)
(3 -2.2853e-15 0)
(3 -2.1416e-15 0)
(3 -1.8018e-15 0)
(3 -1.41024e-15 0)
(3 -1.44461e-15 0)
(3 -1.57201e-15 0)
(3 -1.17675e-15 0)
(3 -5.67551e-16 0)
(3 2.15127e-16 0)
(3 5.46241e-16 0)
(3 3.80312e-16 0)
(3 1.19164e-16 0)
(3 -3.22151e-16 0)
(3 -9.99039e-16 0)
(3 5.68887e-17 0)
(3 4.9407e-16 0)
(3 9.75595e-16 0)
(3 1.23076e-15 0)
(3 1.23208e-15 0)
(3 1.3686e-15 0)
(3 1.65472e-15 0)
(3 9.77162e-16 0)
(3 6.79331e-16 0)
(3 4.38223e-16 0)
(3 -1.35967e-16 0)
(3 -3.08348e-17 0)
(3 3.58426e-16 0)
(3 4.91513e-16 0)
(3 -1.00393e-16 0)
(3 -3.49123e-16 0)
(3 -3.45953e-16 0)
(3 6.73442e-17 0)
(3 1.33144e-15 0)
(3 4.25947e-16 0)
(3 6.3521e-16 0)
(3 1.63323e-15 0)
(3 4.06341e-15 0)
(3 4.61507e-15 0)
(3 4.04568e-15 0)
(3 2.3752e-15 0)
(3 8.88738e-16 0)
(3 1.3287e-15 0)
(3 1.9659e-15 0)
(3 2.72545e-15 0)
(3 3.27532e-15 0)
(3 3.39729e-15 0)
(3 2.9672e-15 0)
(3 2.7533e-15 0)
(3 2.51742e-15 0)
(3 2.23944e-15 0)
(3 2.98897e-15 0)
(3 2.78134e-15 0)
(3 2.32463e-15 0)
(3 1.33654e-15 0)
(3 3.59684e-16 0)
(3 9.52259e-16 0)
(3 1.2498e-15 0)
(3 1.4408e-15 0)
(3 1.53352e-15 0)
(3 1.14895e-15 0)
(3 9.13821e-16 0)
(3 1.24098e-15 0)
(3 1.86631e-15 0)
(3 2.28765e-15 0)
(3 1.67698e-15 0)
(3 1.97955e-15 0)
(3 2.5815e-15 0)
(3 2.94312e-15 0)
(3 2.41622e-15 0)
(3 8.87831e-16 0)
(3 3.19625e-16 0)
(3 1.82174e-16 0)
(3 -1.95264e-16 0)
(3 4.29592e-17 0)
(3 -7.07609e-18 0)
(3 1.58051e-16 0)
(3 -3.45118e-16 0)
(3 -5.62613e-16 0)
(3 -7.57875e-16 0)
(3 -9.91421e-16 0)
(3 -6.23445e-16 0)
(3 -7.19539e-16 0)
(3 -1.18066e-15 0)
(3 -6.26552e-16 0)
(3 -6.6806e-16 0)
(3 -1.56715e-16 0)
(3 -3.86219e-16 0)
(3 -1.1873e-15 0)
(3 -1.56475e-15 0)
(3 -2.18814e-15 0)
(3 -2.06228e-15 0)
(3 -1.98529e-15 0)
(3 -1.56137e-15 0)
(3 -8.04145e-16 0)
(3 -9.40148e-16 0)
(3 -2.27944e-15 0)
(3 -2.80965e-15 0)
(3 -2.6701e-15 0)
(3 -1.03442e-15 0)
(3 -5.58733e-16 0)
(3 -1.60268e-15 0)
(3 -2.18294e-15 0)
(3 -1.83878e-15 0)
(3 -1.29362e-15 0)
(3 -1.31907e-15 0)
(3 -6.3219e-16 0)
(3 1.07994e-15 0)
(3 1.5372e-15 0)
(3 1.2537e-15 0)
(3 9.78203e-16 0)
(3 -3.06805e-16 0)
(3 -3.23581e-16 0)
(3 2.70459e-16 0)
(3 5.03149e-16 0)
(3 6.05167e-16 0)
(3 5.05712e-16 0)
(3 -1.3503e-16 0)
(3 -6.49437e-16 0)
(3 -1.227e-15 0)
(3 -4.67252e-16 0)
(3 -4.90166e-16 0)
(3 -2.35335e-16 0)
(3 5.78715e-17 0)
(3 -3.84211e-16 0)
(3 -1.02474e-15 0)
(3 -1.46127e-15 0)
(3 -1.42964e-15 0)
(3 -9.33154e-16 0)
(3 6.93922e-17 0)
(3 1.41606e-15 0)
(3 1.94228e-15 0)
(3 2.47123e-15 0)
(3 3.79856e-15 0)
(3 4.22781e-15 0)
(3 3.845e-15 0)
(3 3.01421e-15 0)
(3 8.93311e-16 0)
(3 1.08684e-15 0)
(3 1.83185e-15 0)
(3 1.95789e-15 0)
(3 2.63934e-15 0)
(3 2.8823e-15 0)
(3 3.09596e-15 0)
(3 2.74684e-15 0)
(3 1.3275e-15 0)
(3 4.40442e-16 0)
(3 7.89995e-16 0)
(3 1.29617e-15 0)
(3 1.15074e-15 0)
(3 1.30269e-15 0)
(3 1.94603e-15 0)
(3 2.12354e-15 0)
(3 2.51407e-15 0)
(3 2.81042e-15 0)
(3 2.38056e-15 0)
(3 2.28152e-16 0)
(3 -3.60795e-16 0)
(3 -4.33249e-16 0)
(3 -2.24677e-16 0)
(3 6.29588e-16 0)
(3 7.35158e-16 0)
(3 2.20651e-16 0)
(3 5.93773e-16 0)
(3 1.10063e-15 0)
(3 1.15269e-15 0)
(3 9.55071e-16 0)
(3 1.29427e-16 0)
(3 3.18558e-16 0)
(3 -2.06989e-16 0)
(3 6.04935e-16 0)
(3 4.62896e-16 0)