/*--------------------------------*- C++ -*----------------------------------*\
  =========                 |
  \\      /  F ield         | OpenFOAM: The Open Source CFD Toolbox
   \\    /   O peration     | Website:  https://openfoam.org
    \\  /    A nd           | Version:  7
     \\/     M anipulation  |
\*---------------------------------------------------------------------------*/
FoamFile
{
    version     2.0;
    format      ascii;
    class       volVectorField;
    location    "2.8";
    object      U;
}
// * * * * * * * * * * * * * * * * * * * * * * * * * * * * * * * * * * * * * //

dimensions      [0 1 -1 0 0 0 0];

internalField   nonuniform List<vector> 
73728
(
(3 3.48156e-18 0)
(3 4.19552e-18 0)
(3 1.11379e-16 0)
(3 1.68259e-16 0)
(3 5.83689e-16 0)
(3 8.34887e-16 0)
(3 8.3423e-16 0)
(3 -4.45048e-17 0)
(3 -2.58145e-16 0)
(3 -1.97766e-16 0)
(3 2.70152e-16 0)
(3 1.09475e-16 0)
(3 5.82393e-17 0)
(3 -6.41736e-17 0)
(3 -6.01644e-18 0)
(3 1.4676e-16 0)
(3 4.72115e-16 0)
(3 1.02356e-15 0)
(3 1.17713e-15 0)
(3 1.24949e-15 0)
(3 9.85205e-16 0)
(3 5.18692e-16 0)
(3 -1.69178e-16 0)
(3 -7.92806e-16 0)
(3 -1.12782e-15 0)
(3 -6.58609e-16 0)
(3 -8.27847e-16 0)
(3 -9.4756e-16 0)
(3 -1.34033e-15 0)
(3 -7.73237e-16 0)
(3 1.95558e-16 0)
(3 2.50405e-16 0)
(3 -3.13483e-16 0)
(3 -6.78479e-16 0)
(3 -1.02015e-15 0)
(3 -1.0518e-15 0)
(3 -1.11969e-15 0)
(3 -7.08635e-16 0)
(3 -2.51852e-16 0)
(3 -1.46328e-16 0)
(3 -1.03171e-16 0)
(3 2.15748e-17 0)
(3 3.55233e-16 0)
(3 5.48527e-16 0)
(3 8.97134e-16 0)
(3 1.16831e-15 0)
(3 1.55006e-15 0)
(3 8.07407e-16 0)
(3 3.44459e-16 0)
(3 -1.12814e-16 0)
(3 1.43146e-17 0)
(3 -2.1566e-16 0)
(3 -5.40365e-16 0)
(3 -9.02576e-16 0)
(3 -8.55737e-16 0)
(3 -8.70175e-16 0)
(3 -6.32032e-16 0)
(3 -4.16394e-16 0)
(3 -7.88869e-16 0)
(3 -1.25683e-15 0)
(3 -8.06281e-16 0)
(3 -7.58203e-17 0)
(3 1.22745e-15 0)
(3 1.70695e-15 0)
(3 9.8905e-16 0)
(3 4.70727e-16 0)
(3 3.79906e-16 0)
(3 -1.92936e-16 0)
(3 -5.1123e-16 0)
(3 -3.6821e-16 0)
(3 -2.06752e-16 0)
(3 -1.91995e-16 0)
(3 -3.26963e-16 0)
(3 -1.0281e-15 0)
(3 -3.19628e-16 0)
(3 -2.31073e-16 0)
(3 -4.78564e-16 0)
(3 -2.78545e-16 0)
(3 5.97612e-16 0)
(3 1.83404e-15 0)
(3 1.78835e-15 0)
(3 1.52265e-15 0)
(3 1.27667e-15 0)
(3 6.90546e-16 0)
(3 4.53703e-16 0)
(3 1.3221e-15 0)
(3 1.83442e-15 0)
(3 2.72681e-15 0)
(3 1.61556e-15 0)
(3 3.02317e-17 0)
(3 -3.67225e-16 0)
(3 -8.18026e-16 0)
(3 -1.65327e-15 0)
(3 -2.07496e-15 0)
(3 -1.36491e-15 0)
(3 -6.7549e-16 0)
(3 -1.35347e-17 0)
(3 1.03587e-16 0)
(3 7.32574e-17 0)
(3 3.85924e-16 0)
(3 3.01491e-16 0)
(3 -1.88421e-16 0)
(3 -1.6314e-16 0)
(3 -1.39254e-16 0)
(3 -2.06801e-16 0)
(3 -6.1409e-17 0)
(3 1.0855e-15 0)
(3 4.81869e-16 0)
(3 -2.63331e-16 0)
(3 -6.21209e-16 0)
(3 1.69516e-17 0)
(3 3.03016e-16 0)
(3 4.35815e-16 0)
(3 3.85763e-16 0)
(3 5.08426e-16 0)
(3 3.52843e-16 0)
(3 3.05659e-16 0)
(3 -1.4776e-16 0)
(3 -1.20006e-15 0)
(3 -2.17191e-15 0)
(3 -1.92213e-15 0)
(3 -3.80673e-16 0)
(3 7.05435e-16 0)
(3 8.57087e-16 0)
(3 7.8556e-16 0)
(3 1.14691e-15 0)
(3 2.06486e-15 0)
(3 1.9612e-15 0)
(3 8.19245e-16 0)
(3 2.32605e-16 0)
(3 -1.05518e-15 0)
(3 -1.28262e-15 0)
(3 -1.0546e-15 0)
(3 -1.67093e-16 0)
(3 5.62811e-16 0)
(3 1.11844e-16 0)
(3 -3.65464e-16 0)
(3 -5.69743e-16 0)
(3 3.2921e-16 0)
(3 1.61778e-16 0)
(3 1.16745e-16 0)
(3 7.81865e-16 0)
(3 1.08927e-15 0)
(3 5.46481e-16 0)
(3 5.51762e-16 0)
(3 5.72319e-16 0)
(3 1.38051e-16 0)
(3 -8.28279e-16 0)
(3 -1.43783e-15 0)
(3 -2.22904e-15 0)
(3 -1.84297e-15 0)
(3 -1.81584e-15 0)
(3 -1.30024e-15 0)
(3 -9.0035e-16 0)
(3 -9.50934e-16 0)
(3 -1.38257e-15 0)
(3 -1.37034e-15 0)
(3 -5.18102e-16 0)
(3 1.41238e-15 0)
(3 1.51702e-15 0)
(3 4.20988e-16 0)
(3 2.84411e-17 0)
(3 -4.57403e-16 0)
(3 -6.12401e-16 0)
(3 -1.01394e-15 0)
(3 -1.22115e-15 0)
(3 -1.1562e-15 0)
(3 -6.06058e-16 0)
(3 -1.12218e-16 0)
(3 -1.99088e-16 0)
(3 2.56741e-16 0)
(3 5.31529e-16 0)
(3 8.32956e-17 0)
(3 -2.09391e-16 0)
(3 1.90979e-15 0)
(3 2.32535e-15 0)
(3 1.92514e-15 0)
(3 2.00887e-15 0)
(3 1.78439e-15 0)
(3 2.3728e-15 0)
(3 1.72241e-15 0)
(3 1.53678e-15 0)
(3 1.81226e-15 0)
(3 2.53337e-15 0)
(3 1.46268e-15 0)
(3 5.64587e-16 0)
(3 -1.80798e-15 0)
(3 -2.74442e-15 0)
(3 -2.93312e-15 0)
(3 -3.65438e-15 0)
(3 -3.01059e-15 0)
(3 -3.72744e-15 0)
(3 -5.13922e-18 0)
(3 2.79524e-17 0)
(3 -2.64301e-16 0)
(3 1.33383e-16 0)
(3 -2.77354e-16 0)
(3 -1.71882e-15 0)
(3 -1.86843e-15 0)
(3 -3.45734e-16 0)
(3 3.16154e-17 0)
(3 4.42685e-16 0)
(3 7.908e-16 0)
(3 1.03519e-15 0)
(3 8.41175e-17 0)
(3 -2.9649e-16 0)
(3 -2.45894e-16 0)
(3 9.39232e-17 0)
(3 1.33004e-16 0)
(3 1.6034e-16 0)
(3 1.28642e-16 0)
(3 -4.21308e-16 0)
(3 2.50998e-16 0)
(3 -3.43142e-16 0)
(3 -3.74899e-16 0)
(3 -1.10985e-15 0)
(3 -2.21666e-15 0)
(3 -4.72908e-16 0)
(3 1.92387e-15 0)
(3 3.08207e-15 0)
(3 3.56077e-15 0)
(3 3.67085e-15 0)
(3 3.45254e-15 0)
(3 2.95845e-15 0)
(3 2.53179e-15 0)
(3 2.1054e-15 0)
(3 6.36441e-16 0)
(3 -6.52418e-16 0)
(3 -4.66807e-16 0)
(3 -1.17958e-16 0)
(3 4.91923e-16 0)
(3 1.20265e-15 0)
(3 5.12586e-16 0)
(3 1.00208e-16 0)
(3 1.46377e-16 0)
(3 -2.00771e-16 0)
(3 -3.41142e-16 0)
(3 3.92877e-16 0)
(3 9.78012e-16 0)
(3 1.18072e-15 0)
(3 1.36283e-15 0)
(3 7.16566e-16 0)
(3 -6.32206e-17 0)
(3 -2.03764e-16 0)
(3 -2.76418e-17 0)
(3 2.3544e-16 0)
(3 4.01109e-16 0)
(3 5.95656e-16 0)
(3 5.81638e-16 0)
(3 3.03511e-16 0)
(3 3.96556e-16 0)
(3 7.66189e-16 0)
(3 6.24999e-16 0)
(3 5.97016e-16 0)
(3 9.7961e-16 0)
(3 1.8993e-15 0)
(3 6.63769e-16 0)
(3 -3.41002e-16 0)
(3 -6.22599e-16 0)
(3 -2.31173e-16 0)
(3 -1.88438e-16 0)
(3 -7.05735e-16 0)
(3 -1.38512e-15 0)
(3 -1.44106e-15 0)
(3 2.9534e-16 0)
(3 1.01657e-15 0)
(3 6.80823e-16 0)
(3 1.02663e-15 0)
(3 1.21768e-15 0)
(3 1.77878e-15 0)
(3 2.46809e-15 0)
(3 2.77083e-15 0)
(3 2.12744e-15 0)
(3 1.835e-15 0)
(3 1.75607e-15 0)
(3 2.44478e-15 0)
(3 2.32589e-15 0)
(3 1.28399e-15 0)
(3 1.78387e-15 0)
(3 2.82769e-15 0)
(3 3.53661e-15 0)
(3 2.2588e-15 0)
(3 1.52892e-15 0)
(3 -1.78004e-16 0)
(3 -3.4787e-15 0)
(3 -5.62569e-15 0)
(3 -5.56845e-15 0)
(3 -5.37293e-15 0)
(3 6.55928e-17 0)
(3 -1.3622e-16 0)
(3 -5.45777e-16 0)
(3 -5.89622e-16 0)
(3 -1.1877e-15 0)
(3 -1.97969e-15 0)
(3 -1.76442e-15 0)
(3 -1.07054e-15 0)
(3 4.0096e-16 0)
(3 8.16297e-16 0)
(3 1.09912e-15 0)
(3 1.29776e-15 0)
(3 9.59207e-16 0)
(3 -1.05113e-16 0)
(3 -6.16433e-16 0)
(3 -5.75476e-16 0)
(3 -2.07097e-16 0)
(3 3.05496e-16 0)
(3 5.05211e-17 0)
(3 -5.93295e-16 0)
(3 -7.21102e-16 0)
(3 -3.28601e-16 0)
(3 3.93602e-16 0)
(3 3.30005e-17 0)
(3 -2.19311e-16 0)
(3 9.01754e-16 0)
(3 2.78551e-15 0)
(3 3.22483e-15 0)
(3 2.92976e-15 0)
(3 2.64807e-15 0)
(3 2.37679e-15 0)
(3 2.29222e-15 0)
(3 2.94839e-15 0)
(3 2.57417e-15 0)
(3 1.72104e-15 0)
(3 9.96351e-16 0)
(3 2.34097e-16 0)
(3 4.69947e-16 0)
(3 1.45931e-15 0)
(3 3.1875e-15 0)
(3 3.1608e-15 0)
(3 2.19125e-15 0)
(3 5.43476e-16 0)
(3 8.17895e-17 0)
(3 -6.06633e-17 0)
(3 2.67022e-16 0)
(3 1.07467e-15 0)
(3 1.38992e-15 0)
(3 9.41515e-16 0)
(3 3.46482e-16 0)
(3 1.04577e-15 0)
(3 1.94469e-15 0)
(3 2.00785e-15 0)
(3 1.99631e-15 0)
(3 2.2371e-15 0)
(3 2.93957e-15 0)
(3 3.18537e-15 0)
(3 2.50234e-15 0)
(3 1.27641e-15 0)
(3 9.93742e-16 0)
(3 9.94056e-16 0)
(3 9.11618e-17 0)
(3 -4.29399e-16 0)
(3 -6.98272e-16 0)
(3 -1.20633e-15 0)
(3 -1.72675e-15 0)
(3 -1.35874e-15 0)
(3 -8.45024e-16 0)
(3 -5.14091e-16 0)
(3 -4.70312e-16 0)
(3 -9.18903e-16 0)
(3 -1.41816e-15 0)
(3 -7.18637e-16 0)
(3 1.73278e-16 0)
(3 3.08475e-16 0)
(3 5.19236e-16 0)
(3 2.17212e-15 0)
(3 2.54694e-15 0)
(3 1.19528e-15 0)
(3 8.674e-16 0)
(3 1.33003e-15 0)
(3 1.26854e-15 0)
(3 2.14603e-15 0)
(3 1.99716e-15 0)
(3 2.54083e-15 0)
(3 3.71769e-15 0)
(3 3.86722e-15 0)
(3 3.64777e-15 0)
(3 3.13931e-15 0)
(3 2.27594e-15 0)
(3 1.9698e-15 0)
(3 1.0594e-15 0)
(3 -5.90935e-16 0)
(3 -3.2444e-15 0)
(3 -3.77998e-15 0)
(3 -4.36206e-15 0)
(3 -1.48233e-17 0)
(3 3.80554e-18 0)
(3 9.53499e-17 0)
(3 -3.32895e-16 0)
(3 -1.60939e-16 0)
(3 3.59388e-16 0)
(3 3.69013e-16 0)
(3 1.12947e-17 0)
(3 2.84651e-16 0)
(3 1.04763e-15 0)
(3 7.64039e-16 0)
(3 6.00871e-16 0)
(3 4.10396e-16 0)
(3 -1.3385e-16 0)
(3 -2.24152e-16 0)
(3 -6.11143e-16 0)
(3 -6.77429e-16 0)
(3 -3.97383e-16 0)
(3 -6.93493e-16 0)
(3 -7.71671e-16 0)
(3 -1.09871e-15 0)
(3 -7.14891e-16 0)
(3 1.12784e-16 0)
(3 -3.07516e-17 0)
(3 2.26733e-16 0)
(3 1.61671e-15 0)
(3 2.05521e-15 0)
(3 2.2667e-15 0)
(3 1.91036e-15 0)
(3 1.05404e-15 0)
(3 1.96771e-16 0)
(3 3.35573e-16 0)
(3 3.57517e-16 0)
(3 5.58532e-16 0)
(3 1.17753e-15 0)
(3 1.64856e-15 0)
(3 1.53386e-15 0)
(3 1.70298e-15 0)
(3 1.94444e-15 0)
(3 1.54119e-15 0)
(3 1.42438e-15 0)
(3 1.28675e-15 0)
(3 1.1625e-15 0)
(3 1.70158e-15 0)
(3 1.10593e-15 0)
(3 2.18824e-16 0)
(3 -3.27981e-16 0)
(3 -6.79886e-16 0)
(3 -6.62191e-16 0)
(3 -1.40278e-16 0)
(3 8.94231e-16 0)
(3 1.45289e-15 0)
(3 1.61474e-15 0)
(3 1.53901e-15 0)
(3 1.46704e-15 0)
(3 1.86852e-15 0)
(3 1.7118e-15 0)
(3 8.81589e-16 0)
(3 3.97047e-16 0)
(3 -8.59057e-18 0)
(3 -8.73153e-16 0)
(3 -1.71824e-15 0)
(3 -1.75505e-15 0)
(3 -1.85281e-15 0)
(3 -2.40293e-15 0)
(3 -1.75496e-15 0)
(3 -2.10577e-15 0)
(3 -2.03291e-15 0)
(3 -1.51469e-15 0)
(3 -9.21687e-16 0)
(3 -9.32388e-16 0)
(3 -8.69738e-16 0)
(3 -1.45165e-15 0)
(3 -1.1423e-15 0)
(3 -3.41924e-16 0)
(3 -1.4047e-16 0)
(3 4.32044e-16 0)
(3 1.2033e-15 0)
(3 1.0164e-15 0)
(3 7.37673e-16 0)
(3 7.27264e-16 0)
(3 1.50879e-15 0)
(3 1.72166e-15 0)
(3 1.8107e-15 0)
(3 2.36745e-15 0)
(3 3.25939e-15 0)
(3 3.06432e-15 0)
(3 3.60054e-15 0)
(3 3.52565e-15 0)
(3 3e-15 0)
(3 2.21783e-15 0)
(3 1.54952e-15 0)
(3 7.32868e-16 0)
(3 -6.34651e-16 0)
(3 -1.66375e-15 0)
(3 -3.09345e-15 0)
(3 -1.24992e-16 0)
(3 -2.54137e-17 0)
(3 2.73881e-16 0)
(3 3.17902e-16 0)
(3 4.30581e-16 0)
(3 1.55871e-15 0)
(3 2.08849e-15 0)
(3 1.83246e-15 0)
(3 1.39233e-15 0)
(3 3.76017e-16 0)
(3 -6.57814e-16 0)
(3 -2.20344e-16 0)
(3 -1.871e-16 0)
(3 6.50368e-17 0)
(3 4.99477e-16 0)
(3 3.36697e-16 0)
(3 2.19585e-16 0)
(3 7.70539e-17 0)
(3 -3.31281e-16 0)
(3 -1.10043e-15 0)
(3 -2.3463e-15 0)
(3 -2.73906e-15 0)
(3 -2.24349e-15 0)
(3 -9.54416e-16 0)
(3 3.9051e-16 0)
(3 1.4408e-15 0)
(3 2.11246e-15 0)
(3 1.98547e-15 0)
(3 2.3657e-15 0)
(3 1.20153e-15 0)
(3 4.48604e-16 0)
(3 3.08879e-16 0)
(3 3.18166e-16 0)
(3 7.92402e-16 0)
(3 1.75469e-15 0)
(3 1.78865e-15 0)
(3 1.54306e-15 0)
(3 1.07883e-15 0)
(3 6.86726e-16 0)
(3 5.65121e-16 0)
(3 8.75132e-16 0)
(3 1.43396e-15 0)
(3 2.23881e-15 0)
(3 2.71685e-15 0)
(3 3.05205e-15 0)
(3 2.06041e-15 0)
(3 -7.91725e-16 0)
(3 -2.40165e-15 0)
(3 -2.07391e-15 0)
(3 -8.49326e-16 0)
(3 -2.32122e-16 0)
(3 8.27755e-16 0)
(3 1.13995e-15 0)
(3 1.24693e-15 0)
(3 1.26651e-15 0)
(3 2.24474e-16 0)
(3 -1.08225e-15 0)
(3 -1.8498e-15 0)
(3 -1.8777e-15 0)
(3 -2.34609e-15 0)
(3 -3.23565e-15 0)
(3 -3.38621e-15 0)
(3 -3.28872e-15 0)
(3 -2.03819e-15 0)
(3 -6.46737e-16 0)
(3 -9.25165e-16 0)
(3 -1.21617e-15 0)
(3 -2.18541e-15 0)
(3 -2.23123e-15 0)
(3 -1.65082e-15 0)
(3 -1.97882e-15 0)
(3 -2.18194e-15 0)
(3 -2.3577e-15 0)
(3 -2.45305e-15 0)
(3 -7.48431e-16 0)
(3 4.90115e-16 0)
(3 -2.65384e-16 0)
(3 -1.00664e-15 0)
(3 -4.22122e-16 0)
(3 7.22025e-16 0)
(3 1.56845e-15 0)
(3 1.0081e-15 0)
(3 -6.78883e-16 0)
(3 -3.68429e-16 0)
(3 6.2328e-16 0)
(3 6.06344e-16 0)
(3 8.19248e-16 0)
(3 5.1074e-16 0)
(3 1.81298e-16 0)
(3 -4.14818e-16 0)
(3 -4.05082e-16 0)
(3 -2.47e-16 0)
(3 3.02016e-16 0)
(3 1.40813e-15 0)
(3 1.43673e-15 0)
(3 -6.96035e-16 0)
(3 2.78544e-17 0)
(3 4.65054e-17 0)
(3 -3.10543e-16 0)
(3 -2.60659e-17 0)
(3 -4.36254e-16 0)
(3 -3.26238e-16 0)
(3 -2.07672e-16 0)
(3 -9.62874e-17 0)
(3 -1.96736e-16 0)
(3 -6.64659e-16 0)
(3 -1.42375e-15 0)
(3 -1.19381e-15 0)
(3 -6.87439e-16 0)
(3 -6.87224e-18 0)
(3 2.11186e-17 0)
(3 -4.30695e-17 0)
(3 1.59092e-16 0)
(3 -1.85395e-16 0)
(3 -4.81503e-16 0)
(3 -1.30059e-15 0)
(3 -1.75336e-15 0)
(3 -1.13877e-15 0)
(3 -1.94771e-16 0)
(3 5.39137e-16 0)
(3 6.60288e-16 0)
(3 2.1732e-15 0)
(3 3.19942e-15 0)
(3 3.66068e-15 0)
(3 3.00189e-15 0)
(3 2.49283e-15 0)
(3 2.41568e-15 0)
(3 1.9796e-15 0)
(3 2.02436e-15 0)
(3 2.20123e-15 0)
(3 2.47987e-15 0)
(3 2.36012e-15 0)
(3 1.69351e-15 0)
(3 7.86432e-16 0)
(3 3.87994e-16 0)
(3 1.8763e-16 0)
(3 9.54673e-16 0)
(3 1.55529e-15 0)
(3 1.15897e-15 0)
(3 5.69604e-16 0)
(3 1.83149e-15 0)
(3 2.42031e-15 0)
(3 1.71834e-15 0)
(3 7.80454e-16 0)
(3 -7.28751e-16 0)
(3 3.50362e-16 0)
(3 9.55658e-16 0)
(3 1.37417e-15 0)
(3 4.97851e-16 0)
(3 -1.11563e-16 0)
(3 -3.70777e-16 0)
(3 -1.52963e-15 0)
(3 -1.92286e-15 0)
(3 -1.88398e-15 0)
(3 -1.73733e-15 0)
(3 -2.29618e-15 0)
(3 -2.54576e-15 0)
(3 -2.46832e-15 0)
(3 -2.64455e-15 0)
(3 -2.83855e-15 0)
(3 -1.94027e-15 0)
(3 -1.2754e-15 0)
(3 -1.04362e-15 0)
(3 -1.39428e-15 0)
(3 -1.39769e-15 0)
(3 -2.01409e-15 0)
(3 -2.30452e-15 0)
(3 -2.67013e-15 0)
(3 -2.30729e-15 0)
(3 -1.77811e-15 0)
(3 -1.088e-15 0)
(3 -6.7009e-16 0)
(3 -8.60799e-16 0)
(3 -8.10275e-16 0)
(3 -5.91756e-16 0)
(3 1.53429e-16 0)
(3 1.21268e-15 0)
(3 -4.71717e-16 0)
(3 -1.93665e-15 0)
(3 -1.52712e-15 0)
(3 -1.67833e-15 0)
(3 -1.55307e-15 0)
(3 -1.96931e-15 0)
(3 -2.21126e-15 0)
(3 -2.56023e-15 0)
(3 -2.06847e-15 0)
(3 -1.88981e-15 0)
(3 -1.56464e-15 0)
(3 -5.22865e-16 0)
(3 1.93938e-16 0)
(3 3.1449e-16 0)
(3 3.92263e-16 0)
(3 1.49556e-17 0)
(3 2.60869e-16 0)
(3 2.30478e-16 0)
(3 2.87074e-16 0)
(3 2.91951e-16 0)
(3 5.10988e-17 0)
(3 -2.32152e-16 0)
(3 -5.06928e-16 0)
(3 -7.72577e-16 0)
(3 -8.15533e-16 0)
(3 -4.43004e-16 0)
(3 -4.60575e-16 0)
(3 1.12225e-18 0)
(3 3.13942e-16 0)
(3 -3.61558e-16 0)
(3 -4.21844e-16 0)
(3 -8.10813e-16 0)
(3 -1.09813e-15 0)
(3 -1.10176e-15 0)
(3 -8.6553e-16 0)
(3 -5.16499e-16 0)
(3 -1.75446e-17 0)
(3 2.63943e-16 0)
(3 3.87338e-16 0)
(3 8.30763e-16 0)
(3 9.35828e-16 0)
(3 3.4076e-16 0)
(3 9.04095e-16 0)
(3 2.2183e-15 0)
(3 2.72573e-15 0)
(3 3.74845e-15 0)
(3 3.47345e-15 0)
(3 2.49462e-15 0)
(3 2.20387e-15 0)
(3 1.57986e-15 0)
(3 8.99192e-16 0)
(3 7.23187e-16 0)
(3 1.29219e-16 0)
(3 -1.87225e-16 0)
(3 -2.76457e-16 0)
(3 -4.57779e-16 0)
(3 -6.81128e-16 0)
(3 -7.11605e-16 0)
(3 -9.80871e-16 0)
(3 6.4584e-17 0)
(3 8.50997e-16 0)
(3 8.09661e-16 0)
(3 1.29594e-15 0)
(3 1.70016e-15 0)
(3 1.48066e-15 0)
(3 7.99525e-16 0)
(3 -4.3723e-16 0)
(3 -7.91911e-16 0)
(3 -8.81984e-16 0)
(3 -1.33947e-15 0)
(3 -7.39386e-16 0)
(3 -2.82868e-16 0)
(3 -6.84866e-16 0)
(3 -9.76088e-16 0)
(3 -9.52977e-16 0)
(3 -1.76618e-15 0)
(3 -2.25667e-15 0)
(3 -2.70597e-15 0)
(3 -3.0016e-15 0)
(3 -2.3045e-15 0)
(3 -1.86057e-15 0)
(3 -2.06094e-15 0)
(3 -2.06903e-15 0)
(3 -2.21479e-15 0)
(3 -2.84625e-15 0)
(3 -2.80848e-15 0)
(3 -2.42127e-15 0)
(3 -2.30212e-15 0)
(3 -1.24247e-15 0)
(3 -7.63628e-16 0)
(3 -8.35613e-16 0)
(3 3.29724e-16 0)
(3 1.0442e-15 0)
(3 -2.86182e-16 0)
(3 -2.08288e-15 0)
(3 -3.86205e-15 0)
(3 -2.86297e-15 0)
(3 -2.693e-15 0)
(3 -4.00639e-15 0)
(3 -4.3402e-15 0)
(3 -3.75962e-15 0)
(3 -3.54086e-15 0)
(3 -2.97003e-15 0)
(3 -2.3741e-15 0)
(3 -7.68798e-16 0)
(3 -4.52297e-16 0)
(3 -6.39825e-16 0)
(3 -2.24259e-15 0)
(3 -3.72498e-15 0)
(3 -2.88238e-15 0)
(3 -1.98199e-15 0)
(3 -3.76366e-17 0)
(3 1.99263e-16 0)
(3 2.80034e-16 0)
(3 1.9085e-16 0)
(3 6.56337e-16 0)
(3 8.72551e-16 0)
(3 7.91124e-16 0)
(3 7.79727e-17 0)
(3 -5.99858e-16 0)
(3 -7.85898e-16 0)
(3 -1.77075e-16 0)
(3 7.054e-17 0)
(3 -2.26491e-16 0)
(3 -2.32244e-16 0)
(3 3.48578e-17 0)
(3 2.05018e-16 0)
(3 7.5032e-17 0)
(3 -4.35396e-16 0)
(3 -7.16157e-16 0)
(3 -6.19802e-16 0)
(3 -8.81503e-16 0)
(3 -8.64072e-16 0)
(3 -1.96765e-16 0)
(3 2.01323e-16 0)
(3 1.08794e-16 0)
(3 -6.11359e-16 0)
(3 -9.55494e-17 0)
(3 7.86843e-16 0)
(3 7.45133e-16 0)
(3 2.36389e-15 0)
(3 3.60462e-15 0)
(3 3.41773e-15 0)
(3 2.64364e-15 0)
(3 2.0199e-15 0)
(3 8.12317e-16 0)
(3 -1.12479e-15 0)
(3 -1.32265e-15 0)
(3 -6.03603e-16 0)
(3 -8.35254e-16 0)
(3 -9.45187e-16 0)
(3 -1.28363e-15 0)
(3 -1.68832e-15 0)
(3 -1.87265e-15 0)
(3 -1.58815e-15 0)
(3 -2.42561e-16 0)
(3 7.48833e-16 0)
(3 7.46009e-16 0)
(3 1.65206e-15 0)
(3 2.47203e-15 0)
(3 1.94253e-15 0)
(3 6.85263e-16 0)
(3 -8.90731e-16 0)
(3 -5.18672e-16 0)
(3 -3.39276e-16 0)
(3 -7.41347e-16 0)
(3 -1.76729e-16 0)
(3 2.68117e-16 0)
(3 9.94641e-17 0)
(3 -3.80252e-16 0)
(3 -8.64383e-16 0)
(3 -1.59751e-15 0)
(3 -3.10262e-15 0)
(3 -2.70859e-15 0)
(3 -2.27361e-15 0)
(3 -2.28654e-15 0)
(3 -2.46369e-15 0)
(3 -1.49621e-15 0)
(3 -1.07701e-15 0)
(3 -1.62659e-15 0)
(3 -2.11216e-15 0)
(3 -1.73332e-15 0)
(3 -1.32308e-15 0)
(3 -1.37165e-15 0)
(3 -1.30111e-15 0)
(3 -9.3424e-16 0)
(3 4.37618e-16 0)
(3 1.10035e-15 0)
(3 4.61401e-16 0)
(3 -1.64327e-15 0)
(3 -2.73614e-15 0)
(3 -4.13667e-15 0)
(3 -4.80938e-15 0)
(3 -4.8715e-15 0)
(3 -3.99269e-15 0)
(3 -1.59026e-15 0)
(3 -4.85523e-16 0)
(3 -2.18133e-16 0)
(3 -7.89576e-17 0)
(3 2.79223e-16 0)
(3 -1.33528e-16 0)
(3 -5.18502e-16 0)
(3 -1.20163e-15 0)
(3 -1.44294e-15 0)
(3 -1.46756e-15 0)
(3 -1.42834e-15 0)
(3 -1.45994e-15 0)
(3 2.1318e-17 0)
(3 2.13966e-16 0)
(3 -9.87502e-17 0)
(3 -3.72695e-16 0)
(3 -3.37075e-17 0)
(3 5.44969e-16 0)
(3 2.41742e-16 0)
(3 3.38151e-17 0)
(3 3.12414e-17 0)
(3 -4.39956e-18 0)
(3 1.10511e-16 0)
(3 -3.72806e-17 0)
(3 -1.16634e-15 0)
(3 -1.56185e-15 0)
(3 -1.18336e-15 0)
(3 -1.05063e-15 0)
(3 -1.18281e-15 0)
(3 -1.45597e-15 0)
(3 -7.9968e-16 0)
(3 5.06731e-16 0)
(3 9.12985e-16 0)
(3 1.01575e-15 0)
(3 7.46315e-16 0)
(3 3.04273e-16 0)
(3 1.72939e-17 0)
(3 -3.35401e-17 0)
(3 -1.50095e-17 0)
(3 6.86598e-16 0)
(3 5.67783e-16 0)
(3 1.70913e-15 0)
(3 1.84461e-15 0)
(3 5.03402e-16 0)
(3 1.08179e-17 0)
(3 2.52747e-16 0)
(3 -1.22848e-16 0)
(3 -1.00268e-15 0)
(3 -1.2207e-15 0)
(3 -4.93438e-16 0)
(3 -8.00873e-16 0)
(3 -1.06288e-15 0)
(3 -1.33931e-15 0)
(3 -1.3352e-15 0)
(3 -1.26168e-15 0)
(3 5.29081e-16 0)
(3 1.35603e-15 0)
(3 1.75562e-15 0)
(3 1.53043e-15 0)
(3 1.15647e-15 0)
(3 6.7392e-16 0)
(3 -5.0078e-16 0)
(3 -5.9752e-16 0)
(3 -4.40566e-16 0)
(3 -5.59898e-16 0)
(3 -1.23893e-15 0)
(3 -1.21113e-15 0)
(3 -9.55278e-16 0)
(3 1.56671e-16 0)
(3 1.09517e-18 0)
(3 -2.48434e-16 0)
(3 -1.85365e-15 0)
(3 -1.61362e-15 0)
(3 -2.16272e-15 0)
(3 -2.17714e-15 0)
(3 -1.24824e-15 0)
(3 -1.50079e-15 0)
(3 -1.30065e-15 0)
(3 -6.93891e-16 0)
(3 -8.56028e-16 0)
(3 -1.10585e-15 0)
(3 -6.4831e-16 0)
(3 -7.40799e-16 0)
(3 -1.51755e-15 0)
(3 -1.73548e-15 0)
(3 -1.80443e-15 0)
(3 -1.55433e-15 0)
(3 -4.72187e-17 0)
(3 4.47779e-16 0)
(3 -1.34279e-15 0)
(3 -1.83327e-15 0)
(3 -1.96174e-15 0)
(3 -2.79565e-15 0)
(3 -3.37213e-15 0)
(3 -3.25768e-15 0)
(3 -3.01626e-15 0)
(3 -3.25672e-15 0)
(3 -2.82657e-15 0)
(3 -1.55122e-15 0)
(3 -9.84107e-16 0)
(3 -5.86635e-16 0)
(3 -7.36257e-16 0)
(3 -1.58026e-15 0)
(3 -1.91446e-15 0)
(3 -1.7992e-15 0)
(3 -1.97888e-15 0)
(3 -3.00587e-15 0)
(3 -3.41008e-15 0)
(3 1.04695e-17 0)
(3 -1.36077e-16 0)
(3 6.57808e-18 0)
(3 -1.35115e-16 0)
(3 -4.82255e-16 0)
(3 -5.27819e-16 0)
(3 -8.11011e-19 0)
(3 3.93328e-16 0)
(3 1.28609e-15 0)
(3 1.151e-15 0)
(3 5.4032e-16 0)
(3 3.24842e-16 0)
(3 -6.90925e-17 0)
(3 -9.46472e-16 0)
(3 -9.92086e-16 0)
(3 -1.38841e-15 0)
(3 -1.16088e-15 0)
(3 -9.09359e-16 0)
(3 6.88109e-17 0)
(3 4.52046e-16 0)
(3 1.99596e-15 0)
(3 2.15928e-15 0)
(3 9.18914e-16 0)
(3 -1.45891e-16 0)
(3 -6.56604e-16 0)
(3 -1.02393e-15 0)
(3 -9.95332e-16 0)
(3 -3.50551e-17 0)
(3 5.15178e-16 0)
(3 -8.48738e-16 0)
(3 -2.5279e-15 0)
(3 -3.06372e-15 0)
(3 -2.78336e-15 0)
(3 -3.12916e-15 0)
(3 -1.83706e-15 0)
(3 -6.98316e-16 0)
(3 -9.21546e-16 0)
(3 -6.05498e-16 0)
(3 -3.62155e-16 0)
(3 -4.30016e-16 0)
(3 -2.52558e-16 0)
(3 2.90588e-16 0)
(3 1.07194e-15 0)
(3 1.45805e-15 0)
(3 1.28831e-15 0)
(3 9.92405e-16 0)
(3 5.48801e-16 0)
(3 -6.18417e-16 0)
(3 -1.26521e-15 0)
(3 -5.37636e-16 0)
(3 2.35053e-16 0)
(3 8.92128e-16 0)
(3 1.05312e-15 0)
(3 1.19473e-15 0)
(3 1.23454e-15 0)
(3 1.14876e-15 0)
(3 1.24493e-15 0)
(3 1.09257e-15 0)
(3 5.69791e-16 0)
(3 -1.38946e-15 0)
(3 -2.27575e-15 0)
(3 -1.8549e-15 0)
(3 -1.76135e-15 0)
(3 -1.91821e-15 0)
(3 -2.00613e-15 0)
(3 -1.72581e-15 0)
(3 -1.31945e-15 0)
(3 -3.81544e-16 0)
(3 1.64738e-16 0)
(3 8.98099e-16 0)
(3 5.41345e-16 0)
(3 -1.03664e-16 0)
(3 -1.39408e-15 0)
(3 -2.8437e-15 0)
(3 -2.78458e-15 0)
(3 -2.41588e-15 0)
(3 -2.36041e-15 0)
(3 -1.96809e-15 0)
(3 -1.50862e-15 0)
(3 -1.20423e-15 0)
(3 -1.52433e-15 0)
(3 -1.35261e-15 0)
(3 -1.31255e-16 0)
(3 3.94381e-16 0)
(3 -9.29673e-16 0)
(3 -1.97469e-15 0)
(3 -1.56869e-15 0)
(3 -2.8501e-15 0)
(3 -2.62784e-15 0)
(3 -2.19348e-15 0)
(3 -1.12883e-15 0)
(3 -1.16008e-15 0)
(3 -1.71686e-15 0)
(3 -2.02368e-15 0)
(3 -2.40872e-15 0)
(3 -2.71273e-15 0)
(3 -1.20048e-17 0)
(3 -2.80156e-16 0)
(3 -2.47309e-16 0)
(3 -4.11474e-16 0)
(3 -4.73897e-16 0)
(3 -1.20453e-15 0)
(3 -1.11811e-15 0)
(3 -8.63085e-16 0)
(3 -4.33847e-16 0)
(3 -3.4942e-16 0)
(3 -1.91214e-16 0)
(3 2.85814e-16 0)
(3 1.08143e-15 0)
(3 1.12386e-15 0)
(3 4.09992e-16 0)
(3 -1.36701e-16 0)
(3 4.06431e-16 0)
(3 9.6257e-16 0)
(3 3.22791e-16 0)
(3 -1.94044e-16 0)
(3 3.37397e-16 0)
(3 1.10219e-15 0)
(3 6.64726e-16 0)
(3 4.28462e-16 0)
(3 -7.16845e-17 0)
(3 -6.84908e-16 0)
(3 -2.24247e-15 0)
(3 -2.76267e-15 0)
(3 -3.07215e-15 0)
(3 -5.259e-15 0)
(3 -4.28243e-15 0)
(3 -3.35952e-15 0)
(3 -3.02809e-15 0)
(3 -2.16975e-15 0)
(3 -2.4009e-16 0)
(3 3.9688e-16 0)
(3 5.57431e-17 0)
(3 -3.93344e-16 0)
(3 -6.30555e-16 0)
(3 1.09856e-15 0)
(3 1.73711e-15 0)
(3 1.29187e-15 0)
(3 1.06133e-15 0)
(3 4.59704e-16 0)
(3 -3.37093e-18 0)
(3 -1.94652e-16 0)
(3 -4.48576e-16 0)
(3 -5.09779e-16 0)
(3 -2.62965e-16 0)
(3 1.20297e-16 0)
(3 1.99453e-16 0)
(3 4.85698e-16 0)
(3 9.83152e-16 0)
(3 2.22881e-15 0)
(3 3.01711e-15 0)
(3 2.64571e-15 0)
(3 2.016e-15 0)
(3 1.34108e-15 0)
(3 5.92889e-16 0)
(3 1.35965e-16 0)
(3 -1.05e-15 0)
(3 -9.82098e-16 0)
(3 -2.05436e-17 0)
(3 -8.83501e-16 0)
(3 -2.19971e-15 0)
(3 -2.07346e-15 0)
(3 -1.0152e-15 0)
(3 3.31296e-16 0)
(3 1.07561e-15 0)
(3 4.49221e-16 0)
(3 -6.97132e-17 0)
(3 1.99373e-16 0)
(3 -5.98579e-16 0)
(3 -1.45428e-15 0)
(3 -1.85766e-15 0)
(3 -3.27315e-15 0)
(3 -3.62905e-15 0)
(3 -2.30887e-15 0)
(3 -1.79051e-15 0)
(3 -1.39483e-15 0)
(3 -8.08853e-16 0)
(3 -7.45266e-16 0)
(3 -3.71499e-16 0)
(3 1.41763e-16 0)
(3 1.14406e-15 0)
(3 -4.14891e-16 0)
(3 -9.93706e-16 0)
(3 -6.4864e-16 0)
(3 -8.88139e-16 0)
(3 -6.41873e-16 0)
(3 1.09435e-16 0)
(3 -1.60311e-17 0)
(3 -2.57282e-16 0)
(3 -3.55894e-16 0)
(3 -7.05719e-16 0)
(3 -1.09334e-15 0)
(3 2.51491e-17 0)
(3 7.82051e-17 0)
(3 1.77797e-16 0)
(3 9.06062e-17 0)
(3 2.44078e-16 0)
(3 7.15809e-17 0)
(3 -4.71409e-16 0)
(3 -8.05037e-16 0)
(3 -9.80651e-16 0)
(3 -5.2151e-16 0)
(3 6.71743e-16 0)
(3 9.16999e-16 0)
(3 1.5005e-15 0)
(3 1.33134e-15 0)
(3 7.50491e-16 0)
(3 3.63688e-16 0)
(3 -3.07374e-16 0)
(3 -2.93532e-16 0)
(3 -5.85621e-16 0)
(3 -1.29484e-15 0)
(3 -1.52207e-15 0)
(3 -8.77724e-16 0)
(3 -1.64113e-16 0)
(3 1.84475e-17 0)
(3 7.10429e-16 0)
(3 8.35933e-16 0)
(3 -2.64529e-15 0)
(3 -4.51713e-15 0)
(3 -4.58758e-15 0)
(3 -4.24318e-15 0)
(3 -2.50261e-15 0)
(3 -2.07866e-15 0)
(3 -1.13686e-15 0)
(3 9.06922e-17 0)
(3 1.29549e-15 0)
(3 1.29446e-15 0)
(3 1.53667e-15 0)
(3 -1.43363e-16 0)
(3 -1.78136e-15 0)
(3 -2.11043e-15 0)
(3 -1.33988e-15 0)
(3 -1.16673e-16 0)
(3 -3.44178e-16 0)
(3 -7.00739e-17 0)
(3 -1.58001e-16 0)
(3 -1.5706e-16 0)
(3 4.93679e-16 0)
(3 1.16856e-15 0)
(3 3.56401e-16 0)
(3 -6.22471e-16 0)
(3 -7.50726e-16 0)
(3 -6.97489e-16 0)
(3 -2.35856e-16 0)
(3 1.48815e-15 0)
(3 3.09795e-15 0)
(3 2.42053e-15 0)
(3 4.58515e-16 0)
(3 -3.60086e-16 0)
(3 -3.93553e-17 0)
(3 1.04922e-15 0)
(3 1.1517e-15 0)
(3 5.76975e-16 0)
(3 -4.47664e-16 0)
(3 -7.22827e-16 0)
(3 -1.27583e-15 0)
(3 -1.50947e-15 0)
(3 -1.66009e-15 0)
(3 -1.19346e-15 0)
(3 -2.7117e-16 0)
(3 -8.80595e-16 0)
(3 -1.02486e-15 0)
(3 -5.79409e-16 0)
(3 -4.11808e-16 0)
(3 1.24323e-16 0)
(3 6.02865e-16 0)
(3 -5.87619e-16 0)
(3 -1.27901e-15 0)
(3 -9.08394e-16 0)
(3 -2.12365e-15 0)
(3 -1.74242e-15 0)
(3 -9.29012e-16 0)
(3 -8.94684e-16 0)
(3 -1.97459e-15 0)
(3 -8.38354e-16 0)
(3 1.45568e-15 0)
(3 1.93179e-15 0)
(3 1.92859e-15 0)
(3 2.17401e-15 0)
(3 9.52065e-16 0)
(3 6.65409e-16 0)
(3 2.90057e-16 0)
(3 2.58076e-16 0)
(3 4.75063e-16 0)
(3 6.87103e-16 0)
(3 5.00307e-16 0)
(3 -1.00688e-15 0)
(3 2.13784e-17 0)
(3 1.81072e-16 0)
(3 2.32509e-16 0)
(3 1.21262e-15 0)
(3 1.62793e-15 0)
(3 1.89625e-15 0)
(3 1.39665e-15 0)
(3 8.19246e-16 0)
(3 1.47929e-16 0)
(3 1.95134e-16 0)
(3 -4.32626e-16 0)
(3 -6.6546e-16 0)
(3 -3.48167e-16 0)
(3 6.93181e-16 0)
(3 8.61274e-16 0)
(3 6.21034e-16 0)
(3 -1.54307e-16 0)
(3 -5.31355e-16 0)
(3 -8.42617e-16 0)
(3 -8.90316e-16 0)
(3 -9.66351e-16 0)
(3 -9.44791e-16 0)
(3 5.38837e-17 0)
(3 7.79347e-16 0)
(3 1.32164e-15 0)
(3 6.96665e-16 0)
(3 -1.36073e-15 0)
(3 -2.83076e-15 0)
(3 -4.01836e-15 0)
(3 -3.77158e-15 0)
(3 -2.13373e-15 0)
(3 -1.16881e-15 0)
(3 1.09961e-16 0)
(3 4.83882e-16 0)
(3 6.9249e-16 0)
(3 8.93571e-16 0)
(3 4.77941e-16 0)
(3 2.25744e-16 0)
(3 -3.37784e-16 0)
(3 -1.72931e-15 0)
(3 -2.10539e-15 0)
(3 -1.89291e-15 0)
(3 -1.93869e-15 0)
(3 -1.54845e-15 0)
(3 -6.64935e-16 0)
(3 -1.78946e-16 0)
(3 3.06511e-16 0)
(3 8.4103e-16 0)
(3 1.34861e-15 0)
(3 1.25977e-15 0)
(3 1.18325e-15 0)
(3 6.13233e-16 0)
(3 4.52201e-16 0)
(3 7.1062e-16 0)
(3 1.3616e-15 0)
(3 1.51947e-15 0)
(3 1.82485e-15 0)
(3 1.67966e-15 0)
(3 1.88601e-15 0)
(3 1.90199e-15 0)
(3 1.44281e-15 0)
(3 3.36485e-16 0)
(3 -1.16161e-15 0)
(3 -1.62547e-15 0)
(3 -5.68267e-16 0)
(3 -1.24816e-15 0)
(3 -1.87526e-15 0)
(3 -1.4015e-15 0)
(3 -6.2253e-16 0)
(3 -5.34112e-16 0)
(3 -4.11732e-16 0)
(3 6.6172e-16 0)
(3 1.97705e-15 0)
(3 2.62399e-15 0)
(3 2.2297e-15 0)
(3 1.09441e-15 0)
(3 -1.36637e-16 0)
(3 -1.24179e-15 0)
(3 -1.50312e-15 0)
(3 -9.04698e-16 0)
(3 -6.50597e-16 0)
(3 -5.33766e-16 0)
(3 -9.20501e-17 0)
(3 1.73224e-16 0)
(3 8.02732e-17 0)
(3 1.1182e-15 0)
(3 2.65764e-15 0)
(3 6.90624e-16 0)
(3 3.93576e-16 0)
(3 4.50457e-16 0)
(3 1.27797e-16 0)
(3 4.48624e-16 0)
(3 1.02578e-15 0)
(3 1.12561e-15 0)
(3 8.03247e-16 0)
(3 -9.66019e-16 0)
(3 -4.98404e-17 0)
(3 -1.69925e-17 0)
(3 -3.73768e-17 0)
(3 5.20652e-16 0)
(3 7.32091e-16 0)
(3 7.05891e-16 0)
(3 8.32249e-16 0)
(3 8.94638e-16 0)
(3 6.12219e-16 0)
(3 -2.38392e-16 0)
(3 -1.10074e-15 0)
(3 -1.53764e-15 0)
(3 -2.32073e-15 0)
(3 -2.0908e-15 0)
(3 -1.539e-15 0)
(3 -1.46041e-15 0)
(3 4.94839e-16 0)
(3 1.6891e-15 0)
(3 9.97931e-16 0)
(3 2.34651e-16 0)
(3 -7.92117e-17 0)
(3 3.7314e-16 0)
(3 6.53807e-16 0)
(3 8.58221e-16 0)
(3 1.6382e-16 0)
(3 -8.76502e-16 0)
(3 -8.82857e-16 0)
(3 -1.04405e-15 0)
(3 -1.60858e-15 0)
(3 -1.3809e-15 0)
(3 -7.10633e-16 0)
(3 -2.76801e-16 0)
(3 -8.59406e-16 0)
(3 -1.10268e-15 0)
(3 -2.57001e-16 0)
(3 1.27397e-16 0)
(3 4.17532e-16 0)
(3 4.8283e-16 0)
(3 -5.04633e-16 0)
(3 -1.59553e-15 0)
(3 -2.88446e-15 0)
(3 -3.32872e-15 0)
(3 -2.81477e-15 0)
(3 -2.53524e-15 0)
(3 -1.59969e-15 0)
(3 9.21772e-17 0)
(3 5.88628e-16 0)
(3 6.69052e-16 0)
(3 1.31117e-15 0)
(3 1.26358e-15 0)
(3 1.37329e-15 0)
(3 8.59082e-16 0)
(3 3.38731e-16 0)
(3 -1.26333e-16 0)
(3 -5.57477e-17 0)
(3 1.32378e-16 0)
(3 -8.11607e-16 0)
(3 -3.55468e-16 0)
(3 -3.9027e-16 0)
(3 -1.20454e-16 0)
(3 -1.65055e-16 0)
(3 -8.69518e-16 0)
(3 -1.08173e-15 0)
(3 -1.80314e-15 0)
(3 -1.05024e-15 0)
(3 -1.03573e-15 0)
(3 -8.0818e-16 0)
(3 -7.39259e-16 0)
(3 -2.74654e-16 0)
(3 4.48275e-16 0)
(3 7.86892e-16 0)
(3 1.48669e-15 0)
(3 1.71828e-15 0)
(3 1.79198e-15 0)
(3 1.00823e-15 0)
(3 1.32679e-16 0)
(3 -2.18793e-16 0)
(3 8.47e-17 0)
(3 5.1097e-16 0)
(3 1.17171e-15 0)
(3 1.07979e-15 0)
(3 1.50299e-15 0)
(3 1.32337e-15 0)
(3 -6.19817e-16 0)
(3 -3.21512e-15 0)
(3 -4.1143e-15 0)
(3 -4.46864e-15 0)
(3 -1.91214e-15 0)
(3 5.58849e-16 0)
(3 6.96409e-16 0)
(3 1.1455e-15 0)
(3 1.58692e-15 0)
(3 -4.73181e-16 0)
(3 -1.60484e-15 0)
(3 -1.40147e-15 0)
(3 -1.34094e-15 0)
(3 3.57837e-17 0)
(3 -8.71981e-17 0)
(3 2.79912e-16 0)
(3 1.09824e-16 0)
(3 -2.11218e-16 0)
(3 2.813e-16 0)
(3 9.30397e-16 0)
(3 1.19585e-15 0)
(3 9.34518e-16 0)
(3 7.03088e-16 0)
(3 9.71187e-16 0)
(3 -5.93278e-17 0)
(3 -9.77937e-16 0)
(3 -1.48862e-15 0)
(3 -9.34596e-16 0)
(3 3.3462e-16 0)
(3 1.10286e-15 0)
(3 7.41157e-16 0)
(3 1.69304e-17 0)
(3 -1.82915e-16 0)
(3 -3.43334e-16 0)
(3 -5.10197e-16 0)
(3 -8.29703e-16 0)
(3 -1.12192e-15 0)
(3 -1.39307e-15 0)
(3 -1.67383e-15 0)
(3 -1.70935e-15 0)
(3 -6.7374e-16 0)
(3 4.54226e-16 0)
(3 6.63299e-16 0)
(3 5.50452e-16 0)
(3 3.50012e-16 0)
(3 -6.22592e-16 0)
(3 -1.24233e-15 0)
(3 -1.05739e-15 0)
(3 8.20431e-17 0)
(3 1.12085e-16 0)
(3 -8.00855e-16 0)
(3 -1.52605e-15 0)
(3 -1.52566e-15 0)
(3 -1.55404e-15 0)
(3 -1.40847e-15 0)
(3 -1.20889e-15 0)
(3 -1.31468e-15 0)
(3 -8.29477e-16 0)
(3 -6.80151e-16 0)
(3 3.7639e-16 0)
(3 7.20549e-16 0)
(3 1.55753e-16 0)
(3 1.11843e-16 0)
(3 -8.21701e-16 0)
(3 -9.05145e-16 0)
(3 -1.48984e-15 0)
(3 -1.75807e-15 0)
(3 -1.875e-15 0)
(3 -1.55477e-15 0)
(3 -3.87533e-15 0)
(3 -4.29123e-15 0)
(3 -3.60669e-15 0)
(3 -3.09274e-15 0)
(3 -1.80912e-15 0)
(3 -1.2033e-15 0)
(3 -1.32481e-15 0)
(3 -5.04188e-16 0)
(3 3.5921e-16 0)
(3 2.55633e-16 0)
(3 1.37175e-16 0)
(3 8.3621e-17 0)
(3 -3.39155e-16 0)
(3 -2.72622e-17 0)
(3 6.88353e-17 0)
(3 4.37348e-16 0)
(3 6.55927e-16 0)
(3 1.33275e-15 0)
(3 1.4022e-15 0)
(3 1.37895e-15 0)
(3 -8.87445e-17 0)
(3 -8.68591e-16 0)
(3 -7.932e-16 0)
(3 -1.27355e-15 0)
(3 -6.65768e-16 0)
(3 3.69183e-16 0)
(3 3.94216e-16 0)
(3 -1.81135e-15 0)
(3 -3.3937e-15 0)
(3 -4.57826e-15 0)
(3 -4.85597e-15 0)
(3 -3.96062e-15 0)
(3 -1.98962e-15 0)
(3 -1.11953e-15 0)
(3 -8.32773e-16 0)
(3 -1.87973e-16 0)
(3 6.49025e-17 0)
(3 -6.569e-16 0)
(3 -1.30505e-15 0)
(3 -2.1564e-15 0)
(3 -1.60089e-17 0)
(3 1.07989e-16 0)
(3 3.45225e-16 0)
(3 1.3431e-16 0)
(3 -9.5115e-17 0)
(3 2.39501e-17 0)
(3 9.62531e-17 0)
(3 -1.1278e-16 0)
(3 4.45552e-16 0)
(3 9.1237e-16 0)
(3 8.33315e-16 0)
(3 5.63557e-16 0)
(3 6.61501e-16 0)
(3 1.66147e-15 0)
(3 1.93231e-15 0)
(3 2.70741e-15 0)
(3 1.61192e-15 0)
(3 3.35402e-16 0)
(3 -2.23729e-16 0)
(3 3.20702e-16 0)
(3 9.11427e-17 0)
(3 -6.16051e-16 0)
(3 -1.04276e-15 0)
(3 -1.57145e-15 0)
(3 -1.58781e-15 0)
(3 1.48757e-16 0)
(3 5.45562e-16 0)
(3 8.51777e-16 0)
(3 1.03097e-15 0)
(3 1.00468e-15 0)
(3 9.92653e-16 0)
(3 -7.23822e-17 0)
(3 -1.10984e-15 0)
(3 -1.89228e-15 0)
(3 -2.28051e-15 0)
(3 -1.32987e-15 0)
(3 -4.33501e-16 0)
(3 -1.76578e-16 0)
(3 1.05973e-15 0)
(3 1.49061e-15 0)
(3 1.60932e-15 0)
(3 1.5436e-15 0)
(3 1.51671e-15 0)
(3 1.08509e-15 0)
(3 5.59453e-16 0)
(3 -1.20994e-15 0)
(3 -9.99052e-16 0)
(3 -1.00789e-16 0)
(3 4.78603e-16 0)
(3 6.32104e-16 0)
(3 4.56868e-16 0)
(3 -7.13754e-16 0)
(3 -1.07018e-15 0)
(3 -1.72954e-15 0)
(3 -2.83106e-15 0)