/*--------------------------------*- C++ -*----------------------------------*\
  =========                 |
  \\      /  F ield         | OpenFOAM: The Open Source CFD Toolbox
   \\    /   O peration     | Website:  https://openfoam.org
    \\  /    A nd           | Version:  7
     \\/     M anipulation  |
\*---------------------------------------------------------------------------*/
FoamFile
{
    version     2.0;
    format      ascii;
    class       volVectorField;
    location    "2.9";
    object      U;
}
// * * * * * * * * * * * * * * * * * * * * * * * * * * * * * * * * * * * * * //

dimensions      [0 1 -1 0 0 0 0];

internalField   nonuniform List<vector> 
73728
(
(3 -1.41993e-16 0)
(3 -3.11591e-16 0)
(3 -2.36341e-16 0)
(3 -1.90105e-16 0)
(3 -2.92706e-16 0)
(3 -9.11824e-17 0)
(3 7.34882e-16 0)
(3 8.07053e-16 0)
(3 4.37294e-16 0)
(3 2.06724e-16 0)
(3 -1.21653e-15 0)
(3 -5.7532e-16 0)
(3 -4.2431e-16 0)
(3 -3.90604e-16 0)
(3 -6.37589e-16 0)
(3 -7.22539e-16 0)
(3 -1.23975e-16 0)
(3 1.09453e-15 0)
(3 1.17713e-15 0)
(3 8.73386e-16 0)
(3 1.90417e-16 0)
(3 -3.86088e-16 0)
(3 -3.67875e-16 0)
(3 -4.48634e-16 0)
(3 5.37172e-17 0)
(3 -3.53468e-16 0)
(3 -1.16492e-15 0)
(3 -1.18529e-15 0)
(3 -1.1026e-15 0)
(3 -1.26288e-15 0)
(3 -1.13145e-15 0)
(3 -1.00919e-15 0)
(3 -1.42406e-15 0)
(3 -1.38811e-15 0)
(3 -1.22468e-16 0)
(3 9.42581e-17 0)
(3 6.9697e-16 0)
(3 2.99042e-16 0)
(3 -4.82482e-16 0)
(3 -5.4727e-16 0)
(3 -9.83115e-16 0)
(3 -1.46865e-15 0)
(3 -1.87656e-15 0)
(3 -1.92099e-15 0)
(3 -1.32756e-15 0)
(3 -8.96717e-16 0)
(3 -1.01526e-15 0)
(3 -8.92161e-16 0)
(3 -3.9001e-16 0)
(3 -1.0105e-15 0)
(3 -9.50785e-16 0)
(3 -3.00816e-16 0)
(3 -3.62957e-16 0)
(3 -5.90338e-16 0)
(3 2.42068e-17 0)
(3 6.37792e-16 0)
(3 9.14965e-16 0)
(3 9.53195e-16 0)
(3 6.76521e-16 0)
(3 1.24817e-15 0)
(3 2.02515e-15 0)
(3 1.95018e-15 0)
(3 1.68161e-15 0)
(3 6.35405e-16 0)
(3 4.56827e-16 0)
(3 1.12363e-16 0)
(3 4.47321e-16 0)
(3 -4.30663e-16 0)
(3 -1.3486e-15 0)
(3 -1.42201e-15 0)
(3 -1.01218e-15 0)
(3 -2.52314e-16 0)
(3 2.12357e-16 0)
(3 6.18242e-16 0)
(3 4.85804e-16 0)
(3 -5.04281e-16 0)
(3 -1.80518e-16 0)
(3 1.0733e-15 0)
(3 1.19015e-15 0)
(3 1.52889e-15 0)
(3 1.86996e-15 0)
(3 1.13236e-15 0)
(3 -7.28042e-16 0)
(3 -8.17422e-16 0)
(3 -1.10749e-15 0)
(3 -1.50579e-15 0)
(3 -1.52568e-15 0)
(3 -1.45293e-15 0)
(3 -1.09168e-15 0)
(3 -7.82297e-16 0)
(3 -1.02718e-15 0)
(3 -1.17639e-15 0)
(3 -1.00396e-15 0)
(3 -8.93418e-16 0)
(3 -7.6527e-16 0)
(3 -6.29363e-16 0)
(3 -1.41268e-16 0)
(3 -3.29288e-16 0)
(3 -8.17331e-16 0)
(3 -7.70776e-16 0)
(3 7.79567e-17 0)
(3 6.31204e-16 0)
(3 8.9776e-16 0)
(3 6.59082e-16 0)
(3 4.4606e-16 0)
(3 5.87904e-16 0)
(3 3.8651e-16 0)
(3 3.43491e-16 0)
(3 -4.31489e-18 0)
(3 -4.86379e-16 0)
(3 -7.95577e-16 0)
(3 -7.8272e-16 0)
(3 7.23216e-16 0)
(3 1.23732e-15 0)
(3 8.17116e-16 0)
(3 1.32857e-16 0)
(3 -2.01728e-16 0)
(3 -5.20316e-16 0)
(3 -5.50742e-16 0)
(3 -7.13613e-16 0)
(3 -2.19016e-16 0)
(3 -4.51636e-16 0)
(3 -1.35605e-15 0)
(3 -1.34987e-15 0)
(3 -1.15528e-15 0)
(3 -1.1452e-15 0)
(3 -6.63677e-16 0)
(3 -4.76388e-16 0)
(3 -8.90968e-16 0)
(3 -9.27643e-16 0)
(3 -3.5619e-16 0)
(3 5.85796e-17 0)
(3 5.27876e-16 0)
(3 -4.11916e-16 0)
(3 -7.25171e-16 0)
(3 -2.50069e-16 0)
(3 -9.54458e-16 0)
(3 -1.17648e-15 0)
(3 -1.23553e-15 0)
(3 -1.19717e-15 0)
(3 -7.59651e-16 0)
(3 -6.33851e-16 0)
(3 -5.00307e-16 0)
(3 -1.77343e-16 0)
(3 7.00784e-16 0)
(3 1.52577e-17 0)
(3 1.80629e-16 0)
(3 6.01629e-16 0)
(3 5.52692e-16 0)
(3 2.90152e-16 0)
(3 4.46483e-17 0)
(3 5.25945e-16 0)
(3 1.44249e-15 0)
(3 1.74303e-15 0)
(3 2.38788e-15 0)
(3 2.30751e-15 0)
(3 1.49302e-15 0)
(3 1.58951e-15 0)
(3 1.8488e-15 0)
(3 5.80308e-16 0)
(3 -4.87341e-16 0)
(3 -4.8959e-16 0)
(3 4.33185e-16 0)
(3 -8.21742e-16 0)
(3 -1.42552e-15 0)
(3 -1.16438e-15 0)
(3 -3.96889e-16 0)
(3 -3.22206e-16 0)
(3 4.41295e-16 0)
(3 1.29824e-15 0)
(3 1.03734e-15 0)
(3 3.89603e-16 0)
(3 7.46801e-16 0)
(3 1.11762e-15 0)
(3 1.35273e-15 0)
(3 2.61629e-15 0)
(3 2.41124e-15 0)
(3 1.2815e-15 0)
(3 -1.74189e-16 0)
(3 -1.50889e-15 0)
(3 -1.88962e-15 0)
(3 -2.46199e-15 0)
(3 -2.76486e-15 0)
(3 -2.87048e-15 0)
(3 -1.87259e-15 0)
(3 -1.72752e-15 0)
(3 -1.78315e-15 0)
(3 -1.67642e-15 0)
(3 -1.43225e-15 0)
(3 -1.32679e-15 0)
(3 -4.94948e-16 0)
(3 -1.59487e-16 0)
(3 7.29203e-17 0)
(3 2.8342e-16 0)
(3 -5.85081e-17 0)
(3 -3.95293e-16 0)
(3 2.97448e-16 0)
(3 8.89075e-16 0)
(3 4.23678e-16 0)
(3 2.14875e-16 0)
(3 8.8386e-17 0)
(3 -8.34986e-19 0)
(3 4.53725e-16 0)
(3 4.42649e-16 0)
(3 1.31543e-17 0)
(3 1.11549e-16 0)
(3 6.26953e-16 0)
(3 9.56126e-16 0)
(3 5.51686e-16 0)
(3 -3.86077e-16 0)
(3 -9.14516e-16 0)
(3 -1.21255e-15 0)
(3 -1.10085e-15 0)
(3 -4.99261e-16 0)
(3 2.60426e-17 0)
(3 3.23604e-16 0)
(3 3.13176e-16 0)
(3 6.3057e-16 0)
(3 4.05253e-16 0)
(3 -1.50303e-16 0)
(3 -2.03827e-16 0)
(3 -8.6654e-17 0)
(3 -7.43282e-17 0)
(3 -6.32291e-16 0)
(3 -5.79942e-16 0)
(3 -3.4993e-16 0)
(3 -3.99621e-16 0)
(3 -2.86958e-16 0)
(3 -8.64201e-16 0)
(3 -6.99856e-16 0)
(3 -6.51378e-17 0)
(3 -3.92102e-17 0)
(3 -1.22535e-16 0)
(3 -5.10075e-16 0)
(3 -3.10306e-17 0)
(3 -1.08519e-16 0)
(3 3.25912e-16 0)
(3 4.99321e-16 0)
(3 -4.6254e-16 0)
(3 -6.60774e-16 0)
(3 -1.22023e-15 0)
(3 -8.19787e-16 0)
(3 -3.79007e-16 0)
(3 -7.28892e-16 0)
(3 4.26523e-16 0)
(3 6.96701e-16 0)
(3 3.76272e-16 0)
(3 8.40479e-16 0)
(3 1.83414e-15 0)
(3 2.6382e-15 0)
(3 3.78505e-15 0)
(3 3.69697e-15 0)
(3 2.37779e-15 0)
(3 1.65437e-15 0)
(3 6.78016e-16 0)
(3 -3.82166e-16 0)
(3 1.44557e-17 0)
(3 4.21852e-16 0)
(3 9.41292e-17 0)
(3 -1.26014e-15 0)
(3 -1.38062e-15 0)
(3 -6.70663e-17 0)
(3 4.84765e-16 0)
(3 4.43016e-16 0)
(3 -9.8506e-17 0)
(3 1.25984e-16 0)
(3 1.07467e-15 0)
(3 1.48789e-15 0)
(3 2.04795e-15 0)
(3 2.43164e-15 0)
(3 2.97193e-15 0)
(3 3.77851e-15 0)
(3 3.69573e-15 0)
(3 2.95976e-15 0)
(3 1.61415e-15 0)
(3 -1.01468e-15 0)
(3 -2.05609e-15 0)
(3 -2.20385e-15 0)
(3 -1.85655e-15 0)
(3 -1.96587e-15 0)
(3 -1.61176e-15 0)
(3 -5.83277e-16 0)
(3 -5.46757e-16 0)
(3 -4.76049e-16 0)
(3 -6.86295e-16 0)
(3 -6.83103e-16 0)
(3 1.157e-16 0)
(3 5.58479e-16 0)
(3 5.14002e-17 0)
(3 3.25041e-16 0)
(3 2.3127e-16 0)
(3 -4.93822e-16 0)
(3 -8.43526e-16 0)
(3 -5.14297e-16 0)
(3 -2.03228e-16 0)
(3 1.53578e-16 0)
(3 -3.9028e-16 0)
(3 -7.05864e-16 0)
(3 -6.99798e-16 0)
(3 -1.99562e-16 0)
(3 1.50226e-16 0)
(3 6.29356e-16 0)
(3 1.29248e-15 0)
(3 1.79824e-15 0)
(3 1.25474e-15 0)
(3 -2.51565e-16 0)
(3 -7.12333e-16 0)
(3 -7.31673e-16 0)
(3 -1.54782e-15 0)
(3 -1.32209e-15 0)
(3 -7.38261e-16 0)
(3 -1.16022e-16 0)
(3 -1.8383e-16 0)
(3 -3.4365e-16 0)
(3 -1.63012e-16 0)
(3 1.73413e-16 0)
(3 3.78638e-16 0)
(3 2.70801e-16 0)
(3 -5.25605e-16 0)
(3 -4.68245e-16 0)
(3 -8.58787e-16 0)
(3 -1.08753e-15 0)
(3 -7.27186e-16 0)
(3 -1.568e-16 0)
(3 -4.71986e-16 0)
(3 1.57822e-17 0)
(3 -2.40254e-16 0)
(3 -1.0561e-15 0)
(3 -9.8345e-16 0)
(3 -5.40837e-16 0)
(3 -1.03545e-15 0)
(3 -8.47828e-16 0)
(3 1.061e-16 0)
(3 4.45805e-18 0)
(3 -1.04003e-15 0)
(3 -1.99857e-15 0)
(3 -1.91475e-15 0)
(3 -1.34244e-15 0)
(3 -1.73244e-15 0)
(3 -1.87313e-15 0)
(3 -2.16978e-17 0)
(3 7.86386e-16 0)
(3 1.94969e-15 0)
(3 2.67346e-15 0)
(3 2.81991e-15 0)
(3 3.10907e-15 0)
(3 3.49046e-15 0)
(3 3.03748e-15 0)
(3 1.36306e-15 0)
(3 9.71105e-16 0)
(3 7.08914e-17 0)
(3 1.49739e-16 0)
(3 8.16124e-16 0)
(3 1.53046e-15 0)
(3 5.1114e-16 0)
(3 -2.13452e-16 0)
(3 1.81332e-17 0)
(3 9.24114e-16 0)
(3 6.88413e-16 0)
(3 8.42017e-16 0)
(3 4.8064e-16 0)
(3 2.65531e-16 0)
(3 7.94572e-16 0)
(3 1.51272e-15 0)
(3 1.32411e-15 0)
(3 1.10283e-15 0)
(3 2.29521e-15 0)
(3 2.70889e-15 0)
(3 2.77413e-15 0)
(3 2.94682e-15 0)
(3 2.47247e-15 0)
(3 1.20947e-15 0)
(3 5.25473e-16 0)
(3 -6.99767e-16 0)
(3 -1.00795e-15 0)
(3 -1.1387e-15 0)
(3 -1.18589e-15 0)
(3 -1.04514e-15 0)
(3 -1.0284e-15 0)
(3 -1.18304e-15 0)
(3 -1.37863e-15 0)
(3 -1.83933e-15 0)
(3 -1.52335e-15 0)
(3 -2.46415e-16 0)
(3 1.48392e-16 0)
(3 1.74117e-16 0)
(3 -9.27025e-17 0)
(3 -2.01613e-16 0)
(3 -3.17058e-16 0)
(3 -6.44741e-16 0)
(3 -3.12234e-16 0)
(3 -8.43812e-16 0)
(3 -1.32267e-15 0)
(3 -6.76772e-16 0)
(3 -1.23001e-16 0)
(3 5.79582e-16 0)
(3 6.19737e-16 0)
(3 6.83953e-17 0)
(3 6.67975e-17 0)
(3 1.10617e-15 0)
(3 1.23503e-15 0)
(3 6.06746e-16 0)
(3 -3.42225e-16 0)
(3 -8.63923e-16 0)
(3 -1.36837e-15 0)
(3 -1.4742e-15 0)
(3 -1.35261e-15 0)
(3 -1.15907e-15 0)
(3 -1.2564e-15 0)
(3 -1.2573e-15 0)
(3 -4.28505e-16 0)
(3 6.6648e-16 0)
(3 6.89791e-16 0)
(3 8.8018e-16 0)
(3 1.25412e-15 0)
(3 1.77967e-15 0)
(3 1.52486e-15 0)
(3 8.31741e-16 0)
(3 -3.4463e-16 0)
(3 -8.84823e-16 0)
(3 -1.55659e-15 0)
(3 -1.69971e-15 0)
(3 -2.77107e-15 0)
(3 -2.81595e-15 0)
(3 -2.22313e-15 0)
(3 -1.27857e-15 0)
(3 -1.28928e-15 0)
(3 -7.18263e-16 0)
(3 -4.05585e-16 0)
(3 -3.3095e-17 0)
(3 -6.54171e-17 0)
(3 -4.599e-16 0)
(3 -3.49953e-16 0)
(3 -9.66999e-16 0)
(3 -7.0244e-16 0)
(3 1.57811e-16 0)
(3 3.05474e-16 0)
(3 1.06355e-15 0)
(3 1.63025e-15 0)
(3 2.25172e-15 0)
(3 2.07371e-15 0)
(3 1.60541e-15 0)
(3 1.53601e-15 0)
(3 1.3681e-15 0)
(3 7.09326e-16 0)
(3 1.07061e-15 0)
(3 1.04445e-15 0)
(3 2.02178e-15 0)
(3 2.23806e-15 0)
(3 3.35439e-15 0)
(3 4.0219e-15 0)
(3 4.16927e-15 0)
(3 3.65498e-15 0)
(3 5.75636e-16 0)
(3 -1.6846e-15 0)
(3 -1.95547e-15 0)
(3 -8.55557e-16 0)
(3 1.40528e-15 0)
(3 2.84077e-15 0)
(3 3.91153e-15 0)
(3 3.19251e-15 0)
(3 -5.84975e-16 0)
(3 -8.67677e-16 0)
(3 -4.86442e-16 0)
(3 -3.4428e-16 0)
(3 -3.32701e-16 0)
(3 -5.56261e-16 0)
(3 -1.62075e-16 0)
(3 -4.32046e-16 0)
(3 -4.59084e-16 0)
(3 -8.24461e-16 0)
(3 -7.45958e-16 0)
(3 -9.98256e-16 0)
(3 -1.17264e-15 0)
(3 -1.36936e-15 0)
(3 -1.43448e-15 0)
(3 -1.69053e-15 0)
(3 -2.40518e-15 0)
(3 -1.78083e-15 0)
(3 -6.56918e-16 0)
(3 1.65957e-16 0)
(3 4.5004e-16 0)
(3 4.40644e-16 0)
(3 3.88865e-16 0)
(3 4.16388e-16 0)
(3 -4.74389e-16 0)
(3 -8.1036e-16 0)
(3 -1.49217e-15 0)
(3 -1.86488e-15 0)
(3 -1.87352e-15 0)
(3 -1.23616e-15 0)
(3 -8.4482e-16 0)
(3 3.87702e-16 0)
(3 6.61128e-16 0)
(3 7.65589e-16 0)
(3 1.18471e-15 0)
(3 1.40467e-15 0)
(3 1.08473e-15 0)
(3 8.75093e-16 0)
(3 6.02689e-16 0)
(3 1.69343e-16 0)
(3 -7.34347e-16 0)
(3 -6.04244e-16 0)
(3 -2.02206e-16 0)
(3 5.50178e-16 0)
(3 1.4337e-15 0)
(3 1.49862e-15 0)
(3 1.63775e-15 0)
(3 1.67381e-15 0)
(3 1.98567e-15 0)
(3 2.80103e-15 0)
(3 3.55899e-15 0)
(3 3.44409e-15 0)
(3 2.64454e-15 0)
(3 1.27569e-15 0)
(3 -9.86012e-16 0)
(3 -1.70705e-15 0)
(3 -2.8951e-15 0)
(3 -4.15296e-15 0)
(3 -4.00491e-15 0)
(3 -2.16919e-15 0)
(3 -6.73647e-16 0)
(3 -2.48445e-16 0)
(3 4.38936e-16 0)
(3 5.43505e-16 0)
(3 1.3153e-15 0)
(3 1.97229e-15 0)
(3 1.38068e-15 0)
(3 2.3594e-16 0)
(3 -1.43477e-15 0)
(3 -1.37108e-15 0)
(3 -9.14391e-16 0)
(3 -2.7931e-16 0)
(3 4.94722e-16 0)
(3 7.37834e-16 0)
(3 8.24113e-16 0)
(3 6.77637e-16 0)
(3 6.72943e-16 0)
(3 3.39899e-16 0)
(3 6.27264e-16 0)
(3 1.07537e-15 0)
(3 1.44283e-15 0)
(3 2.77508e-15 0)
(3 3.53242e-15 0)
(3 3.08238e-15 0)
(3 3.9642e-15 0)
(3 6.44786e-15 0)
(3 5.66311e-15 0)
(3 4.59543e-15 0)
(3 1.83347e-15 0)
(3 1.05131e-15 0)
(3 1.05044e-15 0)
(3 1.22949e-15 0)
(3 2.58888e-15 0)
(3 3.55903e-15 0)
(3 1.32748e-15 0)
(3 -2.72481e-16 0)
(3 -3.04103e-16 0)
(3 -2.30522e-16 0)
(3 -3.37334e-17 0)
(3 2.49993e-17 0)
(3 -4.46641e-16 0)
(3 -1.17917e-15 0)
(3 -1.66351e-15 0)
(3 -2.14074e-15 0)
(3 -1.65029e-15 0)
(3 -1.19965e-15 0)
(3 -9.65294e-16 0)
(3 -1.04991e-15 0)
(3 -2.04697e-15 0)
(3 -2.66171e-15 0)
(3 -2.39009e-15 0)
(3 -1.83752e-15 0)
(3 -9.44295e-16 0)
(3 -1.66791e-15 0)
(3 -1.36972e-15 0)
(3 -5.73014e-17 0)
(3 1.35209e-16 0)
(3 1.79103e-16 0)
(3 -1.18318e-16 0)
(3 -4.85928e-16 0)
(3 -4.53972e-16 0)
(3 -1.0273e-15 0)
(3 -1.21041e-15 0)
(3 -1.137e-15 0)
(3 -1.22527e-15 0)
(3 -1.4131e-15 0)
(3 -1.82538e-15 0)
(3 -1.05645e-15 0)
(3 -6.87224e-18 0)
(3 1.24169e-15 0)
(3 1.50748e-15 0)
(3 1.56771e-15 0)
(3 2.13155e-15 0)
(3 2.03769e-15 0)
(3 2.67334e-15 0)
(3 2.82021e-15 0)
(3 1.35017e-16 0)
(3 2.02623e-16 0)
(3 1.17781e-15 0)
(3 2.48404e-15 0)
(3 2.59543e-15 0)
(3 2.51463e-15 0)
(3 1.89724e-15 0)
(3 1.89487e-15 0)
(3 2.28703e-15 0)
(3 2.99758e-15 0)
(3 3.52305e-15 0)
(3 2.0563e-15 0)
(3 9.27438e-16 0)
(3 4.99996e-16 0)
(3 -7.5871e-16 0)
(3 -2.17754e-15 0)
(3 -2.43884e-15 0)
(3 -2.58891e-15 0)
(3 -2.87443e-15 0)
(3 -2.09674e-15 0)
(3 -1.01358e-15 0)
(3 2.29351e-16 0)
(3 2.89299e-16 0)
(3 2.59659e-16 0)
(3 6.67521e-16 0)
(3 9.4839e-16 0)
(3 3.47579e-16 0)
(3 -1.7169e-16 0)
(3 -1.6437e-15 0)
(3 -2.06028e-15 0)
(3 -2.22011e-15 0)
(3 -1.25849e-15 0)
(3 -9.2764e-16 0)
(3 -9.49127e-16 0)
(3 -1.26706e-15 0)
(3 -1.29129e-15 0)
(3 -7.94693e-16 0)
(3 -4.70633e-16 0)
(3 6.48794e-16 0)
(3 1.73332e-15 0)
(3 2.27557e-15 0)
(3 2.92251e-15 0)
(3 3.46653e-15 0)
(3 3.8042e-15 0)
(3 4.5152e-15 0)
(3 5.02728e-15 0)
(3 5.53528e-15 0)
(3 5.91152e-15 0)
(3 6.2141e-15 0)
(3 5.88108e-15 0)
(3 4.94422e-15 0)
(3 3.44073e-15 0)
(3 1.76295e-15 0)
(3 1.43212e-16 0)
(3 -2.2916e-15 0)
(3 -2.45747e-15 0)
(3 -1.44894e-15 0)
(3 -9.21735e-16 0)
(3 -9.92626e-16 0)
(3 -1.49457e-15 0)
(3 -1.99388e-15 0)
(3 -2.19921e-15 0)
(3 -2.02386e-15 0)
(3 -1.8238e-15 0)
(3 -1.28696e-15 0)
(3 -1.09291e-15 0)
(3 -4.54924e-16 0)
(3 -1.21548e-15 0)
(3 -3.2571e-15 0)
(3 -3.74195e-15 0)
(3 -3.00519e-15 0)
(3 -1.05864e-15 0)
(3 6.2656e-17 0)
(3 -1.05155e-15 0)
(3 -2.3069e-15 0)
(3 -2.33416e-16 0)
(3 -6.68748e-16 0)
(3 -6.45918e-16 0)
(3 -3.90625e-16 0)
(3 3.80655e-16 0)
(3 6.4719e-16 0)
(3 2.2556e-16 0)
(3 1.70771e-16 0)
(3 1.1801e-16 0)
(3 -9.3617e-16 0)
(3 -1.15618e-15 0)
(3 -8.9345e-16 0)
(3 -5.45294e-16 0)
(3 2.78461e-16 0)
(3 9.69001e-16 0)
(3 1.36288e-15 0)
(3 8.6037e-16 0)
(3 6.01442e-16 0)
(3 1.53452e-15 0)
(3 1.82398e-15 0)
(3 1.70465e-15 0)
(3 8.90784e-16 0)
(3 4.2361e-16 0)
(3 4.26368e-16 0)
(3 5.36266e-16 0)
(3 2.33293e-16 0)
(3 3.0173e-16 0)
(3 2.93812e-16 0)
(3 6.00335e-16 0)
(3 8.52301e-16 0)
(3 1.03411e-15 0)
(3 5.63964e-16 0)
(3 -1.62955e-16 0)
(3 -1.37919e-16 0)
(3 4.12512e-16 0)
(3 2.60523e-16 0)
(3 -6.81884e-16 0)
(3 -1.10909e-15 0)
(3 -4.81723e-16 0)
(3 -2.55168e-16 0)
(3 -2.236e-16 0)
(3 5.33411e-17 0)
(3 1.6479e-16 0)
(3 -8.49589e-16 0)
(3 -1.64918e-15 0)
(3 -1.35951e-15 0)
(3 -1.21634e-15 0)
(3 -1.33324e-15 0)
(3 -1.71317e-15 0)
(3 -1.57075e-15 0)
(3 -2.34769e-15 0)
(3 -2.87836e-15 0)
(3 -2.50212e-15 0)
(3 -1.47453e-15 0)
(3 -1.04497e-15 0)
(3 -9.34535e-16 0)
(3 -7.65417e-16 0)
(3 -9.36785e-16 0)
(3 -1.67508e-15 0)
(3 -3.07212e-16 0)
(3 1.24266e-15 0)
(3 1.22053e-15 0)
(3 1.65472e-15 0)
(3 1.7281e-15 0)
(3 2.05973e-15 0)
(3 1.78694e-15 0)
(3 1.72494e-15 0)
(3 2.77421e-15 0)
(3 5.11925e-15 0)
(3 6.19446e-15 0)
(3 5.44809e-15 0)
(3 4.61473e-15 0)
(3 4.14843e-15 0)
(3 2.37665e-15 0)
(3 -7.74273e-16 0)
(3 -1.30397e-15 0)
(3 -1.48339e-15 0)
(3 -2.14914e-15 0)
(3 -2.89408e-15 0)
(3 -3.37796e-15 0)
(3 -3.33692e-15 0)
(3 -3.19295e-15 0)
(3 -1.93724e-15 0)
(3 -7.91754e-16 0)
(3 -8.16875e-16 0)
(3 -1.70879e-15 0)
(3 -2.4019e-15 0)
(3 -2.88843e-15 0)
(3 -3.4279e-15 0)
(3 -3.16026e-15 0)
(3 -2.84021e-15 0)
(3 -2.48487e-15 0)
(3 -2.1326e-15 0)
(3 -1.86575e-15 0)
(3 -1.12249e-15 0)
(3 -1.88444e-15 0)
(3 7.94527e-17 0)
(3 -9.52338e-17 0)
(3 -1.06715e-16 0)
(3 8.08571e-17 0)
(3 5.46344e-16 0)
(3 2.44527e-16 0)
(3 6.4565e-16 0)
(3 9.01146e-16 0)
(3 4.29108e-16 0)
(3 -7.98147e-17 0)
(3 6.41998e-17 0)
(3 5.77927e-16 0)
(3 5.93134e-16 0)
(3 1.10186e-15 0)
(3 1.25188e-15 0)
(3 8.89813e-16 0)
(3 7.85802e-17 0)
(3 2.13917e-16 0)
(3 7.10203e-16 0)
(3 3.63038e-16 0)
(3 4.27767e-16 0)
(3 5.37451e-16 0)
(3 2.53851e-16 0)
(3 -5.2605e-16 0)
(3 -7.46312e-16 0)
(3 -3.91373e-16 0)
(3 9.2503e-17 0)
(3 1.18778e-15 0)
(3 1.25607e-15 0)
(3 9.30437e-16 0)
(3 4.25474e-16 0)
(3 4.62109e-16 0)
(3 4.22496e-16 0)
(3 3.45167e-16 0)
(3 9.68436e-16 0)
(3 1.51859e-15 0)
(3 1.57265e-15 0)
(3 1.06048e-15 0)
(3 1.32557e-15 0)
(3 1.40015e-15 0)
(3 8.80748e-16 0)
(3 5.68307e-16 0)
(3 2.88184e-16 0)
(3 4.16563e-16 0)
(3 2.35505e-17 0)
(3 5.69421e-17 0)
(3 3.94742e-16 0)
(3 5.30841e-16 0)
(3 1.01856e-16 0)
(3 -6.44077e-16 0)
(3 -1.08882e-15 0)
(3 -1.02911e-15 0)
(3 -1.63279e-15 0)
(3 -1.87208e-15 0)
(3 -1.84837e-15 0)
(3 -9.43131e-16 0)
(3 -1.73304e-15 0)
(3 -3.41676e-15 0)
(3 -4.01002e-15 0)
(3 -3.77387e-15 0)
(3 -2.78969e-15 0)
(3 -2.063e-15 0)
(3 -1.91735e-15 0)
(3 -1.6243e-15 0)
(3 -3.77634e-16 0)
(3 1.18027e-15 0)
(3 1.20394e-15 0)
(3 1.39251e-15 0)
(3 2.727e-15 0)
(3 3.14621e-15 0)
(3 1.98869e-15 0)
(3 1.3061e-15 0)
(3 1.14045e-15 0)
(3 8.45526e-16 0)
(3 7.90166e-16 0)
(3 4.87293e-16 0)
(3 -2.51499e-16 0)
(3 -1.26655e-15 0)
(3 -2.73256e-15 0)
(3 -3.32514e-15 0)
(3 -3.90959e-15 0)
(3 -2.84015e-15 0)
(3 -2.52972e-15 0)
(3 -2.87147e-15 0)
(3 -2.50924e-15 0)
(3 -2.20638e-15 0)
(3 -1.93189e-15 0)
(3 -1.65789e-15 0)
(3 -1.70775e-15 0)
(3 -1.31506e-15 0)
(3 -3.65931e-16 0)
(3 -2.96848e-16 0)
(3 -8.22007e-16 0)
(3 -1.37885e-15 0)
(3 -1.4035e-15 0)
(3 -1.3521e-15 0)
(3 2.84143e-17 0)
(3 3.55893e-16 0)
(3 2.73807e-16 0)
(3 1.40547e-17 0)
(3 -3.1756e-16 0)
(3 -1.71759e-16 0)
(3 2.59483e-16 0)
(3 1.0202e-15 0)
(3 1.43986e-15 0)
(3 1.63485e-15 0)
(3 1.59364e-15 0)
(3 1.42811e-15 0)
(3 6.92895e-16 0)
(3 7.6219e-16 0)
(3 1.61397e-16 0)
(3 -3.09065e-16 0)
(3 2.00116e-17 0)
(3 9.14205e-16 0)
(3 8.43118e-16 0)
(3 4.67701e-16 0)
(3 3.94954e-16 0)
(3 6.00618e-16 0)
(3 3.20535e-16 0)
(3 -9.41131e-16 0)
(3 -6.71049e-16 0)
(3 7.29047e-17 0)
(3 1.83003e-15 0)
(3 2.83323e-15 0)
(3 2.81377e-15 0)
(3 2.80196e-15 0)
(3 2.57198e-15 0)
(3 2.36973e-15 0)
(3 2.30293e-15 0)
(3 2.43841e-15 0)
(3 1.9138e-15 0)
(3 1.11557e-15 0)
(3 1.29495e-15 0)
(3 1.39773e-15 0)
(3 8.38377e-16 0)
(3 5.97656e-16 0)
(3 -3.71387e-17 0)
(3 -1.00522e-15 0)
(3 -6.58496e-16 0)
(3 -4.11181e-16 0)
(3 -1.12908e-16 0)
(3 -3.05858e-16 0)
(3 3.55993e-16 0)
(3 1.38001e-15 0)
(3 1.50064e-15 0)
(3 1.2804e-15 0)
(3 9.13995e-16 0)
(3 1.07095e-15 0)
(3 3.94556e-16 0)
(3 -3.73181e-16 0)
(3 -4.48273e-16 0)
(3 -4.44343e-16 0)
(3 -1.62805e-15 0)
(3 -1.82266e-15 0)
(3 -1.59319e-15 0)
(3 -1.38884e-15 0)
(3 -1.32622e-15 0)
(3 -9.74082e-16 0)
(3 -5.87567e-16 0)
(3 -3.93133e-16 0)
(3 9.23337e-17 0)
(3 6.9342e-16 0)
(3 2.46371e-16 0)
(3 -7.1765e-16 0)
(3 -1.03489e-15 0)
(3 -8.00881e-16 0)
(3 -1.54623e-15 0)
(3 -1.18757e-15 0)
(3 -7.349e-16 0)
(3 -3.85162e-16 0)
(3 -4.63585e-17 0)
(3 -2.06886e-16 0)
(3 -9.28907e-16 0)
(3 -1.24699e-15 0)
(3 -1.69489e-15 0)
(3 -2.09657e-15 0)
(3 -2.76372e-15 0)
(3 -3.25149e-15 0)
(3 -3.82894e-15 0)
(3 -3.88911e-15 0)
(3 -3.62927e-15 0)
(3 -2.53562e-15 0)
(3 -1.55122e-15 0)
(3 -4.27046e-16 0)
(3 -1.78597e-16 0)
(3 1.20459e-15 0)
(3 2.33336e-15 0)
(3 2.14818e-15 0)
(3 1.44027e-15 0)
(3 2.42269e-16 0)
(3 -4.40553e-16 0)
(3 1.74654e-17 0)
(3 -2.05968e-16 0)
(3 -5.83145e-16 0)
(3 -5.61127e-16 0)
(3 -1.67048e-16 0)
(3 4.97037e-16 0)
(3 7.88548e-16 0)
(3 5.31413e-16 0)
(3 6.34602e-16 0)
(3 9.41915e-16 0)
(3 7.11026e-16 0)
(3 3.77104e-16 0)
(3 -2.64259e-17 0)
(3 -1.18767e-16 0)
(3 5.47303e-16 0)
(3 2.81703e-16 0)
(3 1.76332e-16 0)
(3 5.24492e-16 0)
(3 7.33439e-16 0)
(3 9.91332e-16 0)
(3 1.21845e-15 0)
(3 1.1444e-15 0)
(3 6.76146e-16 0)
(3 2.30571e-16 0)
(3 -6.95855e-16 0)
(3 -5.11129e-16 0)
(3 4.41462e-16 0)
(3 9.80993e-16 0)
(3 1.47646e-15 0)
(3 1.8138e-15 0)
(3 1.59594e-15 0)
(3 1.29701e-15 0)
(3 1.0415e-15 0)
(3 1.627e-15 0)
(3 2.50532e-15 0)
(3 2.32493e-15 0)
(3 1.66831e-15 0)
(3 7.6383e-16 0)
(3 7.22006e-17 0)
(3 -5.644e-16 0)
(3 -3.8389e-16 0)
(3 -1.12833e-17 0)
(3 -3.40984e-16 0)
(3 -1.29823e-15 0)
(3 -1.30597e-15 0)
(3 -7.62522e-16 0)
(3 -1.3591e-16 0)
(3 9.46368e-17 0)
(3 3.7152e-16 0)
(3 1.31431e-15 0)
(3 1.70125e-15 0)
(3 1.81753e-15 0)
(3 2.03109e-15 0)
(3 1.79823e-15 0)
(3 1.71631e-15 0)
(3 8.9746e-16 0)
(3 -1.46318e-16 0)
(3 -6.78175e-16 0)
(3 -8.30532e-16 0)
(3 -7.46576e-16 0)
(3 -2.04371e-16 0)
(3 2.00869e-16 0)
(3 3.23668e-16 0)
(3 5.41403e-16 0)
(3 3.24226e-16 0)
(3 -4.20108e-16 0)
(3 1.4407e-16 0)
(3 3.5528e-16 0)
(3 1.1165e-16 0)
(3 -1.30775e-15 0)
(3 -2.35556e-15 0)
(3 -1.26822e-15 0)
(3 -3.13005e-16 0)
(3 7.703e-16 0)
(3 4.88019e-16 0)
(3 3.83927e-16 0)
(3 1.56535e-16 0)
(3 2.47486e-16 0)
(3 -1.65624e-16 0)
(3 -2.8924e-15 0)
(3 -2.79381e-15 0)
(3 -2.37944e-15 0)
(3 -2.37803e-15 0)
(3 -1.09281e-15 0)
(3 -9.1489e-16 0)
(3 -1.01483e-15 0)
(3 -3.88665e-16 0)
(3 4.85691e-16 0)
(3 2.39099e-17 0)
(3 1.96496e-16 0)
(3 9.53738e-16 0)
(3 1.55358e-15 0)
(3 1.69619e-15 0)
(3 1.56874e-15 0)
(3 1.42514e-15 0)
(3 1.16783e-15 0)
(3 5.36089e-16 0)
(3 6.96029e-17 0)
(3 -4.96594e-16 0)
(3 -5.16969e-16 0)
(3 7.20882e-18 0)
(3 1.22194e-16 0)
(3 2.66835e-17 0)
(3 3.29543e-16 0)
(3 5.95209e-16 0)
(3 2.40304e-16 0)
(3 9.05517e-17 0)
(3 3.23202e-17 0)
(3 -2.35765e-16 0)
(3 -1.81716e-16 0)
(3 3.46811e-16 0)
(3 1.11608e-15 0)
(3 1.01645e-15 0)
(3 2.46764e-16 0)
(3 -1.40907e-16 0)
(3 2.19894e-16 0)
(3 4.90751e-16 0)
(3 3.55138e-16 0)
(3 6.01904e-16 0)
(3 1.04793e-15 0)
(3 1.27292e-15 0)
(3 1.18436e-15 0)
(3 1.0253e-15 0)
(3 4.96708e-16 0)
(3 2.3552e-16 0)
(3 1.20693e-15 0)
(3 1.29445e-15 0)
(3 4.6501e-16 0)
(3 -8.1549e-16 0)
(3 -1.11563e-15 0)
(3 6.26199e-16 0)
(3 1.63334e-15 0)
(3 1.56068e-15 0)
(3 9.88909e-16 0)
(3 -2.44321e-16 0)
(3 -1.56727e-15 0)
(3 -1.86416e-15 0)
(3 -7.99819e-16 0)
(3 4.68699e-16 0)
(3 7.41997e-16 0)
(3 1.17998e-15 0)
(3 1.58975e-15 0)
(3 1.80651e-15 0)
(3 1.58452e-15 0)
(3 4.23387e-16 0)
(3 4.07637e-16 0)
(3 4.9995e-16 0)
(3 1.32422e-15 0)
(3 1.09953e-15 0)
(3 4.26091e-16 0)
(3 4.58283e-16 0)
(3 -3.67835e-16 0)
(3 -1.17566e-15 0)
(3 -1.66345e-15 0)
(3 -1.76001e-15 0)
(3 -1.4473e-15 0)
(3 -1.24782e-15 0)
(3 -9.1517e-16 0)
(3 -6.20186e-16 0)
(3 -4.53419e-16 0)
(3 -3.40633e-16 0)
(3 4.75607e-16 0)
(3 8.07642e-16 0)
(3 7.09203e-16 0)
(3 -2.08025e-16 0)
(3 -8.90074e-16 0)
(3 -1.16874e-15 0)
(3 -1.49607e-15 0)
(3 -2.20983e-15 0)
(3 -2.33008e-15 0)
(3 -1.14913e-15 0)
(3 -9.20949e-16 0)
(3 -1.93346e-16 0)
(3 1.85226e-16 0)
(3 -2.22548e-16 0)
(3 -2.04953e-15 0)
(3 -1.47644e-15 0)
(3 -9.56733e-17 0)
(3 3.65308e-16 0)
(3 -1.85108e-15 0)
(3 -1.50813e-15 0)
(3 -1.48158e-15 0)
(3 -1.56804e-15 0)
(3 -1.3911e-15 0)
(3 -8.54433e-16 0)
(3 -2.23878e-17 0)
(3 3.93738e-17 0)
(3 -5.39878e-16 0)
(3 -7.57596e-16 0)
(3 -2.35993e-16 0)
(3 -7.91371e-17 0)
(3 4.11951e-16 0)
(3 4.50355e-16 0)
(3 -1.38807e-17 0)
(3 1.45628e-19 0)
(3 7.49004e-17 0)
(3 4.44801e-17 0)
(3 -2.63309e-16 0)
(3 -3.61295e-16 0)
(3 3.87245e-16 0)
(3 8.16471e-16 0)
(3 1.57048e-15 0)
(3 1.84156e-15 0)
(3 1.75393e-15 0)
(3 1.26472e-15 0)
(3 9.43438e-16 0)
(3 6.96224e-16 0)
(3 7.54039e-16 0)
(3 -4.80774e-16 0)
(3 -8.04116e-16 0)
(3 -1.19831e-15 0)
(3 -1.34138e-15 0)
(3 -7.87451e-16 0)
(3 -6.74059e-16 0)
(3 -2.39056e-16 0)
(3 1.29063e-15 0)
(3 2.06219e-15 0)
(3 1.53715e-15 0)
(3 1.1943e-15 0)
(3 6.68695e-16 0)
(3 3.29657e-16 0)
(3 7.11541e-17 0)
(3 4.26194e-16 0)
(3 -8.63184e-17 0)
(3 -1.22001e-15 0)
(3 -1.10493e-15 0)
(3 -5.47823e-17 0)
(3 1.22098e-15 0)
(3 2.23827e-15 0)
(3 2.21437e-15 0)
(3 1.49234e-15 0)
(3 1.70648e-15 0)
(3 6.96163e-16 0)
(3 6.18708e-16 0)
(3 7.91656e-16 0)
(3 1.08928e-15 0)
(3 1.08663e-15 0)
(3 1.68349e-15 0)
(3 1.90087e-15 0)
(3 2.34227e-15 0)
(3 1.72562e-15 0)
(3 2.10926e-16 0)
(3 1.26496e-17 0)
(3 3.95329e-16 0)
(3 3.69796e-17 0)
(3 -4.84227e-16 0)
(3 -9.42341e-16 0)
(3 -1.58917e-15 0)
(3 -1.8692e-15 0)
(3 -2.16712e-15 0)
(3 -1.81128e-15 0)
(3 -1.45507e-15 0)
(3 -1.22515e-15 0)
(3 -1.13686e-15 0)
(3 -1.03744e-15 0)
(3 -8.80539e-16 0)
(3 3.29311e-17 0)
(3 1.48464e-15 0)
(3 1.30777e-15 0)
(3 3.65911e-16 0)
(3 -5.54794e-16 0)
(3 -8.92098e-16 0)
(3 -1.22122e-15 0)
(3 -1.56773e-15 0)
(3 -2.5309e-15 0)
(3 -3.10486e-15 0)
(3 -2.89871e-15 0)
(3 -2.54435e-15 0)
(3 -2.56749e-15 0)
(3 -3.01406e-15 0)
(3 -2.35249e-15 0)
(3 -1.2437e-15 0)
(3 -2.41548e-16 0)
(3 -3.29373e-16 0)
(3 -1.065e-15 0)
(3 -1.91072e-15 0)
(3 -1.56927e-15 0)
(3 -6.51929e-16 0)
(3 -8.78351e-16 0)
(3 -9.98642e-16 0)
(3 -4.71328e-17 0)
(3 -5.38162e-16 0)
(3 -6.6515e-16 0)
(3 -2.38619e-16 0)
(3 4.14196e-16 0)
(3 4.18293e-16 0)
(3 -2.07033e-16 0)
(3 1.42091e-17 0)
(3 3.63783e-16 0)
(3 -6.73256e-17 0)
(3 2.2365e-16 0)
(3 5.55391e-16 0)
(3 9.71345e-16 0)
(3 6.02513e-16 0)
(3 2.17966e-16 0)
(3 -1.5518e-17 0)
(3 3.33148e-16 0)
(3 1.05626e-15 0)
(3 1.83793e-15 0)
(3 2.48751e-15 0)
(3 2.65917e-15 0)
(3 2.15683e-15 0)
(3 5.61899e-16 0)
(3 -2.81233e-16 0)
(3 -2.37621e-16 0)
(3 -8.85227e-16 0)
(3 -1.57097e-15 0)
(3 -1.37129e-15 0)
(3 -1.39211e-17 0)
(3 6.19676e-16 0)
(3 1.48042e-16 0)
(3 7.06745e-16 0)
(3 1.90411e-15 0)
(3 2.24416e-15 0)
(3 1.85691e-15 0)
(3 1.40683e-15 0)
(3 8.77069e-16 0)
(3 6.55709e-17 0)
(3 -5.81785e-16 0)
(3 -4.41256e-16 0)
(3 -6.72067e-16 0)
(3 3.01562e-16 0)
(3 2.81637e-16 0)
(3 2.45422e-16 0)
(3 1.04259e-15 0)
(3 7.47601e-16 0)
(3 1.76565e-15 0)
(3 3.10393e-15 0)
(3 3.74905e-15 0)
(3 3.62134e-15 0)
(3 3.2803e-15 0)
(3 2.7981e-15 0)
(3 1.98197e-15 0)
(3 9.56574e-16 0)
(3 7.64864e-16 0)
(3 1.93512e-15 0)
(3 2.72865e-15 0)
(3 1.74246e-15 0)
(3 1.16397e-15 0)
(3 4.3104e-16 0)
(3 1.34232e-16 0)
(3 -7.18692e-16 0)
(3 -2.47918e-15 0)
(3 -3.20843e-15 0)
(3 -2.93702e-15 0)
(3 -1.75525e-15 0)
(3 -1.08791e-15 0)
(3 -7.68018e-16 0)
(3 -4.96567e-16 0)
(3 -4.30616e-16 0)
(3 -2.41865e-16 0)
(3 -2.61957e-17 0)
(3 2.90534e-16 0)
(3 3.57803e-16 0)
(3 8.59454e-17 0)
(3 6.22645e-16 0)
(3 7.87713e-16 0)
(3 4.13532e-16 0)
(3 -4.20571e-16 0)
(3 -1.93744e-15 0)
(3 -2.31519e-15 0)
(3 -2.02527e-15 0)
(3 -1.84314e-15 0)
(3 -1.0488e-15 0)
(3 -1.28641e-15 0)
(3 -2.5281e-15 0)
(3 -2.39849e-15 0)
(3 -1.62021e-15 0)
(3 -1.54337e-15 0)
(3 -1.65473e-15 0)
(3 -1.9069e-15 0)
(3 -2.00096e-15 0)
(3 -2.25372e-15 0)
(3 -2.45666e-15 0)
(3 -2.32707e-15 0)
(3 -2.34882e-15 0)
(3 -2.09468e-15 0)
(3 -1.88079e-15 0)
(3 -1.40523e-15 0)
(3 -4.39909e-16 0)
(3 -3.39067e-16 0)
(3 -6.48949e-16 0)
(3 -9.35872e-16 0)
(3 4.20045e-16 0)
(3 7.87037e-16 0)
(3 2.1982e-16 0)
(3 8.38114e-16 0)
(3 1.28609e-15 0)
(3 8.08053e-16 0)
(3 3.66631e-16 0)
(3 -4.57905e-16 0)
(3 -8.56675e-16 0)
(3 -4.14633e-16 0)
(3 -1.58048e-17 0)
(3 2.58351e-16 0)
(3 6.66091e-17 0)
(3 3.41913e-17 0)
(3 -1.66999e-16 0)
(3 -3.94776e-16 0)
(3 -6.30674e-16 0)
(3 -6.76264e-16 0)
(3 -1.08764e-15 0)
(3 -9.50734e-16 0)
(3 -1.08839e-15 0)
(3 1.38851e-16 0)
(3 2.12065e-15 0)
(3 2.84621e-15 0)
(3 2.86786e-15 0)
(3 3.21065e-15 0)
(3 3.74391e-15 0)
(3 3.15421e-15 0)
(3 2.00889e-15 0)
(3 4.28437e-16 0)
(3 -1.19085e-17 0)
(3 -1.48592e-17 0)
(3 -1.87421e-17 0)
(3 -5.42913e-16 0)
(3 2.7968e-18 0)
(3 -1.23386e-16 0)
(3 -3.77639e-16 0)
(3 -7.17065e-16 0)
(3 -6.57561e-16 0)
(3 2.30911e-16 0)
(3 1.20913e-15 0)
(3 2.13004e-15 0)
(3 2.43423e-15 0)
(3 1.89417e-15 0)
(3 1.24433e-15 0)
(3 1.86198e-16 0)
(3 -2.15909e-16 0)
(3 -3.40698e-16 0)
(3 1.91234e-16 0)
(3 2.36176e-16 0)
(3 -3.77752e-16 0)
(3 -1.40819e-15 0)
(3 -2.4126e-15 0)
(3 -2.30233e-15 0)
(3 -2.44303e-15 0)
(3 -2.06008e-15 0)
(3 -2.06401e-15 0)
(3 -1.52106e-15 0)
(3 -9.39341e-16 0)
(3 2.58364e-16 0)
(3 1.59695e-16 0)
(3 -9.91649e-17 0)
(3 -1.01189e-16 0)
(3 4.2556e-16 0)
(3 8.30731e-16 0)
(3 4.28656e-16 0)
(3 2.16448e-16 0)
(3 -1.38613e-17 0)
(3 -5.24223e-17 0)
(3 -1.60909e-16 0)
(3 -4.20128e-16 0)
(3 -1.47128e-15 0)
(3 -2.28227e-15 0)
(3 -2.72143e-15 0)
(3 -1.06702e-15 0)
(3 1.52735e-16 0)
(3 7.65372e-18 0)
(3 2.2686e-17 0)
(3 8.28001e-17 0)
(3 -5.75258e-16 0)
(3 -5.96055e-16 0)
(3 -6.05919e-16 0)
(3 -6.90746e-16 0)
(3 -1.28941e-15 0)
(3 -1.84869e-15 0)
(3 -2.17746e-15 0)
(3 -2.73257e-15 0)
(3 -3.2379e-15 0)
(3 -3.05293e-15 0)
(3 -2.65371e-15 0)
(3 -2.28323e-15 0)
(3 -1.54958e-15 0)
(3 3.49295e-17 0)
(3 1.81844e-16 0)
(3 -2.88677e-16 0)
(3 -6.14906e-16 0)
(3 -1.18149e-15 0)
(3 -1.75647e-15 0)
(3 9.96506e-17 0)
(3 6.04693e-16 0)
(3 3.89905e-16 0)
(3 1.31113e-16 0)
(3 1.4005e-16 0)
(3 4.35737e-17 0)
(3 -1.05665e-16 0)
(3 -2.51801e-16 0)
(3 -2.825e-16 0)
(3 2.18417e-17 0)
(3 -3.0615e-16 0)
(3 -3.85758e-16 0)
(3 -4.81194e-16 0)
(3 -5.19974e-16 0)
(3 -1.222e-15 0)
(3 -1.40753e-15 0)
(3 -1.10764e-15 0)
(3 -4.29735e-16 0)
(3 -5.50775e-16 0)
(3 -3.92256e-16 0)
(3 7.99173e-16 0)
(3 2.03738e-15 0)
(3 2.87458e-15 0)
(3 1.83369e-15 0)
(3 1.53416e-15 0)
(3 8.56011e-16 0)
(3 8.879e-16 0)
(3 -4.07628e-16 0)
(3 -9.82779e-16 0)
(3 -9.40469e-16 0)
(3 -6.31085e-16 0)
(3 -9.35082e-17 0)
(3 -5.16147e-16 0)
(3 -6.53331e-16 0)
(3 -6.31613e-16 0)
(3 -5.03403e-16 0)
(3 9.56547e-16 0)
(3 7.60335e-16 0)
(3 9.0799e-16 0)
(3 1.19578e-15 0)
(3 1.49028e-15 0)
(3 1.30588e-15 0)
(3 9.59036e-16 0)
(3 7.32605e-16 0)
(3 2.13682e-16 0)
(3 -1.10238e-15 0)
(3 -1.37285e-15 0)
(3 -2.15701e-15 0)
(3 -3.22564e-15 0)
(3 -3.62437e-15 0)
(3 -2.6561e-15 0)
(3 -3.90334e-15 0)
(3 -2.98717e-15 0)
(3 -9.02967e-16 0)
(3 4.02917e-16 0)
(3 6.87665e-16 0)
(3 5.45675e-16 0)
(3 4.38466e-16 0)
(3 -5.55268e-16 0)
(3 -6.79993e-16 0)
(3 -3.43735e-16 0)
(3 -5.29154e-16 0)
(3 -2.17786e-16 0)
(3 -4.64758e-17 0)
(3 -1.94303e-16 0)
(3 -2.34013e-16 0)
(3 -9.69851e-16 0)
(3 -1.7969e-15 0)
(3 -1.86841e-15 0)
(3 -1.02429e-15 0)
(3 -8.67879e-16 0)
(3 6.25401e-16 0)
(3 8.19142e-16 0)
(3 5.20218e-16 0)
(3 1.14217e-16 0)
(3 -2.74488e-16 0)
(3 -2.23575e-16 0)
(3 -1.4221e-15 0)
(3 -1.26156e-15 0)
(3 -7.48423e-16 0)
(3 -4.24493e-16 0)
(3 -9.89762e-16 0)
(3 -1.24503e-15 0)
(3 -1.00946e-15 0)
(3 -1.19029e-15 0)
(3 -1.55878e-15 0)
(3 -1.65553e-15 0)
(3 -1.65077e-15 0)
(3 -1.41482e-15 0)
(3 -1.54886e-15 0)
(3 -1.45725e-15 0)
(3 -1.13888e-15 0)
(3 -1.50693e-15 0)
(3 -2.06197e-15 0)
(3 -2.39079e-15 0)
(3 -2.49809e-15 0)
(3 -2.66534e-17 0)
(3 3.49264e-16 0)
(3 1.71366e-16 0)
(3 -1.3535e-16 0)
(3 -1.37693e-16 0)
(3 5.4553e-16 0)
(3 7.27825e-16 0)
(3 3.55577e-16 0)
(3 -4.7697e-16 0)
(3 -3.82708e-16 0)
(3 4.67855e-16 0)
(3 2.06883e-17 0)
(3 -3.95851e-16 0)
(3 -7.01604e-16 0)
(3 -1.2149e-15 0)
(3 -1.62489e-15 0)
(3 -1.93624e-15 0)
(3 -6.65179e-16 0)
(3 2.37532e-16 0)
(3 -5.72892e-18 0)
(3 1.30172e-16 0)
(3 3.52597e-16 0)
(3 5.1843e-16 0)
(3 1.95531e-16 0)
(3 -6.22707e-16 0)
(3 -3.33793e-16 0)
(3 6.24149e-18 0)
(3 5.78568e-16 0)
(3 5.34232e-16 0)
(3 -9.57453e-16 0)
(3 -1.3172e-15 0)
(3 -7.39436e-16 0)
(3 -3.04412e-16 0)
(3 -1.46588e-16 0)
(3 2.38687e-16 0)
(3 5.54202e-16 0)
(3 1.92248e-15 0)
(3 2.75065e-15 0)
(3 3.05735e-15 0)
(3 2.27831e-15 0)
(3 1.96768e-15 0)
(3 1.10008e-15 0)
(3 8.35459e-16 0)
(3 8.47367e-16 0)
(3 5.02682e-16 0)
(3 -4.75475e-16 0)
(3 -2.23026e-15 0)
(3 -2.17291e-15 0)
(3 -2.19671e-15 0)
(3 -2.30222e-15 0)
(3 -1.633e-15 0)
(3 -1.38436e-15 0)
(3 -1.20501e-15 0)
(3 -1.82539e-16 0)
(3 1.09675e-15 0)
(3 1.07965e-15 0)