/*--------------------------------*- C++ -*----------------------------------*\
  =========                 |
  \\      /  F ield         | OpenFOAM: The Open Source CFD Toolbox
   \\    /   O peration     | Website:  https://openfoam.org
    \\  /    A nd           | Version:  7
     \\/     M anipulation  |
\*---------------------------------------------------------------------------*/
FoamFile
{
    version     2.0;
    format      ascii;
    class       volScalarField;
    location    "1.3";
    object      p;
}
// * * * * * * * * * * * * * * * * * * * * * * * * * * * * * * * * * * * * * //

dimensions      [1 -1 -2 0 0 0 0];

internalField   nonuniform List<scalar> 
4608
(
1
1
1
1
1
1
1
1
1
1
1
1
1
1
1
1
1
1
1
1
1
1
1
1
1
1
1
1
1
1
1
1
1
1
1
1
1
1
1
1
1
1
1
1
1
1
1
1
1
1
1
1
1
1
1
1
1
1
1
1
1
1
1
1
1
1
1
1
1
1
1
1
1
1
1
1
1
1
1
1
1
1
1
1
1
1
1
1
1
1
1
1
1
1
1
1
1
1
1
1
1
1
1
1
1
1
1
1
1
1
1
1
1
1
1
1
1
1
1
1
1
1
1
1
1
1
1
1
1
1
1
1
1
1
1
1
1
1
1
1
1
1
1
1
1
1
1
1
1
1
1
1
1
1
1
1
1
1
1
1
1
1
1
1
1
1
1
1
1
1
1
1
1
1
1
1
1
1
1
1
1
1
1
1
1
1
1
1
1
1
1
1
1
1
1
1
1
1
1
1
1
1
1
1
1
1
1
1
1
1
1
1
1
1
1
1
1
1
1
1
1
1
1
1
1
1
1
1
1
1
1
1
1
1
1
1
1
1
1
1
1
1
1
1
1
1
1
1
1
1
1
1
1
1
1
1
1
1
1
1
1
1
1
1
1
1
1
1
1
1
1
1
1
1
1
1
1
1
1
1
1
1
1
1
1
1
1
1
1
1
1
1
1
1
1
1
1
1
1
1
1
1
1
1
1
1
1
1
1
1
1
1
1
1
1
1
1
1
1
1
1
1
1
1
1
1
1
1
1
1
1
1
1
1
1
1
1
1
1
1
1
1
1
1
1
1
1
1
1
1
1
1
1
1
1
1
1
1
1
1
1
1
1
1
1
1
1
1
1
1
1
1
1
1
1
1
1
1
1
1
1
1
1
1
1
1
1
1
1
1
1
1
1
1
1
1
1
1
1
1
1
1
1
1
1
1
1
1
1
1
1
1
1
1
1
1
1
1
1
1
1
1
1
1
1
1
1
1
1
1
1
1
1
1
1
1
1
1
1
1
1
1
1
1
1
1
1
1
1
1
1
1
1
1
1
1
1
1
1
1
1
1
1
1
1
1
1
1
1
1
1
1
1
1
1
1
1
1
1
1
1
1
1
1
1
1
1
1
1
1
1
1
1
1
1
1
1
1
1
1
1
1
1
1
1
1
1
1
1
1
1
1
1
1
1
1
1
1
1
1
1
1
1
1
1
1
1
1
1
1
1
1
1
1
1
1
1
1
1
1
1
1
1
1
1
1
1
1
1
1
1
1
1
1
1
1
1
1
1
1
1
1
1
1
1
1
1
1
1
1
1
1
1
1
1
1
1
1
1
1
1
1
1
1
1
1
1
1
1
1
1
1
1
1
1
1
1
1
1
1
1
1
1
1
1
1
1
1
1
1
1
1
1
1
1
1
1
1
1
1
1
1
1
1
1
1
1
1
1
1
1
1
1
1
1
1
1
1
1
1
1
1
1
1
1
1
1
1
1
1
1
1
1
1
1
1
1
1
1
1
1
1
1
1
1
1
1
1
1
1
1
1
1
1
1
1
1
1
1
1
1
1
1
1
1
1
1
1
1
1
1
1
1
1
1
1
1
1
1
1
1
1
1
1
1
1
1
1
1
1
1
1
1
1
1
1
1
1
1
1
1
1
1
1
1
1
1
1
1
1
1
1
1
1
1
1
1
1
1
1
1
1
1
1
1
1
1
1
1
1
1
1
1
1
1
1
1
1
1
1
1
1
1
1
1
1
1
1
1.29077
1.76875
2.33198
2.96178
3.65041
4.27497
4.84396
5.31297
5.36055
5.16128
4.72841
4.21345
3.80793
3.67906
3.57493
3.57591
3.60889
3.64975
3.69707
3.73905
3.75047
3.752
3.75334
3.76865
1.00286
1.01693
1.087
1.21797
1.47215
1.8564
2.37657
2.99213
3.54684
3.84432
4.05615
4.03587
3.93792
3.87685
3.78149
3.71914
3.69288
3.67215
3.68166
3.71407
3.73764
3.74449
3.74923
3.76208
1
0.999946
1.00023
1.00027
1.0035
1.0244
1.10698
1.36856
1.97163
3.01005
3.84131
4.31424
4.35371
4.27401
4.11277
3.88796
3.71365
3.64663
3.6517
3.6797
3.71521
3.73356
3.74148
3.75104
1
0.999998
0.999997
0.999999
0.999987
1.00004
0.999901
1.00198
1.03207
1.29928
2.02031
3.21225
3.92974
4.07283
4.05553
4.02233
3.88489
3.73054
3.70275
3.69862
3.7002
3.71372
3.73899
3.75707
1
1
1
1
0.999999
0.999999
0.999987
0.999989
0.999902
1.00136
1.04391
1.3437
2.25685
3.22105
4.00536
4.13097
4.08406
3.954
3.84344
3.75917
3.71377
3.7098
3.72599
3.75705
1
1
1
1
1
1
1
0.999999
0.999991
0.999991
0.999916
1.00245
1.08588
1.49219
2.51738
3.41751
3.95966
3.97312
3.9307
3.85976
3.78043
3.7287
3.71299
3.72416
1
1
1
1
1
1
1
1
1
0.999999
0.999993
0.99998
1.00008
1.00851
1.1595
1.79501
2.99248
3.59542
3.79356
3.84625
3.82951
3.75794
3.70312
3.69645
1
1
1
1
1
1
1
1
1
1
1
0.999997
0.999998
0.999971
1.00115
1.03658
1.35849
2.25642
3.3138
3.81606
3.83722
3.80086
3.74349
3.72654
1
1
1
1
1
1
1
1
1
1
1
1
1
0.999995
0.999996
0.999998
1.00736
1.14357
1.73513
2.78079
3.58086
3.81575
3.81096
3.78362
1
1
1
1
1
1
1
1
1
1
1
1
1
1
0.999999
0.999998
0.999979
1.00142
1.03995
1.41455
2.38962
3.33882
3.57179
3.6925
1
1
1
1
1
1
1
1
1
1
1
1
1
1
1
1
0.999996
0.999991
1.00014
1.01687
1.19797
2.00469
3.01428
3.68146
1
1
1
1
1
1
1
1
1
1
1
1
1
1
1
1
1
0.999999
0.999998
1.00003
1.00451
1.1214
1.70598
2.86929
1
1
1
1
1
1
1
1
1
1
1
1
1
1
1
1
1
1
0.999999
0.999999
1
1.00235
1.06892
1.49301
1
1
1
1
1
1
1
1
1
1
1
1
1
1
1
1
1
1
1
1
1
0.999998
1.0013
1.0242
1
1
1
1
1
1
1
1
1
1
1
1
1
1
1
1
1
1
1
1
1
0.999999
1.00001
1
1
1
1
1
1
1
1
1
1
1
1
1
1
1
1
1
1
1
1
1
1
1
1
0.999996
1
1
1
1
1
1
1
1
1
1
1
1
1
1
1
1
1
1
1
1
1
1
1
0.999996
1
1
1
1
1
1
1
1
1
1
1
1
1
1
1
1
1
1
1
1
1
0.999999
1.00001
1
1
1
1
1
1
1
1
1
1
1
1
1
1
1
1
1
1
1
1
1
1
0.999998
1.0013
1.0242
1
1
1
1
1
1
1
1
1
1
1
1
1
1
1
1
1
1
0.999999
0.999999
1
1.00235
1.06892
1.49302
1
1
1
1
1
1
1
1
1
1
1
1
1
1
1
1
1
0.999999
0.999998
1.00003
1.00451
1.1214
1.70598
2.86931
1
1
1
1
1
1
1
1
1
1
1
1
1
1
1
1
0.999996
0.999991
1.00014
1.01687
1.19797
2.00469
3.01428
3.68146
1
1
1
1
1
1
1
1
1
1
1
1
1
1
0.999999
0.999998
0.999979
1.00142
1.03995
1.41455
2.38962
3.33882
3.57179
3.6925
1
1
1
1
1
1
1
1
1
1
1
1
1
0.999995
0.999996
0.999998
1.00736
1.14357
1.73513
2.78079
3.58086
3.81575
3.81096
3.78362
1
1
1
1
1
1
1
1
1
1
1
0.999997
0.999998
0.999971
1.00115
1.03658
1.35849
2.25642
3.3138
3.81606
3.83722
3.80086
3.74349
3.72654
1
1
1
1
1
1
1
1
1
0.999999
0.999993
0.99998
1.00008
1.00851
1.1595
1.79501
2.99248
3.59542
3.79356
3.84625
3.82951
3.75794
3.70312
3.69645
1
1
1
1
1
1
1
0.999999
0.999991
0.999991
0.999916
1.00245
1.08588
1.49219
2.51738
3.41751
3.95966
3.97312
3.9307
3.85976
3.78043
3.7287
3.71299
3.72416
1
1
1
1
0.999999
0.999999
0.999987
0.999989
0.999902
1.00136
1.04391
1.3437
2.25685
3.22105
4.00536
4.13097
4.08406
3.954
3.84344
3.75917
3.71377
3.7098
3.72599
3.75705
1
0.999998
0.999997
0.999999
0.999987
1.00004
0.999901
1.00198
1.03207
1.29928
2.02031
3.21225
3.92974
4.07283
4.05553
4.02233
3.88489
3.73054
3.70275
3.69862
3.7002
3.71372
3.73899
3.75707
1
0.999946
1.00023
1.00027
1.0035
1.0244
1.10698
1.36856
1.97163
3.01005
3.84131
4.31424
4.35371
4.27401
4.11277
3.88796
3.71365
3.64663
3.6517
3.6797
3.71521
3.73356
3.74148
3.75104
1.00286
1.01693
1.087
1.21797
1.47215
1.8564
2.37657
2.99213
3.54684
3.84432
4.05615
4.03587
3.93792
3.87685
3.78149
3.71914
3.69288
3.67215
3.68166
3.71407
3.73764
3.74449
3.74923
3.76208
1.29077
1.76875
2.33198
2.96178
3.65041
4.27497
4.84396
5.31297
5.36055
5.16128
4.72841
4.21345
3.80793
3.67906
3.57493
3.57591
3.60889
3.64975
3.69707
3.73905
3.75047
3.752
3.75334
3.76865
2.66747
1.7221
1.09901
0.846203
0.721633
0.680078
0.683054
0.700407
0.763755
0.839215
0.908751
0.953085
0.976442
0.99903
1.03192
1.05629
1.05935
1.06173
1.06153
1.06204
1.06579
1.07066
1.07696
1.15528
1.55993
2.73279
4.56821
6.74202
8.8705
9.33966
8.6993
7.64029
6.86885
6.47111
6.21433
6.00313
5.78001
5.57457
5.3835
5.19144
4.98868
4.77422
4.55608
4.34142
4.14699
3.99291
3.87092
3.75895
3.64617
3.52887
3.40293
3.267
3.13072
3.01107
2.91344
2.83196
2.7586
2.68368
2.60392
2.52584
2.45411
2.38707
2.31753
2.23922
2.15384
2.07197
2.00868
1.96823
1.93664
1.90098
1.86357
1.82441
1.77612
1.70936
1.63531
1.57883
1.54533
1.52277
1.50804
1.49514
1.48118
1.46008
1.4559
1.47883
1.55391
1.69903
1.92522
2.23616
2.56735
2.83988
3.07679
3.24899
3.38434
3.41407
3.43568
3.4137
3.36613
2.78165
2.22625
1.74453
1.45415
1.28905
1.14119
1.02404
0.983193
0.960248
0.927069
0.90819
0.909204
0.924861
0.95679
0.992831
1.00521
1.01171
1.01608
1.02247
1.03335
1.04312
1.12574
1.68117
2.59507
3.08918
3.62091
4.29805
5.60704
6.81553
7.5008
7.39847
7.02054
6.63731
6.31953
6.04794
5.82814
5.63492
5.43641
5.23837
5.03427
4.8213
4.60872
4.40723
4.23516
4.08035
3.94289
3.82278
3.70882
3.59346
3.47174
3.3396
3.20315
3.08065
2.98108
2.89568
2.81532
2.73694
2.6589
2.58166
2.50759
2.43779
2.36567
2.28559
2.20173
2.12518
2.06359
2.01723
1.97887
1.93859
1.89868
1.85822
1.81231
1.75133
1.67847
1.61824
1.58054
1.55836
1.54852
1.55091
1.57831
1.6362
1.73695
1.85843
1.96846
2.06697
2.17368
2.28546
2.39038
2.51506
2.62047
2.68747
2.74955
2.81273
2.83407
2.88714
3.64468
3.32276
2.85999
2.39812
1.96771
1.64998
1.44105
1.24423
1.07384
1.0186
0.986281
0.936911
0.91336
0.9136
0.929265
0.956275
0.972088
0.972572
0.981109
1.0035
1.01463
1.11722
1.75138
2.70266
3.27285
3.33879
3.32494
3.33531
3.58336
4.62768
6.17366
7.04609
7.13474
6.90504
6.43842
6.04546
5.77923
5.53898
5.30168
5.07643
4.88469
4.70574
4.53445
4.37106
4.20412
4.02632
3.85876
3.71982
3.60746
3.50722
3.40413
3.2869
3.15376
3.0282
2.92605
2.84598
2.77237
2.69625
2.6189
2.54017
2.45705
2.37899
2.31001
2.23904
2.1616
2.08832
2.0289
1.98182
1.94255
1.9017
1.85956
1.81504
1.77014
1.71068
1.65473
1.62012
1.60544
1.60984
1.6418
1.743
1.87206
2.02547
2.16928
2.26785
2.29292
2.31877
2.32294
2.30943
2.2853
2.27466
2.26376
2.25396
2.26045
2.29381
2.34296
2.47915
3.72472
3.59625
3.29083
2.91436
2.499
2.07735
1.83296
1.64565
1.37722
1.22403
1.19818
1.14861
1.04699
0.96521
0.95877
0.969214
0.95809
0.951
0.957049
0.973354
1.13728
1.75574
2.89174
3.18604
3.25266
3.2749
3.2005
3.08837
3.01513
3.1211
3.73823
5.08925
6.38181
6.45944
6.37657
6.12921
5.82495
5.52423
5.2531
5.00767
4.83308
4.70286
4.55937
4.39833
4.21642
4.02507
3.84612
3.68916
3.56652
3.47444
3.3866
3.27942
3.14803
3.02437
2.91843
2.83201
2.76474
2.70045
2.62111
2.5379
2.45396
2.36717
2.28894
2.21878
2.14926
2.07873
2.01947
1.97322
1.934
1.89557
1.8555
1.81312
1.77413
1.72207
1.66306
1.67186
1.7342
1.87179
2.06223
2.25231
2.36139
2.48217
2.49131
2.47031
2.44509
2.42313
2.39548
2.35344
2.30773
2.26782
2.20848
2.12726
2.07312
2.04709
2.0407
2.08059
3.75245
3.71529
3.57124
3.29348
2.96932
2.55842
2.17014
1.98517
1.80541
1.51158
1.32207
1.28892
1.22701
1.10582
0.986319
0.973411
0.966767
0.956638
0.98065
1.22659
1.93453
2.91583
3.3134
3.25715
3.16226
3.07799
2.97167
2.90812
2.87446
2.79807
2.80591
3.07314
4.10184
5.32365
6.05115
6.01115
5.84175
5.55501
5.27533
5.04728
4.83357
4.62492
4.43521
4.26313
4.11537
3.99066
3.86063
3.7235
3.58356
3.43285
3.30338
3.21334
3.14308
3.06202
2.97017
2.8665
2.76128
2.65894
2.56975
2.49859
2.44225
2.38137
2.30807
2.22365
2.13802
2.0677
2.01189
1.97193
1.93561
1.90362
1.86862
1.83713
1.78989
1.79335
1.84513
2.00182
2.20623
2.40906
2.55652
2.65889
2.67017
2.62576
2.53828
2.49921
2.47306
2.44292
2.40508
2.37507
2.33721
2.27075
2.1858
2.10063
2.04424
2.01424
1.99546
1.96042
3.74829
3.74256
3.70909
3.55691
3.29722
2.99718
2.61633
2.27881
2.11653
1.905
1.60979
1.44814
1.41549
1.33653
1.16708
1.06587
1.06236
1.10299
1.39048
2.21221
3.06782
3.40926
3.36304
3.20918
3.07029
2.95336
2.84655
2.79124
2.74418
2.65682
2.55953
2.47428
2.58007
3.18161
4.32715
5.31798
5.45043
5.39999
5.22823
5.0158
4.7913
4.57887
4.37407
4.19623
4.06027
3.9435
3.83955
3.73689
3.59957
3.43483
3.287
3.16218
3.05967
2.98043
2.91205
2.84395
2.7523
2.63833
2.54361
2.48381
2.42985
2.36605
2.29381
2.20887
2.12204
2.07176
2.0277
1.98829
1.9547
1.94019
1.92758
1.95798
2.03446
2.16908
2.38203
2.59617
2.74183
2.8348
2.82961
2.8081
2.75435
2.6501
2.57758
2.55322
2.53657
2.50076
2.44196
2.37478
2.31057
2.23734
2.15876
2.10768
2.06654
2.03091
1.99595
1.93797
3.71108
3.72931
3.71757
3.68204
3.52974
3.29122
2.99479
2.64383
2.38371
2.21396
1.97614
1.68617
1.57558
1.51882
1.4121
1.2718
1.31108
1.70265
2.65339
3.45117
3.6756
3.57587
3.37891
3.2024
3.0634
2.93013
2.82128
2.74922
2.6692
2.56914
2.45698
2.38094
2.29251
2.30041
2.55146
3.37748
4.39324
5.07834
5.1235
5.01013
4.75188
4.49818
4.30049
4.14619
4.02338
3.92152
3.81919
3.70739
3.58048
3.41691
3.24122
3.11099
3.02696
2.96099
2.89769
2.82789
2.74242
2.64086
2.53492
2.44317
2.39199
2.35395
2.29925
2.22168
2.13943
2.07043
2.01956
2.00062
1.99881
2.05546
2.20249
2.41397
2.62918
2.79281
2.96508
2.99494
2.97919
2.9433
2.88986
2.81431
2.72259
2.65043
2.59874
2.55889
2.5221
2.47769
2.42693
2.36742
2.29969
2.23006
2.16036
2.10726
2.07485
2.03897
1.99852
1.93699
3.71692
3.71491
3.70919
3.68968
3.63693
3.497
3.28283
3.00107
2.65812
2.45723
2.2876
2.06896
1.7839
1.67725
1.61627
1.72653
2.33974
3.40761
4.12909
4.09776
3.92595
3.69956
3.46908
3.28872
3.1295
2.98415
2.85239
2.75264
2.6466
2.53739
2.41063
2.32712
2.24479
2.1809
2.11138
2.17963
2.61139
3.48167
4.4387
4.72607
4.60352
4.43585
4.27427
4.13058
3.98713
3.86815
3.75333
3.64266
3.52588
3.3714
3.1989
3.07695
2.99859
2.93137
2.86741
2.80069
2.72415
2.63767
2.54041
2.43541
2.35441
2.29697
2.24284
2.19084
2.15377
2.09083
2.08111
2.14346
2.31936
2.60734
2.83896
3.04125
3.11148
3.15723
3.17587
3.1573
3.10411
3.02438
2.93666
2.81764
2.6986
2.61659
2.57511
2.54932
2.51938
2.48093
2.43333
2.37664
2.3135
2.24468
2.16616
2.11367
2.08154
2.04475
2.01002
1.95578
3.76961
3.75556
3.74263
3.72258
3.69207
3.62405
3.48325
3.26832
3.00914
2.70351
2.50379
2.31812
2.09135
1.98786
2.21909
3.12247
4.34504
4.7613
4.65606
4.37605
4.09453
3.85782
3.63458
3.4329
3.24417
3.08099
2.93821
2.81928
2.69139
2.55948
2.42253
2.31898
2.22832
2.13886
2.05594
1.98937
1.96589
2.11794
2.71842
3.60545
4.19475
4.32361
4.27837
4.1387
3.96409
3.83324
3.7032
3.56694
3.42938
3.29278
3.16007
3.04086
2.952
2.88078
2.82212
2.77117
2.71482
2.63172
2.51436
2.3894
2.31295
2.26966
2.24705
2.21541
2.24133
2.3412
2.55279
2.82682
3.11962
3.3046
3.28955
3.23866
3.20908
3.20006
3.19524
3.15182
3.10313
3.04795
2.94852
2.80501
2.67361
2.60559
2.57582
2.55259
2.52106
2.48524
2.45101
2.41712
2.35907
2.2588
2.16287
2.11628
2.08344
2.04641
2.02485
1.9888
3.75634
3.7568
3.74923
3.73059
3.70651
3.68391
3.61432
3.46333
3.25892
2.99332
2.77113
2.49969
2.54172
3.05949
4.2764
5.44898
5.59702
5.37103
4.98488
4.62117
4.30987
4.04813
3.81902
3.61403
3.41777
3.22815
3.04499
2.87422
2.71621
2.57271
2.46072
2.35874
2.25651
2.14807
2.05361
1.95926
1.88877
1.8342
1.87144
2.16979
2.84934
3.57749
3.97951
3.98577
3.94769
3.83013
3.69194
3.55396
3.40897
3.25422
3.10733
2.9877
2.90756
2.84094
2.78706
2.74498
2.68874
2.60393
2.49359
2.38778
2.32529
2.29924
2.32699
2.46999
2.73981
3.08682
3.38129
3.59953
3.64924
3.61444
3.50498
3.37386
3.28527
3.22431
3.17713
3.13463
3.09311
3.03593
2.92609
2.76138
2.65685
2.61826
2.59077
2.5685
2.54051
2.50659
2.46441
2.40986
2.33091
2.22757
2.16366
2.13163
2.09756
2.0677
2.05055
2.00254
3.76985
3.75043
3.718
3.70026
3.68839
3.68144
3.66003
3.58434
3.41409
3.23115
3.02942
3.22774
4.26089
5.72308
6.43126
6.35073
5.99511
5.60398
5.23584
4.88364
4.54808
4.24154
3.97715
3.75039
3.54901
3.35936
3.17543
2.98797
2.80538
2.62583
2.47941
2.36045
2.26484
2.16273
2.07206
1.97456
1.88721
1.8157
1.76965
1.74883
1.84818
2.24503
2.93191
3.41382
3.70606
3.73902
3.69098
3.57919
3.40602
3.22761
3.07437
2.96822
2.89651
2.81764
2.73819
2.69181
2.63086
2.57326
2.50406
2.42673
2.44892
2.57841
2.88143
3.2577
3.53649
3.7507
3.7871
3.77869
3.72738
3.61402
3.46062
3.36896
3.31823
3.26785
3.21256
3.16268
3.10324
3.03173
2.90997
2.73575
2.66497
2.63801
2.60781
2.58147
2.55939
2.53246
2.4899
2.41615
2.31412
2.21593
2.17351
2.14818
2.11809
2.09239
2.07386
2.01659
3.47998
3.67036
3.75894
3.76872
3.73988
3.70286
3.67483
3.6436
3.54473
3.57314
4.22958
5.81242
7.27964
7.66183
7.42439
6.84449
6.29158
5.84078
5.4488
5.07673
4.72912
4.41976
4.1519
3.90964
3.68295
3.46186
3.25251
3.05678
2.87943
2.71568
2.57639
2.43447
2.28648
2.14748
2.04054
1.95898
1.89683
1.83722
1.76576
1.7133
1.64687
1.65347
1.8148
2.26298
2.84366
3.36376
3.43776
3.38514
3.2986
3.17236
3.0583
2.96946
2.88548
2.79061
2.69825
2.66336
2.62647
2.59916
2.66798
2.85149
3.1689
3.52262
3.82555
3.99831
4.06171
4.0411
3.9975
3.88659
3.73005
3.5727
3.42645
3.35113
3.31188
3.27042
3.22373
3.17539
3.11366
3.02552
2.89488
2.74987
2.69654
2.66826
2.63515
2.58948
2.56289
2.53896
2.48847
2.39505
2.29554
2.2288
2.19538
2.16976
2.14047
2.11436
2.09205
2.02448
2.56004
3.45172
3.68524
3.70123
3.6752
3.65651
3.66307
3.70739
4.00641
5.3886
7.7046
8.50382
8.33221
8.05686
7.63368
7.15414
6.65055
6.15555
5.68461
5.24404
4.85223
4.52204
4.25176
4.01502
3.79546
3.57588
3.35454
3.13508
2.92781
2.74041
2.58992
2.46746
2.33948
2.20561
2.08706
1.98411
1.89099
1.81275
1.74635
1.68757
1.61101
1.56851
1.51386
1.55127
1.78237
2.35904
2.91635
3.12419
3.15725
3.12903
3.07144
2.9823
2.87965
2.78712
2.69428
2.68914
2.77088
3.0209
3.43752
3.87825
4.11708
4.23612
4.20224
4.14957
4.09997
4.01991
3.93955
3.86689
3.74328
3.58685
3.46532
3.37936
3.30891
3.25321
3.22029
3.18848
3.13429
3.0383
2.90428
2.79315
2.73735
2.70239
2.66254
2.61374
2.58662
2.55205
2.47286
2.36785
2.30277
2.25361
2.2115
2.18308
2.15221
2.12347
2.09597
2.02334
1.3967
2.37427
3.18703
3.58903
3.64218
3.69174
3.88816
4.63309
6.51658
8.89121
9.93057
9.72078
8.95896
8.22858
7.7673
7.35566
6.8863
6.37472
5.86856
5.40322
4.99968
4.65254
4.35345
4.07861
3.82645
3.60111
3.40164
3.20782
3.01418
2.83543
2.66526
2.50387
2.35604
2.23723
2.12459
2.01004
1.90491
1.82981
1.77216
1.70573
1.62145
1.5295
1.46907
1.43239
1.4412
1.53936
1.90117
2.38142
2.74406
2.94113
2.9524
2.93535
2.884
2.88851
3.01726
3.29189
3.6688
4.12439
4.46276
4.65178
4.62703
4.57254
4.41724
4.22434
4.06756
3.95869
3.88246
3.8124
3.71086
3.59782
3.51131
3.43177
3.35512
3.28464
3.21273
3.13226
3.05989
2.98104
2.89472
2.82975
2.78186
2.73798
2.68737
2.61856
2.56207
2.5201
2.4469
2.36223
2.31134
2.26508
2.22641
2.19839
2.16925
2.13966
2.10755
2.02731
1.02998
1.27681
2.02625
2.9824
3.44348
4.2767
5.75207
7.77371
9.41065
9.98259
9.90819
9.69995
9.26183
8.62505
8.03174
7.49304
6.97352
6.47311
5.99382
5.54206
5.13373
4.76846
4.44872
4.16077
3.89497
3.6413
3.39984
3.18361
3.01433
2.88643
2.75294
2.60581
2.44765
2.25552
2.08771
2.03447
1.99408
1.93679
1.8687
1.78354
1.67964
1.5361
1.4523
1.42411
1.39764
1.37392
1.40481
1.56323
1.92965
2.40639
2.62194
2.85666
3.1962
3.56137
4.10857
4.45803
4.70418
4.82589
4.8041
4.75388
4.65086
4.53689
4.39942
4.27203
4.15252
4.02398
3.88338
3.7554
3.6598
3.62199
3.57202
3.51022
3.44637
3.37198
3.26471
3.13281
3.01123
2.93832
2.89304
2.86152
2.83182
2.79074
2.73381
2.65325
2.56645
2.51159
2.45614
2.39696
2.35023
2.3054
2.2682
2.2403
2.21169
2.1785
2.13924
2.04997
1.00066
1.01563
1.18141
1.8784
3.67058
6.0171
8.23892
10.0777
11.0582
10.579
9.82588
9.56785
9.31613
8.86303
8.21746
7.54475
6.94837
6.44559
6.01255
5.61298
5.22876
4.84981
4.4865
4.15272
3.86126
3.60706
3.39028
3.21023
3.04998
2.88687
2.71771
2.54887
2.38209
2.23329
2.13177
2.03992
1.94497
1.86681
1.7944
1.70945
1.60986
1.52164
1.45592
1.39593
1.34978
1.31958
1.28776
1.29765
1.37167
1.68474
2.24433
3.15502
3.97042
4.53234
5.0484
5.26429
5.29925
5.23201
5.07059
4.81674
4.58124
4.41694
4.31268
4.21983
4.11828
3.9988
3.86568
3.72987
3.63037
3.56645
3.5124
3.45816
3.40654
3.35049
3.26669
3.13055
2.98491
2.91672
2.88081
2.84399
2.81032
2.77177
2.71948
2.64741
2.55765
2.47937
2.41318
2.36056
2.32039
2.27986
2.24221
2.21104
2.18216
2.1518
2.11451
2.0239
1.00066
1.01562
1.18146
1.87808
3.67056
6.01831
8.23851
10.0776
11.0582
10.5785
9.82498
9.56736
9.31603
8.8632
8.2177
7.5449
6.94847
6.44586
6.01303
5.61323
5.2285
4.84919
4.48581
4.15217
3.86095
3.60729
3.39114
3.21127
3.051
2.888
2.71853
2.54898
2.38122
2.23173
2.13069
2.03984
1.94501
1.86677
1.79427
1.70944
1.60984
1.52222
1.45626
1.39577
1.34974
1.31928
1.28775
1.29799
1.37429
1.64559
2.28991
3.08878
3.9192
4.67831
5.02609
5.20207
5.29262
5.23917
5.01066
4.73316
4.53177
4.41211
4.31947
4.22041
4.12239
4.00417
3.861
3.73357
3.63498
3.57323
3.51746
3.46035
3.40017
3.34253
3.26229
3.12699
2.98954
2.91083
2.87148
2.85424
2.83662
2.79726
2.7354
2.6561
2.56471
2.48001
2.41093
2.35922
2.31865
2.27845
2.24249
2.21056
2.18149
2.15177
2.11463
2.02381
1.02999
1.27678
2.02638
2.98199
3.44355
4.27762
5.75169
7.7735
9.41051
9.9825
9.90794
9.69975
9.26174
8.62514
8.03195
7.49324
6.97366
6.4732
5.99387
5.54215
5.13397
4.76883
4.44904
4.16088
3.89498
3.64139
3.39987
3.18325
3.01396
2.88716
2.75494
2.60729
2.44924
2.25734
2.08706
2.03257
1.99292
1.93624
1.86842
1.78349
1.67893
1.53495
1.45328
1.42491
1.39774
1.3745
1.40213
1.57208
1.92747
2.38657
2.67665
2.80653
3.15299
3.72206
4.09183
4.38103
4.70688
4.79795
4.75498
4.71896
4.66523
4.5852
4.45798
4.29424
4.11848
3.96391
3.84146
3.73763
3.68728
3.64764
3.58638
3.51773
3.43902
3.33736
3.22604
3.10681
3.01692
2.95445
2.89089
2.83653
2.79901
2.75195
2.68722
2.62711
2.56412
2.49289
2.43375
2.3909
2.34581
2.30404
2.27086
2.24114
2.21272
2.17992
2.13863
2.04609
1.39671
2.37425
3.18711
3.58896
3.6422
3.69181
3.88805
4.63284
6.51656
8.89132
9.93047
9.72078
8.95908
8.22877
7.7675
7.35585
6.88651
6.37489
5.86864
5.40321
4.99954
4.65235
4.35329
4.0785
3.82645
3.60128
3.40199
3.20829
3.01454
2.83527
2.66469
2.50348
2.35527
2.23693
2.12427
2.01037
1.90496
1.8299
1.77202
1.70535
1.62147
1.53
1.46941
1.43256
1.44184
1.53713
1.8894
2.42257
2.71234
2.93011
2.95671
2.92758
2.89696
2.92465
3.01414
3.2311
3.63158
4.12651
4.4729
4.66289
4.66842
4.62619
4.46662
4.23028
4.04816
3.93886
3.87176
3.79688
3.70857
3.61374
3.52505
3.44263
3.36392
3.28267
3.19706
3.11563
3.06217
3.00134
2.91251
2.82602
2.77802
2.73175
2.67306
2.62146
2.56888
2.5113
2.45318
2.38147
2.29887
2.25219
2.22346
2.19431
2.16565
2.13817
2.10753
2.02781
2.56001
3.45171
3.68528
3.70124
3.6752
3.65651
3.66306
3.70737
4.00644
5.38878
7.70478
8.50383
8.33228
8.05695
7.63378
7.15418
6.65055
6.1555
5.68449
5.24387
4.85203
4.52192
4.25175
4.01512
3.79561
3.57599
3.35451
3.13502
2.92775
2.74011
2.58941
2.46709
2.33957
2.20575
2.08691
1.98402
1.89086
1.81285
1.74626
1.68745
1.61079
1.56857
1.51394
1.54974
1.78788
2.32913
2.94761
3.13743
3.1302
3.11643
3.06971
2.98595
2.88428
2.7906
2.68911
2.68228
2.75961
3.03302
3.46521
3.92344
4.14992
4.24541
4.19606
4.11536
4.0647
4.00105
3.94251
3.87214
3.74906
3.60675
3.48504
3.37731
3.29798
3.25195
3.21624
3.18329
3.14137
3.06586
2.92258
2.78198
2.7232
2.68936
2.66443
2.63876
2.60112
2.55238
2.49281
2.41051
2.30206
2.23523
2.20697
2.17696
2.1459
2.12203
2.09999
2.02938
3.47995
3.67036
3.75894
3.76873
3.73988
3.70286
3.67483
3.6436
3.54473
3.57316
4.22963
5.81243
7.27965
7.66191
7.42443
6.84446
6.29152
5.84067
5.44865
5.07659
4.72903
4.41975
4.15194
3.90969
3.68301
3.46193
3.25251
3.05673
2.87932
2.71556
2.57639
2.43467
2.28667
2.14747
2.0405
1.95874
1.8964
1.83667
1.76542
1.71296
1.64628
1.65349
1.81372
2.26313
2.84192
3.34802
3.44541
3.39317
3.30539
3.17658
3.05909
2.97091
2.88203
2.78246
2.69004
2.65798
2.62493
2.60315
2.67783
2.85613
3.15776
3.51353
3.80707
3.96466
4.03384
4.04041
4.00804
3.89915
3.74852
3.59179
3.43167
3.33819
3.29782
3.26271
3.21547
3.16772
3.11742
3.0431
2.90215
2.75058
2.69453
2.65876
2.6295
2.59963
2.56576
2.52958
2.48712
2.42042
2.31247
2.23017
2.19387
2.16108
2.12709
2.10153
2.08135
2.02174
3.76985
3.75042
3.718
3.70026
3.68839
3.68144
3.66003
3.58434
3.41409
3.23116
3.02942
3.22773
4.26083
5.72306
6.43123
6.35069
5.99507
5.60388
5.23574
4.88359
4.54808
4.24158
3.97723
3.75047
3.54908
3.35942
3.17544
2.98795
2.80535
2.62581
2.47938
2.36043
2.26494
2.16286
2.07217
1.97469
1.88741
1.81575
1.76955
1.74844
1.84752
2.24835
2.92404
3.4209
3.70741
3.73792
3.68983
3.58007
3.40685
3.22708
3.07454
2.96823
2.89366
2.81192
2.73424
2.6895
2.63051
2.57437
2.5043
2.42408
2.44342
2.57155
2.87298
3.25134
3.53789
3.76702
3.80117
3.78875
3.73752
3.62215
3.45779
3.34645
3.30472
3.26097
3.20896
3.15886
3.10456
3.03415
2.91017
2.7421
2.66566
2.63443
2.61024
2.58768
2.55437
2.52065
2.48948
2.44217
2.33926
2.22463
2.17608
2.14447
2.10715
2.07592
2.06354
2.02789
3.75634
3.7568
3.74923
3.73059
3.70651
3.68391
3.61432
3.46333
3.25892
2.99332
2.77113
2.49968
2.54171
3.05946
4.27635
5.44895
5.59697
5.37097
4.98485
4.62118
4.30991
4.0482
3.8191
3.61411
3.41782
3.22819
3.04498
2.87419
2.71615
2.57267
2.46068
2.35872
2.25657
2.14809
2.05365
1.95941
1.88886
1.83416
1.87133
2.16844
2.8512
3.57979
3.97289
3.98803
3.94923
3.83051
3.69213
3.55573
3.40883
3.25322
3.10784
2.98777
2.90738
2.84188
2.7899
2.74648
2.68882
2.60306
2.4926
2.38729
2.32489
2.29984
2.32859
2.47801
2.75202
3.10223
3.39553
3.60755
3.65495
3.61657
3.48737
3.37463
3.29327
3.22977
3.17736
3.1348
3.08925
3.03045
2.92102
2.75457
2.65682
2.62699
2.6042
2.58083
2.54652
2.50742
2.46311
2.40777
2.32639
2.22033
2.16428
2.13382
2.10183
2.06868
2.05024
2.00256
3.76961
3.75556
3.74263
3.72258
3.69207
3.62405
3.48325
3.26832
3.00914
2.70351
2.50379
2.31812
2.09135
1.98786
2.21908
3.12249
4.34502
4.7613
4.65608
4.37609
4.09457
3.85788
3.63463
3.43294
3.24419
3.081
2.93818
2.81922
2.69134
2.55946
2.42249
2.31896
2.22836
2.13889
2.05597
1.98945
1.96588
2.11818
2.71812
3.60148
4.19914
4.32331
4.27577
4.13565
3.96452
3.83384
3.70346
3.5674
3.42893
3.29206
3.15913
3.03988
2.95314
2.88435
2.82589
2.77335
2.71527
2.63156
2.51427
2.38981
2.31276
2.27007
2.24807
2.21701
2.24408
2.34598
2.55421
2.82607
3.11052
3.29611
3.27505
3.22615
3.21616
3.2158
3.20357
3.15749
3.1047
3.03988
2.93161
2.78282
2.65998
2.61682
2.59288
2.57088
2.53753
2.49536
2.44721
2.38867
2.31035
2.21973
2.16312
2.1317
2.10105
2.06178
2.02926
1.9792
3.71692
3.71491
3.70919
3.68968
3.63693
3.497
3.28283
3.00107
2.65812
2.45723
2.2876
2.06896
1.7839
1.67725
1.61627
1.72653
2.33977
3.40762
4.12912
4.09781
3.92597
3.69959
3.4691
3.28872
3.12948
2.98413
2.85234
2.75259
2.64657
2.5374
2.4106
2.32711
2.24482
2.18093
2.11141
2.17968
2.61057
3.48377
4.43886
4.72388
4.60482
4.43452
4.27341
4.13121
3.98879
3.86903
3.75358
3.64236
3.5247
3.36999
3.19827
3.07716
2.99985
2.93362
2.86981
2.80244
2.72446
2.6365
2.53928
2.43514
2.35442
2.29735
2.24322
2.19163
2.15471
2.09199
2.08093
2.14126
2.31404
2.6023
2.85299
3.01441
3.13217
3.17157
3.17348
3.15712
3.12154
3.05649
2.96469
2.81773
2.6786
2.60145
2.57574
2.56031
2.53213
2.49042
2.44411
2.38559
2.30816
2.2188
2.15431
2.12312
2.09656
2.0601
2.01889
1.9547
3.71108
3.72931
3.71757
3.68204
3.52974
3.29122
2.99479
2.64383
2.38371
2.21396
1.97614
1.68617
1.57558
1.51882
1.4121
1.2718
1.31108
1.70266
2.65343
3.4512
3.67561
3.57588
3.37892
3.20239
3.06337
2.93011
2.82125
2.74918
2.66917
2.56915
2.45697
2.38093
2.29255
2.30042
2.5518
3.37712
4.39283
5.07952
5.12415
5.00972
4.75053
4.49805
4.30134
4.14753
4.02373
3.92091
3.8188
3.70719
3.58022
3.41668
3.24124
3.11123
3.0272
2.96116
2.89761
2.82755
2.74233
2.64199
2.53629
2.44319
2.39197
2.35408
2.29945
2.22223
2.14004
2.07106
2.02013
2.00091
1.99909
2.05476
2.21304
2.41161
2.64022
2.80744
2.92787
2.9811
2.96756
2.95029
2.90959
2.83495
2.73225
2.62107
2.57637
2.55808
2.52934
2.48422
2.4335
2.3737
2.30368
2.22643
2.15752
2.11384
2.0812
2.04422
2.00257
1.93667
3.74829
3.74256
3.70909
3.55691
3.29722
2.99718
2.61633
2.27881
2.11653
1.905
1.60979
1.44814
1.41549
1.33653
1.16708
1.06587
1.06236
1.10299
1.39049
2.21221
3.06783
3.40926
3.36302
3.20915
3.07026
2.95334
2.84653
2.79122
2.74418
2.65684
2.55955
2.47429
2.58016
3.18139
4.32813
5.31719
5.4508
5.4
5.22791
5.01652
4.79255
4.58033
4.37446
4.19583
4.05937
3.94261
3.83941
3.73749
3.60031
3.4352
3.28681
3.16181
3.05931
2.98002
2.91167
2.84381
2.75259
2.63879
2.54405
2.48416
2.43004
2.36597
2.29384
2.20918
2.12236
2.07216
2.02882
1.9886
1.95438
1.93996
1.92833
1.95954
2.02289
2.17452
2.37191
2.58837
2.72196
2.81303
2.81822
2.81462
2.77451
2.69121
2.58849
2.52596
2.49703
2.46131
2.41127
2.35689
2.3104
2.25311
2.16516
2.09494
2.05755
2.02836
1.9936
1.93581
3.75245
3.71529
3.57124
3.29348
2.96932
2.55842
2.17014
1.98517
1.80541
1.51158
1.32207
1.28892
1.22701
1.10582
0.986319
0.973411
0.966767
0.956638
0.980649
1.22659
1.93452
2.91581
3.31338
3.25712
3.16223
3.07798
2.97167
2.90813
2.87447
2.79809
2.8059
3.07324
4.10154
5.32398
6.0519
6.01073
5.84091
5.55423
5.27512
5.04752
4.83446
4.62553
4.43508
4.26266
4.11479
3.99033
3.86075
3.72379
3.58392
3.43306
3.30321
3.21292
3.14265
3.06175
2.97009
2.86674
2.76168
2.65899
2.56938
2.49847
2.44248
2.38157
2.30814
2.22371
2.13815
2.06797
2.01206
1.97175
1.93533
1.90334
1.86822
1.83646
1.78752
1.79206
1.83948
1.99685
2.20815
2.41139
2.5355
2.63016
2.65956
2.6474
2.57948
2.51466
2.49111
2.45992
2.40674
2.35211
2.31717
2.27306
2.1916
2.10888
2.04694
2.01198
1.98841
1.94766
3.72472
3.59625
3.29083
2.91436
2.499
2.07735
1.83296
1.64565
1.37722
1.22403
1.19818
1.14861
1.04699
0.96521
0.95877
0.969215
0.95809
0.951
0.957049
0.973353
1.13727
1.75572
2.89173
3.18601
3.25265
3.27489
3.2005
3.08839
3.01514
3.12114
3.73821
5.0895
6.38136
6.45973
6.37668
6.12915
5.82492
5.52438
5.25326
5.00786
4.83338
4.70271
4.55914
4.39837
4.21665
4.02522
3.84615
3.68914
3.56636
3.47409
3.38633
3.27943
3.14817
3.02441
2.9185
2.8321
2.76453
2.69992
2.62039
2.53737
2.45359
2.36695
2.28897
2.21881
2.1493
2.07877
2.01915
1.97265
1.93348
1.89505
1.85504
1.81247
1.77315
1.72163
1.66256
1.67258
1.73243
1.86353
2.06024
2.24948
2.36047
2.46795
2.48001
2.47168
2.4574
2.44397
2.41983
2.37997
2.32854
2.26999
2.20431
2.13495
2.06897
2.02696
2.02197
2.06122
3.64468
3.32276
2.85999
2.39812
1.96771
1.64998
1.44105
1.24423
1.07384
1.0186
0.986281
0.936911
0.91336
0.9136
0.929265
0.956275
0.972088
0.972572
0.981109
1.0035
1.01463
1.11722
1.75137
2.70266
3.27285
3.3388
3.32495
3.33532
3.58338
4.62769
6.17375
7.04608
7.13467
6.90496
6.43826
6.04543
5.77915
5.53909
5.30171
5.0765
4.88485
4.70568
4.53426
4.37104
4.20429
4.02646
3.85864
3.71957
3.60723
3.50711
3.40411
3.28701
3.15395
3.02838
2.92621
2.84607
2.7723
2.69598
2.61851
2.53975
2.45667
2.37877
2.30998
2.23901
2.16155
2.08825
2.02855
1.98127
1.94218
1.9013
1.85923
1.81454
1.76993
1.71067
1.65439
1.61989
1.60538
1.60881
1.64046
1.73833
1.87401
2.01443
2.17022
2.24798
2.27139
2.31136
2.32938
2.32676
2.30858
2.28751
2.25678
2.24166
2.24759
2.28167
2.33383
2.47104
3.36613
2.78165
2.22625
1.74453
1.45415
1.28905
1.14119
1.02404
0.983193
0.960248
0.927069
0.90819
0.909204
0.924861
0.95679
0.992831
1.00521
1.01171
1.01608
1.02247
1.03335
1.04312
1.12574
1.68119
2.59508
3.08918
3.62092
4.29806
5.6071
6.81544
7.50087
7.39847
7.02052
6.63726
6.3195
6.04791
5.82821
5.635
5.43641
5.2384
5.03431
4.8213
4.60861
4.40707
4.23504
4.0803
3.94277
3.82272
3.70888
3.5936
3.4719
3.33976
3.20332
3.08081
2.9812
2.89575
2.81532
2.73686
2.65876
2.58149
2.50747
2.43772
2.36564
2.28549
2.20154
2.12496
2.06331
2.01702
1.97892
1.9386
1.89865
1.85827
1.8125
1.75139
1.67816
1.61798
1.58051
1.55823
1.54797
1.55013
1.57811
1.6313
1.72575
1.85562
1.96487
2.06279
2.17307
2.28572
2.38974
2.52369
2.62244
2.67773
2.7468
2.82357
2.84428
2.89385
2.66747
1.7221
1.09901
0.846203
0.721633
0.680078
0.683054
0.700407
0.763755
0.839215
0.908751
0.953085
0.976442
0.99903
1.03192
1.05629
1.05935
1.06173
1.06153
1.06204
1.06579