/*--------------------------------*- C++ -*----------------------------------*\
  =========                 |
  \\      /  F ield         | OpenFOAM: The Open Source CFD Toolbox
   \\    /   O peration     | Website:  https://openfoam.org
    \\  /    A nd           | Version:  7
     \\/     M anipulation  |
\*---------------------------------------------------------------------------*/
FoamFile
{
    version     2.0;
    format      ascii;
    class       volScalarField;
    location    "1.3";
    object      rho;
}
// * * * * * * * * * * * * * * * * * * * * * * * * * * * * * * * * * * * * * //

dimensions      [1 -3 0 0 0 0 0];

internalField   nonuniform List<scalar> 
4608
(
1.40001
1.40001
1.40001
1.40001
1.40001
1.40001
1.40001
1.40001
1.40001
1.40001
1.40001
1.40001
1.40001
1.40001
1.40001
1.40001
1.40001
1.40001
1.40001
1.40001
1.40001
1.40001
1.40001
1.40001
1.40001
1.40001
1.40001
1.40001
1.40001
1.40001
1.40001
1.40001
1.40001
1.40001
1.40001
1.40001
1.40001
1.40001
1.40001
1.40001
1.40001
1.40001
1.40001
1.40001
1.40001
1.40001
1.40001
1.40001
1.40001
1.40001
1.40001
1.40001
1.40001
1.40001
1.40001
1.40001
1.40001
1.40001
1.40001
1.40001
1.40001
1.40001
1.40001
1.40001
1.40001
1.40001
1.40001
1.40001
1.40001
1.40001
1.40001
1.40001
1.40001
1.40001
1.40001
1.40001
1.40001
1.40001
1.40001
1.40001
1.40001
1.40001
1.40001
1.40001
1.40001
1.40001
1.40001
1.40001
1.40001
1.40001
1.40001
1.40001
1.40001
1.40001
1.40001
1.40001
1.40001
1.40001
1.40001
1.40001
1.40001
1.40001
1.40001
1.40001
1.40001
1.40001
1.40001
1.40001
1.40001
1.40001
1.40001
1.40001
1.40001
1.40001
1.40001
1.40001
1.40001
1.40001
1.40001
1.40001
1.40001
1.40001
1.40001
1.40001
1.40001
1.40001
1.40001
1.40001
1.40001
1.40001
1.40001
1.40001
1.40001
1.40001
1.40001
1.40001
1.40001
1.40001
1.40001
1.40001
1.40001
1.40001
1.40001
1.40001
1.40001
1.40001
1.40001
1.40001
1.40001
1.40001
1.40001
1.40001
1.40001
1.40001
1.40001
1.40001
1.40001
1.40001
1.40001
1.40001
1.40001
1.40001
1.40001
1.40001
1.40001
1.40001
1.40001
1.40001
1.40001
1.40001
1.40001
1.40001
1.40001
1.40001
1.40001
1.40001
1.40001
1.40001
1.40001
1.40001
1.40001
1.40001
1.40001
1.40001
1.40001
1.40001
1.40001
1.40001
1.40001
1.40001
1.40001
1.40001
1.40001
1.40001
1.40001
1.40001
1.40001
1.40001
1.40001
1.40001
1.40001
1.40001
1.40001
1.40001
1.40001
1.40001
1.40001
1.40001
1.40001
1.40001
1.40001
1.40001
1.40001
1.40001
1.40001
1.40001
1.40001
1.40001
1.40001
1.40001
1.40001
1.40001
1.40001
1.40001
1.40001
1.40001
1.40001
1.40001
1.40001
1.40001
1.40001
1.40001
1.40001
1.40001
1.40001
1.40001
1.40001
1.40001
1.40001
1.40001
1.40001
1.40001
1.40001
1.40001
1.40001
1.40001
1.40001
1.40001
1.40001
1.40001
1.40001
1.40001
1.40001
1.40001
1.40001
1.40001
1.40001
1.40001
1.40001
1.40001
1.40001
1.40001
1.40001
1.40001
1.40001
1.40001
1.40001
1.40001
1.40001
1.40001
1.40001
1.40001
1.40001
1.40001
1.40001
1.40001
1.40001
1.40001
1.40001
1.40001
1.40001
1.40001
1.40001
1.40001
1.40001
1.40001
1.40001
1.40001
1.40001
1.40001
1.40001
1.40001
1.40001
1.40001
1.40001
1.40001
1.40001
1.40001
1.40001
1.40001
1.40001
1.40001
1.40001
1.40001
1.40001
1.40001
1.40001
1.40001
1.40001
1.40001
1.40001
1.40001
1.40001
1.40001
1.40001
1.40001
1.40001
1.40001
1.40001
1.40001
1.40001
1.40001
1.40001
1.40001
1.40001
1.40001
1.40001
1.40001
1.40001
1.40001
1.40001
1.40001
1.40001
1.40001
1.40001
1.40001
1.40001
1.40001
1.40001
1.40001
1.40001
1.40001
1.40001
1.40001
1.40001
1.40001
1.40001
1.40001
1.40001
1.40001
1.40001
1.40001
1.40001
1.40001
1.40001
1.40001
1.40001
1.40001
1.40001
1.40001
1.40001
1.40001
1.40001
1.40001
1.40001
1.40001
1.40001
1.40001
1.40001
1.40001
1.40001
1.40001
1.40001
1.40001
1.40001
1.40001
1.40001
1.40001
1.40001
1.40001
1.40001
1.40001
1.40001
1.40001
1.40001
1.40001
1.40001
1.40001
1.40001
1.40001
1.40001
1.40001
1.40001
1.40001
1.40001
1.40001
1.40001
1.40001
1.40001
1.40001
1.40001
1.40001
1.40001
1.40001
1.40001
1.40001
1.40001
1.40001
1.40001
1.40001
1.40001
1.40001
1.40001
1.40001
1.40001
1.40001
1.40001
1.40001
1.40001
1.40001
1.40001
1.40001
1.40001
1.40001
1.40001
1.40001
1.40001
1.40001
1.40001
1.40001
1.40001
1.40001
1.40001
1.40001
1.40001
1.40001
1.40001
1.40001
1.40001
1.40001
1.40001
1.40001
1.40001
1.40001
1.40001
1.40001
1.40001
1.40001
1.40001
1.40001
1.40001
1.40001
1.40001
1.40001
1.40001
1.40001
1.40001
1.40001
1.40001
1.40001
1.40001
1.40001
1.40001
1.40001
1.40001
1.40001
1.40001
1.40001
1.40001
1.40001
1.40001
1.40001
1.40001
1.40001
1.40001
1.40001
1.40001
1.40001
1.40001
1.40001
1.40001
1.40001
1.40001
1.40001
1.40001
1.40001
1.40001
1.40001
1.40001
1.40001
1.40001
1.40001
1.40001
1.40001
1.40001
1.40001
1.40001
1.40001
1.40001
1.40001
1.40001
1.40001
1.40001
1.40001
1.40001
1.40001
1.40001
1.40001
1.40001
1.40001
1.40001
1.40001
1.40001
1.40001
1.40001
1.40001
1.40001
1.40001
1.40001
1.40001
1.40001
1.40001
1.40001
1.40001
1.40001
1.40001
1.40001
1.40001
1.40001
1.40001
1.40001
1.40001
1.40001
1.40001
1.40001
1.40001
1.40001
1.40001
1.40001
1.40001
1.40001
1.40001
1.40001
1.40001
1.40001
1.40001
1.40001
1.40001
1.40001
1.40001
1.40001
1.40001
1.40001
1.40001
1.40001
1.40001
1.40001
1.40001
1.40001
1.40001
1.40001
1.40001
1.40001
1.40001
1.40001
1.40001
1.40001
1.40001
1.40001
1.40001
1.40001
1.40001
1.40001
1.40001
1.40001
1.40001
1.40001
1.40001
1.40001
1.40001
1.40001
1.40001
1.40001
1.40001
1.40001
1.40001
1.40001
1.40001
1.40001
1.40001
1.40001
1.40001
1.40001
1.40001
1.40001
1.40001
1.40001
1.40001
1.40001
1.40001
1.40001
1.40001
1.40001
1.40001
1.40001
1.40001
1.40001
1.40001
1.40001
1.40001
1.40001
1.40001
1.40001
1.40001
1.40001
1.40001
1.40001
1.40001
1.40001
1.40001
1.40001
1.40001
1.40001
1.40001
1.40001
1.40001
1.40001
1.40001
1.40001
1.40001
1.40001
1.40001
1.40001
1.40001
1.40001
1.40001
1.40001
1.40001
1.40001
1.40001
1.40001
1.40001
1.40001
1.40001
1.40001
1.40001
1.40001
1.40001
1.40001
1.40001
1.40001
1.40001
1.40001
1.40001
1.40001
1.40001
1.40001
1.40001
1.40001
1.40001
1.40001
1.40001
1.40001
1.40001
1.40001
1.40001
1.40001
1.40001
1.40001
1.40001
1.40001
1.40001
1.40001
1.40001
1.40001
1.40001
1.40001
1.40001
1.40001
1.40001
1.40001
1.40001
1.40001
1.40001
1.40001
1.40001
1.40001
1.40001
1.40001
1.40001
1.40001
1.40001
1.40001
1.40001
1.40001
1.40001
1.40001
1.40001
1.40001
1.40001
1.40001
1.40001
1.40001
1.40001
1.40001
1.40001
1.40001
1.40001
1.40001
1.40001
1.40001
1.40001
1.40001
1.40001
1.40001
1.40001
1.40001
1.40001
1.40001
1.40001
1.40001
1.40001
1.40001
1.40001
1.40001
1.40001
1.40001
1.40001
1.40001
1.40001
1.40001
1.40001
1.40001
1.40001
1.40001
1.40001
1.40001
1.40001
1.40001
1.40001
1.40001
1.40001
1.40001
1.40001
1.40001
1.40001
1.40001
1.40001
1.40001
1.40001
1.40001
1.40001
1.40001
1.40001
1.40001
1.40001
1.40001
1.40001
1.40001
1.40001
1.40001
1.40001
1.40001
1.40001
1.40001
1.40001
1.40001
1.40001
1.67618
2.09262
2.53531
2.98524
3.43449
3.81309
4.1397
4.41546
4.4198
4.29794
4.04152
3.72013
3.45943
3.37462
3.30385
3.30424
3.32624
3.35312
3.38478
3.41206
3.41778
3.41739
3.4173
3.42652
1.40273
1.41568
1.47756
1.58981
1.80027
2.10918
2.51534
2.97516
3.35686
3.54296
3.66543
3.61574
3.53821
3.49173
3.42707
3.38848
3.37318
3.35999
3.36624
3.3876
3.40246
3.40602
3.40864
3.41717
1.40001
1.39995
1.40022
1.40026
1.4032
1.42219
1.49505
1.71359
2.17956
2.89911
3.43359
3.72184
3.75817
3.71287
3.61468
3.47464
3.36502
3.32495
3.32818
3.34494
3.36727
3.37937
3.38612
3.39327
1.40001
1.4
1.4
1.4
1.39999
1.40004
1.39991
1.40179
1.42788
1.64005
2.16731
2.97979
3.42946
3.54945
3.53913
3.52024
3.43896
3.34871
3.33091
3.32577
3.32656
3.33661
3.35675
3.3715
1.40001
1.40001
1.4
1.4
1.4
1.4
1.39999
1.39999
1.39992
1.40122
1.43768
1.67313
2.33009
2.97517
3.44701
3.55011
3.52753
3.453
3.38423
3.33019
3.30296
3.30491
3.32025
3.34439
1.40001
1.40001
1.40001
1.40001
1.40001
1.4
1.4
1.4
1.4
1.4
1.39994
1.40221
1.47325
1.78777
2.51228
3.09962
3.43751
3.4437
3.41756
3.37421
3.327
3.29697
3.29448
3.30249
1.40001
1.40001
1.40001
1.40001
1.40001
1.40001
1.40001
1.40001
1.40001
1.4
1.4
1.39999
1.4001
1.40766
1.53506
2.01636
2.83351
3.21314
3.33501
3.36717
3.35638
3.3107
3.27805
3.27728
1.40001
1.40001
1.40001
1.40001
1.40001
1.40001
1.40001
1.40001
1.40001
1.40001
1.40001
1.4
1.4
1.39998
1.40111
1.43256
1.69405
2.35125
3.04497
3.35956
3.36629
3.34248
3.30587
3.29701
1.40001
1.40001
1.40001
1.40001
1.40001
1.40001
1.40001
1.40001
1.40001
1.40001
1.40001
1.40001
1.4
1.4
1.4
1.40001
1.40683
1.52345
1.9872
2.7172
3.22688
3.36421
3.35758
3.33835
1.40001
1.40001
1.40001
1.40001
1.40001
1.40001
1.40001
1.40001
1.40001
1.40001
1.40001
1.40001
1.40001
1.4
1.4
1.4
1.39999
1.40137
1.43634
1.74251
2.46424
3.08568
3.22358
3.29066
1.40001
1.40001
1.40001
1.40001
1.40001
1.40001
1.40001
1.40001
1.40001
1.40001
1.40001
1.40001
1.40001
1.40001
1.40001
1.4
1.4
1.4
1.40015
1.41569
1.57205
2.19384
2.88256
3.30895
1.40001
1.40001
1.40001
1.40001
1.40001
1.40001
1.40001
1.40001
1.40001
1.40001
1.40001
1.40001
1.40001
1.40001
1.40001
1.40001
1.4
1.4
1.4
1.40003
1.40429
1.50864
1.97505
2.80507
1.40001
1.40001
1.40001
1.40001
1.40001
1.40001
1.40001
1.40001
1.40001
1.40001
1.40001
1.40001
1.40001
1.40001
1.40001
1.40001
1.40001
1.40001
1.4
1.4
1.40001
1.40227
1.46316
1.81643
1.40001
1.40001
1.40001
1.40001
1.40001
1.40001
1.40001
1.40001
1.40001
1.40001
1.40001
1.40001
1.40001
1.40001
1.40001
1.40001
1.40001
1.40001
1.40001
1.4
1.4
1.4
1.40129
1.42258
1.40001
1.40001
1.40001
1.40001
1.40001
1.40001
1.40001
1.40001
1.40001
1.40001
1.40001
1.40001
1.40001
1.40001
1.40001
1.40001
1.40001
1.40001
1.40001
1.40001
1.4
1.4
1.40002
1.40001
1.40001
1.40001
1.40001
1.40001
1.40001
1.40001
1.40001
1.40001
1.40001
1.40001
1.40001
1.40001
1.40001
1.40001
1.40001
1.40001
1.40001
1.40001
1.40001
1.40001
1.40001
1.4
1.4
1.4
1.40001
1.40001
1.40001
1.40001
1.40001
1.40001
1.40001
1.40001
1.40001
1.40001
1.40001
1.40001
1.40001
1.40001
1.40001
1.40001
1.40001
1.40001
1.40001
1.40001
1.40001
1.4
1.4
1.4
1.40001
1.40001
1.40001
1.40001
1.40001
1.40001
1.40001
1.40001
1.40001
1.40001
1.40001
1.40001
1.40001
1.40001
1.40001
1.40001
1.40001
1.40001
1.40001
1.40001
1.4
1.4
1.40002
1.40001
1.40001
1.40001
1.40001
1.40001
1.40001
1.40001
1.40001
1.40001
1.40001
1.40001
1.40001
1.40001
1.40001
1.40001
1.40001
1.40001
1.40001
1.40001
1.40001
1.4
1.4
1.4
1.40129
1.42258
1.40001
1.40001
1.40001
1.40001
1.40001
1.40001
1.40001
1.40001
1.40001
1.40001
1.40001
1.40001
1.40001
1.40001
1.40001
1.40001
1.40001
1.40001
1.4
1.4
1.40001
1.40227
1.46315
1.81644
1.40001
1.40001
1.40001
1.40001
1.40001
1.40001
1.40001
1.40001
1.40001
1.40001
1.40001
1.40001
1.40001
1.40001
1.40001
1.40001
1.4
1.4
1.4
1.40003
1.40429
1.50864
1.97505
2.80508
1.40001
1.40001
1.40001
1.40001
1.40001
1.40001
1.40001
1.40001
1.40001
1.40001
1.40001
1.40001
1.40001
1.40001
1.40001
1.4
1.4
1.4
1.40015
1.41569
1.57205
2.19384
2.88256
3.30896
1.40001
1.40001
1.40001
1.40001
1.40001
1.40001
1.40001
1.40001
1.40001
1.40001
1.40001
1.40001
1.40001
1.4
1.4
1.4
1.39999
1.40137
1.43634
1.74251
2.46424
3.08568
3.22358
3.29066
1.40001
1.40001
1.40001
1.40001
1.40001
1.40001
1.40001
1.40001
1.40001
1.40001
1.40001
1.40001
1.4
1.4
1.4
1.40001
1.40683
1.52345
1.9872
2.7172
3.22688
3.36421
3.35758
3.33835
1.40001
1.40001
1.40001
1.40001
1.40001
1.40001
1.40001
1.40001
1.40001
1.40001
1.40001
1.4
1.4
1.39998
1.40111
1.43256
1.69405
2.35125
3.04497
3.35956
3.36629
3.34248
3.30587
3.29701
1.40001
1.40001
1.40001
1.40001
1.40001
1.40001
1.40001
1.40001
1.40001
1.4
1.4
1.39999
1.4001
1.40766
1.53506
2.01636
2.83351
3.21314
3.33501
3.36717
3.35638
3.3107
3.27805
3.27728
1.40001
1.40001
1.40001
1.40001
1.40001
1.4
1.4
1.4
1.4
1.4
1.39994
1.40221
1.47325
1.78777
2.51228
3.09962
3.43751
3.4437
3.41756
3.37421
3.327
3.29697
3.29448
3.30249
1.40001
1.40001
1.4
1.4
1.4
1.4
1.39999
1.39999
1.39992
1.40122
1.43768
1.67313
2.33009
2.97517
3.44701
3.55011
3.52753
3.453
3.38423
3.33019
3.30296
3.30491
3.32025
3.34439
1.40001
1.4
1.4
1.4
1.39999
1.40004
1.39991
1.40179
1.42788
1.64005
2.16731
2.97979
3.42946
3.54945
3.53913
3.52024
3.43896
3.34871
3.33091
3.32577
3.32656
3.33661
3.35675
3.3715
1.40001
1.39995
1.40022
1.40026
1.4032
1.42219
1.49505
1.71359
2.17956
2.89911
3.43359
3.72184
3.75817
3.71287
3.61468
3.47464
3.36502
3.32495
3.32818
3.34494
3.36727
3.37937
3.38612
3.39327
1.40273
1.41568
1.47756
1.58981
1.80027
2.10918
2.51534
2.97516
3.35686
3.54296
3.66543
3.61574
3.53821
3.49173
3.42707
3.38848
3.37318
3.35999
3.36624
3.3876
3.40246
3.40602
3.40864
3.41717
1.67618
2.09262
2.53531
2.98524
3.43449
3.81309
4.1397
4.41546
4.4198
4.29794
4.04152
3.72013
3.45943
3.37462
3.30385
3.30424
3.32624
3.35312
3.38478
3.41206
3.41778
3.41739
3.4173
3.42652
2.67037
1.94759
1.4033
1.15713
1.0236
0.955869
0.953834
0.970542
1.03526
1.11586
1.19012
1.23214
1.24901
1.26669
1.30071
1.33068
1.3368
1.34021
1.33902
1.33717
1.34151
1.34842
1.35526
1.42136
1.72723
2.53052
3.643
4.78552
5.8094
5.9874
5.68875
5.18621
4.8093
4.61063
4.4805
4.37113
4.25284
4.14284
4.04034
3.93733
3.82812
3.71104
3.58983
3.46835
3.35647
3.26652
3.19462
3.12857
3.06207
2.99233
2.91635
2.83327
2.74918
2.67454
2.61253
2.55955
2.51116
2.4618
2.4096
2.35875
2.31199
2.26789
2.22144
2.16815
2.10901
2.05156
2.00695
1.97854
1.95633
1.93093
1.90391
1.87538
1.84009
1.79107
1.73646
1.6947
1.66985
1.65292
1.64158
1.63146
1.62033
1.60308
1.60009
1.61765
1.67465
1.78358
1.95005
2.17088
2.39773
2.57823
2.72995
2.83709
2.91986
2.93719
2.95037
2.93574
3.15179
2.74689
2.34171
1.97158
1.73581
1.58519
1.44726
1.33525
1.29382
1.27281
1.24
1.21189
1.20864
1.22119
1.25293
1.29047
1.30312
1.30907
1.31152
1.31492
1.32564
1.33431
1.40509
1.82579
2.44896
2.77316
3.09979
3.48905
4.20481
4.82758
5.14554
5.08858
4.89265
4.69609
4.53292
4.39203
4.27567
4.17333
4.06773
3.96195
3.85283
3.73648
3.61825
3.50447
3.40607
3.31672
3.23652
3.16605
3.09925
3.03104
2.95782
2.87736
2.79376
2.718
2.65539
2.60024
2.54734
2.49587
2.44528
2.39542
2.3474
2.30174
2.25389
2.1999
2.14235
2.08902
2.0458
2.01329
1.9864
1.9579
1.92925
1.89988
1.86638
1.82193
1.76865
1.72445
1.6967
1.68023
1.67272
1.67419
1.69449
1.73736
1.8111
1.90011
1.98051
2.0523
2.12877
2.20771
2.27971
2.36233
2.43131
2.47427
2.5147
2.55566
2.57105
2.60616
3.32988
3.12018
2.80371
2.47317
2.14873
1.89503
1.72049
1.5483
1.39072
1.34094
1.30952
1.25745
1.23292
1.23352
1.2508
1.27759
1.29038
1.28947
1.29642
1.31692
1.32621
1.41338
1.90265
2.54813
2.91032
2.94049
2.9304
2.93497
3.07824
3.66026
4.46581
4.90037
4.93916
4.82484
4.58904
4.38555
4.24651
4.11881
3.99136
3.87019
3.76741
3.66935
3.57369
3.48117
3.38548
3.28235
3.18402
3.10235
3.03653
2.97723
2.91489
2.84296
2.76068
2.68246
2.61789
2.56646
2.51849
2.46857
2.41819
2.36693
2.31227
2.26056
2.21456
2.16659
2.1133
2.06222
2.02066
1.9876
1.95978
1.93048
1.89988
1.86728
1.83456
1.79128
1.75069
1.72583
1.71579
1.71904
1.74228
1.81565
1.90829
2.01561
2.11524
2.18501
2.20475
2.22456
2.22985
2.22151
2.20623
2.19821
2.18939
2.18011
2.18367
2.20517
2.23903
2.32997
3.35908
3.28463
3.08888
2.83501
2.54244
2.23048
2.04088
1.8898
1.66352
1.53068
1.50904
1.46433
1.36892
1.29177
1.28604
1.29564
1.28457
1.27516
1.28056
1.29521
1.4337
1.904
2.67179
2.85724
2.8941
2.90059
2.85097
2.77603
2.72564
2.78939
3.14557
3.88356
4.53443
4.59023
4.54889
4.42233
4.2628
4.10242
3.9578
3.82655
3.73202
3.66152
3.58272
3.49243
3.3882
3.27656
3.17155
3.07964
3.00733
2.95282
2.90023
2.83477
2.75304
2.67547
2.60864
2.55413
2.51156
2.47008
2.41823
2.36357
2.30802
2.25021
2.1977
2.14993
2.10189
2.05305
2.01224
1.98028
1.95256
1.92469
1.8953
1.86416
1.83622
1.79883
1.75667
1.76361
1.80998
1.90937
2.04434
2.17519
2.24779
2.32618
2.33292
2.32025
2.30529
2.29189
2.27432
2.24656
2.21648
2.18995
2.14811
2.08973
2.05091
2.0316
2.02784
2.05547
3.35047
3.33617
3.25309
3.07708
2.86155
2.57562
2.29281
2.15294
2.01088
1.76953
1.61186
1.58567
1.53209
1.42099
1.30831
1.2972
1.29164
1.28064
1.30146
1.5061
2.03048
2.67925
2.92703
2.892
2.82887
2.7701
2.69746
2.65385
2.63127
2.58207
2.58651
2.74607
3.32869
3.98924
4.36494
4.34597
4.25868
4.109
3.96368
3.84368
3.72739
3.61269
3.5074
3.41025
3.32522
3.25263
3.17706
3.09651
3.01342
2.9236
2.84592
2.79111
2.7475
2.69665
2.63904
2.57366
2.50652
2.44057
2.38254
2.33596
2.29897
2.25838
2.20868
2.15093
2.0921
2.04381
2.00547
1.97793
1.95239
1.92935
1.90392
1.88096
1.84695
1.84959
1.88719
1.99859
2.14172
2.28031
2.37858
2.44347
2.44821
2.41859
2.3614
2.33671
2.32021
2.30101
2.27674
2.25799
2.2334
2.18821
2.12892
2.06891
2.02897
2.00751
1.9941
1.96965
3.32612
3.32799
3.31426
3.22516
3.06153
2.86476
2.60299
2.3611
2.24178
2.08094
1.84628
1.7158
1.68979
1.62225
1.47054
1.37972
1.37691
1.41152
1.64166
2.22542
2.77348
2.97952
2.95012
2.85244
2.76178
2.68472
2.61422
2.57737
2.54684
2.48983
2.42615
2.36982
2.43652
2.79973
3.45191
3.974
4.05183
4.0261
3.93623
3.82334
3.70109
3.583
3.4676
3.36661
3.2891
3.22221
3.16187
3.10124
3.02001
2.92186
2.83304
2.75709
2.69363
2.6435
2.59974
2.55613
2.49738
2.42406
2.36277
2.32418
2.28899
2.24618
2.19682
2.1389
2.07995
2.0459
2.01561
1.98806
1.96431
1.95409
1.94524
1.96635
2.01814
2.10907
2.25177
2.39548
2.4926
2.55305
2.54948
2.53461
2.49876
2.42971
2.3831
2.3688
2.35941
2.3373
2.29953
2.25534
2.21212
2.16216
2.10792
2.07227
2.04336
2.01833
1.99368
1.95284
3.28852
3.30491
3.29964
3.28087
3.18845
3.03826
2.84568
2.60811
2.42627
2.30482
2.12745
1.90301
1.81616
1.7703
1.68002
1.55654
1.58379
1.86642
2.50597
3.00149
3.13722
3.07666
2.95444
2.84264
2.75426
2.66881
2.59794
2.55297
2.50238
2.43682
2.36225
2.31159
2.2524
2.25724
2.41633
2.91216
3.4889
3.8623
3.88401
3.82271
3.68042
3.53743
3.42495
3.33733
3.26731
3.20876
3.1492
3.08371
3.00842
2.91004
2.80349
2.72362
2.67087
2.62862
2.58796
2.5434
2.48919
2.42422
2.35526
2.29497
2.26103
2.23557
2.19893
2.14679
2.09135
2.04428
2.00911
1.99614
1.99449
2.03351
2.13384
2.27451
2.41353
2.51696
2.62367
2.648
2.63914
2.61734
2.58318
2.53427
2.47481
2.42795
2.39501
2.37037
2.34803
2.32053
2.28819
2.2487
2.20263
2.15499
2.10736
2.07072
2.04835
2.02337
1.99497
1.95177
3.28998
3.28863
3.28548
3.27425
3.24239
3.15575
3.02053
2.83748
2.60713
2.46973
2.35061
2.18987
1.97234
1.89073
1.84031
1.91704
2.32862
2.99075
3.40782
3.38908
3.28793
3.1533
3.01265
2.90032
2.80035
2.7087
2.62545
2.56131
2.49212
2.42072
2.33678
2.28182
2.22584
2.18215
2.13421
2.17944
2.45365
2.97965
3.52631
3.6836
3.61272
3.512
3.41565
3.33305
3.25074
3.18187
3.11455
3.04864
2.97823
2.88447
2.7787
2.70282
2.65309
2.60984
2.56858
2.52574
2.47673
2.42114
2.35782
2.28816
2.23422
2.1961
2.1601
2.12525
2.10053
2.05759
2.04995
2.09184
2.20891
2.39817
2.54763
2.67455
2.71623
2.74331
2.75634
2.74558
2.71406
2.66576
2.61103
2.53496
2.458
2.40555
2.37934
2.36356
2.34546
2.32173
2.29132
2.25401
2.21115
2.16391
2.1104
2.075
2.05348
2.02823
2.00394
1.96552
3.32623
3.31499
3.30553
3.29234
3.27365
3.23153
3.14256
3.00464
2.83537
2.63063
2.49493
2.36396
2.20063
2.11749
2.267
2.82458
3.54205
3.77627
3.71715
3.5572
3.3939
3.25446
3.12051
2.99777
2.8816
2.78054
2.69141
2.61573
2.53271
2.44592
2.35331
2.28218
2.22003
2.15901
2.10163
2.05506
2.03703
2.1392
2.52535
3.06618
3.40862
3.46436
3.43502
3.35153
3.24937
3.17314
3.09558
3.01214
2.92642
2.84128
2.75868
2.68389
2.62735
2.58141
2.54292
2.50922
2.47225
2.4182
2.34175
2.25915
2.20825
2.17945
2.1641
2.14232
2.15941
2.22407
2.35957
2.53337
2.71642
2.83357
2.82623
2.79592
2.77717
2.77195
2.76944
2.74329
2.71401
2.68107
2.62021
2.52912
2.44397
2.39959
2.38086
2.36697
2.34802
2.32617
2.30438
2.2817
2.24217
2.17363
2.10856
2.07803
2.05667
2.03186
2.01699
1.99091
3.32492
3.32433
3.31797
3.30399
3.28782
3.27191
3.2255
3.12771
2.9956
2.82129
2.67303
2.48494
2.50901
2.82107
3.52576
4.15041
4.24193
4.12209
3.91197
3.70931
3.53181
3.37979
3.24479
3.12248
3.00365
2.88707
2.77257
2.66406
2.56113
2.4654
2.38991
2.32017
2.24976
2.17351
2.10568
2.03741
1.98773
1.94831
1.97376
2.17616
2.61769
3.05566
3.29005
3.28443
3.26095
3.19006
3.10545
3.01845
2.9249
2.82682
2.73544
2.65997
2.60777
2.56338
2.5266
2.49751
2.45985
2.40509
2.3336
2.2647
2.22151
2.20172
2.21946
2.31176
2.4829
2.6974
2.87781
3.0092
3.04496
3.02475
2.96023
2.88198
2.82847
2.79107
2.76175
2.73582
2.71114
2.67761
2.61084
2.50629
2.43723
2.41137
2.39403
2.38112
2.36494
2.34439
2.31709
2.27953
2.22505
2.15425
2.11162
2.09156
2.06977
2.05011
2.03831
2.00251
3.34374
3.32999
3.30858
3.29415
3.28319
3.27438
3.25889
3.20958
3.09971
2.9806
2.84308
2.95664
3.53942
4.32081
4.68941
4.65176
4.47141
4.26753
4.07042
3.87684
3.68764
3.5113
3.35684
3.22246
3.10134
2.98532
2.87061
2.75092
2.63153
2.51237
2.41374
2.33194
2.2651
2.19215
2.12664
2.05603
1.99238
1.93851
1.9034
1.88616
1.95669
2.22642
2.6711
2.96847
3.14266
3.15513
3.12411
3.05069
2.93756
2.82466
2.72967
2.66177
2.61332
2.55893
2.50379
2.47187
2.43144
2.39394
2.34845
2.29532
2.30846
2.38961
2.57961
2.80748
2.97391
3.10325
3.1343
3.13188
3.10404
3.0373
2.94485
2.88866
2.85687
2.82506
2.79015
2.75938
2.72419
2.68244
2.6074
2.49434
2.44752
2.43038
2.41201
2.39654
2.3831
2.36592
2.33739
2.28682
2.21678
2.14965
2.12227
2.10675
2.08772
2.07081
2.05792
2.01463
3.18175
3.29894
3.34886
3.34689
3.32433
3.29583
3.27567
3.25443
3.18858
3.20214
3.56284
4.41151
5.14267
5.33923
5.22684
4.93881
4.65667
4.42099
4.21153
4.00814
3.81376
3.63725
3.4813
3.33739
3.20083
3.06533
2.93428
2.80835
2.69181
2.58296
2.48941
2.39248
2.28864
2.18876
2.11084
2.05082
2.00406
1.95807
1.90305
1.86279
1.81185
1.81548
1.92824
2.23731
2.6187
2.95109
2.98671
2.9504
2.89037
2.80533
2.73164
2.67501
2.61962
2.55465
2.49007
2.46532
2.44095
2.4196
2.46395
2.57806
2.77197
2.98512
3.16566
3.2603
3.30108
3.29064
3.26818
3.20607
3.11642
3.02417
2.93469
2.88652
2.86135
2.83494
2.80548
2.77617
2.73991
2.68678
2.6039
2.50922
2.47523
2.45802
2.43812
2.40975
2.39218
2.37569
2.34055
2.27571
2.20709
2.16187
2.14048
2.12468
2.10624
2.08901
2.07335
2.02209
2.58943
3.17871
3.31805
3.31326
3.29067
3.27424
3.27644
3.30115
3.47671
4.23863
5.40084
5.79739
5.71466
5.58243
5.37715
5.13841
4.88054
4.62048
4.36714
4.12572
3.90709
3.71851
3.5603
3.41883
3.28558
3.15025
3.01139
2.87062
2.73484
2.60913
2.50619
2.42143
2.33198
2.23719
2.1516
2.07479
2.00317
1.94239
1.8908
1.84517
1.78527
1.75221
1.70805
1.73488
1.90276
2.30554
2.67201
2.80569
2.81616
2.79323
2.75247
2.6953
2.62909
2.5653
2.49995
2.49232
2.54222
2.69929
2.95624
3.21529
3.3526
3.42281
3.40379
3.37356
3.34584
3.29917
3.25161
3.20928
3.13814
3.04526
2.96953
2.91405
2.8679
2.83214
2.81248
2.79393
2.76211
2.7028
2.61668
2.54488
2.50916
2.48704
2.46181
2.43118
2.41415
2.39092
2.33587
2.26169
2.21574
2.18192
2.15388
2.13615
2.11666
2.09746
2.07783
2.02274
1.73439
2.46261
3.00923
3.26566
3.28658
3.309
3.42188
3.85151
4.86982
6.03796
6.51458
6.41598
6.05395
5.70308
5.47889
5.27433
5.03428
4.76436
4.49017
4.23427
4.00919
3.81129
3.63657
3.4721
3.3169
3.17518
3.04796
2.92354
2.79755
2.67874
2.56312
2.45159
2.34784
2.26309
2.18186
2.09726
2.01704
1.95861
1.91339
1.8613
1.79493
1.72197
1.67345
1.64374
1.65042
1.72386
1.98606
2.32246
2.56332
2.68504
2.6863
2.67545
2.64228
2.64004
2.71401
2.87835
3.10467
3.37616
3.57536
3.6776
3.66047
3.62633
3.53677
3.42819
3.339
3.27656
3.23129
3.19005
3.12962
3.06157
3.00792
2.95695
2.90626
2.86004
2.81458
2.76537
2.72155
2.67245
2.61741
2.57549
2.54409
2.515
2.48177
2.43739
2.40111
2.37293
2.32194
2.26218
2.22586
2.19342
2.16733
2.14944
2.13062
2.11038
2.0872
2.0265
1.42788
1.63933
2.21347
2.87994
3.18108
3.67393
4.48959
5.54242
6.34102
6.59766
6.55311
6.44625
6.23646
5.93124
5.6408
5.3687
5.09819
4.83118
4.57123
4.32299
4.09541
3.88768
3.7011
3.52818
3.3642
3.20451
3.05008
2.91034
2.79964
2.71465
2.62462
2.52396
2.41384
2.27707
2.15573
2.11612
2.08489
2.04057
1.98794
1.92181
1.84063
1.72733
1.66037
1.6372
1.61546
1.59588
1.61992
1.74028
2.00914
2.3367
2.47832
2.62941
2.83914
3.06495
3.38657
3.57621
3.71366
3.79029
3.7795
3.75
3.68649
3.61629
3.53545
3.46459
3.39673
3.32128
3.23753
3.1611
3.10342
3.08038
3.04953
3.01023
2.96858
2.91986
2.85114
2.76907
2.69371
2.64866
2.62044
2.59986
2.57957
2.55164
2.51404
2.46191
2.40554
2.3681
2.3291
2.28756
2.25447
2.22306
2.19799
2.17995
2.16115
2.13824
2.11009
2.04312
1.40065
1.41471
1.56025
2.118
3.32429
4.65632
5.78385
6.66852
7.1094
6.88326
6.52368
6.39991
6.27979
6.06245
5.74556
5.40446
5.09117
4.82077
4.58545
4.36601
4.1523
3.93737
3.72544
3.52453
3.34449
3.18427
3.0454
2.92873
2.82386
2.71539
2.60106
2.4848
2.36765
2.26131
2.18809
2.1205
2.0488
1.98863
1.93213
1.86518
1.78626
1.71626
1.66356
1.6145
1.57649
1.55136
1.52563
1.53378
1.59167
1.82702
2.22429
2.81261
3.30214
3.63223
3.92329
4.02045
4.04794
4.01351
3.92615
3.78366
3.64795
3.55172
3.49201
3.43957
3.38137
3.31064
3.23071
3.14843
3.08795
3.04855
3.01459
2.97941
2.94506
2.90795
2.85427
2.76873
2.67788
2.6364
2.61429
2.58999
2.56648
2.53968
2.50498
2.45871
2.40055
2.34759
2.30092
2.26304
2.23391
2.2053
2.17995
2.15988
2.14098
2.11992
2.09301
2.0248
1.40065
1.41471
1.5603
2.11776
3.32428
4.65685
5.78359
6.66851
7.10943
6.88302
6.52325
6.39967
6.27974
6.06254
5.74568
5.40454
5.09123
4.82091
4.58571
4.36615
4.15215
3.93701
3.72503
3.52419
3.34431
3.18442
3.04594
2.9294
2.82453
2.71614
2.60159
2.48487
2.36704
2.26019
2.1873
2.12044
2.04885
1.9886
1.93203
1.86518
1.78626
1.71675
1.66385
1.61438
1.57646
1.55112
1.52559
1.53401
1.59348
1.79764
2.25458
2.77342
3.28071
3.71249
3.902
3.99687
4.04717
4.01756
3.89126
3.73565
3.62036
3.55089
3.49765
3.44022
3.38372
3.31433
3.22852
3.15135
3.09099
3.05251
3.01737
2.98045
2.94092
2.90309
2.85152
2.76611
2.68066
2.63286
2.60893
2.59735
2.58444
2.55684
2.51572
2.4648
2.40574
2.34877
2.29985
2.26203
2.23245
2.20416
2.18024
2.15991
2.14101
2.12038
2.0934
2.0248
1.42788
1.6393
2.21356
2.87967
3.18113
3.6744
4.48937
5.5424
6.34099
6.59759
6.55296
6.44614
6.23642
5.9313
5.64091
5.36881
5.09826
4.83122
4.57125
4.32304
4.09554
3.8879
3.70129
3.52825
3.36421
3.20457
3.05008
2.9101
2.7994
2.71513
2.62594
2.52494
2.41495
2.27841
2.15525
2.11473
2.08404
2.04017
1.98773
1.9218
1.8401
1.72645
1.66117
1.63786
1.61555
1.5964
1.61784
1.74688
2.00638
2.32488
2.51346
2.597
2.81608
3.15484
3.36794
3.54087
3.72868
3.77574
3.75052
3.72877
3.69496
3.64652
3.57219
3.47824
3.3761
3.28585
3.21388
3.15207
3.12049
3.09557
3.05738
3.01373
2.96309
2.89755
2.82638
2.75204
2.69695
2.65903
2.61955
2.58435
2.55842
2.52584
2.4827
2.44458
2.40477
2.35713
2.31479
2.283
2.25074
2.22187
2.20013
2.18134
2.16293
2.14026
2.11032
2.04031
1.7344
2.4626
3.00928
3.26561
3.2866
3.30904
3.42182
3.85138
4.86982
6.03797
6.51451
6.41597
6.05401
5.70319
5.47901
5.27443
5.03437
4.76444
4.4902
4.23426
4.00913
3.81118
3.63649
3.47203
3.31689
3.17528
3.04818
2.92384
2.79778
2.67862
2.56271
2.45129
2.34729
2.26291
2.18163
2.09753
2.0171
1.95869
1.91329
1.86101
1.79495
1.72236
1.6737
1.64388
1.65094
1.72238
1.97745
2.34999
2.54256
2.67939
2.68833
2.66919
2.64983
2.6626
2.71105
2.84299
3.08698
3.3791
3.5772
3.6867
3.6833
3.65827
3.56614
3.43152
3.32656
3.26437
3.22645
3.18284
3.12937
3.07076
3.01493
2.96233
2.91088
2.85791
2.80383
2.75419
2.72234
2.68498
2.62868
2.57239
2.54044
2.50947
2.47074
2.43798
2.40485
2.36718
2.32674
2.27517
2.21644
2.18465
2.16621
2.14787
2.12939
2.1103
2.08769
2.0266
2.58941
3.1787
3.31807
3.31327
3.29067
3.27424
3.27643
3.30114
3.47674
4.23871
5.40093
5.7974
5.7147
5.58248
5.3772
5.13843
4.88053
4.62044
4.36708
4.12563
3.90698
3.71843
3.56028
3.41888
3.28566
3.15032
3.01138
2.8706
2.7348
2.60892
2.50582
2.42116
2.33201
2.23726
2.15152
2.07478
2.00311
1.94248
1.89073
1.84508
1.78509
1.75225
1.70809
1.73373
1.90681
2.28554
2.69224
2.81316
2.80161
2.78429
2.75153
2.698
2.63174
2.5673
2.49612
2.48788
2.53547
2.70708
2.97138
3.24181
3.37387
3.42915
3.4001
3.35325
3.32517
3.2885
3.25457
3.21374
3.14213
3.05641
2.98016
2.9119
2.861
2.8314
2.80928
2.78973
2.76574
2.72006
2.62862
2.53702
2.49904
2.47769
2.46239
2.44649
2.42271
2.39089
2.34972
2.29102
2.21429
2.16952
2.15213
2.13361
2.11381
2.09728
2.08082
2.02647
3.18173
3.29893
3.34886
3.34689
3.32433
3.29583
3.27567
3.25443
3.18859
3.20215
3.56287
4.41152
5.14268
5.33927
5.22685
4.93879
4.65663
4.42092
4.21145
4.00807
3.81372
3.63724
3.48131
3.33741
3.20087
3.06538
2.93429
2.80832
2.69173
2.58287
2.48941
2.39262
2.28877
2.18875
2.11082
2.05064
2.00375
1.95766
1.9028
1.86254
1.81135
1.8155
1.92747
2.23756
2.6177
2.9423
2.99177
2.95516
2.89439
2.80808
2.73246
2.67634
2.61773
2.54934
2.48453
2.46161
2.43976
2.42181
2.46994
2.58053
2.76542
2.9798
3.15388
3.24234
3.28444
3.29191
3.27506
3.2134
3.12692
3.03457
2.93675
2.87811
2.8528
2.83012
2.79978
2.77056
2.74162
2.69798
2.60909
2.50957
2.47295
2.45074
2.43365
2.41597
2.39491
2.37047
2.34
2.29236
2.21741
2.16272
2.14035
2.12012
2.09833
2.08075
2.06565
2.01931
3.34374
3.32999
3.30858
3.29415
3.28319
3.27438
3.25889
3.20958
3.09971
2.9806
2.84307
2.95663
3.53938
4.3208
4.68939
4.65174
4.47138
4.26748
4.07037
3.87681
3.68764
3.51132
3.35688
3.22251
3.10138
2.98536
2.87061
2.75091
2.63151
2.51236
2.41371
2.33193
2.26518
2.19224
2.12671
2.0561
1.99251
1.93856
1.90335
1.88587
1.95619
2.2287
2.66618
2.97279
3.14309
3.15476
3.12372
3.05156
2.93812
2.82405
2.72932
2.66162
2.61161
2.55536
2.5014
2.47043
2.43115
2.39459
2.34856
2.29352
2.30486
2.38529
2.57459
2.80471
2.97509
3.11367
3.14214
3.13749
3.11013
3.04204
2.94293
2.87463
2.84841
2.82074
2.78774
2.7567
2.72467
2.68386
2.60792
2.49878
2.44786
2.42768
2.41319
2.40039
2.38048
2.35896
2.33749
2.30397
2.23265
2.15519
2.1245
2.1051
2.08115
2.05979
2.05037
2.0222
3.32492
3.32433
3.31797
3.30399
3.28782
3.27191
3.2255
3.12771
2.9956
2.82129
2.67303
2.48494
2.50901
2.82105
3.52574
4.1504
4.24191
4.12205
3.91195
3.70932
3.53183
3.37983
3.24484
3.12253
3.00368
2.8871
2.77257
2.66404
2.56109
2.46536
2.38987
2.32015
2.24981
2.17353
2.10571
2.03752
1.98779
1.94829
1.97369
2.17524
2.61885
3.05715
3.28612
3.28578
3.26194
3.19028
3.10564
3.01965
2.9249
2.82609
2.73549
2.65982
2.60763
2.5641
2.52859
2.49862
2.45998
2.40453
2.33289
2.26438
2.22125
2.20212
2.22058
2.3171
2.49052
2.70627
2.88547
3.01442
3.04867
3.02644
2.94993
2.88232
2.83307
2.79444
2.76202
2.73604
2.70896
2.67459
2.608
2.50201
2.4374
2.41771
2.40351
2.38976
2.3694
2.34557
2.31672
2.27865
2.22211