/*--------------------------------*- C++ -*----------------------------------*\
  =========                 |
  \\      /  F ield         | OpenFOAM: The Open Source CFD Toolbox
   \\    /   O peration     | Website:  https://openfoam.org
    \\  /    A nd           | Version:  7
     \\/     M anipulation  |
\*---------------------------------------------------------------------------*/
FoamFile
{
    version     2.0;
    format      ascii;
    class       volScalarField;
    location    "1.3";
    object      T;
}
// * * * * * * * * * * * * * * * * * * * * * * * * * * * * * * * * * * * * * //

dimensions      [0 0 0 1 0 0 0];

internalField   nonuniform List<scalar> 
4608
(
1
1
1
1
1
1
1
1
1
1
1
1
1
1
1
1
1
1
1
1
1
1
1
1
1
1
1
1
1
1
1
1
1
1
1
1
1
1
1
1
1
1
1
1
1
1
1
1
1
1
1
1
1
1
1
1
1
1
1
1
1
1
1
1
1
1
1
1
1
1
1
1
1
1
1
1
1
1
1
1
1
1
1
1
1
1
1
1
1
1
1
1
1
1
1
1
1
1
1
1
1
1
1
1
1
1
1
1
1
1
1
1
1
1
1
1
1
1
1
1
1
1
1
1
1
1
1
1
1
1
1
1
1
1
1
1
1
1
1
1
1
1
1
1
1
1
1
1
1
1
1
1
1
1
1
1
1
1
1
1
1
1
1
1
1
1
1
1
1
1
1
1
1
1
1
1
1
1
1
1
1
1
1
1
1
1
1
1
1
1
1
1
1
1
1
1
1
1
1
1
1
1
1
1
1
1
1
1
1
1
1
1
1
1
1
1
1
1
1
1
1
1
1
1
1
1
1
1
1
1
1
1
1
1
1
1
1
1
1
1
1
1
1
1
1
1
1
1
1
1
1
1
1
1
1
1
1
1
1
1
1
1
1
1
1
1
1
1
1
1
1
1
1
1
1
1
1
1
1
1
1
1
1
1
1
1
1
1
1
1
1
1
1
1
1
1
1
1
1
1
1
1
1
1
1
1
1
1
1
1
1
1
1
1
1
1
1
1
1
1
1
1
1
1
1
1
1
1
1
1
1
1
1
1
1
1
1
1
1
1
1
1
1
1
1
1
1
1
1
1
1
1
1
1
1
1
1
1
1
1
1
1
1
1
1
1
1
1
1
1
1
1
1
1
1
1
1
1
1
1
1
1
1
1
1
1
1
1
1
1
1
1
1
1
1
1
1
1
1
1
1
1
1
1
1
1
1
1
1
1
1
1
1
1
1
1
1
1
1
1
1
1
1
1
1
1
1
1
1
1
1
1
1
1
1
1
1
1
1
1
1
1
1
1
1
1
1
1
1
1
1
1
1
1
1
1
1
1
1
1
1
1
1
1
1
1
1
1
1
1
1
1
1
1
1
1
1
1
1
1
1
1
1
1
1
1
1
1
1
1
1
1
1
1
1
1
1
1
1
1
1
1
1
1
1
1
1
1
1
1
1
1
1
1
1
1
1
1
1
1
1
1
1
1
1
1
1
1
1
1
1
1
1
1
1
1
1
1
1
1
1
1
1
1
1
1
1
1
1
1
1
1
1
1
1
1
1
1
1
1
1
1
1
1
1
1
1
1
1
1
1
1
1
1
1
1
1
1
1
1
1
1
1
1
1
1
1
1
1
1
1
1
1
1
1
1
1
1
1
1
1
1
1
1
1
1
1
1
1
1
1
1
1
1
1
1
1
1
1
1
1
1
1
1
1
1
1
1
1
1
1
1
1
1
1
1
1
1
1
1
1
1
1
1
1
1
1
1
1
1
1
1
1
1
1
1
1
1
1
1
1
1
1
1
1
1
1
1
1
1
1
1
1
1
1
1
1
1
1
1
1
1
1
1
1
1
1
1
1
1
1
1
1
1
1
1
1
1
1
1
1
1
1
1
1
1
1
1
1
1
1
1
1
1
1
1
1
1
1
1
1
1
1
1
1
1
1
1
1
1
1
1
1
1
1
1
1
1
1
1
1
1
1
1
1
1
1
1
1
1
1
1
1
1
1
1
1
1
1
1
1
1
1
1
1
1
1
1
1.07809
1.18333
1.28773
1.389
1.48802
1.56959
1.63818
1.68458
1.69799
1.68123
1.63794
1.58566
1.54104
1.5263
1.51487
1.51511
1.51897
1.52386
1.52917
1.53417
1.53629
1.53708
1.53767
1.53979
1.00091
1.00567
1.02994
1.07256
1.14484
1.23222
1.32276
1.40799
1.47924
1.51909
1.54924
1.56268
1.55816
1.55442
1.54479
1.53662
1.53269
1.53007
1.53118
1.53493
1.53792
1.53913
1.5399
1.54132
1
0.999982
1.00007
1.0001
1.00122
1.00842
1.03661
1.11812
1.26644
1.45358
1.56625
1.62284
1.62186
1.6116
1.59292
1.56654
1.54505
1.53545
1.53609
1.54012
1.54467
1.54674
1.54693
1.54762
1
0.999999
0.999999
1
0.999996
1.00001
0.999966
1.0007
1.01193
1.10911
1.30505
1.50922
1.60423
1.60644
1.60428
1.59969
1.58155
1.55964
1.55629
1.55696
1.55725
1.55824
1.55943
1.56011
1
1
1
1
1
1
0.999996
0.999997
0.999964
1.00049
1.01656
1.12435
1.356
1.51571
1.62678
1.62907
1.62088
1.60314
1.58997
1.58035
1.57413
1.57152
1.57109
1.57275
1
1
1
1
1
1
1
1
0.999997
0.999997
0.999965
1.00087
1.0319
1.16853
1.40285
1.54359
1.61266
1.61524
1.61021
1.60147
1.59081
1.58333
1.57785
1.57876
1
1
1
1
1
1
1
1
1
1
0.999998
0.999993
1.00001
1.00302
1.05749
1.24631
1.47855
1.56657
1.5925
1.59919
1.59736
1.58913
1.58154
1.57907
1
1
1
1
1
1
1
1
1
1
1
0.999999
0.999999
0.99999
1.00036
1.01302
1.12269
1.34354
1.52361
1.59024
1.59586
1.592
1.58534
1.58239
1
1
1
1
1
1
1
1
1
1
1
1
1
0.999998
0.999999
0.999993
1.00247
1.0509
1.22242
1.43277
1.55358
1.58791
1.58905
1.58674
1
1
1
1
1
1
1
1
1
1
1
1
1
1
1
0.999999
0.999992
1.00045
1.01365
1.13651
1.35761
1.51486
1.55123
1.57097
1
1
1
1
1
1
1
1
1
1
1
1
1
1
1
1
0.999999
0.999997
1.00004
1.00561
1.06686
1.2793
1.46398
1.55761
1
1
1
1
1
1
1
1
1
1
1
1
1
1
1
1
1
1
0.999999
1
1.00144
1.04065
1.20928
1.43206
1
1
1
1
1
1
1
1
1
1
1
1
1
1
1
1
1
1
1
1
0.999999
1.00073
1.02279
1.15074
1
1
1
1
1
1
1
1
1
1
1
1
1
1
1
1
1
1
1
1
1
0.999999
1.00038
1.00795
1
1
1
1
1
1
1
1
1
1
1
1
1
1
1
1
1
1
1
1
1
1
1
0.999995
1
1
1
1
1
1
1
1
1
1
1
1
1
1
1
1
1
1
1
1
1
1
1
0.999998
1
1
1
1
1
1
1
1
1
1
1
1
1
1
1
1
1
1
1
1
1
1
1
0.999998
1
1
1
1
1
1
1
1
1
1
1
1
1
1
1
1
1
1
1
1
1
1
1
0.999995
1
1
1
1
1
1
1
1
1
1
1
1
1
1
1
1
1
1
1
1
1
0.999999
1.00038
1.00795
1
1
1
1
1
1
1
1
1
1
1
1
1
1
1
1
1
1
1
1
0.999999
1.00073
1.02279
1.15074
1
1
1
1
1
1
1
1
1
1
1
1
1
1
1
1
1
1
0.999999
1
1.00144
1.04065
1.20928
1.43206
1
1
1
1
1
1
1
1
1
1
1
1
1
1
1
1
0.999999
0.999997
1.00004
1.00561
1.06686
1.2793
1.46398
1.55761
1
1
1
1
1
1
1
1
1
1
1
1
1
1
1
0.999999
0.999992
1.00045
1.01365
1.13651
1.35761
1.51486
1.55123
1.57097
1
1
1
1
1
1
1
1
1
1
1
1
1
0.999998
0.999999
0.999993
1.00247
1.0509
1.22242
1.43277
1.55358
1.58791
1.58905
1.58674
1
1
1
1
1
1
1
1
1
1
1
0.999999
0.999999
0.99999
1.00036
1.01302
1.12269
1.34354
1.52361
1.59024
1.59586
1.592
1.58534
1.58239
1
1
1
1
1
1
1
1
1
1
0.999998
0.999993
1.00001
1.00302
1.05749
1.24631
1.47855
1.56657
1.5925
1.59919
1.59736
1.58913
1.58154
1.57907
1
1
1
1
1
1
1
1
0.999997
0.999997
0.999965
1.00087
1.0319
1.16853
1.40285
1.54359
1.61266
1.61524
1.61021
1.60147
1.59081
1.58333
1.57785
1.57876
1
1
1
1
1
1
0.999996
0.999997
0.999964
1.00049
1.01656
1.12435
1.356
1.51571
1.62678
1.62907
1.62088
1.60314
1.58997
1.58035
1.57413
1.57152
1.57109
1.57275
1
0.999999
0.999999
1
0.999996
1.00001
0.999966
1.0007
1.01193
1.10911
1.30505
1.50922
1.60423
1.60644
1.60428
1.59969
1.58155
1.55964
1.55629
1.55696
1.55725
1.55824
1.55943
1.56011
1
0.999982
1.00007
1.0001
1.00122
1.00842
1.03661
1.11812
1.26644
1.45358
1.56625
1.62284
1.62186
1.6116
1.59292
1.56654
1.54505
1.53545
1.53609
1.54012
1.54467
1.54674
1.54693
1.54762
1.00091
1.00567
1.02994
1.07256
1.14484
1.23222
1.32276
1.40799
1.47924
1.51909
1.54924
1.56268
1.55816
1.55442
1.54479
1.53662
1.53269
1.53007
1.53118
1.53493
1.53792
1.53913
1.5399
1.54132
1.07809
1.18333
1.28773
1.389
1.48802
1.56959
1.63818
1.68458
1.69799
1.68123
1.63794
1.58566
1.54104
1.5263
1.51487
1.51511
1.51897
1.52386
1.52917
1.53417
1.53629
1.53708
1.53767
1.53979
1.39849
1.23791
1.09643
1.02381
0.986998
0.996071
1.00256
1.01034
1.03284
1.05292
1.06901
1.08293
1.09448
1.10417
1.11069
1.11132
1.10944
1.1091
1.10987
1.11195
1.11227
1.11162
1.11251
1.13792
1.2644
1.51191
1.75556
1.97238
2.1377
2.18385
2.1409
2.06248
1.99955
1.96493
1.94177
1.92271
1.90274
1.88384
1.86542
1.84593
1.82444
1.80109
1.77684
1.75242
1.72973
1.71133
1.69639
1.68209
1.66706
1.65103
1.63359
1.61432
1.5943
1.57616
1.56126
1.549
1.53795
1.52619
1.51291
1.49917
1.48606
1.47357
1.46057
1.4459
1.42976
1.41393
1.40121
1.39271
1.38591
1.37829
1.37034
1.36195
1.35134
1.33613
1.31845
1.30429
1.29561
1.28977
1.28612
1.28303
1.27978
1.27512
1.27385
1.27986
1.29907
1.33364
1.38218
1.4421
1.49905
1.54208
1.57788
1.60326
1.62271
1.62731
1.63029
1.62793
1.49521
1.41772
1.33098
1.23878
1.17283
1.13845
1.10392
1.07371
1.06388
1.0562
1.0467
1.04916
1.05315
1.06028
1.0691
1.07711
1.07994
1.08198
1.08464
1.08862
1.09132
1.09447
1.12167
1.28911
1.48353
1.55954
1.63537
1.72462
1.86688
1.97651
2.04083
2.03552
2.00889
1.97873
1.9518
1.92784
1.90834
1.89032
1.87107
1.85104
1.8293
1.80647
1.78325
1.76065
1.74078
1.72234
1.70555
1.69041
1.67536
1.65978
1.64325
1.62491
1.60516
1.5868
1.57172
1.55907
1.54729
1.53523
1.52231
1.50886
1.49554
1.48276
1.46944
1.45454
1.43881
1.42424
1.41218
1.40275
1.3947
1.38619
1.37782
1.3693
1.35945
1.34575
1.32863
1.31378
1.30416
1.29846
1.29606
1.29692
1.30402
1.31849
1.34269
1.36929
1.39148
1.41001
1.42954
1.4493
1.46797
1.49052
1.50893
1.52064
1.53075
1.54083
1.54323
1.55095
1.53236
1.4909
1.42811
1.35753
1.28206
1.21897
1.17262
1.12506
1.08101
1.06347
1.05443
1.04312
1.03714
1.03691
1.04012
1.0479
1.05467
1.05594
1.0595
1.06682
1.07109
1.10665
1.2887
1.48491
1.5744
1.58964
1.5885
1.59097
1.62974
1.77003
1.93541
2.01302
2.02234
2.00361
1.96421
1.9299
1.90532
1.88273
1.85961
1.83635
1.8152
1.79543
1.77639
1.75789
1.73854
1.71732
1.69669
1.67865
1.66324
1.64923
1.63498
1.61862
1.59935
1.58045
1.5648
1.55249
1.54113
1.52913
1.51621
1.50248
1.48766
1.47335
1.46034
1.44682
1.43201
1.41772
1.40572
1.39593
1.38769
1.37914
1.3703
1.36084
1.35084
1.33701
1.32326
1.31425
1.30996
1.31107
1.31926
1.34398
1.37342
1.40686
1.43577
1.45308
1.45599
1.4593
1.45845
1.45541
1.45018
1.4487
1.44756
1.44743
1.44923
1.45628
1.46499
1.48964
1.55239
1.53283
1.49154
1.43919
1.37608
1.30389
1.25738
1.21913
1.15906
1.11954
1.1116
1.09815
1.07076
1.04609
1.04374
1.04729
1.04419
1.04411
1.04631
1.05211
1.11055
1.29099
1.51526
1.56111
1.57346
1.58067
1.57165
1.55753
1.5487
1.5665
1.66378
1.83465
1.97038
1.97011
1.96251
1.94036
1.91305
1.88522
1.8582
1.83214
1.81305
1.79817
1.78165
1.76316
1.74222
1.71983
1.69778
1.67709
1.66033
1.64731
1.63479
1.6196
1.60087
1.58257
1.56626
1.55232
1.54113
1.53057
1.51746
1.50327
1.48853
1.47277
1.45813
1.44484
1.43156
1.41752
1.40504
1.39501
1.38669
1.37882
1.37061
1.36167
1.35266
1.34026
1.3254
1.32716
1.34139
1.37245
1.41226
1.44964
1.47076
1.49388
1.49505
1.49055
1.48491
1.48018
1.47459
1.46661
1.45764
1.44979
1.43935
1.42515
1.41517
1.41068
1.40888
1.41712
1.56798
1.5591
1.53692
1.49846
1.45273
1.39066
1.3251
1.2909
1.25695
1.19593
1.1483
1.138
1.12123
1.08949
1.05545
1.05056
1.04788
1.0458
1.0549
1.14019
1.33385
1.52363
1.58481
1.57677
1.565
1.55561
1.54233
1.53415
1.5294
1.51712
1.51876
1.56675
1.72518
1.86831
1.94084
1.93642
1.92042
1.89268
1.86329
1.8384
1.81548
1.79227
1.77035
1.75013
1.73268
1.71767
1.70123
1.68348
1.66488
1.64387
1.62505
1.6118
1.60158
1.58969
1.57567
1.55931
1.5423
1.52527
1.51001
1.49747
1.48726
1.47625
1.463
1.44733
1.43073
1.41637
1.40449
1.39575
1.38797
1.38133
1.37405
1.36738
1.35675
1.35743
1.3688
1.40226
1.44217
1.47905
1.50474
1.52343
1.52693
1.51992
1.50487
1.49736
1.49224
1.48635
1.47892
1.4726
1.46508
1.45282
1.43741
1.42147
1.41054
1.4047
1.40096
1.39345
1.5777
1.5744
1.56679
1.54401
1.50778
1.46472
1.40718
1.35121
1.32178
1.28164
1.22068
1.18162
1.17274
1.15343
1.1111
1.08154
1.08018
1.094
1.1858
1.3917
1.54859
1.60193
1.59596
1.5751
1.55639
1.5401
1.52443
1.51618
1.50848
1.4939
1.47697
1.46171
1.48249
1.59097
1.75498
1.87348
1.88325
1.87775
1.85953
1.83665
1.8124
1.78913
1.76598
1.74501
1.72825
1.71339
1.70007
1.68696
1.66867
1.64579
1.62434
1.60571
1.59025
1.57845
1.56819
1.55765
1.54291
1.52376
1.50716
1.49616
1.48616
1.47472
1.46182
1.44581
1.42834
1.4177
1.40841
1.40017
1.39316
1.39005
1.38729
1.39405
1.41133
1.43984
1.481
1.5173
1.53999
1.5545
1.55383
1.55107
1.5432
1.527
1.51426
1.509
1.50513
1.49792
1.48672
1.47415
1.46231
1.44869
1.43377
1.42393
1.41588
1.40873
1.4016
1.38935
1.5799
1.57979
1.57733
1.57119
1.54986
1.51656
1.47336
1.41918
1.37544
1.34481
1.30043
1.24048
1.21455
1.20113
1.17674
1.1439
1.15894
1.27716
1.48236
1.60976
1.64026
1.62716
1.60115
1.57719
1.55714
1.53709
1.52036
1.50763
1.49333
1.47603
1.45615
1.44201
1.42494
1.42679
1.4783
1.6237
1.76289
1.84079
1.84678
1.83488
1.80758
1.78024
1.7579
1.73932
1.72397
1.71098
1.69786
1.68315
1.66622
1.64386
1.6186
1.59912
1.58666
1.57702
1.56756
1.5566
1.54243
1.52512
1.5068
1.49041
1.48109
1.47414
1.46388
1.44884
1.43219
1.41791
1.40728
1.40315
1.40304
1.41512
1.44504
1.48585
1.5251
1.55344
1.58218
1.58343
1.58039
1.57436
1.56621
1.55471
1.54018
1.52829
1.5191
1.51135
1.5038
1.49482
1.48489
1.47392
1.46169
1.44878
1.43521
1.42471
1.41811
1.4108
1.4025
1.38941
1.58168
1.58148
1.58056
1.57764
1.57036
1.5514
1.52158
1.48072
1.42739
1.39292
1.36248
1.3227
1.26625
1.24193
1.22957
1.26088
1.40669
1.59514
1.69632
1.69276
1.67167
1.64253
1.61211
1.58749
1.56456
1.54237
1.52102
1.50459
1.48679
1.46748
1.44425
1.4278
1.41192
1.3992
1.38502
1.40013
1.49001
1.63588
1.76224
1.79621
1.78396
1.76829
1.75193
1.735
1.71714
1.70196
1.68714
1.67279
1.65745
1.63634
1.61171
1.5938
1.58232
1.57249
1.56288
1.55241
1.53986
1.52521
1.50842
1.49009
1.47532
1.46431
1.45363
1.44321
1.43549
1.42262
1.42129
1.43456
1.47001
1.52212
1.5601
1.59195
1.60373
1.61124
1.61309
1.60994
1.6012
1.58835
1.57461
1.55612
1.53705
1.52283
1.5152
1.51004
1.50382
1.496
1.48678
1.47618
1.46481
1.45226
1.437
1.4261
1.41914
1.4114
1.40425
1.39307
1.58662
1.58607
1.58513
1.58296
1.57895
1.57006
1.55178
1.52287
1.48581
1.43879
1.40498
1.37286
1.33048
1.3143
1.37042
1.54766
1.71739
1.76519
1.75363
1.72228
1.68902
1.65956
1.63064
1.60322
1.57616
1.55128
1.52839
1.50895
1.48772
1.465
1.44119
1.42258
1.40523
1.38694
1.36957
1.35525
1.35111
1.38609
1.50704
1.64624
1.72289
1.74724
1.74373
1.72882
1.70794
1.69124
1.67481
1.65787
1.64062
1.62248
1.6037
1.58621
1.573
1.56237
1.55372
1.54616
1.53737
1.52362
1.5032
1.48073
1.46639
1.45795
1.45367
1.44777
1.45311
1.47374
1.51465
1.56217
1.60781
1.63273
1.62952
1.6217
1.61774
1.61623
1.61526
1.6085
1.60073
1.59158
1.57543
1.55273
1.53155
1.52019
1.51464
1.5098
1.50318
1.49574
1.48909
1.48309
1.473
1.45486
1.43607
1.42577
1.41823
1.41003
1.40546
1.39852
1.58166
1.58213
1.58197
1.58077
1.57829
1.57629
1.56877
1.55024
1.52307
1.48537
1.45139
1.40831
1.41826
1.51833
1.69807
1.83803
1.84724
1.82419
1.78398
1.74417
1.70843
1.67685
1.64776
1.6204
1.59303
1.5654
1.53756
1.51045
1.48478
1.46094
1.44149
1.42328
1.4042
1.38362
1.36538
1.34631
1.3303
1.31801
1.32743
1.39591
1.5239
1.63909
1.69339
1.69896
1.69484
1.68091
1.66441
1.64838
1.6317
1.61168
1.59034
1.5725
1.56095
1.55159
1.54433
1.53873
1.53028
1.51575
1.49599
1.47609
1.4654
1.46201
1.46784
1.49583
1.54487
1.60212
1.64494
1.67465
1.67784
1.67294
1.65764
1.63895
1.62611
1.61732
1.61057
1.60409
1.59725
1.58735
1.56905
1.5425
1.52616
1.52012
1.51506
1.51017
1.50394
1.49687
1.48902
1.48005
1.46661
1.44766
1.43451
1.42683
1.4188
1.41201
1.40841
1.40003
1.57842
1.57676
1.57325
1.5726
1.57279
1.57405
1.57233
1.56347
1.542
1.51769
1.49177
1.52838
1.68538
1.85436
1.92003
1.91133
1.87708
1.83844
1.80085
1.76358
1.72667
1.69116
1.65871
1.62936
1.60209
1.57542
1.54867
1.52064
1.49249
1.46323
1.4381
1.41712
1.39984
1.38122
1.36407
1.34453
1.3261
1.31131
1.30162
1.29808
1.32236
1.41171
1.5367
1.61004
1.65099
1.65909
1.65404
1.64254
1.62327
1.59972
1.5768
1.56119
1.55172
1.54154
1.53107
1.52458
1.51483
1.50487
1.49277
1.48016
1.48519
1.51062
1.56381
1.62452
1.66485
1.6921
1.69159
1.68914
1.68115
1.66584
1.64521
1.63279
1.62609
1.61944
1.61196
1.60463
1.59481
1.5823
1.56247
1.5355
1.52438
1.51961
1.51365
1.50804
1.50357
1.49855
1.49135
1.47918
1.46148
1.44317
1.4338
1.42754
1.42037
1.4146
1.41085
1.40137
1.53123
1.55763
1.57144
1.57646
1.57501
1.5729
1.5706
1.56742
1.55638
1.56221
1.662
1.84458
1.98176
2.00902
1.98862
1.94021
1.89153
1.84962
1.8113
1.77325
1.73602
1.7012
1.66969
1.64006
1.61087
1.58111
1.55183
1.52385
1.49759
1.47194
1.44892
1.42458
1.39868
1.3736
1.35338
1.33731
1.3251
1.3136
1.299
1.28765
1.27252
1.27507
1.31765
1.41607
1.52027
1.59578
1.61143
1.60629
1.59774
1.58317
1.56742
1.55411
1.54209
1.52931
1.51705
1.51247
1.50641
1.5039
1.51594
1.54849
1.60048
1.65209
1.69184
1.71691
1.72259
1.71929
1.71243
1.69717
1.67567
1.65394
1.6346
1.62535
1.62044
1.61506
1.60873
1.60133
1.59098
1.57651
1.55645
1.53427
1.52518
1.51975
1.51314
1.50443
1.49991
1.49622
1.48848
1.47342
1.45611
1.44335
1.43591
1.42971
1.42276
1.417
1.41263
1.40166
1.38412
1.52025
1.55494
1.56394
1.5636
1.56346
1.56521
1.57229
1.6133
1.77984
1.99719
2.05358
2.04127
2.02056
1.98752
1.94921
1.90774
1.86513
1.82235
1.77949
1.73867
1.70253
1.67191
1.64415
1.61727
1.58916
1.55954
1.52898
1.49879
1.47045
1.44678
1.42662
1.40451
1.38024
1.358
1.33881
1.32161
1.30656
1.29305
1.28043
1.26335
1.25323
1.24084
1.25184
1.31142
1.43249
1.52803
1.55893
1.56957
1.56831
1.56224
1.54908
1.53343
1.52106
1.50883
1.51056
1.52592
1.56681
1.62793
1.68867
1.71924
1.73266
1.72841
1.72204
1.71556
1.70585
1.6962
1.68687
1.66997
1.64899
1.63375
1.62356
1.61529
1.60815
1.603
1.5977
1.58865
1.57379
1.55388
1.53659
1.52733
1.52123
1.51416
1.50514
1.50002
1.49436
1.48211
1.46572
1.45499
1.44601
1.43746
1.43077
1.42352
1.41736
1.41223
1.40042
1.12742
1.34978
1.48273
1.53863
1.55148
1.56194
1.59078
1.68411
1.87343
2.06158
2.13411
2.12113
2.0718
2.01997
1.98475
1.95247
1.91504
1.87321
1.82978
1.78651
1.74588
1.70903
1.67599
1.64456
1.61508
1.58781
1.56246
1.53614
1.50842
1.4819
1.45579
1.42986
1.40489
1.38401
1.36325
1.34178
1.32218
1.30794
1.29667
1.28299
1.26469
1.24352
1.22902
1.21999
1.22253
1.25016
1.34016
1.43555
1.49872
1.53353
1.53868
1.536
1.52808
1.53177
1.55643
1.60115
1.65439
1.71028
1.74748
1.77086
1.76968
1.76531
1.74853
1.72514
1.70548
1.69146
1.68213
1.67313
1.66002
1.64522
1.6343
1.62481
1.61623
1.60785
1.59805
1.58574
1.57405
1.56166
1.54833
1.53822
1.53085
1.52413
1.51599
1.50407
1.49385
1.48684
1.47535
1.46192
1.45377
1.44574
1.43817
1.43189
1.42539
1.41943
1.41365
1.40057
1.00988
1.09041
1.28159
1.44982
1.51549
1.6297
1.79369
1.96362
2.07774
2.11828
2.11678
2.10665
2.07916
2.03585
1.99342
1.95397
1.91499
1.87581
1.8357
1.7948
1.75495
1.71719
1.68281
1.65102
1.62088
1.59083
1.56055
1.53146
1.50736
1.4886
1.46845
1.4454
1.41962
1.38675
1.35584
1.34599
1.33903
1.32881
1.31603
1.29927
1.27756
1.24501
1.22456
1.21778
1.21123
1.20529
1.2141
1.25758
1.34461
1.44176
1.48114
1.521
1.57607
1.62676
1.69848
1.74522
1.77342
1.78252
1.77954
1.77479
1.76624
1.7564
1.74213
1.72628
1.71151
1.69621
1.67929
1.66321
1.651
1.64616
1.63988
1.63254
1.62533
1.61678
1.60308
1.58391
1.56503
1.55311
1.54565
1.54091
1.53691
1.53119
1.52239
1.50882
1.49365
1.48484
1.47637
1.46695
1.45947
1.45186
1.44472
1.43876
1.43275
1.42637
1.41935
1.4047
1.00019
1.00507
1.06008
1.24163
1.54584
1.80915
1.99426
2.11574
2.17761
2.15169
2.10867
2.093
2.07692
2.04674
2.00233
1.95444
1.91071
1.87187
1.83572
1.79986
1.76295
1.72444
1.68601
1.64953
1.61632
1.58589
1.55855
1.53457
1.51211
1.48841
1.46279
1.4361
1.40854
1.38266
1.36397
1.34681
1.32905
1.31425
1.30021
1.28311
1.26175
1.24125
1.22526
1.21047
1.19867
1.19084
1.18172
1.18447
1.20649
1.29098
1.41262
1.57044
1.68334
1.74694
1.8015
1.83314
1.83278
1.82505
1.8081
1.78226
1.75818
1.74106
1.72903
1.71759
1.70511
1.69101
1.67517
1.65855
1.64593
1.63784
1.63119
1.62497
1.61938
1.61306
1.60229
1.58296
1.56052
1.54886
1.54273
1.5373
1.53302
1.52794
1.51988
1.50745
1.49163
1.4786
1.46831
1.46034
1.4542
1.44734
1.43999
1.43317
1.42693
1.42106
1.41439
1.39938
1.00019
1.00507
1.06009
1.24156
1.54584
1.8093
1.99426
2.11571
2.17761
2.15166
2.10862
2.09298
2.07691
2.04675
2.00234
1.95445
1.91072
1.87189
1.83576
1.79988
1.76292
1.72438
1.68593
1.64947
1.61628
1.58592
1.55867
1.53472
1.51226
1.48859
1.46293
1.43613
1.40839
1.38238
1.36377
1.34679
1.32906
1.31423
1.30018
1.28311
1.26174
1.24137
1.22533
1.21043
1.19866
1.19075
1.18175
1.1846
1.20742
1.28159
1.42194
1.5592
1.67247
1.76422
1.80332
1.82216
1.83084
1.8257
1.80274
1.77384
1.75245
1.73956
1.72895
1.71751
1.70563
1.6914
1.67427
1.65866
1.6464
1.63883
1.63204
1.62543
1.61863
1.61192
1.60168
1.58266
1.56132
1.54781
1.54089
1.53847
1.53662
1.53165
1.52226
1.50867
1.49252
1.47823
1.46762
1.46015
1.45406
1.44719
1.43998
1.43284
1.42647
1.42073
1.4142
1.39932
1.00988
1.0904
1.28162
1.44975
1.51549
1.62984
1.79366
1.96358
2.07771
2.11828
2.11678
2.10664
2.07916
2.03585
1.99343
1.95399
1.915
1.87582
1.8357
1.79481
1.75498
1.71722
1.68284
1.65103
1.62088
1.59084
1.56056
1.53141
1.50731
1.48871
1.46878
1.44567
1.41988
1.38706
1.35571
1.34561
1.33879
1.32869
1.31597
1.29925
1.27738
1.24471
1.2248
1.21798
1.21126
1.2054
1.21334
1.25992
1.34494
1.43715
1.4909
1.51296
1.5675
1.65172
1.70092
1.73219
1.76729
1.77903
1.77495
1.77178
1.76764
1.76039
1.74716
1.72845
1.70785
1.68891
1.67339
1.66009
1.6543
1.64968
1.64224
1.63413
1.62487
1.61251
1.59797
1.58048
1.5661
1.55555
1.54503
1.53662
1.53166
1.52533
1.51534
1.50454
1.49278
1.48064
1.47195
1.46618
1.45914
1.45178
1.44501
1.43839
1.43224
1.42595
1.41878
1.40397
1.12742
1.34978
1.48274
1.53863
1.55149
1.56195
1.59076
1.68407
1.87342
2.0616
2.13411
2.12113
2.07181
2.01998
1.98477
1.95248
1.91506
1.87323
1.82979
1.7865
1.74586
1.709
1.67597
1.64455
1.61508
1.58783
1.56251
1.53621
1.50847
1.48188
1.45572
1.42981
1.40476
1.38393
1.36319
1.34183
1.32217
1.30795
1.29664
1.2829
1.2647
1.24364
1.22912
1.22004
1.22269
1.24943
1.33766
1.44324
1.49349
1.53101
1.53977
1.53553
1.53057
1.53779
1.55652
1.59113
1.64699
1.70967
1.75055
1.77071
1.77444
1.77042
1.75352
1.72588
1.7037
1.68928
1.68001
1.67009
1.65913
1.64756
1.63688
1.627
1.6179
1.60808
1.59635
1.58373
1.57477
1.56496
1.55117
1.53804
1.53093
1.52402
1.51464
1.50537
1.4955
1.48524
1.47608
1.46542
1.45207
1.44328
1.43701
1.43027
1.42384
1.4185
1.41331
1.40084
1.38411
1.52025
1.55494
1.56394
1.5636
1.56346
1.56521
1.57229
1.61331
1.77986
1.9972
2.05358
2.04127
2.02057
1.98753
1.94921
1.90774
1.86513
1.82234
1.77947
1.73865
1.70252
1.67191
1.64416
1.61729
1.58917
1.55953
1.52897
1.49878
1.47041
1.4467
1.42656
1.40454
1.38029
1.35797
1.33876
1.32155
1.30658
1.29303
1.2804
1.2633
1.25325
1.24087
1.25144
1.31268
1.42671
1.5328
1.56138
1.56421
1.56701
1.5619
1.54942
1.53435
1.52178
1.50825
1.50939
1.52376
1.56857
1.63268
1.69437
1.72203
1.73326
1.72774
1.71819
1.71137
1.70336
1.69593
1.68683
1.67043
1.65209
1.63719
1.62377
1.61384
1.60795
1.60281
1.59751
1.59015
1.57799
1.55657
1.53518
1.52558
1.51961
1.51488
1.51003
1.5031
1.49456
1.48526
1.47303
1.4555
1.44241
1.43568
1.42845
1.42126
1.41653
1.41291
1.40202
1.53123
1.55763
1.57144
1.57646
1.57501
1.5729
1.5706
1.56742
1.55638
1.56221
1.66201
1.84459
1.98176
2.00902
1.98862
1.94021
1.89153
1.84961
1.81128
1.77324
1.73601
1.7012
1.6697
1.64007
1.61088
1.58111
1.55183
1.52384
1.49757
1.47193
1.44892
1.42461
1.39872
1.3736
1.35337
1.33726
1.325
1.31348
1.29892
1.28757
1.27242
1.27507
1.31739
1.416
1.51992
1.59306
1.61229
1.60751
1.5988
1.58373
1.56736
1.5541
1.54136
1.52803
1.51581
1.51169
1.50626
1.50483
1.51784
1.54953
1.59863
1.65077
1.68996
1.71189
1.71944
1.71833
1.71334
1.69877
1.67831
1.65708
1.63594
1.6238
1.6184
1.614
1.60787
1.6007
1.59191
1.57909
1.55726
1.53446
1.52545
1.51884
1.51267
1.50643
1.49988
1.49397
1.48803
1.47822
1.46003
1.44367
1.43501
1.42705
1.41919
1.41399
1.41065
1.40169
1.57842
1.57676
1.57325
1.5726
1.57279
1.57405
1.57233
1.56347
1.54199
1.51769
1.49177
1.52837
1.68537
1.85436
1.92003
1.91133
1.87708
1.83843
1.80084
1.76358
1.72667
1.69117
1.65872
1.62937
1.6021
1.57542
1.54867
1.52064
1.49249
1.46322
1.43809
1.41712
1.39986
1.38124
1.3641
1.34457
1.32615
1.31131
1.30159
1.29798
1.32223
1.41235
1.53541
1.61104
1.65137
1.6588
1.65373
1.64248
1.62335
1.59981
1.57708
1.56128
1.5512
1.54057
1.53032
1.52415
1.51481
1.50511
1.49285
1.4797
1.48417
1.50933
1.56226
1.62294
1.66484
1.69378
1.69364
1.69061
1.68242
1.66699
1.64493
1.62979
1.62429
1.6185
1.61154
1.60424
1.59521
1.58273
1.56226
1.53633
1.52458
1.51923
1.51432
1.50924
1.50228
1.49596
1.49104
1.48398
1.46685
1.44512
1.434
1.42619
1.4175
1.41097
1.409
1.40394
1.58166
1.58213
1.58197
1.58077
1.57829
1.57629
1.56877
1.55024
1.52307
1.48537
1.45139
1.40831
1.41825
1.51832
1.69806
1.83803
1.84723
1.82418
1.78397
1.74417
1.70843
1.67686
1.64777
1.62041
1.59303
1.56541
1.53756
1.51044
1.48477
1.46094
1.44148
1.42328
1.40421
1.38362
1.3654
1.34634
1.33033
1.31799
1.3274
1.39563
1.52422
1.63934
1.69259
1.69922
1.69498
1.68096
1.66439
1.64855
1.63164
1.6116
1.59057
1.57262
1.56093
1.55167
1.54468
1.53889
1.53024
1.5156
1.49585
1.47599
1.46533
1.46213
1.4681
1.49723
1.547
1.60485
1.64748
1.67548
1.67842
1.67299
1.65507
1.63913
1.62742
1.6181
1.61053
1.60405
1.59654
1.58628
1.56804
1.54132
1.52604
1.52119
1.5169
1.51194
1.50466
1.49661
1.48847
1.47934
1.46571
1.44625
1.43422
1.42684
1.41923
1.41203
1.40835
1.39993
1.58662
1.58607
1.58513
1.58296
1.57895
1.57006
1.55178
1.52287
1.48581
1.43879
1.40498
1.37286
1.33048
1.3143
1.37042
1.54766
1.71739
1.76519
1.75363
1.72228
1.68902
1.65956
1.63065
1.60322
1.57616
1.55128
1.52838
1.50894
1.48771
1.465
1.44118
1.42258
1.40523
1.38694
1.36957
1.35527
1.3511
1.38616
1.50693
1.64569
1.72336
1.74725
1.74344
1.72846
1.70799
1.69131
1.67483
1.65792
1.64055
1.62238
1.60359
1.58609
1.57315
1.56288
1.55429
1.54648
1.53741
1.52358
1.50319
1.4808
1.46636
1.45803
1.45385
1.44809
1.45369
1.47481
1.51512
1.56197
1.60567
1.63107
1.62735
1.61981
1.61845
1.61828
1.6163
1.60918
1.60074
1.59013
1.57274
1.54933
1.52957
1.52219
1.51741
1.51251
1.50542
1.49695
1.48799
1.47766
1.46384
1.44706
1.43558
1.42847
1.42146
1.41293
1.40627
1.39666
1.58168
1.58148
1.58056
1.57764
1.57036
1.5514
1.52158
1.48072
1.42739
1.39292
1.36248
1.32271
1.26625
1.24193
1.22957
1.26088
1.4067
1.59514
1.69632
1.69277
1.67168
1.64254
1.61211
1.58749
1.56456
1.54237
1.52101
1.50458
1.48678
1.46748
1.44424
1.4278
1.41193
1.39921
1.38503
1.40014
1.48985
1.63627
1.76214
1.79597
1.78411
1.76813
1.75184
1.73508
1.71732
1.70206
1.68717
1.67275
1.65729
1.63615
1.61163
1.59383
1.5825
1.57282
1.56325
1.55269
1.53989
1.52496
1.5082
1.49005
1.47532
1.46438
1.45371
1.44337
1.43568
1.42289
1.42122
1.43405
1.46868
1.52092
1.56236
1.58817
1.60701
1.61288
1.61248
1.60965
1.60382
1.59342
1.57902
1.55633
1.5342
1.52093
1.51555
1.51176
1.50563
1.49725
1.48836
1.47766
1.46362
1.4471
1.43455
1.42786
1.42205
1.41436
1.40598
1.39308
1.5799
1.57979
1.57733
1.57119
1.54986
1.51656
1.47336
1.41918
1.37544
1.34481
1.30043
1.24048
1.21455
1.20113
1.17674
1.1439
1.15894
1.27716
1.48237
1.60976
1.64026
1.62716
1.60115
1.57719
1.55714
1.53708
1.52036
1.50762
1.49333
1.47603
1.45615
1.44201
1.42494
1.42679
1.47836
1.62365
1.76286
1.84099
1.84681
1.83481
1.80744
1.78021
1.75797
1.73946
1.724
1.71092
1.69782
1.68313
1.66617
1.64381
1.61859
1.59916
1.58671
1.57707
1.56757
1.55656
1.54243
1.52529
1.50702
1.49041
1.48109
1.47417
1.46393
1.44896
1.43231
1.41804
1.40739
1.4032
1.40307
1.41495
1.44712
1.48574
1.52747
1.55562
1.57433
1.58149
1.57898
1.57588
1.56941
1.55792
1.54192
1.5235
1.51516
1.51115
1.50508
1.49607
1.48627
1.47517
1.46236
1.44804
1.43477
1.42625
1.41967
1.41204
1.40338
1.38938
1.5777
1.5744
1.56679
1.54401
1.50778
1.46472
1.40718
1.35121
1.32178
1.28164
1.22068
1.18162
1.17274
1.15343
1.1111
1.08154
1.08018
1.094
1.1858
1.3917
1.54858
1.60193
1.59596
1.57509
1.55639
1.54009
1.52442
1.51618
1.50848
1.4939
1.47697
1.46172
1.4825
1.59093
1.75511
1.87339
1.8833
1.87776
1.85949
1.83672
1.81254
1.78928
1.76599
1.74495
1.72816
1.7133
1.70006
1.68704
1.66876
1.64583
1.6243
1.60566
1.59021
1.5784
1.56814
1.55764
1.54298
1.52386
1.50724
1.49623
1.48619
1.47471
1.46184
1.44588
1.4284
1.41777
1.40863
1.40024
1.3931
1.38999
1.38747
1.39445
1.40892
1.44112
1.47849
1.51581
1.53691
1.55062
1.5526
1.5523
1.54622
1.53307
1.51592
1.50443
1.49843
1.49119
1.48137
1.47091
1.46212
1.45154
1.43528
1.42192
1.41452
1.40844
1.40099
1.38851
1.56798
1.5591
1.53692
1.49846
1.45273
1.39066
1.3251
1.2909
1.25695
1.19593
1.1483
1.138
1.12123
1.08949
1.05545
1.05056
1.04788
1.0458
1.0549
1.14019
1.33384
1.52362
1.5848
1.57677
1.56499
1.55561
1.54233
1.53415
1.5294
1.51712
1.51876
1.56677
1.72514
1.86836
1.94091
1.93638
1.92034
1.8926
1.86326
1.83841
1.81558
1.79234
1.77035
1.75009
1.73261
1.71763
1.70125
1.68352
1.66492
1.64389
1.62502
1.61174
1.60151
1.58965
1.57566
1.55935
1.54239
1.52531
1.50997
1.49746
1.4873
1.47629
1.46303
1.44735
1.43076
1.41641
1.40451
1.3957
1.38791
1.38127
1.37396
1.36722
1.3562
1.35715
1.36748
1.40112
1.44286
1.47959
1.50106
1.51805
1.52531
1.52368
1.51211
1.49977
1.49496
1.48912
1.47904
1.4684
1.46143
1.45315
1.43867
1.42344
1.41145
1.40427
1.39914
1.39021
1.55239
1.53283
1.49154
1.43919
1.37608
1.30389
1.25738
1.21913
1.15906
1.11954
1.1116
1.09815
1.07076
1.04609
1.04374
1.04729
1.04419
1.04411
1.04631
1.05211
1.11055
1.29099
1.51526
1.56111
1.57346
1.58067
1.57165
1.55753
1.5487
1.5665
1.66378
1.83467
1.97034
1.97014
1.96252
1.94036
1.91304
1.88522
1.85821
1.83215
1.81309
1.79817
1.78163
1.76317
1.74225
1.71984
1.69779
1.67709
1.66031
1.64727
1.63475
1.6196
1.60089
1.58258
1.56628
1.55235
1.54111
1.53049
1.51735
1.50318
1.48847
1.47274
1.45814
1.44485
1.43157
1.41752
1.40496
1.39488
1.38658
1.37871
1.37051
1.36152
1.35245
1.34017
1.32529
1.32734
1.34102
1.37065
1.41196
1.44884
1.47058
1.49174
1.49235
1.49031
1.48713
1.48421
1.47915
1.47116
1.46106
1.45018
1.4386
1.42668
1.41446
1.40685
1.40487
1.41273
1.53236
1.4909
1.42811
1.35753
1.28206
1.21897
1.17262
1.12506
1.08101
1.06347
1.05443
1.04312
1.03714
1.03691
1.04012
1.0479
1.05467
1.05594
1.0595
1.06682
1.07109
1.10665
1.2887
1.48491
1.5744
1.58964
1.5885
1.59097
1.62974
1.77003
1.93542
2.01302
2.02234
2.0036
1.96419
1.9299
1.90531
1.88274
1.85961
1.83636
1.81522
1.79542
1.77637
1.75789
1.73856
1.71734
1.69667
1.67862
1.66322
1.64922
1.63498
1.61863
1.59937
1.58047
1.56483
1.5525
1.54112
1.52908
1.51613
1.5024
1.4876
1.47331
1.46034
1.44681
1.432
1.41771
1.40564
1.39582
1.38762
1.37905
1.37022
1.36073
1.3508
1.33701
1.32319
1.31421
1.30993
1.31082
1.319
1.34284
1.37394
1.40465
1.43557
1.4488
1.45209
1.45873
1.45989
1.45879
1.45416
1.45047
1.4461
1.44549
1.44702
1.45405
1.46316
1.4878
1.49521
1.41772
1.33098
1.23878
1.17283
1.13845
1.10392
1.07371
1.06388
1.0562
1.0467
1.04916
1.05315
1.06028
1.0691
1.07711
1.07994
1.08198
1.08464
1.08862
1.09132
1.09447
1.12167
1.28912
1.48354
1.55954
1.63537
1.72462
1.86689
1.97651
2.04083
2.03552
2.00889
1.97872
1.9518
1.92784
1.90835
1.89033
1.87107
1.85105
1.82931
1.80647
1.78323
1.76063
1.74077
1.72233
1.70554
1.69041
1.67538
1.6598
1.64328
1.62493
1.60518
1.58682
1.57173
1.55907
1.54728
1.53521
1.52227
1.50882
1.49551
1.48274
1.46943
1.45452
1.43877
1.4242
1.41213
1.40271
1.39471
1.38619
1.37781
1.36932
1.35948
1.34576
1.32855
1.31372
1.30416
1.29844
1.29592
1.29672
1.30398
1.31726
1.33995
1.36856
1.39087
1.40957
1.42959
1.4493
1.46751
1.49108
1.50886
1.51927
1.53083
1.54279
1.54465
1.55163
1.39849
1.23791
1.09643
1.02381
0.986998
0.996071
1.00256
1.01034
1.03284
1.05292
1.06901
1.08293
1.09448
1.10417
1.11069
1.11132
1.10944
1.1091
1.10987
1.11195
1.11227
1.11162
1.11251
1.13792
1.26441
1.51192
1.75556
1.97238
2.1377
2.18384
2.1409
2.06248
1.99954
1.96493
1.94177
1.92271
1.90274
1.88384
1.86542
1.84593
1.82444
1.80109
1.77683
1.75241
1.72973
1.71132
1.69637
1.6821
1.66708
1.65106