/*--------------------------------*- C++ -*----------------------------------*\
  =========                 |
  \\      /  F ield         | OpenFOAM: The Open Source CFD Toolbox
   \\    /   O peration     | Website:  https://openfoam.org
    \\  /    A nd           | Version:  7
     \\/     M anipulation  |
\*---------------------------------------------------------------------------*/
FoamFile
{
    version     2.0;
    format      ascii;
    class       volVectorField;
    location    "1.3";
    object      U;
}
// * * * * * * * * * * * * * * * * * * * * * * * * * * * * * * * * * * * * * //

dimensions      [0 1 -1 0 0 0 0];

internalField   nonuniform List<vector> 
4608
(
(3 1.55139e-17 0)
(3 1.43197e-16 0)
(3 3.46154e-17 0)
(3 -1.98621e-16 0)
(3 -1.95174e-16 0)
(3 -2.91016e-16 0)
(3 -1.59963e-16 0)
(3 -2.02743e-16 0)
(3 9.77995e-16 0)
(3 1.77832e-15 0)
(3 2.14006e-15 0)
(3 2.18977e-15 0)
(3 2.38341e-15 0)
(3 1.65336e-15 0)
(3 1.36094e-15 0)
(3 5.90855e-16 0)
(3 -2.87467e-16 0)
(3 -3.25626e-16 0)
(3 -3.32695e-16 0)
(3 -5.59507e-16 0)
(3 -5.69719e-16 0)
(3 -3.43496e-16 0)
(3 7.68794e-16 0)
(3 1.95198e-15 0)
(3 -3.28259e-18 0)
(3 7.71599e-18 0)
(3 6.28699e-17 0)
(3 -6.9432e-16 0)
(3 -9.93861e-16 0)
(3 -1.18888e-15 0)
(3 -9.13478e-16 0)
(3 -7.11998e-16 0)
(3 1.04548e-15 0)
(3 2.44236e-15 0)
(3 2.03534e-15 0)
(3 1.43923e-15 0)
(3 7.63597e-16 0)
(3 5.01834e-16 0)
(3 4.51311e-16 0)
(3 6.97628e-16 0)
(3 3.39525e-16 0)
(3 -3.3251e-17 0)
(3 -6.80077e-16 0)
(3 -4.41982e-16 0)
(3 -2.34604e-16 0)
(3 7.79962e-16 0)
(3 2.09003e-15 0)
(3 1.50269e-15 0)
(3 2.43444e-18 0)
(3 1.1714e-16 0)
(3 2.00209e-16 0)
(3 -2.89575e-16 0)
(3 -9.64211e-16 0)
(3 -7.97044e-16 0)
(3 -6.15307e-16 0)
(3 -7.61405e-16 0)
(3 -5.74375e-17 0)
(3 1.05438e-15 0)
(3 1.15659e-15 0)
(3 2.81266e-16 0)
(3 -2.73611e-16 0)
(3 -5.5088e-16 0)
(3 -5.12237e-16 0)
(3 2.79709e-16 0)
(3 6.0969e-16 0)
(3 4.70249e-16 0)
(3 1.57065e-16 0)
(3 -1.56881e-16 0)
(3 5.27814e-16 0)
(3 2.37874e-15 0)
(3 3.19858e-15 0)
(3 1.20516e-15 0)
(3 9.03613e-17 0)
(3 3.52191e-16 0)
(3 2.01976e-16 0)
(3 2.36428e-16 0)
(3 6.43992e-18 0)
(3 -9.24996e-17 0)
(3 -2.67767e-17 0)
(3 -4.98786e-17 0)
(3 2.87386e-16 0)
(3 4.95155e-16 0)
(3 7.01182e-16 0)
(3 1.11372e-15 0)
(3 1.08356e-15 0)
(3 1.23045e-15 0)
(3 8.88321e-16 0)
(3 8.04538e-16 0)
(3 1.60348e-15 0)
(3 1.77677e-15 0)
(3 1.70825e-15 0)
(3 1.75207e-15 0)
(3 1.79609e-15 0)
(3 1.59972e-15 0)
(3 8.2011e-16 0)
(3 5.32246e-16 0)
(3 3.22372e-17 0)
(3 -7.51243e-17 0)
(3 -8.39733e-17 0)
(3 8.04632e-17 0)
(3 -2.07631e-17 0)
(3 -7.75504e-16 0)
(3 -1.06384e-15 0)
(3 -6.9644e-16 0)
(3 3.40521e-16 0)
(3 4.63598e-16 0)
(3 2.57209e-16 0)
(3 8.41716e-16 0)
(3 1.68665e-15 0)
(3 1.87256e-15 0)
(3 1.49243e-15 0)
(3 9.82262e-16 0)
(3 1.13313e-15 0)
(3 9.42162e-16 0)
(3 1.47299e-15 0)
(3 2.1333e-15 0)
(3 1.27793e-15 0)
(3 -1.81008e-16 0)
(3 -1.89343e-15 0)
(3 -2.42171e-15 0)
(3 -4.18139e-18 0)
(3 -1.06619e-16 0)
(3 -2.96235e-16 0)
(3 -1.5265e-16 0)
(3 -3.17951e-16 0)
(3 -4.29687e-16 0)
(3 -4.64613e-16 0)
(3 -6.98238e-16 0)
(3 -3.00802e-16 0)
(3 3.43265e-16 0)
(3 4.26906e-16 0)
(3 3.97717e-16 0)
(3 8.59083e-16 0)
(3 7.19752e-16 0)
(3 7.20735e-16 0)
(3 3.18538e-16 0)
(3 -6.65363e-16 0)
(3 -5.44843e-16 0)
(3 -4.77132e-18 0)
(3 6.59204e-16 0)
(3 2.06898e-16 0)
(3 -9.19957e-16 0)
(3 -2.48949e-15 0)
(3 -2.49744e-15 0)
(3 1.70513e-17 0)
(3 1.29122e-17 0)
(3 -1.51066e-16 0)
(3 6.35598e-17 0)
(3 5.10853e-16 0)
(3 8.91754e-16 0)
(3 1.06917e-15 0)
(3 1.06946e-15 0)
(3 4.14835e-16 0)
(3 1.21928e-16 0)
(3 1.96378e-16 0)
(3 -1.87515e-16 0)
(3 -6.75239e-16 0)
(3 -2.04601e-17 0)
(3 1.02614e-15 0)
(3 1.27317e-15 0)
(3 1.2008e-15 0)
(3 1.04767e-15 0)
(3 2.35656e-16 0)
(3 6.37145e-16 0)
(3 1.42464e-15 0)
(3 -4.93066e-17 0)
(3 -1.25934e-15 0)
(3 -8.81108e-16 0)
(3 -5.00639e-17 0)
(3 -3.36775e-17 0)
(3 4.06997e-16 0)
(3 1.28955e-15 0)
(3 1.97804e-15 0)
(3 1.564e-15 0)
(3 9.75879e-16 0)
(3 1.09911e-15 0)
(3 1.53635e-15 0)
(3 -4.29391e-17 0)
(3 -1.98292e-16 0)
(3 -8.54879e-16 0)
(3 -1.16038e-15 0)
(3 -1.57085e-15 0)
(3 -7.32938e-16 0)
(3 6.56654e-16 0)
(3 4.9796e-16 0)
(3 -5.37062e-17 0)
(3 -7.26152e-16 0)
(3 -7.48403e-16 0)
(3 -1.53622e-16 0)
(3 6.99492e-17 0)
(3 6.87281e-16 0)
(3 2.85324e-16 0)
(3 -3.39376e-17 0)
(3 1.38126e-16 0)
(3 3.97346e-16 0)
(3 5.42414e-16 0)
(3 8.52765e-16 0)
(3 7.04054e-16 0)
(3 4.83517e-16 0)
(3 2.46813e-16 0)
(3 7.54692e-16 0)
(3 6.46108e-16 0)
(3 6.3198e-16 0)
(3 8.53035e-16 0)
(3 5.34555e-16 0)
(3 -2.03542e-16 0)
(3 -7.08344e-17 0)
(3 5.39395e-16 0)
(3 -9.82749e-16 0)
(3 -2.07984e-15 0)
(3 -2.95838e-15 0)
(3 -3.10636e-15 0)
(3 -2.83042e-15 0)
(3 -2.08746e-15 0)
(3 -1.06496e-15 0)
(3 -1.02302e-15 0)
(3 6.77541e-17 0)
(3 2.02688e-16 0)
(3 -1.57943e-17 0)
(3 -3.54253e-16 0)
(3 -2.0483e-16 0)
(3 -4.40643e-17 0)
(3 1.24773e-16 0)
(3 3.404e-16 0)
(3 3.88374e-16 0)
(3 5.15098e-16 0)
(3 4.91347e-16 0)
(3 1.02726e-15 0)
(3 1.2497e-15 0)
(3 1.80501e-15 0)
(3 1.29119e-15 0)
(3 5.24121e-17 0)
(3 -6.84348e-16 0)
(3 -2.02692e-15 0)
(3 -2.29494e-15 0)
(3 -2.70288e-15 0)
(3 -2.42294e-15 0)
(3 -1.94716e-15 0)
(3 -1.30706e-15 0)
(3 -7.99569e-16 0)
(3 4.30464e-17 0)
(3 -9.41159e-17 0)
(3 -3.17479e-16 0)
(3 -7.61309e-16 0)
(3 -1.079e-15 0)
(3 -7.89978e-16 0)
(3 -9.01336e-17 0)
(3 1.93166e-16 0)
(3 -2.19424e-16 0)
(3 1.11824e-16 0)
(3 2.71668e-17 0)
(3 -1.89883e-17 0)
(3 3.13008e-16 0)
(3 1.09474e-15 0)
(3 1.05175e-15 0)
(3 -9.88783e-16 0)
(3 -1.921e-15 0)
(3 -1.7852e-15 0)
(3 -1.34463e-15 0)
(3 -7.72779e-16 0)
(3 -1.13523e-15 0)
(3 -1.39652e-15 0)
(3 -8.65589e-17 0)
(3 1.58153e-15 0)
(3 -9.48109e-17 0)
(3 -4.45724e-17 0)
(3 -1.88923e-16 0)
(3 -6.7797e-16 0)
(3 -1.11728e-15 0)
(3 -9.59876e-16 0)
(3 -5.20941e-16 0)
(3 -4.74599e-16 0)
(3 -7.99074e-16 0)
(3 1.6729e-17 0)
(3 7.38084e-16 0)
(3 7.19113e-16 0)
(3 5.14736e-16 0)
(3 6.10976e-16 0)
(3 5.39425e-16 0)
(3 1.98277e-16 0)
(3 -6.13935e-16 0)
(3 -3.73374e-16 0)
(3 -4.30643e-16 0)
(3 -6.71672e-17 0)
(3 -3.17351e-17 0)
(3 3.7345e-17 0)
(3 3.90249e-16 0)
(3 1.50996e-15 0)
(3 1.24676e-17 0)
(3 6.58097e-18 0)
(3 -1.70756e-17 0)
(3 -3.79614e-17 0)
(3 -7.86913e-17 0)
(3 -1.76996e-16 0)
(3 -7.66422e-16 0)
(3 -7.68591e-16 0)
(3 -4.13211e-16 0)
(3 -2.56022e-16 0)
(3 1.43224e-17 0)
(3 -2.42027e-16 0)
(3 1.8095e-16 0)
(3 1.16239e-15 0)
(3 1.10574e-15 0)
(3 5.04374e-16 0)
(3 -9.18585e-17 0)
(3 7.65847e-17 0)
(3 -1.24015e-16 0)
(3 -1.00361e-15 0)
(3 -2.02459e-16 0)
(3 1.26635e-15 0)
(3 1.58478e-15 0)
(3 1.72018e-15 0)
(3 8.33829e-17 0)
(3 4.82834e-17 0)
(3 4.28471e-17 0)
(3 5.35425e-17 0)
(3 -5.21274e-17 0)
(3 -1.07684e-17 0)
(3 -2.76382e-16 0)
(3 -2.95034e-16 0)
(3 2.10366e-17 0)
(3 -2.76131e-16 0)
(3 -5.79417e-16 0)
(3 -7.66734e-16 0)
(3 -5.10412e-16 0)
(3 -6.44917e-16 0)
(3 -1.53827e-16 0)
(3 -5.49252e-16 0)
(3 -7.89939e-16 0)
(3 -5.19556e-16 0)
(3 -3.32046e-16 0)
(3 -7.70339e-16 0)
(3 -1.90806e-16 0)
(3 2.42857e-16 0)
(3 5.03642e-16 0)
(3 3.97911e-16 0)
(3 -9.68213e-17 0)
(3 -1.10187e-16 0)
(3 -1.32671e-16 0)
(3 -3.23902e-16 0)
(3 5.314e-17 0)
(3 1.92286e-16 0)
(3 3.63106e-16 0)
(3 6.45429e-16 0)
(3 5.5163e-17 0)
(3 -3.19667e-16 0)
(3 -1.6429e-16 0)
(3 9.14763e-17 0)
(3 -3.00857e-17 0)
(3 -8.43437e-16 0)
(3 -5.61496e-16 0)
(3 5.49954e-16 0)
(3 1.03931e-15 0)
(3 9.11771e-16 0)
(3 1.19963e-15 0)
(3 1.65489e-15 0)
(3 1.81983e-15 0)
(3 7.48718e-16 0)
(3 5.64952e-16 0)
(3 7.9601e-16 0)
(3 -3.65501e-17 0)
(3 -7.18729e-17 0)
(3 -1.76283e-16 0)
(3 -3.73415e-17 0)
(3 3.31439e-16 0)
(3 4.24841e-16 0)
(3 4.92407e-16 0)
(3 1.79719e-16 0)
(3 -2.52983e-17 0)
(3 1.90631e-17 0)
(3 2.00514e-16 0)
(3 2.33168e-16 0)
(3 4.56147e-17 0)
(3 -1.82675e-16 0)
(3 -9.68165e-16 0)
(3 -1.12695e-15 0)
(3 1.812e-15 0)
(3 2.39228e-15 0)
(3 2.85321e-15 0)
(3 2.61686e-15 0)
(3 2.18994e-15 0)
(3 3.52573e-16 0)
(3 2.05162e-16 0)
(3 4.34494e-16 0)
(3 2.85139e-18 0)
(3 1.40032e-16 0)
(3 3.87584e-16 0)
(3 2.78711e-16 0)
(3 2.54006e-17 0)
(3 4.68054e-17 0)
(3 -4.75325e-16 0)
(3 -8.07872e-16 0)
(3 -7.25936e-16 0)
(3 -5.74576e-16 0)
(3 -1.34243e-16 0)
(3 9.95235e-16 0)
(3 1.00865e-15 0)
(3 1.01143e-16 0)
(3 -7.67241e-16 0)
(3 -3.37805e-16 0)
(3 1.48988e-15 0)
(3 3.66253e-15 0)
(3 3.37852e-15 0)
(3 3.50293e-15 0)
(3 3.04074e-15 0)
(3 2.28325e-15 0)
(3 -6.59166e-16 0)
(3 -1.19015e-15 0)
(3 -1.15455e-16 0)
(3 -1.88725e-17 0)
(3 2.32941e-16 0)
(3 2.34479e-16 0)
(3 -2.70889e-16 0)
(3 -3.94817e-16 0)
(3 -6.15159e-16 0)
(3 -7.9346e-16 0)
(3 -3.14553e-16 0)
(3 5.15021e-17 0)
(3 8.35843e-17 0)
(3 8.42588e-16 0)
(3 1.55158e-15 0)
(3 2.75073e-16 0)
(3 8.50357e-16 0)
(3 1.17354e-15 0)
(3 1.07846e-15 0)
(3 1.63204e-15 0)
(3 2.03544e-15 0)
(3 2.26898e-15 0)
(3 2.42741e-15 0)
(3 2.26578e-15 0)
(3 1.55686e-15 0)
(3 -2.67886e-16 0)
(3 7.14385e-17 0)
(3 -4.89813e-17 0)
(3 -3.25601e-16 0)
(3 -3.78869e-17 0)
(3 4.18906e-16 0)
(3 1.61604e-16 0)
(3 2.58672e-16 0)
(3 4.90985e-16 0)
(3 7.00219e-16 0)
(3 4.09363e-16 0)
(3 2.28167e-16 0)
(3 -1.54437e-16 0)
(3 -3.06374e-16 0)
(3 -3.68362e-16 0)
(3 4.5084e-16 0)
(3 4.76915e-16 0)
(3 -9.56732e-16 0)
(3 -6.82891e-16 0)
(3 7.11301e-16 0)
(3 6.9558e-16 0)
(3 5.36771e-16 0)
(3 6.22553e-16 0)
(3 1.45853e-15 0)
(3 1.52488e-15 0)
(3 1.15625e-16 0)
(3 1.112e-17 0)
(3 -3.12062e-16 0)
(3 -2.50265e-16 0)
(3 6.13373e-17 0)
(3 2.41654e-16 0)
(3 4.09094e-16 0)
(3 8.89482e-16 0)
(3 2.3919e-16 0)
(3 -3.62604e-16 0)
(3 -6.36671e-16 0)
(3 -7.21111e-16 0)
(3 -6.52726e-16 0)
(3 2.5414e-16 0)
(3 9.19515e-17 0)
(3 7.16253e-17 0)
(3 3.20235e-16 0)
(3 -3.15522e-16 0)
(3 -5.69476e-16 0)
(3 -1.53016e-16 0)
(3 4.00785e-16 0)
(3 8.7695e-16 0)
(3 9.76404e-16 0)
(3 2.18979e-15 0)
(3 1.55196e-18 0)
(3 -1.96988e-16 0)
(3 -5.21913e-16 0)
(3 -8.40495e-16 0)
(3 -1.30934e-15 0)
(3 -9.25829e-16 0)
(3 -2.33026e-16 0)
(3 1.09907e-16 0)
(3 -2.89589e-16 0)
(3 -4.58479e-16 0)
(3 -8.84804e-16 0)
(3 -9.56716e-16 0)
(3 -5.45689e-16 0)
(3 -3.03033e-16 0)
(3 -6.48436e-16 0)
(3 -5.47195e-16 0)
(3 3.38899e-16 0)
(3 2.13088e-16 0)
(3 -3.71181e-16 0)
(3 -5.77264e-17 0)
(3 5.07278e-16 0)
(3 8.61667e-16 0)
(3 6.13502e-16 0)
(3 6.46987e-16 0)
(3 -7.26979e-17 0)
(3 -1.29162e-16 0)
(3 3.7718e-17 0)
(3 -2.1128e-16 0)
(3 -6.75128e-16 0)
(3 -7.33599e-16 0)
(3 -4.39638e-16 0)
(3 -1.33212e-16 0)
(3 -5.02606e-16 0)
(3 -1.2813e-16 0)
(3 -1.08901e-15 0)
(3 -1.33378e-15 0)
(3 -1.38744e-15 0)
(3 -1.67564e-15 0)
(3 -1.36448e-15 0)
(3 -9.48141e-16 0)
(3 -7.65553e-16 0)
(3 1.11439e-16 0)
(3 2.30421e-16 0)
(3 4.38261e-16 0)
(3 6.34844e-17 0)
(3 3.74576e-16 0)
(3 4.37127e-16 0)
(3 2.63092e-16 0)
(3 1.23202e-17 0)
(3 2.70855e-16 0)
(3 6.5274e-16 0)
(3 6.54764e-16 0)
(3 2.91424e-16 0)
(3 -2.49144e-16 0)
(3 -6.74354e-16 0)
(3 -1.07693e-15 0)
(3 -1.19401e-15 0)
(3 -2.7779e-16 0)
(3 -2.26913e-16 0)
(3 -2.51358e-16 0)
(3 -4.82214e-16 0)
(3 -2.98531e-17 0)
(3 -1.27952e-16 0)
(3 -1.09198e-15 0)
(3 -2.01275e-15 0)
(3 -1.89864e-15 0)
(3 -1.36755e-15 0)
(3 -6.22987e-16 0)
(3 1.7949e-16 0)
(3 6.02343e-16 0)
(3 4.68211e-16 0)
(3 3.76295e-16 0)
(3 9.17627e-18 0)
(3 1.87277e-16 0)
(3 9.91373e-17 0)
(3 4.51679e-16 0)
(3 4.3173e-16 0)
(3 1.03504e-16 0)
(3 8.97256e-17 0)
(3 1.51674e-16 0)
(3 4.10553e-16 0)
(3 4.96203e-16 0)
(3 5.70226e-16 0)
(3 -2.0684e-16 0)
(3 -2.15032e-16 0)
(3 3.3201e-16 0)
(3 2.44803e-16 0)
(3 -1.62713e-15 0)
(3 -1.83764e-15 0)
(3 -1.79943e-15 0)
(3 -1.40578e-15 0)
(3 -6.28584e-16 0)
(3 -6.28786e-17 0)
(3 2.76675e-16 0)
(3 -4.32822e-17 0)
(3 -2.30637e-17 0)
(3 5.37901e-17 0)
(3 -1.35369e-17 0)
(3 -4.87597e-17 0)
(3 2.10071e-16 0)
(3 7.91344e-16 0)
(3 1.10571e-15 0)
(3 1.36593e-15 0)
(3 1.75662e-15 0)
(3 1.51142e-15 0)
(3 1.09232e-15 0)
(3 8.63394e-16 0)
(3 -4.41822e-17 0)
(3 -5.29976e-16 0)
(3 -7.53801e-16 0)
(3 -5.62156e-16 0)
(3 -3.94702e-16 0)
(3 -4.09615e-16 0)
(3 4.74505e-17 0)
(3 3.12475e-16 0)
(3 -8.60675e-17 0)
(3 -7.03772e-16 0)
(3 -6.27328e-16 0)
(3 -4.11045e-16 0)
(3 6.00909e-16 0)
(3 1.22775e-16 0)
(3 -3.50613e-17 0)
(3 -1.51803e-16 0)
(3 -2.27098e-17 0)
(3 4.49829e-16 0)
(3 1.03731e-15 0)
(3 8.34223e-16 0)
(3 -7.08382e-17 0)
(3 -5.91052e-16 0)
(3 -1.47622e-16 0)
(3 1.8189e-16 0)
(3 3.71595e-16 0)
(3 1.28316e-16 0)
(3 -1.81696e-16 0)
(3 5.35465e-16 0)
(3 1.25686e-15 0)
(3 7.24669e-16 0)
(3 2.53721e-16 0)
(3 -1.32623e-16 0)
(3 -4.14892e-17 0)
(3 -8.86244e-18 0)
(3 -1.43251e-16 0)
(3 -2.11498e-16 0)
(3 1.30984e-15 0)
(3 7.57489e-18 0)
(3 -1.64119e-17 0)
(3 -1.07961e-16 0)
(3 7.02323e-17 0)
(3 2.39158e-16 0)
(3 6.13056e-16 0)
(3 3.02326e-16 0)
(3 -5.01732e-16 0)
(3 -7.67037e-16 0)
(3 -9.6218e-16 0)
(3 -9.74152e-16 0)
(3 -5.29668e-16 0)
(3 5.13607e-16 0)
(3 -1.9084e-16 0)
(3 5.68233e-16 0)
(3 8.80279e-16 0)
(3 2.86965e-16 0)
(3 -1.02231e-15 0)
(3 -9.32409e-16 0)
(3 -8.79295e-16 0)
(3 -1.77373e-16 0)
(3 -4.91017e-16 0)
(3 -1.54422e-15 0)
(3 -1.64576e-15 0)
(3 -2.7403e-17 0)
(3 -5.22361e-17 0)
(3 -9.88613e-18 0)
(3 -2.35198e-16 0)
(3 1.14413e-17 0)
(3 8.2758e-16 0)
(3 7.06773e-16 0)
(3 2.20124e-16 0)
(3 -4.94633e-17 0)
(3 -2.5925e-16 0)
(3 -8.18169e-17 0)
(3 5.28622e-17 0)
(3 9.5425e-16 0)
(3 1.10756e-15 0)
(3 -8.32588e-16 0)
(3 -1.65956e-15 0)
(3 -1.29671e-15 0)
(3 -1.79137e-15 0)
(3 -1.7411e-15 0)
(3 -2.31069e-15 0)
(3 -1.77093e-15 0)
(3 -1.50252e-15 0)
(3 -1.36304e-15 0)
(3 -1.2131e-15 0)
(3 -7.75698e-17 0)
(3 -2.6856e-16 0)
(3 -3.81594e-16 0)
(3 -5.28282e-16 0)
(3 -3.3778e-16 0)
(3 1.0821e-16 0)
(3 2.71677e-16 0)
(3 8.81029e-16 0)
(3 7.45211e-16 0)
(3 3.95083e-17 0)
(3 3.61681e-16 0)
(3 3.59312e-16 0)
(3 7.93183e-16 0)
(3 2.05128e-15 0)
(3 -3.27468e-16 0)
(3 -1.0776e-15 0)
(3 -1.59665e-15 0)
(3 -1.93813e-15 0)
(3 -2.76523e-15 0)
(3 -2.63221e-15 0)
(3 -1.15907e-15 0)
(3 -6.852e-16 0)
(3 -5.91981e-16 0)
(3 -6.02184e-16 0)
(3 9.17942e-18 0)
(3 2.65051e-17 0)
(3 -9.23591e-18 0)
(3 5.74609e-17 0)
(3 -2.96706e-16 0)
(3 -8.30348e-16 0)
(3 2.35918e-16 0)
(3 1.25008e-15 0)
(3 1.33229e-15 0)
(3 7.30649e-16 0)
(3 6.21732e-16 0)
(3 1.3205e-15 0)
(3 1.33382e-15 0)
(3 9.31288e-16 0)
(3 3.63464e-16 0)
(3 5.4715e-16 0)
(3 4.75004e-17 0)
(3 -2.04629e-16 0)
(3 -8.05702e-16 0)
(3 1.92988e-17 0)
(3 -2.21884e-16 0)
(3 -8.15524e-16 0)
(3 -1.34532e-15 0)
(3 -1.4458e-15 0)
(3 5.26776e-17 0)
(3 3.27842e-16 0)
(3 4.99157e-16 0)
(3 5.88361e-16 0)
(3 1.92226e-16 0)
(3 3.84761e-17 0)
(3 8.23424e-16 0)
(3 1.31922e-15 0)
(3 9.4025e-16 0)
(3 1.56414e-16 0)
(3 -9.44888e-16 0)
(3 -5.23461e-16 0)
(3 1.35838e-17 0)
(3 2.04866e-16 0)
(3 2.03563e-16 0)
(3 4.79052e-18 0)
(3 2.33283e-16 0)
(3 6.16234e-16 0)
(3 6.21234e-16 0)
(3 6.00611e-16 0)
(3 -8.65222e-16 0)
(3 -6.45376e-16 0)
(3 5.02579e-16 0)
(3 1.07829e-15 0)
(3 1.54995e-17 0)
(3 6.87592e-17 0)
(3 -4.41176e-18 0)
(3 1.25327e-16 0)
(3 -9.19903e-17 0)
(3 -5.28891e-17 0)
(3 3.45956e-16 0)
(3 2.26859e-16 0)
(3 -2.47857e-17 0)
(3 -7.33254e-16 0)
(3 -1.34319e-15 0)
(3 -1.56011e-15 0)
(3 -9.69702e-16 0)
(3 -4.2756e-16 0)
(3 -5.7523e-17 0)
(3 -6.006e-17 0)
(3 -4.8038e-16 0)
(3 -3.74171e-16 0)
(3 -3.40146e-16 0)
(3 -5.92523e-16 0)
(3 -7.28534e-16 0)
(3 -1.66488e-16 0)
(3 1.0697e-15 0)
(3 2.15555e-15 0)
(2.9313 0.0326165 0)
(2.85697 0.0318166 0)
(2.74737 0.169768 0)
(2.67546 0.234498 0)
(2.57798 0.345705 0)
(2.49401 0.450672 0)
(2.43076 0.541034 0)
(2.34768 0.625114 0)
(2.3112 0.725595 0)
(2.2584 0.798744 0)
(2.25107 0.855099 0)
(2.28235 0.889001 0)
(2.32233 0.895129 0)
(2.3366 0.885844 0)
(2.34706 0.879538 0)
(2.34903 0.867284 0)
(2.34744 0.859625 0)
(2.34446 0.851926 0)
(2.34351 0.848631 0)
(2.34295 0.848455 0)
(2.33996 0.84777 0)
(2.33802 0.848241 0)
(2.33687 0.84914 0)
(2.33762 0.849548 0)
(2.99859 0.00150928 0)
(2.99143 0.0102169 0)
(2.95895 0.0499721 0)
(2.90194 0.133786 0)
(2.80587 0.272919 0)
(2.67288 0.46977 0)
(2.54667 0.676111 0)
(2.37111 0.907118 0)
(2.2207 1.07021 0)
(2.17511 1.1004 0)
(2.14784 1.04525 0)
(2.1803 1.00277 0)
(2.24864 0.952438 0)
(2.30541 0.896653 0)
(2.32602 0.857573 0)
(2.34854 0.830311 0)
(2.35513 0.837689 0)
(2.35629 0.842161 0)
(2.35409 0.842871 0)
(2.35176 0.842889 0)
(2.34827 0.844288 0)
(2.34447 0.845587 0)
(2.34175 0.84779 0)
(2.33999 0.849579 0)
(3 2.60716e-07 0)
(3.00002 -3.02295e-05 0)
(2.99991 0.000104045 0)
(2.99987 0.00020145 0)
(2.99866 0.0017772 0)
(2.99115 0.013161 0)
(2.96684 0.0512105 0)
(2.89369 0.1803 0)
(2.77941 0.405582 0)
(2.60395 0.69256 0)
(2.43416 0.86047 0)
(2.33498 0.9274 0)
(2.30035 0.917154 0)
(2.30173 0.902035 0)
(2.30841 0.889053 0)
(2.34259 0.862687 0)
(2.354 0.866092 0)
(2.35641 0.853903 0)
(2.3567 0.848653 0)
(2.35679 0.845706 0)
(2.35738 0.844729 0)
(2.35412 0.846621 0)
(2.34907 0.849833 0)
(2.34552 0.853211 0)
(3 -2.76694e-09 0)
(3 -1.28654e-06 0)
(3 -1.9098e-06 0)
(3 -1.01701e-06 0)
(3 -8.23552e-06 0)
(2.99999 2.30309e-05 0)
(3.00005 -0.000118974 0)
(2.99921 0.00127029 0)
(2.99017 0.0180737 0)
(2.91037 0.146991 0)
(2.69021 0.477501 0)
(2.52599 0.709735 0)
(2.31524 0.917789 0)
(2.26776 0.968574 0)
(2.27915 0.945657 0)
(2.30668 0.907506 0)
(2.33062 0.884623 0)
(2.34193 0.868198 0)
(2.35474 0.853542 0)
(2.36092 0.84207 0)
(2.36133 0.843389 0)
(2.36082 0.845382 0)
(2.35814 0.845277 0)
(2.35091 0.849163 0)
(3 -2.46393e-10 0)
(3 3.16691e-09 0)
(3 -7.23382e-08 0)
(3 -9.67789e-08 0)
(3 -4.77583e-07 0)
(3 -6.5702e-07 0)
(3 -5.87169e-06 0)
(3 -5.66492e-06 0)
(3.00002 -4.25028e-05 0)
(2.9994 0.000547418 0)
(2.98209 0.0247826 0)
(2.89257 0.148818 0)
(2.62082 0.491059 0)
(2.38705 0.78624 0)
(2.37454 0.83244 0)
(2.31007 0.878869 0)
(2.31335 0.882476 0)
(2.32627 0.874318 0)
(2.34495 0.852519 0)
(2.35253 0.850961 0)
(2.35984 0.845992 0)
(2.36066 0.841328 0)
(2.35921 0.839424 0)
(2.35334 0.839747 0)
(3 -1.79589e-13 0)
(3 1.52077e-10 0)
(3 2.75709e-10 0)
(3 -5.56197e-10 0)
(3 1.92491e-11 0)
(3 -3.61487e-08 0)
(3 -8.38285e-08 0)
(3 -3.74937e-07 0)
(3 -6.07776e-06 0)
(3 -5.80686e-06 0)
(3.00002 -5.2049e-05 0)
(2.99897 0.00134655 0)
(2.96391 0.0452706 0)
(2.83633 0.206155 0)
(2.58641 0.545697 0)
(2.31039 0.871954 0)
(2.2916 0.862934 0)
(2.31 0.871395 0)
(2.30968 0.869587 0)
(2.33034 0.861803 0)
(2.34476 0.852247 0)
(2.34709 0.842282 0)
(2.3497 0.838177 0)
(2.34876 0.83847 0)
(3 9.55699e-14 0)
(3 -3.57132e-14 0)
(3 1.7186e-11 0)
(3 1.17301e-11 0)
(3 1.66045e-11 0)
(3 -3.83681e-10 0)
(3 -4.51085e-10 0)
(3 -1.87218e-10 0)
(3 -1.26534e-08 0)
(3 -3.60033e-07 0)
(3 -3.8046e-06 0)
(3.00001 -1.23727e-05 0)
(2.99996 4.67597e-05 0)
(2.99684 0.00488248 0)
(2.9383 0.0767886 0)
(2.72662 0.344687 0)
(2.53857 0.60673 0)
(2.29446 0.881285 0)
(2.26117 0.894364 0)
(2.29725 0.865418 0)
(2.31116 0.855064 0)
(2.32561 0.854544 0)
(2.33482 0.846524 0)
(2.3381 0.839796 0)
(3 5.31488e-15 0)
(3 4.31384e-15 0)
(3 1.88165e-15 0)
(3 7.89107e-13 0)
(3 1.35058e-12 0)
(3 2.83611e-12 0)
(3 4.27826e-12 0)
(3 5.66726e-12 0)
(3 8.51116e-11 0)
(3 -2.65647e-10 0)
(3 -1.60427e-08 0)
(3 -1.72892e-06 0)
(3 -1.57339e-06 0)
(3.00001 -1.70295e-05 0)
(2.99954 0.000628702 0)
(2.986 0.0207161 0)
(2.89007 0.155201 0)
(2.57336 0.547323 0)
(2.46117 0.695458 0)
(2.34845 0.815898 0)
(2.30972 0.861025 0)
(2.30687 0.860253 0)
(2.31772 0.850405 0)
(2.32613 0.837076 0)
(3 -7.93211e-17 0)
(3 9.6897e-16 0)
(3 5.12873e-16 0)
(3 1.57306e-15 0)
(3 1.90717e-14 0)
(3 3.53762e-13 0)
(3 1.30637e-12 0)
(3 2.41103e-12 0)
(3 1.83487e-11 0)
(3 2.05585e-11 0)
(3 9.39362e-11 0)
(3 -1.42526e-08 0)
(3 -1.43031e-07 0)
(3 -3.14206e-06 0)
(3 -5.3398e-07 0)
(3 -7.97239e-06 0)
(2.99724 0.0042894 0)
(2.94488 0.0749844 0)
(2.80837 0.295463 0)
(2.44905 0.719568 0)
(2.37346 0.804134 0)
(2.32653 0.836516 0)
(2.31965 0.838284 0)
(2.31993 0.836162 0)
(3 -3.34998e-16 0)
(3 2.04633e-16 0)
(3 1.2001e-15 0)
(3 1.76902e-15 0)
(3 6.89433e-16 0)
(3 3.86907e-15 0)
(3 5.90261e-14 0)
(3 1.82202e-13 0)
(3 7.46816e-13 0)
(3 3.58093e-12 0)
(3 1.58026e-11 0)
(3 9.67134e-11 0)
(3 -9.44007e-10 0)
(3 -4.3094e-08 0)
(3 -4.10112e-07 0)
(3 -8.66141e-07 0)
(3.00001 -1.60285e-05 0)
(2.99949 0.000985763 0)
(2.98809 0.0200917 0)
(2.84118 0.216002 0)
(2.68336 0.478717 0)
(2.3933 0.790173 0)
(2.30604 0.89371 0)
(2.29802 0.853565 0)
(3 1.19062e-15 0)
(3 7.08131e-16 0)
(3 1.09355e-15 0)
(3 9.64021e-16 0)
(3 1.51599e-16 0)
(3 9.28565e-16 0)
(3 1.1559e-15 0)
(3 5.59292e-15 0)
(3 4.35951e-15 0)
(3 3.99916e-14 0)
(3 7.83072e-13 0)
(3 1.65789e-11 0)
(3 1.31111e-11 0)
(3 2.19957e-10 0)
(3 -6.96924e-09 0)
(3 -1.13918e-07 0)
(3 -2.40824e-06 0)
(3 -4.55999e-06 0)
(2.99995 5.14396e-05 0)
(2.99367 0.0108001 0)
(2.94977 0.093386 0)
(2.68304 0.444351 0)
(2.4752 0.711696 0)
(2.3839 0.774968 0)
(3 1.9485e-15 0)
(3 1.54021e-15 0)
(3 7.59579e-16 0)
(3 -1.06272e-15 0)
(3 -1.48522e-15 0)
(3 -6.61591e-16 0)
(3 -8.80905e-16 0)
(3 -2.88105e-15 0)
(3 -4.12834e-15 0)
(3 -3.36393e-15 0)
(3 -1.53613e-15 0)
(3 2.19618e-13 0)
(3 2.13705e-12 0)
(3 1.92428e-11 0)
(3 8.21854e-11 0)
(3 -1.03449e-09 0)
(3 -3.93962e-08 0)
(3 -9.91986e-07 0)
(3 -1.38593e-06 0)
(3 2.75027e-06 0)
(2.99841 0.00327529 0)
(2.96505 0.0538882 0)
(2.75559 0.356592 0)
(2.57378 0.620496 0)
(3 1.30023e-15 0)
(3 6.73314e-16 0)
(3 -7.81264e-17 0)
(3 -1.20415e-15 0)
(3 -1.55678e-15 0)
(3 -1.78171e-15 0)
(3 -2.91462e-15 0)
(3 -3.53757e-15 0)
(3 -4.19222e-15 0)
(3 -4.07576e-15 0)
(3 -3.33104e-15 0)
(3 -2.34674e-15 0)
(3 1.37651e-14 0)
(3 1.06395e-12 0)
(3 1.50243e-11 0)
(3 1.60929e-11 0)
(3 6.20281e-11 0)
(3 -1.75439e-08 0)
(3 -3.69071e-07 0)
(3 -6.25575e-07 0)
(3 1.27304e-06 0)
(2.99937 0.00133193 0)
(2.97491 0.0429755 0)
(2.88379 0.21497 0)
(3 3.38717e-16 0)
(3 5.6734e-16 0)
(3 2.84533e-16 0)
(3 1.22051e-16 0)
(3 3.38888e-17 0)
(3 -1.25456e-15 0)
(3 -1.451e-15 0)
(3 -9.13958e-16 0)
(3 -1.80308e-15 0)
(3 -2.31448e-15 0)
(3 -2.14618e-15 0)
(3 -8.13864e-16 0)
(3 5.63052e-16 0)
(3 -2.98932e-16 0)
(3 7.40518e-13 0)
(3 3.50379e-12 0)
(3 1.96561e-11 0)
(3 -1.41262e-11 0)
(3 -2.35344e-08 0)
(3 -1.68758e-07 0)
(3 -2.82768e-07 0)
(3 -3.41746e-06 0)
(2.99955 0.000957754 0)
(2.99479 0.0123528 0)
(3 8.21817e-16 0)
(3 7.95024e-16 0)
(3 8.05055e-17 0)
(3 -1.00891e-15 0)
(3 -1.26452e-15 0)
(3 -1.15139e-15 0)
(3 -4.32203e-16 0)
(3 -1.36595e-16 0)
(3 -6.41486e-16 0)
(3 -1.32864e-15 0)
(3 -1.33512e-15 0)
(3 -4.40121e-16 0)
(3 -2.91444e-16 0)
(3 -2.70945e-17 0)
(3 1.29859e-15 0)
(3 2.3921e-13 0)
(3 1.50958e-12 0)
(3 2.36473e-12 0)
(3 -1.16602e-10 0)
(3 -1.34875e-08 0)
(3 -5.39665e-08 0)
(3 -7.79193e-07 0)
(3 7.43286e-06 0)
(2.99998 -2.19013e-05 0)
(3 7.65133e-16 0)
(3 -1.93934e-18 0)
(3 -9.84184e-16 0)
(3 -8.55577e-16 0)
(3 -6.02467e-16 0)
(3 1.60822e-16 0)
(3 5.96851e-16 0)
(3 5.77371e-16 0)
(3 1.2539e-15 0)
(3 1.41473e-15 0)
(3 4.59049e-16 0)
(3 -8.53299e-17 0)
(3 -1.13512e-15 0)
(3 -3.40076e-16 0)
(3 1.94855e-16 0)
(3 7.64472e-15 0)
(3 -1.30099e-14 0)
(3 7.37005e-13 0)
(3 6.28533e-13 0)
(3 -1.26039e-10 0)
(3 -3.05645e-09 0)
(3 -1.44565e-07 0)
(3 -8.62771e-08 0)
(3 -9.8491e-07 0)
(3 -1.17515e-15 0)
(3 -9.28577e-16 0)
(3 -8.68419e-16 0)
(3 -3.43025e-16 0)
(3 2.39909e-16 0)
(3 4.95444e-16 0)
(3 6.505e-16 0)
(3 1.66574e-15 0)
(3 2.70052e-15 0)
(3 2.69687e-15 0)
(3 1.03683e-15 0)
(3 7.2453e-17 0)
(3 9.96566e-17 0)
(3 8.97978e-16 0)
(3 1.87705e-15 0)
(3 3.51587e-15 0)
(3 -4.92521e-14 0)
(3 -5.7389e-13 0)
(3 -9.29032e-13 0)
(3 1.19183e-10 0)
(3 2.66115e-09 0)
(3 1.30216e-07 0)
(3 6.61705e-08 0)
(3 9.8261e-07 0)
(3 -1.00458e-15 0)
(3 -1.86844e-16 0)
(3 1.212e-15 0)
(3 2.11728e-15 0)
(3 1.6329e-15 0)
(3 8.64973e-16 0)
(3 2.94352e-16 0)
(3 6.8523e-16 0)
(3 2.43528e-15 0)
(3 3.01732e-15 0)
(3 2.9439e-15 0)
(3 9.47019e-16 0)
(3 9.98667e-16 0)
(3 2.86388e-15 0)
(3 2.44624e-15 0)
(3 -2.13027e-13 0)
(3 -1.59827e-12 0)
(3 -2.29603e-12 0)
(3 1.14167e-10 0)
(3 1.35851e-08 0)
(3 5.37288e-08 0)
(3 7.89187e-07 0)
(3 -7.41579e-06 0)
(2.99998 2.19928e-05 0)
(3 1.02715e-15 0)
(3 7.70711e-16 0)
(3 1.06094e-15 0)
(3 1.42054e-15 0)
(3 1.29227e-15 0)
(3 1.01201e-15 0)
(3 5.57159e-16 0)
(3 4.03922e-16 0)
(3 6.0316e-16 0)
(3 1.59976e-15 0)
(3 1.13215e-15 0)
(3 5.3799e-16 0)
(3 -9.07425e-16 0)
(3 3.1972e-16 0)
(3 -7.41734e-13 0)
(3 -3.49233e-12 0)
(3 -1.96747e-11 0)
(3 1.41552e-11 0)
(3 2.34986e-08 0)
(3 1.68773e-07 0)
(3 2.82757e-07 0)
(3 3.42467e-06 0)
(2.99955 -0.000957973 0)
(2.99479 -0.0123486 0)
(3 2.88578e-15 0)
(3 2.81062e-15 0)
(3 1.40714e-15 0)
(3 1.01645e-15 0)
(3 8.55919e-16 0)
(3 9.86571e-16 0)
(3 1.38044e-15 0)
(3 1.475e-15 0)
(3 4.41906e-16 0)
(3 -2.08861e-16 0)
(3 -1.89411e-16 0)
(3 -2.40839e-16 0)
(3 -1.64572e-14 0)
(3 -1.06742e-12 0)
(3 -1.50357e-11 0)
(3 -1.60922e-11 0)
(3 -6.19819e-11 0)
(3 1.75286e-08 0)
(3 3.69457e-07 0)
(3 6.25268e-07 0)
(3 -1.27361e-06 0)
(2.99937 -0.00133189 0)
(2.97491 -0.0429778 0)
(2.88381 -0.214954 0)
(3 1.78964e-15 0)
(3 3.86509e-15 0)
(3 4.29418e-15 0)
(3 3.13471e-15 0)
(3 1.56827e-15 0)
(3 1.61464e-15 0)
(3 2.59826e-15 0)
(3 2.09347e-15 0)
(3 1.6773e-15 0)
(3 -1.0174e-15 0)
(3 -2.9743e-15 0)
(3 -2.23257e-13 0)
(3 -2.14026e-12 0)
(3 -1.92503e-11 0)
(3 -8.22067e-11 0)
(3 1.03459e-09 0)
(3 3.9394e-08 0)
(3 9.91989e-07 0)
(3 1.38603e-06 0)
(3 -2.75156e-06 0)
(2.99841 -0.00327523 0)
(2.96505 -0.053889 0)
(2.75559 -0.356591 0)
(2.57378 -0.620493 0)
(3 -1.80405e-16 0)
(3 1.43637e-15 0)
(3 1.87717e-15 0)
(3 1.05239e-15 0)
(3 2.02537e-16 0)
(3 1.25379e-15 0)
(3 1.41103e-15 0)
(3 -3.45044e-15 0)
(3 7.15705e-17 0)
(3 -3.44813e-14 0)
(3 -7.79319e-13 0)
(3 -1.65794e-11 0)
(3 -1.31129e-11 0)
(3 -2.19959e-10 0)
(3 6.9692e-09 0)
(3 1.13919e-07 0)
(3 2.40823e-06 0)
(3 4.56001e-06 0)
(2.99995 -5.14394e-05 0)
(2.99367 -0.0108001 0)
(2.94977 -0.0933856 0)
(2.68303 -0.444353 0)
(2.4752 -0.711694 0)
(2.3839 -0.774968 0)
(3 3.48619e-16 0)
(3 -3.89501e-17 0)
(3 1.5673e-16 0)
(3 1.51427e-16 0)
(3 2.13071e-16 0)
(3 -3.17295e-15 0)
(3 -5.5178e-14 0)
(3 -1.77244e-13 0)
(3 -7.41252e-13 0)
(3 -3.57325e-12 0)
(3 -1.57929e-11 0)
(3 -9.67084e-11 0)
(3 9.4401e-10 0)
(3 4.3094e-08 0)
(3 4.10112e-07 0)
(3 8.66141e-07 0)
(3.00001 1.60285e-05 0)
(2.99949 -0.000985763 0)
(2.98809 -0.0200917 0)
(2.84118 -0.216002 0)
(2.68336 -0.478717 0)
(2.3933 -0.790174 0)
(2.30604 -0.893709 0)
(2.29802 -0.853565 0)
(3 -4.60928e-16 0)
(3 -1.32984e-15 0)
(3 -3.30283e-16 0)
(3 -1.41386e-16 0)
(3 -1.64951e-14 0)
(3 -3.51425e-13 0)
(3 -1.30479e-12 0)
(3 -2.4086e-12 0)
(3 -1.83469e-11 0)
(3 -2.05576e-11 0)
(3 -9.39352e-11 0)
(3 1.42526e-08 0)
(3 1.43031e-07 0)
(3 3.14206e-06 0)
(3 5.33981e-07 0)
(3 7.97237e-06 0)
(2.99724 -0.0042894 0)
(2.94488 -0.0749844 0)
(2.80837 -0.295463 0)
(2.44905 -0.719568 0)
(2.37346 -0.804134 0)
(2.32653 -0.836516 0)
(2.31965 -0.838284 0)
(2.31993 -0.836162 0)
(3 -5.96989e-15 0)
(3 -4.87327e-15 0)
(3 -2.45061e-16 0)
(3 -7.85999e-13 0)
(3 -1.34739e-12 0)
(3 -2.83621e-12 0)
(3 -4.27966e-12 0)
(3 -5.66785e-12 0)
(3 -8.51115e-11 0)
(3 2.65645e-10 0)
(3 1.60427e-08 0)
(3 1.72892e-06 0)
(3 1.57339e-06 0)
(3.00001 1.70295e-05 0)
(2.99954 -0.000628702 0)
(2.986 -0.0207161 0)
(2.89007 -0.155201 0)
(2.57336 -0.547323 0)
(2.46117 -0.695458 0)
(2.34845 -0.815898 0)
(2.30972 -0.861025 0)
(2.30687 -0.860253 0)
(2.31772 -0.850405 0)
(2.32613 -0.837076 0)
(3 -9.45668e-14 0)
(3 3.71152e-14 0)
(3 -1.71851e-11 0)
(3 -1.17297e-11 0)
(3 -1.6603e-11 0)
(3 3.83682e-10 0)
(3 4.51087e-10 0)
(3 1.87218e-10 0)
(3 1.26534e-08 0)
(3 3.60033e-07 0)
(3 3.8046e-06 0)
(3.00001 1.23727e-05 0)
(2.99996 -4.67597e-05 0)
(2.99684 -0.00488248 0)
(2.9383 -0.0767886 0)
(2.72662 -0.344687 0)
(2.53857 -0.60673 0)
(2.29446 -0.881285 0)
(2.26117 -0.894364 0)
(2.29725 -0.865418 0)
(2.31116 -0.855064 0)
(2.32561 -0.854544 0)
(2.33482 -0.846524 0)
(2.3381 -0.839796 0)
(3 1.76995e-13 0)
(3 -1.52077e-10 0)
(3 -2.7571e-10 0)
(3 5.56195e-10 0)
(3 -1.92506e-11 0)
(3 3.61487e-08 0)
(3 8.38285e-08 0)
(3 3.74937e-07 0)
(3 6.07776e-06 0)
(3 5.80686e-06 0)
(3.00002 5.2049e-05 0)
(2.99897 -0.00134655 0)
(2.96391 -0.0452706 0)
(2.83633 -0.206155 0)
(2.58641 -0.545697 0)
(2.31039 -0.871954 0)
(2.2916 -0.862934 0)
(2.31 -0.871395 0)
(2.30968 -0.869587 0)
(2.33034 -0.861803 0)
(2.34476 -0.852247 0)
(2.34709 -0.842282 0)
(2.3497 -0.838177 0)
(2.34876 -0.83847 0)
(3 2.46389e-10 0)
(3 -3.16691e-09 0)
(3 7.23382e-08 0)
(3 9.67789e-08 0)
(3 4.77584e-07 0)
(3 6.5702e-07 0)
(3 5.87169e-06 0)
(3 5.66492e-06 0)
(3.00002 4.25028e-05 0)
(2.9994 -0.000547418 0)
(2.98209 -0.0247826 0)
(2.89257 -0.148818 0)
(2.62082 -0.491059 0)
(2.38705 -0.78624 0)
(2.37454 -0.83244 0)
(2.31007 -0.878869 0)
(2.31335 -0.882476 0)
(2.32627 -0.874318 0)
(2.34495 -0.852519 0)
(2.35253 -0.850961 0)
(2.35984 -0.845992 0)
(2.36066 -0.841328 0)
(2.35921 -0.839424 0)
(2.35334 -0.839747 0)
(3 2.76694e-09 0)
(3 1.28654e-06 0)
(3 1.9098e-06 0)
(3 1.01701e-06 0)
(3 8.23552e-06 0)
(2.99999 -2.30309e-05 0)
(3.00005 0.000118974 0)
(2.99921 -0.00127029 0)
(2.99017 -0.0180737 0)
(2.91037 -0.146991 0)
(2.69021 -0.477501 0)
(2.52599 -0.709735 0)
(2.31524 -0.917789 0)
(2.26776 -0.968574 0)
(2.27915 -0.945657 0)
(2.30668 -0.907506 0)
(2.33062 -0.884623 0)
(2.34193 -0.868198 0)
(2.35474 -0.853542 0)
(2.36092 -0.84207 0)
(2.36133 -0.843389 0)
(2.36082 -0.845382 0)
(2.35814 -0.845277 0)
(2.35091 -0.849163 0)
(3 -2.60716e-07 0)
(3.00002 3.02295e-05 0)
(2.99991 -0.000104045 0)
(2.99987 -0.00020145 0)
(2.99866 -0.0017772 0)
(2.99115 -0.013161 0)
(2.96684 -0.0512105 0)
(2.89369 -0.1803 0)
(2.77941 -0.405582 0)
(2.60395 -0.69256 0)
(2.43416 -0.86047 0)
(2.33498 -0.9274 0)
(2.30035 -0.917154 0)
(2.30173 -0.902035 0)
(2.30841 -0.889053 0)
(2.34259 -0.862687 0)
(2.354 -0.866092 0)
(2.35641 -0.853903 0)
(2.3567 -0.848653 0)
(2.35679 -0.845706 0)
(2.35738 -0.844729 0)
(2.35412 -0.846621 0)
(2.34907 -0.849833 0)
(2.34552 -0.853211 0)
(2.99859 -0.00150928 0)
(2.99143 -0.0102169 0)
(2.95895 -0.0499721 0)
(2.90194 -0.133786 0)
(2.80587 -0.272919 0)
(2.67288 -0.46977 0)
(2.54667 -0.676111 0)
(2.37111 -0.907118 0)
(2.2207 -1.07021 0)
(2.17511 -1.1004 0)
(2.14784 -1.04525 0)
(2.1803 -1.00277 0)
(2.24864 -0.952438 0)
(2.30541 -0.896653 0)
(2.32602 -0.857573 0)
(2.34854 -0.830311 0)
(2.35513 -0.837689 0)
(2.35629 -0.842161 0)
(2.35409 -0.842871 0)
(2.35176 -0.842889 0)
(2.34827 -0.844288 0)
(2.34447 -0.845587 0)
(2.34175 -0.84779 0)
(2.33999 -0.849579 0)
(2.9313 -0.0326165 0)
(2.85697 -0.0318166 0)
(2.74737 -0.169768 0)
(2.67546 -0.234498 0)
(2.57798 -0.345705 0)
(2.49401 -0.450672 0)
(2.43076 -0.541034 0)
(2.34768 -0.625114 0)
(2.3112 -0.725595 0)
(2.2584 -0.798744 0)
(2.25107 -0.855099 0)
(2.28235 -0.889001 0)
(2.32233 -0.895129 0)
(2.3366 -0.885844 0)
(2.34706 -0.879538 0)
(2.34903 -0.867284 0)
(2.34744 -0.859625 0)
(2.34446 -0.851926 0)
(2.34351 -0.848631 0)
(2.34295 -0.848455 0)