/*--------------------------------*- C++ -*----------------------------------*\
  =========                 |
  \\      /  F ield         | OpenFOAM: The Open Source CFD Toolbox
   \\    /   O peration     | Website:  https://openfoam.org
    \\  /    A nd           | Version:  7
     \\/     M anipulation  |
\*---------------------------------------------------------------------------*/
FoamFile
{
    version     2.0;
    format      ascii;
    class       volVectorField;
    location    "3.3";
    object      U;
}
// * * * * * * * * * * * * * * * * * * * * * * * * * * * * * * * * * * * * * //

dimensions      [0 1 -1 0 0 0 0];

internalField   nonuniform List<vector> 
73728
(
(3 -1.63146e-17 0)
(3 -1.04075e-16 0)
(3 3.22378e-17 0)
(3 9.92708e-17 0)
(3 -1.7772e-16 0)
(3 -2.65764e-16 0)
(3 2.81286e-16 0)
(3 1.66702e-16 0)
(3 2.77759e-16 0)
(3 4.6899e-16 0)
(3 2.80883e-16 0)
(3 2.83277e-16 0)
(3 4.86878e-17 0)
(3 9.94017e-17 0)
(3 3.04525e-16 0)
(3 3.85171e-16 0)
(3 7.12082e-16 0)
(3 5.89526e-16 0)
(3 1.5146e-16 0)
(3 -2.80234e-16 0)
(3 -8.6755e-16 0)
(3 -7.14902e-16 0)
(3 -5.03467e-16 0)
(3 5.49511e-16 0)
(3 9.33635e-16 0)
(3 1.29345e-15 0)
(3 1.41871e-15 0)
(3 1.45578e-15 0)
(3 1.35355e-15 0)
(3 1.44007e-15 0)
(3 1.0982e-15 0)
(3 4.35625e-16 0)
(3 2.58673e-16 0)
(3 2.35773e-16 0)
(3 7.25283e-16 0)
(3 1.43431e-15 0)
(3 1.32794e-15 0)
(3 6.23398e-16 0)
(3 5.2546e-16 0)
(3 -2.7379e-17 0)
(3 -4.15203e-17 0)
(3 7.60987e-17 0)
(3 1.7726e-16 0)
(3 6.44688e-16 0)
(3 4.42206e-16 0)
(3 1.43403e-16 0)
(3 2.68305e-16 0)
(3 -2.46203e-16 0)
(3 -1.42383e-15 0)
(3 -1.10951e-15 0)
(3 6.68294e-16 0)
(3 1.05309e-15 0)
(3 2.1695e-16 0)
(3 -1.88424e-16 0)
(3 -2.14391e-16 0)
(3 6.99274e-16 0)
(3 1.55834e-15 0)
(3 1.48561e-15 0)
(3 4.23514e-16 0)
(3 2.64818e-16 0)
(3 -7.33082e-16 0)
(3 -1.22622e-15 0)
(3 -1.20623e-15 0)
(3 -5.78147e-16 0)
(3 -4.38534e-16 0)
(3 -8.67762e-16 0)
(3 -1.34015e-15 0)
(3 -9.54189e-16 0)
(3 -9.45732e-16 0)
(3 -3.81308e-16 0)
(3 -1.84733e-16 0)
(3 9.55366e-17 0)
(3 6.32223e-16 0)
(3 1.10398e-15 0)
(3 1.59e-15 0)
(3 1.41273e-15 0)
(3 9.43743e-16 0)
(3 3.56489e-16 0)
(3 7.30208e-16 0)
(3 -1.90086e-15 0)
(1.068 0.00295525 0)
(0.615377 0.00139503 0)
(0.59751 0.00848109 0)
(0.587646 0.00643072 0)
(0.574589 0.00614721 0)
(0.559172 0.00661798 0)
(0.5384 0.00693249 0)
(0.512143 0.0071256 0)
(0.48392 0.0073897 0)
(0.461728 0.00808188 0)
(0.445692 0.00903144 0)
(0.436234 0.0107536 0)
(0.425766 0.0135952 0)
(0.409306 0.0157791 0)
(0.386499 0.0288768 0)
(0.33192 0.0387745 0)
(3 -9.04456e-17 0)
(3 -2.12801e-16 0)
(3 1.82979e-16 0)
(3 2.24011e-16 0)
(3 -3.19332e-16 0)
(3 -1.6151e-16 0)
(3 3.23507e-16 0)
(3 3.51465e-16 0)
(3 1.09749e-15 0)
(3 1.03354e-15 0)
(3 5.90587e-16 0)
(3 7.7281e-16 0)
(3 3.99723e-16 0)
(3 4.5802e-16 0)
(3 5.01559e-16 0)
(3 8.40535e-16 0)
(3 9.55082e-16 0)
(3 -2.90021e-16 0)
(3 -7.3413e-16 0)
(3 -1.07985e-15 0)
(3 -8.9653e-16 0)
(3 3.38868e-17 0)
(3 7.78283e-16 0)
(3 8.24765e-16 0)
(3 1.19629e-15 0)
(3 1.48077e-15 0)
(3 1.22522e-15 0)
(3 1.04241e-15 0)
(3 7.40465e-16 0)
(3 8.11472e-16 0)
(3 7.08123e-16 0)
(3 -3.42225e-16 0)
(3 -6.18534e-16 0)
(3 -4.43163e-16 0)
(3 5.94497e-16 0)
(3 1.61037e-15 0)
(3 1.75847e-15 0)
(3 7.38637e-16 0)
(3 3.58757e-16 0)
(3 2.81474e-18 0)
(3 4.10863e-16 0)
(3 7.09363e-16 0)
(3 9.31379e-16 0)
(3 1.50538e-15 0)
(3 1.38707e-15 0)
(3 2.17789e-16 0)
(3 -2.50178e-16 0)
(3 -1.80176e-15 0)
(3 -1.07802e-15 0)
(3 1.46985e-17 0)
(3 6.49148e-16 0)
(3 4.16734e-17 0)
(3 -4.22807e-16 0)
(3 -8.86413e-16 0)
(3 -2.57668e-16 0)
(3 2.25543e-15 0)
(3 2.32322e-15 0)
(3 1.71965e-15 0)
(3 6.41604e-16 0)
(3 1.39526e-16 0)
(3 -2.30224e-16 0)
(3 -5.95986e-16 0)
(3 -9.06762e-16 0)
(3 -6.41749e-16 0)
(3 -7.66247e-16 0)
(3 -8.82222e-16 0)
(3 -1.52164e-15 0)
(3 -2.00564e-15 0)
(3 -2.44935e-15 0)
(3 7.57107e-16 0)
(3 2.0969e-15 0)
(3 1.68756e-15 0)
(3 1.45645e-15 0)
(3 2.35997e-15 0)
(3 3.32925e-15 0)
(3 2.75047e-15 0)
(3 2.43815e-15 0)
(3 2.10676e-15 0)
(3 2.06789e-15 0)
(3 -2.32785e-16 0)
(1.07416 0.0147253 0)
(0.613897 0.00992441 0)
(0.594108 0.0227353 0)
(0.585101 0.0195438 0)
(0.571447 0.0179158 0)
(0.556076 0.0192877 0)
(0.535725 0.020688 0)
(0.510024 0.0216312 0)
(0.482611 0.0227733 0)
(0.461047 0.0247798 0)
(0.44561 0.0277431 0)
(0.437336 0.0323633 0)
(0.430114 0.0401549 0)
(0.41525 0.0486315 0)
(0.404346 0.0692687 0)
(0.373198 0.0868428 0)
(3 -1.629e-16 0)
(3 8.63282e-17 0)
(3 1.21776e-16 0)
(3 -9.54339e-17 0)
(3 3.38897e-17 0)
(3 2.93446e-16 0)
(3 4.45459e-16 0)
(3 9.55768e-16 0)
(3 1.37074e-15 0)
(3 9.46684e-16 0)
(3 7.96916e-16 0)
(3 7.87063e-16 0)
(3 7.24467e-16 0)
(3 8.14156e-16 0)
(3 1.46819e-15 0)
(3 1.80671e-15 0)
(3 1.34274e-15 0)
(3 2.20372e-16 0)
(3 -1.99088e-16 0)
(3 -8.79311e-16 0)
(3 -5.05081e-16 0)
(3 -1.01585e-16 0)
(3 4.92743e-16 0)
(3 4.4178e-16 0)
(3 8.97807e-16 0)
(3 1.31167e-15 0)
(3 1.01981e-15 0)
(3 -3.61128e-16 0)
(3 -6.23151e-16 0)
(3 6.77765e-16 0)
(3 1.11431e-15 0)
(3 -2.09921e-16 0)
(3 -7.30969e-16 0)
(3 -5.98121e-16 0)
(3 5.10201e-16 0)
(3 1.29301e-15 0)
(3 1.12958e-15 0)
(3 5.26648e-16 0)
(3 -3.49247e-17 0)
(3 -3.38884e-19 0)
(3 1.02888e-16 0)
(3 1.11965e-16 0)
(3 9.9684e-16 0)
(3 1.25032e-15 0)
(3 1.38118e-15 0)
(3 8.88019e-16 0)
(3 -7.79996e-16 0)
(3 -2.32938e-15 0)
(3 -2.1632e-15 0)
(3 -2.74415e-15 0)
(3 -3.62485e-15 0)
(3 -2.3918e-15 0)
(3 -1.079e-15 0)
(3 2.20476e-16 0)
(3 2.47689e-15 0)
(3 2.75877e-15 0)
(3 2.1447e-15 0)
(3 1.09825e-15 0)
(3 4.33169e-16 0)
(3 4.31134e-16 0)
(3 2.67032e-16 0)
(3 -1.9646e-16 0)
(3 -6.37645e-16 0)
(3 -9.30881e-16 0)
(3 -5.60681e-16 0)
(3 -2.30913e-16 0)
(3 -4.74618e-16 0)
(3 -1.61014e-15 0)
(3 -1.50686e-15 0)
(3 -2.15016e-16 0)
(3 1.81209e-16 0)
(3 5.52417e-16 0)
(3 4.1199e-16 0)
(3 1.39127e-15 0)
(3 2.09297e-15 0)
(3 2.15985e-15 0)
(3 2.20461e-15 0)
(3 1.66998e-15 0)
(3 1.29864e-15 0)
(3 1.6019e-15 0)
(1.09096 0.0259077 0)
(0.616122 0.0193954 0)
(0.595293 0.0357875 0)
(0.586805 0.032985 0)
(0.57274 0.0302953 0)
(0.557157 0.0318106 0)
(0.536998 0.0338247 0)
(0.511714 0.0352067 0)
(0.485249 0.0371135 0)
(0.46468 0.0403761 0)
(0.451203 0.0457374 0)
(0.44498 0.0527321 0)
(0.441688 0.0627245 0)
(0.431249 0.0733059 0)
(0.426947 0.0923543 0)
(0.412291 0.112323 0)
(3 4.92302e-17 0)
(3 3.19284e-16 0)
(3 1.33071e-16 0)
(3 -2.63294e-17 0)
(3 1.79211e-16 0)
(3 6.64615e-16 0)
(3 5.06093e-16 0)
(3 5.51143e-16 0)
(3 9.28914e-16 0)
(3 9.91325e-16 0)
(3 7.97965e-16 0)
(3 4.85908e-16 0)
(3 8.0497e-16 0)
(3 9.02523e-16 0)
(3 5.74565e-16 0)
(3 -1.80647e-16 0)
(3 -3.34816e-16 0)
(3 7.09298e-17 0)
(3 2.09252e-16 0)
(3 2.64914e-17 0)
(3 1.21696e-15 0)
(3 7.76976e-16 0)
(3 5.2703e-16 0)
(3 7.6588e-17 0)
(3 -2.53937e-17 0)
(3 1.98639e-16 0)
(3 6.0269e-16 0)
(3 4.96792e-17 0)
(3 -1.17529e-16 0)
(3 2.52597e-16 0)
(3 4.07526e-16 0)
(3 9.61138e-16 0)
(3 6.23239e-16 0)
(3 5.97292e-16 0)
(3 7.08196e-16 0)
(3 1.61806e-15 0)
(3 2.09789e-15 0)
(3 1.90035e-15 0)
(3 3.56394e-16 0)
(3 -6.06356e-16 0)
(3 -7.08257e-16 0)
(3 -4.62822e-16 0)
(3 1.23307e-16 0)
(3 1.05513e-16 0)
(3 9.84356e-16 0)
(3 7.57575e-16 0)
(3 -1.54323e-15 0)
(3 -1.95137e-15 0)
(3 -3.34635e-15 0)
(3 -5.39502e-15 0)
(3 -5.44118e-15 0)
(3 -2.84389e-15 0)
(3 -1.15498e-15 0)
(3 9.53883e-16 0)
(3 2.20411e-15 0)
(3 1.66884e-15 0)
(3 1.64307e-15 0)
(3 1.62762e-15 0)
(3 1.9263e-15 0)
(3 1.16863e-15 0)
(3 3.2898e-16 0)
(3 -3.91411e-16 0)
(3 -9.13917e-16 0)
(3 -1.26008e-15 0)
(3 -1.22486e-15 0)
(3 -1.29405e-15 0)
(3 -1.21315e-15 0)
(3 -5.81474e-16 0)
(3 4.20006e-17 0)
(3 2.80792e-16 0)
(3 -1.39978e-16 0)
(3 1.69957e-16 0)
(3 7.14785e-16 0)
(3 1.71743e-15 0)
(3 2.0165e-15 0)
(3 1.74299e-15 0)
(3 1.68227e-15 0)
(3 1.75866e-15 0)
(3 2.45695e-15 0)
(3 1.18907e-15 0)
(1.11552 0.0360554 0)
(0.618912 0.0286091 0)
(0.59675 0.0479589 0)
(0.588477 0.0456111 0)
(0.574623 0.0421801 0)
(0.559514 0.0435176 0)
(0.539988 0.0459316 0)
(0.515466 0.0475247 0)
(0.490621 0.049847 0)
(0.471743 0.0541858 0)
(0.46135 0.0613662 0)
(0.457029 0.0699893 0)
(0.456417 0.0805977 0)
(0.450549 0.0921517 0)
(0.448181 0.108189 0)
(0.440608 0.125637 0)
(3 -4.78878e-17 0)
(3 6.48645e-17 0)
(3 1.60934e-16 0)
(3 8.22715e-17 0)
(3 2.62871e-17 0)
(3 6.24599e-17 0)
(3 -1.19631e-16 0)
(3 -6.70233e-16 0)
(3 -7.38973e-16 0)
(3 -5.44872e-16 0)
(3 -1.76214e-16 0)
(3 -3.08139e-18 0)
(3 2.58077e-16 0)
(3 2.09245e-16 0)
(3 -6.84004e-16 0)
(3 -9.96422e-16 0)
(3 -1.25637e-15 0)
(3 -8.03915e-16 0)
(3 -7.00655e-16 0)
(3 6.01509e-16 0)
(3 1.19564e-15 0)
(3 1.16805e-15 0)
(3 1.12168e-15 0)
(3 8.9299e-16 0)
(3 8.11522e-16 0)
(3 9.08347e-16 0)
(3 7.58643e-16 0)
(3 8.56579e-16 0)
(3 5.61247e-16 0)
(3 -6.55418e-16 0)
(3 -8.25675e-16 0)
(3 9.15261e-16 0)
(3 1.99844e-15 0)
(3 1.65548e-15 0)
(3 1.31448e-15 0)
(3 1.63753e-15 0)
(3 2.85227e-15 0)
(3 3.30531e-15 0)
(3 2.19886e-15 0)
(3 8.18911e-17 0)
(3 -8.10128e-16 0)
(3 -4.44861e-16 0)
(3 2.38136e-16 0)
(3 4.72073e-16 0)
(3 4.48706e-16 0)
(3 4.50046e-16 0)
(3 3.50039e-16 0)
(3 -2.90674e-16 0)
(3 -1.08337e-15 0)
(3 -2.1754e-15 0)
(3 -1.85539e-15 0)
(3 -1.16588e-15 0)
(3 3.39116e-16 0)
(3 1.63038e-15 0)
(3 5.90542e-16 0)
(3 -1.83901e-16 0)
(3 3.41194e-16 0)
(3 1.10991e-15 0)
(3 1.27963e-15 0)
(3 1.09918e-15 0)
(3 8.37718e-16 0)
(3 4.33933e-16 0)
(3 -3.90484e-16 0)
(3 -1.00597e-15 0)
(3 -2.00985e-15 0)
(3 -2.08332e-15 0)
(3 -1.89046e-15 0)
(3 -7.15668e-16 0)
(3 -2.43537e-16 0)
(3 5.10303e-16 0)
(3 9.86665e-16 0)
(3 1.07442e-15 0)
(3 2.06231e-15 0)
(3 2.56413e-15 0)
(3 3.02229e-15 0)
(3 3.09102e-15 0)
(3 2.63176e-15 0)
(3 2.95454e-15 0)
(3 3.50943e-15 0)
(3 2.27031e-15 0)
(1.14753 0.0461605 0)
(0.621809 0.0379879 0)
(0.597573 0.0595964 0)
(0.589279 0.0572501 0)
(0.575456 0.0532789 0)
(0.560818 0.0543443 0)
(0.541835 0.0569223 0)
(0.518132 0.0584913 0)
(0.496071 0.0609196 0)
(0.480006 0.0663171 0)
(0.472979 0.0745328 0)
(0.470495 0.0843585 0)
(0.471116 0.0954698 0)
(0.468995 0.107407 0)
(0.466924 0.121045 0)
(0.461633 0.136117 0)
(3 1.63678e-17 0)
(3 6.02702e-18 0)
(3 2.18054e-17 0)
(3 3.61259e-17 0)
(3 -2.40948e-16 0)
(3 -6.37457e-16 0)
(3 -8.1186e-16 0)
(3 -1.10452e-15 0)
(3 -1.82921e-15 0)
(3 -1.39185e-15 0)
(3 8.91079e-18 0)
(3 3.98247e-16 0)
(3 6.50985e-16 0)
(3 9.56449e-17 0)
(3 -6.47435e-16 0)
(3 -8.91393e-16 0)
(3 -8.4156e-16 0)
(3 -1.07387e-15 0)
(3 -1.03466e-15 0)
(3 -4.61779e-16 0)
(3 -1.60862e-16 0)
(3 8.52209e-16 0)
(3 1.51475e-15 0)
(3 2.32514e-15 0)
(3 2.3281e-15 0)
(3 2.1376e-15 0)
(3 1.97849e-15 0)
(3 1.9636e-15 0)
(3 1.38422e-15 0)
(3 1.36643e-16 0)
(3 1.6616e-16 0)
(3 6.36301e-16 0)
(3 9.66669e-16 0)
(3 7.22391e-16 0)
(3 1.12331e-15 0)
(3 1.06785e-15 0)
(3 1.70919e-15 0)
(3 2.6622e-15 0)
(3 2.49105e-15 0)
(3 2.04233e-15 0)
(3 1.4697e-15 0)
(3 1.2685e-15 0)
(3 7.17828e-16 0)
(3 7.14362e-16 0)
(3 8.75778e-17 0)
(3 2.78686e-16 0)
(3 7.73221e-16 0)
(3 1.37325e-16 0)
(3 -1.79561e-17 0)
(3 -6.11059e-16 0)
(3 2.60915e-16 0)
(3 1.16815e-15 0)
(3 2.94568e-15 0)
(3 3.31172e-15 0)
(3 1.96956e-15 0)
(3 7.02145e-16 0)
(3 2.07132e-16 0)
(3 1.33594e-16 0)
(3 1.1042e-15 0)
(3 2.16332e-15 0)
(3 2.24307e-15 0)
(3 1.35607e-15 0)
(3 5.86098e-16 0)
(3 -1.20539e-17 0)
(3 -1.08057e-15 0)
(3 -1.51131e-15 0)
(3 -8.73233e-16 0)
(3 -4.79539e-16 0)
(3 -4.04539e-16 0)
(3 2.00983e-16 0)
(3 2.22678e-15 0)
(3 2.35183e-15 0)
(3 2.1511e-15 0)
(3 1.52194e-15 0)
(3 1.61163e-15 0)
(3 2.11557e-15 0)
(3 2.37802e-15 0)
(3 2.50514e-15 0)
(3 2.88417e-15 0)
(3 2.28224e-15 0)
(1.18837 0.0561486 0)
(0.625726 0.0476224 0)
(0.598436 0.0706604 0)
(0.590019 0.0677992 0)
(0.5758 0.0633376 0)
(0.561461 0.0641023 0)
(0.542819 0.0664835 0)
(0.520055 0.0676611 0)
(0.501728 0.0701258 0)
(0.489514 0.0762973 0)
(0.485438 0.0848551 0)
(0.484844 0.0955341 0)
(0.485931 0.107232 0)
(0.485807 0.119235 0)
(0.483692 0.131496 0)
(0.479213 0.144622 0)
(3 2.44959e-16 0)
(3 3.05458e-17 0)
(3 -6.45439e-18 0)
(3 7.08219e-17 0)
(3 -2.87324e-16 0)
(3 -6.79946e-16 0)
(3 -7.2859e-16 0)
(3 -3.49355e-16 0)
(3 2.27755e-17 0)
(3 -2.99702e-17 0)
(3 -2.33453e-16 0)
(3 -5.17845e-16 0)
(3 -1.33672e-16 0)
(3 -4.70958e-16 0)
(3 -1.04825e-15 0)
(3 -8.23159e-16 0)
(3 -2.80114e-16 0)
(3 1.72099e-16 0)
(3 3.45651e-16 0)
(3 -5.57001e-16 0)
(3 -3.67395e-16 0)
(3 9.98247e-16 0)
(3 1.66322e-15 0)
(3 1.65302e-15 0)
(3 1.10683e-15 0)
(3 1.09237e-15 0)
(3 1.75381e-15 0)
(3 1.32552e-15 0)
(3 5.4277e-16 0)
(3 3.82097e-17 0)
(3 -2.31289e-17 0)
(3 7.87462e-17 0)
(3 -5.29142e-16 0)
(3 -3.14085e-16 0)
(3 6.44242e-16 0)
(3 6.70415e-16 0)
(3 8.42729e-16 0)
(3 1.09881e-15 0)
(3 1.39758e-15 0)
(3 1.62394e-15 0)
(3 2.03878e-15 0)
(3 1.75428e-15 0)
(3 -7.26356e-17 0)
(3 -9.88885e-16 0)
(3 -6.53446e-16 0)
(3 -9.32055e-17 0)
(3 6.84959e-16 0)
(3 6.89992e-16 0)
(3 1.81112e-15 0)
(3 1.66854e-15 0)
(3 1.47126e-15 0)
(3 1.66079e-15 0)
(3 1.85117e-15 0)
(3 2.29056e-15 0)
(3 2.1621e-15 0)
(3 2.15051e-16 0)
(3 -1.31525e-15 0)
(3 -1.12794e-15 0)
(3 -1.23344e-16 0)
(3 9.86719e-17 0)
(3 6.80392e-16 0)
(3 5.7307e-16 0)
(3 4.09994e-16 0)
(3 2.58405e-16 0)
(3 -3.06823e-16 0)
(3 -7.83907e-16 0)
(3 -6.3678e-18 0)
(3 1.08622e-16 0)
(3 -4.77564e-16 0)
(3 4.97925e-16 0)
(3 2.37386e-15 0)
(3 2.42109e-15 0)
(3 1.7727e-15 0)
(3 1.46557e-15 0)
(3 1.5979e-15 0)
(3 1.64534e-15 0)
(3 1.72498e-15 0)
(3 1.68008e-15 0)
(3 2.11257e-15 0)
(3 1.93916e-15 0)
(1.23843 0.0655998 0)
(0.630737 0.0576911 0)
(0.599206 0.0809624 0)
(0.590768 0.0770348 0)
(0.576002 0.0720953 0)
(0.561556 0.0725884 0)
(0.542812 0.0744938 0)
(0.521457 0.0752583 0)
(0.507493 0.0781163 0)
(0.499582 0.0845318 0)
(0.497991 0.0930967 0)
(0.499388 0.10415 0)
(0.500818 0.116195 0)
(0.501031 0.128018 0)
(0.498717 0.139487 0)
(0.494612 0.151467 0)
(3 -1.21255e-18 0)
(3 -1.19056e-16 0)
(3 3.02765e-17 0)
(3 1.24564e-16 0)
(3 2.63622e-16 0)
(3 5.92573e-16 0)
(3 1.34594e-16 0)
(3 -1.95445e-16 0)
(3 -4.04291e-17 0)
(3 -1.41306e-16 0)
(3 -5.78366e-16 0)
(3 -8.97274e-16 0)
(3 -8.46946e-16 0)
(3 -7.29378e-16 0)
(3 -8.32767e-16 0)
(3 -2.21185e-16 0)
(3 3.029e-16 0)
(3 1.02676e-15 0)
(3 7.2616e-16 0)
(3 8.4908e-17 0)
(3 6.09797e-17 0)
(3 5.02296e-18 0)
(3 -2.86451e-16 0)
(3 -2.07288e-16 0)
(3 -3.82044e-16 0)
(3 9.56425e-17 0)
(3 3.75245e-16 0)
(3 1.19119e-16 0)
(3 -1.31937e-16 0)
(3 7.70762e-17 0)
(3 5.54279e-16 0)
(3 -4.22506e-17 0)
(3 -2.01964e-16 0)
(3 1.36429e-16 0)
(3 9.23984e-16 0)
(3 1.61239e-15 0)
(3 1.37924e-15 0)
(3 8.67944e-16 0)
(3 8.21622e-16 0)
(3 1.18064e-15 0)
(3 1.80139e-15 0)
(3 2.37682e-15 0)
(3 9.02939e-16 0)
(3 -7.22055e-16 0)
(3 -4.83964e-16 0)
(3 -4.03178e-17 0)
(3 2.89838e-16 0)
(3 1.17084e-15 0)
(3 8.4839e-16 0)
(3 6.50782e-16 0)
(3 1.69195e-15 0)
(3 2.56063e-15 0)
(3 2.03272e-15 0)
(3 8.32866e-16 0)
(3 -1.39093e-17 0)
(3 -5.09319e-16 0)
(3 -1.1062e-15 0)
(3 -9.32735e-16 0)
(3 -5.95707e-16 0)
(3 -7.76573e-16 0)
(3 -6.09884e-16 0)
(3 -7.69056e-16 0)
(3 -1.10133e-15 0)
(3 -9.90793e-16 0)
(3 -6.14078e-16 0)
(3 2.04551e-16 0)
(3 4.11173e-16 0)
(3 3.27071e-16 0)
(3 3.62656e-16 0)
(3 1.90044e-15 0)
(3 2.70785e-15 0)
(3 2.64414e-15 0)
(3 2.56209e-15 0)
(3 2.27361e-15 0)
(3 1.79505e-15 0)
(3 1.20254e-15 0)
(3 4.54633e-16 0)
(3 4.21736e-16 0)
(3 5.72005e-16 0)
(3 1.52107e-16 0)
(1.29761 0.0743869 0)
(0.636737 0.0683326 0)
(0.59951 0.0901311 0)
(0.591308 0.0845096 0)
(0.576111 0.0793378 0)
(0.560981 0.0796452 0)
(0.541705 0.0810351 0)
(0.523317 0.0817445 0)
(0.513572 0.0853447 0)
(0.509734 0.0914351 0)
(0.510304 0.1003 0)
(0.513656 0.111042 0)
(0.515467 0.122669 0)
(0.515184 0.133772 0)
(0.512536 0.144438 0)
(0.508628 0.155542 0)
(3 -1.07363e-16 0)
(3 -2.37649e-17 0)
(3 -2.86087e-16 0)
(3 -8.29623e-17 0)
(3 3.8268e-16 0)
(3 9.90099e-16 0)
(3 6.27111e-16 0)
(3 -1.58287e-16 0)
(3 -7.04322e-16 0)
(3 -2.13047e-16 0)
(3 -1.26537e-16 0)
(3 -4.0201e-16 0)
(3 -1.19825e-15 0)
(3 -1.61204e-15 0)
(3 -1.31451e-15 0)
(3 -8.6689e-16 0)
(3 -5.17241e-16 0)
(3 3.04646e-16 0)
(3 -1.42916e-16 0)
(3 -6.29572e-16 0)
(3 -9.07036e-16 0)
(3 -9.91762e-16 0)
(3 -7.31095e-16 0)
(3 -8.36544e-17 0)
(3 -5.88223e-18 0)
(3 3.63656e-17 0)
(3 -2.99063e-16 0)
(3 -1.94648e-16 0)
(3 2.10783e-16 0)
(3 1.11332e-16 0)
(3 4.07156e-16 0)
(3 3.52215e-16 0)
(3 5.86671e-16 0)
(3 1.7981e-15 0)
(3 2.10163e-15 0)
(3 2.08979e-15 0)
(3 1.50377e-15 0)
(3 6.52192e-16 0)
(3 4.16405e-16 0)
(3 5.61623e-16 0)
(3 6.11053e-16 0)
(3 1.13628e-15 0)
(3 1.51746e-15 0)
(3 5.37791e-16 0)
(3 -6.15249e-17 0)
(3 -1.22555e-16 0)
(3 3.38585e-16 0)
(3 1.42938e-15 0)
(3 1.42157e-15 0)
(3 1.41151e-15 0)
(3 1.56761e-15 0)
(3 1.90869e-15 0)
(3 1.55797e-15 0)
(3 6.71599e-16 0)
(3 -7.61638e-17 0)
(3 -1.09984e-15 0)
(3 -1.21966e-15 0)
(3 -7.00947e-16 0)
(3 -1.08234e-15 0)
(3 -1.05445e-15 0)
(3 -1.27152e-15 0)
(3 -1.0558e-15 0)
(3 -7.23409e-16 0)
(3 -1.90388e-16 0)
(3 -1.4612e-17 0)
(3 1.39742e-16 0)
(3 4.44536e-16 0)
(3 7.57133e-16 0)
(3 1.61696e-15 0)
(3 1.96771e-15 0)
(3 2.13427e-15 0)
(3 2.02175e-15 0)
(3 1.82986e-15 0)
(3 1.52757e-15 0)
(3 1.46389e-15 0)
(3 2.87326e-16 0)
(3 1.57677e-16 0)
(3 2.85047e-16 0)
(3 -1.06744e-16 0)
(3 -1.51455e-15 0)
(1.36594 0.0824584 0)
(0.64357 0.0794394 0)
(0.598799 0.0978302 0)
(0.591561 0.0900744 0)
(0.576052 0.0848874 0)
(0.559463 0.084923 0)
(0.540093 0.0861827 0)
(0.52604 0.0877279 0)
(0.519999 0.0916163 0)
(0.519284 0.0975151 0)
(0.522409 0.106275 0)
(0.52708 0.116966 0)
(0.528948 0.127579 0)
(0.527965 0.137377 0)
(0.525087 0.146882 0)
(0.521221 0.15686 0)
(3 -3.67124e-16 0)
(3 -4.76879e-16 0)
(3 -4.60062e-16 0)
(3 -1.31397e-16 0)
(3 3.34512e-17 0)
(3 -1.90539e-16 0)
(3 -1.19353e-17 0)
(3 1.14479e-16 0)
(3 4.48085e-17 0)
(3 -4.9661e-16 0)
(3 -4.35411e-16 0)
(3 -6.41584e-16 0)
(3 -9.00707e-16 0)
(3 -1.48011e-15 0)
(3 -1.42859e-15 0)
(3 -9.80696e-16 0)
(3 -1.14737e-15 0)
(3 -8.22942e-16 0)
(3 9.11844e-19 0)
(3 -7.94562e-16 0)
(3 -1.86399e-15 0)
(3 -2.30339e-15 0)
(3 -2.61664e-16 0)
(3 5.91592e-16 0)
(3 1.11415e-15 0)
(3 6.27365e-16 0)
(3 -3.03896e-17 0)
(3 2.66035e-16 0)
(3 7.15586e-16 0)
(3 5.014e-16 0)
(3 -5.30809e-16 0)
(3 -1.90735e-16 0)
(3 1.73817e-15 0)
(3 2.81468e-15 0)
(3 2.41277e-15 0)
(3 9.54408e-16 0)
(3 -1.98633e-16 0)
(3 -3.17886e-16 0)
(3 2.12581e-16 0)
(3 3.00742e-16 0)
(3 -5.99909e-16 0)
(3 1.80907e-16 0)
(3 6.17294e-16 0)
(3 9.29527e-16 0)
(3 1.75348e-16 0)
(3 -2.79359e-16 0)
(3 -6.52514e-16 0)
(3 -3.95643e-16 0)
(3 2.04994e-16 0)
(3 1.83428e-15 0)
(3 2.25231e-15 0)
(3 1.89656e-15 0)
(3 1.86179e-15 0)
(3 1.23969e-15 0)
(3 1.23235e-16 0)
(3 -8.80716e-16 0)
(3 -6.50678e-16 0)
(3 -6.55841e-17 0)
(3 -1.87948e-15 0)
(3 -1.82858e-15 0)
(3 -1.52822e-15 0)
(3 -6.79218e-16 0)
(3 -1.87247e-16 0)
(3 -1.75458e-16 0)
(3 -2.39242e-16 0)
(3 7.84879e-18 0)
(3 1.15393e-15 0)
(3 1.60199e-15 0)
(3 1.25731e-15 0)
(3 4.63993e-16 0)
(3 1.45025e-15 0)
(3 1.14207e-15 0)
(3 6.37746e-16 0)
(3 8.01424e-16 0)
(3 5.93333e-16 0)
(3 3.88957e-16 0)
(3 4.92371e-16 0)
(3 2.10181e-16 0)
(3 2.22408e-16 0)
(3 -6.56595e-16 0)
(1.44364 0.0896777 0)
(0.65113 0.0905336 0)
(0.596754 0.104093 0)
(0.591492 0.0937631 0)
(0.575061 0.0884004 0)
(0.557024 0.0882726 0)
(0.539472 0.0901836 0)
(0.529607 0.0932004 0)
(0.526733 0.0971583 0)
(0.528433 0.103582 0)
(0.533903 0.112389 0)
(0.539266 0.122403 0)
(0.540618 0.131605 0)
(0.538871 0.139676 0)
(0.535926 0.14781 0)
(0.53224 0.156373 0)
(3 4.74728e-17 0)
(3 1.32062e-16 0)
(3 3.39991e-17 0)
(3 -1.25938e-16 0)
(3 -1.87011e-16 0)
(3 -9.55755e-18 0)
(3 1.68595e-16 0)
(3 8.65125e-16 0)
(3 7.87846e-16 0)
(3 -2.04848e-17 0)
(3 6.05681e-16 0)
(3 1.14884e-15 0)
(3 1.26642e-15 0)
(3 1.45018e-15 0)
(3 1.15259e-15 0)
(3 -7.40034e-17 0)
(3 -1.83769e-16 0)
(3 -6.24286e-16 0)
(3 -8.80775e-16 0)
(3 -5.58917e-16 0)
(3 -1.46251e-15 0)
(3 -2.07443e-15 0)
(3 -1.15904e-15 0)
(3 -5.17176e-16 0)
(3 -4.95599e-17 0)
(3 7.88801e-18 0)
(3 -1.94721e-16 0)
(3 4.56923e-16 0)
(3 7.5454e-16 0)
(3 8.84094e-16 0)
(3 5.82012e-16 0)
(3 4.61798e-16 0)
(3 8.7578e-16 0)
(3 1.02773e-15 0)
(3 3.45108e-16 0)
(3 -1.33349e-15 0)
(3 -1.79675e-15 0)
(3 -1.24208e-15 0)
(3 -7.40177e-16 0)
(3 -4.19072e-16 0)
(3 -5.01912e-16 0)
(3 -1.66125e-17 0)
(3 4.12485e-16 0)
(3 4.30852e-16 0)
(3 -1.88913e-16 0)
(3 -3.40991e-16 0)
(3 -6.26354e-16 0)
(3 -5.79603e-16 0)
(3 3.08334e-16 0)
(3 1.98591e-15 0)
(3 2.87356e-15 0)
(3 1.75442e-15 0)
(3 1.04115e-15 0)
(3 6.72451e-16 0)
(3 -4.8564e-16 0)
(3 -6.80319e-16 0)
(3 1.4873e-16 0)
(3 -5.82991e-16 0)
(3 -2.19271e-15 0)
(3 -2.31381e-15 0)
(3 -1.72516e-15 0)
(3 -8.52867e-16 0)
(3 -3.89471e-16 0)
(3 -1.6345e-16 0)
(3 -3.89004e-16 0)
(3 3.89188e-16 0)
(3 7.43757e-16 0)
(3 -3.77565e-16 0)
(3 -1.44402e-15 0)
(3 6.09676e-16 0)
(3 1.87348e-15 0)
(3 1.39649e-15 0)
(3 2.08877e-16 0)
(3 4.56402e-17 0)
(3 -1.71845e-16 0)
(3 4.2038e-16 0)
(3 3.33726e-16 0)
(3 -4.93564e-18 0)
(3 3.55896e-16 0)
(3 -8.9431e-17 0)
(1.53076 0.0956265 0)
(0.65906 0.100948 0)
(0.593903 0.109326 0)
(0.590344 0.0954004 0)
(0.572564 0.0898541 0)
(0.554382 0.0901461 0)
(0.540899 0.0933285 0)
(0.534215 0.0977017 0)
(0.533879 0.102136 0)
(0.537748 0.109491 0)
(0.544876 0.118524 0)
(0.549908 0.127724 0)
(0.550198 0.13559 0)
(0.547617 0.141937 0)
(0.54492 0.149022 0)
(0.541561 0.156333 0)
(3 3.31995e-16 0)
(3 3.15471e-16 0)
(3 2.25352e-16 0)
(3 -5.90805e-16 0)
(3 -8.97241e-17 0)
(3 2.14033e-16 0)
(3 3.40915e-16 0)
(3 1.16073e-16 0)
(3 1.12417e-16 0)
(3 3.97178e-16 0)
(3 1.20886e-15 0)
(3 1.93955e-15 0)
(3 2.28346e-15 0)
(3 1.92738e-15 0)
(3 1.87293e-15 0)
(3 5.59073e-16 0)
(3 -6.08885e-16 0)
(3 -7.95636e-16 0)
(3 -1.26278e-15 0)
(3 -1.18175e-15 0)
(3 -5.77507e-16 0)
(3 -9.93036e-16 0)
(3 -2.28452e-15 0)
(3 -1.2677e-15 0)
(3 -1.28891e-15 0)
(3 3.19142e-16 0)
(3 4.71222e-16 0)
(3 2.42786e-16 0)
(3 3.6683e-16 0)
(3 3.95407e-16 0)
(3 6.46994e-16 0)
(3 4.45871e-16 0)
(3 -4.27411e-17 0)
(3 2.99722e-16 0)
(3 -5.75121e-16 0)
(3 -2.01401e-15 0)
(3 -2.28744e-15 0)
(3 -1.5127e-15 0)
(3 -1.31791e-15 0)
(3 -1.12126e-15 0)
(3 1.38268e-16 0)
(3 -3.00819e-17 0)
(3 5.65903e-17 0)
(3 2.17094e-16 0)
(3 3.68758e-16 0)
(3 1.11805e-16 0)
(3 -1.07008e-16 0)
(3 -1.3937e-16 0)
(3 6.51104e-16 0)
(3 1.75835e-15 0)
(3 1.07255e-15 0)
(3 1.52426e-15 0)
(3 1.67984e-15 0)
(3 2.33886e-15 0)
(3 2.22104e-15 0)
(3 4.64028e-16 0)
(3 8.8223e-17 0)
(3 -2.76992e-16 0)
(3 -4.41217e-16 0)
(3 -1.10418e-15 0)
(3 -9.56959e-16 0)
(3 -7.01292e-16 0)
(3 -3.15217e-16 0)
(3 3.60028e-16 0)
(3 1.30794e-15 0)
(3 1.01825e-15 0)
(3 -5.60333e-16 0)
(3 -2.59342e-15 0)
(3 -2.50152e-15 0)
(3 -2.44053e-16 0)
(3 5.51288e-16 0)
(3 1.87666e-16 0)
(3 -2.11711e-16 0)
(3 -5.68917e-16 0)
(3 -3.65565e-16 0)
(3 1.58929e-16 0)
(3 5.68663e-16 0)
(3 5.06165e-16 0)
(3 7.80201e-16 0)
(3 4.3411e-16 0)
(1.62733 0.099792 0)
(0.666815 0.110198 0)
(0.590739 0.112835 0)
(0.586955 0.0953146 0)
(0.568384 0.0897838 0)
(0.553133 0.0913272 0)
(0.543597 0.0961714 0)
(0.540218 0.100921 0)
(0.541906 0.106419 0)
(0.547753 0.114879 0)
(0.555365 0.12438 0)
(0.558912 0.132701 0)
(0.55802 0.13917 0)
(0.554785 0.144787 0)
(0.552541 0.150947 0)
(0.548982 0.156749 0)
(3 -3.15068e-17 0)
(3 -3.41495e-16 0)
(3 -5.48467e-17 0)
(3 3.17189e-16 0)
(3 2.42808e-16 0)
(3 -3.08874e-16 0)
(3 -6.77761e-16 0)
(3 -8.72257e-16 0)
(3 -4.47875e-16 0)
(3 1.24483e-16 0)
(3 4.27716e-16 0)
(3 2.92057e-16 0)
(3 4.57793e-16 0)
(3 3.01265e-16 0)
(3 3.01468e-16 0)
(3 2.16656e-16 0)
(3 -1.28309e-15 0)
(3 -1.74182e-15 0)
(3 -1.2389e-15 0)
(3 -1.10933e-15 0)
(3 -8.64218e-16 0)
(3 -2.03555e-16 0)
(3 6.02814e-16 0)
(3 5.13159e-17 0)
(3 -2.23186e-16 0)
(3 -4.40106e-16 0)
(3 1.25e-15 0)
(3 1.43124e-15 0)
(3 1.14032e-15 0)
(3 9.59266e-16 0)
(3 1.19264e-15 0)
(3 3.26631e-16 0)
(3 -9.89418e-16 0)
(3 -8.43748e-16 0)
(3 -8.25406e-16 0)
(3 -1.06336e-15 0)
(3 -1.46934e-15 0)
(3 -1.89129e-15 0)
(3 -1.49661e-15 0)
(3 -9.39198e-16 0)
(3 -1.34331e-16 0)
(3 -3.76583e-17 0)
(3 -9.4285e-16 0)
(3 -6.90968e-16 0)
(3 -6.70566e-16 0)
(3 -1.04176e-15 0)
(3 -1.02648e-15 0)
(3 -7.71978e-16 0)
(3 -8.639e-16 0)
(3 -7.71771e-16 0)
(3 -4.61867e-16 0)
(3 -4.52828e-16 0)
(3 -1.82354e-16 0)
(3 1.24376e-16 0)
(3 3.66059e-17 0)
(3 1.244e-16 0)
(3 -1.98357e-16 0)
(3 -7.57922e-16 0)
(3 -6.24174e-16 0)
(3 -6.18933e-16 0)
(3 -6.5341e-16 0)
(3 -2.39704e-16 0)
(3 2.97052e-16 0)
(3 1.01244e-15 0)
(3 2.34161e-15 0)
(3 2.2376e-15 0)
(3 1.06826e-15 0)
(3 2.91796e-16 0)
(3 3.41496e-16 0)
(3 3.91991e-17 0)
(3 -3.53382e-16 0)
(3 -1.38774e-16 0)
(3 1.29435e-15 0)
(3 1.09874e-15 0)
(3 8.2771e-16 0)
(3 6.18368e-16 0)
(3 7.85786e-16 0)
(3 7.64265e-16 0)
(3 1.04956e-15 0)
(3 3.03921e-16 0)
(1.73223 0.101794 0)
(0.675099 0.117699 0)
(0.586409 0.11357 0)
(0.580856 0.0939457 0)
(0.563776 0.0891861 0)
(0.553764 0.0925382 0)
(0.547554 0.0982664 0)
(0.547186 0.10311 0)
(0.551185 0.109867 0)
(0.558616 0.119547 0)
(0.565108 0.129352 0)
(0.566416 0.136868 0)
(0.564555 0.142502 0)
(0.56134 0.1475 0)
(0.558805 0.152798 0)
(0.554627 0.157244 0)
(3 -2.87145e-16 0)
(3 -2.14801e-16 0)
(3 1.4344e-16 0)
(3 6.23161e-16 0)
(3 6.7357e-16 0)
(3 5.75344e-16 0)
(3 3.17769e-16 0)
(3 3.44642e-16 0)
(3 2.81021e-16 0)
(3 2.37072e-16 0)
(3 -1.09493e-16 0)
(3 -9.58164e-16 0)
(3 -9.5859e-16 0)
(3 -7.64496e-16 0)
(3 -4.79994e-16 0)
(3 2.42125e-16 0)
(3 -2.64617e-16 0)
(3 -5.32821e-16 0)
(3 -7.44605e-16 0)
(3 -9.7008e-16 0)
(3 -8.51868e-16 0)
(3 4.76418e-16 0)
(3 7.46368e-16 0)
(3 3.25317e-16 0)
(3 -2.67991e-16 0)
(3 -6.99193e-16 0)
(3 2.89954e-16 0)
(3 8.52848e-16 0)
(3 8.67062e-16 0)
(3 1.18432e-15 0)
(3 1.3931e-15 0)
(3 2.18838e-16 0)
(3 -8.44836e-16 0)
(3 -1.16203e-15 0)
(3 -9.42749e-16 0)
(3 2.80047e-16 0)
(3 2.48857e-16 0)
(3 -6.762e-16 0)
(3 -1.43543e-15 0)
(3 -1.7579e-15 0)
(3 -1.91669e-15 0)
(3 -2.02822e-15 0)
(3 -2.07894e-15 0)
(3 -1.97141e-15 0)
(3 -1.9421e-15 0)
(3 -1.66958e-15 0)
(3 -1.79481e-15 0)
(3 -1.3551e-15 0)
(3 -1.54735e-15 0)
(3 -1.35298e-15 0)
(3 -1.75288e-16 0)
(3 -1.00265e-15 0)
(3 -1.41273e-15 0)
(3 -1.27212e-15 0)
(3 -8.22612e-16 0)
(3 7.62421e-16 0)
(3 1.20495e-15 0)
(3 2.39835e-16 0)
(3 -1.61161e-15 0)
(3 -2.37891e-15 0)
(3 1.86795e-16 0)
(3 6.50267e-16 0)
(3 1.26305e-15 0)
(3 1.6372e-15 0)
(3 1.96465e-15 0)
(3 6.25556e-16 0)
(3 1.43485e-16 0)
(3 4.70389e-16 0)
(3 4.92806e-16 0)
(3 1.48939e-16 0)
(3 -4.5507e-16 0)
(3 4.57342e-18 0)
(3 8.49105e-16 0)
(3 7.45105e-16 0)
(3 3.07249e-16 0)
(3 -2.9528e-16 0)
(3 -5.80483e-16 0)
(3 -9.39357e-16 0)
(3 -1.07277e-15 0)
(3 -1.31903e-15 0)
(1.84484 0.101039 0)
(0.683426 0.122356 0)
(0.580405 0.111148 0)
(0.573056 0.0919651 0)
(0.560887 0.0893769 0)
(0.555227 0.0937538 0)
(0.552419 0.0998351 0)
(0.554965 0.104901 0)
(0.561871 0.112931 0)
(0.569717 0.123487 0)
(0.573642 0.132771 0)
(0.57289 0.139081 0)
(0.570432 0.144533 0)
(0.567211 0.149654 0)
(0.563683 0.154048 0)
(0.558536 0.157317 0)
(3 -1.48647e-16 0)
(3 1.88465e-16 0)
(3 1.72954e-16 0)
(3 -7.95906e-17 0)
(3 -2.43852e-17 0)
(3 2.21883e-16 0)
(3 6.38766e-16 0)
(3 1.03766e-15 0)
(3 8.83744e-16 0)
(3 1.10035e-16 0)
(3 -9.72956e-16 0)
(3 -7.7083e-16 0)
(3 -5.4165e-16 0)
(3 3.4189e-17 0)
(3 7.56909e-16 0)
(3 1.17498e-15 0)
(3 1.30128e-15 0)
(3 4.57149e-16 0)
(3 5.44973e-17 0)
(3 5.06867e-16 0)
(3 1.13901e-15 0)
(3 7.35612e-16 0)
(3 -8.08292e-16 0)
(3 -8.88356e-16 0)
(3 -1.14543e-15 0)
(3 -7.10163e-16 0)
(3 -5.92704e-16 0)
(3 -7.87667e-16 0)
(3 -5.52275e-16 0)
(3 -2.16398e-16 0)
(3 2.16376e-16 0)
(3 3.57477e-16 0)
(3 2.50925e-16 0)
(3 1.32943e-16 0)
(3 1.29183e-15 0)
(3 2.32455e-15 0)
(3 1.7841e-15 0)
(3 1.06475e-15 0)
(3 -8.25907e-16 0)
(3 -2.21398e-15 0)
(3 -2.96097e-15 0)
(3 -2.82638e-15 0)
(3 -2.11862e-15 0)
(3 -1.28515e-15 0)
(3 -7.68982e-16 0)
(3 -7.19076e-16 0)
(3 -8.3474e-16 0)
(3 -9.61596e-16 0)
(3 -6.87295e-16 0)
(3 -6.12667e-16 0)
(3 -1.08247e-15 0)
(3 -1.17308e-15 0)
(3 -9.32104e-16 0)
(3 -1.12116e-15 0)
(3 9.59544e-17 0)
(3 5.37091e-16 0)
(3 9.71878e-16 0)
(3 8.99476e-16 0)
(3 5.23265e-16 0)
(3 6.24575e-16 0)
(3 1.50523e-15 0)
(3 1.24794e-15 0)
(3 1.0981e-15 0)
(3 6.81815e-16 0)
(3 7.71875e-16 0)
(3 1.09544e-15 0)
(3 -7.67551e-16 0)
(3 -9.84007e-16 0)
(3 -7.95849e-16 0)
(3 -7.57982e-16 0)
(3 -8.79766e-16 0)
(3 -7.76558e-16 0)
(3 -8.30417e-16 0)
(3 -7.3457e-16 0)
(3 -6.91684e-16 0)
(3 -9.98403e-16 0)
(3 -7.94424e-16 0)
(3 -7.72843e-16 0)
(3 -9.60457e-16 0)
(3 -1.17739e-15 0)
(1.96325 0.0972741 0)
(0.691767 0.123767 0)
(0.572992 0.105857 0)
(0.565885 0.0901803 0)
(0.559821 0.0902071 0)
(0.556929 0.0953114 0)
(0.557531 0.101575 0)
(0.563938 0.107332 0)
(0.573475 0.116619 0)
(0.579643 0.126802 0)
(0.580582 0.134325 0)
(0.578613 0.140109 0)
(0.575905 0.145559 0)
(0.572168 0.150184 0)
(0.567378 0.15393 0)
(0.561016 0.15658 0)
(3 3.2277e-16 0)
(3 2.24174e-16 0)
(3 -1.71875e-16 0)
(3 -5.44806e-16 0)
(3 -8.14708e-16 0)
(3 -8.46011e-16 0)
(3 -7.00529e-16 0)
(3 3.61127e-16 0)
(3 9.46568e-16 0)
(3 7.74885e-16 0)
(3 -2.36238e-16 0)
(3 -8.92174e-16 0)
(3 -3.78712e-16 0)
(3 2.49369e-16 0)
(3 8.00571e-16 0)
(3 8.42355e-16 0)
(3 7.1166e-16 0)
(3 7.39334e-16 0)
(3 1.01511e-15 0)
(3 1.66563e-15 0)
(3 1.78787e-15 0)
(3 -1.1249e-16 0)
(3 -1.15052e-15 0)
(3 -8.44285e-16 0)
(3 -9.46957e-16 0)
(3 -3.57856e-16 0)
(3 -1.51216e-16 0)
(3 -6.93679e-16 0)
(3 -9.34761e-16 0)
(3 -5.02486e-16 0)
(3 -9.18861e-17 0)
(3 8.75327e-16 0)
(3 9.80155e-16 0)
(3 1.07841e-15 0)
(3 1.7168e-15 0)
(3 2.24185e-15 0)
(3 1.97484e-16 0)
(3 -7.04328e-17 0)
(3 -8.43389e-16 0)
(3 -1.46743e-15 0)
(3 -2.18787e-15 0)
(3 -2.17623e-15 0)
(3 -1.67375e-15 0)
(3 -1.44758e-15 0)
(3 -1.42692e-15 0)
(3 -9.14398e-16 0)
(3 -1.35396e-17 0)
(3 -7.26988e-16 0)
(3 -1.39677e-15 0)
(3 -1.60001e-15 0)
(3 -1.30606e-15 0)
(3 -1.42562e-15 0)
(3 -1.47776e-15 0)
(3 -1.04987e-15 0)
(3 -3.44248e-16 0)
(3 1.79037e-16 0)
(3 7.0132e-16 0)
(3 2.01868e-15 0)
(3 3.61411e-15 0)
(3 3.4709e-15 0)
(3 3.10267e-15 0)
(3 2.85529e-15 0)
(3 1.78514e-15 0)
(3 1.4914e-15 0)
(3 5.69928e-16 0)
(3 3.59854e-17 0)
(3 -3.47202e-16 0)
(3 -5.99828e-16 0)
(3 -5.21385e-16 0)
(3 -8.75499e-16 0)
(3 -1.29019e-15 0)
(3 -1.37141e-15 0)
(3 -1.18947e-15 0)
(3 -6.239e-16 0)
(3 -6.51109e-16 0)
(3 -4.72284e-16 0)
(3 -9.72726e-17 0)
(3 5.98248e-16 0)
(3 4.92409e-16 0)
(3 -2.73934e-16 0)
(2.08586 0.0906079 0)
(0.69976 0.1218 0)
(0.56493 0.0990183 0)
(0.561538 0.0889938 0)
(0.559061 0.0909343 0)
(0.558738 0.0975764 0)
(0.56372 0.104411 0)
(0.574576 0.11154 0)
(0.584241 0.120988 0)
(0.587057 0.128939 0)
(0.586055 0.134949 0)
(0.583706 0.140006 0)
(0.580711 0.144803 0)
(0.576143 0.148995 0)
(0.570004 0.152333 0)
(0.562133 0.154358 0)
(3 -3.71965e-17 0)
(3 -4.0983e-16 0)
(3 -5.90292e-16 0)
(3 -3.85026e-16 0)
(3 -2.26338e-16 0)
(3 -3.86087e-16 0)