/*--------------------------------*- C++ -*----------------------------------*\
  =========                 |
  \\      /  F ield         | OpenFOAM: The Open Source CFD Toolbox
   \\    /   O peration     | Website:  https://openfoam.org
    \\  /    A nd           | Version:  7
     \\/     M anipulation  |
\*---------------------------------------------------------------------------*/
FoamFile
{
    version     2.0;
    format      ascii;
    class       volVectorField;
    location    "2.1";
    object      U;
}
// * * * * * * * * * * * * * * * * * * * * * * * * * * * * * * * * * * * * * //

dimensions      [0 1 -1 0 0 0 0];

internalField   nonuniform List<vector> 
73728
(
(3 -7.55667e-17 0)
(3 -1.16932e-16 0)
(3 -5.98486e-17 0)
(3 3.33969e-17 0)
(3 2.92744e-16 0)
(3 4.10193e-16 0)
(3 1.32863e-16 0)
(3 -1.46225e-16 0)
(3 -4.15264e-16 0)
(3 -7.16367e-16 0)
(3 3.61427e-16 0)
(3 1.05222e-15 0)
(3 6.80541e-16 0)
(3 3.7325e-16 0)
(3 2.75795e-16 0)
(3 2.41168e-16 0)
(3 4.32515e-16 0)
(3 8.14379e-16 0)
(3 7.53819e-16 0)
(3 5.22135e-16 0)
(3 2.52794e-16 0)
(3 8.28502e-16 0)
(3 1.00768e-15 0)
(3 9.67176e-16 0)
(3 4.98551e-16 0)
(3 1.37393e-16 0)
(3 5.85619e-17 0)
(3 -4.10555e-16 0)
(3 -6.9782e-16 0)
(3 -7.78007e-16 0)
(3 -3.33518e-16 0)
(3 -1.4467e-16 0)
(3 -2.64036e-16 0)
(3 -1.01492e-15 0)
(3 -1.01711e-15 0)
(3 -2.99568e-16 0)
(3 1.15451e-16 0)
(3 5.83345e-16 0)
(3 9.6718e-16 0)
(3 8.26379e-16 0)
(3 4.34087e-16 0)
(3 2.3519e-16 0)
(3 5.81846e-17 0)
(3 5.45708e-16 0)
(3 9.41109e-16 0)
(3 8.0664e-16 0)
(3 3.42976e-16 0)
(3 7.00466e-17 0)
(3 1.1744e-16 0)
(3 4.46428e-16 0)
(3 7.88234e-16 0)
(3 -5.91849e-17 0)
(3 -1.17389e-15 0)
(3 -1.2533e-15 0)
(3 -1.30093e-15 0)
(3 -1.42558e-15 0)
(3 -1.2744e-15 0)
(3 -8.60714e-16 0)
(3 -5.52287e-16 0)
(3 -9.10932e-16 0)
(3 -8.25452e-16 0)
(3 -6.94944e-16 0)
(3 -6.3757e-16 0)
(3 -8.32764e-16 0)
(3 -9.47615e-16 0)
(3 -5.41134e-16 0)
(3 -3.82707e-16 0)
(3 -4.74287e-16 0)
(3 -7.76169e-16 0)
(3 -1.23526e-15 0)
(3 -1.2094e-15 0)
(3 -2.97027e-16 0)
(3 2.01441e-16 0)
(3 7.24159e-16 0)
(3 7.51921e-17 0)
(3 -5.85329e-17 0)
(3 1.62184e-16 0)
(3 -1.26037e-16 0)
(3 -5.65912e-16 0)
(3 -4.21741e-16 0)
(3 -5.2884e-16 0)
(3 -1.45125e-15 0)
(3 -1.7076e-15 0)
(3 -6.32124e-16 0)
(3 2.35804e-16 0)
(3 8.51394e-16 0)
(3 1.0003e-15 0)
(3 1.33144e-15 0)
(3 7.74439e-16 0)
(3 8.30271e-16 0)
(3 2.03765e-15 0)
(3 2.38296e-15 0)
(3 2.26256e-15 0)
(3 2.17864e-15 0)
(3 1.25476e-15 0)
(3 1.06933e-15 0)
(3 -1.41771e-16 0)
(3 -2.33707e-17 0)
(3 2.10157e-16 0)
(3 4.4872e-16 0)
(3 4.00163e-16 0)
(3 7.99283e-16 0)
(3 7.0658e-16 0)
(3 5.40701e-16 0)
(3 6.09547e-16 0)
(3 2.99741e-16 0)
(3 1.05223e-15 0)
(3 1.60473e-15 0)
(3 1.59452e-15 0)
(3 7.16499e-16 0)
(3 5.09307e-16 0)
(3 2.13582e-16 0)
(3 1.38535e-16 0)
(3 3.18971e-16 0)
(3 1.13571e-16 0)
(3 2.33621e-16 0)
(3 -3.23147e-16 0)
(3 3.04818e-16 0)
(3 5.25876e-16 0)
(3 3.48765e-16 0)
(3 -3.4629e-16 0)
(3 -7.06281e-16 0)
(3 -7.97672e-16 0)
(3 -1.4493e-15 0)
(3 -1.69888e-15 0)
(3 -1.34855e-15 0)
(3 -8.23308e-16 0)
(3 -5.01859e-16 0)
(3 2.65082e-17 0)
(3 -4.75813e-16 0)
(3 -1.80593e-16 0)
(3 4.83348e-16 0)
(3 1.38743e-15 0)
(3 2.06269e-15 0)
(3 2.85534e-15 0)
(3 2.23901e-15 0)
(3 8.03546e-16 0)
(3 1.04558e-15 0)
(3 2.05435e-16 0)
(3 2.00609e-16 0)
(3 6.24112e-16 0)
(3 6.94555e-16 0)
(3 3.57937e-16 0)
(3 -3.73445e-16 0)
(3 -8.14847e-16 0)
(3 -4.17572e-16 0)
(3 -5.27957e-16 0)
(3 -9.11946e-16 0)
(3 -1.73093e-15 0)
(3 -3.20483e-15 0)
(3 -4.02774e-15 0)
(3 -4.44305e-15 0)
(3 -3.70897e-15 0)
(3 -2.96408e-15 0)
(3 -1.69924e-15 0)
(3 -1.76513e-15 0)
(3 -1.33403e-15 0)
(3 -9.77874e-16 0)
(3 -6.1857e-16 0)
(3 -1.06419e-15 0)
(3 -1.46146e-15 0)
(3 -8.68194e-16 0)
(3 -6.21861e-16 0)
(3 -6.64343e-16 0)
(3 -1.31843e-15 0)
(3 -2.27136e-15 0)
(3 -2.10184e-15 0)
(3 9.55415e-17 0)
(3 7.67392e-16 0)
(3 1.60997e-15 0)
(3 9.67848e-16 0)
(3 1.60858e-16 0)
(3 5.49132e-17 0)
(3 -1.66258e-15 0)
(3 -2.35735e-15 0)
(3 -2.48174e-15 0)
(3 -1.4764e-15 0)
(3 -1.07561e-15 0)
(3 -1.24157e-15 0)
(3 -1.17177e-16 0)
(3 5.62432e-16 0)
(3 2.34889e-15 0)
(3 2.70485e-15 0)
(3 3.20926e-15 0)
(3 3.26847e-15 0)
(3 3.21037e-15 0)
(3 3.25391e-15 0)
(3 3.71512e-15 0)
(3 3.27789e-15 0)
(3 2.97537e-15 0)
(3 2.00275e-15 0)
(3 1.68928e-15 0)
(3 -1.18611e-16 0)
(3 7.52341e-17 0)
(3 4.10038e-16 0)
(3 5.33391e-16 0)
(3 1.84025e-16 0)
(3 -2.02378e-17 0)
(3 -9.55819e-17 0)
(3 9.52527e-17 0)
(3 5.35605e-16 0)
(3 8.69979e-16 0)
(3 9.07686e-16 0)
(3 1.42752e-15 0)
(3 1.82124e-15 0)
(3 1.11964e-15 0)
(3 1.12858e-15 0)
(3 9.28313e-16 0)
(3 6.70892e-16 0)
(3 2.36091e-16 0)
(3 -7.75151e-16 0)
(3 -1.06717e-15 0)
(3 -1.34554e-15 0)
(3 -1.27777e-15 0)
(3 -1.27269e-15 0)
(3 -1.68982e-15 0)
(3 -1.51399e-15 0)
(3 -7.31617e-16 0)
(3 -9.81845e-16 0)
(3 -1.29543e-15 0)
(3 -2.2185e-15 0)
(3 -1.08804e-15 0)
(3 -2.61546e-16 0)
(3 1.38303e-16 0)
(3 7.76815e-16 0)
(3 1.90938e-15 0)
(3 2.37971e-15 0)
(3 2.33772e-15 0)
(3 2.46143e-15 0)
(3 2.76074e-15 0)
(3 2.11617e-15 0)
(3 1.83847e-15 0)
(3 1.99582e-15 0)
(3 1.99262e-15 0)
(3 1.44869e-15 0)
(3 -3.58045e-16 0)
(3 -1.00458e-15 0)
(3 -8.80808e-16 0)
(3 -6.84494e-16 0)
(3 -7.75932e-16 0)
(3 -9.27032e-16 0)
(3 -1.54719e-15 0)
(3 -1.48377e-15 0)
(3 -1.1928e-15 0)
(3 -5.24576e-16 0)
(3 -1.46359e-15 0)
(3 -3.77889e-15 0)
(3 -4.38527e-15 0)
(3 -4.80846e-15 0)
(3 -3.28895e-15 0)
(3 -2.65927e-15 0)
(3 -2.04487e-15 0)
(3 -1.59085e-15 0)
(3 -1.40434e-15 0)
(3 -1.70138e-15 0)
(3 -1.82528e-15 0)
(3 -1.6335e-15 0)
(3 -1.70398e-15 0)
(3 -1.62767e-15 0)
(3 -1.87806e-15 0)
(3 -2.1689e-15 0)
(3 -1.88269e-15 0)
(3 -1.24159e-15 0)
(3 -9.98743e-16 0)
(3 -8.08324e-16 0)
(3 1.11416e-15 0)
(3 1.85648e-15 0)
(3 1.01702e-15 0)
(3 -1.0294e-15 0)
(3 -2.45395e-15 0)
(3 -3.07691e-15 0)
(3 -2.90791e-15 0)
(3 -1.48634e-15 0)
(3 -7.96756e-16 0)
(3 -3.49599e-16 0)
(3 6.53979e-16 0)
(3 1.78969e-15 0)
(3 3.98769e-15 0)
(3 4.56353e-15 0)
(3 4.71426e-15 0)
(3 5.27409e-15 0)
(3 5.79522e-15 0)
(3 5.46095e-15 0)
(3 5.27995e-15 0)
(3 4.80638e-15 0)
(3 3.622e-15 0)
(3 3.34841e-15 0)
(3 3.24108e-15 0)
(3 4.68388e-17 0)
(3 -1.39076e-16 0)
(3 9.2214e-17 0)
(3 -2.71363e-16 0)
(3 -1.96941e-16 0)
(3 -3.34461e-16 0)
(3 -2.00416e-16 0)
(3 4.693e-16 0)
(3 9.22043e-16 0)
(3 1.22063e-15 0)
(3 1.0941e-15 0)
(3 5.72759e-16 0)
(3 4.92178e-16 0)
(3 7.34675e-16 0)
(3 8.66043e-16 0)
(3 1.17606e-15 0)
(3 1.60779e-15 0)
(3 1.65653e-15 0)
(3 4.47844e-16 0)
(3 -1.02278e-15 0)
(3 -1.22668e-15 0)
(3 -1.29687e-15 0)
(3 -1.48754e-15 0)
(3 -1.34593e-15 0)
(3 -1.53041e-15 0)
(3 -1.33212e-16 0)
(3 5.85539e-16 0)
(3 -1.35623e-16 0)
(3 -2.31707e-16 0)
(3 3.74911e-16 0)
(3 7.91039e-16 0)
(3 1.33208e-15 0)
(3 1.55092e-15 0)
(3 2.03552e-15 0)
(3 2.04873e-15 0)
(3 1.57319e-15 0)
(3 1.24603e-15 0)
(3 7.54029e-16 0)
(3 3.66856e-16 0)
(3 5.92976e-16 0)
(3 1.13803e-15 0)
(3 1.30022e-15 0)
(3 9.36072e-16 0)
(3 -5.68911e-16 0)
(3 -1.4157e-15 0)
(3 -2.23838e-15 0)
(3 -2.04471e-15 0)
(3 -1.30636e-15 0)
(3 -6.45366e-16 0)
(3 -3.46117e-16 0)
(3 -8.13096e-17 0)
(3 -1.85398e-16 0)
(3 -1.10636e-16 0)
(3 2.7699e-16 0)
(3 3.61567e-16 0)
(3 -1.88621e-15 0)
(3 -3.32798e-15 0)
(3 -3.10608e-15 0)
(3 -1.1785e-15 0)
(3 -5.84397e-16 0)
(3 -5.3917e-16 0)
(3 -8.50195e-16 0)
(3 -1.41302e-15 0)
(3 -1.37286e-15 0)
(3 -1.26457e-15 0)
(3 -1.162e-15 0)
(3 -1.40094e-15 0)
(3 -1.3869e-15 0)
(3 -8.64175e-16 0)
(3 -3.00131e-16 0)
(3 -2.93617e-16 0)
(3 -1.73785e-15 0)
(3 -2.01781e-15 0)
(3 -2.00381e-15 0)
(3 -2.43408e-15 0)
(3 -2.19104e-15 0)
(3 -2.1642e-15 0)
(3 -2.38996e-15 0)
(3 -2.34277e-15 0)
(3 -1.896e-15 0)
(3 -8.27004e-16 0)
(3 3.02436e-16 0)
(3 7.46404e-16 0)
(3 1.63405e-15 0)
(3 2.65716e-15 0)
(3 3.57929e-15 0)
(3 4.07362e-15 0)
(3 4.30809e-15 0)
(3 4.76456e-15 0)
(3 4.24842e-15 0)
(3 4.52415e-15 0)
(3 4.57617e-15 0)
(3 4.57128e-15 0)
(3 4.51441e-15 0)
(3 4.92432e-15 0)
(3 5.12785e-15 0)
(3 1.91282e-16 0)
(3 -2.25615e-16 0)
(3 -5.4825e-16 0)
(3 -6.25111e-16 0)
(3 -2.56038e-16 0)
(3 3.03884e-16 0)
(3 7.06277e-16 0)
(3 1.61995e-15 0)
(3 1.31287e-15 0)
(3 1.10957e-15 0)
(3 5.8127e-16 0)
(3 -6.02447e-16 0)
(3 -6.75733e-16 0)
(3 5.97094e-17 0)
(3 5.54361e-16 0)
(3 1.02321e-15 0)
(3 1.42914e-15 0)
(3 9.45848e-16 0)
(3 4.96197e-16 0)
(3 1.11941e-16 0)
(3 -5.94799e-16 0)
(3 -9.51183e-16 0)
(3 -1.1215e-15 0)
(3 -5.90876e-16 0)
(3 -2.74132e-16 0)
(3 8.90485e-16 0)
(3 2.19451e-15 0)
(3 2.40633e-15 0)
(3 1.92427e-15 0)
(3 1.59873e-15 0)
(3 1.20524e-15 0)
(3 1.73664e-15 0)
(3 1.96736e-15 0)
(3 1.96721e-15 0)
(3 1.63271e-15 0)
(3 1.26223e-15 0)
(3 8.67901e-16 0)
(3 6.70293e-16 0)
(3 7.35393e-16 0)
(3 1.45056e-15 0)
(3 1.51417e-15 0)
(3 1.59861e-15 0)
(3 1.05203e-15 0)
(3 -6.43832e-16 0)
(3 -9.25904e-16 0)
(3 -1.51032e-15 0)
(3 -1.37203e-15 0)
(3 -1.08266e-15 0)
(3 -8.36515e-16 0)
(3 -4.6344e-16 0)
(3 2.91614e-16 0)
(3 2.12601e-16 0)
(3 1.41002e-16 0)
(3 3.40394e-17 0)
(3 -3.09661e-16 0)
(3 -9.31569e-16 0)
(3 -1.44558e-15 0)
(3 -2.4071e-15 0)
(3 -6.82196e-16 0)
(3 4.04042e-16 0)
(3 -2.79725e-17 0)
(3 -3.57846e-16 0)
(3 -5.17176e-16 0)
(3 -7.38854e-16 0)
(3 -7.00467e-16 0)
(3 -8.81345e-16 0)
(3 -1.06089e-15 0)
(3 -6.47848e-16 0)
(3 -5.32087e-16 0)
(3 -1.07483e-15 0)
(3 -1.40137e-15 0)
(3 -2.19956e-15 0)
(3 -2.67531e-15 0)
(3 -3.47385e-15 0)
(3 -3.83222e-15 0)
(3 -3.80493e-15 0)
(3 -2.39838e-15 0)
(3 -1.94834e-15 0)
(3 -1.91953e-15 0)
(3 -1.57638e-15 0)
(3 -1.4944e-15 0)
(3 3.42549e-16 0)
(3 1.18026e-15 0)
(3 2.45331e-15 0)
(3 2.26354e-15 0)
(3 2.76182e-15 0)
(3 3.38571e-15 0)
(3 3.73401e-15 0)
(3 3.52507e-15 0)
(3 3.43722e-15 0)
(3 3.87623e-15 0)
(3 3.84538e-15 0)
(3 4.23967e-15 0)
(3 4.58545e-15 0)
(3 4.35609e-15 0)
(3 4.89786e-15 0)
(3 1.34219e-17 0)
(3 -7.73234e-17 0)
(3 -4.8853e-16 0)
(3 -7.99155e-16 0)
(3 -7.6486e-16 0)
(3 1.32893e-16 0)
(3 1.13536e-15 0)
(3 1.26698e-15 0)
(3 8.47166e-16 0)
(3 2.52679e-16 0)
(3 1.14509e-17 0)
(3 6.3142e-16 0)
(3 6.88382e-16 0)
(3 9.32105e-16 0)
(3 1.28184e-15 0)
(3 1.2228e-15 0)
(3 1.11629e-15 0)
(3 1.1861e-15 0)
(3 1.19199e-15 0)
(3 1.35822e-15 0)
(3 1.13362e-15 0)
(3 -4.58913e-16 0)
(3 -6.45857e-16 0)
(3 -5.95235e-16 0)
(3 -8.76469e-17 0)
(3 7.47561e-16 0)
(3 1.57472e-15 0)
(3 2.1379e-15 0)
(3 2.20634e-15 0)
(3 1.76293e-15 0)
(3 1.17401e-15 0)
(3 1.66464e-15 0)
(3 2.37941e-15 0)
(3 2.35782e-15 0)
(3 2.37634e-15 0)
(3 2.37217e-15 0)
(3 1.51341e-15 0)
(3 1.04398e-15 0)
(3 1.14906e-15 0)
(3 1.09738e-15 0)
(3 7.14824e-16 0)
(3 3.82936e-16 0)
(3 3.99306e-16 0)
(3 -3.45504e-16 0)
(3 -1.15982e-15 0)
(3 -1.18338e-15 0)
(3 -1.38594e-15 0)
(3 -1.21533e-15 0)
(3 -1.0243e-15 0)
(3 -5.45634e-16 0)
(3 -2.61766e-16 0)
(3 -2.79003e-16 0)
(3 -4.76956e-16 0)
(3 -1.07146e-15 0)
(3 -1.8896e-15 0)
(3 -2.44325e-15 0)
(3 -2.0884e-15 0)
(3 -8.85455e-16 0)
(3 9.90794e-16 0)
(3 1.78621e-15 0)
(3 1.48288e-15 0)
(3 5.86013e-16 0)
(3 -2.75032e-16 0)
(3 -7.5014e-16 0)
(3 -6.72619e-16 0)
(3 -3.64009e-16 0)
(3 3.6227e-16 0)
(3 -3.39245e-16 0)
(3 -1.03214e-15 0)
(3 -2.14223e-15 0)
(3 -2.68041e-15 0)
(3 -2.15274e-15 0)
(3 -1.83201e-15 0)
(3 -1.45975e-15 0)
(3 -1.1426e-15 0)
(3 -9.52182e-16 0)
(3 -1.13802e-15 0)
(3 -3.37915e-16 0)
(3 -2.63284e-16 0)
(3 -7.80041e-16 0)
(3 -1.0291e-15 0)
(3 -7.45394e-17 0)
(3 8.72311e-16 0)
(3 2.75173e-15 0)
(3 3.06334e-15 0)
(3 2.6105e-15 0)
(3 2.80206e-15 0)
(3 3.52642e-15 0)
(3 3.98407e-15 0)
(3 3.89609e-15 0)
(3 3.1238e-15 0)
(3 2.46531e-15 0)
(3 2.76846e-15 0)
(3 3.53287e-15 0)
(3 2.81176e-15 0)
(3 5.17682e-15 0)
(3 -3.60634e-17 0)
(3 -2.31381e-17 0)
(3 1.30743e-18 0)
(3 -2.13358e-16 0)
(3 -1.27831e-18 0)
(3 1.66645e-16 0)
(3 2.62689e-16 0)
(3 3.28825e-16 0)
(3 9.48559e-16 0)
(3 7.99854e-16 0)
(3 1.4123e-16 0)
(3 3.29255e-16 0)
(3 2.48544e-16 0)
(3 9.65051e-17 0)
(3 1.11932e-16 0)
(3 7.46121e-16 0)
(3 1.11288e-15 0)
(3 1.69254e-15 0)
(3 1.51451e-15 0)
(3 9.66892e-16 0)
(3 1.51021e-16 0)
(3 -4.66207e-16 0)
(3 -8.32112e-16 0)
(3 -1.10622e-15 0)
(3 -8.27997e-16 0)
(3 2.25073e-17 0)
(3 1.29074e-16 0)
(3 3.27286e-16 0)
(3 6.91635e-16 0)
(3 1.34522e-15 0)
(3 1.50651e-15 0)
(3 1.81943e-15 0)
(3 2.00289e-15 0)
(3 2.3375e-15 0)
(3 2.93307e-15 0)
(3 2.86052e-15 0)
(3 1.79092e-15 0)
(3 1.45571e-15 0)
(3 9.71735e-16 0)
(3 3.06757e-16 0)
(3 -5.91928e-16 0)
(3 -9.33084e-16 0)
(3 -9.15078e-16 0)
(3 -9.24277e-16 0)
(3 -1.98253e-15 0)
(3 -2.27321e-15 0)
(3 -1.94267e-15 0)
(3 -1.20137e-15 0)
(3 -4.57344e-16 0)
(3 8.39005e-18 0)
(3 2.88827e-19 0)
(3 1.21519e-16 0)
(3 -2.57085e-16 0)
(3 -6.5019e-16 0)
(3 -1.73828e-15 0)
(3 -3.06965e-15 0)
(3 -3.34422e-15 0)
(3 9.32512e-17 0)
(3 1.62818e-15 0)
(3 1.69603e-15 0)
(3 1.32035e-15 0)
(3 9.21377e-16 0)
(3 9.17769e-17 0)
(3 -9.71949e-17 0)
(3 -5.06159e-16 0)
(3 -2.05812e-16 0)
(3 -1.06345e-16 0)
(3 -6.32027e-16 0)
(3 -1.34175e-15 0)
(3 -1.37729e-15 0)
(3 -1.06555e-15 0)
(3 -1.15657e-15 0)
(3 -9.58513e-16 0)
(3 -6.45806e-16 0)
(3 -8.41694e-16 0)
(3 -1.1191e-15 0)
(3 -1.0216e-15 0)
(3 -7.03526e-16 0)
(3 -6.72466e-16 0)
(3 -1.65344e-15 0)
(3 -1.855e-15 0)
(3 2.02037e-16 0)
(3 2.12104e-15 0)
(3 3.44128e-15 0)
(3 4.67794e-15 0)
(3 4.57289e-15 0)
(3 3.48985e-15 0)
(3 3.42791e-15 0)
(3 3.37363e-15 0)
(3 3.09714e-15 0)
(3 1.37577e-15 0)
(3 1.29939e-15 0)
(3 2.82105e-15 0)
(3 3.71391e-15 0)
(3 3.80905e-15 0)
(3 4.62407e-15 0)
(3 -5.0809e-17 0)
(3 1.54918e-16 0)
(3 1.51437e-16 0)
(3 2.32613e-16 0)
(3 3.85991e-16 0)
(3 1.22795e-16 0)
(3 -5.27834e-16 0)
(3 -3.06384e-16 0)
(3 -2.25571e-16 0)
(3 -3.57621e-17 0)
(3 -1.06896e-16 0)
(3 -9.13514e-17 0)
(3 1.72443e-16 0)
(3 -1.5056e-17 0)
(3 4.57932e-16 0)
(3 5.50944e-16 0)
(3 6.83209e-16 0)
(3 1.25785e-16 0)
(3 -4.50282e-16 0)
(3 -1.18656e-15 0)
(3 -1.71328e-15 0)
(3 -1.64214e-15 0)
(3 -9.62379e-16 0)
(3 -5.94868e-16 0)
(3 -6.746e-16 0)
(3 -4.69026e-16 0)
(3 -4.23808e-16 0)
(3 -4.00287e-16 0)
(3 -9.56673e-17 0)
(3 5.6332e-16 0)
(3 1.28761e-15 0)
(3 1.61651e-15 0)
(3 1.6105e-15 0)
(3 2.13987e-15 0)
(3 1.55549e-15 0)
(3 1.04484e-15 0)
(3 8.53667e-16 0)
(3 2.74895e-16 0)
(3 -4.72629e-16 0)
(3 -8.60749e-16 0)
(3 -9.21787e-16 0)
(3 -1.13395e-15 0)
(3 -1.75887e-15 0)
(3 -1.7142e-15 0)
(3 -2.21194e-15 0)
(3 -2.76957e-15 0)
(3 -1.5157e-15 0)
(3 -7.28212e-16 0)
(3 -2.01157e-16 0)
(3 -2.7871e-16 0)
(3 -5.01564e-16 0)
(3 -7.26891e-16 0)
(3 -1.19204e-15 0)
(3 -1.09482e-15 0)
(3 -1.01559e-15 0)
(3 -1.02112e-15 0)
(3 -1.13543e-15 0)
(3 -6.55526e-16 0)
(3 -4.93311e-16 0)
(3 -1.38875e-15 0)
(3 -1.63503e-15 0)
(3 1.54798e-16 0)
(3 3.84242e-16 0)
(3 3.6296e-16 0)
(3 1.64574e-16 0)
(3 -4.84585e-16 0)
(3 -9.7753e-16 0)
(3 -6.66278e-16 0)
(3 1.7822e-16 0)
(3 4.83319e-16 0)
(3 1.7994e-17 0)
(3 -4.56539e-16 0)
(3 -2.5387e-16 0)
(3 -3.04152e-16 0)
(3 2.1121e-16 0)
(3 -6.8788e-16 0)
(3 -1.66369e-15 0)
(3 -2.19418e-15 0)
(3 -1.85397e-15 0)
(3 -9.21712e-16 0)
(3 -1.2562e-15 0)
(3 -4.83193e-16 0)
(3 4.11425e-16 0)
(3 3.49002e-15 0)
(3 5.15237e-15 0)
(3 6.00769e-15 0)
(3 4.8188e-15 0)
(3 2.65015e-15 0)
(3 1.46291e-15 0)
(3 1.17951e-15 0)
(3 5.51756e-16 0)
(3 4.07218e-16 0)
(3 2.5241e-15 0)
(3 2.75416e-15 0)
(3 3.68767e-15 0)
(3 4.67458e-15 0)
(3 -2.36716e-17 0)
(3 3.01669e-16 0)
(3 2.74112e-16 0)
(3 2.38755e-16 0)
(3 -2.06786e-16 0)
(3 -6.62336e-16 0)
(3 -9.68736e-16 0)
(3 -1.25011e-15 0)
(3 -9.41414e-16 0)
(3 -1.98092e-16 0)
(3 4.7683e-16 0)
(3 7.14313e-16 0)
(3 1.39768e-15 0)
(3 1.6211e-15 0)
(3 1.04485e-15 0)
(3 -1.78024e-17 0)
(3 -2.84606e-16 0)
(3 -2.17193e-16 0)
(3 -1.43843e-16 0)
(3 -3.85559e-16 0)
(3 -1.13243e-15 0)
(3 -1.30482e-15 0)
(3 -1.13912e-15 0)
(3 -7.24394e-16 0)
(3 -8.78404e-16 0)
(3 -1.17483e-15 0)
(3 -9.52896e-16 0)
(3 -4.05882e-16 0)
(3 9.1357e-17 0)
(3 4.4661e-16 0)
(3 5.9474e-16 0)
(3 6.64668e-16 0)
(3 7.21225e-16 0)
(3 8.06386e-17 0)
(3 -1.19311e-15 0)
(3 -1.18923e-15 0)
(3 -7.85416e-16 0)
(3 -9.1739e-16 0)
(3 -9.8159e-16 0)
(3 -1.17022e-15 0)
(3 -8.76162e-16 0)
(3 -5.52813e-16 0)
(3 -7.81406e-16 0)
(3 -1.15465e-15 0)
(3 -1.40576e-15 0)
(3 -1.72793e-15 0)
(3 -2.21471e-15 0)
(3 -1.54264e-15 0)
(3 -1.24305e-15 0)
(3 -6.09318e-16 0)
(3 -4.108e-16 0)
(3 -6.71321e-16 0)
(3 -1.38885e-15 0)
(3 -1.62137e-15 0)
(3 -4.89492e-16 0)
(3 1.5945e-15 0)
(3 1.93458e-15 0)
(3 -3.21897e-16 0)
(3 -1.97929e-15 0)
(3 -2.58644e-15 0)
(3 -2.05257e-15 0)
(3 -1.27808e-16 0)
(3 1.07071e-15 0)
(3 9.89638e-16 0)
(3 1.26643e-15 0)
(3 8.62269e-16 0)
(3 3.94694e-16 0)
(3 4.47197e-16 0)
(3 8.72846e-16 0)
(3 1.01411e-15 0)
(3 6.16675e-16 0)
(3 -1.84336e-16 0)
(3 -5.66304e-16 0)
(3 -5.69084e-16 0)
(3 -9.30301e-16 0)
(3 -1.96014e-15 0)
(3 -2.37645e-15 0)
(3 -2.27023e-15 0)
(3 -1.66583e-15 0)
(3 -1.0504e-15 0)
(3 -4.0191e-16 0)
(3 2.91e-16 0)
(3 1.38353e-15 0)
(3 1.77405e-15 0)
(3 1.80432e-15 0)
(3 2.55887e-15 0)
(3 4.01674e-15 0)
(3 4.31272e-15 0)
(3 4.19643e-15 0)
(3 3.73288e-15 0)
(3 3.46448e-15 0)
(3 2.4115e-15 0)
(3 1.42619e-15 0)
(3 1.12898e-15 0)
(3 1.19958e-15 0)
(3 2.17509e-15 0)
(3 3.71334e-16 0)
(3 5.42275e-16 0)
(3 1.17483e-16 0)
(3 4.7782e-17 0)
(3 -4.16705e-16 0)
(3 -6.50622e-16 0)
(3 -1.31602e-15 0)
(3 -1.48043e-15 0)
(3 -1.12236e-15 0)
(3 -1.22093e-15 0)
(3 -3.17848e-16 0)
(3 2.43327e-16 0)
(3 4.29338e-16 0)
(3 5.68455e-16 0)
(3 3.71611e-16 0)
(3 -1.31972e-16 0)
(3 -2.16338e-16 0)
(3 1.80799e-16 0)
(3 8.4019e-16 0)
(3 8.34907e-16 0)
(3 5.81536e-16 0)
(3 1.08369e-17 0)
(3 -6.13827e-16 0)
(3 -5.81441e-16 0)
(3 -5.36945e-16 0)
(3 -8.83037e-16 0)
(3 -1.01074e-15 0)
(3 -7.15052e-16 0)
(3 -3.89361e-16 0)
(3 -5.71401e-17 0)
(3 1.06316e-16 0)
(3 -9.54354e-17 0)
(3 -4.62636e-16 0)
(3 -8.70704e-16 0)
(3 -1.09379e-15 0)
(3 -1.7241e-15 0)
(3 -1.7722e-15 0)
(3 -9.24531e-16 0)
(3 5.35592e-16 0)
(3 6.4435e-16 0)
(3 5.7371e-16 0)
(3 6.92006e-16 0)
(3 6.84136e-16 0)
(3 1.62054e-16 0)
(3 -8.30123e-16 0)
(3 -1.46302e-15 0)
(3 -1.69349e-15 0)
(3 -1.4644e-15 0)
(3 -1.08575e-15 0)
(3 -1.14086e-15 0)
(3 -1.04992e-15 0)
(3 -1.12555e-15 0)
(3 -7.40925e-16 0)
(3 -2.63513e-16 0)
(3 8.74264e-16 0)
(3 1.221e-15 0)
(3 1.10825e-15 0)
(3 -9.15016e-16 0)
(3 -1.71354e-15 0)
(3 -2.16884e-15 0)
(3 -2.14363e-15 0)
(3 -1.26219e-15 0)
(3 -5.53937e-16 0)
(3 1.51931e-16 0)
(3 5.20047e-16 0)
(3 6.27093e-16 0)
(3 6.783e-16 0)
(3 8.75713e-16 0)
(3 8.12925e-16 0)
(3 4.37816e-16 0)
(3 6.13824e-16 0)
(3 -7.096e-16 0)
(3 -1.46085e-15 0)
(3 -1.21525e-15 0)
(3 -1.27193e-15 0)
(3 -1.47294e-15 0)
(3 -1.23211e-15 0)
(3 -2.41511e-16 0)
(3 2.83542e-16 0)
(3 -4.66602e-16 0)
(3 -1.9952e-15 0)
(3 -1.62012e-15 0)
(3 -6.4207e-16 0)
(3 -3.60111e-16 0)
(3 4.56426e-16 0)
(3 1.08002e-15 0)
(3 1.72095e-15 0)
(3 2.63633e-15 0)
(3 2.77196e-15 0)
(3 1.99571e-15 0)
(3 1.29317e-15 0)
(3 8.30725e-16 0)
(3 7.47818e-16 0)
(3 2.7049e-16 0)
(3 -4.18384e-16 0)
(3 -2.73564e-16 0)
(3 2.75094e-16 0)
(3 4.01869e-16 0)
(3 5.01594e-16 0)
(3 7.22053e-16 0)
(3 7.65125e-16 0)
(3 7.31773e-16 0)
(3 -1.31553e-16 0)
(3 -4.25896e-16 0)
(3 -7.04375e-16 0)
(3 -1.05315e-15 0)
(3 -9.63005e-16 0)
(3 -7.20386e-16 0)
(3 -8.5006e-16 0)
(3 -9.17155e-16 0)
(3 -3.12648e-16 0)
(3 -3.35284e-16 0)
(3 -7.08113e-16 0)
(3 -9.94618e-16 0)
(3 -2.19412e-16 0)
(3 -4.84986e-17 0)
(3 2.03126e-16 0)
(3 6.44279e-16 0)
(3 7.14487e-16 0)
(3 2.57799e-16 0)
(3 1.0175e-16 0)
(3 -3.3685e-16 0)
(3 -7.3511e-16 0)
(3 -1.09257e-15 0)
(3 -7.56952e-16 0)
(3 -4.18082e-16 0)
(3 2.80587e-16 0)
(3 3.17715e-16 0)
(3 -2.6908e-16 0)
(3 -1.07673e-15 0)
(3 -9.21877e-16 0)
(3 -7.95427e-16 0)
(3 -1.08387e-15 0)
(3 -8.79515e-16 0)
(3 2.25921e-16 0)
(3 5.34321e-16 0)
(3 1.22542e-16 0)
(3 1.5578e-18 0)
(3 4.08407e-17 0)
(3 2.43684e-17 0)
(3 1.94578e-16 0)
(3 8.0029e-16 0)
(3 -1.12805e-16 0)
(3 -6.27752e-16 0)
(3 -9.52801e-16 0)
(3 -1.61825e-15 0)
(3 -1.93328e-15 0)
(3 -1.63164e-15 0)
(3 -4.83155e-16 0)
(3 -6.27975e-18 0)
(3 3.10417e-16 0)
(3 4.4352e-17 0)
(3 -2.65805e-16 0)
(3 -6.7051e-16 0)
(3 -1.58622e-15 0)
(3 -1.99959e-15 0)
(3 -2.55379e-15 0)
(3 -2.84633e-15 0)
(3 -2.73577e-15 0)
(3 -2.70935e-15 0)
(3 -1.49518e-15 0)
(3 9.15713e-17 0)
(3 5.4439e-16 0)
(3 4.37029e-16 0)
(3 2.38081e-16 0)
(3 -3.70337e-16 0)
(3 -4.561e-16 0)
(3 -1.12157e-15 0)
(3 -2.072e-15 0)
(3 -2.1671e-15 0)
(3 -2.13418e-15 0)
(3 -1.96966e-15 0)
(3 -1.65491e-15 0)
(3 -1.30711e-15 0)
(3 6.96438e-16 0)
(3 -7.54854e-16 0)
(3 -2.42201e-15 0)
(3 -1.5125e-15 0)
(3 -7.27075e-16 0)
(3 -2.90341e-16 0)
(3 2.94822e-16 0)
(3 7.30962e-16 0)
(3 9.46706e-16 0)
(3 1.34907e-15 0)
(3 1.47722e-15 0)
(3 1.80081e-15 0)
(3 1.31475e-15 0)
(3 1.08688e-15 0)
(3 -1.15337e-16 0)
(3 -1.08388e-15 0)
(3 -1.98215e-15 0)
(3 -2.22271e-15 0)
(3 -5.3907e-16 0)
(3 -7.6405e-16 0)
(3 -2.42931e-16 0)
(3 -7.77583e-19 0)
(3 1.02306e-15 0)
(3 1.63687e-15 0)
(3 1.36951e-15 0)
(3 9.08509e-17 0)
(3 -8.88082e-16 0)
(3 -5.86503e-16 0)
(3 -1.46145e-16 0)
(3 -3.30261e-16 0)
(3 -7.45943e-16 0)
(3 -1.04543e-15 0)
(3 -1.61842e-15 0)
(3 -1.77547e-15 0)
(3 -1.63624e-15 0)
(3 -1.66988e-15 0)
(3 -1.56238e-15 0)
(3 -1.33529e-15 0)
(3 -3.77268e-16 0)
(3 5.49626e-16 0)
(3 7.80039e-16 0)
(3 1.22688e-16 0)
(3 -4.04819e-16 0)
(3 -6.27858e-16 0)
(3 -5.95517e-16 0)
(3 -7.36523e-16 0)
(3 -4.89639e-16 0)
(3 -1.29891e-16 0)
(3 -3.04936e-17 0)
(3 3.04617e-16 0)
(3 -2.69672e-16 0)
(3 -4.37871e-16 0)
(3 -5.06285e-16 0)
(3 -2.14226e-16 0)
(3 -2.06306e-16 0)
(3 -3.67924e-16 0)
(3 -4.39371e-16 0)
(3 -3.91247e-16 0)
(3 -3.17202e-16 0)
(3 -3.58987e-16 0)
(3 -9.78662e-17 0)
(3 -8.42339e-17 0)
(3 7.43496e-16 0)
(3 1.72392e-15 0)
(3 5.43603e-16 0)
(3 -8.54872e-16 0)
(3 -5.89697e-16 0)
(3 -3.68972e-16 0)
(3 9.38437e-17 0)
(3 5.80612e-16 0)
(3 5.50625e-16 0)
(3 2.14467e-17 0)
(3 -1.26259e-15 0)
(3 -1.31321e-15 0)
(3 -1.49191e-15 0)
(3 -1.53994e-15 0)
(3 -1.30418e-15 0)
(3 -9.9619e-16 0)
(3 -1.15173e-15 0)
(3 -1.65104e-15 0)
(3 -1.66103e-15 0)
(3 -1.42678e-15 0)
(3 -7.19756e-16 0)
(3 5.43993e-16 0)
(3 1.01923e-15 0)
(3 7.42574e-16 0)
(3 -1.81169e-17 0)
(3 -1.8745e-16 0)
(3 -6.32647e-17 0)
(3 9.74887e-17 0)
(3 -4.14922e-16 0)
(3 -1.46746e-15 0)
(3 -2.04893e-15 0)
(3 -2.69247e-15 0)
(3 -3.24209e-15 0)
(3 -2.93155e-15 0)
(3 -5.61183e-16 0)
(3 -9.45781e-16 0)
(3 -1.24288e-15 0)
(3 -4.82585e-16 0)
(3 -5.1338e-16 0)
(3 -1.34775e-16 0)
(3 -3.30719e-16 0)
(3 -6.96205e-16 0)
(3 -6.74489e-16 0)
(3 -4.68415e-16 0)
(3 3.56727e-16 0)
(3 1.67427e-15 0)
(3 2.10193e-15 0)
(3 1.59596e-15 0)
(3 -5.62012e-16 0)
(3 -1.15404e-15 0)
(3 -1.42499e-15 0)
(3 -1.66856e-15 0)
(3 -7.27031e-17 0)
(3 -3.76682e-16 0)
(3 -4.50204e-16 0)
(3 -7.71979e-16 0)
(3 -3.08645e-16 0)
(3 1.5083e-16 0)
(3 5.15972e-16 0)
(3 3.6792e-17 0)
(3 -2.30097e-16 0)
(3 -3.95715e-16 0)
(3 -4.6607e-16 0)
(3 -6.22988e-16 0)
(3 -9.89312e-16 0)
(3 -1.17504e-15 0)
(3 -1.33563e-15 0)
(3 -1.16608e-15 0)
(3 -1.07939e-15 0)
(3 -9.13946e-16 0)
(3 -6.61899e-16 0)
(3 4.73264e-17 0)
(3 6.5773e-16 0)
(3 1.02089e-15 0)
(3 1.24494e-15 0)
(3 1.12569e-15 0)
(3 6.25995e-16 0)
(3 5.29336e-16 0)
(3 7.70408e-17 0)
(3 -7.04421e-17 0)
(3 -1.06819e-16 0)
(3 5.28982e-17 0)
(3 -6.20607e-16 0)
(3 -7.92459e-16 0)
(3 -2.90214e-16 0)
(3 -2.71125e-17 0)
(3 3.27414e-17 0)
(3 -3.09616e-18 0)
(3 4.31948e-18 0)
(3 3.05633e-16 0)
(3 5.4607e-16 0)
(3 7.43887e-16 0)
(3 1.05142e-15 0)
(3 1.29769e-15 0)
(3 1.57754e-15 0)
(3 1.90963e-15 0)
(3 2.26481e-15 0)
(3 2.88263e-15 0)
(3 2.57928e-15 0)
(3 8.40309e-16 0)
(3 5.09371e-16 0)
(3 2.22702e-16 0)
(3 4.45604e-16 0)
(3 1.23244e-15 0)
(3 1.14661e-15 0)
(3 1.1697e-15 0)
(3 3.73463e-16 0)
(3 2.89172e-17 0)
(3 -6.70517e-16 0)
(3 -1.02708e-15 0)
(3 -1.17618e-15 0)
(3 -9.18753e-16 0)
(3 -2.9508e-16 0)
(3 -6.45993e-17 0)
(3 -1.50947e-16 0)
(3 6.80675e-17 0)
(3 7.96206e-16 0)
(3 1.01417e-15 0)
(3 5.84148e-16 0)
(3 -3.69147e-16 0)
(3 -9.45464e-16 0)
(3 -9.0776e-16 0)
(3 -8.98796e-16 0)
(3 -1.09227e-15 0)
(3 -1.14533e-15 0)
(3 -2.60753e-15 0)
(3 -3.48144e-15 0)
(3 -4.03497e-15 0)
(3 -4.77392e-15 0)
(3 -2.79688e-15 0)
(3 -1.12898e-15 0)
(3 6.91127e-16 0)
(3 1.19557e-15 0)
(3 4.67821e-17 0)
(3 -6.91749e-16 0)
(3 -4.17088e-16 0)
(3 -8.06044e-16 0)
(3 -1.02119e-15 0)
(3 -1.12156e-15 0)
(3 -1.14765e-15 0)
(3 -3.60358e-16 0)
(3 2.06867e-16 0)
(3 5.93907e-16 0)
(3 6.23656e-16 0)
(3 3.53768e-16 0)
(3 -8.44048e-16 0)
(3 -1.18744e-15 0)
(3 -1.89263e-15 0)
(3 2.40547e-16 0)
(3 1.01204e-15 0)
(3 7.0477e-16 0)
(3 1.6373e-16 0)
(3 -6.40966e-16 0)
(3 -1.24767e-15 0)
(3 -8.75641e-16 0)
(3 -1.87165e-16 0)
(3 4.34922e-16 0)
(3 -5.89202e-17 0)
(3 -1.88309e-15 0)
(3 -2.40111e-15 0)
(3 -2.17801e-15 0)
(3 -1.85615e-15 0)
(3 -1.47314e-15 0)
(3 -1.1896e-15 0)
(3 -9.91469e-16 0)
(3 -4.29291e-16 0)
(3 -3.76249e-16 0)
(3 -1.42875e-16 0)
(3 2.36001e-16 0)
(3 7.40312e-16 0)
(3 1.03023e-15 0)
(3 1.55885e-15 0)
(3 1.48164e-15 0)
(3 9.33021e-16 0)
(3 1.05128e-15 0)
(3 1.50594e-15 0)
(3 4.77014e-16 0)
(3 3.31811e-16 0)
(3 -5.03564e-16 0)
(3 -1.10159e-15 0)
(3 -6.27054e-16 0)
(3 2.97237e-17 0)
(3 7.02022e-16 0)
(3 8.7042e-16 0)
(3 1.06362e-15 0)
(3 1.53404e-15 0)
(3 1.6048e-15 0)
(3 1.53117e-15 0)
(3 5.74059e-16 0)
(3 1.63712e-16 0)
(3 6.77729e-16 0)
(3 1.93089e-15 0)
(3 2.3488e-15 0)
(3 2.98903e-15 0)
(3 3.63193e-15 0)
(3 2.98348e-15 0)
(3 1.51178e-15 0)
(3 6.44434e-16 0)
(3 6.08107e-16 0)
(3 4.23153e-16 0)
(3 1.0277e-15 0)
(3 1.59531e-15 0)
(3 1.75914e-15 0)
(3 1.02288e-15 0)
(3 5.09937e-16 0)
(3 4.49493e-16 0)
(3 4.15887e-16 0)
(3 2.31094e-16 0)
(3 9.4988e-16 0)
(3 1.73833e-15 0)
(3 1.50805e-15 0)
(3 1.20816e-15 0)
(3 1.59758e-15 0)
(3 2.14321e-15 0)
(3 8.95964e-16 0)
(3 -3.6234e-16 0)
(3 -1.40368e-15 0)
(3 -1.79662e-15 0)
(3 -2.11639e-15 0)
(3 -2.01321e-15 0)
(3 -1.9781e-15 0)
(3 -2.53441e-15 0)
(3 -2.85209e-15 0)
(3 -2.40007e-15 0)
(3 -2.13853e-15 0)
(3 -7.90372e-16 0)
(3 1.79525e-15 0)
(3 1.55278e-15 0)
(3 2.96634e-16 0)
(3 -7.72635e-16 0)
(3 -1.8653e-15 0)
(3 -2.06436e-15 0)
(3 -1.6273e-15 0)
(3 -2.27907e-15 0)
(3 -2.44201e-15 0)
(3 -2.33228e-15 0)
(3 -1.4073e-15 0)
(3 -1.33248e-15 0)
(3 -6.52339e-16 0)
(3 2.3917e-16 0)
(3 2.32002e-16 0)
(3 3.7923e-18 0)
(3 3.16501e-16 0)
(3 -1.11574e-15 0)
(3 1.24219e-16 0)
(3 -1.29893e-16 0)
(3 -2.71499e-16 0)
(3 -4.33352e-16 0)
(3 -1.03104e-15 0)
(3 -1.43568e-15 0)
(3 -1.54675e-15 0)
(3 -1.08569e-15 0)
(3 -1.36864e-16 0)
(3 1.99988e-16 0)
(3 -4.97354e-16 0)
(3 -9.68045e-16 0)
(3 -9.34037e-16 0)
(3 -8.77602e-16 0)
(3 -6.51958e-16 0)
(3 -9.29911e-16 0)
(3 -7.87652e-16 0)
(3 -1.4343e-18 0)
(3 1.55597e-16 0)
(3 -7.45178e-17 0)
(3 -6.68673e-17 0)
(3 -3.41853e-16 0)
(3 8.09482e-17 0)
(3 1.09921e-15 0)
(3 1.2499e-15 0)
(3 1.17705e-15 0)
(3 8.27187e-16 0)
(3 7.22607e-16 0)
(3 -2.37373e-17 0)
(3 -7.04526e-16 0)
(3 -6.53871e-16 0)
(3 -4.47519e-16 0)
(3 -4.6924e-17 0)
(3 4.58135e-16 0)
(3 9.35666e-16 0)
(3 1.00202e-15 0)
(3 6.92095e-16 0)
(3 6.92966e-16 0)
(3 5.73727e-16 0)
(3 -1.38624e-16 0)
(3 -5.9934e-16 0)
(3 -8.81545e-16 0)
(3 -4.14716e-16 0)
(3 1.01545e-15 0)
(3 1.55525e-15 0)
(3 1.69972e-15 0)
(3 1.82072e-15 0)
(3 1.80366e-15 0)
(3 1.76504e-15 0)
(3 2.35375e-15 0)
(3 1.68918e-15 0)
(3 1.71121e-15 0)
(3 2.06249e-15 0)
(3 1.87084e-15 0)
(3 1.75116e-15 0)
(3 1.65963e-15 0)
(3 1.57346e-15 0)
(3 1.80937e-15 0)
(3 2.03032e-15 0)
(3 1.93107e-15 0)
(3 1.34428e-15 0)
(3 7.38048e-16 0)
(3 3.65874e-16 0)
(3 1.79229e-16 0)
(3 5.80435e-16 0)
(3 1.70689e-15 0)
(3 8.71467e-16 0)
(3 -7.98751e-16 0)
(3 -1.80999e-15 0)
(3 -1.26426e-15 0)
(3 -1.22989e-15 0)
(3 -1.35065e-15 0)
(3 -1.58932e-15 0)
(3 -1.48016e-15 0)
(3 -1.02836e-15 0)
(3 -1.04806e-16 0)
(3 1.92168e-15 0)
(3 3.42211e-15 0)
(3 3.03658e-15 0)
(3 1.94228e-15 0)
(3 -1.8852e-16 0)
(3 -1.70123e-15 0)
(3 -3.05296e-15 0)
(3 -3.79926e-15 0)
(3 -3.45146e-15 0)
(3 -3.05152e-15 0)
(3 -2.80542e-15 0)
(3 -2.8171e-15 0)
(3 -2.56852e-15 0)
(3 -2.02361e-15 0)
(3 -7.63695e-16 0)
(3 -4.59506e-16 0)
(3 -3.23347e-16 0)
(3 7.79699e-16 0)
(3 1.2813e-15 0)
(3 7.3739e-16 0)
(3 -6.72937e-17 0)
(3 -5.77288e-16 0)
(3 -5.82268e-16 0)
(3 -4.94978e-16 0)
(3 -2.18967e-16 0)
(3 -2.49587e-17 0)
(3 -2.18465e-16 0)
(3 -3.77807e-16 0)
(3 -2.60652e-16 0)
(3 -3.13663e-17 0)
(3 -3.05067e-16 0)
(3 -5.42448e-16 0)
(3 -7.65249e-16 0)
(3 -4.96678e-16 0)
(3 -1.10429e-16 0)
(3 6.32895e-16 0)
(3 1.09944e-15 0)
(3 7.65246e-16 0)
(3 7.02493e-16 0)
(3 6.414e-16 0)
(3 4.35536e-16 0)
(3 2.06004e-16 0)
(3 3.77733e-16 0)
(3 1.51469e-16 0)
(3 1.58758e-16 0)
(3 2.15615e-16 0)
(3 -2.34167e-16 0)
(3 -2.06978e-16 0)
(3 -8.83059e-16 0)
(3 -1.57559e-15 0)
(3 -1.37501e-15 0)
(3 -1.09984e-15 0)
(3 -6.83717e-16 0)
(3 -3.51894e-16 0)
(3 -2.15611e-16 0)
(3 -4.58104e-16 0)
(3 -4.81411e-16 0)
(3 -5.36103e-16 0)
(3 -6.4045e-16 0)
(3 -7.14639e-16 0)
(3 -4.50202e-16 0)
(3 -2.99317e-16 0)
(3 -8.24618e-17 0)
(3 8.27521e-16 0)
(3 1.20677e-15 0)
(3 1.31212e-15 0)
(3 1.62728e-15 0)
(3 1.65972e-15 0)
(3 1.08788e-15 0)
(3 5.92701e-16 0)
(3 5.05163e-16 0)
(3 5.48845e-16 0)
(3 6.34227e-16 0)
(3 1.05551e-15 0)
(3 1.28142e-15 0)
(3 8.22947e-16 0)
(3 1.26428e-15 0)
(3 1.72574e-15 0)
(3 2.00552e-15 0)
(3 6.974e-16 0)
(3 -6.29763e-17 0)
(3 -4.7845e-16 0)
(3 -6.31049e-16 0)
(3 -6.40464e-16 0)
(3 -5.14839e-16 0)
(3 6.82332e-17 0)
(3 8.02721e-16 0)
(3 5.46783e-16 0)
(3 2.02175e-16 0)
(3 3.10786e-16 0)
(3 3.36172e-16 0)
(3 2.79123e-16 0)
(3 1.49538e-16 0)
(3 -3.44784e-16 0)
(3 -7.76577e-16 0)
(3 -2.95854e-16 0)
(3 2.4676e-15 0)
(3 2.71951e-15 0)
(3 2.14267e-15 0)
(3 2.60106e-16 0)
(3 -1.48748e-15 0)
(3 -2.46611e-15 0)
(3 -4.01067e-15 0)
(3 -5.02334e-15 0)
(3 -5.76895e-15 0)
(3 -4.14745e-15 0)
(3 -3.31627e-15 0)
(3 -3.69917e-15 0)
(3 -2.70807e-15 0)
(3 -2.17748e-15 0)
(3 -1.67265e-15 0)
(3 -1.00318e-15 0)
(3 -4.63214e-16 0)
(3 4.59747e-16 0)
(3 1.31316e-15 0)
(3 1.8575e-15 0)
(3 -7.15599e-17 0)
(3 -7.23045e-17 0)
(3 1.74196e-16 0)
(3 5.53208e-16 0)
(3 5.39094e-16 0)
(3 5.0823e-16 0)
(3 7.05634e-16 0)
(3 1.46599e-15 0)
(3 7.48848e-16 0)
(3 3.76529e-16 0)
(3 5.08789e-16 0)
(3 1.36925e-16 0)
(3 -3.56611e-16 0)
(3 -3.8311e-16 0)
(3 -5.84291e-16 0)
(3 -2.53187e-16 0)
(3 -2.69854e-17 0)
(3 -2.01198e-16 0)
(3 -4.09242e-16 0)
(3 6.85739e-17 0)
(3 5.94427e-17 0)
(3 -3.04462e-16 0)
(3 -4.5383e-16 0)
(3 -8.73193e-16 0)
(3 -1.0487e-15 0)
(3 -1.02424e-15 0)
(3 -7.76652e-16 0)
(3 -8.6219e-16 0)
(3 -5.37133e-16 0)
(3 -6.02229e-16 0)
(3 -1.07325e-15 0)
(3 -1.42498e-15 0)
(3 -1.3165e-15 0)
(3 -1.30025e-15 0)
(3 -8.7359e-16 0)
(3 -1.11535e-15 0)
(3 -1.04137e-15 0)
(3 -1.0906e-15 0)
(3 -9.16582e-16 0)
(3 9.50633e-17 0)
(3 7.87271e-16 0)
(3 8.71253e-16 0)
(3 6.44197e-16 0)
(3 8.26322e-17 0)
(3 2.02603e-16 0)
(3 2.29358e-16 0)
(3 4.28782e-16 0)
(3 1.15288e-15 0)
(3 9.93161e-16 0)
(3 1.7114e-17 0)
(3 2.41903e-16 0)
(3 -1.81536e-18 0)
(3 4.37552e-17 0)
(3 3.94368e-16 0)
(3 7.94326e-16 0)
(3 7.96043e-16 0)