/*--------------------------------*- C++ -*----------------------------------*\
  =========                 |
  \\      /  F ield         | OpenFOAM: The Open Source CFD Toolbox
   \\    /   O peration     | Website:  https://openfoam.org
    \\  /    A nd           | Version:  7
     \\/     M anipulation  |
\*---------------------------------------------------------------------------*/
FoamFile
{
    version     2.0;
    format      ascii;
    class       volScalarField;
    location    "0.8";
    object      p;
}
// * * * * * * * * * * * * * * * * * * * * * * * * * * * * * * * * * * * * * //

dimensions      [1 -1 -2 0 0 0 0];

internalField   nonuniform List<scalar> 
4608
(
1
1
1
1
1
1
1
1
1
1
1
1
1
1
1
1
1
1
1
1
1
1
1
1
1
1
1
1
1
1
1
1
1
1
1
1
1
1
1
1
1
1
1
1
1
1
1
1
1
1
1
1
1
1
1
1
1
1
1
1
1
1
1
1
1
1
1
1
1
1
1
1
1
1
1
1
1
1
1
1
1
1
1
1
1
1
1
1
1
1
1
1
1
1
1
1
1
1
1
1
1
1
1
1
1
1
1
1
1
1
1
1
1
1
1
1
1
1
1
1
1
1
1
1
1
1
1
1
1
1
1
1
1
1
1
1
1
1
1
1
1
1
1
1
1
1
1
1
1
1
1
1
1
1
1
1
1
1
1
1
1
1
1
1
1
1
1
1
1
1
1
1
1
1
1
1
1
1
1
1
1
1
1
1
1
1
1
1
1
1
1
1
1
1
1
1
1
1
1
1
1
1
1
1
1
1
1
1
1
1
1
1
1
1
1
1
1
1
1
1
1
1
1
1
1
1
1
1
1
1
1
1
1
1
1
1
1
1
1
1
1
1
1
1
1
1
1
1
1
1
1
1
1
1
1
1
1
1
1
1
1
1
1
1
1
1
1
1
1
1
1
1
1
1
1
1
1
1
1
1
1
1
1
1
1
1
1
1
1
1
1
1
1
1
1
1
1
1
1
1
1
1
1
1
1
1
1
1
1
1
1
1
1
1
1
1
1
1
1
1
1
1
1
1
1
1
1
1
1
1
1
1
1
1
1
1
1
1
1
1
1
1
1
1
1
1
1
1
1
1
1
1
1
1
1
1
1
1
1
1
1
1
1
1
1
1
1
1
1
1
1
1
1
1
1
1
1
1
1
1
1
1
1
1
1
1
1
1
1
1
1
1
1
1
1
1
1
1
1
1
1
1
1
1
1
1
1
1
1
1
1
1
1
1
1
1
1
1
1
1
1
1
1
1
1
1
1
1
1
1
1
1
1
1
1
1
1
1
1
1
1
1
1
1
1
1
1
1
1
1
1
1
1
1
1
1
1
1
1
1
1
1
1
1
1
1
1
1
1
1
1
1
1
1
1
1
1
1
1
1
1
1
1
1
1
1
1
1
1
1
1
1
1
1
1
1
1
1
1
1
1
1
1
1
1
1
1
1
1
1
1
1
1
1
1
1
1
1
1
1
1
1
1
1
1
1
1
1
1
1
1
1
1
1
1
1
1
1
1
1
1
1
1
1
1
1
1
1
1
1
1
1
1
1
1
1
1
1
1
1
1
1
1
1
1
1
1
1
1
1
1
1
1
1
1
1
1
1
1
1
1
1
1
1
1
1
1
1
1
1
1
1
1
1
1
1
1
1
1
1
1
1
1
1
1
1
1
1
1
1
1
1
1
1
1
1
1
1
1
1
1
1
1
1
1
1
1
1
1
1
1
1
1
1
1
1
1
1
1
1
1
1
1
1
1
1
1
1
1
1
1
1
1
1
1
1
1
1
1
1
1
1
1
1
1
1
1
1
1
1
1
1
1
1
1
1
1
1
1
1
1
1
1
1
1
1
1
1
1
1
1
1
1
1
1
1
1
1
1
1
1
1
1
1
1
1
1
1
1
1
1
1
1
1
1
1
1
1
1
1
1
1
1
1
1
1
1
1
1
1
1
1
1
1
1
1
1
1
1
1
1
1
1
1
1
1
1
1
1
1
1
1
1
1
1
1
1
1
1
1
1
1
1
1
1
1
1
1
1.2933
1.76359
2.3133
2.99753
3.63578
4.28244
4.85274
5.30463
5.36928
5.16485
4.71692
4.22326
3.81547
3.65542
3.56592
3.58254
3.62184
3.65409
3.68624
3.71177
3.73394
3.76127
3.76866
3.76806
1.0019
1.02089
1.08737
1.21127
1.47976
1.85072
2.37973
2.97071
3.60186
3.83098
4.03315
4.05474
3.98996
3.83818
3.76196
3.74293
3.71489
3.69465
3.6923
3.70361
3.72471
3.75121
3.76603
3.77089
0.999998
0.999957
1.00021
1.00012
1.0037
1.02304
1.10996
1.35964
1.99213
2.99291
3.83263
4.30043
4.36677
4.26883
4.09643
3.86012
3.71769
3.70263
3.69128
3.69275
3.70414
3.72357
3.75181
3.76977
1
0.999999
0.999999
0.999999
0.999986
1.00003
0.999935
1.00182
1.03274
1.31329
2.02788
3.14859
3.92121
4.12557
4.04598
3.93638
3.84693
3.80611
3.75062
3.695
3.68697
3.69579
3.71596
3.74045
1
1
1
1
0.999999
0.999999
0.999991
0.999994
0.999893
1.00179
1.03769
1.37201
2.19076
3.39467
3.92419
4.06009
4.01242
3.96425
3.83464
3.72719
3.70459
3.69961
3.7102
3.72709
1
1
1
1
1
1
1
1
0.999989
0.99999
0.999904
1.00354
1.07523
1.50729
2.51179
3.53364
3.98745
3.96952
3.90893
3.8285
3.77494
3.75198
3.72458
3.72535
1
1
1
1
1
1
1
1
1
0.999999
0.999988
0.999987
1.00001
1.00894
1.17968
1.79106
2.88431
3.61097
3.92771
3.91292
3.85404
3.79455
3.75501
3.72082
1
1
1
1
1
1
1
1
1
1
1
0.999999
0.999998
0.999967
1.00141
1.03099
1.37467
2.21663
3.3675
3.6785
3.75701
3.7559
3.74385
3.70735
1
1
1
1
1
1
1
1
1
1
1
1
1
0.999994
0.999994
0.999978
1.00943
1.11612
1.7515
2.79677
3.59896
3.79717
3.78439
3.75539
1
1
1
1
1
1
1
1
1
1
1
1
1
1
0.999999
0.999995
0.999978
1.00092
1.04914
1.39596
2.40234
3.23812
3.73046
3.79697
1
1
1
1
1
1
1
1
1
1
1
1
1
1
1
1
0.999997
0.999993
1.00029
1.01331
1.2276
1.98447
3.18081
3.60856
1
1
1
1
1
1
1
1
1
1
1
1
1
1
1
1
1
0.999999
0.999997
1.00001
1.00624
1.11832
1.7311
2.7612
1
1
1
1
1
1
1
1
1
1
1
1
1
1
1
1
1
1
0.999999
0.999999
0.999999
1.00231
1.05999
1.52255
1
1
1
1
1
1
1
1
1
1
1
1
1
1
1
1
1
1
1
1
1
0.999998
1.00086
1.03591
1
1
1
1
1
1
1
1
1
1
1
1
1
1
1
1
1
1
1
1
1
0.999999
1
1.0001
1
1
1
1
1
1
1
1
1
1
1
1
1
1
1
1
1
1
1
1
1
1
1
0.999999
1
1
1
1
1
1
1
1
1
1
1
1
1
1
1
1
1
1
1
1
1
1
1
0.999999
1
1
1
1
1
1
1
1
1
1
1
1
1
1
1
1
1
1
1
1
1
0.999999
1
1.0001
1
1
1
1
1
1
1
1
1
1
1
1
1
1
1
1
1
1
1
1
1
0.999998
1.00086
1.03591
1
1
1
1
1
1
1
1
1
1
1
1
1
1
1
1
1
1
0.999999
0.999999
0.999999
1.00231
1.05999
1.52255
1
1
1
1
1
1
1
1
1
1
1
1
1
1
1
1
1
0.999999
0.999997
1.00001
1.00624
1.11832
1.7311
2.7612
1
1
1
1
1
1
1
1
1
1
1
1
1
1
1
1
0.999997
0.999993
1.00029
1.01331
1.2276
1.98447
3.18081
3.60856
1
1
1
1
1
1
1
1
1
1
1
1
1
1
0.999999
0.999995
0.999978
1.00092
1.04914
1.39596
2.40234
3.23812
3.73046
3.79697
1
1
1
1
1
1
1
1
1
1
1
1
1
0.999994
0.999994
0.999978
1.00943
1.11612
1.7515
2.79677
3.59896
3.79717
3.78439
3.75539
1
1
1
1
1
1
1
1
1
1
1
0.999999
0.999998
0.999967
1.00141
1.03099
1.37467
2.21663
3.3675
3.6785
3.75701
3.7559
3.74385
3.70735
1
1
1
1
1
1
1
1
1
0.999999
0.999988
0.999987
1.00001
1.00894
1.17968
1.79106
2.88431
3.61097
3.92771
3.91292
3.85404
3.79455
3.75501
3.72082
1
1
1
1
1
1
1
1
0.999989
0.99999
0.999904
1.00354
1.07523
1.50729
2.51179
3.53364
3.98745
3.96952
3.90893
3.8285
3.77494
3.75198
3.72458
3.72535
1
1
1
1
0.999999
0.999999
0.999991
0.999994
0.999893
1.00179
1.03769
1.37201
2.19076
3.39467
3.92419
4.06009
4.01242
3.96425
3.83464
3.72719
3.70459
3.69961
3.7102
3.72709
1
0.999999
0.999999
0.999999
0.999986
1.00003
0.999935
1.00182
1.03274
1.31329
2.02788
3.14859
3.92121
4.12557
4.04598
3.93638
3.84693
3.80611
3.75062
3.695
3.68697
3.69579
3.71596
3.74045
0.999998
0.999957
1.00021
1.00012
1.0037
1.02304
1.10996
1.35964
1.99213
2.99291
3.83263
4.30043
4.36677
4.26883
4.09643
3.86012
3.71769
3.70263
3.69128
3.69275
3.70414
3.72357
3.75181
3.76977
1.0019
1.02089
1.08737
1.21127
1.47976
1.85072
2.37973
2.97071
3.60186
3.83098
4.03315
4.05474
3.98996
3.83818
3.76196
3.74293
3.71489
3.69465
3.6923
3.70361
3.72471
3.75121
3.76603
3.77089
1.2933
1.76359
2.3133
2.99753
3.63578
4.28244
4.85274
5.30463
5.36928
5.16485
4.71692
4.22326
3.81547
3.65542
3.56592
3.58254
3.62184
3.65409
3.68624
3.71177
3.73394
3.76127
3.76866
3.76806
2.66362
1.67197
1.10288
0.884572
0.714554
0.633659
0.653459
0.720955
0.776804
0.815738
0.883645
0.982417
1.01179
1.01044
1.02525
1.05482
1.05767
1.05408
1.06272
1.08043
1.0798
1.07374
1.06323
1.05023
1.06348
1.1907
1.80072
2.90523
3.94273
5.00074
6.08354
6.83607
7.13282
7.10191
6.80697
6.30077
5.85112
5.47249
5.19333
4.94204
4.70626
4.48764
4.28926
4.11475
3.97702
3.885
3.7826
3.65656
3.5172
3.34639
3.14467
3.0091
2.94243
2.89144
2.83813
2.77651
2.69431
2.57209
2.403
2.26441
2.20568
2.17222
2.14282
2.1088
2.0692
2.01935
1.94089
1.81982
1.70112
1.64854
1.62861
1.6103
1.58694
1.5579
1.52017
1.47313
1.42594
1.38584
1.3473
1.30314
1.24516
1.1888
1.16945
1.16182
1.15333
1.14232
1.13026
1.11635
1.09779
1.0662
1.01314
0.98333
0.978431
0.972587
0.960513
0.938219
3.37377
2.77479
2.1157
1.7467
1.52134
1.24627
1.10561
1.05861
0.988626
0.932917
0.925906
0.935981
0.933794
0.93602
0.950738
0.979686
1.00195
1.00585
1.01628
1.0387
1.04516
1.03959
1.04171
1.10065
1.34595
1.90916
2.63877
2.81435
3.08262
3.51769
3.96088
4.49103
4.92769
5.38343
5.53658
5.61986
5.67567
5.5393
5.29931
5.08172
4.85218
4.6092
4.37656
4.18275
4.04406
3.94541
3.84472
3.71894
3.57216
3.40249
3.21614
3.08799
3.01078
2.94654
2.88851
2.82149
2.73018
2.60322
2.44719
2.32363
2.26434
2.22738
2.19389
2.15773
2.11318
2.05423
1.96727
1.85233
1.75041
1.70118
1.67545
1.6522
1.62363
1.59022
1.55223
1.51038
1.46534
1.42243
1.38125
1.33634
1.28303
1.22932
1.20222
1.19108
1.18095
1.16993
1.15725
1.14261
1.12556
1.10145
1.0609
1.02124
1.00778
0.998032
0.984845
0.964784
3.66057
3.34664
2.86931
2.35137
1.99245
1.67285
1.40366
1.26591
1.1502
0.997362
0.953061
0.954824
0.936098
0.92439
0.930201
0.9417
0.962456
0.970236
0.977918
0.99641
1.02249
1.04247
1.16423
1.65716
2.23624
2.84819
3.06797
3.03551
2.95698
2.93038
2.95533
3.06646
3.36436
3.89625
4.5769
5.01572
5.26373
5.41088
5.36317
5.239
5.05203
4.75049
4.43122
4.19156
4.00369
3.84573
3.73955
3.63682
3.50202
3.35414
3.22644
3.10462
2.97277
2.85361
2.76991
2.71059
2.63868
2.53799
2.43389
2.36118
2.2874
2.19933
2.12512
2.07947
2.04045
1.98846
1.91357
1.83234
1.77312
1.70968
1.63995
1.60271
1.57989
1.54963
1.51197
1.47221
1.43174
1.38879
1.34834
1.30785
1.25763
1.20032
1.16177
1.14779
1.1384
1.13082
1.12442
1.11486
1.10257
1.08405
1.04694
0.997148
0.982441
0.976247
0.966388
0.946648
3.72985
3.61357
3.33482
2.90442
2.49038
2.15877
1.81659
1.59336
1.46353
1.2787
1.14259
1.10823
1.05451
0.979204
0.967838
0.968419
0.95365
0.93612
0.938871
0.946775
0.981012
1.14751
1.82044
2.54811
2.94947
3.08057
3.05302
2.98027
2.8437
2.76996
2.73389
2.68819
2.62239
2.65591
2.87028
3.26208
3.77011
4.31197
4.73588
4.77767
4.72659
4.67927
4.56284
4.3691
4.13283
3.90272
3.71499
3.59147
3.49946
3.39669
3.2814
3.14351
2.99028
2.85339
2.73594
2.65741
2.60537
2.55068
2.49136
2.42542
2.32577
2.21113
2.11716
2.04722
1.99919
1.95981
1.91568
1.86672
1.81113
1.73225
1.64082
1.58077
1.5598
1.53561
1.49681
1.45397
1.41927
1.38152
1.33889
1.29858
1.25419
1.20008
1.14931
1.13192
1.12155
1.11367
1.10873
1.10172
1.09313
1.08198
1.05061
0.993091
0.972613
0.968302
0.962823
0.946382
3.73355
3.70837
3.58426
3.30248
2.93149
2.58159
2.23969
1.94724
1.75449
1.55881
1.35612
1.25533
1.19311
1.0904
1.02396
1.00029
0.967131
0.947313
0.949341
1.01158
1.31521
1.92887
2.73506
2.98364
3.02271
3.01052
2.92239
2.78202
2.66445
2.62566
2.5958
2.53776
2.43367
2.36773
2.3366
2.33993
2.43779
2.76183
3.30607
3.85693
4.1714
4.4249
4.44399
4.39789
4.26247
4.0648
3.79439
3.561
3.39035
3.27485
3.17642
3.09167
3.00926
2.89411
2.75927
2.64032
2.53968
2.46074
2.40196
2.3448
2.29749
2.24005
2.15074
2.04923
1.96729
1.91099
1.86288
1.81623
1.77859
1.74528
1.68726
1.61054
1.55581
1.51894
1.48373
1.44162
1.3901
1.36922
1.35323
1.32244
1.28076
1.2238
1.15898
1.13231
1.12251
1.11246
1.10567
1.09791
1.08794
1.07434
1.04992
1.01342
0.978918
0.966461
0.96281
0.960857
3.73735
3.73281
3.70024
3.55532
3.29455
2.97092
2.63478
2.31269
2.05494
1.87066
1.67568
1.48347
1.37984
1.28683
1.20444
1.13563
1.07483
1.07949
1.16574
1.62819
2.29673
2.85961
3.10215
3.08234
3.00252
2.8722
2.74869
2.62861
2.56205
2.52069
2.46362
2.36601
2.28215
2.25043
2.20007
2.14714
2.0993
2.08449
2.1447
2.38728
2.80202
3.28303
3.65446
3.95379
3.92044
3.84992
3.75876
3.63377
3.46496
3.32003
3.21418
3.13038
3.02358
2.8963
2.76077
2.62861
2.51002
2.41805
2.35854
2.31352
2.26346
2.19349
2.10859
2.01417
1.92566
1.87059
1.8364
1.80476
1.76516
1.71155
1.6588
1.60681
1.54331
1.49693
1.4699
1.43844
1.38935
1.34418
1.31725
1.29174
1.25772
1.21687
1.16574
1.12768
1.11615
1.11567
1.11538
1.10749
1.09615
1.08381
1.06906
1.04451
1.00723
0.98858
0.979294
0.953897
3.72699
3.73202
3.72459
3.68681
3.5451
3.2867
2.98607
2.69823
2.38552
2.14896
1.95993
1.77744
1.62333
1.48203
1.37162
1.27244
1.27299
1.45521
2.05518
2.86868
3.29266
3.30903
3.21837
3.05059
2.88754
2.77731
2.69057
2.59444
2.5081
2.42145
2.32764
2.2362
2.18948
2.14505
2.0748
2.00648
1.96347
1.92239
1.84522
1.80741
1.84601
2.03482
2.37138
2.82933
3.21261
3.43584
3.62493
3.60452
3.51721
3.41541
3.31607
3.17337
3.0189
2.8781
2.74717
2.61897
2.50145
2.41071
2.34942
2.30129
2.24229
2.16844
2.08331
1.99075
1.90516
1.84975
1.81344
1.77504
1.73099
1.68995
1.65033
1.5973
1.53686
1.49043
1.44266
1.39372
1.3543
1.31945
1.29252
1.27615
1.25766
1.22473
1.18077
1.14196
1.1144
1.0875
1.0777
1.07221
1.06473
1.05582
1.04441
1.02572
0.999973
0.97868
0.96248
0.941787
3.69866
3.69973
3.70511
3.70088
3.65808
3.50577
3.26669
3.01548
2.7081
2.44396
2.24529
2.05518
1.84753
1.70624
1.56807
1.61969
2.03835
2.83416
3.63425
3.83517
3.74165
3.52959
3.30408
3.11792
2.94873
2.81688
2.71545
2.61214
2.50105
2.38743
2.27133
2.19231
2.14647
2.08219
1.98992
1.91585
1.86951
1.81991
1.73948
1.68273
1.66079
1.62781
1.6461
1.7328
1.97883
2.32737
2.7095
3.05404
3.22196
3.17103
3.13371
3.06727
2.96646
2.86889
2.76373
2.64878
2.5391
2.44661
2.37206
2.30815
2.23084
2.13787
2.04574
1.96214
1.88895
1.83467
1.79238
1.75194
1.7148
1.67398
1.62039
1.56053
1.51461
1.4731
1.42422
1.37944
1.33806
1.31298
1.2948
1.2716
1.23523
1.1971
1.16708
1.14436
1.11214
1.07517
1.06182
1.05765
1.05413
1.04844
1.04012
1.0259
1.00496
0.978512
0.959801
0.943464
3.71814
3.70468
3.70242
3.70532
3.70364
3.63736
3.4734
3.26066
3.02538
2.69297
2.5007
2.30902
2.10687
1.96656
2.11747
2.81489
3.86165
4.48152
4.43218
4.19464
3.88349
3.63474
3.44307
3.27425
3.10356
2.93454
2.78275
2.6515
2.52603
2.39238
2.26768
2.18971
2.12967
2.05104
1.9481
1.87073
1.81093
1.75122
1.67964
1.62779
1.59634
1.54823
1.49094
1.42259
1.41766
1.47212
1.64871
1.95509
2.34295
2.62937
2.84194
2.93374
2.87951
2.82698
2.77821
2.70957
2.6288
2.54
2.4539
2.34518
2.22475
2.10292
1.9944
1.92862
1.87619
1.82611
1.78305
1.74704
1.7094
1.65842
1.59439
1.52844
1.48256
1.44611
1.412
1.38293
1.3393
1.29042
1.26262
1.23715
1.20869
1.18359
1.16666
1.15139
1.12107
1.07127
1.05162
1.04796
1.04701
1.04463
1.03752
1.0282
1.01828
0.997965
0.972339
0.94734
3.7776
3.73843
3.7284
3.73634
3.74233
3.71375
3.61863
3.45863
3.25303
2.99051
2.76203
2.50281
2.5443
3.00707
3.95381
5.02961
5.3161
5.17201
4.82649
4.4703
4.14768
3.87305
3.64915
3.4489
3.25396
3.06823
2.89915
2.74002
2.57611
2.4198
2.30787
2.22354
2.14098
2.04045
1.92636
1.84991
1.78495
1.71626
1.64678
1.59677
1.56053
1.50958
1.43931
1.3635
1.33222
1.31427
1.29516
1.3163
1.39554
1.6231
1.91765
2.24835
2.45866
2.52411
2.57006
2.55926
2.50646
2.41609
2.34609
2.29562
2.22339
2.12551
2.01624
1.93157
1.87876
1.83079
1.78698
1.75069
1.71124
1.65788
1.59105
1.52208
1.47367
1.43988
1.4163
1.38776
1.33553
1.28501
1.25554
1.22977
1.20679
1.18694
1.17172
1.15346
1.11869
1.06767
1.05072
1.04835
1.04746
1.04761
1.04339
1.03694
1.02763
1.00967
0.980293
0.957968
3.6088
3.64967
3.68757
3.71703
3.74295
3.72963
3.6778
3.58465
3.40992
3.22461
3.02319
3.22851
4.26957
5.60983
6.14297
6.037
5.74563
5.3595
5.02165
4.73126
4.45132
4.1621
3.87121
3.59059
3.3389
3.13015
2.96741
2.82957
2.6788
2.5232
2.39395
2.27752
2.16569
2.04521
1.92708
1.84961
1.78165
1.70645
1.63653
1.58687
1.54538
1.49203
1.41113
1.33895
1.3127
1.28756
1.25416
1.20892
1.15183
1.15133
1.19293
1.32903
1.58766
1.85608
2.07024
2.26829
2.3328
2.30848
2.2724
2.24788
2.21606
2.15764
2.06494
1.9743
1.92876
1.88858
1.84063
1.797
1.75282
1.69627
1.62024
1.53439
1.48803
1.4707
1.45173
1.41734
1.35823
1.30338
1.27224
1.25104
1.23272
1.21143
1.18928
1.16394
1.12405
1.07331
1.05327
1.0515
1.05186
1.05577
1.05545
1.0529
1.0488
1.03706
1.03031
1.07214
3.48527
3.77546
3.79474
3.75047
3.73599
3.73368
3.71906
3.67371
3.53819
3.54484
4.16209
5.70858
7.23554
7.45631
7.23332
6.66604
6.08038
5.60846
5.24799
4.93572
4.62614
4.31867
4.0274
3.75698
3.51297
3.28876
3.06881
2.86755
2.71371
2.5947
2.47589
2.34114
2.19977
2.06202
1.93192
1.85198
1.80843
1.75636
1.69257
1.63296
1.57186
1.49088
1.38727
1.34128
1.32598
1.29629
1.24199
1.1811
1.11454
1.07604
1.06831
1.06317
1.08506
1.17104
1.32065
1.51758
1.73172
1.91176
1.99605
2.05496
2.06486
2.04667
1.98531
1.91785
1.88856
1.85081
1.79562
1.746
1.70447
1.65479
1.59518
1.5367
1.48558
1.44865
1.41953
1.38598
1.3343
1.28207
1.2513
1.23216
1.218
1.20408
1.18947
1.17151
1.13705
1.08918
1.07839
1.08024
1.08914
1.1091
1.15103
1.20829
1.27302
1.3536
1.41704
1.5776
2.57996
3.52792
3.61062
3.62563
3.67247
3.73744
3.76211
3.77451
4.02417
5.35116
7.59996
8.35404
8.22967
7.91074
7.47664
6.99168
6.45593
5.92642
5.45757
5.06012
4.714
4.40498
4.12763
3.87526
3.64296
3.41805
3.18533
2.95933
2.765
2.60324
2.47007
2.34839
2.2248
2.09258
1.97086
1.88317
1.80365
1.72391
1.64697
1.57705
1.50936
1.43489
1.37207
1.33281
1.29452
1.25089
1.19767
1.14262
1.09245
1.05761
1.03889
1.01525
0.98745
0.968243
0.955444
0.976564
1.04625
1.1843
1.37662
1.57297
1.72298
1.85696
1.85185
1.84428
1.83253
1.81872
1.79621
1.75971
1.71575
1.66232
1.60946
1.5593
1.50236
1.45318
1.4151
1.38291
1.33919
1.29236
1.26298
1.24699
1.23728
1.23382
1.23589
1.23521
1.24609
1.26007
1.29359
1.35637
1.4318
1.53113
1.66303
1.76534
1.87027
1.92522
1.97055
2.03948
1.38992
2.3527
3.1398
3.57419
3.66982
3.75479
3.96603
4.67342
6.5672
8.93815
9.91834
9.61195
8.80958
8.06488
7.55222
7.12234
6.6548
6.15041
5.65209
5.20574
4.82832
4.50939
4.22809
3.96476
3.70943
3.47172
3.25077
3.02632
2.82493
2.6669
2.53502
2.40233
2.25945
2.12318
2.01541
1.9211
1.82493
1.73265
1.64786
1.57264
1.5024
1.43747
1.38559
1.33827
1.29268
1.24478
1.18909
1.13092
1.0804
1.05024
1.0307
1.00591
0.973812
0.941815
0.91513
0.890283
0.883271
0.882324
0.907382
0.992
1.13026
1.30589
1.45211
1.55919
1.61332
1.65206
1.69589
1.69421
1.66473
1.61606
1.57643
1.55098
1.52249
1.49143
1.46355
1.42927
1.41394
1.42191
1.44248
1.48298
1.56014
1.64726
1.71974
1.7761
1.81943
1.87404
1.94416
2.00261
2.06879
2.1833
2.25684
2.2865
2.29605
2.28712
2.29759
2.3038
1.02601
1.25096
2.01232
2.99329
3.4365
4.26095
5.73478
7.72226
9.40935
10.028
9.90166
9.59873
9.0823
8.42033
7.80039
7.25615
6.74011
6.24869
5.78943
5.36939
4.99286
4.65283
4.33723
4.04458
3.77145
3.5067
3.27434
3.12213
2.98281
2.82642
2.67201
2.52211
2.37904
2.25374
2.1438
2.03485
1.92451
1.81955
1.72702
1.64887
1.57964
1.51504
1.45252
1.39258
1.33647
1.27836
1.21544
1.15743
1.11513
1.08572
1.05848
1.02653
0.98691
0.947189
0.908034
0.879978
0.86487
0.84908
0.826585
0.814282
0.827012
0.863243
0.936102
1.0169
1.13443
1.26189
1.3986
1.49986
1.53559
1.56549
1.58773
1.64258
1.7118
1.76014
1.81867
1.90059
1.98559
2.04505
2.09772
2.1724
2.26263
2.31611
2.34123
2.33119
2.30304
2.30187
2.29744
2.29574
2.31658
2.3545
2.36391
2.36848
2.36079
2.337
2.33001
2.31163
1.00043
1.01343
1.17637
1.885
3.67696
6.02046
8.19091
10.0137
11.0532
10.6302
9.86463
9.47735
9.13903
8.65343
8.01521
7.35675
6.77178
6.27383
5.84097
5.44234
5.0622
4.69816
4.354
4.03846
3.75272
3.50834
3.30595
3.10501
2.90386
2.72572
2.56809
2.42595
2.29824
2.18504
2.07808
1.96743
1.85371
1.74742
1.65924
1.58985
1.52798
1.46482
1.40055
1.33916
1.28285
1.22726
1.16854
1.1154
1.07771
1.05
1.02398
0.994555
0.95736
0.914105
0.872031
0.850484
0.841168
0.830229
0.809506
0.789204
0.77905
0.769418
0.747057
0.74561
0.767174
0.831439
0.960018
1.11666
1.3507
1.5976
1.78913
1.99966
2.19123
2.29295
2.37868
2.48909
2.58887
2.64295
2.67709
2.71746
2.73891
2.73463
2.71824
2.68953
2.64807
2.59966
2.53892
2.51981
2.50927
2.47971
2.4327
2.38235
2.33591
2.29424
2.28212
2.25701
1.00043
1.01343
1.17637
1.885
3.67696
6.02046
8.19091
10.0137
11.0532
10.6302
9.86463
9.47735
9.13903
8.65343
8.01521
7.35675
6.77178
6.27383
5.84097
5.44234
5.0622
4.69816
4.354
4.03846
3.75272
3.50834
3.30595
3.10501
2.90386
2.72572
2.56808
2.42594
2.29824
2.18504
2.07808
1.96743
1.85371
1.74742
1.65924
1.58985
1.52798
1.46482
1.40055
1.33916
1.28285
1.22726
1.16854
1.1154
1.07771
1.05
1.02398
0.994555
0.95736
0.914105
0.872031
0.850484
0.841168
0.830229
0.809508
0.789203
0.779049
0.769417
0.747138
0.745185
0.768569
0.830241
0.954288
1.14612
1.34725
1.56271
1.81805
2.0008
2.15697
2.30943
2.40657
2.47942
2.5687
2.65136
2.6924
2.71483
2.72781
2.73044
2.72294
2.69272
2.6425
2.59631
2.54822
2.5111
2.5021
2.49094
2.47931
2.45132
2.39376
2.32295
2.28752
2.24494
1.02601
1.25096
2.01232
2.99329
3.4365
4.26094
5.73478
7.72226
9.40935
10.028
9.90166
9.59873
9.0823
8.42033
7.80039
7.25615
6.74011
6.24869
5.78943
5.36939
4.99286
4.65283
4.33723
4.04458
3.77145
3.5067
3.27435
3.12214
2.98282
2.82642
2.672
2.5221
2.37903
2.25373
2.14379
2.03485
1.92451
1.81955
1.72702
1.64887
1.57964
1.51504
1.45252
1.39258
1.33647
1.27836
1.21544
1.15743
1.11513
1.08572
1.05848
1.02653
0.986909
0.947189
0.908035
0.879979
0.864869
0.849079
0.826589
0.814279
0.826995
0.863303
0.935997
1.01772
1.13127
1.27065
1.38896
1.50034
1.54844
1.55254
1.59257
1.64295
1.68846
1.77457
1.86143
1.89569
1.9467
2.04576
2.13143
2.18112
2.23097
2.29726
2.35471
2.3445
2.30047
2.29777
2.3022
2.29809
2.31514
2.34847
2.36129
2.35819
2.34729
2.34011
2.34516
2.32074
1.38992
2.3527
3.1398
3.57419
3.66982
3.75479
3.96603
4.67342
6.5672
8.93815
9.91834
9.61195
8.80958
8.06488
7.55222
7.12233
6.6548
6.15041
5.65209
5.20574
4.82832
4.50939
4.22809
3.96476
3.70943
3.47172
3.25077
3.02631
2.82493
2.6669
2.53502
2.40233
2.25945
2.12318
2.01541
1.9211
1.82493
1.73265
1.64786
1.57264
1.5024
1.43747
1.38559
1.33827
1.29268
1.24478
1.18909
1.13093
1.0804
1.05024
1.0307
1.00591
0.973812
0.941815
0.91513
0.89028
0.883275
0.882321
0.907384
0.992065
1.13007
1.30628
1.4514
1.5618
1.60888
1.65641
1.69468
1.69395
1.66827
1.61359
1.57826
1.55439
1.52209
1.4902
1.46765
1.43342
1.40673
1.41582
1.44903
1.4907
1.54393
1.62506
1.72476
1.80342
1.8309
1.86859
1.93922
2.00751
2.06957
2.17875
2.25621
2.2791
2.27645
2.27323
2.29552
2.30495
2.57996
3.52792
3.61062
3.62563
3.67247
3.73744
3.76211
3.77451
4.02417
5.35116
7.59996
8.35404
8.22967
7.91074
7.47664
6.99168
6.45593
5.92642
5.45757
5.06012
4.714
4.40498
4.12763
3.87526
3.64296
3.41805
3.18533
2.95933
2.765
2.60324
2.47007
2.34839
2.2248
2.09258
1.97086
1.88318
1.80365
1.72391
1.64697
1.57705
1.50936
1.43489
1.37207
1.33281
1.29452
1.25089
1.19767
1.14262
1.09245
1.05761
1.03889
1.01526
0.98745
0.968242
0.955445
0.976561
1.04623
1.18432
1.37678
1.57263
1.72327
1.85731
1.85112
1.8447
1.83238
1.81902
1.79675
1.7592
1.71405
1.66363
1.60994
1.55835
1.50225
1.45361
1.41733
1.3829
1.33726
1.29145
1.26412
1.24766
1.23509
1.2312
1.24074
1.24579
1.25033
1.25764
1.2886
1.35545
1.43318
1.53393
1.6646
1.76565
1.86812
1.91353
1.95948
2.03687
3.48527
3.77546
3.79474
3.75047
3.73599
3.73368
3.71906
3.67371
3.53819
3.54484
4.16209
5.70858
7.23554
7.45631
7.23332
6.66603
6.08038
5.60846
5.24799
4.93572
4.62614
4.31868
4.0274
3.75698
3.51297
3.28876
3.06881
2.86755
2.71371
2.5947
2.47589
2.34115
2.19977
2.06202
1.93192
1.85198
1.80843
1.75636
1.69257
1.63296
1.57186
1.49088
1.38727
1.34128
1.32598
1.29629
1.24199
1.18111
1.11454
1.07604
1.06831
1.06317
1.08506
1.17104
1.32067
1.51755
1.73171
1.91181
1.99605
2.05491
2.06498
2.04665
1.98498
1.9181
1.88888
1.85084
1.79519
1.74576
1.70423
1.65564
1.5957
1.5369
1.48588
1.44914
1.41997
1.38516
1.33276
1.28213
1.25224
1.23242
1.21726
1.20347
1.19009
1.1717
1.13663
1.08911
1.07823
1.08029
1.08978
1.11056
1.15375
1.21111
1.27472
1.34951
1.41034
1.57216
3.6088
3.64967
3.68757
3.71703
3.74295
3.72963
3.6778
3.58465
3.40992
3.22461
3.02319
3.22851
4.26957
5.60983
6.14297
6.037
5.74563
5.3595
5.02165
4.73126
4.45132
4.1621
3.87121
3.59059
3.3389
3.13015
2.96741
2.82957
2.6788
2.5232
2.39395
2.27752
2.16569
2.04521
1.92708
1.84961
1.78165
1.70645
1.63653
1.58687
1.54538
1.49203
1.41113
1.33895
1.3127
1.28756
1.25416
1.20892
1.15183
1.15133
1.19293
1.32902
1.58766
1.85613
2.07023
2.2682
2.3329
2.30845
2.27237
2.24789
2.21605
2.1576
2.06496
1.97435
1.92871
1.88851
1.84045
1.79716
1.75305
1.69615
1.62057
1.53515
1.48801
1.47052
1.45133
1.41686
1.35833
1.30386
1.27233
1.25092
1.23262
1.21115
1.18752
1.16252
1.12327
1.07362
1.05332
1.05153
1.05195
1.0561
1.05624
1.05419
1.05061
1.03895
1.03182
1.07323
3.7776
3.73843
3.7284
3.73634
3.74233
3.71375
3.61863
3.45863
3.25303
2.99051
2.76203
2.50281
2.5443
3.00707
3.95381
5.02961
5.3161
5.17201
4.82649
4.4703
4.14768
3.87305
3.64915
3.4489
3.25396
3.06823
2.89915
2.74002
2.57611
2.4198
2.30787
2.22354
2.14098
2.04045
1.92636
1.84991
1.78495
1.71626
1.64678
1.59677
1.56053
1.50958
1.43931
1.3635
1.33222
1.31427
1.29516
1.3163
1.39553
1.6231
1.91764
2.24834
2.45865
2.52412
2.57005
2.55926
2.5065
2.41607
2.34605
2.29561
2.2234
2.12552
2.01625
1.93157
1.87876
1.83078
1.78693
1.75077
1.71129
1.65788
1.59095
1.52199
1.4737
1.43985
1.41617
1.38765
1.33575
1.28524
1.2555
1.22963
1.20672
1.18684
1.17201
1.15375
1.11848
1.06757
1.05074
1.04839
1.04746
1.04778
1.04382
1.03697
1.02778
1.01061
0.981227
0.957619
3.71814
3.70468
3.70242
3.70532
3.70364
3.63736
3.4734
3.26066
3.02538
2.69297
2.5007
2.30902
2.10687
1.96656
2.11747
2.81489
3.86165
4.48152
4.43218
4.19464
3.88349
3.63474
3.44307
3.27425
3.10356
2.93454
2.78275
2.6515
2.52603
2.39238
2.26768
2.18971
2.12967
2.05104
1.9481
1.87073
1.81093
1.75122
1.67964
1.62779
1.59634
1.54823
1.49094
1.42259
1.41766
1.47212
1.6487
1.95509
2.34294
2.6294
2.84187
2.93378
2.87952
2.82697
2.77823
2.70959
2.62879
2.53996
2.45389
2.3452
2.22478
2.10294
1.9944
1.9286
1.87618
1.82609
1.78303
1.74706
1.70941
1.65843
1.59439
1.52843
1.48254
1.44603
1.41194
1.38296
1.3395
1.29054
1.26255
1.23701
1.20859
1.18364
1.16689
1.15157
1.12116
1.07122
1.05159
1.04797
1.04702
1.0448
1.03789
1.02749
1.01643
0.99713
0.973325
0.947593
3.69866
3.69973
3.70511
3.70088
3.65808
3.50577
3.26669
3.01548
2.7081
2.44396
2.24529
2.05518
1.84753
1.70624
1.56807
1.61969
2.03835
2.83416
3.63425
3.83517
3.74165
3.52959
3.30408
3.11792
2.94873
2.81688
2.71545
2.61214
2.50105
2.38743
2.27133
2.19231
2.14647
2.08219
1.98992
1.91585
1.86951
1.81991
1.73948
1.68273
1.66079
1.62781
1.6461
1.7328
1.97883
2.32736
2.70953
3.05399
3.22195
3.17105
3.13372
3.06729
2.96647
2.86889
2.76375
2.64879
2.53908
2.4466
2.37206
2.30816
2.23085
2.13787
2.04572
1.96213
1.88895
1.83467
1.79238
1.75194
1.71481
1.67398
1.6204
1.56054
1.51461
1.47307
1.42421
1.37947
1.33806
1.31298
1.29478
1.27156
1.2352
1.1971
1.16709
1.14434
1.11226
1.07528
1.06177
1.05759
1.05409
1.04851
1.04012
1.02571
1.00495
0.979102
0.960291
0.943134
3.72699
3.73202
3.72459
3.68681
3.5451
3.2867
2.98607
2.69823
2.38552
2.14896
1.95993
1.77744
1.62333
1.48203
1.37162
1.27244
1.27299
1.45521
2.05518
2.86868
3.29266
3.30903
3.21837
3.05059
2.88754
2.77731
2.69057
2.59444
2.5081
2.42145
2.32764
2.2362
2.18948
2.14505
2.0748
2.00648
1.96347
1.92239
1.84522
1.80741
1.84601
2.03482
2.37138
2.82933
3.21262
3.43583
3.62493
3.60453
3.51722
3.41541
3.31609
3.17338
3.01889
2.87808
2.74715
2.61896
2.50145
2.41072
2.34942
2.3013
2.24228
2.16843
2.08331
1.99074
1.90516
1.84975
1.81344
1.77504
1.73099
1.68994
1.65032
1.5973
1.53686
1.49043
1.44266
1.39371
1.35428
1.31948
1.29251
1.27613
1.25766
1.22468
1.18067
1.14196
1.11456
1.08761
1.0777
1.07214
1.06467
1.0558
1.04438
1.02576
1.00027
0.97901
0.962589
0.941635
3.73735
3.73281
3.70024
3.55532
3.29455
2.97092
2.63478
2.31269
2.05494
1.87066
1.67568
1.48347
1.37984
1.28683
1.20444
1.13563
1.07483
1.07949
1.16574
1.62819
2.29673
2.85961
3.10215
3.08234
3.00252
2.8722
2.74869
2.62861
2.56205
2.52069
2.46362
2.36601
2.28215
2.25043
2.20007
2.14714
2.0993
2.08449
2.1447
2.38728
2.80202
3.28303
3.65445
3.9538
3.92045
3.84992
3.75876
3.63377
3.46496
3.32003
3.21419
3.13038
3.02358
2.89629
2.76077
2.62861
2.51003
2.41806
2.35854
2.31352
2.26345
2.19348
2.1086
2.01417
1.92566
1.87059
1.8364
1.80476
1.76516
1.71156
1.6588
1.60681
1.5433
1.49693
1.4699
1.43843
1.38935
1.34419
1.31725
1.29174
1.25771
1.21685
1.16567
1.12771
1.11621
1.11575
1.11538
1.10742
1.09611
1.0838
1.06908
1.04462
1.00719
0.988491
0.979246
0.953924
3.73355
3.70837
3.58426
3.30248
2.93149
2.58159
2.23969
1.94724
1.75449
1.55881
1.35612
1.25533
1.19311
1.0904
1.02396
1.00029
0.967131
0.947313
0.949341
1.01158
1.31521
1.92887
2.73506
2.98364
3.02271
3.01052
2.92239
2.78202
2.66445
2.62566
2.5958
2.53776
2.43367
2.36773
2.3366
2.33993
2.43779
2.76183
3.30607
3.85693
4.1714
4.4249
4.44399
4.39789
4.26247
4.0648
3.79439
3.561
3.39035
3.27485
3.17642
3.09167
3.00926
2.89411
2.75927
2.64032
2.53968
2.46074
2.40196
2.3448
2.29749
2.24005
2.15074
2.04923
1.96729
1.91099
1.86288
1.81623
1.7786
1.74529
1.68727
1.61054
1.55581
1.51894
1.48372
1.44162
1.3901
1.36922
1.35324
1.32244
1.28075
1.2238
1.15898
1.13231
1.12253
1.11248
1.10565
1.09788
1.08792
1.07434
1.04989
1.01333
0.978842
0.966456
0.962896
0.961047
3.72985
3.61357
3.33482
2.90442
2.49038
2.15877
1.81659
1.59336
1.46353
1.2787
1.14259
1.10823
1.05451
0.979204
0.967838
0.968419
0.95365
0.93612
0.938871
0.946775
0.981012
1.14751
1.82044
2.54811
2.94947
3.08057
3.05302
2.98027
2.8437
2.76996
2.73389
2.68819
2.62239
2.65591
2.87028
3.26208
3.77011
4.31197
4.73588
4.77767
4.72659
4.67927
4.56284
4.3691
4.13283
3.90272
3.71499
3.59147
3.49946
3.39669
3.2814
3.14351
2.99028
2.85339
2.73594
2.65741
2.60537
2.55068
2.49135
2.42542
2.32578
2.21113
2.11716
2.04722
1.99919
1.95981
1.91568
1.86672
1.81113
1.73225
1.64082
1.58077
1.5598
1.53561
1.49682
1.45397
1.41927
1.38152
1.33889
1.29858
1.25418
1.20007
1.14932
1.13192
1.12155
1.11366
1.10872
1.10172
1.09312
1.08197
1.05058
0.993059
0.97261
0.96831
0.962842
0.946408
3.66057
3.34664
2.86931
2.35137
1.99245
1.67285
1.40366
1.26591
1.1502
0.997362
0.953061
0.954824
0.936098
0.92439
0.930201
0.9417
0.962456
0.970236
0.977918
0.99641
1.02249
1.04247
1.16423
1.65716
2.23624
2.84819
3.06797
3.03551
2.95698
2.93038
2.95533
3.06646
3.36436
3.89625
4.5769
5.01572
5.26373
5.41088
5.36317
5.239
5.05203
4.75049
4.43122
4.19156
4.00369
3.84573
3.73954
3.63682
3.50202
3.35414
3.22644
3.10462
2.97277
2.85361
2.76991
2.71059
2.63868
2.53799
2.43389
2.36118
2.2874
2.19933
2.12512
2.07947
2.04045
1.98846
1.91357
1.83235
1.77312
1.70968
1.63995
1.60271
1.57989
1.54963
1.51197
1.47221
1.43174
1.38879
1.34835
1.30785
1.25763
1.20031
1.16177
1.14779
1.13839
1.13082
1.12442
1.11486
1.10257
1.08404
1.04692
0.997156
0.982456
0.976245
0.966382
0.946658
3.37377
2.77479
2.1157
1.7467
1.52134
1.24627
1.10561
1.05861
0.988626
0.932917
0.925906
0.935981
0.933794
0.93602
0.950738
0.979686
1.00195
1.00585
1.01628
1.0387
1.04516
1.03959
1.04171
1.10065
1.34595
1.90916
2.63877
2.81435
3.08262
3.51769
3.96088
4.49103
4.92769
5.38343
5.53658
5.61986
5.67567
5.5393
5.29931
5.08172
4.85218
4.6092
4.37656
4.18275
4.04406
3.94541
3.84472
3.71894
3.57216
3.40249
3.21614
3.08799
3.01078
2.94654
2.88851
2.82149
2.73018
2.60322
2.44719
2.32363
2.26434
2.22738
2.19389
2.15773
2.11318
2.05423
1.96727
1.85233
1.75041
1.70118
1.67545
1.6522
1.62363
1.59022
1.55223
1.51038
1.46534
1.42243
1.38125
1.33634
1.28303
1.22932
1.20223
1.19108
1.18095
1.16993
1.15725
1.14261
1.12556
1.10145
1.0609
1.02126
1.00778
0.998021
0.984836
0.964783
2.66362
1.67197
1.10288
0.884572
0.714554
0.633659
0.653459