/*--------------------------------*- C++ -*----------------------------------*\
  =========                 |
  \\      /  F ield         | OpenFOAM: The Open Source CFD Toolbox
   \\    /   O peration     | Website:  https://openfoam.org
    \\  /    A nd           | Version:  7
     \\/     M anipulation  |
\*---------------------------------------------------------------------------*/
FoamFile
{
    version     2.0;
    format      ascii;
    class       volScalarField;
    location    "0.8";
    object      rho;
}
// * * * * * * * * * * * * * * * * * * * * * * * * * * * * * * * * * * * * * //

dimensions      [1 -3 0 0 0 0 0];

internalField   nonuniform List<scalar> 
4608
(
1.40001
1.40001
1.40001
1.40001
1.40001
1.40001
1.40001
1.40001
1.40001
1.40001
1.40001
1.40001
1.40001
1.40001
1.40001
1.40001
1.40001
1.40001
1.40001
1.40001
1.40001
1.40001
1.40001
1.40001
1.40001
1.40001
1.40001
1.40001
1.40001
1.40001
1.40001
1.40001
1.40001
1.40001
1.40001
1.40001
1.40001
1.40001
1.40001
1.40001
1.40001
1.40001
1.40001
1.40001
1.40001
1.40001
1.40001
1.40001
1.40001
1.40001
1.40001
1.40001
1.40001
1.40001
1.40001
1.40001
1.40001
1.40001
1.40001
1.40001
1.40001
1.40001
1.40001
1.40001
1.40001
1.40001
1.40001
1.40001
1.40001
1.40001
1.40001
1.40001
1.40001
1.40001
1.40001
1.40001
1.40001
1.40001
1.40001
1.40001
1.40001
1.40001
1.40001
1.40001
1.40001
1.40001
1.40001
1.40001
1.40001
1.40001
1.40001
1.40001
1.40001
1.40001
1.40001
1.40001
1.40001
1.40001
1.40001
1.40001
1.40001
1.40001
1.40001
1.40001
1.40001
1.40001
1.40001
1.40001
1.40001
1.40001
1.40001
1.40001
1.40001
1.40001
1.40001
1.40001
1.40001
1.40001
1.40001
1.40001
1.40001
1.40001
1.40001
1.40001
1.40001
1.40001
1.40001
1.40001
1.40001
1.40001
1.40001
1.40001
1.40001
1.40001
1.40001
1.40001
1.40001
1.40001
1.40001
1.40001
1.40001
1.40001
1.40001
1.40001
1.40001
1.40001
1.40001
1.40001
1.40001
1.40001
1.40001
1.40001
1.40001
1.40001
1.40001
1.40001
1.40001
1.40001
1.40001
1.40001
1.40001
1.40001
1.40001
1.40001
1.40001
1.40001
1.40001
1.40001
1.40001
1.40001
1.40001
1.40001
1.40001
1.40001
1.40001
1.40001
1.40001
1.40001
1.40001
1.40001
1.40001
1.40001
1.40001
1.40001
1.40001
1.40001
1.40001
1.40001
1.40001
1.40001
1.40001
1.40001
1.40001
1.40001
1.40001
1.40001
1.40001
1.40001
1.40001
1.40001
1.40001
1.40001
1.40001
1.40001
1.40001
1.40001
1.40001
1.40001
1.40001
1.40001
1.40001
1.40001
1.40001
1.40001
1.40001
1.40001
1.40001
1.40001
1.40001
1.40001
1.40001
1.40001
1.40001
1.40001
1.40001
1.40001
1.40001
1.40001
1.40001
1.40001
1.40001
1.40001
1.40001
1.40001
1.40001
1.40001
1.40001
1.40001
1.40001
1.40001
1.40001
1.40001
1.40001
1.40001
1.40001
1.40001
1.40001
1.40001
1.40001
1.40001
1.40001
1.40001
1.40001
1.40001
1.40001
1.40001
1.40001
1.40001
1.40001
1.40001
1.40001
1.40001
1.40001
1.40001
1.40001
1.40001
1.40001
1.40001
1.40001
1.40001
1.40001
1.40001
1.40001
1.40001
1.40001
1.40001
1.40001
1.40001
1.40001
1.40001
1.40001
1.40001
1.40001
1.40001
1.40001
1.40001
1.40001
1.40001
1.40001
1.40001
1.40001
1.40001
1.40001
1.40001
1.40001
1.40001
1.40001
1.40001
1.40001
1.40001
1.40001
1.40001
1.40001
1.40001
1.40001
1.40001
1.40001
1.40001
1.40001
1.40001
1.40001
1.40001
1.40001
1.40001
1.40001
1.40001
1.40001
1.40001
1.40001
1.40001
1.40001
1.40001
1.40001
1.40001
1.40001
1.40001
1.40001
1.40001
1.40001
1.40001
1.40001
1.40001
1.40001
1.40001
1.40001
1.40001
1.40001
1.40001
1.40001
1.40001
1.40001
1.40001
1.40001
1.40001
1.40001
1.40001
1.40001
1.40001
1.40001
1.40001
1.40001
1.40001
1.40001
1.40001
1.40001
1.40001
1.40001
1.40001
1.40001
1.40001
1.40001
1.40001
1.40001
1.40001
1.40001
1.40001
1.40001
1.40001
1.40001
1.40001
1.40001
1.40001
1.40001
1.40001
1.40001
1.40001
1.40001
1.40001
1.40001
1.40001
1.40001
1.40001
1.40001
1.40001
1.40001
1.40001
1.40001
1.40001
1.40001
1.40001
1.40001
1.40001
1.40001
1.40001
1.40001
1.40001
1.40001
1.40001
1.40001
1.40001
1.40001
1.40001
1.40001
1.40001
1.40001
1.40001
1.40001
1.40001
1.40001
1.40001
1.40001
1.40001
1.40001
1.40001
1.40001
1.40001
1.40001
1.40001
1.40001
1.40001
1.40001
1.40001
1.40001
1.40001
1.40001
1.40001
1.40001
1.40001
1.40001
1.40001
1.40001
1.40001
1.40001
1.40001
1.40001
1.40001
1.40001
1.40001
1.40001
1.40001
1.40001
1.40001
1.40001
1.40001
1.40001
1.40001
1.40001
1.40001
1.40001
1.40001
1.40001
1.40001
1.40001
1.40001
1.40001
1.40001
1.40001
1.40001
1.40001
1.40001
1.40001
1.40001
1.40001
1.40001
1.40001
1.40001
1.40001
1.40001
1.40001
1.40001
1.40001
1.40001
1.40001
1.40001
1.40001
1.40001
1.40001
1.40001
1.40001
1.40001
1.40001
1.40001
1.40001
1.40001
1.40001
1.40001
1.40001
1.40001
1.40001
1.40001
1.40001
1.40001
1.40001
1.40001
1.40001
1.40001
1.40001
1.40001
1.40001
1.40001
1.40001
1.40001
1.40001
1.40001
1.40001
1.40001
1.40001
1.40001
1.40001
1.40001
1.40001
1.40001
1.40001
1.40001
1.40001
1.40001
1.40001
1.40001
1.40001
1.40001
1.40001
1.40001
1.40001
1.40001
1.40001
1.40001
1.40001
1.40001
1.40001
1.40001
1.40001
1.40001
1.40001
1.40001
1.40001
1.40001
1.40001
1.40001
1.40001
1.40001
1.40001
1.40001
1.40001
1.40001
1.40001
1.40001
1.40001
1.40001
1.40001
1.40001
1.40001
1.40001
1.40001
1.40001
1.40001
1.40001
1.40001
1.40001
1.40001
1.40001
1.40001
1.40001
1.40001
1.40001
1.40001
1.40001
1.40001
1.40001
1.40001
1.40001
1.40001
1.40001
1.40001
1.40001
1.40001
1.40001
1.40001
1.40001
1.40001
1.40001
1.40001
1.40001
1.40001
1.40001
1.40001
1.40001
1.40001
1.40001
1.40001
1.40001
1.40001
1.40001
1.40001
1.40001
1.40001
1.40001
1.40001
1.40001
1.40001
1.40001
1.40001
1.40001
1.40001
1.40001
1.40001
1.40001
1.40001
1.40001
1.40001
1.40001
1.40001
1.40001
1.40001
1.40001
1.40001
1.40001
1.40001
1.40001
1.40001
1.40001
1.40001
1.40001
1.40001
1.40001
1.40001
1.40001
1.40001
1.40001
1.40001
1.40001
1.40001
1.40001
1.40001
1.40001
1.40001
1.40001
1.40001
1.40001
1.40001
1.40001
1.40001
1.40001
1.40001
1.40001
1.40001
1.40001
1.40001
1.40001
1.40001
1.40001
1.40001
1.40001
1.40001
1.40001
1.40001
1.40001
1.40001
1.40001
1.40001
1.40001
1.40001
1.40001
1.40001
1.40001
1.40001
1.40001
1.40001
1.40001
1.40001
1.40001
1.40001
1.40001
1.40001
1.40001
1.40001
1.40001
1.40001
1.40001
1.40001
1.40001
1.40001
1.40001
1.40001
1.40001
1.40001
1.40001
1.40001
1.40001
1.40001
1.40001
1.40001
1.40001
1.40001
1.40001
1.40001
1.40001
1.40001
1.40001
1.40001
1.40001
1.40001
1.40001
1.40001
1.40001
1.40001
1.40001
1.40001
1.40001
1.40001
1.40001
1.40001
1.40001
1.40001
1.40001
1.40001
1.40001
1.40001
1.40001
1.40001
1.40001
1.40001
1.40001
1.40001
1.40001
1.40001
1.40001
1.40001
1.40001
1.40001
1.40001
1.40001
1.40001
1.40001
1.40001
1.40001
1.40001
1.40001
1.40001
1.40001
1.40001
1.40001
1.40001
1.40001
1.40001
1.40001
1.40001
1.40001
1.40001
1.40001
1.40001
1.40001
1.40001
1.40001
1.40001
1.40001
1.40001
1.40001
1.40001
1.40001
1.40001
1.40001
1.40001
1.40001
1.40001
1.40001
1.40001
1.40001
1.40001
1.67837
2.08847
2.52198
3.01088
3.42363
3.81783
4.14094
4.41314
4.42727
4.2998
4.03187
3.72522
3.46406
3.35804
3.29935
3.31075
3.33746
3.35782
3.37691
3.39169
3.40471
3.42243
3.42816
3.42785
1.4018
1.41931
1.47808
1.5844
1.80508
2.1053
2.51651
2.9603
3.39458
3.53478
3.64719
3.62173
3.57183
3.4666
3.41709
3.4069
3.39008
3.37565
3.37224
3.37873
3.39193
3.40941
3.42125
3.42402
1.4
1.39997
1.4002
1.40011
1.40338
1.42094
1.49759
1.70639
2.19578
2.8891
3.42462
3.70911
3.76764
3.71152
3.60729
3.45994
3.36883
3.35632
3.34868
3.35009
3.35897
3.37363
3.39597
3.40841
1.4
1.4
1.4
1.4
1.39999
1.40004
1.39995
1.40166
1.42849
1.65003
2.17262
2.94183
3.41721
3.58504
3.54263
3.47455
3.41503
3.38622
3.3506
3.31753
3.31948
3.32863
3.34654
3.36555
1.40001
1.40001
1.40001
1.4
1.4
1.4
1.4
1.4
1.39991
1.40163
1.43209
1.69737
2.28341
3.07118
3.41757
3.51034
3.48183
3.45244
3.37236
3.30764
3.30029
3.30503
3.31592
3.32744
1.40001
1.40001
1.40001
1.40001
1.40001
1.4
1.4
1.4
1.39999
1.39999
1.39993
1.40323
1.46433
1.79737
2.50389
3.1632
3.45008
3.44194
3.40734
3.35785
3.32639
3.31728
3.30418
3.30379
1.40001
1.40001
1.40001
1.40001
1.40001
1.40001
1.40001
1.40001
1.4
1.4
1.39999
1.39999
1.40004
1.40804
1.54958
2.01481
2.7614
3.22376
3.41857
3.40886
3.37125
3.3345
3.31084
3.29053
1.40001
1.40001
1.40001
1.40001
1.40001
1.40001
1.40001
1.40001
1.40001
1.40001
1.4
1.4
1.4
1.39998
1.40135
1.42766
1.70513
2.32585
3.0849
3.27668
3.31634
3.31313
3.3057
3.28281
1.40001
1.40001
1.40001
1.40001
1.40001
1.40001
1.40001
1.40001
1.40001
1.40001
1.40001
1.40001
1.4
1.4
1.4
1.39999
1.40876
1.50128
1.99685
2.72624
3.23378
3.3497
3.34004
3.32027
1.40001
1.40001
1.40001
1.40001
1.40001
1.40001
1.40001
1.40001
1.40001
1.40001
1.40001
1.40001
1.40001
1.4
1.4
1.4
1.39999
1.4009
1.44461
1.72911
2.4704
3.01671
3.32777
3.35769
1.40001
1.40001
1.40001
1.40001
1.40001
1.40001
1.40001
1.40001
1.40001
1.40001
1.40001
1.40001
1.40001
1.40001
1.40001
1.4
1.4
1.4
1.4003
1.41237
1.59707
2.17798
2.99359
3.26089
1.40001
1.40001
1.40001
1.40001
1.40001
1.40001
1.40001
1.40001
1.40001
1.40001
1.40001
1.40001
1.40001
1.40001
1.40001
1.40001
1.4
1.4
1.4
1.40002
1.40593
1.50554
1.99451
2.72718
1.40001
1.40001
1.40001
1.40001
1.40001
1.40001
1.40001
1.40001
1.40001
1.40001
1.40001
1.40001
1.40001
1.40001
1.40001
1.40001
1.40001
1.4
1.4
1.4
1.40001
1.40224
1.45482
1.83806
1.40001
1.40001
1.40001
1.40001
1.40001
1.40001
1.40001
1.40001
1.40001
1.40001
1.40001
1.40001
1.40001
1.40001
1.40001
1.40001
1.40001
1.40001
1.40001
1.4
1.4
1.4
1.40085
1.43355
1.40001
1.40001
1.40001
1.40001
1.40001
1.40001
1.40001
1.40001
1.40001
1.40001
1.40001
1.40001
1.40001
1.40001
1.40001
1.40001
1.40001
1.40001
1.40001
1.40001
1.4
1.4
1.40001
1.40012
1.40001
1.40001
1.40001
1.40001
1.40001
1.40001
1.40001
1.40001
1.40001
1.40001
1.40001
1.40001
1.40001
1.40001
1.40001
1.40001
1.40001
1.40001
1.40001
1.40001
1.40001
1.4
1.4
1.4
1.40001
1.40001
1.40001
1.40001
1.40001
1.40001
1.40001
1.40001
1.40001
1.40001
1.40001
1.40001
1.40001
1.40001
1.40001
1.40001
1.40001
1.40001
1.40001
1.40001
1.40001
1.4
1.4
1.4
1.40001
1.40001
1.40001
1.40001
1.40001
1.40001
1.40001
1.40001
1.40001
1.40001
1.40001
1.40001
1.40001
1.40001
1.40001
1.40001
1.40001
1.40001
1.40001
1.40001
1.4
1.4
1.40001
1.40012
1.40001
1.40001
1.40001
1.40001
1.40001
1.40001
1.40001
1.40001
1.40001
1.40001
1.40001
1.40001
1.40001
1.40001
1.40001
1.40001
1.40001
1.40001
1.40001
1.4
1.4
1.4
1.40085
1.43355
1.40001
1.40001
1.40001
1.40001
1.40001
1.40001
1.40001
1.40001
1.40001
1.40001
1.40001
1.40001
1.40001
1.40001
1.40001
1.40001
1.40001
1.4
1.4
1.4
1.40001
1.40224
1.45482
1.83806
1.40001
1.40001
1.40001
1.40001
1.40001
1.40001
1.40001
1.40001
1.40001
1.40001
1.40001
1.40001
1.40001
1.40001
1.40001
1.40001
1.4
1.4
1.4
1.40002
1.40593
1.50554
1.99451
2.72718
1.40001
1.40001
1.40001
1.40001
1.40001
1.40001
1.40001
1.40001
1.40001
1.40001
1.40001
1.40001
1.40001
1.40001
1.40001
1.4
1.4
1.4
1.4003
1.41237
1.59707
2.17798
2.99359
3.26089
1.40001
1.40001
1.40001
1.40001
1.40001
1.40001
1.40001
1.40001
1.40001
1.40001
1.40001
1.40001
1.40001
1.4
1.4
1.4
1.39999
1.4009
1.44461
1.72911
2.4704
3.01671
3.32777
3.35769
1.40001
1.40001
1.40001
1.40001
1.40001
1.40001
1.40001
1.40001
1.40001
1.40001
1.40001
1.40001
1.4
1.4
1.4
1.39999
1.40876
1.50128
1.99685
2.72624
3.23378
3.3497
3.34004
3.32027
1.40001
1.40001
1.40001
1.40001
1.40001
1.40001
1.40001
1.40001
1.40001
1.40001
1.4
1.4
1.4
1.39998
1.40135
1.42766
1.70513
2.32585
3.0849
3.27668
3.31634
3.31313
3.3057
3.28281
1.40001
1.40001
1.40001
1.40001
1.40001
1.40001
1.40001
1.40001
1.4
1.4
1.39999
1.39999
1.40004
1.40804
1.54958
2.01481
2.7614
3.22376
3.41857
3.40886
3.37125
3.3345
3.31084
3.29053
1.40001
1.40001
1.40001
1.40001
1.40001
1.4
1.4
1.4
1.39999
1.39999
1.39993
1.40323
1.46433
1.79737
2.50389
3.1632
3.45008
3.44194
3.40734
3.35785
3.32639
3.31728
3.30418
3.30379
1.40001
1.40001
1.40001
1.4
1.4
1.4
1.4
1.4
1.39991
1.40163
1.43209
1.69737
2.28341
3.07118
3.41757
3.51034
3.48183
3.45244
3.37236
3.30764
3.30029
3.30503
3.31592
3.32744
1.4
1.4
1.4
1.4
1.39999
1.40004
1.39995
1.40166
1.42849
1.65003
2.17262
2.94183
3.41721
3.58504
3.54263
3.47455
3.41503
3.38622
3.3506
3.31753
3.31948
3.32863
3.34654
3.36555
1.4
1.39997
1.4002
1.40011
1.40338
1.42094
1.49759
1.70639
2.19578
2.8891
3.42462
3.70911
3.76764
3.71152
3.60729
3.45994
3.36883
3.35632
3.34868
3.35009
3.35897
3.37363
3.39597
3.40841
1.4018
1.41931
1.47808
1.5844
1.80508
2.1053
2.51651
2.9603
3.39458
3.53478
3.64719
3.62173
3.57183
3.4666
3.41709
3.4069
3.39008
3.37565
3.37224
3.37873
3.39193
3.40941
3.42125
3.42402
1.67837
2.08847
2.52198
3.01088
3.42363
3.81783
4.14094
4.41314
4.42727
4.2998
4.03187
3.72522
3.46406
3.35804
3.29935
3.31075
3.33746
3.35782
3.37691
3.39169
3.40471
3.42243
3.42816
3.42785
2.66834
1.90616
1.41378
1.19254
1.00282
0.908854
0.926635
0.991574
1.05234
1.09441
1.15844
1.24771
1.28027
1.28216
1.29889
1.32909
1.33143
1.32792
1.33547
1.35359
1.35371
1.34905
1.34116
1.32976
1.34108
1.44608
1.90429
2.64955
3.30118
3.92427
4.51329
4.88768
5.02685
5.00609
4.85328
4.59408
4.35958
4.15867
4.00901
3.87114
3.73856
3.61325
3.49742
3.3929
3.3084
3.25136
3.18918
3.11385
3.03033
2.92539
2.79795
2.71101
2.66841
2.6359
2.60108
2.55964
2.50375
2.421
2.30646
2.21199
2.17202
2.14903
2.12836
2.10386
2.07503
2.03891
1.9822
1.89348
1.80467
1.7653
1.75105
1.73827
1.72184
1.70088
1.67235
1.63489
1.59574
1.56219
1.53081
1.49595
1.45018
1.40586
1.3924
1.38766
1.38193
1.37435
1.36667
1.35833
1.34641
1.32253
1.27691
1.24895
1.24372
1.23785
1.22665
1.20761
3.15838
2.74388
2.26423
1.97593
1.78324
1.54446
1.41712
1.37052
1.30524
1.24045
1.22858
1.23494
1.23199
1.23415
1.24919
1.27769
1.29742
1.29973
1.30867
1.32952
1.33544
1.33063
1.33186
1.38095
1.5776
2.00289
2.49957
2.61949
2.79541
3.06821
3.33758
3.64877
3.89923
4.15348
4.22653
4.26447
4.28407
4.20797
4.07312
3.95022
3.82034
3.68188
3.54742
3.43237
3.34736
3.28613
3.22541
3.15037
3.06222
2.95872
2.84214
2.76045
2.71133
2.67079
2.63325
2.58851
2.52659
2.44064
2.3357
2.25224
2.21216
2.187
2.16378
2.13798
2.10583
2.06326
2.00051
1.91704
1.84156
1.80478
1.78613
1.76985
1.74966
1.72549
1.69689
1.66371
1.62655
1.59105
1.55789
1.52268
1.48113
1.43942
1.4195
1.41191
1.40488
1.39742
1.38935
1.38057
1.37016
1.35289
1.31879
1.28277
1.26988
1.26051
1.24839
1.23176
3.34141
3.13686
2.8117
2.4381
2.16462
1.91362
1.68953
1.5674
1.46259
1.31737
1.27424
1.27594
1.25876
1.24557
1.25076
1.26063
1.27943
1.28611
1.29296
1.31
1.33449
1.35203
1.454
1.8334
2.2542
2.6635
2.80036
2.77869
2.73017
2.71236
2.72733
2.79564
2.9788
3.29577
3.67755
3.9127
4.04906
4.12871
4.1013
4.03128
3.92706
3.75848
3.57575
3.43629
3.32293
3.22585
3.16032
3.09818
3.01613
2.9252
2.84575
2.76926
2.6854
2.60844
2.5536
2.51374
2.46438
2.39515
2.32456
2.27621
2.22704
2.16675
2.11435
2.08134
2.05279
2.01481
1.96028
1.90136
1.85832
1.81128
1.75914
1.73214
1.71604
1.69403
1.66566
1.63424
1.60103
1.56579
1.53319
1.50109
1.46138
1.41583
1.3855
1.3752
1.36868
1.36428
1.36161
1.35694
1.35025
1.33758
1.30668
1.26155
1.24717
1.24096
1.23169
1.21483
3.36316
3.29445
3.11655
2.82646
2.53309
2.29033
2.02719
1.84463
1.73796
1.58071
1.46024
1.42921
1.37988
1.30734
1.29388
1.29351
1.27853
1.26072
1.26325
1.27083
1.30232
1.44609
1.96703
2.4714
2.73387
2.81358
2.79398
2.74364
2.65126
2.60073
2.57541
2.54336
2.49643
2.51608
2.64593
2.87853
3.18273
3.5021
3.737
3.76419
3.73604
3.7106
3.64594
3.53456
3.39475
3.25564
3.14049
3.06543
3.00988
2.94723
2.87628
2.7905
2.69321
2.60469
2.52794
2.47538
2.43956
2.40191
2.36172
2.31811
2.25169
2.17313
2.10694
2.05658
2.02126
1.99234
1.96059
1.9259
1.8864
1.82848
1.75993
1.71532
1.70061
1.68333
1.65456
1.62159
1.59371
1.56286
1.52805
1.49551
1.46007
1.41653
1.37539
1.3623
1.35506
1.35065
1.3493
1.34646
1.3423
1.33557
1.31011
1.25843
1.23839
1.23378
1.22844
1.21391
3.3407
3.32998
3.25676
3.07772
2.83079
2.59012
2.34387
2.12069
1.97034
1.81584
1.6478
1.5587
1.50205
1.4074
1.34485
1.32222
1.29021
1.27079
1.27248
1.32732
1.57695
2.04733
2.59584
2.74779
2.76828
2.75856
2.69799
2.60314
2.52344
2.49614
2.4745
2.4331
2.36032
2.31473
2.29551
2.29474
2.35693
2.56226
2.89322
3.21842
3.40255
3.54753
3.56603
3.53987
3.46065
3.34371
3.18261
3.04228
2.93905
2.8685
2.80715
2.75351
2.70127
2.62842
2.54158
2.46285
2.39486
2.34094
2.30067
2.26199
2.23037
2.19158
2.12986
2.05747
1.99781
1.9569
1.92249
1.88921
1.86233
1.83828
1.79551
1.73841
1.69789
1.67106
1.64532
1.61351
1.57252
1.55433
1.54044
1.51516
1.48211
1.43672
1.38415
1.36407
1.35761
1.3511
1.34776
1.3438
1.33801
1.32868
1.30883
1.27643
1.24424
1.23179
1.22819
1.22696
3.31774
3.31997
3.30512
3.21928
3.05566
2.84479
2.6161
2.38641
2.19749
2.05978
1.90631
1.74672
1.65872
1.57901
1.50511
1.4425
1.38712
1.39039
1.46107
1.82065
2.29862
2.67301
2.81482
2.79912
2.74295
2.65574
2.57395
2.494
2.44913
2.42035
2.38018
2.31148
2.25253
2.23091
2.19637
2.15996
2.1275
2.11606
2.15547
2.31023
2.57264
2.87318
3.10128
3.27762
3.25728
3.2161
3.16276
3.08823
2.9862
2.89711
2.8306
2.77715
2.7093
2.62882
2.54225
2.45602
2.3765
2.31339
2.27224
2.24114
2.207
2.15952
2.10079
2.03365
1.96964
1.92972
1.9051
1.88229
1.85346
1.81409
1.77545
1.73732
1.68987
1.65552
1.63564
1.61152
1.57242
1.53526
1.51285
1.49215
1.46509
1.43293
1.39197
1.36181
1.35412
1.35514
1.35649
1.35213
1.34491
1.3363
1.32481
1.30388
1.26986
1.25191
1.243
1.21971
3.29591
3.30213
3.29979
3.28108
3.19754
3.0369
2.84211
2.6487
2.4305
2.26111
2.11996
1.97725
1.85184
1.73671
1.64212
1.55975
1.5549
1.68658
2.11594
2.65862
2.93501
2.93587
2.87658
2.76817
2.66149
2.58947
2.53281
2.46922
2.41112
2.35111
2.28528
2.22109
2.18864
2.15814
2.10924
2.06131
2.03139
2.00266
1.947
1.9175
1.9437
2.07434
2.30061
2.59543
2.83432
2.97144
3.08739
3.07552
3.02372
2.96112
2.89845
2.80782
2.70873
2.61847
2.53461
2.45142
2.37293
2.31074
2.26844
2.23556
2.19541
2.14506
2.08599
2.02024
1.9583
1.91774
1.89114
1.86316
1.83126
1.80172
1.77271
1.73318
1.68795
1.65317
1.61651
1.5781
1.54668
1.51848
1.49681
1.48412
1.46962
1.44307
1.40765
1.37674
1.35486
1.33219
1.32521
1.32231
1.31781
1.31182
1.30315
1.28711
1.26336
1.24299
1.22749
1.20848
3.27553
3.27679
3.28246
3.28034
3.25551
3.16282
3.0127
2.85076
2.64645
2.46362
2.32016
2.1784
2.01978
1.91057
1.79738
1.83333
2.12326
2.63941
3.13605
3.25661
3.19994
3.06892
2.92637
2.80721
2.6989
2.61503
2.5499
2.48164
2.4065
2.32931
2.249
2.19393
2.1625
2.11809
2.05313
2.00021
1.967
1.93114
1.87161
1.82897
1.81235
1.78724
1.80027
1.86098
2.03019
2.2688
2.52463
2.74514
2.85155
2.81892
2.79364
2.74924
2.68248
2.61824
2.55055
2.47617
2.40314
2.33995
2.28884
2.24585
2.19319
2.12892
2.06389
2.00391
1.95078
1.91135
1.88082
1.85161
1.82467
1.79448
1.75405
1.70851
1.67413
1.64322
1.60637
1.57209
1.53946
1.51917
1.50415
1.48506
1.45506
1.42346
1.39943
1.3821
1.35581
1.32401
1.31388
1.31184
1.31008
1.30627
1.2997
1.28718
1.26772
1.24249
1.22435
1.2095
3.29387
3.28383
3.28187
3.28318
3.28213
3.24099
3.13814
3.0028
2.84995
2.62514
2.49107
2.35442
2.20772
2.09916
2.19664
2.6456
3.27994
3.6323
3.60438
3.46712
3.28308
3.13244
3.01429
2.90922
2.8024
2.69595
2.59922
2.5138
2.42995
2.3387
2.252
2.19764
2.15671
2.10208
2.02858
1.97295
1.92956
1.88544
1.83122
1.79127
1.76696
1.72966
1.68477
1.63066
1.62473
1.66584
1.79815
2.0174
2.28426
2.47661
2.61728
2.67458
2.63793
2.6019
2.56972
2.52541
2.47212
2.4122
2.354
2.27999
2.19692
2.1108
2.03229
1.98456
1.94655
1.91076
1.8804
1.8546
1.82685
1.78828
1.73909
1.68823
1.65359
1.62657
1.60127
1.57965
1.54604
1.50629
1.48261
1.46071
1.43647
1.4157
1.40243
1.39101
1.3663
1.32338
1.30755
1.30538
1.30509
1.30352
1.29756
1.28899
1.27929
1.25976
1.23524
1.2124
3.34236
3.31311
3.30406
3.30689
3.30947
3.29079
3.22971
3.1271
2.99327
2.81839
2.66317
2.48354
2.50737
2.78521
3.34198
3.9436
4.10102
4.02295
3.83206
3.63172
3.44611
3.28458
3.15068
3.02909
2.90882
2.79252
2.68484
2.58144
2.47318
2.36716
2.28955
2.23063
2.17242
2.10069
2.01804
1.96294
1.91615
1.86511
1.81151
1.77183
1.74293
1.70244
1.64632
1.58474
1.55884
1.54382
1.52865
1.54495
1.60359
1.77192
1.98718
2.2227
2.36884
2.41298
2.44148
2.43317
2.3964
2.33476
2.28766
2.25411
2.20489
2.13491
2.05477
1.99298
1.95497
1.92066
1.88938
1.86336
1.83428
1.79399
1.74256
1.68902
1.65206
1.62646
1.60883
1.58759
1.54672
1.5054
1.48046
1.45833
1.43837
1.42147
1.40931
1.39488
1.36608
1.32241
1.30869
1.30698
1.30622
1.30642
1.30269
1.29651
1.28732
1.27019
1.24253
1.2216
3.24437
3.26528
3.28715
3.30199
3.31693
3.30849
3.27373
3.21076
3.09467
2.97212
2.83528
2.95526
3.54196
4.26353
4.55137
4.49878
4.34625
4.13884
3.95514
3.79545
3.63859
3.47235
3.30071
3.13133
2.97639
2.84524
2.74106
2.65155
2.55207
2.44754
2.35889
2.27748
2.19792
2.11076
2.02466
1.96825
1.91837
1.86127
1.80655
1.76674
1.73332
1.69064
1.62539
1.56587
1.54354
1.52231
1.49495
1.45808
1.40989
1.40855
1.44059
1.54695
1.74478
1.94645
2.10154
2.23642
2.28101
2.26655
2.2468
2.23242
2.2099
2.16675
2.09699
2.0301
1.99873
1.97125
1.93726
1.90535
1.87186
1.82837
1.7697
1.70288
1.66755
1.65504
1.64114
1.6144
1.56674
1.52176
1.49602
1.47841
1.46321
1.44527
1.42641
1.40502
1.37131
1.32828
1.31195
1.31055
1.31084
1.31406
1.3135
1.31042
1.30559
1.29398
1.28514
1.31744
3.18803
3.36917
3.36733
3.33442
3.32127
3.3181
3.30622
3.27333
3.18132
3.1809
3.52238
4.35972
5.11789
5.24353
5.13746
4.85116
4.5471
4.29647
4.1023
3.93154
3.75857
3.58257
3.41174
3.24951
3.10011
2.95993
2.81921
2.68748
2.58463
2.50453
2.42353
2.32976
2.22932
2.12946
2.03391
1.97468
1.94183
1.90158
1.8515
1.80428
1.75584
1.69166
1.60755
1.56879
1.55534
1.53019
1.48528
1.43496
1.37836
1.34494
1.33836
1.33413
1.35238
1.42285
1.54062
1.69002
1.8475
1.98302
2.05491
2.10576
2.10838
2.09244
2.04407
1.99451
1.97474
1.94818
1.90765
1.87027
1.83807
1.79957
1.75376
1.70904
1.66959
1.64069
1.61764
1.59057
1.54826
1.5053
1.48018
1.46455
1.4527
1.44057
1.42763
1.41225
1.38336
1.3437
1.33483
1.33629
1.34358
1.35995
1.39421
1.44022
1.49142
1.5544
1.60419
1.72286
2.6051
3.22965
3.26439
3.26604
3.29144
3.32875
3.34063
3.3446
3.48575
4.21023
5.34653
5.72582
5.66601
5.51166
5.29969
5.05573
4.77827
4.49781
4.24418
4.02452
3.82916
3.65117
3.4883
3.33699
3.19466
3.05387
2.90496
2.75697
2.62717
2.51725
2.42567
2.3406
2.25229
2.15637
2.06685
2.00139
1.94035
1.87843
1.81853
1.76328
1.70875
1.64797
1.59602
1.56294
1.53055
1.49369
1.44887
1.40214
1.35894
1.32887
1.31296
1.2926
1.26816
1.25057
1.23667
1.25306
1.30888
1.42175
1.58061
1.74242
1.85812
1.95349
1.94849
1.94497
1.93819
1.92853
1.91151
1.88353
1.84998
1.809
1.76855
1.7306
1.6862
1.64752
1.61667
1.58974
1.55308
1.51459
1.49114
1.47841
1.47012
1.46585
1.4662
1.46431
1.47347
1.4858
1.51326
1.56334
1.62291
1.69966
1.80091
1.87953
1.95846
1.99807
2.03081
2.07467
1.72928
2.44993
2.97589
3.25621
3.30517
3.35038
3.47346
3.87857
4.89291
6.05252
6.50989
6.36735
5.9853
5.62305
5.36747
5.15127
4.91037
4.64373
4.37371
4.12607
3.91209
3.7276
3.56172
3.40334
3.24599
3.09591
2.95397
2.80721
2.67285
2.56554
2.47509
2.38269
2.28078
2.18157
2.10204
2.03168
1.9587
1.88769
1.82157
1.76197
1.70527
1.65179
1.60834
1.56826
1.52964
1.4892
1.44197
1.39193
1.34802
1.32217
1.30575
1.28444
1.25599
1.22647
1.2008
1.17693
1.1706
1.16962
1.19183
1.26526
1.3817
1.52345
1.63894
1.72523
1.77095
1.80182
1.83522
1.83389
1.81193
1.7754
1.74543
1.72654
1.70479
1.67984
1.65588
1.62554
1.61142
1.61765
1.6343
1.66646
1.72547
1.79013
1.84292
1.88478
1.91815
1.95977
2.01183
2.05473
2.10173
2.18024
2.22973
2.24972
2.25514
2.24688
2.25223
2.25057
1.42417
1.61812
2.20245
2.88632
3.17559
3.66236
4.47665
5.51131
6.33479
6.61959
6.55217
6.40152
6.15242
5.82925
5.519
5.24183
4.97338
4.71171
4.46161
4.22835
4.01542
3.81949
3.6338
3.45756
3.2891
3.12204
2.97229
2.87225
2.77955
2.67484
2.57053
2.46749
2.36671
2.27647
2.19632
2.11625
2.0342
1.95476
1.8833
1.8221
1.76717
1.71499
1.66324
1.61291
1.56577
1.5172
1.46422
1.41463
1.37828
1.35334
1.33032
1.30291
1.26784
1.23122
1.19379
1.16694
1.15306
1.1389
1.11872
1.10841
1.12011
1.15196
1.21366
1.28191
1.38128
1.48798
1.59952
1.6813
1.71126
1.73575
1.75373
1.79534
1.8454
1.87894
1.91876
1.97208
2.02887
2.0728
2.11328
2.16721
2.22886
2.26391
2.28218
2.27566
2.25556
2.25342
2.24929
2.24819
2.26345
2.28818
2.29111
2.29185
2.28475
2.267
2.26024
2.24595
1.40042
1.41267
1.55597
2.12277
3.32988
4.658
5.75297
6.62375
7.10282
6.9074
6.54537
6.35919
6.19486
5.95686
5.63828
5.30211
4.99641
4.7301
4.49357
4.27197
4.05733
3.84801
3.64564
3.45518
3.27844
3.12406
2.99351
2.86151
2.72751
2.60745
2.49979
2.4008
2.30976
2.22747
2.14881
2.0667
1.98121
1.89994
1.83135
1.7765
1.72669
1.6748
1.62097
1.56904
1.52143
1.47448
1.42435
1.37834
1.34566
1.32193
1.29976
1.27431
1.24103
1.20069
1.16003
1.13923
1.13072
1.12104
1.10239
1.08423
1.07527
1.06613
1.04386
1.04044
1.05922
1.11671
1.23081
1.36459
1.5571
1.74952
1.89385
2.04676
2.18125
2.25046
2.30583
2.37414
2.43552
2.47115
2.49464
2.52177
2.53391
2.5298
2.51898
2.50028
2.47225
2.43834
2.3967
2.3861
2.38024
2.36055
2.32791
2.29154
2.25757
2.2289
2.22067
2.20442
1.40042
1.41267
1.55597
2.12277
3.32988
4.658
5.75297
6.62375
7.10282
6.9074
6.54537
6.35919
6.19486
5.95686
5.63828
5.30211
4.99641
4.7301
4.49357
4.27197
4.05733
3.84801
3.64564
3.45518
3.27845
3.12406
2.99351
2.86151
2.72751
2.60745
2.49979
2.40079
2.30976
2.22747
2.14881
2.0667
1.98121
1.89994
1.83135
1.7765
1.72669
1.6748
1.62097
1.56904
1.52143
1.47448
1.42435
1.37834
1.34566
1.32193
1.29976
1.27431
1.24103
1.20069
1.16003
1.13923
1.13072
1.12104
1.1024
1.08422
1.07527
1.06613
1.04399
1.03998
1.0605
1.11583
1.22507
1.39
1.55508
1.72283
1.91393
2.048
2.15942
2.26369
2.32395
2.36671
2.4231
2.47782
2.50405
2.51758
2.52749
2.52805
2.52257
2.50177
2.46794
2.43676
2.40446
2.38014
2.37476
2.36793
2.36052
2.34069
2.29972
2.2503
2.22626
2.1986
1.42417
1.61812
2.20245
2.88632
3.17559
3.66236
4.47665
5.51131
6.33479
6.61959
6.55217
6.40152
6.15242
5.82925
5.519
5.24183
4.97338
4.71171
4.46161
4.22835
4.01542
3.81949
3.6338
3.45756
3.2891
3.12203
2.97229
2.87225
2.77955
2.67484
2.57052
2.46749
2.3667
2.27647
2.19632
2.11625
2.0342
1.95476
1.8833
1.8221
1.76717
1.71499
1.66324
1.61291
1.56577
1.5172
1.46422
1.41463
1.37828
1.35333
1.33032
1.30291
1.26784
1.23122
1.19379
1.16694
1.15306
1.1389
1.11872
1.10841
1.12009
1.15201
1.21357
1.28255
1.37881
1.495
1.5918
1.68167
1.72077
1.72571
1.75731
1.79566
1.8292
1.88997
1.94841
1.96901
2.00337
2.07353
2.13463
2.17075
2.20808
2.2547
2.29104
2.28308
2.25282
2.25168
2.25469
2.25084
2.26102
2.28325
2.29262
2.2905
2.28218
2.27676
2.27798
2.25928
1.72928
2.44993
2.97589
3.25621
3.30517
3.35038
3.47346
3.87857
4.89291
6.05252
6.5099
6.36735
5.9853
5.62305
5.36747
5.15126
4.91037
4.64373
4.37371
4.12607
3.91209
3.7276
3.56172
3.40334
3.24599
3.09591
2.95397
2.80721
2.67285
2.56554
2.47509
2.38269
2.28078
2.18157
2.10204
2.03168
1.9587
1.88769
1.82157
1.76197
1.70527
1.65179
1.60834
1.56826
1.52964
1.4892
1.44197
1.39193
1.34802
1.32217
1.30575
1.28444
1.25599
1.22647
1.2008
1.17693
1.1706
1.16961
1.19184
1.26532
1.38154
1.52376
1.63838
1.72732
1.7674
1.80518
1.83416
1.83365
1.8148
1.77359
1.74685
1.72919
1.70456
1.67887
1.65897
1.62909
1.60597
1.61261
1.63854
1.6718
1.71359
1.77464
1.84656
1.90387
1.92656
1.95653
2.00961
2.05884
2.10161
2.17602
2.23123
2.25021
2.24889
2.24641
2.26099
2.25953
2.6051
3.22965
3.26439
3.26604
3.29144
3.32875
3.34063
3.3446
3.48575
4.21023
5.34653
5.72582
5.66601
5.51166
5.29969
5.05573
4.77827
4.49781
4.24418
4.02452
3.82916
3.65117
3.4883
3.33699
3.19466
3.05387
2.90496
2.75697
2.62717
2.51725
2.42567
2.3406
2.2523
2.15637
2.06685
2.00139
1.94035
1.87843
1.81853
1.76328
1.70875
1.64797
1.59602
1.56294
1.53055
1.49369
1.44887
1.40214
1.35894
1.32887
1.31296
1.29261
1.26816
1.25057
1.23667
1.25306
1.30887
1.42176
1.58075
1.74217
1.85832
1.95374
1.94796
1.94535
1.93807
1.92872
1.9119
1.88315
1.8487
1.81007
1.76893
1.72982
1.6861
1.64789
1.61854
1.58978
1.55151
1.51386
1.49205
1.47892
1.46853
1.46354
1.47039
1.47277
1.47706
1.48394
1.5093
1.56247
1.62398
1.70191
1.80281
1.88147
1.95925
1.99299
2.02714
2.0774
3.18803
3.36917
3.36733
3.33442
3.32127
3.3181
3.30622
3.27333
3.18132
3.1809
3.52238
4.35972
5.11789
5.24353
5.13746
4.85116
4.5471
4.29647
4.1023
3.93154
3.75857
3.58257
3.41174
3.24951
3.10011
2.95993
2.81921
2.68748
2.58463
2.50453
2.42353
2.32976
2.22932
2.12946
2.03391
1.97468
1.94183
1.90158
1.8515
1.80428
1.75584
1.69166
1.60755
1.56879
1.55534
1.53019
1.48528
1.43496
1.37836
1.34494
1.33836
1.33413
1.35238
1.42285
1.54064
1.68999
1.84749
1.98305
2.05491
2.10572
2.10848
2.09242
2.04382
1.9947
1.97497
1.9482
1.90734
1.87007
1.83785
1.80026
1.75418
1.70919
1.66983
1.64109
1.61799
1.58988
1.54698
1.50537
1.48099
1.46479
1.45208
1.44005
1.42819
1.41242
1.383
1.34365
1.3347
1.33633
1.34413
1.36119
1.39651
1.44273
1.49317
1.55188
1.59979
1.71986
3.24437
3.26528
3.28715
3.30199
3.31693
3.30849
3.27373
3.21076
3.09467
2.97212
2.83528
2.95526
3.54196
4.26353
4.55137
4.49878
4.34625
4.13884
3.95514
3.79545
3.63859
3.47235
3.30071
3.13133
2.97639
2.84524
2.74106
2.65155
2.55207
2.44754
2.35889
2.27748
2.19792
2.11076
2.02466
1.96825
1.91837
1.86127
1.80655
1.76674
1.73332
1.69064
1.62539
1.56587
1.54354
1.52231
1.49495
1.45808
1.40989
1.40855
1.44059
1.54694
1.74478
1.94649
2.10154
2.23636
2.28109
2.26654
2.24678
2.23243
2.2099
2.16673
2.09701
2.03014
1.99869
1.9712
1.93713
1.90546
1.87202
1.82829
1.76995
1.70349
1.66752
1.6549
1.64081
1.61399
1.56681
1.52217
1.49612
1.47833
1.46313
1.44503
1.42487
1.40382
1.37065
1.32856
1.31199
1.31057
1.31091
1.31434
1.31419
1.31157
1.30721
1.29561
1.28654
1.31855
3.34236
3.31311
3.30406
3.30689
3.30947
3.29079
3.22971
3.1271
2.99327
2.81839
2.66317
2.48354
2.50737
2.78521
3.34198
3.9436
4.10102
4.02295
3.83206
3.63172
3.44612
3.28458
3.15068
3.02909
2.90882
2.79252
2.68484
2.58144
2.47318
2.36716
2.28955
2.23063
2.17242
2.10069
2.01804
1.96294
1.91615
1.86511
1.81151
1.77183
1.74293
1.70244
1.64632
1.58474
1.55884
1.54382
1.52865
1.54495
1.60359
1.77192
1.98718
2.22269
2.36883
2.41299
2.44147
2.43317
2.39643
2.33475
2.28763
2.2541
2.20489
2.13492
2.05479
1.99298
1.95497
1.92065
1.88934
1.86342
1.83432
1.794
1.74248
1.68896
1.65209
1.62644
1.60874
1.58751
1.54689
1.50559
1.48044
1.45821
1.43832
1.42139
1.40955
1.39513
1.36591
1.32233
1.3087
1.307
1.30621
1.30656
1.30306
1.29654
1.28745