/*--------------------------------*- C++ -*----------------------------------*\
  =========                 |
  \\      /  F ield         | OpenFOAM: The Open Source CFD Toolbox
   \\    /   O peration     | Website:  https://openfoam.org
    \\  /    A nd           | Version:  7
     \\/     M anipulation  |
\*---------------------------------------------------------------------------*/
FoamFile
{
    version     2.0;
    format      ascii;
    class       volScalarField;
    location    "0.8";
    object      T;
}
// * * * * * * * * * * * * * * * * * * * * * * * * * * * * * * * * * * * * * //

dimensions      [0 0 0 1 0 0 0];

internalField   nonuniform List<scalar> 
4608
(
1
1
1
1
1
1
1
1
1
1
1
1
1
1
1
1
1
1
1
1
1
1
1
1
1
1
1
1
1
1
1
1
1
1
1
1
1
1
1
1
1
1
1
1
1
1
1
1
1
1
1
1
1
1
1
1
1
1
1
1
1
1
1
1
1
1
1
1
1
1
1
1
1
1
1
1
1
1
1
1
1
1
1
1
1
1
1
1
1
1
1
1
1
1
1
1
1
1
1
1
1
1
1
1
1
1
1
1
1
1
1
1
1
1
1
1
1
1
1
1
1
1
1
1
1
1
1
1
1
1
1
1
1
1
1
1
1
1
1
1
1
1
1
1
1
1
1
1
1
1
1
1
1
1
1
1
1
1
1
1
1
1
1
1
1
1
1
1
1
1
1
1
1
1
1
1
1
1
1
1
1
1
1
1
1
1
1
1
1
1
1
1
1
1
1
1
1
1
1
1
1
1
1
1
1
1
1
1
1
1
1
1
1
1
1
1
1
1
1
1
1
1
1
1
1
1
1
1
1
1
1
1
1
1
1
1
1
1
1
1
1
1
1
1
1
1
1
1
1
1
1
1
1
1
1
1
1
1
1
1
1
1
1
1
1
1
1
1
1
1
1
1
1
1
1
1
1
1
1
1
1
1
1
1
1
1
1
1
1
1
1
1
1
1
1
1
1
1
1
1
1
1
1
1
1
1
1
1
1
1
1
1
1
1
1
1
1
1
1
1
1
1
1
1
1
1
1
1
1
1
1
1
1
1
1
1
1
1
1
1
1
1
1
1
1
1
1
1
1
1
1
1
1
1
1
1
1
1
1
1
1
1
1
1
1
1
1
1
1
1
1
1
1
1
1
1
1
1
1
1
1
1
1
1
1
1
1
1
1
1
1
1
1
1
1
1
1
1
1
1
1
1
1
1
1
1
1
1
1
1
1
1
1
1
1
1
1
1
1
1
1
1
1
1
1
1
1
1
1
1
1
1
1
1
1
1
1
1
1
1
1
1
1
1
1
1
1
1
1
1
1
1
1
1
1
1
1
1
1
1
1
1
1
1
1
1
1
1
1
1
1
1
1
1
1
1
1
1
1
1
1
1
1
1
1
1
1
1
1
1
1
1
1
1
1
1
1
1
1
1
1
1
1
1
1
1
1
1
1
1
1
1
1
1
1
1
1
1
1
1
1
1
1
1
1
1
1
1
1
1
1
1
1
1
1
1
1
1
1
1
1
1
1
1
1
1
1
1
1
1
1
1
1
1
1
1
1
1
1
1
1
1
1
1
1
1
1
1
1
1
1
1
1
1
1
1
1
1
1
1
1
1
1
1
1
1
1
1
1
1
1
1
1
1
1
1
1
1
1
1
1
1
1
1
1
1
1
1
1
1
1
1
1
1
1
1
1
1
1
1
1
1
1
1
1
1
1
1
1
1
1
1
1
1
1
1
1
1
1
1
1
1
1
1
1
1
1
1
1
1
1
1
1
1
1
1
1
1
1
1
1
1
1
1
1
1
1
1
1
1
1
1
1
1
1
1
1
1
1
1
1
1
1
1
1
1
1
1
1
1
1
1
1
1
1
1
1
1
1
1
1
1
1
1
1
1
1
1
1
1
1
1
1
1
1
1
1
1
1
1
1
1
1
1
1
1
1
1
1
1
1
1
1
1
1
1
1
1
1
1
1
1
1
1
1
1
1
1
1
1
1
1
1
1
1
1
1
1
1
1
1
1
1
1
1
1
1
1
1.0788
1.18223
1.28416
1.3938
1.48676
1.57038
1.64066
1.68282
1.69789
1.68166
1.63788
1.58718
1.54203
1.52399
1.51312
1.51494
1.5193
1.52353
1.52825
1.53213
1.53538
1.53861
1.53906
1.53895
1.00061
1.007
1.02993
1.0703
1.14769
1.23071
1.32391
1.40493
1.4855
1.51732
1.54816
1.56739
1.5639
1.55007
1.5413
1.53809
1.53414
1.5323
1.53288
1.53462
1.53736
1.54036
1.54109
1.54183
0.999999
0.999986
1.00007
1.00004
1.00129
1.00796
1.03763
1.11551
1.27016
1.45031
1.5668
1.6232
1.62263
1.61022
1.58984
1.56193
1.54498
1.54446
1.54324
1.5432
1.54387
1.54522
1.5467
1.54843
1
1
1
1
0.999995
1.00001
0.999976
1.00064
1.01215
1.11429
1.30674
1.4984
1.60649
1.61109
1.59892
1.58609
1.57707
1.57361
1.56715
1.5593
1.555
1.55443
1.55455
1.55596
1
1
1
1
1
1
0.999997
0.999998
0.999961
1.00063
1.01444
1.13164
1.3432
1.54747
1.60754
1.61926
1.61335
1.60755
1.59192
1.57758
1.57151
1.56714
1.56647
1.56816
1
1
1
1
1
1
1
1
0.999997
0.999997
0.999961
1.00124
1.028
1.17406
1.40442
1.56396
1.61806
1.6146
1.6061
1.59623
1.58879
1.58346
1.57813
1.57864
1
1
1
1
1
1
1
1
1
1
0.999996
0.999998
0.999992
1.00318
1.06581
1.24453
1.46232
1.56816
1.60851
1.60702
1.6005
1.59316
1.58782
1.58308
1
1
1
1
1
1
1
1
1
1
1
1
0.999999
0.999988
1.00045
1.01101
1.12868
1.33426
1.52825
1.57169
1.58603
1.5871
1.58557
1.58106
1
1
1
1
1
1
1
1
1
1
1
1
1
0.999998
0.999998
0.999988
1.00316
1.04083
1.22799
1.43622
1.55811
1.58703
1.58626
1.58347
1
1
1
1
1
1
1
1
1
1
1
1
1
1
1
0.999999
0.999991
1.00029
1.01674
1.13026
1.36143
1.50276
1.56942
1.58316
1
1
1
1
1
1
1
1
1
1
1
1
1
1
1
1
0.999999
0.999998
1.00008
1.00443
1.07612
1.27562
1.48756
1.54927
1
1
1
1
1
1
1
1
1
1
1
1
1
1
1
1
1
1
0.999999
1
1.00199
1.03993
1.21511
1.41747
1
1
1
1
1
1
1
1
1
1
1
1
1
1
1
1
1
1
1
1
0.999999
1.00071
1.02005
1.15969
1
1
1
1
1
1
1
1
1
1
1
1
1
1
1
1
1
1
1
1
1
0.999999
1.00026
1.01167
1
1
1
1
1
1
1
1
1
1
1
1
1
1
1
1
1
1
1
1
1
1
1
1.00002
1
1
1
1
1
1
1
1
1
1
1
1
1
1
1
1
1
1
1
1
1
1
1
1
1
1
1
1
1
1
1
1
1
1
1
1
1
1
1
1
1
1
1
1
1
1
1
1
1
1
1
1
1
1
1
1
1
1
1
1
1
1
1
1
1
1
1
1
1
1
1
1.00002
1
1
1
1
1
1
1
1
1
1
1
1
1
1
1
1
1
1
1
1
1
0.999999
1.00026
1.01167
1
1
1
1
1
1
1
1
1
1
1
1
1
1
1
1
1
1
1
1
0.999999
1.00071
1.02005
1.15969
1
1
1
1
1
1
1
1
1
1
1
1
1
1
1
1
1
1
0.999999
1
1.00199
1.03993
1.21511
1.41747
1
1
1
1
1
1
1
1
1
1
1
1
1
1
1
1
0.999999
0.999998
1.00008
1.00443
1.07612
1.27562
1.48756
1.54927
1
1
1
1
1
1
1
1
1
1
1
1
1
1
1
0.999999
0.999991
1.00029
1.01674
1.13026
1.36143
1.50276
1.56942
1.58316
1
1
1
1
1
1
1
1
1
1
1
1
1
0.999998
0.999998
0.999988
1.00316
1.04083
1.22799
1.43622
1.55811
1.58703
1.58626
1.58347
1
1
1
1
1
1
1
1
1
1
1
1
0.999999
0.999988
1.00045
1.01101
1.12868
1.33426
1.52825
1.57169
1.58603
1.5871
1.58557
1.58106
1
1
1
1
1
1
1
1
1
1
0.999996
0.999998
0.999992
1.00318
1.06581
1.24453
1.46232
1.56816
1.60851
1.60702
1.6005
1.59316
1.58782
1.58308
1
1
1
1
1
1
1
1
0.999997
0.999997
0.999961
1.00124
1.028
1.17406
1.40442
1.56396
1.61806
1.6146
1.6061
1.59623
1.58879
1.58346
1.57813
1.57864
1
1
1
1
1
1
0.999997
0.999998
0.999961
1.00063
1.01444
1.13164
1.3432
1.54747
1.60754
1.61926
1.61335
1.60755
1.59192
1.57758
1.57151
1.56714
1.56647
1.56816
1
1
1
1
0.999995
1.00001
0.999976
1.00064
1.01215
1.11429
1.30674
1.4984
1.60649
1.61109
1.59892
1.58609
1.57707
1.57361
1.56715
1.5593
1.555
1.55443
1.55455
1.55596
0.999999
0.999986
1.00007
1.00004
1.00129
1.00796
1.03763
1.11551
1.27016
1.45031
1.5668
1.6232
1.62263
1.61022
1.58984
1.56193
1.54498
1.54446
1.54324
1.5432
1.54387
1.54522
1.5467
1.54843
1.00061
1.007
1.02993
1.0703
1.14769
1.23071
1.32391
1.40493
1.4855
1.51732
1.54816
1.56739
1.5639
1.55007
1.5413
1.53809
1.53414
1.5323
1.53288
1.53462
1.53736
1.54036
1.54109
1.54183
1.0788
1.18223
1.28416
1.3938
1.48676
1.57038
1.64066
1.68282
1.69789
1.68166
1.63788
1.58718
1.54203
1.52399
1.51312
1.51494
1.5193
1.52353
1.52825
1.53213
1.53538
1.53861
1.53906
1.53895
1.39753
1.228
1.09214
1.03846
0.997562
0.976092
0.987279
1.01792
1.03344
1.04352
1.06791
1.10233
1.10641
1.10331
1.10506
1.1111
1.11214
1.1113
1.11408
1.11748
1.11673
1.11429
1.10987
1.10571
1.11021
1.15277
1.32386
1.5351
1.67208
1.78404
1.88709
1.95809
1.98653
1.98612
1.96358
1.9201
1.87899
1.8423
1.81359
1.78729
1.76238
1.7388
1.71698
1.69786
1.68294
1.67285
1.66051
1.64401
1.62494
1.60149
1.57349
1.55394
1.54377
1.53573
1.5276
1.51862
1.50656
1.48738
1.4586
1.43318
1.4217
1.41512
1.40951
1.4033
1.39607
1.38658
1.37082
1.34554
1.31968
1.3074
1.30212
1.29694
1.29032
1.28232
1.27261
1.26149
1.25104
1.24196
1.23217
1.21956
1.20207
1.18385
1.17583
1.17216
1.16842
1.16364
1.15783
1.1506
1.14149
1.12866
1.11081
1.10226
1.10138
1.09999
1.09626
1.0877
1.49548
1.41578
1.30817
1.23759
1.19438
1.1297
1.09225
1.08139
1.0604
1.05292
1.0551
1.06109
1.06114
1.06181
1.06552
1.07347
1.08118
1.08345
1.08721
1.09377
1.09569
1.09379
1.09501
1.11584
1.19443
1.33449
1.47797
1.50415
1.54385
1.6051
1.66146
1.72318
1.76927
1.81458
1.83395
1.84498
1.85477
1.84295
1.82147
1.80102
1.77814
1.75261
1.72723
1.70607
1.69139
1.68088
1.66882
1.65268
1.63314
1.60999
1.58423
1.56612
1.55463
1.54455
1.53572
1.52602
1.51282
1.49326
1.46683
1.44438
1.43302
1.42585
1.41949
1.41293
1.4049
1.39387
1.37674
1.35275
1.33071
1.31964
1.31325
1.30694
1.29916
1.29025
1.28065
1.27098
1.26125
1.25163
1.24127
1.22868
1.21276
1.19566
1.18571
1.18104
1.17686
1.17209
1.16613
1.15869
1.15007
1.13981
1.12623
1.11457
1.11104
1.10848
1.10445
1.09656
1.53373
1.49363
1.42869
1.3502
1.28865
1.22386
1.16312
1.13071
1.10099
1.05993
1.04712
1.04766
1.04114
1.039
1.0412
1.04582
1.05316
1.05616
1.05888
1.06487
1.07268
1.07946
1.121
1.26542
1.38885
1.49708
1.53379
1.5294
1.51631
1.51254
1.51704
1.53563
1.58121
1.65508
1.74238
1.79468
1.81999
1.83478
1.83075
1.81943
1.80106
1.76952
1.73495
1.70772
1.68682
1.66903
1.6566
1.6434
1.62554
1.6053
1.58729
1.56954
1.54982
1.53159
1.5186
1.50964
1.49903
1.4835
1.46585
1.45227
1.43795
1.42106
1.40714
1.39875
1.39159
1.3817
1.36665
1.34919
1.33581
1.32147
1.30515
1.2954
1.28893
1.28066
1.27083
1.2612
1.25197
1.24174
1.23122
1.21978
1.20481
1.1869
1.17393
1.1685
1.16445
1.16043
1.15613
1.15025
1.1432
1.13464
1.12171
1.10659
1.10283
1.10136
1.09845
1.09094
1.55265
1.53562
1.49805
1.43862
1.3764
1.31959
1.25456
1.2093
1.17894
1.13251
1.09546
1.08558
1.0699
1.04861
1.04722
1.04815
1.04425
1.03954
1.04051
1.04301
1.05459
1.11094
1.29567
1.44346
1.51042
1.53286
1.5298
1.52075
1.50162
1.4911
1.48615
1.47973
1.47064
1.47781
1.51872
1.58655
1.65838
1.72376
1.77422
1.77694
1.7712
1.76548
1.75209
1.73056
1.70439
1.67827
1.65611
1.64025
1.62773
1.61351
1.5972
1.57711
1.55443
1.53368
1.5152
1.50296
1.49516
1.48672
1.47685
1.46482
1.44607
1.42448
1.4068
1.39363
1.38472
1.37715
1.36794
1.35698
1.34415
1.32632
1.30526
1.29019
1.28409
1.27715
1.26653
1.25529
1.24676
1.23756
1.22669
1.21565
1.20259
1.18608
1.16989
1.16324
1.15875
1.15436
1.15039
1.14554
1.14012
1.13418
1.12269
1.10482
1.09954
1.09876
1.09729
1.09146
1.56464
1.55909
1.54079
1.50224
1.44981
1.3954
1.33778
1.2855
1.24663
1.20183
1.15219
1.12752
1.11206
1.08467
1.06596
1.05914
1.04943
1.04364
1.04448
1.06697
1.16763
1.319
1.47509
1.52017
1.52868
1.52788
1.51644
1.49621
1.47824
1.47265
1.46863
1.46023
1.44351
1.43206
1.42507
1.42757
1.44803
1.50905
1.59978
1.67775
1.71635
1.74625
1.74469
1.73935
1.72438
1.70192
1.66912
1.63871
1.61498
1.59833
1.58417
1.57194
1.55963
1.54152
1.51992
1.50089
1.48466
1.47166
1.46164
1.45126
1.44214
1.43097
1.41373
1.3944
1.37862
1.36716
1.3566
1.34592
1.33706
1.32918
1.3156
1.29702
1.28285
1.27255
1.26251
1.25086
1.2376
1.23327
1.22987
1.22193
1.20981
1.19252
1.17225
1.16214
1.15756
1.15273
1.14853
1.14382
1.13834
1.13202
1.12307
1.11153
1.10147
1.09844
1.0975
1.09638
1.57707
1.5741
1.56737
1.54614
1.50946
1.46208
1.41001
1.35676
1.30919
1.27146
1.23063
1.18901
1.16463
1.14095
1.12033
1.10217
1.08482
1.08695
1.11702
1.25201
1.39885
1.49774
1.54291
1.54166
1.53249
1.51411
1.49505
1.47556
1.46455
1.45804
1.44908
1.43304
1.41841
1.41226
1.40237
1.3917
1.38145
1.37912
1.39301
1.4467
1.52483
1.59971
1.64972
1.68883
1.68504
1.67591
1.66382
1.64732
1.62446
1.60438
1.58972
1.57808
1.56241
1.54245
1.52035
1.49839
1.47866
1.46334
1.45318
1.44522
1.43582
1.42202
1.4052
1.38659
1.36875
1.35711
1.34952
1.34234
1.33331
1.32087
1.30802
1.29484
1.27858
1.26589
1.25815
1.24964
1.237
1.22576
1.21899
1.21197
1.20184
1.18891
1.17247
1.15931
1.15397
1.15261
1.15116
1.14671
1.14105
1.13548
1.12974
1.12151
1.11046
1.10552
1.10299
1.0949
1.58311
1.58226
1.58023
1.57313
1.55218
1.51516
1.47092
1.42619
1.3741
1.33056
1.29432
1.25852
1.22725
1.1947
1.16939
1.14212
1.14618
1.20795
1.3598
1.51062
1.57061
1.57795
1.56635
1.54284
1.51891
1.50156
1.48721
1.471
1.45632
1.44189
1.42595
1.40953
1.40054
1.39151
1.37714
1.36276
1.35319
1.34389
1.32682
1.31962
1.32964
1.37334
1.44307
1.52617
1.58686
1.61881
1.64376
1.64081
1.62849
1.61479
1.60172
1.58227
1.56031
1.53882
1.51741
1.49569
1.47583
1.46057
1.44998
1.44117
1.4299
1.41526
1.39821
1.37957
1.36202
1.35037
1.34248
1.33379
1.32335
1.31315
1.30335
1.29025
1.27469
1.26218
1.24944
1.23644
1.22586
1.21651
1.20893
1.20382
1.19809
1.18818
1.17436
1.16126
1.15153
1.14285
1.13853
1.13521
1.13114
1.12679
1.12203
1.11568
1.10813
1.10231
1.09775
1.09105
1.58086
1.5807
1.58027
1.57949
1.57313
1.55181
1.51803
1.4809
1.43262
1.38884
1.35483
1.32081
1.28061
1.25028
1.22139
1.23686
1.34402
1.5033
1.62241
1.64873
1.63701
1.61016
1.58071
1.55496
1.5296
1.50807
1.4909
1.47363
1.45501
1.43494
1.41391
1.39897
1.38962
1.37628
1.35691
1.34096
1.33061
1.31937
1.30117
1.28807
1.28292
1.27512
1.28011
1.30358
1.36458
1.43615
1.50252
1.55754
1.58186
1.57488
1.57043
1.56195
1.54822
1.53403
1.51702
1.49759
1.47921
1.46382
1.45091
1.43884
1.42404
1.4059
1.38769
1.37082
1.35563
1.34384
1.33417
1.32465
1.31571
1.30599
1.29333
1.27874
1.26661
1.25506
1.24126
1.22844
1.21685
1.20999
1.20515
1.19877
1.18849
1.17738
1.16756
1.15918
1.14839
1.13688
1.13142
1.12873
1.12648
1.12368
1.1204
1.11582
1.10983
1.10256
1.0975
1.09206
1.58033
1.57943
1.57941
1.58001
1.5798
1.57122
1.54957
1.52023
1.48618
1.43618
1.40541
1.37301
1.33605
1.31157
1.34955
1.48959
1.6483
1.72732
1.72153
1.69377
1.65603
1.6245
1.59916
1.57567
1.55046
1.52391
1.49886
1.47669
1.45536
1.43214
1.40975
1.39495
1.38245
1.36601
1.34446
1.32747
1.31393
1.30034
1.28412
1.27224
1.26482
1.25316
1.23893
1.22137
1.22158
1.2372
1.28365
1.35677
1.43598
1.48636
1.52018
1.53567
1.52821
1.52112
1.51359
1.50209
1.48873
1.47417
1.45942
1.44004
1.41774
1.39478
1.3739
1.36054
1.3494
1.33798
1.32753
1.31881
1.30999
1.29834
1.28352
1.26749
1.25521
1.24468
1.23453
1.22566
1.2128
1.19936
1.19227
1.18574
1.17801
1.17046
1.16464
1.15883
1.14873
1.13329
1.12598
1.12392
1.12316
1.12195
1.11944
1.11675
1.11437
1.10907
1.10203
1.09393
1.58232
1.57973
1.57981
1.58182
1.58312
1.57994
1.56859
1.54843
1.5215
1.4855
1.45198
1.41087
1.42063
1.51153
1.65631
1.78554
1.81481
1.79988
1.76331
1.72327
1.68502
1.65083
1.6215
1.59404
1.56612
1.53823
1.51175
1.486
1.45827
1.43114
1.41121
1.39556
1.37974
1.35986
1.3364
1.31938
1.30415
1.28827
1.2727
1.26168
1.25349
1.2414
1.22397
1.20456
1.19648
1.19184
1.18616
1.1928
1.21836
1.28242
1.35102
1.41616
1.45309
1.46448
1.47374
1.47256
1.4643
1.44877
1.43577
1.42579
1.41176
1.39384
1.37375
1.35687
1.34544
1.3345
1.32413
1.31535
1.30609
1.29378
1.27828
1.26163
1.24883
1.2394
1.23246
1.22378
1.20885
1.19505
1.1873
1.18059
1.1746
1.16902
1.16398
1.1577
1.14646
1.13032
1.12404
1.12297
1.12267
1.12266
1.12134
1.11971
1.11759
1.11286
1.10453
1.09787
1.55726
1.56481
1.57055
1.57598
1.57982
1.57821
1.5728
1.56304
1.54262
1.51894
1.49279
1.52946
1.6876
1.84209
1.88958
1.8787
1.85077
1.8129
1.77752
1.74519
1.71272
1.6781
1.64199
1.60534
1.57052
1.54019
1.51561
1.494
1.46952
1.44328
1.42081
1.40003
1.37948
1.35653
1.33253
1.31562
1.30023
1.28355
1.26824
1.25747
1.24821
1.23554
1.21546
1.19712
1.19063
1.18411
1.17451
1.16077
1.14376
1.14435
1.15932
1.20279
1.27393
1.335
1.37915
1.41995
1.43179
1.4259
1.41596
1.4097
1.40391
1.39412
1.3786
1.36152
1.351
1.34129
1.33017
1.32039
1.31097
1.29885
1.28177
1.26149
1.24929
1.24407
1.23843
1.22911
1.21369
1.1991
1.19059
1.18469
1.17948
1.17349
1.16726
1.15979
1.14757
1.13127
1.12396
1.12327
1.12341
1.12482
1.12496
1.12488
1.12464
1.12203
1.1224
1.13933
1.53053
1.56883
1.57771
1.57469
1.57482
1.57535
1.57482
1.57125
1.55705
1.56019
1.65426
1.83316
1.97929
1.99081
1.97115
1.92376
1.87209
1.82752
1.791
1.75759
1.72316
1.68766
1.65264
1.61864
1.58645
1.55554
1.52396
1.49381
1.46992
1.45041
1.43025
1.40685
1.38145
1.35567
1.3298
1.31301
1.30383
1.29309
1.27983
1.26707
1.25331
1.23385
1.20816
1.19697
1.19355
1.186
1.17068
1.15233
1.13204
1.1201
1.11751
1.11566
1.12327
1.15224
1.20011
1.25716
1.31227
1.3497
1.3599
1.36623
1.3711
1.36938
1.35976
1.3462
1.33891
1.33003
1.31779
1.30698
1.29824
1.28737
1.27341
1.25883
1.24571
1.23613
1.22855
1.21993
1.20653
1.1924
1.18352
1.17786
1.17382
1.17017
1.16645
1.16136
1.15073
1.13481
1.13105
1.13175
1.13488
1.14176
1.15581
1.17455
1.19499
1.21915
1.23667
1.28197
1.38649
1.5293
1.54849
1.55414
1.56207
1.57189
1.57664
1.57996
1.61626
1.77939
1.99007
2.04262
2.03346
2.00939
1.97509
1.9361
1.89155
1.84468
1.80026
1.76026
1.72352
1.68905
1.65659
1.62583
1.59647
1.56696
1.53513
1.50277
1.47346
1.44783
1.42563
1.40467
1.38291
1.35859
1.33498
1.31731
1.30137
1.28484
1.26793
1.25214
1.23664
1.21899
1.20356
1.19386
1.18411
1.17244
1.15727
1.14088
1.12546
1.11423
1.10777
1.09961
1.09011
1.08394
1.08164
1.09108
1.11909
1.16619
1.21932
1.26385
1.29819
1.33083
1.33057
1.32753
1.32369
1.32028
1.31555
1.30797
1.29842
1.28648
1.27407
1.26143
1.24737
1.23487
1.22545
1.21786
1.2072
1.19459
1.18578
1.18086
1.17827
1.1784
1.18009
1.18097
1.18395
1.18731
1.19677
1.21466
1.23515
1.26119
1.29282
1.31495
1.33696
1.34896
1.35847
1.37626
1.12526
1.34444
1.47711
1.53672
1.55446
1.56899
1.59854
1.68691
1.87907
2.06748
2.13302
2.1134
2.06063
2.00796
1.96985
1.9357
1.89736
1.85424
1.80921
1.76635
1.72789
1.69363
1.66193
1.63095
1.59989
1.56995
1.54067
1.50928
1.47966
1.45531
1.4339
1.41154
1.38691
1.36253
1.34231
1.32381
1.30439
1.28502
1.2665
1.24957
1.23345
1.21836
1.20611
1.19469
1.18313
1.17022
1.15448
1.13748
1.12206
1.11207
1.1051
1.09641
1.08547
1.07508
1.06694
1.05903
1.05637
1.05612
1.06587
1.09765
1.14524
1.20008
1.24041
1.26526
1.27539
1.28364
1.29371
1.29337
1.28627
1.27436
1.26445
1.25765
1.2503
1.24298
1.23739
1.23097
1.22844
1.2306
1.23568
1.24586
1.26586
1.28828
1.30643
1.31928
1.32796
1.33876
1.35292
1.36449
1.37806
1.40197
1.41703
1.4229
1.4254
1.42507
1.4282
1.43312
1.00861
1.08233
1.27915
1.45189
1.51503
1.62882
1.79347
1.96164
2.07949
2.12087
2.11569
2.09923
2.06671
2.0223
1.97872
1.938
1.89734
1.8567
1.81666
1.77781
1.7408
1.70546
1.67102
1.6377
1.60532
1.5725
1.54228
1.52181
1.50239
1.47934
1.45528
1.43099
1.4073
1.38602
1.36652
1.34615
1.32451
1.30317
1.28383
1.26691
1.25144
1.23678
1.22263
1.20876
1.19498
1.17962
1.16214
1.14547
1.1327
1.12316
1.11393
1.10303
1.08979
1.07704
1.06489
1.05573
1.05009
1.04374
1.03442
1.0285
1.03367
1.04912
1.07983
1.11058
1.14981
1.18728
1.22415
1.24892
1.25629
1.26268
1.26749
1.28088
1.29865
1.31148
1.32697
1.34925
1.37014
1.38127
1.3897
1.40335
1.42122
1.43229
1.43623
1.43417
1.42948
1.4301
1.42997
1.42961
1.43286
1.44058
1.44449
1.44682
1.4466
1.44323
1.44322
1.44095
1.00013
1.00434
1.05845
1.24319
1.54593
1.80951
1.99329
2.11651
2.17864
2.15454
2.10997
2.08648
2.06537
2.03376
1.99021
1.94253
1.89747
1.85692
1.8198
1.78356
1.74674
1.70931
1.67203
1.63635
1.60254
1.57222
1.54613
1.51914
1.49053
1.4635
1.43826
1.41467
1.39302
1.37334
1.35392
1.33276
1.30991
1.28762
1.26844
1.25292
1.23889
1.22448
1.20963
1.1949
1.18046
1.16527
1.14857
1.13293
1.12123
1.11202
1.10296
1.09265
1.08
1.06585
1.05243
1.04516
1.0415
1.03683
1.02805
1.01906
1.01432
1.01037
1.00193
1.00328
1.014
1.04237
1.09199
1.14564
1.21443
1.27844
1.32259
1.36779
1.40641
1.42644
1.44423
1.46779
1.48815
1.49734
1.5024
1.50865
1.51327
1.51336
1.51075
1.50597
1.49957
1.49263
1.48308
1.47846
1.4759
1.47068
1.46303
1.45548
1.44859
1.44105
1.43875
1.4334
1.00013
1.00434
1.05845
1.24319
1.54593
1.80951
1.99329
2.11651
2.17864
2.15454
2.10997
2.08648
2.06537
2.03376
1.99021
1.94253
1.89747
1.85692
1.8198
1.78356
1.74674
1.70931
1.67203
1.63635
1.60254
1.57222
1.54613
1.51914
1.49053
1.46351
1.43826
1.41467
1.39302
1.37334
1.35392
1.33276
1.30991
1.28762
1.26844
1.25292
1.23889
1.22448
1.20963
1.1949
1.18046
1.16527
1.14857
1.13293
1.12123
1.11202
1.10296
1.09265
1.08
1.06585
1.05243
1.04516
1.0415
1.03683
1.02805
1.01906
1.01432
1.01037
1.00193
1.00315
1.01462
1.04168
1.09055
1.15437
1.2129
1.26989
1.32987
1.36774
1.39841
1.42829
1.44978
1.46668
1.48413
1.49806
1.50531
1.50969
1.51096
1.51208
1.51121
1.50687
1.49903
1.49167
1.48371
1.47704
1.47508
1.47273
1.47046
1.46618
1.45726
1.44521
1.43853
1.42952
1.00861
1.08233
1.27915
1.45189
1.51503
1.62882
1.79347
1.96164
2.07949
2.12087
2.11569
2.09923
2.06671
2.0223
1.97872
1.938
1.89734
1.8567
1.81666
1.77781
1.7408
1.70546
1.67101
1.6377
1.60532
1.5725
1.54228
1.52181
1.50239
1.47934
1.45527
1.43099
1.4073
1.38602
1.36652
1.34615
1.32451
1.30317
1.28383
1.26691
1.25144
1.23678
1.22263
1.20876
1.19498
1.17962
1.16214
1.14547
1.1327
1.12316
1.11393
1.10303
1.08979
1.07704
1.06489
1.05573
1.05009
1.04374
1.03442
1.0285
1.03366
1.04915
1.07979
1.11092
1.14866
1.18991
1.22161
1.24904
1.2598
1.25951
1.26876
1.28094
1.29229
1.31452
1.33751
1.34788
1.3604
1.38125
1.39791
1.4067
1.41452
1.42643
1.43891
1.43767
1.42962
1.42866
1.4295
1.42939
1.43352
1.44
1.44194
1.44138
1.43995
1.43896
1.44129
1.43809
1.12526
1.34444
1.47711
1.53672
1.55446
1.56899
1.59854
1.68691
1.87907
2.06748
2.13302
2.1134
2.06063
2.00796
1.96985
1.9357
1.89736
1.85424
1.80921
1.76635
1.72789
1.69363
1.66193
1.63095
1.59989
1.56995
1.54067
1.50928
1.47966
1.45531
1.4339
1.41154
1.38691
1.36253
1.34231
1.32381
1.30439
1.28502
1.2665
1.24957
1.23345
1.21836
1.20611
1.19469
1.18313
1.17022
1.15448
1.13748
1.12206
1.11207
1.1051
1.09641
1.08547
1.07508
1.06694
1.05903
1.05637
1.05612
1.06587
1.09767
1.14518
1.20019
1.24023
1.26585
1.27444
1.28463
1.29354
1.29335
1.28697
1.27371
1.26489
1.25849
1.25014
1.24267
1.23855
1.23185
1.22632
1.22916
1.23809
1.24835
1.26139
1.282
1.30766
1.32614
1.33049
1.33708
1.35097
1.3651
1.37866
1.40176
1.41568
1.41798
1.41716
1.41672
1.42139
1.42814
1.38649
1.5293
1.54849
1.55414
1.56207
1.57189
1.57664
1.57996
1.61626
1.77939
1.99007
2.04262
2.03346
2.00939
1.97509
1.9361
1.89155
1.84468
1.80026
1.76026
1.72352
1.68905
1.65659
1.62583
1.59647
1.56696
1.53513
1.50277
1.47346
1.44783
1.42563
1.40467
1.38291
1.35859
1.33498
1.31731
1.30137
1.28484
1.26793
1.25214
1.23664
1.21899
1.20356
1.19386
1.18411
1.17244
1.15727
1.14088
1.12546
1.11423
1.10777
1.09961
1.09011
1.08394
1.08164
1.09108
1.11909
1.1662
1.21936
1.26377
1.29826
1.33091
1.33041
1.32757
1.32366
1.32038
1.31569
1.30786
1.29803
1.28674
1.27417
1.26122
1.24735
1.23495
1.22596
1.21782
1.20668
1.19433
1.18614
1.18109
1.17746
1.17775
1.18134
1.18424
1.1851
1.18651
1.19528
1.21451
1.23552
1.26182
1.29268
1.31382
1.33489
1.34419
1.35327
1.37269
1.53053
1.56883
1.57771
1.57469
1.57482
1.57535
1.57482
1.57125
1.55705
1.56019
1.65426
1.83316
1.97929
1.99081
1.97115
1.92376
1.87209
1.82752
1.791
1.75759
1.72316
1.68766
1.65264
1.61864
1.58645
1.55554
1.52396
1.49381
1.46992
1.45041
1.43025
1.40685
1.38145
1.35567
1.3298
1.31301
1.30383
1.29309
1.27983
1.26707
1.25331
1.23385
1.20816
1.19697
1.19355
1.186
1.17068
1.15234
1.13204
1.1201
1.11751
1.11566
1.12327
1.15224
1.20011
1.25715
1.31227
1.34971
1.3599
1.36622
1.37112
1.36938
1.3597
1.34624
1.33897
1.33004
1.31768
1.30694
1.29822
1.28754
1.27352
1.25888
1.24578
1.23625
1.22866
1.21973
1.20614
1.19239
1.18376
1.17791
1.1736
1.17001
1.16661
1.16141
1.15061
1.13479
1.13099
1.13176
1.13508
1.14223
1.15663
1.17525
1.19518
1.21744
1.23421
1.27977
1.55726
1.56481
1.57055
1.57598
1.57982
1.57821
1.5728
1.56304
1.54262
1.51894
1.49279
1.52946
1.6876
1.84209
1.88958
1.8787
1.85077
1.8129
1.77752
1.74519
1.71272
1.6781
1.64199
1.60534
1.57052
1.54019
1.51561
1.494
1.46952
1.44328
1.42081
1.40003
1.37948
1.35653
1.33253
1.31562
1.30023
1.28355
1.26824
1.25747
1.24821
1.23554
1.21546
1.19712
1.19063
1.18411
1.17451
1.16077
1.14376
1.14435
1.15932
1.20278
1.27393
1.33501
1.37915
1.41994
1.4318
1.4259
1.41595
1.4097
1.40391
1.39411
1.37861
1.36153
1.35099
1.34127
1.33013
1.32043
1.31103
1.29882
1.28185
1.26166
1.24929
1.24403
1.23834
1.22901
1.21373
1.19922
1.19059
1.18464
1.17944
1.17341
1.1668
1.15936
1.14732
1.13136
1.12398
1.12329
1.12345
1.12494
1.12521
1.12527
1.12519
1.12266
1.12282
1.13953
1.58232
1.57973
1.57981
1.58182
1.58312
1.57994
1.56859
1.54843
1.5215
1.4855
1.45198
1.41087
1.42063
1.51153
1.65631
1.78554
1.81481
1.79988
1.76331
1.72327
1.68502
1.65083
1.6215
1.59404
1.56612
1.53823
1.51175
1.486
1.45827
1.43114
1.41121
1.39556
1.37974
1.35986
1.3364
1.31938
1.30415
1.28827
1.2727
1.26168
1.25349
1.2414
1.22397
1.20456
1.19648
1.19184
1.18616
1.19281
1.21836
1.28242
1.35102
1.41616
1.45309
1.46449
1.47374
1.47256
1.46431
1.44877
1.43576
1.42578
1.41176
1.39384
1.37375
1.35687
1.34543
1.3345
1.32412
1.31537
1.3061
1.29378
1.27825
1.2616
1.24883
1.23939
1.23243
1.22375
1.20892
1.1951
1.18729
1.18054
1.17458
1.16899
1.16407
1.15778
1.14639
1.13028
1.12405
1.12299
1.12267
1.12272
1.12148
1.11972
1.11763
1.11316
1.10477
1.0977
1.58033
1.57943
1.57941
1.58001
1.5798
1.57122
1.54957
1.52023
1.48618
1.43618
1.40541
1.37301
1.33605
1.31157
1.34955
1.48959
1.6483
1.72732
1.72153
1.69377
1.65603
1.6245
1.59916
1.57567
1.55046
1.52391
1.49886
1.47669
1.45536
1.43214
1.40975
1.39495
1.38245
1.36601
1.34446
1.32747
1.31393
1.30034
1.28412
1.27224
1.26482
1.25316
1.23893
1.22137
1.22158
1.2372
1.28365
1.35677
1.43597
1.48636
1.52017
1.53567
1.52821
1.52112
1.51359
1.5021
1.48873
1.47417
1.45942
1.44004
1.41775
1.39479
1.3739
1.36054
1.3494
1.33798
1.32752
1.31881
1.31
1.29834
1.28351
1.26749
1.2552
1.24466
1.23451
1.22567
1.21285
1.1994
1.19225
1.1857
1.17798
1.17048
1.16471
1.15889
1.14875
1.13328
1.12597
1.12392
1.12315
1.12201
1.11956
1.11651
1.11378
1.10879
1.1023
1.094
1.58086
1.5807
1.58027
1.57949
1.57313
1.55181
1.51803
1.4809
1.43262
1.38884
1.35483
1.32081
1.28061
1.25028
1.22139
1.23686
1.34402
1.5033
1.62241
1.64873
1.63701
1.61016
1.58071
1.55496
1.5296
1.50807
1.4909
1.47363
1.45501
1.43494
1.41391
1.39897
1.38962
1.37628
1.35691
1.34096
1.33061
1.31937
1.30117
1.28807
1.28292
1.27512
1.28011
1.30358
1.36458
1.43615
1.50253
1.55754
1.58186
1.57488
1.57043
1.56196
1.54822
1.53403
1.51702
1.4976
1.47921
1.46382
1.45091
1.43884
1.42404
1.40589
1.38769
1.37082
1.35563
1.34384
1.33418
1.32465
1.31571
1.30599
1.29333
1.27875
1.26661
1.25506
1.24126
1.22845
1.21685
1.20999
1.20514
1.19876
1.18849
1.17738
1.16756
1.15918
1.14843
1.13692
1.13141
1.1287
1.12646
1.1237
1.12039
1.11576
1.10982
1.10274
1.09765
1.09195
1.58311
1.58226
1.58023
1.57313
1.55218
1.51516
1.47092
1.42619
1.3741
1.33056
1.29432
1.25852
1.22725
1.1947
1.16939
1.14212
1.14618
1.20795
1.3598
1.51062
1.57061
1.57795
1.56635
1.54284
1.51891
1.50156
1.48721
1.471
1.45632
1.44189
1.42595
1.40953
1.40054
1.39151
1.37714
1.36276
1.35319
1.34389
1.32682
1.31962
1.32964
1.37334
1.44307
1.52617
1.58686
1.61881
1.64376
1.64081
1.62849
1.61479
1.60173
1.58227
1.56031
1.53881
1.51741
1.49569
1.47583
1.46057
1.44998
1.44117
1.4299
1.41526
1.39821
1.37957
1.36202
1.35037
1.34248
1.33379
1.32335
1.31315
1.30335
1.29025
1.27469
1.26218
1.24944
1.23643
1.22586
1.21652
1.20892
1.20382
1.19809
1.18816
1.17433
1.16125
1.15158
1.14289
1.13853
1.13519
1.13112
1.12679
1.12202
1.1157
1.10822
1.10242
1.09779
1.09098
1.57707
1.5741
1.56737
1.54614
1.50946
1.46208
1.41001
1.35676
1.30919
1.27146
1.23063
1.18901
1.16463
1.14095
1.12033
1.10217
1.08482
1.08695
1.11702
1.25201
1.39885
1.49774
1.54291
1.54166
1.53249
1.51411
1.49505
1.47556
1.46455
1.45804
1.44908
1.43304
1.41841
1.41226
1.40237
1.3917
1.38145
1.37912
1.39301
1.4467
1.52483
1.59971
1.64972
1.68883
1.68504
1.67591
1.66382
1.64732
1.62446
1.60438
1.58973
1.57808
1.56241
1.54245
1.52035
1.49839
1.47866
1.46334
1.45318
1.44522
1.43582
1.42202
1.4052
1.3866
1.36875
1.35711
1.34952
1.34234
1.33331
1.32088
1.30802
1.29484
1.27858
1.26589
1.25815
1.24964
1.237
1.22576
1.21899
1.21197
1.20184
1.1889
1.17245
1.15931
1.15399
1.15263
1.15116
1.14668
1.14104
1.13548
1.12975
1.12156
1.11045
1.1055
1.10298
1.09489
1.56464
1.55909
1.54079
1.50224
1.44981
1.3954
1.33778
1.2855
1.24663
1.20183
1.15219
1.12752
1.11206
1.08467
1.06596
1.05914
1.04943
1.04364
1.04448
1.06697
1.16763
1.319
1.47509
1.52017
1.52868
1.52788
1.51644
1.49621
1.47824
1.47265
1.46863
1.46023
1.44351
1.43206
1.42507
1.42757
1.44803
1.50905
1.59978
1.67775
1.71635
1.74625
1.74469
1.73935
1.72438
1.70192
1.66912
1.63871
1.61498
1.59833
1.58417
1.57194
1.55963
1.54152
1.51992
1.50089
1.48466
1.47166
1.46164
1.45126
1.44214
1.43097
1.41373
1.3944
1.37862
1.36716
1.3566
1.34592
1.33706
1.32918
1.3156
1.29702
1.28285
1.27255
1.26251
1.25086
1.2376
1.23327
1.22987
1.22193
1.20981
1.19252
1.17225
1.16214
1.15757
1.15274
1.14853
1.14381
1.13834
1.13201
1.12306
1.11151
1.10144
1.09845
1.09753
1.09644
1.55265
1.53562
1.49805
1.43862
1.3764
1.31959
1.25456
1.2093
1.17894
1.13251
1.09546
1.08558
1.0699
1.04861
1.04722
1.04815
1.04425
1.03954
1.04051
1.04301
1.05459
1.11094
1.29567
1.44346
1.51042
1.53286
1.5298
1.52075
1.50162
1.4911
1.48615
1.47973
1.47064
1.47781
1.51872
1.58655
1.65838
1.72376
1.77422
1.77694
1.7712
1.76548
1.75209
1.73056
1.70439
1.67827
1.65611
1.64025
1.62773
1.61351
1.5972
1.57711
1.55443
1.53368
1.5152
1.50296
1.49516
1.48672
1.47685
1.46482
1.44607
1.42448
1.4068
1.39363
1.38472
1.37715
1.36794
1.35698
1.34415
1.32632
1.30526
1.29019
1.28409
1.27715
1.26653
1.25529
1.24676
1.23756
1.22669
1.21565
1.20259
1.18607
1.16989
1.16324
1.15875
1.15436
1.15039
1.14553
1.14012
1.13418
1.12268
1.10481
1.09954
1.09877
1.0973
1.09147
1.53373
1.49363
1.42869
1.3502
1.28865
1.22386
1.16312
1.13071
1.10099
1.05993
1.04712
1.04766
1.04114
1.039
1.0412
1.04582
1.05316
1.05616
1.05888
1.06487
1.07268
1.07946
1.121
1.26542
1.38885
1.49708
1.53379
1.5294
1.51631
1.51254
1.51704
1.53563
1.58121
1.65508
1.74238
1.79468
1.81999
1.83478
1.83075
1.81943
1.80106
1.76952
1.73495
1.70772
1.68682
1.66903
1.6566
1.6434
1.62554
1.6053
1.58729
1.56954
1.54982
1.53159
1.5186
1.50964
1.49902
1.4835
1.46585
1.45227
1.43795
1.42106
1.40714
1.39875
1.39159
1.3817
1.36665
1.34919
1.33581
1.32147
1.30515
1.2954
1.28893
1.28066
1.27083
1.2612
1.25197
1.24174
1.23122
1.21978
1.20481
1.1869
1.17393
1.1685
1.16445
1.16043
1.15613
1.15025
1.1432
1.13464
1.12171
1.10659
1.10283
1.10136
1.09845
1.09094
1.49548
1.41578
1.30817
1.23759
1.19438
1.1297
1.09225
1.08139
1.0604
1.05292
1.0551
1.06109
1.06114
1.06181
1.06552
1.07347
1.08118
1.08345
1.08721
1.09377
1.09569
1.09379
1.09501
1.11584
1.19443
1.33449
1.47797
1.50415
1.54385
1.6051
1.66146
1.72318
1.76927
1.81458
1.83395
1.84498
1.85477
1.84295
1.82147
1.80102
1.77814
1.75261
1.72723
1.70607
1.69139
1.68088
1.66882
1.65268
1.63314
1.60999
1.58423
1.56612
1.55463
1.54455
1.53572
1.52602
1.51282
1.49326
1.46683
1.44438
1.43302
1.42585
1.41949
1.41293
1.4049
1.39387
1.37674
1.35275
1.33071
1.31964
1.31325
1.30694
1.29916
1.29025
1.28065
1.27098
1.26125
1.25163
1.24127
1.22868
1.21276
1.19566
1.18571
1.18103
1.17686
1.17209
1.16613
1.15869
1.15007
1.13981
1.12623
1.11458
1.11104
1.10847
1.10445
1.09656
1.39753
1.228
1.09214
1.03846
0.997562
0.976092
0.987279
1.01792
1.03344
1.04352
1.06791
1.10233
1.10641
1.10331
1.10506
1.1111
1.11214
1.1113
1.11408
1.11748
1.11673
1.11429
1.10987
1.10571
1.11021
1.15277
1.32386
1.5351
1.67208
1.78404
1.88709
1.95809
1.98653
1.98612
1.96358
1.9201
1.87899
1.8423
1.81359
1.78729
1.76238
1.7388
1.71698
1.69786
1.68294
1.67285
1.66051
1.64401
1.62494
1.60149
1.57349
1.55394
1.54377
1.53573