/*--------------------------------*- C++ -*----------------------------------*\
  =========                 |
  \\      /  F ield         | OpenFOAM: The Open Source CFD Toolbox
   \\    /   O peration     | Website:  https://openfoam.org
    \\  /    A nd           | Version:  7
     \\/     M anipulation  |
\*---------------------------------------------------------------------------*/
FoamFile
{
    version     2.0;
    format      ascii;
    class       volVectorField;
    location    "0.8";
    object      U;
}
// * * * * * * * * * * * * * * * * * * * * * * * * * * * * * * * * * * * * * //

dimensions      [0 1 -1 0 0 0 0];

internalField   nonuniform List<vector> 
4608
(
(3 -5.69299e-16 0)
(3 1.6202e-16 0)
(3 8.91494e-16 0)
(3 1.39925e-15 0)
(3 1.22259e-15 0)
(3 9.34717e-16 0)
(3 3.33038e-16 0)
(3 -7.00067e-16 0)
(3 -6.8219e-16 0)
(3 -8.56684e-16 0)
(3 -8.66882e-16 0)
(3 -1.85458e-16 0)
(3 1.33912e-18 0)
(3 1.55414e-16 0)
(3 -4.34933e-16 0)
(3 -2.23327e-15 0)
(3 -2.41961e-15 0)
(3 -1.59346e-15 0)
(3 -8.01542e-16 0)
(3 -2.76093e-16 0)
(3 8.84818e-16 0)
(3 1.11761e-15 0)
(3 1.37038e-15 0)
(3 1.67867e-15 0)
(3 -3.44123e-16 0)
(3 -5.73869e-17 0)
(3 4.99315e-16 0)
(3 1.11077e-15 0)
(3 6.49328e-16 0)
(3 1.02232e-16 0)
(3 -3.06275e-16 0)
(3 -7.43014e-16 0)
(3 -5.62689e-16 0)
(3 -3.82362e-16 0)
(3 3.9421e-17 0)
(3 6.40158e-16 0)
(3 1.08668e-15 0)
(3 1.49672e-15 0)
(3 9.50078e-16 0)
(3 -3.06407e-16 0)
(3 -1.81854e-15 0)
(3 -1.32247e-15 0)
(3 -7.79776e-16 0)
(3 -8.83069e-16 0)
(3 -7.97551e-16 0)
(3 -5.70853e-16 0)
(3 -6.68841e-16 0)
(3 2.34194e-16 0)
(3 8.96006e-17 0)
(3 -2.20636e-16 0)
(3 -1.66068e-16 0)
(3 -1.27308e-16 0)
(3 -1.15039e-16 0)
(3 -5.56883e-16 0)
(3 1.95687e-16 0)
(3 6.91794e-16 0)
(3 4.69027e-16 0)
(3 4.11405e-16 0)
(3 2.25699e-16 0)
(3 4.46278e-16 0)
(3 1.11508e-15 0)
(3 1.4154e-15 0)
(3 6.46452e-16 0)
(3 -3.29953e-17 0)
(3 -1.6265e-16 0)
(3 -8.48002e-16 0)
(3 -1.0682e-15 0)
(3 -1.34766e-15 0)
(3 -1.29279e-15 0)
(3 -1.2326e-15 0)
(3 -9.12274e-16 0)
(3 -6.8655e-16 0)
(3 2.88624e-16 0)
(3 -1.40728e-16 0)
(3 -3.42029e-16 0)
(3 -7.37922e-16 0)
(3 -7.13823e-16 0)
(3 -5.86803e-16 0)
(3 -1.4127e-17 0)
(3 1.8961e-16 0)
(3 -7.03355e-17 0)
(3 -2.66214e-17 0)
(3 -1.77178e-16 0)
(3 5.50678e-16 0)
(3 1.31548e-15 0)
(3 1.07381e-15 0)
(3 1.00379e-15 0)
(3 1.37086e-15 0)
(3 1.79768e-15 0)
(3 2.62737e-16 0)
(3 -4.03502e-16 0)
(3 -8.56919e-16 0)
(3 -1.46571e-15 0)
(3 -1.28711e-15 0)
(3 3.39806e-16 0)
(3 7.15893e-16 0)
(3 -1.47956e-16 0)
(3 -5.05085e-17 0)
(3 -4.07829e-16 0)
(3 -3.83497e-16 0)
(3 -3.57992e-16 0)
(3 -6.05453e-16 0)
(3 -7.74186e-16 0)
(3 -9.81957e-16 0)
(3 6.94552e-17 0)
(3 -5.54857e-18 0)
(3 1.74756e-16 0)
(3 1.35169e-15 0)
(3 2.41597e-15 0)
(3 2.18809e-15 0)
(3 2.48277e-15 0)
(3 3.52808e-15 0)
(3 3.41326e-15 0)
(3 2.05369e-15 0)
(3 -4.95247e-16 0)
(3 -2.61394e-15 0)
(3 -2.83244e-15 0)
(3 -2.68777e-15 0)
(3 -2.47516e-15 0)
(3 -2.2047e-15 0)
(3 -5.24993e-16 0)
(3 1.10565e-16 0)
(3 9.32009e-16 0)
(3 1.13766e-15 0)
(3 1.50694e-15 0)
(3 1.30626e-15 0)
(3 7.39657e-16 0)
(3 4.96442e-16 0)
(3 8.3718e-16 0)
(3 7.28497e-16 0)
(3 1.02691e-15 0)
(3 2.02492e-15 0)
(3 2.20211e-15 0)
(3 1.91284e-15 0)
(3 1.56893e-15 0)
(3 1.4248e-15 0)
(3 1.65408e-15 0)
(3 2.11302e-15 0)
(3 1.28804e-15 0)
(3 -5.73416e-17 0)
(3 -2.57355e-15 0)
(3 -3.22107e-15 0)
(3 -4.28001e-15 0)
(3 -4.19051e-15 0)
(3 7.06029e-17 0)
(3 2.29657e-16 0)
(3 3.80643e-16 0)
(3 6.28305e-16 0)
(3 3.65795e-16 0)
(3 6.01558e-16 0)
(3 3.8168e-16 0)
(3 1.77989e-16 0)
(3 -3.33332e-16 0)
(3 2.01968e-17 0)
(3 1.04024e-15 0)
(3 2.06969e-15 0)
(3 1.79757e-15 0)
(3 9.78362e-16 0)
(3 -4.28145e-17 0)
(3 -2.06203e-16 0)
(3 2.23379e-16 0)
(3 1.21704e-15 0)
(3 1.71227e-15 0)
(3 8.205e-16 0)
(3 -1.71563e-15 0)
(3 -2.54862e-15 0)
(3 -3.18822e-15 0)
(3 -2.9573e-15 0)
(3 8.42316e-16 0)
(3 1.22359e-16 0)
(3 -4.24532e-16 0)
(3 -3.92949e-16 0)
(3 -5.53043e-16 0)
(3 -3.01927e-16 0)
(3 -3.74014e-16 0)
(3 -6.63123e-16 0)
(3 -1.42647e-15 0)
(3 -6.90062e-16 0)
(3 6.71953e-16 0)
(3 6.39405e-16 0)
(3 9.52407e-16 0)
(3 1.72481e-16 0)
(3 -1.15125e-15 0)
(3 -1.92586e-15 0)
(3 -5.49415e-16 0)
(3 1.71233e-16 0)
(3 2.08584e-15 0)
(3 1.16248e-15 0)
(3 5.48775e-16 0)
(3 4.36548e-16 0)
(3 -3.45341e-16 0)
(3 -1.53367e-15 0)
(3 -3.09841e-16 0)
(3 8.43969e-17 0)
(3 7.00333e-17 0)
(3 -4.77032e-16 0)
(3 -5.00955e-16 0)
(3 -3.11403e-16 0)
(3 -2.40957e-16 0)
(3 -2.79255e-16 0)
(3 2.86632e-16 0)
(3 5.21296e-16 0)
(3 4.05644e-16 0)
(3 -2.61976e-16 0)
(3 -5.01511e-16 0)
(3 -7.10383e-16 0)
(3 -1.36294e-15 0)
(3 -2.3471e-15 0)
(3 -9.14175e-16 0)
(3 2.69513e-16 0)
(3 1.06437e-15 0)
(3 2.25081e-15 0)
(3 2.9687e-15 0)
(3 2.58319e-15 0)
(3 9.21751e-16 0)
(3 -8.91969e-16 0)
(3 -2.07066e-16 0)
(3 -6.81466e-17 0)
(3 2.43017e-16 0)
(3 3.28096e-16 0)
(3 2.68986e-16 0)
(3 4.86582e-16 0)
(3 5.11762e-16 0)
(3 3.69163e-16 0)
(3 8.8626e-16 0)
(3 1.1296e-15 0)
(3 2.01652e-16 0)
(3 -2.33564e-16 0)
(3 -9.62887e-16 0)
(3 -1.64377e-15 0)
(3 -1.57476e-15 0)
(3 -1.25477e-15 0)
(3 -2.05646e-15 0)
(3 -5.12801e-16 0)
(3 1.80569e-15 0)
(3 2.63007e-15 0)
(3 3.49242e-15 0)
(3 2.88814e-15 0)
(3 2.91902e-16 0)
(3 -1.2522e-16 0)
(3 8.55123e-16 0)
(3 -4.98755e-20 0)
(3 2.83183e-16 0)
(3 6.87078e-16 0)
(3 8.46074e-16 0)
(3 8.03094e-16 0)
(3 7.49043e-16 0)
(3 5.56549e-16 0)
(3 -2.42722e-16 0)
(3 -7.76346e-16 0)
(3 -9.24629e-16 0)
(3 1.08977e-16 0)
(3 5.83421e-16 0)
(3 -4.54033e-17 0)
(3 4.38629e-16 0)
(3 1.01759e-15 0)
(3 -6.78116e-16 0)
(3 -4.84568e-16 0)
(3 2.5538e-15 0)
(3 2.35377e-15 0)
(3 2.14232e-15 0)
(3 1.50475e-15 0)
(3 4.66094e-16 0)
(3 4.37261e-16 0)
(3 -7.01113e-16 0)
(3 8.35967e-17 0)
(3 7.14527e-17 0)
(3 1.52878e-16 0)
(3 3.52911e-16 0)
(3 3.97282e-16 0)
(3 8.71194e-16 0)
(3 1.11334e-15 0)
(3 3.53452e-16 0)
(3 2.1798e-16 0)
(3 -3.04319e-16 0)
(3 -4.03504e-16 0)
(3 1.19001e-15 0)
(3 2.79596e-15 0)
(3 2.53345e-15 0)
(3 1.99347e-15 0)
(3 8.35068e-16 0)
(3 -2.11504e-16 0)
(3 1.94569e-16 0)
(3 9.75024e-16 0)
(3 5.13273e-16 0)
(3 1.10709e-16 0)
(3 5.43091e-16 0)
(3 5.20147e-16 0)
(3 -3.47895e-16 0)
(3 2.29371e-16 0)
(3 -2.53393e-16 0)
(3 -4.5674e-16 0)
(3 -8.88787e-16 0)
(3 -6.23397e-16 0)
(3 3.82791e-16 0)
(3 1.30287e-15 0)
(3 1.35454e-15 0)
(3 1.40378e-15 0)
(3 1.49048e-15 0)
(3 5.26324e-16 0)
(3 3.65882e-16 0)
(3 1.55127e-15 0)
(3 1.2992e-15 0)
(3 4.71754e-16 0)
(3 4.27006e-17 0)
(3 -6.79335e-16 0)
(3 -6.58273e-16 0)
(3 -8.29334e-16 0)
(3 -6.53171e-16 0)
(3 -3.33717e-16 0)
(3 7.88395e-16 0)
(3 1.48501e-15 0)
(3 8.14908e-16 0)
(3 2.46612e-16 0)
(3 -1.45082e-16 0)
(3 -7.36567e-16 0)
(3 -6.94089e-16 0)
(3 -7.66314e-16 0)
(3 -5.27983e-16 0)
(3 1.85436e-16 0)
(3 6.56921e-16 0)
(3 5.32985e-16 0)
(3 7.79867e-16 0)
(3 4.05734e-16 0)
(3 -3.63228e-16 0)
(3 -2.11202e-16 0)
(3 -5.61498e-16 0)
(3 -6.162e-16 0)
(3 -3.6903e-16 0)
(3 6.61023e-17 0)
(3 9.98287e-16 0)
(3 6.21885e-16 0)
(3 2.47153e-16 0)
(3 3.1142e-16 0)
(3 1.93423e-15 0)
(3 3.67722e-15 0)
(3 3.73517e-16 0)
(3 -3.97421e-16 0)
(3 -9.98279e-16 0)
(3 -1.17137e-15 0)
(3 2.3641e-17 0)
(3 6.91279e-16 0)
(3 9.38885e-17 0)
(3 -2.93574e-16 0)
(3 -2.19804e-16 0)
(3 9.53058e-17 0)
(3 -9.45937e-17 0)
(3 -3.2965e-16 0)
(3 -1.8753e-16 0)
(3 -6.16336e-16 0)
(3 -1.82945e-15 0)
(3 -2.15329e-15 0)
(3 -1.22465e-15 0)
(3 -6.20294e-16 0)
(3 4.41839e-16 0)
(3 8.25117e-16 0)
(3 6.91284e-16 0)
(3 1.22467e-15 0)
(3 2.13983e-15 0)
(3 2.9846e-15 0)
(3 1.87395e-16 0)
(3 -6.08721e-16 0)
(3 -6.96178e-16 0)
(3 -1.04825e-15 0)
(3 -5.51962e-16 0)
(3 2.16621e-17 0)
(3 -1.31769e-16 0)
(3 -7.06577e-16 0)
(3 -4.12581e-16 0)
(3 -2.83451e-16 0)
(3 -5.7141e-16 0)
(3 -1.11661e-15 0)
(3 -1.14811e-15 0)
(3 -2.07749e-15 0)
(3 -2.88862e-15 0)
(3 -2.88038e-15 0)
(3 -3.29244e-15 0)
(3 -3.25305e-15 0)
(3 -2.4745e-15 0)
(3 -2.53196e-15 0)
(3 -2.21104e-15 0)
(3 -1.23711e-15 0)
(3 5.09075e-16 0)
(3 1.60195e-15 0)
(3 -2.48739e-16 0)
(3 4.4237e-16 0)
(3 6.99765e-16 0)
(3 5.65199e-16 0)
(3 -7.45732e-16 0)
(3 -8.36491e-16 0)
(3 -7.62807e-16 0)
(3 9.95655e-17 0)
(3 2.21565e-16 0)
(3 2.88498e-16 0)
(3 -6.19865e-17 0)
(3 -6.95928e-16 0)
(3 -1.67483e-15 0)
(3 -1.98975e-15 0)
(3 -1.46226e-15 0)
(3 -1.00736e-15 0)
(3 -4.35046e-17 0)
(3 -1.111e-15 0)
(3 -4.96958e-15 0)
(3 -5.30079e-15 0)
(3 -2.79928e-15 0)
(3 -1.58722e-15 0)
(3 5.34666e-16 0)
(3 2.20177e-15 0)
(3 -5.166e-16 0)
(3 6.14518e-16 0)
(3 6.87957e-16 0)
(3 6.88568e-16 0)
(3 -4.87794e-16 0)
(3 -7.29836e-16 0)
(3 -2.4358e-16 0)
(3 6.4471e-16 0)
(3 -8.39822e-17 0)
(3 1.41653e-16 0)
(3 4.42574e-16 0)
(3 3.93599e-16 0)
(3 -2.71411e-16 0)
(3 -3.68932e-16 0)
(3 -1.12974e-16 0)
(3 -1.91656e-16 0)
(3 1.1677e-15 0)
(3 3.75633e-16 0)
(3 -4.36217e-15 0)
(3 -4.3275e-15 0)
(3 -1.91107e-15 0)
(3 -1.40189e-15 0)
(3 -4.53688e-16 0)
(3 2.19443e-16 0)
(3 -1.56193e-16 0)
(3 -1.26402e-16 0)
(3 -7.85109e-16 0)
(3 -1.1549e-15 0)
(3 -8.81626e-16 0)
(3 -7.48741e-16 0)
(3 1.5029e-16 0)
(3 5.57061e-16 0)
(3 1.04602e-16 0)
(3 1.28169e-16 0)
(3 8.85746e-17 0)
(3 1.07416e-15 0)
(3 2.16913e-15 0)
(3 1.1799e-15 0)
(3 -3.92177e-16 0)
(3 -1.13917e-15 0)
(3 -1.06302e-16 0)
(3 6.99769e-16 0)
(3 -7.53738e-16 0)
(3 -1.08324e-15 0)
(3 -7.95005e-16 0)
(3 -6.0367e-16 0)
(3 5.27588e-16 0)
(3 7.86377e-16 0)
(3 1.5106e-16 0)
(3 -1.13368e-16 0)
(3 -3.58321e-16 0)
(3 -1.14083e-16 0)
(3 1.07093e-16 0)
(3 2.80891e-16 0)
(3 4.31976e-16 0)
(3 8.4159e-16 0)
(3 1.6048e-16 0)
(3 -9.83066e-18 0)
(3 -7.06692e-16 0)
(3 2.55033e-16 0)
(3 8.42299e-16 0)
(3 9.40931e-16 0)
(3 7.12346e-16 0)
(3 3.72486e-16 0)
(3 -8.63448e-16 0)
(3 3.58741e-16 0)
(3 2.75371e-15 0)
(3 2.9346e-15 0)
(3 1.25427e-15 0)
(3 1.32229e-15 0)
(3 2.24688e-15 0)
(3 2.53476e-15 0)
(3 -2.95912e-16 0)
(3 4.89212e-16 0)
(3 1.24796e-15 0)
(3 2.09816e-15 0)
(3 1.96845e-15 0)
(3 8.73015e-16 0)
(3 -3.5358e-16 0)
(3 -7.25205e-16 0)
(3 1.44469e-17 0)
(3 -6.1986e-16 0)
(3 -2.04573e-16 0)
(3 -5.84864e-16 0)
(3 -8.47329e-16 0)
(3 -3.34666e-16 0)
(3 1.74017e-15 0)
(3 1.83185e-15 0)
(3 2.91078e-16 0)
(3 1.31122e-15 0)
(3 3.59101e-15 0)
(3 4.88164e-15 0)
(3 3.75072e-15 0)
(3 3.17765e-15 0)
(3 1.77662e-15 0)
(3 1.2092e-15 0)
(3 -7.30134e-17 0)
(3 2.38974e-16 0)
(3 1.67926e-16 0)
(3 1.14722e-16 0)
(3 5.53191e-16 0)
(3 3.67932e-16 0)
(3 -6.74266e-16 0)
(3 -9.1375e-16 0)
(3 1.80175e-16 0)
(3 4.95107e-16 0)
(3 6.74247e-16 0)
(3 -5.92913e-16 0)
(3 -1.72381e-15 0)
(3 -7.52687e-16 0)
(3 7.7384e-16 0)
(3 1.26946e-15 0)
(3 1.36594e-15 0)
(3 1.94804e-15 0)
(3 3.91717e-15 0)
(3 4.328e-15 0)
(3 4.55606e-15 0)
(3 3.86956e-15 0)
(3 2.42983e-15 0)
(3 1.24827e-15 0)
(3 6.79788e-18 0)
(3 -6.79516e-17 0)
(3 -1.85981e-16 0)
(3 -2.55714e-16 0)
(3 8.26641e-17 0)
(3 3.10174e-16 0)
(3 4.79772e-16 0)
(3 3.67021e-16 0)
(3 -2.47274e-16 0)
(3 -3.03011e-17 0)
(3 2.28105e-16 0)
(3 -8.1452e-16 0)
(3 -9.72525e-16 0)
(3 -1.96014e-16 0)
(3 -4.21356e-16 0)
(3 -7.18977e-17 0)
(3 1.46369e-16 0)
(3 3.08204e-16 0)
(3 2.01419e-15 0)
(3 2.28064e-15 0)
(3 1.75072e-15 0)
(3 1.7249e-15 0)
(3 2.64163e-15 0)
(3 3.0292e-15 0)
(3 -2.97062e-17 0)
(3 -1.49291e-17 0)
(3 3.17579e-16 0)
(3 9.4187e-16 0)
(3 1.00796e-15 0)
(3 6.3535e-16 0)
(3 2.74874e-16 0)
(3 -2.26661e-16 0)
(3 -5.53326e-16 0)
(3 -1.16825e-15 0)
(3 -1.19761e-15 0)
(3 -1.23547e-15 0)
(3 -7.83631e-16 0)
(3 -8.83167e-16 0)
(3 -1.42396e-15 0)
(3 -2.04895e-15 0)
(3 -6.87299e-16 0)
(3 1.25089e-16 0)
(3 5.33275e-16 0)
(3 7.38641e-16 0)
(3 4.42671e-16 0)
(3 3.73484e-16 0)
(3 2.07696e-15 0)
(3 2.13323e-15 0)
(3 -1.67112e-16 0)
(3 -8.57867e-17 0)
(3 2.52837e-16 0)
(3 1.42533e-16 0)
(3 -1.93545e-16 0)
(3 5.31697e-17 0)
(3 -3.10788e-17 0)
(3 -5.89718e-16 0)
(3 -1.07776e-15 0)
(3 -1.30607e-15 0)
(3 -1.47903e-15 0)
(3 -1.28383e-15 0)
(3 -1.92028e-15 0)
(3 -1.762e-15 0)
(3 -7.73442e-16 0)
(3 -4.82787e-16 0)
(3 -5.69272e-16 0)
(3 -2.73202e-16 0)
(3 5.29552e-17 0)
(3 7.10196e-17 0)
(3 1.3463e-16 0)
(3 2.94364e-17 0)
(3 -2.1788e-17 0)
(3 -9.21985e-16 0)
(3 -3.03304e-16 0)
(3 -2.13657e-16 0)
(3 -1.85347e-16 0)
(3 -3.83411e-16 0)
(3 -2.74642e-16 0)
(3 5.63371e-17 0)
(3 3.9494e-16 0)
(3 1.9316e-16 0)
(3 -9.79152e-18 0)
(3 6.75765e-17 0)
(3 -1.61611e-16 0)
(3 -1.4962e-15 0)
(3 -1.62397e-15 0)
(3 -1.10058e-15 0)
(3 -5.89546e-16 0)
(3 -2.38704e-16 0)
(3 -6.06803e-16 0)
(3 -8.4348e-16 0)
(3 -2.22311e-15 0)
(3 -1.3813e-15 0)
(3 -5.18681e-16 0)
(3 -4.13736e-16 0)
(3 -1.14066e-15 0)
(3 -1.09454e-15 0)
(3 2.13093e-16 0)
(3 -2.44777e-16 0)
(3 -7.09561e-16 0)
(3 -5.05103e-16 0)
(3 -2.27635e-16 0)
(3 1.59109e-16 0)
(3 5.76239e-16 0)
(3 1.3646e-15 0)
(3 1.7389e-15 0)
(3 2.07032e-15 0)
(3 9.94381e-16 0)
(3 3.24011e-16 0)
(3 4.41776e-17 0)
(3 8.88366e-17 0)
(3 -2.19293e-16 0)
(3 -4.87843e-16 0)
(3 -4.61215e-16 0)
(3 -3.85006e-16 0)
(3 -1.97082e-15 0)
(3 -1.62776e-15 0)
(3 -7.30581e-16 0)
(3 2.94163e-16 0)
(3 -7.49942e-16 0)
(3 -7.0783e-16 0)
(3 2.97617e-16 0)
(3 -1.18974e-16 0)
(3 -4.97151e-16 0)
(3 -1.50656e-15 0)
(3 -8.81572e-16 0)
(3 -6.64633e-16 0)
(3 -1.62706e-16 0)
(3 1.97745e-16 0)
(3 1.58432e-16 0)
(3 1.67143e-16 0)
(3 -2.95617e-16 0)
(3 7.67122e-16 0)
(3 1.6155e-15 0)
(3 1.5134e-15 0)
(3 6.39349e-16 0)
(3 2.32e-16 0)
(3 -5.93883e-16 0)
(3 -1.34872e-15 0)
(3 -7.5662e-16 0)
(3 4.80292e-17 0)
(3 4.56184e-16 0)
(3 9.2675e-16 0)
(3 3.43734e-17 0)
(3 -1.18157e-15 0)
(3 -4.24944e-16 0)
(3 2.25158e-16 0)
(3 6.45409e-16 0)
(3 9.66071e-16 0)
(3 7.79809e-16 0)
(3 1.06591e-16 0)
(3 -3.29683e-16 0)
(3 -6.71939e-16 0)
(3 -8.32218e-16 0)
(3 -1.05632e-15 0)
(3 -4.48168e-16 0)
(3 7.10118e-16 0)
(3 9.70128e-16 0)
(3 7.52809e-16 0)
(3 3.84591e-16 0)
(3 -1.38262e-16 0)
(3 -1.50835e-15 0)
(3 -1.81425e-15 0)
(3 1.2368e-16 0)
(3 2.84557e-16 0)
(3 1.09855e-15 0)
(3 1.1194e-15 0)
(3 1.21448e-15 0)
(3 -3.07608e-16 0)
(3 -1.62864e-16 0)
(3 -9.60595e-17 0)
(3 8.14409e-16 0)
(3 1.038e-15 0)
(3 8.06285e-16 0)
(3 5.41293e-16 0)
(3 1.0513e-16 0)
(3 -1.30638e-16 0)
(3 -1.29322e-16 0)
(3 -2.01275e-16 0)
(3 2.74222e-16 0)
(3 -5.42464e-16 0)
(3 -1.50265e-15 0)
(3 -1.99818e-15 0)
(3 -1.45948e-15 0)
(3 -1.4958e-15 0)
(3 -2.03438e-15 0)
(3 -2.8441e-15 0)
(3 -2.23664e-15 0)
(3 -1.86226e-15 0)
(3 -1.91079e-15 0)
(3 -3.1232e-16 0)
(3 -7.71616e-17 0)
(3 3.33912e-16 0)
(3 1.73407e-16 0)
(3 -7.38954e-17 0)
(3 1.03806e-17 0)
(3 9.39113e-18 0)
(3 -1.5675e-16 0)
(3 -2.41731e-16 0)
(3 -3.57368e-16 0)
(3 -2.44012e-16 0)
(3 3.87366e-16 0)
(3 5.03272e-16 0)
(3 -5.49492e-17 0)
(3 -6.67222e-16 0)
(3 -1.39547e-15 0)
(3 -1.53852e-15 0)
(3 -1.00202e-15 0)
(3 -3.99484e-16 0)
(3 -1.40189e-15 0)
(3 -1.7186e-15 0)
(3 -5.87233e-16 0)
(3 -1.10845e-16 0)
(3 -7.79641e-16 0)
(3 -8.70417e-16 0)
(3 -2.29204e-16 0)
(3 1.44291e-15 0)
(3 3.77663e-17 0)
(3 1.00146e-16 0)
(3 1.65177e-16 0)
(3 3.09938e-16 0)
(3 8.00236e-18 0)
(3 -1.05672e-16 0)
(3 -2.76688e-16 0)
(3 -2.55455e-16 0)
(3 1.09282e-16 0)
(3 6.81569e-16 0)
(3 1.05602e-15 0)
(3 9.9051e-16 0)
(3 3.05505e-16 0)
(3 -6.23647e-17 0)
(3 9.44879e-17 0)
(3 -5.19662e-17 0)
(3 -2.47405e-16 0)
(3 8.14985e-16 0)
(3 1.26182e-15 0)
(3 8.03827e-16 0)
(3 -1.1526e-15 0)
(3 -1.36382e-15 0)
(3 -9.46546e-16 0)
(3 -5.68115e-16 0)
(2.93376 0.00937269 0)
(2.84774 0.0629021 0)
(2.74858 0.171544 0)
(2.68689 0.215097 0)
(2.56367 0.365533 0)
(2.50934 0.440613 0)
(2.42001 0.543067 0)
(2.35022 0.627446 0)
(2.31481 0.724926 0)
(2.25837 0.797823 0)
(2.24548 0.854293 0)
(2.28015 0.882747 0)
(2.32822 0.894441 0)
(2.33957 0.886492 0)
(2.34623 0.880494 0)
(2.34717 0.870174 0)
(2.34884 0.855387 0)
(2.34777 0.849906 0)
(2.34131 0.847896 0)
(2.3376 0.846897 0)
(2.33945 0.848584 0)
(2.34271 0.849666 0)
(2.34193 0.849289 0)
(2.33985 0.8493 0)
(2.99897 0.000981429 0)
(2.98972 0.0116554 0)
(2.95832 0.0530005 0)
(2.90669 0.129246 0)
(2.79707 0.279255 0)
(2.69002 0.456901 0)
(2.52521 0.689359 0)
(2.37993 0.904217 0)
(2.23829 1.05986 0)
(2.16992 1.10501 0)
(2.13342 1.04403 0)
(2.19552 0.998807 0)
(2.25544 0.940434 0)
(2.28854 0.900648 0)
(2.33044 0.861996 0)
(2.34873 0.827395 0)
(2.35709 0.828094 0)
(2.36165 0.834873 0)
(2.35453 0.840357 0)
(2.35032 0.842016 0)
(2.34705 0.843323 0)
(2.34764 0.844733 0)
(2.34612 0.845835 0)
(2.34263 0.845973 0)
(3 -8.13166e-07 0)
(3.00001 -3.59329e-05 0)
(2.99992 0.00012555 0)
(2.99995 7.01369e-05 0)
(2.99854 0.00198779 0)
(2.99173 0.0121633 0)
(2.96525 0.0534244 0)
(2.89644 0.177479 0)
(2.79104 0.393497 0)
(2.56625 0.7282 0)
(2.45311 0.851072 0)
(2.34115 0.929512 0)
(2.29512 0.913929 0)
(2.29489 0.897919 0)
(2.30712 0.889055 0)
(2.33875 0.872753 0)
(2.3584 0.861526 0)
(2.36279 0.850794 0)
(2.36198 0.841645 0)
(2.35954 0.842264 0)
(2.35505 0.843866 0)
(2.35149 0.845914 0)
(2.35044 0.846867 0)
(2.34631 0.847718 0)
(3 -4.56708e-08 0)
(3 -7.69108e-07 0)
(3 -4.16609e-07 0)
(3 -4.86499e-07 0)
(3.00001 -8.35599e-06 0)
(2.99999 2.02634e-05 0)
(3.00007 -0.000149355 0)
(2.99919 0.00143976 0)
(2.99145 0.0156696 0)
(2.88585 0.1767 0)
(2.76938 0.416889 0)
(2.45243 0.773023 0)
(2.32217 0.914793 0)
(2.27683 0.941845 0)
(2.28508 0.943877 0)
(2.29887 0.92904 0)
(2.33001 0.896797 0)
(2.35299 0.85863 0)
(2.36065 0.846101 0)
(2.36181 0.840611 0)
(2.3594 0.840985 0)
(2.35536 0.846305 0)
(2.35384 0.852501 0)
(2.35105 0.856061 0)
(3 -5.89597e-11 0)
(3 1.56972e-09 0)
(3 -1.56418e-08 0)
(3 -5.18759e-08 0)
(3 -6.54876e-07 0)
(3 -7.85219e-07 0)
(3 -5.03129e-06 0)
(3 -3.45207e-06 0)
(3.00003 -7.07084e-05 0)
(2.99918 0.000954056 0)
(2.98631 0.021073 0)
(2.87659 0.158986 0)
(2.60146 0.515593 0)
(2.49316 0.698376 0)
(2.32193 0.879601 0)
(2.28487 0.906913 0)
(2.29735 0.897306 0)
(2.31899 0.874739 0)
(2.3433 0.864739 0)
(2.35251 0.858158 0)
(2.35805 0.843667 0)
(2.3574 0.84263 0)
(2.35568 0.845764 0)
(2.34993 0.856922 0)
(3 1.04466e-11 0)
(3 2.22917e-11 0)
(3 5.80538e-11 0)
(3 -3.82729e-10 0)
(3 4.7478e-10 0)
(3 -5.421e-08 0)
(3 -9.72706e-08 0)
(3 -2.62701e-07 0)
(3 -6.53998e-06 0)
(3 -6.25941e-06 0)
(3.00002 -5.16021e-05 0)
(2.99857 0.00181666 0)
(2.96879 0.0401904 0)
(2.85703 0.204891 0)
(2.50188 0.620132 0)
(2.37936 0.76285 0)
(2.32036 0.853261 0)
(2.30123 0.883796 0)
(2.30761 0.883189 0)
(2.3254 0.868544 0)
(2.34226 0.843623 0)
(2.34766 0.834288 0)
(2.34927 0.837123 0)
(2.34876 0.840025 0)
(3 1.0004e-13 0)
(3 3.2596e-13 0)
(3 3.38783e-12 0)
(3 1.06247e-11 0)
(3 2.12184e-11 0)
(3 -4.12403e-10 0)
(3 2.58496e-11 0)
(3 -1.22471e-09 0)
(3 -1.75153e-08 0)
(3 -4.13833e-07 0)
(3 -7.51063e-06 0)
(3.00001 -1.0056e-05 0)
(2.99999 2.1676e-05 0)
(2.99673 0.00457144 0)
(2.92339 0.0953424 0)
(2.79274 0.292302 0)
(2.42652 0.71078 0)
(2.31556 0.845139 0)
(2.31137 0.85474 0)
(2.3105 0.855151 0)
(2.31169 0.849421 0)
(2.32768 0.841002 0)
(2.33827 0.839677 0)
(2.34153 0.839022 0)
(3 -2.30329e-15 0)
(3 -3.22095e-15 0)
(3 5.52313e-14 0)
(3 1.10896e-12 0)
(3 5.47474e-12 0)
(3 7.01678e-12 0)
(3 8.64329e-12 0)
(3 4.95117e-12 0)
(3 1.82949e-10 0)
(3 -1.39823e-09 0)
(3 -3.35694e-08 0)
(3 -6.87075e-07 0)
(3 -1.23949e-06 0)
(3.00001 -2.27049e-05 0)
(2.99943 0.000954995 0)
(2.99078 0.0154969 0)
(2.84914 0.19148 0)
(2.66641 0.445893 0)
(2.43663 0.722327 0)
(2.29457 0.89814 0)
(2.27428 0.874709 0)
(2.30584 0.85508 0)
(2.31785 0.84652 0)
(2.32559 0.844616 0)
(3 -3.49716e-16 0)
(3 -2.55928e-15 0)
(3 -4.89656e-15 0)
(3 1.51085e-15 0)
(3 1.08728e-13 0)
(3 8.26792e-13 0)
(3 2.09167e-12 0)
(3 2.03834e-12 0)
(3 1.80594e-11 0)
(3 1.66542e-11 0)
(3 3.25206e-10 0)
(3 -3.09476e-09 0)
(3 -8.46455e-08 0)
(3 -3.75333e-06 0)
(3 -2.94985e-06 0)
(3.00001 -2.75562e-05 0)
(2.99627 0.00594957 0)
(2.96647 0.0544293 0)
(2.73979 0.346934 0)
(2.50239 0.659515 0)
(2.41053 0.768231 0)
(2.33833 0.831188 0)
(2.31682 0.846388 0)
(2.31836 0.840827 0)
(3 -1.24981e-15 0)
(3 -8.48075e-16 0)
(3 -8.85541e-16 0)
(3 -1.13404e-15 0)
(3 -1.77814e-15 0)
(3 4.70295e-15 0)
(3 5.23487e-14 0)
(3 1.56221e-13 0)
(3 6.19998e-13 0)
(3 2.44437e-12 0)
(3 4.72718e-11 0)
(3 4.43584e-11 0)
(3 -2.91155e-10 0)
(3 -6.60421e-08 0)
(3 -4.79722e-07 0)
(3 -2.30668e-06 0)
(3.00001 -1.36804e-05 0)
(2.99969 0.000552508 0)
(2.9808 0.0279707 0)
(2.88076 0.174914 0)
(2.62276 0.542845 0)
(2.37629 0.836173 0)
(2.34018 0.827831 0)
(2.32884 0.825157 0)
(3 5.95576e-16 0)
(3 1.76016e-16 0)
(3 -2.7847e-17 0)
(3 -2.23532e-16 0)
(3 -2.29489e-16 0)
(3 -2.26373e-16 0)
(3 2.38009e-16 0)
(3 1.73373e-15 0)
(3 -2.02154e-15 0)
(3 1.2513e-14 0)
(3 8.11665e-13 0)
(3 6.90477e-12 0)
(3 5.78842e-12 0)
(3 2.2606e-10 0)
(3 -1.28107e-08 0)
(3 -9.06201e-08 0)
(3 -1.81359e-06 0)
(3 -4.51116e-06 0)
(2.9999 0.000163623 0)
(2.99567 0.00847547 0)
(2.93104 0.105077 0)
(2.67503 0.458562 0)
(2.52225 0.664434 0)
(2.36387 0.831957 0)
(3 1.06188e-15 0)
(3 3.72014e-16 0)
(3 1.30892e-16 0)
(3 5.11731e-16 0)
(3 4.9429e-16 0)
(3 1.55304e-15 0)
(3 2.75308e-16 0)
(3 -1.60469e-15 0)
(3 -4.69644e-15 0)
(3 -5.08746e-15 0)
(3 -1.91787e-15 0)
(3 -7.23755e-15 0)
(3 1.51847e-12 0)
(3 1.12967e-11 0)
(3 9.42798e-11 0)
(3 -9.55717e-10 0)
(3 -1.85119e-08 0)
(3 -9.80157e-07 0)
(3 -1.79932e-06 0)
(2.99999 8.22589e-06 0)
(2.99792 0.00365008 0)
(2.9583 0.0658656 0)
(2.81656 0.31127 0)
(2.50896 0.697693 0)
(3 2.70163e-15 0)
(3 1.3257e-15 0)
(3 4.17411e-16 0)
(3 8.85418e-16 0)
(3 9.46391e-16 0)
(3 1.58071e-15 0)
(3 4.44683e-16 0)
(3 -2.41946e-15 0)
(3 -2.43712e-15 0)
(3 -3.10658e-15 0)
(3 -5.042e-15 0)
(3 -3.34683e-15 0)
(3 -1.14496e-15 0)
(3 4.2139e-13 0)
(3 7.05766e-12 0)
(3 2.09667e-11 0)
(3 -2.88005e-11 0)
(3 -1.79411e-08 0)
(3 -5.72472e-07 0)
(3 -5.11349e-07 0)
(3 -4.12244e-06 0)
(2.99924 0.00156061 0)
(2.98358 0.0315533 0)
(2.83132 0.255732 0)
(3 4.7881e-15 0)
(3 5.30909e-15 0)
(3 3.1363e-15 0)
(3 7.72e-16 0)
(3 -1.84855e-16 0)
(3 -1.11273e-16 0)
(3 -1.41464e-15 0)
(3 -7.82197e-16 0)
(3 3.6141e-16 0)
(3 -7.25047e-16 0)
(3 -3.82506e-15 0)
(3 -4.17077e-15 0)
(3 -3.20589e-15 0)
(3 -3.26266e-15 0)
(3 6.32289e-13 0)
(3 7.86118e-12 0)
(3 8.46523e-12 0)
(3 -1.15243e-11 0)
(3 -2.82325e-08 0)
(3 -1.13026e-07 0)
(3 -2.81577e-07 0)
(3 -1.7012e-06 0)
(2.9997 0.000562952 0)
(2.98916 0.0186586 0)
(3 3.56325e-15 0)
(3 4.76932e-15 0)
(3 3.9944e-15 0)
(3 1.35353e-15 0)
(3 -5.38811e-16 0)
(3 -1.8289e-15 0)
(3 -2.55227e-15 0)
(3 4.64436e-16 0)
(3 9.83435e-16 0)
(3 1.26786e-15 0)
(3 1.90943e-16 0)
(3 -7.48896e-16 0)
(3 -1.3174e-15 0)
(3 -4.64051e-15 0)
(3 -1.97836e-15 0)
(3 4.80699e-13 0)
(3 3.14287e-12 0)
(3 2.7969e-12 0)
(3 -4.32922e-11 0)
(3 -8.36147e-09 0)
(3 -3.60953e-08 0)
(3 -3.77263e-07 0)
(3 5.84944e-06 0)
(2.99999 2.10388e-05 0)
(3 2.69556e-15 0)
(3 3.13128e-15 0)
(3 2.70757e-15 0)
(3 2.25175e-15 0)
(3 8.416e-16 0)
(3 -1.1466e-16 0)
(3 -7.81633e-16 0)
(3 7.66008e-16 0)
(3 2.05064e-15 0)
(3 7.81543e-16 0)
(3 9.5645e-17 0)
(3 -1.09442e-15 0)
(3 -2.33905e-15 0)
(3 -3.16232e-15 0)
(3 -2.06164e-15 0)
(3 -3.37857e-16 0)
(3 1.86129e-13 0)
(3 7.10198e-13 0)
(3 7.4297e-13 0)
(3 -1.60283e-11 0)
(3 -3.2022e-09 0)
(3 -4.599e-08 0)
(3 -2.42116e-08 0)
(3 -4.83345e-08 0)
(3 2.29665e-15 0)
(3 1.47232e-15 0)
(3 1.68676e-15 0)
(3 1.82967e-15 0)
(3 1.27627e-15 0)
(3 8.2739e-16 0)
(3 -5.23128e-17 0)
(3 8.40106e-16 0)
(3 6.10805e-16 0)
(3 -9.5835e-17 0)
(3 -3.59224e-16 0)
(3 -9.18694e-16 0)
(3 -1.35403e-15 0)
(3 8.31555e-16 0)
(3 9.65642e-16 0)
(3 -5.26526e-15 0)
(3 -9.00389e-14 0)
(3 -8.50279e-13 0)
(3 -5.9064e-13 0)
(3 5.92205e-11 0)
(3 2.24521e-09 0)
(3 4.21735e-08 0)
(3 6.91438e-09 0)
(3 3.74571e-08 0)
(3 1.10719e-15 0)
(3 1.78681e-15 0)
(3 2.26777e-15 0)
(3 2.65269e-15 0)
(3 1.98331e-15 0)
(3 -2.57353e-16 0)
(3 -1.36645e-16 0)
(3 -4.86514e-16 0)
(3 9.51869e-16 0)
(3 2.52773e-15 0)
(3 2.7924e-15 0)
(3 1.78705e-15 0)
(3 1.70977e-15 0)
(3 3.36476e-15 0)
(3 5.96248e-16 0)
(3 -5.03055e-13 0)
(3 -3.09709e-12 0)
(3 -2.79608e-12 0)
(3 2.18055e-11 0)
(3 8.94407e-09 0)
(3 3.36069e-08 0)
(3 3.85141e-07 0)
(3 -5.82813e-06 0)
(2.99999 -2.10185e-05 0)
(3 -7.9819e-17 0)
(3 6.2112e-16 0)
(3 3.15094e-15 0)
(3 2.75895e-15 0)
(3 2.32589e-15 0)
(3 1.5749e-15 0)
(3 1.4911e-15 0)
(3 7.90253e-16 0)
(3 2.06016e-15 0)
(3 3.15861e-15 0)
(3 2.7588e-15 0)
(3 1.31548e-15 0)
(3 2.04164e-15 0)
(3 1.09566e-15 0)
(3 -6.31328e-13 0)
(3 -7.86976e-12 0)
(3 -8.43447e-12 0)
(3 1.17354e-11 0)
(3 2.81665e-08 0)
(3 1.12277e-07 0)
(3 2.80589e-07 0)
(3 1.70468e-06 0)
(2.9997 -0.000562944 0)
(2.98916 -0.0186586 0)
(3 -6.04498e-16 0)
(3 -1.59793e-15 0)
(3 -8.52364e-16 0)
(3 3.75684e-16 0)
(3 1.26984e-15 0)
(3 1.86481e-15 0)
(3 2.13436e-15 0)
(3 2.48739e-15 0)
(3 2.12799e-15 0)
(3 1.20173e-15 0)
(3 1.83744e-15 0)
(3 5.9327e-16 0)
(3 -5.56612e-15 0)
(3 -4.26839e-13 0)
(3 -7.06074e-12 0)
(3 -2.09673e-11 0)
(3 2.88299e-11 0)
(3 1.79347e-08 0)
(3 5.72489e-07 0)
(3 5.11338e-07 0)
(3 4.12214e-06 0)
(2.99924 -0.00156061 0)
(2.98358 -0.0315533 0)
(2.83132 -0.255732 0)
(3 7.433e-16 0)
(3 1.40849e-16 0)
(3 -5.40252e-16 0)
(3 -1.72129e-16 0)
(3 4.21981e-16 0)
(3 8.04484e-16 0)
(3 2.06101e-15 0)
(3 2.43282e-15 0)
(3 2.84534e-15 0)
(3 7.29949e-16 0)
(3 -9.31914e-16 0)
(3 6.9601e-15 0)
(3 -1.51373e-12 0)
(3 -1.12929e-11 0)
(3 -9.42799e-11 0)
(3 9.55722e-10 0)
(3 1.8512e-08 0)
(3 9.80148e-07 0)
(3 1.79934e-06 0)
(2.99999 -8.22586e-06 0)
(2.99792 -0.00365008 0)
(2.9583 -0.0658656 0)
(2.81656 -0.31127 0)
(2.50896 -0.697693 0)
(3 1.28224e-15 0)
(3 1.28393e-15 0)
(3 -2.72137e-16 0)
(3 -2.33291e-16 0)
(3 1.42631e-15 0)
(3 1.26267e-15 0)
(3 3.24327e-15 0)
(3 -5.1584e-16 0)
(3 8.45599e-16 0)
(3 -1.52347e-14 0)
(3 -8.14323e-13 0)
(3 -6.90792e-12 0)
(3 -5.79034e-12 0)
(3 -2.26062e-10 0)
(3 1.28107e-08 0)
(3 9.06202e-08 0)
(3 1.81359e-06 0)
(3 4.51116e-06 0)
(2.9999 -0.000163623 0)
(2.99567 -0.00847547 0)
(2.93104 -0.105077 0)
(2.67503 -0.458562 0)
(2.52225 -0.664434 0)
(2.36387 -0.831957 0)
(3 3.2481e-15 0)
(3 3.58546e-15 0)
(3 3.8612e-15 0)
(3 2.82805e-15 0)
(3 3.64858e-15 0)
(3 -4.0578e-15 0)
(3 -5.26213e-14 0)
(3 -1.56624e-13 0)
(3 -6.18396e-13 0)
(3 -2.44088e-12 0)
(3 -4.72705e-11 0)
(3 -4.43597e-11 0)
(3 2.91153e-10 0)
(3 6.60421e-08 0)
(3 4.79722e-07 0)
(3 2.30668e-06 0)
(3.00001 1.36804e-05 0)
(2.99969 -0.000552508 0)
(2.9808 -0.0279707 0)
(2.88076 -0.174914 0)
(2.62276 -0.542845 0)
(2.37629 -0.836173 0)
(2.34018 -0.827831 0)
(2.32884 -0.825157 0)
(3 2.38208e-15 0)
(3 2.96512e-15 0)
(3 4.65883e-15 0)
(3 -2.74746e-15 0)
(3 -1.09256e-13 0)
(3 -8.25671e-13 0)
(3 -2.09416e-12 0)
(3 -2.04203e-12 0)
(3 -1.8063e-11 0)
(3 -1.66569e-11 0)
(3 -3.25208e-10 0)
(3 3.09475e-09 0)
(3 8.46455e-08 0)
(3 3.75333e-06 0)
(3 2.94985e-06 0)
(3.00001 2.75562e-05 0)
(2.99627 -0.00594957 0)
(2.96647 -0.0544293 0)
(2.73979 -0.346934 0)
(2.50239 -0.659515 0)
(2.41053 -0.768231 0)
(2.33833 -0.831188 0)
(2.31682 -0.846388 0)
(2.31836 -0.840827 0)
(3 -1.34851e-17 0)
(3 3.73324e-16 0)
(3 -5.81312e-14 0)
(3 -1.10986e-12 0)
(3 -5.48289e-12 0)
(3 -7.01893e-12 0)
(3 -8.64709e-12 0)
(3 -4.95791e-12 0)
(3 -1.82955e-10 0)
(3 1.39823e-09 0)
(3 3.35694e-08 0)
(3 6.87075e-07 0)
(3 1.23949e-06 0)
(3.00001 2.27049e-05 0)
(2.99943 -0.000954995 0)
(2.99078 -0.0154969 0)
(2.84914 -0.19148 0)
(2.66641 -0.445893 0)
(2.43663 -0.722327 0)
(2.29457 -0.89814 0)
(2.27428 -0.874709 0)
(2.30584 -0.85508 0)
(2.31785 -0.84652 0)
(2.32559 -0.844616 0)
(3 -1.04607e-13 0)
(3 -3.28114e-13 0)
(3 -3.38935e-12 0)
(3 -1.0626e-11 0)
(3 -2.12235e-11 0)
(3 4.12407e-10 0)
(3 -2.58663e-11 0)
(3 1.22471e-09 0)
(3 1.75153e-08 0)
(3 4.13833e-07 0)
(3 7.51063e-06 0)
(3.00001 1.0056e-05 0)
(2.99999 -2.1676e-05 0)
(2.99673 -0.00457144 0)
(2.92339 -0.0953424 0)
(2.79274 -0.292302 0)
(2.42652 -0.71078 0)
(2.31556 -0.845139 0)
(2.31137 -0.85474 0)
(2.3105 -0.855151 0)
(2.31169 -0.849421 0)
(2.32768 -0.841002 0)
(2.33827 -0.839677 0)
(2.34153 -0.839022 0)
(3 -1.04503e-11 0)
(3 -2.22952e-11 0)
(3 -5.80578e-11 0)
(3 3.82725e-10 0)
(3 -4.74783e-10 0)
(3 5.421e-08 0)
(3 9.72706e-08 0)
(3 2.62701e-07 0)
(3 6.53998e-06 0)
(3 6.25941e-06 0)
(3.00002 5.16021e-05 0)
(2.99857 -0.00181666 0)
(2.96879 -0.0401905 0)
(2.85703 -0.204891 0)
(2.50188 -0.620132 0)
(2.37936 -0.76285 0)
(2.32036 -0.853261 0)
(2.30123 -0.883796 0)
(2.30761 -0.883189 0)
(2.3254 -0.868544 0)
(2.34226 -0.843623 0)
(2.34766 -0.834288 0)
(2.34927 -0.837123 0)
(2.34876 -0.840025 0)
(3 5.89569e-11 0)
(3 -1.56972e-09 0)
(3 1.56418e-08 0)
(3 5.18759e-08 0)
(3 6.54875e-07 0)
(3 7.85219e-07 0)
(3 5.03129e-06 0)
(3 3.45208e-06 0)
(3.00003 7.07084e-05 0)
(2.99918 -0.000954056 0)
(2.98631 -0.021073 0)
(2.87659 -0.158986 0)
(2.60146 -0.515593 0)
(2.49316 -0.698376 0)
(2.32193 -0.879601 0)
(2.28487 -0.906913 0)
(2.29735 -0.897306 0)
(2.31899 -0.874739 0)
(2.3433 -0.864739 0)
(2.35251 -0.858158 0)
(2.35805 -0.843667 0)
(2.3574 -0.84263 0)
(2.35568 -0.845764 0)
(2.34993 -0.856922 0)
(3 4.56707e-08 0)
(3 7.69108e-07 0)
(3 4.16609e-07 0)
(3 4.86499e-07 0)
(3.00001 8.35599e-06 0)
(2.99999 -2.02634e-05 0)
(3.00007 0.000149355 0)
(2.99919 -0.00143976 0)
(2.99145 -0.0156696 0)
(2.88585 -0.1767 0)
(2.76938 -0.416889 0)
(2.45243 -0.773023 0)
(2.32217 -0.914793 0)
(2.27683 -0.941845 0)
(2.28508 -0.943877 0)
(2.29887 -0.92904 0)
(2.33001 -0.896797 0)
(2.35299 -0.85863 0)
(2.36065 -0.846101 0)
(2.36181 -0.840611 0)
(2.3594 -0.840985 0)
(2.35536 -0.846305 0)
(2.35384 -0.852501 0)
(2.35105 -0.856061 0)
(3 8.13165e-07 0)
(3.00001 3.59329e-05 0)
(2.99992 -0.000125551 0)
(2.99995 -7.01368e-05 0)
(2.99854 -0.00198779 0)
(2.99173 -0.0121633 0)
(2.96525 -0.0534244 0)
(2.89644 -0.177479 0)
(2.79104 -0.393497 0)
(2.56625 -0.7282 0)
(2.45311 -0.851072 0)
(2.34115 -0.929512 0)
(2.29512 -0.913929 0)
(2.29489 -0.897919 0)
(2.30712 -0.889055 0)
(2.33875 -0.872753 0)
(2.3584 -0.861526 0)
(2.36279 -0.850794 0)
(2.36198 -0.841645 0)
(2.35954 -0.842264 0)
(2.35505 -0.843866 0)
(2.35149 -0.845914 0)
(2.35044 -0.846867 0)
(2.34631 -0.847718 0)
(2.99897 -0.000981429 0)
(2.98972 -0.0116554 0)
(2.95832 -0.0530005 0)
(2.90669 -0.129246 0)
(2.79707 -0.279255 0)
(2.69002 -0.456901 0)
(2.52521 -0.689359 0)
(2.37993 -0.904217 0)
(2.23829 -1.05986 0)
(2.16992 -1.10501 0)
(2.13342 -1.04403 0)
(2.19552 -0.998807 0)
(2.25544 -0.940434 0)
(2.28854 -0.900648 0)
(2.33044 -0.861996 0)
(2.34873 -0.827395 0)
(2.35709 -0.828094 0)
(2.36165 -0.834873 0)
(2.35453 -0.840357 0)
(2.35032 -0.842016 0)
(2.34705 -0.843323 0)
(2.34764 -0.844733 0)
(2.34612 -0.845835 0)
(2.34263 -0.845973 0)
(2.93376 -0.0093727 0)
(2.84774 -0.0629021 0)
(2.74858 -0.171544 0)
(2.68689 -0.215097 0)
(2.56367 -0.365533 0)
(2.50934 -0.440613 0)
(2.42001 -0.543067 0)
(2.35022 -0.627446 0)
(2.31481 -0.724926 0)
(2.25837 -0.797823 0)
(2.24548 -0.854293 0)
(2.28015 -0.882747 0)
(2.32822 -0.894441 0)
(2.33957 -0.886492 0)
(2.34623 -0.880494 0)
(2.34717 -0.870174 0)
(2.34884 -0.855387 0)
(2.34777 -0.849906 0)