/*--------------------------------*- C++ -*----------------------------------*\
  =========                 |
  \\      /  F ield         | OpenFOAM: The Open Source CFD Toolbox
   \\    /   O peration     | Website:  https://openfoam.org
    \\  /    A nd           | Version:  7
     \\/     M anipulation  |
\*---------------------------------------------------------------------------*/
FoamFile
{
    version     2.0;
    format      ascii;
    class       volVectorField;
    location    "2";
    object      U;
}
// * * * * * * * * * * * * * * * * * * * * * * * * * * * * * * * * * * * * * //

dimensions      [0 1 -1 0 0 0 0];

internalField   nonuniform List<vector> 
73728
(
(3 2.6488e-16 0)
(3 1.34373e-16 0)
(3 3.46679e-16 0)
(3 1.33697e-15 0)
(3 1.36909e-15 0)
(3 7.37839e-16 0)
(3 3.95988e-16 0)
(3 -3.46577e-16 0)
(3 -3.32528e-16 0)
(3 -4.89412e-16 0)
(3 -5.43534e-16 0)
(3 -1.02595e-15 0)
(3 -1.50454e-15 0)
(3 -1.50714e-15 0)
(3 -1.70915e-15 0)
(3 -1.9848e-15 0)
(3 -1.10411e-15 0)
(3 1.02861e-17 0)
(3 9.56638e-16 0)
(3 1.04449e-15 0)
(3 1.16576e-15 0)
(3 7.55315e-16 0)
(3 7.06997e-16 0)
(3 8.72165e-16 0)
(3 1.52746e-15 0)
(3 1.96655e-15 0)
(3 1.10403e-15 0)
(3 3.9409e-16 0)
(3 -7.2905e-16 0)
(3 -7.84467e-16 0)
(3 -9.40681e-16 0)
(3 -9.54748e-16 0)
(3 -5.36339e-16 0)
(3 -1.14106e-16 0)
(3 -5.02807e-16 0)
(3 -2.66832e-16 0)
(3 2.34778e-16 0)
(3 1.86218e-16 0)
(3 -4.47395e-16 0)
(3 -4.69004e-16 0)
(3 2.79636e-16 0)
(3 1.72193e-15 0)
(3 1.88972e-15 0)
(3 1.63458e-15 0)
(3 6.93401e-16 0)
(3 8.31321e-17 0)
(3 -2.62712e-16 0)
(3 -2.88351e-16 0)
(3 -4.83418e-16 0)
(3 -5.79921e-16 0)
(3 -4.44894e-16 0)
(3 1.99371e-16 0)
(3 4.45579e-16 0)
(3 9.78823e-16 0)
(3 1.65833e-15 0)
(3 1.72467e-15 0)
(3 9.10441e-16 0)
(3 2.94101e-16 0)
(3 2.14123e-17 0)
(3 -5.61435e-16 0)
(3 -1.68671e-15 0)
(3 -2.34996e-15 0)
(3 -2.07882e-15 0)
(3 -1.61052e-15 0)
(3 -5.666e-16 0)
(3 2.61001e-16 0)
(3 9.07537e-16 0)
(3 1.00245e-15 0)
(3 1.28417e-15 0)
(3 1.7177e-15 0)
(3 2.25326e-15 0)
(3 1.86925e-15 0)
(3 1.83583e-15 0)
(3 1.83239e-15 0)
(3 1.99676e-15 0)
(3 2.19318e-15 0)
(3 2.09589e-15 0)
(3 2.35524e-15 0)
(3 2.30613e-15 0)
(3 1.57524e-15 0)
(3 2.31355e-16 0)
(3 -6.04647e-16 0)
(3 -1.88921e-16 0)
(3 4.2538e-16 0)
(3 4.06495e-16 0)
(3 5.79584e-16 0)
(3 4.72239e-16 0)
(3 2.96857e-16 0)
(3 4.79466e-16 0)
(3 1.75964e-16 0)
(3 -7.31064e-16 0)
(3 -7.83747e-16 0)
(3 -6.33854e-16 0)
(3 -5.97148e-16 0)
(3 -4.38364e-16 0)
(3 2.1598e-16 0)
(3 -2.87551e-17 0)
(3 -2.47039e-16 0)
(3 6.19094e-17 0)
(3 1.13532e-15 0)
(3 1.37919e-15 0)
(3 7.48594e-16 0)
(3 5.07894e-16 0)
(3 -3.01304e-16 0)
(3 -7.86637e-16 0)
(3 -1.4854e-15 0)
(3 -1.46176e-15 0)
(3 -1.11606e-15 0)
(3 -8.64012e-16 0)
(3 -9.72524e-16 0)
(3 -1.3549e-15 0)
(3 -2.02143e-15 0)
(3 -1.82661e-15 0)
(3 -2.98034e-16 0)
(3 3.56745e-16 0)
(3 5.67392e-16 0)
(3 9.53159e-16 0)
(3 9.27154e-16 0)
(3 1.73744e-15 0)
(3 2.15068e-15 0)
(3 2.87168e-15 0)
(3 2.41956e-15 0)
(3 1.3834e-15 0)
(3 -1.79316e-15 0)
(3 -2.4884e-15 0)
(3 -2.34251e-15 0)
(3 -2.31277e-15 0)
(3 -2.04661e-15 0)
(3 -1.50285e-15 0)
(3 -9.92704e-16 0)
(3 -1.40086e-15 0)
(3 5.91067e-17 0)
(3 1.32096e-15 0)
(3 4.24811e-16 0)
(3 -1.27878e-15 0)
(3 -1.68239e-15 0)
(3 4.53412e-16 0)
(3 2.24619e-15 0)
(3 2.037e-15 0)
(3 2.21597e-15 0)
(3 1.03057e-15 0)
(3 9.67692e-16 0)
(3 9.90467e-16 0)
(3 2.37483e-16 0)
(3 -1.07806e-15 0)
(3 -2.01692e-15 0)
(3 -2.07017e-15 0)
(3 -2.03395e-15 0)
(3 -1.03947e-15 0)
(3 2.18298e-15 0)
(3 4.72807e-15 0)
(3 4.53742e-15 0)
(3 2.89941e-15 0)
(3 1.55465e-15 0)
(3 -2.35746e-16 0)
(3 -1.68606e-15 0)
(3 -1.93722e-15 0)
(3 -1.22338e-15 0)
(3 -7.89491e-17 0)
(3 6.21938e-16 0)
(3 1.35286e-15 0)
(3 1.56942e-15 0)
(3 2.29527e-15 0)
(3 2.43168e-15 0)
(3 2.68683e-15 0)
(3 2.46454e-15 0)
(3 1.95689e-15 0)
(3 1.51564e-15 0)
(3 1.80989e-15 0)
(3 2.17707e-15 0)
(3 1.76881e-15 0)
(3 1.97682e-15 0)
(3 2.43849e-15 0)
(3 3.01666e-15 0)
(3 2.96397e-15 0)
(3 1.66192e-15 0)
(3 6.87258e-17 0)
(3 8.77072e-17 0)
(3 1.93418e-15 0)
(3 3.60836e-15 0)
(3 3.41896e-15 0)
(3 2.83957e-15 0)
(3 2.0785e-15 0)
(3 1.88647e-15 0)
(3 1.45792e-15 0)
(3 5.729e-16 0)
(3 -9.60173e-16 0)
(3 -9.87669e-16 0)
(3 -1.08548e-15 0)
(3 -1.42611e-15 0)
(3 -1.05732e-15 0)
(3 -6.83878e-17 0)
(3 4.71747e-18 0)
(3 6.70729e-17 0)
(3 -7.27484e-17 0)
(3 -1.53202e-16 0)
(3 -3.53645e-16 0)
(3 -7.40188e-16 0)
(3 -1.07239e-15 0)
(3 -1.42501e-15 0)
(3 -1.93653e-15 0)
(3 -2.27861e-15 0)
(3 -2.84432e-15 0)
(3 -2.37964e-15 0)
(3 -4.84962e-16 0)
(3 4.19703e-16 0)
(3 2.2982e-16 0)
(3 -1.22759e-15 0)
(3 -3.93731e-15 0)
(3 -4.59954e-15 0)
(3 -4.55957e-15 0)
(3 -3.30771e-15 0)
(3 -2.35347e-15 0)
(3 -8.7207e-16 0)
(3 -5.001e-17 0)
(3 -4.38616e-17 0)
(3 -3.21844e-16 0)
(3 -6.61051e-16 0)
(3 -8.82706e-16 0)
(3 -1.14468e-15 0)
(3 -2.3272e-15 0)
(3 -3.34571e-15 0)
(3 -3.39844e-15 0)
(3 -2.64248e-15 0)
(3 -2.17006e-15 0)
(3 -1.50946e-15 0)
(3 -1.31406e-16 0)
(3 2.94943e-17 0)
(3 -5.80373e-16 0)
(3 -1.80615e-15 0)
(3 -2.08345e-15 0)
(3 -2.2439e-15 0)
(3 -1.5322e-15 0)
(3 -7.09679e-16 0)
(3 -6.49927e-16 0)
(3 -7.41573e-16 0)
(3 -5.12704e-16 0)
(3 -3.2648e-16 0)
(3 -7.0124e-16 0)
(3 -9.52007e-16 0)
(3 -1.20132e-16 0)
(3 5.62259e-17 0)
(3 5.08203e-17 0)
(3 -4.31694e-16 0)
(3 9.35519e-17 0)
(3 2.15453e-15 0)
(3 3.87895e-15 0)
(3 3.37101e-15 0)
(3 2.86385e-15 0)
(3 3.00063e-15 0)
(3 1.22036e-17 0)
(3 -1.10667e-15 0)
(3 -1.33792e-15 0)
(3 -1.27772e-15 0)
(3 -1.78578e-16 0)
(3 5.96243e-16 0)
(3 8.78568e-16 0)
(3 6.20692e-16 0)
(3 3.84662e-16 0)
(3 1.3877e-16 0)
(3 3.56787e-16 0)
(3 1.23048e-15 0)
(3 1.47461e-15 0)
(3 1.17795e-15 0)
(3 1.59841e-15 0)
(3 1.84883e-15 0)
(3 1.31749e-15 0)
(3 6.75153e-16 0)
(3 4.86003e-16 0)
(3 9.72495e-16 0)
(3 1.52788e-15 0)
(3 1.01835e-15 0)
(3 1.16395e-15 0)
(3 1.67569e-15 0)
(3 1.70859e-15 0)
(3 1.02487e-15 0)
(3 5.29455e-16 0)
(3 4.14183e-16 0)
(3 9.24617e-16 0)
(3 1.46201e-15 0)
(3 1.4592e-15 0)
(3 1.01223e-15 0)
(3 -3.13242e-16 0)
(3 -1.57055e-15 0)
(3 -1.96366e-15 0)
(3 -2.00455e-15 0)
(3 -1.07049e-15 0)
(3 -2.22334e-16 0)
(3 1.21548e-16 0)
(3 2.3422e-16 0)
(3 2.58743e-16 0)
(3 -6.7357e-16 0)
(3 -8.86755e-16 0)
(3 -7.46211e-16 0)
(3 -1.24113e-15 0)
(3 -1.36225e-15 0)
(3 -1.3804e-15 0)
(3 -1.04062e-15 0)
(3 -1.39762e-15 0)
(3 -1.75212e-15 0)
(3 -1.42933e-15 0)
(3 -4.66308e-16 0)
(3 -6.14181e-16 0)
(3 -1.21517e-15 0)
(3 -1.65309e-15 0)
(3 -2.58012e-15 0)
(3 -3.45027e-15 0)
(3 -3.38228e-15 0)
(3 -2.82273e-15 0)
(3 -2.76362e-15 0)
(3 -2.72117e-15 0)
(3 -2.60068e-15 0)
(3 -3.10956e-15 0)
(3 -1.89267e-15 0)
(3 3.38306e-16 0)
(3 7.51437e-16 0)
(3 -1.5295e-16 0)
(3 -1.83637e-15 0)
(3 -2.03182e-15 0)
(3 8.86525e-20 0)
(3 1.76075e-15 0)
(3 1.64486e-15 0)
(3 8.18163e-17 0)
(3 -2.92872e-16 0)
(3 -1.34075e-15 0)
(3 -1.7348e-15 0)
(3 -1.84785e-15 0)
(3 -1.72414e-15 0)
(3 -1.62968e-15 0)
(3 -1.25183e-15 0)
(3 -1.32853e-15 0)
(3 -2.45477e-15 0)
(3 -2.9092e-15 0)
(3 -3.32214e-15 0)
(3 -3.41597e-15 0)
(3 -1.94663e-15 0)
(3 1.19785e-15 0)
(3 3.71384e-15 0)
(3 3.51033e-15 0)
(3 3.32403e-15 0)
(3 2.9846e-15 0)
(3 3.06158e-15 0)
(3 2.19934e-15 0)
(3 1.60529e-15 0)
(3 2.00838e-15 0)
(3 2.64085e-15 0)
(3 1.2658e-15 0)
(3 1.02506e-15 0)
(3 3.95673e-16 0)
(3 -2.63704e-15 0)
(3 -2.67955e-15 0)
(3 -2.82766e-15 0)
(3 -2.43661e-15 0)
(3 -2.38372e-15 0)
(3 -2.97415e-15 0)
(3 -2.59188e-15 0)
(3 -8.89939e-16 0)
(3 8.33185e-16 0)
(3 3.13382e-15 0)
(3 3.31197e-15 0)
(3 2.86268e-15 0)
(3 2.40238e-15 0)
(3 2.21089e-15 0)
(3 1.59721e-15 0)
(3 8.91329e-16 0)
(3 1.02185e-15 0)
(3 1.24852e-15 0)
(3 2.66718e-15 0)
(3 1.93595e-15 0)
(3 7.8038e-16 0)
(3 8.48294e-20 0)
(3 -1.18266e-15 0)
(3 -1.46724e-15 0)
(3 -1.07853e-15 0)
(3 1.61337e-16 0)
(3 2.03331e-15 0)
(3 3.1535e-15 0)
(3 3.04775e-15 0)
(3 1.53873e-15 0)
(3 -9.73141e-16 0)
(3 -2.38417e-15 0)
(3 -2.31289e-15 0)
(3 -1.13134e-15 0)
(3 -1.54931e-15 0)
(3 -2.35557e-16 0)
(3 -1.78955e-16 0)
(3 -1.17462e-16 0)
(3 -1.55704e-16 0)
(3 -4.51722e-16 0)
(3 2.68309e-16 0)
(3 7.53524e-16 0)
(3 9.27563e-16 0)
(3 1.12826e-16 0)
(3 -2.45606e-16 0)
(3 1.16012e-16 0)
(3 -1.72274e-16 0)
(3 -1.11337e-15 0)
(3 -2.43466e-15 0)
(3 -2.13456e-15 0)
(3 -9.17743e-16 0)
(3 -3.47354e-16 0)
(3 -1.03656e-15 0)
(3 -1.353e-15 0)
(3 -1.42091e-15 0)
(3 -1.8844e-15 0)
(3 -2.97137e-15 0)
(3 -2.8877e-15 0)
(3 -2.90102e-15 0)
(3 -2.88419e-15 0)
(3 -1.53429e-15 0)
(3 -9.07158e-16 0)
(3 1.25442e-16 0)
(3 3.4186e-16 0)
(3 1.05065e-15 0)
(3 2.44864e-15 0)
(3 3.70381e-15 0)
(3 4.18197e-15 0)
(3 3.11921e-15 0)
(3 1.34819e-15 0)
(3 -1.23814e-16 0)
(3 -3.41218e-16 0)
(3 -1.33996e-15 0)
(3 -1.36973e-15 0)
(3 -9.23572e-16 0)
(3 -5.94785e-16 0)
(3 -1.56217e-16 0)
(3 2.60226e-16 0)
(3 9.58829e-17 0)
(3 9.63035e-18 0)
(3 -3.09386e-16 0)
(3 -1.03206e-15 0)
(3 -6.25361e-16 0)
(3 1.88196e-16 0)
(3 1.6819e-15 0)
(3 2.32687e-15 0)
(3 3.95032e-15 0)
(3 4.05378e-15 0)
(3 2.91672e-15 0)
(3 2.07656e-15 0)
(3 1.3341e-15 0)
(3 1.57677e-15 0)
(3 8.61185e-16 0)
(3 -1.20782e-16 0)
(3 2.78901e-16 0)
(3 7.40059e-16 0)
(3 -2.91867e-16 0)
(3 -1.27676e-15 0)
(3 -1.73407e-15 0)
(3 -9.68704e-16 0)
(3 -9.92913e-17 0)
(3 3.31909e-17 0)
(3 6.53196e-16 0)
(3 7.45203e-16 0)
(3 6.16299e-16 0)
(3 1.81879e-15 0)
(3 2.58028e-15 0)
(3 2.79579e-15 0)
(3 3.29951e-15 0)
(3 3.5561e-15 0)
(3 4.23423e-15 0)
(3 4.35072e-15 0)
(3 3.80642e-15 0)
(3 2.90141e-15 0)
(3 2.86575e-15 0)
(3 2.7982e-15 0)
(3 2.78152e-15 0)
(3 2.7474e-15 0)
(3 1.67409e-15 0)
(3 5.52765e-16 0)
(3 9.33429e-16 0)
(3 2.26251e-15 0)
(3 2.44819e-15 0)
(3 1.93233e-15 0)
(3 1.58584e-15 0)
(3 1.21837e-15 0)
(3 -1.41937e-16 0)
(3 -1.03928e-15 0)
(3 -1.05616e-15 0)
(3 -9.92987e-16 0)
(3 -1.65187e-15 0)
(3 -1.26438e-17 0)
(3 2.56744e-16 0)
(3 3.08845e-16 0)
(3 1.42038e-16 0)
(3 -2.10251e-16 0)
(3 -4.92956e-16 0)
(3 3.9031e-16 0)
(3 8.98455e-16 0)
(3 7.61351e-16 0)
(3 1.1246e-15 0)
(3 1.4105e-15 0)
(3 4.91498e-17 0)
(3 -1.54937e-15 0)
(3 -1.75975e-15 0)
(3 -1.39779e-15 0)
(3 -2.05229e-16 0)
(3 2.64436e-16 0)
(3 -2.15779e-17 0)
(3 -4.09041e-16 0)
(3 -9.49236e-16 0)
(3 -1.49106e-15 0)
(3 -1.65778e-15 0)
(3 -1.32602e-15 0)
(3 -1.68061e-15 0)
(3 -1.48963e-15 0)
(3 -1.18752e-15 0)
(3 -1.35742e-15 0)
(3 -3.91979e-16 0)
(3 6.51374e-16 0)
(3 1.69569e-15 0)
(3 2.69107e-15 0)
(3 3.5229e-15 0)
(3 4.22913e-15 0)
(3 4.42272e-15 0)
(3 3.59795e-15 0)
(3 5.98309e-16 0)
(3 -3.17422e-16 0)
(3 -5.8236e-16 0)
(3 -3.21394e-16 0)
(3 -2.67649e-16 0)
(3 -6.08994e-16 0)
(3 -3.08067e-16 0)
(3 1.37084e-15 0)
(3 2.78115e-15 0)
(3 2.60276e-15 0)
(3 1.95201e-15 0)
(3 -3.47014e-16 0)
(3 -1.36328e-15 0)
(3 -3.44494e-16 0)
(3 8.6841e-16 0)
(3 2.06065e-15 0)
(3 2.58531e-15 0)
(3 2.08584e-15 0)
(3 6.2242e-16 0)
(3 1.56122e-15 0)
(3 1.08479e-15 0)
(3 8.4791e-16 0)
(3 -3.58751e-17 0)
(3 -3.27413e-16 0)
(3 5.24068e-16 0)
(3 3.41732e-16 0)
(3 -7.7783e-17 0)
(3 2.12758e-16 0)
(3 1.03853e-15 0)
(3 2.07474e-15 0)
(3 2.84978e-15 0)
(3 3.00461e-15 0)
(3 2.25785e-15 0)
(3 4.07467e-16 0)
(3 -9.97255e-16 0)
(3 -1.47149e-15 0)
(3 -1.46894e-16 0)
(3 1.95267e-15 0)
(3 2.44204e-15 0)
(3 2.53457e-15 0)
(3 2.67265e-15 0)
(3 2.88527e-15 0)
(3 3.43401e-15 0)
(3 3.85508e-15 0)
(3 3.23216e-15 0)
(3 3.07928e-15 0)
(3 3.60351e-15 0)
(3 3.97751e-15 0)
(3 3.0527e-15 0)
(3 1.81753e-15 0)
(3 2.19848e-15 0)
(3 2.88374e-15 0)
(3 2.12675e-15 0)
(3 1.08825e-15 0)
(3 6.76946e-16 0)
(3 2.7847e-16 0)
(3 7.96747e-17 0)
(3 3.13684e-16 0)
(3 -8.91383e-17 0)
(3 -1.0641e-15 0)
(3 -1.26706e-15 0)
(3 4.48882e-17 0)
(3 -7.33166e-17 0)
(3 3.84855e-16 0)
(3 2.9825e-16 0)
(3 4.17984e-16 0)
(3 -1.28945e-16 0)
(3 -1.6493e-16 0)
(3 7.42573e-16 0)
(3 2.00107e-15 0)
(3 2.74594e-15 0)
(3 1.64937e-15 0)
(3 1.41234e-15 0)
(3 1.90602e-15 0)
(3 1.73697e-15 0)
(3 5.32677e-16 0)
(3 8.7344e-16 0)
(3 6.61205e-16 0)
(3 7.53488e-16 0)
(3 8.38945e-16 0)
(3 3.0556e-16 0)
(3 9.92124e-16 0)
(3 6.59077e-16 0)
(3 -5.4014e-16 0)
(3 -3.09702e-16 0)
(3 -1.81244e-16 0)
(3 -3.03562e-16 0)
(3 -3.47658e-16 0)
(3 2.97629e-16 0)
(3 1.02572e-15 0)
(3 1.85652e-15 0)
(3 2.18991e-15 0)
(3 3.27023e-15 0)
(3 2.94211e-15 0)
(3 3.43824e-15 0)
(3 2.96913e-15 0)
(3 1.82792e-15 0)
(3 3.67773e-15 0)
(3 3.49889e-15 0)
(3 2.33531e-15 0)
(3 1.37317e-15 0)
(3 5.27322e-16 0)
(3 5.90472e-16 0)
(3 1.1556e-15 0)
(3 6.40446e-16 0)
(3 7.24204e-18 0)
(3 5.8696e-17 0)
(3 1.31068e-17 0)
(3 2.13483e-16 0)
(3 -1.01182e-16 0)
(3 1.01827e-15 0)
(3 2.54406e-15 0)
(3 2.72644e-15 0)
(3 2.29232e-15 0)
(3 5.5818e-16 0)
(3 -8.45187e-16 0)
(3 -5.5854e-16 0)
(3 -2.42033e-16 0)
(3 3.26483e-16 0)
(3 7.0687e-16 0)
(3 2.5844e-15 0)
(3 2.54461e-15 0)
(3 2.63472e-15 0)
(3 2.81812e-15 0)
(3 3.41193e-15 0)
(3 3.09394e-15 0)
(3 2.79821e-15 0)
(3 2.94959e-15 0)
(3 2.72032e-15 0)
(3 2.51487e-15 0)
(3 1.51996e-15 0)
(3 7.22034e-16 0)
(3 2.66655e-16 0)
(3 6.78113e-16 0)
(3 9.7283e-16 0)
(3 1.21656e-15 0)
(3 1.87793e-15 0)
(3 1.93402e-15 0)
(3 2.1915e-15 0)
(3 2.22686e-15 0)
(3 3.13826e-15 0)
(3 3.19536e-15 0)
(3 1.59992e-15 0)
(3 -4.16708e-16 0)
(3 -9.24249e-17 0)
(3 -3.31501e-17 0)
(3 3.15716e-16 0)
(3 1.32481e-15 0)
(3 1.6238e-15 0)
(3 1.74153e-15 0)
(3 1.4054e-15 0)
(3 9.39345e-16 0)
(3 1.01809e-15 0)
(3 5.11385e-16 0)
(3 4.16891e-16 0)
(3 -5.51596e-16 0)
(3 -4.96798e-16 0)
(3 -1.0147e-16 0)
(3 -3.16322e-16 0)
(3 1.25386e-17 0)
(3 3.51587e-16 0)
(3 5.60196e-16 0)
(3 -3.24876e-16 0)
(3 -6.7298e-16 0)
(3 -5.12095e-16 0)
(3 2.19187e-16 0)
(3 4.83761e-16 0)
(3 6.61671e-16 0)
(3 1.79705e-15 0)
(3 2.78127e-15 0)
(3 3.92437e-15 0)
(3 3.33533e-15 0)
(3 2.12242e-15 0)
(3 1.43949e-15 0)
(3 1.07955e-15 0)
(3 3.09571e-16 0)
(3 2.46895e-16 0)
(3 4.45541e-16 0)
(3 4.06085e-16 0)
(3 -7.90169e-16 0)
(3 -6.57305e-16 0)
(3 -5.57191e-16 0)
(3 -4.96136e-16 0)
(3 6.60218e-17 0)
(3 9.93685e-16 0)
(3 1.39883e-15 0)
(3 2.14762e-15 0)
(3 2.87027e-15 0)
(3 1.98739e-15 0)
(3 9.4746e-16 0)
(3 4.36405e-16 0)
(3 6.12632e-16 0)
(3 1.4178e-15 0)
(3 3.38267e-15 0)
(3 5.0256e-15 0)
(3 5.03458e-15 0)
(3 3.27715e-15 0)
(3 2.86985e-15 0)
(3 2.97211e-15 0)
(3 1.15195e-15 0)
(3 2.09972e-16 0)
(3 1.14436e-16 0)
(3 4.79163e-16 0)
(3 2.79168e-15 0)
(3 2.75726e-15 0)
(3 1.44855e-15 0)
(3 5.16956e-16 0)
(3 2.69956e-16 0)
(3 8.09838e-16 0)
(3 9.97609e-16 0)
(3 6.15532e-16 0)
(3 -1.37213e-15 0)
(3 -3.64545e-15 0)
(3 -3.53008e-15 0)
(3 -1.78638e-15 0)
(3 -5.78578e-16 0)
(3 6.97795e-16 0)
(3 2.88023e-15 0)
(3 4.3681e-15 0)
(3 3.95768e-15 0)
(3 3.14802e-15 0)
(3 3.6162e-15 0)
(3 2.22036e-15 0)
(3 2.17799e-15 0)
(3 2.33323e-15 0)
(3 3.50539e-15 0)
(3 3.81111e-15 0)
(3 3.25242e-15 0)
(3 1.2734e-15 0)
(3 5.58763e-16 0)
(3 6.12634e-16 0)
(3 1.9876e-15 0)
(3 3.24097e-15 0)
(3 2.79531e-15 0)
(3 1.79926e-15 0)
(3 4.27923e-16 0)
(3 6.45834e-16 0)
(3 1.03322e-15 0)
(3 1.00511e-15 0)
(3 1.46612e-16 0)
(3 -3.76678e-16 0)
(3 2.05336e-16 0)
(3 1.02347e-15 0)
(3 3.95667e-16 0)
(3 4.06896e-16 0)
(3 4.04387e-16 0)
(3 -2.14063e-17 0)
(3 3.98304e-17 0)
(3 -2.27355e-17 0)
(3 -1.00584e-15 0)
(3 -3.81913e-16 0)
(3 1.14876e-16 0)
(3 -5.10862e-16 0)
(3 -1.05092e-17 0)
(3 -9.28405e-17 0)
(3 -4.35405e-16 0)
(3 -1.15449e-15 0)
(3 -1.31873e-15 0)
(3 -6.97014e-16 0)
(3 -3.57419e-16 0)
(3 -1.38181e-15 0)
(3 -1.72317e-15 0)
(3 -1.44043e-15 0)
(3 -6.53296e-16 0)
(3 1.41122e-16 0)
(3 2.49413e-16 0)
(3 5.8907e-16 0)
(3 1.50732e-15 0)
(3 1.50969e-15 0)
(3 1.83937e-15 0)
(3 1.36163e-15 0)
(3 2.63192e-16 0)
(3 -9.27934e-16 0)
(3 -2.30476e-15 0)
(3 -2.91218e-15 0)
(3 -1.27475e-15 0)
(3 -1.43447e-15 0)
(3 -1.96273e-15 0)
(3 -9.61269e-16 0)
(3 -1.83351e-16 0)
(3 1.30392e-15 0)
(3 1.67944e-15 0)
(3 1.6762e-15 0)
(3 1.41777e-15 0)
(3 7.33688e-16 0)
(3 2.88984e-16 0)
(3 6.35923e-17 0)
(3 2.03862e-16 0)
(3 6.15909e-16 0)
(3 9.84872e-16 0)
(3 1.65234e-15 0)
(3 3.19445e-15 0)
(3 4.37082e-15 0)
(3 3.81503e-15 0)
(3 2.0913e-15 0)
(3 1.22089e-15 0)
(3 1.80585e-15 0)
(3 2.7517e-15 0)
(3 3.10508e-15 0)
(3 2.59976e-15 0)
(3 1.96762e-15 0)
(3 1.75965e-15 0)
(3 2.41771e-16 0)
(3 -1.15072e-15 0)
(3 -1.50617e-15 0)
(3 -1.54208e-15 0)
(3 -1.12553e-15 0)
(3 -1.16571e-15 0)
(3 -1.6895e-15 0)
(3 -2.65792e-15 0)
(3 -2.49746e-15 0)
(3 -1.73033e-15 0)
(3 -1.40829e-15 0)
(3 -1.02407e-15 0)
(3 -9.90588e-17 0)
(3 1.21942e-17 0)
(3 3.65165e-16 0)
(3 8.33211e-16 0)
(3 1.20351e-16 0)
(3 3.01407e-16 0)
(3 5.2568e-16 0)
(3 1.19435e-15 0)
(3 1.89889e-15 0)
(3 1.89377e-15 0)
(3 1.36963e-15 0)
(3 3.52376e-16 0)
(3 1.4472e-15 0)
(3 2.38367e-15 0)
(3 3.06078e-15 0)
(3 1.58595e-15 0)
(3 5.15463e-16 0)
(3 -1.87169e-16 0)
(3 -1.06391e-15 0)
(3 -1.78968e-15 0)
(3 -8.317e-16 0)
(3 -5.02599e-17 0)
(3 4.18526e-16 0)
(3 1.22272e-15 0)
(3 1.46431e-15 0)
(3 7.71606e-16 0)
(3 -5.951e-16 0)
(3 -1.60985e-15 0)
(3 -2.22198e-15 0)
(3 -1.75037e-15 0)
(3 -1.12307e-15 0)
(3 -7.14131e-16 0)
(3 -3.23389e-16 0)
(3 2.02182e-16 0)
(3 -4.03766e-16 0)
(3 1.30053e-16 0)
(3 8.35198e-17 0)
(3 -2.47176e-16 0)
(3 -5.4706e-16 0)
(3 -9.21891e-16 0)
(3 -5.65105e-16 0)
(3 2.24382e-17 0)
(3 -1.55436e-16 0)
(3 -1.15021e-15 0)
(3 -2.19502e-15 0)
(3 -3.19881e-15 0)
(3 -2.6692e-15 0)
(3 -2.3852e-15 0)
(3 -2.2591e-15 0)
(3 -1.02701e-15 0)
(3 -2.74618e-17 0)
(3 5.63579e-16 0)
(3 4.52839e-16 0)
(3 8.12754e-16 0)
(3 -9.86144e-17 0)
(3 -3.1181e-15 0)
(3 -3.95314e-15 0)
(3 -3.71197e-15 0)
(3 -3.34673e-15 0)
(3 -3.37339e-15 0)
(3 -3.40934e-15 0)
(3 -3.80508e-15 0)
(3 -1.70719e-15 0)
(3 1.11462e-15 0)
(3 1.99229e-15 0)
(3 1.89161e-15 0)
(3 1.65863e-15 0)
(3 1.6807e-15 0)
(3 1.71924e-15 0)
(3 1.6223e-15 0)
(3 1.73181e-15 0)
(3 1.47791e-15 0)
(3 9.88204e-16 0)
(3 8.82905e-16 0)
(3 1.30812e-15 0)
(3 1.15283e-15 0)
(3 1.59767e-15 0)
(3 1.80801e-15 0)
(3 1.82505e-15 0)
(3 1.81243e-15 0)
(3 9.12201e-16 0)
(3 4.25313e-16 0)
(3 7.09135e-16 0)
(3 4.71021e-16 0)
(3 -7.44258e-16 0)
(3 -1.62497e-15 0)
(3 -1.92656e-15 0)
(3 -1.89628e-15 0)
(3 -1.51914e-15 0)
(3 -3.02361e-16 0)
(3 -1.38814e-17 0)
(3 1.16834e-15 0)
(3 1.14765e-15 0)
(3 1.32113e-15 0)
(3 1.12665e-15 0)
(3 -5.62958e-16 0)
(3 -9.55215e-16 0)
(3 3.25219e-16 0)
(3 9.42988e-16 0)
(3 -9.4999e-16 0)
(3 -1.12724e-15 0)
(3 -3.411e-16 0)
(3 -1.89088e-16 0)
(3 3.87241e-16 0)
(3 8.06684e-16 0)
(3 6.61479e-16 0)
(3 3.89961e-16 0)
(3 5.02579e-16 0)
(3 3.1533e-16 0)
(3 4.62837e-16 0)
(3 3.99645e-16 0)
(3 -4.46884e-16 0)
(3 -1.63459e-15 0)
(3 -2.02697e-15 0)
(3 -2.13182e-15 0)
(3 -2.07479e-15 0)
(3 -8.68516e-16 0)
(3 9.23034e-16 0)
(3 2.40952e-15 0)
(3 3.24455e-15 0)
(3 2.7829e-15 0)
(3 1.73847e-15 0)
(3 1.21275e-15 0)
(3 6.26507e-16 0)
(3 -4.16736e-16 0)
(3 -3.86295e-16 0)
(3 3.66782e-16 0)
(3 8.21672e-16 0)
(3 2.90646e-16 0)
(3 -3.09985e-16 0)
(3 2.41435e-17 0)
(3 -9.52603e-17 0)
(3 -7.78926e-17 0)
(3 1.67605e-16 0)
(3 5.40491e-16 0)
(3 2.71541e-16 0)
(3 -8.51232e-16 0)
(3 -1.17038e-15 0)
(3 -4.89131e-16 0)
(3 -9.81877e-16 0)
(3 -1.76305e-15 0)
(3 -1.98549e-15 0)
(3 -2.40245e-15 0)
(3 -2.14512e-15 0)
(3 -1.41651e-15 0)
(3 -7.6897e-16 0)
(3 9.19533e-17 0)
(3 6.83261e-17 0)
(3 5.24984e-16 0)
(3 1.18486e-15 0)
(3 9.64112e-18 0)
(3 -1.11949e-15 0)
(3 -1.18028e-15 0)
(3 -2.31269e-15 0)
(3 -3.20306e-15 0)
(3 -4.16305e-15 0)
(3 -3.96813e-15 0)
(3 -2.29147e-15 0)
(3 -1.49751e-15 0)
(3 -6.59352e-17 0)
(3 3.40067e-15 0)
(3 3.87319e-15 0)
(3 3.24208e-15 0)
(3 2.88794e-15 0)
(3 2.9557e-15 0)
(3 2.53236e-15 0)
(3 2.78422e-15 0)
(3 2.57029e-15 0)
(3 1.843e-15 0)
(3 -4.36113e-16 0)
(3 -1.60474e-15 0)
(3 -2.42229e-15 0)
(3 -1.08509e-15 0)
(3 -7.67868e-16 0)
(3 -7.86545e-16 0)
(3 -6.90508e-16 0)
(3 -4.49238e-16 0)
(3 1.94027e-15 0)
(3 2.1188e-15 0)
(3 6.79374e-16 0)
(3 -6.81965e-16 0)
(3 -7.76535e-16 0)
(3 -8.79804e-16 0)
(3 -2.16913e-16 0)
(3 6.31621e-16 0)
(3 1.08371e-15 0)
(3 1.10196e-15 0)
(3 2.13482e-15 0)
(3 1.39521e-15 0)
(3 8.5477e-16 0)
(3 1.16894e-15 0)
(3 1.02875e-15 0)
(3 1.05694e-15 0)
(3 1.48771e-15 0)
(3 1.0224e-15 0)
(3 -2.98079e-16 0)
(3 -2.40585e-16 0)
(3 5.37189e-16 0)
(3 7.68309e-16 0)
(3 8.33015e-16 0)
(3 6.37655e-16 0)
(3 1.39934e-15 0)
(3 1.84931e-15 0)
(3 1.70502e-15 0)
(3 7.23501e-16 0)
(3 -2.86018e-16 0)
(3 -1.98635e-15 0)
(3 -1.88867e-15 0)
(3 -1.10745e-15 0)
(3 -1.66255e-16 0)
(3 -3.54059e-16 0)
(3 -2.98737e-16 0)
(3 -9.1362e-17 0)
(3 2.10588e-16 0)
(3 1.82741e-15 0)
(3 3.49238e-15 0)
(3 3.98041e-15 0)
(3 5.55574e-15 0)
(3 6.17775e-15 0)
(3 4.74631e-15 0)
(3 3.59828e-15 0)
(3 1.88388e-15 0)
(3 1.36096e-15 0)
(3 2.00725e-15 0)
(3 2.16624e-16 0)
(3 2.21545e-16 0)
(3 4.13128e-17 0)
(3 -1.16607e-17 0)
(3 -2.73097e-16 0)
(3 -2.01919e-16 0)
(3 2.6507e-16 0)
(3 1.39231e-15 0)
(3 1.23309e-15 0)
(3 5.89441e-16 0)
(3 2.32652e-16 0)
(3 5.59135e-16 0)
(3 1.31165e-15 0)
(3 1.45602e-15 0)
(3 1.06178e-15 0)
(3 5.36828e-16 0)
(3 8.12287e-16 0)
(3 2.38084e-16 0)
(3 1.22578e-16 0)
(3 -2.55114e-16 0)
(3 6.93887e-16 0)
(3 1.03496e-15 0)
(3 1.05561e-15 0)
(3 8.82718e-16 0)
(3 3.45479e-16 0)
(3 3.22968e-16 0)
(3 -3.08725e-16 0)
(3 -1.83461e-15 0)
(3 -1.83837e-15 0)
(3 -1.04089e-15 0)
(3 -1.39125e-15 0)
(3 -1.36776e-15 0)
(3 7.27737e-16 0)
(3 2.16916e-15 0)
(3 2.50039e-15 0)
(3 2.98793e-15 0)
(3 3.60543e-15 0)
(3 4.46369e-15 0)
(3 4.05493e-15 0)
(3 2.82316e-15 0)
(3 2.3363e-15 0)
(3 2.7874e-16 0)
(3 -1.96146e-15 0)
(3 -1.90337e-15 0)
(3 -2.24616e-15 0)
(3 -2.101e-15 0)
(3 -1.68386e-15 0)
(3 -1.27759e-15 0)
(3 2.23484e-16 0)
(3 9.63565e-16 0)
(3 -1.23501e-15 0)
(3 -2.49902e-15 0)
(3 -2.17679e-15 0)
(3 -7.66528e-16 0)
(3 2.90758e-16 0)
(3 6.32297e-16 0)
(3 1.28587e-15 0)
(3 2.13645e-15 0)
(3 3.32762e-15 0)
(3 3.60874e-15 0)
(3 2.98023e-15 0)
(3 1.95671e-15 0)
(3 1.721e-15 0)
(3 1.87835e-15 0)
(3 1.61591e-15 0)
(3 8.96712e-16 0)
(3 -1.3103e-16 0)
(3 5.41503e-17 0)
(3 1.03593e-15 0)
(3 1.2829e-15 0)
(3 1.87695e-15 0)
(3 1.01847e-15 0)
(3 7.15287e-16 0)
(3 1.37587e-15 0)
(3 2.0908e-15 0)
(3 2.27221e-15 0)
(3 1.96665e-15 0)
(3 9.48863e-16 0)
(3 -1.80669e-16 0)
(3 -1.0007e-16 0)
(3 2.75921e-16 0)
(3 5.61333e-16 0)
(3 4.00478e-16 0)
(3 4.34012e-16 0)
(3 5.61311e-16 0)
(3 8.72018e-16 0)
(3 1.15803e-15 0)
(3 1.83938e-15 0)
(3 2.71513e-15 0)
(3 2.93971e-15 0)
(3 2.49834e-15 0)
(3 2.67072e-15 0)
(3 2.70302e-15 0)
(3 2.15861e-15 0)
(3 3.9965e-16 0)
(3 -2.02688e-16 0)
(3 -3.23987e-16 0)
(3 1.04473e-15 0)
(3 2.97097e-16 0)
(3 2.62213e-16 0)
(3 2.50853e-16 0)
(3 1.32447e-16 0)
(3 3.97781e-17 0)
(3 6.75795e-16 0)
(3 2.44555e-15 0)
(3 2.53634e-15 0)
(3 1.92299e-15 0)
(3 1.65503e-15 0)
(3 2.39995e-15 0)
(3 2.34718e-15 0)
(3 8.65768e-16 0)
(3 5.85549e-16 0)
(3 2.96907e-16 0)
(3 -5.86567e-16 0)
(3 -1.09403e-15 0)
(3 -8.55416e-17 0)
(3 2.00993e-16 0)
(3 9.91048e-16 0)
(3 2.07198e-15 0)
(3 2.37165e-15 0)
(3 5.97158e-16 0)
(3 -2.89755e-16 0)
(3 -3.014e-16 0)
(3 1.08797e-16 0)
(3 4.50631e-16 0)
(3 -9.31385e-16 0)
(3 -1.02474e-15 0)
(3 -5.97147e-16 0)
(3 -5.18484e-16 0)
(3 1.86272e-18 0)
(3 2.14895e-15 0)
(3 2.21816e-15 0)
(3 2.33631e-15 0)
(3 3.06091e-15 0)
(3 2.92077e-15 0)
(3 1.9789e-15 0)
(3 2.1393e-15 0)
(3 2.37775e-15 0)
(3 7.05254e-16 0)
(3 1.37939e-16 0)
(3 -8.70303e-16 0)
(3 -9.9074e-16 0)
(3 -1.22157e-15 0)
(3 -1.28659e-15 0)
(3 -1.1397e-15 0)
(3 -2.10739e-15 0)
(3 -2.56776e-15 0)
(3 -2.41595e-15 0)
(3 -1.77724e-15 0)
(3 -1.32523e-15 0)
(3 -6.46716e-16 0)
(3 -5.45939e-16 0)
(3 -2.99031e-16 0)
(3 1.37452e-15 0)
(3 2.57093e-15 0)
(3 2.17064e-15 0)
(3 2.04563e-15 0)
(3 2.33599e-15 0)
(3 2.49295e-15 0)
(3 2.57311e-15 0)
(3 1.95239e-15 0)
(3 1.74095e-16 0)
(3 -5.30318e-16 0)
(3 -3.52392e-16 0)
(3 -7.4392e-16 0)
(3 -1.63345e-15 0)
(3 -2.25835e-15 0)
(3 -2.1777e-15 0)
(3 -1.88184e-15 0)
(3 -1.45952e-15 0)
(3 9.33626e-17 0)
(3 2.29724e-15 0)
(3 2.45119e-15 0)
(3 2.29799e-15 0)
(3 3.91629e-15 0)
(3 3.84557e-15 0)
(3 3.17003e-15 0)
(3 1.18223e-15 0)
(3 1.08611e-15 0)
(3 1.49345e-15 0)
(3 1.8533e-15 0)
(3 2.30459e-15 0)
(3 2.02242e-15 0)
(3 1.22085e-15 0)
(3 5.31101e-16 0)
(3 -3.6856e-16 0)
(3 -1.75269e-15 0)
(3 -1.03898e-15 0)
(3 8.58343e-17 0)
(3 4.29074e-16 0)
(3 7.53733e-16 0)
(3 9.31921e-16 0)
(3 9.75415e-16 0)
(3 8.60614e-16 0)
(3 -6.74577e-17 0)
(3 1.52928e-16 0)
(3 1.02244e-15 0)
(3 1.01641e-15 0)
(3 9.13136e-16 0)
(3 4.77912e-16 0)
(3 -5.39102e-17 0)
(3 -1.79775e-16 0)
(3 -1.56981e-16 0)
(3 1.30459e-16 0)
(3 8.74507e-16 0)
(3 8.47171e-16 0)
(3 -3.83637e-16 0)
(3 -8.81607e-16 0)
(3 -1.91836e-15 0)
(3 -9.38396e-16 0)
(3 -4.49266e-16 0)
(3 -2.49777e-16 0)
(3 -2.87369e-16 0)
(3 2.08043e-17 0)
(3 5.29808e-16 0)
(3 4.2665e-16 0)
(3 6.33366e-16 0)
(3 -4.48049e-16 0)
(3 -6.69091e-16 0)
(3 -5.01e-16 0)
(3 -6.29538e-16 0)
(3 -8.77165e-16 0)
(3 -6.14355e-16 0)
(3 8.33276e-17 0)
(3 -7.45815e-16 0)
(3 -1.28809e-15 0)
(3 9.54814e-17 0)
(3 1.29209e-15 0)
(3 2.33649e-15 0)
(3 1.99612e-15 0)
(3 1.19122e-15 0)
(3 1.20727e-15 0)
(3 2.02119e-15 0)
(3 3.31657e-15 0)
(3 3.17756e-15 0)
(3 1.41057e-15 0)
(3 -8.97664e-16 0)
(3 -1.0475e-15 0)
(3 -1.0982e-15 0)
(3 -5.11511e-16 0)
(3 -4.17252e-17 0)
(3 -1.57878e-15 0)
(3 -2.779e-15 0)
(3 -2.00699e-15 0)
(3 -9.29515e-16 0)
(3 -1.18378e-15 0)
(3 -2.33998e-15 0)
(3 -2.69227e-15 0)
(3 -2.39418e-15 0)
(3 -1.56351e-15 0)
(3 -6.80369e-16 0)
(3 -6.10225e-16 0)
(3 -8.0178e-17 0)
(3 8.89638e-16 0)
(3 9.50644e-16 0)
(3 1.05584e-15 0)
(3 1.2207e-15 0)
(3 3.30162e-16 0)
(3 -2.0104e-17 0)
(3 1.83367e-16 0)
(3 3.53105e-17 0)
(3 -5.29196e-16 0)
(3 -1.9918e-15 0)
(3 -2.07559e-15 0)
(3 -2.03632e-15 0)
(3 -1.45907e-15 0)
(3 9.22402e-17 0)
(3 1.08524e-15 0)
(3 1.31884e-15 0)
(3 1.36005e-15 0)
(3 1.79047e-15 0)
(3 3.18795e-15 0)
(3 3.2926e-15 0)
(3 1.54914e-15 0)
(3 1.73871e-15 0)
(3 2.83038e-15 0)
(3 3.03854e-15 0)
(3 2.5795e-15 0)
(3 1.6851e-15 0)
(3 1.56325e-15 0)
(3 5.35629e-16 0)
(3 1.98897e-16 0)
(3 -1.99419e-16 0)
(3 -1.95897e-16 0)
(3 4.15903e-16 0)
(3 2.18669e-16 0)
(3 7.98325e-16 0)
(3 1.23184e-15 0)
(3 1.43277e-15 0)
(3 7.35837e-16 0)
(3 -2.9384e-16 0)
(3 -2.02682e-16 0)
(3 -2.44832e-16 0)
(3 -4.23151e-16 0)
(3 -4.72351e-16 0)
(3 -1.65484e-15 0)
(3 -2.78725e-15 0)
(3 -3.17378e-15 0)
(3 -2.50059e-15 0)
(3 -1.65196e-16 0)
(3 -1.91212e-16 0)
(3 -1.89514e-16 0)
(3 1.31404e-16 0)
(3 -6.99057e-17 0)
(3 -4.2311e-16 0)
(3 -2.239e-16 0)
(3 -1.88647e-16 0)
(3 2.65216e-17 0)
(3 -8.40095e-17 0)
(3 -7.91059e-17 0)
(3 -3.95938e-16 0)
(3 -1.46062e-16 0)
(3 3.49094e-16 0)
(3 6.18446e-16 0)
(3 5.9787e-17 0)
(3 1.79969e-16 0)
(3 -2.24572e-16 0)
(3 -8.80517e-16 0)
(3 -9.33979e-16 0)
(3 -7.81088e-16 0)
(3 -1.15067e-15 0)
(3 -1.18244e-15 0)
(3 -8.30727e-16 0)
(3 7.42674e-16 0)
(3 1.68703e-15 0)
(3 1.18527e-15 0)
(3 1.24845e-15 0)
(3 1.67142e-15 0)
(3 1.89033e-15 0)
(3 2.03747e-15 0)
(3 2.18777e-15 0)
(3 2.34363e-15 0)
(3 1.59725e-15 0)
(3 1.11024e-15 0)
(3 9.49596e-16 0)
(3 6.32142e-16 0)
(3 -3.21538e-16 0)
(3 -8.34662e-16 0)
(3 -8.72701e-16 0)
(3 -4.468e-16 0)
(3 2.71541e-16 0)
(3 7.64807e-16 0)
(3 -8.47372e-16 0)
(3 -1.59061e-15 0)
(3 -1.38113e-15 0)
(3 -1.34883e-15 0)
(3 -4.42977e-16 0)
(3 4.16001e-16 0)
(3 1.08844e-15 0)
(3 8.45685e-16 0)
(3 -1.18677e-16 0)
(3 -7.45319e-17 0)
(3 4.17569e-16 0)
(3 7.43451e-16 0)
(3 4.92475e-16 0)
(3 -4.83318e-16 0)
(3 -1.44452e-15 0)
(3 -9.08409e-16 0)
(3 -9.01114e-16 0)
(3 -1.14496e-15 0)
(3 -5.56618e-16 0)
(3 6.84138e-16 0)
(3 1.13354e-15 0)
(3 5.99084e-16 0)
(3 3.13308e-17 0)
(3 -2.25346e-16 0)
(3 6.37962e-16 0)
(3 7.79762e-16 0)
(3 1.25011e-15 0)
(3 1.68955e-15 0)
(3 2.58424e-15 0)
(3 3.54641e-15 0)
(3 3.58403e-15 0)
(3 1.15786e-15 0)
(3 -1.40975e-15 0)
(3 -1.94368e-15 0)
(3 -1.61139e-15 0)
(3 -8.7882e-16 0)
(3 -2.82563e-16 0)
(3 2.51517e-16 0)
(3 1.96231e-15 0)
(3 2.00791e-15 0)
(3 9.98702e-16 0)
(3 6.00266e-16 0)
(3 8.31689e-16 0)
(3 5.61046e-16 0)
(3 3.84428e-17 0)
(3 -3.44052e-17 0)
(3 -3.01333e-16 0)
(3 -5.15103e-16 0)
(3 -1.13746e-15 0)
(3 -1.24857e-15 0)
(3 -7.62553e-16 0)
(3 -2.97468e-16 0)
(3 6.07487e-16 0)
(3 1.03185e-15 0)
(3 -3.42365e-16 0)
(3 -2.71563e-16 0)
(3 -2.22615e-17 0)
(3 -1.97618e-16 0)
(3 2.21882e-16 0)
(3 -2.33635e-16 0)
(3 4.1853e-16 0)
(3 7.03658e-16 0)
(3 5.31017e-16 0)
(3 3.52996e-16 0)
(3 9.41565e-16 0)
(3 1.31039e-15 0)
(3 1.6023e-15 0)
(3 1.60528e-15 0)
(3 1.1196e-15 0)
(3 1.06257e-15 0)
(3 4.57158e-16 0)
(3 1.19263e-16 0)
(3 4.12252e-16 0)
(3 -2.15386e-16 0)
(3 -6.9923e-16 0)
(3 -1.15388e-15 0)
(3 -1.46616e-15 0)
(3 -1.70446e-15 0)
(3 -1.38091e-15 0)
(3 -7.43318e-17 0)
(3 4.94345e-16 0)
(3 5.34075e-16 0)
(3 3.73047e-16 0)
(3 2.67649e-16 0)
(3 4.54211e-16 0)
(3 1.08259e-15 0)
(3 2.55589e-15 0)
(3 2.21764e-15 0)
(3 8.99295e-16 0)
(3 -2.09758e-15 0)
(3 -2.74742e-15 0)
(3 -2.4856e-15 0)
(3 -8.55832e-16 0)
(3 1.30862e-15 0)
(3 2.78488e-15 0)
(3 3.19279e-15 0)
(3 2.53649e-15 0)
(3 1.97123e-15 0)
(3 1.4579e-15 0)
(3 9.60289e-16 0)
(3 1.33118e-15 0)
(3 2.5678e-15 0)
(3 3.0089e-15 0)
(3 7.14885e-16 0)
(3 7.04069e-17 0)
(3 1.06431e-15 0)
(3 2.44573e-15 0)
(3 2.74821e-15 0)
(3 1.35772e-15 0)
(3 -2.75706e-16 0)
(3 -9.73408e-16 0)
(3 -6.95446e-16 0)
(3 -6.57728e-16 0)
(3 -5.97962e-16 0)
(3 -3.72439e-17 0)
(3 4.91628e-16 0)
(3 1.04028e-16 0)
(3 -3.38856e-16 0)
(3 -1.71841e-16 0)
(3 1.43778e-16 0)
(3 5.7021e-16 0)
(3 -4.24825e-16 0)
(3 -1.3046e-16 0)
(3 6.73636e-16 0)
(3 1.10819e-15 0)
(3 1.23235e-16 0)
(3 -1.71278e-15 0)
(3 -2.19541e-15 0)
(3 -2.2408e-15 0)
(3 -1.82272e-15 0)
(3 -2.07042e-15 0)
(3 -2.32861e-15 0)
(3 -2.20499e-15 0)
(3 -1.71671e-15 0)
(3 -1.27881e-15 0)
(3 -7.78658e-16 0)
(3 -2.79545e-16 0)
(3 5.77575e-16 0)
(3 -6.38403e-17 0)
(3 -5.51827e-16 0)
(3 -1.03605e-15 0)
(3 -1.66596e-17 0)
(3 -2.56065e-16 0)
(3 -1.47447e-16 0)
(3 -4.51396e-16 0)
(3 5.40155e-16 0)
(3 8.28794e-16 0)
(3 1.26087e-15 0)
(3 1.68328e-15 0)
(3 2.72519e-16 0)
(3 -5.92808e-16 0)
(3 -6.45395e-16 0)
(3 6.50033e-16 0)
(3 7.79486e-16 0)
(3 4.58399e-16 0)
(3 4.48594e-16 0)
(3 5.02792e-16 0)
(3 5.08969e-16 0)
(3 6.38271e-16 0)
(3 8.03494e-16 0)
(3 1.5078e-15 0)
(3 1.44704e-15 0)
(3 1.52758e-15 0)
(3 5.00869e-16 0)
(3 2.35734e-16 0)
(3 -6.65237e-16 0)
(3 -2.65694e-16 0)
(3 5.94882e-16 0)
(3 9.43955e-16 0)
(3 1.19551e-15 0)
(3 3.55037e-16 0)
(3 -1.41734e-15 0)
(3 -1.44562e-15 0)
(3 -1.24192e-15 0)
(3 -1.30284e-15 0)
(3 -7.23596e-16 0)
(3 -3.42177e-16 0)
(3 -2.09281e-16 0)
(3 -4.85645e-16 0)
(3 -4.78031e-16 0)
(3 5.38413e-16 0)
(3 8.20966e-16 0)
(3 6.72015e-16 0)
(3 -8.7083e-16 0)
(3 -2.42512e-15 0)
(3 -3.80802e-15 0)
(3 -3.36668e-15 0)
(3 -1.54746e-15 0)
(3 7.69129e-16 0)
(3 1.25302e-15 0)
(3 1.48296e-15 0)
(3 2.09824e-15 0)
(3 3.68145e-15 0)
(3 3.7835e-15 0)
(3 2.59474e-15 0)
(3 2.51749e-15 0)
(3 1.8733e-15 0)
(3 7.52528e-16 0)
(3 -5.94129e-16 0)
(3 -6.41295e-16 0)
(3 6.7479e-16 0)
(3 2.11777e-16 0)
(3 -3.63995e-16 0)
(3 -2.92344e-17 0)
(3 1.61608e-15 0)
(3 2.18469e-15 0)