/*--------------------------------*- C++ -*----------------------------------*\
  =========                 |
  \\      /  F ield         | OpenFOAM: The Open Source CFD Toolbox
   \\    /   O peration     | Website:  https://openfoam.org
    \\  /    A nd           | Version:  7
     \\/     M anipulation  |
\*---------------------------------------------------------------------------*/
FoamFile
{
    version     2.0;
    format      ascii;
    class       volVectorField;
    location    "2.6";
    object      U;
}
// * * * * * * * * * * * * * * * * * * * * * * * * * * * * * * * * * * * * * //

dimensions      [0 1 -1 0 0 0 0];

internalField   nonuniform List<vector> 
73728
(
(3 -2.56925e-18 0)
(3 2.58551e-18 0)
(3 1.19257e-17 0)
(3 3.36021e-16 0)
(3 4.67775e-16 0)
(3 6.30729e-16 0)
(3 5.11063e-16 0)
(3 -1.64779e-16 0)
(3 -2.89983e-16 0)
(3 -4.6299e-16 0)
(3 -1.37735e-16 0)
(3 -1.03289e-16 0)
(3 2.10411e-16 0)
(3 3.47323e-16 0)
(3 5.60075e-17 0)
(3 -1.76706e-16 0)
(3 9.63022e-16 0)
(3 1.52854e-15 0)
(3 1.35763e-15 0)
(3 9.98217e-16 0)
(3 6.55093e-16 0)
(3 1.26927e-16 0)
(3 -2.05842e-16 0)
(3 5.12865e-16 0)
(3 1.102e-15 0)
(3 1.1375e-15 0)
(3 6.52434e-16 0)
(3 5.93281e-16 0)
(3 2.96241e-16 0)
(3 -1.26175e-16 0)
(3 -4.03021e-16 0)
(3 -4.72701e-16 0)
(3 -6.25676e-16 0)
(3 -6.6273e-16 0)
(3 -5.29752e-16 0)
(3 -5.44249e-16 0)
(3 -2.53384e-16 0)
(3 7.64226e-17 0)
(3 -6.51912e-17 0)
(3 1.83201e-16 0)
(3 2.43896e-16 0)
(3 -2.27928e-16 0)
(3 -7.36163e-16 0)
(3 -1.83473e-16 0)
(3 1.07507e-15 0)
(3 1.69832e-15 0)
(3 2.36256e-15 0)
(3 1.70588e-15 0)
(3 1.57203e-15 0)
(3 1.53205e-15 0)
(3 1.69934e-15 0)
(3 1.83602e-15 0)
(3 1.68648e-15 0)
(3 4.77404e-16 0)
(3 1.07755e-16 0)
(3 3.17157e-16 0)
(3 1.83079e-16 0)
(3 -6.42274e-16 0)
(3 -2.21154e-15 0)
(3 -1.67792e-15 0)
(3 -1.04731e-15 0)
(3 -7.67361e-16 0)
(3 -8.37203e-16 0)
(3 -9.8285e-16 0)
(3 2.65808e-17 0)
(3 9.89013e-16 0)
(3 1.03005e-15 0)
(3 8.57435e-16 0)
(3 6.08401e-16 0)
(3 5.6368e-16 0)
(3 4.62663e-16 0)
(3 1.41646e-16 0)
(3 3.18267e-16 0)
(3 -4.6343e-17 0)
(3 -2.0039e-17 0)
(3 -2.93944e-16 0)
(3 8.14748e-17 0)
(3 5.8111e-16 0)
(3 9.55241e-16 0)
(3 1.37535e-15 0)
(3 9.88458e-16 0)
(3 1.12323e-15 0)
(3 1.07665e-15 0)
(3 9.83833e-16 0)
(3 8.70662e-16 0)
(3 8.27786e-16 0)
(3 1.4384e-15 0)
(3 2.49934e-15 0)
(3 1.21161e-15 0)
(3 -3.33996e-16 0)
(3 -9.78616e-16 0)
(3 -1.39845e-15 0)
(3 -1.26106e-15 0)
(3 -7.07613e-16 0)
(3 -5.31036e-16 0)
(3 -7.58975e-16 0)
(3 1.04311e-17 0)
(3 4.70772e-17 0)
(3 3.68056e-16 0)
(3 1.025e-15 0)
(3 1.03826e-15 0)
(3 1.35865e-15 0)
(3 1.5555e-15 0)
(3 3.09017e-16 0)
(3 -2.28738e-16 0)
(3 -4.74876e-16 0)
(3 7.7711e-16 0)
(3 1.1002e-15 0)
(3 1.59248e-15 0)
(3 1.7637e-15 0)
(3 1.4733e-15 0)
(3 1.06155e-15 0)
(3 1.73779e-15 0)
(3 3.10892e-15 0)
(3 3.19932e-15 0)
(3 2.47547e-15 0)
(3 1.31295e-15 0)
(3 1.21299e-17 0)
(3 -2.50981e-16 0)
(3 6.01799e-16 0)
(3 1.75317e-15 0)
(3 2.30325e-15 0)
(3 2.20677e-15 0)
(3 7.10027e-16 0)
(3 6.58937e-16 0)
(3 3.24534e-16 0)
(3 2.20913e-16 0)
(3 -3.34879e-17 0)
(3 -6.04136e-16 0)
(3 -1.01755e-15 0)
(3 -8.26595e-16 0)
(3 1.88728e-16 0)
(3 -1.82853e-16 0)
(3 1.69585e-16 0)
(3 9.33214e-16 0)
(3 7.4609e-16 0)
(3 9.32415e-16 0)
(3 5.90772e-16 0)
(3 6.37567e-16 0)
(3 1.37124e-15 0)
(3 2.69103e-15 0)
(3 3.30964e-15 0)
(3 3.83289e-15 0)
(3 3.40776e-15 0)
(3 2.69629e-15 0)
(3 1.54063e-15 0)
(3 1.38518e-15 0)
(3 1.99756e-15 0)
(3 1.90406e-15 0)
(3 7.1216e-16 0)
(3 -1.73306e-15 0)
(3 -2.28818e-15 0)
(3 -2.85443e-15 0)
(3 -3.05493e-15 0)
(3 -2.74163e-15 0)
(3 -2.20258e-15 0)
(3 -1.20588e-15 0)
(3 -9.78458e-16 0)
(3 -6.61386e-16 0)
(3 -5.47552e-16 0)
(3 1.02387e-15 0)
(3 2.08669e-15 0)
(3 2.38847e-15 0)
(3 2.39453e-15 0)
(3 2.14216e-15 0)
(3 1.98078e-15 0)
(3 8.1469e-16 0)
(3 8.55972e-17 0)
(3 -5.81752e-16 0)
(3 -1.29857e-15 0)
(3 -1.15106e-15 0)
(3 -8.98387e-16 0)
(3 -9.57932e-16 0)
(3 1.5924e-15 0)
(3 1.75019e-15 0)
(3 1.21523e-15 0)
(3 1.29042e-15 0)
(3 1.65937e-15 0)
(3 1.9141e-15 0)
(3 1.9572e-15 0)
(3 1.67125e-15 0)
(3 1.367e-15 0)
(3 1.54166e-15 0)
(3 1.9665e-15 0)
(3 1.544e-15 0)
(3 -1.79885e-15 0)
(3 -2.89356e-15 0)
(3 -3.72301e-15 0)
(3 -2.45335e-15 0)
(3 -5.32103e-16 0)
(3 -1.44947e-16 0)
(3 -5.05109e-16 0)
(3 1.47621e-16 0)
(3 3.81801e-17 0)
(3 2.21001e-16 0)
(3 2.79124e-16 0)
(3 7.58638e-16 0)
(3 1.51191e-15 0)
(3 2.04831e-15 0)
(3 1.28742e-15 0)
(3 5.61361e-16 0)
(3 5.74834e-16 0)
(3 9.27994e-16 0)
(3 1.57443e-15 0)
(3 2.46484e-15 0)
(3 2.5531e-15 0)
(3 2.60264e-15 0)
(3 2.72815e-15 0)
(3 2.63586e-15 0)
(3 2.36393e-15 0)
(3 2.88738e-15 0)
(3 2.72637e-15 0)
(3 2.14288e-15 0)
(3 1.23e-15 0)
(3 8.40699e-16 0)
(3 2.11003e-16 0)
(3 4.81837e-16 0)
(3 9.11566e-16 0)
(3 1.46595e-15 0)
(3 1.24609e-15 0)
(3 1.40551e-15 0)
(3 1.87999e-15 0)
(3 2.48003e-15 0)
(3 1.05737e-15 0)
(3 1.06021e-16 0)
(3 7.91792e-17 0)
(3 -1.6376e-16 0)
(3 -5.24314e-16 0)
(3 -7.73166e-16 0)
(3 -3.74238e-16 0)
(3 -1.91507e-16 0)
(3 -2.38994e-16 0)
(3 -1.03292e-16 0)
(3 9.27143e-17 0)
(3 -2.86098e-16 0)
(3 -3.61749e-16 0)
(3 2.26706e-15 0)
(3 2.75999e-15 0)
(3 2.61478e-15 0)
(3 2.66805e-15 0)
(3 2.48012e-15 0)
(3 2.04297e-15 0)
(3 1.74761e-15 0)
(3 1.74986e-15 0)
(3 1.45896e-15 0)
(3 1.35315e-15 0)
(3 7.82919e-16 0)
(3 -2.2274e-16 0)
(3 -1.81957e-15 0)
(3 -2.93436e-15 0)
(3 -2.7032e-15 0)
(3 -1.48568e-15 0)
(3 -1.22937e-15 0)
(3 -1.98035e-15 0)
(3 -2.7147e-15 0)
(3 -2.9236e-15 0)
(3 -8.24283e-18 0)
(3 1.93174e-15 0)
(3 2.03689e-15 0)
(3 1.56658e-15 0)
(3 1.72133e-15 0)
(3 1.07591e-15 0)
(3 -3.86213e-17 0)
(3 -6.13142e-16 0)
(3 -1.71959e-15 0)
(3 -2.49576e-15 0)
(3 -2.83765e-15 0)
(3 -1.73099e-15 0)
(3 -1.33811e-16 0)
(3 1.49497e-15 0)
(3 1.19172e-15 0)
(3 1.02714e-15 0)
(3 2.05885e-15 0)
(3 2.27175e-15 0)
(3 2.56403e-15 0)
(3 2.4171e-15 0)
(3 2.51823e-15 0)
(3 2.60486e-15 0)
(3 2.93274e-15 0)
(3 2.60822e-15 0)
(3 1.77494e-15 0)
(3 -4.721e-16 0)
(3 -2.76288e-15 0)
(3 -3.57496e-15 0)
(3 -2.34187e-15 0)
(3 -5.8795e-16 0)
(3 -7.55841e-16 0)
(3 -7.94407e-16 0)
(3 -1.09085e-17 0)
(3 -4.598e-17 0)
(3 -1.35852e-16 0)
(3 1.54444e-16 0)
(3 4.34132e-16 0)
(3 4.58095e-16 0)
(3 5.08209e-16 0)
(3 9.49055e-16 0)
(3 8.67242e-16 0)
(3 5.996e-16 0)
(3 9.72193e-16 0)
(3 1.45544e-15 0)
(3 1.32491e-15 0)
(3 8.56281e-16 0)
(3 1.04093e-15 0)
(3 9.19283e-16 0)
(3 1.05471e-15 0)
(3 8.73926e-16 0)
(3 8.26658e-16 0)
(3 9.91541e-16 0)
(3 1.04455e-15 0)
(3 6.97303e-16 0)
(3 3.7967e-16 0)
(3 1.10072e-16 0)
(3 -1.20958e-16 0)
(3 7.94689e-18 0)
(3 4.01882e-16 0)
(3 9.92317e-16 0)
(3 1.89908e-15 0)
(3 2.23055e-15 0)
(3 1.73378e-15 0)
(3 7.2864e-16 0)
(3 2.79771e-16 0)
(3 3.30417e-16 0)
(3 3.73324e-16 0)
(3 3.72232e-16 0)
(3 6.43839e-16 0)
(3 4.90192e-16 0)
(3 3.12686e-16 0)
(3 8.46034e-16 0)
(3 9.62853e-16 0)
(3 6.97415e-16 0)
(3 -1.44776e-16 0)
(3 -2.02367e-16 0)
(3 2.36008e-15 0)
(3 3.42227e-15 0)
(3 3.26267e-15 0)
(3 2.47056e-15 0)
(3 2.33933e-15 0)
(3 2.1695e-15 0)
(3 2.11566e-15 0)
(3 1.73077e-15 0)
(3 1.49321e-15 0)
(3 6.24063e-16 0)
(3 6.88322e-17 0)
(3 -6.33468e-17 0)
(3 -8.6738e-16 0)
(3 -9.46105e-16 0)
(3 -5.23253e-16 0)
(3 -6.38413e-16 0)
(3 -6.87944e-16 0)
(3 -1.50828e-15 0)
(3 -2.78248e-15 0)
(3 -2.32618e-15 0)
(3 -1.55322e-15 0)
(3 -1.34486e-15 0)
(3 -1.84958e-15 0)
(3 -1.13305e-15 0)
(3 -4.86254e-16 0)
(3 -3.89055e-16 0)
(3 -2.64183e-16 0)
(3 -6.28913e-16 0)
(3 -1.1987e-15 0)
(3 -1.36095e-15 0)
(3 -1.84255e-15 0)
(3 -1.3907e-15 0)
(3 8.11151e-16 0)
(3 1.17644e-15 0)
(3 1.27529e-15 0)
(3 1.25317e-15 0)
(3 1.14409e-15 0)
(3 1.3533e-15 0)
(3 1.35805e-15 0)
(3 1.56603e-15 0)
(3 1.69784e-15 0)
(3 1.21001e-15 0)
(3 1.2031e-15 0)
(3 1.30352e-15 0)
(3 1.69941e-15 0)
(3 1.11507e-15 0)
(3 5.84032e-16 0)
(3 -5.57855e-16 0)
(3 -1.14662e-15 0)
(3 -8.73959e-16 0)
(3 -6.3155e-16 0)
(3 -1.44364e-15 0)
(3 -8.24191e-17 0)
(3 -7.19995e-18 0)
(3 1.15382e-16 0)
(3 2.11323e-16 0)
(3 3.12367e-16 0)
(3 -3.45649e-16 0)
(3 -7.16345e-16 0)
(3 -2.75903e-16 0)
(3 6.0172e-16 0)
(3 1.22973e-15 0)
(3 1.48232e-15 0)
(3 8.51465e-16 0)
(3 -5.44557e-16 0)
(3 -5.16901e-16 0)
(3 -6.42036e-16 0)
(3 -6.33849e-16 0)
(3 -6.15934e-16 0)
(3 -9.17037e-16 0)
(3 -1.10394e-15 0)
(3 -1.21065e-15 0)
(3 -1.50259e-15 0)
(3 -1.40356e-15 0)
(3 -6.04144e-16 0)
(3 6.65558e-16 0)
(3 5.31612e-16 0)
(3 4.16631e-16 0)
(3 2.93499e-16 0)
(3 4.38294e-16 0)
(3 1.75439e-15 0)
(3 1.81613e-15 0)
(3 1.92305e-15 0)
(3 1.99798e-15 0)
(3 1.96924e-15 0)
(3 8.05832e-16 0)
(3 1.27512e-16 0)
(3 8.64651e-16 0)
(3 1.88863e-15 0)
(3 1.89169e-15 0)
(3 2.53533e-15 0)
(3 1.11237e-15 0)
(3 9.7419e-16 0)
(3 5.77273e-17 0)
(3 1.83392e-16 0)
(3 3.80785e-17 0)
(3 5.96343e-17 0)
(3 3.32868e-16 0)
(3 1.73526e-15 0)
(3 2.65316e-15 0)
(3 3.20918e-15 0)
(3 2.38079e-15 0)
(3 2.14987e-15 0)
(3 2.38479e-15 0)
(3 1.91128e-15 0)
(3 3.50605e-16 0)
(3 -3.65738e-16 0)
(3 -2.54494e-16 0)
(3 -3.67902e-16 0)
(3 3.76623e-16 0)
(3 6.2911e-16 0)
(3 -1.48888e-16 0)
(3 -1.30703e-15 0)
(3 -1.56826e-15 0)
(3 -1.08711e-15 0)
(3 -1.30679e-15 0)
(3 -1.51556e-15 0)
(3 -1.61784e-15 0)
(3 -1.8975e-15 0)
(3 -2.15234e-15 0)
(3 -2.34893e-15 0)
(3 -1.09597e-15 0)
(3 -4.04811e-16 0)
(3 -4.04323e-16 0)
(3 -4.93914e-16 0)
(3 -7.1173e-16 0)
(3 -2.58753e-16 0)
(3 6.90678e-17 0)
(3 1.35882e-16 0)
(3 9.58926e-16 0)
(3 1.12025e-15 0)
(3 7.38662e-16 0)
(3 9.66348e-16 0)
(3 7.31094e-16 0)
(3 9.74277e-16 0)
(3 1.20532e-15 0)
(3 1.15876e-15 0)
(3 4.45251e-16 0)
(3 1.03041e-16 0)
(3 3.15391e-16 0)
(3 2.34481e-16 0)
(3 -5.22855e-17 0)
(3 2.92272e-16 0)
(3 -4.88445e-16 0)
(3 -1.10593e-15 0)
(3 -5.71512e-16 0)
(3 -1.60969e-16 0)
(3 -5.63883e-16 0)
(3 -3.97697e-17 0)
(3 1.37859e-16 0)
(3 2.19301e-16 0)
(3 -2.33539e-16 0)
(3 -5.35192e-16 0)
(3 -1.05115e-15 0)
(3 -1.54491e-15 0)
(3 -1.23548e-15 0)
(3 -1.09428e-15 0)
(3 -5.16951e-16 0)
(3 -1.18633e-16 0)
(3 -1.80032e-15 0)
(3 -2.14057e-15 0)
(3 -2.18151e-15 0)
(3 -2.44783e-15 0)
(3 -1.49714e-15 0)
(3 -1.2278e-15 0)
(3 -1.27932e-15 0)
(3 -1.34454e-15 0)
(3 -1.97363e-15 0)
(3 -2.41432e-15 0)
(3 -1.78423e-15 0)
(3 -8.91491e-16 0)
(3 -4.12557e-16 0)
(3 -1.65042e-16 0)
(3 -2.57861e-16 0)
(3 1.13031e-16 0)
(3 6.80928e-16 0)
(3 1.33716e-15 0)
(3 1.54755e-15 0)
(3 2.03322e-15 0)
(3 2.45772e-15 0)
(3 2.6518e-15 0)
(3 2.22487e-15 0)
(3 1.90888e-15 0)
(3 1.88426e-15 0)
(3 2.25345e-15 0)
(3 2.50641e-15 0)
(3 2.34811e-15 0)
(3 1.42111e-15 0)
(3 5.95287e-16 0)
(3 1.15071e-16 0)
(3 -9.93958e-17 0)
(3 -5.76385e-16 0)
(3 -8.79242e-16 0)
(3 -8.12829e-16 0)
(3 -3.29167e-16 0)
(3 4.29677e-16 0)
(3 7.13225e-16 0)
(3 2.16272e-15 0)
(3 2.45161e-15 0)
(3 2.32533e-15 0)
(3 2.17278e-15 0)
(3 2.06665e-15 0)
(3 1.84773e-15 0)
(3 1.31737e-15 0)
(3 1.65417e-15 0)
(3 1.48925e-15 0)
(3 -6.79088e-17 0)
(3 -1.30167e-15 0)
(3 -1.31212e-15 0)
(3 -1.28835e-15 0)
(3 -1.00995e-15 0)
(3 -1.43536e-15 0)
(3 -1.14817e-15 0)
(3 -6.05296e-16 0)
(3 -8.55243e-16 0)
(3 -1.75663e-15 0)
(3 -1.95391e-15 0)
(3 -1.87809e-15 0)
(3 -1.43991e-15 0)
(3 -6.37049e-16 0)
(3 5.25285e-16 0)
(3 1.14366e-15 0)
(3 1.02229e-15 0)
(3 4.52004e-16 0)
(3 2.4323e-16 0)
(3 1.0459e-15 0)
(3 1.61627e-15 0)
(3 1.9165e-15 0)
(3 1.15249e-15 0)
(3 3.12577e-16 0)
(3 1.05183e-16 0)
(3 2.09264e-16 0)
(3 1.03821e-16 0)
(3 2.62961e-16 0)
(3 3.3137e-16 0)
(3 2.34628e-16 0)
(3 -8.75778e-16 0)
(3 -6.07407e-17 0)
(3 7.00164e-16 0)
(3 -9.08693e-17 0)
(3 1.27938e-16 0)
(3 5.13068e-17 0)
(3 -1.33654e-16 0)
(3 -5.80969e-16 0)
(3 -1.51525e-16 0)
(3 -6.42085e-17 0)
(3 -2.55959e-16 0)
(3 -6.07345e-16 0)
(3 -1.21973e-15 0)
(3 -9.88627e-16 0)
(3 -9.79446e-16 0)
(3 -1.21641e-15 0)
(3 -2.11118e-15 0)
(3 -2.51582e-15 0)
(3 -3.19725e-15 0)
(3 -2.56723e-15 0)
(3 -2.4946e-15 0)
(3 -2.10964e-15 0)
(3 -1.32199e-15 0)
(3 -1.42399e-15 0)
(3 -1.38467e-15 0)
(3 -5.18504e-16 0)
(3 -2.20255e-16 0)
(3 -5.2754e-16 0)
(3 -2.19426e-16 0)
(3 -9.92502e-16 0)
(3 -1.67332e-15 0)
(3 -2.44196e-15 0)
(3 -1.1061e-15 0)
(3 -5.37814e-16 0)
(3 1.0094e-15 0)
(3 1.76616e-15 0)
(3 1.07442e-15 0)
(3 1.16547e-15 0)
(3 1.24587e-15 0)
(3 1.41705e-15 0)
(3 1.64865e-15 0)
(3 2.09591e-15 0)
(3 2.54057e-15 0)
(3 2.71469e-15 0)
(3 2.6038e-15 0)
(3 2.57364e-15 0)
(3 2.51332e-15 0)
(3 1.9924e-15 0)
(3 1.16035e-15 0)
(3 7.1292e-16 0)
(3 -6.84713e-17 0)
(3 -3.0211e-17 0)
(3 1.79801e-16 0)
(3 -3.48672e-16 0)
(3 -6.8823e-16 0)
(3 -7.70413e-16 0)
(3 -1.03722e-15 0)
(3 -1.87294e-16 0)
(3 1.3133e-15 0)
(3 1.14541e-15 0)
(3 1.08605e-15 0)
(3 9.2349e-16 0)
(3 -2.74601e-16 0)
(3 -3.98953e-16 0)
(3 9.90355e-17 0)
(3 8.74332e-16 0)
(3 7.53414e-16 0)
(3 6.57643e-16 0)
(3 3.88668e-16 0)
(3 -1.59341e-16 0)
(3 -7.79962e-16 0)
(3 -7.49932e-16 0)
(3 -6.28094e-16 0)
(3 -4.717e-17 0)
(3 1.1865e-15 0)
(3 1.92476e-15 0)
(3 1.88567e-15 0)
(3 1.54131e-15 0)
(3 1.11111e-15 0)
(3 6.0951e-16 0)
(3 1.56891e-15 0)
(3 1.52472e-15 0)
(3 1.02893e-15 0)
(3 1.56923e-15 0)
(3 2.10095e-15 0)
(3 1.38812e-15 0)
(3 1.05254e-15 0)
(3 2.25817e-15 0)
(3 2.28077e-15 0)
(3 1.4114e-15 0)
(3 1.0791e-15 0)
(3 6.28289e-16 0)
(3 3.55736e-16 0)
(3 3.29903e-16 0)
(3 6.49798e-16 0)
(3 4.62039e-16 0)
(3 1.40718e-16 0)
(3 3.72943e-16 0)
(3 -3.35071e-17 0)
(3 -2.58694e-16 0)
(3 -2.42124e-16 0)
(3 -1.23552e-15 0)
(3 -1.33985e-15 0)
(3 -2.8527e-16 0)
(3 1.3062e-18 0)
(3 1.49212e-17 0)
(3 -1.43438e-16 0)
(3 -3.84448e-16 0)
(3 -3.0695e-16 0)
(3 -1.10813e-16 0)
(3 -3.53347e-16 0)
(3 -1.00565e-15 0)
(3 -1.47022e-15 0)
(3 -2.11916e-15 0)
(3 -3.15167e-15 0)
(3 -2.93939e-15 0)
(3 -2.10919e-15 0)
(3 -9.93658e-16 0)
(3 1.95721e-18 0)
(3 -2.21964e-16 0)
(3 -1.20489e-15 0)
(3 -7.06731e-16 0)
(3 -5.49775e-16 0)
(3 -4.70064e-16 0)
(3 -6.09118e-16 0)
(3 -1.26842e-15 0)
(3 -1.61617e-15 0)
(3 -2.18481e-15 0)
(3 -1.67624e-15 0)
(3 -7.61069e-16 0)
(3 -4.0272e-18 0)
(3 7.19516e-16 0)
(3 2.24766e-16 0)
(3 1.45434e-16 0)
(3 2.65918e-16 0)
(3 3.43582e-16 0)
(3 1.17019e-15 0)
(3 2.0538e-15 0)
(3 3.22927e-15 0)
(3 3.76837e-15 0)
(3 3.51368e-15 0)
(3 2.94501e-15 0)
(3 2.50727e-15 0)
(3 2.59544e-15 0)
(3 2.17686e-15 0)
(3 1.63959e-15 0)
(3 7.35214e-16 0)
(3 3.67182e-16 0)
(3 1.4169e-16 0)
(3 -3.40749e-17 0)
(3 -3.35343e-16 0)
(3 -1.71712e-15 0)
(3 -2.69215e-15 0)
(3 -2.10096e-15 0)
(3 -5.45386e-16 0)
(3 -3.12879e-16 0)
(3 -4.82482e-16 0)
(3 -6.31852e-16 0)
(3 -1.6401e-15 0)
(3 -1.3892e-15 0)
(3 -5.45518e-16 0)
(3 8.11409e-16 0)
(3 1.55632e-15 0)
(3 1.49656e-15 0)
(3 1.00929e-15 0)
(3 5.137e-16 0)
(3 -8.01739e-17 0)
(3 -6.69645e-16 0)
(3 -7.63931e-16 0)
(3 -2.52184e-17 0)
(3 1.50561e-15 0)
(3 2.40611e-15 0)
(3 2.56519e-15 0)
(3 2.89297e-15 0)
(3 2.49807e-15 0)
(3 1.17937e-15 0)
(3 3.34603e-16 0)
(3 -3.79281e-18 0)
(3 9.595e-16 0)
(3 2.33455e-15 0)
(3 2.52041e-15 0)
(3 1.93545e-15 0)
(3 2.06984e-15 0)
(3 2.11741e-15 0)
(3 2.19768e-15 0)
(3 1.84991e-15 0)
(3 1.96109e-15 0)
(3 2.64167e-15 0)
(3 2.85068e-15 0)
(3 2.78544e-15 0)
(3 2.61151e-15 0)
(3 2.51835e-15 0)
(3 2.89687e-15 0)
(3 2.08509e-15 0)
(3 -9.41263e-16 0)
(3 -1.5041e-15 0)
(3 -1.73138e-15 0)
(3 -1.32251e-15 0)
(3 -1.09351e-15 0)
(3 -7.55647e-16 0)
(3 4.73663e-17 0)
(3 1.20155e-16 0)
(3 1.26711e-16 0)
(3 3.62025e-16 0)
(3 8.60447e-16 0)
(3 2.68789e-16 0)
(3 -6.31159e-16 0)
(3 -1.09601e-15 0)
(3 -1.25378e-15 0)
(3 -1.38642e-15 0)
(3 -1.26117e-15 0)
(3 -1.05708e-15 0)
(3 -7.53993e-16 0)
(3 -1.22848e-16 0)
(3 7.0098e-16 0)
(3 5.9974e-16 0)
(3 3.83408e-16 0)
(3 6.43818e-17 0)
(3 -6.7271e-16 0)
(3 -8.07451e-16 0)
(3 -1.09955e-15 0)
(3 -1.72343e-15 0)
(3 -1.85973e-15 0)
(3 -1.50912e-15 0)
(3 -1.09159e-15 0)
(3 -2.54141e-16 0)
(3 6.20022e-16 0)
(3 -5.83459e-16 0)
(3 -9.44033e-16 0)
(3 -8.89206e-16 0)
(3 -9.05615e-16 0)
(3 -7.50433e-16 0)
(3 3.3493e-16 0)
(3 1.81558e-15 0)
(3 2.53845e-15 0)
(3 3.96519e-15 0)
(3 3.64647e-15 0)
(3 2.27412e-15 0)
(3 2.10323e-15 0)
(3 2.28013e-15 0)
(3 2.38669e-15 0)
(3 2.43229e-15 0)
(3 1.95801e-15 0)
(3 1.10853e-15 0)
(3 7.58664e-16 0)
(3 8.68025e-16 0)
(3 3.02646e-16 0)
(3 -3.10989e-16 0)
(3 -1.58361e-15 0)
(3 -2.10437e-15 0)
(3 -1.63074e-15 0)
(3 -1.13773e-15 0)
(3 -1.21406e-15 0)
(3 -6.65931e-16 0)
(3 -2.65189e-17 0)
(3 -2.40956e-17 0)
(3 6.65825e-16 0)
(3 1.79188e-15 0)
(3 1.87307e-15 0)
(3 1.14951e-15 0)
(3 4.13219e-16 0)
(3 2.68251e-16 0)
(3 1.2149e-16 0)
(3 -4.6392e-16 0)
(3 -1.34944e-15 0)
(3 -8.57631e-16 0)
(3 5.76604e-17 0)
(3 6.60855e-16 0)
(3 1.0808e-15 0)
(3 1.34363e-15 0)
(3 1.66125e-15 0)
(3 1.11888e-15 0)
(3 9.03789e-16 0)
(3 8.75293e-16 0)
(3 1.20007e-15 0)
(3 2.21076e-15 0)
(3 2.78035e-15 0)
(3 3.19605e-15 0)
(3 3.32637e-15 0)
(3 2.49924e-15 0)
(3 1.43235e-15 0)
(3 1.10123e-15 0)
(3 1.09249e-15 0)
(3 2.02671e-15 0)
(3 2.72256e-15 0)
(3 2.47977e-15 0)
(3 1.5135e-15 0)
(3 6.62055e-16 0)
(3 2.16818e-16 0)
(3 -4.15063e-16 0)
(3 -1.61272e-15 0)
(3 -1.64276e-15 0)
(3 -1.25696e-15 0)
(3 -3.65868e-16 0)
(3 2.00944e-16 0)
(3 6.57914e-16 0)
(3 -4.46085e-17 0)
(3 -1.6261e-16 0)
(3 -2.04663e-16 0)
(3 3.39627e-17 0)
(3 2.14774e-17 0)
(3 -4.89775e-16 0)
(3 -4.65638e-16 0)
(3 -3.41027e-16 0)
(3 -5.11328e-16 0)
(3 -2.66885e-16 0)
(3 8.34855e-17 0)
(3 3.16151e-16 0)
(3 3.0653e-16 0)
(3 6.46668e-16 0)
(3 1.07028e-15 0)
(3 1.25936e-15 0)
(3 1.60769e-15 0)
(3 1.0108e-15 0)
(3 1.14259e-16 0)
(3 -1.16193e-16 0)
(3 -3.12416e-16 0)
(3 -5.06693e-16 0)
(3 -7.44532e-16 0)
(3 -3.61271e-16 0)
(3 -4.04947e-16 0)
(3 2.64085e-16 0)
(3 -4.32862e-16 0)
(3 -1.30678e-15 0)
(3 -1.15606e-15 0)
(3 -8.7819e-16 0)
(3 -1.24232e-15 0)
(3 -1.28735e-15 0)
(3 -9.72345e-16 0)
(3 -2.84676e-16 0)
(3 1.9413e-16 0)
(3 1.7039e-16 0)
(3 1.09256e-15 0)
(3 1.34152e-15 0)
(3 1.53072e-15 0)
(3 1.41266e-15 0)
(3 2.08489e-15 0)
(3 1.97802e-15 0)
(3 1.35308e-15 0)
(3 5.49148e-16 0)
(3 1.19762e-15 0)
(3 1.53882e-15 0)
(3 1.26217e-15 0)
(3 8.80599e-16 0)
(3 2.70835e-16 0)
(3 -1.6609e-16 0)
(3 -7.22078e-16 0)
(3 -1.0849e-15 0)
(3 -1.69894e-15 0)
(3 -1.53125e-15 0)
(3 4.80531e-16 0)
(3 1.39308e-15 0)
(3 1.8136e-15 0)
(3 1.92547e-15 0)
(3 1.94005e-15 0)
(3 2.41212e-15 0)
(3 2.23576e-15 0)
(3 2.28388e-15 0)
(3 2.76078e-15 0)
(3 1.40655e-15 0)
(3 -8.6762e-16 0)
(3 -1.41747e-15 0)
(3 -3.5343e-16 0)
(3 2.66598e-16 0)
(3 6.6375e-16 0)
(3 3.43711e-16 0)
(3 5.68753e-16 0)
(3 1.1743e-15 0)
(3 9.31114e-16 0)
(3 8.69113e-16 0)
(3 9.37466e-16 0)
(3 1.19797e-15 0)
(3 1.31609e-15 0)
(3 1.48325e-15 0)
(3 1.79909e-15 0)
(3 1.66483e-15 0)
(3 3.81848e-16 0)
(3 -2.76865e-16 0)
(3 -3.18156e-16 0)
(3 -3.39566e-16 0)
(3 -4.85683e-16 0)
(3 -1.07353e-16 0)
(3 2.61169e-16 0)
(3 1.12187e-15 0)
(3 1.53401e-15 0)
(3 2.86898e-15 0)
(3 3.24309e-15 0)
(3 1.83875e-15 0)
(3 1.0414e-15 0)
(3 4.21938e-16 0)
(3 8.18031e-16 0)
(3 4.10947e-16 0)
(3 7.26649e-17 0)
(3 -2.07976e-17 0)
(3 -1.87252e-16 0)
(3 -1.88655e-16 0)
(3 -3.39623e-16 0)
(3 -6.92364e-17 0)
(3 -1.71759e-16 0)
(3 3.23429e-17 0)
(3 -2.68012e-16 0)
(3 -1.40335e-16 0)
(3 1.99204e-16 0)
(3 7.10561e-16 0)
(3 1.02947e-15 0)
(3 4.94185e-16 0)
(3 5.83e-17 0)
(3 5.81567e-16 0)
(3 3.94533e-16 0)
(3 4.25191e-16 0)
(3 5.35176e-16 0)
(3 6.05019e-16 0)
(3 8.65781e-16 0)
(3 8.14332e-16 0)
(3 1.31592e-15 0)
(3 1.12129e-15 0)
(3 5.60318e-16 0)
(3 7.15126e-17 0)
(3 -1.83332e-15 0)
(3 -2.06347e-15 0)
(3 -1.93925e-15 0)
(3 -2.02728e-15 0)
(3 -1.60962e-15 0)
(3 -1.72702e-15 0)
(3 -8.30961e-16 0)
(3 -3.97825e-16 0)
(3 -4.41692e-16 0)
(3 -2.03978e-15 0)
(3 -8.35627e-16 0)
(3 3.29136e-16 0)
(3 2.43617e-16 0)
(3 1.47173e-16 0)
(3 -1.71294e-16 0)
(3 -3.64804e-16 0)
(3 -2.69369e-17 0)
(3 1.63408e-16 0)
(3 8.82266e-16 0)
(3 1.0747e-15 0)
(3 1.05047e-15 0)
(3 4.86114e-16 0)
(3 -2.49537e-16 0)
(3 -1.03295e-17 0)
(3 -2.70004e-16 0)
(3 -8.44347e-16 0)
(3 -8.22955e-16 0)
(3 -9.39382e-16 0)
(3 9.28393e-17 0)
(3 2.72101e-16 0)
(3 1.01543e-15 0)
(3 1.41925e-15 0)
(3 2.09228e-15 0)
(3 2.60071e-15 0)
(3 2.64702e-15 0)
(3 1.85761e-15 0)
(3 1.49844e-15 0)
(3 1.18427e-15 0)
(3 1.40318e-15 0)
(3 1.03683e-15 0)
(3 1.07433e-15 0)
(3 1.16519e-15 0)
(3 1.10062e-15 0)
(3 9.32812e-16 0)
(3 9.82343e-16 0)
(3 1.12815e-15 0)
(3 1.06519e-15 0)
(3 1.32707e-15 0)
(3 1.10575e-15 0)
(3 1.28881e-16 0)
(3 3.56169e-16 0)
(3 5.49482e-16 0)
(3 1.12405e-15 0)
(3 1.3094e-15 0)
(3 8.8414e-16 0)
(3 1.584e-16 0)
(3 -2.73169e-16 0)
(3 -8.72526e-16 0)
(3 -1.0086e-15 0)
(3 -9.84513e-16 0)
(3 -6.21068e-16 0)
(3 -3.73914e-16 0)
(3 -1.54651e-16 0)
(3 9.94491e-16 0)
(3 2.05494e-15 0)
(3 2.13815e-15 0)
(3 1.04934e-15 0)
(3 -4.20004e-16 0)
(3 -3.48129e-16 0)
(3 -1.35071e-18 0)
(3 1.38477e-17 0)
(3 3.22906e-18 0)
(3 1.45452e-16 0)
(3 -1.65574e-16 0)
(3 -3.14487e-16 0)
(3 -5.07672e-17 0)
(3 8.95351e-17 0)
(3 1.85896e-16 0)
(3 1.94241e-16 0)
(3 -2.6211e-16 0)
(3 -2.53816e-16 0)
(3 -6.94684e-17 0)
(3 8.72684e-16 0)
(3 5.47304e-16 0)
(3 2.37357e-16 0)
(3 9.90902e-17 0)
(3 1.89979e-16 0)
(3 4.71663e-16 0)
(3 1.05281e-15 0)
(3 1.50721e-15 0)
(3 1.71267e-15 0)
(3 1.74015e-15 0)
(3 6.39277e-16 0)
(3 -1.79273e-16 0)
(3 1.65659e-16 0)
(3 -1.58113e-16 0)
(3 -9.29208e-16 0)
(3 -1.08801e-15 0)
(3 -1.42165e-15 0)
(3 -1.09468e-15 0)
(3 8.58938e-18 0)
(3 6.61515e-16 0)
(3 -8.27763e-17 0)
(3 -1.46601e-15 0)
(3 -2.69068e-15 0)
(3 -3.23951e-15 0)
(3 -2.68402e-15 0)
(3 -2.62296e-15 0)
(3 -3.01724e-15 0)
(3 -3.28004e-15 0)
(3 -3.54418e-15 0)
(3 -2.39954e-15 0)
(3 -8.04259e-16 0)
(3 1.38573e-16 0)
(3 -1.185e-17 0)
(3 -9.58452e-17 0)
(3 -3.99736e-16 0)
(3 8.25924e-17 0)
(3 6.98845e-17 0)
(3 4.15369e-17 0)
(3 -4.04261e-16 0)
(3 -8.72184e-16 0)
(3 -7.00451e-16 0)
(3 -7.46906e-16 0)
(3 -1.7421e-15 0)
(3 -2.20185e-15 0)
(3 -2.06659e-15 0)
(3 -9.54907e-16 0)
(3 9.85037e-17 0)
(3 9.6254e-16 0)
(3 1.49794e-15 0)
(3 1.0791e-15 0)
(3 3.86102e-16 0)
(3 5.5927e-16 0)
(3 1.488e-15 0)
(3 1.29911e-15 0)
(3 1.05891e-15 0)
(3 7.17622e-16 0)
(3 1.96022e-16 0)
(3 -2.68595e-16 0)
(3 -2.69608e-16 0)
(3 4.56502e-16 0)
(3 1.38631e-15 0)
(3 1.99085e-15 0)
(3 1.97284e-15 0)
(3 1.54596e-15 0)
(3 8.56084e-16 0)
(3 7.56242e-16 0)
(3 4.43978e-16 0)
(3 1.6016e-16 0)
(3 -9.37944e-16 0)
(3 -8.70409e-16 0)
(3 -4.71248e-17 0)
(3 -1.03064e-15 0)
(3 -1.95916e-15 0)
(3 -2.20593e-15 0)
(3 -2.17851e-15 0)
(3 -2.4893e-15 0)
(3 -2.90535e-15 0)
(3 -2.04992e-15 0)
(3 7.68628e-16 0)
(3 1.86721e-15 0)
(3 8.68833e-16 0)
(3 -1.27751e-15 0)
(3 -1.27649e-15 0)
(3 -2.03255e-16 0)
(3 -1.49488e-17 0)
(3 -5.43123e-17 0)
(3 2.5106e-16 0)
(3 5.37444e-17 0)
(3 -3.40095e-16 0)
(3 -1.04543e-16 0)
(3 1.5561e-16 0)
(3 3.6465e-16 0)
(3 6.98817e-16 0)
(3 1.08722e-15 0)
(3 2.44485e-16 0)
(3 3.18219e-16 0)
(3 5.16403e-16 0)
(3 8.56658e-16 0)
(3 8.60356e-16 0)
(3 6.71163e-17 0)
(3 1.5374e-16 0)
(3 4.33064e-16 0)
(3 6.11039e-16 0)
(3 1.1336e-15 0)
(3 1.11327e-15 0)
(3 8.7497e-16 0)
(3 -2.37619e-16 0)
(3 -7.82076e-16 0)
(3 -2.27657e-16 0)
(3 1.19202e-15 0)
(3 1.1736e-15 0)
(3 7.12671e-16 0)
(3 2.90142e-16 0)
(3 5.68744e-16 0)
(3 1.77484e-15 0)
(3 2.5998e-15 0)
(3 2.22569e-15 0)
(3 1.20222e-15 0)
(3 -9.37903e-16 0)
(3 -1.9751e-15 0)
(3 -3.69556e-15 0)
(3 -4.90425e-15 0)
(3 -5.16387e-15 0)
(3 -3.92842e-15 0)
(3 -1.73609e-15 0)
(3 -1.43891e-15 0)
(3 -4.37073e-16 0)
(3 -4.15514e-17 0)
(3 1.00092e-16 0)
(3 -1.34373e-16 0)
(3 9.47518e-17 0)
(3 6.67398e-17 0)
(3 -2.5146e-16 0)
(3 -5.94508e-17 0)
(3 -3.91409e-18 0)
(3 -8.28526e-16 0)
(3 -1.21929e-15 0)
(3 -1.25119e-15 0)
(3 -1.99108e-15 0)
(3 -2.86405e-15 0)
(3 -2.95959e-15 0)
(3 -2.23195e-15 0)
(3 -1.44106e-15 0)
(3 5.09122e-16 0)
(3 1.22175e-15 0)
(3 2.4801e-15 0)
(3 2.72967e-15 0)
(3 2.97569e-15 0)
(3 2.39387e-15 0)
(3 1.8513e-15 0)
(3 1.3926e-15 0)
(3 5.81835e-16 0)
(3 1.82475e-17 0)
(3 -3.94063e-16 0)
(3 -3.81621e-16 0)
(3 -1.69557e-16 0)
(3 9.05056e-16 0)
(3 1.60558e-15 0)
(3 2.39324e-15 0)
(3 2.23539e-15 0)
(3 1.35508e-15 0)
(3 6.1823e-16 0)
(3 3.34117e-16 0)
(3 -1.55849e-15 0)
(3 -2.63164e-15 0)
(3 -1.9213e-15 0)
(3 -1.27513e-15 0)
(3 -7.38035e-16 0)
(3 -1.52281e-15 0)
(3 -2.7929e-15 0)
(3 -3.12435e-15 0)
(3 -2.61467e-15 0)
(3 -1.78727e-15 0)
(3 -7.4268e-16 0)
(3 -1.75266e-16 0)
(3 6.8036e-16 0)
(3 8.82329e-16 0)
(3 6.08628e-16 0)
(3 3.75451e-16 0)
(3 1.22772e-15 0)
(3 -1.87852e-17 0)
(3 7.77812e-17 0)
(3 3.54516e-16 0)
(3 5.79873e-16 0)
(3 4.10779e-16 0)
(3 3.18465e-16 0)
(3 4.99438e-16 0)
(3 5.79782e-16 0)
(3 1.02041e-15 0)
(3 1.29448e-15 0)
(3 1.06756e-15 0)
(3 5.15497e-16 0)
(3 4.1223e-16 0)
(3 3.31794e-16 0)
(3 -3.56587e-16 0)
(3 -8.24917e-16 0)
(3 -9.00093e-16 0)
(3 -3.70582e-16 0)
(3 3.4264e-16 0)
(3 7.02575e-16 0)
(3 5.3881e-16 0)
(3 6.25497e-17 0)
(3 -2.62437e-17 0)
(3 2.82204e-16 0)
(3 9.20033e-16 0)
(3 2.07071e-15 0)
(3 1.95008e-15 0)
(3 1.65714e-15 0)
(3 1.85904e-15 0)
(3 3.07676e-15 0)
(3 3.91217e-15 0)
(3 4.4715e-15 0)
(3 4.28991e-15 0)
(3 2.93072e-15 0)
(3 2.88787e-16 0)
(3 -1.14833e-15 0)
(3 -1.65701e-15 0)
(3 -1.56819e-15 0)
(3 -1.34705e-15 0)
(3 -1.77656e-15 0)
(3 -1.63615e-15 0)
(3 -1.10757e-15 0)
(3 -7.48494e-16 0)
(3 -7.04245e-16 0)
(3 -4.18428e-16 0)
(3 -2.24408e-16 0)
(3 -3.44492e-16 0)
(3 -1.032e-15 0)
(3 -1.81628e-15 0)
(3 -2.26448e-15 0)
(3 -1.46516e-15 0)
(3 -1.0877e-15 0)
(3 -1.1391e-15 0)
(3 -9.89292e-16 0)
(3 -1.98553e-15 0)
(3 -2.94643e-15 0)
(3 -3.0116e-15 0)
(3 -1.45521e-15 0)
(3 -2.59207e-16 0)
(3 4.67053e-16 0)
(3 -9.00818e-18 0)
(3 1.00888e-15 0)
(3 2.46193e-15 0)
(3 3.32386e-15 0)
(3 3.27428e-15 0)
(3 2.91763e-15 0)
(3 2.66408e-15 0)
(3 1.99705e-15 0)
(3 1.75322e-15 0)
(3 2.2096e-16 0)
(3 -1.57084e-16 0)
(3 1.75236e-16 0)
(3 7.08731e-16 0)
(3 1.92831e-15 0)
(3 2.23321e-15 0)
(3 2.13297e-15 0)
(3 1.61745e-15 0)
(3 1.82813e-16 0)
(3 -7.15077e-16 0)
(3 -2.12222e-15 0)
(3 -1.84775e-15 0)
(3 -1.56135e-15 0)
(3 -1.83562e-15 0)
(3 -1.69121e-15 0)
(3 -1.147e-15 0)
(3 -5.81728e-16 0)
(3 3.40935e-16 0)
(3 5.57101e-16 0)
(3 1.0386e-16 0)
(3 -1.26524e-16 0)
(3 3.39622e-16 0)
(3 1.65412e-15 0)
(3 2.37018e-15 0)
(3 3.42121e-15 0)
(3 2.29634e-15 0)
(3 1.04714e-15 0)
(3 1.56177e-17 0)
(3 5.47343e-17 0)
(3 2.04583e-17 0)
(3 -6.12953e-16 0)
(3 -7.29322e-16 0)
(3 -7.47949e-16 0)
(3 4.12404e-16 0)
(3 1.20085e-15 0)
(3 1.26258e-15 0)
(3 1.05334e-15 0)
(3 1.51348e-15 0)
(3 1.63375e-15 0)
(3 9.81749e-16 0)
(3 -2.73209e-16 0)
(3 -7.0053e-16 0)
(3 6.67839e-17 0)
(3 4.26152e-16 0)
(3 1.22574e-15 0)
(3 1.77347e-15 0)
(3 1.60244e-15 0)
(3 9.67738e-16 0)
(3 1.26003e-15 0)
(3 1.72976e-15 0)
(3 2.80774e-15 0)
(3 2.76458e-15 0)
(3 2.49416e-16 0)
(3 -5.13375e-16 0)
(3 -2.04732e-16 0)
(3 6.19953e-16 0)
(3 1.80316e-15 0)
(3 2.05746e-15 0)
(3 1.80784e-15 0)
(3 2.20727e-15 0)
(3 1.24062e-15 0)
(3 -2.80667e-16 0)
(3 -3.56339e-16 0)
(3 3.55383e-16 0)
(3 9.30759e-16 0)
(3 9.09366e-16 0)
(3 -1.07037e-16 0)
(3 -1.14804e-15 0)
(3 -9.60629e-16 0)
(3 -1.78646e-15 0)
(3 -2.47427e-15 0)
(3 -2.04966e-15 0)
(3 -1.132e-15 0)
(3 -1.47395e-15 0)
(3 -1.6757e-15 0)
(3 -2.22906e-15 0)
(3 -2.78976e-15 0)
(3 -2.99149e-15 0)
(3 -2.47701e-15 0)
(3 -1.93703e-15 0)
(3 -1.52892e-15 0)
(3 -2.30539e-15 0)
(3 -2.58254e-15 0)
(3 -1.99377e-15 0)
(3 -1.15878e-15 0)
(3 -2.49464e-16 0)
(3 4.57028e-17 0)
(3 -1.62206e-16 0)
(3 4.77709e-16 0)
(3 1.71405e-15 0)
(3 2.1605e-15 0)
(3 2.71478e-15 0)
(3 1.02098e-15 0)
(3 5.7247e-16 0)
(3 4.82288e-16 0)
(3 6.61018e-16 0)
(3 7.22742e-16 0)
(3 6.36472e-16 0)
(3 5.82386e-16 0)
(3 1.19611e-15 0)
(3 1.89704e-15 0)
(3 1.94676e-15 0)
(3 1.8435e-15 0)
(3 1.48905e-15 0)
(3 -5.14233e-16 0)
(3 -1.17717e-15 0)
(3 -9.36533e-16 0)
(3 -3.70854e-16 0)
(3 -8.38593e-17 0)
(3 -4.15773e-16 0)
(3 -7.51254e-16 0)
(3 -4.94787e-16 0)
(3 1.06372e-15 0)
(3 3.01486e-15 0)
(3 3.33592e-15 0)
(3 2.30656e-15 0)
(3 1.08798e-15 0)
(3 6.64597e-16 0)
(3 1.356e-15 0)
(3 2.362e-15 0)
(3 2.25162e-15 0)
(3 1.3319e-15 0)
(3 2.02768e-16 0)
(3 1.2843e-17 0)
(3 -1.11449e-16 0)
(3 -8.14584e-16 0)
(3 -8.56571e-16 0)
(3 -9.30876e-16 0)
(3 -6.63861e-16 0)
(3 -3.82691e-16 0)
(3 -4.19604e-18 0)
(3 5.67295e-16 0)
(3 7.44418e-16 0)
(3 1.13988e-15 0)
(3 1.38981e-15 0)
(3 1.12835e-15 0)
(3 9.93237e-16 0)
(3 9.92013e-16 0)
(3 1.8761e-15 0)
(3 2.2195e-15 0)
(3 2.04655e-15 0)
(3 2.24949e-15 0)
(3 2.26808e-15 0)
(3 1.57708e-15 0)
(3 1.87284e-15 0)
(3 3.07541e-15 0)
(3 2.88933e-15 0)
(3 1.85248e-15 0)
(3 -1.17868e-16 0)
(3 1.4214e-16 0)
(3 8.51053e-16 0)
(3 1.40799e-15 0)
(3 1.36076e-15 0)
(3 1.17772e-15 0)
(3 6.27033e-16 0)
(3 4.43767e-18 0)
(3 2.42018e-16 0)
(3 8.79581e-16 0)
(3 7.52635e-16 0)
(3 6.55015e-16 0)
(3 1.00542e-15 0)
(3 1.04182e-15 0)
(3 6.64445e-16 0)
(3 5.22051e-17 0)
(3 -1.21806e-15 0)
(3 -2.01303e-15 0)
(3 -1.58856e-15 0)
(3 -8.72971e-16 0)
(3 -6.85864e-16 0)
(3 -8.16168e-16 0)
(3 -1.08165e-15 0)
(3 -1.08018e-15 0)
(3 -1.3013e-15 0)
(3 -2.19708e-15 0)
(3 -2.44226e-15 0)
(3 -2.32065e-15 0)
(3 -2.21144e-15 0)
(3 -1.92587e-15 0)
(3 -6.69426e-16 0)
(3 -6.55242e-17 0)
(3 2.88683e-16 0)
(3 2.65092e-16 0)
(3 -4.58534e-16 0)
(3 -3.97105e-16 0)
(3 5.89283e-16 0)
(3 1.56334e-15 0)
(3 1.56464e-15 0)
(3 1.51231e-15 0)
(3 4.80661e-16 0)
(3 2.82663e-16 0)
(3 -1.28575e-16 0)
(3 -2.66778e-16 0)
(3 5.45434e-16 0)
(3 1.23075e-15 0)
(3 1.31291e-15 0)
(3 8.03869e-16 0)
(3 9.56411e-16 0)
(3 1.49531e-15 0)
(3 1.56209e-15 0)
(3 1.80285e-15 0)
(3 1.41417e-15 0)
(3 3.89997e-16 0)
(3 2.1467e-16 0)
(3 2.20126e-16 0)
(3 2.27688e-16 0)
(3 3.08e-16 0)
(3 1.01487e-15 0)
(3 1.83978e-15 0)
(3 1.8926e-15 0)
(3 2.03603e-15 0)
(3 3.19897e-15 0)
(3 3.13609e-15 0)
(3 2.10045e-15 0)
(3 4.30912e-16 0)
(3 8.95394e-16 0)
(3 1.17696e-15 0)
(3 6.57353e-16 0)
(3 6.70708e-16 0)
(3 5.56378e-16 0)
(3 2.71713e-18 0)
(3 7.15163e-17 0)
(3 7.27914e-17 0)
(3 5.01294e-16 0)
(3 6.34417e-16 0)
(3 6.15044e-16 0)
(3 -7.09144e-17 0)
(3 -8.37731e-16 0)
(3 -7.66068e-16 0)
(3 -3.109e-16 0)
(3 -1.83689e-16 0)
(3 -1.6901e-17 0)
(3 3.82794e-16 0)
(3 1.66483e-15 0)
(3 1.93441e-15 0)
(3 1.23467e-15 0)
(3 1.30343e-15 0)
(3 1.31266e-15 0)
(3 1.93377e-15 0)
(3 2.07833e-15 0)
(3 2.13681e-15 0)
(3 1.55328e-15 0)
(3 8.99768e-16 0)
(3 5.0009e-17 0)
(3 -9.75298e-16 0)
(3 -1.14419e-15 0)
(3 2.09568e-16 0)
(3 5.7568e-16 0)
(3 1.17432e-15 0)
(3 1.37708e-15 0)
(3 7.39015e-16 0)
(3 1.15734e-16 0)
(3 -2.52448e-16 0)
(3 1.99623e-17 0)
(3 6.03222e-16 0)
(3 6.20188e-16 0)
(3 4.94747e-16 0)
(3 4.22263e-16 0)
(3 8.47992e-16 0)
(3 1.09846e-15 0)
(3 4.26219e-16 0)
(3 -1.02682e-15 0)
(3 -1.24882e-15 0)
(3 -1.08659e-16 0)
(3 -2.65933e-16 0)
(3 -4.8534e-16 0)
(3 -7.51356e-16 0)
(3 -3.03487e-16 0)
(3 2.38811e-16 0)
(3 -3.59806e-16 0)
(3 -1.24265e-15 0)
(3 -1.9311e-15 0)
(3 -2.204e-15 0)
(3 -2.43755e-15 0)
(3 -4.31914e-16 0)
(3 2.16644e-15 0)
(3 2.69462e-15 0)
(3 2.08042e-15 0)
(3 7.5052e-16 0)
(3 3.04365e-16 0)
(3 8.96175e-16 0)
(3 2.01886e-15 0)
(3 1.74455e-15 0)
(3 1.12256e-15 0)
(3 7.54602e-17 0)
(3 -2.0368e-17 0)
(3 -1.21856e-16 0)