/*--------------------------------*- C++ -*----------------------------------*\
  =========                 |
  \\      /  F ield         | OpenFOAM: The Open Source CFD Toolbox
   \\    /   O peration     | Website:  https://openfoam.org
    \\  /    A nd           | Version:  7
     \\/     M anipulation  |
\*---------------------------------------------------------------------------*/
FoamFile
{
    version     2.0;
    format      ascii;
    class       volVectorField;
    location    "1.5";
    object      U;
}
// * * * * * * * * * * * * * * * * * * * * * * * * * * * * * * * * * * * * * //

dimensions      [0 1 -1 0 0 0 0];

internalField   nonuniform List<vector> 
73728
(
(3 -1.00255e-16 0)
(3 -2.17254e-16 0)
(3 -4.5449e-17 0)
(3 3.90567e-16 0)
(3 9.67844e-17 0)
(3 -3.80741e-16 0)
(3 -2.66173e-16 0)
(3 1.16107e-17 0)
(3 -2.68019e-16 0)
(3 -4.1315e-16 0)
(3 -8.79946e-16 0)
(3 -1.74277e-15 0)
(3 -2.55043e-15 0)
(3 -1.1107e-15 0)
(3 -4.90847e-16 0)
(3 7.53072e-16 0)
(3 9.1743e-16 0)
(3 -2.57303e-16 0)
(3 -1.5193e-15 0)
(3 -1.75652e-15 0)
(3 -1.78314e-15 0)
(3 -9.80875e-16 0)
(3 -6.41885e-16 0)
(3 -1.60079e-15 0)
(3 -1.93526e-15 0)
(3 -1.471e-15 0)
(3 -5.14178e-16 0)
(3 -3.10182e-16 0)
(3 9.50078e-17 0)
(3 -7.90062e-16 0)
(3 -1.0239e-15 0)
(3 -6.91255e-16 0)
(3 4.58996e-16 0)
(3 6.3035e-16 0)
(3 5.48084e-16 0)
(3 1.76329e-16 0)
(3 -1.0623e-15 0)
(3 -1.62228e-15 0)
(3 -1.26966e-15 0)
(3 -8.55807e-16 0)
(3 -7.61188e-16 0)
(3 -8.5396e-16 0)
(3 -9.38677e-16 0)
(3 -8.13088e-16 0)
(3 -1.15883e-15 0)
(3 -1.33959e-15 0)
(3 -1.61994e-15 0)
(3 -1.66677e-15 0)
(3 -1.56791e-15 0)
(3 -3.03754e-16 0)
(3 -8.37489e-17 0)
(3 2.20731e-16 0)
(3 2.03685e-16 0)
(3 -2.1372e-17 0)
(3 -6.54348e-16 0)
(3 -7.49305e-16 0)
(3 -1.40736e-16 0)
(3 3.73617e-16 0)
(3 -4.4989e-16 0)
(3 -4.08575e-16 0)
(3 -1.28817e-16 0)
(3 -3.19196e-16 0)
(3 -4.58921e-16 0)
(3 -5.11645e-16 0)
(3 -5.79897e-16 0)
(3 9.23591e-17 0)
(3 4.97394e-16 0)
(3 8.99694e-16 0)
(3 9.29147e-16 0)
(3 5.46743e-16 0)
(3 3.53558e-16 0)
(3 -8.67093e-17 0)
(3 -6.03202e-16 0)
(3 6.87073e-16 0)
(3 1.09443e-15 0)
(3 8.42659e-16 0)
(3 9.12632e-17 0)
(3 -2.28663e-16 0)
(3 -5.01472e-16 0)
(3 -3.51215e-16 0)
(3 1.53284e-16 0)
(3 7.93468e-16 0)
(3 1.63346e-15 0)
(3 1.18032e-15 0)
(3 4.4097e-16 0)
(3 -3.87413e-16 0)
(3 -3.43325e-16 0)
(3 2.07138e-16 0)
(3 6.69951e-16 0)
(3 1.1881e-15 0)
(3 1.01519e-15 0)
(3 9.53798e-16 0)
(3 7.20422e-16 0)
(3 1.70114e-15 0)
(3 1.29493e-15 0)
(3 6.26304e-16 0)
(3 -1.90725e-16 0)
(3 -2.18132e-16 0)
(3 -1.43147e-17 0)
(3 3.08602e-16 0)
(3 3.43182e-16 0)
(3 -2.17166e-16 0)
(3 -5.10113e-16 0)
(3 -1.89618e-16 0)
(3 -3.71674e-16 0)
(3 -1.58905e-16 0)
(3 -5.00185e-16 0)
(3 -1.38652e-15 0)
(3 -2.16091e-15 0)
(3 -9.42621e-16 0)
(3 1.08073e-15 0)
(3 1.40421e-15 0)
(3 1.01798e-15 0)
(3 4.73397e-16 0)
(3 -1.83316e-15 0)
(3 -2.49587e-15 0)
(3 -2.72675e-15 0)
(3 -2.3371e-15 0)
(3 -2.63737e-15 0)
(3 -3.12815e-15 0)
(3 -3.20821e-15 0)
(3 -2.57462e-15 0)
(3 -1.4668e-15 0)
(3 -1.0517e-15 0)
(3 -1.87608e-16 0)
(3 -1.12489e-16 0)
(3 2.11872e-16 0)
(3 6.26008e-16 0)
(3 1.00629e-15 0)
(3 1.62647e-15 0)
(3 1.37336e-15 0)
(3 4.50871e-16 0)
(3 -1.4768e-15 0)
(3 -2.12823e-15 0)
(3 -1.23466e-15 0)
(3 -1.15038e-16 0)
(3 6.79236e-17 0)
(3 -2.80765e-16 0)
(3 -9.31456e-16 0)
(3 -1.42513e-15 0)
(3 -2.53596e-15 0)
(3 -2.89927e-15 0)
(3 -2.44575e-15 0)
(3 -2.32446e-15 0)
(3 -1.32311e-15 0)
(3 -3.40932e-17 0)
(3 7.10141e-16 0)
(3 1.07765e-15 0)
(3 6.42451e-16 0)
(3 4.79648e-16 0)
(3 -9.45094e-16 0)
(3 -1.66503e-15 0)
(3 -1.12989e-15 0)
(3 -3.33141e-16 0)
(3 -4.75915e-16 0)
(3 -5.22088e-16 0)
(3 -4.22314e-16 0)
(3 5.19729e-17 0)
(3 3.86361e-16 0)
(3 2.4193e-16 0)
(3 -3.66481e-16 0)
(3 -3.70536e-17 0)
(3 5.30661e-16 0)
(3 8.95233e-16 0)
(3 3.61697e-16 0)
(3 -3.65276e-16 0)
(3 -9.64871e-16 0)
(3 -1.03926e-15 0)
(3 -9.82931e-16 0)
(3 4.95129e-16 0)
(3 4.40715e-16 0)
(3 -3.54658e-16 0)
(3 -1.68645e-15 0)
(3 -1.93459e-15 0)
(3 -2.25414e-15 0)
(3 -9.44657e-16 0)
(3 3.70699e-16 0)
(3 1.57888e-15 0)
(3 2.14843e-15 0)
(3 1.38735e-15 0)
(3 8.2053e-17 0)
(3 -1.39766e-15 0)
(3 -1.9508e-15 0)
(3 -4.84293e-16 0)
(3 4.88761e-16 0)
(3 1.36133e-15 0)
(3 1.07448e-15 0)
(3 3.97681e-16 0)
(3 -3.75947e-16 0)
(3 -1.66209e-16 0)
(3 1.0059e-15 0)
(3 5.03145e-16 0)
(3 -9.57158e-17 0)
(3 1.12365e-17 0)
(3 -2.54942e-16 0)
(3 1.8071e-16 0)
(3 4.48189e-16 0)
(3 3.34735e-16 0)
(3 -1.17735e-16 0)
(3 -3.97523e-16 0)
(3 -3.97395e-16 0)
(3 -2.84603e-16 0)
(3 -2.80003e-16 0)
(3 -4.24116e-16 0)
(3 -9.59247e-16 0)
(3 -6.22616e-16 0)
(3 -1.16918e-16 0)
(3 7.40043e-16 0)
(3 1.01475e-15 0)
(3 6.01831e-16 0)
(3 4.96601e-16 0)
(3 5.70536e-16 0)
(3 8.66855e-16 0)
(3 -3.84827e-16 0)
(3 -2.11006e-15 0)
(3 -2.12115e-15 0)
(3 -1.5186e-15 0)
(3 -1.38907e-15 0)
(3 -1.09451e-15 0)
(3 -6.0083e-16 0)
(3 8.18358e-17 0)
(3 1.55948e-15 0)
(3 2.59338e-15 0)
(3 2.11699e-15 0)
(3 1.46069e-15 0)
(3 1.53913e-15 0)
(3 1.17587e-15 0)
(3 3.57596e-16 0)
(3 2.00952e-16 0)
(3 -4.00675e-16 0)
(3 -5.43496e-16 0)
(3 -1.78701e-16 0)
(3 -2.49773e-16 0)
(3 -1.10055e-15 0)
(3 -2.0072e-15 0)
(3 -1.93203e-15 0)
(3 -1.28795e-15 0)
(3 -1.17879e-15 0)
(3 -1.19216e-15 0)
(3 -8.62439e-16 0)
(3 -4.04326e-16 0)
(3 -5.21046e-16 0)
(3 -2.89497e-16 0)
(3 -1.66907e-16 0)
(3 -7.05911e-16 0)
(3 -1.39616e-15 0)
(3 -1.82275e-15 0)
(3 -1.94673e-15 0)
(3 -1.50633e-15 0)
(3 -1.08053e-15 0)
(3 -5.01663e-16 0)
(3 -3.42413e-17 0)
(3 3.68952e-16 0)
(3 7.16713e-16 0)
(3 9.07785e-16 0)
(3 1.01539e-15 0)
(3 4.37347e-16 0)
(3 2.24187e-16 0)
(3 4.88802e-16 0)
(3 1.36148e-15 0)
(3 1.14654e-15 0)
(3 2.68859e-16 0)
(3 -7.93102e-16 0)
(3 -5.42333e-16 0)
(3 1.8259e-16 0)
(3 2.31188e-16 0)
(3 2.35591e-16 0)
(3 -1.3253e-16 0)
(3 -1.34829e-15 0)
(3 -2.51201e-15 0)
(3 -2.69313e-15 0)
(3 -1.87803e-15 0)
(3 4.88879e-16 0)
(3 1.63226e-15 0)
(3 2.22532e-15 0)
(3 1.66817e-15 0)
(3 3.11434e-16 0)
(3 -8.62158e-16 0)
(3 -1.4156e-15 0)
(3 -1.68008e-15 0)
(3 -5.15203e-16 0)
(3 3.793e-16 0)
(3 6.66244e-16 0)
(3 2.57666e-16 0)
(3 1.40667e-17 0)
(3 4.88141e-16 0)
(3 4.57306e-16 0)
(3 -1.40264e-16 0)
(3 1.20178e-16 0)
(3 -1.80534e-17 0)
(3 -2.68234e-16 0)
(3 9.0462e-17 0)
(3 -3.78592e-17 0)
(3 -1.72849e-16 0)
(3 -6.98077e-16 0)
(3 -1.00998e-15 0)
(3 -6.8121e-16 0)
(3 -6.10699e-16 0)
(3 -1.1683e-15 0)
(3 -1.29565e-15 0)
(3 -1.35958e-15 0)
(3 -1.15555e-15 0)
(3 -1.1522e-15 0)
(3 -7.20736e-16 0)
(3 -4.19255e-16 0)
(3 -2.45824e-17 0)
(3 -2.49806e-16 0)
(3 -3.29413e-18 0)
(3 7.66404e-16 0)
(3 8.67865e-16 0)
(3 8.13185e-16 0)
(3 9.08014e-16 0)
(3 -3.48153e-16 0)
(3 -4.3046e-16 0)
(3 -3.04808e-16 0)
(3 -2.74554e-16 0)
(3 -2.66035e-16 0)
(3 6.36011e-16 0)
(3 1.0189e-15 0)
(3 9.11144e-16 0)
(3 4.76792e-17 0)
(3 -9.66386e-16 0)
(3 -1.13524e-15 0)
(3 -1.06295e-15 0)
(3 -1.08201e-15 0)
(3 -1.18277e-15 0)
(3 -1.33179e-15 0)
(3 -9.1439e-16 0)
(3 -7.68421e-16 0)
(3 -1.8951e-15 0)
(3 -1.46656e-15 0)
(3 -1.65763e-15 0)
(3 -1.34778e-15 0)
(3 -1.27792e-15 0)
(3 -1.81314e-15 0)
(3 -1.61949e-15 0)
(3 -9.69117e-16 0)
(3 -6.13855e-16 0)
(3 -4.67643e-16 0)
(3 -7.64521e-16 0)
(3 -1.32943e-15 0)
(3 -2.13208e-15 0)
(3 -2.65469e-15 0)
(3 -2.32899e-15 0)
(3 -1.61656e-15 0)
(3 -8.34489e-16 0)
(3 -3.63035e-16 0)
(3 1.78505e-16 0)
(3 5.03611e-16 0)
(3 7.35468e-17 0)
(3 1.90817e-16 0)
(3 1.29941e-15 0)
(3 1.47214e-15 0)
(3 8.2532e-16 0)
(3 5.53876e-16 0)
(3 1.26377e-15 0)
(3 1.83896e-15 0)
(3 1.7381e-15 0)
(3 1.54069e-15 0)
(3 4.45857e-17 0)
(3 -6.71027e-16 0)
(3 -1.10513e-15 0)
(3 -1.82318e-15 0)
(3 -1.98674e-15 0)
(3 -1.6669e-15 0)
(3 -1.34398e-15 0)
(3 -1.85786e-15 0)
(3 -2.48655e-16 0)
(3 4.93355e-16 0)
(3 1.2008e-15 0)
(3 2.31635e-15 0)
(3 2.37402e-15 0)
(3 1.87481e-15 0)
(3 1.08386e-15 0)
(3 -1.00374e-16 0)
(3 -3.26245e-16 0)
(3 -2.11128e-16 0)
(3 2.73381e-16 0)
(3 2.24782e-16 0)
(3 9.50858e-16 0)
(3 1.4072e-15 0)
(3 1.83685e-15 0)
(3 1.2465e-15 0)
(3 -5.50981e-16 0)
(3 7.28602e-17 0)
(3 -2.48677e-16 0)
(3 -1.84457e-16 0)
(3 -4.37203e-16 0)
(3 -5.30488e-16 0)
(3 -3.53393e-16 0)
(3 -4.04509e-16 0)
(3 -5.5885e-16 0)
(3 -6.14757e-16 0)
(3 -7.94905e-16 0)
(3 -1.05808e-15 0)
(3 -1.27814e-15 0)
(3 -8.21449e-16 0)
(3 -4.43319e-16 0)
(3 -6.38679e-16 0)
(3 -1.34478e-15 0)
(3 -1.51352e-15 0)
(3 -1.29181e-15 0)
(3 -1.01389e-15 0)
(3 -1.22597e-15 0)
(3 -1.30851e-15 0)
(3 3.20633e-16 0)
(3 4.14744e-16 0)
(3 -5.04045e-17 0)
(3 -8.25003e-16 0)
(3 -6.98096e-16 0)
(3 -4.6454e-16 0)
(3 -1.09061e-15 0)
(3 -1.26923e-15 0)
(3 -5.20326e-16 0)
(3 2.26812e-16 0)
(3 1.12889e-15 0)
(3 1.17342e-15 0)
(3 5.98573e-16 0)
(3 -6.37509e-16 0)
(3 -6.64161e-16 0)
(3 -6.78358e-16 0)
(3 -6.14394e-16 0)
(3 -5.87335e-16 0)
(3 1.78524e-16 0)
(3 7.24424e-16 0)
(3 1.19217e-15 0)
(3 6.97903e-16 0)
(3 -2.09331e-16 0)
(3 -1.17789e-15 0)
(3 -1.57228e-15 0)
(3 -1.90024e-15 0)
(3 -1.9312e-15 0)
(3 -1.0104e-15 0)
(3 -1.2036e-17 0)
(3 4.03146e-16 0)
(3 -4.79144e-17 0)
(3 2.27142e-16 0)
(3 -1.40843e-15 0)
(3 -2.8022e-15 0)
(3 -3.15627e-15 0)
(3 -2.85497e-15 0)
(3 -2.90671e-15 0)
(3 -1.92769e-15 0)
(3 -4.10176e-16 0)
(3 -4.17483e-17 0)
(3 -3.5078e-16 0)
(3 -7.04248e-16 0)
(3 -9.14703e-16 0)
(3 8.45127e-17 0)
(3 4.18922e-16 0)
(3 5.2552e-17 0)
(3 -6.05656e-16 0)
(3 -4.03748e-16 0)
(3 6.54373e-17 0)
(3 6.18546e-16 0)
(3 2.09011e-16 0)
(3 -1.38704e-15 0)
(3 -2.25734e-15 0)
(3 -3.79491e-15 0)
(3 -4.49666e-15 0)
(3 -3.35689e-15 0)
(3 -8.09217e-16 0)
(3 -2.57801e-16 0)
(3 1.11942e-15 0)
(3 1.42114e-15 0)
(3 1.20391e-15 0)
(3 1.30587e-15 0)
(3 2.04696e-15 0)
(3 1.92284e-15 0)
(3 7.58522e-16 0)
(3 6.30034e-16 0)
(3 7.43716e-16 0)
(3 9.50038e-16 0)
(3 4.82138e-16 0)
(3 7.0905e-16 0)
(3 1.42885e-15 0)
(3 1.45308e-15 0)
(3 8.34824e-16 0)
(3 8.71438e-16 0)
(3 1.17963e-15 0)
(3 8.74178e-17 0)
(3 1.00582e-16 0)
(3 -2.50434e-17 0)
(3 -2.52088e-16 0)
(3 -4.17665e-16 0)
(3 1.92767e-17 0)
(3 3.26917e-16 0)
(3 2.86221e-16 0)
(3 -2.82705e-16 0)
(3 -5.80117e-16 0)
(3 -4.09081e-16 0)
(3 -7.38789e-17 0)
(3 2.86132e-16 0)
(3 6.63675e-16 0)
(3 -8.36311e-17 0)
(3 -7.13368e-16 0)
(3 -7.16345e-16 0)
(3 -5.64856e-16 0)
(3 5.28725e-16 0)
(3 8.75334e-16 0)
(3 9.64171e-16 0)
(3 5.63507e-16 0)
(3 -6.62335e-16 0)
(3 -1.19894e-15 0)
(3 -7.59837e-16 0)
(3 -1.25276e-15 0)
(3 -8.21289e-16 0)
(3 -4.12679e-16 0)
(3 -5.37099e-16 0)
(3 -1.04047e-15 0)
(3 -8.7713e-16 0)
(3 3.15044e-17 0)
(3 5.96368e-16 0)
(3 7.92554e-16 0)
(3 7.30601e-16 0)
(3 8.4807e-16 0)
(3 -2.61829e-16 0)
(3 -8.75217e-16 0)
(3 -1.19488e-15 0)
(3 -1.33983e-15 0)
(3 -1.46483e-15 0)
(3 -1.3355e-15 0)
(3 -1.26291e-15 0)
(3 -1.09054e-15 0)
(3 -1.08677e-15 0)
(3 -1.56563e-15 0)
(3 -1.21109e-15 0)
(3 -1.48319e-15 0)
(3 -2.53709e-16 0)
(3 2.41645e-16 0)
(3 1.37926e-16 0)
(3 2.15997e-16 0)
(3 2.42735e-16 0)
(3 -4.04362e-16 0)
(3 -2.75841e-15 0)
(3 -3.08914e-15 0)
(3 -3.09497e-15 0)
(3 -3.50832e-15 0)
(3 -2.71801e-15 0)
(3 -2.3926e-15 0)
(3 -1.9155e-15 0)
(3 -1.74318e-15 0)
(3 -2.25265e-15 0)
(3 -2.27703e-15 0)
(3 -1.87209e-15 0)
(3 -8.3993e-16 0)
(3 -8.60908e-16 0)
(3 -5.10741e-16 0)
(3 2.20946e-16 0)
(3 -3.22589e-17 0)
(3 -1.93556e-16 0)
(3 -1.4747e-16 0)
(3 -2.68048e-16 0)
(3 -9.84977e-16 0)
(3 -2.61049e-15 0)
(3 -2.46476e-15 0)
(3 -1.79493e-15 0)
(3 -4.34457e-16 0)
(3 8.16738e-16 0)
(3 1.80538e-15 0)
(3 2.03088e-15 0)
(3 2.37774e-15 0)
(3 2.15337e-15 0)
(3 1.69204e-15 0)
(3 1.97474e-15 0)
(3 1.43173e-15 0)
(3 1.47313e-15 0)
(3 1.53519e-15 0)
(3 1.51022e-15 0)
(3 8.41956e-16 0)
(3 9.29255e-16 0)
(3 1.21469e-15 0)
(3 1.23049e-15 0)
(3 1.35105e-16 0)
(3 7.98931e-17 0)
(3 4.79162e-16 0)
(3 -3.11276e-17 0)
(3 3.26351e-16 0)
(3 3.8251e-16 0)
(3 2.96966e-16 0)
(3 4.72293e-16 0)
(3 1.65586e-16 0)
(3 1.84726e-16 0)
(3 2.70418e-16 0)
(3 1.30134e-16 0)
(3 -5.12727e-17 0)
(3 1.3126e-17 0)
(3 1.96705e-16 0)
(3 -4.86745e-17 0)
(3 -4.24577e-16 0)
(3 -5.3807e-16 0)
(3 -2.40066e-16 0)
(3 7.51102e-16 0)
(3 1.40277e-15 0)
(3 8.7468e-16 0)
(3 1.16384e-15 0)
(3 6.48613e-16 0)
(3 -7.75374e-17 0)
(3 -1.96435e-16 0)
(3 1.58522e-16 0)
(3 -5.27087e-16 0)
(3 -7.9291e-16 0)
(3 -7.63066e-16 0)
(3 -8.74024e-16 0)
(3 -1.85239e-15 0)
(3 -2.38558e-15 0)
(3 -2.89542e-15 0)
(3 -2.43856e-15 0)
(3 -2.0879e-15 0)
(3 -9.84197e-16 0)
(3 8.33505e-16 0)
(3 1.47202e-15 0)
(3 1.07095e-15 0)
(3 -9.22633e-16 0)
(3 -1.50443e-15 0)
(3 -2.87717e-15 0)
(3 -4.46132e-15 0)
(3 -4.80061e-15 0)
(3 -3.72811e-15 0)
(3 -3.17722e-15 0)
(3 -1.71742e-15 0)
(3 -1.33634e-15 0)
(3 -4.69868e-16 0)
(3 -6.59128e-16 0)
(3 -9.19478e-16 0)
(3 -1.32769e-15 0)
(3 -1.49788e-15 0)
(3 -7.03076e-16 0)
(3 -2.91951e-16 0)
(3 3.42991e-16 0)
(3 1.20519e-17 0)
(3 -1.10466e-15 0)
(3 -2.46775e-15 0)
(3 -1.96839e-15 0)
(3 -2.31948e-15 0)
(3 -2.39595e-15 0)
(3 -2.76898e-15 0)
(3 -2.53644e-15 0)
(3 -1.47073e-15 0)
(3 -1.27193e-15 0)
(3 -1.297e-15 0)
(3 -2.11461e-15 0)
(3 -2.03515e-15 0)
(3 -1.06093e-15 0)
(3 -1.28925e-16 0)
(3 1.60105e-16 0)
(3 -1.19057e-16 0)
(3 -1.97163e-16 0)
(3 4.64733e-16 0)
(3 1.22488e-15 0)
(3 1.03877e-15 0)
(3 6.01633e-16 0)
(3 2.87819e-16 0)
(3 -1.73745e-16 0)
(3 -2.18662e-16 0)
(3 -1.53782e-16 0)
(3 -1.49505e-16 0)
(3 6.72691e-16 0)
(3 1.05894e-15 0)
(3 1.02994e-15 0)
(3 1.26209e-15 0)
(3 2.05657e-15 0)
(3 2.28258e-15 0)
(3 1.69539e-15 0)
(3 1.57091e-15 0)
(3 1.05867e-15 0)
(3 2.10077e-16 0)
(3 3.74201e-16 0)
(3 1.02682e-15 0)
(3 7.02659e-16 0)
(3 1.821e-16 0)
(3 -2.00317e-16 0)
(3 -5.27078e-17 0)
(3 2.11065e-16 0)
(3 2.55282e-16 0)
(3 4.31593e-16 0)
(3 1.13098e-15 0)
(3 9.89828e-16 0)
(3 6.84094e-16 0)
(3 7.73896e-16 0)
(3 8.11087e-16 0)
(3 5.30267e-16 0)
(3 3.92488e-16 0)
(3 6.44286e-16 0)
(3 4.16674e-16 0)
(3 -2.86044e-16 0)
(3 -2.70665e-16 0)
(3 -6.01651e-16 0)
(3 7.81069e-16 0)
(3 2.37815e-15 0)
(3 1.99123e-15 0)
(3 1.25337e-15 0)
(3 2.21622e-16 0)
(3 -2.02054e-16 0)
(3 -3.34937e-18 0)
(3 1.07067e-16 0)
(3 -5.50806e-16 0)
(3 -1.01856e-15 0)
(3 -1.43832e-15 0)
(3 -1.42431e-15 0)
(3 -1.10543e-15 0)
(3 -9.4447e-16 0)
(3 -1.00191e-15 0)
(3 -1.4784e-15 0)
(3 -4.83974e-16 0)
(3 1.1471e-15 0)
(3 1.3782e-15 0)
(3 1.04076e-15 0)
(3 3.44353e-16 0)
(3 -3.35762e-16 0)
(3 -1.69353e-15 0)
(3 -2.28507e-15 0)
(3 -2.49858e-15 0)
(3 -2.07198e-15 0)
(3 -1.60112e-15 0)
(3 -1.22798e-15 0)
(3 -5.68058e-16 0)
(3 3.95429e-17 0)
(3 7.49582e-16 0)
(3 7.98542e-16 0)
(3 4.25147e-16 0)
(3 -3.10751e-16 0)
(3 -3.57234e-16 0)
(3 -1.81738e-16 0)
(3 2.02114e-16 0)
(3 7.66315e-16 0)
(3 1.17907e-15 0)
(3 8.26484e-17 0)
(3 -6.9302e-16 0)
(3 -1.67748e-15 0)
(3 -2.30878e-15 0)
(3 -2.2934e-15 0)
(3 -2.2759e-15 0)
(3 -2.23115e-15 0)
(3 -1.82955e-15 0)
(3 -2.04777e-15 0)
(3 -1.86158e-15 0)
(3 -1.93188e-15 0)
(3 -1.61008e-15 0)
(3 -1.12508e-15 0)
(3 -1.31547e-15 0)
(3 -6.87694e-16 0)
(3 -6.48122e-16 0)
(3 -8.20594e-16 0)
(3 5.71942e-17 0)
(3 6.68595e-16 0)
(3 6.69192e-16 0)
(3 4.99049e-17 0)
(3 -1.69874e-15 0)
(3 -2.17175e-15 0)
(3 -2.32566e-15 0)
(3 -2.1571e-15 0)
(3 -1.77457e-15 0)
(3 -1.36953e-15 0)
(3 -1.15179e-15 0)
(3 -3.25699e-16 0)
(3 -6.34834e-17 0)
(3 5.69345e-16 0)
(3 1.29816e-15 0)
(3 1.45976e-15 0)
(3 6.99084e-16 0)
(3 6.32802e-17 0)
(3 6.64746e-16 0)
(3 9.90802e-16 0)
(3 1.83101e-15 0)
(3 1.80525e-15 0)
(3 8.01687e-16 0)
(3 4.39691e-17 0)
(3 1.41038e-16 0)
(3 2.06379e-16 0)
(3 -1.41635e-16 0)
(3 -2.12313e-16 0)
(3 -1.15732e-16 0)
(3 6.3596e-16 0)
(3 1.116e-15 0)
(3 1.02427e-15 0)
(3 8.29961e-16 0)
(3 1.06651e-15 0)
(3 1.40851e-15 0)
(3 1.64094e-15 0)
(3 7.18487e-16 0)
(3 -4.76503e-16 0)
(3 -6.62704e-16 0)
(3 -1.03508e-15 0)
(3 5.80975e-16 0)
(3 1.03165e-15 0)
(3 1.01358e-15 0)
(3 5.3582e-16 0)
(3 4.74569e-16 0)
(3 3.27205e-16 0)
(3 3.5407e-16 0)
(3 -1.02732e-16 0)
(3 -7.97377e-16 0)
(3 -1.82992e-15 0)
(3 -2.12768e-15 0)
(3 -1.1248e-15 0)
(3 1.19996e-15 0)
(3 1.56406e-15 0)
(3 1.07204e-15 0)
(3 -1.95567e-16 0)
(3 -7.20563e-16 0)
(3 -1.77082e-15 0)
(3 -1.64934e-15 0)
(3 -1.82219e-15 0)
(3 -2.38525e-15 0)
(3 -2.70971e-15 0)
(3 -3.54663e-15 0)
(3 -3.20557e-15 0)
(3 -1.85011e-15 0)
(3 -4.77382e-16 0)
(3 1.96563e-16 0)
(3 2.35728e-16 0)
(3 4.16449e-16 0)
(3 6.9262e-16 0)
(3 8.74072e-16 0)
(3 1.35972e-15 0)
(3 1.72395e-15 0)
(3 1.39794e-15 0)
(3 1.04533e-15 0)
(3 1.19075e-15 0)
(3 1.70823e-15 0)
(3 1.12937e-15 0)
(3 8.66116e-16 0)
(3 8.01269e-16 0)
(3 4.53845e-17 0)
(3 -1.2135e-15 0)
(3 -2.51235e-15 0)
(3 -3.03444e-15 0)
(3 -2.51363e-15 0)
(3 -2.18434e-15 0)
(3 -2.54039e-15 0)
(3 -2.58929e-15 0)
(3 -2.62819e-15 0)
(3 -1.77842e-15 0)
(3 2.18646e-17 0)
(3 1.34939e-15 0)
(3 1.53354e-15 0)
(3 1.22769e-15 0)
(3 8.6374e-16 0)
(3 1.00219e-15 0)
(3 9.37034e-16 0)
(3 1.66031e-16 0)
(3 -2.04326e-16 0)
(3 6.30983e-18 0)
(3 -7.90814e-16 0)
(3 -2.02794e-15 0)
(3 -2.44118e-15 0)
(3 -3.20778e-15 0)
(3 -3.30385e-15 0)
(3 -2.758e-15 0)
(3 -2.6429e-15 0)
(3 -2.56692e-15 0)
(3 -1.45161e-15 0)
(3 6.28813e-17 0)
(3 5.16139e-16 0)
(3 3.26891e-16 0)
(3 -8.44525e-17 0)
(3 1.41279e-16 0)
(3 7.68391e-16 0)
(3 1.41301e-15 0)
(3 1.55804e-15 0)
(3 1.38825e-15 0)
(3 8.35197e-16 0)
(3 5.10701e-16 0)
(3 9.11961e-19 0)
(3 -4.17452e-17 0)
(3 8.52573e-17 0)
(3 -3.13664e-16 0)
(3 -6.37956e-16 0)
(3 -5.23617e-16 0)
(3 2.9045e-16 0)
(3 7.15037e-16 0)
(3 8.04274e-16 0)
(3 5.80688e-16 0)
(3 7.77609e-16 0)
(3 3.24558e-16 0)
(3 -2.2623e-15 0)
(3 -2.49133e-15 0)
(3 -2.10746e-15 0)
(3 -5.50692e-16 0)
(3 -6.59356e-16 0)
(3 -1.0456e-15 0)
(3 -1.05389e-15 0)
(3 -6.37307e-16 0)
(3 -2.13079e-16 0)
(3 -1.04927e-17 0)
(3 -2.14725e-16 0)
(3 -1.44942e-15 0)
(3 -1.84769e-15 0)
(3 -1.78488e-15 0)
(3 -6.73828e-16 0)
(3 -2.53207e-16 0)
(3 -5.88401e-16 0)
(3 -5.74403e-16 0)
(3 -4.8358e-16 0)
(3 -5.14453e-16 0)
(3 -1.33594e-15 0)
(3 -2.46584e-15 0)
(3 -3.55584e-15 0)
(3 -3.53407e-15 0)
(3 -3.01173e-15 0)
(3 -2.33498e-15 0)
(3 -2.36771e-15 0)
(3 -2.49682e-15 0)
(3 -1.20724e-15 0)
(3 -3.06194e-16 0)
(3 1.76535e-16 0)
(3 4.2315e-16 0)
(3 5.2852e-16 0)
(3 7.92945e-16 0)
(3 8.87338e-16 0)
(3 2.2935e-15 0)
(3 2.46577e-15 0)
(3 1.98759e-15 0)
(3 1.22238e-15 0)
(3 1.46292e-15 0)
(3 2.36921e-15 0)
(3 1.66838e-15 0)
(3 1.52096e-15 0)
(3 1.17214e-15 0)
(3 1.16067e-15 0)
(3 6.67224e-16 0)
(3 4.01304e-16 0)
(3 3.72625e-16 0)
(3 2.27791e-16 0)
(3 -6.18334e-16 0)
(3 -8.55645e-16 0)
(3 -1.01254e-15 0)
(3 -1.50444e-15 0)
(3 -1.6191e-15 0)
(3 -1.29082e-15 0)
(3 -1.00828e-15 0)
(3 -6.81641e-16 0)
(3 6.32107e-16 0)
(3 2.80571e-15 0)
(3 3.12455e-15 0)
(3 2.59063e-15 0)
(3 1.63646e-15 0)
(3 1.45949e-15 0)
(3 1.13059e-15 0)
(3 5.53558e-16 0)
(3 -2.21449e-16 0)
(3 -9.95933e-16 0)
(3 -1.59633e-15 0)
(3 -2.02645e-15 0)
(3 -2.27758e-15 0)
(3 -2.38319e-15 0)
(3 -2.96131e-15 0)
(3 -2.71057e-15 0)
(3 -1.12996e-15 0)
(3 -6.32496e-16 0)
(3 -1.23742e-15 0)
(3 -9.0589e-16 0)
(3 -2.03993e-16 0)
(3 1.02799e-15 0)
(3 7.66389e-16 0)
(3 6.40606e-16 0)
(3 7.15314e-16 0)
(3 9.87251e-16 0)
(3 9.83348e-16 0)
(3 3.89569e-17 0)
(3 1.18933e-18 0)
(3 7.85513e-17 0)
(3 -1.93302e-16 0)
(3 -3.96046e-16 0)
(3 -7.99733e-16 0)
(3 -7.65145e-16 0)
(3 -2.9086e-16 0)
(3 8.92451e-16 0)
(3 6.45656e-16 0)
(3 5.82967e-17 0)
(3 -1.51002e-15 0)
(3 -1.3826e-15 0)
(3 -1.51108e-15 0)
(3 -5.95676e-16 0)
(3 -1.10267e-16 0)
(3 -5.52466e-16 0)
(3 -1.00942e-15 0)
(3 -7.8805e-16 0)
(3 -2.49792e-16 0)
(3 6.2847e-17 0)
(3 3.41526e-16 0)
(3 -4.39315e-17 0)
(3 -4.50873e-16 0)
(3 -7.14171e-16 0)
(3 -4.11865e-16 0)
(3 -2.31592e-16 0)
(3 -1.50655e-15 0)
(3 -2.63339e-15 0)
(3 -2.60052e-15 0)
(3 -2.72365e-15 0)
(3 -3.74659e-15 0)
(3 -2.65489e-15 0)
(3 -2.01246e-15 0)
(3 -2.01458e-15 0)
(3 -1.60815e-15 0)
(3 -8.6058e-16 0)
(3 -4.30992e-16 0)
(3 5.80036e-16 0)
(3 8.6478e-16 0)
(3 1.59479e-15 0)
(3 1.61538e-15 0)
(3 1.36243e-15 0)
(3 9.35685e-16 0)
(3 2.44885e-16 0)
(3 8.85347e-16 0)
(3 1.27818e-15 0)
(3 9.53848e-16 0)
(3 8.46883e-16 0)
(3 9.87927e-16 0)
(3 1.10354e-15 0)
(3 1.42987e-15 0)
(3 1.9654e-15 0)
(3 2.18227e-15 0)
(3 2.5704e-15 0)
(3 1.70736e-15 0)
(3 1.40451e-15 0)
(3 2.33762e-15 0)
(3 1.70073e-15 0)
(3 1.61734e-15 0)
(3 1.3511e-15 0)
(3 1.37621e-15 0)
(3 1.40818e-15 0)
(3 9.50441e-16 0)
(3 -1.49972e-16 0)
(3 -1.45947e-15 0)
(3 -2.62837e-15 0)
(3 -2.6163e-15 0)
(3 -1.69903e-15 0)
(3 -2.48326e-16 0)
(3 1.10578e-15 0)
(3 1.33698e-15 0)
(3 8.19232e-16 0)
(3 1.82765e-16 0)
(3 5.09597e-16 0)
(3 7.81818e-16 0)
(3 1.58307e-15 0)
(3 1.34519e-15 0)
(3 2.39706e-16 0)
(3 -9.35222e-16 0)
(3 -2.19004e-15 0)
(3 -2.28591e-15 0)
(3 -1.49056e-15 0)
(3 -1.11116e-15 0)
(3 -1.57497e-15 0)
(3 -1.88518e-15 0)
(3 -1.82903e-15 0)
(3 -1.99977e-15 0)
(3 -1.60861e-15 0)
(3 -1.17042e-15 0)
(3 -3.36984e-16 0)
(3 -2.65082e-16 0)
(3 -5.6977e-17 0)
(3 1.22132e-16 0)
(3 4.66681e-16 0)
(3 2.06757e-16 0)
(3 -9.70954e-19 0)
(3 -1.76807e-16 0)
(3 -3.49797e-16 0)
(3 -3.04616e-16 0)
(3 -2.83692e-16 0)
(3 -3.86411e-16 0)
(3 -7.20154e-16 0)
(3 -6.14842e-16 0)
(3 -3.29571e-16 0)
(3 -7.76244e-17 0)
(3 -1.83091e-16 0)
(3 3.44849e-16 0)
(3 7.87103e-16 0)
(3 7.86535e-16 0)
(3 3.5653e-16 0)
(3 1.95254e-16 0)
(3 5.41302e-16 0)
(3 9.29676e-16 0)
(3 9.41238e-16 0)
(3 5.97412e-16 0)
(3 6.36456e-16 0)
(3 7.82064e-16 0)
(3 7.11412e-16 0)
(3 8.48334e-16 0)
(3 7.81991e-16 0)
(3 3.51682e-16 0)
(3 -8.36018e-16 0)
(3 -9.48957e-16 0)
(3 -1.37192e-15 0)
(3 -2.27313e-15 0)
(3 -3.95338e-15 0)
(3 -5.13832e-15 0)
(3 -4.04029e-15 0)
(3 -2.3603e-15 0)
(3 -4.3305e-16 0)
(3 -4.80796e-16 0)
(3 -5.39972e-16 0)
(3 -2.38214e-16 0)
(3 6.66342e-16 0)
(3 2.26983e-15 0)
(3 3.60073e-15 0)
(3 3.61956e-15 0)
(3 1.06472e-15 0)
(3 -3.04145e-16 0)
(3 -6.18518e-16 0)
(3 -3.82445e-17 0)
(3 1.39086e-15 0)
(3 1.16764e-15 0)
(3 1.30973e-15 0)
(3 1.06421e-15 0)
(3 4.19886e-16 0)
(3 4.44915e-17 0)
(3 3.21047e-16 0)
(3 1.36435e-15 0)
(3 1.38919e-15 0)
(3 2.29083e-15 0)
(3 2.38436e-15 0)
(3 2.04476e-15 0)
(3 1.275e-15 0)
(3 1.55567e-15 0)
(3 1.92767e-15 0)
(3 1.81557e-15 0)
(3 1.64392e-15 0)
(3 1.11696e-15 0)
(3 1.56581e-16 0)
(3 -2.38448e-16 0)
(3 -1.16047e-15 0)
(3 -2.16474e-15 0)
(3 -2.0316e-15 0)
(3 -1.62422e-15 0)
(3 -1.31156e-15 0)
(3 -8.19449e-16 0)
(3 -5.77282e-16 0)
(3 -4.99656e-17 0)
(3 -7.32836e-16 0)
(3 -5.90591e-16 0)
(3 -3.58288e-16 0)
(3 3.0643e-16 0)
(3 1.40475e-19 0)
(3 -1.51528e-15 0)
(3 -2.17658e-15 0)
(3 -2.56191e-15 0)
(3 -1.76491e-15 0)
(3 -1.19605e-15 0)
(3 -1.19189e-15 0)
(3 -1.30156e-15 0)
(3 -1.09499e-15 0)
(3 -1.07374e-15 0)
(3 -1.16816e-15 0)
(3 -1.11961e-15 0)
(3 -1.11685e-15 0)
(3 -1.10175e-15 0)
(3 -1.23601e-15 0)
(3 -4.4853e-16 0)
(3 8.69333e-16 0)
(3 1.55621e-15 0)
(3 -2.07728e-17 0)
(3 7.24101e-17 0)
(3 -2.24695e-17 0)
(3 -6.90425e-17 0)
(3 -2.71606e-16 0)
(3 1.07822e-16 0)
(3 -1.33478e-16 0)
(3 -4.64356e-16 0)
(3 -7.08231e-16 0)
(3 -9.60256e-16 0)
(3 -4.62831e-16 0)
(3 1.21863e-15 0)
(3 1.59822e-15 0)
(3 1.58407e-15 0)
(3 1.61665e-15 0)
(3 1.23921e-15 0)
(3 1.09914e-15 0)
(3 1.23194e-15 0)
(3 1.81641e-15 0)
(3 1.48734e-15 0)
(3 1.31211e-15 0)
(3 1.22432e-15 0)
(3 9.5589e-16 0)
(3 6.81833e-16 0)
(3 2.12974e-16 0)
(3 -2.26986e-16 0)
(3 -1.10902e-15 0)
(3 -9.00302e-16 0)
(3 -8.50135e-16 0)
(3 -1.29651e-15 0)
(3 -2.00616e-15 0)
(3 -2.06461e-15 0)
(3 -1.5756e-15 0)
(3 -1.05327e-15 0)
(3 -2.71747e-16 0)
(3 -3.55922e-16 0)
(3 -3.48316e-16 0)
(3 7.80271e-16 0)
(3 1.4548e-15 0)
(3 2.10793e-15 0)
(3 2.52345e-15 0)
(3 2.21629e-15 0)
(3 1.96539e-15 0)
(3 1.88751e-15 0)
(3 1.48203e-15 0)
(3 1.33424e-16 0)
(3 -5.17998e-17 0)
(3 3.31987e-16 0)
(3 2.54142e-16 0)
(3 -3.42224e-17 0)
(3 6.68513e-17 0)
(3 -7.01184e-17 0)
(3 -1.2585e-16 0)
(3 -4.37174e-16 0)
(3 -8.17555e-16 0)
(3 8.80013e-16 0)
(3 1.99634e-15 0)
(3 1.6028e-15 0)
(3 1.48468e-15 0)
(3 9.14885e-16 0)
(3 7.04804e-16 0)
(3 6.70576e-16 0)
(3 6.43777e-17 0)
(3 -2.81417e-16 0)
(3 -7.10491e-17 0)
(3 1.04144e-16 0)
(3 -6.6586e-16 0)
(3 -1.04608e-15 0)
(3 -1.45793e-15 0)
(3 -2.17872e-15 0)
(3 -2.15691e-15 0)
(3 -1.63268e-15 0)
(3 -5.61368e-16 0)
(3 -6.29602e-18 0)
(3 -5.74985e-16 0)
(3 -9.61306e-16 0)
(3 -6.19102e-16 0)
(3 -2.13588e-16 0)
(3 2.1435e-16 0)
(3 1.59168e-16 0)
(3 -2.22318e-16 0)
(3 -7.44244e-16 0)
(3 -1.39733e-15 0)
(3 -1.59902e-15 0)
(3 -1.60047e-15 0)
(3 -7.93538e-16 0)
(3 -2.31429e-16 0)
(3 1.01507e-16 0)
(3 1.77845e-16 0)
(3 -8.72624e-16 0)
(3 -1.7776e-15 0)
(3 -1.44339e-15 0)
(3 -1.19882e-15 0)
(3 -7.23657e-16 0)
(3 5.43731e-16 0)
(3 1.54417e-15 0)
(3 4.3039e-17 0)
(3 4.08927e-16 0)
(3 2.29455e-16 0)
(3 2.08136e-16 0)
(3 1.00981e-16 0)
(3 5.30682e-17 0)
(3 -7.39864e-18 0)
(3 -2.28284e-16 0)
(3 -4.73928e-17 0)
(3 -1.08141e-16 0)
(3 4.64724e-16 0)
(3 8.53615e-16 0)
(3 8.06551e-16 0)
(3 7.47169e-16 0)
(3 1.19896e-15 0)
(3 1.2378e-15 0)
(3 1.18957e-15 0)
(3 5.83094e-16 0)
(3 3.46237e-16 0)
(3 3.39064e-16 0)
(3 2.96556e-16 0)
(3 -5.63871e-17 0)
(3 -1.54824e-16 0)
(3 -4.04839e-16 0)
(3 -8.36738e-16 0)
(3 -6.5483e-16 0)
(3 -4.19788e-16 0)
(3 -4.44254e-16 0)
(3 -6.27748e-16 0)
(3 -7.4116e-16 0)
(3 -4.00042e-16 0)
(3 4.90834e-16 0)
(3 5.47109e-16 0)
(3 6.03637e-16 0)
(3 2.32861e-16 0)
(3 4.52375e-16 0)
(3 5.15162e-16 0)
(3 2.67579e-16 0)
(3 6.1505e-16 0)
(3 3.05943e-16 0)
(3 8.82948e-16 0)
(3 1.86687e-15 0)
(3 3.23029e-15 0)
(3 3.26415e-15 0)
(3 3.63057e-15 0)
(3 2.90842e-15 0)
(3 3.87007e-16 0)
(3 -7.87908e-16 0)
(3 -1.41844e-15 0)
(3 -1.54554e-15 0)
(3 -1.40948e-15 0)
(3 -1.60357e-15 0)
(3 -1.75546e-15 0)
(3 -1.73364e-15 0)
(3 -8.00511e-16 0)
(3 1.69424e-15 0)
(3 2.57424e-15 0)
(3 3.27543e-15 0)
(3 3.02517e-15 0)
(3 2.34762e-15 0)
(3 1.50567e-15 0)
(3 1.23624e-15 0)
(3 1.49778e-16 0)
(3 -8.53254e-17 0)
(3 1.11725e-15 0)
(3 1.3904e-15 0)
(3 9.71251e-16 0)
(3 1.41657e-15 0)
(3 8.73734e-16 0)
(3 -2.49016e-16 0)
(3 -6.03889e-16 0)
(3 -3.75682e-16 0)
(3 -3.65326e-16 0)
(3 -5.19921e-16 0)
(3 -3.12195e-16 0)
(3 2.25323e-16 0)
(3 4.05909e-16 0)
(3 6.74347e-16 0)
(3 2.86509e-16 0)
(3 4.41032e-16 0)
(3 3.68787e-16 0)
(3 4.30094e-16 0)
(3 -8.27364e-16 0)
(3 -8.28645e-16 0)
(3 -3.78199e-16 0)
(3 -6.27968e-16 0)
(3 -1.09862e-15 0)
(3 -1.14187e-15 0)
(3 -1.10059e-15 0)
(3 -1.06615e-15 0)
(3 -9.9322e-16 0)
(3 -1.80223e-16 0)
(3 2.25157e-16 0)
(3 -7.95305e-17 0)
(3 2.74895e-16 0)
(3 3.4806e-16 0)
(3 1.86256e-17 0)
(3 1.07012e-16 0)
(3 2.98359e-16 0)
(3 6.64964e-16 0)
(3 3.16081e-16 0)
(3 -3.25995e-16 0)
(3 -4.76474e-16 0)
(3 -4.41865e-16 0)
(3 -3.69318e-16 0)
(3 -1.90894e-16 0)
(3 2.40465e-16 0)
(3 2.08825e-16 0)
(3 -1.80185e-17 0)
(3 1.67227e-16 0)
(3 -5.42502e-17 0)
(3 6.73546e-16 0)
(3 7.72605e-16 0)
(3 6.07357e-16 0)
(3 4.67583e-16 0)
(3 5.81607e-16 0)
(3 6.82781e-17 0)
(3 2.05359e-16 0)
(3 6.74022e-16 0)
(3 6.76707e-16 0)
(3 8.72443e-16 0)
(3 1.02192e-15 0)
(3 7.7095e-16 0)
(3 2.01894e-16 0)
(3 1.09739e-16 0)
(3 4.85928e-18 0)
(3 3.3309e-16 0)
(3 1.616e-15 0)
(3 1.60915e-15 0)
(3 1.2524e-15 0)
(3 2.11373e-16 0)
(3 -5.48422e-16 0)
(3 -9.80783e-16 0)
(3 -7.9269e-16 0)
(3 -2.42477e-17 0)
(3 8.64776e-17 0)
(3 6.62495e-16 0)
(3 1.1188e-15 0)
(3 1.29302e-15 0)
(3 1.26556e-15 0)
(3 1.50173e-15 0)
(3 1.35568e-15 0)
(3 9.18501e-16 0)
(3 2.88203e-16 0)
(3 -1.08457e-16 0)
(3 1.5413e-16 0)
(3 6.83914e-16 0)
(3 1.49822e-16 0)
(3 -1.09392e-15 0)
(3 -1.55999e-15 0)
(3 -8.90458e-16 0)
(3 1.31253e-15 0)
(3 3.7211e-15 0)
(3 3.82527e-15 0)
(3 3.36705e-15 0)
(3 2.56964e-15 0)
(3 1.33668e-15 0)
(3 -3.35637e-16 0)
(3 1.10764e-16 0)
(3 6.12044e-16 0)
(3 7.74861e-16 0)
(3 7.79888e-16 0)
(3 1.23609e-15 0)
(3 1.6558e-15 0)
(3 2.38904e-15 0)
(3 1.85665e-15 0)
(3 1.5977e-15 0)
(3 1.44496e-15 0)
(3 1.18709e-15 0)
(3 1.1925e-15 0)
(3 1.74318e-15 0)
(3 2.00226e-15 0)
(3 1.32186e-15 0)
(3 9.08244e-16 0)
(3 5.1984e-16 0)
(3 2.29251e-16 0)
(3 3.9582e-16 0)
(3 3.39013e-16 0)
(3 1.27135e-16 0)
(3 2.04229e-16 0)
(3 -1.21343e-16 0)
(3 -9.87711e-16 0)
(3 -2.31676e-15 0)
(3 -2.55253e-15 0)
(3 -2.14697e-15 0)
(3 -9.51217e-16 0)
(3 9.63576e-16 0)
(3 1.39745e-15 0)
(3 1.17844e-15 0)
(3 1.21563e-15 0)
(3 7.23287e-16 0)
(3 4.05041e-16 0)
(3 -1.20068e-16 0)
(3 -2.33512e-16 0)
(3 2.56422e-16 0)
(3 2.29719e-16 0)
(3 3.28669e-16 0)
(3 -4.06363e-16 0)
(3 -1.26944e-15 0)
(3 -1.16025e-15 0)
(3 -1.41909e-15 0)
(3 -1.19117e-15 0)
(3 -7.68233e-16 0)
(3 -6.33719e-16 0)
(3 -4.83756e-16 0)
(3 -2.79163e-16 0)
(3 3.32871e-16 0)
(3 9.13404e-16 0)
(3 -8.77597e-18 0)
(3 -4.60296e-16 0)
(3 -1.19527e-16 0)
(3 9.27456e-16 0)
(3 1.36248e-15 0)
(3 2.48935e-15 0)
(3 2.69029e-15 0)
(3 2.71677e-15 0)
(3 3.1413e-15 0)
(3 3.05229e-15 0)
(3 1.39395e-15 0)
(3 1.03025e-15 0)
(3 8.9846e-16 0)
(3 1.5067e-15 0)
(3 1.24873e-15 0)
(3 1.29681e-15 0)
(3 1.89666e-15 0)
(3 2.04843e-15 0)
(3 1.62411e-15 0)
(3 8.75702e-16 0)
(3 3.35274e-16 0)
(3 -6.29646e-16 0)
(3 -3.70283e-16 0)
(3 1.29631e-16 0)
(3 1.9722e-16 0)
(3 2.96766e-16 0)
(3 3.50442e-16 0)
(3 8.32779e-16 0)
(3 6.00379e-16 0)
(3 -4.53874e-16 0)
(3 -3.08134e-16 0)
(3 -7.55328e-16 0)
(3 -1.17957e-15 0)
(3 -1.21012e-15 0)
(3 -1.41729e-15 0)
(3 -1.64949e-15 0)
(3 -9.15963e-16 0)
(3 -3.80963e-16 0)
(3 -3.65806e-17 0)
(3 3.53725e-16 0)
(3 9.03796e-16 0)
(3 8.56905e-16 0)
(3 8.82861e-16 0)
(3 5.11248e-16 0)
(3 -3.00463e-16 0)
(3 -8.08417e-16 0)
(3 -6.53955e-17 0)
(3 1.58826e-16 0)
(3 -4.56257e-16 0)
(3 -3.95995e-16 0)
(3 -1.06022e-16 0)
(3 1.47766e-15 0)
(3 2.83767e-15 0)
(3 2.62443e-15 0)
(3 1.62148e-15 0)
(3 1.71644e-15 0)
(3 1.96846e-15 0)
(3 1.9958e-15 0)
(3 2.53719e-15 0)
(3 2.54137e-15 0)
(3 2.15864e-15 0)
(3 1.52376e-15 0)
(3 1.53929e-15 0)
(3 1.35372e-15 0)
(3 1.34012e-15 0)
(3 1.33392e-15 0)
(3 1.24003e-15 0)
(3 9.53064e-16 0)
(3 -3.71505e-17 0)
(3 -1.2134e-15 0)
(3 -1.80316e-15 0)
(3 -1.28539e-15 0)
(3 8.26451e-19 0)
(3 6.41412e-16 0)
(3 1.53858e-15 0)
(3 1.78229e-15 0)
(3 1.66427e-15 0)
(3 1.31566e-15 0)
(3 4.53589e-17 0)
(3 -1.42497e-15 0)
(3 -5.16651e-17 0)
(3 -9.45817e-18 0)
(3 -3.4636e-16 0)
(3 -4.74598e-16 0)
(3 -2.97632e-16 0)
(3 -2.95689e-16 0)
(3 -5.02149e-16 0)
(3 -6.31112e-16 0)
(3 -4.38369e-16 0)
(3 -6.01115e-16 0)
(3 -5.77196e-16 0)
(3 -2.64955e-16 0)
(3 4.09437e-16 0)
(3 9.67222e-16 0)
(3 1.20002e-15 0)
(3 5.56111e-16 0)
(3 1.60241e-16 0)
(3 -1.11365e-16 0)
(3 -2.6317e-16 0)
(3 -4.49514e-16 0)
(3 5.15773e-16 0)
(3 9.90486e-16 0)
(3 8.70036e-16 0)
(3 9.73005e-16 0)
(3 1.58171e-15 0)
(3 1.64054e-15 0)
(3 2.83221e-15 0)
(3 3.10774e-15 0)
(3 3.18225e-15 0)
(3 2.53403e-15 0)
(3 1.42099e-15 0)
(3 1.30927e-15 0)
(3 1.50544e-15 0)
(3 1.94331e-15 0)
(3 1.59802e-15 0)
(3 2.17987e-16 0)
(3 -1.77533e-16 0)
(3 -1.47393e-15 0)
(3 -1.83747e-15 0)
(3 -1.76316e-15 0)
(3 -1.88597e-15 0)
(3 -1.83521e-15 0)
(3 -1.22392e-15 0)
(3 -3.00893e-16 0)
(3 3.28769e-17 0)
(3 -2.30453e-17 0)
(3 1.86832e-16 0)
(3 3.78829e-16 0)
(3 2.52734e-16 0)
(3 7.35424e-16 0)
(3 5.769e-16 0)
(3 5.02975e-16 0)
(3 -7.3779e-17 0)
(3 -3.17966e-16 0)
(3 -1.49298e-16 0)