/*--------------------------------*- C++ -*----------------------------------*\
  =========                 |
  \\      /  F ield         | OpenFOAM: The Open Source CFD Toolbox
   \\    /   O peration     | Website:  https://openfoam.org
    \\  /    A nd           | Version:  7
     \\/     M anipulation  |
\*---------------------------------------------------------------------------*/
FoamFile
{
    version     2.0;
    format      ascii;
    class       volVectorField;
    location    "2.2";
    object      U;
}
// * * * * * * * * * * * * * * * * * * * * * * * * * * * * * * * * * * * * * //

dimensions      [0 1 -1 0 0 0 0];

internalField   nonuniform List<vector> 
73728
(
(3 -3.76516e-18 0)
(3 1.95321e-16 0)
(3 4.75734e-16 0)
(3 3.80786e-16 0)
(3 -6.68605e-17 0)
(3 -1.27699e-16 0)
(3 1.57777e-16 0)
(3 4.57858e-16 0)
(3 6.05848e-16 0)
(3 5.27286e-17 0)
(3 -2.54727e-16 0)
(3 -1.11383e-16 0)
(3 3.28012e-17 0)
(3 -6.43176e-16 0)
(3 -1.11994e-15 0)
(3 -4.95464e-16 0)
(3 5.36366e-17 0)
(3 -4.79148e-16 0)
(3 -8.42034e-16 0)
(3 -7.4128e-16 0)
(3 -9.67208e-16 0)
(3 -5.17895e-16 0)
(3 -2.87459e-16 0)
(3 -9.1729e-16 0)
(3 -8.51433e-16 0)
(3 -3.25581e-16 0)
(3 -3.03779e-16 0)
(3 -1.12223e-16 0)
(3 -3.25338e-16 0)
(3 -2.39331e-16 0)
(3 -3.48291e-16 0)
(3 -3.20307e-16 0)
(3 9.20462e-16 0)
(3 9.63585e-16 0)
(3 9.29562e-16 0)
(3 1.09134e-15 0)
(3 1.06144e-15 0)
(3 9.57107e-16 0)
(3 7.97214e-16 0)
(3 1.85597e-16 0)
(3 4.43813e-16 0)
(3 8.24051e-16 0)
(3 9.19902e-16 0)
(3 9.08152e-16 0)
(3 2.99558e-16 0)
(3 6.31963e-16 0)
(3 8.6245e-16 0)
(3 1.1551e-15 0)
(3 1.06577e-15 0)
(3 1.01333e-15 0)
(3 9.21801e-16 0)
(3 1.09157e-16 0)
(3 -4.15414e-16 0)
(3 -1.9095e-16 0)
(3 -5.99861e-16 0)
(3 -9.24742e-16 0)
(3 -1.02503e-15 0)
(3 -6.16387e-16 0)
(3 -9.63908e-17 0)
(3 1.35042e-15 0)
(3 2.18931e-15 0)
(3 1.64835e-15 0)
(3 -9.69752e-16 0)
(3 -1.47904e-15 0)
(3 -1.04323e-15 0)
(3 4.66388e-16 0)
(3 1.72844e-15 0)
(3 1.63475e-15 0)
(3 1.74018e-15 0)
(3 1.64152e-15 0)
(3 1.15068e-15 0)
(3 2.47397e-16 0)
(3 -4.03842e-16 0)
(3 6.21527e-16 0)
(3 1.32438e-15 0)
(3 8.06303e-16 0)
(3 8.85666e-16 0)
(3 9.42785e-16 0)
(3 5.41085e-16 0)
(3 4.48946e-17 0)
(3 -1.04573e-16 0)
(3 -3.89139e-16 0)
(3 -6.88934e-16 0)
(3 -5.23432e-16 0)
(3 2.48196e-16 0)
(3 4.81327e-16 0)
(3 9.77789e-17 0)
(3 -6.52815e-16 0)
(3 -4.41497e-17 0)
(3 1.26947e-16 0)
(3 -3.67324e-17 0)
(3 4.34076e-16 0)
(3 9.34729e-16 0)
(3 4.674e-16 0)
(3 -6.94228e-16 0)
(3 -9.2834e-16 0)
(3 1.49956e-16 0)
(3 5.62909e-16 0)
(3 5.44356e-16 0)
(3 9.46723e-17 0)
(3 6.04392e-17 0)
(3 2.2258e-16 0)
(3 2.84793e-16 0)
(3 6.13288e-17 0)
(3 -8.50107e-17 0)
(3 -7.79294e-16 0)
(3 -1.04487e-15 0)
(3 -9.6619e-16 0)
(3 -9.06515e-16 0)
(3 -1.60898e-15 0)
(3 -1.77044e-15 0)
(3 -2.91452e-16 0)
(3 5.49399e-16 0)
(3 5.96456e-17 0)
(3 -6.2442e-16 0)
(3 -6.23672e-16 0)
(3 -1.0845e-15 0)
(3 -1.20675e-15 0)
(3 -1.5133e-15 0)
(3 -3.28799e-15 0)
(3 -4.03655e-15 0)
(3 -1.6545e-15 0)
(3 -1.12243e-15 0)
(3 -3.99134e-16 0)
(3 1.08122e-16 0)
(3 5.3091e-16 0)
(3 2.40895e-16 0)
(3 7.95851e-16 0)
(3 1.46789e-15 0)
(3 1.94219e-15 0)
(3 2.22739e-15 0)
(3 2.11843e-15 0)
(3 1.32036e-15 0)
(3 8.21057e-16 0)
(3 9.91006e-16 0)
(3 1.1834e-15 0)
(3 1.22596e-15 0)
(3 4.74806e-16 0)
(3 8.28306e-16 0)
(3 1.02829e-15 0)
(3 7.56297e-16 0)
(3 1.43727e-15 0)
(3 2.47936e-15 0)
(3 1.9836e-15 0)
(3 5.04839e-16 0)
(3 6.48735e-17 0)
(3 -6.32082e-16 0)
(3 -1.20259e-15 0)
(3 -1.21765e-15 0)
(3 -6.25762e-16 0)
(3 -6.31583e-16 0)
(3 -3.51955e-16 0)
(3 -6.5868e-16 0)
(3 -2.64238e-16 0)
(3 -4.85488e-16 0)
(3 1.45205e-15 0)
(3 2.36073e-15 0)
(3 1.78673e-15 0)
(3 -5.15811e-16 0)
(3 -1.36202e-15 0)
(3 -3.67809e-16 0)
(3 1.61694e-15 0)
(3 2.5409e-15 0)
(3 2.19e-15 0)
(3 2.7204e-15 0)
(3 1.45235e-15 0)
(3 5.5441e-16 0)
(3 5.47167e-18 0)
(3 -8.29911e-16 0)
(3 4.75591e-16 0)
(3 9.32854e-16 0)
(3 8.10147e-16 0)
(3 1.33666e-15 0)
(3 1.66387e-15 0)
(3 9.10075e-16 0)
(3 -4.72006e-16 0)
(3 -8.7321e-16 0)
(3 -9.78118e-16 0)
(3 -9.27897e-16 0)
(3 -3.07608e-16 0)
(3 8.50759e-16 0)
(3 1.9642e-15 0)
(3 1.91335e-15 0)
(3 4.04479e-16 0)
(3 -2.8561e-16 0)
(3 5.57734e-16 0)
(3 1.0253e-15 0)
(3 1.88788e-15 0)
(3 2.02343e-15 0)
(3 9.60759e-16 0)
(3 -1.13846e-15 0)
(3 -2.07999e-15 0)
(3 6.28335e-17 0)
(3 3.98986e-16 0)
(3 1.66065e-16 0)
(3 -4.54469e-16 0)
(3 1.47802e-16 0)
(3 1.82434e-16 0)
(3 -1.18096e-17 0)
(3 1.54158e-16 0)
(3 -5.1318e-16 0)
(3 -6.97642e-16 0)
(3 -6.73485e-16 0)
(3 -1.01821e-15 0)
(3 -1.27263e-15 0)
(3 -1.19948e-15 0)
(3 -3.69294e-16 0)
(3 6.42089e-16 0)
(3 1.08298e-15 0)
(3 5.35107e-16 0)
(3 -1.34918e-16 0)
(3 1.40872e-16 0)
(3 -1.90423e-16 0)
(3 -2.21033e-15 0)
(3 -3.53531e-15 0)
(3 -4.16751e-15 0)
(3 -5.13798e-15 0)
(3 -2.46794e-15 0)
(3 -6.5669e-16 0)
(3 3.66077e-16 0)
(3 6.30487e-16 0)
(3 2.66031e-16 0)
(3 -5.62634e-16 0)
(3 -6.85023e-16 0)
(3 -3.73204e-16 0)
(3 8.81783e-17 0)
(3 1.28763e-16 0)
(3 -2.03965e-16 0)
(3 -3.30974e-16 0)
(3 -3.55641e-16 0)
(3 1.21464e-15 0)
(3 2.85213e-15 0)
(3 2.30086e-15 0)
(3 2.31523e-15 0)
(3 1.92827e-15 0)
(3 1.81634e-15 0)
(3 1.92072e-15 0)
(3 2.58654e-15 0)
(3 3.08561e-15 0)
(3 1.79099e-15 0)
(3 8.6125e-16 0)
(3 5.59081e-16 0)
(3 1.13158e-15 0)
(3 1.70192e-15 0)
(3 1.14343e-15 0)
(3 4.32278e-16 0)
(3 9.64845e-17 0)
(3 3.0316e-16 0)
(3 2.46842e-16 0)
(3 -6.53078e-17 0)
(3 -5.41129e-16 0)
(3 6.51998e-16 0)
(3 2.77854e-15 0)
(3 2.92003e-15 0)
(3 2.86021e-15 0)
(3 3.95835e-15 0)
(3 4.20531e-15 0)
(3 4.23049e-15 0)
(3 3.74304e-15 0)
(3 3.2674e-15 0)
(3 2.28105e-15 0)
(3 7.26367e-16 0)
(3 -9.22035e-18 0)
(3 5.12945e-17 0)
(3 -4.05452e-16 0)
(3 -5.83729e-16 0)
(3 -7.67213e-16 0)
(3 7.89143e-16 0)
(3 1.83968e-15 0)
(3 1.79634e-15 0)
(3 2.23702e-16 0)
(3 -6.72381e-16 0)
(3 -1.17102e-15 0)
(3 -9.15544e-16 0)
(3 -1.66974e-16 0)
(3 7.16558e-16 0)
(3 1.33492e-15 0)
(3 6.4659e-16 0)
(3 1.84138e-16 0)
(3 -1.63303e-16 0)
(3 1.88797e-16 0)
(3 7.35322e-16 0)
(3 1.53627e-15 0)
(3 2.46982e-15 0)
(3 3.14978e-15 0)
(3 3.67422e-15 0)
(3 2.37614e-15 0)
(3 -3.24613e-16 0)
(3 -5.04363e-17 0)
(3 -5.04945e-16 0)
(3 -3.99905e-16 0)
(3 -3.02047e-16 0)
(3 -3.4896e-16 0)
(3 -7.07765e-16 0)
(3 -1.23593e-15 0)
(3 -9.34865e-16 0)
(3 -3.35114e-16 0)
(3 1.66801e-16 0)
(3 -2.30413e-16 0)
(3 -6.45068e-16 0)
(3 -8.54406e-16 0)
(3 -7.42475e-16 0)
(3 -3.03997e-16 0)
(3 -1.8498e-16 0)
(3 -4.21508e-16 0)
(3 -9.13618e-16 0)
(3 -1.05322e-15 0)
(3 -1.04685e-15 0)
(3 -1.19384e-15 0)
(3 -1.65823e-15 0)
(3 -2.17771e-15 0)
(3 -2.72232e-15 0)
(3 -3.51517e-15 0)
(3 -4.31207e-15 0)
(3 -2.58483e-15 0)
(3 -5.74046e-16 0)
(3 -3.9649e-16 0)
(3 -1.15428e-15 0)
(3 -1.21702e-15 0)
(3 -1.23743e-15 0)
(3 -1.19592e-15 0)
(3 -1.24247e-15 0)
(3 -1.48771e-15 0)
(3 -1.28535e-15 0)
(3 -4.25958e-16 0)
(3 1.28182e-15 0)
(3 2.32441e-15 0)
(3 1.91615e-15 0)
(3 1.92984e-15 0)
(3 1.98069e-15 0)
(3 1.41247e-15 0)
(3 3.34016e-16 0)
(3 2.11254e-17 0)
(3 6.04878e-16 0)
(3 1.51737e-15 0)
(3 2.54391e-15 0)
(3 3.09917e-15 0)
(3 2.65724e-15 0)
(3 1.76863e-15 0)
(3 2.86921e-15 0)
(3 2.50626e-15 0)
(3 2.31055e-15 0)
(3 1.41197e-15 0)
(3 8.01319e-16 0)
(3 6.20756e-16 0)
(3 5.87827e-16 0)
(3 8.86238e-16 0)
(3 1.83753e-15 0)
(3 3.12012e-15 0)
(3 3.266e-15 0)
(3 3.2813e-15 0)
(3 3.57601e-15 0)
(3 3.5983e-15 0)
(3 4.16626e-15 0)
(3 4.26954e-15 0)
(3 4.05268e-15 0)
(3 3.39544e-15 0)
(3 2.86107e-15 0)
(3 2.09793e-15 0)
(3 1.05595e-15 0)
(3 7.91743e-16 0)
(3 5.37391e-16 0)
(3 5.67734e-16 0)
(3 1.38246e-15 0)
(3 2.63056e-15 0)
(3 2.89365e-15 0)
(3 2.44707e-15 0)
(3 1.96713e-15 0)
(3 1.66138e-15 0)
(3 1.91727e-15 0)
(3 2.09333e-15 0)
(3 2.04442e-15 0)
(3 1.06021e-15 0)
(3 -1.04113e-15 0)
(3 -9.6273e-16 0)
(3 -3.25721e-16 0)
(3 9.04831e-16 0)
(3 1.68337e-15 0)
(3 2.12884e-15 0)
(3 2.3357e-15 0)
(3 2.90959e-15 0)
(3 3.43567e-15 0)
(3 4.09592e-15 0)
(3 9.37005e-16 0)
(3 7.402e-17 0)
(3 -2.78297e-16 0)
(3 -3.14542e-16 0)
(3 7.28936e-17 0)
(3 -1.19232e-16 0)
(3 -7.32723e-16 0)
(3 -2.02078e-15 0)
(3 -2.68839e-15 0)
(3 -1.43128e-15 0)
(3 -8.75652e-17 0)
(3 -6.03567e-16 0)
(3 -9.48371e-16 0)
(3 -1.54865e-15 0)
(3 -1.94052e-15 0)
(3 -1.51909e-15 0)
(3 -1.37108e-15 0)
(3 -1.83559e-15 0)
(3 -1.5306e-15 0)
(3 -1.80397e-15 0)
(3 -2.31084e-15 0)
(3 -2.09894e-15 0)
(3 -1.7307e-15 0)
(3 -1.79921e-15 0)
(3 -1.96234e-15 0)
(3 -1.30069e-15 0)
(3 -1.34244e-15 0)
(3 -1.014e-15 0)
(3 -9.96246e-16 0)
(3 -7.8521e-16 0)
(3 -1.28866e-15 0)
(3 -1.53352e-15 0)
(3 -1.51364e-15 0)
(3 -1.30782e-15 0)
(3 -4.26624e-16 0)
(3 -1.1468e-16 0)
(3 1.83792e-16 0)
(3 1.86395e-15 0)
(3 1.99725e-15 0)
(3 9.6242e-16 0)
(3 2.83708e-17 0)
(3 -7.07004e-18 0)
(3 8.41115e-16 0)
(3 -5.64132e-16 0)
(3 -1.69617e-15 0)
(3 -1.86737e-15 0)
(3 -4.79078e-16 0)
(3 2.26408e-15 0)
(3 3.68174e-15 0)
(3 3.36556e-15 0)
(3 1.7172e-15 0)
(3 9.38354e-16 0)
(3 1.05709e-15 0)
(3 2.01045e-15 0)
(3 2.26722e-15 0)
(3 1.33979e-15 0)
(3 1.24501e-15 0)
(3 1.56377e-15 0)
(3 2.3732e-15 0)
(3 3.10906e-15 0)
(3 3.63883e-15 0)
(3 3.06643e-15 0)
(3 2.04947e-15 0)
(3 1.44906e-15 0)
(3 9.14322e-16 0)
(3 7.48564e-16 0)
(3 8.92858e-16 0)
(3 1.24141e-15 0)
(3 1.06711e-15 0)
(3 1.02856e-15 0)
(3 1.03385e-15 0)
(3 6.45794e-16 0)
(3 3.53521e-16 0)
(3 7.39912e-16 0)
(3 1.48067e-15 0)
(3 2.39653e-15 0)
(3 2.06795e-15 0)
(3 2.05213e-15 0)
(3 2.47492e-15 0)
(3 2.35808e-15 0)
(3 2.14569e-15 0)
(3 2.00299e-15 0)
(3 2.44662e-15 0)
(3 2.90278e-15 0)
(3 2.07859e-15 0)
(3 9.64287e-16 0)
(3 1.32783e-15 0)
(3 1.49085e-15 0)
(3 1.33957e-15 0)
(3 5.76721e-16 0)
(3 1.09142e-15 0)
(3 1.72964e-15 0)
(3 1.86997e-15 0)
(3 2.53865e-15 0)
(3 2.7504e-15 0)
(3 3.46989e-15 0)
(3 2.54892e-15 0)
(3 -1.9279e-16 0)
(3 5.40316e-16 0)
(3 6.28436e-16 0)
(3 7.64742e-16 0)
(3 3.73798e-16 0)
(3 -3.09688e-16 0)
(3 -9.09712e-16 0)
(3 -1.17334e-15 0)
(3 -8.46811e-16 0)
(3 -7.56734e-16 0)
(3 1.20881e-16 0)
(3 -1.70825e-16 0)
(3 -1.07486e-15 0)
(3 -1.57252e-15 0)
(3 -1.57993e-15 0)
(3 -1.96996e-15 0)
(3 -1.92052e-15 0)
(3 -1.71316e-15 0)
(3 -1.80093e-15 0)
(3 -1.95558e-15 0)
(3 -1.71819e-15 0)
(3 -1.63767e-15 0)
(3 -1.73279e-15 0)
(3 -3.70405e-16 0)
(3 1.77355e-15 0)
(3 2.25696e-15 0)
(3 1.49006e-15 0)
(3 8.31963e-16 0)
(3 4.55834e-16 0)
(3 -2.46982e-16 0)
(3 -9.22221e-16 0)
(3 -1.4706e-15 0)
(3 -1.47839e-15 0)
(3 -1.2425e-15 0)
(3 -5.53334e-16 0)
(3 2.37481e-15 0)
(3 2.31773e-15 0)
(3 1.86338e-15 0)
(3 8.06839e-16 0)
(3 -2.55526e-16 0)
(3 -5.35553e-16 0)
(3 1.32241e-16 0)
(3 4.14031e-16 0)
(3 -4.89165e-17 0)
(3 -4.60041e-16 0)
(3 1.03127e-15 0)
(3 2.49347e-15 0)
(3 2.44466e-15 0)
(3 2.23057e-15 0)
(3 1.62054e-15 0)
(3 1.29565e-15 0)
(3 1.1907e-15 0)
(3 1.66571e-15 0)
(3 1.52649e-15 0)
(3 9.46835e-16 0)
(3 3.62435e-16 0)
(3 4.09532e-16 0)
(3 2.18152e-15 0)
(3 3.39211e-15 0)
(3 2.58643e-15 0)
(3 1.44963e-15 0)
(3 1.65151e-15 0)
(3 1.04305e-15 0)
(3 -2.67682e-17 0)
(3 -7.37916e-16 0)
(3 -1.83087e-15 0)
(3 -1.57644e-15 0)
(3 -3.51e-16 0)
(3 2.82159e-16 0)
(3 5.99817e-16 0)
(3 1.48236e-15 0)
(3 1.44266e-15 0)
(3 1.20546e-15 0)
(3 2.79661e-15 0)
(3 3.91836e-15 0)
(3 3.68675e-15 0)
(3 3.44618e-15 0)
(3 3.52629e-15 0)
(3 4.02475e-15 0)
(3 1.83242e-15 0)
(3 7.93732e-16 0)
(3 6.83723e-16 0)
(3 2.32734e-16 0)
(3 2.77889e-16 0)
(3 1.19396e-15 0)
(3 1.36703e-15 0)
(3 7.75461e-16 0)
(3 2.83001e-16 0)
(3 -4.38628e-16 0)
(3 1.23283e-16 0)
(3 5.79443e-16 0)
(3 8.75817e-16 0)
(3 1.4839e-15 0)
(3 2.40045e-15 0)
(3 2.13797e-15 0)
(3 2.30032e-15 0)
(3 9.86888e-17 0)
(3 4.18315e-16 0)
(3 6.80204e-16 0)
(3 5.6552e-16 0)
(3 -1.00037e-16 0)
(3 -1.07538e-16 0)
(3 2.49499e-16 0)
(3 4.87462e-16 0)
(3 8.85537e-16 0)
(3 9.46592e-16 0)
(3 1.03056e-15 0)
(3 8.78499e-16 0)
(3 5.02228e-16 0)
(3 -3.73214e-16 0)
(3 -5.66112e-16 0)
(3 -1.22964e-15 0)
(3 -1.43027e-15 0)
(3 -1.53755e-15 0)
(3 -1.84682e-15 0)
(3 -1.84942e-15 0)
(3 -1.30307e-15 0)
(3 -8.34298e-16 0)
(3 3.43156e-16 0)
(3 1.24608e-16 0)
(3 -4.71149e-16 0)
(3 -4.74341e-16 0)
(3 5.04643e-17 0)
(3 8.09584e-16 0)
(3 4.55947e-16 0)
(3 -1.75427e-16 0)
(3 -3.79719e-16 0)
(3 -1.00391e-16 0)
(3 -7.85593e-17 0)
(3 4.00237e-16 0)
(3 1.08719e-15 0)
(3 6.89358e-16 0)
(3 4.30477e-16 0)
(3 1.11199e-16 0)
(3 -6.47297e-17 0)
(3 -2.50644e-16 0)
(3 -6.17757e-16 0)
(3 -1.97158e-15 0)
(3 -1.70744e-15 0)
(3 -7.70491e-16 0)
(3 -6.16968e-16 0)
(3 -5.80347e-16 0)
(3 -6.89334e-16 0)
(3 -2.23026e-16 0)
(3 3.59782e-16 0)
(3 1.21482e-15 0)
(3 1.39909e-15 0)
(3 1.27668e-15 0)
(3 5.44857e-16 0)
(3 7.6764e-16 0)
(3 3.70934e-16 0)
(3 -4.91363e-16 0)
(3 -4.00279e-16 0)
(3 3.36106e-16 0)
(3 7.60692e-16 0)
(3 5.87066e-16 0)
(3 7.27302e-17 0)
(3 -2.37649e-16 0)
(3 -3.60961e-16 0)
(3 -8.59251e-16 0)
(3 -9.53768e-16 0)
(3 -1.10367e-15 0)
(3 -2.11481e-16 0)
(3 4.11581e-16 0)
(3 1.28386e-15 0)
(3 2.45335e-15 0)
(3 2.69839e-15 0)
(3 3.57866e-15 0)
(3 4.17621e-15 0)
(3 4.20973e-15 0)
(3 3.76497e-15 0)
(3 3.53598e-15 0)
(3 3.45505e-15 0)
(3 2.69005e-15 0)
(3 1.78395e-15 0)
(3 9.90964e-16 0)
(3 1.41914e-16 0)
(3 -1.11137e-15 0)
(3 -1.92674e-15 0)
(3 -2.07975e-15 0)
(3 -3.26821e-16 0)
(3 -1.08162e-16 0)
(3 -6.15688e-16 0)
(3 -8.04328e-16 0)
(3 -1.09712e-15 0)
(3 -1.07303e-15 0)
(3 -9.12377e-16 0)
(3 4.70244e-16 0)
(3 1.3317e-15 0)
(3 1.36293e-15 0)
(3 8.4808e-16 0)
(3 1.91318e-16 0)
(3 1.49519e-16 0)
(3 -9.12778e-17 0)
(3 -1.82014e-16 0)
(3 -2.21497e-16 0)
(3 -7.1769e-17 0)
(3 7.8577e-16 0)
(3 1.91087e-15 0)
(3 2.47965e-15 0)
(3 1.97268e-15 0)
(3 1.69418e-15 0)
(3 9.08824e-16 0)
(3 8.03062e-16 0)
(3 1.29438e-15 0)
(3 1.12868e-15 0)
(3 7.05761e-16 0)
(3 -4.66311e-16 0)
(3 -1.27316e-15 0)
(3 -1.5581e-15 0)
(3 -1.87618e-15 0)
(3 -1.57019e-15 0)
(3 -1.59566e-15 0)
(3 -7.3048e-16 0)
(3 -4.08057e-16 0)
(3 -1.38949e-15 0)
(3 -1.13432e-15 0)
(3 -5.15716e-16 0)
(3 -4.73513e-16 0)
(3 -4.96005e-16 0)
(3 2.57604e-16 0)
(3 5.53227e-16 0)
(3 3.61713e-16 0)
(3 2.21208e-16 0)
(3 9.66753e-16 0)
(3 1.645e-15 0)
(3 1.19752e-15 0)
(3 -8.29839e-16 0)
(3 -1.95097e-15 0)
(3 -1.96129e-15 0)
(3 -1.0254e-15 0)
(3 -4.90913e-16 0)
(3 -1.303e-15 0)
(3 -3.38775e-15 0)
(3 -3.23791e-15 0)
(3 -1.865e-15 0)
(3 -4.57961e-16 0)
(3 -5.08408e-16 0)
(3 -1.44349e-15 0)
(3 -2.15497e-15 0)
(3 -2.19067e-15 0)
(3 -8.22337e-16 0)
(3 -5.51714e-16 0)
(3 -6.57646e-16 0)
(3 1.17178e-15 0)
(3 1.45743e-15 0)
(3 5.78215e-16 0)
(3 6.28492e-16 0)
(3 -1.49658e-16 0)
(3 -8.03225e-16 0)
(3 -1.62616e-15 0)
(3 -1.46698e-15 0)
(3 -1.30874e-15 0)
(3 -1.72447e-15 0)
(3 -2.42178e-15 0)
(3 -2.65246e-15 0)
(3 -1.20158e-15 0)
(3 7.34751e-16 0)
(3 1.27375e-15 0)
(3 1.00919e-15 0)
(3 1.10188e-15 0)
(3 3.17706e-15 0)
(3 3.24584e-15 0)
(3 3.60192e-15 0)
(3 3.5937e-15 0)
(3 3.14154e-15 0)
(3 2.58632e-15 0)
(3 2.84741e-15 0)
(3 2.56585e-15 0)
(3 2.22628e-15 0)
(3 1.37225e-15 0)
(3 1.33201e-15 0)
(3 9.40561e-16 0)
(3 1.31265e-16 0)
(3 -7.25876e-16 0)
(3 -1.23284e-15 0)
(3 -1.81457e-15 0)
(3 -1.51706e-15 0)
(3 -1.27433e-15 0)
(3 -1.75014e-15 0)
(3 -1.57475e-15 0)
(3 -1.52987e-15 0)
(3 -7.97249e-16 0)
(3 6.14385e-16 0)
(3 1.31476e-15 0)
(3 1.6901e-15 0)
(3 8.63272e-16 0)
(3 1.29045e-16 0)
(3 -3.01809e-17 0)
(3 -7.45662e-16 0)
(3 -1.07837e-15 0)
(3 -1.28089e-15 0)
(3 -8.29235e-16 0)
(3 1.5842e-16 0)
(3 1.84535e-15 0)
(3 2.45274e-15 0)
(3 1.842e-15 0)
(3 1.0654e-15 0)
(3 8.36451e-16 0)
(3 1.56465e-15 0)
(3 1.81365e-15 0)
(3 1.98413e-15 0)
(3 1.06183e-15 0)
(3 1.71734e-16 0)
(3 5.13565e-16 0)
(3 8.64766e-16 0)
(3 -3.97957e-16 0)
(3 -7.34827e-16 0)
(3 -9.15092e-16 0)
(3 -1.28279e-15 0)
(3 -1.83711e-15 0)
(3 -1.11171e-15 0)
(3 -1.55357e-17 0)
(3 -2.37558e-16 0)
(3 -1.59362e-15 0)
(3 -2.75179e-15 0)
(3 -2.14567e-15 0)
(3 8.05316e-16 0)
(3 1.86824e-15 0)
(3 1.87832e-15 0)
(3 1.82594e-15 0)
(3 1.91583e-15 0)
(3 1.14983e-15 0)
(3 1.63155e-16 0)
(3 -9.22093e-16 0)
(3 -8.09752e-16 0)
(3 -1.25577e-15 0)
(3 -1.73128e-15 0)
(3 -2.69514e-15 0)
(3 -2.81171e-15 0)
(3 -1.31624e-15 0)
(3 -6.1592e-16 0)
(3 6.99811e-17 0)
(3 2.32829e-16 0)
(3 -1.06035e-16 0)
(3 -1.05173e-15 0)
(3 -1.26502e-15 0)
(3 -1.24587e-15 0)
(3 -6.17604e-16 0)
(3 -2.7668e-16 0)
(3 4.18151e-16 0)
(3 2.998e-16 0)
(3 1.33711e-16 0)
(3 4.50203e-16 0)
(3 5.50579e-16 0)
(3 -9.16913e-16 0)
(3 -1.82026e-15 0)
(3 -3.11907e-15 0)
(3 -2.42797e-15 0)
(3 -2.31716e-15 0)
(3 -1.43148e-15 0)
(3 -7.3006e-16 0)
(3 3.43589e-16 0)
(3 1.42931e-15 0)
(3 1.69477e-15 0)
(3 1.35912e-15 0)
(3 1.04515e-15 0)
(3 2.12158e-15 0)
(3 3.42407e-15 0)
(3 4.09723e-15 0)
(3 3.59716e-15 0)
(3 3.0828e-15 0)
(3 2.91093e-15 0)
(3 3.55971e-15 0)
(3 3.74568e-15 0)
(3 3.56748e-15 0)
(3 2.90369e-15 0)
(3 2.32345e-15 0)
(3 1.22788e-15 0)
(3 5.88279e-16 0)
(3 5.78917e-16 0)
(3 4.38274e-16 0)
(3 6.05822e-16 0)
(3 -1.56839e-16 0)
(3 -4.56795e-16 0)
(3 -6.94319e-16 0)
(3 -1.05864e-15 0)
(3 2.42997e-16 0)
(3 1.15393e-15 0)
(3 1.36456e-15 0)
(3 1.26195e-15 0)
(3 1.13742e-15 0)
(3 4.95395e-16 0)
(3 4.54444e-16 0)
(3 -7.16837e-17 0)
(3 1.01018e-16 0)
(3 -2.06327e-16 0)
(3 -3.93273e-16 0)
(3 -3.48434e-16 0)
(3 -3.4801e-16 0)
(3 -1.69403e-16 0)
(3 -4.206e-17 0)
(3 2.49587e-16 0)
(3 7.2929e-16 0)
(3 1.49104e-15 0)
(3 2.09064e-15 0)
(3 2.34986e-15 0)
(3 2.22636e-15 0)
(3 1.87975e-15 0)
(3 2.18679e-15 0)
(3 1.86171e-15 0)
(3 1.60953e-15 0)
(3 8.10767e-16 0)
(3 4.33388e-16 0)
(3 -3.80774e-16 0)
(3 -7.59345e-16 0)
(3 -4.10225e-16 0)
(3 6.97781e-17 0)
(3 -5.18753e-16 0)
(3 -1.45104e-15 0)
(3 -1.55774e-15 0)
(3 -1.8901e-15 0)
(3 -1.77996e-15 0)
(3 -1.45992e-15 0)
(3 -2.7327e-16 0)
(3 2.94388e-16 0)
(3 3.49997e-16 0)
(3 -3.86937e-16 0)
(3 -1.10504e-15 0)
(3 -1.36469e-15 0)
(3 -1.39413e-15 0)
(3 -1.33282e-15 0)
(3 -1.12042e-15 0)
(3 -1.49589e-15 0)
(3 -1.60638e-15 0)
(3 -1.34363e-15 0)
(3 -7.67995e-16 0)
(3 -6.18831e-16 0)
(3 -4.32872e-16 0)
(3 1.85733e-16 0)
(3 9.68102e-16 0)
(3 8.90614e-16 0)
(3 6.30034e-16 0)
(3 -5.88369e-17 0)
(3 -3.28978e-16 0)
(3 -1.63545e-16 0)
(3 -4.65693e-16 0)
(3 -8.46712e-16 0)
(3 -5.7176e-16 0)
(3 -4.45006e-16 0)
(3 -2.31963e-17 0)
(3 -4.43575e-17 0)
(3 -8.10187e-16 0)
(3 -1.39702e-15 0)
(3 -1.26702e-15 0)
(3 -9.08468e-16 0)
(3 1.83242e-16 0)
(3 9.4213e-16 0)
(3 1.16191e-15 0)
(3 1.00215e-15 0)
(3 9.33186e-16 0)
(3 1.12116e-15 0)
(3 9.72485e-16 0)
(3 1.90834e-15 0)
(3 2.28998e-15 0)
(3 2.15833e-15 0)
(3 1.77972e-15 0)
(3 1.33683e-15 0)
(3 1.1146e-15 0)
(3 1.651e-15 0)
(3 2.66185e-15 0)
(3 2.69493e-15 0)
(3 2.50702e-15 0)
(3 2.54364e-15 0)
(3 2.26656e-15 0)
(3 1.79098e-15 0)
(3 7.93854e-16 0)
(3 1.12017e-17 0)
(3 1.40441e-16 0)
(3 -1.36243e-16 0)
(3 -9.67605e-16 0)
(3 -1.42802e-15 0)
(3 7.61356e-16 0)
(3 2.42299e-15 0)
(3 2.26709e-15 0)
(3 1.47816e-15 0)
(3 2.43622e-16 0)
(3 -7.09077e-16 0)
(3 -6.21288e-16 0)
(3 -1.86464e-15 0)
(3 2.02219e-16 0)
(3 5.19397e-16 0)
(3 5.50778e-16 0)
(3 5.98208e-16 0)
(3 4.37974e-16 0)
(3 3.5632e-16 0)
(3 -4.63517e-16 0)
(3 -8.12327e-16 0)
(3 -7.2947e-16 0)
(3 -4.27495e-16 0)
(3 2.13916e-16 0)
(3 5.91363e-16 0)
(3 6.64172e-16 0)
(3 1.47591e-15 0)
(3 1.74512e-15 0)
(3 1.68385e-15 0)
(3 1.57718e-15 0)
(3 1.80157e-15 0)
(3 2.09399e-15 0)
(3 1.55923e-15 0)
(3 3.6681e-16 0)
(3 4.78195e-17 0)
(3 4.15178e-16 0)
(3 3.89742e-16 0)
(3 5.31618e-16 0)
(3 7.88712e-16 0)
(3 6.85343e-16 0)
(3 -9.55537e-17 0)
(3 -1.24205e-15 0)
(3 -2.05875e-15 0)
(3 -2.0944e-15 0)
(3 -1.80303e-15 0)
(3 -1.45066e-15 0)
(3 -1.00325e-15 0)
(3 -3.5671e-16 0)
(3 -2.86161e-16 0)
(3 5.37174e-16 0)
(3 9.97718e-16 0)
(3 8.34346e-16 0)
(3 5.24171e-16 0)
(3 2.34434e-16 0)
(3 -3.65972e-16 0)
(3 -9.01658e-16 0)
(3 -6.98785e-16 0)
(3 -2.09899e-16 0)
(3 -2.34727e-16 0)
(3 9.46706e-16 0)
(3 1.13646e-15 0)
(3 4.74519e-16 0)
(3 -3.37839e-16 0)
(3 -6.81326e-16 0)
(3 -1.58922e-15 0)
(3 -1.95907e-15 0)
(3 -1.35068e-15 0)
(3 -2.58856e-16 0)
(3 -3.09655e-16 0)
(3 -1.0331e-16 0)
(3 -3.26284e-16 0)
(3 -3.35019e-16 0)
(3 -6.74847e-16 0)
(3 -9.76197e-16 0)
(3 -5.96729e-16 0)
(3 6.05157e-16 0)
(3 1.36957e-15 0)
(3 1.98267e-15 0)
(3 2.4827e-15 0)
(3 2.39347e-15 0)
(3 2.64256e-15 0)
(3 2.85116e-15 0)
(3 1.82605e-15 0)
(3 2.04601e-16 0)
(3 -4.85867e-16 0)
(3 1.63102e-16 0)
(3 7.05156e-16 0)
(3 2.41604e-16 0)
(3 2.30634e-16 0)
(3 7.8671e-16 0)
(3 1.31362e-15 0)
(3 1.10747e-15 0)
(3 8.59393e-16 0)
(3 8.81057e-16 0)
(3 7.07089e-16 0)
(3 4.95829e-16 0)
(3 1.68194e-16 0)
(3 3.18153e-16 0)
(3 -7.62337e-17 0)
(3 -2.3999e-16 0)
(3 -3.35096e-16 0)
(3 2.5514e-15 0)
(3 4.19089e-15 0)
(3 3.98316e-15 0)
(3 2.32337e-15 0)
(3 8.84948e-16 0)
(3 -6.31359e-16 0)
(3 -1.55053e-15 0)
(3 -2.20765e-15 0)
(3 -1.17851e-16 0)
(3 -4.41869e-16 0)
(3 1.74159e-16 0)
(3 5.36307e-16 0)
(3 4.99822e-16 0)
(3 6.04775e-16 0)
(3 3.05038e-16 0)
(3 -1.58899e-17 0)
(3 -7.97715e-16 0)
(3 -8.33516e-16 0)
(3 -6.98135e-16 0)
(3 -4.2898e-16 0)
(3 -7.26193e-16 0)
(3 6.02186e-16 0)
(3 1.73773e-15 0)
(3 2.17428e-15 0)
(3 2.79404e-15 0)
(3 2.69851e-15 0)
(3 2.17244e-15 0)
(3 1.4481e-15 0)
(3 1.7603e-15 0)
(3 2.36325e-15 0)
(3 3.13085e-15 0)
(3 2.82231e-15 0)
(3 2.56457e-15 0)
(3 2.59431e-15 0)
(3 1.61474e-15 0)
(3 9.81224e-16 0)
(3 -2.70436e-16 0)
(3 -1.4492e-15 0)
(3 -2.41647e-15 0)
(3 -1.96069e-15 0)
(3 -7.00595e-16 0)
(3 1.53256e-16 0)
(3 1.53073e-15 0)
(3 2.26735e-15 0)
(3 2.34139e-15 0)
(3 1.9225e-15 0)
(3 1.3972e-15 0)
(3 1.04223e-15 0)
(3 9.05353e-16 0)
(3 8.09822e-16 0)
(3 8.01205e-16 0)
(3 9.62918e-16 0)
(3 7.81418e-16 0)
(3 -3.62639e-16 0)
(3 -8.33071e-16 0)
(3 -6.75431e-16 0)
(3 -9.89617e-16 0)
(3 -9.57843e-16 0)
(3 -4.70233e-16 0)
(3 -1.43521e-17 0)
(3 -5.52051e-16 0)
(3 -4.35932e-16 0)
(3 1.20846e-16 0)
(3 6.00656e-16 0)
(3 6.00904e-16 0)
(3 -5.77742e-16 0)
(3 -7.12345e-16 0)
(3 -8.11423e-16 0)
(3 -5.40303e-16 0)
(3 -2.676e-16 0)
(3 5.08045e-16 0)
(3 1.63773e-15 0)
(3 2.23156e-15 0)
(3 2.62951e-15 0)
(3 2.93473e-15 0)
(3 2.75639e-15 0)
(3 2.76082e-15 0)
(3 2.38609e-15 0)
(3 1.18894e-15 0)
(3 1.45112e-15 0)
(3 2.36348e-15 0)
(3 3.05966e-15 0)
(3 2.52165e-15 0)
(3 2.23909e-15 0)
(3 2.036e-15 0)
(3 2.30184e-15 0)
(3 2.09011e-15 0)
(3 1.81211e-15 0)
(3 1.08956e-15 0)
(3 3.31577e-16 0)
(3 1.31647e-16 0)
(3 -2.68248e-16 0)
(3 -2.06439e-16 0)
(3 7.28946e-16 0)
(3 2.29307e-15 0)
(3 3.15669e-15 0)
(3 2.64314e-15 0)
(3 2.19757e-15 0)
(3 1.33071e-15 0)
(3 5.98583e-16 0)
(3 4.83985e-16 0)
(3 -1.0553e-15 0)
(3 -1.56339e-15 0)
(3 -9.10541e-16 0)
(3 -9.71372e-17 0)
(3 -2.24158e-16 0)
(3 1.8814e-16 0)
(3 3.714e-16 0)
(3 4.85266e-16 0)
(3 1.10031e-16 0)
(3 1.21886e-16 0)
(3 6.09766e-16 0)
(3 -5.2949e-17 0)
(3 -5.48568e-16 0)
(3 -4.88274e-16 0)
(3 -3.48899e-16 0)
(3 2.92213e-16 0)
(3 8.29122e-16 0)
(3 1.10908e-15 0)
(3 1.26939e-15 0)
(3 9.87627e-16 0)
(3 6.14386e-16 0)
(3 1.08336e-15 0)
(3 1.54752e-15 0)
(3 1.67588e-15 0)
(3 2.21304e-15 0)
(3 2.3371e-15 0)
(3 2.44237e-15 0)
(3 2.41383e-15 0)
(3 2.25382e-15 0)
(3 1.96764e-15 0)
(3 1.18845e-15 0)
(3 -2.79096e-16 0)
(3 -1.06659e-15 0)
(3 -1.1653e-15 0)
(3 -6.47108e-16 0)
(3 -3.51891e-16 0)
(3 -1.35549e-16 0)
(3 1.36879e-15 0)
(3 1.51626e-15 0)
(3 1.29861e-15 0)
(3 1.34171e-15 0)
(3 1.56796e-15 0)
(3 3.43568e-16 0)
(3 -3.85739e-17 0)
(3 -7.70566e-17 0)
(3 1.93678e-16 0)
(3 -1.67668e-16 0)
(3 -5.72671e-16 0)
(3 -1.34221e-15 0)
(3 -2.2957e-15 0)
(3 -1.49509e-15 0)
(3 3.26483e-16 0)
(3 4.76033e-16 0)
(3 1.2763e-16 0)
(3 1.68741e-16 0)
(3 1.02601e-15 0)
(3 1.38421e-15 0)
(3 1.46136e-15 0)
(3 1.69609e-15 0)
(3 1.36657e-15 0)
(3 -1.51666e-16 0)
(3 -9.19395e-16 0)
(3 -8.23224e-16 0)
(3 -3.24837e-16 0)
(3 -6.2746e-16 0)
(3 -1.26028e-15 0)
(3 -2.81226e-16 0)
(3 8.91228e-16 0)
(3 2.04225e-15 0)
(3 3.05862e-15 0)
(3 2.62113e-15 0)
(3 1.63579e-15 0)
(3 1.06182e-15 0)
(3 1.07208e-15 0)
(3 1.20717e-15 0)
(3 7.17874e-16 0)
(3 3.42073e-16 0)
(3 1.03311e-15 0)
(3 1.91347e-15 0)
(3 1.96053e-15 0)
(3 1.4952e-15 0)
(3 1.52029e-15 0)
(3 1.54356e-15 0)
(3 1.73614e-15 0)
(3 4.35887e-16 0)
(3 -3.38447e-17 0)
(3 9.29796e-17 0)
(3 5.41207e-16 0)
(3 1.53047e-15 0)
(3 1.66821e-15 0)
(3 1.89737e-15 0)
(3 9.76647e-16 0)
(3 -5.80087e-16 0)
(3 -8.20515e-16 0)
(3 -4.7449e-16 0)
(3 -2.74517e-16 0)
(3 -1.06938e-15 0)
(3 -6.30638e-16 0)
(3 7.28346e-16 0)
(3 1.05392e-16 0)
(3 4.35798e-16 0)
(3 6.06115e-17 0)
(3 -2.84209e-16 0)
(3 -5.49981e-16 0)
(3 -1.32639e-15 0)
(3 -1.08002e-15 0)
(3 -7.07032e-16 0)
(3 -4.55131e-16 0)
(3 -9.49597e-16 0)
(3 -9.41024e-16 0)
(3 -3.62406e-16 0)
(3 5.58034e-16 0)
(3 1.12302e-15 0)
(3 6.57291e-16 0)
(3 3.57753e-16 0)
(3 3.11613e-17 0)
(3 1.51579e-16 0)
(3 7.59107e-16 0)
(3 8.70769e-16 0)
(3 1.05068e-15 0)
(3 1.20825e-15 0)
(3 8.05237e-16 0)
(3 4.63845e-16 0)
(3 4.09356e-16 0)
(3 6.31218e-16 0)
(3 7.57283e-16 0)
(3 3.73507e-16 0)
(3 3.03092e-16 0)
(3 5.92043e-16 0)
(3 1.15027e-15 0)
(3 8.97102e-16 0)
(3 2.88321e-16 0)
(3 1.30111e-16 0)
(3 9.27577e-16 0)
(3 1.72962e-15 0)
(3 1.65812e-15 0)
(3 1.2757e-15 0)
(3 5.87792e-16 0)
(3 1.40699e-16 0)
(3 -1.04303e-16 0)
(3 -2.18959e-16 0)
(3 -3.51649e-16 0)
(3 -7.16264e-16 0)
(3 -1.30583e-15 0)
(3 -1.07616e-15 0)
(3 -1.2178e-15 0)
(3 -3.30813e-16 0)
(3 5.43249e-16 0)
(3 5.04905e-16 0)
(3 8.39191e-16 0)
(3 4.53141e-16 0)
(3 1.56608e-15 0)
(3 2.80649e-15 0)
(3 2.18785e-15 0)
(3 1.27186e-15 0)
(3 9.10591e-16 0)
(3 3.70662e-16 0)
(3 -1.32352e-16 0)
(3 -1.62261e-16 0)
(3 -2.85866e-16 0)
(3 -6.03771e-16 0)
(3 -7.9227e-16 0)
(3 -1.04449e-15 0)
(3 -7.12591e-16 0)
(3 1.08752e-15 0)
(3 2.4339e-15 0)
(3 2.52109e-15 0)
(3 2.01243e-15 0)
(3 9.75191e-16 0)
(3 4.667e-16 0)
(3 4.14956e-16 0)
(3 5.22305e-16 0)
(3 5.60474e-16 0)
(3 1.68635e-15 0)
(3 2.31889e-15 0)
(3 2.15172e-15 0)
(3 1.74165e-15 0)
(3 1.32988e-15 0)
(3 6.56278e-16 0)
(3 5.61408e-16 0)
(3 7.53263e-16 0)
(3 6.39012e-16 0)
(3 1.38791e-15 0)
(3 1.61085e-15 0)
(3 7.16752e-16 0)
(3 3.59337e-16 0)
(3 -2.57838e-17 0)
(3 -1.19841e-16 0)
(3 -1.98245e-16 0)
(3 -4.03503e-16 0)
(3 1.83186e-16 0)
(3 6.76635e-16 0)
(3 3.76819e-16 0)
(3 -1.8867e-16 0)
(3 6.23243e-16 0)
(3 -7.74122e-18 0)
(3 2.57954e-16 0)
(3 2.16255e-16 0)
(3 1.13711e-16 0)
(3 -5.82413e-16 0)
(3 -6.73882e-16 0)
(3 -6.78206e-16 0)
(3 -1.64578e-15 0)
(3 -7.3565e-16 0)
(3 -4.51471e-16 0)
(3 -8.32261e-16 0)
(3 -1.04522e-15 0)
(3 -2.26548e-15 0)
(3 -1.49612e-15 0)
(3 -6.75869e-16 0)
(3 5.09989e-16 0)
(3 7.52656e-16 0)
(3 7.52253e-16 0)
(3 4.53817e-17 0)
(3 -2.15958e-16 0)
(3 5.47907e-16 0)
(3 6.65956e-16 0)
(3 7.25872e-16 0)
(3 5.97819e-16 0)
(3 -2.61692e-16 0)
(3 -7.30204e-16 0)
(3 -8.1508e-16 0)
(3 -7.01506e-16 0)
(3 -6.96801e-17 0)
(3 5.77182e-16 0)
(3 3.61506e-16 0)
(3 -9.00499e-16 0)
(3 -7.89994e-16 0)
(3 -6.60885e-16 0)
(3 -1.94002e-16 0)
(3 7.89162e-16 0)
(3 1.41587e-15 0)
(3 1.10876e-15 0)
(3 -1.32988e-15 0)
(3 -2.02463e-15 0)
(3 -1.95918e-15 0)
(3 -1.82826e-15 0)
(3 -1.83139e-15 0)
(3 -1.3812e-15 0)
(3 -1.12199e-15 0)
(3 -2.96384e-16 0)
(3 -6.51549e-17 0)
(3 3.15211e-16 0)
(3 1.88171e-17 0)
(3 6.9799e-16 0)
(3 1.15851e-15 0)
(3 2.07888e-15 0)
(3 2.371e-15 0)
(3 2.66919e-15 0)
(3 2.30229e-15 0)
(3 1.5518e-15 0)
(3 1.49231e-15 0)
(3 1.72105e-15 0)
(3 1.53639e-15 0)
(3 4.34292e-16 0)
(3 -4.31342e-16 0)
(3 -7.3736e-16 0)
(3 -5.36035e-16 0)
(3 -6.35231e-16 0)
(3 -2.74825e-16 0)
(3 5.19641e-16 0)
(3 7.31888e-16 0)
(3 2.09547e-15 0)
(3 2.56119e-15 0)
(3 1.71222e-15 0)
(3 8.09989e-16 0)
(3 1.39004e-16 0)
(3 4.03922e-16 0)
(3 1.03779e-15 0)
(3 1.72338e-15 0)
(3 2.00144e-15 0)
(3 2.16499e-15 0)
(3 2.62226e-15 0)
(3 2.82189e-15 0)
(3 1.83109e-15 0)
(3 1.61601e-15 0)
(3 2.58859e-15 0)
(3 2.94973e-15 0)
(3 2.44497e-15 0)
(3 3.26993e-15 0)
(3 4.09011e-15 0)
(3 4.13414e-15 0)
(3 3.68182e-15 0)
(3 3.00537e-15 0)
(3 2.47031e-15 0)
(3 1.63911e-15 0)
(3 1.64399e-15 0)
(3 1.92052e-15 0)
(3 1.24396e-15 0)
(3 9.1864e-16 0)
(3 1.0536e-15 0)
(3 -1.98113e-17 0)
(3 9.73457e-17 0)
(3 7.83886e-17 0)
(3 2.82987e-16 0)
(3 3.85375e-16 0)
(3 3.13165e-16 0)
(3 -1.97719e-16 0)
(3 5.20623e-16 0)
(3 1.04444e-15 0)
(3 1.17213e-15 0)
(3 -1.10901e-15 0)
(3 -2.49477e-15 0)
(3 -2.5895e-15 0)
(3 -3.2677e-15 0)
(3 -2.78801e-15 0)
(3 -1.29479e-15 0)
(3 -6.48261e-16 0)
(3 -2.86492e-16 0)
(3 -5.35583e-17 0)
(3 2.57411e-16 0)
(3 2.20931e-16 0)
(3 -3.51042e-16 0)
(3 -2.29257e-16 0)
(3 -4.6846e-16 0)
(3 -7.17122e-16 0)
(3 -9.51107e-16 0)
(3 -8.60026e-16 0)
(3 -5.49184e-16 0)
(3 1.59479e-16 0)
(3 4.61216e-16 0)
(3 5.02813e-16 0)
(3 -1.26816e-16 0)
(3 -5.27427e-16 0)
(3 -8.44494e-16 0)
(3 -1.88412e-15 0)
(3 -1.32484e-15 0)
(3 3.18388e-16 0)
(3 1.22499e-15 0)
(3 8.30115e-16 0)
(3 -5.59966e-16 0)
(3 -2.09941e-15 0)
(3 -2.35503e-15 0)
(3 -1.72125e-15 0)
(3 -1.86836e-15 0)
(3 -1.14636e-15 0)
(3 -4.88158e-16 0)
(3 -4.72809e-16 0)
(3 -3.23426e-16 0)
(3 -7.38733e-16 0)
(3 -1.48849e-16 0)
(3 1.45555e-15 0)
(3 2.80485e-15 0)
(3 2.55511e-15 0)
(3 2.12342e-15 0)
(3 2.57608e-15 0)
(3 2.94713e-15 0)
(3 2.68901e-15 0)
(3 2.21117e-15 0)
(3 1.37799e-15 0)
(3 4.35797e-16 0)
(3 -1.86637e-16 0)
(3 4.09982e-17 0)
(3 4.44545e-16 0)
(3 9.50674e-16 0)
(3 1.4758e-15 0)
(3 1.39893e-15 0)
(3 9.97997e-16 0)
(3 7.24806e-16 0)
(3 6.05245e-16 0)
(3 5.84683e-16 0)
(3 8.11277e-16 0)
(3 6.00029e-16 0)
(3 -6.07288e-16 0)
(3 -1.08689e-15 0)
(3 -6.55426e-16 0)
(3 -8.01437e-16 0)
(3 -4.13814e-16 0)
(3 8.8803e-16 0)
(3 1.92103e-15 0)
(3 3.02677e-15 0)
(3 3.42064e-15 0)
(3 3.71596e-15 0)
(3 4.73925e-15 0)
(3 5.51488e-15 0)
(3 5.64109e-15 0)
(3 6.38153e-15 0)
(3 5.93946e-15 0)
(3 5.87827e-15 0)
(3 5.77544e-15 0)
(3 4.86508e-15 0)
(3 4.94228e-15 0)
(3 4.09715e-15 0)
(3 2.39419e-15 0)
(3 2.86667e-15 0)
(3 3.38998e-15 0)
(3 2.58891e-15 0)
(3 1.16705e-16 0)
(3 5.89464e-17 0)
(3 9.57092e-18 0)
(3 7.9238e-17 0)
(3 4.30684e-16 0)
(3 5.30273e-16 0)
(3 1.39156e-16 0)
(3 7.81223e-16 0)
(3 4.84385e-16 0)
(3 -1.25485e-16 0)
(3 -3.34068e-16 0)
(3 -6.46941e-16 0)
(3 -8.96596e-16 0)
(3 -1.7494e-15 0)
(3 -2.04895e-15 0)
(3 -1.96476e-15 0)
(3 -1.61341e-15 0)
(3 -1.09703e-15 0)
(3 -1.27914e-16 0)
(3 1.00554e-15 0)
(3 6.29503e-16 0)
(3 8.66261e-18 0)
(3 -2.39582e-16 0)
(3 -7.97712e-16 0)
(3 -9.22615e-16 0)
(3 -8.23123e-16 0)
(3 -7.73637e-16 0)
(3 -2.66155e-16 0)
(3 8.15122e-16 0)
(3 1.54049e-15 0)
(3 2.70397e-15 0)
(3 2.52043e-15 0)
(3 1.33193e-15 0)
(3 3.05373e-16 0)
(3 -1.26544e-15 0)
(3 -1.60594e-15 0)
(3 -5.69548e-16 0)
(3 5.60559e-16 0)
(3 8.8034e-16 0)
(3 6.87788e-16 0)
(3 3.82044e-16 0)
(3 1.97768e-16 0)
(3 -3.83334e-16 0)
(3 -7.24051e-16 0)
(3 -1.05159e-15 0)
(3 -1.01693e-15 0)
(3 -4.19713e-16 0)
(3 -4.65336e-16 0)
(3 -6.292e-16 0)
(3 -3.93839e-16 0)
(3 5.97246e-16 0)
(3 2.22917e-15 0)
(3 2.38159e-15 0)
(3 1.98893e-15 0)
(3 6.20838e-16 0)
(3 9.65488e-16 0)
(3 1.07303e-15 0)
(3 1.53871e-15 0)
(3 2.26674e-15 0)
(3 1.94341e-15 0)
(3 1.32818e-15 0)
(3 1.30694e-15 0)
(3 1.68833e-15 0)
(3 1.75422e-15 0)
(3 1.08009e-15 0)