/*--------------------------------*- C++ -*----------------------------------*\
  =========                 |
  \\      /  F ield         | OpenFOAM: The Open Source CFD Toolbox
   \\    /   O peration     | Website:  https://openfoam.org
    \\  /    A nd           | Version:  7
     \\/     M anipulation  |
\*---------------------------------------------------------------------------*/
FoamFile
{
    version     2.0;
    format      ascii;
    class       volVectorField;
    location    "0.2";
    object      U;
}
// * * * * * * * * * * * * * * * * * * * * * * * * * * * * * * * * * * * * * //

dimensions      [0 1 -1 0 0 0 0];

internalField   nonuniform List<vector> 
73728
(
(3 1.18716e-17 0)
(3 -4.56636e-17 0)
(3 -8.51459e-17 0)
(3 2.18223e-16 0)
(3 6.16866e-16 0)
(3 6.94341e-16 0)
(3 7.03457e-16 0)
(3 4.10292e-16 0)
(3 -5.2112e-16 0)
(3 -6.48263e-16 0)
(3 -2.12374e-16 0)
(3 -4.91815e-16 0)
(3 -5.73904e-16 0)
(3 -1.05977e-15 0)
(3 -3.75141e-16 0)
(3 1.13647e-15 0)
(3 1.65506e-15 0)
(3 1.53528e-15 0)
(3 1.46106e-15 0)
(3 1.44918e-15 0)
(3 1.05267e-15 0)
(3 9.75655e-16 0)
(3 6.15015e-16 0)
(3 8.22859e-16 0)
(3 1.68158e-15 0)
(3 2.98357e-15 0)
(3 2.3393e-15 0)
(3 3.67554e-16 0)
(3 2.53767e-16 0)
(3 4.60735e-16 0)
(3 6.3868e-16 0)
(3 2.53194e-16 0)
(3 1.75557e-16 0)
(3 5.27235e-16 0)
(3 8.9689e-16 0)
(3 9.17761e-16 0)
(3 5.35224e-16 0)
(3 8.77562e-16 0)
(3 1.15304e-15 0)
(3 1.1425e-15 0)
(3 1.29179e-15 0)
(3 1.63732e-15 0)
(3 1.83156e-15 0)
(3 1.62147e-15 0)
(3 1.25186e-15 0)
(3 9.20947e-16 0)
(3 6.78567e-16 0)
(3 -1.68567e-16 0)
(3 -1.36216e-16 0)
(3 -2.62081e-16 0)
(3 -4.98801e-16 0)
(3 -1.2896e-17 0)
(3 -7.6254e-18 0)
(3 -6.02602e-17 0)
(3 -1.16623e-15 0)
(3 -6.50113e-16 0)
(3 7.65411e-16 0)
(3 9.55669e-16 0)
(3 9.0018e-16 0)
(3 1.4248e-15 0)
(3 1.4984e-15 0)
(3 1.12723e-15 0)
(3 4.81566e-16 0)
(3 3.45511e-16 0)
(3 4.23762e-16 0)
(3 -3.65139e-16 0)
(3 -8.20586e-16 0)
(3 -5.52898e-16 0)
(3 -7.0241e-16 0)
(3 -1.03037e-15 0)
(3 -2.9297e-16 0)
(3 2.27725e-17 0)
(3 -3.53869e-16 0)
(3 -7.77979e-16 0)
(3 -2.9752e-16 0)
(3 2.32006e-17 0)
(3 9.2346e-17 0)
(3 -4.52686e-16 0)
(3 -1.22373e-15 0)
(3 -8.49417e-16 0)
(3 -4.64786e-16 0)
(3 -5.96011e-16 0)
(3 -4.99878e-16 0)
(3 -1.28376e-15 0)
(3 -1.7471e-15 0)
(3 -1.44424e-15 0)
(3 -1.89391e-16 0)
(3 5.39036e-16 0)
(3 9.90667e-16 0)
(3 1.49176e-15 0)
(3 7.52141e-16 0)
(3 5.43616e-16 0)
(3 -2.00107e-16 0)
(3 -1.03671e-15 0)
(3 -1.64929e-15 0)
(3 -1.48855e-15 0)
(3 -1.09743e-16 0)
(3 -4.11752e-16 0)
(3 -7.39215e-16 0)
(3 -1.16023e-16 0)
(3 5.31987e-16 0)
(3 8.96284e-16 0)
(3 9.8133e-16 0)
(3 4.29757e-16 0)
(3 -1.63596e-16 0)
(3 -3.50688e-16 0)
(3 -4.69737e-16 0)
(3 -9.94222e-16 0)
(3 -1.80323e-15 0)
(3 -1.56099e-15 0)
(3 -1.00157e-15 0)
(3 -4.54518e-16 0)
(3 2.74731e-16 0)
(3 4.71722e-16 0)
(3 9.84303e-16 0)
(3 1.12429e-15 0)
(3 1.80248e-15 0)
(3 2.05764e-15 0)
(3 1.45471e-15 0)
(3 1.76581e-15 0)
(3 1.93425e-15 0)
(3 2.10731e-15 0)
(3 7.38717e-16 0)
(3 -1.20974e-15 0)
(3 -1.43153e-15 0)
(3 -8.41369e-16 0)
(3 -1.57529e-16 0)
(3 1.44686e-16 0)
(3 2.35752e-16 0)
(3 1.44183e-15 0)
(3 2.09828e-15 0)
(3 8.97263e-16 0)
(3 -6.98149e-16 0)
(3 -4.29977e-16 0)
(3 -3.53134e-16 0)
(3 -8.09788e-17 0)
(3 1.03182e-15 0)
(3 3.24352e-15 0)
(3 4.50155e-15 0)
(3 3.89083e-15 0)
(3 2.38061e-15 0)
(3 1.70198e-15 0)
(3 1.57805e-15 0)
(3 -5.42841e-18 0)
(3 -1.51249e-15 0)
(3 -2.00217e-15 0)
(3 -1.80459e-15 0)
(3 -1.34434e-15 0)
(3 -1.42444e-15 0)
(3 -1.37697e-15 0)
(3 -1.2804e-15 0)
(3 -1.16449e-16 0)
(3 1.58236e-15 0)
(3 2.08041e-15 0)
(3 2.40949e-15 0)
(3 1.76108e-15 0)
(3 1.36384e-15 0)
(3 1.12192e-15 0)
(3 2.09377e-15 0)
(3 2.04367e-15 0)
(3 1.90227e-15 0)
(3 5.30803e-16 0)
(3 -9.75447e-17 0)
(3 -1.76105e-16 0)
(3 -1.03936e-15 0)
(3 -1.47665e-15 0)
(3 -9.97583e-16 0)
(3 -5.26702e-16 0)
(3 -5.46589e-16 0)
(3 -6.98734e-16 0)
(3 -4.05097e-16 0)
(3 -4.50662e-16 0)
(3 -2.41314e-16 0)
(3 -3.20874e-16 0)
(3 -1.28994e-15 0)
(3 -1.48189e-15 0)
(3 -1.3984e-15 0)
(3 -1.20784e-15 0)
(3 -6.23832e-16 0)
(3 -8.37332e-16 0)
(3 -1.03234e-15 0)
(3 -8.82053e-16 0)
(3 1.24571e-15 0)
(3 2.83152e-15 0)
(3 3.68244e-15 0)
(3 3.20717e-15 0)
(3 2.11967e-15 0)
(3 1.64332e-15 0)
(3 7.37932e-16 0)
(3 -5.97135e-16 0)
(3 -2.07717e-15 0)
(3 -3.52765e-15 0)
(3 1.73318e-16 0)
(3 -2.08572e-16 0)
(3 -5.42393e-16 0)
(3 -3.56832e-16 0)
(3 -5.1049e-17 0)
(3 -3.39896e-17 0)
(3 -1.98507e-16 0)
(3 -1.5931e-16 0)
(3 -4.31696e-16 0)
(3 -3.22213e-16 0)
(3 -8.57334e-16 0)
(3 -1.34972e-15 0)
(3 -2.04167e-15 0)
(3 -2.09985e-15 0)
(3 -2.10158e-15 0)
(3 -2.52978e-15 0)
(3 -2.09905e-15 0)
(3 -1.44764e-15 0)
(3 -1.37528e-16 0)
(3 7.30199e-16 0)
(3 3.03853e-16 0)
(3 -1.66354e-16 0)
(3 3.40767e-17 0)
(3 9.82457e-16 0)
(3 1.75701e-15 0)
(3 7.68852e-16 0)
(3 -6.11336e-16 0)
(3 -1.05989e-15 0)
(3 -6.98092e-16 0)
(3 -1.32548e-15 0)
(3 -1.49381e-15 0)
(3 1.3875e-16 0)
(3 5.5581e-16 0)
(3 1.24585e-15 0)
(3 1.92986e-15 0)
(3 -9.77287e-16 0)
(3 -2.6946e-15 0)
(3 -2.6067e-15 0)
(3 -2.23569e-15 0)
(3 -4.17258e-16 0)
(3 1.14741e-15 0)
(3 2.25819e-15 0)
(3 2.42098e-15 0)
(3 2.32436e-15 0)
(3 1.07792e-15 0)
(3 4.7125e-16 0)
(3 6.56997e-17 0)
(3 -2.18432e-15 0)
(3 -4.02847e-15 0)
(3 -3.72934e-15 0)
(3 -3.23035e-15 0)
(3 -2.66847e-15 0)
(3 -2.33678e-15 0)
(3 -2.51714e-15 0)
(3 -2.30724e-15 0)
(3 -1.89116e-15 0)
(3 -2.16434e-16 0)
(3 1.0485e-15 0)
(3 2.14739e-15 0)
(3 1.45179e-15 0)
(3 6.77527e-16 0)
(3 9.54769e-16 0)
(3 2.75898e-15 0)
(3 2.86074e-15 0)
(3 1.60468e-15 0)
(3 -4.90786e-16 0)
(3 -1.45644e-15 0)
(3 -1.96403e-15 0)
(3 -2.93271e-15 0)
(3 -3.0778e-15 0)
(3 -3.30677e-15 0)
(3 -1.3835e-15 0)
(3 -9.71132e-17 0)
(3 -1.28563e-16 0)
(3 -8.79649e-16 0)
(3 -1.09815e-15 0)
(3 -5.8862e-16 0)
(3 -2.30933e-17 0)
(3 4.20109e-16 0)
(3 9.98089e-19 0)
(3 -1.16926e-15 0)
(3 -1.59692e-15 0)
(3 -1.47179e-15 0)
(3 -1.16523e-15 0)
(3 -1.0108e-15 0)
(3 -1.46094e-16 0)
(3 1.84104e-16 0)
(3 4.27324e-16 0)
(3 1.55193e-15 0)
(3 1.84338e-15 0)
(3 3.39566e-15 0)
(3 4.0613e-15 0)
(3 7.85746e-16 0)
(3 -1.56673e-15 0)
(3 -3.09801e-15 0)
(3 -4.36569e-15 0)
(3 2.32409e-16 0)
(3 2.2353e-16 0)
(3 8.22951e-17 0)
(3 -8.24532e-17 0)
(3 -3.90437e-16 0)
(3 -4.3304e-16 0)
(3 -6.64164e-16 0)
(3 -4.22731e-16 0)
(3 -4.8831e-16 0)
(3 -5.59495e-16 0)
(3 -3.98812e-16 0)
(3 -4.28895e-16 0)
(3 -8.84008e-16 0)
(3 -1.38546e-15 0)
(3 -2.00788e-15 0)
(3 -2.08966e-15 0)
(3 -2.2665e-15 0)
(3 -4.1562e-16 0)
(3 1.9796e-16 0)
(3 3.70455e-16 0)
(3 -4.28214e-16 0)
(3 -7.10611e-16 0)
(3 -1.05976e-16 0)
(3 1.08707e-15 0)
(3 7.8709e-16 0)
(3 -7.12175e-16 0)
(3 -1.12205e-16 0)
(3 -5.21911e-17 0)
(3 -1.23634e-17 0)
(3 -2.99938e-16 0)
(3 -1.99678e-16 0)
(3 2.32705e-16 0)
(3 1.74847e-16 0)
(3 -1.0996e-15 0)
(3 -7.32746e-16 0)
(3 -1.03272e-15 0)
(3 -1.57249e-15 0)
(3 -1.72113e-15 0)
(3 -8.81033e-16 0)
(3 4.27898e-16 0)
(3 8.20007e-16 0)
(3 5.82955e-16 0)
(3 1.11375e-16 0)
(3 -8.66259e-17 0)
(3 -1.11655e-15 0)
(3 -1.7322e-15 0)
(3 -2.19764e-15 0)
(3 -3.03347e-15 0)
(3 -3.02509e-15 0)
(3 -2.67174e-15 0)
(3 -3.26856e-15 0)
(3 -3.37451e-15 0)
(3 -3.30364e-15 0)
(3 -2.25815e-15 0)
(3 -1.76884e-15 0)
(3 -1.47891e-15 0)
(3 -8.78961e-16 0)
(3 7.1852e-18 0)
(3 1.18149e-15 0)
(3 1.64615e-15 0)
(3 2.11602e-15 0)
(3 2.0306e-15 0)
(3 1.38892e-15 0)
(3 1.91889e-15 0)
(3 1.01266e-15 0)
(3 -3.89388e-16 0)
(3 -1.14655e-15 0)
(3 -1.17728e-15 0)
(3 -1.57875e-15 0)
(3 -2.02938e-15 0)
(3 -2.83484e-15 0)
(3 -2.89771e-15 0)
(3 -1.59867e-15 0)
(3 -1.62159e-15 0)
(3 -2.46233e-15 0)
(3 -1.06461e-15 0)
(3 -5.69767e-16 0)
(3 -5.61064e-16 0)
(3 -1.01414e-15 0)
(3 -5.41363e-16 0)
(3 -2.52717e-16 0)
(3 -7.39384e-16 0)
(3 -1.72956e-15 0)
(3 -2.37999e-15 0)
(3 -2.73985e-15 0)
(3 -9.7948e-16 0)
(3 6.15725e-16 0)
(3 1.18915e-15 0)
(3 1.10286e-15 0)
(3 1.23894e-15 0)
(3 2.85091e-15 0)
(3 3.75677e-15 0)
(3 1.52647e-15 0)
(3 -1.8924e-15 0)
(3 -3.94033e-15 0)
(3 -4.53815e-15 0)
(3 2.3111e-17 0)
(3 -2.31205e-16 0)
(3 -2.11534e-16 0)
(3 -1.70684e-16 0)
(3 -1.21024e-16 0)
(3 -1.84649e-16 0)
(3 -3.37296e-16 0)
(3 -3.87599e-16 0)
(3 3.14476e-16 0)
(3 8.7479e-16 0)
(3 2.80615e-16 0)
(3 3.27062e-16 0)
(3 4.72825e-17 0)
(3 -2.639e-16 0)
(3 -3.80472e-16 0)
(3 -3.28506e-16 0)
(3 2.34453e-16 0)
(3 1.20371e-15 0)
(3 -1.35872e-17 0)
(3 -1.29633e-15 0)
(3 -9.00383e-16 0)
(3 2.48285e-16 0)
(3 1.20539e-15 0)
(3 1.13204e-15 0)
(3 -2.91261e-16 0)
(3 -1.05397e-15 0)
(3 6.80968e-17 0)
(3 5.05359e-16 0)
(3 1.8138e-16 0)
(3 1.51841e-15 0)
(3 1.15812e-15 0)
(3 -2.10642e-16 0)
(3 -1.22661e-15 0)
(3 -3.59553e-15 0)
(3 -3.81685e-15 0)
(3 -1.27844e-15 0)
(3 -1.17629e-15 0)
(3 -1.64173e-15 0)
(3 -1.04035e-15 0)
(3 -6.25117e-16 0)
(3 -9.21307e-16 0)
(3 -1.81017e-15 0)
(3 -1.86905e-15 0)
(3 -1.42967e-15 0)
(3 -8.01715e-16 0)
(3 -1.23559e-15 0)
(3 -1.40561e-15 0)
(3 -3.20325e-16 0)
(3 -2.29384e-16 0)
(3 -4.98956e-16 0)
(3 -1.3623e-15 0)
(3 -3.12106e-15 0)
(3 -3.1014e-15 0)
(3 -2.38218e-15 0)
(3 -1.48021e-15 0)
(3 -8.96886e-16 0)
(3 1.39446e-15 0)
(3 2.28982e-15 0)
(3 1.71165e-15 0)
(3 3.59619e-16 0)
(3 -2.00837e-16 0)
(3 6.41677e-16 0)
(3 -4.17346e-17 0)
(3 5.64073e-16 0)
(3 9.93617e-16 0)
(3 7.57442e-16 0)
(3 3.99746e-16 0)
(3 -3.22931e-16 0)
(3 -6.76235e-16 0)
(3 -9.27283e-16 0)
(3 -1.59481e-15 0)
(3 -3.0317e-15 0)
(3 -3.06707e-15 0)
(3 -2.26208e-15 0)
(3 -3.75575e-15 0)
(3 -3.43811e-15 0)
(3 -2.73383e-15 0)
(3 -1.33626e-15 0)
(3 -5.67993e-16 0)
(3 -4.15077e-17 0)
(3 6.21716e-16 0)
(3 4.517e-16 0)
(3 -1.29621e-15 0)
(3 -2.7712e-15 0)
(3 -3.57503e-15 0)
(3 -3.39275e-15 0)
(3 -1.32476e-15 0)
(3 8.39547e-16 0)
(3 9.76331e-16 0)
(3 6.71601e-16 0)
(3 5.29244e-16 0)
(3 3.27269e-15 0)
(3 2.46701e-15 0)
(3 9.39135e-16 0)
(3 -8.88013e-16 0)
(3 -9.51024e-16 0)
(3 4.39099e-18 0)
(3 -1.3044e-16 0)
(3 -2.65498e-17 0)
(3 3.29202e-16 0)
(3 8.14592e-16 0)
(3 -7.59544e-16 0)
(3 -8.18526e-16 0)
(3 -9.09735e-16 0)
(3 -3.31883e-16 0)
(3 1.13544e-17 0)
(3 -7.76699e-17 0)
(3 -4.48006e-16 0)
(3 -5.32483e-16 0)
(3 -8.05161e-16 0)
(3 -7.38842e-16 0)
(3 -1.79156e-16 0)
(3 5.91572e-16 0)
(3 -1.44827e-17 0)
(3 1.64033e-15 0)
(3 1.87729e-15 0)
(3 4.30268e-16 0)
(3 -1.54222e-17 0)
(3 6.64622e-17 0)
(3 -6.27312e-16 0)
(3 -1.08832e-15 0)
(3 -5.60925e-16 0)
(3 -1.23303e-16 0)
(3 -1.78749e-16 0)
(3 -3.37598e-16 0)
(3 1.41904e-15 0)
(3 1.67112e-15 0)
(3 1.51186e-16 0)
(3 -1.83851e-15 0)
(3 -2.94237e-15 0)
(3 -3.0259e-15 0)
(3 -9.80317e-16 0)
(3 1.44046e-16 0)
(3 6.94771e-16 0)
(3 6.19062e-16 0)
(3 2.92613e-16 0)
(3 4.93212e-16 0)
(3 7.81023e-16 0)
(3 7.64767e-16 0)
(3 6.67756e-16 0)
(3 1.86946e-15 0)
(3 2.06323e-15 0)
(3 2.29948e-15 0)
(3 6.30847e-16 0)
(3 7.51753e-16 0)
(3 7.2497e-16 0)
(3 -2.74296e-18 0)
(3 -1.74875e-15 0)
(3 -2.92862e-15 0)
(3 -2.32339e-15 0)
(3 3.14238e-16 0)
(3 1.74074e-15 0)
(3 3.03296e-15 0)
(3 2.73519e-15 0)
(3 1.79705e-15 0)
(3 9.38823e-16 0)
(3 9.57038e-16 0)
(3 1.98208e-15 0)
(3 2.13607e-16 0)
(3 -1.06119e-15 0)
(3 -1.17819e-15 0)
(3 -1.19665e-15 0)
(3 -1.29084e-15 0)
(3 -1.54815e-15 0)
(3 -1.60238e-15 0)
(3 -1.38511e-15 0)
(3 -1.53441e-15 0)
(3 -1.88874e-15 0)
(3 -1.82335e-15 0)
(3 -2.04354e-15 0)
(3 -4.20135e-15 0)
(3 -3.18155e-15 0)
(3 -1.48998e-15 0)
(3 -2.97451e-16 0)
(3 2.38534e-15 0)
(3 2.62963e-15 0)
(3 1.8268e-15 0)
(3 1.15493e-15 0)
(3 -1.39742e-15 0)
(3 -2.42106e-15 0)
(3 -3.27635e-15 0)
(3 -3.5008e-15 0)
(3 -1.93641e-15 0)
(3 4.85581e-16 0)
(3 1.76137e-15 0)
(3 2.20241e-15 0)
(3 1.34875e-15 0)
(3 3.00151e-16 0)
(3 9.38955e-17 0)
(3 5.44049e-16 0)
(3 8.25585e-16 0)
(3 7.7711e-16 0)
(3 1.12303e-16 0)
(3 2.58063e-16 0)
(3 2.85677e-16 0)
(3 9.50461e-17 0)
(3 -1.47673e-16 0)
(3 -9.19525e-16 0)
(3 -9.57624e-16 0)
(3 -7.73436e-16 0)
(3 -6.33646e-16 0)
(3 -7.70838e-16 0)
(3 -7.15411e-16 0)
(3 -9.73174e-16 0)
(3 -7.90215e-16 0)
(3 -4.99505e-16 0)
(3 -9.75974e-16 0)
(3 -9.78606e-16 0)
(3 -6.71924e-16 0)
(3 4.65016e-16 0)
(3 1.76895e-15 0)
(3 2.74534e-15 0)
(3 3.21925e-15 0)
(3 1.79533e-15 0)
(3 1.63082e-15 0)
(3 1.46747e-15 0)
(3 8.42061e-16 0)
(3 7.7004e-16 0)
(3 2.79627e-16 0)
(3 3.32297e-17 0)
(3 5.35703e-16 0)
(3 1.58594e-16 0)
(3 4.06529e-16 0)
(3 -2.9651e-16 0)
(3 -2.24051e-15 0)
(3 -2.38974e-15 0)
(3 -1.57084e-15 0)
(3 -1.54622e-16 0)
(3 2.08666e-16 0)
(3 1.60674e-15 0)
(3 2.22844e-15 0)
(3 2.24472e-15 0)
(3 2.5511e-15 0)
(3 4.09337e-15 0)
(3 5.06925e-15 0)
(3 4.23079e-15 0)
(3 3.35934e-15 0)
(3 2.11776e-15 0)
(3 1.76256e-15 0)
(3 1.7847e-15 0)
(3 -3.63946e-16 0)
(3 -1.10958e-15 0)
(3 -9.43306e-16 0)
(3 -6.4253e-16 0)
(3 -1.00194e-15 0)
(3 -5.67036e-16 0)
(3 7.08634e-16 0)
(3 2.44628e-15 0)
(3 2.19279e-15 0)
(3 6.50854e-16 0)
(3 -4.32729e-16 0)
(3 4.5715e-16 0)
(3 2.48214e-15 0)
(3 2.8207e-15 0)
(3 9.16229e-16 0)
(3 -7.25975e-16 0)
(3 -1.55868e-15 0)
(3 -2.35447e-15 0)
(3 -2.64245e-15 0)
(3 -2.13129e-15 0)
(3 -1.76811e-15 0)
(3 -1.69544e-15 0)
(3 -1.71651e-15 0)
(3 -1.45241e-15 0)
(3 -1.6517e-15 0)
(3 -2.33776e-15 0)
(3 -3.82782e-15 0)
(3 -3.56573e-15 0)
(3 -2.82269e-15 0)
(3 -1.70239e-15 0)
(3 4.63691e-16 0)
(3 1.04831e-15 0)
(3 1.52887e-15 0)
(3 1.39622e-15 0)
(3 2.92808e-16 0)
(3 -1.06487e-15 0)
(3 -1.20846e-15 0)
(3 -7.55861e-16 0)
(3 -4.1478e-17 0)
(3 1.66615e-15 0)
(3 2.45057e-15 0)
(3 2.17199e-15 0)
(3 1.01099e-15 0)
(3 5.41314e-17 0)
(3 4.22679e-18 0)
(3 3.29295e-16 0)
(3 4.08302e-16 0)
(3 -2.78471e-16 0)
(3 -6.43615e-17 0)
(3 4.17878e-16 0)
(3 5.76134e-16 0)
(3 1.13889e-16 0)
(3 -2.04745e-16 0)
(3 -1.20871e-16 0)
(3 -4.24119e-16 0)
(3 -5.34681e-16 0)
(3 -4.98259e-16 0)
(3 -4.40708e-16 0)
(3 -9.37743e-17 0)
(3 3.73443e-16 0)
(3 6.12773e-16 0)
(3 5.2865e-16 0)
(3 2.1143e-16 0)
(3 -3.64796e-16 0)
(3 -1.80821e-16 0)
(3 5.12312e-16 0)
(3 5.03075e-16 0)
(3 1.09238e-15 0)
(3 2.47086e-15 0)
(3 2.86804e-15 0)
(3 3.23981e-15 0)
(3 3.04163e-15 0)
(3 2.64242e-15 0)
(3 1.65751e-15 0)
(3 2.46653e-15 0)
(3 3.09794e-15 0)
(3 2.5843e-15 0)
(3 6.88095e-16 0)
(3 -8.5247e-16 0)
(3 -2.02509e-15 0)
(3 -2.72484e-15 0)
(3 -2.22781e-15 0)
(3 -1.7561e-15 0)
(3 -2.45763e-15 0)
(3 -1.5652e-15 0)
(3 7.14233e-16 0)
(3 2.11018e-15 0)
(3 3.04092e-15 0)
(3 4.21088e-15 0)
(3 4.57528e-15 0)
(3 4.49879e-15 0)
(3 4.11608e-15 0)
(3 2.27372e-15 0)
(3 1.64917e-15 0)
(3 2.01891e-15 0)
(3 3.0252e-15 0)
(3 1.47376e-15 0)
(3 -1.97895e-15 0)
(3 -2.3982e-15 0)
(3 -2.22077e-15 0)
(3 -1.2976e-15 0)
(3 -1.26843e-15 0)
(3 -9.65867e-16 0)
(3 1.20783e-15 0)
(3 1.393e-15 0)
(3 1.2274e-15 0)
(3 1.0962e-15 0)
(3 1.84568e-15 0)
(3 2.42555e-15 0)
(3 2.2926e-15 0)
(3 1.57674e-15 0)
(3 8.79478e-16 0)
(3 3.15312e-16 0)
(3 -1.05673e-15 0)
(3 -1.09999e-15 0)
(3 -6.64912e-16 0)
(3 -6.89315e-17 0)
(3 -2.31662e-16 0)
(3 1.88883e-16 0)
(3 -1.2621e-16 0)
(3 -1.90985e-15 0)
(3 -2.95461e-15 0)
(3 -3.18532e-15 0)
(3 -3.64663e-15 0)
(3 -4.80304e-15 0)
(3 -4.37025e-15 0)
(3 -3.91406e-15 0)
(3 -1.28423e-15 0)
(3 2.6703e-15 0)
(3 1.94932e-15 0)
(3 -4.86748e-16 0)
(3 -7.87339e-16 0)
(3 3.45091e-16 0)
(3 3.64146e-16 0)
(3 -4.47036e-17 0)
(3 -2.24311e-17 0)
(3 -2.90575e-16 0)
(3 4.51475e-16 0)
(3 1.24083e-15 0)
(3 1.53275e-15 0)
(3 2.06276e-15 0)
(3 6.63727e-16 0)
(3 -1.25026e-15 0)
(3 -2.54734e-15 0)
(3 -2.21818e-16 0)
(3 -4.95359e-17 0)
(3 -1.8021e-16 0)
(3 -1.9145e-17 0)
(3 -4.06545e-16 0)
(3 -3.05897e-16 0)
(3 -1.06641e-16 0)
(3 -9.34383e-19 0)
(3 1.54283e-16 0)
(3 1.58298e-16 0)
(3 8.08257e-16 0)
(3 1.79155e-15 0)
(3 2.01008e-15 0)
(3 1.58795e-15 0)
(3 1.14081e-15 0)
(3 6.64676e-16 0)
(3 9.0475e-16 0)
(3 4.72898e-16 0)
(3 3.76314e-16 0)
(3 7.97085e-16 0)
(3 -2.76761e-16 0)
(3 -7.43836e-17 0)
(3 1.19864e-16 0)
(3 6.07055e-16 0)
(3 8.73985e-16 0)
(3 6.52773e-16 0)
(3 2.08472e-15 0)
(3 2.10557e-15 0)
(3 1.58462e-15 0)
(3 1.48063e-15 0)
(3 3.23517e-16 0)
(3 -5.99374e-16 0)
(3 -1.00553e-15 0)
(3 -2.73212e-15 0)
(3 -3.28455e-15 0)
(3 -3.56016e-15 0)
(3 -2.27382e-15 0)
(3 -1.48701e-15 0)
(3 -1.09438e-15 0)
(3 9.05871e-16 0)
(3 2.15483e-15 0)
(3 1.95835e-15 0)
(3 2.32377e-15 0)
(3 2.71979e-15 0)
(3 2.14515e-15 0)
(3 1.79967e-15 0)
(3 2.10014e-15 0)
(3 2.08099e-15 0)
(3 1.68403e-15 0)
(3 1.01772e-15 0)
(3 3.08851e-17 0)
(3 -6.59529e-16 0)
(3 -6.06043e-16 0)
(3 -1.7425e-16 0)
(3 1.79735e-16 0)
(3 3.65542e-16 0)
(3 1.19976e-15 0)
(3 2.95308e-15 0)
(3 3.55013e-15 0)
(3 3.59816e-15 0)
(3 2.69805e-15 0)
(3 2.55325e-15 0)
(3 2.80431e-15 0)
(3 2.50649e-15 0)
(3 1.39149e-15 0)
(3 1.09249e-15 0)
(3 9.64612e-16 0)
(3 9.59513e-16 0)
(3 1.98589e-15 0)
(3 1.87585e-15 0)
(3 1.04475e-15 0)
(3 -5.19513e-16 0)
(3 -1.38505e-15 0)
(3 -2.14132e-15 0)
(3 -2.70952e-15 0)
(3 -2.81908e-15 0)
(3 -1.91847e-15 0)
(3 -1.79093e-15 0)
(3 -1.30246e-15 0)
(3 -1.64863e-16 0)
(3 1.76579e-15 0)
(3 1.73926e-15 0)
(3 9.53723e-16 0)
(3 9.02996e-16 0)
(3 1.74475e-15 0)
(3 1.63397e-15 0)
(3 1.08998e-15 0)
(3 1.11007e-15 0)
(3 7.73259e-16 0)
(3 4.33172e-16 0)
(3 9.71318e-16 0)
(3 1.57494e-15 0)
(3 1.64172e-15 0)
(3 1.37458e-15 0)
(3 5.35767e-16 0)
(3 -7.01269e-16 0)
(3 7.87041e-20 0)
(3 -4.28204e-16 0)
(3 -5.90446e-16 0)
(3 -4.48956e-16 0)
(3 -2.70243e-16 0)
(3 9.45512e-17 0)
(3 1.3995e-15 0)
(3 1.6835e-15 0)
(3 1.15453e-15 0)
(3 8.35924e-16 0)
(3 3.87682e-16 0)
(3 3.318e-16 0)
(3 5.36965e-16 0)
(3 1.62367e-15 0)
(3 1.37088e-15 0)
(3 1.50346e-15 0)
(3 1.50222e-15 0)
(3 9.22266e-16 0)
(3 1.62739e-16 0)
(3 -1.24325e-15 0)
(3 -2.82688e-15 0)
(3 -2.09127e-15 0)
(3 -1.40936e-15 0)
(3 -7.4679e-16 0)
(3 4.75774e-16 0)
(3 1.45932e-15 0)
(3 1.88195e-15 0)
(3 6.70635e-16 0)
(3 2.85782e-16 0)
(3 7.32516e-16 0)
(3 1.76568e-15 0)
(3 1.4237e-15 0)
(3 2.45899e-16 0)
(3 -1.08044e-15 0)
(3 -1.98124e-15 0)
(3 -1.8372e-15 0)
(3 -1.81404e-15 0)
(3 -2.4607e-15 0)
(3 -2.74615e-15 0)
(3 -2.879e-15 0)
(3 -1.69742e-15 0)
(3 -9.46652e-16 0)
(3 9.54756e-16 0)
(3 1.34808e-15 0)
(3 4.43449e-16 0)
(3 -3.48346e-16 0)
(3 -8.63523e-16 0)
(3 -8.49366e-16 0)
(3 4.77899e-16 0)
(3 1.54619e-15 0)
(3 8.97673e-16 0)
(3 5.3084e-17 0)
(3 6.24378e-16 0)
(3 1.30245e-15 0)
(3 1.05528e-15 0)
(3 6.86574e-16 0)
(3 2.69287e-15 0)
(3 3.44091e-15 0)
(3 4.27661e-15 0)
(3 3.63227e-15 0)
(3 2.96297e-15 0)
(3 2.58859e-15 0)
(3 2.84993e-15 0)
(3 3.17419e-15 0)
(3 3.03496e-15 0)
(3 2.82337e-15 0)
(3 2.68249e-15 0)
(3 1.58002e-15 0)
(3 7.15193e-16 0)
(3 5.25522e-16 0)
(3 -5.12938e-17 0)
(3 -9.85074e-16 0)
(3 -1.21881e-15 0)
(3 -1.15197e-15 0)
(3 -1.47829e-15 0)
(3 -4.72846e-16 0)
(3 9.98995e-16 0)
(3 1.43029e-15 0)
(3 2.472e-17 0)
(3 -1.27002e-15 0)
(3 -8.89013e-16 0)
(3 1.76936e-15 0)
(3 3.46858e-15 0)
(3 3.6118e-15 0)
(3 4.3502e-15 0)
(3 4.73991e-15 0)
(3 3.73001e-15 0)
(3 3.44918e-15 0)
(3 1.5775e-15 0)
(3 -9.43967e-16 0)
(3 -1.4526e-15 0)
(3 -1.49768e-15 0)
(3 -1.34768e-15 0)
(3 -8.49237e-16 0)
(3 -3.24754e-16 0)
(3 4.18511e-16 0)
(3 1.11826e-16 0)
(3 1.2439e-16 0)
(3 7.50317e-17 0)
(3 -4.31437e-16 0)
(3 1.84225e-16 0)
(3 9.60547e-16 0)
(3 1.095e-15 0)
(3 1.66592e-15 0)
(3 1.38608e-15 0)
(3 6.27992e-16 0)
(3 -4.4311e-16 0)
(3 -9.60924e-16 0)
(3 -6.76193e-16 0)
(3 -9.68087e-17 0)
(3 3.74482e-16 0)
(3 7.86104e-16 0)
(3 5.59456e-16 0)
(3 3.14597e-16 0)
(3 -4.6922e-16 0)
(3 -1.33974e-15 0)
(3 -1.55642e-15 0)
(3 -1.32661e-15 0)
(3 -1.08453e-15 0)
(3 2.12444e-16 0)
(3 1.77967e-15 0)
(3 2.48877e-15 0)
(3 2.29032e-15 0)
(3 1.54748e-15 0)
(3 1.04142e-16 0)
(3 -6.55235e-17 0)
(3 1.47839e-15 0)
(3 1.09275e-15 0)
(3 -3.29665e-16 0)
(3 -1.01311e-15 0)
(3 -1.22033e-15 0)
(3 -1.2651e-15 0)
(3 -1.64242e-15 0)
(3 -2.92062e-15 0)
(3 -3.24599e-15 0)
(3 -4.33327e-15 0)
(3 -4.45217e-15 0)
(3 -3.28768e-15 0)
(3 -7.30678e-16 0)
(3 -2.60158e-16 0)
(3 5.71611e-16 0)
(3 5.30704e-16 0)
(3 6.16662e-16 0)
(3 6.85883e-16 0)
(3 1.32969e-15 0)
(3 1.69314e-15 0)
(3 1.58935e-15 0)
(3 1.39909e-15 0)
(3 1.39799e-15 0)
(3 5.16929e-16 0)
(3 7.56857e-17 0)
(3 1.15241e-15 0)
(3 1.42721e-15 0)
(3 7.52629e-16 0)
(3 1.79593e-15 0)
(3 1.53482e-15 0)
(3 7.11405e-16 0)
(3 4.51586e-16 0)
(3 4.73863e-16 0)
(3 -4.21318e-17 0)
(3 1.07981e-16 0)
(3 5.16395e-16 0)
(3 4.43001e-16 0)
(3 1.46365e-16 0)
(3 1.11134e-16 0)
(3 1.96692e-16 0)
(3 5.43467e-16 0)
(3 6.74392e-16 0)
(3 3.94467e-16 0)
(3 6.27151e-16 0)
(3 2.26102e-15 0)
(3 3.37173e-15 0)
(3 3.05962e-15 0)
(3 1.52832e-15 0)
(3 -7.72871e-16 0)
(3 -9.22747e-16 0)
(3 -4.8857e-16 0)
(3 8.7462e-16 0)
(3 5.03465e-15 0)
(3 5.8288e-15 0)
(3 4.48902e-15 0)
(3 4.26894e-15 0)
(3 3.72286e-15 0)
(3 2.16996e-15 0)
(3 -1.88596e-15 0)
(3 -3.31892e-15 0)
(3 -3.56336e-15 0)
(3 -4.2898e-15 0)
(3 -3.77741e-15 0)
(3 -2.74726e-15 0)
(3 -1.78848e-15 0)
(3 -5.24792e-16 0)
(3 1.20092e-17 0)
(3 3.47036e-16 0)
(3 2.85566e-16 0)
(3 -4.02262e-16 0)
(3 -5.71178e-17 0)
(3 4.07696e-16 0)
(3 5.50057e-16 0)
(3 4.79263e-16 0)
(3 7.84784e-16 0)
(3 4.8164e-16 0)
(3 5.8962e-16 0)
(3 1.74346e-16 0)
(3 5.83418e-17 0)
(3 2.39881e-16 0)
(3 1.25671e-15 0)
(3 1.57513e-15 0)
(3 1.20977e-15 0)
(3 1.26729e-15 0)
(3 1.47784e-15 0)
(3 1.02748e-15 0)
(3 2.28286e-16 0)
(3 1.91016e-16 0)
(3 5.18768e-16 0)
(3 1.12015e-15 0)
(3 1.49153e-15 0)
(3 1.131e-15 0)
(3 7.90563e-16 0)
(3 8.40271e-16 0)
(3 9.52787e-16 0)
(3 1.03244e-15 0)
(3 2.72728e-16 0)
(3 5.01061e-16 0)
(3 -2.02771e-16 0)
(3 -4.94271e-16 0)
(3 -8.22259e-16 0)
(3 -7.68975e-16 0)
(3 -1.80896e-15 0)
(3 -2.37409e-15 0)
(3 -3.20768e-15 0)
(3 -2.09503e-15 0)
(3 -1.91452e-15 0)
(3 -2.00858e-15 0)
(3 -2.10807e-15 0)
(3 -5.21524e-16 0)
(3 2.15523e-15 0)
(3 3.46378e-15 0)
(3 3.51606e-15 0)
(3 3.42562e-15 0)
(3 3.0582e-15 0)
(3 3.40187e-15 0)
(3 4.10412e-15 0)
(3 4.50135e-15 0)
(3 3.20027e-15 0)
(3 1.45338e-15 0)
(3 1.59384e-15 0)
(3 5.01747e-16 0)
(3 -3.02944e-16 0)
(3 9.37937e-16 0)
(3 1.26311e-15 0)
(3 1.52623e-15 0)
(3 1.01926e-15 0)
(3 5.50841e-16 0)
(3 -8.53843e-17 0)
(3 -1.64725e-16 0)
(3 3.40294e-16 0)
(3 9.38008e-16 0)
(3 4.92791e-16 0)
(3 1.38096e-15 0)
(3 2.48958e-15 0)
(3 2.79254e-15 0)
(3 2.27525e-15 0)
(3 2.43888e-15 0)
(3 2.52306e-15 0)
(3 2.98821e-15 0)
(3 2.44604e-15 0)
(3 1.76909e-15 0)
(3 1.21145e-15 0)
(3 -4.41247e-16 0)
(3 -1.54011e-15 0)
(3 -2.11294e-15 0)
(3 -1.86354e-15 0)
(3 -1.02981e-15 0)
(3 1.1766e-16 0)
(3 2.26183e-15 0)
(3 2.65019e-15 0)
(3 2.58581e-15 0)
(3 3.07039e-15 0)
(3 1.04392e-15 0)
(3 -1.46727e-15 0)
(3 -2.422e-15 0)
(3 -2.27753e-15 0)
(3 -2.91645e-15 0)
(3 -3.21882e-15 0)
(3 -3.34968e-15 0)
(3 -2.10688e-15 0)
(3 -1.37321e-15 0)
(3 1.84416e-17 0)
(3 8.30479e-18 0)
(3 -7.91938e-17 0)
(3 -1.36972e-16 0)
(3 -9.04032e-17 0)
(3 -1.94658e-18 0)
(3 4.67096e-16 0)
(3 9.95601e-17 0)
(3 1.16959e-17 0)
(3 6.97546e-17 0)
(3 4.83248e-17 0)
(3 2.69628e-16 0)
(3 5.7966e-16 0)
(3 8.48501e-16 0)
(3 1.27705e-15 0)
(3 1.52436e-15 0)
(3 1.67325e-15 0)
(3 2.16233e-15 0)
(3 2.04821e-15 0)
(3 1.51308e-15 0)
(3 1.95742e-15 0)
(3 1.863e-15 0)
(3 2.1667e-15 0)
(3 1.42745e-15 0)
(3 5.83736e-16 0)
(3 6.22715e-16 0)
(3 1.13973e-15 0)
(3 2.00216e-15 0)
(3 1.9432e-15 0)
(3 1.98727e-15 0)
(3 2.16385e-17 0)
(3 -2.85775e-16 0)
(3 5.68632e-17 0)
(3 -8.00947e-17 0)
(3 -4.41957e-16 0)
(3 -4.61992e-16 0)
(3 -1.19293e-15 0)
(3 -1.23792e-15 0)
(3 -1.86231e-15 0)
(3 -7.7275e-16 0)
(3 1.00468e-15 0)
(3 1.73563e-15 0)
(3 1.1552e-15 0)
(3 8.98659e-16 0)
(3 1.95239e-16 0)
(3 1.47147e-15 0)
(3 2.30452e-15 0)
(3 2.24337e-15 0)
(3 1.68052e-15 0)
(3 3.16267e-15 0)
(3 4.41724e-15 0)
(3 5.08619e-15 0)
(3 4.32716e-15 0)
(3 2.92082e-15 0)
(3 3.29651e-15 0)
(3 2.40378e-15 0)
(3 1.29703e-15 0)
(3 1.52588e-15 0)
(3 1.60205e-15 0)
(3 1.50747e-15 0)
(3 1.5947e-15 0)
(3 1.40019e-15 0)
(3 1.19176e-15 0)
(3 9.50435e-16 0)
(3 9.68231e-16 0)
(3 1.91349e-15 0)
(3 2.36869e-15 0)
(3 2.89512e-15 0)
(3 3.67635e-15 0)
(3 4.43976e-15 0)
(3 4.60826e-15 0)
(3 2.77532e-15 0)
(3 1.83816e-15 0)
(3 1.18743e-15 0)
(3 -1.62572e-16 0)
(3 -4.77553e-16 0)
(3 -8.71052e-16 0)
(3 -1.12773e-15 0)
(3 -1.46658e-15 0)
(3 -1.86444e-15 0)
(3 -1.62298e-15 0)
(3 -1.10592e-15 0)
(3 -8.10761e-16 0)
(3 1.45626e-15 0)
(3 2.61643e-15 0)
(3 3.98819e-15 0)
(3 3.50298e-15 0)
(3 8.35617e-16 0)
(3 -3.15252e-16 0)
(3 -1.60333e-16 0)
(3 -1.19435e-15 0)
(3 -1.96976e-15 0)
(3 -2.01489e-15 0)
(3 -2.51637e-15 0)
(3 -2.68525e-15 0)
(3 -2.28706e-15 0)
(3 4.13631e-17 0)
(3 -1.71002e-16 0)
(3 -1.35155e-16 0)
(3 -7.21332e-18 0)
(3 -2.95514e-16 0)
(3 -6.22064e-16 0)
(3 -4.91274e-16 0)
(3 -5.98272e-16 0)
(3 -5.68474e-16 0)
(3 1.28787e-16 0)
(3 8.14079e-16 0)
(3 1.10334e-15 0)
(3 1.79966e-15 0)
(3 1.79776e-15 0)
(3 1.2779e-15 0)
(3 1.00122e-15 0)
(3 1.53931e-15 0)
(3 1.32016e-15 0)
(3 7.733e-16 0)
(3 6.38382e-16 0)
(3 1.01086e-15 0)
(3 8.93749e-16 0)
(3 9.36564e-16 0)
(3 1.22259e-15 0)
(3 1.25225e-15 0)
(3 1.46981e-15 0)
(3 1.51084e-15 0)
(3 -2.09835e-16 0)
(3 -1.10254e-15 0)
(3 -1.5955e-15 0)
(3 -1.73355e-15 0)
(3 -1.07317e-15 0)
(3 -5.72138e-16 0)
(3 -4.3126e-16 0)
(3 -5.92966e-16 0)
(3 -5.41091e-16 0)
(3 7.91625e-17 0)
(3 -5.01036e-16 0)
(3 -1.53045e-15 0)
(3 -1.82282e-15 0)
(3 -1.86279e-16 0)
(3 8.65586e-16 0)
(3 1.16013e-15 0)
(3 6.26692e-16 0)
(3 -2.88031e-16 0)
(3 1.8029e-16 0)
(3 -2.88722e-16 0)
(3 -2.9318e-16 0)
(3 8.87539e-16 0)
(3 1.16123e-15 0)
(3 1.94973e-15 0)
(3 2.77273e-15 0)
(3 3.07363e-15 0)
(3 3.37356e-15 0)
(3 2.64004e-15 0)
(3 1.73344e-15 0)
(3 9.894e-16 0)
(3 3.51247e-17 0)
(3 -1.12472e-15 0)
(3 -1.00563e-15 0)
(3 3.82121e-16 0)
(3 1.54154e-15 0)
(3 1.918e-15 0)
(3 1.42621e-15 0)
(3 1.24384e-15 0)
(3 8.7402e-16 0)
(3 1.13841e-15 0)
(3 1.71939e-15 0)
(3 2.41741e-15 0)
(3 4.06232e-15 0)
(3 6.73273e-15 0)
(3 5.49197e-15 0)
(3 4.39368e-15 0)
(3 3.37506e-15 0)
(3 2.58038e-15 0)
(3 -4.22097e-16 0)
(3 -1.62833e-15 0)
(3 -1.78556e-15 0)
(3 -1.11206e-15 0)
(3 -1.56279e-15 0)
(3 -2.42951e-15 0)
(3 -2.02444e-15 0)
(3 1.06279e-15 0)
(3 2.0791e-15 0)
(3 3.09006e-15 0)
(3 4.2838e-15 0)
(3 2.35514e-15 0)
(3 -2.39324e-15 0)
(3 -3.45458e-15 0)
(3 -3.45914e-15 0)
(3 -3.77469e-15 0)
(3 -4.44814e-15 0)
(3 -2.59773e-15 0)
(3 -2.3136e-15 0)
(3 -2.2571e-15 0)
(3 -3.62616e-15 0)
(3 3.35065e-17 0)
(3 -2.02738e-17 0)
(3 1.69262e-16 0)
(3 3.96595e-16 0)
(3 -7.84114e-17 0)
(3 -4.0764e-16 0)
(3 -5.73172e-16 0)
(3 -7.55285e-16 0)
(3 -6.636e-16 0)
(3 2.50643e-16 0)
(3 1.05536e-15 0)
(3 1.54177e-15 0)
(3 1.56789e-15 0)
(3 1.56246e-15 0)
(3 9.78046e-16 0)
(3 6.89576e-16 0)
(3 6.79944e-16 0)
(3 1.01106e-15 0)
(3 7.13525e-16 0)
(3 1.06783e-16 0)
(3 -1.06843e-16 0)
(3 -4.52411e-16 0)
(3 -5.93505e-16 0)
(3 -3.79024e-16 0)
(3 1.0101e-15 0)
(3 7.63838e-16 0)
(3 -2.55309e-16 0)
(3 -8.3764e-16 0)
(3 -7.64576e-16 0)
(3 -8.62453e-16 0)
(3 -8.88998e-16 0)
(3 -1.2724e-15 0)
(3 -1.52344e-15 0)
(3 -8.3184e-16 0)
(3 -7.54613e-16 0)
(3 -9.31155e-16 0)
(3 2.47032e-16 0)
(3 1.03944e-15 0)
(3 -2.64381e-16 0)
(3 -1.06155e-15 0)
(3 -3.01436e-16 0)
(3 1.2304e-16 0)
(3 9.783e-16 0)
(3 -7.41917e-17 0)
(3 4.36985e-16 0)
(3 1.27777e-15 0)
(3 1.43175e-15 0)
(3 2.23932e-15 0)
(3 3.03528e-15 0)
(3 2.73475e-15 0)
(3 2.24242e-15 0)
(3 1.80199e-15 0)
(3 1.83698e-15 0)
(3 2.4177e-15 0)
(3 2.14774e-15 0)
(3 2.27972e-15 0)
(3 2.47182e-15 0)
(3 1.79774e-15 0)
(3 9.20045e-16 0)
(3 2.48855e-16 0)
(3 6.62322e-16 0)
(3 6.49294e-16 0)
(3 -1.3654e-16 0)
(3 1.91539e-16 0)
(3 6.22523e-16 0)
(3 3.28516e-16 0)
(3 3.11195e-16 0)
(3 1.84925e-15 0)
(3 1.92559e-15 0)
(3 2.86879e-15 0)
(3 5.84318e-15 0)
(3 7.28839e-15 0)
(3 6.05628e-15 0)
(3 3.70887e-15 0)
(3 1.93171e-15 0)
(3 1.28907e-16 0)
(3 -5.21755e-16 0)
(3 -1.21667e-15 0)
(3 -1.52081e-15 0)
(3 -1.66969e-15 0)
(3 -1.86129e-15 0)
(3 -1.47366e-15 0)
(3 3.05183e-17 0)
(3 6.6366e-16 0)
(3 1.6715e-15 0)
(3 1.99497e-15 0)
(3 -8.43036e-16 0)
(3 -2.70475e-15 0)
(3 -2.51461e-15 0)
(3 -4.14096e-15 0)
(3 -4.47265e-15 0)
(3 -2.5056e-15 0)
(3 -1.22188e-15 0)
(3 -2.09381e-15 0)
(3 -2.04618e-15 0)
(3 -1.962e-15 0)
(3 -7.18704e-17 0)
(3 7.38807e-17 0)
(3 3.48615e-16 0)
(3 7.21646e-16 0)
(3 8.25747e-16 0)
(3 2.63491e-16 0)
(3 -3.45125e-16 0)
(3 -8.05325e-16 0)
(3 -6.09943e-16 0)
(3 -5.5642e-16 0)
(3 -3.06042e-16 0)
(3 -5.66828e-17 0)
(3 5.47274e-17 0)
(3 2.1801e-16 0)
(3 5.65249e-16 0)
(3 5.80048e-16 0)
(3 3.58126e-16 0)
(3 4.25251e-16 0)
(3 9.22004e-17 0)
(3 1.34733e-17 0)
(3 2.5752e-16 0)
(3 1.58606e-16 0)
(3 -4.5412e-16 0)
(3 -1.2725e-15 0)
(3 -1.7666e-15 0)
(3 -6.33422e-16 0)
(3 1.32588e-17 0)
(3 1.37946e-15 0)
(3 1.81648e-15 0)
(3 7.3276e-16 0)
(3 2.4473e-16 0)
(3 -1.85693e-15 0)
(3 -2.28536e-15 0)
(3 -2.1492e-15 0)
(3 -2.05132e-15 0)
(3 -2.0106e-15 0)
(3 -1.36771e-15 0)
(3 -2.54486e-16 0)
(3 8.7454e-16 0)
(3 1.56827e-15 0)
(3 2.20424e-15 0)
(3 1.97721e-15 0)
(3 6.89994e-16 0)
(3 -9.2077e-16 0)
(3 -1.5023e-15 0)
(3 -1.07209e-15 0)
(3 3.46802e-16 0)
(3 1.11212e-15 0)
(3 2.68095e-15 0)
(3 2.25228e-15 0)
(3 1.7793e-15 0)
(3 1.19719e-15 0)
(3 1.54528e-15 0)
(3 1.88422e-15 0)
(3 1.89705e-15 0)
(3 1.81146e-15 0)
(3 1.42252e-15 0)
(3 3.52607e-17 0)
(3 2.434e-16 0)
(3 3.93343e-16 0)
(3 -5.19289e-16 0)
(3 -8.43209e-16 0)
(3 -1.36923e-15 0)
(3 -1.57467e-15 0)
(3 -1.69677e-15 0)
(3 -7.54589e-16 0)
(3 -1.71553e-16 0)
(3 1.53588e-15 0)
(3 1.49824e-15 0)
(3 1.40991e-15 0)
(3 3.61872e-15 0)
(3 6.92179e-15 0)
(3 5.6674e-15 0)
(3 2.05234e-15 0)
(3 7.62311e-16 0)
(3 -9.50554e-16 0)
(3 -6.41825e-16 0)
(3 -6.12857e-16 0)
(3 -2.29735e-15 0)
(3 -2.30438e-15 0)
(3 -2.11943e-15 0)
(3 -2.11335e-15 0)
(3 -1.99492e-15 0)
(3 -1.28187e-15 0)
(3 -2.46879e-16 0)
(3 -1.89499e-15 0)
(3 -2.457e-15 0)
(3 -2.42395e-15 0)
(3 -2.66246e-15 0)
(3 -1.97236e-15 0)
(3 -9.46196e-16 0)
(3 3.8583e-16 0)
(3 4.03042e-16 0)
(3 2.91908e-17 0)
(3 -9.60864e-16 0)
(3 -1.41814e-15 0)
(3 -1.43646e-17 0)
(3 -1.56475e-16 0)
(3 1.9649e-16 0)
(3 2.99291e-16 0)
(3 6.09558e-16 0)
(3 4.64031e-16 0)
(3 -1.11455e-16 0)
(3 -8.04987e-16 0)
(3 -7.73704e-16 0)
(3 -3.14311e-16 0)
(3 1.89012e-16 0)
(3 1.82573e-16 0)
(3 -7.40779e-16 0)
(3 -9.82905e-16 0)
(3 -9.42023e-16 0)
(3 -7.92826e-16 0)
(3 -9.48038e-16 0)
(3 -1.2658e-15 0)
(3 -1.00441e-15 0)
(3 1.94609e-16 0)
(3 1.19788e-15 0)
(3 1.8554e-15 0)
(3 1.14453e-15 0)
(3 6.15074e-16 0)
(3 -7.85313e-16 0)
(3 -8.80162e-16 0)
(3 -1.46696e-16 0)
(3 1.76422e-15 0)
(3 2.47582e-15 0)
(3 1.42665e-15 0)
(3 8.22344e-17 0)
(3 -6.86095e-16 0)
(3 -1.98566e-15 0)
(3 -1.88496e-15 0)
(3 -4.93707e-16 0)
(3 1.00104e-15 0)
(3 5.68337e-16 0)
(3 -3.68158e-16 0)
(3 -3.48439e-16 0)
(3 -1.62435e-16 0)
(3 -1.22572e-16 0)
(3 2.63882e-16 0)
(3 -9.49617e-16 0)
(3 -2.67809e-15 0)
(3 -2.57145e-15 0)
(3 -2.13593e-15 0)
(3 -2.70068e-16 0)
(3 5.88538e-16 0)
(3 1.52922e-15 0)
(3 1.60107e-15 0)
(3 5.98018e-16 0)
(3 5.02408e-16 0)
(3 1.00903e-15 0)
(3 1.53265e-15 0)
(3 1.87831e-15 0)
(3 1.57853e-15 0)
(3 -5.31632e-17 0)
(3 -1.24654e-15 0)
(3 -1.46365e-15 0)
(3 -2.27906e-15 0)
(3 -3.22442e-15 0)