/*--------------------------------*- C++ -*----------------------------------*\
  =========                 |
  \\      /  F ield         | OpenFOAM: The Open Source CFD Toolbox
   \\    /   O peration     | Website:  https://openfoam.org
    \\  /    A nd           | Version:  7
     \\/     M anipulation  |
\*---------------------------------------------------------------------------*/
FoamFile
{
    version     2.0;
    format      ascii;
    class       volScalarField;
    location    "1.8";
    object      p;
}
// * * * * * * * * * * * * * * * * * * * * * * * * * * * * * * * * * * * * * //

dimensions      [1 -1 -2 0 0 0 0];

internalField   nonuniform List<scalar> 
18432
(
1
1
1
1
1
1
1
1
1
1
1
1
1
1
1
1
1
1
1
1
1
1
1
1
1
1
1
1
1
1
1
1
1
1
1
1
1
1
1
1
1
1
1
1
1
1
1
1
1
1
1
1
1
1
1
1
1
1
1
1
1
1
1
1
1
1
1
1
1
1
1
1
1
1
1
1
1
1
1
1
1
1
1
1
1
1
1
1
1
1
1
1
1
1
1
1
1
1
1
1
1
1
1
1
1
1
1
1
1
1
1
1
1
1
1
1
1
1
1
1
1
1
1
1
1
1
1
1
1
1
1
1
1
1
1
1
1
1
1
1
1
1
1
1
1
1
1
1
1
1
1
1
1
1
1
1
1
1
1
1
1
1
1
1
1
1
1
1
1
1
1
1
1
1
1
1
1
1
1
1
1
1
1
1
1
1
1
1
1
1
1
1
1
1
1
1
1
1
1
1
1
1
1
1
1
1
1
1
1
1
1
1
1
1
1
1
1
1
1
1
1
1
1
1
1
1
1
1
1
1
1
1
1
1
1
1
1
1
1
1
1
1
1
1
1
1
1
1
1
1
1
1
1
1
1
1
1
1
1
1
1
1
1
1
1
1
1
1
1
1
1
1
1
1
1
1
1
1
1
1
1
1
1
1
1
1
1
1
1
1
1
1
1
1
1
1
1
1
1
1
1
1
1
1
1
1
1
1
1
1
1
1
1
1
1
1
1
1
1
1
1
1
1
1
1
1
1
1
1
1
1
1
1
1
1
1
1
1
1
1
1
1
1
1
1
1
1
1
1
1
1
1
1
1
1
1
1
1
1
1
1
1
1
1
1
1
1
1
1
1
1
1
1
1
1
1
1
1
1
1
1
1
1
1
1
1
1
1
1
1
1
1
1
1
1
1
1
1
1
1
1
1
1
1
1
1
1
1
1
1
1
1
1
1
1
1
1
1
1
1
1
1
1
1
1
1
1
1
1
1
1
1
1
1
1
1
1
1
1
1
1
1
1
1
1
1
1
1
1
1
1
1
1
1
1
1
1
1
1
1
1
1
1
1
1
1
1
1
1
1
1
1
1
1
1
1
1
1
1
1
1
1
1
1
1
1
1
1
1
1
1
1
1
1
1
1
1
1
1
1
1
1
1
1
1
1
1
1
1
1
1
1
1
1
1
1
1
1
1
1
1
1
1
1
1
1
1
1
1
1
1
1
1
1
1
1
1
1
1
1
1
1
1
1
1
1
1
1
1
1
1
1
1
1
1
1
1
1
1
1
1
1
1
1
1
1
1
1
1
1
1
1
1
1
1
1
1
1
1
1
1
1
1
1
1
1
1
1
1
1
1
1
1
1
1
1
1
1
1
1
1
1
1
1
1
1
1
1
1
1
1
1
1
1
1
1
1
1
1
1
1
1
1
1
1
1
1
1
1
1
1
1
1
1
1
1
1
1
1
1
1
1
1
1
1
1
1
1
1
1
1
1
1
1
1
1
1
1
1
1
1
1
1
1
1
1
1
1
1
1
1
1
1
1
1
1
1
1
1
1
1
1
1
1
1
1
1
1
1
1
1
1
1
1
1
1
1
1
1
1
1
1
1
1
1
1
1
1
1
1
1
1
1
1
1
1
1
1
1
1
1
1
1
1
1
1
1
1
1
1
1
1
1
1
1
1
1
1
1
1
1
1
1
1
1
1
1
1
1
1
1
1
1
1
1
1
1
1
1
1
1
1
1
1
1
1
1
1
1
1
1
1
1
1
1
1
1
1
1
1
1
1
1
1
1
1
1
1
1
1
1
1
1
1
1
1
1
1
1
1
1
1
1
1
1
1
1
1
1
1
1
1
1
1
1
1
1
1
1
1
1
1
1
1
1
1
1
1
1
1
1
1
1
1
1
1
1
1
1
1
1
1
1
1
1
1
1
1
1
1
1
1
1
1
1
1
1
1
1
1
1
1
1
1
1
1
1
1
1
1
1
1
1
1
1
1
1
1
1
1
1
1
1
1
1
1
1
1
1
1
1
1
1
1
1
1
1
1
1
1
1
1
1
1
1
1
1
1
1
1
1
1
1
1
1
1
1
1
1
1
1
1
1
1
1
1
1
1
1
1
1
1
1
1
1
1
1
1
1
1
1
1
1
1
1
1
1
1
1
1
1
1
1
1
1
1
1
1
1
1
1
1
1
1
1
1
1
1
1
1
1
1
1
1
1
1
1
1
1
1
1
1
1
1
1
1
1
1
1
1
1
1
1
1
1
1
1
1
1
1
1
1
1
1
1
1
1
1
1
1
1
1
1
1
1
1
1
1
1
1
1
1
1
1
1
1
1
1
1
1
1
1
1
1
1
1
1
1
1
1
1
1
1
1
1
1
1
1
1
1
1
1
1
1
1
1
1
1
1
1
1
1
1
1
1
1
1
1
1
1
1
1
1
1
1
1
1
1
1
1
1
1
1
1
1
1
1
1
1
1
1
1
1
1
1
1
1
1
1
1
1
1
1
1
1
1
1
1
1
1
1
1
1
1
1
1
1
1
1
1
1
1
1
1
1
1
1
1
1
1
1
1
1
1
1
1
1
1
1
1
1
1
1
1
1
1
1
1
1
1
1
1
1
1
1
1
1
1
1
1
1
1
1
1
1
1
1
1
1
1
1
1
1
1
1
1
1
1
1
1
1
1
1
1
1
1
1
1
1
1
1
1
1
1
1
1
1
1
1
1
1
1
1
1
1
1
1
1
1
1
1
1
1
1
1
1
1
1
1
1
1
1
1
1
1
1
1
1
1
1
1
1
1
1
1
1
1
1
1
1
1
1
1
1
1
1
1
1
1
1
1
1
1
1
1
1
1
1
1
1
1
1
1
1
1
1
1
1
1
1
1
1
1
1
1
1
1
1
1
1
1
1
1
1
1
1
1
1
1
1
1
1
1
1
1
1
1
1
1
1
1
1
1
1
1
1
1
1
1
1
1
1
1
1
1
1
1
1
1
1
1
1
1
1
1
1
1
1
1
1
1
1
1
1
1
1
1
1
1
1
1
1
1
1
1
1
1
1
1
1
1
1
1
1
1
1
1
1
1
1
1
1
1
1
1
1
1
1
1
1
1
1
1
1
1
1
1
1
1
1
1
1
1
1
1
1
1
1
1
1
1
1
1
1
1
1
1
1
1
1
1
1
1
1
1
1
1
1
1
1
1
1
1
1
1
1
1
1
1
1
1
1
1
1
1
1
1
1
1
1
1
1
1
1
1
1
1
1
1
1
1
1
1
1
1
1
1
1
1
1
1
1
1
1
1
1
1
1
1
1
1
1
1
1
1
1
1
1
1
1
1
1
1
1
1
1
1
1
1
1
1
1
1
1
1
1
1
1
1
1
1
1
1
1
1
1
1
1
1
1
1
1
1
1
1
1
1
1
1
1
1
1
1
1
1
1
1
1
1
1
1
1
1
1
1
1
1
1
1
1
1
1
1
1
1
1
1
1
1
1
1
1
1
1
1
1
1
1
1
1
1
1
1
1
1
1
1
1
1
1
1
1
1
1
1
1
1
1
1
1
1
1
1
1
1
1
1
1
1
1
1
1
1
1
1
1
1
1
1
1
1
1
1
1
1
1
1
1
1
1
1
1
1
1
1
1
1
1
1
1
1
1
1
1
1
1
1
1
1
1
1
1
1
1
1
1
1
1
1
1
1
1
1
1
1
1
1
1
1
1
1
1
1
1
1
1
1
1
1
1
1
1
1
1
1
1
1
1
1
1
1
1
1
1
1
1
1
1
1
1
1
1
1
1
1
1
1
1
1
1
1
1
1
1
1
1
1
1
1
1
1
1
1
1
1
1
1
1
1
1
1
1
1
1
1
1
1
1
1
1
1
1
1
1
1
1
1
1
1
1
1
1
1
1
1
1
1
1
1
1
1
1
1
1
1
1
1
1
1
1
1
1
1
1
1
1
1
1
1
1
1
1
1
1
1
1
1
1
1
1
1
1
1
1
1
1
1
1
1
1
1
1
1
1
1
1
1
1
1
1
1
1
1
1
1
1
1
1
1
1
1
1
1
1
1
1
1
1
1
1
1
1
1
1
1
1
1
1
1
1
1
1
1
1
1
1
1
1
1
1
1
1
1
1
1
1
1
1
1
1
1
1
1
1
1
1
1
1
1
1
1
1
1
1
1
1
1
1
1
1
1
1
1
1
1
1
1
1
1
1
1
1
1
1
1
1
1
1
1
1
1
1
1
1
1
1
1
1
1
1
1
1
1
1
1
1
1
1
1
1
1
1
1
1
1
1
1
1
1
1
1
1
1
1
1
1
1
1
1
1
1
1
1
1
1
1
1
1
1
1
1
1
1
1
1
1
1
1
1
1
1
1
1
1
1
1
1
1
1
1
1
1
1
1
1
1
1
1
1
1
1
1
1
1
1
1
1
1
1
1
1
1
1
1
1
1
1
1
1
1
1
1
1
1
1
1
1
1
1
1
1
1
1
1
1
1
1
1
1
1
1
1
1
1
1
1
1
1
1
1
1
1
1
1
1
1
1
1
1
1
1
1
1
1
1
1
1
1
1
1
1
1
1
1
1
1
1
1
1
1
1
1
1
1
1
1
1
1
1
1
1
1
1
1
1
1
1
1
1
1
1
1
1
1
1
1
1
1
1
1
1
1
1
1
1
1
1
1
1
1
1
1
1
1
1
1
1
1
1
1
1
1
1
1
1
1
1
1
1
1
1
1
1
1
1
1
1
1
1
1
1
1
1
1
1
1
1
1
1
1
1
1
1
1
1
1
1
1
1
1
1
1
1
1
1
1
1
1
1
1
1
1
1
1
1
1
1
1
1
1
1
1
1
1
1
1
1
1
1
1
1
1
1
1
1
1
1
1
1
1
1
1
1
1
1
1
1
1
1
1
1
1
1
1
1
1
1
1
1
1
1
1
1
1
1
1
1
1
1
1
1
1
1
1
1
1
1
1
1
1
1
1
1
1
1
1
1
1
1
1
1
1
1
1
1
1
1
1
1
1
1
1
1
1
1
1
1
1
1
1
1
1
1
1
1
1
1
1
1
1
1
1
1
1
1
1
1
1
1
1
1
1
1
1
1
1
1
1
1
1
1
1
1
1
1
1
1
1
1
1
1
1
1
1
1
1
1
1
1
1
1
1
1
1
1
1
1
1
1
1
1
1
1
1
1
1
1
1
1
1
1
1
1
1
1
1
1
1
1
1
1
1
1
1
1
1
1
1
1
1
1
1
1
1
1
1
1
1
1
1
1
1
1
1
1
1
1
1
1
1
1
1
1
1
1
1
1
1
1
1
1
1
1
1
1
1
1
1
1
1
1
1
1
1
1
1
1
1
1
1
1
1
1
1
1
1
1
1
1
1
1
1
1
1
1
1
1
1
1
1
1
1
1
1
1
1
1
1
1
1
1
1
1
1
1
1
1
1
1
1
1
1
1
1
1
1
1
1
1
1
1
1
1
1
1
1
1
1
1
1
1
1
1
1
1
1
1
1
1
1
1
1
1
1
1
1
1
1
1
1
1
1
1
1
1
1
1
1
1
1
1
1
1
1
1
1
1
1
1
1
1
1
1
1
1
1
1
1
1
1
1
1
1
1
1
1
1
1
1
1
1
1
1
1
1
1
1
1
1
1
1
1
1
1
1
1
1
1
1
1
1
1
1
1
1
1
1
1
1
1
1
1
1
1
1
1
1
1
1
1
1
1
1
1
1
1
1
1
1
1
1
1
1
1
1
1
1
1
1
1
1
1
1
1
1
1
1
1
1
1
1
1
1
1
1
1
1
1
1
1
1
1
1
1
1
1
1
1
1
1
1
1
1
1
1
1
1
1
1
1
1
1
1
1
1
1
1
1
1
1
1
1
1
1
1
1
1
1
1
1
1
1
1
1
1
1
1
1
1
1
1
1
1
1
1
1
1
1
1
1
1
1
1
1
1
1
1
1
1
1
1
1
1
1
1
1
1
1
1
1
1
1
1
1
1
1
1
1
1
1
1
1
1
1
1
1
1
1
1
1
1
1
1
1
1
1
1
1
1
1
1
1
1
1
1
1
1
1
1
1
1
1
1
1
1
1
1
1
1
1
1
1
1
1
1
1
1
1
1
1
1
1
1
1
1
1
1
1
1
1
1
1
1
1
1
1
1
1
1
1
1
1
1
1
1
1
1
1
1
1
1
1
1
1
1
1
1
1
1
1
1
1
1
1
1
1
1
1
1
1
1
1
1
1
1
1
1
1
1
1
1
1
1
1
1
1
1
1
1
1
1
1
1
1
1
1
1
1
1
1
1
1
1
1
1
1
1
1
1
1
1
1
1
1
1
1
1
1
1
1
1
1
1
1
1
1
1
1
1
1
1
1
1
1
1
1
1
1
1
1
1
1
1
1
1
1
1
1
1
1
1
1
1
1
1
1
1
1
1
1
1
1
1
1
1
1
1
1
1
1
1
1
1
1
1
1
1
1
1
1
1
1
1
1
1
1
1
1
1
1
1
1
1
1
1
1
1
1
1
1
1
1
1
1
1
1
1
1
1
1
1
1
1
1
1
1
1
1
1
1
1
1
1
1
1
1
1
1
1
1
1
1
1
1
1
1
1
1
1
1
1
1
1
1
1
1
1
1
1
1
1
1
1
1
1
1
1
1
1
1
1
1
1
1
1
1
1
1
1
1
1
1
1
1
1
1
1
1
1
1
1
1
1
1
1
1
1
1
1
1
1
1
1
1
1
1
1
1
1
1
1
1
1
1
1
1
1
1
1
1
1
1
1
1
1
1
1
1
1
1
1
1
1
1
1
1
1
1
1
1
1
1
1
1
1
1
1
1
1
1
1
1
1
1
1
1
1
1
1
1
1
1
1
1
1
1
1
1
1
1
1
1
1
1
1
1
1
1
1
1
1
1
1
1
1
1
1
1
1
1
1
1
1.28964
1.75217
2.33274
2.88538
3.55011
4.19072
4.65055
5.1012
5.34512
5.26684
4.94153
4.46588
4.06397
3.78837
3.66849
3.58305
3.56156
3.58138
3.61404
3.6484
3.68575
3.71005
3.72543
3.73266
3.73903
3.74711
3.7566
3.76315
3.76533
3.76748
3.77464
3.78754
3.79743
3.79921
3.7975
3.79239
3.78295
3.7741
3.76922
3.7675
3.76735
3.76716
3.76873
3.77011
3.77034
3.76976
3.76658
3.76514
1.00243
1.01465
1.06971
1.20736
1.40903
1.76708
2.21889
2.75551
3.3112
3.73872
3.90295
4.03691
4.0438
3.96345
3.84535
3.77817
3.74043
3.70957
3.67394
3.66659
3.67627
3.69944
3.72781
3.74785
3.75488
3.75453
3.75444
3.75786
3.75873
3.75964
3.76325
3.76941
3.77457
3.77852
3.7792
3.77726
3.77351
3.76995
3.76901
3.7695
3.77109
3.77496
3.77857
3.77914
3.7787
3.77679
3.77158
3.76905
1
0.999978
1.00005
1.0001
1.00134
1.01322
1.06268
1.21977
1.60687
2.33939
3.32978
3.90491
4.31319
4.32763
4.26014
4.11734
3.95786
3.77553
3.67051
3.66683
3.67676
3.69694
3.73161
3.75772
3.76455
3.7664
3.76456
3.76368
3.76623
3.76917
3.771
3.77301
3.77269
3.77128
3.76791
3.76346
3.76019
3.75933
3.7602
3.76253
3.76731
3.77506
3.78225
3.78462
3.78459
3.78333
3.77892
3.77634
1
1
1
1
0.999998
0.999998
1.00004
1.00007
1.00584
1.06758
1.43123
2.12677
3.20889
3.81687
4.03121
4.02604
3.92981
3.88129
3.831
3.76236
3.744
3.71824
3.70327
3.70719
3.72116
3.73532
3.74608
3.75817
3.76802
3.77397
3.77914
3.78081
3.78019
3.77868
3.77439
3.77056
3.76825
3.76634
3.7662
3.76825
3.77262
3.77829
3.78213
3.78213
3.78002
3.77628
3.77182
3.77104
1
1
1
1
1
1
1
1
1
0.999924
1.00219
1.04359
1.29112
1.9997
2.81981
3.74906
3.97258
4.01855
3.98307
3.9213
3.80696
3.73589
3.69015
3.669
3.67053
3.68111
3.69505
3.71436
3.73443
3.75043
3.76419
3.77402
3.77782
3.77875
3.77792
3.77742
3.77698
3.77592
3.77588
3.77809
3.78232
3.78578
3.78603
3.78384
3.78019
3.77364
3.76773
3.76739
1
1
1
1
1
1
1
1
1
0.999997
0.999998
0.999955
1.00069
1.03282
1.20917
1.81938
2.70117
3.44506
3.91929
3.91861
3.87034
3.8282
3.78042
3.73995
3.70795
3.69143
3.68686
3.69233
3.71375
3.73688
3.7545
3.7679
3.77326
3.77453
3.77422
3.77391
3.77247
3.77031
3.76983
3.7722
3.77598
3.77626
3.77389
3.77097
3.7672
3.76298
3.75996
3.76269
1
1
1
1
1
1
1
1
1
1
1
0.999998
0.999998
0.999968
1.00045
1.01829
1.2028
1.65972
2.56268
3.20602
3.72373
3.87927
3.87726
3.84537
3.79015
3.75769
3.73409
3.71755
3.71888
3.72893
3.74321
3.76192
3.76888
3.77275
3.77168
3.76977
3.76719
3.76471
3.76373
3.76763
3.77198
3.77256
3.77135
3.76971
3.76846
3.76808
3.76649
3.76948
1
1
1
1
1
1
1
1
1
1
1
1
1
0.999998
0.999998
0.999971
1.00064
1.0119
1.15028
1.59663
2.40457
3.1552
3.49267
3.71142
3.77551
3.78166
3.76405
3.73903
3.73877
3.74165
3.74678
3.75143
3.75955
3.76514
3.7651
3.7655
3.76554
3.7659
3.76969
3.77576
3.77907
3.77919
3.77815
3.77596
3.77465
3.77415
3.77348
3.77415
1
1
1
1
1
1
1
1
1
1
1
1
1
1
1
0.999998
0.999998
0.999981
1.00041
1.01242
1.11115
1.57249
2.25614
3.1342
3.47389
3.61709
3.67395
3.69796
3.72117
3.71924
3.71552
3.72171
3.7307
3.74105
3.75263
3.7605
3.76618
3.77125
3.7765
3.78196
3.78287
3.78266
3.78238
3.78035
3.77598
3.77374
3.77339
3.7733
1
1
1
1
1
1
1
1
1
1
1
1
1
1
1
1
1
0.999998
0.999998
0.999985
1.00024
1.01406
1.10485
1.49209
2.24007
2.98754
3.54365
3.63958
3.6973
3.70589
3.6998
3.70347
3.70765
3.71561
3.72746
3.74067
3.75354
3.76557
3.77359
3.7773
3.7778
3.77769
3.7789
3.77854
3.77561
3.77337
3.77375
3.77341
1
1
1
1
1
1
1
1
1
1
1
1
1
1
1
1
1
1
1
0.999999
0.999999
0.999988
1.00031
1.00981
1.12154
1.45477
2.22831
2.9391
3.49031
3.70352
3.73775
3.74299
3.74624
3.74015
3.73872
3.7465
3.75492
3.7657
3.77528
3.7781
3.77665
3.77368
3.77274
3.77104
3.76804
3.76603
3.76701
3.76723
1
1
1
1
1
1
1
1
1
1
1
1
1
1
1
1
1
1
1
1
1
0.999998
0.999999
0.999987
1.00055
1.00883
1.12158
1.50445
2.25676
2.95649
3.41877
3.66177
3.7418
3.74882
3.76287
3.77058
3.7713
3.77482
3.78264
3.78679
3.78633
3.78284
3.77984
3.7752
3.77103
3.77023
3.77052
3.77066
1
1
1
1
1
1
1
1
1
1
1
1
1
1
1
1
1
1
1
1
1
1
1
0.999998
0.999999
0.999989
1.00077
1.01336
1.12104
1.57765
2.31879
3.13289
3.42313
3.56889
3.69193
3.739
3.73869
3.7507
3.76417
3.772
3.77643
3.77495
3.77268
3.77194
3.77258
3.7751
3.77761
3.77795
1
1
1
1
1
1
1
1
1
1
1
1
1
1
1
1
1
1
1
1
1
1
1
1
1
0.999998
0.999999
0.999995
1.00083
1.02265
1.14772
1.66994
2.44113
3.2853
3.58313
3.64142
3.67349
3.70076
3.72694
3.73939
3.74338
3.74738
3.75362
3.76383
3.77155
3.77327
3.77515
3.77677
1
1
1
1
1
1
1
1
1
1
1
1
1
1
1
1
1
1
1
1
1
1
1
1
1
1
1
0.999999
0.999997
1.00002
1.0013
1.0348
1.2179
1.83862
2.67703
3.35573
3.70022
3.74558
3.75909
3.76243
3.75125
3.74856
3.75615
3.76629
3.77333
3.77484
3.77631
3.77732
1
1
1
1
1
1
1
1
1
1
1
1
1
1
1
1
1
1
1
1
1
1
1
1
1
1
1
1
1
1
0.999998
1.00011
1.00314
1.05832
1.36047
2.08132
2.90828
3.45702
3.71128
3.76814
3.76884
3.78631
3.7901
3.79148
3.79193
3.79048
3.78767
3.78496
1
1
1
1
1
1
1
1
1
1
1
1
1
1
1
1
1
1
1
1
1
1
1
1
1
1
1
1
1
1
1
1
0.999996
1.00037
1.00913
1.11022
1.58311
2.46595
3.21935
3.48547
3.63476
3.74946
3.75279
3.7643
3.7781
3.78465
3.78755
3.78501
1
1
1
1
1
1
1
1
1
1
1
1
1
1
1
1
1
1
1
1
1
1
1
1
1
1
1
1
1
1
1
1
0.999999
0.999999
1
1.00137
1.02932
1.22942
1.90424
2.85839
3.54838
3.63197
3.66901
3.70581
3.73781
3.7599
3.76818
3.76783
1
1
1
1
1
1
1
1
1
1
1
1
1
1
1
1
1
1
1
1
1
1
1
1
1
1
1
1
1
1
1
1
1
1
1
0.999998
1.0001
1.00522
1.0871
1.49046
2.40508
3.23124
3.69687
3.77371
3.78361
3.78732
3.77935
3.76617
1
1
1
1
1
1
1
1
1
1
1
1
1
1
1
1
1
1
1
1
1
1
1
1
1
1
1
1
1
1
1
1
1
1
1
1
0.999999
1
1.00095
1.02365
1.25399
1.94626
2.90058
3.45872
3.73602
3.79655
3.79653
3.79331
1
1
1
1
1
1
1
1
1
1
1
1
1
1
1
1
1
1
1
1
1
1
1
1
1
1
1
1
1
1
1
1
1
1
1
1
1
1
0.999999
1.00013
1.00686
1.09632
1.60638
2.62065
3.37892
3.56752
3.67799
3.7368
1
1
1
1
1
1
1
1
1
1
1
1
1
1
1
1
1
1
1
1
1
1
1
1
1
1
1
1
1
1
1
1
1
1
1
1
1
1
1
0.999999
1.00001
1.00169
1.04161
1.35289
2.2073
3.21021
3.64866
3.71301
1
1
1
1
1
1
1
1
1
1
1
1
1
1
1
1
1
1
1
1
1
1
1
1
1
1
1
1
1
1
1
1
1
1
1
1
1
1
1
1
1
1
1.00035
1.01666
1.18775
1.91626
2.90226
3.60979
1
1
1
1
1
1
1
1
1
1
1
1
1
1
1
1
1
1
1
1
1
1
1
1
1
1
1
1
1
1
1
1
1
1
1
1
1
1
1
1
1
1
1
1.00012
1.00496
1.11107
1.68085
2.80133
1
1
1
1
1
1
1
1
1
1
1
1
1
1
1
1
1
1
1
1
1
1
1
1
1
1
1
1
1
1
1
1
1
1
1
1
1
1
1
1
1
1
1
1
1.00002
1.00277
1.06437
1.44468
1
1
1
1
1
1
1
1
1
1
1
1
1
1
1
1
1
1
1
1
1
1
1
1
1
1
1
1
1
1
1
1
1
1
1
1
1
1
1
1
1
1
1
1
1
1.00001
1.00117
1.01705
1
1
1
1
1
1
1
1
1
1
1
1
1
1
1
1
1
1
1
1
1
1
1
1
1
1
1
1
1
1
1
1
1
1
1
1
1
1
1
1
1
1
1
1
1
1
1.00001
0.999827
1
1
1
1
1
1
1
1
1
1
1
1
1
1
1
1
1
1
1
1
1
1
1
1
1
1
1
1
1
1
1
1
1
1
1
1
1
1
1
1
1
1
1
1
1
1
1
0.999939
1
1
1
1
1
1
1
1
1
1
1
1
1
1
1
1
1
1
1
1
1
1
1
1
1
1
1
1
1
1
1
1
1
1
1
1
1
1
1
1
1
1
1
1
1
1
1
0.99999
1
1
1
1
1
1
1
1
1
1
1
1
1
1
1
1
1
1
1
1
1
1
1
1
1
1
1
1
1
1
1
1
1
1
1
1
1
1
1
1
1
1
1
1
1
1
1
1
1
1
1
1
1
1
1
1
1
1
1
1
1
1
1
1
1
1
1
1
1
1
1
1
1
1
1
1
1
1
1
1
1
1
1
1
1
1
1
1
1
1
1
1
1
1
1
1
1
1
1
1
1
1
1
1
1
1
1
1
1
1
1
1
1
1
1
1
1
1
1
1
1
1
1
1
1
1
1
1
1
1
1
1
1
1
1
1
1
1
1
1
1
1
1
1
1
1
1
1
1
1
1
1
1
1
1
1
1
1
1
1
1
1
1
1
1
1
1
1
1
1
1
1
1
1
1
1
1
1
1
1
1
1
1
1
1
1
1
1
1
1
1
1
1
1
1
1
1
1
1
1
1
1
1
1
1
1
1
1
1
1
1
1
1
1
1
1
1
1
1
1
1
1
1
1
1
1
1
1
1
1
1
1
1
1
1
1
1
1
1
1
1
1
1
1
1
1
1
1
1
1
1
1
1
1
1
1
1
1
1
1
1
1
1
1
1
1
1
1
1
1
1
1
1
1
1
1
1
1
1
1
1
1
1
1
1
1
1
1
1
1
1
1
1
1
1
1
1
1
1
1
1
1
1
1
1
1
1
1
1
1
1
1
1
1
1
1
1
1
1
1
1
1
1
1
1
1
1
1
1
1
1
1
1
1
1
0.99999
1
1
1
1
1
1
1
1
1
1
1
1
1
1
1
1
1
1
1
1
1
1
1
1
1
1
1
1
1
1
1
1
1
1
1
1
1
1
1
1
1
1
1
1
1
1
1
0.999939
1
1
1
1
1
1
1
1
1
1
1
1
1
1
1
1
1
1
1
1
1
1
1
1
1
1
1
1
1
1
1
1
1
1
1
1
1
1
1
1
1
1
1
1
1
1
1.00001
0.999828
1
1
1
1
1
1
1
1
1
1
1
1
1
1
1
1
1
1
1
1
1
1
1
1
1
1
1
1
1
1
1
1
1
1
1
1
1
1
1
1
1
1
1
1
1
1.00001
1.00117
1.01703
1
1
1
1
1
1
1
1
1
1
1
1
1
1
1
1
1
1
1
1
1
1
1
1
1
1
1
1
1
1
1
1
1
1
1
1
1
1
1
1
1
1
1
1
1.00002
1.00277
1.06441
1.44454
1
1
1
1
1
1
1
1
1
1
1
1
1
1
1
1
1
1
1
1
1
1
1
1
1
1
1
1
1
1
1
1
1
1
1
1
1
1
1
1
1
1
1
1.00012
1.00496
1.11107
1.68092
2.80116
1
1
1
1
1
1
1
1
1
1
1
1
1
1
1
1
1
1
1
1
1
1
1
1
1
1
1
1
1
1
1
1
1
1
1
1
1
1
1
1
1
1
1.00035
1.01666
1.18774
1.91631
2.9022
3.60977
1
1
1
1
1
1
1
1
1
1
1
1
1
1
1
1
1
1
1
1
1
1
1
1
1
1
1
1
1
1
1
1
1
1
1
1
1
1
1
0.999999
1.00001
1.00169
1.04162
1.35288
2.20728
3.21022
3.64869
3.713
1
1
1
1
1
1
1
1
1
1
1
1
1
1
1
1
1
1
1
1
1
1
1
1
1
1
1
1
1
1
1
1
1
1
1
1
1
1
0.999999
1.00013
1.00686
1.09632
1.6064
2.62062
3.37898
3.5675
3.678
3.73681
1
1
1
1
1
1
1
1
1
1
1
1
1
1
1
1
1
1
1
1
1
1
1
1
1
1
1
1
1
1
1
1
1
1
1
1
0.999999
1
1.00095
1.02365
1.25398
1.94627
2.90057
3.45871
3.73604
3.79653
3.79652
3.79331
1
1
1
1
1
1
1
1
1
1
1
1
1
1
1
1
1
1
1
1
1
1
1
1
1
1
1
1
1
1
1
1
1
1
1
0.999998
1.0001
1.00522
1.0871
1.49045
2.40507
3.23125
3.69687
3.77371
3.78362
3.78732
3.77934
3.76617
1
1
1
1
1
1
1
1
1
1
1
1
1
1
1
1
1
1
1
1
1
1
1
1
1
1
1
1
1
1
1
1
0.999999
0.999999
1
1.00137
1.02932
1.22942
1.90425
2.85838
3.54839
3.63197
3.66901
3.70581
3.73781
3.75989
3.76817
3.76783
1
1
1
1
1
1
1
1
1
1
1
1
1
1
1
1
1
1
1
1
1
1
1
1
1
1
1
1
1
1
1
1
0.999996
1.00037
1.00913
1.11022
1.58311
2.46595
3.21934
3.48547
3.63477
3.74946
3.75279
3.7643
3.7781
3.78465
3.78755
3.785
1
1
1
1
1
1
1
1
1
1
1
1
1
1
1
1
1
1
1
1
1
1
1
1
1
1
1
1
1
1
0.999998
1.00011
1.00314
1.05832
1.36047
2.08132
2.90828
3.45703
3.71128
3.76813
3.76884
3.78631
3.7901
3.79147
3.79193
3.79048
3.78767
3.78496
1
1
1
1
1
1
1
1
1
1
1
1
1
1
1
1
1
1
1
1
1
1
1
1
1
1
1
0.999999
0.999997
1.00002
1.0013
1.0348
1.2179
1.83862
2.67703
3.35573
3.70022
3.74558
3.7591
3.76244
3.75126
3.74856
3.75615
3.76629
3.77333
3.77484
3.77631
3.77732
1
1
1
1
1
1
1
1
1
1
1
1
1
1
1
1
1
1
1
1
1
1
1
1
1
0.999998
0.999999
0.999995
1.00083
1.02265
1.14772
1.66994
2.44113
3.2853
3.58314
3.64142
3.67349
3.70076
3.72694
3.73939
3.74338
3.74738
3.75362
3.76383
3.77155
3.77327
3.77515
3.77677
1
1
1
1
1
1
1
1
1
1
1
1
1
1
1
1
1
1
1
1
1
1
1
0.999998
0.999999
0.999989
1.00077
1.01336
1.12104
1.57765
2.31879
3.13289
3.42313
3.56889
3.69193
3.739
3.73869
3.7507
3.76417
3.772
3.77643
3.77495
3.77268
3.77194
3.77258
3.7751
3.77761
3.77796
1
1
1
1
1
1
1
1
1
1
1
1
1
1
1
1
1
1
1
1
1
0.999998
0.999999
0.999987
1.00055
1.00883
1.12158
1.50445
2.25676
2.9565
3.41877
3.66177
3.7418
3.74882
3.76287
3.77058
3.7713
3.77482
3.78264
3.78679
3.78633
3.78284
3.77984
3.7752
3.77103
3.77024
3.77052
3.77067
1
1
1
1
1
1
1
1
1
1
1
1
1
1
1
1
1
1
1
0.999999
0.999999
0.999988
1.00031
1.00981
1.12154
1.45477
2.22831
2.9391
3.49031
3.70352
3.73775
3.74299
3.74624
3.74015
3.73872
3.7465
3.75492
3.7657
3.77528
3.7781
3.77665
3.77368
3.77274
3.77104
3.76804
3.76603
3.76701
3.76723
1
1
1
1
1
1
1
1
1
1
1
1
1
1
1
1
1
0.999998
0.999998
0.999985
1.00024
1.01406
1.10485
1.49209
2.24007
2.98754
3.54365
3.63958
3.6973
3.70589
3.6998
3.70347
3.70765
3.71561
3.72746
3.74067
3.75354
3.76557
3.77359
3.7773
3.7778
3.77769
3.7789
3.77854
3.77561
3.77337
3.77375
3.77341
1
1
1
1
1
1
1
1
1
1
1
1
1
1
1
0.999998
0.999998
0.999981
1.00041
1.01242
1.11115
1.57249
2.25614
3.1342
3.4739
3.61709
3.67395
3.69796
3.72117
3.71923
3.71552
3.72171
3.7307
3.74105
3.75263
3.7605
3.76618
3.77125
3.7765
3.78196
3.78287
3.78266
3.78238
3.78035
3.77598
3.77374
3.77339
3.7733
1
1
1
1
1
1
1
1
1
1
1
1
1
0.999998
0.999998
0.999971
1.00064
1.0119
1.15028
1.59663
2.40457
3.1552
3.49267
3.71142
3.77551
3.78166
3.76405
3.73903
3.73877
3.74165
3.74678
3.75143
3.75955
3.76514
3.7651
3.7655
3.76554
3.7659
3.76969
3.77576
3.77907
3.77919
3.77815
3.77596
3.77465
3.77415
3.77348
3.77415
1
1
1
1
1
1
1
1
1
1
1
0.999998
0.999998
0.999968
1.00045
1.01829
1.2028
1.65972
2.56268
3.20602
3.72373
3.87927
3.87726
3.84537
3.79015
3.7577
3.73409
3.71755
3.71888
3.72893
3.74321
3.76192
3.76888
3.77275
3.77168
3.76977
3.76719
3.76471
3.76373
3.76763
3.77198
3.77256
3.77135
3.76971
3.76846
3.76808
3.76649
3.76948
1
1
1
1
1
1
1
1
1
0.999997
0.999998
0.999955
1.00069
1.03282
1.20917
1.81938
2.70117
3.44506
3.91929
3.91861
3.87034
3.8282
3.78042
3.73995
3.70795
3.69143
3.68686
3.69233
3.71375
3.73688
3.7545
3.7679
3.77326
3.77453
3.77422
3.77391
3.77247
3.77031
3.76983
3.7722
3.77598
3.77626
3.77389
3.77097
3.7672
3.76298
3.75996
3.76269
1
1
1
1
1
1
1
1
1
0.999924
1.00219
1.04359
1.29112
1.9997
2.81981
3.74906
3.97258
4.01855
3.98307
3.9213
3.80696
3.73589
3.69015
3.669
3.67053
3.68111
3.69505
3.71436
3.73443
3.75043
3.76419
3.77402
3.77782
3.77875
3.77792
3.77742
3.77698
3.77592
3.77588
3.77809
3.78232
3.78578
3.78603
3.78384
3.78019
3.77364
3.76774
3.76739
1
1
1
1
0.999998
0.999998
1.00004
1.00007
1.00584
1.06758
1.43123
2.12677
3.20889
3.81687
4.03121
4.02604
3.92981
3.88129
3.831
3.76236
3.744
3.71824
3.70327
3.70719
3.72116
3.73532
3.74608
3.75817
3.76802
3.77397
3.77914
3.78081
3.78019
3.77868
3.77439
3.77056
3.76825
3.76634
3.7662
3.76825
3.77262
3.77829
3.78213
3.78213
3.78002
3.77628
3.77182
3.77104
1
0.999978
1.00005
1.0001
1.00134
1.01322
1.06268
1.21977
1.60687
2.33939
3.32978
3.90491
4.31319
4.32763
4.26014
4.11734
3.95786
3.77553
3.67051
3.66683
3.67676
3.69694
3.73161
3.75772
3.76455
3.7664
3.76456
3.76368
3.76623
3.76917
3.771
3.77301
3.77269
3.77129
3.76791
3.76346
3.76019
3.75933
3.7602
3.76253
3.76731
3.77506
3.78225
3.78462
3.78459
3.78333
3.77892
3.77634
1.00243
1.01465
1.06971
1.20736
1.40903
1.76708
2.21889
2.75551
3.3112
3.73872
3.90295
4.03691
4.04379
3.96345
3.84535
3.77817
3.74043
3.70957
3.67394
3.66659
3.67627
3.69944
3.72781
3.74785
3.75488
3.75453
3.75444
3.75786
3.75873
3.75964
3.76325
3.76941
3.77457
3.77852
3.7792
3.77726
3.77351
3.76995
3.76901
3.7695
3.77109
3.77496
3.77857
3.77914
3.7787
3.77679
3.77158
3.76905
1.28964
1.75217
2.33274
2.88538
3.55011
4.19072
4.65055
5.1012
5.34512
5.26684
4.94153
4.46588
4.06397
3.78837
3.66849
3.58305
3.56156
3.58138
3.61404
3.6484
3.68575
3.71005
3.72543
3.73266
3.73903
3.74711
3.7566
3.76315
3.76533
3.76748
3.77464
3.78753
3.79743
3.79921
3.7975
3.79239
3.78295
3.7741
3.76922
3.7675
3.76735
3.76716
3.76873
3.77011
3.77034
3.76976
3.76658
3.76514
2.65225
1.73746
1.06463
0.776386
0.756288
0.70183
0.678512
0.715098
0.800284
0.857239
0.880983
0.929503
0.998317
1.03073
1.03288
1.04162
1.06429
1.06691
1.06455
1.06679
1.0671
1.06331
1.06107
1.06324
1.06598
1.0625
1.04689
1.03775
1.03846
1.04059
1.04254
1.04337
1.04317
1.04322
1.04285
1.0407
1.04026
1.04125
1.04478
1.04922
1.05014
1.05016
1.04974
1.04819
1.04756
1.04751
1.04728
1.04892
1.05754
1.20319
1.92487
3.33284
5.24701
7.85373
10.3142
10.1395
9.30457
8.29467
7.92846
7.91334
7.79318
7.61222
7.44638
7.27941
7.07706
6.86815
6.74057
6.63621
6.53073
6.40174
6.19691
5.93563
5.77205
5.69614
5.6523
5.64733
5.60193
5.52582
5.40337
5.16193
4.87951
4.75892
4.70503
4.67328
4.69382
4.68497
4.63601
4.55917
4.38166
4.18847
4.11541
4.07528
4.03338
3.98738
3.93079
3.84403
3.69685
3.59464
3.56309
3.53942
3.52854
3.51429
3.48469
3.43931
3.32893
3.15908
3.07919
3.05364
3.03143
3.01331
3.00267
2.98491
2.96328
2.93655
2.88351
2.77733
2.65572
2.59069
2.55792
2.53115
2.50814
2.48938
2.47357
2.45748
2.43901
2.41433
2.37864
2.32873
2.26376
2.20482
2.17499
2.15665
2.13975
2.12293
2.10577
2.08661
2.06304
2.02867
1.97847
1.93303
1.9071
1.88875
1.86768
1.84319
1.83319
1.83117
1.84845
1.93861
2.17592
2.61931
3.22396
3.79904
4.28833
4.73598
5.06956
5.19941
5.08247
4.88655
4.74805
4.70778
4.68008
4.61992
4.55507
4.45449
4.30714
4.24095
4.21979
4.20781
4.21692
4.24616
4.2319
4.19998
4.15725
4.07653
3.94284
3.84548
3.81038
3.78721
3.76857
3.76467
3.76681
3.75581
3.73906
3.71274
3.64778
3.55585
3.51
3.49034
3.47376
3.45659
3.44057
3.39963
3.35462
2.76877
2.23221
1.68694
1.45196
1.30277
1.11185
1.04833
1.02067
0.961132
0.911281
0.909117
0.932572
0.951027
0.961578
0.976562
1.00593
1.01256
1.01652
1.02429
1.04169
1.05292
1.05707
1.05985
1.06007
1.05612
1.04487
1.04173
1.0428
1.0444
1.04658
1.0484
1.04886
1.04911
1.04791
1.04577
1.04505
1.04508
1.04622
1.04727
1.04759
1.04779
1.04747
1.0466
1.04557
1.04412
1.04519
1.05944
1.19217
1.90265
2.81093
3.18646
3.88946
4.82076
6.63319
8.08279
8.65375
8.48398
8.2062
7.99636
7.75991
7.60802
7.47821
7.31864
7.10945
6.89412
6.71883
6.61474
6.50634
6.37537
6.21427
6.02042
5.85062
5.72872
5.65023
5.59241
5.54394
5.4719
5.36426
5.1866
4.97403
4.82749
4.75462
4.71304
4.67792
4.6432
4.59164
4.51465
4.38939
4.23076
4.12673
4.06908
4.02705
3.98909
3.94438
3.87378
3.75452
3.62621
3.57038
3.54453
3.51812
3.49367
3.46229
3.41867
3.33882
3.20061
3.09563
3.05658
3.03544
3.01589
2.99483
2.97429
2.95176
2.92383
2.87429
2.78752
2.68888
2.61548
2.56647
2.53895
2.52315
2.51174
2.49694
2.47961
2.4595
2.43334
2.39767
2.35246
2.29673
2.23608
2.19966
2.18094
2.16398
2.14683
2.12904
2.10854
2.08302
2.0487
1.99926
1.94987
1.91604
1.89101
1.87387
1.86051
1.85923
1.88557
2.01239
2.27563
2.60479
2.87295
3.08597
3.36064
3.70301
4.04408
4.31693
4.54048
4.61625
4.69944
4.73818
4.73591
4.70418
4.63414
4.56025
4.47819
4.36258
4.28385
4.25531
4.23235
4.22495
4.22905
4.21054
4.183
4.14464
4.06993
3.96465
3.88709
3.8386
3.80673
3.78594
3.77073
3.75836
3.74736
3.73154
3.70457
3.64864
3.57019
3.53005
3.50937
3.49124
3.47185
3.45391
3.41121
3.6647
3.3284
2.88271
2.37628
1.95596
1.69018
1.41846
1.20888
1.12731
1.04344
0.946287
0.932791
0.94241
0.939386
0.937875
0.945226
0.958548
0.968525
0.976439
0.993791
1.02491
1.0422
1.04545
1.04789
1.04932
1.04742
1.04355
1.04482
1.04728
1.05056
1.05444
1.05514
1.05448
1.05223
1.04769
1.04582
1.04552
1.04557
1.0455
1.04549
1.04602
1.04583
1.04482
1.04458
1.04378
1.04692
1.08595
1.27794
1.98356
3.0613
3.3137
3.31043
3.3726
3.5158
4.13736
5.92704
7.92701
8.73321
8.51489
7.96123
7.60508
7.54224
7.45599
7.29366
7.12555
6.96193
6.78238
6.60528
6.43954
6.2798
6.14802
6.05311
5.93964
5.80744
5.66621
5.55335
5.46255
5.3652
5.24869
5.12539
5.03206
4.94704
4.84545
4.75214
4.68567
4.6163
4.53259
4.43421
4.32824
4.23178
4.14983
4.07956
4.02123
3.97046
3.91375
3.84906
3.76851
3.65926
3.57643
3.54271
3.51463
3.47947
3.43334
3.37176
3.29946
3.22349
3.14291
3.0745
3.03321
3.00827
2.98883
2.96879
2.94194
2.89592
2.82112
2.74214
2.69281
2.64787
2.60704
2.57174
2.53539
2.49697
2.46604
2.44073
2.4168
2.39191
2.3643
2.33081
2.28655
2.22969
2.17882
2.1558
2.14068
2.12511
2.10874
2.08927
2.06016
2.01608
1.96635
1.9279
1.90562
1.89543
1.88923
1.90158
1.97832
2.16165
2.50308
2.80099
2.99556
3.03783
3.04769
3.09002
3.19415
3.37847
3.63886
3.98263
4.33241
4.56742
4.65546
4.70251
4.69367
4.6413
4.56763
4.48783
4.39569
4.33122
4.2958
4.25695
4.21458
4.17205
4.15447
4.13786
4.09993
4.02763
3.95379
3.91416
3.885
3.85457
3.81983
3.78628
3.75426
3.72766
3.70444
3.67263
3.62239
3.56515
3.52676
3.50142
3.4818
3.45987
3.43915
3.39565
3.75008
3.61732
3.32587
2.91693
2.47683
2.14201
1.83968
1.55383
1.4247
1.31021
1.13951
1.08897
1.06286
1.00482
0.963157
0.964218
0.959121
0.942305
0.941859
0.954798
0.98318
1.00165
1.00892
1.01531
1.02655
1.03081
1.03482
1.03956
1.04633
1.05373
1.05611
1.0564
1.05548
1.05353
1.05151
1.05136
1.05249
1.05376
1.05322
1.05171
1.04993
1.04618
1.04239
1.04223
1.04604
1.11341
1.50659
2.17594
3.11841
3.50067
3.47805
3.39443
3.35861
3.34197
3.36411
3.70852
5.11062
7.39647
8.01637
7.76712
7.64001
7.52199
7.40523
7.2405
7.13877
7.03656
6.85643
6.59211
6.37051
6.2332
6.14611
6.06938
5.99434
5.8864
5.72507
5.52388
5.36384
5.2543
5.18279
5.13465
5.10213
5.04118
4.94294
4.8124
4.66824
4.55158
4.44854
4.36816
4.31433
4.26804
4.20531
4.12026
4.02302
3.95163
3.90407
3.86032
3.803
3.72173
3.626
3.53632
3.48448
3.44064
3.38673
3.32536
3.27345
3.23688
3.19194
3.129
3.06173
3.01352
2.98209
2.94871
2.9061
2.85007
2.79003
2.73558
2.68744
2.65774
2.63496
2.60756
2.57419
2.52317
2.46577
2.42367
2.39402
2.36981
2.3489
2.32779
2.29638
2.24238
2.18578
2.15296
2.13564
2.12154
2.10631
2.08845
2.06146
2.00666
1.94821
1.91879
1.91231
1.91919
1.96579
2.125
2.42611
2.76576
3.06068
3.14493
3.10399
3.07579
3.0633
3.07171
3.08447
3.09619
3.15158
3.30521
3.61176
3.96791
4.27174
4.42955
4.52406
4.52435
4.51906
4.50465
4.45651
4.41664
4.37666
4.3123
4.23879
4.18034
4.14254
4.10438
4.04639
4.00189
3.97836
3.9527
3.92408
3.89384
3.85415
3.80567
3.75884
3.71602
3.67973
3.64748
3.61626
3.58206
3.54124
3.50931
3.4833
3.45978
3.43819
3.39289
3.76046
3.72996
3.59555
3.31317
2.92264
2.58668
2.2428
1.91843
1.73317
1.58592
1.37522
1.2549
1.18428
1.0992
1.00014
0.985811
0.97359
0.947545
0.946224
0.956997
0.970051
0.970054
0.972551
0.976099
0.986576
1.00152
1.01377
1.02619
1.03714
1.04732
1.05149
1.05223
1.05075
1.04843
1.04967
1.0539
1.05754
1.05819
1.05764
1.05589
1.05195
1.04561
1.04199
1.04433
1.10439
1.6384
2.54012
3.17362
3.51903
3.54733
3.49471
3.40708
3.32736
3.30206
3.30408
3.26874
3.40199
4.39492
6.34772
7.48349
7.69224
7.47253
7.255
7.14339
7.09332
6.99605
6.83377
6.57185
6.33485
6.23116
6.15216
6.07009
5.97698
5.8744
5.7262
5.4939
5.29982
5.22131
5.16658
5.12299
5.08141
5.02438
4.95986
4.83701
4.63376
4.4811
4.40513
4.34822
4.29457
4.24244
4.19093
4.12359
4.0321
3.94197
3.87763
3.82385
3.77386
3.72184
3.65563
3.55681
3.44837
3.38167
3.33575
3.30165
3.2712
3.23684
3.20174
3.16347
3.10887
3.03962
2.96905
2.90975
2.85235
2.79973
2.75723
2.72654
2.70712
2.6943
2.67585
2.64631
2.58257
2.5026
2.44383
2.4119
2.38837
2.36376
2.33453
2.30066
2.26503
2.23307
2.19918
2.16486
2.13807
2.1207
2.1066
2.09153
2.06245
2.00221
1.95049
1.94087
1.95406
2.04938
2.30379
2.68517
3.06574
3.25749
3.24753
3.18151
3.12304
3.09648
3.08915
3.09211
3.07155
3.05916
3.04307
3.04183
3.10437
3.26518
3.54986
3.89281
4.20151
4.35324
4.43158
4.48212
4.48712
4.45164
4.39143
4.33878
4.27575
4.19718
4.10805
4.03355
4.00032
3.97866
3.96317
3.94836
3.92673
3.90418
3.87739
3.83661
3.77321
3.71354
3.6715
3.63724
3.60198
3.56213
3.51248
3.47342
3.45658
3.44065
3.42686
3.39356
3.76172
3.7463
3.70228
3.56114
3.27461
2.96788
2.65007
2.30543
2.06198
1.86999
1.65338
1.49913
1.39906
1.29191
1.15631
1.12155
1.09091
1.03405
1.00566
1.00687
0.996235
0.973309
0.962855
0.959495
0.960742
0.966305
0.979324
1.00002
1.02135
1.03274
1.03985
1.04341
1.04295
1.04239
1.04534
1.05326
1.05628
1.05703
1.05743
1.05597
1.05009
1.04603
1.05219
1.1221
1.61656
2.74989
3.25213
3.49839
3.59448
3.53757
3.43622
3.38499
3.31465
3.24086
3.21733
3.21246
3.16999
3.2194
3.79412
5.33841
6.86285
7.12035
7.1721
7.18638
7.12553
6.96125
6.77219
6.55617
6.33845
6.21762
6.13312
6.04957
5.9617
5.86807
5.73503
5.51346
5.29802
5.20866
5.1523
5.10611
5.07099
5.01491
4.94155
4.82281
4.62306
4.44998
4.37756
4.32809
4.28334
4.24407
4.20456
4.15075
4.04143
3.90232
3.83783
3.80336
3.77599
3.74492
3.69083
3.58096
3.42213
3.33392
3.30522
3.28713
3.287
3.28007
3.25282
3.21838
3.15748
3.03593
2.91979
2.86281
2.82407
2.78884
2.76103
2.74139
2.72708
2.7094
2.68311
2.63615
2.56063
2.48709
2.44104
2.40756
2.37807
2.35308
2.3284
2.29662
2.25734
2.22023
2.19327
2.17235
2.15382
2.13272
2.10437
2.07466
2.04611
1.99692
1.98068
2.01957
2.20394
2.55277
2.9431
3.20722
3.35041
3.36341
3.34339
3.26349
3.19129
3.15456
3.1234
3.09326
3.06631
3.04294
3.01247
2.99494
2.98462
2.9807
3.02767
3.17559
3.47029
3.84193
4.0878
4.2892
4.38236
4.42069
4.42392
4.39488
4.32846
4.20893
4.06959
4.00101
3.98201
3.9727
3.96473
3.95819
3.94369
3.92902
3.89965
3.83457
3.75465
3.69991
3.66346
3.63079
3.59774
3.56208
3.5179
3.46815
3.44387
3.42912
3.4166
3.384
3.76955
3.7601
3.74939
3.68897
3.52424
3.28848
2.97992
2.66158
2.40743
2.1771
1.92915
1.75781
1.62126
1.49039
1.3529
1.28414
1.22564
1.13445
1.07001
1.0526
1.02244
0.984969
0.972859
0.969539
0.964255
0.96615
0.972538
0.9861
0.996111
1.00057
1.00603