/*--------------------------------*- C++ -*----------------------------------*\
  =========                 |
  \\      /  F ield         | OpenFOAM: The Open Source CFD Toolbox
   \\    /   O peration     | Website:  https://openfoam.org
    \\  /    A nd           | Version:  7
     \\/     M anipulation  |
\*---------------------------------------------------------------------------*/
FoamFile
{
    version     2.0;
    format      ascii;
    class       volScalarField;
    location    "1.8";
    object      T;
}
// * * * * * * * * * * * * * * * * * * * * * * * * * * * * * * * * * * * * * //

dimensions      [0 0 0 1 0 0 0];

internalField   nonuniform List<scalar> 
18432
(
1
1
1
1
1
1
1
1
1
1
1
1
1
1
1
1
1
1
1
1
1
1
1
1
1
1
1
1
1
1
1
1
1
1
1
1
1
1
1
1
1
1
1
1
1
1
1
1
1
1
1
1
1
1
1
1
1
1
1
1
1
1
1
1
1
1
1
1
1
1
1
1
1
1
1
1
1
1
1
1
1
1
1
1
1
1
1
1
1
1
1
1
1
1
1
1
1
1
1
1
1
1
1
1
1
1
1
1
1
1
1
1
1
1
1
1
1
1
1
1
1
1
1
1
1
1
1
1
1
1
1
1
1
1
1
1
1
1
1
1
1
1
1
1
1
1
1
1
1
1
1
1
1
1
1
1
1
1
1
1
1
1
1
1
1
1
1
1
1
1
1
1
1
1
1
1
1
1
1
1
1
1
1
1
1
1
1
1
1
1
1
1
1
1
1
1
1
1
1
1
1
1
1
1
1
1
1
1
1
1
1
1
1
1
1
1
1
1
1
1
1
1
1
1
1
1
1
1
1
1
1
1
1
1
1
1
1
1
1
1
1
1
1
1
1
1
1
1
1
1
1
1
1
1
1
1
1
1
1
1
1
1
1
1
1
1
1
1
1
1
1
1
1
1
1
1
1
1
1
1
1
1
1
1
1
1
1
1
1
1
1
1
1
1
1
1
1
1
1
1
1
1
1
1
1
1
1
1
1
1
1
1
1
1
1
1
1
1
1
1
1
1
1
1
1
1
1
1
1
1
1
1
1
1
1
1
1
1
1
1
1
1
1
1
1
1
1
1
1
1
1
1
1
1
1
1
1
1
1
1
1
1
1
1
1
1
1
1
1
1
1
1
1
1
1
1
1
1
1
1
1
1
1
1
1
1
1
1
1
1
1
1
1
1
1
1
1
1
1
1
1
1
1
1
1
1
1
1
1
1
1
1
1
1
1
1
1
1
1
1
1
1
1
1
1
1
1
1
1
1
1
1
1
1
1
1
1
1
1
1
1
1
1
1
1
1
1
1
1
1
1
1
1
1
1
1
1
1
1
1
1
1
1
1
1
1
1
1
1
1
1
1
1
1
1
1
1
1
1
1
1
1
1
1
1
1
1
1
1
1
1
1
1
1
1
1
1
1
1
1
1
1
1
1
1
1
1
1
1
1
1
1
1
1
1
1
1
1
1
1
1
1
1
1
1
1
1
1
1
1
1
1
1
1
1
1
1
1
1
1
1
1
1
1
1
1
1
1
1
1
1
1
1
1
1
1
1
1
1
1
1
1
1
1
1
1
1
1
1
1
1
1
1
1
1
1
1
1
1
1
1
1
1
1
1
1
1
1
1
1
1
1
1
1
1
1
1
1
1
1
1
1
1
1
1
1
1
1
1
1
1
1
1
1
1
1
1
1
1
1
1
1
1
1
1
1
1
1
1
1
1
1
1
1
1
1
1
1
1
1
1
1
1
1
1
1
1
1
1
1
1
1
1
1
1
1
1
1
1
1
1
1
1
1
1
1
1
1
1
1
1
1
1
1
1
1
1
1
1
1
1
1
1
1
1
1
1
1
1
1
1
1
1
1
1
1
1
1
1
1
1
1
1
1
1
1
1
1
1
1
1
1
1
1
1
1
1
1
1
1
1
1
1
1
1
1
1
1
1
1
1
1
1
1
1
1
1
1
1
1
1
1
1
1
1
1
1
1
1
1
1
1
1
1
1
1
1
1
1
1
1
1
1
1
1
1
1
1
1
1
1
1
1
1
1
1
1
1
1
1
1
1
1
1
1
1
1
1
1
1
1
1
1
1
1
1
1
1
1
1
1
1
1
1
1
1
1
1
1
1
1
1
1
1
1
1
1
1
1
1
1
1
1
1
1
1
1
1
1
1
1
1
1
1
1
1
1
1
1
1
1
1
1
1
1
1
1
1
1
1
1
1
1
1
1
1
1
1
1
1
1
1
1
1
1
1
1
1
1
1
1
1
1
1
1
1
1
1
1
1
1
1
1
1
1
1
1
1
1
1
1
1
1
1
1
1
1
1
1
1
1
1
1
1
1
1
1
1
1
1
1
1
1
1
1
1
1
1
1
1
1
1
1
1
1
1
1
1
1
1
1
1
1
1
1
1
1
1
1
1
1
1
1
1
1
1
1
1
1
1
1
1
1
1
1
1
1
1
1
1
1
1
1
1
1
1
1
1
1
1
1
1
1
1
1
1
1
1
1
1
1
1
1
1
1
1
1
1
1
1
1
1
1
1
1
1
1
1
1
1
1
1
1
1
1
1
1
1
1
1
1
1
1
1
1
1
1
1
1
1
1
1
1
1
1
1
1
1
1
1
1
1
1
1
1
1
1
1
1
1
1
1
1
1
1
1
1
1
1
1
1
1
1
1
1
1
1
1
1
1
1
1
1
1
1
1
1
1
1
1
1
1
1
1
1
1
1
1
1
1
1
1
1
1
1
1
1
1
1
1
1
1
1
1
1
1
1
1
1
1
1
1
1
1
1
1
1
1
1
1
1
1
1
1
1
1
1
1
1
1
1
1
1
1
1
1
1
1
1
1
1
1
1
1
1
1
1
1
1
1
1
1
1
1
1
1
1
1
1
1
1
1
1
1
1
1
1
1
1
1
1
1
1
1
1
1
1
1
1
1
1
1
1
1
1
1
1
1
1
1
1
1
1
1
1
1
1
1
1
1
1
1
1
1
1
1
1
1
1
1
1
1
1
1
1
1
1
1
1
1
1
1
1
1
1
1
1
1
1
1
1
1
1
1
1
1
1
1
1
1
1
1
1
1
1
1
1
1
1
1
1
1
1
1
1
1
1
1
1
1
1
1
1
1
1
1
1
1
1
1
1
1
1
1
1
1
1
1
1
1
1
1
1
1
1
1
1
1
1
1
1
1
1
1
1
1
1
1
1
1
1
1
1
1
1
1
1
1
1
1
1
1
1
1
1
1
1
1
1
1
1
1
1
1
1
1
1
1
1
1
1
1
1
1
1
1
1
1
1
1
1
1
1
1
1
1
1
1
1
1
1
1
1
1
1
1
1
1
1
1
1
1
1
1
1
1
1
1
1
1
1
1
1
1
1
1
1
1
1
1
1
1
1
1
1
1
1
1
1
1
1
1
1
1
1
1
1
1
1
1
1
1
1
1
1
1
1
1
1
1
1
1
1
1
1
1
1
1
1
1
1
1
1
1
1
1
1
1
1
1
1
1
1
1
1
1
1
1
1
1
1
1
1
1
1
1
1
1
1
1
1
1
1
1
1
1
1
1
1
1
1
1
1
1
1
1
1
1
1
1
1
1
1
1
1
1
1
1
1
1
1
1
1
1
1
1
1
1
1
1
1
1
1
1
1
1
1
1
1
1
1
1
1
1
1
1
1
1
1
1
1
1
1
1
1
1
1
1
1
1
1
1
1
1
1
1
1
1
1
1
1
1
1
1
1
1
1
1
1
1
1
1
1
1
1
1
1
1
1
1
1
1
1
1
1
1
1
1
1
1
1
1
1
1
1
1
1
1
1
1
1
1
1
1
1
1
1
1
1
1
1
1
1
1
1
1
1
1
1
1
1
1
1
1
1
1
1
1
1
1
1
1
1
1
1
1
1
1
1
1
1
1
1
1
1
1
1
1
1
1
1
1
1
1
1
1
1
1
1
1
1
1
1
1
1
1
1
1
1
1
1
1
1
1
1
1
1
1
1
1
1
1
1
1
1
1
1
1
1
1
1
1
1
1
1
1
1
1
1
1
1
1
1
1
1
1
1
1
1
1
1
1
1
1
1
1
1
1
1
1
1
1
1
1
1
1
1
1
1
1
1
1
1
1
1
1
1
1
1
1
1
1
1
1
1
1
1
1
1
1
1
1
1
1
1
1
1
1
1
1
1
1
1
1
1
1
1
1
1
1
1
1
1
1
1
1
1
1
1
1
1
1
1
1
1
1
1
1
1
1
1
1
1
1
1
1
1
1
1
1
1
1
1
1
1
1
1
1
1
1
1
1
1
1
1
1
1
1
1
1
1
1
1
1
1
1
1
1
1
1
1
1
1
1
1
1
1
1
1
1
1
1
1
1
1
1
1
1
1
1
1
1
1
1
1
1
1
1
1
1
1
1
1
1
1
1
1
1
1
1
1
1
1
1
1
1
1
1
1
1
1
1
1
1
1
1
1
1
1
1
1
1
1
1
1
1
1
1
1
1
1
1
1
1
1
1
1
1
1
1
1
1
1
1
1
1
1
1
1
1
1
1
1
1
1
1
1
1
1
1
1
1
1
1
1
1
1
1
1
1
1
1
1
1
1
1
1
1
1
1
1
1
1
1
1
1
1
1
1
1
1
1
1
1
1
1
1
1
1
1
1
1
1
1
1
1
1
1
1
1
1
1
1
1
1
1
1
1
1
1
1
1
1
1
1
1
1
1
1
1
1
1
1
1
1
1
1
1
1
1
1
1
1
1
1
1
1
1
1
1
1
1
1
1
1
1
1
1
1
1
1
1
1
1
1
1
1
1
1
1
1
1
1
1
1
1
1
1
1
1
1
1
1
1
1
1
1
1
1
1
1
1
1
1
1
1
1
1
1
1
1
1
1
1
1
1
1
1
1
1
1
1
1
1
1
1
1
1
1
1
1
1
1
1
1
1
1
1
1
1
1
1
1
1
1
1
1
1
1
1
1
1
1
1
1
1
1
1
1
1
1
1
1
1
1
1
1
1
1
1
1
1
1
1
1
1
1
1
1
1
1
1
1
1
1
1
1
1
1
1
1
1
1
1
1
1
1
1
1
1
1
1
1
1
1
1
1
1
1
1
1
1
1
1
1
1
1
1
1
1
1
1
1
1
1
1
1
1
1
1
1
1
1
1
1
1
1
1
1
1
1
1
1
1
1
1
1
1
1
1
1
1
1
1
1
1
1
1
1
1
1
1
1
1
1
1
1
1
1
1
1
1
1
1
1
1
1
1
1
1
1
1
1
1
1
1
1
1
1
1
1
1
1
1
1
1
1
1
1
1
1
1
1
1
1
1
1
1
1
1
1
1
1
1
1
1
1
1
1
1
1
1
1
1
1
1
1
1
1
1
1
1
1
1
1
1
1
1
1
1
1
1
1
1
1
1
1
1
1
1
1
1
1
1
1
1
1
1
1
1
1
1
1
1
1
1
1
1
1
1
1
1
1
1
1
1
1
1
1
1
1
1
1
1
1
1
1
1
1
1
1
1
1
1
1
1
1
1
1
1
1
1
1
1
1
1
1
1
1
1
1
1
1
1
1
1
1
1
1
1
1
1
1
1
1
1
1
1
1
1
1
1
1
1
1
1
1
1
1
1
1
1
1
1
1
1
1
1
1
1
1
1
1
1
1
1
1
1
1
1
1
1
1
1
1
1
1
1
1
1
1
1
1
1
1
1
1
1
1
1
1
1
1
1
1
1
1
1
1
1
1
1
1
1
1
1
1
1
1
1
1
1
1
1
1
1
1
1
1
1
1
1
1
1
1
1
1
1
1
1
1
1
1
1
1
1
1
1
1
1
1
1
1
1
1
1
1
1
1
1
1
1
1
1
1
1
1
1
1
1
1
1
1
1
1
1
1
1
1
1
1
1
1
1
1
1
1
1
1
1
1
1
1
1
1
1
1
1
1
1
1
1
1
1
1
1
1
1
1
1
1
1
1
1
1
1
1
1
1
1
1
1
1
1
1
1
1
1
1
1
1
1
1
1
1
1
1
1
1
1
1
1
1
1
1
1
1
1
1
1
1
1
1
1
1
1
1
1
1
1
1
1
1
1
1
1
1
1
1
1
1
1
1
1
1
1
1
1
1
1
1
1
1
1
1
1
1
1
1
1
1
1
1
1
1
1
1
1
1
1
1
1
1
1
1
1
1
1
1
1
1
1
1
1
1
1
1
1
1
1
1
1
1
1
1
1
1
1
1
1
1
1
1
1
1
1
1
1
1
1
1
1
1
1
1
1
1
1
1
1
1
1
1
1
1
1
1
1
1
1
1
1
1
1
1
1
1
1
1
1
1
1
1
1
1
1
1
1
1
1
1
1
1
1
1
1
1
1
1
1
1
1
1
1
1
1
1
1
1
1
1
1
1
1
1
1
1
1
1
1
1
1
1
1
1
1
1
1
1
1
1
1
1
1
1
1
1
1
1
1
1
1
1
1
1
1
1
1
1
1
1
1
1
1
1
1
1
1
1
1
1
1
1
1
1
1
1
1
1
1
1
1
1
1
1
1
1
1
1
1
1
1
1
1
1
1
1
1
1
1
1
1
1
1
1
1
1
1
1
1
1
1
1
1
1
1
1
1
1
1
1
1
1
1
1
1
1
1
1
1
1
1
1
1
1
1
1
1
1
1
1
1
1
1
1
1
1
1
1
1
1
1
1
1
1
1
1
1
1
1
1
1
1
1
1
1
1
1
1
1
1
1
1
1
1
1
1
1
1
1
1
1
1
1
1
1
1
1
1
1
1
1
1
1
1
1
1
1
1
1
1
1
1
1
1
1
1
1
1
1
1
1
1
1
1
1
1
1
1
1
1
1
1
1
1
1
1
1
1
1
1
1
1
1
1
1
1
1
1
1
1
1
1
1
1
1
1
1
1
1
1
1
1
1
1
1
1
1
1
1
1
1
1
1
1
1
1
1
1
1
1
1
1
1
1
1
1
1
1
1
1
1
1
1
1
1
1
1
1
1
1
1
1
1
1
1
1
1
1
1
1
1
1
1
1
1
1
1
1
1
1
1
1
1
1
1
1
1
1
1
1
1
1
1
1
1
1
1
1
1
1
1
1
1
1
1
1
1
1
1
1
1
1
1
1
1
1
1
1
1
1
1
1
1
1
1
1
1
1
1
1
1
1
1
1
1
1
1
1
1
1
1
1
1
1
1
1
1
1
1
1
1
1
1
1
1
1
1
1
1
1
1
1.07778
1.18017
1.28776
1.3779
1.47421
1.55971
1.61769
1.66835
1.69629
1.6911
1.66126
1.61245
1.57017
1.53924
1.52685
1.51517
1.51337
1.51593
1.52056
1.5257
1.53074
1.53344
1.53498
1.53592
1.53713
1.53888
1.5408
1.5418
1.54191
1.54211
1.54322
1.54531
1.54683
1.54719
1.54717
1.54675
1.5456
1.54465
1.54439
1.54446
1.54476
1.54494
1.54523
1.54545
1.54558
1.54561
1.54544
1.54546
1.00077
1.00491
1.02405
1.07
1.12845
1.21536
1.30027
1.37974
1.45143
1.50663
1.53043
1.55431
1.56826
1.56367
1.55405
1.54602
1.54052
1.53614
1.53279
1.53306
1.53442
1.53698
1.53994
1.54203
1.5432
1.54366
1.5442
1.54476
1.54464
1.54456
1.54495
1.54592
1.54685
1.54755
1.54771
1.54749
1.54695
1.54651
1.54648
1.54667
1.54712
1.54772
1.5481
1.54814
1.54807
1.54787
1.54733
1.54763
1
0.999993
1.00002
1.00004
1.00047
1.00459
1.02182
1.07404
1.18376
1.34266
1.50263
1.57916
1.62511
1.62422
1.6151
1.59798
1.57887
1.55701
1.54551
1.54564
1.54692
1.54923
1.553
1.55514
1.55549
1.5557
1.55562
1.55556
1.55558
1.55539
1.55496
1.55477
1.55472
1.55456
1.5541
1.55336
1.55254
1.55208
1.55197
1.55208
1.5526
1.55342
1.55398
1.55397
1.55369
1.55329
1.55255
1.55328
1
1
1
1
0.999999
1
1.00001
1.00003
1.00211
1.02588
1.15397
1.33042
1.5146
1.5901
1.60668
1.60435
1.59223
1.58729
1.58214
1.57466
1.5717
1.56799
1.56557
1.56492
1.56572
1.56669
1.56752
1.56882
1.56961
1.56951
1.56911
1.5685
1.56801
1.56753
1.56667
1.56566
1.56461
1.56355
1.56298
1.56292
1.56309
1.56334
1.56327
1.5627
1.56172
1.56074
1.55977
1.56062
1
1
1
1
1
1
1
1
1
0.99997
1.00081
1.01675
1.10891
1.30276
1.45587
1.58935
1.61564
1.61848
1.61352
1.60544
1.59077
1.58158
1.57526
1.57122
1.57093
1.57158
1.57282
1.57487
1.57668
1.57747
1.57808
1.57875
1.57892
1.57883
1.57829
1.5775
1.57646
1.57533
1.57474
1.57472
1.57483
1.57479
1.57422
1.57309
1.57173
1.5704
1.56905
1.56983
1
1
1
1
1
1
1
1
1
0.999999
0.999999
0.999982
1.00024
1.01226
1.07827
1.25768
1.43513
1.54946
1.60897
1.60733
1.60014
1.59483
1.5886
1.58313
1.5799
1.57851
1.57731
1.57743
1.57886
1.58061
1.58236
1.58423
1.58464
1.58447
1.58395
1.58318
1.58229
1.58151
1.58126
1.58133
1.58141
1.58111
1.5802
1.57908
1.57796
1.57709
1.5762
1.57704
1
1
1
1
1
1
1
1
1
1
1
0.999999
0.999999
0.999987
1.00015
1.00666
1.07508
1.21342
1.4041
1.50517
1.57771
1.59793
1.59783
1.59469
1.58956
1.58602
1.58192
1.57894
1.57893
1.58014
1.58216
1.58482
1.58562
1.58548
1.58496
1.58418
1.58359
1.58333
1.58328
1.58366
1.58387
1.58365
1.58299
1.58235
1.58193
1.58173
1.58127
1.58179
1
1
1
1
1
1
1
1
1
1
1
1
1
0.999999
0.999999
0.999989
1.00021
1.00425
1.05464
1.19327
1.36745
1.4915
1.53967
1.57257
1.58193
1.58236
1.58008
1.57776
1.57842
1.57911
1.58004
1.5809
1.58212
1.58288
1.58266
1.58248
1.58254
1.58283
1.58364
1.58443
1.58465
1.58451
1.58405
1.58362
1.58353
1.58349
1.58333
1.58337
1
1
1
1
1
1
1
1
1
1
1
1
1
1
1
0.999999
0.999999
0.999993
1.00013
1.00435
1.04003
1.18404
1.33718
1.48112
1.53132
1.55156
1.56226
1.56748
1.57121
1.57101
1.57125
1.5724
1.57392
1.57558
1.57727
1.57856
1.57976
1.58095
1.58204
1.58293
1.58312
1.58314
1.58317
1.5831
1.58289
1.58286
1.5829
1.58281
1
1
1
1
1
1
1
1
1
1
1
1
1
1
1
1
1
0.999999
0.999999
0.999995
1.00008
1.00485
1.03744
1.15806
1.33056
1.4568
1.53468
1.55044
1.55925
1.56256
1.5626
1.56386
1.56513
1.5666
1.56847
1.57084
1.57326
1.57534
1.57689
1.57794
1.57841
1.57886
1.57958
1.58011
1.58035
1.58057
1.58108
1.58097
1
1
1
1
1
1
1
1
1
1
1
1
1
1
1
1
1
1
1
1
1
0.999995
1.00009
1.00333
1.04324
1.14745
1.32376
1.44531
1.5257
1.5544
1.55934
1.56108
1.5628
1.56305
1.56361
1.5654
1.56703
1.56871
1.57048
1.57192
1.57265
1.5732
1.57395
1.57451
1.57489
1.57535
1.57634
1.57648
1
1
1
1
1
1
1
1
1
1
1
1
1
1
1
1
1
1
1
1
1
0.999999
1
0.999995
1.00017
1.00301
1.04223
1.16157
1.32665
1.44437
1.51085
1.5434
1.55512
1.55846
1.56231
1.56363
1.56363
1.56401
1.56537
1.56714
1.5683
1.56889
1.56922
1.5693
1.56947
1.57013
1.57144
1.57184
1
1
1
1
1
1
1
1
1
1
1
1
1
1
1
1
1
1
1
1
1
1
1
0.999999
1
0.999996
1.00024
1.00457
1.04176
1.17968
1.33733
1.46713
1.50815
1.53045
1.54954
1.5558
1.55518
1.5563
1.55852
1.56086
1.56275
1.56337
1.56344
1.56353
1.564
1.56503
1.56675
1.56749
1
1
1
1
1
1
1
1
1
1
1
1
1
1
1
1
1
1
1
1
1
1
1
1
1
0.999999
1
0.999997
1.00026
1.00772
1.05092
1.20148
1.36037
1.4907
1.53151
1.53909
1.54328
1.54662
1.55052
1.55351
1.55531
1.55667
1.5576
1.55832
1.55929
1.5602
1.5619
1.56296
1
1
1
1
1
1
1
1
1
1
1
1
1
1
1
1
1
1
1
1
1
1
1
1
1
1
1
1
0.999999
1
1.00042
1.0118
1.07415
1.23991
1.39924
1.50245
1.54755
1.55085
1.5523
1.55416
1.5541
1.5545
1.55544
1.55585
1.55652
1.55744
1.55907
1.55992
1
1
1
1
1
1
1
1
1
1
1
1
1
1
1
1
1
1
1
1
1
1
1
1
1
1
1
1
1
1
0.999999
1.00003
1.00103
1.0198
1.11888
1.29048
1.43698
1.51376
1.54648
1.55485
1.55607
1.55863
1.55833
1.5577
1.55766
1.55794
1.5587
1.55902
1
1
1
1
1
1
1
1
1
1
1
1
1
1
1
1
1
1
1
1
1
1
1
1
1
1
1
1
1
1
1
1
0.999999
1.00011
1.00306
1.0373
1.18035
1.3625
1.48166
1.51773
1.53966
1.55396
1.55345
1.55405
1.55523
1.55665
1.55802
1.55832
1
1
1
1
1
1
1
1
1
1
1
1
1
1
1
1
1
1
1
1
1
1
1
1
1
1
1
1
1
1
1
1
1
1
1
1.00043
1.00998
1.07635
1.255
1.42964
1.52957
1.53884
1.54315
1.54658
1.55013
1.55375
1.55606
1.55627
1
1
1
1
1
1
1
1
1
1
1
1
1
1
1
1
1
1
1
1
1
1
1
1
1
1
1
1
1
1
1
1
1
1
1
0.999999
1.00003
1.00168
1.02969
1.15205
1.35413
1.48643
1.54996
1.55558
1.55627
1.55799
1.55773
1.55645
1
1
1
1
1
1
1
1
1
1
1
1
1
1
1
1
1
1
1
1
1
1
1
1
1
1
1
1
1
1
1
1
1
1
1
1
1
1
1.00029
1.0078
1.08502
1.26098
1.4374
1.51678
1.55195
1.56047
1.56052
1.55994
1
1
1
1
1
1
1
1
1
1
1
1
1
1
1
1
1
1
1
1
1
1
1
1
1
1
1
1
1
1
1
1
1
1
1
1
1
1
1
1.00004
1.00224
1.03211
1.18471
1.39169
1.50641
1.53095
1.54641
1.5534
1
1
1
1
1
1
1
1
1
1
1
1
1
1
1
1
1
1
1
1
1
1
1
1
1
1
1
1
1
1
1
1
1
1
1
1
1
1
1
1
1
1.00052
1.014
1.1134
1.31684
1.48332
1.54391
1.5505
1
1
1
1
1
1
1
1
1
1
1
1
1
1
1
1
1
1
1
1
1
1
1
1
1
1
1
1
1
1
1
1
1
1
1
1
1
1
1
1
1
1
1.0001
1.00539
1.06288
1.25422
1.43707
1.54052
1
1
1
1
1
1
1
1
1
1
1
1
1
1
1
1
1
1
1
1
1
1
1
1
1
1
1
1
1
1
1
1
1
1
1
1
1
1
1
1
1
1
1
1.00003
1.00159
1.03657
1.20224
1.42164
1
1
1
1
1
1
1
1
1
1
1
1
1
1
1
1
1
1
1
1
1
1
1
1
1
1
1
1
1
1
1
1
1
1
1
1
1
1
1
1
1
1
1
1
1
1.00085
1.02144
1.13706
1
1
1
1
1
1
1
1
1
1
1
1
1
1
1
1
1
1
1
1
1
1
1
1
1
1
1
1
1
1
1
1
1
1
1
1
1
1
1
1
1
1
1
1
1
1
1.00035
1.00554
1
1
1
1
1
1
1
1
1
1
1
1
1
1
1
1
1
1
1
1
1
1
1
1
1
1
1
1
1
1
1
1
1
1
1
1
1
1
1
1
1
1
1
1
1
1
1
0.999942
1
1
1
1
1
1
1
1
1
1
1
1
1
1
1
1
1
1
1
1
1
1
1
1
1
1
1
1
1
1
1
1
1
1
1
1
1
1
1
1
1
1
1
1
1
1
1
0.999981
1
1
1
1
1
1
1
1
1
1
1
1
1
1
1
1
1
1
1
1
1
1
1
1
1
1
1
1
1
1
1
1
1
1
1
1
1
1
1
1
1
1
1
1
1
1
1
0.999997
1
1
1
1
1
1
1
1
1
1
1
1
1
1
1
1
1
1
1
1
1
1
1
1
1
1
1
1
1
1
1
1
1
1
1
1
1
1
1
1
1
1
1
1
1
1
1
1
1
1
1
1
1
1
1
1
1
1
1
1
1
1
1
1
1
1
1
1
1
1
1
1
1
1
1
1
1
1
1
1
1
1
1
1
1
1
1
1
1
1
1
1
1
1
1
1
1
1
1
1
1
1
1
1
1
1
1
1
1
1
1
1
1
1
1
1
1
1
1
1
1
1
1
1
1
1
1
1
1
1
1
1
1
1
1
1
1
1
1
1
1
1
1
1
1
1
1
1
1
1
1
1
1
1
1
1
1
1
1
1
1
1
1
1
1
1
1
1
1
1
1
1
1
1
1
1
1
1
1
1
1
1
1
1
1
1
1
1
1
1
1
1
1
1
1
1
1
1
1
1
1
1
1
1
1
1
1
1
1
1
1
1
1
1
1
1
1
1
1
1
1
1
1
1
1
1
1
1
1
1
1
1
1
1
1
1
1
1
1
1
1
1
1
1
1
1
1
1
1
1
1
1
1
1
1
1
1
1
1
1
1
1
1
1
1
1
1
1
1
1
1
1
1
1
1
1
1
1
1
1
1
1
1
1
1
1
1
1
1
1
1
1
1
1
1
1
1
1
1
1
1
1
1
1
1
1
1
1
1
1
1
1
1
1
1
1
1
1
1
1
1
1
1
1
1
1
1
1
1
1
1
1
1
1
1
0.999997
1
1
1
1
1
1
1
1
1
1
1
1
1
1
1
1
1
1
1
1
1
1
1
1
1
1
1
1
1
1
1
1
1
1
1
1
1
1
1
1
1
1
1
1
1
1
1
0.999981
1
1
1
1
1
1
1
1
1
1
1
1
1
1
1
1
1
1
1
1
1
1
1
1
1
1
1
1
1
1
1
1
1
1
1
1
1
1
1
1
1
1
1
1
1
1
1
0.999942
1
1
1
1
1
1
1
1
1
1
1
1
1
1
1
1
1
1
1
1
1
1
1
1
1
1
1
1
1
1
1
1
1
1
1
1
1
1
1
1
1
1
1
1
1
1
1.00035
1.00554
1
1
1
1
1
1
1
1
1
1
1
1
1
1
1
1
1
1
1
1
1
1
1
1
1
1
1
1
1
1
1
1
1
1
1
1
1
1
1
1
1
1
1
1
1
1.00085
1.02145
1.13704
1
1
1
1
1
1
1
1
1
1
1
1
1
1
1
1
1
1
1
1
1
1
1
1
1
1
1
1
1
1
1
1
1
1
1
1
1
1
1
1
1
1
1
1.00003
1.00159
1.03657
1.20226
1.42162
1
1
1
1
1
1
1
1
1
1
1
1
1
1
1
1
1
1
1
1
1
1
1
1
1
1
1
1
1
1
1
1
1
1
1
1
1
1
1
1
1
1
1.0001
1.00539
1.06287
1.25423
1.43706
1.54052
1
1
1
1
1
1
1
1
1
1
1
1
1
1
1
1
1
1
1
1
1
1
1
1
1
1
1
1
1
1
1
1
1
1
1
1
1
1
1
1
1
1.00052
1.014
1.11339
1.31683
1.48332
1.54391
1.55049
1
1
1
1
1
1
1
1
1
1
1
1
1
1
1
1
1
1
1
1
1
1
1
1
1
1
1
1
1
1
1
1
1
1
1
1
1
1
1
1.00004
1.00224
1.03211
1.18472
1.39168
1.50642
1.53095
1.54641
1.5534
1
1
1
1
1
1
1
1
1
1
1
1
1
1
1
1
1
1
1
1
1
1
1
1
1
1
1
1
1
1
1
1
1
1
1
1
1
1
1.00029
1.0078
1.08502
1.26098
1.4374
1.51678
1.55195
1.56047
1.56052
1.55994
1
1
1
1
1
1
1
1
1
1
1
1
1
1
1
1
1
1
1
1
1
1
1
1
1
1
1
1
1
1
1
1
1
1
1
0.999999
1.00003
1.00168
1.02969
1.15205
1.35413
1.48643
1.54996
1.55558
1.55627
1.55799
1.55773
1.55645
1
1
1
1
1
1
1
1
1
1
1
1
1
1
1
1
1
1
1
1
1
1
1
1
1
1
1
1
1
1
1
1
1
1
1
1.00043
1.00998
1.07635
1.255
1.42964
1.52958
1.53884
1.54315
1.54658
1.55013
1.55375
1.55606
1.55627
1
1
1
1
1
1
1
1
1
1
1
1
1
1
1
1
1
1
1
1
1
1
1
1
1
1
1
1
1
1
1
1
0.999999
1.00011
1.00306
1.0373
1.18035
1.3625
1.48166
1.51773
1.53966
1.55396
1.55345
1.55405
1.55523
1.55664
1.55802
1.55832
1
1
1
1
1
1
1
1
1
1
1
1
1
1
1
1
1
1
1
1
1
1
1
1
1
1
1
1
1
1
0.999999
1.00003
1.00103
1.0198
1.11888
1.29048
1.43698
1.51376
1.54648
1.55485
1.55607
1.55863
1.55833
1.5577
1.55766
1.55794
1.5587
1.55902
1
1
1
1
1
1
1
1
1
1
1
1
1
1
1
1
1
1
1
1
1
1
1
1
1
1
1
1
0.999999
1
1.00042
1.0118
1.07415
1.23991
1.39924
1.50245
1.54755
1.55085
1.5523
1.55416
1.5541
1.5545
1.55544
1.55585
1.55652
1.55744
1.55907
1.55992
1
1
1
1
1
1
1
1
1
1
1
1
1
1
1
1
1
1
1
1
1
1
1
1
1
0.999999
1
0.999997
1.00026
1.00772
1.05092
1.20148
1.36037
1.4907
1.53151
1.53909
1.54328
1.54662
1.55052
1.55351
1.55531
1.55667
1.5576
1.55832
1.55929
1.5602
1.5619
1.56296
1
1
1
1
1
1
1
1
1
1
1
1
1
1
1
1
1
1
1
1
1
1
1
0.999999
1
0.999996
1.00024
1.00457
1.04176
1.17968
1.33733
1.46713
1.50815
1.53045
1.54954
1.5558
1.55518
1.5563
1.55852
1.56086
1.56275
1.56337
1.56344
1.56353
1.564
1.56503
1.56675
1.56749
1
1
1
1
1
1
1
1
1
1
1
1
1
1
1
1
1
1
1
1
1
0.999999
1
0.999995
1.00017
1.00301
1.04223
1.16157
1.32665
1.44437
1.51085
1.5434
1.55512
1.55846
1.56231
1.56363
1.56363
1.56401
1.56537
1.56714
1.5683
1.56889
1.56922
1.5693
1.56947
1.57013
1.57144
1.57184
1
1
1
1
1
1
1
1
1
1
1
1
1
1
1
1
1
1
1
1
1
0.999995
1.00009
1.00333
1.04324
1.14745
1.32376
1.44531
1.5257
1.5544
1.55934
1.56108
1.5628
1.56305
1.56361
1.5654
1.56703
1.56871
1.57048
1.57192
1.57265
1.5732
1.57395
1.57451
1.57489
1.57535
1.57634
1.57648
1
1
1
1
1
1
1
1
1
1
1
1
1
1
1
1
1
0.999999
0.999999
0.999995
1.00008
1.00485
1.03744
1.15806
1.33056
1.4568
1.53468
1.55044
1.55925
1.56256
1.5626
1.56386
1.56513
1.5666
1.56847
1.57084
1.57326
1.57534
1.57689
1.57794
1.57841
1.57886
1.57958
1.58011
1.58035
1.58057
1.58108
1.58097
1
1
1
1
1
1
1
1
1
1
1
1
1
1
1
0.999999
0.999999
0.999993
1.00013
1.00435
1.04003
1.18404
1.33718
1.48112
1.53132
1.55156
1.56226
1.56748
1.57121
1.57101
1.57125
1.5724
1.57392
1.57558
1.57727
1.57856
1.57976
1.58095
1.58204
1.58293
1.58312
1.58314
1.58317
1.5831
1.58289
1.58286
1.5829
1.58281
1
1
1
1
1
1
1
1
1
1
1
1
1
0.999999
0.999999
0.999989
1.00021
1.00425
1.05464
1.19327
1.36745
1.4915
1.53967
1.57257
1.58193
1.58236
1.58008
1.57776
1.57842
1.57911
1.58004
1.5809
1.58212
1.58288
1.58267
1.58248
1.58254
1.58283
1.58364
1.58443
1.58465
1.58451
1.58405
1.58362
1.58353
1.58349
1.58333
1.58337
1
1
1
1
1
1
1
1
1
1
1
0.999999
0.999999
0.999987
1.00015
1.00666
1.07508
1.21342
1.4041
1.50517
1.57771
1.59793
1.59783
1.59469
1.58956
1.58602
1.58192
1.57894
1.57893
1.58014
1.58216
1.58482
1.58562
1.58548
1.58496
1.58418
1.58359
1.58333
1.58328
1.58366
1.58387
1.58365
1.58299
1.58235
1.58193
1.58173
1.58127
1.58179
1
1
1
1
1
1
1
1
1
0.999999
0.999999
0.999982
1.00024
1.01226
1.07827
1.25768
1.43513
1.54946
1.60897
1.60733
1.60014
1.59483
1.5886
1.58313
1.5799
1.57851
1.57731
1.57743
1.57886
1.58061
1.58236
1.58423
1.58464
1.58447
1.58395
1.58318
1.58229
1.58151
1.58126
1.58133
1.58141
1.58111
1.5802
1.57908
1.57796
1.57709
1.5762
1.57704
1
1
1
1
1
1
1
1
1
0.99997
1.00081
1.01675
1.10891
1.30276
1.45587
1.58935
1.61564
1.61848
1.61352
1.60544
1.59077
1.58158
1.57526
1.57122
1.57093
1.57158
1.57282
1.57487
1.57668
1.57747
1.57808
1.57875
1.57892
1.57883
1.57829
1.5775
1.57646
1.57533
1.57474
1.57472
1.57483
1.57479
1.57422
1.57309
1.57173
1.5704
1.56905
1.56983
1
1
1
1
0.999999
1
1.00001
1.00003
1.00211
1.02588
1.15397
1.33042
1.5146
1.59011
1.60668
1.60435
1.59223
1.58729
1.58214
1.57466
1.5717
1.56799
1.56557
1.56492
1.56572
1.56669
1.56752
1.56882
1.56961
1.56951
1.56911
1.5685
1.56801
1.56753
1.56667
1.56566
1.56461
1.56355
1.56298
1.56292
1.56309
1.56334
1.56327
1.5627
1.56172
1.56074
1.55977
1.56062
1
0.999993
1.00002
1.00004
1.00047
1.00459
1.02182
1.07404
1.18376
1.34266
1.50263
1.57916
1.62511
1.62422
1.6151
1.59798
1.57887
1.55701
1.54551
1.54564
1.54692
1.54923
1.553
1.55514
1.55549
1.5557
1.55562
1.55556
1.55558
1.55539
1.55496
1.55477
1.55472
1.55456
1.5541
1.55336
1.55254
1.55208
1.55197
1.55208
1.5526
1.55342
1.55398
1.55397
1.55369
1.55329
1.55255
1.55328
1.00077
1.00491
1.02405
1.07
1.12845
1.21536
1.30027
1.37974
1.45143
1.50663
1.53043
1.55431
1.56826
1.56367
1.55405
1.54602
1.54052
1.53614
1.53279
1.53306
1.53442
1.53698
1.53994
1.54203
1.5432
1.54366
1.5442
1.54476
1.54464
1.54456
1.54495
1.54592
1.54685
1.54755
1.54771
1.54749
1.54695
1.54651
1.54648
1.54667
1.54712
1.54772
1.5481
1.54814
1.54807
1.54787
1.54733
1.54763
1.07778
1.18017
1.28776
1.3779
1.47421
1.55971
1.61769
1.66835
1.69629
1.6911
1.66126
1.61245
1.57017
1.53924
1.52685
1.51517
1.51337
1.51593
1.52056
1.5257
1.53074
1.53344
1.53498
1.53592
1.53713
1.53888
1.5408
1.5418
1.54191
1.54211
1.54322
1.54531
1.54683
1.54719
1.54717
1.54675
1.5456
1.54465
1.54439
1.54446
1.54476
1.54494
1.54523
1.54545
1.54558
1.54561
1.54544
1.54546
1.40197
1.24528
1.09261
0.997338
1.00895
1.0066
1.0027
1.02055
1.05689
1.07047
1.07163
1.08173
1.1028
1.11485
1.11544
1.11764
1.12083
1.11882
1.11708
1.11838
1.11865
1.1173
1.11567
1.11542
1.11521
1.11371
1.10878
1.1058
1.10581
1.10565
1.10542
1.1053
1.10499
1.1049
1.10465
1.10362
1.10326
1.10335
1.10396
1.10482
1.10485
1.10473
1.10436
1.1036
1.10328
1.10305
1.10238
1.10274
1.10538
1.15388
1.35552
1.60031
1.8174
2.04675
2.24278
2.23778
2.1834
2.10462
2.07975
2.0821
2.07539
2.0618
2.04681
2.03268
2.01765
2.00246
1.99249
1.98328
1.97407
1.96315
1.9455
1.92252
1.9077
1.90029
1.89577
1.8952
1.8913
1.88476
1.87349
1.84941
1.81986
1.80685
1.8009
1.79739
1.79956
1.79848
1.79323
1.78505
1.76539
1.74312
1.73488
1.73015
1.72486
1.71898
1.71148
1.69985
1.68081
1.66764
1.66355
1.66049
1.65921
1.65758
1.65417
1.64869
1.63388
1.60963
1.59788
1.59416
1.59091
1.58822
1.58669
1.58419
1.5813
1.57775
1.57007
1.55362
1.53386
1.5229
1.51712
1.51227
1.5081
1.5048
1.50212
1.49958
1.49674
1.49276
1.48664
1.47766
1.46554
1.45418
1.44824
1.44459
1.44131
1.43814
1.43497
1.43146
1.42711
1.42061
1.41074
1.40139
1.39568
1.39139
1.38656
1.38102
1.37862
1.37786
1.38163
1.40138
1.45112
1.53393
1.63058
1.70985
1.76982
1.82039
1.85498
1.87042
1.8588
1.83779
1.82347
1.82013
1.81824
1.81292
1.80594
1.79323
1.77437
1.76663
1.76505
1.7645
1.76654
1.77055
1.76867
1.76392
1.75743
1.74686
1.73048
1.71873
1.7145
1.71175
1.70972
1.70953
1.71025
1.70961
1.70808
1.7047
1.6954
1.6823
1.67641
1.67429
1.67239
1.67005
1.66747
1.66163
1.49911
1.42162
1.33766
1.23022
1.17929
1.14752
1.09802
1.08643
1.08223
1.06442
1.05328
1.05418
1.06382
1.07125
1.075
1.07964
1.08788
1.08913
1.09042
1.09376
1.10054
1.10431
1.10523
1.10547
1.1053
1.10397
1.10079
1.10012
1.10044
1.10045
1.10052
1.10086
1.10107
1.10129
1.10108
1.10031
1.09975
1.09962
1.09972
1.09982
1.09983
1.09982
1.09957
1.09912
1.09871
1.09797
1.09852
1.10318
1.14623
1.33833
1.52988
1.57981
1.66883
1.77557
1.9562
2.08562
2.135
2.12455
2.10647
2.09228
2.07674
2.06535
2.05411
2.04062
2.02395
2.00708
1.99284
1.98402
1.97483
1.9638
1.94985
1.93262
1.91716
1.90565
1.89803
1.89245
1.88812
1.88172
1.87184
1.85424
1.83182
1.81601
1.80803
1.80342
1.79947
1.79547
1.78978
1.78143
1.76774
1.74937
1.7371
1.7302
1.72494
1.72014
1.71446
1.70526
1.68963
1.6729
1.66573
1.66248
1.65913
1.65601
1.65206
1.64648
1.6358
1.61634
1.60106
1.59535
1.59232
1.58939
1.58628
1.58333
1.58009
1.57614
1.56884
1.55552
1.53963
1.52738
1.51889
1.51393
1.51104
1.50893
1.5062
1.50344
1.50038
1.49621
1.49021
1.48227
1.472
1.46042
1.4532
1.44941
1.44616
1.44306
1.43992
1.4363
1.43157
1.42501
1.41542
1.40547
1.39825
1.39246
1.3883
1.38505
1.38434
1.39004
1.41727
1.47022
1.53031
1.5759
1.61054
1.65186
1.69929
1.74232
1.77368
1.79861
1.80793
1.81737
1.82313
1.82418
1.82194
1.81598
1.8083
1.79767
1.78243
1.77282
1.77036
1.76875
1.76875
1.76947
1.76708
1.76304
1.75739
1.74754
1.73424
1.72461
1.71872
1.71507
1.71288
1.71142
1.7104
1.70951
1.70777
1.70421
1.69634
1.68523
1.68004
1.6776
1.6753
1.67255
1.66966
1.66361
1.5385
1.49648
1.43641
1.35836
1.28591
1.23393
1.17188
1.11972
1.09886
1.07556
1.04709
1.0457
1.04901
1.04834
1.04848
1.05122
1.05576
1.0592
1.06207
1.06785
1.07788
1.0838
1.08508
1.08585
1.08705
1.08713
1.08702
1.08785
1.08893
1.0899
1.09116
1.09149
1.09143
1.09115
1.09024
1.08981
1.08967
1.08962
1.08956
1.08961
1.0899
1.08991
1.08966
1.08959
1.08942
1.0908
1.10427
1.16608
1.33945
1.53682
1.59777
1.59719
1.60247
1.61899
1.70313
1.90938
2.10278
2.16194
2.1434
2.09906
2.07171
2.06873
2.06335
2.05037
2.03541
2.02084
2.00556
1.99089
1.97673
1.9627
1.95126
1.94286
1.93223
1.91965
1.90613
1.89525
1.88638
1.87715
1.86586
1.85373
1.84378
1.83409
1.82263
1.81221
1.80469
1.79689
1.78751
1.77652
1.76456
1.75332
1.74303
1.73429
1.7271
1.72066
1.71376
1.70594
1.69511
1.68031
1.66969
1.6655
1.6619
1.65738
1.65123
1.64286
1.63276
1.62187
1.61014
1.60008
1.59387
1.59019
1.58739
1.5845
1.58057
1.57358
1.56197
1.54948
1.54143
1.53383
1.52679
1.52054
1.5141
1.50722
1.50164
1.49739
1.49354
1.48947
1.48483
1.47898
1.47076
1.45978
1.44998
1.44558
1.44267
1.43983
1.43697
1.43357
1.42828
1.41991
1.41009
1.40214
1.39717
1.39472
1.39251
1.3949
1.41114
1.44871
1.51332
1.56475
1.59589
1.60488
1.60757
1.61496
1.63096
1.65772
1.69364
1.73853
1.7825
1.81069
1.81996
1.82576
1.82527
1.82008
1.8119
1.80211
1.79011
1.78213
1.77826
1.77426
1.76987
1.76559
1.76373
1.76135
1.75576
1.74563
1.73574
1.73032
1.72682
1.72371
1.72021
1.71658
1.7129
1.70959
1.70644
1.70191
1.69493
1.68716
1.68181
1.67817
1.67528
1.67205
1.66878
1.66253
1.55597
1.53738
1.49898
1.4423
1.37679
1.32079
1.26204
1.20097
1.17285
1.14459
1.0988
1.08432
1.07696
1.06041
1.04941
1.05035
1.04885
1.04425
1.0444
1.04866
1.05726
1.06282
1.06491
1.06684
1.0703
1.0725
1.07466
1.07674
1.07887
1.08097
1.08237
1.08275
1.08263
1.0823
1.08194
1.08207
1.08271
1.0831
1.08297
1.08268
1.08235
1.08139
1.0806
1.08075
1.08228
1.10508
1.22931
1.38085
1.53145
1.60513
1.61721
1.61414
1.61
1.60431
1.60657
1.65793
1.84682
2.08386
2.1219
2.09866
2.08795
2.07937
2.07143
2.05918
2.0496
2.03981
2.02432
2.00173
1.98201
1.96928
1.96134
1.95424
1.947
1.93649
1.92079
1.90097
1.88452
1.87331
1.8661
1.86145
1.85831
1.85161
1.84043
1.82531
1.80881
1.79551
1.78378
1.77462
1.76839
1.76317
1.75539
1.74459
1.73241
1.72324
1.7171
1.71177
1.70457
1.69382
1.68126
1.66946
1.66259
1.65684
1.64958
1.64107
1.63344
1.62792
1.62115
1.61174
1.60151
1.59433
1.58952
1.58458
1.57813
1.56939
1.55972
1.55043
1.54227
1.53709
1.53311
1.5283
1.52217
1.51322
1.50356
1.49626
1.49114
1.48699
1.48332
1.47943
1.47365
1.46369
1.45298
1.44677
1.4435
1.44089
1.4382
1.43506
1.43028
1.42005
1.40791
1.40163
1.39959
1.40098
1.41061
1.44338
1.50167
1.56069
1.60721
1.62142
1.61632
1.61453
1.61421
1.61629
1.61835
1.62039
1.62915
1.65218
1.69653
1.74491
1.78222
1.80078
1.81186
1.811
1.80991
1.80839
1.80305
1.79842
1.79344
1.78549
1.77696
1.77135
1.76759
1.76266
1.75409
1.74681
1.74288
1.73909
1.73574
1.73296
1.72929
1.72409
1.71806
1.71182
1.70623
1.70117
1.69649
1.69183
1.68605
1.68128
1.6776
1.67439
1.67125
1.66473
1.56621
1.55963
1.54004
1.50149
1.44736
1.39713
1.33844
1.27828
1.24315
1.21253
1.16259
1.13187
1.11295
1.08922
1.06063
1.0567
1.05301
1.04501
1.04481
1.04853
1.05292
1.05283
1.05356
1.05445
1.05734
1.06172
1.06546
1.06945
1.07284
1.0756
1.07711
1.07772
1.0775
1.07703
1.07748
1.07895
1.08034
1.0807
1.08065
1.08042
1.07956
1.0778
1.07687
1.07764
1.09719
1.25764
1.46352
1.55981
1.6069
1.62219
1.62166
1.62039
1.6141
1.60879
1.60694
1.60072
1.62259
1.77422
1.99619
2.09798
2.10879
2.0902
2.07046
2.06074
2.05603
2.0471
2.03318
2.01065
1.989
1.9788
1.97101
1.96298
1.95399
1.94405
1.92902
1.90522
1.88504
1.87668
1.87114
1.8667
1.86241
1.85621
1.8486
1.83409
1.81093
1.7933
1.78439
1.77786
1.77178
1.76591
1.75997
1.7514
1.73928
1.7274
1.71879
1.712
1.70633
1.69999
1.69099
1.67753
1.663
1.65366
1.64721
1.64247
1.63827
1.63317
1.62759
1.62133
1.6128
1.60216
1.59139
1.58221
1.573
1.56405
1.55664
1.55123
1.5477
1.54517
1.54169
1.53642
1.52542
1.51177
1.50189
1.49647
1.4924
1.48805
1.48274
1.47656
1.47023
1.4646
1.45805
1.45133
1.44625
1.44277
1.43987
1.43712
1.43188
1.42039
1.40923
1.40685
1.40969
1.42998
1.48087
1.55002
1.61126
1.63987
1.63855
1.63016
1.62378
1.62199
1.62161
1.62216
1.61917
1.61812
1.61637
1.61651
1.6262
1.65097
1.69279
1.73918
1.77812
1.79641
1.80617
1.81178
1.81179
1.80742
1.80029
1.79395
1.78687
1.77826
1.76776
1.75812
1.75259
1.74839
1.74519
1.7428
1.74059
1.73889
1.73664
1.73219
1.7238
1.71495
1.70813
1.70257
1.69714
1.69143
1.68453
1.67914
1.67683
1.6747
1.67279
1.66825
1.57443
1.57025
1.56221
1.5417
1.50244
1.45871
1.40924
1.35299
1.3118
1.27471
1.2278
1.19397
1.17106
1.14423
1.10753
1.09829
1.08948
1.07242
1.06371
1.06458
1.06194
1.0556
1.05199
1.05032
1.05059
1.05228
1.05655
1.06321
1.06966
1.07279
1.07475
1.07601
1.07597
1.07581
1.07667
1.07888
1.07999
1.08055
1.08093
1.08067
1.07932
1.07789
1.07978
1.10242
1.24421
1.49536
1.59103
1.62448
1.63772
1.63041
1.62044
1.62127
1.61796
1.60779
1.60246
1.59981
1.59141
1.59941
1.69273
1.89531
2.04741
2.06865
2.06895
2.0682
2.06307
2.04912
2.03275
2.01369
1.99385
1.9824
1.97409
1.96596
1.95747
1.94828
1.93494
1.91226
1.88989
1.88061
1.87477
1.87002
1.86614
1.85949
1.85047
1.83674
1.81399
1.79422
1.78594
1.78025
1.77504
1.77038
1.76567
1.75906
1.74521
1.7271
1.71835
1.71379
1.71044
1.70659
1.69936
1.68452
1.66281
1.65047
1.64634
1.64371
1.64368
1.6425
1.63801
1.6324
1.62318
1.605
1.58711
1.57769
1.5712
1.565
1.55999
1.55657
1.55384
1.55042
1.5454
1.53706
1.52458
1.51212
1.50416
1.49848
1.49344
1.48914
1.48486
1.47925
1.47194
1.46474
1.45961
1.45551
1.4517
1.44711
1.44118
1.43556
1.43018
1.4203
1.41675
1.42495
1.46293
1.52881
1.59448
1.63588
1.6558
1.65947
1.65721
1.64715
1.63833
1.63389
1.62945
1.62482
1.62117
1.61832
1.61427
1.61183
1.60993
1.60906
1.61667
1.64041
1.68455
1.73592
1.76869
1.79445
1.80312
1.80584
1.80659
1.80381
1.79697
1.78307
1.7657
1.75619
1.75294
1.7509
1.74898
1.74752
1.74576
1.74463
1.74179
1.73417
1.7237
1.71565
1.70977
1.70449
1.69949
1.69452
1.68855
1.68173
1.67809
1.67576
1.67395
1.66973
1.58053
1.5779
1.57501
1.56539
1.54245
1.50977
1.46488
1.41692
1.37678
1.33625
1.28805
1.2546
1.22604
1.19568
1.16175
1.14536
1.13048
1.10532
1.08648
1.08182
1.07338
1.06267
1.05838
1.05674
1.05474
1.05542
1.05768
1.06218
1.06561
1.06706
1.0687
1.07101
1.07301
1.07516
1.07807
1.08073
1.08151
1.08207
1.08267
1.08238
1.08059
1.08541
1.13805
1.27451
1.49957
1.61666
1.63745
1.64153
1.6433
1.63845
1.62361
1.61702
1.61374
1.60578
1.59707
1.59216
1.58764
1.57881
1.57878
1.6229
1.77807
1.96704
2.039
2.06082
2.05677
2.04117
2.02588
2.01187
1.99511
1.98036