/*--------------------------------*- C++ -*----------------------------------*\
  =========                 |
  \\      /  F ield         | OpenFOAM: The Open Source CFD Toolbox
   \\    /   O peration     | Website:  https://openfoam.org
    \\  /    A nd           | Version:  7
     \\/     M anipulation  |
\*---------------------------------------------------------------------------*/
FoamFile
{
    version     2.0;
    format      ascii;
    class       volVectorField;
    location    "1.8";
    object      U;
}
// * * * * * * * * * * * * * * * * * * * * * * * * * * * * * * * * * * * * * //

dimensions      [0 1 -1 0 0 0 0];

internalField   nonuniform List<vector> 
18432
(
(3 -1.347e-16 0)
(3 -2.34421e-16 0)
(3 -9.55245e-17 0)
(3 1.76893e-16 0)
(3 1.27246e-16 0)
(3 2.27445e-16 0)
(3 4.66343e-16 0)
(3 2.34272e-16 0)
(3 1.93154e-17 0)
(3 -8.78166e-17 0)
(3 -6.55004e-17 0)
(3 6.59436e-16 0)
(3 1.37213e-15 0)
(3 1.55958e-15 0)
(3 1.20941e-15 0)
(3 -1.57605e-16 0)
(3 2.79638e-16 0)
(3 1.18619e-15 0)
(3 1.62279e-15 0)
(3 1.47493e-15 0)
(3 1.49869e-15 0)
(3 1.12664e-15 0)
(3 6.29523e-16 0)
(3 2.05158e-16 0)
(3 4.43645e-16 0)
(3 -7.15214e-17 0)
(3 -5.6719e-16 0)
(3 -6.81725e-16 0)
(3 -4.49312e-16 0)
(3 -4.53147e-16 0)
(3 -9.13939e-16 0)
(3 -1.24963e-15 0)
(3 -6.71714e-16 0)
(3 9.07167e-18 0)
(3 8.48912e-17 0)
(3 5.25848e-16 0)
(3 -6.20406e-16 0)
(3 -2.29539e-15 0)
(3 -2.33192e-15 0)
(3 -1.83013e-15 0)
(3 -8.29616e-16 0)
(3 -2.94682e-16 0)
(3 3.45443e-16 0)
(3 2.98839e-16 0)
(3 7.73863e-17 0)
(3 1.44525e-16 0)
(3 2.47217e-16 0)
(3 2.56239e-16 0)
(3 2.39395e-17 0)
(3 1.93065e-17 0)
(3 1.20778e-16 0)
(3 4.97327e-16 0)
(3 1.82055e-16 0)
(3 3.16872e-16 0)
(3 6.08171e-16 0)
(3 2.30471e-16 0)
(3 2.47094e-16 0)
(3 2.06081e-16 0)
(3 -1.06149e-16 0)
(3 2.17462e-15 0)
(3 2.72081e-15 0)
(3 3.22622e-15 0)
(3 3.21343e-15 0)
(3 1.98902e-15 0)
(3 1.76644e-15 0)
(3 2.12636e-15 0)
(3 2.55042e-15 0)
(3 2.473e-15 0)
(3 2.07758e-15 0)
(3 1.08001e-15 0)
(3 2.91482e-16 0)
(3 -9.66529e-16 0)
(3 -1.16484e-15 0)
(3 -1.86509e-15 0)
(3 -1.95005e-15 0)
(3 -1.6192e-15 0)
(3 -4.65243e-16 0)
(3 -8.87689e-16 0)
(3 -1.30847e-15 0)
(3 -1.32717e-15 0)
(3 -1.80292e-16 0)
(3 7.99854e-16 0)
(3 5.86555e-16 0)
(3 6.19838e-16 0)
(3 -3.4184e-16 0)
(3 -2.19518e-15 0)
(3 -1.69198e-15 0)
(3 -5.47062e-16 0)
(3 8.11666e-17 0)
(3 1.23445e-16 0)
(3 8.21948e-16 0)
(3 1.13916e-15 0)
(3 3.80187e-16 0)
(3 3.45043e-16 0)
(3 2.5701e-16 0)
(3 2.31049e-16 0)
(3 1.42247e-16 0)
(3 2.5733e-16 0)
(3 1.25084e-16 0)
(3 6.6897e-17 0)
(3 1.11976e-16 0)
(3 3.66709e-16 0)
(3 5.82617e-16 0)
(3 8.57191e-16 0)
(3 3.71404e-16 0)
(3 1.12351e-16 0)
(3 7.48222e-16 0)
(3 7.95476e-16 0)
(3 1.13254e-15 0)
(3 1.92006e-15 0)
(3 1.94423e-15 0)
(3 1.36459e-15 0)
(3 9.5788e-16 0)
(3 1.06811e-15 0)
(3 8.03396e-16 0)
(3 4.88047e-16 0)
(3 1.73805e-17 0)
(3 -9.62354e-16 0)
(3 -2.30927e-15 0)
(3 -2.37314e-15 0)
(3 -3.06235e-15 0)
(3 -3.15147e-15 0)
(3 -1.7654e-15 0)
(3 -7.33391e-16 0)
(3 -5.09249e-16 0)
(3 -9.21566e-16 0)
(3 -9.88652e-16 0)
(3 3.39255e-17 0)
(3 2.47451e-16 0)
(3 1.45414e-16 0)
(3 -4.51045e-16 0)
(3 -1.69222e-15 0)
(3 -2.69372e-15 0)
(3 -2.903e-15 0)
(3 -2.5379e-15 0)
(3 -1.83492e-15 0)
(3 -1.35481e-15 0)
(3 -5.13874e-16 0)
(3 6.36774e-16 0)
(3 2.07141e-15 0)
(3 2.01216e-15 0)
(3 1.27679e-15 0)
(3 1.45012e-15 0)
(3 1.46864e-15 0)
(3 -3.03991e-17 0)
(3 2.03112e-16 0)
(3 3.11392e-17 0)
(3 -1.33377e-16 0)
(3 3.84934e-16 0)
(3 3.00943e-16 0)
(3 1.3343e-16 0)
(3 2.36055e-16 0)
(3 2.20253e-16 0)
(3 2.09414e-16 0)
(3 4.2151e-16 0)
(3 7.83776e-17 0)
(3 -3.34714e-16 0)
(3 -8.3408e-16 0)
(3 -7.89055e-16 0)
(3 -2.03857e-16 0)
(3 3.46514e-17 0)
(3 2.21491e-16 0)
(3 1.86285e-16 0)
(3 -1.44086e-16 0)
(3 -1.50034e-15 0)
(3 -2.27644e-15 0)
(3 -1.91925e-15 0)
(3 -1.65686e-15 0)
(3 -1.60347e-15 0)
(3 -2.26536e-15 0)
(3 -2.86611e-15 0)
(3 -2.24299e-15 0)
(3 -1.3492e-15 0)
(3 -1.03181e-15 0)
(3 -2.88017e-16 0)
(3 5.16385e-16 0)
(3 5.03557e-16 0)
(3 6.41055e-16 0)
(3 5.98312e-16 0)
(3 -2.58085e-16 0)
(3 -2.70839e-15 0)
(3 -3.82e-15 0)
(3 -3.56349e-15 0)
(3 -2.92336e-15 0)
(3 -1.61042e-15 0)
(3 -2.67286e-16 0)
(3 2.89296e-16 0)
(3 1.31703e-15 0)
(3 1.67989e-15 0)
(3 1.50354e-15 0)
(3 2.31392e-15 0)
(3 1.78179e-15 0)
(3 1.78188e-17 0)
(3 2.67458e-16 0)
(3 6.09192e-16 0)
(3 8.67439e-16 0)
(3 9.943e-16 0)
(3 7.39807e-16 0)
(3 5.06111e-16 0)
(3 -3.89137e-16 0)
(3 -2.44064e-16 0)
(3 -2.69147e-18 0)
(3 -2.97414e-16 0)
(3 -1.70075e-17 0)
(3 1.31198e-16 0)
(3 -6.94024e-17 0)
(3 -5.8931e-17 0)
(3 5.52572e-16 0)
(3 6.15734e-16 0)
(3 -4.77888e-17 0)
(3 -5.15298e-17 0)
(3 -3.2695e-16 0)
(3 -1.55836e-16 0)
(3 3.32514e-16 0)
(3 7.12704e-16 0)
(3 5.36132e-16 0)
(3 -3.82765e-16 0)
(3 -1.2627e-15 0)
(3 -1.72681e-15 0)
(3 -1.53934e-15 0)
(3 -8.54966e-16 0)
(3 1.13338e-16 0)
(3 9.87495e-16 0)
(3 5.97715e-16 0)
(3 -5.31171e-17 0)
(3 -1.98299e-16 0)
(3 2.03223e-16 0)
(3 7.75218e-17 0)
(3 -1.62942e-16 0)
(3 -8.24401e-16 0)
(3 -5.727e-16 0)
(3 -3.5073e-16 0)
(3 -2.08821e-16 0)
(3 -2.74708e-16 0)
(3 6.42882e-17 0)
(3 1.08138e-15 0)
(3 1.36832e-15 0)
(3 1.70475e-15 0)
(3 2.54831e-15 0)
(3 2.79449e-15 0)
(3 1.27531e-16 0)
(3 1.78911e-16 0)
(3 1.12649e-16 0)
(3 1.11109e-16 0)
(3 5.45437e-17 0)
(3 2.22113e-16 0)
(3 1.52659e-16 0)
(3 3.74411e-16 0)
(3 -2.711e-16 0)
(3 -1.06476e-16 0)
(3 -9.67306e-17 0)
(3 1.40264e-16 0)
(3 4.25135e-16 0)
(3 6.51669e-16 0)
(3 5.15847e-16 0)
(3 8.10177e-16 0)
(3 2.86207e-16 0)
(3 -1.22953e-15 0)
(3 -1.65622e-15 0)
(3 -1.5351e-15 0)
(3 -4.96105e-16 0)
(3 8.458e-16 0)
(3 3.47756e-16 0)
(3 -2.20125e-16 0)
(3 -9.19741e-16 0)
(3 -1.13278e-15 0)
(3 -9.74959e-16 0)
(3 -1.22722e-15 0)
(3 -6.99442e-16 0)
(3 -7.32954e-16 0)
(3 -5.10943e-16 0)
(3 -5.13596e-16 0)
(3 -7.42607e-16 0)
(3 -6.2167e-16 0)
(3 -3.06775e-16 0)
(3 1.22629e-16 0)
(3 8.85663e-16 0)
(3 1.30244e-15 0)
(3 1.32522e-15 0)
(3 8.06722e-16 0)
(3 1.07495e-16 0)
(3 -5.45979e-16 0)
(3 -2.29511e-16 0)
(3 5.98691e-16 0)
(3 1.00763e-15 0)
(3 2.26345e-15 0)
(3 2.21859e-15 0)
(3 2.05278e-15 0)
(3 7.46511e-17 0)
(3 -1.03346e-16 0)
(3 -2.91785e-16 0)
(3 -3.91177e-17 0)
(3 3.5535e-16 0)
(3 4.89522e-16 0)
(3 3.82546e-16 0)
(3 3.17241e-16 0)
(3 4.27927e-16 0)
(3 4.41987e-16 0)
(3 4.73056e-16 0)
(3 -1.39888e-16 0)
(3 -1.09303e-16 0)
(3 -8.10554e-17 0)
(3 -1.26261e-16 0)
(3 1.8615e-16 0)
(3 -5.00707e-16 0)
(3 -1.71231e-15 0)
(3 -1.65681e-15 0)
(3 -1.04997e-15 0)
(3 -5.79203e-16 0)
(3 -6.39675e-16 0)
(3 -8.45215e-16 0)
(3 -1.43054e-15 0)
(3 -1.53677e-15 0)
(3 -1.56709e-15 0)
(3 -7.40602e-16 0)
(3 -7.03264e-16 0)
(3 -1.00931e-15 0)
(3 -1.70689e-15 0)
(3 -1.98944e-15 0)
(3 -7.81176e-16 0)
(3 -1.59594e-16 0)
(3 6.1558e-16 0)
(3 4.34523e-16 0)
(3 7.0161e-16 0)
(3 8.99104e-16 0)
(3 1.38791e-15 0)
(3 1.27311e-15 0)
(3 7.79335e-16 0)
(3 7.32925e-16 0)
(3 5.17557e-17 0)
(3 -7.59924e-16 0)
(3 -6.97233e-16 0)
(3 -1.22556e-16 0)
(3 4.8692e-16 0)
(3 9.75953e-17 0)
(3 -2.43694e-16 0)
(3 1.00869e-16 0)
(3 -2.57848e-16 0)
(3 -8.63708e-17 0)
(3 2.26581e-16 0)
(3 3.45438e-16 0)
(3 2.42141e-16 0)
(3 3.67978e-16 0)
(3 2.10024e-16 0)
(3 5.79474e-16 0)
(3 4.84347e-16 0)
(3 6.0705e-16 0)
(3 1.28987e-16 0)
(3 1.38526e-16 0)
(3 2.44378e-16 0)
(3 -3.58342e-16 0)
(3 -7.83739e-16 0)
(3 -6.64348e-16 0)
(3 -6.53816e-16 0)
(3 -8.31312e-16 0)
(3 -3.18739e-16 0)
(3 -1.63961e-16 0)
(3 -3.70927e-16 0)
(3 -5.26913e-16 0)
(3 -1.0311e-15 0)
(3 -1.07698e-15 0)
(3 -7.23624e-16 0)
(3 -4.43111e-16 0)
(3 -1.81547e-16 0)
(3 -1.65343e-15 0)
(3 -1.91467e-15 0)
(3 -1.61726e-15 0)
(3 -7.1858e-16 0)
(3 1.29345e-15 0)
(3 1.72631e-15 0)
(3 2.01622e-15 0)
(3 1.95381e-15 0)
(3 2.11642e-15 0)
(3 2.48419e-15 0)
(3 2.25992e-15 0)
(3 1.73848e-15 0)
(3 7.37857e-16 0)
(3 3.28532e-16 0)
(3 -1.98293e-16 0)
(3 -4.24567e-17 0)
(3 4.07394e-17 0)
(3 -2.87589e-17 0)
(3 -1.95382e-16 0)
(3 -7.29073e-16 0)
(3 -3.66282e-17 0)
(3 1.88405e-16 0)
(3 1.07732e-16 0)
(3 -4.77481e-16 0)
(3 -1.13608e-15 0)
(3 -1.36431e-15 0)
(3 -1.3588e-15 0)
(3 -1.03625e-15 0)
(3 -3.60456e-16 0)
(3 -1.84902e-18 0)
(3 3.70787e-16 0)
(3 2.44102e-16 0)
(3 3.35121e-16 0)
(3 8.12216e-17 0)
(3 -1.12503e-15 0)
(3 -2.27271e-15 0)
(3 -2.13139e-15 0)
(3 -7.51037e-16 0)
(3 -3.20418e-16 0)
(3 -1.0121e-15 0)
(3 -1.11803e-15 0)
(3 -8.99544e-16 0)
(3 -1.37221e-15 0)
(3 -1.52926e-15 0)
(3 -1.22135e-15 0)
(3 -3.85485e-16 0)
(3 -7.02224e-16 0)
(3 -6.51786e-16 0)
(3 -7.86652e-16 0)
(3 -7.36382e-16 0)
(3 -5.20174e-16 0)
(3 8.50447e-16 0)
(3 1.24228e-15 0)
(3 1.57842e-15 0)
(3 2.19176e-15 0)
(3 2.83248e-15 0)
(3 2.40665e-15 0)
(3 1.75424e-15 0)
(3 1.89701e-15 0)
(3 1.39884e-15 0)
(3 -2.18238e-17 0)
(3 -3.17682e-16 0)
(3 -4.30181e-16 0)
(3 -7.83327e-16 0)
(3 -1.13528e-15 0)
(3 -1.12301e-15 0)
(3 -8.88559e-16 0)
(3 -1.5087e-15 0)
(3 -2.4799e-16 0)
(3 -1.51103e-16 0)
(3 -1.90485e-16 0)
(3 -4.51056e-16 0)
(3 -7.33438e-16 0)
(3 -1.06809e-15 0)
(3 -1.27476e-15 0)
(3 -1.06354e-15 0)
(3 -7.66444e-16 0)
(3 -1.06446e-15 0)
(3 -4.90288e-16 0)
(3 -3.13365e-16 0)
(3 -9.21403e-16 0)
(3 -1.41605e-15 0)
(3 -1.60694e-15 0)
(3 -1.52277e-15 0)
(3 -1.4997e-15 0)
(3 -1.60764e-15 0)
(3 -1.85497e-15 0)
(3 -2.05827e-15 0)
(3 -2.33107e-15 0)
(3 -1.77743e-15 0)
(3 -1.8434e-15 0)
(3 -1.32833e-15 0)
(3 -1.11611e-15 0)
(3 -1.24284e-15 0)
(3 -1.29004e-15 0)
(3 -1.00426e-15 0)
(3 -4.93155e-16 0)
(3 5.19469e-16 0)
(3 1.66541e-15 0)
(3 1.32623e-15 0)
(3 8.03266e-16 0)
(3 6.61472e-16 0)
(3 6.75028e-16 0)
(3 1.35946e-15 0)
(3 5.18133e-16 0)
(3 -7.51658e-16 0)
(3 -7.71781e-16 0)
(3 -7.57127e-16 0)
(3 -1.56656e-15 0)
(3 -1.36984e-15 0)
(3 -1.64537e-15 0)
(3 -2.64697e-15 0)
(3 -2.30466e-15 0)
(3 -2.44593e-15 0)
(3 -2.34507e-15 0)
(3 -2.24448e-15 0)
(3 -1.74264e-16 0)
(3 -7.55449e-16 0)
(3 -4.38276e-16 0)
(3 -1.76553e-16 0)
(3 -1.36542e-16 0)
(3 -1.28242e-16 0)
(3 -5.37114e-16 0)
(3 -8.99263e-16 0)
(3 -1.17193e-15 0)
(3 -1.15767e-15 0)
(3 -9.19799e-16 0)
(3 -5.87243e-16 0)
(3 -1.5277e-15 0)
(3 -2.1438e-15 0)
(3 -2.07626e-15 0)
(3 -1.0015e-15 0)
(3 -1.03616e-15 0)
(3 -1.52688e-15 0)
(3 -1.52194e-15 0)
(3 -1.10801e-15 0)
(3 -9.84959e-16 0)
(3 -1.1968e-15 0)
(3 -3.87545e-16 0)
(3 6.03009e-16 0)
(3 1.1186e-15 0)
(3 3.77279e-16 0)
(3 -4.42185e-17 0)
(3 3.53619e-16 0)
(3 1.93009e-15 0)
(3 2.9736e-15 0)
(3 2.60879e-15 0)
(3 1.73292e-15 0)
(3 8.58859e-16 0)
(3 1.05628e-16 0)
(3 2.35124e-16 0)
(3 6.13756e-16 0)
(3 -6.86636e-16 0)
(3 -1.67737e-15 0)
(3 -1.37554e-15 0)
(3 -1.19643e-15 0)
(3 -1.05997e-15 0)
(3 -9.27221e-16 0)
(3 -1.1706e-15 0)
(3 -6.85637e-16 0)
(3 -5.60633e-16 0)
(3 -8.14219e-16 0)
(3 -1.21872e-15 0)
(3 -1.03093e-15 0)
(3 1.04467e-16 0)
(3 1.95076e-16 0)
(3 2.91087e-16 0)
(3 3.9129e-16 0)
(3 4.81629e-16 0)
(3 4.27089e-16 0)
(3 -1.73518e-16 0)
(3 -1.12421e-15 0)
(3 -1.09531e-15 0)
(3 -1.06597e-16 0)
(3 -6.8872e-16 0)
(3 -6.20391e-16 0)
(3 -6.04647e-16 0)
(3 -5.56372e-16 0)
(3 -2.09658e-16 0)
(3 -4.77777e-16 0)
(3 -7.38072e-16 0)
(3 -5.87077e-16 0)
(3 -1.97486e-16 0)
(3 2.85889e-16 0)
(3 9.58792e-16 0)
(3 5.7528e-16 0)
(3 6.88263e-16 0)
(3 4.02683e-16 0)
(3 -4.28213e-16 0)
(3 5.40537e-16 0)
(3 2.68047e-16 0)
(3 1.01099e-15 0)
(3 2.14195e-15 0)
(3 2.91423e-15 0)
(3 2.31986e-15 0)
(3 1.70997e-15 0)
(3 1.28322e-15 0)
(3 1.55818e-15 0)
(3 1.773e-15 0)
(3 1.43442e-15 0)
(3 1.10741e-15 0)
(3 7.30449e-16 0)
(3 -4.74529e-16 0)
(3 -2.43644e-16 0)
(3 3.04716e-16 0)
(3 5.49558e-16 0)
(3 1.16029e-15 0)
(3 9.60251e-16 0)
(3 -5.61992e-16 0)
(3 -1.10839e-15 0)
(3 -8.98696e-16 0)
(3 -3.66652e-16 0)
(3 1.2667e-16 0)
(3 1.85307e-16 0)
(3 -6.20577e-17 0)
(3 -1.06839e-16 0)
(3 3.54468e-16 0)
(3 2.32093e-16 0)
(3 1.76769e-17 0)
(3 -2.87027e-16 0)
(3 -3.5987e-16 0)
(3 -4.42973e-16 0)
(3 -5.05519e-16 0)
(3 -2.97927e-16 0)
(3 -2.89913e-16 0)
(3 9.59249e-17 0)
(3 5.20097e-16 0)
(3 8.99926e-16 0)
(3 1.10724e-15 0)
(3 1.02265e-15 0)
(3 8.38268e-16 0)
(3 7.47075e-16 0)
(3 4.34873e-16 0)
(3 7.53762e-16 0)
(3 5.93761e-16 0)
(3 2.91166e-16 0)
(3 -2.99443e-16 0)
(3 2.68704e-16 0)
(3 1.76267e-15 0)
(3 2.03686e-15 0)
(3 1.67337e-15 0)
(3 1.44166e-15 0)
(3 1.61547e-15 0)
(3 1.21737e-15 0)
(3 1.32018e-15 0)
(3 2.05669e-15 0)
(3 2.45884e-15 0)
(3 2.56629e-15 0)
(3 3.19524e-15 0)
(3 2.52899e-15 0)
(3 1.63783e-15 0)
(3 2.5052e-15 0)
(3 2.60506e-15 0)
(3 2.47726e-15 0)
(3 2.51937e-15 0)
(3 1.50059e-15 0)
(3 6.10454e-16 0)
(3 9.72188e-16 0)
(3 2.05044e-17 0)
(3 -7.08989e-16 0)
(3 8.20504e-17 0)
(3 -1.49176e-17 0)
(3 -2.2196e-16 0)
(3 -3.74551e-16 0)
(3 -3.28918e-16 0)
(3 -1.4569e-16 0)
(3 2.82194e-16 0)
(3 1.91646e-16 0)
(3 -5.70607e-16 0)
(3 -1.1254e-15 0)
(3 -9.51081e-16 0)
(3 -2.50136e-16 0)
(3 -2.64254e-16 0)
(3 -4.04122e-17 0)
(3 2.04496e-16 0)
(3 -1.22278e-16 0)
(3 -4.29274e-16 0)
(3 8.5592e-16 0)
(3 1.43143e-15 0)
(3 1.24179e-15 0)
(3 6.55914e-16 0)
(3 2.50407e-16 0)
(3 9.25193e-17 0)
(3 -5.16818e-16 0)
(3 -5.89699e-16 0)
(3 2.91186e-18 0)
(3 3.39567e-16 0)
(3 8.89114e-16 0)
(3 8.15787e-16 0)
(3 6.40262e-16 0)
(3 1.14188e-15 0)
(3 2.13597e-16 0)
(3 2.88817e-16 0)
(3 8.72667e-16 0)
(3 1.43705e-15 0)
(3 1.13036e-15 0)
(3 3.81607e-16 0)
(3 -1.07045e-16 0)
(3 1.18284e-15 0)
(3 1.5459e-15 0)
(3 1.68104e-15 0)
(3 1.64542e-15 0)
(3 8.82502e-16 0)
(3 9.56805e-16 0)
(3 1.0568e-15 0)
(3 1.11667e-15 0)
(3 1.04848e-15 0)
(3 1.20186e-15 0)
(3 -2.56455e-17 0)
(3 -1.53028e-16 0)
(3 -1.44135e-16 0)
(3 1.78334e-16 0)
(3 -1.00129e-16 0)
(3 -1.30899e-16 0)
(3 1.11668e-16 0)
(3 6.74477e-16 0)
(3 7.78912e-16 0)
(3 -1.90219e-17 0)
(3 -4.99772e-16 0)
(3 -3.21093e-16 0)
(3 -1.57799e-16 0)
(3 -2.59614e-16 0)
(3 -3.46233e-16 0)
(3 -7.88429e-16 0)
(3 -4.58419e-16 0)
(3 5.73567e-16 0)
(3 7.81806e-16 0)
(3 -2.72835e-16 0)
(3 -6.15478e-16 0)
(3 -1.25596e-15 0)
(3 -1.00455e-15 0)
(3 -5.07744e-16 0)
(3 -6.03965e-16 0)
(3 -8.84565e-16 0)
(3 -1.37391e-15 0)
(3 -1.38519e-15 0)
(3 -8.80777e-16 0)
(3 -5.42168e-16 0)
(3 -4.00804e-16 0)
(3 9.69888e-17 0)
(3 7.45083e-17 0)
(3 -7.36394e-17 0)
(3 -5.44242e-16 0)
(3 1.58412e-16 0)
(3 6.42212e-16 0)
(3 1.16683e-15 0)
(3 6.99475e-16 0)
(3 4.40485e-16 0)
(3 5.3267e-16 0)
(3 1.97186e-16 0)
(3 -5.0949e-16 0)
(3 -5.10717e-16 0)
(3 -5.91369e-16 0)
(3 -5.726e-16 0)
(3 3.55237e-16 0)
(3 1.08146e-15 0)
(3 -2.52094e-16 0)
(3 -2.58137e-16 0)
(3 -9.64924e-17 0)
(3 1.05595e-16 0)
(3 -7.27266e-17 0)
(3 8.61484e-17 0)
(3 -4.31521e-17 0)
(3 2.82877e-16 0)
(3 6.59293e-16 0)
(3 7.73435e-16 0)
(3 3.29614e-16 0)
(3 -5.70856e-16 0)
(3 -7.66751e-16 0)
(3 -4.61296e-16 0)
(3 -3.47988e-16 0)
(3 4.19443e-16 0)
(3 1.20919e-15 0)
(3 1.36958e-15 0)
(3 1.44491e-15 0)
(3 4.78537e-16 0)
(3 -4.78198e-16 0)
(3 -1.14985e-15 0)
(3 -1.73487e-16 0)
(3 5.89586e-16 0)
(3 9.4796e-16 0)
(3 2.97132e-16 0)
(3 -3.65352e-16 0)
(3 -4.9054e-16 0)
(3 -9.5779e-16 0)
(3 -1.62617e-15 0)
(3 -2.2275e-15 0)
(3 -1.11495e-15 0)
(3 -1.37644e-15 0)
(3 -1.81552e-15 0)
(3 -2.37469e-15 0)
(3 -1.74145e-15 0)
(3 8.36079e-16 0)
(3 1.99848e-15 0)
(3 2.43482e-15 0)
(3 1.60004e-15 0)
(3 6.55593e-17 0)
(3 -7.00578e-16 0)
(3 -8.82009e-16 0)
(3 -1.29484e-15 0)
(3 -1.36624e-15 0)
(3 -6.4518e-16 0)
(3 2.46065e-17 0)
(3 -1.24031e-15 0)
(3 7.26571e-17 0)
(3 2.68374e-16 0)
(3 3.1568e-16 0)
(3 -3.06609e-17 0)
(3 -3.06015e-16 0)
(3 -9.70875e-17 0)
(3 -1.18082e-16 0)
(3 -2.09018e-16 0)
(3 2.38674e-16 0)
(3 8.07271e-16 0)
(3 1.00642e-15 0)
(3 5.35404e-16 0)
(3 4.54269e-16 0)
(3 4.65788e-16 0)
(3 9.64577e-16 0)
(3 1.71121e-15 0)
(3 8.29013e-16 0)
(3 -1.92512e-16 0)
(3 -8.20144e-17 0)
(3 1.01777e-15 0)
(3 1.34369e-15 0)
(3 1.59696e-15 0)
(3 8.59665e-16 0)
(3 2.64857e-16 0)
(3 3.78174e-16 0)
(3 6.68086e-16 0)
(3 6.12096e-16 0)
(3 7.35627e-16 0)
(3 6.19841e-16 0)
(3 -4.11775e-16 0)
(3 -1.6098e-15 0)
(3 -1.99285e-15 0)
(3 -2.56761e-15 0)
(3 -3.03418e-15 0)
(3 -2.71885e-15 0)
(3 -1.48482e-15 0)
(3 5.39343e-16 0)
(3 1.26803e-15 0)
(3 1.31164e-15 0)
(3 7.90521e-16 0)
(3 4.50209e-16 0)
(3 -7.68308e-17 0)
(3 -1.78565e-15 0)
(3 -1.5985e-15 0)
(3 -1.44399e-15 0)
(3 -6.43936e-16 0)
(3 -1.42435e-15 0)
(3 -2.28206e-15 0)
(3 5.74766e-17 0)
(3 2.30573e-16 0)
(3 3.21494e-16 0)
(3 -4.40017e-17 0)
(3 8.98963e-17 0)
(3 2.82697e-16 0)
(3 -1.9766e-16 0)
(3 -2.81771e-16 0)
(3 5.74042e-16 0)
(3 7.39724e-16 0)
(3 6.5446e-16 0)
(3 1.43227e-15 0)
(3 1.69586e-15 0)
(3 1.70365e-15 0)
(3 1.52716e-15 0)
(3 1.48004e-15 0)
(3 -1.09513e-16 0)
(3 -1.10993e-15 0)
(3 -8.46744e-16 0)
(3 -3.698e-16 0)
(3 3.1799e-16 0)
(3 9.49654e-16 0)
(3 -1.57079e-17 0)
(3 -3.32813e-16 0)
(3 -1.56137e-15 0)
(3 -1.31098e-15 0)
(3 -3.61768e-16 0)
(3 -4.26464e-16 0)
(3 -3.29734e-16 0)
(3 -2.84927e-16 0)
(3 -2.92094e-16 0)
(3 -8.80182e-16 0)
(3 -8.94321e-16 0)
(3 -2.13772e-16 0)
(3 2.1611e-16 0)
(3 1.48589e-16 0)
(3 4.25937e-16 0)
(3 8.96433e-16 0)
(3 6.81984e-16 0)
(3 1.02814e-15 0)
(3 1.28929e-15 0)
(3 7.68759e-16 0)
(3 -3.29581e-16 0)
(3 2.36172e-16 0)
(3 6.78176e-16 0)
(3 8.53697e-16 0)
(3 1.01934e-15 0)
(3 1.79169e-16 0)
(3 -8.75102e-17 0)
(3 -5.13233e-17 0)
(3 -1.59255e-17 0)
(3 3.0459e-17 0)
(3 2.22836e-16 0)
(3 -1.3403e-17 0)
(3 -8.05318e-17 0)
(3 -1.02402e-16 0)
(3 -3.88786e-16 0)
(3 -6.53251e-16 0)
(3 -7.61533e-16 0)
(3 -3.81894e-16 0)
(3 1.4537e-16 0)
(3 5.73386e-16 0)
(3 3.84808e-16 0)
(3 1.6258e-16 0)
(3 2.10745e-16 0)
(3 5.44407e-16 0)
(3 1.79378e-16 0)
(3 -7.34116e-16 0)
(3 -1.14988e-15 0)
(3 -1.11905e-15 0)
(3 -5.80568e-16 0)
(3 2.62479e-16 0)
(3 4.66922e-16 0)
(3 4.36248e-16 0)
(3 4.66538e-16 0)
(3 1.9661e-16 0)
(3 -2.94384e-16 0)
(3 -3.1181e-16 0)
(3 1.01728e-15 0)
(3 1.63684e-15 0)
(3 1.42447e-15 0)
(3 1.37964e-15 0)
(3 1.13675e-15 0)
(3 9.14955e-16 0)
(3 2.80756e-16 0)
(3 7.54281e-16 0)
(3 9.97191e-16 0)
(3 1.62437e-15 0)
(3 1.36278e-15 0)
(3 3.13563e-16 0)
(3 3.15984e-16 0)
(3 3.72529e-16 0)
(3 1.13954e-15 0)
(3 1.16577e-15 0)
(3 8.58451e-16 0)
(3 1.81775e-15 0)
(3 -5.9163e-17 0)
(3 -3.05201e-16 0)
(3 -1.63786e-16 0)
(3 -8.29048e-17 0)
(3 1.26184e-16 0)
(3 -7.28845e-17 0)
(3 5.04347e-16 0)
(3 6.77325e-16 0)
(3 -6.70822e-16 0)
(3 -8.76101e-16 0)
(3 -3.61097e-16 0)
(3 -1.97605e-16 0)
(3 -8.28036e-17 0)
(3 -8.25647e-16 0)
(3 -1.21172e-15 0)
(3 -1.27694e-15 0)
(3 -8.33244e-16 0)
(3 -5.69891e-16 0)
(3 -1.75355e-16 0)
(3 1.92064e-17 0)
(3 3.22517e-16 0)
(3 4.87445e-16 0)
(3 9.52297e-16 0)
(3 1.35078e-15 0)
(3 2.0668e-15 0)
(3 1.44168e-15 0)
(3 8.97073e-16 0)
(3 1.01146e-15 0)
(3 9.16482e-16 0)
(3 7.81437e-16 0)
(3 1.90375e-15 0)
(3 2.60831e-15 0)
(3 1.81611e-15 0)
(3 3.10568e-16 0)
(3 -1.29725e-16 0)
(3 5.1312e-17 0)
(3 3.2196e-16 0)
(3 3.71238e-16 0)
(3 4.91262e-16 0)
(3 7.2898e-16 0)
(3 9.37532e-16 0)
(3 7.51439e-16 0)
(3 9.21553e-16 0)
(3 7.91057e-16 0)
(3 5.59831e-16 0)
(3 1.37535e-16 0)
(3 -6.54175e-16 0)
(3 -3.79082e-16 0)
(3 -8.67547e-17 0)
(3 -3.86045e-16 0)
(3 -3.70303e-16 0)
(3 -1.72801e-18 0)
(3 2.55542e-16 0)
(3 5.25847e-16 0)
(3 5.93877e-16 0)
(3 6.47376e-16 0)
(3 2.70069e-16 0)
(3 2.18652e-16 0)
(3 2.50603e-16 0)
(3 1.38437e-16 0)
(3 3.66561e-17 0)
(3 -7.84801e-16 0)
(3 -9.17008e-16 0)
(3 -7.11206e-16 0)
(3 -4.31214e-16 0)
(3 -2.87091e-16 0)
(3 -2.03024e-16 0)
(3 -9.37705e-17 0)
(3 6.17948e-17 0)
(3 9.28989e-16 0)
(3 1.78856e-15 0)
(3 2.12093e-15 0)
(3 1.27219e-15 0)
(3 4.38066e-16 0)
(3 7.12409e-16 0)
(3 7.5607e-16 0)
(3 5.9588e-16 0)
(3 6.62199e-16 0)
(3 8.49667e-16 0)
(3 1.27052e-15 0)
(3 1.52251e-15 0)
(3 8.66851e-16 0)
(3 -5.04085e-16 0)
(3 -8.66419e-16 0)
(3 -4.67125e-16 0)
(3 -4.24301e-17 0)
(3 1.22576e-16 0)
(3 2.43208e-16 0)
(3 6.9776e-16 0)
(3 1.56142e-15 0)
(3 2.18083e-15 0)
(3 1.44392e-15 0)
(3 6.17929e-16 0)
(3 -2.56302e-17 0)
(3 -2.63921e-16 0)
(3 -2.37123e-16 0)
(3 4.59343e-17 0)
(3 2.76983e-16 0)
(3 7.0789e-17 0)
(3 2.35117e-16 0)
(3 -5.48086e-17 0)
(3 4.21209e-16 0)
(3 8.6527e-16 0)
(3 1.14007e-15 0)
(3 9.94211e-16 0)
(3 1.14254e-15 0)
(3 6.5254e-16 0)
(3 1.8393e-16 0)
(3 -2.35524e-16 0)
(3 -3.34598e-17 0)
(3 2.8509e-16 0)
(3 3.20371e-16 0)
(3 1.86743e-16 0)
(3 -1.69752e-16 0)
(3 -1.16226e-15 0)
(3 -8.8213e-16 0)
(3 -4.90035e-17 0)
(3 6.68243e-16 0)
(3 8.28548e-16 0)
(3 5.37049e-16 0)
(3 -1.57971e-16 0)
(3 -1.38369e-16 0)
(3 -5.52957e-17 0)
(3 -3.50327e-16 0)
(3 -4.93301e-16 0)
(3 -6.08687e-16 0)
(3 -9.7211e-16 0)
(3 -1.19348e-15 0)
(3 -4.59672e-16 0)
(3 3.80004e-17 0)
(3 -4.17892e-16 0)
(3 -7.35476e-16 0)
(3 -8.63747e-16 0)
(3 -2.41909e-16 0)
(3 2.03577e-16 0)
(3 1.57496e-16 0)
(3 8.83954e-16 0)
(3 1.47496e-15 0)
(3 2.37551e-15 0)
(3 2.76601e-15 0)
(3 2.85633e-15 0)
(3 2.52058e-15 0)
(3 1.83947e-15 0)
(3 1.39391e-15 0)
(3 1.10266e-17 0)
(3 3.07066e-16 0)
(3 3.42228e-16 0)
(3 -3.80919e-17 0)
(3 -5.59232e-16 0)
(3 -1.74924e-16 0)
(3 5.88105e-16 0)
(3 1.2423e-15 0)
(3 1.74526e-15 0)
(3 1.76199e-15 0)
(3 1.67693e-15 0)
(3 1.17812e-15 0)
(3 8.30426e-16 0)
(3 1.24325e-15 0)
(3 5.03697e-16 0)
(3 1.43465e-16 0)
(3 -7.43891e-16 0)
(3 -1.15651e-15 0)
(3 -7.31252e-16 0)
(3 -4.56539e-16 0)
(3 -5.44327e-16 0)
(3 -8.88572e-16 0)
(3 -1.38103e-15 0)
(3 -1.04772e-15 0)
(3 -2.48254e-16 0)
(3 3.06514e-16 0)
(3 2.84285e-16 0)
(3 5.72823e-16 0)
(3 9.54441e-16 0)
(3 3.46713e-16 0)
(3 3.46554e-16 0)
(3 1.65926e-16 0)
(3 -3.19924e-16 0)
(3 -7.21903e-16 0)
(3 -1.16895e-15 0)
(3 -1.47321e-15 0)
(3 -1.97107e-15 0)
(3 -1.76149e-15 0)
(3 -1.32918e-15 0)
(3 -6.17532e-16 0)
(3 -5.43939e-17 0)
(3 3.57101e-16 0)
(3 9.31643e-16 0)
(3 2.47352e-15 0)
(3 4.1159e-15 0)
(3 4.04296e-15 0)
(3 3.41386e-15 0)
(3 2.50161e-15 0)
(3 -5.38653e-17 0)
(3 1.27247e-16 0)
(3 1.15886e-16 0)
(3 -1.26632e-16 0)
(3 -1.59681e-16 0)
(3 -3.77295e-16 0)
(3 -4.48163e-16 0)
(3 -7.9518e-17 0)
(3 4.7629e-16 0)
(3 3.95879e-16 0)
(3 3.82416e-16 0)
(3 1.2815e-15 0)
(3 1.53463e-15 0)
(3 1.6009e-15 0)
(3 1.52577e-15 0)
(3 1.14464e-15 0)
(3 7.26901e-16 0)
(3 4.58868e-16 0)
(3 5.73399e-16 0)
(3 -4.33262e-16 0)
(3 -1.33533e-15 0)
(3 -2.38263e-15 0)
(3 -2.74048e-15 0)
(3 -2.04994e-15 0)
(3 -4.08703e-16 0)
(3 6.7954e-16 0)
(3 1.63431e-15 0)
(3 9.68376e-16 0)
(3 -8.32813e-16 0)
(3 -2.06215e-15 0)
(3 -1.81111e-15 0)
(3 -8.81931e-16 0)
(3 -1.63272e-15 0)
(3 -1.97238e-15 0)
(3 -2.02358e-15 0)
(3 -2.70004e-15 0)
(3 -2.64656e-15 0)
(3 -1.90247e-15 0)
(3 -1.18674e-15 0)
(3 -6.53806e-16 0)
(3 8.94593e-16 0)
(3 6.29378e-16 0)
(3 8.85906e-16 0)
(3 1.63308e-15 0)
(3 1.80021e-15 0)
(3 1.99852e-15 0)
(3 2.40369e-15 0)
(3 2.65806e-15 0)
(3 -2.86382e-18 0)
(3 -1.85764e-16 0)
(3 -1.90127e-16 0)
(3 -2.45031e-16 0)
(3 -2.36743e-16 0)
(3 -4.42345e-16 0)
(3 -1.17746e-15 0)
(3 -1.42434e-15 0)
(3 -8.28746e-16 0)
(3 -6.97876e-16 0)
(3 -7.70909e-16 0)
(3 6.81116e-16 0)
(3 1.70543e-15 0)
(3 1.35145e-15 0)
(3 1.50231e-15 0)
(3 2.23907e-15 0)
(3 1.52397e-15 0)
(3 7.27262e-16 0)
(3 1.77725e-17 0)
(3 -2.93064e-16 0)
(3 -4.40807e-16 0)
(3 -1.28136e-15 0)
(3 -8.01556e-16 0)
(3 -3.41798e-16 0)
(3 1.55375e-16 0)
(3 1.68007e-15 0)
(3 2.17823e-15 0)
(3 2.07383e-15 0)
(3 1.358e-15 0)
(3 1.70226e-16 0)
(3 -5.56719e-16 0)
(3 -2.22696e-15 0)
(3 -3.05558e-15 0)
(3 -3.18903e-15 0)
(3 -2.75594e-15 0)
(3 -3.05655e-15 0)
(3 -2.63135e-15 0)
(3 -1.19728e-15 0)
(3 -9.32862e-16 0)
(3 -2.78209e-16 0)
(3 1.28955e-16 0)
(3 -2.2263e-17 0)
(3 2.79648e-16 0)
(3 5.9451e-16 0)
(3 1.66069e-15 0)
(3 1.62992e-15 0)
(3 1.95244e-15 0)
(3 2.03517e-15 0)
(3 3.51185e-17 0)
(3 -3.48555e-16 0)
(3 -2.14171e-16 0)
(3 -4.21958e-17 0)
(3 -1.23762e-16 0)
(3 -4.46259e-16 0)
(3 -1.28561e-15 0)
(3 -1.27774e-15 0)
(3 -1.27515e-15 0)
(3 -1.37252e-15 0)
(3 -2.1599e-15 0)
(3 -1.06569e-15 0)
(3 -3.65089e-16 0)
(3 4.73468e-16 0)
(3 9.07646e-16 0)
(3 6.78886e-16 0)
(3 2.944e-16 0)
(3 9.24952e-17 0)
(3 5.4212e-17 0)
(3 -1.64719e-16 0)
(3 -1.07791e-16 0)
(3 9.58119e-16 0)
(3 1.37122e-15 0)
(3 9.94711e-16 0)
(3 7.32332e-16 0)
(3 9.05325e-16 0)
(3 1.33204e-15 0)
(3 1.75378e-15 0)
(3 1.78395e-15 0)
(3 1.60785e-15 0)
(3 -3.54665e-16 0)
(3 -2.62342e-15 0)
(3 -2.65083e-15 0)
(3 -2.7598e-15 0)
(3 -2.48099e-15 0)
(3 -2.10645e-15 0)
(3 -1.73377e-15 0)
(3 -6.42291e-16 0)
(3 8.09218e-17 0)
(3 -1.82321e-16 0)
(3 -6.46175e-16 0)
(3 -9.2528e-17 0)
(3 2.4017e-16 0)
(3 -6.68256e-16 0)
(3 -7.54691e-18 0)
(3 5.1698e-16 0)
(3 1.10675e-15 0)
(3 2.53403e-15 0)
(3 8.62894e-17 0)
(3 2.14797e-16 0)
(3 2.51045e-16 0)
(3 2.00461e-16 0)
(3 -2.41543e-17 0)
(3 -2.17317e-16 0)
(3 -1.23654e-16 0)
(3 -6.14076e-16 0)
(3 -8.99624e-16 0)
(3 -9.83099e-16 0)
(3 -1.08125e-15 0)
(3 -1.33272e-15 0)
(3 -1.5052e-15 0)
(3 -1.42727e-15 0)
(3 -1.74537e-15 0)
(3 -1.30157e-15 0)
(3 -1.12689e-15 0)
(3 -4.03008e-16 0)
(3 -9.17405e-17 0)
(3 5.67598e-17 0)
(3 1.31276e-16 0)
(3 1.89116e-15 0)
(3 2.21415e-15 0)
(3 1.45485e-15 0)
(3 5.80386e-16 0)
(3 2.62544e-16 0)
(3 5.79081e-16 0)
(3 3.21111e-16 0)
(3 -3.93993e-16 0)
(3 -6.31001e-16 0)
(3 -1.15535e-15 0)
(3 -1.42771e-15 0)
(3 -1.36244e-15 0)
(3 -5.64903e-16 0)
(3 -2.57894e-16 0)
(3 3.57508e-16 0)
(3 3.73509e-16 0)
(3 2.95485e-16 0)
(3 -1.67586e-17 0)
(3 -8.7435e-16 0)
(3 -6.9345e-16 0)
(3 -9.46857e-17 0)
(3 2.45301e-18 0)
(3 -5.79081e-16 0)
(3 -1.21583e-15 0)
(3 -4.09335e-16 0)
(3 6.81992e-16 0)
(3 -1.06092e-16 0)
(3 -2.58659e-18 0)
(3 -7.30472e-17 0)
(3 -6.30411e-17 0)
(3 -1.82778e-16 0)
(3 -1.83208e-16 0)
(3 -2.08234e-16 0)
(3 -1.28651e-16 0)
(3 -3.81064e-16 0)
(3 -1.10946e-15 0)
(3 -8.36663e-16 0)
(3 -3.22999e-16 0)
(3 -4.9424e-16 0)
(3 -1.13805e-15 0)
(3 -1.92455e-15 0)
(3 -1.87502e-15 0)
(3 -1.63737e-15 0)
(3 -7.48774e-16 0)
(3 7.62362e-17 0)
(3 4.40313e-16 0)
(3 9.19233e-16 0)
(3 1.40951e-15 0)
(3 1.34318e-15 0)
(3 9.71194e-16 0)
(3 4.1647e-16 0)
(3 3.64194e-17 0)
(3 2.427e-16 0)
(3 3.48773e-16 0)
(3 2.24e-17 0)
(3 -2.99325e-16 0)
(3 -8.03086e-16 0)
(3 -8.01706e-16 0)
(3 -7.63536e-16 0)
(3 -8.32533e-16 0)
(3 -1.20992e-16 0)
(3 5.80667e-16 0)
(3 8.01659e-16 0)
(3 9.09041e-16 0)
(3 -3.03436e-16 0)
(3 -7.01412e-16 0)
(3 -8.41855e-16 0)
(3 -5.14555e-16 0)
(3 -1.03854e-16 0)
(3 3.2001e-16 0)
(3 4.46302e-16 0)
(3 7.19751e-16 0)
(3 4.29197e-16 0)
(3 4.97047e-17 0)
(3 -6.00951e-16 0)
(3 -3.83379e-17 0)
(3 -3.39317e-16 0)
(3 -5.16276e-16 0)
(3 -1.96844e-16 0)
(3 1.6014e-16 0)
(3 9.1345e-17 0)
(3 -1.57746e-16 0)
(3 1.93048e-16 0)
(3 -1.01999e-15 0)
(3 -9.85916e-16 0)
(3 -9.32814e-16 0)
(3 -8.71659e-16 0)
(3 -1.11171e-15 0)
(3 -9.63184e-16 0)
(3 -3.4009e-16 0)
(3 2.10747e-16 0)
(3 9.80019e-16 0)
(3 9.40681e-16 0)
(3 1.34716e-15 0)
(3 1.75113e-15 0)
(3 1.68008e-15 0)
(3 -1.11286e-16 0)
(3 -9.20825e-16 0)
(3 -8.25917e-16 0)
(3 -7.93357e-16 0)
(3 -3.83249e-16 0)
(3 -5.01216e-16 0)
(3 -4.28176e-16 0)
(3 -2.15826e-16 0)
(3 -2.18605e-16 0)
(3 3.55307e-16 0)
(3 9.56228e-16 0)
(3 1.32353e-15 0)
(3 1.44728e-15 0)
(3 8.61447e-16 0)
(3 -1.2941e-16 0)
(3 -9.53993e-16 0)
(3 -1.13476e-15 0)
(3 -6.63772e-16 0)
(3 1.60632e-16 0)
(3 3.25523e-16 0)
(3 1.43431e-16 0)
(3 3.4971e-16 0)
(3 6.8604e-16 0)
(3 1.92816e-15 0)
(3 2.03481e-15 0)
(3 8.5818e-16 0)
(3 7.12096e-16 0)
(3 1.56299e-17 0)
(3 1.05361e-16 0)
(3 1.20231e-16 0)
(3 -6.35323e-19 0)
(3 -3.102e-16 0)
(3 -4.01595e-16 0)
(3 1.25702e-16 0)
(3 5.89965e-16 0)
(3 5.76635e-16 0)
(3 -2.70181e-16 0)
(3 -3.6839e-16 0)
(3 -6.98912e-16 0)
(3 -3.11023e-16 0)
(3 2.99773e-16 0)
(3 3.64106e-16 0)
(3 5.3175e-16 0)
(3 1.01822e-15 0)
(3 8.1268e-16 0)
(3 8.62082e-16 0)
(3 1.0702e-15 0)
(3 1.24611e-15 0)
(3 8.08409e-16 0)
(3 4.72725e-18 0)
(3 -2.51934e-16 0)
(3 -9.78105e-16 0)
(3 -1.29422e-15 0)
(3 -1.86304e-15 0)
(3 -1.56332e-15 0)
(3 -5.7025e-16 0)
(3 2.86636e-16 0)
(3 1.24985e-15 0)
(3 1.69477e-15 0)
(3 2.68823e-15 0)
(3 3.32718e-15 0)
(3 2.56126e-15 0)
(3 1.37431e-15 0)
(3 8.42277e-16 0)
(3 1.05085e-15 0)
(3 6.5826e-16 0)
(3 9.61825e-16 0)
(3 7.9902e-16 0)
(3 6.16653e-16 0)
(3 7.89272e-16 0)
(3 4.3082e-16 0)
(3 -6.62991e-16 0)
(3 -8.78739e-16 0)
(3 -6.01045e-16 0)
(3 -2.66746e-16 0)
(3 -4.60109e-17 0)
(3 1.99014e-16 0)
(3 2.74978e-16 0)
(3 2.92762e-16 0)
(3 -8.50864e-17 0)
(3 -4.59635e-16 0)
(3 -3.42484e-16 0)
(3 8.54707e-16 0)
(3 1.4327e-15 0)
(3 1.10409e-15 0)
(3 6.15061e-16 0)
(3 3.78975e-16 0)
(3 7.55165e-16 0)
(3 6.13097e-16 0)
(3 -7.73518e-18 0)
(3 -6.34651e-16 0)
(3 -6.39247e-16 0)
(3 -2.68881e-16 0)
(3 2.42971e-17 0)
(3 3.12851e-16 0)
(3 3.32072e-16 0)
(3 5.20354e-16 0)
(3 5.16642e-16 0)
(3 1.83366e-16 0)
(3 1.37501e-16 0)
(3 -1.88889e-15 0)
(3 -1.9283e-15 0)
(3 -1.62642e-15 0)
(3 -7.38678e-16 0)
(3 1.02505e-16 0)
(3 3.16928e-16 0)
(3 1.96355e-16 0)
(3 7.68622e-16 0)
(3 2.88018e-15 0)
(3 3.44763e-15 0)
(3 3.84646e-15 0)
(3 3.62085e-15 0)
(3 3.87454e-15 0)
(3 3.04762e-15 0)
(3 1.89945e-15 0)
(3 9.55704e-16 0)
(3 -1.12157e-16 0)
(3 -6.10894e-16 0)
(3 -3.27783e-16 0)
(3 -4.52157e-16 0)
(3 -2.55016e-16 0)
(3 -3.73665e-16 0)
(3 -6.62502e-16 0)
(3 2.13467e-16 0)
(3 1.71552e-16 0)
(3 6.55911e-17 0)
(3 -2.97024e-17 0)
(3 4.77338e-17 0)
(3 2.18299e-16 0)
(3 6.4043e-16 0)
(3 1.64236e-15 0)
(3 1.61088e-15 0)
(3 1.59437e-15 0)
(3 1.16064e-15 0)
(3 8.95616e-16 0)
(3 6.38742e-16 0)
(3 2.51093e-16 0)
(3 -2.2458e-17 0)
(3 -1.79453e-15 0)
(3 -2.50247e-15 0)
(3 -2.45114e-15 0)
(3 -1.14309e-15 0)
(3 -8.22808e-16 0)
(3 -8.19518e-16 0)
(3 -5.2938e-16 0)
(3 -1.21042e-16 0)
(3 1.0937e-16 0)
(3 -7.79236e-17 0)
(3 -1.26281e-15 0)
(3 -2.30542e-15 0)
(3 -2.6058e-15 0)
(3 -2.17827e-15 0)
(3 -1.36007e-15 0)
(3 -1.16387e-15 0)
(3 -4.31947e-16 0)
(3 -2.74299e-16 0)
(3 -3.18888e-16 0)
(3 -1.77834e-16 0)
(3 2.45876e-15 0)
(3 2.95505e-15 0)
(3 2.5957e-15 0)
(3 2.61361e-15 0)
(3 1.30361e-15 0)
(3 4.00373e-16 0)
(3 -4.36091e-16 0)
(3 -1.49293e-15 0)
(3 -1.36402e-15 0)
(3 -2.78309e-16 0)
(3 -8.48201e-16 0)
(3 -6.12305e-16 0)
(3 -8.30145e-16 0)
(3 2.22969e-16 0)
(3 2.3814e-16 0)
(3 -4.26509e-17 0)
(3 -2.14058e-16 0)
(3 1.84361e-16 0)
(3 2.22175e-16 0)
(3 1.03774e-15 0)
(3 1.15703e-15 0)
(3 4.98461e-16 0)
(3 1.61591e-16 0)
(3 7.19013e-16 0)
(3 8.76653e-16 0)
(3 1.36033e-16 0)
(3 -6.16905e-16 0)
(3 -3.68444e-16 0)
(3 -6.35759e-16 0)
(3 -5.04904e-16 0)
(3 -1.7024e-16 0)
(3 -8.94881e-17 0)
(3 7.14207e-17 0)
(3 2.95028e-16 0)
(3 1.16182e-16 0)
(3 -8.95793e-17 0)
(3 4.424e-17 0)
(3 4.85698e-17 0)
(3 9.66715e-17 0)
(3 -1.4706e-15 0)
(3 -2.23081e-15 0)
(3 -2.42949e-15 0)
(3 -2.34783e-15 0)
(3 -2.09611e-15 0)
(3 -6.70251e-16 0)
(3 -2.00239e-16 0)
(3 -5.69483e-16 0)
(3 -8.34799e-16 0)
(3 -7.4615e-16 0)
(3 -1.9628e-16 0)
(3 5.63105e-17 0)
(3 3.57575e-16 0)
(3 3.01149e-16 0)
(3 -8.56859e-16 0)
(3 -1.05813e-15 0)
(3 -5.40602e-16 0)
(3 1.81936e-16 0)
(3 7.77154e-16 0)
(3 6.29248e-16 0)
(3 -4.93652e-16 0)
(3 -3.71775e-16 0)
(3 -2.16518e-16 0)
(3 -1.88612e-16 0)
(3 -8.86243e-17 0)
(3 3.38315e-16 0)
(3 5.03548e-16 0)
(3 1.52842e-16 0)
(3 5.03071e-16 0)
(3 -5.50186e-16 0)
(3 -7.69148e-16 0)
(3 -8.24605e-16 0)