0.602234 	0.00104267 	-1.60411e-19 	2.92761 	0.0251186 	0
0.606702 	0.003126 	2.77973e-18 	2.85422 	0.00891267 	0
0.611169 	0.00520933 	4.48379e-18 	2.73236 	0.164669 	0
0.615637 	0.00729267 	6.92502e-18 	2.64141 	0.235222 	0
0.620105 	0.009376 	8.56149e-18 	2.55951 	0.299618 	0
0.624572 	0.0114593 	6.79924e-18 	2.41943 	0.444645 	0
0.62904 	0.0135427 	2.9145e-18 	2.35184 	0.518288 	0
0.633508 	0.015626 	4.99439e-19 	2.24224 	0.618171 	0
0.637976 	0.0177093 	-3.60909e-18 	2.1569 	0.706182 	0
0.642443 	0.0197927 	-8.22254e-18 	2.0779 	0.784854 	0
0.646911 	0.021876 	-6.8412e-18 	2.02068 	0.850532 	0
0.651379 	0.0239593 	-7.34594e-18 	1.9678 	0.916083 	0
0.655846 	0.0260427 	-9.53772e-18 	1.97993 	0.966991 	0
0.660314 	0.028126 	-1.16919e-17 	2.03039 	1.00239 	0
0.664782 	0.0302093 	-7.15146e-18 	2.07348 	1.02201 	0
0.66925 	0.0322927 	-2.55512e-18 	2.09479 	1.03491 	0
0.673717 	0.034376 	-3.21004e-18 	2.11585 	1.01666 	0
0.678185 	0.0364593 	-2.22969e-18 	2.12605 	1.00916 	0
0.682653 	0.0385427 	4.75655e-19 	2.12416 	1.00596 	0
0.687121 	0.040626 	3.22216e-18 	2.11655 	0.997495 	0
0.691588 	0.0427093 	5.30358e-18 	2.11021 	0.987269 	0
0.696056 	0.0447927 	8.24045e-19 	2.10791 	0.982078 	0
0.700524 	0.046876 	-6.47255e-18 	2.10699 	0.980249 	0
0.704991 	0.0489593 	-4.98202e-18 	2.10466 	0.979509 	0
0.709459 	0.0510427 	-2.28642e-18 	2.10105 	0.977783 	0
0.713927 	0.053126 	-3.21197e-18 	2.09833 	0.975799 	0
0.718395 	0.0552093 	-5.11077e-18 	2.09771 	0.974587 	0
0.722862 	0.0572927 	-7.16465e-18 	2.09574 	0.972922 	0
0.72733 	0.059376 	-8.98653e-18 	2.09323 	0.971901 	0
0.731798 	0.0614593 	-5.56333e-18 	2.09062 	0.971259 	0
0.736265 	0.0635427 	-2.49783e-18 	2.08773 	0.970922 	0
0.740733 	0.065626 	-7.65423e-18 	2.08448 	0.971488 	0
0.745201 	0.0677093 	-1.22958e-17 	2.08211 	0.973097 	0
0.749669 	0.0697927 	-1.18243e-17 	2.08148 	0.973501 	0
0.754136 	0.071876 	-9.95061e-18 	2.08241 	0.973703 	0
0.758604 	0.0739593 	-7.07434e-18 	2.08577 	0.973915 	0
0.763072 	0.0760427 	-5.74789e-18 	2.08791 	0.973717 	0
0.767539 	0.078126 	-6.10957e-18 	2.08877 	0.973506 	0
0.772007 	0.0802093 	-4.20222e-18 	2.08986 	0.972937 	0
0.776475 	0.0822927 	-4.22712e-18 	2.09055 	0.972576 	0
0.780943 	0.084376 	-4.18629e-18 	2.08972 	0.972851 	0
0.78541 	0.0864593 	-3.8058e-18 	2.08666 	0.973503 	0
0.789878 	0.0885427 	-6.51749e-18 	2.08489 	0.973839 	0
0.794346 	0.090626 	-6.73873e-18 	2.08472 	0.973931 	0
0.798813 	0.0927093 	-5.71263e-18 	2.08464 	0.974429 	0
0.803281 	0.0947927 	-4.40498e-18 	2.08502 	0.97451 	0
0.807749 	0.096876 	-1.49779e-18 	2.0859 	0.974118 	0
0.812217 	0.0989593 	-1.11171e-18 	2.08651 	0.973574 	0
0.816684 	0.101043 	-4.25273e-19 	2.08692 	0.972825 	0
0.821152 	0.103126 	4.94085e-18 	2.08723 	0.971984 	0
0.82562 	0.105209 	1.208e-17 	2.08732 	0.971424 	0
0.830088 	0.107293 	1.35157e-17 	2.08709 	0.970984 	0
0.834555 	0.109376 	1.10935e-17 	2.08622 	0.970924 	0
0.839023 	0.111459 	4.71589e-18 	2.0851 	0.97117 	0
0.843491 	0.113543 	-1.91739e-18 	2.08424 	0.971519 	0
0.847958 	0.115626 	-1.92688e-18 	2.08343 	0.971968 	0
0.852426 	0.117709 	-3.93739e-18 	2.08258 	0.972594 	0
0.856894 	0.119793 	-8.6945e-18 	2.0821 	0.972706 	0
0.861362 	0.121876 	-1.09984e-17 	2.082 	0.972479 	0
0.865829 	0.123959 	-1.03288e-17 	2.08255 	0.972146 	0
0.870297 	0.126043 	-5.5586e-18 	2.08334 	0.971642 	0
0.874765 	0.128126 	-9.82419e-19 	2.08398 	0.971134 	0
0.879232 	0.130209 	-6.17515e-19 	2.08421 	0.970899 	0
0.8837 	0.132293 	3.24597e-18 	2.08438 	0.970679 	0
0.888168 	0.134376 	1.06399e-17 	2.08445 	0.970478 	0
0.892636 	0.136459 	1.55088e-17 	2.08443 	0.970388 	0
0.897103 	0.138543 	1.77914e-17 	2.08432 	0.970423 	0
0.901571 	0.140626 	1.65558e-17 	2.08398 	0.970548 	0
0.906039 	0.142709 	1.60008e-17 	2.08331 	0.970731 	0
0.910506 	0.144793 	1.4239e-17 	2.08251 	0.970989 	0
0.914974 	0.146876 	1.10006e-17 	2.08193 	0.971555 	0
0.919442 	0.148959 	1.32859e-17 	2.08166 	0.97204 	0
0.92391 	0.151043 	1.2039e-17 	2.08159 	0.972306 	0
0.928377 	0.153126 	9.62179e-18 	2.08176 	0.972492 	0
0.932845 	0.155209 	1.1559e-17 	2.08191 	0.972416 	0
0.937313 	0.157293 	1.44111e-17 	2.08203 	0.972109 	0
0.94178 	0.159376 	1.94575e-17 	2.08224 	0.971616 	0
0.946248 	0.161459 	2.90334e-17 	2.08246 	0.971099 	0
0.950716 	0.163543 	3.37338e-17 	2.08256 	0.970709 	0
0.955184 	0.165626 	3.3796e-17 	2.08259 	0.970397 	0
0.959651 	0.167709 	3.23098e-17 	2.08268 	0.970161 	0
0.964119 	0.169793 	2.90367e-17 	2.08278 	0.970042 	0
0.968587 	0.171876 	2.64693e-17 	2.08287 	0.96998 	0
0.973055 	0.173959 	2.64817e-17 	2.08283 	0.969944 	0
0.977522 	0.176043 	3.12918e-17 	2.08244 	0.969957 	0
0.98199 	0.178126 	3.3304e-17 	2.08153 	0.970076 	0
0.986458 	0.180209 	3.94491e-17 	2.08045 	0.970484 	0
0.990925 	0.182293 	4.52015e-17 	2.07988 	0.970865 	0
0.995393 	0.184376 	4.59206e-17 	2.07972 	0.971045 	0
0.999861 	0.186459 	4.33964e-17 	2.07969 	0.971228 	0
1.00433 	0.188543 	3.8195e-17 	2.07983 	0.971429 	0
1.0088 	0.190626 	3.83366e-17 	2.08011 	0.971502 	0
1.01326 	0.192709 	3.90722e-17 	2.08059 	0.971323 	0
1.01773 	0.194793 	3.55011e-17 	2.08106 	0.970764 	0
1.0222 	0.196876 	2.96799e-17 	2.08124 	0.970222 	0
1.02667 	0.198959 	2.57707e-17 	2.08111 	0.969821 	0
