0.602234 	0.998957 	-5.55076e-18 	2.92761 	-0.0251177 	0
0.606702 	0.996874 	-1.21427e-17 	2.85422 	-0.00891357 	0
0.611169 	0.994791 	-1.69999e-17 	2.73236 	-0.164667 	0
0.615637 	0.992707 	-2.01224e-17 	2.64141 	-0.235232 	0
0.620105 	0.990624 	-2.46327e-17 	2.55952 	-0.299609 	0
0.624572 	0.988541 	-2.70613e-17 	2.41943 	-0.444645 	0
0.62904 	0.986457 	-2.77552e-17 	2.35183 	-0.518293 	0
0.633508 	0.984374 	-2.70613e-17 	2.24225 	-0.618168 	0
0.637976 	0.982291 	-2.42858e-17 	2.15689 	-0.706183 	0
0.642443 	0.980207 	-2.56735e-17 	2.07789 	-0.784853 	0
0.646911 	0.978124 	-2.9143e-17 	2.02068 	-0.850535 	0
0.651379 	0.976041 	-3.22655e-17 	1.9678 	-0.916085 	0
0.655846 	0.973957 	-3.19185e-17 	1.97992 	-0.966992 	0
0.660314 	0.971874 	-3.05308e-17 	2.0304 	-1.00238 	0
0.664782 	0.969791 	-3.05308e-17 	2.07349 	-1.02202 	0
0.66925 	0.967707 	-3.29594e-17 	2.09478 	-1.03493 	0
0.673717 	0.965624 	-3.43471e-17 	2.11585 	-1.01665 	0
0.678185 	0.963541 	-3.46941e-17 	2.12606 	-1.00915 	0
0.682653 	0.961457 	-3.5041e-17 	2.12416 	-1.00597 	0
0.687121 	0.959374 	-3.88574e-17 	2.11655 	-0.997496 	0
0.691588 	0.957291 	-3.81635e-17 	2.11021 	-0.98727 	0
0.696056 	0.955207 	-3.36532e-17 	2.10791 	-0.982078 	0
0.700524 	0.953124 	-3.43471e-17 	2.10699 	-0.980248 	0
0.704991 	0.951041 	-3.36532e-17 	2.10466 	-0.979507 	0
0.709459 	0.948957 	-3.22655e-17 	2.10105 	-0.977784 	0
0.713927 	0.946874 	-3.29593e-17 	2.09833 	-0.975804 	0
0.718395 	0.944791 	-3.33063e-17 	2.09771 	-0.97459 	0
0.722862 	0.942707 	-3.29593e-17 	2.09574 	-0.972922 	0
0.72733 	0.940624 	-3.15716e-17 	2.09323 	-0.971901 	0
0.731798 	0.938541 	-2.67143e-17 	2.09062 	-0.971258 	0
0.736265 	0.936457 	-2.22041e-17 	2.08773 	-0.97092 	0
0.740733 	0.934374 	-2.11632e-17 	2.08448 	-0.971486 	0
0.745201 	0.932291 	-2.15102e-17 	2.08211 	-0.973097 	0
0.749669 	0.930207 	-2.11632e-17 	2.08147 	-0.9735 	0
0.754136 	0.928124 	-2.01224e-17 	2.08241 	-0.973703 	0
0.758604 	0.926041 	-1.69999e-17 	2.08578 	-0.973914 	0
0.763072 	0.923957 	-1.56121e-17 	2.08791 	-0.973715 	0
0.767539 	0.921874 	-1.80407e-17 	2.08877 	-0.973504 	0
0.772007 	0.919791 	-2.01224e-17 	2.08986 	-0.972935 	0
0.776475 	0.917707 	-1.94285e-17 	2.09055 	-0.972575 	0
0.780943 	0.915624 	-1.83876e-17 	2.08972 	-0.972852 	0
0.78541 	0.913541 	-1.6306e-17 	2.08666 	-0.973504 	0
0.789878 	0.911457 	-1.21426e-17 	2.08489 	-0.973841 	0
0.794346 	0.909374 	-1.31835e-17 	2.08472 	-0.973933 	0
0.798813 	0.907291 	-1.6306e-17 	2.08464 	-0.97443 	0
0.803281 	0.905207 	-1.73468e-17 	2.08502 	-0.974509 	0
0.807749 	0.903124 	-1.90815e-17 	2.0859 	-0.974118 	0
0.812217 	0.901041 	-2.2551e-17 	2.08651 	-0.973575 	0
0.816684 	0.898957 	-2.53265e-17 	2.08692 	-0.972827 	0
0.821152 	0.896874 	-2.77551e-17 	2.08723 	-0.971986 	0
0.82562 	0.894791 	-2.74082e-17 	2.08732 	-0.971426 	0
0.830088 	0.892707 	-2.53265e-17 	2.08709 	-0.970985 	0
0.834555 	0.890624 	-2.74082e-17 	2.08623 	-0.970924 	0
0.839023 	0.888541 	-2.8796e-17 	2.0851 	-0.97117 	0
0.843491 	0.886457 	-2.8796e-17 	2.08424 	-0.971518 	0
0.847958 	0.884374 	-2.74082e-17 	2.08343 	-0.971967 	0
0.852426 	0.882291 	-2.67143e-17 	2.08258 	-0.972593 	0
0.856894 	0.880207 	-2.63673e-17 	2.0821 	-0.972705 	0
0.861362 	0.878124 	-2.2204e-17 	2.082 	-0.972479 	0
0.865829 	0.876041 	-1.83876e-17 	2.08255 	-0.972145 	0
0.870297 	0.873957 	-1.87345e-17 	2.08334 	-0.971642 	0
0.874765 	0.871874 	-1.97754e-17 	2.08398 	-0.971134 	0
0.879232 	0.869791 	-1.80406e-17 	2.08421 	-0.970899 	0
0.8837 	0.867707 	-1.45712e-17 	2.08438 	-0.970679 	0
0.888168 	0.865624 	-1.24895e-17 	2.08445 	-0.970477 	0
0.892636 	0.863541 	-1.45712e-17 	2.08443 	-0.970388 	0
0.897103 	0.861457 	-1.5612e-17 	2.08432 	-0.970423 	0
0.901571 	0.859374 	-1.28365e-17 	2.08399 	-0.970548 	0
0.906039 	0.857291 	-1.14487e-17 	2.08331 	-0.970731 	0
0.910506 	0.855207 	-1.00609e-17 	2.08251 	-0.970988 	0
0.914974 	0.853124 	-8.32617e-18 	2.08193 	-0.971555 	0
0.919442 	0.851041 	-7.97922e-18 	2.08166 	-0.97204 	0
0.92391 	0.848957 	-9.02005e-18 	2.08159 	-0.972306 	0
0.928377 	0.846874 	-1.5612e-17 	2.08176 	-0.972493 	0
0.932845 	0.844791 	-1.90814e-17 	2.08191 	-0.972416 	0
0.937313 	0.842707 	-1.83876e-17 	2.08203 	-0.972109 	0
0.94178 	0.840624 	-1.90814e-17 	2.08224 	-0.971616 	0
0.946248 	0.838541 	-1.87345e-17 	2.08246 	-0.971099 	0
0.950716 	0.836457 	-2.08162e-17 	2.08256 	-0.97071 	0
0.955184 	0.834374 	-2.1857e-17 	2.0826 	-0.970398 	0
0.959651 	0.832291 	-2.1857e-17 	2.08268 	-0.970161 	0
0.964119 	0.830207 	-2.32448e-17 	2.08278 	-0.970042 	0
0.968587 	0.828124 	-2.35917e-17 	2.08287 	-0.96998 	0
0.973055 	0.826041 	-2.63673e-17 	2.08283 	-0.969944 	0
0.977522 	0.823957 	-2.7755e-17 	2.08244 	-0.969956 	0
0.98199 	0.821874 	-2.53264e-17 	2.08153 	-0.970077 	0
0.986458 	0.819791 	-2.08161e-17 	2.08045 	-0.970484 	0
0.990925 	0.817707 	-1.76936e-17 	2.07988 	-0.970865 	0
0.995393 	0.815624 	-1.38772e-17 	2.07972 	-0.971045 	0
0.999861 	0.813541 	-1.31833e-17 	2.07969 	-0.971228 	0
1.00433 	0.811457 	-1.80406e-17 	2.07983 	-0.971428 	0
1.0088 	0.809374 	-1.76936e-17 	2.08011 	-0.971501 	0
1.01326 	0.807291 	-1.83875e-17 	2.08059 	-0.971322 	0
1.01773 	0.805207 	-2.01222e-17 	2.08106 	-0.970763 	0
1.0222 	0.803124 	-1.83875e-17 	2.08124 	-0.970221 	0
1.02667 	0.801041 	-1.80405e-17 	2.08111 	-0.96982 	0
