/*--------------------------------*- C++ -*----------------------------------*\
  =========                 |
  \\      /  F ield         | OpenFOAM: The Open Source CFD Toolbox
   \\    /   O peration     | Website:  https://openfoam.org
    \\  /    A nd           | Version:  7
     \\/     M anipulation  |
\*---------------------------------------------------------------------------*/
FoamFile
{
    version     2.0;
    format      ascii;
    class       volVectorField;
    location    "3.3";
    object      U;
}
// * * * * * * * * * * * * * * * * * * * * * * * * * * * * * * * * * * * * * //

dimensions      [0 1 -1 0 0 0 0];

internalField   nonuniform List<vector> 
73728
(
(3 3.89632e-17 0)
(3 -8.45085e-17 0)
(3 -4.56327e-16 0)
(3 -6.30077e-16 0)
(3 -3.88507e-16 0)
(3 -5.95021e-16 0)
(3 -9.54042e-16 0)
(3 -8.251e-16 0)
(3 9.66711e-17 0)
(3 3.87681e-16 0)
(3 2.31122e-16 0)
(3 1.09475e-16 0)
(3 5.9756e-16 0)
(3 1.0535e-15 0)
(3 7.55912e-17 0)
(3 -4.52879e-16 0)
(3 -4.36213e-16 0)
(3 5.80042e-16 0)
(3 1.0423e-15 0)
(3 1.26368e-15 0)
(3 1.28325e-15 0)
(3 1.24606e-15 0)
(3 2.74342e-16 0)
(3 -3.5993e-16 0)
(3 -8.82092e-17 0)
(3 3.24231e-16 0)
(3 -1.18215e-16 0)
(3 -4.57914e-16 0)
(3 -4.24902e-16 0)
(3 3.26692e-16 0)
(3 1.15001e-15 0)
(3 -5.47368e-17 0)
(3 -1.22536e-15 0)
(3 -1.70035e-15 0)
(3 -1.68366e-15 0)
(3 -1.37113e-15 0)
(3 -6.40686e-16 0)
(3 3.87746e-16 0)
(3 5.11003e-16 0)
(3 6.73297e-16 0)
(3 6.56135e-16 0)
(3 9.96343e-17 0)
(3 5.32641e-16 0)
(3 1.68874e-16 0)
(3 -1.38928e-16 0)
(3 -4.56745e-16 0)
(3 -1.40201e-15 0)
(3 -1.33568e-15 0)
(3 -1.0748e-15 0)
(3 -1.3937e-15 0)
(3 -8.62081e-16 0)
(3 5.40001e-17 0)
(3 1.08948e-16 0)
(3 3.32184e-16 0)
(3 4.92564e-16 0)
(3 5.31348e-16 0)
(3 3.36615e-16 0)
(3 5.91283e-16 0)
(3 5.84269e-16 0)
(3 3.71772e-16 0)
(3 2.29781e-16 0)
(3 -2.07102e-16 0)
(3 -1.45689e-16 0)
(3 2.69944e-16 0)
(3 -5.96977e-16 0)
(3 -1.27497e-15 0)
(3 -1.64609e-15 0)
(3 -1.75767e-15 0)
(3 -2.72883e-15 0)
(3 -2.66387e-15 0)
(3 -2.67627e-15 0)
(3 -2.42734e-15 0)
(3 -2.02653e-15 0)
(3 -1.30841e-15 0)
(3 -1.38672e-16 0)
(3 2.90506e-16 0)
(3 3.26868e-16 0)
(3 4.98502e-16 0)
(3 6.61478e-16 0)
(3 3.93484e-16 0)
(3 2.4845e-16 0)
(3 1.69651e-15 0)
(3 2.44756e-15 0)
(3 3.53262e-15 0)
(3 3.51576e-15 0)
(3 3.03231e-15 0)
(3 2.84565e-15 0)
(3 2.8439e-15 0)
(3 2.10166e-15 0)
(3 1.61514e-16 0)
(3 5.85544e-17 0)
(3 1.08043e-16 0)
(3 -1.0476e-17 0)
(3 -1.55401e-16 0)
(3 -5.31091e-16 0)
(3 -7.99675e-16 0)
(3 2.45481e-16 0)
(3 -1.12851e-16 0)
(3 -1.53825e-16 0)
(3 -8.24328e-17 0)
(3 2.87298e-16 0)
(3 9.89802e-17 0)
(3 -1.13179e-15 0)
(3 -1.35982e-15 0)
(3 -3.06149e-16 0)
(3 1.76318e-16 0)
(3 -1.08839e-17 0)
(3 -2.41955e-16 0)
(3 4.95976e-16 0)
(3 6.9161e-16 0)
(3 9.74955e-16 0)
(3 9.02655e-16 0)
(3 9.68039e-16 0)
(3 1.62762e-15 0)
(3 3.09858e-15 0)
(3 3.37587e-15 0)
(3 1.51913e-15 0)
(3 1.21828e-15 0)
(3 -1.17867e-16 0)
(3 -6.7848e-17 0)
(3 5.36742e-16 0)
(3 6.02167e-16 0)
(3 4.99641e-16 0)
(3 6.69034e-16 0)
(3 7.39434e-16 0)
(3 9.76594e-16 0)
(3 1.21685e-15 0)
(3 7.47727e-16 0)
(3 -8.27101e-16 0)
(3 -2.8401e-15 0)
(3 -2.70152e-15 0)
(3 -2.47481e-15 0)
(3 -9.94284e-16 0)
(3 7.1285e-16 0)
(3 1.056e-15 0)
(3 1.61271e-15 0)
(3 1.86988e-15 0)
(3 1.6514e-15 0)
(3 2.51842e-15 0)
(3 1.77264e-15 0)
(3 8.5831e-16 0)
(3 5.86716e-16 0)
(3 -6.91907e-16 0)
(3 -1.14954e-15 0)
(3 -9.42013e-16 0)
(3 -1.40755e-15 0)
(3 -1.16767e-15 0)
(3 -1.15099e-16 0)
(3 2.04972e-16 0)
(3 4.92397e-16 0)
(3 5.27198e-16 0)
(3 2.81122e-16 0)
(3 1.43862e-16 0)
(3 4.12468e-16 0)
(3 1.38375e-15 0)
(3 7.46323e-16 0)
(3 -1.28164e-15 0)
(3 -2.48378e-15 0)
(3 -1.5184e-15 0)
(3 -2.81894e-16 0)
(3 -1.92789e-15 0)
(3 -4.2258e-15 0)
(3 -4.30006e-15 0)
(3 -4.00799e-15 0)
(3 -3.62184e-15 0)
(3 -3.77583e-15 0)
(3 -4.40276e-15 0)
(3 -3.88456e-15 0)
(3 -2.39368e-15 0)
(3 -1.22805e-15 0)
(3 1.03024e-15 0)
(3 2.6143e-15 0)
(3 3.0673e-15 0)
(3 2.86686e-15 0)
(3 3.09133e-15 0)
(3 1.62636e-15 0)
(3 3.88786e-16 0)
(3 1.49793e-15 0)
(3 2.69982e-15 0)
(3 4.41654e-15 0)
(3 3.01749e-15 0)
(3 1.65032e-15 0)
(3 1.48938e-15 0)
(3 5.25111e-16 0)
(3 -3.39789e-16 0)
(3 -3.79223e-16 0)
(3 4.87675e-16 0)
(3 1.53821e-15 0)
(3 1.65819e-15 0)
(3 1.07177e-15 0)
(3 1.33076e-16 0)
(3 -2.30737e-16 0)
(3 -8.31987e-17 0)
(3 1.62782e-16 0)
(3 5.58872e-16 0)
(3 4.84651e-16 0)
(3 7.30323e-16 0)
(3 7.86179e-16 0)
(3 3.74004e-16 0)
(3 -6.57972e-16 0)
(3 -6.1415e-16 0)
(3 -6.466e-16 0)
(3 -6.14271e-16 0)
(3 -3.62783e-16 0)
(3 -2.52958e-16 0)
(3 -5.12927e-16 0)
(3 -7.31992e-16 0)
(3 -1.36707e-16 0)
(3 8.46184e-16 0)
(3 1.87765e-15 0)
(3 2.01626e-15 0)
(3 1.95951e-15 0)
(3 7.61933e-16 0)
(3 5.86476e-16 0)
(3 2.38932e-16 0)
(3 6.71324e-16 0)
(3 1.13635e-15 0)
(3 1.16989e-15 0)
(3 1.8529e-15 0)
(3 2.41147e-15 0)
(3 2.45729e-15 0)
(3 1.94999e-15 0)
(3 1.48686e-15 0)
(3 3.54097e-16 0)
(3 -8.99276e-16 0)
(3 -1.3789e-15 0)
(3 -1.18376e-15 0)
(3 -9.43367e-16 0)
(3 -2.64562e-16 0)
(3 7.83275e-16 0)
(3 1.6912e-15 0)
(3 1.93357e-15 0)
(3 2.7089e-15 0)
(3 4.40767e-15 0)
(3 5.17767e-15 0)
(3 4.77375e-15 0)
(3 1.89775e-15 0)
(3 8.293e-16 0)
(3 3.35795e-16 0)
(3 -3.76921e-16 0)
(3 -1.33022e-15 0)
(3 -1.87359e-15 0)
(3 -1.68473e-15 0)
(3 -8.31789e-16 0)
(3 -8.04689e-16 0)
(3 -6.33859e-16 0)
(3 -3.22715e-16 0)
(3 -5.71688e-16 0)
(3 -7.06344e-16 0)
(3 -1.04124e-15 0)
(3 -7.28211e-16 0)
(3 -4.93408e-16 0)
(3 -1.8729e-15 0)
(3 -2.37989e-15 0)
(3 -2.565e-15 0)
(3 -1.81917e-15 0)
(3 -2.5828e-15 0)
(3 -3.0376e-15 0)
(3 -2.95729e-15 0)
(3 -3.12292e-15 0)
(3 -3.3463e-15 0)
(3 -4.09778e-15 0)
(3 -5.19229e-15 0)
(3 -3.07676e-15 0)
(3 -5.88152e-16 0)
(3 3.67259e-16 0)
(3 1.50045e-15 0)
(3 1.92786e-15 0)
(3 1.757e-15 0)
(3 1.96683e-15 0)
(3 2.59937e-15 0)
(3 2.56859e-15 0)
(3 1.96423e-15 0)
(3 1.85629e-15 0)
(3 2.71053e-15 0)
(3 3.98468e-15 0)
(3 4.03965e-15 0)
(3 3.06162e-15 0)
(3 2.00385e-15 0)
(3 1.59648e-15 0)
(3 1.97188e-15 0)
(3 2.48233e-15 0)
(3 2.4195e-15 0)
(3 2.1354e-15 0)
(3 2.40415e-15 0)
(3 2.3967e-15 0)
(3 2.01042e-15 0)
(3 7.94696e-16 0)
(3 -3.60186e-16 0)
(3 -3.27821e-16 0)
(3 6.09579e-17 0)
(3 1.44847e-16 0)
(3 1.81892e-16 0)
(3 4.3661e-16 0)
(3 8.39931e-16 0)
(3 8.41921e-16 0)
(3 6.42234e-16 0)
(3 6.31792e-16 0)
(3 5.81087e-16 0)
(3 4.78136e-16 0)
(3 1.20374e-18 0)
(3 -2.2575e-16 0)
(3 -6.12885e-16 0)
(3 -7.31595e-16 0)
(3 4.35119e-16 0)
(3 9.69002e-16 0)
(3 7.70797e-16 0)
(3 6.6985e-16 0)
(3 2.86575e-16 0)
(3 5.12313e-16 0)
(3 6.56165e-16 0)
(3 5.19098e-16 0)
(3 1.36672e-15 0)
(3 1.88814e-15 0)
(3 1.76719e-15 0)
(3 1.44011e-15 0)
(3 1.11311e-15 0)
(3 9.91077e-16 0)
(3 1.44997e-16 0)
(3 -7.52098e-16 0)
(3 -6.06867e-16 0)
(3 -1.89841e-16 0)
(3 1.49209e-16 0)
(3 -3.02275e-16 0)
(3 -8.5164e-16 0)
(3 9.38417e-17 0)
(3 1.69349e-15 0)
(3 1.58374e-15 0)
(3 1.58542e-15 0)
(3 1.85772e-15 0)
(3 2.12596e-15 0)
(3 2.1823e-15 0)
(3 -4.89991e-16 0)
(3 -2.2983e-15 0)
(3 -1.48355e-15 0)
(3 -1.78213e-15 0)
(3 -2.37247e-15 0)
(3 -2.35722e-15 0)
(3 -1.85663e-15 0)
(3 -1.26285e-15 0)
(3 -1.1784e-15 0)
(3 -1.01608e-15 0)
(3 -3.03386e-16 0)
(3 3.88446e-16 0)
(3 9.84751e-17 0)
(3 -1.25871e-15 0)
(3 -2.23272e-15 0)
(3 -2.70344e-15 0)
(3 -3.37018e-15 0)
(3 -3.22282e-15 0)
(3 -3.39566e-15 0)
(3 -3.42681e-15 0)
(3 -3.42038e-15 0)
(3 -3.44405e-15 0)
(3 -3.34216e-15 0)
(3 -2.83909e-15 0)
(3 -4.27514e-15 0)
(3 -4.44425e-15 0)
(3 -3.95613e-15 0)
(3 -1.96103e-15 0)
(3 -7.04445e-16 0)
(3 -3.23464e-16 0)
(3 -3.92451e-17 0)
(3 3.13442e-16 0)
(3 4.3707e-16 0)
(3 1.48249e-15 0)
(3 2.72098e-15 0)
(3 3.13822e-15 0)
(3 3.39861e-15 0)
(3 3.43646e-15 0)
(3 4.54459e-15 0)
(3 4.06929e-15 0)
(3 4.00622e-15 0)
(3 4.02283e-15 0)
(3 3.98431e-15 0)
(3 3.27167e-15 0)
(3 1.65973e-15 0)
(3 1.26471e-15 0)
(3 1.01889e-15 0)
(3 1.54904e-15 0)
(3 2.15179e-15 0)
(3 2.39717e-15 0)
(3 1.91482e-15 0)
(3 3.0414e-17 0)
(3 -1.46105e-16 0)
(3 -2.45797e-17 0)
(3 -6.07691e-17 0)
(3 7.72836e-18 0)
(3 2.00973e-16 0)
(3 2.31655e-16 0)
(3 2.23538e-16 0)
(3 4.26429e-16 0)
(3 5.61408e-16 0)
(3 5.50891e-16 0)
(3 2.24718e-16 0)
(3 2.24766e-16 0)
(3 -1.25376e-16 0)
(3 2.529e-16 0)
(3 2.26465e-16 0)
(3 -2.56967e-17 0)
(3 2.27352e-16 0)
(3 8.08992e-16 0)
(3 2.07052e-15 0)
(3 2.29039e-15 0)
(3 2.13366e-15 0)
(3 1.50981e-15 0)
(3 1.41851e-15 0)
(3 1.71494e-15 0)
(3 1.28408e-15 0)
(3 -1.28982e-16 0)
(3 -3.50445e-16 0)
(3 9.87748e-17 0)
(3 3.20783e-16 0)
(3 1.00437e-15 0)
(3 4.38046e-16 0)
(3 3.75272e-17 0)
(3 7.01157e-17 0)
(3 4.27251e-16 0)
(3 4.71447e-16 0)
(3 -7.49993e-16 0)
(3 -1.4253e-15 0)
(3 -1.70452e-16 0)
(3 6.17426e-16 0)
(3 5.29961e-16 0)
(3 7.14747e-16 0)
(3 6.51633e-16 0)
(3 1.04187e-15 0)
(3 1.55256e-15 0)
(3 9.07234e-16 0)
(3 -1.23237e-15 0)
(3 -1.32501e-15 0)
(3 -1.35758e-15 0)
(3 -1.34344e-15 0)
(3 -6.33472e-16 0)
(3 -1.38283e-16 0)
(3 -3.14094e-16 0)
(3 -5.38988e-16 0)
(3 -7.74392e-16 0)
(3 -5.2348e-16 0)
(3 -2.53284e-16 0)
(3 -2.11304e-16 0)
(3 -1.92501e-15 0)
(3 -3.04822e-15 0)
(3 -2.56681e-15 0)
(3 -1.66084e-15 0)
(3 -9.94416e-16 0)
(3 -1.13057e-15 0)
(3 -2.38858e-15 0)
(3 -2.99193e-15 0)
(3 -2.60297e-15 0)
(3 -2.29027e-15 0)
(3 -1.98679e-15 0)
(3 -1.94402e-15 0)
(3 -1.58164e-15 0)
(3 -6.69824e-16 0)
(3 1.3794e-16 0)
(3 2.94046e-16 0)
(3 1.91811e-16 0)
(3 4.45767e-16 0)
(3 1.1617e-15 0)
(3 1.60648e-15 0)
(3 2.6332e-15 0)
(3 2.91111e-15 0)
(3 2.73883e-15 0)
(3 2.72488e-15 0)
(3 3.22255e-15 0)
(3 4.13086e-15 0)
(3 3.00998e-15 0)
(3 2.25036e-15 0)
(3 1.36467e-15 0)
(3 1.35766e-15 0)
(3 6.30228e-17 0)
(3 -1.55177e-15 0)
(3 -1.59842e-15 0)
(3 -1.09615e-15 0)
(3 1.55098e-16 0)
(3 5.51692e-17 0)
(3 -4.64339e-16 0)
(3 -5.85105e-16 0)
(3 -6.59561e-16 0)
(3 7.01565e-17 0)
(3 3.08113e-16 0)
(3 7.16356e-17 0)
(3 5.66357e-18 0)
(3 1.46728e-16 0)
(3 6.49309e-17 0)
(3 -2.24913e-16 0)
(3 -4.77396e-16 0)
(3 -4.45615e-16 0)
(3 -5.96178e-16 0)
(3 -6.32977e-16 0)
(3 -5.50323e-16 0)
(3 -9.1802e-16 0)
(3 -7.86521e-16 0)
(3 -8.94949e-16 0)
(3 -7.6678e-16 0)
(3 -3.16187e-16 0)
(3 6.76693e-16 0)
(3 1.79052e-15 0)
(3 2.15678e-15 0)
(3 2.4721e-15 0)
(3 2.39868e-15 0)
(3 2.02494e-15 0)
(3 1.84508e-15 0)
(3 5.78563e-16 0)
(3 -2.94249e-16 0)
(3 2.24835e-16 0)
(3 3.74608e-16 0)
(3 1.00321e-15 0)
(3 1.2583e-15 0)
(3 3.95381e-16 0)
(3 -1.00749e-15 0)
(3 -1.2856e-15 0)
(3 -1.20876e-15 0)
(3 -1.26834e-15 0)
(3 -1.31599e-15 0)
(3 -9.65484e-16 0)
(3 1.79351e-17 0)
(3 1.65892e-15 0)
(3 2.32856e-15 0)
(3 1.82604e-15 0)
(3 4.19186e-16 0)
(3 3.9732e-16 0)
(3 3.04106e-16 0)
(3 2.90215e-17 0)
(3 -2.21058e-16 0)
(3 -1.45523e-15 0)
(3 -2.13199e-15 0)
(3 -1.87521e-15 0)
(3 8.60887e-16 0)
(3 1.29004e-15 0)
(3 6.43251e-16 0)
(3 8.96981e-17 0)
(3 -2.64584e-16 0)
(3 -2.08295e-15 0)
(3 -2.97242e-15 0)
(3 -3.02309e-15 0)
(3 -3.07746e-15 0)
(3 -3.31116e-15 0)
(3 -3.11959e-15 0)
(3 -1.3019e-15 0)
(3 5.91274e-16 0)
(3 1.35254e-16 0)
(3 -1.15115e-15 0)
(3 -1.69344e-15 0)
(3 -1.49642e-15 0)
(3 -2.0145e-15 0)
(3 -2.8915e-15 0)
(3 -1.24839e-15 0)
(3 6.80319e-16 0)
(3 1.32806e-15 0)
(3 1.902e-15 0)
(3 2.41812e-15 0)
(3 3.29142e-15 0)
(3 3.1368e-15 0)
(3 2.94899e-15 0)
(3 2.40993e-15 0)
(3 1.21451e-15 0)
(3 1.08939e-15 0)
(3 2.04194e-15 0)
(3 2.6258e-15 0)
(3 3.01281e-15 0)
(3 2.90476e-15 0)
(3 2.84975e-15 0)
(3 2.37252e-15 0)
(3 1.37984e-15 0)
(3 5.56684e-16 0)
(3 -9.12072e-16 0)
(3 -8.93794e-16 0)
(3 -1.14574e-15 0)
(3 -8.41506e-16 0)
(3 -6.58586e-16 0)
(3 -1.504e-15 0)
(3 -2.53387e-15 0)
(3 -2.41657e-15 0)
(3 -1.96177e-15 0)
(3 1.36617e-17 0)
(3 -2.80059e-17 0)
(3 -9.05575e-17 0)
(3 6.26381e-17 0)
(3 -2.82157e-17 0)
(3 -1.34637e-16 0)
(3 -1.11871e-16 0)
(3 -3.37562e-16 0)
(3 -3.84788e-16 0)
(3 -3.30865e-17 0)
(3 5.49031e-16 0)
(3 2.71579e-16 0)
(3 -5.9415e-17 0)
(3 -1.29131e-15 0)
(3 -1.13558e-15 0)
(3 -1.3417e-15 0)
(3 -4.51191e-16 0)
(3 -1.32173e-16 0)
(3 -4.15314e-17 0)
(3 1.82537e-16 0)
(3 1.80382e-16 0)
(3 1.63402e-16 0)
(3 8.37744e-16 0)
(3 9.79109e-16 0)
(3 1.1109e-15 0)
(3 8.07159e-16 0)
(3 1.13085e-15 0)
(3 1.05633e-15 0)
(3 1.14266e-15 0)
(3 2.57488e-16 0)
(3 -1.10607e-16 0)
(3 4.71634e-16 0)
(3 5.83809e-16 0)
(3 5.12304e-16 0)
(3 4.75159e-16 0)
(3 9.9945e-17 0)
(3 1.92634e-16 0)
(3 2.47112e-16 0)
(3 7.81839e-16 0)
(3 1.28756e-15 0)
(3 4.82768e-16 0)
(3 -4.38775e-16 0)
(3 -3.70287e-16 0)
(3 -3.06791e-16 0)
(3 -5.74158e-16 0)
(3 -4.04023e-16 0)
(3 -1.03503e-15 0)
(3 -1.14265e-15 0)
(3 -8.31648e-16 0)
(3 -7.92145e-16 0)
(3 -1.22982e-16 0)
(3 4.87132e-16 0)
(3 -5.84338e-16 0)
(3 -2.15176e-15 0)
(3 -2.91481e-15 0)
(3 -3.05179e-15 0)
(3 -2.7141e-15 0)
(3 -2.14299e-15 0)
(3 -2.39373e-15 0)
(3 -2.18619e-15 0)
(3 -7.75233e-16 0)
(3 1.19768e-18 0)
(3 5.45243e-16 0)
(3 -7.09871e-17 0)
(3 -1.22e-15 0)
(3 -1.21863e-15 0)
(3 -1.68584e-15 0)
(3 -3.01224e-15 0)
(3 -2.65019e-15 0)
(3 -9.49638e-16 0)
(3 -5.49877e-17 0)
(3 7.00623e-16 0)
(3 1.76245e-15 0)
(3 2.49742e-15 0)
(3 3.27269e-15 0)
(3 4.24056e-15 0)
(3 3.6631e-15 0)
(3 2.894e-15 0)
(3 2.88189e-15 0)
(3 3.71578e-15 0)
(3 4.147e-15 0)
(3 3.47029e-15 0)
(3 1.96278e-15 0)
(3 1.65558e-15 0)
(3 1.71017e-15 0)
(3 1.768e-15 0)
(3 1.82722e-15 0)
(3 1.64913e-15 0)
(3 1.50241e-15 0)
(3 1.20649e-15 0)
(3 -5.89568e-17 0)
(3 -4.0439e-16 0)
(3 -1.1367e-15 0)
(3 -1.9527e-15 0)
(3 -2.41404e-15 0)
(3 -2.21927e-15 0)
(3 6.81779e-17 0)
(3 2.60869e-16 0)
(3 1.63063e-16 0)
(3 -1.13868e-16 0)
(3 -4.35422e-16 0)
(3 -5.59185e-16 0)
(3 -7.71473e-16 0)
(3 -1.09237e-15 0)
(3 -1.10965e-15 0)
(3 -1.38679e-15 0)
(3 -1.19876e-15 0)
(3 -1.02828e-15 0)
(3 -1.30704e-17 0)
(3 2.07497e-16 0)
(3 -8.22819e-16 0)
(3 -1.54306e-15 0)
(3 -1.20466e-15 0)
(3 -1.02361e-15 0)
(3 -1.73333e-15 0)
(3 -2.28125e-15 0)
(3 -2.63475e-15 0)
(3 -2.26708e-15 0)
(3 -1.76915e-15 0)
(3 -4.32287e-16 0)
(3 1.06139e-15 0)
(3 8.50672e-16 0)
(3 1.1249e-15 0)
(3 1.27665e-15 0)
(3 9.16121e-16 0)
(3 1.66483e-15 0)
(3 2.70884e-15 0)
(3 2.97671e-15 0)
(3 2.34205e-15 0)
(3 2.01227e-15 0)
(3 3.10556e-15 0)
(3 3.87255e-15 0)
(3 2.84499e-15 0)
(3 1.29656e-15 0)
(3 3.34354e-16 0)
(3 9.25516e-17 0)
(3 -7.4518e-16 0)
(3 -7.76928e-16 0)
(3 -1.02739e-15 0)
(3 -2.85432e-16 0)
(3 3.55533e-16 0)
(3 2.06447e-15 0)
(3 2.69728e-15 0)
(3 2.12266e-15 0)
(3 9.76336e-16 0)
(3 -5.59528e-16 0)
(3 -1.01358e-15 0)
(3 -4.01748e-16 0)
(3 -5.29347e-16 0)
(3 -1.43195e-15 0)
(3 -1.55946e-15 0)
(3 -1.30709e-15 0)
(3 -1.58859e-15 0)
(3 -1.55417e-15 0)
(3 -1.5296e-15 0)
(3 -1.9713e-15 0)
(3 -2.18131e-15 0)
(3 -1.45833e-15 0)
(3 6.68329e-16 0)
(3 1.27039e-15 0)
(3 4.7925e-17 0)
(3 -9.87721e-16 0)
(3 -1.25551e-15 0)
(3 -2.47706e-15 0)
(3 -4.1308e-15 0)
(3 -3.85392e-15 0)
(3 -2.97879e-15 0)
(3 -9.02656e-16 0)
(3 1.29571e-15 0)
(3 2.47245e-15 0)
(3 2.72066e-15 0)
(3 2.18032e-15 0)
(3 2.54023e-15 0)
(3 2.06962e-15 0)
(3 9.76963e-16 0)
(3 4.18572e-16 0)
(3 6.61852e-16 0)
(3 -2.37334e-16 0)
(3 -1.11761e-15 0)
(3 -1.60181e-16 0)
(3 -7.84941e-16 0)
(3 -8.35938e-16 0)
(3 2.55675e-16 0)
(3 2.08254e-15 0)
(3 2.88073e-15 0)
(3 2.92484e-15 0)
(3 1.04503e-15 0)
(3 4.81394e-16 0)
(3 3.90142e-16 0)
(3 -4.18097e-16 0)
(3 -2.18339e-15 0)
(3 -1.75301e-15 0)
(3 -2.69921e-17 0)
(3 6.08852e-17 0)
(3 4.75183e-16 0)
(3 1.94398e-16 0)
(3 -3.47792e-16 0)
(3 -6.74446e-16 0)
(3 -8.05547e-16 0)
(3 -8.48097e-16 0)
(3 -2.66331e-16 0)
(3 -9.49114e-16 0)
(3 -1.30894e-15 0)
(3 -1.06132e-15 0)
(3 1.03311e-15 0)
(3 1.66957e-15 0)
(3 9.92861e-16 0)
(3 -5.96866e-16 0)
(3 -1.48971e-15 0)
(3 -2.14916e-15 0)
(3 -2.54346e-15 0)
(3 -1.83327e-15 0)
(3 -2.03466e-15 0)
(3 -1.99948e-15 0)
(3 -2.03471e-15 0)
(3 -1.47341e-15 0)
(3 -8.06631e-16 0)
(3 6.63392e-17 0)
(3 1.56854e-15 0)
(3 1.79452e-15 0)
(3 1.05027e-15 0)
(3 1.30654e-15 0)
(3 2.4905e-15 0)
(3 3.22967e-15 0)
(3 3.59455e-15 0)
(3 2.48826e-15 0)
(3 1.43324e-15 0)
(3 1.48311e-15 0)
(3 1.60813e-15 0)
(3 8.40498e-16 0)
(3 -6.5075e-16 0)
(3 -1.58031e-15 0)
(3 -1.31201e-15 0)
(3 -6.73549e-16 0)
(3 -7.8336e-16 0)
(3 -3.56936e-16 0)
(3 1.74796e-15 0)
(3 3.13674e-15 0)
(3 3.18359e-15 0)
(3 2.67748e-15 0)
(3 1.50338e-15 0)
(3 5.90682e-16 0)
(3 -4.78534e-16 0)
(3 -1.18878e-15 0)
(3 -1.01187e-15 0)
(3 -1.37031e-16 0)
(3 1.05757e-15 0)
(3 6.46444e-16 0)
(3 -7.00531e-16 0)
(3 -9.11761e-16 0)
(3 -8.69898e-16 0)
(3 -1.24758e-15 0)
(3 -1.5159e-15 0)
(3 -1.24338e-15 0)
(3 -9.30964e-16 0)
(3 1.92357e-16 0)
(3 -6.89444e-17 0)
(3 -2.00952e-15 0)
(3 -2.21294e-15 0)
(3 -2.73046e-15 0)
(3 -3.52486e-15 0)
(3 -3.16952e-15 0)
(3 -1.71913e-15 0)
(3 -2.55089e-16 0)
(3 3.42113e-16 0)
(3 1.77869e-15 0)
(3 2.57844e-15 0)
(3 2.76166e-15 0)
(3 3.24344e-15 0)
(3 1.96937e-15 0)
(3 1.1101e-15 0)
(3 -1.60179e-16 0)
(3 -6.098e-16 0)
(3 -3.99019e-16 0)
(3 -1.19561e-15 0)
(3 -1.86734e-15 0)
(3 -2.05862e-15 0)
(3 -1.32998e-15 0)
(3 -5.13691e-17 0)
(3 5.49067e-16 0)
(3 1.88299e-15 0)
(3 2.3218e-15 0)
(3 1.64942e-15 0)
(3 1.60864e-16 0)
(3 -5.13317e-16 0)
(3 -6.47932e-16 0)
(3 -3.70987e-16 0)
(3 -1.28818e-15 0)
(3 -9.22231e-17 0)
(3 -8.76271e-17 0)
(3 3.09288e-16 0)
(3 8.08842e-16 0)
(3 7.89465e-16 0)
(3 3.67561e-16 0)
(3 -4.35956e-16 0)
(3 -3.67127e-16 0)
(3 -7.78836e-18 0)
(3 -1.14959e-17 0)
(3 -6.48795e-16 0)
(3 -2.78555e-16 0)
(3 4.44524e-16 0)
(3 4.9253e-16 0)
(3 6.5814e-16 0)
(3 5.17656e-16 0)
(3 -1.08347e-15 0)
(3 -1.70079e-15 0)
(3 -1.47383e-15 0)
(3 -1.40218e-15 0)
(3 -7.58198e-16 0)
(3 -5.5963e-16 0)
(3 -1.62014e-16 0)
(3 -1.06532e-15 0)
(3 -1.2565e-15 0)
(3 4.20624e-16 0)
(3 1.80874e-15 0)
(3 1.66234e-15 0)
(3 1.25967e-15 0)
(3 1.54946e-15 0)
(3 1.44721e-15 0)
(3 3.50514e-15 0)
(3 4.43892e-15 0)
(3 3.53834e-15 0)
(3 1.78961e-15 0)
(3 1.32491e-15 0)
(3 8.40785e-16 0)
(3 -2.30874e-16 0)
(3 -6.16369e-16 0)
(3 -9.35149e-16 0)
(3 -7.75156e-16 0)
(3 4.85852e-17 0)
(3 4.91108e-16 0)
(3 -2.69255e-16 0)
(3 3.44805e-16 0)
(3 3.43455e-16 0)
(3 -4.14006e-17 0)
(3 -5.57288e-16 0)
(3 -1.95379e-16 0)
(3 -3.62402e-16 0)
(3 -2.74638e-16 0)
(3 7.03688e-17 0)
(3 4.79712e-16 0)
(3 1.3938e-15 0)
(3 1.41806e-15 0)
(3 1.08846e-15 0)
(3 1.41982e-15 0)
(3 1.27134e-15 0)
(3 -1.13604e-16 0)
(3 -5.4438e-16 0)
(3 -7.93997e-16 0)
(3 -1.6234e-15 0)
(3 -1.53847e-15 0)
(3 -1.34759e-15 0)
(3 -1.46531e-15 0)
(3 -1.47096e-15 0)
(3 -1.91091e-15 0)
(3 -2.19368e-15 0)
(3 -1.72678e-15 0)
(3 -1.3402e-15 0)
(3 -1.11336e-15 0)
(3 -1.035e-15 0)
(3 -1.111e-15 0)
(3 -2.82266e-16 0)
(3 1.89448e-15 0)
(3 2.16328e-15 0)
(3 2.27153e-15 0)
(3 1.35736e-15 0)
(3 2.60143e-16 0)
(3 9.97433e-17 0)
(3 3.97689e-16 0)
(3 4.95363e-16 0)
(3 1.73386e-16 0)
(3 -5.11261e-16 0)
(3 -6.87849e-16 0)
(3 -4.13818e-16 0)
(3 -2.56138e-16 0)
(3 -1.96415e-16 0)
(3 5.34583e-16 0)
(3 8.92348e-16 0)
(3 9.67315e-16 0)
(3 2.07341e-16 0)
(3 -3.58648e-16 0)
(3 6.13131e-17 0)
(3 4.07457e-16 0)
(3 -3.36928e-16 0)
(3 4.96567e-16 0)
(3 1.72613e-16 0)
(3 1.41408e-16 0)
(3 7.37732e-16 0)
(3 7.59601e-16 0)
(3 8.52415e-16 0)
(3 2.72397e-16 0)
(3 -4.0146e-16 0)
(3 -6.22823e-16 0)
(3 -3.53422e-16 0)
(3 -3.11239e-16 0)
(3 -6.72191e-16 0)
(3 -8.03561e-16 0)
(3 -7.40679e-16 0)
(3 -6.47914e-16 0)
(3 -9.98109e-16 0)
(3 -9.40898e-16 0)
(3 -7.5324e-16 0)
(3 -3.07294e-16 0)
(3 -1.65334e-16 0)
(3 5.94434e-16 0)
(3 6.47761e-16 0)
(3 -5.32815e-17 0)
(3 -4.97159e-16 0)
(3 -2.41469e-16 0)
(3 7.25315e-16 0)
(3 1.57708e-15 0)
(3 -5.14057e-16 0)
(3 -9.75049e-16 0)
(3 -1.63288e-15 0)
(3 -1.25766e-15 0)
(3 1.37503e-15 0)
(3 2.86531e-15 0)
(3 2.92755e-15 0)
(3 6.78589e-16 0)
(3 4.21979e-18 0)
(3 -6.98012e-16 0)
(3 -1.01708e-15 0)
(3 -8.76638e-16 0)
(3 -8.91277e-16 0)
(3 -7.52849e-16 0)
(3 -2.09702e-16 0)
(3 -5.99259e-17 0)
(3 -3.9054e-16 0)
(3 -7.58974e-16 0)
(3 -1.12585e-15 0)
(3 -1.03368e-15 0)
(3 -3.29703e-17 0)
(3 5.47903e-16 0)
(3 8.28406e-16 0)
(3 1.22144e-15 0)
(3 1.31436e-15 0)
(3 1.06731e-15 0)
(3 5.63158e-16 0)
(3 3.17094e-17 0)
(3 -6.11127e-16 0)
(3 -8.55583e-16 0)
(3 -8.97947e-16 0)
(3 -1.04817e-15 0)
(3 -1.1198e-15 0)
(3 -1.21839e-15 0)
(3 -1.32268e-15 0)
(3 -1.11204e-15 0)
(3 -2.24109e-15 0)
(3 -1.66551e-15 0)
(3 -8.99089e-16 0)
(3 -7.37553e-16 0)
(3 1.1165e-16 0)
(3 1.13693e-15 0)
(3 1.84546e-15 0)
(3 1.26517e-15 0)
(3 8.01117e-16 0)
(3 4.93544e-16 0)
(3 4.02863e-16 0)
(3 6.57136e-16 0)
(3 6.17796e-16 0)
(3 1.55233e-16 0)
(3 -7.47522e-16 0)
(3 -7.74148e-16 0)
(3 -6.82652e-16 0)
(3 6.87908e-17 0)
(3 1.97933e-16 0)
(3 7.80861e-17 0)
(3 -2.07541e-17 0)
(3 4.29272e-16 0)
(3 3.35659e-17 0)
(3 -9.44217e-16 0)
(3 -1.20375e-15 0)
(3 -6.69255e-16 0)
(3 -5.47133e-16 0)
(3 -1.0696e-16 0)
(3 8.127e-16 0)
(3 7.59759e-16 0)
(3 9.81238e-17 0)
(3 -5.14002e-16 0)
(3 -6.83461e-17 0)
(3 -1.85865e-16 0)
(3 -1.27585e-16 0)
(3 -1.16027e-16 0)
(3 -7.7947e-17 0)
(3 5.26684e-16 0)
(3 9.59849e-16 0)
(3 1.8517e-15 0)
(3 1.74126e-15 0)
(3 4.46097e-16 0)
(3 3.95693e-16 0)
(3 1.58996e-15 0)
(3 6.83208e-16 0)
(3 -6.42977e-16 0)
(3 -1.00859e-15 0)
(3 -1.29667e-15 0)
(3 -1.44242e-15 0)
(3 -1.12992e-15 0)
(3 -8.6828e-16 0)
(3 -5.4296e-16 0)
(3 -2.4017e-16 0)
(3 -5.70932e-16 0)
(3 -2.60299e-16 0)
(3 -4.84877e-16 0)
(3 -2.88266e-16 0)
(3 -3.6973e-16 0)
(3 -7.10768e-17 0)
(3 7.0605e-16 0)
(3 -3.78312e-16 0)
(3 -5.10374e-16 0)
(3 -4.15764e-16 0)
(3 4.29528e-16 0)
(3 8.30856e-16 0)
(3 3.2847e-16 0)
(3 3.70731e-16 0)
(3 6.96624e-16 0)
(3 3.47205e-16 0)
(3 -1.57146e-16 0)
(3 -1.62714e-16 0)
(3 -2.11872e-16 0)
(3 -9.80664e-16 0)
(3 -3.03077e-16 0)
(3 7.09974e-16 0)
(3 4.51048e-16 0)
(3 2.39718e-16 0)
(3 -8.14304e-17 0)
(3 1.67261e-16 0)
(3 1.02746e-15 0)
(3 1.60847e-15 0)
(3 1.14565e-15 0)
(3 9.75403e-16 0)
(3 1.03327e-15 0)
(3 9.00833e-16 0)
(3 6.56722e-16 0)
(3 -9.8778e-17 0)
(3 -5.23954e-16 0)
(3 -2.15495e-15 0)
(3 -3.41978e-15 0)
(3 -2.99477e-15 0)
(3 -1.4473e-15 0)
(3 -1.43942e-15 0)
(3 -1.78092e-15 0)
(3 -1.3724e-15 0)
(3 -1.24111e-15 0)
(3 -1.38379e-15 0)
(3 -8.15923e-16 0)
(3 -7.00326e-16 0)
(3 -9.62292e-17 0)
(3 1.17221e-15 0)
(3 1.26011e-15 0)
(3 1.40368e-15 0)
(3 1.52696e-15 0)
(3 1.83507e-15 0)
(3 1.03712e-15 0)
(3 3.76574e-16 0)
(3 -7.258e-16 0)
(3 -9.59748e-16 0)
(3 -7.0891e-16 0)
(3 3.55802e-16 0)
(3 1.51637e-15 0)
(3 1.41177e-15 0)
(3 3.33654e-16 0)
(3 6.37146e-17 0)
(3 -3.21825e-16 0)
(3 -4.40135e-16 0)
(3 -4.52613e-16 0)
(3 -8.30026e-16 0)
(3 -1.1995e-15 0)
(3 -1.1028e-15 0)
(3 -9.76843e-16 0)
(3 -1.12442e-15 0)
(3 -1.10758e-15 0)
(3 -3.24721e-16 0)
(3 6.19114e-16 0)
(3 4.17605e-16 0)
(3 7.13275e-17 0)
(3 -1.81105e-16 0)
(3 3.11974e-19 0)
(3 2.59161e-16 0)
(3 1.49412e-16 0)
(3 -2.14535e-16 0)
(3 -1.78153e-16 0)
(3 -2.58398e-16 0)
(3 7.6335e-16 0)
(3 1.4445e-15 0)
(3 8.64392e-16 0)
(3 6.52931e-16 0)
(3 4.2692e-16 0)
(3 -5.52268e-18 0)
(3 1.4865e-16 0)
(3 2.17222e-16 0)
(3 4.48897e-16 0)
(3 5.73029e-16 0)
(3 3.56132e-16 0)
(3 -1.40961e-16 0)
(3 -6.84969e-16 0)
(3 -1.01453e-15 0)
(3 -2.15009e-15 0)
(3 -2.39279e-15 0)
(3 -1.55499e-15 0)
(3 -1.26244e-15 0)
(3 -4.14338e-16 0)
(3 1.19205e-16 0)
(3 -9.10235e-16 0)
(3 -8.30591e-16 0)
(3 -3.8301e-16 0)
(3 2.87816e-16 0)
(3 6.41054e-16 0)
(3 3.34088e-16 0)
(3 -4.99778e-18 0)
(3 1.01337e-16 0)
(3 -5.46e-16 0)
(3 -2.51982e-15 0)
(3 -3.10432e-15 0)
(3 -2.42838e-15 0)
(3 -2.13617e-15 0)
(3 -7.86968e-16 0)
(3 2.92277e-16 0)
(3 5.53929e-16 0)
(3 6.06729e-16 0)
(3 5.75691e-16 0)
(3 4.48735e-16 0)
(3 2.79363e-16 0)
(3 2.4176e-16 0)
(3 3.70228e-16 0)
(3 8.42499e-16 0)
(3 8.81949e-16 0)
(3 5.54997e-16 0)
(3 2.6761e-16 0)
(3 9.13747e-16 0)
(3 2.17908e-16 0)
(3 -6.31163e-16 0)
(3 -9.60867e-16 0)
(3 -1.35459e-15 0)
(3 -9.06503e-16 0)
(3 -3.26756e-16 0)
(3 -7.00021e-16 0)
(3 -1.80392e-15 0)
(3 -1.9848e-15 0)
(3 -2.10465e-15 0)
(3 -1.63825e-15 0)
(3 -1.26519e-15 0)
(3 -1.06595e-15 0)
(3 -3.6501e-16 0)
(3 1.44193e-16 0)
(3 4.56203e-16 0)
(3 4.64157e-16 0)
(3 6.49869e-16 0)
(3 7.72439e-16 0)
(3 1.41195e-15 0)
(3 -3.47582e-16 0)
(3 -2.29953e-15 0)
(3 -2.05301e-15 0)
(3 -1.52384e-15 0)
(3 -7.45761e-17 0)
(3 -4.63107e-16 0)
(3 -6.21201e-16 0)
(3 -5.77744e-16 0)
(3 -6.1438e-16 0)
(3 -5.02102e-16 0)
(3 2.38489e-17 0)
(3 -7.00307e-17 0)
(3 -3.67416e-16 0)
(3 -2.35788e-16 0)
(3 -2.56474e-16 0)
(3 -5.70095e-16 0)
(3 -1.17963e-15 0)
(3 -2.02334e-15 0)
(3 -2.13338e-15 0)
(3 -7.7034e-16 0)
(3 -2.24774e-16 0)
(3 -1.95132e-16 0)
(3 -5.53787e-16 0)
(3 2.37816e-16 0)
(3 6.7531e-17 0)
(3 -6.55368e-17 0)
(3 -1.10844e-16 0)
(3 -8.93785e-17 0)
(3 8.62432e-18 0)
(3 -1.64541e-16 0)
(3 -5.36014e-17 0)
(3 2.01152e-16 0)
(3 2.76742e-16 0)
(3 2.49457e-19 0)
(3 2.6431e-17 0)
(3 3.93398e-16 0)
(3 5.7964e-16 0)
(3 1.24093e-15 0)
(3 2.00127e-15 0)
(3 1.53107e-15 0)
(3 8.84361e-16 0)
(3 2.32475e-16 0)
(3 -9.29346e-16 0)
(3 -1.23601e-15 0)
(3 -1.56217e-15 0)
(3 -1.67762e-15 0)
(3 -1.16859e-15 0)
(3 -4.73731e-16 0)
(3 -9.24844e-16 0)
(3 -1.72619e-15 0)
(3 -2.11403e-15 0)
(3 -1.18338e-15 0)
(3 -7.13067e-16 0)
(3 -5.44152e-16 0)
(3 -6.33037e-16 0)
(3 -6.74182e-16 0)
(3 -8.92804e-16 0)
(3 -1.03546e-15 0)
(3 -1.43402e-15 0)
(3 -1.50193e-15 0)
(3 -1.85348e-15 0)
(3 -1.55125e-15 0)
(3 -1.05161e-15 0)
(3 -1.03384e-15 0)
(3 -8.35563e-16 0)
(3 -1.82352e-16 0)
(3 5.44969e-16 0)
(3 5.62728e-16 0)
(3 2.04255e-16 0)
(3 -1.68943e-16 0)
(3 -4.36308e-16 0)
(3 -6.17066e-16 0)
(3 -1.70138e-16 0)
(3 -1.13015e-15 0)
(3 -1.27794e-15 0)
(3 -8.71197e-17 0)
(3 -6.10846e-18 0)
(3 3.68114e-16 0)
(3 1.90977e-15 0)
(3 1.27843e-15 0)
(3 6.61335e-16 0)
(3 -3.35142e-16 0)
(3 -1.44747e-15 0)
(3 -1.67602e-15 0)
(3 -3.24361e-15 0)
(3 -4.19173e-15 0)
(3 -3.09441e-15 0)
(3 -2.16849e-15 0)
(3 -1.2659e-15 0)
(3 -8.03715e-16 0)
(3 1.13563e-16 0)
(3 1.21542e-15 0)
(3 9.95144e-16 0)
(3 3.29834e-16 0)
(3 -5.76588e-16 0)
(3 -1.04243e-15 0)
(3 -2.86856e-15 0)
(3 -3.10318e-15 0)
(3 -3.01436e-15 0)
(3 -2.00652e-15 0)
(3 -1.03955e-15 0)
(3 -3.06336e-17 0)
(3 -1.13459e-16 0)
(3 -8.52842e-16 0)
(3 -1.49177e-15 0)
(3 -1.51131e-15 0)
(3 -9.69283e-16 0)
(3 3.5703e-16 0)
(3 5.01993e-17 0)
(3 -1.70246e-16 0)
(3 -3.20601e-16 0)
(3 7.77897e-17 0)
(3 -6.56568e-16 0)
(3 -2.72492e-15 0)
(3 -2.82987e-15 0)
(3 -2.75301e-15 0)
(3 -2.29482e-15 0)
(3 -1.68046e-15 0)
(3 -8.66498e-16 0)
(3 -1.08107e-17 0)
(3 1.17838e-16 0)
(3 1.89705e-16 0)
(3 2.74584e-17 0)
(3 -1.54948e-16 0)
(3 -6.05111e-17 0)
(3 -2.71229e-16 0)
(3 -6.5236e-16 0)
(3 -6.26088e-16 0)
(3 -8.45127e-16 0)
(3 -8.45268e-16 0)
(3 -2.35469e-16 0)
(3 -2.52155e-16 0)
(3 -1.21568e-16 0)
(3 -9.74618e-18 0)
(3 4.76888e-16 0)
(3 6.15477e-16 0)
(3 3.9202e-17 0)
(3 -7.58408e-16 0)
(3 -8.58182e-16 0)
(3 -4.55317e-16 0)
(3 8.1666e-16 0)
(3 2.45769e-16 0)
(3 -1.49457e-16 0)
(3 -1.29802e-15 0)
(3 -1.34841e-15 0)
(3 -1.69184e-15 0)
(3 -1.64724e-15 0)
(3 -7.32185e-16 0)
(3 -5.68372e-16 0)
(3 -2.17439e-16 0)
(3 -1.88097e-16 0)
(3 -1.09004e-15 0)
(3 -1.4504e-15 0)
(3 -1.14404e-15 0)
(3 -4.11923e-16 0)
(3 -6.46916e-16 0)
(3 -1.7667e-15 0)
(3 -1.29942e-15 0)
(3 -9.28473e-16 0)
(3 -4.50418e-16 0)
(3 -2.56013e-16 0)
(3 3.43093e-16 0)
(3 1.33935e-15 0)
(3 1.78525e-15 0)
(3 1.60369e-15 0)
(3 7.97969e-16 0)
(3 -1.11543e-16 0)
(3 -8.42561e-16 0)
(3 -1.05692e-15 0)
(3 -1.17429e-15 0)
(3 -7.97909e-16 0)
(3 -3.02773e-17 0)
(3 5.90396e-16 0)
(3 1.09386e-15 0)
(3 1.14006e-15 0)
(3 7.67324e-16 0)
(3 -1.53223e-16 0)
(3 -9.82812e-16 0)
(3 -1.45456e-15 0)
(3 -1.19757e-15 0)
(3 -1.0895e-15 0)
(3 -1.35494e-15 0)
(3 -2.35665e-15 0)
(3 -1.38022e-15 0)
(3 -6.24145e-16 0)
(3 -9.03981e-16 0)
(3 1.51329e-16 0)
(3 5.41423e-16 0)
(3 9.94691e-16 0)
(3 4.99491e-16 0)
(3 -6.35108e-16 0)
(3 -2.81272e-15 0)
(3 -2.94836e-15 0)
(3 -2.68895e-15 0)
(3 -2.01751e-15 0)
(3 -1.38614e-15 0)
(3 -1.29553e-15 0)
(3 -3.51232e-16 0)
(3 1.14606e-17 0)
(3 -9.95888e-16 0)
(3 -1.52004e-15 0)
(3 -1.61806e-15 0)
(3 -5.38209e-16 0)
(3 9.88614e-17 0)
(3 6.9346e-16 0)
(3 8.07471e-16 0)
(3 8.83806e-16 0)
(3 7.04323e-16 0)
(3 -7.29951e-16 0)
(3 -2.86746e-15 0)
(3 -3.45502e-15 0)
(3 -3.8191e-15 0)
(3 -3.66277e-15 0)
(3 -3.3778e-15 0)
(3 -1.49894e-15 0)
(3 7.12653e-17 0)
(3 3.91803e-16 0)
(3 4.9635e-16 0)
(3 6.81077e-16 0)
(3 1.71983e-16 0)
(3 -3.44858e-17 0)
(3 -3.11539e-17 0)
(3 2.14074e-17 0)
(3 -8.07628e-16 0)
(3 -1.58547e-15 0)
(3 -1.71122e-15 0)
(3 -1.30118e-15 0)
(3 -2.32823e-16 0)
(3 1.82561e-16 0)
(3 -1.61098e-16 0)
(3 -2.79212e-16 0)
(3 -8.93185e-17 0)
(3 -1.95557e-16 0)
(3 -4.62071e-16 0)
(3 1.2234e-17 0)
(3 1.1083e-16 0)
(3 2.02983e-16 0)
(3 1.60233e-16 0)
(3 -1.0715e-16 0)
(3 -1.10922e-15 0)
(3 -1.26934e-15 0)
(3 -9.39402e-16 0)
(3 -3.96984e-16 0)
(3 -2.73147e-16 0)
(3 -7.52417e-16 0)
(3 -6.70115e-16 0)
(3 -2.46368e-15 0)
(3 -3.62079e-15 0)
(3 -3.17962e-15 0)
(3 -2.79599e-15 0)
(3 -1.25561e-15 0)
(3 -1.32847e-15 0)
(3 -1.99304e-15 0)
(3 -2.04408e-15 0)
(3 -1.68532e-15 0)
(3 -1.38373e-15 0)
(3 3.70068e-18 0)
(3 -1.67078e-17 0)
(3 4.52301e-16 0)
(3 9.33959e-16 0)
(3 8.63299e-16 0)
(3 6.63791e-16 0)
(3 1.02924e-15 0)
(3 7.9797e-16 0)
(3 4.41822e-16 0)
(3 4.91118e-16 0)
(3 3.72192e-16 0)
(3 -1.2735e-16 0)
(3 5.41134e-16 0)
(3 6.90318e-16 0)
(3 1.30604e-16 0)
(3 -1.85246e-16 0)
(3 -2.56974e-16 0)
(3 6.21114e-17 0)
(3 2.14143e-16 0)
(3 7.34905e-16 0)
(3 2.00778e-15 0)
(3 2.16658e-15 0)
(3 9.54105e-16 0)
(3 2.95343e-16 0)
(3 -6.72491e-17 0)
(3 -4.44723e-16 0)
(3 -1.11528e-16 0)
(3 1.62298e-15 0)
(3 2.28259e-15 0)
(3 5.58481e-16 0)
(3 -7.08707e-16 0)
(3 -1.68231e-15 0)
(3 -1.09065e-15 0)
(3 -1.13473e-15 0)
(3 -1.57666e-15 0)
(3 -1.84508e-15 0)
(3 -2.46526e-15 0)
(3 -3.46496e-15 0)
(3 -3.6863e-15 0)
(3 -2.93304e-15 0)
(3 -2.11808e-15 0)
(3 -1.74178e-15 0)
(3 -1.44589e-15 0)
(3 -1.45641e-15 0)
(3 -9.62687e-16 0)
(3 -4.49152e-16 0)
(3 3.92974e-16 0)
(3 2.67007e-16 0)
(3 -1.20469e-15 0)
(3 -1.50338e-15 0)
(3 -2.50137e-15 0)
(3 -3.93742e-15 0)
(3 -4.59181e-15 0)
(3 -4.3884e-15 0)
(3 -1.72503e-15 0)
(3 -1.2955e-16 0)
(3 -2.50375e-16 0)
(3 -8.9663e-16 0)
(3 -6.32092e-16 0)
(3 3.02279e-16 0)
(3 5.6327e-16 0)
(3 5.00743e-16 0)
(3 5.93303e-16 0)
(3 2.68689e-17 0)
(3 3.80146e-16 0)
(3 6.20426e-16 0)
(3 5.17431e-16 0)
(3 6.57953e-16 0)
(3 6.04118e-16 0)
(3 4.03058e-16 0)
(3 -8.49876e-17 0)
(3 -3.79722e-17 0)
(3 -4.66482e-16 0)
(3 5.56866e-16 0)
(3 1.87125e-15 0)
(3 1.15204e-15 0)
(3 4.09367e-16 0)
(3 1.32031e-15 0)
(3 1.79575e-15 0)
(3 1.06267e-15 0)
(3 2.72942e-16 0)
(3 2.69333e-18 0)
(3 1.315e-16 0)
(3 5.55587e-18 0)
(3 2.34728e-16 0)
(3 2.36896e-16 0)
(3 -1.32488e-15 0)
(3 -1.95076e-15 0)
(3 -2.28613e-15 0)
(3 -2.33728e-15 0)
(3 -2.28787e-15 0)
(3 -1.45182e-15 0)
(3 -9.89107e-16 0)
(3 -1.1827e-15 0)
(3 -1.3692e-15 0)
(3 -1.32856e-15 0)
(3 -1.40847e-15 0)
(3 -9.74103e-16 0)
(3 -1.10767e-15 0)
(3 -1.12592e-15 0)
(3 -6.59979e-16 0)
(3 4.66338e-16 0)
(3 1.6591e-15 0)
(3 1.53595e-15 0)
(3 1.38431e-15 0)
(3 1.00683e-15 0)
(3 4.25205e-16 0)
(3 -7.18909e-16 0)
(3 -9.45393e-16 0)
(3 -2.44452e-16 0)