/*--------------------------------*- C++ -*----------------------------------*\
  =========                 |
  \\      /  F ield         | OpenFOAM: The Open Source CFD Toolbox
   \\    /   O peration     | Website:  https://openfoam.org
    \\  /    A nd           | Version:  7
     \\/     M anipulation  |
\*---------------------------------------------------------------------------*/
FoamFile
{
    version     2.0;
    format      ascii;
    class       volVectorField;
    location    "0.9";
    object      U;
}
// * * * * * * * * * * * * * * * * * * * * * * * * * * * * * * * * * * * * * //

dimensions      [0 1 -1 0 0 0 0];

internalField   nonuniform List<vector> 
73728
(
(3 1.96048e-17 0)
(3 9.70786e-18 0)
(3 1.34088e-16 0)
(3 7.57338e-17 0)
(3 1.41096e-17 0)
(3 2.94354e-16 0)
(3 7.1799e-16 0)
(3 9.12699e-16 0)
(3 9.759e-16 0)
(3 4.35695e-16 0)
(3 6.32089e-16 0)
(3 6.24264e-16 0)
(3 6.39416e-16 0)
(3 1.82311e-16 0)
(3 1.12053e-15 0)
(3 1.45678e-15 0)
(3 7.58837e-16 0)
(3 -4.08926e-16 0)
(3 -1.08558e-15 0)
(3 -1.56103e-15 0)
(3 -1.68529e-15 0)
(3 -1.41434e-15 0)
(3 -1.09177e-15 0)
(3 8.02655e-16 0)
(3 1.08685e-15 0)
(3 8.36704e-16 0)
(3 -4.2764e-17 0)
(3 -5.44496e-16 0)
(3 -7.88229e-16 0)
(3 -7.87024e-16 0)
(3 -1.58322e-15 0)
(3 -2.44118e-15 0)
(3 -2.06178e-15 0)
(3 -3.83554e-16 0)
(3 -2.34282e-17 0)
(3 5.08631e-17 0)
(3 8.02416e-16 0)
(3 9.83166e-16 0)
(3 8.68324e-16 0)
(3 1.10253e-16 0)
(3 -5.92599e-16 0)
(3 -3.75065e-16 0)
(3 -2.03316e-17 0)
(3 -3.02206e-16 0)
(3 -6.71954e-16 0)
(3 -1.16924e-15 0)
(3 -1.01382e-15 0)
(3 -7.32255e-16 0)
(3 -3.87284e-16 0)
(3 -5.19695e-16 0)
(3 -3.72496e-16 0)
(3 5.9093e-16 0)
(3 1.64603e-15 0)
(3 1.08409e-15 0)
(3 2.62715e-16 0)
(3 -1.1207e-15 0)
(3 -1.68383e-15 0)
(3 -1.3379e-15 0)
(3 -1.21829e-15 0)
(3 -1.41606e-16 0)
(3 7.65625e-16 0)
(3 1.14509e-15 0)
(3 1.00938e-15 0)
(3 1.91481e-16 0)
(3 -1.98086e-15 0)
(3 -2.45568e-15 0)
(3 -8.87484e-16 0)
(3 1.21701e-15 0)
(3 1.99629e-15 0)
(3 2.02988e-15 0)
(3 2.31816e-15 0)
(3 2.97692e-15 0)
(3 1.02122e-15 0)
(3 9.11016e-16 0)
(3 9.47069e-16 0)
(3 7.40323e-16 0)
(3 1.94723e-16 0)
(3 2.58099e-17 0)
(3 1.46244e-16 0)
(3 5.93997e-16 0)
(3 -1.74815e-16 0)
(3 -6.42697e-16 0)
(3 5.77893e-16 0)
(3 1.19716e-15 0)
(3 1.70913e-15 0)
(3 1.60571e-15 0)
(3 1.50184e-15 0)
(3 1.33952e-15 0)
(3 9.69161e-16 0)
(3 9.59623e-16 0)
(3 9.67762e-16 0)
(3 1.01942e-16 0)
(3 5.77734e-17 0)
(3 -1.31038e-16 0)
(3 -5.95445e-16 0)
(3 -8.88779e-16 0)
(3 -6.02119e-17 0)
(3 1.4568e-16 0)
(3 2.82695e-16 0)
(3 -1.16639e-16 0)
(3 -6.66505e-16 0)
(3 -7.20192e-16 0)
(3 -1.74799e-16 0)
(3 5.20736e-16 0)
(3 7.21257e-16 0)
(3 1.45407e-15 0)
(3 1.24574e-15 0)
(3 7.56473e-16 0)
(3 2.17839e-17 0)
(3 -2.12204e-17 0)
(3 1.95892e-15 0)
(3 2.68453e-15 0)
(3 2.26859e-15 0)
(3 1.54395e-15 0)
(3 -1.96703e-18 0)
(3 -2.82396e-15 0)
(3 -4.28079e-15 0)
(3 -4.50878e-15 0)
(3 -1.90882e-15 0)
(3 -4.42592e-16 0)
(3 3.73619e-16 0)
(3 -1.88362e-16 0)
(3 -2.51967e-15 0)
(3 -3.87029e-15 0)
(3 -3.75144e-15 0)
(3 -3.45989e-15 0)
(3 -3.92006e-15 0)
(3 -4.58937e-15 0)
(3 -3.6283e-15 0)
(3 -4.03845e-17 0)
(3 1.82464e-15 0)
(3 1.86971e-15 0)
(3 3.09957e-15 0)
(3 3.23485e-15 0)
(3 3.12293e-15 0)
(3 8.92169e-16 0)
(3 -1.05679e-15 0)
(3 -1.11589e-15 0)
(3 -7.26258e-16 0)
(3 -3.02289e-15 0)
(3 -3.66558e-15 0)
(3 -2.92007e-15 0)
(3 -2.16226e-15 0)
(3 -1.91313e-15 0)
(3 -1.88706e-15 0)
(3 -1.76287e-15 0)
(3 -1.42688e-15 0)
(3 -1.41742e-16 0)
(3 1.11825e-15 0)
(3 1.07539e-15 0)
(3 -8.39654e-17 0)
(3 -9.29041e-16 0)
(3 -1.23544e-15 0)
(3 -1.89543e-15 0)
(3 -1.61984e-15 0)
(3 -7.09043e-16 0)
(3 1.07824e-16 0)
(3 7.73902e-16 0)
(3 -9.46409e-17 0)
(3 -1.09318e-15 0)
(3 -2.45965e-15 0)
(3 -2.60683e-15 0)
(3 -1.24233e-15 0)
(3 2.56366e-15 0)
(3 5.16233e-15 0)
(3 5.28859e-15 0)
(3 5.10761e-15 0)
(3 5.0502e-15 0)
(3 2.57762e-15 0)
(3 5.58704e-16 0)
(3 4.37591e-16 0)
(3 4.33659e-16 0)
(3 -2.17216e-17 0)
(3 -6.76364e-16 0)
(3 -1.08586e-15 0)
(3 -4.78187e-16 0)
(3 -1.23718e-15 0)
(3 -2.20782e-15 0)
(3 -6.70694e-16 0)
(3 4.34019e-16 0)
(3 1.44707e-15 0)
(3 2.36277e-15 0)
(3 2.58824e-15 0)
(3 2.4272e-15 0)
(3 2.82759e-15 0)
(3 3.2999e-15 0)
(3 3.60478e-15 0)
(3 3.22939e-15 0)
(3 3.60885e-15 0)
(3 2.63685e-15 0)
(3 1.30893e-15 0)
(3 -1.54104e-16 0)
(3 1.00149e-16 0)
(3 -7.84709e-19 0)
(3 -8.54939e-18 0)
(3 -1.34393e-16 0)
(3 -4.87332e-18 0)
(3 -3.49145e-16 0)
(3 -5.38515e-16 0)
(3 -3.71882e-16 0)
(3 -5.06111e-16 0)
(3 1.29663e-16 0)
(3 4.53428e-16 0)
(3 1.79828e-16 0)
(3 -4.40851e-16 0)
(3 7.01868e-17 0)
(3 1.18406e-15 0)
(3 2.45078e-15 0)
(3 3.11684e-15 0)
(3 2.80315e-15 0)
(3 1.7262e-15 0)
(3 -1.59025e-15 0)
(3 -2.6851e-15 0)
(3 -2.22765e-15 0)
(3 -1.02455e-15 0)
(3 -6.52999e-16 0)
(3 -2.88277e-16 0)
(3 -5.78806e-16 0)
(3 -2.21402e-15 0)
(3 -2.26815e-15 0)
(3 -2.8851e-15 0)
(3 -3.29225e-15 0)
(3 -3.01458e-15 0)
(3 -2.28024e-15 0)
(3 -5.29572e-16 0)
(3 9.94936e-16 0)
(3 9.55843e-16 0)
(3 5.91597e-16 0)
(3 5.07431e-16 0)
(3 1.03595e-15 0)
(3 7.11568e-16 0)
(3 -6.44111e-16 0)
(3 -1.02109e-15 0)
(3 -1.06843e-15 0)
(3 -8.87938e-16 0)
(3 -8.87029e-16 0)
(3 -9.39418e-16 0)
(3 -8.9985e-16 0)
(3 -8.24252e-16 0)
(3 -1.01927e-15 0)
(3 -2.45374e-15 0)
(3 -2.57032e-15 0)
(3 -1.80882e-15 0)
(3 2.36815e-16 0)
(3 1.94209e-15 0)
(3 1.76111e-15 0)
(3 8.11624e-16 0)
(3 9.31657e-16 0)
(3 -1.0262e-17 0)
(3 -3.51995e-16 0)
(3 -3.51149e-16 0)
(3 -3.61485e-16 0)
(3 -5.95253e-16 0)
(3 4.72904e-17 0)
(3 -7.04628e-16 0)
(3 -1.32555e-15 0)
(3 -2.1508e-15 0)
(3 -2.69441e-15 0)
(3 -1.74457e-15 0)
(3 2.1098e-16 0)
(3 1.93616e-15 0)
(3 4.12287e-15 0)
(3 4.45071e-15 0)
(3 4.66315e-15 0)
(3 2.65891e-15 0)
(3 1.829e-15 0)
(3 3.01316e-16 0)
(3 -3.19069e-16 0)
(3 -7.64112e-16 0)
(3 -8.56469e-16 0)
(3 -1.91827e-15 0)
(3 -2.66519e-15 0)
(3 -3.46132e-15 0)
(3 -2.98276e-15 0)
(3 -1.61132e-15 0)
(3 -1.81856e-16 0)
(3 2.60476e-15 0)
(3 3.92844e-15 0)
(3 3.59742e-15 0)
(3 3.5096e-15 0)
(3 3.25123e-15 0)
(3 3.47091e-15 0)
(3 3.85378e-15 0)
(3 4.20342e-15 0)
(3 3.63612e-15 0)
(3 3.24499e-15 0)
(3 2.46549e-15 0)
(3 9.70905e-16 0)
(3 1.46766e-16 0)
(3 6.77919e-17 0)
(3 6.62591e-16 0)
(3 9.23413e-16 0)
(3 9.3007e-16 0)
(3 8.15158e-16 0)
(3 8.8891e-16 0)
(3 5.93099e-16 0)
(3 -2.15423e-16 0)
(3 -1.40399e-15 0)
(3 -1.7311e-15 0)
(3 -2.2009e-15 0)
(3 -1.61494e-15 0)
(3 -8.40555e-16 0)
(3 -3.20745e-16 0)
(3 2.28167e-16 0)
(3 6.36352e-16 0)
(3 5.97403e-16 0)
(3 4.05031e-16 0)
(3 1.89556e-16 0)
(3 1.73467e-15 0)
(3 2.46232e-15 0)
(3 2.32136e-15 0)
(3 1.60633e-15 0)
(3 1.08475e-15 0)
(3 5.90285e-16 0)
(3 7.18739e-16 0)
(3 7.56195e-16 0)
(3 9.19234e-16 0)
(3 1.25208e-15 0)
(3 9.09206e-17 0)
(3 2.84262e-16 0)
(3 1.03496e-15 0)
(3 1.07908e-15 0)
(3 5.72456e-16 0)
(3 -9.91489e-17 0)
(3 -5.80141e-16 0)
(3 -1.38319e-16 0)
(3 4.72024e-17 0)
(3 2.44581e-17 0)
(3 -6.26223e-19 0)
(3 1.06834e-16 0)
(3 7.55178e-16 0)
(3 2.00267e-15 0)
(3 1.75211e-15 0)
(3 1.05785e-15 0)
(3 9.78318e-16 0)
(3 1.51471e-15 0)
(3 1.18588e-15 0)
(3 3.73776e-16 0)
(3 2.43569e-16 0)
(3 1.85465e-15 0)
(3 2.26599e-15 0)
(3 2.11185e-15 0)
(3 1.16918e-15 0)
(3 5.6306e-16 0)
(3 4.16785e-16 0)
(3 7.49841e-16 0)
(3 5.15938e-16 0)
(3 -1.13148e-16 0)
(3 -1.38618e-17 0)
(3 -2.46951e-17 0)
(3 -3.59944e-16 0)
(3 -1.08535e-15 0)
(3 -1.30284e-15 0)
(3 -2.47349e-15 0)
(3 -2.33789e-15 0)
(3 -7.44236e-16 0)
(3 4.47285e-17 0)
(3 5.28789e-16 0)
(3 2.93773e-15 0)
(3 2.8901e-15 0)
(3 1.56688e-15 0)
(3 2.74308e-15 0)
(3 2.22854e-15 0)
(3 -1.57686e-16 0)
(3 -9.40709e-16 0)
(3 -1.32934e-15 0)
(3 -1.58955e-15 0)
(3 -3.74875e-15 0)
(3 -5.61729e-15 0)
(3 -1.63911e-15 0)
(3 6.48768e-16 0)
(3 2.31262e-15 0)
(3 3.97519e-15 0)
(3 4.94591e-15 0)
(3 4.89236e-15 0)
(3 4.66317e-15 0)
(3 3.82124e-15 0)
(3 4.45478e-15 0)
(3 5.43703e-15 0)
(3 4.74374e-15 0)
(3 3.95703e-15 0)
(3 2.69521e-15 0)
(3 2.03517e-15 0)
(3 1.94326e-15 0)
(3 -7.20421e-17 0)
(3 -1.391e-16 0)
(3 3.4088e-16 0)
(3 8.63697e-16 0)
(3 4.50297e-16 0)
(3 1.82158e-16 0)
(3 5.85084e-16 0)
(3 7.45671e-16 0)
(3 2.60993e-16 0)
(3 -3.06762e-16 0)
(3 -3.55297e-16 0)
(3 -6.01636e-16 0)
(3 -1.22514e-15 0)
(3 -1.65509e-15 0)
(3 -1.61104e-15 0)
(3 -1.81164e-15 0)
(3 -2.07631e-15 0)
(3 -1.30821e-15 0)
(3 5.96366e-16 0)
(3 3.88553e-15 0)
(3 6.06875e-15 0)
(3 5.75472e-15 0)
(3 4.75705e-15 0)
(3 2.49507e-15 0)
(3 1.37535e-15 0)
(3 -9.40332e-17 0)
(3 1.13412e-15 0)
(3 3.72017e-15 0)
(3 4.27135e-15 0)
(3 4.36781e-15 0)
(3 3.79856e-15 0)
(3 3.47838e-15 0)
(3 3.20162e-15 0)
(3 2.83448e-15 0)
(3 1.47422e-15 0)
(3 6.67243e-16 0)
(3 -3.1259e-17 0)
(3 -5.25417e-17 0)
(3 2.60815e-16 0)
(3 9.93369e-16 0)
(3 1.43779e-15 0)
(3 2.11013e-15 0)
(3 3.00634e-15 0)
(3 3.87933e-15 0)
(3 3.72295e-15 0)
(3 2.70933e-15 0)
(3 2.64107e-15 0)
(3 3.72752e-15 0)
(3 4.52038e-15 0)
(3 4.10836e-15 0)
(3 3.54494e-15 0)
(3 2.33952e-15 0)
(3 1.94786e-15 0)
(3 1.0035e-15 0)
(3 9.30476e-16 0)
(3 4.64096e-16 0)
(3 2.29022e-16 0)
(3 7.04894e-16 0)
(3 8.85413e-16 0)
(3 4.92007e-16 0)
(3 -5.77082e-17 0)
(3 -1.08239e-15 0)
(3 -1.79191e-15 0)
(3 -9.03575e-16 0)
(3 -8.74324e-16 0)
(3 -1.06346e-15 0)
(3 -1.29523e-15 0)
(3 -1.2877e-15 0)
(3 -3.34056e-16 0)
(3 1.07877e-17 0)
(3 1.29621e-15 0)
(3 2.00594e-15 0)
(3 1.26825e-15 0)
(3 3.68798e-16 0)
(3 7.37494e-16 0)
(3 2.45728e-16 0)
(3 -1.05632e-15 0)
(3 -1.45075e-15 0)
(3 -2.15077e-15 0)
(3 -3.77715e-15 0)
(3 -4.67194e-15 0)
(3 -1.2477e-15 0)
(3 1.98151e-15 0)
(3 3.03123e-15 0)
(3 3.52669e-15 0)
(3 3.17773e-15 0)
(3 2.83892e-15 0)
(3 1.84923e-15 0)
(3 1.70425e-15 0)
(3 4.60898e-15 0)
(3 5.59677e-15 0)
(3 5.52289e-15 0)
(3 5.15674e-15 0)
(3 3.59308e-15 0)
(3 2.80846e-15 0)
(3 2.31817e-15 0)
(3 -1.30025e-16 0)
(3 -1.13302e-16 0)
(3 -6.99546e-16 0)
(3 -6.78059e-16 0)
(3 9.94219e-17 0)
(3 2.68363e-16 0)
(3 3.53922e-16 0)
(3 -1.50328e-17 0)
(3 2.97023e-16 0)
(3 9.49128e-16 0)
(3 1.35097e-15 0)
(3 7.90585e-16 0)
(3 -2.1412e-16 0)
(3 -1.37472e-15 0)
(3 -1.78543e-15 0)
(3 -2.14132e-15 0)
(3 -2.44415e-15 0)
(3 -8.96627e-16 0)
(3 4.87136e-16 0)
(3 1.58019e-15 0)
(3 3.55979e-15 0)
(3 3.58124e-15 0)
(3 3.09123e-15 0)
(3 2.26004e-15 0)
(3 1.69483e-15 0)
(3 1.63995e-15 0)
(3 1.74835e-15 0)
(3 1.60704e-15 0)
(3 1.7281e-15 0)
(3 1.91468e-15 0)
(3 2.19508e-15 0)
(3 2.3961e-15 0)
(3 2.10278e-15 0)
(3 2.1913e-15 0)
(3 1.91539e-15 0)
(3 8.75172e-16 0)
(3 -2.39035e-16 0)
(3 5.30785e-16 0)
(3 1.05357e-15 0)
(3 1.23982e-15 0)
(3 2.03743e-15 0)
(3 1.83943e-15 0)
(3 4.73827e-18 0)
(3 -4.73289e-16 0)
(3 6.64809e-16 0)
(3 3.00593e-15 0)
(3 3.38685e-15 0)
(3 3.71153e-15 0)
(3 3.40792e-15 0)
(3 2.38333e-15 0)
(3 1.80119e-15 0)
(3 1.02471e-15 0)
(3 1.35777e-15 0)
(3 1.37423e-15 0)
(3 1.22317e-15 0)
(3 1.20609e-16 0)
(3 -7.02729e-16 0)
(3 -8.97829e-16 0)
(3 -7.0333e-16 0)
(3 -6.56304e-16 0)
(3 -1.70041e-15 0)
(3 -3.13501e-15 0)
(3 -2.33372e-15 0)
(3 -1.3906e-15 0)
(3 -1.26405e-15 0)
(3 -7.2782e-16 0)
(3 -1.26968e-16 0)
(3 -8.82019e-16 0)
(3 -1.25867e-15 0)
(3 -1.18023e-15 0)
(3 -8.25046e-16 0)
(3 -2.42587e-16 0)
(3 -6.80084e-16 0)
(3 -1.32661e-15 0)
(3 -1.18596e-15 0)
(3 -9.46422e-16 0)
(3 -1.06049e-15 0)
(3 -1.01608e-15 0)
(3 -1.40582e-15 0)
(3 -1.68332e-15 0)
(3 -2.09967e-15 0)
(3 -9.6724e-16 0)
(3 5.71025e-16 0)
(3 1.49613e-15 0)
(3 1.60961e-15 0)
(3 1.25881e-15 0)
(3 8.20389e-16 0)
(3 1.2333e-16 0)
(3 3.40651e-16 0)
(3 1.18464e-15 0)
(3 2.28053e-15 0)
(3 2.15438e-15 0)
(3 2.60448e-15 0)
(3 2.62579e-15 0)
(3 9.85753e-16 0)
(3 -7.28459e-18 0)
(3 -3.74261e-17 0)
(3 3.93058e-17 0)
(3 -3.20114e-16 0)
(3 -3.74053e-16 0)
(3 1.36318e-16 0)
(3 1.38071e-16 0)
(3 -2.19807e-16 0)
(3 -5.2454e-16 0)
(3 -1.90251e-17 0)
(3 1.25129e-15 0)
(3 1.44264e-15 0)
(3 7.70575e-16 0)
(3 -2.51969e-16 0)
(3 -1.35609e-15 0)
(3 -2.47941e-15 0)
(3 -2.55283e-15 0)
(3 -2.12776e-15 0)
(3 -1.60909e-15 0)
(3 -1.26039e-15 0)
(3 -9.97807e-16 0)
(3 -3.87833e-16 0)
(3 2.68737e-16 0)
(3 9.61084e-16 0)
(3 2.12294e-15 0)
(3 2.30988e-15 0)
(3 2.32802e-15 0)
(3 2.16524e-15 0)
(3 1.19627e-15 0)
(3 4.68096e-18 0)
(3 -3.86353e-16 0)
(3 5.69698e-16 0)
(3 6.14543e-16 0)
(3 9.93851e-16 0)
(3 6.80505e-16 0)
(3 4.29293e-16 0)
(3 -4.52921e-16 0)
(3 -1.79931e-15 0)
(3 -6.85338e-16 0)
(3 1.23749e-15 0)
(3 1.97198e-15 0)
(3 1.78193e-15 0)
(3 4.02545e-16 0)
(3 -6.51034e-16 0)
(3 -2.2691e-16 0)
(3 8.52676e-16 0)
(3 2.49421e-15 0)
(3 3.48784e-15 0)
(3 2.73536e-15 0)
(3 2.13464e-15 0)
(3 1.1936e-15 0)
(3 1.49756e-15 0)
(3 1.25508e-15 0)
(3 7.47058e-16 0)
(3 2.09933e-16 0)
(3 -9.80694e-16 0)
(3 -1.43629e-15 0)
(3 -1.70343e-15 0)
(3 -2.11404e-15 0)
(3 -2.10335e-15 0)
(3 -3.07587e-15 0)
(3 -4.0693e-15 0)
(3 -3.33297e-15 0)
(3 -2.4303e-15 0)
(3 -1.15813e-15 0)
(3 -3.89494e-16 0)
(3 -2.57385e-16 0)
(3 -5.17248e-16 0)
(3 -8.62292e-16 0)
(3 -1.89774e-15 0)
(3 -3.25744e-15 0)
(3 -4.10102e-15 0)
(3 -4.59192e-15 0)
(3 -3.59976e-15 0)
(3 -2.34813e-15 0)
(3 -2.17327e-15 0)
(3 -1.79408e-15 0)
(3 -7.30056e-16 0)
(3 -2.50245e-16 0)
(3 -3.7855e-16 0)
(3 1.80703e-16 0)
(3 -2.3726e-16 0)
(3 -3.85665e-18 0)
(3 4.9016e-16 0)
(3 1.79018e-15 0)
(3 2.69807e-15 0)
(3 3.17639e-15 0)
(3 3.12183e-15 0)
(3 3.10318e-15 0)
(3 2.56345e-15 0)
(3 2.33964e-15 0)
(3 2.21845e-15 0)
(3 1.77109e-15 0)
(3 1.4704e-15 0)
(3 1.66926e-15 0)
(3 4.85562e-16 0)
(3 -3.08372e-16 0)
(3 4.83629e-18 0)
(3 -3.20575e-16 0)
(3 9.99919e-18 0)
(3 6.53762e-17 0)
(3 -4.83616e-18 0)
(3 5.62052e-17 0)
(3 -1.25954e-16 0)
(3 -2.27082e-16 0)
(3 -2.75454e-16 0)
(3 -1.40394e-16 0)
(3 -1.71781e-16 0)
(3 1.01258e-16 0)
(3 3.12714e-17 0)
(3 -1.86069e-16 0)
(3 -1.46478e-15 0)
(3 -2.67298e-15 0)
(3 -3.23163e-15 0)
(3 -2.73951e-15 0)
(3 -2.63304e-15 0)
(3 -2.85499e-15 0)
(3 -2.07376e-15 0)
(3 -1.41795e-15 0)
(3 2.6284e-16 0)
(3 1.02192e-15 0)
(3 7.62679e-16 0)
(3 1.26569e-15 0)
(3 2.04502e-15 0)
(3 2.06259e-15 0)
(3 2.18735e-17 0)
(3 -6.86382e-16 0)
(3 -3.31073e-16 0)
(3 -5.12393e-16 0)
(3 -1.77676e-15 0)
(3 -2.67383e-15 0)
(3 -2.20601e-15 0)
(3 -1.49579e-15 0)
(3 -1.11019e-15 0)
(3 2.72695e-16 0)
(3 1.16018e-15 0)
(3 1.86936e-15 0)
(3 1.20451e-15 0)
(3 1.18618e-15 0)
(3 1.70885e-15 0)
(3 1.76837e-15 0)
(3 1.87562e-15 0)
(3 1.98469e-15 0)
(3 1.42791e-15 0)
(3 1.40806e-15 0)
(3 9.847e-16 0)
(3 2.33556e-15 0)
(3 3.10875e-15 0)
(3 2.41026e-15 0)
(3 1.90319e-15 0)
(3 9.18154e-17 0)
(3 -1.57151e-15 0)
(3 -3.10406e-15 0)
(3 -3.12502e-15 0)
(3 -2.31288e-15 0)
(3 -2.66214e-15 0)
(3 -2.57682e-15 0)
(3 -2.71694e-15 0)
(3 -1.22803e-15 0)
(3 -1.29164e-16 0)
(3 9.38897e-16 0)
(3 1.14309e-15 0)
(3 1.13388e-15 0)
(3 6.09238e-16 0)
(3 -5.47198e-16 0)
(3 -1.8769e-15 0)
(3 -4.28573e-15 0)
(3 -5.10554e-15 0)
(3 -5.33607e-15 0)
(3 -2.79564e-15 0)
(3 -6.6217e-16 0)
(3 -3.47761e-17 0)
(3 4.70096e-16 0)
(3 1.13848e-15 0)
(3 6.65398e-16 0)
(3 4.60593e-16 0)
(3 3.28495e-17 0)
(3 1.49432e-16 0)
(3 9.6334e-16 0)
(3 1.51193e-15 0)
(3 2.07428e-15 0)
(3 2.28985e-15 0)
(3 2.35402e-15 0)
(3 2.78945e-15 0)
(3 2.02323e-15 0)
(3 1.50058e-15 0)
(3 1.09202e-15 0)
(3 2.69418e-16 0)
(3 7.10098e-16 0)
(3 1.13132e-15 0)
(3 6.59862e-16 0)
(3 -2.46944e-16 0)
(3 -3.15063e-16 0)
(3 1.55785e-16 0)
(3 9.0199e-17 0)
(3 3.24907e-17 0)
(3 7.98243e-18 0)
(3 -2.7701e-16 0)
(3 3.28091e-16 0)
(3 2.50476e-16 0)
(3 1.03559e-16 0)
(3 -4.15034e-16 0)
(3 -8.39751e-16 0)
(3 -9.88303e-16 0)
(3 -5.4061e-16 0)
(3 5.93338e-17 0)
(3 4.12049e-16 0)
(3 9.73546e-17 0)
(3 1.0334e-16 0)
(3 -1.34776e-15 0)
(3 -3.03878e-15 0)
(3 -3.09518e-15 0)
(3 -2.55572e-15 0)
(3 -9.58836e-16 0)
(3 -1.32579e-16 0)
(3 1.44023e-15 0)
(3 1.30135e-15 0)
(3 8.71649e-16 0)
(3 9.55552e-16 0)
(3 1.60796e-15 0)
(3 1.63607e-15 0)
(3 1.67732e-15 0)
(3 5.4728e-16 0)
(3 -3.7426e-16 0)
(3 -2.00494e-15 0)
(3 -3.35374e-15 0)
(3 -3.52672e-15 0)
(3 -3.3816e-15 0)
(3 -1.96841e-15 0)
(3 -7.37536e-16 0)
(3 2.72567e-16 0)
(3 6.03743e-16 0)
(3 -9.23913e-17 0)
(3 -6.09121e-17 0)
(3 -2.39516e-16 0)
(3 3.08828e-16 0)
(3 6.87743e-16 0)
(3 5.27158e-16 0)
(3 4.27564e-16 0)
(3 5.4326e-16 0)
(3 8.73204e-16 0)
(3 1.46501e-15 0)
(3 2.015e-15 0)
(3 1.77023e-15 0)
(3 8.31899e-16 0)
(3 -7.57185e-16 0)
(3 -9.67103e-16 0)
(3 -8.27293e-16 0)
(3 -2.11235e-16 0)
(3 -1.02812e-15 0)
(3 -1.93949e-15 0)
(3 -1.87697e-15 0)
(3 -1.25925e-15 0)
(3 -7.6612e-17 0)
(3 1.00626e-16 0)
(3 8.64405e-16 0)
(3 9.87687e-16 0)
(3 1.0568e-15 0)
(3 1.05912e-15 0)
(3 3.95252e-16 0)
(3 -6.55925e-16 0)
(3 -1.50272e-15 0)
(3 -2.46163e-15 0)
(3 -3.47691e-15 0)
(3 -1.27441e-15 0)
(3 8.31206e-16 0)
(3 1.9325e-15 0)
(3 1.95266e-15 0)
(3 2.35163e-15 0)
(3 2.12412e-15 0)
(3 2.12373e-15 0)
(3 1.32185e-15 0)
(3 8.80114e-16 0)
(3 6.49183e-16 0)
(3 7.59551e-16 0)
(3 1.07089e-15 0)
(3 1.26295e-15 0)
(3 1.23742e-15 0)
(3 4.63944e-16 0)
(3 1.03492e-15 0)
(3 6.22622e-16 0)
(3 5.58098e-16 0)
(3 5.02995e-16 0)
(3 8.47097e-16 0)
(3 1.16679e-15 0)
(3 1.3779e-15 0)
(3 7.39817e-16 0)
(3 -7.50474e-17 0)
(3 -7.55253e-16 0)
(3 4.38235e-17 0)
(3 1.11698e-16 0)
(3 -2.40927e-16 0)
(3 -3.49926e-16 0)
(3 -4.56893e-16 0)
(3 -2.44698e-16 0)
(3 -5.25233e-16 0)
(3 -6.68402e-16 0)
(3 5.1648e-17 0)
(3 3.56099e-16 0)
(3 9.43692e-16 0)
(3 6.51157e-16 0)
(3 3.4008e-16 0)
(3 -5.82938e-17 0)
(3 4.75523e-16 0)
(3 7.0894e-16 0)
(3 7.89169e-16 0)
(3 7.15889e-16 0)
(3 1.5275e-16 0)
(3 -2.52822e-16 0)
(3 -4.60956e-16 0)
(3 2.18283e-16 0)
(3 1.40527e-15 0)
(3 9.25832e-16 0)
(3 5.24091e-16 0)
(3 -6.04055e-17 0)
(3 -2.63863e-16 0)
(3 5.91094e-16 0)
(3 9.01525e-16 0)
(3 6.84434e-16 0)
(3 4.63529e-16 0)
(3 -4.40688e-16 0)
(3 -1.64727e-15 0)
(3 -1.90146e-15 0)
(3 -1.63721e-15 0)
(3 -1.39037e-15 0)
(3 -4.6371e-16 0)
(3 5.03255e-17 0)
(3 -2.26119e-16 0)
(3 -1.66798e-15 0)
(3 -1.68017e-15 0)
(3 -1.54968e-15 0)
(3 -1.1155e-15 0)
(3 3.02205e-16 0)
(3 5.08861e-16 0)
(3 4.76956e-16 0)
(3 8.20125e-16 0)
(3 1.47399e-15 0)
(3 1.62062e-15 0)
(3 1.46668e-15 0)
(3 -2.9656e-16 0)
(3 -2.12439e-15 0)
(3 -2.93879e-15 0)
(3 -3.31728e-15 0)
(3 -1.63531e-15 0)
(3 4.45554e-16 0)
(3 1.00249e-15 0)
(3 -2.78175e-16 0)
(3 -9.74517e-16 0)
(3 -1.13136e-15 0)
(3 -7.90608e-16 0)
(3 -3.9195e-16 0)
(3 -4.75331e-16 0)
(3 -3.74641e-18 0)
(3 9.05626e-16 0)
(3 5.95446e-16 0)
(3 4.47048e-16 0)
(3 8.10675e-16 0)
(3 3.33106e-16 0)
(3 -2.47417e-16 0)
(3 -1.45108e-15 0)
(3 -7.37499e-16 0)
(3 1.41031e-15 0)
(3 2.57219e-15 0)
(3 3.79918e-15 0)
(3 1.18808e-15 0)
(3 -1.38755e-16 0)
(3 9.00138e-17 0)
(3 -8.93038e-17 0)
(3 -6.82594e-16 0)
(3 -4.64184e-16 0)
(3 4.56183e-16 0)
(3 9.84695e-16 0)
(3 1.79808e-15 0)
(3 1.83728e-15 0)
(3 6.77186e-16 0)
(3 -2.4339e-16 0)
(3 9.91058e-17 0)
(3 4.74937e-16 0)
(3 -1.20176e-17 0)
(3 -7.78405e-16 0)
(3 -1.11996e-15 0)
(3 -1.53999e-15 0)
(3 -9.15371e-16 0)
(3 -6.51333e-16 0)
(3 -8.02521e-16 0)
(3 -2.86317e-17 0)
(3 -1.2423e-16 0)
(3 -3.82207e-16 0)
(3 -5.60002e-16 0)
(3 -8.71017e-16 0)
(3 -8.59528e-16 0)
(3 -4.25473e-16 0)
(3 8.43052e-17 0)
(3 1.90179e-15 0)
(3 1.99939e-15 0)
(3 1.48023e-15 0)
(3 4.53352e-16 0)
(3 -2.31538e-16 0)
(3 -5.62525e-16 0)
(3 5.78689e-17 0)
(3 5.26277e-16 0)
(3 1.52216e-15 0)
(3 2.21569e-15 0)
(3 1.69217e-15 0)
(3 -2.55564e-17 0)
(3 -1.30685e-15 0)
(3 -5.36718e-16 0)
(3 -4.25847e-16 0)
(3 -4.22922e-16 0)
(3 -1.0621e-15 0)
(3 -1.41672e-15 0)
(3 -9.8378e-16 0)
(3 -5.09655e-16 0)
(3 2.64724e-17 0)
(3 -5.78124e-17 0)
(3 3.19789e-16 0)
(3 6.01191e-16 0)
(3 2.02913e-16 0)
(3 -5.17323e-16 0)
(3 -9.03461e-16 0)
(3 -8.08552e-17 0)
(3 -4.41341e-17 0)
(3 -8.95797e-16 0)
(3 -5.43691e-16 0)
(3 -4.32625e-17 0)
(3 6.95306e-16 0)
(3 7.50733e-16 0)
(3 7.10945e-16 0)
(3 9.21436e-16 0)
(3 6.81764e-16 0)
(3 9.17761e-16 0)
(3 8.23028e-16 0)
(3 4.26605e-16 0)
(3 6.97638e-16 0)
(3 5.55412e-16 0)
(3 -6.24252e-16 0)
(3 -2.27907e-15 0)
(3 -3.43569e-15 0)
(3 -2.21539e-15 0)
(3 -1.38128e-15 0)
(3 -3.70002e-16 0)
(3 7.73736e-17 0)
(3 -3.09132e-16 0)
(3 -9.3805e-16 0)
(3 -1.47745e-15 0)
(3 -1.21734e-15 0)
(3 -1.50401e-15 0)
(3 -1.33351e-15 0)
(3 -3.28822e-16 0)
(3 1.09952e-15 0)
(3 1.05378e-15 0)
(3 8.12701e-16 0)
(3 2.0891e-15 0)
(3 2.00056e-15 0)
(3 1.4942e-15 0)
(3 3.58625e-16 0)
(3 2.19917e-16 0)
(3 6.45878e-16 0)
(3 1.05809e-15 0)
(3 2.23896e-15 0)
(3 -5.76998e-16 0)
(3 -1.26204e-15 0)
(3 -1.67132e-15 0)
(3 -2.47808e-15 0)
(3 -3.245e-15 0)
(3 -3.051e-15 0)
(3 -5.87713e-16 0)
(3 5.79223e-16 0)
(3 1.51616e-15 0)
(3 8.49783e-16 0)
(3 -2.54119e-16 0)
(3 -3.68768e-16 0)
(3 -1.35688e-15 0)
(3 -5.03757e-16 0)
(3 3.3137e-16 0)
(3 -7.99914e-16 0)
(3 -2.22223e-15 0)
(3 -1.86632e-15 0)
(3 -9.21857e-16 0)
(3 -1.4593e-15 0)
(3 -2.03462e-15 0)
(3 -8.26474e-17 0)
(3 -2.64414e-17 0)
(3 -6.6876e-17 0)
(3 -2.77675e-16 0)
(3 -7.22199e-16 0)
(3 -1.53538e-15 0)
(3 -1.33142e-15 0)
(3 -7.57967e-16 0)
(3 2.3835e-16 0)
(3 6.7147e-16 0)
(3 -1.17534e-16 0)
(3 -7.47675e-16 0)
(3 -1.12572e-15 0)
(3 5.02419e-16 0)
(3 1.4548e-15 0)
(3 1.91961e-15 0)
(3 1.52359e-15 0)
(3 1.14356e-15 0)
(3 2.30591e-16 0)
(3 -8.11743e-16 0)
(3 -2.1435e-15 0)
(3 -1.90064e-15 0)
(3 -1.41928e-15 0)
(3 -1.62879e-15 0)
(3 -1.81566e-15 0)
(3 -1.97894e-15 0)
(3 -9.60952e-16 0)
(3 2.27282e-16 0)
(3 4.88082e-16 0)
(3 1.00268e-15 0)
(3 7.35016e-16 0)
(3 9.07957e-16 0)
(3 5.20513e-16 0)
(3 -1.84114e-17 0)
(3 -8.81998e-16 0)
(3 -5.97582e-16 0)
(3 -2.16633e-16 0)
(3 -7.8239e-16 0)
(3 -4.49098e-16 0)
(3 1.30215e-15 0)
(3 3.07109e-15 0)
(3 3.36167e-15 0)
(3 2.24975e-15 0)
(3 -2.37049e-16 0)
(3 -1.89821e-15 0)
(3 -2.07941e-15 0)
(3 -2.05137e-15 0)
(3 -1.55635e-15 0)
(3 -1.11733e-15 0)
(3 -1.02832e-15 0)
(3 -6.75397e-16 0)
(3 -1.07637e-15 0)
(3 -5.05333e-16 0)
(3 1.44515e-15 0)
(3 1.75394e-15 0)
(3 6.8094e-16 0)
(3 4.78816e-16 0)
(3 1.56844e-16 0)
(3 -2.33779e-16 0)
(3 -5.63309e-16 0)
(3 -3.78034e-16 0)
(3 -4.13884e-16 0)
(3 -3.23651e-16 0)
(3 -7.27367e-16 0)
(3 -2.29135e-16 0)
(3 1.30588e-15 0)
(3 1.40576e-15 0)
(3 1.58778e-15 0)
(3 2.27038e-15 0)
(3 2.57093e-15 0)
(3 3.74367e-15 0)
(3 1.24793e-15 0)
(3 -1.90059e-16 0)
(3 -1.4555e-15 0)
(3 -1.81587e-15 0)
(3 -2.02232e-15 0)
(3 -1.93872e-15 0)
(3 -1.8379e-15 0)
(3 -2.6234e-15 0)
(3 -2.90452e-15 0)
(3 -2.6282e-15 0)
(3 -1.30046e-15 0)
(3 -4.2674e-16 0)
(3 -3.53603e-16 0)
(3 -2.50793e-16 0)
(3 -1.50995e-16 0)
(3 -1.51304e-16 0)
(3 -5.58473e-16 0)
(3 -8.50821e-16 0)
(3 -6.17142e-16 0)
(3 -4.4188e-16 0)
(3 -5.88643e-16 0)
(3 -1.28332e-15 0)
(3 -1.6688e-15 0)
(3 -1.41417e-15 0)
(3 -1.69912e-15 0)
(3 -9.21249e-17 0)
(3 -1.75455e-16 0)
(3 5.0783e-17 0)
(3 -6.82513e-18 0)
(3 1.33515e-16 0)
(3 1.40287e-16 0)
(3 3.18626e-16 0)
(3 -1.24099e-16 0)
(3 -6.23964e-16 0)
(3 -1.03118e-15 0)
(3 -1.52654e-15 0)
(3 -1.29115e-15 0)
(3 -7.15958e-16 0)
(3 6.24873e-16 0)
(3 4.03693e-16 0)
(3 2.97289e-16 0)
(3 -5.73534e-16 0)
(3 -1.20747e-15 0)
(3 -1.19805e-15 0)
(3 -7.49471e-16 0)
(3 -1.02241e-15 0)
(3 -2.13899e-15 0)
(3 -2.53775e-15 0)
(3 -2.88029e-15 0)
(3 -1.39239e-15 0)
(3 -9.3426e-16 0)
(3 -7.57712e-16 0)
(3 2.01575e-16 0)
(3 2.7196e-16 0)
(3 1.3166e-15 0)
(3 1.73954e-15 0)
(3 1.25912e-15 0)
(3 4.82301e-16 0)
(3 2.14501e-17 0)
(3 -1.70693e-16 0)
(3 -6.74315e-16 0)
(3 -8.2523e-16 0)
(3 -7.1485e-16 0)
(3 -1.04041e-15 0)
(3 -3.29063e-16 0)
(3 6.58071e-16 0)
(3 1.26783e-15 0)
(3 3.48888e-16 0)
(3 -4.3358e-16 0)
(3 -4.99602e-16 0)
(3 -2.58848e-15 0)
(3 -3.41264e-15 0)
(3 -1.78925e-15 0)
(3 -1.22762e-16 0)
(3 3.34001e-16 0)
(3 9.32726e-16 0)
(3 1.70208e-15 0)
(3 3.76929e-15 0)
(3 4.71629e-15 0)
(3 4.12854e-15 0)
(3 2.57762e-15 0)
(3 1.56291e-15 0)
(3 8.97398e-16 0)
(3 8.68768e-16 0)
(3 6.9226e-16 0)
(3 1.09437e-15 0)
(3 1.12777e-15 0)
(3 -7.38775e-16 0)
(3 -1.58601e-15 0)
(3 -1.20877e-15 0)
(3 7.52889e-16 0)
(3 1.92821e-15 0)
(3 2.49102e-15 0)
(3 2.57837e-15 0)
(3 2.71344e-15 0)
(3 4.02139e-15 0)
(3 3.32456e-15 0)
(3 -1.16949e-15 0)
(3 -4.4883e-15 0)
(3 -6.70304e-15 0)
(3 -5.05965e-15 0)
(3 -2.85921e-15 0)
(3 -1.61374e-15 0)
(3 -1.43689e-15 0)
(3 -1.32553e-15 0)
(3 -7.88151e-16 0)
(3 -5.34769e-16 0)
(3 -2.687e-16 0)
(3 -1.31653e-16 0)
(3 -2.53597e-16 0)
(3 9.15156e-16 0)
(3 6.28535e-16 0)
(3 8.8272e-16 0)
(3 -8.74627e-16 0)
(3 -1.39193e-15 0)
(3 -5.14751e-16 0)
(3 4.18315e-16 0)
(3 -1.14477e-15 0)
(3 -1.22595e-15 0)
(3 1.08269e-15 0)
(3 1.90205e-15 0)
(3 -5.20479e-17 0)
(3 -2.6563e-16 0)
(3 -5.13651e-17 0)
(3 4.14657e-16 0)
(3 1.05361e-15 0)
(3 1.6587e-15 0)
(3 1.95998e-15 0)
(3 1.28952e-15 0)
(3 1.76401e-16 0)
(3 -8.63995e-16 0)
(3 -1.2029e-15 0)
(3 -5.87088e-16 0)
(3 3.5839e-16 0)
(3 -3.05218e-17 0)
(3 -3.55245e-16 0)
(3 -9.65663e-16 0)
(3 -1.09062e-15 0)
(3 -9.6104e-16 0)
(3 -9.04121e-16 0)
(3 -6.38752e-16 0)
(3 -2.4682e-16 0)
(3 -6.56994e-16 0)
(3 -1.41137e-15 0)
(3 -9.4193e-16 0)
(3 1.17222e-15 0)
(3 1.3788e-15 0)
(3 7.16889e-16 0)
(3 1.96992e-16 0)
(3 5.08487e-16 0)
(3 1.04089e-15 0)
(3 1.41774e-15 0)
(3 7.94948e-16 0)
(3 5.8672e-16 0)
(3 9.97233e-16 0)
(3 1.43748e-15 0)
(3 -1.77641e-17 0)
(3 -1.57437e-15 0)
(3 -1.54866e-15 0)
(3 -1.79005e-15 0)
(3 -1.7137e-15 0)
(3 -1.63057e-15 0)
(3 -1.58235e-15 0)
(3 -2.12446e-15 0)
(3 -9.97344e-16 0)
(3 -7.11764e-16 0)
(3 -1.04817e-15 0)
(3 -8.94855e-16 0)
(3 -3.61671e-16 0)
(3 7.0072e-16 0)
(3 8.08834e-16 0)
(3 1.46436e-15 0)
(3 2.72487e-15 0)
(3 3.50348e-15 0)
(3 3.91785e-15 0)
(3 2.35393e-15 0)
(3 1.86786e-15 0)
(3 1.31039e-15 0)
(3 1.18836e-15 0)
(3 1.82961e-15 0)
(3 2.14015e-15 0)
(3 2.34541e-15 0)
(3 8.79346e-16 0)
(3 -5.14885e-16 0)
(3 5.13569e-17 0)
(3 5.53111e-16 0)
(3 6.49973e-16 0)
(3 9.65254e-16 0)
(3 1.33002e-15 0)
(3 1.32983e-15 0)
(3 2.28328e-15 0)
(3 3.34415e-15 0)
(3 3.10374e-15 0)
(3 -1.39982e-15 0)
(3 -3.03554e-15 0)
(3 -4.11901e-15 0)
(3 -3.92867e-15 0)
(3 -3.02183e-15 0)
(3 -7.21579e-16 0)
(3 8.12412e-17 0)
(3 1.14842e-16 0)
(3 -3.11987e-16 0)
(3 8.76067e-17 0)
(3 -2.51636e-16 0)
(3 -1.55159e-15 0)
(3 -1.2446e-15 0)
(3 -1.65701e-15 0)
(3 -1.45742e-15 0)
(3 -1.66092e-15 0)
(3 -6.16848e-16 0)
(3 -3.72965e-16 0)
(3 -5.47792e-16 0)
(3 4.52329e-16 0)
(3 6.82451e-16 0)
(3 1.28723e-15 0)
(3 2.27271e-15 0)
(3 3.15192e-15 0)
(3 2.2662e-17 0)
(3 1.85866e-16 0)
(3 7.03761e-17 0)
(3 3.74499e-16 0)
(3 9.25527e-16 0)
(3 1.19929e-15 0)
(3 1.00816e-15 0)
(3 3.86777e-16 0)
(3 -2.99943e-17 0)
(3 -4.02971e-16 0)
(3 6.252e-16 0)
(3 1.37652e-15 0)
(3 1.25488e-15 0)
(3 4.14697e-16 0)
(3 -3.48878e-16 0)
(3 -5.06778e-16 0)
(3 -2.48252e-17 0)
(3 4.53731e-16 0)
(3 7.62653e-16 0)
(3 8.00212e-16 0)
(3 1.26508e-15 0)
(3 1.01253e-15 0)
(3 2.95567e-16 0)
(3 6.28625e-16 0)
(3 1.48396e-15 0)
(3 1.01433e-15 0)
(3 8.9935e-16 0)
(3 1.91376e-16 0)
(3 8.27426e-17 0)
(3 -7.14058e-17 0)
(3 -1.89619e-16 0)
(3 -3.46191e-16 0)
(3 -2.89985e-16 0)
(3 5.27291e-16 0)
(3 1.2182e-15 0)
(3 3.40244e-17 0)
(3 -2.35513e-15 0)
(3 -2.04233e-15 0)
(3 -1.48536e-15 0)
(3 -1.24431e-15 0)
(3 -1.49164e-15 0)
(3 -2.18904e-15 0)
(3 -3.35816e-15 0)
(3 -2.64212e-15 0)
(3 -1.41037e-15 0)
(3 -4.60637e-16 0)
(3 8.50057e-16 0)
(3 1.55355e-16 0)
(3 -3.05629e-16 0)
(3 -2.24072e-16 0)
(3 -3.23159e-16 0)
(3 1.07569e-15 0)
(3 1.65853e-15 0)
(3 1.37518e-15 0)
(3 2.76418e-15 0)
(3 3.19526e-15 0)
(3 3.58272e-15 0)
(3 3.27149e-15 0)
(3 2.80051e-15 0)
(3 2.37348e-15 0)
(3 1.59686e-15 0)
(3 4.23864e-16 0)
(3 7.6596e-16 0)
(3 2.04389e-15 0)
(3 2.56703e-15 0)
(3 1.55959e-15 0)
(3 -1.89448e-16 0)
(3 -2.66592e-16 0)
(3 9.14743e-16 0)
(3 2.38476e-15 0)
(3 2.99047e-15 0)
(3 3.11876e-15 0)
(3 -1.0622e-15 0)
(3 -3.17459e-15 0)
(3 -2.30604e-15 0)
(3 -1.49837e-15 0)
(3 -1.50914e-15 0)
(3 -9.76184e-16 0)
(3 -5.12574e-16 0)
(3 -1.34589e-15 0)
(3 -6.64282e-17 0)
(3 -2.90668e-16 0)
(3 -1.90369e-15 0)
(3 -3.61179e-15 0)
(3 -3.87471e-15 0)
(3 -3.38008e-15 0)
(3 -2.30437e-15 0)
(3 -1.98322e-15 0)
(3 -9.59441e-16 0)
(3 -7.01316e-16 0)
(3 6.47367e-16 0)
(3 9.24123e-16 0)
(3 1.97687e-15 0)
(3 2.43316e-15 0)
(3 3.09177e-15 0)
(3 3.73612e-15 0)
(3 9.25184e-17 0)
(3 1.61469e-16 0)
(3 4.99863e-16 0)
(3 6.12817e-16 0)
(3 4.85544e-16 0)
(3 -1.31656e-16 0)
(3 -6.29851e-16 0)
(3 -6.48167e-16 0)
(3 -3.77569e-16 0)
(3 1.36429e-17 0)
(3 5.28605e-16 0)
(3 8.31484e-16 0)
(3 5.57508e-16 0)
(3 -1.82267e-16 0)
(3 -7.74825e-16 0)
(3 3.1366e-16 0)
(3 9.03956e-16 0)
(3 1.02553e-15 0)
(3 1.17512e-15 0)
(3 1.33033e-15 0)
(3 2.14267e-15 0)
(3 2.48388e-15 0)
(3 2.04225e-15 0)
(3 9.97021e-16 0)
(3 -1.42248e-15 0)
(3 -1.99149e-15 0)
(3 -8.17895e-16 0)
(3 -7.73314e-16 0)
(3 -1.38627e-15 0)
(3 -1.00296e-15 0)
(3 -1.10247e-15 0)
(3 -1.37313e-15 0)
(3 -1.32088e-15 0)
(3 -1.15026e-15 0)
(3 -6.75843e-16 0)
(3 -1.76986e-15 0)
(3 -2.95828e-15 0)
(3 -2.56046e-15 0)
(3 -2.09291e-15 0)
(3 -1.82124e-15 0)
(3 -1.78233e-15 0)
(3 -2.66392e-15 0)
(3 -2.54862e-15 0)
(3 -1.65312e-15 0)
(3 -6.33694e-16 0)
(3 -1.21644e-16 0)
(3 1.00717e-16 0)
(3 3.10169e-16 0)
(3 -1.03971e-16 0)
(3 -4.76254e-16 0)
(3 -5.77109e-16 0)
(3 -3.56343e-16 0)
(3 3.91431e-16 0)
(3 8.03457e-16 0)
(3 3.35749e-15 0)
(3 4.34245e-15 0)
(3 4.46694e-15 0)
(3 4.18136e-15 0)
(3 3.12489e-15 0)
(3 2.97701e-15 0)
(3 2.42547e-15 0)
(3 1.88548e-15 0)
(3 1.86802e-15 0)
(3 1.68648e-15 0)
(3 1.1412e-15 0)
(3 8.84844e-17 0)
(3 3.41331e-16 0)
(3 8.37901e-16 0)
(3 2.64014e-15 0)
(3 3.37635e-15 0)
(3 3.48188e-15 0)
(3 2.96455e-15 0)
(3 1.15732e-16 0)
(3 -8.22681e-16 0)
(3 -5.35588e-16 0)
(3 -2.23647e-16 0)
(3 -2.87918e-16 0)
(3 -8.63447e-16 0)
(3 -1.1122e-15 0)
(3 -2.24653e-15 0)
(3 -1.24958e-15 0)
(3 -4.67837e-16 0)
(3 -2.68499e-16 0)
(3 -2.48914e-15 0)
(3 -3.16116e-15 0)
(3 -2.52151e-15 0)
(3 -7.72351e-16 0)
(3 1.45881e-15 0)
(3 1.82188e-15 0)
(3 1.05417e-15 0)
(3 5.1561e-16 0)
(3 -8.65512e-16 0)
(3 7.84295e-16 0)
(3 1.49146e-15 0)
(3 2.55525e-15 0)
(3 4.31563e-15 0)
(3 2.5228e-17 0)
(3 -4.0763e-16 0)
(3 1.59133e-16 0)
(3 6.91991e-16 0)
(3 2.8552e-16 0)
(3 -6.42145e-16 0)
(3 -8.55749e-16 0)
(3 -1.03025e-15 0)
(3 -8.27574e-16 0)
(3 -6.85773e-16 0)
(3 -5.20468e-16 0)
(3 -3.54008e-16 0)
(3 -3.59797e-16 0)
(3 -1.03766e-15 0)
(3 -1.57844e-16 0)
(3 1.0291e-15 0)
(3 1.35496e-15 0)
(3 1.73516e-15 0)
(3 2.13421e-15 0)
(3 2.4803e-15 0)
(3 2.83034e-15 0)
(3 3.65004e-15 0)
(3 2.41909e-15 0)
(3 1.65333e-15 0)
(3 7.8797e-16 0)
(3 -1.90775e-16 0)
(3 -1.34651e-15 0)
(3 -1.2971e-15 0)
(3 -5.9082e-16 0)
(3 -1.29704e-15 0)
(3 -1.59754e-15 0)
(3 -1.3711e-15 0)
(3 -9.84351e-16 0)
(3 -1.20627e-15 0)
(3 -1.27644e-15 0)
(3 -1.34725e-15 0)
(3 -1.77926e-15 0)
(3 -1.97097e-15 0)
(3 -2.26052e-15 0)
(3 -2.35695e-15 0)
(3 -2.27311e-15 0)
(3 -2.2304e-15 0)
(3 -4.73651e-16 0)
(3 6.49775e-16 0)
(3 5.38507e-16 0)
(3 2.58807e-16 0)
(3 5.76928e-17 0)
(3 1.23055e-16 0)
(3 4.6482e-16 0)
(3 5.43004e-16 0)
(3 6.19194e-16 0)
(3 1.26246e-15 0)
(3 1.31426e-15 0)
(3 7.54146e-16 0)
(3 1.26465e-15 0)
(3 2.37434e-15 0)
(3 3.19509e-15 0)
(3 3.717e-15 0)
(3 3.75565e-15 0)