/*--------------------------------*- C++ -*----------------------------------*\
  =========                 |
  \\      /  F ield         | OpenFOAM: The Open Source CFD Toolbox
   \\    /   O peration     | Website:  https://openfoam.org
    \\  /    A nd           | Version:  7
     \\/     M anipulation  |
\*---------------------------------------------------------------------------*/
FoamFile
{
    version     2.0;
    format      ascii;
    class       volVectorField;
    location    "0.1";
    object      U;
}
// * * * * * * * * * * * * * * * * * * * * * * * * * * * * * * * * * * * * * //

dimensions      [0 1 -1 0 0 0 0];

internalField   nonuniform List<vector> 
73728
(
(3 -1.33049e-17 0)
(3 6.21696e-17 0)
(3 -4.50165e-17 0)
(3 -2.79818e-16 0)
(3 -2.11128e-16 0)
(3 -1.41146e-16 0)
(3 -1.14144e-18 0)
(3 -4.7234e-16 0)
(3 -6.18053e-16 0)
(3 -8.59142e-16 0)
(3 -1.19231e-15 0)
(3 -1.17316e-15 0)
(3 -6.42325e-16 0)
(3 -5.91079e-16 0)
(3 -4.79051e-16 0)
(3 -8.676e-16 0)
(3 -8.22524e-16 0)
(3 -5.13128e-16 0)
(3 -1.13876e-18 0)
(3 -4.92539e-16 0)
(3 -9.31848e-16 0)
(3 4.85109e-16 0)
(3 2.15957e-15 0)
(3 2.23787e-15 0)
(3 2.03237e-15 0)
(3 -9.39908e-17 0)
(3 -3.53737e-16 0)
(3 -4.43969e-16 0)
(3 -1.2998e-15 0)
(3 -8.29341e-16 0)
(3 -6.53314e-16 0)
(3 5.59708e-16 0)
(3 1.12144e-15 0)
(3 1.0346e-15 0)
(3 9.12968e-16 0)
(3 1.3826e-15 0)
(3 1.28215e-15 0)
(3 5.78996e-16 0)
(3 3.13811e-16 0)
(3 5.25683e-16 0)
(3 6.71775e-16 0)
(3 4.62178e-16 0)
(3 2.52298e-16 0)
(3 5.92726e-16 0)
(3 1.07072e-15 0)
(3 7.60442e-16 0)
(3 9.89033e-17 0)
(3 -3.20052e-16 0)
(3 -3.65767e-16 0)
(3 -5.64111e-16 0)
(3 1.5753e-16 0)
(3 2.30876e-16 0)
(3 4.53904e-16 0)
(3 4.05529e-16 0)
(3 3.86674e-16 0)
(3 4.59761e-16 0)
(3 7.2132e-16 0)
(3 1.52684e-15 0)
(3 2.80082e-15 0)
(3 3.28426e-15 0)
(3 2.4958e-15 0)
(3 2.25296e-15 0)
(3 1.75366e-15 0)
(3 9.76841e-16 0)
(3 5.566e-16 0)
(3 2.19391e-16 0)
(3 -1.75633e-15 0)
(3 -2.7789e-15 0)
(3 -2.26103e-15 0)
(3 -4.3811e-16 0)
(3 2.38734e-16 0)
(3 4.47188e-16 0)
(3 1.95034e-15 0)
(3 2.10234e-15 0)
(3 1.38867e-15 0)
(3 -3.97657e-17 0)
(3 6.1977e-17 0)
(3 4.6879e-16 0)
(3 1.32255e-15 0)
(3 1.03577e-15 0)
(3 -3.09581e-16 0)
(3 -6.52725e-16 0)
(3 -5.44555e-16 0)
(3 -8.21347e-16 0)
(3 -3.69837e-16 0)
(3 4.49904e-16 0)
(3 4.17999e-16 0)
(3 5.46817e-16 0)
(3 6.87979e-16 0)
(3 9.73523e-16 0)
(3 9.7867e-16 0)
(3 8.94144e-16 0)
(3 6.65159e-16 0)
(3 1.30437e-16 0)
(3 -8.44353e-16 0)
(3 -1.2695e-15 0)
(3 -7.69192e-17 0)
(3 4.35811e-16 0)
(3 -6.28485e-17 0)
(3 -1.67111e-16 0)
(3 7.86215e-17 0)
(3 1.25109e-16 0)
(3 -2.45588e-16 0)
(3 -9.33149e-16 0)
(3 -6.1751e-16 0)
(3 1.67629e-17 0)
(3 3.34588e-16 0)
(3 3.04118e-17 0)
(3 2.69319e-16 0)
(3 -2.21528e-16 0)
(3 -8.10702e-16 0)
(3 -1.73079e-15 0)
(3 -2.30149e-15 0)
(3 -2.17654e-15 0)
(3 -5.73781e-16 0)
(3 -8.59449e-16 0)
(3 -9.89525e-16 0)
(3 1.35481e-15 0)
(3 2.88876e-15 0)
(3 2.67954e-15 0)
(3 2.36926e-15 0)
(3 -7.74458e-17 0)
(3 -8.35805e-16 0)
(3 -1.21784e-15 0)
(3 -9.15734e-16 0)
(3 -8.98225e-16 0)
(3 -1.0852e-15 0)
(3 1.20376e-15 0)
(3 3.58671e-15 0)
(3 3.58188e-15 0)
(3 2.98519e-15 0)
(3 1.39887e-15 0)
(3 1.35389e-15 0)
(3 9.92152e-16 0)
(3 7.93393e-16 0)
(3 8.68345e-16 0)
(3 9.78413e-16 0)
(3 9.2542e-16 0)
(3 6.64013e-16 0)
(3 7.70733e-16 0)
(3 2.56245e-16 0)
(3 -4.80568e-16 0)
(3 -1.64393e-15 0)
(3 -1.65747e-15 0)
(3 -6.41359e-16 0)
(3 -1.19061e-15 0)
(3 2.31031e-16 0)
(3 1.01026e-15 0)
(3 1.74978e-15 0)
(3 2.1089e-15 0)
(3 1.5023e-15 0)
(3 6.96595e-16 0)
(3 1.27148e-15 0)
(3 2.45576e-15 0)
(3 3.40547e-15 0)
(3 3.64105e-15 0)
(3 2.46472e-15 0)
(3 -4.37036e-16 0)
(3 -9.954e-16 0)
(3 -9.73861e-17 0)
(3 -2.98212e-16 0)
(3 -4.28516e-16 0)
(3 -2.55975e-15 0)
(3 -3.94712e-15 0)
(3 -3.90126e-15 0)
(3 -2.26034e-15 0)
(3 -3.57521e-16 0)
(3 1.49155e-15 0)
(3 1.84153e-15 0)
(3 1.70066e-15 0)
(3 1.19873e-15 0)
(3 6.38047e-16 0)
(3 8.54302e-16 0)
(3 1.86692e-15 0)
(3 3.42574e-15 0)
(3 3.42038e-15 0)
(3 2.27556e-15 0)
(3 1.03722e-15 0)
(3 1.2867e-16 0)
(3 -1.00358e-16 0)
(3 2.21992e-16 0)
(3 8.99643e-16 0)
(3 1.9723e-15 0)
(3 2.87061e-15 0)
(3 2.47125e-15 0)
(3 1.45007e-15 0)
(3 -1.28317e-16 0)
(3 -3.46242e-16 0)
(3 -1.0602e-15 0)
(3 -2.19396e-15 0)
(3 -2.93308e-15 0)
(3 -3.95474e-15 0)
(3 -1.04571e-17 0)
(3 1.19096e-16 0)
(3 -2.59675e-16 0)
(3 -5.6146e-17 0)
(3 4.20666e-16 0)
(3 1.2512e-16 0)
(3 -6.01268e-16 0)
(3 -6.73376e-16 0)
(3 -2.09214e-16 0)
(3 7.39307e-17 0)
(3 9.83513e-16 0)
(3 1.25482e-15 0)
(3 1.44167e-15 0)
(3 1.07632e-15 0)
(3 1.33039e-15 0)
(3 1.263e-15 0)
(3 -1.56302e-16 0)
(3 -3.02092e-16 0)
(3 -5.29459e-16 0)
(3 -8.89133e-16 0)
(3 -9.5499e-16 0)
(3 -8.9464e-16 0)
(3 -2.31284e-16 0)
(3 -1.97184e-16 0)
(3 4.14893e-17 0)
(3 -4.53446e-16 0)
(3 -1.15142e-15 0)
(3 -8.6293e-16 0)
(3 -4.7536e-16 0)
(3 -8.48566e-16 0)
(3 -1.58125e-15 0)
(3 -1.55763e-15 0)
(3 -1.06987e-15 0)
(3 3.98742e-16 0)
(3 5.82344e-16 0)
(3 5.34516e-16 0)
(3 9.37756e-16 0)
(3 1.19243e-15 0)
(3 1.43582e-15 0)
(3 1.48632e-15 0)
(3 1.36002e-15 0)
(3 1.06193e-15 0)
(3 4.83322e-16 0)
(3 -7.40741e-17 0)
(3 -2.81936e-15 0)
(3 -4.18172e-15 0)
(3 -3.85343e-15 0)
(3 -3.25152e-15 0)
(3 -1.80751e-15 0)
(3 -1.5936e-15 0)
(3 7.78407e-16 0)
(3 2.39129e-15 0)
(3 3.96734e-15 0)
(3 4.27261e-15 0)
(3 3.87382e-15 0)
(3 1.75326e-15 0)
(3 4.4675e-16 0)
(3 1.80155e-15 0)
(3 8.31609e-16 0)
(3 3.66556e-16 0)
(3 -1.15866e-15 0)
(3 -2.06195e-15 0)
(3 -2.34516e-15 0)
(3 -1.78154e-15 0)
(3 -1.5851e-15 0)
(3 -1.47293e-15 0)
(3 -1.47601e-15 0)
(3 -2.41867e-15 0)
(3 -3.16724e-15 0)
(3 -3.11506e-15 0)
(3 -2.46838e-15 0)
(3 -1.54e-15 0)
(3 -9.38982e-16 0)
(3 -5.06989e-16 0)
(3 -2.49208e-16 0)
(3 7.89695e-16 0)
(3 8.81257e-16 0)
(3 1.53701e-15 0)
(3 2.43178e-15 0)
(3 3.92351e-15 0)
(3 5.32026e-15 0)
(3 4.97721e-15 0)
(3 3.35505e-15 0)
(3 2.42205e-15 0)
(3 2.59228e-15 0)
(3 2.4262e-15 0)
(3 2.65522e-15 0)
(3 2.12414e-15 0)
(3 2.25781e-15 0)
(3 1.62122e-15 0)
(3 1.23648e-15 0)
(3 5.58042e-16 0)
(3 -1.81828e-16 0)
(3 -1.46007e-16 0)
(3 1.40325e-16 0)
(3 -1.77332e-15 0)
(3 4.05108e-16 0)
(3 4.86406e-16 0)
(3 1.07499e-15 0)
(3 1.36242e-16 0)
(3 -2.81206e-16 0)
(3 -7.56066e-16 0)
(3 -4.08258e-16 0)
(3 -4.12214e-16 0)
(3 -5.81024e-16 0)
(3 -1.13708e-15 0)
(3 -1.23855e-15 0)
(3 -1.2353e-16 0)
(3 7.05632e-16 0)
(3 7.40879e-16 0)
(3 1.04625e-15 0)
(3 1.79436e-15 0)
(3 2.48145e-15 0)
(3 1.17417e-15 0)
(3 -2.35484e-16 0)
(3 -1.10604e-15 0)
(3 -1.6519e-15 0)
(3 -2.06912e-15 0)
(3 -2.44764e-15 0)
(3 -2.38669e-15 0)
(3 -1.87411e-15 0)
(3 -2.91884e-16 0)
(3 -1.20968e-16 0)
(3 -1.93257e-17 0)
(3 -2.19161e-16 0)
(3 -5.51613e-16 0)
(3 -6.8188e-16 0)
(3 -3.12459e-15 0)
(3 -4.08617e-15 0)
(3 -4.27583e-15 0)
(3 -4.00651e-15 0)
(3 -2.83344e-15 0)
(3 -8.33276e-16 0)
(3 1.26917e-15 0)
(3 2.22117e-15 0)
(3 2.12468e-15 0)
(3 1.77963e-15 0)
(3 1.26601e-15 0)
(3 7.28864e-16 0)
(3 -3.00405e-16 0)
(3 -1.60467e-15 0)
(3 -2.28288e-15 0)
(3 -2.08837e-15 0)
(3 -1.6282e-15 0)
(3 -1.34569e-15 0)
(3 -1.04095e-15 0)
(3 2.68013e-16 0)
(3 9.86959e-16 0)
(3 3.36179e-15 0)
(3 3.72291e-15 0)
(3 2.91447e-15 0)
(3 1.03914e-15 0)
(3 -2.8285e-16 0)
(3 -4.52105e-16 0)
(3 -7.29985e-16 0)
(3 -2.54628e-15 0)
(3 -4.38368e-15 0)
(3 -3.9603e-15 0)
(3 -3.59236e-15 0)
(3 -3.82715e-15 0)
(3 -3.84429e-15 0)
(3 -3.33308e-15 0)
(3 -2.27385e-15 0)
(3 -1.61495e-15 0)
(3 -1.91913e-15 0)
(3 -1.77659e-15 0)
(3 -1.8887e-15 0)
(3 -1.99424e-15 0)
(3 -1.96143e-15 0)
(3 -1.51626e-15 0)
(3 -4.42471e-16 0)
(3 2.65711e-16 0)
(3 8.37506e-16 0)
(3 1.48781e-15 0)
(3 1.27806e-15 0)
(3 2.21119e-15 0)
(3 4.05039e-15 0)
(3 4.75209e-15 0)
(3 5.24815e-15 0)
(3 4.4571e-15 0)
(3 3.4122e-15 0)
(3 2.98725e-15 0)
(3 2.67725e-15 0)
(3 2.16626e-15 0)
(3 1.68769e-15 0)
(3 4.31441e-16 0)
(3 -2.50886e-16 0)
(3 -7.67122e-16 0)
(3 -7.4786e-16 0)
(3 -1.12964e-15 0)
(3 -1.6235e-15 0)
(3 -2.56313e-15 0)
(3 2.19135e-16 0)
(3 8.20514e-16 0)
(3 8.1126e-16 0)
(3 3.40819e-16 0)
(3 1.09575e-17 0)
(3 1.36315e-16 0)
(3 -3.732e-17 0)
(3 -2.01863e-16 0)
(3 -8.70701e-16 0)
(3 -1.13022e-15 0)
(3 -1.24279e-15 0)
(3 -1.06666e-15 0)
(3 -8.63421e-16 0)
(3 -4.96203e-16 0)
(3 5.4483e-16 0)
(3 1.32743e-15 0)
(3 1.61717e-15 0)
(3 1.67024e-15 0)
(3 2.22164e-15 0)
(3 1.27934e-15 0)
(3 1.05144e-15 0)
(3 6.16896e-16 0)
(3 4.71417e-16 0)
(3 3.46705e-16 0)
(3 8.335e-17 0)
(3 -3.41218e-16 0)
(3 -1.94788e-16 0)
(3 -6.00126e-16 0)
(3 -1.41299e-15 0)
(3 -2.1428e-15 0)
(3 -1.99867e-15 0)
(3 -3.02451e-15 0)
(3 -1.86199e-15 0)
(3 3.82075e-17 0)
(3 1.13622e-15 0)
(3 1.08196e-15 0)
(3 1.55389e-15 0)
(3 1.73175e-15 0)
(3 1.77205e-15 0)
(3 1.52099e-15 0)
(3 1.65308e-15 0)
(3 1.67421e-15 0)
(3 1.381e-15 0)
(3 9.90462e-16 0)
(3 1.39053e-15 0)
(3 8.06631e-16 0)
(3 4.3279e-16 0)
(3 1.6071e-16 0)
(3 -2.73026e-16 0)
(3 1.84589e-16 0)
(3 4.35531e-16 0)
(3 6.47229e-16 0)
(3 1.19511e-15 0)
(3 6.86216e-16 0)
(3 2.2468e-16 0)
(3 -4.95855e-16 0)
(3 -1.6659e-15 0)
(3 -2.71802e-15 0)
(3 -3.35852e-15 0)
(3 -3.24454e-15 0)
(3 -3.04368e-15 0)
(3 -2.47248e-15 0)
(3 -2.41804e-15 0)
(3 -2.55334e-15 0)
(3 -2.39324e-15 0)
(3 -2.41023e-15 0)
(3 -2.63457e-15 0)
(3 -2.88774e-15 0)
(3 -2.4429e-15 0)
(3 -1.48398e-15 0)
(3 -1.34206e-16 0)
(3 -9.06678e-17 0)
(3 3.68654e-16 0)
(3 -2.82921e-16 0)
(3 -1.41881e-16 0)
(3 2.06545e-16 0)
(3 7.00084e-16 0)
(3 1.0367e-15 0)
(3 8.06187e-16 0)
(3 9.21818e-16 0)
(3 1.01839e-15 0)
(3 1.95748e-15 0)
(3 2.97528e-15 0)
(3 3.30691e-15 0)
(3 3.21486e-15 0)
(3 2.04718e-15 0)
(3 1.52342e-15 0)
(3 1.35695e-15 0)
(3 -5.08748e-16 0)
(3 -1.2322e-15 0)
(3 -1.65925e-15 0)
(3 -1.96577e-15 0)
(3 -1.36149e-15 0)
(3 -1.63562e-15 0)
(3 -2.304e-15 0)
(3 -2.65343e-15 0)
(3 -1.5025e-16 0)
(3 -2.19085e-16 0)
(3 -5.51835e-17 0)
(3 1.19164e-16 0)
(3 7.40546e-16 0)
(3 4.78296e-16 0)
(3 4.70257e-17 0)
(3 -1.0879e-15 0)
(3 -1.71644e-15 0)
(3 -1.59981e-15 0)
(3 -1.89178e-15 0)
(3 -1.87214e-15 0)
(3 -1.87308e-15 0)
(3 -1.09225e-15 0)
(3 -1.07914e-15 0)
(3 7.1531e-17 0)
(3 5.33097e-16 0)
(3 1.47332e-15 0)
(3 1.9203e-15 0)
(3 2.33489e-15 0)
(3 1.31711e-15 0)
(3 8.60461e-16 0)
(3 9.39965e-16 0)
(3 1.33267e-15 0)
(3 1.58936e-15 0)
(3 1.28204e-15 0)
(3 3.46217e-16 0)
(3 -1.01673e-15 0)
(3 -1.50045e-15 0)
(3 -2.11118e-15 0)
(3 -9.56057e-16 0)
(3 -1.90962e-16 0)
(3 4.34181e-16 0)
(3 6.98854e-16 0)
(3 6.85073e-16 0)
(3 7.02768e-16 0)
(3 1.06101e-15 0)
(3 1.15514e-15 0)
(3 5.53157e-16 0)
(3 9.69018e-16 0)
(3 1.10736e-15 0)
(3 1.18592e-15 0)
(3 1.2611e-15 0)
(3 1.54182e-15 0)
(3 1.49273e-15 0)
(3 1.3383e-15 0)
(3 1.6693e-16 0)
(3 -4.1404e-16 0)
(3 -8.00825e-16 0)
(3 -5.80064e-16 0)
(3 -1.49892e-15 0)
(3 -1.74014e-15 0)
(3 -1.40639e-15 0)
(3 -2.69144e-15 0)
(3 -2.45748e-15 0)
(3 -2.44919e-15 0)
(3 -2.566e-15 0)
(3 -2.37744e-15 0)
(3 -4.02835e-15 0)
(3 -3.31957e-15 0)
(3 -2.73168e-15 0)
(3 -2.33611e-15 0)
(3 -2.26982e-15 0)
(3 -1.99215e-15 0)
(3 -2.19585e-15 0)
(3 -2.38681e-15 0)
(3 -3.17303e-15 0)
(3 -3.60811e-15 0)
(3 -3.31655e-15 0)
(3 -3.09035e-15 0)
(3 -1.67789e-15 0)
(3 7.33382e-16 0)
(3 1.91514e-15 0)
(3 1.54891e-15 0)
(3 9.26242e-16 0)
(3 1.96848e-16 0)
(3 -3.55323e-16 0)
(3 -9.12952e-16 0)
(3 -7.82807e-16 0)
(3 -1.49015e-15 0)
(3 -2.04828e-15 0)
(3 -1.64438e-15 0)
(3 -8.51789e-16 0)
(3 -2.24287e-16 0)
(3 -3.35696e-16 0)
(3 -5.78073e-16 0)
(3 -1.7826e-15 0)
(3 -2.46441e-15 0)
(3 -3.30526e-15 0)
(3 -2.17132e-15 0)
(3 -4.43177e-16 0)
(3 1.01062e-15 0)
(3 8.59946e-16 0)
(3 4.11007e-16 0)
(3 -1.29015e-15 0)
(3 -1.25681e-15 0)
(3 -3.36332e-16 0)
(3 1.93008e-16 0)
(3 3.43635e-16 0)
(3 1.12297e-15 0)
(3 6.50032e-16 0)
(3 6.75092e-16 0)
(3 7.29891e-16 0)
(3 -2.23956e-16 0)
(3 2.69668e-16 0)
(3 1.00633e-16 0)
(3 3.06367e-16 0)
(3 -3.57918e-16 0)
(3 -6.56886e-16 0)
(3 -1.45021e-15 0)
(3 -2.29843e-15 0)
(3 -2.62343e-15 0)
(3 -1.68275e-15 0)
(3 -1.32342e-15 0)
(3 -4.71887e-16 0)
(3 -3.82584e-17 0)
(3 2.57596e-16 0)
(3 6.18449e-16 0)
(3 9.92551e-16 0)
(3 1.83302e-15 0)
(3 2.53304e-15 0)
(3 2.85435e-15 0)
(3 1.93674e-15 0)
(3 1.65151e-15 0)
(3 1.39612e-15 0)
(3 2.05239e-15 0)
(3 2.01669e-15 0)
(3 1.96483e-15 0)
(3 1.04746e-15 0)
(3 -7.3791e-16 0)
(3 -8.05672e-16 0)
(3 -1.11684e-16 0)
(3 4.19132e-16 0)
(3 7.33223e-16 0)
(3 1.14764e-15 0)
(3 1.67702e-15 0)
(3 1.46861e-15 0)
(3 1.03575e-15 0)
(3 1.04387e-15 0)
(3 1.31924e-15 0)
(3 7.46459e-16 0)
(3 2.03149e-16 0)
(3 -1.18661e-15 0)
(3 -1.74922e-15 0)
(3 -1.97187e-15 0)
(3 -2.49154e-15 0)
(3 -3.25463e-15 0)
(3 -4.29842e-15 0)
(3 -5.2613e-15 0)
(3 -5.00829e-15 0)
(3 -4.83289e-15 0)
(3 -4.45713e-15 0)
(3 -2.89209e-15 0)
(3 -1.99183e-15 0)
(3 -8.04929e-16 0)
(3 -2.46261e-16 0)
(3 -5.74969e-16 0)
(3 -7.15293e-17 0)
(3 8.13014e-17 0)
(3 1.25733e-16 0)
(3 3.18429e-17 0)
(3 -3.0104e-16 0)
(3 -5.70069e-16 0)
(3 -6.65237e-16 0)
(3 -8.22056e-16 0)
(3 -8.16232e-16 0)
(3 -1.1836e-15 0)
(3 -5.18881e-16 0)
(3 -8.06124e-16 0)
(3 -4.25074e-16 0)
(3 -6.71373e-16 0)
(3 -1.64035e-15 0)
(3 -1.95173e-15 0)
(3 -2.33963e-15 0)
(3 -2.23156e-15 0)
(3 -1.64313e-15 0)
(3 -1.36052e-15 0)
(3 -1.49699e-15 0)
(3 -1.51193e-15 0)
(3 -1.88494e-15 0)
(3 -2.1808e-15 0)
(3 -2.17231e-15 0)
(3 -2.53521e-15 0)
(3 -3.32813e-15 0)
(3 -2.68226e-15 0)
(3 -1.79014e-15 0)
(3 -1.88568e-16 0)
(3 9.1717e-16 0)
(3 1.51905e-15 0)
(3 1.65424e-15 0)
(3 1.92365e-15 0)
(3 9.84332e-16 0)
(3 -1.12999e-16 0)
(3 1.7066e-16 0)
(3 3.1398e-16 0)
(3 2.75692e-16 0)
(3 -5.50297e-17 0)
(3 1.50802e-16 0)
(3 5.96942e-16 0)
(3 1.39693e-15 0)
(3 2.05797e-15 0)
(3 1.77861e-15 0)
(3 1.50341e-15 0)
(3 4.62297e-16 0)
(3 -6.56843e-16 0)
(3 -9.43752e-16 0)
(3 -1.08243e-15 0)
(3 -1.02271e-15 0)
(3 -7.92722e-16 0)
(3 -6.30948e-17 0)
(3 5.6544e-16 0)
(3 -6.96785e-16 0)
(3 -1.71207e-17 0)
(3 9.83136e-16 0)
(3 1.55251e-15 0)
(3 2.58782e-15 0)
(3 3.08739e-15 0)
(3 2.69888e-15 0)
(3 3.0418e-15 0)
(3 3.99856e-15 0)
(3 4.64821e-15 0)
(3 3.64047e-15 0)
(3 2.00435e-15 0)
(3 3.38051e-16 0)
(3 -4.33523e-16 0)
(3 8.97124e-18 0)
(3 3.79767e-16 0)
(3 7.61558e-16 0)
(3 6.84878e-16 0)
(3 -3.95205e-16 0)
(3 3.61458e-17 0)
(3 -3.73999e-16 0)
(3 -4.01772e-16 0)
(3 -3.55885e-16 0)
(3 2.78577e-16 0)
(3 5.03974e-16 0)
(3 7.67455e-16 0)
(3 1.34265e-15 0)
(3 7.91663e-16 0)
(3 4.35867e-16 0)
(3 1.14928e-16 0)
(3 -8.03654e-16 0)
(3 -8.27097e-16 0)
(3 -2.12474e-15 0)
(3 -4.07529e-15 0)
(3 -4.66967e-15 0)
(3 -4.18844e-15 0)
(3 -3.44016e-15 0)
(3 -2.56171e-15 0)
(3 -2.02957e-15 0)
(3 -8.50505e-16 0)
(3 -3.73561e-18 0)
(3 1.25481e-15 0)
(3 1.75799e-15 0)
(3 1.96228e-15 0)
(3 6.8551e-16 0)
(3 8.36311e-16 0)
(3 1.01299e-15 0)
(3 1.19435e-15 0)
(3 2.36302e-15 0)
(3 2.05931e-15 0)
(3 1.72111e-15 0)
(3 9.7601e-16 0)
(3 3.01078e-16 0)
(3 -8.87407e-16 0)
(3 -1.65633e-15 0)
(3 -1.68682e-15 0)
(3 -1.65441e-15 0)
(3 -1.42534e-15 0)
(3 -9.31214e-16 0)
(3 -3.61231e-17 0)
(3 9.59562e-16 0)
(3 1.21082e-15 0)
(3 1.06774e-15 0)
(3 8.2037e-16 0)
(3 1.92827e-16 0)
(3 -4.27425e-17 0)
(3 -2.86266e-16 0)
(3 -6.86151e-16 0)
(3 -5.2924e-16 0)
(3 -4.43249e-17 0)
(3 4.09416e-16 0)
(3 2.00972e-16 0)
(3 2.80525e-16 0)
(3 1.3614e-15 0)
(3 3.10446e-15 0)
(3 4.75017e-15 0)
(3 4.42145e-15 0)
(3 7.33579e-17 0)
(3 -3.50745e-16 0)
(3 -6.63765e-16 0)
(3 -1.31295e-15 0)
(3 -7.36475e-16 0)
(3 -7.1479e-16 0)
(3 8.77088e-17 0)
(3 5.7661e-16 0)
(3 7.9828e-16 0)
(3 9.18944e-16 0)
(3 7.54669e-16 0)
(3 1.55928e-16 0)
(3 -1.59847e-16 0)
(3 -2.28238e-16 0)
(3 2.05098e-16 0)
(3 7.69016e-16 0)
(3 1.49492e-15 0)
(3 1.19137e-15 0)
(3 8.3327e-16 0)
(3 -3.61335e-16 0)
(3 -4.07346e-16 0)
(3 -4.26857e-16 0)
(3 3.15438e-16 0)
(3 5.73336e-16 0)
(3 9.32937e-16 0)
(3 1.62381e-15 0)
(3 3.6955e-15 0)
(3 5.2915e-15 0)
(3 4.56872e-15 0)
(3 3.83591e-15 0)
(3 2.20999e-15 0)
(3 1.55839e-15 0)
(3 1.84432e-15 0)
(3 2.41613e-15 0)
(3 2.0582e-15 0)
(3 1.24909e-15 0)
(3 -1.11757e-16 0)
(3 -3.02625e-16 0)
(3 -1.1532e-15 0)
(3 -1.51136e-15 0)
(3 -1.60487e-15 0)
(3 -1.01153e-15 0)
(3 -9.16291e-16 0)
(3 -7.35953e-16 0)
(3 -4.71239e-16 0)
(3 2.21645e-16 0)
(3 1.60541e-15 0)
(3 1.54156e-15 0)
(3 4.67349e-16 0)
(3 4.19732e-17 0)
(3 2.71452e-16 0)
(3 -7.49515e-17 0)
(3 -1.19787e-15 0)
(3 -1.67496e-15 0)
(3 -1.96854e-15 0)
(3 -1.71881e-15 0)
(3 -2.00683e-15 0)
(3 -1.75864e-15 0)
(3 -6.01276e-16 0)
(3 5.85177e-16 0)
(3 1.69026e-15 0)
(3 1.64609e-15 0)
(3 1.78377e-15 0)
(3 -1.6127e-16 0)
(3 -2.00069e-16 0)
(3 -2.88756e-17 0)
(3 1.6551e-15 0)
(3 2.9074e-15 0)
(3 3.18563e-15 0)
(3 2.02225e-15 0)
(3 -2.02079e-16 0)
(3 -4.52739e-16 0)
(3 -7.17145e-16 0)
(3 -4.40504e-16 0)
(3 1.83813e-16 0)
(3 9.11655e-16 0)
(3 6.96611e-16 0)
(3 1.06521e-15 0)
(3 1.11867e-15 0)
(3 9.9162e-16 0)
(3 1.41924e-15 0)
(3 6.43966e-16 0)
(3 -2.03425e-16 0)
(3 -2.19963e-16 0)
(3 -2.30665e-16 0)
(3 -3.48235e-17 0)
(3 6.00291e-16 0)
(3 1.29461e-15 0)
(3 2.01025e-15 0)
(3 1.62942e-15 0)
(3 1.66668e-15 0)
(3 2.17264e-15 0)
(3 2.08382e-15 0)
(3 3.46861e-15 0)
(3 4.47045e-15 0)
(3 6.5523e-15 0)
(3 6.07798e-16 0)
(3 4.61464e-16 0)
(3 7.03966e-17 0)
(3 1.20718e-16 0)
(3 4.96949e-16 0)
(3 1.9543e-16 0)
(3 -3.88119e-16 0)
(3 -8.47432e-16 0)
(3 -5.81484e-16 0)
(3 -7.4873e-17 0)
(3 3.39284e-16 0)
(3 1.00573e-15 0)
(3 1.46443e-15 0)
(3 1.09841e-15 0)
(3 2.2583e-15 0)
(3 2.75883e-15 0)
(3 2.33503e-15 0)
(3 1.85104e-15 0)
(3 1.30908e-15 0)
(3 1.5575e-15 0)
(3 1.08953e-15 0)
(3 5.64883e-16 0)
(3 3.06108e-16 0)
(3 -4.00173e-16 0)
(3 -2.15398e-16 0)
(3 1.20451e-15 0)
(3 2.56893e-15 0)
(3 3.28399e-15 0)
(3 3.22156e-15 0)
(3 2.94578e-15 0)
(3 2.45422e-15 0)
(3 2.98728e-15 0)
(3 2.73653e-15 0)
(3 1.62254e-15 0)
(3 1.67957e-15 0)
(3 1.59957e-15 0)
(3 9.14595e-16 0)
(3 5.00477e-16 0)
(3 -3.18635e-16 0)
(3 -2.70257e-16 0)
(3 1.4828e-17 0)
(3 -5.85376e-16 0)
(3 -1.43697e-15 0)
(3 -2.02334e-15 0)
(3 -2.37708e-15 0)
(3 -1.67864e-15 0)
(3 -5.17885e-16 0)
(3 -3.16227e-16 0)
(3 -4.23576e-16 0)
(3 3.44651e-17 0)
(3 6.79336e-16 0)
(3 7.96338e-16 0)
(3 2.09039e-16 0)
(3 1.48471e-16 0)
(3 -5.15843e-16 0)
(3 -4.37339e-16 0)
(3 -4.79033e-16 0)
(3 2.67843e-16 0)
(3 1.81821e-15 0)
(3 2.9076e-15 0)
(3 3.97885e-15 0)
(3 3.92105e-15 0)
(3 3.66823e-15 0)
(3 2.5418e-15 0)
(3 1.78521e-15 0)
(3 6.25337e-16 0)
(3 8.75743e-16 0)
(3 1.60053e-15 0)
(3 2.95736e-15 0)
(3 2.88764e-15 0)
(3 1.1757e-15 0)
(3 6.28224e-16 0)
(3 1.38291e-15 0)
(3 1.87769e-15 0)
(3 1.31396e-15 0)
(3 1.88586e-15 0)
(3 1.697e-15 0)
(3 1.33262e-15 0)
(3 -8.50574e-17 0)
(3 -8.6313e-16 0)
(3 -1.13276e-15 0)
(3 -2.63398e-15 0)
(3 -3.68895e-15 0)
(3 -3.30804e-15 0)
(3 -2.17302e-15 0)
(3 -1.24367e-15 0)
(3 1.85446e-16 0)
(3 9.80457e-16 0)
(3 1.5559e-15 0)
(3 1.49047e-15 0)
(3 1.40827e-15 0)
(3 1.33769e-15 0)
(3 1.28792e-15 0)
(3 1.22832e-15 0)
(3 7.50508e-16 0)
(3 1.33923e-15 0)
(3 -2.87255e-16 0)
(3 -4.22963e-16 0)
(3 -2.71468e-16 0)
(3 1.80937e-16 0)
(3 1.49474e-16 0)
(3 1.97424e-16 0)
(3 -7.94661e-16 0)
(3 -1.47938e-16 0)
(3 -2.9738e-18 0)
(3 -1.93955e-17 0)
(3 1.48981e-15 0)
(3 1.78562e-15 0)
(3 2.23815e-15 0)
(3 2.7203e-15 0)
(3 1.71192e-15 0)
(3 1.47285e-15 0)
(3 7.25759e-16 0)
(3 8.09697e-16 0)
(3 1.14822e-15 0)
(3 1.30547e-15 0)
(3 8.98333e-16 0)
(3 2.09926e-16 0)
(3 -1.71482e-16 0)
(3 -6.6549e-16 0)
(3 -4.68796e-17 0)
(3 5.92311e-16 0)
(3 -7.70438e-16 0)
(3 2.95832e-16 0)
(3 2.04409e-15 0)
(3 2.96814e-15 0)
(3 3.01726e-15 0)
(3 2.55275e-15 0)
(3 1.917e-15 0)
(3 1.61314e-15 0)
(3 1.19039e-15 0)
(3 1.40822e-15 0)
(3 1.44149e-15 0)
(3 1.12437e-15 0)
(3 8.92336e-16 0)
(3 6.44569e-16 0)
(3 3.22023e-16 0)
(3 -3.2151e-16 0)
(3 -1.45272e-15 0)
(3 -1.9903e-15 0)
(3 -1.96533e-15 0)
(3 -2.02341e-15 0)
(3 -1.5573e-15 0)
(3 -6.59584e-16 0)
(3 -1.98817e-16 0)
(3 2.04759e-16 0)
(3 9.90655e-17 0)
(3 1.02273e-16 0)
(3 1.96098e-16 0)
(3 -2.66736e-16 0)
(3 -7.20643e-16 0)
(3 4.12566e-16 0)
(3 2.06303e-15 0)
(3 2.27809e-15 0)
(3 3.04729e-15 0)
(3 3.69913e-15 0)
(3 3.44028e-15 0)
(3 3.72488e-15 0)
(3 3.96369e-15 0)
(3 4.6294e-15 0)
(3 4.16037e-15 0)
(3 2.51836e-15 0)
(3 1.76599e-15 0)
(3 1.05586e-15 0)
(3 -2.60148e-16 0)
(3 -4.32893e-16 0)
(3 8.90917e-17 0)
(3 3.16e-16 0)
(3 9.92271e-16 0)
(3 1.67279e-15 0)
(3 1.66612e-15 0)
(3 2.0859e-15 0)
(3 2.75978e-15 0)
(3 1.22673e-15 0)
(3 2.22818e-16 0)
(3 -8.02137e-16 0)
(3 -1.16579e-15 0)
(3 -1.0609e-15 0)
(3 -8.98281e-16 0)
(3 -8.34191e-16 0)
(3 -4.72814e-16 0)
(3 -5.35496e-17 0)
(3 4.23466e-16 0)
(3 9.33957e-16 0)
(3 7.91651e-16 0)
(3 1.17794e-15 0)
(3 1.3967e-15 0)
(3 1.29866e-15 0)
(3 5.29944e-16 0)
(3 -3.98976e-16 0)
(3 -1.00529e-15 0)
(3 -1.13549e-15 0)
(3 -2.12897e-16 0)
(3 -5.41023e-16 0)
(3 -7.0731e-16 0)
(3 -7.12134e-16 0)
(3 -7.74578e-16 0)
(3 -1.8613e-16 0)
(3 1.06846e-15 0)
(3 2.29828e-15 0)
(3 2.43948e-15 0)
(3 2.22777e-15 0)
(3 2.31352e-15 0)
(3 2.27619e-15 0)
(3 2.08751e-15 0)
(3 1.19679e-15 0)
(3 6.49284e-16 0)
(3 3.05685e-16 0)
(3 -8.80091e-16 0)
(3 -1.16443e-15 0)
(3 -8.26794e-16 0)
(3 -5.66959e-16 0)
(3 2.67408e-16 0)
(3 3.57012e-16 0)
(3 -1.43887e-16 0)
(3 7.96351e-17 0)
(3 3.70134e-16 0)
(3 -4.39276e-16 0)
(3 -5.83189e-16 0)
(3 -3.02369e-16 0)
(3 2.49072e-16 0)
(3 4.99373e-16 0)
(3 8.67633e-16 0)
(3 1.82929e-15 0)
(3 1.83684e-15 0)
(3 1.39873e-15 0)
(3 7.72276e-16 0)
(3 1.05778e-15 0)
(3 1.36672e-15 0)
(3 1.29893e-15 0)
(3 1.29999e-15 0)
(3 1.39397e-15 0)
(3 7.8758e-16 0)
(3 4.23965e-16 0)
(3 -6.73148e-16 0)
(3 -5.94638e-16 0)
(3 -3.73485e-16 0)
(3 -1.30558e-15 0)
(3 -3.08764e-15 0)
(3 -3.37711e-15 0)
(3 -2.35214e-15 0)
(3 -1.86972e-15 0)
(3 -1.2459e-15 0)
(3 -5.81222e-16 0)
(3 -2.69512e-16 0)
(3 -2.14175e-16 0)
(3 -2.01731e-16 0)
(3 6.00376e-16 0)
(3 9.24549e-16 0)
(3 1.6697e-15 0)
(3 1.67447e-15 0)
(3 1.42579e-15 0)
(3 1.72762e-15 0)
(3 3.33113e-15 0)
(3 3.67085e-15 0)
(3 3.06275e-15 0)
(3 2.68242e-15 0)
(3 2.34683e-15 0)
(3 2.22622e-15 0)
(3 9.14262e-16 0)
(3 -4.08992e-16 0)
(3 -1.62085e-15 0)
(3 -1.44151e-15 0)
(3 -1.61905e-15 0)
(3 -2.20837e-15 0)
(3 -2.16264e-15 0)
(3 -1.22938e-15 0)
(3 4.35736e-16 0)
(3 7.79118e-16 0)
(3 1.05212e-15 0)
(3 1.05188e-15 0)
(3 2.29055e-16 0)
(3 6.98493e-16 0)
(3 9.70184e-16 0)
(3 9.61099e-16 0)
(3 1.10541e-15 0)
(3 1.38335e-15 0)
(3 8.02118e-16 0)
(3 4.95197e-16 0)
(3 1.06454e-17 0)
(3 -3.07403e-16 0)
(3 -5.27695e-16 0)
(3 -2.7142e-16 0)
(3 -2.354e-16 0)
(3 -5.69907e-16 0)
(3 -8.89065e-16 0)
(3 -1.37579e-15 0)
(3 -1.55961e-15 0)
(3 1.57983e-16 0)
(3 4.01209e-16 0)
(3 4.9838e-16 0)
(3 5.28284e-16 0)
(3 9.72202e-16 0)
(3 1.06735e-15 0)
(3 1.9134e-15 0)
(3 1.74894e-15 0)
(3 2.06302e-15 0)
(3 1.98669e-15 0)
(3 1.48537e-15 0)
(3 1.80009e-15 0)
(3 1.63976e-15 0)
(3 1.18474e-15 0)
(3 1.11737e-15 0)
(3 7.23662e-16 0)
(3 1.2466e-17 0)
(3 -4.11191e-16 0)
(3 -2.58356e-16 0)
(3 3.32674e-16 0)
(3 6.37667e-16 0)
(3 8.03519e-16 0)
(3 6.91384e-16 0)
(3 7.04121e-16 0)
(3 3.63464e-16 0)
(3 -6.55272e-16 0)
(3 -9.19147e-16 0)
(3 -1.99206e-15 0)
(3 -2.79696e-15 0)
(3 -2.46108e-15 0)
(3 -1.4738e-15 0)
(3 -3.41452e-16 0)
(3 4.08928e-16 0)
(3 7.37016e-17 0)
(3 1.02789e-16 0)
(3 -5.97161e-17 0)
(3 4.56819e-16 0)
(3 -1.04663e-15 0)
(3 -1.61187e-15 0)
(3 -1.37732e-15 0)
(3 -1.29688e-15 0)
(3 -1.21522e-15 0)
(3 -1.21759e-16 0)
(3 1.24991e-15 0)
(3 7.8986e-16 0)
(3 -7.37425e-16 0)
(3 -1.65638e-15 0)
(3 -1.81683e-15 0)
(3 -2.14747e-15 0)
(3 -2.59191e-15 0)
(3 -2.64569e-15 0)
(3 -1.75361e-15 0)
(3 -1.27822e-15 0)
(3 -2.92539e-16 0)
(3 2.57421e-16 0)
(3 -3.37761e-18 0)
(3 -9.23228e-18 0)
(3 1.12124e-15 0)
(3 1.46232e-15 0)
(3 9.47167e-16 0)
(3 1.08727e-15 0)
(3 4.1078e-16 0)
(3 7.43138e-16 0)
(3 8.9146e-16 0)
(3 9.76178e-16 0)
(3 -6.08541e-17 0)
(3 -4.27284e-16 0)
(3 -1.55489e-15 0)
(3 -1.85045e-15 0)
(3 -1.45276e-15 0)
(3 -1.28104e-15 0)
(3 -1.54044e-15 0)
(3 -1.88287e-15 0)
(3 -2.14896e-15 0)
(3 -8.75787e-16 0)
(3 -6.81223e-17 0)
(3 2.28998e-16 0)
(3 5.6137e-16 0)
(3 1.52175e-15 0)
(3 1.24084e-15 0)
(3 1.35487e-15 0)
(3 2.09488e-15 0)
(3 1.83627e-15 0)
(3 1.63738e-15 0)
(3 1.20644e-15 0)
(3 5.30429e-17 0)
(3 -5.9499e-16 0)
(3 -1.04575e-15 0)
(3 -6.7079e-16 0)
(3 -7.73919e-16 0)
(3 -1.81391e-15 0)
(3 -2.1388e-15 0)
(3 -1.46626e-15 0)
(3 -9.24154e-16 0)
(3 -8.11176e-16 0)
(3 -7.63181e-16 0)
(3 9.77394e-17 0)
(3 1.03168e-15 0)
(3 1.69808e-15 0)
(3 2.35513e-15 0)
(3 2.42054e-15 0)
(3 1.88537e-15 0)
(3 1.62537e-15 0)
(3 1.39668e-15 0)
(3 7.80847e-16 0)
(3 5.66348e-16 0)
(3 2.20066e-16 0)
(3 7.23249e-16 0)
(3 1.12012e-15 0)
(3 1.65899e-15 0)
(3 1.51707e-15 0)
(3 1.21743e-15 0)
(3 1.06746e-15 0)
(3 7.03631e-16 0)
(3 2.07419e-16 0)
(3 4.49371e-16 0)
(3 5.81734e-16 0)
(3 1.32287e-15 0)
(3 2.84809e-15 0)
(3 2.59769e-15 0)
(3 6.69162e-16 0)
(3 3.29264e-16 0)
(3 -3.65261e-16 0)
(3 -6.84625e-16 0)
(3 -1.63453e-15 0)
(3 -1.88194e-15 0)
(3 -1.84235e-15 0)
(3 -1.66383e-15 0)
(3 -1.66971e-15 0)
(3 -2.34188e-15 0)
(3 -2.66058e-15 0)
(3 -3.04687e-15 0)
(3 -3.12116e-15 0)
(3 -4.03564e-15 0)
(3 -5.02932e-15 0)
(3 -5.91849e-15 0)
(3 -5.64415e-15 0)
(3 -4.67647e-15 0)
(3 -2.5277e-15 0)
(3 -9.99363e-16 0)
(3 -9.39036e-16 0)
(3 1.67884e-16 0)
(3 9.19334e-16 0)
(3 6.98222e-16 0)
(3 -6.4339e-16 0)
(3 -1.49607e-15 0)
(3 -1.7101e-15 0)
(3 -1.65068e-15 0)
(3 -6.8651e-16 0)
(3 3.69468e-16 0)
(3 6.01609e-16 0)
(3 6.81882e-16 0)
(3 -2.55057e-16 0)
(3 -7.78312e-16 0)
(3 -6.4844e-16 0)
(3 -7.19592e-16 0)
(3 -1.0161e-15 0)
(3 -1.50112e-15 0)
(3 -1.83136e-15 0)
(3 -2.26425e-15 0)
(3 -2.10096e-15 0)
(3 -2.06014e-15 0)
(3 -3.54591e-15 0)
(3 -4.05253e-15 0)
(3 -3.32949e-15 0)
(3 -2.13504e-15 0)
(3 -1.79642e-15 0)
(3 -1.11917e-15 0)
(3 -9.59578e-16 0)
(3 -8.48932e-16 0)
(3 -1.32167e-15 0)
(3 -2.14263e-15 0)
(3 -2.50021e-15 0)
(3 -1.73369e-15 0)
(3 -7.59491e-16 0)
(3 -9.71734e-17 0)
(3 1.45511e-15 0)
(3 1.66277e-15 0)
(3 1.56694e-15 0)
(3 6.59744e-16 0)
(3 -1.11822e-16 0)
(3 -1.20902e-16 0)
(3 -5.55976e-16 0)
(3 -1.27696e-15 0)
(3 -1.15326e-15 0)
(3 -1.26072e-15 0)
(3 -1.40925e-15 0)
(3 -1.04714e-15 0)
(3 -4.62883e-16 0)
(3 -3.13929e-16 0)
(3 1.53453e-16 0)
(3 5.16014e-17 0)
(3 -1.30485e-16 0)
(3 1.44857e-17 0)
(3 4.59937e-16 0)
(3 4.88307e-16 0)
(3 2.93365e-16 0)
(3 4.1105e-16 0)
(3 1.04865e-15 0)
(3 9.74855e-16 0)
(3 9.05562e-16 0)
(3 9.81069e-16 0)
(3 1.4096e-15 0)
(3 6.57948e-16 0)
(3 9.42921e-16 0)
(3 7.03464e-16 0)
(3 7.63096e-16 0)
(3 1.0705e-15 0)
(3 1.14272e-15 0)
(3 9.71123e-16 0)
(3 5.67795e-16 0)
(3 4.29067e-16 0)
(3 7.0793e-16 0)
(3 1.16374e-15 0)
(3 2.65315e-15 0)
(3 2.61035e-15 0)
(3 2.07929e-15 0)
(3 2.00986e-15 0)
(3 1.51887e-15 0)
(3 8.64937e-16 0)
(3 -2.2878e-16 0)
(3 -1.09189e-15 0)
(3 -2.13426e-15 0)
(3 -2.00614e-15 0)
(3 -2.03993e-15 0)
(3 -2.29269e-15 0)
(3 -2.70579e-15 0)
(3 -3.85914e-15 0)
(3 -4.8053e-15 0)
(3 -4.27871e-15 0)
(3 -3.81127e-15 0)
(3 -4.05458e-15 0)
(3 -3.80382e-15 0)
(3 -3.48916e-15 0)
(3 -2.81428e-15 0)
(3 -2.19619e-15 0)
(3 -2.82072e-15 0)
(3 -2.24756e-15 0)
(3 -1.83587e-15 0)
(3 -1.16352e-15 0)
(3 -3.85354e-16 0)
(3 -2.29923e-17 0)
(3 -3.36259e-16 0)
(3 -2.58283e-16 0)
(3 4.62874e-16 0)
(3 5.39159e-16 0)
(3 6.72786e-16 0)
(3 -2.12113e-16 0)
(3 -1.60276e-15 0)
(3 -2.13328e-15 0)
(3 -2.30089e-15 0)
(3 -1.58771e-15 0)
(3 -1.42677e-15 0)
(3 -1.33816e-15 0)
(3 -1.06943e-15 0)
(3 -1.39688e-15 0)
(3 -1.33929e-15 0)
(3 -1.18512e-15 0)
(3 -1.62065e-15 0)
(3 -1.93332e-15 0)
(3 -2.48097e-15 0)
(3 -2.30306e-15 0)
(3 -1.18189e-15 0)
(3 -1.64155e-16 0)
(3 -3.36426e-17 0)
(3 -1.60348e-16 0)
(3 -1.28546e-15 0)
(3 -1.69025e-15 0)
(3 -1.34669e-15 0)
(3 -1.23531e-15 0)
(3 -1.08152e-15 0)
(3 -2.90205e-16 0)
(3 2.29322e-16 0)
(3 -2.35777e-16 0)
(3 -5.26158e-16 0)
(3 -9.77949e-16 0)
(3 -1.414e-15 0)
(3 -7.92125e-16 0)
(3 -6.18161e-16 0)
(3 -1.50174e-15 0)
(3 -2.10394e-15 0)
(3 -1.91339e-15 0)
(3 -4.19542e-16 0)
(3 5.51892e-16 0)
(3 7.21508e-16 0)
(3 2.31446e-16 0)
(3 -2.13502e-16 0)
(3 -5.29923e-16 0)
(3 -4.57041e-16 0)
(3 -1.40351e-15 0)
(3 -1.56671e-15 0)
(3 -1.23161e-15 0)
(3 -1.1958e-15 0)
(3 -7.26064e-16 0)
(3 -5.33825e-16 0)
(3 -9.9941e-16 0)
(3 -3.64186e-16 0)
(3 -4.32814e-16 0)
(3 -2.20955e-16 0)
(3 -9.30549e-16 0)
(3 -7.92547e-16 0)
(3 -1.06328e-15 0)
(3 -1.05455e-15 0)
(3 -5.6203e-16 0)
(3 -4.82446e-16 0)
(3 -2.2853e-16 0)
(3 3.37167e-16 0)
(3 1.12183e-15 0)
(3 1.78263e-15 0)
(3 1.84218e-15 0)
(3 1.70694e-15 0)
(3 1.55423e-15 0)
(3 1.18649e-15 0)
(3 8.55071e-16 0)
(3 9.28956e-16 0)
(3 -4.24019e-16 0)
(3 -1.40803e-15 0)
(3 -1.63224e-15 0)
(3 -1.77546e-15 0)
(3 -2.69471e-15 0)
(3 -3.38901e-15 0)
(3 -2.76175e-15 0)
(3 -2.7689e-15 0)
(3 -2.67291e-15 0)
(3 -2.54981e-15 0)
(3 -1.94814e-15 0)
(3 -1.81159e-15 0)
(3 -1.77826e-15 0)
(3 -1.21804e-15 0)
(3 -1.21434e-15 0)
(3 -1.44698e-15 0)
(3 -1.19395e-15 0)
(3 -2.70257e-15 0)
(3 -4.3967e-15 0)
(3 -4.5475e-15 0)
(3 -3.78076e-15 0)
(3 -2.69224e-15 0)
(3 -1.852e-15 0)
(3 9.47632e-18 0)
(3 5.25162e-16 0)
(3 3.61895e-16 0)
(3 2.21342e-16 0)
(3 6.98357e-17 0)
(3 -5.4084e-16 0)
(3 -7.77111e-16 0)
(3 -1.10434e-15 0)
(3 -1.38563e-15 0)
(3 -9.78233e-16 0)
(3 6.60144e-18 0)
(3 9.99362e-16 0)
(3 8.45663e-16 0)
(3 3.84958e-16 0)
(3 3.6223e-16 0)
(3 3.06335e-16 0)
(3 3.01815e-16 0)
(3 -4.90107e-16 0)
(3 -1.39912e-15 0)
(3 -1.91557e-15 0)
(3 -1.20658e-15 0)
(3 -7.91396e-16 0)
(3 -6.23117e-16 0)
(3 -1.09257e-15 0)
(3 -1.57262e-15 0)
(3 -2.00026e-15 0)
(3 -1.628e-15 0)
(3 -1.90813e-15 0)
(3 -1.66584e-15 0)
(3 -1.15698e-15 0)
(3 -1.54251e-15 0)
(3 -1.34641e-15 0)
(3 -1.1928e-15 0)
(3 -1.1861e-15 0)
(3 -1.93438e-15 0)
(3 -1.82563e-15 0)
(3 -1.8215e-15 0)
(3 -1.65059e-15 0)
(3 -1.38082e-15 0)
(3 -6.11756e-16 0)
(3 3.12063e-17 0)
(3 -7.43111e-16 0)
(3 -1.33184e-15 0)
(3 -1.25954e-15 0)
(3 -8.66126e-16 0)
(3 -7.70776e-16 0)
(3 -2.64098e-17 0)
(3 1.49583e-16 0)
(3 2.63866e-16 0)
(3 7.69355e-17 0)
(3 -4.3499e-16 0)
(3 -1.12767e-15 0)
(3 -1.77248e-15 0)
(3 -1.44484e-15 0)
(3 -1.31944e-15 0)
(3 -1.89748e-15 0)
(3 -1.94625e-15 0)
(3 -1.62738e-15 0)
(3 -1.6746e-15 0)
(3 -1.4719e-15 0)
(3 -1.33843e-15 0)
(3 -1.63192e-15 0)
(3 -1.07268e-15 0)
(3 -5.47517e-16 0)
(3 9.75206e-16 0)
(3 2.35211e-15 0)
(3 2.90027e-15 0)
(3 3.19381e-15 0)
(3 1.98474e-15 0)
(3 7.28558e-16 0)
(3 -4.15735e-16 0)
(3 -1.46046e-15 0)
(3 -1.44844e-15 0)
(3 -1.47374e-15 0)
(3 -1.21649e-15 0)
(3 -1.65951e-15 0)
(3 -2.26754e-15 0)
(3 -3.29578e-15 0)
(3 -3.90015e-15 0)
(3 -3.17601e-15 0)
(3 -1.94967e-15 0)
(3 -6.40319e-16 0)
(3 3.71786e-16 0)
(3 5.61849e-16 0)
(3 7.97296e-16 0)
(3 7.45746e-16 0)
(3 4.6612e-16 0)
(3 6.87563e-17 0)
(3 -7.95399e-16 0)
(3 -1.21566e-15 0)
(3 -2.12034e-15 0)
(3 -3.59503e-15 0)
(3 -4.71311e-15 0)
(3 -4.70078e-15 0)
(3 -3.90247e-15 0)
(3 -1.95594e-15 0)
(3 3.61412e-16 0)
(3 7.03725e-16 0)
(3 -5.2364e-16 0)
(3 -1.1055e-15 0)
(3 -3.89055e-16 0)
(3 5.34182e-16 0)
(3 1.31153e-15 0)
(3 1.2645e-15 0)