/*--------------------------------*- C++ -*----------------------------------*\
  =========                 |
  \\      /  F ield         | OpenFOAM: The Open Source CFD Toolbox
   \\    /   O peration     | Website:  https://openfoam.org
    \\  /    A nd           | Version:  7
     \\/     M anipulation  |
\*---------------------------------------------------------------------------*/
FoamFile
{
    version     2.0;
    format      ascii;
    class       volVectorField;
    location    "3.5";
    object      U;
}
// * * * * * * * * * * * * * * * * * * * * * * * * * * * * * * * * * * * * * //

dimensions      [0 1 -1 0 0 0 0];

internalField   nonuniform List<vector> 
73728
(
(3 -4.64192e-18 0)
(3 3.12884e-17 0)
(3 5.19265e-18 0)
(3 7.00377e-18 0)
(3 -9.97023e-17 0)
(3 2.23209e-16 0)
(3 4.1251e-16 0)
(3 8.62845e-16 0)
(3 1.13573e-15 0)
(3 7.59689e-16 0)
(3 7.10536e-16 0)
(3 9.87419e-16 0)
(3 9.39511e-16 0)
(3 8.98321e-16 0)
(3 5.80792e-16 0)
(3 -4.75151e-16 0)
(3 -5.36412e-16 0)
(3 1.13297e-16 0)
(3 2.50131e-16 0)
(3 2.87186e-16 0)
(3 4.36131e-16 0)
(3 6.70097e-16 0)
(3 6.30158e-16 0)
(3 4.49761e-16 0)
(3 5.77256e-17 0)
(3 -2.50457e-17 0)
(3 -2.77926e-16 0)
(3 4.1269e-16 0)
(3 1.0342e-15 0)
(3 1.56925e-15 0)
(3 1.7546e-15 0)
(3 2.07137e-15 0)
(3 2.24128e-15 0)
(3 2.1361e-15 0)
(3 1.54202e-15 0)
(3 1.27617e-15 0)
(3 9.95913e-16 0)
(3 9.02023e-16 0)
(3 1.14134e-15 0)
(3 8.4666e-16 0)
(3 3.6962e-16 0)
(3 3.72235e-16 0)
(3 4.98219e-16 0)
(3 8.08456e-16 0)
(3 1.20524e-15 0)
(3 9.78749e-16 0)
(3 6.66833e-16 0)
(3 1.09743e-16 0)
(3 2.77973e-16 0)
(3 5.4366e-16 0)
(3 6.21077e-16 0)
(3 6.5075e-16 0)
(3 1.24282e-15 0)
(3 2.37195e-15 0)
(3 2.02338e-15 0)
(3 2.11931e-15 0)
(3 2.022e-15 0)
(3 1.9413e-15 0)
(3 1.77329e-15 0)
(3 1.56164e-15 0)
(3 1.75102e-15 0)
(3 1.87381e-15 0)
(3 1.10357e-15 0)
(3 6.13326e-16 0)
(3 -6.02726e-18 0)
(3 1.5208e-16 0)
(3 7.93669e-16 0)
(3 6.59429e-16 0)
(3 4.28999e-16 0)
(3 -1.03053e-16 0)
(3 -4.85271e-16 0)
(3 -3.15427e-16 0)
(3 -6.82608e-16 0)
(3 -8.19773e-16 0)
(3 -6.852e-16 0)
(3 -5.08263e-16 0)
(3 -5.80943e-16 0)
(3 -5.50854e-16 0)
(3 -5.24442e-16 0)
(3 -3.84453e-16 0)
(3 -1.43186e-15 0)
(3 -1.87491e-15 0)
(3 -1.00717e-15 0)
(3 -5.6269e-16 0)
(3 5.75499e-17 0)
(3 3.42398e-18 0)
(3 -3.0201e-16 0)
(3 -5.18361e-16 0)
(3 -7.77724e-16 0)
(3 -7.1761e-16 0)
(3 -5.83191e-16 0)
(3 -5.54673e-16 0)
(3 -8.58534e-16 0)
(3 -1.27037e-15 0)
(3 -1.42433e-15 0)
(3 -1.20035e-15 0)
(3 -9.55405e-17 0)
(3 -1.84694e-16 0)
(3 6.52251e-17 0)
(3 4.70896e-16 0)
(3 3.544e-16 0)
(3 6.90424e-16 0)
(3 5.46016e-16 0)
(3 3.71359e-16 0)
(3 1.24703e-15 0)
(3 1.38946e-15 0)
(3 6.38533e-16 0)
(3 2.15147e-15 0)
(3 2.76674e-15 0)
(3 2.94933e-15 0)
(3 1.86846e-15 0)
(3 3.20274e-16 0)
(3 -1.32826e-16 0)
(3 5.34343e-16 0)
(3 6.85655e-16 0)
(3 1.53197e-16 0)
(3 4.12134e-17 0)
(3 4.51399e-16 0)
(3 7.91154e-16 0)
(3 7.58638e-16 0)
(3 5.5901e-16 0)
(3 4.43351e-16 0)
(3 7.62295e-17 0)
(3 6.19836e-16 0)
(3 1.03303e-15 0)
(3 1.18868e-15 0)
(3 9.39309e-16 0)
(3 1.03687e-15 0)
(3 1.72443e-15 0)
(3 2.08983e-15 0)
(3 1.93501e-15 0)
(3 1.76866e-15 0)
(3 1.27202e-15 0)
(3 1.67238e-15 0)
(3 1.99044e-15 0)
(3 1.54596e-15 0)
(3 6.60056e-16 0)
(3 6.36852e-16 0)
(3 1.63905e-15 0)
(3 2.7228e-15 0)
(3 3.1832e-15 0)
(3 3.00854e-15 0)
(3 2.52534e-15 0)
(3 1.18928e-15 0)
(3 8.92057e-16 0)
(3 2.00784e-15 0)
(3 2.50612e-15 0)
(3 3.31126e-15 0)
(3 4.05778e-15 0)
(3 3.97711e-15 0)
(3 3.61922e-15 0)
(3 3.22949e-15 0)
(3 2.56425e-15 0)
(3 1.64316e-15 0)
(3 1.60093e-15 0)
(3 2.22416e-15 0)
(3 2.91189e-15 0)
(3 2.65925e-15 0)
(3 1.64026e-15 0)
(3 5.58132e-16 0)
(3 -8.37125e-17 0)
(3 -6.97582e-16 0)
(3 -4.71569e-16 0)
(3 -4.18678e-16 0)
(3 -1.15487e-15 0)
(3 -2.39004e-15 0)
(3 -2.58459e-15 0)
(3 -1.59129e-15 0)
(3 -1.49922e-15 0)
(3 -9.70645e-16 0)
(3 -1.31365e-15 0)
(3 -1.08318e-15 0)
(3 -1.39329e-15 0)
(3 -1.1092e-15 0)
(3 -6.38476e-16 0)
(3 -3.73116e-16 0)
(3 -5.19535e-16 0)
(3 -1.64327e-15 0)
(3 -1.13483e-15 0)
(3 -2.82888e-17 0)
(3 -2.3293e-16 0)
(3 -7.43837e-16 0)
(3 -6.62486e-16 0)
(3 -7.008e-16 0)
(3 -1.13557e-15 0)
(3 -9.87396e-16 0)
(3 -5.5612e-16 0)
(3 -4.78511e-16 0)
(3 -7.44739e-16 0)
(3 -1.06146e-15 0)
(3 -9.01975e-16 0)
(3 -1.12832e-15 0)
(3 -2.18445e-16 0)
(3 -3.56162e-16 0)
(3 5.14272e-17 0)
(3 5.0502e-16 0)
(3 4.41507e-16 0)
(3 1.65423e-16 0)
(3 -3.36368e-16 0)
(3 -9.64054e-17 0)
(3 9.06697e-17 0)
(3 1.30314e-15 0)
(3 1.60293e-15 0)
(3 1.34416e-15 0)
(3 1.53349e-15 0)
(3 1.9617e-15 0)
(3 2.8839e-15 0)
(3 2.89209e-15 0)
(3 1.66088e-15 0)
(3 1.23564e-15 0)
(3 1.02486e-15 0)
(3 8.83183e-16 0)
(3 3.82644e-16 0)
(3 5.12228e-16 0)
(3 5.63107e-16 0)
(3 5.01829e-16 0)
(3 7.44982e-16 0)
(3 6.01314e-16 0)
(3 7.3551e-16 0)
(3 1.03634e-15 0)
(3 6.95432e-16 0)
(3 8.22259e-18 0)
(3 1.66189e-16 0)
(3 2.87854e-16 0)
(3 1.00085e-15 0)
(3 1.41094e-15 0)
(3 1.3805e-15 0)
(3 8.09109e-16 0)
(3 3.47611e-16 0)
(3 1.51405e-17 0)
(3 4.90526e-16 0)
(3 3.98364e-16 0)
(3 2.16282e-16 0)
(3 4.13683e-16 0)
(3 1.17477e-15 0)
(3 1.45795e-15 0)
(3 2.183e-15 0)
(3 2.33242e-15 0)
(3 1.54443e-15 0)
(3 1.00289e-15 0)
(3 3.91615e-16 0)
(3 2.04445e-16 0)
(3 3.9715e-16 0)
(3 1.70995e-15 0)
(3 2.64119e-15 0)
(3 3.7978e-15 0)
(3 3.0218e-15 0)
(3 2.82668e-15 0)
(3 2.80161e-15 0)
(3 2.00805e-15 0)
(3 1.7685e-15 0)
(3 2.13102e-15 0)
(3 2.12428e-15 0)
(3 1.92249e-15 0)
(3 1.36842e-15 0)
(3 4.71231e-16 0)
(3 -5.29941e-17 0)
(3 1.70847e-16 0)
(3 -8.29958e-17 0)
(3 -4.46553e-16 0)
(3 -1.31813e-15 0)
(3 -2.74368e-15 0)
(3 -3.46838e-15 0)
(3 -2.34132e-15 0)
(3 -1.90954e-15 0)
(3 -1.42797e-15 0)
(3 -1.28125e-15 0)
(3 -1.05007e-15 0)
(3 -8.51027e-16 0)
(3 -2.25618e-16 0)
(3 1.76482e-16 0)
(3 1.24325e-16 0)
(3 9.68244e-16 0)
(3 1.01306e-16 0)
(3 -1.45356e-15 0)
(3 -1.26035e-15 0)
(3 -1.41078e-15 0)
(3 -1.92128e-15 0)
(3 -1.74982e-15 0)
(3 -1.42786e-15 0)
(3 -2.09991e-15 0)
(3 -1.9611e-15 0)
(3 -1.32467e-15 0)
(3 -9.52609e-16 0)
(3 -7.02495e-16 0)
(3 -6.42438e-16 0)
(3 -5.0716e-16 0)
(3 -1.11974e-15 0)
(3 1.32628e-16 0)
(3 3.74354e-16 0)
(3 1.78906e-16 0)
(3 -8.06613e-17 0)
(3 -6.54136e-16 0)
(3 -7.36509e-16 0)
(3 -3.86887e-16 0)
(3 1.73319e-16 0)
(3 5.68729e-16 0)
(3 1.12364e-15 0)
(3 1.20799e-15 0)
(3 8.27034e-16 0)
(3 -9.61477e-17 0)
(3 -3.36977e-16 0)
(3 2.94719e-16 0)
(3 8.63236e-16 0)
(3 9.77871e-16 0)
(3 9.83577e-16 0)
(3 4.79498e-16 0)
(3 2.64316e-16 0)
(3 1.64512e-16 0)
(3 4.89594e-17 0)
(3 -1.81594e-16 0)
(3 -1.45587e-16 0)
(3 3.79531e-16 0)
(3 2.38859e-16 0)
(3 6.53049e-16 0)
(3 4.99479e-16 0)
(3 4.90167e-16 0)
(3 2.50326e-16 0)
(3 9.86049e-16 0)
(3 1.20783e-15 0)
(3 7.52907e-16 0)
(3 2.73569e-16 0)
(3 3.83311e-16 0)
(3 4.03548e-16 0)
(3 -7.58492e-16 0)
(3 -2.00371e-15 0)
(3 -1.99372e-15 0)
(3 -1.16458e-15 0)
(3 -6.05892e-16 0)
(3 -2.45763e-16 0)
(3 -1.86504e-18 0)
(3 2.00934e-16 0)
(3 4.97046e-16 0)
(3 3.82154e-16 0)
(3 -8.178e-16 0)
(3 -1.05748e-15 0)
(3 -1.21258e-15 0)
(3 -1.3127e-15 0)
(3 4.3259e-16 0)
(3 1.0792e-15 0)
(3 1.66354e-15 0)
(3 1.66788e-15 0)
(3 1.58537e-15 0)
(3 2.28905e-15 0)
(3 3.04527e-15 0)
(3 3.45848e-15 0)
(3 2.68812e-15 0)
(3 2.26018e-15 0)
(3 1.41272e-15 0)
(3 8.79615e-16 0)
(3 5.04411e-16 0)
(3 1.06728e-16 0)
(3 1.888e-17 0)
(3 8.70074e-17 0)
(3 -1.06417e-15 0)
(3 -2.77946e-15 0)
(3 -2.76876e-15 0)
(3 -3.45033e-15 0)
(3 -4.06481e-15 0)
(3 -3.39566e-15 0)
(3 -2.47668e-15 0)
(3 -1.79422e-15 0)
(3 -1.56425e-15 0)
(3 -1.62363e-15 0)
(3 -4.7942e-16 0)
(3 1.64139e-15 0)
(3 1.8876e-15 0)
(3 1.62936e-15 0)
(3 1.44948e-15 0)
(3 1.0331e-15 0)
(3 6.24399e-17 0)
(3 -4.52539e-16 0)
(3 -1.16542e-15 0)
(3 -1.45238e-15 0)
(3 -1.47136e-15 0)
(3 -1.14375e-15 0)
(3 -1.43543e-15 0)
(3 -1.41135e-15 0)
(3 -9.57768e-16 0)
(3 -9.46203e-16 0)
(3 -1.14854e-15 0)
(3 -1.25748e-15 0)
(3 -1.11485e-15 0)
(3 -1.37056e-15 0)
(3 3.03037e-16 0)
(3 3.58726e-16 0)
(3 1.40938e-16 0)
(3 -7.36219e-17 0)
(3 -2.20704e-16 0)
(3 -4.57378e-16 0)
(3 -4.65777e-16 0)
(3 -2.78988e-16 0)
(3 3.18921e-16 0)
(3 -4.22585e-17 0)
(3 -5.60172e-16 0)
(3 -4.89516e-16 0)
(3 -9.80568e-16 0)
(3 -1.7143e-15 0)
(3 -1.9075e-15 0)
(3 -6.61548e-16 0)
(3 1.18696e-15 0)
(3 1.2879e-15 0)
(3 7.53982e-16 0)
(3 2.98925e-16 0)
(3 3.34264e-16 0)
(3 -1.10406e-16 0)
(3 -1.1399e-16 0)
(3 1.8729e-16 0)
(3 3.68655e-16 0)
(3 7.09948e-16 0)
(3 9.25078e-16 0)
(3 -9.44559e-17 0)
(3 -1.99407e-16 0)
(3 5.26661e-16 0)
(3 6.75673e-16 0)
(3 5.09726e-16 0)
(3 -1.80318e-16 0)
(3 -1.50424e-15 0)
(3 -1.66432e-15 0)
(3 -1.47982e-15 0)
(3 -1.91087e-15 0)
(3 -1.90777e-15 0)
(3 -2.05722e-15 0)
(3 -1.23172e-15 0)
(3 -6.17108e-16 0)
(3 -1.09613e-15 0)
(3 -1.11445e-15 0)
(3 -1.16093e-15 0)
(3 -1.77285e-15 0)
(3 -2.05962e-15 0)
(3 -1.81281e-15 0)
(3 -6.46667e-16 0)
(3 5.45384e-16 0)
(3 3.61455e-16 0)
(3 2.99214e-16 0)
(3 1.08546e-16 0)
(3 1.76792e-16 0)
(3 9.28826e-17 0)
(3 4.06827e-16 0)
(3 1.39364e-15 0)
(3 1.71889e-15 0)
(3 1.94347e-15 0)
(3 1.18116e-15 0)
(3 8.40109e-16 0)
(3 5.62135e-16 0)
(3 3.16798e-16 0)
(3 2.04475e-16 0)
(3 3.2568e-16 0)
(3 4.94742e-16 0)
(3 1.89104e-16 0)
(3 -4.16493e-16 0)
(3 -1.87463e-15 0)
(3 -3.29235e-15 0)
(3 -4.65629e-15 0)
(3 -4.94375e-15 0)
(3 -4.67604e-15 0)
(3 -3.9281e-15 0)
(3 -2.53803e-15 0)
(3 -2.2901e-15 0)
(3 -2.33092e-15 0)
(3 -1.30445e-15 0)
(3 -2.12243e-16 0)
(3 1.09906e-15 0)
(3 1.56342e-15 0)
(3 1.0174e-15 0)
(3 1.83329e-15 0)
(3 1.77854e-15 0)
(3 8.74201e-16 0)
(3 2.15213e-16 0)
(3 -2.72364e-16 0)
(3 -3.03041e-16 0)
(3 4.41103e-16 0)
(3 1.03838e-15 0)
(3 8.67737e-16 0)
(3 6.46589e-16 0)
(3 -6.61936e-16 0)
(3 -1.20735e-15 0)
(3 -9.86076e-16 0)
(3 -1.14754e-15 0)
(3 -1.05707e-15 0)
(3 5.37833e-18 0)
(3 2.96486e-18 0)
(3 -2.31944e-16 0)
(3 1.29298e-17 0)
(3 2.35755e-16 0)
(3 -2.08647e-16 0)
(3 -7.8317e-16 0)
(3 -9.61796e-16 0)
(3 -1.06099e-15 0)
(3 -1.46752e-15 0)
(3 -9.46167e-16 0)
(3 -7.4876e-16 0)
(3 -3.27739e-16 0)
(3 -7.62614e-16 0)
(3 -9.57067e-16 0)
(3 -8.01365e-16 0)
(3 6.29507e-16 0)
(3 9.29716e-16 0)
(3 8.27525e-16 0)
(3 1.60217e-16 0)
(3 6.17138e-16 0)
(3 1.35497e-15 0)
(3 1.35693e-15 0)
(3 9.4331e-16 0)
(3 7.29314e-16 0)
(3 5.46488e-16 0)
(3 1.72283e-16 0)
(3 1.27083e-16 0)
(3 -3.37435e-17 0)
(3 2.96367e-16 0)
(3 8.75147e-16 0)
(3 9.5114e-16 0)
(3 7.88012e-16 0)
(3 3.53638e-16 0)
(3 -7.70184e-16 0)
(3 -1.58169e-15 0)
(3 -1.63969e-15 0)
(3 -1.36785e-15 0)
(3 -1.30497e-15 0)
(3 -1.70524e-15 0)
(3 -1.77808e-15 0)
(3 -1.29204e-15 0)
(3 -1.25613e-15 0)
(3 -9.13226e-16 0)
(3 -1.67701e-15 0)
(3 -1.42086e-15 0)
(3 -7.35413e-16 0)
(3 -2.83359e-16 0)
(3 4.16046e-16 0)
(3 4.66037e-16 0)
(3 1.30143e-16 0)
(3 9.46075e-17 0)
(3 2.92154e-16 0)
(3 5.76467e-16 0)
(3 5.40497e-16 0)
(3 5.3146e-16 0)
(3 3.46247e-16 0)
(3 -9.39496e-16 0)
(3 -1.2893e-15 0)
(3 -1.19575e-15 0)
(3 -9.01179e-16 0)
(3 -6.18499e-16 0)
(3 -2.80987e-16 0)
(3 1.55632e-16 0)
(3 3.60849e-16 0)
(3 -1.09834e-16 0)
(3 -8.96844e-17 0)
(3 -1.62038e-15 0)
(3 -2.81488e-15 0)
(3 -3.33694e-15 0)
(3 -3.81974e-15 0)
(3 -4.00965e-15 0)
(3 -4.27649e-15 0)
(3 -3.61696e-15 0)
(3 -3.38312e-15 0)
(3 -3.72197e-15 0)
(3 -4.06117e-15 0)
(3 -3.79567e-15 0)
(3 -2.81999e-15 0)
(3 -7.56661e-16 0)
(3 -6.37483e-16 0)
(3 -2.02795e-16 0)
(3 1.20109e-16 0)
(3 1.84859e-16 0)
(3 3.44968e-16 0)
(3 -5.47461e-16 0)
(3 -7.16114e-16 0)
(3 -3.79078e-16 0)
(3 6.95836e-16 0)
(3 9.56162e-16 0)
(3 2.18635e-16 0)
(3 -8.63468e-16 0)
(3 -6.88102e-16 0)
(3 -1.85106e-16 0)
(3 -4.67752e-16 0)
(3 -4.28002e-16 0)
(3 -1.35041e-16 0)
(3 8.69977e-17 0)
(3 1.18452e-17 0)
(3 -8.93921e-17 0)
(3 2.03837e-17 0)
(3 4.58904e-17 0)
(3 -2.75625e-16 0)
(3 -1.77924e-16 0)
(3 -3.94545e-16 0)
(3 -2.55098e-16 0)
(3 5.27768e-17 0)
(3 9.96595e-17 0)
(3 3.50021e-16 0)
(3 5.8494e-16 0)
(3 6.27839e-16 0)
(3 4.86002e-16 0)
(3 8.31219e-17 0)
(3 1.44229e-16 0)
(3 -8.54416e-17 0)
(3 8.0974e-17 0)
(3 8.84551e-16 0)
(3 2.06904e-15 0)
(3 2.69159e-15 0)
(3 2.91956e-15 0)
(3 1.81645e-15 0)
(3 8.34551e-16 0)
(3 6.48079e-16 0)
(3 5.76495e-16 0)
(3 4.21287e-16 0)
(3 5.8638e-16 0)
(3 1.11287e-15 0)
(3 9.36655e-16 0)
(3 2.67845e-16 0)
(3 2.42504e-16 0)
(3 1.5929e-17 0)
(3 -5.70126e-16 0)
(3 1.41383e-17 0)
(3 1.98585e-16 0)
(3 9.22092e-17 0)
(3 -8.8862e-16 0)
(3 -1.56331e-15 0)
(3 -1.4311e-15 0)
(3 -8.50071e-16 0)
(3 -2.44879e-16 0)
(3 2.24116e-16 0)
(3 5.45419e-16 0)
(3 4.68907e-16 0)
(3 -1.10502e-16 0)
(3 -5.82424e-16 0)
(3 -2.91416e-16 0)
(3 1.23519e-16 0)
(3 6.10528e-16 0)
(3 1.02643e-15 0)
(3 1.26777e-15 0)
(3 1.39479e-15 0)
(3 -5.45059e-17 0)
(3 -8.41967e-16 0)
(3 -1.11873e-15 0)
(3 -5.74528e-16 0)
(3 -6.85224e-16 0)
(3 -1.23667e-15 0)
(3 -1.31189e-15 0)
(3 -1.24626e-15 0)
(3 -1.68213e-15 0)
(3 -8.25596e-16 0)
(3 -2.91215e-16 0)
(3 -6.4584e-17 0)
(3 -1.63692e-15 0)
(3 -2.60002e-15 0)
(3 -2.13636e-15 0)
(3 -2.03629e-15 0)
(3 -3.07933e-15 0)
(3 -3.4655e-15 0)
(3 -3.8041e-15 0)
(3 -3.59691e-15 0)
(3 -3.5274e-15 0)
(3 -4.22451e-15 0)
(3 -4.14774e-15 0)
(3 -3.71845e-15 0)
(3 -3.24557e-15 0)
(3 -1.29243e-15 0)
(3 -1.37195e-15 0)
(3 -1.80053e-15 0)
(3 -1.61609e-15 0)
(3 -1.22567e-15 0)
(3 -9.927e-16 0)
(3 -9.19297e-16 0)
(3 -1.59837e-15 0)
(3 -1.81877e-15 0)
(3 -9.18327e-16 0)
(3 -7.32751e-16 0)
(3 -1.8815e-16 0)
(3 -9.14223e-17 0)
(3 -7.29876e-16 0)
(3 -7.99094e-16 0)
(3 -5.78203e-16 0)
(3 -3.2921e-16 0)
(3 -1.46448e-16 0)
(3 3.79176e-17 0)
(3 -5.20153e-18 0)
(3 3.95624e-17 0)
(3 3.76532e-16 0)
(3 8.65029e-16 0)
(3 9.71177e-16 0)
(3 7.31984e-16 0)
(3 5.62803e-16 0)
(3 2.99448e-16 0)
(3 -3.86221e-16 0)
(3 -5.14409e-16 0)
(3 5.20021e-16 0)
(3 1.62678e-15 0)
(3 1.07096e-15 0)
(3 -2.61607e-16 0)
(3 -4.16254e-16 0)
(3 1.8969e-16 0)
(3 1.55229e-15 0)
(3 1.64079e-15 0)
(3 1.9816e-15 0)
(3 1.80764e-15 0)
(3 1.77873e-15 0)
(3 2.19347e-15 0)
(3 2.3779e-15 0)
(3 2.26026e-15 0)
(3 2.15948e-15 0)
(3 2.15665e-15 0)
(3 2.2244e-15 0)
(3 1.48489e-15 0)
(3 -3.31274e-16 0)
(3 -2.17106e-15 0)
(3 -2.60274e-15 0)
(3 -2.09144e-15 0)
(3 -8.93656e-16 0)
(3 3.89651e-16 0)
(3 5.9842e-16 0)
(3 -1.27496e-16 0)
(3 -7.99809e-16 0)
(3 -6.60217e-16 0)
(3 -5.07652e-16 0)
(3 -6.62327e-18 0)
(3 -3.29392e-16 0)
(3 3.92954e-16 0)
(3 3.06543e-16 0)
(3 3.98547e-16 0)
(3 3.14192e-16 0)
(3 2.61395e-16 0)
(3 3.72988e-16 0)
(3 8.40263e-16 0)
(3 2.53433e-16 0)
(3 -2.75131e-17 0)
(3 1.81732e-16 0)
(3 -2.41481e-17 0)
(3 -7.31419e-16 0)
(3 -6.78659e-16 0)
(3 -2.10193e-16 0)
(3 -1.8342e-16 0)
(3 -6.34547e-16 0)
(3 -1.22221e-15 0)
(3 -1.76652e-15 0)
(3 -1.75446e-15 0)
(3 -1.95543e-15 0)
(3 -1.31654e-15 0)
(3 -9.35447e-16 0)
(3 -1.05196e-15 0)
(3 -1.77504e-15 0)
(3 -1.87699e-15 0)
(3 -1.45084e-15 0)
(3 -9.59999e-16 0)
(3 -1.06186e-15 0)
(3 -1.28769e-15 0)
(3 -1.63513e-15 0)
(3 -2.07336e-15 0)
(3 -2.18722e-15 0)
(3 -2.48116e-15 0)
(3 -3.92986e-15 0)
(3 -4.03468e-15 0)
(3 -2.99733e-15 0)
(3 -1.46732e-15 0)
(3 -1.51038e-15 0)
(3 -1.76804e-15 0)
(3 -1.57263e-15 0)
(3 -1.51161e-15 0)
(3 -1.1614e-15 0)
(3 -1.83108e-15 0)
(3 -2.46619e-15 0)
(3 -3.34136e-15 0)
(3 -3.11879e-15 0)
(3 -2.787e-15 0)
(3 -1.68328e-15 0)
(3 -9.46362e-16 0)
(3 -1.01915e-15 0)
(3 -8.88992e-16 0)
(3 -6.02995e-16 0)
(3 -2.28499e-16 0)
(3 -5.95792e-16 0)
(3 -2.45558e-16 0)
(3 -4.73695e-17 0)
(3 8.48052e-17 0)
(3 3.76219e-16 0)
(3 8.31017e-16 0)
(3 7.17396e-16 0)
(3 7.42562e-16 0)
(3 2.16566e-16 0)
(3 1.88222e-16 0)
(3 -9.09405e-16 0)
(3 -1.27888e-15 0)
(3 -8.47788e-16 0)
(3 6.80821e-18 0)
(3 9.89224e-17 0)
(3 -2.11164e-16 0)
(3 -3.53401e-16 0)
(3 5.74409e-16 0)
(3 6.19152e-16 0)
(3 5.63896e-16 0)
(3 9.18097e-16 0)
(3 1.30582e-15 0)
(3 1.37454e-15 0)
(3 2.16591e-15 0)
(3 2.32677e-15 0)
(3 2.30226e-15 0)
(3 2.18628e-15 0)
(3 2.23229e-15 0)
(3 2.04744e-15 0)
(3 1.49159e-15 0)
(3 -2.71977e-17 0)
(3 -7.34348e-16 0)
(3 -1.01323e-15 0)
(3 -1.1171e-15 0)
(3 -8.50492e-16 0)
(3 -1.62688e-16 0)
(3 -2.82146e-16 0)
(3 -4.90137e-16 0)
(3 -6.9738e-16 0)
(3 -4.51196e-16 0)
(3 1.89749e-18 0)
(3 -1.19245e-16 0)
(3 -1.01784e-16 0)
(3 2.5139e-16 0)
(3 7.57343e-17 0)
(3 1.93854e-17 0)
(3 4.05665e-16 0)
(3 1.55891e-15 0)
(3 1.47866e-15 0)
(3 6.21592e-16 0)
(3 -8.08703e-16 0)
(3 -8.38622e-16 0)
(3 -5.88795e-16 0)
(3 -1.05151e-15 0)
(3 -1.57757e-15 0)
(3 -8.60751e-16 0)
(3 -1.13857e-16 0)
(3 -5.56695e-16 0)
(3 -8.13092e-16 0)
(3 -1.044e-15 0)
(3 -1.62947e-15 0)
(3 -1.27295e-15 0)
(3 -5.70092e-16 0)
(3 -8.83383e-16 0)
(3 -1.6232e-15 0)
(3 -1.7979e-15 0)
(3 -1.55604e-15 0)
(3 -1.05839e-15 0)
(3 -1.13706e-15 0)
(3 -7.49417e-16 0)
(3 -8.53852e-16 0)
(3 -8.23523e-16 0)
(3 -8.17718e-16 0)
(3 -8.10258e-16 0)
(3 -7.5851e-16 0)
(3 -1.65658e-15 0)
(3 -3.20375e-15 0)
(3 -3.32348e-15 0)
(3 -1.54928e-15 0)
(3 -1.2232e-15 0)
(3 -1.89809e-15 0)
(3 -2.01985e-15 0)
(3 -1.7158e-15 0)
(3 -1.43229e-15 0)
(3 -2.06646e-15 0)
(3 -2.80931e-15 0)
(3 -2.92889e-15 0)
(3 -3.68703e-15 0)
(3 -3.59457e-15 0)
(3 -3.39998e-15 0)
(3 -2.24534e-15 0)
(3 -6.8458e-16 0)
(3 -3.22726e-16 0)
(3 -8.95124e-16 0)
(3 -1.06965e-16 0)
(3 2.69484e-17 0)
(3 -1.08704e-16 0)
(3 -3.50318e-17 0)
(3 -3.27218e-17 0)
(3 -1.45494e-16 0)
(3 -3.43069e-16 0)
(3 -4.47796e-16 0)
(3 -6.28633e-16 0)
(3 -5.91125e-16 0)
(3 -6.37346e-16 0)
(3 -9.86122e-16 0)
(3 -8.6918e-16 0)
(3 -1.11527e-15 0)
(3 -8.08887e-16 0)
(3 -8.7884e-16 0)
(3 4.24085e-16 0)
(3 1.02074e-15 0)
(3 8.51867e-16 0)
(3 1.07575e-16 0)
(3 -2.80973e-16 0)
(3 -1.92652e-16 0)
(3 4.72258e-16 0)
(3 1.21072e-15 0)
(3 1.4867e-15 0)
(3 1.39407e-15 0)
(3 9.37458e-16 0)
(3 6.13373e-16 0)
(3 1.61787e-16 0)
(3 -2.54027e-16 0)
(3 -2.04561e-16 0)
(3 -3.17894e-17 0)
(3 5.24018e-16 0)
(3 1.10162e-15 0)
(3 1.2151e-15 0)
(3 5.0399e-16 0)
(3 1.94365e-16 0)
(3 -1.88986e-16 0)
(3 -3.50873e-16 0)
(3 -3.53147e-16 0)
(3 -4.27726e-16 0)
(3 -2.40046e-16 0)
(3 -2.89576e-17 0)
(3 6.15708e-17 0)
(3 1.6984e-16 0)
(3 -3.40623e-16 0)
(3 -5.69962e-16 0)
(3 -1.86988e-16 0)
(3 1.34049e-16 0)
(3 4.11073e-16 0)
(3 -2.55109e-16 0)
(3 -9.81311e-16 0)
(3 -1.14453e-15 0)
(3 -1.1811e-15 0)
(3 -1.62868e-15 0)
(3 -1.28896e-15 0)
(3 -1.56317e-15 0)
(3 -2.60723e-15 0)
(3 -3.2336e-15 0)
(3 -2.89999e-15 0)
(3 -2.0386e-15 0)
(3 -2.01133e-15 0)
(3 -1.92047e-15 0)
(3 -1.58121e-15 0)
(3 -1.37067e-15 0)
(3 -1.81781e-15 0)
(3 -1.94538e-15 0)
(3 -8.69857e-16 0)
(3 1.09743e-15 0)
(3 1.26534e-15 0)
(3 6.99161e-16 0)
(3 -1.72475e-16 0)
(3 -3.5888e-16 0)
(3 -7.78445e-16 0)
(3 -9.88068e-16 0)
(3 -4.0353e-16 0)
(3 -9.17979e-16 0)
(3 -9.82534e-16 0)
(3 -9.78537e-16 0)
(3 -1.16899e-15 0)
(3 -1.83066e-15 0)
(3 -2.19108e-15 0)
(3 -2.75469e-15 0)
(3 -3.26863e-15 0)
(3 -2.59778e-15 0)
(3 -2.61856e-15 0)
(3 -3.11948e-15 0)
(3 -4.22636e-15 0)
(3 -4.94328e-15 0)
(3 -4.1954e-15 0)
(3 -3.44813e-15 0)
(3 -2.7121e-15 0)
(3 -2.01324e-15 0)
(3 -1.02974e-15 0)
(3 -1.22062e-15 0)
(3 -9.63278e-16 0)
(3 -3.1914e-16 0)
(3 7.17429e-17 0)
(3 1.32198e-16 0)
(3 -4.18339e-16 0)
(3 -3.98589e-16 0)
(3 -4.41901e-16 0)
(3 -6.32539e-16 0)
(3 -1.02824e-15 0)
(3 -1.23786e-15 0)
(3 -1.36268e-15 0)
(3 -1.05685e-15 0)
(3 -1.44326e-15 0)
(3 -1.40978e-15 0)
(3 -5.39401e-16 0)
(3 -2.94621e-16 0)
(3 -4.37848e-16 0)
(3 2.96795e-16 0)
(3 8.56665e-16 0)
(3 6.46826e-16 0)
(3 4.27093e-16 0)
(3 -1.37275e-17 0)
(3 4.72177e-17 0)
(3 3.9229e-16 0)
(3 4.36838e-16 0)
(3 7.7865e-16 0)
(3 6.25825e-16 0)
(3 3.32128e-16 0)
(3 1.01284e-16 0)
(3 -2.52588e-16 0)
(3 -6.04572e-16 0)
(3 -1.33354e-15 0)
(3 -1.32942e-15 0)
(3 -4.10401e-16 0)
(3 2.99617e-17 0)
(3 2.12168e-16 0)
(3 2.87662e-17 0)
(3 -3.98337e-16 0)
(3 -3.98423e-16 0)
(3 -2.47338e-16 0)
(3 -4.62387e-17 0)
(3 1.26326e-15 0)
(3 1.42812e-15 0)
(3 8.89609e-16 0)
(3 -4.46197e-17 0)
(3 -7.54477e-16 0)
(3 -1.85257e-15 0)
(3 -2.15969e-15 0)
(3 -1.18877e-15 0)
(3 -9.849e-16 0)
(3 -1.80062e-15 0)
(3 -2.21284e-15 0)
(3 -2.17434e-15 0)
(3 -1.56941e-15 0)
(3 -1.59765e-15 0)
(3 -1.43237e-15 0)
(3 -1.32112e-15 0)
(3 -1.50332e-15 0)
(3 -2.70373e-15 0)
(3 -3.78067e-15 0)
(3 -4.20259e-15 0)
(3 -3.1687e-15 0)
(3 -2.86961e-15 0)
(3 -2.68647e-15 0)
(3 -2.66249e-15 0)
(3 -2.5963e-15 0)
(3 -2.36891e-15 0)
(3 -1.54795e-15 0)
(3 2.05119e-16 0)
(3 1.11566e-15 0)
(3 1.39531e-15 0)
(3 1.00182e-15 0)
(3 -1.59148e-16 0)
(3 -5.35601e-16 0)
(3 -7.21254e-16 0)
(3 -6.90988e-16 0)
(3 -7.68671e-16 0)
(3 -8.79366e-16 0)
(3 -7.71967e-16 0)
(3 -1.41767e-16 0)
(3 -3.096e-16 0)
(3 -3.30076e-15 0)
(3 -4.2761e-15 0)
(3 -3.50354e-15 0)
(3 -4.07464e-15 0)
(3 -4.73446e-15 0)
(3 -5.31068e-15 0)
(3 -5.16326e-15 0)
(3 -5.15191e-15 0)
(3 -4.75378e-15 0)
(3 -3.94682e-15 0)
(3 -3.16143e-15 0)
(3 -2.63526e-15 0)
(3 -2.89134e-15 0)
(3 -3.24559e-15 0)
(3 -2.72779e-15 0)
(3 -1.78244e-15 0)
(3 -1.34286e-15 0)
(3 2.21247e-16 0)
(3 2.41927e-16 0)
(3 3.73907e-16 0)
(3 4.08053e-16 0)
(3 5.87795e-16 0)
(3 7.34429e-16 0)
(3 4.51784e-16 0)
(3 -6.26242e-16 0)
(3 -1.2499e-15 0)
(3 -1.05462e-15 0)
(3 -6.6742e-16 0)
(3 -8.88673e-16 0)
(3 -7.556e-16 0)
(3 -6.54553e-16 0)
(3 -5.66993e-16 0)
(3 -3.54086e-16 0)
(3 6.24414e-16 0)
(3 9.40841e-16 0)
(3 8.33537e-16 0)
(3 8.64297e-16 0)
(3 1.12323e-15 0)
(3 8.52477e-16 0)
(3 1.03221e-15 0)
(3 1.24269e-15 0)
(3 1.30202e-15 0)
(3 1.27539e-15 0)
(3 9.39679e-16 0)
(3 6.20853e-16 0)
(3 -1.38396e-16 0)
(3 -9.05249e-16 0)
(3 -9.09274e-16 0)
(3 -1.2349e-15 0)
(3 -1.61993e-15 0)
(3 -1.70353e-15 0)
(3 -1.74155e-15 0)
(3 -1.67841e-15 0)
(3 -7.08905e-16 0)
(3 6.03232e-16 0)
(3 1.61822e-15 0)
(3 2.15744e-15 0)
(3 1.4612e-15 0)
(3 1.18598e-16 0)
(3 -9.65063e-16 0)
(3 -1.83542e-15 0)
(3 -2.63667e-15 0)
(3 -3.4422e-15 0)
(3 -3.42921e-15 0)
(3 -2.10419e-15 0)
(3 -1.11903e-15 0)
(3 -9.15115e-16 0)
(3 -1.69374e-15 0)
(3 -2.23318e-15 0)
(3 -1.7209e-15 0)
(3 -1.9572e-15 0)
(3 -2.4131e-15 0)
(3 -2.0768e-15 0)
(3 -1.83581e-15 0)
(3 -2.14776e-15 0)
(3 -2.34999e-15 0)
(3 -2.19297e-15 0)
(3 -1.62811e-15 0)
(3 -1.32442e-15 0)
(3 -1.52714e-15 0)
(3 -1.62507e-15 0)
(3 -1.59952e-15 0)
(3 -7.3641e-16 0)
(3 -4.12338e-16 0)
(3 1.55064e-16 0)
(3 7.7455e-16 0)
(3 7.29612e-16 0)
(3 4.89686e-16 0)
(3 1.47971e-16 0)
(3 7.87721e-16 0)
(3 8.45996e-16 0)
(3 6.7258e-16 0)
(3 7.63199e-16 0)
(3 2.92721e-16 0)
(3 7.23931e-17 0)
(3 4.11188e-16 0)
(3 -1.87038e-15 0)
(3 -3.38803e-15 0)
(3 -3.3366e-15 0)
(3 -3.67268e-15 0)
(3 -5.0307e-15 0)
(3 -5.61417e-15 0)
(3 -5.52981e-15 0)
(3 -4.72149e-15 0)
(3 -2.77676e-15 0)
(3 -2.62424e-15 0)
(3 -2.65386e-15 0)
(3 -2.82826e-15 0)
(3 -2.55907e-15 0)
(3 -2.92689e-15 0)
(3 -1.97696e-15 0)
(3 -7.91051e-16 0)
(3 2.46199e-16 0)
(3 -2.15381e-17 0)
(3 -1.45125e-17 0)
(3 -6.49555e-18 0)
(3 8.96132e-17 0)
(3 2.68155e-16 0)
(3 1.34019e-16 0)
(3 1.77323e-16 0)
(3 2.12915e-16 0)
(3 -1.23385e-16 0)
(3 -2.07574e-16 0)
(3 -2.76037e-17 0)
(3 -8.84465e-17 0)
(3 -5.62172e-16 0)
(3 -2.98609e-16 0)
(3 -2.26502e-16 0)
(3 -4.82917e-16 0)
(3 2.43381e-16 0)
(3 5.03501e-16 0)
(3 -7.5295e-17 0)
(3 -5.77232e-16 0)
(3 -5.21005e-16 0)
(3 -3.45527e-16 0)
(3 4.26537e-16 0)
(3 6.92688e-16 0)
(3 1.53953e-15 0)
(3 2.81567e-15 0)
(3 2.66433e-15 0)
(3 1.58469e-15 0)
(3 2.17765e-16 0)
(3 -5.68132e-17 0)
(3 -3.14221e-16 0)
(3 -4.61827e-16 0)
(3 -7.21884e-16 0)
(3 -1.37099e-15 0)
(3 -1.73849e-15 0)
(3 -1.64604e-15 0)
(3 -1.23665e-15 0)
(3 -7.80178e-16 0)
(3 1.93569e-16 0)
(3 1.29463e-16 0)
(3 1.912e-16 0)
(3 -1.33942e-16 0)
(3 -8.06823e-16 0)
(3 -1.15184e-15 0)
(3 -1.16047e-15 0)
(3 -2.45565e-15 0)
(3 -2.63849e-15 0)
(3 -1.02446e-15 0)
(3 -3.29737e-17 0)
(3 -1.95417e-16 0)
(3 -3.90477e-16 0)
(3 -5.74523e-16 0)
(3 -5.96935e-16 0)
(3 -1.10372e-15 0)
(3 -1.74643e-15 0)
(3 -1.8093e-15 0)
(3 -1.28091e-15 0)
(3 -1.41362e-15 0)
(3 -9.58378e-16 0)
(3 -4.42524e-16 0)
(3 -1.01424e-16 0)
(3 2.10392e-17 0)
(3 -7.31733e-16 0)
(3 -1.24431e-15 0)
(3 -1.58164e-15 0)
(3 -1.66713e-15 0)
(3 -1.5028e-15 0)
(3 -7.43523e-16 0)
(3 1.72757e-16 0)
(3 1.19647e-15 0)
(3 1.90975e-15 0)
(3 1.90885e-15 0)
(3 2.01186e-15 0)
(3 1.95206e-15 0)
(3 8.74519e-16 0)
(3 5.57553e-16 0)
(3 7.91198e-16 0)
(3 8.43179e-16 0)
(3 -1.75485e-16 0)
(3 -7.65468e-16 0)
(3 -2.03857e-15 0)
(3 -3.05119e-15 0)
(3 -3.67266e-15 0)
(3 -3.91133e-15 0)
(3 -3.29781e-15 0)
(3 -2.62538e-15 0)
(3 -1.74266e-15 0)
(3 -1.63572e-15 0)
(3 -1.61333e-15 0)
(3 -1.17959e-15 0)
(3 -1.07044e-15 0)
(3 -1.29944e-15 0)
(3 -1.20136e-15 0)
(3 -9.1684e-16 0)
(3 2.17738e-16 0)
(3 1.40157e-15 0)
(3 -1.21852e-16 0)
(3 -8.82169e-18 0)
(3 -2.37735e-16 0)
(3 -1.14932e-16 0)
(3 -2.12166e-16 0)
(3 -3.41681e-16 0)
(3 -2.00333e-16 0)
(3 7.05701e-16 0)
(3 8.48656e-16 0)
(3 8.48248e-16 0)
(3 8.47559e-16 0)
(3 1.16308e-15 0)
(3 9.29344e-16 0)
(3 -6.06173e-17 0)
(3 -5.89427e-16 0)
(3 -3.36234e-16 0)
(3 -4.38182e-16 0)
(3 -6.0542e-16 0)
(3 -6.61747e-16 0)
(3 -9.41397e-16 0)
(3 -1.74231e-15 0)
(3 -2.07338e-15 0)
(3 -1.85397e-15 0)
(3 -1.57638e-15 0)
(3 -4.79874e-16 0)
(3 2.98106e-16 0)
(3 7.02335e-16 0)
(3 4.9383e-16 0)
(3 1.618e-16 0)
(3 1.08242e-16 0)
(3 -4.55971e-16 0)
(3 -3.00707e-16 0)
(3 -3.09602e-16 0)
(3 -2.94448e-17 0)
(3 -1.51598e-16 0)
(3 -5.74037e-16 0)
(3 -8.51179e-16 0)
(3 -5.52676e-16 0)
(3 2.04291e-17 0)
(3 -2.447e-16 0)
(3 -5.45836e-16 0)
(3 -4.00136e-16 0)
(3 -2.35274e-16 0)
(3 -1.45389e-16 0)
(3 -2.54073e-16 0)
(3 -4.20573e-16 0)
(3 -7.008e-16 0)
(3 -6.59736e-16 0)
(3 -4.13944e-16 0)
(3 -2.04049e-16 0)
(3 -3.38357e-17 0)
(3 -7.03433e-17 0)
(3 -1.75402e-16 0)
(3 -2.78115e-16 0)
(3 2.20723e-17 0)
(3 5.2092e-17 0)
(3 2.62596e-16 0)
(3 4.30509e-16 0)
(3 -2.98597e-17 0)
(3 -4.09032e-16 0)
(3 -4.06493e-16 0)
(3 -4.99413e-16 0)
(3 -8.46256e-16 0)
(3 -1.12334e-15 0)
(3 -1.57653e-15 0)
(3 -1.32544e-15 0)
(3 -1.0824e-15 0)
(3 -6.03825e-16 0)
(3 -2.31737e-16 0)
(3 8.80508e-16 0)
(3 2.31412e-15 0)
(3 2.90797e-15 0)
(3 2.84414e-15 0)
(3 2.81684e-15 0)
(3 2.03812e-15 0)
(3 1.46384e-15 0)
(3 1.44581e-15 0)
(3 1.46056e-15 0)
(3 8.7125e-16 0)
(3 -1.44917e-16 0)
(3 -1.64614e-15 0)
(3 -2.19631e-15 0)
(3 -2.73572e-15 0)
(3 -2.85114e-15 0)
(3 -1.80095e-15 0)
(3 -1.40684e-15 0)
(3 -5.75306e-16 0)
(3 -4.63931e-16 0)
(3 -2.33664e-16 0)
(3 8.61317e-17 0)
(3 2.39852e-16 0)
(3 -6.87853e-17 0)
(3 -2.14344e-16 0)
(3 2.18284e-16 0)
(3 5.55199e-16 0)
(3 8.80129e-16 0)
(3 9.73095e-17 0)
(3 7.54319e-16 0)
(3 1.28337e-15 0)
(3 9.3442e-16 0)
(3 1.03979e-16 0)
(3 -1.63462e-17 0)
(3 2.21321e-16 0)
(3 3.77637e-16 0)
(3 6.37818e-16 0)
(3 7.18555e-17 0)
(3 2.74385e-16 0)
(3 5.10966e-16 0)
(3 5.87558e-16 0)
(3 -6.22979e-17 0)
(3 -1.64848e-16 0)
(3 1.63382e-16 0)
(3 2.47652e-16 0)
(3 3.90761e-16 0)
(3 7.062e-16 0)
(3 7.76756e-16 0)
(3 5.48405e-16 0)
(3 3.42625e-18 0)
(3 -1.23349e-15 0)
(3 -1.84885e-15 0)
(3 -3.02437e-15 0)
(3 -2.89987e-15 0)
(3 -1.82962e-15 0)
(3 -8.45479e-16 0)
(3 1.17283e-16 0)
(3 2.73255e-16 0)
(3 -3.24051e-16 0)
(3 -4.93737e-16 0)
(3 -2.50316e-16 0)
(3 1.33944e-16 0)
(3 2.35812e-16 0)
(3 2.47274e-16 0)
(3 3.63894e-16 0)
(3 3.93332e-16 0)
(3 -6.05073e-17 0)
(3 -8.18292e-16 0)
(3 -1.06961e-15 0)
(3 -1.24594e-15 0)
(3 -7.88165e-16 0)
(3 -2.94379e-16 0)
(3 -2.10242e-16 0)
(3 6.74647e-16 0)
(3 -2.20333e-16 0)
(3 -1.05277e-15 0)
(3 -1.21046e-15 0)
(3 -1.12487e-15 0)
(3 -1.04943e-15 0)
(3 -8.66806e-16 0)
(3 -7.01646e-16 0)
(3 -6.05607e-16 0)
(3 3.60616e-16 0)
(3 9.99995e-16 0)
(3 7.37377e-16 0)
(3 4.98811e-17 0)
(3 -8.6236e-16 0)
(3 -1.57371e-15 0)
(3 -1.95307e-15 0)
(3 -1.8541e-15 0)
(3 -1.65933e-15 0)
(3 -1.25664e-15 0)
(3 -1.13214e-15 0)
(3 -1.20096e-15 0)
(3 -4.07823e-16 0)
(3 3.74432e-16 0)
(3 3.03278e-16 0)
(3 2.76816e-16 0)
(3 1.39086e-15 0)
(3 2.46918e-15 0)
(3 2.66113e-15 0)
(3 2.68029e-15 0)
(3 2.79172e-15 0)
(3 2.34532e-15 0)
(3 1.84672e-15 0)
(3 7.58482e-16 0)
(3 7.65989e-16 0)
(3 -9.7684e-18 0)
(3 -2.30795e-15 0)
(3 -2.98501e-15 0)
(3 -2.02342e-15 0)
(3 -2.54233e-15 0)
(3 -2.39924e-15 0)
(3 -1.46729e-15 0)
(3 -9.9321e-16 0)
(3 -9.28121e-16 0)
(3 1.75157e-16 0)
(3 1.21581e-16 0)
(3 3.76618e-17 0)
(3 4.05919e-16 0)
(3 6.02631e-16 0)
(3 1.30078e-15 0)
(3 1.01345e-15 0)
(3 5.81101e-16 0)
(3 -1.05483e-16 0)
(3 -2.35272e-16 0)
(3 -1.80822e-16 0)
(3 -3.61308e-16 0)
(3 -2.03042e-16 0)
(3 1.61737e-16 0)
(3 4.89941e-16 0)
(3 9.73072e-16 0)
(3 1.0096e-15 0)
(3 3.80155e-16 0)
(3 -4.52838e-17 0)
(3 -5.7215e-19 0)
(3 2.51732e-16 0)
(3 1.12355e-15 0)
(3 6.29146e-16 0)
(3 6.96421e-16 0)
(3 1.31653e-15 0)
(3 1.91615e-15 0)
(3 2.25254e-15 0)
(3 1.80928e-15 0)
(3 2.12315e-15 0)
(3 1.74469e-15 0)
(3 -3.94205e-16 0)
(3 -2.22586e-15 0)
(3 -2.39748e-15 0)
(3 -1.98038e-15 0)
(3 -1.2027e-15 0)
(3 -6.81372e-17 0)
(3 3.45305e-16 0)
(3 1.08494e-15 0)
(3 1.08415e-15 0)
(3 6.28978e-16 0)
(3 4.36593e-16 0)
(3 1.19152e-16 0)
(3 -5.49996e-16 0)
(3 -1.15992e-15 0)
(3 -9.89018e-16 0)
(3 -1.03744e-15 0)
(3 -1.19837e-15 0)
(3 -1.0352e-15 0)
(3 -3.9473e-16 0)
(3 -6.22063e-16 0)
(3 -5.32231e-16 0)
(3 -3.62373e-16 0)
(3 2.93069e-16 0)
(3 9.27523e-16 0)
(3 6.29296e-16 0)
(3 1.3276e-16 0)
(3 -2.12008e-16 0)
(3 -4.41052e-16 0)
(3 -1.03603e-15 0)
(3 -7.76492e-16 0)
(3 -8.02725e-16 0)
(3 -5.06065e-16 0)
(3 -6.32617e-16 0)
(3 -8.50039e-16 0)
(3 -9.82228e-16 0)
(3 -1.31337e-15 0)
(3 -1.19556e-15 0)
(3 -1.44559e-15 0)
(3 -1.96809e-15 0)
(3 -2.93841e-15 0)
(3 -2.8526e-15 0)
(3 -2.26695e-15 0)
(3 -1.78686e-15 0)
(3 -1.00518e-15 0)
(3 4.06143e-17 0)
(3 5.51683e-18 0)
(3 -1.17054e-15 0)
(3 -5.92194e-16 0)
(3 -2.74983e-16 0)
(3 4.04399e-16 0)
(3 1.10594e-15 0)
(3 1.18403e-15 0)
(3 1.22117e-15 0)
(3 9.68933e-16 0)
(3 9.6732e-16 0)
(3 8.64159e-16 0)
(3 7.51689e-16 0)
(3 2.04053e-16 0)
(3 -5.92366e-16 0)
(3 -6.67976e-16 0)
(3 -6.48803e-16 0)
(3 -2.36503e-16 0)
(3 -1.53287e-16 0)
(3 2.89539e-16 0)
(3 2.59077e-16 0)
(3 1.20383e-16 0)
(3 7.63824e-16 0)
(3 9.72595e-16 0)
(3 8.61835e-16 0)
(3 8.65736e-16 0)
(3 9.68435e-16 0)
(3 6.97944e-16 0)
(3 4.30332e-16 0)
(3 -2.81792e-16 0)
(3 -1.97596e-16 0)
(3 -6.39926e-16 0)
(3 -5.55546e-16 0)
(3 -4.73271e-16 0)
(3 6.24345e-17 0)
(3 1.01947e-15 0)
(3 1.50515e-15 0)
(3 2.03024e-15 0)
(3 1.63055e-15 0)
(3 9.71627e-16 0)
(3 6.12376e-16 0)
(3 3.12113e-16 0)
(3 6.60882e-16 0)
(3 4.24789e-16 0)
(3 1.56918e-16 0)
(3 2.79921e-16 0)
(3 4.60254e-16 0)
(3 6.99133e-16 0)
(3 1.27461e-15 0)
(3 1.70073e-15 0)
(3 1.93926e-15 0)
(3 1.02635e-15 0)
(3 1.4754e-16 0)
(3 -7.26168e-17 0)
(3 7.55153e-16 0)
(3 6.50563e-16 0)
(3 5.34972e-16 0)
(3 7.58036e-16 0)
(3 5.52903e-16 0)
(3 8.67123e-16 0)
(3 1.28119e-15 0)
(3 1.25953e-15 0)
(3 1.01676e-15 0)
(3 7.38112e-16 0)
(3 2.2103e-16 0)
(3 -3.8621e-16 0)
(3 -3.35685e-19 0)
(3 3.39271e-16 0)
(3 5.2955e-16 0)
(3 6.64617e-17 0)
(3 1.25702e-16 0)
(3 2.68826e-16 0)
(3 -2.76179e-16 0)
(3 -5.74149e-16 0)
(3 -5.713e-16 0)
(3 -2.06052e-16 0)
(3 -1.1615e-16 0)
(3 -3.30007e-16 0)
(3 -3.09992e-16 0)
(3 -8.06636e-16 0)
(3 -4.68678e-16 0)
(3 -5.65806e-16 0)
(3 -7.98334e-16 0)