/*--------------------------------*- C++ -*----------------------------------*\
  =========                 |
  \\      /  F ield         | OpenFOAM: The Open Source CFD Toolbox
   \\    /   O peration     | Website:  https://openfoam.org
    \\  /    A nd           | Version:  7
     \\/     M anipulation  |
\*---------------------------------------------------------------------------*/
FoamFile
{
    version     2.0;
    format      ascii;
    class       volVectorField;
    location    "2.9";
    object      U;
}
// * * * * * * * * * * * * * * * * * * * * * * * * * * * * * * * * * * * * * //

dimensions      [0 1 -1 0 0 0 0];

internalField   nonuniform List<vector> 
73728
(
(3 6.6505e-17 0)
(3 1.01454e-16 0)
(3 -1.94502e-16 0)
(3 -4.76168e-16 0)
(3 -4.45983e-16 0)
(3 -2.94371e-16 0)
(3 -9.31963e-17 0)
(3 -9.59168e-17 0)
(3 -2.50021e-16 0)
(3 -4.90005e-16 0)
(3 -4.81144e-16 0)
(3 1.77551e-16 0)
(3 1.50746e-16 0)
(3 1.19273e-16 0)
(3 -3.21553e-16 0)
(3 -4.81828e-16 0)
(3 -6.56857e-16 0)
(3 -6.72634e-16 0)
(3 -5.26137e-16 0)
(3 -3.19904e-16 0)
(3 3.2794e-16 0)
(3 4.00703e-16 0)
(3 3.21198e-16 0)
(3 -3.74256e-17 0)
(3 -1.28913e-16 0)
(3 -2.55216e-16 0)
(3 5.82786e-16 0)
(3 1.76771e-16 0)
(3 -5.71533e-17 0)
(3 1.03633e-15 0)
(3 1.73593e-15 0)
(3 1.82109e-15 0)
(3 1.93151e-15 0)
(3 1.76658e-15 0)
(3 1.50048e-15 0)
(3 9.36283e-16 0)
(3 9.62152e-16 0)
(3 9.23575e-16 0)
(3 5.63103e-16 0)
(3 5.01203e-16 0)
(3 6.25274e-16 0)
(3 1.66157e-15 0)
(3 5.41903e-16 0)
(3 9.78737e-16 0)
(3 1.75891e-15 0)
(3 2.10256e-15 0)
(3 2.63326e-15 0)
(3 2.66851e-15 0)
(3 2.46842e-15 0)
(3 2.16264e-15 0)
(3 3.04613e-15 0)
(3 2.924e-15 0)
(3 2.44662e-15 0)
(3 2.51999e-15 0)
(3 2.1265e-15 0)
(3 4.1456e-16 0)
(3 -7.41462e-16 0)
(3 -9.69683e-16 0)
(3 -4.99238e-16 0)
(3 1.49277e-17 0)
(3 3.87129e-16 0)
(3 6.43141e-16 0)
(3 -8.89019e-16 0)
(3 -1.9563e-15 0)
(3 -1.89857e-15 0)
(3 -5.48927e-16 0)
(3 7.23056e-16 0)
(3 1.9416e-15 0)
(3 2.6172e-15 0)
(3 2.66748e-15 0)
(3 1.36525e-15 0)
(3 1.25732e-15 0)
(3 2.04799e-16 0)
(3 -7.16683e-16 0)
(3 -1.29152e-15 0)
(3 -1.0965e-15 0)
(3 -8.42039e-16 0)
(3 -1.21209e-15 0)
(3 -1.55732e-15 0)
(3 -1.34739e-15 0)
(3 -1.06722e-15 0)
(3 -2.45671e-15 0)
(3 -2.79198e-15 0)
(3 -1.22168e-15 0)
(3 -7.04706e-16 0)
(3 -7.65767e-17 0)
(3 6.50431e-16 0)
(3 1.80654e-15 0)
(3 2.34081e-15 0)
(3 1.56201e-15 0)
(3 1.53036e-15 0)
(3 2.40103e-15 0)
(3 2.1593e-15 0)
(3 9.6248e-16 0)
(3 1.4874e-16 0)
(3 1.08035e-15 0)
(3 4.03197e-17 0)
(3 1.26624e-16 0)
(3 -3.86174e-16 0)
(3 -6.19994e-16 0)
(3 -1.29495e-15 0)
(3 -1.30297e-15 0)
(3 -6.91735e-16 0)
(3 -3.29196e-16 0)
(3 -1.04636e-15 0)
(3 -9.87959e-16 0)
(3 -6.36053e-16 0)
(3 4.21339e-18 0)
(3 -8.13826e-17 0)
(3 7.03079e-17 0)
(3 -1.28792e-16 0)
(3 -1.06393e-16 0)
(3 -4.43732e-16 0)
(3 -1.05492e-15 0)
(3 -1.21627e-15 0)
(3 -5.74229e-16 0)
(3 -1.73933e-17 0)
(3 3.1167e-16 0)
(3 2.21801e-16 0)
(3 -6.20811e-17 0)
(3 -3.26322e-17 0)
(3 4.37974e-16 0)
(3 1.39082e-15 0)
(3 5.85927e-16 0)
(3 5.11286e-17 0)
(3 -1.0404e-16 0)
(3 2.1677e-15 0)
(3 2.30328e-15 0)
(3 2.22418e-15 0)
(3 2.36715e-15 0)
(3 1.96077e-15 0)
(3 1.36805e-15 0)
(3 5.38966e-16 0)
(3 5.69416e-16 0)
(3 2.42201e-16 0)
(3 -3.3166e-16 0)
(3 -7.28954e-16 0)
(3 1.07633e-15 0)
(3 2.34165e-15 0)
(3 2.81622e-15 0)
(3 4.62291e-15 0)
(3 5.51671e-15 0)
(3 6.91947e-15 0)
(3 7.47184e-15 0)
(3 6.3237e-15 0)
(3 6.40824e-15 0)
(3 7.51037e-15 0)
(3 5.59986e-15 0)
(3 6.0666e-16 0)
(3 -1.0593e-16 0)
(3 -3.25337e-16 0)
(3 -2.99431e-15 0)
(3 -5.25371e-15 0)
(3 -2.67046e-15 0)
(3 8.85637e-16 0)
(3 1.42646e-15 0)
(3 1.68404e-15 0)
(3 1.0002e-15 0)
(3 -4.22909e-17 0)
(3 -1.3754e-15 0)
(3 -1.39863e-15 0)
(3 1.63064e-15 0)
(3 4.1396e-15 0)
(3 6.72622e-15 0)
(3 6.32804e-15 0)
(3 3.2318e-15 0)
(3 7.26031e-16 0)
(3 -1.05029e-16 0)
(3 -1.29684e-15 0)
(3 -2.1366e-15 0)
(3 -1.93344e-15 0)
(3 -1.99415e-15 0)
(3 -2.08756e-15 0)
(3 -2.30236e-15 0)
(3 -3.42962e-15 0)
(3 -4.1853e-15 0)
(3 -5.53253e-15 0)
(3 -7.8013e-15 0)
(3 -5.25105e-15 0)
(3 -1.0899e-15 0)
(3 -2.46698e-16 0)
(3 1.13919e-15 0)
(3 2.13548e-15 0)
(3 2.7441e-15 0)
(3 2.07782e-15 0)
(3 1.39385e-15 0)
(3 1.34118e-15 0)
(3 1.86214e-15 0)
(3 1.18855e-15 0)
(3 7.81921e-16 0)
(3 9.65189e-16 0)
(3 3.01484e-15 0)
(3 -4.88847e-17 0)
(3 -1.94927e-16 0)
(3 5.53277e-17 0)
(3 -4.30926e-17 0)
(3 -1.36661e-16 0)
(3 -1.25945e-16 0)
(3 -2.72327e-16 0)
(3 -1.7866e-16 0)
(3 -5.02522e-16 0)
(3 -2.59783e-16 0)
(3 -5.32355e-17 0)
(3 -2.04023e-16 0)
(3 -3.99071e-16 0)
(3 -3.98537e-16 0)
(3 -1.75923e-16 0)
(3 7.3214e-16 0)
(3 7.27941e-16 0)
(3 2.01253e-16 0)
(3 -2.21729e-16 0)
(3 -1.0137e-15 0)
(3 -9.57612e-16 0)
(3 3.94066e-16 0)
(3 7.72538e-16 0)
(3 9.01209e-16 0)
(3 5.86988e-16 0)
(3 8.54522e-16 0)
(3 6.93148e-16 0)
(3 1.02811e-15 0)
(3 9.25363e-16 0)
(3 6.77459e-16 0)
(3 1.80402e-15 0)
(3 2.46267e-15 0)
(3 1.50247e-15 0)
(3 1.11573e-15 0)
(3 1.18254e-15 0)
(3 4.03921e-16 0)
(3 -1.55514e-15 0)
(3 -1.89368e-15 0)
(3 -1.65037e-15 0)
(3 -2.02723e-15 0)
(3 -1.75517e-15 0)
(3 -6.16652e-16 0)
(3 3.84362e-15 0)
(3 6.24507e-15 0)
(3 6.86451e-15 0)
(3 6.93897e-15 0)
(3 7.28645e-15 0)
(3 7.07972e-15 0)
(3 6.85687e-15 0)
(3 8.13596e-15 0)
(3 9.14366e-15 0)
(3 7.09054e-15 0)
(3 2.30987e-15 0)
(3 -5.18763e-16 0)
(3 -1.26907e-15 0)
(3 -2.45136e-15 0)
(3 -3.8162e-15 0)
(3 -1.19434e-15 0)
(3 7.02864e-17 0)
(3 2.12042e-16 0)
(3 -8.96867e-17 0)
(3 -1.82643e-15 0)
(3 -2.0908e-16 0)
(3 1.26981e-15 0)
(3 1.85902e-15 0)
(3 4.24822e-15 0)
(3 6.27553e-15 0)
(3 8.09627e-15 0)
(3 7.30307e-15 0)
(3 5.29317e-15 0)
(3 3.67829e-15 0)
(3 2.21948e-15 0)
(3 1.62178e-15 0)
(3 7.98968e-16 0)
(3 6.59227e-16 0)
(3 -1.17638e-15 0)
(3 -2.82195e-15 0)
(3 -4.11204e-15 0)
(3 -5.09497e-15 0)
(3 -6.47196e-15 0)
(3 -8.01497e-15 0)
(3 -8.51092e-15 0)
(3 -7.45253e-15 0)
(3 -2.05851e-15 0)
(3 2.53031e-15 0)
(3 4.22009e-15 0)
(3 4.70574e-15 0)
(3 3.39956e-15 0)
(3 8.39686e-16 0)
(3 1.85867e-15 0)
(3 1.65833e-15 0)
(3 1.2763e-15 0)
(3 2.49791e-15 0)
(3 3.61052e-15 0)
(3 4.43043e-15 0)
(3 6.02354e-15 0)
(3 -2.71442e-17 0)
(3 -5.87757e-18 0)
(3 6.67536e-17 0)
(3 5.88074e-17 0)
(3 2.95255e-16 0)
(3 5.30879e-16 0)
(3 3.86313e-16 0)
(3 -3.83614e-17 0)
(3 -1.10528e-16 0)
(3 3.14583e-17 0)
(3 -6.90576e-16 0)
(3 -9.91471e-16 0)
(3 -8.43591e-16 0)
(3 -1.26952e-15 0)
(3 -1.30211e-15 0)
(3 -1.00239e-15 0)
(3 -7.07205e-16 0)
(3 -5.05193e-16 0)
(3 -6.13856e-16 0)
(3 -1.79183e-15 0)
(3 -2.11638e-15 0)
(3 -1.51627e-15 0)
(3 -2.73175e-17 0)
(3 1.60338e-15 0)
(3 2.54507e-15 0)
(3 1.88235e-15 0)
(3 1.41112e-15 0)
(3 1.9179e-15 0)
(3 2.12652e-15 0)
(3 1.63625e-15 0)
(3 1.08295e-15 0)
(3 1.27872e-15 0)
(3 8.77876e-16 0)
(3 2.96126e-16 0)
(3 3.71417e-17 0)
(3 -6.74146e-16 0)
(3 -6.49762e-16 0)
(3 -1.34166e-15 0)
(3 -1.42349e-15 0)
(3 -9.0646e-16 0)
(3 2.29169e-16 0)
(3 2.37924e-15 0)
(3 4.07813e-15 0)
(3 5.77802e-15 0)
(3 6.4094e-15 0)
(3 5.60322e-15 0)
(3 5.46065e-15 0)
(3 6.76115e-15 0)
(3 8.72839e-15 0)
(3 9.16931e-15 0)
(3 7.22263e-15 0)
(3 4.78157e-15 0)
(3 2.36515e-15 0)
(3 3.07175e-16 0)
(3 -9.37037e-16 0)
(3 -1.08799e-15 0)
(3 -9.32268e-16 0)
(3 -1.60962e-15 0)
(3 -1.41463e-15 0)
(3 -7.67914e-16 0)
(3 -5.43079e-16 0)
(3 -2.8849e-15 0)
(3 -2.48625e-15 0)
(3 7.05882e-16 0)
(3 2.58705e-15 0)
(3 3.85572e-15 0)
(3 4.88108e-15 0)
(3 5.59686e-15 0)
(3 5.87818e-15 0)
(3 5.45046e-15 0)
(3 5.50723e-15 0)
(3 4.73412e-15 0)
(3 4.15503e-15 0)
(3 3.72851e-15 0)
(3 2.1935e-15 0)
(3 -1.21632e-16 0)
(3 -2.97769e-15 0)
(3 -5.07199e-15 0)
(3 -5.99995e-15 0)
(3 -6.378e-15 0)
(3 -6.64217e-15 0)
(3 -6.98585e-15 0)
(3 -6.90038e-15 0)
(3 -6.15348e-15 0)
(3 2.10893e-15 0)
(3 6.38207e-15 0)
(3 6.33037e-15 0)
(3 6.20129e-15 0)
(3 3.65677e-15 0)
(3 2.21162e-15 0)
(3 2.10564e-15 0)
(3 1.92983e-15 0)
(3 2.23928e-15 0)
(3 3.64652e-15 0)
(3 4.96547e-15 0)
(3 6.61088e-15 0)
(3 -6.38514e-17 0)
(3 5.42831e-18 0)
(3 1.25489e-18 0)
(3 9.76137e-16 0)
(3 9.87114e-16 0)
(3 6.00682e-16 0)
(3 3.28249e-16 0)
(3 3.51806e-17 0)
(3 -3.14795e-17 0)
(3 9.38016e-17 0)
(3 -4.06139e-16 0)
(3 -1.03244e-15 0)
(3 -6.16086e-16 0)
(3 -8.98916e-16 0)
(3 -1.11821e-15 0)
(3 -1.02415e-15 0)
(3 -7.32249e-16 0)
(3 -5.00526e-16 0)
(3 -7.73588e-16 0)
(3 -1.31267e-15 0)
(3 -1.13087e-15 0)
(3 -8.40132e-16 0)
(3 2.51038e-16 0)
(3 1.11763e-15 0)
(3 2.17047e-15 0)
(3 3.22395e-15 0)
(3 4.31127e-15 0)
(3 4.45872e-15 0)
(3 4.05864e-15 0)
(3 2.11108e-15 0)
(3 1.54159e-15 0)
(3 1.90945e-16 0)
(3 -4.8318e-16 0)
(3 -4.7396e-16 0)
(3 -4.72824e-17 0)
(3 2.14859e-16 0)
(3 -2.08006e-16 0)
(3 -1.39775e-15 0)
(3 -1.78877e-15 0)
(3 -1.77921e-15 0)
(3 -6.66275e-16 0)
(3 1.91735e-15 0)
(3 3.5394e-15 0)
(3 4.21474e-15 0)
(3 4.60827e-15 0)
(3 4.02644e-15 0)
(3 4.47838e-15 0)
(3 6.10889e-15 0)
(3 7.17621e-15 0)
(3 7.15222e-15 0)
(3 5.67138e-15 0)
(3 5.34402e-15 0)
(3 4.66435e-15 0)
(3 3.1163e-15 0)
(3 1.90283e-15 0)
(3 1.77478e-15 0)
(3 4.6528e-16 0)
(3 -4.58079e-16 0)
(3 -5.71973e-16 0)
(3 7.07203e-16 0)
(3 5.38678e-16 0)
(3 -1.71362e-15 0)
(3 -4.12567e-15 0)
(3 -4.51561e-15 0)
(3 8.55833e-16 0)
(3 4.30396e-15 0)
(3 4.6733e-15 0)
(3 4.83248e-15 0)
(3 4.69804e-15 0)
(3 4.90409e-15 0)
(3 5.1177e-15 0)
(3 3.86432e-15 0)
(3 2.25759e-15 0)
(3 2.65491e-15 0)
(3 1.99426e-15 0)
(3 -1.00197e-15 0)
(3 -3.11531e-15 0)
(3 -5.50407e-15 0)
(3 -6.13512e-15 0)
(3 -6.55573e-15 0)
(3 -6.01853e-15 0)
(3 -4.46791e-15 0)
(3 -4.1292e-15 0)
(3 -4.79728e-15 0)
(3 -2.10298e-15 0)
(3 4.59482e-15 0)
(3 6.00922e-15 0)
(3 4.47833e-15 0)
(3 3.61575e-15 0)
(3 2.67887e-15 0)
(3 2.66056e-15 0)
(3 2.90341e-15 0)
(3 3.16804e-15 0)
(3 3.5242e-15 0)
(3 4.74618e-15 0)
(3 8.03425e-15 0)
(3 6.93062e-17 0)
(3 1.31921e-16 0)
(3 1.05242e-15 0)
(3 1.79655e-15 0)
(3 1.64375e-15 0)
(3 1.26828e-15 0)
(3 2.87924e-16 0)
(3 -1.44894e-16 0)
(3 -2.38297e-16 0)
(3 -1.16412e-16 0)
(3 -7.39446e-16 0)
(3 -4.19512e-16 0)
(3 1.14292e-16 0)
(3 7.89209e-16 0)
(3 2.74194e-16 0)
(3 -2.62985e-17 0)
(3 7.47914e-16 0)
(3 7.71903e-16 0)
(3 5.10154e-16 0)
(3 3.73541e-16 0)
(3 9.16412e-16 0)
(3 9.94561e-16 0)
(3 7.69674e-16 0)
(3 1.58899e-15 0)
(3 2.28054e-15 0)
(3 2.86897e-15 0)
(3 2.27882e-15 0)
(3 1.40376e-15 0)
(3 1.17689e-15 0)
(3 1.53914e-15 0)
(3 1.30926e-15 0)
(3 6.6815e-16 0)
(3 7.38863e-17 0)
(3 -2.99468e-16 0)
(3 -5.38622e-16 0)
(3 -7.24461e-16 0)
(3 -1.4759e-15 0)
(3 -1.46727e-15 0)
(3 -1.26103e-15 0)
(3 -1.5162e-15 0)
(3 -1.02227e-15 0)
(3 1.61983e-15 0)
(3 2.02511e-15 0)
(3 2.09045e-15 0)
(3 2.33042e-15 0)
(3 1.70229e-15 0)
(3 2.25765e-15 0)
(3 3.64045e-15 0)
(3 4.47264e-15 0)
(3 4.60124e-15 0)
(3 4.16547e-15 0)
(3 4.27816e-15 0)
(3 4.54876e-15 0)
(3 3.34267e-15 0)
(3 1.47585e-15 0)
(3 7.7423e-16 0)
(3 1.10287e-15 0)
(3 1.31771e-15 0)
(3 1.5254e-15 0)
(3 1.00296e-15 0)
(3 -1.29579e-16 0)
(3 -7.7789e-16 0)
(3 -3.49752e-15 0)
(3 -3.20874e-15 0)
(3 4.03916e-15 0)
(3 5.49093e-15 0)
(3 6.35158e-15 0)
(3 6.36758e-15 0)
(3 6.06788e-15 0)
(3 5.63729e-15 0)
(3 4.66604e-15 0)
(3 3.21045e-15 0)
(3 2.60713e-15 0)
(3 2.59269e-15 0)
(3 3.78378e-16 0)
(3 -2.80985e-15 0)
(3 -4.09678e-15 0)
(3 -5.17262e-15 0)
(3 -5.50042e-15 0)
(3 -5.92405e-15 0)
(3 -6.17406e-15 0)
(3 -5.99708e-15 0)
(3 -5.59928e-15 0)
(3 -5.22243e-15 0)
(3 -3.12788e-15 0)
(3 -5.02037e-16 0)
(3 1.05042e-15 0)
(3 9.23115e-16 0)
(3 9.60631e-16 0)
(3 3.60854e-16 0)
(3 1.0005e-16 0)
(3 2.90825e-15 0)
(3 3.93593e-15 0)
(3 3.94096e-15 0)
(3 3.97338e-15 0)
(3 7.10183e-15 0)
(3 1.50556e-17 0)
(3 -5.76341e-17 0)
(3 -8.81964e-17 0)
(3 4.08117e-17 0)
(3 7.43218e-16 0)
(3 2.7444e-16 0)
(3 1.89766e-16 0)
(3 -3.48929e-16 0)
(3 -1.24459e-15 0)
(3 -1.34227e-15 0)
(3 -1.44767e-15 0)
(3 5.00506e-16 0)
(3 1.3362e-15 0)
(3 1.61999e-15 0)
(3 1.6601e-15 0)
(3 1.53325e-15 0)
(3 1.65535e-15 0)
(3 1.68894e-15 0)
(3 1.55859e-15 0)
(3 1.93398e-15 0)
(3 4.44535e-16 0)
(3 -4.2422e-16 0)
(3 -4.93612e-16 0)
(3 9.68847e-16 0)
(3 2.32072e-15 0)
(3 1.22485e-15 0)
(3 5.08864e-17 0)
(3 -8.55008e-16 0)
(3 -4.34694e-16 0)
(3 2.8297e-16 0)
(3 1.20663e-15 0)
(3 1.9048e-15 0)
(3 1.06302e-15 0)
(3 -2.62224e-16 0)
(3 -1.27745e-15 0)
(3 -1.98853e-15 0)
(3 -1.4384e-15 0)
(3 -3.72117e-16 0)
(3 -3.15966e-16 0)
(3 -6.26595e-16 0)
(3 -1.05987e-15 0)
(3 -4.23568e-17 0)
(3 2.42219e-16 0)
(3 3.86116e-16 0)
(3 5.18078e-16 0)
(3 -1.3622e-16 0)
(3 -3.89454e-16 0)
(3 -2.51984e-17 0)
(3 6.43405e-17 0)
(3 5.16033e-16 0)
(3 1.77368e-15 0)
(3 3.25552e-15 0)
(3 3.52227e-15 0)
(3 3.34145e-15 0)
(3 2.18691e-15 0)
(3 1.35681e-15 0)
(3 1.32752e-15 0)
(3 9.39143e-16 0)
(3 -1.58836e-16 0)
(3 -1.19409e-15 0)
(3 7.24106e-18 0)
(3 1.1391e-15 0)
(3 -1.64345e-16 0)
(3 7.53378e-17 0)
(3 3.65643e-15 0)
(3 4.97139e-15 0)
(3 5.63038e-15 0)
(3 6.70416e-15 0)
(3 6.10969e-15 0)
(3 3.80016e-15 0)
(3 3.54643e-15 0)
(3 3.6599e-15 0)
(3 3.06767e-15 0)
(3 1.61117e-15 0)
(3 -1.84063e-15 0)
(3 -2.81552e-15 0)
(3 -3.59577e-15 0)
(3 -5.14177e-15 0)
(3 -5.46479e-15 0)
(3 -5.37882e-15 0)
(3 -6.85431e-15 0)
(3 -8.55706e-15 0)
(3 -8.30909e-15 0)
(3 -6.90063e-15 0)
(3 -4.67444e-15 0)
(3 -3.71814e-15 0)
(3 -2.60215e-15 0)
(3 -1.40433e-15 0)
(3 -1.38922e-15 0)
(3 -1.84827e-15 0)
(3 -1.94059e-15 0)
(3 -2.18858e-16 0)
(3 2.47455e-15 0)
(3 3.15959e-15 0)
(3 1.89751e-15 0)
(3 6.29581e-15 0)
(3 -8.18165e-17 0)
(3 -3.76861e-16 0)
(3 -1.12933e-15 0)
(3 -1.11086e-15 0)
(3 -1.45257e-15 0)
(3 -8.28533e-16 0)
(3 -1.59541e-16 0)
(3 1.62863e-16 0)
(3 -1.44846e-16 0)
(3 -1.00362e-15 0)
(3 -3.94442e-16 0)
(3 7.35977e-16 0)
(3 7.15844e-16 0)
(3 3.20506e-16 0)
(3 1.69284e-15 0)
(3 2.52398e-15 0)
(3 2.50508e-15 0)
(3 2.56815e-15 0)
(3 2.3897e-15 0)
(3 1.79584e-15 0)
(3 1.21163e-15 0)
(3 9.47221e-16 0)
(3 7.1408e-16 0)
(3 6.33646e-16 0)
(3 5.95083e-16 0)
(3 -7.31675e-16 0)
(3 -9.4081e-16 0)
(3 -9.0309e-16 0)
(3 -7.39817e-16 0)
(3 -5.7876e-16 0)
(3 7.12176e-16 0)
(3 9.12945e-16 0)
(3 4.25678e-16 0)
(3 7.654e-17 0)
(3 -9.1725e-16 0)
(3 -1.90449e-15 0)
(3 -1.86193e-15 0)
(3 -1.64667e-16 0)
(3 5.79626e-17 0)
(3 -1.34396e-17 0)
(3 -5.41709e-16 0)
(3 -2.59755e-16 0)
(3 -2.2595e-16 0)
(3 -5.40533e-16 0)
(3 -1.20167e-15 0)
(3 -2.09751e-15 0)
(3 -2.93031e-15 0)
(3 -3.49821e-15 0)
(3 -3.13251e-15 0)
(3 -1.75435e-15 0)
(3 -1.15578e-15 0)
(3 4.21008e-16 0)
(3 2.13023e-15 0)
(3 3.35855e-15 0)
(3 2.89361e-15 0)
(3 1.20199e-15 0)
(3 4.17691e-16 0)
(3 -6.66895e-16 0)
(3 -1.4838e-15 0)
(3 -2.83446e-15 0)
(3 8.8525e-16 0)
(3 3.71343e-15 0)
(3 4.82308e-15 0)
(3 4.2605e-15 0)
(3 4.67515e-15 0)
(3 5.65938e-15 0)
(3 6.73813e-15 0)
(3 6.12975e-15 0)
(3 3.21064e-15 0)
(3 1.85761e-15 0)
(3 1.78598e-15 0)
(3 1.76223e-15 0)
(3 1.96458e-15 0)
(3 1.51638e-15 0)
(3 -1.7187e-16 0)
(3 -9.42016e-16 0)
(3 -2.55566e-15 0)
(3 -3.90111e-15 0)
(3 -4.01131e-15 0)
(3 -5.68706e-15 0)
(3 -7.28855e-15 0)
(3 -7.24843e-15 0)
(3 -5.34095e-15 0)
(3 -3.84769e-15 0)
(3 -2.76523e-15 0)
(3 -2.97809e-15 0)
(3 -3.03245e-15 0)
(3 -1.56703e-15 0)
(3 -1.36442e-15 0)
(3 -7.29992e-16 0)
(3 -4.78696e-16 0)
(3 1.08349e-16 0)
(3 6.73716e-16 0)
(3 4.50747e-16 0)
(3 1.96234e-16 0)
(3 1.96133e-15 0)
(3 -6.57534e-17 0)
(3 -3.18142e-16 0)
(3 -3.32742e-16 0)
(3 -4.56685e-16 0)
(3 -9.83969e-16 0)
(3 -9.38516e-16 0)
(3 -4.83077e-16 0)
(3 2.83106e-17 0)
(3 5.79878e-16 0)
(3 3.72117e-17 0)
(3 2.90631e-16 0)
(3 2.52937e-16 0)
(3 -1.57632e-16 0)
(3 -7.11593e-16 0)
(3 1.43371e-16 0)
(3 1.11548e-15 0)
(3 5.59649e-16 0)
(3 5.44244e-16 0)
(3 1.01292e-15 0)
(3 1.92103e-15 0)
(3 2.23678e-15 0)
(3 2.10294e-15 0)
(3 1.60116e-15 0)
(3 1.12891e-17 0)
(3 -1.10377e-15 0)
(3 -5.54303e-16 0)
(3 -3.17488e-16 0)
(3 1.16912e-16 0)
(3 7.61581e-16 0)
(3 5.9637e-16 0)
(3 3.70838e-16 0)
(3 3.20226e-16 0)
(3 2.16658e-16 0)
(3 -1.20431e-16 0)
(3 -6.9999e-16 0)
(3 -1.14536e-15 0)
(3 -3.36514e-16 0)
(3 6.78259e-16 0)
(3 1.17274e-15 0)
(3 1.47609e-15 0)
(3 1.22961e-15 0)
(3 1.75132e-16 0)
(3 -8.81768e-16 0)
(3 -1.43523e-15 0)
(3 -2.98611e-15 0)
(3 -3.858e-15 0)
(3 -4.15821e-15 0)
(3 -4.33426e-15 0)
(3 -3.56084e-15 0)
(3 -2.13528e-15 0)
(3 -2.11988e-15 0)
(3 -1.85253e-15 0)
(3 -1.12112e-15 0)
(3 2.35364e-15 0)
(3 2.99499e-15 0)
(3 -9.03581e-16 0)
(3 -1.78941e-15 0)
(3 -2.32446e-15 0)
(3 -2.80658e-15 0)
(3 -2.11447e-15 0)
(3 3.56388e-16 0)
(3 1.96979e-15 0)
(3 3.49047e-15 0)
(3 3.90643e-15 0)
(3 4.07632e-15 0)
(3 4.24568e-15 0)
(3 4.96461e-15 0)
(3 3.61136e-15 0)
(3 2.17442e-15 0)
(3 2.16338e-15 0)
(3 2.16453e-15 0)
(3 1.66526e-15 0)
(3 1.80526e-15 0)
(3 1.51412e-15 0)
(3 -7.98927e-17 0)
(3 -1.11698e-15 0)
(3 -3.04326e-15 0)
(3 -3.38719e-15 0)
(3 -4.4726e-15 0)
(3 -4.26999e-15 0)
(3 -2.70964e-15 0)
(3 -1.68334e-15 0)
(3 -6.57233e-16 0)
(3 -4.82461e-16 0)
(3 -3.50912e-16 0)
(3 -9.65071e-16 0)
(3 -1.19865e-15 0)
(3 -2.02892e-16 0)
(3 1.502e-17 0)
(3 1.27918e-15 0)
(3 1.57677e-15 0)
(3 1.92486e-15 0)
(3 9.89456e-16 0)
(3 8.08425e-16 0)
(3 6.89792e-16 0)
(3 8.77957e-16 0)
(3 -1.33632e-16 0)
(3 -2.11023e-16 0)
(3 3.17744e-16 0)
(3 8.3712e-16 0)
(3 1.05571e-15 0)
(3 3.83743e-16 0)
(3 5.02185e-17 0)
(3 1.6553e-16 0)
(3 2.6275e-16 0)
(3 5.15636e-16 0)
(3 7.28706e-16 0)
(3 -5.79587e-16 0)
(3 -5.25158e-16 0)
(3 -2.42572e-16 0)
(3 4.43216e-17 0)
(3 8.83124e-16 0)
(3 -2.19802e-16 0)
(3 -7.36673e-17 0)
(3 2.54109e-16 0)
(3 7.03055e-16 0)
(3 1.21183e-15 0)
(3 1.22207e-15 0)
(3 1.29681e-15 0)
(3 4.85104e-16 0)
(3 -1.11337e-15 0)
(3 6.7564e-16 0)
(3 1.00253e-15 0)
(3 1.44875e-15 0)
(3 1.21574e-15 0)
(3 1.41594e-15 0)
(3 1.25143e-15 0)
(3 9.13128e-16 0)
(3 2.42829e-16 0)
(3 -3.79519e-16 0)
(3 -8.1491e-16 0)
(3 4.45527e-16 0)
(3 8.9066e-16 0)
(3 9.46818e-16 0)
(3 1.20074e-15 0)
(3 1.52699e-15 0)
(3 1.58188e-15 0)
(3 -7.85247e-16 0)
(3 -1.48803e-15 0)
(3 -2.06894e-15 0)
(3 -2.48493e-15 0)
(3 -3.23156e-15 0)
(3 -3.73017e-15 0)
(3 -4.21106e-15 0)
(3 -2.79973e-15 0)
(3 -1.34175e-15 0)
(3 -1.37063e-15 0)
(3 -1.58686e-15 0)
(3 -2.08794e-15 0)
(3 -1.62492e-15 0)
(3 -1.75233e-15 0)
(3 -2.42999e-15 0)
(3 -2.25355e-15 0)
(3 -2.15713e-15 0)
(3 -2.62708e-15 0)
(3 -1.25652e-15 0)
(3 1.35601e-15 0)
(3 3.97278e-15 0)
(3 2.78386e-15 0)
(3 1.6252e-15 0)
(3 1.23163e-15 0)
(3 1.42815e-15 0)
(3 1.49106e-15 0)
(3 1.61492e-15 0)
(3 1.70764e-15 0)
(3 1.58128e-15 0)
(3 1.47538e-15 0)
(3 9.53907e-16 0)
(3 8.77465e-16 0)
(3 6.81255e-16 0)
(3 2.53616e-18 0)
(3 -6.59216e-16 0)
(3 -1.95221e-15 0)
(3 -3.45634e-15 0)
(3 -3.93588e-15 0)
(3 -3.8542e-15 0)
(3 -2.32714e-15 0)
(3 -1.66328e-15 0)
(3 -1.39218e-15 0)
(3 -1.74214e-15 0)
(3 -1.58828e-15 0)
(3 -1.39444e-15 0)
(3 -3.37403e-16 0)
(3 -1.26462e-16 0)
(3 8.83152e-16 0)
(3 2.65959e-15 0)
(3 1.38261e-15 0)
(3 2.25836e-16 0)
(3 -8.85082e-16 0)
(3 -1.08491e-15 0)
(3 -1.37796e-15 0)
(3 -4.15617e-16 0)
(3 1.32718e-16 0)
(3 5.96629e-16 0)
(3 8.37963e-16 0)
(3 8.18955e-16 0)
(3 7.28487e-16 0)
(3 6.85462e-16 0)
(3 1.13788e-16 0)
(3 7.08957e-17 0)
(3 4.77818e-16 0)
(3 7.47748e-16 0)
(3 2.81981e-16 0)
(3 -6.13234e-16 0)
(3 2.02976e-18 0)
(3 2.84938e-16 0)
(3 3.01447e-16 0)
(3 -1.88067e-16 0)
(3 -1.55999e-16 0)
(3 -1.07145e-16 0)
(3 -1.96902e-16 0)
(3 -7.58208e-16 0)
(3 5.21392e-17 0)
(3 8.29641e-16 0)
(3 1.57253e-15 0)
(3 1.90791e-15 0)
(3 9.89746e-16 0)
(3 8.38688e-16 0)
(3 2.03978e-15 0)
(3 1.39648e-15 0)
(3 1.49263e-15 0)
(3 1.70175e-15 0)
(3 1.99455e-15 0)
(3 1.67756e-15 0)
(3 8.97772e-16 0)
(3 -3.49334e-16 0)
(3 -7.19931e-17 0)
(3 4.89429e-16 0)
(3 8.1804e-16 0)
(3 1.10875e-15 0)
(3 1.37383e-15 0)
(3 2.23062e-16 0)
(3 -8.06198e-16 0)
(3 -1.69994e-15 0)
(3 -1.86446e-15 0)
(3 -2.29187e-15 0)
(3 -2.3552e-15 0)
(3 -2.03221e-15 0)
(3 -1.83579e-15 0)
(3 -2.11162e-15 0)
(3 -1.5898e-15 0)
(3 -1.09578e-15 0)
(3 -8.96945e-16 0)
(3 -2.9967e-15 0)
(3 -3.99036e-15 0)
(3 -4.62015e-15 0)
(3 -5.09227e-15 0)
(3 -4.35122e-15 0)
(3 -1.75594e-15 0)
(3 -1.18652e-15 0)
(3 -1.0996e-15 0)
(3 4.63542e-16 0)
(3 3.00322e-15 0)
(3 3.25433e-15 0)
(3 2.03113e-15 0)
(3 1.39553e-15 0)
(3 5.252e-16 0)
(3 6.90009e-16 0)
(3 8.89967e-16 0)
(3 1.39916e-15 0)
(3 7.60584e-16 0)
(3 -4.87416e-16 0)
(3 -1.60607e-15 0)
(3 -1.38207e-15 0)
(3 -3.25941e-16 0)
(3 8.92939e-16 0)
(3 7.15513e-16 0)
(3 6.5731e-16 0)
(3 2.38612e-16 0)
(3 -1.21207e-15 0)
(3 -2.09597e-15 0)
(3 -1.32213e-15 0)
(3 -5.08423e-16 0)
(3 -1.96836e-16 0)
(3 -2.25537e-16 0)
(3 -1.25272e-16 0)
(3 -1.59523e-15 0)
(3 -3.36987e-15 0)
(3 -1.727e-15 0)
(3 1.30722e-15 0)
(3 1.9269e-15 0)
(3 2.03461e-15 0)
(3 7.4266e-16 0)
(3 -2.37713e-15 0)
(3 -3.15464e-15 0)
(3 -3.01458e-15 0)
(3 -3.26729e-15 0)
(3 -3.2583e-15 0)
(3 -2.59068e-17 0)
(3 2.65706e-16 0)
(3 2.74905e-16 0)
(3 -5.57383e-16 0)
(3 -6.22217e-16 0)
(3 -2.66848e-16 0)
(3 -2.95089e-16 0)
(3 -1.96747e-16 0)
(3 4.99753e-16 0)
(3 7.57732e-16 0)
(3 1.10958e-15 0)
(3 9.24764e-16 0)
(3 4.73883e-16 0)
(3 7.93721e-17 0)
(3 -1.04487e-16 0)
(3 -6.18379e-16 0)
(3 4.11111e-17 0)
(3 5.5407e-16 0)
(3 -9.7202e-16 0)
(3 -2.01042e-15 0)
(3 -7.44187e-16 0)
(3 -2.04314e-17 0)
(3 5.60488e-16 0)
(3 1.04494e-15 0)
(3 1.92092e-15 0)
(3 1.51293e-15 0)
(3 1.66701e-15 0)
(3 2.08456e-15 0)
(3 2.84026e-15 0)
(3 3.58833e-15 0)
(3 1.65057e-15 0)
(3 1.76454e-15 0)
(3 1.79766e-15 0)
(3 8.96116e-16 0)
(3 4.58149e-17 0)
(3 -2.91449e-16 0)
(3 3.09804e-16 0)
(3 1.6241e-16 0)
(3 -1.07318e-15 0)
(3 -1.68433e-15 0)
(3 -3.10403e-15 0)
(3 -3.01301e-15 0)
(3 -2.90431e-15 0)
(3 -3.35126e-15 0)
(3 -4.20133e-15 0)
(3 -2.60048e-15 0)
(3 -6.27679e-16 0)
(3 -6.00191e-16 0)
(3 -5.40962e-16 0)
(3 -3.74746e-16 0)
(3 -5.40987e-16 0)
(3 -2.05487e-15 0)
(3 -3.89998e-15 0)
(3 -4.90926e-15 0)
(3 -5.87007e-15 0)
(3 -4.20359e-15 0)
(3 -2.06731e-15 0)
(3 -2.22856e-15 0)
(3 -1.94149e-15 0)
(3 -3.03698e-16 0)
(3 1.80601e-15 0)
(3 1.99339e-15 0)
(3 3.28352e-15 0)
(3 4.44887e-15 0)
(3 2.99449e-15 0)
(3 1.51594e-15 0)
(3 1.01682e-15 0)
(3 6.19364e-16 0)
(3 1.73398e-16 0)
(3 -3.55716e-17 0)
(3 -1.79163e-16 0)
(3 -3.34798e-16 0)
(3 -2.90171e-16 0)
(3 -6.17017e-16 0)
(3 -1.43886e-15 0)
(3 1.10893e-15 0)
(3 1.8333e-15 0)
(3 2.15576e-15 0)
(3 1.7396e-15 0)
(3 2.5739e-15 0)
(3 3.09772e-15 0)
(3 3.01811e-15 0)
(3 2.73964e-15 0)
(3 1.38374e-15 0)
(3 -2.76158e-15 0)
(3 -4.42528e-15 0)
(3 -1.72511e-15 0)
(3 1.34702e-15 0)
(3 1.44489e-15 0)
(3 8.14512e-16 0)
(3 2.74843e-16 0)
(3 -1.10322e-15 0)
(3 -2.08937e-15 0)
(3 -3.18018e-15 0)
(3 -4.03139e-15 0)
(3 -4.24572e-15 0)
(3 1.39827e-17 0)
(3 -1.69061e-16 0)
(3 -6.07548e-16 0)
(3 -9.91642e-16 0)
(3 -1.25053e-15 0)
(3 -1.01579e-15 0)
(3 -3.76209e-16 0)
(3 3.869e-16 0)
(3 1.44213e-16 0)
(3 4.28091e-16 0)
(3 5.39419e-16 0)
(3 3.9036e-16 0)
(3 1.22794e-16 0)
(3 -2.46776e-16 0)
(3 -2.59969e-16 0)
(3 -1.1359e-16 0)
(3 2.99045e-16 0)
(3 6.10275e-16 0)
(3 -1.30426e-15 0)
(3 -2.43391e-15 0)
(3 -1.87268e-15 0)
(3 -1.70949e-15 0)
(3 -5.52861e-16 0)
(3 8.0782e-16 0)
(3 1.78025e-15 0)
(3 2.64289e-15 0)
(3 2.07339e-15 0)
(3 2.13113e-15 0)
(3 2.08372e-15 0)
(3 2.21997e-15 0)
(3 1.806e-15 0)
(3 3.1292e-16 0)
(3 -4.64057e-16 0)
(3 -7.74743e-16 0)
(3 -1.53924e-15 0)
(3 -2.48134e-15 0)
(3 -2.9508e-15 0)
(3 -3.05804e-15 0)
(3 -2.47961e-15 0)
(3 -2.22846e-15 0)
(3 -2.37558e-15 0)
(3 -2.6053e-15 0)
(3 -1.80999e-15 0)
(3 -1.4689e-15 0)
(3 -1.68986e-15 0)
(3 -1.12878e-15 0)
(3 -4.85185e-16 0)
(3 1.17734e-16 0)
(3 -1.30391e-16 0)
(3 -6.17166e-16 0)
(3 -5.24939e-16 0)
(3 -1.79448e-15 0)
(3 -4.48507e-15 0)
(3 -5.52823e-15 0)
(3 -6.10981e-15 0)
(3 -5.14657e-15 0)
(3 -4.27439e-15 0)
(3 -4.25543e-15 0)
(3 -3.11578e-15 0)
(3 -1.3532e-15 0)
(3 3.38984e-16 0)
(3 1.20308e-15 0)
(3 3.68019e-15 0)
(3 5.49156e-15 0)
(3 6.79712e-15 0)
(3 3.75023e-15 0)
(3 2.07796e-15 0)
(3 9.84955e-16 0)
(3 1.02348e-15 0)
(3 1.12225e-15 0)
(3 1.11507e-15 0)
(3 5.36433e-16 0)
(3 -6.64066e-17 0)
(3 -1.24999e-15 0)
(3 -2.15786e-15 0)
(3 4.17217e-16 0)
(3 3.47679e-15 0)
(3 4.39398e-15 0)
(3 5.74468e-15 0)
(3 5.14249e-15 0)
(3 3.25732e-15 0)
(3 3.139e-15 0)
(3 2.62702e-15 0)
(3 1.41111e-15 0)
(3 -5.67329e-16 0)
(3 -2.46089e-15 0)
(3 -3.32137e-15 0)
(3 -2.177e-15 0)
(3 -3.11051e-16 0)
(3 -4.54722e-16 0)
(3 -6.84364e-16 0)
(3 -8.49896e-16 0)
(3 -1.30441e-15 0)
(3 -1.2828e-15 0)
(3 -2.24063e-15 0)
(3 -3.41396e-15 0)
(3 -3.38686e-17 0)
(3 -1.75874e-16 0)
(3 -1.12991e-15 0)
(3 -1.82728e-15 0)
(3 -1.37864e-15 0)
(3 -1.2873e-15 0)
(3 -7.91729e-16 0)
(3 -5.86229e-16 0)
(3 -6.84543e-16 0)
(3 -8.77319e-16 0)
(3 -1.02311e-15 0)
(3 -7.76342e-16 0)
(3 -8.02886e-16 0)
(3 -8.48876e-16 0)
(3 -8.46935e-16 0)
(3 -4.43298e-16 0)
(3 -3.43194e-16 0)
(3 -6.57053e-16 0)
(3 -1.53783e-15 0)
(3 -1.57213e-15 0)
(3 -1.25493e-15 0)
(3 -5.0631e-16 0)
(3 1.48645e-15 0)
(3 3.02756e-15 0)
(3 2.53811e-15 0)
(3 3.07616e-15 0)
(3 3.15976e-15 0)
(3 2.45852e-15 0)
(3 1.36578e-15 0)
(3 3.90763e-16 0)
(3 -7.92526e-17 0)
(3 -7.40347e-16 0)
(3 -7.28292e-16 0)
(3 -2.64379e-16 0)
(3 -1.45261e-15 0)
(3 -3.18603e-15 0)
(3 -3.16604e-15 0)
(3 -3.26354e-15 0)
(3 -2.64903e-15 0)
(3 -2.36898e-15 0)
(3 -2.09485e-15 0)
(3 -2.71755e-15 0)
(3 -7.7717e-16 0)
(3 1.64199e-15 0)
(3 2.87074e-15 0)
(3 2.26945e-15 0)
(3 1.57659e-15 0)
(3 8.59833e-16 0)
(3 -3.90991e-18 0)
(3 -1.27187e-15 0)
(3 -1.45011e-15 0)
(3 -2.87791e-15 0)
(3 -5.68839e-15 0)
(3 -7.05843e-15 0)
(3 -7.23224e-15 0)
(3 -7.29874e-15 0)
(3 -7.07555e-15 0)
(3 -6.34946e-15 0)
(3 -5.89064e-15 0)
(3 -3.17704e-15 0)
(3 2.22647e-15 0)
(3 5.05673e-15 0)
(3 6.59114e-15 0)
(3 7.19482e-15 0)
(3 4.78034e-15 0)
(3 2.37836e-15 0)
(3 3.08878e-16 0)
(3 -9.58619e-16 0)
(3 -4.65114e-16 0)
(3 -2.02335e-16 0)
(3 2.01023e-16 0)
(3 2.40701e-16 0)
(3 2.52703e-16 0)
(3 -2.78172e-17 0)
(3 -2.56676e-16 0)
(3 2.72019e-15 0)
(3 5.73427e-15 0)
(3 7.01057e-15 0)
(3 8.65175e-15 0)
(3 5.43801e-15 0)
(3 3.14405e-15 0)
(3 3.29539e-15 0)
(3 3.56896e-15 0)
(3 2.11426e-15 0)
(3 1.00383e-15 0)
(3 -2.50309e-15 0)
(3 -4.42264e-15 0)
(3 -4.20595e-15 0)
(3 -3.30491e-15 0)
(3 -2.04347e-15 0)
(3 -1.91109e-15 0)
(3 -2.06238e-15 0)
(3 -1.83325e-15 0)
(3 -8.43853e-16 0)
(3 -1.79804e-15 0)
(3 -2.45005e-15 0)
(3 3.92221e-19 0)
(3 1.13729e-16 0)
(3 -3.5889e-16 0)
(3 -6.14045e-16 0)
(3 -5.2727e-16 0)
(3 -5.40304e-16 0)
(3 -6.84803e-16 0)
(3 -9.79134e-16 0)
(3 -2.93832e-16 0)
(3 3.99635e-16 0)
(3 5.64371e-16 0)
(3 -3.64148e-16 0)
(3 -5.137e-16 0)
(3 -4.29833e-16 0)
(3 -2.95267e-16 0)
(3 8.46131e-17 0)
(3 -6.23701e-16 0)
(3 -1.65597e-15 0)
(3 -1.60229e-15 0)
(3 -1.04511e-15 0)
(3 -8.42644e-16 0)
(3 -4.14337e-16 0)
(3 -1.4145e-16 0)
(3 5.22979e-16 0)
(3 1.47486e-15 0)
(3 1.27091e-15 0)
(3 1.29975e-15 0)
(3 9.6562e-16 0)
(3 -8.89907e-17 0)
(3 -9.09478e-16 0)
(3 -1.20575e-15 0)
(3 -1.29243e-15 0)
(3 -8.26409e-16 0)
(3 -4.51575e-16 0)
(3 -8.29497e-16 0)
(3 -2.25598e-15 0)
(3 -2.64025e-15 0)
(3 -1.9923e-15 0)
(3 -1.09119e-15 0)
(3 -3.92059e-16 0)
(3 1.43527e-15 0)
(3 2.55409e-15 0)
(3 2.52287e-15 0)
(3 4.10028e-15 0)
(3 4.29268e-15 0)
(3 4.69051e-15 0)
(3 3.34554e-15 0)
(3 5.12469e-16 0)
(3 -2.03637e-15 0)
(3 -2.67249e-15 0)
(3 -2.57537e-15 0)
(3 -4.40239e-15 0)
(3 -7.12839e-15 0)
(3 -7.69303e-15 0)
(3 -8.03685e-15 0)
(3 -8.0175e-15 0)
(3 -7.94247e-15 0)
(3 -7.58965e-15 0)
(3 -8.05091e-15 0)
(3 -5.8721e-15 0)
(3 -1.08055e-15 0)
(3 5.58633e-16 0)
(3 1.47921e-15 0)
(3 1.84866e-15 0)
(3 1.57948e-15 0)
(3 1.31002e-15 0)
(3 9.84099e-16 0)
(3 1.5116e-15 0)
(3 1.3677e-15 0)
(3 1.10149e-15 0)
(3 1.054e-15 0)
(3 1.12942e-15 0)
(3 7.80659e-16 0)
(3 -7.93209e-16 0)
(3 -5.76298e-16 0)
(3 2.55636e-15 0)
(3 6.09798e-15 0)
(3 6.8059e-15 0)
(3 6.09534e-15 0)
(3 5.85253e-15 0)
(3 4.88741e-15 0)
(3 3.46275e-15 0)
(3 3.14395e-15 0)
(3 1.95489e-15 0)
(3 3.68468e-16 0)
(3 -2.31314e-15 0)
(3 -4.49095e-15 0)
(3 -4.87557e-15 0)
(3 -5.21863e-15 0)
(3 -4.40127e-15 0)
(3 -3.64249e-15 0)
(3 -3.40187e-15 0)
(3 -1.70074e-15 0)
(3 -1.47451e-15 0)
(3 -3.4787e-15 0)
(3 -3.74349e-15 0)
(3 2.90175e-16 0)
(3 3.38418e-16 0)
(3 1.08312e-15 0)
(3 1.0868e-15 0)
(3 3.36484e-16 0)
(3 2.54026e-16 0)
(3 1.21858e-17 0)
(3 -3.19106e-16 0)
(3 -1.38549e-16 0)
(3 9.80403e-16 0)
(3 5.45992e-16 0)
(3 3.80316e-16 0)
(3 4.57992e-16 0)
(3 8.49377e-16 0)
(3 8.68071e-16 0)
(3 4.708e-16 0)
(3 -3.44328e-18 0)
(3 -1.27934e-15 0)
(3 -1.64518e-15 0)
(3 -1.44356e-15 0)
(3 -1.40663e-15 0)
(3 -2.19322e-15 0)
(3 -2.54748e-15 0)
(3 -1.04511e-15 0)
(3 6.05349e-16 0)
(3 8.23162e-16 0)
(3 5.24034e-16 0)
(3 1.62383e-16 0)
(3 1.50689e-16 0)
(3 2.62247e-16 0)
(3 7.45931e-16 0)
(3 6.45123e-16 0)
(3 8.85937e-16 0)
(3 9.93376e-16 0)
(3 -6.10826e-16 0)
(3 -2.65574e-15 0)
(3 -2.95999e-15 0)
(3 -3.07461e-15 0)
(3 -3.32974e-15 0)
(3 -3.82534e-15 0)
(3 -2.50107e-15 0)
(3 5.40289e-16 0)
(3 2.93535e-15 0)
(3 3.21532e-15 0)
(3 3.06705e-15 0)
(3 3.41974e-15 0)
(3 2.37617e-15 0)
(3 -5.70396e-16 0)
(3 -1.7031e-15 0)
(3 -4.35779e-15 0)
(3 -4.89666e-15 0)
(3 -5.23108e-15 0)
(3 -6.1969e-15 0)
(3 -5.72294e-15 0)
(3 -5.63699e-15 0)
(3 -5.94506e-15 0)
(3 -5.84461e-15 0)
(3 -6.32557e-15 0)
(3 -7.06706e-15 0)
(3 -4.861e-15 0)
(3 -2.52656e-15 0)
(3 -1.93152e-15 0)
(3 -1.67759e-15 0)
(3 -1.16503e-15 0)
(3 -6.40704e-16 0)
(3 1.27124e-15 0)
(3 2.3063e-15 0)
(3 2.65546e-15 0)
(3 2.7665e-15 0)
(3 2.90105e-15 0)
(3 2.47376e-15 0)
(3 1.53402e-15 0)
(3 6.77464e-18 0)
(3 -9.34314e-16 0)
(3 -9.13018e-16 0)
(3 6.33043e-16 0)
(3 2.53332e-15 0)
(3 2.52178e-15 0)
(3 2.1879e-15 0)
(3 1.76052e-15 0)
(3 3.11995e-16 0)
(3 -8.08798e-16 0)
(3 -1.30407e-15 0)
(3 -3.74582e-16 0)
(3 -5.33931e-16 0)
(3 -2.07346e-15 0)
(3 -4.05383e-15 0)
(3 -4.25133e-15 0)
(3 -3.75724e-15 0)
(3 -3.46579e-15 0)
(3 -2.8867e-15 0)
(3 -2.96097e-15 0)
(3 -2.85744e-15 0)
(3 -3.63117e-15 0)
(3 -4.42377e-15 0)
(3 -4.65278e-15 0)
(3 1.03915e-17 0)
(3 3.5151e-16 0)
(3 9.55581e-16 0)
(3 1.26879e-15 0)
(3 1.195e-15 0)
(3 8.81821e-16 0)
(3 9.24135e-16 0)
(3 9.23005e-16 0)
(3 1.31721e-15 0)
(3 1.17333e-15 0)
(3 3.77834e-16 0)
(3 7.8808e-16 0)
(3 8.0718e-16 0)
(3 1.18705e-15 0)
(3 1.42616e-15 0)
(3 8.27772e-16 0)
(3 -2.60355e-16 0)
(3 -4.14683e-16 0)
(3 -2.49606e-16 0)
(3 -7.93404e-16 0)
(3 -1.49502e-15 0)
(3 -2.09688e-15 0)
(3 -2.06024e-15 0)
(3 -9.8877e-16 0)
(3 -6.64707e-16 0)
(3 -1.21991e-16 0)
(3 6.81356e-16 0)
(3 9.34237e-16 0)
(3 7.44043e-16 0)
(3 8.34384e-16 0)
(3 1.19728e-15 0)
(3 1.25954e-15 0)
(3 1.51149e-15 0)
(3 1.02507e-15 0)
(3 -1.71e-15 0)
(3 -1.83041e-15 0)
(3 -2.25059e-15 0)
(3 -2.83873e-15 0)
(3 -2.32226e-15 0)
(3 -2.64269e-15 0)
(3 -1.60141e-15 0)
(3 5.08311e-16 0)
(3 3.51058e-15 0)
(3 4.65878e-15 0)
(3 2.46633e-15 0)
(3 5.80667e-16 0)
(3 1.56637e-15 0)
(3 -3.07651e-16 0)
(3 -9.00256e-16 0)
(3 -2.67706e-15 0)
(3 -3.61782e-15 0)
(3 -3.74977e-15 0)
(3 -3.53292e-15 0)
(3 -3.30726e-15 0)
(3 -2.47267e-15 0)
(3 -2.33938e-15 0)
(3 -2.5451e-15 0)
(3 -3.96414e-15 0)
(3 -5.06532e-15 0)