/*--------------------------------*- C++ -*----------------------------------*\
  =========                 |
  \\      /  F ield         | OpenFOAM: The Open Source CFD Toolbox
   \\    /   O peration     | Website:  https://openfoam.org
    \\  /    A nd           | Version:  7
     \\/     M anipulation  |
\*---------------------------------------------------------------------------*/
FoamFile
{
    version     2.0;
    format      ascii;
    class       volScalarField;
    location    "3";
    object      p;
}
// * * * * * * * * * * * * * * * * * * * * * * * * * * * * * * * * * * * * * //

dimensions      [1 -1 -2 0 0 0 0];

internalField   nonuniform List<scalar> 
4608
(
1
1
1
1
1
1
1
1
1
1
1
1
1
1
1
1
1
1
1
1
1
1
1
1
1
1
1
1
1
1
1
1
1
1
1
1
1
1
1
1
1
1
1
1
1
1
1
1
1
1
1
1
1
1
1
1
1
1
1
1
1
1
1
1
1
1
1
1
1
1
1
1
1
1
1
1
1
1
1
1
1
1
1
1
1
1
1
1
1
1
1
1
1
1
1
1
1
1
1
1
1
1
1
1
1
1
1
1
1
1
1
1
1
1
1
1
1
1
1
1
1
1
1
1
1
1
1
1
1
1
1
1
1
1
1
1
1
1
1
1
1
1
1
1
1
1
1
1
1
1
1
1
1
1
1
1
1
1
1
1
1
1
1
1
1
1
1
1
1
1
1
1
1
1
1
1
1
1
1
1
1
1
1
1
1
1
1
1
1
1
1
1
1
1
1
1
1
1
1
1
1
1
1
1
1
1
1
1
1
1
1
1
1
1
1
1
1
1
1
1
1
1
1
1
1
1
1
1
1
1
1
1
1
1
1
1
1
1
1
1
1
1
1
1
1
1
1
1
1
1
1
1
1
1
1
1
1
1
1
1
1
1
1
1
1
1
1
1
1
1
1
1
1
1
1
1
1
1
1
1
1
1
1
1
1
1
1
1
1
1
1
1
1
1
1
1
1
1
1
1
1
1
1
1
1
1
1
1
1
1
1
1
1
1
1
1
1
1
1
1
1
1
1
1
1
1
1
1
1
1
1
1
1
1
1
1
1
1
1
1
1
1
1
1
1
1
1
1
1
1
1
1
1
1
1
1
1
1
1
1
1
1
1
1
1
1
1
1
1
1
1
1
1
1
1
1
1
1
1
1
1
1
1
1
1
1
1
1
1
1
1
1
1
1
1
1
1
1
1
1
1
1
1
1
1
1
1
1
1
1
1
1
1
1
1
1
1
1
1
1
1
1
1
1
1
1
1
1
1
1
1
1
1
1
1
1
1
1
1
1
1
1
1
1
1
1
1
1
1
1
1
1
1
1
1
1
1
1
1
1
1
1
1
1
1
1
1
1
1
1
1
1
1
1
1
1
1
1
1
1
1
1
1
1
1
1
1
1
1
1
1
1
1
1
1
1
1
1
1
1
1
1
1
1
1
1
1
1
1
1
1
1
1
1
1
1
1
1
1
1
1
1
1
1
1
1
1
1
1
1
1
1
1
1
1
1
1
1
1
1
1
1
1
1
1
1
1
1
1
1
1
1
1
1
1
1
1
1
1
1
1
1
1
1
1
1
1
1
1
1
1
1
1
1
1
1
1
1
1
1
1
1
1
1
1
1
1
1
1
1
1
1
1
1
1
1
1
1
1
1
1
1
1
1
1
1
1
1
1
1
1
1
1
1
1
1
1
1
1
1
1
1
1
1
1
1
1
1
1
1
1
1
1
1
1
1
1
1
1
1
1
1
1
1
1
1
1
1
1
1
1
1
1
1
1
1
1
1
1
1
1
1
1
1
1
1
1
1
1
1
1
1
1
1
1
1
1
1
1
1
1
1
1
1
1
1
1
1
1
1
1
1
1
1
1
1
1
1
1
1
1
1
1
1
1
1
1
1
1
1
1
1
1
1
1
1
1
1
1
1
1
1
1
1
1
1
1
1
1
1
1
1
1
1
1
1
1
1
1
1
1
1
1
1
1
1
1
1
1
1
1
1
1
1
1
1
1
1
1
1
1
1
1
1
1
1
1
1
1.29267
1.75362
2.34242
2.97674
3.62527
4.33103
4.8062
5.29705
5.3742
5.17966
4.7121
4.19907
3.81398
3.66305
3.56521
3.57199
3.61546
3.66343
3.69901
3.70688
3.71406
3.72698
3.74733
3.77136
1.00284
1.02107
1.07826
1.2224
1.46579
1.85811
2.36752
2.99845
3.55821
3.86097
4.03578
4.00825
3.97513
3.88317
3.76548
3.70802
3.70381
3.69201
3.69441
3.70399
3.71787
3.7297
3.74131
3.7597
1
0.999998
0.999968
1.00025
1.00345
1.02369
1.11061
1.35927
1.99431
2.99802
3.8509
4.27788
4.36767
4.28594
4.12329
3.85757
3.70762
3.69274
3.69457
3.71187
3.72883
3.73768
3.7409
3.75551
1
1
0.999997
0.999997
0.999986
1.00004
0.999975
1.00154
1.03706
1.28738
2.05968
3.07174
4.0093
4.11791
4.08403
4.02005
3.8826
3.77326
3.75782
3.73906
3.72922
3.73264
3.73741
3.75304
1
1
1
1
0.999999
0.999999
0.999998
0.999994
0.9999
1.00116
1.04308
1.35931
2.22958
3.26502
3.91092
4.13322
4.08148
3.95388
3.80918
3.74491
3.71101
3.69649
3.70884
3.72786
1
1
1
1
1
1
1
1
0.999988
0.99999
0.999901
1.00338
1.06617
1.5467
2.48131
3.5943
3.89375
3.88037
3.84262
3.77756
3.70575
3.69289
3.69503
3.70798
1
1
1
1
1
1
1
1
1
0.999999
0.999989
0.999989
0.999956
1.01347
1.14672
1.81035
2.85136
3.72836
3.93216
3.89676
3.79989
3.76038
3.74223
3.72594
1
1
1
1
1
1
1
1
1
1
1
0.999999
0.999994
0.999962
1.00069
1.04005
1.34115
2.28819
3.21973
3.78944
3.85239
3.83024
3.79111
3.75971
1
1
1
1
1
1
1
1
1
1
1
1
1
0.999996
0.999992
1.00003
1.00627
1.14081
1.75406
2.92486
3.47968
3.65978
3.74003
3.75538
1
1
1
1
1
1
1
1
1
1
1
1
1
1
0.999999
0.999999
0.999984
1.00166
1.04564
1.41385
2.3651
3.35232
3.74132
3.76241
1
1
1
1
1
1
1
1
1
1
1
1
1
1
1
1
0.999998
0.99999
1.00017
1.01495
1.23017
2.02292
2.98734
3.55785
1
1
1
1
1
1
1
1
1
1
1
1
1
1
1
1
1
0.999998
0.999997
1.00002
1.00611
1.10715
1.73839
2.73173
1
1
1
1
1
1
1
1
1
1
1
1
1
1
1
1
1
1
0.999999
0.999999
0.999999
1.00176
1.07133
1.47507
1
1
1
1
1
1
1
1
1
1
1
1
1
1
1
1
1
1
1
1
0.999999
0.999999
1.00114
1.03048
1
1
1
1
1
1
1
1
1
1
1
1
1
1
1
1
1
1
1
1
1
0.999999
0.999996
1.00011
1
1
1
1
1
1
1
1
1
1
1
1
1
1
1
1
1
1
1
1
1
1
0.999999
0.999996
1
1
1
1
1
1
1
1
1
1
1
1
1
1
1
1
1
1
1
1
1
1
1
0.999981
1
1
1
1
1
1
1
1
1
1
1
1
1
1
1
1
1
1
1
1
1
0.999999
1.00001
0.99997
1
1
1
1
1
1
1
1
1
1
1
1
1
1
1
1
1
1
1
1
0.999999
0.999998
1.00129
1.02641
1
1
1
1
1
1
1
1
1
1
1
1
1
1
1
1
1
1
0.999999
0.999999
0.999997
1.00188
1.06758
1.51225
1
1
1
1
1
1
1
1
1
1
1
1
1
1
1
1
1
0.999998
0.999997
1.00002
1.00593
1.10481
1.73179
2.81226
1
1
1
1
1
1
1
1
1
1
1
1
1
1
1
1
0.999998
0.99999
1.00018
1.01491
1.22731
1.98729
3.06496
3.55507
1
1
1
1
1
1
1
1
1
1
1
1
1
1
0.999999
0.999999
0.999984
1.00165
1.04568
1.41675
2.35668
3.33609
3.76814
3.77254
1
1
1
1
1
1
1
1
1
1
1
1
1
0.999996
0.999992
1.00003
1.00632
1.13983
1.75742
2.92432
3.46792
3.65963
3.75608
3.76007
1
1
1
1
1
1
1
1
1
1
1
0.999999
0.999994
0.999962
1.00069
1.03997
1.34135
2.28556
3.22691
3.78658
3.84712
3.83199
3.79649
3.75703
1
1
1
1
1
1
1
1
1
0.999999
0.999989
0.999989
0.999956
1.01346
1.14676
1.81097
2.84957
3.72933
3.93283
3.89732
3.79831
3.76109
3.74246
3.72466
1
1
1
1
1
1
1
1
0.999988
0.99999
0.999901
1.00338
1.06616
1.54646
2.48173
3.59483
3.89252
3.87982
3.84305
3.77687
3.70494
3.69207
3.69486
3.70692
1
1
1
1
0.999999
0.999999
0.999998
0.999994
0.9999
1.00116
1.04306
1.35947
2.22936
3.26479
3.91124
4.13329
4.08137
3.95345
3.80972
3.74499
3.71052
3.69678
3.7091
3.72788
1
1
0.999997
0.999997
0.999986
1.00004
0.999975
1.00154
1.03707
1.28737
2.05971
3.07189
4.00892
4.11783
4.0841
4.02053
3.88219
3.77313
3.75803
3.73918
3.72917
3.73296
3.73794
3.75332
1
0.999998
0.999969
1.00025
1.00345
1.02369
1.11062
1.35925
1.9944
2.99785
3.85108
4.27781
4.36765
4.28579
4.1233
3.85834
3.70689
3.69287
3.69479
3.71186
3.72884
3.73787
3.7411
3.75551
1.00284
1.02107
1.07828
1.22237
1.46578
1.85813
2.36748
2.99849
3.55823
3.86092
4.03586
4.00836
3.97513
3.88292
3.76591
3.70777
3.70334
3.69216
3.69447
3.70408
3.71775
3.72968
3.74132
3.75967
1.29267
1.75363
2.34234
2.97675
3.62538
4.33096
4.80611
5.29713
5.37424
5.17967
4.71206
4.19927
3.81373
3.66297
3.56525
3.57187
3.61529
3.66349
3.69936
3.70706
3.71397
3.72685
3.74716
3.7712
2.66745
1.68212
1.1353
0.885578
0.696078
0.621879
0.642559
0.733774
0.81364
0.854955
0.92709
0.992762
0.991285
0.983763
0.994223
1.03297
1.07333
1.08241
1.08151
1.07541
1.05628
1.0331
1.03242
1.10047
1.58938
2.86581
4.63984
6.80673
8.78196
9.23481
8.64284
7.6654
6.94503
6.59469
6.32426
6.0255
5.75173
5.55479
5.40568
5.26475
5.10949
4.92907
4.72665
4.52
4.32918
4.1539
3.98637
3.83299
3.69805
3.58277
3.48751
3.4059
3.3334
3.26019
3.17532
3.07031
2.95255
2.83482
2.71913
2.61488
2.54667
2.50592
2.47076
2.43285
2.38902
2.3286
2.24487
2.14757
2.05473
1.99219
1.97532
2.00569
2.16781
2.57342
3.30682
4.07216
4.71912
5.27372
5.5035
5.43013
5.23173
4.9274
4.68191
4.52017
4.45848
4.41382
4.37541
4.32679
4.27547
4.20696
4.06501
3.86823
3.77932
3.74474
3.72953
3.70358
3.37181
2.76497
2.12399
1.77926
1.5261
1.21808
1.08775
1.06723
1.01541
0.957057
0.937618
0.927224
0.911872
0.908207
0.92315
0.967489
1.0124
1.02844
1.02911
1.02947
1.02077
1.02305
1.08889
1.60385
2.64289
3.0656
3.55912
4.28559
5.52001
6.68186
7.536
7.50569
7.15474
6.76097
6.41152
6.05795
5.77886
5.62451
5.48683
5.32913
5.16833
4.98868
4.78742
4.5811
4.38674
4.21294
4.059
3.9206
3.79223
3.67375
3.56457
3.46636
3.38325
3.3099
3.22637
3.11983
2.99349
2.86913
2.75809
2.66984
2.60735
2.558
2.51196
2.46723
2.41795
2.35864
2.28502
2.18918
2.09644
2.08974
2.13319
2.32888
2.67115
3.03265
3.319
3.67822
4.05849
4.48543
4.75027
4.8918
4.94066
4.87312
4.71084
4.57577
4.51188
4.44408
4.38772
4.34566
4.30311
4.22846
4.09365
3.91543
3.82014
3.78658
3.76579
3.72641
3.65474
3.35272
2.87248
2.33924
1.99424
1.69138
1.39667
1.24483
1.13858
1.01244
0.951909
0.941549
0.917889
0.909198
0.912273
0.932354
0.959407
0.975899
0.982175
0.994598
1.02093
1.15082
1.71773
2.73613
3.28981
3.31818
3.30425
3.31856
3.53804
4.54011
6.15954
7.21741
7.28278
7.01313
6.46341
6.07014
5.81854
5.61188
5.38134
5.15284
4.98577
4.84672
4.68827
4.51263
4.33007
4.16903
4.02795
3.88709
3.75637
3.63542
3.51595
3.39349
3.27406
3.18249
3.11339
3.03232
2.9306
2.8308
2.7568
2.69199
2.61372
2.51937
2.43496
2.37144
2.32414
2.2747
2.23075
2.1775
2.1792
2.27424
2.55497
2.96355
3.22575
3.35884
3.35839
3.37647
3.45884
3.69471
4.04665
4.42805
4.7178
4.8027
4.74413
4.65634
4.55695
4.46789
4.40297
4.33998
4.26881
4.18419
4.0786
3.97017
3.84815
3.74416
3.7061
3.66088
3.73811
3.62471
3.35246
2.89995
2.47776
2.19168
1.83601
1.54574
1.42998
1.29438
1.11805
1.07301
1.05638
1.01769
0.956105
0.944579
0.945258
0.936038
0.938728
0.958641
1.1515
1.79075
2.84913
3.32021
3.30475
3.24564
3.15783
3.04073
2.95576
3.05827
3.69169
5.18713
6.48001
6.55156
6.45338
6.20026
5.93746
5.64735
5.3581
5.09246
4.89762
4.77483
4.65173
4.51639
4.36474
4.20478
4.04904
3.89604
3.76434
3.64691
3.52643
3.39574
3.26157
3.13406
3.04806
2.98374
2.91997
2.86126
2.80778
2.73239
2.63648
2.52598
2.42267
2.34694
2.29979
2.27227
2.23948
2.28066
2.5053
2.89624
3.34525
3.51882
3.51234
3.47644
3.39462
3.3188
3.26555
3.28501
3.40139
3.6523
4.06845
4.4185
4.57308
4.57994
4.57088
4.53604
4.45836
4.34631
4.23762
4.16041
4.09686
4.01162
3.88911
3.757
3.68786
3.63743
3.74473
3.72376
3.59799
3.32191
2.92386
2.58848
2.29833
1.96072
1.68875
1.53403
1.39051
1.23815
1.18465
1.13634
1.05174
0.969149
0.953685
0.939861
0.955072
1.17317
1.95361
2.83654
3.33571
3.32376
3.22409
3.08327
2.9678
2.84388
2.79857
2.7418
2.76675
3.08048
4.16608
5.37996
6.13964
6.15137
6.01243
5.68169
5.3574
5.0872
4.86974
4.70983
4.55634
4.40141
4.24499
4.08327
3.96243
3.88856
3.80512
3.70432
3.57673
3.43208
3.28859
3.12812
2.98649
2.90739
2.842
2.79051
2.75498
2.72786
2.67507
2.58742
2.47909
2.37397
2.299
2.29732
2.40083
2.73199
3.20774
3.6055
3.73639
3.71471
3.63325
3.48528
3.36706
3.28414
3.22367
3.20419
3.20119
3.24212
3.42388
3.76536
4.15689
4.42528
4.53634
4.51439
4.43437
4.32153
4.21696
4.14274
4.07212
3.99163
3.91223
3.82202
3.72214
3.62998
3.72845
3.72338
3.69003
3.55197
3.29984
2.95483
2.61283
2.34571
2.09004
1.85182
1.65428
1.46916
1.36477
1.32269
1.25808
1.11892
1.04881
1.07804
1.35937
2.2167
3.07658
3.3933
3.36227
3.24886
3.10203
2.97595
2.85817
2.74495
2.68718
2.62801
2.55318
2.47921
2.58886
3.18918
4.43861
5.39846
5.6264
5.57544
5.38321
5.15003
4.86899
4.63533
4.46407
4.325
4.19677
4.06872
3.93888
3.80402
3.68646
3.60076
3.53925
3.46864
3.33782
3.13276
2.93502
2.85994
2.82097
2.78063
2.73418
2.67596
2.61271
2.54537
2.47708
2.38195
2.39403
2.58271
3.00755
3.46937
3.82856
3.92013
3.91146
3.84501
3.67915
3.48101
3.3461
3.27825
3.22781
3.19289
3.16491
3.15565
3.16257
3.26661
3.48111
3.8495
4.15822
4.25502
4.28114
4.26625
4.22434
4.15663
4.08224
4.00593
3.94327
3.87112
3.76757
3.62623
3.72341
3.72747
3.71027
3.66602
3.52569
3.27825
2.9905
2.64281
2.3583
2.17756
2.00734
1.8021
1.53614
1.44914
1.41751
1.31683
1.32901
1.69253
2.70238
3.53716
3.65778
3.54136
3.34733
3.18364
3.06157
2.95034
2.82644
2.71908
2.64931
2.5719
2.47573
2.38388
2.26917
2.27333
2.56072
3.48747
4.56612
5.28632
5.34912
5.22287
4.89951
4.59355
4.38337
4.24723
4.137
4.02183
3.89177
3.76638
3.6586
3.56793
3.48492
3.38768
3.26682
3.10712
2.94641
2.84595
2.78462
2.73186
2.67523
2.62902
2.58973
2.56554
2.52488
2.58411
2.88998
3.3632
3.72568
3.94765
4.02184
3.99578
3.92684
3.82505
3.67536
3.48399
3.34993
3.29033
3.24752
3.21203
3.17582
3.14467
3.12816
3.1052
3.10065
3.18083
3.42591
3.75095
3.98833
4.16247
4.23034
4.1812
4.10492
4.03712
3.96956
3.88977
3.79048
3.62769
3.742
3.7382
3.73013
3.71058
3.65473
3.50099
3.26507
3.00797
2.71283
2.38156
2.24052
2.12063
1.89544
1.67564
1.568
1.68398
2.25987
3.40323
4.19153
4.15758
3.92726
3.64871
3.4238
3.25824
3.12103
2.99307
2.85708
2.75204
2.65177
2.55612
2.45374
2.35234
2.23881
2.15492
2.08466
2.18257
2.70277
3.77021
4.73757
4.94701
4.87963
4.63516
4.40156
4.23014
4.08873
3.96173
3.84848
3.74653
3.64312
3.53992
3.44429
3.34332
3.22948
3.093
2.9414
2.82268
2.75459
2.70709
2.65382
2.63439
2.62274
2.67894
2.88588
3.29763
3.77372
3.98467
4.09145
4.1584
4.11921
4.03449
3.92411
3.81311
3.68304
3.50121
3.35251
3.30177
3.26614
3.2313
3.2084
3.18
3.14156
3.0896
3.01226
2.90092
2.92581
3.10152
3.43048
3.79085
4.07192
4.13262
4.12795
4.0889
4.01526
3.91506
3.80061
3.62809
3.73929
3.73433
3.72417
3.71458
3.70033
3.63231
3.47627
3.25168
3.0287
2.74484
2.48875
2.28437
2.12987
2.01505
2.25644
3.14508
4.31053
4.81201
4.70189
4.39305
4.07089
3.81077
3.60439
3.42732
3.25859
3.08667
2.91492
2.78634
2.68048
2.58335
2.48246
2.36218
2.24791
2.14062
2.05206
1.96914
1.97741
2.23379
3.00382
3.98393
4.56526
4.54822
4.44682
4.23129
4.04352
3.89759
3.79479
3.71119
3.62394
3.52362
3.41993
3.29958
3.17099
3.03995
2.92559
2.82388
2.74399
2.69534
2.6713
2.69267
2.84922
3.26687
3.80458
4.18585
4.21429
4.19567
4.17698
4.13518
4.07316
4.00353
3.9144
3.81259
3.69243
3.52877
3.37961
3.32063
3.28673
3.2502
3.20956
3.16801
3.12647
3.07354
2.98231
2.84763
2.79457
2.81094
2.9434
3.24761
3.68551
3.97634
4.07831
4.07445
4.00372
3.88639
3.77306
3.62949
3.75481
3.74595
3.72596
3.701
3.68987
3.67359
3.60476
3.45806
3.24824
2.99891
2.76177
2.49537
2.53552
3.03697
4.30165
5.47815
5.60668
5.40188
5.02412
4.64152
4.30489
4.02378
3.78705
3.58041
3.39399
3.21123
3.03416
2.8757
2.73369
2.6
2.48091
2.3683
2.27774
2.17383
2.06309
1.96454
1.89579
1.84392
1.92048
2.35858
3.24392
4.00733
4.21063
4.16809
4.02297
3.87901
3.76476
3.66874
3.57191
3.46198
3.35514
3.24289
3.12873
3.0105
2.89558
2.80465
2.74823
2.72942
2.80489
3.15513
3.69286
4.28229
4.53336
4.54325
4.45503
4.3021
4.17947
4.10019
4.02762
3.96438
3.89318
3.80799
3.70669
3.58162
3.44266
3.35025
3.30102
3.25618
3.21138
3.16783
3.1236
3.06769
2.97782
2.84269
2.75888
2.74812
2.75774
2.84841
3.12429
3.5176
3.82773
3.92011
3.88847
3.80048
3.72501
3.63054
3.82046
3.82381
3.78402
3.72556
3.70224
3.70367
3.68457
3.61021
3.43874
3.23899
3.00211
3.18871
4.2146
5.70332
6.45845
6.39703
6.05043
5.64658
5.26609
4.90545
4.56511
4.24768
3.96203
3.70958
3.48605
3.28375
3.10885
2.95815
2.81922
2.67865
2.53919
2.40414
2.28098
2.17316
2.08322
1.99391
1.89324
1.81949
1.75407
1.75924
1.96079
2.58966
3.38834
3.88454
3.95336
3.90347
3.76844
3.63966
3.52083
3.39442
3.27727
3.17342
3.0795
2.97501
2.88838
2.81411
2.83062
3.00845
3.53839
4.23432
4.64975
4.69581
4.63141
4.54889
4.46657
4.35508
4.22638
4.11432
4.00793
3.92285
3.84994
3.77787
3.7084
3.62849
3.5214
3.40729
3.32403
3.26577
3.21742
3.17209
3.12385
3.05947
2.96522
2.85966
2.77526
2.72766
2.7082
2.71526
2.77316
2.96609
3.24399
3.55454
3.71314
3.69926
3.69526
3.63638
3.65756
3.73966
3.68828
3.65892
3.67507
3.69998
3.70794
3.67112
3.55115
3.57125
4.18495
5.70952
7.1917
7.64282
7.43268
6.87414
6.32834
5.87293
5.47863
5.11022
4.76264
4.43695
4.13729
3.86663
3.62034
3.39419
3.19359
3.01517
2.85515
2.71525
2.59219
2.4773
2.35762
2.22252
2.08525
1.97919
1.89683
1.81934
1.74026
1.69474
1.65892
1.72463
2.10766
2.85044
3.4675
3.65166
3.67025
3.60736
3.48487
3.3613
3.23934
3.12707
3.03099
2.96316
2.91951
2.98946
3.37236
3.99716
4.71603
5.00613
4.99297
4.88787
4.71295
4.54139
4.43116
4.35028
4.26272
4.14668
4.00924
3.8958
3.81783
3.75671
3.69387
3.62625
3.55348
3.46609
3.37025
3.2889
3.22383
3.16802
3.11499
3.05178
2.96933
2.88421
2.81102
2.75469
2.71031
2.67955
2.67785
2.70137
2.77896
2.96059
3.24565
3.44103
3.57879
3.62431
2.60445
3.41099
3.60901
3.75149
3.77422
3.72671
3.69398
3.71035
3.9837
5.31304
7.59612
8.46594
8.3043
8.04006
7.58363
7.11744
6.61723
6.12609
5.68412
5.28677
4.92289
4.58572
4.27384
3.99237
3.73749
3.4982
3.27367
3.07705
2.91202
2.7621
2.6124
2.47257
2.35419
2.25394
2.15144
2.03237
1.90792
1.81081
1.74657
1.68161
1.62429
1.58276
1.60288
1.79324
2.33451
2.95048
3.34562
3.4449
3.4145
3.3296
3.19148
3.10149
3.02768
3.06333
3.27331
3.85375
4.54351
5.0215
5.1023
5.05581
4.9777
4.89583
4.78769
4.63424
4.49035
4.38539
4.29285
4.17157
4.01905
3.88478
3.79172
3.73197
3.68286
3.63062
3.57098
3.49819
3.412
3.32342
3.23906
3.1631
3.09697
3.03826
2.9819
2.92109
2.85643
2.78773
2.73159
2.68859
2.64103
2.62105
2.61006
2.63518
2.75481
2.99765
3.2481
3.46979
1.36968
2.32418
3.14931
3.66183
3.69283
3.69544
3.91534
4.70395
6.53808
8.77402
9.92502
9.76946
8.96477
8.19447
7.68981
7.26746
6.81304
6.31215
5.83457
5.42428
5.0618
4.7129
4.38324
4.08475
3.81831
3.58281
3.36527
3.14737
2.94447
2.78363
2.65996
2.54807
2.42623
2.28911
2.15709
2.04464
1.9497
1.85096
1.74386
1.68635
1.65243
1.60127
1.53714
1.50429
1.57833
1.88787
2.46079
2.93989
3.2223
3.21319
3.15809
3.18468
3.42163
3.8528
4.49619
5.10172
5.46296
5.45732
5.30448
5.07932
4.90841
4.82143
4.74417
4.635
4.51008
4.38964
4.28045
4.1688
4.03777
3.91375
3.81276
3.73284
3.6721
3.61224
3.54248
3.48132
3.42456
3.35629
3.27007
3.17617
3.09277
3.02393
2.97211
2.92836
2.8829
2.83045
2.7684
2.69892
2.62767
2.56982
2.53131
2.51394
2.52632
2.613
2.79674
3.1635
1.02193
1.28127
2.02816
3.13022
3.49872
4.05653
5.94655
7.82411
9.45081
10.064
10.0596
9.8388
9.3002
8.54279
7.90093
7.37645
6.90656
6.43475
5.96124
5.52692
5.14662
4.80746
4.47321
4.16388
3.8961
3.66827
3.45385
3.22653
3.01815
2.84258
2.68795
2.54073
2.40023
2.26374
2.13791
2.04877
1.9749
1.86992
1.77334
1.706
1.62682
1.54529
1.47002
1.42498
1.39841
1.41693
1.57777
2.01039
2.6469
3.00633
3.24095
3.8598
4.68503
5.19356
5.52153
5.59136
5.56263
5.4682
5.28735
5.12581
4.96905
4.82719
4.72015
4.62257
4.53025
4.42391
4.29988
4.16917
4.0492
3.95312
3.86833
3.77591
3.69219
3.61787
3.54665
3.48441
3.42721
3.36553
3.29764
3.21702
3.11449
3.02574
2.96628
2.92465
2.89364
2.86419
2.81974
2.74016
2.63514
2.54814
2.49757
2.46438
2.45383
2.46
2.50631
2.77127
1.00034
1.01933
1.16728
2.02261
3.80125
5.71009
8.42132
9.8694
10.9233
10.6873
10.1406
9.74426
9.36663
8.79515
8.11516
7.44014
6.87892
6.49275
6.17694
5.78835
5.3478
4.91744
4.5186
4.18356
3.89594
3.62402
3.4434
3.3379
3.18705
2.98267
2.76585
2.577
2.41786
2.2945
2.18662
2.06624
1.95651
1.90978
1.8552
1.76204
1.64638
1.54459
1.4691
1.41899
1.38093
1.34823
1.35303
1.45143
1.8617
2.83055
3.80265
4.90411
5.69661
6.08208
6.07583
5.94579
5.60031
5.35251
5.20578
5.11355
5.01711
4.86342
4.71928
4.60759
4.49195
4.35006
4.22257
4.11572
4.02174
3.95056
3.86643
3.74515
3.63973
3.59098
3.56239
3.52746
3.48152
3.42282
3.32748
3.19694
3.09546
3.02422
2.96904
2.93205
2.90019
2.86362
2.80874
2.72125
2.61799
2.54153
2.49373
2.45969
2.43895
2.42804
2.44044
2.53132
1.00053
1.0087
1.19479
1.86133
3.6588
6.35588
8.07913
9.79859
10.9526
10.4336
9.85894
9.6526
9.41394
8.99537
8.32609
7.61841
7.01689
6.51951
6.05744
5.63171
5.19746
4.82577
4.56754
4.30105
4.00836
3.73564
3.50416
3.29024
3.09239
2.89168
2.68372
2.56162
2.49388
2.4066
2.2899
2.14289
2.00306
1.8902
1.79125
1.68826
1.61711
1.57277
1.52636
1.48283
1.4217
1.36852
1.36586
1.44409
1.82181
2.67935
3.9891
5.00419
5.50644
6.07839
6.11903
5.83571
5.44366
5.29442
5.2046
5.11579
5.05724
4.9491
4.79935
4.65091
4.50016
4.33766
4.18835
4.11193
4.05836
3.98777
3.88165
3.74844
3.65583
3.60188
3.5454
3.49133
3.44314
3.38793
3.30452
3.17947
3.08017
3.03834
3.00865
2.97395
2.93655
2.89514
2.82849
2.71475
2.61589
2.57054
2.53577
2.50459
2.47293
2.44648
2.44948
2.53535
1.02949
1.21667
2.0123
2.94211
3.43948
4.60748
5.72755
7.837
9.33232
9.78263
9.80615
9.71926
9.28924
8.64902
8.0601
7.52444
7.01062
6.49326
5.98974
5.53829
5.15201
4.78904
4.42692
4.11359
3.85127
3.61855
3.40757
3.21514
3.04845
2.8838
2.7245
2.56758
2.40707
2.28181
2.18313
2.08212
1.97206
1.86122
1.76341
1.68406
1.59981
1.51518
1.46973
1.44533
1.42854
1.44655
1.61718
2.07734
2.6851
2.92013
3.37213
3.95769
4.45136
5.23657
5.49522
5.4839
5.45533
5.42641
5.32759
5.18215
5.01955
4.8862
4.76938
4.63027
4.47518
4.33285
4.21279
4.11586
4.02368
3.93778
3.86385
3.78841
3.70828
3.62587
3.55341
3.49516
3.44396
3.38176
3.28798
3.1761
3.0964
3.04317
2.99525
2.95124
2.90755
2.86382
2.80251
2.69075
2.58079
2.53608
2.50785
2.48313
2.48311
2.48906
2.5312
2.75462
1.40586
2.18047
3.23781
3.65847
3.65614
3.70977
3.87492
4.64304
6.55261
8.78781
9.78906
9.69884
9.02118
8.30735
7.83304
7.38275
6.8733
6.32657
5.80867
5.35982
4.98106
4.63881
4.31789
4.03877
3.80954
3.61674
3.42696
3.2161
2.98922
2.7868
2.63597
2.51037
2.37836
2.24209
2.13667
2.06253
1.9894
1.90023
1.80609
1.70289
1.60493
1.52045
1.4851
1.47461
1.54536
1.89538
2.46991
3.02391
3.24881
3.21348
3.18108
3.18657
3.3072
3.77466
4.49776
5.10353
5.43561
5.4853
5.36891
5.15785
4.95064
4.839
4.73519
4.60061
4.45821
4.3392
4.23227
4.12607
4.02544
3.92523
3.8251
3.7396
3.67316
3.61776
3.55886
3.48521
3.4054
3.33219
3.25095
3.16402
3.0975
3.04518
3.00049
2.96256
2.92262
2.86634
2.78404
2.67536
2.58011
2.54107
2.51958
2.51412
2.53313
2.64255
2.87332
3.18827
2.58801
3.23325
3.66956
3.80478
3.79981
3.76978
3.70954
3.70954
3.99414
5.40151
7.5687
8.41591
8.39325
8.14951
7.72159
7.18582
6.60456
6.05523
5.58341
5.18548
4.83703
4.52703
4.26112
4.02494
3.79726
3.56826
3.33996
3.11769
2.91045
2.73197
2.57823
2.44452
2.33658
2.24728
2.15475
2.05508
1.94877
1.83789
1.75641
1.70537
1.65408
1.58865
1.59959
1.76749
2.27982
2.93256
3.36564
3.46651
3.44354
3.36413
3.20057
3.06958
2.98979
3.02664
3.30462
3.93807
4.65872
5.13001
5.14917
5.06738
4.95592
4.8467
4.69528
4.54324
4.43236
4.36054
4.28329
4.17236
4.03565
3.90529
3.81366
3.74528
3.68585
3.63009
3.56605
3.48209
3.37544
3.27689
3.21826
3.17787
3.13512
3.0922
3.04605
2.98699
2.91205
2.82769
2.74774
2.68378
2.60569
2.56969
2.57116
2.6147
2.78724
3.097
3.41975
3.55405
3.56825
3.67318
3.68985
3.71099
3.73176
3.73468
3.72469
3.68952
3.55513
3.57008
4.16453
5.6924
7.26336
7.6705
7.43809
6.84752
6.26979
5.79561
5.39795
5.04221
4.71646
4.42342
4.16314
3.9231
3.69752
3.47948
3.26608
3.05807
2.86262
2.68527
2.54095
2.42407
2.3085
2.19752
2.09621
1.99907
1.90693
1.83108
1.75297
1.69832
1.67762
1.74382
2.11196
2.79955
3.44498
3.67854
3.68215
3.59965
3.4707
3.33498
3.19737
3.06717
2.98323
2.96415
2.95431
3.07293
3.46669
4.10337
4.67927
4.96239
4.95146
4.82294
4.63789
4.53247
4.4677
4.40188
4.30924
4.1845
4.01529
3.86836
3.79784
3.73907
3.67866
3.61911
3.55594
3.47893
3.37628
3.26037
3.17983
3.13192
3.09667
3.06427
3.02686
2.96957
2.88908
2.80158
2.72496
2.66973
2.63202
2.63471
2.70982
2.94053
3.28181
3.59838
3.71654
3.69691
3.77176
3.7949
3.77135
3.7407
3.7246
3.71596
3.6809
3.59886
3.42944
3.23916
2.99829
3.17969
4.22113
5.74587
6.42602
6.33108
5.98838
5.59145
5.20689
4.85702
4.54826
4.27066
4.01926
3.78641
3.56867
3.3613
3.15845
2.95893
2.78119
2.62212
2.48642
2.36564
2.25144
2.14634
2.07189
2.00877
1.92982
1.8464
1.76364
1.75943
1.95482
2.5879
3.36887
3.84041
3.95059
3.90354
3.77739
3.65745
3.5145
3.36151
3.21952
3.10741
3.03765
2.97875
2.93453
2.89014
2.89898
3.04921
3.49633
4.09191
4.50619
4.5523
4.57864
4.58957
4.5411
4.45074
4.31803
4.17205
3.99507
3.83703
3.77866
3.72406
3.66411
3.60661
3.54934
3.47898
3.3795
3.25598
3.17239
3.13773
3.1058
3.06425
3.00277
2.92604
2.84715
2.78169
2.73978
2.6995
2.71847
2.83925
3.11364
3.44821
3.67608
3.79731
3.81815
3.77162
3.74378
3.71779
3.70738
3.70051
3.69921
3.68258
3.60706
3.45653
3.24687
3.0008
2.76088
2.49063
2.52966
3.02768
4.25983
5.41809
5.61459
5.402
5.01741
4.64466
4.32938
4.0685
3.84416
3.63485
3.42708
3.22225
3.02298
2.83022
2.66859
2.53018
2.42421
2.33626
2.25977
2.17332
2.09439
1.99898
1.93667
1.86679
1.92056
2.34945
3.16286
3.96672
4.14946
4.1468
4.06165
3.93518
3.81798
3.70555
3.57024
3.40697
3.26308
3.16446
3.09134
3.01854
2.95812
2.88302
2.83118
2.76146
2.79579
3.02843
3.56533
4.10293
4.44316
4.59241
4.57269
4.4543
4.30519
4.17168
3.9983
3.81591
3.7426
3.69045
3.63938
3.58814
3.5358
3.47507
3.39341
3.29239
3.19999
3.13086
3.07311
3.01468
2.95111
2.88452
2.82984
2.79677
2.79553
2.85889
3.05394
3.35239
3.68357
3.8149
3.81715
3.81317
3.79287
3.71742
3.72959
3.72294
3.72026
3.71542
3.70458
3.63552
3.47873
3.2547
3.03024
2.74752
2.4888
2.2807
2.12473
2.00992
2.24008
3.12075
4.33787
4.8273
4.71793
4.41637
4.10491
3.85605
3.6494
3.45653
3.25813
3.0657
2.88977
2.73743
2.61424
2.51329
2.42902
2.35835
2.27848
2.17287
2.08971
2.01166
2.01994
2.23212
2.93231
3.90798
4.3593
4.49425
4.43533
4.2642
4.11801
3.99056
3.87569
3.75664
3.61116
3.44188
3.30723
3.21334
3.1361
3.06292
2.9954
2.91825
2.82951
2.73778
2.65089
2.6351
2.7534
3.17753
3.74793
4.22287
4.37517
4.36877
4.32295
4.20896
4.01559
3.80488
3.69837
3.64759
3.61146
3.57711
3.53081
3.47638
3.4127
3.33066
3.22086
3.10391
3.01715
2.95178
2.90609
2.86805
2.85409
2.88678
3.04257
3.35927
3.6915
3.94263
4.01385
3.94819
3.8235
3.77143
3.73439
3.65655
3.73589
3.73516
3.72992
3.7126
3.65615
3.50195
3.26669
3.00996
2.71165
2.38476
2.24379
2.11937
1.89164
1.67041
1.5664
1.68418
2.29251
3.44454
4.19942
4.16712
3.95904
3.68898
3.45037
3.26495
3.10064
2.95519
2.81941
2.70571
2.5975
2.50679
2.41784
2.36777
2.29033
2.2105
2.13959
2.23685
2.78726
3.75543
4.63129
4.77624
4.69231
4.5719
4.42874
4.30522
4.19586
4.08277
3.94939
3.78753
3.61331
3.4648
3.35907
3.26879
3.18493
3.1059
3.02936
2.94803
2.85466
2.75085
2.63626
2.57245
2.53225
2.58522
2.84802
3.35673
3.89764
4.22761
4.2527
4.20821
4.04663
3.83557
3.68681
3.61523
3.57517
3.5592
3.54511
3.50844
3.4573
3.37224
3.22677
3.06722
2.9682
2.9136
2.90011
2.90069
2.9923
3.2642
3.69036
4.04369
4.17402
4.18048
4.09627
3.92741
3.80107
3.75006
3.71646
3.63992
3.7265
3.72957
3.7121
3.66703
3.52597
3.27822
2.98992
2.643
2.36118
2.17735
2.00744
1.80051
1.53525
1.44955
1.41742
1.31465
1.33174
1.71365
2.70075
3.53773
3.68693
3.56291
3.34718
3.17331
3.04119
2.92127
2.80609
2.71457
2.62612
2.53774
2.45916
2.41567
2.33773
2.35123
2.6356
3.56383
4.71167
5.21873
5.19297
5.04362
4.80437
4.59703
4.4492
4.35088
4.26351
4.15759
3.99876
3.79187
3.60889
3.48984
3.40233
3.3156
3.22645
3.14039
3.06498
2.98965
2.89538
2.78432
2.6607
2.55376
2.48969
2.45641
2.47203
2.6112
2.98467
3.53143
3.91831
4.00921
3.97304
3.86633
3.71462
3.62652
3.58123
3.54325
3.49879
3.45201
3.3995
3.32285
3.2012
3.05223
2.95288
2.93006
2.95401
3.1137
3.48214
3.94291
4.29884
4.3915
4.37435
4.29097
4.11558
3.9085
3.8007
3.74819
3.71532
3.64493
3.72724
3.72356
3.69005
3.55211
3.30007
2.95311
2.61505
2.34734
2.08797
1.84881
1.6574
1.47341
1.36572
1.32196
1.25559
1.11632
1.04772
1.0783
1.35415
2.19088
3.09916
3.38373
3.32776
3.17767
3.04787
2.94732
2.85131
2.77129
2.70464
2.61793
2.55439
2.50661
2.62522
3.28504
4.47231
5.53462
5.63158
5.50035
5.29071
5.06777
4.8598
4.67739
4.53928
4.42381
4.30772
4.17657
3.99182
3.77345
3.6155
3.51978
3.44101
3.3646
3.285
3.18632
3.07364
2.97833
2.89769
2.82327
2.72934
2.61319
2.49875
2.42274
2.39778
2.40156
2.45923
2.71055
3.14096
3.58379
3.81941
3.81693
3.74768
3.65951
3.58748
3.51844
3.46273
3.41475
3.36039
3.29583
3.19783
3.05236
2.99556
3.05649
3.29397
3.69011
4.12648
4.42798
4.47132
4.45954
4.38078
4.22827
4.04605
3.90289
3.84272
3.7838
3.72443
3.65762
3.7448
3.72387
3.59822
3.32127
2.92403
2.59102
2.29914
1.95695
1.68669
1.53665
1.39506
1.23941
1.18478
1.13594
1.05057
0.968705
0.953352
0.939269
0.952482
1.17294
1.89935
2.95284
3.28576
3.23029
3.15076
3.07733
2.98607
2.89804
2.83924
2.75882
2.77947
3.09058
4.15502
5.4151
6.08026
6.10268
5.90545
5.58047
5.29477
5.08648
4.90566
4.74486
4.59992
4.46265
4.31443
4.15308
3.96849
3.8011
3.67537
3.56542
3.46666
3.37954
3.29546
3.22326
3.12501
3.00145
2.88246
2.78842
2.72578
2.66172
2.56318
2.45323
2.38761
2.35753
2.34603
2.38716
2.5043
2.79621
3.20749
3.57153
3.64006
3.60141
3.54751
3.49613
3.43473
3.3772
3.31661
3.27746
3.20342
3.18789
3.29076
3.59711
3.97693
4.29996
4.54346
4.59286
4.54386
4.40919
4.28101
4.14763
4.00823
3.93398
3.89211
3.84009
3.77687
3.66878
3.73814
3.62501
3.3518
2.89873
2.48091
2.19329
1.83247
1.54567
1.43149
1.29392
1.11831
1.07333
1.05677
1.01774
0.955678
0.944604
0.945066
0.935525
0.938182
0.959567
1.13079
1.81865
2.9025
3.21243
3.26612
3.25856
3.18473
3.08108
3.01589
3.12666
3.77559
5.20753
6.41434
6.45371
6.36825
6.10741
5.86374
5.62975
5.40434
5.22421
5.04044
4.85964
4.68601
4.49194
4.29966
4.12305
3.94928
3.81707
3.72705
3.64096
3.55604
3.46509
3.36477
3.22572
3.08051
2.95958
2.87088
2.80601
2.73954
2.66121
2.58384
2.50927
2.44941
2.3943
2.33439
2.28547
2.24057
2.27756
2.47642
2.85833
3.28545
3.48763
3.50224
3.46584
3.39784
3.33255
3.31621
3.32291
3.425
3.66881
4.04724
4.36007
4.54271
4.61759
4.61938
4.5543
4.43273
4.30241
4.18509
4.09377
4.03512
4.01071
3.97891
3.92022
3.84274
3.69246
3.65472
3.35286
2.87061
2.34073
1.9966
1.6905
1.39568
1.24532
1.13824
1.01166
0.952262
0.940885
0.917046
0.909076
0.912519
0.932906
0.959813
0.975467
0.981428
0.994133
1.02023
1.14484
1.78939
2.74085
3.25573
3.30143
3.31302
3.33988
3.60086
4.65608
6.24499
7.13302
7.18061
6.8794
6.36095
6.02205
5.83127
5.66252
5.47671
5.26802
5.03497
4.82269
4.63672
4.46457
4.28793
4.11955
3.97358
3.88052
3.79244
3.68018
3.54665
3.41628
3.30524
3.18999
3.06478
2.96034
2.8861
2.82421
2.76148
2.69838
2.63718
2.56694
2.47995
2.38308
2.3048
2.24208
2.18433
2.16654
2.17951
2.28678
2.59656
3.01694
3.30303
3.33894
3.32903
3.34408
3.4367
3.64961
4.02198
4.46782
4.75422
4.86125
4.85925
4.76683
4.59024
4.43968
4.30269
4.23139
4.16284
4.09344
4.05595
4.0296
3.99044
3.921
3.83337
3.6833
3.37208
2.76241
2.12499
1.78389
1.52404
1.21277
1.09079
1.06893
1.01489
0.957278
0.938019
0.926141
0.910863
0.907699
0.923702
0.968853
1.01293
1.02798
1.02835
1.02806
1.02014
1.0229
1.10354
1.64168
2.57132
3.05794
3.57647
4.285
5.59965
6.79535
7.52777
7.41442
7.04987
6.66397
6.38594
6.14539
5.93954
5.7602
5.58065
5.37283
5.1255
4.86096
4.6303
4.46305
4.33436
4.21453
4.11741
4.02607
3.91411
3.77357
3.61235
3.44416
3.29175
3.18147
3.09701
3.02411
2.96422
2.90962
2.85637
2.79876
2.73347
2.6504
2.54324
2.41435
2.29693
2.22834
2.18023
2.14225
2.11645
2.12599
2.20103
2.42572
2.77819
3.09345
3.30284
3.58805
3.96952
4.26336
4.60809
4.88581
5.00336
4.98964
4.8861
4.72882
4.54474
4.35909
4.25638
4.2142
4.18199
4.1569
4.12603
4.08506
4.02639
3.94404
3.85427
3.69894
2.66684
1.68209
1.13848
0.88505
0.691255
0.621164
0.64342
0.737678
0.813896
0.854411
0.92798
0.9914
0.989138
0.982794
0.994723
1.03509
1.07429
1.08186
1.0808