/*--------------------------------*- C++ -*----------------------------------*\
  =========                 |
  \\      /  F ield         | OpenFOAM: The Open Source CFD Toolbox
   \\    /   O peration     | Website:  https://openfoam.org
    \\  /    A nd           | Version:  7
     \\/     M anipulation  |
\*---------------------------------------------------------------------------*/
FoamFile
{
    version     2.0;
    format      ascii;
    class       volScalarField;
    location    "3";
    object      rho;
}
// * * * * * * * * * * * * * * * * * * * * * * * * * * * * * * * * * * * * * //

dimensions      [1 -3 0 0 0 0 0];

internalField   nonuniform List<scalar> 
4608
(
1.40001
1.40001
1.40001
1.40001
1.40001
1.40001
1.40001
1.40001
1.40001
1.40001
1.40001
1.40001
1.40001
1.40001
1.40001
1.40001
1.40001
1.40001
1.40001
1.40001
1.40001
1.40001
1.40001
1.40001
1.40001
1.40001
1.40001
1.40001
1.40001
1.40001
1.40001
1.40001
1.40001
1.40001
1.40001
1.40001
1.40001
1.40001
1.40001
1.40001
1.40001
1.40001
1.40001
1.40001
1.40001
1.40001
1.40001
1.40001
1.40001
1.40001
1.40001
1.40001
1.40001
1.40001
1.40001
1.40001
1.40001
1.40001
1.40001
1.40001
1.40001
1.40001
1.40001
1.40001
1.40001
1.40001
1.40001
1.40001
1.40001
1.40001
1.40001
1.40001
1.40001
1.40001
1.40001
1.40001
1.40001
1.40001
1.40001
1.40001
1.40001
1.40001
1.40001
1.40001
1.40001
1.40001
1.40001
1.40001
1.40001
1.40001
1.40001
1.40001
1.40001
1.40001
1.40001
1.40001
1.40001
1.40001
1.40001
1.40001
1.40001
1.40001
1.40001
1.40001
1.40001
1.40001
1.40001
1.40001
1.40001
1.40001
1.40001
1.40001
1.40001
1.40001
1.40001
1.40001
1.40001
1.40001
1.40001
1.40001
1.40001
1.40001
1.40001
1.40001
1.40001
1.40001
1.40001
1.40001
1.40001
1.40001
1.40001
1.40001
1.40001
1.40001
1.40001
1.40001
1.40001
1.40001
1.40001
1.40001
1.40001
1.40001
1.40001
1.40001
1.40001
1.40001
1.40001
1.40001
1.40001
1.40001
1.40001
1.40001
1.40001
1.40001
1.40001
1.40001
1.40001
1.40001
1.40001
1.40001
1.40001
1.40001
1.40001
1.40001
1.40001
1.40001
1.40001
1.40001
1.40001
1.40001
1.40001
1.40001
1.40001
1.40001
1.40001
1.40001
1.40001
1.40001
1.40001
1.40001
1.40001
1.40001
1.40001
1.40001
1.40001
1.40001
1.40001
1.40001
1.40001
1.40001
1.40001
1.40001
1.40001
1.40001
1.40001
1.40001
1.40001
1.40001
1.40001
1.40001
1.40001
1.40001
1.40001
1.40001
1.40001
1.40001
1.40001
1.40001
1.40001
1.40001
1.40001
1.40001
1.40001
1.40001
1.40001
1.40001
1.40001
1.40001
1.40001
1.40001
1.40001
1.40001
1.40001
1.40001
1.40001
1.40001
1.40001
1.40001
1.40001
1.40001
1.40001
1.40001
1.40001
1.40001
1.40001
1.40001
1.40001
1.40001
1.40001
1.40001
1.40001
1.40001
1.40001
1.40001
1.40001
1.40001
1.40001
1.40001
1.40001
1.40001
1.40001
1.40001
1.40001
1.40001
1.40001
1.40001
1.40001
1.40001
1.40001
1.40001
1.40001
1.40001
1.40001
1.40001
1.40001
1.40001
1.40001
1.40001
1.40001
1.40001
1.40001
1.40001
1.40001
1.40001
1.40001
1.40001
1.40001
1.40001
1.40001
1.40001
1.40001
1.40001
1.40001
1.40001
1.40001
1.40001
1.40001
1.40001
1.40001
1.40001
1.40001
1.40001
1.40001
1.40001
1.40001
1.40001
1.40001
1.40001
1.40001
1.40001
1.40001
1.40001
1.40001
1.40001
1.40001
1.40001
1.40001
1.40001
1.40001
1.40001
1.40001
1.40001
1.40001
1.40001
1.40001
1.40001
1.40001
1.40001
1.40001
1.40001
1.40001
1.40001
1.40001
1.40001
1.40001
1.40001
1.40001
1.40001
1.40001
1.40001
1.40001
1.40001
1.40001
1.40001
1.40001
1.40001
1.40001
1.40001
1.40001
1.40001
1.40001
1.40001
1.40001
1.40001
1.40001
1.40001
1.40001
1.40001
1.40001
1.40001
1.40001
1.40001
1.40001
1.40001
1.40001
1.40001
1.40001
1.40001
1.40001
1.40001
1.40001
1.40001
1.40001
1.40001
1.40001
1.40001
1.40001
1.40001
1.40001
1.40001
1.40001
1.40001
1.40001
1.40001
1.40001
1.40001
1.40001
1.40001
1.40001
1.40001
1.40001
1.40001
1.40001
1.40001
1.40001
1.40001
1.40001
1.40001
1.40001
1.40001
1.40001
1.40001
1.40001
1.40001
1.40001
1.40001
1.40001
1.40001
1.40001
1.40001
1.40001
1.40001
1.40001
1.40001
1.40001
1.40001
1.40001
1.40001
1.40001
1.40001
1.40001
1.40001
1.40001
1.40001
1.40001
1.40001
1.40001
1.40001
1.40001
1.40001
1.40001
1.40001
1.40001
1.40001
1.40001
1.40001
1.40001
1.40001
1.40001
1.40001
1.40001
1.40001
1.40001
1.40001
1.40001
1.40001
1.40001
1.40001
1.40001
1.40001
1.40001
1.40001
1.40001
1.40001
1.40001
1.40001
1.40001
1.40001
1.40001
1.40001
1.40001
1.40001
1.40001
1.40001
1.40001
1.40001
1.40001
1.40001
1.40001
1.40001
1.40001
1.40001
1.40001
1.40001
1.40001
1.40001
1.40001
1.40001
1.40001
1.40001
1.40001
1.40001
1.40001
1.40001
1.40001
1.40001
1.40001
1.40001
1.40001
1.40001
1.40001
1.40001
1.40001
1.40001
1.40001
1.40001
1.40001
1.40001
1.40001
1.40001
1.40001
1.40001
1.40001
1.40001
1.40001
1.40001
1.40001
1.40001
1.40001
1.40001
1.40001
1.40001
1.40001
1.40001
1.40001
1.40001
1.40001
1.40001
1.40001
1.40001
1.40001
1.40001
1.40001
1.40001
1.40001
1.40001
1.40001
1.40001
1.40001
1.40001
1.40001
1.40001
1.40001
1.40001
1.40001
1.40001
1.40001
1.40001
1.40001
1.40001
1.40001
1.40001
1.40001
1.40001
1.40001
1.40001
1.40001
1.40001
1.40001
1.40001
1.40001
1.40001
1.40001
1.40001
1.40001
1.40001
1.40001
1.40001
1.40001
1.40001
1.40001
1.40001
1.40001
1.40001
1.40001
1.40001
1.40001
1.40001
1.40001
1.40001
1.40001
1.40001
1.40001
1.40001
1.40001
1.40001
1.40001
1.40001
1.40001
1.40001
1.40001
1.40001
1.40001
1.40001
1.40001
1.40001
1.40001
1.40001
1.40001
1.40001
1.40001
1.40001
1.40001
1.40001
1.40001
1.40001
1.40001
1.40001
1.40001
1.40001
1.40001
1.40001
1.40001
1.40001
1.40001
1.40001
1.40001
1.40001
1.40001
1.40001
1.40001
1.40001
1.40001
1.40001
1.40001
1.40001
1.40001
1.40001
1.40001
1.40001
1.40001
1.40001
1.40001
1.40001
1.40001
1.40001
1.40001
1.40001
1.40001
1.40001
1.40001
1.40001
1.40001
1.40001
1.40001
1.40001
1.40001
1.40001
1.40001
1.40001
1.40001
1.40001
1.40001
1.40001
1.40001
1.40001
1.40001
1.40001
1.40001
1.40001
1.40001
1.40001
1.40001
1.40001
1.40001
1.40001
1.40001
1.40001
1.40001
1.40001
1.40001
1.40001
1.40001
1.40001
1.40001
1.40001
1.40001
1.40001
1.40001
1.40001
1.40001
1.40001
1.40001
1.40001
1.40001
1.40001
1.40001
1.40001
1.40001
1.40001
1.40001
1.40001
1.40001
1.40001
1.40001
1.40001
1.40001
1.40001
1.40001
1.40001
1.40001
1.40001
1.40001
1.40001
1.40001
1.40001
1.40001
1.40001
1.40001
1.40001
1.40001
1.40001
1.40001
1.40001
1.40001
1.40001
1.40001
1.40001
1.40001
1.40001
1.40001
1.40001
1.40001
1.40001
1.40001
1.40001
1.40001
1.40001
1.40001
1.40001
1.40001
1.40001
1.40001
1.40001
1.40001
1.40001
1.40001
1.40001
1.40001
1.40001
1.40001
1.40001
1.40001
1.40001
1.40001
1.40001
1.40001
1.40001
1.40001
1.40001
1.40001
1.40001
1.40001
1.40001
1.40001
1.40001
1.40001
1.40001
1.40001
1.40001
1.40001
1.40001
1.40001
1.40001
1.40001
1.40001
1.40001
1.40001
1.40001
1.40001
1.40001
1.40001
1.40001
1.40001
1.40001
1.40001
1.40001
1.40001
1.40001
1.40001
1.40001
1.40001
1.40001
1.40001
1.40001
1.40001
1.40001
1.40001
1.67788
2.08023
2.54357
2.99428
3.41627
3.84793
4.11636
4.41268
4.42839
4.30747
4.0279
3.70881
3.4644
3.36637
3.29907
3.30262
3.33053
3.36165
3.38432
3.3889
3.39359
3.40237
3.41563
3.42911
1.40272
1.41948
1.47013
1.59298
1.79449
2.11145
2.50767
2.98124
3.36639
3.55206
3.64881
3.59509
3.56452
3.49852
3.42087
3.38211
3.37898
3.37126
3.37358
3.38039
3.38998
3.39821
3.40579
3.41649
1.40001
1.4
1.39997
1.40023
1.40315
1.42157
1.49817
1.70625
2.19661
2.88984
3.4364
3.69614
3.77386
3.72479
3.62283
3.45463
3.35713
3.34791
3.35277
3.36664
3.38024
3.38681
3.38885
3.39749
1.40001
1.4
1.4
1.4
1.39999
1.40004
1.39999
1.40138
1.43234
1.62906
2.19694
2.89435
3.48061
3.57509
3.55662
3.51855
3.43308
3.36226
3.3582
3.35336
3.35261
3.35559
3.35898
3.36847
1.40001
1.40001
1.4
1.4
1.4
1.4
1.4
1.4
1.39992
1.40105
1.43683
1.68672
2.31315
2.99775
3.39696
3.54879
3.52079
3.44481
3.35952
3.3269
3.30912
3.30179
3.31021
3.32132
1.40001
1.40001
1.40001
1.40001
1.40001
1.4
1.4
1.4
1.39999
1.4
1.39992
1.40309
1.45648
1.82713
2.48273
3.20307
3.39776
3.39187
3.37047
3.33152
3.2849
3.27674
3.27983
3.28825
1.40001
1.40001
1.40001
1.40001
1.40001
1.40001
1.40001
1.40001
1.4
1.4
1.39999
1.39999
1.39998
1.41218
1.52355
2.02794
2.74311
3.2934
3.42045
3.39818
3.33711
3.31192
3.30134
3.29163
1.40001
1.40001
1.40001
1.40001
1.40001
1.40001
1.40001
1.40001
1.40001
1.40001
1.4
1.4
1.4
1.39997
1.40067
1.4359
1.67976
2.37411
2.98842
3.33968
3.37527
3.36054
3.33456
3.31382
1.40001
1.40001
1.40001
1.40001
1.40001
1.40001
1.40001
1.40001
1.40001
1.40001
1.40001
1.40001
1.4
1.4
1.4
1.40005
1.4058
1.5222
1.99596
2.81006
3.16033
3.26808
3.31008
3.31912
1.40001
1.40001
1.40001
1.40001
1.40001
1.40001
1.40001
1.40001
1.40001
1.40001
1.40001
1.40001
1.40001
1.4
1.4
1.4
1.39999
1.40161
1.44109
1.744
2.44227
3.09354
3.33388
3.33238
1.40001
1.40001
1.40001
1.40001
1.40001
1.40001
1.40001
1.40001
1.40001
1.40001
1.40001
1.40001
1.40001
1.40001
1.40001
1.4
1.4
1.4
1.40018
1.41392
1.59708
2.21171
2.87089
3.2304
1.40001
1.40001
1.40001
1.40001
1.40001
1.40001
1.40001
1.40001
1.40001
1.40001
1.40001
1.40001
1.40001
1.40001
1.40001
1.40001
1.4
1.4
1.4
1.40003
1.40579
1.49589
1.99842
2.71363
1.40001
1.40001
1.40001
1.40001
1.40001
1.40001
1.40001
1.40001
1.40001
1.40001
1.40001
1.40001
1.40001
1.40001
1.40001
1.40001
1.40001
1.4
1.4
1.4
1.4
1.4017
1.46494
1.80388
1.40001
1.40001
1.40001
1.40001
1.40001
1.40001
1.40001
1.40001
1.40001
1.40001
1.40001
1.40001
1.40001
1.40001
1.40001
1.40001
1.40001
1.40001
1.40001
1.4
1.4
1.4
1.40112
1.42873
1.40001
1.40001
1.40001
1.40001
1.40001
1.40001
1.40001
1.40001
1.40001
1.40001
1.40001
1.40001
1.40001
1.40001
1.40001
1.40001
1.40001
1.40001
1.40001
1.40001
1.4
1.4
1.4
1.40012
1.40001
1.40001
1.40001
1.40001
1.40001
1.40001
1.40001
1.40001
1.40001
1.40001
1.40001
1.40001
1.40001
1.40001
1.40001
1.40001
1.40001
1.40001
1.40001
1.40001
1.40001
1.4
1.4
1.4
1.40001
1.40001
1.40001
1.40001
1.40001
1.40001
1.40001
1.40001
1.40001
1.40001
1.40001
1.40001
1.40001
1.40001
1.40001
1.40001
1.40001
1.40001
1.40001
1.40001
1.40001
1.4
1.4
1.39999
1.40001
1.40001
1.40001
1.40001
1.40001
1.40001
1.40001
1.40001
1.40001
1.40001
1.40001
1.40001
1.40001
1.40001
1.40001
1.40001
1.40001
1.40001
1.40001
1.40001
1.4
1.4
1.40001
1.39998
1.40001
1.40001
1.40001
1.40001
1.40001
1.40001
1.40001
1.40001
1.40001
1.40001
1.40001
1.40001
1.40001
1.40001
1.40001
1.40001
1.40001
1.40001
1.40001
1.4
1.4
1.4
1.40127
1.42469
1.40001
1.40001
1.40001
1.40001
1.40001
1.40001
1.40001
1.40001
1.40001
1.40001
1.40001
1.40001
1.40001
1.40001
1.40001
1.40001
1.40001
1.4
1.4
1.4
1.4
1.40182
1.46147
1.83307
1.40001
1.40001
1.40001
1.40001
1.40001
1.40001
1.40001
1.40001
1.40001
1.40001
1.40001
1.40001
1.40001
1.40001
1.40001
1.40001
1.4
1.4
1.4
1.40002
1.40563
1.49398
1.9922
2.76452
1.40001
1.40001
1.40001
1.40001
1.40001
1.40001
1.40001
1.40001
1.40001
1.40001
1.40001
1.40001
1.40001
1.40001
1.40001
1.4
1.4
1.4
1.40019
1.41387
1.59526
2.18458
2.91691
3.22775
1.40001
1.40001
1.40001
1.40001
1.40001
1.40001
1.40001
1.40001
1.40001
1.40001
1.40001
1.40001
1.40001
1.4
1.4
1.4
1.39999
1.4016
1.4411
1.74634
2.43785
3.08405
3.3444
3.34234
1.40001
1.40001
1.40001
1.40001
1.40001
1.40001
1.40001
1.40001
1.40001
1.40001
1.40001
1.40001
1.4
1.4
1.4
1.40004
1.40585
1.52134
1.99815
2.81037
3.1543
3.26778
3.32012
3.32271
1.40001
1.40001
1.40001
1.40001
1.40001
1.40001
1.40001
1.40001
1.40001
1.40001
1.4
1.4
1.4
1.39997
1.40067
1.43583
1.67998
2.37207
2.99267
3.33829
3.3721
3.36165
3.33808
3.31201
1.40001
1.40001
1.40001
1.40001
1.40001
1.40001
1.40001
1.40001
1.4
1.4
1.39999
1.39999
1.39998
1.41217
1.52358
2.02843
2.74219
3.29358
3.42092
3.39871
3.33625
3.31244
3.3015
3.29102
1.40001
1.40001
1.40001
1.40001
1.40001
1.4
1.4
1.4
1.39999
1.4
1.39992
1.4031
1.45648
1.82695
2.48296
3.20354
3.39698
3.39152
3.37078
3.33117
3.28444
3.27634
3.27974
3.28758
1.40001
1.40001
1.4
1.4
1.4
1.4
1.4
1.4
1.39992
1.40105
1.43682
1.68683
2.31302
2.99761
3.39716
3.54887
3.52075
3.44456
3.35985
3.32687
3.30876
3.30202
3.31042
3.32131
1.40001
1.4
1.4
1.4
1.39999
1.40004
1.39999
1.40138
1.43235
1.62905
2.19696
2.89446
3.48034
3.57508
3.55667
3.51884
3.43282
3.36225
3.35831
3.35329
3.35253
3.35579
3.35934
3.36864
1.40001
1.4
1.39997
1.40023
1.40315
1.42157
1.49817
1.70623
2.19667
2.88972
3.4365
3.6961
3.77384
3.72469
3.62284
3.45513
3.35661
3.34807
3.35292
3.36657
3.38021
3.38693
3.38898
3.39748
1.40272
1.41949
1.47015
1.59296
1.79448
2.11146
2.50764
2.98127
3.3664
3.55203
3.64884
3.59515
3.56453
3.49836
3.42117
3.38195
3.37865
3.37136
3.37363
3.38046
3.3899
3.39819
3.4058
3.41646
1.67788
2.08024
2.54351
2.99429
3.41634
3.84788
4.11631
4.41273
4.42841
4.30747
4.02787
3.70894
3.46425
3.36632
3.2991
3.30254
3.33041
3.36168
3.38456
3.38903
3.39354
3.40228
3.41551
3.42901
2.66972
1.91467
1.44226
1.18976
0.980018
0.902251
0.920976
1.00688
1.08583
1.12832
1.19842
1.26549
1.26531
1.25898
1.26871
1.30587
1.34544
1.35446
1.35369
1.34831
1.33152
1.31409
1.31401
1.37224
1.74648
2.61504
3.67851
4.82092
5.76494
5.93781
5.66239
5.19938
4.84735
4.67113
4.53455
4.38184
4.23859
4.13246
4.05095
3.97401
3.88986
3.79192
3.6806
3.56511
3.45676
3.35588
3.25844
3.16836
3.08816
3.01878
2.96095
2.91126
2.86725
2.82284
2.77077
2.705
2.62974
2.55331
2.47741
2.40869
2.36394
2.33742
2.31442
2.2892
2.25949
2.21798
2.15988
2.09184
2.02655
1.98145
1.97
1.99137
2.10313
2.37381
2.83503
3.288
3.65048
3.94995
4.06736
4.02775
3.9221
3.75751
3.62311
3.53425
3.49995
3.47422
3.45136
3.42231
3.39211
3.35314
3.27279
3.1595
3.10804
3.08787
3.07851
3.06313
3.15549
2.73535
2.26948
1.99828
1.784
1.52649
1.40725
1.37796
1.32196
1.26061
1.24124
1.23127
1.21298
1.20796
1.22161
1.26396
1.30727
1.32142
1.32144
1.32108
1.31289
1.31463
1.37051
1.76749
2.47381
2.75411
3.05919
3.48088
4.16241
4.7617
5.16154
5.13992
4.95742
4.75608
4.5786
4.39752
4.25118
4.16768
4.09347
4.00814
3.92132
3.82404
3.71325
3.59778
3.48785
3.38837
3.29946
3.21881
3.14302
3.07226
3.00664
2.94751
2.89733
2.85287
2.80169
2.73514
2.65468
2.57446
2.5022
2.4443
2.40335
2.3714
2.34149
2.31188
2.27868
2.23807
2.18706
2.12035
2.05556
2.05026
2.08004
2.21197
2.43678
2.66698
2.84367
3.05749
3.27625
3.51604
3.66191
3.74006
3.76565
3.72865
3.63854
3.56314
3.52733
3.48897
3.45634
3.43135
3.4066
3.36426
3.28813
3.18616
3.13111
3.11206
3.09997
3.07672
3.33503
3.1372
2.81043
2.42745
2.16676
1.93186
1.68552
1.54798
1.45022
1.33224
1.27552
1.26489
1.24064
1.22923
1.2315
1.25061
1.27765
1.29289
1.29788
1.30851
1.33149
1.44174
1.87527
2.56171
2.91099
2.92799
2.91905
2.92641
3.05395
3.61495
4.46087
4.97903
5.00728
4.87534
4.59905
4.39845
4.26779
4.15785
4.03348
3.90957
3.81896
3.743
3.65535
3.55669
3.45316
3.36076
3.27923
3.1975
3.12054
3.04824
2.97617
2.90187
2.8292
2.7733
2.73028
2.67887
2.61335
2.54844
2.50013
2.45806
2.40708
2.34512
2.28925
2.24686
2.21468
2.18029
2.14952
2.11189
2.11252
2.17526
2.35839
2.61858
2.78214
2.86394
2.863
2.87322
2.92074
3.05803
3.25954
3.47376
3.6341
3.68318
3.65135
3.60312
3.54802
3.49801
3.46061
3.42436
3.38369
3.33548
3.27608
3.21592
3.14631
3.08517
3.06177
3.03514
3.3638
3.29722
3.12498
2.82269
2.52606
2.31781
2.04438
1.80644
1.71074
1.59532
1.43837
1.39595
1.37964
1.34196
1.28124
1.26978
1.27086
1.26196
1.26412
1.28202
1.44827
1.93545
2.64066
2.93003
2.9219
2.88429
2.82521
2.74684
2.68874
2.75032
3.1187
3.93542
4.57712
4.63137
4.58475
4.4573
4.32106
4.16835
4.01305
3.86894
3.7631
3.69671
3.62998
3.55563
3.47043
3.37879
3.28831
3.19833
3.12049
3.05083
2.97904
2.90044
2.81917
2.7411
2.68744
2.64661
2.6055
2.56696
2.53164
2.48242
2.41999
2.3474
2.27914
2.22872
2.19627
2.17735
2.15432
2.18135
2.32867
2.57692
2.85255
2.95784
2.95232
2.93034
2.88081
2.834
2.79879
2.8095
2.87743
3.02416
3.26409
3.46215
3.54741
3.5554
3.55126
3.53193
3.48788
3.42373
3.36049
3.31659
3.28216
3.23619
3.16719
3.08879
3.04553
3.01549
3.34199
3.33481
3.26311
3.09167
2.82997
2.60007
2.39074
2.1328
1.91885
1.796
1.6751
1.53956
1.48989
1.44657
1.36995
1.29332
1.27846
1.26527
1.27858
1.46349
2.05079
2.63249
2.93597
2.92819
2.86471
2.77369
2.69688
2.61369
2.58245
2.54502
2.56136
2.75253
3.36645
4.01456
4.40713
4.41756
4.34718
4.17626
4.00442
3.85865
3.74103
3.65517
3.57212
3.48672
3.39823
3.30484
3.23351
3.18882
3.13915
3.07997
3.00494
2.91904
2.83266
2.73397
2.64561
2.59577
2.55388
2.51993
2.49583
2.47738
2.44285
2.3858
2.31501
2.24531
2.19423
2.1928
2.26039
2.47339
2.76736
3.0052
3.08184
3.06864
3.02001
2.93161
2.85997
2.80869
2.77102
2.75686
2.75333
2.77762
2.88653
3.08626
3.30859
3.4601
3.52445
3.51281
3.46833
3.4044
3.34426
3.30274
3.26426
3.22004
3.17554
3.1225
3.06176
3.0065
3.30928
3.31338
3.29962
3.21983
3.06358
2.83858
2.60512
2.415
2.22412
2.04096
1.88511
1.73297
1.6427
1.6062
1.55124
1.42808
1.36426
1.38909
1.61436
2.2357
2.78836
2.96877
2.94754
2.87489
2.78155
2.70033
2.62277
2.54746
2.5091
2.47076
2.42268
2.37486
2.44399
2.8039
3.51075
4.01941
4.14241
4.11558
4.01273
3.88847
3.73785
3.61088
3.51603
3.43756
3.36409
3.29009
3.21471
3.13635
3.0673
3.01651
2.97983
2.93771
2.85896
2.73308
2.60938
2.5615
2.53608
2.50973
2.47948
2.44165
2.40051
2.35669
2.31193
2.24874
2.25624
2.37747
2.64313
2.92045
3.12921
3.1833
3.17843
3.14028
3.04359
2.926
2.8444
2.80223
2.7703
2.74776
2.72969
2.72441
2.72877
2.79172
2.91812
3.13101
3.30817
3.36339
3.37595
3.36826
3.34628
3.3089
3.26744
3.22508
3.18998
3.14762
3.08499
3.00083
3.29379
3.30122
3.29514
3.2727
3.18961
3.03517
2.8479
2.61107
2.41051
2.27886
2.15063
1.99086
1.7773
1.70768
1.68333
1.5975
1.60212
1.86246
2.5351
3.05617
3.12471
3.05312
2.93309
2.8314
2.75491
2.68378
2.60269
2.53146
2.48747
2.43825
2.3755
2.31495
2.23882
2.24136
2.42293
2.97778
3.58388
3.9623
3.99558
3.92927
3.7565
3.58961
3.4714
3.39274
3.32817
3.26093
3.18547
3.11243
3.049
2.99534
2.94595
2.88758
2.81392
2.71507
2.61393
2.54954
2.50982
2.47551
2.43864
2.40837
2.38267
2.3678
2.34137
2.37871
2.57022
2.85694
3.06768
3.19467
3.2388
3.22421
3.18488
3.12662
3.03957
2.92615
2.84541
2.80824
2.7811
2.75883
2.73673
2.71811
2.70866
2.69518
2.69111
2.73865
2.88459
3.07582
3.21146
3.30743
3.34941
3.32249
3.28027
3.24295
3.20485
3.15782
3.09769
3.00063
3.30234
3.30264
3.29998
3.29042
3.25833
3.1636
3.01329
2.84464
2.64475
2.41272
2.31255
2.22505
2.05414
1.88365
1.79916
1.8822
2.27615
2.99745
3.4477
3.4254
3.2866
3.11905
2.98319
2.88274
2.7982
2.71756
2.63001
2.56204
2.49606
2.4326
2.36463
2.29791
2.22225
2.16688
2.11816
2.18234
2.51362
3.14551
3.6778
3.79235
3.75672
3.62225
3.49083
3.39003
3.3051
3.22927
3.16253
3.10257
3.04141
2.97999
2.92239
2.86053
2.79012
2.70524
2.60976
2.53377
2.48959
2.4586
2.42343
2.4105
2.40335
2.43919
2.56747
2.8177
3.09675
3.21417
3.27537
3.31541
3.29364
3.24611
3.18374
3.12023
3.0444
2.93636
2.84677
2.81586
2.79406
2.77244
2.7582
2.74104
2.71816
2.68742
2.64053
2.57045
2.5855
2.69312
2.8916
3.10155
3.26225
3.29974
3.29762
3.27568
3.23333
3.17435
3.10558
3.00246
3.30767
3.30369
3.29723
3.29084
3.28132
3.23774
3.13809
2.99323
2.84683
2.65549
2.47916
2.33452
2.22515
2.13657
2.2945
2.84265
3.52418
3.80608
3.74377
3.5665
3.37867
3.22539
3.10291
2.99657
2.8935
2.78661
2.67797
2.59579
2.52622
2.46188
2.39458
2.31272
2.23425
2.16019
2.09992
2.04249
2.04749
2.21672
2.69835
3.27213
3.60825
3.5933
3.52935
3.40077
3.28845
3.20047
3.13832
3.08822
3.03641
2.97604
2.91218
2.83701
2.75619
2.67365
2.60131
2.53643
2.48421
2.45191
2.43552
2.44875
2.5468
2.79977
3.11387
3.33465
3.34573
3.33559
3.32743
3.30521
3.2706
3.23223
3.1825
3.12461
3.05426
2.95627
2.8663
2.83093
2.8105
2.78837
2.76366
2.73876
2.7141
2.68261
2.62658
2.54275
2.50927
2.51953
2.60251
2.79018
3.0503
3.22077
3.27911
3.27656
3.23451
3.16375
3.09452
3.00816
3.32627
3.319
3.30419
3.28456
3.27521
3.26329
3.21826
3.12385
2.98765
2.82309
2.66285
2.47867
2.50254
2.80525
3.53993
4.17187
4.24808
4.13946
3.93404
3.72109
3.52995
3.36748
3.22801
3.10391
2.99028
2.87751
2.76692
2.66634
2.57448
2.48559
2.40441
2.32622
2.26342
2.19111
2.11386
2.043
1.99462
1.95482
2.00622
2.29617
2.85547
3.31294
3.41204
3.38335
3.29282
3.20453
3.13427
3.07538
3.01632
2.94836
2.88115
2.80993
2.73712
2.66118
2.58756
2.52858
2.49149
2.47635
2.52331
2.73788
3.05364
3.38989
3.531
3.54076
3.49202
3.40661
3.33651
3.29236
3.25274
3.21816
3.17865
3.13024
3.07142
2.99657
2.91212
2.85649
2.82699
2.80007
2.7735
2.74781
2.72146
2.68755
2.63157
2.5457
2.49236
2.48807
2.49482
2.55371
2.72659
2.96483
3.14796
3.2026
3.18304
3.12682
3.07646
3.0178
3.38149
3.37807
3.34853
3.30675
3.28835
3.28844
3.27539
3.22643
3.11429
2.98309
2.82247
2.93028
3.51596
4.3189
4.7091
4.67859
4.50068
4.28965
4.08653
3.88997
3.70045
3.51911
3.35122
3.19892
3.06163
2.93606
2.82706
2.73251
2.64363
2.55044
2.45548
2.36185
2.27432
2.19768
2.13418
2.07042
1.9973
1.94208
1.89122
1.89315
2.0323
2.4531
2.94941
3.24346
3.26957
3.23777
3.15441
3.07476
3.00065
2.9206
2.84513
2.77748
2.71621
2.64879
2.59277
2.54091
2.54973
2.65776
2.97293
3.37388
3.60282
3.63704
3.60176
3.55707
3.51279
3.4508
3.3776
3.31467
3.25515
3.20721
3.16555
3.12349
3.08261
3.03529
2.97127
2.90221
2.85193
2.817
2.78817
2.76125
2.73224
2.69261
2.63322
2.56498
2.51083
2.48115
2.47309
2.47869
2.51648
2.63856
2.80997
2.99882
3.09374
3.08152
3.072
3.03408
3.29842
3.33242
3.29566
3.27593
3.28473
3.29553
3.29945
3.27489
3.19293
3.20021
3.53796
4.35997
5.1056
5.33672
5.23624
4.95719
4.67688
4.4371
4.22635
4.02685
3.83508
3.65059
3.4754
3.31215
3.1601
3.01871
2.89276
2.7803
2.67785
2.58519
2.5009
2.42076
2.33604
2.23999
2.1409
2.06429
2.00426
1.94644
1.8851
1.84876
1.81891
1.86559
2.13365
2.6227
3.00127
3.108
3.11285
3.07334
2.99619
2.91601
2.83519
2.76165
2.69817
2.65594
2.62033
2.6612
2.89067
3.25364
3.65597
3.82158
3.81671
3.76094
3.66536
3.56872
3.50572
3.4617
3.41508
3.35098
3.27274
3.2069
3.16039
3.12332
3.08545
3.04563
3.00304
2.95042
2.89183
2.8425
2.80334
2.76963
2.73717
2.69764
2.64512
2.58988
2.54242
2.50643
2.48026
2.46231
2.46239
2.47759
2.52662
2.64112
2.81906
2.93834
3.02012
3.03971
2.62296
3.13865
3.26274
3.35527
3.35954
3.32506
3.296
3.30357
3.46142
4.19804
5.34882
5.77888
5.7018
5.57622
5.35504
5.12303
4.86415
4.60272
4.36397
4.14743
3.94635
3.75563
3.57394
3.40487
3.24763
3.09726
2.95464
2.82901
2.72269
2.62402
2.522
2.42389
2.33992
2.26801
2.19385
2.10739
2.01561
1.94247
1.8926
1.84139
1.7951
1.76053
1.77523
1.9123
2.28506
2.68335
2.9323
2.98924
2.96796
2.91037
2.81836
2.75998
2.7088
2.72811
2.85219
3.19518
3.58369
3.84416
3.89563
3.87146
3.83114
3.7866
3.72535
3.63623
3.55301
3.49631
3.44753
3.3805
3.2927
3.21297
3.15651
3.11983
3.08982
3.05856
3.02307
2.97947
2.92735
2.8733
2.82175
2.77549
2.73466
2.69709
2.6603
2.62072
2.57881
2.53486
2.49912
2.47251
2.44327
2.43094
2.42191
2.43734
2.51394
2.66872
2.82663
2.95929
1.71402
2.42339
2.98187
3.31189
3.31728
3.31429
3.43807
3.88341
4.87638
5.99892
6.52245
6.44494
6.05431
5.68096
5.43779
5.23001
4.99701
4.72921
4.46823
4.24209
4.04053
3.84254
3.65046
3.47228
3.30947
3.16208
3.02313
2.88224
2.74957
2.64227
2.55743
2.47903
2.39322
2.29559
2.2005
2.11843
2.04805
1.97372
1.89182
1.84627
1.81815
1.77605
1.72464
1.69766
1.75284
1.9738
2.36597
2.68011
2.85648
2.84918
2.81003
2.8228
2.95939
3.2092
3.58084
3.92001
4.10947
4.10343
4.01798
3.89696
3.80598
3.75946
3.71414
3.64939
3.57713
3.51024
3.45072
3.38884
3.31347
3.23965
3.17818
3.12863
3.09097
3.05483
3.01297
2.97621
2.94202
2.90032
2.84766
2.78992
2.73768
2.69339
2.65914
2.63032
2.60094
2.56774
2.52802
2.48354
2.43814
2.40033
2.37387
2.35938
2.36693
2.42358
2.54365
2.77375
1.42037
1.64498
2.21679
2.97223
3.20881
3.55453
4.59571
5.52812
6.34614
6.65132
6.63329
6.51659
6.24717
5.87804
5.56624
5.30556
5.06491
4.81472
4.5557
4.31361
4.09921
3.90515
3.70951
3.5249
3.36213
3.2211
3.08602
2.9392
2.80138
2.68301
2.57728
2.47506
2.37601
2.27846
2.18723
2.12168
2.06692
1.9878
1.9138
1.8614
1.79855
1.73261
1.67147
1.63444
1.6122
1.62578
1.74532
2.05671
2.48937
2.72373
2.86874
3.24168
3.69814
3.96516
4.15779
4.19617
4.17872
4.12226
4.02005
3.93274
3.84722
3.76963
3.70908
3.65189
3.59717
3.53588
3.46698
3.39453
3.32577
3.26873
3.21696
3.15995
3.10879
3.0639
3.02101
2.98344
2.94858
2.9108
2.86901
2.81888
2.75451
2.69771
2.65852
2.63084
2.61078
2.59234
2.56441
2.51352
2.44528
2.38726
2.35235
2.32851
2.31985
2.32371
2.35458
2.52609
1.40034
1.41844
1.5435
2.21435
3.3932
4.51764
5.88158
6.53285
7.03631
6.93395
6.6785
6.48141
6.29622
6.0193
5.68551
5.34595
5.0569
4.85305
4.68071
4.46487
4.21766
3.97238
3.73951
3.53881
3.36296
3.19461
3.08135
3.01248
2.91222
2.77576
2.62989
2.5005
2.38856
2.30028
2.22232
2.1344
2.05316
2.01754
1.97554
1.90392
1.81362
1.73178
1.67008
1.62882
1.59739
1.5702
1.57371
1.65017
1.9553
2.61053
3.20932
3.84237
4.24919
4.44402
4.44393
4.37957
4.19632
4.06245
3.98342
3.9324
3.8793
3.79306
3.71061
3.64661
3.58002
3.49853
3.42626
3.36587
3.31127
3.26876
3.21787
3.14453
3.0805
3.05023
3.03236
3.01114
2.98378
2.94866
2.88997
2.80837
2.74415
2.69816
2.66189
2.63764
2.61696
2.59336
2.55835
2.50221
2.43464
2.38331
2.35051
2.3266
2.31163
2.30303
2.31127
2.37065
1.40053
1.40816
1.57795
2.09176
3.31077
4.807
5.69994
6.56026
7.05454
6.80381
6.53382
6.43612
6.3242
6.12295
5.79234
5.43564
5.12567
4.86414
4.61433
4.3785
4.13343
3.92028
3.76941
3.61008
3.43168
3.26356
3.11934
2.98178
2.85066
2.71565
2.57438
2.48994
2.44134
2.379
2.29593
2.19008
2.08774
2.0033
1.92768
1.84764
1.7905
1.75334
1.71489
1.67956
1.62997
1.58716
1.58412
1.6442
1.92054
2.50686
3.3114
3.88002
4.15611
4.4583
4.4683
4.31421
4.10541
4.03049
3.98679
3.93759
3.90288
3.83994
3.75363
3.66963
3.58601
3.49481
3.40874
3.36378
3.33206
3.28998
3.22625
3.14652
3.09038
3.05675
3.0211
2.98753
2.95887
2.92657
2.87649
2.79875
2.73494
2.70694
2.68719
2.66476
2.64081
2.61449
2.57186
2.49804
2.43301
2.40267
2.37895
2.35722
2.335
2.31601
2.31729
2.3731
1.42744
1.59001
2.21666
2.84027
3.171
3.85209
4.48577
5.61578
6.3078
6.48287
6.49431
6.45609
6.25483
5.94432
5.64907
5.37625
5.11123
4.84081
4.57159
4.32336
4.10497
3.89572
3.68212
3.49354
3.33351
3.18939
3.05653
2.93219
2.82149
2.71033
2.60179
2.49364
2.38063
2.29112
2.22011
2.14649
2.06487
1.98131
1.90644
1.84455
1.77732
1.70858
1.67067
1.65007
1.6362
1.6497
1.77695
2.10741
2.51439
2.66764
2.94715
3.28683
3.57754
4.02068
4.14151
4.12181
4.10906
4.0986
4.0499
3.97279
3.87999
3.80016
3.73188
3.65461
3.56996
3.49026
3.4205
3.36276
3.30779
3.25668
3.21304
3.16852
3.12022
3.0693
3.02348
2.98691
2.95613
2.9197
2.86373
2.7946
2.74371
2.70887
2.67748
2.64876
2.62057
2.593
2.55383
2.48095
2.40837
2.37837
2.35921
2.34206
2.34138
2.34453
2.37154
2.5138
1.74321
2.3327
3.04653
3.29458
3.2921
3.32585
3.42125
3.86317
4.88789
5.97206
6.44936
6.41234
6.09432
5.74729
5.50884
5.28042
5.02042
4.73633
4.46087
4.2139
3.99795
3.79741
3.606
3.43875
3.30163
3.18457
3.06574
2.92974
2.77975
2.64286
2.53924
2.45194
2.35911
2.26215
2.1862
2.13168
2.07676
2.00944
1.93839
1.85873
1.78164
1.7145
1.68511
1.67353
1.72665
1.98179
2.37799
2.73647
2.87077
2.84556
2.82431
2.82276
2.89217
3.17012
3.58097
3.90412
4.08535
4.12245
4.06086
3.94896
3.83259
3.76489
3.70483
3.63066
3.55263
3.48597
3.42409
3.36106
3.30139
3.24334
3.18608
3.13595
3.09518
3.05967
3.02183
2.97559
2.92708
2.884
2.8352
2.78123
2.73937
2.70617
2.6773
2.65267
2.62719
2.59107
2.53768
2.46677
2.40454
2.37881
2.36513
2.36081
2.37311
2.4444
2.59303
2.7865
2.62039
3.04374
3.30753
3.3787
3.37401
3.35219
3.30741
3.30403
3.46647
4.23491
5.33704
5.76202
5.75214
5.63301
5.42101
5.15092
4.85343
4.56769
4.31621
4.09661
3.89721
3.71543
3.55883
3.42042
3.28604
3.14732
3.00356
2.8586
2.72004
2.59885
2.49395
2.40217
2.32732
2.26445
2.1974
2.12366
2.04426
1.96085
1.89917
1.85948
1.81951
1.7679
1.77497
1.89322
2.247
2.67396
2.94655
2.99877
2.98165
2.92871
2.82314
2.74137
2.68449
2.70439
2.87099
3.24033
3.64421
3.91098
3.92593
3.88324
3.81913
3.75571
3.66979
3.58462
3.52356
3.48391
3.4399
3.3758
3.29719
3.22351
3.17192
3.1321
3.09557
3.05988
3.01919
2.96706
2.90217
2.84309
2.80809
2.78338
2.75684
2.72992
2.70041
2.6628
2.61522
2.5606
2.50829
2.46683
2.41632
2.39423
2.39558
2.42439
2.53614
2.73119
2.93037
3.00764
3.252
3.29721
3.29827
3.30766
3.3173
3.31657
3.31073
3.28699
3.19549
3.19873
3.52538
4.35251
5.1407
5.34895
5.23745
4.94152
4.64568
4.39834
4.18625
3.99097
3.80685
3.6377
3.48629
3.34605
3.2119
3.07857
2.94334
2.80771
2.67797
2.55895
2.46166
2.38248
2.30302
2.22501
2.15083
2.07775
2.00888
1.95242
1.89366
1.85317
1.83607
1.88351
2.13708
2.58656
2.98805
3.12793
3.12145
3.06744
2.98417
2.89808
2.80899
2.72451
2.66809
2.65547
2.64418
2.71378
2.94672
3.31454
3.63971
3.79736
3.79291
3.72315
3.62091
3.56251
3.52722
3.49021
3.43777
3.36742
3.27179
3.18931
3.1501
3.11616
3.07984
3.04317
3.00431
2.95764
2.89577
2.82572
2.77765
2.74847
2.726
2.70537
2.68153
2.64496
2.59328
2.53713
2.48852
2.45222
2.42834
2.43067
2.48044
2.62891
2.84083
3.02883
3.09847
3.08481
3.3574
3.35835
3.34108
3.31702
3.30229
3.29554
3.27278
3.2195
3.10861
2.9833
2.81995
2.92471
3.51706
4.33728
4.69527
4.64822
4.47051
4.26118
4.05437
3.8621
3.68888
3.53029
3.38464
3.24765
3.11682
2.98871
2.85965
2.72985
2.61312
2.50767
2.41698
2.33509
2.25574
2.18051
2.12626
2.07949
2.02152
1.95962
1.89896
1.89491
2.03158
2.45459
2.9375
3.21517
3.27104
3.24092
3.16154
3.08525
2.9951
2.89915
2.80886
2.73655
2.69083
2.65214
2.6212
2.58992
2.5928
2.68181
2.94778
3.29311
3.52804
3.55531
3.57374
3.58053
3.55283
3.50173
3.42673
3.34484
3.24515
3.1561
3.12386
3.0928
3.05777
3.02356
2.98939
2.94756
2.88836
2.81444
2.76413
2.74302
2.72292
2.69631
2.6575
2.60886
2.55896
2.5181
2.49182
2.46482
2.47671
2.55425
2.72846
2.93409
3.06599
3.13094
3.1438
3.11659
3.32211
3.30179
3.29244
3.28477
3.28108
3.26926
3.21989
3.1229
2.98692
2.82462
2.66248
2.47541
2.49831
2.7979
3.52034
4.1474
4.25084
4.13744
3.92848
3.72198
3.54407
3.39461
3.26401
3.1397
3.01326
2.88537
2.75811
2.63298
2.52747
2.43611
2.36521
2.30612
2.25439
2.19326
2.13624
2.06621
2.02079
1.97027
2.00722
2.29391
2.80995
3.28312
3.38054
3.36834
3.31613
3.24017
3.16786
3.09757
3.01372
2.91285
2.82364
2.76205
2.71565
2.66789
2.62726
2.57685
2.54213
2.49646
2.51789
2.66071
2.98185
3.29055
3.47947
3.56725
3.55714
3.49174
3.40724
3.3322
3.23497
3.1311
3.09008
3.06063
3.03099
3.0007
2.96973
2.93402
2.8858
2.82546
2.76974
2.72806
2.69253
2.65549
2.61528
2.57388
2.54057
2.51991
2.5178
2.5568
2.67847
2.86318
3.06419
3.13837
3.13288
3.12831
3.11652
3.07305