/*--------------------------------*- C++ -*----------------------------------*\
  =========                 |
  \\      /  F ield         | OpenFOAM: The Open Source CFD Toolbox
   \\    /   O peration     | Website:  https://openfoam.org
    \\  /    A nd           | Version:  7
     \\/     M anipulation  |
\*---------------------------------------------------------------------------*/
FoamFile
{
    version     2.0;
    format      ascii;
    class       volScalarField;
    location    "3";
    object      T;
}
// * * * * * * * * * * * * * * * * * * * * * * * * * * * * * * * * * * * * * //

dimensions      [0 0 0 1 0 0 0];

internalField   nonuniform List<scalar> 
4608
(
1
1
1
1
1
1
1
1
1
1
1
1
1
1
1
1
1
1
1
1
1
1
1
1
1
1
1
1
1
1
1
1
1
1
1
1
1
1
1
1
1
1
1
1
1
1
1
1
1
1
1
1
1
1
1
1
1
1
1
1
1
1
1
1
1
1
1
1
1
1
1
1
1
1
1
1
1
1
1
1
1
1
1
1
1
1
1
1
1
1
1
1
1
1
1
1
1
1
1
1
1
1
1
1
1
1
1
1
1
1
1
1
1
1
1
1
1
1
1
1
1
1
1
1
1
1
1
1
1
1
1
1
1
1
1
1
1
1
1
1
1
1
1
1
1
1
1
1
1
1
1
1
1
1
1
1
1
1
1
1
1
1
1
1
1
1
1
1
1
1
1
1
1
1
1
1
1
1
1
1
1
1
1
1
1
1
1
1
1
1
1
1
1
1
1
1
1
1
1
1
1
1
1
1
1
1
1
1
1
1
1
1
1
1
1
1
1
1
1
1
1
1
1
1
1
1
1
1
1
1
1
1
1
1
1
1
1
1
1
1
1
1
1
1
1
1
1
1
1
1
1
1
1
1
1
1
1
1
1
1
1
1
1
1
1
1
1
1
1
1
1
1
1
1
1
1
1
1
1
1
1
1
1
1
1
1
1
1
1
1
1
1
1
1
1
1
1
1
1
1
1
1
1
1
1
1
1
1
1
1
1
1
1
1
1
1
1
1
1
1
1
1
1
1
1
1
1
1
1
1
1
1
1
1
1
1
1
1
1
1
1
1
1
1
1
1
1
1
1
1
1
1
1
1
1
1
1
1
1
1
1
1
1
1
1
1
1
1
1
1
1
1
1
1
1
1
1
1
1
1
1
1
1
1
1
1
1
1
1
1
1
1
1
1
1
1
1
1
1
1
1
1
1
1
1
1
1
1
1
1
1
1
1
1
1
1
1
1
1
1
1
1
1
1
1
1
1
1
1
1
1
1
1
1
1
1
1
1
1
1
1
1
1
1
1
1
1
1
1
1
1
1
1
1
1
1
1
1
1
1
1
1
1
1
1
1
1
1
1
1
1
1
1
1
1
1
1
1
1
1
1
1
1
1
1
1
1
1
1
1
1
1
1
1
1
1
1
1
1
1
1
1
1
1
1
1
1
1
1
1
1
1
1
1
1
1
1
1
1
1
1
1
1
1
1
1
1
1
1
1
1
1
1
1
1
1
1
1
1
1
1
1
1
1
1
1
1
1
1
1
1
1
1
1
1
1
1
1
1
1
1
1
1
1
1
1
1
1
1
1
1
1
1
1
1
1
1
1
1
1
1
1
1
1
1
1
1
1
1
1
1
1
1
1
1
1
1
1
1
1
1
1
1
1
1
1
1
1
1
1
1
1
1
1
1
1
1
1
1
1
1
1
1
1
1
1
1
1
1
1
1
1
1
1
1
1
1
1
1
1
1
1
1
1
1
1
1
1
1
1
1
1
1
1
1
1
1
1
1
1
1
1
1
1
1
1
1
1
1
1
1
1
1
1
1
1
1
1
1
1
1
1
1
1
1
1
1
1
1
1
1
1
1
1
1
1
1
1
1
1
1
1
1
1
1
1
1
1
1
1
1
1
1
1
1
1
1
1
1
1
1
1
1
1
1
1
1
1
1
1
1
1
1
1
1
1
1
1
1
1
1
1
1
1
1
1
1
1
1
1
1
1
1
1
1
1
1
1
1
1
1
1
1
1
1
1
1
1
1.07859
1.18019
1.28929
1.3918
1.48565
1.57578
1.63462
1.68059
1.69902
1.68348
1.63782
1.58507
1.54127
1.52339
1.51294
1.51419
1.51978
1.52569
1.53018
1.53137
1.53221
1.53358
1.53597
1.53974
1.0009
1.00705
1.02683
1.07431
1.14356
1.23203
1.32176
1.40808
1.47978
1.52176
1.54848
1.5609
1.56128
1.55393
1.54104
1.53492
1.53459
1.5332
1.53315
1.53402
1.53542
1.53657
1.53792
1.54065
1
1
0.99999
1.00009
1.0012
1.00816
1.03784
1.11531
1.27107
1.45241
1.56887
1.62035
1.6203
1.61092
1.5934
1.5633
1.54617
1.5442
1.54273
1.54357
1.54438
1.54505
1.54545
1.54753
1
1
0.999999
0.999999
0.999995
1.00001
0.999988
1.00056
1.01365
1.10637
1.31254
1.48581
1.61266
1.61257
1.60761
1.59955
1.58332
1.57114
1.5666
1.56103
1.55727
1.55732
1.55773
1.55984
1
1
1
1
1
1
0.999999
0.999998
0.999963
1.00042
1.01635
1.12825
1.34943
1.52483
1.61182
1.63056
1.62296
1.6069
1.58739
1.57591
1.57004
1.56736
1.5686
1.57137
1
1
1
1
1
1
1
1
0.999996
0.999997
0.99996
1.00117
1.02483
1.18513
1.39921
1.571
1.60437
1.60164
1.59612
1.58745
1.57937
1.57781
1.57724
1.57871
1
1
1
1
1
1
1
1
1
1
0.999996
0.999997
0.999976
1.00473
1.05372
1.24979
1.45526
1.5849
1.60945
1.60541
1.59415
1.58957
1.58697
1.58473
1
1
1
1
1
1
1
1
1
1
1
1
0.999998
0.999986
1.00021
1.01405
1.11779
1.34934
1.50837
1.58855
1.59791
1.59568
1.59169
1.58838
1
1
1
1
1
1
1
1
1
1
1
1
1
0.999999
0.999997
1
1.00212
1.04924
1.23033
1.4572
1.54147
1.56781
1.58185
1.58402
1
1
1
1
1
1
1
1
1
1
1
1
1
1
1
1
0.999994
1.00051
1.01583
1.13497
1.35577
1.51712
1.5711
1.58067
1
1
1
1
1
1
1
1
1
1
1
1
1
1
1
1
0.999999
0.999997
1.00005
1.00496
1.07837
1.2805
1.4568
1.54192
1
1
1
1
1
1
1
1
1
1
1
1
1
1
1
1
1
0.999999
0.999999
1
1.00197
1.03618
1.21784
1.40934
1
1
1
1
1
1
1
1
1
1
1
1
1
1
1
1
1
1
1
1
0.999999
1.00055
1.02385
1.14481
1
1
1
1
1
1
1
1
1
1
1
1
1
1
1
1
1
1
1
1
1
0.999999
1.00034
1.00976
1
1
1
1
1
1
1
1
1
1
1
1
1
1
1
1
1
1
1
1
1
1
0.999999
1.00002
1
1
1
1
1
1
1
1
1
1
1
1
1
1
1
1
1
1
1
1
1
1
1
0.999999
1
1
1
1
1
1
1
1
1
1
1
1
1
1
1
1
1
1
1
1
1
1
1
0.999994
1
1
1
1
1
1
1
1
1
1
1
1
1
1
1
1
1
1
1
1
1
1
1
0.999985
1
1
1
1
1
1
1
1
1
1
1
1
1
1
1
1
1
1
1
1
1
0.999999
1.00038
1.00862
1
1
1
1
1
1
1
1
1
1
1
1
1
1
1
1
1
1
1
1
0.999998
1.00058
1.02268
1.15498
1
1
1
1
1
1
1
1
1
1
1
1
1
1
1
1
1
0.999999
0.999999
1
1.00191
1.03532
1.21701
1.42418
1
1
1
1
1
1
1
1
1
1
1
1
1
1
1
1
0.999999
0.999997
1.00005
1.00496
1.07709
1.27357
1.47106
1.54198
1
1
1
1
1
1
1
1
1
1
1
1
1
1
1
1
0.999994
1.00051
1.01586
1.13578
1.35339
1.51442
1.57739
1.5802
1
1
1
1
1
1
1
1
1
1
1
1
1
0.999999
0.999997
1
1.00214
1.04893
1.23134
1.45677
1.5392
1.56788
1.58384
1.58428
1
1
1
1
1
1
1
1
1
1
1
1
0.999998
0.999986
1.00021
1.01403
1.11781
1.34895
1.50958
1.58801
1.59722
1.59588
1.59227
1.58812
1
1
1
1
1
1
1
1
1
1
0.999996
0.999997
0.999976
1.00473
1.05375
1.24991
1.45483
1.58523
1.6095
1.60539
1.5939
1.58963
1.58699
1.58447
1
1
1
1
1
1
1
1
0.999996
0.999997
0.99996
1.00117
1.02482
1.18506
1.39931
1.57101
1.60423
1.60157
1.59615
1.58732
1.57924
1.57765
1.57721
1.57858
1
1
1
1
1
1
0.999999
0.999998
0.999963
1.00042
1.01634
1.1283
1.34937
1.52479
1.61186
1.63056
1.62293
1.60683
1.58746
1.57596
1.56999
1.56738
1.56861
1.57138
1
1
0.999999
0.999999
0.999995
1.00001
0.999988
1.00056
1.01365
1.10636
1.31254
1.48583
1.61263
1.61255
1.60762
1.59961
1.58327
1.57109
1.56664
1.56111
1.55729
1.55735
1.55778
1.55987
1
1
0.99999
1.00009
1.0012
1.00816
1.03785
1.1153
1.27109
1.45239
1.5689
1.62034
1.62029
1.6109
1.5934
1.56338
1.5461
1.54418
1.54276
1.54359
1.5444
1.54507
1.54547
1.54754
1.0009
1.00705
1.02684
1.0743
1.14356
1.23203
1.32175
1.40809
1.47978
1.52175
1.5485
1.56092
1.56127
1.5539
1.54108
1.53488
1.53455
1.53322
1.53315
1.53403
1.5354
1.53657
1.53793
1.54064
1.07859
1.1802
1.28928
1.3918
1.48567
1.57577
1.63461
1.68059
1.69902
1.68349
1.63782
1.58509
1.54124
1.52338
1.51295
1.51418
1.51976
1.5257
1.53022
1.53138
1.5322
1.53356
1.53595
1.53972
1.39881
1.22997
1.10204
1.04207
0.994383
0.964956
0.976775
1.02027
1.04906
1.06082
1.08303
1.09828
1.09681
1.09396
1.09711
1.10744
1.11685
1.11881
1.11851
1.11664
1.11061
1.10064
1.09999
1.12273
1.27408
1.53426
1.76587
1.97669
2.13268
2.17737
2.13691
2.06401
2.00585
1.97653
1.95256
1.92516
1.89979
1.88187
1.8682
1.85472
1.83897
1.81985
1.79789
1.77499
1.75334
1.73293
1.71276
1.69368
1.6765
1.66156
1.64898
1.63788
1.62762
1.61691
1.60442
1.58908
1.57186
1.55436
1.5366
1.51985
1.50823
1.50093
1.49458
1.48786
1.48026
1.46982
1.45509
1.4373
1.41947
1.40759
1.40379
1.41007
1.44306
1.51773
1.63298
1.7339
1.80984
1.86919
1.89434
1.88746
1.86748
1.83589
1.80914
1.79055
1.78342
1.77863
1.77484
1.77001
1.76459
1.75649
1.73889
1.71405
1.70238
1.69782
1.69607
1.69272
1.49598
1.41516
1.31026
1.24656
1.19762
1.11715
1.08215
1.08431
1.07535
1.06289
1.05755
1.0543
1.05247
1.0526
1.05796
1.07163
1.08422
1.0896
1.09029
1.09097
1.0885
1.08949
1.11232
1.27039
1.4957
1.55834
1.6288
1.72366
1.85663
1.96456
2.04405
2.04439
2.02054
1.99016
1.96046
1.92863
1.9031
1.88938
1.87654
1.86141
1.84522
1.82639
1.805
1.78264
1.76081
1.7407
1.72229
1.70525
1.68918
1.6741
1.6598
1.64644
1.6348
1.62428
1.61222
1.59691
1.57869
1.56025
1.54318
1.52919
1.51884
1.51017
1.50193
1.49408
1.48558
1.47543
1.46271
1.44545
1.42784
1.42696
1.43578
1.474
1.53465
1.59196
1.63402
1.68423
1.73427
1.78599
1.8161
1.83113
1.83685
1.82972
1.81259
1.79788
1.79077
1.78326
1.77727
1.77305
1.76844
1.75964
1.74298
1.72045
1.70809
1.70345
1.7007
1.69564
1.53422
1.49618
1.43091
1.34913
1.28854
1.22573
1.16008
1.12583
1.09916
1.06394
1.04481
1.04213
1.0358
1.03551
1.0371
1.04373
1.05129
1.05675
1.05946
1.06414
1.07346
1.1175
1.2824
1.49533
1.58219
1.58658
1.58475
1.58761
1.62192
1.7583
1.93312
2.02939
2.03622
2.01389
1.96754
1.93209
1.90871
1.8896
1.86784
1.84522
1.82775
1.81283
1.79562
1.77629
1.75553
1.73671
1.71966
1.70194
1.68527
1.66969
1.65392
1.63719
1.62014
1.60657
1.59645
1.58472
1.56996
1.55512
1.54373
1.53324
1.52019
1.50403
1.48911
1.47763
1.4692
1.46063
1.45291
1.4435
1.44419
1.46371
1.5167
1.58445
1.62323
1.64193
1.64225
1.64522
1.65793
1.69148
1.73807
1.78461
1.81749
1.82554
1.819
1.80924
1.79812
1.78818
1.78124
1.77434
1.76623
1.75623
1.74296
1.72836
1.7123
1.69904
1.69463
1.68863
1.55579
1.53906
1.50192
1.43833
1.37324
1.32382
1.25731
1.19796
1.17024
1.13591
1.08823
1.07613
1.07197
1.06171
1.04473
1.04145
1.04131
1.03843
1.03963
1.04687
1.11313
1.29534
1.51053
1.58644
1.58345
1.5754
1.56483
1.5498
1.53904
1.55676
1.65722
1.84529
1.98204
1.98046
1.97061
1.94746
1.92371
1.89675
1.86924
1.84274
1.82209
1.80831
1.79407
1.7783
1.76078
1.74225
1.72389
1.70541
1.68886
1.67354
1.65725
1.63908
1.6197
1.60071
1.58786
1.57834
1.56898
1.56051
1.55271
1.54098
1.52525
1.50651
1.48817
1.47427
1.466
1.46104
1.45535
1.46375
1.5062
1.57349
1.64182
1.66553
1.66557
1.66091
1.6497
1.6395
1.63349
1.63695
1.65494
1.6908
1.745
1.78673
1.80479
1.80343
1.80197
1.79802
1.78955
1.77726
1.76542
1.7562
1.74752
1.73546
1.71912
1.70287
1.69528
1.68875
1.56872
1.56329
1.54368
1.50427
1.44645
1.39376
1.34589
1.28705
1.23212
1.1958
1.16215
1.12592
1.11318
1.09976
1.07482
1.04909
1.04435
1.03994
1.04577
1.12228
1.33366
1.50852
1.59062
1.58914
1.57564
1.55626
1.54065
1.5233
1.51717
1.50825
1.51227
1.56681
1.73255
1.87616
1.95037
1.94948
1.93629
1.90467
1.87302
1.84575
1.8224
1.80396
1.78575
1.76728
1.74885
1.72976
1.7156
1.70722
1.69702
1.6838
1.66641
1.64607
1.62534
1.60184
1.58039
1.56808
1.55795
1.55033
1.54537
1.54155
1.5331
1.51832
1.49923
1.48023
1.46686
1.46674
1.48699
1.54638
1.62279
1.67966
1.69735
1.69476
1.68429
1.66441
1.64823
1.63699
1.6287
1.62717
1.62773
1.63413
1.66063
1.70806
1.75896
1.79053
1.80195
1.79918
1.78995
1.77716
1.76534
1.75607
1.74649
1.73548
1.72479
1.71364
1.70197
1.69034
1.57733
1.57324
1.56565
1.54442
1.50797
1.45734
1.40415
1.35984
1.3156
1.27026
1.22858
1.18688
1.16313
1.15289
1.13543
1.09692
1.07629
1.08651
1.17887
1.3881
1.54472
1.60021
1.59699
1.58212
1.56131
1.5429
1.52566
1.50854
1.49937
1.48911
1.47542
1.46152
1.48299
1.59238
1.77002
1.88034
1.90155
1.89661
1.87816
1.85422
1.82367
1.79721
1.77749
1.76143
1.74653
1.73133
1.71538
1.69804
1.68261
1.67116
1.66284
1.65303
1.6345
1.60474
1.57472
1.56312
1.55728
1.55112
1.54382
1.53435
1.52376
1.51209
1.50001
1.48294
1.48551
1.52086
1.59303
1.66315
1.71289
1.72406
1.72288
1.71419
1.69235
1.66556
1.64694
1.63782
1.63121
1.6268
1.62322
1.62161
1.62256
1.63815
1.67011
1.72127
1.75975
1.77115
1.77538
1.77325
1.76737
1.75868
1.74912
1.73897
1.73061
1.7218
1.70976
1.69177
1.58261
1.58077
1.57638
1.56826
1.54752
1.51213
1.47011
1.41703
1.36968
1.33777
1.30672
1.26727
1.21004
1.18805
1.17893
1.15404
1.16135
1.27227
1.49238
1.62034
1.63884
1.62389
1.59772
1.57417
1.55585
1.53906
1.52036
1.50377
1.49109
1.47675
1.45907
1.44169
1.41898
1.41998
1.47962
1.63964
1.78371
1.86783
1.87427
1.86092
1.82599
1.79156
1.7678
1.75261
1.74024
1.72668
1.71043
1.69416
1.67991
1.66763
1.65614
1.64247
1.62533
1.60216
1.57808
1.56277
1.55329
1.54498
1.53583
1.52827
1.52167
1.51692
1.50973
1.52089
1.57418
1.64809
1.70029
1.72998
1.73849
1.73503
1.72616
1.71274
1.69285
1.6669
1.64824
1.64034
1.6348
1.62999
1.62463
1.61971
1.61683
1.61299
1.61307
1.62605
1.66273
1.7073
1.73868
1.76193
1.76822
1.76184
1.75196
1.74285
1.73406
1.72452
1.71311
1.69258
1.5864
1.58464
1.5825
1.57877
1.57033
1.54931
1.51699
1.48039
1.43604
1.38193
1.3564
1.3343
1.29184
1.2454
1.22013
1.25257
1.38999
1.58953
1.70205
1.69926
1.67291
1.63775
1.60678
1.58237
1.56152
1.54194
1.52088
1.50383
1.48734
1.47109
1.45276
1.43317
1.41044
1.39228
1.37787
1.40015
1.50536
1.67805
1.80342
1.82627
1.81848
1.7915
1.76525
1.74695
1.73195
1.71755
1.70367
1.69059
1.67698
1.66306
1.65003
1.63629
1.62046
1.60068
1.57792
1.55964
1.54903
1.5415
1.5331
1.53004
1.5278
1.53761
1.57363
1.63847
1.70606
1.73562
1.74883
1.75598
1.75092
1.74002
1.72557
1.71089
1.69369
1.66932
1.64872
1.64159
1.63655
1.63172
1.62851
1.62421
1.61808
1.60952
1.5971
1.57999
1.58428
1.61231
1.66091
1.71115
1.74748
1.75338
1.75252
1.74757
1.73858
1.72668
1.71333
1.69173
1.58269
1.5825
1.58128
1.58028
1.57878
1.57062
1.55088
1.52089
1.48944
1.44711
1.40542
1.36993
1.34006
1.32038
1.37678
1.54895
1.71239
1.77002
1.7583
1.72447
1.68683
1.65409
1.62627
1.60125
1.57665
1.55076
1.52388
1.50278
1.48549
1.46908
1.45138
1.42995
1.40857
1.38732
1.3681
1.34973
1.35209
1.41079
1.55849
1.70455
1.77132
1.77206
1.76394
1.74191
1.72146
1.70495
1.69286
1.68242
1.67089
1.6576
1.6441
1.62827
1.6107
1.59181
1.57453
1.55867
1.5464
1.539
1.53554
1.53946
1.56625
1.63357
1.71055
1.75737
1.76345
1.761
1.75745
1.75156
1.74355
1.73408
1.72197
1.70826
1.69253
1.67113
1.65073
1.64218
1.63723
1.63189
1.62589
1.61943
1.61271
1.60402
1.58961
1.56787
1.55918
1.56193
1.58339
1.62953
1.69155
1.72843
1.74122
1.74093
1.73295
1.71978
1.70699
1.68918
1.58037
1.58009
1.57871
1.57751
1.57725
1.57603
1.56814
1.54979
1.52212
1.48719
1.45201
1.40944
1.41846
1.51565
1.70126
1.83837
1.84774
1.82697
1.78793
1.7463
1.70735
1.67286
1.64246
1.61493
1.58902
1.56237
1.53522
1.50993
1.48658
1.46445
1.44455
1.42533
1.40886
1.38896
1.36638
1.34624
1.33063
1.32058
1.34017
1.43806
1.59046
1.69344
1.72768
1.72473
1.71044
1.69467
1.68163
1.67012
1.65788
1.6439
1.63033
1.61573
1.60031
1.58378
1.56666
1.55286
1.54427
1.54307
1.55623
1.61336
1.69307
1.76856
1.79743
1.79639
1.78609
1.76802
1.75371
1.74351
1.73352
1.72463
1.71471
1.70313
1.68957
1.67334
1.65506
1.642
1.63476
1.62805
1.62104
1.614
1.60687
1.59803
1.58421
1.56334
1.54972
1.54633
1.54754
1.56157
1.60421
1.66103
1.70232
1.71366
1.71028
1.70163
1.69514
1.68427
1.58175
1.58474
1.58208
1.57732
1.57622
1.57678
1.5749
1.56653
1.54586
1.5201
1.48911
1.52347
1.67819
1.84878
1.92008
1.91423
1.88208
1.84286
1.80411
1.76548
1.72713
1.68985
1.65518
1.6235
1.59408
1.56579
1.53955
1.51561
1.49299
1.47038
1.44773
1.42507
1.40411
1.38438
1.36658
1.34827
1.32707
1.31163
1.29848
1.30097
1.35074
1.47794
1.60835
1.67672
1.6928
1.68785
1.67253
1.65722
1.6427
1.62713
1.61265
1.59958
1.58725
1.57243
1.55962
1.55053
1.55424
1.58474
1.66629
1.75705
1.80683
1.80756
1.80023
1.79037
1.78013
1.76688
1.75182
1.73775
1.72377
1.7124
1.70269
1.69331
1.68422
1.67362
1.65922
1.64365
1.63176
1.62304
1.61554
1.60831
1.60067
1.59075
1.57652
1.56085
1.54744
1.5391
1.53309
1.53362
1.54281
1.57379
1.61625
1.65945
1.6803
1.68066
1.68405
1.67792
1.55244
1.57109
1.56679
1.56368
1.56638
1.57182
1.57334
1.56939
1.55707
1.56232
1.65603
1.83335
1.97203
2.00498
1.98726
1.94139
1.89436
1.85304
1.81483
1.77666
1.73861
1.70157
1.66664
1.63438
1.6039
1.57414
1.5456
1.51827
1.4927
1.47044
1.4511
1.43271
1.41294
1.38909
1.36361
1.34229
1.32496
1.30859
1.29244
1.28337
1.27686
1.29422
1.38295
1.52158
1.61749
1.6449
1.6507
1.64327
1.62835
1.61379
1.59957
1.58525
1.5727
1.56195
1.55985
1.5727
1.6333
1.71993
1.80594
1.83396
1.83147
1.8195
1.80014
1.78158
1.76958
1.75937
1.74749
1.73244
1.71506
1.70075
1.69124
1.68391
1.67607
1.6669
1.65662
1.64469
1.63162
1.61986
1.61
1.60139
1.59326
1.58379
1.5716
1.55911
1.54791
1.53867
1.52986
1.52352
1.5225
1.52645
1.53983
1.56935
1.61186
1.63952
1.65898
1.66925
1.39012
1.52148
1.54859
1.56533
1.57281
1.56911
1.56905
1.57239
1.61124
1.77185
1.98821
2.05098
2.03902
2.01859
1.98264
1.94503
1.90458
1.86336
1.82352
1.7846
1.74644
1.70944
1.67417
1.64157
1.61118
1.58123
1.55117
1.52275
1.49736
1.47367
1.45019
1.42812
1.40854
1.39132
1.37294
1.35017
1.32521
1.30512
1.29199
1.27853
1.26679
1.25864
1.26408
1.31284
1.4303
1.53938
1.59734
1.61341
1.61064
1.60167
1.58535
1.57323
1.56482
1.57203
1.60672
1.68856
1.77497
1.82878
1.83366
1.82829
1.81899
1.81012
1.79924
1.78425
1.76935
1.75602
1.74328
1.72762
1.70884
1.69274
1.68174
1.6747
1.66871
1.66186
1.65374
1.64374
1.63179
1.61933
1.60705
1.59552
1.58549
1.5771
1.56925
1.56047
1.55072
1.53967
1.53024
1.52236
1.51332
1.50949
1.50877
1.51365
1.53415
1.57256
1.60875
1.64152
1.11875
1.34269
1.47862
1.54793
1.5585
1.56101
1.59435
1.69582
1.87708
2.04765
2.13035
2.12217
2.07302
2.01943
1.97981
1.9454
1.9088
1.86861
1.82811
1.79016
1.75386
1.71712
1.68104
1.64695
1.61526
1.58628
1.55845
1.52879
1.49924
1.47491
1.45613
1.43899
1.41932
1.39605
1.37239
1.35124
1.33278
1.31293
1.29051
1.27874
1.2724
1.26223
1.2478
1.24054
1.26062
1.33906
1.45611
1.5357
1.5793
1.57887
1.57341
1.57948
1.61868
1.68077
1.75788
1.82205
1.86111
1.86193
1.84827
1.82477
1.80553
1.79548
1.78826
1.77811
1.76514
1.75074
1.73664
1.72222
1.70603
1.69132
1.67954
1.67038
1.66322
1.65546
1.64605
1.63761
1.62963
1.62011
1.60767
1.59383
1.58159
1.57182
1.56478
1.55864
1.55177
1.54324
1.53313
1.52142
1.50884
1.49886
1.49285
1.49172
1.49428
1.50942
1.53931
1.59673
1.00728
1.09046
1.28088
1.47442
1.5265
1.59773
1.81152
1.98147
2.08492
2.11832
2.12316
2.11374
2.0842
2.03468
1.98722
1.94646
1.90906
1.87107
1.83194
1.79379
1.75773
1.72349
1.68823
1.65379
1.62235
1.59436
1.56687
1.53686
1.50834
1.48327
1.46012
1.43715
1.41427
1.39096
1.36844
1.35189
1.33768
1.31698
1.29725
1.28313
1.26632
1.24864
1.23127
1.22059
1.21435
1.22016
1.2656
1.36847
1.4886
1.54526
1.58165
1.66696
1.77361
1.83372
1.8592
1.86549
1.86366
1.85711
1.84135
1.82472
1.80824
1.79277
1.78164
1.77213
1.76315
1.75161
1.73634
1.71949
1.70453
1.69313
1.68348
1.6729
1.66273
1.65313
1.6436
1.63509
1.62726
1.61871
1.60917
1.59774
1.58297
1.57024
1.56208
1.55636
1.55168
1.54682
1.5394
1.52624
1.5087
1.49435
1.48643
1.4817
1.48086
1.48212
1.49022
1.53588
1.0001
1.00608
1.05876
1.27878
1.56837
1.76954
2.00455
2.11504
2.17339
2.15783
2.12576
2.10479
2.08273
2.04563
1.99828
1.94843
1.90443
1.87303
1.84753
1.815
1.77514
1.73308
1.69168
1.65508
1.62188
1.58819
1.5645
1.55124
1.53213
1.50436
1.47238
1.44284
1.41718
1.39649
1.37752
1.3553
1.3341
1.32523
1.31473
1.29567
1.2709
1.24867
1.23153
1.21965
1.2103
1.20209
1.20368
1.2314
1.33299
1.518
1.65883
1.78686
1.87689
1.91605
1.91412
1.90068
1.86841
1.84459
1.82961
1.82052
1.81063
1.79508
1.78057
1.76894
1.75663
1.74076
1.72539
1.7119
1.70039
1.69202
1.68218
1.66742
1.65416
1.6482
1.64471
1.64007
1.63355
1.62513
1.61195
1.59371
1.57924
1.56919
1.56155
1.55627
1.55153
1.5459
1.53703
1.52256
1.50544
1.49295
1.48531
1.48009
1.47711
1.476
1.47825
1.49489
1.00016
1.00286
1.06005
1.24578
1.54718
1.8511
1.98438
2.09109
2.17359
2.1469
2.11248
2.09967
2.08399
2.05678
2.01241
1.9622
1.91657
1.87646
1.83785
1.80071
1.7604
1.72337
1.69644
1.66797
1.63527
1.60252
1.57272
1.54483
1.51872
1.49075
1.45947
1.44031
1.43014
1.41624
1.39633
1.36984
1.34322
1.32097
1.30092
1.27923
1.26444
1.25582
1.24609
1.23602
1.22112
1.20715
1.20711
1.22962
1.32803
1.49634
1.68653
1.80563
1.85487
1.90875
1.91721
1.89375
1.85637
1.83904
1.82765
1.81891
1.81408
1.80439
1.79003
1.77437
1.7569
1.73765
1.7202
1.71139
1.70517
1.69694
1.68441
1.66782
1.65617
1.64968
1.64297
1.63609
1.62914
1.62071
1.60833
1.59045
1.57673
1.5714
1.56748
1.56245
1.55679
1.55028
1.53971
1.52146
1.50524
1.49782
1.49229
1.48753
1.4827
1.47888
1.47987
1.49572
1.00971
1.07128
1.27093
1.4502
1.51854
1.67454
1.78756
1.95375
2.07129
2.11261
2.11395
2.10762
2.07919
2.03702
1.99753
1.9594
1.92026
1.87791
1.8343
1.79343
1.7571
1.72103
1.68319
1.64849
1.61745
1.58839
1.56079
1.5351
1.51262
1.48961
1.46604
1.44152
1.41555
1.39432
1.37669
1.35802
1.33708
1.31515
1.29497
1.27819
1.26018
1.24153
1.23162
1.22629
1.22232
1.22761
1.27412
1.38003
1.49506
1.53251
1.60189
1.68575
1.74196
1.82338
1.85762
1.86265
1.85869
1.85356
1.84169
1.82618
1.81119
1.80011
1.78922
1.77376
1.755
1.73798
1.72429
1.71354
1.703
1.6928
1.68358
1.6739
1.66386
1.65387
1.64538
1.63823
1.63104
1.62156
1.60741
1.59112
1.57997
1.57278
1.56616
1.55988
1.55332
1.54622
1.53633
1.5184
1.50023
1.49284
1.48821
1.48433
1.48475
1.48631
1.49426
1.53413
1.12907
1.30864
1.48791
1.55464
1.55482
1.56162
1.58565
1.68263
1.87682
2.06009
2.12498
2.11754
2.07237
2.02362
1.99067
1.9574
1.9167
1.87006
1.823
1.78072
1.74427
1.71021
1.67639
1.64429
1.61537
1.58999
1.56496
1.53684
1.5055
1.47625
1.45333
1.43337
1.41143
1.38759
1.36829
1.35458
1.34111
1.32392
1.30445
1.28263
1.26115
1.24154
1.23383
1.2336
1.25301
1.33896
1.45412
1.54707
1.58437
1.58102
1.57686
1.58044
1.60091
1.66699
1.75843
1.83011
1.86272
1.86284
1.85096
1.82858
1.80842
1.79942
1.78936
1.77402
1.75687
1.74267
1.73045
1.71866
1.70705
1.69435
1.6808
1.66949
1.66143
1.65537
1.64881
1.63978
1.62878
1.61757
1.6053
1.59269
1.58304
1.57539
1.56901
1.56355
1.55744
1.54874
1.53592
1.51839
1.50223
1.4955
1.49143
1.49092
1.4944
1.51349
1.55134
1.60186
1.38271
1.48717
1.55324
1.57655
1.57669
1.57441
1.57022
1.57183
1.61312
1.78567
1.98541
2.04482
2.04282
2.02545
1.99414
1.95309
1.90513
1.85594
1.81103
1.77212
1.73762
1.70582
1.67628
1.64744
1.61781
1.58725
1.55681
1.52689
1.49801
1.47171
1.44732
1.42469
1.40558
1.38939
1.37283
1.3548
1.3346
1.31222
1.29477
1.28398
1.27272
1.25805
1.26167
1.30703
1.42046
1.5354
1.59913
1.61837
1.61688
1.60815
1.58717
1.56762
1.55922
1.56683
1.61146
1.70147
1.78975
1.83638
1.83622
1.82692
1.81672
1.80669
1.79122
1.7744
1.7611
1.75228
1.74326
1.73035
1.71356
1.69611
1.68326
1.67409
1.66696
1.6609
1.65358
1.64302
1.62831
1.61362
1.6045
1.59843
1.59211
1.58579
1.5792
1.57046
1.55891
1.54604
1.53366
1.52313
1.50973
1.5026
1.50261
1.50991
1.53862
1.58752
1.63381
1.65435
1.53615
1.55964
1.56622
1.57072
1.57492
1.5765
1.57506
1.57145
1.55757
1.56254
1.65383
1.83098
1.97808
2.00764
1.98825
1.94
1.88944
1.84476
1.80523
1.76877
1.73452
1.7024
1.67181
1.64144
1.61168
1.58232
1.55352
1.52484
1.49654
1.46911
1.4451
1.42444
1.40334
1.38271
1.36445
1.34699
1.32895
1.31299
1.29599
1.28302
1.27919
1.29617
1.38355
1.51528
1.61409
1.64645
1.65148
1.64291
1.62826
1.61106
1.59358
1.57608
1.56537
1.56275
1.56421
1.58529
1.64704
1.73319
1.79987
1.82953
1.82764
1.81355
1.79321
1.78119
1.77329
1.7657
1.7549
1.73971
1.71815
1.69809
1.68788
1.67986
1.67222
1.66497
1.65707
1.64675
1.63232
1.61535
1.60271
1.59533
1.59037
1.58573
1.5803
1.57182
1.55969
1.54593
1.53302
1.52418
1.51744
1.51752
1.52947
1.56595
1.61733
1.66327
1.67927
1.6778
1.57279
1.58199
1.5803
1.57883
1.57904
1.5786
1.57459
1.56497
1.5445
1.52008
1.48854
1.52206
1.68027
1.85467
1.91607
1.90687
1.87535
1.83707
1.79798
1.76066
1.72615
1.69361
1.66251
1.63226
1.60297
1.57454
1.54629
1.51749
1.49005
1.4639
1.44023
1.41832
1.39734
1.37806
1.36421
1.3524
1.3365
1.31912
1.30025
1.29991
1.34711
1.47604
1.60559
1.67226
1.69086
1.68624
1.67272
1.65966
1.64279
1.62328
1.60468
1.58973
1.58045
1.57241
1.56736
1.56229
1.56533
1.5918
1.66053
1.7396
1.78816
1.79259
1.79367
1.79455
1.78944
1.77943
1.76415
1.74624
1.72353
1.70205
1.69346
1.68576
1.67762
1.66997
1.66224
1.65241
1.63807
1.61964
1.60678
1.60146
1.59687
1.59105
1.5819
1.57022
1.55767
1.54656
1.53932
1.5333
1.53666
1.55621
1.59765
1.64532
1.67858
1.69798
1.70031
1.69425
1.57771
1.5764
1.57644
1.5772
1.57842
1.577
1.56834
1.54957
1.52185
1.48733
1.45175
1.40862
1.41757
1.51498
1.69409
1.82894
1.84915
1.8279
1.78807
1.74707
1.71022
1.67793
1.64884
1.6208
1.59227
1.56346
1.53445
1.50488
1.47818
1.45406
1.43493
1.4183
1.40334
1.38727
1.37258
1.35445
1.34173
1.32647
1.33956
1.4339
1.57584
1.69151
1.71844
1.72356
1.71475
1.7003
1.68732
1.67479
1.65853
1.63749
1.61789
1.60397
1.59368
1.58402
1.57631
1.56635
1.55919
1.54862
1.55453
1.59349
1.67395
1.74564
1.78776
1.80234
1.7997
1.78594
1.76897
1.75271
1.73035
1.7062
1.69564
1.6881
1.68102
1.67408
1.66686
1.65817
1.64627
1.63137
1.61749
1.60672
1.59789
1.58937
1.57978
1.56897
1.55941
1.55382
1.55444
1.56541
1.59626
1.63921
1.683
1.7018
1.70579
1.70649
1.70383
1.69356
1.5815
1.58127
1.58079
1.58034
1.57932
1.57111
1.55137
1.52147
1.48975
1.44751
1.40539
1.36921
1.33904
1.31933
1.3729
1.54303
1.71852
1.77435
1.7618
1.72724
1.68974
1.6581
1.63064
1.60422
1.57634
1.54829
1.52129
1.49676
1.47602
1.45733
1.44094
1.42721
1.41242
1.39288
1.37689
1.36012
1.36255
1.41108
1.54473
1.68894
1.74633
1.76987
1.76478
1.74678
1.73008
1.71509
1.70189
1.68839
1.67081
1.64858
1.62947
1.6155
1.60414
1.59385
1.58478
1.57431
1.56153
1.54687
1.53166
1.52929
1.55014
1.61998
1.70384
1.76554
1.78021
1.7792
1.77388
1.76064
1.73692
1.70935
1.6945
1.68724
1.68225
1.67763
1.67157
1.66417
1.65518
1.64312
1.62643
1.60854
1.59535
1.58525
1.57774
1.57032
1.56842
1.57431
1.59998
1.64785
1.69323
1.72331
1.73326
1.72589
1.71183
1.70564
1.70107
1.69068
1.58533
1.58406
1.58251
1.57909
1.57049
1.5494
1.51722
1.4807
1.43588
1.38248
1.35701
1.33403
1.29102
1.24417
1.21969
1.25245
1.39784
1.59916
1.70389
1.69996
1.67478
1.64059
1.60893
1.58318
1.55947
1.53753
1.51589
1.49709
1.47842
1.46194
1.44501
1.43454
1.41939
1.40411
1.39055
1.41171
1.52208
1.67627
1.78631
1.80444
1.79678
1.78635
1.77179
1.75766
1.74457
1.73102
1.71527
1.69621
1.67494
1.65519
1.63978
1.62602
1.61332
1.60174
1.59071
1.57903
1.56545
1.54913
1.53011
1.5186
1.5116
1.52135
1.56752
1.64849
1.72225
1.76286
1.76697
1.76208
1.74303
1.71577
1.69553
1.68547
1.67982
1.67783
1.67631
1.67172
1.66471
1.65243
1.63102
1.60695
1.5913
1.58214
1.57954
1.57964
1.59499
1.63745
1.69926
1.74439
1.75864
1.75875
1.74862
1.72776
1.71233
1.70635
1.7023
1.69169
1.58312
1.58115
1.57669
1.56839
1.54749
1.51205
1.47001
1.41701
1.37011
1.33776
1.30683
1.26693
1.20972
1.18808
1.17885
1.15359
1.16257
1.27954
1.49288
1.61841
1.64053
1.62505
1.59722
1.5735
1.55411
1.53555
1.51697
1.50096
1.48558
1.47021
1.4561
1.44798
1.43283
1.43562
1.49312
1.65239
1.80239
1.85932
1.8565
1.84092
1.81557
1.79305
1.77665
1.76517
1.7544
1.74156
1.72275
1.69768
1.67482
1.65888
1.64641
1.63348
1.61987
1.6068
1.59565
1.58464
1.57032
1.55305
1.53332
1.5151
1.50358
1.49734
1.50014
1.52543
1.58845
1.67029
1.72336
1.73713
1.73312
1.71986
1.69958
1.68713
1.68089
1.67598
1.67005
1.6638
1.65665
1.64592
1.62848
1.60604
1.5901
1.58569
1.58972
1.61533
1.67058
1.7331
1.77962
1.7877
1.78505
1.77451
1.75325
1.72786
1.71432
1.70761
1.70346
1.69371
1.57726
1.57332
1.56571
1.54444
1.50797
1.45705
1.4045
1.36009
1.31521
1.26961
1.22926
1.18794
1.16347
1.15275
1.13472
1.09622
1.076
1.08677
1.1771
1.38229
1.54631
1.59846
1.59235
1.57268
1.55435
1.53909
1.52417
1.51163
1.50088
1.48685
1.4763
1.46774
1.49014
1.60548
1.77139
1.8949
1.90284
1.89012
1.86853
1.84474
1.82184
1.8017
1.78626
1.77288
1.75916
1.74362
1.72141
1.69426
1.67368
1.66087
1.65
1.63901
1.62722
1.61242
1.59574
1.58155
1.56923
1.55765
1.54281
1.52392
1.5043
1.49089
1.48542
1.48601
1.49653
1.54118
1.61213
1.67784
1.71167
1.71182
1.70292
1.69082
1.68077
1.67134
1.6638
1.65744
1.65028
1.64138
1.62759
1.60592
1.59681
1.6064
1.64227
1.69785
1.75569
1.7925
1.79703
1.79556
1.78589
1.76699
1.74425
1.72672
1.71931
1.71186
1.70428
1.69522
1.56875
1.56332
1.54372
1.50419
1.44647
1.39415
1.3461
1.28634
1.23152
1.19629
1.16337
1.12644
1.1133
1.09963
1.07437
1.04895
1.0443
1.03978
1.04488
1.12192
1.32145
1.52958
1.58316
1.57542
1.56532
1.55589
1.54306
1.53045
1.52233
1.51104
1.51525
1.57084
1.73084
1.87625
1.94296
1.94466
1.92649
1.8952
1.86657
1.84488
1.82483
1.8068
1.79053
1.77514
1.75825
1.739
1.71623
1.6952
1.67865
1.66398
1.65048
1.63841
1.62661
1.6165
1.60224
1.5835
1.56538
1.55083
1.54072
1.53041
1.51406
1.49479
1.48265
1.47725
1.47467
1.48199
1.50406
1.55628
1.62327
1.67723
1.68607
1.6806
1.67296
1.66591
1.65775
1.65024
1.64224
1.63731
1.62754
1.62579
1.6415
1.68523
1.73433
1.77389
1.80282
1.80924
1.8037
1.78815
1.77258
1.75581
1.7382
1.72865
1.72312
1.71656
1.7088
1.69551
1.55579
1.53909
1.50183
1.43818
1.37372
1.32409
1.2567
1.19793
1.17054
1.13577
1.08835
1.07624
1.07211
1.06177
1.04463
1.04145
1.04126
1.03829
1.0395
1.0472
1.10647
1.30553
1.5187
1.56758
1.57682
1.57814
1.56856
1.55434
1.54726
1.56669
1.67031
1.85051
1.97198
1.97001
1.96258
1.93916
1.9169
1.89501
1.87362
1.85593
1.83655
1.81683
1.79761
1.77561
1.75349
1.73266
1.71127
1.69455
1.68331
1.67235
1.66118
1.64895
1.63487
1.61487
1.59363
1.57562
1.56212
1.55215
1.54169
1.52904
1.51611
1.50322
1.49277
1.48289
1.47179
1.46236
1.45471
1.46265
1.50114
1.56791
1.63363
1.66171
1.66392
1.65899
1.64989
1.64151
1.63982
1.64185
1.65804
1.69283
1.74262
1.77995
1.79934
1.80711
1.80791
1.80139
1.78826
1.77297
1.75835
1.74706
1.73947
1.73586
1.73158
1.72418
1.71464
1.69667
1.53421
1.49619
1.43066
1.34943
1.28889
1.22546
1.16001
1.12605
1.09906
1.06365
1.04487
1.04191
1.03563
1.03548
1.03719
1.04389
1.05137
1.05663
1.05926
1.06406
1.07326
1.11594
1.30131
1.49416
1.57438
1.5844
1.58601
1.59028
1.62979
1.77074
1.94292
2.02232
2.0267
2.0021
1.95833
1.92797
1.91062
1.89507
1.87754
1.85703
1.83342
1.81067
1.78998
1.77001
1.74928
1.72943
1.71198
1.70088
1.69043
1.67643
1.65894
1.64102
1.625
1.60788
1.5894
1.57399
1.56285
1.55352
1.54402
1.53408
1.52406
1.51224
1.49726
1.48005
1.4656
1.45397
1.44296
1.4407
1.44353
1.46482
1.5224
1.59202
1.63471
1.63841
1.6373
1.64027
1.6549
1.68504
1.73437
1.78885
1.82141
1.83188
1.8312
1.82055
1.80152
1.7851
1.76966
1.76139
1.75315
1.74452
1.7393
1.73567
1.73089
1.72248
1.71167
1.6937
1.49602
1.41475
1.31044
1.24772
1.19715
1.11515
1.08325
1.08494
1.07529
1.06291
1.05755
1.05388
1.05226
1.05241
1.05814
1.07199
1.08435
1.08952
1.09008
1.09057
1.08835
1.08946
1.1174
1.28177
1.47841
1.55489
1.63144
1.72451
1.86458
1.97463
2.04464
2.03826
2.0121
1.9815
1.95794
1.93726
1.91926
1.90288
1.88617
1.86599
1.84121
1.81323
1.78761
1.76861
1.75359
1.73957
1.72855
1.71828
1.70505
1.68748
1.66624
1.643
1.62153
1.60588
1.59368
1.58296
1.5743
1.56646
1.55863
1.54978
1.53934
1.52567
1.50754
1.48499
1.46372
1.45121
1.44241
1.43552
1.43102
1.43307
1.44809
1.49099
1.55252
1.60173
1.63194
1.67248
1.72394
1.75952
1.79977
1.83041
1.84322
1.84178
1.83094
1.81433
1.79433
1.77371
1.76188
1.75699
1.7535
1.75025
1.74607
1.74093
1.73396
1.72401
1.71301
1.69467
1.39875
1.22985
1.10298
1.04224
0.9923
0.964203
0.977127
1.02178
1.04906
1.06072
1.08341
1.09786
1.09615
1.0937
1.09724
1.10797
1.11711
1.11871
1.11835
1.11615
1.10994
1.10085
1.1007
1.12473
1.2561
1.51957
1.76774
1.98199
2.13313
2.18023
2.13526
2.05698
1.99734
1.97063
1.95172
1.93333
1.91505
1.89657
1.87858
1.85885
1.83497
1.8078
1.78067
1.75922
1.74297
1.73054
1.72073
1.71076
1.69791
1.68076
1.65999