/*--------------------------------*- C++ -*----------------------------------*\
  =========                 |
  \\      /  F ield         | OpenFOAM: The Open Source CFD Toolbox
   \\    /   O peration     | Website:  https://openfoam.org
    \\  /    A nd           | Version:  7
     \\/     M anipulation  |
\*---------------------------------------------------------------------------*/
FoamFile
{
    version     2.0;
    format      ascii;
    class       volVectorField;
    location    "3";
    object      U;
}
// * * * * * * * * * * * * * * * * * * * * * * * * * * * * * * * * * * * * * //

dimensions      [0 1 -1 0 0 0 0];

internalField   nonuniform List<vector> 
4608
(
(3 -3.89051e-17 0)
(3 -3.40553e-16 0)
(3 -1.494e-16 0)
(3 1.10204e-16 0)
(3 4.35286e-16 0)
(3 4.2512e-16 0)
(3 8.80905e-16 0)
(3 1.0485e-15 0)
(3 1.39155e-15 0)
(3 1.38454e-15 0)
(3 8.24915e-16 0)
(3 -6.48838e-17 0)
(3 -6.08119e-16 0)
(3 -5.72484e-17 0)
(3 1.9624e-16 0)
(3 7.61506e-16 0)
(3 1.14227e-15 0)
(3 1.03874e-15 0)
(3 1.96906e-16 0)
(3 -5.18687e-16 0)
(3 -3.01528e-16 0)
(3 -8.7128e-17 0)
(3 5.68981e-16 0)
(3 6.58684e-16 0)
(3 -8.01994e-17 0)
(3 -3.28724e-17 0)
(3 4.98575e-16 0)
(3 6.46134e-16 0)
(3 9.35704e-16 0)
(3 1.3946e-15 0)
(3 1.64125e-15 0)
(3 2.24227e-15 0)
(3 2.68441e-15 0)
(3 2.14385e-15 0)
(3 2.18169e-16 0)
(3 -1.04357e-15 0)
(3 -1.42693e-16 0)
(3 5.77138e-16 0)
(3 6.89427e-16 0)
(3 8.56199e-16 0)
(3 1.95109e-15 0)
(3 2.45646e-15 0)
(3 1.86926e-15 0)
(3 -3.53647e-16 0)
(3 -1.85043e-15 0)
(3 -1.88644e-15 0)
(3 -1.02233e-15 0)
(3 -1.26844e-15 0)
(3 -4.60313e-17 0)
(3 3.66017e-16 0)
(3 5.08075e-16 0)
(3 3.82574e-16 0)
(3 2.14411e-16 0)
(3 6.77124e-16 0)
(3 1.10911e-15 0)
(3 1.63447e-15 0)
(3 1.56125e-15 0)
(3 1.29069e-15 0)
(3 6.47443e-16 0)
(3 8.7824e-17 0)
(3 -5.40651e-17 0)
(3 -4.13848e-16 0)
(3 -4.26221e-16 0)
(3 -1.00365e-16 0)
(3 1.40171e-15 0)
(3 2.60218e-15 0)
(3 1.76677e-15 0)
(3 1.37842e-15 0)
(3 2.06688e-16 0)
(3 -4.68596e-16 0)
(3 -7.98595e-16 0)
(3 -1.60474e-15 0)
(3 2.54681e-16 0)
(3 2.33786e-16 0)
(3 6.063e-16 0)
(3 8.35378e-16 0)
(3 1.02755e-15 0)
(3 1.05543e-15 0)
(3 1.43621e-15 0)
(3 1.4487e-15 0)
(3 1.11578e-15 0)
(3 9.87057e-16 0)
(3 1.04843e-15 0)
(3 1.07886e-15 0)
(3 7.99282e-16 0)
(3 4.58447e-16 0)
(3 5.55768e-16 0)
(3 -1.94494e-17 0)
(3 1.40661e-16 0)
(3 6.46028e-17 0)
(3 -2.82455e-16 0)
(3 -6.49878e-16 0)
(3 -8.19339e-16 0)
(3 -6.49201e-16 0)
(3 -8.03398e-16 0)
(3 -9.18984e-16 0)
(3 1.50795e-16 0)
(3 4.72097e-16 0)
(3 1.35061e-15 0)
(3 1.85469e-15 0)
(3 2.93626e-15 0)
(3 3.37611e-15 0)
(3 3.25038e-15 0)
(3 2.07127e-15 0)
(3 1.84772e-15 0)
(3 1.33408e-15 0)
(3 1.18719e-15 0)
(3 8.02957e-16 0)
(3 7.84028e-16 0)
(3 1.28868e-15 0)
(3 1.0785e-15 0)
(3 9.29104e-16 0)
(3 2.83008e-16 0)
(3 2.53433e-16 0)
(3 5.34186e-16 0)
(3 -8.3711e-16 0)
(3 -2.26859e-15 0)
(3 -2.18661e-15 0)
(3 -1.46377e-15 0)
(3 -7.9625e-16 0)
(3 -1.76275e-16 0)
(3 -2.1617e-16 0)
(3 -1.80277e-16 0)
(3 1.04532e-16 0)
(3 2.78889e-16 0)
(3 6.79667e-16 0)
(3 6.60322e-16 0)
(3 7.23002e-16 0)
(3 1.26712e-15 0)
(3 1.28233e-15 0)
(3 8.85619e-16 0)
(3 -3.15212e-16 0)
(3 -3.28259e-16 0)
(3 -4.13572e-16 0)
(3 -2.96651e-16 0)
(3 1.77653e-16 0)
(3 9.23594e-16 0)
(3 1.56388e-15 0)
(3 2.27062e-15 0)
(3 1.60349e-15 0)
(3 3.2192e-17 0)
(3 -9.15633e-16 0)
(3 -1.25629e-15 0)
(3 -8.48223e-16 0)
(3 1.71196e-17 0)
(3 2.18087e-17 0)
(3 -2.40974e-16 0)
(3 -1.16373e-16 0)
(3 -4.7993e-16 0)
(3 -6.68062e-16 0)
(3 -8.05871e-16 0)
(3 -1.73003e-16 0)
(3 8.28423e-17 0)
(3 -4.11879e-17 0)
(3 -3.51485e-16 0)
(3 -9.65011e-16 0)
(3 -1.31163e-15 0)
(3 -1.58414e-15 0)
(3 -1.78836e-15 0)
(3 -2.01626e-15 0)
(3 -4.63882e-16 0)
(3 7.8708e-16 0)
(3 1.01037e-15 0)
(3 1.93599e-15 0)
(3 1.32251e-15 0)
(3 4.35387e-16 0)
(3 -7.03883e-17 0)
(3 -2.41374e-16 0)
(3 -3.00945e-18 0)
(3 3.46722e-18 0)
(3 -7.87236e-17 0)
(3 -4.32083e-16 0)
(3 -2.59731e-16 0)
(3 -1.29833e-16 0)
(3 -2.46466e-16 0)
(3 -7.52318e-17 0)
(3 -1.1085e-15 0)
(3 -1.28234e-15 0)
(3 -1.15767e-15 0)
(3 -1.11914e-15 0)
(3 -1.17055e-15 0)
(3 -1.45967e-15 0)
(3 -2.01445e-15 0)
(3 -1.52835e-15 0)
(3 -1.12434e-15 0)
(3 -4.55872e-16 0)
(3 -1.9559e-17 0)
(3 8.16702e-16 0)
(3 1.41503e-15 0)
(3 1.54061e-15 0)
(3 1.48513e-15 0)
(3 1.18402e-15 0)
(3 1.22108e-16 0)
(3 6.5546e-18 0)
(3 -6.75425e-16 0)
(3 -1.34048e-15 0)
(3 -1.40915e-15 0)
(3 -1.00152e-15 0)
(3 -6.56267e-17 0)
(3 -4.14129e-16 0)
(3 -1.2706e-15 0)
(3 -1.66826e-15 0)
(3 -1.6829e-15 0)
(3 -1.50873e-15 0)
(3 -1.01935e-15 0)
(3 -9.48391e-16 0)
(3 -8.68115e-16 0)
(3 3.68776e-16 0)
(3 3.06038e-16 0)
(3 2.06225e-16 0)
(3 -7.20837e-17 0)
(3 1.81612e-17 0)
(3 1.16252e-15 0)
(3 1.56326e-15 0)
(3 7.97096e-16 0)
(3 7.50172e-16 0)
(3 1.24223e-16 0)
(3 2.59591e-16 0)
(3 -1.10408e-16 0)
(3 -3.99454e-16 0)
(3 -4.09322e-16 0)
(3 -7.02492e-16 0)
(3 -3.60606e-16 0)
(3 -6.18118e-16 0)
(3 -9.36083e-16 0)
(3 -1.06371e-15 0)
(3 -9.4553e-16 0)
(3 -6.60194e-16 0)
(3 -6.94572e-16 0)
(3 -3.19167e-16 0)
(3 1.10116e-15 0)
(3 1.64125e-15 0)
(3 1.48209e-15 0)
(3 6.39818e-16 0)
(3 1.23976e-16 0)
(3 8.99446e-17 0)
(3 2.91892e-16 0)
(3 1.34424e-15 0)
(3 1.16664e-15 0)
(3 7.10147e-16 0)
(3 -2.73979e-16 0)
(3 -4.97479e-16 0)
(3 -4.06462e-16 0)
(3 -2.26179e-16 0)
(3 -1.50794e-16 0)
(3 -2.28881e-16 0)
(3 -7.97737e-16 0)
(3 -1.03516e-15 0)
(3 -9.1812e-16 0)
(3 -3.53977e-16 0)
(3 -3.50304e-16 0)
(3 2.8033e-16 0)
(3 6.90715e-16 0)
(3 1.69403e-15 0)
(3 1.3186e-15 0)
(3 6.54305e-16 0)
(3 2.81043e-16 0)
(3 3.39978e-16 0)
(3 8.9009e-16 0)
(3 5.05825e-16 0)
(3 6.15843e-16 0)
(3 8.20354e-16 0)
(3 3.32412e-16 0)
(3 -1.54968e-16 0)
(3 1.84195e-16 0)
(3 2.90376e-17 0)
(3 -5.91804e-19 0)
(3 3.21946e-16 0)
(3 1.17957e-16 0)
(3 -5.49203e-16 0)
(3 -1.01517e-15 0)
(3 -7.41771e-16 0)
(3 -8.69331e-16 0)
(3 -5.7459e-16 0)
(3 -1.0341e-15 0)
(3 -8.34218e-16 0)
(3 -4.6873e-16 0)
(3 -1.60961e-16 0)
(3 -2.11467e-16 0)
(3 -5.94484e-16 0)
(3 -1.0673e-15 0)
(3 -7.01288e-16 0)
(3 -3.14865e-16 0)
(3 -3.8191e-16 0)
(3 -1.91694e-16 0)
(3 -4.87595e-16 0)
(3 -8.94964e-16 0)
(3 -1.83275e-15 0)
(3 2.35679e-17 0)
(3 2.31437e-17 0)
(3 5.69323e-16 0)
(3 8.63857e-16 0)
(3 3.74085e-16 0)
(3 2.40749e-17 0)
(3 3.58128e-17 0)
(3 4.39801e-16 0)
(3 3.18124e-16 0)
(3 -5.99667e-17 0)
(3 -1.51769e-15 0)
(3 -1.9504e-15 0)
(3 -2.46281e-15 0)
(3 -2.79061e-15 0)
(3 -2.56247e-15 0)
(3 -1.77047e-15 0)
(3 -1.905e-15 0)
(3 -1.8712e-15 0)
(3 -2.00437e-15 0)
(3 -1.5839e-15 0)
(3 -1.84222e-15 0)
(3 -1.55974e-15 0)
(3 -1.28143e-15 0)
(3 -8.61798e-16 0)
(3 -2.05918e-16 0)
(3 -3.16125e-17 0)
(3 4.69507e-16 0)
(3 8.42299e-16 0)
(3 7.0084e-16 0)
(3 1.31673e-15 0)
(3 1.34899e-15 0)
(3 4.22421e-16 0)
(3 3.65225e-16 0)
(3 2.60442e-16 0)
(3 1.38813e-16 0)
(3 -4.44521e-16 0)
(3 -1.52897e-15 0)
(3 -2.51925e-15 0)
(3 -1.72229e-15 0)
(3 -7.8315e-16 0)
(3 -6.26863e-16 0)
(3 -9.52956e-16 0)
(3 -1.40251e-15 0)
(3 -1.71809e-15 0)
(3 -2.04613e-15 0)
(3 -2.45255e-15 0)
(3 -2.35611e-15 0)
(3 -1.90025e-15 0)
(3 -1.68438e-17 0)
(3 -1.24495e-16 0)
(3 8.72073e-17 0)
(3 6.42648e-16 0)
(3 1.14307e-15 0)
(3 7.39181e-16 0)
(3 2.37792e-16 0)
(3 -3.10647e-16 0)
(3 -1.04427e-16 0)
(3 1.34376e-16 0)
(3 2.96413e-17 0)
(3 -6.5131e-17 0)
(3 2.12468e-16 0)
(3 1.0826e-16 0)
(3 -6.2259e-16 0)
(3 -8.83637e-16 0)
(3 -4.96512e-16 0)
(3 -4.07445e-16 0)
(3 2.12573e-16 0)
(3 -9.41688e-17 0)
(3 -4.95356e-16 0)
(3 -9.62902e-16 0)
(3 -9.43925e-16 0)
(3 -1.1215e-15 0)
(3 -1.20198e-17 0)
(3 -3.428e-16 0)
(3 -4.5993e-16 0)
(3 -2.46774e-16 0)
(3 -1.89156e-16 0)
(3 -6.2659e-16 0)
(3 -9.10227e-16 0)
(3 -4.001e-16 0)
(3 3.5908e-16 0)
(3 4.41255e-16 0)
(3 1.85434e-16 0)
(3 2.36847e-16 0)
(3 1.01831e-15 0)
(3 1.31354e-15 0)
(3 6.33235e-16 0)
(3 -6.30767e-16 0)
(3 -6.76655e-16 0)
(3 -3.28119e-16 0)
(3 1.4829e-16 0)
(3 9.67689e-16 0)
(3 1.00291e-15 0)
(3 1.19425e-15 0)
(3 8.24511e-16 0)
(3 6.82377e-16 0)
(3 1.63234e-18 0)
(3 1.48991e-16 0)
(3 -1.06666e-16 0)
(3 -5.03105e-16 0)
(3 -6.08383e-16 0)
(3 -5.20027e-16 0)
(3 -4.53242e-16 0)
(3 -3.75782e-16 0)
(3 1.13753e-16 0)
(3 7.86161e-16 0)
(3 5.88925e-16 0)
(3 5.82974e-16 0)
(3 1.22899e-15 0)
(3 2.22645e-15 0)
(3 2.77664e-15 0)
(3 1.76665e-15 0)
(3 9.76779e-16 0)
(3 3.66768e-17 0)
(3 -5.93957e-16 0)
(3 -1.67206e-16 0)
(3 3.35971e-17 0)
(3 3.57882e-16 0)
(3 5.89152e-16 0)
(3 6.86618e-16 0)
(3 1.9758e-16 0)
(3 6.33516e-16 0)
(3 1.36869e-16 0)
(3 -3.10145e-16 0)
(3 -3.54289e-16 0)
(3 -1.86587e-16 0)
(3 1.27129e-16 0)
(3 2.95915e-17 0)
(3 4.24308e-16 0)
(3 8.18125e-16 0)
(3 8.05577e-16 0)
(3 8.03123e-16 0)
(3 1.01419e-15 0)
(3 1.67937e-15 0)
(3 2.02633e-15 0)
(3 1.4606e-15 0)
(3 1.01498e-15 0)
(3 -6.87534e-16 0)
(3 -1.96355e-15 0)
(3 -1.88967e-15 0)
(3 -1.60886e-15 0)
(3 -1.34983e-15 0)
(3 -8.99192e-16 0)
(3 -1.38611e-15 0)
(3 1.01238e-17 0)
(3 4.1281e-17 0)
(3 8.37991e-17 0)
(3 3.63531e-17 0)
(3 -1.15526e-16 0)
(3 -3.339e-16 0)
(3 7.17197e-17 0)
(3 5.82338e-16 0)
(3 4.80395e-17 0)
(3 -3.20433e-16 0)
(3 9.47579e-17 0)
(3 1.98649e-16 0)
(3 -6.58643e-17 0)
(3 -1.45818e-16 0)
(3 4.27982e-17 0)
(3 -8.54623e-16 0)
(3 -1.96352e-15 0)
(3 -3.00323e-15 0)
(3 -3.65682e-15 0)
(3 -2.79479e-15 0)
(3 -1.25539e-15 0)
(3 -1.02018e-15 0)
(3 -1.6153e-15 0)
(3 -2.344e-15 0)
(3 -3.04937e-16 0)
(3 -5.7406e-16 0)
(3 -1.81916e-16 0)
(3 3.37094e-17 0)
(3 3.75495e-17 0)
(3 2.56299e-16 0)
(3 7.53845e-16 0)
(3 1.01587e-15 0)
(3 5.24033e-16 0)
(3 4.41696e-17 0)
(3 6.4243e-16 0)
(3 9.77468e-16 0)
(3 5.86775e-16 0)
(3 -5.63654e-16 0)
(3 -1.69715e-15 0)
(3 -1.64862e-15 0)
(3 -1.67395e-15 0)
(3 -1.25874e-15 0)
(3 -1.4237e-15 0)
(3 -2.08815e-15 0)
(3 -7.08141e-16 0)
(3 4.23704e-16 0)
(3 2.72988e-16 0)
(3 1.03201e-15 0)
(3 -5.48503e-17 0)
(3 -2.67611e-17 0)
(3 -7.40294e-17 0)
(3 -2.10214e-16 0)
(3 -1.64985e-16 0)
(3 -1.63142e-16 0)
(3 -3.12859e-16 0)
(3 8.5316e-17 0)
(3 9.39603e-16 0)
(3 1.00252e-15 0)
(3 1.51825e-15 0)
(3 1.44026e-15 0)
(3 7.35049e-16 0)
(3 -8.81754e-16 0)
(3 -1.6793e-15 0)
(3 -1.24306e-15 0)
(3 2.06548e-16 0)
(3 5.15726e-16 0)
(3 6.09694e-16 0)
(3 2.11619e-17 0)
(3 2.92464e-16 0)
(3 4.54054e-16 0)
(3 3.69934e-16 0)
(3 -2.37238e-16 0)
(3 8.44205e-17 0)
(3 5.90849e-18 0)
(3 -3.23197e-16 0)
(3 -4.53955e-16 0)
(3 -6.17488e-16 0)
(3 -1.26185e-15 0)
(3 -1.69261e-15 0)
(3 -1.70556e-15 0)
(3 -6.67714e-16 0)
(3 -1.47443e-16 0)
(3 -1.83071e-16 0)
(3 -5.64905e-16 0)
(3 -9.13233e-16 0)
(3 -6.33593e-16 0)
(3 -4.93683e-16 0)
(3 9.61921e-17 0)
(3 1.26472e-16 0)
(3 2.9926e-17 0)
(3 3.20522e-17 0)
(3 -2.08933e-16 0)
(3 4.87423e-16 0)
(3 6.74366e-16 0)
(3 5.29117e-16 0)
(3 -5.33694e-16 0)
(3 1.58393e-17 0)
(3 2.21609e-16 0)
(3 -3.44079e-16 0)
(3 -4.5841e-16 0)
(3 -1.60043e-15 0)
(3 -1.50363e-15 0)
(3 -1.27213e-15 0)
(3 -1.16589e-15 0)
(3 -9.83164e-16 0)
(3 -1.55705e-16 0)
(3 -2.90505e-16 0)
(3 -4.6282e-16 0)
(3 -4.73688e-16 0)
(3 -8.27312e-17 0)
(3 -2.21302e-16 0)
(3 2.34208e-16 0)
(3 2.94308e-16 0)
(3 6.21016e-16 0)
(3 4.22515e-16 0)
(3 -5.48969e-16 0)
(3 -2.48344e-15 0)
(3 -1.82208e-15 0)
(3 -8.79956e-16 0)
(3 3.96478e-16 0)
(3 2.87179e-16 0)
(3 3.44994e-16 0)
(3 1.20332e-16 0)
(3 -6.65068e-16 0)
(3 -1.05704e-15 0)
(3 -7.46181e-16 0)
(3 -3.59782e-16 0)
(3 1.13384e-16 0)
(3 -2.24244e-16 0)
(3 -1.86122e-16 0)
(3 4.48885e-17 0)
(3 3.5268e-16 0)
(3 2.85896e-16 0)
(3 5.58234e-16 0)
(3 9.65098e-16 0)
(3 7.82188e-16 0)
(3 3.588e-16 0)
(3 4.00357e-16 0)
(3 6.12136e-16 0)
(3 6.50193e-16 0)
(3 1.66567e-16 0)
(3 1.54113e-16 0)
(3 1.16384e-15 0)
(3 2.52598e-15 0)
(3 4.60357e-18 0)
(3 -3.73944e-17 0)
(3 -8.5304e-17 0)
(3 -2.26833e-16 0)
(3 1.05398e-17 0)
(3 5.23648e-16 0)
(3 4.28051e-16 0)
(3 -1.83879e-16 0)
(3 -6.73842e-16 0)
(3 -7.43692e-16 0)
(3 -3.35979e-16 0)
(3 7.01392e-16 0)
(3 1.15049e-15 0)
(3 5.47419e-16 0)
(3 7.43439e-16 0)
(3 4.2642e-16 0)
(3 6.74803e-17 0)
(3 3.15873e-16 0)
(3 8.53309e-16 0)
(3 1.8793e-15 0)
(3 2.05251e-15 0)
(3 1.37917e-15 0)
(3 2.51936e-16 0)
(3 5.53479e-16 0)
(3 -2.81883e-16 0)
(3 -2.87811e-16 0)
(3 9.96272e-18 0)
(3 9.5512e-16 0)
(3 1.85834e-15 0)
(3 2.0286e-15 0)
(3 1.62838e-15 0)
(3 2.49452e-16 0)
(3 -2.2492e-16 0)
(3 -4.02628e-16 0)
(3 -3.58798e-16 0)
(3 4.50448e-16 0)
(3 6.26621e-16 0)
(3 -7.97862e-17 0)
(3 -4.55779e-16 0)
(3 5.37707e-16 0)
(3 1.23108e-15 0)
(3 2.34337e-15 0)
(3 2.73976e-15 0)
(3 2.06136e-15 0)
(3 1.02979e-15 0)
(3 -3.28774e-16 0)
(3 -7.92814e-16 0)
(3 -1.23073e-16 0)
(3 5.43866e-17 0)
(3 -1.43943e-16 0)
(3 3.65949e-16 0)
(3 7.3045e-16 0)
(3 1.80475e-15 0)
(3 1.84118e-15 0)
(3 1.6669e-15 0)
(3 1.8138e-15 0)
(3 1.47003e-15 0)
(3 4.94749e-16 0)
(3 -5.8298e-16 0)
(3 -7.42312e-16 0)
(3 -7.59651e-16 0)
(3 -8.31482e-16 0)
(3 -9.46877e-16 0)
(3 -5.07564e-16 0)
(3 1.21926e-16 0)
(3 1.27993e-15 0)
(3 1.76291e-15 0)
(3 1.44235e-15 0)
(3 3.413e-16 0)
(3 6.53686e-16 0)
(3 1.44262e-15 0)
(3 1.09897e-15 0)
(3 8.28576e-17 0)
(3 3.91791e-16 0)
(3 6.64894e-16 0)
(3 8.49282e-16 0)
(3 5.55986e-16 0)
(3 5.86027e-16 0)
(3 5.60591e-16 0)
(3 7.38501e-16 0)
(3 1.01366e-15 0)
(3 9.05952e-16 0)
(3 -3.66548e-16 0)
(3 -8.16962e-16 0)
(3 -2.31602e-16 0)
(3 5.04024e-17 0)
(3 -9.64964e-17 0)
(3 -6.33436e-16 0)
(3 -5.18518e-16 0)
(3 -1.33852e-16 0)
(3 5.84343e-16 0)
(3 6.54096e-16 0)
(3 9.08432e-16 0)
(3 1.86954e-15 0)
(3 1.91814e-15 0)
(3 1.28028e-15 0)
(3 -1.56028e-16 0)
(3 7.29005e-17 0)
(3 1.46766e-16 0)
(3 -1.70837e-16 0)
(3 -3.74804e-16 0)
(3 -7.30173e-16 0)
(3 -4.21166e-16 0)
(3 -6.28547e-17 0)
(3 4.58131e-16 0)
(3 3.172e-16 0)
(3 3.61825e-16 0)
(3 2.30229e-16 0)
(3 2.35323e-16 0)
(3 8.1905e-16 0)
(3 9.21769e-16 0)
(3 3.62471e-16 0)
(3 1.42478e-15 0)
(3 1.95868e-15 0)
(3 2.34117e-15 0)
(3 2.30909e-15 0)
(3 2.0621e-15 0)
(3 1.89056e-15 0)
(3 1.51524e-15 0)
(3 1.58426e-15 0)
(3 -4.95322e-17 0)
(3 -2.3694e-16 0)
(3 -8.31633e-16 0)
(3 -1.07872e-15 0)
(3 -1.54639e-15 0)
(3 -1.65931e-15 0)
(3 -7.9845e-16 0)
(3 -6.1403e-16 0)
(3 -7.43259e-16 0)
(3 -8.12843e-16 0)
(3 4.20276e-16 0)
(3 3.68592e-16 0)
(3 3.95888e-16 0)
(3 9.5208e-16 0)
(3 1.44449e-15 0)
(3 2.27266e-15 0)
(3 2.14083e-15 0)
(3 2.06789e-15 0)
(3 1.57539e-15 0)
(3 1.50985e-15 0)
(3 1.55432e-15 0)
(3 1.34601e-15 0)
(3 3.85124e-16 0)
(3 4.69244e-16 0)
(3 1.33755e-16 0)
(3 -2.38429e-16 0)
(3 -5.33526e-16 0)
(3 -4.05553e-16 0)
(3 1.17777e-16 0)
(3 3.26558e-16 0)
(3 -5.46858e-17 0)
(3 -1.19627e-15 0)
(3 -1.89685e-15 0)
(3 -1.359e-15 0)
(3 -3.10499e-16 0)
(3 9.51702e-16 0)
(3 1.25296e-15 0)
(3 1.29848e-15 0)
(3 1.55859e-15 0)
(3 2.52342e-15 0)
(3 2.5031e-15 0)
(3 2.14575e-15 0)
(3 1.55198e-15 0)
(3 7.02764e-16 0)
(3 1.63238e-16 0)
(3 -6.47812e-16 0)
(3 -1.86264e-15 0)
(3 -2.3807e-15 0)
(3 -3.53776e-17 0)
(3 -2.95147e-17 0)
(3 -7.59603e-17 0)
(3 1.2768e-18 0)
(3 6.69962e-16 0)
(3 5.99126e-16 0)
(3 2.2643e-16 0)
(3 -2.39324e-16 0)
(3 -6.44727e-16 0)
(3 -4.68336e-16 0)
(3 2.98829e-17 0)
(3 5.72895e-16 0)
(3 2.89112e-16 0)
(3 1.42868e-16 0)
(3 2.23111e-16 0)
(3 6.22976e-16 0)
(3 9.59325e-16 0)
(3 1.06569e-15 0)
(3 7.28917e-16 0)
(3 1.43494e-16 0)
(3 -5.94417e-16 0)
(3 -1.21912e-15 0)
(3 -1.57626e-15 0)
(3 -1.59006e-15 0)
(2.93246 0.0236836 0)
(2.84561 0.0723258 0)
(2.76117 0.131396 0)
(2.66189 0.249098 0)
(2.57936 0.344808 0)
(2.50772 0.438728 0)
(2.41588 0.54992 0)
(2.35263 0.628144 0)
(2.31201 0.724038 0)
(2.25817 0.794871 0)
(2.2485 0.855075 0)
(2.28363 0.884935 0)
(2.32831 0.894685 0)
(2.33623 0.89108 0)
(2.34373 0.87966 0)
(2.34547 0.869784 0)
(2.34557 0.856338 0)
(2.34739 0.848759 0)
(2.34819 0.849115 0)
(2.34357 0.849753 0)
(2.33912 0.850723 0)
(2.33525 0.850548 0)
(2.33483 0.849768 0)
(2.33768 0.849356 0)
(2.99858 0.00142976 0)
(2.9896 0.0126888 0)
(2.96279 0.0476767 0)
(2.90036 0.132047 0)
(2.80443 0.27392 0)
(2.68632 0.458252 0)
(2.51919 0.692772 0)
(2.39965 0.893791 0)
(2.2159 1.07755 0)
(2.17172 1.09443 0)
(2.1367 1.04176 0)
(2.18685 1.00145 0)
(2.25826 0.949115 0)
(2.29636 0.899535 0)
(2.32871 0.859293 0)
(2.34822 0.838441 0)
(2.35342 0.831435 0)
(2.36007 0.832987 0)
(2.35863 0.837546 0)
(2.35362 0.84508 0)
(2.34693 0.849532 0)
(2.3403 0.852015 0)
(2.33753 0.853051 0)
(2.33833 0.851378 0)
(3 -3.93024e-07 0)
(3.00001 8.81505e-06 0)
(3.00003 -5.14839e-05 0)
(2.99986 0.000116758 0)
(2.99863 0.00188968 0)
(2.99152 0.0120409 0)
(2.96377 0.0565675 0)
(2.90606 0.164541 0)
(2.75482 0.427445 0)
(2.60812 0.694233 0)
(2.44238 0.847772 0)
(2.33777 0.935479 0)
(2.28923 0.913797 0)
(2.30153 0.895814 0)
(2.31557 0.887437 0)
(2.33992 0.879928 0)
(2.35126 0.858146 0)
(2.36191 0.841578 0)
(2.3635 0.841019 0)
(2.36133 0.842803 0)
(2.35517 0.846083 0)
(2.34848 0.849824 0)
(2.34573 0.851851 0)
(2.34358 0.850794 0)
(3 -7.95638e-11 0)
(3 -1.61617e-07 0)
(3 -1.69241e-06 0)
(3 -1.62704e-06 0)
(3.00001 -8.93148e-06 0)
(2.99999 2.26976e-05 0)
(2.99999 1.25686e-06 0)
(2.99943 0.000884686 0)
(2.98767 0.0202098 0)
(2.90968 0.154055 0)
(2.75092 0.425037 0)
(2.41812 0.81247 0)
(2.35412 0.873637 0)
(2.29375 0.941473 0)
(2.2941 0.940872 0)
(2.30682 0.921051 0)
(2.32692 0.887304 0)
(2.34293 0.856217 0)
(2.35908 0.840867 0)
(2.36371 0.835503 0)
(2.36355 0.837686 0)
(2.36134 0.841293 0)
(2.35716 0.84516 0)
(2.35257 0.848297 0)
(3 -2.28965e-11 0)
(3 -1.87746e-09 0)
(3 -1.42641e-08 0)
(3 -1.07673e-07 0)
(3 -7.67743e-07 0)
(3 -7.36283e-07 0)
(3 -2.02472e-06 0)
(3 -3.78779e-06 0)
(3.00004 -9.08151e-05 0)
(2.99938 0.000827573 0)
(2.98504 0.0202999 0)
(2.85944 0.180814 0)
(2.70753 0.431827 0)
(2.36685 0.81002 0)
(2.31338 0.879558 0)
(2.30501 0.886876 0)
(2.30941 0.882143 0)
(2.31367 0.877624 0)
(2.33352 0.864992 0)
(2.3525 0.851404 0)
(2.35956 0.848499 0)
(2.36082 0.844494 0)
(2.35957 0.844141 0)
(2.35412 0.850598 0)
(3 -9.86338e-13 0)
(3 2.50183e-11 0)
(3 2.55092e-10 0)
(3 -8.0976e-10 0)
(3 -2.32313e-09 0)
(3 -4.58875e-08 0)
(3 -5.65752e-08 0)
(3 -2.89942e-07 0)
(3 -6.26689e-06 0)
(3 -5.89666e-06 0)
(3.00003 -7.4662e-05 0)
(2.99852 0.00214035 0)
(2.97846 0.0305191 0)
(2.7888 0.257336 0)
(2.58033 0.533654 0)
(2.40923 0.764883 0)
(2.26842 0.91548 0)
(2.27284 0.909018 0)
(2.29891 0.882296 0)
(2.3171 0.86556 0)
(2.33459 0.85891 0)
(2.3447 0.852481 0)
(2.35081 0.843518 0)
(2.35177 0.841493 0)
(3 -1.13416e-16 0)
(3 3.82366e-13 0)
(3 2.81282e-11 0)
(3 2.58153e-11 0)
(3 3.07455e-11 0)
(3 -4.42314e-11 0)
(3 -6.03859e-10 0)
(3 -4.4603e-10 0)
(3 -2.54153e-08 0)
(3 -3.58929e-07 0)
(3 -7.02197e-06 0)
(3.00001 -4.67863e-06 0)
(3.00001 -4.75882e-05 0)
(2.99432 0.00795032 0)
(2.95101 0.0656372 0)
(2.72312 0.355156 0)
(2.45617 0.685141 0)
(2.40109 0.77308 0)
(2.32649 0.84012 0)
(2.30936 0.854086 0)
(2.3133 0.852269 0)
(2.32744 0.846138 0)
(2.33734 0.837708 0)
(2.34178 0.83888 0)
(3 -1.97741e-17 0)
(3 -3.14526e-15 0)
(3 7.91542e-14 0)
(3 1.99609e-12 0)
(3 5.81315e-12 0)
(3 5.31869e-12 0)
(3 2.8521e-12 0)
(3 2.4518e-12 0)
(3 1.61697e-10 0)
(3 -4.443e-10 0)
(3 -3.04066e-08 0)
(3 -5.84531e-07 0)
(3 -2.98763e-06 0)
(3.00001 -2.27211e-05 0)
(2.99974 0.000410341 0)
(2.9837 0.021972 0)
(2.88602 0.149987 0)
(2.64157 0.492758 0)
(2.35299 0.830489 0)
(2.33571 0.823293 0)
(2.31306 0.838507 0)
(2.30738 0.842014 0)
(2.31808 0.83977 0)
(2.33296 0.8352 0)
(3 5.38052e-16 0)
(3 3.66223e-16 0)
(3 -1.0322e-15 0)
(3 5.07887e-15 0)
(3 5.81272e-14 0)
(3 5.30622e-13 0)
(3 6.59281e-13 0)
(3 1.09136e-12 0)
(3 1.035e-11 0)
(3 1.39518e-11 0)
(3 1.23434e-10 0)
(3 -1.4415e-08 0)
(3 -3.49636e-08 0)
(3 -2.79026e-06 0)
(3 -4.97407e-06 0)
(2.99999 1.49975e-05 0)
(2.99787 0.00373467 0)
(2.94858 0.0712073 0)
(2.74714 0.338875 0)
(2.5699 0.601276 0)
(2.32171 0.870532 0)
(2.2803 0.877684 0)
(2.29849 0.850314 0)
(2.32108 0.841162 0)
(3 9.53989e-18 0)
(3 -6.275e-16 0)
(3 -8.12308e-16 0)
(3 6.30318e-16 0)
(3 -2.8435e-16 0)
(3 3.41923e-15 0)
(3 1.43982e-14 0)
(3 8.90972e-14 0)
(3 2.10518e-13 0)
(3 2.89337e-12 0)
(3 6.70289e-12 0)
(3 6.12722e-11 0)
(3 -5.73174e-11 0)
(3 -2.22687e-08 0)
(3 -9.42729e-07 0)
(3 -8.4322e-07 0)
(3 -9.85251e-06 0)
(2.99939 0.00092206 0)
(2.98362 0.026884 0)
(2.88494 0.182628 0)
(2.56656 0.589635 0)
(2.46046 0.719571 0)
(2.35612 0.809701 0)
(2.32989 0.846648 0)
(3 -1.00079e-15 0)
(3 -1.95179e-15 0)
(3 -1.94044e-15 0)
(3 -1.7513e-15 0)
(3 -2.01038e-15 0)
(3 -1.97826e-15 0)
(3 4.1997e-16 0)
(3 3.07673e-15 0)
(3 6.22646e-15 0)
(3 2.79526e-14 0)
(3 2.74914e-13 0)
(3 1.3254e-11 0)
(3 1.6502e-11 0)
(3 1.12456e-10 0)
(3 -1.70813e-08 0)
(3 -9.97254e-08 0)
(3 -1.57631e-06 0)
(3 -5.22188e-06 0)
(2.99994 9.89458e-05 0)
(2.99493 0.0086706 0)
(2.91563 0.122355 0)
(2.76784 0.388535 0)
(2.41345 0.792866 0)
(2.35937 0.834783 0)
(3 -2.58191e-15 0)
(3 -1.69972e-15 0)
(3 -1.35229e-15 0)
(3 -1.48307e-15 0)
(3 -1.74817e-15 0)
(3 2.43749e-18 0)
(3 1.08875e-15 0)
(3 1.31207e-15 0)
(3 2.03683e-15 0)
(3 1.63386e-15 0)
(3 2.8148e-15 0)
(3 4.94794e-13 0)
(3 3.45024e-12 0)
(3 1.47904e-11 0)
(3 9.83224e-11 0)
(3 -1.89369e-09 0)
(3 -2.46517e-08 0)
(3 -1.42343e-06 0)
(3 -1.49154e-06 0)
(3 -5.92762e-06 0)
(2.99783 0.00434819 0)
(2.97362 0.0517527 0)
(2.76172 0.34821 0)
(2.53495 0.644096 0)
(3 3.88742e-17 0)
(3 -3.82091e-16 0)
(3 -9.49271e-16 0)
(3 -1.22819e-15 0)
(3 -4.13014e-16 0)
(3 9.81928e-16 0)
(3 1.3431e-15 0)
(3 1.43653e-15 0)
(3 1.15426e-15 0)
(3 1.26005e-15 0)
(3 4.55364e-16 0)
(3 3.11838e-16 0)
(3 5.46984e-14 0)
(3 9.59039e-13 0)
(3 1.8742e-11 0)
(3 1.45332e-11 0)
(3 -1.94375e-11 0)
(3 -3.67054e-08 0)
(3 -4.91664e-07 0)
(3 -4.07413e-07 0)
(3 -4.53074e-06 0)
(2.99939 0.00128861 0)
(2.979 0.0344173 0)
(2.83603 0.251493 0)
(3 -1.57339e-15 0)
(3 -7.80726e-16 0)
(3 -2.95092e-16 0)
(3 4.19522e-16 0)
(3 3.31709e-16 0)
(3 -6.82352e-17 0)
(3 -4.75007e-16 0)
(3 -8.90782e-16 0)
(3 -6.94534e-16 0)
(3 -3.35519e-16 0)
(3 -4.66982e-17 0)
(3 -1.83762e-16 0)
(3 5.68554e-16 0)
(3 3.96154e-15 0)
(3 4.9826e-13 0)
(3 4.59778e-12 0)
(3 4.10309e-12 0)
(3 2.7576e-12 0)
(3 -2.20659e-08 0)
(3 -1.19358e-07 0)
(3 -4.40019e-07 0)
(3 -8.77402e-07 0)
(2.99968 0.000664405 0)
(2.98936 0.0197842 0)
(3 -1.31841e-15 0)
(3 -9.46396e-16 0)
(3 3.03825e-16 0)
(3 1.07132e-15 0)
(3 8.60706e-16 0)
(3 2.61019e-16 0)
(3 -1.9306e-15 0)
(3 -2.80856e-15 0)
(3 -1.80754e-15 0)
(3 -1.01279e-15 0)
(3 -8.24149e-16 0)
(3 -1.14898e-16 0)
(3 5.94062e-17 0)
(3 -1.52038e-17 0)
(3 2.48427e-15 0)
(3 7.49458e-14 0)
(3 1.30158e-12 0)
(3 4.70342e-12 0)
(3 -4.38593e-11 0)
(3 -1.06058e-08 0)
(3 -5.78318e-08 0)
(3 -1.49432e-07 0)
(3 -5.62635e-06 0)
(2.99996 8.02903e-05 0)
(3 2.23262e-16 0)
(3 4.85125e-17 0)
(3 7.84702e-16 0)
(3 -8.22733e-17 0)
(3 -2.51054e-17 0)
(3 3.68442e-16 0)
(3 -3.39736e-16 0)
(3 -1.98534e-15 0)
(3 -2.50789e-15 0)
(3 -2.38955e-15 0)
(3 -1.21935e-15 0)
(3 -2.6976e-16 0)
(3 1.43018e-16 0)
(3 2.14973e-16 0)
(3 -1.71614e-15 0)
(3 -1.57484e-15 0)
(3 4.84254e-14 0)
(3 1.85587e-12 0)
(3 1.72592e-12 0)
(3 -1.88146e-10 0)
(3 -6.22292e-10 0)
(3 -1.2803e-07 0)
(3 -8.1349e-07 0)
(3 5.64784e-07 0)
(3 6.25919e-16 0)
(3 2.46634e-16 0)
(3 5.54797e-17 0)
(3 -2.88175e-16 0)
(3 -3.5693e-16 0)
(3 -3.41249e-16 0)
(3 -1.34891e-15 0)
(3 -2.21933e-15 0)
(3 -2.16247e-15 0)
(3 -7.92174e-16 0)
(3 3.53118e-16 0)
(3 8.36388e-16 0)
(3 9.8191e-16 0)
(3 5.42361e-16 0)
(3 6.64506e-16 0)
(3 -1.01389e-15 0)
(3 -6.04312e-14 0)
(3 -3.5965e-12 0)
(3 -1.87466e-12 0)
(3 6.0832e-12 0)
(3 5.10629e-09 0)
(3 1.5815e-08 0)
(3 1.60027e-07 0)
(3 1.13288e-05 0)
(3 -1.07269e-15 0)
(3 -9.73059e-16 0)
(3 -1.20635e-15 0)
(3 -8.75148e-16 0)
(3 -1.09394e-15 0)
(3 -1.90236e-15 0)
(3 -3.30664e-15 0)
(3 -3.32064e-15 0)
(3 -1.60592e-15 0)
(3 -7.48849e-16 0)
(3 -2.50853e-16 0)
(3 6.60014e-16 0)
(3 8.50412e-16 0)
(3 1.23935e-15 0)
(3 -3.29793e-16 0)
(3 -8.33206e-14 0)
(3 -1.60749e-12 0)
(3 -1.26166e-11 0)
(3 3.69296e-11 0)
(3 3.81652e-09 0)
(3 8.68018e-08 0)
(3 5.58411e-07 0)
(3 -5.97566e-06 0)
(3.00001 7.055e-05 0)
(3 -2.41846e-15 0)
(3 -2.29023e-15 0)
(3 -2.24561e-15 0)
(3 -2.2234e-15 0)
(3 -2.27923e-15 0)
(3 -2.6359e-15 0)
(3 -1.5881e-15 0)
(3 2.58134e-16 0)
(3 -1.59767e-16 0)
(3 -1.01953e-15 0)
(3 2.10266e-16 0)
(3 1.17346e-15 0)
(3 1.28416e-15 0)
(3 -2.55323e-15 0)
(3 -5.20975e-13 0)
(3 -4.87305e-12 0)
(3 -3.14436e-12 0)
(3 -4.28268e-11 0)
(3 1.93477e-08 0)
(3 1.01665e-07 0)
(3 5.29234e-07 0)
(3 2.66826e-06 0)
(2.99955 -0.000994426 0)
(2.99599 -0.0125798 0)
(3 -2.39573e-16 0)
(3 -1.88527e-16 0)
(3 -1.17032e-16 0)
(3 -9.83404e-16 0)
(3 -1.61455e-15 0)
(3 -1.4451e-15 0)
(3 4.47579e-17 0)
(3 7.03071e-16 0)
(3 -7.8174e-17 0)
(3 -2.01925e-16 0)
(3 2.17013e-16 0)
(3 8.42188e-16 0)
(3 -5.22246e-14 0)
(3 -1.14172e-12 0)
(3 -1.89534e-11 0)
(3 -2.35003e-11 0)
(3 8.07509e-11 0)
(3 3.72947e-08 0)
(3 5.13568e-07 0)
(3 4.50546e-07 0)
(3 1.91982e-06 0)
(2.99944 -0.00101426 0)
(2.97544 -0.0458621 0)
(2.88893 -0.195192 0)
(3 7.2172e-16 0)
(3 1.30888e-15 0)
(3 1.39105e-15 0)
(3 1.37983e-15 0)
(3 4.62906e-16 0)
(3 7.17219e-16 0)
(3 1.13817e-15 0)
(3 -9.33045e-17 0)
(3 -6.97828e-16 0)
(3 -1.659e-15 0)
(3 -3.47486e-15 0)
(3 -4.43927e-13 0)
(3 -3.43138e-12 0)
(3 -1.53751e-11 0)
(3 -1.00088e-10 0)
(3 1.91437e-09 0)
(3 2.24936e-08 0)
(3 1.67576e-06 0)
(3 1.52448e-06 0)
(2.99999 -1.36188e-06 0)
(2.99803 -0.00369879 0)
(2.96756 -0.0582787 0)
(2.7876 -0.316754 0)
(2.51773 -0.65806 0)
(3 -1.77443e-16 0)
(3 3.17587e-16 0)
(3 -8.78701e-16 0)
(3 1.92133e-16 0)
(3 1.54873e-15 0)
(3 1.19687e-15 0)
(3 3.49829e-16 0)
(3 -3.20907e-15 0)
(3 -6.00802e-15 0)
(3 -3.03929e-14 0)
(3 -2.70899e-13 0)
(3 -1.26811e-11 0)
(3 -1.62774e-11 0)
(3 -1.31999e-10 0)
(3 1.52088e-08 0)
(3 1.01358e-07 0)
(3 1.3801e-06 0)
(3 6.02962e-06 0)
(2.99994 -0.000111527 0)
(2.99504 -0.00851419 0)
(2.91758 -0.119712 0)
(2.75068 -0.391844 0)
(2.43701 -0.75417 0)
(2.35397 -0.859582 0)
(3 6.54145e-16 0)
(3 4.03229e-16 0)
(3 -2.74226e-16 0)
(3 -1.37363e-15 0)
(3 1.0441e-16 0)
(3 -3.63459e-15 0)
(3 -1.4402e-14 0)
(3 -8.87512e-14 0)
(3 -2.2521e-13 0)
(3 -2.81418e-12 0)
(3 -7.31411e-12 0)
(3 -4.87087e-11 0)
(3 -2.28637e-12 0)
(3 2.36447e-08 0)
(3 9.27583e-07 0)
(3 8.15961e-07 0)
(3 9.9622e-06 0)
(2.9994 -0.000911536 0)
(2.98368 -0.0271705 0)
(2.88391 -0.18242 0)
(2.56814 -0.588805 0)
(2.45511 -0.714877 0)
(2.36188 -0.807828 0)
(2.33505 -0.850346 0)
(3 2.63308e-15 0)
(3 1.27112e-15 0)
(3 2.25029e-15 0)
(3 -4.03096e-15 0)
(3 -5.80841e-14 0)
(3 -5.39452e-13 0)
(3 -6.6103e-13 0)
(3 -1.08855e-12 0)
(3 -1.0126e-11 0)
(3 -1.4284e-11 0)
(3 -1.21486e-10 0)
(3 1.50782e-08 0)
(3 3.13582e-08 0)
(3 2.92901e-06 0)
(3 4.97272e-06 0)
(2.99999 -1.55056e-05 0)
(2.99787 -0.00369087 0)
(2.94813 -0.0720828 0)
(2.75125 -0.334553 0)
(2.56338 -0.60453 0)
(2.31899 -0.875661 0)
(2.27978 -0.872117 0)
(2.30619 -0.846489 0)
(2.32149 -0.843883 0)
(3 7.68182e-16 0)
(3 4.45558e-15 0)
(3 -7.64869e-14 0)
(3 -1.99433e-12 0)
(3 -5.82241e-12 0)
(3 -5.3309e-12 0)
(3 -2.8572e-12 0)
(3 -2.44562e-12 0)
(3 -1.61131e-10 0)
(3 4.43281e-10 0)
(3 2.9949e-08 0)
(3 5.87955e-07 0)
(3 2.94351e-06 0)
(3.00001 2.33027e-05 0)
(2.99974 -0.000418354 0)
(2.98382 -0.0217501 0)
(2.88478 -0.151214 0)
(2.64289 -0.490395 0)
(2.35379 -0.828923 0)
(2.33348 -0.824635 0)
(2.31059 -0.839906 0)
(2.3081 -0.841011 0)
(2.3211 -0.837637 0)
(2.33449 -0.837779 0)
(3 4.07338e-16 0)
(3 -3.88479e-13 0)
(3 -2.81172e-11 0)
(3 -2.58292e-11 0)
(3 -3.07619e-11 0)
(3 4.35145e-11 0)
(3 6.11865e-10 0)
(3 4.52244e-10 0)
(3 2.54584e-08 0)
(3 3.58993e-07 0)
(3 7.00654e-06 0)
(3.00001 4.66149e-06 0)
(3.00001 4.73692e-05 0)
(2.99433 -0.00793005 0)
(2.95086 -0.0658325 0)
(2.72375 -0.354423 0)
(2.45529 -0.686466 0)
(2.40079 -0.771792 0)
(2.32723 -0.839788 0)
(2.30949 -0.854509 0)
(2.31288 -0.852573 0)
(2.32729 -0.845907 0)
(2.33742 -0.836859 0)
(2.34263 -0.840003 0)
(3 9.86589e-13 0)
(3 -2.52419e-11 0)
(3 -2.54569e-10 0)
(3 8.06547e-10 0)
(3 2.32072e-09 0)
(3 4.6022e-08 0)
(3 5.64443e-08 0)
(3 2.89715e-07 0)
(3 6.26933e-06 0)
(3 5.89948e-06 0)
(3.00003 7.45292e-05 0)
(2.99852 -0.00214113 0)
(2.97846 -0.0305122 0)
(2.7888 -0.25732 0)
(2.58061 -0.533433 0)
(2.40885 -0.765031 0)
(2.26839 -0.915903 0)
(2.27285 -0.90908 0)
(2.29919 -0.881816 0)
(2.31718 -0.865676 0)
(2.33466 -0.859342 0)
(2.34449 -0.852295 0)
(2.35118 -0.843472 0)
(2.35195 -0.841702 0)
(3 2.30195e-11 0)
(3 1.89851e-09 0)
(3 1.43264e-08 0)
(3 1.07647e-07 0)
(3 7.6782e-07 0)
(3 7.36555e-07 0)
(3 2.01854e-06 0)
(3 3.77907e-06 0)
(3.00004 9.08721e-05 0)
(2.99938 -0.000827324 0)
(2.98505 -0.0203021 0)
(2.85942 -0.180852 0)
(2.70746 -0.431836 0)
(2.36693 -0.809844 0)
(2.31341 -0.879543 0)
(2.305 -0.886949 0)
(2.30932 -0.882252 0)
(2.31382 -0.8775 0)
(2.33359 -0.864858 0)
(2.35262 -0.851493 0)
(2.35943 -0.849134 0)
(2.36081 -0.844489 0)
(2.35972 -0.843957 0)
(2.35429 -0.850326 0)
(3 7.94084e-11 0)
(3 1.61046e-07 0)
(3 1.68776e-06 0)
(3 1.6248e-06 0)
(3.00001 8.93011e-06 0)
(2.99999 -2.26947e-05 0)
(2.99999 -1.39342e-06 0)
(2.99943 -0.000884816 0)
(2.98767 -0.0202062 0)
(2.90963 -0.154128 0)
(2.75117 -0.424868 0)
(2.41799 -0.812663 0)
(2.35404 -0.873679 0)
(2.29374 -0.941432 0)
(2.29413 -0.940787 0)
(2.30695 -0.920994 0)
(2.32654 -0.887562 0)
(2.34313 -0.85607 0)
(2.35922 -0.840671 0)
(2.3638 -0.835576 0)
(2.36347 -0.837865 0)
(2.36131 -0.841278 0)
(2.35715 -0.844963 0)
(2.35261 -0.848226 0)
(3 4.09217e-07 0)
(3.00001 -8.83827e-06 0)
(3.00003 5.12199e-05 0)
(2.99986 -0.000116427 0)
(2.99863 -0.00188956 0)
(2.99152 -0.0120389 0)
(2.96377 -0.0565803 0)
(2.90609 -0.164507 0)
(2.75479 -0.427482 0)
(2.60805 -0.694309 0)
(2.44248 -0.847682 0)
(2.33778 -0.935493 0)
(2.28919 -0.913826 0)
(2.30153 -0.895812 0)
(2.31559 -0.887382 0)
(2.3401 -0.879789 0)
(2.35109 -0.85838 0)
(2.36165 -0.84154 0)
(2.36366 -0.840928 0)
(2.36149 -0.842799 0)
(2.35522 -0.84612 0)
(2.34846 -0.849792 0)
(2.3457 -0.851765 0)
(2.34359 -0.850773 0)
(2.99858 -0.00142911 0)
(2.9896 -0.0126888 0)
(2.96278 -0.0476867 0)
(2.90037 -0.132043 0)
(2.80442 -0.273918 0)
(2.68635 -0.458228 0)
(2.51915 -0.692804 0)
(2.39971 -0.893773 0)
(2.21589 -1.07757 0)
(2.17169 -1.09445 0)
(2.13669 -1.04171 0)
(2.18693 -1.00144 0)
(2.25819 -0.949137 0)
(2.29635 -0.899526 0)
(2.32882 -0.859214 0)
(2.34815 -0.838414 0)
(2.35341 -0.831605 0)
(2.35998 -0.833024 0)
(2.35866 -0.837511 0)
(2.35369 -0.845035 0)
(2.34693 -0.849564 0)
(2.34031 -0.852008 0)
(2.33752 -0.852988 0)
(2.33834 -0.851344 0)
(2.93246 -0.0236625 0)
(2.84562 -0.0723113 0)
(2.76113 -0.131496 0)
(2.66192 -0.249022 0)
(2.57934 -0.344798 0)
(2.50771 -0.438748 0)
(2.41588 -0.549923 0)
(2.35263 -0.628141 0)
(2.31202 -0.724033 0)
(2.25817 -0.794871 0)
(2.24849 -0.855083 0)
(2.28366 -0.884888 0)
(2.32829 -0.894761 0)
(2.3362 -0.891064 0)
(2.3437 -0.879676 0)
(2.34546 -0.869756 0)
(2.34558 -0.856396 0)
(2.34734 -0.84877 0)
(2.34819 -0.84911 0)