/*--------------------------------*- C++ -*----------------------------------*\
  =========                 |
  \\      /  F ield         | OpenFOAM: The Open Source CFD Toolbox
   \\    /   O peration     | Website:  https://openfoam.org
    \\  /    A nd           | Version:  7
     \\/     M anipulation  |
\*---------------------------------------------------------------------------*/
FoamFile
{
    version     2.0;
    format      ascii;
    class       volVectorField;
    location    "0.6";
    object      U;
}
// * * * * * * * * * * * * * * * * * * * * * * * * * * * * * * * * * * * * * //

dimensions      [0 1 -1 0 0 0 0];

internalField   nonuniform List<vector> 
73728
(
(3 -3.55529e-17 0)
(3 -1.35691e-16 0)
(3 -5.637e-16 0)
(3 -5.87253e-16 0)
(3 -6.71297e-16 0)
(3 -1.06435e-15 0)
(3 -1.66192e-15 0)
(3 -2.36628e-15 0)
(3 -1.88392e-15 0)
(3 -1.17871e-15 0)
(3 -5.4538e-16 0)
(3 1.49923e-16 0)
(3 2.18018e-16 0)
(3 4.47878e-16 0)
(3 -1.26248e-16 0)
(3 -9.67356e-16 0)
(3 -9.22074e-16 0)
(3 -8.30581e-16 0)
(3 -5.24267e-16 0)
(3 -2.14888e-16 0)
(3 -4.59034e-16 0)
(3 -2.31671e-17 0)
(3 5.7353e-16 0)
(3 6.6222e-16 0)
(3 8.02505e-16 0)
(3 6.58339e-16 0)
(3 1.19197e-15 0)
(3 1.4421e-15 0)
(3 1.07546e-15 0)
(3 6.96713e-17 0)
(3 -3.55799e-16 0)
(3 -1.12049e-15 0)
(3 -1.28942e-15 0)
(3 -1.28598e-15 0)
(3 -8.68963e-16 0)
(3 -1.82495e-16 0)
(3 -2.15679e-17 0)
(3 4.64422e-18 0)
(3 1.23283e-17 0)
(3 5.34633e-17 0)
(3 -6.46467e-18 0)
(3 4.79464e-17 0)
(3 1.91093e-16 0)
(3 1.04464e-16 0)
(3 -1.03248e-16 0)
(3 -2.25567e-16 0)
(3 -4.57794e-17 0)
(3 -3.69445e-16 0)
(3 -9.46733e-16 0)
(3 -2.41116e-15 0)
(3 -1.74734e-15 0)
(3 -1.46868e-15 0)
(3 -2.36347e-15 0)
(3 -2.8585e-15 0)
(3 -1.0593e-15 0)
(3 -9.40567e-16 0)
(3 -2.77995e-16 0)
(3 1.12579e-16 0)
(3 6.35438e-16 0)
(3 1.43438e-15 0)
(3 1.33818e-15 0)
(3 9.38211e-17 0)
(3 -1.67885e-16 0)
(3 3.05666e-16 0)
(3 -1.03915e-16 0)
(3 6.07547e-17 0)
(3 4.41787e-16 0)
(3 -2.5446e-16 0)
(3 -9.78848e-16 0)
(3 -2.7629e-16 0)
(3 -3.39376e-16 0)
(3 -3.03101e-17 0)
(3 1.46809e-16 0)
(3 2.94013e-16 0)
(3 1.41539e-16 0)
(3 -4.7418e-16 0)
(3 -5.38384e-16 0)
(3 -1.16258e-15 0)
(3 -1.74984e-15 0)
(3 -2.02729e-16 0)
(3 5.49471e-16 0)
(3 4.68979e-16 0)
(3 2.60172e-16 0)
(3 7.53077e-16 0)
(3 3.28503e-16 0)
(3 1.31851e-17 0)
(3 -2.51328e-16 0)
(3 -3.50266e-16 0)
(3 -7.05021e-16 0)
(3 -9.83238e-16 0)
(3 -7.64666e-16 0)
(3 -1.7708e-16 0)
(3 7.2961e-16 0)
(3 1.14289e-15 0)
(3 2.04689e-15 0)
(3 1.62681e-15 0)
(3 -1.41238e-16 0)
(3 -3.11657e-16 0)
(3 -3.5407e-16 0)
(3 -2.80044e-16 0)
(3 -6.20715e-16 0)
(3 -1.44963e-15 0)
(3 -3.48702e-15 0)
(3 -3.91584e-15 0)
(3 -2.71581e-15 0)
(3 -1.99264e-15 0)
(3 -7.73904e-16 0)
(3 -4.09886e-16 0)
(3 3.87696e-17 0)
(3 4.05091e-17 0)
(3 -9.70146e-16 0)
(3 -1.09626e-15 0)
(3 -1.06452e-15 0)
(3 -7.99726e-16 0)
(3 -5.22536e-16 0)
(3 -1.88209e-16 0)
(3 -1.79466e-16 0)
(3 5.40982e-16 0)
(3 1.07646e-15 0)
(3 1.6618e-15 0)
(3 2.09942e-15 0)
(3 2.64633e-15 0)
(3 3.30592e-15 0)
(3 2.95804e-15 0)
(3 1.78603e-15 0)
(3 3.10526e-16 0)
(3 -8.87091e-16 0)
(3 -1.81566e-15 0)
(3 -1.74668e-15 0)
(3 -1.60433e-15 0)
(3 -1.0816e-15 0)
(3 -5.23301e-16 0)
(3 -1.6434e-16 0)
(3 4.39989e-17 0)
(3 -7.10492e-17 0)
(3 -1.33978e-16 0)
(3 -1.39005e-16 0)
(3 7.28716e-17 0)
(3 1.61637e-16 0)
(3 5.32493e-16 0)
(3 6.15994e-16 0)
(3 7.00279e-16 0)
(3 8.60547e-16 0)
(3 9.5616e-16 0)
(3 2.2897e-16 0)
(3 -1.48177e-15 0)
(3 -1.4156e-15 0)
(3 -2.35775e-15 0)
(3 -3.03116e-15 0)
(3 -3.28999e-15 0)
(3 -3.11828e-15 0)
(3 -7.7967e-16 0)
(3 1.77635e-15 0)
(3 3.27426e-15 0)
(3 4.03527e-15 0)
(3 4.41397e-15 0)
(3 4.14345e-15 0)
(3 2.72461e-15 0)
(3 9.94216e-16 0)
(3 6.26839e-16 0)
(3 1.91513e-16 0)
(3 7.88854e-16 0)
(3 5.48551e-16 0)
(3 -1.13865e-15 0)
(3 -1.606e-15 0)
(3 4.95724e-16 0)
(3 1.79945e-15 0)
(3 2.63433e-15 0)
(3 3.62516e-15 0)
(3 3.2393e-15 0)
(3 2.5251e-15 0)
(3 1.2032e-15 0)
(3 -9.68573e-16 0)
(3 -3.51597e-15 0)
(3 -4.04629e-15 0)
(3 -1.49464e-15 0)
(3 2.67279e-16 0)
(3 1.21343e-16 0)
(3 2.84982e-16 0)
(3 4.38801e-16 0)
(3 2.12625e-16 0)
(3 -3.02314e-16 0)
(3 -1.40314e-16 0)
(3 6.89303e-16 0)
(3 3.41906e-16 0)
(3 -2.98585e-18 0)
(3 4.21269e-16 0)
(3 4.1724e-16 0)
(3 9.074e-16 0)
(3 2.65805e-15 0)
(3 3.66674e-15 0)
(3 3.88078e-15 0)
(3 1.25108e-17 0)
(3 -7.55216e-17 0)
(3 1.49913e-17 0)
(3 1.86133e-16 0)
(3 -6.1158e-16 0)
(3 -9.43697e-16 0)
(3 -9.73456e-16 0)
(3 -9.9345e-16 0)
(3 -6.98471e-16 0)
(3 -8.45762e-16 0)
(3 -8.69623e-16 0)
(3 -9.10639e-16 0)
(3 -7.49951e-16 0)
(3 -9.25859e-16 0)
(3 -1.62531e-15 0)
(3 -1.63036e-15 0)
(3 -1.41687e-15 0)
(3 -1.05254e-15 0)
(3 -5.12669e-16 0)
(3 -5.89288e-16 0)
(3 1.54859e-16 0)
(3 1.10615e-15 0)
(3 1.16025e-15 0)
(3 2.9549e-15 0)
(3 4.26528e-15 0)
(3 4.81687e-15 0)
(3 4.37706e-15 0)
(3 3.40404e-15 0)
(3 2.23974e-15 0)
(3 6.55618e-16 0)
(3 -6.91716e-16 0)
(3 -1.29808e-15 0)
(3 -1.99021e-15 0)
(3 -1.82129e-15 0)
(3 -1.54881e-15 0)
(3 -1.07245e-15 0)
(3 -6.17257e-16 0)
(3 5.42215e-17 0)
(3 2.10249e-16 0)
(3 2.75128e-16 0)
(3 4.72435e-16 0)
(3 4.68609e-16 0)
(3 4.95002e-16 0)
(3 4.03369e-16 0)
(3 8.41185e-16 0)
(3 1.47737e-15 0)
(3 1.40909e-15 0)
(3 1.54048e-15 0)
(3 1.09601e-15 0)
(3 -9.68169e-17 0)
(3 -1.21477e-15 0)
(3 -2.58964e-15 0)
(3 -3.68586e-15 0)
(3 -4.42356e-15 0)
(3 -4.8929e-15 0)
(3 -3.07282e-15 0)
(3 -9.68816e-16 0)
(3 6.89681e-17 0)
(3 5.1787e-16 0)
(3 1.07144e-16 0)
(3 4.17621e-16 0)
(3 -4.81765e-16 0)
(3 -5.95526e-16 0)
(3 -1.12488e-15 0)
(3 -1.02658e-15 0)
(3 -5.55016e-16 0)
(3 -8.67229e-16 0)
(3 -1.50042e-15 0)
(3 -1.01272e-15 0)
(3 3.73458e-16 0)
(3 1.44786e-15 0)
(3 1.88218e-15 0)
(3 2.14116e-15 0)
(3 1.57721e-15 0)
(3 1.31111e-15 0)
(3 6.57443e-16 0)
(3 -1.05633e-15 0)
(3 -1.91708e-15 0)
(3 -1.73926e-15 0)
(3 4.08056e-17 0)
(3 7.30061e-16 0)
(3 7.22359e-16 0)
(3 5.55794e-16 0)
(3 5.60002e-17 0)
(3 2.17467e-16 0)
(3 -1.42176e-16 0)
(3 -9.60488e-16 0)
(3 -1.39783e-15 0)
(3 -5.9198e-16 0)
(3 1.37973e-16 0)
(3 2.50258e-17 0)
(3 -1.5525e-15 0)
(3 -1.2601e-15 0)
(3 1.12334e-15 0)
(3 2.42508e-15 0)
(3 2.44909e-15 0)
(3 1.90612e-16 0)
(3 3.14271e-16 0)
(3 1.82953e-16 0)
(3 7.88995e-17 0)
(3 1.71983e-16 0)
(3 4.0867e-17 0)
(3 8.51533e-17 0)
(3 -6.41525e-17 0)
(3 -5.08309e-16 0)
(3 -6.53898e-16 0)
(3 -2.30157e-16 0)
(3 -1.47378e-16 0)
(3 -7.38893e-16 0)
(3 -9.72728e-16 0)
(3 -8.43964e-16 0)
(3 -3.31777e-16 0)
(3 1.7109e-16 0)
(3 1.12727e-16 0)
(3 -9.16128e-18 0)
(3 1.23743e-16 0)
(3 -2.58638e-16 0)
(3 1.42779e-15 0)
(3 1.56249e-15 0)
(3 1.97393e-15 0)
(3 2.5456e-15 0)
(3 2.39756e-15 0)
(3 2.3853e-15 0)
(3 2.08732e-15 0)
(3 1.57799e-15 0)
(3 1.1097e-15 0)
(3 -2.05128e-16 0)
(3 -8.06859e-16 0)
(3 -1.464e-15 0)
(3 -1.60216e-15 0)
(3 -1.19736e-15 0)
(3 -7.10794e-16 0)
(3 -1.53612e-16 0)
(3 1.66682e-16 0)
(3 6.94715e-16 0)
(3 1.42537e-15 0)
(3 1.42979e-15 0)
(3 1.05215e-15 0)
(3 6.1909e-16 0)
(3 1.91496e-16 0)
(3 7.59858e-16 0)
(3 1.24571e-15 0)
(3 1.18048e-15 0)
(3 6.93323e-16 0)
(3 3.44518e-16 0)
(3 -1.07061e-15 0)
(3 -2.67207e-15 0)
(3 -3.048e-15 0)
(3 -3.31479e-15 0)
(3 -3.92719e-15 0)
(3 -4.69818e-15 0)
(3 -4.4499e-15 0)
(3 -2.79203e-15 0)
(3 -3.40161e-15 0)
(3 -4.2853e-15 0)
(3 -2.19173e-15 0)
(3 -4.76518e-16 0)
(3 2.60098e-16 0)
(3 3.93805e-17 0)
(3 -6.06786e-16 0)
(3 -1.28591e-15 0)
(3 -1.75695e-15 0)
(3 -2.07507e-15 0)
(3 -1.87257e-15 0)
(3 -1.03437e-15 0)
(3 -1.05627e-15 0)
(3 -3.6691e-16 0)
(3 1.12513e-16 0)
(3 -4.3374e-16 0)
(3 -1.50707e-15 0)
(3 -1.21467e-15 0)
(3 -1.01198e-15 0)
(3 -6.52179e-16 0)
(3 -8.23893e-17 0)
(3 -1.90146e-16 0)
(3 4.3013e-16 0)
(3 8.08842e-16 0)
(3 5.99807e-16 0)
(3 2.99975e-17 0)
(3 1.4384e-16 0)
(3 2.19492e-16 0)
(3 9.78908e-16 0)
(3 1.2213e-15 0)
(3 7.17347e-16 0)
(3 5.71381e-16 0)
(3 5.92548e-16 0)
(3 -3.91054e-16 0)
(3 -9.3995e-16 0)
(3 -7.18557e-16 0)
(3 -4.68227e-16 0)
(3 1.72678e-15 0)
(3 2.26166e-15 0)
(3 2.22844e-17 0)
(3 3.63409e-16 0)
(3 4.88931e-16 0)
(3 1.23761e-16 0)
(3 8.22163e-17 0)
(3 -1.4518e-16 0)
(3 -2.66307e-17 0)
(3 2.88282e-16 0)
(3 -7.03556e-16 0)
(3 -7.71113e-16 0)
(3 -4.26226e-16 0)
(3 -3.92336e-16 0)
(3 -7.68675e-16 0)
(3 -8.31357e-16 0)
(3 -5.34841e-16 0)
(3 -3.64067e-16 0)
(3 -5.14526e-17 0)
(3 1.79579e-16 0)
(3 2.28734e-16 0)
(3 1.45238e-15 0)
(3 1.18639e-15 0)
(3 1.05493e-15 0)
(3 1.53252e-15 0)
(3 9.72041e-16 0)
(3 6.65718e-16 0)
(3 4.95821e-16 0)
(3 1.69168e-16 0)
(3 -2.51029e-16 0)
(3 1.12675e-16 0)
(3 2.85416e-16 0)
(3 5.2932e-17 0)
(3 -1.23941e-15 0)
(3 -1.52416e-15 0)
(3 -1.61749e-15 0)
(3 -1.14174e-15 0)
(3 1.50649e-17 0)
(3 8.77942e-16 0)
(3 1.33246e-15 0)
(3 1.44201e-15 0)
(3 1.78229e-15 0)
(3 2.02174e-15 0)
(3 1.5167e-15 0)
(3 7.26629e-16 0)
(3 4.87289e-16 0)
(3 -5.00811e-17 0)
(3 -6.21204e-16 0)
(3 -7.17303e-16 0)
(3 -1.01355e-15 0)
(3 -1.59891e-15 0)
(3 -2.39166e-15 0)
(3 -2.44604e-15 0)
(3 -2.6099e-15 0)
(3 -2.20314e-15 0)
(3 -2.39779e-15 0)
(3 -2.74462e-15 0)
(3 -2.87099e-15 0)
(3 -2.77132e-15 0)
(3 -3.09316e-15 0)
(3 -2.40844e-15 0)
(3 -1.39131e-15 0)
(3 -1.25518e-16 0)
(3 2.00779e-15 0)
(3 1.98826e-15 0)
(3 6.05385e-16 0)
(3 -2.80589e-16 0)
(3 -1.74344e-15 0)
(3 -2.89267e-15 0)
(3 -4.09325e-15 0)
(3 -4.21252e-15 0)
(3 -4.46789e-15 0)
(3 -4.74315e-15 0)
(3 -4.45371e-15 0)
(3 -4.64705e-15 0)
(3 -4.456e-15 0)
(3 -3.19763e-15 0)
(3 -2.75836e-15 0)
(3 -1.15735e-15 0)
(3 -2.02837e-16 0)
(3 -4.95613e-16 0)
(3 -6.27175e-16 0)
(3 -1.14274e-15 0)
(3 -8.41973e-16 0)
(3 1.02094e-16 0)
(3 1.12417e-15 0)
(3 9.57522e-16 0)
(3 1.84375e-15 0)
(3 2.6807e-15 0)
(3 3.51186e-15 0)
(3 3.65897e-15 0)
(3 2.35699e-15 0)
(3 1.17999e-15 0)
(3 -8.47244e-17 0)
(3 -1.36163e-15 0)
(3 -1.44864e-15 0)
(3 -5.85404e-17 0)
(3 2.09108e-15 0)
(3 8.48385e-19 0)
(3 2.21913e-16 0)
(3 3.96269e-16 0)
(3 1.27938e-16 0)
(3 -8.41079e-16 0)
(3 -5.70128e-16 0)
(3 -1.4128e-16 0)
(3 6.17119e-16 0)
(3 4.2949e-16 0)
(3 1.1714e-16 0)
(3 -5.86142e-16 0)
(3 -4.06582e-16 0)
(3 -1.70317e-16 0)
(3 1.18412e-16 0)
(3 2.19395e-16 0)
(3 5.48344e-16 0)
(3 3.89799e-16 0)
(3 1.28456e-17 0)
(3 2.6867e-16 0)
(3 9.84634e-16 0)
(3 5.78113e-16 0)
(3 -1.18056e-15 0)
(3 -2.29057e-15 0)
(3 -1.95637e-15 0)
(3 -1.94876e-15 0)
(3 -2.02349e-15 0)
(3 -2.45324e-15 0)
(3 -1.82665e-15 0)
(3 -1.60686e-15 0)
(3 -1.48587e-15 0)
(3 -1.11633e-15 0)
(3 -1.49312e-15 0)
(3 -1.95368e-15 0)
(3 -2.10757e-15 0)
(3 -1.82084e-15 0)
(3 -4.01408e-16 0)
(3 2.03264e-16 0)
(3 1.6025e-15 0)
(3 1.62989e-15 0)
(3 1.47934e-15 0)
(3 1.12561e-15 0)
(3 1.81092e-15 0)
(3 1.24961e-15 0)
(3 1.07506e-15 0)
(3 -9.18843e-18 0)
(3 -1.65279e-15 0)
(3 -1.70644e-15 0)
(3 -2.12673e-15 0)
(3 -2.10523e-15 0)
(3 -1.45012e-15 0)
(3 -1.23407e-15 0)
(3 -8.39259e-16 0)
(3 -5.82949e-16 0)
(3 -1.1788e-15 0)
(3 -1.78099e-15 0)
(3 -2.61887e-15 0)
(3 -3.42462e-15 0)
(3 -2.46383e-15 0)
(3 -1.73845e-15 0)
(3 -2.88472e-15 0)
(3 -1.75843e-15 0)
(3 -8.47257e-16 0)
(3 2.10824e-16 0)
(3 1.12197e-15 0)
(3 5.31215e-16 0)
(3 -1.14002e-15 0)
(3 -1.73532e-15 0)
(3 -2.79298e-15 0)
(3 -4.6864e-15 0)
(3 -4.96889e-15 0)
(3 -5.19413e-15 0)
(3 -4.77588e-15 0)
(3 -4.17213e-15 0)
(3 -2.639e-15 0)
(3 -1.97963e-15 0)
(3 -1.71176e-15 0)
(3 -2.03277e-15 0)
(3 -1.77992e-15 0)
(3 -8.02637e-16 0)
(3 7.01608e-16 0)
(3 1.49801e-15 0)
(3 1.71579e-15 0)
(3 1.8691e-15 0)
(3 2.01954e-15 0)
(3 3.05314e-15 0)
(3 3.52587e-15 0)
(3 3.87559e-15 0)
(3 4.20779e-15 0)
(3 4.6301e-15 0)
(3 2.03427e-15 0)
(3 6.24888e-16 0)
(3 -4.08955e-17 0)
(3 -6.1793e-16 0)
(3 -4.34673e-16 0)
(3 1.67141e-16 0)
(3 1.50922e-15 0)
(3 9.26478e-17 0)
(3 4.42042e-16 0)
(3 3.21619e-16 0)
(3 2.30377e-16 0)
(3 1.06808e-16 0)
(3 -9.34632e-17 0)
(3 -2.82442e-16 0)
(3 -4.60454e-16 0)
(3 -3.83102e-16 0)
(3 -1.85605e-16 0)
(3 -6.31116e-16 0)
(3 -1.20164e-16 0)
(3 7.71542e-16 0)
(3 1.33348e-15 0)
(3 1.59251e-15 0)
(3 1.2589e-15 0)
(3 7.14823e-16 0)
(3 3.20092e-16 0)
(3 -1.61066e-16 0)
(3 5.93755e-17 0)
(3 -6.23929e-16 0)
(3 -3.10951e-15 0)
(3 -4.19567e-15 0)
(3 -4.23476e-15 0)
(3 -3.83112e-15 0)
(3 -3.62423e-15 0)
(3 -3.09861e-15 0)
(3 -2.78013e-15 0)
(3 -2.81453e-15 0)
(3 -2.93568e-15 0)
(3 -2.31935e-15 0)
(3 -1.67145e-15 0)
(3 -1.7032e-15 0)
(3 -1.53195e-15 0)
(3 -2.20757e-15 0)
(3 -2.49711e-15 0)
(3 -2.33774e-15 0)
(3 -1.53914e-15 0)
(3 -2.99009e-16 0)
(3 -6.21516e-16 0)
(3 -8.91543e-16 0)
(3 -6.75694e-16 0)
(3 -7.88901e-16 0)
(3 -8.8025e-16 0)
(3 -6.99237e-16 0)
(3 -2.0453e-15 0)
(3 -2.76587e-15 0)
(3 -2.37321e-15 0)
(3 -1.58964e-15 0)
(3 -4.86094e-16 0)
(3 3.21866e-16 0)
(3 9.97044e-16 0)
(3 -1.02894e-17 0)
(3 -8.2612e-16 0)
(3 -1.38287e-15 0)
(3 -2.01526e-15 0)
(3 -2.72677e-15 0)
(3 -2.49649e-15 0)
(3 -2.44113e-15 0)
(3 -2.60712e-15 0)
(3 -2.36723e-15 0)
(3 -1.33782e-15 0)
(3 -6.40137e-16 0)
(3 -4.86531e-16 0)
(3 -4.70725e-16 0)
(3 -5.06037e-16 0)
(3 -9.53381e-16 0)
(3 -1.39325e-15 0)
(3 -1.80285e-15 0)
(3 -1.81584e-15 0)
(3 -1.93312e-15 0)
(3 -2.0417e-15 0)
(3 -9.64513e-16 0)
(3 -8.16655e-16 0)
(3 -9.02796e-16 0)
(3 -8.56724e-16 0)
(3 -8.41271e-16 0)
(3 -1.40126e-15 0)
(3 2.93715e-16 0)
(3 1.71176e-15 0)
(3 2.9007e-15 0)
(3 3.11129e-15 0)
(3 2.63811e-15 0)
(3 1.50195e-15 0)
(3 1.95211e-15 0)
(3 1.75978e-15 0)
(3 1.57828e-15 0)
(3 1.46639e-15 0)
(3 2.05043e-15 0)
(3 2.10749e-15 0)
(3 9.76167e-16 0)
(3 5.08374e-16 0)
(3 1.07081e-15 0)
(3 1.55095e-15 0)
(3 9.25404e-16 0)
(3 5.94668e-16 0)
(3 -2.69887e-17 0)
(3 -8.90178e-17 0)
(3 -3.60701e-16 0)
(3 -2.35936e-16 0)
(3 4.83033e-16 0)
(3 2.23323e-16 0)
(3 8.35756e-17 0)
(3 -8.91003e-16 0)
(3 -8.82761e-16 0)
(3 -6.19601e-16 0)
(3 -1.10141e-15 0)
(3 -1.18818e-15 0)
(3 -5.69921e-16 0)
(3 8.92216e-16 0)
(3 1.37485e-15 0)
(3 1.16632e-15 0)
(3 1.53374e-15 0)
(3 1.46213e-15 0)
(3 9.66988e-16 0)
(3 -3.89378e-16 0)
(3 -9.99556e-16 0)
(3 -7.56116e-16 0)
(3 -7.09145e-16 0)
(3 -1.49108e-15 0)
(3 -1.85832e-15 0)
(3 -1.51149e-15 0)
(3 -1.34829e-15 0)
(3 -2.73333e-15 0)
(3 -3.06342e-15 0)
(3 -3.0854e-15 0)
(3 -3.15751e-15 0)
(3 -2.28062e-15 0)
(3 -1.96942e-15 0)
(3 -1.58986e-15 0)
(3 -2.1458e-15 0)
(3 -3.21344e-15 0)
(3 -3.55701e-15 0)
(3 -3.80645e-15 0)
(3 -3.57429e-15 0)
(3 -2.60349e-15 0)
(3 -1.95148e-15 0)
(3 -2.42904e-15 0)
(3 -3.09562e-15 0)
(3 -3.52271e-15 0)
(3 -3.32773e-15 0)
(3 -3.21096e-15 0)
(3 -3.3346e-15 0)
(3 -2.8604e-15 0)
(3 -2.19214e-15 0)
(3 -6.91151e-16 0)
(3 4.12906e-16 0)
(3 8.70626e-16 0)
(3 -1.92884e-16 0)
(3 -1.03816e-15 0)
(3 -5.99457e-16 0)
(3 -4.65988e-16 0)
(3 -8.65306e-16 0)
(3 -1.88849e-15 0)
(3 -2.23991e-15 0)
(3 -1.77046e-15 0)
(3 -2.22986e-15 0)
(3 -1.65678e-15 0)
(3 -1.54538e-15 0)
(3 -1.31625e-15 0)
(3 -9.07857e-16 0)
(3 -1.88942e-16 0)
(3 -5.16383e-16 0)
(3 -1.66919e-15 0)
(3 -1.3067e-15 0)
(3 -2.90917e-16 0)
(3 -3.82297e-16 0)
(3 -1.72263e-15 0)
(3 -1.66311e-15 0)
(3 -1.12915e-15 0)
(3 -1.14323e-15 0)
(3 -1.00831e-15 0)
(3 4.76444e-16 0)
(3 1.1828e-15 0)
(3 6.68269e-16 0)
(3 -1.46618e-17 0)
(3 1.13568e-16 0)
(3 8.61356e-16 0)
(3 1.39909e-15 0)
(3 1.09778e-15 0)
(3 1.6304e-16 0)
(3 3.67361e-16 0)
(3 9.07461e-16 0)
(3 6.69441e-16 0)
(3 -3.14355e-17 0)
(3 1.55547e-16 0)
(3 -5.20158e-17 0)
(3 -2.01711e-16 0)
(3 4.24795e-16 0)
(3 8.89224e-16 0)
(3 2.45295e-16 0)
(3 -6.48866e-16 0)
(3 -3.02857e-17 0)
(3 -1.48938e-16 0)
(3 -1.12944e-16 0)
(3 5.29589e-16 0)
(3 5.71803e-16 0)
(3 1.13257e-16 0)
(3 9.62411e-17 0)
(3 5.40761e-16 0)
(3 1.19587e-15 0)
(3 8.13609e-16 0)
(3 2.8853e-16 0)
(3 3.50081e-16 0)
(3 -4.21607e-16 0)
(3 -6.924e-16 0)
(3 -3.71144e-16 0)
(3 1.11956e-16 0)
(3 8.66753e-16 0)
(3 1.1071e-15 0)
(3 3.84002e-16 0)
(3 -9.14807e-16 0)
(3 -7.58263e-16 0)
(3 4.69393e-16 0)
(3 1.53092e-15 0)
(3 1.47556e-15 0)
(3 5.75069e-16 0)
(3 -4.35468e-17 0)
(3 -4.14718e-16 0)
(3 -2.24447e-16 0)
(3 -3.72988e-16 0)
(3 -5.0292e-16 0)
(3 -9.05936e-16 0)
(3 -1.16797e-15 0)
(3 -9.11242e-16 0)
(3 -1.06514e-15 0)
(3 -1.03307e-15 0)
(3 -1.39877e-15 0)
(3 -2.16011e-15 0)
(3 -3.40856e-15 0)
(3 -3.42238e-15 0)
(3 -2.66801e-15 0)
(3 -1.75473e-15 0)
(3 -1.24379e-15 0)
(3 -9.74897e-16 0)
(3 -1.50879e-15 0)
(3 -1.85376e-15 0)
(3 -1.64161e-15 0)
(3 -1.54253e-15 0)
(3 -1.21734e-15 0)
(3 -1.03887e-15 0)
(3 -2.98838e-16 0)
(3 1.45919e-16 0)
(3 -1.2268e-15 0)
(3 -1.11035e-15 0)
(3 -1.00492e-15 0)
(3 -8.69744e-16 0)
(3 -1.32373e-16 0)
(3 5.8685e-17 0)
(3 1.43148e-16 0)
(3 -5.70522e-16 0)
(3 -1.01729e-15 0)
(3 -2.00267e-15 0)
(3 -2.83124e-15 0)
(3 -2.43476e-15 0)
(3 -1.43559e-15 0)
(3 -7.98202e-19 0)
(3 5.69032e-16 0)
(3 7.378e-16 0)
(3 6.21673e-16 0)
(3 8.6825e-16 0)
(3 1.05054e-15 0)
(3 7.68621e-16 0)
(3 -7.21154e-16 0)
(3 -1.3169e-15 0)
(3 -1.08782e-15 0)
(3 -1.8499e-16 0)
(3 -1.15114e-17 0)
(3 7.26556e-17 0)
(3 -8.64636e-16 0)
(3 -1.465e-15 0)
(3 -2.68139e-15 0)
(3 -3.03675e-15 0)
(3 -2.72436e-15 0)
(3 -1.57132e-15 0)
(3 -1.2604e-15 0)
(3 -1.18017e-15 0)
(3 -9.08667e-16 0)
(3 -9.60078e-16 0)
(3 -1.259e-15 0)
(3 -2.15143e-15 0)
(3 -2.71558e-15 0)
(3 -2.16257e-15 0)
(3 -5.69529e-16 0)
(3 7.45189e-18 0)
(3 -2.00302e-16 0)
(3 -1.57572e-15 0)
(3 -2.23759e-15 0)
(3 1.62887e-17 0)
(3 -2.35308e-16 0)
(3 4.6247e-17 0)
(3 2.6807e-16 0)
(3 -1.29772e-16 0)
(3 -1.86627e-16 0)
(3 -5.58688e-16 0)
(3 1.039e-15 0)
(3 8.0651e-16 0)
(3 3.46943e-16 0)
(3 1.38525e-16 0)
(3 -3.42742e-17 0)
(3 -5.20931e-17 0)
(3 -7.00705e-16 0)
(3 -1.13138e-15 0)
(3 -9.93608e-16 0)
(3 -9.86753e-16 0)
(3 -6.09878e-16 0)
(3 -9.08448e-16 0)
(3 -8.45805e-16 0)
(3 -6.87552e-16 0)
(3 -1.89732e-16 0)
(3 8.76726e-16 0)
(3 1.4757e-15 0)
(3 1.02422e-15 0)
(3 6.67633e-16 0)
(3 9.28532e-16 0)
(3 1.05501e-15 0)
(3 6.71599e-16 0)
(3 3.46395e-16 0)
(3 -7.03608e-16 0)
(3 -1.85635e-15 0)
(3 -1.32655e-15 0)
(3 -3.26209e-16 0)
(3 -1.02045e-16 0)
(3 -1.3184e-16 0)
(3 -5.32087e-16 0)
(3 -9.83177e-16 0)
(3 -1.80361e-15 0)
(3 -1.99364e-15 0)
(3 -9.97568e-16 0)
(3 2.51948e-16 0)
(3 5.11191e-16 0)
(3 5.11089e-16 0)
(3 3.14573e-16 0)
(3 2.36272e-16 0)
(3 5.96463e-17 0)
(3 1.1294e-16 0)
(3 1.86123e-16 0)
(3 -1.20402e-16 0)
(3 -1.57617e-15 0)
(3 -5.19535e-16 0)
(3 -2.65306e-16 0)
(3 -4.49039e-16 0)
(3 -1.13626e-15 0)
(3 -1.31665e-15 0)
(3 -3.4109e-16 0)
(3 -5.47989e-16 0)
(3 -1.11619e-15 0)
(3 -9.32015e-16 0)
(3 2.81008e-16 0)
(3 2.33633e-16 0)
(3 -9.08805e-17 0)
(3 -6.5609e-16 0)
(3 -9.31905e-16 0)
(3 -8.34531e-16 0)
(3 -2.15149e-16 0)
(3 1.12903e-16 0)
(3 4.51061e-16 0)
(3 4.21325e-16 0)
(3 -3.14452e-16 0)
(3 4.47829e-17 0)
(3 2.63183e-16 0)
(3 -3.08194e-16 0)
(3 -1.92043e-16 0)
(3 -1.03701e-15 0)
(3 -4.34949e-15 0)
(3 -4.38066e-15 0)
(3 -3.8428e-15 0)
(3 -3.18187e-15 0)
(3 -2.57537e-15 0)
(3 -2.51533e-15 0)
(3 -2.50915e-15 0)
(3 -2.50608e-15 0)
(3 -2.63261e-15 0)
(3 -3.10812e-15 0)
(3 -2.38268e-15 0)
(3 -1.31388e-15 0)
(3 -6.00008e-17 0)
(3 8.7602e-16 0)
(3 1.17275e-15 0)
(3 1.30188e-15 0)
(3 7.05964e-16 0)
(3 6.63527e-16 0)
(3 -5.22344e-16 0)
(3 -1.56469e-15 0)
(3 -6.41087e-17 0)
(3 1.64014e-17 0)
(3 2.79375e-16 0)
(3 4.90604e-16 0)
(3 4.81994e-16 0)
(3 1.08724e-16 0)
(3 -1.14441e-16 0)
(3 1.42211e-16 0)
(3 4.8554e-16 0)
(3 4.6622e-16 0)
(3 5.24152e-16 0)
(3 2.34646e-16 0)
(3 4.47977e-16 0)
(3 4.22298e-16 0)
(3 2.92833e-16 0)
(3 3.50493e-16 0)
(3 4.54126e-16 0)
(3 3.36151e-16 0)
(3 3.8663e-16 0)
(3 5.93377e-16 0)
(3 -4.31017e-16 0)
(3 -1.00436e-15 0)
(3 -5.42801e-16 0)
(3 2.53184e-16 0)
(3 3.76304e-16 0)
(3 -3.13597e-18 0)
(3 6.90229e-17 0)
(3 -2.41388e-16 0)
(3 -7.50612e-16 0)
(3 -1.28016e-15 0)
(3 -2.45634e-15 0)
(3 -3.13484e-15 0)
(3 -2.92316e-15 0)
(3 -1.39032e-15 0)
(3 -9.70261e-16 0)
(3 -7.13494e-16 0)
(3 -8.31536e-16 0)
(3 -8.76403e-16 0)
(3 -6.94314e-16 0)
(3 -7.46323e-16 0)
(3 -8.93601e-16 0)
(3 -4.66043e-16 0)
(3 1.46704e-16 0)
(3 9.98756e-17 0)
(3 -9.22966e-17 0)
(3 -3.74608e-16 0)
(3 -1.08818e-16 0)
(3 3.93601e-16 0)
(3 1.49526e-16 0)
(3 -8.32875e-16 0)
(3 -3.11233e-15 0)
(3 -3.12445e-15 0)
(3 -2.78428e-15 0)
(3 -2.27493e-15 0)
(3 -1.89319e-15 0)
(3 -1.48416e-15 0)
(3 -1.76625e-15 0)
(3 -2.82513e-15 0)
(3 -2.91238e-15 0)
(3 -1.24622e-15 0)
(3 -1.16402e-16 0)
(3 4.04756e-16 0)
(3 6.41426e-16 0)
(3 2.43172e-16 0)
(3 -9.68165e-16 0)
(3 -1.1243e-15 0)
(3 -9.3944e-16 0)
(3 2.26857e-16 0)
(3 -4.17935e-16 0)
(3 -6.8929e-16 0)
(3 -5.95647e-16 0)
(3 -1.26057e-16 0)
(3 6.82424e-17 0)
(3 4.86815e-16 0)
(3 3.76229e-17 0)
(3 -2.49166e-15 0)
(3 -3.01415e-15 0)
(3 -3.33469e-15 0)
(3 -3.53623e-15 0)
(3 -3.75433e-15 0)
(3 -3.15506e-15 0)
(3 -2.28432e-15 0)
(3 -2.83431e-15 0)
(3 -1.81717e-15 0)
(3 -6.00039e-16 0)
(3 -1.72578e-16 0)
(3 4.9179e-16 0)
(3 9.20782e-16 0)
(3 1.5414e-15 0)
(3 2.10216e-15 0)
(3 2.61228e-15 0)
(3 2.71983e-15 0)
(3 2.05555e-15 0)
(3 3.74705e-16 0)
(3 -6.49387e-16 0)
(3 -7.4187e-16 0)
(3 8.34862e-17 0)
(3 3.4197e-16 0)
(3 4.93219e-16 0)
(3 4.26022e-16 0)
(3 6.83578e-16 0)
(3 6.18818e-16 0)
(3 -3.36875e-16 0)
(3 -5.02707e-16 0)
(3 4.81499e-16 0)
(3 2.00096e-15 0)
(3 2.71449e-15 0)
(3 2.43983e-15 0)
(3 1.79254e-15 0)
(3 1.46446e-15 0)
(3 1.52227e-15 0)
(3 1.78141e-15 0)
(3 1.2367e-15 0)
(3 7.95499e-16 0)
(3 1.49795e-15 0)
(3 1.67504e-15 0)
(3 4.4112e-16 0)
(3 -4.40668e-16 0)
(3 -2.42431e-16 0)
(3 2.63836e-16 0)
(3 6.15638e-16 0)
(3 -3.01783e-16 0)
(3 -3.03779e-15 0)
(3 -3.12868e-15 0)
(3 -3.04489e-15 0)
(3 -2.64467e-15 0)
(3 -2.45516e-15 0)
(3 -2.37481e-15 0)
(3 -2.58715e-15 0)
(3 -1.94837e-15 0)
(3 -7.53155e-16 0)
(3 -4.06254e-16 0)
(3 -1.01274e-15 0)
(3 -1.2745e-15 0)
(3 -8.83346e-16 0)
(3 -1.00228e-15 0)
(3 -1.14373e-15 0)
(3 -8.19688e-16 0)
(3 -4.24794e-16 0)
(3 1.48656e-16 0)
(3 7.03483e-16 0)
(3 3.88544e-16 0)
(3 6.34678e-16 0)
(3 1.23927e-15 0)
(3 1.26264e-15 0)
(3 -1.68724e-15 0)
(3 -2.40957e-15 0)
(3 -2.95262e-15 0)
(3 -3.48468e-15 0)
(3 -3.42385e-15 0)
(3 -3.05429e-15 0)
(3 -2.89912e-15 0)
(3 -2.74488e-15 0)
(3 -2.71935e-15 0)
(3 -1.58883e-15 0)
(3 -8.3783e-17 0)
(3 4.86678e-17 0)
(3 -1.4651e-16 0)
(3 8.01181e-16 0)
(3 1.51491e-15 0)
(3 1.29851e-15 0)
(3 6.89072e-16 0)
(3 9.13656e-16 0)
(3 3.60559e-16 0)
(3 -1.05068e-15 0)
(3 -2.30271e-15 0)
(3 -2.03732e-15 0)
(3 -1.66579e-15 0)
(3 -1.86187e-15 0)
(3 -2.1202e-15 0)
(3 -2.39312e-15 0)
(3 -1.5855e-15 0)
(3 -1.20851e-15 0)
(3 -1.80458e-15 0)
(3 -2.4781e-15 0)
(3 -3.79304e-15 0)
(3 -4.46838e-15 0)
(3 -4.53817e-15 0)
(3 -4.10278e-15 0)
(3 -2.5354e-15 0)
(3 -1.26213e-15 0)
(3 -1.51469e-16 0)
(3 -4.45696e-16 0)
(3 -8.85072e-16 0)
(3 -4.77119e-16 0)
(3 8.04046e-16 0)
(3 2.6284e-15 0)
(3 2.63882e-15 0)
(3 2.60917e-15 0)
(3 1.53552e-15 0)
(3 -5.94317e-17 0)
(3 -2.8711e-16 0)
(3 -1.61833e-17 0)
(3 -2.52985e-16 0)
(3 -1.32812e-15 0)
(3 -2.10263e-15 0)
(3 -1.68448e-15 0)
(3 -3.56027e-16 0)
(3 1.65871e-18 0)
(3 -9.83738e-16 0)
(3 -8.5583e-16 0)
(3 -3.74623e-16 0)
(3 5.25702e-16 0)
(3 8.76489e-16 0)
(3 4.74982e-16 0)
(3 5.49826e-16 0)
(3 1.10929e-15 0)
(3 1.32144e-15 0)
(3 6.14447e-16 0)
(3 4.07994e-16 0)
(3 1.56875e-15 0)
(3 2.09786e-15 0)
(3 2.31397e-15 0)
(3 2.14874e-15 0)
(3 1.67765e-15 0)
(3 2.00082e-16 0)
(3 -2.19807e-15 0)
(3 -2.86109e-15 0)
(3 -2.88316e-15 0)
(3 -1.7375e-15 0)
(3 -1.42052e-15 0)
(3 -1.03614e-15 0)
(3 4.42311e-17 0)
(3 2.11097e-16 0)
(3 -4.74466e-16 0)
(3 -6.66008e-16 0)
(3 -1.00077e-16 0)
(3 -1.0157e-16 0)
(3 -3.62339e-16 0)
(3 -6.24812e-16 0)
(3 -8.11142e-16 0)
(3 -4.40882e-16 0)
(3 5.86257e-16 0)
(3 1.23085e-15 0)
(3 7.63613e-16 0)
(3 7.49116e-16 0)
(3 5.73501e-16 0)
(3 1.11232e-15 0)
(3 9.61205e-16 0)
(3 2.84105e-16 0)
(3 -2.02453e-16 0)
(3 -3.39307e-16 0)
(3 -5.31753e-16 0)
(3 -8.10334e-16 0)
(3 -1.17338e-15 0)
(3 -9.88656e-16 0)
(3 -2.07957e-15 0)
(3 -2.35197e-15 0)
(3 -1.36928e-15 0)
(3 -4.48936e-16 0)
(3 1.53275e-15 0)
(3 2.09966e-15 0)
(3 1.64882e-15 0)
(3 1.1089e-15 0)
(3 -2.54101e-17 0)
(3 -6.03427e-16 0)
(3 -8.11592e-16 0)
(3 -6.60377e-16 0)
(3 -1.43529e-15 0)
(3 -1.30333e-15 0)
(3 -1.02203e-15 0)
(3 -1.7773e-15 0)
(3 -2.56773e-15 0)
(3 -3.10626e-15 0)
(3 -3.94684e-15 0)
(3 -4.83084e-15 0)
(3 -3.38991e-15 0)
(3 -2.14189e-15 0)
(3 -2.0903e-15 0)
(3 -2.2957e-15 0)
(3 -2.24278e-15 0)
(3 -2.74013e-15 0)
(3 -3.32844e-15 0)
(3 -3.86784e-15 0)
(3 -3.37047e-15 0)
(3 -3.33986e-15 0)
(3 -3.33889e-15 0)
(3 -3.33799e-15 0)
(3 -3.48564e-15 0)
(3 -3.08377e-15 0)
(3 -2.59663e-15 0)
(3 -1.49557e-15 0)
(3 4.89675e-16 0)
(3 2.25683e-15 0)
(3 3.01795e-15 0)
(3 1.94877e-15 0)
(3 1.8407e-15 0)
(3 1.46483e-15 0)
(3 -1.98443e-17 0)
(3 7.24968e-17 0)
(3 -5.1475e-16 0)
(3 -8.8915e-16 0)
(3 -5.78828e-16 0)
(3 3.92386e-16 0)
(3 5.60588e-16 0)
(3 -4.66409e-16 0)
(3 -1.731e-15 0)
(3 -2.19006e-15 0)
(3 -1.60947e-15 0)
(3 -8.37472e-16 0)
(3 -8.6095e-16 0)
(3 -5.40695e-16 0)
(3 -7.45142e-16 0)
(3 -8.31945e-16 0)
(3 -8.3827e-16 0)
(3 -1.07151e-15 0)
(3 3.76969e-16 0)
(3 4.61887e-16 0)
(3 2.55238e-15 0)
(3 3.38227e-15 0)
(3 2.31934e-15 0)
(3 -1.00099e-16 0)
(3 -3.37847e-15 0)
(3 -3.64047e-15 0)
(3 -3.00037e-15 0)
(3 -2.97935e-15 0)
(3 -6.4275e-16 0)
(3 1.22512e-17 0)
(3 3.07024e-16 0)
(3 8.91609e-16 0)
(3 1.31843e-15 0)
(3 3.2788e-16 0)
(3 -5.40714e-16 0)
(3 -5.73579e-16 0)
(3 -1.75678e-17 0)
(3 5.60076e-16 0)
(3 1.36262e-15 0)
(3 2.45533e-15 0)
(3 2.09912e-15 0)
(3 2.4782e-15 0)
(3 2.27596e-15 0)
(3 6.92882e-16 0)
(3 9.61701e-17 0)
(3 1.97286e-16 0)
(3 -2.62826e-16 0)
(3 -5.28418e-16 0)
(3 -5.56409e-16 0)
(3 -1.23612e-15 0)
(3 -1.43086e-15 0)
(3 -2.19299e-15 0)
(3 -2.21114e-15 0)
(3 -1.66607e-15 0)
(3 -6.5942e-16 0)
(3 2.91817e-16 0)
(3 8.44495e-16 0)
(3 1.27794e-15 0)
(3 1.91742e-15 0)
(3 1.96283e-15 0)
(3 1.40036e-15 0)
(3 8.55324e-16 0)
(3 -4.88034e-16 0)
(3 -1.03089e-15 0)
(3 -1.19989e-15 0)
(3 -1.18725e-15 0)
(3 -1.32457e-15 0)
(3 4.0982e-16 0)
(3 1.63546e-15 0)
(3 3.20326e-16 0)
(3 -9.00672e-16 0)
(3 -2.25192e-15 0)
(3 -2.75757e-15 0)
(3 -2.87828e-15 0)
(3 -3.53416e-15 0)
(3 -3.36111e-15 0)
(3 -3.27467e-15 0)
(3 -2.91324e-15 0)
(3 -2.1459e-15 0)
(3 -1.10054e-15 0)
(3 -1.00838e-15 0)
(3 -1.06961e-15 0)
(3 -7.67001e-16 0)
(3 -2.74194e-17 0)
(3 -4.54938e-17 0)
(3 -3.15078e-16 0)
(3 5.10011e-16 0)
(3 1.07702e-15 0)
(3 5.49229e-16 0)
(3 2.48998e-16 0)
(3 3.55141e-16 0)
(3 1.70733e-15 0)
(3 2.5142e-15 0)
(3 3.22574e-15 0)
(3 3.43507e-15 0)
(3 3.3052e-15 0)
(3 -7.45999e-17 0)
(3 -8.2286e-17 0)
(3 1.76914e-16 0)
(3 5.79749e-16 0)
(3 6.34197e-16 0)
(3 9.93283e-16 0)
(3 8.55021e-16 0)
(3 3.56165e-16 0)
(3 -7.31542e-16 0)
(3 -1.75893e-15 0)
(3 -2.14007e-15 0)
(3 -2.11389e-15 0)
(3 -1.19836e-15 0)
(3 -5.27103e-16 0)
(3 -8.79202e-16 0)
(3 -1.54297e-15 0)
(3 -1.829e-15 0)
(3 -1.51543e-15 0)
(3 -1.46977e-15 0)
(3 -1.55818e-15 0)
(3 -1.26211e-15 0)
(3 -9.65568e-16 0)
(3 -1.54367e-15 0)
(3 -2.82677e-15 0)
(3 -3.8191e-15 0)
(3 -3.36012e-15 0)
(3 -2.44497e-15 0)
(3 -2.78026e-15 0)
(3 -1.65169e-15 0)
(3 3.46613e-17 0)
(3 5.12318e-16 0)
(3 1.04935e-15 0)
(3 9.89398e-16 0)
(3 2.03663e-16 0)
(3 -6.72806e-16 0)
(3 -5.75294e-16 0)
(3 2.81776e-16 0)
(3 5.4619e-16 0)
(3 8.9894e-16 0)
(3 8.47545e-16 0)
(3 1.15268e-16 0)
(3 -3.6708e-16 0)
(3 -2.53939e-16 0)
(3 -1.29809e-16 0)
(3 7.88722e-17 0)
(3 -7.84678e-16 0)
(3 -1.44419e-15 0)
(3 -8.82585e-16 0)
(3 -6.69546e-16 0)
(3 -6.30893e-16 0)
(3 -4.7125e-16 0)
(3 3.40332e-16 0)
(3 3.37231e-16 0)
(3 -7.35187e-17 0)
(3 1.16502e-15 0)
(3 2.16417e-15 0)
(3 2.49559e-15 0)
(3 1.35997e-15 0)
(3 6.08648e-16 0)
(3 5.622e-16 0)
(3 -6.85554e-19 0)
(3 3.51455e-16 0)
(3 8.37173e-16 0)
(3 6.69671e-16 0)
(3 1.55078e-16 0)
(3 -1.14533e-15 0)
(3 -9.33869e-16 0)
(3 -2.395e-16 0)
(3 1.21004e-15 0)
(3 5.23943e-16 0)
(3 -3.35966e-16 0)
(3 -7.41395e-16 0)
(3 -8.81093e-16 0)
(3 -1.26096e-15 0)
(3 -2.09021e-15 0)
(3 -2.86352e-15 0)
(3 -2.6938e-15 0)
(3 -7.07318e-16 0)
(3 -4.35532e-17 0)
(3 4.35939e-16 0)
(3 9.04623e-16 0)
(3 1.07261e-15 0)
(3 8.50287e-16 0)
(3 8.66396e-16 0)
(3 1.62395e-15 0)
(3 1.81391e-15 0)
(3 2.22222e-15 0)
(3 2.09929e-15 0)
(3 2.49977e-15 0)
(3 3.13717e-15 0)
(3 2.58813e-15 0)
(3 1.79565e-15 0)
(3 2.2731e-15 0)
(3 3.75593e-15 0)
(3 4.36672e-15 0)
(3 3.85287e-15 0)
(3 -1.04038e-18 0)
(3 -2.14143e-16 0)
(3 -1.17046e-16 0)
(3 5.58776e-16 0)
(3 1.24387e-15 0)
(3 1.38227e-15 0)
(3 2.01986e-15 0)
(3 2.46049e-15 0)
(3 1.72977e-15 0)
(3 1.80492e-16 0)
(3 -2.98633e-15 0)
(3 -2.80913e-15 0)
(3 -1.38701e-15 0)
(3 -1.33119e-15 0)
(3 -5.88219e-16 0)
(3 -7.81904e-16 0)
(3 -5.80057e-16 0)
(3 -9.81427e-16 0)
(3 -1.2774e-15 0)
(3 -1.80022e-15 0)
(3 -2.38784e-15 0)
(3 -2.76116e-15 0)
(3 -2.8913e-15 0)
(3 -3.12246e-15 0)
(3 -2.68668e-15 0)
(3 -2.1595e-15 0)
(3 -1.22245e-15 0)
(3 -9.26883e-16 0)
(3 -1.2239e-15 0)
(3 -9.35987e-16 0)
(3 -4.1236e-16 0)
(3 -4.35054e-16 0)
(3 -4.25883e-16 0)
(3 -4.77395e-16 0)
(3 -6.18567e-16 0)
(3 1.95349e-16 0)
(3 5.92157e-16 0)
(3 4.8935e-16 0)
(3 -2.29365e-16 0)
(3 -8.6056e-16 0)
(3 -1.16625e-15 0)
(3 -1.25401e-15 0)
(3 -1.13003e-15 0)
(3 -6.03564e-16 0)
(3 -2.36574e-16 0)
(3 -8.29067e-16 0)
(3 -3.04053e-16 0)
(3 5.99659e-16 0)
(3 5.90555e-16 0)
(3 7.91162e-16 0)
(3 1.08282e-15 0)
(3 2.81154e-15 0)
(3 3.26603e-15 0)
(3 3.34733e-15 0)
(3 3.21038e-15 0)
(3 2.58883e-15 0)
(3 2.94423e-15 0)
(3 3.8274e-15 0)
(3 4.01243e-15 0)
(3 3.28324e-15 0)
(3 1.106e-15 0)
(3 -3.52064e-16 0)
(3 -5.14329e-16 0)
(3 -1.04871e-15 0)
(3 -1.83943e-15 0)
(3 -2.22335e-15 0)
(3 -1.86127e-15 0)
(3 -1.54993e-15 0)
(3 -7.9224e-16 0)
(3 5.89139e-16 0)
(3 1.10754e-15 0)
(3 1.49852e-15 0)
(3 1.03269e-15 0)
(3 1.56292e-16 0)
(3 -7.19918e-16 0)
(3 -6.52628e-16 0)
(3 1.28667e-16 0)
(3 4.29678e-16 0)
(3 6.56008e-18 0)
(3 -3.50507e-16 0)
(3 1.2691e-16 0)
(3 1.07777e-15 0)
(3 1.30244e-15 0)
(3 1.59481e-15 0)
(3 2.5071e-15 0)
(3 2.6648e-15 0)
(3 1.50538e-15 0)
(3 7.26727e-16 0)
(3 4.51188e-16 0)
(3 1.45888e-15 0)
(3 2.42254e-15 0)
(3 3.1864e-15 0)
(3 3.74853e-15 0)
(3 3.86755e-15 0)
(3 4.47806e-15 0)
(3 3.8905e-15 0)
(3 7.68756e-17 0)
(3 3.06624e-17 0)
(3 4.72888e-16 0)
(3 1.01887e-15 0)
(3 1.96696e-15 0)
(3 2.11377e-15 0)
(3 1.23288e-15 0)
(3 1.20026e-15 0)
(3 1.05226e-15 0)
(3 9.06255e-17 0)
(3 -1.0942e-15 0)
(3 -1.60222e-15 0)
(3 -1.42698e-15 0)
(3 -1.47518e-15 0)
(3 -1.39601e-15 0)
(3 -3.46334e-16 0)
(3 1.53317e-16 0)
(3 -1.72973e-16 0)
(3 -2.61584e-16 0)
(3 -1.61376e-16 0)
(3 -3.97963e-16 0)
(3 -6.27067e-16 0)
(3 -4.27678e-16 0)
(3 -2.10148e-16 0)
(3 1.44661e-16 0)
(3 3.78024e-16 0)
(3 1.05178e-15 0)
(3 1.60913e-15 0)
(3 7.52617e-16 0)
(3 -8.20931e-16 0)
(3 -1.1668e-15 0)
(3 -9.41182e-16 0)
(3 -2.8413e-16 0)
(3 -1.25276e-16 0)
(3 -2.89963e-16 0)
(3 -1.07221e-16 0)
(3 -1.34998e-17 0)
(3 1.39422e-17 0)
(3 -2.53581e-16 0)
(3 -5.18433e-16 0)
(3 -8.32529e-16 0)
(3 -1.2677e-15 0)
(3 -1.50651e-15 0)
(3 -9.80665e-16 0)
(3 -1.07812e-16 0)
(3 1.6171e-16 0)
(3 4.15208e-16 0)
(3 1.13033e-15 0)
(3 1.45025e-15 0)
(3 2.71734e-15 0)
(3 3.02752e-15 0)