/*--------------------------------*- C++ -*----------------------------------*\
  =========                 |
  \\      /  F ield         | OpenFOAM: The Open Source CFD Toolbox
   \\    /   O peration     | Website:  https://openfoam.org
    \\  /    A nd           | Version:  7
     \\/     M anipulation  |
\*---------------------------------------------------------------------------*/
FoamFile
{
    version     2.0;
    format      ascii;
    class       volVectorField;
    location    "1.1";
    object      U;
}
// * * * * * * * * * * * * * * * * * * * * * * * * * * * * * * * * * * * * * //

dimensions      [0 1 -1 0 0 0 0];

internalField   nonuniform List<vector> 
73728
(
(3 -9.56913e-18 0)
(3 6.63794e-17 0)
(3 -4.47627e-17 0)
(3 -2.48231e-16 0)
(3 1.0053e-16 0)
(3 3.45219e-16 0)
(3 3.93673e-16 0)
(3 2.98215e-16 0)
(3 3.36741e-17 0)
(3 -2.89412e-16 0)
(3 -3.9186e-16 0)
(3 -9.88466e-17 0)
(3 2.30839e-16 0)
(3 1.66531e-16 0)
(3 -4.39449e-16 0)
(3 -5.75789e-16 0)
(3 -4.24008e-16 0)
(3 -9.53068e-17 0)
(3 1.50419e-16 0)
(3 5.93668e-17 0)
(3 2.09895e-16 0)
(3 2.39155e-16 0)
(3 4.86978e-17 0)
(3 -3.17962e-16 0)
(3 -1.04477e-15 0)
(3 -1.31763e-15 0)
(3 -3.27337e-17 0)
(3 7.86465e-16 0)
(3 7.41116e-16 0)
(3 6.42477e-16 0)
(3 4.92159e-16 0)
(3 4.62031e-16 0)
(3 8.57717e-17 0)
(3 -7.34633e-16 0)
(3 -8.73912e-16 0)
(3 -2.4563e-16 0)
(3 -9.99433e-17 0)
(3 -1.20713e-16 0)
(3 -4.03723e-16 0)
(3 9.61688e-17 0)
(3 1.16625e-15 0)
(3 6.09316e-16 0)
(3 -6.26795e-16 0)
(3 -6.77508e-16 0)
(3 -2.55278e-16 0)
(3 6.24837e-17 0)
(3 9.3662e-16 0)
(3 8.66883e-16 0)
(3 2.01241e-16 0)
(3 -9.16732e-16 0)
(3 -1.80654e-15 0)
(3 -6.16948e-16 0)
(3 -3.62729e-16 0)
(3 -1.1159e-16 0)
(3 5.56243e-16 0)
(3 4.91947e-16 0)
(3 3.30687e-16 0)
(3 4.88757e-17 0)
(3 -1.15854e-15 0)
(3 -1.35507e-15 0)
(3 -1.08117e-15 0)
(3 -2.36032e-16 0)
(3 -2.30247e-16 0)
(3 2.9349e-16 0)
(3 1.05475e-15 0)
(3 9.03445e-16 0)
(3 1.17975e-15 0)
(3 1.14987e-15 0)
(3 1.22645e-15 0)
(3 1.40487e-15 0)
(3 1.51506e-15 0)
(3 1.25686e-15 0)
(3 9.35011e-17 0)
(3 -3.81157e-16 0)
(3 -3.49316e-17 0)
(3 4.98303e-16 0)
(3 9.35893e-16 0)
(3 1.11295e-15 0)
(3 2.41596e-16 0)
(3 -1.51348e-15 0)
(3 -1.66782e-15 0)
(3 -9.05152e-16 0)
(3 -3.77808e-16 0)
(3 4.61832e-16 0)
(3 7.68586e-16 0)
(3 3.35388e-16 0)
(3 -3.812e-16 0)
(3 -1.79627e-16 0)
(3 9.90403e-16 0)
(3 -5.96042e-16 0)
(3 -1.70318e-15 0)
(3 -2.31076e-15 0)
(3 -1.25626e-15 0)
(3 -7.43048e-16 0)
(3 -4.78925e-16 0)
(3 2.62856e-16 0)
(3 4.90552e-18 0)
(3 -8.95724e-17 0)
(3 -5.00337e-17 0)
(3 -1.58446e-16 0)
(3 9.02137e-16 0)
(3 1.33448e-15 0)
(3 1.03944e-15 0)
(3 1.00054e-16 0)
(3 -8.2697e-16 0)
(3 -1.37892e-15 0)
(3 -1.13999e-15 0)
(3 -4.70962e-17 0)
(3 1.71883e-16 0)
(3 -4.2798e-17 0)
(3 -8.88505e-16 0)
(3 -1.56995e-15 0)
(3 -1.31981e-15 0)
(3 -8.47994e-16 0)
(3 -3.9964e-16 0)
(3 -2.52324e-16 0)
(3 -1.31269e-16 0)
(3 -1.73328e-16 0)
(3 -2.36988e-16 0)
(3 3.22361e-16 0)
(3 -4.98531e-16 0)
(3 -7.03597e-16 0)
(3 -2.79839e-16 0)
(3 1.61017e-16 0)
(3 -1.37717e-16 0)
(3 3.39998e-16 0)
(3 2.0838e-16 0)
(3 1.7133e-16 0)
(3 -1.26031e-16 0)
(3 -1.26275e-15 0)
(3 -1.25853e-15 0)
(3 -4.68173e-16 0)
(3 -4.02243e-16 0)
(3 -1.59546e-16 0)
(3 2.30821e-16 0)
(3 1.24806e-15 0)
(3 2.19512e-15 0)
(3 1.08689e-15 0)
(3 -1.94742e-15 0)
(3 -1.93522e-15 0)
(3 -1.31323e-15 0)
(3 -2.47563e-16 0)
(3 2.04066e-15 0)
(3 3.05875e-15 0)
(3 1.07306e-15 0)
(3 -2.47123e-15 0)
(3 -3.06975e-15 0)
(3 -2.19048e-15 0)
(3 -1.20674e-15 0)
(3 -2.26216e-16 0)
(3 4.44945e-16 0)
(3 6.20339e-16 0)
(3 1.14521e-15 0)
(3 9.78505e-18 0)
(3 -1.90874e-15 0)
(3 -2.53834e-15 0)
(3 -2.25266e-15 0)
(3 -4.23886e-16 0)
(3 1.79052e-15 0)
(3 2.4338e-15 0)
(3 2.72205e-15 0)
(3 2.36624e-15 0)
(3 1.95386e-15 0)
(3 1.14167e-15 0)
(3 7.02624e-16 0)
(3 7.43024e-16 0)
(3 6.01617e-16 0)
(3 4.21561e-16 0)
(3 -3.01547e-16 0)
(3 -5.15203e-17 0)
(3 1.76886e-15 0)
(3 2.28012e-15 0)
(3 2.41528e-15 0)
(3 2.65311e-15 0)
(3 -1.13937e-15 0)
(3 -3.14938e-15 0)
(3 -2.8925e-15 0)
(3 -2.13399e-15 0)
(3 -2.70857e-16 0)
(3 1.51783e-15 0)
(3 1.05056e-15 0)
(3 -4.16475e-16 0)
(3 -1.96187e-15 0)
(3 -2.47712e-15 0)
(3 -2.9197e-16 0)
(3 -1.35612e-15 0)
(3 -4.3006e-15 0)
(3 -4.62554e-15 0)
(3 -2.7074e-15 0)
(3 -9.47948e-16 0)
(3 5.80346e-16 0)
(3 1.36561e-15 0)
(3 -1.20883e-17 0)
(3 4.9192e-17 0)
(3 8.11127e-16 0)
(3 8.96596e-16 0)
(3 5.12138e-16 0)
(3 7.8191e-16 0)
(3 1.17667e-15 0)
(3 5.23394e-16 0)
(3 -6.97065e-16 0)
(3 -1.03904e-15 0)
(3 -7.30344e-16 0)
(3 1.0006e-15 0)
(3 1.41008e-15 0)
(3 9.92934e-16 0)
(3 7.51129e-16 0)
(3 1.03269e-17 0)
(3 -9.98505e-16 0)
(3 -1.03144e-15 0)
(3 -6.32462e-16 0)
(3 -5.32327e-16 0)
(3 -1.09856e-15 0)
(3 -1.39794e-15 0)
(3 -1.38365e-15 0)
(3 -9.19736e-16 0)
(3 -4.69737e-16 0)
(3 1.30876e-16 0)
(3 -2.76459e-16 0)
(3 -8.52954e-16 0)
(3 -7.87291e-16 0)
(3 -7.52775e-16 0)
(3 -4.65023e-16 0)
(3 -4.97889e-16 0)
(3 -4.54922e-16 0)
(3 1.90787e-17 0)
(3 4.50285e-16 0)
(3 6.08423e-16 0)
(3 6.3792e-16 0)
(3 1.00594e-15 0)
(3 1.80816e-15 0)
(3 1.68056e-15 0)
(3 1.06375e-15 0)
(3 5.86105e-16 0)
(3 -8.22595e-16 0)
(3 -9.651e-16 0)
(3 -8.26005e-16 0)
(3 -5.26834e-16 0)
(3 -4.88217e-16 0)
(3 -6.54078e-16 0)
(3 -1.58016e-15 0)
(3 -2.00993e-15 0)
(3 -2.32438e-15 0)
(3 -2.9538e-15 0)
(3 -3.34806e-15 0)
(3 -3.05668e-15 0)
(3 -2.35608e-15 0)
(3 -1.52164e-15 0)
(3 -7.9327e-16 0)
(3 -1.67458e-15 0)
(3 -1.86239e-15 0)
(3 -1.94954e-15 0)
(3 -1.8825e-15 0)
(3 -9.1925e-16 0)
(3 1.0038e-15 0)
(3 1.02326e-15 0)
(3 1.72504e-15 0)
(3 2.26833e-15 0)
(3 1.15618e-15 0)
(3 5.22533e-16 0)
(3 6.03121e-16 0)
(3 6.31401e-17 0)
(3 -3.16639e-18 0)
(3 3.23451e-16 0)
(3 1.84676e-15 0)
(3 2.49918e-15 0)
(3 2.56739e-15 0)
(3 2.34068e-15 0)
(3 2.24482e-15 0)
(3 2.34106e-15 0)
(3 -8.97957e-16 0)
(3 -2.14275e-15 0)
(3 -1.98702e-15 0)
(3 -1.68835e-15 0)
(3 -8.67025e-16 0)
(3 -3.87357e-16 0)
(3 -3.69656e-16 0)
(3 -4.73666e-16 0)
(3 -9.93642e-16 0)
(3 -9.33745e-16 0)
(3 -1.02182e-15 0)
(3 -1.61713e-15 0)
(3 -3.20556e-15 0)
(3 -3.28713e-15 0)
(3 -3.30808e-15 0)
(3 -1.77769e-15 0)
(3 1.35336e-15 0)
(3 2.60581e-15 0)
(3 3.35419e-17 0)
(3 -1.51899e-16 0)
(3 3.76382e-16 0)
(3 7.2516e-16 0)
(3 -1.31608e-16 0)
(3 -7.66213e-16 0)
(3 1.81453e-16 0)
(3 1.05635e-15 0)
(3 1.02057e-15 0)
(3 7.82412e-16 0)
(3 1.12862e-15 0)
(3 2.35896e-15 0)
(3 2.88605e-15 0)
(3 2.79996e-15 0)
(3 1.83923e-15 0)
(3 3.88955e-16 0)
(3 -1.10205e-15 0)
(3 -5.54507e-16 0)
(3 3.2862e-16 0)
(3 4.13172e-16 0)
(3 -1.41518e-15 0)
(3 -2.17934e-15 0)
(3 -2.53047e-15 0)
(3 -3.34392e-15 0)
(3 -2.54236e-15 0)
(3 -1.23464e-15 0)
(3 -7.49715e-16 0)
(3 -8.48079e-16 0)
(3 -1.23208e-15 0)
(3 -1.25774e-15 0)
(3 -1.21841e-15 0)
(3 -1.23304e-15 0)
(3 -1.25826e-15 0)
(3 -1.26102e-15 0)
(3 -3.34932e-16 0)
(3 -1.31961e-15 0)
(3 -2.94661e-15 0)
(3 -2.62318e-15 0)
(3 -2.61889e-15 0)
(3 -2.10003e-15 0)
(3 -8.91867e-16 0)
(3 -5.49257e-16 0)
(3 -8.21855e-16 0)
(3 -1.10835e-15 0)
(3 -1.444e-15 0)
(3 -1.00191e-15 0)
(3 -2.56809e-15 0)
(3 -3.20243e-15 0)
(3 -2.13772e-15 0)
(3 -1.99642e-15 0)
(3 -2.51602e-15 0)
(3 -2.51871e-15 0)
(3 -2.51975e-15 0)
(3 -3.03165e-15 0)
(3 -2.58479e-15 0)
(3 -1.88961e-15 0)
(3 -1.63165e-15 0)
(3 -1.50828e-15 0)
(3 -1.08364e-15 0)
(3 -8.32087e-16 0)
(3 -1.16695e-15 0)
(3 4.99608e-17 0)
(3 7.90439e-16 0)
(3 5.33286e-16 0)
(3 8.83218e-16 0)
(3 2.42577e-15 0)
(3 2.81861e-15 0)
(3 2.66951e-15 0)
(3 2.87513e-15 0)
(3 2.19066e-15 0)
(3 2.2073e-15 0)
(3 3.01854e-15 0)
(3 3.52853e-15 0)
(3 2.80405e-15 0)
(3 1.26948e-15 0)
(3 4.98806e-16 0)
(3 8.8701e-16 0)
(3 7.66598e-16 0)
(3 -3.91046e-16 0)
(3 -6.85106e-16 0)
(3 -2.45603e-16 0)
(3 3.74618e-17 0)
(3 -2.03714e-16 0)
(3 -5.78559e-16 0)
(3 1.98463e-16 0)
(3 3.87199e-16 0)
(3 3.15954e-17 0)
(3 -6.06437e-16 0)
(3 -1.05085e-15 0)
(3 -2.24584e-15 0)
(3 -2.13702e-15 0)
(3 -2.03319e-15 0)
(3 -1.62394e-15 0)
(3 -9.06934e-16 0)
(3 -4.19399e-17 0)
(3 3.70774e-16 0)
(3 5.5204e-17 0)
(3 -1.76537e-16 0)
(3 -2.36279e-16 0)
(3 1.45555e-16 0)
(3 -1.12975e-16 0)
(3 -6.49333e-16 0)
(3 -8.00817e-16 0)
(3 2.56629e-16 0)
(3 2.72451e-16 0)
(3 4.17675e-16 0)
(3 2.31565e-16 0)
(3 3.16587e-16 0)
(3 1.67792e-16 0)
(3 -1.30235e-16 0)
(3 -2.12209e-16 0)
(3 -3.26845e-16 0)
(3 -8.56252e-17 0)
(3 6.3176e-16 0)
(3 4.95258e-16 0)
(3 -1.57151e-16 0)
(3 -1.87517e-16 0)
(3 -1.60185e-15 0)
(3 -2.53005e-15 0)
(3 -3.05973e-15 0)
(3 -2.99381e-15 0)
(3 -2.76196e-15 0)
(3 -1.7029e-15 0)
(3 -1.12111e-15 0)
(3 -7.84742e-16 0)
(3 -1.46986e-16 0)
(3 2.05056e-16 0)
(3 -3.08514e-16 0)
(3 -8.27051e-16 0)
(3 -1.34854e-15 0)
(3 -1.71899e-15 0)
(3 -1.99171e-15 0)
(3 -1.74455e-15 0)
(3 -2.22843e-15 0)
(3 -2.42438e-15 0)
(3 -1.08877e-15 0)
(3 2.56922e-16 0)
(3 2.5843e-16 0)
(3 -2.96255e-16 0)
(3 1.62031e-16 0)
(3 1.23669e-15 0)
(3 1.69748e-15 0)
(3 1.72133e-15 0)
(3 9.70727e-16 0)
(3 4.41727e-16 0)
(3 8.03321e-16 0)
(3 -1.48367e-15 0)
(3 -2.14076e-15 0)
(3 -2.52611e-15 0)
(3 -2.87798e-15 0)
(3 -2.51916e-15 0)
(3 -1.39147e-15 0)
(3 -5.16695e-16 0)
(3 6.13862e-16 0)
(3 9.34754e-16 0)
(3 1.00276e-15 0)
(3 1.17678e-15 0)
(3 8.45454e-16 0)
(3 9.81945e-16 0)
(3 1.03784e-15 0)
(3 1.81941e-15 0)
(3 2.98782e-15 0)
(3 3.41566e-15 0)
(3 2.37965e-15 0)
(3 1.47942e-15 0)
(3 1.86144e-15 0)
(3 2.48922e-15 0)
(3 3.24448e-15 0)
(3 3.01501e-15 0)
(3 2.22257e-15 0)
(3 1.94262e-15 0)
(3 2.17676e-15 0)
(3 1.77064e-15 0)
(3 1.16489e-15 0)
(3 5.45084e-16 0)
(3 9.85647e-16 0)
(3 1.3555e-15 0)
(3 1.84845e-15 0)
(3 4.86615e-16 0)
(3 6.90483e-18 0)
(3 -5.3084e-16 0)
(3 -2.08482e-16 0)
(3 -5.23214e-16 0)
(3 -4.02555e-16 0)
(3 -1.01109e-15 0)
(3 -1.33021e-15 0)
(3 -1.08061e-15 0)
(3 -6.41191e-16 0)
(3 -3.40044e-16 0)
(3 -8.06729e-16 0)
(3 -5.29002e-16 0)
(3 -8.12014e-17 0)
(3 -1.48749e-16 0)
(3 4.54987e-16 0)
(3 1.54681e-16 0)
(3 -3.78047e-16 0)
(3 -1.71878e-16 0)
(3 -1.48432e-16 0)
(3 -3.00254e-16 0)
(3 -5.72807e-17 0)
(3 2.56487e-16 0)
(3 -1.91565e-16 0)
(3 -7.7347e-16 0)
(3 -1.67909e-15 0)
(3 -2.09346e-15 0)
(3 -3.59318e-15 0)
(3 -3.30873e-15 0)
(3 -1.6849e-15 0)
(3 -2.15235e-16 0)
(3 1.05413e-15 0)
(3 1.68927e-15 0)
(3 4.50993e-16 0)
(3 -4.20701e-16 0)
(3 -6.09002e-16 0)
(3 -1.16306e-15 0)
(3 -1.15891e-15 0)
(3 -1.1837e-15 0)
(3 -7.31616e-16 0)
(3 -4.16391e-16 0)
(3 3.30151e-16 0)
(3 7.22999e-16 0)
(3 4.06676e-16 0)
(3 -1.15804e-16 0)
(3 8.6948e-17 0)
(3 2.22837e-17 0)
(3 2.62128e-16 0)
(3 -7.11266e-16 0)
(3 -1.71626e-15 0)
(3 -1.37219e-15 0)
(3 -1.64285e-15 0)
(3 -1.68206e-15 0)
(3 -1.51485e-15 0)
(3 -1.79454e-15 0)
(3 -2.27498e-15 0)
(3 -1.95547e-15 0)
(3 -5.8522e-16 0)
(3 -4.8996e-16 0)
(3 -3.46636e-16 0)
(3 4.7785e-16 0)
(3 5.25076e-16 0)
(3 -7.90882e-16 0)
(3 -1.17289e-15 0)
(3 -1.28903e-15 0)
(3 -8.97514e-16 0)
(3 -1.37814e-15 0)
(3 -1.6139e-15 0)
(3 -5.84465e-16 0)
(3 8.25772e-16 0)
(3 1.5341e-15 0)
(3 2.54521e-15 0)
(3 3.41429e-15 0)
(3 3.84477e-15 0)
(3 3.06692e-15 0)
(3 1.57112e-15 0)
(3 1.52249e-15 0)
(3 2.03855e-15 0)
(3 3.11514e-15 0)
(3 3.21859e-15 0)
(3 2.88889e-15 0)
(3 2.16532e-15 0)
(3 1.54583e-15 0)
(3 1.48397e-15 0)
(3 1.57409e-15 0)
(3 1.4744e-15 0)
(3 8.77816e-16 0)
(3 -1.03652e-17 0)
(3 -2.5987e-16 0)
(3 -8.45571e-17 0)
(3 -2.06073e-16 0)
(3 -4.24125e-16 0)
(3 -2.99846e-16 0)
(3 1.45264e-15 0)
(3 2.67191e-15 0)
(3 3.3494e-15 0)
(3 1.61247e-15 0)
(3 6.3148e-16 0)
(3 -5.79483e-16 0)
(3 -7.17148e-16 0)
(3 -5.56118e-16 0)
(3 -1.94337e-16 0)
(3 5.38337e-16 0)
(3 1.39234e-15 0)
(3 1.29349e-15 0)
(3 1.70171e-15 0)
(3 1.88551e-15 0)
(3 1.57571e-15 0)
(3 2.66611e-16 0)
(3 -5.21678e-16 0)
(3 1.1743e-16 0)
(3 1.659e-16 0)
(3 1.46743e-17 0)
(3 -5.92855e-16 0)
(3 2.26417e-16 0)
(3 1.76901e-16 0)
(3 -1.6282e-16 0)
(3 -3.67278e-16 0)
(3 -2.17267e-16 0)
(3 -2.22232e-16 0)
(3 -3.07663e-16 0)
(3 -1.21795e-15 0)
(3 -1.87444e-15 0)
(3 -1.73933e-15 0)
(3 -1.57199e-15 0)
(3 -1.434e-15 0)
(3 -1.35322e-15 0)
(3 -2.93316e-16 0)
(3 4.62888e-16 0)
(3 1.52348e-15 0)
(3 1.25174e-15 0)
(3 1.05368e-15 0)
(3 6.32723e-16 0)
(3 7.61529e-16 0)
(3 1.45918e-15 0)
(3 2.54894e-15 0)
(3 2.14541e-15 0)
(3 1.16325e-15 0)
(3 5.00805e-16 0)
(3 -1.15442e-15 0)
(3 -2.07451e-15 0)
(3 -1.40265e-15 0)
(3 -3.529e-16 0)
(3 -2.10828e-16 0)
(3 -2.98011e-16 0)
(3 -4.96805e-16 0)
(3 -7.50041e-16 0)
(3 -6.06718e-16 0)
(3 -9.21927e-16 0)
(3 -1.36619e-15 0)
(3 -4.06703e-15 0)
(3 -4.56124e-15 0)
(3 -3.9015e-15 0)
(3 -2.34734e-15 0)
(3 -1.87107e-15 0)
(3 -1.30457e-15 0)
(3 -1.46983e-15 0)
(3 -1.96923e-15 0)
(3 -9.55158e-16 0)
(3 -2.48308e-15 0)
(3 -9.26106e-16 0)
(3 -4.39845e-16 0)
(3 5.31277e-16 0)
(3 8.23369e-16 0)
(3 1.02933e-15 0)
(3 2.03635e-15 0)
(3 2.1447e-15 0)
(3 2.08428e-15 0)
(3 2.78873e-15 0)
(3 2.28459e-15 0)
(3 1.51459e-15 0)
(3 1.86768e-15 0)
(3 2.83412e-15 0)
(3 2.95336e-15 0)
(3 2.95831e-15 0)
(3 2.90542e-15 0)
(3 2.38633e-15 0)
(3 8.9702e-16 0)
(3 8.59874e-16 0)
(3 1.18502e-15 0)
(3 1.06069e-15 0)
(3 8.0468e-16 0)
(3 6.41433e-16 0)
(3 4.17477e-16 0)
(3 -6.56341e-16 0)
(3 -9.34769e-16 0)
(3 -7.36999e-16 0)
(3 6.31963e-17 0)
(3 6.97573e-16 0)
(3 2.4687e-15 0)
(3 5.33625e-15 0)
(3 5.36136e-15 0)
(3 4.67758e-15 0)
(3 4.45253e-15 0)
(3 1.91327e-15 0)
(3 -8.85738e-16 0)
(3 -1.68596e-15 0)
(3 -2.05503e-15 0)
(3 -1.24031e-15 0)
(3 5.47923e-16 0)
(3 3.08406e-15 0)
(3 3.77815e-15 0)
(3 3.53316e-15 0)
(3 2.85112e-15 0)
(3 -1.92601e-16 0)
(3 -2.50324e-15 0)
(3 5.25303e-17 0)
(3 9.05715e-18 0)
(3 -1.32781e-17 0)
(3 1.58967e-16 0)
(3 3.34703e-16 0)
(3 1.94266e-16 0)
(3 -2.32141e-16 0)
(3 -9.3906e-16 0)
(3 -8.40087e-16 0)
(3 2.59681e-16 0)
(3 2.71702e-16 0)
(3 -5.82166e-16 0)
(3 -8.28498e-16 0)
(3 -7.44281e-16 0)
(3 -4.76691e-16 0)
(3 -8.36498e-16 0)
(3 -8.12259e-16 0)
(3 -3.52466e-16 0)
(3 1.24407e-16 0)
(3 1.02857e-15 0)
(3 2.10077e-15 0)
(3 2.57995e-15 0)
(3 2.80582e-15 0)
(3 2.4323e-15 0)
(3 1.8643e-15 0)
(3 2.50974e-15 0)
(3 2.50655e-15 0)
(3 1.2452e-15 0)
(3 -9.5881e-16 0)
(3 -1.3883e-15 0)
(3 -1.53814e-15 0)
(3 -4.92457e-16 0)
(3 4.09739e-16 0)
(3 8.94475e-16 0)
(3 -3.83306e-17 0)
(3 -3.96186e-16 0)
(3 -3.61845e-16 0)
(3 9.37652e-17 0)
(3 8.43393e-16 0)
(3 1.12876e-15 0)
(3 -1.68963e-15 0)
(3 -3.57319e-15 0)
(3 -3.47485e-15 0)
(3 -2.98042e-15 0)
(3 -2.23803e-15 0)
(3 -1.86339e-15 0)
(3 -1.22255e-15 0)
(3 -2.2341e-15 0)
(3 -2.89788e-15 0)
(3 -2.65168e-15 0)
(3 1.82438e-16 0)
(3 1.15163e-15 0)
(3 2.03108e-15 0)
(3 1.97979e-15 0)
(3 1.05856e-15 0)
(3 1.26187e-15 0)
(3 7.60634e-16 0)
(3 4.92902e-16 0)
(3 -2.75487e-16 0)
(3 -6.29401e-16 0)
(3 -1.41584e-16 0)
(3 3.07196e-15 0)
(3 4.53079e-15 0)
(3 4.11025e-15 0)
(3 3.57614e-15 0)
(3 2.98647e-15 0)
(3 1.67265e-15 0)
(3 3.93401e-16 0)
(3 3.6069e-16 0)
(3 4.52118e-16 0)
(3 6.75543e-16 0)
(3 8.78257e-16 0)
(3 4.09645e-16 0)
(3 6.33869e-16 0)
(3 3.04058e-16 0)
(3 -4.26457e-16 0)
(3 -7.27141e-16 0)
(3 -1.76555e-16 0)
(3 -1.71223e-16 0)
(3 1.11765e-15 0)
(3 2.47916e-15 0)
(3 2.22673e-15 0)
(3 2.14237e-15 0)
(3 2.17955e-15 0)
(3 1.9296e-15 0)
(3 1.26796e-15 0)
(3 3.11339e-16 0)
(3 -2.4801e-16 0)
(3 -1.43472e-16 0)
(3 8.22451e-16 0)
(3 2.32009e-15 0)
(3 3.69896e-15 0)
(3 3.14692e-15 0)
(3 -7.11426e-17 0)
(3 -2.5331e-15 0)
(3 -3.10582e-15 0)
(3 -3.09545e-16 0)
(3 -1.92079e-16 0)
(3 1.48479e-16 0)
(3 6.46545e-16 0)
(3 8.89182e-16 0)
(3 5.35471e-16 0)
(3 1.12029e-16 0)
(3 -3.42493e-16 0)
(3 -2.06091e-16 0)
(3 1.7056e-16 0)
(3 1.79529e-16 0)
(3 -3.79576e-16 0)
(3 -5.37743e-16 0)
(3 -1.00926e-15 0)
(3 -9.53137e-16 0)
(3 -8.2822e-16 0)
(3 -4.11917e-16 0)
(3 -1.38741e-16 0)
(3 4.09294e-16 0)
(3 1.13408e-16 0)
(3 7.09412e-17 0)
(3 -2.76113e-16 0)
(3 1.64088e-16 0)
(3 8.35466e-16 0)
(3 7.27386e-16 0)
(3 3.10025e-16 0)
(3 1.1581e-16 0)
(3 4.53306e-17 0)
(3 -2.74581e-17 0)
(3 -1.63892e-16 0)
(3 -1.78193e-16 0)
(3 1.15224e-15 0)
(3 1.49442e-15 0)
(3 1.78652e-15 0)
(3 1.01466e-15 0)
(3 2.01482e-16 0)
(3 3.25006e-16 0)
(3 1.76532e-15 0)
(3 2.54295e-15 0)
(3 1.97736e-15 0)
(3 1.14225e-15 0)
(3 -5.3157e-16 0)
(3 -1.72224e-15 0)
(3 -2.48958e-15 0)
(3 -2.54639e-15 0)
(3 -2.58478e-15 0)
(3 -2.31728e-15 0)
(3 -2.4503e-15 0)
(3 -2.39462e-15 0)
(3 -2.07191e-16 0)
(3 9.23246e-16 0)
(3 1.19726e-15 0)
(3 9.01029e-16 0)
(3 6.89765e-16 0)
(3 1.01432e-15 0)
(3 -1.37246e-16 0)
(3 -6.53963e-16 0)
(3 -3.07545e-16 0)
(3 2.68505e-16 0)
(3 1.11847e-15 0)
(3 1.8406e-15 0)
(3 3.68391e-15 0)
(3 4.33113e-15 0)
(3 4.16805e-15 0)
(3 2.17553e-15 0)
(3 6.2138e-16 0)
(3 6.97766e-16 0)
(3 1.56606e-15 0)
(3 1.9643e-15 0)
(3 1.01873e-15 0)
(3 4.65807e-16 0)
(3 -2.56796e-16 0)
(3 -3.92043e-16 0)
(3 -6.77373e-16 0)
(3 -4.09369e-16 0)
(3 -5.15841e-16 0)
(3 -7.51094e-16 0)
(3 -2.24653e-15 0)
(3 -3.75629e-15 0)
(3 -2.90041e-15 0)
(3 -8.92969e-16 0)
(3 3.40459e-18 0)
(3 7.79336e-16 0)
(3 9.10006e-16 0)
(3 1.63496e-15 0)
(3 2.3101e-15 0)
(3 1.78721e-15 0)
(3 1.15402e-15 0)
(3 7.86075e-16 0)
(3 1.0903e-16 0)
(3 -1.29269e-16 0)
(3 1.21742e-15 0)
(3 1.09243e-15 0)
(3 -2.21652e-15 0)
(3 -3.54637e-15 0)
(3 -4.25439e-15 0)
(3 -5.56469e-17 0)
(3 -2.26967e-16 0)
(3 1.86139e-16 0)
(3 6.74848e-16 0)
(3 5.35842e-16 0)
(3 8.4276e-17 0)
(3 -1.1706e-16 0)
(3 -3.15493e-16 0)
(3 -6.40848e-16 0)
(3 -1.16625e-15 0)
(3 -1.14382e-15 0)
(3 -9.70846e-16 0)
(3 -6.84677e-16 0)
(3 -4.8296e-16 0)
(3 -5.94854e-16 0)
(3 -6.65564e-16 0)
(3 4.95175e-17 0)
(3 4.24759e-16 0)
(3 4.09322e-17 0)
(3 -3.9838e-16 0)
(3 -1.46171e-15 0)
(3 -2.34659e-15 0)
(3 -1.8011e-15 0)
(3 -9.88508e-16 0)
(3 -1.28592e-17 0)
(3 1.79498e-16 0)
(3 -6.21977e-16 0)
(3 -9.20288e-16 0)
(3 -1.1138e-16 0)
(3 3.18232e-16 0)
(3 1.02867e-15 0)
(3 1.15569e-15 0)
(3 8.93362e-16 0)
(3 -1.4028e-16 0)
(3 1.18683e-15 0)
(3 2.73534e-15 0)
(3 2.71901e-15 0)
(3 2.5702e-15 0)
(3 1.77105e-15 0)
(3 1.54212e-15 0)
(3 1.06914e-15 0)
(3 7.75867e-16 0)
(3 -4.40691e-16 0)
(3 -1.77456e-15 0)
(3 -1.61774e-15 0)
(3 -1.71493e-15 0)
(3 -2.60431e-15 0)
(3 -2.06847e-15 0)
(3 -9.2639e-16 0)
(3 3.53155e-16 0)
(3 1.11486e-15 0)
(3 1.0637e-15 0)
(3 8.20065e-16 0)
(3 1.05019e-15 0)
(3 1.29181e-15 0)
(3 5.16015e-16 0)
(3 -4.2765e-16 0)
(3 -1.33718e-15 0)
(3 -1.4738e-15 0)
(3 -6.19655e-16 0)
(3 2.41625e-16 0)
(3 3.94654e-16 0)
(3 1.96549e-15 0)
(3 2.54694e-15 0)
(3 1.8353e-15 0)
(3 1.47924e-15 0)
(3 5.62297e-16 0)
(3 2.23928e-16 0)
(3 7.8066e-16 0)
(3 4.23746e-16 0)
(3 -5.41133e-16 0)
(3 -4.07021e-16 0)
(3 2.33624e-16 0)
(3 -1.12982e-15 0)
(3 -1.11322e-15 0)
(3 -1.17673e-15 0)
(3 -2.20969e-15 0)
(3 -2.66901e-15 0)
(3 -1.99995e-15 0)
(3 -9.52196e-16 0)
(3 -6.13002e-16 0)
(3 -1.94123e-16 0)
(3 2.37406e-16 0)
(3 7.32488e-17 0)
(3 -2.45503e-16 0)
(3 -2.07076e-16 0)
(3 1.99015e-16 0)
(3 3.00565e-16 0)
(3 -2.04105e-16 0)
(3 -1.70942e-15 0)
(3 -2.50147e-15 0)
(3 -2.75612e-15 0)
(3 -2.01401e-15 0)
(3 -2.29867e-15 0)
(3 -3.37248e-15 0)
(3 -3.30633e-15 0)
(3 1.59636e-16 0)
(3 1.0827e-16 0)
(3 4.14112e-16 0)
(3 7.22748e-16 0)
(3 6.8627e-16 0)
(3 1.26267e-16 0)
(3 -7.70329e-16 0)
(3 -1.90657e-16 0)
(3 -1.87508e-16 0)
(3 -5.45998e-16 0)
(3 -8.99679e-16 0)
(3 -7.49988e-16 0)
(3 -3.30042e-16 0)
(3 2.09055e-16 0)
(3 2.46125e-16 0)
(3 -1.77319e-16 0)
(3 -2.03589e-16 0)
(3 -7.52735e-17 0)
(3 -2.09437e-16 0)
(3 -6.91634e-16 0)
(3 -1.64017e-15 0)
(3 -1.60088e-15 0)
(3 -1.88593e-15 0)
(3 -1.94513e-15 0)
(3 -1.61764e-15 0)
(3 -1.35235e-15 0)
(3 -2.64321e-16 0)
(3 6.5768e-16 0)
(3 1.14148e-15 0)
(3 7.84461e-16 0)
(3 4.65228e-16 0)
(3 -6.14702e-17 0)
(3 -1.34396e-15 0)
(3 -1.2805e-15 0)
(3 -7.60914e-17 0)
(3 3.08657e-15 0)
(3 2.89419e-15 0)
(3 2.4493e-15 0)
(3 1.97342e-15 0)
(3 2.37465e-15 0)
(3 3.17584e-15 0)
(3 2.80499e-15 0)
(3 3.58168e-16 0)
(3 -1.58079e-15 0)
(3 -2.14279e-15 0)
(3 -1.53793e-15 0)
(3 -1.73058e-15 0)
(3 -1.6543e-15 0)
(3 -1.37864e-15 0)
(3 -5.46579e-16 0)
(3 -2.17503e-17 0)
(3 1.51937e-15 0)
(3 1.62443e-15 0)
(3 1.52689e-15 0)
(3 8.48828e-16 0)
(3 4.97501e-16 0)
(3 1.33642e-15 0)
(3 -3.02134e-16 0)
(3 -3.30417e-15 0)
(3 -2.38914e-15 0)
(3 -1.00347e-15 0)
(3 7.9824e-16 0)
(3 1.39171e-15 0)
(3 1.53988e-15 0)
(3 1.12958e-15 0)
(3 -3.78145e-17 0)
(3 -7.68535e-17 0)
(3 -1.742e-16 0)
(3 -1.63404e-16 0)
(3 -1.11167e-15 0)
(3 -1.49385e-15 0)
(3 -1.78888e-15 0)
(3 -2.63067e-15 0)
(3 -3.15661e-15 0)
(3 -3.56227e-15 0)
(3 -3.07294e-15 0)
(3 -2.95112e-15 0)
(3 -2.35592e-15 0)
(3 -2.00843e-16 0)
(3 2.04757e-16 0)
(3 -1.17069e-17 0)
(3 -8.12207e-16 0)
(3 -1.17942e-15 0)
(3 -4.15405e-16 0)
(3 6.17406e-17 0)
(3 1.94249e-15 0)
(3 2.64143e-15 0)
(3 2.49337e-15 0)
(3 6.51585e-16 0)
(3 -1.04669e-15 0)
(3 -1.33411e-15 0)
(3 -2.03013e-15 0)
(3 -2.68794e-15 0)
(3 -2.90157e-15 0)
(3 -1.57713e-15 0)
(3 -1.33502e-15 0)
(3 1.64877e-17 0)
(3 4.14789e-16 0)
(3 3.77713e-16 0)
(3 1.98455e-16 0)
(3 2.65263e-16 0)
(3 4.26997e-16 0)
(3 2.65138e-16 0)
(3 3.71696e-16 0)
(3 1.95311e-17 0)
(3 2.40822e-17 0)
(3 -1.41317e-16 0)
(3 4.78261e-17 0)
(3 1.80571e-16 0)
(3 1.13902e-18 0)
(3 -3.26724e-17 0)
(3 5.54132e-16 0)
(3 7.18242e-16 0)
(3 1.56772e-16 0)
(3 -2.89564e-16 0)
(3 -2.5904e-17 0)
(3 7.30511e-16 0)
(3 1.06676e-15 0)
(3 -3.56027e-17 0)
(3 -9.02241e-16 0)
(3 -1.17703e-15 0)
(3 -1.3365e-15 0)
(3 -1.05965e-15 0)
(3 -6.98754e-16 0)
(3 -9.91727e-17 0)
(3 -1.37711e-16 0)
(3 -3.01904e-16 0)
(3 -6.80478e-16 0)
(3 -9.64106e-16 0)
(3 5.37188e-17 0)
(3 1.24421e-15 0)
(3 2.64829e-15 0)
(3 2.88197e-15 0)
(3 1.68268e-15 0)
(3 1.82689e-15 0)
(3 2.17786e-15 0)
(3 3.18664e-15 0)
(3 3.47601e-15 0)
(3 1.80793e-15 0)
(3 -6.82434e-16 0)
(3 -2.42682e-15 0)
(3 -1.21278e-15 0)
(3 -5.45509e-16 0)
(3 -2.74874e-16 0)
(3 -9.6547e-16 0)
(3 -2.04226e-17 0)
(3 9.7647e-16 0)
(3 1.15588e-15 0)
(3 1.15987e-15 0)
(3 1.14528e-15 0)
(3 3.17048e-16 0)
(3 -2.41526e-16 0)
(3 1.09441e-16 0)
(3 1.13293e-16 0)
(3 -1.16007e-15 0)
(3 -3.21214e-15 0)
(3 -1.22126e-15 0)
(3 7.6126e-16 0)
(3 6.83935e-16 0)
(3 3.83755e-16 0)
(3 -4.9871e-16 0)
(3 -2.59283e-15 0)
(3 -2.47279e-15 0)
(3 -1.21075e-15 0)
(3 -8.27556e-16 0)
(3 -8.98957e-16 0)
(3 -2.79111e-15 0)
(3 -4.03136e-15 0)
(3 -4.52555e-15 0)
(3 -4.84732e-15 0)
(3 -5.47916e-15 0)
(3 -4.5886e-15 0)
(3 -2.2574e-15 0)
(3 -7.08915e-16 0)
(3 -4.27379e-17 0)
(3 -1.67966e-16 0)
(3 -4.07168e-16 0)
(3 3.1426e-16 0)
(3 9.23525e-16 0)
(3 7.3034e-16 0)
(3 8.91804e-16 0)
(3 1.73738e-15 0)
(3 2.06358e-15 0)
(3 2.21644e-15 0)
(3 2.34424e-15 0)
(3 1.7116e-15 0)
(3 1.90969e-16 0)
(3 -9.41588e-16 0)
(3 -1.79499e-15 0)
(3 -1.61715e-15 0)
(3 -1.15041e-15 0)
(3 -8.79589e-16 0)
(3 2.95865e-17 0)
(3 -8.4574e-17 0)
(3 -4.57872e-16 0)
(3 -7.46677e-16 0)
(3 -6.96639e-16 0)
(3 -1.45433e-16 0)
(3 -1.5329e-18 0)
(3 -1.40006e-16 0)
(3 -5.56333e-16 0)
(3 -1.80389e-16 0)
(3 7.45689e-16 0)
(3 1.48118e-15 0)
(3 1.1633e-15 0)
(3 9.85176e-16 0)
(3 6.43836e-16 0)
(3 1.41092e-15 0)
(3 1.73425e-15 0)
(3 6.78524e-16 0)
(3 6.88139e-16 0)
(3 1.07268e-15 0)
(3 1.12222e-15 0)
(3 1.35434e-15 0)
(3 8.42935e-16 0)
(3 -4.21946e-16 0)
(3 -7.16748e-16 0)
(3 -1.1817e-15 0)
(3 -2.33627e-15 0)
(3 -2.52814e-15 0)
(3 -2.37364e-15 0)
(3 -2.36758e-15 0)
(3 -1.98707e-15 0)
(3 -7.25093e-16 0)
(3 9.86917e-16 0)
(3 1.45378e-15 0)
(3 1.34161e-15 0)
(3 1.81809e-15 0)
(3 3.96415e-15 0)
(3 4.52956e-15 0)
(3 4.83932e-15 0)
(3 4.35942e-15 0)
(3 3.55439e-15 0)
(3 4.07827e-15 0)
(3 1.93744e-15 0)
(3 9.76325e-16 0)
(3 5.18068e-16 0)
(3 -7.79442e-16 0)
(3 -1.17673e-15 0)
(3 -2.23298e-15 0)
(3 -7.83847e-16 0)
(3 1.95054e-15 0)
(3 3.54239e-15 0)
(3 3.52605e-15 0)
(3 2.94163e-15 0)
(3 2.33337e-15 0)
(3 1.75437e-15 0)
(3 8.39183e-16 0)
(3 -1.88971e-16 0)
(3 4.42028e-16 0)
(3 1.0528e-15 0)
(3 6.19861e-16 0)
(3 -4.93401e-16 0)
(3 -9.50623e-16 0)
(3 -1.47222e-15 0)
(3 -1.59982e-15 0)
(3 -2.13185e-15 0)
(3 -2.95389e-15 0)
(3 -3.18336e-15 0)
(3 -2.33033e-15 0)
(3 -1.32747e-15 0)
(3 -1.02845e-15 0)
(3 -2.2138e-15 0)
(3 -3.57608e-15 0)
(3 -3.60665e-15 0)
(3 -3.63291e-15 0)
(3 -3.44376e-15 0)
(3 -2.84463e-15 0)
(3 -2.11481e-15 0)
(3 -6.52164e-16 0)
(3 1.99442e-16 0)
(3 6.94959e-17 0)
(3 1.00696e-16 0)
(3 1.53852e-15 0)
(3 3.29472e-15 0)
(3 3.92934e-15 0)
(3 3.23238e-15 0)
(3 2.96776e-15 0)
(3 2.23715e-15 0)
(3 2.65318e-15 0)
(3 2.31834e-15 0)
(3 3.64659e-16 0)
(3 -9.22204e-16 0)
(3 -1.44267e-15 0)
(3 -5.90438e-16 0)
(3 -1.1782e-15 0)
(3 -1.02727e-15 0)
(3 -3.61768e-16 0)
(3 -7.17119e-17 0)
(3 -7.33553e-16 0)
(3 -1.17141e-15 0)
(3 -1.76571e-15 0)
(3 -2.07453e-15 0)
(3 -1.65714e-15 0)
(3 -8.55068e-16 0)
(3 5.00938e-17 0)
(3 7.87896e-16 0)
(3 9.3492e-16 0)
(3 9.20332e-16 0)
(3 1.02351e-15 0)
(3 1.20798e-15 0)
(3 1.6895e-15 0)
(3 1.81319e-15 0)
(3 1.68464e-15 0)
(3 1.1171e-15 0)
(3 1.16979e-15 0)
(3 1.70699e-15 0)
(3 1.13886e-15 0)
(3 1.96792e-16 0)
(3 1.30366e-16 0)
(3 2.24882e-16 0)
(3 -2.50217e-16 0)
(3 -9.58844e-16 0)
(3 -1.81679e-15 0)
(3 -2.19592e-15 0)
(3 -1.90365e-15 0)
(3 -1.67796e-15 0)
(3 -1.48551e-15 0)
(3 -1.54913e-15 0)
(3 -5.18118e-16 0)
(3 6.04193e-16 0)
(3 1.06931e-15 0)
(3 1.14179e-15 0)
(3 1.71498e-15 0)
(3 2.0935e-15 0)
(3 3.96064e-15 0)
(3 4.31957e-15 0)
(3 3.97019e-15 0)
(3 4.06848e-15 0)
(3 3.03172e-15 0)
(3 2.19022e-15 0)
(3 2.4883e-15 0)
(3 2.16513e-15 0)
(3 1.82619e-15 0)
(3 3.31456e-16 0)
(3 -1.83925e-16 0)
(3 7.15464e-16 0)
(3 2.78042e-15 0)
(3 3.88686e-15 0)
(3 3.88476e-15 0)
(3 3.44114e-15 0)
(3 2.32045e-15 0)
(3 1.00127e-15 0)
(3 -2.16556e-16 0)
(3 -9.02156e-16 0)
(3 6.48867e-17 0)
(3 1.27707e-15 0)
(3 1.96657e-15 0)
(3 9.22916e-16 0)
(3 -7.81631e-16 0)
(3 -1.78854e-15 0)
(3 -1.57975e-15 0)
(3 -2.03796e-15 0)
(3 -2.28535e-15 0)
(3 -2.55044e-15 0)
(3 -2.13103e-15 0)
(3 -1.54835e-15 0)
(3 -5.92309e-16 0)
(3 -6.86015e-16 0)
(3 -7.42421e-16 0)
(3 -8.33634e-16 0)
(3 -5.9898e-16 0)
(3 -1.39162e-16 0)
(3 7.57361e-16 0)
(3 9.84762e-16 0)
(3 1.21897e-15 0)
(3 2.07681e-15 0)
(3 2.3523e-15 0)
(3 2.18187e-15 0)
(3 1.75484e-15 0)
(3 2.67141e-15 0)
(3 3.92864e-15 0)
(3 4.3683e-15 0)
(3 2.86226e-15 0)
(3 2.42115e-15 0)
(3 1.74366e-15 0)
(3 1.50628e-15 0)
(3 2.64308e-16 0)
(3 -8.64792e-16 0)
(3 -8.07727e-16 0)
(3 -4.72763e-16 0)
(3 1.39778e-16 0)
(3 3.3578e-16 0)
(3 1.79304e-16 0)
(3 -1.34149e-17 0)
(3 -3.34614e-16 0)
(3 -6.94645e-16 0)
(3 -4.31111e-16 0)
(3 -8.93508e-16 0)
(3 -8.78371e-16 0)
(3 -3.02592e-16 0)
(3 6.15234e-17 0)
(3 9.88339e-17 0)
(3 9.09675e-18 0)
(3 -5.84729e-17 0)
(3 -2.29327e-17 0)
(3 6.6644e-16 0)
(3 1.22489e-15 0)
(3 1.44167e-15 0)
(3 1.34853e-15 0)
(3 1.07075e-15 0)
(3 9.64923e-16 0)
(3 6.70008e-16 0)
(3 3.54702e-16 0)
(3 2.10342e-16 0)
(3 -3.53864e-16 0)
(3 -7.06313e-16 0)
(3 -6.25971e-16 0)
(3 -1.10811e-15 0)
(3 -1.15179e-15 0)
(3 -4.39179e-16 0)
(3 5.80044e-16 0)
(3 8.29828e-16 0)
(3 9.06322e-16 0)
(3 1.01201e-15 0)
(3 8.93691e-16 0)
(3 1.05267e-15 0)
(3 1.16207e-15 0)
(3 1.53555e-15 0)
(3 1.49762e-15 0)
(3 1.61061e-15 0)
(3 3.23495e-15 0)
(3 4.84769e-15 0)
(3 4.71846e-15 0)
(3 3.60752e-15 0)
(3 2.32435e-15 0)
(3 1.92055e-15 0)
(3 2.09512e-15 0)
(3 2.24395e-15 0)
(3 2.34572e-15 0)
(3 1.79083e-15 0)
(3 1.44089e-15 0)
(3 1.71596e-15 0)
(3 2.55531e-15 0)
(3 2.8629e-15 0)
(3 2.00738e-15 0)
(3 1.75147e-15 0)
(3 7.0483e-16 0)
(3 2.46588e-17 0)
(3 3.94683e-16 0)
(3 1.08675e-15 0)
(3 3.54669e-16 0)
(3 2.94185e-16 0)
(3 4.68673e-16 0)
(3 -2.87115e-16 0)
(3 -9.05087e-16 0)
(3 4.41885e-18 0)
(3 -2.9305e-16 0)
(3 -5.00929e-16 0)
(3 -1.53292e-15 0)
(3 -1.70228e-15 0)
(3 -1.91202e-15 0)
(3 -2.85598e-16 0)
(3 1.58545e-15 0)
(3 2.64456e-15 0)
(3 3.10089e-15 0)
(3 2.81828e-15 0)
(3 2.30726e-15 0)
(3 2.71656e-15 0)
(3 3.08961e-15 0)
(3 3.08129e-15 0)
(3 2.51045e-15 0)
(3 2.71875e-15 0)
(3 3.08226e-15 0)
(3 2.76628e-15 0)
(3 2.41327e-15 0)
(3 1.56784e-15 0)
(3 1.0098e-15 0)
(3 1.45107e-16 0)
(3 -1.30896e-15 0)
(3 -8.42404e-16 0)
(3 -6.3396e-16 0)
(3 5.13606e-16 0)
(3 7.42962e-16 0)
(3 1.85609e-16 0)
(3 -6.21709e-16 0)
(3 -4.03033e-16 0)
(3 1.84749e-16 0)
(3 -4.20193e-17 0)
(3 -1.08396e-15 0)
(3 1.53003e-16 0)
(3 3.32105e-16 0)
(3 2.1412e-16 0)
(3 4.3438e-16 0)
(3 4.44887e-16 0)
(3 2.0242e-17 0)
(3 -9.60481e-17 0)
(3 -1.24678e-15 0)
(3 -1.42617e-15 0)
(3 -9.36755e-16 0)
(3 -1.48217e-16 0)
(3 3.0768e-16 0)
(3 6.01583e-16 0)
(3 7.54519e-16 0)
(3 1.25563e-15 0)
(3 1.17942e-15 0)
(3 7.16447e-16 0)
(3 1.4315e-16 0)
(3 1.19396e-16 0)
(3 -1.87689e-17 0)
(3 1.36743e-16 0)
(3 -3.00981e-16 0)
(3 -1.28742e-15 0)
(3 -1.56166e-15 0)
(3 -9.65522e-16 0)
(3 -6.00119e-17 0)
(3 5.04776e-16 0)
(3 5.0289e-16 0)
(3 3.54816e-16 0)
(3 5.82601e-16 0)
(3 1.1977e-15 0)
(3 1.35876e-15 0)
(3 1.45511e-15 0)
(3 1.63368e-15 0)
(3 1.42193e-15 0)
(3 7.21262e-16 0)
(3 8.17152e-16 0)
(3 1.52881e-15 0)
(3 2.73372e-15 0)
(3 3.08759e-15 0)
(3 2.98803e-15 0)
(3 2.68117e-15 0)
(3 2.99369e-15 0)
(3 3.06683e-15 0)
(3 2.71044e-15 0)
(3 2.77878e-15 0)
(3 2.91864e-15 0)
(3 2.6631e-15 0)
(3 2.04273e-15 0)
(3 1.08799e-15 0)
(3 -2.80953e-17 0)
(3 -1.45287e-15 0)
(3 -1.3441e-15 0)
(3 -1.07604e-15 0)
(3 -1.04853e-16 0)
(3 4.17868e-16 0)
(3 1.73917e-15 0)
(3 1.82798e-15 0)
(3 -7.74467e-16 0)
(3 -1.80036e-15 0)
(3 -2.06026e-15 0)
(3 -2.8588e-15 0)
(3 -2.87709e-15 0)
(3 -2.75031e-15 0)
(3 -1.34212e-15 0)
(3 -1.78016e-16 0)
(3 1.92282e-16 0)
(3 1.91718e-15 0)
(3 3.59493e-15 0)
(3 4.8139e-15 0)
(3 4.35605e-15 0)
(3 3.86926e-15 0)
(3 3.83799e-15 0)
(3 3.19825e-15 0)
(3 2.62987e-15 0)
(3 2.10633e-15 0)
(3 2.30448e-15 0)
(3 2.42658e-15 0)
(3 1.49008e-15 0)
(3 1.43415e-15 0)
(3 1.79823e-15 0)
(3 2.13616e-15 0)
(3 1.75181e-15 0)
(3 1.16655e-15 0)
(3 -1.68302e-17 0)
(3 -4.31495e-16 0)
(3 -6.68334e-16 0)
(3 -2.40067e-16 0)
(3 8.90488e-16 0)
(3 9.89006e-16 0)
(3 4.3886e-16 0)
(3 -3.3509e-16 0)
(3 4.85251e-16 0)
(3 1.31709e-15 0)
(3 8.31515e-17 0)
(3 -5.07892e-16 0)
(3 2.61695e-17 0)
(3 1.72741e-16 0)
(3 5.30654e-16 0)
(3 2.31659e-16 0)
(3 2.10159e-16 0)
(3 2.97049e-16 0)
(3 1.93747e-16 0)
(3 -1.99756e-16 0)
(3 -1.35838e-16 0)
(3 3.52567e-16 0)
(3 5.229e-16 0)
(3 2.86386e-16 0)
(3 7.84457e-17 0)
(3 -1.42383e-16 0)
(3 3.72763e-16 0)
(3 2.92977e-16 0)
(3 1.74117e-16 0)
(3 -1.19517e-16 0)
(3 -1.8748e-16 0)
(3 4.04083e-16 0)
(3 9.7105e-16 0)
(3 1.05243e-15 0)
(3 1.21762e-15 0)
(3 9.73703e-16 0)
(3 3.15914e-16 0)
(3 4.72532e-16 0)
(3 5.52492e-16 0)
(3 -6.45105e-16 0)
(3 -9.52744e-16 0)
(3 -6.36326e-16 0)
(3 -1.62631e-16 0)
(3 7.92763e-16 0)
(3 5.61846e-16 0)
(3 6.74796e-16 0)
(3 7.15953e-16 0)
(3 3.94276e-16 0)
(3 -1.07958e-16 0)
(3 -3.32221e-16 0)
(3 -2.93331e-16 0)
(3 2.50976e-16 0)
(3 2.51632e-15 0)
(3 4.60575e-15 0)
(3 5.34584e-15 0)
(3 5.17472e-15 0)
(3 4.44708e-15 0)
(3 2.74452e-15 0)
(3 1.75233e-15 0)
(3 1.28961e-15 0)
(3 7.89407e-16 0)
(3 -1.55306e-15 0)
(3 -4.69074e-15 0)
(3 -4.59951e-15 0)
(3 -3.60032e-15 0)
(3 -2.75381e-15 0)
(3 -9.53717e-16 0)
(3 -4.96283e-16 0)
(3 -1.21662e-17 0)
(3 -5.69224e-16 0)