/*--------------------------------*- C++ -*----------------------------------*\
  =========                 |
  \\      /  F ield         | OpenFOAM: The Open Source CFD Toolbox
   \\    /   O peration     | Website:  https://openfoam.org
    \\  /    A nd           | Version:  7
     \\/     M anipulation  |
\*---------------------------------------------------------------------------*/
FoamFile
{
    version     2.0;
    format      ascii;
    class       volVectorField;
    location    "2.1";
    object      U;
}
// * * * * * * * * * * * * * * * * * * * * * * * * * * * * * * * * * * * * * //

dimensions      [0 1 -1 0 0 0 0];

internalField   nonuniform List<vector> 
73728
(
(3 -3.97127e-17 0)
(3 -8.28445e-17 0)
(3 -1.32934e-16 0)
(3 -5.69932e-18 0)
(3 -4.48049e-17 0)
(3 -7.12835e-17 0)
(3 -8.94639e-18 0)
(3 5.07519e-16 0)
(3 6.72033e-16 0)
(3 3.50453e-16 0)
(3 1.70556e-16 0)
(3 -1.18147e-16 0)
(3 -4.136e-16 0)
(3 -5.06977e-16 0)
(3 -5.97718e-16 0)
(3 -2.24992e-16 0)
(3 1.12436e-16 0)
(3 1.24518e-16 0)
(3 6.13267e-17 0)
(3 -1.6066e-16 0)
(3 -2.84637e-16 0)
(3 -7.4966e-16 0)
(3 -4.65846e-16 0)
(3 -2.67148e-16 0)
(3 -2.61164e-16 0)
(3 -2.81381e-16 0)
(3 -3.76441e-16 0)
(3 -3.57592e-16 0)
(3 -5.8406e-16 0)
(3 -1.07705e-15 0)
(3 -1.59904e-15 0)
(3 -9.9271e-16 0)
(3 -3.65672e-16 0)
(3 2.06428e-16 0)
(3 9.48559e-16 0)
(3 -1.951e-16 0)
(3 -1.61655e-15 0)
(3 -2.05561e-15 0)
(3 -2.02637e-15 0)
(3 -1.33597e-15 0)
(3 -2.24112e-16 0)
(3 -3.95074e-16 0)
(3 -1.11503e-15 0)
(3 -9.59772e-16 0)
(3 8.52213e-16 0)
(3 1.2006e-15 0)
(3 9.51105e-16 0)
(3 -1.55006e-16 0)
(3 -4.96859e-16 0)
(3 6.1164e-17 0)
(3 8.33894e-16 0)
(3 1.37916e-15 0)
(3 1.75334e-15 0)
(3 1.63628e-15 0)
(3 1.31863e-15 0)
(3 1.57632e-15 0)
(3 1.82111e-15 0)
(3 1.64576e-15 0)
(3 2.54654e-15 0)
(3 2.31129e-15 0)
(3 1.9836e-15 0)
(3 1.18267e-15 0)
(3 7.1911e-16 0)
(3 4.231e-17 0)
(3 -2.89139e-16 0)
(3 2.38714e-16 0)
(3 8.62909e-16 0)
(3 1.34773e-15 0)
(3 1.2027e-15 0)
(3 1.1654e-15 0)
(3 1.31325e-15 0)
(3 1.25967e-15 0)
(3 1.03885e-15 0)
(3 1.40225e-15 0)
(3 5.77971e-16 0)
(3 3.6721e-16 0)
(3 6.94342e-16 0)
(3 1.31674e-16 0)
(3 8.21525e-16 0)
(3 1.38278e-15 0)
(3 1.44904e-15 0)
(3 1.53181e-15 0)
(3 1.49637e-15 0)
(3 2.217e-15 0)
(3 2.12983e-15 0)
(3 1.88638e-15 0)
(3 1.43097e-15 0)
(3 4.97306e-16 0)
(3 4.31597e-16 0)
(3 4.42303e-16 0)
(3 7.2627e-16 0)
(3 7.18728e-16 0)
(3 2.87822e-16 0)
(3 -4.51323e-16 0)
(3 -5.45893e-16 0)
(3 -9.78204e-17 0)
(3 -9.72851e-17 0)
(3 -5.80648e-16 0)
(3 -9.83967e-16 0)
(3 -8.35886e-16 0)
(3 -2.35764e-16 0)
(3 1.32916e-16 0)
(3 4.37483e-16 0)
(3 1.12246e-15 0)
(3 1.36472e-15 0)
(3 6.02285e-16 0)
(3 2.49673e-16 0)
(3 -4.15259e-16 0)
(3 -8.06988e-16 0)
(3 -1.14093e-15 0)
(3 -9.89318e-16 0)
(3 -1.97613e-16 0)
(3 9.97637e-17 0)
(3 2.63733e-16 0)
(3 3.16981e-16 0)
(3 1.24282e-16 0)
(3 3.52139e-17 0)
(3 -1.95874e-16 0)
(3 -3.40126e-16 0)
(3 -5.86793e-16 0)
(3 -5.27444e-16 0)
(3 -5.6051e-16 0)
(3 -6.79282e-16 0)
(3 -4.41421e-16 0)
(3 1.09213e-16 0)
(3 -1.33578e-15 0)
(3 -2.41627e-15 0)
(3 -2.60753e-15 0)
(3 -2.13073e-15 0)
(3 -1.35927e-15 0)
(3 -5.62876e-16 0)
(3 -1.05186e-15 0)
(3 -3.77834e-15 0)
(3 -4.62193e-15 0)
(3 -4.26316e-15 0)
(3 -3.43627e-15 0)
(3 -2.2285e-15 0)
(3 -7.83538e-16 0)
(3 -1.11189e-15 0)
(3 -1.12109e-15 0)
(3 9.26717e-16 0)
(3 1.72732e-15 0)
(3 1.37028e-15 0)
(3 -1.65441e-16 0)
(3 -1.2632e-15 0)
(3 -8.03127e-16 0)
(3 9.09741e-16 0)
(3 2.30585e-15 0)
(3 2.72122e-15 0)
(3 2.34647e-15 0)
(3 2.36386e-15 0)
(3 3.10506e-15 0)
(3 4.31055e-15 0)
(3 4.12862e-15 0)
(3 4.21163e-15 0)
(3 3.4098e-15 0)
(3 2.60133e-15 0)
(3 2.11188e-15 0)
(3 1.51151e-15 0)
(3 -2.28118e-16 0)
(3 -6.88449e-16 0)
(3 3.55801e-16 0)
(3 2.26961e-15 0)
(3 3.80226e-15 0)
(3 3.34932e-15 0)
(3 1.91393e-15 0)
(3 1.3867e-15 0)
(3 8.06181e-16 0)
(3 3.39406e-16 0)
(3 9.78329e-16 0)
(3 1.95785e-15 0)
(3 2.37024e-15 0)
(3 3.36929e-15 0)
(3 3.12271e-15 0)
(3 3.32879e-15 0)
(3 1.39352e-15 0)
(3 1.08242e-15 0)
(3 1.21365e-15 0)
(3 1.63924e-15 0)
(3 2.47721e-15 0)
(3 2.33241e-15 0)
(3 2.75616e-15 0)
(3 3.06826e-15 0)
(3 2.64994e-15 0)
(3 1.80772e-15 0)
(3 1.26178e-15 0)
(3 5.38495e-16 0)
(3 1.17625e-16 0)
(3 -5.59542e-18 0)
(3 -8.66395e-16 0)
(3 -5.75812e-16 0)
(3 -8.52022e-17 0)
(3 7.33335e-17 0)
(3 8.27523e-17 0)
(3 -1.85969e-18 0)
(3 -7.00245e-17 0)
(3 -7.70904e-17 0)
(3 9.67466e-17 0)
(3 2.61706e-16 0)
(3 4.18261e-16 0)
(3 6.31934e-16 0)
(3 1.21683e-16 0)
(3 -7.76892e-16 0)
(3 -6.54181e-16 0)
(3 5.42304e-17 0)
(3 6.82027e-17 0)
(3 -3.08305e-17 0)
(3 6.12461e-17 0)
(3 3.58968e-16 0)
(3 7.66756e-16 0)
(3 1.03021e-15 0)
(3 9.69482e-16 0)
(3 8.65144e-16 0)
(3 4.27701e-16 0)
(3 -3.73893e-16 0)
(3 -7.32442e-16 0)
(3 -1.01876e-15 0)
(3 -9.82752e-16 0)
(3 -5.76941e-16 0)
(3 -4.95943e-16 0)
(3 2.35494e-16 0)
(3 -1.33191e-16 0)
(3 -1.33461e-15 0)
(3 -1.72096e-15 0)
(3 -2.9546e-15 0)
(3 -3.39745e-15 0)
(3 -3.27638e-15 0)
(3 -2.97207e-15 0)
(3 -3.00549e-15 0)
(3 -2.68085e-15 0)
(3 -2.29011e-15 0)
(3 -2.24103e-15 0)
(3 -2.37276e-15 0)
(3 -1.25931e-15 0)
(3 -1.28154e-15 0)
(3 -1.52063e-15 0)
(3 -4.5184e-16 0)
(3 8.76816e-16 0)
(3 4.15888e-16 0)
(3 8.0345e-16 0)
(3 7.12091e-16 0)
(3 6.20372e-16 0)
(3 1.9519e-15 0)
(3 2.24387e-15 0)
(3 2.06812e-15 0)
(3 2.5566e-15 0)
(3 3.54639e-15 0)
(3 4.0859e-15 0)
(3 4.30168e-15 0)
(3 4.04862e-15 0)
(3 5.28289e-16 0)
(3 1.43009e-15 0)
(3 2.07641e-15 0)
(3 2.47315e-15 0)
(3 1.4788e-15 0)
(3 1.13989e-15 0)
(3 1.34007e-15 0)
(3 1.25573e-15 0)
(3 1.29774e-15 0)
(3 1.62972e-15 0)
(3 1.30532e-15 0)
(3 1.29134e-15 0)
(3 1.95227e-15 0)
(3 9.91457e-16 0)
(3 -2.17274e-15 0)
(3 -2.80034e-15 0)
(3 -1.24791e-15 0)
(3 1.90907e-15 0)
(3 3.0011e-15 0)
(3 4.21759e-15 0)
(3 3.23461e-15 0)
(3 2.16744e-15 0)
(3 1.85827e-15 0)
(3 1.75546e-15 0)
(3 2.00688e-15 0)
(3 2.42081e-15 0)
(3 2.83024e-15 0)
(3 3.16573e-15 0)
(3 3.30046e-15 0)
(3 3.28424e-15 0)
(3 2.65895e-15 0)
(3 2.2208e-15 0)
(3 1.83177e-15 0)
(3 1.75884e-15 0)
(3 2.01135e-15 0)
(3 9.72077e-16 0)
(3 1.30562e-15 0)
(3 1.84881e-15 0)
(3 -8.89098e-17 0)
(3 1.58309e-16 0)
(3 6.21875e-16 0)
(3 8.30455e-16 0)
(3 1.81252e-17 0)
(3 -6.78495e-16 0)
(3 -4.05521e-16 0)
(3 -1.46678e-16 0)
(3 6.12277e-17 0)
(3 3.80453e-16 0)
(3 2.74813e-18 0)
(3 -7.11567e-17 0)
(3 2.03179e-16 0)
(3 3.47415e-16 0)
(3 5.80346e-16 0)
(3 5.4042e-16 0)
(3 1.02128e-15 0)
(3 1.11536e-15 0)
(3 1.61781e-15 0)
(3 1.92756e-15 0)
(3 1.33799e-15 0)
(3 4.74442e-16 0)
(3 2.01381e-16 0)
(3 2.80932e-16 0)
(3 -1.09815e-16 0)
(3 -1.77771e-16 0)
(3 -2.15541e-17 0)
(3 2.12303e-16 0)
(3 3.50196e-16 0)
(3 7.99406e-17 0)
(3 -3.79631e-17 0)
(3 -2.4452e-16 0)
(3 -1.68883e-15 0)
(3 -2.53706e-15 0)
(3 -2.82473e-15 0)
(3 -2.05324e-15 0)
(3 -1.94135e-15 0)
(3 -1.09584e-15 0)
(3 -5.56472e-16 0)
(3 -6.80564e-16 0)
(3 -1.0689e-15 0)
(3 -1.74291e-15 0)
(3 -8.83931e-16 0)
(3 -6.51803e-16 0)
(3 -7.2817e-17 0)
(3 3.50504e-16 0)
(3 -5.44535e-16 0)
(3 9.2911e-16 0)
(3 2.98192e-15 0)
(3 3.53266e-15 0)
(3 2.92167e-15 0)
(3 2.41421e-15 0)
(3 2.17665e-15 0)
(3 2.03552e-15 0)
(3 2.04487e-15 0)
(3 1.59325e-15 0)
(3 1.69552e-15 0)
(3 2.31509e-15 0)
(3 2.07679e-15 0)
(3 1.9022e-15 0)
(3 2.58068e-15 0)
(3 3.53581e-15 0)
(3 3.3462e-15 0)
(3 2.29447e-15 0)
(3 1.43684e-15 0)
(3 8.57744e-16 0)
(3 1.08475e-15 0)
(3 1.10299e-15 0)
(3 2.72294e-15 0)
(3 4.34674e-15 0)
(3 5.28134e-15 0)
(3 2.48e-15 0)
(3 -4.96685e-16 0)
(3 -1.47238e-15 0)
(3 -1.37825e-15 0)
(3 -1.04898e-15 0)
(3 -2.17723e-16 0)
(3 9.53578e-16 0)
(3 1.32357e-15 0)
(3 6.45806e-17 0)
(3 -2.5926e-17 0)
(3 3.98713e-16 0)
(3 2.69741e-16 0)
(3 4.96293e-16 0)
(3 1.2224e-15 0)
(3 2.50631e-15 0)
(3 2.73713e-15 0)
(3 2.51439e-15 0)
(3 2.43114e-15 0)
(3 2.0808e-15 0)
(3 2.22577e-15 0)
(3 2.60306e-15 0)
(3 3.11746e-15 0)
(3 3.5684e-15 0)
(3 3.22023e-15 0)
(3 3.29832e-15 0)
(3 9.9584e-17 0)
(3 -6.53497e-16 0)
(3 -5.45772e-16 0)
(3 -1.37826e-16 0)
(3 -5.15933e-16 0)
(3 -6.91083e-16 0)
(3 -7.75774e-16 0)
(3 -5.69336e-16 0)
(3 -5.75728e-16 0)
(3 -9.62924e-17 0)
(3 4.23728e-16 0)
(3 2.34883e-16 0)
(3 -4.88841e-16 0)
(3 -4.389e-16 0)
(3 1.60263e-16 0)
(3 1.09704e-15 0)
(3 1.28581e-15 0)
(3 9.99567e-16 0)
(3 4.00371e-16 0)
(3 -1.00056e-16 0)
(3 8.34417e-17 0)
(3 4.94475e-16 0)
(3 5.58448e-16 0)
(3 3.72124e-16 0)
(3 3.49609e-16 0)
(3 3.31201e-16 0)
(3 1.70926e-16 0)
(3 3.67721e-16 0)
(3 -3.0336e-16 0)
(3 -5.31337e-16 0)
(3 -4.72705e-16 0)
(3 -5.46346e-16 0)
(3 -2.53622e-17 0)
(3 5.92477e-17 0)
(3 1.01512e-16 0)
(3 -5.61659e-16 0)
(3 -3.62269e-16 0)
(3 6.17669e-16 0)
(3 1.56588e-15 0)
(3 2.06065e-16 0)
(3 -1.97872e-15 0)
(3 -2.96575e-15 0)
(3 -1.35435e-15 0)
(3 -1.03537e-15 0)
(3 -9.95241e-16 0)
(3 -9.30011e-16 0)
(3 1.18061e-17 0)
(3 1.05599e-15 0)
(3 3.79604e-15 0)
(3 4.12282e-15 0)
(3 3.33104e-15 0)
(3 2.45165e-15 0)
(3 1.09412e-15 0)
(3 -3.66264e-16 0)
(3 -7.59459e-16 0)
(3 -1.01222e-15 0)
(3 -9.54769e-16 0)
(3 -2.73388e-16 0)
(3 1.28284e-15 0)
(3 1.764e-15 0)
(3 2.38875e-15 0)
(3 2.86667e-15 0)
(3 1.47208e-15 0)
(3 6.13528e-16 0)
(3 -3.604e-16 0)
(3 -5.07254e-16 0)
(3 9.40262e-16 0)
(3 1.07543e-15 0)
(3 2.52058e-15 0)
(3 3.48754e-15 0)
(3 3.11639e-15 0)
(3 3.4326e-15 0)
(3 3.56587e-15 0)
(3 1.04144e-15 0)
(3 -1.30249e-15 0)
(3 -1.72868e-15 0)
(3 -1.75844e-15 0)
(3 -1.31797e-15 0)
(3 -9.15211e-16 0)
(3 -6.43076e-16 0)
(3 -9.09399e-16 0)
(3 -7.65788e-16 0)
(3 -1.77172e-16 0)
(3 1.1756e-15 0)
(3 2.47736e-15 0)
(3 3.31644e-15 0)
(3 3.10795e-15 0)
(3 3.13458e-15 0)
(3 3.52911e-15 0)
(3 3.25349e-15 0)
(3 2.89603e-15 0)
(3 3.02533e-15 0)
(3 3.58901e-15 0)
(3 5.33059e-15 0)
(3 5.12084e-15 0)
(3 4.6202e-15 0)
(3 1.22312e-17 0)
(3 -1.07288e-16 0)
(3 1.22728e-16 0)
(3 2.64657e-17 0)
(3 -1.19185e-16 0)
(3 -5.60857e-16 0)
(3 -9.02326e-16 0)
(3 -1.22433e-15 0)
(3 -9.30847e-16 0)
(3 -7.10097e-16 0)
(3 -3.97209e-16 0)
(3 9.02794e-17 0)
(3 7.3182e-17 0)
(3 -9.03303e-17 0)
(3 2.59235e-17 0)
(3 3.68869e-17 0)
(3 -3.36358e-16 0)
(3 -2.61591e-16 0)
(3 -4.7167e-16 0)
(3 -5.02744e-16 0)
(3 -3.45429e-16 0)
(3 6.78381e-16 0)
(3 1.40769e-15 0)
(3 1.50776e-15 0)
(3 7.37545e-16 0)
(3 1.39574e-16 0)
(3 2.35605e-16 0)
(3 3.76352e-16 0)
(3 6.09148e-16 0)
(3 8.12106e-16 0)
(3 7.1463e-16 0)
(3 4.77972e-16 0)
(3 9.06059e-16 0)
(3 2.34373e-15 0)
(3 2.81518e-15 0)
(3 2.25941e-15 0)
(3 1.94145e-15 0)
(3 1.23982e-15 0)
(3 7.58372e-16 0)
(3 -1.2458e-15 0)
(3 -1.4216e-15 0)
(3 -1.61582e-15 0)
(3 -1.20999e-15 0)
(3 -5.28098e-16 0)
(3 -6.15523e-16 0)
(3 -6.08539e-16 0)
(3 -8.03051e-17 0)
(3 8.04827e-16 0)
(3 1.72724e-15 0)
(3 1.91015e-15 0)
(3 9.06438e-16 0)
(3 4.42157e-16 0)
(3 9.69329e-16 0)
(3 1.23093e-15 0)
(3 8.70857e-16 0)
(3 -2.72368e-16 0)
(3 -8.34441e-16 0)
(3 -4.64501e-16 0)
(3 1.8487e-15 0)
(3 1.78495e-15 0)
(3 6.86196e-16 0)
(3 2.45675e-16 0)
(3 -5.9023e-16 0)
(3 -7.81631e-16 0)
(3 -8.73309e-16 0)
(3 -3.56434e-16 0)
(3 5.04209e-16 0)
(3 8.47127e-16 0)
(3 1.21443e-15 0)
(3 1.11939e-15 0)
(3 1.591e-15 0)
(3 2.08557e-15 0)
(3 1.76959e-15 0)
(3 9.95089e-16 0)
(3 6.02717e-17 0)
(3 -1.3606e-15 0)
(3 -2.26024e-15 0)
(3 -3.18845e-15 0)
(3 -2.76666e-15 0)
(3 -6.16691e-16 0)
(3 -1.02963e-16 0)
(3 -5.93724e-16 0)
(3 4.06045e-16 0)
(3 2.0553e-15 0)
(3 2.56272e-15 0)
(3 2.291e-15 0)
(3 1.54968e-15 0)
(3 2.12895e-15 0)
(3 4.92232e-15 0)
(3 5.32878e-15 0)
(3 5.20196e-15 0)
(3 5.7778e-15 0)
(3 6.24547e-15 0)
(3 5.99055e-15 0)
(3 5.17044e-15 0)
(3 4.90725e-15 0)
(3 1.71623e-16 0)
(3 -2.33506e-17 0)
(3 -1.96529e-16 0)
(3 -3.58484e-16 0)
(3 -7.74004e-16 0)
(3 -8.66053e-16 0)
(3 -1.33974e-15 0)
(3 -9.3783e-16 0)
(3 -4.1744e-16 0)
(3 -2.35205e-16 0)
(3 -4.18918e-16 0)
(3 -3.03295e-17 0)
(3 4.28597e-16 0)
(3 2.93542e-16 0)
(3 3.27185e-16 0)
(3 2.58612e-16 0)
(3 -1.06934e-16 0)
(3 -2.69642e-16 0)
(3 -3.24257e-16 0)
(3 -5.20111e-16 0)
(3 -3.19714e-16 0)
(3 -8.99151e-17 0)
(3 4.88434e-16 0)
(3 5.92662e-16 0)
(3 4.39066e-16 0)
(3 9.3625e-17 0)
(3 3.99568e-17 0)
(3 1.46705e-16 0)
(3 9.8156e-16 0)
(3 1.95292e-15 0)
(3 1.59873e-15 0)
(3 1.04562e-15 0)
(3 7.20059e-16 0)
(3 1.1599e-15 0)
(3 1.41883e-15 0)
(3 8.64941e-16 0)
(3 -2.71105e-16 0)
(3 -6.98701e-16 0)
(3 -8.22166e-16 0)
(3 -3.58784e-16 0)
(3 -3.03107e-16 0)
(3 -5.59504e-17 0)
(3 -1.94759e-16 0)
(3 1.06468e-17 0)
(3 -1.32204e-16 0)
(3 -6.68106e-16 0)
(3 -4.65369e-16 0)
(3 1.17316e-16 0)
(3 -7.58649e-16 0)
(3 -1.78075e-15 0)
(3 -3.24793e-15 0)
(3 -3.72782e-15 0)
(3 -1.67371e-15 0)
(3 -5.65964e-16 0)
(3 -6.94322e-16 0)
(3 -5.51242e-16 0)
(3 -9.96698e-16 0)
(3 -6.67123e-16 0)
(3 -4.01748e-16 0)
(3 -2.89516e-16 0)
(3 -5.58491e-16 0)
(3 -3.45058e-16 0)
(3 1.56054e-16 0)
(3 2.97515e-16 0)
(3 3.59923e-16 0)
(3 1.24171e-15 0)
(3 1.54679e-15 0)
(3 1.24132e-15 0)
(3 1.17252e-15 0)
(3 3.49005e-16 0)
(3 7.02528e-16 0)
(3 8.95514e-16 0)
(3 3.76608e-16 0)
(3 1.42983e-16 0)
(3 4.94069e-16 0)
(3 1.54068e-16 0)
(3 -1.41654e-15 0)
(3 -2.0588e-15 0)
(3 -1.62922e-15 0)
(3 -1.43018e-15 0)
(3 -7.38999e-16 0)
(3 -3.60342e-16 0)
(3 1.51368e-15 0)
(3 1.98031e-15 0)
(3 1.96033e-15 0)
(3 1.49621e-15 0)
(3 1.40381e-15 0)
(3 1.97749e-15 0)
(3 3.82164e-15 0)
(3 5.54703e-15 0)
(3 6.18431e-15 0)
(3 5.65455e-15 0)
(3 4.85396e-15 0)
(3 3.07684e-15 0)
(3 1.52763e-15 0)
(3 2.39258e-15 0)
(3 2.53882e-16 0)
(3 2.67497e-16 0)
(3 -3.66299e-16 0)
(3 -4.40163e-16 0)
(3 -3.47808e-16 0)
(3 -1.47956e-16 0)
(3 -1.45343e-16 0)
(3 -2.87774e-17 0)
(3 7.49483e-17 0)
(3 9.45951e-17 0)
(3 2.84107e-16 0)
(3 5.96667e-16 0)
(3 8.40004e-16 0)
(3 8.96946e-16 0)
(3 1.50627e-15 0)
(3 1.2192e-15 0)
(3 1.20201e-15 0)
(3 7.93866e-16 0)
(3 4.01098e-16 0)
(3 -5.74066e-16 0)
(3 -6.42547e-16 0)
(3 -1.49871e-15 0)
(3 -1.61617e-15 0)
(3 -1.86538e-15 0)
(3 -8.44223e-16 0)
(3 4.08951e-16 0)
(3 7.68557e-16 0)
(3 -9.76405e-17 0)
(3 -3.17529e-16 0)
(3 -1.40571e-16 0)
(3 -2.42948e-16 0)
(3 -3.21286e-16 0)
(3 -2.21149e-17 0)
(3 6.052e-16 0)
(3 1.66924e-15 0)
(3 2.88435e-15 0)
(3 2.79681e-15 0)
(3 1.92728e-15 0)
(3 1.41154e-15 0)
(3 9.6855e-16 0)
(3 8.06266e-16 0)
(3 5.77291e-16 0)
(3 4.06311e-17 0)
(3 -1.26827e-16 0)
(3 -3.78319e-16 0)
(3 -1.31553e-15 0)
(3 -1.93623e-15 0)
(3 -2.57142e-15 0)
(3 -2.64758e-15 0)
(3 -2.72868e-15 0)
(3 -3.02657e-15 0)
(3 -3.46636e-15 0)
(3 -3.36853e-15 0)
(3 -1.8093e-15 0)
(3 -2.01525e-15 0)
(3 -1.13291e-15 0)
(3 4.50634e-17 0)
(3 2.69114e-16 0)
(3 -9.73155e-16 0)
(3 -9.14055e-16 0)
(3 -1.57017e-16 0)
(3 2.87124e-16 0)
(3 1.08242e-15 0)
(3 1.51439e-15 0)
(3 1.77297e-15 0)
(3 1.35281e-15 0)
(3 1.19731e-15 0)
(3 7.86653e-16 0)
(3 4.51726e-16 0)
(3 3.7464e-16 0)
(3 -5.39745e-18 0)
(3 -6.59228e-16 0)
(3 4.48834e-17 0)
(3 7.79935e-16 0)
(3 1.65408e-15 0)
(3 1.34282e-15 0)
(3 3.17803e-16 0)
(3 -2.52297e-16 0)
(3 -4.29914e-16 0)
(3 -4.60344e-16 0)
(3 -2.83507e-16 0)
(3 1.49333e-15 0)
(3 2.16909e-15 0)
(3 2.16624e-15 0)
(3 1.32408e-15 0)
(3 -1.41468e-16 0)
(3 9.68917e-17 0)
(3 -4.90268e-16 0)
(3 2.81972e-16 0)
(3 1.7768e-15 0)
(3 1.9485e-15 0)
(3 1.40052e-15 0)
(3 -9.70656e-17 0)
(3 -1.30022e-15 0)
(3 -5.25219e-16 0)
(3 6.91297e-16 0)
(3 -3.24069e-16 0)
(3 -2.43851e-16 0)
(3 -2.37295e-16 0)
(3 -2.76843e-16 0)
(3 2.69866e-16 0)
(3 6.47653e-16 0)
(3 8.65723e-16 0)
(3 4.38019e-16 0)
(3 2.80243e-16 0)
(3 2.25607e-16 0)
(3 1.46569e-16 0)
(3 8.70667e-16 0)
(3 1.14033e-15 0)
(3 1.66004e-15 0)
(3 1.46985e-15 0)
(3 1.27575e-15 0)
(3 9.59133e-16 0)
(3 6.95821e-16 0)
(3 7.12742e-16 0)
(3 1.04601e-15 0)
(3 2.11616e-16 0)
(3 -5.79407e-16 0)
(3 -1.18744e-15 0)
(3 -1.56855e-15 0)
(3 -1.6116e-15 0)
(3 -1.87282e-16 0)
(3 1.2106e-15 0)
(3 1.05457e-15 0)
(3 1.04686e-15 0)
(3 5.25961e-16 0)
(3 1.08156e-15 0)
(3 1.44103e-15 0)
(3 1.6981e-15 0)
(3 3.25303e-15 0)
(3 3.28504e-15 0)
(3 3.53804e-15 0)
(3 2.44302e-15 0)
(3 7.6609e-16 0)
(3 -6.82536e-16 0)
(3 -2.79053e-16 0)
(3 1.8704e-15 0)
(3 1.7897e-15 0)
(3 1.32286e-15 0)
(3 4.43664e-16 0)
(3 -2.25639e-16 0)
(3 -1.04486e-15 0)
(3 -2.46083e-15 0)
(3 -2.57674e-15 0)
(3 -2.21133e-15 0)
(3 -2.15266e-15 0)
(3 -1.6976e-15 0)
(3 -8.92585e-16 0)
(3 -7.72049e-16 0)
(3 -1.57966e-15 0)
(3 -1.45283e-15 0)
(3 -1.12354e-15 0)
(3 -1.06878e-15 0)
(3 -8.49019e-16 0)
(3 8.96191e-16 0)
(3 2.04467e-15 0)
(3 2.07725e-15 0)
(3 1.82456e-15 0)
(3 1.38065e-15 0)
(3 1.3784e-15 0)
(3 1.7929e-15 0)
(3 9.06685e-16 0)
(3 5.55383e-16 0)
(3 4.08279e-16 0)
(3 -3.71506e-16 0)
(3 -1.60684e-16 0)
(3 -1.58785e-16 0)
(3 -5.41434e-16 0)
(3 -1.65944e-16 0)
(3 8.93865e-16 0)
(3 1.30036e-15 0)
(3 1.24875e-15 0)
(3 2.3792e-15 0)
(3 1.09744e-15 0)
(3 -3.13688e-16 0)
(3 -1.68311e-15 0)
(3 -1.61714e-15 0)
(3 -6.89083e-16 0)
(3 -2.07529e-16 0)
(3 1.01269e-15 0)
(3 6.12806e-16 0)
(3 -1.91059e-15 0)
(3 -4.03945e-15 0)
(3 -4.12574e-15 0)
(3 -4.1624e-15 0)
(3 -2.89996e-15 0)
(3 -2.22187e-15 0)
(3 -1.88791e-15 0)
(3 -1.58382e-15 0)
(3 -1.55817e-15 0)
(3 -1.12508e-15 0)
(3 -6.85763e-16 0)
(3 -1.59753e-16 0)
(3 -3.74328e-16 0)
(3 -1.19233e-16 0)
(3 -1.25754e-16 0)
(3 1.62623e-16 0)
(3 4.09097e-16 0)
(3 4.07234e-16 0)
(3 5.24417e-16 0)
(3 9.37269e-16 0)
(3 7.13704e-16 0)
(3 4.36349e-16 0)
(3 6.28157e-16 0)
(3 6.70537e-16 0)
(3 1.25582e-15 0)
(3 1.01085e-15 0)
(3 1.33365e-15 0)
(3 8.87109e-16 0)
(3 -9.60715e-17 0)
(3 -7.88869e-17 0)
(3 3.44387e-16 0)
(3 2.52165e-16 0)
(3 -1.54134e-18 0)
(3 -6.9996e-16 0)
(3 -1.26386e-15 0)
(3 -1.41154e-15 0)
(3 -1.11765e-15 0)
(3 1.50291e-16 0)
(3 6.17248e-16 0)
(3 5.89689e-16 0)
(3 1.20556e-15 0)
(3 1.28715e-15 0)
(3 2.06299e-15 0)
(3 2.196e-15 0)
(3 1.85108e-15 0)
(3 1.86559e-15 0)
(3 1.39241e-15 0)
(3 7.0627e-16 0)
(3 8.9788e-17 0)
(3 -5.38175e-16 0)
(3 -1.07595e-15 0)
(3 -7.083e-16 0)
(3 -2.35729e-16 0)
(3 -6.5267e-16 0)
(3 -1.96547e-15 0)
(3 -2.26044e-15 0)
(3 -2.12353e-15 0)
(3 -2.29618e-15 0)
(3 -2.17631e-15 0)
(3 -1.5752e-15 0)
(3 -7.93815e-16 0)
(3 1.9908e-16 0)
(3 1.51886e-15 0)
(3 1.58083e-15 0)
(3 1.05393e-15 0)
(3 7.07106e-16 0)
(3 9.80786e-16 0)
(3 9.40726e-16 0)
(3 -1.65707e-16 0)
(3 1.83977e-15 0)
(3 4.36215e-15 0)
(3 2.5292e-15 0)
(3 2.06473e-15 0)
(3 2.30392e-15 0)
(3 2.71029e-15 0)
(3 2.7093e-15 0)
(3 1.27172e-15 0)
(3 8.83448e-16 0)
(3 6.97463e-16 0)
(3 1.25169e-16 0)
(3 -4.32588e-16 0)
(3 -4.63836e-16 0)
(3 1.34287e-16 0)
(3 -1.42333e-16 0)
(3 2.0053e-16 0)
(3 1.9831e-16 0)
(3 1.12368e-15 0)
(3 1.49067e-15 0)
(3 1.35325e-15 0)
(3 1.12776e-16 0)
(3 -1.71894e-15 0)
(3 -2.77906e-15 0)
(3 -3.59006e-15 0)
(3 -3.48278e-15 0)
(3 -2.32303e-15 0)
(3 -3.0783e-15 0)
(3 -3.53198e-15 0)
(3 -3.71318e-15 0)
(3 -3.00849e-15 0)
(3 -3.08293e-15 0)
(3 -4.09171e-15 0)
(3 -3.34988e-15 0)
(3 -2.64818e-15 0)
(3 -1.98951e-15 0)
(3 1.61933e-16 0)
(3 2.16307e-16 0)
(3 1.61713e-16 0)
(3 1.65524e-16 0)
(3 3.32066e-16 0)
(3 7.33907e-16 0)
(3 7.58504e-16 0)
(3 6.4468e-16 0)
(3 8.22207e-16 0)
(3 1.10598e-15 0)
(3 1.22465e-15 0)
(3 1.24001e-15 0)
(3 9.55398e-16 0)
(3 5.11209e-16 0)
(3 5.7313e-16 0)
(3 1.10376e-15 0)
(3 7.76475e-16 0)
(3 6.00595e-16 0)
(3 1.87846e-16 0)
(3 -5.19197e-16 0)
(3 -1.26855e-15 0)
(3 -1.70458e-15 0)
(3 -1.01072e-15 0)
(3 -2.19489e-17 0)
(3 2.31179e-16 0)
(3 5.65623e-16 0)
(3 7.94431e-16 0)
(3 5.08317e-16 0)
(3 1.42085e-16 0)
(3 -1.32148e-16 0)
(3 5.10573e-16 0)
(3 1.68224e-15 0)
(3 2.51909e-15 0)
(3 2.34245e-15 0)
(3 2.04304e-15 0)
(3 2.10709e-15 0)
(3 1.54478e-15 0)
(3 1.34862e-15 0)
(3 1.24742e-15 0)
(3 8.91545e-16 0)
(3 1.04601e-15 0)
(3 1.20935e-15 0)
(3 2.2146e-16 0)
(3 -3.23583e-16 0)
(3 -1.98797e-15 0)
(3 -2.55269e-15 0)
(3 -3.00865e-15 0)
(3 -2.13379e-15 0)
(3 -1.80392e-15 0)
(3 -1.76501e-15 0)
(3 -1.41192e-15 0)
(3 -1.2227e-15 0)
(3 -1.33635e-15 0)
(3 1.04116e-15 0)
(3 2.02684e-15 0)
(3 1.82909e-15 0)
(3 1.74238e-15 0)
(3 1.56744e-15 0)
(3 1.46812e-15 0)
(3 1.86973e-15 0)
(3 2.18812e-15 0)
(3 1.49427e-15 0)
(3 1.77984e-15 0)
(3 2.6173e-15 0)
(3 2.59305e-15 0)
(3 3.52276e-15 0)
(3 4.09261e-15 0)
(3 2.53977e-15 0)
(3 1.62741e-15 0)
(3 7.6604e-16 0)
(3 8.7919e-16 0)
(3 3.94894e-16 0)
(3 1.49084e-16 0)
(3 3.54618e-16 0)
(3 4.89283e-16 0)
(3 8.34899e-16 0)
(3 1.42736e-15 0)
(3 1.96748e-15 0)
(3 1.90805e-15 0)
(3 1.44076e-15 0)
(3 7.09199e-16 0)
(3 3.44034e-16 0)
(3 9.86251e-16 0)
(3 1.08472e-15 0)
(3 -4.43324e-16 0)
(3 -1.80348e-15 0)
(3 -2.71113e-15 0)
(3 -2.91035e-15 0)
(3 -3.01998e-15 0)
(3 -2.38538e-15 0)
(3 -2.47624e-15 0)
(3 -2.16411e-15 0)
(3 -2.15528e-15 0)
(3 -1.84512e-15 0)
(3 -1.40905e-15 0)
(3 -3.36116e-16 0)
(3 1.33434e-16 0)
(3 8.44869e-18 0)
(3 -4.98538e-16 0)
(3 5.09912e-17 0)
(3 1.51803e-16 0)
(3 3.7736e-17 0)
(3 -9.57141e-18 0)
(3 2.79809e-16 0)
(3 6.62388e-16 0)
(3 6.24401e-16 0)
(3 9.3248e-16 0)
(3 1.34811e-16 0)
(3 -1.54394e-16 0)
(3 -1.86957e-16 0)
(3 -2.329e-16 0)
(3 -7.44754e-17 0)
(3 -3.81283e-16 0)
(3 -6.46658e-16 0)
(3 -1.64665e-15 0)
(3 -1.7972e-15 0)
(3 -1.96495e-15 0)
(3 -1.56952e-15 0)
(3 1.21757e-16 0)
(3 8.06373e-16 0)
(3 5.627e-16 0)
(3 1.46758e-15 0)
(3 2.03448e-15 0)
(3 1.37654e-15 0)
(3 1.70649e-15 0)
(3 1.29197e-15 0)
(3 1.4786e-15 0)
(3 1.7504e-15 0)
(3 1.24165e-15 0)
(3 1.21947e-15 0)
(3 1.32267e-15 0)
(3 9.31241e-16 0)
(3 4.39448e-16 0)
(3 4.30822e-17 0)
(3 1.51694e-16 0)
(3 8.88022e-18 0)
(3 3.59666e-16 0)
(3 4.11102e-16 0)
(3 3.74881e-16 0)
(3 -3.72122e-16 0)
(3 -1.43381e-15 0)
(3 -3.41173e-15 0)
(3 -3.79864e-15 0)
(3 -3.68534e-15 0)
(3 -2.83704e-15 0)
(3 -2.45006e-15 0)
(3 -1.51412e-16 0)
(3 1.36743e-16 0)
(3 2.68112e-16 0)
(3 1.50863e-15 0)
(3 3.2396e-15 0)
(3 2.97304e-15 0)
(3 2.65172e-15 0)
(3 2.64083e-15 0)
(3 2.01765e-15 0)
(3 1.65519e-15 0)
(3 1.88286e-15 0)
(3 1.49138e-15 0)
(3 -1.33193e-16 0)
(3 1.27507e-15 0)
(3 1.50254e-15 0)
(3 2.32871e-15 0)
(3 4.12133e-15 0)
(3 4.17347e-15 0)
(3 3.30486e-15 0)
(3 1.74235e-15 0)
(3 1.88764e-15 0)
(3 1.37719e-15 0)
(3 8.86568e-16 0)
(3 6.8498e-16 0)
(3 7.68507e-16 0)
(3 1.33059e-15 0)
(3 2.03914e-15 0)
(3 2.81971e-15 0)
(3 1.79853e-15 0)
(3 7.78083e-16 0)
(3 5.96525e-16 0)
(3 1.15342e-15 0)
(3 2.64506e-15 0)
(3 2.55726e-15 0)
(3 1.26534e-15 0)
(3 2.79738e-16 0)
(3 -7.40918e-16 0)
(3 -3.09992e-16 0)
(3 -6.27331e-16 0)
(3 2.95244e-16 0)
(3 2.11032e-16 0)
(3 -2.42162e-16 0)
(3 1.04406e-16 0)
(3 -3.08534e-16 0)
(3 -3.82468e-17 0)
(3 3.97111e-16 0)
(3 1.87948e-17 0)
(3 -1.46964e-15 0)
(3 -1.96205e-15 0)
(3 -4.09492e-17 0)
(3 8.83161e-18 0)
(3 -1.68661e-16 0)
(3 -6.77982e-16 0)
(3 -9.64106e-16 0)
(3 -1.02199e-15 0)
(3 -7.80406e-16 0)
(3 -1.40502e-16 0)
(3 5.19558e-19 0)
(3 -4.31946e-16 0)
(3 -2.53238e-16 0)
(3 -3.02077e-16 0)
(3 -7.27904e-16 0)
(3 -1.25309e-15 0)
(3 -2.28198e-15 0)
(3 -2.7335e-15 0)
(3 -2.30887e-15 0)
(3 -1.52068e-15 0)
(3 -7.81842e-16 0)
(3 6.32158e-16 0)
(3 1.06127e-15 0)
(3 1.37269e-15 0)
(3 9.3983e-16 0)
(3 1.05281e-15 0)
(3 8.64362e-16 0)
(3 7.16582e-16 0)
(3 1.96847e-15 0)
(3 1.74526e-15 0)
(3 -3.30154e-16 0)
(3 -8.94709e-16 0)
(3 -3.23769e-16 0)
(3 3.45186e-16 0)
(3 8.25094e-17 0)
(3 -1.0301e-15 0)
(3 -2.02249e-15 0)
(3 -1.88224e-15 0)
(3 -1.15123e-15 0)
(3 -4.2103e-16 0)
(3 -4.72644e-16 0)
(3 1.72226e-16 0)
(3 -8.00072e-16 0)
(3 -1.82891e-15 0)
(3 -3.0334e-15 0)
(3 -3.57761e-15 0)
(3 -3.53997e-15 0)
(3 -3.195e-15 0)
(3 -1.02327e-15 0)
(3 -7.39274e-16 0)
(3 -2.47746e-16 0)
(3 1.20343e-15 0)
(3 1.80497e-15 0)
(3 1.29608e-15 0)
(3 2.57677e-15 0)
(3 3.11317e-15 0)
(3 3.39102e-15 0)
(3 2.95262e-15 0)
(3 1.72049e-15 0)
(3 7.17247e-16 0)
(3 7.72689e-16 0)
(3 1.15542e-15 0)
(3 1.79748e-15 0)
(3 3.00011e-15 0)
(3 3.52826e-15 0)
(3 6.1106e-15 0)
(3 7.79453e-15 0)
(3 6.34567e-15 0)
(3 3.39835e-15 0)
(3 2.70644e-15 0)
(3 2.32486e-15 0)
(3 1.24768e-15 0)
(3 5.06108e-16 0)
(3 5.10169e-16 0)
(3 5.96765e-16 0)
(3 1.01266e-16 0)
(3 1.34911e-16 0)
(3 4.11647e-16 0)
(3 6.4564e-16 0)
(3 1.99254e-15 0)
(3 3.13102e-15 0)
(3 3.11416e-15 0)
(3 2.00387e-15 0)
(3 5.85889e-16 0)
(3 -1.07827e-15 0)
(3 -2.07892e-15 0)
(3 -1.73081e-15 0)
(3 -3.31407e-17 0)
(3 1.27344e-15 0)
(3 1.53797e-15 0)
(3 1.57793e-15 0)
(3 1.38564e-15 0)
(3 1.16933e-15 0)
(3 1.11122e-15 0)
(3 8.34043e-16 0)
(3 -1.1567e-16 0)
(3 -1.114e-15 0)
(3 -1.97678e-15 0)
(3 3.50093e-18 0)
(3 3.34071e-16 0)
(3 4.84518e-16 0)
(3 1.60152e-16 0)
(3 -6.99811e-16 0)
(3 -9.77843e-16 0)
(3 -8.11727e-16 0)
(3 -7.23954e-16 0)
(3 -3.91047e-16 0)
(3 -8.63553e-16 0)
(3 -5.92752e-16 0)
(3 -2.01372e-16 0)
(3 2.4137e-16 0)
(3 -8.79084e-16 0)
(3 -1.12174e-15 0)
(3 -1.19635e-15 0)
(3 -8.25806e-16 0)
(3 3.68574e-16 0)
(3 7.14075e-16 0)
(3 1.82566e-16 0)
(3 1.56232e-16 0)
(3 2.37124e-16 0)
(3 7.77581e-17 0)
(3 -3.97522e-16 0)
(3 -4.87705e-16 0)
(3 -7.85623e-16 0)
(3 -1.16255e-15 0)
(3 -1.68948e-15 0)
(3 -2.48304e-15 0)
(3 -1.59961e-15 0)
(3 -5.74759e-16 0)
(3 -3.01441e-16 0)
(3 -1.02532e-15 0)
(3 -1.55993e-15 0)
(3 -1.22667e-15 0)
(3 -6.54321e-16 0)
(3 -6.3556e-16 0)
(3 -4.57597e-16 0)
(3 3.87555e-16 0)
(3 5.78338e-16 0)
(3 4.77314e-16 0)
(3 -9.62707e-16 0)
(3 -1.85908e-15 0)
(3 -1.31711e-15 0)
(3 4.73016e-16 0)
(3 1.14619e-15 0)
(3 1.02239e-15 0)
(3 7.84322e-16 0)
(3 1.5712e-15 0)
(3 2.41931e-15 0)
(3 1.59175e-15 0)
(3 1.30609e-16 0)
(3 2.50065e-16 0)
(3 1.74818e-15 0)
(3 2.92855e-15 0)
(3 2.17566e-15 0)
(3 8.69893e-16 0)
(3 -7.60629e-16 0)
(3 3.05118e-17 0)
(3 2.53966e-15 0)
(3 2.65789e-15 0)
(3 2.59119e-15 0)
(3 3.49451e-15 0)
(3 5.67133e-15 0)
(3 6.63205e-15 0)
(3 4.8268e-15 0)
(3 3.44038e-15 0)
(3 2.76592e-15 0)
(3 5.64627e-16 0)
(3 1.05815e-16 0)
(3 6.9491e-17 0)
(3 -2.22199e-16 0)
(3 -2.83001e-16 0)
(3 -5.14404e-17 0)
(3 -3.66834e-16 0)
(3 -3.29639e-16 0)
(3 1.70371e-18 0)
(3 7.51109e-16 0)
(3 2.04097e-15 0)
(3 1.841e-15 0)
(3 8.60013e-16 0)
(3 6.37543e-16 0)
(3 -2.27305e-16 0)
(3 -7.40334e-16 0)
(3 -5.11845e-16 0)
(3 2.83715e-16 0)
(3 1.52581e-15 0)
(3 1.8757e-15 0)
(3 1.13273e-15 0)
(3 -2.25222e-17 0)
(3 1.01563e-15 0)
(3 1.48697e-15 0)
(3 1.43416e-15 0)
(3 1.40804e-15 0)
(3 1.23775e-15 0)
(3 3.28096e-16 0)
(3 -1.40385e-16 0)
(3 -5.65562e-16 0)
(3 -5.51551e-16 0)
(3 1.18774e-16 0)
(3 3.81268e-16 0)
(3 5.70645e-16 0)
(3 -7.0461e-17 0)
(3 -1.27291e-15 0)
(3 -1.71261e-15 0)
(3 -8.22409e-16 0)
(3 -2.09977e-16 0)
(3 -8.77153e-16 0)
(3 -8.90283e-16 0)
(3 -5.62929e-16 0)
(3 -5.37098e-16 0)
(3 -7.61516e-16 0)
(3 5.74726e-16 0)
(3 1.32974e-15 0)
(3 1.81062e-15 0)
(3 7.59288e-16 0)
(3 -2.54283e-16 0)
(3 -7.6058e-16 0)
(3 -7.77422e-16 0)
(3 -9.66038e-16 0)
(3 -9.27488e-16 0)
(3 -1.2549e-15 0)
(3 -3.01685e-15 0)
(3 -3.99708e-15 0)
(3 -2.52239e-15 0)
(3 -1.53232e-15 0)
(3 -1.34117e-15 0)
(3 -1.14878e-15 0)
(3 -7.86493e-16 0)
(3 -9.06273e-16 0)
(3 -6.78103e-16 0)
(3 -6.66194e-17 0)
(3 -1.43493e-15 0)
(3 -2.33787e-15 0)
(3 -1.95811e-15 0)
(3 -1.5742e-15 0)
(3 -1.24832e-15 0)
(3 -1.25406e-15 0)
(3 -2.51819e-15 0)
(3 -1.67569e-15 0)
(3 1.30069e-15 0)
(3 1.86919e-15 0)
(3 1.96926e-15 0)
(3 1.96807e-15 0)
(3 2.15758e-15 0)
(3 2.18747e-15 0)
(3 1.45459e-15 0)
(3 1.15191e-15 0)
(3 9.49017e-16 0)
(3 2.308e-15 0)
(3 3.15099e-15 0)
(3 2.82555e-15 0)
(3 1.93972e-15 0)
(3 6.87253e-16 0)
(3 4.07976e-16 0)
(3 -9.91568e-17 0)
(3 7.92267e-17 0)
(3 1.00886e-15 0)
(3 2.13749e-15 0)
(3 2.25336e-15 0)
(3 2.96735e-15 0)
(3 3.17902e-15 0)
(3 3.05366e-15 0)
(3 2.75547e-15 0)
(3 2.2879e-15 0)
(3 1.45075e-15 0)
(3 -4.44404e-16 0)
(3 -6.87921e-16 0)
(3 -8.90545e-17 0)
(3 4.44728e-16 0)
(3 6.91308e-16 0)
(3 3.4615e-17 0)
(3 2.22454e-16 0)
(3 4.70069e-16 0)
(3 2.67711e-16 0)
(3 8.86273e-17 0)
(3 5.94877e-16 0)
(3 1.25331e-15 0)
(3 1.70512e-15 0)
(3 1.76707e-15 0)
(3 1.35125e-15 0)
(3 1.86602e-15 0)
(3 2.14198e-15 0)
(3 1.40074e-15 0)
(3 6.16532e-16 0)
(3 -5.05478e-16 0)
(3 -1.10343e-15 0)
(3 1.59981e-16 0)
(3 1.24769e-15 0)
(3 2.9202e-15 0)
(3 3.31907e-15 0)
(3 2.40551e-15 0)
(3 9.45587e-17 0)
(3 -1.74593e-16 0)
(3 5.08593e-17 0)
(3 6.45872e-17 0)
(3 8.92869e-16 0)
(3 4.28158e-16 0)
(3 -4.82978e-16 0)
(3 -1.38593e-15 0)
(3 -2.26304e-15 0)
(3 -1.26504e-15 0)
(3 -1.29674e-15 0)
(3 -1.5891e-15 0)
(3 -2.31485e-15 0)
(3 -2.15653e-15 0)
(3 -8.09446e-16 0)
(3 1.04355e-16 0)
(3 7.37477e-16 0)
(3 7.91099e-16 0)
(3 3.92314e-16 0)
(3 -2.5768e-16 0)
(3 -7.48098e-16 0)
(3 -4.1148e-16 0)
(3 -6.31508e-16 0)
(3 -1.12217e-15 0)
(3 -1.03357e-15 0)
(3 -1.32503e-15 0)
(3 -1.73732e-15 0)
(3 -1.69328e-15 0)
(3 -9.13478e-16 0)
(3 -9.42135e-16 0)
(3 -1.45204e-15 0)
(3 -5.05844e-16 0)
(3 1.19674e-15 0)
(3 1.36375e-15 0)
(3 3.89287e-16 0)
(3 -3.05954e-16 0)
(3 -2.23475e-15 0)
(3 -3.48523e-15 0)
(3 -4.65599e-15 0)
(3 -2.79733e-15 0)
(3 -5.79234e-16 0)
(3 1.48227e-15 0)
(3 2.22876e-15 0)
(3 2.06636e-15 0)
(3 1.15506e-15 0)
(3 1.15645e-15 0)
(3 9.70434e-16 0)
(3 1.00582e-15 0)
(3 1.32301e-15 0)
(3 1.62932e-15 0)
(3 1.62127e-15 0)
(3 1.25723e-15 0)
(3 2.17e-15 0)
(3 2.12321e-15 0)
(3 1.67333e-15 0)
(3 2.17577e-15 0)
(3 1.45736e-15 0)
(3 1.1467e-15 0)
(3 9.11388e-16 0)
(3 8.97204e-16 0)
(3 8.8806e-16 0)
(3 1.5773e-15 0)
(3 1.8642e-15 0)
(3 1.5275e-15 0)
(3 1.52716e-15 0)
(3 3.08071e-15 0)
(3 4.50216e-15 0)
(3 3.98321e-15 0)
(3 3.51072e-15 0)
(3 2.28004e-15 0)
(3 1.41647e-15 0)
(3 4.43748e-16 0)
(3 7.3701e-16 0)
(3 9.48982e-16 0)
(3 1.27245e-15 0)
(3 1.21666e-15 0)
(3 1.34598e-15 0)
(3 6.82444e-16 0)
(3 -2.11727e-16 0)
(3 -4.65056e-16 0)
(3 2.01554e-16 0)
(3 1.92886e-15 0)
(3 2.93033e-15 0)
(3 3.41806e-15 0)
(3 2.92437e-15 0)
(3 2.73947e-15 0)
(3 2.20689e-15 0)
(3 9.7779e-16 0)
(3 8.88904e-16 0)
(3 8.19e-16 0)
(3 -4.75389e-16 0)
(3 -4.60344e-16 0)
(3 8.31529e-16 0)
(3 1.20336e-15 0)
(3 1.77016e-15 0)
(3 1.64095e-15 0)
(3 -4.92838e-17 0)
(3 4.57809e-16 0)
(3 5.14799e-16 0)
(3 3.04434e-16 0)
(3 2.81554e-16 0)
(3 -1.12969e-16 0)
(3 -1.56344e-16 0)
(3 -5.40583e-16 0)
(3 -2.01487e-16 0)
(3 -1.03148e-15 0)
(3 -6.77698e-16 0)
(3 -7.11484e-16 0)
(3 -1.56724e-15 0)
(3 -1.94552e-15 0)
(3 -1.0185e-15 0)
(3 1.09352e-15 0)
(3 1.34429e-15 0)
(3 1.11208e-15 0)
(3 -1.42551e-16 0)
(3 -9.30295e-16 0)
(3 -1.59611e-15 0)
(3 -1.41448e-15 0)
(3 -1.42913e-15 0)
(3 -1.55088e-15 0)
(3 -1.74417e-15 0)
(3 -1.08848e-15 0)
(3 -2.25011e-16 0)
(3 1.11798e-15 0)
(3 2.38308e-16 0)
(3 -9.47444e-19 0)
(3 -9.67138e-17 0)
(3 9.77463e-16 0)
(3 8.80429e-16 0)
(3 -2.92043e-16 0)
(3 -1.01995e-15 0)
(3 -2.60387e-15 0)
(3 -2.82217e-15 0)
(3 -1.47948e-15 0)
(3 -7.04606e-16 0)
(3 -1.32701e-15 0)
(3 -1.15238e-15 0)
(3 1.09774e-16 0)
(3 2.73668e-15 0)
(3 3.24911e-15 0)
(3 3.03612e-15 0)
(3 2.34871e-15 0)
(3 9.08958e-16 0)
(3 1.06711e-15 0)
(3 1.31226e-15 0)
(3 1.27079e-15 0)
(3 1.75112e-15 0)
(3 1.74611e-15 0)
(3 8.8634e-16 0)
(3 8.01365e-16 0)
(3 3.481e-16 0)
(3 -3.40743e-16 0)
(3 -5.96292e-16 0)
(3 8.88116e-16 0)
(3 1.01424e-15 0)
(3 1.07695e-15 0)
(3 1.04846e-15 0)
(3 1.76257e-15 0)
(3 1.96741e-15 0)
(3 2.09572e-15 0)
(3 2.06635e-15 0)
(3 2.0151e-15 0)