/*--------------------------------*- C++ -*----------------------------------*\
  =========                 |
  \\      /  F ield         | OpenFOAM: The Open Source CFD Toolbox
   \\    /   O peration     | Website:  https://openfoam.org
    \\  /    A nd           | Version:  7
     \\/     M anipulation  |
\*---------------------------------------------------------------------------*/
FoamFile
{
    version     2.0;
    format      ascii;
    class       volVectorField;
    location    "0.7";
    object      U;
}
// * * * * * * * * * * * * * * * * * * * * * * * * * * * * * * * * * * * * * //

dimensions      [0 1 -1 0 0 0 0];

internalField   nonuniform List<vector> 
73728
(
(3 3.70235e-18 0)
(3 2.46232e-17 0)
(3 -1.31905e-18 0)
(3 -3.16697e-16 0)
(3 -1.56011e-16 0)
(3 1.98245e-16 0)
(3 5.85664e-16 0)
(3 6.52074e-16 0)
(3 4.83944e-16 0)
(3 2.81689e-16 0)
(3 -4.34044e-16 0)
(3 -6.22695e-16 0)
(3 -4.61229e-16 0)
(3 -4.6875e-16 0)
(3 -9.08241e-16 0)
(3 -1.78351e-15 0)
(3 -1.57553e-15 0)
(3 -5.12009e-16 0)
(3 1.36347e-16 0)
(3 1.01022e-15 0)
(3 7.81312e-16 0)
(3 2.17236e-16 0)
(3 -2.09803e-16 0)
(3 1.74241e-16 0)
(3 -3.74712e-16 0)
(3 -8.75916e-16 0)
(3 -9.32432e-16 0)
(3 -1.36938e-15 0)
(3 -1.61742e-15 0)
(3 -1.70434e-15 0)
(3 -1.5074e-15 0)
(3 -7.33723e-16 0)
(3 -7.58015e-16 0)
(3 -6.10075e-16 0)
(3 -7.19774e-17 0)
(3 -1.15654e-16 0)
(3 -2.93284e-16 0)
(3 3.89511e-16 0)
(3 6.21047e-16 0)
(3 7.22937e-16 0)
(3 1.14631e-15 0)
(3 1.26957e-15 0)
(3 1.18081e-15 0)
(3 1.54179e-15 0)
(3 1.94004e-15 0)
(3 2.97589e-16 0)
(3 -1.98287e-16 0)
(3 -7.73588e-16 0)
(3 -2.45303e-15 0)
(3 -1.15083e-15 0)
(3 2.18453e-16 0)
(3 6.80093e-16 0)
(3 5.46321e-16 0)
(3 -2.11163e-16 0)
(3 3.18107e-16 0)
(3 1.10016e-15 0)
(3 1.1168e-15 0)
(3 7.92518e-16 0)
(3 5.64869e-16 0)
(3 2.88548e-16 0)
(3 -7.91971e-17 0)
(3 1.01527e-15 0)
(3 2.02567e-15 0)
(3 1.80759e-15 0)
(3 9.93671e-16 0)
(3 4.56143e-16 0)
(3 2.91429e-16 0)
(3 -4.24346e-16 0)
(3 -8.35619e-16 0)
(3 -3.1638e-16 0)
(3 2.64872e-16 0)
(3 2.42198e-16 0)
(3 3.91523e-16 0)
(3 9.43978e-16 0)
(3 1.64053e-15 0)
(3 1.79011e-15 0)
(3 1.21458e-15 0)
(3 1.80741e-16 0)
(3 -2.07741e-16 0)
(3 -1.82776e-16 0)
(3 -7.44014e-16 0)
(3 -1.18123e-15 0)
(3 -9.83899e-16 0)
(3 -1.31608e-15 0)
(3 -2.25883e-15 0)
(3 -2.17064e-15 0)
(3 -1.08529e-15 0)
(3 -2.59299e-16 0)
(3 -7.61566e-16 0)
(3 -1.25667e-15 0)
(3 -1.63688e-15 0)
(3 -1.94618e-15 0)
(3 -1.25164e-15 0)
(3 2.31032e-17 0)
(3 3.566e-16 0)
(3 -2.91075e-16 0)
(3 5.61348e-18 0)
(3 8.02526e-18 0)
(3 -7.22778e-17 0)
(3 -6.35005e-16 0)
(3 -2.84901e-16 0)
(3 6.80536e-16 0)
(3 1.49819e-15 0)
(3 1.68343e-15 0)
(3 1.54058e-15 0)
(3 1.00538e-15 0)
(3 -4.01336e-17 0)
(3 -4.74719e-16 0)
(3 -3.75136e-16 0)
(3 -2.65629e-16 0)
(3 -1.09725e-15 0)
(3 -1.92356e-15 0)
(3 -2.28014e-15 0)
(3 -5.09106e-16 0)
(3 2.02654e-16 0)
(3 1.55562e-15 0)
(3 1.53914e-15 0)
(3 4.60039e-16 0)
(3 1.02293e-16 0)
(3 2.82451e-16 0)
(3 -3.21313e-16 0)
(3 -1.94292e-15 0)
(3 -1.95479e-15 0)
(3 -1.9852e-15 0)
(3 -1.92032e-15 0)
(3 -1.69762e-15 0)
(3 -2.3817e-15 0)
(3 -1.07761e-15 0)
(3 3.19004e-16 0)
(3 1.43953e-15 0)
(3 1.93991e-15 0)
(3 1.01735e-15 0)
(3 7.5296e-16 0)
(3 1.04054e-15 0)
(3 1.17123e-15 0)
(3 1.18896e-15 0)
(3 7.32745e-16 0)
(3 8.38275e-16 0)
(3 8.26071e-16 0)
(3 1.26751e-15 0)
(3 1.61747e-15 0)
(3 -1.96653e-16 0)
(3 -1.92373e-15 0)
(3 -3.46333e-15 0)
(3 -5.17917e-15 0)
(3 -2.39462e-15 0)
(3 6.76208e-16 0)
(3 3.55488e-16 0)
(3 -1.99418e-16 0)
(3 -6.31369e-16 0)
(3 3.29349e-16 0)
(3 1.74658e-15 0)
(3 2.43129e-15 0)
(3 1.93024e-15 0)
(3 1.15997e-15 0)
(3 3.23223e-16 0)
(3 8.26402e-16 0)
(3 2.48219e-15 0)
(3 4.64253e-15 0)
(3 4.08379e-15 0)
(3 1.83132e-15 0)
(3 9.73442e-16 0)
(3 9.21411e-16 0)
(3 5.52513e-16 0)
(3 -4.4017e-16 0)
(3 -7.49662e-16 0)
(3 5.58877e-16 0)
(3 1.0518e-15 0)
(3 7.74532e-16 0)
(3 1.49413e-15 0)
(3 1.23778e-15 0)
(3 1.00336e-15 0)
(3 -1.14216e-15 0)
(3 -2.83219e-15 0)
(3 -2.43975e-15 0)
(3 -1.55505e-15 0)
(3 -1.66556e-15 0)
(3 -1.87115e-15 0)
(3 -2.17067e-15 0)
(3 -2.9356e-15 0)
(3 -3.45598e-15 0)
(3 -3.54283e-15 0)
(3 -3.35143e-15 0)
(3 -2.29603e-15 0)
(3 -2.13329e-15 0)
(3 -3.08696e-15 0)
(3 -3.28484e-15 0)
(3 -2.63117e-15 0)
(3 -1.87089e-15 0)
(3 7.96169e-18 0)
(3 8.52003e-16 0)
(3 -6.43044e-16 0)
(3 -2.72175e-18 0)
(3 -3.50258e-16 0)
(3 -1.12274e-16 0)
(3 8.58707e-19 0)
(3 4.31899e-16 0)
(3 7.00611e-16 0)
(3 7.43898e-16 0)
(3 9.19438e-16 0)
(3 1.1628e-15 0)
(3 1.20652e-15 0)
(3 1.90978e-15 0)
(3 1.74737e-15 0)
(3 5.0877e-16 0)
(3 3.40504e-16 0)
(3 -4.87499e-16 0)
(3 -1.10909e-15 0)
(3 -4.93116e-16 0)
(3 2.38135e-16 0)
(3 1.07899e-15 0)
(3 1.3541e-15 0)
(3 1.33426e-15 0)
(3 5.82596e-16 0)
(3 5.99295e-16 0)
(3 7.57026e-16 0)
(3 -1.513e-16 0)
(3 -1.81937e-15 0)
(3 -2.55807e-15 0)
(3 -2.36497e-15 0)
(3 -1.62107e-15 0)
(3 -1.40763e-15 0)
(3 -1.74247e-15 0)
(3 -1.17545e-15 0)
(3 1.67254e-15 0)
(3 2.58061e-15 0)
(3 2.49023e-15 0)
(3 1.86478e-15 0)
(3 1.90914e-15 0)
(3 9.85761e-16 0)
(3 6.32269e-16 0)
(3 -6.51077e-17 0)
(3 -1.6168e-15 0)
(3 -1.76577e-15 0)
(3 -5.3875e-16 0)
(3 9.83354e-16 0)
(3 1.68783e-15 0)
(3 3.44305e-16 0)
(3 -3.62224e-16 0)
(3 -2.50817e-15 0)
(3 -4.39041e-15 0)
(3 -4.09277e-15 0)
(3 -2.85294e-15 0)
(3 -2.77029e-15 0)
(3 -3.18548e-15 0)
(3 -1.3247e-15 0)
(3 8.04194e-16 0)
(3 1.35111e-15 0)
(3 1.68584e-15 0)
(3 1.35987e-15 0)
(3 1.42758e-15 0)
(3 8.46941e-16 0)
(3 1.69201e-15 0)
(3 4.69346e-15 0)
(3 6.43866e-15 0)
(3 6.20079e-15 0)
(3 5.15528e-15 0)
(3 3.15152e-15 0)
(3 8.67465e-16 0)
(3 -2.28979e-16 0)
(3 -1.84424e-15 0)
(3 -8.64878e-16 0)
(3 1.68409e-15 0)
(3 2.63848e-15 0)
(3 2.50762e-15 0)
(3 1.15214e-15 0)
(3 6.27689e-17 0)
(3 -1.30795e-15 0)
(3 -1.81944e-15 0)
(3 -2.12521e-15 0)
(3 -2.3046e-15 0)
(3 -2.10719e-15 0)
(3 -1.74666e-15 0)
(3 -2.15834e-15 0)
(3 -2.72865e-15 0)
(3 -4.17022e-15 0)
(3 -4.17935e-15 0)
(3 -5.96553e-15 0)
(3 -7.03865e-15 0)
(3 -5.94684e-15 0)
(3 -4.24554e-15 0)
(3 -4.96782e-15 0)
(3 -4.25368e-15 0)
(3 -3.52056e-15 0)
(3 -2.37492e-15 0)
(3 -1.08842e-15 0)
(3 1.24249e-15 0)
(3 -3.91439e-17 0)
(3 -2.8962e-17 0)
(3 -1.48164e-16 0)
(3 -1.10469e-16 0)
(3 2.06582e-16 0)
(3 3.3489e-16 0)
(3 2.85448e-16 0)
(3 4.29595e-16 0)
(3 8.28819e-16 0)
(3 1.04328e-15 0)
(3 1.28802e-15 0)
(3 1.33268e-15 0)
(3 1.17115e-15 0)
(3 6.50131e-16 0)
(3 -2.67441e-16 0)
(3 -3.509e-16 0)
(3 -2.17803e-16 0)
(3 9.33595e-16 0)
(3 1.11534e-15 0)
(3 1.90002e-15 0)
(3 1.90263e-15 0)
(3 1.47719e-15 0)
(3 4.66896e-16 0)
(3 1.28627e-16 0)
(3 1.00295e-15 0)
(3 1.57109e-15 0)
(3 -1.59436e-16 0)
(3 -6.57071e-16 0)
(3 -1.07597e-15 0)
(3 -1.14129e-15 0)
(3 -1.31172e-15 0)
(3 -8.45506e-16 0)
(3 2.36866e-16 0)
(3 -2.47914e-16 0)
(3 -6.25088e-16 0)
(3 5.74762e-17 0)
(3 9.9488e-16 0)
(3 1.00358e-15 0)
(3 4.62002e-16 0)
(3 2.0767e-16 0)
(3 -7.60742e-16 0)
(3 -1.56729e-15 0)
(3 -1.60654e-15 0)
(3 -8.8396e-16 0)
(3 5.08575e-16 0)
(3 1.03152e-16 0)
(3 -5.60592e-16 0)
(3 -7.15409e-16 0)
(3 -2.04007e-15 0)
(3 -3.12878e-15 0)
(3 -3.45181e-15 0)
(3 -2.88896e-15 0)
(3 -1.39391e-15 0)
(3 -6.4406e-16 0)
(3 1.04274e-15 0)
(3 1.2611e-15 0)
(3 8.39665e-16 0)
(3 2.73785e-16 0)
(3 1.98031e-16 0)
(3 1.13972e-15 0)
(3 3.58852e-15 0)
(3 3.75734e-15 0)
(3 4.39264e-15 0)
(3 4.82242e-15 0)
(3 5.08328e-15 0)
(3 4.75995e-15 0)
(3 3.51731e-15 0)
(3 -6.05142e-16 0)
(3 -2.0495e-15 0)
(3 -2.50559e-15 0)
(3 -5.80832e-16 0)
(3 1.21637e-15 0)
(3 1.70124e-15 0)
(3 1.28618e-15 0)
(3 6.02255e-16 0)
(3 -1.14717e-15 0)
(3 -2.29328e-15 0)
(3 -2.06799e-15 0)
(3 -8.04986e-16 0)
(3 -1.06874e-15 0)
(3 -1.45546e-15 0)
(3 -1.56756e-15 0)
(3 -2.38247e-15 0)
(3 -3.52585e-15 0)
(3 -4.1646e-15 0)
(3 -5.84638e-15 0)
(3 -7.19204e-15 0)
(3 -6.14401e-15 0)
(3 -4.87574e-15 0)
(3 -3.95416e-15 0)
(3 -3.47986e-15 0)
(3 -2.93659e-15 0)
(3 -2.49876e-15 0)
(3 -1.94076e-15 0)
(3 -1.6298e-15 0)
(3 7.35644e-16 0)
(3 -2.28556e-16 0)
(3 7.87237e-17 0)
(3 4.40751e-16 0)
(3 3.15353e-17 0)
(3 -3.84478e-16 0)
(3 -4.04534e-16 0)
(3 3.37506e-16 0)
(3 7.20008e-16 0)
(3 8.54989e-16 0)
(3 1.35109e-15 0)
(3 1.25075e-15 0)
(3 3.38077e-16 0)
(3 5.73821e-18 0)
(3 2.25491e-16 0)
(3 -3.13256e-16 0)
(3 -5.04847e-16 0)
(3 3.7788e-19 0)
(3 4.65684e-16 0)
(3 6.79691e-16 0)
(3 1.78477e-15 0)
(3 1.71213e-15 0)
(3 1.73229e-15 0)
(3 1.52532e-15 0)
(3 3.74075e-16 0)
(3 2.82176e-16 0)
(3 6.29705e-16 0)
(3 3.39257e-16 0)
(3 2.01397e-16 0)
(3 -3.52821e-16 0)
(3 -4.62948e-16 0)
(3 -2.89203e-16 0)
(3 -1.98578e-16 0)
(3 -3.59428e-17 0)
(3 -7.5196e-16 0)
(3 -1.04564e-15 0)
(3 -6.51564e-16 0)
(3 9.01742e-16 0)
(3 1.55234e-15 0)
(3 1.09834e-15 0)
(3 5.8476e-16 0)
(3 -6.8494e-17 0)
(3 -1.52251e-15 0)
(3 -1.89053e-15 0)
(3 -8.85152e-16 0)
(3 -7.43429e-16 0)
(3 -3.42828e-16 0)
(3 -3.12776e-16 0)
(3 -8.59701e-16 0)
(3 -5.61921e-16 0)
(3 -3.81938e-16 0)
(3 -7.88617e-16 0)
(3 -7.42497e-16 0)
(3 1.29016e-15 0)
(3 2.45154e-15 0)
(3 2.9963e-15 0)
(3 1.24288e-15 0)
(3 3.75224e-16 0)
(3 -8.36525e-16 0)
(3 -1.69077e-15 0)
(3 -1.87226e-15 0)
(3 5.54588e-16 0)
(3 2.64642e-15 0)
(3 3.91357e-15 0)
(3 3.82424e-15 0)
(3 5.01589e-15 0)
(3 5.51374e-15 0)
(3 3.22389e-15 0)
(3 2.38152e-15 0)
(3 -2.30536e-16 0)
(3 -9.73817e-16 0)
(3 -4.51268e-16 0)
(3 -1.50592e-16 0)
(3 -2.17124e-16 0)
(3 -2.12097e-16 0)
(3 -8.13201e-16 0)
(3 -1.79708e-15 0)
(3 -2.17863e-15 0)
(3 -1.81528e-15 0)
(3 -1.04248e-15 0)
(3 -1.23098e-15 0)
(3 -2.54521e-15 0)
(3 -3.66715e-15 0)
(3 -4.2728e-15 0)
(3 -4.05838e-15 0)
(3 -2.83488e-15 0)
(3 -4.8342e-15 0)
(3 -6.54012e-15 0)
(3 -5.91685e-15 0)
(3 -3.77489e-15 0)
(3 -2.29552e-15 0)
(3 -1.69631e-15 0)
(3 -1.75114e-15 0)
(3 -1.83989e-15 0)
(3 -1.26985e-15 0)
(3 -1.24608e-15 0)
(3 -1.26114e-15 0)
(3 -1.3848e-16 0)
(3 -5.36505e-17 0)
(3 -7.27333e-17 0)
(3 -1.97502e-17 0)
(3 -2.60659e-16 0)
(3 -4.39818e-16 0)
(3 2.34815e-16 0)
(3 5.9492e-16 0)
(3 8.70029e-16 0)
(3 1.05231e-15 0)
(3 4.29598e-16 0)
(3 -5.53516e-17 0)
(3 -1.71713e-16 0)
(3 -4.04982e-16 0)
(3 -5.79943e-16 0)
(3 -4.39329e-16 0)
(3 3.34546e-16 0)
(3 3.48221e-16 0)
(3 1.92246e-16 0)
(3 3.3118e-16 0)
(3 6.90524e-16 0)
(3 1.38784e-15 0)
(3 1.85223e-15 0)
(3 1.45801e-15 0)
(3 7.52005e-16 0)
(3 -6.13161e-16 0)
(3 -7.96297e-16 0)
(3 -1.06909e-15 0)
(3 -8.88016e-16 0)
(3 -8.00244e-16 0)
(3 -6.25719e-16 0)
(3 -7.98245e-16 0)
(3 -8.58077e-16 0)
(3 -6.60188e-16 0)
(3 1.34651e-16 0)
(3 7.3896e-16 0)
(3 1.29068e-15 0)
(3 1.58971e-15 0)
(3 1.79162e-15 0)
(3 9.7154e-16 0)
(3 1.05724e-16 0)
(3 -8.49789e-16 0)
(3 -2.03835e-15 0)
(3 -1.38354e-15 0)
(3 1.18854e-16 0)
(3 5.65334e-16 0)
(3 2.3757e-16 0)
(3 3.00606e-16 0)
(3 5.50491e-16 0)
(3 1.38566e-15 0)
(3 3.94276e-16 0)
(3 5.18456e-16 0)
(3 1.20182e-15 0)
(3 1.25138e-15 0)
(3 1.80125e-15 0)
(3 5.34532e-16 0)
(3 -4.40198e-16 0)
(3 -1.34901e-15 0)
(3 -1.32396e-15 0)
(3 -2.01098e-15 0)
(3 -8.19985e-16 0)
(3 1.4375e-15 0)
(3 3.22133e-15 0)
(3 3.42566e-15 0)
(3 4.81563e-15 0)
(3 5.10221e-15 0)
(3 4.97669e-15 0)
(3 5.34307e-15 0)
(3 3.82814e-15 0)
(3 1.64937e-15 0)
(3 3.90435e-16 0)
(3 -3.91883e-16 0)
(3 -3.75997e-16 0)
(3 5.05799e-16 0)
(3 -7.21585e-16 0)
(3 -2.20887e-15 0)
(3 -2.66285e-15 0)
(3 -2.03879e-15 0)
(3 -2.15922e-15 0)
(3 -2.56892e-15 0)
(3 -2.84898e-15 0)
(3 -3.16194e-15 0)
(3 -2.53103e-15 0)
(3 -1.99263e-15 0)
(3 -2.63474e-15 0)
(3 -4.15906e-15 0)
(3 -4.15244e-15 0)
(3 -4.73772e-15 0)
(3 -4.46328e-15 0)
(3 -4.38235e-15 0)
(3 -4.26688e-15 0)
(3 -4.34469e-15 0)
(3 -4.45022e-15 0)
(3 -3.93829e-15 0)
(3 -1.71266e-15 0)
(3 -8.11818e-16 0)
(3 1.82913e-15 0)
(3 -2.6042e-16 0)
(3 -7.48549e-16 0)
(3 -2.2026e-16 0)
(3 -2.41701e-16 0)
(3 3.3859e-16 0)
(3 9.6628e-18 0)
(3 5.68089e-17 0)
(3 5.58966e-16 0)
(3 -9.61459e-17 0)
(3 -8.10953e-16 0)
(3 -6.8709e-16 0)
(3 -8.973e-16 0)
(3 -7.06427e-16 0)
(3 5.4473e-17 0)
(3 8.76353e-16 0)
(3 1.26647e-15 0)
(3 9.81871e-16 0)
(3 4.92487e-18 0)
(3 -8.67013e-16 0)
(3 -7.22093e-16 0)
(3 -3.47932e-16 0)
(3 3.05291e-16 0)
(3 6.9638e-16 0)
(3 8.54388e-16 0)
(3 8.83604e-16 0)
(3 3.5817e-16 0)
(3 3.8706e-16 0)
(3 4.83021e-16 0)
(3 2.03099e-17 0)
(3 -3.33509e-16 0)
(3 -5.97816e-16 0)
(3 -6.37116e-16 0)
(3 -1.43323e-16 0)
(3 3.53458e-16 0)
(3 2.02563e-16 0)
(3 6.73365e-17 0)
(3 1.97373e-16 0)
(3 -1.03544e-16 0)
(3 -3.4167e-16 0)
(3 -5.71014e-16 0)
(3 -3.98141e-16 0)
(3 -9.0407e-16 0)
(3 -1.47519e-15 0)
(3 1.41783e-15 0)
(3 2.17934e-15 0)
(3 2.41873e-15 0)
(3 2.52121e-15 0)
(3 2.35055e-15 0)
(3 2.53181e-15 0)
(3 1.88231e-15 0)
(3 7.02841e-16 0)
(3 -4.26218e-16 0)
(3 -4.69853e-16 0)
(3 -9.70891e-16 0)
(3 -1.15775e-15 0)
(3 -6.36186e-16 0)
(3 3.40221e-16 0)
(3 1.1464e-15 0)
(3 2.22949e-16 0)
(3 -7.39682e-16 0)
(3 1.03768e-15 0)
(3 1.56437e-15 0)
(3 2.41229e-15 0)
(3 1.98719e-15 0)
(3 2.52586e-15 0)
(3 4.90621e-15 0)
(3 5.53486e-15 0)
(3 4.55872e-15 0)
(3 2.67832e-15 0)
(3 4.51861e-16 0)
(3 -5.1831e-16 0)
(3 -1.06099e-15 0)
(3 -6.32854e-16 0)
(3 -1.38698e-15 0)
(3 -2.13231e-15 0)
(3 -2.16455e-15 0)
(3 -2.53198e-15 0)
(3 -2.55026e-15 0)
(3 -3.34717e-15 0)
(3 -3.73264e-15 0)
(3 -3.32747e-15 0)
(3 -2.74273e-15 0)
(3 -1.64675e-15 0)
(3 -4.2305e-15 0)
(3 -6.50764e-15 0)
(3 -5.97793e-15 0)
(3 -4.91806e-15 0)
(3 -4.16644e-15 0)
(3 -3.95668e-15 0)
(3 -5.12001e-15 0)
(3 -5.49513e-15 0)
(3 -3.864e-15 0)
(3 -3.25892e-15 0)
(3 -1.67238e-15 0)
(3 -6.08114e-16 0)
(3 7.77662e-16 0)
(3 -2.45266e-17 0)
(3 1.35609e-16 0)
(3 8.97506e-17 0)
(3 3.28475e-16 0)
(3 6.29276e-16 0)
(3 3.98684e-16 0)
(3 -5.09418e-16 0)
(3 -9.41013e-16 0)
(3 -1.15667e-15 0)
(3 -7.4634e-16 0)
(3 4.42978e-17 0)
(3 5.26144e-16 0)
(3 9.58438e-16 0)
(3 1.02994e-15 0)
(3 1.13836e-15 0)
(3 3.07819e-16 0)
(3 -3.4525e-16 0)
(3 -6.051e-16 0)
(3 -8.66011e-16 0)
(3 -1.00965e-15 0)
(3 -5.41516e-16 0)
(3 -1.78e-16 0)
(3 6.09453e-16 0)
(3 1.08205e-15 0)
(3 1.41651e-15 0)
(3 9.18744e-16 0)
(3 1.43647e-15 0)
(3 2.13707e-15 0)
(3 1.81309e-15 0)
(3 1.16404e-15 0)
(3 4.898e-16 0)
(3 -1.81578e-16 0)
(3 -6.83815e-17 0)
(3 -3.83467e-16 0)
(3 -7.82257e-16 0)
(3 -4.67035e-16 0)
(3 -1.26058e-16 0)
(3 -4.37015e-16 0)
(3 -4.56728e-16 0)
(3 -6.35746e-16 0)
(3 -5.78002e-16 0)
(3 -7.77891e-16 0)
(3 -8.33919e-16 0)
(3 7.81791e-16 0)
(3 1.5889e-15 0)
(3 2.70414e-15 0)
(3 2.61778e-15 0)
(3 1.88155e-15 0)
(3 1.45753e-15 0)
(3 1.00395e-15 0)
(3 -1.12338e-15 0)
(3 -2.41856e-15 0)
(3 -2.37981e-15 0)
(3 -2.74779e-15 0)
(3 -2.3694e-15 0)
(3 4.23549e-16 0)
(3 1.70969e-15 0)
(3 1.61091e-15 0)
(3 1.32687e-15 0)
(3 2.79892e-16 0)
(3 6.64419e-16 0)
(3 9.38634e-16 0)
(3 1.26994e-15 0)
(3 4.94021e-16 0)
(3 -6.53471e-16 0)
(3 1.98258e-15 0)
(3 4.0615e-15 0)
(3 4.44328e-15 0)
(3 2.33032e-15 0)
(3 7.48875e-16 0)
(3 -5.07882e-17 0)
(3 -5.16405e-16 0)
(3 -1.25018e-15 0)
(3 -1.70747e-15 0)
(3 -1.12179e-15 0)
(3 -9.93544e-16 0)
(3 -2.23522e-15 0)
(3 -3.2561e-15 0)
(3 -2.91241e-15 0)
(3 -3.8437e-15 0)
(3 -3.84391e-15 0)
(3 -3.42847e-15 0)
(3 -3.15966e-15 0)
(3 -4.37131e-15 0)
(3 -4.08578e-15 0)
(3 -3.77384e-15 0)
(3 -3.07557e-15 0)
(3 -3.86931e-15 0)
(3 -4.15085e-15 0)
(3 -4.05411e-15 0)
(3 -3.43531e-15 0)
(3 -1.93318e-15 0)
(3 -1.52752e-15 0)
(3 -1.68681e-15 0)
(3 -8.86529e-16 0)
(3 -1.03108e-15 0)
(3 5.45828e-16 0)
(3 1.0886e-15 0)
(3 6.97379e-16 0)
(3 9.05931e-16 0)
(3 7.31448e-16 0)
(3 3.65691e-16 0)
(3 1.08891e-16 0)
(3 -5.5479e-16 0)
(3 -7.62251e-16 0)
(3 4.47833e-16 0)
(3 1.2725e-15 0)
(3 1.62892e-15 0)
(3 1.22069e-15 0)
(3 8.51685e-16 0)
(3 -1.85965e-16 0)
(3 -1.07481e-15 0)
(3 -1.1372e-15 0)
(3 -4.86223e-16 0)
(3 -2.60022e-16 0)
(3 1.44639e-16 0)
(3 5.81244e-16 0)
(3 6.36343e-16 0)
(3 1.45912e-15 0)
(3 1.36689e-15 0)
(3 6.55354e-16 0)
(3 2.40466e-16 0)
(3 2.80055e-16 0)
(3 6.29677e-16 0)
(3 1.09074e-15 0)
(3 -1.07355e-16 0)
(3 -5.80193e-16 0)
(3 -2.41988e-15 0)
(3 -2.65279e-15 0)
(3 -2.36472e-15 0)
(3 -1.56513e-15 0)
(3 -1.14345e-15 0)
(3 -9.36228e-16 0)
(3 -6.19768e-16 0)
(3 -3.81308e-16 0)
(3 -5.51499e-16 0)
(3 -5.504e-17 0)
(3 -4.37686e-16 0)
(3 -4.10421e-16 0)
(3 -3.0301e-16 0)
(3 3.27899e-16 0)
(3 8.33975e-16 0)
(3 1.00159e-15 0)
(3 8.06515e-16 0)
(3 2.39771e-16 0)
(3 -8.00718e-16 0)
(3 -2.16253e-15 0)
(3 -2.67852e-15 0)
(3 -2.81139e-15 0)
(3 -1.45267e-15 0)
(3 -1.0765e-15 0)
(3 -1.30121e-15 0)
(3 -9.03045e-16 0)
(3 -4.10053e-16 0)
(3 -8.24458e-16 0)
(3 -1.76444e-15 0)
(3 -1.24803e-15 0)
(3 -7.43463e-17 0)
(3 -1.37932e-16 0)
(3 -5.71305e-16 0)
(3 -1.62671e-16 0)
(3 2.27499e-15 0)
(3 2.65369e-15 0)
(3 2.9834e-15 0)
(3 2.67422e-15 0)
(3 1.87479e-15 0)
(3 1.40066e-16 0)
(3 -1.01249e-15 0)
(3 -9.91281e-16 0)
(3 -8.77235e-16 0)
(3 -1.82496e-15 0)
(3 -2.8674e-15 0)
(3 -2.67574e-15 0)
(3 -2.79211e-15 0)
(3 -2.90178e-15 0)
(3 -2.24417e-15 0)
(3 -1.94679e-15 0)
(3 -2.12721e-15 0)
(3 -3.45381e-15 0)
(3 -4.43238e-15 0)
(3 -3.48954e-15 0)
(3 -2.50699e-15 0)
(3 -2.8134e-15 0)
(3 -4.01551e-15 0)
(3 -3.64093e-15 0)
(3 -2.74789e-15 0)
(3 -1.052e-15 0)
(3 9.26146e-16 0)
(3 7.152e-16 0)
(3 -7.94979e-17 0)
(3 -1.09187e-15 0)
(3 -1.87901e-15 0)
(3 1.01159e-16 0)
(3 1.54836e-16 0)
(3 6.36224e-17 0)
(3 -2.76423e-16 0)
(3 -1.781e-16 0)
(3 -2.96854e-16 0)
(3 7.42017e-17 0)
(3 3.73639e-16 0)
(3 5.84062e-16 0)
(3 8.87314e-16 0)
(3 1.31799e-15 0)
(3 1.0869e-15 0)
(3 7.68705e-16 0)
(3 9.06556e-16 0)
(3 5.08464e-16 0)
(3 -4.921e-16 0)
(3 -7.32149e-16 0)
(3 -8.20629e-16 0)
(3 4.46176e-16 0)
(3 1.83364e-15 0)
(3 2.59701e-15 0)
(3 2.41679e-15 0)
(3 1.16857e-15 0)
(3 7.51818e-16 0)
(3 6.71952e-16 0)
(3 5.86067e-16 0)
(3 -2.38064e-18 0)
(3 1.39277e-16 0)
(3 8.69386e-16 0)
(3 4.99654e-16 0)
(3 9.3283e-16 0)
(3 7.42086e-16 0)
(3 -1.17733e-15 0)
(3 -2.07889e-15 0)
(3 -1.81095e-15 0)
(3 -2.11286e-15 0)
(3 -2.58031e-15 0)
(3 -2.82395e-15 0)
(3 -2.3681e-15 0)
(3 -1.2988e-15 0)
(3 2.06137e-17 0)
(3 2.44148e-16 0)
(3 -7.5946e-17 0)
(3 3.51947e-16 0)
(3 7.22166e-16 0)
(3 2.58109e-16 0)
(3 -2.71832e-17 0)
(3 -2.64563e-16 0)
(3 -5.27401e-16 0)
(3 -1.47084e-15 0)
(3 -1.91154e-15 0)
(3 -1.31817e-15 0)
(3 -1.52466e-15 0)
(3 -1.19311e-15 0)
(3 -1.49962e-15 0)
(3 -1.95875e-15 0)
(3 -2.04485e-15 0)
(3 -1.64213e-15 0)
(3 -1.73132e-15 0)
(3 -1.60678e-15 0)
(3 -3.2165e-15 0)
(3 -3.28145e-15 0)
(3 -2.22164e-15 0)
(3 -1.56719e-15 0)
(3 -2.19498e-17 0)
(3 8.11795e-16 0)
(3 4.56826e-16 0)
(3 1.65685e-15 0)
(3 3.23527e-15 0)
(3 2.08041e-15 0)
(3 8.70729e-16 0)
(3 -6.39498e-16 0)
(3 -3.598e-16 0)
(3 -1.33688e-16 0)
(3 -9.7319e-16 0)
(3 -1.39056e-15 0)
(3 -1.08568e-15 0)
(3 -1.03243e-15 0)
(3 -1.50757e-15 0)
(3 -1.27038e-15 0)
(3 -9.41165e-16 0)
(3 -9.276e-16 0)
(3 -1.49139e-15 0)
(3 -3.372e-15 0)
(3 -4.95257e-15 0)
(3 -5.5245e-15 0)
(3 -6.11889e-15 0)
(3 -6.43537e-15 0)
(3 -3.99854e-15 0)
(3 -1.5162e-15 0)
(3 -7.5062e-17 0)
(3 4.33525e-16 0)
(3 -2.34375e-16 0)
(3 -1.077e-15 0)
(3 -6.71074e-16 0)
(3 -3.95986e-16 0)
(3 -2.09846e-16 0)
(3 -3.61798e-16 0)
(3 -1.50172e-16 0)
(3 2.44294e-17 0)
(3 -6.93847e-16 0)
(3 -3.14961e-16 0)
(3 -1.69503e-16 0)
(3 -2.58023e-16 0)
(3 -3.6445e-16 0)
(3 -3.92512e-16 0)
(3 -2.17193e-16 0)
(3 4.02629e-16 0)
(3 5.1433e-16 0)
(3 1.69431e-16 0)
(3 -1.56484e-16 0)
(3 -2.4283e-16 0)
(3 7.22779e-17 0)
(3 4.04779e-16 0)
(3 4.20479e-16 0)
(3 1.49354e-15 0)
(3 2.25688e-15 0)
(3 1.66691e-15 0)
(3 1.63982e-15 0)
(3 1.65692e-15 0)
(3 1.98912e-15 0)
(3 2.06689e-15 0)
(3 2.38252e-16 0)
(3 -8.29334e-16 0)
(3 -7.33113e-16 0)
(3 -4.42587e-16 0)
(3 1.12433e-15 0)
(3 1.29155e-15 0)
(3 5.67715e-16 0)
(3 6.81557e-16 0)
(3 -2.62019e-16 0)
(3 -9.00957e-16 0)
(3 -1.70266e-15 0)
(3 -2.52925e-15 0)
(3 -2.49387e-15 0)
(3 -1.59085e-15 0)
(3 -3.74523e-17 0)
(3 5.53884e-16 0)
(3 8.02269e-16 0)
(3 4.48548e-16 0)
(3 2.36187e-16 0)
(3 -1.53839e-17 0)
(3 -5.86851e-16 0)
(3 -1.01507e-15 0)
(3 -2.11233e-15 0)
(3 -2.19954e-15 0)
(3 -1.38893e-15 0)
(3 -9.63534e-16 0)
(3 -1.34919e-16 0)
(3 -2.90367e-16 0)
(3 -8.55968e-16 0)
(3 -1.20422e-15 0)
(3 -1.53713e-15 0)
(3 -1.70795e-15 0)
(3 -1.97602e-15 0)
(3 -2.37331e-15 0)
(3 -2.87214e-15 0)
(3 -3.03293e-15 0)
(3 -2.01483e-15 0)
(3 -1.72926e-15 0)
(3 -9.7011e-16 0)
(3 -1.05611e-15 0)
(3 -2.69014e-16 0)
(3 3.53582e-16 0)
(3 1.53294e-15 0)
(3 -4.96611e-16 0)
(3 4.72185e-16 0)
(3 1.53313e-15 0)
(3 8.30802e-16 0)
(3 -1.32579e-16 0)
(3 1.0574e-15 0)
(3 1.64756e-15 0)
(3 1.97411e-15 0)
(3 2.37336e-15 0)
(3 2.12164e-15 0)
(3 1.55884e-15 0)
(3 1.01282e-15 0)
(3 1.13283e-15 0)
(3 1.40913e-15 0)
(3 -8.07946e-16 0)
(3 -4.21474e-15 0)
(3 -6.97797e-15 0)
(3 -7.91298e-15 0)
(3 -6.90848e-15 0)
(3 -6.01802e-15 0)
(3 -2.51224e-15 0)
(3 -4.65226e-16 0)
(3 -4.52987e-16 0)
(3 -4.77997e-16 0)
(3 -3.40742e-16 0)
(3 3.69622e-16 0)
(3 1.53003e-16 0)
(3 1.7706e-16 0)
(3 1.24867e-16 0)
(3 3.32214e-16 0)
(3 1.05469e-15 0)
(3 8.18769e-16 0)
(3 7.67386e-16 0)
(3 -1.09911e-17 0)
(3 -7.51564e-16 0)
(3 -1.06741e-15 0)
(3 -1.19878e-15 0)
(3 -1.51083e-15 0)
(3 -1.87359e-15 0)
(3 -1.89416e-15 0)
(3 -2.57335e-15 0)
(3 -2.23544e-15 0)
(3 -1.24144e-15 0)
(3 5.92509e-16 0)
(3 1.58687e-15 0)
(3 1.36972e-15 0)
(3 1.04624e-15 0)
(3 3.55354e-16 0)
(3 1.18929e-15 0)
(3 1.82942e-15 0)
(3 1.7368e-15 0)
(3 1.83283e-15 0)
(3 1.77891e-15 0)
(3 9.45455e-16 0)
(3 -1.53598e-15 0)
(3 -2.29662e-15 0)
(3 -2.04978e-15 0)
(3 -1.91629e-15 0)
(3 -1.64144e-16 0)
(3 1.01098e-15 0)
(3 1.56305e-15 0)
(3 4.29356e-16 0)
(3 -2.88279e-16 0)
(3 -6.11838e-16 0)
(3 -1.05399e-15 0)
(3 -1.10835e-15 0)
(3 -5.04826e-17 0)
(3 9.17223e-16 0)
(3 2.08472e-15 0)
(3 2.04264e-15 0)
(3 1.11315e-15 0)
(3 3.49419e-16 0)
(3 4.22556e-16 0)
(3 -1.74945e-16 0)
(3 -1.24935e-15 0)
(3 -1.68934e-15 0)
(3 -1.90551e-15 0)
(3 -1.23336e-15 0)
(3 -6.37326e-16 0)
(3 7.52251e-16 0)
(3 3.50042e-16 0)
(3 3.46603e-17 0)
(3 -1.62736e-15 0)
(3 -2.89468e-15 0)
(3 -3.04822e-15 0)
(3 -2.46871e-15 0)
(3 -2.19543e-15 0)
(3 -1.49567e-15 0)
(3 -1.61738e-15 0)
(3 -1.49356e-15 0)
(3 -1.33867e-15 0)
(3 -1.41105e-15 0)
(3 -1.95053e-15 0)
(3 -2.73678e-15 0)
(3 -1.42711e-15 0)
(3 -2.12608e-15 0)
(3 -1.71216e-15 0)
(3 3.73381e-16 0)
(3 1.73481e-15 0)
(3 8.42474e-16 0)
(3 2.77023e-16 0)
(3 6.29821e-16 0)
(3 2.31785e-15 0)
(3 2.16538e-15 0)
(3 1.57619e-15 0)
(3 1.40734e-15 0)
(3 1.15615e-15 0)
(3 8.43637e-16 0)
(3 5.73266e-16 0)
(3 3.29301e-16 0)
(3 -2.50615e-16 0)
(3 -2.68631e-15 0)
(3 -5.83489e-15 0)
(3 -7.89516e-15 0)
(3 -7.24278e-15 0)
(3 -5.95469e-15 0)
(3 -3.79976e-15 0)
(3 -1.8328e-15 0)
(3 -1.65456e-15 0)
(3 -9.43915e-16 0)
(3 -3.8145e-16 0)
(3 -8.11997e-16 0)
(3 -1.34479e-15 0)
(3 -1.30513e-17 0)
(3 8.23737e-17 0)
(3 2.78549e-16 0)
(3 2.46756e-16 0)
(3 6.76955e-16 0)
(3 2.66538e-16 0)
(3 -3.67914e-17 0)
(3 -3.91894e-16 0)
(3 -5.72377e-16 0)
(3 -1.33953e-16 0)
(3 -1.54576e-15 0)
(3 -1.95926e-15 0)
(3 -1.60058e-15 0)
(3 -9.66592e-16 0)
(3 -6.03998e-16 0)
(3 -3.92152e-16 0)
(3 -5.60371e-17 0)
(3 4.89094e-16 0)
(3 8.51896e-16 0)
(3 5.77594e-16 0)
(3 6.12477e-16 0)
(3 7.76414e-16 0)
(3 6.84155e-16 0)
(3 7.15914e-16 0)
(3 6.62783e-16 0)
(3 8.59572e-16 0)
(3 1.116e-15 0)
(3 -1.20456e-16 0)
(3 -2.75212e-15 0)
(3 -3.28273e-15 0)
(3 -2.39882e-15 0)
(3 -3.04526e-17 0)
(3 1.71723e-15 0)
(3 1.4315e-15 0)
(3 1.60575e-17 0)
(3 1.32971e-17 0)
(3 9.486e-16 0)
(3 1.8491e-15 0)
(3 2.60477e-15 0)
(3 3.58269e-15 0)
(3 3.87442e-15 0)
(3 4.18098e-15 0)
(3 3.52747e-15 0)
(3 3.31699e-15 0)
(3 2.43502e-15 0)
(3 1.59386e-15 0)
(3 8.53297e-16 0)
(3 -8.51094e-17 0)
(3 -1.4058e-15 0)
(3 -2.47145e-15 0)
(3 -3.15882e-15 0)
(3 -9.10125e-16 0)
(3 4.92306e-16 0)
(3 3.96514e-16 0)
(3 4.36757e-17 0)
(3 -8.12456e-16 0)
(3 -2.06203e-15 0)
(3 -3.28282e-15 0)
(3 -3.22402e-15 0)
(3 -2.34031e-15 0)
(3 -2.32002e-15 0)
(3 -2.42103e-15 0)
(3 -2.47408e-15 0)
(3 -2.75193e-15 0)
(3 -3.02732e-15 0)
(3 -3.00937e-15 0)
(3 -4.10608e-15 0)
(3 -3.92055e-15 0)
(3 -2.04567e-15 0)
(3 4.4252e-16 0)
(3 1.09284e-15 0)
(3 1.69789e-16 0)
(3 -6.77042e-16 0)
(3 -2.4103e-15 0)
(3 -2.44553e-15 0)
(3 -3.59444e-16 0)
(3 4.98289e-16 0)
(3 2.65461e-16 0)
(3 -2.13554e-16 0)
(3 -3.43414e-16 0)
(3 1.45008e-16 0)
(3 9.96134e-16 0)
(3 1.31084e-15 0)
(3 8.75859e-16 0)
(3 -3.62644e-16 0)
(3 -1.77608e-15 0)
(3 -2.02128e-15 0)
(3 -4.389e-15 0)
(3 -4.47524e-15 0)
(3 -3.42318e-15 0)
(3 -2.45641e-15 0)
(3 -1.43274e-15 0)
(3 -1.20567e-15 0)
(3 -1.49087e-15 0)
(3 -2.4385e-15 0)
(3 -2.6354e-15 0)
(3 -1.50565e-16 0)
(3 -1.82216e-16 0)
(3 -1.08852e-16 0)
(3 -1.86935e-16 0)
(3 -6.08922e-17 0)
(3 2.34538e-18 0)
(3 3.78154e-16 0)
(3 6.12499e-16 0)
(3 7.09654e-17 0)
(3 -9.93613e-16 0)
(3 -1.0928e-15 0)
(3 -8.06832e-17 0)
(3 7.55617e-16 0)
(3 9.85219e-16 0)
(3 1.9873e-15 0)
(3 1.46546e-15 0)
(3 3.97264e-16 0)
(3 -9.57486e-16 0)
(3 -2.72494e-16 0)
(3 -6.36965e-17 0)
(3 2.04093e-16 0)
(3 -3.65629e-17 0)
(3 -2.29961e-16 0)
(3 -2.88661e-16 0)
(3 1.40959e-16 0)
(3 6.37597e-16 0)
(3 2.51621e-16 0)
(3 -1.50573e-15 0)
(3 -2.95313e-15 0)
(3 -3.05548e-15 0)
(3 -1.43193e-15 0)
(3 -8.29886e-16 0)
(3 6.9831e-17 0)
(3 4.99352e-16 0)
(3 1.52864e-15 0)
(3 1.64528e-15 0)
(3 2.09112e-15 0)
(3 2.51153e-15 0)
(3 2.95853e-15 0)
(3 3.08594e-15 0)
(3 2.77939e-15 0)
(3 2.21501e-15 0)
(3 1.77837e-15 0)
(3 1.63631e-15 0)
(3 1.49373e-15 0)
(3 5.36964e-16 0)
(3 4.94182e-16 0)
(3 -4.22989e-16 0)
(3 -1.98582e-15 0)
(3 -1.44952e-15 0)
(3 -1.05135e-15 0)
(3 -6.05121e-16 0)
(3 -6.5697e-16 0)
(3 -6.86111e-16 0)
(3 -1.9167e-15 0)
(3 -2.74165e-15 0)
(3 -2.84439e-15 0)
(3 -3.4457e-15 0)
(3 -4.17706e-15 0)
(3 -3.28263e-15 0)
(3 -2.86424e-15 0)
(3 -1.70828e-15 0)
(3 -2.68585e-15 0)
(3 -3.00991e-15 0)
(3 -3.487e-15 0)
(3 -4.02531e-15 0)
(3 -3.75717e-15 0)
(3 -2.7e-15 0)
(3 -7.06553e-16 0)
(3 1.18023e-15 0)
(3 1.75162e-15 0)
(3 5.19558e-16 0)
(3 -1.01774e-16 0)
(3 9.29184e-16 0)
(3 1.5834e-15 0)
(3 4.21811e-16 0)
(3 3.35056e-16 0)
(3 -1.09363e-16 0)
(3 -2.36302e-16 0)
(3 -2.65733e-17 0)
(3 3.06046e-16 0)
(3 4.60533e-16 0)
(3 1.32529e-15 0)
(3 2.14689e-15 0)
(3 3.42181e-15 0)
(3 3.52546e-15 0)
(3 3.1562e-15 0)
(3 1.68488e-15 0)
(3 -1.88528e-15 0)
(3 -1.95968e-15 0)
(3 -4.36415e-17 0)
(3 -1.02506e-16 0)
(3 -7.58896e-16 0)
(3 -1.57476e-15 0)
(3 -1.89674e-15 0)
(3 -1.0131e-15 0)
(3 -5.35302e-17 0)
(3 -9.86399e-17 0)
(3 -5.45787e-17 0)
(3 -3.88917e-17 0)
(3 -3.57353e-16 0)
(3 -1.13461e-17 0)
(3 5.62321e-16 0)
(3 5.96219e-16 0)
(3 6.23518e-16 0)
(3 2.1213e-16 0)
(3 -8.13103e-17 0)
(3 -3.53372e-16 0)
(3 -8.37742e-16 0)
(3 6.58986e-17 0)
(3 5.01046e-16 0)
(3 6.39221e-16 0)
(3 3.53423e-17 0)
(3 -5.23525e-16 0)
(3 -5.77253e-16 0)
(3 -1.81383e-16 0)
(3 -2.16992e-15 0)
(3 -2.11903e-15 0)
(3 -1.45451e-15 0)
(3 -3.38829e-16 0)
(3 4.83731e-16 0)
(3 6.43451e-16 0)
(3 -6.52732e-16 0)
(3 -1.6593e-15 0)
(3 -1.69076e-15 0)
(3 -1.24876e-15 0)
(3 -1.18541e-15 0)
(3 -3.32345e-16 0)
(3 2.50339e-16 0)
(3 5.22391e-16 0)
(3 7.64863e-16 0)
(3 1.81986e-15 0)
(3 1.86574e-15 0)
(3 1.50111e-15 0)
(3 1.78784e-15 0)
(3 2.02564e-15 0)
(3 1.50738e-15 0)
(3 7.33267e-16 0)
(3 3.6346e-16 0)
(3 1.30181e-16 0)
(3 3.39346e-16 0)
(3 2.3305e-16 0)
(3 -2.92963e-16 0)
(3 -5.55963e-16 0)
(3 -6.47142e-16 0)
(3 8.05972e-17 0)
(3 7.68383e-17 0)
(3 -3.28418e-16 0)
(3 -8.35848e-16 0)
(3 -1.33636e-15 0)
(3 -2.85673e-15 0)
(3 -2.85626e-15 0)
(3 -2.7223e-15 0)
(3 -2.93972e-15 0)
(3 -3.22157e-15 0)
(3 -3.72665e-15 0)
(3 -2.93155e-15 0)
(3 -1.17197e-15 0)
(3 -1.8933e-15 0)
(3 -2.2399e-15 0)
(3 -2.5191e-15 0)
(3 -2.94188e-15 0)
(3 -3.44878e-15 0)
(3 -1.20183e-15 0)
(3 1.42853e-15 0)
(3 3.28474e-15 0)
(3 2.96968e-15 0)
(3 1.95622e-15 0)
(3 8.7925e-16 0)
(3 2.64867e-15 0)
(3 4.97783e-15 0)
(3 2.82429e-15 0)
(3 -6.35557e-16 0)
(3 2.90925e-16 0)
(3 5.91884e-16 0)
(3 5.78423e-16 0)
(3 2.11518e-16 0)
(3 3.26607e-16 0)
(3 1.53007e-15 0)
(3 2.30532e-15 0)
(3 3.92601e-15 0)
(3 5.36426e-15 0)
(3 6.87336e-15 0)
(3 5.325e-15 0)
(3 1.34355e-15 0)
(3 -3.87683e-16 0)
(3 -5.74804e-16 0)
(3 -3.50242e-16 0)
(3 -3.44489e-16 0)
(3 -1.02039e-15 0)
(3 -1.64021e-15 0)
(3 -1.10501e-15 0)
(3 -2.0979e-17 0)
(3 -1.79416e-17 0)
(3 -1.88169e-16 0)
(3 -6.87162e-16 0)
(3 -1.02715e-15 0)
(3 -7.83508e-16 0)
(3 -5.75459e-16 0)
(3 -4.52905e-17 0)
(3 6.3587e-16 0)
(3 1.37144e-15 0)
(3 1.21507e-15 0)
(3 7.41396e-16 0)
(3 5.62834e-16 0)
(3 3.1021e-16 0)
(3 2.32804e-16 0)
(3 5.78271e-16 0)
(3 8.42648e-16 0)
(3 5.38563e-16 0)
(3 -7.32957e-17 0)
(3 -4.37558e-16 0)
(3 -1.11035e-15 0)
(3 -1.00817e-15 0)
(3 -3.67737e-16 0)
(3 4.22776e-16 0)
(3 3.41606e-16 0)
(3 -1.02666e-16 0)
(3 -1.32213e-17 0)
(3 -2.03359e-16 0)
(3 -4.96899e-16 0)
(3 -8.90531e-16 0)
(3 -1.03402e-15 0)
(3 4.13494e-16 0)
(3 1.37944e-15 0)
(3 1.79277e-15 0)
(3 2.09977e-15 0)
(3 3.01135e-15 0)
(3 2.8593e-15 0)
(3 1.78867e-15 0)
(3 1.39493e-15 0)
(3 1.35974e-15 0)
(3 1.20731e-15 0)
(3 1.49512e-15 0)
(3 1.50968e-15 0)
(3 4.99895e-16 0)
(3 -1.30813e-15 0)
(3 -1.35418e-15 0)
(3 -9.39993e-16 0)
(3 4.25664e-16 0)
(3 1.19512e-15 0)
(3 8.65892e-16 0)
(3 6.92317e-16 0)
(3 -1.13072e-15 0)
(3 -2.30343e-15 0)
(3 -2.68979e-15 0)
(3 -2.76573e-15 0)
(3 -2.91301e-15 0)
(3 -2.99232e-15 0)
(3 -2.76646e-15 0)
(3 -2.14831e-15 0)
(3 -2.70289e-15 0)
(3 -3.19168e-15 0)
(3 -7.26198e-16 0)
(3 -2.53729e-16 0)
(3 -2.94657e-16 0)
(3 -1.77195e-16 0)
(3 -7.6582e-16 0)
(3 -1.16483e-15 0)
(3 4.01947e-16 0)
(3 9.88614e-16 0)
(3 2.70691e-15 0)
(3 3.26812e-15 0)
(3 3.20217e-15 0)
(3 3.08324e-15 0)
(3 2.93595e-15 0)
(3 2.75294e-15 0)
(3 4.03514e-15 0)
(3 1.57148e-15 0)
(3 4.79951e-16 0)
(3 -6.54183e-17 0)
(3 -3.96783e-17 0)
(3 5.53962e-16 0)
(3 1.17224e-15 0)
(3 1.34084e-15 0)
(3 1.11261e-15 0)
(3 9.44905e-16 0)
(3 2.83602e-15 0)
(3 4.94301e-15 0)
(3 2.85461e-15 0)
(3 2.04365e-15 0)
(3 5.55108e-16 0)
(3 -1.89123e-15 0)
(3 -1.12331e-15 0)
(3 -7.15111e-16 0)
(3 -1.03994e-15 0)
(3 -2.20169e-15 0)
(3 -1.02584e-15 0)
(3 -3.2181e-18 0)
(3 -1.95042e-17 0)
(3 -5.96447e-16 0)
(3 -8.15433e-16 0)
(3 -9.63521e-16 0)
(3 -1.11333e-15 0)
(3 -1.08421e-15 0)
(3 -7.12581e-16 0)
(3 1.43994e-18 0)
(3 4.00827e-16 0)
(3 1.43957e-15 0)
(3 2.06868e-15 0)
(3 2.4277e-15 0)
(3 2.18269e-15 0)
(3 1.5857e-15 0)
(3 1.45905e-15 0)
(3 1.38055e-15 0)
(3 1.34519e-15 0)
(3 8.86558e-16 0)
(3 3.649e-17 0)
(3 1.76025e-17 0)
(3 7.37214e-16 0)
(3 6.54333e-16 0)
(3 1.37065e-16 0)
(3 2.58307e-16 0)
(3 1.3003e-16 0)
(3 9.15112e-16 0)
(3 1.06524e-15 0)
(3 1.06411e-15 0)
(3 4.41876e-16 0)
(3 7.77118e-16 0)
(3 1.45208e-15 0)
(3 2.13906e-15 0)
(3 2.444e-15 0)
(3 2.85753e-15 0)
(3 2.82182e-15 0)
(3 2.28855e-15 0)
(3 1.20442e-15 0)
(3 7.03614e-16 0)
(3 2.22474e-16 0)
(3 4.42554e-17 0)
(3 4.53065e-16 0)
(3 7.16893e-16 0)
(3 -6.53615e-16 0)
(3 -2.30205e-15 0)
(3 -1.86433e-15 0)
(3 -6.0711e-16 0)
(3 8.10386e-16 0)
(3 1.16709e-15 0)
(3 1.0223e-15 0)
(3 7.81146e-16 0)
(3 -1.40375e-15 0)
(3 -2.46313e-15 0)
(3 -3.01675e-15 0)