/*--------------------------------*- C++ -*----------------------------------*\
  =========                 |
  \\      /  F ield         | OpenFOAM: The Open Source CFD Toolbox
   \\    /   O peration     | Website:  https://openfoam.org
    \\  /    A nd           | Version:  7
     \\/     M anipulation  |
\*---------------------------------------------------------------------------*/
FoamFile
{
    version     2.0;
    format      ascii;
    class       volScalarField;
    location    "2.4";
    object      p;
}
// * * * * * * * * * * * * * * * * * * * * * * * * * * * * * * * * * * * * * //

dimensions      [1 -1 -2 0 0 0 0];

internalField   nonuniform List<scalar> 
4608
(
1
1
1
1
1
1
1
1
1
1
1
1
1
1
1
1
1
1
1
1
1
1
1
1
1
1
1
1
1
1
1
1
1
1
1
1
1
1
1
1
1
1
1
1
1
1
1
1
1
1
1
1
1
1
1
1
1
1
1
1
1
1
1
1
1
1
1
1
1
1
1
1
1
1
1
1
1
1
1
1
1
1
1
1
1
1
1
1
1
1
1
1
1
1
1
1
1
1
1
1
1
1
1
1
1
1
1
1
1
1
1
1
1
1
1
1
1
1
1
1
1
1
1
1
1
1
1
1
1
1
1
1
1
1
1
1
1
1
1
1
1
1
1
1
1
1
1
1
1
1
1
1
1
1
1
1
1
1
1
1
1
1
1
1
1
1
1
1
1
1
1
1
1
1
1
1
1
1
1
1
1
1
1
1
1
1
1
1
1
1
1
1
1
1
1
1
1
1
1
1
1
1
1
1
1
1
1
1
1
1
1
1
1
1
1
1
1
1
1
1
1
1
1
1
1
1
1
1
1
1
1
1
1
1
1
1
1
1
1
1
1
1
1
1
1
1
1
1
1
1
1
1
1
1
1
1
1
1
1
1
1
1
1
1
1
1
1
1
1
1
1
1
1
1
1
1
1
1
1
1
1
1
1
1
1
1
1
1
1
1
1
1
1
1
1
1
1
1
1
1
1
1
1
1
1
1
1
1
1
1
1
1
1
1
1
1
1
1
1
1
1
1
1
1
1
1
1
1
1
1
1
1
1
1
1
1
1
1
1
1
1
1
1
1
1
1
1
1
1
1
1
1
1
1
1
1
1
1
1
1
1
1
1
1
1
1
1
1
1
1
1
1
1
1
1
1
1
1
1
1
1
1
1
1
1
1
1
1
1
1
1
1
1
1
1
1
1
1
1
1
1
1
1
1
1
1
1
1
1
1
1
1
1
1
1
1
1
1
1
1
1
1
1
1
1
1
1
1
1
1
1
1
1
1
1
1
1
1
1
1
1
1
1
1
1
1
1
1
1
1
1
1
1
1
1
1
1
1
1
1
1
1
1
1
1
1
1
1
1
1
1
1
1
1
1
1
1
1
1
1
1
1
1
1
1
1
1
1
1
1
1
1
1
1
1
1
1
1
1
1
1
1
1
1
1
1
1
1
1
1
1
1
1
1
1
1
1
1
1
1
1
1
1
1
1
1
1
1
1
1
1
1
1
1
1
1
1
1
1
1
1
1
1
1
1
1
1
1
1
1
1
1
1
1
1
1
1
1
1
1
1
1
1
1
1
1
1
1
1
1
1
1
1
1
1
1
1
1
1
1
1
1
1
1
1
1
1
1
1
1
1
1
1
1
1
1
1
1
1
1
1
1
1
1
1
1
1
1
1
1
1
1
1
1
1
1
1
1
1
1
1
1
1
1
1
1
1
1
1
1
1
1
1
1
1
1
1
1
1
1
1
1
1
1
1
1
1
1
1
1
1
1
1
1
1
1
1
1
1
1
1
1
1
1
1
1
1
1
1
1
1
1
1
1
1
1
1
1
1
1
1
1
1
1
1
1
1
1
1
1
1
1
1
1
1
1
1
1
1
1
1
1
1
1
1
1
1
1
1
1
1
1
1
1
1
1
1
1
1
1
1
1
1
1
1
1
1
1
1
1
1
1
1
1
1
1
1
1
1
1
1
1
1
1
1
1
1
1
1
1
1
1
1
1
1
1
1
1
1
1
1
1
1
1
1
1
1
1
1.29207
1.76824
2.31705
2.98138
3.64527
4.27806
4.84784
5.30471
5.3713
5.16999
4.7215
4.21455
3.82737
3.66198
3.56514
3.57959
3.62281
3.6668
3.70008
3.7186
3.73016
3.74698
3.7743
3.78233
1.00215
1.01878
1.08917
1.21307
1.4777
1.85232
2.38182
2.96827
3.59224
3.84125
4.03191
4.03364
3.98241
3.86538
3.74978
3.73117
3.70449
3.68989
3.70079
3.71031
3.72377
3.74125
3.76311
3.77665
0.999999
0.999944
1.00024
1.00019
1.00366
1.02349
1.1088
1.36275
1.97977
3.00386
3.82842
4.30404
4.36285
4.28189
4.10209
3.84895
3.67867
3.67726
3.69787
3.70404
3.71088
3.72052
3.73313
3.75345
1
0.999998
0.999999
0.999999
0.999987
1.00003
0.999913
1.00192
1.03131
1.31244
2.02191
3.18671
3.88497
4.1212
4.0692
3.96847
3.80797
3.75948
3.75039
3.71279
3.69623
3.70207
3.71393
3.73232
1
1
1
1
0.999999
0.999999
0.999988
0.999992
0.999896
1.00175
1.0395
1.36088
2.21078
3.30783
4.02393
4.08241
4.01652
3.94218
3.83327
3.73655
3.70704
3.71212
3.72243
3.73704
1
1
1
1
1
1
1
1
0.99999
0.99999
0.99991
1.00295
1.08208
1.48895
2.51716
3.50366
4.00126
3.99305
3.92966
3.84148
3.76408
3.75207
3.73464
3.73486
1
1
1
1
1
1
1
1
1
0.999999
0.99999
0.999982
1.00004
1.00831
1.1769
1.79659
2.93099
3.5706
3.90635
3.90602
3.85118
3.75373
3.73587
3.71827
1
1
1
1
1
1
1
1
1
1
1
0.999998
0.999998
0.99997
1.00149
1.03186
1.37252
2.20658
3.39053
3.73571
3.77228
3.74646
3.73888
3.72427
1
1
1
1
1
1
1
1
1
1
1
1
1
0.999994
0.999996
0.999979
1.00908
1.12096
1.73769
2.79873
3.57759
3.81531
3.8125
3.79168
1
1
1
1
1
1
1
1
1
1
1
1
1
1
0.999999
0.999996
0.999976
1.00099
1.04394
1.41328
2.39336
3.21303
3.68218
3.78993
1
1
1
1
1
1
1
1
1
1
1
1
1
1
1
1
0.999996
0.999992
1.00023
1.01488
1.21362
1.9646
3.13445
3.69278
1
1
1
1
1
1
1
1
1
1
1
1
1
1
1
1
1
0.999999
0.999997
1.00002
1.00546
1.11702
1.71246
2.89768
1
1
1
1
1
1
1
1
1
1
1
1
1
1
1
1
1
1
0.999999
0.999999
0.999999
1.00221
1.06583
1.51553
1
1
1
1
1
1
1
1
1
1
1
1
1
1
1
1
1
1
1
1
1
0.999998
1.0012
1.0281
1
1
1
1
1
1
1
1
1
1
1
1
1
1
1
1
1
1
1
1
1
0.999999
1.00001
1.00001
1
1
1
1
1
1
1
1
1
1
1
1
1
1
1
1
1
1
1
1
1
1
1
0.99999
1
1
1
1
1
1
1
1
1
1
1
1
1
1
1
1
1
1
1
1
1
1
0.999999
0.999994
1
1
1
1
1
1
1
1
1
1
1
1
1
1
1
1
1
1
1
1
1
0.999999
0.999997
1.00012
1
1
1
1
1
1
1
1
1
1
1
1
1
1
1
1
1
1
1
1
1
0.999997
1.00083
1.03137
1
1
1
1
1
1
1
1
1
1
1
1
1
1
1
1
1
1
0.999999
0.999999
0.999999
1.00278
1.0622
1.4979
1
1
1
1
1
1
1
1
1
1
1
1
1
1
1
1
1
0.999999
0.999997
1.00002
1.00513
1.13157
1.74181
2.74039
1
1
1
1
1
1
1
1
1
1
1
1
1
1
1
1
0.999996
0.999993
1.00021
1.01499
1.2104
2.01953
3.10559
3.66417
1
1
1
1
1
1
1
1
1
1
1
1
1
1
0.999999
0.999996
0.999977
1.00097
1.04473
1.40312
2.42002
3.23041
3.63578
3.78628
1
1
1
1
1
1
1
1
1
1
1
1
1
0.999994
0.999996
0.99998
1.00909
1.12113
1.74057
2.77665
3.61045
3.81381
3.80121
3.78341
1
1
1
1
1
1
1
1
1
1
1
0.999998
0.999998
0.99997
1.00149
1.03188
1.3713
2.21305
3.38297
3.73049
3.78417
3.7522
3.73786
3.71378
1
1
1
1
1
1
1
1
1
0.999999
0.999991
0.999982
1.00004
1.00831
1.17703
1.79507
2.93406
3.57312
3.9
3.90395
3.85429
3.75977
3.73417
3.71436
1
1
1
1
1
1
1
1
0.99999
0.99999
0.999909
1.00295
1.08209
1.48904
2.51758
3.50173
4.00253
3.99392
3.92917
3.83988
3.76687
3.7534
3.73349
3.73549
1
1
1
1
0.999999
0.999999
0.999988
0.999992
0.999896
1.00175
1.03953
1.36076
2.21081
3.30817
4.02339
4.08251
4.01666
3.94268
3.83324
3.73518
3.70876
3.7124
3.72059
3.73729
1
0.999998
0.999999
0.999999
0.999987
1.00003
0.999912
1.00193
1.03129
1.31237
2.02206
3.18651
3.88564
4.12111
4.06903
3.96875
3.80744
3.76027
3.74966
3.71205
3.69719
3.70222
3.71351
3.73225
0.999999
0.999944
1.00024
1.00019
1.00366
1.0235
1.10877
1.36281
1.97959
3.004
3.82846
4.30397
4.36296
4.28194
4.10217
3.84864
3.6784
3.67739
3.69758
3.70425
3.71146
3.7206
3.73269
3.75313
1.00215
1.01877
1.08916
1.21307
1.47773
1.8523
2.38186
2.96831
3.59194
3.84147
4.03186
4.03351
3.98236
3.86546
3.74982
3.73128
3.70456
3.68964
3.70077
3.71047
3.72388
3.74108
3.76271
3.77677
1.29207
1.76824
2.3171
2.98137
3.64526
4.27783
4.84808
5.3047
5.37121
5.16998
4.7216
4.21442
3.82724
3.66205
3.56524
3.57971
3.62285
3.66679
3.7002
3.71876
3.7302
3.7466
3.77399
3.78259
2.67025
1.72968
1.09247
0.781114
0.737854
0.702539
0.679673
0.697639
0.750903
0.81123
0.868577
0.940005
1.01925
1.03692
1.03116
1.03012
1.04167
1.05344
1.06768
1.08117
1.08055
1.07448
1.05246
1.09669
1.50586
2.81418
4.60399
6.88075
8.89621
9.33474
8.5901
7.52179
6.83646
6.54421
6.38556
6.17646
5.92627
5.66749
5.4415
5.24414
5.04942
4.85536
4.66953
4.48208
4.29549
4.12742
3.99262
3.87959
3.77165
3.66226
3.55595
3.45409
3.34895
3.22214
3.07283
2.93593
2.84155
2.78342
2.74003
2.7
2.65695
2.60803
2.55043
2.47501
2.3577
2.20468
2.08869
2.05088
2.028
2.01526
2.01988
2.07577
2.31594
2.83031
3.479
4.05981
4.51356
4.9477
5.15796
5.17609
5.14485
5.07482
4.96405
4.81718
4.64559
4.40094
4.18133
4.11353
4.07152
4.05206
4.04198
4.00193
3.95841
3.90766
3.83216
3.61794
3.37291
2.78141
2.23111
1.68699
1.43165
1.30811
1.14371
1.03106
0.982964
0.947332
0.90824
0.908373
0.932723
0.953922
0.956902
0.962942
0.981685
1.00009
1.01752
1.03975
1.04039
1.04701
1.11976
1.57399
2.59715
3.07139
3.54247
4.28776
5.62951
6.70677
7.42805
7.38339
7.08435
6.74147
6.45132
6.19195
5.94801
5.72394
5.52059
5.32596
5.12812
4.92397
4.72019
4.53146
4.36269
4.21101
4.06515
3.9445
3.83693
3.72647
3.61193
3.49757
3.38086
3.25485
3.12278
3.00355
2.90942
2.83818
2.78649
2.74384
2.69919
2.64797
2.58475
2.50006
2.38298
2.24688
2.14284
2.09701
2.07339
2.08288
2.16295
2.40544
2.85131
3.17691
3.3959
3.69334
3.98325
4.18049
4.44992
4.70822
4.95373
5.05404
4.99092
4.84575
4.66058
4.43108
4.21247
4.13731
4.09613
4.07361
4.06488
4.02801
3.98419
3.93282
3.85947
3.64877
3.65466
3.32581
2.88229
2.40543
1.9215
1.65295
1.45071
1.24045
1.12733
1.04977
0.949134
0.920723
0.939079
0.947064
0.939021
0.9354
0.940633
0.953144
0.972705
0.998596
1.02407
1.16888
1.75595
2.66473
3.30908
3.33291
3.31528
3.337
3.56888
4.53453
6.07399
7.10953
7.24501
7.00345
6.47375
6.07042
5.81832
5.60562
5.39467
5.19773
5.0155
4.84787
4.6919
4.53258
4.35988
4.16751
3.97057
3.81044
3.71056
3.6277
3.53861
3.44204
3.34233
3.24294
3.14195
3.018
2.87647
2.77128
2.70173
2.64874
2.60254
2.55625
2.50231
2.4282
2.33714
2.26113
2.18243
2.13798
2.14363
2.24294
2.56824
2.98001
3.33722
3.42777
3.43302
3.42915
3.45999
3.56441
3.91733
4.36118
4.6992
4.92944
4.94889
4.87772
4.70698
4.48092
4.25225
4.13763
4.08508
4.0486
4.02209
3.98762
3.94755
3.89413
3.80935
3.6056
3.71628
3.5988
3.30585
2.94871
2.48223
2.07484
1.8554
1.61332
1.41711
1.32117
1.18738
1.0444
1.02818
1.02037
0.993814
0.962274
0.947368
0.933964
0.933981
0.946084
1.09394
1.79869
2.75046
3.26346
3.3262
3.28602
3.19672
3.0984
2.98113
3.05818
3.66401
5.15629
6.50173
6.54815
6.43479
6.14475
5.84394
5.5667
5.31928
5.12999
4.9637
4.82738
4.69837
4.5445
4.3643
4.17136
3.9692
3.7741
3.65039
3.57715
3.51301
3.44993
3.37922
3.30019
3.20331
3.05943
2.89233
2.76532
2.68594
2.62053
2.55921
2.50118
2.45177
2.40434
2.35916
2.32075
2.26066
2.28459
2.4495
2.83954
3.20885
3.48318
3.55978
3.5427
3.4766
3.39421
3.31094
3.26901
3.35387
3.64136
4.04724
4.42347
4.66576
4.69235
4.64669
4.52058
4.3252
4.18795
4.11559
4.0631
4.02985
4.00293
3.96509
3.9034
3.79001
3.59045
3.73456
3.70577
3.57332
3.30847
2.96768
2.54914
2.20273
1.96632
1.75102
1.578
1.41651
1.23472
1.09782
1.07537
1.06172
1.02953
0.978618
0.945506
0.963985
1.1516
1.89817
2.81995
3.20464
3.27655
3.23264
3.11215
3.00942
2.92983
2.82963
2.72317
2.74144
3.07365
4.19807
5.51042
6.15699
6.12242
5.89286
5.53664
5.23258
5.02202
4.8563
4.735
4.6307
4.53431
4.41558
4.25033
4.02417
3.77072
3.61024
3.51817
3.43521
3.35965
3.29653
3.23293
3.15161
3.04386
2.91026
2.77931
2.68021
2.61048
2.5478
2.47525
2.40218
2.35644
2.34318
2.37134
2.48994
2.78084
3.20504
3.54122
3.62443
3.63881
3.59683
3.52982
3.45623
3.3653
3.28459
3.25539
3.18887
3.20176
3.3567
3.68278
4.09153
4.39645
4.53076
4.50251
4.39889
4.26588
4.15047
4.06446
4.01296
3.96766
3.92439
3.86149
3.75449
3.57352
3.74508
3.73703
3.70316
3.56053
3.29205
2.98042
2.65099
2.29047
2.03597
1.87006
1.72763
1.55243
1.3083
1.20576
1.20183
1.17964
1.11552
1.12864
1.39882
2.18429
3.12423
3.3851
3.32779
3.21134
3.0863
2.97471
2.8854
2.79913
2.70108
2.58939
2.54131
2.50141
2.61915
3.29946
4.47036
5.50923
5.62858
5.49845
5.26518
5.02098
4.83348
4.67966
4.5566
4.44309
4.32658
4.20814
4.03776
3.77358
3.55929
3.45963
3.39067
3.32758
3.27002
3.2153
3.15405
3.07368
2.96214
2.83162
2.70817
2.59707
2.5053
2.43624
2.38733
2.38177
2.43552
2.70406
3.14413
3.59312
3.83397
3.82873
3.74698
3.65691
3.58124
3.51559
3.47851
3.43601
3.38475
3.31422
3.22304
3.07525
3.02547
3.09586
3.33719
3.72562
4.09364
4.33003
4.36384
4.32812
4.22671
4.12787
4.04478
3.96558
3.89711
3.822
3.73156
3.57618
3.72697
3.73298
3.71717
3.68448
3.5426
3.27476
2.9964
2.72296
2.40274
2.07792
1.96598
1.86317
1.69177
1.45488
1.31102
1.27883
1.33968
1.72496
2.68041
3.55995
3.70513
3.56906
3.34104
3.16503
3.04481
2.93476
2.83309
2.73257
2.62222
2.52187
2.44808
2.39952
2.31877
2.33487
2.621
3.49799
4.68179
5.16001
5.18296
5.07864
4.82936
4.60537
4.45598
4.36345
4.27353
4.17053
4.01794
3.79412
3.58384
3.44257
3.36059
3.29668
3.23296
3.16258
3.08019
2.99313
2.89531
2.78956
2.67726
2.56581
2.49264
2.44496
2.45157
2.59291
2.96642
3.51637
3.89979
4.02261
4.00677
3.90612
3.74729
3.63642
3.56624
3.51826
3.46766
3.41416
3.36886
3.31697
3.21893
3.08049
2.97524
2.9465
2.97225
3.13529
3.48027
3.90073
4.21665
4.28805
4.2622
4.16395
4.02877
3.92098
3.84285
3.77583
3.71072
3.59949
3.70299
3.70631
3.70621
3.68735
3.64706
3.51453
3.25186
2.99244
2.75689
2.48831
2.17903
2.02679
1.92299
1.76835
1.5823
1.6843
2.27146
3.36038
4.14854
4.1459
3.97126
3.71392
3.46656
3.27954
3.11935
2.97268
2.84214
2.72186
2.58821
2.48603
2.40077
2.33999
2.25842
2.19248
2.14311
2.22998
2.77658
3.77274
4.56582
4.8282
4.77469
4.57375
4.39633
4.28301
4.17742
4.05556
3.92892
3.78741
3.62016
3.45789
3.33406
3.25896
3.19171
3.11874
3.04158
2.96141
2.87031
2.77019
2.6609
2.58771
2.52979
2.57546
2.82462
3.32318
3.86062
4.20202
4.233
4.20984
4.10833
3.91635
3.73726
3.62185
3.56788
3.52513
3.47498
3.42086
3.36874
3.31521
3.23076
3.10164
2.98612
2.93161
2.91535
2.91843
3.00752
3.29053
3.68057
4.00404
4.11172
4.09573
3.99101
3.88002
3.80716
3.74733
3.69974
3.61377
3.74716
3.71967
3.70946
3.69759
3.685
3.63176
3.48628
3.24328
2.98734
2.76936
2.52163
2.27402
2.08504
2.01184
2.24536
3.15221
4.32489
4.78999
4.68687
4.40527
4.10833
3.8523
3.64144
3.46621
3.2923
3.1201
2.95285
2.7827
2.61075
2.4763
2.38155
2.30217
2.22183
2.13928
2.08045
2.01763
2.03377
2.27682
2.97478
3.9825
4.52197
4.49594
4.40177
4.2282
4.07048
3.92357
3.81254
3.73604
3.6481
3.48866
3.31694
3.22142
3.1551
3.07807
3.00063
2.91781
2.82662
2.74423
2.67729
2.67299
2.78734
3.19221
3.73378
4.16548
4.34122
4.34076
4.28572
4.18826
4.05973
3.9005
3.74625
3.64434
3.58882
3.53842
3.48581
3.43102
3.37027
3.29801
3.21428
3.1169
3.01843
2.95437
2.91017
2.88559
2.8746
2.91598
3.09988
3.38542
3.68551
3.9228
3.94144
3.86166
3.77936
3.73169
3.71357
3.63944
3.78257
3.74182
3.72047
3.71957
3.72472
3.70652
3.62761
3.46173
3.24385
2.97805
2.76552
2.50003
2.52578
3.0385
4.25601
5.40804
5.58948
5.37888
5.00393
4.6407
4.33166
4.06728
3.83503
3.62568
3.42529
3.23743
3.06286
2.87969
2.70171
2.54179
2.41164
2.29378
2.19551
2.11204
2.05534
1.98825
1.94771
1.90907
1.9818
2.42246
3.25647
4.02736
4.20469
4.1197
3.99441
3.88011
3.77948
3.67696
3.56008
3.43454
3.28183
3.15655
3.08139
3.00374
2.93753
2.87001
2.82336
2.78525
2.85566
3.1167
3.65338
4.15634
4.46051
4.55029
4.52529
4.40276
4.25987
4.14385
4.02683
3.8921
3.76674
3.67696
3.61599
3.5589
3.50416
3.44867
3.38167
3.29477
3.18828
3.10667
3.04832
2.99644
2.94
2.89417
2.8496
2.83409
2.8358
2.91155
3.08029
3.35892
3.63163
3.70089
3.71187
3.73606
3.74828
3.68708
3.67202
3.63247
3.64881
3.67649
3.71052
3.72742
3.69033
3.59666
3.41734
3.21933
3.00053
3.17983
4.20914
5.76307
6.45431
6.34909
5.9923
5.58567
5.19645
4.84313
4.53218
4.25673
4.01112
3.78559
3.56978
3.36538
3.17306
2.97795
2.79543
2.62958
2.48486
2.351
2.22956
2.12443
2.04252
1.98092
1.91219
1.85654
1.80952
1.81106
1.98989
2.61266
3.36928
3.77495
3.90802
3.88983
3.7755
3.6408
3.51895
3.4003
3.25449
3.09364
2.99526
2.93696
2.89354
2.86302
2.89627
3.11772
3.61537
4.20529
4.61169
4.60482
4.59349
4.54954
4.48054
4.39354
4.2755
4.15015
4.02774
3.89712
3.78346
3.70346
3.63985
3.58109
3.52868
3.47545
3.40344
3.3002
3.17155
3.07963
3.04599
3.018
2.97812
2.92745
2.87187
2.81697
2.7844
2.75005
2.77041
2.85168
3.07761
3.35685
3.53682
3.64124
3.74792
3.72565
3.46179
3.68436
3.75448
3.74178
3.74208
3.73907
3.7237
3.68807
3.55294
3.56219
4.16451
5.67634
7.25594
7.67236
7.43816
6.86275
6.2913
5.80953
5.39765
5.03159
4.70166
4.4061
4.14627
3.91039
3.68741
3.47884
3.28408
3.09188
2.90345
2.71768
2.5381
2.3869
2.27137
2.18065
2.09308
2.00275
1.90773
1.84279
1.77654
1.7187
1.67245
1.73644
2.0813
2.74308
3.35923
3.66292
3.67544
3.6115
3.51219
3.39605
3.2396
3.06908
2.96734
2.93494
2.92908
3.01994
3.43674
4.14954
4.76548
5.06876
5.02975
4.85577
4.63437
4.49491
4.42816
4.37437
4.29595
4.18852
4.06448
3.92912
3.80183
3.71403
3.64889
3.59563
3.54828
3.49509
3.41506
3.2939
3.17195
3.0993
3.04987
3.01309
2.98118
2.94333
2.89639
2.83852
2.77206
2.71116
2.67257
2.64707
2.6895
2.87322
3.16618
3.41174
3.60232
3.64826
2.67894
3.34311
3.5954
3.69437
3.69723
3.71908
3.75772
3.78973
4.06413
5.43338
7.56768
8.37221
8.36563
8.12782
7.71587
7.21679
6.65332
6.09633
5.60625
5.19559
4.84341
4.52689
4.24582
4.00039
3.7744
3.55357
3.33049
3.11946
2.94258
2.79457
2.6393
2.4666
2.29819
2.18475
2.11065
2.02263
1.93029
1.86216
1.79354
1.7059
1.62284
1.5549
1.56773
1.74594
2.248
2.92083
3.33934
3.4541
3.43192
3.36775
3.23149
3.10159
2.98995
3.01424
3.25805
3.84479
4.62025
5.11867
5.17681
5.15442
5.02944
4.81253
4.63857
4.50731
4.41189
4.35
4.28614
4.20104
4.09393
3.96417
3.82501
3.73693
3.68437
3.63381
3.58081
3.51504
3.42027
3.29783
3.19481
3.13087
3.07782
3.02585
2.98356
2.9546
2.92759
2.87134
2.78794
2.7056
2.64115
2.60905
2.56098
2.57843
2.71425
2.95913
3.25611
3.49318
1.44826
2.28244
3.1374
3.65366
3.66921
3.74724
3.93299
4.71216
6.56999
8.82655
9.74787
9.62078
8.96634
8.27905
7.8249
7.39384
6.90371
6.37018
5.84886
5.38712
4.99366
4.64877
4.32634
4.0343
3.78746
3.58735
3.40373
3.20903
3.00401
2.80863
2.64925
2.51746
2.38537
2.24858
2.11487
2.0413
1.99866
1.92876
1.82803
1.7125
1.61851
1.54169
1.48771
1.46146
1.52347
1.85269
2.47079
2.99397
3.2639
3.2497
3.17396
3.19644
3.34262
3.76104
4.46685
5.08684
5.48486
5.50436
5.36647
5.13796
4.94789
4.77072
4.63573
4.53316
4.43466
4.34799
4.27436
4.20136
4.11843
4.0107
3.87315
3.73532
3.63491
3.57361
3.51776
3.45825
3.39134
3.31478
3.2437
3.17026
3.11038
3.07
3.02981
2.97186
2.89548
2.82911
2.76864
2.7117
2.65876
2.60637
2.54712
2.4906
2.4843
2.55485
2.73342
3.11778
1.03188
1.26319
1.9406
2.98654
3.3746
4.52869
5.85267
7.85341
9.49097
9.88043
9.825
9.63789
9.22375
8.60842
8.02571
7.49256
6.99121
6.51966
6.03835
5.56151
5.14217
4.77574
4.42708
4.10248
3.83789
3.60492
3.39808
3.22199
3.0511
2.8681
2.68351
2.5373
2.4059
2.27409
2.1636
2.07461
1.97966
1.877
1.77463
1.67969
1.60382
1.53906
1.46967
1.43063
1.40485
1.42216
1.60233
2.04885
2.67812
2.98295
3.30145
3.97649
4.5684
5.184
5.52055
5.55463
5.55017
5.4667
5.33016
5.14171
4.96363
4.79039
4.64241
4.57575
4.49666
4.41499
4.33148
4.2475
4.15654
4.04708
3.91224
3.76409
3.63846
3.55428
3.49001
3.42732
3.37591
3.33578
3.29192
3.23322
3.15794
3.07739
2.99665
2.91299
2.84701
2.79969
2.7631
2.7311
2.69859
2.65476
2.59138
2.48219
2.40971
2.41015
2.44621
2.69524
1.00061
1.01173
1.16881
1.87512
3.5173
6.32188
8.28784
9.70034
10.9366
10.5614
9.85566
9.57056
9.31269
8.89324
8.29329
7.64163
7.03977
6.54744
6.09651
5.63983
5.19979
4.77633
4.47696
4.26419
4.02175
3.76477
3.52768
3.31256
3.10258
2.90883
2.70014
2.51509
2.44863
2.38726
2.28479
2.14672
2.00036
1.87694
1.7808
1.70242
1.61365
1.54916
1.5173
1.47464
1.42206
1.3605
1.35173
1.436
1.83524
2.77928
3.8446
4.95794
5.63195
6.08445
6.06412
5.89639
5.59452
5.36322
5.25503
5.13368
4.96989
4.82071
4.66582
4.51691
4.41534
4.35537
4.29345
4.22081
4.13421
4.04117
3.93549
3.7969
3.63811
3.53862
3.48459
3.43072
3.37843
3.33513
3.29433
3.25143
3.19729
3.09882
2.97992
2.88622
2.83466
2.80442
2.78006
2.75311
2.71982
2.66913
2.57942
2.4603
2.38104
2.35264
2.35452
2.43491
1.00033
1.01738
1.17097
1.95356
3.99378
5.69525
8.32773
9.82498
10.8776
10.7217
10.1714
9.77022
9.44242
8.85485
8.13427
7.45684
6.87518
6.40281
6.05645
5.7396
5.33516
4.90831
4.52585
4.18127
3.90536
3.66057
3.42634
3.2716
3.163
3.00347
2.7925
2.58774
2.42611
2.30779
2.19982
2.06849
1.95505
1.908
1.85297
1.77804
1.68077
1.57928
1.49033
1.424
1.37349
1.33543
1.33758
1.43662
1.86059
2.77303
4.0152
4.897
5.58313
6.12821
6.08421
5.86371
5.6247
5.38354
5.26982
5.14775
5.00029
4.8154
4.62218
4.48651
4.39618
4.33679
4.28335
4.22618
4.16538
4.09104
3.9876
3.82424
3.64538
3.53852
3.48442
3.44706
3.41298
3.37862
3.34371
3.29731
3.2086
3.05995
2.93473
2.89793
2.87482
2.8513
2.82579
2.79604
2.75797
2.69434
2.59362
2.46498
2.37878
2.34997
2.35127
2.46158
1.02296
1.27505
2.05087
3.06511
3.67436
4.08959
5.73293
7.73763
9.4022
10.087
10.0417
9.85839
9.38269
8.64261
7.94666
7.35473
6.8545
6.3972
5.94989
5.50914
5.12237
4.79868
4.48512
4.17139
3.89036
3.66205
3.46335
3.25425
3.03578
2.85168
2.69104
2.53394
2.37936
2.26359
2.16798
2.06382
1.96168
1.86274
1.77249
1.69977
1.63463
1.56701
1.48968
1.43502
1.38674
1.39369
1.54572
2.02068
2.63249
2.96819
3.43956
3.93061
4.51979
5.22282
5.45988
5.53836
5.53316
5.48277
5.38295
5.2326
5.01281
4.79044
4.62807
4.5316
4.44842
4.371
4.29437
4.21131
4.11874
4.01524
3.89867
3.78363
3.67926
3.59634
3.52613
3.45423
3.38507
3.33654
3.29518
3.24641
3.17265
3.05419
2.92618
2.85954
2.83214
2.8083
2.78205
2.7528
2.72101
2.68517
2.62253
2.50113
2.39625
2.38824
2.41847
2.68301
1.3571
2.37349
3.16179
3.56348
3.70795
3.73528
3.92552
4.70308
6.53989
8.7724
9.92963
9.80258
9.04447
8.26913
7.71052
7.22972
6.75049
6.25622
5.78513
5.38444
5.05301
4.7434
4.43222
4.12774
3.83812
3.58084
3.3635
3.1636
2.96233
2.78287
2.65278
2.54035
2.41587
2.29223
2.16696
2.03417
1.91997
1.83568
1.75942
1.67587
1.63312
1.59509
1.54079
1.50486
1.5611
1.85481
2.41107
2.97937
3.25253
3.2473
3.20406
3.18712
3.33875
3.79547
4.54962
5.10738
5.45674
5.51302
5.39441
5.17332
4.96051
4.78652
4.64741
4.51697
4.41361
4.34906
4.29249
4.23407
4.15185
4.01328
3.83581
3.70415
3.62872
3.57654
3.5217
3.46358
3.41296
3.35401
3.28394
3.21061
3.13062
3.03692
2.9404
2.86782
2.82539
2.79558
2.76677
2.73828
2.70648
2.66529
2.59468
2.5038
2.4655
2.519
2.67259
3.06411
2.47522
3.49979
3.723
3.7014
3.68566
3.6748
3.67693
3.70973
3.99781
5.3046
7.5763
8.5288
8.39364
8.09628
7.60537
7.08525
6.55355
6.05855
5.63287
5.26652
4.9411
4.63795
4.33943
4.03594
3.74238
3.4801
3.25493
3.06527
2.91021
2.77872
2.64387
2.49751
2.35142
2.21403
2.10477
2.03329
1.95421
1.85344
1.75196
1.66532
1.61802
1.58323
1.60359
1.7682
2.28088
2.91099
3.32598
3.4461
3.4138
3.315
3.18318
3.09804
3.02232
3.04703
3.29459
3.87221
4.53399
5.05241
5.15876
5.11496
5.00629
4.83644
4.66396
4.51505
4.40342
4.3521
4.30214
4.22983
4.12709
3.9766
3.80097
3.67085
3.62685
3.60107
3.5627
3.5024
3.41902
3.32539
3.2409
3.17159
3.11045
3.04884
2.96835
2.87302
2.82006
2.78624
2.75467
2.72332
2.69238
2.66722
2.61149
2.59507
2.68199
2.8958
3.14908
3.40812
3.43598
3.78264
3.81441
3.78801
3.72473
3.6959
3.68611
3.65507
3.54244
3.55824
4.1772
5.75153
7.23823
7.66276
7.4383
6.84611
6.29265
5.84264
5.46284
5.11667
4.79254
4.48204
4.18043
3.89228
3.62588
3.38792
3.18412
3.00913
2.84528
2.68942
2.5475
2.43283
2.33797
2.23374
2.11797
2.00257
1.88973
1.80342
1.73449
1.69037
1.65852
1.72873
2.10636
2.77967
3.40061
3.62329
3.64431
3.57216
3.44826
3.33962
3.22942
3.11896
3.01947
2.96892
2.92338
2.9961
3.3707
4.04451
4.7012
5.04637
5.02639
4.88823
4.68023
4.4874
4.37716
4.32759
4.26825
4.18191
4.07277
3.94702
3.82036
3.71764
3.62734
3.56506
3.51721
3.46192
3.3848
3.29828
3.22498
3.16437
3.1081
3.05001
2.97975
2.88846
2.80652
2.76061
2.73447
2.7118
2.70588
2.70129
2.75149
2.9026
3.18336
3.36745
3.51629
3.58102
3.6669
3.66324
3.69577
3.70881
3.70906
3.71279
3.68212
3.59742
3.42993
3.2347
3.01818
3.20743
4.2295
5.70427
6.402
6.34198
6.00616
5.61019
5.25132
4.92079
4.6024
4.29205
4.00014
3.73645
3.49911
3.28098
3.08092
2.9046
2.76856
2.66385
2.55875
2.42656
2.28811
2.1641
2.05609
1.96525
1.87706
1.81272
1.76606
1.77976
1.98224
2.62906
3.39597
3.81332
3.90577
3.88166
3.78568
3.6521
3.51512
3.38982
3.28142
3.17381
3.07845
2.98117
2.90062
2.82547
2.84409
3.03331
3.55115
4.22624
4.66103
4.70942
4.66314
4.53667
4.42546
4.32611
4.22428
4.12591
4.02844
3.93967
3.85498
3.7596
3.6518
3.56195
3.49669
3.42651
3.34872
3.27771
3.21688
3.16024
3.10429
3.04761
2.97734
2.88777
2.79742
2.75373
2.74539
2.74608
2.7897
2.92978
3.17006
3.46502
3.62086
3.6674
3.68887
3.63413
3.77725
3.74929
3.72983
3.71965
3.71815
3.70031
3.6295
3.47337
3.25802
2.98932
2.7679
2.49817
2.52223
3.02389
4.25209
5.45486
5.57848
5.36672
5.01486
4.66973
4.34742
4.05234
3.79388
3.56937
3.36898
3.1924
3.03634
2.88611
2.73691
2.60356
2.48902
2.36504
2.23606
2.11776
2.03864
1.96565
1.90793
1.85412
1.94229
2.38281
3.26069
4.07074
4.27736
4.20795
3.99667
3.84506
3.74604
3.65727
3.56207
3.45309
3.34623
3.24016
3.13737
3.02386
2.91258
2.82349
2.7803
2.75498
2.83058
3.16925
3.7292
4.28373
4.56886
4.55842
4.45852
4.28973
4.15028
4.07807
4.01107
3.94567
3.88188
3.80192
3.69619
3.56774
3.45221
3.37653
3.31541
3.26032
3.20905
3.15586
3.09883
3.03901
2.97001
2.8912
2.81282
2.78916
2.79953
2.88693
3.10679
3.43632
3.7305
3.81897
3.81905
3.79532
3.75382
3.64785
3.74182
3.71885
3.7098
3.7006
3.68697
3.62822
3.48349
3.24505
2.98995
2.76678
2.51365
2.26811
2.0847
2.01161
2.25357
3.19892
4.33528
4.79634
4.69928
4.41831
4.11008
3.82773
3.59443
3.41197
3.24998
3.09794
2.94635
2.79662
2.653
2.53904
2.45011
2.35956
2.25173
2.13355
2.05082
1.98021
1.98855
2.22516
3.01576
3.95562
4.58169
4.63311
4.55951
4.29592
4.02691
3.86131
3.75221
3.66811
3.5905
3.50126
3.40211
3.29456
3.18192
3.06185
2.9465
2.85039
2.77202
2.72143
2.69109
2.70532
2.85107
3.2674
3.80486
4.24131
4.26781
4.20825
4.15218
4.08861
4.03169
3.9655
3.89464
3.81307
3.71263
3.5747
3.42011
3.32503
3.28245
3.24172
3.19687
3.14393
3.08711
3.02892
2.96776
2.91592
2.86017
2.87659
3.01025
3.29498
3.64009
3.90437
3.9703
3.95693
3.91749
3.84759
3.77659
3.65201
3.70088
3.70194
3.70104
3.68401
3.64128
3.50978
3.25259
2.99443
2.75838
2.48894
2.17322
2.02423
1.92644
1.77323
1.58576
1.69409
2.27248
3.33158
4.16017
4.15785
3.97463
3.68756
3.42155
3.24744
3.112
2.98567
2.8597
2.74884
2.64978
2.56141
2.46352
2.36891
2.259
2.15816
2.08106
2.17448
2.67322
3.71983
4.65561
4.91934
4.89758
4.73568
4.51453
4.28238
4.07972
3.93054
3.80442
3.70091
3.6147
3.53153
3.44716
3.35416
3.24006
3.097
2.95386
2.8521
2.77769
2.71827
2.66129
2.63338
2.61488
2.66551
2.88264
3.3183
3.85268
4.04593
4.09604
4.10966
4.06285
3.9904
3.91122
3.83391
3.73451
3.58375
3.4251
3.30587
3.2392
3.19868
3.15685
3.11337
3.07522
3.03206
2.99958
2.98303
3.03485
3.20794
3.52199
3.86055
4.00277
3.99869
3.99717
3.97509
3.93212
3.86977
3.79703
3.6598
3.72507
3.73491
3.72091
3.68538
3.54105
3.27282
2.99705
2.72534
2.40446
2.07781
1.96704
1.86414
1.69364
1.45646
1.31311
1.279
1.33919
1.70202
2.67523
3.56467
3.68069
3.55039
3.33363
3.16678
3.05045
2.94951
2.85222
2.75254
2.65849
2.5838
2.48983
2.40474
2.28333
2.27599
2.53335
3.43742
4.50347
5.2317
5.32419
5.24333
4.9973
4.70698
4.45262
4.25839
4.1284
4.01183
3.88034
3.75073
3.6392
3.55171
3.47936
3.40087
3.28897
3.13533
2.97231
2.86564
2.79928
2.73764
2.67087
2.61331
2.57147
2.54719
2.53353
2.61729
2.93872
3.432
3.78161
3.90817
3.97292
3.94124
3.86713
3.78247
3.69133
3.57653
3.44683
3.32083
3.21703
3.15738
3.11869
3.08439
3.07155
3.05865
3.11063
3.28057
3.56236
3.88074
4.10392
4.15224
4.09448
4.01961
3.98354
3.95723
3.92045
3.87532
3.82549
3.67796
3.74581
3.73717
3.70327
3.55988
3.29216
2.98054
2.65046
2.29258
2.03755
1.86877
1.726
1.55156
1.30988
1.20757
1.20279
1.17937
1.11449
1.1256
1.38798
2.20636
3.05743
3.37809
3.34288
3.23194
3.10065
2.98625
2.89627
2.80021
2.70241
2.63118
2.5573
2.48682
2.59404
3.17944
4.40443
5.36593
5.60158
5.56101
5.36853
5.16997
4.93683
4.68461
4.45194
4.2911
4.1867
4.07806
3.94988
3.81787
3.69404
3.57788
3.47791
3.39533
3.31177
3.19361
3.01477
2.85856
2.7974
2.75939
2.71412
2.65946
2.59964
2.52923
2.46996
2.40792
2.43546
2.64954
3.06825
3.5007
3.80142
3.87931
3.84971
3.76913
3.66104
3.55595
3.45988
3.35213
3.23289
3.13237
3.09282
3.0884
3.09813
3.22306
3.53946
3.94265
4.2418
4.37318
4.34618
4.20106
4.07266
4.03833
4.03413
4.00356
3.95223
3.89371
3.82213
3.63932
3.73489
3.70543
3.57287
3.30913
2.96615
2.54718
2.20689
1.96789
1.74888
1.5766
1.41574
1.23426
1.09881
1.07713
1.06281
1.02935
0.978071
0.945421
0.963281
1.15599
1.88746
2.77672
3.27714
3.31404
3.25426
3.12201
3.01624
2.90836
2.81362
2.72516
2.74541
3.05667
4.15725
5.38706
6.15603
6.1287
5.9566
5.65308
5.365
5.12158
4.89292
4.69818
4.52277
4.36443
4.22507
4.10009
3.97708
3.84107
3.72574
3.63568
3.53321
3.42204
3.31313
3.20399
3.0636
2.9161
2.82252
2.76898
2.72915
2.6982
2.65959
2.573
2.45298
2.37754
2.33531
2.34501
2.45647
2.76594
3.20237
3.58903
3.67595
3.6806
3.63623
3.5508
3.45709
3.35868
3.23504
3.14257
3.12628
3.1602
3.33436
3.74288
4.18968
4.54183
4.6078
4.58801
4.45551
4.19851
4.05789
4.01994
3.99764
3.97293
3.92951
3.87706
3.80494
3.61577
3.71626
3.59843
3.30682
2.94803
2.47839
2.07855
1.85824
1.60961
1.41668
1.32255
1.1862
1.04398
1.02894
1.02097
0.993912
0.961871
0.9471
0.934263
0.934365
0.946188
1.10422
1.7726
2.77113
3.3163
3.3357
3.29349
3.19922
3.07545
2.94886
3.02867
3.63027
5.12127
6.47262
6.57289
6.47712
6.19972
5.93165
5.65604
5.37617
5.12593
4.91001
4.73562
4.5946
4.46497
4.34476
4.22364
4.08488
3.93505
3.77141
3.6184
3.49959
3.39763
3.29373
3.18126
3.0659
2.96433
2.88573
2.83443
2.78931
2.72163
2.62513
2.5109
2.41463
2.35373
2.31694
2.30238
2.28117
2.32035
2.51036
2.90544
3.26207
3.46165
3.55877
3.54308
3.48895
3.40736
3.30563
3.26394
3.3343
3.56166
3.9638
4.37837
4.62141
4.67729
4.66248
4.57356
4.39462
4.21
4.09455
4.02957
3.99653
3.98091
3.94212
3.8775
3.76553
3.57059
3.65442
3.32619
2.88376
2.40301
1.92168
1.65603
1.44971
1.23896
1.12866
1.05018
0.948227
0.920668
0.939616
0.946899
0.938518
0.9351
0.940578
0.953193
0.972806
0.998707
1.02465
1.16463
1.73999
2.71955
3.32716
3.3317
3.3093
3.32361
3.53403
4.48565
6.04633
7.13796
7.27753
7.05606
6.53869
6.1219
5.83545
5.61195
5.38341
5.1467
4.94733
4.80664
4.67482
4.52789
4.36622
4.19628
4.03425
3.88566
3.74304
3.60762
3.49461
3.39232
3.29122
3.19421
3.11532
3.04
2.93974
2.81174
2.72254
2.66413
2.58974
2.49831
2.43301
2.38594
2.3459
2.30384
2.25916
2.20858
2.18689
2.26603
2.55302
2.92406
3.25215
3.40534
3.41519
3.44637
3.53974
3.6981
3.99318
4.36011
4.64932
4.79789
4.79595
4.70054
4.58508
4.45259
4.32801
4.2392
4.16985
4.10151
4.03254
3.95877
3.89512
3.82626
3.72049
3.57005
3.37315
2.78363
2.22913
1.68447
1.43632
1.30931
1.1406
1.03083
0.983618
0.947617
0.90821
0.908616
0.933172
0.95381
0.956504
0.962603
0.981658
1.00026
1.01765
1.03974
1.04049
1.04614
1.11617
1.59317
2.61881
3.07213
3.54366
4.27378
5.57056
6.66764
7.44234
7.45175
7.1291
6.77959
6.47649
6.17443
5.85424
5.61447
5.44032
5.26644
5.10592
4.95662
4.79828
4.62783
4.44755
4.26046
4.06893
3.89779
3.76009
3.64169
3.53758
3.44682
3.36853
3.30247
3.23747
3.15541
3.03686
2.87402
2.7048
2.61197
2.57117
2.54055
2.51151
2.47328
2.42986
2.37628
2.31287
2.22275
2.11229
2.07503
2.12441
2.32847
2.69318
3.0731
3.34953
3.74136
4.14606
4.39732
4.6334
4.80467
4.89174
4.85966
4.75893
4.64094
4.51986
4.40288
4.34472
4.31251
4.25478
4.18374
4.09531
3.98957
3.87529
3.77015
3.69238
3.6098
2.67087
1.72963
1.0895
0.785354
0.740576
0.700533
0.677396
0.696546
0.751496
0.812094
0.869503
0.941145
1.01964
1.03665
1.03087
1.03016
1.04191
1.05369
1.06791
1.08103
1.08041
1.07393
1.05136
1.09935
1.51814