/*--------------------------------*- C++ -*----------------------------------*\
  =========                 |
  \\      /  F ield         | OpenFOAM: The Open Source CFD Toolbox
   \\    /   O peration     | Website:  https://openfoam.org
    \\  /    A nd           | Version:  7
     \\/     M anipulation  |
\*---------------------------------------------------------------------------*/
FoamFile
{
    version     2.0;
    format      ascii;
    class       volScalarField;
    location    "2.4";
    object      rho;
}
// * * * * * * * * * * * * * * * * * * * * * * * * * * * * * * * * * * * * * //

dimensions      [1 -3 0 0 0 0 0];

internalField   nonuniform List<scalar> 
4608
(
1.40001
1.40001
1.40001
1.40001
1.40001
1.40001
1.40001
1.40001
1.40001
1.40001
1.40001
1.40001
1.40001
1.40001
1.40001
1.40001
1.40001
1.40001
1.40001
1.40001
1.40001
1.40001
1.40001
1.40001
1.40001
1.40001
1.40001
1.40001
1.40001
1.40001
1.40001
1.40001
1.40001
1.40001
1.40001
1.40001
1.40001
1.40001
1.40001
1.40001
1.40001
1.40001
1.40001
1.40001
1.40001
1.40001
1.40001
1.40001
1.40001
1.40001
1.40001
1.40001
1.40001
1.40001
1.40001
1.40001
1.40001
1.40001
1.40001
1.40001
1.40001
1.40001
1.40001
1.40001
1.40001
1.40001
1.40001
1.40001
1.40001
1.40001
1.40001
1.40001
1.40001
1.40001
1.40001
1.40001
1.40001
1.40001
1.40001
1.40001
1.40001
1.40001
1.40001
1.40001
1.40001
1.40001
1.40001
1.40001
1.40001
1.40001
1.40001
1.40001
1.40001
1.40001
1.40001
1.40001
1.40001
1.40001
1.40001
1.40001
1.40001
1.40001
1.40001
1.40001
1.40001
1.40001
1.40001
1.40001
1.40001
1.40001
1.40001
1.40001
1.40001
1.40001
1.40001
1.40001
1.40001
1.40001
1.40001
1.40001
1.40001
1.40001
1.40001
1.40001
1.40001
1.40001
1.40001
1.40001
1.40001
1.40001
1.40001
1.40001
1.40001
1.40001
1.40001
1.40001
1.40001
1.40001
1.40001
1.40001
1.40001
1.40001
1.40001
1.40001
1.40001
1.40001
1.40001
1.40001
1.40001
1.40001
1.40001
1.40001
1.40001
1.40001
1.40001
1.40001
1.40001
1.40001
1.40001
1.40001
1.40001
1.40001
1.40001
1.40001
1.40001
1.40001
1.40001
1.40001
1.40001
1.40001
1.40001
1.40001
1.40001
1.40001
1.40001
1.40001
1.40001
1.40001
1.40001
1.40001
1.40001
1.40001
1.40001
1.40001
1.40001
1.40001
1.40001
1.40001
1.40001
1.40001
1.40001
1.40001
1.40001
1.40001
1.40001
1.40001
1.40001
1.40001
1.40001
1.40001
1.40001
1.40001
1.40001
1.40001
1.40001
1.40001
1.40001
1.40001
1.40001
1.40001
1.40001
1.40001
1.40001
1.40001
1.40001
1.40001
1.40001
1.40001
1.40001
1.40001
1.40001
1.40001
1.40001
1.40001
1.40001
1.40001
1.40001
1.40001
1.40001
1.40001
1.40001
1.40001
1.40001
1.40001
1.40001
1.40001
1.40001
1.40001
1.40001
1.40001
1.40001
1.40001
1.40001
1.40001
1.40001
1.40001
1.40001
1.40001
1.40001
1.40001
1.40001
1.40001
1.40001
1.40001
1.40001
1.40001
1.40001
1.40001
1.40001
1.40001
1.40001
1.40001
1.40001
1.40001
1.40001
1.40001
1.40001
1.40001
1.40001
1.40001
1.40001
1.40001
1.40001
1.40001
1.40001
1.40001
1.40001
1.40001
1.40001
1.40001
1.40001
1.40001
1.40001
1.40001
1.40001
1.40001
1.40001
1.40001
1.40001
1.40001
1.40001
1.40001
1.40001
1.40001
1.40001
1.40001
1.40001
1.40001
1.40001
1.40001
1.40001
1.40001
1.40001
1.40001
1.40001
1.40001
1.40001
1.40001
1.40001
1.40001
1.40001
1.40001
1.40001
1.40001
1.40001
1.40001
1.40001
1.40001
1.40001
1.40001
1.40001
1.40001
1.40001
1.40001
1.40001
1.40001
1.40001
1.40001
1.40001
1.40001
1.40001
1.40001
1.40001
1.40001
1.40001
1.40001
1.40001
1.40001
1.40001
1.40001
1.40001
1.40001
1.40001
1.40001
1.40001
1.40001
1.40001
1.40001
1.40001
1.40001
1.40001
1.40001
1.40001
1.40001
1.40001
1.40001
1.40001
1.40001
1.40001
1.40001
1.40001
1.40001
1.40001
1.40001
1.40001
1.40001
1.40001
1.40001
1.40001
1.40001
1.40001
1.40001
1.40001
1.40001
1.40001
1.40001
1.40001
1.40001
1.40001
1.40001
1.40001
1.40001
1.40001
1.40001
1.40001
1.40001
1.40001
1.40001
1.40001
1.40001
1.40001
1.40001
1.40001
1.40001
1.40001
1.40001
1.40001
1.40001
1.40001
1.40001
1.40001
1.40001
1.40001
1.40001
1.40001
1.40001
1.40001
1.40001
1.40001
1.40001
1.40001
1.40001
1.40001
1.40001
1.40001
1.40001
1.40001
1.40001
1.40001
1.40001
1.40001
1.40001
1.40001
1.40001
1.40001
1.40001
1.40001
1.40001
1.40001
1.40001
1.40001
1.40001
1.40001
1.40001
1.40001
1.40001
1.40001
1.40001
1.40001
1.40001
1.40001
1.40001
1.40001
1.40001
1.40001
1.40001
1.40001
1.40001
1.40001
1.40001
1.40001
1.40001
1.40001
1.40001
1.40001
1.40001
1.40001
1.40001
1.40001
1.40001
1.40001
1.40001
1.40001
1.40001
1.40001
1.40001
1.40001
1.40001
1.40001
1.40001
1.40001
1.40001
1.40001
1.40001
1.40001
1.40001
1.40001
1.40001
1.40001
1.40001
1.40001
1.40001
1.40001
1.40001
1.40001
1.40001
1.40001
1.40001
1.40001
1.40001
1.40001
1.40001
1.40001
1.40001
1.40001
1.40001
1.40001
1.40001
1.40001
1.40001
1.40001
1.40001
1.40001
1.40001
1.40001
1.40001
1.40001
1.40001
1.40001
1.40001
1.40001
1.40001
1.40001
1.40001
1.40001
1.40001
1.40001
1.40001
1.40001
1.40001
1.40001
1.40001
1.40001
1.40001
1.40001
1.40001
1.40001
1.40001
1.40001
1.40001
1.40001
1.40001
1.40001
1.40001
1.40001
1.40001
1.40001
1.40001
1.40001
1.40001
1.40001
1.40001
1.40001
1.40001
1.40001
1.40001
1.40001
1.40001
1.40001
1.40001
1.40001
1.40001
1.40001
1.40001
1.40001
1.40001
1.40001
1.40001
1.40001
1.40001
1.40001
1.40001
1.40001
1.40001
1.40001
1.40001
1.40001
1.40001
1.40001
1.40001
1.40001
1.40001
1.40001
1.40001
1.40001
1.40001
1.40001
1.40001
1.40001
1.40001
1.40001
1.40001
1.40001
1.40001
1.40001
1.40001
1.40001
1.40001
1.40001
1.40001
1.40001
1.40001
1.40001
1.40001
1.40001
1.40001
1.40001
1.40001
1.40001
1.40001
1.40001
1.40001
1.40001
1.40001
1.40001
1.40001
1.40001
1.40001
1.40001
1.40001
1.40001
1.40001
1.40001
1.40001
1.40001
1.40001
1.40001
1.40001
1.40001
1.40001
1.40001
1.40001
1.40001
1.40001
1.40001
1.40001
1.40001
1.40001
1.40001
1.40001
1.40001
1.40001
1.40001
1.40001
1.40001
1.40001
1.40001
1.40001
1.40001
1.40001
1.40001
1.40001
1.40001
1.40001
1.40001
1.40001
1.40001
1.40001
1.40001
1.40001
1.40001
1.40001
1.40001
1.40001
1.40001
1.40001
1.40001
1.40001
1.40001
1.40001
1.40001
1.40001
1.40001
1.40001
1.40001
1.40001
1.40001
1.40001
1.40001
1.40001
1.40001
1.40001
1.40001
1.40001
1.40001
1.40001
1.40001
1.40001
1.40001
1.40001
1.40001
1.40001
1.40001
1.40001
1.40001
1.40001
1.40001
1.40001
1.40001
1.40001
1.40001
1.40001
1.40001
1.40001
1.40001
1.40001
1.40001
1.40001
1.40001
1.40001
1.40001
1.40001
1.40001
1.40001
1.40001
1.40001
1.40001
1.40001
1.40001
1.40001
1.40001
1.40001
1.40001
1.40001
1.40001
1.40001
1.40001
1.40001
1.40001
1.40001
1.40001
1.40001
1.40001
1.40001
1.40001
1.40001
1.40001
1.40001
1.40001
1.40001
1.40001
1.40001
1.40001
1.40001
1.40001
1.40001
1.40001
1.40001
1.40001
1.40001
1.40001
1.40001
1.40001
1.40001
1.40001
1.40001
1.40001
1.40001
1.40001
1.40001
1.40001
1.40001
1.40001
1.40001
1.40001
1.40001
1.40001
1.40001
1.40001
1.40001
1.40001
1.40001
1.40001
1.40001
1.40001
1.40001
1.40001
1.40001
1.67726
2.09229
2.52465
2.99971
3.43035
3.81518
4.13924
4.41082
4.42834
4.30347
4.03568
3.71981
3.47231
3.36246
3.29769
3.30761
3.33693
3.36625
3.38692
3.39724
3.40342
3.41331
3.43111
3.43641
1.40204
1.41737
1.47957
1.58594
1.80388
2.10621
2.51842
2.95813
3.38805
3.54152
3.64873
3.60962
3.56673
3.48331
3.40779
3.39821
3.38223
3.37267
3.37898
3.38414
3.39209
3.40302
3.41836
3.42773
1.4
1.39995
1.40023
1.40018
1.40334
1.42136
1.49657
1.70891
2.18646
2.89611
3.42361
3.71192
3.76435
3.71856
3.60977
3.45203
3.34418
3.34239
3.35413
3.35804
3.36347
3.3711
3.38192
3.39779
1.40001
1.4
1.4
1.4
1.39999
1.40004
1.39993
1.40175
1.42723
1.64966
2.16755
2.9664
3.39803
3.57935
3.55248
3.49388
3.39468
3.36088
3.35375
3.32874
3.32404
3.33153
3.34345
3.35917
1.40001
1.40001
1.4
1.4
1.4
1.4
1.39999
1.4
1.39991
1.40159
1.4337
1.68856
2.29911
3.01723
3.4689
3.52547
3.48747
3.44081
3.37298
3.31275
3.30035
3.30971
3.32295
3.33381
1.40001
1.40001
1.40001
1.40001
1.40001
1.4
1.4
1.4
1.39999
1.4
1.39993
1.40268
1.4701
1.78496
2.50778
3.14753
3.45784
3.45429
3.41817
3.36519
3.31798
3.31534
3.31041
3.31028
1.40001
1.40001
1.40001
1.40001
1.40001
1.40001
1.40001
1.40001
1.40001
1.4
1.4
1.39998
1.40006
1.40748
1.54809
2.01748
2.79215
3.19915
3.40537
3.40499
3.36966
3.30911
3.29977
3.28982
1.40001
1.40001
1.40001
1.40001
1.40001
1.40001
1.40001
1.40001
1.40001
1.40001
1.4
1.4
1.4
1.39998
1.40143
1.42835
1.70432
2.31747
3.09581
3.31113
3.32652
3.30901
3.30351
3.29416
1.40001
1.40001
1.40001
1.40001
1.40001
1.40001
1.40001
1.40001
1.40001
1.40001
1.40001
1.40001
1.4
1.4
1.4
1.39999
1.40844
1.50509
1.98767
2.72829
3.22377
3.36135
3.3574
3.34261
1.40001
1.40001
1.40001
1.40001
1.40001
1.40001
1.40001
1.40001
1.40001
1.40001
1.40001
1.40001
1.40001
1.4
1.4
1.4
1.39998
1.40096
1.44
1.74136
2.46754
3.00346
3.29214
3.35228
1.40001
1.40001
1.40001
1.40001
1.40001
1.40001
1.40001
1.40001
1.40001
1.40001
1.40001
1.40001
1.40001
1.40001
1.40001
1.4
1.4
1.4
1.40024
1.41377
1.5859
2.16629
2.95912
3.30831
1.40001
1.40001
1.40001
1.40001
1.40001
1.40001
1.40001
1.40001
1.40001
1.40001
1.40001
1.40001
1.40001
1.40001
1.40001
1.40001
1.4
1.4
1.4
1.40002
1.4052
1.50491
1.97772
2.8155
1.40001
1.40001
1.40001
1.40001
1.40001
1.40001
1.40001
1.40001
1.40001
1.40001
1.40001
1.40001
1.40001
1.40001
1.40001
1.40001
1.40001
1.40001
1.4
1.4
1.40001
1.40215
1.46014
1.83138
1.40001
1.40001
1.40001
1.40001
1.40001
1.40001
1.40001
1.40001
1.40001
1.40001
1.40001
1.40001
1.40001
1.40001
1.40001
1.40001
1.40001
1.40001
1.40001
1.4
1.4
1.4
1.40119
1.4261
1.40001
1.40001
1.40001
1.40001
1.40001
1.40001
1.40001
1.40001
1.40001
1.40001
1.40001
1.40001
1.40001
1.40001
1.40001
1.40001
1.40001
1.40001
1.40001
1.40001
1.4
1.4
1.40001
1.40002
1.40001
1.40001
1.40001
1.40001
1.40001
1.40001
1.40001
1.40001
1.40001
1.40001
1.40001
1.40001
1.40001
1.40001
1.40001
1.40001
1.40001
1.40001
1.40001
1.40001
1.40001
1.4
1.4
1.4
1.40001
1.40001
1.40001
1.40001
1.40001
1.40001
1.40001
1.40001
1.40001
1.40001
1.40001
1.40001
1.40001
1.40001
1.40001
1.40001
1.40001
1.40001
1.40001
1.40001
1.40001
1.40001
1.4
1.4
1.40001
1.40001
1.40001
1.40001
1.40001
1.40001
1.40001
1.40001
1.40001
1.40001
1.40001
1.40001
1.40001
1.40001
1.40001
1.40001
1.40001
1.40001
1.40001
1.40001
1.4
1.4
1.4
1.40013
1.40001
1.40001
1.40001
1.40001
1.40001
1.40001
1.40001
1.40001
1.40001
1.40001
1.40001
1.40001
1.40001
1.40001
1.40001
1.40001
1.40001
1.40001
1.40001
1.4
1.4
1.4
1.40082
1.42954
1.40001
1.40001
1.40001
1.40001
1.40001
1.40001
1.40001
1.40001
1.40001
1.40001
1.40001
1.40001
1.40001
1.40001
1.40001
1.40001
1.40001
1.40001
1.4
1.4
1.40001
1.40269
1.45678
1.82192
1.40001
1.40001
1.40001
1.40001
1.40001
1.40001
1.40001
1.40001
1.40001
1.40001
1.40001
1.40001
1.40001
1.40001
1.40001
1.40001
1.4
1.4
1.4
1.40003
1.40487
1.51649
2.00538
2.72091
1.40001
1.40001
1.40001
1.40001
1.40001
1.40001
1.40001
1.40001
1.40001
1.40001
1.40001
1.40001
1.40001
1.40001
1.40001
1.4
1.4
1.4
1.40022
1.41393
1.58268
2.20195
2.94579
3.29796
1.40001
1.40001
1.40001
1.40001
1.40001
1.40001
1.40001
1.40001
1.40001
1.40001
1.40001
1.40001
1.40001
1.4
1.4
1.4
1.39999
1.40094
1.44073
1.73356
2.48501
3.01177
3.26537
3.35145
1.40001
1.40001
1.40001
1.40001
1.40001
1.40001
1.40001
1.40001
1.40001
1.40001
1.40001
1.40001
1.4
1.4
1.4
1.39999
1.40846
1.50514
1.99015
2.71421
3.24247
3.35992
3.35067
3.33815
1.40001
1.40001
1.40001
1.40001
1.40001
1.40001
1.40001
1.40001
1.40001
1.40001
1.4
1.4
1.4
1.39998
1.40143
1.42836
1.70329
2.32171
3.09169
3.30836
3.33325
3.31244
3.303
3.28762
1.40001
1.40001
1.40001
1.40001
1.40001
1.40001
1.40001
1.40001
1.40001
1.4
1.4
1.39998
1.40006
1.40748
1.54821
2.01625
2.79406
3.20078
3.40159
3.40379
3.37159
3.31278
3.29856
3.28755
1.40001
1.40001
1.40001
1.40001
1.40001
1.4
1.4
1.4
1.39999
1.4
1.39993
1.40268
1.47011
1.78502
2.50808
3.14637
3.45851
3.45477
3.4179
3.36425
3.31985
3.31613
3.30933
3.31071
1.40001
1.40001
1.4
1.4
1.4
1.4
1.39999
1.4
1.39991
1.40159
1.43373
1.68848
2.2991
3.01742
3.46858
3.52557
3.48755
3.44113
3.37292
3.31194
3.30139
3.31013
3.32163
3.33389
1.40001
1.4
1.4
1.4
1.39999
1.40004
1.39992
1.40175
1.42721
1.64961
2.16766
2.96627
3.39835
3.57933
3.5524
3.49407
3.39443
3.36142
3.35327
3.32826
3.3246
3.33181
3.34315
3.35903
1.4
1.39995
1.40023
1.40018
1.40334
1.42137
1.49655
1.70897
2.18632
2.8962
3.42367
3.71187
3.76442
3.71857
3.60979
3.45183
3.344
3.34251
3.35401
3.35817
3.36384
3.37119
3.38161
3.39756
1.40205
1.41736
1.47956
1.58594
1.8039
2.10619
2.51846
2.95815
3.38784
3.54167
3.64874
3.60954
3.56668
3.48334
3.4078
3.39827
3.38228
3.37251
3.37898
3.38425
3.39216
3.40292
3.41807
3.42781
1.67726
2.09229
2.52468
2.9997
3.43035
3.81504
4.1394
4.41077
4.42829
4.30348
4.03577
3.71974
3.47221
3.3625
3.29775
3.30768
3.33695
3.36625
3.38701
3.39734
3.40343
3.41307
3.43091
3.43657
2.67268
1.9544
1.39574
1.10277
1.03431
0.976147
0.949727
0.970385
1.02613
1.08743
1.14452
1.21293
1.28966
1.30899
1.30429
1.30377
1.31538
1.32853
1.34367
1.35563
1.35476
1.35008
1.33122
1.36834
1.68277
2.57988
3.65447
4.85232
5.82947
5.98527
5.63769
5.12791
4.79423
4.64807
4.56729
4.45879
4.32832
4.19275
4.07303
3.96677
3.86033
3.75272
3.64899
3.54397
3.43806
3.34169
3.26332
3.19664
3.13255
3.06743
3.00387
2.94247
2.87819
2.79931
2.70483
2.61764
2.55762
2.52069
2.49286
2.4667
2.43802
2.40504
2.36616
2.31549
2.23663
2.1324
2.05212
2.02576
2.00967
2.0008
2.00413
2.04328
2.20621
2.53841
2.93797
3.28041
3.53765
3.77516
3.88542
3.89374
3.8774
3.83983
3.77913
3.69748
3.60143
3.46521
3.34374
3.30654
3.28178
3.2687
3.2613
3.23693
3.21139
3.18214
3.1383
3.00972
3.15722
2.74723
2.34595
1.93223
1.71624
1.59768
1.4486
1.34704
1.29817
1.25815
1.21147
1.20986
1.23215
1.25232
1.25485
1.26031
1.27782
1.29594
1.31259
1.33141
1.3317
1.33661
1.39678
1.74472
2.44432
2.7555
3.04559
3.4781
4.21855
4.77581
5.11176
5.07873
4.92331
4.74775
4.59844
4.46386
4.33697
4.2211
4.11438
4.0104
3.90311
3.79029
3.67623
3.57043
3.47518
3.38906
3.30518
3.23433
3.17054
3.10493
3.03645
2.96734
2.89612
2.81828
2.73537
2.65997
2.60056
2.55565
2.52263
2.49482
2.46519
2.43083
2.38836
2.3316
2.25317
2.16113
2.08954
2.05769
2.04131
2.04799
2.10342
2.26707
2.55452
2.75563
2.89017
3.06721
3.23262
3.34599
3.499
3.64275
3.77585
3.82808
3.79304
3.71134
3.60764
3.48034
3.3594
3.31777
3.29348
3.27884
3.27241
3.2501
3.22477
3.19579
3.15362
3.02687
3.33724
3.12193
2.81949
2.48063
2.11283
1.89507
1.72859
1.54727
1.44285
1.36804
1.27028
1.24249
1.26048
1.26825
1.25911
1.25373
1.25837
1.27082
1.28965
1.31309
1.33513
1.45807
1.90626
2.52164
2.92184
2.93415
2.9238
2.93635
3.07089
3.61115
4.41404
4.93416
4.99077
4.8701
4.60287
4.39646
4.26616
4.15545
4.04387
3.93779
3.83817
3.74495
3.65713
3.56782
3.47112
3.36178
3.24782
3.15409
3.0947
3.04493
2.99094
2.93167
2.86991
2.80794
2.74532
2.6684
2.57911
2.51199
2.46727
2.43247
2.40137
2.36983
2.33307
2.28276
2.22114
2.17002
2.11656
2.086
2.08972
2.15662
2.37176
2.6338
2.85079
2.90522
2.90885
2.90606
2.92296
2.98215
3.18645
3.4384
3.62719
3.75274
3.76267
3.72343
3.62914
3.50397
3.37676
3.31226
3.28199
3.26041
3.24415
3.22349
3.20016
3.16989
3.12104
2.99918
3.35477
3.28578
3.09778
2.85853
2.52939
2.22555
2.05731
1.86406
1.69826
1.61628
1.49865
1.36998
1.35462
1.34667
1.32012
1.28716
1.27225
1.25953
1.25953
1.27032
1.39836
1.94333
2.58777
2.89982
2.93234
2.90617
2.8481
2.78406
2.70568
2.75011
3.09976
3.91762
4.59712
4.62978
4.57391
4.42716
4.27241
4.12805
3.99573
3.89223
3.80062
3.7258
3.65488
3.56881
3.46754
3.35794
3.24167
3.12866
3.05636
3.01284
2.97399
2.93502
2.89067
2.84094
2.78091
2.69246
2.58778
2.50672
2.45536
2.4125
2.37144
2.33202
2.2983
2.26565
2.23491
2.20948
2.16908
2.18477
2.29292
2.54381
2.77315
2.9359
2.9795
2.96947
2.92989
2.87997
2.82943
2.80002
2.85007
3.01931
3.25388
3.46496
3.59843
3.61559
3.59054
3.52023
3.41087
3.33437
3.29422
3.26439
3.24432
3.2281
3.20571
3.16977
3.10399
2.98769
3.34191
3.3304
3.25213
3.08378
2.85739
2.56563
2.31536
2.13852
1.96774
1.82688
1.69471
1.54046
1.41743
1.39501
1.38154
1.3504
1.30145
1.26909
1.2849
1.43973
2.00899
2.62789
2.8637
2.89753
2.86776
2.78903
2.72204
2.67042
2.60531
2.53432
2.54502
2.74572
3.38342
4.08668
4.41657
4.40005
4.28486
4.10238
3.94081
3.82591
3.73461
3.66851
3.61148
3.55723
3.49039
3.39744
3.26877
3.12186
3.02826
2.97411
2.924
2.87734
2.83759
2.79739
2.74624
2.67933
2.59627
2.51353
2.44958
2.40388
2.36216
2.31301
2.26324
2.23218
2.22337
2.24212
2.31917
2.50453
2.76817
2.97074
3.01687
3.02169
2.99662
2.95667
2.91277
2.85736
2.80762
2.78943
2.74783
2.7548
2.84663
3.03773
3.27205
3.44268
3.51923
3.50417
3.44711
3.37323
3.30928
3.26086
3.23051
3.20358
3.17767
3.14051
3.07865
2.97481
3.32408
3.32396
3.30869
3.22412
3.05475
2.85067
2.62592
2.37048
2.18274
2.05591
1.94439
1.80365
1.59842
1.50867
1.50411
1.48338
1.42346
1.4317
1.63994
2.19754
2.81626
2.96758
2.9294
2.85159
2.76873
2.6959
2.63854
2.58371
2.52103
2.44779
2.41551
2.38804
2.4618
2.87016
3.52845
4.0711
4.14432
4.0766
3.95363
3.82231
3.7194
3.63404
3.56571
3.50308
3.43819
3.37136
3.27361
3.11956
2.99308
2.93336
2.89136
2.85232
2.81643
2.78245
2.74484
2.69524
2.62622
2.54428
2.46547
2.39255
2.33142
2.28479
2.25102
2.24731
2.28256
2.45501
2.72624
2.9951
3.13723
3.13327
3.08315
3.02852
2.98362
2.94488
2.92293
2.89706
2.86552
2.82251
2.76714
2.67597
2.64375
2.6863
2.83124
3.05988
3.27033
3.40452
3.42516
3.40537
3.34876
3.29308
3.24547
3.19872
3.15806
3.11421
3.06213
2.97295
3.29715
3.30384
3.29622
3.27938
3.19499
3.02762
2.84806
2.66522
2.44095
2.2049
2.12332
2.04552
1.90903
1.71268
1.59117
1.56231
1.60852
1.8877
2.5219
3.06649
3.15768
3.07401
2.93034
2.81829
2.741
2.66994
2.6061
2.54364
2.47293
2.40721
2.35791
2.32499
2.26998
2.27987
2.45954
2.981
3.64706
3.90441
3.91191
3.85425
3.71669
3.59195
3.50845
3.4574
3.40742
3.34937
3.26203
3.131
3.00504
2.91907
2.86917
2.83008
2.79086
2.74774
2.69754
2.64387
2.5828
2.5156
2.44278
2.36925
2.32021
2.28841
2.29237
2.38292
2.61651
2.94578
3.16972
3.2416
3.23232
3.1732
3.07947
3.01421
2.97316
2.94531
2.91561
2.88353
2.85579
2.82375
2.76331
2.67784
2.6124
2.59466
2.61047
2.71039
2.9172
3.1622
3.34174
3.3825
3.36794
3.31209
3.23456
3.17149
3.12588
3.08711
3.04946
2.98475
3.27891
3.28102
3.28216
3.272
3.24853
3.16745
3.00177
2.83435
2.67798
2.49262
2.27142
2.15914
2.08037
1.95892
1.80668
1.87697
2.26987
2.95308
3.41921
3.41978
3.3186
3.16418
3.01139
2.89465
2.79406
2.70165
2.61864
2.54145
2.45524
2.38952
2.3331
2.29213
2.23592
2.18964
2.15534
2.21345
2.56045
3.15375
3.59658
3.72897
3.69683
3.58251
3.4813
3.4165
3.35597
3.28609
3.21312
3.12986
3.02866
2.92914
2.85284
2.80696
2.76592
2.72123
2.67344
2.62306
2.56523
2.50116
2.42986
2.38208
2.34329
2.37178
2.52795
2.82945
3.14427
3.33741
3.36127
3.34803
3.28949
3.17787
3.07263
3.0048
2.97402
2.94987
2.921
2.88894
2.85718
2.82415
2.77246
2.69301
2.62112
2.5863
2.57816
2.58035
2.63601
2.80885
3.03992
3.22566
3.28699
3.27768
3.21669
3.15138
3.10853
3.0739
3.0466
2.99691
3.31139
3.2925
3.28595
3.27843
3.27042
3.23675
3.14509
2.99027
2.8237
2.67822
2.5068
2.32929
2.19329
2.13247
2.28552
2.85433
3.5325
3.78969
3.73285
3.57435
3.40351
3.25285
3.12674
3.02098
2.91458
2.80744
2.70133
2.59183
2.47895
2.38896
2.32655
2.27468
2.21952
2.16094
2.11898
2.07517
2.08621
2.24744
2.6874
3.27631
3.58113
3.55715
3.49986
3.3983
3.3046
3.21788
3.15202
3.10537
3.05141
2.95292
2.84638
2.78724
2.7463
2.69835
2.64946
2.5964
2.53757
2.48412
2.44168
2.43633
2.50691
2.75336
3.06857
3.31376
3.42117
3.42274
3.39374
3.33906
3.26512
3.17198
3.08119
3.02178
2.99027
2.96209
2.93219
2.89986
2.86285
2.81846
2.76744
2.70833
2.64736
2.60653
2.57893
2.56484
2.5606
2.58683
2.70107
2.87323
3.05006
3.18875
3.19834
3.15067
3.09994
3.07175
3.06204
3.01954
3.34632
3.31704
3.29944
3.29689
3.2972
3.28463
3.23424
3.12868
2.98782
2.81196
2.66779
2.48218
2.49474
2.80126
3.50876
4.1362
4.23983
4.12771
3.92352
3.721
3.54485
3.39189
3.25623
3.13253
3.01187
2.89598
2.78564
2.6672
2.54987
2.44323
2.35584
2.27513
2.20741
2.1498
2.10986
2.0604
2.03007
2.00141
2.05172
2.343
2.86418
3.31389
3.41252
3.3581
3.27633
3.20581
3.14427
3.08063
3.00789
2.92949
2.83301
2.75321
2.70571
2.65644
2.61467
2.57129
2.5399
2.51295
2.55633
2.71373
3.02944
3.31821
3.48223
3.54276
3.53131
3.46602
3.3864
3.32072
3.25324
3.17433
3.10104
3.04966
3.0155
2.98366
2.95257
2.9197
2.87869
2.82508
2.75953
2.7097
2.67424
2.64264
2.6069
2.57817
2.55128
2.54411
2.54583
2.59361
2.6978
2.86738
3.0308
3.07042
3.07346
3.08488
3.09196
3.05697
3.29004
3.25838
3.26452
3.27633
3.29399
3.30477
3.28082
3.21976
3.10196
2.971
2.82155
2.92427
3.50738
4.3398
4.70589
4.65611
4.47396
4.26038
4.05045
3.85481
3.67874
3.52033
3.37781
3.24571
3.117
2.9918
2.87033
2.74391
2.62326
2.51239
2.41466
2.3233
2.2397
2.16548
2.10598
2.06009
2.00843
1.96641
1.93252
1.93222
2.05477
2.46509
2.93941
3.18033
3.24413
3.23025
3.15787
3.07426
2.99864
2.92316
2.82884
2.72432
2.65991
2.62269
2.59549
2.57446
2.59364
2.7271
3.01904
3.35445
3.58057
3.58014
3.57826
3.5576
3.52096
3.47381
3.40787
3.33598
3.26433
3.18828
3.12357
3.07899
3.04366
3.01029
2.97957
2.94729
2.90277
2.83868
2.75855
2.70168
2.6817
2.66506
2.6408
2.60957
2.57499
2.54139
2.52201
2.5002
2.51297
2.56367
2.70492
2.877
2.98486
3.0444
3.10396
3.09042
3.17214
3.31426
3.34727
3.32833
3.32306
3.32046
3.30906
3.28391
3.19304
3.19304
3.52315
4.34202
5.13257
5.34874
5.23783
4.95078
4.6581
4.40597
4.18566
3.98445
3.79789
3.62712
3.47537
3.33699
3.20442
3.07744
2.95503
2.83091
2.70633
2.58144
2.45935
2.35587
2.27602
2.21232
2.1491
2.08127
2.00863
1.95925
1.90899
1.86557
1.8308
1.87696
2.117
2.55495
2.93672
3.11471
3.11386
3.07294
3.00962
2.935
2.83427
2.7233
2.65365
2.63394
2.62792
2.6828
2.93384
3.34391
3.68604
3.85068
3.82899
3.73393
3.6158
3.54249
3.50807
3.47888
3.43441
3.3718
3.29886
3.22082
3.14928
3.1007
3.06415
3.03313
3.00408
2.9704
2.91987
2.844
2.76777
2.72326
2.69347
2.67117
2.65193
2.6293
2.60078
2.56416
2.52149
2.48227
2.45687
2.43901
2.46651
2.58501
2.76994
2.92049
3.03534
3.05589
2.66869
3.11232
3.26585
3.30976
3.30334
3.31431
3.33731
3.35481
3.51245
4.25837
5.33527
5.73847
5.73745
5.62333
5.42096
5.16914
4.87902
4.58739
4.32591
4.10098
3.90149
3.71688
3.55034
3.40458
3.26972
3.13575
2.99628
2.85967
2.74194
2.64205
2.53664
2.41803
2.30074
2.2203
2.16643
2.10092
2.03044
1.97771
1.9248
1.85754
1.7941
1.74125
1.7504
1.87961
2.22839
2.66611
2.927
2.99132
2.97504
2.93151
2.84219
2.75602
2.68079
2.69419
2.84273
3.19159
3.62871
3.90038
3.93674
3.92388
3.85357
3.73256
3.63785
3.56651
3.51427
3.48023
3.44366
3.39324
3.32967
3.25424
3.1747
3.12537
3.09568
3.06634
3.03385
2.99204
2.93168
2.85444
2.79065
2.75183
2.71997
2.68846
2.66186
2.64335
2.62684
2.59146
2.53755
2.48349
2.44035
2.41876
2.38745
2.39965
2.48951
2.64704
2.83409
2.97496
1.77431
2.39809
2.98721
3.30116
3.29823
3.34218
3.45271
3.90275
4.90927
5.99906
6.42586
6.37072
6.06583
5.73578
5.50904
5.28888
5.03554
4.75593
4.47845
4.22718
4.00604
3.8058
3.61326
3.436
3.28585
3.16354
3.04903
2.9241
2.78956
2.65841
2.54951
2.45817
2.36574
2.2687
2.1718
2.11697
2.08386
2.02994
1.95274
1.86406
1.79155
1.7311
1.68845
1.66501
1.71106
1.95089
2.37531
2.71409
2.87968
2.86943
2.81746
2.82761
2.91012
3.15618
3.56676
3.91135
4.11963
4.12569
4.05117
3.92782
3.82547
3.72848
3.6529
3.59542
3.5398
3.49078
3.44844
3.40524
3.35548
3.29131
3.21078
3.13084
3.07298
3.03722
3.00304
2.9651
2.9218
2.87304
2.82881
2.78395
2.74728
2.7223
2.69717
2.66027
2.61092
2.56809
2.52884
2.49122
2.45571
2.42071
2.3807
2.34406
2.34108
2.38831
2.50641
2.74875
1.42942
1.62642
2.16534
2.88144
3.13275
3.8056
4.52791
5.60336
6.4038
6.53376
6.50012
6.41213
6.22158
5.92748
5.63661
5.36242
5.09951
4.85065
4.59444
4.3351
4.10071
3.89028
3.68469
3.48778
3.32448
3.17904
3.04855
2.93548
2.82324
2.7007
2.57497
2.47406
2.38172
2.28741
2.20711
2.1414
2.07014
1.99197
1.91323
1.83965
1.78025
1.72862
1.67227
1.6401
1.61853
1.63142
1.76552
2.08509
2.50659
2.70489
2.90466
3.30467
3.63387
3.97166
4.16402
4.17943
4.16882
4.11793
4.04112
3.94024
3.84419
3.74987
3.66697
3.6279
3.58215
3.53511
3.48686
3.43796
3.38424
3.31902
3.23958
3.15325
3.08049
3.03055
2.9911
2.95121
2.91764
2.89134
2.8635
2.82769
2.78162
2.7315
2.6811
2.62754
2.58344
2.55148
2.52703
2.50569
2.48391
2.45433
2.41177
2.33854
2.29195
2.29321
2.31857
2.48234
1.40061
1.4109
1.55465
2.11105
3.22711
4.79076
5.78398
6.49074
7.05346
6.86542
6.5287
6.39701
6.27644
6.07591
5.77965
5.44801
5.13427
4.87498
4.63337
4.3835
4.13725
3.89435
3.71824
3.58927
3.43975
3.27971
3.1315
2.99479
2.85716
2.72777
2.58631
2.45908
2.4118
2.36715
2.29321
2.19322
2.08558
1.99228
1.91796
1.85686
1.78739
1.73608
1.70985
1.67491
1.63219
1.58242
1.57297
1.63719
1.93064
2.56955
3.23142
3.86682
4.21845
4.45357
4.44519
4.35853
4.1959
4.06682
4.00645
3.94121
3.85309
3.77233
3.68645
3.60051
3.54023
3.50402
3.46717
3.42458
3.37415
3.31986
3.25785
3.17647
3.08263
3.02307
2.98974
2.9555
2.92152
2.89321
2.86724
2.84067
2.80818
2.74819
2.67369
2.61272
2.57746
2.55588
2.5385
2.51961
2.49707
2.46361
2.40437
2.32499
2.27249
2.25539
2.25719
2.31224
1.40032
1.41658
1.54534
2.16086
3.49682
4.49021
5.85567
6.5131
7.00178
6.93973
6.69168
6.49835
6.33738
6.05095
5.69525
5.35235
5.05073
4.80096
4.61377
4.43953
4.21365
3.97031
3.74626
3.53854
3.3684
3.21537
3.06755
2.96822
2.89625
2.78992
2.6482
2.50872
2.39613
2.31154
2.23308
2.13666
2.05221
2.01532
1.97211
1.91414
1.83914
1.76004
1.68889
1.63468
1.59334
1.56134
1.5624
1.63886
1.95221
2.57297
3.32829
3.83027
4.20026
4.47737
4.45367
4.34004
4.21334
4.08035
4.01579
3.94762
3.86837
3.76837
3.6627
3.58601
3.53197
3.49485
3.46177
3.42768
3.393
3.35111
3.29051
3.1933
3.0869
3.02347
2.99011
2.96574
2.94309
2.92081
2.89874
2.86943
2.81496
2.72374
2.64487
2.62068
2.60473
2.58754
2.56855
2.54733
2.52164
2.47994
2.41396
2.32871
2.27138
2.2537
2.25501
2.33028
1.42142
1.63953
2.22743
2.92792
3.3188
3.57225
4.49351
5.49554
6.30132
6.65261
6.62825
6.53065
6.29327
5.92896
5.58653
5.29129
5.03484
4.79278
4.54998
4.3053
4.08752
3.90254
3.71883
3.53036
3.35817
3.21568
3.08978
2.9552
2.81164
2.68871
2.57999
2.47155
2.36292
2.28029
2.21061
2.13331
2.05712
1.98194
1.91211
1.85534
1.80419
1.75071
1.68869
1.64446
1.60437
1.60842
1.72157
2.06469
2.47766
2.6986
2.99008
3.27959
3.61783
3.99779
4.12362
4.16977
4.16267
4.13126
4.07301
3.98903
3.86856
3.74889
3.6617
3.60769
3.5585
3.51146
3.46512
3.41597
3.36239
3.30307
3.23498
3.16614
3.10345
3.0547
3.01315
2.96883
2.92442
2.89244
2.8658
2.83528
2.79055
2.71857
2.6386
2.59509
2.57582
2.55842
2.53934
2.51872
2.49737
2.47373
2.43272
2.35251
2.28332
2.2791
2.29988
2.47525
1.7054
2.45929
2.97888
3.24767
3.33649
3.34305
3.44846
3.88604
4.8718
5.99425
6.52759
6.46473
6.09681
5.7173
5.44508
5.20849
4.96464
4.70215
4.44398
4.22097
4.03582
3.86106
3.68093
3.49955
3.32224
3.16074
3.02139
2.89129
2.75931
2.6406
2.55323
2.47526
2.38682
2.29863
2.20862
2.11092
2.02566
1.96194
1.90344
1.83822
1.80369
1.77266
1.72927
1.69984
1.74099
1.95135
2.33342
2.70167
2.87242
2.86872
2.84238
2.82314
2.91118
3.17863
3.60806
3.92045
4.1107
4.13311
4.0676
3.94707
3.83111
3.73904
3.66364
3.58902
3.52877
3.49016
3.45597
3.4213
3.37355
3.29288
3.18877
3.11072
3.06532
3.03428
3.00294
2.96896
2.93716
2.89831
2.85276
2.80752
2.76002
2.70409
2.6444
2.59719
2.56804
2.54712
2.52704
2.50738
2.48585
2.45909
2.41306
2.35368
2.32946
2.36505
2.46699
2.71777
2.54088
3.1956
3.32963
3.31542
3.30563
3.2947
3.28889
3.30236
3.46786
4.19474
5.34239
5.80883
5.74426
5.60185
5.36343
5.10598
4.83317
4.57005
4.33823
4.13653
3.95604
3.78565
3.61377
3.43322
3.25263
3.08692
2.9424
2.82014
2.72038
2.63465
2.54404
2.44275
2.33809
2.23877
2.15998
2.10803
2.04976
1.97441
1.89719
1.82974
1.79134
1.76281
1.77783
1.89544
2.24926
2.66163
2.91874
2.98593
2.96405
2.89991
2.81451
2.75883
2.70568
2.71809
2.86508
3.20689
3.58466
3.86817
3.92541
3.90066
3.84072
3.74859
3.65679
3.57401
3.50967
3.47915
3.44941
3.40749
3.3489
3.26219
3.15891
3.08162
3.0561
3.04172
3.02034
2.98504
2.93365
2.87399
2.81986
2.77707
2.74088
2.7046
2.65542
2.59511
2.56021
2.53713
2.51502
2.49337
2.47273
2.45684
2.42135
2.4116
2.46857
2.6064
2.76882
2.92629
3.1586
3.36321
3.3777
3.35981
3.31578
3.29222
3.28398
3.2617
3.18459
3.18966
3.53205
4.37974
5.12516
5.34464
5.23757
4.94269
4.65992
4.42346
4.2195
4.03058
3.85113
3.676
3.50131
3.32893
3.16476
3.01531
2.88641
2.77578
2.67145
2.5687
2.47095
2.39009
2.32223
2.24786
2.16488
2.08169
1.99892
1.9342
1.88143
1.84698
1.81994
1.87006
2.13417
2.57903
2.96309
3.09631
3.09614
3.05058
2.97146
2.90081
2.82883
2.75681
2.69028
2.6586
2.62468
2.6678
2.89395
3.28504
3.64903
3.83834
3.82897
3.75602
3.6458
3.54341
3.48108
3.45099
3.41614
3.36667
3.30469
3.23336
3.16045
3.10039
3.04799
3.01239
2.98442
2.95097
2.90265
2.84803
2.80193
2.76437
2.73023
2.69577
2.65377
2.59712
2.54422
2.5137
2.49591
2.48041
2.47697
2.47406
2.50646
2.60307
2.77959
2.8937
2.98611
3.01698
3.28315
3.27368
3.291
3.29706
3.29354
3.29537
3.27587
3.22026
3.10952
2.98017
2.83286
2.94112
3.52067
4.31586
4.67934
4.64918
4.47695
4.27086
4.07973
3.89918
3.72127
3.54404
3.37327
3.21508
3.06975
2.93456
2.80955
2.69793
2.60996
2.54049
2.469
2.37656
2.27941
2.19174
2.11411
2.04868
1.98512
1.9382
1.90163
1.91011
2.04828
2.47689
2.95478
3.20393
3.24512
3.22821
3.16719
3.08372
2.99737
2.91705
2.84666
2.77638
2.71411
2.65159
2.60106
2.55145
2.56172
2.67564
2.98188
3.36566
3.60921
3.64353
3.61936
3.55287
3.49318
3.43743
3.37755
3.31975
3.26394
3.21363
3.1658
3.11206
3.05054
2.9979
2.95901
2.91648
2.86851
2.82428
2.78615
2.75093
2.71697
2.68342
2.6415
2.58635
2.52918
2.50062
2.49585
2.49646
2.52421
2.61217
2.76005
2.94016
3.03374
3.06266
3.07064
3.03444
3.34301
3.32125
3.30541
3.29687
3.29455
3.28211
3.23628
3.13637
2.99725
2.81987
2.66995
2.48122
2.49249
2.7941
3.50786
4.14913
4.23208
4.12063
3.9306
3.73899
3.55512
3.38327
3.23039
3.0957
2.97397
2.86548
2.76871
2.67402
2.57677
2.48806
2.41067
2.32387
2.23285
2.14909
2.09474
2.04449
2.00437
1.96372
2.02314
2.31472
2.86115
3.34294
3.45122
3.40813
3.27963
3.18688
3.12629
3.07158
3.01213
2.94303
2.87434
2.80591
2.74006
2.66781
2.59817
2.54186
2.5145
2.49462
2.54069
2.74593
3.07324
3.38746
3.5479
3.54556
3.49596
3.40417
3.32323
3.28036
3.24132
3.2038
3.168
3.12345
3.06329
2.98826
2.91993
2.87479
2.83746
2.8031
2.77102
2.73804
2.70314
2.66691
2.62555
2.57801
2.52937
2.51543
2.52198
2.57717
2.71327