/*--------------------------------*- C++ -*----------------------------------*\
  =========                 |
  \\      /  F ield         | OpenFOAM: The Open Source CFD Toolbox
   \\    /   O peration     | Website:  https://openfoam.org
    \\  /    A nd           | Version:  7
     \\/     M anipulation  |
\*---------------------------------------------------------------------------*/
FoamFile
{
    version     2.0;
    format      ascii;
    class       volScalarField;
    location    "2.4";
    object      T;
}
// * * * * * * * * * * * * * * * * * * * * * * * * * * * * * * * * * * * * * //

dimensions      [0 0 0 1 0 0 0];

internalField   nonuniform List<scalar> 
4608
(
1
1
1
1
1
1
1
1
1
1
1
1
1
1
1
1
1
1
1
1
1
1
1
1
1
1
1
1
1
1
1
1
1
1
1
1
1
1
1
1
1
1
1
1
1
1
1
1
1
1
1
1
1
1
1
1
1
1
1
1
1
1
1
1
1
1
1
1
1
1
1
1
1
1
1
1
1
1
1
1
1
1
1
1
1
1
1
1
1
1
1
1
1
1
1
1
1
1
1
1
1
1
1
1
1
1
1
1
1
1
1
1
1
1
1
1
1
1
1
1
1
1
1
1
1
1
1
1
1
1
1
1
1
1
1
1
1
1
1
1
1
1
1
1
1
1
1
1
1
1
1
1
1
1
1
1
1
1
1
1
1
1
1
1
1
1
1
1
1
1
1
1
1
1
1
1
1
1
1
1
1
1
1
1
1
1
1
1
1
1
1
1
1
1
1
1
1
1
1
1
1
1
1
1
1
1
1
1
1
1
1
1
1
1
1
1
1
1
1
1
1
1
1
1
1
1
1
1
1
1
1
1
1
1
1
1
1
1
1
1
1
1
1
1
1
1
1
1
1
1
1
1
1
1
1
1
1
1
1
1
1
1
1
1
1
1
1
1
1
1
1
1
1
1
1
1
1
1
1
1
1
1
1
1
1
1
1
1
1
1
1
1
1
1
1
1
1
1
1
1
1
1
1
1
1
1
1
1
1
1
1
1
1
1
1
1
1
1
1
1
1
1
1
1
1
1
1
1
1
1
1
1
1
1
1
1
1
1
1
1
1
1
1
1
1
1
1
1
1
1
1
1
1
1
1
1
1
1
1
1
1
1
1
1
1
1
1
1
1
1
1
1
1
1
1
1
1
1
1
1
1
1
1
1
1
1
1
1
1
1
1
1
1
1
1
1
1
1
1
1
1
1
1
1
1
1
1
1
1
1
1
1
1
1
1
1
1
1
1
1
1
1
1
1
1
1
1
1
1
1
1
1
1
1
1
1
1
1
1
1
1
1
1
1
1
1
1
1
1
1
1
1
1
1
1
1
1
1
1
1
1
1
1
1
1
1
1
1
1
1
1
1
1
1
1
1
1
1
1
1
1
1
1
1
1
1
1
1
1
1
1
1
1
1
1
1
1
1
1
1
1
1
1
1
1
1
1
1
1
1
1
1
1
1
1
1
1
1
1
1
1
1
1
1
1
1
1
1
1
1
1
1
1
1
1
1
1
1
1
1
1
1
1
1
1
1
1
1
1
1
1
1
1
1
1
1
1
1
1
1
1
1
1
1
1
1
1
1
1
1
1
1
1
1
1
1
1
1
1
1
1
1
1
1
1
1
1
1
1
1
1
1
1
1
1
1
1
1
1
1
1
1
1
1
1
1
1
1
1
1
1
1
1
1
1
1
1
1
1
1
1
1
1
1
1
1
1
1
1
1
1
1
1
1
1
1
1
1
1
1
1
1
1
1
1
1
1
1
1
1
1
1
1
1
1
1
1
1
1
1
1
1
1
1
1
1
1
1
1
1
1
1
1
1
1
1
1
1
1
1
1
1
1
1
1
1
1
1
1
1
1
1
1
1
1
1
1
1
1
1
1
1
1
1
1
1
1
1
1
1
1
1
1
1
1
1
1
1
1
1
1
1
1
1
1
1
1
1
1
1
1
1
1
1
1
1
1
1
1
1
1
1
1
1
1
1
1
1
1
1
1
1
1
1
1
1
1
1
1
1
1
1
1
1
1
1
1
1
1.07849
1.18318
1.28488
1.39145
1.48772
1.56986
1.63967
1.68373
1.69812
1.6819
1.63792
1.58621
1.54316
1.52472
1.51355
1.51513
1.51995
1.525
1.52945
1.53244
1.53441
1.53686
1.54004
1.54094
1.00069
1.00629
1.0306
1.07085
1.14685
1.23124
1.32407
1.4048
1.48438
1.51849
1.54703
1.56446
1.56317
1.55356
1.5405
1.53718
1.5334
1.53168
1.53334
1.53494
1.5369
1.53915
1.5412
1.54251
1
0.999982
1.00008
1.00007
1.00127
1.00811
1.03725
1.11641
1.26766
1.45209
1.56554
1.62333
1.62259
1.6121
1.59095
1.56098
1.54003
1.54027
1.54348
1.54426
1.54461
1.54512
1.54539
1.54655
1
0.999999
1
1
0.999996
1.00001
0.99997
1.00068
1.01164
1.11382
1.30594
1.50398
1.60063
1.61194
1.60364
1.59017
1.57045
1.56605
1.56558
1.56153
1.55676
1.55572
1.55514
1.55553
1
1
1
1
1
1
0.999997
0.999998
0.999962
1.00062
1.01507
1.12832
1.34622
1.53484
1.62401
1.62117
1.61238
1.60401
1.59106
1.57911
1.57252
1.57022
1.56831
1.56934
1
1
1
1
1
1
1
1
0.999997
0.999997
0.999963
1.00104
1.03048
1.16783
1.40524
1.55841
1.62003
1.61836
1.6095
1.59815
1.58823
1.58443
1.57942
1.57957
1
1
1
1
1
1
1
1
1
1
0.999996
0.999997
1
1.00295
1.06432
1.24672
1.46962
1.56256
1.60597
1.60601
1.60006
1.58811
1.58503
1.58234
1
1
1
1
1
1
1
1
1
1
1
1
0.999999
0.999989
1.00047
1.01139
1.12745
1.33301
1.53329
1.57952
1.58761
1.58509
1.58451
1.5828
1
1
1
1
1
1
1
1
1
1
1
1
1
0.999998
0.999999
0.999988
1.00303
1.0427
1.22393
1.43615
1.55366
1.58908
1.58978
1.58809
1
1
1
1
1
1
1
1
1
1
1
1
1
1
1
0.999999
0.999991
1.00031
1.01495
1.13624
1.35792
1.49769
1.56587
1.58278
1
1
1
1
1
1
1
1
1
1
1
1
1
1
1
1
0.999999
0.999998
1.00006
1.00499
1.07136
1.26966
1.48296
1.5627
1
1
1
1
1
1
1
1
1
1
1
1
1
1
1
1
1
1
0.999999
1
1.00174
1.03915
1.21223
1.44087
1
1
1
1
1
1
1
1
1
1
1
1
1
1
1
1
1
1
1
1
0.999999
1.00068
1.02194
1.15856
1
1
1
1
1
1
1
1
1
1
1
1
1
1
1
1
1
1
1
1
1
0.999999
1.00035
1.00929
1
1
1
1
1
1
1
1
1
1
1
1
1
1
1
1
1
1
1
1
1
1
1
0.999994
1
1
1
1
1
1
1
1
1
1
1
1
1
1
1
1
1
1
1
1
1
1
1
0.999996
1
1
1
1
1
1
1
1
1
1
1
1
1
1
1
1
1
1
1
1
1
1
1
0.999998
1
1
1
1
1
1
1
1
1
1
1
1
1
1
1
1
1
1
1
1
1
1
0.999999
1.00003
1
1
1
1
1
1
1
1
1
1
1
1
1
1
1
1
1
1
1
1
1
0.999999
1.00025
1.01006
1
1
1
1
1
1
1
1
1
1
1
1
1
1
1
1
1
1
1
1
0.999999
1.00086
1.0208
1.15103
1
1
1
1
1
1
1
1
1
1
1
1
1
1
1
1
1
1
0.999999
1
1.00165
1.04465
1.216
1.41003
1
1
1
1
1
1
1
1
1
1
1
1
1
1
1
1
0.999999
0.999998
1.00006
1.00499
1.0707
1.28402
1.47595
1.55547
1
1
1
1
1
1
1
1
1
1
1
1
1
1
1
0.999999
0.999991
1.0003
1.0152
1.13314
1.36339
1.50164
1.55881
1.58165
1
1
1
1
1
1
1
1
1
1
1
1
1
0.999998
0.999999
0.999988
1.00303
1.04281
1.22443
1.43222
1.55889
1.58913
1.58825
1.58675
1
1
1
1
1
1
1
1
1
1
1
1
0.999999
0.999989
1.00047
1.01139
1.12713
1.33448
1.5319
1.57864
1.58939
1.58587
1.58433
1.58148
1
1
1
1
1
1
1
1
1
1
0.999996
0.999997
1
1.00295
1.06436
1.24643
1.47016
1.56286
1.60514
1.60573
1.60044
1.58891
1.58489
1.58176
1
1
1
1
1
1
1
1
0.999997
0.999997
0.999963
1.00104
1.03049
1.16787
1.40531
1.55812
1.62023
1.61849
1.60942
1.59793
1.58852
1.58461
1.57945
1.57963
1
1
1
1
1
1
0.999997
0.999998
0.999962
1.00062
1.01508
1.12828
1.34624
1.53491
1.62394
1.62116
1.61241
1.60406
1.59107
1.57891
1.57275
1.57014
1.56816
1.5694
1
0.999999
1
1
0.999996
1.00001
0.999969
1.00068
1.01163
1.11379
1.30597
1.50395
1.60075
1.61191
1.60361
1.5902
1.57035
1.56612
1.5655
1.56144
1.5569
1.55564
1.5551
1.55556
1
0.999982
1.00008
1.00007
1.00127
1.00812
1.03725
1.11643
1.26762
1.45212
1.56553
1.62333
1.6226
1.61211
1.59097
1.56095
1.54001
1.54027
1.54342
1.54429
1.54468
1.54511
1.54535
1.54652
1.00069
1.00629
1.0306
1.07085
1.14686
1.23124
1.32407
1.40481
1.48435
1.51852
1.54701
1.56444
1.56317
1.55359
1.54052
1.5372
1.5334
1.53165
1.53333
1.53495
1.53691
1.53913
1.54116
1.54253
1.07848
1.18318
1.28489
1.39145
1.48771
1.56983
1.63969
1.68374
1.69811
1.68189
1.63792
1.58619
1.54316
1.52473
1.51356
1.51514
1.51996
1.525
1.52946
1.53246
1.53442
1.53681
1.54
1.54097
1.39873
1.23903
1.09581
0.991654
0.998737
1.00759
1.00192
1.00651
1.02449
1.04441
1.06246
1.08499
1.10645
1.10901
1.10683
1.10615
1.10868
1.11011
1.11245
1.11656
1.11664
1.1142
1.10684
1.12207
1.25282
1.52715
1.76376
1.98525
2.13651
2.18347
2.13317
2.05358
1.99637
1.97113
1.95736
1.93933
1.91687
1.89244
1.87038
1.85083
1.83125
1.81136
1.79155
1.77059
1.74916
1.72919
1.71289
1.69911
1.68563
1.67149
1.65731
1.64343
1.62899
1.61147
1.59048
1.57024
1.55542
1.54593
1.53882
1.53242
1.52572
1.51817
1.50903
1.49646
1.47579
1.44746
1.42495
1.41737
1.41278
1.41012
1.411
1.42226
1.46964
1.561
1.65782
1.73264
1.78622
1.83484
1.85853
1.86108
1.85764
1.85028
1.83897
1.82397
1.80591
1.77806
1.7507
1.74169
1.73691
1.73553
1.73513
1.73088
1.72567
1.7192
1.70953
1.68293
1.49565
1.41742
1.33147
1.22231
1.16785
1.14626
1.10534
1.0716
1.06007
1.05414
1.04958
1.05113
1.05979
1.06642
1.0676
1.06968
1.07556
1.0804
1.08529
1.09332
1.09376
1.09667
1.12234
1.26301
1.48754
1.5605
1.62841
1.72591
1.86826
1.96606
2.03439
2.03531
2.01452
1.98791
1.96412
1.94199
1.92006
1.89845
1.8785
1.85926
1.8394
1.81875
1.79757
1.77684
1.75755
1.73955
1.72192
1.70741
1.69426
1.68026
1.66534
1.65017
1.63433
1.61688
1.59829
1.58084
1.56628
1.55478
1.54644
1.53975
1.5329
1.52506
1.51513
1.50116
1.48066
1.45555
1.43572
1.42676
1.42201
1.42386
1.43963
1.48546
1.56266
1.61404
1.64498
1.6858
1.72509
1.74917
1.78048
1.80949
1.83674
1.84836
1.84214
1.82793
1.80862
1.78245
1.75552
1.74583
1.7412
1.73936
1.73904
1.7351
1.7297
1.72288
1.71336
1.68765
1.53316
1.49143
1.43119
1.35757
1.27323
1.22114
1.17494
1.12239
1.09385
1.0743
1.04606
1.03745
1.04303
1.04545
1.0441
1.04454
1.0465
1.05004
1.05594
1.06469
1.07383
1.12233
1.28961
1.47945
1.58556
1.59027
1.58746
1.59103
1.62704
1.75799
1.92649
2.01724
2.03236
2.01328
1.96905
1.93306
1.90937
1.88858
1.86766
1.84796
1.82945
1.81232
1.79613
1.77857
1.75847
1.73555
1.71155
1.69134
1.67861
1.66795
1.65636
1.64373
1.63046
1.61689
1.60227
1.58343
1.56142
1.54452
1.53305
1.52448
1.51729
1.51014
1.50156
1.48921
1.47312
1.45879
1.44357
1.43489
1.43612
1.45605
1.51598
1.58403
1.63889
1.65181
1.65228
1.652
1.65722
1.67336
1.72113
1.77573
1.81377
1.83899
1.84137
1.83402
1.8158
1.79035
1.76298
1.74887
1.74258
1.73845
1.73572
1.73188
1.72698
1.71987
1.70876
1.68308
1.55087
1.53338
1.49404
1.44417
1.37391
1.3052
1.26261
1.21169
1.16822
1.14439
1.10923
1.06728
1.06262
1.06078
1.05395
1.04664
1.0425
1.03813
1.03814
1.04267
1.09523
1.29581
1.48802
1.57557
1.58805
1.58299
1.57137
1.55808
1.54253
1.55684
1.65485
1.84266
1.98003
1.9801
1.96959
1.94316
1.91497
1.88792
1.86374
1.84522
1.82844
1.81393
1.79972
1.78276
1.76207
1.73914
1.71421
1.68883
1.67211
1.66223
1.65375
1.64562
1.63662
1.62632
1.61265
1.59082
1.56476
1.54443
1.53148
1.52073
1.51086
1.50156
1.49349
1.48571
1.47784
1.47051
1.45912
1.46397
1.49561
1.56276
1.61997
1.66098
1.67267
1.67026
1.66124
1.64998
1.63825
1.6345
1.64748
1.68844
1.74135
1.78729
1.81526
1.81694
1.81181
1.79785
1.77529
1.75839
1.74908
1.74255
1.73898
1.73604
1.73164
1.72403
1.70943
1.68245
1.5645
1.5578
1.53827
1.50201
1.45404
1.39101
1.3319
1.28727
1.24581
1.20928
1.17019
1.12214
1.08433
1.07922
1.07592
1.06735
1.05273
1.04304
1.05034
1.11982
1.32278
1.50232
1.56668
1.58314
1.57814
1.5622
1.54781
1.536
1.52055
1.50433
1.50805
1.56721
1.73709
1.88775
1.9517
1.94803
1.92539
1.88947
1.85892
1.83769
1.8205
1.80701
1.79511
1.78455
1.7711
1.75146
1.72354
1.69099
1.66906
1.65611
1.64477
1.63468
1.62643
1.61798
1.60666
1.59048
1.56932
1.54804
1.53182
1.52033
1.51003
1.49821
1.48595
1.47794
1.47545
1.48069
1.50309
1.55446
1.62095
1.66885
1.68195
1.68593
1.68042
1.67139
1.66122
1.64888
1.63784
1.63387
1.62471
1.62715
1.65086
1.69729
1.75064
1.78787
1.80241
1.79887
1.78656
1.77048
1.75587
1.74502
1.73909
1.73392
1.72899
1.72141
1.70734
1.68177
1.57732
1.57398
1.56692
1.54608
1.50876
1.46373
1.41337
1.35275
1.30586
1.27344
1.24393
1.205
1.1459
1.11891
1.11864
1.11333
1.09714
1.10365
1.19417
1.39156
1.5531
1.59698
1.59041
1.57663
1.56059
1.54479
1.53099
1.51673
1.49999
1.481
1.47292
1.46647
1.48949
1.60941
1.77373
1.89456
1.90141
1.88831
1.86443
1.83904
1.81935
1.80283
1.78906
1.77568
1.76175
1.74749
1.7268
1.69352
1.66485
1.65118
1.64177
1.63327
1.62548
1.61779
1.60872
1.59658
1.57908
1.55812
1.53783
1.51968
1.50442
1.49281
1.48478
1.48377
1.49383
1.54203
1.6146
1.67954
1.71093
1.71075
1.70144
1.69049
1.68043
1.67132
1.66611
1.66045
1.65368
1.6439
1.63066
1.6089
1.60215
1.61346
1.65019
1.70461
1.75246
1.78059
1.78368
1.77936
1.76705
1.7549
1.7448
1.73564
1.72763
1.7182
1.70606
1.68407
1.58251
1.58185
1.5788
1.57295
1.55233
1.51429
1.47292
1.43033
1.37809
1.31938
1.29626
1.2752
1.24067
1.18927
1.15351
1.14598
1.16601
1.27931
1.488
1.62529
1.64273
1.62547
1.59622
1.57225
1.55518
1.53887
1.52194
1.50399
1.48452
1.46669
1.45354
1.44488
1.4301
1.43378
1.49191
1.64281
1.79721
1.85022
1.85489
1.84475
1.81912
1.795
1.7781
1.76689
1.75586
1.74324
1.72442
1.69651
1.66966
1.65108
1.63979
1.63082
1.62178
1.61137
1.5986
1.58495
1.5694
1.55247
1.53439
1.51616
1.50405
1.49578
1.49723
1.52338
1.58723
1.67118
1.72246
1.73731
1.73544
1.72337
1.70361
1.689
1.67928
1.67235
1.66508
1.65763
1.65153
1.64454
1.63084
1.61051
1.59445
1.58984
1.59403
1.61948
1.67023
1.72698
1.76654
1.77481
1.77174
1.76008
1.74376
1.73085
1.72112
1.71234
1.70359
1.68835
1.58108
1.58148
1.58088
1.57772
1.57176
1.55341
1.51664
1.47809
1.44126
1.39759
1.34306
1.31419
1.29409
1.26381
1.22613
1.25629
1.40099
1.5931
1.69863
1.69727
1.67534
1.64324
1.61161
1.58616
1.563
1.54045
1.51949
1.49939
1.47582
1.45655
1.44061
1.42923
1.41409
1.40182
1.39206
1.41046
1.51818
1.67478
1.77729
1.8127
1.80819
1.78737
1.76798
1.75508
1.74268
1.72783
1.71189
1.69413
1.67342
1.65272
1.63615
1.62545
1.61553
1.60452
1.59279
1.58059
1.56651
1.55059
1.53312
1.52086
1.51143
1.52023
1.5643
1.6443
1.71896
1.7627
1.76309
1.76038
1.74851
1.72534
1.70284
1.6875
1.67956
1.67302
1.66552
1.65778
1.65067
1.64344
1.63143
1.61244
1.59496
1.58693
1.58311
1.58344
1.59731
1.64009
1.69505
1.73784
1.75128
1.74942
1.73701
1.7237
1.71465
1.70672
1.70014
1.68817
1.58424
1.58165
1.58044
1.579
1.57748
1.57086
1.55188
1.51846
1.48114
1.44765
1.40829
1.36678
1.3309
1.32081
1.37541
1.54611
1.71404
1.76954
1.75781
1.72546
1.68993
1.658
1.63046
1.60634
1.58144
1.55592
1.53036
1.50311
1.47444
1.45119
1.4331
1.41693
1.40146
1.38597
1.37455
1.36119
1.36481
1.41831
1.54971
1.70177
1.76782
1.76949
1.76078
1.7419
1.72447
1.70703
1.69338
1.68433
1.67377
1.65401
1.63145
1.61809
1.60841
1.59702
1.58557
1.57332
1.55947
1.5466
1.5351
1.536
1.55661
1.62315
1.7035
1.75984
1.7765
1.7755
1.76797
1.75606
1.74071
1.72155
1.70219
1.68844
1.68024
1.6724
1.66433
1.65644
1.64815
1.63821
1.62606
1.61121
1.59624
1.58683
1.57982
1.57508
1.57168
1.57815
1.60671
1.64957
1.69168
1.72229
1.72528
1.71593
1.70685
1.70078
1.69789
1.68742
1.58252
1.57929
1.57865
1.57949
1.58153
1.57983
1.57028
1.54904
1.51997
1.4827
1.4513
1.41008
1.41743
1.51857
1.69816
1.83049
1.84567
1.82437
1.78552
1.74604
1.71075
1.67877
1.64886
1.6204
1.59217
1.56507
1.53933
1.51154
1.48337
1.45648
1.43316
1.41148
1.39245
1.37542
1.36382
1.35099
1.3432
1.33541
1.35229
1.44748
1.59175
1.70142
1.72499
1.71752
1.70685
1.69447
1.68284
1.67101
1.65702
1.64137
1.6218
1.6051
1.5944
1.58304
1.57288
1.56265
1.55625
1.5517
1.56393
1.6079
1.68835
1.75363
1.79331
1.79815
1.79407
1.77837
1.76111
1.74703
1.73291
1.71657
1.70055
1.68798
1.67879
1.66992
1.66155
1.65365
1.64462
1.63277
1.61752
1.60511
1.59584
1.58744
1.57889
1.5716
1.56371
1.55958
1.55946
1.57163
1.59849
1.64
1.67754
1.68748
1.69081
1.69553
1.69718
1.68858
1.56255
1.56074
1.56481
1.57099
1.57704
1.57905
1.57475
1.56389
1.54234
1.51703
1.48881
1.52236
1.68012
1.85915
1.92016
1.90905
1.87513
1.83551
1.79611
1.75895
1.72479
1.69287
1.66249
1.63288
1.60337
1.57482
1.54766
1.51942
1.49189
1.46531
1.44071
1.41669
1.39367
1.37347
1.35782
1.3462
1.33292
1.32179
1.3109
1.31222
1.3558
1.48382
1.60475
1.66176
1.6865
1.68587
1.67383
1.658
1.64292
1.62852
1.61066
1.58979
1.57651
1.56776
1.56077
1.55693
1.56336
1.60053
1.67654
1.75511
1.80318
1.8007
1.79722
1.79036
1.78155
1.77067
1.75644
1.74169
1.72742
1.71127
1.69578
1.68395
1.67424
1.66547
1.65801
1.65089
1.64148
1.62762
1.60961
1.59585
1.59018
1.58541
1.57883
1.57055
1.56141
1.55181
1.54566
1.53991
1.54343
1.55729
1.5929
1.63351
1.6589
1.67447
1.69045
1.68777
1.52784
1.55634
1.57032
1.57392
1.57654
1.5765
1.57543
1.57231
1.5578
1.56186
1.65486
1.83023
1.9792
2.0082
1.98812
1.94068
1.89087
1.84599
1.80539
1.76793
1.73316
1.70068
1.67027
1.64057
1.61102
1.58261
1.5559
1.52907
1.50198
1.47389
1.44484
1.41845
1.39714
1.37996
1.36351
1.34719
1.32967
1.31679
1.30287
1.28978
1.27891
1.29519
1.37639
1.50309
1.60143
1.64642
1.65249
1.64537
1.63379
1.61993
1.60022
1.57777
1.5655
1.55999
1.56045
1.57594
1.63998
1.7373
1.80999
1.84287
1.83904
1.82063
1.79438
1.77641
1.76719
1.76038
1.7512
1.73912
1.72493
1.70789
1.6901
1.67693
1.66717
1.65964
1.65363
1.6473
1.63743
1.62147
1.60445
1.59332
1.58526
1.57921
1.57382
1.56721
1.55913
1.5498
1.53913
1.5291
1.52292
1.51943
1.52658
1.55609
1.60028
1.6355
1.66152
1.67139
1.40538
1.50382
1.54128
1.56269
1.56694
1.57098
1.57636
1.58151
1.61989
1.78631
1.9858
2.04255
2.04131
2.02353
1.99268
1.95459
1.90913
1.86051
1.81436
1.77369
1.738
1.70511
1.67425
1.64501
1.61609
1.58655
1.55616
1.52719
1.50245
1.48083
1.45667
1.42813
1.39846
1.37759
1.36396
1.34783
1.33095
1.31821
1.30454
1.28571
1.26637
1.25018
1.2539
1.30045
1.41233
1.53376
1.59723
1.61659
1.61501
1.60834
1.59176
1.57555
1.56146
1.56632
1.60454
1.68653
1.78255
1.8373
1.84101
1.83905
1.8272
1.80508
1.78513
1.76931
1.7576
1.74989
1.74252
1.7333
1.72135
1.70543
1.68679
1.67396
1.66624
1.65909
1.65241
1.64472
1.63333
1.61748
1.60277
1.59284
1.58419
1.5757
1.56921
1.56485
1.5603
1.55121
1.53815
1.52522
1.5152
1.51015
1.50177
1.50431
1.52639
1.56506
1.60848
1.64387
1.14274
1.33248
1.4704
1.5495
1.55747
1.56968
1.59475
1.69036
1.8736
2.05986
2.12377
2.11423
2.06945
2.02077
1.98853
1.9572
1.9194
1.87519
1.82841
1.78417
1.74515
1.7101
1.67629
1.64378
1.61373
1.58756
1.56287
1.53643
1.50763
1.47912
1.45478
1.43377
1.41163
1.38759
1.3633
1.34996
1.34277
1.33022
1.31059
1.28618
1.26478
1.24683
1.23356
1.22886
1.24652
1.32954
1.45628
1.54438
1.5868
1.58554
1.57715
1.58262
1.60807
1.6683
1.7533
1.82075
1.86396
1.86784
1.85455
1.83134
1.81078
1.79135
1.77668
1.76515
1.75393
1.7438
1.73532
1.72732
1.71833
1.70601
1.68882
1.67031
1.65601
1.64725
1.63996
1.63285
1.62499
1.61526
1.60533
1.59428
1.58504
1.57882
1.57267
1.56399
1.55259
1.5423
1.53276
1.52391
1.51576
1.50738
1.49787
1.48753
1.48565
1.49763
1.52681
1.58796
1.01064
1.08734
1.2547
1.45107
1.50809
1.66602
1.80962
1.96218
2.07493
2.1171
2.11612
2.10431
2.07556
2.03321
1.9934
1.95613
1.91935
1.88172
1.83999
1.79607
1.75557
1.71866
1.68208
1.64675
1.61621
1.58756
1.56052
1.53665
1.513
1.48678
1.45902
1.43579
1.41422
1.39185
1.3724
1.35634
1.33882
1.3192
1.29859
1.27828
1.26126
1.24648
1.23039
1.2212
1.21517
1.22043
1.27061
1.37568
1.49581
1.54392
1.59125
1.68462
1.76005
1.82735
1.85609
1.86066
1.8639
1.85856
1.84658
1.8269
1.80769
1.78848
1.77241
1.76578
1.75742
1.74846
1.73913
1.72966
1.71949
1.70711
1.6907
1.67121
1.65359
1.64195
1.63352
1.62586
1.6199
1.6152
1.60947
1.60078
1.58941
1.57729
1.56478
1.5521
1.54284
1.5362
1.53079
1.52595
1.52101
1.51433
1.50427
1.486
1.47194
1.4714
1.47708
1.52008
1.00018
1.00391
1.05254
1.24354
1.52589
1.84744
2.00606
2.09229
2.17075
2.15369
2.11343
2.09455
2.07726
2.04917
2.00888
1.96371
1.91959
1.88031
1.8421
1.80126
1.75956
1.71707
1.68568
1.66326
1.63689
1.60706
1.57713
1.54855
1.52026
1.49293
1.46163
1.43189
1.42138
1.4119
1.39487
1.37032
1.3428
1.31895
1.29989
1.28356
1.26392
1.24927
1.24235
1.23261
1.21977
1.20367
1.20309
1.22796
1.33083
1.51427
1.66566
1.79505
1.86911
1.91268
1.90989
1.89398
1.86667
1.84629
1.8363
1.8236
1.80579
1.78909
1.77194
1.75634
1.74607
1.74016
1.73365
1.72551
1.71537
1.70418
1.69121
1.67346
1.65228
1.63876
1.63173
1.62511
1.61895
1.61385
1.60854
1.60244
1.59399
1.57862
1.56036
1.54656
1.53971
1.53614
1.53322
1.52975
1.5249
1.5168
1.50193
1.48148
1.46688
1.46037
1.46037
1.47428
1.0001
1.00548
1.06084
1.26569
1.59897
1.77573
1.99104
2.1119
2.17499
2.16298
2.12802
2.1049
2.08595
2.04874
1.99957
1.95047
1.90572
1.86712
1.83777
1.80998
1.77263
1.73076
1.69134
1.6543
1.62318
1.59385
1.56375
1.5431
1.52895
1.50717
1.47629
1.4441
1.41752
1.39773
1.37915
1.35534
1.33372
1.32545
1.31543
1.30046
1.27945
1.25622
1.2354
1.21957
1.20683
1.19744
1.19856
1.22724
1.3343
1.50887
1.68895
1.78991
1.86093
1.9162
1.91256
1.89151
1.86897
1.84714
1.83719
1.82562
1.80966
1.78899
1.76675
1.75156
1.74256
1.73728
1.73227
1.72615
1.7187
1.70913
1.69659
1.67662
1.65329
1.6385
1.63145
1.62722
1.62353
1.61944
1.61491
1.60877
1.59578
1.57282
1.55344
1.54812
1.54517
1.54271
1.54022
1.5367
1.53121
1.52104
1.5042
1.48193
1.4662
1.45981
1.45976
1.47889
1.00755
1.08877
1.28904
1.4656
1.55
1.60276
1.78616
1.97118
2.08895
2.12276
2.12099
2.11339
2.08728
2.04078
1.99146
1.94596
1.90599
1.86867
1.83075
1.79147
1.75445
1.72149
1.68848
1.65421
1.62188
1.59434
1.56927
1.54168
1.51161
1.48487
1.46026
1.43534
1.40974
1.38975
1.37301
1.35441
1.33505
1.31581
1.29778
1.28262
1.26843
1.2531
1.23501
1.22169
1.2101
1.2131
1.257
1.37017
1.48749
1.53986
1.61046
1.67791
1.74904
1.829
1.85368
1.85951
1.86093
1.85801
1.85027
1.83645
1.8141
1.78896
1.76948
1.75854
1.75013
1.7427
1.73505
1.72596
1.71493
1.70186
1.68723
1.67305
1.65976
1.64824
1.63835
1.6289
1.62053
1.61496
1.60977
1.60301
1.59171
1.57285
1.55259
1.54267
1.53932
1.53674
1.53381
1.53011
1.52538
1.51967
1.50924
1.48845
1.46924
1.46705
1.4722
1.51751
1.11408
1.35116
1.48597
1.53614
1.55587
1.56426
1.59368
1.69436
1.87937
2.04886
2.12966
2.12285
2.07687
2.02488
1.98248
1.9433
1.90361
1.86271
1.82251
1.7859
1.75286
1.71994
1.68575
1.65132
1.6174
1.58608
1.55853
1.53186
1.50301
1.47544
1.45459
1.43682
1.41704
1.39611
1.3736
1.3491
1.32696
1.30991
1.29408
1.27635
1.26761
1.25976
1.24742
1.23942
1.25535
1.33075
1.44659
1.54391
1.58527
1.58476
1.57815
1.5805
1.60562
1.67169
1.76535
1.82386
1.85843
1.86742
1.85667
1.83495
1.81272
1.79221
1.77593
1.76198
1.75106
1.74454
1.73888
1.73259
1.723
1.70629
1.68408
1.66709
1.65732
1.6502
1.64186
1.63324
1.6268
1.62013
1.61161
1.60101
1.58799
1.57232
1.55671
1.54589
1.5403
1.53657
1.53282
1.52893
1.52426
1.5174
1.50538
1.4893
1.48176
1.49113
1.51668
1.57842
1.36383
1.53328
1.5654
1.56299
1.56096
1.56152
1.56518
1.57271
1.61395
1.77042
1.98541
2.05555
2.04572
2.02341
1.98521
1.9427
1.89834
1.856
1.8178
1.78245
1.74861
1.7152
1.68113
1.64578
1.61081
1.57833
1.54871
1.52169
1.4977
1.47656
1.45494
1.43139
1.40799
1.38453
1.36422
1.35037
1.33474
1.31422
1.29284
1.2742
1.26455
1.25738
1.26279
1.30602
1.41969
1.53117
1.59534
1.61577
1.61244
1.6004
1.58339
1.57214
1.56385
1.56943
1.60988
1.69046
1.77077
1.82862
1.83988
1.83583
1.82487
1.80629
1.7856
1.76863
1.75652
1.75128
1.7461
1.73787
1.72533
1.7066
1.68456
1.6677
1.66147
1.65745
1.6514
1.64265
1.63163
1.61989
1.60904
1.5989
1.58878
1.5782
1.56499
1.54994
1.5421
1.53746
1.53341
1.52912
1.52436
1.51989
1.50995
1.50651
1.52104
1.55545
1.59228
1.63052
1.52295
1.5746
1.58101
1.57843
1.57267
1.57167
1.57144
1.56885
1.55732
1.56178
1.65573
1.83851
1.97722
2.00723
1.98826
1.93914
1.89054
1.84917
1.81254
1.77725
1.74224
1.70698
1.67155
1.63692
1.60399
1.57301
1.5444
1.5177
1.4911
1.4658
1.44337
1.42504
1.40949
1.39121
1.36967
1.34679
1.32353
1.30535
1.29067
1.2813
1.27583
1.29419
1.38176
1.50892
1.60673
1.63828
1.64788
1.63937
1.62465
1.61179
1.59826
1.58391
1.57131
1.56342
1.55933
1.57229
1.63064
1.72367
1.80369
1.84063
1.83783
1.82202
1.79723
1.77298
1.76039
1.75563
1.74922
1.73902
1.72539
1.70901
1.69233
1.67873
1.66611
1.65686
1.64994
1.64241
1.63256
1.62134
1.61139
1.60258
1.59377
1.58398
1.57198
1.55706
1.54434
1.53752
1.53382
1.5306
1.52938
1.52859
1.53687
1.5611
1.60337
1.62921
1.64857
1.66174
1.56364
1.56661
1.57219
1.57484
1.57664
1.57734
1.57362
1.56397
1.54427
1.51957
1.49159
1.52677
1.68187
1.85039
1.91541
1.90976
1.87821
1.83904
1.80205
1.76681
1.7315
1.69549
1.66017
1.62704
1.59582
1.56528
1.53523
1.50725
1.48508
1.46798
1.45089
1.42946
1.40535
1.38235
1.36158
1.34299
1.3238
1.30937
1.3002
1.30446
1.35487
1.48602
1.60905
1.66629
1.68502
1.68339
1.67339
1.65805
1.64183
1.62691
1.61382
1.60041
1.58794
1.57402
1.56124
1.55036
1.55432
1.58716
1.66728
1.75797
1.808
1.80957
1.80375
1.78767
1.77364
1.76195
1.75098
1.73998
1.72792
1.7163
1.70478
1.69131
1.67595
1.66342
1.6544
1.64484
1.63438
1.62478
1.61645
1.60831
1.59958
1.59002
1.578
1.56317
1.54849
1.54171
1.53998
1.53999
1.54725
1.57023
1.60798
1.64993
1.67095
1.67645
1.68188
1.67668
1.58186
1.58044
1.57977
1.57954
1.58001
1.57839
1.57011
1.55043
1.52181
1.48413
1.45136
1.40957
1.41671
1.51514
1.69703
1.84059
1.8454
1.82337
1.78619
1.74851
1.71201
1.67686
1.64421
1.61422
1.58596
1.55973
1.53533
1.51104
1.48701
1.46499
1.44551
1.42481
1.40201
1.3796
1.36251
1.34602
1.33264
1.32187
1.34406
1.44119
1.59551
1.70481
1.73513
1.72856
1.70609
1.68914
1.67754
1.66696
1.65561
1.64264
1.62985
1.61668
1.603
1.58685
1.56942
1.55512
1.548
1.54612
1.55974
1.61583
1.69883
1.77042
1.80288
1.79994
1.78548
1.7642
1.74842
1.74046
1.73247
1.72419
1.71548
1.70411
1.68926
1.67149
1.65522
1.64434
1.63582
1.62836
1.62131
1.61364
1.60494
1.59534
1.58368
1.57008
1.5569
1.55235
1.55408
1.56828
1.60306
1.65234
1.69353
1.70404
1.70492
1.70217
1.69768
1.68566
1.58329
1.58151
1.58058
1.57956
1.5778
1.57034
1.55148
1.51875
1.48148
1.44705
1.40676
1.36559
1.33081
1.32064
1.37692
1.55655
1.71628
1.7687
1.75755
1.72597
1.69036
1.65626
1.62602
1.6003
1.57608
1.55252
1.52848
1.50386
1.48031
1.46164
1.44649
1.42959
1.40897
1.38605
1.36864
1.35238
1.3541
1.40721
1.55789
1.69876
1.77825
1.7855
1.77743
1.74919
1.71916
1.69944
1.68581
1.6753
1.66573
1.65478
1.6426
1.62904
1.61378
1.59616
1.57827
1.56278
1.55003
1.54232
1.53815
1.54119
1.56754
1.63578
1.714
1.76773
1.76777
1.76051
1.75307
1.74525
1.73871
1.73085
1.72181
1.71076
1.69659
1.67718
1.65565
1.64207
1.63576
1.62999
1.6237
1.61619
1.60799
1.59896
1.58862
1.57933
1.56955
1.57187
1.59289
1.63642
1.68608
1.72238
1.73128
1.72959
1.72462
1.71574
1.70643
1.69124
1.58086
1.5808
1.58011
1.57723
1.57105
1.55286
1.5168
1.47843
1.44151
1.39766
1.34196
1.31366
1.2948
1.26486
1.22696
1.25908
1.40149
1.58668
1.69856
1.69806
1.67675
1.64208
1.60742
1.58223
1.56126
1.541
1.52083
1.5028
1.48559
1.47052
1.45422
1.43695
1.41559
1.39472
1.37811
1.39866
1.49911
1.6675
1.79079
1.82393
1.82216
1.80485
1.7805
1.75451
1.73132
1.71328
1.69717
1.68361
1.67226
1.66157
1.65086
1.63914
1.6238
1.60292
1.58068
1.56413
1.55212
1.54249
1.53337
1.52903
1.52654
1.53595
1.57461
1.64409
1.7179
1.74275
1.74792
1.74961
1.74409
1.73544
1.72578
1.71568
1.7018
1.68061
1.65851
1.64201
1.63248
1.62647
1.6205
1.6146
1.60925
1.60241
1.597
1.59348
1.6014
1.62752
1.67267
1.71906
1.73871
1.7393
1.73899
1.73612
1.73052
1.72234
1.71253
1.69567
1.58224
1.58194
1.57936
1.57313
1.55217
1.51414
1.47315
1.43079
1.37842
1.31933
1.2964
1.27533
1.24103
1.18966
1.15403
1.14593
1.16571
1.27282
1.48601
1.62601
1.64113
1.62465
1.59575
1.57196
1.55466
1.53952
1.52411
1.50818
1.49254
1.47921
1.46236
1.44655
1.42289
1.42177
1.47551
1.63289
1.77473
1.85912
1.8707
1.86273
1.8372
1.80501
1.77674
1.75516
1.74015
1.72574
1.70875
1.69137
1.67601
1.66421
1.65478
1.64477
1.62995
1.60829
1.5834
1.56606
1.5552
1.54507
1.53391
1.52448
1.5179
1.51342
1.51196
1.52762
1.58342
1.65926
1.70724
1.7234
1.73201
1.72833
1.71936
1.70856
1.69625
1.6805
1.66247
1.64477
1.6303
1.622
1.61667
1.61201
1.60996
1.60796
1.61598
1.64163
1.68223
1.72378
1.75139
1.75858
1.75198
1.74322
1.73872
1.73516
1.73022
1.72419
1.71761
1.70017
1.57727
1.57392
1.56688
1.54598
1.50876
1.46375
1.4133
1.35313
1.30622
1.27322
1.24353
1.2047
1.14623
1.11939
1.11888
1.11323
1.09676
1.10254
1.19073
1.39568
1.54462
1.59651
1.59263
1.57898
1.56149
1.54532
1.53236
1.51782
1.50202
1.4897
1.47621
1.46314
1.48409
1.59154
1.7681
1.87929
1.89869
1.89426
1.87539
1.85554
1.83087
1.80312
1.77673
1.75846
1.74619
1.73282
1.71644
1.69898
1.68224
1.66645
1.65318
1.64219
1.63104
1.61464
1.58867
1.56408
1.55369
1.54716
1.53944
1.53034
1.52042
1.50859
1.49872
1.48857
1.49425
1.53369
1.60327
1.66772
1.70698
1.71798
1.71457
1.70486
1.69113
1.67693
1.6636
1.64871
1.63196
1.61817
1.61292
1.61237
1.61397
1.63313
1.67908
1.73452
1.77117
1.78472
1.78124
1.76398
1.74866
1.7452
1.74499
1.74108
1.73426
1.72632
1.71692
1.69455
1.5646
1.55776
1.5382
1.50209
1.45384
1.39065
1.33255
1.28761
1.24549
1.20898
1.1699
1.12192
1.08462
1.07974
1.07625
1.06732
1.05255
1.043
1.05005
1.12108
1.32112
1.49539
1.5788
1.58767
1.58043
1.56353
1.54948
1.53408
1.51978
1.5054
1.50866
1.56303
1.73118
1.87758
1.95416
1.95018
1.93221
1.90136
1.87258
1.84828
1.82454
1.80309
1.78284
1.76411
1.74734
1.7322
1.71682
1.69929
1.68447
1.67297
1.65949
1.64431
1.62922
1.61397
1.59388
1.5712
1.55574
1.54674
1.5403
1.53539
1.5291
1.51491
1.49441
1.48153
1.47467
1.47683
1.49807
1.55298
1.62098
1.67503
1.68702
1.69088
1.68567
1.67446
1.66129
1.64754
1.63028
1.61809
1.61701
1.62226
1.64817
1.70549
1.76314
1.80669
1.81068
1.8082
1.79241
1.76199
1.74535
1.74076
1.7382
1.73538
1.72984
1.72281
1.71344
1.68925
1.55091
1.53337
1.49419
1.44408
1.37332
1.30582
1.26312
1.21089
1.16816
1.14475
1.10895
1.06719
1.06286
1.06095
1.05397
1.04654
1.04245
1.03824
1.03827
1.0427
1.09866
1.28899
1.49271
1.58467
1.58918
1.58398
1.57222
1.55611
1.53889
1.5529
1.64897
1.83615
1.97954
1.98291
1.97435
1.94937
1.92459
1.89739
1.86966
1.845
1.82294
1.80391
1.78807
1.77331
1.75942
1.74522
1.7283
1.7093
1.68822
1.66828
1.65254
1.63889
1.62487
1.60922
1.59212
1.57669
1.56441
1.55628
1.54907
1.53812
1.52232
1.50324
1.48656
1.476
1.47004
1.46753
1.46351
1.47102
1.50639
1.5727
1.62707
1.65733
1.67279
1.671
1.6636
1.65216
1.63828
1.63463
1.64563
1.67859
1.73151
1.78284
1.81055
1.81536
1.81366
1.80372
1.78249
1.76044
1.74675
1.7389
1.73491
1.73322
1.72865
1.72037
1.70609
1.67985
1.53316
1.49151
1.4314
1.35718
1.27336
1.22176
1.1746
1.12203
1.09427
1.07444
1.04584
1.03746
1.04322
1.04537
1.04395
1.04441
1.04649
1.05006
1.05597
1.06473
1.07402
1.12084
1.28548
1.49257
1.58946
1.58999
1.58681
1.58966
1.62282
1.75257
1.92226
2.01877
2.03595
2.0183
1.97522
1.93859
1.91149
1.88946
1.86668
1.84292
1.82249
1.80798
1.79429
1.77856
1.76059
1.74072
1.72073
1.70162
1.68276
1.66467
1.64976
1.63632
1.62281
1.60934
1.59789
1.58689
1.57186
1.55198
1.5375
1.52783
1.51556
1.50023
1.48901
1.48079
1.47382
1.46633
1.4582
1.44851
1.44464
1.46066
1.51452
1.57633
1.62705
1.64984
1.6512
1.65556
1.6692
1.6918
1.73098
1.7764
1.80912
1.82553
1.82519
1.81466
1.80226
1.78714
1.77205
1.76091
1.75232
1.74438
1.73646
1.72783
1.72019
1.71141
1.69759
1.67641
1.49568
1.41778
1.33106
1.22171
1.16926
1.14668
1.10426
1.07163
1.06037
1.0542
1.04954
1.05121
1.05997
1.06643
1.06749
1.06956
1.07549
1.08039
1.08534
1.09334
1.09376
1.09638
1.1212
1.26965
1.49377
1.56093
1.62784
1.72346
1.86228
1.96226
2.03436
2.04056
2.01775
1.99166
1.96702
1.9406
1.91081
1.88796
1.87069
1.85322
1.83723
1.82245
1.80646
1.78858
1.76863
1.74667
1.7232
1.70163
1.68386
1.66843
1.65493
1.64317
1.63283
1.62394
1.61497
1.60322
1.58571
1.56082
1.53384
1.51882
1.51232
1.5073
1.50234
1.49575
1.48814
1.47881
1.46761
1.45103
1.42977
1.42205
1.43218
1.472
1.53741
1.59915
1.63969
1.69316
1.74529
1.77488
1.80198
1.82079
1.83097
1.82778
1.81779
1.80552
1.79226
1.77895
1.77207
1.76779
1.76059
1.75211
1.74196
1.72976
1.71592
1.70262
1.69222
1.67991
1.39881
1.23911
1.09466
0.993385
1.00031
1.0071
1.0006
1.00592
1.0249
1.04473
1.06265
1.08536
1.10665
1.10902
1.10678
1.10616
1.10867
1.11009
1.11252
1.11657
1.11663
1.11404
1.10648
1.12312
1.2572
1.52281
1.75786
1.97854
2.13694
2.18324
2.13598
2.05949
2.0022
1.975
1.95863
1.93721
1.9084
1.88173
1.86172
1.84543
1.83058
1.8152
1.79854
1.78064
1.76152
1.74045
1.71689
1.69278
1.67183
1.65549
1.64272
1.63249
1.62427
1.6167
1.60808