/*--------------------------------*- C++ -*----------------------------------*\
  =========                 |
  \\      /  F ield         | OpenFOAM: The Open Source CFD Toolbox
   \\    /   O peration     | Website:  https://openfoam.org
    \\  /    A nd           | Version:  7
     \\/     M anipulation  |
\*---------------------------------------------------------------------------*/
FoamFile
{
    version     2.0;
    format      ascii;
    class       volVectorField;
    location    "2.4";
    object      U;
}
// * * * * * * * * * * * * * * * * * * * * * * * * * * * * * * * * * * * * * //

dimensions      [0 1 -1 0 0 0 0];

internalField   nonuniform List<vector> 
4608
(
(3 5.76163e-18 0)
(3 -9.08977e-18 0)
(3 -8.00447e-17 0)
(3 1.82584e-16 0)
(3 2.90053e-16 0)
(3 1.74262e-16 0)
(3 -9.78435e-16 0)
(3 -6.04332e-16 0)
(3 -5.42879e-16 0)
(3 -7.13721e-16 0)
(3 -8.6069e-16 0)
(3 -1.34939e-15 0)
(3 -1.54842e-15 0)
(3 -1.23133e-15 0)
(3 -8.16181e-16 0)
(3 -6.11334e-16 0)
(3 -1.08011e-16 0)
(3 5.679e-16 0)
(3 1.10965e-15 0)
(3 2.93812e-16 0)
(3 7.43272e-17 0)
(3 -1.15585e-16 0)
(3 2.712e-16 0)
(3 2.77063e-16 0)
(3 2.98538e-18 0)
(3 1.37979e-16 0)
(3 1.31785e-16 0)
(3 3.00984e-16 0)
(3 1.85192e-16 0)
(3 -2.94198e-17 0)
(3 -1.72016e-15 0)
(3 -2.02142e-15 0)
(3 -2.03819e-15 0)
(3 -9.29443e-16 0)
(3 -1.01474e-15 0)
(3 -6.68682e-16 0)
(3 -7.35476e-16 0)
(3 -1.1386e-15 0)
(3 -1.33873e-15 0)
(3 -1.09735e-15 0)
(3 -7.18602e-16 0)
(3 4.01525e-16 0)
(3 1.06841e-15 0)
(3 5.52021e-16 0)
(3 1.35582e-16 0)
(3 3.35578e-16 0)
(3 1.48061e-15 0)
(3 1.4157e-15 0)
(3 -1.51409e-17 0)
(3 9.77335e-18 0)
(3 2.55345e-16 0)
(3 1.0198e-16 0)
(3 -2.06596e-16 0)
(3 -7.00093e-16 0)
(3 -8.79733e-16 0)
(3 -9.66804e-16 0)
(3 -1.22773e-15 0)
(3 -9.15768e-16 0)
(3 4.84652e-16 0)
(3 7.7301e-16 0)
(3 4.22371e-16 0)
(3 -9.33126e-16 0)
(3 -1.40361e-15 0)
(3 -6.99028e-16 0)
(3 5.39897e-16 0)
(3 1.09879e-15 0)
(3 1.1382e-15 0)
(3 1.26653e-15 0)
(3 1.60111e-15 0)
(3 1.32716e-15 0)
(3 1.34809e-15 0)
(3 1.29953e-15 0)
(3 -1.15389e-16 0)
(3 -7.96998e-16 0)
(3 -5.42822e-16 0)
(3 -2.63617e-16 0)
(3 1.14503e-17 0)
(3 9.74223e-17 0)
(3 -4.59177e-16 0)
(3 -5.24723e-16 0)
(3 -9.05462e-16 0)
(3 -8.34339e-16 0)
(3 -4.02911e-16 0)
(3 -5.33108e-16 0)
(3 -3.0023e-16 0)
(3 -4.98775e-16 0)
(3 -2.54643e-16 0)
(3 3.75074e-16 0)
(3 1.82239e-15 0)
(3 1.58175e-15 0)
(3 9.41075e-16 0)
(3 5.14432e-16 0)
(3 8.24901e-16 0)
(3 1.02534e-15 0)
(3 1.10204e-15 0)
(3 1.06973e-15 0)
(3 4.91162e-17 0)
(3 1.24223e-16 0)
(3 -8.477e-17 0)
(3 -4.08566e-16 0)
(3 -5.83924e-16 0)
(3 -5.49234e-16 0)
(3 -6.27017e-16 0)
(3 -8.22376e-16 0)
(3 -6.38717e-16 0)
(3 5.2589e-16 0)
(3 4.42176e-16 0)
(3 4.7877e-16 0)
(3 7.83215e-16 0)
(3 8.74748e-16 0)
(3 8.87884e-16 0)
(3 8.3473e-16 0)
(3 6.39236e-16 0)
(3 6.30008e-16 0)
(3 7.66272e-16 0)
(3 -7.4791e-17 0)
(3 -3.18423e-16 0)
(3 -1.07995e-16 0)
(3 1.2597e-16 0)
(3 -2.28407e-16 0)
(3 6.99372e-17 0)
(3 2.9799e-16 0)
(3 6.28422e-16 0)
(3 4.85836e-16 0)
(3 -3.35998e-16 0)
(3 -6.88514e-16 0)
(3 -5.76222e-16 0)
(3 -5.12258e-16 0)
(3 3.09092e-16 0)
(3 9.46563e-16 0)
(3 1.79918e-15 0)
(3 1.93338e-15 0)
(3 1.37482e-15 0)
(3 1.15776e-15 0)
(3 1.08846e-15 0)
(3 6.4447e-16 0)
(3 -3.28708e-16 0)
(3 1.38101e-16 0)
(3 9.04484e-16 0)
(3 9.56623e-16 0)
(3 6.4977e-16 0)
(3 6.23551e-16 0)
(3 8.3739e-16 0)
(3 1.15297e-16 0)
(3 4.74839e-17 0)
(3 1.71963e-17 0)
(3 2.41934e-16 0)
(3 8.36005e-16 0)
(3 9.11448e-16 0)
(3 2.38164e-16 0)
(3 8.70056e-17 0)
(3 1.45651e-16 0)
(3 1.57338e-16 0)
(3 -1.17466e-16 0)
(3 -1.30304e-16 0)
(3 -2.38237e-17 0)
(3 1.19413e-16 0)
(3 9.45529e-16 0)
(3 1.43208e-15 0)
(3 7.54763e-16 0)
(3 4.11191e-16 0)
(3 1.67672e-16 0)
(3 3.45315e-16 0)
(3 1.12354e-15 0)
(3 1.16232e-15 0)
(3 5.9882e-16 0)
(3 2.20547e-16 0)
(3 2.05719e-16 0)
(3 1.25281e-16 0)
(3 3.49011e-17 0)
(3 -2.9588e-16 0)
(3 3.89136e-18 0)
(3 3.19855e-16 0)
(3 5.54403e-16 0)
(3 4.96668e-16 0)
(3 7.8469e-16 0)
(3 9.11319e-16 0)
(3 -4.97116e-16 0)
(3 -2.15483e-15 0)
(3 -2.11317e-15 0)
(3 -2.60091e-17 0)
(3 9.13055e-16 0)
(3 1.35439e-15 0)
(3 1.12363e-17 0)
(3 -6.99561e-16 0)
(3 -8.60939e-16 0)
(3 -1.00716e-15 0)
(3 -3.69993e-16 0)
(3 -1.46625e-16 0)
(3 -3.42696e-16 0)
(3 -3.25597e-16 0)
(3 2.60213e-16 0)
(3 3.30873e-18 0)
(3 -6.37563e-18 0)
(3 2.87934e-17 0)
(3 3.97142e-17 0)
(3 2.04116e-19 0)
(3 -1.69552e-16 0)
(3 -4.3511e-16 0)
(3 -6.58523e-17 0)
(3 2.51601e-16 0)
(3 -8.20284e-16 0)
(3 -1.3705e-15 0)
(3 -9.1009e-16 0)
(3 -7.50301e-16 0)
(3 -7.21812e-17 0)
(3 1.03728e-16 0)
(3 -7.52255e-16 0)
(3 -6.0153e-16 0)
(3 -4.45374e-16 0)
(3 -3.85487e-16 0)
(3 -2.05949e-16 0)
(3 3.38869e-17 0)
(3 2.64655e-16 0)
(3 2.05476e-16 0)
(3 3.3544e-16 0)
(3 9.12201e-18 0)
(3 3.9964e-16 0)
(3 5.36974e-16 0)
(3 5.62827e-16 0)
(3 3.61644e-16 0)
(3 6.66605e-17 0)
(3 3.18816e-18 0)
(3 -3.93322e-16 0)
(3 -5.98221e-16 0)
(3 -1.74436e-16 0)
(3 1.29768e-16 0)
(3 3.46958e-16 0)
(3 4.71851e-16 0)
(3 6.23424e-16 0)
(3 2.79381e-16 0)
(3 8.02332e-16 0)
(3 8.13681e-16 0)
(3 -2.05339e-16 0)
(3 -5.08298e-16 0)
(3 -4.69159e-16 0)
(3 -6.67983e-16 0)
(3 -6.48451e-16 0)
(3 -3.89553e-16 0)
(3 -1.70933e-16 0)
(3 -5.10668e-17 0)
(3 -2.09248e-16 0)
(3 -5.7279e-17 0)
(3 4.34831e-16 0)
(3 7.93482e-16 0)
(3 1.80277e-15 0)
(3 2.18686e-15 0)
(3 1.62973e-15 0)
(3 1.27923e-15 0)
(3 1.29941e-15 0)
(3 1.78395e-15 0)
(3 1.82807e-15 0)
(3 2.51459e-15 0)
(3 2.36058e-15 0)
(3 2.45076e-15 0)
(3 2.72137e-15 0)
(3 1.86134e-15 0)
(3 -5.40563e-17 0)
(3 -4.9969e-16 0)
(3 -1.30101e-15 0)
(3 -7.19766e-16 0)
(3 1.96388e-16 0)
(3 7.88813e-16 0)
(3 1.09289e-15 0)
(3 -1.73601e-16 0)
(3 -7.63635e-16 0)
(3 -8.49325e-16 0)
(3 -8.54837e-16 0)
(3 -1.25648e-16 0)
(3 2.40588e-16 0)
(3 1.13013e-15 0)
(3 1.22465e-15 0)
(3 1.1324e-15 0)
(3 1.19014e-15 0)
(3 1.58589e-15 0)
(3 8.83137e-16 0)
(3 9.70337e-16 0)
(3 1.57286e-15 0)
(3 2.22123e-15 0)
(3 2.40139e-15 0)
(3 2.42382e-15 0)
(3 2.02534e-15 0)
(3 1.99129e-15 0)
(3 1.80164e-15 0)
(3 8.95909e-16 0)
(3 7.29229e-16 0)
(3 2.34876e-16 0)
(3 4.02184e-17 0)
(3 1.74939e-17 0)
(3 -3.29992e-17 0)
(3 -1.6259e-16 0)
(3 -5.56411e-16 0)
(3 -8.21178e-16 0)
(3 -6.84757e-16 0)
(3 -4.79612e-16 0)
(3 -2.71902e-16 0)
(3 -3.31154e-16 0)
(3 -2.17399e-16 0)
(3 -1.82531e-16 0)
(3 -5.90618e-16 0)
(3 -1.60311e-15 0)
(3 -8.47879e-16 0)
(3 7.0813e-18 0)
(3 3.28274e-16 0)
(3 8.11248e-16 0)
(3 1.3891e-15 0)
(3 1.37714e-15 0)
(3 1.09495e-15 0)
(3 1.64382e-16 0)
(3 -7.16334e-16 0)
(3 -1.08441e-15 0)
(3 -1.40571e-15 0)
(3 2.61292e-16 0)
(3 3.18278e-16 0)
(3 2.07084e-16 0)
(3 -1.93898e-16 0)
(3 -9.54356e-16 0)
(3 -1.56862e-15 0)
(3 -2.06981e-15 0)
(3 -2.04872e-15 0)
(3 -1.04535e-15 0)
(3 -1.02321e-15 0)
(3 -1.80691e-15 0)
(3 -1.42076e-15 0)
(3 -1.57663e-15 0)
(3 -1.64978e-15 0)
(3 -4.5295e-16 0)
(3 2.76093e-16 0)
(3 2.03738e-16 0)
(3 3.45174e-16 0)
(3 8.95851e-17 0)
(3 -3.573e-16 0)
(3 7.98812e-17 0)
(3 1.34145e-16 0)
(3 4.75237e-16 0)
(3 4.15348e-16 0)
(3 -1.80938e-16 0)
(3 -1.32179e-16 0)
(3 -2.95953e-16 0)
(3 -7.52102e-16 0)
(3 -8.0387e-16 0)
(3 -1.28459e-15 0)
(3 -1.40836e-15 0)
(3 -1.15754e-15 0)
(3 -5.20211e-17 0)
(3 5.68053e-16 0)
(3 3.13337e-16 0)
(3 3.69041e-17 0)
(3 1.40885e-16 0)
(3 4.72048e-16 0)
(3 6.61667e-16 0)
(3 9.27627e-16 0)
(3 9.17557e-16 0)
(3 9.54821e-16 0)
(3 7.41701e-16 0)
(3 3.86624e-16 0)
(3 3.50883e-16 0)
(3 5.4818e-16 0)
(3 6.09832e-16 0)
(3 8.74248e-17 0)
(3 -4.90043e-17 0)
(3 1.88338e-16 0)
(3 1.59701e-16 0)
(3 1.2667e-16 0)
(3 2.06816e-16 0)
(3 2.01759e-16 0)
(3 6.89307e-17 0)
(3 1.20427e-16 0)
(3 -1.42282e-16 0)
(3 3.36535e-16 0)
(3 1.69299e-15 0)
(3 1.72189e-15 0)
(3 1.222e-15 0)
(3 8.07123e-16 0)
(3 1.11692e-16 0)
(3 -2.8863e-16 0)
(3 -5.89831e-16 0)
(3 -9.99695e-16 0)
(3 -4.11293e-16 0)
(3 3.07273e-16 0)
(3 9.79057e-16 0)
(3 1.42796e-15 0)
(3 9.83374e-16 0)
(3 2.04589e-16 0)
(3 1.95503e-16 0)
(3 2.45724e-16 0)
(3 3.16331e-16 0)
(3 5.47778e-16 0)
(3 9.95608e-16 0)
(3 9.22515e-16 0)
(3 3.78572e-16 0)
(3 -2.05296e-16 0)
(3 -7.44291e-16 0)
(3 -4.03081e-16 0)
(3 -1.79019e-16 0)
(3 3.50368e-16 0)
(3 5.96865e-17 0)
(3 -7.04517e-16 0)
(3 -1.11632e-15 0)
(3 -1.40462e-15 0)
(3 -1.49631e-15 0)
(3 -1.30191e-15 0)
(3 -1.29801e-15 0)
(3 -4.66401e-16 0)
(3 1.19735e-15 0)
(3 1.2497e-15 0)
(3 1.04381e-15 0)
(3 1.08217e-15 0)
(3 -8.82263e-17 0)
(3 -2.98365e-16 0)
(3 -2.13095e-16 0)
(3 8.304e-17 0)
(3 2.16743e-16 0)
(3 3.29891e-16 0)
(3 6.65007e-16 0)
(3 3.76489e-16 0)
(3 4.44765e-16 0)
(3 2.33634e-16 0)
(3 -2.48879e-16 0)
(3 -8.67097e-16 0)
(3 -1.11766e-15 0)
(3 -1.74317e-15 0)
(3 -1.85385e-15 0)
(3 -1.63216e-15 0)
(3 -9.65168e-16 0)
(3 -6.03256e-16 0)
(3 -8.36891e-16 0)
(3 -6.55905e-16 0)
(3 -1.9747e-16 0)
(3 1.91491e-16 0)
(3 5.9386e-16 0)
(3 7.18835e-16 0)
(3 -1.58042e-16 0)
(3 2.68893e-16 0)
(3 7.12476e-16 0)
(3 6.29286e-16 0)
(3 2.26781e-16 0)
(3 2.01706e-16 0)
(3 9.00272e-16 0)
(3 1.1561e-15 0)
(3 1.05204e-15 0)
(3 -1.32798e-16 0)
(3 -3.56373e-16 0)
(3 -1.48391e-15 0)
(3 -1.76757e-15 0)
(3 -1.13616e-15 0)
(3 -1.18085e-15 0)
(3 -7.81623e-16 0)
(3 -8.5218e-16 0)
(3 -5.56386e-16 0)
(3 -2.87124e-16 0)
(3 3.83264e-17 0)
(3 -2.06129e-16 0)
(3 -3.99359e-16 0)
(3 9.62294e-17 0)
(3 1.43229e-17 0)
(3 5.88126e-17 0)
(3 3.13175e-16 0)
(3 5.34946e-16 0)
(3 6.46429e-16 0)
(3 3.47065e-16 0)
(3 6.03057e-17 0)
(3 1.79671e-16 0)
(3 4.78982e-16 0)
(3 8.34202e-16 0)
(3 5.58758e-16 0)
(3 3.4609e-16 0)
(3 7.50606e-16 0)
(3 5.35495e-16 0)
(3 -4.92629e-16 0)
(3 -1.05702e-15 0)
(3 -1.15227e-15 0)
(3 -2.64135e-16 0)
(3 4.65638e-16 0)
(3 7.16681e-16 0)
(3 5.24642e-18 0)
(3 -2.06909e-16 0)
(3 -1.97949e-16 0)
(3 -6.96904e-16 0)
(3 -7.32597e-16 0)
(3 3.12045e-17 0)
(3 -1.23621e-16 0)
(3 -4.48771e-16 0)
(3 -4.13867e-16 0)
(3 -5.69836e-16 0)
(3 -6.38282e-16 0)
(3 -8.44833e-16 0)
(3 -7.15206e-16 0)
(3 -6.52227e-16 0)
(3 -3.04328e-16 0)
(3 4.06285e-16 0)
(3 1.67294e-15 0)
(3 1.73991e-15 0)
(3 9.69682e-16 0)
(3 -3.03944e-16 0)
(3 -5.00365e-16 0)
(3 -6.68938e-16 0)
(3 -8.55021e-16 0)
(3 -3.71385e-16 0)
(3 -3.16808e-16 0)
(3 -2.54508e-16 0)
(3 -4.15061e-16 0)
(3 -2.15392e-16 0)
(3 -5.191e-18 0)
(3 -9.23318e-17 0)
(3 -1.91164e-16 0)
(3 -3.48056e-16 0)
(3 -7.33787e-16 0)
(3 -8.75575e-16 0)
(3 -4.85812e-16 0)
(3 3.30339e-18 0)
(3 -5.42408e-17 0)
(3 -4.03944e-16 0)
(3 -2.2955e-17 0)
(3 -4.84127e-16 0)
(3 -5.90819e-17 0)
(3 -8.43772e-17 0)
(3 -7.62998e-16 0)
(3 -1.25445e-15 0)
(3 -1.7311e-15 0)
(3 -1.81223e-15 0)
(3 -1.97511e-15 0)
(3 -1.25422e-15 0)
(3 2.12029e-16 0)
(3 2.00984e-16 0)
(3 -4.39526e-16 0)
(3 -8.00282e-17 0)
(3 -1.06655e-16 0)
(3 1.39902e-16 0)
(3 -2.46089e-16 0)
(3 -1.86798e-16 0)
(3 -2.55044e-16 0)
(3 8.60731e-17 0)
(3 8.47113e-16 0)
(3 1.36927e-15 0)
(3 7.58436e-16 0)
(3 -2.13809e-16 0)
(3 -9.30859e-16 0)
(3 -1.28091e-15 0)
(3 -1.9546e-15 0)
(3 -1.87777e-15 0)
(3 -1.79352e-15 0)
(3 -2.26367e-15 0)
(3 -2.81443e-15 0)
(3 -2.34196e-15 0)
(3 -1.93021e-15 0)
(3 -8.19063e-16 0)
(3 -3.41407e-16 0)
(3 -6.4994e-17 0)
(3 -6.29557e-16 0)
(3 -6.92085e-16 0)
(3 -6.54657e-16 0)
(3 -5.33218e-17 0)
(3 -4.95074e-16 0)
(3 -7.33879e-16 0)
(3 1.15797e-16 0)
(3 4.44331e-16 0)
(3 3.86514e-16 0)
(3 -8.10373e-17 0)
(3 -1.08106e-16 0)
(3 -4.09414e-16 0)
(3 -9.71246e-16 0)
(3 -9.71112e-16 0)
(3 -9.01198e-16 0)
(3 -1.06401e-15 0)
(3 -1.6473e-15 0)
(3 -2.39005e-15 0)
(3 -1.46077e-15 0)
(3 -1.03455e-15 0)
(3 -1.08919e-15 0)
(3 -8.38879e-16 0)
(3 -9.28301e-16 0)
(3 -1.47511e-15 0)
(3 -1.00802e-15 0)
(3 -3.52426e-17 0)
(3 7.23087e-16 0)
(3 -2.62232e-17 0)
(3 1.77462e-16 0)
(3 7.60755e-17 0)
(3 3.56019e-16 0)
(3 2.81408e-16 0)
(3 -1.50421e-16 0)
(3 -5.0051e-16 0)
(3 -1.07666e-15 0)
(3 -8.03735e-16 0)
(3 4.04887e-17 0)
(3 8.34023e-16 0)
(3 7.48561e-16 0)
(3 1.33705e-17 0)
(3 -5.84238e-16 0)
(3 -5.65923e-16 0)
(3 1.9207e-18 0)
(3 -1.26154e-16 0)
(3 -5.92658e-17 0)
(3 -3.758e-16 0)
(3 -5.11054e-16 0)
(3 -3.46365e-16 0)
(3 -2.21657e-16 0)
(3 -1.86343e-16 0)
(3 -3.28593e-17 0)
(3 1.1486e-16 0)
(3 5.89621e-16 0)
(3 4.88215e-16 0)
(3 3.07371e-16 0)
(3 9.6548e-16 0)
(3 9.04626e-16 0)
(3 2.83349e-16 0)
(3 -6.13254e-16 0)
(3 -1.20762e-15 0)
(3 -9.72034e-16 0)
(3 -1.02365e-15 0)
(3 -1.28902e-15 0)
(3 -7.55203e-16 0)
(3 1.00801e-15 0)
(3 1.64495e-15 0)
(3 9.87379e-16 0)
(3 4.91242e-16 0)
(3 3.53793e-16 0)
(3 -4.82614e-17 0)
(3 -3.45564e-16 0)
(3 1.0911e-16 0)
(3 4.10393e-16 0)
(3 -4.67863e-16 0)
(3 -1.01497e-15 0)
(3 -8.76321e-17 0)
(3 1.64482e-16 0)
(3 3.85805e-16 0)
(3 4.24081e-16 0)
(3 8.55856e-16 0)
(3 1.13825e-15 0)
(3 1.00142e-15 0)
(3 8.81343e-16 0)
(3 3.83289e-16 0)
(3 -9.60703e-16 0)
(3 -1.02428e-15 0)
(3 -6.22438e-16 0)
(3 5.75497e-16 0)
(3 1.32296e-15 0)
(3 1.108e-15 0)
(3 3.22699e-16 0)
(3 3.08509e-16 0)
(3 4.66735e-16 0)
(3 5.93077e-16 0)
(3 2.971e-16 0)
(3 -4.34792e-16 0)
(3 -3.75318e-16 0)
(3 -7.81081e-16 0)
(3 -2.51914e-15 0)
(3 -1.2692e-17 0)
(3 3.07854e-18 0)
(3 -2.05022e-17 0)
(3 -1.15394e-16 0)
(3 1.04872e-16 0)
(3 3.26717e-16 0)
(3 4.17115e-17 0)
(3 5.55059e-17 0)
(3 -1.26449e-16 0)
(3 -7.92689e-16 0)
(3 -5.3894e-16 0)
(3 3.28412e-16 0)
(3 1.38924e-15 0)
(3 1.36897e-15 0)
(3 1.46223e-15 0)
(3 1.55566e-15 0)
(3 1.24357e-15 0)
(3 1.20802e-15 0)
(3 1.29892e-15 0)
(3 1.04232e-15 0)
(3 4.65168e-16 0)
(3 -7.88293e-17 0)
(3 -3.45617e-16 0)
(3 -2.30081e-15 0)
(3 1.9836e-16 0)
(3 -5.96513e-17 0)
(3 -3.32485e-16 0)
(3 -5.9606e-16 0)
(3 -9.44422e-16 0)
(3 -1.71969e-15 0)
(3 -1.03833e-15 0)
(3 -6.41302e-16 0)
(3 -3.75016e-16 0)
(3 -1.86369e-16 0)
(3 -2.96497e-16 0)
(3 -2.04015e-17 0)
(3 2.48174e-16 0)
(3 6.19884e-16 0)
(3 1.68999e-15 0)
(3 2.54613e-15 0)
(3 2.32715e-15 0)
(3 1.53924e-15 0)
(3 1.12317e-15 0)
(3 1.36435e-15 0)
(3 9.40393e-16 0)
(3 1.81468e-16 0)
(3 -1.58797e-16 0)
(3 -1.08149e-15 0)
(3 -1.55617e-16 0)
(3 -3.15144e-16 0)
(3 -5.311e-16 0)
(3 -7.95064e-16 0)
(3 -1.37927e-15 0)
(3 -1.75875e-15 0)
(3 -1.2817e-15 0)
(3 -7.98219e-16 0)
(3 -3.59514e-16 0)
(3 2.39822e-16 0)
(3 8.27693e-17 0)
(3 2.23813e-16 0)
(3 2.17379e-16 0)
(3 4.57677e-16 0)
(3 5.74707e-16 0)
(3 4.41245e-16 0)
(3 2.3972e-16 0)
(3 -3.03307e-16 0)
(3 -1.0957e-15 0)
(3 -1.18696e-15 0)
(3 -1.04325e-15 0)
(3 -1.02926e-15 0)
(3 -1.21307e-15 0)
(3 -1.1495e-15 0)
(3 -1.14599e-16 0)
(3 -4.02418e-16 0)
(3 -4.21613e-16 0)
(3 -5.61852e-16 0)
(3 -4.45763e-16 0)
(3 -7.06476e-16 0)
(3 -1.35973e-15 0)
(3 -1.24266e-15 0)
(3 -8.96351e-16 0)
(3 -9.36396e-16 0)
(3 -1.31068e-15 0)
(3 -9.19393e-16 0)
(3 -2.14012e-17 0)
(3 8.27323e-16 0)
(3 9.32783e-16 0)
(3 2.57611e-16 0)
(3 -8.42878e-16 0)
(3 -2.6023e-15 0)
(3 -3.71405e-15 0)
(3 -3.28236e-15 0)
(3 -2.38527e-15 0)
(3 -1.6345e-15 0)
(3 -1.35607e-15 0)
(3 -2.264e-16 0)
(3 -6.85104e-18 0)
(3 1.0945e-18 0)
(3 2.0793e-16 0)
(3 7.54537e-17 0)
(3 4.06728e-17 0)
(3 -6.01505e-16 0)
(3 -6.33293e-16 0)
(3 -3.72699e-16 0)
(3 3.06286e-19 0)
(3 -5.59876e-16 0)
(3 -1.00154e-15 0)
(3 -4.211e-16 0)
(3 6.0921e-17 0)
(3 4.77872e-16 0)
(3 8.53311e-16 0)
(3 5.57034e-16 0)
(3 -1.00703e-16 0)
(3 -1.53432e-15 0)
(3 -1.9275e-15 0)
(3 -1.3828e-15 0)
(3 -7.84261e-16 0)
(3 -5.32278e-16 0)
(3 -1.51266e-16 0)
(3 3.07941e-16 0)
(2.93241 0.0178931 0)
(2.85237 0.0451516 0)
(2.74637 0.178772 0)
(2.6856 0.219677 0)
(2.56732 0.358887 0)
(2.50331 0.44458 0)
(2.42378 0.541937 0)
(2.34871 0.626297 0)
(2.31384 0.725433 0)
(2.26014 0.797941 0)
(2.24797 0.855128 0)
(2.27963 0.884618 0)
(2.32606 0.891688 0)
(2.33988 0.887215 0)
(2.34697 0.878542 0)
(2.34746 0.870154 0)
(2.34686 0.856095 0)
(2.34825 0.848834 0)
(2.34474 0.847617 0)
(2.33919 0.847315 0)
(2.33703 0.847857 0)
(2.3383 0.849254 0)
(2.34177 0.849611 0)
(2.34136 0.849195 0)
(2.99887 0.00112271 0)
(2.99058 0.0107724 0)
(2.95768 0.052579 0)
(2.90542 0.131227 0)
(2.79962 0.277807 0)
(2.68403 0.460956 0)
(2.5347 0.682906 0)
(2.37061 0.908765 0)
(2.23796 1.06017 0)
(2.17409 1.10274 0)
(2.13575 1.04758 0)
(2.18693 1.00199 0)
(2.25995 0.942368 0)
(2.29213 0.899564 0)
(2.32721 0.860963 0)
(2.3485 0.833864 0)
(2.35356 0.831273 0)
(2.36144 0.834543 0)
(2.35791 0.837928 0)
(2.35138 0.842517 0)
(2.34708 0.844408 0)
(2.34417 0.845789 0)
(2.34456 0.847007 0)
(2.34324 0.846156 0)
(3 -1.44526e-07 0)
(3.00002 -3.58704e-05 0)
(2.9999 0.00013069 0)
(2.99992 0.000118638 0)
(2.99859 0.00190069 0)
(2.99149 0.0126597 0)
(2.96623 0.0518805 0)
(2.89384 0.181112 0)
(2.79363 0.391253 0)
(2.5754 0.717626 0)
(2.44329 0.856118 0)
(2.34104 0.929779 0)
(2.29842 0.915332 0)
(2.29711 0.897662 0)
(2.30742 0.887575 0)
(2.33655 0.874336 0)
(2.3529 0.863247 0)
(2.35919 0.85289 0)
(2.36274 0.842327 0)
(2.36074 0.842311 0)
(2.35664 0.844587 0)
(2.35144 0.848352 0)
(2.34841 0.849971 0)
(2.34592 0.850228 0)
(3 -1.34225e-08 0)
(3 -1.27082e-06 0)
(3 -1.01757e-06 0)
(3 -5.18387e-07 0)
(3.00001 -8.08039e-06 0)
(2.99999 2.13247e-05 0)
(3.00007 -0.000151912 0)
(2.99917 0.0014479 0)
(2.99164 0.0156581 0)
(2.88971 0.169926 0)
(2.74037 0.434092 0)
(2.48459 0.74198 0)
(2.31165 0.932293 0)
(2.27466 0.946172 0)
(2.28581 0.936674 0)
(2.301 0.923074 0)
(2.32171 0.899147 0)
(2.34722 0.868679 0)
(2.36138 0.845663 0)
(2.36566 0.841344 0)
(2.36089 0.842185 0)
(2.35765 0.843904 0)
(2.35304 0.848994 0)
(2.3498 0.855794 0)
(3 -1.03426e-10 0)
(3 2.51722e-09 0)
(3 -2.55342e-08 0)
(3 -4.66492e-08 0)
(3 -5.13126e-07 0)
(3 -7.43705e-07 0)
(3 -5.84178e-06 0)
(3 -4.6627e-06 0)
(3.00002 -5.82166e-05 0)
(2.99924 0.000771463 0)
(2.9844 0.0235912 0)
(2.89303 0.144009 0)
(2.58593 0.532187 0)
(2.46655 0.710874 0)
(2.35911 0.848278 0)
(2.29466 0.898946 0)
(2.29885 0.897605 0)
(2.32045 0.879963 0)
(2.3409 0.861176 0)
(2.35326 0.858286 0)
(2.35824 0.844302 0)
(2.35852 0.839676 0)
(2.35728 0.840669 0)
(2.35004 0.850007 0)
(3 1.48873e-12 0)
(3 8.97944e-11 0)
(3 1.29103e-10 0)
(3 -3.2153e-10 0)
(3 3.25257e-10 0)
(3 -4.51404e-08 0)
(3 -9.64641e-08 0)
(3 -3.26871e-07 0)
(3 -6.40731e-06 0)
(3 -6.16011e-06 0)
(3.00002 -5.00284e-05 0)
(2.9988 0.00159752 0)
(2.96554 0.0432723 0)
(2.86072 0.196693 0)
(2.51706 0.611365 0)
(2.34986 0.801452 0)
(2.32057 0.848044 0)
(2.31158 0.873159 0)
(2.31348 0.877123 0)
(2.32788 0.866776 0)
(2.34029 0.85001 0)
(2.34816 0.834123 0)
(2.35112 0.832374 0)
(2.35085 0.837029 0)
(3 2.92146e-13 0)
(3 2.44615e-13 0)
(3 5.30965e-12 0)
(3 6.28996e-12 0)
(3 1.22861e-11 0)
(3 -4.08392e-10 0)
(3 -5.57474e-11 0)
(3 -7.06825e-10 0)
(3 -1.7077e-08 0)
(3 -3.76684e-07 0)
(3 -5.39601e-06 0)
(3.00001 -1.46602e-05 0)
(2.99997 4.54932e-05 0)
(2.99708 0.00428392 0)
(2.92479 0.0935911 0)
(2.77668 0.300056 0)
(2.45706 0.675084 0)
(2.29147 0.883101 0)
(2.2988 0.860933 0)
(2.30956 0.857084 0)
(2.31282 0.857374 0)
(2.32385 0.847411 0)
(2.33558 0.838743 0)
(2.34194 0.839581 0)
(3 4.05686e-15 0)
(3 1.70651e-15 0)
(3 6.13263e-15 0)
(3 6.54195e-13 0)
(3 2.88771e-12 0)
(3 5.78103e-12 0)
(3 7.79365e-12 0)
(3 6.29064e-12 0)
(3 1.73756e-10 0)
(3 -9.48397e-10 0)
(3 -3.37746e-08 0)
(3 -1.2153e-06 0)
(3 -1.19159e-06 0)
(3.00001 -2.02671e-05 0)
(2.99939 0.000959738 0)
(2.98993 0.0168081 0)
(2.8596 0.177895 0)
(2.61915 0.488163 0)
(2.46935 0.689268 0)
(2.31498 0.87199 0)
(2.28189 0.879054 0)
(2.29436 0.864427 0)
(2.31644 0.84642 0)
(2.32499 0.841316 0)
(3 8.14784e-16 0)
(3 1.69976e-15 0)
(3 7.48161e-16 0)
(3 4.30219e-15 0)
(3 8.22678e-14 0)
(3 6.97636e-13 0)
(3 2.15938e-12 0)
(3 2.5022e-12 0)
(3 1.9577e-11 0)
(3 1.86413e-11 0)
(3 3.05969e-10 0)
(3 -4.90061e-09 0)
(3 -8.9867e-08 0)
(3 -3.45004e-06 0)
(3 -2.53343e-06 0)
(3 -2.09312e-05 0)
(2.99645 0.00545445 0)
(2.9587 0.0599364 0)
(2.77315 0.318413 0)
(2.46937 0.694008 0)
(2.39298 0.781883 0)
(2.34019 0.823498 0)
(2.33065 0.83519 0)
(2.32715 0.836553 0)
(3 -1.11929e-16 0)
(3 1.55945e-15 0)
(3 1.34989e-15 0)
(3 2.79006e-16 0)
(3 -4.8589e-16 0)
(3 6.11724e-15 0)
(3 6.40251e-14 0)
(3 1.92883e-13 0)
(3 7.87339e-13 0)
(3 2.81866e-12 0)
(3 4.71408e-11 0)
(3 5.61818e-11 0)
(3 -5.06786e-10 0)
(3 -6.25103e-08 0)
(3 -5.05249e-07 0)
(3 -1.74766e-06 0)
(3.00001 -1.56044e-05 0)
(2.99967 0.000620115 0)
(2.98367 0.0241593 0)
(2.86051 0.191414 0)
(2.645 0.510924 0)
(2.36997 0.83275 0)
(2.33256 0.844541 0)
(2.32755 0.835184 0)
(3 1.18244e-15 0)
(3 -2.56263e-16 0)
(3 -1.42993e-15 0)
(3 -1.67053e-15 0)
(3 -1.77836e-15 0)
(3 -1.31219e-15 0)
(3 7.54958e-16 0)
(3 3.73466e-15 0)
(3 2.00496e-15 0)
(3 2.88177e-14 0)
(3 9.77474e-13 0)
(3 1.12521e-11 0)
(3 7.97497e-12 0)
(3 2.72599e-10 0)
(3 -9.11937e-09 0)
(3 -8.69043e-08 0)
(3 -2.04888e-06 0)
(3 -4.8949e-06 0)
(2.99992 0.00011671 0)
(2.99483 0.00953272 0)
(2.93837 0.0977048 0)
(2.67611 0.453429 0)
(2.51731 0.660154 0)
(2.37031 0.8167 0)
(3 -4.26702e-16 0)
(3 -1.89846e-15 0)
(3 -1.96984e-15 0)
(3 -1.37386e-15 0)
(3 -3.41422e-16 0)
(3 2.10746e-16 0)
(3 2.17036e-16 0)
(3 -5.03159e-16 0)
(3 9.3075e-16 0)
(3 1.94992e-15 0)
(3 2.63051e-15 0)
(3 6.46521e-14 0)
(3 1.5075e-12 0)
(3 2.36399e-11 0)
(3 9.75784e-11 0)
(3 -3.67443e-10 0)
(3 -2.88486e-08 0)
(3 -8.8046e-07 0)
(3 -1.79358e-06 0)
(2.99999 7.84685e-06 0)
(2.9981 0.00346815 0)
(2.96268 0.0575303 0)
(2.77263 0.347307 0)
(2.56435 0.63991 0)
(3 -1.78038e-15 0)
(3 -2.17001e-15 0)
(3 -1.62117e-15 0)
(3 -1.24622e-15 0)
(3 -7.11328e-16 0)
(3 -1.68552e-16 0)
(3 8.61128e-16 0)
(3 -4.51071e-16 0)
(3 4.89661e-16 0)
(3 9.69502e-16 0)
(3 2.03058e-16 0)
(3 1.07746e-15 0)
(3 1.18185e-14 0)
(3 7.67462e-13 0)
(3 9.49115e-12 0)
(3 1.71502e-11 0)
(3 1.37647e-11 0)
(3 -1.48808e-08 0)
(3 -5.29764e-07 0)
(3 -6.13968e-07 0)
(3 1.35603e-06 0)
(2.9994 0.0012056 0)
(2.97638 0.0412915 0)
(2.86786 0.227479 0)
(3 5.28582e-16 0)
(3 4.78794e-16 0)
(3 1.98274e-16 0)
(3 2.60744e-16 0)
(3 4.82617e-16 0)
(3 -3.06524e-16 0)
(3 -6.11997e-16 0)
(3 -2.2599e-16 0)
(3 3.50304e-16 0)
(3 9.55482e-16 0)
(3 7.7544e-16 0)
(3 7.23132e-16 0)
(3 1.08082e-15 0)
(3 4.33084e-16 0)
(3 5.65479e-13 0)
(3 4.88512e-12 0)
(3 1.28591e-11 0)
(3 -1.23361e-11 0)
(3 -2.54575e-08 0)
(3 -1.67358e-07 0)
(3 -1.77181e-07 0)
(3 -2.83566e-06 0)
(2.99958 0.000835864 0)
(2.99273 0.0156312 0)
(3 7.48939e-17 0)
(3 5.5288e-16 0)
(3 9.07666e-16 0)
(3 1.59417e-15 0)
(3 1.90395e-15 0)
(3 -4.76086e-17 0)
(3 -1.50116e-15 0)
(3 -8.0861e-16 0)
(3 -6.07667e-16 0)
(3 -6.39256e-16 0)
(3 1.31752e-16 0)
(3 6.52838e-16 0)
(3 8.96332e-16 0)
(3 7.2022e-16 0)
(3 2.50758e-15 0)
(3 3.69375e-13 0)
(3 1.83453e-12 0)
(3 2.54222e-12 0)
(3 -9.77929e-11 0)
(3 -1.13175e-08 0)
(3 -4.04311e-08 0)
(3 -5.93256e-07 0)
(3 6.01e-06 0)
(2.99999 -5.99177e-06 0)
(3 -2.26917e-17 0)
(3 6.93389e-16 0)
(3 1.6094e-15 0)
(3 2.26554e-15 0)
(3 1.13684e-15 0)
(3 1.04005e-16 0)
(3 -1.93842e-16 0)
(3 -4.74037e-16 0)
(3 -8.77582e-16 0)
(3 -1.79366e-15 0)
(3 -1.8267e-15 0)
(3 -1.35194e-15 0)
(3 -2.20158e-16 0)
(3 9.52457e-17 0)
(3 2.87976e-16 0)
(3 5.20435e-15 0)
(3 5.0196e-14 0)
(3 8.88243e-13 0)
(3 3.60837e-13 0)
(3 -3.30449e-11 0)
(3 -4.6124e-09 0)
(3 -5.82376e-08 0)
(3 -7.78814e-08 0)
(3 -5.55479e-06 0)
(3 7.28836e-16 0)
(3 9.01799e-16 0)
(3 1.2216e-15 0)
(3 7.84043e-16 0)
(3 7.43908e-16 0)
(3 9.28439e-16 0)
(3 9.63582e-16 0)
(3 5.49945e-16 0)
(3 -4.53869e-16 0)
(3 -1.53245e-15 0)
(3 -1.98805e-15 0)
(3 -5.4713e-16 0)
(3 -5.42327e-16 0)
(3 -3.45821e-17 0)
(3 1.21319e-15 0)
(3 -2.69584e-15 0)
(3 -1.03057e-13 0)
(3 -8.46167e-13 0)
(3 -4.16292e-13 0)
(3 4.71813e-10 0)
(3 7.6881e-10 0)
(3 2.47012e-08 0)
(3 1.0553e-06 0)
(3 -1.65104e-06 0)
(3 7.1185e-16 0)
(3 6.61228e-16 0)
(3 8.70547e-16 0)
(3 5.31936e-16 0)
(3 8.88459e-16 0)
(3 1.65037e-15 0)
(3 1.08449e-15 0)
(3 -2.80288e-16 0)
(3 -1.51434e-15 0)
(3 -9.73132e-16 0)
(3 1.27182e-16 0)
(3 7.96374e-16 0)
(3 4.00444e-16 0)
(3 9.44744e-16 0)
(3 -1.56282e-15 0)
(3 -3.68636e-13 0)
(3 -2.61738e-12 0)
(3 -2.54784e-12 0)
(3 1.66569e-10 0)
(3 1.53255e-08 0)
(3 7.04305e-08 0)
(3 1.96205e-07 0)
(3 2.65978e-06 0)
(2.99997 -3.78104e-05 0)
(3 2.71698e-16 0)
(3 5.33583e-16 0)
(3 8.21026e-16 0)
(3 1.8477e-15 0)
(3 1.63788e-15 0)
(3 1.30604e-15 0)
(3 -4.50383e-16 0)
(3 -1.35152e-15 0)
(3 -1.56006e-15 0)
(3 -3.39048e-16 0)
(3 1.09455e-15 0)
(3 1.67154e-15 0)
(3 1.00585e-16 0)
(3 -6.46566e-16 0)
(3 -4.54755e-13 0)
(3 -5.38489e-12 0)
(3 -1.45321e-11 0)
(3 6.45887e-11 0)
(3 2.48163e-08 0)
(3 1.51561e-07 0)
(3 4.11963e-07 0)
(3 1.63939e-06 0)
(2.99974 -0.000498844 0)
(2.98997 -0.0188517 0)
(3 -4.66685e-16 0)
(3 2.33532e-16 0)
(3 1.41212e-16 0)
(3 1.04271e-15 0)
(3 8.82993e-16 0)
(3 5.68212e-16 0)
(3 -2.828e-16 0)
(3 -2.88311e-16 0)
(3 4.77162e-16 0)
(3 -6.10491e-16 0)
(3 -9.00155e-17 0)
(3 3.53407e-16 0)
(3 -6.14065e-15 0)
(3 -6.0575e-13 0)
(3 -8.23845e-12 0)
(3 -1.52785e-11 0)
(3 -5.60819e-11 0)
(3 1.72921e-08 0)
(3 4.46522e-07 0)
(3 5.97099e-07 0)
(3 3.88516e-06 0)
(2.99906 -0.00192301 0)
(2.98302 -0.0343825 0)
(2.85325 -0.230935 0)
(3 3.65403e-16 0)
(3 8.20205e-16 0)
(3 8.26735e-16 0)
(3 5.36545e-16 0)
(3 6.61258e-16 0)
(3 1.17104e-15 0)
(3 1.76425e-15 0)
(3 1.7782e-15 0)
(3 2.63355e-15 0)
(3 5.62516e-16 0)
(3 -2.47638e-15 0)
(3 -7.12088e-14 0)
(3 -1.42069e-12 0)
(3 -1.73418e-11 0)
(3 -7.84195e-11 0)
(3 1.9679e-10 0)
(3 3.14626e-08 0)
(3 8.34228e-07 0)
(3 1.43101e-06 0)
(2.99999 -5.41783e-06 0)
(2.99826 -0.00326297 0)
(2.953 -0.0714466 0)
(2.82235 -0.310171 0)
(2.48506 -0.716954 0)
(3 -3.09252e-16 0)
(3 -7.74726e-16 0)
(3 -1.03819e-15 0)
(3 -1.41919e-15 0)
(3 -3.97493e-16 0)
(3 1.14144e-15 0)
(3 2.9417e-15 0)
(3 4.88021e-16 0)
(3 9.95934e-17 0)
(3 -2.86239e-14 0)
(3 -9.85188e-13 0)
(3 -1.12502e-11 0)
(3 -8.06712e-12 0)
(3 -2.69156e-10 0)
(3 9.69411e-09 0)
(3 8.29131e-08 0)
(3 2.28148e-06 0)
(3 4.17016e-06 0)
(2.99994 -8.86535e-05 0)
(2.99452 -0.00987795 0)
(2.94571 -0.0946582 0)
(2.6667 -0.46945 0)
(2.50895 -0.680415 0)
(2.36347 -0.806953 0)
(3 -5.72366e-16 0)
(3 -6.34646e-16 0)
(3 -3.32919e-16 0)
(3 -2.55329e-15 0)
(3 -3.59677e-15 0)
(3 -1.19152e-14 0)
(3 -7.13092e-14 0)
(3 -1.94189e-13 0)
(3 -8.05313e-13 0)
(3 -2.88595e-12 0)
(3 -4.6058e-11 0)
(3 -5.77145e-11 0)
(3 4.86274e-10 0)
(3 6.38365e-08 0)
(3 5.01474e-07 0)
(3 1.75233e-06 0)
(3.00001 1.6938e-05 0)
(2.99966 -0.000657638 0)
(2.98413 -0.0228065 0)
(2.85325 -0.200767 0)
(2.67846 -0.49293 0)
(2.36373 -0.850285 0)
(2.30925 -0.857421 0)
(2.32036 -0.826905 0)
(3 1.36514e-15 0)
(3 1.13101e-15 0)
(3 7.20778e-16 0)
(3 -4.26515e-15 0)
(3 -8.21497e-14 0)
(3 -6.94691e-13 0)
(3 -2.15806e-12 0)
(3 -2.50539e-12 0)
(3 -1.97869e-11 0)
(3 -1.89581e-11 0)
(3 -2.97862e-10 0)
(3 5.39327e-09 0)
(3 9.03032e-08 0)
(3 3.44685e-06 0)
(3 2.54327e-06 0)
(3 2.34203e-05 0)
(2.99639 -0.00561036 0)
(2.95996 -0.0584413 0)
(2.76777 -0.323932 0)
(2.46786 -0.695525 0)
(2.40639 -0.771258 0)
(2.3415 -0.825869 0)
(2.32327 -0.839812 0)
(2.32164 -0.836416 0)
(3 -1.7714e-15 0)
(3 1.06828e-15 0)
(3 -2.63984e-15 0)
(3 -6.50105e-13 0)
(3 -2.89834e-12 0)
(3 -5.77439e-12 0)
(3 -7.77361e-12 0)
(3 -6.30724e-12 0)
(3 -1.73627e-10 0)
(3 9.56266e-10 0)
(3 3.27092e-08 0)
(3 1.26272e-06 0)
(3 1.19738e-06 0)
(3.00001 2.02065e-05 0)
(2.99939 -0.000961237 0)
(2.98991 -0.0166906 0)
(2.85894 -0.178833 0)
(2.62162 -0.485732 0)
(2.46727 -0.691529 0)
(2.3116 -0.873349 0)
(2.28467 -0.874813 0)
(2.29748 -0.862722 0)
(2.31613 -0.848444 0)
(2.32271 -0.843847 0)
(3 -2.91186e-13 0)
(3 -2.42656e-13 0)
(3 -5.34827e-12 0)
(3 -6.30386e-12 0)
(3 -1.22698e-11 0)
(3 4.06652e-10 0)
(3 5.72592e-11 0)
(3 7.16925e-10 0)
(3 1.65007e-08 0)
(3 3.85495e-07 0)
(3 5.1654e-06 0)
(3.00001 1.4927e-05 0)
(2.99997 -4.51848e-05 0)
(2.99707 -0.00429675 0)
(2.92495 -0.0933036 0)
(2.77432 -0.301357 0)
(2.46109 -0.671125 0)
(2.29023 -0.884906 0)
(2.29686 -0.862815 0)
(2.30916 -0.85693 0)
(2.31328 -0.855495 0)
(2.32483 -0.847466 0)
(2.33602 -0.840279 0)
(2.3408 -0.840261 0)
(3 -1.47952e-12 0)
(3 -9.01856e-11 0)
(3 -1.29816e-10 0)
(3 3.23209e-10 0)
(3 -3.24177e-10 0)
(3 4.5031e-08 0)
(3 9.63029e-08 0)
(3 3.27477e-07 0)
(3 6.40528e-06 0)
(3 6.15868e-06 0)
(3.00002 4.99251e-05 0)
(2.9988 -0.00159431 0)
(2.96552 -0.0433015 0)
(2.86084 -0.196602 0)
(2.51704 -0.611503 0)
(2.34948 -0.801966 0)
(2.3208 -0.847642 0)
(2.31201 -0.872917 0)
(2.31311 -0.877655 0)
(2.32762 -0.867138 0)
(2.34124 -0.848809 0)
(2.34876 -0.833794 0)
(2.35155 -0.833738 0)
(2.35048 -0.837181 0)
(3 1.03063e-10 0)
(3 -2.52467e-09 0)
(3 2.5772e-08 0)
(3 4.6707e-08 0)
(3 5.12435e-07 0)
(3 7.42733e-07 0)
(3 5.84871e-06 0)
(3 4.67602e-06 0)
(3.00002 5.81535e-05 0)
(2.99924 -0.000770606 0)
(2.98438 -0.0236076 0)
(2.89308 -0.143955 0)
(2.58588 -0.532234 0)
(2.46658 -0.710874 0)
(2.35904 -0.848441 0)
(2.29463 -0.898919 0)
(2.29891 -0.897388 0)
(2.32061 -0.879572 0)
(2.34078 -0.861754 0)
(2.35346 -0.858512 0)
(2.35844 -0.844123 0)
(2.35901 -0.839535 0)
(2.35736 -0.840806 0)
(2.34979 -0.849873 0)
(3 1.33356e-08 0)
(3 1.27359e-06 0)
(3 1.02365e-06 0)
(3 5.19119e-07 0)
(3.00001 8.08128e-06 0)
(2.99999 -2.13373e-05 0)
(3.00007 0.000151859 0)
(2.99917 -0.00144789 0)
(2.99164 -0.0156618 0)
(2.88979 -0.169814 0)
(2.74006 -0.434285 0)
(2.48466 -0.741895 0)
(2.31184 -0.932102 0)
(2.27467 -0.94621 0)
(2.28577 -0.936753 0)
(2.30096 -0.923071 0)
(2.32161 -0.899014 0)
(2.34758 -0.868338 0)
(2.36103 -0.846229 0)
(2.36545 -0.841537 0)
(2.36084 -0.841978 0)
(2.35776 -0.843777 0)
(2.35313 -0.849092 0)
(2.34982 -0.855807 0)
(3 1.40301e-07 0)
(3.00002 3.58525e-05 0)
(2.9999 -0.000130647 0)
(2.99992 -0.000118925 0)
(2.99859 -0.00190017 0)
(2.99149 -0.0126663 0)
(2.96625 -0.0518574 0)
(2.8938 -0.181157 0)
(2.79361 -0.39127 0)
(2.5756 -0.717413 0)
(2.44312 -0.856162 0)
(2.34107 -0.929838 0)
(2.2984 -0.915348 0)
(2.29712 -0.897655 0)
(2.30744 -0.887546 0)
(2.33643 -0.874502 0)
(2.35304 -0.863019 0)
(2.35919 -0.852861 0)
(2.36266 -0.842372 0)
(2.36063 -0.842375 0)
(2.35659 -0.84451 0)
(2.35143 -0.84825 0)
(2.34843 -0.850076 0)
(2.34592 -0.850311 0)
(2.99887 -0.00112497 0)
(2.99058 -0.010769 0)
(2.95769 -0.0525697 0)
(2.90541 -0.131229 0)
(2.79964 -0.277781 0)
(2.68393 -0.461038 0)
(2.53487 -0.682807 0)
(2.37047 -0.908834 0)
(2.23791 -1.0602 0)
(2.17415 -1.10268 0)
(2.13576 -1.04759 0)
(2.18693 -1.00206 0)
(2.25992 -0.94244 0)
(2.29212 -0.899547 0)
(2.32723 -0.860885 0)
(2.34855 -0.834 0)
(2.35348 -0.831258 0)
(2.3614 -0.834502 0)
(2.35797 -0.837915 0)
(2.35137 -0.842509 0)
(2.34707 -0.844396 0)
(2.34415 -0.845772 0)
(2.3445 -0.847073 0)
(2.34323 -0.846163 0)
(2.9324 -0.0179714 0)
(2.85239 -0.0450888 0)
(2.74636 -0.17874 0)
(2.68559 -0.219688 0)
(2.56735 -0.358887 0)
(2.50325 -0.444622 0)
(2.42386 -0.541891 0)
(2.3487 -0.626289 0)
(2.31382 -0.725446 0)
(2.26014 -0.797955 0)
(2.24799 -0.855127 0)
(2.27964 -0.884655 0)
(2.32604 -0.891644 0)
(2.33987 -0.887208 0)
(2.347 -0.878554 0)
(2.34749 -0.870172 0)
(2.34682 -0.856087 0)
(2.34821 -0.848811 0)