/*--------------------------------*- C++ -*----------------------------------*\
  =========                 |
  \\      /  F ield         | OpenFOAM: The Open Source CFD Toolbox
   \\    /   O peration     | Website:  https://openfoam.org
    \\  /    A nd           | Version:  7
     \\/     M anipulation  |
\*---------------------------------------------------------------------------*/
FoamFile
{
    version     2.0;
    format      ascii;
    class       volVectorField;
    location    "1.5";
    object      U;
}
// * * * * * * * * * * * * * * * * * * * * * * * * * * * * * * * * * * * * * //

dimensions      [0 1 -1 0 0 0 0];

internalField   nonuniform List<vector> 
73728
(
(3 -6.55185e-18 0)
(3 -4.26302e-17 0)
(3 7.54295e-17 0)
(3 1.48393e-16 0)
(3 -2.22409e-17 0)
(3 -6.3322e-16 0)
(3 -1.05957e-15 0)
(3 -1.0747e-15 0)
(3 -4.36311e-16 0)
(3 1.36266e-16 0)
(3 5.01426e-16 0)
(3 3.72554e-16 0)
(3 -1.45216e-16 0)
(3 4.3072e-16 0)
(3 5.08646e-16 0)
(3 1.7014e-16 0)
(3 -2.77638e-16 0)
(3 -2.35924e-16 0)
(3 -2.26739e-16 0)
(3 1.87531e-16 0)
(3 3.94002e-16 0)
(3 3.26224e-16 0)
(3 4.99226e-16 0)
(3 3.9404e-16 0)
(3 4.50272e-16 0)
(3 1.11118e-15 0)
(3 2.12959e-16 0)
(3 -6.2461e-16 0)
(3 -5.53868e-16 0)
(3 -7.9158e-16 0)
(3 -1.18677e-15 0)
(3 -1.2005e-15 0)
(3 -1.19335e-15 0)
(3 -1.07096e-15 0)
(3 -9.00205e-16 0)
(3 -8.10559e-16 0)
(3 -1.15175e-15 0)
(3 -1.07299e-15 0)
(3 -4.64953e-16 0)
(3 1.70077e-16 0)
(3 7.97932e-16 0)
(3 6.44898e-16 0)
(3 3.74924e-16 0)
(3 6.03655e-16 0)
(3 3.14443e-16 0)
(3 -5.83613e-16 0)
(3 -1.45704e-15 0)
(3 -9.9981e-16 0)
(3 -9.38277e-16 0)
(3 8.64631e-17 0)
(3 6.36833e-16 0)
(3 6.5894e-16 0)
(3 4.56383e-16 0)
(3 -4.3342e-17 0)
(3 -8.28529e-17 0)
(3 1.19573e-16 0)
(3 1.25447e-16 0)
(3 -1.21296e-16 0)
(3 6.37749e-16 0)
(3 1.05333e-15 0)
(3 1.41999e-15 0)
(3 1.14321e-15 0)
(3 1.97696e-15 0)
(3 2.41912e-15 0)
(3 2.32174e-15 0)
(3 1.41925e-15 0)
(3 1.41137e-15 0)
(3 1.96623e-15 0)
(3 1.60826e-15 0)
(3 1.69716e-15 0)
(3 1.78402e-15 0)
(3 7.53225e-16 0)
(3 5.44349e-16 0)
(3 8.78545e-16 0)
(3 1.06016e-15 0)
(3 9.39929e-16 0)
(3 8.90338e-16 0)
(3 3.81825e-16 0)
(3 -8.63025e-16 0)
(3 -1.24031e-15 0)
(3 -7.06814e-16 0)
(3 -2.70394e-16 0)
(3 -2.56844e-16 0)
(3 -4.20267e-16 0)
(3 -1.54632e-15 0)
(3 -1.46453e-15 0)
(3 -1.12149e-15 0)
(3 -1.26042e-15 0)
(3 -8.56424e-16 0)
(3 4.13236e-16 0)
(3 3.26387e-16 0)
(3 1.167e-15 0)
(3 1.38157e-15 0)
(3 1.1307e-16 0)
(3 -3.14658e-16 0)
(3 -6.27966e-16 0)
(3 -1.1189e-16 0)
(3 -3.95903e-16 0)
(3 2.65234e-16 0)
(3 5.10622e-16 0)
(3 7.17888e-16 0)
(3 1.77746e-17 0)
(3 -4.27953e-16 0)
(3 -8.22346e-16 0)
(3 -3.09055e-16 0)
(3 2.34814e-16 0)
(3 -1.67143e-17 0)
(3 -7.80567e-17 0)
(3 -8.4507e-17 0)
(3 4.70013e-16 0)
(3 6.93645e-16 0)
(3 5.72332e-16 0)
(3 -7.38813e-17 0)
(3 -3.81645e-16 0)
(3 -4.56885e-16 0)
(3 -2.76124e-16 0)
(3 2.19307e-17 0)
(3 1.11599e-16 0)
(3 4.21031e-16 0)
(3 5.64488e-16 0)
(3 8.81533e-16 0)
(3 2.4964e-15 0)
(3 3.59324e-16 0)
(3 -1.4602e-15 0)
(3 -1.96548e-15 0)
(3 -1.48808e-15 0)
(3 -1.20361e-15 0)
(3 -1.14018e-15 0)
(3 -9.88861e-16 0)
(3 -9.05121e-16 0)
(3 -6.91105e-16 0)
(3 -2.04504e-16 0)
(3 -3.84993e-16 0)
(3 -1.5968e-15 0)
(3 -1.43959e-15 0)
(3 -9.80894e-16 0)
(3 -7.63979e-16 0)
(3 -9.94794e-16 0)
(3 -9.34398e-16 0)
(3 -4.69447e-16 0)
(3 -8.44014e-16 0)
(3 -1.27275e-15 0)
(3 -1.36405e-15 0)
(3 -1.09073e-15 0)
(3 -8.42464e-16 0)
(3 -4.96225e-16 0)
(3 1.04584e-15 0)
(3 2.16703e-15 0)
(3 1.64687e-15 0)
(3 6.53384e-16 0)
(3 5.29557e-16 0)
(3 2.69361e-16 0)
(3 -6.62052e-16 0)
(3 -1.00093e-15 0)
(3 7.47818e-16 0)
(3 2.27074e-15 0)
(3 2.89449e-15 0)
(3 3.19881e-15 0)
(3 4.49248e-15 0)
(3 4.90133e-15 0)
(3 4.83631e-15 0)
(3 4.00686e-15 0)
(3 4.38616e-15 0)
(3 4.7516e-15 0)
(3 3.70492e-15 0)
(3 3.60427e-15 0)
(3 3.36849e-15 0)
(3 3.12998e-15 0)
(3 2.83392e-15 0)
(3 2.90339e-15 0)
(3 2.00954e-15 0)
(3 1.00851e-15 0)
(3 -1.21264e-15 0)
(3 -1.25302e-15 0)
(3 -1.21094e-15 0)
(3 -1.2494e-15 0)
(3 -1.47768e-15 0)
(3 -1.59711e-15 0)
(3 -1.45278e-15 0)
(3 -1.84889e-15 0)
(3 -1.99491e-15 0)
(3 -1.78274e-15 0)
(3 -1.58809e-15 0)
(3 -1.33581e-15 0)
(3 -7.18825e-16 0)
(3 -1.95139e-16 0)
(3 6.05798e-16 0)
(3 1.1118e-15 0)
(3 1.04468e-15 0)
(3 -7.50646e-17 0)
(3 -1.01527e-15 0)
(3 -9.18258e-16 0)
(3 -7.78595e-17 0)
(3 -1.02814e-16 0)
(3 1.43842e-16 0)
(3 -1.85897e-16 0)
(3 3.62939e-17 0)
(3 4.78104e-16 0)
(3 5.96946e-16 0)
(3 -3.57153e-16 0)
(3 -3.93108e-16 0)
(3 9.01553e-17 0)
(3 -4.66876e-16 0)
(3 1.35734e-17 0)
(3 8.5999e-16 0)
(3 8.57583e-16 0)
(3 5.31449e-16 0)
(3 7.9091e-16 0)
(3 7.86472e-16 0)
(3 2.08926e-16 0)
(3 -1.30643e-16 0)
(3 -1.00999e-15 0)
(3 -8.18514e-16 0)
(3 -2.9653e-16 0)
(3 -4.13838e-16 0)
(3 4.79244e-16 0)
(3 2.56101e-15 0)
(3 2.81044e-15 0)
(3 6.03074e-16 0)
(3 -1.60171e-15 0)
(3 -1.80193e-15 0)
(3 -1.25482e-15 0)
(3 -5.93388e-16 0)
(3 -7.07799e-16 0)
(3 -9.4408e-16 0)
(3 -7.95443e-16 0)
(3 -6.88083e-16 0)
(3 -6.21818e-16 0)
(3 -2.25574e-16 0)
(3 -2.55856e-16 0)
(3 -5.31694e-16 0)
(3 -5.65797e-16 0)
(3 -8.14993e-16 0)
(3 -1.10258e-15 0)
(3 -9.77847e-16 0)
(3 -8.34897e-16 0)
(3 -9.20053e-16 0)
(3 -1.01506e-15 0)
(3 -1.24945e-15 0)
(3 -1.29796e-15 0)
(3 -1.71531e-15 0)
(3 -1.61886e-15 0)
(3 2.87354e-16 0)
(3 2.59465e-15 0)
(3 1.6413e-15 0)
(3 1.28675e-15 0)
(3 8.6621e-16 0)
(3 -8.93715e-16 0)
(3 -2.38472e-15 0)
(3 -1.09296e-15 0)
(3 2.54065e-16 0)
(3 1.52981e-15 0)
(3 2.41436e-15 0)
(3 4.43557e-15 0)
(3 4.26908e-15 0)
(3 3.24995e-15 0)
(3 3.2332e-15 0)
(3 4.20862e-15 0)
(3 4.54101e-15 0)
(3 4.40592e-15 0)
(3 4.09379e-15 0)
(3 3.95947e-15 0)
(3 4.22352e-15 0)
(3 4.80484e-15 0)
(3 4.61818e-15 0)
(3 2.81634e-15 0)
(3 5.68496e-17 0)
(3 -1.37662e-15 0)
(3 -1.80369e-15 0)
(3 -1.13269e-15 0)
(3 -2.47936e-16 0)
(3 -1.31591e-15 0)
(3 -3.37688e-15 0)
(3 -4.28451e-15 0)
(3 -4.02804e-15 0)
(3 -3.91454e-15 0)
(3 -2.9332e-15 0)
(3 -2.41825e-15 0)
(3 -2.12317e-15 0)
(3 -1.56571e-15 0)
(3 -7.06192e-16 0)
(3 -9.52001e-16 0)
(3 -6.99038e-16 0)
(3 2.35955e-16 0)
(3 5.44733e-16 0)
(3 4.07056e-16 0)
(3 1.45139e-16 0)
(3 -6.51085e-16 0)
(3 7.63124e-17 0)
(3 1.18796e-16 0)
(3 -4.26028e-16 0)
(3 -3.71186e-16 0)
(3 -7.43212e-16 0)
(3 -6.58797e-16 0)
(3 -1.10418e-16 0)
(3 1.74634e-16 0)
(3 2.82891e-16 0)
(3 2.8743e-17 0)
(3 7.6475e-16 0)
(3 8.73252e-16 0)
(3 1.45953e-15 0)
(3 1.71617e-15 0)
(3 1.30357e-15 0)
(3 3.75334e-16 0)
(3 4.81108e-16 0)
(3 9.44698e-16 0)
(3 1.00434e-15 0)
(3 7.24394e-16 0)
(3 3.66791e-16 0)
(3 5.17508e-16 0)
(3 8.10453e-16 0)
(3 1.24117e-15 0)
(3 2.32419e-15 0)
(3 1.48825e-15 0)
(3 2.43493e-16 0)
(3 2.23326e-16 0)
(3 2.07485e-16 0)
(3 2.28649e-16 0)
(3 -7.26292e-17 0)
(3 -1.1378e-15 0)
(3 -1.31876e-15 0)
(3 -9.80323e-16 0)
(3 -9.74444e-16 0)
(3 -1.06162e-15 0)
(3 -1.31866e-15 0)
(3 -1.04312e-15 0)
(3 -6.66646e-16 0)
(3 -6.1041e-16 0)
(3 -2.56634e-16 0)
(3 3.52537e-16 0)
(3 1.94248e-16 0)
(3 3.40958e-16 0)
(3 2.4392e-16 0)
(3 -4.34087e-16 0)
(3 -1.28612e-15 0)
(3 -1.2404e-15 0)
(3 -9.84994e-16 0)
(3 -1.01798e-15 0)
(3 -1.15764e-16 0)
(3 1.75406e-15 0)
(3 2.62147e-15 0)
(3 4.03301e-16 0)
(3 -7.17408e-16 0)
(3 -2.35702e-15 0)
(3 -2.61319e-15 0)
(3 -1.62572e-15 0)
(3 -3.61557e-16 0)
(3 1.32229e-16 0)
(3 2.01057e-15 0)
(3 5.23113e-15 0)
(3 4.88232e-15 0)
(3 3.80697e-15 0)
(3 3.58251e-15 0)
(3 5.25083e-15 0)
(3 5.58547e-15 0)
(3 5.2561e-15 0)
(3 4.89178e-15 0)
(3 4.30536e-15 0)
(3 3.05012e-15 0)
(3 2.01886e-15 0)
(3 1.73931e-15 0)
(3 2.6177e-16 0)
(3 -1.27382e-15 0)
(3 -1.18973e-15 0)
(3 -9.21393e-16 0)
(3 -2.64868e-16 0)
(3 5.51468e-16 0)
(3 -8.37152e-16 0)
(3 -3.67281e-15 0)
(3 -4.08913e-15 0)
(3 -3.69451e-15 0)
(3 -3.42085e-15 0)
(3 -3.56005e-15 0)
(3 -2.81644e-15 0)
(3 -1.98581e-15 0)
(3 -1.77871e-15 0)
(3 -1.90808e-15 0)
(3 -1.67293e-15 0)
(3 -1.65136e-15 0)
(3 -2.06886e-15 0)
(3 -1.57158e-15 0)
(3 -9.05881e-16 0)
(3 -7.50871e-16 0)
(3 5.42395e-16 0)
(3 -2.75114e-17 0)
(3 -3.3951e-16 0)
(3 -1.43667e-16 0)
(3 5.11915e-16 0)
(3 6.65715e-16 0)
(3 2.47561e-16 0)
(3 2.6579e-16 0)
(3 1.24407e-15 0)
(3 9.97823e-16 0)
(3 -1.92104e-17 0)
(3 5.33744e-16 0)
(3 6.57681e-16 0)
(3 2.02755e-16 0)
(3 1.90988e-16 0)
(3 -1.59438e-16 0)
(3 -1.09973e-15 0)
(3 -1.0287e-15 0)
(3 -2.37112e-16 0)
(3 6.92538e-16 0)
(3 1.62617e-15 0)
(3 1.21085e-15 0)
(3 1.28172e-15 0)
(3 2.27707e-15 0)
(3 3.11546e-15 0)
(3 1.3609e-15 0)
(3 4.83771e-16 0)
(3 8.20114e-16 0)
(3 9.57797e-16 0)
(3 1.13457e-15 0)
(3 9.86384e-16 0)
(3 7.72997e-16 0)
(3 7.51749e-16 0)
(3 1.02208e-15 0)
(3 3.42394e-16 0)
(3 -4.75296e-16 0)
(3 -8.02075e-16 0)
(3 -9.37168e-16 0)
(3 -1.80045e-15 0)
(3 -1.69306e-15 0)
(3 -8.65501e-16 0)
(3 8.75683e-16 0)
(3 1.49849e-15 0)
(3 1.92247e-15 0)
(3 1.48605e-15 0)
(3 2.36655e-16 0)
(3 -5.07484e-16 0)
(3 -4.01572e-16 0)
(3 -7.55344e-16 0)
(3 -6.3714e-16 0)
(3 -6.8811e-16 0)
(3 4.24692e-16 0)
(3 1.60643e-15 0)
(3 2.27868e-15 0)
(3 4.98582e-16 0)
(3 -1.5029e-15 0)
(3 -1.93031e-15 0)
(3 -1.68866e-15 0)
(3 -1.49585e-15 0)
(3 -4.82042e-16 0)
(3 6.70594e-16 0)
(3 1.89813e-15 0)
(3 4.52672e-15 0)
(3 4.72256e-15 0)
(3 4.55763e-15 0)
(3 5.15762e-15 0)
(3 6.64477e-15 0)
(3 7.0949e-15 0)
(3 5.8721e-15 0)
(3 4.33612e-15 0)
(3 2.63625e-15 0)
(3 6.2543e-16 0)
(3 -1.0856e-17 0)
(3 -2.55027e-16 0)
(3 -2.5851e-16 0)
(3 1.20269e-16 0)
(3 8.50244e-16 0)
(3 1.68417e-15 0)
(3 1.6792e-15 0)
(3 1.35472e-15 0)
(3 -5.20079e-16 0)
(3 -2.56102e-15 0)
(3 -3.17169e-15 0)
(3 -2.75146e-15 0)
(3 -2.24522e-15 0)
(3 -1.72711e-15 0)
(3 -1.81161e-15 0)
(3 -1.90123e-15 0)
(3 -1.72579e-15 0)
(3 -2.03875e-15 0)
(3 -2.79563e-15 0)
(3 -3.08296e-15 0)
(3 -3.49636e-15 0)
(3 -3.04001e-15 0)
(3 -4.75656e-16 0)
(3 4.91785e-16 0)
(3 5.69094e-16 0)
(3 2.87873e-17 0)
(3 -5.86087e-17 0)
(3 2.96662e-16 0)
(3 2.50465e-16 0)
(3 8.07798e-16 0)
(3 1.44674e-15 0)
(3 1.03315e-15 0)
(3 3.69402e-16 0)
(3 -3.85583e-16 0)
(3 -1.18149e-15 0)
(3 -1.41985e-15 0)
(3 -2.70469e-16 0)
(3 3.64447e-16 0)
(3 -8.12091e-17 0)
(3 -6.46832e-16 0)
(3 -3.3306e-16 0)
(3 -2.38928e-16 0)
(3 -2.18552e-16 0)
(3 -2.33089e-17 0)
(3 1.50303e-17 0)
(3 2.71798e-16 0)
(3 2.51605e-16 0)
(3 4.88872e-16 0)
(3 6.33627e-16 0)
(3 9.27392e-16 0)
(3 1.21389e-15 0)
(3 1.31929e-15 0)
(3 9.62376e-16 0)
(3 1.00397e-15 0)
(3 1.10788e-15 0)
(3 1.39963e-15 0)
(3 9.37543e-16 0)
(3 1.03048e-15 0)
(3 1.38299e-15 0)
(3 1.67297e-16 0)
(3 -1.55289e-16 0)
(3 -7.69578e-16 0)
(3 -9.3463e-16 0)
(3 -1.23246e-15 0)
(3 -1.52192e-16 0)
(3 -2.02418e-16 0)
(3 3.68487e-16 0)
(3 1.26615e-15 0)
(3 -6.55211e-17 0)
(3 -3.60063e-16 0)
(3 -5.6943e-16 0)
(3 -5.05871e-16 0)
(3 -6.66849e-16 0)
(3 -6.90886e-16 0)
(3 -4.32371e-16 0)
(3 -5.96244e-16 0)
(3 -1.2686e-16 0)
(3 3.96655e-16 0)
(3 -4.72313e-16 0)
(3 -1.40312e-15 0)
(3 -1.73639e-15 0)
(3 -1.32957e-15 0)
(3 3.95021e-16 0)
(3 1.06054e-15 0)
(3 3.7322e-15 0)
(3 4.73099e-15 0)
(3 3.89329e-15 0)
(3 3.71648e-15 0)
(3 6.63706e-15 0)
(3 6.59625e-15 0)
(3 5.5236e-15 0)
(3 4.07013e-15 0)
(3 1.91689e-15 0)
(3 1.66533e-15 0)
(3 1.30616e-15 0)
(3 4.19902e-16 0)
(3 3.33251e-16 0)
(3 4.75395e-16 0)
(3 9.29207e-16 0)
(3 1.70319e-15 0)
(3 2.32227e-15 0)
(3 2.80134e-15 0)
(3 1.97517e-15 0)
(3 1.4849e-15 0)
(3 4.87346e-16 0)
(3 -1.46814e-15 0)
(3 -3.1595e-15 0)
(3 -3.47949e-15 0)
(3 -2.2421e-15 0)
(3 -1.30436e-15 0)
(3 -1.43563e-15 0)
(3 -1.34904e-15 0)
(3 -1.48148e-15 0)
(3 -1.46382e-15 0)
(3 -1.99635e-15 0)
(3 -2.58843e-15 0)
(3 -2.58174e-15 0)
(3 -2.75517e-15 0)
(3 -1.5682e-15 0)
(3 3.54919e-16 0)
(3 3.82086e-16 0)
(3 -3.674e-17 0)
(3 2.09075e-17 0)
(3 8.62557e-17 0)
(3 1.44775e-16 0)
(3 2.83726e-16 0)
(3 6.04407e-16 0)
(3 6.96553e-16 0)
(3 7.7913e-16 0)
(3 2.66352e-17 0)
(3 -4.39166e-16 0)
(3 -1.21489e-15 0)
(3 -2.20683e-16 0)
(3 1.15502e-15 0)
(3 1.02075e-15 0)
(3 3.09814e-16 0)
(3 3.56665e-16 0)
(3 7.95019e-16 0)
(3 4.66651e-16 0)
(3 1.29751e-16 0)
(3 -2.85828e-16 0)
(3 2.97341e-16 0)
(3 3.61619e-16 0)
(3 4.62802e-17 0)
(3 -3.43698e-16 0)
(3 1.58504e-16 0)
(3 9.20224e-16 0)
(3 1.16026e-15 0)
(3 8.00775e-16 0)
(3 7.68224e-16 0)
(3 2.80922e-16 0)
(3 -1.68116e-16 0)
(3 -4.79519e-17 0)
(3 -7.10975e-17 0)
(3 2.16273e-17 0)
(3 -4.10446e-17 0)
(3 -2.33451e-16 0)
(3 -4.30879e-16 0)
(3 3.18204e-16 0)
(3 5.91212e-16 0)
(3 6.52405e-16 0)
(3 3.1733e-16 0)
(3 -6.31151e-17 0)
(3 2.02242e-16 0)
(3 2.30242e-16 0)
(3 -1.07722e-15 0)
(3 -1.69393e-15 0)
(3 -2.3642e-15 0)
(3 -1.28679e-15 0)
(3 2.12621e-16 0)
(3 1.30398e-16 0)
(3 -1.56504e-15 0)
(3 -2.12937e-15 0)
(3 -1.8757e-15 0)
(3 -1.64258e-15 0)
(3 -2.11415e-15 0)
(3 -1.65859e-15 0)
(3 -8.29421e-16 0)
(3 5.85957e-16 0)
(3 2.46578e-15 0)
(3 4.54915e-15 0)
(3 5.23945e-15 0)
(3 4.90574e-15 0)
(3 4.34408e-15 0)
(3 3.62272e-15 0)
(3 3.51661e-15 0)
(3 2.01996e-15 0)
(3 7.40431e-17 0)
(3 -1.36538e-15 0)
(3 -1.08873e-15 0)
(3 -1.26341e-15 0)
(3 -1.95752e-15 0)
(3 -1.53049e-15 0)
(3 -1.17483e-15 0)
(3 -1.61422e-16 0)
(3 1.84174e-15 0)
(3 2.11295e-15 0)
(3 2.21783e-15 0)
(3 1.81023e-15 0)
(3 1.26343e-15 0)
(3 1.11547e-15 0)
(3 6.63689e-16 0)
(3 -5.83043e-16 0)
(3 -2.13521e-15 0)
(3 -2.98305e-15 0)
(3 -2.70192e-15 0)
(3 -2.02417e-15 0)
(3 -1.68515e-15 0)
(3 -1.65225e-15 0)
(3 -1.91231e-15 0)
(3 -1.44821e-15 0)
(3 -1.66883e-15 0)
(3 -1.4186e-15 0)
(3 -1.55718e-15 0)
(3 -6.79417e-16 0)
(3 -3.49897e-16 0)
(3 -1.66918e-16 0)
(3 -1.34403e-16 0)
(3 -1.71593e-17 0)
(3 -1.87463e-16 0)
(3 -6.16501e-16 0)
(3 -6.6207e-16 0)
(3 -4.26187e-16 0)
(3 -1.82737e-16 0)
(3 9.45686e-16 0)
(3 1.80903e-15 0)
(3 1.59691e-15 0)
(3 7.87093e-16 0)
(3 7.58109e-16 0)
(3 6.58251e-16 0)
(3 6.26266e-16 0)
(3 4.72245e-16 0)
(3 1.40392e-16 0)
(3 3.49145e-16 0)
(3 5.81003e-16 0)
(3 6.92052e-16 0)
(3 8.58253e-16 0)
(3 1.03541e-15 0)
(3 1.29235e-15 0)
(3 1.32736e-15 0)
(3 8.44074e-16 0)
(3 7.25758e-16 0)
(3 4.09221e-16 0)
(3 4.32073e-16 0)
(3 1.28577e-15 0)
(3 1.11026e-15 0)
(3 9.29508e-16 0)
(3 6.30403e-16 0)
(3 8.09104e-16 0)
(3 8.49478e-16 0)
(3 5.81268e-16 0)
(3 4.9327e-16 0)
(3 -2.55415e-16 0)
(3 -3.22374e-16 0)
(3 5.33554e-16 0)
(3 9.9694e-16 0)
(3 5.94085e-16 0)
(3 -1.84329e-16 0)
(3 -1.51293e-15 0)
(3 -2.15405e-15 0)
(3 -1.71962e-15 0)
(3 -1.80658e-15 0)
(3 -1.42654e-15 0)
(3 -1.03199e-15 0)
(3 -6.69126e-16 0)
(3 -3.03656e-16 0)
(3 -5.32024e-16 0)
(3 -1.63497e-15 0)
(3 -1.10281e-15 0)
(3 -1.1964e-15 0)
(3 -4.39647e-16 0)
(3 9.91516e-18 0)
(3 -7.48328e-16 0)
(3 -1.35034e-15 0)
(3 1.74813e-16 0)
(3 3.07843e-15 0)
(3 3.29953e-15 0)
(3 2.99091e-15 0)
(3 2.2164e-15 0)
(3 1.00603e-15 0)
(3 1.04619e-15 0)
(3 7.21711e-16 0)
(3 3.81094e-16 0)
(3 -8.61487e-17 0)
(3 -1.30629e-15 0)
(3 -1.98166e-15 0)
(3 -2.40666e-15 0)
(3 -2.27929e-15 0)
(3 -2.48103e-15 0)
(3 -1.97836e-15 0)
(3 -1.95949e-16 0)
(3 1.0426e-15 0)
(3 1.80372e-15 0)
(3 2.21199e-15 0)
(3 1.94226e-15 0)
(3 1.72288e-15 0)
(3 1.04612e-15 0)
(3 3.83167e-16 0)
(3 -9.14088e-17 0)
(3 -1.16626e-15 0)
(3 -2.00895e-15 0)
(3 -1.93501e-15 0)
(3 -1.71614e-15 0)
(3 -2.54676e-15 0)
(3 -2.09099e-15 0)
(3 -2.00342e-15 0)
(3 -1.49588e-15 0)
(3 -9.0645e-16 0)
(3 9.65447e-17 0)
(3 3.08244e-16 0)
(3 -4.13932e-16 0)
(3 -5.23279e-16 0)
(3 -1.11973e-16 0)
(3 -1.85285e-17 0)
(3 -5.44576e-18 0)
(3 -3.04458e-16 0)
(3 -6.85876e-16 0)
(3 -9.91574e-16 0)
(3 -1.4516e-15 0)
(3 -1.40523e-15 0)
(3 -8.35749e-16 0)
(3 2.08432e-16 0)
(3 6.67483e-16 0)
(3 7.42372e-16 0)
(3 6.0432e-16 0)
(3 4.60939e-17 0)
(3 3.00151e-16 0)
(3 1.17722e-15 0)
(3 1.18882e-15 0)
(3 7.71587e-16 0)
(3 6.56365e-16 0)
(3 7.87668e-16 0)
(3 1.18529e-15 0)
(3 1.62809e-15 0)
(3 1.4561e-15 0)
(3 1.1273e-15 0)
(3 6.13426e-16 0)
(3 5.54639e-16 0)
(3 -1.53118e-16 0)
(3 -5.39506e-16 0)
(3 3.43863e-16 0)
(3 9.36813e-16 0)
(3 1.08329e-15 0)
(3 1.1308e-15 0)
(3 7.46858e-16 0)
(3 7.47682e-16 0)
(3 5.07227e-16 0)
(3 2.26941e-16 0)
(3 7.50849e-16 0)
(3 9.08952e-16 0)
(3 1.85268e-16 0)
(3 1.50458e-16 0)
(3 -6.02469e-16 0)
(3 -2.15744e-15 0)
(3 -3.4827e-15 0)
(3 -4.80847e-15 0)
(3 -4.51175e-15 0)
(3 -3.30339e-15 0)
(3 -2.47018e-15 0)
(3 -6.45666e-16 0)
(3 -1.59345e-16 0)
(3 -3.57814e-16 0)
(3 -6.44819e-16 0)
(3 -1.97595e-16 0)
(3 -4.23372e-16 0)
(3 -7.90235e-16 0)
(3 -5.00546e-16 0)
(3 6.72677e-16 0)
(3 7.25846e-16 0)
(3 4.06813e-16 0)
(3 1.77564e-15 0)
(3 1.90385e-15 0)
(3 2.43415e-15 0)
(3 1.12598e-15 0)
(3 -6.07971e-16 0)
(3 -4.86827e-16 0)
(3 2.5464e-16 0)
(3 5.27586e-16 0)
(3 1.05519e-15 0)
(3 1.17144e-16 0)
(3 -5.83628e-16 0)
(3 -1.20328e-15 0)
(3 -7.819e-16 0)
(3 -3.68906e-16 0)
(3 -2.22823e-16 0)
(3 -1.93023e-16 0)
(3 2.90711e-16 0)
(3 1.64262e-15 0)
(3 1.81492e-15 0)
(3 1.97352e-15 0)
(3 2.93001e-15 0)
(3 1.70082e-15 0)
(3 5.23192e-16 0)
(3 8.27461e-17 0)
(3 1.44067e-15 0)
(3 2.10199e-15 0)
(3 9.86124e-16 0)
(3 -4.1782e-16 0)
(3 -1.28838e-15 0)
(3 -1.49873e-15 0)
(3 -1.58431e-15 0)
(3 -1.36747e-15 0)
(3 -1.11252e-15 0)
(3 5.64441e-16 0)
(3 1.66457e-15 0)
(3 1.25045e-16 0)
(3 -9.74275e-16 0)
(3 -1.04708e-15 0)
(3 -8.12825e-16 0)
(3 1.16137e-16 0)
(3 -1.98837e-17 0)
(3 -4.34111e-16 0)
(3 -6.03924e-16 0)
(3 -7.5394e-16 0)
(3 -1.1684e-15 0)
(3 -1.09814e-15 0)
(3 -1.48242e-15 0)
(3 -1.05015e-15 0)
(3 -1.8479e-16 0)
(3 -3.38894e-16 0)
(3 -2.29968e-16 0)
(3 8.08911e-16 0)
(3 9.00785e-16 0)
(3 1.23617e-15 0)
(3 1.43492e-15 0)
(3 1.11834e-15 0)
(3 2.40366e-16 0)
(3 1.07402e-16 0)
(3 -6.92566e-17 0)
(3 9.44487e-16 0)
(3 1.31509e-15 0)
(3 1.34021e-15 0)
(3 1.10869e-15 0)
(3 3.85365e-17 0)
(3 -3.10705e-16 0)
(3 -5.68885e-16 0)
(3 -9.32783e-16 0)
(3 -2.69153e-16 0)
(3 1.36337e-17 0)
(3 -6.559e-17 0)
(3 -1.40102e-16 0)
(3 -2.0755e-16 0)
(3 -4.4336e-17 0)
(3 2.95668e-16 0)
(3 1.3879e-15 0)
(3 1.70881e-15 0)
(3 4.82689e-16 0)
(3 -4.84845e-16 0)
(3 -4.82148e-16 0)
(3 -1.03729e-15 0)
(3 -2.30465e-15 0)
(3 -3.14769e-15 0)
(3 -3.03588e-15 0)
(3 -2.39407e-15 0)
(3 -1.90614e-15 0)
(3 -1.32808e-15 0)
(3 -1.26064e-15 0)
(3 -8.13158e-16 0)
(3 -5.00675e-17 0)
(3 -3.72511e-17 0)
(3 5.9017e-17 0)
(3 -5.78696e-16 0)
(3 -6.87518e-16 0)
(3 1.21769e-15 0)
(3 2.21096e-15 0)
(3 2.42819e-15 0)
(3 1.25587e-15 0)
(3 7.97661e-16 0)
(3 7.27716e-17 0)
(3 -3.68407e-16 0)
(3 -3.68001e-16 0)
(3 -1.37713e-16 0)
(3 -1.38711e-15 0)
(3 -2.26481e-15 0)
(3 -2.44785e-15 0)
(3 -1.11185e-15 0)
(3 -6.57154e-16 0)
(3 -4.85386e-16 0)
(3 -2.1674e-16 0)
(3 -3.7787e-17 0)
(3 1.82418e-16 0)
(3 5.05863e-16 0)
(3 5.6203e-16 0)
(3 4.96853e-16 0)
(3 9.99461e-16 0)
(3 8.13949e-16 0)
(3 6.39211e-16 0)
(3 2.66418e-16 0)
(3 6.34914e-16 0)
(3 1.30221e-15 0)
(3 2.40693e-15 0)
(3 3.46585e-15 0)
(3 3.52359e-15 0)
(3 1.91914e-15 0)
(3 8.79135e-16 0)
(3 4.9413e-16 0)
(3 -7.07903e-17 0)
(3 2.18011e-16 0)
(3 1.4185e-15 0)
(3 3.05751e-15 0)
(3 1.06561e-15 0)
(3 -1.0981e-15 0)
(3 -7.50797e-16 0)
(3 -1.47434e-15 0)
(3 -1.84228e-15 0)
(3 2.15118e-16 0)
(3 2.18337e-16 0)
(3 -9.48139e-18 0)
(3 2.09796e-16 0)
(3 -3.83881e-17 0)
(3 8.006e-17 0)
(3 -5.57164e-17 0)
(3 6.68351e-17 0)
(3 5.039e-16 0)
(3 6.08148e-16 0)
(3 5.52875e-16 0)
(3 3.04639e-16 0)
(3 1.44546e-15 0)
(3 1.73631e-15 0)
(3 5.90519e-16 0)
(3 1.73432e-16 0)
(3 8.05692e-17 0)
(3 2.27784e-16 0)
(3 2.2862e-16 0)
(3 -1.23678e-16 0)
(3 2.69287e-16 0)
(3 1.12547e-15 0)
(3 9.22445e-16 0)
(3 7.40183e-17 0)
(3 -2.56101e-16 0)
(3 2.29394e-16 0)
(3 4.3595e-16 0)
(3 1.61348e-16 0)
(3 -1.30186e-16 0)
(3 -7.76891e-16 0)
(3 8.59959e-16 0)
(3 1.68956e-15 0)
(3 1.51913e-15 0)
(3 1.11956e-15 0)
(3 8.60578e-16 0)
(3 8.12683e-16 0)
(3 1.71514e-15 0)
(3 2.15965e-15 0)
(3 1.56076e-15 0)
(3 1.62994e-16 0)
(3 -4.60672e-16 0)
(3 -7.31403e-16 0)
(3 -1.60219e-16 0)
(3 3.92538e-16 0)
(3 2.57074e-16 0)
(3 -1.36769e-16 0)
(3 -7.49113e-16 0)
(3 -8.19588e-16 0)
(3 -5.41105e-16 0)
(3 -1.3055e-16 0)
(3 -1.4994e-16 0)
(3 -8.3313e-16 0)
(3 -1.78704e-15 0)
(3 -2.43609e-15 0)
(3 -1.37856e-15 0)
(3 4.33202e-16 0)
(3 1.41246e-15 0)
(3 6.18824e-16 0)
(3 -2.53797e-16 0)
(3 -6.24134e-16 0)
(3 2.53228e-16 0)
(3 7.42815e-16 0)
(3 3.27223e-16 0)
(3 -2.07822e-16 0)
(3 -8.0224e-16 0)
(3 -1.04005e-15 0)
(3 -4.38231e-16 0)
(3 -5.46517e-16 0)
(3 -1.04925e-15 0)
(3 -1.25596e-15 0)
(3 -1.01552e-15 0)
(3 -7.5046e-16 0)
(3 2.62788e-16 0)
(3 1.44593e-15 0)
(3 1.3395e-15 0)
(3 4.14046e-16 0)
(3 -6.19247e-16 0)
(3 -1.52475e-15 0)
(3 -1.769e-15 0)
(3 -7.4764e-16 0)
(3 4.60521e-16 0)
(3 2.29021e-15 0)
(3 4.57085e-15 0)
(3 4.93385e-15 0)
(3 4.1881e-15 0)
(3 3.49937e-15 0)
(3 2.65692e-15 0)
(3 1.46874e-15 0)
(3 1.28812e-15 0)
(3 2.1349e-15 0)
(3 9.43784e-16 0)
(3 7.42595e-17 0)
(3 -9.61073e-16 0)
(3 -2.43327e-15 0)
(3 -3.27683e-15 0)
(3 -3.13184e-15 0)
(3 -1.50295e-16 0)
(3 -1.16159e-16 0)
(3 6.87248e-17 0)
(3 3.68734e-16 0)
(3 6.07875e-16 0)
(3 2.65962e-16 0)
(3 -1.42129e-16 0)
(3 5.56911e-16 0)
(3 4.10334e-16 0)
(3 -1.6781e-17 0)
(3 6.90397e-16 0)
(3 1.40656e-15 0)
(3 9.75395e-16 0)
(3 3.26181e-17 0)
(3 -1.34343e-16 0)
(3 -1.65032e-16 0)
(3 -3.28285e-16 0)
(3 1.15904e-16 0)
(3 3.06159e-17 0)
(3 -9.88036e-17 0)
(3 -4.18653e-16 0)
(3 -1.07836e-16 0)
(3 -3.47154e-16 0)
(3 -7.65324e-16 0)
(3 -7.40129e-16 0)
(3 1.45995e-16 0)
(3 8.01756e-16 0)
(3 5.28139e-16 0)
(3 1.18384e-16 0)
(3 3.95365e-16 0)
(3 2.5394e-15 0)
(3 3.07861e-15 0)
(3 2.36382e-15 0)
(3 1.36265e-15 0)
(3 9.9379e-16 0)
(3 9.24699e-16 0)
(3 1.37288e-15 0)
(3 1.50356e-15 0)
(3 1.41989e-15 0)
(3 7.53502e-16 0)
(3 6.27103e-16 0)
(3 1.03579e-15 0)
(3 1.45712e-15 0)
(3 1.92946e-15 0)
(3 1.22641e-15 0)
(3 1.05739e-15 0)
(3 1.10641e-15 0)
(3 4.20571e-16 0)
(3 6.77204e-17 0)
(3 -7.21144e-17 0)
(3 1.76772e-17 0)
(3 -4.5652e-16 0)
(3 -9.97539e-16 0)
(3 -1.07541e-15 0)
(3 -7.32387e-16 0)
(3 -2.70006e-16 0)
(3 -2.04166e-16 0)
(3 -3.7836e-16 0)
(3 -9.08707e-16 0)
(3 -8.37939e-16 0)
(3 -4.60749e-16 0)
(3 8.7317e-17 0)
(3 -2.27964e-16 0)
(3 7.25778e-16 0)
(3 1.34027e-15 0)
(3 7.20099e-16 0)
(3 -5.73558e-16 0)
(3 -7.14383e-16 0)
(3 -5.99625e-16 0)
(3 -8.61292e-16 0)
(3 -9.99346e-16 0)
(3 -7.60904e-16 0)
(3 2.76835e-16 0)
(3 1.77207e-15 0)
(3 1.54353e-15 0)
(3 2.47665e-16 0)
(3 -6.32973e-17 0)
(3 -1.50679e-15 0)
(3 -2.66352e-15 0)
(3 -2.73028e-15 0)
(3 8.81834e-16 0)
(3 4.06467e-15 0)
(3 5.54323e-15 0)
(3 5.9904e-15 0)
(3 4.13434e-15 0)
(3 1.78119e-15 0)
(3 8.46599e-16 0)
(3 6.73954e-16 0)
(3 1.33868e-15 0)
(3 1.44368e-15 0)
(3 6.59715e-16 0)
(3 9.00172e-16 0)
(3 -1.25431e-15 0)
(3 -4.50269e-15 0)
(3 -4.81689e-15 0)
(3 -3.86854e-15 0)
(3 -1.86176e-18 0)
(3 7.75703e-17 0)
(3 -7.84963e-17 0)
(3 -5.37992e-16 0)
(3 -4.25204e-16 0)
(3 -3.69848e-17 0)
(3 -2.92595e-16 0)
(3 3.43918e-16 0)
(3 1.71514e-16 0)
(3 1.11519e-16 0)
(3 9.2743e-17 0)
(3 -3.46362e-16 0)
(3 -5.14044e-16 0)
(3 -9.67413e-16 0)
(3 -1.543e-18 0)
(3 5.78859e-16 0)
(3 1.97532e-16 0)
(3 -3.76445e-16 0)
(3 -9.51044e-16 0)
(3 -1.00454e-15 0)
(3 -1.11676e-15 0)
(3 -3.78716e-16 0)
(3 4.81608e-16 0)
(3 1.77427e-15 0)
(3 1.80817e-15 0)
(3 1.37169e-15 0)
(3 4.45626e-16 0)
(3 4.63833e-16 0)
(3 3.75204e-16 0)
(3 2.20392e-17 0)
(3 2.05465e-16 0)
(3 6.58077e-16 0)
(3 2.36426e-15 0)
(3 2.53322e-15 0)
(3 1.4663e-15 0)
(3 8.90589e-16 0)
(3 -2.75573e-16 0)
(3 -3.13032e-16 0)
(3 3.67763e-16 0)
(3 8.86415e-16 0)
(3 1.69341e-15 0)
(3 1.57441e-15 0)
(3 1.29195e-15 0)
(3 1.3177e-15 0)
(3 1.07447e-15 0)
(3 1.02982e-15 0)
(3 1.79494e-15 0)
(3 1.54932e-15 0)
(3 1.34697e-15 0)
(3 6.6539e-16 0)
(3 -2.76227e-16 0)
(3 -9.08649e-16 0)
(3 -5.9403e-16 0)
(3 -9.28848e-17 0)
(3 8.23573e-16 0)
(3 5.93192e-16 0)
(3 -8.62602e-16 0)
(3 -1.03314e-15 0)
(3 -1.45765e-15 0)
(3 -1.92164e-15 0)
(3 -1.88731e-15 0)
(3 -1.58043e-15 0)
(3 3.94534e-16 0)
(3 6.31427e-16 0)
(3 -4.14277e-17 0)
(3 -1.22437e-15 0)
(3 -1.67489e-15 0)
(3 -1.23876e-15 0)
(3 -2.12036e-16 0)
(3 7.5858e-17 0)
(3 -2.7751e-16 0)
(3 -2.55344e-16 0)
(3 4.28995e-16 0)
(3 6.09421e-16 0)
(3 -1.1522e-15 0)
(3 -1.29381e-15 0)
(3 -8.62686e-16 0)
(3 -7.34347e-16 0)
(3 -8.8769e-16 0)
(3 -9.15801e-16 0)
(3 2.89977e-15 0)
(3 4.70102e-15 0)
(3 5.06119e-15 0)
(3 4.02276e-15 0)
(3 1.76648e-15 0)
(3 9.34917e-16 0)
(3 1.15383e-15 0)
(3 1.50355e-15 0)
(3 1.56164e-15 0)
(3 1.17586e-15 0)
(3 5.98259e-16 0)
(3 3.92438e-16 0)
(3 -1.67023e-15 0)
(3 -2.17731e-15 0)
(3 -1.84012e-15 0)
(3 -2.86425e-15 0)
(3 4.27749e-18 0)
(3 1.32007e-16 0)
(3 2.06009e-16 0)
(3 3.88925e-16 0)
(3 3.07744e-16 0)
(3 6.50888e-16 0)
(3 4.36042e-16 0)
(3 1.45499e-16 0)
(3 5.5348e-16 0)
(3 7.85617e-16 0)
(3 -4.74421e-16 0)
(3 -2.13034e-15 0)
(3 -1.61144e-15 0)
(3 -7.34406e-16 0)
(3 -1.63791e-16 0)
(3 -1.75759e-16 0)
(3 -3.00078e-16 0)
(3 -9.22224e-16 0)
(3 -1.32109e-15 0)
(3 -2.03165e-15 0)
(3 -1.54721e-15 0)
(3 -6.47113e-16 0)
(3 7.09752e-16 0)
(3 1.69989e-15 0)
(3 1.68795e-15 0)
(3 1.54194e-15 0)
(3 1.29079e-15 0)
(3 1.053e-15 0)
(3 8.77543e-16 0)
(3 2.05791e-16 0)
(3 -4.60166e-16 0)
(3 -2.46034e-16 0)
(3 2.70784e-16 0)
(3 6.87595e-16 0)
(3 6.95605e-16 0)
(3 4.8659e-16 0)
(3 -4.86454e-16 0)
(3 -8.45424e-16 0)
(3 -2.48989e-16 0)
(3 6.72812e-16 0)
(3 1.09634e-15 0)
(3 1.23219e-15 0)
(3 1.41359e-15 0)
(3 1.97313e-15 0)
(3 1.96884e-15 0)
(3 1.56131e-15 0)
(3 1.57819e-15 0)
(3 1.38751e-15 0)
(3 9.23822e-16 0)
(3 9.00581e-17 0)
(3 -3.9561e-16 0)
(3 -8.87542e-16 0)
(3 -1.08006e-15 0)
(3 -8.43337e-16 0)
(3 -7.76395e-16 0)
(3 -1.46357e-15 0)
(3 -2.79634e-15 0)
(3 -3.21454e-15 0)
(3 -3.44133e-15 0)
(3 -3.46678e-15 0)
(3 -2.49795e-15 0)
(3 -1.79568e-15 0)
(3 -3.13268e-16 0)
(3 1.7277e-16 0)
(3 -6.11599e-16 0)
(3 -7.89946e-16 0)
(3 -5.77496e-16 0)
(3 -3.96169e-16 0)
(3 -3.78455e-16 0)
(3 -6.53266e-16 0)
(3 -4.16853e-16 0)
(3 -9.90578e-16 0)
(3 -1.46098e-15 0)
(3 -2.12348e-15 0)
(3 -2.76141e-15 0)
(3 -2.84728e-15 0)
(3 -2.62192e-15 0)
(3 -6.88167e-16 0)
(3 1.88412e-15 0)
(3 3.58753e-15 0)
(3 4.11554e-15 0)
(3 4.43908e-15 0)
(3 3.79203e-15 0)
(3 2.12326e-15 0)
(3 1.89308e-15 0)
(3 2.70509e-15 0)
(3 2.51202e-15 0)
(3 1.24007e-15 0)
(3 -4.72219e-16 0)
(3 -6.73269e-16 0)
(3 -7.37219e-16 0)
(3 -4.32229e-16 0)
(3 -5.31704e-16 0)
(3 -8.33328e-16 0)
(3 -2.11333e-15 0)
(3 -2.98112e-15 0)
(3 -2.99621e-17 0)
(3 -5.9861e-17 0)
(3 1.45306e-16 0)
(3 2.8808e-16 0)
(3 2.99011e-16 0)
(3 -2.72342e-16 0)
(3 -2.7839e-16 0)
(3 -1.64428e-16 0)
(3 -6.831e-17 0)
(3 1.01547e-16 0)
(3 -3.38474e-16 0)
(3 3.15591e-16 0)
(3 -7.99018e-16 0)
(3 -7.36747e-16 0)
(3 -1.45602e-15 0)
(3 -1.51528e-15 0)
(3 -1.42017e-15 0)
(3 -8.31348e-16 0)
(3 -2.31947e-16 0)
(3 -1.14551e-15 0)
(3 -7.1851e-16 0)
(3 -1.05941e-15 0)
(3 -1.07153e-15 0)
(3 -9.46944e-16 0)
(3 -5.17519e-16 0)
(3 3.54242e-16 0)
(3 1.51049e-15 0)
(3 9.56394e-16 0)
(3 8.64061e-16 0)
(3 6.92852e-16 0)
(3 -3.12378e-16 0)
(3 -1.36546e-15 0)
(3 -2.10216e-15 0)
(3 -2.00846e-15 0)
(3 4.65802e-16 0)
(3 7.82494e-16 0)
(3 5.34201e-16 0)
(3 -3.01779e-17 0)
(3 -2.42144e-16 0)
(3 3.23443e-17 0)
(3 4.30293e-16 0)
(3 8.16374e-16 0)
(3 1.20134e-15 0)
(3 1.07213e-15 0)
(3 1.27789e-15 0)
(3 9.48685e-16 0)
(3 -2.82135e-16 0)
(3 -5.44437e-16 0)
(3 -5.54002e-16 0)
(3 -2.55486e-16 0)
(3 -7.81667e-16 0)
(3 -4.11855e-16 0)
(3 -6.30708e-16 0)
(3 -1.11896e-15 0)
(3 -2.10174e-15 0)
(3 -2.98872e-15 0)
(3 -5.27153e-15 0)
(3 -5.17266e-15 0)
(3 -5.19955e-15 0)
(3 -5.48093e-15 0)
(3 -4.78014e-15 0)
(3 -3.7148e-15 0)
(3 -3.69342e-15 0)
(3 -3.56612e-15 0)
(3 -2.25173e-15 0)
(3 -8.50521e-16 0)
(3 -1.73613e-16 0)
(3 -1.61259e-16 0)
(3 -5.88747e-16 0)
(3 -7.85734e-16 0)
(3 -1.19581e-15 0)
(3 -1.68438e-15 0)
(3 -2.73462e-15 0)
(3 -4.0296e-15 0)
(3 -3.25965e-15 0)
(3 -3.41845e-15 0)
(3 -3.88633e-15 0)
(3 2.89365e-17 0)
(3 4.87904e-15 0)
(3 6.34602e-15 0)
(3 4.79236e-15 0)
(3 4.29634e-15 0)
(3 2.64104e-15 0)
(3 1.51223e-15 0)
(3 1.15376e-15 0)
(3 4.06817e-16 0)
(3 -1.61812e-16 0)
(3 -2.43252e-16 0)
(3 -7.20164e-16 0)
(3 -1.08778e-15 0)
(3 -2.22541e-16 0)
(3 -3.28474e-17 0)
(3 1.3696e-16 0)
(3 7.13989e-17 0)
(3 -1.28875e-15 0)
(3 -2.24439e-15 0)
(3 1.03078e-16 0)
(3 3.26126e-17 0)
(3 -1.80987e-16 0)
(3 -2.44452e-16 0)
(3 -4.91243e-16 0)
(3 -7.16518e-16 0)
(3 -5.3046e-16 0)
(3 -6.81471e-16 0)
(3 -5.66192e-16 0)
(3 -7.68799e-17 0)
(3 -8.34258e-17 0)
(3 1.0927e-15 0)
(3 1.36735e-15 0)
(3 1.12464e-15 0)
(3 -1.10186e-16 0)
(3 -7.92328e-17 0)
(3 2.69348e-16 0)
(3 1.02092e-15 0)
(3 1.40681e-15 0)
(3 1.46527e-15 0)
(3 1.46683e-15 0)
(3 5.73091e-16 0)
(3 -4.81508e-16 0)
(3 -7.44097e-16 0)
(3 -3.66631e-16 0)
(3 -4.31097e-16 0)
(3 -4.2509e-16 0)
(3 9.14611e-17 0)
(3 3.89034e-17 0)
(3 -2.5607e-16 0)
(3 -1.25619e-15 0)
(3 -1.98971e-15 0)
(3 -2.24422e-15 0)
(3 -1.93009e-15 0)
(3 -5.93114e-16 0)
(3 1.01988e-15 0)
(3 1.17415e-15 0)
(3 4.57052e-16 0)
(3 1.09323e-16 0)
(3 -1.21305e-16 0)
(3 2.34215e-16 0)
(3 4.71854e-16 0)
(3 3.56348e-16 0)
(3 -2.25867e-16 0)
(3 3.59817e-16 0)
(3 8.00412e-16 0)
(3 5.57788e-16 0)
(3 5.42243e-16 0)
(3 3.414e-16 0)
(3 -2.85413e-16 0)
(3 -1.08615e-15 0)
(3 -1.05853e-15 0)
(3 -1.06572e-15 0)
(3 -9.25535e-16 0)
(3 -9.99519e-16 0)
(3 -3.44309e-15 0)
(3 -5.16589e-15 0)
(3 -6.32877e-15 0)
(3 -5.80735e-15 0)
(3 -4.42391e-15 0)
(3 -3.96813e-15 0)
(3 -4.13517e-15 0)
(3 -5.13676e-15 0)
(3 -5.53558e-15 0)
(3 -4.62564e-15 0)
(3 -2.71259e-15 0)
(3 -2.63556e-15 0)
(3 -2.76343e-15 0)
(3 -3.02461e-15 0)
(3 -3.06887e-15 0)
(3 -3.09206e-15 0)
(3 -3.22936e-15 0)
(3 -3.32939e-15 0)
(3 -3.05288e-15 0)
(3 -1.4932e-15 0)
(3 -9.96461e-16 0)
(3 -8.75352e-16 0)
(3 2.57734e-15 0)
(3 4.75591e-15 0)
(3 4.36428e-15 0)
(3 2.95259e-15 0)
(3 1.58066e-15 0)
(3 7.02156e-16 0)
(3 6.6515e-16 0)
(3 1.12041e-15 0)
(3 -9.61705e-17 0)
(3 -5.16064e-16 0)
(3 -1.22274e-15 0)
(3 -1.50819e-15 0)
(3 -9.83881e-16 0)
(3 -3.35638e-16 0)
(3 -4.28073e-16 0)
(3 -1.22717e-15 0)
(3 -1.9343e-15 0)
(3 -2.65465e-15 0)
(3 -2.75648e-15 0)
(3 -6.38299e-17 0)
(3 -5.40898e-17 0)
(3 -3.28838e-17 0)
(3 4.20915e-16 0)
(3 7.17714e-16 0)
(3 1.01809e-15 0)
(3 1.14867e-15 0)
(3 -5.76903e-16 0)
(3 -6.81183e-16 0)
(3 -6.17648e-16 0)
(3 -1.17701e-15 0)
(3 -8.80765e-16 0)
(3 1.26085e-15 0)
(3 1.31132e-15 0)
(3 1.79297e-15 0)
(3 1.08556e-15 0)
(3 7.0918e-16 0)
(3 5.35699e-16 0)
(3 5.1168e-16 0)
(3 5.2217e-16 0)
(3 -4.0128e-17 0)
(3 -2.70081e-16 0)
(3 -2.28535e-16 0)
(3 -5.64921e-16 0)
(3 -1.17335e-15 0)
(3 -1.22387e-15 0)
(3 -9.15558e-16 0)
(3 -7.56409e-16 0)
(3 -6.98032e-16 0)
(3 7.5941e-17 0)
(3 4.09366e-16 0)
(3 -3.58724e-16 0)
(3 -8.55962e-16 0)
(3 -9.56938e-16 0)
(3 4.85846e-16 0)
(3 1.32224e-15 0)
(3 1.23792e-15 0)
(3 7.03829e-16 0)
(3 8.60318e-17 0)
(3 -2.15418e-16 0)
(3 -8.43904e-17 0)
(3 -2.76822e-16 0)
(3 -4.59634e-16 0)
(3 -7.83999e-16 0)
(3 -5.97683e-16 0)
(3 9.37621e-16 0)
(3 1.39768e-15 0)
(3 1.14456e-15 0)
(3 7.50872e-16 0)
(3 -1.24531e-16 0)
(3 -1.37617e-15 0)
(3 -1.55114e-15 0)
(3 -1.59103e-15 0)
(3 -1.53046e-15 0)
(3 -1.69359e-15 0)
(3 -2.99807e-15 0)