/*--------------------------------*- C++ -*----------------------------------*\
  =========                 |
  \\      /  F ield         | OpenFOAM: The Open Source CFD Toolbox
   \\    /   O peration     | Website:  https://openfoam.org
    \\  /    A nd           | Version:  7
     \\/     M anipulation  |
\*---------------------------------------------------------------------------*/
FoamFile
{
    version     2.0;
    format      ascii;
    class       volVectorField;
    location    "0.1";
    object      U;
}
// * * * * * * * * * * * * * * * * * * * * * * * * * * * * * * * * * * * * * //

dimensions      [0 1 -1 0 0 0 0];

internalField   nonuniform List<vector> 
73728
(
(3 2.11811e-16 0)
(3 1.23989e-16 0)
(3 5.70642e-17 0)
(3 -3.40636e-16 0)
(3 1.93712e-16 0)
(3 2.34066e-16 0)
(3 2.05891e-16 0)
(3 4.11226e-16 0)
(3 1.21366e-15 0)
(3 1.49444e-15 0)
(3 6.34939e-16 0)
(3 6.43455e-17 0)
(3 1.22212e-16 0)
(3 -1.91244e-16 0)
(3 -7.33235e-16 0)
(3 -1.91372e-15 0)
(3 -1.44121e-15 0)
(3 -4.2983e-16 0)
(3 -4.21874e-16 0)
(3 -4.10191e-16 0)
(3 -1.93769e-16 0)
(3 1.68662e-16 0)
(3 5.80059e-16 0)
(3 1.19266e-15 0)
(3 1.70569e-15 0)
(3 1.72391e-15 0)
(3 1.45055e-15 0)
(3 1.85426e-15 0)
(3 1.75365e-15 0)
(3 1.09422e-15 0)
(3 8.28665e-16 0)
(3 6.12734e-17 0)
(3 1.95427e-16 0)
(3 2.24089e-16 0)
(3 3.90172e-16 0)
(3 3.54214e-16 0)
(3 2.03222e-17 0)
(3 -9.51119e-17 0)
(3 -8.22783e-16 0)
(3 -8.59755e-16 0)
(3 -2.07664e-15 0)
(3 -2.30041e-15 0)
(3 -1.73622e-15 0)
(3 -1.76741e-15 0)
(3 3.28345e-16 0)
(3 1.5884e-15 0)
(3 2.26043e-15 0)
(3 1.70016e-15 0)
(3 8.25711e-16 0)
(3 3.35764e-16 0)
(3 -6.30629e-16 0)
(3 -1.29465e-15 0)
(3 -9.07897e-16 0)
(3 -3.60443e-16 0)
(3 3.85465e-16 0)
(3 1.14879e-15 0)
(3 5.35236e-16 0)
(3 5.39629e-16 0)
(3 3.71186e-16 0)
(3 -2.7792e-16 0)
(3 -7.15318e-16 0)
(3 -1.22043e-15 0)
(3 -1.16968e-15 0)
(3 -8.97182e-16 0)
(3 -4.32376e-16 0)
(3 -6.38454e-16 0)
(3 -1.06096e-15 0)
(3 -3.47352e-16 0)
(3 -3.61034e-17 0)
(3 -1.39023e-16 0)
(3 -3.67065e-16 0)
(3 9.25275e-17 0)
(3 7.731e-16 0)
(3 2.04949e-16 0)
(3 -2.99914e-16 0)
(3 3.93475e-16 0)
(3 1.18909e-15 0)
(3 1.80104e-15 0)
(3 2.00158e-15 0)
(3 1.22907e-15 0)
(3 8.11689e-16 0)
(3 5.70275e-16 0)
(3 7.11509e-17 0)
(3 4.0877e-16 0)
(3 -3.63347e-16 0)
(3 -6.59896e-16 0)
(3 -1.63529e-15 0)
(3 -2.39695e-15 0)
(3 -2.68489e-15 0)
(3 -2.6073e-15 0)
(3 -2.52575e-15 0)
(3 -2.45938e-15 0)
(3 -2.10607e-15 0)
(3 -1.5841e-15 0)
(3 2.7048e-16 0)
(3 6.71381e-16 0)
(3 3.37787e-16 0)
(3 1.11277e-16 0)
(3 -5.681e-16 0)
(3 -9.90931e-16 0)
(3 -1.22899e-15 0)
(3 -7.10731e-16 0)
(3 -4.98421e-16 0)
(3 3.16258e-16 0)
(3 1.53896e-15 0)
(3 1.37921e-15 0)
(3 6.49366e-16 0)
(3 7.13405e-18 0)
(3 -9.36951e-17 0)
(3 -9.08986e-16 0)
(3 -1.84886e-15 0)
(3 -1.82371e-15 0)
(3 -1.98176e-15 0)
(3 -1.44141e-15 0)
(3 -7.06926e-16 0)
(3 -1.18596e-16 0)
(3 9.18355e-16 0)
(3 1.19805e-15 0)
(3 1.7885e-15 0)
(3 1.81872e-15 0)
(3 2.73787e-15 0)
(3 3.34355e-15 0)
(3 4.44328e-15 0)
(3 2.774e-15 0)
(3 1.10325e-15 0)
(3 -8.85365e-16 0)
(3 -1.34758e-15 0)
(3 -1.48321e-15 0)
(3 -1.06995e-15 0)
(3 -1.05218e-15 0)
(3 -1.20222e-15 0)
(3 -8.3866e-16 0)
(3 -1.22398e-15 0)
(3 -4.75663e-16 0)
(3 -1.52827e-15 0)
(3 -1.83502e-15 0)
(3 -1.14664e-15 0)
(3 -7.40001e-16 0)
(3 -4.67326e-17 0)
(3 1.51976e-16 0)
(3 2.86867e-15 0)
(3 4.81998e-15 0)
(3 4.09472e-15 0)
(3 3.49269e-15 0)
(3 1.42739e-15 0)
(3 -2.49717e-16 0)
(3 -1.35309e-15 0)
(3 -1.18206e-15 0)
(3 -5.40277e-16 0)
(3 2.74081e-16 0)
(3 1.8282e-15 0)
(3 2.60474e-15 0)
(3 2.61946e-15 0)
(3 2.61108e-15 0)
(3 7.1199e-16 0)
(3 -1.23517e-15 0)
(3 -3.44982e-15 0)
(3 -3.27725e-15 0)
(3 -1.82925e-15 0)
(3 -6.50671e-17 0)
(3 9.89848e-17 0)
(3 -5.64771e-16 0)
(3 -1.07983e-15 0)
(3 5.40247e-16 0)
(3 8.31008e-16 0)
(3 4.96033e-16 0)
(3 1.8568e-16 0)
(3 4.696e-16 0)
(3 1.02638e-15 0)
(3 1.68221e-16 0)
(3 -2.75383e-16 0)
(3 5.95639e-16 0)
(3 1.76349e-15 0)
(3 2.97989e-15 0)
(3 2.60878e-15 0)
(3 8.61264e-16 0)
(3 2.10951e-16 0)
(3 -1.04674e-15 0)
(3 -2.17136e-15 0)
(3 -1.95684e-15 0)
(3 -2.59022e-15 0)
(3 -3.21944e-15 0)
(3 -3.66456e-15 0)
(3 -4.09705e-15 0)
(3 -4.55211e-15 0)
(3 -4.49508e-15 0)
(3 -3.52935e-15 0)
(3 -2.24896e-15 0)
(3 3.64101e-16 0)
(3 1.89221e-15 0)
(3 3.2443e-15 0)
(3 3.51127e-15 0)
(3 1.79926e-16 0)
(3 -2.03682e-16 0)
(3 -4.64251e-16 0)
(3 -7.00118e-16 0)
(3 -9.73727e-16 0)
(3 -9.1274e-16 0)
(3 -7.20871e-16 0)
(3 -3.56651e-16 0)
(3 -4.0571e-16 0)
(3 -4.91857e-16 0)
(3 -7.13155e-16 0)
(3 -7.01412e-16 0)
(3 -1.17536e-15 0)
(3 -1.3889e-15 0)
(3 -1.12075e-15 0)
(3 -7.41164e-16 0)
(3 -9.42879e-16 0)
(3 -1.07824e-15 0)
(3 -1.10647e-15 0)
(3 -1.10611e-17 0)
(3 9.7971e-16 0)
(3 1.38516e-15 0)
(3 1.75922e-15 0)
(3 1.44204e-15 0)
(3 1.1332e-15 0)
(3 2.6104e-15 0)
(3 3.42274e-15 0)
(3 2.77761e-15 0)
(3 1.19461e-15 0)
(3 4.11109e-16 0)
(3 3.03816e-16 0)
(3 4.86907e-16 0)
(3 8.99503e-17 0)
(3 -5.91413e-16 0)
(3 -9.00444e-16 0)
(3 -1.28355e-15 0)
(3 -2.15368e-15 0)
(3 -2.935e-15 0)
(3 -3.39322e-15 0)
(3 -2.69417e-15 0)
(3 -1.98282e-15 0)
(3 -3.66005e-16 0)
(3 1.69725e-15 0)
(3 2.4406e-15 0)
(3 2.2745e-15 0)
(3 2.64761e-15 0)
(3 2.75629e-15 0)
(3 2.57915e-15 0)
(3 1.74179e-15 0)
(3 7.63401e-16 0)
(3 -9.51168e-16 0)
(3 -3.20352e-16 0)
(3 -1.9621e-17 0)
(3 -6.72525e-17 0)
(3 1.38824e-15 0)
(3 2.4668e-15 0)
(3 2.40168e-15 0)
(3 1.0459e-15 0)
(3 -5.47816e-16 0)
(3 -1.8934e-15 0)
(3 -2.34231e-15 0)
(3 -1.30991e-15 0)
(3 -9.11669e-16 0)
(3 -7.4974e-16 0)
(3 -1.12481e-15 0)
(3 -1.64124e-15 0)
(3 -5.51251e-17 0)
(3 8.70691e-16 0)
(3 5.59723e-16 0)
(3 1.75926e-16 0)
(3 1.72597e-16 0)
(3 8.00096e-16 0)
(3 1.52752e-15 0)
(3 1.3766e-16 0)
(3 3.99583e-17 0)
(3 1.85584e-15 0)
(3 2.57972e-15 0)
(3 2.16713e-15 0)
(3 1.48669e-15 0)
(3 7.72406e-16 0)
(3 -1.15037e-15 0)
(3 -1.99835e-15 0)
(3 -2.50387e-15 0)
(3 -2.54377e-15 0)
(3 -3.59956e-15 0)
(3 -4.48927e-15 0)
(3 -4.97264e-15 0)
(3 -5.20377e-15 0)
(3 -6.04591e-15 0)
(3 -6.11841e-15 0)
(3 -4.71904e-15 0)
(3 -1.73448e-15 0)
(3 -5.68031e-16 0)
(3 3.70056e-16 0)
(3 6.73422e-16 0)
(3 2.81148e-15 0)
(3 -3.73734e-17 0)
(3 -5.61764e-16 0)
(3 -1.55098e-16 0)
(3 3.38615e-16 0)
(3 7.17258e-16 0)
(3 8.46197e-16 0)
(3 7.64618e-16 0)
(3 3.47688e-16 0)
(3 -2.327e-16 0)
(3 -1.80696e-16 0)
(3 -7.90268e-17 0)
(3 4.89273e-16 0)
(3 5.64567e-16 0)
(3 4.14e-16 0)
(3 7.11879e-16 0)
(3 5.2838e-16 0)
(3 1.43235e-16 0)
(3 6.7404e-17 0)
(3 -6.89145e-16 0)
(3 -7.72123e-16 0)
(3 -5.55109e-16 0)
(3 7.02693e-17 0)
(3 8.97468e-16 0)
(3 1.37844e-15 0)
(3 6.19575e-16 0)
(3 1.42709e-15 0)
(3 1.45536e-15 0)
(3 1.13036e-15 0)
(3 8.63164e-16 0)
(3 1.10537e-15 0)
(3 1.86463e-15 0)
(3 2.04831e-15 0)
(3 1.42914e-15 0)
(3 6.04147e-16 0)
(3 -2.7103e-16 0)
(3 -1.95411e-15 0)
(3 -3.78307e-15 0)
(3 -3.93914e-15 0)
(3 -3.68211e-15 0)
(3 -2.39794e-15 0)
(3 -2.65308e-16 0)
(3 4.90933e-16 0)
(3 6.86165e-16 0)
(3 1.23099e-15 0)
(3 8.10924e-16 0)
(3 2.73411e-16 0)
(3 7.33946e-16 0)
(3 6.43559e-16 0)
(3 9.26296e-16 0)
(3 2.17021e-15 0)
(3 2.31522e-15 0)
(3 7.32631e-16 0)
(3 -8.44095e-16 0)
(3 -1.73234e-15 0)
(3 -1.29562e-15 0)
(3 -6.67624e-16 0)
(3 -2.39379e-16 0)
(3 -4.17366e-16 0)
(3 -7.02356e-16 0)
(3 -7.3995e-16 0)
(3 2.20971e-16 0)
(3 2.95371e-16 0)
(3 2.15533e-16 0)
(3 -2.45053e-17 0)
(3 -7.00767e-17 0)
(3 -1.34894e-16 0)
(3 2.82065e-16 0)
(3 -3.89365e-16 0)
(3 -1.31409e-15 0)
(3 -8.84064e-16 0)
(3 -6.06029e-16 0)
(3 5.92837e-17 0)
(3 3.08133e-18 0)
(3 4.46322e-16 0)
(3 2.13043e-15 0)
(3 3.31279e-15 0)
(3 3.33733e-15 0)
(3 1.68139e-15 0)
(3 -5.411e-17 0)
(3 -7.60029e-16 0)
(3 -1.58553e-15 0)
(3 -1.82594e-15 0)
(3 -1.98591e-15 0)
(3 -1.67985e-15 0)
(3 -1.67873e-15 0)
(3 -2.81117e-15 0)
(3 -3.82855e-15 0)
(3 -4.30412e-15 0)
(3 -3.5193e-15 0)
(3 -2.46539e-15 0)
(3 -1.56309e-15 0)
(3 -4.96671e-16 0)
(3 -7.36868e-16 0)
(3 -2.14569e-16 0)
(3 3.68952e-17 0)
(3 1.29567e-15 0)
(3 -1.4237e-16 0)
(3 -4.3782e-16 0)
(3 -5.76664e-17 0)
(3 -4.13128e-17 0)
(3 2.61386e-16 0)
(3 1.48864e-15 0)
(3 1.60164e-15 0)
(3 1.35429e-15 0)
(3 1.17652e-15 0)
(3 1.30451e-15 0)
(3 2.18193e-15 0)
(3 2.65283e-15 0)
(3 2.75893e-15 0)
(3 1.15379e-15 0)
(3 6.32762e-16 0)
(3 -4.33336e-16 0)
(3 -7.76508e-16 0)
(3 -7.02608e-16 0)
(3 1.47599e-16 0)
(3 3.08229e-16 0)
(3 1.74596e-16 0)
(3 -1.73854e-16 0)
(3 -9.41954e-16 0)
(3 -1.42786e-15 0)
(3 -1.98098e-15 0)
(3 -1.97849e-15 0)
(3 -1.77131e-15 0)
(3 -1.90065e-15 0)
(3 -1.43988e-15 0)
(3 -2.55346e-16 0)
(3 1.30647e-15 0)
(3 1.76907e-15 0)
(3 1.4553e-15 0)
(3 5.92957e-16 0)
(3 3.37839e-16 0)
(3 -1.07142e-15 0)
(3 -3.13151e-15 0)
(3 -1.98109e-15 0)
(3 1.06983e-15 0)
(3 2.46872e-15 0)
(3 2.9862e-15 0)
(3 1.3881e-15 0)
(3 -8.6793e-17 0)
(3 -1.98986e-16 0)
(3 1.30092e-16 0)
(3 4.44469e-16 0)
(3 4.30737e-17 0)
(3 -2.70232e-16 0)
(3 -6.68875e-16 0)
(3 9.55476e-17 0)
(3 1.59441e-15 0)
(3 1.45442e-15 0)
(3 -6.91716e-16 0)
(3 -9.59097e-16 0)
(3 -1.34816e-15 0)
(3 -1.4858e-15 0)
(3 -1.08775e-15 0)
(3 -1.04224e-16 0)
(3 -3.57034e-17 0)
(3 2.92739e-16 0)
(3 1.17178e-15 0)
(3 1.40891e-15 0)
(3 1.38806e-15 0)
(3 1.07625e-15 0)
(3 6.36319e-16 0)
(3 8.22792e-17 0)
(3 -7.38104e-16 0)
(3 -8.55132e-16 0)
(3 -1.04205e-15 0)
(3 -1.14195e-15 0)
(3 -7.78497e-16 0)
(3 -6.67966e-16 0)
(3 -2.58398e-16 0)
(3 5.03593e-16 0)
(3 1.74582e-15 0)
(3 2.11738e-15 0)
(3 1.99986e-15 0)
(3 9.91482e-17 0)
(3 -1.54148e-15 0)
(3 -1.66914e-15 0)
(3 -1.0334e-15 0)
(3 -9.59087e-16 0)
(3 -5.30585e-16 0)
(3 -3.91641e-16 0)
(3 1.61321e-17 0)
(3 -7.72865e-16 0)
(3 -1.79232e-15 0)
(3 -2.7085e-15 0)
(3 -9.66737e-16 0)
(3 -1.11702e-17 0)
(3 2.97962e-16 0)
(3 2.70667e-16 0)
(3 -5.1588e-16 0)
(3 -7.92357e-16 0)
(3 -7.34635e-16 0)
(3 -1.06724e-15 0)
(3 -1.38567e-16 0)
(3 3.96722e-16 0)
(3 4.77849e-16 0)
(3 3.45954e-16 0)
(3 -1.03068e-16 0)
(3 1.12341e-16 0)
(3 4.16279e-16 0)
(3 4.10376e-16 0)
(3 7.56803e-16 0)
(3 7.68533e-16 0)
(3 1.59693e-15 0)
(3 1.98977e-15 0)
(3 2.08467e-15 0)
(3 1.83869e-15 0)
(3 1.54671e-15 0)
(3 1.43177e-15 0)
(3 1.37838e-15 0)
(3 1.00695e-15 0)
(3 7.55453e-16 0)
(3 2.64083e-16 0)
(3 -1.52371e-16 0)
(3 -9.78926e-16 0)
(3 -2.74928e-15 0)
(3 -3.7804e-15 0)
(3 -3.77752e-15 0)
(3 -3.87174e-15 0)
(3 -3.48151e-15 0)
(3 -2.11138e-15 0)
(3 -1.09959e-15 0)
(3 3.2486e-16 0)
(3 5.39669e-16 0)
(3 3.72405e-16 0)
(3 4.09267e-16 0)
(3 1.21581e-15 0)
(3 1.89438e-15 0)
(3 1.91681e-15 0)
(3 1.38265e-15 0)
(3 1.52801e-15 0)
(3 8.79883e-16 0)
(3 9.68754e-16 0)
(3 1.21243e-15 0)
(3 -1.20739e-15 0)
(3 -2.5015e-15 0)
(3 -1.34787e-15 0)
(3 -1.28307e-15 0)
(3 -8.70751e-16 0)
(3 -1.23047e-15 0)
(3 -1.67847e-15 0)
(3 -2.29153e-15 0)
(3 -2.30613e-15 0)
(3 -1.45136e-15 0)
(3 -1.0092e-15 0)
(3 -5.23004e-16 0)
(3 2.75761e-16 0)
(3 6.98357e-16 0)
(3 -9.43261e-18 0)
(3 -9.04625e-16 0)
(3 -1.03478e-15 0)
(3 2.75545e-16 0)
(3 1.6284e-15 0)
(3 1.6316e-15 0)
(3 1.47452e-15 0)
(3 1.28115e-15 0)
(3 7.41501e-16 0)
(3 -5.30723e-16 0)
(3 -5.73501e-16 0)
(3 -3.88088e-16 0)
(3 -2.20928e-16 0)
(3 -6.30776e-17 0)
(3 -3.10355e-16 0)
(3 -5.22109e-16 0)
(3 -1.4552e-16 0)
(3 3.36997e-16 0)
(3 1.18962e-16 0)
(3 1.58402e-17 0)
(3 6.6197e-16 0)
(3 3.19539e-16 0)
(3 -1.65076e-15 0)
(3 -2.0771e-15 0)
(3 -1.09366e-15 0)
(3 -1.05773e-15 0)
(3 -1.03253e-15 0)
(3 2.5683e-16 0)
(3 1.70423e-15 0)
(3 1.36204e-15 0)
(3 7.71517e-16 0)
(3 -3.04658e-17 0)
(3 2.9676e-17 0)
(3 -3.42561e-16 0)
(3 -6.1813e-16 0)
(3 -7.97521e-16 0)
(3 -1.22607e-15 0)
(3 -1.34021e-15 0)
(3 -1.40894e-15 0)
(3 -1.28238e-15 0)
(3 -4.82312e-16 0)
(3 -1.63622e-17 0)
(3 4.02196e-17 0)
(3 -4.82725e-17 0)
(3 -1.34872e-16 0)
(3 -7.14153e-17 0)
(3 1.08694e-16 0)
(3 6.89445e-16 0)
(3 4.41371e-16 0)
(3 4.10661e-16 0)
(3 3.31486e-16 0)
(3 5.51807e-16 0)
(3 2.91018e-16 0)
(3 1.33478e-15 0)
(3 2.50818e-15 0)
(3 2.36466e-15 0)
(3 2.31298e-15 0)
(3 1.73477e-15 0)
(3 9.89124e-16 0)
(3 -2.59332e-16 0)
(3 -3.65668e-16 0)
(3 -4.98966e-16 0)
(3 -6.20487e-16 0)
(3 -6.07566e-16 0)
(3 -8.39375e-16 0)
(3 -2.21356e-17 0)
(3 -3.35918e-16 0)
(3 3.8708e-17 0)
(3 7.31212e-16 0)
(3 9.22886e-16 0)
(3 9.8082e-16 0)
(3 2.76136e-16 0)
(3 -1.05464e-16 0)
(3 4.18959e-16 0)
(3 1.6113e-15 0)
(3 1.98748e-15 0)
(3 1.9024e-15 0)
(3 1.93172e-15 0)
(3 2.17759e-15 0)
(3 -6.80211e-16 0)
(3 -2.06382e-15 0)
(3 -1.9008e-15 0)
(3 -2.89586e-15 0)
(3 -2.86286e-15 0)
(3 -2.95798e-15 0)
(3 -3.04401e-15 0)
(3 -3.27497e-15 0)
(3 -3.94423e-15 0)
(3 -3.90943e-15 0)
(3 -3.59595e-15 0)
(3 -2.80636e-15 0)
(3 -2.39178e-15 0)
(3 -3.43554e-16 0)
(3 5.48028e-16 0)
(3 1.64112e-15 0)
(3 1.70593e-15 0)
(3 6.61404e-16 0)
(3 -1.00504e-15 0)
(3 -1.39901e-15 0)
(3 -4.3216e-16 0)
(3 5.06601e-16 0)
(3 5.52258e-16 0)
(3 1.75965e-16 0)
(3 -1.72174e-17 0)
(3 -2.61868e-16 0)
(3 -1.03534e-15 0)
(3 -1.45958e-15 0)
(3 -1.70773e-15 0)
(3 -1.74764e-15 0)
(3 -1.31071e-15 0)
(3 -9.12214e-16 0)
(3 -3.60078e-16 0)
(3 3.16169e-16 0)
(3 3.86085e-16 0)
(3 5.25637e-16 0)
(3 1.21409e-15 0)
(3 1.25942e-15 0)
(3 -7.73579e-17 0)
(3 -1.60931e-15 0)
(3 -2.06886e-15 0)
(3 -1.91389e-15 0)
(3 -1.78299e-15 0)
(3 -8.24981e-16 0)
(3 4.57631e-16 0)
(3 2.04135e-15 0)
(3 2.55895e-15 0)
(3 2.43988e-15 0)
(3 2.66376e-15 0)
(3 2.24843e-15 0)
(3 7.32617e-16 0)
(3 -3.03605e-16 0)
(3 -8.95091e-16 0)
(3 -1.17076e-15 0)
(3 -1.28309e-15 0)
(3 -1.48907e-15 0)
(3 -1.14052e-15 0)
(3 4.60014e-16 0)
(3 1.18975e-16 0)
(3 -3.31004e-16 0)
(3 -9.05322e-16 0)
(3 -8.09924e-16 0)
(3 -3.59359e-16 0)
(3 -3.16721e-16 0)
(3 -4.88951e-16 0)
(3 -5.15248e-16 0)
(3 1.79499e-16 0)
(3 2.82694e-16 0)
(3 3.88137e-16 0)
(3 2.68574e-16 0)
(3 3.92059e-16 0)
(3 5.7963e-16 0)
(3 1.9523e-16 0)
(3 -4.81861e-16 0)
(3 -6.62077e-16 0)
(3 -5.41696e-16 0)
(3 -8.69396e-16 0)
(3 -1.03981e-15 0)
(3 -1.13179e-15 0)
(3 -7.48288e-16 0)
(3 5.81669e-17 0)
(3 7.12864e-16 0)
(3 9.20596e-16 0)
(3 1.2641e-15 0)
(3 2.20872e-15 0)
(3 1.92131e-15 0)
(3 1.42494e-15 0)
(3 1.82906e-16 0)
(3 -2.11685e-16 0)
(3 -5.0295e-16 0)
(3 -8.35481e-16 0)
(3 -1.11453e-15 0)
(3 -1.07854e-15 0)
(3 -4.49721e-16 0)
(3 5.95851e-16 0)
(3 3.23439e-16 0)
(3 -1.54768e-15 0)
(3 -4.12834e-15 0)
(3 -5.0024e-15 0)
(3 -4.85892e-15 0)
(3 -3.18068e-15 0)
(3 -2.41037e-15 0)
(3 -2.5808e-15 0)
(3 -3.73367e-15 0)
(3 -4.4043e-15 0)
(3 -3.73778e-15 0)
(3 -2.03573e-15 0)
(3 2.40796e-16 0)
(3 1.12015e-15 0)
(3 4.35847e-16 0)
(3 6.52902e-17 0)
(3 -2.39394e-16 0)
(3 -2.76821e-16 0)
(3 -3.1171e-16 0)
(3 -9.91345e-17 0)
(3 -1.29406e-16 0)
(3 1.26732e-16 0)
(3 7.91808e-16 0)
(3 1.09971e-15 0)
(3 1.13284e-15 0)
(3 4.19756e-16 0)
(3 5.66068e-16 0)
(3 4.36287e-16 0)
(3 -2.04778e-16 0)
(3 -1.12072e-15 0)
(3 -1.42867e-15 0)
(3 -1.94236e-15 0)
(3 -2.41694e-15 0)
(3 -1.59976e-15 0)
(3 -1.05489e-15 0)
(3 -1.0347e-15 0)
(3 -7.6563e-16 0)
(3 -1.32984e-16 0)
(3 -1.73989e-16 0)
(3 -1.14376e-15 0)
(3 -1.6423e-15 0)
(3 -1.29267e-15 0)
(3 -1.12986e-15 0)
(3 -5.93887e-16 0)
(3 8.19641e-17 0)
(3 8.88719e-16 0)
(3 1.46792e-15 0)
(3 2.57014e-15 0)
(3 3.18319e-15 0)
(3 4.23024e-15 0)
(3 3.54275e-15 0)
(3 2.30242e-15 0)
(3 -4.63171e-16 0)
(3 -1.88988e-15 0)
(3 -1.66001e-15 0)
(3 -1.86922e-15 0)
(3 -1.78441e-15 0)
(3 -2.18146e-15 0)
(3 -1.54036e-15 0)
(3 1.49677e-16 0)
(3 4.78938e-16 0)
(3 -5.17013e-17 0)
(3 -2.06971e-16 0)
(3 -2.53194e-16 0)
(3 -9.23148e-16 0)
(3 -1.5052e-15 0)
(3 -1.48779e-15 0)
(3 1.39937e-16 0)
(3 9.75509e-16 0)
(3 9.94691e-16 0)
(3 8.45812e-16 0)
(3 -2.09772e-16 0)
(3 -1.34978e-15 0)
(3 -2.11651e-15 0)
(3 -2.83697e-15 0)
(3 -2.73335e-15 0)
(3 -2.29721e-15 0)
(3 -2.13195e-15 0)
(3 -2.03436e-15 0)
(3 -1.3342e-15 0)
(3 1.23916e-16 0)
(3 4.75242e-16 0)
(3 1.11331e-15 0)
(3 6.80136e-16 0)
(3 1.25907e-15 0)
(3 1.40733e-15 0)
(3 1.69669e-15 0)
(3 1.60557e-15 0)
(3 1.08633e-15 0)
(3 1.2714e-16 0)
(3 -8.12898e-16 0)
(3 -2.11537e-15 0)
(3 -2.61474e-15 0)
(3 -2.03382e-15 0)
(3 -1.25531e-15 0)
(3 -1.1073e-15 0)
(3 -1.35611e-15 0)
(3 -1.77534e-15 0)
(3 -3.73308e-15 0)
(3 -4.36191e-15 0)
(3 -4.177e-15 0)
(3 -3.62443e-15 0)
(3 -2.6003e-15 0)
(3 -2.75403e-15 0)
(3 -3.62515e-15 0)
(3 -3.55847e-15 0)
(3 -2.59223e-15 0)
(3 -2.11862e-15 0)
(3 -1.40934e-15 0)
(3 1.49318e-16 0)
(3 9.58538e-16 0)
(3 1.33298e-15 0)
(3 9.90264e-16 0)
(3 8.79929e-17 0)
(3 -2.9146e-16 0)
(3 3.02673e-16 0)
(3 6.45405e-16 0)
(3 1.17031e-15 0)
(3 1.37481e-15 0)
(3 2.2278e-15 0)
(3 2.40955e-15 0)
(3 2.0976e-15 0)
(3 1.88422e-15 0)
(3 2.29647e-15 0)
(3 1.45569e-15 0)
(3 5.47936e-16 0)
(3 -5.48938e-16 0)
(3 -1.37157e-15 0)
(3 -1.86094e-15 0)
(3 -1.48463e-15 0)
(3 -1.49476e-15 0)
(3 -1.52268e-15 0)
(3 -2.25359e-15 0)
(3 -2.29168e-15 0)
(3 -2.13316e-15 0)
(3 -1.04915e-15 0)
(3 -8.10913e-16 0)
(3 3.12363e-16 0)
(3 9.17153e-16 0)
(3 7.37962e-16 0)
(3 1.1844e-16 0)
(3 -3.06456e-16 0)
(3 -5.54961e-16 0)
(3 8.55063e-16 0)
(3 2.83382e-15 0)
(3 3.86059e-15 0)
(3 3.72005e-15 0)
(3 2.70763e-15 0)
(3 1.77211e-15 0)
(3 9.15906e-16 0)
(3 5.31207e-16 0)
(3 2.13347e-16 0)
(3 1.38912e-16 0)
(3 -8.08824e-16 0)
(3 -1.87454e-15 0)
(3 1.4069e-16 0)
(3 2.90264e-16 0)
(3 6.171e-16 0)
(3 2.21104e-16 0)
(3 4.23308e-16 0)
(3 5.85353e-16 0)
(3 8.34404e-16 0)
(3 2.86387e-16 0)
(3 1.26729e-16 0)
(3 1.6183e-16 0)
(3 -7.56506e-17 0)
(3 1.16025e-16 0)
(3 -3.67853e-16 0)
(3 -1.17502e-15 0)
(3 -1.64131e-15 0)
(3 -2.26189e-15 0)
(3 -2.71621e-15 0)
(3 -2.41449e-15 0)
(3 -2.17173e-15 0)
(3 -1.57999e-15 0)
(3 -1.701e-16 0)
(3 1.24849e-16 0)
(3 9.16183e-16 0)
(3 1.13972e-15 0)
(3 1.53849e-15 0)
(3 1.80466e-15 0)
(3 1.39996e-15 0)
(3 1.26354e-15 0)
(3 9.54583e-16 0)
(3 -2.55681e-17 0)
(3 -5.43596e-16 0)
(3 -5.97265e-16 0)
(3 -3.8361e-16 0)
(3 -8.62586e-16 0)
(3 -1.35108e-15 0)
(3 -2.62746e-15 0)
(3 -4.60585e-15 0)
(3 -4.29056e-15 0)
(3 -4.05547e-15 0)
(3 -3.62322e-15 0)
(3 -4.15963e-15 0)
(3 -2.78612e-15 0)
(3 -1.59084e-15 0)
(3 -9.02697e-16 0)
(3 -7.22116e-16 0)
(3 -7.80351e-16 0)
(3 1.10759e-16 0)
(3 3.25215e-16 0)
(3 -5.3601e-17 0)
(3 -1.79704e-16 0)
(3 -8.6258e-17 0)
(3 4.77438e-16 0)
(3 7.06231e-16 0)
(3 3.1199e-16 0)
(3 -4.92334e-17 0)
(3 -5.01993e-16 0)
(3 -8.06596e-17 0)
(3 6.17817e-16 0)
(3 1.81463e-15 0)
(3 1.74074e-15 0)
(3 1.47032e-15 0)
(3 1.52261e-15 0)
(3 2.93575e-15 0)
(3 2.5134e-15 0)
(3 1.0602e-15 0)
(3 -7.18313e-16 0)
(3 -1.74357e-15 0)
(3 -2.16059e-15 0)
(3 -1.85915e-15 0)
(3 -8.37899e-16 0)
(3 -6.56163e-16 0)
(3 -8.36154e-16 0)
(3 -1.41266e-15 0)
(3 -1.87864e-15 0)
(3 -2.60434e-15 0)
(3 -3.05824e-15 0)
(3 -2.45314e-17 0)
(3 1.8106e-15 0)
(3 2.04329e-15 0)
(3 1.29117e-15 0)
(3 8.35439e-16 0)
(3 3.55045e-16 0)
(3 -6.82362e-16 0)
(3 -8.34025e-17 0)
(3 1.01877e-15 0)
(3 2.5378e-15 0)
(3 3.79402e-15 0)
(3 3.81829e-15 0)
(3 4.62972e-15 0)
(3 5.33069e-15 0)
(3 6.1841e-15 0)
(3 6.42014e-15 0)
(3 6.31782e-15 0)
(3 3.98693e-15 0)
(3 1.92217e-15 0)
(3 2.3537e-16 0)
(3 -2.67812e-16 0)
(3 -2.03547e-16 0)
(3 4.25938e-16 0)
(3 8.07744e-16 0)
(3 6.72226e-16 0)
(3 6.12896e-16 0)
(3 5.90367e-16 0)
(3 3.7247e-16 0)
(3 2.6817e-16 0)
(3 3.45734e-17 0)
(3 4.66041e-17 0)
(3 -8.44332e-17 0)
(3 -9.13127e-17 0)
(3 -2.55674e-16 0)
(3 -4.31287e-16 0)
(3 -8.02717e-16 0)
(3 -9.51746e-16 0)
(3 -9.74052e-16 0)
(3 -1.12453e-15 0)
(3 -7.85388e-16 0)
(3 -6.38816e-16 0)
(3 -5.83606e-16 0)
(3 2.42194e-16 0)
(3 4.07877e-16 0)
(3 7.68277e-16 0)
(3 5.77345e-16 0)
(3 4.24049e-16 0)
(3 -4.62134e-16 0)
(3 -2.06705e-15 0)
(3 -3.7357e-15 0)
(3 -3.45626e-15 0)
(3 -1.14739e-15 0)
(3 1.47344e-17 0)
(3 1.3534e-16 0)
(3 -3.63058e-18 0)
(3 -9.4605e-16 0)
(3 -2.64751e-15 0)
(3 -3.33984e-15 0)
(3 -3.14666e-15 0)
(3 -2.15682e-15 0)
(3 -1.74177e-15 0)
(3 -8.53981e-16 0)
(3 8.34616e-16 0)
(3 1.90507e-15 0)
(3 2.82077e-15 0)
(3 3.31056e-15 0)
(3 3.36715e-15 0)
(3 2.68489e-15 0)
(3 1.7043e-15 0)
(3 1.19769e-15 0)
(3 2.98708e-16 0)
(3 -6.9743e-16 0)
(3 -9.44155e-16 0)
(3 -7.70187e-16 0)
(3 1.07906e-16 0)
(3 -1.87979e-16 0)
(3 -3.6213e-16 0)
(3 -2.56373e-16 0)
(3 4.61892e-16 0)
(3 1.12314e-15 0)
(3 2.48604e-16 0)
(3 4.16661e-16 0)
(3 1.16768e-15 0)
(3 2.18277e-15 0)
(3 3.62472e-16 0)
(3 -2.07135e-16 0)
(3 -2.85943e-16 0)
(3 -2.95349e-16 0)
(3 -1.71448e-15 0)
(3 -2.4605e-15 0)
(3 -2.91562e-15 0)
(3 -2.8367e-15 0)
(3 -2.28678e-15 0)
(3 -1.86979e-15 0)
(3 -2.11165e-15 0)
(3 -2.04099e-15 0)
(3 -1.32443e-15 0)
(3 2.46506e-16 0)
(3 2.07306e-15 0)
(3 2.14673e-15 0)
(3 2.25272e-15 0)
(3 1.93577e-15 0)
(3 1.4977e-15 0)
(3 2.12605e-15 0)
(3 2.85715e-15 0)
(3 3.63106e-15 0)
(3 3.44849e-15 0)
(3 3.08557e-15 0)
(3 3.92406e-15 0)
(3 6.64599e-15 0)
(3 6.94686e-15 0)
(3 5.60132e-15 0)
(3 4.25279e-15 0)
(3 1.84693e-15 0)
(3 9.71547e-16 0)
(3 -4.12663e-16 0)
(3 -4.60069e-16 0)
(3 -4.93275e-16 0)
(3 -1.4834e-16 0)
(3 3.06404e-16 0)
(3 7.5602e-16 0)
(3 5.7206e-16 0)
(3 1.63388e-16 0)
(3 3.10407e-16 0)
(3 7.09942e-16 0)
(3 1.08442e-15 0)
(3 1.58888e-15 0)
(3 3.89367e-16 0)
(3 -3.09445e-16 0)
(3 -5.07668e-16 0)
(3 -2.01406e-16 0)
(3 3.42085e-16 0)
(3 2.62398e-16 0)
(3 -6.53334e-16 0)
(3 -1.27624e-15 0)
(3 -1.43933e-15 0)
(3 -7.87854e-16 0)
(3 4.07229e-16 0)
(3 5.66264e-16 0)
(3 1.51433e-15 0)
(3 1.43479e-15 0)
(3 8.33467e-16 0)
(3 -4.17645e-17 0)
(3 -2.16723e-15 0)
(3 -3.69888e-15 0)
(3 -3.54089e-15 0)
(3 -1.83584e-15 0)
(3 -1.41112e-15 0)
(3 -1.99805e-15 0)
(3 -1.00227e-15 0)
(3 -4.90858e-16 0)
(3 3.31471e-17 0)
(3 8.41016e-16 0)
(3 5.85859e-16 0)
(3 -1.15776e-16 0)
(3 -2.11774e-16 0)
(3 5.01915e-16 0)
(3 9.79597e-16 0)
(3 1.63983e-15 0)
(3 1.31153e-15 0)
(3 2.77395e-15 0)
(3 3.13039e-15 0)
(3 2.93756e-15 0)
(3 2.13089e-15 0)
(3 2.26865e-16 0)
(3 -6.09304e-16 0)
(3 -1.17874e-15 0)
(3 -1.80232e-15 0)
(3 -1.31827e-15 0)
(3 -7.91957e-16 0)
(3 9.72095e-16 0)
(3 1.13406e-15 0)
(3 6.80882e-16 0)
(3 -1.51671e-17 0)
(3 -3.86236e-16 0)
(3 -1.65942e-15 0)
(3 -2.49727e-15 0)
(3 -1.73311e-15 0)
(3 -1.15539e-15 0)
(3 5.4711e-18 0)
(3 1.05236e-15 0)
(3 1.42534e-15 0)
(3 1.13883e-15 0)
(3 -9.64399e-17 0)
(3 -8.63839e-16 0)
(3 -1.64529e-15 0)
(3 -1.87126e-15 0)
(3 -1.4841e-15 0)
(3 -9.94285e-16 0)
(3 -1.94167e-17 0)
(3 4.98671e-16 0)
(3 -7.41667e-16 0)
(3 -1.16893e-15 0)
(3 -7.03795e-16 0)
(3 6.15141e-17 0)
(3 8.62105e-16 0)
(3 8.80927e-16 0)
(3 1.19182e-15 0)
(3 1.88528e-15 0)
(3 1.53981e-15 0)
(3 1.33543e-15 0)
(3 1.34519e-15 0)
(3 1.94588e-15 0)
(3 2.59981e-15 0)
(3 4.03188e-15 0)
(3 4.54923e-15 0)
(3 5.1459e-15 0)
(3 3.09582e-15 0)
(3 1.78167e-15 0)
(3 9.48367e-16 0)
(3 2.63834e-16 0)
(3 -5.57743e-16 0)
(3 5.27997e-17 0)
(3 5.83529e-17 0)
(3 2.16332e-17 0)
(3 -3.79096e-16 0)
(3 -3.12745e-16 0)
(3 -1.73101e-16 0)
(3 5.07614e-16 0)
(3 7.70406e-16 0)
(3 8.3647e-16 0)
(3 9.53549e-16 0)
(3 1.32961e-15 0)
(3 1.48928e-15 0)
(3 1.48572e-15 0)
(3 1.52869e-15 0)
(3 1.17169e-15 0)
(3 3.31681e-16 0)
(3 -2.03564e-16 0)
(3 -6.72253e-16 0)
(3 -7.77843e-16 0)
(3 -1.31583e-15 0)
(3 -1.53727e-15 0)
(3 -1.47215e-15 0)
(3 -3.60168e-16 0)
(3 9.68639e-16 0)
(3 1.11541e-15 0)
(3 1.52804e-15 0)
(3 2.88947e-16 0)
(3 -2.01464e-15 0)
(3 -1.69397e-15 0)
(3 -2.71504e-16 0)
(3 1.2186e-16 0)
(3 -3.03555e-16 0)
(3 -1.65898e-15 0)
(3 -1.53026e-15 0)
(3 -5.41716e-16 0)
(3 9.45278e-16 0)
(3 1.3897e-15 0)
(3 1.34302e-15 0)
(3 9.05353e-16 0)
(3 1.18182e-15 0)
(3 1.51623e-15 0)
(3 1.47737e-15 0)
(3 1.20419e-15 0)
(3 1.21175e-15 0)
(3 2.09908e-15 0)
(3 2.64231e-15 0)
(3 2.71939e-15 0)
(3 1.72267e-15 0)
(3 5.22485e-16 0)
(3 -3.49667e-18 0)
(3 -1.42246e-15 0)
(3 -1.94455e-15 0)
(3 -1.68144e-15 0)
(3 -1.79755e-15 0)
(3 -1.87891e-16 0)
(3 2.00579e-15 0)
(3 2.41233e-15 0)
(3 1.02821e-15 0)
(3 -5.32889e-16 0)
(3 -3.08424e-15 0)
(3 -4.15301e-15 0)
(3 -3.76693e-15 0)
(3 -2.37724e-15 0)
(3 -1.2519e-15 0)
(3 -3.5102e-16 0)
(3 1.04548e-15 0)
(3 8.6967e-16 0)
(3 1.81731e-16 0)
(3 2.84896e-16 0)
(3 -1.35932e-16 0)
(3 9.13679e-17 0)
(3 8.20428e-17 0)
(3 -1.93011e-16 0)
(3 -3.81883e-16 0)
(3 -1.37276e-16 0)
(3 -4.0397e-16 0)
(3 -7.46299e-16 0)
(3 -9.48543e-16 0)
(3 -1.90021e-15 0)
(3 -2.48315e-15 0)
(3 -1.47159e-15 0)
(3 -1.93639e-16 0)
(3 3.01374e-16 0)
(3 -4.78397e-16 0)
(3 -1.50754e-15 0)
(3 -9.08124e-16 0)
(3 3.95959e-16 0)
(3 1.6222e-15 0)
(3 1.81522e-15 0)
(3 1.19966e-15 0)
(3 1.9295e-15 0)
(3 1.47513e-15 0)
(3 8.22243e-16 0)
(3 3.96002e-16 0)
(3 8.20051e-17 0)
(3 3.58741e-16 0)
(3 3.46479e-16 0)
(3 3.2293e-16 0)
(3 6.23036e-16 0)
(3 2.81653e-16 0)
(3 -4.59563e-16 0)
(3 -6.29592e-16 0)
(3 -2.10543e-16 0)
(3 3.4343e-17 0)
(3 -8.25279e-16 0)
(3 -1.23336e-15 0)
(3 -1.34617e-15 0)
(3 -6.57801e-16 0)
(3 -4.12969e-16 0)
(3 2.27652e-16 0)
(3 -1.5339e-16 0)
(3 -9.44144e-16 0)
(3 -1.13995e-15 0)
(3 -3.39085e-16 0)
(3 9.26442e-17 0)
(3 -3.77704e-16 0)
(3 -5.37654e-16 0)
(3 -1.41764e-15 0)
(3 -1.34724e-15 0)
(3 -1.31767e-15 0)
(3 -1.31633e-15 0)
(3 -1.01884e-15 0)
(3 -3.63085e-16 0)
(3 -1.95647e-17 0)
(3 1.44201e-15 0)
(3 2.18615e-15 0)
(3 1.48556e-15 0)
(3 -1.88647e-16 0)
(3 -1.12777e-15 0)
(3 -1.10181e-15 0)
(3 -5.88174e-16 0)
(3 -9.13382e-18 0)
(3 1.82089e-16 0)
(3 2.29966e-16 0)
(3 6.59031e-17 0)
(3 -3.72066e-16 0)
(3 -3.62787e-16 0)
(3 -2.78389e-16 0)
(3 -2.61987e-16 0)
(3 2.01172e-16 0)
(3 5.57851e-16 0)
(3 1.77656e-15 0)
(3 1.49857e-15 0)
(3 5.59454e-16 0)
(3 5.83266e-16 0)
(3 9.64902e-16 0)
(3 -5.51948e-16 0)
(3 -1.1026e-15 0)
(3 -2.05182e-15 0)
(3 -1.97357e-15 0)
(3 -1.25211e-15 0)
(3 -2.72119e-16 0)
(3 -3.01512e-16 0)
(3 -1.55798e-15 0)
(3 -2.13884e-15 0)
(3 -2.232e-15 0)
(3 -2.51292e-15 0)
(3 -2.81885e-15 0)
(3 -2.63984e-15 0)
(3 -2.66568e-15 0)
(3 -2.93191e-15 0)
(3 -1.54008e-15 0)
(3 -5.79748e-17 0)
(3 2.16514e-16 0)
(3 -2.76568e-16 0)
(3 -3.47514e-16 0)
(3 -7.22176e-16 0)
(3 -1.1965e-15 0)
(3 -1.19815e-15 0)
(3 -7.64187e-16 0)
(3 -1.05711e-16 0)
(3 -9.83412e-16 0)
(3 -1.10972e-15 0)
(3 -1.71943e-15 0)
(3 -2.43122e-15 0)
(3 -2.19215e-15 0)
(3 -6.09585e-16 0)
(3 -7.85385e-17 0)
(3 -2.10098e-16 0)
(3 -5.82528e-16 0)
(3 -8.35516e-16 0)
(3 -2.99412e-16 0)
(3 3.48786e-16 0)
(3 1.07846e-15 0)
(3 6.31873e-16 0)
(3 -9.57007e-16 0)
(3 -9.55163e-16 0)
(3 -7.33587e-17 0)
(3 5.44416e-16 0)
(3 1.28599e-15 0)
(3 1.4523e-15 0)
(3 1.79616e-15 0)
(3 1.06607e-16 0)
(3 4.26428e-17 0)
(3 4.01947e-16 0)
(3 5.9557e-16 0)
(3 4.75709e-16 0)
(3 1.9353e-16 0)
(3 -1.4789e-17 0)
(3 -4.84716e-16 0)
(3 -1.85055e-15 0)
(3 -2.64823e-15 0)
(3 -2.60148e-15 0)
(3 -2.27135e-15 0)
(3 -2.33176e-15 0)
(3 -2.26286e-15 0)
(3 -1.3155e-15 0)
(3 1.61679e-16 0)
(3 1.74883e-15 0)
(3 2.39717e-15 0)
(3 2.22204e-15 0)
(3 1.90326e-15 0)
(3 1.15537e-15 0)
(3 3.67989e-16 0)
(3 -1.26816e-15 0)
(3 -1.86461e-15 0)
(3 -2.08111e-15 0)
(3 -2.38033e-15 0)
(3 -1.25819e-15 0)
(3 1.47089e-15 0)
(3 2.09167e-15 0)
(3 2.42419e-15 0)
(3 6.82653e-16 0)
(3 -6.75393e-16 0)
(3 -2.06243e-15 0)
(3 -3.13041e-15 0)
(3 -3.44266e-15 0)
(3 -3.37613e-15 0)
(3 -2.39847e-15 0)
(3 -2.45339e-16 0)
(3 -2.7442e-16 0)
(3 -4.02083e-16 0)
(3 -4.2885e-16 0)
(3 2.60194e-16 0)
(3 4.94465e-16 0)
(3 9.60473e-16 0)
(3 6.86541e-16 0)
(3 6.8526e-16 0)
(3 7.81505e-16 0)
(3 1.29196e-15 0)
(3 1.23246e-15 0)
(3 7.00335e-16 0)
(3 2.45546e-16 0)
(3 -2.62513e-16 0)
(3 -8.06323e-16 0)
(3 -7.71728e-16 0)
(3 -1.02746e-15 0)
(3 -1.16371e-15 0)
(3 7.73037e-19 0)
(3 3.87459e-16 0)
(3 3.10394e-16 0)
(3 5.81078e-16 0)
(3 3.83178e-16 0)
(3 2.39184e-17 0)
(3 -1.11216e-15 0)
(3 -1.94404e-15 0)
(3 -2.51442e-15 0)
(3 -9.62878e-16 0)
(3 3.67897e-16 0)
(3 2.95903e-16 0)
(3 9.07453e-17 0)
(3 -3.71589e-16 0)
(3 -6.56155e-16 0)
(3 1.79871e-16 0)
(3 9.39373e-16 0)
(3 1.23953e-15 0)
(3 4.08163e-16 0)
(3 -1.51092e-15 0)
(3 -2.19737e-15 0)
(3 -1.8729e-15 0)
(3 -1.50972e-15 0)
(3 -7.87893e-16 0)
(3 -1.35853e-15 0)
(3 -1.70545e-15 0)
(3 -1.48874e-15 0)
(3 -3.4363e-16 0)
(3 -2.19376e-16 0)
(3 -8.34852e-16 0)
(3 -1.2477e-15 0)
(3 -1.20498e-15 0)
(3 -1.04049e-15 0)
(3 -9.92619e-16 0)
(3 -1.51763e-15 0)
(3 -1.13562e-15 0)
(3 -5.27067e-16 0)
(3 1.3266e-16 0)
(3 6.35149e-16 0)
(3 8.51413e-16 0)
(3 -3.15264e-16 0)
(3 -1.53385e-16 0)
(3 -2.0572e-16 0)
(3 1.31161e-16 0)
(3 6.46659e-16 0)
(3 2.00637e-16 0)
(3 -6.15542e-16 0)
(3 -1.17527e-15 0)
(3 -1.0675e-15 0)
(3 -1.08299e-15 0)
(3 -1.46608e-15 0)
(3 -1.48062e-15 0)
(3 -6.75216e-16 0)
(3 -9.61621e-16 0)
(3 2.94858e-17 0)
(3 1.77784e-15 0)
(3 2.9305e-15 0)
(3 3.85535e-15 0)
(3 4.53393e-15 0)
(3 3.01894e-15 0)
(3 1.7217e-15 0)
(3 -6.85546e-16 0)
(3 -1.5321e-15 0)
(3 -1.87963e-15 0)
(3 -1.84891e-15 0)
(3 -1.48625e-15 0)
(3 -7.14396e-16 0)
(3 1.98932e-16 0)
(3 6.66692e-16 0)
(3 3.21262e-16 0)
(3 -5.26731e-16 0)
(3 -1.44226e-15 0)
(3 -2.39272e-15 0)
(3 -3.1566e-15 0)
(3 -4.10113e-15 0)
(3 -4.38288e-15 0)
(3 -3.51509e-15 0)
(3 -1.81136e-15 0)
(3 9.53685e-16 0)
(3 1.48568e-15 0)
(3 2.87025e-15 0)
(3 3.08303e-15 0)
(3 3.04222e-15 0)
(3 2.82627e-15 0)
(3 2.42472e-15 0)
(3 2.19105e-15 0)
(3 2.36588e-15 0)
(3 2.94057e-15 0)
(3 2.38643e-15 0)
(3 1.33403e-15 0)
(3 1.04236e-16 0)
(3 -5.31986e-16 0)
(3 -5.76023e-16 0)
(3 -9.19138e-16 0)
(3 -6.77676e-16 0)
(3 -7.48526e-16 0)
(3 1.51785e-17 0)
(3 1.68352e-15 0)
(3 2.78497e-15 0)
(3 2.58413e-15 0)
(3 2.22749e-15 0)
(3 2.02088e-15 0)
(3 -4.56786e-16 0)
(3 -2.02422e-15 0)
(3 -1.60629e-15 0)
(3 -1.46469e-15 0)
(3 -5.14339e-17 0)
(3 5.48779e-16 0)
(3 6.23436e-16 0)
(3 -1.4413e-16 0)
(3 -4.49481e-16 0)
(3 -6.93131e-17 0)
(3 1.25077e-15 0)
(3 1.76526e-15 0)
(3 -5.986e-16 0)
(3 -1.35442e-15 0)
(3 -1.67076e-15 0)
(3 -1.3402e-15 0)
(3 -4.55476e-16 0)
(3 -1.33108e-15 0)
(3 -2.08609e-15 0)
(3 -2.44187e-15 0)
(3 -2.00458e-15 0)
(3 -1.35171e-15 0)
(3 -2.19993e-15 0)
(3 -2.79118e-15 0)
(3 -3.09207e-15 0)
(3 -2.40554e-15 0)
(3 -2.47084e-15 0)
(3 -3.18768e-15 0)
(3 -3.64727e-15 0)
(3 -3.7322e-15 0)
(3 -3.69843e-15 0)
(3 -3.59643e-15 0)
(3 -3.02262e-15 0)
(3 -2.77841e-15 0)
(3 -1.12503e-16 0)
(3 -2.34624e-16 0)
(3 -1.61908e-16 0)
(3 1.30034e-16 0)
(3 2.05192e-16 0)
(3 -4.6767e-16 0)
(3 -6.1555e-16 0)
(3 -8.7623e-16 0)
(3 -1.08863e-15 0)
(3 -1.42517e-15 0)
(3 -1.21166e-15 0)
(3 -7.70707e-16 0)
(3 8.81317e-17 0)
(3 6.99486e-16 0)
(3 1.34484e-15 0)
(3 1.44323e-15 0)
(3 1.67847e-15 0)
(3 2.09906e-15 0)
(3 2.39788e-15 0)
(3 2.0721e-15 0)
(3 1.77109e-15 0)
(3 6.01864e-16 0)
(3 4.52005e-16 0)
(3 -8.73609e-16 0)
(3 -1.18953e-15 0)
(3 -1.28686e-15 0)
(3 -7.65361e-16 0)
(3 -6.86555e-16 0)
(3 -7.15937e-16 0)
(3 -1.35949e-15 0)
(3 -1.59184e-15 0)
(3 -1.71775e-15 0)
(3 -5.63796e-16 0)
(3 -2.80162e-16 0)
(3 1.52876e-16 0)
(3 8.48455e-16 0)
(3 1.12042e-15 0)
(3 1.6436e-15 0)
(3 2.13584e-15 0)
(3 2.05913e-15 0)
(3 2.50461e-15 0)
(3 2.6947e-15 0)
(3 2.74401e-15 0)
(3 2.11618e-15 0)
(3 1.23394e-15 0)
(3 9.04234e-16 0)
(3 1.26819e-15 0)
(3 8.84247e-16 0)
(3 2.49701e-16 0)
(3 -3.46012e-16 0)
(3 -7.16756e-16 0)
(3 -2.63055e-16 0)
(3 3.69714e-16 0)
(3 6.29874e-16 0)
(3 1.14633e-15 0)