/*--------------------------------*- C++ -*----------------------------------*\
  =========                 |
  \\      /  F ield         | OpenFOAM: The Open Source CFD Toolbox
   \\    /   O peration     | Website:  https://openfoam.org
    \\  /    A nd           | Version:  7
     \\/     M anipulation  |
\*---------------------------------------------------------------------------*/
FoamFile
{
    version     2.0;
    format      ascii;
    class       volVectorField;
    location    "2.2";
    object      U;
}
// * * * * * * * * * * * * * * * * * * * * * * * * * * * * * * * * * * * * * //

dimensions      [0 1 -1 0 0 0 0];

internalField   nonuniform List<vector> 
73728
(
(3 -3.2e-17 0)
(3 4.32253e-17 0)
(3 3.27816e-16 0)
(3 3.38571e-16 0)
(3 2.60807e-16 0)
(3 6.14901e-16 0)
(3 7.13593e-16 0)
(3 5.40941e-16 0)
(3 -1.33218e-17 0)
(3 -1.90669e-16 0)
(3 1.23525e-15 0)
(3 1.73808e-15 0)
(3 1.91038e-15 0)
(3 1.97247e-15 0)
(3 2.12998e-15 0)
(3 1.22185e-15 0)
(3 4.47278e-16 0)
(3 -3.02411e-17 0)
(3 -3.52123e-16 0)
(3 -3.82662e-16 0)
(3 -3.13422e-16 0)
(3 -3.15125e-16 0)
(3 -6.73017e-16 0)
(3 -4.84116e-16 0)
(3 9.62951e-17 0)
(3 5.01639e-16 0)
(3 1.11654e-15 0)
(3 1.13876e-15 0)
(3 1.2179e-15 0)
(3 7.98597e-16 0)
(3 7.20685e-16 0)
(3 1.10196e-15 0)
(3 8.64506e-16 0)
(3 9.998e-16 0)
(3 1.7687e-15 0)
(3 1.90027e-15 0)
(3 1.55208e-15 0)
(3 1.39187e-15 0)
(3 1.00065e-15 0)
(3 1.87199e-16 0)
(3 -1.95423e-16 0)
(3 -3.86463e-16 0)
(3 -5.46e-16 0)
(3 -6.7204e-16 0)
(3 -6.42767e-16 0)
(3 -3.21915e-16 0)
(3 -4.04973e-16 0)
(3 -7.21849e-16 0)
(3 -1.45801e-15 0)
(3 -1.08856e-15 0)
(3 -5.7468e-16 0)
(3 -6.91113e-16 0)
(3 -5.6875e-16 0)
(3 -3.739e-16 0)
(3 5.96884e-17 0)
(3 2.12013e-16 0)
(3 2.51459e-16 0)
(3 6.09024e-16 0)
(3 7.68773e-16 0)
(3 1.37945e-15 0)
(3 9.50058e-16 0)
(3 -7.99645e-16 0)
(3 -9.01447e-16 0)
(3 -1.09255e-15 0)
(3 -1.28177e-15 0)
(3 -2.57005e-15 0)
(3 -1.75963e-15 0)
(3 -3.02929e-16 0)
(3 -3.08985e-16 0)
(3 -5.59723e-17 0)
(3 9.0737e-16 0)
(3 1.09953e-15 0)
(3 9.32633e-16 0)
(3 9.34028e-16 0)
(3 9.54161e-16 0)
(3 1.47204e-15 0)
(3 1.73904e-15 0)
(3 1.39973e-15 0)
(3 1.04113e-15 0)
(3 1.6995e-16 0)
(3 -2.19907e-16 0)
(3 9.62928e-17 0)
(3 9.85719e-16 0)
(3 1.08794e-15 0)
(3 4.71444e-16 0)
(3 -4.12954e-16 0)
(3 -3.79629e-16 0)
(3 -1.18818e-16 0)
(3 -6.65902e-16 0)
(3 -1.24356e-15 0)
(3 -1.58424e-15 0)
(3 -1.91441e-15 0)
(3 -1.28072e-15 0)
(3 -8.15359e-16 0)
(3 -4.31743e-16 0)
(3 7.08293e-16 0)
(3 -2.0631e-17 0)
(3 1.99387e-16 0)
(3 3.5711e-16 0)
(3 1.37553e-16 0)
(3 6.98885e-16 0)
(3 9.71827e-16 0)
(3 8.87115e-16 0)
(3 5.10059e-16 0)
(3 3.36068e-16 0)
(3 -1.32372e-16 0)
(3 6.13592e-16 0)
(3 1.60664e-15 0)
(3 1.91169e-15 0)
(3 2.06475e-15 0)
(3 2.47228e-15 0)
(3 2.17644e-15 0)
(3 1.60316e-15 0)
(3 1.9771e-16 0)
(3 -2.15398e-16 0)
(3 -1.13029e-15 0)
(3 -1.08522e-15 0)
(3 -8.7868e-16 0)
(3 -8.94913e-16 0)
(3 3.33094e-16 0)
(3 1.89569e-15 0)
(3 2.44011e-15 0)
(3 2.2134e-15 0)
(3 1.8825e-15 0)
(3 9.27487e-16 0)
(3 6.64356e-16 0)
(3 4.398e-16 0)
(3 7.44179e-16 0)
(3 1.79499e-15 0)
(3 1.78315e-15 0)
(3 2.50008e-15 0)
(3 2.77292e-15 0)
(3 1.73425e-15 0)
(3 7.80265e-16 0)
(3 -2.60362e-16 0)
(3 -8.74545e-16 0)
(3 -7.59309e-16 0)
(3 -2.53957e-16 0)
(3 3.00824e-16 0)
(3 3.04964e-17 0)
(3 -4.82894e-16 0)
(3 -8.4674e-16 0)
(3 -9.50923e-16 0)
(3 -1.515e-15 0)
(3 -2.04194e-15 0)
(3 -1.48207e-15 0)
(3 -1.02574e-15 0)
(3 -6.26034e-16 0)
(3 3.11124e-17 0)
(3 -2.34976e-16 0)
(3 2.00767e-16 0)
(3 1.10784e-15 0)
(3 9.49295e-16 0)
(3 7.85025e-16 0)
(3 6.13804e-16 0)
(3 8.1019e-16 0)
(3 8.86284e-16 0)
(3 -4.36494e-16 0)
(3 -1.09972e-15 0)
(3 -2.32209e-15 0)
(3 -2.63043e-15 0)
(3 -2.65042e-15 0)
(3 -1.84473e-15 0)
(3 -3.78222e-16 0)
(3 1.49106e-15 0)
(3 2.22411e-15 0)
(3 2.92774e-15 0)
(3 3.05209e-15 0)
(3 2.70857e-15 0)
(3 1.93336e-15 0)
(3 2.82916e-15 0)
(3 3.46941e-15 0)
(3 4.00046e-15 0)
(3 4.21162e-15 0)
(3 3.37873e-15 0)
(3 1.71151e-15 0)
(3 1.0381e-15 0)
(3 2.31241e-16 0)
(3 4.71576e-16 0)
(3 5.24205e-16 0)
(3 3.77655e-16 0)
(3 1.10423e-16 0)
(3 -2.15813e-15 0)
(3 -2.89177e-15 0)
(3 -3.05413e-15 0)
(3 -3.07228e-15 0)
(3 -2.87598e-15 0)
(3 -2.59185e-15 0)
(3 -1.22291e-15 0)
(3 -2.16211e-16 0)
(3 7.78841e-16 0)
(3 1.08224e-15 0)
(3 1.96979e-17 0)
(3 1.37598e-17 0)
(3 -4.43154e-17 0)
(3 -3.88196e-16 0)
(3 -3.48317e-16 0)
(3 -4.3084e-16 0)
(3 -3.17887e-16 0)
(3 -2.07356e-16 0)
(3 -4.82868e-16 0)
(3 -1.10786e-15 0)
(3 -1.00102e-15 0)
(3 -6.9631e-16 0)
(3 -1.74898e-16 0)
(3 1.4492e-15 0)
(3 1.59915e-15 0)
(3 1.91058e-15 0)
(3 1.4813e-15 0)
(3 8.48683e-16 0)
(3 4.2314e-16 0)
(3 -1.33907e-16 0)
(3 -5.82819e-16 0)
(3 -5.45387e-16 0)
(3 -9.43895e-18 0)
(3 1.43063e-15 0)
(3 2.45626e-15 0)
(3 2.71689e-15 0)
(3 2.7222e-15 0)
(3 2.58178e-15 0)
(3 2.01377e-15 0)
(3 1.41067e-15 0)
(3 1.52944e-15 0)
(3 8.75676e-16 0)
(3 8.71256e-16 0)
(3 9.66437e-16 0)
(3 1.81798e-15 0)
(3 2.21449e-15 0)
(3 2.00981e-15 0)
(3 8.93268e-16 0)
(3 -2.95768e-16 0)
(3 -4.18863e-16 0)
(3 -2.82202e-16 0)
(3 -5.59111e-17 0)
(3 -3.81269e-17 0)
(3 -5.59135e-16 0)
(3 -3.8372e-16 0)
(3 -1.34572e-15 0)
(3 -2.63401e-15 0)
(3 -2.96708e-15 0)
(3 -3.89554e-15 0)
(3 -1.51168e-15 0)
(3 7.67049e-16 0)
(3 1.76192e-15 0)
(3 1.47323e-15 0)
(3 1.12603e-15 0)
(3 1.17461e-15 0)
(3 1.14562e-15 0)
(3 1.20257e-15 0)
(3 5.16401e-16 0)
(3 3.96556e-16 0)
(3 5.46203e-16 0)
(3 6.07259e-16 0)
(3 1.55502e-15 0)
(3 1.71763e-15 0)
(3 3.62948e-16 0)
(3 -1.3232e-15 0)
(3 -8.51937e-16 0)
(3 -4.30998e-16 0)
(3 -3.58907e-16 0)
(3 8.15691e-16 0)
(3 2.09376e-15 0)
(3 2.04595e-15 0)
(3 1.17039e-15 0)
(3 7.21119e-16 0)
(3 1.94974e-15 0)
(3 4.28575e-15 0)
(3 4.49318e-15 0)
(3 4.38974e-15 0)
(3 4.07444e-15 0)
(3 3.85187e-15 0)
(3 4.36041e-15 0)
(3 4.6076e-15 0)
(3 2.84977e-15 0)
(3 1.56093e-15 0)
(3 1.17453e-15 0)
(3 1.03436e-15 0)
(3 7.80153e-16 0)
(3 -8.87898e-16 0)
(3 -3.92801e-15 0)
(3 -4.429e-15 0)
(3 -3.86178e-15 0)
(3 -2.61533e-15 0)
(3 -1.85628e-15 0)
(3 -1.16175e-15 0)
(3 -3.28287e-16 0)
(3 3.14397e-16 0)
(3 -6.06295e-16 0)
(3 2.50097e-16 0)
(3 2.54077e-16 0)
(3 3.02233e-16 0)
(3 3.11611e-16 0)
(3 -1.19701e-16 0)
(3 -8.51372e-16 0)
(3 -1.40251e-15 0)
(3 -1.3402e-15 0)
(3 -1.56117e-15 0)
(3 -1.61064e-15 0)
(3 -1.62232e-15 0)
(3 -1.09015e-15 0)
(3 6.15224e-17 0)
(3 8.9192e-16 0)
(3 6.53808e-16 0)
(3 4.64135e-16 0)
(3 7.18972e-16 0)
(3 7.13534e-16 0)
(3 3.69855e-16 0)
(3 -1.03649e-16 0)
(3 -9.02058e-16 0)
(3 -4.35046e-16 0)
(3 1.58578e-15 0)
(3 2.59122e-15 0)
(3 2.7505e-15 0)
(3 2.96323e-15 0)
(3 3.12258e-15 0)
(3 3.35966e-15 0)
(3 3.58263e-15 0)
(3 3.26545e-15 0)
(3 2.91966e-15 0)
(3 1.78838e-15 0)
(3 2.90817e-16 0)
(3 2.07553e-16 0)
(3 5.7144e-16 0)
(3 6.06054e-16 0)
(3 5.85365e-16 0)
(3 4.38013e-16 0)
(3 5.54534e-16 0)
(3 2.95753e-16 0)
(3 6.48624e-18 0)
(3 -5.01807e-16 0)
(3 -1.17028e-15 0)
(3 -1.13878e-15 0)
(3 -3.26775e-16 0)
(3 -6.90981e-16 0)
(3 -1.46936e-15 0)
(3 -3.1943e-15 0)
(3 -4.27428e-15 0)
(3 -3.1662e-15 0)
(3 4.6032e-16 0)
(3 1.07184e-15 0)
(3 8.75986e-16 0)
(3 1.15185e-15 0)
(3 8.6041e-16 0)
(3 3.28128e-16 0)
(3 -1.88926e-16 0)
(3 -1.58784e-16 0)
(3 5.20651e-16 0)
(3 1.08954e-15 0)
(3 1.26372e-15 0)
(3 1.30463e-15 0)
(3 1.82723e-15 0)
(3 1.72867e-15 0)
(3 1.64639e-15 0)
(3 1.12243e-15 0)
(3 1.22787e-15 0)
(3 1.36193e-15 0)
(3 1.11806e-15 0)
(3 1.11571e-15 0)
(3 9.90007e-16 0)
(3 1.03717e-15 0)
(3 9.02871e-16 0)
(3 2.57893e-15 0)
(3 3.78212e-15 0)
(3 3.80483e-15 0)
(3 3.43172e-15 0)
(3 3.04723e-15 0)
(3 3.55125e-15 0)
(3 3.94011e-15 0)
(3 3.90599e-15 0)
(3 3.17035e-15 0)
(3 2.27732e-15 0)
(3 1.41527e-15 0)
(3 7.98681e-16 0)
(3 -1.28513e-16 0)
(3 -1.0257e-15 0)
(3 -1.55028e-15 0)
(3 -2.5271e-15 0)
(3 -3.06759e-15 0)
(3 -2.84151e-15 0)
(3 -2.49941e-15 0)
(3 -1.5241e-15 0)
(3 -1.04809e-15 0)
(3 -4.23418e-16 0)
(3 -1.759e-15 0)
(3 6.55779e-16 0)
(3 5.46674e-16 0)
(3 1.87602e-16 0)
(3 4.51248e-16 0)
(3 3.57092e-16 0)
(3 -5.73777e-16 0)
(3 -1.25959e-15 0)
(3 -1.89052e-15 0)
(3 -1.16655e-15 0)
(3 -4.78075e-16 0)
(3 1.18442e-18 0)
(3 3.02825e-16 0)
(3 3.32336e-16 0)
(3 2.38707e-16 0)
(3 -5.02917e-17 0)
(3 -4.26639e-16 0)
(3 -2.44554e-16 0)
(3 3.19346e-16 0)
(3 3.46118e-16 0)
(3 -1.47195e-16 0)
(3 2.38943e-16 0)
(3 5.73091e-16 0)
(3 1.48237e-15 0)
(3 1.61559e-15 0)
(3 2.95527e-15 0)
(3 4.03301e-15 0)
(3 3.76187e-15 0)
(3 2.86279e-15 0)
(3 3.02803e-15 0)
(3 3.19358e-15 0)
(3 2.41082e-15 0)
(3 1.54549e-15 0)
(3 1.51723e-16 0)
(3 4.05012e-17 0)
(3 -1.17547e-16 0)
(3 -1.04228e-16 0)
(3 7.20194e-17 0)
(3 -2.73349e-16 0)
(3 -5.25081e-16 0)
(3 -9.7091e-16 0)
(3 -1.15513e-15 0)
(3 -1.23954e-15 0)
(3 -1.34959e-15 0)
(3 -1.39913e-16 0)
(3 2.75662e-16 0)
(3 3.11076e-16 0)
(3 -3.883e-16 0)
(3 -2.20914e-15 0)
(3 -3.06784e-15 0)
(3 -2.86526e-15 0)
(3 -1.53626e-15 0)
(3 -3.9925e-16 0)
(3 1.3167e-15 0)
(3 2.74183e-15 0)
(3 3.34047e-15 0)
(3 3.47228e-15 0)
(3 3.09203e-15 0)
(3 2.13764e-15 0)
(3 1.86953e-15 0)
(3 1.96773e-15 0)
(3 2.09666e-15 0)
(3 1.9683e-15 0)
(3 2.18341e-15 0)
(3 2.29854e-15 0)
(3 2.09258e-15 0)
(3 1.26808e-15 0)
(3 1.17983e-15 0)
(3 1.46557e-15 0)
(3 1.26707e-15 0)
(3 1.46977e-15 0)
(3 1.99839e-15 0)
(3 2.19232e-15 0)
(3 2.3165e-15 0)
(3 2.77132e-15 0)
(3 2.75562e-15 0)
(3 2.64129e-15 0)
(3 1.94711e-15 0)
(3 1.45522e-15 0)
(3 1.04833e-15 0)
(3 1.19184e-15 0)
(3 1.05724e-15 0)
(3 6.74976e-16 0)
(3 3.55616e-16 0)
(3 7.14321e-16 0)
(3 -1.9432e-16 0)
(3 -3.06513e-16 0)
(3 -4.69645e-16 0)
(3 -7.56602e-16 0)
(3 -2.07335e-15 0)
(3 -3.13477e-15 0)
(3 -3.13634e-15 0)
(3 -2.52021e-15 0)
(3 -1.78987e-15 0)
(3 -1.84102e-15 0)
(3 -2.37693e-15 0)
(3 -1.94198e-15 0)
(3 -4.35482e-18 0)
(3 -1.77985e-16 0)
(3 -1.76736e-16 0)
(3 -3.33662e-17 0)
(3 -2.35835e-17 0)
(3 -2.615e-16 0)
(3 -7.78426e-16 0)
(3 -1.37153e-15 0)
(3 -1.1588e-15 0)
(3 -8.33905e-16 0)
(3 -1.57524e-16 0)
(3 4.4671e-16 0)
(3 4.08991e-16 0)
(3 8.63258e-17 0)
(3 1.33794e-17 0)
(3 -3.23115e-17 0)
(3 2.51519e-16 0)
(3 7.583e-16 0)
(3 9.21219e-16 0)
(3 2.30132e-16 0)
(3 5.84478e-16 0)
(3 1.06102e-15 0)
(3 6.62449e-16 0)
(3 4.50655e-16 0)
(3 -6.36539e-17 0)
(3 1.41242e-15 0)
(3 2.44243e-15 0)
(3 2.64543e-15 0)
(3 2.34441e-15 0)
(3 1.68763e-15 0)
(3 5.83434e-16 0)
(3 -5.2139e-16 0)
(3 -9.09497e-16 0)
(3 -7.75884e-16 0)
(3 -3.7775e-16 0)
(3 -2.3735e-16 0)
(3 -3.33912e-16 0)
(3 -3.47525e-16 0)
(3 -4.27396e-16 0)
(3 -8.47046e-16 0)
(3 -1.61213e-15 0)
(3 -1.71326e-15 0)
(3 -1.18161e-15 0)
(3 -6.00674e-16 0)
(3 -2.58379e-16 0)
(3 -1.85576e-16 0)
(3 -4.47554e-16 0)
(3 -9.68196e-16 0)
(3 -7.00774e-16 0)
(3 -1.52702e-15 0)
(3 -1.48107e-15 0)
(3 -3.64426e-16 0)
(3 2.45817e-16 0)
(3 6.47293e-16 0)
(3 1.3907e-15 0)
(3 1.44504e-15 0)
(3 1.17083e-15 0)
(3 6.76491e-16 0)
(3 7.231e-16 0)
(3 8.68539e-16 0)
(3 4.47343e-16 0)
(3 3.6774e-16 0)
(3 4.86522e-16 0)
(3 8.00342e-16 0)
(3 7.01563e-16 0)
(3 6.11188e-16 0)
(3 5.11788e-16 0)
(3 5.96343e-16 0)
(3 3.90858e-16 0)
(3 1.04578e-15 0)
(3 1.81771e-15 0)
(3 2.23907e-15 0)
(3 2.38974e-15 0)
(3 2.2589e-15 0)
(3 1.86656e-15 0)
(3 1.81713e-15 0)
(3 1.72513e-15 0)
(3 -2.04754e-16 0)
(3 -1.1424e-15 0)
(3 -7.29173e-16 0)
(3 -2.51757e-16 0)
(3 5.01009e-17 0)
(3 -2.42459e-16 0)
(3 -6.87764e-16 0)
(3 -9.41458e-16 0)
(3 -6.07127e-16 0)
(3 -9.86765e-16 0)
(3 -7.9853e-16 0)
(3 -1.24151e-15 0)
(3 -1.15638e-15 0)
(3 -7.91832e-16 0)
(3 -1.42499e-15 0)
(3 -2.28814e-15 0)
(3 -2.90998e-15 0)
(3 -3.4207e-15 0)
(3 -3.03651e-15 0)
(3 -2.06324e-16 0)
(3 -2.87022e-16 0)
(3 -4.63114e-16 0)
(3 -6.64735e-16 0)
(3 -9.259e-16 0)
(3 -5.99446e-16 0)
(3 -5.73132e-16 0)
(3 -5.32711e-16 0)
(3 -5.62196e-16 0)
(3 -7.99489e-16 0)
(3 -8.84425e-16 0)
(3 -1.68392e-16 0)
(3 8.45366e-16 0)
(3 6.14056e-16 0)
(3 1.80786e-16 0)
(3 3.85382e-17 0)
(3 4.67782e-16 0)
(3 4.7811e-16 0)
(3 7.8519e-16 0)
(3 7.39598e-16 0)
(3 9.16784e-17 0)
(3 -4.46881e-16 0)
(3 -7.37639e-16 0)
(3 -9.1206e-16 0)
(3 -2.18888e-15 0)
(3 -1.93912e-15 0)
(3 -1.08321e-15 0)
(3 -3.09712e-16 0)
(3 -6.20779e-16 0)
(3 -1.86076e-15 0)
(3 -2.64754e-15 0)
(3 -2.98427e-15 0)
(3 -2.53857e-15 0)
(3 -1.85432e-15 0)
(3 -7.66697e-16 0)
(3 -2.7616e-16 0)
(3 -1.17696e-15 0)
(3 -7.46373e-16 0)
(3 -6.76454e-16 0)
(3 -6.21351e-16 0)
(3 -1.21325e-15 0)
(3 -1.66999e-15 0)
(3 -9.91215e-16 0)
(3 -1.12996e-15 0)
(3 -1.57829e-15 0)
(3 -1.45073e-15 0)
(3 -1.32953e-15 0)
(3 -9.33307e-16 0)
(3 7.31331e-17 0)
(3 -6.07641e-16 0)
(3 4.75165e-18 0)
(3 3.41657e-16 0)
(3 -4.14692e-17 0)
(3 -5.83411e-17 0)
(3 2.53699e-16 0)
(3 5.9927e-16 0)
(3 1.24429e-16 0)
(3 -4.07944e-16 0)
(3 -3.28706e-16 0)
(3 4.60741e-16 0)
(3 6.08549e-16 0)
(3 1.21835e-16 0)
(3 -3.77279e-16 0)
(3 -6.03211e-16 0)
(3 -5.77781e-16 0)
(3 -4.45128e-16 0)
(3 -4.90106e-16 0)
(3 -4.43368e-16 0)
(3 1.52853e-16 0)
(3 7.60575e-16 0)
(3 1.9036e-15 0)
(3 2.49599e-15 0)
(3 2.97947e-15 0)
(3 2.09293e-15 0)
(3 1.2254e-15 0)
(3 4.8661e-16 0)
(3 -4.10183e-16 0)
(3 -1.37798e-15 0)
(3 -1.62072e-15 0)
(3 -1.24455e-15 0)
(3 -5.96886e-16 0)
(3 -3.19147e-16 0)
(3 -2.22887e-16 0)
(3 -2.33255e-15 0)
(3 -2.37376e-15 0)
(3 -2.16336e-15 0)
(3 -2.51572e-15 0)
(3 -2.07643e-15 0)
(3 -1.19064e-15 0)
(3 -2.76645e-16 0)
(3 1.61029e-16 0)
(3 4.26786e-17 0)
(3 -1.08347e-15 0)
(3 -1.61208e-15 0)
(3 -1.32831e-15 0)
(3 -1.57603e-15 0)
(3 -3.00831e-16 0)
(3 -1.11687e-16 0)
(3 -4.04643e-16 0)
(3 -6.07063e-16 0)
(3 -9.00231e-16 0)
(3 -7.86267e-16 0)
(3 9.12251e-18 0)
(3 7.34928e-16 0)
(3 6.71523e-16 0)
(3 2.91493e-16 0)
(3 -1.52055e-16 0)
(3 -4.32189e-16 0)
(3 -4.84976e-16 0)
(3 -3.10534e-16 0)
(3 -3.0124e-16 0)
(3 -3.57978e-16 0)
(3 -5.90827e-16 0)
(3 -8.10725e-16 0)
(3 -7.15011e-16 0)
(3 -8.08759e-16 0)
(3 -6.22944e-16 0)
(3 -6.66858e-16 0)
(3 -5.91164e-16 0)
(3 -1.19869e-15 0)
(3 -2.28452e-15 0)
(3 -2.90683e-15 0)
(3 -2.7213e-15 0)
(3 -2.54826e-15 0)
(3 -3.33457e-15 0)
(3 -3.33808e-15 0)
(3 -3.12434e-15 0)
(3 -1.91975e-15 0)
(3 -1.47223e-15 0)
(3 -1.37268e-15 0)
(3 -9.03855e-16 0)
(3 -2.04285e-16 0)
(3 -7.56395e-16 0)
(3 -1.25102e-15 0)
(3 -1.71648e-15 0)
(3 -1.55379e-15 0)
(3 -1.35901e-15 0)
(3 -1.02175e-15 0)
(3 1.06957e-15 0)
(3 1.50994e-15 0)
(3 8.94853e-16 0)
(3 8.4595e-17 0)
(3 -8.33137e-16 0)
(3 -6.20064e-16 0)
(3 -2.47779e-16 0)
(3 -4.17602e-16 0)
(3 -4.06849e-16 0)
(3 1.05639e-16 0)
(3 6.31958e-17 0)
(3 -5.48457e-16 0)
(3 -3.35342e-16 0)
(3 -1.22007e-16 0)
(3 2.4226e-16 0)
(3 5.71182e-16 0)
(3 1.50053e-15 0)
(3 2.62357e-15 0)
(3 2.4171e-15 0)
(3 2.01177e-15 0)
(3 1.03734e-15 0)
(3 -1.27589e-16 0)
(3 -1.36069e-15 0)
(3 -1.39221e-15 0)
(3 -1.32292e-15 0)
(3 -1.95598e-16 0)
(3 7.44374e-16 0)
(3 1.20575e-15 0)
(3 1.33222e-15 0)
(3 1.82943e-15 0)
(3 3.03431e-15 0)
(3 2.36246e-15 0)
(3 -6.81892e-17 0)
(3 -1.96944e-16 0)
(3 -4.57967e-16 0)
(3 2.94267e-17 0)
(3 -6.26481e-17 0)
(3 -2.55578e-16 0)
(3 -4.45174e-16 0)
(3 -7.97943e-16 0)
(3 -5.10879e-16 0)
(3 -1.22463e-15 0)
(3 -2.13324e-15 0)
(3 -2.50712e-15 0)
(3 -2.25997e-15 0)
(3 -2.53006e-15 0)
(3 -1.11805e-15 0)
(3 -5.13331e-16 0)
(3 -3.81333e-16 0)
(3 3.78497e-16 0)
(3 2.76601e-16 0)
(3 9.44397e-16 0)
(3 1.36832e-15 0)
(3 1.14215e-15 0)
(3 -9.79553e-17 0)
(3 -1.0078e-17 0)
(3 -1.45745e-16 0)
(3 -1.32032e-16 0)
(3 1.3121e-16 0)
(3 5.2838e-16 0)
(3 1.01466e-15 0)
(3 1.0821e-15 0)
(3 7.7328e-16 0)
(3 5.58854e-16 0)
(3 5.35553e-17 0)
(3 -2.62987e-16 0)
(3 -7.58715e-16 0)
(3 -8.85105e-16 0)
(3 -3.48343e-16 0)
(3 2.75982e-16 0)
(3 -5.13962e-16 0)
(3 -1.18051e-15 0)
(3 -1.51094e-15 0)
(3 -2.04971e-15 0)
(3 -2.00982e-15 0)
(3 -1.57016e-15 0)
(3 -1.81473e-15 0)
(3 -1.96305e-15 0)
(3 -1.57303e-15 0)
(3 -1.89934e-15 0)
(3 -2.75667e-15 0)
(3 -3.29354e-15 0)
(3 -2.55466e-15 0)
(3 -8.2945e-16 0)
(3 -2.66418e-16 0)
(3 5.01139e-16 0)
(3 2.77022e-16 0)
(3 -6.41221e-16 0)
(3 -1.30948e-15 0)
(3 -1.07866e-15 0)
(3 -8.8268e-16 0)
(3 -1.48355e-15 0)
(3 -1.78971e-15 0)
(3 -2.45315e-15 0)
(3 -1.33685e-15 0)
(3 -5.13882e-16 0)
(3 -4.28545e-16 0)
(3 -4.4564e-16 0)
(3 -3.70295e-16 0)
(3 -2.97874e-16 0)
(3 -8.11633e-16 0)
(3 -1.40291e-15 0)
(3 -1.32805e-15 0)
(3 -1.29339e-15 0)
(3 -1.6991e-15 0)
(3 -2.06517e-15 0)
(3 -1.60441e-15 0)
(3 -1.64855e-15 0)
(3 -1.46517e-15 0)
(3 -7.65723e-16 0)
(3 3.39384e-17 0)
(3 1.08585e-15 0)
(3 1.67413e-15 0)
(3 1.95286e-15 0)
(3 1.88679e-15 0)
(3 1.61644e-15 0)
(3 1.18374e-15 0)
(3 3.20091e-16 0)
(3 3.28449e-16 0)
(3 5.45153e-16 0)
(3 6.75264e-16 0)
(3 1.20091e-15 0)
(3 1.26516e-15 0)
(3 1.32245e-15 0)
(3 9.38439e-16 0)
(3 9.15804e-16 0)
(3 1.52365e-15 0)
(3 2.01287e-15 0)
(3 1.56012e-15 0)
(3 1.55884e-15 0)
(3 1.6858e-15 0)
(3 1.82035e-15 0)
(3 2.28454e-15 0)
(3 7.12668e-16 0)
(3 -4.9271e-16 0)
(3 -1.98505e-15 0)
(3 -2.39489e-15 0)
(3 -2.12281e-15 0)
(3 -2.34602e-15 0)
(3 -3.12535e-15 0)
(3 -2.10575e-15 0)
(3 -5.05723e-17 0)
(3 7.4758e-16 0)
(3 3.5257e-16 0)
(3 -8.20095e-16 0)
(3 -6.87146e-16 0)
(3 2.38892e-16 0)
(3 8.10362e-16 0)
(3 1.45986e-15 0)
(3 1.90363e-15 0)
(3 2.23563e-16 0)
(3 1.00425e-16 0)
(3 -1.48424e-16 0)
(3 -2.48509e-16 0)
(3 3.70783e-16 0)
(3 6.44317e-16 0)
(3 1.77875e-16 0)
(3 -6.19852e-17 0)
(3 4.28635e-16 0)
(3 9.03929e-16 0)
(3 1.06142e-15 0)
(3 8.35567e-16 0)
(3 6.78702e-16 0)
(3 -3.30643e-16 0)
(3 -8.39184e-16 0)
(3 -3.92297e-18 0)
(3 -9.35295e-17 0)
(3 -7.2183e-17 0)
(3 -1.23965e-15 0)
(3 -1.48379e-15 0)
(3 -1.47493e-15 0)
(3 -1.54602e-15 0)
(3 -2.12769e-15 0)
(3 -2.12976e-15 0)
(3 -1.8171e-15 0)
(3 -2.25824e-15 0)
(3 -2.58742e-15 0)
(3 -2.81898e-15 0)
(3 -2.30268e-15 0)
(3 -8.52643e-16 0)
(3 3.82766e-16 0)
(3 1.04627e-15 0)
(3 8.65924e-16 0)
(3 1.60494e-16 0)
(3 -1.35406e-15 0)
(3 -1.77973e-15 0)
(3 -2.45546e-15 0)
(3 -2.93457e-15 0)
(3 -2.41883e-15 0)
(3 -2.0954e-15 0)
(3 -1.14771e-15 0)
(3 -1.01231e-15 0)
(3 -1.06653e-15 0)
(3 -1.20952e-15 0)
(3 -1.83731e-15 0)
(3 -1.96285e-15 0)
(3 -1.31874e-15 0)
(3 -1.17822e-15 0)
(3 -1.06823e-15 0)
(3 -1.10752e-15 0)
(3 -2.40708e-15 0)
(3 -3.21523e-15 0)
(3 -2.85201e-15 0)
(3 -2.49143e-15 0)
(3 -1.98817e-15 0)
(3 -6.96262e-16 0)
(3 1.1679e-15 0)
(3 1.8142e-15 0)
(3 4.61198e-16 0)
(3 2.03621e-18 0)
(3 1.1435e-17 0)
(3 -1.16213e-15 0)
(3 -1.0027e-15 0)
(3 -3.93133e-16 0)
(3 1.88134e-16 0)
(3 3.8473e-16 0)
(3 3.24431e-16 0)
(3 1.1061e-15 0)
(3 1.17562e-15 0)
(3 1.2535e-15 0)
(3 1.33487e-15 0)
(3 9.34227e-16 0)
(3 2.62133e-16 0)
(3 1.44924e-15 0)
(3 2.31672e-15 0)
(3 1.80492e-15 0)
(3 1.1858e-15 0)
(3 9.81259e-16 0)
(3 1.25008e-15 0)
(3 1.72835e-15 0)
(3 1.71406e-15 0)
(3 1.24403e-15 0)
(3 7.40379e-17 0)
(3 -1.07187e-15 0)
(3 -2.27033e-15 0)
(3 -2.70593e-15 0)
(3 -2.2573e-15 0)
(3 -1.21904e-16 0)
(3 2.61375e-16 0)
(3 3.28191e-16 0)
(3 7.89907e-16 0)
(3 1.21502e-15 0)
(3 1.74541e-15 0)
(3 1.56928e-15 0)
(3 1.7664e-15 0)
(3 2.08417e-15 0)
(3 -1.31457e-16 0)
(3 -3.45418e-16 0)
(3 1.44956e-16 0)
(3 7.02251e-16 0)
(3 6.95734e-16 0)
(3 2.27939e-16 0)
(3 7.01522e-17 0)
(3 -7.95306e-16 0)
(3 -2.96393e-16 0)
(3 3.13632e-16 0)
(3 2.17602e-15 0)
(3 1.54541e-15 0)
(3 1.5799e-16 0)
(3 -4.53278e-16 0)
(3 -3.21484e-16 0)
(3 -1.35906e-16 0)
(3 -2.27718e-16 0)
(3 -3.62942e-16 0)
(3 -6.94043e-16 0)
(3 4.97801e-18 0)
(3 -2.21642e-16 0)
(3 -9.84392e-16 0)
(3 -1.12837e-15 0)
(3 -1.5829e-15 0)
(3 -2.4981e-15 0)
(3 -2.56738e-15 0)
(3 -2.48556e-15 0)
(3 -2.28104e-15 0)
(3 -1.30503e-15 0)
(3 -3.98122e-16 0)
(3 4.70293e-16 0)
(3 1.18981e-16 0)
(3 -3.95452e-16 0)
(3 -8.65433e-16 0)
(3 -1.92221e-15 0)
(3 -3.47652e-15 0)
(3 -3.69975e-15 0)
(3 -2.62085e-15 0)
(3 -1.82045e-15 0)
(3 -7.45802e-16 0)
(3 -9.19612e-16 0)
(3 -1.20673e-15 0)
(3 -1.52177e-15 0)
(3 -1.3308e-15 0)
(3 -1.41184e-15 0)
(3 -1.68646e-15 0)
(3 -1.1827e-15 0)
(3 -1.10451e-15 0)
(3 -1.25456e-15 0)
(3 -1.67305e-15 0)
(3 -1.87965e-15 0)
(3 -1.63416e-15 0)
(3 -2.28215e-15 0)
(3 -2.5947e-15 0)
(3 -3.06938e-15 0)
(3 -2.21844e-15 0)
(3 -5.39796e-16 0)
(3 2.55205e-16 0)
(3 5.23665e-16 0)
(3 2.28504e-16 0)
(3 -5.79726e-16 0)
(3 -4.99505e-16 0)
(3 -2.88867e-16 0)
(3 2.07137e-16 0)
(3 6.40792e-16 0)
(3 8.50154e-16 0)
(3 2.0584e-15 0)
(3 2.72664e-15 0)
(3 1.17241e-15 0)
(3 1.28149e-16 0)
(3 6.30049e-16 0)
(3 3.75338e-16 0)
(3 -7.771e-17 0)
(3 4.91567e-16 0)
(3 1.65417e-15 0)
(3 8.94553e-16 0)
(3 1.01034e-15 0)
(3 1.43105e-15 0)
(3 2.87336e-15 0)
(3 3.27709e-15 0)
(3 2.85055e-15 0)
(3 1.94363e-15 0)
(3 1.22414e-15 0)
(3 -3.01059e-16 0)
(3 -1.01128e-15 0)
(3 -9.74111e-16 0)
(3 -7.77454e-16 0)
(3 -1.23214e-15 0)
(3 -1.2547e-15 0)
(3 -5.25844e-16 0)
(3 1.25908e-15 0)
(3 2.00133e-15 0)
(3 2.29611e-15 0)
(3 2.24831e-15 0)
(3 1.93068e-15 0)
(3 1.56531e-15 0)
(3 -2.81665e-16 0)
(3 -2.41126e-16 0)
(3 1.42989e-16 0)
(3 4.18795e-16 0)
(3 1.61223e-16 0)
(3 6.57132e-17 0)
(3 5.31788e-16 0)
(3 7.05201e-16 0)
(3 -8.06754e-18 0)
(3 -1.7004e-18 0)
(3 2.34565e-16 0)
(3 3.53229e-16 0)
(3 -1.60427e-16 0)
(3 5.941e-17 0)
(3 1.58073e-16 0)
(3 -8.96683e-18 0)
(3 -6.54743e-17 0)
(3 -3.64441e-16 0)
(3 -2.733e-16 0)
(3 1.05136e-15 0)
(3 7.13502e-16 0)
(3 6.72867e-16 0)
(3 4.12807e-16 0)
(3 -7.4243e-16 0)
(3 -1.73577e-15 0)
(3 -1.76e-15 0)
(3 -2.44826e-15 0)
(3 -2.26593e-15 0)
(3 -1.20936e-15 0)
(3 -5.78979e-16 0)
(3 2.14898e-17 0)
(3 6.09057e-17 0)
(3 -7.00496e-16 0)
(3 -9.84665e-16 0)
(3 -1.68064e-15 0)
(3 -2.35649e-15 0)
(3 -2.13702e-15 0)
(3 -7.58805e-16 0)
(3 -2.36709e-16 0)
(3 -9.27442e-16 0)
(3 -1.9033e-15 0)
(3 -2.46918e-15 0)
(3 -2.85229e-15 0)
(3 -3.07426e-15 0)
(3 -2.69642e-15 0)
(3 -1.26265e-15 0)
(3 -5.3728e-16 0)
(3 -7.5815e-16 0)
(3 -1.38064e-15 0)
(3 -2.01215e-15 0)
(3 -1.42915e-15 0)
(3 -1.0684e-15 0)
(3 -1.79506e-15 0)
(3 -2.73151e-15 0)
(3 -2.70252e-15 0)
(3 -1.83207e-15 0)
(3 -1.32992e-15 0)
(3 -4.93318e-16 0)
(3 -5.70907e-16 0)
(3 -2.03196e-15 0)
(3 -1.79511e-15 0)
(3 -8.96942e-16 0)
(3 -6.84049e-16 0)
(3 -1.06801e-15 0)
(3 9.54608e-16 0)
(3 2.27658e-15 0)
(3 2.81681e-15 0)
(3 2.53825e-15 0)
(3 2.37068e-15 0)
(3 9.81445e-16 0)
(3 1.89302e-16 0)
(3 -2.1931e-16 0)
(3 4.44579e-16 0)
(3 1.9207e-16 0)
(3 1.16182e-15 0)
(3 1.57719e-15 0)
(3 2.18284e-15 0)
(3 3.49947e-15 0)
(3 3.47851e-15 0)
(3 2.53653e-15 0)
(3 3.26558e-16 0)
(3 -3.40776e-16 0)
(3 -3.14729e-16 0)
(3 1.13378e-16 0)
(3 -2.78753e-16 0)
(3 -4.53921e-16 0)
(3 -8.62424e-16 0)
(3 -4.21558e-16 0)
(3 5.66607e-16 0)
(3 1.03995e-15 0)
(3 1.32291e-15 0)
(3 1.3642e-15 0)
(3 1.27552e-15 0)
(3 1.05627e-15 0)
(3 7.34833e-16 0)
(3 1.99571e-16 0)
(3 3.11974e-19 0)
(3 1.13687e-16 0)
(3 -1.48634e-16 0)
(3 -5.729e-16 0)
(3 -9.552e-16 0)
(3 -4.64191e-16 0)
(3 2.91445e-16 0)
(3 1.2387e-15 0)
(3 4.66998e-16 0)
(3 7.45807e-17 0)
(3 -8.00743e-16 0)
(3 -1.13739e-15 0)
(3 -9.76117e-16 0)
(3 -3.82416e-16 0)
(3 -2.60735e-16 0)
(3 -3.67233e-16 0)
(3 -1.33514e-16 0)
(3 7.5477e-17 0)
(3 6.73976e-16 0)
(3 1.11791e-15 0)
(3 2.1077e-15 0)
(3 1.71243e-15 0)
(3 6.44868e-16 0)
(3 -7.23118e-16 0)
(3 -5.24331e-16 0)
(3 -8.7428e-16 0)
(3 -1.51342e-15 0)
(3 -1.89859e-15 0)
(3 -2.47642e-15 0)
(3 -2.60748e-15 0)
(3 -2.11941e-15 0)
(3 -3.75544e-16 0)
(3 -1.61117e-16 0)
(3 -5.83304e-17 0)
(3 -5.63545e-17 0)
(3 -3.9092e-16 0)
(3 -8.47694e-16 0)
(3 -1.0375e-15 0)
(3 -4.22414e-16 0)
(3 -1.53918e-15 0)
(3 -2.41142e-15 0)
(3 -2.093e-15 0)
(3 -2.15729e-15 0)
(3 -2.56798e-15 0)
(3 -2.21948e-15 0)
(3 -6.89284e-16 0)
(3 -4.28842e-16 0)
(3 -6.12612e-16 0)
(3 -1.06286e-15 0)
(3 -9.16968e-16 0)
(3 -1.32198e-15 0)
(3 -1.77613e-15 0)
(3 -1.93897e-15 0)
(3 -1.72294e-15 0)
(3 -1.88011e-15 0)
(3 -1.68114e-15 0)
(3 -1.61361e-15 0)
(3 -8.31991e-16 0)
(3 -9.61259e-17 0)
(3 -1.93478e-15 0)
(3 -2.27582e-15 0)
(3 -2.19414e-15 0)
(3 -1.26374e-15 0)
(3 -1.87055e-16 0)
(3 1.30723e-15 0)
(3 2.0245e-15 0)
(3 2.06903e-15 0)
(3 1.43927e-15 0)
(3 8.14567e-16 0)
(3 5.31572e-16 0)
(3 -2.19431e-16 0)
(3 -1.32341e-16 0)
(3 6.27803e-16 0)
(3 1.38747e-15 0)
(3 2.22792e-15 0)
(3 2.95699e-15 0)
(3 2.75524e-15 0)
(3 2.33817e-15 0)
(3 1.47774e-15 0)
(3 -5.60883e-16 0)
(3 -1.72025e-15 0)
(3 -1.68592e-15 0)
(3 -1.67654e-15 0)
(3 -6.50301e-16 0)
(3 -7.2644e-16 0)
(3 -4.31282e-16 0)
(3 6.29963e-16 0)
(3 9.46352e-16 0)
(3 1.37784e-15 0)
(3 1.02023e-15 0)
(3 1.41034e-16 0)
(3 1.48084e-16 0)
(3 2.65722e-16 0)
(3 5.87755e-16 0)
(3 5.18048e-16 0)
(3 5.96614e-16 0)
(3 1.27823e-16 0)
(3 1.8462e-16 0)
(3 3.85079e-16 0)
(3 3.68158e-16 0)
(3 3.32852e-16 0)
(3 4.16663e-16 0)
(3 2.71883e-16 0)
(3 7.30542e-16 0)
(3 3.07597e-16 0)
(3 -4.22246e-16 0)
(3 -1.00033e-15 0)
(3 -1.19059e-15 0)
(3 -1.19973e-15 0)
(3 -1.3683e-15 0)
(3 -1.4947e-15 0)
(3 -1.80236e-15 0)
(3 -8.32005e-16 0)
(3 2.2158e-17 0)
(3 5.5181e-16 0)
(3 3.79925e-16 0)
(3 -1.89929e-17 0)
(3 -1.1151e-15 0)
(3 -1.58182e-15 0)
(3 -1.40632e-15 0)
(3 5.23301e-16 0)
(3 7.6408e-16 0)
(3 -3.35316e-16 0)
(3 -9.60877e-16 0)
(3 -1.47788e-15 0)
(3 -1.16013e-15 0)
(3 -1.15089e-15 0)
(3 -5.30141e-16 0)
(3 -1.42244e-17 0)
(3 1.85836e-16 0)
(3 2.17036e-16 0)
(3 -1.28299e-16 0)
(3 1.72799e-16 0)
(3 -1.21975e-16 0)
(3 -1.92309e-16 0)
(3 5.13125e-16 0)
(3 9.88606e-16 0)
(3 1.33591e-15 0)
(3 -1.64611e-16 0)
(3 -9.59451e-16 0)
(3 -1.42779e-15 0)
(3 -1.47402e-15 0)
(3 -1.13049e-15 0)
(3 -1.39431e-15 0)
(3 -8.47697e-16 0)
(3 1.38552e-16 0)
(3 -1.37142e-15 0)
(3 -1.44825e-15 0)
(3 -1.0877e-15 0)
(3 -6.16392e-16 0)
(3 -8.34712e-16 0)
(3 -3.22027e-16 0)
(3 -3.43078e-16 0)
(3 -1.37886e-15 0)
(3 -1.1867e-15 0)
(3 -1.3091e-15 0)
(3 -1.73279e-15 0)
(3 -1.70726e-15 0)
(3 -1.40998e-15 0)
(3 -6.81661e-16 0)
(3 -5.22141e-16 0)
(3 4.51406e-16 0)
(3 4.91363e-16 0)
(3 -1.02875e-16 0)
(3 -8.7445e-16 0)
(3 -9.88277e-16 0)
(3 -1.4407e-15 0)
(3 -1.16558e-15 0)
(3 -2.12163e-16 0)
(3 8.42817e-16 0)
(3 1.33202e-15 0)
(3 1.92468e-15 0)
(3 8.10721e-16 0)
(3 1.7803e-17 0)
(3 -6.01887e-16 0)
(3 -7.23742e-16 0)
(3 -1.34249e-15 0)
(3 -2.13753e-15 0)
(3 -3.19669e-15 0)
(3 -3.03076e-15 0)
(3 -1.46318e-15 0)
(3 -3.08165e-16 0)
(3 1.13193e-15 0)
(3 1.49606e-15 0)
(3 1.33384e-15 0)
(3 8.83333e-16 0)
(3 3.61975e-16 0)
(3 5.62166e-16 0)
(3 7.80959e-16 0)
(3 6.53703e-16 0)
(3 2.10542e-15 0)
(3 2.64802e-15 0)
(3 -1.43589e-17 0)
(3 1.49409e-17 0)
(3 3.13891e-16 0)
(3 2.54541e-16 0)
(3 6.14894e-17 0)
(3 3.72364e-16 0)
(3 5.27107e-16 0)
(3 5.85948e-16 0)
(3 4.63197e-16 0)
(3 -1.74525e-16 0)
(3 -8.66557e-16 0)
(3 -1.10122e-15 0)
(3 -1.46917e-15 0)
(3 -1.63663e-15 0)
(3 -1.65609e-15 0)
(3 -1.49589e-15 0)
(3 -1.0699e-15 0)
(3 -5.95919e-16 0)
(3 -5.49066e-16 0)
(3 -6.27552e-16 0)
(3 -1.15076e-15 0)
(3 -1.02838e-15 0)
(3 -6.30627e-16 0)
(3 7.05293e-17 0)
(3 8.62807e-16 0)
(3 9.82733e-16 0)
(3 2.17072e-16 0)
(3 -4.37314e-16 0)
(3 -3.31243e-16 0)
(3 2.08675e-16 0)
(3 -2.17439e-16 0)
(3 -5.07431e-16 0)
(3 -2.3493e-16 0)
(3 -6.66152e-17 0)
(3 -4.02476e-16 0)
(3 -5.07723e-16 0)
(3 -6.50181e-17 0)
(3 7.02816e-16 0)
(3 3.68214e-16 0)
(3 7.92384e-16 0)
(3 1.31302e-15 0)
(3 8.58109e-16 0)
(3 5.06309e-16 0)
(3 5.48111e-16 0)
(3 5.50493e-16 0)
(3 -2.76831e-16 0)
(3 -1.99063e-16 0)
(3 2.57465e-16 0)
(3 1.0557e-15 0)
(3 1.2139e-15 0)
(3 7.24416e-18 0)
(3 -3.36648e-16 0)
(3 -3.1413e-16 0)
(3 -1.47622e-16 0)
(3 -4.15551e-17 0)
(3 -7.68854e-16 0)
(3 -1.72348e-15 0)
(3 -2.15793e-15 0)
(3 -1.44762e-15 0)
(3 -3.9721e-16 0)
(3 3.42331e-16 0)
(3 4.11367e-16 0)
(3 2.87863e-16 0)
(3 2.06178e-17 0)
(3 -2.23524e-16 0)
(3 -6.31241e-16 0)
(3 -7.08832e-16 0)
(3 -8.20867e-16 0)
(3 -1.0588e-15 0)
(3 -1.96802e-15 0)
(3 -2.07647e-15 0)
(3 -1.64633e-15 0)
(3 -4.5319e-16 0)
(3 4.79165e-16 0)
(3 5.29233e-16 0)
(3 5.58458e-16 0)
(3 6.11476e-16 0)
(3 4.85642e-16 0)
(3 3.12273e-16 0)
(3 8.27537e-16 0)
(3 6.22073e-16 0)
(3 1.6179e-16 0)
(3 -1.17184e-16 0)
(3 1.82067e-16 0)
(3 1.472e-15 0)
(3 1.89274e-15 0)
(3 1.75483e-15 0)
(3 1.70343e-15 0)
(3 1.31461e-15 0)
(3 1.3812e-15 0)
(3 1.96513e-15 0)
(3 2.52008e-15 0)
(3 2.01053e-15 0)
(3 1.23723e-15 0)
(3 1.50802e-15 0)
(3 1.76112e-15 0)
(3 -9.90463e-17 0)
(3 -1.01391e-16 0)
(3 -3.44564e-16 0)
(3 -2.34348e-16 0)
(3 -2.0767e-16 0)
(3 -5.6671e-16 0)
(3 -2.1211e-16 0)
(3 3.90416e-16 0)
(3 9.48711e-16 0)
(3 4.61813e-16 0)
(3 1.16081e-16 0)
(3 -7.90249e-16 0)
(3 -1.64499e-15 0)
(3 -1.71216e-15 0)
(3 -1.58746e-15 0)
(3 -1.27624e-15 0)
(3 -1.16086e-15 0)
(3 -2.10801e-15 0)
(3 -2.28228e-15 0)
(3 -8.71258e-16 0)
(3 6.25313e-16 0)
(3 1.11841e-15 0)
(3 9.05347e-16 0)
(3 1.06374e-15 0)
(3 1.06225e-15 0)
(3 4.7281e-16 0)
(3 3.34387e-16 0)
(3 4.47478e-16 0)
(3 6.28086e-16 0)
(3 6.81039e-16 0)
(3 4.0143e-16 0)
(3 -7.93155e-17 0)
(3 7.99434e-17 0)
(3 7.75902e-17 0)
(3 2.66072e-16 0)
(3 5.46852e-16 0)
(3 5.37864e-16 0)
(3 7.78076e-16 0)
(3 -2.27421e-16 0)
(3 -3.40572e-16 0)
(3 1.63269e-16 0)
(3 4.93347e-16 0)
(3 6.07768e-16 0)
(3 1.73319e-15 0)
(3 1.92035e-15 0)
(3 1.30327e-15 0)
(3 1.11086e-15 0)
(3 1.61468e-15 0)
(3 1.45083e-15 0)
(3 2.39577e-16 0)
(3 -2.22062e-16 0)
(3 -5.5033e-16 0)
(3 2.73592e-16 0)
(3 7.07897e-16 0)
(3 7.8257e-16 0)
(3 -1.51219e-15 0)
(3 -2.13319e-15 0)
(3 -1.29658e-15 0)
(3 -5.94298e-16 0)
(3 7.00241e-16 0)
(3 1.38067e-15 0)
(3 1.26621e-15 0)
(3 1.37889e-15 0)
(3 1.20602e-15 0)
(3 2.77602e-16 0)
(3 -6.38503e-16 0)
(3 -1.32821e-15 0)
(3 -1.30726e-15 0)
(3 -1.22974e-15 0)
(3 -1.55297e-15 0)
(3 -1.33624e-15 0)
(3 7.92164e-16 0)
(3 4.99808e-16 0)
(3 4.83126e-17 0)
(3 5.03506e-17 0)
(3 6.48034e-16 0)
(3 1.39084e-15 0)
(3 2.37443e-15 0)
(3 1.85018e-15 0)
(3 1.45144e-15 0)
(3 1.44184e-15 0)
(3 1.64652e-15 0)
(3 2.21087e-15 0)
(3 3.93667e-15 0)
(3 3.63875e-15 0)
(3 2.69901e-15 0)
(3 1.1901e-15 0)
(3 -2.63435e-16 0)
(3 -2.65217e-16 0)
(3 -1.08305e-16 0)
(3 -3.96349e-16 0)
(3 -1.0963e-15 0)
(3 -5.45381e-16 0)
(3 -2.73699e-16 0)
(3 -1.62547e-16 0)
(3 9.15344e-16 0)
(3 5.28004e-18 0)
(3 4.41222e-17 0)
(3 -5.92647e-17 0)
(3 2.65592e-16 0)
(3 3.98079e-16 0)
(3 -5.75689e-16 0)
(3 -1.26979e-15 0)
(3 -9.18212e-16 0)
(3 6.01671e-16 0)
(3 1.29912e-15 0)
(3 1.31941e-15 0)
(3 6.84194e-16 0)
(3 4.05731e-17 0)
(3 -8.50627e-16 0)
(3 -9.02665e-16 0)
(3 -8.9042e-16 0)
(3 -1.15564e-15 0)
(3 -1.04483e-15 0)
(3 -1.02561e-15 0)
(3 -8.43094e-16 0)
(3 -7.42675e-16 0)
(3 -4.91865e-16 0)
(3 -1.41527e-16 0)
(3 2.23917e-16 0)
(3 2.14658e-16 0)
(3 1.94883e-16 0)
(3 2.51064e-16 0)
(3 7.66621e-16 0)
(3 1.38934e-15 0)
(3 1.76044e-15 0)
(3 1.76615e-15 0)
(3 1.06303e-15 0)
(3 8.27451e-16 0)
(3 7.61741e-16 0)
(3 1.04412e-15 0)
(3 8.59344e-16 0)
(3 6.80621e-16 0)
(3 2.10171e-16 0)
(3 -7.85308e-16 0)
(3 -1.06051e-15 0)
(3 5.69706e-16 0)
(3 2.35613e-15 0)
(3 2.46761e-15 0)
(3 2.5221e-15 0)
(3 1.39327e-15 0)
(3 9.43789e-16 0)
(3 1.55562e-15 0)
(3 1.75845e-15 0)
(3 1.24146e-15 0)
(3 7.1726e-16 0)
(3 4.52813e-17 0)
(3 -9.12451e-16 0)
(3 -8.67931e-16 0)
(3 -8.56689e-16 0)
(3 -5.28305e-16 0)
(3 -4.88633e-16 0)
(3 -7.14413e-16 0)
(3 -4.56868e-16 0)