/*--------------------------------*- C++ -*----------------------------------*\
  =========                 |
  \\      /  F ield         | OpenFOAM: The Open Source CFD Toolbox
   \\    /   O peration     | Website:  https://openfoam.org
    \\  /    A nd           | Version:  7
     \\/     M anipulation  |
\*---------------------------------------------------------------------------*/
FoamFile
{
    version     2.0;
    format      ascii;
    class       volVectorField;
    location    "0.6";
    object      U;
}
// * * * * * * * * * * * * * * * * * * * * * * * * * * * * * * * * * * * * * //

dimensions      [0 1 -1 0 0 0 0];

internalField   nonuniform List<vector> 
73728
(
(3 -7.16291e-18 0)
(3 1.81603e-16 0)
(3 4.66195e-16 0)
(3 6.57905e-16 0)
(3 7.22067e-16 0)
(3 5.04908e-16 0)
(3 2.77169e-16 0)
(3 2.00318e-16 0)
(3 3.16657e-16 0)
(3 6.28955e-16 0)
(3 1.01527e-15 0)
(3 -5.01924e-17 0)
(3 -3.95925e-16 0)
(3 -1.25281e-15 0)
(3 -6.5533e-16 0)
(3 -3.85464e-16 0)
(3 3.21435e-17 0)
(3 6.86487e-16 0)
(3 4.28472e-16 0)
(3 7.3146e-16 0)
(3 9.7456e-16 0)
(3 8.6996e-16 0)
(3 2.14023e-16 0)
(3 -4.9476e-16 0)
(3 -9.75249e-16 0)
(3 -9.88588e-16 0)
(3 -1.99823e-16 0)
(3 1.23811e-15 0)
(3 1.32079e-15 0)
(3 9.26331e-16 0)
(3 6.3553e-16 0)
(3 7.54244e-16 0)
(3 1.05966e-15 0)
(3 9.50126e-16 0)
(3 8.14246e-16 0)
(3 8.6066e-16 0)
(3 4.34406e-16 0)
(3 3.73553e-16 0)
(3 5.81966e-16 0)
(3 2.47518e-16 0)
(3 1.59392e-16 0)
(3 -1.58574e-15 0)
(3 -2.26331e-15 0)
(3 -2.38935e-15 0)
(3 -1.73915e-15 0)
(3 -1.92568e-15 0)
(3 -1.77456e-15 0)
(3 -6.0476e-16 0)
(3 -9.22234e-16 0)
(3 -1.2021e-15 0)
(3 -1.95137e-15 0)
(3 -2.23811e-15 0)
(3 -1.55514e-15 0)
(3 -5.93886e-16 0)
(3 -3.34157e-16 0)
(3 -9.66766e-17 0)
(3 -3.26891e-16 0)
(3 -3.34787e-16 0)
(3 -1.92778e-16 0)
(3 6.73365e-16 0)
(3 1.54615e-15 0)
(3 2.51788e-15 0)
(3 5.63943e-16 0)
(3 4.79286e-16 0)
(3 3.46834e-16 0)
(3 1.72681e-16 0)
(3 3.62165e-16 0)
(3 6.55074e-16 0)
(3 4.99996e-16 0)
(3 4.69155e-16 0)
(3 1.97738e-16 0)
(3 -2.27477e-16 0)
(3 -5.00823e-16 0)
(3 -1.64548e-15 0)
(3 -1.60051e-15 0)
(3 -1.73549e-15 0)
(3 -9.25632e-16 0)
(3 -6.04975e-16 0)
(3 -2.39754e-16 0)
(3 4.92832e-16 0)
(3 1.57901e-15 0)
(3 2.30325e-15 0)
(3 4.71236e-16 0)
(3 2.70398e-17 0)
(3 -4.65877e-17 0)
(3 -1.85871e-16 0)
(3 -1.63191e-16 0)
(3 -2.99774e-16 0)
(3 -4.42368e-16 0)
(3 -1.15243e-16 0)
(3 2.46607e-16 0)
(3 -5.49792e-18 0)
(3 2.85537e-17 0)
(3 8.8421e-16 0)
(3 2.62677e-15 0)
(3 1.81177e-15 0)
(3 4.20608e-18 0)
(3 1.88743e-16 0)
(3 4.77748e-16 0)
(3 6.52036e-16 0)
(3 5.21477e-16 0)
(3 2.94129e-16 0)
(3 1.66839e-16 0)
(3 2.33303e-16 0)
(3 1.44467e-16 0)
(3 3.18244e-16 0)
(3 5.28436e-16 0)
(3 -1.63896e-16 0)
(3 -8.02651e-16 0)
(3 -1.34503e-15 0)
(3 -1.11136e-15 0)
(3 -8.57232e-16 0)
(3 -5.89603e-16 0)
(3 4.46082e-16 0)
(3 8.91627e-16 0)
(3 1.21859e-15 0)
(3 1.80653e-15 0)
(3 1.33182e-15 0)
(3 -2.42052e-16 0)
(3 -2.66155e-15 0)
(3 -2.55725e-15 0)
(3 -1.38125e-15 0)
(3 7.97687e-16 0)
(3 2.22313e-15 0)
(3 2.1587e-15 0)
(3 1.84944e-15 0)
(3 1.84487e-15 0)
(3 1.30479e-15 0)
(3 9.18593e-16 0)
(3 6.33547e-16 0)
(3 3.07315e-16 0)
(3 1.36639e-16 0)
(3 1.26235e-15 0)
(3 1.85181e-15 0)
(3 3.12458e-15 0)
(3 3.03907e-15 0)
(3 5.28673e-16 0)
(3 -1.09842e-15 0)
(3 -2.66544e-15 0)
(3 -3.77313e-15 0)
(3 -3.59108e-15 0)
(3 -2.82661e-15 0)
(3 -2.57243e-15 0)
(3 -2.53332e-15 0)
(3 -2.06323e-15 0)
(3 -1.34724e-15 0)
(3 -2.06181e-15 0)
(3 -2.09142e-15 0)
(3 -1.38815e-15 0)
(3 9.21724e-16 0)
(3 1.50649e-15 0)
(3 9.58821e-16 0)
(3 8.28657e-16 0)
(3 1.26757e-15 0)
(3 1.56471e-15 0)
(3 2.42815e-15 0)
(3 3.82771e-15 0)
(3 4.3961e-15 0)
(3 1.07885e-15 0)
(3 6.97398e-16 0)
(3 2.93254e-16 0)
(3 -4.75397e-16 0)
(3 -7.27064e-16 0)
(3 1.43087e-18 0)
(3 -2.65277e-16 0)
(3 -2.41862e-16 0)
(3 -8.08476e-16 0)
(3 -1.44697e-15 0)
(3 -2.2624e-15 0)
(3 -3.16535e-15 0)
(3 -3.224e-15 0)
(3 -2.9847e-15 0)
(3 -2.13076e-15 0)
(3 -3.59781e-18 0)
(3 6.43098e-16 0)
(3 2.07697e-15 0)
(3 2.44672e-15 0)
(3 3.83812e-16 0)
(3 -6.07065e-16 0)
(3 7.22902e-16 0)
(3 5.55063e-16 0)
(3 4.19112e-16 0)
(3 -3.62761e-16 0)
(3 -1.05027e-15 0)
(3 -1.45391e-15 0)
(3 -1.06047e-15 0)
(3 -5.20003e-16 0)
(3 -8.78089e-16 0)
(3 -1.04196e-15 0)
(3 -2.69434e-16 0)
(3 7.85937e-16 0)
(3 -6.22161e-16 0)
(3 -5.13922e-18 0)
(3 -4.32877e-19 0)
(3 5.35881e-18 0)
(3 7.30642e-17 0)
(3 -3.25313e-17 0)
(3 -1.96662e-16 0)
(3 -3.7111e-16 0)
(3 -5.23142e-16 0)
(3 -8.55424e-16 0)
(3 -9.90771e-16 0)
(3 -9.72635e-16 0)
(3 -1.49465e-15 0)
(3 -1.82479e-15 0)
(3 -1.48867e-15 0)
(3 -1.33873e-15 0)
(3 -7.8602e-16 0)
(3 -5.65984e-16 0)
(3 -2.41646e-17 0)
(3 1.0689e-15 0)
(3 1.48051e-15 0)
(3 1.46802e-15 0)
(3 1.43449e-15 0)
(3 1.08694e-15 0)
(3 -2.6539e-16 0)
(3 -3.92908e-16 0)
(3 -7.55142e-17 0)
(3 7.88228e-17 0)
(3 1.86772e-16 0)
(3 1.07351e-15 0)
(3 1.86483e-15 0)
(3 2.54776e-15 0)
(3 2.13527e-15 0)
(3 1.05576e-15 0)
(3 1.08707e-15 0)
(3 1.18286e-15 0)
(3 9.01676e-16 0)
(3 1.22212e-15 0)
(3 1.18067e-15 0)
(3 -4.51887e-16 0)
(3 -7.38198e-16 0)
(3 -8.99582e-16 0)
(3 -1.17713e-15 0)
(3 -2.09961e-15 0)
(3 -2.5603e-15 0)
(3 -1.99813e-15 0)
(3 4.95773e-16 0)
(3 1.62733e-15 0)
(3 1.20201e-15 0)
(3 8.09321e-16 0)
(3 8.30107e-16 0)
(3 1.27089e-15 0)
(3 8.78424e-16 0)
(3 -1.2695e-15 0)
(3 -2.74147e-15 0)
(3 -3.09028e-15 0)
(3 -1.74968e-15 0)
(3 4.96482e-16 0)
(3 2.22307e-15 0)
(3 2.84124e-15 0)
(3 2.95185e-15 0)
(3 3.36063e-15 0)
(3 2.03402e-15 0)
(3 1.47635e-15 0)
(3 4.37459e-16 0)
(3 -3.22619e-16 0)
(3 -2.15056e-15 0)
(3 -3.3121e-15 0)
(3 -3.74385e-15 0)
(3 -2.37056e-15 0)
(3 -1.39053e-15 0)
(3 -1.2148e-15 0)
(3 -1.33816e-15 0)
(3 -1.72711e-15 0)
(3 -2.56352e-15 0)
(3 -3.25763e-15 0)
(3 -2.63152e-15 0)
(3 -1.48601e-15 0)
(3 -9.81961e-17 0)
(3 8.50131e-16 0)
(3 1.0961e-15 0)
(3 6.656e-16 0)
(3 -1.70252e-15 0)
(3 -3.16522e-15 0)
(3 -1.54336e-15 0)
(3 -1.82661e-16 0)
(3 2.12448e-16 0)
(3 1.80098e-16 0)
(3 -2.45017e-16 0)
(3 -7.21176e-16 0)
(3 -1.79675e-15 0)
(3 -2.32793e-15 0)
(3 -2.79655e-15 0)
(3 -1.26465e-15 0)
(3 -2.36035e-16 0)
(3 8.96295e-16 0)
(3 1.01435e-15 0)
(3 1.33008e-16 0)
(3 -1.04287e-16 0)
(3 -5.03199e-16 0)
(3 -4.08666e-16 0)
(3 -8.06717e-17 0)
(3 -1.4174e-16 0)
(3 -4.3031e-16 0)
(3 -6.76691e-16 0)
(3 -1.11765e-15 0)
(3 -1.92998e-15 0)
(3 -1.79263e-15 0)
(3 -1.35271e-15 0)
(3 -1.0526e-15 0)
(3 -7.57974e-16 0)
(3 -8.22226e-16 0)
(3 -5.08061e-16 0)
(3 -6.15136e-16 0)
(3 -7.41211e-16 0)
(3 -6.16533e-16 0)
(3 -7.10384e-16 0)
(3 -1.02979e-15 0)
(3 -2.43445e-16 0)
(3 6.95195e-16 0)
(3 9.5907e-16 0)
(3 2.28214e-15 0)
(3 2.07974e-15 0)
(3 1.10368e-15 0)
(3 9.04333e-16 0)
(3 1.34729e-15 0)
(3 1.91005e-15 0)
(3 1.53233e-15 0)
(3 2.37738e-15 0)
(3 2.11457e-15 0)
(3 9.59762e-16 0)
(3 8.23359e-16 0)
(3 9.36033e-16 0)
(3 2.97964e-16 0)
(3 -5.41279e-16 0)
(3 -1.7979e-15 0)
(3 -2.83017e-15 0)
(3 -2.15434e-15 0)
(3 -1.06951e-15 0)
(3 8.80551e-16 0)
(3 6.31754e-16 0)
(3 1.63181e-15 0)
(3 2.96717e-15 0)
(3 3.96997e-15 0)
(3 4.1291e-15 0)
(3 3.372e-15 0)
(3 2.09572e-15 0)
(3 1.5567e-15 0)
(3 1.38763e-15 0)
(3 1.1421e-15 0)
(3 -4.48374e-16 0)
(3 -1.07334e-15 0)
(3 -1.6411e-15 0)
(3 -1.95236e-15 0)
(3 -1.65256e-15 0)
(3 -1.60824e-15 0)
(3 -9.47101e-16 0)
(3 -6.34549e-16 0)
(3 -1.30681e-15 0)
(3 -1.80608e-15 0)
(3 -2.22398e-15 0)
(3 -2.30271e-15 0)
(3 -1.75158e-15 0)
(3 -1.87322e-15 0)
(3 -3.2081e-15 0)
(3 -3.71453e-15 0)
(3 -3.62108e-15 0)
(3 -1.85207e-15 0)
(3 -9.53351e-16 0)
(3 -9.24431e-16 0)
(3 -1.30276e-15 0)
(3 -1.67495e-15 0)
(3 -1.53515e-15 0)
(3 -2.20276e-15 0)
(3 -1.30991e-15 0)
(3 6.66601e-16 0)
(3 1.02707e-15 0)
(3 1.41519e-15 0)
(3 1.4353e-15 0)
(3 4.90725e-17 0)
(3 -5.64606e-16 0)
(3 1.56464e-16 0)
(3 2.68881e-16 0)
(3 -5.28953e-16 0)
(3 -1.01096e-15 0)
(3 -1.64006e-15 0)
(3 -1.65897e-15 0)
(3 -2.24896e-15 0)
(3 -2.63779e-15 0)
(3 -2.09535e-15 0)
(3 -1.46677e-15 0)
(3 -2.0698e-16 0)
(3 9.67256e-16 0)
(3 2.08711e-16 0)
(3 -1.39353e-17 0)
(3 5.2772e-17 0)
(3 2.13522e-16 0)
(3 2.93225e-16 0)
(3 2.84877e-16 0)
(3 -3.54772e-17 0)
(3 -8.80538e-17 0)
(3 -1.44676e-16 0)
(3 -3.82275e-16 0)
(3 -1.47838e-16 0)
(3 8.17309e-16 0)
(3 7.2973e-16 0)
(3 4.23211e-16 0)
(3 4.07421e-16 0)
(3 2.08482e-16 0)
(3 -7.83874e-16 0)
(3 -1.05379e-15 0)
(3 -1.7473e-15 0)
(3 -2.04901e-15 0)
(3 -2.51088e-15 0)
(3 -2.69831e-15 0)
(3 -1.64001e-15 0)
(3 -5.23946e-16 0)
(3 1.87663e-15 0)
(3 4.23525e-15 0)
(3 4.11669e-15 0)
(3 3.61855e-15 0)
(3 3.11673e-15 0)
(3 3.25035e-15 0)
(3 3.94008e-15 0)
(3 3.95469e-15 0)
(3 3.08605e-15 0)
(3 2.09843e-15 0)
(3 1.94748e-15 0)
(3 2.23046e-15 0)
(3 1.25001e-15 0)
(3 3.53409e-17 0)
(3 1.52617e-16 0)
(3 -3.57079e-16 0)
(3 1.99563e-15 0)
(3 5.02651e-15 0)
(3 4.70357e-15 0)
(3 3.6992e-15 0)
(3 3.15322e-15 0)
(3 3.18154e-15 0)
(3 3.63176e-15 0)
(3 3.3047e-15 0)
(3 3.17692e-15 0)
(3 2.9821e-15 0)
(3 2.2035e-15 0)
(3 2.43573e-15 0)
(3 4.04169e-15 0)
(3 4.87073e-15 0)
(3 4.51136e-15 0)
(3 4.0187e-15 0)
(3 2.96785e-15 0)
(3 1.65509e-15 0)
(3 5.85099e-16 0)
(3 3.78159e-16 0)
(3 2.58709e-16 0)
(3 8.77724e-17 0)
(3 -5.19295e-17 0)
(3 -2.24204e-16 0)
(3 -2.9178e-16 0)
(3 -1.22803e-16 0)
(3 -3.00966e-17 0)
(3 -1.29844e-15 0)
(3 -1.89434e-15 0)
(3 -1.62422e-15 0)
(3 -9.67869e-16 0)
(3 -5.68144e-16 0)
(3 -6.67505e-16 0)
(3 -1.02687e-16 0)
(3 -4.48369e-16 0)
(3 -1.0417e-15 0)
(3 -8.94968e-16 0)
(3 2.80775e-16 0)
(3 2.19084e-15 0)
(3 3.13268e-15 0)
(3 3.22872e-15 0)
(3 2.96709e-15 0)
(3 2.76836e-15 0)
(3 1.48427e-15 0)
(3 4.40801e-16 0)
(3 -1.14912e-16 0)
(3 -2.61628e-15 0)
(3 -3.68383e-15 0)
(3 -3.60615e-15 0)
(3 -2.54578e-15 0)
(3 -2.20317e-15 0)
(3 -2.72246e-15 0)
(3 -3.37235e-15 0)
(3 -2.1852e-15 0)
(3 -5.24786e-16 0)
(3 -1.45604e-16 0)
(3 2.7415e-18 0)
(3 2.22957e-16 0)
(3 4.40644e-16 0)
(3 6.23043e-16 0)
(3 7.783e-16 0)
(3 8.06496e-16 0)
(3 5.87615e-16 0)
(3 5.62214e-16 0)
(3 9.23974e-16 0)
(3 1.57884e-15 0)
(3 2.19845e-15 0)
(3 1.8234e-15 0)
(3 1.32796e-15 0)
(3 9.62721e-16 0)
(3 3.3981e-16 0)
(3 -5.89372e-16 0)
(3 -6.53262e-16 0)
(3 -9.76749e-16 0)
(3 -1.1651e-15 0)
(3 -9.90435e-16 0)
(3 -6.82215e-16 0)
(3 -9.86266e-16 0)
(3 -8.66807e-16 0)
(3 2.02284e-16 0)
(3 3.15999e-16 0)
(3 1.55789e-15 0)
(3 2.49211e-15 0)
(3 2.20901e-15 0)
(3 1.60994e-15 0)
(3 1.00638e-15 0)
(3 2.44622e-15 0)
(3 2.82098e-15 0)
(3 2.96864e-15 0)
(3 3.17677e-15 0)
(3 3.02848e-15 0)
(3 2.63666e-15 0)
(3 1.2876e-15 0)
(3 -7.4317e-17 0)
(3 -3.91914e-16 0)
(3 6.85759e-16 0)
(3 3.22756e-15 0)
(3 5.2163e-15 0)
(3 5.76214e-15 0)
(3 5.07283e-15 0)
(3 4.57421e-15 0)
(3 4.02609e-15 0)
(3 4.48794e-15 0)
(3 3.45281e-15 0)
(3 2.7161e-15 0)
(3 2.6669e-15 0)
(3 3.04638e-15 0)
(3 2.59829e-15 0)
(3 2.30375e-15 0)
(3 1.89624e-15 0)
(3 2.34515e-15 0)
(3 3.69457e-15 0)
(3 3.99871e-15 0)
(3 3.31632e-15 0)
(3 4.18256e-15 0)
(3 4.92763e-15 0)
(3 4.50644e-15 0)
(3 3.87332e-15 0)
(3 2.08319e-15 0)
(3 1.55255e-15 0)
(3 1.28701e-15 0)
(3 6.21833e-16 0)
(3 -2.65259e-16 0)
(3 -4.64557e-16 0)
(3 -6.31012e-16 0)
(3 -7.31848e-16 0)
(3 -7.51159e-16 0)
(3 -9.32984e-16 0)
(3 -1.12649e-15 0)
(3 -1.35667e-15 0)
(3 -5.46186e-16 0)
(3 -4.14665e-16 0)
(3 -4.42792e-16 0)
(3 -3.50229e-16 0)
(3 -2.731e-16 0)
(3 1.57713e-15 0)
(3 2.27098e-15 0)
(3 2.23222e-15 0)
(3 2.22706e-15 0)
(3 7.42145e-16 0)
(3 -9.94681e-16 0)
(3 -1.11806e-15 0)
(3 -1.55092e-15 0)
(3 -1.87362e-15 0)
(3 -1.76309e-15 0)
(3 -1.85537e-15 0)
(3 -1.93079e-15 0)
(3 -2.53911e-15 0)
(3 -2.4691e-15 0)
(3 -8.02369e-16 0)
(3 3.04866e-16 0)
(3 4.87774e-16 0)
(3 -6.08496e-17 0)
(3 -7.4132e-17 0)
(3 -4.09892e-16 0)
(3 -5.29904e-16 0)
(3 -4.89476e-16 0)
(3 -4.5752e-16 0)
(3 -7.99379e-17 0)
(3 9.88614e-17 0)
(3 5.23541e-16 0)
(3 1.07394e-15 0)
(3 1.13093e-15 0)
(3 6.19299e-16 0)
(3 2.52823e-16 0)
(3 -3.54592e-16 0)
(3 -7.94958e-16 0)
(3 -1.08623e-15 0)
(3 -6.14406e-16 0)
(3 -5.50856e-16 0)
(3 -9.32119e-16 0)
(3 -1.29705e-15 0)
(3 -1.82433e-15 0)
(3 -1.7668e-15 0)
(3 -1.0073e-15 0)
(3 -5.34054e-17 0)
(3 3.30309e-16 0)
(3 7.00714e-16 0)
(3 1.44663e-15 0)
(3 1.73048e-15 0)
(3 1.37329e-15 0)
(3 -8.21153e-16 0)
(3 -1.88823e-15 0)
(3 -1.95176e-15 0)
(3 -3.56453e-16 0)
(3 -2.36358e-16 0)
(3 -3.12533e-16 0)
(3 -1.62619e-16 0)
(3 9.55488e-16 0)
(3 1.33285e-15 0)
(3 1.07988e-15 0)
(3 1.39046e-15 0)
(3 1.34142e-15 0)
(3 1.29273e-15 0)
(3 1.51024e-15 0)
(3 1.98887e-15 0)
(3 1.19637e-15 0)
(3 6.99454e-16 0)
(3 4.37455e-16 0)
(3 9.0464e-16 0)
(3 1.04533e-15 0)
(3 1.44674e-15 0)
(3 2.24364e-15 0)
(3 2.85021e-15 0)
(3 2.32515e-15 0)
(3 1.36447e-15 0)
(3 1.86101e-15 0)
(3 2.70333e-15 0)
(3 5.21959e-15 0)
(3 6.53935e-15 0)
(3 5.58962e-15 0)
(3 2.99058e-15 0)
(3 2.49262e-15 0)
(3 2.77586e-15 0)
(3 2.99702e-15 0)
(3 2.66819e-15 0)
(3 2.37074e-15 0)
(3 2.30824e-15 0)
(3 1.76298e-15 0)
(3 1.09298e-15 0)
(3 9.33449e-16 0)
(3 1.12249e-15 0)
(3 -6.15597e-16 0)
(3 -8.85404e-16 0)
(3 -7.42548e-16 0)
(3 -5.96577e-16 0)
(3 -4.67071e-16 0)
(3 -6.66542e-16 0)
(3 -1.36109e-15 0)
(3 -1.45959e-15 0)
(3 -1.82652e-15 0)
(3 -9.53596e-16 0)
(3 1.01398e-15 0)
(3 1.34494e-15 0)
(3 1.08284e-15 0)
(3 -5.51379e-16 0)
(3 -2.25668e-15 0)
(3 -2.26625e-15 0)
(3 -6.35199e-16 0)
(3 -3.34287e-16 0)
(3 3.77647e-16 0)
(3 -7.7948e-17 0)
(3 -8.28907e-16 0)
(3 3.51368e-16 0)
(3 7.67744e-17 0)
(3 -2.56678e-16 0)
(3 -1.04192e-16 0)
(3 -6.37428e-17 0)
(3 -1.30519e-16 0)
(3 -3.67155e-16 0)
(3 -7.80748e-16 0)
(3 -1.16412e-15 0)
(3 -1.20182e-15 0)
(3 -8.82067e-16 0)
(3 -3.66982e-16 0)
(3 -9.88892e-17 0)
(3 5.41436e-17 0)
(3 4.93738e-16 0)
(3 1.03412e-16 0)
(3 -1.51885e-16 0)
(3 -3.43593e-17 0)
(3 -2.04089e-16 0)
(3 -3.0124e-16 0)
(3 5.18418e-16 0)
(3 9.02948e-16 0)
(3 8.81747e-16 0)
(3 -1.82787e-16 0)
(3 -5.03617e-16 0)
(3 -9.91953e-16 0)
(3 -1.30198e-15 0)
(3 -1.57755e-15 0)
(3 -1.63156e-15 0)
(3 -6.55916e-16 0)
(3 -1.09727e-15 0)
(3 -1.82007e-15 0)
(3 -1.2248e-15 0)
(3 -5.10239e-16 0)
(3 1.42669e-16 0)
(3 -7.04491e-16 0)
(3 -1.99781e-15 0)
(3 -1.92639e-15 0)
(3 -1.47558e-15 0)
(3 -4.14209e-16 0)
(3 1.92486e-17 0)
(3 1.14542e-15 0)
(3 1.84653e-15 0)
(3 1.52299e-15 0)
(3 9.68947e-16 0)
(3 2.12823e-16 0)
(3 -1.27722e-15 0)
(3 -2.13442e-15 0)
(3 -2.15886e-15 0)
(3 -2.6604e-15 0)
(3 -2.94198e-15 0)
(3 -3.04719e-15 0)
(3 -2.11739e-15 0)
(3 -1.21998e-15 0)
(3 -3.96313e-16 0)
(3 1.04435e-15 0)
(3 2.43323e-15 0)
(3 2.8485e-15 0)
(3 3.37936e-15 0)
(3 3.23056e-15 0)
(3 3.21326e-15 0)
(3 3.37528e-15 0)
(3 2.71072e-15 0)
(3 1.79502e-15 0)
(3 4.02419e-16 0)
(3 1.17879e-15 0)
(3 1.26666e-15 0)
(3 1.55892e-15 0)
(3 1.79551e-15 0)
(3 1.8291e-15 0)
(3 1.97854e-15 0)
(3 1.77107e-15 0)
(3 1.92975e-15 0)
(3 3.00455e-15 0)
(3 2.91241e-15 0)
(3 1.58414e-15 0)
(3 1.0098e-15 0)
(3 8.69932e-16 0)
(3 3.36457e-16 0)
(3 -4.83324e-16 0)
(3 -1.60202e-15 0)
(3 -1.47274e-15 0)
(3 -1.50693e-15 0)
(3 -2.09574e-15 0)
(3 -2.45544e-15 0)
(3 -1.89992e-15 0)
(3 -8.29877e-16 0)
(3 8.33874e-16 0)
(3 -2.205e-16 0)
(3 -1.42716e-15 0)
(3 -1.4888e-15 0)
(3 -7.98128e-16 0)
(3 -2.73434e-16 0)
(3 2.47992e-16 0)
(3 3.77257e-16 0)
(3 6.86662e-16 0)
(3 1.15554e-15 0)
(3 4.59705e-17 0)
(3 -1.4648e-15 0)
(3 -1.40279e-15 0)
(3 -1.18304e-15 0)
(3 -1.01503e-16 0)
(3 -1.36261e-17 0)
(3 4.23072e-17 0)
(3 -6.46175e-17 0)
(3 -2.69732e-16 0)
(3 -2.13186e-16 0)
(3 -3.33642e-16 0)
(3 -2.87488e-16 0)
(3 -2.91168e-16 0)
(3 -1.33037e-16 0)
(3 -1.59334e-16 0)
(3 -1.10416e-16 0)
(3 2.5251e-16 0)
(3 1.20831e-15 0)
(3 1.72378e-15 0)
(3 2.10683e-15 0)
(3 1.76041e-15 0)
(3 1.45577e-15 0)
(3 1.42338e-15 0)
(3 1.4062e-15 0)
(3 1.22255e-15 0)
(3 8.35496e-16 0)
(3 -7.21892e-16 0)
(3 -1.66146e-15 0)
(3 -1.50917e-15 0)
(3 -1.51614e-15 0)
(3 -8.37115e-16 0)
(3 3.25582e-16 0)
(3 3.12258e-16 0)
(3 9.87208e-16 0)
(3 6.95134e-16 0)
(3 -6.55561e-16 0)
(3 -1.5148e-15 0)
(3 -1.03507e-15 0)
(3 -5.85658e-16 0)
(3 -1.88076e-16 0)
(3 1.12558e-15 0)
(3 1.74883e-15 0)
(3 1.98553e-15 0)
(3 7.96959e-16 0)
(3 1.14345e-16 0)
(3 -9.29016e-16 0)
(3 -1.10979e-15 0)
(3 -2.43616e-15 0)
(3 -2.91433e-15 0)
(3 -2.02938e-15 0)
(3 -1.72706e-15 0)
(3 -1.37452e-15 0)
(3 -1.10452e-15 0)
(3 -1.55595e-15 0)
(3 -1.1243e-15 0)
(3 7.41422e-16 0)
(3 3.37011e-15 0)
(3 4.78427e-15 0)
(3 3.32129e-15 0)
(3 1.19996e-15 0)
(3 1.36835e-16 0)
(3 1.95264e-16 0)
(3 1.30867e-15 0)
(3 1.67255e-15 0)
(3 2.04645e-15 0)
(3 2.78023e-15 0)
(3 3.22748e-15 0)
(3 3.55601e-15 0)
(3 3.57856e-15 0)
(3 2.15957e-15 0)
(3 9.59117e-16 0)
(3 8.70926e-16 0)
(3 1.61642e-15 0)
(3 1.27633e-15 0)
(3 1.13359e-15 0)
(3 4.7938e-16 0)
(3 -3.00104e-16 0)
(3 -5.24063e-16 0)
(3 -1.28906e-15 0)
(3 -1.37904e-15 0)
(3 -1.65657e-15 0)
(3 -1.97264e-15 0)
(3 -1.71069e-15 0)
(3 -1.38429e-15 0)
(3 -1.66715e-15 0)
(3 -1.23993e-15 0)
(3 6.10406e-16 0)
(3 7.37008e-16 0)
(3 2.83163e-16 0)
(3 -4.90994e-17 0)
(3 -7.89386e-16 0)
(3 -4.0184e-16 0)
(3 -7.46195e-16 0)
(3 -7.58004e-16 0)
(3 8.68829e-16 0)
(3 2.19041e-15 0)
(3 2.07329e-15 0)
(3 6.93273e-16 0)
(3 5.30245e-16 0)
(3 3.99678e-16 0)
(3 1.66793e-16 0)
(3 1.46551e-16 0)
(3 2.13488e-16 0)
(3 2.90811e-16 0)
(3 1.75634e-16 0)
(3 -3.2433e-16 0)
(3 -3.43704e-16 0)
(3 -4.59379e-16 0)
(3 -4.97434e-16 0)
(3 -9.73047e-16 0)
(3 -7.65884e-16 0)
(3 7.27123e-17 0)
(3 1.99701e-16 0)
(3 5.42204e-16 0)
(3 1.12295e-15 0)
(3 8.26346e-16 0)
(3 1.07027e-15 0)
(3 1.16967e-15 0)
(3 1.40728e-15 0)
(3 1.90116e-15 0)
(3 2.14065e-15 0)
(3 2.06246e-15 0)
(3 1.09049e-15 0)
(3 8.18756e-16 0)
(3 5.42421e-16 0)
(3 -1.13702e-15 0)
(3 -1.92747e-15 0)
(3 -1.38198e-15 0)
(3 -2.44746e-16 0)
(3 1.01812e-16 0)
(3 1.37943e-16 0)
(3 3.96957e-16 0)
(3 7.27546e-16 0)
(3 6.04014e-16 0)
(3 6.93229e-16 0)
(3 4.05935e-16 0)
(3 2.37598e-16 0)
(3 6.84551e-16 0)
(3 9.62562e-16 0)
(3 3.13803e-16 0)
(3 -1.11223e-15 0)
(3 -1.88871e-15 0)
(3 -2.21259e-15 0)
(3 -2.16752e-15 0)
(3 -2.65694e-15 0)
(3 -3.63758e-15 0)
(3 -4.36306e-15 0)
(3 -4.33608e-15 0)
(3 -2.90972e-15 0)
(3 -2.84966e-15 0)
(3 -3.40057e-15 0)
(3 -3.21877e-15 0)
(3 -1.51081e-15 0)
(3 1.56057e-15 0)
(3 9.95828e-16 0)
(3 -1.05463e-15 0)
(3 -2.1248e-15 0)
(3 -1.21238e-15 0)
(3 3.83138e-16 0)
(3 1.86837e-15 0)
(3 2.4916e-15 0)
(3 3.06017e-15 0)
(3 3.16284e-15 0)
(3 3.5808e-15 0)
(3 3.27858e-15 0)
(3 3.10262e-15 0)
(3 1.89627e-15 0)
(3 1.23029e-15 0)
(3 1.51979e-15 0)
(3 1.88508e-15 0)
(3 2.5306e-15 0)
(3 1.62612e-15 0)
(3 3.29548e-16 0)
(3 -1.29695e-16 0)
(3 -2.62796e-16 0)
(3 -1.03989e-16 0)
(3 5.47127e-16 0)
(3 1.6873e-16 0)
(3 1.78535e-16 0)
(3 7.59701e-16 0)
(3 7.56053e-16 0)
(3 5.69875e-16 0)
(3 4.11113e-16 0)
(3 7.66076e-16 0)
(3 9.37208e-16 0)
(3 8.59971e-16 0)
(3 3.36404e-16 0)
(3 -1.54593e-17 0)
(3 -3.77293e-16 0)
(3 -8.17864e-16 0)
(3 -1.3321e-18 0)
(3 1.2576e-15 0)
(3 4.75169e-16 0)
(3 7.90539e-17 0)
(3 -5.18613e-16 0)
(3 -1.01727e-15 0)
(3 2.46621e-17 0)
(3 -1.18336e-16 0)
(3 -2.89035e-17 0)
(3 -9.6085e-17 0)
(3 1.95444e-16 0)
(3 6.18237e-16 0)
(3 6.98176e-16 0)
(3 8.04914e-16 0)
(3 8.3547e-16 0)
(3 6.18774e-16 0)
(3 6.78698e-16 0)
(3 6.15791e-16 0)
(3 2.99916e-16 0)
(3 -4.107e-16 0)
(3 -8.07582e-16 0)
(3 -8.88116e-16 0)
(3 -6.14468e-16 0)
(3 -1.3586e-16 0)
(3 7.03931e-16 0)
(3 1.00556e-15 0)
(3 1.59502e-15 0)
(3 2.24088e-15 0)
(3 2.82428e-15 0)
(3 2.87004e-15 0)
(3 1.67454e-15 0)
(3 7.46604e-16 0)
(3 -7.78894e-16 0)
(3 -1.1066e-15 0)
(3 -7.51515e-16 0)
(3 -4.08766e-16 0)
(3 4.9513e-16 0)
(3 1.57727e-15 0)
(3 1.94633e-15 0)
(3 1.08605e-15 0)
(3 5.615e-16 0)
(3 2.70332e-16 0)
(3 -5.93429e-17 0)
(3 -9.56766e-16 0)
(3 -1.65014e-15 0)
(3 -2.26441e-15 0)
(3 -2.84626e-15 0)
(3 -3.91043e-15 0)
(3 -3.69679e-15 0)
(3 -2.43428e-15 0)
(3 -9.36382e-16 0)
(3 -5.04918e-16 0)
(3 -1.05851e-15 0)
(3 -2.2896e-15 0)
(3 -1.99613e-15 0)
(3 -1.65176e-15 0)
(3 -2.1706e-15 0)
(3 -3.23438e-15 0)
(3 -3.22596e-15 0)
(3 -1.21636e-16 0)
(3 3.0137e-16 0)
(3 -8.1692e-16 0)
(3 -1.3949e-15 0)
(3 -9.83103e-16 0)
(3 -7.92702e-16 0)
(3 5.69127e-16 0)
(3 2.20913e-15 0)
(3 2.97059e-15 0)
(3 2.62062e-15 0)
(3 2.53118e-15 0)
(3 1.99264e-15 0)
(3 1.90396e-15 0)
(3 1.93421e-15 0)
(3 1.9425e-15 0)
(3 1.85366e-15 0)
(3 1.40549e-15 0)
(3 1.2013e-15 0)
(3 9.46591e-16 0)
(3 5.43218e-16 0)
(3 -1.86131e-16 0)
(3 -3.61186e-16 0)
(3 -6.34505e-17 0)
(3 -1.49908e-16 0)
(3 -1.5498e-16 0)
(3 -7.77696e-16 0)
(3 -5.1234e-16 0)
(3 4.30703e-16 0)
(3 1.27302e-15 0)
(3 1.23124e-15 0)
(3 1.39496e-15 0)
(3 1.66048e-15 0)
(3 2.16601e-15 0)
(3 2.44073e-15 0)
(3 2.48988e-15 0)
(3 2.04864e-15 0)
(3 6.37952e-16 0)
(3 -9.98639e-17 0)
(3 -1.52554e-15 0)
(3 -1.83395e-15 0)
(3 -2.31817e-15 0)
(3 -2.91611e-15 0)
(3 -3.25649e-15 0)
(3 -1.7522e-16 0)
(3 -2.3403e-16 0)
(3 2.13952e-16 0)
(3 4.54277e-16 0)
(3 6.54417e-16 0)
(3 1.17274e-15 0)
(3 1.03917e-15 0)
(3 1.09195e-15 0)
(3 9.49935e-16 0)
(3 8.53406e-16 0)
(3 7.80982e-16 0)
(3 7.39979e-16 0)
(3 -1.63975e-16 0)
(3 -1.12213e-15 0)
(3 -1.30022e-15 0)
(3 -9.06651e-16 0)
(3 -7.43173e-16 0)
(3 1.07464e-16 0)
(3 9.36623e-16 0)
(3 8.02989e-16 0)
(3 3.65782e-16 0)
(3 1.58384e-16 0)
(3 5.15704e-16 0)
(3 7.54893e-16 0)
(3 8.40192e-16 0)
(3 1.72784e-15 0)
(3 2.11112e-15 0)
(3 1.28577e-15 0)
(3 2.56028e-16 0)
(3 -9.99775e-17 0)
(3 7.77248e-16 0)
(3 1.08987e-15 0)
(3 7.40056e-16 0)
(3 8.78118e-16 0)
(3 6.71787e-16 0)
(3 9.68133e-16 0)
(3 9.03753e-16 0)
(3 7.74e-16 0)
(3 9.9805e-16 0)
(3 1.11275e-15 0)
(3 -2.14373e-16 0)
(3 -2.84173e-15 0)
(3 -2.71746e-15 0)
(3 -1.33212e-15 0)
(3 -2.51742e-16 0)
(3 3.34024e-16 0)
(3 2.29123e-16 0)
(3 -6.2332e-16 0)
(3 -1.56514e-15 0)
(3 -1.0435e-15 0)
(3 -4.07283e-16 0)
(3 -1.12162e-15 0)
(3 -3.0653e-15 0)
(3 -4.1969e-15 0)
(3 -4.35597e-15 0)
(3 -3.25843e-15 0)
(3 9.99892e-17 0)
(3 1.05723e-15 0)
(3 8.73193e-16 0)
(3 1.87811e-15 0)
(3 2.78556e-15 0)
(3 2.84282e-15 0)
(3 2.33543e-15 0)
(3 1.38022e-15 0)
(3 1.38531e-16 0)
(3 -3.77443e-16 0)
(3 -4.04919e-16 0)
(3 3.10007e-16 0)
(3 -1.13027e-16 0)
(3 -9.34561e-16 0)
(3 -1.2477e-15 0)
(3 -1.04248e-15 0)
(3 -5.27616e-16 0)
(3 -1.45006e-16 0)
(3 4.13159e-16 0)
(3 4.16937e-16 0)
(3 -1.97975e-16 0)
(3 -8.96698e-16 0)
(3 -1.32925e-15 0)
(3 -1.57224e-15 0)
(3 -7.87564e-16 0)
(3 1.06784e-15 0)
(3 9.27127e-16 0)
(3 1.77746e-15 0)
(3 1.89272e-15 0)
(3 2.32074e-15 0)
(3 2.83831e-15 0)
(3 3.28627e-15 0)
(3 3.31998e-15 0)
(3 2.64727e-15 0)
(3 1.67772e-15 0)
(3 4.13296e-16 0)
(3 8.33417e-17 0)
(3 -2.22223e-15 0)
(3 -2.99428e-15 0)
(3 -3.80957e-15 0)
(3 -1.38807e-17 0)
(3 1.07901e-17 0)
(3 1.81298e-17 0)
(3 3.02875e-17 0)
(3 2.22789e-16 0)
(3 1.46092e-16 0)
(3 3.59773e-17 0)
(3 -2.58621e-16 0)
(3 -2.35537e-16 0)
(3 -1.06375e-16 0)
(3 1.64356e-16 0)
(3 3.28004e-16 0)
(3 4.92821e-16 0)
(3 7.31706e-16 0)
(3 -2.35898e-16 0)
(3 -6.86567e-16 0)
(3 -7.68634e-16 0)
(3 -6.19962e-16 0)
(3 3.97219e-16 0)
(3 1.05404e-15 0)
(3 5.11026e-16 0)
(3 -7.64183e-16 0)
(3 -8.41811e-16 0)
(3 -9.15454e-17 0)
(3 5.96887e-16 0)
(3 1.05947e-15 0)
(3 1.50961e-15 0)
(3 2.83821e-15 0)
(3 2.72163e-15 0)
(3 1.87384e-15 0)
(3 1.01006e-15 0)
(3 1.22822e-15 0)
(3 1.24041e-15 0)
(3 1.78671e-15 0)
(3 1.79224e-15 0)
(3 1.30865e-15 0)
(3 3.26746e-16 0)
(3 -1.61104e-16 0)
(3 -2.27265e-16 0)
(3 2.17162e-16 0)
(3 4.55492e-16 0)
(3 1.34517e-15 0)
(3 8.37359e-16 0)
(3 -1.12652e-16 0)
(3 1.43593e-16 0)
(3 -2.17379e-16 0)
(3 -3.08205e-16 0)
(3 9.34715e-17 0)
(3 -2.07756e-16 0)
(3 -3.95389e-16 0)
(3 -6.19444e-16 0)
(3 -1.65904e-15 0)
(3 -2.36475e-15 0)
(3 -4.03634e-15 0)
(3 -3.6471e-15 0)
(3 -1.54277e-15 0)
(3 2.42078e-16 0)
(3 8.53384e-16 0)
(3 1.52893e-15 0)
(3 2.17754e-15 0)
(3 2.82399e-16 0)
(3 -4.98117e-16 0)
(3 -1.18568e-15 0)
(3 -1.1628e-15 0)
(3 -1.26519e-15 0)
(3 -1.10853e-15 0)
(3 -7.3047e-16 0)
(3 -1.09766e-15 0)
(3 -2.09847e-15 0)
(3 -2.37437e-15 0)
(3 -2.37671e-15 0)
(3 -2.11576e-15 0)
(3 -1.83107e-15 0)
(3 -1.05012e-15 0)
(3 -3.19657e-16 0)
(3 -3.71181e-16 0)
(3 -6.08411e-16 0)
(3 -2.5908e-16 0)
(3 6.29726e-16 0)
(3 4.11313e-16 0)
(3 1.63821e-16 0)
(3 -2.89333e-17 0)
(3 -1.95523e-17 0)
(3 1.02088e-15 0)
(3 1.37762e-15 0)
(3 1.36054e-15 0)
(3 1.30411e-15 0)
(3 7.58299e-16 0)
(3 1.38494e-15 0)
(3 5.62513e-16 0)
(3 2.43931e-16 0)
(3 -2.59955e-16 0)
(3 -7.49051e-16 0)
(3 -3.23006e-15 0)
(3 -4.29326e-15 0)
(3 -5.0571e-15 0)
(3 1.45564e-16 0)
(3 3.40739e-16 0)
(3 -3.00552e-17 0)
(3 8.43051e-17 0)
(3 8.80295e-17 0)
(3 -5.8037e-16 0)
(3 -6.04512e-16 0)
(3 -3.4455e-16 0)
(3 -2.63657e-16 0)
(3 -4.96891e-17 0)
(3 3.01843e-16 0)
(3 4.20277e-16 0)
(3 1.49333e-15 0)
(3 2.09825e-15 0)
(3 1.57091e-15 0)
(3 4.43626e-16 0)
(3 -3.01211e-17 0)
(3 -4.78132e-16 0)
(3 -4.84253e-16 0)
(3 -2.33907e-16 0)
(3 4.24527e-16 0)
(3 1.2941e-15 0)
(3 2.06569e-15 0)
(3 1.89347e-15 0)
(3 1.46711e-15 0)
(3 1.26792e-15 0)
(3 1.38554e-15 0)
(3 1.50864e-15 0)
(3 1.3642e-15 0)
(3 1.17455e-15 0)
(3 3.92562e-16 0)
(3 3.28514e-16 0)
(3 1.44407e-15 0)
(3 1.93863e-15 0)
(3 1.48728e-15 0)
(3 1.30516e-15 0)
(3 2.4731e-16 0)
(3 1.44136e-16 0)
(3 7.02548e-17 0)
(3 1.54761e-16 0)
(3 1.26181e-15 0)
(3 2.74453e-15 0)
(3 3.25936e-15 0)
(3 2.12745e-15 0)
(3 1.21559e-15 0)
(3 1.38224e-15 0)
(3 1.48095e-15 0)
(3 1.53292e-15 0)
(3 1.00089e-15 0)
(3 1.43666e-17 0)
(3 -2.42168e-15 0)
(3 -3.34651e-15 0)
(3 -2.57438e-15 0)
(3 -4.12197e-15 0)
(3 -4.09547e-15 0)
(3 -3.67859e-15 0)
(3 -3.12483e-15 0)
(3 -6.72773e-16 0)
(3 1.54893e-15 0)
(3 1.17816e-15 0)
(3 -2.17727e-16 0)
(3 -3.16555e-15 0)
(3 -3.14148e-15 0)
(3 -2.07964e-15 0)
(3 -7.59868e-16 0)
(3 -6.98198e-16 0)
(3 -5.09218e-16 0)
(3 -4.89624e-16 0)
(3 -6.33175e-16 0)
(3 -7.25713e-16 0)
(3 -1.29877e-15 0)
(3 -2.13068e-15 0)
(3 -2.31267e-15 0)
(3 -1.87507e-15 0)
(3 -1.68747e-15 0)
(3 -1.99249e-15 0)
(3 -2.09522e-15 0)
(3 -1.00407e-15 0)
(3 -8.25421e-16 0)
(3 -1.05372e-15 0)
(3 -1.37442e-15 0)
(3 -1.93529e-15 0)
(3 -1.40842e-15 0)
(3 -8.16712e-16 0)
(3 -4.55499e-16 0)
(3 -4.91492e-17 0)
(3 5.11001e-16 0)
(3 4.52897e-16 0)
(3 -1.56389e-16 0)
(3 -1.54006e-15 0)
(3 -1.88401e-15 0)
(3 -1.49931e-15 0)
(3 -1.20273e-16 0)
(3 -3.14283e-15 0)
(3 -3.85194e-15 0)
(3 -3.89233e-15 0)
(3 3.38194e-18 0)
(3 -6.34807e-18 0)
(3 1.2229e-16 0)
(3 1.37451e-16 0)
(3 -1.15919e-16 0)
(3 -3.5674e-17 0)
(3 8.00388e-17 0)
(3 1.31784e-16 0)
(3 1.79344e-16 0)
(3 7.01871e-16 0)
(3 1.03171e-15 0)
(3 1.20863e-15 0)
(3 1.41193e-15 0)
(3 1.68799e-15 0)
(3 1.70401e-15 0)
(3 1.30006e-15 0)
(3 5.83543e-16 0)
(3 3.47892e-16 0)
(3 -4.53266e-16 0)
(3 -6.63033e-16 0)
(3 -4.34028e-16 0)
(3 1.026e-15 0)
(3 2.14049e-15 0)
(3 2.30232e-15 0)
(3 2.37787e-15 0)
(3 2.17846e-15 0)
(3 1.57957e-15 0)
(3 7.33579e-16 0)
(3 3.89034e-16 0)
(3 2.01579e-16 0)
(3 5.22211e-17 0)
(3 1.52526e-16 0)
(3 5.81147e-16 0)
(3 -2.75854e-17 0)
(3 -3.10224e-16 0)
(3 -6.77517e-17 0)
(3 -8.98553e-17 0)
(3 8.8732e-16 0)
(3 1.30493e-15 0)
(3 1.58717e-15 0)
(3 1.85234e-15 0)
(3 1.94385e-15 0)
(3 2.31587e-15 0)
(3 2.68055e-15 0)
(3 1.96266e-15 0)
(3 1.63563e-15 0)
(3 1.15633e-15 0)
(3 7.22274e-16 0)
(3 5.80251e-16 0)
(3 8.51992e-16 0)
(3 7.16876e-16 0)
(3 4.68784e-16 0)
(3 5.09043e-16 0)
(3 -8.00483e-16 0)
(3 -1.81563e-15 0)
(3 -1.99652e-15 0)
(3 -1.35802e-15 0)
(3 -2.33534e-15 0)
(3 -2.66464e-15 0)
(3 -2.35225e-15 0)
(3 -2.69489e-15 0)
(3 -6.30175e-15 0)
(3 -8.00064e-15 0)
(3 -7.63986e-15 0)
(3 -5.96799e-15 0)
(3 -3.18237e-15 0)
(3 -1.72006e-15 0)
(3 2.57774e-16 0)
(3 1.19074e-15 0)
(3 1.28564e-15 0)
(3 1.30847e-15 0)
(3 7.69963e-16 0)
(3 8.34791e-16 0)
(3 8.41078e-16 0)
(3 2.18464e-17 0)
(3 -5.66308e-16 0)
(3 -9.81648e-16 0)
(3 -1.73196e-15 0)
(3 -2.40562e-15 0)
(3 -2.39774e-15 0)
(3 -2.86932e-15 0)
(3 -3.07413e-15 0)
(3 -3.00539e-15 0)
(3 -2.49324e-15 0)
(3 -1.2317e-15 0)
(3 4.59281e-16 0)
(3 1.27228e-15 0)
(3 1.38055e-15 0)
(3 -2.96258e-16 0)
(3 -5.2061e-16 0)
(3 -7.70503e-16 0)
(3 -1.30394e-16 0)
(3 1.2291e-16 0)
(3 -1.22519e-15 0)
(3 -2.4127e-15 0)
(3 -3.56319e-15 0)
(3 -1.38076e-16 0)
(3 -2.00739e-16 0)
(3 -3.12631e-16 0)
(3 -5.78519e-16 0)
(3 -6.83123e-16 0)
(3 -3.11242e-16 0)
(3 3.98093e-17 0)
(3 4.62445e-17 0)
(3 8.65084e-17 0)
(3 -1.0944e-16 0)
(3 -1.78417e-16 0)
(3 -2.68669e-16 0)
(3 -2.54112e-16 0)
(3 -1.50966e-16 0)
(3 4.11474e-17 0)
(3 2.28175e-16 0)
(3 -6.44814e-17 0)
(3 -1.13582e-15 0)
(3 -2.16519e-15 0)
(3 -1.98538e-15 0)
(3 -1.02458e-15 0)
(3 -7.5502e-16 0)
(3 -4.5005e-16 0)
(3 -5.74762e-17 0)
(3 1.32634e-16 0)
(3 -6.37764e-16 0)
(3 -7.05224e-16 0)
(3 -4.07628e-16 0)
(3 -3.19273e-16 0)
(3 4.92987e-16 0)
(3 8.98172e-16 0)
(3 1.05189e-16 0)
(3 -6.90007e-16 0)
(3 -9.51376e-16 0)
(3 -1.10352e-15 0)
(3 -1.11723e-15 0)
(3 -6.93347e-16 0)
(3 -8.39885e-16 0)
(3 -7.66741e-16 0)
(3 2.20037e-16 0)
(3 4.40025e-16 0)
(3 9.9501e-17 0)
(3 3.65145e-17 0)
(3 6.20033e-17 0)
(3 -1.83712e-16 0)
(3 -4.14039e-16 0)
(3 -5.60324e-16 0)
(3 2.80577e-16 0)
(3 8.93771e-16 0)
(3 1.86109e-15 0)
(3 1.70104e-15 0)
(3 1.58211e-15 0)
(3 1.62899e-15 0)
(3 3.45062e-15 0)
(3 2.23377e-15 0)
(3 1.02119e-15 0)
(3 7.0889e-16 0)
(3 -6.36627e-16 0)
(3 -2.63449e-15 0)
(3 -2.91888e-15 0)
(3 -3.68965e-15 0)
(3 -5.81946e-15 0)
(3 -6.55835e-15 0)
(3 -6.56799e-15 0)
(3 -4.20372e-15 0)
(3 3.12404e-16 0)
(3 2.32639e-15 0)
(3 3.81983e-15 0)
(3 3.01386e-15 0)
(3 2.80417e-15 0)
(3 3.57087e-15 0)
(3 3.64488e-15 0)
(3 3.17157e-15 0)
(3 2.49299e-15 0)
(3 1.88475e-15 0)
(3 4.245e-16 0)
(3 -1.3235e-15 0)
(3 -2.06432e-15 0)
(3 -3.05693e-15 0)
(3 -2.41606e-15 0)
(3 -1.56345e-15 0)
(3 -1.71713e-15 0)
(3 -1.99015e-15 0)
(3 -1.19042e-15 0)
(3 3.2477e-16 0)
(3 1.01364e-15 0)
(3 8.7786e-16 0)
(3 1.83707e-15 0)
(3 3.04167e-15 0)
(3 3.21987e-15 0)
(3 3.11278e-15 0)
(3 2.34541e-15 0)
(3 6.00675e-16 0)
(3 3.18844e-16 0)
(3 4.58381e-16 0)
(3 -2.45742e-16 0)
(3 -1.60089e-17 0)
(3 5.09244e-18 0)
(3 -2.75702e-16 0)
(3 -1.53091e-16 0)
(3 -1.87367e-16 0)
(3 -3.4151e-16 0)
(3 -2.08889e-16 0)
(3 2.73969e-16 0)
(3 1.97181e-16 0)
(3 -6.45272e-16 0)
(3 -4.97244e-16 0)
(3 -4.47669e-16 0)
(3 -3.56821e-16 0)
(3 -4.28396e-16 0)
(3 -2.07226e-16 0)
(3 -8.49876e-17 0)
(3 -1.19112e-15 0)
(3 -1.98155e-15 0)
(3 -2.82098e-15 0)
(3 -2.87974e-15 0)
(3 -2.32515e-15 0)
(3 -1.62728e-15 0)
(3 -1.69207e-15 0)
(3 -2.00433e-15 0)
(3 -1.71554e-15 0)
(3 -1.50114e-15 0)
(3 -1.90622e-15 0)
(3 -1.71709e-15 0)
(3 -6.22468e-16 0)
(3 6.79648e-17 0)
(3 5.94876e-17 0)
(3 -7.59304e-17 0)
(3 -8.7974e-17 0)
(3 3.85636e-16 0)
(3 8.41874e-16 0)
(3 5.71943e-16 0)
(3 -3.27056e-16 0)
(3 -7.47832e-16 0)
(3 -1.43091e-16 0)
(3 4.01329e-16 0)
(3 6.5841e-16 0)
(3 7.41718e-16 0)
(3 2.50012e-16 0)
(3 1.70977e-17 0)
(3 -1.15663e-18 0)
(3 2.73187e-16 0)
(3 1.06952e-15 0)
(3 1.82231e-15 0)
(3 2.5046e-15 0)
(3 2.35296e-15 0)
(3 2.10321e-15 0)
(3 2.35186e-15 0)
(3 3.2089e-15 0)
(3 4.5649e-15 0)
(3 5.32261e-15 0)
(3 4.67394e-15 0)
(3 2.68472e-15 0)
(3 8.44983e-19 0)