/*--------------------------------*- C++ -*----------------------------------*\
  =========                 |
  \\      /  F ield         | OpenFOAM: The Open Source CFD Toolbox
   \\    /   O peration     | Website:  https://openfoam.org
    \\  /    A nd           | Version:  7
     \\/     M anipulation  |
\*---------------------------------------------------------------------------*/
FoamFile
{
    version     2.0;
    format      ascii;
    class       volVectorField;
    location    "2.8";
    object      U;
}
// * * * * * * * * * * * * * * * * * * * * * * * * * * * * * * * * * * * * * //

dimensions      [0 1 -1 0 0 0 0];

internalField   nonuniform List<vector> 
73728
(
(3 2.71455e-17 0)
(3 2.8586e-17 0)
(3 -2.15035e-17 0)
(3 9.15808e-18 0)
(3 -1.15378e-16 0)
(3 -1.04713e-16 0)
(3 -4.98042e-17 0)
(3 -1.35064e-16 0)
(3 -2.00839e-16 0)
(3 -5.37277e-16 0)
(3 -5.31456e-16 0)
(3 6.24723e-16 0)
(3 1.36186e-15 0)
(3 7.44759e-16 0)
(3 2.52868e-16 0)
(3 -5.2214e-16 0)
(3 -7.27007e-16 0)
(3 -1.05772e-16 0)
(3 7.63339e-16 0)
(3 1.13565e-15 0)
(3 2.24483e-15 0)
(3 1.33409e-15 0)
(3 9.08463e-16 0)
(3 9.62301e-16 0)
(3 1.5923e-15 0)
(3 1.2675e-15 0)
(3 1.0053e-15 0)
(3 8.45857e-16 0)
(3 5.82246e-16 0)
(3 -1.41033e-16 0)
(3 -6.18453e-16 0)
(3 -1.9041e-16 0)
(3 4.29068e-17 0)
(3 -2.39294e-16 0)
(3 -2.88319e-16 0)
(3 -3.25103e-16 0)
(3 -1.09283e-15 0)
(3 -1.65446e-15 0)
(3 -1.59922e-15 0)
(3 -4.92811e-16 0)
(3 -1.86968e-16 0)
(3 -3.50502e-16 0)
(3 -1.21531e-15 0)
(3 -1.21235e-15 0)
(3 -4.88667e-16 0)
(3 -2.81427e-16 0)
(3 -6.27494e-16 0)
(3 -5.45012e-16 0)
(3 -6.15718e-16 0)
(3 2.17167e-16 0)
(3 5.88746e-16 0)
(3 9.92864e-16 0)
(3 1.69019e-15 0)
(3 2.45715e-15 0)
(3 5.08905e-16 0)
(3 -2.13995e-16 0)
(3 -3.14644e-16 0)
(3 5.35174e-16 0)
(3 4.47937e-16 0)
(3 2.60973e-16 0)
(3 3.4557e-16 0)
(3 -4.67775e-17 0)
(3 -3.1348e-16 0)
(3 -4.29412e-16 0)
(3 -1.01715e-15 0)
(3 -1.36588e-15 0)
(3 -6.15402e-16 0)
(3 3.00283e-16 0)
(3 2.89629e-17 0)
(3 1.29101e-16 0)
(3 5.03521e-16 0)
(3 5.31653e-16 0)
(3 5.44842e-16 0)
(3 6.14811e-16 0)
(3 -7.20399e-17 0)
(3 -6.83951e-16 0)
(3 -9.91972e-16 0)
(3 -6.78054e-16 0)
(3 -2.70494e-16 0)
(3 3.20473e-16 0)
(3 -2.2242e-16 0)
(3 -2.32503e-16 0)
(3 -2.08512e-16 0)
(3 7.38174e-17 0)
(3 -3.66216e-16 0)
(3 -1.37111e-15 0)
(3 -1.06508e-15 0)
(3 -7.09858e-16 0)
(3 6.75911e-17 0)
(3 -5.1705e-17 0)
(3 -4.4375e-16 0)
(3 -5.70152e-16 0)
(3 -6.37051e-16 0)
(3 -7.33613e-16 0)
(3 -7.50183e-16 0)
(3 -5.91829e-16 0)
(3 9.58611e-17 0)
(3 2.36509e-16 0)
(3 5.20344e-16 0)
(3 8.24428e-16 0)
(3 6.33394e-16 0)
(3 5.41494e-16 0)
(3 2.5548e-16 0)
(3 8.15458e-18 0)
(3 -4.59028e-16 0)
(3 -1.55204e-15 0)
(3 -1.64093e-15 0)
(3 -6.61101e-17 0)
(3 6.78752e-16 0)
(3 7.45964e-16 0)
(3 2.84704e-16 0)
(3 -5.31904e-16 0)
(3 -1.50112e-15 0)
(3 -1.38172e-15 0)
(3 5.4727e-16 0)
(3 1.26459e-15 0)
(3 2.85441e-15 0)
(3 1.80616e-15 0)
(3 7.59322e-16 0)
(3 6.90943e-16 0)
(3 2.06889e-15 0)
(3 1.49353e-15 0)
(3 -1.77845e-16 0)
(3 -3.67134e-16 0)
(3 -5.37083e-16 0)
(3 -1.10549e-15 0)
(3 -1.20911e-15 0)
(3 -1.59776e-16 0)
(3 -7.5271e-16 0)
(3 -9.13544e-16 0)
(3 -5.25732e-16 0)
(3 -7.0643e-16 0)
(3 -2.40403e-15 0)
(3 -2.87247e-15 0)
(3 -2.53599e-15 0)
(3 -1.67567e-15 0)
(3 1.86855e-17 0)
(3 -4.15817e-16 0)
(3 -1.24189e-15 0)
(3 -2.0571e-15 0)
(3 -1.64361e-15 0)
(3 -1.40016e-15 0)
(3 -1.82406e-15 0)
(3 -1.25375e-15 0)
(3 -8.10054e-16 0)
(3 1.77442e-17 0)
(3 9.80314e-16 0)
(3 1.62612e-15 0)
(3 2.42035e-15 0)
(3 2.81077e-15 0)
(3 8.63268e-16 0)
(3 -1.35216e-15 0)
(3 -1.69556e-15 0)
(3 -1.52834e-15 0)
(3 -6.76455e-16 0)
(3 -1.48546e-16 0)
(3 -4.77864e-16 0)
(3 -2.76446e-16 0)
(3 1.892e-16 0)
(3 6.53155e-17 0)
(3 -2.94728e-16 0)
(3 -7.36217e-16 0)
(3 -7.72438e-16 0)
(3 -3.20664e-16 0)
(3 -7.81032e-16 0)
(3 -3.51828e-16 0)
(3 3.31824e-16 0)
(3 9.39898e-16 0)
(3 9.26274e-16 0)
(3 -2.88264e-16 0)
(3 -6.75623e-16 0)
(3 -1.46668e-15 0)
(3 -1.3108e-15 0)
(3 -7.7364e-16 0)
(3 -8.72141e-16 0)
(3 9.34954e-17 0)
(3 7.0727e-16 0)
(3 1.49594e-15 0)
(3 9.14943e-16 0)
(3 4.71461e-16 0)
(3 -1.94652e-15 0)
(3 -2.22849e-15 0)
(3 -6.64665e-16 0)
(3 -3.28972e-16 0)
(3 1.09828e-15 0)
(3 1.25806e-15 0)
(3 2.59149e-17 0)
(3 -9.4093e-17 0)
(3 1.80122e-16 0)
(3 9.98209e-16 0)
(3 1.5748e-15 0)
(3 1.25925e-15 0)
(3 -2.32395e-17 0)
(3 6.17619e-16 0)
(3 6.92724e-16 0)
(3 5.16843e-16 0)
(3 4.42918e-16 0)
(3 1.0789e-16 0)
(3 -3.88305e-16 0)
(3 -8.37189e-16 0)
(3 -8.98378e-16 0)
(3 -1.17091e-15 0)
(3 -7.24891e-16 0)
(3 -5.35322e-16 0)
(3 -4.73207e-16 0)
(3 -1.62087e-16 0)
(3 -1.07085e-15 0)
(3 -1.8405e-15 0)
(3 -2.23365e-15 0)
(3 -2.76559e-15 0)
(3 -1.45469e-15 0)
(3 8.39479e-16 0)
(3 5.82854e-16 0)
(3 4.90845e-16 0)
(3 6.25267e-16 0)
(3 1.69303e-15 0)
(3 2.65473e-15 0)
(3 2.91731e-15 0)
(3 1.35081e-15 0)
(3 5.40361e-16 0)
(3 9.1522e-16 0)
(3 1.41569e-15 0)
(3 5.44855e-16 0)
(3 -1.57221e-16 0)
(3 -5.29133e-16 0)
(3 8.6066e-18 0)
(3 4.9368e-16 0)
(3 -3.01453e-16 0)
(3 -9.14311e-16 0)
(3 -2.06055e-15 0)
(3 -2.95498e-15 0)
(3 -3.1139e-15 0)
(3 -2.4879e-15 0)
(3 -1.96132e-15 0)
(3 -1.67155e-15 0)
(3 -2.04435e-15 0)
(3 -2.22358e-15 0)
(3 -1.65637e-15 0)
(3 -1.12928e-15 0)
(3 -6.11717e-16 0)
(3 3.48084e-16 0)
(3 4.94084e-16 0)
(3 3.88162e-16 0)
(3 9.84705e-16 0)
(3 2.49527e-15 0)
(3 3.21033e-15 0)
(3 2.98924e-15 0)
(3 2.38473e-15 0)
(3 5.05615e-16 0)
(3 -9.91755e-16 0)
(3 -1.18774e-15 0)
(3 -5.79376e-16 0)
(3 -4.5678e-16 0)
(3 -2.42037e-16 0)
(3 -6.01236e-16 0)
(3 -5.50134e-16 0)
(3 -1.4197e-15 0)
(3 -1.71946e-15 0)
(3 -7.08013e-16 0)
(3 -4.57744e-16 0)
(3 4.25021e-16 0)
(3 1.59963e-15 0)
(3 2.05256e-15 0)
(3 2.21348e-15 0)
(3 1.05503e-15 0)
(3 -1.65632e-15 0)
(3 -2.68536e-15 0)
(3 -1.70127e-15 0)
(3 -1.40783e-15 0)
(3 -1.85537e-15 0)
(3 -2.36663e-15 0)
(3 1.43121e-16 0)
(3 1.92885e-15 0)
(3 3.27834e-15 0)
(3 3.58177e-15 0)
(3 -3.35236e-16 0)
(3 -3.75902e-15 0)
(3 -2.90352e-15 0)
(3 -2.43032e-16 0)
(3 1.18943e-17 0)
(3 1.46665e-15 0)
(3 1.19936e-15 0)
(3 2.38315e-16 0)
(3 -1.0576e-16 0)
(3 -3.06407e-16 0)
(3 -2.75945e-16 0)
(3 -4.4755e-16 0)
(3 1.75549e-16 0)
(3 -2.78342e-16 0)
(3 -2.57698e-16 0)
(3 -3.40142e-16 0)
(3 -3.9528e-16 0)
(3 -3.05023e-16 0)
(3 -4.29634e-16 0)
(3 -7.50955e-16 0)
(3 -8.96977e-16 0)
(3 -8.48788e-16 0)
(3 -6.11278e-16 0)
(3 -1.12397e-16 0)
(3 -5.50308e-16 0)
(3 -7.40265e-16 0)
(3 -1.30176e-15 0)
(3 -2.24256e-15 0)
(3 -1.90362e-15 0)
(3 -1.20362e-15 0)
(3 -6.60101e-16 0)
(3 -6.29367e-16 0)
(3 -9.91921e-16 0)
(3 -2.88899e-16 0)
(3 2.88725e-16 0)
(3 1.33426e-15 0)
(3 2.24954e-15 0)
(3 2.5088e-15 0)
(3 2.17341e-15 0)
(3 1.69076e-15 0)
(3 6.72883e-16 0)
(3 4.19049e-17 0)
(3 3.91946e-16 0)
(3 9.05482e-16 0)
(3 9.51501e-16 0)
(3 1.6834e-16 0)
(3 -3.71595e-16 0)
(3 -1.13256e-16 0)
(3 1.568e-16 0)
(3 -1.06459e-16 0)
(3 -9.5469e-16 0)
(3 -1.75621e-15 0)
(3 -1.99173e-15 0)
(3 -2.65121e-15 0)
(3 -2.93893e-15 0)
(3 -2.72253e-15 0)
(3 -2.50526e-15 0)
(3 -2.47972e-15 0)
(3 -1.19467e-15 0)
(3 -3.55103e-16 0)
(3 6.61677e-16 0)
(3 1.35132e-15 0)
(3 1.66806e-15 0)
(3 1.13136e-15 0)
(3 1.00276e-15 0)
(3 1.7495e-15 0)
(3 2.81553e-15 0)
(3 3.12203e-15 0)
(3 2.28041e-15 0)
(3 1.2238e-15 0)
(3 6.62208e-16 0)
(3 -5.90112e-16 0)
(3 -8.20416e-16 0)
(3 4.74648e-16 0)
(3 4.2318e-16 0)
(3 -1.28931e-15 0)
(3 -2.08846e-15 0)
(3 -2.72324e-15 0)
(3 -2.12116e-15 0)
(3 -1.37043e-15 0)
(3 -1.00305e-15 0)
(3 3.97761e-16 0)
(3 1.83584e-15 0)
(3 2.11671e-15 0)
(3 1.74456e-15 0)
(3 5.24762e-16 0)
(3 -1.00437e-15 0)
(3 -1.53425e-15 0)
(3 -2.01096e-17 0)
(3 3.43143e-16 0)
(3 6.67574e-16 0)
(3 1.16386e-15 0)
(3 6.55162e-16 0)
(3 1.11505e-16 0)
(3 -1.62154e-16 0)
(3 5.0746e-16 0)
(3 -3.13436e-16 0)
(3 -2.1428e-15 0)
(3 -2.85349e-15 0)
(3 -2.34039e-15 0)
(3 -1.3671e-15 0)
(3 1.87673e-16 0)
(3 1.56822e-15 0)
(3 1.3269e-15 0)
(3 8.49883e-16 0)
(3 3.46551e-16 0)
(3 -2.49949e-16 0)
(3 -9.54699e-16 0)
(3 -7.42424e-16 0)
(3 6.24405e-17 0)
(3 -6.98069e-16 0)
(3 -2.59767e-16 0)
(3 3.15325e-16 0)
(3 1.05895e-15 0)
(3 1.05838e-15 0)
(3 1.11483e-15 0)
(3 1.22841e-15 0)
(3 5.94254e-17 0)
(3 2.15713e-16 0)
(3 -1.11138e-16 0)
(3 -8.94279e-16 0)
(3 -1.124e-15 0)
(3 -9.70052e-16 0)
(3 -2.85459e-16 0)
(3 3.80169e-16 0)
(3 8.66092e-16 0)
(3 1.33386e-15 0)
(3 1.51509e-16 0)
(3 -1.39636e-15 0)
(3 -5.44283e-16 0)
(3 1.09249e-15 0)
(3 1.22703e-15 0)
(3 1.34528e-15 0)
(3 1.38591e-15 0)
(3 9.55212e-16 0)
(3 2.8607e-16 0)
(3 -1.18488e-15 0)
(3 -2.13825e-15 0)
(3 -2.33651e-15 0)
(3 -7.25281e-16 0)
(3 1.48237e-16 0)
(3 -1.70222e-16 0)
(3 -1.01791e-15 0)
(3 -1.54778e-16 0)
(3 3.96643e-16 0)
(3 9.19182e-16 0)
(3 8.51673e-16 0)
(3 3.62432e-16 0)
(3 1.2919e-17 0)
(3 -9.34986e-16 0)
(3 -1.36858e-15 0)
(3 -2.46123e-15 0)
(3 -2.69568e-15 0)
(3 -2.54412e-15 0)
(3 -1.45373e-15 0)
(3 3.72098e-16 0)
(3 1.42371e-15 0)
(3 1.87201e-15 0)
(3 2.29908e-15 0)
(3 2.1573e-15 0)
(3 1.49706e-15 0)
(3 1.43213e-15 0)
(3 1.60977e-15 0)
(3 1.32429e-15 0)
(3 1.80085e-16 0)
(3 -6.57621e-16 0)
(3 -5.14821e-16 0)
(3 -5.52053e-16 0)
(3 -1.06262e-15 0)
(3 -1.29577e-16 0)
(3 4.78347e-16 0)
(3 -6.37674e-16 0)
(3 -2.77024e-15 0)
(3 -3.06816e-15 0)
(3 -3.04787e-15 0)
(3 -3.29038e-15 0)
(3 -3.61951e-15 0)
(3 -2.63122e-15 0)
(3 -6.09386e-16 0)
(3 8.46924e-16 0)
(3 1.02199e-15 0)
(3 5.72104e-16 0)
(3 -4.74012e-16 0)
(3 -3.44183e-16 0)
(3 3.47644e-16 0)
(3 2.38306e-15 0)
(3 3.07611e-15 0)
(3 3.36743e-15 0)
(3 1.94583e-15 0)
(3 8.77203e-16 0)
(3 4.33947e-16 0)
(3 -7.90039e-16 0)
(3 -1.52102e-15 0)
(3 -2.31416e-15 0)
(3 -2.60794e-15 0)
(3 -2.83129e-15 0)
(3 -1.6495e-15 0)
(3 -7.68393e-16 0)
(3 9.91447e-16 0)
(3 1.6183e-15 0)
(3 1.5173e-15 0)
(3 1.14497e-15 0)
(3 8.62227e-16 0)
(3 5.74472e-16 0)
(3 -2.30662e-16 0)
(3 -1.37692e-17 0)
(3 2.38146e-16 0)
(3 4.86734e-16 0)
(3 5.1676e-16 0)
(3 5.86542e-16 0)
(3 6.87165e-16 0)
(3 1.42657e-15 0)
(3 1.10828e-15 0)
(3 5.02892e-16 0)
(3 3.18777e-16 0)
(3 9.06527e-16 0)
(3 1.12287e-15 0)
(3 5.59762e-16 0)
(3 3.10819e-16 0)
(3 5.94219e-16 0)
(3 6.90612e-16 0)
(3 4.4737e-16 0)
(3 2.81285e-17 0)
(3 -4.45202e-17 0)
(3 -1.2388e-16 0)
(3 4.23441e-16 0)
(3 7.74954e-16 0)
(3 6.87108e-16 0)
(3 2.9317e-16 0)
(3 6.8962e-17 0)
(3 -6.25582e-16 0)
(3 -1.40985e-15 0)
(3 -1.79283e-15 0)
(3 -2.39205e-15 0)
(3 -2.85767e-15 0)
(3 -2.83257e-15 0)
(3 -2.59008e-15 0)
(3 -1.76456e-15 0)
(3 -1.48948e-15 0)
(3 -1.36718e-15 0)
(3 -7.19501e-16 0)
(3 1.74155e-17 0)
(3 8.53528e-16 0)
(3 8.2523e-16 0)
(3 -2.35495e-16 0)
(3 -3.55586e-16 0)
(3 -5.6094e-16 0)
(3 -9.53696e-16 0)
(3 -1.24497e-15 0)
(3 -1.32125e-15 0)
(3 -7.94257e-16 0)
(3 6.69993e-16 0)
(3 6.82253e-16 0)
(3 1.16638e-15 0)
(3 1.873e-15 0)
(3 1.79417e-15 0)
(3 2.10247e-15 0)
(3 2.09849e-15 0)
(3 1.9738e-15 0)
(3 1.42429e-15 0)
(3 1.58496e-16 0)
(3 -1.33216e-15 0)
(3 -1.23709e-15 0)
(3 -5.02488e-16 0)
(3 -5.36536e-18 0)
(3 -6.73256e-16 0)
(3 -8.38915e-16 0)
(3 -1.90882e-15 0)
(3 -2.28223e-15 0)
(3 -2.99049e-15 0)
(3 -3.05677e-15 0)
(3 -3.41443e-15 0)
(3 -4.14867e-15 0)
(3 -3.41736e-15 0)
(3 -2.71754e-15 0)
(3 -1.45848e-15 0)
(3 -2.24756e-16 0)
(3 1.98422e-16 0)
(3 8.53943e-16 0)
(3 9.07143e-16 0)
(3 3.55431e-16 0)
(3 1.65468e-15 0)
(3 2.81394e-15 0)
(3 2.52629e-15 0)
(3 1.0882e-15 0)
(3 -4.85541e-16 0)
(3 -1.17688e-15 0)
(3 -2.74744e-15 0)
(3 -3.12251e-15 0)
(3 -2.79709e-15 0)
(3 -1.95822e-15 0)
(3 -1.66695e-15 0)
(3 -1.39969e-15 0)
(3 -9.68636e-16 0)
(3 -2.73115e-17 0)
(3 1.00103e-15 0)
(3 2.00774e-15 0)
(3 2.46426e-15 0)
(3 1.36619e-15 0)
(3 9.65794e-16 0)
(3 -8.35704e-17 0)
(3 -1.03238e-16 0)
(3 -1.59219e-17 0)
(3 3.37605e-17 0)
(3 -2.6934e-16 0)
(3 -9.63436e-16 0)
(3 -6.72907e-16 0)
(3 -1.77146e-16 0)
(3 2.9162e-16 0)
(3 7.63723e-16 0)
(3 8.90243e-16 0)
(3 1.73169e-15 0)
(3 2.47686e-15 0)
(3 2.51978e-15 0)
(3 1.49699e-15 0)
(3 4.83188e-16 0)
(3 4.33187e-16 0)
(3 3.01645e-16 0)
(3 -8.76391e-17 0)
(3 8.80356e-17 0)
(3 5.45907e-16 0)
(3 1.24031e-15 0)
(3 1.25468e-15 0)
(3 3.62146e-16 0)
(3 -4.13926e-16 0)
(3 -1.29925e-15 0)
(3 -1.69298e-15 0)
(3 -1.6315e-15 0)
(3 -9.47274e-17 0)
(3 1.71832e-16 0)
(3 -8.29131e-16 0)
(3 -2.18247e-15 0)
(3 -2.86931e-15 0)
(3 -2.78629e-15 0)
(3 -2.44302e-15 0)
(3 -2.15065e-15 0)
(3 -1.7351e-15 0)
(3 -8.50543e-16 0)
(3 -1.03299e-15 0)
(3 -1.07474e-15 0)
(3 -9.19651e-16 0)
(3 -5.48254e-16 0)
(3 2.41198e-16 0)
(3 1.55098e-15 0)
(3 1.07667e-15 0)
(3 3.35804e-16 0)
(3 1.53342e-17 0)
(3 2.32929e-16 0)
(3 -8.97181e-18 0)
(3 6.63947e-16 0)
(3 1.33559e-15 0)
(3 1.89645e-15 0)
(3 2.282e-15 0)
(3 2.15207e-15 0)
(3 1.74065e-15 0)
(3 1.05885e-15 0)
(3 6.18778e-16 0)
(3 3.14468e-16 0)
(3 4.39753e-16 0)
(3 7.757e-16 0)
(3 3.12209e-16 0)
(3 -7.85067e-16 0)
(3 -1.9868e-15 0)
(3 -1.87569e-15 0)
(3 -9.39364e-16 0)
(3 -1.72754e-15 0)
(3 -2.57664e-15 0)
(3 -2.73586e-15 0)
(3 -3.04504e-15 0)
(3 -3.5187e-15 0)
(3 -3.85935e-15 0)
(3 -2.20581e-15 0)
(3 4.68364e-16 0)
(3 1.23462e-15 0)
(3 1.97416e-15 0)
(3 2.02067e-15 0)
(3 1.95553e-15 0)
(3 1.70352e-15 0)
(3 5.26392e-16 0)
(3 -1.02626e-16 0)
(3 -1.13303e-15 0)
(3 -2.03902e-15 0)
(3 -3.48782e-15 0)
(3 -2.80239e-15 0)
(3 -2.61062e-15 0)
(3 -2.33717e-15 0)
(3 -1.43813e-15 0)
(3 -9.17658e-16 0)
(3 -1.13885e-15 0)
(3 -1.25216e-15 0)
(3 -8.89936e-16 0)
(3 -1.26366e-16 0)
(3 8.66754e-16 0)
(3 1.60019e-15 0)
(3 7.44226e-16 0)
(3 -1.36403e-16 0)
(3 -1.71286e-16 0)
(3 2.01881e-16 0)
(3 1.56067e-16 0)
(3 -4.03443e-16 0)
(3 -8.37599e-16 0)
(3 -6.56099e-16 0)
(3 -3.89389e-16 0)
(3 -8.32498e-16 0)
(3 -3.59354e-16 0)
(3 6.43244e-16 0)
(3 6.40604e-16 0)
(3 4.6611e-16 0)
(3 5.70667e-16 0)
(3 9.40291e-16 0)
(3 5.10654e-16 0)
(3 1.8396e-16 0)
(3 -1.3282e-16 0)
(3 -3.72878e-16 0)
(3 -4.98728e-16 0)
(3 -6.12919e-16 0)
(3 1.01946e-16 0)
(3 2.78612e-16 0)
(3 4.5132e-16 0)
(3 5.93865e-16 0)
(3 2.48087e-16 0)
(3 4.22371e-16 0)
(3 1.12211e-15 0)
(3 1.06942e-15 0)
(3 1.3101e-15 0)
(3 1.75136e-15 0)
(3 7.88016e-16 0)
(3 -1.26439e-15 0)
(3 -2.69847e-15 0)
(3 -3.32417e-15 0)
(3 -4.3126e-15 0)
(3 -3.37485e-15 0)
(3 -1.90716e-15 0)
(3 -1.5304e-15 0)
(3 -1.56421e-15 0)
(3 -1.51537e-15 0)
(3 -8.40338e-16 0)
(3 6.61406e-16 0)
(3 1.63959e-15 0)
(3 1.80866e-15 0)
(3 1.80092e-15 0)
(3 1.75372e-15 0)
(3 5.0822e-16 0)
(3 -1.05054e-16 0)
(3 -3.72523e-16 0)
(3 -4.04114e-16 0)
(3 -5.66931e-16 0)
(3 2.01199e-16 0)
(3 5.4885e-16 0)
(3 1.15267e-17 0)
(3 -1.21872e-15 0)
(3 -1.86296e-15 0)
(3 -1.52292e-15 0)
(3 -1.1881e-15 0)
(3 1.46541e-16 0)
(3 8.39448e-16 0)
(3 1.06198e-15 0)
(3 5.70995e-16 0)
(3 -4.48317e-16 0)
(3 2.01135e-17 0)
(3 -3.91069e-16 0)
(3 -1.52909e-15 0)
(3 -1.90839e-15 0)
(3 -1.80759e-15 0)
(3 -1.65367e-15 0)
(3 -1.6246e-15 0)
(3 -1.45653e-15 0)
(3 -1.25342e-15 0)
(3 -1.06038e-15 0)
(3 -4.1941e-16 0)
(3 2.96363e-17 0)
(3 9.78072e-16 0)
(3 3.62229e-16 0)
(3 -5.55069e-16 0)
(3 -1.31832e-15 0)
(3 -1.90823e-15 0)
(3 -2.88953e-15 0)
(3 -3.57442e-15 0)
(3 -3.75133e-15 0)
(3 -3.46557e-15 0)
(3 -2.74785e-15 0)
(3 -2.59084e-15 0)
(3 -2.63008e-15 0)
(3 -1.45942e-15 0)
(3 -9.69419e-16 0)
(3 -8.50904e-16 0)
(3 -7.48962e-16 0)
(3 -3.65539e-16 0)
(3 1.265e-16 0)
(3 1.31439e-15 0)
(3 1.77898e-15 0)
(3 1.40996e-15 0)
(3 1.31195e-15 0)
(3 1.81083e-16 0)
(3 1.87014e-16 0)
(3 4.2287e-19 0)
(3 1.28759e-17 0)
(3 1.10149e-16 0)
(3 -2.02933e-16 0)
(3 4.85665e-17 0)
(3 2.15158e-16 0)
(3 6.85252e-17 0)
(3 5.84616e-17 0)
(3 9.82827e-17 0)
(3 4.60811e-17 0)
(3 -1.29982e-16 0)
(3 -8.19899e-17 0)
(3 -1.21748e-17 0)
(3 -2.84275e-16 0)
(3 -3.59461e-16 0)
(3 2.79814e-16 0)
(3 8.65031e-16 0)
(3 4.4057e-16 0)
(3 3.70419e-17 0)
(3 -1.48262e-17 0)
(3 4.84022e-16 0)
(3 1.60722e-15 0)
(3 2.35904e-15 0)
(3 3.05163e-15 0)
(3 3.2795e-15 0)
(3 2.72974e-15 0)
(3 2.07573e-15 0)
(3 8.93681e-16 0)
(3 -2.14992e-15 0)
(3 -3.20562e-15 0)
(3 -3.23085e-15 0)
(3 -2.99822e-15 0)
(3 -1.8482e-15 0)
(3 -1.60634e-15 0)
(3 -8.47894e-16 0)
(3 -1.58138e-15 0)
(3 -2.1237e-15 0)
(3 -8.21348e-16 0)
(3 -1.35348e-16 0)
(3 -4.2405e-16 0)
(3 1.01828e-15 0)
(3 1.88855e-15 0)
(3 2.59355e-15 0)
(3 2.42805e-15 0)
(3 1.67696e-15 0)
(3 7.84744e-16 0)
(3 6.92803e-17 0)
(3 -1.09779e-15 0)
(3 -1.23702e-15 0)
(3 -8.29441e-16 0)
(3 -2.81123e-15 0)
(3 -4.64028e-15 0)
(3 -4.26459e-15 0)
(3 -3.69016e-15 0)
(3 -3.4311e-15 0)
(3 -1.44332e-15 0)
(3 8.59048e-16 0)
(3 1.51723e-15 0)
(3 1.86182e-15 0)
(3 1.76513e-15 0)
(3 1.12436e-15 0)
(3 2.34378e-16 0)
(3 -4.43138e-16 0)
(3 -7.83344e-16 0)
(3 -1.37608e-15 0)
(3 -1.33746e-15 0)
(3 -1.34467e-15 0)
(3 -1.01498e-15 0)
(3 -1.51824e-15 0)
(3 -1.9046e-15 0)
(3 -1.80397e-15 0)
(3 -7.88735e-16 0)
(3 -6.90536e-16 0)
(3 -1.21758e-15 0)
(3 -2.21545e-15 0)
(3 -2.07462e-15 0)
(3 -2.078e-15 0)
(3 -2.54856e-15 0)
(3 -2.92459e-15 0)
(3 -2.63169e-15 0)
(3 -3.20501e-15 0)
(3 -3.10281e-15 0)
(3 -2.87497e-15 0)
(3 -2.21146e-15 0)
(3 -7.78255e-16 0)
(3 1.18206e-15 0)
(3 1.52427e-15 0)
(3 1.14496e-15 0)
(3 7.83038e-16 0)
(3 1.143e-15 0)
(3 1.74424e-15 0)
(3 3.41905e-15 0)
(3 3.84101e-15 0)
(3 3.03659e-15 0)
(3 -1.04038e-16 0)
(3 1.56784e-17 0)
(3 4.60206e-16 0)
(3 8.10262e-16 0)
(3 5.34058e-16 0)
(3 6.73773e-17 0)
(3 9.52285e-17 0)
(3 3.60985e-16 0)
(3 2.87258e-16 0)
(3 3.05125e-16 0)
(3 3.88062e-16 0)
(3 8.58446e-16 0)
(3 1.20169e-15 0)
(3 1.14811e-15 0)
(3 6.50559e-16 0)
(3 2.93627e-16 0)
(3 4.78531e-16 0)
(3 6.31941e-16 0)
(3 1.09856e-15 0)
(3 1.32497e-15 0)
(3 1.29218e-15 0)
(3 7.599e-16 0)
(3 2.54628e-16 0)
(3 2.18167e-16 0)
(3 1.03622e-15 0)
(3 2.86784e-15 0)
(3 4.25465e-15 0)
(3 4.54703e-15 0)
(3 1.09855e-15 0)
(3 -9.22762e-16 0)
(3 -2.18948e-15 0)
(3 -3.3191e-15 0)
(3 -3.6541e-15 0)
(3 -1.38412e-15 0)
(3 -1.0056e-15 0)
(3 -1.46021e-15 0)
(3 -1.13605e-15 0)
(3 -4.33935e-16 0)
(3 -2.89313e-16 0)
(3 -3.9994e-16 0)
(3 -5.8944e-16 0)
(3 -3.69445e-16 0)
(3 6.43638e-16 0)
(3 1.60402e-15 0)
(3 1.89963e-15 0)
(3 2.6197e-15 0)
(3 2.45819e-15 0)
(3 1.07375e-15 0)
(3 3.5255e-16 0)
(3 -2.81235e-16 0)
(3 -1.14923e-15 0)
(3 -1.03662e-15 0)
(3 -2.14095e-15 0)
(3 -3.87501e-15 0)
(3 -3.39354e-15 0)
(3 -2.52927e-15 0)
(3 -1.78932e-15 0)
(3 -2.21423e-16 0)
(3 -2.85514e-17 0)
(3 1.21239e-15 0)
(3 1.35175e-15 0)
(3 1.6933e-15 0)
(3 6.28744e-16 0)
(3 -4.91482e-16 0)
(3 -4.10755e-16 0)
(3 -1.04604e-15 0)
(3 -7.43437e-16 0)
(3 -1.06314e-15 0)
(3 -1.54257e-15 0)
(3 -1.92576e-15 0)
(3 -2.49187e-15 0)
(3 -2.78148e-15 0)
(3 -2.63838e-15 0)
(3 -2.10237e-15 0)
(3 -1.72201e-15 0)
(3 -1.05292e-15 0)
(3 -1.06109e-15 0)
(3 -1.31366e-15 0)
(3 -1.54011e-15 0)
(3 -1.64094e-15 0)
(3 -2.15877e-15 0)
(3 -2.19347e-15 0)
(3 -2.0639e-15 0)
(3 -2.24503e-15 0)
(3 -2.42457e-15 0)
(3 -1.4408e-15 0)
(3 4.32029e-16 0)
(3 5.94428e-16 0)
(3 7.31706e-16 0)
(3 -2.44933e-17 0)
(3 -4.78688e-16 0)
(3 -3.86144e-16 0)
(3 5.09279e-18 0)
(3 1.03109e-15 0)
(3 1.84691e-15 0)
(3 1.90517e-15 0)
(3 9.52096e-18 0)
(3 2.31778e-16 0)
(3 2.32469e-16 0)
(3 -7.35099e-17 0)
(3 2.99245e-16 0)
(3 3.39342e-16 0)
(3 -6.36052e-16 0)
(3 -7.40242e-16 0)
(3 -1.30581e-16 0)
(3 1.75385e-16 0)
(3 2.69777e-16 0)
(3 5.02558e-16 0)
(3 6.28324e-16 0)
(3 6.05615e-16 0)
(3 5.59737e-16 0)
(3 6.7814e-16 0)
(3 6.43394e-16 0)
(3 2.91474e-16 0)
(3 3.74528e-17 0)
(3 8.50166e-16 0)
(3 1.46008e-15 0)
(3 1.10777e-15 0)
(3 1.14506e-15 0)
(3 8.83575e-16 0)
(3 1.69319e-15 0)
(3 2.17383e-15 0)
(3 2.56076e-15 0)
(3 3.31491e-15 0)
(3 2.22825e-15 0)
(3 -7.27253e-16 0)
(3 -8.51894e-16 0)
(3 -7.20436e-16 0)
(3 -3.70382e-16 0)
(3 -3.01273e-15 0)
(3 -2.93031e-15 0)
(3 -2.47436e-15 0)
(3 -1.26278e-15 0)
(3 -6.21738e-16 0)
(3 -4.61022e-17 0)
(3 -1.17885e-15 0)
(3 -1.52703e-15 0)
(3 -8.9967e-16 0)
(3 -3.83514e-16 0)
(3 -4.90318e-16 0)
(3 -4.14042e-16 0)
(3 -3.96183e-16 0)
(3 -2.56984e-16 0)
(3 -1.23039e-16 0)
(3 1.51612e-16 0)
(3 1.75388e-16 0)
(3 2.7144e-17 0)
(3 -2.64909e-16 0)
(3 -7.30096e-16 0)
(3 -1.8494e-15 0)
(3 -1.5489e-15 0)
(3 -1.53679e-15 0)
(3 -9.3089e-16 0)
(3 -6.27353e-16 0)
(3 -4.11187e-16 0)
(3 5.20674e-16 0)
(3 1.10556e-15 0)
(3 6.31872e-16 0)
(3 -1.58818e-15 0)
(3 -1.99149e-15 0)
(3 -1.05572e-15 0)
(3 -4.86052e-16 0)
(3 -3.99736e-17 0)
(3 -4.17118e-16 0)
(3 -3.99977e-16 0)
(3 -9.83792e-16 0)
(3 -1.38741e-15 0)
(3 -1.52761e-15 0)
(3 -1.36771e-15 0)
(3 -1.86727e-15 0)
(3 -2.36717e-15 0)
(3 -2.46002e-15 0)
(3 -1.25586e-15 0)
(3 -8.50828e-16 0)
(3 -6.55126e-16 0)
(3 -5.88633e-16 0)
(3 -7.78761e-17 0)
(3 5.43986e-17 0)
(3 4.06557e-16 0)
(3 1.24837e-15 0)
(3 2.09706e-16 0)
(3 -1.71995e-15 0)
(3 -4.9478e-16 0)
(3 4.76672e-16 0)
(3 8.44509e-16 0)
(3 5.6734e-16 0)
(3 5.02345e-16 0)
(3 -2.35315e-16 0)
(3 -1.36128e-15 0)
(3 -1.34116e-15 0)
(3 -1.22843e-15 0)
(3 7.57295e-16 0)
(3 -2.32958e-17 0)
(3 8.86591e-17 0)
(3 -4.22843e-16 0)
(3 -4.07007e-16 0)
(3 -1.36198e-16 0)
(3 7.55207e-17 0)
(3 1.15535e-16 0)
(3 -2.56112e-16 0)
(3 1.05096e-16 0)
(3 4.69617e-16 0)
(3 9.16188e-17 0)
(3 -1.28898e-16 0)
(3 -3.36175e-17 0)
(3 2.98443e-16 0)
(3 7.61081e-16 0)
(3 1.07968e-15 0)
(3 1.33028e-15 0)
(3 1.27396e-15 0)
(3 1.2311e-15 0)
(3 9.42628e-16 0)
(3 6.46656e-16 0)
(3 1.36128e-15 0)
(3 9.84712e-16 0)
(3 1.00932e-15 0)
(3 1.76283e-15 0)
(3 1.92564e-15 0)
(3 6.75391e-16 0)
(3 -9.95155e-16 0)
(3 -1.35851e-15 0)
(3 -1.26554e-15 0)
(3 -7.63995e-16 0)
(3 9.28948e-16 0)
(3 -1.27349e-16 0)
(3 -3.73177e-15 0)
(3 -4.67414e-15 0)
(3 -2.74921e-15 0)
(3 -1.04971e-15 0)
(3 -1.12607e-15 0)
(3 -1.01521e-15 0)
(3 -8.69426e-16 0)
(3 -5.46696e-16 0)
(3 -6.83511e-16 0)
(3 -8.71117e-16 0)
(3 -9.8316e-16 0)
(3 -9.70152e-16 0)
(3 -1.14329e-15 0)
(3 -2.54877e-16 0)
(3 3.05453e-16 0)
(3 5.23035e-16 0)
(3 1.10384e-15 0)
(3 1.60892e-15 0)
(3 7.28701e-16 0)
(3 -1.47013e-16 0)
(3 -6.80048e-16 0)
(3 -4.53223e-16 0)
(3 -9.76112e-16 0)
(3 -7.47991e-16 0)
(3 -7.58047e-16 0)
(3 -3.36075e-16 0)
(3 -7.23775e-16 0)
(3 -8.60676e-16 0)
(3 -1.51723e-15 0)
(3 -1.95022e-15 0)
(3 -1.90706e-15 0)
(3 -1.27919e-15 0)
(3 5.26529e-16 0)
(3 -9.99697e-17 0)
(3 -1.5525e-16 0)
(3 -6.02678e-17 0)
(3 -5.24885e-16 0)
(3 -1.19077e-15 0)
(3 -1.2781e-15 0)
(3 -1.14688e-15 0)
(3 -1.77179e-15 0)
(3 -2.24294e-15 0)
(3 -2.75154e-15 0)
(3 -1.32795e-15 0)
(3 -1.00807e-15 0)
(3 -1.07519e-15 0)
(3 -1.47787e-15 0)
(3 -2.13646e-16 0)
(3 7.0076e-16 0)
(3 1.07089e-15 0)
(3 1.37626e-15 0)
(3 1.34289e-15 0)
(3 1.23356e-15 0)
(3 -1.39335e-16 0)
(3 -4.6498e-16 0)
(3 -3.98165e-16 0)
(3 4.53555e-16 0)
(3 1.17721e-15 0)
(3 8.60626e-16 0)
(3 -6.94908e-16 0)
(3 -1.16237e-15 0)
(3 -1.15021e-15 0)
(3 -4.76202e-16 0)
(3 1.4766e-17 0)
(3 4.22608e-17 0)
(3 -4.9802e-17 0)
(3 -7.62578e-17 0)
(3 -1.35806e-16 0)
(3 -6.73996e-17 0)
(3 5.19616e-16 0)
(3 5.94939e-16 0)
(3 2.86524e-16 0)
(3 -5.24805e-16 0)
(3 -8.21533e-16 0)
(3 -2.72362e-16 0)
(3 6.32521e-17 0)
(3 1.10074e-16 0)
(3 3.29204e-16 0)
(3 6.20554e-16 0)
(3 9.15181e-16 0)
(3 1.20565e-15 0)
(3 1.55077e-15 0)
(3 2.4958e-16 0)
(3 5.30115e-16 0)
(3 1.13126e-15 0)
(3 7.87541e-16 0)
(3 6.36805e-16 0)
(3 -3.05658e-16 0)
(3 -9.06589e-16 0)
(3 -1.88702e-15 0)
(3 -2.64881e-15 0)
(3 -1.97561e-15 0)
(3 -1.23643e-15 0)
(3 -7.11929e-17 0)
(3 1.51892e-15 0)
(3 1.53082e-16 0)
(3 -2.59756e-15 0)
(3 -3.47852e-15 0)
(3 -1.23223e-15 0)
(3 -4.23219e-16 0)
(3 -6.40176e-16 0)
(3 -1.2118e-15 0)
(3 -1.20951e-15 0)
(3 -6.83454e-17 0)
(3 3.84839e-16 0)
(3 9.89237e-16 0)
(3 1.40704e-15 0)
(3 1.28868e-15 0)
(3 1.27708e-15 0)
(3 1.9185e-15 0)
(3 1.6862e-15 0)
(3 1.19342e-15 0)
(3 6.57419e-16 0)
(3 -4.38493e-16 0)
(3 -1.6494e-15 0)
(3 -1.66502e-15 0)
(3 -6.12318e-16 0)
(3 6.66741e-17 0)
(3 3.30288e-16 0)
(3 -6.93834e-16 0)
(3 -2.45852e-15 0)
(3 -2.75966e-15 0)
(3 -3.40952e-15 0)
(3 -4.34606e-15 0)
(3 -2.42655e-15 0)
(3 -1.26697e-15 0)
(3 -6.86657e-16 0)
(3 2.65544e-16 0)
(3 -1.70145e-17 0)
(3 -1.75346e-15 0)
(3 -1.58735e-15 0)
(3 -1.9095e-15 0)
(3 -2.05066e-15 0)
(3 -2.59909e-15 0)
(3 -3.01475e-15 0)
(3 -2.53815e-15 0)
(3 -2.54335e-15 0)
(3 -2.70285e-15 0)
(3 -2.61183e-15 0)
(3 -2.22184e-15 0)
(3 -1.56952e-15 0)
(3 -8.54474e-16 0)
(3 -1.01248e-15 0)
(3 -5.47891e-16 0)
(3 1.0019e-15 0)
(3 1.67035e-15 0)
(3 2.07744e-15 0)
(3 2.95298e-15 0)
(3 3.18349e-15 0)
(3 1.29572e-15 0)
(3 -1.52059e-16 0)
(3 -6.80395e-16 0)
(3 -5.94106e-16 0)
(3 -1.92628e-17 0)
(3 -8.85104e-17 0)
(3 -1.65433e-17 0)
(3 -5.39106e-16 0)
(3 -5.67993e-16 0)
(3 4.19035e-16 0)
(3 1.83583e-17 0)
(3 3.3209e-17 0)
(3 3.02515e-16 0)
(3 5.50158e-16 0)
(3 5.92782e-16 0)
(3 3.85324e-16 0)
(3 4.47437e-16 0)
(3 1.89157e-17 0)
(3 -1.60757e-16 0)
(3 -3.95545e-16 0)
(3 -1.69316e-16 0)
(3 -2.01372e-16 0)
(3 -2.19209e-16 0)
(3 -2.92217e-16 0)
(3 -3.08301e-16 0)
(3 1.22242e-16 0)
(3 6.74791e-16 0)
(3 9.10869e-16 0)
(3 8.58934e-16 0)
(3 8.1772e-16 0)
(3 7.72814e-16 0)
(3 3.22554e-16 0)
(3 4.19478e-16 0)
(3 -1.59804e-16 0)
(3 -7.55138e-16 0)
(3 -3.91311e-15 0)
(3 -4.7729e-15 0)
(3 -4.09267e-15 0)
(3 -1.7216e-15 0)
(3 -1.26532e-15 0)
(3 -9.46194e-16 0)
(3 -4.38872e-16 0)
(3 -2.23024e-16 0)
(3 -7.35341e-16 0)
(3 -8.40376e-16 0)
(3 1.4055e-16 0)
(3 1.14739e-16 0)
(3 -8.77318e-16 0)
(3 -1.4139e-15 0)
(3 -1.75427e-15 0)
(3 -1.94444e-15 0)
(3 -6.39558e-16 0)
(3 5.51528e-16 0)
(3 1.75094e-15 0)
(3 1.60961e-15 0)
(3 9.79041e-16 0)
(3 9.48102e-16 0)
(3 8.02894e-16 0)
(3 -2.04257e-16 0)
(3 -9.12461e-16 0)
(3 -1.90346e-15 0)
(3 -2.62172e-15 0)
(3 -2.78084e-15 0)
(3 -2.33389e-15 0)
(3 -1.15352e-15 0)
(3 -9.0096e-17 0)
(3 -3.44699e-16 0)
(3 -2.02351e-15 0)
(3 -4.09984e-15 0)
(3 -4.91504e-15 0)
(3 -4.31765e-15 0)
(3 -1.96632e-15 0)
(3 3.18746e-16 0)
(3 1.42583e-15 0)
(3 2.25283e-15 0)
(3 9.04452e-16 0)
(3 6.54617e-16 0)
(3 -1.7953e-15 0)
(3 -2.60743e-15 0)
(3 -2.97338e-15 0)
(3 -2.59741e-15 0)
(3 -1.77851e-15 0)
(3 -2.30732e-15 0)
(3 -3.08978e-15 0)
(3 -2.95945e-15 0)
(3 -2.42453e-15 0)
(3 -3.14435e-15 0)
(3 -1.77836e-15 0)
(3 -4.29072e-16 0)
(3 -8.59337e-16 0)
(3 4.36577e-16 0)
(3 1.29498e-15 0)
(3 1.4553e-15 0)
(3 1.78914e-15 0)
(3 2.95736e-15 0)
(3 3.3332e-15 0)
(3 2.4544e-15 0)
(3 7.24247e-16 0)
(3 -3.01004e-16 0)
(3 -1.16654e-15 0)
(3 -5.40679e-16 0)
(3 3.65241e-16 0)
(3 -5.15874e-16 0)
(3 -7.46287e-16 0)
(3 -1.40269e-16 0)
(3 5.68521e-16 0)
(3 -1.03827e-17 0)
(3 -6.54706e-16 0)
(3 -4.66121e-16 0)
(3 1.81918e-16 0)
(3 5.00127e-16 0)
(3 3.58927e-16 0)
(3 -2.33892e-16 0)
(3 -1.17746e-16 0)
(3 2.15137e-16 0)
(3 7.59904e-16 0)
(3 8.41184e-16 0)
(3 3.3744e-16 0)
(3 4.54312e-16 0)
(3 6.77664e-16 0)
(3 1.33122e-15 0)
(3 2.27311e-15 0)
(3 2.44676e-15 0)
(3 2.07261e-15 0)
(3 2.06691e-15 0)
(3 2.68332e-15 0)
(3 1.79232e-15 0)
(3 1.01149e-16 0)
(3 -1.61315e-15 0)
(3 -2.53349e-15 0)
(3 -3.52753e-15 0)
(3 -4.61638e-15 0)
(3 -4.06801e-15 0)
(3 -3.81508e-15 0)
(3 -3.58469e-15 0)
(3 -2.83235e-15 0)
(3 -2.01347e-15 0)
(3 -1.79136e-15 0)
(3 -6.41633e-16 0)
(3 2.45175e-16 0)
(3 1.62479e-15 0)
(3 1.59741e-15 0)
(3 1.44369e-15 0)
(3 7.59899e-16 0)
(3 4.82216e-16 0)
(3 7.86808e-17 0)
(3 -1.51204e-15 0)
(3 -9.272e-16 0)
(3 1.03645e-15 0)
(3 1.59294e-15 0)
(3 2.48928e-15 0)
(3 1.46804e-15 0)
(3 -1.18208e-16 0)
(3 -7.58259e-16 0)
(3 -5.2789e-16 0)
(3 -1.89714e-16 0)
(3 -1.9087e-16 0)
(3 -1.25826e-16 0)
(3 -5.14436e-16 0)
(3 -7.37765e-16 0)
(3 -4.33359e-16 0)
(3 4.14938e-16 0)
(3 1.12628e-15 0)
(3 7.54111e-16 0)
(3 -1.11862e-15 0)
(3 -7.41739e-16 0)
(3 -2.84894e-17 0)
(3 6.1514e-16 0)
(3 1.07147e-15 0)
(3 1.21335e-15 0)
(3 1.22904e-15 0)
(3 8.16689e-16 0)
(3 -4.03979e-17 0)
(3 -1.54203e-15 0)
(3 -1.9576e-15 0)
(3 -2.23759e-15 0)
(3 -1.789e-15 0)
(3 -1.2525e-15 0)
(3 -1.99452e-15 0)
(3 -3.04305e-15 0)
(3 -3.42048e-15 0)
(3 -3.47545e-15 0)
(3 -3.25418e-15 0)
(3 -1.97397e-15 0)
(3 -4.93731e-16 0)
(3 4.52634e-16 0)
(3 6.9145e-16 0)
(3 6.14438e-16 0)
(3 6.27959e-16 0)
(3 1.00192e-15 0)
(3 1.50353e-15 0)
(3 1.56145e-15 0)
(3 1.33597e-15 0)
(3 -7.01407e-17 0)
(3 -1.28893e-15 0)
(3 -2.42951e-15 0)
(3 -2.11002e-15 0)
(3 -1.54119e-15 0)
(3 -2.06179e-15 0)
(3 -6.86434e-16 0)
(3 5.51882e-16 0)
(3 8.01541e-16 0)
(3 1.69996e-18 0)
(3 -2.97332e-17 0)
(3 -6.02866e-16 0)
(3 -5.07423e-16 0)
(3 -3.92296e-16 0)
(3 -5.59859e-16 0)
(3 -1.06242e-15 0)
(3 -3.42202e-16 0)
(3 -5.3001e-17 0)
(3 1.57551e-16 0)
(3 1.74145e-16 0)
(3 3.40739e-17 0)
(3 9.46349e-16 0)
(3 1.25324e-15 0)
(3 1.9986e-15 0)
(3 2.81583e-15 0)
(3 2.51665e-15 0)
(3 2.32884e-15 0)
(3 2.00434e-15 0)
(3 1.32092e-15 0)
(3 1.24279e-15 0)
(3 -1.03189e-16 0)
(3 -1.11066e-15 0)
(3 -2.06933e-15 0)
(3 -2.66788e-15 0)
(3 -1.98619e-15 0)
(3 -1.06502e-15 0)
(3 -5.12113e-16 0)
(3 -3.6004e-16 0)
(3 -6.52416e-16 0)
(3 -5.30885e-16 0)
(3 1.78794e-17 0)
(3 2.42156e-16 0)
(3 1.33775e-15 0)
(3 1.50731e-15 0)
(3 1.38779e-15 0)
(3 1.23817e-15 0)
(3 1.78172e-15 0)
(3 2.43099e-15 0)
(3 2.24676e-15 0)
(3 2.06167e-15 0)
(3 1.09598e-15 0)
(3 1.14045e-15 0)
(3 1.29378e-15 0)
(3 1.79393e-15 0)
(3 4.76727e-16 0)
(3 -6.67594e-16 0)
(3 -1.81709e-15 0)
(3 -1.93448e-15 0)
(3 -1.7656e-15 0)
(3 5.2182e-16 0)
(3 1.49123e-15 0)
(3 1.40113e-15 0)
(3 -3.85416e-17 0)
(3 -7.78139e-16 0)
(3 -8.03143e-16 0)
(3 -1.02668e-16 0)
(3 2.25539e-16 0)
(3 -2.6606e-16 0)
(3 7.70916e-16 0)
(3 1.0032e-15 0)
(3 1.59587e-15 0)
(3 1.62648e-15 0)
(3 7.25202e-16 0)
(3 3.3996e-17 0)
(3 -4.92498e-16 0)
(3 -7.16497e-16 0)
(3 -1.80375e-15 0)
(3 -3.36083e-15 0)
(3 -3.03148e-15 0)
(3 -2.82532e-15 0)
(3 -2.54259e-15 0)
(3 -3.35992e-15 0)
(3 -2.01878e-15 0)
(3 -2.20418e-15 0)
(3 -2.36769e-15 0)
(3 -2.49837e-15 0)
(3 -1.80246e-15 0)
(3 -6.72306e-16 0)
(3 5.26675e-16 0)
(3 1.01128e-15 0)
(3 1.20828e-15 0)
(3 4.60288e-16 0)
(3 1.82857e-16 0)
(3 5.58326e-16 0)
(3 1.80284e-16 0)
(3 -1.80009e-17 0)
(3 -6.5942e-17 0)
(3 -3.96261e-16 0)
(3 -5.88738e-16 0)
(3 -4.56817e-16 0)
(3 -6.2749e-16 0)
(3 -4.35064e-16 0)
(3 -2.15519e-16 0)
(3 4.29276e-16 0)
(3 6.43649e-16 0)
(3 4.72893e-17 0)
(3 2.7952e-16 0)
(3 2.21874e-18 0)
(3 1.84288e-17 0)
(3 -6.58177e-16 0)
(3 -1.11213e-15 0)
(3 -8.1007e-16 0)
(3 -8.08017e-16 0)
(3 -8.58927e-16 0)
(3 -9.31196e-16 0)
(3 -8.9313e-16 0)
(3 -1.08292e-15 0)
(3 2.23077e-16 0)
(3 7.58525e-16 0)
(3 8.38677e-16 0)
(3 7.62946e-16 0)
(3 9.13421e-16 0)
(3 1.39066e-15 0)
(3 1.03118e-15 0)
(3 3.51155e-16 0)
(3 2.83346e-16 0)
(3 1.7526e-16 0)
(3 2.68329e-16 0)
(3 1.80011e-16 0)
(3 -3.03e-16 0)
(3 1.01756e-15 0)
(3 1.75845e-15 0)
(3 1.68256e-15 0)
(3 1.90234e-15 0)
(3 9.05354e-16 0)
(3 4.64153e-16 0)
(3 9.06891e-16 0)
(3 1.133e-15 0)
(3 7.59118e-16 0)
(3 1.61214e-16 0)
(3 -2.23947e-17 0)
(3 -2.8898e-16 0)
(3 2.14944e-15 0)
(3 2.54916e-15 0)
(3 2.71792e-15 0)
(3 2.84055e-15 0)
(3 2.57239e-15 0)
(3 1.96409e-15 0)
(3 1.90452e-15 0)
(3 2.45669e-15 0)
(3 2.46757e-15 0)
(3 1.54411e-15 0)
(3 4.20812e-16 0)
(3 1.90525e-16 0)
(3 2.97634e-16 0)
(3 5.5881e-16 0)
(3 6.39229e-16 0)
(3 6.70908e-16 0)
(3 6.63934e-16 0)