/*--------------------------------*- C++ -*----------------------------------*\
  =========                 |
  \\      /  F ield         | OpenFOAM: The Open Source CFD Toolbox
   \\    /   O peration     | Website:  https://openfoam.org
    \\  /    A nd           | Version:  7
     \\/     M anipulation  |
\*---------------------------------------------------------------------------*/
FoamFile
{
    version     2.0;
    format      ascii;
    class       volVectorField;
    location    "1.7";
    object      U;
}
// * * * * * * * * * * * * * * * * * * * * * * * * * * * * * * * * * * * * * //

dimensions      [0 1 -1 0 0 0 0];

internalField   nonuniform List<vector> 
73728
(
(3 2.21596e-18 0)
(3 -1.29525e-16 0)
(3 2.43033e-16 0)
(3 2.84581e-16 0)
(3 1.9715e-16 0)
(3 2.67999e-16 0)
(3 4.41026e-16 0)
(3 4.73304e-16 0)
(3 -4.35171e-17 0)
(3 -1.48416e-16 0)
(3 -1.5737e-16 0)
(3 8.99479e-17 0)
(3 9.60011e-16 0)
(3 1.97153e-15 0)
(3 2.1343e-15 0)
(3 3.11673e-15 0)
(3 1.95985e-15 0)
(3 1.48557e-15 0)
(3 1.21755e-15 0)
(3 5.69255e-16 0)
(3 4.51062e-16 0)
(3 -6.30886e-17 0)
(3 -7.07514e-16 0)
(3 -1.36698e-15 0)
(3 -1.82945e-15 0)
(3 -3.49561e-16 0)
(3 2.30712e-16 0)
(3 4.25408e-16 0)
(3 3.251e-16 0)
(3 8.60526e-17 0)
(3 -1.66912e-16 0)
(3 -1.09202e-16 0)
(3 -1.71185e-16 0)
(3 -2.17428e-16 0)
(3 -4.32113e-16 0)
(3 -6.02904e-16 0)
(3 -4.78205e-16 0)
(3 -6.25518e-17 0)
(3 2.6804e-16 0)
(3 7.91164e-16 0)
(3 9.2834e-16 0)
(3 8.81295e-16 0)
(3 1.40515e-15 0)
(3 9.5133e-16 0)
(3 3.67116e-16 0)
(3 -5.49204e-18 0)
(3 -3.31221e-16 0)
(3 -5.81619e-16 0)
(3 -2.13044e-16 0)
(3 4.88293e-16 0)
(3 9.91393e-16 0)
(3 1.13531e-15 0)
(3 9.9435e-16 0)
(3 6.65546e-16 0)
(3 6.25063e-16 0)
(3 3.46745e-16 0)
(3 1.86574e-16 0)
(3 -1.5359e-16 0)
(3 -4.84525e-16 0)
(3 -5.33057e-16 0)
(3 -6.58111e-16 0)
(3 -2.74296e-16 0)
(3 1.31021e-16 0)
(3 2.75472e-16 0)
(3 1.66913e-15 0)
(3 2.22302e-15 0)
(3 1.28283e-15 0)
(3 2.96748e-17 0)
(3 -5.65426e-16 0)
(3 -8.34784e-16 0)
(3 -4.76792e-16 0)
(3 -2.84478e-16 0)
(3 -4.40496e-16 0)
(3 -6.43963e-16 0)
(3 -1.09081e-15 0)
(3 -1.37873e-15 0)
(3 -9.20296e-16 0)
(3 -2.53438e-16 0)
(3 8.47747e-16 0)
(3 5.34527e-16 0)
(3 4.07353e-16 0)
(3 7.67162e-16 0)
(3 6.57029e-16 0)
(3 5.8053e-16 0)
(3 -1.29794e-16 0)
(3 -6.24694e-16 0)
(3 -5.8626e-16 0)
(3 7.63464e-17 0)
(3 6.03516e-16 0)
(3 8.78031e-16 0)
(3 -1.73718e-18 0)
(3 1.27723e-16 0)
(3 1.16035e-15 0)
(3 1.70875e-15 0)
(3 1.64948e-15 0)
(3 1.60321e-15 0)
(3 2.0686e-17 0)
(3 -3.417e-16 0)
(3 1.31211e-16 0)
(3 5.76126e-17 0)
(3 -1.58405e-16 0)
(3 1.32911e-16 0)
(3 7.70045e-16 0)
(3 7.69046e-16 0)
(3 -1.53943e-16 0)
(3 -3.26036e-16 0)
(3 -6.68722e-16 0)
(3 -3.44156e-16 0)
(3 4.41092e-16 0)
(3 1.49049e-15 0)
(3 1.79553e-15 0)
(3 2.47598e-15 0)
(3 1.38946e-15 0)
(3 1.60694e-15 0)
(3 2.25488e-15 0)
(3 -1.7254e-16 0)
(3 -1.31409e-15 0)
(3 -2.04366e-15 0)
(3 -3.27339e-15 0)
(3 -3.70842e-15 0)
(3 -3.62491e-15 0)
(3 -1.5924e-15 0)
(3 1.99129e-16 0)
(3 1.34578e-15 0)
(3 9.68035e-16 0)
(3 -1.94649e-16 0)
(3 -9.29522e-16 0)
(3 -7.4122e-16 0)
(3 -2.32299e-16 0)
(3 6.74622e-17 0)
(3 2.40651e-17 0)
(3 -4.15704e-16 0)
(3 -3.7021e-16 0)
(3 1.3502e-15 0)
(3 2.2098e-15 0)
(3 2.09498e-15 0)
(3 1.62602e-15 0)
(3 1.80407e-15 0)
(3 2.61294e-15 0)
(3 3.37308e-15 0)
(3 2.63009e-15 0)
(3 2.11627e-15 0)
(3 3.95577e-17 0)
(3 -6.82652e-16 0)
(3 -1.24665e-16 0)
(3 3.96246e-16 0)
(3 8.54113e-16 0)
(3 6.85099e-16 0)
(3 7.01229e-16 0)
(3 5.83326e-16 0)
(3 4.96198e-16 0)
(3 5.21348e-16 0)
(3 1.57108e-15 0)
(3 1.39631e-15 0)
(3 8.01077e-16 0)
(3 1.15864e-16 0)
(3 -1.26138e-16 0)
(3 5.38286e-16 0)
(3 7.27328e-16 0)
(3 8.82259e-16 0)
(3 1.20445e-15 0)
(3 1.57599e-15 0)
(3 1.09971e-15 0)
(3 -8.26005e-16 0)
(3 -2.37028e-15 0)
(3 -2.01538e-15 0)
(3 -1.22227e-15 0)
(3 -6.08316e-17 0)
(3 2.3266e-16 0)
(3 -1.09323e-15 0)
(3 -1.43356e-15 0)
(3 -1.50245e-15 0)
(3 -1.49509e-15 0)
(3 -5.3274e-16 0)
(3 4.96071e-17 0)
(3 3.09803e-16 0)
(3 -7.01626e-17 0)
(3 -3.29676e-16 0)
(3 -7.32778e-16 0)
(3 -1.0498e-15 0)
(3 -1.25461e-15 0)
(3 -1.08395e-15 0)
(3 -4.09444e-16 0)
(3 -1.98732e-16 0)
(3 -1.45065e-16 0)
(3 8.56921e-16 0)
(3 1.11615e-15 0)
(3 1.69224e-15 0)
(3 3.23645e-15 0)
(3 2.95078e-15 0)
(3 2.26531e-15 0)
(3 1.88742e-15 0)
(3 3.76701e-18 0)
(3 2.33201e-17 0)
(3 9.87206e-17 0)
(3 -2.26617e-16 0)
(3 -4.25791e-16 0)
(3 -3.0705e-16 0)
(3 2.49026e-16 0)
(3 4.02173e-17 0)
(3 3.27933e-16 0)
(3 3.31634e-16 0)
(3 4.53136e-17 0)
(3 -1.85954e-16 0)
(3 3.67697e-16 0)
(3 6.01791e-16 0)
(3 1.55841e-15 0)
(3 1.66952e-15 0)
(3 1.60765e-15 0)
(3 2.24641e-15 0)
(3 2.58175e-15 0)
(3 2.10338e-15 0)
(3 9.34423e-16 0)
(3 4.0036e-16 0)
(3 -6.62207e-16 0)
(3 -1.84685e-15 0)
(3 -2.25243e-15 0)
(3 -1.54105e-15 0)
(3 -1.0381e-15 0)
(3 -6.5333e-16 0)
(3 -5.66894e-16 0)
(3 -1.63486e-15 0)
(3 -1.90193e-15 0)
(3 -9.18945e-16 0)
(3 1.29255e-16 0)
(3 9.53223e-16 0)
(3 7.20896e-16 0)
(3 3.9609e-16 0)
(3 6.40976e-16 0)
(3 1.59339e-15 0)
(3 2.49879e-15 0)
(3 2.40234e-15 0)
(3 2.27669e-15 0)
(3 2.32678e-15 0)
(3 1.38023e-15 0)
(3 6.38371e-16 0)
(3 7.04441e-16 0)
(3 1.03002e-15 0)
(3 3.9216e-16 0)
(3 6.43659e-16 0)
(3 1.00367e-15 0)
(3 5.49534e-16 0)
(3 1.54516e-16 0)
(3 -7.80681e-16 0)
(3 -5.40904e-16 0)
(3 -1.38159e-16 0)
(3 -1.28052e-16 0)
(3 6.74087e-17 0)
(3 9.21689e-16 0)
(3 8.84567e-16 0)
(3 4.46564e-16 0)
(3 3.84984e-16 0)
(3 4.67208e-16 0)
(3 5.63206e-16 0)
(3 6.60914e-16 0)
(3 1.1368e-15 0)
(3 8.56109e-16 0)
(3 4.21517e-16 0)
(3 -4.93632e-16 0)
(3 -1.39418e-15 0)
(3 -1.34526e-15 0)
(3 -8.02148e-16 0)
(3 4.25502e-17 0)
(3 1.30045e-15 0)
(3 1.74599e-15 0)
(3 1.3069e-15 0)
(3 3.29667e-16 0)
(3 6.44618e-18 0)
(3 -4.62971e-16 0)
(3 -5.51853e-16 0)
(3 -6.15852e-16 0)
(3 -5.68826e-16 0)
(3 -1.02715e-15 0)
(3 -1.3274e-15 0)
(3 -1.22897e-15 0)
(3 -1.35595e-15 0)
(3 -5.79814e-16 0)
(3 -2.20752e-16 0)
(3 1.10652e-15 0)
(3 6.63384e-16 0)
(3 -7.46401e-16 0)
(3 1.13185e-15 0)
(3 2.76657e-15 0)
(3 3.87163e-15 0)
(3 3.45072e-15 0)
(3 3.11233e-15 0)
(3 2.85991e-15 0)
(3 2.62653e-15 0)
(3 -6.381e-17 0)
(3 3.22742e-16 0)
(3 4.53884e-16 0)
(3 3.51882e-16 0)
(3 -1.96166e-16 0)
(3 -2.94706e-16 0)
(3 3.96875e-17 0)
(3 6.91811e-16 0)
(3 1.1353e-15 0)
(3 1.0371e-15 0)
(3 4.73304e-16 0)
(3 -3.78941e-16 0)
(3 -5.12711e-16 0)
(3 1.0605e-15 0)
(3 1.50098e-15 0)
(3 1.7038e-15 0)
(3 1.75346e-15 0)
(3 2.15714e-15 0)
(3 2.1011e-15 0)
(3 2.11876e-15 0)
(3 1.66935e-15 0)
(3 7.84906e-17 0)
(3 -2.45755e-16 0)
(3 -1.37691e-15 0)
(3 -1.72462e-15 0)
(3 -2.28078e-15 0)
(3 -2.75676e-15 0)
(3 -3.33636e-15 0)
(3 -3.25358e-15 0)
(3 -3.02954e-15 0)
(3 -2.68679e-15 0)
(3 -1.48338e-15 0)
(3 2.73447e-16 0)
(3 7.65254e-16 0)
(3 9.37238e-16 0)
(3 1.59666e-15 0)
(3 2.09407e-15 0)
(3 2.15704e-15 0)
(3 1.81808e-15 0)
(3 1.9083e-15 0)
(3 2.26964e-15 0)
(3 2.55691e-15 0)
(3 1.61569e-15 0)
(3 -4.76909e-16 0)
(3 -1.08002e-15 0)
(3 -1.09085e-15 0)
(3 -1.12277e-16 0)
(3 1.9807e-16 0)
(3 4.12562e-16 0)
(3 6.87906e-16 0)
(3 9.08846e-16 0)
(3 7.78193e-16 0)
(3 6.73458e-17 0)
(3 1.88948e-16 0)
(3 4.34914e-16 0)
(3 2.07357e-16 0)
(3 -4.67242e-16 0)
(3 -1.04257e-15 0)
(3 -1.03601e-15 0)
(3 -3.61985e-16 0)
(3 7.32493e-17 0)
(3 -3.41693e-16 0)
(3 -1.98728e-16 0)
(3 1.92553e-16 0)
(3 2.96782e-16 0)
(3 6.50278e-16 0)
(3 1.10344e-15 0)
(3 1.71056e-15 0)
(3 1.29413e-15 0)
(3 1.02453e-15 0)
(3 1.71018e-15 0)
(3 2.64058e-15 0)
(3 2.21678e-15 0)
(3 9.06295e-16 0)
(3 -2.07693e-16 0)
(3 2.53951e-16 0)
(3 4.17686e-16 0)
(3 4.56496e-17 0)
(3 2.27846e-16 0)
(3 -2.14809e-16 0)
(3 -8.61806e-16 0)
(3 -7.92005e-16 0)
(3 -8.78721e-16 0)
(3 2.24011e-17 0)
(3 1.31009e-15 0)
(3 1.02189e-15 0)
(3 7.37101e-16 0)
(3 5.29429e-16 0)
(3 -5.98339e-17 0)
(3 7.82694e-16 0)
(3 2.55751e-15 0)
(3 3.14209e-15 0)
(3 2.64355e-15 0)
(3 2.42272e-15 0)
(3 2.23064e-15 0)
(3 1.95751e-15 0)
(3 6.93955e-18 0)
(3 2.05952e-16 0)
(3 1.41337e-16 0)
(3 3.05884e-16 0)
(3 1.44443e-16 0)
(3 4.67914e-17 0)
(3 3.2636e-18 0)
(3 -1.03876e-17 0)
(3 2.72812e-16 0)
(3 2.96469e-16 0)
(3 -2.12872e-17 0)
(3 -4.00964e-16 0)
(3 -6.1712e-16 0)
(3 -5.28032e-16 0)
(3 1.42562e-16 0)
(3 3.29423e-16 0)
(3 8.46155e-16 0)
(3 8.89085e-16 0)
(3 8.95619e-16 0)
(3 1.14471e-15 0)
(3 -2.99423e-16 0)
(3 -6.86687e-16 0)
(3 -8.06869e-16 0)
(3 -5.67201e-16 0)
(3 -3.82938e-16 0)
(3 -1.39921e-15 0)
(3 -3.00513e-15 0)
(3 -4.81061e-15 0)
(3 -4.52497e-15 0)
(3 -3.02539e-15 0)
(3 -2.25096e-15 0)
(3 -2.2175e-15 0)
(3 -2.11268e-15 0)
(3 -1.9595e-15 0)
(3 -1.02938e-17 0)
(3 5.63465e-16 0)
(3 1.01941e-15 0)
(3 7.43853e-16 0)
(3 2.79458e-16 0)
(3 7.41934e-16 0)
(3 1.31534e-15 0)
(3 1.65377e-15 0)
(3 1.6952e-15 0)
(3 4.92221e-16 0)
(3 -1.5976e-15 0)
(3 -2.19256e-15 0)
(3 -1.67931e-15 0)
(3 -6.41261e-16 0)
(3 -6.75846e-16 0)
(3 9.28116e-16 0)
(3 1.55539e-15 0)
(3 1.58116e-15 0)
(3 1.18139e-15 0)
(3 7.48448e-16 0)
(3 6.23487e-16 0)
(3 -9.64836e-17 0)
(3 -9.74378e-16 0)
(3 -1.27468e-15 0)
(3 -1.09005e-15 0)
(3 -1.26924e-15 0)
(3 -4.15642e-16 0)
(3 -3.30424e-17 0)
(3 -3.12645e-16 0)
(3 -1.8132e-16 0)
(3 8.23229e-18 0)
(3 6.87684e-16 0)
(3 2.45544e-15 0)
(3 3.04077e-15 0)
(3 3.06878e-15 0)
(3 2.60416e-15 0)
(3 1.62085e-15 0)
(3 1.11409e-15 0)
(3 1.44898e-15 0)
(3 1.071e-15 0)
(3 1.51076e-15 0)
(3 1.42847e-15 0)
(3 5.8543e-16 0)
(3 2.48868e-16 0)
(3 1.25233e-15 0)
(3 1.15431e-15 0)
(3 7.86658e-16 0)
(3 5.14242e-16 0)
(3 8.12318e-18 0)
(3 1.57413e-16 0)
(3 1.52862e-15 0)
(3 1.79447e-15 0)
(3 1.37261e-15 0)
(3 7.39707e-16 0)
(3 -6.90066e-16 0)
(3 -8.49239e-16 0)
(3 -9.36134e-17 0)
(3 1.82626e-15 0)
(3 2.23592e-15 0)
(3 1.83709e-15 0)
(3 1.18196e-15 0)
(3 7.0068e-16 0)
(3 -2.1072e-17 0)
(3 -1.22172e-17 0)
(3 -1.36091e-16 0)
(3 3.23871e-17 0)
(3 5.93179e-17 0)
(3 2.47129e-16 0)
(3 3.54434e-17 0)
(3 -4.06718e-16 0)
(3 2.41614e-16 0)
(3 3.18083e-16 0)
(3 3.92309e-16 0)
(3 6.2276e-16 0)
(3 1.50644e-16 0)
(3 -3.91564e-16 0)
(3 -3.87658e-16 0)
(3 -2.28583e-16 0)
(3 -8.39256e-18 0)
(3 1.86448e-16 0)
(3 2.32015e-16 0)
(3 -1.58027e-16 0)
(3 5.07535e-17 0)
(3 3.40396e-16 0)
(3 7.24485e-16 0)
(3 8.95279e-16 0)
(3 5.36729e-16 0)
(3 -2.18609e-16 0)
(3 -6.45332e-16 0)
(3 -1.15129e-15 0)
(3 -1.69727e-15 0)
(3 -1.7743e-15 0)
(3 -1.75154e-15 0)
(3 -2.12626e-15 0)
(3 -2.29383e-15 0)
(3 -2.04459e-15 0)
(3 -2.38029e-15 0)
(3 -1.83631e-15 0)
(3 -1.35736e-15 0)
(3 -1.43356e-15 0)
(3 -1.32569e-15 0)
(3 -1.00459e-15 0)
(3 -3.48652e-16 0)
(3 2.03492e-16 0)
(3 2.62757e-16 0)
(3 -6.28352e-17 0)
(3 -1.73177e-15 0)
(3 -3.07765e-15 0)
(3 -3.68454e-15 0)
(3 -2.42339e-15 0)
(3 -7.02133e-16 0)
(3 1.2198e-16 0)
(3 1.20129e-15 0)
(3 1.22722e-15 0)
(3 1.01042e-15 0)
(3 9.63561e-16 0)
(3 7.84749e-16 0)
(3 8.17472e-16 0)
(3 6.15916e-16 0)
(3 4.12408e-16 0)
(3 2.79271e-16 0)
(3 8.24739e-17 0)
(3 1.55345e-16 0)
(3 1.18108e-15 0)
(3 9.99779e-16 0)
(3 9.2971e-16 0)
(3 1.21043e-15 0)
(3 9.1475e-16 0)
(3 1.43912e-15 0)
(3 1.68278e-15 0)
(3 2.78595e-15 0)
(3 3.33971e-15 0)
(3 7.11182e-16 0)
(3 -5.85195e-16 0)
(3 -5.65746e-16 0)
(3 2.31078e-16 0)
(3 1.89901e-15 0)
(3 2.42101e-15 0)
(3 1.11062e-15 0)
(3 8.12498e-16 0)
(3 5.55874e-16 0)
(3 -8.12013e-17 0)
(3 -1.57932e-15 0)
(3 -1.49474e-15 0)
(3 -8.533e-16 0)
(3 -6.5575e-16 0)
(3 -5.49586e-17 0)
(3 1.66944e-16 0)
(3 -1.09082e-16 0)
(3 -2.691e-16 0)
(3 2.69374e-16 0)
(3 3.14767e-16 0)
(3 8.35737e-16 0)
(3 1.2414e-15 0)
(3 1.47759e-15 0)
(3 -2.85379e-16 0)
(3 -1.13123e-15 0)
(3 -1.14615e-15 0)
(3 -1.91911e-17 0)
(3 1.5622e-16 0)
(3 2.70175e-16 0)
(3 2.52767e-16 0)
(3 3.47506e-17 0)
(3 1.35566e-16 0)
(3 -7.45121e-17 0)
(3 -9.32322e-17 0)
(3 -1.34119e-16 0)
(3 2.16756e-16 0)
(3 5.88929e-16 0)
(3 5.33645e-16 0)
(3 3.45887e-16 0)
(3 1.90843e-16 0)
(3 -4.83234e-16 0)
(3 -9.15045e-16 0)
(3 -9.41023e-16 0)
(3 -7.54911e-16 0)
(3 -1.3068e-15 0)
(3 -1.58953e-15 0)
(3 -8.86046e-16 0)
(3 -8.43681e-16 0)
(3 -4.28053e-16 0)
(3 -5.29978e-16 0)
(3 -1.33848e-15 0)
(3 -1.69125e-16 0)
(3 8.6903e-16 0)
(3 9.67448e-16 0)
(3 4.84385e-16 0)
(3 -1.45345e-15 0)
(3 -1.75321e-15 0)
(3 -1.48289e-15 0)
(3 -1.46168e-15 0)
(3 -1.68455e-15 0)
(3 -2.72156e-15 0)
(3 -3.15048e-15 0)
(3 -3.0602e-15 0)
(3 -2.3176e-15 0)
(3 -1.82897e-15 0)
(3 -1.69222e-15 0)
(3 -7.14601e-16 0)
(3 -3.98634e-16 0)
(3 -2.39466e-16 0)
(3 -3.11719e-16 0)
(3 -1.12222e-15 0)
(3 -1.69267e-15 0)
(3 -2.01832e-15 0)
(3 -1.71736e-15 0)
(3 -1.3264e-15 0)
(3 -7.48214e-16 0)
(3 2.95131e-17 0)
(3 7.79955e-16 0)
(3 1.13981e-15 0)
(3 1.31616e-15 0)
(3 1.6296e-15 0)
(3 1.51654e-15 0)
(3 1.06393e-15 0)
(3 -9.59988e-18 0)
(3 1.59059e-16 0)
(3 2.06646e-16 0)
(3 -1.16958e-17 0)
(3 1.18639e-16 0)
(3 3.59649e-16 0)
(3 7.41447e-16 0)
(3 9.33672e-16 0)
(3 -3.59354e-16 0)
(3 -9.41606e-16 0)
(3 -1.08447e-15 0)
(3 -3.08435e-16 0)
(3 -8.61289e-16 0)
(3 -2.59426e-15 0)
(3 -3.1689e-15 0)
(3 -3.74549e-15 0)
(3 -1.92833e-15 0)
(3 -7.64435e-16 0)
(3 3.41822e-16 0)
(3 1.2998e-15 0)
(3 1.07328e-15 0)
(3 3.50125e-17 0)
(3 -1.36981e-15 0)
(3 -1.6477e-15 0)
(3 -1.46878e-15 0)
(3 -4.82143e-16 0)
(3 -5.36321e-16 0)
(3 -1.02393e-15 0)
(3 -9.82606e-16 0)
(3 -9.86657e-16 0)
(3 -1.09577e-16 0)
(3 9.00394e-16 0)
(3 1.61871e-15 0)
(3 2.42183e-15 0)
(3 2.38289e-15 0)
(3 9.80453e-16 0)
(3 -3.14146e-16 0)
(3 -9.74985e-16 0)
(3 -1.78771e-15 0)
(3 4.41048e-17 0)
(3 -1.01149e-16 0)
(3 -9.93995e-17 0)
(3 -1.77915e-16 0)
(3 4.7603e-16 0)
(3 4.15361e-16 0)
(3 -8.29265e-17 0)
(3 -2.00005e-16 0)
(3 -1.08025e-15 0)
(3 -9.92448e-16 0)
(3 -4.24547e-16 0)
(3 -7.03862e-16 0)
(3 3.78485e-16 0)
(3 -1.88308e-17 0)
(3 1.50008e-16 0)
(3 -2.10974e-16 0)
(3 -6.69299e-16 0)
(3 -1.00738e-15 0)
(3 -1.40732e-15 0)
(3 -1.8388e-15 0)
(3 -1.4924e-15 0)
(3 2.06405e-16 0)
(3 8.04279e-16 0)
(3 7.99277e-16 0)
(3 3.80982e-16 0)
(3 2.14674e-16 0)
(3 1.05256e-15 0)
(3 8.35612e-16 0)
(3 2.27573e-16 0)
(3 -1.14657e-15 0)
(3 -1.28019e-15 0)
(3 -6.16844e-17 0)
(3 3.17869e-16 0)
(3 -5.32528e-16 0)
(3 -3.14435e-15 0)
(3 -3.61032e-15 0)
(3 -3.08163e-15 0)
(3 -2.16532e-15 0)
(3 -1.05666e-15 0)
(3 -3.79518e-16 0)
(3 -3.66604e-16 0)
(3 -5.74316e-16 0)
(3 -7.22826e-16 0)
(3 -8.16806e-16 0)
(3 -6.03137e-16 0)
(3 -4.00057e-16 0)
(3 -8.48657e-16 0)
(3 -1.37906e-15 0)
(3 -1.88324e-15 0)
(3 -1.86747e-15 0)
(3 -1.49871e-15 0)
(3 -9.76032e-16 0)
(3 -4.58453e-16 0)
(3 -5.61953e-16 0)
(3 -4.41775e-16 0)
(3 -1.09563e-16 0)
(3 -2.77369e-16 0)
(3 -1.13566e-15 0)
(3 -1.61842e-15 0)
(3 -1.9313e-15 0)
(3 -2.19957e-15 0)
(3 -2.8007e-15 0)
(3 -2.0252e-15 0)
(3 -1.01714e-15 0)
(3 -8.287e-16 0)
(3 -7.94776e-16 0)
(3 -1.28603e-15 0)
(3 -1.42404e-15 0)
(3 -2.40909e-15 0)
(3 -3.91823e-15 0)
(3 -4.2134e-15 0)
(3 -3.98089e-15 0)
(3 -3.3716e-15 0)
(3 -2.39106e-15 0)
(3 -2.07431e-15 0)
(3 -1.38309e-15 0)
(3 -4.00213e-16 0)
(3 -1.10071e-16 0)
(3 2.96164e-16 0)
(3 4.6545e-17 0)
(3 6.69658e-16 0)
(3 7.51613e-16 0)
(3 9.40308e-16 0)
(3 1.05311e-15 0)
(3 1.0423e-15 0)
(3 8.90954e-16 0)
(3 9.4029e-16 0)
(3 5.14543e-16 0)
(3 1.48825e-16 0)
(3 4.81836e-16 0)
(3 1.08842e-15 0)
(3 1.53024e-15 0)
(3 6.80215e-16 0)
(3 2.63168e-16 0)
(3 7.10936e-16 0)
(3 -2.38639e-16 0)
(3 -4.45099e-17 0)
(3 -2.6919e-16 0)
(3 -2.16345e-16 0)
(3 -8.13629e-17 0)
(3 5.50757e-16 0)
(3 4.32606e-16 0)
(3 8.1944e-17 0)
(3 1.2492e-16 0)
(3 -9.48458e-16 0)
(3 -1.61755e-15 0)
(3 -1.74057e-15 0)
(3 -7.44497e-16 0)
(3 -7.1457e-16 0)
(3 -6.3879e-16 0)
(3 -6.95809e-16 0)
(3 -1.07628e-16 0)
(3 -9.75489e-16 0)
(3 -1.53227e-15 0)
(3 -8.31523e-16 0)
(3 -6.45221e-16 0)
(3 -5.31037e-16 0)
(3 1.16779e-15 0)
(3 1.86732e-15 0)
(3 1.56773e-15 0)
(3 3.7276e-16 0)
(3 -3.23966e-16 0)
(3 -3.87179e-16 0)
(3 5.18325e-16 0)
(3 1.41856e-15 0)
(3 1.21059e-15 0)
(3 8.77414e-16 0)
(3 2.84395e-16 0)
(3 5.0645e-16 0)
(3 -9.2454e-18 0)
(3 -5.57026e-16 0)
(3 -1.21767e-15 0)
(3 -1.80965e-15 0)
(3 -1.32488e-15 0)
(3 -7.54413e-17 0)
(3 -1.19547e-17 0)
(3 -5.8302e-16 0)
(3 -8.86483e-16 0)
(3 -1.30508e-15 0)
(3 -1.12321e-15 0)
(3 -9.73524e-16 0)
(3 -5.14972e-16 0)
(3 -9.89379e-16 0)
(3 -2.13927e-15 0)
(3 -2.05646e-15 0)
(3 -2.038e-15 0)
(3 -2.02821e-15 0)
(3 -1.82487e-15 0)
(3 -1.23705e-15 0)
(3 -1.15938e-15 0)
(3 -1.2566e-15 0)
(3 -5.69796e-16 0)
(3 2.43886e-16 0)
(3 3.0432e-16 0)
(3 -1.30972e-15 0)
(3 -1.97427e-15 0)
(3 -2.03873e-15 0)
(3 -2.59668e-15 0)
(3 -2.03174e-15 0)
(3 -8.48097e-16 0)
(3 -8.87156e-16 0)
(3 -2.74607e-15 0)
(3 -3.19009e-15 0)
(3 -3.32982e-15 0)
(3 -3.63636e-15 0)
(3 -3.38421e-15 0)
(3 -2.01013e-15 0)
(3 -8.59457e-16 0)
(3 -5.28632e-16 0)
(3 -2.85421e-16 0)
(3 -2.77556e-16 0)
(3 -5.37188e-16 0)
(3 -7.94977e-16 0)
(3 -7.48263e-16 0)
(3 4.38477e-16 0)
(3 1.20997e-15 0)
(3 1.58168e-15 0)
(3 1.42407e-15 0)
(3 1.10633e-15 0)
(3 1.05693e-15 0)
(3 8.01266e-16 0)
(3 5.3033e-16 0)
(3 6.11975e-16 0)
(3 4.62106e-16 0)
(3 3.45514e-16 0)
(3 2.51395e-16 0)
(3 -6.63054e-19 0)
(3 -9.84494e-16 0)
(3 -8.57334e-16 0)
(3 -2.25984e-16 0)
(3 2.96838e-16 0)
(3 9.37953e-16 0)
(3 1.09215e-16 0)
(3 4.21011e-16 0)
(3 1.86473e-16 0)
(3 1.51115e-16 0)
(3 1.25306e-16 0)
(3 7.66485e-18 0)
(3 9.85604e-17 0)
(3 4.96636e-16 0)
(3 1.52244e-16 0)
(3 -8.00064e-16 0)
(3 -1.80526e-15 0)
(3 -1.54697e-15 0)
(3 -9.74375e-16 0)
(3 -8.68951e-16 0)
(3 -1.13414e-15 0)
(3 -5.76066e-16 0)
(3 -6.9887e-16 0)
(3 -1.57224e-15 0)
(3 -1.75848e-15 0)
(3 4.70421e-16 0)
(3 1.77832e-15 0)
(3 1.95433e-15 0)
(3 2.08842e-15 0)
(3 1.49306e-15 0)
(3 5.77359e-16 0)
(3 -1.18993e-15 0)
(3 -1.79034e-15 0)
(3 -9.79007e-16 0)
(3 -2.00943e-16 0)
(3 1.07576e-15 0)
(3 1.27158e-15 0)
(3 -6.84759e-16 0)
(3 -1.2511e-15 0)
(3 -1.99647e-16 0)
(3 1.23369e-15 0)
(3 9.70767e-16 0)
(3 -1.31743e-15 0)
(3 -1.66921e-15 0)
(3 -1.52897e-15 0)
(3 -1.4677e-15 0)
(3 -1.41527e-15 0)
(3 -1.60961e-15 0)
(3 -1.50298e-15 0)
(3 -1.33323e-15 0)
(3 -1.09886e-15 0)
(3 -9.96614e-16 0)
(3 -1.96667e-15 0)
(3 -2.1755e-15 0)
(3 -1.57387e-15 0)
(3 -1.01465e-15 0)
(3 -8.30588e-16 0)
(3 -8.73289e-16 0)
(3 -7.65352e-16 0)
(3 -6.04597e-16 0)
(3 -7.81443e-16 0)
(3 -2.39962e-17 0)
(3 9.63011e-16 0)
(3 1.38616e-15 0)
(3 -4.63973e-16 0)
(3 -8.28908e-16 0)
(3 -6.58445e-16 0)
(3 -1.01772e-15 0)
(3 -1.65306e-15 0)
(3 -1.27553e-15 0)
(3 -1.82676e-15 0)
(3 -2.36252e-15 0)
(3 -2.57858e-15 0)
(3 -2.87795e-15 0)
(3 -1.73623e-15 0)
(3 -1.13007e-15 0)
(3 3.10669e-17 0)
(3 1.15346e-15 0)
(3 1.30975e-15 0)
(3 1.09847e-15 0)
(3 7.66858e-16 0)
(3 -5.08695e-16 0)
(3 -3.15242e-16 0)
(3 -3.62658e-16 0)
(3 -5.40984e-18 0)
(3 1.07276e-15 0)
(3 1.09265e-15 0)
(3 1.0017e-15 0)
(3 1.38843e-15 0)
(3 2.11743e-15 0)
(3 1.05456e-15 0)
(3 4.01498e-16 0)
(3 3.16167e-16 0)
(3 4.62512e-16 0)
(3 6.92543e-16 0)
(3 5.91319e-16 0)
(3 2.18921e-16 0)
(3 -7.70987e-16 0)
(3 -1.99663e-15 0)
(3 -1.66032e-15 0)
(3 -1.50376e-15 0)
(3 -3.59446e-16 0)
(3 1.17799e-16 0)
(3 -3.3722e-17 0)
(3 -2.70678e-16 0)
(3 -2.84543e-16 0)
(3 -5.0022e-16 0)
(3 -4.73602e-16 0)
(3 -3.7356e-16 0)
(3 1.32581e-16 0)
(3 6.86886e-16 0)
(3 7.01911e-16 0)
(3 7.00107e-16 0)
(3 5.04964e-16 0)
(3 6.03439e-16 0)
(3 9.44745e-16 0)
(3 1.21113e-15 0)
(3 1.23919e-15 0)
(3 1.09641e-15 0)
(3 7.93043e-16 0)
(3 1.00716e-15 0)
(3 1.86377e-15 0)
(3 2.27582e-15 0)
(3 2.11623e-15 0)
(3 1.00154e-15 0)
(3 9.9042e-16 0)
(3 4.5577e-16 0)
(3 -1.27563e-15 0)
(3 -2.23389e-15 0)
(3 -2.18337e-15 0)
(3 -1.4967e-15 0)
(3 -4.51992e-16 0)
(3 -3.34158e-16 0)
(3 -4.56671e-16 0)
(3 -7.74354e-16 0)
(3 -8.75688e-16 0)
(3 -5.94169e-16 0)
(3 -9.03743e-16 0)
(3 -9.0848e-16 0)
(3 -7.79108e-16 0)
(3 -9.95241e-16 0)
(3 -1.22011e-15 0)
(3 -1.0943e-15 0)
(3 -1.42913e-15 0)
(3 -1.47788e-15 0)
(3 -1.48551e-15 0)
(3 -1.28878e-15 0)
(3 -1.21671e-15 0)
(3 -1.61746e-15 0)
(3 -1.92073e-15 0)
(3 -1.68369e-15 0)
(3 -7.71122e-16 0)
(3 -9.06273e-17 0)
(3 -4.70898e-16 0)
(3 -4.76372e-16 0)
(3 -1.14395e-15 0)
(3 -1.17837e-15 0)
(3 -4.73885e-16 0)
(3 1.78501e-16 0)
(3 3.14159e-16 0)
(3 1.23298e-16 0)
(3 -4.7967e-16 0)
(3 -8.11045e-16 0)
(3 -1.51627e-15 0)
(3 -2.41375e-15 0)
(3 -3.12375e-15 0)
(3 -4.00298e-15 0)
(3 -3.25414e-15 0)
(3 -3.24183e-15 0)
(3 -2.22389e-15 0)
(3 -1.02028e-15 0)
(3 6.36579e-16 0)
(3 2.08993e-15 0)
(3 2.65061e-15 0)
(3 3.0719e-15 0)
(3 1.33627e-15 0)
(3 -4.73603e-18 0)
(3 -4.8629e-16 0)
(3 -4.62702e-16 0)
(3 1.11858e-16 0)
(3 2.96059e-16 0)
(3 3.85559e-16 0)
(3 5.1332e-16 0)
(3 1.04591e-15 0)
(3 2.17711e-15 0)
(3 2.9055e-15 0)
(3 2.64754e-15 0)
(3 2.10159e-15 0)
(3 8.00172e-16 0)
(3 3.82286e-16 0)
(3 -5.82788e-16 0)
(3 -6.0297e-16 0)
(3 -5.00493e-16 0)
(3 -7.17967e-16 0)
(3 -1.14118e-15 0)
(3 -1.27129e-15 0)
(3 -1.6427e-15 0)
(3 -5.48359e-16 0)
(3 -3.66972e-16 0)
(3 -3.66369e-16 0)
(3 -3.13463e-16 0)
(3 -1.37753e-16 0)
(3 -8.48762e-17 0)
(3 -9.37733e-17 0)
(3 2.27052e-16 0)
(3 5.92719e-16 0)
(3 5.10942e-16 0)
(3 5.00022e-16 0)
(3 8.22097e-16 0)
(3 1.05417e-15 0)
(3 8.24026e-16 0)
(3 5.11871e-16 0)
(3 8.08722e-16 0)
(3 1.58478e-15 0)
(3 2.16413e-15 0)
(3 2.951e-15 0)
(3 2.54709e-15 0)
(3 7.45202e-16 0)
(3 5.65671e-16 0)
(3 4.68423e-16 0)
(3 2.66453e-16 0)
(3 4.75591e-16 0)
(3 1.97741e-16 0)
(3 -1.11366e-15 0)
(3 -1.08647e-15 0)
(3 -1.58855e-15 0)
(3 -2.54375e-15 0)
(3 -2.67022e-15 0)
(3 -3.21303e-15 0)
(3 -1.92541e-15 0)
(3 -1.0241e-15 0)
(3 -1.79027e-15 0)
(3 -2.78026e-15 0)
(3 -2.57571e-15 0)
(3 -1.36347e-15 0)
(3 -1.09344e-15 0)
(3 -1.34837e-15 0)
(3 -1.28386e-15 0)
(3 -1.24883e-15 0)
(3 -8.46705e-16 0)
(3 -4.43564e-16 0)
(3 -1.96182e-16 0)
(3 -2.93014e-16 0)
(3 5.3689e-16 0)
(3 1.08874e-15 0)
(3 8.47794e-16 0)
(3 2.52146e-16 0)
(3 -5.46302e-16 0)
(3 -8.94816e-16 0)
(3 -7.1323e-16 0)
(3 -9.21565e-16 0)
(3 -1.85866e-15 0)
(3 -2.78442e-15 0)
(3 -2.57952e-15 0)
(3 -1.32072e-15 0)
(3 2.68732e-16 0)
(3 8.58588e-16 0)
(3 6.7123e-16 0)
(3 -1.35103e-15 0)
(3 -1.84673e-15 0)
(3 -2.18532e-15 0)
(3 -2.49006e-15 0)
(3 -2.42035e-15 0)
(3 -1.7393e-15 0)
(3 -9.92906e-16 0)
(3 -1.78729e-16 0)
(3 1.11791e-15 0)
(3 2.32375e-15 0)
(3 2.69814e-15 0)
(3 2.40567e-15 0)
(3 2.36942e-15 0)
(3 7.85199e-16 0)
(3 -3.58571e-16 0)
(3 -6.16005e-16 0)
(3 -8.49563e-16 0)
(3 -6.26654e-16 0)
(3 -3.86977e-16 0)
(3 -7.11893e-17 0)
(3 4.70053e-16 0)
(3 1.20524e-15 0)
(3 2.37434e-15 0)
(3 2.78552e-15 0)
(3 2.59013e-15 0)
(3 2.25166e-15 0)
(3 1.4099e-15 0)
(3 8.75115e-16 0)
(3 3.41274e-16 0)
(3 -6.14427e-18 0)
(3 -9.26442e-16 0)
(3 -1.21787e-15 0)
(3 -1.08304e-15 0)
(3 -1.40482e-15 0)
(3 -1.5603e-15 0)
(3 -1.50668e-15 0)
(3 1.02354e-17 0)
(3 1.93637e-17 0)
(3 7.57569e-17 0)
(3 7.94603e-17 0)
(3 -8.93475e-18 0)
(3 5.62059e-16 0)
(3 9.61009e-16 0)
(3 1.01204e-15 0)
(3 6.10302e-16 0)
(3 3.92973e-16 0)
(3 1.94538e-16 0)
(3 1.62638e-16 0)
(3 1.00006e-16 0)
(3 1.97483e-16 0)
(3 2.85125e-16 0)
(3 3.94699e-16 0)
(3 1.3414e-15 0)
(3 1.58879e-15 0)
(3 1.68838e-15 0)
(3 7.90522e-17 0)
(3 -4.43113e-16 0)
(3 2.5274e-16 0)
(3 1.01508e-15 0)
(3 1.43593e-15 0)
(3 9.94891e-16 0)
(3 7.37001e-16 0)
(3 1.75606e-15 0)
(3 9.3993e-16 0)
(3 -3.74112e-17 0)
(3 -5.88636e-16 0)
(3 -7.03782e-16 0)
(3 -1.48556e-15 0)
(3 -8.1811e-16 0)
(3 -1.36971e-15 0)
(3 -1.53921e-15 0)
(3 -9.55961e-16 0)
(3 -1.00177e-15 0)
(3 -1.62958e-15 0)
(3 -1.53872e-15 0)
(3 -1.67652e-15 0)
(3 -1.78382e-15 0)
(3 -1.26881e-15 0)
(3 -7.7033e-16 0)
(3 3.161e-16 0)
(3 9.12343e-16 0)
(3 1.12392e-15 0)
(3 1.36341e-15 0)
(3 1.56671e-15 0)
(3 1.40733e-15 0)
(3 9.01368e-16 0)
(3 -6.82795e-16 0)
(3 -1.05596e-15 0)
(3 -1.26405e-15 0)
(3 -1.60167e-15 0)
(3 -2.50986e-15 0)
(3 -3.65012e-15 0)
(3 -1.93963e-15 0)
(3 -1.27693e-15 0)
(3 -5.71555e-16 0)
(3 -1.28697e-15 0)
(3 -2.53975e-15 0)
(3 -2.51755e-15 0)
(3 -1.75571e-15 0)
(3 -7.92369e-16 0)
(3 -7.02941e-16 0)
(3 -7.81436e-16 0)
(3 -3.8911e-16 0)
(3 4.97193e-16 0)
(3 7.0436e-16 0)
(3 9.12045e-16 0)
(3 8.74661e-16 0)
(3 4.09217e-16 0)
(3 2.38537e-17 0)
(3 -1.13714e-15 0)
(3 -8.61936e-16 0)
(3 -1.44018e-15 0)
(3 -2.87091e-15 0)
(3 -2.25911e-15 0)
(3 -1.00316e-15 0)
(3 3.84854e-16 0)
(3 1.72055e-15 0)
(3 2.05034e-15 0)
(3 2.00656e-15 0)
(3 1.33673e-15 0)
(3 1.31492e-15 0)
(3 1.65696e-15 0)
(3 1.83351e-15 0)
(3 1.67232e-15 0)
(3 5.06968e-16 0)
(3 -9.4257e-17 0)
(3 -7.66128e-16 0)
(3 -1.48797e-15 0)
(3 -2.87865e-15 0)
(3 -2.68238e-15 0)
(3 -1.7886e-15 0)
(3 -1.69873e-15 0)
(3 3.19792e-17 0)
(3 1.50742e-16 0)
(3 3.0999e-16 0)
(3 1.93641e-16 0)
(3 -8.89612e-18 0)
(3 -1.73942e-16 0)
(3 -5.8953e-17 0)
(3 3.84827e-16 0)
(3 4.47032e-16 0)
(3 8.67566e-16 0)
(3 1.10399e-15 0)
(3 6.39666e-16 0)
(3 7.79868e-17 0)
(3 3.41779e-16 0)
(3 5.48829e-16 0)
(3 3.61105e-16 0)
(3 1.16961e-15 0)
(3 1.04866e-15 0)
(3 3.7351e-16 0)
(3 1.07768e-16 0)
(3 -7.08557e-16 0)
(3 -7.58016e-16 0)
(3 -5.93491e-16 0)
(3 -2.65197e-16 0)
(3 6.64985e-16 0)
(3 2.09484e-15 0)
(3 2.59166e-15 0)
(3 2.25488e-15 0)
(3 1.70521e-15 0)
(3 1.38667e-15 0)
(3 6.50337e-16 0)
(3 -7.10541e-16 0)
(3 -2.10176e-15 0)
(3 -5.47881e-16 0)
(3 7.58479e-16 0)
(3 1.32986e-15 0)
(3 1.11003e-16 0)
(3 -5.9655e-16 0)
(3 -6.88648e-16 0)
(3 -1.00849e-15 0)
(3 -6.48813e-16 0)
(3 -8.70195e-16 0)
(3 -3.69532e-16 0)
(3 3.08221e-16 0)
(3 2.48426e-16 0)
(3 -6.01332e-16 0)
(3 -6.19575e-16 0)
(3 -1.07037e-15 0)
(3 -1.4579e-15 0)
(3 -1.44522e-15 0)
(3 -1.49825e-15 0)
(3 -1.59326e-15 0)
(3 -1.21635e-15 0)
(3 -9.38329e-16 0)
(3 -5.97349e-16 0)
(3 -9.92764e-16 0)
(3 -1.55499e-15 0)
(3 -1.40603e-15 0)
(3 -1.30261e-15 0)
(3 -2.32033e-15 0)
(3 -2.52617e-15 0)
(3 -2.461e-15 0)
(3 -1.56386e-15 0)
(3 -1.05914e-15 0)
(3 -7.58503e-16 0)
(3 -8.19793e-16 0)
(3 -7.3338e-16 0)
(3 -7.41724e-16 0)
(3 -2.29021e-15 0)
(3 -3.2016e-15 0)
(3 -3.51487e-15 0)
(3 -3.16546e-15 0)
(3 -1.77311e-15 0)
(3 -4.22186e-17 0)
(3 -4.44948e-16 0)
(3 -9.06763e-16 0)
(3 -1.80791e-15 0)
(3 -2.39004e-15 0)
(3 -1.65043e-15 0)
(3 -9.60448e-16 0)
(3 2.03257e-16 0)
(3 9.24481e-16 0)
(3 1.66309e-15 0)
(3 1.56661e-15 0)
(3 1.40286e-15 0)
(3 2.0159e-15 0)
(3 2.56261e-15 0)
(3 3.31236e-15 0)
(3 1.73277e-15 0)
(3 9.2132e-16 0)
(3 6.80886e-16 0)
(3 -5.26879e-16 0)
(3 -1.16275e-15 0)
(3 -1.20967e-15 0)
(3 1.75978e-16 0)
(3 9.14308e-17 0)
(3 -4.46501e-18 0)
(3 4.42161e-17 0)
(3 1.14486e-16 0)
(3 1.85503e-16 0)
(3 2.59936e-16 0)
(3 -1.48889e-16 0)
(3 -3.92708e-16 0)
(3 -2.94148e-16 0)
(3 4.76772e-16 0)
(3 1.30478e-15 0)
(3 6.89347e-16 0)
(3 -6.9571e-17 0)
(3 -5.30337e-16 0)
(3 -1.08717e-15 0)
(3 -1.13083e-15 0)
(3 -6.31007e-16 0)
(3 1.77593e-16 0)
(3 8.93078e-16 0)
(3 1.0906e-16 0)
(3 -6.64412e-16 0)
(3 -5.72942e-16 0)
(3 -1.14897e-15 0)
(3 -2.51602e-15 0)
(3 -2.26218e-15 0)
(3 6.39942e-17 0)
(3 1.12829e-15 0)
(3 1.44853e-15 0)
(3 2.13992e-15 0)
(3 2.21842e-15 0)
(3 5.34808e-16 0)
(3 -8.13992e-17 0)
(3 -1.46512e-15 0)
(3 -2.68588e-15 0)
(3 -2.0549e-15 0)
(3 -3.09461e-16 0)
(3 4.71495e-16 0)
(3 1.3855e-15 0)
(3 7.64955e-16 0)
(3 -9.6769e-17 0)
(3 -2.94452e-17 0)
(3 -3.04582e-17 0)
(3 -5.11885e-16 0)
(3 1.92155e-16 0)
(3 6.36423e-16 0)
(3 8.93399e-16 0)
(3 2.92709e-16 0)
(3 -1.13146e-15 0)
(3 -2.07357e-15 0)
(3 -3.15271e-15 0)
(3 -3.50978e-15 0)
(3 -2.40967e-15 0)
(3 -1.43921e-15 0)
(3 -1.48421e-15 0)
(3 -7.17276e-16 0)
(3 -8.92331e-17 0)
(3 9.24516e-17 0)
(3 -1.12693e-15 0)
(3 -2.62026e-15 0)
(3 -2.55021e-15 0)
(3 -2.05985e-15 0)
(3 -1.43126e-15 0)
(3 -9.57984e-16 0)
(3 -2.2833e-16 0)
(3 2.59836e-16 0)
(3 3.47581e-16 0)
(3 -1.05103e-15 0)
(3 -1.30017e-15 0)
(3 -2.68128e-15 0)
(3 -3.98687e-15 0)
(3 -4.22393e-15 0)
(3 -3.96559e-15 0)
(3 -2.96827e-15 0)
(3 -2.11342e-15 0)
(3 -3.39715e-16 0)
(3 3.20436e-16 0)
(3 3.78752e-16 0)
(3 2.60347e-16 0)
(3 -6.64065e-16 0)
(3 -1.73633e-15 0)
(3 -1.85849e-15 0)
(3 -1.81746e-15 0)
(3 -1.51587e-15 0)
(3 1.16506e-15 0)
(3 2.72208e-15 0)
(3 2.78464e-15 0)
(3 3.15734e-15 0)
(3 3.21551e-15 0)
(3 3.34728e-15 0)
(3 2.74237e-15 0)
(3 2.43727e-15 0)
(3 2.43739e-15 0)
(3 1.42933e-15 0)
(3 1.63979e-15 0)
(3 1.62434e-15 0)
(3 -4.33946e-16 0)
(3 -6.82534e-16 0)
(3 9.17019e-17 0)
(3 -8.80235e-17 0)
(3 -2.48685e-16 0)
(3 -2.7927e-16 0)
(3 -3.61594e-16 0)
(3 -3.14184e-16 0)
(3 -7.08114e-16 0)
(3 -8.98434e-16 0)
(3 -1.73581e-16 0)
(3 -1.57102e-16 0)
(3 -2.96166e-16 0)
(3 -2.23314e-16 0)
(3 -3.44104e-16 0)
(3 -2.12031e-16 0)
(3 -6.16342e-16 0)
(3 -1.51948e-15 0)
(3 -2.5964e-15 0)
(3 -2.21863e-15 0)
(3 -1.33468e-15 0)
(3 -5.49951e-16 0)
(3 7.00506e-16 0)
(3 1.10579e-15 0)
(3 4.18255e-16 0)
(3 -1.78622e-16 0)
(3 -2.92983e-16 0)
(3 -6.26757e-18 0)
(3 8.91208e-16 0)
(3 1.47795e-15 0)
(3 1.21747e-15 0)
(3 7.07237e-16 0)
(3 9.07044e-16 0)
(3 8.92848e-16 0)
(3 6.00272e-16 0)
(3 3.93766e-16 0)
(3 1.83794e-16 0)
(3 -1.80509e-16 0)
(3 -1.4807e-17 0)
(3 6.04654e-16 0)
(3 1.00776e-15 0)
(3 1.49621e-15 0)
(3 1.26966e-15 0)
(3 9.30527e-16 0)
(3 4.93702e-16 0)
(3 4.48294e-16 0)
(3 1.01463e-15 0)
(3 2.73407e-16 0)
(3 -9.09425e-16 0)
(3 -9.74008e-16 0)
(3 -2.02719e-15 0)
(3 -2.67333e-15 0)
(3 -2.80214e-15 0)
(3 -2.58621e-15 0)
(3 -2.32765e-15 0)
(3 -1.82351e-15 0)
(3 -1.86761e-15 0)
(3 -1.70891e-15 0)
(3 -1.4565e-15 0)
(3 -2.42489e-15 0)
(3 -2.96185e-15 0)
(3 -1.86991e-15 0)
(3 -4.65832e-16 0)
(3 -5.51951e-16 0)
(3 3.1032e-16 0)
(3 7.57664e-16 0)
(3 9.96169e-16 0)
(3 1.52828e-16 0)
(3 -8.32122e-16 0)
(3 -1.89655e-15 0)
(3 -1.93336e-15 0)
(3 -6.40877e-16 0)
(3 5.43155e-17 0)
(3 3.06761e-16 0)
(3 6.5381e-17 0)
(3 2.18622e-17 0)
(3 1.06461e-16 0)
(3 4.5059e-16 0)
(3 4.6112e-16 0)
(3 7.66208e-16 0)
(3 7.04138e-16 0)
(3 -4.87557e-17 0)
(3 -1.01644e-15 0)
(3 -8.39655e-16 0)
(3 -1.50152e-16 0)
(3 5.57432e-16 0)
(3 9.69796e-16 0)
(3 1.34083e-16 0)
(3 4.02941e-16 0)
(3 1.12146e-16 0)
(3 -4.23494e-17 0)
(3 -4.89281e-17 0)
(3 1.71611e-16 0)
(3 9.12689e-16 0)
(3 1.48915e-15 0)
(3 9.31465e-16 0)
(3 3.16687e-16 0)
(3 -1.12744e-15 0)
(3 1.73249e-17 0)
(3 -2.44679e-16 0)
(3 -1.97687e-16 0)
(3 -3.21242e-16 0)
(3 -5.90299e-16 0)
(3 -4.98858e-16 0)
(3 -2.90008e-16 0)
(3 5.70591e-16 0)
(3 6.63198e-16 0)
(3 5.87478e-17 0)
(3 -1.75539e-16 0)
(3 -1.78601e-17 0)
(3 1.63394e-16 0)
(3 5.54134e-16 0)
(3 5.90435e-16 0)
(3 -5.16269e-16 0)
(3 -1.62444e-15 0)
(3 -1.70993e-15 0)
(3 -1.44889e-15 0)
(3 -1.16627e-15 0)
(3 -9.55761e-16 0)
(3 -3.12895e-17 0)
(3 1.33357e-15 0)
(3 -2.28656e-16 0)
(3 -8.45472e-16 0)
(3 -4.05726e-16 0)
(3 3.79376e-16 0)
(3 8.15175e-16 0)
(3 5.27167e-16 0)
(3 1.16825e-15 0)
(3 1.57699e-15 0)
(3 1.72823e-15 0)
(3 1.61644e-15 0)
(3 4.50557e-16 0)
(3 -8.72347e-16 0)
(3 -3.6053e-16 0)
(3 7.15595e-16 0)
(3 1.40641e-15 0)
(3 1.8103e-15 0)
(3 1.42279e-15 0)
(3 1.20106e-15 0)
(3 1.43236e-15 0)
(3 5.65287e-16 0)
(3 -1.77428e-16 0)
(3 -4.25254e-16 0)
(3 -2.79409e-16 0)
(3 9.80776e-16 0)
(3 6.11217e-16 0)
(3 7.14813e-17 0)
(3 -9.79125e-16 0)
(3 -3.37854e-15 0)
(3 -3.74638e-15 0)
(3 -3.17158e-15 0)
(3 -2.77953e-15 0)
(3 -2.54779e-15 0)
(3 -1.86747e-15 0)