/*--------------------------------*- C++ -*----------------------------------*\
  =========                 |
  \\      /  F ield         | OpenFOAM: The Open Source CFD Toolbox
   \\    /   O peration     | Website:  https://openfoam.org
    \\  /    A nd           | Version:  7
     \\/     M anipulation  |
\*---------------------------------------------------------------------------*/
FoamFile
{
    version     2.0;
    format      ascii;
    class       volVectorField;
    location    "1.2";
    object      U;
}
// * * * * * * * * * * * * * * * * * * * * * * * * * * * * * * * * * * * * * //

dimensions      [0 1 -1 0 0 0 0];

internalField   nonuniform List<vector> 
73728
(
(3 1.9792e-17 0)
(3 4.37864e-16 0)
(3 5.67854e-16 0)
(3 2.71089e-16 0)
(3 3.85145e-16 0)
(3 8.94955e-16 0)
(3 8.13671e-16 0)
(3 1.79631e-16 0)
(3 -5.04759e-17 0)
(3 -8.03245e-17 0)
(3 -2.92146e-16 0)
(3 -1.07435e-15 0)
(3 -1.43376e-15 0)
(3 -1.01973e-15 0)
(3 -3.95088e-16 0)
(3 -2.76488e-16 0)
(3 3.96532e-17 0)
(3 4.52914e-16 0)
(3 1.14043e-15 0)
(3 9.44216e-16 0)
(3 3.81785e-16 0)
(3 -8.10254e-16 0)
(3 -1.15026e-15 0)
(3 -1.18572e-15 0)
(3 -2.68682e-16 0)
(3 1.09465e-15 0)
(3 -4.56564e-16 0)
(3 -3.45421e-16 0)
(3 5.96812e-18 0)
(3 -2.18213e-16 0)
(3 -5.5713e-16 0)
(3 -2.92138e-16 0)
(3 5.87928e-16 0)
(3 1.22044e-15 0)
(3 4.78667e-16 0)
(3 -7.71463e-17 0)
(3 -4.79573e-16 0)
(3 -6.68592e-16 0)
(3 -5.00028e-16 0)
(3 -1.17491e-16 0)
(3 3.3012e-16 0)
(3 7.64207e-16 0)
(3 9.74828e-16 0)
(3 9.07406e-16 0)
(3 1.16166e-15 0)
(3 1.9697e-15 0)
(3 1.61761e-15 0)
(3 1.16902e-15 0)
(3 3.89512e-16 0)
(3 -9.79546e-17 0)
(3 4.03516e-17 0)
(3 2.81675e-16 0)
(3 2.24452e-16 0)
(3 -5.89789e-16 0)
(3 -1.53538e-15 0)
(3 -1.01079e-15 0)
(3 4.26097e-16 0)
(3 6.12156e-16 0)
(3 9.61062e-16 0)
(3 9.18704e-16 0)
(3 3.73093e-16 0)
(3 1.35353e-16 0)
(3 -3.62991e-16 0)
(3 -3.46421e-16 0)
(3 -7.82471e-16 0)
(3 -1.0672e-15 0)
(3 -1.39778e-15 0)
(3 -1.4742e-15 0)
(3 -1.0843e-15 0)
(3 1.58765e-16 0)
(3 7.16645e-16 0)
(3 2.00938e-16 0)
(3 5.36487e-16 0)
(3 5.33124e-16 0)
(3 8.05307e-16 0)
(3 1.46521e-15 0)
(3 1.46357e-15 0)
(3 1.01139e-15 0)
(3 4.42042e-16 0)
(3 -6.16084e-16 0)
(3 -8.97132e-16 0)
(3 -9.07009e-16 0)
(3 -9.39593e-16 0)
(3 -1.31276e-15 0)
(3 -1.64376e-15 0)
(3 -1.456e-15 0)
(3 -4.52971e-16 0)
(3 -1.96835e-16 0)
(3 -2.30014e-18 0)
(3 -6.70128e-16 0)
(3 -9.06991e-16 0)
(3 -5.58273e-16 0)
(3 3.26195e-16 0)
(3 -1.26536e-15 0)
(3 -3.25487e-15 0)
(3 -3.70405e-15 0)
(3 -9.94006e-19 0)
(3 2.70564e-16 0)
(3 5.98945e-16 0)
(3 7.92479e-16 0)
(3 9.71878e-16 0)
(3 6.0335e-16 0)
(3 -1.06435e-16 0)
(3 -2.09779e-16 0)
(3 -2.92683e-17 0)
(3 -1.87893e-16 0)
(3 -1.16437e-16 0)
(3 -1.25536e-15 0)
(3 -1.56239e-15 0)
(3 -1.08411e-15 0)
(3 -7.53522e-16 0)
(3 -7.14471e-16 0)
(3 -7.73253e-16 0)
(3 -6.2431e-16 0)
(3 1.74921e-16 0)
(3 7.9517e-16 0)
(3 1.69148e-16 0)
(3 -2.10683e-15 0)
(3 -2.59633e-15 0)
(3 -1.59305e-15 0)
(3 -6.54325e-16 0)
(3 2.81764e-16 0)
(3 -3.63099e-17 0)
(3 -4.38106e-18 0)
(3 5.08242e-16 0)
(3 2.03996e-16 0)
(3 -1.73279e-16 0)
(3 9.68858e-17 0)
(3 5.43059e-16 0)
(3 1.06487e-15 0)
(3 1.05937e-15 0)
(3 -4.1983e-16 0)
(3 -1.25338e-15 0)
(3 -1.2496e-15 0)
(3 -6.22116e-16 0)
(3 -4.06397e-16 0)
(3 8.44655e-16 0)
(3 1.68461e-15 0)
(3 2.47964e-15 0)
(3 2.42688e-15 0)
(3 2.31465e-15 0)
(3 2.09238e-15 0)
(3 9.78021e-16 0)
(3 -1.74949e-16 0)
(3 -9.56061e-16 0)
(3 -1.00773e-15 0)
(3 -7.78721e-16 0)
(3 3.05381e-16 0)
(3 7.75702e-16 0)
(3 -7.87475e-17 0)
(3 -1.88398e-15 0)
(3 -9.37159e-16 0)
(3 1.31177e-15 0)
(3 1.6936e-15 0)
(3 2.19916e-15 0)
(3 1.379e-15 0)
(3 -6.77408e-16 0)
(3 -8.95231e-16 0)
(3 -2.37503e-16 0)
(3 1.33542e-16 0)
(3 -2.36518e-16 0)
(3 -9.68105e-16 0)
(3 -9.96072e-16 0)
(3 -7.89856e-16 0)
(3 2.22189e-16 0)
(3 1.48706e-15 0)
(3 2.93036e-15 0)
(3 1.43042e-15 0)
(3 1.37964e-15 0)
(3 8.62203e-16 0)
(3 9.42083e-16 0)
(3 1.72953e-15 0)
(3 1.68671e-15 0)
(3 5.40881e-16 0)
(3 -8.44214e-16 0)
(3 -2.45272e-15 0)
(3 -2.53545e-15 0)
(3 -2.26149e-15 0)
(3 -1.70094e-15 0)
(3 -1.47265e-15 0)
(3 -1.32356e-15 0)
(3 -1.28599e-15 0)
(3 -1.02199e-15 0)
(3 -7.49218e-16 0)
(3 -8.41241e-16 0)
(3 -2.52204e-15 0)
(3 -3.16876e-15 0)
(3 -2.61927e-15 0)
(3 -2.3693e-15 0)
(3 -3.4773e-15 0)
(3 -4.47133e-15 0)
(3 -3.50661e-15 0)
(3 1.42007e-17 0)
(3 -1.28365e-16 0)
(3 -3.17674e-16 0)
(3 6.56326e-17 0)
(3 3.78149e-16 0)
(3 1.7777e-16 0)
(3 -6.98687e-17 0)
(3 -5.77949e-16 0)
(3 -7.16243e-16 0)
(3 -3.69559e-16 0)
(3 -1.42314e-16 0)
(3 -5.59006e-16 0)
(3 -4.55301e-16 0)
(3 -3.8624e-16 0)
(3 -1.70693e-16 0)
(3 -1.24605e-16 0)
(3 -1.42359e-16 0)
(3 -2.59684e-16 0)
(3 -6.4861e-16 0)
(3 -7.58116e-16 0)
(3 -5.47903e-16 0)
(3 -1.94726e-16 0)
(3 1.48033e-16 0)
(3 6.76249e-17 0)
(3 -6.96237e-17 0)
(3 -2.55916e-16 0)
(3 -3.35055e-19 0)
(3 -2.09018e-16 0)
(3 -5.56428e-16 0)
(3 -5.91771e-16 0)
(3 -7.5738e-16 0)
(3 -6.35182e-16 0)
(3 -1.92932e-16 0)
(3 -1.36798e-16 0)
(3 2.24948e-16 0)
(3 -1.08177e-16 0)
(3 -2.40118e-16 0)
(3 -7.51969e-18 0)
(3 1.32192e-16 0)
(3 2.64765e-16 0)
(3 7.90611e-16 0)
(3 1.46425e-15 0)
(3 1.86457e-15 0)
(3 2.47566e-15 0)
(3 2.70459e-15 0)
(3 2.38967e-15 0)
(3 1.7161e-15 0)
(3 2.53143e-16 0)
(3 -3.31471e-16 0)
(3 -8.41027e-16 0)
(3 -1.3792e-15 0)
(3 -9.98924e-16 0)
(3 4.67443e-16 0)
(3 1.01408e-15 0)
(3 9.52454e-17 0)
(3 -9.44127e-16 0)
(3 5.55791e-16 0)
(3 2.35916e-15 0)
(3 3.00386e-15 0)
(3 1.00585e-15 0)
(3 -1.01912e-17 0)
(3 -9.20899e-16 0)
(3 -4.06304e-16 0)
(3 -5.37958e-16 0)
(3 -2.19423e-16 0)
(3 3.82321e-16 0)
(3 6.23794e-16 0)
(3 1.54158e-15 0)
(3 3.39883e-15 0)
(3 3.7015e-15 0)
(3 3.8567e-15 0)
(3 3.01196e-15 0)
(3 2.53121e-15 0)
(3 1.58547e-15 0)
(3 5.38903e-16 0)
(3 2.5572e-16 0)
(3 -3.49035e-17 0)
(3 -6.62337e-16 0)
(3 -1.26323e-15 0)
(3 -1.59736e-15 0)
(3 -1.70073e-15 0)
(3 -1.37037e-15 0)
(3 -9.51246e-16 0)
(3 -6.26835e-16 0)
(3 6.49193e-17 0)
(3 -1.44386e-16 0)
(3 -5.71985e-16 0)
(3 -1.59301e-15 0)
(3 -3.31086e-15 0)
(3 -4.4942e-15 0)
(3 -4.39384e-15 0)
(3 -4.42576e-15 0)
(3 -4.599e-15 0)
(3 -4.76931e-15 0)
(3 -4.40049e-15 0)
(3 -3.48121e-15 0)
(3 -8.49948e-17 0)
(3 1.32383e-16 0)
(3 -3.01482e-16 0)
(3 -1.21366e-16 0)
(3 1.6275e-16 0)
(3 3.61495e-16 0)
(3 3.38802e-16 0)
(3 7.50823e-17 0)
(3 -5.26309e-16 0)
(3 -1.0621e-16 0)
(3 3.35102e-16 0)
(3 4.85674e-16 0)
(3 2.24948e-16 0)
(3 -4.07486e-17 0)
(3 1.31268e-16 0)
(3 3.01563e-16 0)
(3 1.07527e-15 0)
(3 1.54514e-15 0)
(3 1.01774e-15 0)
(3 -3.77588e-16 0)
(3 -9.17628e-16 0)
(3 -2.54492e-16 0)
(3 9.62965e-16 0)
(3 8.84201e-16 0)
(3 4.47852e-16 0)
(3 -3.3134e-16 0)
(3 -6.4223e-16 0)
(3 -1.07139e-15 0)
(3 -1.52587e-15 0)
(3 -1.73743e-15 0)
(3 -1.54441e-15 0)
(3 -1.43438e-15 0)
(3 -1.49658e-15 0)
(3 -1.64156e-15 0)
(3 -1.60883e-15 0)
(3 -5.6791e-16 0)
(3 6.48612e-16 0)
(3 7.47489e-16 0)
(3 1.19254e-15 0)
(3 1.39237e-15 0)
(3 1.1706e-15 0)
(3 1.42915e-15 0)
(3 1.20687e-15 0)
(3 1.06207e-15 0)
(3 1.44934e-15 0)
(3 1.74638e-15 0)
(3 1.89651e-15 0)
(3 1.44363e-15 0)
(3 1.49817e-15 0)
(3 9.06319e-16 0)
(3 4.28182e-16 0)
(3 3.88129e-16 0)
(3 1.53461e-15 0)
(3 2.22766e-15 0)
(3 2.28365e-15 0)
(3 1.41383e-15 0)
(3 1.34163e-15 0)
(3 1.6884e-15 0)
(3 1.20196e-15 0)
(3 1.53785e-15 0)
(3 1.46439e-15 0)
(3 1.67626e-15 0)
(3 9.43166e-16 0)
(3 -2.32574e-17 0)
(3 -4.42619e-16 0)
(3 -4.8378e-16 0)
(3 -2.25176e-16 0)
(3 4.00836e-16 0)
(3 2.39481e-15 0)
(3 3.38944e-15 0)
(3 4.05184e-15 0)
(3 3.48724e-15 0)
(3 2.54783e-15 0)
(3 1.54912e-15 0)
(3 -2.43903e-16 0)
(3 -1.58413e-15 0)
(3 -2.32863e-15 0)
(3 -2.11599e-15 0)
(3 -1.54328e-15 0)
(3 -1.11097e-15 0)
(3 -7.83247e-16 0)
(3 -3.69632e-16 0)
(3 1.14343e-16 0)
(3 -1.64338e-16 0)
(3 6.22703e-17 0)
(3 2.88716e-16 0)
(3 -2.48624e-16 0)
(3 -1.91629e-15 0)
(3 -3.62373e-15 0)
(3 -3.69336e-15 0)
(3 -3.14699e-15 0)
(3 -2.98778e-15 0)
(3 -3.06315e-15 0)
(3 -3.47049e-15 0)
(3 -2.8103e-15 0)
(3 -2.50307e-15 0)
(3 -2.3424e-17 0)
(3 1.29871e-16 0)
(3 2.27697e-16 0)
(3 2.57344e-16 0)
(3 -1.6688e-16 0)
(3 -1.04408e-16 0)
(3 2.11318e-16 0)
(3 1.17951e-15 0)
(3 9.34399e-16 0)
(3 1.34779e-16 0)
(3 9.33378e-17 0)
(3 1.06265e-15 0)
(3 1.13701e-15 0)
(3 1.07295e-15 0)
(3 8.37017e-16 0)
(3 6.00984e-16 0)
(3 1.05935e-15 0)
(3 1.2487e-15 0)
(3 1.10724e-15 0)
(3 3.23436e-16 0)
(3 2.86326e-16 0)
(3 7.86034e-16 0)
(3 8.24425e-16 0)
(3 5.38314e-16 0)
(3 -1.60342e-16 0)
(3 -6.43985e-16 0)
(3 -1.36538e-15 0)
(3 -1.39202e-15 0)
(3 -2.01441e-15 0)
(3 -2.17458e-15 0)
(3 -2.0242e-15 0)
(3 -2.48169e-15 0)
(3 -2.86704e-15 0)
(3 -2.48579e-15 0)
(3 -1.85396e-15 0)
(3 -1.3144e-15 0)
(3 -1.2332e-15 0)
(3 6.29016e-16 0)
(3 6.22273e-16 0)
(3 8.96074e-16 0)
(3 9.1308e-16 0)
(3 1.05795e-15 0)
(3 1.0922e-15 0)
(3 6.3906e-16 0)
(3 5.97049e-16 0)
(3 5.98782e-16 0)
(3 1.08119e-15 0)
(3 9.46362e-16 0)
(3 1.58872e-15 0)
(3 1.87223e-15 0)
(3 2.11571e-15 0)
(3 1.3668e-15 0)
(3 8.65738e-16 0)
(3 8.58678e-16 0)
(3 1.30477e-15 0)
(3 1.62464e-15 0)
(3 6.64338e-16 0)
(3 -8.40288e-16 0)
(3 -1.32158e-15 0)
(3 -3.23668e-16 0)
(3 4.14763e-16 0)
(3 1.78498e-15 0)
(3 1.67757e-15 0)
(3 1.31853e-15 0)
(3 5.96003e-16 0)
(3 4.69005e-16 0)
(3 7.59232e-16 0)
(3 7.90102e-16 0)
(3 9.99898e-16 0)
(3 9.12811e-16 0)
(3 5.68069e-16 0)
(3 1.7592e-15 0)
(3 8.94272e-16 0)
(3 4.6052e-17 0)
(3 -4.93813e-17 0)
(3 -5.81147e-16 0)
(3 -1.14416e-15 0)
(3 -9.66219e-16 0)
(3 -1.02682e-15 0)
(3 -3.17752e-16 0)
(3 5.61168e-16 0)
(3 4.6571e-16 0)
(3 4.83424e-16 0)
(3 -1.8034e-16 0)
(3 -1.1639e-15 0)
(3 -1.19538e-15 0)
(3 -1.06397e-15 0)
(3 -1.91531e-15 0)
(3 -3.25197e-15 0)
(3 -3.04866e-15 0)
(3 -2.66005e-15 0)
(3 -1.91502e-15 0)
(3 -1.89726e-15 0)
(3 -2.37326e-15 0)
(3 -1.92202e-15 0)
(3 -1.38635e-15 0)
(3 -4.10989e-18 0)
(3 -8.24832e-18 0)
(3 3.80812e-16 0)
(3 -1.04607e-16 0)
(3 -5.6188e-16 0)
(3 2.39471e-16 0)
(3 4.8872e-16 0)
(3 -9.12969e-17 0)
(3 -1.00359e-16 0)
(3 -2.82859e-16 0)
(3 -1.47135e-16 0)
(3 1.161e-16 0)
(3 4.06699e-16 0)
(3 5.04082e-16 0)
(3 6.23138e-16 0)
(3 4.83461e-16 0)
(3 2.94132e-16 0)
(3 -3.99827e-16 0)
(3 -8.89494e-16 0)
(3 -2.9318e-17 0)
(3 5.31097e-16 0)
(3 6.48147e-16 0)
(3 -6.52929e-17 0)
(3 -6.22182e-16 0)
(3 -1.14014e-15 0)
(3 -2.02141e-15 0)
(3 -2.52559e-15 0)
(3 -2.11265e-15 0)
(3 -1.14199e-15 0)
(3 -1.40417e-15 0)
(3 -1.52078e-15 0)
(3 -2.30481e-15 0)
(3 -2.25631e-15 0)
(3 -1.65255e-15 0)
(3 -1.41752e-15 0)
(3 -1.07835e-15 0)
(3 -7.16783e-16 0)
(3 -1.15224e-15 0)
(3 -2.21592e-15 0)
(3 -1.12077e-15 0)
(3 -1.9091e-16 0)
(3 -4.72575e-16 0)
(3 -2.80464e-16 0)
(3 4.20695e-16 0)
(3 3.25529e-16 0)
(3 3.72257e-16 0)
(3 4.4229e-16 0)
(3 8.51134e-16 0)
(3 1.15295e-15 0)
(3 1.43107e-15 0)
(3 1.89562e-15 0)
(3 7.02353e-16 0)
(3 -8.8424e-16 0)
(3 -1.68919e-15 0)
(3 -9.63802e-16 0)
(3 -7.76565e-16 0)
(3 -1.24272e-15 0)
(3 -2.08593e-15 0)
(3 -1.98854e-15 0)
(3 -1.46144e-15 0)
(3 -6.93712e-16 0)
(3 5.66263e-17 0)
(3 4.5341e-17 0)
(3 -5.88871e-16 0)
(3 -4.97042e-16 0)
(3 -4.01576e-16 0)
(3 1.29491e-15 0)
(3 4.19087e-16 0)
(3 -4.22845e-16 0)
(3 -1.37917e-15 0)
(3 -2.07249e-15 0)
(3 -1.09508e-15 0)
(3 -3.65977e-16 0)
(3 -3.89337e-17 0)
(3 -9.73328e-16 0)
(3 -2.82588e-16 0)
(3 5.3139e-16 0)
(3 6.57399e-16 0)
(3 7.64477e-16 0)
(3 6.05635e-16 0)
(3 3.39187e-16 0)
(3 -6.0772e-16 0)
(3 -1.17201e-15 0)
(3 -1.78833e-15 0)
(3 -1.47417e-15 0)
(3 -1.705e-15 0)
(3 -2.45576e-15 0)
(3 -3.24267e-15 0)
(3 -3.01091e-15 0)
(3 -2.97709e-15 0)
(3 -2.30801e-15 0)
(3 -1.7864e-15 0)
(3 -1.69452e-15 0)
(3 -1.04309e-15 0)
(3 -7.40098e-16 0)
(3 -5.10404e-16 0)
(3 -3.09076e-18 0)
(3 -4.71484e-17 0)
(3 -2.27055e-18 0)
(3 -2.7251e-16 0)
(3 7.65404e-16 0)
(3 7.4792e-16 0)
(3 1.58994e-16 0)
(3 -2.96476e-16 0)
(3 -1.90252e-16 0)
(3 -8.93364e-17 0)
(3 2.80529e-16 0)
(3 3.38803e-16 0)
(3 2.32405e-16 0)
(3 -1.31268e-16 0)
(3 -5.7755e-16 0)
(3 -7.21957e-16 0)
(3 -5.57091e-16 0)
(3 -7.99436e-16 0)
(3 -8.76565e-16 0)
(3 -1.2107e-15 0)
(3 -1.54039e-15 0)
(3 -2.24566e-15 0)
(3 -2.41288e-15 0)
(3 -1.83749e-15 0)
(3 -1.84451e-15 0)
(3 -1.16452e-15 0)
(3 -8.12917e-16 0)
(3 -1.09926e-15 0)
(3 -3.9056e-16 0)
(3 -1.22126e-16 0)
(3 -2.31709e-16 0)
(3 -1.05784e-15 0)
(3 -1.26029e-15 0)
(3 -1.33022e-15 0)
(3 -2.83469e-16 0)
(3 2.71909e-17 0)
(3 -5.31492e-16 0)
(3 -1.91837e-15 0)
(3 -2.07886e-15 0)
(3 -2.5989e-15 0)
(3 -1.27748e-15 0)
(3 -2.25663e-16 0)
(3 -2.38792e-16 0)
(3 -4.46053e-17 0)
(3 -3.71152e-16 0)
(3 -6.23427e-17 0)
(3 2.36932e-16 0)
(3 1.10681e-15 0)
(3 1.36293e-15 0)
(3 1.29764e-15 0)
(3 1.12558e-15 0)
(3 9.26087e-16 0)
(3 -1.3676e-16 0)
(3 -2.93208e-16 0)
(3 -5.82302e-16 0)
(3 -8.51787e-16 0)
(3 -1.21241e-15 0)
(3 -9.90676e-16 0)
(3 -1.06194e-15 0)
(3 -1.13628e-15 0)
(3 -8.14491e-16 0)
(3 -1.03097e-15 0)
(3 -1.03405e-15 0)
(3 -5.76753e-16 0)
(3 -3.18905e-16 0)
(3 -6.45178e-16 0)
(3 -1.87779e-15 0)
(3 -2.20188e-15 0)
(3 -3.10137e-15 0)
(3 -3.07707e-15 0)
(3 -1.99977e-15 0)
(3 -1.25349e-15 0)
(3 -1.46612e-17 0)
(3 -1.41749e-15 0)
(3 -2.3878e-15 0)
(3 -2.28566e-15 0)
(3 -1.6109e-15 0)
(3 -1.46851e-15 0)
(3 -8.54344e-16 0)
(3 -6.27238e-16 0)
(3 -1.52588e-15 0)
(3 -2.18827e-15 0)
(3 -2.99363e-15 0)
(3 -2.45637e-15 0)
(3 -1.675e-15 0)
(3 -1.88051e-15 0)
(3 -2.55478e-15 0)
(3 -2.68558e-15 0)
(3 -2.82269e-15 0)
(3 -3.35002e-15 0)
(3 -2.76427e-15 0)
(3 -1.95858e-15 0)
(3 -9.55854e-16 0)
(3 4.20719e-16 0)
(3 1.16964e-15 0)
(3 1.58463e-15 0)
(3 8.55705e-17 0)
(3 2.11738e-17 0)
(3 2.08648e-16 0)
(3 1.09923e-16 0)
(3 8.58544e-16 0)
(3 2.94029e-16 0)
(3 -3.48781e-16 0)
(3 7.5328e-17 0)
(3 4.42097e-16 0)
(3 5.13253e-16 0)
(3 9.21723e-16 0)
(3 9.75061e-16 0)
(3 8.50961e-16 0)
(3 3.07582e-16 0)
(3 -2.47163e-17 0)
(3 -8.24235e-17 0)
(3 1.85993e-17 0)
(3 -8.64059e-16 0)
(3 -1.6047e-15 0)
(3 -1.36953e-15 0)
(3 -6.98383e-16 0)
(3 3.12767e-16 0)
(3 6.11267e-16 0)
(3 5.53187e-16 0)
(3 7.36476e-16 0)
(3 7.58702e-16 0)
(3 4.82564e-16 0)
(3 -2.54101e-16 0)
(3 -4.36487e-16 0)
(3 5.12747e-16 0)
(3 2.75138e-17 0)
(3 2.2361e-16 0)
(3 1.93882e-16 0)
(3 1.05858e-16 0)
(3 2.4024e-16 0)
(3 4.78531e-16 0)
(3 -8.02287e-16 0)
(3 -1.22447e-15 0)
(3 -1.61256e-15 0)
(3 -2.20618e-15 0)
(3 -3.12673e-15 0)
(3 -1.25121e-15 0)
(3 -4.33882e-16 0)
(3 3.21033e-17 0)
(3 1.24265e-16 0)
(3 2.10065e-16 0)
(3 2.42486e-16 0)
(3 1.70639e-16 0)
(3 4.07198e-16 0)
(3 8.25929e-16 0)
(3 7.90075e-16 0)
(3 6.94286e-16 0)
(3 5.3018e-16 0)
(3 5.80411e-16 0)
(3 -1.26089e-16 0)
(3 -7.69158e-16 0)
(3 -1.0799e-15 0)
(3 -2.00465e-15 0)
(3 -2.36692e-15 0)
(3 -1.84878e-15 0)
(3 -1.61083e-15 0)
(3 -1.89898e-15 0)
(3 -2.06451e-15 0)
(3 -7.97307e-16 0)
(3 2.13786e-16 0)
(3 7.93238e-16 0)
(3 -1.32139e-15 0)
(3 -2.31787e-15 0)
(3 -2.21637e-15 0)
(3 -1.46297e-15 0)
(3 -3.48632e-16 0)
(3 -9.94926e-16 0)
(3 -1.37942e-15 0)
(3 -1.8175e-15 0)
(3 -2.01346e-15 0)
(3 -2.58704e-15 0)
(3 -1.81483e-15 0)
(3 -8.27097e-16 0)
(3 -4.25394e-16 0)
(3 5.33474e-16 0)
(3 2.77742e-16 0)
(3 2.61971e-16 0)
(3 -9.46793e-16 0)
(3 -9.25831e-16 0)
(3 -9.76142e-16 0)
(3 -1.27336e-15 0)
(3 -1.42948e-15 0)
(3 -1.47013e-15 0)
(3 -2.81135e-15 0)
(3 -2.35952e-15 0)
(3 -2.32343e-15 0)
(3 -2.50009e-15 0)
(3 -1.3491e-15 0)
(3 -1.53755e-16 0)
(3 1.62462e-15 0)
(3 1.58307e-15 0)
(3 1.24783e-16 0)
(3 1.45367e-16 0)
(3 4.10047e-16 0)
(3 6.577e-16 0)
(3 7.61945e-16 0)
(3 7.86627e-16 0)
(3 3.91672e-16 0)
(3 2.91281e-17 0)
(3 2.64653e-17 0)
(3 3.47974e-16 0)
(3 4.4043e-16 0)
(3 5.30952e-16 0)
(3 6.29783e-16 0)
(3 6.87449e-16 0)
(3 4.09198e-16 0)
(3 6.85936e-16 0)
(3 4.94344e-16 0)
(3 -2.75343e-16 0)
(3 -1.67355e-15 0)
(3 -2.00929e-15 0)
(3 -1.26779e-15 0)
(3 -8.21239e-16 0)
(3 6.7323e-17 0)
(3 1.00147e-16 0)
(3 3.47143e-16 0)
(3 1.67348e-15 0)
(3 1.63904e-15 0)
(3 6.59065e-16 0)
(3 2.63702e-16 0)
(3 4.27078e-16 0)
(3 7.2524e-16 0)
(3 1.14355e-15 0)
(3 1.21752e-15 0)
(3 1.05451e-15 0)
(3 6.66917e-16 0)
(3 6.92673e-16 0)
(3 5.13274e-16 0)
(3 -3.86098e-16 0)
(3 -1.19304e-15 0)
(3 -1.20231e-15 0)
(3 -1.43586e-15 0)
(3 -7.30272e-16 0)
(3 4.26686e-16 0)
(3 1.02738e-15 0)
(3 1.29439e-15 0)
(3 3.18855e-16 0)
(3 9.50278e-17 0)
(3 -3.44129e-16 0)
(3 -1.10207e-15 0)
(3 -1.35776e-15 0)
(3 -8.12152e-16 0)
(3 3.3747e-18 0)
(3 4.69694e-16 0)
(3 1.80647e-16 0)
(3 -3.28858e-16 0)
(3 -7.2136e-16 0)
(3 -6.7819e-16 0)
(3 -7.24411e-16 0)
(3 -1.45229e-16 0)
(3 1.09476e-15 0)
(3 6.42854e-16 0)
(3 1.52838e-17 0)
(3 -8.06775e-16 0)
(3 -4.13226e-16 0)
(3 7.27415e-16 0)
(3 8.79354e-16 0)
(3 5.33953e-16 0)
(3 3.27285e-16 0)
(3 -6.08623e-16 0)
(3 -1.95099e-15 0)
(3 -2.67795e-15 0)
(3 -2.47035e-15 0)
(3 -2.11536e-15 0)
(3 -1.92434e-15 0)
(3 -2.05327e-15 0)
(3 -1.72966e-15 0)
(3 -1.31559e-15 0)
(3 6.11162e-16 0)
(3 1.58939e-15 0)
(3 1.04412e-15 0)
(3 2.01217e-16 0)
(3 -1.23726e-15 0)
(3 -1.44493e-15 0)
(3 -1.715e-15 0)
(3 -5.29984e-16 0)
(3 -9.68959e-17 0)
(3 1.71037e-16 0)
(3 2.81884e-16 0)
(3 -3.39506e-16 0)
(3 -6.30065e-16 0)
(3 -1.85121e-15 0)
(3 -2.56335e-15 0)
(3 -1.56051e-15 0)
(3 -1.01078e-15 0)
(3 6.59829e-16 0)
(3 1.52482e-15 0)
(3 -3.21845e-17 0)
(3 -4.25245e-19 0)
(3 -3.74887e-18 0)
(3 2.9288e-16 0)
(3 1.88245e-16 0)
(3 -3.69604e-17 0)
(3 -1.11262e-16 0)
(3 -4.10877e-16 0)
(3 1.10244e-16 0)
(3 2.73917e-16 0)
(3 1.25448e-16 0)
(3 1.01572e-16 0)
(3 2.26738e-16 0)
(3 5.86048e-16 0)
(3 5.66645e-16 0)
(3 4.77146e-16 0)
(3 8.11594e-17 0)
(3 3.50049e-16 0)
(3 1.11413e-15 0)
(3 1.11469e-15 0)
(3 3.59087e-16 0)
(3 -4.50543e-17 0)
(3 -4.82874e-16 0)
(3 -3.01034e-16 0)
(3 2.19589e-16 0)
(3 8.90333e-16 0)
(3 2.01185e-15 0)
(3 3.09113e-15 0)
(3 2.99047e-15 0)
(3 2.55893e-15 0)
(3 2.69999e-15 0)
(3 2.546e-15 0)
(3 2.30056e-15 0)
(3 2.17253e-15 0)
(3 1.9676e-15 0)
(3 9.99948e-16 0)
(3 7.25296e-16 0)
(3 8.6763e-16 0)
(3 5.18359e-16 0)
(3 1.64317e-17 0)
(3 -7.03389e-17 0)
(3 -2.03666e-16 0)
(3 -4.86709e-16 0)
(3 -6.40702e-16 0)
(3 -5.70017e-16 0)
(3 -7.94403e-16 0)
(3 -3.59278e-16 0)
(3 -5.03611e-16 0)
(3 -1.08006e-15 0)
(3 -1.50739e-15 0)
(3 -1.31082e-15 0)
(3 -1.00459e-15 0)
(3 -6.33452e-16 0)
(3 -1.26071e-15 0)
(3 -9.39436e-16 0)
(3 -5.94379e-16 0)
(3 1.3128e-16 0)
(3 1.9489e-15 0)
(3 3.23092e-15 0)
(3 3.33964e-15 0)
(3 3.06321e-15 0)
(3 2.48852e-15 0)
(3 1.79308e-15 0)
(3 1.61834e-15 0)
(3 1.60336e-15 0)
(3 1.15891e-15 0)
(3 2.58217e-16 0)
(3 -3.53618e-16 0)
(3 -1.0786e-15 0)
(3 -1.9702e-15 0)
(3 -2.51317e-15 0)
(3 -1.69012e-15 0)
(3 -4.04799e-16 0)
(3 -6.92061e-16 0)
(3 -6.72708e-16 0)
(3 -3.33804e-16 0)
(3 -5.99111e-16 0)
(3 -3.53057e-16 0)
(3 1.77852e-16 0)
(3 6.97722e-16 0)
(3 -5.43153e-16 0)
(3 -1.01988e-15 0)
(3 -5.89892e-16 0)
(3 1.4972e-16 0)
(3 -6.80607e-17 0)
(3 7.16069e-16 0)
(3 1.29896e-15 0)
(3 1.2355e-15 0)
(3 5.27978e-16 0)
(3 -2.77488e-16 0)
(3 -1.17302e-15 0)
(3 -1.38571e-15 0)
(3 -1.15722e-15 0)
(3 -1.13001e-15 0)
(3 -8.1261e-16 0)
(3 5.2036e-16 0)
(3 -5.07823e-17 0)
(3 -2.56809e-16 0)
(3 -5.11896e-16 0)
(3 -5.95406e-16 0)
(3 -8.38673e-16 0)
(3 -6.59714e-16 0)
(3 -2.14071e-16 0)
(3 -2.82128e-19 0)
(3 4.28531e-16 0)
(3 1.95843e-16 0)
(3 2.0217e-16 0)
(3 5.26927e-17 0)
(3 -8.92093e-17 0)
(3 -6.43965e-17 0)
(3 4.53856e-16 0)
(3 -2.64388e-17 0)
(3 -9.29061e-16 0)
(3 4.41113e-16 0)
(3 2.21525e-15 0)
(3 2.42937e-15 0)
(3 1.80006e-15 0)
(3 1.28211e-15 0)
(3 7.39606e-16 0)
(3 1.43022e-15 0)
(3 2.10086e-15 0)
(3 3.18924e-15 0)
(3 3.98108e-15 0)
(3 3.69787e-15 0)
(3 2.21724e-15 0)
(3 2.12371e-15 0)
(3 2.01366e-15 0)
(3 1.7471e-15 0)
(3 1.6319e-15 0)
(3 1.70219e-15 0)
(3 1.67504e-15 0)
(3 9.16829e-16 0)
(3 2.09e-16 0)
(3 5.38055e-16 0)
(3 4.37052e-16 0)
(3 -1.59325e-16 0)
(3 4.99432e-16 0)
(3 -5.09829e-16 0)
(3 -1.48302e-15 0)
(3 -2.23174e-15 0)
(3 -2.83309e-15 0)
(3 -1.42303e-15 0)
(3 -6.35135e-16 0)
(3 -1.2114e-15 0)
(3 -2.95691e-15 0)
(3 -2.99414e-15 0)
(3 -2.1355e-15 0)
(3 -1.02445e-15 0)
(3 -8.23324e-16 0)
(3 -1.2771e-15 0)
(3 -1.99285e-15 0)
(3 1.61685e-15 0)
(3 2.29573e-15 0)
(3 2.75796e-15 0)
(3 3.05708e-15 0)
(3 2.64303e-15 0)
(3 2.57871e-15 0)
(3 3.73592e-15 0)
(3 3.76112e-15 0)
(3 2.83646e-15 0)
(3 1.20224e-15 0)
(3 4.28448e-16 0)
(3 -4.5953e-16 0)
(3 -1.32538e-15 0)
(3 -1.2703e-15 0)
(3 -1.25982e-15 0)
(3 -8.62336e-16 0)
(3 -8.41343e-16 0)
(3 3.30413e-16 0)
(3 1.74759e-15 0)
(3 9.8562e-16 0)
(3 -1.66616e-16 0)
(3 -1.23596e-15 0)
(3 -2.34871e-15 0)
(3 -1.90479e-15 0)
(3 -1.19049e-15 0)
(3 6.92504e-16 0)
(3 2.55695e-15 0)
(3 3.07523e-15 0)
(3 3.08143e-15 0)
(3 2.5773e-15 0)
(3 1.95463e-15 0)
(3 1.44277e-15 0)
(3 8.26452e-16 0)
(3 4.81291e-16 0)
(3 6.51782e-16 0)
(3 9.69057e-16 0)
(3 8.66781e-16 0)
(3 7.32496e-16 0)
(3 -7.37571e-17 0)
(3 -3.11405e-16 0)
(3 -2.92064e-17 0)
(3 1.25648e-16 0)
(3 5.80089e-17 0)
(3 1.03623e-16 0)
(3 4.73737e-18 0)
(3 4.88635e-17 0)
(3 -1.77889e-16 0)
(3 8.96675e-17 0)
(3 5.38435e-17 0)
(3 1.7804e-16 0)
(3 3.04605e-16 0)
(3 5.08461e-16 0)
(3 7.9536e-16 0)
(3 6.81233e-16 0)
(3 6.06605e-16 0)
(3 1.72945e-16 0)
(3 -6.2953e-16 0)
(3 -9.61282e-16 0)
(3 -1.32182e-15 0)
(3 -1.68747e-15 0)
(3 -1.54572e-15 0)
(3 -5.94567e-16 0)
(3 -1.71216e-16 0)
(3 8.84966e-16 0)
(3 3.02244e-15 0)
(3 3.11502e-15 0)
(3 3.12951e-15 0)
(3 3.07323e-15 0)
(3 2.36432e-15 0)
(3 2.0063e-15 0)
(3 9.09687e-16 0)
(3 -4.53987e-17 0)
(3 -3.68297e-17 0)
(3 -5.80163e-17 0)
(3 -1.141e-16 0)
(3 -1.41777e-16 0)
(3 -7.13961e-16 0)
(3 -8.68803e-16 0)
(3 -3.90611e-16 0)
(3 7.32891e-17 0)
(3 8.55603e-16 0)
(3 2.90206e-16 0)
(3 -7.0207e-16 0)
(3 -8.73182e-16 0)
(3 -1.61932e-15 0)
(3 -1.50565e-15 0)
(3 -1.62931e-15 0)
(3 -2.31318e-15 0)
(3 -2.60773e-15 0)
(3 -2.6497e-15 0)
(3 -2.55606e-15 0)
(3 -2.32657e-15 0)
(3 -1.84647e-15 0)
(3 -6.8068e-16 0)
(3 1.07341e-16 0)
(3 -1.23215e-17 0)
(3 1.41093e-15 0)
(3 1.61667e-15 0)
(3 1.3533e-15 0)
(3 1.61671e-15 0)
(3 2.37624e-15 0)
(3 2.73724e-15 0)
(3 2.56882e-15 0)
(3 3.98472e-15 0)
(3 4.06181e-15 0)
(3 2.50152e-15 0)
(3 9.48308e-16 0)
(3 -1.05196e-15 0)
(3 -1.11065e-15 0)
(3 -2.32866e-18 0)
(3 5.17839e-16 0)
(3 5.81024e-16 0)
(3 -6.46465e-17 0)
(3 4.07431e-17 0)
(3 1.21293e-15 0)
(3 3.67785e-16 0)
(3 -4.9023e-16 0)
(3 -5.64115e-16 0)
(3 -7.49991e-16 0)
(3 -1.13992e-15 0)
(3 -1.11509e-15 0)
(3 1.3467e-15 0)
(3 2.94237e-15 0)
(3 3.28739e-15 0)
(3 3.62386e-15 0)
(3 3.82684e-15 0)
(3 3.08405e-15 0)
(3 2.07213e-15 0)
(3 1.37918e-15 0)
(3 9.45112e-16 0)
(3 9.31582e-16 0)
(3 9.33791e-16 0)
(3 4.36146e-16 0)
(3 -2.12676e-16 0)
(3 -2.44681e-16 0)
(3 4.86717e-16 0)
(3 2.09287e-15 0)
(3 -1.97611e-17 0)
(3 -1.87271e-18 0)
(3 1.49726e-17 0)
(3 4.69391e-16 0)
(3 3.19021e-16 0)
(3 -3.52296e-16 0)
(3 -1.24585e-15 0)
(3 -1.39987e-15 0)
(3 -8.99726e-16 0)
(3 -1.73134e-16 0)
(3 6.47119e-17 0)
(3 5.7257e-16 0)
(3 7.62422e-16 0)
(3 6.78417e-16 0)
(3 2.9401e-16 0)
(3 -2.83238e-16 0)
(3 -4.96091e-16 0)
(3 -8.8318e-16 0)
(3 -7.58905e-16 0)
(3 -3.26355e-16 0)
(3 -1.80782e-16 0)
(3 7.36935e-16 0)
(3 1.22909e-15 0)
(3 1.18277e-15 0)
(3 1.8639e-15 0)
(3 1.79656e-15 0)
(3 2.03445e-15 0)
(3 1.67846e-15 0)
(3 2.2391e-15 0)
(3 1.39495e-15 0)
(3 8.89585e-16 0)
(3 1.16307e-15 0)
(3 2.43877e-16 0)
(3 -1.53914e-15 0)
(3 -1.25651e-15 0)
(3 -1.2074e-15 0)
(3 -1.76419e-15 0)
(3 -1.01579e-15 0)
(3 -1.0052e-15 0)
(3 -2.45136e-16 0)
(3 -3.59763e-16 0)
(3 -2.79099e-16 0)
(3 8.14291e-18 0)
(3 -2.97476e-16 0)
(3 -1.10118e-15 0)
(3 -3.95543e-15 0)
(3 -4.45097e-15 0)
(3 -3.15817e-15 0)
(3 -1.55755e-15 0)
(3 -2.88552e-17 0)
(3 -3.87362e-16 0)
(3 -7.87022e-16 0)
(3 -2.4689e-16 0)
(3 1.64797e-15 0)
(3 2.33949e-15 0)
(3 4.93287e-16 0)
(3 5.19229e-16 0)
(3 4.7926e-16 0)
(3 4.19719e-16 0)
(3 9.70372e-16 0)
(3 1.62136e-15 0)
(3 1.50494e-15 0)
(3 2.89473e-15 0)
(3 3.14038e-15 0)
(3 1.42109e-15 0)
(3 5.74099e-16 0)
(3 1.65319e-16 0)
(3 8.14335e-17 0)
(3 4.56531e-16 0)
(3 6.71973e-16 0)
(3 8.88233e-16 0)
(3 1.77575e-15 0)
(3 3.50092e-15 0)
(3 4.08744e-15 0)
(3 1.83519e-15 0)
(3 -4.39671e-17 0)
(3 -6.60142e-17 0)
(3 1.657e-16 0)
(3 -6.87251e-16 0)
(3 -5.78936e-16 0)
(3 2.03492e-17 0)
(3 1.21668e-15 0)
(3 2.11452e-15 0)
(3 2.83815e-15 0)
(3 3.19295e-15 0)
(3 3.32951e-15 0)
(3 2.65766e-15 0)
(3 1.43035e-15 0)
(3 1.03599e-15 0)
(3 3.51716e-16 0)
(3 -7.30907e-16 0)
(3 -1.61345e-15 0)
(3 -1.63636e-15 0)
(3 -9.27958e-16 0)
(3 -8.52494e-16 0)
(3 -1.58344e-16 0)
(3 -7.57094e-17 0)
(3 -3.94206e-16 0)
(3 -4.9301e-16 0)
(3 -9.71979e-18 0)
(3 -4.71463e-17 0)
(3 2.84226e-17 0)
(3 -4.73643e-16 0)
(3 -3.15445e-16 0)
(3 -2.22909e-16 0)
(3 -3.18503e-16 0)
(3 -2.42748e-16 0)
(3 -4.06248e-16 0)
(3 -2.58053e-16 0)
(3 -2.52925e-16 0)
(3 1.31412e-16 0)
(3 3.67842e-16 0)
(3 3.31354e-16 0)
(3 7.70269e-16 0)
(3 1.41595e-15 0)
(3 1.63792e-15 0)
(3 9.29908e-16 0)
(3 2.31528e-16 0)
(3 -3.92303e-16 0)
(3 -3.91186e-16 0)
(3 -1.08326e-16 0)
(3 -2.90506e-16 0)
(3 -2.70269e-16 0)
(3 8.31746e-16 0)
(3 2.3619e-15 0)
(3 2.71238e-15 0)
(3 2.26216e-15 0)
(3 5.57632e-16 0)
(3 -6.71817e-16 0)
(3 -1.28966e-15 0)
(3 -2.49024e-15 0)
(3 -2.27604e-15 0)
(3 -1.18492e-15 0)
(3 -4.47419e-16 0)
(3 -3.17279e-16 0)
(3 -2.21704e-16 0)
(3 -1.78743e-16 0)
(3 -1.25737e-15 0)
(3 -2.59279e-15 0)
(3 -2.6687e-15 0)
(3 -2.30482e-15 0)
(3 -2.30305e-15 0)
(3 -1.24132e-15 0)
(3 -2.22605e-16 0)
(3 -1.38538e-16 0)
(3 6.94829e-16 0)
(3 6.26465e-16 0)
(3 3.53561e-16 0)
(3 3.161e-16 0)
(3 6.67669e-16 0)
(3 7.09604e-16 0)
(3 -8.124e-17 0)
(3 6.05123e-16 0)
(3 1.64855e-15 0)
(3 1.92927e-15 0)
(3 1.66526e-15 0)
(3 9.02052e-16 0)
(3 8.02264e-16 0)
(3 1.27687e-15 0)
(3 8.7971e-16 0)
(3 -2.79844e-16 0)
(3 -9.30736e-16 0)
(3 -1.18704e-15 0)
(3 9.83799e-16 0)
(3 1.98719e-15 0)
(3 1.97973e-15 0)
(3 2.05411e-15 0)
(3 2.87565e-15 0)
(3 4.61709e-15 0)
(3 5.51726e-15 0)
(3 3.34104e-15 0)
(3 2.5603e-15 0)
(3 2.06485e-15 0)
(3 1.31606e-15 0)
(3 1.47563e-16 0)
(3 -9.16797e-16 0)
(3 -1.31075e-15 0)
(3 -6.71063e-16 0)
(3 3.98563e-16 0)
(3 4.87005e-16 0)
(3 1.94523e-16 0)
(3 9.40128e-16 0)
(3 1.12948e-15 0)
(3 4.95056e-16 0)
(3 3.13453e-16 0)
(3 -4.29926e-16 0)
(3 -7.65729e-16 0)
(3 -1.39673e-15 0)
(3 -1.98301e-15 0)
(3 -2.53005e-15 0)
(3 -3.49648e-15 0)
(3 -3.16956e-15 0)
(3 -4.0432e-18 0)
(3 1.80017e-16 0)
(3 -5.51537e-17 0)
(3 -8.84218e-16 0)
(3 -3.33358e-16 0)
(3 -1.10572e-16 0)
(3 5.58004e-16 0)
(3 5.52452e-16 0)
(3 3.90353e-16 0)
(3 2.55114e-16 0)
(3 4.80852e-16 0)
(3 2.34335e-16 0)
(3 1.31019e-16 0)
(3 3.32424e-17 0)
(3 3.36651e-16 0)
(3 7.68057e-16 0)
(3 6.56684e-16 0)
(3 6.92713e-16 0)
(3 1.00616e-15 0)
(3 9.00432e-16 0)
(3 1.06925e-16 0)
(3 -7.63455e-16 0)
(3 -8.83012e-16 0)
(3 -8.93623e-16 0)
(3 -1.02758e-15 0)
(3 -1.77626e-15 0)
(3 -3.01416e-15 0)
(3 -1.77977e-15 0)
(3 -1.46896e-15 0)
(3 -7.97695e-16 0)
(3 6.89244e-16 0)
(3 1.04662e-15 0)
(3 5.13738e-16 0)
(3 -7.34032e-16 0)
(3 -1.1894e-15 0)
(3 -1.24291e-15 0)
(3 -9.6353e-16 0)
(3 -8.3558e-16 0)
(3 -4.50873e-16 0)
(3 -7.37555e-17 0)
(3 -2.89876e-16 0)
(3 -2.2725e-16 0)
(3 -5.23231e-16 0)
(3 -1.33222e-15 0)
(3 -1.96982e-15 0)
(3 -1.18923e-15 0)
(3 6.57534e-16 0)
(3 2.51466e-16 0)
(3 -3.68632e-16 0)
(3 -3.94992e-16 0)
(3 -9.0838e-17 0)
(3 2.40498e-16 0)
(3 6.95375e-16 0)
(3 4.34527e-16 0)
(3 2.06775e-15 0)
(3 2.9106e-15 0)
(3 2.89565e-15 0)
(3 2.1537e-15 0)
(3 1.70134e-15 0)
(3 1.69401e-15 0)
(3 1.9211e-15 0)
(3 1.82811e-15 0)
(3 1.89788e-15 0)
(3 1.39726e-15 0)
(3 2.45758e-16 0)
(3 -1.33935e-15 0)
(3 -1.29885e-16 0)
(3 8.28324e-16 0)
(3 1.98758e-15 0)
(3 2.45338e-15 0)
(3 2.69638e-15 0)
(3 2.00184e-15 0)
(3 1.48415e-15 0)
(3 2.3837e-15 0)
(3 2.82106e-15 0)
(3 2.58784e-15 0)
(3 2.13679e-15 0)
(3 8.94754e-16 0)
(3 7.94642e-16 0)
(3 5.17077e-16 0)
(3 5.68143e-16 0)
(3 1.03644e-15 0)
(3 9.18603e-16 0)
(3 8.28968e-16 0)
(3 1.9544e-16 0)
(3 -1.60057e-16 0)
(3 1.28256e-17 0)
(3 1.96092e-16 0)
(3 2.50987e-16 0)
(3 7.12036e-16 0)
(3 9.89146e-16 0)
(3 7.99236e-16 0)
(3 -2.3383e-16 0)
(3 -1.47572e-15 0)
(3 -1.92254e-15 0)
(3 -2.86323e-15 0)
(3 3.27476e-18 0)
(3 1.72732e-16 0)
(3 5.15952e-17 0)
(3 -9.72578e-16 0)
(3 -8.2256e-16 0)
(3 -5.46027e-17 0)
(3 9.13468e-16 0)
(3 4.8338e-16 0)
(3 1.95177e-16 0)
(3 2.71929e-16 0)
(3 5.28301e-16 0)
(3 5.02526e-16 0)
(3 2.03848e-16 0)
(3 6.35853e-17 0)
(3 5.76022e-16 0)
(3 8.49451e-16 0)
(3 7.62506e-16 0)
(3 1.61873e-16 0)
(3 -1.49245e-16 0)
(3 7.60229e-17 0)
(3 5.75405e-16 0)
(3 1.53211e-16 0)
(3 -4.6178e-16 0)
(3 -8.04065e-16 0)
(3 -4.8296e-16 0)
(3 -1.03292e-15 0)
(3 -1.31364e-15 0)
(3 -1.48041e-15 0)
(3 -1.70348e-15 0)
(3 -1.5509e-15 0)
(3 -1.01442e-15 0)
(3 -9.1756e-16 0)
(3 -9.14347e-16 0)
(3 -1.28991e-15 0)
(3 -1.24371e-15 0)
(3 -1.222e-15 0)
(3 -7.49913e-16 0)
(3 -2.02991e-16 0)
(3 -1.36399e-16 0)
(3 -7.58573e-16 0)
(3 -2.33441e-15 0)
(3 -2.11915e-15 0)
(3 -1.20241e-15 0)
(3 -1.11123e-15 0)
(3 -9.61263e-16 0)
(3 -4.29281e-16 0)
(3 -1.39572e-15 0)
(3 -1.78437e-15 0)
(3 -1.37332e-15 0)
(3 -1.30015e-15 0)
(3 -8.62764e-16 0)
(3 -2.54476e-16 0)
(3 5.47744e-16 0)
(3 1.42536e-15 0)
(3 2.25036e-15 0)
(3 2.39257e-15 0)
(3 1.97243e-15 0)
(3 1.26914e-15 0)
(3 8.6196e-16 0)
(3 9.20189e-16 0)
(3 1.1326e-15 0)
(3 1.59722e-15 0)
(3 1.20784e-15 0)
(3 9.7457e-16 0)
(3 6.94981e-16 0)
(3 6.24152e-16 0)
(3 1.8158e-15 0)
(3 5.92255e-16 0)
(3 1.43893e-16 0)
(3 1.02805e-15 0)
(3 1.33807e-15 0)
(3 6.95878e-16 0)
(3 -1.12738e-15 0)
(3 -1.31141e-15 0)
(3 1.67419e-16 0)
(3 3.79589e-16 0)
(3 2.77804e-17 0)
(3 -4.19918e-16 0)
(3 -1.1125e-16 0)
(3 2.19601e-16 0)
(3 5.26694e-16 0)
(3 5.03237e-16 0)
(3 5.4343e-16 0)
(3 7.03436e-16 0)
(3 9.08393e-16 0)
(3 7.80064e-16 0)
(3 7.55088e-16 0)
(3 9.72939e-16 0)
(3 3.72164e-16 0)
(3 1.02623e-15 0)
(3 9.97212e-16 0)
(3 1.53195e-15 0)
(3 2.77139e-15 0)
(3 1.73722e-15 0)
(3 1.63666e-16 0)
(3 -8.59431e-16 0)
(3 -1.78182e-16 0)
(3 -3.61122e-16 0)
(3 3.12649e-16 0)
(3 6.54244e-16 0)
(3 8.37247e-16 0)
(3 1.2676e-15 0)
(3 1.10022e-15 0)
(3 5.6359e-16 0)
(3 2.09486e-16 0)
(3 -1.01204e-16 0)
(3 -6.88585e-17 0)
(3 -7.33528e-17 0)
(3 -1.87388e-17 0)
(3 -4.37528e-17 0)
(3 -2.80379e-16 0)
(3 -1.91153e-16 0)
(3 1.73452e-16 0)
(3 3.37269e-16 0)
(3 -7.03689e-16 0)
(3 -5.82776e-16 0)
(3 -5.09471e-16 0)
(3 -3.86371e-17 0)
(3 2.63713e-16 0)
(3 9.67421e-16 0)
(3 1.70584e-15 0)
(3 1.81159e-15 0)
(3 2.51593e-15 0)
(3 1.28732e-15 0)
(3 5.92544e-16 0)
(3 1.46414e-16 0)
(3 -7.63704e-16 0)
(3 -1.73276e-15 0)
(3 -1.53229e-15 0)
(3 -1.71583e-15 0)
(3 -2.03444e-15 0)
(3 -1.44027e-15 0)
(3 -5.32662e-16 0)
(3 -5.19411e-16 0)
(3 -7.65665e-16 0)
(3 -1.30898e-15 0)
(3 -2.88225e-15 0)
(3 -4.05272e-15 0)
(3 -4.05439e-15 0)
(3 -1.92665e-15 0)
(3 -1.27548e-15 0)
(3 -1.03743e-15 0)
(3 -1.90993e-15 0)
(3 -2.47561e-15 0)
(3 -2.36212e-15 0)
(3 -1.83147e-15 0)
(3 -1.41128e-15 0)
(3 -1.25921e-15 0)
(3 -8.71304e-16 0)
(3 -8.63537e-16 0)
(3 1.45317e-15 0)
(3 3.05983e-15 0)
(3 2.44085e-15 0)