/*--------------------------------*- C++ -*----------------------------------*\
  =========                 |
  \\      /  F ield         | OpenFOAM: The Open Source CFD Toolbox
   \\    /   O peration     | Website:  https://openfoam.org
    \\  /    A nd           | Version:  7
     \\/     M anipulation  |
\*---------------------------------------------------------------------------*/
FoamFile
{
    version     2.0;
    format      ascii;
    class       volVectorField;
    location    "3";
    object      U;
}
// * * * * * * * * * * * * * * * * * * * * * * * * * * * * * * * * * * * * * //

dimensions      [0 1 -1 0 0 0 0];

internalField   nonuniform List<vector> 
73728
(
(3 1.14245e-16 0)
(3 2.00335e-16 0)
(3 -2.48356e-16 0)
(3 -4.88169e-16 0)
(3 -5.39844e-16 0)
(3 -5.58131e-16 0)
(3 -4.78474e-16 0)
(3 1.11644e-16 0)
(3 3.24114e-16 0)
(3 5.30996e-16 0)
(3 4.14792e-16 0)
(3 3.46185e-16 0)
(3 2.88059e-16 0)
(3 2.02679e-16 0)
(3 5.16463e-17 0)
(3 -2.9438e-16 0)
(3 -5.72854e-16 0)
(3 -3.43841e-16 0)
(3 -2.5045e-16 0)
(3 -5.20289e-16 0)
(3 -7.4642e-16 0)
(3 -1.36446e-15 0)
(3 -1.61507e-15 0)
(3 -1.14338e-15 0)
(3 -7.49463e-16 0)
(3 -1.03057e-15 0)
(3 -1.77818e-15 0)
(3 -1.01552e-15 0)
(3 -3.86797e-16 0)
(3 1.22907e-15 0)
(3 1.39714e-15 0)
(3 5.62578e-16 0)
(3 2.02852e-16 0)
(3 1.94725e-16 0)
(3 1.4385e-16 0)
(3 8.75687e-16 0)
(3 1.02062e-15 0)
(3 3.24663e-16 0)
(3 -1.39652e-16 0)
(3 -4.89894e-16 0)
(3 -1.03053e-15 0)
(3 -1.54648e-15 0)
(3 -6.4802e-16 0)
(3 -2.53859e-16 0)
(3 -5.42631e-16 0)
(3 -2.8387e-16 0)
(3 -2.8676e-16 0)
(3 -6.58766e-16 0)
(3 -6.54661e-16 0)
(3 -7.48938e-16 0)
(3 -8.99042e-16 0)
(3 -1.15962e-15 0)
(3 -1.38029e-15 0)
(3 -1.34204e-15 0)
(3 -1.18063e-15 0)
(3 -8.52246e-16 0)
(3 -4.67403e-16 0)
(3 -2.08847e-16 0)
(3 -1.36675e-15 0)
(3 -1.41789e-15 0)
(3 -1.65721e-15 0)
(3 -1.45756e-15 0)
(3 -9.1484e-16 0)
(3 -7.84478e-16 0)
(3 -9.17743e-16 0)
(3 -1.39684e-16 0)
(3 1.7826e-16 0)
(3 1.16589e-15 0)
(3 1.65371e-15 0)
(3 1.45586e-15 0)
(3 1.08114e-15 0)
(3 6.06127e-16 0)
(3 -2.80573e-16 0)
(3 -1.32626e-16 0)
(3 -5.61493e-16 0)
(3 -1.31995e-15 0)
(3 -1.67604e-15 0)
(3 5.01885e-16 0)
(3 9.12024e-16 0)
(3 2.20947e-15 0)
(3 2.82951e-15 0)
(3 1.34e-15 0)
(3 5.11157e-16 0)
(3 2.97769e-16 0)
(3 7.26041e-16 0)
(3 8.82989e-16 0)
(3 1.12588e-15 0)
(3 1.03112e-15 0)
(3 3.6717e-16 0)
(1.55092 0.00927035 0)
(0.631227 0.0120136 0)
(0.53659 0.0154813 0)
(0.489144 0.0181514 0)
(0.435309 0.0187812 0)
(0.383178 0.0352929 0)
(0.326624 0.0457937 0)
(3 7.79276e-17 0)
(3 5.29332e-17 0)
(3 -4.50569e-16 0)
(3 -7.82716e-16 0)
(3 -7.57706e-16 0)
(3 -9.06201e-16 0)
(3 -1.38253e-15 0)
(3 -3.0513e-16 0)
(3 8.39535e-16 0)
(3 1.24526e-15 0)
(3 1.07598e-15 0)
(3 3.71648e-16 0)
(3 -4.62162e-16 0)
(3 -5.49323e-16 0)
(3 -9.66242e-16 0)
(3 -9.8507e-16 0)
(3 -1.07916e-15 0)
(3 -7.84198e-16 0)
(3 -8.70897e-16 0)
(3 -1.08769e-15 0)
(3 -9.69631e-16 0)
(3 -1.05694e-15 0)
(3 -1.31803e-15 0)
(3 -1.2164e-15 0)
(3 -6.90764e-16 0)
(3 -9.11975e-16 0)
(3 -1.82852e-15 0)
(3 -1.87996e-15 0)
(3 -1.27176e-15 0)
(3 8.33212e-16 0)
(3 1.16908e-15 0)
(3 1.11007e-15 0)
(3 9.66016e-16 0)
(3 1.16625e-15 0)
(3 1.01223e-15 0)
(3 1.0295e-15 0)
(3 8.36963e-16 0)
(3 5.49719e-16 0)
(3 -2.64122e-16 0)
(3 -6.51595e-16 0)
(3 -1.30119e-15 0)
(3 -1.78168e-15 0)
(3 -1.1736e-15 0)
(3 -7.71896e-16 0)
(3 -6.42148e-16 0)
(3 -8.30557e-16 0)
(3 -9.33053e-16 0)
(3 -1.16816e-15 0)
(3 -1.56051e-15 0)
(3 -1.66107e-15 0)
(3 -1.31992e-15 0)
(3 -1.49023e-15 0)
(3 -1.60546e-15 0)
(3 -2.01649e-15 0)
(3 -2.61627e-15 0)
(3 -2.17801e-15 0)
(3 -6.69135e-16 0)
(3 -2.94555e-16 0)
(3 -1.64029e-15 0)
(3 -1.87531e-15 0)
(3 -1.62559e-15 0)
(3 -1.29107e-15 0)
(3 -1.2107e-15 0)
(3 -1.81549e-15 0)
(3 -2.06149e-15 0)
(3 -1.37797e-16 0)
(3 1.33903e-15 0)
(3 2.29569e-15 0)
(3 2.52445e-15 0)
(3 2.37228e-15 0)
(3 1.46274e-15 0)
(3 4.03424e-16 0)
(3 -6.29664e-16 0)
(3 -1.2453e-15 0)
(3 -1.01236e-15 0)
(3 -1.11066e-15 0)
(3 -1.20167e-15 0)
(3 8.07652e-16 0)
(3 3.39033e-15 0)
(3 4.46054e-15 0)
(3 4.33606e-15 0)
(3 3.34144e-15 0)
(3 1.62844e-15 0)
(3 1.3425e-15 0)
(3 1.47142e-15 0)
(3 1.60925e-15 0)
(3 1.97681e-15 0)
(3 2.404e-15 0)
(3 1.01651e-15 0)
(1.57681 0.0437961 0)
(0.629434 0.0506671 0)
(0.528586 0.0500016 0)
(0.485328 0.0520769 0)
(0.43909 0.0588151 0)
(0.405299 0.0815056 0)
(0.372997 0.101032 0)
(3 1.01827e-16 0)
(3 -1.89987e-16 0)
(3 -2.24591e-16 0)
(3 -3.74385e-16 0)
(3 -4.70752e-16 0)
(3 -6.75115e-16 0)
(3 -6.36703e-16 0)
(3 -4.20865e-16 0)
(3 -4.78166e-16 0)
(3 -3.70299e-16 0)
(3 -6.90326e-17 0)
(3 -3.38977e-16 0)
(3 -2.74958e-16 0)
(3 -2.89868e-16 0)
(3 -4.84273e-16 0)
(3 -6.93655e-16 0)
(3 -6.53888e-16 0)
(3 -7.99439e-16 0)
(3 -9.28862e-16 0)
(3 -8.60091e-16 0)
(3 -6.40156e-16 0)
(3 -6.67618e-16 0)
(3 -5.08259e-16 0)
(3 -2.97818e-16 0)
(3 -3.81057e-16 0)
(3 -1.20114e-15 0)
(3 -1.17647e-15 0)
(3 -8.37527e-16 0)
(3 -1.97387e-16 0)
(3 4.61798e-16 0)
(3 1.28295e-15 0)
(3 7.16069e-16 0)
(3 7.85706e-16 0)
(3 6.29857e-16 0)
(3 6.25836e-16 0)
(3 -2.80671e-16 0)
(3 -2.22537e-17 0)
(3 4.22413e-16 0)
(3 2.66836e-16 0)
(3 -5.68872e-16 0)
(3 -1.37446e-15 0)
(3 -1.5897e-15 0)
(3 -1.33083e-15 0)
(3 -6.08935e-16 0)
(3 -5.58665e-16 0)
(3 -3.42955e-16 0)
(3 2.18252e-16 0)
(3 -5.83747e-17 0)
(3 -2.41887e-16 0)
(3 -3.62058e-16 0)
(3 -3.6182e-16 0)
(3 -1.6886e-15 0)
(3 -1.49637e-15 0)
(3 -1.17372e-15 0)
(3 -1.32361e-15 0)
(3 -1.46186e-15 0)
(3 -1.26179e-15 0)
(3 -4.11145e-16 0)
(3 -1.18748e-16 0)
(3 -5.20045e-16 0)
(3 -6.99922e-16 0)
(3 -8.20175e-16 0)
(3 -1.19851e-15 0)
(3 -2.26503e-15 0)
(3 -2.71175e-15 0)
(3 -1.14737e-15 0)
(3 1.44219e-15 0)
(3 1.46956e-15 0)
(3 1.45945e-15 0)
(3 1.35238e-15 0)
(3 5.75886e-16 0)
(3 7.13054e-16 0)
(3 -4.69652e-17 0)
(3 -1.94759e-15 0)
(3 -1.00601e-15 0)
(3 -7.61891e-16 0)
(3 -1.71866e-17 0)
(3 1.20469e-15 0)
(3 2.44617e-15 0)
(3 2.89726e-15 0)
(3 3.39633e-15 0)
(3 3.30574e-15 0)
(3 2.55291e-15 0)
(3 2.42592e-15 0)
(3 3.07918e-15 0)
(3 3.33361e-15 0)
(3 2.82177e-15 0)
(3 2.24322e-15 0)
(3 -9.85493e-16 0)
(1.64552 0.0737684 0)
(0.640311 0.0868259 0)
(0.534865 0.0817646 0)
(0.496249 0.0795521 0)
(0.458579 0.0845167 0)
(0.435482 0.105802 0)
(0.419846 0.132276 0)
(3 7.35521e-17 0)
(3 1.15285e-16 0)
(3 3.61174e-16 0)
(3 6.33004e-16 0)
(3 4.57745e-16 0)
(3 4.12335e-16 0)
(3 5.29494e-16 0)
(3 5.5028e-16 0)
(3 1.22244e-16 0)
(3 -2.56603e-17 0)
(3 1.02246e-16 0)
(3 1.40124e-16 0)
(3 1.13898e-16 0)
(3 -3.68471e-16 0)
(3 -6.30894e-17 0)
(3 1.5244e-16 0)
(3 1.04123e-16 0)
(3 -1.60008e-16 0)
(3 -2.59463e-16 0)
(3 -9.78349e-16 0)
(3 -1.43906e-15 0)
(3 -1.74143e-15 0)
(3 -9.41927e-16 0)
(3 -7.66067e-16 0)
(3 -2.8301e-16 0)
(3 -2.15842e-16 0)
(3 -2.28391e-16 0)
(3 -1.74708e-16 0)
(3 5.0151e-16 0)
(3 1.2318e-15 0)
(3 1.41303e-15 0)
(3 6.9855e-16 0)
(3 -4.92001e-17 0)
(3 -6.38254e-16 0)
(3 -7.12261e-16 0)
(3 -5.63425e-16 0)
(3 1.50461e-16 0)
(3 4.6681e-16 0)
(3 4.48016e-16 0)
(3 -2.84595e-16 0)
(3 -1.0609e-15 0)
(3 -1.0333e-15 0)
(3 -5.27356e-16 0)
(3 -1.94857e-17 0)
(3 5.49257e-16 0)
(3 9.30112e-16 0)
(3 1.39431e-15 0)
(3 1.27029e-15 0)
(3 1.08055e-15 0)
(3 -2.45886e-16 0)
(3 -6.58706e-16 0)
(3 -6.6182e-16 0)
(3 -8.68927e-16 0)
(3 -7.06116e-16 0)
(3 -4.03888e-16 0)
(3 -2.37084e-16 0)
(3 -3.70856e-16 0)
(3 6.4406e-16 0)
(3 9.66928e-16 0)
(3 3.84363e-16 0)
(3 -1.90318e-16 0)
(3 -5.80606e-16 0)
(3 -8.41417e-16 0)
(3 -1.10577e-15 0)
(3 -1.68941e-15 0)
(3 -1.99825e-15 0)
(3 -1.24577e-15 0)
(3 1.04482e-15 0)
(3 1.90256e-15 0)
(3 1.29994e-15 0)
(3 3.90989e-16 0)
(3 1.40926e-15 0)
(3 1.71272e-15 0)
(3 1.94744e-15 0)
(3 -2.93414e-17 0)
(3 -6.70649e-16 0)
(3 -6.02244e-16 0)
(3 -2.57417e-16 0)
(3 9.04049e-16 0)
(3 1.48863e-15 0)
(3 1.68112e-15 0)
(3 1.68193e-15 0)
(3 1.6676e-15 0)
(3 1.61408e-15 0)
(3 2.41706e-15 0)
(3 2.65409e-15 0)
(3 2.40719e-15 0)
(3 2.05223e-15 0)
(3 -1.64041e-15 0)
(1.74337 0.09784 0)
(0.652514 0.118816 0)
(0.54071 0.10788 0)
(0.508854 0.0989064 0)
(0.480227 0.103554 0)
(0.466313 0.121072 0)
(0.459028 0.145384 0)
(3 -1.25934e-16 0)
(3 1.03616e-16 0)
(3 3.54457e-16 0)
(3 4.60369e-16 0)
(3 5.19082e-16 0)
(3 5.14858e-16 0)
(3 2.84685e-16 0)
(3 1.08066e-16 0)
(3 4.92019e-16 0)
(3 9.08227e-16 0)
(3 8.95895e-16 0)
(3 5.30277e-16 0)
(3 2.74464e-16 0)
(3 1.1033e-16 0)
(3 -1.1174e-16 0)
(3 6.58566e-17 0)
(3 4.84992e-16 0)
(3 5.98415e-16 0)
(3 4.37614e-16 0)
(3 6.06548e-17 0)
(3 -5.84439e-16 0)
(3 -3.10542e-16 0)
(3 -3.49777e-16 0)
(3 -1.01134e-16 0)
(3 -1.20539e-16 0)
(3 2.03793e-16 0)
(3 1.73074e-16 0)
(3 -2.80133e-17 0)
(3 3.82556e-17 0)
(3 2.77511e-16 0)
(3 1.46451e-16 0)
(3 2.72479e-16 0)
(3 -2.24515e-17 0)
(3 -1.45843e-16 0)
(3 -2.29032e-17 0)
(3 -1.01857e-16 0)
(3 -5.40263e-16 0)
(3 -4.22546e-16 0)
(3 -2.26071e-16 0)
(3 -3.197e-16 0)
(3 -1.0142e-15 0)
(3 -9.34249e-16 0)
(3 -5.64171e-16 0)
(3 4.62693e-16 0)
(3 1.50187e-15 0)
(3 1.56898e-15 0)
(3 1.40281e-15 0)
(3 1.53367e-15 0)
(3 1.83091e-15 0)
(3 1.73772e-15 0)
(3 1.54486e-15 0)
(3 1.48425e-15 0)
(3 2.5509e-16 0)
(3 -7.37129e-16 0)
(3 -4.18671e-16 0)
(3 2.6403e-16 0)
(3 1.05441e-15 0)
(3 9.84289e-16 0)
(3 8.68411e-16 0)
(3 6.29794e-16 0)
(3 -7.26138e-17 0)
(3 -3.1235e-16 0)
(3 -8.81502e-16 0)
(3 -1.21799e-15 0)
(3 -1.87659e-15 0)
(3 -2.45064e-15 0)
(3 -2.22533e-15 0)
(3 -8.37509e-16 0)
(3 3.00597e-17 0)
(3 1.7922e-16 0)
(3 6.0938e-16 0)
(3 1.2854e-15 0)
(3 1.89569e-15 0)
(3 1.60286e-15 0)
(3 7.89569e-16 0)
(3 3.08254e-16 0)
(3 -3.54159e-16 0)
(3 -7.75569e-16 0)
(3 -2.03508e-16 0)
(3 1.019e-15 0)
(3 1.20494e-15 0)
(3 1.79725e-15 0)
(3 1.96731e-15 0)
(3 1.99009e-15 0)
(3 1.83246e-15 0)
(3 1.36832e-15 0)
(3 1.29613e-15 0)
(3 1.73943e-15 0)
(3 -2.33832e-15 0)
(1.87449 0.116675 0)
(0.665629 0.145355 0)
(0.542453 0.125894 0)
(0.518374 0.113972 0)
(0.498335 0.120647 0)
(0.49196 0.136503 0)
(0.488856 0.157173 0)
(3 1.17132e-17 0)
(3 -1.30196e-17 0)
(3 1.24596e-17 0)
(3 -9.35829e-17 0)
(3 -7.65089e-17 0)
(3 7.22875e-18 0)
(3 -1.20717e-16 0)
(3 -2.18246e-16 0)
(3 -3.50174e-16 0)
(3 -3.58936e-16 0)
(3 -5.54489e-16 0)
(3 -1.69495e-16 0)
(3 4.68739e-16 0)
(3 1.31081e-15 0)
(3 6.90821e-16 0)
(3 3.05501e-16 0)
(3 2.63924e-16 0)
(3 3.05163e-16 0)
(3 4.98173e-16 0)
(3 4.67259e-16 0)
(3 6.20495e-16 0)
(3 1.38308e-15 0)
(3 1.42539e-15 0)
(3 1.43567e-15 0)
(3 6.3061e-16 0)
(3 -3.42533e-16 0)
(3 -9.88874e-16 0)
(3 -8.75126e-16 0)
(3 -9.88339e-16 0)
(3 -1.23946e-15 0)
(3 -7.8608e-16 0)
(3 -6.2204e-16 0)
(3 5.36451e-16 0)
(3 5.12685e-16 0)
(3 2.76168e-16 0)
(3 -1.29233e-16 0)
(3 -3.81507e-16 0)
(3 -2.87375e-16 0)
(3 -5.65371e-16 0)
(3 -1.55995e-15 0)
(3 -2.01822e-15 0)
(3 -1.69258e-15 0)
(3 -1.06685e-15 0)
(3 -3.55018e-16 0)
(3 1.50934e-16 0)
(3 -1.4825e-16 0)
(3 -2.37144e-16 0)
(3 2.17496e-16 0)
(3 1.41728e-15 0)
(3 2.26474e-15 0)
(3 1.94411e-15 0)
(3 1.40203e-15 0)
(3 1.40337e-15 0)
(3 1.51905e-15 0)
(3 1.18886e-15 0)
(3 5.27935e-16 0)
(3 8.25319e-17 0)
(3 6.43277e-16 0)
(3 4.9783e-16 0)
(3 2.40148e-16 0)
(3 -3.8818e-16 0)
(3 -2.35568e-16 0)
(3 -4.48318e-17 0)
(3 -3.93396e-16 0)
(3 -6.00261e-16 0)
(3 -5.61848e-16 0)
(3 -1.40619e-15 0)
(3 -2.00563e-15 0)
(3 -1.91554e-15 0)
(3 -1.32897e-15 0)
(3 7.36468e-16 0)
(3 1.99138e-15 0)
(3 1.58903e-15 0)
(3 1.02953e-16 0)
(3 -1.10064e-15 0)
(3 -6.40499e-16 0)
(3 1.63507e-16 0)
(3 2.56315e-16 0)
(3 1.8726e-16 0)
(3 9.89293e-16 0)
(3 1.6057e-15 0)
(3 2.3158e-15 0)
(3 2.15211e-15 0)
(3 1.92093e-15 0)
(3 1.43058e-15 0)
(3 1.09157e-15 0)
(3 9.63542e-16 0)
(3 9.5948e-16 0)
(3 2.09929e-16 0)
(2.04218 0.126513 0)
(0.682302 0.165489 0)
(0.541265 0.136592 0)
(0.527114 0.126409 0)
(0.514344 0.13424 0)
(0.512418 0.150067 0)
(0.512773 0.168722 0)
(3 1.19744e-16 0)
(3 2.97249e-16 0)
(3 4.50964e-16 0)
(3 5.03926e-16 0)
(3 1.13271e-16 0)
(3 -3.4953e-16 0)
(3 -4.67949e-16 0)
(3 -4.85252e-16 0)
(3 -7.6643e-16 0)
(3 -5.33377e-16 0)
(3 -1.07687e-16 0)
(3 3.43023e-16 0)
(3 -1.51154e-16 0)
(3 -1.45774e-16 0)
(3 8.88689e-16 0)
(3 1.38309e-15 0)
(3 1.10132e-15 0)
(3 7.93172e-16 0)
(3 1.19256e-15 0)
(3 9.37651e-16 0)
(3 6.06126e-16 0)
(3 4.48231e-16 0)
(3 7.925e-16 0)
(3 7.66681e-16 0)
(3 3.82913e-16 0)
(3 1.54231e-16 0)
(3 -4.63268e-16 0)
(3 -1.35645e-15 0)
(3 -1.85551e-15 0)
(3 -1.07959e-15 0)
(3 -3.41115e-16 0)
(3 -2.03678e-16 0)
(3 -3.04607e-16 0)
(3 -6.12304e-16 0)
(3 -1.6437e-15 0)
(3 -1.50609e-15 0)
(3 -1.41645e-15 0)
(3 -1.73853e-15 0)
(3 -1.36829e-15 0)
(3 -1.01229e-15 0)
(3 -1.43116e-15 0)
(3 -1.53781e-15 0)
(3 -1.04987e-15 0)
(3 -7.75406e-16 0)
(3 -6.91994e-16 0)
(3 2.7839e-16 0)
(3 1.00197e-15 0)
(3 1.85625e-15 0)
(3 2.18108e-15 0)
(3 2.62208e-15 0)
(3 2.52484e-15 0)
(3 1.37656e-15 0)
(3 1.72913e-15 0)
(3 2.37054e-15 0)
(3 1.85722e-15 0)
(3 1.32054e-15 0)
(3 1.12059e-15 0)
(3 1.58693e-15 0)
(3 1.10394e-15 0)
(3 9.23113e-16 0)
(3 7.98897e-16 0)
(3 1.27941e-17 0)
(3 5.67815e-16 0)
(3 3.78217e-16 0)
(3 3.85514e-16 0)
(3 8.06953e-16 0)
(3 5.71944e-16 0)
(3 -3.02975e-16 0)
(3 -5.11079e-16 0)
(3 3.94603e-16 0)
(3 5.62739e-16 0)
(3 9.53352e-16 0)
(3 1.00035e-15 0)
(3 6.4544e-16 0)
(3 -1.24936e-16 0)
(3 3.70529e-17 0)
(3 5.70609e-16 0)
(3 5.09514e-16 0)
(3 4.73877e-16 0)
(3 6.7217e-16 0)
(3 1.47717e-15 0)
(3 1.88394e-15 0)
(3 1.67164e-15 0)
(3 6.52238e-16 0)
(3 -3.03613e-16 0)
(3 -6.51942e-16 0)
(3 -7.8544e-16 0)
(3 -2.73083e-16 0)
(3 -2.06727e-15 0)
(2.24452 0.125602 0)
(0.706781 0.178692 0)
(0.541121 0.142091 0)
(0.536583 0.136884 0)
(0.527726 0.146938 0)
(0.528611 0.163898 0)
(0.533646 0.178831 0)
(3 -1.19179e-16 0)
(3 -1.19167e-16 0)
(3 2.6476e-17 0)
(3 1.09602e-16 0)
(3 -3.4689e-16 0)
(3 -7.89746e-16 0)
(3 -9.1773e-16 0)
(3 -5.82474e-16 0)
(3 -3.64172e-16 0)
(3 1.36762e-16 0)
(3 1.09784e-15 0)
(3 1.67875e-15 0)
(3 6.99166e-16 0)
(3 5.32005e-16 0)
(3 1.02563e-15 0)
(3 4.99323e-16 0)
(3 1.77696e-16 0)
(3 6.94137e-16 0)
(3 7.92812e-16 0)
(3 8.76106e-16 0)
(3 7.64462e-16 0)
(3 7.89948e-16 0)
(3 4.715e-16 0)
(3 9.17193e-17 0)
(3 4.57109e-16 0)
(3 6.64519e-16 0)
(3 1.14252e-15 0)
(3 9.44435e-16 0)
(3 5.95311e-16 0)
(3 -1.79387e-16 0)
(3 -1.29485e-15 0)
(3 -1.38722e-15 0)
(3 -1.798e-15 0)
(3 -1.24894e-15 0)
(3 -1.39565e-15 0)
(3 -1.20099e-15 0)
(3 -1.26851e-15 0)
(3 -1.53332e-15 0)
(3 -1.42807e-15 0)
(3 -8.75459e-16 0)
(3 -9.1213e-16 0)
(3 -6.73422e-16 0)
(3 5.81044e-17 0)
(3 -1.33639e-16 0)
(3 3.9452e-16 0)
(3 1.10799e-15 0)
(3 1.48145e-15 0)
(3 1.63387e-15 0)
(3 1.73663e-15 0)
(3 2.98553e-15 0)
(3 3.41794e-15 0)
(3 2.81421e-15 0)
(3 2.63672e-15 0)
(3 1.89255e-15 0)
(3 1.70467e-15 0)
(3 2.2805e-15 0)
(3 2.78817e-15 0)
(3 2.33886e-15 0)
(3 1.54923e-15 0)
(3 1.46637e-15 0)
(3 2.06696e-15 0)
(3 2.47295e-15 0)
(3 2.48999e-15 0)
(3 2.7602e-15 0)
(3 2.64607e-15 0)
(3 2.06866e-15 0)
(3 1.61064e-15 0)
(3 1.09786e-15 0)
(3 8.79726e-16 0)
(3 1.30071e-15 0)
(3 9.51318e-16 0)
(3 8.39325e-16 0)
(3 1.51201e-15 0)
(3 2.42621e-15 0)
(3 3.06309e-15 0)
(3 3.07379e-15 0)
(3 2.0177e-15 0)
(3 1.35109e-16 0)
(3 -4.93386e-16 0)
(3 -2.84519e-16 0)
(3 -2.80175e-16 0)
(3 6.84039e-16 0)
(3 1.48799e-15 0)
(3 1.13422e-15 0)
(3 -4.93456e-16 0)
(3 -1.76022e-15 0)
(3 -2.17974e-15 0)
(3 -2.14666e-15 0)
(3 -4.39933e-15 0)
(2.46241 0.112122 0)
(0.741945 0.183798 0)
(0.544769 0.145522 0)
(0.546869 0.145347 0)
(0.541159 0.159914 0)
(0.545214 0.177503 0)
(0.551819 0.189024 0)
(3 -6.08655e-17 0)
(3 -4.33129e-16 0)
(3 -5.05358e-16 0)
(3 -2.15399e-18 0)
(3 6.17686e-18 0)
(3 -5.36442e-16 0)
(3 -6.62067e-16 0)
(3 3.77844e-17 0)
(3 4.34654e-16 0)
(3 7.76016e-16 0)
(3 5.21459e-16 0)
(3 1.09446e-16 0)
(3 -8.73677e-17 0)
(3 1.14812e-16 0)
(3 2.97155e-16 0)
(3 -1.94749e-16 0)
(3 -2.32411e-16 0)
(3 2.71424e-16 0)
(3 -1.14652e-16 0)
(3 5.93048e-17 0)
(3 4.46073e-16 0)
(3 2.12777e-16 0)
(3 2.50247e-16 0)
(3 -7.647e-17 0)
(3 -2.16025e-16 0)
(3 -2.74992e-16 0)
(3 2.27766e-16 0)
(3 1.4462e-15 0)
(3 2.21737e-15 0)
(3 9.83992e-16 0)
(3 -7.79921e-16 0)
(3 -1.71667e-15 0)
(3 -1.68177e-15 0)
(3 -1.371e-15 0)
(3 -6.45918e-16 0)
(3 -5.18974e-16 0)
(3 -8.73739e-16 0)
(3 -9.60753e-16 0)
(3 -1.33616e-15 0)
(3 -1.02679e-15 0)
(3 -6.96883e-16 0)
(3 -3.89763e-16 0)
(3 2.9691e-16 0)
(3 3.89426e-16 0)
(3 -5.19455e-16 0)
(3 -7.31264e-16 0)
(3 -4.51614e-16 0)
(3 3.52374e-18 0)
(3 1.30099e-16 0)
(3 1.30795e-15 0)
(3 1.76017e-15 0)
(3 3.46462e-15 0)
(3 3.42145e-15 0)
(3 2.83464e-15 0)
(3 2.89675e-15 0)
(3 3.04991e-15 0)
(3 3.313e-15 0)
(3 2.55176e-15 0)
(3 1.23222e-15 0)
(3 9.13612e-16 0)
(3 1.88179e-15 0)
(3 2.49818e-15 0)
(3 2.53834e-15 0)
(3 2.90554e-15 0)
(3 3.37538e-15 0)
(3 2.76323e-15 0)
(3 2.91142e-15 0)
(3 3.48503e-15 0)
(3 2.76937e-15 0)
(3 2.06896e-15 0)
(3 2.20456e-15 0)
(3 2.85681e-15 0)
(3 2.71908e-15 0)
(3 1.8448e-15 0)
(3 2.09168e-15 0)
(3 2.77599e-15 0)
(3 1.18003e-15 0)
(3 1.45248e-16 0)
(3 3.13577e-17 0)
(3 -1.10126e-15 0)
(3 -1.37082e-15 0)
(3 -1.44512e-15 0)
(3 -1.50138e-15 0)
(3 -1.64964e-15 0)
(3 -2.02274e-15 0)
(3 -2.18928e-15 0)
(3 -2.45122e-15 0)
(3 -2.56304e-15 0)
(3 -3.39846e-15 0)
(2.66847 0.0872964 0)
(0.794757 0.18229 0)
(0.553362 0.148795 0)
(0.558882 0.154127 0)
(0.557503 0.17512 0)
(0.561821 0.190332 0)
(0.565514 0.197157 0)
(3 -4.40957e-17 0)
(3 4.53012e-16 0)
(3 3.52976e-16 0)
(3 2.28461e-16 0)
(3 3.02136e-16 0)
(3 1.74876e-16 0)
(3 1.52111e-16 0)
(3 4.84354e-16 0)
(3 3.694e-16 0)
(3 6.50621e-16 0)
(3 4.18366e-16 0)
(3 -8.43833e-16 0)
(3 -9.09505e-16 0)
(3 -8.79007e-16 0)
(3 -1.73785e-16 0)
(3 4.28417e-16 0)
(3 1.41706e-15 0)
(3 9.57928e-16 0)
(3 8.30401e-16 0)
(3 3.56007e-16 0)
(3 1.3759e-16 0)
(3 -3.39329e-16 0)
(3 1.96424e-16 0)
(3 6.34234e-16 0)
(3 1.41648e-16 0)
(3 1.15287e-16 0)
(3 4.18409e-16 0)
(3 5.48435e-16 0)
(3 3.28369e-16 0)
(3 -2.05929e-16 0)
(3 -1.17171e-15 0)
(3 -7.18283e-16 0)
(3 -1.3127e-15 0)
(3 -2.72837e-15 0)
(3 -2.65061e-15 0)
(3 -2.78512e-15 0)
(3 -2.78193e-15 0)
(3 -2.46814e-15 0)
(3 -2.11314e-15 0)
(3 -1.80873e-15 0)
(3 -1.33137e-15 0)
(3 -1.52817e-15 0)
(3 -1.55604e-15 0)
(3 -1.02159e-15 0)
(3 -7.27927e-16 0)
(3 -8.44778e-16 0)
(3 -4.46472e-16 0)
(3 3.26208e-16 0)
(3 7.91148e-16 0)
(3 8.84069e-16 0)
(3 1.27764e-15 0)
(3 2.02667e-15 0)
(3 2.19719e-15 0)
(3 2.17293e-15 0)
(3 2.0712e-15 0)
(3 2.61899e-15 0)
(3 2.84744e-15 0)
(3 2.34629e-15 0)
(3 1.93401e-15 0)
(3 1.39812e-15 0)
(3 1.03855e-15 0)
(3 1.19722e-15 0)
(3 1.61725e-15 0)
(3 1.55484e-15 0)
(3 2.57995e-15 0)
(3 3.82248e-15 0)
(3 3.49578e-15 0)
(3 3.22534e-15 0)
(3 2.58688e-15 0)
(3 2.72683e-15 0)
(3 3.0068e-15 0)
(3 3.33454e-15 0)
(3 3.1448e-15 0)
(3 2.17439e-15 0)
(3 2.26323e-15 0)
(3 2.40972e-15 0)
(3 2.12097e-15 0)
(3 2.49313e-15 0)
(3 2.98223e-15 0)
(3 -3.58193e-16 0)
(3 -2.32716e-15 0)
(3 -3.89245e-15 0)
(3 -5.07929e-15 0)
(3 -4.63287e-15 0)
(3 -3.02249e-15 0)
(3 -2.54836e-15 0)
(3 -2.81002e-15 0)
(3 -3.14275e-15 0)
(3 -3.60862e-15 0)
(2.83276 0.0566163 0)
(0.869923 0.178351 0)
(0.569173 0.154528 0)
(0.573792 0.168329 0)
(0.573892 0.191018 0)
(0.574583 0.198029 0)
(0.573777 0.201567 0)
(3 4.21972e-17 0)
(3 1.00423e-16 0)
(3 3.22178e-17 0)
(3 -5.68852e-16 0)
(3 -3.1591e-16 0)
(3 8.24088e-16 0)
(3 1.02698e-15 0)
(3 5.82863e-16 0)
(3 7.41006e-17 0)
(3 -7.02664e-16 0)
(3 -1.17382e-15 0)
(3 -7.53864e-16 0)
(3 -7.98966e-16 0)
(3 -4.9403e-16 0)
(3 1.78845e-16 0)
(3 6.582e-16 0)
(3 7.90044e-16 0)
(3 7.99264e-16 0)
(3 7.38149e-16 0)
(3 7.49287e-16 0)
(3 5.26611e-16 0)
(3 6.83162e-16 0)
(3 4.67481e-16 0)
(3 6.49495e-16 0)
(3 5.63759e-16 0)
(3 8.15154e-16 0)
(3 1.18714e-15 0)
(3 6.31385e-16 0)
(3 -8.95625e-16 0)
(3 -2.31053e-15 0)
(3 -2.47667e-15 0)
(3 -2.3885e-15 0)
(3 -2.27464e-15 0)
(3 -3.00804e-15 0)
(3 -3.93551e-15 0)
(3 -3.86089e-15 0)
(3 -3.69836e-15 0)
(3 -3.37424e-15 0)
(3 -2.89813e-15 0)
(3 -2.91597e-15 0)
(3 -2.27603e-15 0)
(3 -1.87969e-15 0)
(3 -1.84398e-15 0)
(3 -1.71421e-15 0)
(3 -5.71735e-16 0)
(3 -3.04785e-16 0)
(3 4.63563e-17 0)
(3 5.61044e-16 0)
(3 7.00314e-16 0)
(3 2.25443e-16 0)
(3 3.87068e-16 0)
(3 7.53399e-16 0)
(3 1.05836e-15 0)
(3 5.76644e-16 0)
(3 9.76395e-16 0)
(3 1.91283e-15 0)
(3 2.03938e-15 0)
(3 1.16922e-15 0)
(3 8.36329e-16 0)
(3 1.27383e-15 0)
(3 1.35593e-15 0)
(3 8.58096e-16 0)
(3 9.57428e-16 0)
(3 8.18433e-16 0)
(3 1.90205e-15 0)
(3 2.88805e-15 0)
(3 2.58622e-15 0)
(3 1.93732e-15 0)
(3 2.26266e-15 0)
(3 2.85012e-15 0)
(3 3.51902e-15 0)
(3 3.44701e-15 0)
(3 3.34077e-15 0)
(3 2.9087e-15 0)
(3 2.31505e-15 0)
(3 1.27911e-15 0)
(3 1.56998e-15 0)
(3 1.78597e-15 0)
(3 2.79946e-15 0)
(3 7.18972e-16 0)
(3 -3.40944e-15 0)
(3 -4.61676e-15 0)
(3 -3.66876e-15 0)
(3 -3.30787e-15 0)
(3 -2.85944e-15 0)
(3 -2.38628e-15 0)
(3 -2.70877e-15 0)
(3 -3.24605e-15 0)
(3 -4.57615e-15 0)
(2.94761 0.0158719 0)
(0.970379 0.18268 0)
(0.590116 0.162991 0)
(0.587523 0.188474 0)
(0.584227 0.201695 0)
(0.582266 0.201625 0)
(0.579439 0.202515 0)
(3 5.93964e-17 0)
(3 -3.14477e-16 0)
(3 -7.4009e-16 0)
(3 -5.50742e-16 0)
(3 -3.97626e-16 0)
(3 2.79011e-16 0)
(3 5.55571e-16 0)
(3 3.26062e-16 0)
(3 -8.16731e-17 0)
(3 -6.63975e-16 0)
(3 -1.18455e-15 0)
(3 -5.00917e-16 0)
(3 -5.24659e-16 0)
(3 -2.13047e-16 0)
(3 -3.41461e-17 0)
(3 2.30611e-16 0)
(3 -1.84929e-17 0)
(3 -2.26943e-16 0)
(3 -2.24817e-16 0)
(3 1.25276e-16 0)
(3 1.03052e-15 0)
(3 1.2937e-15 0)
(3 1.36094e-15 0)
(3 1.31286e-15 0)
(3 1.37022e-15 0)
(3 8.36858e-16 0)
(3 3.80923e-16 0)
(3 -3.20966e-16 0)
(3 -8.00022e-16 0)
(3 -1.3804e-15 0)
(3 -1.85843e-15 0)
(3 -2.22616e-15 0)
(3 -1.96771e-15 0)
(3 -2.25009e-15 0)
(3 -2.17084e-15 0)
(3 -2.69705e-15 0)
(3 -3.03777e-15 0)
(3 -3.34496e-15 0)
(3 -3.09121e-15 0)
(3 -2.58498e-15 0)
(3 -1.75695e-15 0)
(3 -4.96524e-16 0)
(3 -3.36659e-16 0)
(3 -7.00602e-16 0)
(3 -4.57542e-16 0)
(3 1.83926e-16 0)
(3 1.40052e-16 0)
(3 5.84973e-16 0)
(3 8.26011e-17 0)
(3 -4.50305e-16 0)
(3 -3.7649e-16 0)
(3 -6.33341e-16 0)
(3 6.39158e-17 0)
(3 7.60857e-16 0)
(3 7.62164e-16 0)
(3 7.25492e-16 0)
(3 7.2915e-16 0)
(3 1.88562e-16 0)
(3 1.76099e-16 0)
(3 4.37639e-16 0)
(3 5.95807e-16 0)
(3 4.80958e-16 0)
(3 7.17262e-17 0)
(3 6.23102e-17 0)
(3 1.67169e-16 0)
(3 7.23972e-16 0)
(3 1.78972e-15 0)
(3 3.28791e-15 0)
(3 3.25649e-15 0)
(3 3.01002e-15 0)
(3 3.88576e-15 0)
(3 4.38777e-15 0)
(3 4.51159e-15 0)
(3 4.29984e-15 0)
(3 3.74627e-15 0)
(3 2.31313e-15 0)
(3 1.05543e-15 0)
(3 1.43849e-15 0)
(3 1.5336e-15 0)
(3 8.02563e-16 0)
(3 -2.9221e-16 0)
(3 -1.11856e-15 0)
(3 -1.93322e-15 0)
(3 -2.03363e-15 0)
(3 -2.23337e-15 0)
(3 -2.21866e-15 0)
(3 -2.73079e-15 0)
(3 -3.73486e-15 0)
(3 -4.39023e-15 0)
(2.99972 0.000474126 0)
(1.09022 0.193394 0)
(0.607973 0.176363 0)
(0.593812 0.204507 0)
(0.588709 0.206384 0)
(0.586164 0.20223 0)
(0.582883 0.201579 0)
(3 3.00698e-17 0)
(3 -1.94127e-17 0)
(3 -2.76922e-16 0)
(3 -1.28048e-16 0)
(3 -2.13045e-16 0)
(3 -1.24996e-17 0)
(3 1.35535e-16 0)
(3 -1.77316e-16 0)
(3 -7.82966e-16 0)
(3 -6.6667e-16 0)
(3 -6.78853e-16 0)
(3 -1.09454e-16 0)
(3 3.39322e-16 0)
(3 6.46541e-16 0)
(3 4.79109e-16 0)
(3 3.3341e-16 0)
(3 1.85062e-16 0)
(3 -6.38882e-16 0)
(3 -1.11432e-15 0)
(3 -6.17787e-16 0)
(3 1.75602e-17 0)
(3 7.97078e-16 0)
(3 1.5549e-15 0)
(3 1.46755e-15 0)
(3 2.11116e-15 0)
(3 1.83751e-15 0)
(3 6.57531e-16 0)
(3 3.34713e-16 0)
(3 4.37615e-16 0)
(3 2.65391e-16 0)
(3 -4.42477e-16 0)
(3 -1.46884e-16 0)
(3 -7.05964e-16 0)
(3 -6.32402e-16 0)
(3 -6.36875e-16 0)
(3 -1.61244e-15 0)
(3 -3.13127e-15 0)
(3 -4.15246e-15 0)
(3 -3.97009e-15 0)
(3 -3.38025e-15 0)
(3 -1.92556e-15 0)
(3 -1.1593e-15 0)
(3 -6.91516e-16 0)
(3 -6.05039e-16 0)
(3 -8.24783e-16 0)
(3 -5.06667e-16 0)
(3 -4.15876e-16 0)
(3 -3.86044e-16 0)
(3 -5.6862e-16 0)
(3 -9.10293e-16 0)
(3 -1.76032e-15 0)
(3 -1.52747e-15 0)
(3 -8.95567e-16 0)
(3 -9.59841e-17 0)
(3 4.12898e-16 0)
(3 1.73107e-16 0)
(3 2.51612e-16 0)
(3 1.23719e-17 0)
(3 -1.41086e-16 0)
(3 -8.69718e-17 0)
(3 -3.61924e-17 0)
(3 -4.20045e-17 0)
(3 -3.93381e-16 0)
(3 -2.7617e-16 0)
(3 -1.67784e-16 0)
(3 6.80571e-17 0)
(3 4.71355e-16 0)
(3 1.61955e-15 0)
(3 2.05004e-15 0)
(3 1.81756e-15 0)
(3 1.44246e-15 0)
(3 1.40084e-15 0)
(3 3.95546e-15 0)
(3 5.12514e-15 0)
(3 5.84682e-15 0)
(3 4.69347e-15 0)
(3 3.2032e-15 0)
(3 2.45208e-15 0)
(3 1.9936e-15 0)
(3 1.47175e-15 0)
(3 1.3537e-15 0)
(3 6.37868e-16 0)
(3 -1.71262e-15 0)
(3 -2.75693e-15 0)
(3 -2.66638e-15 0)
(3 -2.94184e-15 0)
(3 -3.12812e-15 0)
(3 -3.21813e-15 0)
(3 -3.71172e-15 0)
(3 8.8957e-08 0)
(1.23356 0.20451 0)
(0.628791 0.193775 0)
(0.59406 0.211281 0)
(0.590292 0.208161 0)
(0.587653 0.201712 0)
(0.584827 0.200896 0)
(3 -1.01563e-16 0)
(3 1.85132e-16 0)
(3 4.64876e-16 0)
(3 1.94232e-16 0)
(3 2.34147e-16 0)
(3 4.80757e-16 0)
(3 6.23733e-16 0)
(3 5.59137e-16 0)
(3 3.4689e-17 0)
(3 -1.18987e-16 0)
(3 -1.40892e-16 0)
(3 -4.39687e-16 0)
(3 5.18581e-17 0)
(3 7.78505e-16 0)
(3 3.60283e-16 0)
(3 -4.65156e-16 0)
(3 -9.04572e-16 0)
(3 -6.18118e-16 0)
(3 -6.42251e-16 0)
(3 3.91627e-16 0)
(3 7.86397e-16 0)
(3 9.56563e-16 0)
(3 6.88312e-16 0)
(3 8.68251e-16 0)
(3 9.8321e-16 0)
(3 1.2967e-15 0)
(3 7.11817e-16 0)
(3 5.31801e-16 0)
(3 6.03235e-16 0)
(3 1.07553e-15 0)
(3 3.80736e-16 0)
(3 1.1556e-15 0)
(3 9.28173e-16 0)
(3 6.65508e-16 0)
(3 -1.40412e-16 0)
(3 -1.41924e-15 0)
(3 -2.2479e-15 0)
(3 -3.31952e-15 0)
(3 -3.61948e-15 0)
(3 -3.42253e-15 0)
(3 -2.58011e-15 0)
(3 -1.11935e-15 0)
(3 -1.17811e-15 0)
(3 -1.21309e-15 0)
(3 -1.43337e-15 0)
(3 -1.65813e-15 0)
(3 -1.65587e-15 0)
(3 -1.49253e-15 0)
(3 -1.54943e-15 0)
(3 -2.19469e-15 0)
(3 -2.24251e-15 0)
(3 -1.76273e-15 0)
(3 -8.12e-16 0)
(3 -1.90454e-16 0)
(3 2.33023e-16 0)
(3 9.52024e-18 0)
(3 -5.53386e-17 0)
(3 -1.43129e-17 0)
(3 -1.53004e-16 0)
(3 2.2736e-16 0)
(3 4.43988e-16 0)
(3 -2.41853e-16 0)
(3 -1.01791e-15 0)
(3 -1.17061e-15 0)
(3 -9.09051e-16 0)
(3 -2.40404e-16 0)
(3 3.51779e-16 0)
(3 1.55814e-15 0)
(3 2.10571e-15 0)
(3 1.92457e-15 0)
(3 6.53377e-16 0)
(3 7.94229e-16 0)
(3 1.15299e-15 0)
(3 1.92838e-15 0)
(3 2.68668e-15 0)
(3 2.86412e-15 0)
(3 3.6018e-15 0)
(3 2.22825e-15 0)
(3 6.6427e-16 0)
(3 1.10567e-15 0)
(3 1.17249e-15 0)
(3 5.189e-16 0)
(3 -8.11703e-16 0)
(3 -1.71219e-15 0)
(3 -2.56693e-15 0)
(3 -2.52445e-15 0)
(3 -2.37131e-15 0)
(3 -2.56724e-15 0)
(3 -2.08987e-15 0)
(3 5.1048e-13 0)
(1.41 0.213398 0)
(0.647376 0.214479 0)
(0.590579 0.213406 0)
(0.591063 0.208115 0)
(0.588238 0.200622 0)
(0.584407 0.200191 0)
(3 4.13577e-17 0)
(3 3.13407e-17 0)
(3 7.40083e-17 0)
(3 -4.10071e-17 0)
(3 1.024e-16 0)
(3 1.7367e-16 0)
(3 3.91683e-16 0)
(3 3.91659e-16 0)
(3 9.29292e-16 0)
(3 1.24321e-15 0)
(3 1.36657e-15 0)
(3 8.73249e-16 0)
(3 4.83859e-16 0)
(3 1.51946e-16 0)
(3 -4.50371e-16 0)
(3 -1.12022e-15 0)
(3 -1.41169e-15 0)
(3 -7.49993e-16 0)
(3 -1.2895e-16 0)
(3 4.24384e-16 0)
(3 -6.81715e-17 0)
(3 -6.09029e-16 0)
(3 -9.23124e-16 0)
(3 -7.46325e-16 0)
(3 -3.45649e-16 0)
(3 -1.23822e-16 0)
(3 -3.24548e-16 0)
(3 -4.49121e-16 0)
(3 -5.70273e-16 0)
(3 3.85645e-17 0)
(3 5.78856e-16 0)
(3 7.70553e-16 0)
(3 1.06136e-15 0)
(3 9.46404e-16 0)
(3 1.34524e-16 0)
(3 -6.19524e-16 0)
(3 -1.06849e-15 0)
(3 -1.23357e-15 0)
(3 -1.59391e-15 0)
(3 -2.34937e-15 0)
(3 -2.13392e-15 0)
(3 1.03173e-17 0)
(3 -1.36981e-16 0)
(3 -3.99675e-16 0)
(3 -7.80732e-16 0)
(3 -2.39936e-15 0)
(3 -2.45106e-15 0)
(3 -2.10478e-15 0)
(3 -1.34344e-15 0)
(3 -7.99285e-16 0)
(3 -1.15055e-15 0)
(3 -1.05149e-15 0)
(3 -9.86947e-16 0)
(3 -5.97381e-16 0)
(3 -1.99489e-16 0)
(3 -1.18689e-16 0)
(3 -3.13172e-17 0)
(3 2.55693e-16 0)
(3 7.71553e-16 0)
(3 5.96859e-16 0)
(3 2.76492e-16 0)
(3 3.94556e-17 0)
(3 -7.77242e-17 0)
(3 -9.97601e-16 0)
(3 -1.52063e-15 0)
(3 -1.18774e-15 0)
(3 -5.88188e-17 0)
(3 8.31311e-16 0)
(3 1.15418e-15 0)
(3 1.08287e-15 0)
(3 9.16321e-16 0)
(3 7.47537e-16 0)
(3 1.16931e-16 0)
(3 8.26049e-17 0)
(3 -5.40802e-17 0)
(3 1.30001e-15 0)
(3 1.63917e-15 0)
(3 1.25035e-15 0)
(3 1.32224e-15 0)
(3 1.7606e-15 0)
(3 1.71884e-15 0)
(3 1.74716e-15 0)
(3 2.64573e-15 0)
(3 1.63397e-15 0)
(3 -1.7307e-16 0)
(3 -3.00654e-16 0)
(3 -1.2337e-16 0)
(3 -2.24714e-16 0)
(3 -8.12873e-16 0)
(3 -7.55718e-15 0)
(1.6246 0.215378 0)
(0.662669 0.229561 0)
(0.587299 0.21462 0)
(0.590828 0.205766 0)
(0.586736 0.197634 0)
(0.580898 0.197081 0)
(3 9.32222e-17 0)
(3 -5.417e-17 0)
(3 -3.40532e-16 0)
(3 -2.02952e-16 0)
(3 -3.39598e-18 0)
(3 -1.25618e-16 0)
(3 -3.89804e-16 0)
(3 -6.0333e-16 0)
(3 -7.06691e-17 0)
(3 7.9902e-16 0)
(3 1.46482e-15 0)
(3 1.71905e-15 0)
(3 1.23257e-15 0)
(3 1.81095e-16 0)
(3 -3.56346e-16 0)
(3 -5.29071e-16 0)
(3 -5.68334e-16 0)
(3 -6.29619e-16 0)
(3 -6.40508e-16 0)
(3 -7.41629e-16 0)
(3 -1.01631e-15 0)
(3 -1.59776e-15 0)
(3 -1.78234e-15 0)
(3 -2.20877e-15 0)
(3 -2.52647e-15 0)
(3 -2.0785e-15 0)
(3 -1.48384e-15 0)
(3 -1.14206e-16 0)
(3 5.93701e-16 0)
(3 9.82595e-16 0)
(3 1.33024e-15 0)
(3 1.13105e-15 0)
(3 7.05759e-16 0)
(3 5.96482e-16 0)
(3 6.66101e-16 0)
(3 7.71794e-16 0)
(3 8.7936e-16 0)
(3 1.33965e-15 0)
(3 1.00789e-15 0)
(3 5.57389e-16 0)
(3 8.51198e-17 0)
(3 8.59356e-17 0)
(3 -4.27829e-16 0)
(3 -5.10067e-16 0)
(3 -7.85852e-16 0)
(3 -1.81749e-15 0)
(3 -2.0422e-15 0)
(3 -2.16464e-15 0)
(3 -1.28804e-15 0)
(3 -9.00834e-16 0)
(3 -1.08316e-15 0)
(3 -8.97227e-16 0)
(3 -8.05542e-16 0)
(3 -5.86282e-16 0)
(3 8.95765e-18 0)
(3 1.45935e-16 0)
(3 -1.72121e-16 0)
(3 6.69774e-17 0)
(3 9.05193e-16 0)
(3 7.52998e-16 0)
(3 3.88363e-16 0)
(3 1.52366e-16 0)
(3 3.24703e-16 0)
(3 9.56093e-17 0)
(3 -2.09682e-16 0)
(3 -2.24639e-16 0)
(3 -3.33274e-16 0)
(3 -4.81303e-16 0)
(3 5.91083e-16 0)
(3 1.61577e-15 0)
(3 7.42133e-16 0)
(3 -3.50991e-16 0)
(3 5.1686e-19 0)
(3 8.396e-16 0)
(3 1.60392e-15 0)
(3 1.48069e-15 0)
(3 8.24876e-16 0)
(3 3.58891e-16 0)
(3 5.5623e-16 0)
(3 5.81748e-16 0)
(3 5.14125e-16 0)
(3 1.0041e-15 0)
(3 1.16122e-15 0)
(3 7.5754e-16 0)
(3 -8.74409e-16 0)
(3 -1.16008e-15 0)
(3 -8.1261e-16 0)
(3 -2.77085e-16 0)
(3 2.9465e-16 0)
(3 -6.14285e-15 0)
(1.87101 0.205998 0)
(0.682755 0.23805 0)
(0.583802 0.213774 0)
(0.588598 0.198606 0)
(0.582599 0.191979 0)
(0.57686 0.193164 0)
(3 -8.53939e-18 0)
(3 -1.26292e-17 0)
(3 1.52719e-16 0)
(3 2.15624e-16 0)
(3 -3.53178e-16 0)
(3 -4.57205e-16 0)
(3 -5.82008e-16 0)
(3 -7.34268e-17 0)
(3 -6.43798e-17 0)
(3 -1.05418e-16 0)
(3 1.62663e-16 0)
(3 -9.69633e-17 0)
(3 -3.58158e-17 0)
(3 3.74682e-17 0)
(3 -4.20995e-16 0)
(3 -3.43827e-16 0)
(3 2.12769e-16 0)
(3 2.29784e-16 0)
(3 8.99178e-16 0)
(3 6.09367e-16 0)
(3 -1.8149e-16 0)
(3 -1.15617e-15 0)
(3 -1.24345e-15 0)
(3 -1.41785e-15 0)
(3 -1.43815e-15 0)
(3 -5.49492e-16 0)
(3 6.1323e-16 0)
(3 1.06615e-15 0)
(3 1.87604e-15 0)
(3 2.11333e-15 0)
(3 1.64814e-15 0)
(3 1.09919e-15 0)
(3 -1.26325e-16 0)
(3 2.64407e-16 0)
(3 1.32694e-15 0)
(3 2.42075e-15 0)
(3 3.29119e-15 0)
(3 3.5594e-15 0)