/*--------------------------------*- C++ -*----------------------------------*\
  =========                 |
  \\      /  F ield         | OpenFOAM: The Open Source CFD Toolbox
   \\    /   O peration     | Website:  https://openfoam.org
    \\  /    A nd           | Version:  7
     \\/     M anipulation  |
\*---------------------------------------------------------------------------*/
FoamFile
{
    version     2.0;
    format      ascii;
    class       volVectorField;
    location    "1.6";
    object      U;
}
// * * * * * * * * * * * * * * * * * * * * * * * * * * * * * * * * * * * * * //

dimensions      [0 1 -1 0 0 0 0];

internalField   nonuniform List<vector> 
73728
(
(3 1.37941e-17 0)
(3 3.08541e-17 0)
(3 -1.54904e-16 0)
(3 -2.62631e-16 0)
(3 1.25371e-16 0)
(3 3.34741e-16 0)
(3 4.11112e-16 0)
(3 7.57372e-17 0)
(3 -1.77471e-16 0)
(3 -3.03159e-16 0)
(3 -3.3061e-16 0)
(3 -3.4377e-16 0)
(3 -3.30793e-16 0)
(3 -2.03002e-16 0)
(3 1.60456e-16 0)
(3 -4.35372e-16 0)
(3 -5.01307e-16 0)
(3 -1.52338e-16 0)
(3 -4.78576e-16 0)
(3 -5.35363e-16 0)
(3 -3.74406e-16 0)
(3 -1.30842e-16 0)
(3 -4.43988e-16 0)
(3 -1.26624e-15 0)
(3 -1.29704e-15 0)
(3 -1.31876e-15 0)
(3 -1.11155e-15 0)
(3 3.79482e-16 0)
(3 7.696e-16 0)
(3 1.52307e-15 0)
(3 1.51564e-15 0)
(3 7.78101e-16 0)
(3 6.01422e-16 0)
(3 3.09827e-16 0)
(3 3.74534e-16 0)
(3 7.03396e-16 0)
(3 5.37241e-16 0)
(3 6.31518e-16 0)
(3 6.90419e-16 0)
(3 4.03227e-16 0)
(3 4.15482e-16 0)
(3 2.23881e-16 0)
(3 -1.8505e-16 0)
(3 -5.5676e-16 0)
(3 -1.44158e-15 0)
(3 -1.53689e-15 0)
(3 -1.61524e-15 0)
(3 -1.32685e-15 0)
(3 -1.10719e-15 0)
(3 -1.37622e-15 0)
(3 -1.09625e-15 0)
(3 -8.4152e-16 0)
(3 -7.94605e-17 0)
(3 8.20374e-16 0)
(3 7.57456e-16 0)
(3 6.0122e-16 0)
(3 7.28e-16 0)
(3 4.60189e-16 0)
(3 -2.35316e-16 0)
(3 -2.29755e-16 0)
(3 1.77882e-16 0)
(3 -6.67061e-17 0)
(3 5.36434e-17 0)
(3 -5.04038e-16 0)
(3 -3.90608e-16 0)
(3 3.89206e-17 0)
(3 3.22554e-16 0)
(3 -9.13089e-17 0)
(3 -2.19815e-16 0)
(3 1.58141e-16 0)
(3 9.8624e-16 0)
(3 1.30987e-15 0)
(3 7.68562e-16 0)
(3 9.73388e-16 0)
(3 1.34792e-15 0)
(3 2.42565e-15 0)
(3 2.58935e-15 0)
(3 7.91375e-16 0)
(3 -3.83361e-16 0)
(3 -1.37697e-15 0)
(3 -1.43411e-15 0)
(3 -1.08254e-15 0)
(3 -1.14768e-15 0)
(3 -1.83784e-16 0)
(3 9.32491e-16 0)
(3 1.26635e-16 0)
(3 -4.7197e-16 0)
(3 -3.68893e-16 0)
(3 -9.96643e-17 0)
(3 2.20155e-16 0)
(3 4.64582e-16 0)
(3 8.11238e-16 0)
(3 1.5384e-15 0)
(3 1.25941e-15 0)
(3 1.91141e-16 0)
(3 -2.38432e-16 0)
(3 9.54286e-18 0)
(3 3.03335e-16 0)
(3 -4.01991e-17 0)
(3 -3.63112e-16 0)
(3 -4.03477e-17 0)
(3 3.22428e-16 0)
(3 5.99494e-16 0)
(3 5.28469e-16 0)
(3 7.17256e-16 0)
(3 6.32021e-16 0)
(3 1.86035e-16 0)
(3 -1.22212e-16 0)
(3 6.38253e-17 0)
(3 -1.3489e-16 0)
(3 6.78481e-17 0)
(3 -4.66325e-16 0)
(3 -6.50589e-16 0)
(3 -2.19224e-16 0)
(3 -8.24159e-16 0)
(3 -1.49025e-15 0)
(3 -1.46517e-15 0)
(3 -1.06996e-15 0)
(3 -1.23569e-15 0)
(3 -1.70487e-15 0)
(3 -2.24076e-15 0)
(3 -2.21889e-15 0)
(3 -1.24012e-15 0)
(3 4.15932e-16 0)
(3 9.88557e-16 0)
(3 1.59022e-15 0)
(3 1.10259e-15 0)
(3 1.02949e-17 0)
(3 -4.63099e-16 0)
(3 -2.04718e-16 0)
(3 1.00414e-15 0)
(3 9.7212e-16 0)
(3 -5.05082e-16 0)
(3 -7.51663e-16 0)
(3 -5.21922e-16 0)
(3 -9.0544e-16 0)
(3 -7.04901e-16 0)
(3 -7.08257e-16 0)
(3 -8.51107e-16 0)
(3 -1.34025e-15 0)
(3 -1.7001e-15 0)
(3 -1.40987e-15 0)
(3 -1.00679e-15 0)
(3 -8.19439e-16 0)
(3 -9.16858e-16 0)
(3 -1.65594e-15 0)
(3 -1.15116e-15 0)
(3 -1.15817e-16 0)
(3 4.23912e-16 0)
(3 1.03855e-15 0)
(3 1.05558e-15 0)
(3 1.52223e-15 0)
(3 2.10126e-15 0)
(3 1.57395e-15 0)
(3 8.24461e-16 0)
(3 -6.98392e-17 0)
(3 3.62984e-16 0)
(3 6.44933e-18 0)
(3 -3.93297e-16 0)
(3 -8.84317e-16 0)
(3 -8.83776e-16 0)
(3 -7.12082e-16 0)
(3 2.16331e-17 0)
(3 2.77094e-16 0)
(3 2.98606e-16 0)
(3 -3.73028e-16 0)
(3 -7.17988e-17 0)
(3 9.04517e-17 0)
(3 4.72682e-17 0)
(3 4.65883e-16 0)
(3 7.0692e-16 0)
(3 2.30171e-15 0)
(3 2.46641e-15 0)
(3 1.90792e-15 0)
(3 1.25223e-15 0)
(3 -1.15491e-15 0)
(3 -1.10576e-15 0)
(3 -6.7819e-16 0)
(3 -3.98267e-16 0)
(3 -2.34988e-16 0)
(3 3.06335e-16 0)
(3 -9.09969e-17 0)
(3 -1.06866e-15 0)
(3 -7.20167e-16 0)
(3 1.33204e-15 0)
(3 1.17215e-15 0)
(3 5.35515e-16 0)
(3 4.0963e-16 0)
(3 1.35294e-15 0)
(3 1.45688e-15 0)
(3 7.58678e-16 0)
(3 -1.69648e-15 0)
(3 -1.41224e-18 0)
(3 2.69361e-16 0)
(3 -2.91904e-16 0)
(3 -6.64435e-16 0)
(3 -8.28342e-16 0)
(3 -6.50189e-16 0)
(3 -4.43087e-16 0)
(3 -4.94766e-17 0)
(3 2.80703e-16 0)
(3 1.80445e-16 0)
(3 5.98904e-18 0)
(3 1.2468e-16 0)
(3 1.81472e-16 0)
(3 -4.01627e-16 0)
(3 -1.28175e-15 0)
(3 -1.75262e-15 0)
(3 -2.18873e-15 0)
(3 -1.32458e-15 0)
(3 2.60955e-16 0)
(3 -1.90295e-16 0)
(3 -5.21377e-16 0)
(3 -2.56401e-15 0)
(3 -3.17596e-15 0)
(3 -2.93801e-15 0)
(3 -1.3986e-15 0)
(3 -5.65092e-16 0)
(3 1.6289e-15 0)
(3 1.78093e-15 0)
(3 1.30279e-15 0)
(3 1.46523e-16 0)
(3 -4.01098e-16 0)
(3 -6.9016e-16 0)
(3 -5.88938e-16 0)
(3 2.85681e-16 0)
(3 1.46644e-15 0)
(3 2.23647e-15 0)
(3 -9.05791e-17 0)
(3 -2.10857e-15 0)
(3 -3.57654e-15 0)
(3 -3.55215e-15 0)
(3 -3.54694e-15 0)
(3 -3.02838e-15 0)
(3 -2.56539e-15 0)
(3 -1.19344e-15 0)
(3 -7.80241e-16 0)
(3 -1.16492e-15 0)
(3 -4.29748e-16 0)
(3 -1.90324e-16 0)
(3 -5.26363e-16 0)
(3 -1.03398e-15 0)
(3 -1.4792e-15 0)
(3 -1.93813e-15 0)
(3 -1.59465e-15 0)
(3 -1.88119e-15 0)
(3 -1.59274e-15 0)
(3 -1.25315e-15 0)
(3 -1.07093e-15 0)
(3 6.11201e-17 0)
(3 1.70525e-15 0)
(3 1.3808e-15 0)
(3 1.06553e-15 0)
(3 1.01514e-15 0)
(3 3.16466e-16 0)
(3 1.72331e-16 0)
(3 2.18694e-16 0)
(3 -1.74625e-16 0)
(3 6.70294e-17 0)
(3 8.81196e-16 0)
(3 1.01014e-15 0)
(3 -2.4369e-16 0)
(3 -1.58578e-15 0)
(3 -1.64227e-15 0)
(3 -1.33453e-15 0)
(3 -4.64194e-16 0)
(3 3.08821e-16 0)
(3 4.7331e-16 0)
(3 2.2146e-16 0)
(3 -6.99323e-17 0)
(3 5.01609e-16 0)
(3 5.87871e-16 0)
(3 1.10418e-15 0)
(3 1.04359e-15 0)
(3 1.00142e-15 0)
(3 1.13532e-15 0)
(3 1.4366e-15 0)
(3 1.16589e-15 0)
(3 7.40174e-16 0)
(3 5.96889e-16 0)
(3 5.61082e-16 0)
(3 2.35379e-16 0)
(3 -2.24369e-16 0)
(3 -2.72031e-17 0)
(3 1.13617e-15 0)
(3 2.2128e-15 0)
(3 3.13164e-15 0)
(3 -3.33862e-16 0)
(3 -5.21925e-17 0)
(3 -1.06515e-17 0)
(3 3.29521e-16 0)
(3 7.92978e-16 0)
(3 6.56522e-17 0)
(3 -6.32264e-17 0)
(3 -7.26947e-16 0)
(3 -1.03421e-15 0)
(3 -1.31235e-15 0)
(3 -1.04665e-15 0)
(3 -2.53098e-16 0)
(3 2.78496e-16 0)
(3 -2.73692e-16 0)
(3 -9.19871e-16 0)
(3 -1.01132e-15 0)
(3 -1.64066e-15 0)
(3 -1.57134e-15 0)
(3 3.81078e-16 0)
(3 7.52169e-16 0)
(3 8.68714e-16 0)
(3 -2.86344e-16 0)
(3 -1.58026e-15 0)
(3 -1.55495e-15 0)
(3 -2.08315e-15 0)
(3 -1.5588e-15 0)
(3 8.75044e-16 0)
(3 1.46229e-15 0)
(3 1.38136e-15 0)
(3 6.33983e-16 0)
(3 2.20246e-16 0)
(3 1.67479e-16 0)
(3 1.54777e-15 0)
(3 2.15735e-15 0)
(3 2.22337e-15 0)
(3 1.97846e-15 0)
(3 1.40342e-15 0)
(3 2.71301e-16 0)
(3 -7.60654e-17 0)
(3 -1.30648e-15 0)
(3 -1.77008e-15 0)
(3 -1.259e-15 0)
(3 -1.54012e-15 0)
(3 -1.42827e-15 0)
(3 -2.10485e-16 0)
(3 4.00842e-17 0)
(3 3.09861e-17 0)
(3 -8.46151e-16 0)
(3 -1.35908e-15 0)
(3 -1.32534e-15 0)
(3 -8.64058e-16 0)
(3 -1.02995e-15 0)
(3 -1.83289e-15 0)
(3 -1.51683e-15 0)
(3 -1.19968e-15 0)
(3 -1.79095e-15 0)
(3 -2.75713e-15 0)
(3 -3.29892e-15 0)
(3 -3.09451e-15 0)
(3 -2.30603e-15 0)
(3 -4.60365e-16 0)
(3 1.48411e-15 0)
(3 1.49676e-15 0)
(3 6.5794e-16 0)
(3 5.65151e-16 0)
(3 8.93373e-16 0)
(3 1.36836e-15 0)
(3 2.51512e-15 0)
(3 2.21339e-15 0)
(3 1.28497e-15 0)
(3 -5.0796e-16 0)
(3 -1.66447e-15 0)
(3 -2.24789e-15 0)
(3 -2.22464e-15 0)
(3 -1.40297e-15 0)
(3 -2.58162e-16 0)
(3 -1.72269e-17 0)
(3 -2.26515e-16 0)
(3 -3.85192e-16 0)
(3 -4.65465e-16 0)
(3 1.32486e-15 0)
(3 1.37383e-15 0)
(3 8.97274e-16 0)
(3 9.63407e-16 0)
(3 1.90082e-15 0)
(3 2.57147e-15 0)
(3 1.28489e-15 0)
(3 -9.12384e-16 0)
(3 -1.85012e-15 0)
(3 -1.87478e-15 0)
(3 -7.69077e-16 0)
(3 1.50946e-16 0)
(3 1.33214e-15 0)
(3 1.04704e-15 0)
(3 1.94479e-16 0)
(3 -2.0083e-17 0)
(3 -1.37751e-15 0)
(3 -1.23652e-16 0)
(3 -3.23349e-16 0)
(3 2.30946e-16 0)
(3 4.98787e-16 0)
(3 7.52362e-16 0)
(3 7.81996e-16 0)
(3 7.78232e-16 0)
(3 3.56417e-16 0)
(3 -3.08541e-16 0)
(3 -5.74414e-16 0)
(3 -2.28604e-16 0)
(3 1.43389e-16 0)
(3 3.91016e-16 0)
(3 -3.47264e-16 0)
(3 -2.18917e-16 0)
(3 7.74473e-16 0)
(3 1.08192e-15 0)
(3 4.82719e-16 0)
(3 -2.50103e-16 0)
(3 -7.44e-16 0)
(3 -1.15181e-15 0)
(3 -5.43186e-16 0)
(3 1.50081e-16 0)
(3 8.22637e-17 0)
(3 1.10753e-16 0)
(3 6.74169e-16 0)
(3 1.26203e-15 0)
(3 1.26835e-15 0)
(3 9.51417e-16 0)
(3 1.44143e-15 0)
(3 2.79354e-15 0)
(3 3.18973e-15 0)
(3 2.89496e-15 0)
(3 2.25813e-15 0)
(3 1.10358e-15 0)
(3 -2.56003e-16 0)
(3 -7.97376e-16 0)
(3 4.73193e-16 0)
(3 1.49633e-15 0)
(3 1.10933e-15 0)
(3 5.01733e-16 0)
(3 -5.61789e-17 0)
(3 2.86229e-16 0)
(3 8.00808e-16 0)
(3 1.6382e-15 0)
(3 1.09122e-15 0)
(3 -4.05703e-16 0)
(3 -8.25089e-16 0)
(3 -8.78679e-16 0)
(3 -9.58582e-16 0)
(3 -1.53704e-15 0)
(3 -2.01331e-15 0)
(3 -2.31997e-15 0)
(3 -1.9409e-15 0)
(3 -2.141e-15 0)
(3 -1.54771e-15 0)
(3 -1.32688e-15 0)
(3 -1.95446e-15 0)
(3 -2.14756e-15 0)
(3 -7.25051e-16 0)
(3 2.84034e-16 0)
(3 -3.90752e-17 0)
(3 -3.45955e-16 0)
(3 -4.51036e-16 0)
(3 -4.0054e-16 0)
(3 2.31869e-16 0)
(3 5.79384e-16 0)
(3 7.16877e-16 0)
(3 1.49944e-16 0)
(3 1.58295e-16 0)
(3 8.9979e-17 0)
(3 1.90197e-16 0)
(3 7.48327e-16 0)
(3 2.10084e-15 0)
(3 2.16972e-15 0)
(3 1.53146e-15 0)
(3 2.08679e-15 0)
(3 2.40831e-15 0)
(3 2.64696e-15 0)
(3 3.28972e-15 0)
(3 2.01498e-15 0)
(3 1.6232e-15 0)
(3 1.86718e-15 0)
(3 2.39672e-15 0)
(3 1.63e-15 0)
(3 6.99753e-16 0)
(3 1.04952e-17 0)
(3 -1.52631e-15 0)
(3 -2.35848e-15 0)
(3 -1.78671e-15 0)
(3 -1.198e-15 0)
(3 -6.71047e-16 0)
(3 -7.75398e-16 0)
(3 -2.50387e-15 0)
(3 -2.89078e-15 0)
(3 -1.1661e-15 0)
(3 2.20307e-18 0)
(3 -1.0867e-16 0)
(3 -3.5356e-16 0)
(3 -8.81812e-16 0)
(3 -4.6204e-16 0)
(3 3.7277e-16 0)
(3 1.33238e-15 0)
(3 1.30959e-15 0)
(3 2.52234e-16 0)
(3 -1.46352e-16 0)
(3 -4.35935e-16 0)
(3 -1.609e-17 0)
(3 4.05077e-16 0)
(3 -9.64811e-17 0)
(3 -9.06873e-16 0)
(3 -9.4596e-16 0)
(3 -7.49734e-16 0)
(3 -9.2286e-16 0)
(3 -1.08387e-15 0)
(3 -1.73156e-15 0)
(3 -1.8845e-15 0)
(3 -1.06573e-15 0)
(3 1.26104e-16 0)
(3 2.26539e-15 0)
(3 2.68358e-15 0)
(3 2.98032e-15 0)
(3 2.73355e-15 0)
(3 2.02e-15 0)
(3 1.46673e-15 0)
(3 3.4494e-16 0)
(3 -1.19403e-15 0)
(3 -1.24376e-15 0)
(3 -7.48973e-16 0)
(3 -1.0344e-15 0)
(3 -1.7184e-15 0)
(3 -1.05018e-15 0)
(3 8.76596e-16 0)
(3 1.54838e-15 0)
(3 1.1654e-15 0)
(3 8.41728e-16 0)
(3 4.64814e-16 0)
(3 1.49871e-15 0)
(3 3.31927e-15 0)
(3 2.95468e-15 0)
(3 1.77999e-15 0)
(3 1.09666e-15 0)
(3 9.35055e-16 0)
(3 1.01851e-15 0)
(3 7.86627e-16 0)
(3 2.86886e-16 0)
(3 -6.73237e-16 0)
(3 -9.58211e-16 0)
(3 -1.77409e-15 0)
(3 -2.11035e-15 0)
(3 -2.07579e-15 0)
(3 -1.68881e-15 0)
(3 -1.23738e-15 0)
(3 -1.54594e-16 0)
(3 3.03902e-16 0)
(3 9.36345e-16 0)
(3 -3.47243e-16 0)
(3 -8.48655e-16 0)
(3 -1.46598e-16 0)
(3 -1.63727e-16 0)
(3 -1.0249e-15 0)
(3 -1.64951e-15 0)
(3 -1.93048e-15 0)
(3 -2.11987e-15 0)
(3 -1.09482e-15 0)
(3 -9.22863e-16 0)
(3 2.50122e-16 0)
(3 1.24826e-15 0)
(3 1.48467e-15 0)
(3 1.69183e-15 0)
(3 1.94937e-15 0)
(3 1.33454e-15 0)
(3 2.65657e-15 0)
(3 3.51982e-15 0)
(3 3.47325e-15 0)
(3 2.71833e-15 0)
(3 1.01342e-15 0)
(3 -3.34644e-16 0)
(3 -9.33302e-16 0)
(3 -9.76933e-16 0)
(3 -5.242e-16 0)
(3 -3.19959e-16 0)
(3 4.63741e-17 0)
(3 -7.56935e-16 0)
(3 -2.07901e-15 0)
(3 -3.1789e-15 0)
(3 -2.50452e-15 0)
(3 -2.20148e-15 0)
(3 -2.22238e-15 0)
(3 -1.71097e-15 0)
(3 -7.3443e-16 0)
(3 1.33094e-15 0)
(3 1.62943e-17 0)
(3 5.94816e-19 0)
(3 -2.19406e-16 0)
(3 -2.84568e-16 0)
(3 -2.18044e-16 0)
(3 -1.88595e-16 0)
(3 -3.90205e-16 0)
(3 -1.78096e-16 0)
(3 -1.42681e-17 0)
(3 2.45619e-16 0)
(3 4.78149e-16 0)
(3 5.8766e-16 0)
(3 5.59501e-16 0)
(3 -7.12123e-16 0)
(3 -1.12097e-15 0)
(3 -1.41734e-15 0)
(3 -8.21459e-16 0)
(3 -3.02914e-17 0)
(3 4.01649e-16 0)
(3 2.7687e-16 0)
(3 -1.20879e-15 0)
(3 -2.22114e-15 0)
(3 2.85407e-16 0)
(3 2.17204e-15 0)
(3 3.39052e-15 0)
(3 3.65703e-15 0)
(3 2.82432e-15 0)
(3 2.09053e-15 0)
(3 1.1499e-15 0)
(3 -6.44956e-16 0)
(3 -1.7785e-15 0)
(3 -1.35293e-15 0)
(3 -1.23377e-15 0)
(3 -1.72186e-15 0)
(3 -2.44943e-15 0)
(3 -1.92041e-15 0)
(3 -8.54256e-16 0)
(3 -1.37313e-17 0)
(3 1.15245e-15 0)
(3 9.99436e-16 0)
(3 1.44671e-15 0)
(3 2.88268e-15 0)
(3 2.76548e-15 0)
(3 2.56106e-15 0)
(3 1.93769e-15 0)
(3 2.26382e-15 0)
(3 2.05042e-15 0)
(3 1.69524e-15 0)
(3 1.28433e-15 0)
(3 3.8591e-16 0)
(3 3.88576e-16 0)
(3 -8.1061e-17 0)
(3 -4.36812e-17 0)
(3 -1.36126e-16 0)
(3 2.20903e-17 0)
(3 9.28393e-18 0)
(3 5.10572e-16 0)
(3 1.57544e-15 0)
(3 1.38119e-15 0)
(3 1.08225e-16 0)
(3 -1.44279e-15 0)
(3 -1.26848e-15 0)
(3 -1.71155e-15 0)
(3 -2.2384e-15 0)
(3 -2.07288e-15 0)
(3 -1.56057e-15 0)
(3 -1.43458e-15 0)
(3 -1.59425e-15 0)
(3 -1.86025e-15 0)
(3 -2.42498e-15 0)
(3 -1.67141e-15 0)
(3 -1.12924e-15 0)
(3 -2.38261e-16 0)
(3 2.70095e-17 0)
(3 6.81647e-16 0)
(3 1.18873e-15 0)
(3 1.18694e-15 0)
(3 2.54927e-15 0)
(3 2.40613e-15 0)
(3 1.80506e-15 0)
(3 4.05835e-16 0)
(3 -2.37774e-16 0)
(3 -1.62439e-15 0)
(3 -2.55846e-15 0)
(3 -1.5689e-15 0)
(3 -1.02909e-15 0)
(3 -1.17772e-15 0)
(3 -2.32673e-15 0)
(3 -2.00724e-15 0)
(3 -1.69511e-15 0)
(3 -1.37072e-15 0)
(3 -1.87778e-15 0)
(3 -1.67821e-15 0)
(3 -4.66711e-16 0)
(3 1.35338e-15 0)
(3 1.48941e-15 0)
(3 -9.82725e-17 0)
(3 8.97652e-17 0)
(3 -2.48128e-16 0)
(3 -3.14804e-16 0)
(3 -7.94255e-16 0)
(3 -5.86628e-16 0)
(3 -6.00119e-16 0)
(3 -4.8278e-16 0)
(3 -1.08543e-16 0)
(3 -1.42608e-17 0)
(3 2.82654e-16 0)
(3 5.77644e-16 0)
(3 3.98836e-16 0)
(3 -2.12266e-16 0)
(3 -5.31968e-16 0)
(3 -7.7783e-16 0)
(3 -4.8532e-16 0)
(3 1.63277e-16 0)
(3 6.34281e-17 0)
(3 -1.09729e-15 0)
(3 -1.24187e-15 0)
(3 -1.63125e-15 0)
(3 -1.36206e-16 0)
(3 8.18492e-16 0)
(3 1.29769e-15 0)
(3 9.95798e-16 0)
(3 1.48579e-15 0)
(3 9.26385e-16 0)
(3 -1.78759e-16 0)
(3 -2.03849e-16 0)
(3 8.90975e-16 0)
(3 1.44997e-15 0)
(3 -1.04981e-15 0)
(3 -1.35236e-15 0)
(3 -9.36169e-16 0)
(3 -7.89468e-16 0)
(3 -7.06479e-16 0)
(3 -4.00673e-16 0)
(3 1.20656e-15 0)
(3 1.99667e-15 0)
(3 1.84528e-15 0)
(3 1.18092e-15 0)
(3 6.94412e-16 0)
(3 5.47226e-16 0)
(3 6.18316e-16 0)
(3 1.01961e-15 0)
(3 1.53186e-15 0)
(3 5.8863e-16 0)
(3 -2.85353e-16 0)
(3 -3.10297e-17 0)
(3 7.04967e-16 0)
(3 1.29338e-15 0)
(3 1.36237e-15 0)
(3 5.7806e-16 0)
(3 7.9754e-16 0)
(3 1.48239e-15 0)
(3 1.73868e-15 0)
(3 7.02462e-16 0)
(3 -8.28051e-16 0)
(3 -1.49297e-15 0)
(3 -1.39244e-15 0)
(3 -1.56474e-15 0)
(3 -2.17183e-15 0)
(3 -3.05322e-15 0)
(3 -2.58184e-15 0)
(3 -1.54914e-15 0)
(3 -1.36955e-15 0)
(3 -1.81825e-15 0)
(3 -2.54652e-15 0)
(3 -1.24417e-15 0)
(3 -6.5754e-16 0)
(3 -1.07719e-15 0)
(3 -8.53641e-16 0)
(3 -4.26665e-16 0)
(3 -5.47671e-17 0)
(3 4.79469e-16 0)
(3 4.41963e-16 0)
(3 1.34987e-15 0)
(3 1.27368e-15 0)
(3 1.42475e-15 0)
(3 1.06197e-15 0)
(3 -2.35166e-17 0)
(3 -1.35634e-15 0)
(3 -1.82559e-15 0)
(3 -1.69974e-15 0)
(3 -1.26888e-15 0)
(3 -1.69598e-15 0)
(3 -1.42028e-15 0)
(3 -6.7323e-16 0)
(3 -7.69606e-17 0)
(3 -4.20007e-16 0)
(3 -8.44479e-16 0)
(3 -5.41087e-16 0)
(3 4.75448e-16 0)
(3 1.6591e-16 0)
(3 -4.60185e-16 0)
(3 -9.38069e-17 0)
(3 7.59125e-18 0)
(3 -5.04485e-16 0)
(3 -1.15907e-15 0)
(3 -1.45296e-15 0)
(3 -1.46116e-15 0)
(3 -7.47021e-16 0)
(3 -3.39389e-16 0)
(3 -1.37066e-16 0)
(3 1.6571e-16 0)
(3 5.79566e-16 0)
(3 6.57608e-16 0)
(3 -2.20303e-16 0)
(3 -5.60628e-16 0)
(3 -7.01975e-16 0)
(3 -8.52839e-16 0)
(3 -6.7496e-16 0)
(3 -2.74763e-16 0)
(3 -8.17458e-17 0)
(3 -4.48604e-16 0)
(3 -3.05332e-16 0)
(3 1.33728e-16 0)
(3 5.28345e-16 0)
(3 1.04115e-15 0)
(3 1.11624e-15 0)
(3 9.57448e-16 0)
(3 1.32728e-15 0)
(3 1.03712e-15 0)
(3 -2.1606e-16 0)
(3 -2.09708e-16 0)
(3 9.92812e-16 0)
(3 6.33653e-16 0)
(3 -1.14882e-15 0)
(3 -7.67829e-16 0)
(3 -2.09358e-16 0)
(3 9.03861e-16 0)
(3 1.18521e-15 0)
(3 5.90792e-16 0)
(3 5.81122e-16 0)
(3 1.16052e-15 0)
(3 5.7545e-16 0)
(3 -3.169e-16 0)
(3 -3.34515e-17 0)
(3 -1.28317e-15 0)
(3 -1.18143e-15 0)
(3 -1.36476e-15 0)
(3 -1.22327e-15 0)
(3 -1.19029e-15 0)
(3 -1.20927e-15 0)
(3 -1.12651e-15 0)
(3 -7.43491e-16 0)
(3 2.32353e-17 0)
(3 1.13081e-15 0)
(3 1.14206e-15 0)
(3 1.40557e-16 0)
(3 -6.63559e-16 0)
(3 -1.72904e-15 0)
(3 -2.87155e-15 0)
(3 -3.24444e-15 0)
(3 -2.38769e-15 0)
(3 -1.11252e-15 0)
(3 1.09139e-16 0)
(3 1.96278e-16 0)
(3 1.53347e-16 0)
(3 -3.6632e-16 0)
(3 -1.80654e-15 0)
(3 -2.92897e-15 0)
(3 -3.93886e-15 0)
(3 -3.82615e-15 0)
(3 -3.2902e-15 0)
(3 -2.89834e-15 0)
(3 -2.64714e-15 0)
(3 -2.00022e-15 0)
(3 -1.9365e-15 0)
(3 -2.23854e-15 0)
(3 -1.71591e-15 0)
(3 -1.40953e-15 0)
(3 -1.37218e-15 0)
(3 -1.54931e-15 0)
(3 -1.19213e-15 0)
(3 -1.80702e-16 0)
(3 -2.1553e-16 0)
(3 3.36906e-16 0)
(3 -1.22469e-16 0)
(3 -9.17382e-16 0)
(3 -1.19782e-15 0)
(3 -4.99259e-16 0)
(3 1.15482e-15 0)
(3 1.41222e-15 0)
(3 1.07956e-15 0)
(3 2.06315e-16 0)
(3 3.57542e-16 0)
(3 4.96572e-16 0)
(3 6.82515e-16 0)
(3 -3.09051e-16 0)
(3 -1.64149e-15 0)
(3 2.38052e-17 0)
(3 -2.25284e-16 0)
(3 1.10132e-16 0)
(3 3.66388e-16 0)
(3 1.07847e-16 0)
(3 -2.64243e-16 0)
(3 -5.97092e-16 0)
(3 -5.5689e-16 0)
(3 2.80222e-16 0)
(3 8.22512e-16 0)
(3 1.5496e-15 0)
(3 1.23916e-15 0)
(3 2.58726e-17 0)
(3 -3.89604e-16 0)
(3 9.45288e-18 0)
(3 7.35975e-16 0)
(3 6.57942e-16 0)
(3 1.58196e-16 0)
(3 2.17823e-16 0)
(3 5.71292e-16 0)
(3 9.08953e-16 0)
(3 1.0621e-15 0)
(3 1.13177e-15 0)
(3 8.51838e-16 0)
(3 1.20807e-16 0)
(3 -1.57311e-16 0)
(3 -1.48036e-16 0)
(3 -1.17329e-16 0)
(3 -9.16263e-17 0)
(3 -7.29472e-17 0)
(3 -4.44989e-16 0)
(3 -6.29088e-16 0)
(3 -5.41445e-17 0)
(3 6.23373e-16 0)
(3 9.66247e-16 0)
(3 1.93369e-15 0)
(3 1.86722e-15 0)
(3 1.82581e-16 0)
(3 -5.57729e-17 0)
(3 -3.2391e-16 0)
(3 -2.94584e-16 0)
(3 2.05921e-16 0)
(3 4.18919e-16 0)
(3 -4.52868e-16 0)
(3 -1.39631e-15 0)
(3 -2.16078e-15 0)
(3 -3.17732e-15 0)
(3 -3.02224e-15 0)
(3 -2.30398e-15 0)
(3 -1.94054e-15 0)
(3 -1.79084e-15 0)
(3 -1.74394e-15 0)
(3 -1.03744e-15 0)
(3 2.0513e-15 0)
(3 2.0686e-15 0)
(3 7.03871e-16 0)
(3 -3.40867e-16 0)
(3 -1.036e-15 0)
(3 -2.10557e-15 0)
(3 -1.5299e-15 0)
(3 -9.32464e-16 0)
(3 -5.88904e-16 0)
(3 -8.41058e-17 0)
(3 3.35206e-16 0)
(3 -6.15403e-17 0)
(3 -1.58172e-15 0)
(3 -3.41968e-15 0)
(3 -3.12996e-15 0)
(3 -2.63066e-15 0)
(3 -3.04081e-15 0)
(3 -3.11817e-15 0)
(3 -2.34111e-15 0)
(3 -1.50652e-15 0)
(3 -1.67301e-15 0)
(3 -1.84101e-15 0)
(3 -1.80662e-15 0)
(3 -2.21274e-15 0)
(3 -3.11605e-15 0)
(3 -3.83145e-15 0)
(3 -3.4183e-15 0)
(3 -2.12951e-15 0)
(3 -1.5823e-15 0)
(3 -1.22207e-15 0)
(3 -1.53696e-15 0)
(3 -1.96283e-15 0)
(3 -2.03551e-15 0)
(3 -8.92553e-16 0)
(3 1.63101e-16 0)
(3 1.09198e-15 0)
(3 1.09706e-15 0)
(3 8.95085e-16 0)
(3 3.65261e-16 0)
(3 -7.18985e-17 0)
(3 -6.92639e-16 0)
(3 -1.52121e-15 0)
(3 -1.70869e-15 0)
(3 -1.33816e-17 0)
(3 4.7175e-17 0)
(3 3.17148e-16 0)
(3 7.39887e-16 0)
(3 1.0831e-15 0)
(3 4.40641e-16 0)
(3 5.51659e-16 0)
(3 8.30585e-16 0)
(3 1.38921e-15 0)
(3 2.2016e-15 0)
(3 2.43743e-15 0)
(3 9.46152e-16 0)
(3 -2.62149e-16 0)
(3 -1.29478e-15 0)
(3 -1.10149e-15 0)
(3 -2.15181e-16 0)
(3 1.03745e-15 0)
(3 6.44356e-16 0)
(3 -4.61387e-16 0)
(3 -5.02125e-17 0)
(3 6.48548e-16 0)
(3 1.03119e-15 0)
(3 9.51641e-16 0)
(3 -1.17796e-16 0)
(3 -5.1234e-16 0)
(3 -5.02424e-16 0)
(3 -5.37921e-16 0)
(3 -1.02103e-15 0)
(3 -1.56352e-15 0)
(3 -1.34762e-15 0)
(3 -1.788e-15 0)
(3 -2.27496e-16 0)
(3 1.19965e-15 0)
(3 1.43113e-15 0)
(3 1.08376e-15 0)
(3 3.89258e-16 0)
(3 3.87226e-16 0)
(3 2.8434e-16 0)
(3 5.322e-17 0)
(3 -1.43353e-16 0)
(3 3.19616e-16 0)
(3 1.09153e-15 0)
(3 6.82966e-16 0)
(3 2.67835e-16 0)
(3 -9.29984e-16 0)
(3 -1.84692e-15 0)
(3 -3.1377e-15 0)
(3 -4.0107e-15 0)
(3 -3.10912e-15 0)
(3 -2.15549e-15 0)
(3 -1.29266e-15 0)
(3 -1.0232e-15 0)
(3 -7.82989e-16 0)
(3 -4.83675e-16 0)
(3 2.39769e-16 0)
(3 1.07965e-15 0)
(3 7.83231e-16 0)
(3 4.08668e-16 0)
(3 4.06397e-16 0)
(3 -6.38265e-16 0)
(3 -1.89711e-15 0)
(3 -2.65196e-15 0)
(3 -2.22231e-15 0)
(3 -2.26002e-15 0)
(3 -1.96326e-15 0)
(3 -1.69178e-15 0)
(3 -1.99398e-15 0)
(3 -8.53371e-17 0)
(3 -3.85856e-16 0)
(3 -8.03245e-16 0)
(3 -1.47119e-15 0)
(3 -1.06513e-15 0)
(3 -7.55544e-16 0)
(3 -4.15184e-16 0)
(3 2.90063e-16 0)
(3 2.73316e-16 0)
(3 3.47235e-16 0)
(3 -8.39826e-16 0)
(3 -1.03341e-15 0)
(3 -9.65881e-16 0)
(3 -9.49756e-16 0)
(3 -1.12958e-15 0)
(3 -2.32572e-15 0)
(3 -1.15231e-15 0)
(3 -5.78006e-16 0)
(3 -2.93497e-16 0)
(3 3.79793e-16 0)
(3 3.25546e-16 0)
(3 5.53811e-16 0)
(3 1.22946e-15 0)
(3 1.33806e-15 0)
(3 8.75907e-17 0)
(3 -7.84558e-16 0)
(3 -6.07788e-16 0)
(3 5.02041e-17 0)
(3 3.39994e-17 0)
(3 4.4977e-17 0)
(3 4.02721e-16 0)
(3 4.46462e-16 0)
(3 8.6659e-16 0)
(3 5.54575e-16 0)
(3 1.79808e-16 0)
(3 -1.27437e-16 0)
(3 6.80023e-16 0)
(3 1.24752e-15 0)
(3 9.80607e-16 0)
(3 -1.04346e-16 0)
(3 2.0593e-16 0)
(3 -5.79157e-16 0)
(3 -7.85675e-16 0)
(3 -6.58948e-16 0)
(3 4.81273e-17 0)
(3 3.06295e-16 0)
(3 -2.72755e-16 0)
(3 -4.37763e-16 0)
(3 6.04342e-16 0)
(3 8.96451e-16 0)
(3 4.5613e-16 0)
(3 -5.76783e-16 0)
(3 -6.43413e-16 0)
(3 -4.97084e-16 0)
(3 -1.41541e-16 0)
(3 -1.07342e-16 0)
(3 -3.65897e-16 0)
(3 -4.63271e-16 0)
(3 -5.29896e-16 0)
(3 -2.57698e-16 0)
(3 -2.09415e-16 0)
(3 -3.97792e-16 0)
(3 -4.75411e-16 0)
(3 -7.18395e-16 0)
(3 -9.02066e-16 0)
(3 3.77485e-16 0)
(3 1.06789e-15 0)
(3 4.27876e-16 0)
(3 1.33718e-16 0)
(3 1.91818e-16 0)
(3 -1.20105e-15 0)
(3 -1.94582e-15 0)
(3 -2.82848e-15 0)
(3 -4.07995e-15 0)
(3 -4.08991e-15 0)
(3 -3.29007e-15 0)
(3 -2.89424e-15 0)
(3 -2.66014e-15 0)
(3 -2.7211e-15 0)
(3 -2.15307e-15 0)
(3 -1.55631e-15 0)
(3 -1.38723e-15 0)
(3 -1.30619e-15 0)
(3 -1.1454e-15 0)
(3 -9.36028e-16 0)
(3 -1.6516e-15 0)
(3 -1.43782e-15 0)
(3 -7.57879e-16 0)
(3 -1.21708e-16 0)
(3 -1.28702e-16 0)
(3 1.12635e-16 0)
(3 -5.9977e-16 0)
(3 -1.48261e-15 0)
(3 -1.73615e-15 0)
(3 -1.15355e-15 0)
(3 5.83601e-16 0)
(3 8.88611e-16 0)
(3 -3.67697e-16 0)
(3 -9.80984e-16 0)
(3 -1.48909e-15 0)
(3 -1.85684e-15 0)
(3 -1.50795e-15 0)
(3 -5.31579e-16 0)
(3 9.16687e-16 0)
(3 1.5931e-15 0)
(3 2.62237e-15 0)
(3 1.77481e-15 0)
(3 1.62767e-15 0)
(3 1.39152e-15 0)
(3 1.40625e-16 0)
(3 8.1226e-19 0)
(3 -1.7754e-16 0)
(3 8.99637e-16 0)
(3 1.98976e-15 0)
(3 2.21628e-15 0)
(3 2.25852e-15 0)
(3 1.85013e-15 0)
(3 1.10793e-15 0)
(3 9.0427e-16 0)
(3 4.31812e-16 0)
(3 1.24399e-15 0)
(3 5.15509e-16 0)
(3 8.46693e-17 0)
(3 3.53609e-16 0)
(3 3.99312e-16 0)
(3 1.94254e-16 0)
(3 2.69225e-16 0)
(3 8.74221e-16 0)
(3 1.00029e-15 0)
(3 6.10152e-16 0)
(3 9.45106e-16 0)
(3 1.47394e-16 0)
(3 -4.04326e-16 0)
(3 -4.77431e-16 0)
(3 -5.77321e-16 0)
(3 -5.59744e-16 0)
(3 -4.38209e-16 0)
(3 9.61701e-16 0)
(3 1.98192e-15 0)
(3 2.64469e-15 0)
(3 2.43537e-15 0)
(3 1.13957e-15 0)
(3 2.22188e-16 0)
(3 4.48415e-16 0)
(3 9.14316e-16 0)
(3 4.01137e-16 0)
(3 -7.7614e-16 0)
(3 -2.33644e-15 0)
(3 -2.31746e-15 0)
(3 -2.54078e-15 0)
(3 -2.72539e-15 0)
(3 -2.55475e-15 0)
(3 -1.5089e-15 0)
(3 8.2682e-17 0)
(3 5.88961e-16 0)
(3 4.92549e-16 0)
(3 -5.93488e-16 0)
(3 -1.24228e-15 0)
(3 -1.01861e-15 0)
(3 -3.22454e-16 0)
(3 1.15653e-15 0)
(3 2.00676e-15 0)
(3 2.12431e-15 0)
(3 1.27909e-15 0)
(3 8.40006e-16 0)
(3 -4.48747e-16 0)
(3 -1.44137e-15 0)
(3 -2.76204e-15 0)
(3 -3.46202e-15 0)
(3 -3.37896e-15 0)
(3 -3.61822e-15 0)
(3 -1.85098e-15 0)
(3 -1.39222e-16 0)
(3 -1.03796e-15 0)
(3 -2.90201e-15 0)
(3 -2.90751e-15 0)
(3 -2.25956e-15 0)
(3 -1.49199e-15 0)
(3 1.17615e-16 0)
(3 -3.62746e-16 0)
(3 -1.34817e-15 0)
(3 -1.4226e-15 0)
(3 -1.26965e-15 0)
(3 -7.6544e-16 0)
(3 -6.61615e-16 0)
(3 -8.48279e-16 0)
(3 -1.05335e-15 0)
(3 -1.67585e-15 0)
(3 -2.23002e-15 0)
(3 -2.21228e-15 0)
(3 -8.641e-17 0)
(3 1.08453e-15 0)
(3 9.21108e-16 0)
(3 -2.34724e-18 0)
(3 -6.12711e-16 0)
(3 -8.10983e-16 0)
(3 -1.44315e-15 0)
(3 -2.1648e-15 0)
(3 -2.42586e-15 0)
(3 -1.84188e-15 0)
(3 -4.05013e-16 0)
(3 1.25077e-15 0)
(3 1.28124e-15 0)
(3 7.42823e-16 0)
(3 1.49007e-17 0)
(3 -6.93076e-16 0)
(3 6.38158e-17 0)
(3 1.5218e-15 0)
(3 1.63467e-15 0)
(3 7.20015e-16 0)
(3 5.88028e-16 0)
(3 4.32388e-16 0)
(3 4.32451e-16 0)
(3 3.08839e-16 0)
(3 2.43347e-16 0)
(3 4.11651e-16 0)
(3 8.45367e-16 0)
(3 -3.58168e-18 0)
(3 -4.7882e-16 0)
(3 -1.09842e-15 0)
(3 -1.70538e-15 0)
(3 -8.0071e-17 0)
(3 -2.58867e-16 0)
(3 1.24742e-16 0)
(3 -1.13915e-16 0)
(3 1.13909e-16 0)
(3 1.1135e-15 0)
(3 1.26353e-15 0)
(3 3.45034e-16 0)
(3 -1.54186e-15 0)
(3 -2.0557e-15 0)
(3 -8.44955e-16 0)
(3 -2.44975e-16 0)
(3 1.20163e-16 0)
(3 4.15847e-16 0)
(3 1.00791e-15 0)
(3 9.04035e-16 0)
(3 5.41565e-16 0)
(3 2.32347e-17 0)
(3 -3.8133e-16 0)
(3 -6.97307e-16 0)
(3 -1.37554e-15 0)
(3 -1.84792e-15 0)
(3 -1.95544e-15 0)
(3 -2.04485e-15 0)
(3 -1.99898e-15 0)
(3 -3.00639e-15 0)
(3 -3.90223e-15 0)
(3 -2.84118e-15 0)
(3 -1.00119e-15 0)
(3 2.30261e-16 0)
(3 7.84215e-16 0)
(3 8.39169e-16 0)
(3 1.1593e-15 0)
(3 1.35364e-15 0)
(3 2.18787e-15 0)
(3 2.4283e-15 0)
(3 1.43053e-15 0)
(3 5.50951e-16 0)
(3 7.37299e-16 0)
(3 1.57946e-15 0)
(3 1.78876e-15 0)
(3 1.66565e-15 0)
(3 -1.174e-15 0)
(3 -2.05647e-15 0)
(3 -1.17204e-15 0)
(3 -5.27043e-16 0)
(3 -4.58832e-16 0)
(3 -7.46084e-16 0)
(3 -1.02257e-15 0)
(3 -1.1157e-15 0)
(3 -1.16559e-15 0)
(3 -1.1956e-15 0)
(3 -1.58668e-15 0)
(3 -4.26105e-16 0)
(3 6.66222e-16 0)
(3 8.63027e-16 0)
(3 1.11363e-15 0)
(3 6.94408e-16 0)
(3 -5.97656e-17 0)
(3 -1.26039e-15 0)
(3 -1.64171e-15 0)
(3 -8.84141e-16 0)
(3 -9.1897e-16 0)
(3 -1.29789e-15 0)
(3 -7.09227e-16 0)
(3 -4.20051e-16 0)
(3 -1.27372e-15 0)
(3 -1.33018e-15 0)
(3 -1.0094e-15 0)
(3 -1.14179e-15 0)
(3 -1.04395e-15 0)
(3 -7.34259e-16 0)
(3 -1.07708e-15 0)
(3 -1.47981e-15 0)
(3 -1.48247e-15 0)
(3 -1.52052e-15 0)
(3 -1.43903e-15 0)
(3 -9.13734e-16 0)
(3 -1.04168e-15 0)
(3 -1.35037e-15 0)
(3 -1.39848e-16 0)
(3 2.30035e-16 0)
(3 1.29577e-16 0)
(3 -5.64773e-19 0)
(3 -5.22448e-16 0)
(3 -6.58669e-17 0)
(3 1.1013e-16 0)
(3 5.07545e-17 0)
(3 -1.60099e-16 0)
(3 -9.33648e-16 0)
(3 -1.43805e-15 0)
(3 -1.42326e-15 0)
(3 -8.55806e-16 0)
(3 6.02644e-16 0)
(3 4.69093e-16 0)
(3 -3.00471e-16 0)
(3 -6.90686e-17 0)
(3 5.99805e-17 0)
(3 -1.50486e-16 0)
(3 -4.57124e-16 0)
(3 -3.82495e-16 0)
(3 -5.26739e-16 0)
(3 -2.55362e-16 0)
(3 -2.79348e-16 0)
(3 -1.01869e-15 0)
(3 -2.42436e-15 0)
(3 -2.48995e-15 0)
(3 -2.05648e-15 0)
(3 -1.03586e-16 0)
(3 3.82926e-16 0)
(3 2.073e-16 0)
(3 -2.58446e-16 0)
(3 -6.89512e-16 0)
(3 -1.07247e-15 0)
(3 -1.15133e-15 0)
(3 -1.04121e-15 0)
(3 -1.08682e-15 0)
(3 -1.17251e-15 0)
(3 -9.3722e-16 0)
(3 -9.61726e-16 0)
(3 -1.00993e-15 0)
(3 -1.22236e-15 0)
(3 -6.55827e-16 0)
(3 2.87708e-16 0)
(3 -2.49231e-16 0)
(3 -9.13582e-16 0)
(3 -4.73521e-16 0)
(3 1.38162e-16 0)
(3 1.56275e-15 0)
(3 2.18008e-15 0)
(3 2.04267e-15 0)
(3 1.12824e-15 0)
(3 3.18399e-16 0)
(3 3.12133e-16 0)
(3 6.20893e-16 0)
(3 1.36627e-15 0)
(3 1.22709e-15 0)
(3 6.876e-16 0)
(3 9.1137e-16 0)
(3 6.00419e-16 0)
(3 7.92245e-17 0)
(3 -2.166e-16 0)
(3 -4.27119e-16 0)
(3 -2.70508e-16 0)
(3 1.80944e-16 0)
(3 9.24591e-16 0)
(3 7.23397e-16 0)
(3 5.01458e-16 0)
(3 2.65021e-16 0)
(3 -2.57885e-16 0)
(3 -4.95071e-16 0)
(3 8.59179e-16 0)
(3 1.32031e-15 0)
(3 1.61175e-15 0)
(3 4.50612e-16 0)
(3 -5.60237e-16 0)
(3 -8.3571e-16 0)
(3 -1.32032e-15 0)
(3 -6.21884e-16 0)
(3 1.89212e-15 0)
(3 1.99691e-15 0)
(3 8.32811e-16 0)
(3 -3.46019e-16 0)
(3 -1.03959e-15 0)
(3 -6.39642e-16 0)
(3 -5.50737e-16 0)
(3 -1.09057e-15 0)
(3 -1.71818e-15 0)
(3 -1.12904e-15 0)
(3 -9.21498e-17 0)
(3 5.32715e-16 0)
(3 -7.33187e-16 0)
(3 -1.79194e-15 0)
(3 -1.36448e-15 0)
(3 -1.63924e-15 0)
(3 -1.922e-15 0)
(3 -1.58826e-15 0)
(3 -1.11475e-15 0)
(3 1.14194e-16 0)
(3 2.11923e-15 0)
(3 2.95382e-15 0)
(3 1.99899e-15 0)
(3 6.11032e-16 0)
(3 -7.96264e-17 0)
(3 -1.75218e-16 0)
(3 -1.11693e-15 0)
(3 -1.61065e-15 0)
(3 -1.45854e-15 0)
(3 -4.04751e-16 0)
(3 9.25729e-16 0)
(3 6.5947e-16 0)
(3 -1.38011e-15 0)
(3 9.25337e-17 0)
(3 4.55548e-16 0)
(3 1.21115e-17 0)
(3 2.37673e-16 0)
(3 1.81372e-16 0)
(3 -4.61963e-16 0)
(3 -7.70734e-16 0)
(3 -4.20063e-16 0)
(3 1.35512e-16 0)
(3 1.50718e-16 0)
(3 -5.97397e-16 0)
(3 -7.93821e-16 0)
(3 1.18167e-16 0)
(3 2.1312e-16 0)
(3 -7.95906e-16 0)
(3 -2.02297e-15 0)
(3 -2.77161e-15 0)
(3 -2.6985e-15 0)
(3 -2.10978e-15 0)
(3 -1.93797e-15 0)
(3 -9.23716e-16 0)
(3 -5.38696e-17 0)
(3 -6.62271e-16 0)
(3 -1.3513e-15 0)
(3 -1.29814e-15 0)
(3 -7.61534e-16 0)
(3 7.92683e-16 0)
(3 1.12856e-15 0)
(3 -1.18827e-15 0)
(3 -2.55956e-15 0)
(3 -2.54172e-15 0)
(3 -1.65664e-15 0)
(3 1.28653e-16 0)
(3 7.22234e-16 0)
(3 6.81099e-16 0)
(3 4.40949e-16 0)
(3 8.99848e-17 0)
(3 1.34957e-15 0)
(3 2.26953e-15 0)
(3 2.30923e-15 0)
(3 1.59885e-15 0)
(3 6.95945e-16 0)
(3 7.82067e-16 0)
(3 2.87519e-16 0)
(3 3.0998e-16 0)
(3 8.05783e-16 0)
(3 9.39668e-16 0)
(3 1.12668e-15 0)
(3 1.4997e-15 0)
(3 1.88376e-15 0)
(3 1.39912e-15 0)
(3 1.93311e-15 0)
(3 2.1487e-15 0)
(3 1.51534e-15 0)
(3 -1.54276e-15 0)
(3 -1.76012e-15 0)
(3 -1.13026e-15 0)
(3 -1.76456e-16 0)
(3 4.03093e-17 0)
(3 5.51708e-16 0)
(3 1.06138e-15 0)
(3 -2.93177e-16 0)
(3 -2.5638e-16 0)
(3 4.12577e-16 0)
(3 8.32863e-16 0)
(3 8.18713e-16 0)
(3 1.14159e-15 0)
(3 1.00805e-15 0)
(3 7.80932e-16 0)
(3 6.4564e-16 0)
(3 3.86455e-16 0)
(3 -9.31399e-16 0)
(3 -1.51553e-15 0)
(3 -1.59767e-15 0)
(3 -1.37227e-15 0)
(3 -9.58279e-16 0)
(3 -1.38225e-15 0)
(3 -2.35843e-15 0)
(3 -2.27717e-15 0)
(3 -1.93326e-15 0)
(3 -1.17953e-15 0)
(3 -2.88781e-16 0)
(3 5.14858e-16 0)
(3 1.0046e-15 0)
(3 1.31275e-15 0)
(3 4.85665e-16 0)
(3 -1.45884e-16 0)
(3 -3.81525e-16 0)
(3 -3.75142e-16 0)
(3 -1.84331e-16 0)
(3 -1.39314e-16 0)
(3 -7.39037e-16 0)
(3 -1.17595e-15 0)
(3 -1.72054e-15 0)
(3 -1.59825e-15 0)
(3 -1.49193e-15 0)
(3 8.06018e-17 0)
(3 -5.40319e-17 0)
(3 3.2054e-16 0)
(3 4.43887e-16 0)
(3 6.06715e-16 0)
(3 5.34659e-16 0)
(3 1.24794e-16 0)
(3 -2.35286e-16 0)
(3 1.71014e-16 0)
(3 1.2459e-15 0)
(3 1.47269e-15 0)
(3 1.44153e-15 0)
(3 1.21045e-15 0)
(3 3.04279e-16 0)
(3 -1.89793e-16 0)
(3 -8.4467e-16 0)
(3 -8.43539e-16 0)
(3 -1.99059e-15 0)
(3 -1.79885e-15 0)
(3 -9.79851e-16 0)
(3 3.13468e-16 0)
(3 1.74432e-15 0)
(3 2.02962e-15 0)
(3 7.49972e-16 0)
(3 -4.79932e-16 0)
(3 -1.64674e-15 0)
(3 -1.67918e-15 0)
(3 -1.82551e-15 0)
(3 -3.26893e-16 0)
(3 -3.45605e-16 0)
(3 -6.61746e-16 0)
(3 -1.01792e-15 0)
(3 -6.37112e-16 0)
(3 -4.18655e-16 0)
(3 -2.55246e-16 0)
(3 9.97793e-17 0)
(3 1.80099e-16 0)
(3 1.91753e-16 0)
(3 -3.26742e-17 0)
(3 -6.96509e-16 0)
(3 -1.4763e-17 0)
(3 -2.11109e-16 0)
(3 1.42488e-16 0)
(3 1.33985e-15 0)
(3 1.55324e-15 0)
(3 1.67929e-15 0)
(3 1.26274e-15 0)
(3 7.54171e-16 0)
(3 4.05765e-16 0)
(3 9.40744e-16 0)
(3 1.88719e-15 0)
(3 2.20488e-15 0)
(3 2.42598e-15 0)