/*--------------------------------*- C++ -*----------------------------------*\
  =========                 |
  \\      /  F ield         | OpenFOAM: The Open Source CFD Toolbox
   \\    /   O peration     | Website:  https://openfoam.org
    \\  /    A nd           | Version:  7
     \\/     M anipulation  |
\*---------------------------------------------------------------------------*/
FoamFile
{
    version     2.0;
    format      ascii;
    class       volVectorField;
    location    "0.3";
    object      U;
}
// * * * * * * * * * * * * * * * * * * * * * * * * * * * * * * * * * * * * * //

dimensions      [0 1 -1 0 0 0 0];

internalField   nonuniform List<vector> 
73728
(
(3 1.54295e-17 0)
(3 5.96287e-17 0)
(3 1.3219e-16 0)
(3 2.85312e-16 0)
(3 4.10997e-16 0)
(3 6.79516e-16 0)
(3 5.73851e-16 0)
(3 4.17396e-16 0)
(3 2.47796e-16 0)
(3 3.27533e-16 0)
(3 3.48265e-16 0)
(3 4.24452e-17 0)
(3 -3.81882e-16 0)
(3 -6.51731e-16 0)
(3 -6.7706e-16 0)
(3 -2.12377e-16 0)
(3 -1.52703e-16 0)
(3 2.82311e-16 0)
(3 3.03414e-17 0)
(3 -2.93386e-16 0)
(3 -4.97492e-16 0)
(3 -4.2234e-16 0)
(3 -1.28303e-16 0)
(3 4.31417e-16 0)
(3 5.19637e-16 0)
(3 6.20228e-16 0)
(3 7.60283e-16 0)
(3 8.46083e-16 0)
(3 1.23363e-15 0)
(3 1.53675e-15 0)
(3 2.00858e-15 0)
(3 1.25217e-15 0)
(3 8.54796e-16 0)
(3 7.0403e-16 0)
(3 1.91981e-16 0)
(3 1.46587e-16 0)
(3 2.81761e-16 0)
(3 9.54663e-16 0)
(3 1.52083e-15 0)
(3 1.51036e-15 0)
(3 7.71527e-16 0)
(3 7.32928e-16 0)
(3 1.02685e-15 0)
(3 1.23532e-15 0)
(3 1.1431e-15 0)
(3 9.08868e-16 0)
(3 1.79388e-16 0)
(3 7.25422e-16 0)
(3 1.02937e-16 0)
(3 -5.5826e-16 0)
(3 -9.59104e-16 0)
(3 -8.01567e-16 0)
(3 -2.43191e-16 0)
(3 -8.70843e-16 0)
(3 -6.64661e-16 0)
(3 2.89096e-16 0)
(3 5.29197e-16 0)
(3 5.06759e-16 0)
(3 6.42514e-16 0)
(3 -5.98164e-16 0)
(3 -1.51168e-15 0)
(3 -1.42652e-15 0)
(3 -1.69046e-15 0)
(3 -2.13955e-15 0)
(3 -2.2192e-15 0)
(3 -8.24156e-16 0)
(3 2.31571e-17 0)
(3 2.09157e-16 0)
(3 7.64341e-16 0)
(3 9.7771e-16 0)
(3 1.3412e-15 0)
(3 1.41333e-15 0)
(3 1.5944e-15 0)
(3 2.12472e-15 0)
(3 4.40795e-15 0)
(3 4.84132e-15 0)
(3 3.30681e-15 0)
(3 2.88425e-16 0)
(3 -1.57705e-15 0)
(3 -1.75918e-15 0)
(3 -1.45056e-15 0)
(3 -1.64974e-15 0)
(3 -1.26222e-15 0)
(3 -1.01797e-15 0)
(3 -1.97892e-16 0)
(3 -2.1429e-16 0)
(3 -8.53171e-16 0)
(3 -1.00763e-15 0)
(3 -6.86559e-16 0)
(3 -1.94718e-16 0)
(3 7.45236e-16 0)
(3 1.26786e-15 0)
(3 5.81058e-16 0)
(3 2.09615e-16 0)
(3 -1.65128e-16 0)
(3 1.2171e-16 0)
(3 2.91059e-17 0)
(3 3.42599e-16 0)
(3 1.25352e-16 0)
(3 1.13068e-16 0)
(3 3.77781e-16 0)
(3 7.1579e-16 0)
(3 -7.46796e-17 0)
(3 -5.0234e-16 0)
(3 -3.15178e-16 0)
(3 -5.05411e-17 0)
(3 2.26035e-16 0)
(3 4.06465e-16 0)
(3 -1.34781e-16 0)
(3 -1.03827e-15 0)
(3 -9.78212e-16 0)
(3 -4.53269e-16 0)
(3 -2.72632e-16 0)
(3 -1.09045e-17 0)
(3 -1.22142e-16 0)
(3 -2.14327e-16 0)
(3 -1.68314e-16 0)
(3 2.22599e-16 0)
(3 9.22074e-16 0)
(3 1.71263e-15 0)
(3 1.83013e-15 0)
(3 1.72402e-15 0)
(3 2.43077e-15 0)
(3 2.98555e-15 0)
(3 2.49792e-15 0)
(3 1.99223e-15 0)
(3 2.23877e-15 0)
(3 1.88217e-15 0)
(3 1.48344e-15 0)
(3 1.00314e-15 0)
(3 1.84586e-16 0)
(3 3.49105e-16 0)
(3 2.8469e-16 0)
(3 6.79943e-16 0)
(3 2.16907e-15 0)
(3 3.30719e-15 0)
(3 3.64196e-15 0)
(3 2.37186e-15 0)
(3 1.98949e-15 0)
(3 1.78978e-15 0)
(3 1.9285e-15 0)
(3 1.50101e-15 0)
(3 4.26261e-16 0)
(3 4.64565e-17 0)
(3 2.31091e-16 0)
(3 2.76566e-16 0)
(3 -1.09672e-16 0)
(3 -5.36226e-16 0)
(3 -1.39851e-15 0)
(3 -2.13883e-15 0)
(3 -7.70465e-16 0)
(3 1.77176e-15 0)
(3 2.29603e-15 0)
(3 1.73732e-15 0)
(3 4.92954e-16 0)
(3 -1.18826e-15 0)
(3 -1.39077e-15 0)
(3 1.33035e-16 0)
(3 -3.77367e-16 0)
(3 -7.15096e-16 0)
(3 -7.0724e-16 0)
(3 -1.47401e-15 0)
(3 4.73156e-16 0)
(3 2.73935e-15 0)
(3 2.96294e-15 0)
(3 2.84082e-15 0)
(3 2.50775e-15 0)
(3 3.40363e-15 0)
(3 3.75239e-15 0)
(3 5.06928e-15 0)
(3 5.72476e-15 0)
(3 5.57219e-15 0)
(3 4.77085e-15 0)
(3 3.74231e-15 0)
(3 -8.68646e-16 0)
(3 -2.80189e-15 0)
(3 -3.09594e-15 0)
(3 -3.11131e-15 0)
(3 -1.4639e-15 0)
(3 3.0997e-16 0)
(3 6.30528e-16 0)
(3 1.85116e-17 0)
(3 -8.73169e-16 0)
(3 -1.68357e-15 0)
(3 -1.47792e-15 0)
(3 3.20856e-16 0)
(3 8.30096e-16 0)
(3 1.63628e-15 0)
(3 9.7356e-16 0)
(3 -4.45286e-16 0)
(3 -1.48093e-15 0)
(3 -1.4761e-15 0)
(3 1.35368e-16 0)
(3 4.00154e-16 0)
(3 3.41382e-16 0)
(3 -1.66001e-16 0)
(3 -4.66139e-16 0)
(3 -2.76081e-16 0)
(3 -7.43916e-16 0)
(3 -1.17583e-15 0)
(3 -1.16265e-15 0)
(3 -1.29756e-15 0)
(3 -1.2461e-15 0)
(3 -2.39418e-16 0)
(3 4.82728e-16 0)
(3 6.58147e-16 0)
(3 5.9058e-16 0)
(3 3.38028e-16 0)
(3 1.06852e-17 0)
(3 -1.80782e-16 0)
(3 1.89222e-16 0)
(3 4.02595e-16 0)
(3 3.17785e-16 0)
(3 4.59342e-16 0)
(3 1.285e-15 0)
(3 2.0701e-15 0)
(3 2.96655e-15 0)
(3 3.03499e-15 0)
(3 3.18775e-15 0)
(3 2.90967e-15 0)
(3 1.22259e-15 0)
(3 -4.67204e-16 0)
(3 -7.30043e-16 0)
(3 1.71851e-16 0)
(3 4.92774e-17 0)
(3 -7.09313e-16 0)
(3 -1.0407e-15 0)
(3 -9.09562e-16 0)
(3 -7.33622e-16 0)
(3 2.6651e-16 0)
(3 1.30545e-15 0)
(3 1.66561e-15 0)
(3 1.30966e-15 0)
(3 7.31059e-16 0)
(3 6.44801e-17 0)
(3 -9.57689e-16 0)
(3 -1.3154e-15 0)
(3 -1.12351e-15 0)
(3 -1.12488e-15 0)
(3 -1.39395e-15 0)
(3 -1.29694e-15 0)
(3 -3.72829e-16 0)
(3 7.34782e-17 0)
(3 -7.27642e-16 0)
(3 -9.93858e-16 0)
(3 -1.14541e-15 0)
(3 -1.98124e-16 0)
(3 -2.49186e-16 0)
(3 -6.114e-16 0)
(3 -1.74587e-15 0)
(3 -2.57817e-15 0)
(3 -1.93476e-15 0)
(3 -1.50104e-15 0)
(3 -3.85076e-16 0)
(3 1.47861e-15 0)
(3 1.85277e-15 0)
(3 1.93201e-15 0)
(3 2.04995e-15 0)
(3 2.67437e-15 0)
(3 4.71391e-15 0)
(3 4.40761e-15 0)
(3 2.04673e-15 0)
(3 1.3153e-15 0)
(3 3.68167e-15 0)
(3 4.62359e-15 0)
(3 5.11453e-15 0)
(3 4.87555e-15 0)
(3 3.24883e-15 0)
(3 3.2669e-15 0)
(3 2.87779e-15 0)
(3 1.53698e-15 0)
(3 -1.39958e-15 0)
(3 -3.61361e-15 0)
(3 -4.24987e-15 0)
(3 -3.40652e-15 0)
(3 -2.76083e-15 0)
(3 -3.44873e-15 0)
(3 -3.71425e-15 0)
(3 -3.00776e-15 0)
(3 -2.77246e-15 0)
(3 -2.24455e-15 0)
(3 -7.5129e-16 0)
(3 9.34253e-16 0)
(3 4.98806e-16 0)
(3 6.18047e-16 0)
(3 1.40644e-15 0)
(3 1.49417e-15 0)
(3 1.25391e-15 0)
(3 6.26614e-17 0)
(3 2.471e-16 0)
(3 3.87484e-16 0)
(3 1.29283e-16 0)
(3 -7.00803e-16 0)
(3 -1.19458e-15 0)
(3 -1.29715e-15 0)
(3 -1.04527e-15 0)
(3 -1.57101e-15 0)
(3 -1.72684e-15 0)
(3 -1.66682e-15 0)
(3 -1.09207e-15 0)
(3 -3.39938e-16 0)
(3 1.03332e-15 0)
(3 1.35553e-15 0)
(3 8.07913e-16 0)
(3 -3.56049e-16 0)
(3 -2.97741e-16 0)
(3 1.39546e-16 0)
(3 2.34631e-16 0)
(3 -1.98626e-16 0)
(3 1.58528e-16 0)
(3 3.37499e-16 0)
(3 5.11622e-16 0)
(3 6.57775e-16 0)
(3 6.24737e-16 0)
(3 -1.17867e-16 0)
(3 -1.43959e-15 0)
(3 -2.32073e-15 0)
(3 -3.21424e-15 0)
(3 -2.73724e-15 0)
(3 -2.33637e-16 0)
(3 8.66281e-16 0)
(3 7.49486e-16 0)
(3 -5.51465e-16 0)
(3 -2.02671e-15 0)
(3 -2.12738e-15 0)
(3 -7.6431e-16 0)
(3 -1.28476e-16 0)
(3 -1.42404e-16 0)
(3 -1.24352e-15 0)
(3 -1.41526e-15 0)
(3 -1.9525e-15 0)
(3 -2.12622e-15 0)
(3 -1.61927e-15 0)
(3 -1.18763e-15 0)
(3 -1.24115e-15 0)
(3 -1.36759e-15 0)
(3 -1.72032e-15 0)
(3 -1.43229e-15 0)
(3 -9.40124e-16 0)
(3 -1.60334e-15 0)
(3 -2.02182e-15 0)
(3 -2.35954e-15 0)
(3 -1.17519e-15 0)
(3 -6.6688e-16 0)
(3 -1.99973e-16 0)
(3 -5.84345e-16 0)
(3 -1.36635e-15 0)
(3 -8.3856e-16 0)
(3 -1.7095e-16 0)
(3 -6.25451e-16 0)
(3 1.60837e-16 0)
(3 7.88463e-16 0)
(3 1.902e-15 0)
(3 3.65801e-15 0)
(3 4.81711e-15 0)
(3 5.05909e-15 0)
(3 5.07842e-15 0)
(3 4.41447e-15 0)
(3 4.16326e-15 0)
(3 4.94934e-15 0)
(3 5.39272e-15 0)
(3 5.06144e-15 0)
(3 4.12104e-15 0)
(3 2.26999e-15 0)
(3 1.13343e-15 0)
(3 1.03476e-15 0)
(3 -2.70528e-16 0)
(3 -1.13087e-15 0)
(3 -2.83355e-15 0)
(3 -5.24312e-15 0)
(3 -6.68866e-15 0)
(3 -7.40213e-15 0)
(3 -5.68549e-15 0)
(3 -4.97395e-15 0)
(3 -4.23068e-15 0)
(3 -4.01609e-15 0)
(3 -4.0577e-15 0)
(3 -3.51515e-15 0)
(3 -1.20555e-15 0)
(3 -6.27406e-16 0)
(3 -6.27386e-16 0)
(3 3.7606e-16 0)
(3 1.12537e-15 0)
(3 3.50615e-16 0)
(3 -1.70534e-16 0)
(3 -5.65884e-19 0)
(3 -4.82225e-16 0)
(3 -1.42015e-16 0)
(3 -3.6465e-16 0)
(3 -9.29381e-16 0)
(3 -8.3241e-16 0)
(3 -8.85929e-16 0)
(3 -9.51404e-16 0)
(3 -9.00643e-16 0)
(3 -9.18201e-16 0)
(3 -7.79609e-16 0)
(3 -7.81649e-16 0)
(3 -4.17325e-16 0)
(3 -5.71946e-17 0)
(3 2.76561e-16 0)
(3 5.49655e-16 0)
(3 4.07955e-16 0)
(3 1.29139e-16 0)
(3 -1.86031e-16 0)
(3 2.55888e-16 0)
(3 5.26653e-16 0)
(3 1.64168e-16 0)
(3 1.19884e-17 0)
(3 1.05066e-16 0)
(3 -1.74058e-16 0)
(3 -1.65883e-15 0)
(3 -2.49383e-15 0)
(3 -2.39306e-15 0)
(3 -1.7309e-15 0)
(3 -5.53051e-16 0)
(3 3.54727e-16 0)
(3 1.35176e-15 0)
(3 1.6374e-15 0)
(3 1.46861e-15 0)
(3 6.23569e-16 0)
(3 5.06038e-16 0)
(3 5.76789e-16 0)
(3 6.4665e-16 0)
(3 4.05384e-16 0)
(3 5.60987e-17 0)
(3 -5.94993e-16 0)
(3 -1.17696e-15 0)
(3 -8.78674e-16 0)
(3 -1.18608e-16 0)
(3 8.94726e-17 0)
(3 -7.13417e-17 0)
(3 -1.39123e-16 0)
(3 -4.98926e-16 0)
(3 -6.51721e-16 0)
(3 -5.17828e-16 0)
(3 -2.54725e-16 0)
(3 -1.9572e-15 0)
(3 -1.32976e-15 0)
(3 -9.3167e-16 0)
(3 -1.36979e-16 0)
(3 9.50247e-16 0)
(3 1.37288e-15 0)
(3 8.44431e-16 0)
(3 4.08431e-16 0)
(3 -4.99863e-16 0)
(3 -9.30999e-16 0)
(3 -1.74045e-15 0)
(3 -1.03304e-15 0)
(3 1.25339e-15 0)
(3 2.30538e-15 0)
(3 1.8937e-15 0)
(3 1.40207e-15 0)
(3 9.80165e-16 0)
(3 1.12182e-15 0)
(3 2.99029e-15 0)
(3 4.95113e-15 0)
(3 5.10635e-15 0)
(3 4.55353e-15 0)
(3 3.08677e-15 0)
(3 2.66417e-15 0)
(3 2.29961e-15 0)
(3 7.06844e-16 0)
(3 -2.2526e-15 0)
(3 -2.89578e-15 0)
(3 -4.76695e-15 0)
(3 -6.42783e-15 0)
(3 -7.37614e-15 0)
(3 -7.19813e-15 0)
(3 -6.53705e-15 0)
(3 -4.01757e-15 0)
(3 -3.01638e-15 0)
(3 -3.38917e-15 0)
(3 -3.52648e-15 0)
(3 -3.31396e-15 0)
(3 -1.43022e-15 0)
(3 -6.965e-16 0)
(3 -4.16446e-16 0)
(3 -6.93881e-16 0)
(3 -5.40132e-16 0)
(3 -1.16173e-15 0)
(3 1.529e-18 0)
(3 1.5024e-16 0)
(3 -7.01162e-18 0)
(3 -3.53267e-17 0)
(3 -1.50372e-16 0)
(3 1.07216e-17 0)
(3 2.93613e-16 0)
(3 -1.46903e-17 0)
(3 1.24654e-16 0)
(3 -4.02791e-16 0)
(3 -4.16233e-16 0)
(3 1.74641e-16 0)
(3 2.48336e-17 0)
(3 -4.7545e-16 0)
(3 -3.80018e-16 0)
(3 -2.19632e-16 0)
(3 7.86751e-16 0)
(3 1.18049e-15 0)
(3 1.60993e-15 0)
(3 1.38127e-15 0)
(3 1.30471e-15 0)
(3 8.12717e-16 0)
(3 6.13805e-16 0)
(3 9.69989e-16 0)
(3 1.29534e-15 0)
(3 1.27391e-15 0)
(3 1.00991e-15 0)
(3 -3.85079e-16 0)
(3 -2.16683e-16 0)
(3 1.03462e-16 0)
(3 -7.93816e-17 0)
(3 -4.4617e-16 0)
(3 -3.80369e-16 0)
(3 -2.73302e-17 0)
(3 9.0115e-16 0)
(3 1.10078e-15 0)
(3 9.87462e-16 0)
(3 1.18859e-15 0)
(3 1.34054e-15 0)
(3 6.44435e-16 0)
(3 9.36697e-17 0)
(3 3.65095e-16 0)
(3 7.17865e-16 0)
(3 5.09437e-16 0)
(3 1.75517e-16 0)
(3 3.62987e-16 0)
(3 1.29605e-16 0)
(3 1.219e-16 0)
(3 1.24839e-16 0)
(3 2.145e-16 0)
(3 3.7446e-16 0)
(3 1.56075e-15 0)
(3 1.71028e-15 0)
(3 4.91712e-16 0)
(3 -6.12711e-16 0)
(3 -8.88511e-16 0)
(3 -7.39945e-16 0)
(3 4.95443e-16 0)
(3 1.24071e-15 0)
(3 2.59899e-15 0)
(3 1.60104e-15 0)
(3 9.87266e-17 0)
(3 1.20666e-17 0)
(3 2.83815e-16 0)
(3 2.39184e-15 0)
(3 2.1955e-15 0)
(3 3.49304e-16 0)
(3 -1.4642e-16 0)
(3 -6.59067e-16 0)
(3 -1.47957e-16 0)
(3 2.32494e-15 0)
(3 3.47555e-15 0)
(3 3.39034e-15 0)
(3 3.11132e-15 0)
(3 2.09305e-15 0)
(3 1.61058e-15 0)
(3 9.99951e-16 0)
(3 -2.04863e-16 0)
(3 -1.03334e-16 0)
(3 -7.90405e-16 0)
(3 -3.15229e-15 0)
(3 -4.34081e-15 0)
(3 -4.90831e-15 0)
(3 -5.80469e-15 0)
(3 -4.72876e-15 0)
(3 -3.47306e-15 0)
(3 -2.79412e-15 0)
(3 -1.90309e-15 0)
(3 -1.5025e-15 0)
(3 -1.13559e-15 0)
(3 -1.06997e-15 0)
(3 -7.3909e-16 0)
(3 1.25223e-16 0)
(3 1.12812e-16 0)
(3 -8.77259e-16 0)
(3 -2.52169e-15 0)
(3 -1.71316e-16 0)
(3 1.85719e-16 0)
(3 4.79371e-16 0)
(3 -2.57482e-17 0)
(3 2.35965e-16 0)
(3 6.67336e-16 0)
(3 3.12858e-16 0)
(3 -1.10911e-16 0)
(3 -2.1901e-16 0)
(3 -1.46887e-16 0)
(3 2.56268e-17 0)
(3 2.29516e-16 0)
(3 5.90018e-16 0)
(3 3.62526e-16 0)
(3 -4.6645e-17 0)
(3 -1.95947e-16 0)
(3 1.68954e-16 0)
(3 3.20877e-16 0)
(3 9.56003e-16 0)
(3 1.81564e-15 0)
(3 2.066e-15 0)
(3 1.26369e-15 0)
(3 4.54002e-16 0)
(3 1.74248e-16 0)
(3 2.99399e-16 0)
(3 5.03409e-16 0)
(3 6.85231e-16 0)
(3 1.28893e-15 0)
(3 1.27186e-15 0)
(3 3.59196e-16 0)
(3 -9.85499e-16 0)
(3 -2.07723e-15 0)
(3 -1.97774e-15 0)
(3 -1.31013e-15 0)
(3 -9.59236e-17 0)
(3 1.5578e-16 0)
(3 1.10713e-15 0)
(3 1.80041e-15 0)
(3 2.14251e-15 0)
(3 1.62384e-15 0)
(3 6.43781e-16 0)
(3 1.35076e-15 0)
(3 1.66757e-15 0)
(3 1.90555e-15 0)
(3 1.98845e-15 0)
(3 1.80692e-15 0)
(3 1.78602e-15 0)
(3 1.53473e-15 0)
(3 1.21734e-15 0)
(3 5.17654e-16 0)
(3 7.9691e-17 0)
(3 1.02674e-15 0)
(3 1.60653e-15 0)
(3 9.44955e-16 0)
(3 2.5334e-16 0)
(3 -2.46998e-16 0)
(3 -1.13285e-16 0)
(3 7.8634e-16 0)
(3 2.44517e-15 0)
(3 3.19263e-15 0)
(3 3.06774e-15 0)
(3 2.85159e-15 0)
(3 2.92068e-15 0)
(3 1.55752e-15 0)
(3 9.6471e-16 0)
(3 6.18036e-16 0)
(3 -7.07329e-17 0)
(3 -2.87099e-16 0)
(3 -6.08707e-16 0)
(3 -4.52965e-16 0)
(3 5.28744e-16 0)
(3 1.51427e-15 0)
(3 2.65843e-15 0)
(3 2.38739e-15 0)
(3 -2.00749e-17 0)
(3 -9.65263e-16 0)
(3 -9.04325e-16 0)
(3 1.51356e-15 0)
(3 3.35723e-16 0)
(3 -1.89932e-15 0)
(3 -3.81983e-15 0)
(3 -4.16068e-15 0)
(3 -4.78773e-15 0)
(3 -4.70586e-15 0)
(3 -3.37991e-15 0)
(3 -3.45054e-15 0)
(3 -3.49185e-15 0)
(3 -2.57431e-15 0)
(3 -1.87239e-15 0)
(3 -1.25602e-15 0)
(3 -2.88273e-16 0)
(3 1.22192e-15 0)
(3 1.9892e-15 0)
(3 1.56034e-15 0)
(3 8.88187e-16 0)
(3 -2.77233e-16 0)
(3 -1.9439e-16 0)
(3 -3.37872e-16 0)
(3 2.82721e-16 0)
(3 2.95379e-16 0)
(3 3.9409e-16 0)
(3 3.66576e-16 0)
(3 1.20513e-16 0)
(3 1.85179e-16 0)
(3 1.95984e-16 0)
(3 7.62319e-16 0)
(3 1.17425e-15 0)
(3 9.14865e-16 0)
(3 1.12858e-15 0)
(3 9.5413e-16 0)
(3 6.19719e-16 0)
(3 -3.17265e-17 0)
(3 -7.05442e-16 0)
(3 -6.59183e-16 0)
(3 -4.97978e-16 0)
(3 4.50524e-16 0)
(3 6.83543e-16 0)
(3 -2.13199e-16 0)
(3 -1.40192e-15 0)
(3 -1.51008e-15 0)
(3 -1.14526e-15 0)
(3 -1.78536e-15 0)
(3 -1.48162e-15 0)
(3 1.44711e-16 0)
(3 6.92906e-16 0)
(3 1.07535e-15 0)
(3 1.30789e-15 0)
(3 6.5412e-16 0)
(3 3.34732e-16 0)
(3 1.69652e-18 0)
(3 -4.39189e-16 0)
(3 -1.34403e-16 0)
(3 2.15993e-16 0)
(3 7.10287e-16 0)
(3 2.04201e-15 0)
(3 2.26297e-15 0)
(3 1.67724e-15 0)
(3 1.65921e-15 0)
(3 1.32571e-15 0)
(3 1.2018e-15 0)
(3 9.50207e-16 0)
(3 3.21671e-16 0)
(3 1.55127e-15 0)
(3 1.81362e-15 0)
(3 1.32055e-15 0)
(3 1.42953e-16 0)
(3 -1.14254e-15 0)
(3 -2.86407e-15 0)
(3 -2.82599e-15 0)
(3 -1.89432e-15 0)
(3 -1.66213e-15 0)
(3 -1.03663e-15 0)
(3 6.80673e-16 0)
(3 1.92038e-15 0)
(3 2.31328e-15 0)
(3 2.77601e-15 0)
(3 2.18141e-15 0)
(3 1.71747e-15 0)
(3 1.73093e-15 0)
(3 2.51026e-15 0)
(3 8.94353e-16 0)
(3 -6.60025e-16 0)
(3 -2.26691e-16 0)
(3 3.12962e-16 0)
(3 3.42647e-17 0)
(3 -4.7674e-17 0)
(3 -4.46279e-16 0)
(3 -6.52532e-16 0)
(3 3.82067e-17 0)
(3 2.41189e-16 0)
(3 -3.74619e-16 0)
(3 6.17172e-16 0)
(3 1.759e-15 0)
(3 1.87325e-15 0)
(3 -6.34575e-16 0)
(3 -3.13533e-15 0)
(3 -3.60644e-15 0)
(3 -3.35218e-15 0)
(3 -2.75308e-15 0)
(3 -2.4715e-15 0)
(3 -2.40586e-15 0)
(3 -1.94398e-15 0)
(3 -1.59659e-15 0)
(3 -2.71767e-15 0)
(3 -2.57531e-15 0)
(3 -1.58239e-15 0)
(3 4.05432e-16 0)
(3 2.45292e-15 0)
(3 3.94393e-15 0)
(3 4.09333e-15 0)
(3 3.68913e-15 0)
(3 3.01786e-15 0)
(3 8.48274e-17 0)
(3 4.86124e-17 0)
(3 -1.16708e-16 0)
(3 -8.93297e-17 0)
(3 -1.90783e-16 0)
(3 -2.71448e-16 0)
(3 -7.97796e-17 0)
(3 4.01732e-16 0)
(3 6.65245e-16 0)
(3 9.7512e-16 0)
(3 9.66873e-16 0)
(3 2.02365e-16 0)
(3 4.93798e-17 0)
(3 5.81069e-16 0)
(3 4.49103e-16 0)
(3 -3.1247e-16 0)
(3 -7.31597e-16 0)
(3 -8.79125e-17 0)
(3 -2.30446e-16 0)
(3 -9.03445e-16 0)
(3 -1.0158e-15 0)
(3 -1.06513e-15 0)
(3 -8.66473e-16 0)
(3 -2.69883e-16 0)
(3 -3.68837e-16 0)
(3 -7.95877e-16 0)
(3 -8.98027e-16 0)
(3 -7.55686e-16 0)
(3 -3.78083e-16 0)
(3 8.13834e-16 0)
(3 2.69739e-15 0)
(3 2.63559e-15 0)
(3 1.88869e-15 0)
(3 7.01762e-16 0)
(3 -3.20271e-16 0)
(3 -9.49597e-16 0)
(3 -1.25027e-15 0)
(3 -1.38157e-15 0)
(3 -1.28013e-15 0)
(3 -4.53543e-17 0)
(3 9.617e-16 0)
(3 5.15792e-16 0)
(3 3.396e-16 0)
(3 5.58046e-16 0)
(3 -2.58664e-16 0)
(3 -5.01434e-16 0)
(3 -1.15343e-15 0)
(3 -8.77325e-16 0)
(3 7.38098e-16 0)
(3 1.06702e-15 0)
(3 9.22245e-16 0)
(3 -1.7376e-15 0)
(3 -3.02483e-15 0)
(3 -2.83589e-15 0)
(3 -3.19999e-15 0)
(3 -1.30131e-15 0)
(3 -2.92188e-16 0)
(3 4.28747e-16 0)
(3 -6.08278e-17 0)
(3 3.9823e-16 0)
(3 6.08768e-16 0)
(3 6.22322e-16 0)
(3 1.59128e-15 0)
(3 2.26439e-15 0)
(3 2.42476e-15 0)
(3 1.7506e-15 0)
(3 1.75374e-15 0)
(3 1.15331e-15 0)
(3 -5.52008e-16 0)
(3 -1.13873e-15 0)
(3 -1.64532e-15 0)
(3 -2.33478e-15 0)
(3 -2.73133e-15 0)
(3 -3.36183e-15 0)
(3 -1.23341e-15 0)
(3 3.26692e-16 0)
(3 1.35246e-15 0)
(3 9.09433e-16 0)
(3 -1.12543e-15 0)
(3 -2.14096e-15 0)
(3 -2.2018e-15 0)
(3 -1.94319e-15 0)
(3 -1.71312e-15 0)
(3 -1.6882e-15 0)
(3 -1.6017e-15 0)
(3 1.45419e-15 0)
(3 1.3414e-15 0)
(3 3.32975e-16 0)
(3 -1.84627e-16 0)
(3 -1.75328e-16 0)
(3 1.57586e-17 0)
(3 4.6064e-16 0)
(3 3.00065e-15 0)
(3 3.48853e-15 0)
(3 1.54502e-15 0)
(3 -7.75883e-17 0)
(3 8.51254e-17 0)
(3 4.84982e-16 0)
(3 -1.94656e-16 0)
(3 -5.15103e-16 0)
(3 -4.80533e-16 0)
(3 -2.38832e-16 0)
(3 -3.70747e-17 0)
(3 4.57831e-16 0)
(3 8.67309e-16 0)
(3 4.86169e-16 0)
(3 5.0685e-16 0)
(3 2.81709e-16 0)
(3 9.19672e-17 0)
(3 2.73565e-16 0)
(3 2.41408e-16 0)
(3 3.43625e-17 0)
(3 3.94082e-16 0)
(3 4.08359e-16 0)
(3 -1.98625e-17 0)
(3 -7.05165e-16 0)
(3 -9.19877e-16 0)
(3 -1.79378e-16 0)
(3 5.29368e-16 0)
(3 3.52877e-16 0)
(3 -4.51921e-16 0)
(3 -6.95878e-16 0)
(3 -6.73222e-16 0)
(3 1.71426e-16 0)
(3 2.37392e-16 0)
(3 1.8792e-16 0)
(3 2.20157e-16 0)
(3 6.1456e-16 0)
(3 5.16565e-16 0)
(3 -1.82795e-16 0)
(3 -1.06645e-15 0)
(3 -1.43502e-15 0)
(3 -1.76822e-15 0)
(3 -1.46135e-15 0)
(3 -1.15773e-15 0)
(3 -1.47486e-16 0)
(3 2.81903e-16 0)
(3 1.38752e-16 0)
(3 -3.57277e-16 0)
(3 -2.78582e-16 0)
(3 -6.58629e-16 0)
(3 -1.24176e-15 0)
(3 -2.27736e-15 0)
(3 -2.89583e-15 0)
(3 -1.8509e-15 0)
(3 -1.14218e-15 0)
(3 -5.37602e-16 0)
(3 8.45446e-16 0)
(3 -1.03938e-15 0)
(3 -2.5217e-15 0)
(3 -2.93836e-15 0)
(3 -3.19101e-15 0)
(3 -9.15697e-16 0)
(3 8.30369e-17 0)
(3 1.02545e-15 0)
(3 1.89932e-15 0)
(3 2.29495e-15 0)
(3 2.97524e-15 0)
(3 3.31755e-15 0)
(3 2.89316e-15 0)
(3 2.48603e-15 0)
(3 2.75008e-15 0)
(3 2.85981e-15 0)
(3 1.08109e-15 0)
(3 -1.74121e-15 0)
(3 -2.92954e-15 0)
(3 -3.27136e-15 0)
(3 -3.13865e-15 0)
(3 -3.23374e-15 0)
(3 -3.89299e-15 0)
(3 -1.35871e-15 0)
(3 -7.07265e-16 0)
(3 -3.19315e-16 0)
(3 9.98921e-17 0)
(3 1.48527e-15 0)
(3 1.0557e-15 0)
(3 4.98266e-16 0)
(3 8.26726e-17 0)
(3 -8.61589e-16 0)
(3 -1.31556e-15 0)
(3 -5.80882e-16 0)
(3 1.33043e-16 0)
(3 6.49638e-16 0)
(3 1.42784e-15 0)
(3 2.04416e-15 0)
(3 2.15357e-15 0)
(3 1.27809e-15 0)
(3 7.50475e-16 0)
(3 1.1965e-15 0)
(3 1.43299e-15 0)
(3 2.3484e-16 0)
(3 -5.65704e-16 0)
(3 1.45082e-18 0)
(3 -1.26971e-16 0)
(3 -3.51446e-16 0)
(3 -1.15632e-16 0)
(3 -1.77003e-16 0)
(3 -3.24147e-16 0)
(3 1.33633e-16 0)
(3 4.81782e-16 0)
(3 5.12893e-16 0)
(3 4.22983e-16 0)
(3 7.1987e-16 0)
(3 1.42452e-15 0)
(3 1.20946e-15 0)
(3 6.67931e-16 0)
(3 8.25772e-16 0)
(3 1.30225e-15 0)
(3 1.61332e-15 0)
(3 1.516e-15 0)
(3 1.46464e-15 0)
(3 9.7502e-16 0)
(3 7.9432e-16 0)
(3 8.60191e-16 0)
(3 8.8088e-16 0)
(3 -6.45681e-17 0)
(3 -1.40696e-15 0)
(3 -1.81586e-15 0)
(3 -9.43848e-16 0)
(3 1.46752e-16 0)
(3 3.73215e-16 0)
(3 -8.25774e-16 0)
(3 -1.18946e-15 0)
(3 -9.03006e-16 0)
(3 -6.86148e-16 0)
(3 -1.41287e-15 0)
(3 -2.15087e-15 0)
(3 -2.02239e-15 0)
(3 -1.42696e-15 0)
(3 -1.23834e-15 0)
(3 -1.11115e-15 0)
(3 -5.62927e-16 0)
(3 -4.73694e-16 0)
(3 -3.00867e-16 0)
(3 -3.39194e-16 0)
(3 -7.79294e-16 0)
(3 -8.57957e-16 0)
(3 -8.67055e-16 0)
(3 -8.71747e-16 0)
(3 -4.54647e-16 0)
(3 -9.39148e-17 0)
(3 -1.34705e-16 0)
(3 7.83335e-16 0)
(3 3.7828e-16 0)
(3 -4.03572e-16 0)
(3 -3.82618e-16 0)
(3 -1.78009e-15 0)
(3 -3.81966e-15 0)
(3 -2.30956e-15 0)
(3 -2.29622e-16 0)
(3 2.06215e-15 0)
(3 5.17689e-15 0)
(3 5.71473e-15 0)
(3 5.17475e-15 0)
(3 3.65873e-15 0)
(3 2.33287e-15 0)
(3 1.36719e-15 0)
(3 1.41569e-15 0)
(3 2.28027e-16 0)
(3 -2.27992e-16 0)
(3 -4.26809e-16 0)
(3 -7.72841e-16 0)
(3 -1.65514e-16 0)
(3 -1.01835e-15 0)
(3 -1.9751e-15 0)
(3 -1.17448e-15 0)
(3 -8.77157e-16 0)
(3 -7.99875e-16 0)
(3 -1.06568e-15 0)
(3 -4.88346e-16 0)
(3 -5.84778e-17 0)
(3 7.10454e-16 0)
(3 3.71073e-18 0)
(3 -7.15039e-16 0)
(3 -4.51834e-16 0)
(3 8.3311e-16 0)
(3 3.64961e-16 0)
(3 -7.89761e-16 0)
(3 -3.46463e-16 0)
(3 1.18548e-15 0)
(3 3.21948e-15 0)
(3 2.95733e-15 0)
(3 2.22328e-15 0)
(3 1.74589e-15 0)
(3 -2.37432e-16 0)
(3 -2.86008e-16 0)
(3 2.25862e-15 0)
(3 2.94924e-15 0)
(3 -8.90662e-17 0)
(3 -1.22316e-17 0)
(3 1.85268e-17 0)
(3 4.17823e-16 0)
(3 -1.36495e-16 0)
(3 -2.06806e-16 0)
(3 -1.40033e-16 0)
(3 4.84795e-17 0)
(3 -5.96986e-16 0)
(3 -5.7923e-16 0)
(3 -5.25452e-16 0)
(3 -4.67845e-17 0)
(3 1.55078e-16 0)
(3 -1.15335e-16 0)
(3 1.07519e-16 0)
(3 5.08015e-16 0)
(3 2.20018e-16 0)
(3 1.73418e-16 0)
(3 2.18887e-16 0)
(3 3.34249e-16 0)
(3 2.71912e-16 0)
(3 4.16277e-16 0)
(3 2.41773e-16 0)
(3 -7.02668e-16 0)
(3 -1.32012e-15 0)
(3 -7.17926e-16 0)
(3 2.24877e-16 0)
(3 3.84601e-16 0)
(3 5.04333e-16 0)
(3 -3.87869e-16 0)
(3 -9.58532e-16 0)
(3 -1.56552e-15 0)
(3 -1.7338e-15 0)
(3 -1.4028e-15 0)
(3 -1.67678e-15 0)
(3 -1.82217e-15 0)
(3 -1.51675e-15 0)
(3 -1.69415e-15 0)
(3 -2.12856e-15 0)
(3 -2.44763e-15 0)
(3 -1.81948e-15 0)
(3 6.86934e-16 0)
(3 1.48868e-15 0)
(3 1.38091e-15 0)
(3 1.46909e-15 0)
(3 1.63609e-15 0)
(3 2.54654e-15 0)
(3 3.28623e-15 0)
(3 3.02483e-15 0)
(3 2.34878e-15 0)
(3 1.71026e-15 0)
(3 3.44732e-16 0)
(3 2.2487e-16 0)
(3 4.32523e-16 0)
(3 6.39135e-16 0)
(3 -2.30343e-16 0)
(3 -2.20022e-15 0)
(3 1.11393e-15 0)
(3 3.72073e-15 0)
(3 3.85531e-15 0)
(3 2.76629e-15 0)
(3 2.23602e-15 0)
(3 1.94008e-15 0)
(3 1.11023e-15 0)
(3 1.24921e-15 0)
(3 1.26488e-15 0)
(3 5.10625e-16 0)
(3 -9.59157e-16 0)
(3 -1.8754e-15 0)
(3 -1.63817e-15 0)
(3 -2.32557e-16 0)
(3 1.9916e-16 0)
(3 -1.01005e-15 0)
(3 -1.60327e-15 0)
(3 -1.3352e-15 0)
(3 -1.50617e-15 0)
(3 -2.28871e-15 0)
(3 -2.95948e-15 0)
(3 -3.1538e-15 0)
(3 -2.07529e-15 0)
(3 -2.00479e-15 0)
(3 -1.8583e-15 0)
(3 -3.70627e-16 0)
(3 7.12409e-16 0)
(3 8.60928e-16 0)
(3 4.73038e-16 0)
(3 8.03636e-16 0)
(3 1.21731e-15 0)
(3 1.95056e-15 0)
(3 2.95163e-15 0)
(3 3.40585e-15 0)
(3 2.97496e-15 0)
(3 2.01246e-15 0)
(3 1.56389e-15 0)
(3 1.56774e-15 0)
(3 2.28417e-15 0)
(3 -1.72896e-17 0)
(3 -3.8181e-17 0)
(3 -5.82253e-18 0)
(3 -3.12293e-17 0)
(3 7.59644e-17 0)
(3 2.13355e-16 0)
(3 3.89678e-17 0)
(3 -6.52411e-17 0)
(3 -7.89336e-16 0)
(3 -1.0509e-15 0)
(3 -1.54873e-15 0)
(3 -2.02715e-15 0)
(3 -1.84104e-15 0)
(3 -1.43465e-15 0)
(3 -1.31992e-15 0)
(3 -1.57624e-15 0)
(3 -1.33281e-15 0)
(3 -1.12994e-15 0)
(3 -8.89984e-16 0)
(3 -2.93641e-16 0)
(3 6.65003e-16 0)
(3 5.56823e-16 0)
(3 -5.01652e-16 0)
(3 -2.30277e-16 0)
(3 1.98759e-15 0)
(3 1.6168e-15 0)
(3 9.61835e-16 0)
(3 2.49656e-16 0)
(3 2.06644e-16 0)
(3 6.27883e-16 0)
(3 6.76074e-17 0)
(3 -8.15272e-16 0)
(3 -1.3207e-15 0)
(3 -1.2936e-15 0)
(3 -5.5919e-16 0)
(3 -6.38946e-16 0)
(3 -3.28898e-16 0)
(3 -5.11803e-16 0)
(3 -1.11868e-15 0)
(3 -2.12839e-15 0)
(3 -2.10657e-15 0)
(3 -1.33985e-15 0)
(3 5.03299e-16 0)
(3 2.19741e-15 0)
(3 2.46862e-15 0)
(3 2.85159e-15 0)
(3 3.78201e-15 0)
(3 4.45213e-15 0)
(3 4.61412e-15 0)
(3 2.40729e-15 0)
(3 5.73033e-16 0)
(3 6.36396e-16 0)
(3 8.91435e-16 0)
(3 1.79976e-15 0)
(3 2.60313e-15 0)
(3 4.12801e-15 0)
(3 4.88615e-15 0)
(3 1.50185e-15 0)
(3 7.34749e-16 0)
(3 -1.06992e-15 0)
(3 -3.02072e-15 0)
(3 -3.35647e-15 0)
(3 -3.18226e-15 0)
(3 -2.68668e-15 0)
(3 -3.66357e-16 0)
(3 1.6999e-15 0)
(3 1.21949e-15 0)
(3 -5.58064e-17 0)
(3 -7.01548e-16 0)
(3 -1.06805e-15 0)
(3 -5.0358e-16 0)
(3 -9.80303e-16 0)
(3 -1.27762e-15 0)
(3 -1.6649e-15 0)
(3 -1.79208e-15 0)
(3 -1.84915e-15 0)
(3 -2.25379e-15 0)
(3 -3.38228e-15 0)
(3 -4.44804e-15 0)
(3 -3.93857e-15 0)
(3 -2.90524e-15 0)
(3 -1.1887e-15 0)
(3 -3.92796e-16 0)
(3 1.78483e-16 0)
(3 1.17462e-15 0)
(3 9.19021e-16 0)
(3 1.00607e-15 0)
(3 8.21986e-16 0)
(3 9.66962e-16 0)
(3 2.78338e-15 0)
(3 3.75972e-15 0)
(3 3.96871e-15 0)
(3 3.44543e-15 0)
(3 3.1645e-15 0)
(3 3.25766e-15 0)
(3 2.18527e-15 0)
(3 2.93675e-17 0)
(3 -1.40184e-16 0)
(3 -2.43013e-17 0)
(3 -4.1262e-17 0)
(3 5.48847e-16 0)
(3 7.45391e-16 0)
(3 1.19333e-16 0)
(3 -6.86603e-16 0)
(3 -1.22612e-15 0)
(3 -1.21533e-15 0)
(3 -1.66397e-15 0)
(3 -1.64279e-15 0)
(3 -1.61491e-15 0)
(3 -1.12929e-15 0)
(3 -4.59577e-16 0)
(3 -4.87452e-16 0)
(3 -8.83595e-17 0)
(3 1.2767e-16 0)
(3 2.07154e-16 0)
(3 4.42016e-16 0)
(3 7.84516e-16 0)
(3 6.85361e-16 0)
(3 8.0954e-16 0)
(3 1.56834e-15 0)
(3 3.15204e-15 0)
(3 2.2751e-15 0)
(3 1.13154e-15 0)
(3 2.15937e-16 0)
(3 -5.39154e-16 0)
(3 1.72414e-16 0)
(3 -5.96801e-16 0)
(3 -8.13252e-16 0)
(3 -1.17509e-15 0)
(3 -1.38767e-15 0)
(3 6.21787e-16 0)
(3 1.54114e-15 0)
(3 1.40976e-15 0)
(3 6.6673e-16 0)
(3 -6.19134e-17 0)
(3 -1.36792e-15 0)
(3 -2.49996e-15 0)
(3 -3.31298e-15 0)
(3 -3.08101e-15 0)
(3 -2.08e-15 0)
(3 1.63052e-15 0)
(3 2.9086e-15 0)
(3 2.36887e-15 0)
(3 2.12458e-15 0)
(3 2.34385e-15 0)
(3 2.07873e-15 0)
(3 1.46088e-15 0)
(3 1.84276e-15 0)
(3 2.8758e-15 0)
(3 3.677e-15 0)
(3 4.53489e-15 0)
(3 5.98976e-15 0)
(3 6.65421e-15 0)
(3 6.18353e-15 0)
(3 2.33626e-15 0)
(3 -1.37767e-15 0)
(3 -2.40933e-15 0)
(3 -4.06995e-15 0)
(3 -3.9684e-15 0)
(3 -3.3019e-15 0)
(3 -2.90549e-15 0)
(3 -1.48868e-15 0)
(3 8.49092e-16 0)
(3 1.36816e-15 0)
(3 6.67557e-16 0)
(3 -3.6251e-16 0)
(3 -6.54444e-16 0)
(3 -5.06065e-16 0)
(3 5.19102e-16 0)
(3 2.53795e-16 0)
(3 -1.0561e-15 0)
(3 -2.08947e-15 0)
(3 -1.58257e-15 0)
(3 -1.63293e-15 0)
(3 -2.7931e-15 0)
(3 -3.57157e-15 0)
(3 -2.69894e-15 0)
(3 -4.47265e-16 0)
(3 6.90257e-16 0)
(3 4.9844e-16 0)
(3 1.26874e-16 0)
(3 3.80175e-16 0)
(3 4.80293e-16 0)
(3 1.60293e-16 0)
(3 8.48598e-16 0)
(3 2.00606e-15 0)
(3 2.55003e-15 0)
(3 2.60143e-15 0)
(3 2.92883e-15 0)
(3 2.8898e-15 0)
(3 2.39226e-15 0)
(3 2.15203e-15 0)
(3 -2.61124e-18 0)
(3 -4.08038e-17 0)
(3 2.07438e-16 0)
(3 3.06404e-16 0)
(3 2.50998e-16 0)
(3 -7.79929e-17 0)
(3 -4.39469e-16 0)
(3 -5.08933e-16 0)
(3 -6.86214e-16 0)
(3 -5.83398e-16 0)
(3 -5.29046e-16 0)
(3 -3.49237e-16 0)
(3 1.34599e-17 0)
(3 3.86968e-16 0)
(3 7.31536e-16 0)
(3 9.53861e-16 0)
(3 9.12795e-16 0)
(3 9.48411e-16 0)
(3 1.20916e-15 0)
(3 5.24163e-16 0)
(3 6.9977e-16 0)
(3 8.09164e-16 0)
(3 9.38322e-16 0)
(3 8.93071e-16 0)
(3 1.16165e-15 0)
(3 1.05303e-15 0)
(3 2.37792e-16 0)
(3 -4.28261e-16 0)
(3 -8.11355e-16 0)
(3 -6.65825e-16 0)
(3 -1.27806e-15 0)
(3 -9.92189e-16 0)
(3 -7.10714e-16 0)
(3 -9.60868e-16 0)
(3 1.38631e-16 0)
(3 2.07741e-15 0)
(3 1.92471e-15 0)
(3 9.02038e-16 0)
(3 6.62029e-17 0)
(3 -6.53731e-16 0)
(3 -5.75522e-16 0)
(3 7.42787e-17 0)
(3 5.64887e-16 0)
(3 1.05744e-15 0)
(3 1.35547e-15 0)
(3 1.73481e-15 0)
(3 1.89076e-15 0)
(3 4.92305e-16 0)
(3 1.17643e-16 0)
(3 1.4515e-15 0)
(3 1.52759e-15 0)
(3 2.06695e-15 0)
(3 2.61567e-15 0)
(3 2.41981e-15 0)
(3 2.35108e-15 0)
(3 2.35257e-15 0)
(3 2.33843e-15 0)
(3 3.01069e-15 0)
(3 2.33882e-15 0)
(3 1.61625e-15 0)
(3 -4.89505e-16 0)
(3 -1.33417e-15 0)
(3 -7.16135e-16 0)
(3 -6.34473e-16 0)
(3 -1.31766e-15 0)
(3 -2.77872e-15 0)
(3 -8.01221e-16 0)
(3 -8.28574e-17 0)
(3 2.11559e-16 0)
(3 6.02264e-16 0)
(3 7.03107e-16 0)
(3 1.83674e-15 0)
(3 2.91968e-15 0)
(3 1.64925e-15 0)
(3 9.28097e-17 0)
(3 -1.09308e-15 0)
(3 -2.01709e-15 0)
(3 -3.1106e-15 0)
(3 -3.34932e-15 0)
(3 -3.502e-15 0)
(3 -2.81976e-15 0)
(3 2.04306e-16 0)
(3 1.79014e-15 0)
(3 3.07855e-15 0)
(3 1.66497e-15 0)
(3 4.95873e-16 0)
(3 3.92308e-16 0)
(3 7.7616e-16 0)
(3 1.45437e-15 0)
(3 1.64334e-15 0)
(3 2.53867e-15 0)
(3 3.62884e-15 0)
(3 2.49335e-15 0)
(3 9.18408e-16 0)
(3 9.55176e-16 0)
(3 2.586e-15 0)
(3 -3.20878e-17 0)
(3 -2.28626e-16 0)
(3 -1.23855e-16 0)
(3 2.28656e-16 0)
(3 -1.54815e-16 0)
(3 -4.05789e-16 0)
(3 3.21992e-17 0)
(3 6.67604e-16 0)
(3 1.31712e-15 0)
(3 1.46859e-15 0)
(3 1.43603e-15 0)
(3 1.01294e-15 0)
(3 8.91953e-16 0)
(3 7.06084e-16 0)
(3 5.59145e-16 0)
(3 1.11795e-15 0)
(3 1.36416e-15 0)
(3 1.1567e-15 0)
(3 1.16317e-15 0)
(3 2.16938e-16 0)
(3 -3.48266e-16 0)
(3 -9.32135e-16 0)
(3 -1.90092e-15 0)
(3 -3.0686e-15 0)
(3 -2.18095e-15 0)
(3 -9.15468e-16 0)
(3 3.01145e-16 0)
(3 4.33025e-16 0)
(3 4.74038e-16 0)
(3 6.32011e-16 0)
(3 1.73065e-15 0)
(3 1.07972e-15 0)
(3 1.63898e-15 0)
(3 1.91333e-15 0)
(3 2.50614e-15 0)
(3 2.78908e-15 0)
(3 1.99457e-15 0)
(3 1.55364e-15 0)
(3 1.3482e-15 0)
(3 8.11451e-16 0)
(3 6.55577e-16 0)
(3 1.28818e-15 0)
(3 1.79534e-15 0)
(3 2.56968e-15 0)
(3 3.16249e-15 0)
(3 2.41028e-15 0)
(3 2.43006e-15 0)
(3 1.82585e-15 0)
(3 -2.39792e-16 0)
(3 -1.52079e-16 0)
(3 9.00451e-17 0)
(3 -5.01713e-17 0)
(3 -3.85391e-16 0)
(3 3.47968e-16 0)
(3 1.31806e-15 0)
(3 -6.98637e-16 0)
(3 -2.25986e-15 0)
(3 -2.7961e-15 0)
(3 -2.49964e-15 0)
(3 -1.8985e-15 0)
(3 -1.60777e-15 0)
(3 -8.21747e-16 0)
(3 3.84499e-16 0)
(3 8.01899e-16 0)
(3 2.7976e-16 0)
(3 -1.37068e-15 0)
(3 -1.2911e-15 0)
(3 -4.7724e-16 0)
(3 -3.26887e-16 0)
(3 2.75579e-16 0)
(3 1.03131e-15 0)
(3 1.59606e-15 0)
(3 2.38321e-15 0)
(3 2.74873e-16 0)
(3 4.70803e-16 0)
(3 -6.05101e-16 0)
(3 -2.19332e-15 0)
(3 -2.88243e-15 0)
(3 -2.65513e-15 0)
(3 -2.27219e-15 0)
(3 -1.65447e-15 0)
(3 -1.96931e-16 0)
(3 3.44009e-16 0)
(3 1.07803e-15 0)
(3 4.34638e-16 0)
(3 -1.34604e-15 0)
(3 -1.18182e-15 0)
(3 1.4121e-15 0)
(3 2.16101e-15 0)
(3 2.16628e-15 0)
(3 2.98489e-15 0)
(3 4.02466e-15 0)
(3 3.69665e-15 0)
(3 1.17837e-15 0)
(3 7.2943e-16 0)
(3 1.90606e-15 0)
(3 -1.21734e-17 0)
(3 -7.72094e-17 0)
(3 1.15442e-17 0)
(3 -6.82048e-17 0)
(3 -1.70234e-16 0)
(3 -1.76999e-16 0)
(3 1.43236e-16 0)
(3 7.46828e-18 0)
(3 5.95864e-18 0)
(3 5.75883e-16 0)
(3 5.55947e-16 0)
(3 6.29383e-16 0)
(3 8.078e-16 0)
(3 6.24863e-16 0)
(3 3.93742e-16 0)
(3 3.04495e-16 0)
(3 1.93937e-16 0)
(3 1.98869e-16 0)
(3 -1.35908e-17 0)
(3 -5.57572e-16 0)
(3 -3.01986e-15 0)
(3 -3.02747e-15 0)
(3 -2.08108e-15 0)
(3 -2.2286e-15 0)
(3 -3.0956e-15 0)
(3 -3.13671e-15 0)
(3 -1.37312e-16 0)
(3 4.30355e-16 0)
(3 1.25936e-15 0)
(3 1.55668e-15 0)
(3 2.38742e-15 0)
(3 3.43467e-15 0)
(3 4.09721e-15 0)
(3 4.58844e-15 0)
(3 4.34195e-15 0)
(3 3.47701e-15 0)
(3 2.41246e-15 0)
(3 2.12881e-15 0)
(3 2.1881e-15 0)
(3 2.42346e-15 0)
(3 1.84966e-15 0)
(3 8.35031e-16 0)
(3 1.01257e-15 0)
(3 1.4477e-15 0)
(3 1.70458e-15 0)
(3 -4.32974e-18 0)
(3 -5.4377e-16 0)
(3 -8.46358e-16 0)
(3 -3.25462e-16 0)
(3 -4.97486e-18 0)
(3 -5.54427e-16 0)
(3 -1.39106e-15 0)
(3 -3.34222e-15 0)
(3 -2.79926e-15 0)
(3 -5.11045e-17 0)
(3 1.41331e-15 0)
(3 7.01015e-16 0)
(3 -1.23595e-15 0)
(3 -1.51312e-15 0)
(3 -8.46442e-16 0)
(3 1.39946e-15 0)
(3 2.2034e-15 0)