/*--------------------------------*- C++ -*----------------------------------*\
  =========                 |
  \\      /  F ield         | OpenFOAM: The Open Source CFD Toolbox
   \\    /   O peration     | Website:  https://openfoam.org
    \\  /    A nd           | Version:  7
     \\/     M anipulation  |
\*---------------------------------------------------------------------------*/
FoamFile
{
    version     2.0;
    format      ascii;
    class       volScalarField;
    location    "1.2";
    object      p;
}
// * * * * * * * * * * * * * * * * * * * * * * * * * * * * * * * * * * * * * //

dimensions      [1 -1 -2 0 0 0 0];

internalField   nonuniform List<scalar> 
18432
(
1
1
1
1
1
1
1
1
1
1
1
1
1
1
1
1
1
1
1
1
1
1
1
1
1
1
1
1
1
1
1
1
1
1
1
1
1
1
1
1
1
1
1
1
1
1
1
1
1
1
1
1
1
1
1
1
1
1
1
1
1
1
1
1
1
1
1
1
1
1
1
1
1
1
1
1
1
1
1
1
1
1
1
1
1
1
1
1
1
1
1
1
1
1
1
1
1
1
1
1
1
1
1
1
1
1
1
1
1
1
1
1
1
1
1
1
1
1
1
1
1
1
1
1
1
1
1
1
1
1
1
1
1
1
1
1
1
1
1
1
1
1
1
1
1
1
1
1
1
1
1
1
1
1
1
1
1
1
1
1
1
1
1
1
1
1
1
1
1
1
1
1
1
1
1
1
1
1
1
1
1
1
1
1
1
1
1
1
1
1
1
1
1
1
1
1
1
1
1
1
1
1
1
1
1
1
1
1
1
1
1
1
1
1
1
1
1
1
1
1
1
1
1
1
1
1
1
1
1
1
1
1
1
1
1
1
1
1
1
1
1
1
1
1
1
1
1
1
1
1
1
1
1
1
1
1
1
1
1
1
1
1
1
1
1
1
1
1
1
1
1
1
1
1
1
1
1
1
1
1
1
1
1
1
1
1
1
1
1
1
1
1
1
1
1
1
1
1
1
1
1
1
1
1
1
1
1
1
1
1
1
1
1
1
1
1
1
1
1
1
1
1
1
1
1
1
1
1
1
1
1
1
1
1
1
1
1
1
1
1
1
1
1
1
1
1
1
1
1
1
1
1
1
1
1
1
1
1
1
1
1
1
1
1
1
1
1
1
1
1
1
1
1
1
1
1
1
1
1
1
1
1
1
1
1
1
1
1
1
1
1
1
1
1
1
1
1
1
1
1
1
1
1
1
1
1
1
1
1
1
1
1
1
1
1
1
1
1
1
1
1
1
1
1
1
1
1
1
1
1
1
1
1
1
1
1
1
1
1
1
1
1
1
1
1
1
1
1
1
1
1
1
1
1
1
1
1
1
1
1
1
1
1
1
1
1
1
1
1
1
1
1
1
1
1
1
1
1
1
1
1
1
1
1
1
1
1
1
1
1
1
1
1
1
1
1
1
1
1
1
1
1
1
1
1
1
1
1
1
1
1
1
1
1
1
1
1
1
1
1
1
1
1
1
1
1
1
1
1
1
1
1
1
1
1
1
1
1
1
1
1
1
1
1
1
1
1
1
1
1
1
1
1
1
1
1
1
1
1
1
1
1
1
1
1
1
1
1
1
1
1
1
1
1
1
1
1
1
1
1
1
1
1
1
1
1
1
1
1
1
1
1
1
1
1
1
1
1
1
1
1
1
1
1
1
1
1
1
1
1
1
1
1
1
1
1
1
1
1
1
1
1
1
1
1
1
1
1
1
1
1
1
1
1
1
1
1
1
1
1
1
1
1
1
1
1
1
1
1
1
1
1
1
1
1
1
1
1
1
1
1
1
1
1
1
1
1
1
1
1
1
1
1
1
1
1
1
1
1
1
1
1
1
1
1
1
1
1
1
1
1
1
1
1
1
1
1
1
1
1
1
1
1
1
1
1
1
1
1
1
1
1
1
1
1
1
1
1
1
1
1
1
1
1
1
1
1
1
1
1
1
1
1
1
1
1
1
1
1
1
1
1
1
1
1
1
1
1
1
1
1
1
1
1
1
1
1
1
1
1
1
1
1
1
1
1
1
1
1
1
1
1
1
1
1
1
1
1
1
1
1
1
1
1
1
1
1
1
1
1
1
1
1
1
1
1
1
1
1
1
1
1
1
1
1
1
1
1
1
1
1
1
1
1
1
1
1
1
1
1
1
1
1
1
1
1
1
1
1
1
1
1
1
1
1
1
1
1
1
1
1
1
1
1
1
1
1
1
1
1
1
1
1
1
1
1
1
1
1
1
1
1
1
1
1
1
1
1
1
1
1
1
1
1
1
1
1
1
1
1
1
1
1
1
1
1
1
1
1
1
1
1
1
1
1
1
1
1
1
1
1
1
1
1
1
1
1
1
1
1
1
1
1
1
1
1
1
1
1
1
1
1
1
1
1
1
1
1
1
1
1
1
1
1
1
1
1
1
1
1
1
1
1
1
1
1
1
1
1
1
1
1
1
1
1
1
1
1
1
1
1
1
1
1
1
1
1
1
1
1
1
1
1
1
1
1
1
1
1
1
1
1
1
1
1
1
1
1
1
1
1
1
1
1
1
1
1
1
1
1
1
1
1
1
1
1
1
1
1
1
1
1
1
1
1
1
1
1
1
1
1
1
1
1
1
1
1
1
1
1
1
1
1
1
1
1
1
1
1
1
1
1
1
1
1
1
1
1
1
1
1
1
1
1
1
1
1
1
1
1
1
1
1
1
1
1
1
1
1
1
1
1
1
1
1
1
1
1
1
1
1
1
1
1
1
1
1
1
1
1
1
1
1
1
1
1
1
1
1
1
1
1
1
1
1
1
1
1
1
1
1
1
1
1
1
1
1
1
1
1
1
1
1
1
1
1
1
1
1
1
1
1
1
1
1
1
1
1
1
1
1
1
1
1
1
1
1
1
1
1
1
1
1
1
1
1
1
1
1
1
1
1
1
1
1
1
1
1
1
1
1
1
1
1
1
1
1
1
1
1
1
1
1
1
1
1
1
1
1
1
1
1
1
1
1
1
1
1
1
1
1
1
1
1
1
1
1
1
1
1
1
1
1
1
1
1
1
1
1
1
1
1
1
1
1
1
1
1
1
1
1
1
1
1
1
1
1
1
1
1
1
1
1
1
1
1
1
1
1
1
1
1
1
1
1
1
1
1
1
1
1
1
1
1
1
1
1
1
1
1
1
1
1
1
1
1
1
1
1
1
1
1
1
1
1
1
1
1
1
1
1
1
1
1
1
1
1
1
1
1
1
1
1
1
1
1
1
1
1
1
1
1
1
1
1
1
1
1
1
1
1
1
1
1
1
1
1
1
1
1
1
1
1
1
1
1
1
1
1
1
1
1
1
1
1
1
1
1
1
1
1
1
1
1
1
1
1
1
1
1
1
1
1
1
1
1
1
1
1
1
1
1
1
1
1
1
1
1
1
1
1
1
1
1
1
1
1
1
1
1
1
1
1
1
1
1
1
1
1
1
1
1
1
1
1
1
1
1
1
1
1
1
1
1
1
1
1
1
1
1
1
1
1
1
1
1
1
1
1
1
1
1
1
1
1
1
1
1
1
1
1
1
1
1
1
1
1
1
1
1
1
1
1
1
1
1
1
1
1
1
1
1
1
1
1
1
1
1
1
1
1
1
1
1
1
1
1
1
1
1
1
1
1
1
1
1
1
1
1
1
1
1
1
1
1
1
1
1
1
1
1
1
1
1
1
1
1
1
1
1
1
1
1
1
1
1
1
1
1
1
1
1
1
1
1
1
1
1
1
1
1
1
1
1
1
1
1
1
1
1
1
1
1
1
1
1
1
1
1
1
1
1
1
1
1
1
1
1
1
1
1
1
1
1
1
1
1
1
1
1
1
1
1
1
1
1
1
1
1
1
1
1
1
1
1
1
1
1
1
1
1
1
1
1
1
1
1
1
1
1
1
1
1
1
1
1
1
1
1
1
1
1
1
1
1
1
1
1
1
1
1
1
1
1
1
1
1
1
1
1
1
1
1
1
1
1
1
1
1
1
1
1
1
1
1
1
1
1
1
1
1
1
1
1
1
1
1
1
1
1
1
1
1
1
1
1
1
1
1
1
1
1
1
1
1
1
1
1
1
1
1
1
1
1
1
1
1
1
1
1
1
1
1
1
1
1
1
1
1
1
1
1
1
1
1
1
1
1
1
1
1
1
1
1
1
1
1
1
1
1
1
1
1
1
1
1
1
1
1
1
1
1
1
1
1
1
1
1
1
1
1
1
1
1
1
1
1
1
1
1
1
1
1
1
1
1
1
1
1
1
1
1
1
1
1
1
1
1
1
1
1
1
1
1
1
1
1
1
1
1
1
1
1
1
1
1
1
1
1
1
1
1
1
1
1
1
1
1
1
1
1
1
1
1
1
1
1
1
1
1
1
1
1
1
1
1
1
1
1
1
1
1
1
1
1
1
1
1
1
1
1
1
1
1
1
1
1
1
1
1
1
1
1
1
1
1
1
1
1
1
1
1
1
1
1
1
1
1
1
1
1
1
1
1
1
1
1
1
1
1
1
1
1
1
1
1
1
1
1
1
1
1
1
1
1
1
1
1
1
1
1
1
1
1
1
1
1
1
1
1
1
1
1
1
1
1
1
1
1
1
1
1
1
1
1
1
1
1
1
1
1
1
1
1
1
1
1
1
1
1
1
1
1
1
1
1
1
1
1
1
1
1
1
1
1
1
1
1
1
1
1
1
1
1
1
1
1
1
1
1
1
1
1
1
1
1
1
1
1
1
1
1
1
1
1
1
1
1
1
1
1
1
1
1
1
1
1
1
1
1
1
1
1
1
1
1
1
1
1
1
1
1
1
1
1
1
1
1
1
1
1
1
1
1
1
1
1
1
1
1
1
1
1
1
1
1
1
1
1
1
1
1
1
1
1
1
1
1
1
1
1
1
1
1
1
1
1
1
1
1
1
1
1
1
1
1
1
1
1
1
1
1
1
1
1
1
1
1
1
1
1
1
1
1
1
1
1
1
1
1
1
1
1
1
1
1
1
1
1
1
1
1
1
1
1
1
1
1
1
1
1
1
1
1
1
1
1
1
1
1
1
1
1
1
1
1
1
1
1
1
1
1
1
1
1
1
1
1
1
1
1
1
1
1
1
1
1
1
1
1
1
1
1
1
1
1
1
1
1
1
1
1
1
1
1
1
1
1
1
1
1
1
1
1
1
1
1
1
1
1
1
1
1
1
1
1
1
1
1
1
1
1
1
1
1
1
1
1
1
1
1
1
1
1
1
1
1
1
1
1
1
1
1
1
1
1
1
1
1
1
1
1
1
1
1
1
1
1
1
1
1
1
1
1
1
1
1
1
1
1
1
1
1
1
1
1
1
1
1
1
1
1
1
1
1
1
1
1
1
1
1
1
1
1
1
1
1
1
1
1
1
1
1
1
1
1
1
1
1
1
1
1
1
1
1
1
1
1
1
1
1
1
1
1
1
1
1
1
1
1
1
1
1
1
1
1
1
1
1
1
1
1
1
1
1
1
1
1
1
1
1
1
1
1
1
1
1
1
1
1
1
1
1
1
1
1
1
1
1
1
1
1
1
1
1
1
1
1
1
1
1
1
1
1
1
1
1
1
1
1
1
1
1
1
1
1
1
1
1
1
1
1
1
1
1
1
1
1
1
1
1
1
1
1
1
1
1
1
1
1
1
1
1
1
1
1
1
1
1
1
1
1
1
1
1
1
1
1
1
1
1
1
1
1
1
1
1
1
1
1
1
1
1
1
1
1
1
1
1
1
1
1
1
1
1
1
1
1
1
1
1
1
1
1
1
1
1
1
1
1
1
1
1
1
1
1
1
1
1
1
1
1
1
1
1
1
1
1
1
1
1
1
1
1
1
1
1
1
1
1
1
1
1
1
1
1
1
1
1
1
1
1
1
1
1
1
1
1
1
1
1
1
1
1
1
1
1
1
1
1
1
1
1
1
1
1
1
1
1
1
1
1
1
1
1
1
1
1
1
1
1
1
1
1
1
1
1
1
1
1
1
1
1
1
1
1
1
1
1
1
1
1
1
1
1
1
1
1
1
1
1
1
1
1
1
1
1
1
1
1
1
1
1
1
1
1
1
1
1
1
1
1
1
1
1
1
1
1
1
1
1
1
1
1
1
1
1
1
1
1
1
1
1
1
1
1
1
1
1
1
1
1
1
1
1
1
1
1
1
1
1
1
1
1
1
1
1
1
1
1
1
1
1
1
1
1
1
1
1
1
1
1
1
1
1
1
1
1
1
1
1
1
1
1
1
1
1
1
1
1
1
1
1
1
1
1
1
1
1
1
1
1
1
1
1
1
1
1
1
1
1
1
1
1
1
1
1
1
1
1
1
1
1
1
1
1
1
1
1
1
1
1
1
1
1
1
1
1
1
1
1
1
1
1
1
1
1
1
1
1
1
1
1
1
1
1
1
1
1
1
1
1
1
1
1
1
1
1
1
1
1
1
1
1
1
1
1
1
1
1
1
1
1
1
1
1
1
1
1
1
1
1
1
1
1
1
1
1
1
1
1
1
1
1
1
1
1
1
1
1
1
1
1
1
1
1
1
1
1
1
1
1
1
1
1
1
1
1
1
1
1
1
1
1
1
1
1
1
1
1
1
1
1
1
1
1
1
1
1
1
1
1
1
1
1
1
1
1
1
1
1
1
1
1
1
1
1
1
1
1
1
1
1
1
1
1
1
1
1
1
1
1
1
1
1
1
1
1
1
1
1
1
1
1
1
1
1
1
1
1
1
1
1
1
1
1
1
1
1
1
1
1
1
1
1
1
1
1
1
1
1
1
1
1
1
1
1
1
1
1
1
1
1
1
1
1
1
1
1
1
1
1
1
1
1
1
1
1
1
1
1
1
1
1
1
1
1
1
1
1
1
1
1
1
1
1
1
1
1
1
1
1
1
1
1
1
1
1
1
1
1
1
1
1
1
1
1
1
1
1
1
1
1
1
1
1
1
1
1
1
1
1
1
1
1
1
1
1
1
1
1
1
1
1
1
1
1
1
1
1
1
1
1
1
1
1
1
1
1
1
1
1
1
1
1
1
1
1
1
1
1
1
1
1
1
1
1
1
1
1
1
1
1
1
1
1
1
1
1
1
1
1
1
1
1
1
1
1
1
1
1
1
1
1
1
1
1
1
1
1
1
1
1
1
1
1
1
1
1
1
1
1
1
1
1
1
1
1
1
1
1
1
1
1
1
1
1
1
1
1
1
1
1.28933
1.75904
2.3185
2.8767
3.58097
4.16795
4.65305
5.11847
5.34657
5.25683
4.92211
4.46911
4.08525
3.7966
3.66363
3.57688
3.55587
3.57133
3.60737
3.64786
3.68621
3.70634
3.71736
3.72716
3.73878
3.75089
3.76047
3.76601
3.77047
3.7785
3.79098
3.79911
3.7997
3.79717
3.79066
3.78086
3.77242
3.76805
3.76588
3.76547
3.76531
3.76695
3.76937
3.76968
3.76942
3.76833
3.7664
3.76686
1.0021
1.01402
1.07512
1.20421
1.40826
1.76964
2.21518
2.75398
3.31652
3.7372
3.88728
4.05766
4.05588
3.96225
3.83972
3.78431
3.74622
3.70005
3.67255
3.66811
3.6794
3.70438
3.72859
3.74054
3.74365
3.74651
3.75252
3.75552
3.75709
3.761
3.76775
3.77496
3.77971
3.78109
3.77956
3.77572
3.7715
3.76998
3.77062
3.77267
3.77578
3.77876
3.77929
3.77858
3.77658
3.77173
3.76676
3.76767
1
0.999977
1.00007
1.00008
1.00129
1.01342
1.06142
1.22176
1.60215
2.35467
3.30928
3.92268
4.31657
4.32444
4.25067
4.11113
3.97353
3.79462
3.67946
3.67589
3.68677
3.71107
3.74153
3.75342
3.75672
3.754
3.75283
3.75628
3.75829
3.76121
3.76483
3.76867
3.76901
3.76743
3.76429
3.76141
3.7606
3.7618
3.76474
3.76998
3.77795
3.78494
3.78696
3.78639
3.78432
3.7791
3.77263
3.77326
1
1
1
1
0.999998
1
1
1.00008
1.00557
1.06931
1.43859
2.11824
3.229
3.75946
4.03932
4.02201
3.93133
3.90118
3.84817
3.77726
3.76345
3.73016
3.71809
3.71897
3.72733
3.73391
3.74536
3.75932
3.76774
3.7731
3.77748
3.77746
3.77663
3.77377
3.77053
3.76879
3.76682
3.7663
3.76836
3.77273
3.77869
3.7827
3.78303
3.78091
3.7769
3.77098
3.76892
3.77071
1
1
1
1
1
1
1
0.999999
1
0.99992
1.00241
1.03979
1.30017
1.98081
2.84961
3.74699
3.91398
4.00689
3.98239
3.92874
3.81298
3.7229
3.67829
3.66602
3.67399
3.68325
3.69908
3.72234
3.74501
3.76377
3.77779
3.78138
3.78205
3.77996
3.77843
3.77832
3.77737
3.77659
3.77796
3.78129
3.78436
3.78461
3.78254
3.77887
3.77243
3.76637
3.76466
3.76598
1
1
1
1
1
1
1
1
1
0.999997
0.999997
0.999953
1.00078
1.03195
1.20271
1.83745
2.67837
3.49534
3.89787
3.87648
3.85899
3.81322
3.7576
3.72368
3.69411
3.68472
3.68587
3.69898
3.71982
3.74057
3.75806
3.77104
3.77344
3.77363
3.77296
3.77211
3.76994
3.76877
3.77075
3.77405
3.77463
3.77279
3.7703
3.76738
3.76408
3.76234
3.76079
3.76575
1
1
1
1
1
1
1
1
1
1
1
0.999998
0.999998
0.999969
1.00039
1.021
1.19222
1.66412
2.53923
3.21392
3.76805
3.87805
3.87008
3.8222
3.7822
3.75012
3.72097
3.71142
3.71425
3.72516
3.73704
3.75325
3.76214
3.76634
3.76448
3.76234
3.76163
3.76188
3.76735
3.77219
3.77276
3.77196
3.77094
3.7703
3.77004
3.76984
3.76883
3.77345
1
1
1
1
1
1
1
1
1
1
1
1
1
0.999998
0.999998
0.999972
1.00054
1.01173
1.15685
1.57943
2.43178
3.11119
3.51816
3.75717
3.79297
3.79348
3.7644
3.74485
3.74308
3.74366
3.74514
3.74536
3.74999
3.75635
3.76065
3.76304
3.76481
3.76866
3.77527
3.77925
3.77945
3.77845
3.7758
3.7748
3.77411
3.77377
3.7735
3.77527
1
1
1
1
1
1
1
1
1
1
1
1
1
1
1
0.999998
0.999998
0.99998
1.00048
1.01112
1.1185
1.57619
2.26242
3.12939
3.44453
3.59598
3.67992
3.74443
3.74861
3.72966
3.72465
3.72948
3.73614
3.74702
3.75793
3.76655
3.77367
3.77986
3.78485
3.78547
3.78424
3.78291
3.77998
3.77544
3.77264
3.77195
3.77196
3.77297
1
1
1
1
1
1
1
1
1
1
1
1
1
1
1
1
1
0.999998
0.999998
0.999985
1.0003
1.01403
1.10078
1.51209
2.22042
3.01944
3.53183
3.60617
3.68493
3.68764
3.69065
3.70344
3.71037
3.71903
3.7327
3.7476
3.7624
3.77348
3.77763
3.77914
3.77852
3.77871
3.77854
3.77644
3.77388
3.77315
3.77404
3.7745
1
1
1
1
1
1
1
1
1
1
1
1
1
1
1
1
1
1
1
0.999999
0.999999
0.999988
1.00027
1.01126
1.11162
1.45923
2.2243
2.94967
3.50812
3.68857
3.70994
3.72211
3.7252
3.7213
3.72852
3.73707
3.74745
3.761
3.76837
3.77056
3.76903
3.76884
3.7694
3.76781
3.76633
3.76649
3.76889
3.77038
1
1
1
1
1
1
1
1
1
1
1
1
1
1
1
1
1
1
1
1
1
0.999998
0.999999
0.999988
1.00045
1.00903
1.12788
1.48858
2.25545
2.95201
3.46234
3.69381
3.7487
3.75035
3.7685
3.76954
3.76809
3.77452
3.78134
3.78261
3.7801
3.77666
3.77223
3.76811
3.76763
3.76864
3.7696
3.77085
1
1
1
1
1
1
1
1
1
1
1
1
1
1
1
1
1
1
1
1
1
1
1
0.999998
0.999999
0.999989
1.00085
1.01187
1.12946
1.57035
2.34193
3.06355
3.41658
3.62517
3.73333
3.74882
3.75318
3.76765
3.77482
3.7782
3.77822
3.77541
3.77441
3.77578
3.77766
3.77969
3.77984
3.77881
1
1
1
1
1
1
1
1
1
1
1
1
1
1
1
1
1
1
1
1
1
1
1
1
1
0.999998
0.999999
0.999993
1.00101
1.02061
1.14956
1.67103
2.45311
3.29671
3.52438
3.61494
3.66612
3.71596
3.73389
3.73981
3.74332
3.75115
3.76601
3.77643
3.77935
3.77959
3.78006
3.77852
1
1
1
1
1
1
1
1
1
1
1
1
1
1
1
1
1
1
1
1
1
1
1
1
1
1
1
0.999999
0.999998
1.00001
1.00139
1.03594
1.21379
1.84417
2.67078
3.37616
3.68815
3.71162
3.72737
3.72655
3.72729
3.73939
3.75497
3.76546
3.77071
3.77391
3.77697
3.77632
1
1
1
1
1
1
1
1
1
1
1
1
1
1
1
1
1
1
1
1
1
1
1
1
1
1
1
1
1
1
0.999997
1.0001
1.00305
1.06195
1.34408
2.09052
2.92631
3.48942
3.73501
3.76265
3.77173
3.78877
3.79076
3.79022
3.78676
3.78423
3.78121
3.77866
1
1
1
1
1
1
1
1
1
1
1
1
1
1
1
1
1
1
1
1
1
1
1
1
1
1
1
1
1
1
1
1
0.999996
1.0004
1.00823
1.11919
1.57506
2.4599
3.16046
3.50564
3.7096
3.7732
3.77178
3.78324
3.79039
3.7915
3.78779
3.78291
1
1
1
1
1
1
1
1
1
1
1
1
1
1
1
1
1
1
1
1
1
1
1
1
1
1
1
1
1
1
1
1
0.999999
0.999999
1
1.00156
1.02603
1.23485
1.9001
2.90553
3.48579
3.59358
3.656
3.71911
3.75351
3.76601
3.76734
3.76598
1
1
1
1
1
1
1
1
1
1
1
1
1
1
1
1
1
1
1
1
1
1
1
1
1
1
1
1
1
1
1
1
1
1
1
0.999998
1.00007
1.00598
1.08392
1.50345
2.38664
3.24598
3.69594
3.74101
3.75762
3.75985
3.75329
3.75212
1
1
1
1
1
1
1
1
1
1
1
1
1
1
1
1
1
1
1
1
1
1
1
1
1
1
1
1
1
1
1
1
1
1
1
1
1
1.00001
1.00085
1.0254
1.24328
1.94548
2.90413
3.50692
3.77061
3.79971
3.79525
3.78725
1
1
1
1
1
1
1
1
1
1
1
1
1
1
1
1
1
1
1
1
1
1
1
1
1
1
1
1
1
1
1
1
1
1
1
1
1
1
0.999999
1.00015
1.00606
1.10227
1.61091
2.62224
3.31675
3.56166
3.73454
3.76717
1
1
1
1
1
1
1
1
1
1
1
1
1
1
1
1
1
1
1
1
1
1
1
1
1
1
1
1
1
1
1
1
1
1
1
1
1
1
1
0.999999
1.00001
1.00191
1.03916
1.35439
2.18904
3.23982
3.62104
3.6888
1
1
1
1
1
1
1
1
1
1
1
1
1
1
1
1
1
1
1
1
1
1
1
1
1
1
1
1
1
1
1
1
1
1
1
1
1
1
1
1
1
1
1.00031
1.01726
1.17965
1.9273
2.94005
3.62174
1
1
1
1
1
1
1
1
1
1
1
1
1
1
1
1
1
1
1
1
1
1
1
1
1
1
1
1
1
1
1
1
1
1
1
1
1
1
1
1
1
1
1
1.00012
1.00473
1.11869
1.66444
2.8122
1
1
1
1
1
1
1
1
1
1
1
1
1
1
1
1
1
1
1
1
1
1
1
1
1
1
1
1
1
1
1
1
1
1
1
1
1
1
1
1
1
1
1
1
1.00002
1.00312
1.05754
1.45886
1
1
1
1
1
1
1
1
1
1
1
1
1
1
1
1
1
1
1
1
1
1
1
1
1
1
1
1
1
1
1
1
1
1
1
1
1
1
1
1
1
1
1
1
1
1.00001
1.00098
1.01973
1
1
1
1
1
1
1
1
1
1
1
1
1
1
1
1
1
1
1
1
1
1
1
1
1
1
1
1
1
1
1
1
1
1
1
1
1
1
1
1
1
1
1
1
1
1
1.00001
0.999808
1
1
1
1
1
1
1
1
1
1
1
1
1
1
1
1
1
1
1
1
1
1
1
1
1
1
1
1
1
1
1
1
1
1
1
1
1
1
1
1
1
1
1
1
1
1
1
0.999934
1
1
1
1
1
1
1
1
1
1
1
1
1
1
1
1
1
1
1
1
1
1
1
1
1
1
1
1
1
1
1
1
1
1
1
1
1
1
1
1
1
1
1
1
1
1
1
0.999991
1
1
1
1
1
1
1
1
1
1
1
1
1
1
1
1
1
1
1
1
1
1
1
1
1
1
1
1
1
1
1
1
1
1
1
1
1
1
1
1
1
1
1
1
1
1
1
1
1
1
1
1
1
1
1
1
1
1
1
1
1
1
1
1
1
1
1
1
1
1
1
1
1
1
1
1
1
1
1
1
1
1
1
1
1
1
1
1
1
1
1
1
1
1
1
1
1
1
1
1
1
1
1
1
1
1
1
1
1
1
1
1
1
1
1
1
1
1
1
1
1
1
1
1
1
1
1
1
1
1
1
1
1
1
1
1
1
1
1
1
1
1
1
1
1
1
1
1
1
1
1
1
1
1
1
1
1
1
1
1
1
1
1
1
1
1
1
1
1
1
1
1
1
1
1
1
1
1
1
1
1
1
1
1
1
1
1
1
1
1
1
1
1
1
1
1
1
1
1
1
1
1
1
1
1
1
1
1
1
1
1
1
1
1
1
1
1
1
1
1
1
1
1
1
1
1
1
1
1
1
1
1
1
1
1
1
1
1
1
1
1
1
1
1
1
1
1
1
1
1
1
1
1
1
1
1
1
1
1
1
1
1
1
1
1
1
1
1
1
1
1
1
1
1
1
1
1
1
1
1
1
1
1
1
1
1
1
1
1
1
1
1
1
1
1
1
1
1
1
1
1
1
1
1
1
1
1
1
1
1
1
1
1
1
1
1
1
1
1
1
1
1
1
1
1
1
1
1
1
1
1
1
1
1
1
0.999991
1
1
1
1
1
1
1
1
1
1
1
1
1
1
1
1
1
1
1
1
1
1
1
1
1
1
1
1
1
1
1
1
1
1
1
1
1
1
1
1
1
1
1
1
1
1
1
0.999934
1
1
1
1
1
1
1
1
1
1
1
1
1
1
1
1
1
1
1
1
1
1
1
1
1
1
1
1
1
1
1
1
1
1
1
1
1
1
1
1
1
1
1
1
1
1
1.00001
0.999808
1
1
1
1
1
1
1
1
1
1
1
1
1
1
1
1
1
1
1
1
1
1
1
1
1
1
1
1
1
1
1
1
1
1
1
1
1
1
1
1
1
1
1
1
1
1.00001
1.00098
1.01973
1
1
1
1
1
1
1
1
1
1
1
1
1
1
1
1
1
1
1
1
1
1
1
1
1
1
1
1
1
1
1
1
1
1
1
1
1
1
1
1
1
1
1
1
1.00002
1.00312
1.05754
1.45881
1
1
1
1
1
1
1
1
1
1
1
1
1
1
1
1
1
1
1
1
1
1
1
1
1
1
1
1
1
1
1
1
1
1
1
1
1
1
1
1
1
1
1
1.00012
1.00473
1.11869
1.66444
2.81214
1
1
1
1
1
1
1
1
1
1
1
1
1
1
1
1
1
1
1
1
1
1
1
1
1
1
1
1
1
1
1
1
1
1
1
1
1
1
1
1
1
1
1.00031
1.01726
1.17965
1.92734
2.94003
3.62173
1
1
1
1
1
1
1
1
1
1
1
1
1
1
1
1
1
1
1
1
1
1
1
1
1
1
1
1
1
1
1
1
1
1
1
1
1
1
1
0.999999
1.00001
1.00191
1.03916
1.35438
2.18906
3.23986
3.62099
3.68878
1
1
1
1
1
1
1
1
1
1
1
1
1
1
1
1
1
1
1
1
1
1
1
1
1
1
1
1
1
1
1
1
1
1
1
1
1
1
0.999999
1.00015
1.00606
1.10228
1.61091
2.62221
3.31681
3.56164
3.73449
3.76716
1
1
1
1
1
1
1
1
1
1
1
1
1
1
1
1
1
1
1
1
1
1
1
1
1
1
1
1
1
1
1
1
1
1
1
1
1
1.00001
1.00085
1.0254
1.24328
1.94549
2.9041
3.50693
3.77063
3.7997
3.79523
3.78724
1
1
1
1
1
1
1
1
1
1
1
1
1
1
1
1
1
1
1
1
1
1
1
1
1
1
1
1
1
1
1
1
1
1
1
0.999998
1.00007
1.00598
1.08392
1.50344
2.38664
3.24599
3.69594
3.74101
3.75762
3.75985
3.75328
3.75212
1
1
1
1
1
1
1
1
1
1
1
1
1
1
1
1
1
1
1
1
1
1
1
1
1
1
1
1
1
1
1
1
0.999999
0.999999
1
1.00156
1.02603
1.23485
1.90011
2.90552
3.48581
3.59358
3.656
3.7191
3.75352
3.76601
3.76733
3.76598
1
1
1
1
1
1
1
1
1
1
1
1
1
1
1
1
1
1
1
1
1
1
1
1
1
1
1
1
1
1
1
1
0.999996
1.0004
1.00823
1.11919
1.57505
2.4599
3.16046
3.50564
3.70961
3.7732
3.77178
3.78324
3.79038
3.79149
3.78779
3.78291
1
1
1
1
1
1
1
1
1
1
1
1
1
1
1
1
1
1
1
1
1
1
1
1
1
1
1
1
1
1
0.999997
1.0001
1.00305
1.06195
1.34408
2.09052
2.92631
3.48942
3.73501
3.76265
3.77173
3.78877
3.79076
3.79022
3.78676
3.78422
3.78121
3.77866
1
1
1
1
1
1
1
1
1
1
1
1
1
1
1
1
1
1
1
1
1
1
1
1
1
1
1
0.999999
0.999998
1.00001
1.00139
1.03594
1.21379
1.84417
2.67078
3.37615
3.68815
3.71162
3.72737
3.72655
3.72729
3.73939
3.75497
3.76546
3.77071
3.77391
3.77697
3.77632
1
1
1
1
1
1
1
1
1
1
1
1
1
1
1
1
1
1
1
1
1
1
1
1
1
0.999998
0.999999
0.999993
1.00101
1.02061
1.14956
1.67103
2.45311
3.29671
3.52438
3.61494
3.66612
3.71596
3.7339
3.73981
3.74332
3.75115
3.76601
3.77643
3.77935
3.77959
3.78006
3.77852
1
1
1
1
1
1
1
1
1
1
1
1
1
1
1
1
1
1
1
1
1
1
1
0.999998
0.999999
0.999989
1.00085
1.01187
1.12946
1.57035
2.34193
3.06355
3.41658
3.62517
3.73333
3.74882
3.75318
3.76765
3.77482
3.7782
3.77822
3.77541
3.7744
3.77578
3.77766
3.77969
3.77984
3.77881
1
1
1
1
1
1
1
1
1
1
1
1
1
1
1
1
1
1
1
1
1
0.999998
0.999999
0.999988
1.00045
1.00903
1.12788
1.48858
2.25545
2.95201
3.46233
3.69381
3.7487
3.75035
3.7685
3.76954
3.76809
3.77452
3.78134
3.78261
3.7801
3.77666
3.77223
3.76811
3.76763
3.76864
3.7696
3.77085
1
1
1
1
1
1
1
1
1
1
1
1
1
1
1
1
1
1
1
0.999999
0.999999
0.999988
1.00027
1.01126
1.11162
1.45923
2.2243
2.94967
3.50812
3.68857
3.70994
3.72211
3.7252
3.7213
3.72852
3.73707
3.74745
3.761
3.76837
3.77056
3.76903
3.76884
3.7694
3.76781
3.76633
3.76649
3.76889
3.77038
1
1
1
1
1
1
1
1
1
1
1
1
1
1
1
1
1
0.999998
0.999998
0.999985
1.0003
1.01403
1.10078
1.51209
2.22043
3.01944
3.53183
3.60617
3.68494
3.68764
3.69064
3.70344
3.71037
3.71903
3.7327
3.7476
3.7624
3.77348
3.77763
3.77914
3.77852
3.77871
3.77854
3.77644
3.77388
3.77315
3.77404
3.7745
1
1
1
1
1
1
1
1
1
1
1
1
1
1
1
0.999998
0.999998
0.99998
1.00048
1.01112
1.1185
1.57619
2.26242
3.12939
3.44453
3.59598
3.67992
3.74443
3.74861
3.72966
3.72464
3.72948
3.73614
3.74702
3.75793
3.76655
3.77367
3.77986
3.78485
3.78547
3.78424
3.78291
3.77998
3.77544
3.77264
3.77195
3.77196
3.77297
1
1
1
1
1
1
1
1
1
1
1
1
1
0.999998
0.999998
0.999972
1.00054
1.01173
1.15685
1.57943
2.43177
3.11119
3.51815
3.75717
3.79297
3.79348
3.7644
3.74485
3.74308
3.74366
3.74514
3.74536
3.74999
3.75635
3.76065
3.76304
3.76481
3.76866
3.77527
3.77925
3.77945
3.77845
3.7758
3.7748
3.77411
3.77377
3.7735
3.77527
1
1
1
1
1
1
1
1
1
1
1
0.999998
0.999998
0.999969
1.00039
1.021
1.19222
1.66412
2.53923
3.21392
3.76805
3.87805
3.87008
3.8222
3.7822
3.75012
3.72097
3.71142
3.71425
3.72516
3.73704
3.75325
3.76214
3.76634
3.76448
3.76234
3.76163
3.76188
3.76735
3.77219
3.77276
3.77196
3.77094
3.7703
3.77004
3.76984
3.76883
3.77345
1
1
1
1
1
1
1
1
1
0.999997
0.999997
0.999953
1.00078
1.03195
1.20271
1.83744
2.67837
3.49533
3.89787
3.87649
3.85899
3.81322
3.7576
3.72368
3.69411
3.68472
3.68587
3.69898
3.71982
3.74057
3.75806
3.77104
3.77344
3.77363
3.77296
3.77211
3.76994
3.76877
3.77075
3.77405
3.77463
3.77279
3.7703
3.76738
3.76407
3.76234
3.76079
3.76575
1
1
1
1
1
1
1
0.999999
1
0.99992
1.00241
1.03979
1.30017
1.98081
2.8496
3.74699
3.91398
4.00689
3.98239
3.92874
3.81298
3.7229
3.6783
3.66602
3.67399
3.68325
3.69908
3.72234
3.74501
3.76377
3.77779
3.78138
3.78205
3.77996
3.77843
3.77832
3.77737
3.77659
3.77796
3.78129
3.78436
3.78461
3.78254
3.77887
3.77243
3.76637
3.76466
3.76598
1
1
1
1
0.999998
1
1
1.00008
1.00557
1.06931
1.43859
2.11824
3.229
3.75946
4.03932
4.02201
3.93132
3.90118
3.84817
3.77726
3.76345
3.73016
3.71809
3.71897
3.72733
3.73391
3.74536
3.75932
3.76774
3.7731
3.77748
3.77746
3.77663
3.77377
3.77053
3.76879
3.76682
3.7663
3.76836
3.77273
3.77869
3.7827
3.78303
3.78091
3.7769
3.77098
3.76892
3.77071
1
0.999977
1.00007
1.00008
1.00129
1.01342
1.06142
1.22176
1.60215
2.35467
3.30928
3.92268
4.31657
4.32444
4.25067
4.11113
3.97352
3.79462
3.67946
3.67589
3.68677
3.71107
3.74153
3.75342
3.75672
3.754
3.75283
3.75628
3.75829
3.76121
3.76483
3.76867
3.76901
3.76743
3.76429
3.76141
3.7606
3.7618
3.76474
3.76998
3.77795
3.78494
3.78696
3.78639
3.78432
3.7791
3.77263
3.77326
1.0021
1.01402
1.07512
1.20421
1.40826
1.76964
2.21518
2.75398
3.31652
3.7372
3.88728
4.05765
4.05588
3.96225
3.83972
3.78431
3.74622
3.70005
3.67255
3.66811
3.6794
3.70438
3.72859
3.74054
3.74365
3.74651
3.75252
3.75552
3.75709
3.761
3.76775
3.77496
3.77971
3.78109
3.77956
3.77572
3.7715
3.76998
3.77062
3.77267
3.77578
3.77876
3.77929
3.77858
3.77658
3.77173
3.76676
3.76767
1.28933
1.75904
2.3185
2.8767
3.58097
4.16795
4.65305
5.11847
5.34657
5.25683
4.92211
4.46911
4.08525
3.7966
3.66363
3.57688
3.55587
3.57134
3.60737
3.64786
3.68621
3.70634
3.71736
3.72716
3.73878
3.75089
3.76047
3.76601
3.77047
3.7785
3.79098
3.79911
3.7997
3.79717
3.79066
3.78086
3.77242
3.76805
3.76588
3.76547
3.76531
3.76695
3.76937
3.76968
3.76942
3.76833
3.7664
3.76686
2.65507
1.73612
1.06051
0.790295
0.760862
0.6984
0.677069
0.715994
0.79996
0.852244
0.876032
0.928763
1.0019
1.02943
1.03021
1.04105
1.06532
1.06712
1.06547
1.06805
1.06783
1.06477
1.06225
1.06377
1.06594
1.06004
1.04323
1.03774
1.03891
1.04109
1.04309
1.04387
1.04387
1.04405
1.04331
1.04039
1.03991
1.04098
1.04469
1.04899
1.04974
1.04976
1.04943
1.0486
1.04863
1.0487
1.04862
1.05009
1.05683
1.17796
1.91112
3.40051
5.21204
7.8043
10.0699
9.92663
9.2501
8.26252
7.7831
7.74178
7.63091
7.42793
7.2066
7.0185
6.85418
6.71648
6.59645
6.47596
6.35704
6.22709
6.03316
5.74659
5.53527
5.44871
5.39619
5.38955
5.38639
5.32049
5.23074
5.06392
4.779
4.57861
4.51073
4.46738
4.45449
4.4654
4.4252
4.37224
4.27831
4.08408
3.9226
3.86647
3.82839
3.79116
3.74918
3.69793
3.62245
3.4908
3.37893
3.34267
3.31732
3.29845
3.28268
3.25519
3.21541
3.12214
2.96161
2.86733
2.83957
2.8195
2.80178
2.79345
2.78167
2.76145
2.73726
2.68788
2.58906
2.47846
2.41556
2.37989
2.35202
2.3302
2.31271
2.29559
2.27471
2.24556
2.20949
2.17634
2.14686
2.11439
2.07015
2.01166
1.96546
1.94455
1.93176
1.92034
1.90842
1.89451
1.87537
1.84063
1.77926
1.72883
1.71168
1.70162
1.69224
1.68265
1.67213
1.66033
1.64461
1.61705
1.57008
1.52515
1.50133
1.4866
1.47462
1.46453
1.45539
1.44599
1.43462
1.4171
1.38428
1.33921
1.31459
1.30592
1.2999
1.29399
1.28692
1.27788
1.26143
1.22349
1.18515
1.17584
1.17165
1.16796
1.16592
1.16417
1.16049
1.15693
1.14684
1.13093
1.14196
1.19055
1.30297
1.48053
1.71973
1.98136
2.23292
2.46768
2.6903
2.90049
3.05195
3.17514
3.35503
2.77361
2.22826
1.68758
1.46047
1.30502
1.11098
1.05111
1.01898
0.95553
0.909769
0.909493
0.933217
0.949941
0.960067
0.977316
1.00673
1.01307
1.01737
1.02598
1.04419
1.05338
1.05614
1.05816
1.05827
1.05338
1.04299
1.04154
1.04274
1.04471
1.0475
1.04926
1.04972
1.04989
1.04817
1.04532
1.0444
1.04433
1.04542
1.04661
1.04703
1.04719
1.04704
1.04692
1.04647
1.04535
1.04695
1.06331
1.17817
1.85009
2.8314
3.18676
3.84475
4.81357
6.48132
7.77709
8.48199
8.36355
8.09849
7.89405
7.64219
7.40954
7.2356
7.06877
6.8923
6.71364
6.55243
6.44951
6.35123
6.22882
6.05788
5.83222
5.62735
5.49432
5.41402
5.35669
5.31497
5.26006
5.17595
5.04591
4.84997
4.66196
4.55837
4.50685
4.47106
4.43461
4.3904
4.33076
4.24039
4.10085
3.95887
3.87904
3.82915
3.78766
3.74957
3.70747
3.64534
3.54182
3.41894
3.34869
3.31655
3.28728
3.25801
3.22776
3.18758
3.12102
3.00101
2.89259
2.84589
2.82455
2.80804
2.78911
2.76748
2.74481
2.71823
2.67793
2.60288
2.50937
2.44071
2.40043
2.37504
2.35678
2.33869
2.32036
2.29868
2.26916
2.2326
2.19841
2.16843
2.1369
2.09671
2.04401
1.99762
1.97294
1.95654
1.94119
1.92608
1.9107
1.89163
1.86084
1.8093
1.75804
1.73579
1.7237
1.71233
1.70084
1.68891
1.67603
1.66005
1.635
1.59299
1.54719
1.52135
1.50607
1.49308
1.4811
1.46984
1.45905
1.44655
1.42743
1.39562
1.3565
1.33293
1.32178
1.31285
1.30564
1.29735
1.28664
1.27015
1.23996
1.20594
1.19228
1.18697
1.18393
1.18335
1.18657
1.20006
1.23532
1.2781
1.34251
1.4217
1.52381
1.63125
1.754
1.83734
1.88892
1.97154
2.09704
2.23947
2.3667
2.44768
2.54793
3.66326
3.3288
2.88265
2.37386
1.95937
1.69156
1.4146
1.21245
1.13004
1.04058
0.944308
0.933883
0.942661
0.938169
0.937389
0.945284
0.961093
0.970112
0.977914
0.996666
1.0285
1.0426
1.04431
1.04619
1.04751
1.04522
1.04264
1.04462
1.04754
1.05168
1.05586
1.05626
1.05549
1.05282
1.04776
1.04551
1.04506
1.04478
1.04439
1.04444
1.04507
1.04495
1.04474
1.04472
1.04424
1.04778
1.09421
1.32132
1.92461
3.02571
3.37917
3.30722
3.3446
3.49403
4.07937
5.66527
7.5786
8.52585
8.40569
7.9401
7.49711
7.33771
7.23258
7.07676
6.89528
6.71744
6.54022
6.39876
6.27954
6.13884
5.98832
5.86043
5.73566
5.60216
5.4543
5.33449
5.24934
5.15993
5.05925
4.94751
4.84722
4.76081
4.66523
4.56088
4.4872
4.42676
4.35541
4.26742
4.16671
4.06134
3.97083
3.89554
3.83928
3.7932
3.74506
3.6874
3.61921
3.54109
3.44827
3.35965
3.30992
3.27811
3.24294
3.19679
3.13769
3.07249
3.01001
2.94592
2.88036
2.82726
2.7981
2.77869
2.75937
2.73225
2.68758
2.61895
2.54901
2.50149
2.46698
2.43458
2.39994
2.36064
2.32036
2.28717
2.25954
2.23141
2.20119
2.17319
2.14754
2.11913
2.08155
2.03232
1.98783
1.9605
1.94051
1.92154
1.90176
1.88129
1.86107
1.83575
1.79567
1.75096
1.72259
1.70692
1.69395
1.68108
1.66774
1.65315
1.63651
1.61371
1.57734
1.5345
1.50721
1.49248
1.47876
1.46508
1.45109
1.43722
1.4234
1.40583
1.38077
1.35723
1.33951
1.32038
1.30038
1.28663
1.27911
1.26988
1.25827
1.24142
1.21465
1.20091
1.19993
1.20453
1.22834
1.28803
1.39753
1.53385
1.64947
1.74288
1.8103
1.88992
1.9096
1.89073
1.87576
1.87885
1.90582
1.9476
1.96979
1.97718
1.98925
2.04577
3.74973
3.61762
3.327
2.91582
2.4789
2.1434
1.83531
1.55568
1.42776
1.30817
1.13573
1.09153
1.06311
1.0019
0.964295
0.96594
0.958035
0.941853
0.942627
0.957245
0.984753
0.999622
1.00572
1.01249
1.02426
1.02929
1.03413
1.03988
1.04811
1.05537
1.05727
1.05747
1.05646
1.05418
1.05197
1.0518
1.05266
1.05315
1.05218
1.05047
1.04851
1.04503
1.04292
1.04295
1.04646
1.10336
1.53894
2.25562
3.05477
3.48096
3.49762
3.40884
3.3508
3.33651
3.35676
3.64667
4.84045
7.00277
7.76818
7.65813
7.52206
7.40848
7.27004
7.06463
6.88395
6.74918
6.5989
6.40292
6.22454
6.07627
5.96079
5.87951
5.80066
5.68894
5.52629
5.3353
5.175
5.06172
4.9781
4.91935
4.87906
4.83398
4.75618
4.64155
4.50493
4.38581
4.28635
4.19201
4.12156
4.07182
4.01871
3.94809
3.86238
3.77586
3.71644
3.66853
3.62296
3.56744
3.49165
3.40209
3.32575
3.26715
3.21484
3.15688
3.0951
3.04563
3.0142
2.98229
2.93217
2.86883
2.81067
2.77105
2.73682
2.69649
2.643
2.58207
2.53064
2.5041
2.48522
2.46122
2.42496
2.37814
2.33049
2.28354
2.24456
2.21393
2.18785
2.16434
2.14225
2.11757
2.08211
2.03471
1.99235
1.96327
1.94095
1.92052
1.90029
1.87699
1.84921
1.82258
1.79401
1.7564
1.72433
1.70581
1.69238
1.67906
1.66471
1.64821
1.62799
1.60325
1.57144
1.53376
1.50482
1.49003
1.4785
1.46513
1.45103
1.4349
1.41655
1.39912
1.38518
1.37067
1.3519
1.32774
1.30463
1.28673
1.27875
1.27011
1.2613
1.25408
1.23862
1.24143
1.27769
1.3564
1.48476
1.65432
1.81507
1.91163
1.9892
2.05678
2.05972
2.04162
1.98666
1.94389
1.93362
1.93619
1.93647
1.91925
1.89686
1.88543
1.88095
1.86681
3.76001
3.72864
3.5939
3.31027
2.92287
2.58799
2.23738
1.91998
1.73733
1.58469
1.37028
1.2557
1.18464
1.09642
1.00061
0.989118
0.974291
0.947697
0.947019
0.959111
0.969576
0.968206
0.969955
0.973501
0.984796
1.00082
1.01372
1.02704
1.03913
1.04911
1.05258
1.05308
1.05146
1.04906
1.05024
1.05411
1.05708
1.05732
1.05661
1.05469
1.05054
1.04493
1.04306
1.046
1.09589
1.56957
2.57823
3.16595
3.50386
3.53707
3.47628
3.40938
3.33216
3.28351
3.28124
3.26232
3.35897
4.14114
5.79397
7.11539
7.51646
7.39389
7.17683
6.95524
6.85779
6.76131
6.63091
6.41193
6.17338
6.03397
5.94724
5.86292
5.77153
5.67793
5.55754
5.36037
5.13247
5.02019
4.96065
4.9099
4.86089
4.80191
4.74585
4.67076
4.51591
4.32948
4.22312
4.16146
4.10892
4.05856
4.00898
3.95287
3.87489
3.77285
3.69028
3.63549
3.58566
3.5368
3.48414
3.42165
3.33667
3.2418
3.17255
3.12448
3.08682
3.05311
3.01938
2.98488
2.95226
2.91186
2.85297
2.76844
2.69492
2.63621
2.58917
2.55534
2.5322
2.51362
2.494
2.47427
2.45091
2.40697
2.33405
2.27428
2.23957
2.2119
2.18328
2.15337
2.12384
2.09483
2.06487
2.02989
1.99673
1.97268
1.95083
1.92677
1.89983
1.87544
1.85077
1.81623
1.7789
1.75094
1.72707
1.70869
1.69539
1.6822
1.66622
1.64811
1.62803
1.59747
1.56243
1.53499
1.50886
1.48741
1.47998
1.47382
1.46151
1.44384
1.42004
1.39346
1.3721
1.35893
1.3468
1.33215
1.31246
1.29372
1.287
1.28542
1.2912
1.31783
1.37477
1.46407
1.60782
1.76703
1.88914
1.96867
2.04266
2.11053
2.13528
2.13536
2.10196
2.04911
2.03004
2.0186
1.99413
1.96128
1.92935
1.90244
1.88093
1.87275
1.8656
1.84237
3.76445
3.75114
3.70827
3.56566
3.27734
2.97027
2.64665
2.30284
2.06371
1.86895
1.64999
1.49981
1.39975
1.28914
1.15812
1.12549
1.09258
1.03251
1.00742
1.00745
0.994569
0.970887
0.961012
0.958334
0.960055
0.966122
0.979778
1.00175
1.02296
1.03359
1.04054
1.04376
1.04309
1.04276
1.04579
1.05227
1.05487
1.05565
1.05601
1.05452
1.04883
1.04674
1.05562
1.13829
1.56928
2.7226
3.25723
3.46095
3.57949
3.56293
3.44337
3.34497
3.29935
3.24277
3.20763
3.19601
3.16295
3.18628
3.54474
4.74984
6.37209
6.86852
6.91418
6.91649
6.92107
6.79963
6.61585
6.39407
6.14305
6.00399
5.92172
5.84577
5.76243
5.67082
5.55755
5.3809
5.15512
5.01429
4.94758
4.89056
4.84316
4.79112
4.72918
4.64537
4.50517
4.31073
4.19238
4.14025
4.097
4.06026
4.02704
3.98149
3.89913
3.76041
3.64622
3.59773
3.56326
3.53491
3.5039
3.45013
3.33989
3.20151
3.1362
3.10818
3.08801
3.07835
3.06006
3.03281
3.00054
2.94636
2.84233
2.72264
2.64408
2.6004
2.57138
2.55195
2.53862
2.52603
2.507
2.48275
2.44838
2.39204
2.32141
2.26687
2.23083
2.20309
2.17803
2.15059
2.11753
2.07926
2.04905
2.03452
2.02247
2.00403
1.97948
1.95104
1.92049
1.88493
1.84335
1.80021
1.76537
1.74562
1.73458
1.72478
1.71268
1.6991
1.68295
1.66059
1.62538
1.5857
1.55551
1.53284
1.51224
1.49502
1.47761
1.46041
1.44667
1.43214
1.41349
1.39295
1.37378
1.36128
1.35075
1.34278
1.33462
1.33715
1.35921
1.42775
1.53085
1.66463
1.80258
1.94462
2.02465
2.07155
2.11231
2.14437
2.13805
2.14037
2.13693
2.12682
2.1076
2.09668
2.08679
2.06064
2.01097
1.95784
1.91624
1.89541
1.8893
1.88012
1.86587
1.83601
3.77397
3.76936
3.758
3.69339
3.5298
3.29366
2.98037
2.66388
2.40906
2.17458
1.92551
1.75751
1.62216
1.48932
1.35578
1.28771
1.22658
1.13178
1.07271
1.0532
1.02028
0.982224
0.971512
0.96836
0.963854
0.966187
0.973061
0.986783
0.996318
1.00055
1.00617