/*--------------------------------*- C++ -*----------------------------------*\
  =========                 |
  \\      /  F ield         | OpenFOAM: The Open Source CFD Toolbox
   \\    /   O peration     | Website:  https://openfoam.org
    \\  /    A nd           | Version:  7
     \\/     M anipulation  |
\*---------------------------------------------------------------------------*/
FoamFile
{
    version     2.0;
    format      ascii;
    class       volScalarField;
    location    "1.2";
    object      T;
}
// * * * * * * * * * * * * * * * * * * * * * * * * * * * * * * * * * * * * * //

dimensions      [0 0 0 1 0 0 0];

internalField   nonuniform List<scalar> 
18432
(
1
1
1
1
1
1
1
1
1
1
1
1
1
1
1
1
1
1
1
1
1
1
1
1
1
1
1
1
1
1
1
1
1
1
1
1
1
1
1
1
1
1
1
1
1
1
1
1
1
1
1
1
1
1
1
1
1
1
1
1
1
1
1
1
1
1
1
1
1
1
1
1
1
1
1
1
1
1
1
1
1
1
1
1
1
1
1
1
1
1
1
1
1
1
1
1
1
1
1
1
1
1
1
1
1
1
1
1
1
1
1
1
1
1
1
1
1
1
1
1
1
1
1
1
1
1
1
1
1
1
1
1
1
1
1
1
1
1
1
1
1
1
1
1
1
1
1
1
1
1
1
1
1
1
1
1
1
1
1
1
1
1
1
1
1
1
1
1
1
1
1
1
1
1
1
1
1
1
1
1
1
1
1
1
1
1
1
1
1
1
1
1
1
1
1
1
1
1
1
1
1
1
1
1
1
1
1
1
1
1
1
1
1
1
1
1
1
1
1
1
1
1
1
1
1
1
1
1
1
1
1
1
1
1
1
1
1
1
1
1
1
1
1
1
1
1
1
1
1
1
1
1
1
1
1
1
1
1
1
1
1
1
1
1
1
1
1
1
1
1
1
1
1
1
1
1
1
1
1
1
1
1
1
1
1
1
1
1
1
1
1
1
1
1
1
1
1
1
1
1
1
1
1
1
1
1
1
1
1
1
1
1
1
1
1
1
1
1
1
1
1
1
1
1
1
1
1
1
1
1
1
1
1
1
1
1
1
1
1
1
1
1
1
1
1
1
1
1
1
1
1
1
1
1
1
1
1
1
1
1
1
1
1
1
1
1
1
1
1
1
1
1
1
1
1
1
1
1
1
1
1
1
1
1
1
1
1
1
1
1
1
1
1
1
1
1
1
1
1
1
1
1
1
1
1
1
1
1
1
1
1
1
1
1
1
1
1
1
1
1
1
1
1
1
1
1
1
1
1
1
1
1
1
1
1
1
1
1
1
1
1
1
1
1
1
1
1
1
1
1
1
1
1
1
1
1
1
1
1
1
1
1
1
1
1
1
1
1
1
1
1
1
1
1
1
1
1
1
1
1
1
1
1
1
1
1
1
1
1
1
1
1
1
1
1
1
1
1
1
1
1
1
1
1
1
1
1
1
1
1
1
1
1
1
1
1
1
1
1
1
1
1
1
1
1
1
1
1
1
1
1
1
1
1
1
1
1
1
1
1
1
1
1
1
1
1
1
1
1
1
1
1
1
1
1
1
1
1
1
1
1
1
1
1
1
1
1
1
1
1
1
1
1
1
1
1
1
1
1
1
1
1
1
1
1
1
1
1
1
1
1
1
1
1
1
1
1
1
1
1
1
1
1
1
1
1
1
1
1
1
1
1
1
1
1
1
1
1
1
1
1
1
1
1
1
1
1
1
1
1
1
1
1
1
1
1
1
1
1
1
1
1
1
1
1
1
1
1
1
1
1
1
1
1
1
1
1
1
1
1
1
1
1
1
1
1
1
1
1
1
1
1
1
1
1
1
1
1
1
1
1
1
1
1
1
1
1
1
1
1
1
1
1
1
1
1
1
1
1
1
1
1
1
1
1
1
1
1
1
1
1
1
1
1
1
1
1
1
1
1
1
1
1
1
1
1
1
1
1
1
1
1
1
1
1
1
1
1
1
1
1
1
1
1
1
1
1
1
1
1
1
1
1
1
1
1
1
1
1
1
1
1
1
1
1
1
1
1
1
1
1
1
1
1
1
1
1
1
1
1
1
1
1
1
1
1
1
1
1
1
1
1
1
1
1
1
1
1
1
1
1
1
1
1
1
1
1
1
1
1
1
1
1
1
1
1
1
1
1
1
1
1
1
1
1
1
1
1
1
1
1
1
1
1
1
1
1
1
1
1
1
1
1
1
1
1
1
1
1
1
1
1
1
1
1
1
1
1
1
1
1
1
1
1
1
1
1
1
1
1
1
1
1
1
1
1
1
1
1
1
1
1
1
1
1
1
1
1
1
1
1
1
1
1
1
1
1
1
1
1
1
1
1
1
1
1
1
1
1
1
1
1
1
1
1
1
1
1
1
1
1
1
1
1
1
1
1
1
1
1
1
1
1
1
1
1
1
1
1
1
1
1
1
1
1
1
1
1
1
1
1
1
1
1
1
1
1
1
1
1
1
1
1
1
1
1
1
1
1
1
1
1
1
1
1
1
1
1
1
1
1
1
1
1
1
1
1
1
1
1
1
1
1
1
1
1
1
1
1
1
1
1
1
1
1
1
1
1
1
1
1
1
1
1
1
1
1
1
1
1
1
1
1
1
1
1
1
1
1
1
1
1
1
1
1
1
1
1
1
1
1
1
1
1
1
1
1
1
1
1
1
1
1
1
1
1
1
1
1
1
1
1
1
1
1
1
1
1
1
1
1
1
1
1
1
1
1
1
1
1
1
1
1
1
1
1
1
1
1
1
1
1
1
1
1
1
1
1
1
1
1
1
1
1
1
1
1
1
1
1
1
1
1
1
1
1
1
1
1
1
1
1
1
1
1
1
1
1
1
1
1
1
1
1
1
1
1
1
1
1
1
1
1
1
1
1
1
1
1
1
1
1
1
1
1
1
1
1
1
1
1
1
1
1
1
1
1
1
1
1
1
1
1
1
1
1
1
1
1
1
1
1
1
1
1
1
1
1
1
1
1
1
1
1
1
1
1
1
1
1
1
1
1
1
1
1
1
1
1
1
1
1
1
1
1
1
1
1
1
1
1
1
1
1
1
1
1
1
1
1
1
1
1
1
1
1
1
1
1
1
1
1
1
1
1
1
1
1
1
1
1
1
1
1
1
1
1
1
1
1
1
1
1
1
1
1
1
1
1
1
1
1
1
1
1
1
1
1
1
1
1
1
1
1
1
1
1
1
1
1
1
1
1
1
1
1
1
1
1
1
1
1
1
1
1
1
1
1
1
1
1
1
1
1
1
1
1
1
1
1
1
1
1
1
1
1
1
1
1
1
1
1
1
1
1
1
1
1
1
1
1
1
1
1
1
1
1
1
1
1
1
1
1
1
1
1
1
1
1
1
1
1
1
1
1
1
1
1
1
1
1
1
1
1
1
1
1
1
1
1
1
1
1
1
1
1
1
1
1
1
1
1
1
1
1
1
1
1
1
1
1
1
1
1
1
1
1
1
1
1
1
1
1
1
1
1
1
1
1
1
1
1
1
1
1
1
1
1
1
1
1
1
1
1
1
1
1
1
1
1
1
1
1
1
1
1
1
1
1
1
1
1
1
1
1
1
1
1
1
1
1
1
1
1
1
1
1
1
1
1
1
1
1
1
1
1
1
1
1
1
1
1
1
1
1
1
1
1
1
1
1
1
1
1
1
1
1
1
1
1
1
1
1
1
1
1
1
1
1
1
1
1
1
1
1
1
1
1
1
1
1
1
1
1
1
1
1
1
1
1
1
1
1
1
1
1
1
1
1
1
1
1
1
1
1
1
1
1
1
1
1
1
1
1
1
1
1
1
1
1
1
1
1
1
1
1
1
1
1
1
1
1
1
1
1
1
1
1
1
1
1
1
1
1
1
1
1
1
1
1
1
1
1
1
1
1
1
1
1
1
1
1
1
1
1
1
1
1
1
1
1
1
1
1
1
1
1
1
1
1
1
1
1
1
1
1
1
1
1
1
1
1
1
1
1
1
1
1
1
1
1
1
1
1
1
1
1
1
1
1
1
1
1
1
1
1
1
1
1
1
1
1
1
1
1
1
1
1
1
1
1
1
1
1
1
1
1
1
1
1
1
1
1
1
1
1
1
1
1
1
1
1
1
1
1
1
1
1
1
1
1
1
1
1
1
1
1
1
1
1
1
1
1
1
1
1
1
1
1
1
1
1
1
1
1
1
1
1
1
1
1
1
1
1
1
1
1
1
1
1
1
1
1
1
1
1
1
1
1
1
1
1
1
1
1
1
1
1
1
1
1
1
1
1
1
1
1
1
1
1
1
1
1
1
1
1
1
1
1
1
1
1
1
1
1
1
1
1
1
1
1
1
1
1
1
1
1
1
1
1
1
1
1
1
1
1
1
1
1
1
1
1
1
1
1
1
1
1
1
1
1
1
1
1
1
1
1
1
1
1
1
1
1
1
1
1
1
1
1
1
1
1
1
1
1
1
1
1
1
1
1
1
1
1
1
1
1
1
1
1
1
1
1
1
1
1
1
1
1
1
1
1
1
1
1
1
1
1
1
1
1
1
1
1
1
1
1
1
1
1
1
1
1
1
1
1
1
1
1
1
1
1
1
1
1
1
1
1
1
1
1
1
1
1
1
1
1
1
1
1
1
1
1
1
1
1
1
1
1
1
1
1
1
1
1
1
1
1
1
1
1
1
1
1
1
1
1
1
1
1
1
1
1
1
1
1
1
1
1
1
1
1
1
1
1
1
1
1
1
1
1
1
1
1
1
1
1
1
1
1
1
1
1
1
1
1
1
1
1
1
1
1
1
1
1
1
1
1
1
1
1
1
1
1
1
1
1
1
1
1
1
1
1
1
1
1
1
1
1
1
1
1
1
1
1
1
1
1
1
1
1
1
1
1
1
1
1
1
1
1
1
1
1
1
1
1
1
1
1
1
1
1
1
1
1
1
1
1
1
1
1
1
1
1
1
1
1
1
1
1
1
1
1
1
1
1
1
1
1
1
1
1
1
1
1
1
1
1
1
1
1
1
1
1
1
1
1
1
1
1
1
1
1
1
1
1
1
1
1
1
1
1
1
1
1
1
1
1
1
1
1
1
1
1
1
1
1
1
1
1
1
1
1
1
1
1
1
1
1
1
1
1
1
1
1
1
1
1
1
1
1
1
1
1
1
1
1
1
1
1
1
1
1
1
1
1
1
1
1
1
1
1
1
1
1
1
1
1
1
1
1
1
1
1
1
1
1
1
1
1
1
1
1
1
1
1
1
1
1
1
1
1
1
1
1
1
1
1
1
1
1
1
1
1
1
1
1
1
1
1
1
1
1
1
1
1
1
1
1
1
1
1
1
1
1
1
1
1
1
1
1
1
1
1
1
1
1
1
1
1
1
1
1
1
1
1
1
1
1
1
1
1
1
1
1
1
1
1
1
1
1
1
1
1
1
1
1
1
1
1
1
1
1
1
1
1
1
1
1
1
1
1
1
1
1
1
1
1
1
1
1
1
1
1
1
1
1
1
1
1
1
1
1
1
1
1
1
1
1
1
1
1
1
1
1
1
1
1
1
1
1
1
1
1
1
1
1
1
1
1
1
1
1
1
1
1
1
1
1
1
1
1
1
1
1
1
1
1
1
1
1
1
1
1
1
1
1
1
1
1
1
1
1
1
1
1
1
1
1
1
1
1
1
1
1
1
1
1
1
1
1
1
1
1
1
1
1
1
1
1
1
1
1
1
1
1
1
1
1
1
1
1
1
1
1
1
1
1
1
1
1
1
1
1
1
1
1
1
1
1
1
1
1
1
1
1
1
1
1
1
1
1
1
1
1
1
1
1
1
1
1
1
1
1
1
1
1
1
1
1
1
1
1
1
1
1
1
1
1
1
1
1
1
1
1
1
1
1
1
1
1
1
1
1
1
1
1
1
1
1
1
1
1
1
1
1
1
1
1
1
1
1
1
1
1
1
1
1
1
1
1
1
1
1
1
1
1
1
1
1
1
1
1
1
1
1
1
1
1
1
1
1
1
1
1
1
1
1
1
1
1
1
1
1
1
1
1
1
1
1
1
1
1
1
1
1
1
1
1
1
1
1
1
1
1
1
1
1
1
1
1
1
1
1
1
1
1
1
1
1
1
1
1
1
1
1
1
1
1
1
1
1
1
1
1
1
1
1
1
1
1
1
1
1
1
1
1
1
1
1
1
1
1
1
1
1
1
1
1
1
1
1
1
1
1
1
1
1
1
1
1
1
1
1
1
1
1
1
1
1
1
1
1
1
1
1
1
1
1
1
1
1
1
1
1
1
1
1
1
1
1
1
1
1
1
1
1
1
1
1
1
1
1
1
1
1
1
1
1
1
1
1
1
1
1
1
1
1
1
1
1
1
1
1
1
1
1
1
1
1
1
1
1
1
1
1
1
1
1
1
1
1
1
1
1
1
1
1
1
1
1
1
1
1
1
1
1
1
1
1
1
1
1
1
1
1
1
1
1
1
1
1
1
1
1
1
1
1
1
1
1
1
1
1
1
1
1
1
1
1
1
1
1
1
1
1
1
1
1
1
1
1
1
1
1
1
1
1
1
1
1
1
1
1
1
1
1
1
1
1
1
1
1
1
1
1
1
1
1
1
1
1
1
1
1
1
1
1
1
1
1
1
1
1
1
1
1
1
1
1
1
1
1
1
1
1
1
1
1
1
1
1
1
1
1
1
1
1
1
1
1
1
1
1
1
1
1
1
1
1
1
1
1
1
1
1
1
1
1
1
1
1
1
1
1
1
1
1
1
1
1
1
1
1
1
1
1
1
1
1
1
1
1
1
1
1
1
1
1
1
1
1
1
1
1
1
1
1
1
1
1
1
1
1
1
1
1
1
1
1
1
1
1
1
1
1
1
1
1
1
1
1
1
1
1
1
1
1
1
1
1
1
1
1
1
1
1
1
1
1
1
1
1
1
1
1
1
1
1
1
1
1
1
1
1
1
1
1
1
1
1
1
1
1
1
1
1
1
1
1
1
1
1
1
1
1
1
1
1
1
1
1
1
1
1
1
1
1
1
1
1
1
1
1
1
1
1
1
1
1
1
1
1
1
1
1
1
1
1
1
1
1
1
1
1
1
1
1
1
1
1
1
1
1
1
1
1
1
1
1
1
1
1
1
1
1
1
1
1
1
1
1
1
1
1
1
1
1
1
1
1
1
1
1
1
1
1
1
1
1
1
1
1
1
1
1
1
1
1
1
1
1
1.07773
1.18149
1.28528
1.37631
1.47805
1.5576
1.61829
1.6703
1.69604
1.68986
1.65923
1.61289
1.57268
1.5407
1.52617
1.51351
1.51276
1.51507
1.52025
1.52582
1.53049
1.53257
1.53382
1.53531
1.53742
1.53971
1.54128
1.54186
1.54223
1.54329
1.54532
1.5467
1.54693
1.54691
1.54639
1.54522
1.54427
1.54402
1.54404
1.54431
1.54456
1.54492
1.54526
1.54538
1.54547
1.54548
1.54544
1.54561
1.00067
1.00469
1.02594
1.06878
1.12821
1.21645
1.29952
1.37949
1.4519
1.50659
1.52818
1.55845
1.56919
1.56338
1.55314
1.54589
1.54073
1.53519
1.53347
1.53326
1.53456
1.53718
1.53968
1.54118
1.54208
1.54297
1.54411
1.54429
1.54425
1.54461
1.5456
1.54675
1.54756
1.54785
1.5477
1.54718
1.54662
1.5465
1.54669
1.5472
1.54776
1.5481
1.54813
1.54802
1.54778
1.54729
1.54682
1.54729
1
0.999992
1.00002
1.00003
1.00045
1.00466
1.02139
1.07459
1.18265
1.34569
1.49967
1.58202
1.6257
1.62404
1.61348
1.59659
1.58035
1.55941
1.54736
1.54692
1.54817
1.55077
1.55375
1.55432
1.5546
1.55438
1.55442
1.55469
1.55446
1.55423
1.55415
1.55448
1.55451
1.55425
1.55371
1.55298
1.55248
1.55237
1.55251
1.55306
1.55394
1.55448
1.55446
1.55408
1.55351
1.55282
1.55198
1.55283
1
1
1
1
0.999999
1
0.999998
1.00003
1.00201
1.02655
1.15662
1.32958
1.51713
1.5807
1.60767
1.60434
1.59285
1.59
1.58448
1.5765
1.57422
1.56972
1.56738
1.56611
1.5663
1.56655
1.56766
1.56914
1.56947
1.56925
1.56878
1.5682
1.56777
1.56707
1.56623
1.56535
1.56424
1.56347
1.56334
1.5635
1.56383
1.56382
1.56332
1.56233
1.5612
1.56027
1.55966
1.56064
1
1
1
1
1
1
1
1
1
0.999969
1.00089
1.01535
1.11169
1.29771
1.46104
1.58874
1.60846
1.61722
1.6135
1.60616
1.59151
1.58012
1.57363
1.57102
1.57146
1.57203
1.57363
1.57596
1.57768
1.57875
1.57961
1.57975
1.57969
1.57909
1.57827
1.57738
1.57623
1.57536
1.57518
1.57525
1.57523
1.57473
1.57365
1.57226
1.57076
1.56967
1.5689
1.56973
1
1
1
1
1
1
1
1
1
0.999999
0.999999
0.999981
1.00028
1.01194
1.07616
1.26218
1.43209
1.55699
1.60538
1.60086
1.59831
1.59283
1.58557
1.58159
1.57916
1.57774
1.57719
1.57776
1.57908
1.5809
1.5831
1.58486
1.58481
1.5844
1.58363
1.58273
1.58189
1.5815
1.58158
1.58166
1.58145
1.58066
1.57961
1.57857
1.57767
1.57715
1.5765
1.57744
1
1
1
1
1
1
1
1
1
1
1
0.999999
0.999999
0.999988
1.00013
1.00761
1.07132
1.21419
1.39965
1.50658
1.58377
1.59781
1.5971
1.59258
1.58896
1.5846
1.57944
1.5782
1.57861
1.58015
1.58194
1.58398
1.58471
1.58455
1.58385
1.58319
1.58309
1.58321
1.58387
1.58415
1.58397
1.5834
1.58278
1.58242
1.58222
1.58206
1.58167
1.58227
1
1
1
1
1
1
1
1
1
1
1
1
1
0.999999
0.999999
0.999989
1.00018
1.00418
1.05696
1.18863
1.37279
1.48472
1.54448
1.57922
1.5833
1.58328
1.58009
1.57882
1.57904
1.5793
1.57973
1.57997
1.58072
1.58153
1.58187
1.58215
1.58261
1.58343
1.58438
1.58473
1.58464
1.58421
1.58362
1.58355
1.58352
1.58347
1.58335
1.58347
1
1
1
1
1
1
1
1
1
1
1
1
1
1
1
0.999999
0.999999
0.999993
1.00015
1.00389
1.04257
1.18548
1.33746
1.48068
1.52644
1.54936
1.56321
1.57301
1.57392
1.57202
1.57243
1.57347
1.57464
1.57626
1.57789
1.57938
1.58081
1.58209
1.58302
1.58321
1.58317
1.58309
1.5829
1.58266
1.58262
1.58268
1.58274
1.58275
1
1
1
1
1
1
1
1
1
1
1
1
1
1
1
1
1
0.999999
0.999999
0.999995
1.00009
1.00486
1.03597
1.16446
1.32694
1.45983
1.53327
1.54576
1.55785
1.56029
1.56201
1.56425
1.56546
1.56695
1.56926
1.57194
1.5744
1.57622
1.57734
1.57803
1.57843
1.57902
1.57961
1.57996
1.58023
1.58055
1.58109
1.58105
1
1
1
1
1
1
1
1
1
1
1
1
1
1
1
1
1
1
1
1
1
0.999995
1.00008
1.00384
1.03966
1.14787
1.32377
1.44842
1.52825
1.55201
1.55524
1.55824
1.56009
1.56091
1.56268
1.56427
1.56594
1.56796
1.56982
1.57115
1.57189
1.57274
1.57357
1.57407
1.57465
1.57537
1.57654
1.57687
1
1
1
1
1
1
1
1
1
1
1
1
1
1
1
1
1
1
1
1
1
1
1
0.999996
1.00014
1.00306
1.04462
1.15701
1.32685
1.44334
1.51657
1.54733
1.55693
1.55955
1.56297
1.56288
1.56261
1.56352
1.56545
1.56688
1.56768
1.56804
1.56809
1.56822
1.56893
1.56998
1.57146
1.57195
1
1
1
1
1
1
1
1
1
1
1
1
1
1
1
1
1
1
1
1
1
1
1
0.999999
1
0.999996
1.00027
1.00405
1.04457
1.1781
1.34056
1.4578
1.50823
1.53869
1.55441
1.55601
1.55613
1.55814
1.56029
1.56197
1.56309
1.56321
1.56323
1.56367
1.56452
1.5657
1.56739
1.56775
1
1
1
1
1
1
1
1
1
1
1
1
1
1
1
1
1
1
1
1
1
1
1
1
1
0.999999
1
0.999997
1.00032
1.00706
1.05134
1.20208
1.36173
1.49119
1.52316
1.53545
1.54209
1.54889
1.55225
1.55424
1.55576
1.55717
1.55845
1.55934
1.56027
1.56121
1.56301
1.56334
1
1
1
1
1
1
1
1
1
1
1
1
1
1
1
1
1
1
1
1
1
1
1
1
1
1
1
1
1
1
1.00045
1.01224
1.07241
1.24159
1.39938
1.50615
1.54438
1.54609
1.54875
1.55041
1.55175
1.55346
1.55456
1.55532
1.55639
1.55789
1.55968
1.55991
1
1
1
1
1
1
1
1
1
1
1
1
1
1
1
1
1
1
1
1
1
1
1
1
1
1
1
1
1
1
0.999999
1.00003
1.001
1.0211
1.11339
1.2942
1.43922
1.51778
1.55048
1.55494
1.55684
1.55819
1.55777
1.55716
1.55701
1.55759
1.55829
1.55829
1
1
1
1
1
1
1
1
1
1
1
1
1
1
1
1
1
1
1
1
1
1
1
1
1
1
1
1
1
1
1
1
0.999999
1.00012
1.00274
1.04059
1.17829
1.36126
1.47327
1.52113
1.54993
1.55611
1.55492
1.55556
1.55675
1.55787
1.55846
1.5583
1
1
1
1
1
1
1
1
1
1
1
1
1
1
1
1
1
1
1
1
1
1
1
1
1
1
1
1
1
1
1
1
1
1
1
1.00049
1.00887
1.07798
1.25417
1.43604
1.52129
1.53342
1.54061
1.54769
1.5527
1.5554
1.55627
1.55611
1
1
1
1
1
1
1
1
1
1
1
1
1
1
1
1
1
1
1
1
1
1
1
1
1
1
1
1
1
1
1
1
1
1
1
0.999999
1.00002
1.00191
1.0287
1.15617
1.35025
1.4897
1.54856
1.55133
1.55383
1.55543
1.55488
1.55447
1
1
1
1
1
1
1
1
1
1
1
1
1
1
1
1
1
1
1
1
1
1
1
1
1
1
1
1
1
1
1
1
1
1
1
1
1
1
1.00026
1.00839
1.08149
1.26222
1.43839
1.52353
1.55691
1.56107
1.56035
1.55891
1
1
1
1
1
1
1
1
1
1
1
1
1
1
1
1
1
1
1
1
1
1
1
1
1
1
1
1
1
1
1
1
1
1
1
1
1
1
1
1.00004
1.00198
1.03424
1.18643
1.39175
1.4965
1.5307
1.55379
1.55666
1
1
1
1
1
1
1
1
1
1
1
1
1
1
1
1
1
1
1
1
1
1
1
1
1
1
1
1
1
1
1
1
1
1
1
1
1
1
1
1
1
1.00059
1.01322
1.11435
1.31251
1.48733
1.53999
1.54728
1
1
1
1
1
1
1
1
1
1
1
1
1
1
1
1
1
1
1
1
1
1
1
1
1
1
1
1
1
1
1
1
1
1
1
1
1
1
1
1
1
1
1.00009
1.00559
1.05974
1.25844
1.44378
1.54321
1
1
1
1
1
1
1
1
1
1
1
1
1
1
1
1
1
1
1
1
1
1
1
1
1
1
1
1
1
1
1
1
1
1
1
1
1
1
1
1
1
1
1
1.00003
1.0015
1.03929
1.19817
1.42356
1
1
1
1
1
1
1
1
1
1
1
1
1
1
1
1
1
1
1
1
1
1
1
1
1
1
1
1
1
1
1
1
1
1
1
1
1
1
1
1
1
1
1
1
1
1.00096
1.01915
1.14044
1
1
1
1
1
1
1
1
1
1
1
1
1
1
1
1
1
1
1
1
1
1
1
1
1
1
1
1
1
1
1
1
1
1
1
1
1
1
1
1
1
1
1
1
1
1
1.00029
1.00634
1
1
1
1
1
1
1
1
1
1
1
1
1
1
1
1
1
1
1
1
1
1
1
1
1
1
1
1
1
1
1
1
1
1
1
1
1
1
1
1
1
1
1
1
1
1
1
0.999935
1
1
1
1
1
1
1
1
1
1
1
1
1
1
1
1
1
1
1
1
1
1
1
1
1
1
1
1
1
1
1
1
1
1
1
1
1
1
1
1
1
1
1
1
1
1
1
0.99998
1
1
1
1
1
1
1
1
1
1
1
1
1
1
1
1
1
1
1
1
1
1
1
1
1
1
1
1
1
1
1
1
1
1
1
1
1
1
1
1
1
1
1
1
1
1
1
0.999997
1
1
1
1
1
1
1
1
1
1
1
1
1
1
1
1
1
1
1
1
1
1
1
1
1
1
1
1
1
1
1
1
1
1
1
1
1
1
1
1
1
1
1
1
1
1
1
1
1
1
1
1
1
1
1
1
1
1
1
1
1
1
1
1
1
1
1
1
1
1
1
1
1
1
1
1
1
1
1
1
1
1
1
1
1
1
1
1
1
1
1
1
1
1
1
1
1
1
1
1
1
1
1
1
1
1
1
1
1
1
1
1
1
1
1
1
1
1
1
1
1
1
1
1
1
1
1
1
1
1
1
1
1
1
1
1
1
1
1
1
1
1
1
1
1
1
1
1
1
1
1
1
1
1
1
1
1
1
1
1
1
1
1
1
1
1
1
1
1
1
1
1
1
1
1
1
1
1
1
1
1
1
1
1
1
1
1
1
1
1
1
1
1
1
1
1
1
1
1
1
1
1
1
1
1
1
1
1
1
1
1
1
1
1
1
1
1
1
1
1
1
1
1
1
1
1
1
1
1
1
1
1
1
1
1
1
1
1
1
1
1
1
1
1
1
1
1
1
1
1
1
1
1
1
1
1
1
1
1
1
1
1
1
1
1
1
1
1
1
1
1
1
1
1
1
1
1
1
1
1
1
1
1
1
1
1
1
1
1
1
1
1
1
1
1
1
1
1
1
1
1
1
1
1
1
1
1
1
1
1
1
1
1
1
1
1
1
1
1
1
1
1
1
1
1
1
1
1
1
1
1
1
1
1
1
0.999997
1
1
1
1
1
1
1
1
1
1
1
1
1
1
1
1
1
1
1
1
1
1
1
1
1
1
1
1
1
1
1
1
1
1
1
1
1
1
1
1
1
1
1
1
1
1
1
0.99998
1
1
1
1
1
1
1
1
1
1
1
1
1
1
1
1
1
1
1
1
1
1
1
1
1
1
1
1
1
1
1
1
1
1
1
1
1
1
1
1
1
1
1
1
1
1
1
0.999935
1
1
1
1
1
1
1
1
1
1
1
1
1
1
1
1
1
1
1
1
1
1
1
1
1
1
1
1
1
1
1
1
1
1
1
1
1
1
1
1
1
1
1
1
1
1
1.00029
1.00634
1
1
1
1
1
1
1
1
1
1
1
1
1
1
1
1
1
1
1
1
1
1
1
1
1
1
1
1
1
1
1
1
1
1
1
1
1
1
1
1
1
1
1
1
1
1.00096
1.01915
1.14043
1
1
1
1
1
1
1
1
1
1
1
1
1
1
1
1
1
1
1
1
1
1
1
1
1
1
1
1
1
1
1
1
1
1
1
1
1
1
1
1
1
1
1
1.00003
1.0015
1.0393
1.19817
1.42355
1
1
1
1
1
1
1
1
1
1
1
1
1
1
1
1
1
1
1
1
1
1
1
1
1
1
1
1
1
1
1
1
1
1
1
1
1
1
1
1
1
1
1.00009
1.00559
1.05974
1.25845
1.44378
1.5432
1
1
1
1
1
1
1
1
1
1
1
1
1
1
1
1
1
1
1
1
1
1
1
1
1
1
1
1
1
1
1
1
1
1
1
1
1
1
1
1
1
1.00059
1.01322
1.11435
1.31252
1.48734
1.53998
1.54727
1
1
1
1
1
1
1
1
1
1
1
1
1
1
1
1
1
1
1
1
1
1
1
1
1
1
1
1
1
1
1
1
1
1
1
1
1
1
1
1.00004
1.00198
1.03424
1.18643
1.39175
1.49651
1.5307
1.55379
1.55666
1
1
1
1
1
1
1
1
1
1
1
1
1
1
1
1
1
1
1
1
1
1
1
1
1
1
1
1
1
1
1
1
1
1
1
1
1
1
1.00026
1.00839
1.08149
1.26222
1.43838
1.52353
1.55692
1.56107
1.56034
1.55891
1
1
1
1
1
1
1
1
1
1
1
1
1
1
1
1
1
1
1
1
1
1
1
1
1
1
1
1
1
1
1
1
1
1
1
0.999999
1.00002
1.00191
1.0287
1.15617
1.35025
1.4897
1.54856
1.55133
1.55384
1.55543
1.55488
1.55447
1
1
1
1
1
1
1
1
1
1
1
1
1
1
1
1
1
1
1
1
1
1
1
1
1
1
1
1
1
1
1
1
1
1
1
1.00049
1.00887
1.07798
1.25417
1.43604
1.52129
1.53342
1.54061
1.54769
1.5527
1.5554
1.55627
1.55611
1
1
1
1
1
1
1
1
1
1
1
1
1
1
1
1
1
1
1
1
1
1
1
1
1
1
1
1
1
1
1
1
0.999999
1.00012
1.00274
1.04059
1.17829
1.36126
1.47327
1.52113
1.54993
1.55611
1.55492
1.55556
1.55675
1.55786
1.55846
1.5583
1
1
1
1
1
1
1
1
1
1
1
1
1
1
1
1
1
1
1
1
1
1
1
1
1
1
1
1
1
1
0.999999
1.00003
1.001
1.0211
1.11339
1.2942
1.43922
1.51778
1.55048
1.55494
1.55684
1.55819
1.55777
1.55716
1.55701
1.55759
1.55829
1.55829
1
1
1
1
1
1
1
1
1
1
1
1
1
1
1
1
1
1
1
1
1
1
1
1
1
1
1
1
1
1
1.00045
1.01224
1.07241
1.24159
1.39938
1.50615
1.54438
1.54609
1.54876
1.55041
1.55175
1.55346
1.55456
1.55532
1.55639
1.55789
1.55968
1.55991
1
1
1
1
1
1
1
1
1
1
1
1
1
1
1
1
1
1
1
1
1
1
1
1
1
0.999999
1
0.999997
1.00032
1.00706
1.05134
1.20208
1.36173
1.49119
1.52316
1.53545
1.54209
1.54889
1.55225
1.55424
1.55576
1.55717
1.55845
1.55934
1.56027
1.56121
1.56301
1.56334
1
1
1
1
1
1
1
1
1
1
1
1
1
1
1
1
1
1
1
1
1
1
1
0.999999
1
0.999996
1.00027
1.00405
1.04457
1.1781
1.34056
1.4578
1.50823
1.53869
1.55441
1.55601
1.55613
1.55814
1.56029
1.56197
1.56309
1.56321
1.56323
1.56367
1.56452
1.5657
1.56739
1.56775
1
1
1
1
1
1
1
1
1
1
1
1
1
1
1
1
1
1
1
1
1
1
1
0.999996
1.00014
1.00306
1.04462
1.15701
1.32685
1.44334
1.51657
1.54733
1.55693
1.55955
1.56297
1.56288
1.56261
1.56352
1.56545
1.56688
1.56768
1.56804
1.56809
1.56822
1.56893
1.56998
1.57146
1.57195
1
1
1
1
1
1
1
1
1
1
1
1
1
1
1
1
1
1
1
1
1
0.999995
1.00008
1.00384
1.03966
1.14787
1.32377
1.44842
1.52825
1.55201
1.55524
1.55824
1.56009
1.56091
1.56268
1.56427
1.56594
1.56796
1.56982
1.57115
1.57189
1.57274
1.57357
1.57407
1.57465
1.57537
1.57654
1.57687
1
1
1
1
1
1
1
1
1
1
1
1
1
1
1
1
1
0.999999
0.999999
0.999995
1.00009
1.00486
1.03597
1.16446
1.32694
1.45983
1.53327
1.54576
1.55785
1.56029
1.56201
1.56425
1.56546
1.56695
1.56926
1.57194
1.5744
1.57622
1.57734
1.57803
1.57843
1.57902
1.57961
1.57996
1.58023
1.58055
1.58109
1.58105
1
1
1
1
1
1
1
1
1
1
1
1
1
1
1
0.999999
0.999999
0.999993
1.00015
1.00389
1.04257
1.18548
1.33746
1.48068
1.52644
1.54936
1.56321
1.57301
1.57392
1.57202
1.57243
1.57347
1.57464
1.57626
1.57789
1.57938
1.58081
1.58209
1.58302
1.58321
1.58317
1.58309
1.5829
1.58266
1.58262
1.58268
1.58274
1.58275
1
1
1
1
1
1
1
1
1
1
1
1
1
0.999999
0.999999
0.999989
1.00018
1.00418
1.05696
1.18863
1.37279
1.48472
1.54448
1.57922
1.5833
1.58328
1.58009
1.57882
1.57904
1.5793
1.57973
1.57997
1.58072
1.58153
1.58187
1.58215
1.58261
1.58343
1.58438
1.58473
1.58464
1.58421
1.58362
1.58355
1.58352
1.58347
1.58335
1.58347
1
1
1
1
1
1
1
1
1
1
1
0.999999
0.999999
0.999988
1.00013
1.00761
1.07132
1.21419
1.39965
1.50658
1.58377
1.59781
1.5971
1.59258
1.58896
1.5846
1.57944
1.5782
1.57861
1.58015
1.58194
1.58398
1.58471
1.58455
1.58385
1.58319
1.58309
1.58321
1.58387
1.58415
1.58397
1.5834
1.58278
1.58242
1.58222
1.58206
1.58167
1.58227
1
1
1
1
1
1
1
1
1
0.999999
0.999999
0.999981
1.00028
1.01194
1.07616
1.26218
1.43209
1.55698
1.60538
1.60086
1.59831
1.59283
1.58557
1.58159
1.57916
1.57774
1.57719
1.57776
1.57908
1.5809
1.5831
1.58486
1.58481
1.5844
1.58363
1.58273
1.58189
1.5815
1.58158
1.58166
1.58145
1.58066
1.57961
1.57857
1.57767
1.57715
1.5765
1.57744
1
1
1
1
1
1
1
1
1
0.999969
1.00089
1.01535
1.11169
1.29771
1.46104
1.58874
1.60846
1.61722
1.6135
1.60616
1.59151
1.58012
1.57363
1.57102
1.57146
1.57203
1.57363
1.57596
1.57768
1.57875
1.57961
1.57975
1.57969
1.57909
1.57827
1.57738
1.57623
1.57536
1.57518
1.57525
1.57523
1.57473
1.57365
1.57226
1.57076
1.56967
1.5689
1.56973
1
1
1
1
0.999999
1
0.999998
1.00003
1.00201
1.02655
1.15662
1.32958
1.51713
1.5807
1.60767
1.60434
1.59285
1.59
1.58448
1.5765
1.57422
1.56972
1.56738
1.56611
1.5663
1.56655
1.56766
1.56914
1.56947
1.56925
1.56878
1.5682
1.56777
1.56707
1.56623
1.56535
1.56424
1.56347
1.56334
1.5635
1.56383
1.56382
1.56332
1.56233
1.5612
1.56027
1.55966
1.56064
1
0.999992
1.00002
1.00003
1.00045
1.00466
1.02139
1.07459
1.18265
1.34569
1.49967
1.58202
1.6257
1.62404
1.61348
1.59659
1.58035
1.55941
1.54736
1.54692
1.54817
1.55077
1.55375
1.55432
1.5546
1.55438
1.55442
1.55469
1.55446
1.55423
1.55415
1.55448
1.55451
1.55425
1.55371
1.55298
1.55248
1.55237
1.55251
1.55306
1.55394
1.55448
1.55446
1.55408
1.55351
1.55282
1.55198
1.55283
1.00067
1.00469
1.02594
1.06878
1.12821
1.21645
1.29952
1.37949
1.4519
1.50659
1.52818
1.55845
1.56919
1.56338
1.55314
1.54589
1.54073
1.53519
1.53347
1.53326
1.53456
1.53718
1.53968
1.54118
1.54208
1.54297
1.54411
1.54429
1.54425
1.54461
1.5456
1.54675
1.54756
1.54785
1.5477
1.54718
1.54662
1.5465
1.54669
1.5472
1.54776
1.5481
1.54813
1.54802
1.54778
1.54729
1.54682
1.54729
1.07773
1.18149
1.28528
1.37631
1.47805
1.5576
1.61829
1.6703
1.69604
1.68986
1.65923
1.61289
1.57268
1.5407
1.52617
1.51351
1.51276
1.51507
1.52025
1.52582
1.53049
1.53257
1.53382
1.53531
1.53742
1.53971
1.54128
1.54186
1.54223
1.54329
1.54532
1.5467
1.54693
1.54691
1.54639
1.54522
1.54427
1.54402
1.54404
1.54431
1.54456
1.54492
1.54526
1.54538
1.54547
1.54548
1.54544
1.54561
1.40233
1.24528
1.09065
1.00271
1.01137
1.00595
1.00223
1.02122
1.05648
1.06789
1.06943
1.0814
1.10448
1.11481
1.1149
1.11763
1.12057
1.11852
1.11723
1.11869
1.11883
1.11772
1.11603
1.11551
1.11522
1.11296
1.10773
1.1058
1.10588
1.10566
1.10551
1.10543
1.1052
1.10514
1.10474
1.10342
1.10304
1.10312
1.10374
1.1046
1.10464
1.10457
1.1043
1.10381
1.10365
1.10334
1.10266
1.10302
1.10511
1.14537
1.3523
1.61519
1.81856
2.04014
2.22147
2.21907
2.17761
2.10367
2.06449
2.06495
2.0603
2.04584
2.02678
2.01047
1.998
1.98781
1.97805
1.9676
1.95697
1.94474
1.92623
1.89976
1.88052
1.87261
1.86744
1.86656
1.86607
1.8592
1.84978
1.83243
1.80196
1.77984
1.77198
1.76688
1.76533
1.76639
1.76171
1.75585
1.74548
1.72304
1.70386
1.69728
1.69247
1.68711
1.68065
1.67273
1.66148
1.64323
1.6282
1.62322
1.61966
1.61702
1.61486
1.6111
1.60547
1.59191
1.56791
1.55354
1.54938
1.54636
1.54348
1.54186
1.53974
1.53647
1.53268
1.52483
1.50876
1.49021
1.47945
1.47316
1.46806
1.46394
1.46044
1.45694
1.45267
1.44672
1.43932
1.43243
1.42636
1.41992
1.41139
1.40007
1.39087
1.38659
1.3839
1.38145
1.37888
1.37589
1.3718
1.36437
1.35103
1.33962
1.33551
1.33303
1.33069
1.32823
1.32551
1.32241
1.3183
1.31132
1.29974
1.28864
1.28285
1.27948
1.27687
1.27467
1.27255
1.27016
1.26704
1.26208
1.25295
1.24052
1.2335
1.23083
1.22894
1.22715
1.22523
1.22294
1.21874
1.20854
1.19777
1.19513
1.19396
1.1929
1.19232
1.19182
1.19071
1.18961
1.18648
1.18128
1.18475
1.19995
1.23339
1.28175
1.33954
1.39654
1.44667
1.48991
1.52769
1.56174
1.58432
1.6084
1.49918
1.42241
1.3369
1.23037
1.18159
1.14838
1.09804
1.08731
1.08134
1.06179
1.05286
1.05427
1.06418
1.07108
1.07474
1.07995
1.08798
1.08912
1.09056
1.09425
1.10129
1.10439
1.10491
1.10494
1.10476
1.10316
1.10029
1.10004
1.10034
1.10043
1.10072
1.10111
1.10135
1.10153
1.10115
1.10008
1.09941
1.09922
1.09931
1.09951
1.0996
1.09961
1.09945
1.09928
1.09901
1.09827
1.09896
1.10436
1.14189
1.32278
1.53004
1.5836
1.66916
1.77738
1.94042
2.05558
2.11943
2.11414
2.09669
2.08293
2.06497
2.04747
2.03284
2.01899
2.00469
1.9903
1.97694
1.96778
1.95886
1.94754
1.93161
1.91065
1.89171
1.8794
1.87169
1.86574
1.8612
1.85536
1.84659
1.83309
1.81178
1.79087
1.77915
1.77322
1.76904
1.76469
1.75939
1.75253
1.74243
1.72643
1.70937
1.69971
1.69344
1.68766
1.68172
1.67522
1.66614
1.65154
1.63476
1.62525
1.62083
1.61674
1.61264
1.60827
1.60232
1.5925
1.57464
1.55827
1.55122
1.54805
1.54537
1.54208
1.53835
1.53449
1.53009
1.52352
1.51136
1.49585
1.48413
1.47706
1.47246
1.469
1.46534
1.46145
1.45708
1.4512
1.44381
1.43681
1.43071
1.42448
1.41678
1.40672
1.39763
1.39261
1.38915
1.38585
1.38256
1.37925
1.37523
1.36873
1.35772
1.34632
1.34107
1.33812
1.33533
1.33243
1.32936
1.32603
1.32194
1.31565
1.30533
1.29411
1.28782
1.28437
1.28159
1.27894
1.27626
1.27348
1.27013
1.26489
1.25616
1.24529
1.23857
1.23526
1.23257
1.2304
1.22816
1.2255
1.22137
1.21332
1.20385
1.19999
1.19849
1.19762
1.19748
1.19848
1.20263
1.2133
1.22598
1.24433
1.26543
1.29132
1.31694
1.34507
1.36351
1.37601
1.396
1.42351
1.45138
1.475
1.48908
1.51024
1.53832
1.49654
1.43637
1.35802
1.28671
1.23418
1.17074
1.12059
1.09943
1.0746
1.04666
1.04595
1.04906
1.04808
1.0483
1.05129
1.05646
1.05957
1.06239
1.06861
1.0789
1.08388
1.08466
1.0853
1.08647
1.08657
1.0867
1.08783
1.08894
1.09016
1.09157
1.0918
1.09175
1.09137
1.09026
1.08961
1.08941
1.08924
1.08914
1.08924
1.0896
1.08965
1.08964
1.08963
1.08952
1.091
1.10695
1.18062
1.32877
1.52495
1.60259
1.59688
1.60158
1.61967
1.69737
1.88059
2.06594
2.14414
2.13453
2.09785
2.06035
2.04827
2.04161
2.03011
2.01422
1.99799
1.98258
1.9702
1.95936
1.94665
1.93336
1.92164
1.90937
1.89618
1.88176
1.86994
1.86106
1.85162
1.84093
1.82881
1.81782
1.80749
1.79627
1.78447
1.77592
1.76873
1.76014
1.74966
1.73763
1.72512
1.71399
1.70444
1.69717
1.69087
1.68398
1.67587
1.66652
1.65529
1.64182
1.62973
1.62321
1.61899
1.61404
1.60727
1.59843
1.58833
1.57871
1.56893
1.55899
1.55061
1.54582
1.54261
1.53931
1.53466
1.52711
1.51572
1.50403
1.49583
1.48971
1.48395
1.47763
1.47028
1.46262
1.45612
1.45065
1.44503
1.43884
1.43299
1.42764
1.42189
1.41444
1.40479
1.39601
1.39051
1.38639
1.38234
1.37803
1.37359
1.36916
1.36369
1.35508
1.34508
1.33859
1.33495
1.33185
1.32864
1.32516
1.32125
1.3168
1.31094
1.30198
1.29159
1.28507
1.28169
1.27861
1.27549
1.27213
1.26855
1.26467
1.25974
1.25281
1.24605
1.24067
1.23509
1.22951
1.2258
1.22385
1.22148
1.21848
1.21397
1.20647
1.20255
1.20238
1.20382
1.21117
1.22924
1.26073
1.29712
1.32543
1.34592
1.36006
1.37693
1.3794
1.37536
1.37282
1.37482
1.38295
1.39321
1.39838
1.40096
1.40424
1.41828
1.55591
1.5373
1.499
1.44211
1.37725
1.32094
1.26096
1.2015
1.17361
1.14414
1.09768
1.08505
1.07702
1.05956
1.04969
1.05079
1.04837
1.04406
1.0446
1.04933
1.05766
1.06213
1.06389
1.06594
1.06964
1.07211
1.07451
1.07683
1.07928
1.08147
1.08278
1.08306
1.08291
1.08247
1.08206
1.08219
1.08269
1.08284
1.08262
1.0823
1.08192
1.08106
1.08076
1.08095
1.08239
1.10131
1.23859
1.40272
1.52557
1.59622
1.61513
1.61297
1.60942
1.60672
1.60907
1.65108
1.81256
2.03928
2.10338
2.09131
2.07575
2.0664
2.05696
2.04189
2.02596
2.0128
1.99923
1.98202
1.96556
1.95154
1.94072
1.93302
1.92523
1.91393
1.89749
1.87829
1.86177
1.84933
1.83979
1.83271
1.82804
1.8228
1.81413
1.8012
1.78515
1.77077
1.75849
1.74679
1.73799
1.73189
1.72532
1.71609
1.70477
1.69321
1.68506
1.67821
1.67167
1.66385
1.65298
1.64056
1.63028
1.62225
1.61482
1.60623
1.5967
1.58868
1.58364
1.5786
1.57085
1.56076
1.55131
1.54456
1.53879
1.53195
1.52284
1.51246
1.50327
1.49827
1.49465
1.49014
1.48352
1.47482
1.46584
1.45708
1.44951
1.44338
1.43806
1.43311
1.42838
1.42329
1.41625
1.40681
1.39823
1.39232
1.38767
1.38326
1.37883
1.37363
1.36747
1.36163
1.35542
1.34717
1.34005
1.33582
1.33261
1.32925
1.32543
1.32085
1.31532
1.30892
1.30117
1.2923
1.28569
1.28238
1.2798
1.27672
1.27327
1.26894
1.26362
1.25855
1.25447
1.25023
1.2447
1.23782
1.23145
1.22666
1.22456
1.22225
1.21987
1.21795
1.21379
1.21479
1.2258
1.24836
1.28298
1.32564
1.36353
1.38445
1.40006
1.4128
1.41272
1.40831
1.39632
1.38842
1.38788
1.39011
1.3909
1.38892
1.38567
1.38389
1.38331
1.38145
1.56607
1.55927
1.53969
1.50107
1.44743
1.39722
1.3373
1.27882
1.24425
1.21237
1.16125
1.13203
1.11298
1.08841
1.06071
1.05763
1.05321
1.04516
1.04511
1.04928
1.05273
1.05219
1.05267
1.05357
1.05677
1.06153
1.0655
1.06975
1.07341
1.0761
1.07745
1.07789
1.07764
1.07712
1.07757
1.079
1.08022
1.08042
1.08037
1.0801
1.07912
1.07752
1.07711
1.07808
1.09434
1.23496
1.47228
1.56634
1.60637
1.61967
1.61543
1.61552
1.61334
1.60844
1.60717
1.6031
1.61752
1.73668
1.93599
2.06562
2.09395
2.08239
2.06223
2.04248
2.03414
2.02544
2.01347
1.99355
1.97097
1.95681
1.94773
1.93916
1.93036
1.92132
1.90899
1.88835
1.86423
1.85151
1.84416
1.83782
1.83183
1.82542
1.81958
1.81119
1.79324
1.77087
1.75724
1.7491
1.74257
1.73654
1.73044
1.72305
1.71242
1.69862
1.6872
1.67913
1.67184
1.66531
1.65819
1.64924
1.63705
1.62355
1.61339
1.60585
1.59986
1.59464
1.58938
1.58379
1.57823
1.57137
1.5615
1.5475
1.53513
1.52497
1.51647
1.51014
1.50574
1.50228
1.49845
1.49448
1.48992
1.4817
1.46843
1.45736
1.45064
1.44514
1.43943
1.43347
1.42764
1.42204
1.4162
1.40927
1.40235
1.39694
1.39186
1.3863
1.38016
1.37451
1.36902
1.36173
1.35384
1.34784
1.34264
1.3384
1.33491
1.33126
1.32681
1.32169
1.31605
1.30827
1.2999
1.29358
1.28763
1.28281
1.28128
1.27985
1.27674
1.27203
1.26546
1.25789
1.2517
1.24785
1.24443
1.24031
1.23473
1.22936
1.22747
1.22727
1.22923
1.2374
1.25394
1.27797
1.3141
1.35095
1.37791
1.39591
1.41327
1.42767
1.4306
1.42999
1.42235
1.41136
1.40797
1.40638
1.4026
1.39737
1.3921
1.38755
1.384
1.38288
1.38186
1.37805
1.57464
1.57078
1.56284
1.54215
1.50272
1.45892
1.40869
1.35286
1.3123
1.27441
1.22691
1.19414
1.17118
1.14342
1.10797
1.09939
1.09
1.07211
1.06442
1.06488
1.06148
1.05468
1.05115
1.04989
1.05036
1.05225
1.05677
1.06383
1.07015
1.07299
1.07488
1.076
1.07587
1.07578
1.07668
1.07859
1.07965
1.08023
1.08056
1.0803
1.07889
1.07799
1.0808
1.10783
1.23254
1.48168
1.59417
1.62452
1.637
1.63459
1.61837
1.61236
1.61348
1.60962
1.60354
1.60011
1.59216
1.59514
1.65297
1.82316
2.00001
2.0445
2.04467
2.043
2.04346
2.0329
2.01619
1.9959
1.97251
1.9588
1.95019
1.9423
1.93383
1.92462
1.91332
1.89554
1.8716
1.85578
1.84771
1.84067
1.83498
1.82897
1.82181
1.81235
1.79654
1.77321
1.75838
1.75153
1.74569
1.74074
1.7365
1.73064
1.71986
1.70158
1.6859
1.67863
1.67336
1.66911
1.6646
1.65684
1.64122
1.62126
1.61125
1.60675
1.60347
1.60176
1.59852
1.59376
1.58807
1.57904
1.56221
1.54275
1.52916
1.52113
1.51563
1.51191
1.50947
1.50703
1.50338
1.49858
1.49171
1.48123
1.46868
1.45862
1.4518
1.44648
1.44159
1.43625
1.42989
1.42234
1.41619
1.41314
1.41032
1.4057
1.39962
1.39284
1.38593
1.37828
1.36952
1.36035
1.35282
1.34865
1.34631
1.34393
1.34043
1.33631
1.33176
1.32582
1.31692
1.30706
1.29965
1.29433
1.28968
1.28575
1.28162
1.27742
1.27394
1.2702
1.26519
1.25925
1.25355
1.24973
1.24665
1.24429
1.2417
1.24251
1.24899
1.26856
1.29681
1.33047
1.36198
1.39116
1.40663
1.41643
1.42606
1.43505
1.43445
1.43444
1.43342
1.43066
1.4264
1.4242
1.42241
1.4176
1.40831
1.39849
1.39112
1.38771
1.38712
1.38615
1.38421
1.37854
1.58097
1.57905
1.57602
1.5659
1.54315
1.51048
1.46503
1.41756
1.37717
1.3357
1.28724
1.25455
1.22615
1.19528
1.16248
1.14635
1.13082
1.10464
1.08744
1.08207
1.07273
1.06161
1.05774
1.05627
1.05465
1.05551
1.05797
1.06254
1.06572
1.06701
1.06864
1.07097
1.07296
1.07512
1.07803
1.0805
1.08114
1.08175
1.08234
1.08193
1.08039
1.08472
1.15289
1.29551
1.48713
1.61629
1.63872
1.64499
1.64244
1.64145
1.62781
1.61312
1.6072
1.60333
1.59838
1.59371
1.58627
1.58045
1.57381
1.59546
1.71036
1.88877
1.99019
2.0271
2.03674