/*--------------------------------*- C++ -*----------------------------------*\
  =========                 |
  \\      /  F ield         | OpenFOAM: The Open Source CFD Toolbox
   \\    /   O peration     | Website:  https://openfoam.org
    \\  /    A nd           | Version:  7
     \\/     M anipulation  |
\*---------------------------------------------------------------------------*/
FoamFile
{
    version     2.0;
    format      ascii;
    class       volScalarField;
    location    "3.2";
    object      p;
}
// * * * * * * * * * * * * * * * * * * * * * * * * * * * * * * * * * * * * * //

dimensions      [1 -1 -2 0 0 0 0];

internalField   nonuniform List<scalar> 
18432
(
1
1
1
1
1
1
1
1
1
1
1
1
1
1
1
1
1
1
1
1
1
1
1
1
1
1
1
1
1
1
1
1
1
1
1
1
1
1
1
1
1
1
1
1
1
1
1
1
1
1
1
1
1
1
1
1
1
1
1
1
1
1
1
1
1
1
1
1
1
1
1
1
1
1
1
1
1
1
1
1
1
1
1
1
1
1
1
1
1
1
1
1
1
1
1
1
1
1
1
1
1
1
1
1
1
1
1
1
1
1
1
1
1
1
1
1
1
1
1
1
1
1
1
1
1
1
1
1
1
1
1
1
1
1
1
1
1
1
1
1
1
1
1
1
1
1
1
1
1
1
1
1
1
1
1
1
1
1
1
1
1
1
1
1
1
1
1
1
1
1
1
1
1
1
1
1
1
1
1
1
1
1
1
1
1
1
1
1
1
1
1
1
1
1
1
1
1
1
1
1
1
1
1
1
1
1
1
1
1
1
1
1
1
1
1
1
1
1
1
1
1
1
1
1
1
1
1
1
1
1
1
1
1
1
1
1
1
1
1
1
1
1
1
1
1
1
1
1
1
1
1
1
1
1
1
1
1
1
1
1
1
1
1
1
1
1
1
1
1
1
1
1
1
1
1
1
1
1
1
1
1
1
1
1
1
1
1
1
1
1
1
1
1
1
1
1
1
1
1
1
1
1
1
1
1
1
1
1
1
1
1
1
1
1
1
1
1
1
1
1
1
1
1
1
1
1
1
1
1
1
1
1
1
1
1
1
1
1
1
1
1
1
1
1
1
1
1
1
1
1
1
1
1
1
1
1
1
1
1
1
1
1
1
1
1
1
1
1
1
1
1
1
1
1
1
1
1
1
1
1
1
1
1
1
1
1
1
1
1
1
1
1
1
1
1
1
1
1
1
1
1
1
1
1
1
1
1
1
1
1
1
1
1
1
1
1
1
1
1
1
1
1
1
1
1
1
1
1
1
1
1
1
1
1
1
1
1
1
1
1
1
1
1
1
1
1
1
1
1
1
1
1
1
1
1
1
1
1
1
1
1
1
1
1
1
1
1
1
1
1
1
1
1
1
1
1
1
1
1
1
1
1
1
1
1
1
1
1
1
1
1
1
1
1
1
1
1
1
1
1
1
1
1
1
1
1
1
1
1
1
1
1
1
1
1
1
1
1
1
1
1
1
1
1
1
1
1
1
1
1
1
1
1
1
1
1
1
1
1
1
1
1
1
1
1
1
1
1
1
1
1
1
1
1
1
1
1
1
1
1
1
1
1
1
1
1
1
1
1
1
1
1
1
1
1
1
1
1
1
1
1
1
1
1
1
1
1
1
1
1
1
1
1
1
1
1
1
1
1
1
1
1
1
1
1
1
1
1
1
1
1
1
1
1
1
1
1
1
1
1
1
1
1
1
1
1
1
1
1
1
1
1
1
1
1
1
1
1
1
1
1
1
1
1
1
1
1
1
1
1
1
1
1
1
1
1
1
1
1
1
1
1
1
1
1
1
1
1
1
1
1
1
1
1
1
1
1
1
1
1
1
1
1
1
1
1
1
1
1
1
1
1
1
1
1
1
1
1
1
1
1
1
1
1
1
1
1
1
1
1
1
1
1
1
1
1
1
1
1
1
1
1
1
1
1
1
1
1
1
1
1
1
1
1
1
1
1
1
1
1
1
1
1
1
1
1
1
1
1
1
1
1
1
1
1
1
1
1
1
1
1
1
1
1
1
1
1
1
1
1
1
1
1
1
1
1
1
1
1
1
1
1
1
1
1
1
1
1
1
1
1
1
1
1
1
1
1
1
1
1
1
1
1
1
1
1
1
1
1
1
1
1
1
1
1
1
1
1
1
1
1
1
1
1
1
1
1
1
1
1
1
1
1
1
1
1
1
1
1
1
1
1
1
1
1
1
1
1
1
1
1
1
1
1
1
1
1
1
1
1
1
1
1
1
1
1
1
1
1
1
1
1
1
1
1
1
1
1
1
1
1
1
1
1
1
1
1
1
1
1
1
1
1
1
1
1
1
1
1
1
1
1
1
1
1
1
1
1
1
1
1
1
1
1
1
1
1
1
1
1
1
1
1
1
1
1
1
1
1
1
1
1
1
1
1
1
1
1
1
1
1
1
1
1
1
1
1
1
1
1
1
1
1
1
1
1
1
1
1
1
1
1
1
1
1
1
1
1
1
1
1
1
1
1
1
1
1
1
1
1
1
1
1
1
1
1
1
1
1
1
1
1
1
1
1
1
1
1
1
1
1
1
1
1
1
1
1
1
1
1
1
1
1
1
1
1
1
1
1
1
1
1
1
1
1
1
1
1
1
1
1
1
1
1
1
1
1
1
1
1
1
1
1
1
1
1
1
1
1
1
1
1
1
1
1
1
1
1
1
1
1
1
1
1
1
1
1
1
1
1
1
1
1
1
1
1
1
1
1
1
1
1
1
1
1
1
1
1
1
1
1
1
1
1
1
1
1
1
1
1
1
1
1
1
1
1
1
1
1
1
1
1
1
1
1
1
1
1
1
1
1
1
1
1
1
1
1
1
1
1
1
1
1
1
1
1
1
1
1
1
1
1
1
1
1
1
1
1
1
1
1
1
1
1
1
1
1
1
1
1
1
1
1
1
1
1
1
1
1
1
1
1
1
1
1
1
1
1
1
1
1
1
1
1
1
1
1
1
1
1
1
1
1
1
1
1
1
1
1
1
1
1
1
1
1
1
1
1
1
1
1
1
1
1
1
1
1
1
1
1
1
1
1
1
1
1
1
1
1
1
1
1
1
1
1
1
1
1
1
1
1
1
1
1
1
1
1
1
1
1
1
1
1
1
1
1
1
1
1
1
1
1
1
1
1
1
1
1
1
1
1
1
1
1
1
1
1
1
1
1
1
1
1
1
1
1
1
1
1
1
1
1
1
1
1
1
1
1
1
1
1
1
1
1
1
1
1
1
1
1
1
1
1
1
1
1
1
1
1
1
1
1
1
1
1
1
1
1
1
1
1
1
1
1
1
1
1
1
1
1
1
1
1
1
1
1
1
1
1
1
1
1
1
1
1
1
1
1
1
1
1
1
1
1
1
1
1
1
1
1
1
1
1
1
1
1
1
1
1
1
1
1
1
1
1
1
1
1
1
1
1
1
1
1
1
1
1
1
1
1
1
1
1
1
1
1
1
1
1
1
1
1
1
1
1
1
1
1
1
1
1
1
1
1
1
1
1
1
1
1
1
1
1
1
1
1
1
1
1
1
1
1
1
1
1
1
1
1
1
1
1
1
1
1
1
1
1
1
1
1
1
1
1
1
1
1
1
1
1
1
1
1
1
1
1
1
1
1
1
1
1
1
1
1
1
1
1
1
1
1
1
1
1
1
1
1
1
1
1
1
1
1
1
1
1
1
1
1
1
1
1
1
1
1
1
1
1
1
1
1
1
1
1
1
1
1
1
1
1
1
1
1
1
1
1
1
1
1
1
1
1
1
1
1
1
1
1
1
1
1
1
1
1
1
1
1
1
1
1
1
1
1
1
1
1
1
1
1
1
1
1
1
1
1
1
1
1
1
1
1
1
1
1
1
1
1
1
1
1
1
1
1
1
1
1
1
1
1
1
1
1
1
1
1
1
1
1
1
1
1
1
1
1
1
1
1
1
1
1
1
1
1
1
1
1
1
1
1
1
1
1
1
1
1
1
1
1
1
1
1
1
1
1
1
1
1
1
1
1
1
1
1
1
1
1
1
1
1
1
1
1
1
1
1
1
1
1
1
1
1
1
1
1
1
1
1
1
1
1
1
1
1
1
1
1
1
1
1
1
1
1
1
1
1
1
1
1
1
1
1
1
1
1
1
1
1
1
1
1
1
1
1
1
1
1
1
1
1
1
1
1
1
1
1
1
1
1
1
1
1
1
1
1
1
1
1
1
1
1
1
1
1
1
1
1
1
1
1
1
1
1
1
1
1
1
1
1
1
1
1
1
1
1
1
1
1
1
1
1
1
1
1
1
1
1
1
1
1
1
1
1
1
1
1
1
1
1
1
1
1
1
1
1
1
1
1
1
1
1
1
1
1
1
1
1
1
1
1
1
1
1
1
1
1
1
1
1
1
1
1
1
1
1
1
1
1
1
1
1
1
1
1
1
1
1
1
1
1
1
1
1
1
1
1
1
1
1
1
1
1
1
1
1
1
1
1
1
1
1
1
1
1
1
1
1
1
1
1
1
1
1
1
1
1
1
1
1
1
1
1
1
1
1
1
1
1
1
1
1
1
1
1
1
1
1
1
1
1
1
1
1
1
1
1
1
1
1
1
1
1
1
1
1
1
1
1
1
1
1
1
1
1
1
1
1
1
1
1
1
1
1
1
1
1
1
1
1
1
1
1
1
1
1
1
1
1
1
1
1
1
1
1
1
1
1
1
1
1
1
1
1
1
1
1
1
1
1
1
1
1
1
1
1
1
1
1
1
1
1
1
1
1
1
1
1
1
1
1
1
1
1
1
1
1
1
1
1
1
1
1
1
1
1
1
1
1
1
1
1
1
1
1
1
1
1
1
1
1
1
1
1
1
1
1
1
1
1
1
1
1
1
1
1
1
1
1
1
1
1
1
1
1
1
1
1
1
1
1
1
1
1
1
1
1
1
1
1
1
1
1
1
1
1
1
1
1
1
1
1
1
1
1
1
1
1
1
1
1
1
1
1
1
1
1
1
1
1
1
1
1
1
1
1
1
1
1
1
1
1
1
1
1
1
1
1
1
1
1
1
1
1
1
1
1
1
1
1
1
1
1
1
1
1
1
1
1
1
1
1
1
1
1
1
1
1
1
1
1
1
1
1
1
1
1
1
1
1
1
1
1
1
1
1
1
1
1
1
1
1
1
1
1
1
1
1
1
1
1
1
1
1
1
1
1
1
1
1
1
1
1
1
1
1
1
1
1
1
1
1
1
1
1
1
1
1
1
1
1
1
1
1
1
1
1
1
1
1
1
1
1
1
1
1
1
1
1
1
1
1
1
1
1
1
1
1
1
1
1
1
1
1
1
1
1
1
1
1
1
1
1
1
1
1
1
1
1
1
1
1
1
1
1
1
1
1
1
1
1
1
1
1
1
1
1
1
1
1
1
1
1
1
1
1
1
1
1
1
1
1
1
1
1
1
1
1
1
1
1
1
1
1
1
1
1
1
1
1
1
1
1
1
1
1
1
1
1
1
1
1
1
1
1
1
1
1
1
1
1
1
1
1
1
1
1
1
1
1
1
1
1
1
1
1
1
1
1
1
1
1
1
1
1
1
1
1
1
1
1
1
1
1
1
1
1
1
1
1
1
1
1
1
1
1
1
1
1
1
1
1
1
1
1
1
1
1
1
1
1
1
1
1
1
1
1
1
1
1
1
1
1
1
1
1
1
1
1
1
1
1
1
1
1
1
1
1
1
1
1
1
1
1
1
1
1
1
1
1
1
1
1
1
1
1
1
1
1
1
1
1
1
1
1
1
1
1
1
1
1
1
1
1
1
1
1
1
1
1
1
1
1
1
1
1
1
1
1
1
1
1
1
1
1
1
1
1
1
1
1
1
1
1
1
1
1
1
1
1
1
1
1
1
1
1
1
1
1
1
1
1
1
1
1
1
1
1
1
1
1
1
1
1
1
1
1
1
1
1
1
1
1
1
1
1
1
1
1
1
1
1
1
1
1
1
1
1
1
1
1
1
1
1
1
1
1
1
1
1
1
1
1
1
1
1
1
1
1
1
1
1
1
1
1
1
1
1
1
1
1
1
1
1
1
1
1
1
1
1
1
1
1
1
1
1
1
1
1
1
1
1
1
1
1
1
1
1
1
1
1
1
1
1
1
1
1
1
1
1
1
1
1
1
1
1
1
1
1
1
1
1
1
1
1
1
1
1
1
1
1
1
1
1
1
1
1
1
1
1
1
1
1
1
1
1
1
1
1
1
1
1
1
1
1
1
1
1
1
1
1
1
1
1
1
1
1
1
1
1
1
1
1
1
1
1
1
1
1
1
1
1
1
1
1
1
1
1
1
1
1
1
1
1
1
1
1
1
1
1
1
1
1
1
1
1
1
1
1
1
1
1
1
1
1
1
1
1
1
1
1
1
1
1
1
1
1
1
1
1
1
1
1
1
1
1
1
1
1
1
1
1
1
1
1
1
1
1
1
1
1
1
1
1
1
1
1
1
1
1
1
1
1
1
1
1
1
1
1
1
1
1
1
1
1
1
1
1
1
1
1
1
1
1
1
1
1
1
1
1
1
1
1
1
1
1
1
1
1
1
1
1
1
1
1
1
1
1
1
1
1
1
1
1
1
1
1
1
1
1
1
1
1
1
1
1
1
1
1
1
1
1
1
1
1
1
1
1
1
1
1
1
1
1
1
1
1
1
1
1
1
1
1
1
1
1
1
1
1
1
1
1
1
1
1
1
1
1
1
1
1
1
1
1
1
1
1
1
1
1
1
1
1
1
1
1
1
1
1
1
1
1
1
1
1
1
1
1
1
1
1
1
1
1
1
1
1
1
1
1
1
1
1
1
1
1
1
1
1
1
1
1
1
1
1
1
1
1
1
1
1
1
1
1
1
1
1
1
1
1
1
1
1
1
1
1
1
1
1
1
1
1
1
1
1
1
1
1
1
1
1
1
1
1
1
1
1
1
1
1
1
1
1
1
1
1
1
1
1
1
1
1
1
1
1
1
1
1
1
1
1
1
1
1
1
1
1
1
1
1
1
1
1
1
1
1
1
1
1
1
1
1
1
1
1
1
1
1
1
1
1
1
1
1
1
1
1
1
1
1
1
1
1
1
1
1
1
1
1
1
1
1
1
1
1
1
1
1
1
1
1
1
1
1
1
1
1
1
1
1
1
1
1
1
1
1
1
1
1
1
1
1
1
1
1
1
1
1
1
1
1
1
1
1
1
1.29233
1.73938
2.33081
2.93585
3.50396
4.19721
4.68397
5.07279
5.33371
5.24916
4.95728
4.49614
4.06284
3.75618
3.65868
3.58621
3.56441
3.59339
3.63203
3.6659
3.69146
3.71044
3.72709
3.74672
3.76181
3.76545
3.76586
3.76319
3.76265
3.76119
3.75689
3.75542
3.75838
3.76855
3.78456
3.79454
3.79506
3.79322
3.78803
3.77871
3.77095
3.76978
3.77009
3.77134
3.77392
3.77485
3.77499
3.77227
1.00219
1.01953
1.06344
1.20072
1.41895
1.7539
2.22742
2.7488
3.3381
3.70958
3.92277
4.04611
4.01662
3.93938
3.84579
3.78293
3.72119
3.70694
3.67391
3.66298
3.67306
3.69402
3.71595
3.73933
3.76113
3.76917
3.7733
3.77289
3.7685
3.76635
3.76623
3.76724
3.76979
3.77236
3.77506
3.7778
3.77727
3.77467
3.77046
3.76692
3.76623
3.76682
3.76818
3.77162
3.77674
3.77885
3.77884
3.77817
1
0.99999
0.999993
1.00005
1.00155
1.01245
1.06457
1.2191
1.61043
2.34418
3.33026
3.93499
4.27996
4.3148
4.25251
4.12699
3.97314
3.76751
3.65927
3.64277
3.65276
3.67113
3.69096
3.71703
3.74636
3.76417
3.77289
3.77859
3.77966
3.78096
3.7835
3.78494
3.78633
3.78638
3.78394
3.77909
3.77374
3.76817
3.76321
3.76044
3.76016
3.76064
3.76243
3.76746
3.77463
3.77815
3.77857
3.78099
1
1
1
1
0.999999
0.99998
1.00006
1.0001
1.00562
1.07481
1.40006
2.16341
3.06217
3.96803
4.05318
4.01422
3.99909
3.92167
3.80779
3.7401
3.71468
3.69301
3.67618
3.68318
3.70118
3.71752
3.73606
3.75092
3.76042
3.76709
3.77305
3.77771
3.78143
3.78278
3.78222
3.77987
3.77548
3.77098
3.76783
3.7661
3.76599
3.76708
3.76961
3.77384
3.77831
3.77891
3.77692
3.77758
1
1
1
1
1
0.999999
1
1
1
0.999934
1.00149
1.04933
1.28073
2.0031
2.87792
3.59865
4.05444
4.0797
4.01963
3.93074
3.83775
3.75005
3.71292
3.69606
3.69123
3.70133
3.7139
3.72507
3.73529
3.74353
3.74915
3.75253
3.75725
3.7663
3.77115
3.77155
3.77164
3.77103
3.7702
3.76991
3.77127
3.77436
3.77884
3.78313
3.78539
3.78428
3.78097
3.77972
1
1
1
1
1
1
1
1
1
0.999997
0.999998
0.999954
1.00074
1.02755
1.24639
1.77022
2.73347
3.35567
3.85592
3.92954
3.92345
3.85812
3.80433
3.77534
3.75409
3.72839
3.71091
3.70853
3.71362
3.731
3.74809
3.75925
3.76805
3.77465
3.77604
3.77596
3.77607
3.77523
3.7733
3.77219
3.77277
3.77506
3.77901
3.78139
3.78007
3.7768
3.77146
3.76877
1
1
1
1
1
1
1
1
1
1
1
0.999997
0.999998
0.999961
1.00073
1.01532
1.19154
1.69224
2.56322
3.25691
3.61025
3.83248
3.84089
3.8333
3.79107
3.75149
3.73793
3.72828
3.72362
3.72808
3.74314
3.76551
3.78418
3.78682
3.78412
3.78204
3.78076
3.7792
3.77517
3.77244
3.77094
3.77149
3.77525
3.77624
3.77402
3.77046
3.7652
3.76429
1
1
1
1
1
1
1
1
1
1
1
1
1
0.999997
0.999998
0.999975
1.00059
1.01528
1.13365
1.63195
2.33088
3.25734
3.54331
3.67182
3.70911
3.69359
3.71043
3.71192
3.70459
3.70978
3.72464
3.74302
3.75806
3.77074
3.7762
3.77567
3.77315
3.76955
3.76783
3.76714
3.76761
3.77304
3.77755
3.77827
3.77756
3.77594
3.77246
3.77174
1
1
1
1
1
1
1
1
1
1
1
1
1
1
1
0.999998
0.999998
0.999982
1.00026
1.01508
1.10913
1.53147
2.29905
3.06821
3.59022
3.66693
3.71945
3.71671
3.70197
3.70077
3.70437
3.71508
3.72471
3.73699
3.74859
3.75558
3.75933
3.76107
3.76344
3.76568
3.76841
3.77371
3.7773
3.77891
3.78
3.77909
3.77592
3.77419
1
1
1
1
1
1
1
1
1
1
1
1
1
1
1
1
1
0.999999
0.999998
0.999985
1.00025
1.01022
1.12638
1.47643
2.25111
2.95114
3.5158
3.71362
3.73287
3.73869
3.74384
3.74011
3.73413
3.7337
3.74037
3.74796
3.75208
3.75654
3.76068
3.76499
3.77146
3.77495
3.77521
3.77636
3.77841
3.77741
3.77436
3.77227
1
1
1
1
1
1
1
1
1
1
1
1
1
1
1
1
1
1
1
0.999998
0.999998
0.999985
1.00048
1.00848
1.11736
1.48727
2.22456
2.92828
3.39962
3.65399
3.74755
3.76317
3.76169
3.75901
3.75255
3.75609
3.76554
3.77157
3.77811
3.7846
3.7892
3.78869
3.78495
3.78235
3.77995
3.77584
3.77165
3.76902
1
1
1
1
1
1
1
1
1
1
1
1
1
1
1
1
1
1
1
1
1
0.999998
0.999998
0.999988
1.00058
1.0111
1.10243
1.52553
2.22245
3.07139
3.39438
3.5581
3.68069
3.73017
3.72898
3.73628
3.75129
3.76364
3.77388
3.78093
3.78355
3.78403
3.78243
3.78152
3.78171
3.78015
3.77729
3.77573
1
1
1
1
1
1
1
1
1
1
1
1
1
1
1
1
1
1
1
1
1
1
1
0.999998
0.999999
0.999991
1.00047
1.01689
1.11493
1.57106
2.3032
3.1498
3.54651
3.61206
3.65914
3.68503
3.70684
3.72726
3.74317
3.75513
3.76421
3.77024
3.77248
3.77061
3.76988
3.76947
3.76956
3.77114
1
1
1
1
1
1
1
1
1
1
1
1
1
1
1
1
1
1
1
1
1
1
1
1
1
0.999999
0.999999
1
1.00067
1.02161
1.16023
1.64979
2.46681
3.19936
3.63503
3.7168
3.73716
3.75365
3.75299
3.7536
3.75926
3.76304
3.76213
3.76075
3.76071
3.76065
3.76257
3.76623
1
1
1
1
1
1
1
1
1
1
1
1
1
1
1
1
1
1
1
1
1
1
1
1
1
1
1
1
0.999998
1.00002
1.00152
1.02863
1.24602
1.811
2.6678
3.29785
3.64632
3.77216
3.7834
3.7875
3.78532
3.78263
3.77895
3.77436
3.77488
3.77505
3.77619
3.77762
1
1
1
1
1
1
1
1
1
1
1
1
1
1
1
1
1
1
1
1
1
1
1
1
1
1
1
1
1
1
0.999997
1.00007
1.00416
1.04932
1.37458
2.08875
2.9884
3.39133
3.59015
3.73973
3.76058
3.75852
3.76415
3.77365
3.7792
3.78365
3.78621
3.7868
1
1
1
1
1
1
1
1
1
1
1
1
1
1
1
1
1
1
1
1
1
1
1
1
1
1
1
1
1
1
1
1
0.999996
1.00024
1.01185
1.1028
1.58097
2.4019
3.33166
3.59894
3.6659
3.68925
3.7057
3.73014
3.75088
3.76371
3.77211
3.77717
1
1
1
1
1
1
1
1
1
1
1
1
1
1
1
1
1
1
1
1
1
1
1
1
1
1
1
1
1
1
1
1
0.999999
0.999999
1.00001
1.00098
1.03177
1.22322
1.93092
2.82853
3.49429
3.71461
3.73819
3.76326
3.76486
3.76365
3.7663
3.7741
1
1
1
1
1
1
1
1
1
1
1
1
1
1
1
1
1
1
1
1
1
1
1
1
1
1
1
1
1
1
1
1
1
1
1
0.999998
1.00015
1.00453
1.09045
1.48147
2.38911
3.16876
3.62944
3.7866
3.7967
3.79861
3.79622
3.79528
1
1
1
1
1
1
1
1
1
1
1
1
1
1
1
1
1
1
1
1
1
1
1
1
1
1
1
1
1
1
1
1
1
1
1
1
1
1
1.00113
1.02051
1.25075
1.95683
2.99984
3.44395
3.60638
3.72953
3.76427
3.76685
1
1
1
1
1
1
1
1
1
1
1
1
1
1
1
1
1
1
1
1
1
1
1
1
1
1
1
1
1
1
1
1
1
1
1
1
1
1
0.999999
1.00009
1.0081
1.09642
1.60964
2.56335
3.44677
3.66652
3.70789
3.71679
1
1
1
1
1
1
1
1
1
1
1
1
1
1
1
1
1
1
1
1
1
1
1
1
1
1
1
1
1
1
1
1
1
1
1
1
1
1
1
1
1.00002
1.00137
1.04371
1.3378
2.24213
3.18612
3.69441
3.77913
1
1
1
1
1
1
1
1
1
1
1
1
1
1
1
1
1
1
1
1
1
1
1
1
1
1
1
1
1
1
1
1
1
1
1
1
1
1
1
1
1
1
1.00044
1.01392
1.21539
1.926
2.91758
3.42745
1
1
1
1
1
1
1
1
1
1
1
1
1
1
1
1
1
1
1
1
1
1
1
1
1
1
1
1
1
1
1
1
1
1
1
1
1
1
1
1
1
1
0.999999
1.00008
1.00711
1.09567
1.69588
2.64743
1
1
1
1
1
1
1
1
1
1
1
1
1
1
1
1
1
1
1
1
1
1
1
1
1
1
1
1
1
1
1
1
1
1
1
1
1
1
1
1
1
1
1
1
1.00002
1.00183
1.07474
1.42614
1
1
1
1
1
1
1
1
1
1
1
1
1
1
1
1
1
1
1
1
1
1
1
1
1
1
1
1
1
1
1
1
1
1
1
1
1
1
1
1
1
1
1
1
1
1
1.0018
1.01727
1
1
1
1
1
1
1
1
1
1
1
1
1
1
1
1
1
1
1
1
1
1
1
1
1
1
1
1
1
1
1
1
1
1
1
1
1
1
1
1
1
1
1
1
1
1
1.00002
0.999837
1
1
1
1
1
1
1
1
1
1
1
1
1
1
1
1
1
1
1
1
1
1
1
1
1
1
1
1
1
1
1
1
1
1
1
1
1
1
1
1
1
1
1
1
1
1
1
0.999941
1
1
1
1
1
1
1
1
1
1
1
1
1
1
1
1
1
1
1
1
1
1
1
1
1
1
1
1
1
1
1
1
1
1
1
1
1
1
1
1
1
1
1
1
1
1
1
0.999991
1
1
1
1
1
1
1
1
1
1
1
1
1
1
1
1
1
1
1
1
1
1
1
1
1
1
1
1
1
1
1
1
1
1
1
1
1
1
1
1
1
1
1
1
1
1
1
1
1
1
1
1
1
1
1
1
1
1
1
1
1
1
1
1
1
1
1
1
1
1
1
1
1
1
1
1
1
1
1
1
1
1
1
1
1
1
1
1
1
1
1
1
1
1
1
1
1
1
1
1
1
1
1
1
1
1
1
1
1
1
1
1
1
1
1
1
1
1
1
1
1
1
1
1
1
1
1
1
1
1
1
1
1
1
1
1
1
1
1
1
1
1
1
1
1
1
1
1
1
1
1
1
1
1
1
1
1
1
1
1
1
1
1
1
1
1
1
1
1
1
1
1
1
1
1
1
1
1
1
1
1
1
1
1
1
1
1
1
1
1
1
1
1
1
1
1
1
1
1
1
1
1
1
1
1
1
1
1
1
1
1
1
1
1
1
1
1
1
1
1
1
1
1
1
1
1
1
1
1
1
1
1
1
1
1
1
1
1
1
1
1
1
1
1
1
1
1
1
1
1
1
1
1
1
1
1
1
1
1
1
1
1
1
1
1
1
1
1
1
1
1
1
1
1
1
1
1
1
1
1
1
1
1
1
1
1
1
1
1
1
1
1
1
1
1
1
1
1
1
1
1
1
1
1
1
1
1
1
1
1
1
1
1
1
1
1
1
1
1
1
1
1
1
1
1
1
1
1
1
1
1
1
1
1
1
0.999991
1
1
1
1
1
1
1
1
1
1
1
1
1
1
1
1
1
1
1
1
1
1
1
1
1
1
1
1
1
1
1
1
1
1
1
1
1
1
1
1
1
1
1
1
1
1
1
0.99994
1
1
1
1
1
1
1
1
1
1
1
1
1
1
1
1
1
1
1
1
1
1
1
1
1
1
1
1
1
1
1
1
1
1
1
1
1
1
1
1
1
1
1
1
1
1
1.00002
0.999837
1
1
1
1
1
1
1
1
1
1
1
1
1
1
1
1
1
1
1
1
1
1
1
1
1
1
1
1
1
1
1
1
1
1
1
1
1
1
1
1
1
1
1
1
1
1
1.00177
1.01731
1
1
1
1
1
1
1
1
1
1
1
1
1
1
1
1
1
1
1
1
1
1
1
1
1
1
1
1
1
1
1
1
1
1
1
1
1
1
1
1
1
1
1
1
1.00002
1.00184
1.07455
1.42461
1
1
1
1
1
1
1
1
1
1
1
1
1
1
1
1
1
1
1
1
1
1
1
1
1
1
1
1
1
1
1
1
1
1
1
1
1
1
1
1
1
1
0.999999
1.00008
1.0071
1.09577
1.69501
2.64664
1
1
1
1
1
1
1
1
1
1
1
1
1
1
1
1
1
1
1
1
1
1
1
1
1
1
1
1
1
1
1
1
1
1
1
1
1
1
1
1
1
1
1.00044
1.01394
1.21545
1.92612
2.91504
3.43035
1
1
1
1
1
1
1
1
1
1
1
1
1
1
1
1
1
1
1
1
1
1
1
1
1
1
1
1
1
1
1
1
1
1
1
1
1
1
1
1
1.00002
1.00137
1.0437
1.33776
2.24311
3.18524
3.69379
3.78099
1
1
1
1
1
1
1
1
1
1
1
1
1
1
1
1
1
1
1
1
1
1
1
1
1
1
1
1
1
1
1
1
1
1
1
1
1
1
0.999999
1.00009
1.0081
1.09643
1.60949
2.56339
3.4474
3.66588
3.70725
3.71717
1
1
1
1
1
1
1
1
1
1
1
1
1
1
1
1
1
1
1
1
1
1
1
1
1
1
1
1
1
1
1
1
1
1
1
1
1
1
1.00113
1.02051
1.25077
1.95679
2.99976
3.44424
3.60644
3.72915
3.76387
3.76699
1
1
1
1
1
1
1
1
1
1
1
1
1
1
1
1
1
1
1
1
1
1
1
1
1
1
1
1
1
1
1
1
1
1
1
0.999998
1.00015
1.00453
1.09045
1.48146
2.38919
3.16863
3.62951
3.78664
3.79662
3.79855
3.79614
3.79531
1
1
1
1
1
1
1
1
1
1
1
1
1
1
1
1
1
1
1
1
1
1
1
1
1
1
1
1
1
1
1
1
0.999999
0.999999
1.00001
1.00098
1.03177
1.22322
1.93091
2.82853
3.49432
3.71458
3.73824
3.76324
3.76482
3.76364
3.7663
3.77412
1
1
1
1
1
1
1
1
1
1
1
1
1
1
1
1
1
1
1
1
1
1
1
1
1
1
1
1
1
1
1
1
0.999996
1.00024
1.01185
1.1028
1.58097
2.40189
3.33166
3.59896
3.66591
3.68925
3.7057
3.73011
3.75086
3.7637
3.77212
3.77719
1
1
1
1
1
1
1
1
1
1
1
1
1
1
1
1
1
1
1
1
1
1
1
1
1
1
1
1
1
1
0.999997
1.00007
1.00416
1.04932
1.37458
2.08874
2.98841
3.39132
3.59015
3.73974
3.76057
3.75852
3.76415
3.77364
3.77919
3.78365
3.78622
3.78681
1
1
1
1
1
1
1
1
1
1
1
1
1
1
1
1
1
1
1
1
1
1
1
1
1
1
1
1
0.999998
1.00002
1.00152
1.02863
1.24602
1.811
2.6678
3.29785
3.64632
3.77215
3.78341
3.7875
3.78532
3.78263
3.77895
3.77436
3.77488
3.77505
3.77619
3.77763
1
1
1
1
1
1
1
1
1
1
1
1
1
1
1
1
1
1
1
1
1
1
1
1
1
0.999999
0.999999
1
1.00067
1.02161
1.16023
1.64979
2.46681
3.19936
3.63503
3.71681
3.73716
3.75365
3.75299
3.7536
3.75926
3.76304
3.76213
3.76075
3.76071
3.76065
3.76257
3.76624
1
1
1
1
1
1
1
1
1
1
1
1
1
1
1
1
1
1
1
1
1
1
1
0.999998
0.999999
0.999991
1.00047
1.01689
1.11493
1.57106
2.3032
3.1498
3.54651
3.61206
3.65914
3.68503
3.70684
3.72726
3.74317
3.75513
3.76421
3.77024
3.77248
3.77061
3.76988
3.76947
3.76956
3.77115
1
1
1
1
1
1
1
1
1
1
1
1
1
1
1
1
1
1
1
1
1
0.999998
0.999998
0.999988
1.00058
1.0111
1.10243
1.52553
2.22245
3.07139
3.39438
3.5581
3.68069
3.73017
3.72898
3.73628
3.75129
3.76364
3.77388
3.78093
3.78355
3.78403
3.78243
3.78152
3.78171
3.78015
3.77729
3.77573
1
1
1
1
1
1
1
1
1
1
1
1
1
1
1
1
1
1
1
0.999998
0.999998
0.999985
1.00048
1.00848
1.11736
1.48727
2.22456
2.92828
3.39962
3.65399
3.74755
3.76317
3.76169
3.75901
3.75255
3.75609
3.76554
3.77157
3.77811
3.7846
3.7892
3.78869
3.78495
3.78235
3.77995
3.77584
3.77165
3.76902
1
1
1
1
1
1
1
1
1
1
1
1
1
1
1
1
1
0.999999
0.999998
0.999985
1.00025
1.01022
1.12638
1.47643
2.25111
2.95114
3.5158
3.71362
3.73287
3.73869
3.74384
3.74011
3.73413
3.7337
3.74037
3.74796
3.75208
3.75654
3.76068
3.76499
3.77146
3.77495
3.77521
3.77636
3.77841
3.77741
3.77436
3.77227
1
1
1
1
1
1
1
1
1
1
1
1
1
1
1
0.999998
0.999998
0.999982
1.00026
1.01508
1.10913
1.53146
2.29905
3.06821
3.59022
3.66693
3.71945
3.71671
3.70197
3.70077
3.70437
3.71508
3.72471
3.73699
3.74859
3.75558
3.75933
3.76107
3.76344
3.76568
3.7684
3.77371
3.7773
3.77891
3.78
3.77909
3.77592
3.77419
1
1
1
1
1
1
1
1
1
1
1
1
1
0.999997
0.999998
0.999975
1.00059
1.01528
1.13365
1.63195
2.33088
3.25734
3.54331
3.67182
3.70911
3.69359
3.71043
3.71192
3.70459
3.70978
3.72464
3.74302
3.75806
3.77074
3.7762
3.77567
3.77315
3.76955
3.76783
3.76714
3.76761
3.77304
3.77755
3.77827
3.77756
3.77594
3.77246
3.77174
1
1
1
1
1
1
1
1
1
1
1
0.999997
0.999998
0.999961
1.00073
1.01532
1.19154
1.69224
2.56322
3.25691
3.61025
3.83248
3.84089
3.8333
3.79107
3.75149
3.73793
3.72828
3.72362
3.72808
3.74314
3.76551
3.78418
3.78682
3.78412
3.78204
3.78076
3.7792
3.77517
3.77244
3.77094
3.77149
3.77525
3.77624
3.77402
3.77046
3.7652
3.76429
1
1
1
1
1
1
1
1
1
0.999997
0.999998
0.999954
1.00074
1.02755
1.24639
1.77022
2.73347
3.35567
3.85592
3.92954
3.92345
3.85812
3.80433
3.77534
3.75409
3.72839
3.71091
3.70853
3.71362
3.731
3.74809
3.75925
3.76805
3.77465
3.77604
3.77596
3.77607
3.77523
3.7733
3.77219
3.77277
3.77507
3.77901
3.78139
3.78007
3.7768
3.77146
3.76877
1
1
1
1
1
0.999999
1
1
1
0.999934
1.00149
1.04933
1.28073
2.0031
2.87792
3.59865
4.05444
4.0797
4.01963
3.93074
3.83775
3.75005
3.71292
3.69606
3.69123
3.70133
3.7139
3.72507
3.73529
3.74353
3.74915
3.75253
3.75725
3.7663
3.77115
3.77155
3.77164
3.77102
3.7702
3.76991
3.77127
3.77436
3.77884
3.78313
3.78539
3.78428
3.78097
3.77972
1
1
1
1
0.999999
0.99998
1.00006
1.0001
1.00562
1.07481
1.40006
2.16341
3.06217
3.96803
4.05318
4.01422
3.99909
3.92167
3.80779
3.7401
3.71468
3.69301
3.67618
3.68318
3.70118
3.71752
3.73606
3.75092
3.76042
3.76709
3.77305
3.77771
3.78143
3.78278
3.78222
3.77987
3.77548
3.77098
3.76783
3.7661
3.76599
3.76708
3.76961
3.77384
3.77831
3.77891
3.77692
3.77758
1
0.99999
0.999993
1.00005
1.00155
1.01245
1.06457
1.2191
1.61043
2.34418
3.33025
3.93499
4.27996
4.3148
4.25251
4.12699
3.97314
3.76751
3.65927
3.64277
3.65276
3.67113
3.69096
3.71703
3.74636
3.76417
3.77289
3.77859
3.77966
3.78097
3.7835
3.78494
3.78633
3.78638
3.78394
3.77909
3.77374
3.76817
3.76321
3.76044
3.76016
3.76064
3.76243
3.76746
3.77463
3.77815
3.77857
3.78099
1.00219
1.01953
1.06344
1.20072
1.41895
1.7539
2.22742
2.7488
3.3381
3.70958
3.92277
4.04611
4.01662
3.93938
3.84579
3.78293
3.72119
3.70694
3.67391
3.66298
3.67306
3.69402
3.71595
3.73933
3.76113
3.76917
3.7733
3.77289
3.7685
3.76635
3.76623
3.76724
3.76979
3.77236
3.77506
3.7778
3.77727
3.77467
3.77046
3.76692
3.76623
3.76682
3.76818
3.77162
3.77674
3.77885
3.77884
3.77817
1.29233
1.73938
2.33081
2.93585
3.50396
4.19721
4.68397
5.07279
5.33371
5.24916
4.95728
4.49614
4.06284
3.75618
3.65868
3.58621
3.56441
3.59339
3.63203
3.6659
3.69146
3.71044
3.72709
3.74672
3.76181
3.76545
3.76586
3.76319
3.76265
3.76119
3.75689
3.75542
3.75838
3.76855
3.78456
3.79454
3.79506
3.79322
3.78803
3.77871
3.77095
3.76978
3.77009
3.77134
3.77392
3.77485
3.77499
3.77227
2.66839
1.675
1.09968
0.890961
0.718552
0.637216
0.661122
0.729514
0.783973
0.821188
0.890052
0.995099
1.02428
1.0179
1.02483
1.04842
1.05067
1.05233
1.06366
1.07213
1.0713
1.06735
1.0676
1.0674
1.05633
1.04664
1.04657
1.04813
1.04784
1.04601
1.04353
1.04085
1.03698
1.03538
1.03574
1.03777
1.04365
1.0492
1.05029
1.05054
1.05014
1.04728
1.04579
1.04653
1.04811
1.0496
1.04981
1.0503
1.06028
1.24225
1.839
3.19395
5.27579
7.86337
10.3133
10.1459
9.27853
8.31573
8.0735
7.94549
7.72979
7.47882
7.31481
7.22302
7.14451
7.03731
6.90043
6.74079
6.50128
6.1881
5.99129
5.90116
5.83854
5.81854
5.78039
5.70504
5.57684
5.32841
5.12379
5.05342
5.00304
4.97235
4.93265
4.87091
4.77913
4.59342
4.36818
4.2803
4.24136
4.21859
4.22423
4.20202
4.15949
4.09477
3.9423
3.74794
3.66203
3.62472
3.59461
3.57091
3.54365
3.50526
3.44001
3.33414
3.256
3.22319
3.19518
3.16469
3.12761
3.06897
2.96596
2.8669
2.83125
2.81269
2.79677
2.78716
2.77167
2.74836
2.7023
2.60361
2.49868
2.45895
2.43944
2.42445
2.41508
2.40275
2.3856
2.36451
2.32529
2.25798
2.20978
2.19033
2.1754
2.15724
2.12835
2.07585
2.0259
2.00404
1.98984
1.97627
1.96125
1.94364
1.92376
1.88524
1.88694
1.96654
2.26597
2.90794
3.74065
4.46235
5.14291
5.58417
5.63197
5.50056
5.37154
5.25631
5.18968
5.13083
5.06206
4.96971
4.86642
4.81397
4.7934
4.77821
4.7548
4.71888
4.6609
4.56396
4.48175
4.4498
4.43002
4.42576
4.43398
4.41434
4.3871
4.34725
4.25907
4.1369
4.07265
4.04436
4.02228
4.00456
3.99405
3.98309
3.96782
3.94633
3.90656
3.8394
3.77698
3.74337
3.72314
3.68533
3.37702
2.78364
2.12007
1.74991
1.52002
1.23639
1.11054
1.06585
0.994261
0.936931
0.934731
0.945736
0.937682
0.936856
0.948355
0.976771
0.994008
1.00403
1.02247
1.0429
1.04537
1.04648
1.05058
1.05347
1.05049
1.04725
1.0475
1.05023
1.05159
1.04991
1.04823
1.04654
1.04357
1.04246
1.04207
1.04327
1.04738
1.04959
1.04977
1.0498
1.04905
1.04676
1.04553
1.04583
1.04632
1.04647
1.04749
1.05797
1.22552
1.96902
2.76628
3.19495
3.9585
4.83962
6.67594
8.06729
8.60319
8.41241
8.22564
8.00052
7.74774
7.53291
7.37539
7.21503
7.07202
6.96388
6.85594
6.72166
6.53004
6.28755
6.08415
5.95413
5.87177
5.80198
5.73442
5.65378
5.54757
5.37474
5.17209
5.06032
5.00196
4.94816
4.90079
4.84201
4.76495
4.63396
4.44173
4.31303
4.26447
4.22851
4.19466
4.16912
4.12767
4.06347
3.94858
3.78931
3.68782
3.63909
3.60294
3.57062
3.54199
3.51266
3.46335
3.3766
3.29316
3.24914
3.21837
3.18559
3.14471
3.08217
2.98464
2.89029
2.84078
2.8176
2.8007
2.78211
2.75961
2.7336
2.6982
2.62355
2.52582
2.48279
2.46446
2.44803
2.43586
2.42259
2.40428
2.38007
2.34012
2.27962
2.23401
2.21159
2.19454
2.17379
2.1439
2.09839
2.05296
2.02614
2.00882
1.99395
1.98105
1.96521
1.95418
1.97825
2.11353
2.4032
2.77346
3.10094
3.43857
3.89518
4.36721
4.74898
4.92168
5.10283
5.22597
5.2495
5.22414
5.16172
5.08504
5.00586
4.92159
4.84641
4.80734
4.78517
4.75678
4.7161
4.65897
4.58482
4.51287
4.46607
4.43995
4.42376
4.41496
4.39908
4.37211
4.33229
4.25971
4.15942
4.0936
4.06306
4.04261
4.02951
4.01665
4.00134
3.98458
3.96147
3.92043
3.85252
3.794
3.7623
3.74237
3.70449
3.66459
3.34599
2.86192
2.3544
1.99957
1.65466
1.39069
1.2673
1.1441
0.993512
0.966305
0.962159
0.935447
0.925164
0.931849
0.9425
0.951141
0.963948
0.985109
1.01881
1.02955
1.03134
1.03603
1.04285
1.04377
1.0439
1.04779
1.05497
1.05776
1.05722
1.05468
1.04919
1.04507
1.04432
1.04433
1.04634
1.04855
1.04849
1.04828
1.04744
1.04537
1.04483
1.04501
1.04586
1.04661
1.05012
1.07355
1.23652
2.08762
2.94787
3.29973
3.39492
3.47381
3.57301
4.14928
5.94053
7.91472
8.58127
8.40192
8.04132
7.75402
7.62761
7.46605
7.23688
6.98789
6.83066
6.72958
6.60434
6.46261
6.34105
6.20851
6.07267
5.92932
5.80391
5.69758
5.58846
5.46931
5.34753
5.21277
5.08243
4.99612
4.93625
4.87303
4.79809
4.70942
4.60962
4.50091
4.37497
4.28231
4.23583
4.19224
4.13994
4.07443
3.99538
3.90407
3.80927
3.71863
3.65687
3.62081
3.58752
3.54468
3.49101
3.42616
3.35108
3.27963
3.21965
3.1727
3.1332
3.09168
3.03974
2.97939
2.9148
2.85149
2.81698
2.79819
2.77903
2.75487
2.71844
2.6623
2.5975
2.5499
2.5178
2.47666
2.42504
2.39578
2.38345
2.36918
2.34797
2.31541
2.27713
2.24031
2.20092
2.16882
2.14734
2.12174
2.08888
2.05273
2.01473
1.989
1.97555
1.9741
1.98694
2.04305
2.24445
2.66829
2.99095
3.22059
3.28764
3.33698
3.42756
3.62608
3.94287
4.38401
4.81749
5.07449
5.22386
5.24137
5.20878
5.12549
5.06116
4.99036
4.88786
4.7718
4.71513
4.69535
4.66734
4.62193
4.57973
4.55085
4.51736
4.46896
4.42812
4.4003
4.37036
4.3332
4.28526
4.22096
4.15904
4.12175
4.0903
4.05656
4.02282
3.99705
3.97648
3.95565
3.9282
3.88448
3.82591
3.78113
3.75101
3.72877
3.68829
3.75429
3.62234
3.3287
2.8954
2.49732
2.13549
1.79869
1.60958
1.45235
1.24045
1.16369
1.119
1.03489
0.977846
0.979543
0.969937
0.949119
0.944818
0.952741
0.964084
0.972466
0.980557
0.992892
1.01474
1.02658
1.03413
1.0445
1.05026
1.05149
1.05219
1.05057
1.04698
1.04651
1.04806
1.05306
1.05795
1.05818
1.05684
1.05417
1.04939
1.04524
1.04467
1.04451
1.04566
1.05248
1.12112
1.39587
2.08879
3.20045
3.3828
3.41324
3.43009
3.4516
3.41756
3.36773
3.67303
5.03312
7.17684
7.75513
7.8352
7.85782
7.75108
7.5412
7.2793
7.03198
6.79852
6.62994
6.50986
6.41693
6.3437
6.27209
6.16631
6.00887
5.81363
5.65549
5.5308
5.42368
5.33977
5.2617
5.15589
5.02497
4.90581
4.82031
4.7434
4.67806
4.62519
4.56269
4.46565
4.34998
4.23499
4.15445
4.08343
4.00649
3.93991
3.89247
3.84903
3.78462
3.7084
3.62431
3.55918
3.50679
3.45324
3.403
3.35509
3.30027
3.23839
3.17371
3.11411
3.06307
3.02014
2.98563
2.9455
2.89568
2.84084
2.79416
2.76611
2.733
2.68127
2.62106
2.59205
2.5758
2.54797
2.50129
2.44221
2.39128
2.36491
2.34885
2.33408
2.31713
2.29335
2.26028
2.21427
2.16725
2.13794
2.12329
2.10113
2.06635
2.02423
1.99635
1.98954
2.0127
2.15233
2.4299
2.88645
3.25136
3.31971
3.34781
3.34951
3.33273
3.3197
3.32706
3.38477
3.58833
3.98636
4.50358
4.87181
5.05483
5.14786
5.16498
5.13752
5.05946
4.9303
4.78805
4.69319
4.65913
4.6371
4.62124
4.60844
4.58782
4.5577
4.50777
4.44411
4.38731
4.3443
4.3014
4.24833
4.20877
4.18758
4.16021
4.12466
4.08012
4.03528
4.00134
3.97734
3.95231
3.91309
3.85808
3.81246
3.7867
3.76164
3.73585
3.68892
3.76748
3.7346
3.59643
3.295
2.95035
2.58146
2.20732
1.96522
1.77122
1.51833
1.37053
1.28007
1.17275
1.05813
1.03718
1.01145
0.9638
0.950994
0.95832
0.958376
0.954258
0.955932
0.963377
0.978397
0.999136
1.0174
1.0334
1.03952
1.04155
1.04452
1.04406
1.04094
1.04101
1.04829
1.05793
1.05999
1.05976
1.05834
1.05497
1.04991
1.04738
1.04711
1.04771
1.05267
1.14132
1.67983
2.40782
3.18086
3.51718
3.497
3.41978
3.40024
3.40056
3.40126
3.32423
3.24972
3.36634
4.29747
6.07672
7.31882
7.81254
7.77473
7.56934
7.34128
7.11896
6.84169
6.56932
6.44073
6.35388
6.29723
6.21992
6.12628
6.00236
5.81586
5.62159
5.49699
5.40833
5.32608
5.24216
5.1562
5.04019
4.88545
4.77578
4.71076
4.65052
4.58828
4.53357
4.48548
4.40404
4.25218
4.10177
4.01989
3.96523
3.91829
3.8734
3.83028
3.79585
3.75078
3.66804
3.55662
3.47794
3.42562
3.38037
3.33572
3.28624
3.21951
3.14294
3.08914
3.05366
3.02156
2.98673
2.95287
2.9192
2.87448
2.81731
2.74894
2.68658
2.64088
2.61562
2.59534
2.57118
2.54365
2.51127
2.46586
2.40764
2.35849
2.32837
2.3064
2.28639
2.26744
2.2456
2.21855
2.1839
2.13795
2.09246
2.06486
2.04809
2.02694
2.02682
2.07327
2.29689
2.66843
3.05351
3.35773
3.38917
3.41792
3.4216
3.41048
3.36881
3.32532
3.2989
3.26277
3.25761
3.3498
3.66791
4.23665
4.70435
5.03675
5.1476
5.12707
5.04367
4.93402
4.8193
4.71838
4.66272
4.63193
4.60518
4.58514
4.56616
4.54529
4.51741
4.46394
4.39322
4.33188
4.2784
4.22881
4.19838
4.17373
4.14737
4.11717
4.08422
4.04869
4.0117
3.97605
3.93644
3.89074
3.84641
3.81162
3.7834
3.75178
3.72159
3.67594
3.76691
3.7514
3.70708
3.54638
3.29386
2.98598
2.61091
2.31719
2.08854
1.83942
1.65224
1.52661
1.39405
1.2472
1.19483
1.1493
1.07303
1.03203
1.02459
0.998191
0.971054
0.965246
0.967147
0.965886
0.969191
0.983392
0.999419
1.00574
1.0116
1.01955
1.02823
1.03037
1.03389
1.04586
1.05602
1.05745
1.05777
1.05737
1.05395
1.04976
1.04893
1.04994
1.05728
1.13847
1.76559
2.74481
3.27703
3.5585
3.566
3.50663
3.43366
3.35421
3.32266
3.31924
3.30559
3.23376
3.1511
3.1822
3.68311
5.1805
6.71942
7.3036
7.4421
7.36789
7.19804
6.89981
6.57397
6.39364
6.30995
6.24972
6.18783
6.09299
5.98074
5.81647
5.60995
5.47337
5.38787
5.31288
5.24196
5.1649
5.05807
4.89741
4.74202
4.67036
4.61906
4.57609
4.53504
4.48187
4.39902
4.25267
4.07621
3.98176
3.93577
3.89823
3.87286
3.85663
3.82301
3.76446
3.65459
3.52196
3.44774
3.40398
3.36681
3.33188
3.28978
3.21399
3.11065
3.06511
3.04454
3.03289
3.02302
2.99988
2.9696
2.91957
2.81331
2.68826
2.64148
2.62665
2.62136
2.61494
2.59511
2.57467
2.55167
2.50928
2.42306
2.33515
2.30067
2.28261
2.26833
2.25936
2.25235
2.23755
2.2074
2.15146
2.09136
2.06296
2.05457
2.06798
2.17251
2.45741
2.95927
3.2639
3.4603
3.51047
3.46355
3.44123
3.43402
3.41811
3.38533
3.34284
3.29891
3.25473
3.20747
3.19192
3.23152
3.46845
3.92883
4.45913
4.81631
4.93599
4.95443
4.92861
4.85691
4.75999
4.67768
4.64236
4.61474
4.59098
4.56793
4.54252
4.50897
4.45959
4.39022
4.31385
4.25379
4.22
4.1974
4.17535
4.15145
4.12467
4.09719
4.0681
4.02978
3.96998
3.90759
3.86471
3.83794
3.81638
3.7928
3.76039
3.72498
3.67409
3.76336
3.75607
3.73166
3.67039
3.52843
3.28147
2.96144
2.67949
2.41378
2.1343
1.94102
1.7803
1.62724
1.4737
1.38091
1.3005
1.19364
1.12064
1.08979
1.04795
0.99239
0.980783
0.981552
0.972234
0.971503
0.979644
0.981413
0.979488
0.980149
0.984373
0.994785
1.0088
1.02313