/*--------------------------------*- C++ -*----------------------------------*\
  =========                 |
  \\      /  F ield         | OpenFOAM: The Open Source CFD Toolbox
   \\    /   O peration     | Website:  https://openfoam.org
    \\  /    A nd           | Version:  7
     \\/     M anipulation  |
\*---------------------------------------------------------------------------*/
FoamFile
{
    version     2.0;
    format      ascii;
    class       volScalarField;
    location    "3.2";
    object      T;
}
// * * * * * * * * * * * * * * * * * * * * * * * * * * * * * * * * * * * * * //

dimensions      [0 0 0 1 0 0 0];

internalField   nonuniform List<scalar> 
18432
(
1
1
1
1
1
1
1
1
1
1
1
1
1
1
1
1
1
1
1
1
1
1
1
1
1
1
1
1
1
1
1
1
1
1
1
1
1
1
1
1
1
1
1
1
1
1
1
1
1
1
1
1
1
1
1
1
1
1
1
1
1
1
1
1
1
1
1
1
1
1
1
1
1
1
1
1
1
1
1
1
1
1
1
1
1
1
1
1
1
1
1
1
1
1
1
1
1
1
1
1
1
1
1
1
1
1
1
1
1
1
1
1
1
1
1
1
1
1
1
1
1
1
1
1
1
1
1
1
1
1
1
1
1
1
1
1
1
1
1
1
1
1
1
1
1
1
1
1
1
1
1
1
1
1
1
1
1
1
1
1
1
1
1
1
1
1
1
1
1
1
1
1
1
1
1
1
1
1
1
1
1
1
1
1
1
1
1
1
1
1
1
1
1
1
1
1
1
1
1
1
1
1
1
1
1
1
1
1
1
1
1
1
1
1
1
1
1
1
1
1
1
1
1
1
1
1
1
1
1
1
1
1
1
1
1
1
1
1
1
1
1
1
1
1
1
1
1
1
1
1
1
1
1
1
1
1
1
1
1
1
1
1
1
1
1
1
1
1
1
1
1
1
1
1
1
1
1
1
1
1
1
1
1
1
1
1
1
1
1
1
1
1
1
1
1
1
1
1
1
1
1
1
1
1
1
1
1
1
1
1
1
1
1
1
1
1
1
1
1
1
1
1
1
1
1
1
1
1
1
1
1
1
1
1
1
1
1
1
1
1
1
1
1
1
1
1
1
1
1
1
1
1
1
1
1
1
1
1
1
1
1
1
1
1
1
1
1
1
1
1
1
1
1
1
1
1
1
1
1
1
1
1
1
1
1
1
1
1
1
1
1
1
1
1
1
1
1
1
1
1
1
1
1
1
1
1
1
1
1
1
1
1
1
1
1
1
1
1
1
1
1
1
1
1
1
1
1
1
1
1
1
1
1
1
1
1
1
1
1
1
1
1
1
1
1
1
1
1
1
1
1
1
1
1
1
1
1
1
1
1
1
1
1
1
1
1
1
1
1
1
1
1
1
1
1
1
1
1
1
1
1
1
1
1
1
1
1
1
1
1
1
1
1
1
1
1
1
1
1
1
1
1
1
1
1
1
1
1
1
1
1
1
1
1
1
1
1
1
1
1
1
1
1
1
1
1
1
1
1
1
1
1
1
1
1
1
1
1
1
1
1
1
1
1
1
1
1
1
1
1
1
1
1
1
1
1
1
1
1
1
1
1
1
1
1
1
1
1
1
1
1
1
1
1
1
1
1
1
1
1
1
1
1
1
1
1
1
1
1
1
1
1
1
1
1
1
1
1
1
1
1
1
1
1
1
1
1
1
1
1
1
1
1
1
1
1
1
1
1
1
1
1
1
1
1
1
1
1
1
1
1
1
1
1
1
1
1
1
1
1
1
1
1
1
1
1
1
1
1
1
1
1
1
1
1
1
1
1
1
1
1
1
1
1
1
1
1
1
1
1
1
1
1
1
1
1
1
1
1
1
1
1
1
1
1
1
1
1
1
1
1
1
1
1
1
1
1
1
1
1
1
1
1
1
1
1
1
1
1
1
1
1
1
1
1
1
1
1
1
1
1
1
1
1
1
1
1
1
1
1
1
1
1
1
1
1
1
1
1
1
1
1
1
1
1
1
1
1
1
1
1
1
1
1
1
1
1
1
1
1
1
1
1
1
1
1
1
1
1
1
1
1
1
1
1
1
1
1
1
1
1
1
1
1
1
1
1
1
1
1
1
1
1
1
1
1
1
1
1
1
1
1
1
1
1
1
1
1
1
1
1
1
1
1
1
1
1
1
1
1
1
1
1
1
1
1
1
1
1
1
1
1
1
1
1
1
1
1
1
1
1
1
1
1
1
1
1
1
1
1
1
1
1
1
1
1
1
1
1
1
1
1
1
1
1
1
1
1
1
1
1
1
1
1
1
1
1
1
1
1
1
1
1
1
1
1
1
1
1
1
1
1
1
1
1
1
1
1
1
1
1
1
1
1
1
1
1
1
1
1
1
1
1
1
1
1
1
1
1
1
1
1
1
1
1
1
1
1
1
1
1
1
1
1
1
1
1
1
1
1
1
1
1
1
1
1
1
1
1
1
1
1
1
1
1
1
1
1
1
1
1
1
1
1
1
1
1
1
1
1
1
1
1
1
1
1
1
1
1
1
1
1
1
1
1
1
1
1
1
1
1
1
1
1
1
1
1
1
1
1
1
1
1
1
1
1
1
1
1
1
1
1
1
1
1
1
1
1
1
1
1
1
1
1
1
1
1
1
1
1
1
1
1
1
1
1
1
1
1
1
1
1
1
1
1
1
1
1
1
1
1
1
1
1
1
1
1
1
1
1
1
1
1
1
1
1
1
1
1
1
1
1
1
1
1
1
1
1
1
1
1
1
1
1
1
1
1
1
1
1
1
1
1
1
1
1
1
1
1
1
1
1
1
1
1
1
1
1
1
1
1
1
1
1
1
1
1
1
1
1
1
1
1
1
1
1
1
1
1
1
1
1
1
1
1
1
1
1
1
1
1
1
1
1
1
1
1
1
1
1
1
1
1
1
1
1
1
1
1
1
1
1
1
1
1
1
1
1
1
1
1
1
1
1
1
1
1
1
1
1
1
1
1
1
1
1
1
1
1
1
1
1
1
1
1
1
1
1
1
1
1
1
1
1
1
1
1
1
1
1
1
1
1
1
1
1
1
1
1
1
1
1
1
1
1
1
1
1
1
1
1
1
1
1
1
1
1
1
1
1
1
1
1
1
1
1
1
1
1
1
1
1
1
1
1
1
1
1
1
1
1
1
1
1
1
1
1
1
1
1
1
1
1
1
1
1
1
1
1
1
1
1
1
1
1
1
1
1
1
1
1
1
1
1
1
1
1
1
1
1
1
1
1
1
1
1
1
1
1
1
1
1
1
1
1
1
1
1
1
1
1
1
1
1
1
1
1
1
1
1
1
1
1
1
1
1
1
1
1
1
1
1
1
1
1
1
1
1
1
1
1
1
1
1
1
1
1
1
1
1
1
1
1
1
1
1
1
1
1
1
1
1
1
1
1
1
1
1
1
1
1
1
1
1
1
1
1
1
1
1
1
1
1
1
1
1
1
1
1
1
1
1
1
1
1
1
1
1
1
1
1
1
1
1
1
1
1
1
1
1
1
1
1
1
1
1
1
1
1
1
1
1
1
1
1
1
1
1
1
1
1
1
1
1
1
1
1
1
1
1
1
1
1
1
1
1
1
1
1
1
1
1
1
1
1
1
1
1
1
1
1
1
1
1
1
1
1
1
1
1
1
1
1
1
1
1
1
1
1
1
1
1
1
1
1
1
1
1
1
1
1
1
1
1
1
1
1
1
1
1
1
1
1
1
1
1
1
1
1
1
1
1
1
1
1
1
1
1
1
1
1
1
1
1
1
1
1
1
1
1
1
1
1
1
1
1
1
1
1
1
1
1
1
1
1
1
1
1
1
1
1
1
1
1
1
1
1
1
1
1
1
1
1
1
1
1
1
1
1
1
1
1
1
1
1
1
1
1
1
1
1
1
1
1
1
1
1
1
1
1
1
1
1
1
1
1
1
1
1
1
1
1
1
1
1
1
1
1
1
1
1
1
1
1
1
1
1
1
1
1
1
1
1
1
1
1
1
1
1
1
1
1
1
1
1
1
1
1
1
1
1
1
1
1
1
1
1
1
1
1
1
1
1
1
1
1
1
1
1
1
1
1
1
1
1
1
1
1
1
1
1
1
1
1
1
1
1
1
1
1
1
1
1
1
1
1
1
1
1
1
1
1
1
1
1
1
1
1
1
1
1
1
1
1
1
1
1
1
1
1
1
1
1
1
1
1
1
1
1
1
1
1
1
1
1
1
1
1
1
1
1
1
1
1
1
1
1
1
1
1
1
1
1
1
1
1
1
1
1
1
1
1
1
1
1
1
1
1
1
1
1
1
1
1
1
1
1
1
1
1
1
1
1
1
1
1
1
1
1
1
1
1
1
1
1
1
1
1
1
1
1
1
1
1
1
1
1
1
1
1
1
1
1
1
1
1
1
1
1
1
1
1
1
1
1
1
1
1
1
1
1
1
1
1
1
1
1
1
1
1
1
1
1
1
1
1
1
1
1
1
1
1
1
1
1
1
1
1
1
1
1
1
1
1
1
1
1
1
1
1
1
1
1
1
1
1
1
1
1
1
1
1
1
1
1
1
1
1
1
1
1
1
1
1
1
1
1
1
1
1
1
1
1
1
1
1
1
1
1
1
1
1
1
1
1
1
1
1
1
1
1
1
1
1
1
1
1
1
1
1
1
1
1
1
1
1
1
1
1
1
1
1
1
1
1
1
1
1
1
1
1
1
1
1
1
1
1
1
1
1
1
1
1
1
1
1
1
1
1
1
1
1
1
1
1
1
1
1
1
1
1
1
1
1
1
1
1
1
1
1
1
1
1
1
1
1
1
1
1
1
1
1
1
1
1
1
1
1
1
1
1
1
1
1
1
1
1
1
1
1
1
1
1
1
1
1
1
1
1
1
1
1
1
1
1
1
1
1
1
1
1
1
1
1
1
1
1
1
1
1
1
1
1
1
1
1
1
1
1
1
1
1
1
1
1
1
1
1
1
1
1
1
1
1
1
1
1
1
1
1
1
1
1
1
1
1
1
1
1
1
1
1
1
1
1
1
1
1
1
1
1
1
1
1
1
1
1
1
1
1
1
1
1
1
1
1
1
1
1
1
1
1
1
1
1
1
1
1
1
1
1
1
1
1
1
1
1
1
1
1
1
1
1
1
1
1
1
1
1
1
1
1
1
1
1
1
1
1
1
1
1
1
1
1
1
1
1
1
1
1
1
1
1
1
1
1
1
1
1
1
1
1
1
1
1
1
1
1
1
1
1
1
1
1
1
1
1
1
1
1
1
1
1
1
1
1
1
1
1
1
1
1
1
1
1
1
1
1
1
1
1
1
1
1
1
1
1
1
1
1
1
1
1
1
1
1
1
1
1
1
1
1
1
1
1
1
1
1
1
1
1
1
1
1
1
1
1
1
1
1
1
1
1
1
1
1
1
1
1
1
1
1
1
1
1
1
1
1
1
1
1
1
1
1
1
1
1
1
1
1
1
1
1
1
1
1
1
1
1
1
1
1
1
1
1
1
1
1
1
1
1
1
1
1
1
1
1
1
1
1
1
1
1
1
1
1
1
1
1
1
1
1
1
1
1
1
1
1
1
1
1
1
1
1
1
1
1
1
1
1
1
1
1
1
1
1
1
1
1
1
1
1
1
1
1
1
1
1
1
1
1
1
1
1
1
1
1
1
1
1
1
1
1
1
1
1
1
1
1
1
1
1
1
1
1
1
1
1
1
1
1
1
1
1
1
1
1
1
1
1
1
1
1
1
1
1
1
1
1
1
1
1
1
1
1
1
1
1
1
1
1
1
1
1
1
1
1
1
1
1
1
1
1
1
1
1
1
1
1
1
1
1
1
1
1
1
1
1
1
1
1
1
1
1
1
1
1
1
1
1
1
1
1
1
1
1
1
1
1
1
1
1
1
1
1
1
1
1
1
1
1
1
1
1
1
1
1
1
1
1
1
1
1
1
1
1
1
1
1
1
1
1
1
1
1
1
1
1
1
1
1
1
1
1
1
1
1
1
1
1
1
1
1
1
1
1
1
1
1
1
1
1
1
1
1
1
1
1
1
1
1
1
1
1
1
1
1
1
1
1
1
1
1
1
1
1
1
1
1
1
1
1
1
1
1
1
1
1
1
1
1
1
1
1
1
1
1
1
1
1
1
1
1
1
1
1
1
1
1
1
1
1
1
1
1
1
1
1
1
1
1
1
1
1
1
1
1
1
1
1
1
1
1
1
1
1
1
1
1
1
1
1
1
1
1
1
1
1
1
1
1
1
1
1
1
1
1
1
1
1
1
1
1
1
1
1
1
1
1
1
1
1
1
1
1
1
1
1
1
1
1
1
1
1
1
1
1
1
1
1
1
1
1
1
1
1
1
1
1
1
1
1
1
1
1
1
1
1
1
1
1
1
1
1
1
1
1
1
1
1
1
1
1
1
1
1
1
1
1
1
1
1
1
1
1
1
1
1
1
1
1
1
1
1
1
1
1
1
1
1
1
1
1
1
1
1
1
1
1
1
1
1
1
1
1
1
1
1
1
1
1
1
1
1
1
1
1
1
1
1
1
1
1
1
1
1
1
1
1
1
1
1
1
1
1
1
1
1
1
1
1
1
1
1
1
1
1
1
1
1
1
1
1
1
1
1
1
1
1
1
1
1
1
1
1
1
1
1
1
1
1
1
1
1
1
1
1
1
1
1
1
1
1
1
1
1
1
1
1
1
1
1
1
1
1
1
1
1
1
1
1
1
1
1
1
1
1
1
1
1
1
1
1
1
1
1
1
1
1
1
1
1
1
1
1
1
1
1
1
1
1
1
1
1
1
1
1
1
1
1
1
1
1
1
1
1
1
1
1
1
1
1
1
1
1
1
1
1
1
1
1
1
1
1
1
1
1
1
1
1
1
1
1
1
1
1
1
1
1
1
1
1
1
1
1
1
1
1
1
1
1
1
1
1
1
1
1
1
1
1
1
1
1
1
1
1
1
1
1
1
1
1
1
1
1
1
1
1
1
1
1
1
1
1
1
1
1
1
1
1
1
1
1
1
1
1
1
1
1
1
1
1
1
1
1
1
1
1
1
1
1
1
1
1
1
1
1
1
1
1
1
1
1
1
1
1
1
1
1
1
1
1
1
1
1
1
1
1
1
1
1
1
1
1
1
1
1
1
1
1
1
1
1
1
1
1
1
1
1
1
1
1
1
1
1
1
1
1
1
1
1
1
1
1
1
1
1
1
1
1
1
1
1.07848
1.17719
1.28726
1.38597
1.46937
1.56001
1.62067
1.66442
1.69486
1.69003
1.66345
1.61573
1.56993
1.53466
1.52473
1.51713
1.51438
1.51748
1.52206
1.52681
1.53094
1.53397
1.53606
1.53808
1.53969
1.54053
1.54116
1.54167
1.54202
1.54184
1.54128
1.54121
1.54188
1.54367
1.54595
1.54725
1.54735
1.54719
1.54658
1.54558
1.54501
1.54511
1.54537
1.5457
1.54607
1.54627
1.54634
1.54625
1.00069
1.00656
1.02181
1.06812
1.13202
1.21154
1.30142
1.37864
1.45486
1.50309
1.5336
1.55495
1.56346
1.56042
1.55386
1.54812
1.53974
1.53678
1.53177
1.5319
1.53373
1.53675
1.53934
1.54176
1.54396
1.54501
1.54599
1.54633
1.54611
1.5458
1.54563
1.54564
1.54597
1.54653
1.54713
1.54761
1.54756
1.54725
1.54668
1.54632
1.54634
1.54655
1.5469
1.5474
1.54794
1.54816
1.54812
1.54862
1
0.999998
0.999996
1.00002
1.00054
1.0043
1.02243
1.07397
1.18431
1.3441
1.50399
1.58162
1.62125
1.62094
1.6138
1.59995
1.58187
1.55732
1.54285
1.54181
1.54321
1.54587
1.54836
1.55117
1.55391
1.55532
1.55615
1.55688
1.55703
1.55709
1.55701
1.55658
1.55618
1.55591
1.55551
1.55495
1.55423
1.55329
1.55233
1.55174
1.55158
1.55156
1.5517
1.55215
1.55269
1.55281
1.55254
1.55357
1
1
1
1
1
0.999994
1.00002
1.00004
1.00203
1.02858
1.14505
1.33718
1.48909
1.6137
1.6107
1.60152
1.60128
1.59282
1.57877
1.57058
1.56731
1.5643
1.56152
1.56207
1.56348
1.56461
1.56602
1.56726
1.56828
1.56882
1.56882
1.56847
1.56798
1.56757
1.56723
1.56668
1.56577
1.56453
1.56329
1.56241
1.56203
1.56189
1.56187
1.56189
1.56185
1.56143
1.56029
1.56111
1
1
1
1
1
1
1
1
1
0.999973
1.00055
1.01887
1.10395
1.30515
1.46622
1.56933
1.62643
1.62608
1.61745
1.60623
1.59489
1.58351
1.57809
1.57522
1.57308
1.57385
1.5748
1.57567
1.57668
1.5773
1.57699
1.57631
1.57614
1.57675
1.57708
1.57686
1.57629
1.57533
1.5742
1.57336
1.57317
1.57318
1.57324
1.57319
1.57276
1.57186
1.57027
1.57084
1
1
1
1
1
1
1
1
1
0.999999
0.999999
0.999981
1.00025
1.01031
1.09203
1.24562
1.43782
1.5315
1.60112
1.60903
1.60811
1.59985
1.59248
1.58813
1.58469
1.58146
1.57992
1.57925
1.57951
1.58086
1.58182
1.5825
1.5835
1.58418
1.58414
1.58378
1.58317
1.58234
1.58147
1.58095
1.58084
1.58077
1.58078
1.58063
1.57983
1.57868
1.57707
1.57741
1
1
1
1
1
1
1
1
1
1
1
0.999999
0.999999
0.999985
1.00025
1.00561
1.07009
1.22137
1.40272
1.51428
1.56238
1.59173
1.59315
1.5927
1.58833
1.58479
1.58358
1.58182
1.58004
1.58021
1.58158
1.58426
1.58714
1.58733
1.58683
1.58615
1.58554
1.58491
1.58417
1.58389
1.58366
1.5836
1.58367
1.5835
1.58278
1.58194
1.58089
1.58106
1
1
1
1
1
1
1
1
1
1
1
1
1
0.999999
0.999999
0.999991
1.00019
1.00546
1.04889
1.20346
1.35535
1.50479
1.54701
1.56481
1.57385
1.57342
1.57539
1.57508
1.57434
1.57506
1.57714
1.57976
1.58205
1.58391
1.58447
1.58428
1.58373
1.58314
1.58304
1.58311
1.58333
1.58405
1.58429
1.58418
1.58385
1.58352
1.58308
1.58308
1
1
1
1
1
1
1
1
1
1
1
1
1
1
1
0.999999
0.999999
0.999993
1.00008
1.00529
1.03936
1.17113
1.34603
1.47478
1.5476
1.55926
1.56735
1.56872
1.56835
1.56887
1.57009
1.57173
1.57308
1.57491
1.57679
1.578
1.57871
1.57934
1.58016
1.58095
1.5817
1.58244
1.58284
1.58302
1.58319
1.58317
1.58305
1.58289
1
1
1
1
1
1
1
1
1
1
1
1
1
1
1
1
1
1
1
0.999994
1.00008
1.0035
1.04536
1.15559
1.33126
1.45038
1.53192
1.55878
1.56389
1.56692
1.56846
1.56797
1.56756
1.56796
1.56973
1.57146
1.57269
1.57405
1.57531
1.5765
1.57786
1.57874
1.57916
1.57973
1.58051
1.5808
1.58106
1.58088
1
1
1
1
1
1
1
1
1
1
1
1
1
1
1
1
1
1
1
0.999999
1
0.999995
1.00015
1.00291
1.04109
1.15791
1.32182
1.4414
1.5111
1.54832
1.56107
1.56386
1.56456
1.56554
1.56591
1.56689
1.5687
1.57009
1.57135
1.57266
1.5741
1.57481
1.57522
1.57576
1.57628
1.5765
1.57694
1.57672
1
1
1
1
1
1
1
1
1
1
1
1
1
1
1
1
1
1
1
1
1
0.999999
1
0.999996
1.00018
1.0038
1.03565
1.1664
1.32092
1.46082
1.50749
1.53111
1.54798
1.55598
1.5571
1.55933
1.56219
1.56379
1.56494
1.56613
1.56743
1.56865
1.56955
1.5703
1.57108
1.57159
1.57225
1.57228
1
1
1
1
1
1
1
1
1
1
1
1
1
1
1
1
1
1
1
1
1
1
1
0.999999
1
0.999996
1.00015
1.00574
1.04003
1.1769
1.33678
1.47263
1.52526
1.53383
1.54242
1.54894
1.5527
1.55476
1.5562
1.55774
1.55988
1.56219
1.56353
1.56394
1.56432
1.56468
1.56545
1.56608
1
1
1
1
1
1
1
1
1
1
1
1
1
1
1
1
1
1
1
1
1
1
1
1
1
1
1
0.999999
1.00021
1.00729
1.0556
1.19524
1.36355
1.47869
1.53833
1.5499
1.55271
1.55422
1.55367
1.5537
1.55536
1.55743
1.55849
1.55902
1.55898
1.55891
1.55958
1.56072
1
1
1
1
1
1
1
1
1
1
1
1
1
1
1
1
1
1
1
1
1
1
1
1
1
1
1
1
0.999999
1.00001
1.00049
1.00966
1.08387
1.23235
1.3978
1.4918
1.54051
1.55595
1.55602
1.55649
1.55701
1.55811
1.55878
1.55846
1.55807
1.5576
1.55798
1.55884
1
1
1
1
1
1
1
1
1
1
1
1
1
1
1
1
1
1
1
1
1
1
1
1
1
1
1
1
1
1
0.999999
1.00002
1.00137
1.01676
1.12252
1.29206
1.44817
1.50552
1.53125
1.54984
1.55374
1.55466
1.5562
1.55692
1.55682
1.55691
1.55749
1.55824
1
1
1
1
1
1
1
1
1
1
1
1
1
1
1
1
1
1
1
1
1
1
1
1
1
1
1
1
1
1
1
1
0.999999
1.00007
1.00394
1.03521
1.17871
1.35394
1.49899
1.53208
1.54118
1.54617
1.54885
1.55128
1.55293
1.55393
1.55515
1.55658
1
1
1
1
1
1
1
1
1
1
1
1
1
1
1
1
1
1
1
1
1
1
1
1
1
1
1
1
1
1
1
1
1
1
1
1.00031
1.01065
1.07477
1.26199
1.42481
1.52195
1.5505
1.55276
1.55517
1.55446
1.55363
1.55405
1.5561
1
1
1
1
1
1
1
1
1
1
1
1
1
1
1
1
1
1
1
1
1
1
1
1
1
1
1
1
1
1
1
1
1
1
1
0.999999
1.00004
1.00147
1.03077
1.15089
1.35142
1.47612
1.54048
1.55925
1.55857
1.55809
1.55811
1.55885
1
1
1
1
1
1
1
1
1
1
1
1
1
1
1
1
1
1
1
1
1
1
1
1
1
1
1
1
1
1
1
1
1
1
1
1
1
1
1.00035
1.00682
1.0833
1.26541
1.45187
1.51486
1.5351
1.55042
1.55545
1.55637
1
1
1
1
1
1
1
1
1
1
1
1
1
1
1
1
1
1
1
1
1
1
1
1
1
1
1
1
1
1
1
1
1
1
1
1
1
1
1
1.00003
1.00261
1.0326
1.18494
1.38309
1.51763
1.54384
1.54962
1.55111
1
1
1
1
1
1
1
1
1
1
1
1
1
1
1
1
1
1
1
1
1
1
1
1
1
1
1
1
1
1
1
1
1
1
1
1
1
1
1
1
1
1.00042
1.01456
1.10826
1.32614
1.48103
1.54976
1.55903
1
1
1
1
1
1
1
1
1
1
1
1
1
1
1
1
1
1
1
1
1
1
1
1
1
1
1
1
1
1
1
1
1
1
1
1
1
1
1
1
1
1
1.00013
1.0045
1.07227
1.25538
1.43906
1.51299
1
1
1
1
1
1
1
1
1
1
1
1
1
1
1
1
1
1
1
1
1
1
1
1
1
1
1
1
1
1
1
1
1
1
1
1
1
1
1
1
1
1
1
1.00002
1.00227
1.03184
1.20528
1.39315
1
1
1
1
1
1
1
1
1
1
1
1
1
1
1
1
1
1
1
1
1
1
1
1
1
1
1
1
1
1
1
1
1
1
1
1
1
1
1
1
1
1
1
1
1.00001
1.00057
1.0247
1.13129
1
1
1
1
1
1
1
1
1
1
1
1
1
1
1
1
1
1
1
1
1
1
1
1
1
1
1
1
1
1
1
1
1
1
1
1
1
1
1
1
1
1
1
1
1
1
1.00054
1.00558
1
1
1
1
1
1
1
1
1
1
1
1
1
1
1
1
1
1
1
1
1
1
1
1
1
1
1
1
1
1
1
1
1
1
1
1
1
1
1
1
1
1
1
1
1
1
1
0.999945
1
1
1
1
1
1
1
1
1
1
1
1
1
1
1
1
1
1
1
1
1
1
1
1
1
1
1
1
1
1
1
1
1
1
1
1
1
1
1
1
1
1
1
1
1
1
1
0.999982
1
1
1
1
1
1
1
1
1
1
1
1
1
1
1
1
1
1
1
1
1
1
1
1
1
1
1
1
1
1
1
1
1
1
1
1
1
1
1
1
1
1
1
1
1
1
1
0.999997
1
1
1
1
1
1
1
1
1
1
1
1
1
1
1
1
1
1
1
1
1
1
1
1
1
1
1
1
1
1
1
1
1
1
1
1
1
1
1
1
1
1
1
1
1
1
1
1
1
1
1
1
1
1
1
1
1
1
1
1
1
1
1
1
1
1
1
1
1
1
1
1
1
1
1
1
1
1
1
1
1
1
1
1
1
1
1
1
1
1
1
1
1
1
1
1
1
1
1
1
1
1
1
1
1
1
1
1
1
1
1
1
1
1
1
1
1
1
1
1
1
1
1
1
1
1
1
1
1
1
1
1
1
1
1
1
1
1
1
1
1
1
1
1
1
1
1
1
1
1
1
1
1
1
1
1
1
1
1
1
1
1
1
1
1
1
1
1
1
1
1
1
1
1
1
1
1
1
1
1
1
1
1
1
1
1
1
1
1
1
1
1
1
1
1
1
1
1
1
1
1
1
1
1
1
1
1
1
1
1
1
1
1
1
1
1
1
1
1
1
1
1
1
1
1
1
1
1
1
1
1
1
1
1
1
1
1
1
1
1
1
1
1
1
1
1
1
1
1
1
1
1
1
1
1
1
1
1
1
1
1
1
1
1
1
1
1
1
1
1
1
1
1
1
1
1
1
1
1
1
1
1
1
1
1
1
1
1
1
1
1
1
1
1
1
1
1
1
1
1
1
1
1
1
1
1
1
1
1
1
1
1
1
1
1
1
1
1
1
1
1
1
1
1
1
1
1
1
1
1
1
1
1
1
1
0.999998
1
1
1
1
1
1
1
1
1
1
1
1
1
1
1
1
1
1
1
1
1
1
1
1
1
1
1
1
1
1
1
1
1
1
1
1
1
1
1
1
1
1
1
1
1
1
1
0.999982
1
1
1
1
1
1
1
1
1
1
1
1
1
1
1
1
1
1
1
1
1
1
1
1
1
1
1
1
1
1
1
1
1
1
1
1
1
1
1
1
1
1
1
1
1
1
1
0.999945
1
1
1
1
1
1
1
1
1
1
1
1
1
1
1
1
1
1
1
1
1
1
1
1
1
1
1
1
1
1
1
1
1
1
1
1
1
1
1
1
1
1
1
1
1
1
1.00053
1.00559
1
1
1
1
1
1
1
1
1
1
1
1
1
1
1
1
1
1
1
1
1
1
1
1
1
1
1
1
1
1
1
1
1
1
1
1
1
1
1
1
1
1
1
1
1.00001
1.00057
1.02464
1.13088
1
1
1
1
1
1
1
1
1
1
1
1
1
1
1
1
1
1
1
1
1
1
1
1
1
1
1
1
1
1
1
1
1
1
1
1
1
1
1
1
1
1
1
1.00002
1.00227
1.03186
1.20505
1.39308
1
1
1
1
1
1
1
1
1
1
1
1
1
1
1
1
1
1
1
1
1
1
1
1
1
1
1
1
1
1
1
1
1
1
1
1
1
1
1
1
1
1
1.00013
1.0045
1.07231
1.25536
1.43862
1.51342
1
1
1
1
1
1
1
1
1
1
1
1
1
1
1
1
1
1
1
1
1
1
1
1
1
1
1
1
1
1
1
1
1
1
1
1
1
1
1
1
1
1.00042
1.01455
1.10826
1.32636
1.48087
1.54967
1.55925
1
1
1
1
1
1
1
1
1
1
1
1
1
1
1
1
1
1
1
1
1
1
1
1
1
1
1
1
1
1
1
1
1
1
1
1
1
1
1
1.00003
1.00261
1.0326
1.1849
1.38311
1.51773
1.54376
1.54955
1.55116
1
1
1
1
1
1
1
1
1
1
1
1
1
1
1
1
1
1
1
1
1
1
1
1
1
1
1
1
1
1
1
1
1
1
1
1
1
1
1.00035
1.00682
1.0833
1.2654
1.45187
1.5149
1.53511
1.55037
1.5554
1.55639
1
1
1
1
1
1
1
1
1
1
1
1
1
1
1
1
1
1
1
1
1
1
1
1
1
1
1
1
1
1
1
1
1
1
1
0.999999
1.00004
1.00147
1.03077
1.15089
1.35144
1.47609
1.5405
1.55926
1.55856
1.55809
1.5581
1.55885
1
1
1
1
1
1
1
1
1
1
1
1
1
1
1
1
1
1
1
1
1
1
1
1
1
1
1
1
1
1
1
1
1
1
1
1.00031
1.01065
1.07477
1.26198
1.42481
1.52195
1.55049
1.55277
1.55517
1.55446
1.55363
1.55405
1.5561
1
1
1
1
1
1
1
1
1
1
1
1
1
1
1
1
1
1
1
1
1
1
1
1
1
1
1
1
1
1
1
1
0.999999
1.00007
1.00394
1.03521
1.17871
1.35393
1.49899
1.53209
1.54119
1.54617
1.54885
1.55128
1.55293
1.55393
1.55515
1.55658
1
1
1
1
1
1
1
1
1
1
1
1
1
1
1
1
1
1
1
1
1
1
1
1
1
1
1
1
1
1
0.999999
1.00002
1.00137
1.01676
1.12252
1.29206
1.44817
1.50552
1.53125
1.54984
1.55374
1.55466
1.5562
1.55692
1.55682
1.55691
1.55749
1.55825
1
1
1
1
1
1
1
1
1
1
1
1
1
1
1
1
1
1
1
1
1
1
1
1
1
1
1
1
0.999999
1.00001
1.00049
1.00966
1.08388
1.23235
1.3978
1.4918
1.54051
1.55595
1.55602
1.55649
1.55701
1.55811
1.55878
1.55846
1.55807
1.5576
1.55798
1.55884
1
1
1
1
1
1
1
1
1
1
1
1
1
1
1
1
1
1
1
1
1
1
1
1
1
1
1
0.999999
1.00021
1.00729
1.0556
1.19524
1.36355
1.47869
1.53833
1.5499
1.55271
1.55422
1.55367
1.5537
1.55536
1.55743
1.55849
1.55902
1.55898
1.55891
1.55958
1.56072
1
1
1
1
1
1
1
1
1
1
1
1
1
1
1
1
1
1
1
1
1
1
1
0.999999
1
0.999996
1.00015
1.00574
1.04003
1.1769
1.33678
1.47263
1.52526
1.53383
1.54242
1.54894
1.5527
1.55476
1.5562
1.55774
1.55988
1.56219
1.56353
1.56394
1.56432
1.56468
1.56545
1.56608
1
1
1
1
1
1
1
1
1
1
1
1
1
1
1
1
1
1
1
1
1
0.999999
1
0.999996
1.00018
1.0038
1.03565
1.1664
1.32092
1.46082
1.50749
1.53111
1.54798
1.55598
1.5571
1.55933
1.56219
1.56379
1.56494
1.56613
1.56743
1.56865
1.56955
1.5703
1.57108
1.57159
1.57225
1.57228
1
1
1
1
1
1
1
1
1
1
1
1
1
1
1
1
1
1
1
0.999999
1
0.999995
1.00015
1.00291
1.04109
1.15791
1.32182
1.4414
1.5111
1.54832
1.56107
1.56386
1.56456
1.56554
1.56591
1.56689
1.5687
1.57009
1.57135
1.57266
1.5741
1.57481
1.57522
1.57576
1.57628
1.5765
1.57694
1.57672
1
1
1
1
1
1
1
1
1
1
1
1
1
1
1
1
1
1
1
0.999994
1.00008
1.0035
1.04536
1.15559
1.33126
1.45038
1.53192
1.55878
1.56389
1.56692
1.56846
1.56797
1.56756
1.56796
1.56973
1.57146
1.57269
1.57405
1.57531
1.5765
1.57786
1.57874
1.57916
1.57973
1.58051
1.5808
1.58106
1.58088
1
1
1
1
1
1
1
1
1
1
1
1
1
1
1
0.999999
0.999999
0.999993
1.00008
1.00529
1.03936
1.17113
1.34603
1.47478
1.5476
1.55926
1.56735
1.56872
1.56835
1.56887
1.57009
1.57173
1.57308
1.57491
1.57679
1.578
1.57871
1.57934
1.58016
1.58095
1.5817
1.58244
1.58284
1.58302
1.58319
1.58317
1.58305
1.58289
1
1
1
1
1
1
1
1
1
1
1
1
1
0.999999
0.999999
0.999991
1.00019
1.00546
1.04889
1.20346
1.35535
1.50479
1.54701
1.56481
1.57385
1.57342
1.57539
1.57508
1.57434
1.57506
1.57714
1.57976
1.58205
1.58391
1.58447
1.58428
1.58373
1.58314
1.58304
1.58311
1.58333
1.58405
1.58429
1.58418
1.58385
1.58352
1.58308
1.58308
1
1
1
1
1
1
1
1
1
1
1
0.999999
0.999999
0.999985
1.00025
1.00561
1.07009
1.22137
1.40272
1.51428
1.56238
1.59173
1.59315
1.5927
1.58833
1.58479
1.58358
1.58182
1.58004
1.58021
1.58158
1.58426
1.58714
1.58733
1.58683
1.58615
1.58554
1.58491
1.58417
1.58389
1.58366
1.5836
1.58367
1.5835
1.58278
1.58194
1.58089
1.58106
1
1
1
1
1
1
1
1
1
0.999999
0.999999
0.999981
1.00025
1.01031
1.09203
1.24562
1.43782
1.5315
1.60112
1.60903
1.60811
1.59985
1.59248
1.58813
1.58469
1.58146
1.57992
1.57925
1.57951
1.58086
1.58182
1.5825
1.5835
1.58418
1.58414
1.58378
1.58317
1.58234
1.58147
1.58095
1.58084
1.58077
1.58078
1.58063
1.57983
1.57868
1.57707
1.57741
1
1
1
1
1
1
1
1
1
0.999973
1.00055
1.01887
1.10395
1.30515
1.46622
1.56933
1.62643
1.62608
1.61745
1.60623
1.59489
1.58351
1.57809
1.57522
1.57308
1.57385
1.5748
1.57567
1.57668
1.5773
1.57699
1.57631
1.57614
1.57675
1.57708
1.57686
1.57629
1.57533
1.5742
1.57336
1.57317
1.57318
1.57324
1.57319
1.57276
1.57186
1.57027
1.57084
1
1
1
1
1
0.999994
1.00002
1.00004
1.00203
1.02858
1.14505
1.33718
1.48909
1.6137
1.6107
1.60152
1.60128
1.59282
1.57877
1.57058
1.56731
1.5643
1.56152
1.56207
1.56348
1.56461
1.56602
1.56726
1.56828
1.56882
1.56882
1.56847
1.56798
1.56757
1.56723
1.56668
1.56577
1.56453
1.56329
1.56241
1.56203
1.56189
1.56187
1.56189
1.56185
1.56143
1.56029
1.56111
1
0.999998
0.999996
1.00002
1.00054
1.0043
1.02243
1.07397
1.18431
1.3441
1.50399
1.58162
1.62125
1.62094
1.6138
1.59995
1.58187
1.55732
1.54285
1.54181
1.54321
1.54587
1.54836
1.55117
1.55391
1.55532
1.55615
1.55688
1.55703
1.55709
1.55701
1.55658
1.55618
1.55591
1.55551
1.55495
1.55423
1.55329
1.55233
1.55174
1.55158
1.55156
1.5517
1.55215
1.55269
1.55281
1.55254
1.55357
1.00069
1.00656
1.02181
1.06812
1.13202
1.21154
1.30142
1.37864
1.45486
1.50309
1.5336
1.55495
1.56346
1.56042
1.55386
1.54812
1.53974
1.53678
1.53177
1.5319
1.53373
1.53675
1.53934
1.54176
1.54396
1.54501
1.54599
1.54633
1.54611
1.5458
1.54563
1.54564
1.54597
1.54653
1.54713
1.54761
1.54756
1.54725
1.54668
1.54632
1.54634
1.54655
1.5469
1.5474
1.54794
1.54816
1.54812
1.54862
1.07848
1.17719
1.28726
1.38597
1.46937
1.56001
1.62067
1.66442
1.69486
1.69003
1.66345
1.61573
1.56993
1.53466
1.52473
1.51713
1.51438
1.51748
1.52206
1.52681
1.53094
1.53397
1.53606
1.53808
1.53969
1.54053
1.54116
1.54167
1.54202
1.54184
1.54128
1.54121
1.54188
1.54367
1.54595
1.54725
1.54735
1.54719
1.54658
1.54558
1.54501
1.54511
1.54537
1.5457
1.54607
1.54627
1.54634
1.54625
1.40449
1.23464
1.09641
1.04514
1.00207
0.981991
0.996034
1.02817
1.04221
1.05022
1.0731
1.10877
1.1159
1.11223
1.11247
1.11511
1.11426
1.11497
1.12021
1.12141
1.12043
1.11757
1.11623
1.11555
1.11234
1.10942
1.10912
1.10902
1.1085
1.10724
1.10593
1.1049
1.10347
1.10251
1.10244
1.1026
1.1039
1.10542
1.10553
1.10545
1.10503
1.10369
1.10304
1.1031
1.10322
1.10344
1.10327
1.10345
1.10659
1.1686
1.33464
1.57551
1.8203
2.05594
2.24724
2.23864
2.17656
2.10418
2.09235
2.08558
2.06923
2.0485
2.03614
2.03026
2.02479
2.01637
2.00495
1.99136
1.9707
1.94388
1.92708
1.9194
1.91397
1.91239
1.90903
1.90248
1.89099
1.86695
1.84633
1.83887
1.83325
1.82961
1.82518
1.81873
1.809
1.78836
1.76276
1.7525
1.74799
1.74549
1.74622
1.74387
1.73944
1.73232
1.71403
1.68943
1.6783
1.67344
1.66948
1.66644
1.66314
1.65868
1.65057
1.63617
1.62464
1.61932
1.61468
1.60974
1.60393
1.59499
1.57942
1.56451
1.55941
1.55691
1.55474
1.5535
1.55137
1.54819
1.54125
1.52515
1.50724
1.50032
1.49688
1.49416
1.49249
1.49041
1.48756
1.48396
1.47693
1.46452
1.45559
1.45197
1.44916
1.44579
1.44041
1.43038
1.42075
1.41641
1.41342
1.41039
1.40688
1.40265
1.39772
1.38969
1.39053
1.40863
1.47026
1.58361
1.70413
1.79261
1.86712
1.91036
1.91702
1.90376
1.89067
1.87948
1.87277
1.8669
1.85984
1.85028
1.83997
1.83518
1.83329
1.83157
1.82888
1.82521
1.8194
1.80867
1.79885
1.79447
1.79167
1.79099
1.79187
1.78995
1.78753
1.78361
1.77344
1.75837
1.75031
1.74673
1.74412
1.74235
1.74153
1.74067
1.73926
1.73703
1.73243
1.72439
1.71693
1.71288
1.71017
1.70435
1.50227
1.42378
1.31554
1.24436
1.19866
1.13122
1.09969
1.08976
1.06806
1.05879
1.06138
1.06828
1.06743
1.06761
1.07057
1.07754
1.08291
1.0871
1.09428
1.10111
1.10158
1.10153
1.10201
1.10286
1.10226
1.10188
1.10208
1.10272
1.10281
1.10198
1.10126
1.10083
1.09996
1.09934
1.099
1.09915
1.10011
1.10085
1.10093
1.1009
1.1004
1.0993
1.09876
1.09879
1.09884
1.09867
1.09923
1.10277
1.15679
1.36509
1.5203
1.56897
1.66844
1.77743
1.96662
2.08855
2.12812
2.11677
2.10738
2.09382
2.075
2.05778
2.04542
2.03316
2.02193
2.01289
2.00411
1.99309
1.97687
1.95582
1.93805
1.92678
1.91959
1.91332
1.90717
1.89974
1.88984
1.87305
1.85256
1.84082
1.83446
1.82855
1.82346
1.8173
1.80922
1.79469
1.77273
1.75779
1.75224
1.74821
1.74435
1.74148
1.73688
1.72955
1.71586
1.69572
1.68257
1.67626
1.67165
1.66745
1.66371
1.66026
1.65443
1.64305
1.63093
1.62383
1.61845
1.613
1.60674
1.59757
1.58307
1.56885
1.56153
1.55831
1.55595
1.55328
1.54994
1.54607
1.5406
1.5285
1.51198
1.50465
1.50155
1.49857
1.49621
1.49399
1.49104
1.48703
1.48005
1.46889
1.46044
1.45629
1.45304
1.4493
1.44394
1.43532
1.42649
1.42109
1.41742
1.41416
1.41108
1.40721
1.40437
1.40958
1.4386
1.49562
1.56023
1.61287
1.66346
1.72596
1.78369
1.82536
1.8433
1.86247
1.87548
1.87999
1.87817
1.8725
1.86456
1.85603
1.84726
1.83975
1.83572
1.83317
1.83018
1.82626
1.82055
1.81208
1.80342
1.79742
1.79384
1.7916
1.79052
1.78896
1.7865
1.78259
1.77441
1.76192
1.75346
1.74955
1.74718
1.74596
1.74474
1.74328
1.74163
1.73922
1.73468
1.72677
1.71985
1.71592
1.71312
1.70713
1.53851
1.49867
1.43309
1.35609
1.29472
1.22412
1.16413
1.13507
1.10388
1.0623
1.05502
1.05444
1.04658
1.0438
1.04595
1.04996
1.05338
1.058
1.06517
1.0758
1.07914
1.07989
1.08143
1.08406
1.08571
1.08676
1.08864
1.091
1.09197
1.09186
1.09132
1.09
1.08898
1.08889
1.08891
1.08955
1.0903
1.0904
1.09056
1.09052
1.08981
1.08941
1.08944
1.08969
1.09025
1.09198
1.10014
1.15213
1.3656
1.54089
1.59597
1.59949
1.60645
1.62145
1.70658
1.92109
2.10716
2.1479
2.13264
2.10501
2.0848
2.07583
2.06298
2.04354
2.02285
2.0102
2.00207
1.9919
1.98039
1.96977
1.95746
1.94486
1.93172
1.92008
1.91001
1.89921
1.8872
1.87507
1.86096
1.84704
1.83788
1.83157
1.82493
1.81696
1.80752
1.79685
1.78395
1.76912
1.75846
1.75305
1.74808
1.74208
1.73436
1.72484
1.7135
1.70116
1.68911
1.68098
1.67618
1.67152
1.66593
1.65935
1.65129
1.64115
1.63073
1.62172
1.61428
1.60794
1.60147
1.59342
1.58428
1.57445
1.56489
1.55975
1.55705
1.55424
1.55068
1.54495
1.53583
1.52488
1.51672
1.5112
1.50416
1.49518
1.49009
1.48793
1.4856
1.48211
1.47651
1.46946
1.46229
1.45487
1.44911
1.44522
1.44063
1.43452
1.42726
1.41935
1.41385
1.41097
1.40968
1.41207
1.42376
1.46503
1.54437
1.59742
1.63221
1.64334
1.65119
1.66489
1.69294
1.73504
1.78968
1.83875
1.86546
1.8816
1.88476
1.88131
1.87275
1.86577
1.85811
1.84695
1.83442
1.82892
1.82707
1.82398
1.81906
1.81452
1.81083
1.80626
1.79993
1.79488
1.79168
1.78853
1.78488
1.77985
1.77233
1.76445
1.75906
1.75457
1.75016
1.74615
1.74347
1.74152
1.73951
1.73664
1.73178
1.72485
1.7194
1.71556
1.71239
1.70594
1.55614
1.53793
1.49936
1.44011
1.38024
1.31747
1.25334
1.21603
1.18007
1.12573
1.10506
1.0928
1.06901
1.05261
1.05373
1.05142
1.04578
1.04522
1.0479
1.05123
1.05367
1.05613
1.06
1.06684
1.07134
1.07432
1.07751
1.07921
1.08007
1.08074
1.08058
1.07993
1.07991
1.08062
1.08246
1.08408
1.08418
1.08389
1.08329
1.08207
1.08101
1.08098
1.08108
1.08174
1.08426
1.10789
1.19437
1.35263
1.54972
1.6035
1.61608
1.61465
1.6142
1.60707
1.60532
1.65726
1.84687
2.06228
2.10239
2.10266
2.10621
2.09967
2.08355
2.06038
2.03903
2.02018
2.00576
1.99502
1.98668
1.98002
1.97334
1.9635
1.94882
1.93015
1.91444
1.90168
1.89043
1.88141
1.87287
1.86151
1.84771
1.835
1.82569
1.81727
1.81005
1.80438
1.79726
1.78602
1.77242
1.75876
1.74924
1.7409
1.73164
1.72333
1.71704
1.71103
1.7021
1.69166
1.68011
1.67106
1.66446
1.65786
1.65119
1.64437
1.63658
1.62786
1.61868
1.60972
1.60149
1.59428
1.58869
1.58244
1.5748
1.56625
1.55911
1.55484
1.54997
1.54175
1.53148
1.52617
1.52321
1.51813
1.50991
1.49982
1.49112
1.48636
1.48353
1.48094
1.47793
1.47381
1.46758
1.45887
1.45028
1.44479
1.44196
1.43798
1.43131
1.4225
1.41659
1.41421
1.41878
1.44708
1.50037
1.57892
1.63793
1.64965
1.65489
1.65564
1.65353
1.652
1.6538
1.66296
1.69259
1.74593
1.80796
1.85005
1.87149
1.87952
1.88167
1.87898
1.87087
1.8565
1.84067
1.83074
1.82712
1.82454
1.82275
1.82157
1.81905
1.8152
1.80913
1.80144
1.79478
1.79014
1.78569
1.77977
1.77473
1.77175
1.76759
1.76227
1.75612
1.75055
1.74693
1.74454
1.74193
1.73745
1.73081
1.7252
1.72203
1.71887
1.71539
1.7083
1.56682
1.56026
1.54042
1.4998
1.4516
1.39446
1.33215
1.29008
1.25211
1.19524
1.16038
1.13795
1.11007
1.07805
1.07229
1.06433
1.04929
1.04621
1.0488
1.04902
1.04788
1.04835
1.05053
1.05512
1.06154
1.06698
1.07138
1.07286
1.07341
1.07457
1.07487
1.07449
1.0747
1.07714
1.08014
1.08085
1.08083
1.08056
1.07978
1.07855
1.07807
1.07822
1.07865
1.0804
1.10976
1.27539
1.4297
1.54143
1.61012
1.6216
1.62121
1.62041
1.61909
1.61724
1.60381
1.59906
1.6212
1.76466
1.96918
2.08449
2.11882
2.11441
2.09611
2.07715
2.05873
2.03468
2.0105
1.99836
1.98967
1.98387
1.97679
1.96854
1.95702
1.93888
1.91918
1.90604
1.89651
1.8875
1.87844
1.86928
1.85681
1.84003
1.82764
1.82007
1.81307
1.80593
1.80007
1.79461
1.7849
1.76699
1.74908
1.73885
1.73183
1.72572
1.71988
1.71402
1.70887
1.70198
1.6904
1.67569
1.66524
1.658
1.65159
1.64544
1.63883
1.62951
1.6183
1.60987
1.60412
1.59915
1.59371
1.58836
1.58285
1.57557
1.56646
1.55576
1.54591
1.53839
1.53395
1.53036
1.52592
1.52074
1.51465
1.50637
1.49597
1.4872
1.48174
1.47778
1.47416
1.471
1.46733
1.4623
1.45543
1.4465
1.43791
1.43279
1.42952
1.42468
1.42428
1.43327
1.47738
1.54509
1.60756
1.65298
1.66169
1.66855
1.67048
1.66894
1.66269
1.65591
1.65239
1.64744
1.64811
1.66219
1.70751
1.78181
1.83815
1.87725
1.88664
1.88397
1.87444
1.86209
1.84891
1.83724
1.8312
1.82826
1.82536
1.82288
1.82054
1.8181
1.81484
1.80861
1.80056
1.79368
1.7877
1.78187
1.77793
1.77442
1.77049
1.766
1.7614
1.75688
1.7524
1.74792
1.743
1.73733
1.73175
1.72753
1.72418
1.72041
1.71665
1.7097
1.5749
1.57092
1.56291
1.54011
1.50516
1.46046
1.40383
1.35714
1.31563
1.26575
1.22818
1.20152
1.17011
1.13211
1.11875
1.106
1.08369
1.07142
1.06963
1.06235
1.05437
1.05234
1.05286
1.05252
1.05359
1.05808
1.06301
1.06465
1.06623
1.06857
1.07148
1.07245
1.0736
1.07704
1.07973
1.08018
1.08041
1.0804
1.07965
1.07862
1.07853
1.07891
1.08131
1.10766
1.2891
1.50849
1.58631
1.61994
1.62951
1.62722
1.62622
1.62162
1.61729
1.61533
1.61079
1.59832
1.58938
1.59658
1.68024
1.87879
2.03512
2.0805
2.08957
2.08418
2.07006
2.04398
2.01518
1.99904
1.99127
1.98559
1.97961
1.97046
1.95945
1.94331
1.92271
1.90837
1.89907
1.89099
1.8835
1.87546
1.86416
1.84666
1.82916
1.82048
1.81421
1.8091
1.8044
1.79822
1.78873
1.7716
1.7501
1.73817
1.73207
1.7269
1.72321
1.72072
1.71582
1.70749
1.6927
1.6752
1.66491
1.65875
1.65376
1.6493
1.64374
1.63278
1.61684
1.60924
1.60579
1.60387
1.60224
1.59861
1.59392
1.58633
1.56983
1.54952
1.54121
1.53846
1.53747
1.5362
1.5324
1.52851
1.52419
1.51657
1.50146
1.48563
1.4791
1.47582
1.47326
1.47161
1.47054
1.46811
1.46253
1.45185
1.44031
1.43494
1.43262
1.43521
1.45594
1.50996
1.59581
1.64289
1.67177
1.68177
1.67669
1.67544
1.67515
1.67322
1.66841
1.662
1.65571
1.64943
1.64265
1.64103
1.64748
1.68315
1.74688
1.81482
1.85671
1.86759
1.86786
1.8652
1.8575
1.84662
1.83705
1.83303
1.83
1.82733
1.82451
1.82119
1.81695
1.81144
1.80402
1.7956
1.78873
1.78462
1.78158
1.77841
1.77487
1.7709
1.76696
1.763
1.75794
1.75036
1.74246
1.73697
1.73366
1.73118
1.72857
1.7249
1.72051
1.71267
1.57981
1.57755
1.57295
1.56331
1.54322
1.5086
1.46287
1.42063
1.37672
1.32624
1.29146
1.26009
1.22681
1.1913
1.1701
1.15011
1.12112
1.10055
1.09232
1.08073
1.06459
1.06087
1.06098
1.05785
1.05758
1.0601
1.06053
1.05989
1.06015
1.06158
1.06511
1.06965
1.07397
1.07917
1.08148
1.08157
1.08189
1.08209
1.08147
1.08046
1.08051
1.08551
1.1244
1.28053
1.53256
1.61558
1.63734
1.64627
1.64028
1.62365
1.62137
1.62239
1.6168
1.61014
1.60489
1.59694
1.58694
1.57641
1.5712
1.61036
1.77157
1.94621
2.05416
2.07628
2.07048
2.04647