/*--------------------------------*- C++ -*----------------------------------*\
  =========                 |
  \\      /  F ield         | OpenFOAM: The Open Source CFD Toolbox
   \\    /   O peration     | Website:  https://openfoam.org
    \\  /    A nd           | Version:  7
     \\/     M anipulation  |
\*---------------------------------------------------------------------------*/
FoamFile
{
    version     2.0;
    format      ascii;
    class       volVectorField;
    location    "3.2";
    object      U;
}
// * * * * * * * * * * * * * * * * * * * * * * * * * * * * * * * * * * * * * //

dimensions      [0 1 -1 0 0 0 0];

internalField   nonuniform List<vector> 
18432
(
(3 -3.28949e-17 0)
(3 -2.12231e-17 0)
(3 -4.50205e-17 0)
(3 -3.16916e-16 0)
(3 -1.72244e-16 0)
(3 1.59237e-16 0)
(3 6.1585e-16 0)
(3 -1.2361e-17 0)
(3 5.05028e-18 0)
(3 8.319e-18 0)
(3 2.23302e-16 0)
(3 3.75832e-16 0)
(3 -4.43878e-17 0)
(3 -4.46133e-16 0)
(3 -5.40033e-16 0)
(3 -6.86048e-16 0)
(3 -7.31514e-16 0)
(3 -7.71338e-16 0)
(3 -6.68932e-16 0)
(3 -3.56384e-16 0)
(3 -9.98373e-17 0)
(3 1.1717e-16 0)
(3 2.91227e-17 0)
(3 -1.09337e-17 0)
(3 -9.39078e-17 0)
(3 -1.223e-16 0)
(3 -3.74181e-17 0)
(3 -3.62675e-17 0)
(3 -3.33625e-16 0)
(3 -4.31619e-16 0)
(3 2.22225e-16 0)
(3 3.7559e-16 0)
(3 5.36943e-16 0)
(3 -4.91184e-16 0)
(3 -8.08312e-16 0)
(3 -7.44787e-16 0)
(3 -5.92984e-16 0)
(3 3.96255e-17 0)
(3 8.69901e-17 0)
(3 4.7829e-16 0)
(3 5.18361e-16 0)
(3 4.07874e-16 0)
(3 -8.40199e-17 0)
(3 -6.23203e-16 0)
(3 -1.26108e-15 0)
(3 -1.55655e-15 0)
(3 -1.07926e-15 0)
(3 -3.23942e-16 0)
(3 -1.84476e-16 0)
(3 -4.61522e-16 0)
(3 -3.63562e-16 0)
(3 -7.61436e-16 0)
(3 -5.07303e-16 0)
(3 3.94337e-16 0)
(3 8.78942e-16 0)
(3 4.6158e-16 0)
(3 5.696e-17 0)
(3 -6.11651e-16 0)
(3 -8.89511e-16 0)
(3 -7.56034e-16 0)
(3 -1.1159e-15 0)
(3 -1.06222e-15 0)
(3 -1.00049e-15 0)
(3 -1.06651e-15 0)
(3 -3.02771e-16 0)
(3 -1.21506e-16 0)
(3 8.11065e-17 0)
(3 5.1485e-16 0)
(3 8.80635e-16 0)
(3 8.35962e-16 0)
(3 3.81832e-16 0)
(3 -3.67188e-16 0)
(3 -9.77599e-16 0)
(3 -9.80824e-16 0)
(3 -3.93416e-16 0)
(3 4.47764e-16 0)
(3 9.57469e-16 0)
(3 1.1709e-15 0)
(3 2.58545e-15 0)
(3 2.79751e-15 0)
(3 2.59308e-15 0)
(3 8.0947e-16 0)
(3 -2.21936e-16 0)
(3 -2.47891e-16 0)
(3 1.29441e-17 0)
(3 6.95781e-17 0)
(3 -2.46041e-16 0)
(3 -6.00641e-16 0)
(3 -4.05773e-16 0)
(3 -1.02232e-16 0)
(3 -8.92746e-16 0)
(3 -1.53428e-15 0)
(3 -1.53662e-15 0)
(3 -1.54024e-15 0)
(3 -1.1831e-15 0)
(3 -8.32626e-17 0)
(3 -1.75941e-17 0)
(3 -2.81867e-16 0)
(3 -1.48751e-16 0)
(3 -2.22582e-16 0)
(3 -1.58523e-16 0)
(3 9.2022e-17 0)
(3 -7.22559e-17 0)
(3 -6.37623e-16 0)
(3 -1.03698e-15 0)
(3 -1.60478e-15 0)
(3 -2.19048e-15 0)
(3 -2.47931e-15 0)
(3 -2.37239e-15 0)
(3 -1.26667e-15 0)
(3 -1.36313e-15 0)
(3 -1.59746e-15 0)
(3 -1.15336e-15 0)
(3 -7.98609e-16 0)
(3 -6.62786e-16 0)
(3 -8.19981e-16 0)
(3 -7.10001e-16 0)
(3 -8.08777e-17 0)
(3 1.52794e-16 0)
(3 2.62276e-16 0)
(3 2.86032e-16 0)
(3 4.39711e-16 0)
(3 5.56531e-16 0)
(3 1.9901e-16 0)
(3 -1.11661e-16 0)
(3 -4.30996e-16 0)
(3 -4.99616e-16 0)
(3 -1.21282e-17 0)
(3 4.99746e-16 0)
(3 3.46891e-16 0)
(3 2.28629e-16 0)
(3 4.29671e-16 0)
(3 4.63015e-16 0)
(3 1.00297e-17 0)
(3 -1.05437e-15 0)
(3 -2.01934e-15 0)
(3 -1.55467e-15 0)
(3 -1.58818e-15 0)
(3 -2.05974e-15 0)
(3 -2.67739e-15 0)
(3 -2.78782e-15 0)
(3 -1.82395e-15 0)
(3 -1.15168e-15 0)
(3 -1.27984e-15 0)
(3 9.14949e-17 0)
(3 1.85875e-16 0)
(3 2.11312e-16 0)
(3 5.42594e-16 0)
(3 6.13666e-16 0)
(3 5.60583e-17 0)
(3 -5.90882e-16 0)
(3 -1.68354e-15 0)
(3 -1.43822e-15 0)
(3 -1.25702e-15 0)
(3 -1.54147e-15 0)
(3 -1.32442e-15 0)
(3 -4.16744e-16 0)
(3 -6.22723e-16 0)
(3 -1.342e-15 0)
(3 -1.97931e-15 0)
(3 -1.88857e-15 0)
(3 -1.7838e-15 0)
(3 -1.60028e-15 0)
(3 -1.61807e-15 0)
(3 -2.03461e-15 0)
(3 -2.21297e-15 0)
(3 -1.02406e-15 0)
(3 -2.85803e-16 0)
(3 5.35327e-16 0)
(3 7.57402e-16 0)
(3 5.71705e-16 0)
(3 6.31041e-17 0)
(3 -6.75478e-16 0)
(3 -4.12714e-16 0)
(3 -7.6375e-16 0)
(3 -3.27369e-17 0)
(3 1.59788e-16 0)
(3 8.53394e-17 0)
(3 -3.13963e-16 0)
(3 -3.8763e-16 0)
(3 -5.64583e-16 0)
(3 -6.27114e-16 0)
(3 -1.18578e-15 0)
(3 -1.4347e-15 0)
(3 -1.21444e-15 0)
(3 -1.21047e-15 0)
(3 -1.05482e-15 0)
(3 -1.50115e-15 0)
(3 -2.63712e-15 0)
(3 -2.65061e-15 0)
(3 -2.50766e-15 0)
(3 -2.95738e-15 0)
(3 4.64496e-17 0)
(3 2.54137e-16 0)
(3 3.83681e-16 0)
(3 8.41954e-16 0)
(3 1.002e-15 0)
(3 2.85597e-16 0)
(3 -6.15876e-16 0)
(3 -7.63169e-16 0)
(3 -5.64465e-16 0)
(3 -3.11712e-16 0)
(3 -9.24193e-17 0)
(3 4.0882e-16 0)
(3 -2.71055e-16 0)
(3 -4.20183e-16 0)
(3 -6.14272e-16 0)
(3 -1.05199e-15 0)
(3 -1.56346e-15 0)
(3 -1.90551e-15 0)
(3 -2.08206e-15 0)
(3 -2.22982e-15 0)
(3 -2.37156e-15 0)
(3 -2.52824e-15 0)
(3 -2.45973e-15 0)
(3 -1.94483e-15 0)
(3 -1.82789e-15 0)
(3 -1.3541e-15 0)
(3 -9.54386e-16 0)
(3 -6.50984e-16 0)
(3 -4.53534e-16 0)
(3 -7.65559e-16 0)
(3 5.88155e-16 0)
(3 9.12082e-16 0)
(3 1.4018e-18 0)
(3 -6.85335e-16 0)
(3 -1.55684e-15 0)
(3 -1.76905e-15 0)
(3 -1.32532e-15 0)
(3 -1.64812e-15 0)
(3 -1.939e-15 0)
(3 -7.33544e-16 0)
(3 -4.24984e-16 0)
(3 -2.38724e-16 0)
(3 -1.57656e-16 0)
(3 -8.08097e-16 0)
(3 -1.80458e-15 0)
(3 -2.69509e-15 0)
(3 -3.09076e-15 0)
(3 -2.67973e-15 0)
(3 1.15971e-17 0)
(3 3.1548e-16 0)
(3 5.54726e-16 0)
(3 8.18933e-16 0)
(3 3.44083e-16 0)
(3 1.0316e-16 0)
(3 1.75326e-16 0)
(3 2.45181e-16 0)
(3 5.31324e-16 0)
(3 7.58094e-16 0)
(3 1.53416e-15 0)
(3 1.92922e-15 0)
(3 5.94341e-16 0)
(3 3.07383e-16 0)
(3 4.65317e-16 0)
(3 -2.90963e-16 0)
(3 -1.42845e-15 0)
(3 -1.6101e-15 0)
(3 -1.65073e-15 0)
(3 -1.69115e-15 0)
(3 -1.40196e-15 0)
(3 -1.1678e-15 0)
(3 -9.79005e-16 0)
(3 -1.15486e-15 0)
(3 -1.33184e-15 0)
(3 -8.96992e-16 0)
(3 -9.6577e-16 0)
(3 -1.32649e-15 0)
(3 -1.56629e-15 0)
(3 -1.82333e-15 0)
(3 -8.16257e-16 0)
(3 -5.75095e-16 0)
(3 -9.93416e-16 0)
(3 -1.15664e-15 0)
(3 -1.22754e-15 0)
(3 -1.75609e-15 0)
(3 -1.88396e-15 0)
(3 -1.46833e-15 0)
(3 -5.87459e-16 0)
(3 5.06345e-16 0)
(3 6.83916e-16 0)
(3 1.34657e-16 0)
(3 -6.28103e-16 0)
(3 -1.00632e-15 0)
(3 -1.35181e-15 0)
(3 -1.52182e-15 0)
(3 -1.445e-15 0)
(3 -1.49166e-15 0)
(3 5.70263e-17 0)
(3 4.6613e-16 0)
(3 6.18553e-16 0)
(3 3.90709e-16 0)
(3 -6.14299e-17 0)
(3 4.91646e-16 0)
(3 5.99297e-16 0)
(3 7.59233e-16 0)
(3 6.97472e-16 0)
(3 1.22347e-15 0)
(3 1.73643e-15 0)
(3 1.36394e-15 0)
(3 1.43315e-15 0)
(3 1.09918e-15 0)
(3 1.46525e-15 0)
(3 1.25751e-15 0)
(3 1.61129e-17 0)
(3 -7.25666e-16 0)
(3 -1.38574e-15 0)
(3 -1.46962e-15 0)
(3 -1.61224e-15 0)
(3 -1.04639e-15 0)
(3 -5.9333e-17 0)
(3 2.63143e-16 0)
(3 -5.44601e-16 0)
(3 -1.2704e-15 0)
(3 -1.48378e-15 0)
(3 -1.85445e-15 0)
(3 -2.35596e-15 0)
(3 -2.5862e-15 0)
(3 -2.15959e-15 0)
(3 -1.7397e-15 0)
(3 -1.70339e-15 0)
(3 -1.26737e-15 0)
(3 -4.91276e-16 0)
(3 -6.01314e-16 0)
(3 -1.43144e-15 0)
(3 -1.22391e-15 0)
(3 -6.16704e-17 0)
(3 1.39978e-16 0)
(3 -2.56342e-16 0)
(3 -7.71313e-16 0)
(3 -5.4765e-16 0)
(3 -5.49952e-16 0)
(3 -6.46904e-16 0)
(3 -1.02819e-15 0)
(3 -9.90119e-16 0)
(3 -1.01313e-15 0)
(3 -3.20692e-17 0)
(3 1.11703e-16 0)
(3 -1.35997e-16 0)
(3 -2.14278e-16 0)
(3 2.98283e-17 0)
(3 2.50388e-16 0)
(3 5.04872e-16 0)
(3 7.97262e-16 0)
(3 9.56759e-16 0)
(3 1.61098e-15 0)
(3 1.78677e-15 0)
(3 1.72553e-15 0)
(3 1.99607e-15 0)
(3 1.86021e-15 0)
(3 1.92221e-15 0)
(3 2.39576e-15 0)
(3 2.08743e-15 0)
(3 -7.61789e-17 0)
(3 -2.32887e-15 0)
(3 -2.74249e-15 0)
(3 -1.73798e-15 0)
(3 -6.31348e-16 0)
(3 -4.17644e-16 0)
(3 -1.02396e-15 0)
(3 -2.47498e-15 0)
(3 -2.95021e-15 0)
(3 -2.25004e-15 0)
(3 -1.67695e-15 0)
(3 -1.18867e-15 0)
(3 -1.26535e-15 0)
(3 -1.55012e-15 0)
(3 -1.77587e-15 0)
(3 -1.73264e-15 0)
(3 -1.85105e-15 0)
(3 -1.38431e-15 0)
(3 -1.11201e-15 0)
(3 -9.86945e-16 0)
(3 -7.7377e-16 0)
(3 -1.15344e-15 0)
(3 -1.77952e-15 0)
(3 -2.36149e-15 0)
(3 -2.21478e-15 0)
(3 -2.15772e-15 0)
(3 -2.59368e-15 0)
(3 -2.42123e-15 0)
(3 -1.60234e-15 0)
(3 -1.64392e-15 0)
(3 -1.66874e-15 0)
(3 1.57312e-17 0)
(3 -4.15708e-16 0)
(3 -7.80022e-16 0)
(3 -4.37907e-16 0)
(3 2.72848e-17 0)
(3 1.6715e-16 0)
(3 5.67014e-16 0)
(3 8.41085e-16 0)
(3 1.00308e-15 0)
(3 9.45007e-16 0)
(3 1.14119e-15 0)
(3 1.56951e-15 0)
(3 1.39306e-15 0)
(3 1.20281e-15 0)
(3 7.84881e-16 0)
(3 5.56307e-16 0)
(3 -1.06854e-16 0)
(3 -6.15765e-16 0)
(3 -1.46759e-15 0)
(3 -1.19286e-15 0)
(3 -7.42339e-16 0)
(3 -3.1704e-16 0)
(3 -1.75646e-15 0)
(3 -4.0416e-15 0)
(3 -3.79652e-15 0)
(3 -2.75379e-15 0)
(3 -1.88014e-15 0)
(3 -4.61202e-16 0)
(3 2.71445e-16 0)
(3 4.45594e-16 0)
(3 -2.54372e-16 0)
(3 -4.3017e-16 0)
(3 -4.23055e-16 0)
(3 -1.94166e-16 0)
(3 -3.99513e-16 0)
(3 -8.60643e-16 0)
(3 -6.2413e-16 0)
(3 -5.13519e-16 0)
(3 -1.56241e-15 0)
(3 -1.45665e-15 0)
(3 -2.08785e-15 0)
(3 -2.28294e-15 0)
(3 -2.51997e-15 0)
(3 -2.92172e-15 0)
(3 -3.27757e-15 0)
(3 -2.7248e-15 0)
(3 -1.42554e-15 0)
(3 -1.73656e-15 0)
(3 -2.0877e-16 0)
(3 -3.75856e-16 0)
(3 -4.37965e-16 0)
(3 -2.75496e-16 0)
(3 -3.48288e-16 0)
(3 1.11683e-16 0)
(3 3.38934e-16 0)
(3 7.88133e-16 0)
(3 9.01663e-16 0)
(3 7.95339e-16 0)
(3 7.5e-16 0)
(3 6.05463e-16 0)
(3 1.95391e-16 0)
(3 -4.59095e-16 0)
(3 -6.91699e-16 0)
(3 -9.75659e-16 0)
(3 -8.31515e-16 0)
(3 -2.34351e-16 0)
(3 5.67058e-16 0)
(3 1.05222e-15 0)
(3 8.90379e-16 0)
(3 -3.2868e-16 0)
(3 -2.15262e-15 0)
(3 -1.80349e-15 0)
(3 -6.06799e-16 0)
(3 -2.19585e-16 0)
(3 -9.18371e-16 0)
(3 -2.78814e-16 0)
(3 1.09917e-16 0)
(3 7.10745e-16 0)
(3 7.93609e-16 0)
(3 2.10814e-16 0)
(3 4.23529e-16 0)
(3 1.33662e-15 0)
(3 1.44179e-15 0)
(3 1.09413e-15 0)
(3 7.43009e-16 0)
(3 -7.98884e-16 0)
(3 -1.25132e-15 0)
(3 -1.32132e-15 0)
(3 -1.90529e-15 0)
(3 -2.75121e-15 0)
(3 -2.65816e-15 0)
(3 -2.05631e-15 0)
(3 -2.39553e-15 0)
(3 -2.61322e-15 0)
(3 -1.74872e-15 0)
(3 -1.42321e-15 0)
(3 -1.11246e-16 0)
(3 1.02061e-16 0)
(3 -7.47702e-17 0)
(3 -3.42187e-16 0)
(3 -6.43057e-16 0)
(3 -1.03559e-15 0)
(3 -9.02675e-16 0)
(3 -6.68907e-16 0)
(3 1.33675e-17 0)
(3 3.29714e-16 0)
(3 3.61553e-16 0)
(3 -2.37801e-16 0)
(3 -5.41284e-16 0)
(3 -1.07459e-15 0)
(3 -1.14446e-15 0)
(3 -8.22871e-16 0)
(3 -3.95136e-16 0)
(3 -1.97509e-16 0)
(3 3.13384e-16 0)
(3 5.38523e-16 0)
(3 5.33355e-16 0)
(3 6.72162e-17 0)
(3 -1.47813e-16 0)
(3 3.84061e-16 0)
(3 5.39941e-16 0)
(3 1.82698e-16 0)
(3 1.15606e-16 0)
(3 3.50106e-16 0)
(3 4.41474e-16 0)
(3 3.1836e-17 0)
(3 -1.19019e-16 0)
(3 4.50227e-16 0)
(3 1.41922e-15 0)
(3 1.92274e-15 0)
(3 2.01509e-15 0)
(3 1.91495e-15 0)
(3 1.40369e-15 0)
(3 5.8667e-16 0)
(3 -7.35172e-16 0)
(3 -1.59455e-15 0)
(3 -2.58879e-15 0)
(3 -3.31386e-15 0)
(3 -2.88793e-15 0)
(3 -2.30397e-15 0)
(3 -1.54373e-15 0)
(3 -6.40207e-16 0)
(3 -1.06362e-15 0)
(3 -1.45838e-15 0)
(3 3.04495e-16 0)
(3 3.1853e-16 0)
(3 1.44826e-16 0)
(3 -1.34671e-16 0)
(3 -3.5537e-16 0)
(3 -5.66418e-16 0)
(3 -8.891e-16 0)
(3 -1.36401e-15 0)
(3 -1.26957e-15 0)
(3 -1.46091e-15 0)
(3 -1.49961e-15 0)
(3 -1.37413e-15 0)
(3 -8.47629e-16 0)
(3 -4.00103e-16 0)
(3 -3.9911e-16 0)
(3 -6.71087e-16 0)
(3 -6.41065e-16 0)
(3 -3.92005e-16 0)
(3 -4.24776e-16 0)
(3 -5.74177e-16 0)
(3 -1.02639e-15 0)
(3 -3.2502e-16 0)
(3 8.4589e-16 0)
(3 1.38413e-15 0)
(3 1.39578e-15 0)
(3 1.2953e-15 0)
(3 1.47784e-15 0)
(3 1.10198e-15 0)
(3 9.97484e-16 0)
(3 4.41571e-16 0)
(3 2.88088e-16 0)
(3 1.26937e-15 0)
(3 1.2952e-15 0)
(3 1.68963e-15 0)
(3 2.31865e-15 0)
(3 2.01383e-15 0)
(3 1.58842e-15 0)
(3 5.38721e-16 0)
(3 -9.61448e-16 0)
(3 -2.06425e-15 0)
(3 -2.29097e-15 0)
(3 -2.28177e-15 0)
(3 -2.43259e-15 0)
(3 -2.09231e-15 0)
(3 -1.29078e-15 0)
(3 -4.47972e-16 0)
(3 -2.03392e-16 0)
(3 -4.93177e-16 0)
(3 -2.18251e-16 0)
(3 -5.12665e-16 0)
(3 -5.98164e-16 0)
(3 -5.31301e-16 0)
(3 -3.12678e-16 0)
(3 -1.08027e-16 0)
(3 -1.05617e-17 0)
(3 -3.98698e-16 0)
(3 -8.4558e-16 0)
(3 -1.09081e-15 0)
(3 -1.38317e-15 0)
(3 -1.81608e-15 0)
(3 -2.06929e-15 0)
(3 -1.62434e-15 0)
(3 -9.74507e-16 0)
(3 -4.00861e-16 0)
(3 -2.54976e-16 0)
(3 -1.29608e-16 0)
(3 -1.2117e-16 0)
(3 -2.66795e-16 0)
(3 -5.66237e-16 0)
(3 -3.87715e-16 0)
(3 -5.22324e-16 0)
(3 6.3437e-17 0)
(3 1.37546e-15 0)
(3 1.09778e-15 0)
(3 1.06202e-15 0)
(3 4.14468e-16 0)
(3 -2.42671e-16 0)
(3 1.04139e-15 0)
(3 1.76216e-15 0)
(3 2.03044e-15 0)
(3 2.33311e-15 0)
(3 2.39381e-15 0)
(3 3.02138e-15 0)
(3 2.60309e-15 0)
(3 1.48226e-15 0)
(3 7.69369e-16 0)
(3 -1.84651e-16 0)
(3 -6.21621e-16 0)
(3 -3.94865e-16 0)
(3 -9.77232e-18 0)
(3 -4.45477e-17 0)
(3 -3.34391e-16 0)
(3 -4.42794e-16 0)
(3 -6.55579e-16 0)
(3 -2.80211e-16 0)
(3 4.28769e-16 0)
(3 -2.20433e-16 0)
(3 -1.194e-16 0)
(3 6.63328e-17 0)
(3 -1.92266e-18 0)
(3 1.21676e-16 0)
(3 -5.79159e-17 0)
(3 -2.88924e-16 0)
(3 -2.71467e-16 0)
(3 -4.39336e-16 0)
(3 -5.66486e-16 0)
(3 -9.60787e-16 0)
(3 -1.39373e-15 0)
(3 -1.01004e-15 0)
(3 -6.889e-16 0)
(3 -8.12945e-16 0)
(3 -3.86878e-16 0)
(3 -5.87494e-17 0)
(3 -1.71759e-16 0)
(3 -3.632e-16 0)
(3 -3.06318e-16 0)
(3 -3.95188e-16 0)
(3 -7.58303e-16 0)
(3 -9.89085e-16 0)
(3 -1.03549e-15 0)
(3 -3.29719e-16 0)
(3 3.03022e-16 0)
(3 2.8505e-16 0)
(3 -6.22037e-16 0)
(3 -9.14635e-17 0)
(3 8.23719e-16 0)
(3 1.05853e-15 0)
(3 1.77069e-15 0)
(3 2.54239e-15 0)
(3 2.8612e-15 0)
(3 2.54602e-15 0)
(3 2.05353e-15 0)
(3 1.181e-15 0)
(3 1.01221e-15 0)
(3 1.38256e-15 0)
(3 2.00075e-15 0)
(3 1.88057e-15 0)
(3 1.69583e-15 0)
(3 1.6408e-15 0)
(3 1.60933e-15 0)
(3 1.10217e-15 0)
(3 4.95095e-16 0)
(3 1.8986e-16 0)
(3 2.50425e-17 0)
(3 1.57996e-16 0)
(3 5.2605e-16 0)
(3 6.18481e-16 0)
(3 7.79328e-16 0)
(3 7.9793e-16 0)
(3 4.55067e-16 0)
(3 -5.87687e-16 0)
(3 -3.65785e-16 0)
(3 -1.35553e-16 0)
(3 -9.28077e-17 0)
(3 -1.86121e-16 0)
(3 -8.00381e-17 0)
(3 7.21937e-16 0)
(3 1.04727e-15 0)
(3 1.13006e-15 0)
(3 6.75672e-16 0)
(3 5.83131e-16 0)
(3 4.89462e-16 0)
(3 4.17697e-16 0)
(3 -8.96077e-17 0)
(3 -6.43662e-17 0)
(3 -2.63561e-16 0)
(3 -3.22568e-17 0)
(3 -2.61532e-16 0)
(3 -5.65019e-16 0)
(3 1.48268e-16 0)
(3 5.21476e-16 0)
(3 5.59411e-16 0)
(3 1.84763e-15 0)
(3 9.81437e-16 0)
(3 1.11052e-15 0)
(3 1.77179e-15 0)
(3 2.04006e-15 0)
(3 1.82322e-15 0)
(3 1.2366e-15 0)
(3 4.10971e-16 0)
(3 7.65657e-16 0)
(3 1.55277e-15 0)
(3 2.15098e-15 0)
(3 3.05614e-15 0)
(3 3.37019e-15 0)
(3 3.17825e-15 0)
(3 2.24662e-15 0)
(3 1.30011e-15 0)
(3 6.80276e-16 0)
(3 6.19599e-16 0)
(3 5.40551e-16 0)
(3 -2.95702e-18 0)
(3 -1.06515e-16 0)
(3 -1.97875e-16 0)
(3 2.3877e-16 0)
(3 9.20298e-16 0)
(3 1.01559e-15 0)
(3 9.21883e-16 0)
(3 6.01899e-16 0)
(3 3.06664e-16 0)
(3 -2.26481e-16 0)
(3 -3.74573e-16 0)
(3 -1.49155e-16 0)
(3 7.90532e-16 0)
(3 9.97236e-16 0)
(3 1.0868e-15 0)
(3 1.22132e-15 0)
(3 7.91976e-16 0)
(3 1.13573e-15 0)
(3 1.44981e-15 0)
(3 2.08482e-15 0)
(3 1.8706e-15 0)
(3 1.64518e-15 0)
(3 1.4113e-15 0)
(3 1.39841e-15 0)
(3 8.51047e-16 0)
(3 -2.29376e-16 0)
(3 -1.21521e-16 0)
(3 4.45122e-16 0)
(3 1.43843e-15 0)
(3 1.7557e-15 0)
(3 2.01726e-15 0)
(3 1.62666e-15 0)
(3 1.46502e-15 0)
(3 1.3317e-15 0)
(3 6.08943e-16 0)
(3 -4.08337e-16 0)
(3 4.39761e-16 0)
(3 7.02067e-16 0)
(3 1.32923e-15 0)
(3 1.58307e-15 0)
(3 2.49149e-15 0)
(3 3.33136e-15 0)
(3 3.6968e-15 0)
(3 2.68635e-15 0)
(3 1.66135e-15 0)
(3 2.10353e-15 0)
(3 2.77899e-15 0)
(3 1.98202e-15 0)
(3 1.06931e-15 0)
(3 -1.63025e-16 0)
(3 -2.48584e-16 0)
(3 3.79612e-16 0)
(3 7.95389e-16 0)
(3 7.12875e-16 0)
(3 3.24464e-16 0)
(3 5.45153e-16 0)
(3 -3.1286e-16 0)
(3 -1.63817e-15 0)
(3 -1.9039e-15 0)
(3 -1.23909e-15 0)
(3 -8.97481e-16 0)
(3 -4.99897e-16 0)
(3 -3.3752e-16 0)
(3 -2.03045e-16 0)
(3 1.60238e-16 0)
(3 6.63848e-16 0)
(3 1.17357e-15 0)
(3 2.16484e-15 0)
(3 3.07358e-15 0)
(3 2.79319e-15 0)
(3 2.8785e-15 0)
(3 1.34155e-15 0)
(3 2.69371e-16 0)
(3 -4.17071e-16 0)
(3 -1.93325e-16 0)
(3 3.72544e-16 0)
(3 9.70605e-16 0)
(3 1.00373e-15 0)
(3 1.12492e-15 0)
(3 1.08487e-15 0)
(3 9.01419e-16 0)
(3 -1.1013e-16 0)
(3 -2.95351e-16 0)
(3 -8.20165e-16 0)
(3 -4.10843e-16 0)
(3 -1.42139e-16 0)
(3 4.68764e-16 0)
(3 1.63823e-15 0)
(3 2.40507e-15 0)
(3 2.91814e-15 0)
(3 2.94396e-15 0)
(3 2.55749e-15 0)
(3 2.79097e-15 0)
(3 3.78805e-15 0)
(3 3.40292e-15 0)
(3 1.98881e-15 0)
(3 1.18378e-15 0)
(3 3.43891e-16 0)
(3 5.12621e-16 0)
(3 -4.0924e-17 0)
(3 -2.94635e-16 0)
(3 -3.66268e-16 0)
(3 -4.565e-16 0)
(3 -3.96382e-16 0)
(3 -9.00519e-16 0)
(3 -2.87435e-15 0)
(3 -3.4256e-15 0)
(3 -2.69022e-15 0)
(3 -1.77898e-15 0)
(3 -8.7951e-16 0)
(3 -1.1906e-15 0)
(3 -1.5804e-15 0)
(3 -1.07737e-15 0)
(3 -8.17335e-16 0)
(3 1.32845e-17 0)
(3 4.36108e-16 0)
(3 1.06251e-15 0)
(3 1.54223e-15 0)
(3 2.24484e-15 0)
(3 1.68761e-15 0)
(3 1.45283e-15 0)
(3 1.69589e-15 0)
(3 2.04298e-15 0)
(3 1.01455e-15 0)
(3 7.13745e-16 0)
(3 6.5913e-16 0)
(3 9.95788e-16 0)
(3 1.16994e-15 0)
(3 8.7944e-16 0)
(3 -5.12643e-16 0)
(3 -9.60224e-16 0)
(3 -6.85566e-16 0)
(3 -4.90988e-16 0)
(3 8.62144e-16 0)
(3 8.46747e-16 0)
(3 1.4148e-15 0)
(3 1.09574e-15 0)
(3 7.77684e-16 0)
(3 1.7524e-15 0)
(3 2.60344e-15 0)
(3 4.01009e-15 0)
(3 3.89431e-15 0)
(3 2.62812e-15 0)
(3 1.14176e-15 0)
(3 6.09211e-16 0)
(3 2.24332e-16 0)
(3 2.44962e-16 0)
(3 -1.73052e-16 0)
(3 -3.97029e-16 0)
(3 -5.63212e-16 0)
(3 -3.14222e-16 0)
(3 -4.65209e-16 0)
(3 -3.91051e-16 0)
(3 -1.13214e-15 0)
(3 -2.71974e-15 0)
(3 -2.42632e-15 0)
(3 -1.63219e-15 0)
(3 -7.12656e-16 0)
(3 -7.44833e-16 0)
(3 -1.01529e-15 0)
(3 -1.53222e-15 0)
(3 -1.20405e-15 0)
(3 6.78728e-17 0)
(3 -2.41714e-17 0)
(3 1.48193e-16 0)
(3 1.2502e-15 0)
(3 1.25088e-15 0)
(3 1.87049e-15 0)
(3 2.25201e-15 0)
(3 2.63616e-15 0)
(3 2.39943e-15 0)
(3 2.05943e-15 0)
(3 2.16662e-15 0)
(3 2.2661e-15 0)
(3 2.01986e-15 0)
(3 1.8862e-15 0)
(3 9.32975e-16 0)
(3 4.24518e-16 0)
(3 -2.00612e-16 0)
(3 -3.01002e-16 0)
(3 1.98858e-16 0)
(3 7.4767e-16 0)
(3 7.35825e-16 0)
(3 2.95248e-16 0)
(3 -5.28089e-16 0)
(3 -9.84752e-16 0)
(3 -5.37004e-16 0)
(3 8.89459e-16 0)
(3 1.86716e-15 0)
(3 1.49999e-15 0)
(3 1.74435e-15 0)
(3 1.84858e-15 0)
(3 1.46615e-15 0)
(3 -4.39953e-16 0)
(3 -3.23206e-16 0)
(3 4.15361e-17 0)
(3 1.68099e-16 0)
(3 -1.29792e-16 0)
(3 -1.16318e-16 0)
(3 -4.69246e-16 0)
(3 -5.77991e-17 0)
(3 2.10043e-17 0)
(3 -3.69214e-16 0)
(3 -7.17502e-16 0)
(3 -1.43454e-15 0)
(3 -1.90231e-15 0)
(3 -1.89836e-15 0)
(3 -5.88987e-16 0)
(3 -3.28444e-16 0)
(3 2.4837e-16 0)
(3 1.27379e-15 0)
(3 1.3124e-15 0)
(3 1.28201e-16 0)
(3 2.66683e-16 0)
(3 1.33279e-16 0)
(3 4.40701e-16 0)
(3 9.48429e-16 0)
(3 1.46542e-15 0)
(3 1.8099e-15 0)
(3 2.04727e-15 0)
(3 2.54966e-15 0)
(3 2.91938e-15 0)
(3 2.5724e-15 0)
(3 2.53635e-15 0)
(3 2.03865e-15 0)
(3 2.29276e-15 0)
(3 1.87525e-15 0)
(3 2.21806e-16 0)
(3 4.57312e-16 0)
(3 1.02717e-17 0)
(3 3.52017e-16 0)
(3 2.74916e-16 0)
(3 -1.2159e-16 0)
(3 -4.12402e-16 0)
(3 -2.64495e-16 0)
(3 8.60687e-17 0)
(3 5.71651e-17 0)
(3 -4.5398e-16 0)
(3 1.73758e-16 0)
(3 2.28049e-15 0)
(3 2.33183e-15 0)
(3 9.94674e-18 0)
(3 1.48667e-16 0)
(3 -1.11634e-16 0)
(3 -3.93515e-16 0)
(3 -1.06155e-16 0)
(3 6.39966e-17 0)
(3 5.6942e-16 0)
(3 6.72973e-16 0)
(3 5.00696e-16 0)
(3 2.78004e-16 0)
(3 2.47858e-16 0)
(3 -1.2787e-16 0)
(3 -9.87732e-16 0)
(3 -9.6359e-16 0)
(3 -2.10719e-16 0)
(3 6.29395e-16 0)
(3 3.40067e-16 0)
(3 2.81387e-16 0)
(3 -1.22643e-16 0)
(3 -4.28254e-16 0)
(3 -7.1521e-16 0)
(3 -1.26801e-15 0)
(3 -4.9617e-16 0)
(3 2.32486e-16 0)
(3 4.97228e-16 0)
(3 6.7921e-16 0)
(3 1.97475e-16 0)
(3 -9.44267e-17 0)
(3 3.5039e-16 0)
(3 1.24094e-15 0)
(3 1.8153e-15 0)
(3 2.41642e-15 0)
(3 2.33868e-15 0)
(3 2.06539e-15 0)
(3 2.01104e-15 0)
(3 1.15679e-15 0)
(3 9.95535e-16 0)
(3 7.60196e-16 0)
(3 1.2393e-15 0)
(3 8.20177e-16 0)
(3 7.08812e-16 0)
(3 9.01583e-16 0)
(3 2.93742e-16 0)
(3 -1.59947e-16 0)
(3 2.21358e-16 0)
(3 7.39437e-16 0)
(3 1.92269e-15 0)
(3 4.54965e-16 0)
(3 3.41289e-16 0)
(3 4.76543e-16 0)
(3 1.95693e-16 0)
(3 -8.83199e-17 0)
(3 -1.1942e-16 0)
(3 -6.14032e-17 0)
(3 3.33457e-16 0)
(3 6.05442e-16 0)
(3 9.90711e-16 0)
(3 1.7504e-15 0)
(3 2.00211e-15 0)
(3 6.15206e-16 0)
(3 9.09263e-16 0)
(3 1.67263e-15 0)
(3 1.59393e-15 0)
(3 1.682e-15 0)
(3 3.9077e-16 0)
(3 -3.03694e-16 0)
(3 -7.20663e-17 0)
(3 4.58181e-17 0)
(3 -1.44885e-16 0)
(3 -4.57293e-16 0)
(3 -2.36315e-16 0)
(3 -4.88758e-16 0)
(3 -5.19105e-16 0)
(3 -8.07977e-16 0)
(3 -1.77195e-15 0)
(3 -1.80586e-15 0)
(3 -1.52434e-15 0)
(3 -1.10017e-15 0)
(3 -5.20181e-16 0)
(3 -7.35018e-17 0)
(3 4.05089e-16 0)
(3 2.85822e-16 0)
(3 2.25635e-15 0)
(3 2.95828e-15 0)
(3 2.72851e-15 0)
(3 1.87384e-15 0)
(3 1.03526e-15 0)
(3 8.0592e-16 0)
(3 1.38106e-15 0)
(3 1.24867e-15 0)
(3 5.98741e-16 0)
(3 4.81019e-16 0)
(3 1.12322e-15 0)
(3 1.1638e-15 0)
(3 1.216e-15 0)
(3 6.62772e-16 0)
(3 5.21722e-18 0)
(3 -2.65535e-16 0)
(3 -7.50584e-17 0)
(3 -1.23495e-17 0)
(3 1.87748e-17 0)
(3 -2.68934e-16 0)
(3 -3.46898e-16 0)
(3 -4.363e-16 0)
(3 1.09512e-15 0)
(3 1.91943e-15 0)
(3 2.52029e-15 0)
(3 2.27938e-15 0)
(3 1.87703e-15 0)
(3 1.55702e-15 0)
(3 1.44662e-15 0)
(3 1.12017e-15 0)
(3 1.32983e-15 0)
(3 1.50566e-15 0)
(3 1.21679e-15 0)
(3 6.33646e-16 0)
(3 4.1064e-16 0)
(3 1.01104e-15 0)
(3 8.49042e-16 0)
(3 -1.19595e-16 0)
(3 -5.46285e-16 0)
(3 -1.38072e-15 0)
(3 -1.58987e-15 0)
(3 -1.33327e-15 0)
(3 -1.58459e-15 0)
(3 -2.14641e-15 0)
(3 -2.71865e-15 0)
(3 -2.91532e-15 0)
(3 -1.45644e-15 0)
(3 1.27337e-15 0)
(3 1.80748e-15 0)
(3 1.99728e-15 0)
(3 9.24911e-16 0)
(3 9.75012e-16 0)
(3 2.0709e-16 0)
(3 -8.826e-17 0)
(3 2.57873e-16 0)
(3 4.8835e-16 0)
(3 7.95769e-16 0)
(3 9.77491e-16 0)
(3 1.30036e-15 0)
(3 1.46333e-15 0)
(3 4.54407e-16 0)
(3 7.33874e-16 0)
(3 -1.08326e-16 0)
(3 -3.19544e-16 0)
(3 -4.27989e-16 0)
(3 -2.78533e-16 0)
(3 -5.67931e-16 0)
(3 -3.62094e-16 0)
(3 -1.35019e-16 0)
(3 -1.04052e-16 0)
(3 1.22601e-15 0)
(3 1.8707e-15 0)
(3 2.51768e-15 0)
(3 2.4968e-15 0)
(3 1.32575e-15 0)
(3 6.12714e-16 0)
(3 8.17277e-16 0)
(3 7.86189e-16 0)
(3 7.03273e-16 0)
(3 1.43761e-15 0)
(3 8.39647e-16 0)
(3 3.13464e-16 0)
(3 5.4967e-16 0)
(3 7.2988e-16 0)
(3 2.66944e-16 0)
(3 -1.20364e-16 0)
(3 -5.0156e-16 0)
(3 -1.16102e-15 0)
(3 -8.49191e-16 0)
(3 -1.03088e-15 0)
(3 -1.26058e-15 0)
(3 -1.71367e-15 0)
(3 -2.16212e-15 0)
(3 -2.3481e-15 0)
(3 -1.07236e-15 0)
(3 4.30671e-16 0)
(3 8.61795e-17 0)
(3 -1.23529e-16 0)
(3 -7.92015e-17 0)
(3 -4.7351e-16 0)
(3 -5.63797e-16 0)
(3 -5.11003e-16 0)
(3 -6.72561e-16 0)
(3 -3.15562e-16 0)
(3 1.83707e-16 0)
(3 5.27709e-16 0)
(3 2.05055e-16 0)
(3 2.13829e-16 0)
(3 7.85025e-17 0)
(3 1.34504e-15 0)
(3 -6.00836e-17 0)
(3 9.9306e-17 0)
(3 -2.46093e-16 0)
(3 -3.22974e-16 0)
(3 -1.80193e-16 0)
(3 -9.90212e-17 0)
(3 4.17007e-16 0)
(3 5.78417e-16 0)
(3 1.58917e-15 0)
(3 1.9073e-15 0)
(3 2.21496e-15 0)
(3 1.4265e-15 0)
(3 8.27317e-16 0)
(3 7.39862e-16 0)
(3 1.7217e-16 0)
(3 -3.90565e-17 0)
(3 -1.30793e-16 0)
(3 -1.11768e-16 0)
(3 -3.96719e-16 0)
(3 -1.01483e-15 0)
(3 -1.42725e-16 0)
(3 1.44511e-16 0)
(3 1.50523e-16 0)
(3 6.37746e-16 0)
(3 6.73195e-16 0)
(3 4.30535e-16 0)
(3 -2.83782e-16 0)
(3 -9.22008e-16 0)
(3 -1.49151e-15 0)
(3 -1.21695e-15 0)
(3 -1.26373e-15 0)
(3 -1.34641e-15 0)
(3 -1.20845e-15 0)
(3 -1.35236e-15 0)
(3 -1.13059e-15 0)
(3 -9.16547e-16 0)
(3 -6.16537e-16 0)
(3 -1.05615e-15 0)
(3 -7.90365e-16 0)
(3 -2.82523e-16 0)
(3 -1.76438e-16 0)
(3 -4.50878e-16 0)
(3 -3.55191e-16 0)
(3 7.20445e-16 0)
(3 4.31068e-16 0)
(3 4.78829e-16 0)
(3 1.11231e-15 0)
(3 -2.30705e-16 0)
(3 -1.63512e-16 0)
(3 -3.02326e-16 0)
(3 -6.54809e-16 0)
(3 -1.80881e-16 0)
(3 4.13136e-16 0)
(3 5.89821e-16 0)
(3 1.04522e-15 0)
(3 1.08569e-15 0)
(3 4.51914e-16 0)
(3 5.24624e-16 0)
(3 9.14122e-17 0)
(3 1.11372e-17 0)
(3 9.77059e-16 0)
(3 1.58681e-15 0)
(3 9.98827e-16 0)
(3 5.69789e-16 0)
(3 5.17683e-16 0)
(3 -3.71968e-16 0)
(3 -5.68212e-16 0)
(3 -4.60557e-16 0)
(3 -6.78632e-16 0)
(3 -8.97944e-16 0)
(3 -2.45514e-16 0)
(3 2.95881e-16 0)
(3 5.25329e-16 0)
(3 7.82633e-16 0)
(3 4.50808e-16 0)
(3 -6.92164e-16 0)
(3 -1.21907e-15 0)
(3 -1.55084e-15 0)
(3 -1.96231e-15 0)
(3 -1.78449e-15 0)
(3 -1.92875e-15 0)
(3 -2.01014e-15 0)
(3 -9.93108e-16 0)
(3 -1.36726e-16 0)
(3 -5.78458e-16 0)
(3 -6.49555e-16 0)
(3 -6.55981e-16 0)
(3 -5.29881e-16 0)
(3 2.0865e-16 0)
(3 -6.54246e-16 0)
(3 -1.62102e-15 0)
(3 -1.91377e-15 0)
(3 -1.19182e-15 0)
(3 -1.25179e-15 0)
(3 -8.03585e-16 0)
(3 -6.43621e-17 0)
(3 -2.22831e-16 0)
(3 -6.08723e-16 0)
(3 2.17653e-16 0)
(3 5.92957e-16 0)
(3 2.52626e-16 0)
(3 1.68598e-16 0)
(3 1.10637e-15 0)
(3 1.02973e-15 0)
(3 5.43406e-16 0)
(3 4.15154e-16 0)
(3 2.66993e-16 0)
(3 2.32758e-17 0)
(3 2.40025e-16 0)
(3 7.53185e-16 0)
(3 1.2822e-15 0)
(3 8.47272e-16 0)
(3 2.45699e-16 0)
(3 -3.0477e-16 0)
(3 -1.97026e-16 0)
(3 8.09568e-17 0)
(3 -3.62825e-16 0)
(3 -1.41346e-15 0)
(3 -1.08717e-15 0)
(3 -4.644e-16 0)
(3 -2.99957e-16 0)
(3 -1.55554e-16 0)
(3 1.84686e-16 0)
(3 -2.3893e-16 0)
(3 -9.29611e-16 0)
(3 -1.36106e-15 0)
(3 -3.51844e-15 0)
(3 -3.46596e-15 0)
(3 -2.73541e-15 0)
(3 -1.47057e-15 0)
(3 -3.478e-16 0)
(3 -2.98219e-16 0)
(3 3.04403e-16 0)
(3 8.85702e-16 0)
(3 3.09968e-16 0)
(3 2.32933e-16 0)
(3 -4.10299e-16 0)
(3 -7.85381e-16 0)
(3 -1.99893e-15 0)
(3 -3.0231e-15 0)
(3 -2.62973e-15 0)
(3 -2.69256e-15 0)
(3 -1.98908e-15 0)
(3 -5.01429e-16 0)
(3 -4.45758e-18 0)
(3 3.42731e-18 0)
(3 3.33617e-16 0)
(3 6.59743e-16 0)
(3 -1.16074e-16 0)
(3 -5.38363e-16 0)
(3 -2.27628e-16 0)
(3 1.58603e-16 0)
(3 1.24542e-15 0)
(3 1.74451e-15 0)
(3 1.95967e-15 0)
(3 1.42781e-15 0)
(3 6.17563e-16 0)
(3 -4.40126e-17 0)
(3 1.90342e-16 0)
(3 2.83247e-16 0)
(3 -2.34928e-16 0)
(3 -8.94876e-16 0)
(3 -1.38204e-15 0)
(3 -1.94354e-15 0)
(3 -1.93747e-15 0)
(3 -1.21356e-15 0)
(3 -1.23301e-15 0)
(3 -1.62016e-15 0)
(3 -9.9815e-16 0)
(3 -1.16596e-15 0)
(3 -1.11458e-15 0)
(3 -8.9898e-16 0)
(3 -8.97498e-16 0)
(3 -9.27712e-16 0)
(3 -2.26422e-15 0)
(3 -2.66402e-15 0)
(3 -2.15704e-15 0)
(3 -1.55329e-15 0)
(3 -1.315e-15 0)
(3 -1.75166e-15 0)
(3 -8.48682e-16 0)
(3 5.67452e-16 0)
(3 9.61398e-16 0)
(3 -5.08992e-16 0)
(3 -1.19429e-15 0)
(3 -9.01747e-16 0)
(3 -6.91358e-16 0)
(3 -1.33838e-15 0)
(3 -1.19919e-15 0)
(3 -9.31569e-16 0)
(3 -1.32103e-15 0)
(3 -1.58206e-15 0)
(3 2.66693e-16 0)
(3 5.04481e-16 0)
(3 -7.45427e-17 0)
(3 -6.393e-16 0)
(3 -1.98608e-16 0)
(3 4.49045e-16 0)
(3 7.78637e-16 0)
(3 1.20228e-15 0)
(3 1.75622e-15 0)
(3 1.57277e-15 0)
(3 1.36369e-15 0)
(3 1.39111e-15 0)
(3 9.65001e-16 0)
(3 5.95051e-16 0)
(3 1.86267e-16 0)
(3 -2.82175e-16 0)
(3 -1.2678e-15 0)
(3 -1.588e-15 0)
(3 -1.49922e-15 0)
(3 -1.70766e-15 0)
(3 -1.56917e-15 0)
(3 -1.52066e-15 0)
(3 -1.83634e-15 0)
(3 -1.19052e-15 0)
(3 -1.50094e-16 0)
(3 -6.08917e-16 0)
(3 -2.21841e-15 0)
(3 -2.32491e-15 0)
(3 -1.64624e-15 0)
(3 -3.89771e-16 0)
(3 9.49421e-16 0)
(3 4.87415e-16 0)
(3 -2.58547e-16 0)
(3 -9.16226e-16 0)
(3 -1.45994e-15 0)
(3 -1.10497e-15 0)
(3 -3.61305e-16 0)
(3 -2.25526e-16 0)
(3 -2.57807e-16 0)
(3 -6.72165e-16 0)
(3 -5.22983e-16 0)
(3 -4.34031e-16 0)
(3 -5.15143e-16 0)
(3 -1.4245e-15 0)
(3 -1.25759e-15 0)
(3 -4.56113e-16 0)
(3 -4.28103e-16 0)
(3 -2.88785e-16 0)
(3 9.73739e-18 0)
(3 -1.21255e-16 0)
(3 -4.73634e-16 0)
(3 -1.01516e-15 0)
(3 -1.08551e-15 0)
(3 -5.66836e-16 0)
(3 6.58527e-16 0)
(3 1.22547e-15 0)
(3 4.82593e-16 0)
(3 -4.53795e-16 0)
(3 -2.6344e-16 0)
(3 -3.93239e-16 0)
(3 -3.38071e-16 0)
(3 -2.76933e-16 0)
(3 -7.83966e-16 0)
(3 -1.72445e-15 0)
(3 -2.0893e-15 0)
(3 -1.5869e-15 0)
(3 -2.82348e-17 0)
(3 4.93756e-16 0)
(3 4.45063e-16 0)
(3 3.73735e-16 0)
(3 3.22618e-16 0)
(3 7.51327e-16 0)
(3 3.91476e-16 0)
(3 -1.33276e-15 0)
(3 -1.89621e-15 0)
(3 -2.39347e-15 0)
(3 -7.19395e-16 0)
(3 6.84209e-16 0)
(3 2.58072e-15 0)
(3 2.43769e-15 0)
(3 1.49401e-15 0)
(3 -6.78999e-16 0)
(3 -8.28183e-16 0)
(3 -3.92817e-16 0)
(3 2.99073e-16 0)
(3 -1.04289e-15 0)
(3 -9.1733e-16 0)
(3 -1.04217e-16 0)
(3 -7.52598e-16 0)
(3 -1.06081e-15 0)
(3 -1.51693e-15 0)
(3 -1.5322e-15 0)
(3 -1.68243e-15 0)
(3 -4.54035e-16 0)
(3 -2.07365e-16 0)
(3 -7.12079e-17 0)
(3 -1.89345e-16 0)
(3 -1.19527e-16 0)
(3 -2.30711e-16 0)
(3 -1.74633e-16 0)
(3 -2.68426e-16 0)
(3 -2.9516e-16 0)
(3 -1.71675e-17 0)
(3 -2.80538e-16 0)
(3 -6.50347e-16 0)
(3 -3.97249e-16 0)
(3 -5.58432e-16 0)
(3 -6.52939e-16 0)
(3 -1.06081e-15 0)
(3 -1.17775e-15 0)
(3 -1.2003e-15 0)
(3 -1.18289e-15 0)
(3 -6.11216e-16 0)
(3 3.65659e-16 0)
(3 9.42118e-16 0)
(3 8.51718e-16 0)
(3 9.65318e-16 0)
(3 1.39127e-15 0)
(3 1.79644e-15 0)
(3 1.50649e-15 0)
(3 -8.20456e-16 0)
(3 -1.94177e-15 0)
(3 -1.53405e-15 0)
(3 -1.35952e-15 0)
(3 -2.92011e-17 0)
(3 5.33212e-16 0)
(3 1.07359e-15 0)
(3 1.71215e-15 0)
(3 1.49225e-15 0)
(3 1.47008e-15 0)
(3 1.145e-15 0)
(3 4.41899e-16 0)
(3 -1.2957e-15 0)
(3 -1.00622e-15 0)
(3 -3.92172e-16 0)
(3 6.93428e-17 0)
(3 -6.61194e-16 0)
(3 -1.418e-15 0)
(3 -1.12026e-15 0)
(3 -3.30346e-16 0)
(3 3.52739e-16 0)
(3 -5.22445e-17 0)
(3 -1.72012e-16 0)
(3 -2.24683e-16 0)
(3 -2.43274e-17 0)
(3 2.44495e-16 0)
(3 6.78534e-16 0)
(3 1.42154e-15 0)
(3 1.57965e-15 0)
(3 1.35301e-15 0)
(3 3.35806e-16 0)
(3 -4.10682e-16 0)
(3 -3.57096e-16 0)
(3 1.60222e-18 0)
(3 -3.79681e-16 0)
(3 -2.46776e-16 0)
(3 -4.73647e-16 0)
(3 -6.70976e-16 0)
(3 -4.31864e-16 0)
(3 -3.25852e-16 0)
(3 -2.69369e-16 0)
(3 -6.05281e-16 0)
(3 -8.1128e-16 0)
(3 -5.04179e-16 0)
(3 1.71868e-17 0)
(3 1.06009e-15 0)
(3 7.72225e-16 0)
(3 8.30072e-17 0)
(3 -1.01301e-15 0)
(3 -1.42984e-15 0)
(3 -3.25197e-16 0)
(3 6.84454e-16 0)
(3 6.25748e-16 0)
(3 -1.36556e-16 0)
(3 -2.5675e-16 0)
(3 1.13395e-15 0)
(3 2.38796e-15 0)
(3 2.3857e-15 0)
(3 2.30255e-15 0)
(3 8.42203e-16 0)
(3 -1.48622e-15 0)
(3 -9.71558e-16 0)
(3 -8.11475e-16 0)
(3 -2.34034e-16 0)
(3 3.32739e-16 0)
(3 1.38677e-16 0)
(3 1.64455e-15 0)
(3 6.53466e-16 0)
(3 5.67206e-16 0)
(3 -3.38886e-16 0)
(3 -5.06675e-16 0)
(3 -9.06318e-16 0)
(3 -3.04773e-17 0)
(3 2.719e-16 0)
(3 7.76842e-16 0)
(3 9.95311e-16 0)
(3 7.85391e-16 0)
(3 3.77456e-16 0)
(3 -2.39765e-16 0)
(3 -3.26442e-16 0)
(3 -3.7656e-16 0)
(3 -9.00195e-16 0)
(3 -1.0486e-15 0)
(3 -1.10274e-15 0)
(3 -1.14709e-15 0)
(3 -1.23574e-15 0)
(3 2.172e-16 0)
(3 8.2991e-16 0)
(3 1.20153e-15 0)
(3 7.82622e-16 0)
(3 -4.32162e-16 0)
(3 -7.59328e-16 0)
(3 8.79712e-17 0)
(3 1.14236e-15 0)
(3 9.50456e-17 0)
(3 -5.98945e-16 0)
(3 -1.17596e-15 0)
(3 -6.39352e-16 0)
(3 -1.80602e-16 0)
(3 -5.51845e-16 0)
(3 -1.32764e-15 0)
(3 -1.99586e-15 0)
(3 -1.65847e-15 0)
(3 -2.31744e-16 0)
(3 -6.22808e-17 0)
(3 -2.49397e-16 0)
(3 -8.11432e-16 0)
(3 -1.82522e-15 0)
(3 -1.01847e-15 0)
(3 8.32632e-17 0)
(3 7.06603e-16 0)
(3 1.15412e-15 0)
(3 1.75592e-15 0)
(3 1.7901e-15 0)
(3 1.37292e-15 0)
(3 1.06596e-15 0)
(3 -3.09026e-16 0)
(3 -8.20108e-16 0)
(3 -1.00959e-15 0)
(3 -1.53641e-15 0)
(3 -2.32137e-17 0)
(3 2.00715e-17 0)
(3 -1.06542e-16 0)
(3 -2.32015e-16 0)
(3 -2.93647e-16 0)
(3 -4.54071e-16 0)