/*--------------------------------*- C++ -*----------------------------------*\
  =========                 |
  \\      /  F ield         | OpenFOAM: The Open Source CFD Toolbox
   \\    /   O peration     | Website:  https://openfoam.org
    \\  /    A nd           | Version:  7
     \\/     M anipulation  |
\*---------------------------------------------------------------------------*/
FoamFile
{
    version     2.0;
    format      ascii;
    class       volScalarField;
    location    "1.1";
    object      p;
}
// * * * * * * * * * * * * * * * * * * * * * * * * * * * * * * * * * * * * * //

dimensions      [1 -1 -2 0 0 0 0];

internalField   nonuniform List<scalar> 
4608
(
1
1
1
1
1
1
1
1
1
1
1
1
1
1
1
1
1
1
1
1
1
1
1
1
1
1
1
1
1
1
1
1
1
1
1
1
1
1
1
1
1
1
1
1
1
1
1
1
1
1
1
1
1
1
1
1
1
1
1
1
1
1
1
1
1
1
1
1
1
1
1
1
1
1
1
1
1
1
1
1
1
1
1
1
1
1
1
1
1
1
1
1
1
1
1
1
1
1
1
1
1
1
1
1
1
1
1
1
1
1
1
1
1
1
1
1
1
1
1
1
1
1
1
1
1
1
1
1
1
1
1
1
1
1
1
1
1
1
1
1
1
1
1
1
1
1
1
1
1
1
1
1
1
1
1
1
1
1
1
1
1
1
1
1
1
1
1
1
1
1
1
1
1
1
1
1
1
1
1
1
1
1
1
1
1
1
1
1
1
1
1
1
1
1
1
1
1
1
1
1
1
1
1
1
1
1
1
1
1
1
1
1
1
1
1
1
1
1
1
1
1
1
1
1
1
1
1
1
1
1
1
1
1
1
1
1
1
1
1
1
1
1
1
1
1
1
1
1
1
1
1
1
1
1
1
1
1
1
1
1
1
1
1
1
1
1
1
1
1
1
1
1
1
1
1
1
1
1
1
1
1
1
1
1
1
1
1
1
1
1
1
1
1
1
1
1
1
1
1
1
1
1
1
1
1
1
1
1
1
1
1
1
1
1
1
1
1
1
1
1
1
1
1
1
1
1
1
1
1
1
1
1
1
1
1
1
1
1
1
1
1
1
1
1
1
1
1
1
1
1
1
1
1
1
1
1
1
1
1
1
1
1
1
1
1
1
1
1
1
1
1
1
1
1
1
1
1
1
1
1
1
1
1
1
1
1
1
1
1
1
1
1
1
1
1
1
1
1
1
1
1
1
1
1
1
1
1
1
1
1
1
1
1
1
1
1
1
1
1
1
1
1
1
1
1
1
1
1
1
1
1
1
1
1
1
1
1
1
1
1
1
1
1
1
1
1
1
1
1
1
1
1
1
1
1
1
1
1
1
1
1
1
1
1
1
1
1
1
1
1
1
1
1
1
1
1
1
1
1
1
1
1
1
1
1
1
1
1
1
1
1
1
1
1
1
1
1
1
1
1
1
1
1
1
1
1
1
1
1
1
1
1
1
1
1
1
1
1
1
1
1
1
1
1
1
1
1
1
1
1
1
1
1
1
1
1
1
1
1
1
1
1
1
1
1
1
1
1
1
1
1
1
1
1
1
1
1
1
1
1
1
1
1
1
1
1
1
1
1
1
1
1
1
1
1
1
1
1
1
1
1
1
1
1
1
1
1
1
1
1
1
1
1
1
1
1
1
1
1
1
1
1
1
1
1
1
1
1
1
1
1
1
1
1
1
1
1
1
1
1
1
1
1
1
1
1
1
1
1
1
1
1
1
1
1
1
1
1
1
1
1
1
1
1
1
1
1
1
1
1
1
1
1
1
1
1
1
1
1
1
1
1
1
1
1
1
1
1
1
1
1
1
1
1
1
1
1
1
1
1
1
1
1
1
1
1
1
1
1
1
1
1
1
1
1
1
1
1
1
1
1
1
1
1
1
1
1
1
1
1
1
1
1
1
1
1
1
1
1
1
1
1
1
1
1
1
1
1
1
1
1
1
1
1
1
1
1
1
1
1
1
1
1
1
1
1
1
1
1
1
1
1
1
1
1
1
1
1
1
1
1
1
1
1
1
1
1
1
1.2938
1.75384
2.33139
2.99174
3.61289
4.33355
4.83486
5.28734
5.35579
5.16481
4.737
4.21113
3.79759
3.66876
3.5714
3.56657
3.59907
3.65102
3.70331
3.72824
3.73247
3.73149
3.73458
3.74884
1.00234
1.02249
1.07964
1.21887
1.47234
1.84984
2.37311
2.99847
3.55541
3.82581
4.08445
4.02214
3.93175
3.87539
3.80553
3.7163
3.68912
3.68338
3.69442
3.71606
3.73275
3.7433
3.74345
3.75181
0.999996
1.00002
1.00001
1.00015
1.00358
1.02273
1.11119
1.35937
2.00038
2.97527
3.89529
4.27568
4.35109
4.27058
4.13032
3.89556
3.72691
3.67943
3.68089
3.70356
3.73605
3.75365
3.75663
3.76358
1
1
0.999998
0.999997
0.999985
1.00003
0.999986
1.00159
1.03672
1.29396
2.04983
3.09706
3.97256
4.1095
4.04941
4.01278
3.91581
3.78279
3.7195
3.70929
3.71854
3.73635
3.75062
3.75926
1
1
1
1
0.999999
0.999999
0.999998
0.999996
0.999895
1.00138
1.0388
1.37452
2.21225
3.32094
3.83357
4.12031
4.08923
3.98059
3.7944
3.71805
3.68443
3.68032
3.69821
3.724
1
1
1
1
1
1
1
1
0.999988
0.999989
0.999897
1.00391
1.06555
1.536
2.4674
3.59561
3.94242
3.91079
3.87113
3.81372
3.74492
3.68995
3.6884
3.70555
1
1
1
1
1
1
1
1
1
0.999999
0.999987
0.999991
0.999958
1.0123
1.15677
1.79767
2.8465
3.68768
3.94133
3.93671
3.86737
3.77309
3.74131
3.72816
1
1
1
1
1
1
1
1
1
1
1
0.999999
0.999995
0.99996
1.00083
1.03551
1.35788
2.27697
3.19607
3.71971
3.83733
3.81632
3.75232
3.72807
1
1
1
1
1
1
1
1
1
1
1
1
1
0.999995
0.999992
1.00001
1.00736
1.12788
1.75536
2.89107
3.57908
3.67497
3.71119
3.71522
1
1
1
1
1
1
1
1
1
1
1
1
1
1
0.999998
0.999999
0.999983
1.00129
1.05106
1.4079
2.36741
3.33343
3.75089
3.77703
1
1
1
1
1
1
1
1
1
1
1
1
1
1
1
1
0.999998
0.999992
1.00025
1.01382
1.23505
2.01586
3.04238
3.46462
1
1
1
1
1
1
1
1
1
1
1
1
1
1
1
1
1
0.999998
0.999997
1.00001
1.00705
1.10545
1.74523
2.71925
1
1
1
1
1
1
1
1
1
1
1
1
1
1
1
1
1
1
0.999999
0.999999
1
1.00174
1.07294
1.48818
1
1
1
1
1
1
1
1
1
1
1
1
1
1
1
1
1
1
1
1
1
0.999999
1.00133
1.02863
1
1
1
1
1
1
1
1
1
1
1
1
1
1
1
1
1
1
1
1
1
1
1.00001
1.00003
1
1
1
1
1
1
1
1
1
1
1
1
1
1
1
1
1
1
1
1
1
1
1
0.999997
1
1
1
1
1
1
1
1
1
1
1
1
1
1
1
1
1
1
1
1
1
1
1
0.999997
1
1
1
1
1
1
1
1
1
1
1
1
1
1
1
1
1
1
1
1
1
1
1.00001
1.00003
1
1
1
1
1
1
1
1
1
1
1
1
1
1
1
1
1
1
1
1
1
0.999999
1.00133
1.02863
1
1
1
1
1
1
1
1
1
1
1
1
1
1
1
1
1
1
0.999999
0.999999
1
1.00174
1.07294
1.48818
1
1
1
1
1
1
1
1
1
1
1
1
1
1
1
1
1
0.999998
0.999997
1.00001
1.00705
1.10545
1.74523
2.71926
1
1
1
1
1
1
1
1
1
1
1
1
1
1
1
1
0.999998
0.999992
1.00025
1.01382
1.23505
2.01586
3.04238
3.46462
1
1
1
1
1
1
1
1
1
1
1
1
1
1
0.999998
0.999999
0.999983
1.00129
1.05106
1.4079
2.36741
3.33343
3.75089
3.77703
1
1
1
1
1
1
1
1
1
1
1
1
1
0.999995
0.999992
1.00001
1.00736
1.12788
1.75536
2.89107
3.57908
3.67497
3.71119
3.71522
1
1
1
1
1
1
1
1
1
1
1
0.999999
0.999995
0.99996
1.00083
1.03551
1.35788
2.27697
3.19607
3.71971
3.83733
3.81632
3.75232
3.72807
1
1
1
1
1
1
1
1
1
0.999999
0.999987
0.999991
0.999958
1.0123
1.15677
1.79767
2.8465
3.68768
3.94133
3.93671
3.86737
3.77309
3.74131
3.72816
1
1
1
1
1
1
1
1
0.999988
0.999989
0.999897
1.00391
1.06555
1.536
2.4674
3.59561
3.94242
3.91079
3.87113
3.81372
3.74492
3.68995
3.6884
3.70555
1
1
1
1
0.999999
0.999999
0.999998
0.999996
0.999895
1.00138
1.0388
1.37452
2.21225
3.32094
3.83357
4.12031
4.08923
3.98059
3.7944
3.71805
3.68443
3.68032
3.69821
3.724
1
1
0.999998
0.999997
0.999985
1.00003
0.999986
1.00159
1.03672
1.29396
2.04983
3.09706
3.97256
4.1095
4.04941
4.01278
3.91581
3.78279
3.7195
3.70929
3.71854
3.73635
3.75062
3.75926
0.999996
1.00002
1.00001
1.00015
1.00358
1.02273
1.11119
1.35937
2.00038
2.97527
3.89529
4.27568
4.35109
4.27058
4.13032
3.89556
3.72691
3.67943
3.68089
3.70356
3.73605
3.75365
3.75663
3.76358
1.00234
1.02249
1.07964
1.21887
1.47234
1.84984
2.37311
2.99847
3.55541
3.82581
4.08445
4.02214
3.93175
3.87539
3.80553
3.7163
3.68912
3.68338
3.69442
3.71606
3.73275
3.7433
3.74345
3.75181
1.2938
1.75384
2.33139
2.99174
3.61289
4.33355
4.83486
5.28734
5.35579
5.16481
4.737
4.21113
3.79759
3.66876
3.5714
3.56657
3.59907
3.65102
3.70331
3.72824
3.73247
3.73149
3.73458
3.74884
2.64927
1.69831
1.11354
0.85441
0.729703
0.657597
0.641249
0.676664
0.768238
0.856105
0.933976
1.00876
1.01504
1.00143
0.994001
1.00976
1.05465
1.08414
1.08657
1.08589
1.0724
1.04166
1.03744
1.11512
1.54459
2.7199
4.49996
6.5496
8.31572
8.98106
8.5242
7.69169
6.81088
6.28154
5.92359
5.70807
5.54357
5.40434
5.26361
5.08344
4.8688
4.61952
4.36617
4.17351
4.03481
3.92733
3.82579
3.71563
3.59852
3.47227
3.32307
3.14998
2.99621
2.8852
2.80283
2.73815
2.68902
2.6412
2.57928
2.49875
2.40067
2.29486
2.21001
2.14741
2.09212
2.04292
2.00149
1.96437
1.92262
1.86728
1.7958
1.71693
1.65486
1.61759
1.59049
1.56447
1.53855
1.50989
1.46881
1.40561
1.33455
1.29354
1.27371
1.25823
1.24128
1.22131
1.20106
1.17409
1.13167
1.0794
1.04477
1.03502
1.0296
1.02176
1.00941
0.998216
3.35499
2.76605
2.16733
1.72299
1.50285
1.30251
1.0827
1.01087
0.999544
0.967046
0.938373
0.936644
0.927311
0.918849
0.924868
0.952531
0.996733
1.02741
1.0328
1.03668
1.02868
1.02712
1.1022
1.66329
2.59915
3.06443
3.55964
4.19832
5.19124
6.35113
7.09513
7.18925
6.88856
6.47037
6.07891
5.80542
5.59619
5.43632
5.30068
5.13132
4.91864
4.66892
4.42244
4.23474
4.09917
3.9927
3.89335
3.78422
3.66595
3.5339
3.37755
3.20031
3.0511
2.95092
2.87246
2.80707
2.75131
2.69445
2.62703
2.55017
2.46223
2.36034
2.26704
2.19501
2.13697
2.08964
2.04837
2.00801
1.96292
1.90792
1.8415
1.76794
1.70184
1.65651
1.62525
1.59752
1.57023
1.54104
1.50265
1.44677
1.37811
1.32912
1.30566
1.28835
1.26992
1.25033
1.22896
1.20328
1.16522
1.1162
1.08109
1.07429
1.07704
1.08573
1.1081
1.16481
3.65785
3.33758
2.88693
2.37057
1.94752
1.69119
1.44993
1.22608
1.11477
1.02898
0.968322
0.94806
0.926653
0.912219
0.91359
0.925383
0.952708
0.977077
0.985273
0.995747
1.01816
1.13192
1.74193
2.73075
3.29953
3.31404
3.29299
3.28795
3.43626
4.18319
5.57924
6.55829
6.85643
6.68471
6.31604
5.86418
5.55662
5.30292
5.14577
4.98686
4.79663
4.56695
4.35109
4.18063
4.03801
3.89935
3.78788
3.68927
3.58301
3.46109
3.31597
3.16694
3.04029
2.9286
2.83296
2.75057
2.68474
2.62938
2.5634
2.4865
2.40447
2.31374
2.2248
2.15504
2.0981
2.04842
2.00266
1.95907
1.91421
1.86331
1.80406
1.73892
1.6756
1.62356
1.58549
1.5554
1.52871
1.50314
1.4718
1.42587
1.36375
1.31149
1.28637
1.27109
1.25619
1.24423
1.2303
1.21513
1.18852
1.14634
1.14563
1.17081
1.2271
1.31182
1.3941
1.48193
3.73868
3.61564
3.33794
2.94469
2.46038
2.11648
1.90138
1.61681
1.38687
1.26432
1.15376
1.09666
1.04596
0.992748
0.953622
0.951828
0.940542
0.933506
0.940705
0.961216
1.13931
1.74534
2.85106
3.24067
3.28873
3.2568
3.17445
3.04462
2.93068
2.97768
3.37527
4.34442
5.69213
6.07416
6.0029
5.92058
5.70529
5.4144
5.13698
4.89284
4.71055
4.54653
4.35557
4.18654
4.04056
3.89126
3.74957
3.63317
3.53556
3.44361
3.33643
3.20707
3.07234
2.94164
2.83802
2.75105
2.67389
2.61226
2.5463
2.46825
2.38162
2.29764
2.21924
2.14864
2.0925
2.04334
1.9954
1.94916
1.90131
1.84744
1.78881
1.72946
1.67251
1.62402
1.58319
1.54917
1.52075
1.49539
1.46554
1.42571
1.37091
1.31823
1.29093
1.27727
1.26625
1.26423
1.27778
1.29844
1.3359
1.37919
1.45017
1.54059
1.63246
1.71948
1.75019
1.74879
3.73934
3.71671
3.58508
3.31922
2.9627
2.52805
2.24878
2.03441
1.76578
1.49269
1.33529
1.25868
1.20526
1.12903
1.02353
0.969872
0.948528
0.94024
0.958864
1.18488
1.91746
2.82744
3.30471
3.28382
3.19346
3.06325
2.97268
2.86582
2.77864
2.7217
2.70258
2.81555
3.40311
4.39277
5.25631
5.73798
5.70695
5.55163
5.22765
4.87137
4.59718
4.40558
4.25299
4.13932
4.0312
3.89978
3.75344
3.60951
3.47623
3.35749
3.24912
3.14327
3.02249
2.9351
2.87972
2.80474
2.71477
2.61887
2.53256
2.46699
2.392
2.28617
2.22047
2.18117
2.1351
2.08556
2.02912
1.9726
1.91841
1.85177
1.78696
1.72845
1.67199
1.62662
1.59305
1.56681
1.53872
1.51403
1.4802
1.44024
1.40252
1.35819
1.3395
1.35069
1.3903
1.47522
1.59781
1.68638
1.74621
1.79984
1.85271
1.88842
1.9105
1.91035
1.89264
1.83608
3.72969
3.7263
3.69457
3.54555
3.29996
2.98817
2.57593
2.31065
2.12946
1.90349
1.6155
1.43488
1.3924
1.34904
1.25144
1.10658
1.05753
1.09282
1.37128
2.23293
3.05542
3.38836
3.34841
3.22573
3.0604
2.93394
2.85164
2.757
2.66206
2.5979
2.5271
2.42792
2.42809
2.64914
3.3059
4.30524
4.97694
5.17895
5.09563
4.89562
4.6316
4.41334
4.25765
4.14217
4.02101
3.88411
3.73834
3.5722
3.41171
3.29506
3.20327
3.11899
3.03642
2.9524
2.84705
2.73748
2.64156
2.56125
2.48827
2.41794
2.35262
2.28383
2.21344
2.15643
2.10543
2.05325
1.98971
1.91447
1.86479
1.83802
1.80216
1.75562
1.70684
1.65695
1.60639
1.55971
1.52399
1.50543
1.49422
1.47441
1.4781
1.51128
1.58083
1.68367
1.82829
1.97964
2.03276
2.04512
2.05119
2.07303
2.08097
2.0704
2.0507
2.01808
1.97422
1.89619
3.73225
3.73636
3.72017
3.6698
3.52274
3.29199
2.98124
2.65719
2.36984
2.16795
1.97371
1.80115
1.58702
1.4633
1.40904
1.31219
1.33839
1.71379
2.69018
3.53576
3.6837
3.56695
3.36221
3.18174
3.01954
2.90929
2.82591
2.72338
2.6192
2.53275
2.44055
2.33469
2.26861
2.21541
2.24961
2.55224
3.2393
4.13016
4.61896
4.67104
4.56669
4.42947
4.269
4.11097
3.9585
3.81829
3.68506
3.52483
3.35319
3.24458
3.16139
3.07992
3.00374
2.9325
2.84931
2.74073
2.63357
2.55314
2.47937
2.39015
2.29904
2.25763
2.22519
2.17621
2.11567
2.0527
1.98479
1.91472
1.84749
1.78315
1.73661
1.70491
1.68354
1.65979
1.62294
1.58238
1.55607
1.56833
1.61962
1.73168
1.87784
2.01413
2.09615
2.18264
2.27928
2.28761
2.23837
2.17629
2.14889
2.13598
2.11305
2.08601
2.05388
2.01179
1.9541
1.86579
3.73111
3.73869
3.73515
3.71908
3.65875
3.51395
3.27016
2.98054
2.72437
2.45705
2.18953
2.06374
1.8918
1.70724
1.57812
1.69183
2.29125
3.41649
4.19158
4.1666
3.96572
3.68431
3.43973
3.23866
3.07913
2.9611
2.85845
2.73816
2.61655
2.51306
2.41018
2.30304
2.22892
2.16064
2.09034
2.02933
2.09171
2.40829
3.07615
3.79409
4.19965
4.1569
4.13576
4.08155
3.95284
3.80432
3.64337
3.47134
3.30761
3.18039
3.09826
3.0286
2.96327
2.90013
2.82513
2.72905
2.62613
2.52186
2.42161
2.34262
2.28232
2.2285
2.17389
2.12412
2.07766
2.03085
1.97777
1.90988
1.82558
1.76725
1.73351
1.71331
1.69857
1.7013
1.74627
1.8066
1.89457
2.02632
2.16151
2.29975
2.39391
2.43639
2.47056
2.4797
2.47222
2.43735
2.36664
2.29797
2.25332
2.20413
2.14997
2.10318
2.04928
1.98924
1.93108
1.85277
3.72512
3.73113
3.72821
3.71607
3.69354
3.62762
3.48688
3.23665
2.99643
2.76155
2.52359
2.26798
2.09374
2.00917
2.25375
3.1493
4.33216
4.82473
4.72317
4.42559
4.10221
3.8324
3.61022
3.41024
3.2304
3.06524
2.91111
2.7578
2.63119
2.52467
2.41389
2.30834
2.22493
2.14209
2.05256
1.96714
1.90245
1.85831
1.94589
2.27392
2.92739
3.48475
3.87233
3.96485
3.94584
3.85932
3.67985
3.4702
3.29577
3.16534
3.07427
2.99134
2.90828
2.83126
2.76189
2.6934
2.60441
2.49384
2.3948
2.32999
2.27434
2.20815
2.14438
2.09612
2.05918
2.02244
1.9747
1.9087
1.83513
1.78324
1.76875
1.79022
1.87355
2.04815
2.26515
2.43303
2.57369
2.60067
2.62006
2.63516
2.61172
2.57369
2.549
2.52406
2.4832
2.42895
2.35766
2.29343
2.24155
2.18793
2.13275
2.08315
2.0383
1.98804
1.9409
1.86632
3.76452
3.75915
3.75167
3.72983
3.69525
3.66501
3.59934
3.45268
3.25072
2.98529
2.7615
2.49527
2.536
3.04218
4.28336
5.44151
5.61476
5.41225
5.03468
4.65572
4.32151
4.04498
3.80403
3.586
3.3882
3.2019
3.02152
2.83942
2.68188
2.54527
2.42282
2.31531
2.22088
2.1306
2.03222
1.94313
1.86697
1.80311
1.74864
1.72426
1.83284
2.1995
2.77344
3.26665
3.60841
3.63072
3.57927
3.48783
3.35021
3.20568
3.07757
2.97679
2.89273
2.81445
2.73103
2.64116
2.54172
2.45143
2.38435
2.31201
2.23718
2.17548
2.13138
2.09306
2.05507
2.02245
1.98089
1.9296
1.91897
1.958
2.07477
2.27046
2.50656
2.75681
2.8944
2.90753
2.92821
2.9108
2.87383
2.8259
2.76318
2.69509
2.62221
2.54189
2.46162
2.38561
2.31828
2.27095
2.22813
2.17836
2.12556
2.07582
2.0319
1.97674
1.93074
1.87567
3.74749
3.82035
3.80707
3.76079
3.71056
3.69459
3.67069
3.60682
3.4377
3.24207
3.00907
3.19709
4.22185
5.7223
6.43192
6.34979
6.00735
5.62005
5.24571
4.89221
4.56507
4.26632
3.99215
3.74374
3.51851
3.31166
3.11929
2.93474
2.7713
2.61769
2.47794
2.34897
2.23465
2.13065
2.02666
1.94505
1.86845
1.79514
1.71669
1.65757
1.60647
1.60454
1.7053
2.09047
2.66024
3.08268
3.277
3.30891
3.28433
3.21901
3.11495
2.99717
2.89848
2.80927
2.71525
2.61714
2.52715
2.44694
2.3669
2.26906
2.19466
2.15926
2.13611
2.11328
2.08234
2.06536
2.11605
2.27348
2.44343
2.67517
2.87363
3.04103
3.09232
3.08096
3.04238
2.98817
2.96675
2.9375
2.89247
2.83004
2.75217
2.6802
2.61172
2.53684
2.4631
2.39037
2.32212
2.26467
2.21663
2.17076
2.1222
2.0724
2.02809
1.97166
1.92128
1.87534
3.62827
3.7796
3.74897
3.69755
3.6767
3.68497
3.6892
3.66351
3.55092
3.57045
4.20348
5.75795
7.24881
7.63785
7.40316
6.82967
6.28719
5.83734
5.44956
5.09185
4.75418
4.43973
4.15208
3.89237
3.65434
3.43223
3.22067
3.02016
2.84317
2.67987
2.53701
2.40336
2.27271
2.14375
2.03253
1.94778
1.86644
1.79835
1.73071
1.65574
1.58326
1.51828
1.46507
1.48805
1.62946
2.00496
2.4891
2.9421
3.10392
3.07194
2.98402
2.90633
2.81984
2.72703
2.66609
2.60395
2.52814
2.44789
2.36211
2.27067
2.2112
2.1887
2.17083
2.19865
2.31475
2.52073
2.84639
3.12774
3.29663
3.45168
3.46249
3.41558
3.34563
3.2687
3.15722
3.0569
2.97748
2.90173
2.84363
2.78487
2.71838
2.67137
2.6145
2.53838
2.45614
2.37178
2.31282
2.26315
2.22053
2.18168
2.13983
2.09169
2.03916
1.97548
1.92865
1.88441
2.57437
3.41298
3.6198
3.73595
3.75668
3.74067
3.70071
3.70521
3.96053
5.33293
7.64976
8.45796
8.3297
8.0553
7.61181
7.13032
6.62496
6.12678
5.66687
5.25449
4.88534
4.55259
4.25279
3.98657
3.74801
3.53004
3.32214
3.12138
2.92889
2.73487
2.54912
2.39985
2.29649
2.18873
2.07052
1.97745
1.89589
1.81452
1.72515
1.64928
1.57388
1.49212
1.44405
1.41025
1.37435
1.40514
1.58593
1.95928
2.40514
2.68033
2.85365
2.85073
2.8176
2.73782
2.61997
2.52671
2.46137
2.42484
2.38882
2.3392
2.35034
2.41983
2.5899
2.86725
3.15809
3.40838
3.61511
3.62094
3.60543
3.56875
3.49481
3.40806
3.32712
3.24245
3.16378
3.09321
3.01982
2.94263
2.85285
2.76921
2.70196
2.66459
2.61555
2.53855
2.4544
2.35741
2.30074
2.27955
2.25496
2.22624
2.1891
2.13624
2.05541
1.98486
1.9634
1.91837
1.36455
2.27845
3.21799
3.67224
3.68281
3.67917
3.8304
4.56133
6.48282
8.89392
9.94663
9.72813
8.95754
8.22162
7.75348
7.33477
6.86328
6.35203
5.85631
5.41064
5.01858
4.67024
4.35572
4.06967
3.80602
3.56851
3.36223
3.17994
3.00279
2.81601
2.62748
2.45971
2.31384
2.22391
2.16537
2.07286
1.96562
1.85425
1.74524
1.66115
1.58531
1.52506
1.45861
1.3924
1.34935
1.3188
1.30599
1.34358
1.50697
1.80743
2.21909
2.5035
2.63868
2.63396
2.57998
2.52768
2.49175
2.51644
2.61947
2.81319
3.09398
3.38752
3.65615
3.88041
3.99658
4.02077
3.97637
3.90346
3.81704
3.65428
3.47205
3.35829
3.28095
3.21622
3.15291
3.05965
2.9635
2.89232
2.83345
2.76725
2.71195
2.67389
2.62424
2.55276
2.46625
2.37369
2.30518
2.26068
2.22889
2.20032
2.16502
2.1171
2.05924
2.00093
1.95711
1.90139
1.02399
1.2537
2.01635
3.02062
3.44679
4.25521
5.72544
7.69724
9.39153
10.0248
9.95228
9.73521
9.26282
8.60069
8.00864
7.47357
6.95818
6.46203
5.9904
5.54894
5.14253
4.77237
4.43757
4.13778
3.8677
3.6208
3.39206
3.1808
2.98855
2.82973
2.71447
2.58087
2.42616
2.27016
2.12657
2.00678
1.89768
1.84513
1.80749
1.74562
1.65352
1.51834
1.43569
1.41135
1.3793
1.33559
1.2858
1.2386
1.20928
1.24842
1.40905
1.75875
2.10381
2.37487
2.46404
2.62948
2.88955
3.22873
3.52151
3.81437
4.04896
4.13523
4.18283
4.18336
4.15872
4.07364
3.9688
3.83793
3.71959
3.62855
3.53366
3.43759
3.34669
3.25728
3.16581
3.05667
2.93155
2.84179
2.81186
2.79348
2.76281
2.7238
2.67381
2.60271
2.49605
2.37839
2.30654
2.26397
2.23023
2.19616
2.15784
2.11665
2.06837
2.00406
1.96382
1.90639
1.00047
1.01408
1.18175
1.92946
3.7099
6.01229
8.2329
10.0196
11.0297
10.6284
9.92163
9.62649
9.32788
8.83762
8.18616
7.53348
6.95911
6.46558
6.02391
5.60926
5.21429
4.84099
4.49135
4.16588
3.86828
3.60413
3.37396
3.17882
3.01267
2.85894
2.68947
2.52
2.36155
2.20991
2.07701
1.97815
1.911
1.84524
1.76376
1.68004
1.58388
1.50343
1.44381
1.38404
1.33029
1.28521
1.24289
1.20205
1.16789
1.13179
1.13766
1.21834
1.44076
1.88333
2.58336
3.15858
3.69119
4.11057
4.32811
4.54777
4.65691
4.61662
4.54226
4.42231
4.26938
4.06191
3.88582
3.74372
3.5991
3.53842
3.47499
3.40222
3.34497
3.28568
3.20946
3.0986
2.94512
2.83401
2.77951
2.74399
2.7133
2.67938
2.63814
2.58455
2.51526
2.41436
2.31095
2.25326
2.21624
2.18019
2.14025
2.10021
2.06532
2.03426
2.00817
1.9382
1.00047
1.01408
1.18174
1.92949
3.70982
6.01233
8.23294
10.0196
11.0297
10.6285
9.92162
9.62647
9.32782
8.83756
8.18612
7.53347
6.95911
6.4656
6.02394
5.60929
5.21432
4.84099
4.49134
4.16588
3.86827
3.6041
3.37392
3.17883
3.01272
2.85901
2.68957
2.52005
2.3616
2.20989
2.07701
1.97815
1.91089
1.84511
1.76365
1.67994
1.58371
1.50348
1.44396
1.38409
1.3303
1.28519
1.24293
1.20201
1.1679
1.13157
1.13806
1.21628
1.43846
1.89707
2.57718
3.20014
3.69908
4.07336
4.32693
4.56516
4.63731
4.61076
4.56148
4.45575
4.27418
4.05797
3.90769
3.76652
3.58576
3.52804
3.47761
3.40376
3.34451
3.27968
3.20324
3.09879
2.94251
2.82907
2.77874
2.7422
2.71047
2.67727
2.63791
2.58943
2.51421
2.39883
2.30218
2.25422
2.21758
2.17937
2.14002
2.10351
2.06816
2.02582
1.98732
1.91185
1.02399
1.2537
2.01635
3.02065
3.44673
4.25524
5.72549
7.69724
9.39154
10.0248
9.95227
9.73518
9.26278
8.60066
8.00862
7.47356
6.95818
6.46203
5.9904
5.54893
5.14253
4.77237
4.43759
4.13782
3.86774
3.62085
3.39214
3.18086
2.98851
2.82954
2.71429
2.58087
2.42621
2.27018
2.12655
2.00675
1.89758
1.84486
1.80722
1.74544
1.65337
1.51816
1.43582
1.41146
1.37935
1.3356
1.28604
1.23834
1.20965
1.24701
1.41301
1.7481
2.13122
2.36569
2.43991
2.63243
2.88758
3.19107
3.52543
3.84572
4.00931
4.14032
4.17921
4.1807
4.15366
4.08516
4.00235
3.86112
3.68128
3.60095
3.53885
3.44457
3.3554
3.27427
3.1926
3.07888
2.93786
2.83512
2.7902
2.76808
2.74947
2.71484
2.67155
2.62007
2.53873
2.39707
2.28381
2.25466
2.23204
2.20408
2.16871
2.13204
2.09729
2.05152
1.9936
1.89925
1.36455
2.27845
3.21799
3.67224
3.6828
3.67917
3.83041
4.56133
6.48279
8.89392
9.94662
9.72811
8.95751
8.2216
7.75348
7.33477
6.86328
6.35204
5.85632
5.41065
5.01859
4.67025
4.35572
4.06968
3.80601
3.5685
3.3622
3.17992
3.00282
2.81608
2.62756
2.45973
2.31379
2.22384
2.16531
2.07286
1.96563
1.85425
1.74519
1.66116
1.58538
1.52503
1.45855
1.39236
1.34934
1.31882
1.30587
1.34356
1.50723
1.80792
2.21664
2.49895
2.64637
2.6325
2.57685
2.53512
2.49696
2.51239
2.61612
2.81848
3.10047
3.38201
3.65347
3.84909
3.98591
4.03427
3.99271
3.88411
3.7663
3.62859
3.49211
3.37875
3.30213
3.22678
3.15546
3.06968
2.95713
2.88127
2.83024
2.77264
2.71839
2.6736
2.62467
2.56125
2.47225
2.36999
2.29287
2.25929
2.23209
2.19697
2.15606
2.11124
2.06805
2.02215
1.97135
1.88779
2.57437
3.41296
3.6198
3.73596
3.75668
3.74068
3.70072
3.70521
3.96052
5.33294
7.64977
8.45795
8.3297
8.0553
7.61182
7.13033
6.62497
6.12679
5.66687
5.25449
4.88534
4.55259
4.25279
3.98655
3.74799
3.53003
3.32214
3.12139
2.92891
2.73491
2.54914
2.39981
2.29644
2.18874
2.07053
1.97748
1.89593
1.81453
1.7252
1.64937
1.57387
1.49208
1.44406
1.41029
1.37426
1.40532
1.58478
1.96211
2.40055
2.6836
2.854
2.85178
2.81715
2.73448
2.61503
2.52983
2.46628
2.42412
2.38647
2.33622
2.34974
2.41868
2.5917
2.85566
3.13846
3.42366
3.5816
3.6114
3.57728
3.55373
3.5139
3.44711
3.36423
3.26299
3.15395
3.06169
2.97914
2.92663
2.86648
2.78707
2.72054
2.67729
2.63188
2.54832
2.43127
2.34657
2.3033
2.26815
2.23649
2.20642
2.17357
2.12709
2.06532
1.99459
1.9507
1.90028
3.62827
3.7796
3.74897
3.69755
3.6767
3.68497
3.6892
3.66351
3.55092
3.57045
4.20349
5.75796
7.24882
7.63785
7.40317
6.82968
6.2872
5.83734
5.44956
5.09185
4.75418
4.43972
4.15207
3.89236
3.65433
3.43223
3.22067
3.02017
2.84317
2.67987
2.53699
2.40336
2.27274
2.14377
2.0325
1.94779
1.86652
1.79845
1.73081
1.65576
1.58321
1.51826
1.46509
1.48806
1.6296
2.00454
2.48782
2.94649
3.10253
3.0699
2.98521
2.90592
2.81664
2.72617
2.66688
2.60355
2.52713
2.44545
2.35882
2.27021
2.21401
2.19216
2.17184
2.19905
2.31058
2.51912
2.82626
3.12451
3.29372
3.42135
3.47616
3.45019
3.38039
3.27314
3.14397
3.03977
2.96475
2.89724
2.83537
2.78558
2.73832
2.69219
2.63318
2.54215
2.43222
2.3585
2.30899
2.26371
2.22622
2.19271
2.15044
2.09485
2.03156
1.9716
1.9301
1.88074
3.74749
3.82035
3.80707
3.76079
3.71056
3.69459
3.67069
3.60682
3.4377
3.24207
3.00907
3.19709
4.22185
5.72231
6.43192
6.34979
6.00735
5.62005
5.2457
4.89221
4.56506
4.26631
3.99214
3.74373
3.51851
3.31166
3.11929
2.93475
2.7713
2.61769
2.47795
2.34898
2.23465
2.13065
2.02666
1.94509
1.86848
1.79514
1.7167
1.65757
1.60647
1.60454
1.7053
2.0904
2.66162
3.07975
3.27795
3.31038
3.28446
3.21858
3.11485
2.99658
2.89791
2.80969
2.71579
2.61774
2.52736
2.44599
2.36461
2.2685
2.1971
2.16196
2.13833
2.11278
2.08059
2.06398
2.11671
2.26125
2.45849
2.66253
2.87605
3.02387
3.10836
3.07334
3.01345
2.99819
2.98026
2.94271
2.8883
2.83231
2.77355
2.70954
2.6321
2.53655
2.43991
2.36744
2.31304
2.26908
2.23149
2.19472
2.15083
2.08604
2.01592
1.9513
1.91704
1.88129
3.76452
3.75915
3.75167
3.72983
3.69525
3.66501
3.59934
3.45268
3.25072
2.98529
2.7615
2.49527
2.536
3.04218
4.28336
5.4415
5.61475
5.41224
5.03467
4.65572
4.3215
4.04498
3.80403
3.586
3.3882
3.2019
3.02153
2.83943
2.68188
2.54526
2.42282
2.31531
2.22089
2.1306
2.03222
1.94314
1.86697
1.8031
1.74865
1.72428
1.83292
2.19949
2.77337
3.26694
3.60853
3.6303
3.57942
3.48824
3.35074
3.20537
3.07727
2.97665
2.89244
2.81453
2.73148
2.64146
2.54156
2.45129
2.38469
2.314
2.23854
2.17699
2.13311
2.09197
2.05333
2.02122
1.98193
1.93116
1.92302
1.95618
2.0704
2.26095
2.5045
2.72045
2.83335
2.9194
2.94934
2.93339
2.88583
2.83222
2.77511
2.70588
2.62776
2.52753
2.44246
2.37667
2.31979
2.27719
2.2408
2.19762
2.14414
2.07882
2.01681
1.95851
1.92469
1.8763
3.72512
3.73113
3.72821
3.71607
3.69354
3.62762
3.48688
3.23665
2.99643
2.76155
2.52359
2.26798
2.09374
2.00917
2.25374
3.14929
4.33216
4.82473
4.72317
4.42559
4.1022
3.8324
3.61022
3.41024
3.2304
3.06524
2.91111
2.75781
2.63119
2.52467
2.41389
2.30834
2.22493
2.14209
2.05255
1.96714
1.90245
1.85832
1.94586
2.27394
2.92746
3.48465
3.87254
3.9649
3.94577
3.85917
3.67977
3.4703
3.29557
3.16513
3.07408
2.99129
2.90824
2.83131
2.76232
2.69379
2.60416
2.49365
2.39583
2.33123
2.2737
2.20737
2.14507
2.09552
2.05743
2.02105
1.97618
1.91097
1.83622
1.78189
1.7667
1.78826
1.86579
2.04551
2.25624
2.41436
2.58943
2.63725
2.64162
2.64342
2.61861
2.57245
2.53749
2.50818
2.47371
2.43319
2.36672
2.30274
2.25526
2.20398
2.14059
2.07591
2.02416
1.97174
1.92918
1.86739
3.73111
3.73869
3.73515
3.71908
3.65875
3.51395
3.27016
2.98054
2.72437
2.45705
2.18953
2.06374
1.8918
1.70724
1.57812
1.69183
2.29125
3.41649
4.19158
4.1666
3.96572
3.68432
3.43974
3.23867
3.07914
2.9611
2.85845
2.73816
2.61655
2.51306
2.41017
2.30304
2.22892
2.16064
2.09034
2.02933
2.09169
2.40837
3.0759
3.79453
4.19948
4.15655
4.13571
4.08156
3.95264
3.80408
3.6434
3.47132
3.30714
3.18022
3.09828
3.02875
2.96349
2.9003
2.82528
2.72906
2.62569
2.52152
2.42196
2.34264
2.28127
2.22774
2.17437
2.12417
2.07705
2.03084
1.9799
1.91222
1.82617
1.76639
1.73214
1.71308
1.69951
1.70336
1.74946
1.81135
1.90594
2.03911
2.1593
2.29831
2.39597
2.42383
2.44705
2.47003
2.46933
2.44339
2.37538
2.30889
2.26418
2.21104
2.1473
2.09496
2.03689
1.97528
1.92328
1.85847
3.73225
3.73636
3.72017
3.6698
3.52274
3.29199
2.98124
2.65719
2.36984
2.16795
1.97371
1.80115
1.58702
1.4633
1.40904
1.31219
1.33839
1.71379
2.69018
3.53576
3.6837
3.56695
3.36222
3.18174
3.01954
2.90929
2.82591
2.72338
2.6192
2.53275
2.44055
2.33469
2.26861
2.21541
2.24961
2.55223
3.23932
4.13022
4.61875
4.67111
4.56675
4.42941
4.26889
4.11104
3.95861
3.81841
3.68521
3.52456
3.35299
3.24485
3.16145
3.07989
3.00384
2.93256
2.84925
2.74039
2.63319
2.55287
2.47887
2.38879
2.29834
2.25842
2.22621
2.17696
2.11606
2.05279
1.98506
1.91478
1.84632
1.78098
1.73501
1.7052
1.68456
1.66124
1.62364
1.58279
1.55714
1.56853
1.61283
1.71544
1.85827
1.9966
2.08281
2.18356
2.28829
2.29731
2.24629
2.18731
2.1554
2.13396
2.1062
2.07787
2.04382
2.00215
1.95235
1.87421
3.72969
3.7263
3.69457
3.54555
3.29996
2.98817
2.57593
2.31065
2.12946
1.90349
1.6155
1.43488
1.3924
1.34904
1.25144
1.10658
1.05753
1.09282
1.37128
2.23293
3.05543
3.38836
3.34841
3.22573
3.0604
2.93394
2.85164
2.757
2.66206
2.5979
2.52709
2.42791
2.42809
2.64913
3.30595
4.3051
4.97701
5.17905
5.09571
4.89561
4.63148
4.41329
4.25769
4.14224
4.02107
3.88417
3.7383
3.57205
3.41185
3.29533
3.20325
3.11884
3.03633
2.95227
2.8468
2.73709
2.64143
2.56111
2.48785
2.41723
2.35242
2.28374
2.21355
2.1568
2.10553
2.0531
1.98953
1.91398
1.86263
1.8359
1.80134
1.75615
1.7076
1.65691
1.60611
1.55995
1.52424
1.50482
1.49266
1.47116
1.47272
1.50759
1.58196
1.68932
1.84123
1.98084
2.04385
2.05548
2.05336
2.06395
2.06936
2.05775
2.0412
2.01546
1.98073
1.90853
3.73934
3.71671
3.58508
3.31922
2.9627
2.52805
2.24878
2.03441
1.76578
1.49269
1.33529
1.25868
1.20526
1.12903
1.02353
0.969872
0.948528
0.94024
0.958864
1.18488
1.91746
2.82744
3.30471
3.28382
3.19346
3.06325
2.97267
2.86582
2.77864
2.72169
2.70258
2.81555
3.40311
4.39275
5.25636
5.73794
5.70694
5.55165
5.22766
4.87132
4.59716
4.40561
4.25304
4.13936
4.0312
3.89977
3.75338
3.6095
3.47637
3.35762
3.24909
3.1432
3.02247
2.93504
2.87957
2.80464
2.71491
2.61908
2.53279
2.46733
2.39235
2.28636
2.22
2.18077
2.13487
2.08523
2.02845
1.97156
1.91739
1.85154
1.78696
1.72883
1.67249
1.6265
1.59227
1.56632
1.53831
1.51343
1.47926
1.43861
1.40256
1.3597
1.34112
1.35269
1.39183
1.47496
1.5947
1.67875
1.73531
1.78952
1.8363
1.87863
1.91192
1.9165
1.90114
1.84439
3.73868
3.61564
3.33794
2.94469
2.46038
2.11648
1.90138
1.61681
1.38687
1.26432
1.15376
1.09666
1.04596
0.992748
0.953622
0.951828
0.940542
0.933506
0.940705
0.961216
1.13931
1.74534
2.85106
3.24067
3.28873
3.25679
3.17445
3.04462
2.93068
2.97768
3.37527
4.34444
5.69211
6.07417
6.00291
5.92058
5.70529
5.41442
5.13694
4.89279
4.71055
4.54654
4.35557
4.18649
4.04051
3.89127
3.74961
3.63319
3.53556
3.44359
3.33639
3.20705
3.07233
2.9416
2.83794
2.75102
2.67402
2.61238
2.54635
2.46827
2.3816
2.29751
2.21917
2.14855
2.09232
2.04304
1.99491
1.94873
1.90122
1.84772
1.78921
1.72979
1.6725
1.62376
1.58295
1.54897
1.5204
1.49511
1.46514
1.42531
1.37242
1.32046
1.29133
1.2768
1.2655
1.26299
1.27391
1.29202
1.32728
1.37317
1.44894
1.54281
1.64244
1.73923
1.76243
1.74882
3.65785
3.33758
2.88693
2.37057
1.94752
1.69119
1.44993
1.22608
1.11477
1.02898
0.968322
0.94806
0.926653
0.912219
0.91359
0.925383
0.952708
0.977077
0.985273
0.995747
1.01816
1.13192
1.74193
2.73075
3.29953
3.31404
3.29299
3.28795
3.43626
4.18319
5.57924
6.55829
6.85643
6.68471
6.31604
5.86418
5.55661
5.30292
5.14576
4.98684
4.79662
4.56695
4.3511
4.18061
4.03799
3.89939
3.78791
3.68927
3.58301
3.46108
3.31595
3.16692
3.04029
2.9286
2.83292
2.75058
2.68483
2.62941
2.56336
2.48646
2.40442
2.31366
2.22469
2.15491
2.09795
2.04817
2.00237
1.95901
1.91447
1.86374
1.80436
1.73888
1.67537
1.62343
1.58527
1.55496
1.52831
1.50294
1.47172
1.4263
1.36542
1.31281
1.28622
1.27046
1.25545
1.24354
1.22909
1.21407
1.18767
1.14663
1.14723
1.17489
1.23505
1.32097
1.39378
1.47254
3.35499
2.76605
2.16733
1.72299
1.50285
1.30251
1.0827
1.01087
0.999544
0.967046
0.938373
0.936644
0.927311
0.918849
0.924868
0.952531
0.996733
1.02741
1.0328
1.03668
1.02868
1.02712
1.1022
1.66329
2.59915
3.06442
3.55964
4.19832
5.19124
6.35113
7.09513
7.18925
6.88856
6.47037
6.07891
5.80542
5.59618
5.43632
5.30068
5.13132
4.91863
4.66892
4.42245
4.23477
4.09921
3.99272
3.89336
3.78422
3.66594
3.53388
3.37754
3.20031
3.05111
2.95093
2.87247
2.80708
2.75128
2.6944
2.62698
2.55015
2.46221
2.36026
2.26696
2.19498
2.13696
2.08966
2.04845
2.0082
1.96319
1.90813
1.8415
1.76774
1.70166
1.65651
1.62518
1.59736
1.57026
1.54134
1.50318
1.44758
1.37908
1.32923
1.30523
1.28789
1.26952
1.24997
1.22887
1.20318
1.16527
1.11662
1.08147
1.07469
1.07754
1.08568
1.10507
1.15977
2.64927
1.69831
1.11354
0.85441
0.729703
0.657597
0.641249
0.676664
0.768238
0.856105
0.933976
1.00876
1.01504
1.00143
0.994001
1.00976
1.05465
1.08414
1.08657
1.08589
1.0724
1.04166
1.03744