/*--------------------------------*- C++ -*----------------------------------*\
  =========                 |
  \\      /  F ield         | OpenFOAM: The Open Source CFD Toolbox
   \\    /   O peration     | Website:  https://openfoam.org
    \\  /    A nd           | Version:  7
     \\/     M anipulation  |
\*---------------------------------------------------------------------------*/
FoamFile
{
    version     2.0;
    format      ascii;
    class       volScalarField;
    location    "1.1";
    object      rho;
}
// * * * * * * * * * * * * * * * * * * * * * * * * * * * * * * * * * * * * * //

dimensions      [1 -3 0 0 0 0 0];

internalField   nonuniform List<scalar> 
4608
(
1.40001
1.40001
1.40001
1.40001
1.40001
1.40001
1.40001
1.40001
1.40001
1.40001
1.40001
1.40001
1.40001
1.40001
1.40001
1.40001
1.40001
1.40001
1.40001
1.40001
1.40001
1.40001
1.40001
1.40001
1.40001
1.40001
1.40001
1.40001
1.40001
1.40001
1.40001
1.40001
1.40001
1.40001
1.40001
1.40001
1.40001
1.40001
1.40001
1.40001
1.40001
1.40001
1.40001
1.40001
1.40001
1.40001
1.40001
1.40001
1.40001
1.40001
1.40001
1.40001
1.40001
1.40001
1.40001
1.40001
1.40001
1.40001
1.40001
1.40001
1.40001
1.40001
1.40001
1.40001
1.40001
1.40001
1.40001
1.40001
1.40001
1.40001
1.40001
1.40001
1.40001
1.40001
1.40001
1.40001
1.40001
1.40001
1.40001
1.40001
1.40001
1.40001
1.40001
1.40001
1.40001
1.40001
1.40001
1.40001
1.40001
1.40001
1.40001
1.40001
1.40001
1.40001
1.40001
1.40001
1.40001
1.40001
1.40001
1.40001
1.40001
1.40001
1.40001
1.40001
1.40001
1.40001
1.40001
1.40001
1.40001
1.40001
1.40001
1.40001
1.40001
1.40001
1.40001
1.40001
1.40001
1.40001
1.40001
1.40001
1.40001
1.40001
1.40001
1.40001
1.40001
1.40001
1.40001
1.40001
1.40001
1.40001
1.40001
1.40001
1.40001
1.40001
1.40001
1.40001
1.40001
1.40001
1.40001
1.40001
1.40001
1.40001
1.40001
1.40001
1.40001
1.40001
1.40001
1.40001
1.40001
1.40001
1.40001
1.40001
1.40001
1.40001
1.40001
1.40001
1.40001
1.40001
1.40001
1.40001
1.40001
1.40001
1.40001
1.40001
1.40001
1.40001
1.40001
1.40001
1.40001
1.40001
1.40001
1.40001
1.40001
1.40001
1.40001
1.40001
1.40001
1.40001
1.40001
1.40001
1.40001
1.40001
1.40001
1.40001
1.40001
1.40001
1.40001
1.40001
1.40001
1.40001
1.40001
1.40001
1.40001
1.40001
1.40001
1.40001
1.40001
1.40001
1.40001
1.40001
1.40001
1.40001
1.40001
1.40001
1.40001
1.40001
1.40001
1.40001
1.40001
1.40001
1.40001
1.40001
1.40001
1.40001
1.40001
1.40001
1.40001
1.40001
1.40001
1.40001
1.40001
1.40001
1.40001
1.40001
1.40001
1.40001
1.40001
1.40001
1.40001
1.40001
1.40001
1.40001
1.40001
1.40001
1.40001
1.40001
1.40001
1.40001
1.40001
1.40001
1.40001
1.40001
1.40001
1.40001
1.40001
1.40001
1.40001
1.40001
1.40001
1.40001
1.40001
1.40001
1.40001
1.40001
1.40001
1.40001
1.40001
1.40001
1.40001
1.40001
1.40001
1.40001
1.40001
1.40001
1.40001
1.40001
1.40001
1.40001
1.40001
1.40001
1.40001
1.40001
1.40001
1.40001
1.40001
1.40001
1.40001
1.40001
1.40001
1.40001
1.40001
1.40001
1.40001
1.40001
1.40001
1.40001
1.40001
1.40001
1.40001
1.40001
1.40001
1.40001
1.40001
1.40001
1.40001
1.40001
1.40001
1.40001
1.40001
1.40001
1.40001
1.40001
1.40001
1.40001
1.40001
1.40001
1.40001
1.40001
1.40001
1.40001
1.40001
1.40001
1.40001
1.40001
1.40001
1.40001
1.40001
1.40001
1.40001
1.40001
1.40001
1.40001
1.40001
1.40001
1.40001
1.40001
1.40001
1.40001
1.40001
1.40001
1.40001
1.40001
1.40001
1.40001
1.40001
1.40001
1.40001
1.40001
1.40001
1.40001
1.40001
1.40001
1.40001
1.40001
1.40001
1.40001
1.40001
1.40001
1.40001
1.40001
1.40001
1.40001
1.40001
1.40001
1.40001
1.40001
1.40001
1.40001
1.40001
1.40001
1.40001
1.40001
1.40001
1.40001
1.40001
1.40001
1.40001
1.40001
1.40001
1.40001
1.40001
1.40001
1.40001
1.40001
1.40001
1.40001
1.40001
1.40001
1.40001
1.40001
1.40001
1.40001
1.40001
1.40001
1.40001
1.40001
1.40001
1.40001
1.40001
1.40001
1.40001
1.40001
1.40001
1.40001
1.40001
1.40001
1.40001
1.40001
1.40001
1.40001
1.40001
1.40001
1.40001
1.40001
1.40001
1.40001
1.40001
1.40001
1.40001
1.40001
1.40001
1.40001
1.40001
1.40001
1.40001
1.40001
1.40001
1.40001
1.40001
1.40001
1.40001
1.40001
1.40001
1.40001
1.40001
1.40001
1.40001
1.40001
1.40001
1.40001
1.40001
1.40001
1.40001
1.40001
1.40001
1.40001
1.40001
1.40001
1.40001
1.40001
1.40001
1.40001
1.40001
1.40001
1.40001
1.40001
1.40001
1.40001
1.40001
1.40001
1.40001
1.40001
1.40001
1.40001
1.40001
1.40001
1.40001
1.40001
1.40001
1.40001
1.40001
1.40001
1.40001
1.40001
1.40001
1.40001
1.40001
1.40001
1.40001
1.40001
1.40001
1.40001
1.40001
1.40001
1.40001
1.40001
1.40001
1.40001
1.40001
1.40001
1.40001
1.40001
1.40001
1.40001
1.40001
1.40001
1.40001
1.40001
1.40001
1.40001
1.40001
1.40001
1.40001
1.40001
1.40001
1.40001
1.40001
1.40001
1.40001
1.40001
1.40001
1.40001
1.40001
1.40001
1.40001
1.40001
1.40001
1.40001
1.40001
1.40001
1.40001
1.40001
1.40001
1.40001
1.40001
1.40001
1.40001
1.40001
1.40001
1.40001
1.40001
1.40001
1.40001
1.40001
1.40001
1.40001
1.40001
1.40001
1.40001
1.40001
1.40001
1.40001
1.40001
1.40001
1.40001
1.40001
1.40001
1.40001
1.40001
1.40001
1.40001
1.40001
1.40001
1.40001
1.40001
1.40001
1.40001
1.40001
1.40001
1.40001
1.40001
1.40001
1.40001
1.40001
1.40001
1.40001
1.40001
1.40001
1.40001
1.40001
1.40001
1.40001
1.40001
1.40001
1.40001
1.40001
1.40001
1.40001
1.40001
1.40001
1.40001
1.40001
1.40001
1.40001
1.40001
1.40001
1.40001
1.40001
1.40001
1.40001
1.40001
1.40001
1.40001
1.40001
1.40001
1.40001
1.40001
1.40001
1.40001
1.40001
1.40001
1.40001
1.40001
1.40001
1.40001
1.40001
1.40001
1.40001
1.40001
1.40001
1.40001
1.40001
1.40001
1.40001
1.40001
1.40001
1.40001
1.40001
1.40001
1.40001
1.40001
1.40001
1.40001
1.40001
1.40001
1.40001
1.40001
1.40001
1.40001
1.40001
1.40001
1.40001
1.40001
1.40001
1.40001
1.40001
1.40001
1.40001
1.40001
1.40001
1.40001
1.40001
1.40001
1.40001
1.40001
1.40001
1.40001
1.40001
1.40001
1.40001
1.40001
1.40001
1.40001
1.40001
1.40001
1.40001
1.40001
1.40001
1.40001
1.40001
1.40001
1.40001
1.40001
1.40001
1.40001
1.40001
1.40001
1.40001
1.40001
1.40001
1.40001
1.40001
1.40001
1.40001
1.40001
1.40001
1.40001
1.40001
1.40001
1.40001
1.40001
1.40001
1.40001
1.40001
1.40001
1.40001
1.40001
1.40001
1.40001
1.40001
1.40001
1.40001
1.40001
1.40001
1.40001
1.40001
1.40001
1.40001
1.40001
1.40001
1.40001
1.40001
1.40001
1.40001
1.40001
1.40001
1.40001
1.40001
1.40001
1.40001
1.40001
1.40001
1.40001
1.40001
1.40001
1.40001
1.40001
1.40001
1.40001
1.40001
1.40001
1.40001
1.40001
1.40001
1.40001
1.40001
1.40001
1.40001
1.40001
1.40001
1.40001
1.40001
1.40001
1.40001
1.40001
1.40001
1.40001
1.40001
1.40001
1.40001
1.40001
1.40001
1.40001
1.40001
1.40001
1.40001
1.40001
1.40001
1.40001
1.40001
1.40001
1.40001
1.40001
1.40001
1.40001
1.40001
1.40001
1.40001
1.40001
1.40001
1.40001
1.40001
1.40001
1.40001
1.40001
1.40001
1.40001
1.40001
1.40001
1.40001
1.40001
1.40001
1.40001
1.40001
1.40001
1.40001
1.40001
1.40001
1.6789
2.08051
2.53552
3.00546
3.40798
3.84884
4.13195
4.40659
4.41782
4.29929
4.04446
3.71664
3.45133
3.36926
3.30433
3.29971
3.32058
3.35342
3.38703
3.40266
3.40518
3.4046
3.4068
3.41539
1.40223
1.42078
1.4714
1.59027
1.79926
2.10515
2.51144
2.98099
3.36352
3.53127
3.67577
3.60756
3.53506
3.49303
3.44624
3.38906
3.37066
3.36544
3.37268
3.38748
3.39921
3.40672
3.40727
3.41225
1.4
1.40002
1.40001
1.40014
1.40327
1.4207
1.49868
1.70609
2.20072
2.87578
3.46497
3.69341
3.76129
3.71611
3.62896
3.48054
3.3705
3.33991
3.34177
3.35897
3.38332
3.39709
3.39993
3.40325
1.4
1.4
1.4
1.4
1.39999
1.40004
1.4
1.40143
1.43199
1.63467
2.19018
2.9091
3.45481
3.57511
3.54156
3.51543
3.45289
3.36832
3.33195
3.33133
3.34328
3.35854
3.36976
3.37407
1.40001
1.40001
1.40001
1.4
1.4
1.4
1.4
1.4
1.39991
1.40125
1.43314
1.69783
2.29953
3.0348
3.35746
3.53983
3.52444
3.46091
3.3482
3.307
3.2926
3.29432
3.30668
3.32105
1.40001
1.40001
1.40001
1.40001
1.40001
1.4
1.4
1.4
1.39999
1.39999
1.39992
1.40357
1.45589
1.82069
2.47456
3.19913
3.42526
3.40942
3.38586
3.35235
3.31241
3.27826
3.27718
3.28723
1.40001
1.40001
1.40001
1.40001
1.40001
1.40001
1.40001
1.40001
1.4
1.4
1.39999
1.4
1.39998
1.41115
1.53128
2.02076
2.742
3.26956
3.42558
3.42314
3.37985
3.32058
3.30129
3.29319
1.40001
1.40001
1.40001
1.40001
1.40001
1.40001
1.40001
1.40001
1.40001
1.40001
1.4
1.4
1.4
1.39997
1.4008
1.43193
1.69199
2.37037
2.97522
3.29865
3.36594
3.35224
3.3108
3.29471
1.40001
1.40001
1.40001
1.40001
1.40001
1.40001
1.40001
1.40001
1.40001
1.40001
1.40001
1.40001
1.4
1.4
1.4
1.40002
1.40679
1.51164
1.99865
2.78818
3.22143
3.27678
3.29313
3.29291
1.40001
1.40001
1.40001
1.40001
1.40001
1.40001
1.40001
1.40001
1.40001
1.40001
1.40001
1.40001
1.40001
1.4
1.4
1.4
1.39999
1.40125
1.44604
1.7397
2.44287
3.07872
3.3429
3.34192
1.40001
1.40001
1.40001
1.40001
1.40001
1.40001
1.40001
1.40001
1.40001
1.40001
1.40001
1.40001
1.40001
1.40001
1.40001
1.4
1.4
1.4
1.40025
1.41285
1.60156
2.20512
2.90823
3.17028
1.40001
1.40001
1.40001
1.40001
1.40001
1.40001
1.40001
1.40001
1.40001
1.40001
1.40001
1.40001
1.40001
1.40001
1.40001
1.40001
1.4
1.4
1.4
1.40002
1.40669
1.49437
2.00427
2.70381
1.40001
1.40001
1.40001
1.40001
1.40001
1.40001
1.40001
1.40001
1.40001
1.40001
1.40001
1.40001
1.40001
1.40001
1.40001
1.40001
1.40001
1.4
1.4
1.4
1.40001
1.40168
1.46636
1.81328
1.40001
1.40001
1.40001
1.40001
1.40001
1.40001
1.40001
1.40001
1.40001
1.40001
1.40001
1.40001
1.40001
1.40001
1.40001
1.40001
1.40001
1.40001
1.40001
1.4
1.4
1.4
1.40132
1.42688
1.40001
1.40001
1.40001
1.40001
1.40001
1.40001
1.40001
1.40001
1.40001
1.40001
1.40001
1.40001
1.40001
1.40001
1.40001
1.40001
1.40001
1.40001
1.40001
1.40001
1.4
1.4
1.40002
1.40004
1.40001
1.40001
1.40001
1.40001
1.40001
1.40001
1.40001
1.40001
1.40001
1.40001
1.40001
1.40001
1.40001
1.40001
1.40001
1.40001
1.40001
1.40001
1.40001
1.40001
1.40001
1.4
1.4
1.4
1.40001
1.40001
1.40001
1.40001
1.40001
1.40001
1.40001
1.40001
1.40001
1.40001
1.40001
1.40001
1.40001
1.40001
1.40001
1.40001
1.40001
1.40001
1.40001
1.40001
1.40001
1.4
1.4
1.4
1.40001
1.40001
1.40001
1.40001
1.40001
1.40001
1.40001
1.40001
1.40001
1.40001
1.40001
1.40001
1.40001
1.40001
1.40001
1.40001
1.40001
1.40001
1.40001
1.40001
1.4
1.4
1.40002
1.40004
1.40001
1.40001
1.40001
1.40001
1.40001
1.40001
1.40001
1.40001
1.40001
1.40001
1.40001
1.40001
1.40001
1.40001
1.40001
1.40001
1.40001
1.40001
1.40001
1.4
1.4
1.4
1.40132
1.42687
1.40001
1.40001
1.40001
1.40001
1.40001
1.40001
1.40001
1.40001
1.40001
1.40001
1.40001
1.40001
1.40001
1.40001
1.40001
1.40001
1.40001
1.4
1.4
1.4
1.40001
1.40168
1.46636
1.81328
1.40001
1.40001
1.40001
1.40001
1.40001
1.40001
1.40001
1.40001
1.40001
1.40001
1.40001
1.40001
1.40001
1.40001
1.40001
1.40001
1.4
1.4
1.4
1.40002
1.40669
1.49437
2.00427
2.70381
1.40001
1.40001
1.40001
1.40001
1.40001
1.40001
1.40001
1.40001
1.40001
1.40001
1.40001
1.40001
1.40001
1.40001
1.40001
1.4
1.4
1.4
1.40025
1.41285
1.60156
2.20512
2.90823
3.17028
1.40001
1.40001
1.40001
1.40001
1.40001
1.40001
1.40001
1.40001
1.40001
1.40001
1.40001
1.40001
1.40001
1.4
1.4
1.4
1.39999
1.40125
1.44604
1.7397
2.44287
3.07872
3.3429
3.34192
1.40001
1.40001
1.40001
1.40001
1.40001
1.40001
1.40001
1.40001
1.40001
1.40001
1.40001
1.40001
1.4
1.4
1.4
1.40002
1.40679
1.51164
1.99865
2.78818
3.22143
3.27678
3.29313
3.29291
1.40001
1.40001
1.40001
1.40001
1.40001
1.40001
1.40001
1.40001
1.40001
1.40001
1.4
1.4
1.4
1.39997
1.4008
1.43193
1.69199
2.37037
2.97522
3.29865
3.36594
3.35224
3.3108
3.29471
1.40001
1.40001
1.40001
1.40001
1.40001
1.40001
1.40001
1.40001
1.4
1.4
1.39999
1.4
1.39998
1.41115
1.53128
2.02076
2.742
3.26956
3.42558
3.42314
3.37985
3.32058
3.30129
3.29319
1.40001
1.40001
1.40001
1.40001
1.40001
1.4
1.4
1.4
1.39999
1.39999
1.39992
1.40357
1.45589
1.82069
2.47456
3.19913
3.42526
3.40942
3.38586
3.35235
3.31241
3.27826
3.27718
3.28723
1.40001
1.40001
1.40001
1.4
1.4
1.4
1.4
1.4
1.39991
1.40125
1.43314
1.69783
2.29953
3.0348
3.35746
3.53983
3.52444
3.46091
3.3482
3.307
3.2926
3.29432
3.30668
3.32105
1.4
1.4
1.4
1.4
1.39999
1.40004
1.4
1.40143
1.43199
1.63467
2.19018
2.9091
3.45481
3.57511
3.54156
3.51543
3.45289
3.36832
3.33195
3.33133
3.34328
3.35854
3.36976
3.37407
1.4
1.40002
1.40001
1.40014
1.40327
1.4207
1.49868
1.70609
2.20072
2.87578
3.46497
3.69341
3.76129
3.71611
3.62896
3.48054
3.3705
3.33991
3.34177
3.35897
3.38332
3.39709
3.39993
3.40325
1.40223
1.42078
1.4714
1.59027
1.79926
2.10515
2.51144
2.98099
3.36352
3.53127
3.67577
3.60756
3.53506
3.49303
3.44624
3.38906
3.37066
3.36544
3.37268
3.38748
3.39921
3.40672
3.40727
3.41225
1.6789
2.08051
2.53552
3.00546
3.40798
3.84884
4.13195
4.40659
4.41782
4.29929
4.04446
3.71664
3.45133
3.36926
3.30433
3.29971
3.32058
3.35342
3.38703
3.40266
3.40518
3.4046
3.4068
3.41539
2.65773
1.92822
1.42105
1.16562
1.01527
0.930974
0.92061
0.955364
1.04279
1.12703
1.20344
1.28008
1.28844
1.27696
1.27015
1.28461
1.3272
1.35638
1.35897
1.35846
1.34647
1.32175
1.31898
1.38421
1.71361
2.52558
3.60618
4.69273
5.55048
5.84499
5.63011
5.22847
4.79225
4.52598
4.34519
4.23545
4.14819
4.07305
3.99723
3.9001
3.78329
3.64498
3.50148
3.39056
3.31033
3.24882
3.19112
3.12771
3.05852
2.98204
2.89006
2.78177
2.68431
2.61342
2.56085
2.51991
2.48921
2.45929
2.41992
2.36758
2.30202
2.22932
2.16999
2.12582
2.08674
2.05223
2.02352
1.99784
1.96848
1.92866
1.87611
1.81703
1.76979
1.74091
1.71949
1.69859
1.67762
1.65457
1.62192
1.57179
1.51501
1.48214
1.46621
1.45365
1.43966
1.4228
1.40525
1.38168
1.34477
1.29931
1.26897
1.26038
1.25573
1.24913
1.23906
1.22794
3.14517
2.73606
2.30041
1.9576
1.76704
1.59261
1.40584
1.32949
1.30974
1.26978
1.23826
1.23848
1.22953
1.21921
1.22456
1.25041
1.29174
1.3207
1.32546
1.32851
1.32117
1.31894
1.38233
1.8079
2.44864
2.75898
3.06527
3.43411
3.9906
4.60387
4.98076
4.99538
4.84055
4.62517
4.42446
4.28429
4.17392
4.08843
4.01677
3.92589
3.8098
3.67104
3.53236
3.42536
3.34743
3.28711
3.23123
3.16873
3.09886
3.01845
2.92204
2.81183
2.71809
2.65482
2.60534
2.56445
2.52992
2.49432
2.45141
2.40166
2.34342
2.27412
2.20942
2.159
2.11824
2.08527
2.05688
2.02909
1.99751
1.9582
1.90978
1.85513
1.80512
1.77028
1.74588
1.72381
1.70189
1.67858
1.64827
1.60424
1.54978
1.51074
1.49202
1.47808
1.46298
1.44654
1.42816
1.40583
1.37288
1.33058
1.30019
1.29411
1.29638
1.30363
1.32272
1.36646
3.33895
3.12886
2.82089
2.45128
2.12961
1.92822
1.73175
1.5341
1.42859
1.34719
1.29041
1.27096
1.24935
1.23332
1.23428
1.24509
1.27075
1.29354
1.301
1.31052
1.33037
1.42724
1.89282
2.55807
2.92163
2.9273
2.91399
2.90851
2.99517
3.42281
4.17404
4.6689
4.81157
4.72612
4.54002
4.30685
4.14824
4.0138
3.92912
3.84335
3.73877
3.6101
3.48806
3.39082
3.30881
3.22892
3.16544
3.10884
3.04592
2.97147
2.88154
2.78853
2.70898
2.63871
2.57818
2.52574
2.48401
2.44942
2.40735
2.35696
2.30232
2.24063
2.17857
2.12924
2.08899
2.05411
2.02219
1.99192
1.96062
1.9245
1.88139
1.8328
1.78467
1.74437
1.71434
1.69037
1.66906
1.6487
1.62395
1.58774
1.53834
1.4964
1.47613
1.46368
1.4514
1.44123
1.4291
1.41557
1.39225
1.35524
1.35387
1.37332
1.4179
1.48445
1.5515
1.61594
3.36606
3.29319
3.11556
2.85234
2.5115
2.25919
2.09566
1.86669
1.67202
1.56855
1.47214
1.41924
1.37042
1.31862
1.2804
1.27784
1.26661
1.2591
1.26592
1.28484
1.43795
1.90286
2.64131
2.8835
2.91264
2.89139
2.83645
2.75056
2.67353
2.70152
2.93549
3.48321
4.19736
4.40043
4.36619
4.32693
4.21792
4.06494
3.91582
3.78367
3.68367
3.59246
3.48422
3.38746
3.30401
3.21757
3.13537
3.06768
3.01068
2.9567
2.89191
2.81134
2.72622
2.64349
2.57742
2.52188
2.47288
2.4347
2.39305
2.34192
2.28394
2.22654
2.17177
2.12176
2.08203
2.04741
2.01388
1.9819
1.94889
1.91105
1.86865
1.82449
1.78114
1.74338
1.71106
1.6842
1.66189
1.64202
1.61867
1.58741
1.54395
1.50167
1.47945
1.46814
1.45907
1.45639
1.46671
1.48149
1.50868
1.54126
1.59573
1.66435
1.73326
1.79731
1.82367
1.81974
3.33983
3.33085
3.25406
3.08753
2.85355
2.55438
2.35415
2.19229
1.97967
1.75901
1.62924
1.56118
1.51087
1.43914
1.341
1.29326
1.27447
1.26541
1.28165
1.47184
2.02281
2.6275
2.91794
2.90368
2.84463
2.75953
2.69915
2.62816
2.5697
2.53229
2.51858
2.58863
2.93565
3.49568
3.95873
4.21702
4.20245
4.1238
3.95493
3.76317
3.61328
3.50727
3.42051
3.35531
3.29374
3.21811
3.13191
3.04653
2.96838
2.89903
2.83399
2.76821
2.69167
2.63596
2.60071
2.55378
2.49788
2.4372
2.38184
2.33943
2.28949
2.21664
2.17055
2.1428
2.11048
2.07595
2.03669
1.99769
1.9603
1.91293
1.86576
1.8223
1.77938
1.74439
1.71812
1.69742
1.67543
1.65618
1.6298
1.59854
1.56882
1.53353
1.51758
1.52594
1.55601
1.62033
1.71302
1.7783
1.82087
1.85894
1.89698
1.92198
1.93737
1.9373
1.92497
1.88378
3.31007
3.31371
3.30069
3.2139
3.06164
2.85972
2.57822
2.38945
2.25609
2.08255
1.85432
1.70538
1.66795
1.62899
1.54197
1.41264
1.37214
1.40272
1.62567
2.24622
2.77499
2.96739
2.93997
2.86006
2.75325
2.67118
2.61748
2.55524
2.49236
2.45039
2.40371
2.33769
2.33703
2.47544
2.87261
3.44465
3.80811
3.92083
3.87725
3.77063
3.62785
3.50744
3.41976
3.35442
3.28486
3.20547
3.11892
3.0194
2.92409
2.85508
2.80002
2.74872
2.69778
2.64496
2.57786
2.50812
2.44745
2.39634
2.34965
2.30412
2.26057
2.21324
2.164
2.12404
2.08844
2.05208
2.00751
1.95459
1.9201
1.9016
1.87584
1.84123
1.80429
1.76649
1.72791
1.69175
1.66386
1.64931
1.64041
1.62521
1.62619
1.64972
1.70114
1.77702
1.882
1.99156
2.02967
2.03675
2.03904
2.05216
2.05743
2.05004
2.03621
2.01316
1.98206
1.92634
3.29833
3.3052
3.29938
3.27363
3.18664
3.04334
2.84196
2.62217
2.41975
2.27383
2.12768
1.99152
1.81952
1.71842
1.67405
1.59075
1.6076
1.87748
2.53047
3.0602
3.14334
3.07092
2.94262
2.82906
2.72587
2.65517
2.60118
2.53442
2.4672
2.41096
2.34956
2.27833
2.23399
2.19901
2.2217
2.4139
2.83026
3.34577
3.62027
3.65097
3.59291
3.5151
3.42348
3.33404
3.24675
3.16546
3.08618
2.98935
2.88568
2.82068
2.77082
2.72156
2.67483
2.62989
2.57679
2.50715
2.43839
2.38717
2.34008
2.2819
2.22086
2.19276
2.17039
2.1363
2.09395
2.04981
2.00234
1.95341
1.90603
1.85991
1.82606
1.80248
1.78619
1.76794
1.73966
1.70816
1.68724
1.69589
1.73305
1.81502
1.91923
2.0154
2.07331
2.13238
2.19817
2.2043
2.17064
2.12631
2.10555
2.09563
2.07924
2.06064
2.03841
2.00856
1.96723
1.90394
3.29555
3.30146
3.30108
3.29389
3.25977
3.17187
3.01814
2.82839
2.65508
2.46844
2.27589
2.18266
2.05222
1.90787
1.80529
1.88573
2.2935
3.00171
3.44767
3.43175
3.31173
3.14237
2.99311
2.86912
2.76944
2.69481
2.62904
2.55121
2.47112
2.40248
2.33389
2.26176
2.21273
2.16717
2.11902
2.07595
2.11733
2.32065
2.73702
3.1665
3.39906
3.36932
3.35508
3.32308
3.24812
3.16141
3.06446
2.95963
2.85992
2.7819
2.73108
2.68794
2.64704
2.6072
2.55994
2.49868
2.43234
2.36443
2.29871
2.24673
2.20652
2.1703
2.13296
2.09828
2.06573
2.03299
1.99615
1.94865
1.88856
1.84658
1.82194
1.80739
1.7965
1.79747
1.82899
1.87054
1.9314
2.02408
2.11854
2.2129
2.27611
2.3048
2.3276
2.33264
2.32736
2.30363
2.25565
2.20826
2.17689
2.14239
2.10466
2.0724
2.03504
1.99296
1.95147
1.89498
3.29675
3.30005
3.29846
3.29171
3.27805
3.23657
3.14711
2.98506
2.82672
2.66858
2.50421
2.3213
2.19701
2.13093
2.29228
2.84917
3.53553
3.80964
3.75271
3.58355
3.39635
3.23774
3.10573
2.98518
2.87485
2.7715
2.67345
2.57415
2.49051
2.42048
2.34687
2.27553
2.21864
2.16138
2.09835
2.03774
1.99197
1.95903
2.01922
2.23658
2.65587
2.99185
3.2212
3.26941
3.25727
3.2035
3.09289
2.96547
2.85951
2.7783
2.72065
2.66788
2.61426
2.56419
2.51955
2.47602
2.41916
2.3472
2.28116
2.23721
2.19943
2.15443
2.1107
2.07747
2.05206
2.02675
1.99346
1.94684
1.89455
1.85753
1.84703
1.86236
1.92118
2.04164
2.1878
2.29882
2.39301
2.41381
2.42694
2.43642
2.42109
2.39633
2.38018
2.36335
2.33522
2.29796
2.24915
2.20525
2.16974
2.13279
2.09479
2.06077
2.02987
1.99455
1.96077
1.90718
3.33126
3.32548
3.31939
3.30444
3.28088
3.25972
3.21584
3.12016
2.98859
2.81367
2.66306
2.47807
2.50175
2.80659
3.52676
4.1547
4.25103
4.14292
3.93704
3.72607
3.53638
3.37731
3.2367
3.10707
2.987
2.87142
2.75722
2.63953
2.53656
2.44633
2.36424
2.29071
2.22482
2.16064
2.08996
2.02556
1.97085
1.92485
1.88497
1.86385
1.94127
2.18805
2.56269
2.87
3.08212
3.07988
3.04429
2.98534
2.89981
2.81029
2.73159
2.66785
2.61193
2.55888
2.50384
2.44616
2.38202
2.32225
2.27618
2.2256
2.17384
2.13179
2.10218
2.07628
2.05015
2.02757
1.99831
1.96142
1.95356
1.98062
2.06149
2.19559
2.3523
2.51224
2.59933
2.60991
2.62597
2.61624
2.59384
2.56295
2.52185
2.47712
2.42889
2.37532
2.32123
2.26949
2.2235
2.19143
2.1625
2.12861
2.09262
2.05886
2.02881
1.98979
1.95662
1.91737
3.33902
3.37579
3.36555
3.33238
3.29552
3.2828
3.26541
3.22273
3.11274
2.98527
2.82747
2.93474
3.51487
4.3226
4.69365
4.65461
4.4786
4.27439
4.07309
3.87951
3.69688
3.52676
3.36733
3.21981
3.08333
2.95553
2.83426
2.71537
2.60839
2.50644
2.413
2.32461
2.24362
2.16891
2.09322
2.03347
1.97715
1.92269
1.86392
1.81843
1.78073
1.77511
1.84497
2.11244
2.49522
2.76398
2.88144
2.88831
2.87128
2.83068
2.7661
2.68959
2.62301
2.56316
2.50208
2.43891
2.37996
2.32545
2.26911
2.19939
2.14692
2.12288
2.108
2.09308
2.07204
2.05847
2.09224
2.19664
2.30869
2.4607
2.59068
2.70027
2.72933
2.72187
2.69887
2.66625
2.65448
2.63766
2.61032
2.5705
2.51934
2.47131
2.42519
2.3747
2.32492
2.27528
2.22882
2.1898
2.15698
2.12565
2.09263
2.05869
2.0282
1.98823
1.95169
1.91998
3.2884
3.35812
3.3354
3.29931
3.28348
3.28602
3.2856
3.26882
3.19354
3.20089
3.54883
4.38363
5.12963
5.33133
5.21935
4.93235
4.65342
4.41719
4.21043
4.01634
3.82897
3.65001
3.48224
3.32751
3.18307
3.04612
2.91352
2.78507
2.66884
2.55927
2.46239
2.37043
2.27882
2.18622
2.1046
2.04182
1.98085
1.92943
1.87821
1.82078
1.76412
1.71221
1.66786
1.68389
1.78674
2.05621
2.38575
2.6701
2.77312
2.7538
2.69688
2.64289
2.58256
2.51978
2.47858
2.43684
2.38732
2.3334
2.27262
2.20549
2.16214
2.14712
2.13583
2.15513
2.23378
2.36886
2.57662
2.75332
2.85789
2.95394
2.96373
2.93521
2.89157
2.84348
2.77456
2.71287
2.66401
2.61676
2.58024
2.54329
2.50044
2.46911
2.43072
2.37926
2.32303
2.26486
2.22447
2.19087
2.16233
2.13632
2.10793
2.07457
2.03756
1.99245
1.95941
1.92916
2.60775
3.14526
3.26652
3.34279
3.3462
3.33361
3.30224
3.30225
3.44888
4.20237
5.3703
5.77634
5.71565
5.58338
5.3661
5.12457
4.86488
4.60399
4.35829
4.1334
3.92737
3.73657
3.56007
3.40021
3.2549
3.1205
2.99048
2.86285
2.73748
2.60724
2.47857
2.37363
2.30073
2.22376
2.13759
2.06883
2.00806
1.94638
1.87718
1.81837
1.75912
1.69304
1.65309
1.62456
1.59327
1.61626
1.75135
2.01684
2.3234
2.50873
2.62159
2.61883
2.59532
2.53986
2.4578
2.39325
2.34981
2.3243
2.29605
2.25657
2.26195
2.30613
2.41783
2.5981
2.78474
2.93937
3.06164
3.06671
3.05803
3.03595
2.99021
2.93557
2.88467
2.83248
2.78517
2.74234
2.69591
2.64592
2.58767
2.5339
2.49115
2.46723
2.43466
2.38208
2.32333
2.25573
2.2167
2.20299
2.1875
2.16912
2.14423
2.10741
2.04998
2.00027
1.98629
1.95576
1.71133
2.39326
3.02486
3.31532
3.30997
3.3039
3.3902
3.80985
4.84552
6.03272
6.52521
6.4238
6.05627
5.69915
5.46844
5.2591
5.01942
4.75276
4.48708
4.24256
4.02216
3.82104
3.63481
3.46225
3.30115
3.15396
3.02414
2.90776
2.79273
2.66826
2.53855
2.42062
2.31643
2.25118
2.20827
2.14061
2.06193
1.97872
1.89495
1.82952
1.76952
1.72059
1.66589
1.61049
1.57356
1.54748
1.53587
1.56454
1.68605
1.90595
2.19711
2.3968
2.48702
2.4796
2.43888
2.40349
2.37679
2.39132
2.45556
2.5762
2.74902
2.92967
3.09513
3.23153
3.30057
3.31138
3.2839
3.23981
3.1878
3.08941
2.97703
2.90516
2.85652
2.81782
2.78123
2.7247
2.6627
2.6148
2.57548
2.53244
2.49801
2.47506
2.4433
2.39428
2.33262
2.26701
2.21945
2.1897
2.1695
2.15141
2.12782
2.09419
2.05289
2.01163
1.98177
1.94446
1.42242
1.62063
2.21
2.89785
3.17508
3.65883
4.47858
5.50184
6.32763
6.62357
6.58232
6.47017
6.23853
5.91503
5.62225
5.35277
5.08841
4.82822
4.57521
4.33256
4.10334
3.88903
3.69054
3.50932
3.34367
3.19047
3.04672
2.91157
2.78603
2.67971
2.60025
2.50671
2.39712
2.28518
2.18077
2.09273
2.01174
1.9723
1.94328
1.89534
1.82354
1.71593
1.64789
1.62619
1.5982
1.5609
1.51915
1.48096
1.4542
1.48428
1.60869
1.87329
2.12302
2.30757
2.36639
2.47537
2.64098
2.85065
3.02791
3.19954
3.33224
3.38483
3.41628
3.41637
3.40063
3.34751
3.28257
3.20339
3.13169
3.0753
3.0153
2.95396
2.89691
2.84268
2.78858
2.72247
2.64269
2.582
2.56088
2.54904
2.53068
2.50776
2.47684
2.42927
2.35429
2.27059
2.2201
2.19154
2.1702
2.14869
2.12311
2.09405
2.05915
2.01316
1.98666
1.94934
1.40046
1.41332
1.56174
2.15411
3.34269
4.65738
5.78931
6.63501
7.09847
6.91347
6.58046
6.43361
6.28465
6.0435
5.72122
5.39237
5.09569
4.83556
4.59834
4.37021
4.14722
3.93118
3.7243
3.52783
3.34505
3.1808
3.03606
2.91141
2.80295
2.69998
2.58349
2.46472
2.35199
2.24254
2.14521
2.072
2.02208
1.97264
1.91014
1.84501
1.76905
1.70421
1.65482
1.60421
1.5581
1.51948
1.48367
1.44949
1.42005
1.38813
1.39266
1.45838
1.63392
1.96323
2.4384
2.80984
3.13914
3.38597
3.50848
3.6186
3.67523
3.65441
3.61657
3.55096
3.46183
3.33768
3.23211
3.14726
3.0601
3.02186
2.98102
2.93379
2.89691
2.8603
2.81496
2.74828
2.65176
2.57808
2.5403
2.51649
2.49751
2.47763
2.45272
2.41737
2.36829
2.29565
2.22284
2.18387
2.1602
2.13737
2.11091
2.08265
2.05707
2.03478
2.01837
1.97193
1.40046
1.41332
1.56174
2.15412
3.34265
4.65741
5.78932
6.635
7.09848
6.91347
6.58045
6.4336
6.28462
6.04347
5.7212
5.39236
5.09569
4.83556
4.59836
4.37022
4.14723
3.93118
3.72429
3.52783
3.34504
3.18078
3.03603
2.91141
2.80298
2.70003
2.58356
2.46476
2.35202
2.24253
2.14521
2.07199
2.02199
1.97253
1.91005
1.84493
1.76892
1.70425
1.65494
1.60425
1.5581
1.51946
1.48371
1.44946
1.42006
1.38794
1.393
1.45663
1.63191
1.97344
2.4363
2.83571
3.14195
3.36455
3.51055
3.62668
3.66345
3.65078
3.62812
3.57171
3.46671
3.33691
3.24554
3.16075
3.05236
3.01654
2.98443
2.93681
2.89771
2.85661
2.81044
2.74796
2.65075
2.57618
2.54103
2.51563
2.49479
2.47473
2.45149
2.42076
2.3687
2.28617
2.21731
2.18417
2.16007
2.13577
2.11044
2.08545
2.05991
2.02921
2.00334
1.95301
1.42242
1.62063
2.21
2.89787
3.17505
3.65885
4.4786
5.50184
6.32764
6.62357
6.58231
6.47015
6.23851
5.91501
5.62224
5.35277
5.08841
4.82822
4.57521
4.33256
4.10333
3.88903
3.69055
3.50934
3.34369
3.1905
3.04677
2.91162
2.78601
2.67959
2.60012
2.50671
2.39715
2.28519
2.18076
2.09272
2.01167
1.9721
1.94308
1.8952
1.82342
1.71578
1.64799
1.62628
1.59824
1.5609
1.51935
1.48076
1.45449
1.48314
1.61194
1.86536
2.14184
2.30187
2.35085
2.476
2.63807
2.82909
3.03352
3.21761
3.30868
3.38575
3.41521
3.41708
3.40098
3.35715
3.3037
3.21663
3.10881
3.06069
3.02247
2.9628
2.90473
2.85286
2.80338
2.73539
2.64877
2.5819
2.54981
2.53323
2.52015
2.49835
2.47285
2.44126
2.38617
2.28613
2.20513
2.1843
2.16929
2.1521
2.13029
2.10617
2.08144
2.04818
2.00738
1.94278
1.71133
2.39325
3.02486
3.31532
3.30997
3.3039
3.39021
3.80985
4.84551
6.03272
6.52521
6.42379
6.05625
5.69914
5.46843
5.2591
5.01943
4.75277
4.48709
4.24256
4.02216
3.82105
3.63481
3.46225
3.30114
3.15395
3.02412
2.90774
2.79275
2.66831
2.5386
2.42063
2.3164
2.25114
2.20823
2.14061
2.06194
1.97873
1.89492
1.82954
1.76957
1.72056
1.66584
1.61045
1.57355
1.54749
1.53577
1.56453
1.6862
1.90622
2.19568
2.39364
2.49139
2.47943
2.43698
2.40797
2.38046
2.38913
2.45381
2.57926
2.75259
2.92629
3.0936
3.2141
3.29853
3.32104
3.29355
3.22691
3.1574
3.07604
2.99365
2.92265
2.87202
2.82321
2.77989
2.72973
2.66188
2.61252
2.577
2.53679
2.49974
2.47121
2.44151
2.40158
2.34109
2.26791
2.2117
2.1874
2.16913
2.14698
2.12158
2.09223
2.0617
2.02791
1.99101
1.93284
2.60776
3.14525
3.26652
3.34279
3.3462
3.33361
3.30225
3.30225
3.44887
4.20237
5.37031
5.77634
5.71565
5.58339
5.3661
5.12457
4.86489
4.604
4.35829
4.13341
3.92737
3.73656
3.56007
3.4002
3.25489
3.12049
2.99047
2.86286
2.7375
2.60727
2.47859
2.37361
2.30069
2.22377
2.1376
2.06885
2.00809
1.9464
1.87723
1.81844
1.75911
1.69301
1.6531
1.62459
1.5932
1.6164
1.75049
2.01881
2.3205
2.5108
2.62179
2.61943
2.59503
2.53772
2.45448
2.39553
2.35328
2.32392
2.29434
2.25433
2.26155
2.30572
2.41881
2.59119
2.77421
2.95076
3.0383
3.0604
3.04108
3.02887
3.00574
2.96324
2.90913
2.84415
2.77666
2.72175
2.67223
2.63911
2.59934
2.5458
2.50072
2.47266
2.44432
2.39069
2.31178
2.25124
2.21883
2.19309
2.17161
2.1532
2.13377
2.10387
2.06018
2.00786
1.97553
1.94067
3.2884
3.35812
3.3354
3.29931
3.28348
3.28602
3.2856
3.26882
3.19354
3.20089
3.54883
4.38364
5.12963
5.33133
5.21935
4.93236
4.65343
4.4172
4.21043
4.01634
3.82897
3.65001
3.48223
3.3275
3.18306
3.04612
2.91352
2.78508
2.66884
2.55927
2.46238
2.37043
2.27884
2.18624
2.10458
2.04183
1.98091
1.9295
1.87828
1.82079
1.76408
1.7122
1.66787
1.6839
1.78684
2.05593
2.3849
2.67268
2.77236
2.75258
2.6976
2.64266
2.58052
2.51923
2.47906
2.43665
2.38669
2.33173
2.27031
2.20518
2.16416
2.14955
2.13651
2.1554
2.23101
2.368
2.56301
2.74969
2.85661
2.93853
2.97362
2.95733
2.91313
2.8455
2.7655
2.70243
2.65715
2.61609
2.57675
2.54324
2.51134
2.48088
2.44267
2.38337
2.30957
2.25763
2.22164
2.18922
2.16377
2.1427
2.11632
2.07938
2.03402
1.98958
1.95915
1.92494
3.33902
3.37579
3.36555
3.33238
3.29552
3.2828
3.26541
3.22273
3.11274
2.98527
2.82747
2.93474
3.51487
4.3226
4.69365
4.65461
4.4786
4.27438
4.07309
3.8795
3.69688
3.52676
3.36732
3.2198
3.08333
2.95553
2.83427
2.71537
2.60839
2.50644
2.413
2.32462
2.24362
2.16891
2.09323
2.0335
1.97717
1.92268
1.86392
1.81843
1.78073
1.77511
1.84497
2.11236
2.49617
2.76215
2.88209
2.88914
2.8713
2.83041
2.76605
2.68923
2.62265
2.56343
2.50239
2.43927
2.38008
2.32477
2.26749
2.19895
2.1486
2.12477
2.10954
2.09267
2.07066
2.0574
2.09253
2.18843
2.31838
2.45328
2.59256
2.68918
2.74022
2.71721
2.68005
2.67319
2.66416
2.64247
2.60864
2.57192
2.53275
2.49015
2.43882
2.37523
2.31024
2.26043
2.22236
2.19179
2.16629
2.14195
2.11316
2.06932
2.02006
1.97319
1.94809
1.92393
3.33126
3.32548
3.31939
3.30444
3.28088
3.25972
3.21584
3.12016
2.98859
2.81367
2.66306
2.47807
2.50175
2.80659
3.52676
4.1547
4.25103
4.14292
3.93704
3.72607
3.53638
3.37731
3.2367
3.10707
2.987
2.87143
2.75722
2.63953
2.53656
2.44633
2.36424
2.29071
2.22483
2.16064
2.08996
2.02556
1.97085
1.92484
1.88498
1.86387
1.94133
2.18805
2.56266
2.87015
3.08223
3.07965
3.04437
2.98559
2.90013
2.81008
2.73141
2.66775
2.61174
2.55893
2.50412
2.44634
2.38191
2.32216
2.27638
2.22694
2.17474
2.13284
2.10338
2.0755
2.04892
2.02669
1.99903
1.96263
1.95646
1.9795
2.05849
2.18906
2.35129
2.49099
2.56261
2.6148
2.63944
2.63062
2.60177
2.568
2.53079
2.48487
2.43264
2.36541
2.30798
2.26325
2.22467
2.19595
2.17128
2.14173
2.10517
2.06069
2.01796
1.97645
1.95192