/*--------------------------------*- C++ -*----------------------------------*\
  =========                 |
  \\      /  F ield         | OpenFOAM: The Open Source CFD Toolbox
   \\    /   O peration     | Website:  https://openfoam.org
    \\  /    A nd           | Version:  7
     \\/     M anipulation  |
\*---------------------------------------------------------------------------*/
FoamFile
{
    version     2.0;
    format      ascii;
    class       volScalarField;
    location    "1.1";
    object      T;
}
// * * * * * * * * * * * * * * * * * * * * * * * * * * * * * * * * * * * * * //

dimensions      [0 0 0 1 0 0 0];

internalField   nonuniform List<scalar> 
4608
(
1
1
1
1
1
1
1
1
1
1
1
1
1
1
1
1
1
1
1
1
1
1
1
1
1
1
1
1
1
1
1
1
1
1
1
1
1
1
1
1
1
1
1
1
1
1
1
1
1
1
1
1
1
1
1
1
1
1
1
1
1
1
1
1
1
1
1
1
1
1
1
1
1
1
1
1
1
1
1
1
1
1
1
1
1
1
1
1
1
1
1
1
1
1
1
1
1
1
1
1
1
1
1
1
1
1
1
1
1
1
1
1
1
1
1
1
1
1
1
1
1
1
1
1
1
1
1
1
1
1
1
1
1
1
1
1
1
1
1
1
1
1
1
1
1
1
1
1
1
1
1
1
1
1
1
1
1
1
1
1
1
1
1
1
1
1
1
1
1
1
1
1
1
1
1
1
1
1
1
1
1
1
1
1
1
1
1
1
1
1
1
1
1
1
1
1
1
1
1
1
1
1
1
1
1
1
1
1
1
1
1
1
1
1
1
1
1
1
1
1
1
1
1
1
1
1
1
1
1
1
1
1
1
1
1
1
1
1
1
1
1
1
1
1
1
1
1
1
1
1
1
1
1
1
1
1
1
1
1
1
1
1
1
1
1
1
1
1
1
1
1
1
1
1
1
1
1
1
1
1
1
1
1
1
1
1
1
1
1
1
1
1
1
1
1
1
1
1
1
1
1
1
1
1
1
1
1
1
1
1
1
1
1
1
1
1
1
1
1
1
1
1
1
1
1
1
1
1
1
1
1
1
1
1
1
1
1
1
1
1
1
1
1
1
1
1
1
1
1
1
1
1
1
1
1
1
1
1
1
1
1
1
1
1
1
1
1
1
1
1
1
1
1
1
1
1
1
1
1
1
1
1
1
1
1
1
1
1
1
1
1
1
1
1
1
1
1
1
1
1
1
1
1
1
1
1
1
1
1
1
1
1
1
1
1
1
1
1
1
1
1
1
1
1
1
1
1
1
1
1
1
1
1
1
1
1
1
1
1
1
1
1
1
1
1
1
1
1
1
1
1
1
1
1
1
1
1
1
1
1
1
1
1
1
1
1
1
1
1
1
1
1
1
1
1
1
1
1
1
1
1
1
1
1
1
1
1
1
1
1
1
1
1
1
1
1
1
1
1
1
1
1
1
1
1
1
1
1
1
1
1
1
1
1
1
1
1
1
1
1
1
1
1
1
1
1
1
1
1
1
1
1
1
1
1
1
1
1
1
1
1
1
1
1
1
1
1
1
1
1
1
1
1
1
1
1
1
1
1
1
1
1
1
1
1
1
1
1
1
1
1
1
1
1
1
1
1
1
1
1
1
1
1
1
1
1
1
1
1
1
1
1
1
1
1
1
1
1
1
1
1
1
1
1
1
1
1
1
1
1
1
1
1
1
1
1
1
1
1
1
1
1
1
1
1
1
1
1
1
1
1
1
1
1
1
1
1
1
1
1
1
1
1
1
1
1
1
1
1
1
1
1
1
1
1
1
1
1
1
1
1
1
1
1
1
1
1
1
1
1
1
1
1
1
1
1
1
1
1
1
1
1
1
1
1
1
1
1
1
1
1
1
1
1
1
1
1
1
1
1
1
1
1
1
1
1
1
1
1
1
1
1
1
1
1
1
1
1
1
1
1
1
1
1
1
1
1
1
1
1
1
1
1
1
1
1
1
1
1
1
1
1
1
1
1
1
1
1
1
1
1
1
1
1
1
1
1
1
1
1
1
1
1
1
1
1
1
1
1.07888
1.18018
1.28729
1.39361
1.48418
1.57632
1.63817
1.67983
1.69725
1.68185
1.63973
1.58627
1.54047
1.52445
1.51316
1.51323
1.51742
1.52425
1.53074
1.53396
1.53457
1.53442
1.5347
1.53669
1.00075
1.00754
1.02726
1.07304
1.14563
1.23022
1.32289
1.40821
1.47987
1.51678
1.55566
1.56089
1.55711
1.55325
1.54596
1.53518
1.53228
1.53227
1.53356
1.53581
1.53738
1.53832
1.53814
1.53932
0.999999
1.00001
1
1.00006
1.00125
1.00783
1.03802
1.11549
1.27255
1.44844
1.57388
1.62072
1.61953
1.60889
1.59342
1.56694
1.54805
1.54232
1.54208
1.54363
1.54596
1.54695
1.54689
1.54823
1
1
0.999999
0.999999
0.999995
1.00001
0.999991
1.00057
1.01357
1.10821
1.31029
1.49046
1.60982
1.60927
1.60076
1.59808
1.5877
1.57228
1.56285
1.55884
1.55715
1.5575
1.55824
1.55983
1
1
1
1
1
1
0.999999
0.999999
0.999961
1.00049
1.01478
1.13341
1.34687
1.53201
1.59853
1.62959
1.62436
1.61023
1.58658
1.57402
1.56661
1.56404
1.56577
1.56987
1
1
1
1
1
1
1
1
0.999996
0.999997
0.999959
1.00136
1.02465
1.18109
1.39596
1.57351
1.61139
1.60589
1.60066
1.59268
1.58281
1.57582
1.57567
1.57817
1
1
1
1
1
1
1
1
1
1
0.999996
0.999997
0.999976
1.0043
1.05759
1.24545
1.45336
1.57904
1.61079
1.61005
1.60195
1.59079
1.58661
1.58492
1
1
1
1
1
1
1
1
1
1
1
1
0.999998
0.999985
1.00026
1.01242
1.12356
1.34484
1.50393
1.57871
1.59607
1.59382
1.58671
1.58415
1
1
1
1
1
1
1
1
1
1
1
1
1
0.999998
0.999998
0.999996
1.0025
1.04459
1.22959
1.45167
1.55544
1.57013
1.57773
1.57956
1
1
1
1
1
1
1
1
1
1
1
1
1
1
1
1
0.999993
1.0004
1.0176
1.13299
1.35676
1.51583
1.57087
1.58228
1
1
1
1
1
1
1
1
1
1
1
1
1
1
1
1
0.999999
0.999997
1.00007
1.00461
1.07961
1.27985
1.46458
1.52999
1
1
1
1
1
1
1
1
1
1
1
1
1
1
1
1
1
0.999999
0.999999
1
1.00226
1.03565
1.21906
1.408
1
1
1
1
1
1
1
1
1
1
1
1
1
1
1
1
1
1
1
1
0.999999
1.00054
1.02438
1.14899
1
1
1
1
1
1
1
1
1
1
1
1
1
1
1
1
1
1
1
1
1
1
1.0004
1.00926
1
1
1
1
1
1
1
1
1
1
1
1
1
1
1
1
1
1
1
1
1
1
1
1
1
1
1
1
1
1
1
1
1
1
1
1
1
1
1
1
1
1
1
1
1
1
1
0.999999
1
1
1
1
1
1
1
1
1
1
1
1
1
1
1
1
1
1
1
1
1
1
1
0.999999
1
1
1
1
1
1
1
1
1
1
1
1
1
1
1
1
1
1
1
1
1
1
1
1
1
1
1
1
1
1
1
1
1
1
1
1
1
1
1
1
1
1
1
1
1
1
1.0004
1.00926
1
1
1
1
1
1
1
1
1
1
1
1
1
1
1
1
1
1
1
1
0.999999
1.00054
1.02438
1.14899
1
1
1
1
1
1
1
1
1
1
1
1
1
1
1
1
1
0.999999
0.999999
1
1.00226
1.03565
1.21906
1.408
1
1
1
1
1
1
1
1
1
1
1
1
1
1
1
1
0.999999
0.999997
1.00007
1.00461
1.07961
1.27985
1.46458
1.52999
1
1
1
1
1
1
1
1
1
1
1
1
1
1
1
1
0.999993
1.0004
1.0176
1.13299
1.35676
1.51583
1.57087
1.58228
1
1
1
1
1
1
1
1
1
1
1
1
1
0.999998
0.999998
0.999996
1.0025
1.04459
1.22959
1.45167
1.55544
1.57013
1.57773
1.57956
1
1
1
1
1
1
1
1
1
1
1
1
0.999998
0.999985
1.00026
1.01242
1.12356
1.34484
1.50393
1.57871
1.59607
1.59382
1.58671
1.58415
1
1
1
1
1
1
1
1
1
1
0.999996
0.999997
0.999976
1.0043
1.05759
1.24545
1.45336
1.57904
1.61079
1.61005
1.60195
1.59079
1.58661
1.58492
1
1
1
1
1
1
1
1
0.999996
0.999997
0.999959
1.00136
1.02465
1.18109
1.39596
1.57351
1.61139
1.60589
1.60066
1.59268
1.58281
1.57582
1.57567
1.57817
1
1
1
1
1
1
0.999999
0.999999
0.999961
1.00049
1.01478
1.13341
1.34687
1.53201
1.59853
1.62959
1.62436
1.61023
1.58658
1.57402
1.56661
1.56404
1.56577
1.56987
1
1
0.999999
0.999999
0.999995
1.00001
0.999991
1.00057
1.01357
1.10821
1.31029
1.49046
1.60982
1.60927
1.60076
1.59808
1.5877
1.57228
1.56285
1.55884
1.55715
1.5575
1.55824
1.55983
0.999999
1.00001
1
1.00006
1.00125
1.00783
1.03802
1.11549
1.27255
1.44844
1.57388
1.62072
1.61953
1.60889
1.59342
1.56694
1.54805
1.54232
1.54208
1.54363
1.54596
1.54695
1.54689
1.54823
1.00075
1.00754
1.02726
1.07304
1.14563
1.23022
1.32289
1.40821
1.47987
1.51678
1.55566
1.56089
1.55711
1.55325
1.54596
1.53518
1.53228
1.53227
1.53356
1.53581
1.53738
1.53832
1.53814
1.53932
1.07888
1.18018
1.28729
1.39361
1.48418
1.57632
1.63817
1.67983
1.69725
1.68185
1.63973
1.58627
1.54047
1.52445
1.51316
1.51323
1.51742
1.52425
1.53074
1.53396
1.53457
1.53442
1.5347
1.53669
1.39555
1.23307
1.09705
1.02622
1.00623
0.988898
0.975171
0.991594
1.0314
1.06346
1.08652
1.10326
1.10293
1.09793
1.09562
1.10046
1.11251
1.11901
1.11937
1.1191
1.11503
1.10333
1.10117
1.12785
1.26191
1.50772
1.74699
1.95398
2.09748
2.15116
2.11966
2.05957
1.98973
1.94305
1.90856
1.88677
1.87094
1.8576
1.84355
1.82478
1.8017
1.77432
1.74574
1.72329
1.7064
1.6924
1.67845
1.66317
1.64719
1.63016
1.60976
1.58532
1.56268
1.5456
1.5323
1.52125
1.51238
1.50356
1.4922
1.47757
1.46
1.44116
1.42582
1.41422
1.40361
1.39366
1.38476
1.37655
1.36739
1.35545
1.34008
1.32288
1.30909
1.30083
1.29498
1.28946
1.28395
1.27758
1.26784
1.25199
1.23324
1.22186
1.21619
1.21179
1.20709
1.20174
1.19657
1.18966
1.17815
1.16305
1.15265
1.14968
1.14789
1.14517
1.14052
1.13809
1.4934
1.41535
1.31902
1.23222
1.19069
1.14499
1.07821
1.06449
1.06843
1.06622
1.06094
1.0588
1.05588
1.05511
1.05738
1.06649
1.08027
1.0891
1.09088
1.09247
1.09007
1.09024
1.11629
1.28802
1.48606
1.555
1.6258
1.71155
1.82122
1.93133
1.99432
2.01486
1.99234
1.95853
1.92351
1.89707
1.87706
1.86157
1.8475
1.82987
1.80748
1.78057
1.75278
1.73081
1.71441
1.70052
1.68689
1.67194
1.6562
1.63908
1.61825
1.59343
1.57153
1.55615
1.54355
1.53246
1.52251
1.51233
1.5003
1.48657
1.47099
1.45308
1.43652
1.42335
1.41238
1.40294
1.39421
1.38546
1.37576
1.36406
1.34995
1.33421
1.3199
1.31003
1.30327
1.29744
1.2917
1.28529
1.27632
1.26258
1.24492
1.2317
1.22514
1.2203
1.21526
1.21011
1.20473
1.19829
1.18824
1.17444
1.16408
1.1622
1.16313
1.166
1.17284
1.19341
1.53372
1.4934
1.43278
1.35391
1.2803
1.2279
1.17217
1.11891
1.09246
1.06932
1.05056
1.04432
1.03839
1.03551
1.03626
1.04052
1.04961
1.05749
1.06026
1.06374
1.07145
1.11032
1.2884
1.49451
1.58109
1.58497
1.58209
1.58265
1.60618
1.71102
1.87132
1.96655
1.99499
1.98019
1.94768
1.90624
1.87532
1.84965
1.83352
1.81655
1.79613
1.77107
1.7464
1.7261
1.70854
1.69069
1.67529
1.66139
1.64687
1.63069
1.61108
1.58999
1.57123
1.55381
1.53835
1.52463
1.51314
1.50287
1.49075
1.47695
1.46212
1.44569
1.42972
1.41697
1.40611
1.39613
1.38648
1.37691
1.36686
1.35549
1.34246
1.32829
1.31444
1.30304
1.29477
1.28821
1.28228
1.27641
1.26884
1.25727
1.24112
1.22701
1.22003
1.21579
1.21171
1.20864
1.20526
1.20177
1.19514
1.18421
1.18468
1.19356
1.21162
1.23719
1.25798
1.2839
1.55498
1.53709
1.49993
1.44533
1.37151
1.31157
1.27021
1.21259
1.16125
1.12847
1.09722
1.08179
1.06854
1.05402
1.0427
1.04282
1.03959
1.03798
1.04035
1.04737
1.10925
1.28411
1.51118
1.57342
1.58078
1.57694
1.56683
1.54968
1.53466
1.54312
1.60975
1.74615
1.89858
1.93251
1.92481
1.91564
1.89369
1.86477
1.8366
1.81041
1.79028
1.77181
1.75012
1.73026
1.7121
1.69313
1.67426
1.65808
1.64408
1.63056
1.6152
1.59708
1.57775
1.5579
1.54156
1.52723
1.5138
1.50211
1.48966
1.47553
1.45988
1.44471
1.43061
1.41774
1.40705
1.39722
1.38716
1.37688
1.36582
1.35341
1.34019
1.32708
1.31462
1.30415
1.29538
1.28777
1.28111
1.27499
1.26756
1.25739
1.24309
1.22899
1.22161
1.21799
1.21499
1.21529
1.21967
1.22702
1.23967
1.25279
1.2723
1.2959
1.31858
1.33938
1.3436
1.34542
1.56748
1.56218
1.54242
1.50506
1.45355
1.38557
1.33735
1.29918
1.24875
1.18804
1.14742
1.12874
1.11682
1.09833
1.06857
1.04992
1.04196
1.04024
1.04741
1.12705
1.32709
1.50654
1.58557
1.58329
1.57168
1.55409
1.54188
1.52661
1.51384
1.50472
1.50229
1.52273
1.62294
1.75928
1.85889
1.90495
1.90121
1.88474
1.85054
1.81229
1.78123
1.75859
1.74074
1.72713
1.71346
1.69655
1.67783
1.65872
1.63953
1.6214
1.60508
1.58969
1.57207
1.55889
1.5502
1.53758
1.52157
1.50436
1.4886
1.47634
1.46269
1.44392
1.43221
1.42508
1.41633
1.40648
1.3948
1.38242
1.37009
1.35525
1.34088
1.3279
1.31551
1.30549
1.29809
1.29228
1.28578
1.27984
1.27149
1.26136
1.2516
1.23993
1.23572
1.23922
1.25091
1.27463
1.30584
1.32764
1.34261
1.35549
1.36733
1.37556
1.38059
1.38053
1.3765
1.36455
1.57748
1.57432
1.56708
1.54448
1.50898
1.46289
1.39876
1.35384
1.32143
1.27963
1.2197
1.17794
1.16872
1.15941
1.13622
1.09668
1.07901
1.0907
1.18093
1.39172
1.54149
1.59862
1.5945
1.579
1.55619
1.53772
1.52525
1.51055
1.49533
1.48429
1.47187
1.45404
1.45455
1.49824
1.61117
1.74977
1.82971
1.84924
1.83994
1.8177
1.78736
1.7616
1.74302
1.72878
1.71375
1.6964
1.67805
1.65632
1.63347
1.61575
1.60163
1.58859
1.57574
1.56273
1.5462
1.52803
1.51105
1.49634
1.4826
1.46916
1.45701
1.44466
1.43199
1.42136
1.41139
1.4008
1.3876
1.37126
1.35967
1.35319
1.34502
1.33491
1.32439
1.31319
1.30155
1.29073
1.28232
1.27787
1.27524
1.2701
1.27252
1.28252
1.30099
1.32646
1.36005
1.39163
1.40214
1.40575
1.40835
1.41424
1.41602
1.41391
1.40997
1.40343
1.39446
1.37809
1.58418
1.58263
1.57856
1.56943
1.54766
1.51439
1.46861
1.4187
1.37113
1.33482
1.29869
1.26618
1.22111
1.19216
1.17838
1.15485
1.16556
1.27794
1.48836
1.61757
1.64067
1.62614
1.59964
1.57453
1.55083
1.534
1.52096
1.50439
1.48626
1.47073
1.45422
1.43464
1.4217
1.41044
1.41759
1.48024
1.60234
1.72823
1.78621
1.79116
1.77944
1.76418
1.74578
1.72625
1.70691
1.68874
1.67168
1.65079
1.62682
1.6104
1.59735
1.58435
1.57215
1.5611
1.54807
1.53043
1.51206
1.49734
1.48334
1.46642
1.44929
1.44143
1.43535
1.42616
1.41453
1.40198
1.38773
1.37227
1.357
1.34223
1.33142
1.32422
1.31955
1.31437
1.30608
1.29692
1.29117
1.2947
1.30837
1.33572
1.36981
1.39912
1.41543
1.433
1.45166
1.45292
1.44369
1.43291
1.42882
1.42696
1.42277
1.41724
1.41063
1.40226
1.39066
1.37195
1.58504
1.58541
1.5841
1.58072
1.57136
1.55099
1.51691
1.47532
1.43654
1.39355
1.34688
1.32373
1.29057
1.25278
1.22383
1.25605
1.39863
1.59346
1.70209
1.69979
1.67647
1.64146
1.60891
1.58033
1.55656
1.53835
1.52217
1.5026
1.4824
1.46445
1.44576
1.42556
1.41025
1.39579
1.38106
1.36856
1.38306
1.45288
1.57347
1.67748
1.72976
1.72726
1.72577
1.71955
1.70375
1.68471
1.66448
1.64206
1.61916
1.60054
1.58823
1.57744
1.56725
1.5573
1.54503
1.52908
1.51155
1.49322
1.47486
1.45976
1.4481
1.43755
1.42688
1.41725
1.40809
1.39853
1.38711
1.37215
1.35332
1.33986
1.33205
1.32713
1.32369
1.3251
1.33669
1.35215
1.37331
1.40155
1.4284
1.45495
1.47246
1.47993
1.48599
1.48826
1.48714
1.48127
1.46889
1.45688
1.44915
1.44035
1.43014
1.4208
1.4098
1.39739
1.38538
1.36882
1.58192
1.58289
1.58241
1.58049
1.57746
1.56916
1.55115
1.518
1.48406
1.44878
1.41084
1.36785
1.3342
1.32001
1.37647
1.54748
1.71546
1.77304
1.76205
1.72897
1.69096
1.65714
1.62742
1.59935
1.57315
1.54839
1.52446
1.49989
1.47908
1.46027
1.43999
1.42019
1.40397
1.38751
1.36945
1.3515
1.33709
1.32803
1.34916
1.42338
1.54313
1.63065
1.683
1.6978
1.69596
1.68662
1.66569
1.63829
1.6136
1.59503
1.58197
1.56974
1.55746
1.54582
1.53466
1.52292
1.50721
1.48747
1.46975
1.45806
1.44769
1.43492
1.42235
1.41257
1.40486
1.39703
1.38683
1.37258
1.3561
1.34401
1.34067
1.34577
1.3653
1.40447
1.4495
1.48174
1.50571
1.50839
1.51141
1.51421
1.51024
1.50362
1.4993
1.49521
1.48872
1.47981
1.46755
1.45599
1.44634
1.4362
1.42538
1.41521
1.40581
1.39544
1.38581
1.37001
1.58209
1.58258
1.58232
1.58023
1.57682
1.57407
1.56696
1.5492
1.5228
1.4854
1.45175
1.40972
1.41917
1.51752
1.70035
1.83362
1.84913
1.82895
1.79032
1.7493
1.71083
1.67678
1.6454
1.6158
1.58805
1.56113
1.53421
1.50603
1.48021
1.45663
1.43469
1.41504
1.39753
1.38054
1.36133
1.34304
1.32621
1.31146
1.29875
1.29515
1.3218
1.40733
1.51514
1.59349
1.63906
1.6504
1.64603
1.63566
1.61745
1.59698
1.57733
1.56213
1.55051
1.53983
1.52704
1.51161
1.49387
1.47788
1.46654
1.45436
1.4408
1.4287
1.41945
1.41131
1.40337
1.39647
1.3878
1.37729
1.37522
1.38401
1.40902
1.44775
1.49182
1.5363
1.55893
1.55965
1.56114
1.55763
1.55113
1.54364
1.53398
1.5232
1.51143
1.49818
1.48468
1.47163
1.45968
1.4508
1.44249
1.43272
1.42204
1.41154
1.40214
1.39082
1.38149
1.36956
1.57127
1.58437
1.58367
1.57999
1.57632
1.57562
1.57376
1.56686
1.54616
1.52044
1.48992
1.52516
1.6816
1.85334
1.91849
1.90988
1.87789
1.84076
1.80306
1.76546
1.72879
1.69359
1.65978
1.62782
1.5976
1.5687
1.54079
1.51311
1.48744
1.46215
1.43769
1.41468
1.39441
1.37531
1.35548
1.33913
1.32303
1.30713
1.28942
1.27616
1.263
1.26547
1.29402
1.38545
1.4926
1.56143
1.5922
1.60388
1.6014
1.59206
1.57657
1.56011
1.54703
1.53443
1.51928
1.50231
1.48659
1.47315
1.46034
1.44436
1.43114
1.424
1.41868
1.41351
1.40697
1.40469
1.41594
1.44898
1.48171
1.52203
1.55291
1.57668
1.5862
1.5847
1.5782
1.56904
1.5647
1.55916
1.55133
1.54136
1.52939
1.51834
1.50768
1.49559
1.48322
1.47082
1.45861
1.44787
1.43873
1.42972
1.41979
1.40933
1.39993
1.38833
1.37819
1.36746
1.5447
1.57572
1.5736
1.56899
1.56767
1.56998
1.57198
1.56905
1.55667
1.56165
1.65826
1.83892
1.97838
2.0057
1.98578
1.93854
1.89153
1.85011
1.81203
1.7749
1.7383
1.70291
1.66931
1.63766
1.60728
1.57746
1.54759
1.51818
1.49145
1.46598
1.44243
1.41946
1.39625
1.3728
1.35206
1.33553
1.31914
1.3049
1.29007
1.27311
1.25647
1.24143
1.22979
1.23718
1.27676
1.36511
1.46066
1.54262
1.56701
1.56175
1.54906
1.53955
1.52863
1.51516
1.50592
1.49601
1.48259
1.4687
1.45513
1.44138
1.43177
1.42712
1.42295
1.42828
1.45075
1.48976
1.54658
1.59039
1.61493
1.63591
1.63561
1.62913
1.61984
1.60936
1.59309
1.57754
1.56474
1.55247
1.54291
1.53299
1.52203
1.51469
1.50585
1.49363
1.48022
1.4661
1.45561
1.4462
1.43769
1.42973
1.42119
1.41156
1.40111
1.38808
1.37803
1.36753
1.38208
1.51917
1.55142
1.56467
1.57174
1.57096
1.56894
1.57084
1.6077
1.77665
1.99425
2.04994
2.0403
2.01982
1.98591
1.94797
1.90652
1.86306
1.82036
1.77972
1.7415
1.70575
1.67242
1.64143
1.6121
1.58374
1.55527
1.52643
1.49789
1.46854
1.43985
1.41547
1.39743
1.37795
1.35608
1.33816
1.3218
1.30516
1.28662
1.26982
1.25258
1.23386
1.22296
1.21532
1.20764
1.21713
1.26777
1.36005
1.44926
1.49577
1.52393
1.52398
1.51991
1.50912
1.49238
1.47808
1.46647
1.46057
1.45658
1.45127
1.45471
1.46903
1.49964
1.54504
1.5877
1.62339
1.65309
1.65302
1.65061
1.6457
1.63626
1.62534
1.61474
1.60264
1.59032
1.57913
1.56821
1.557
1.54348
1.53002
1.51848
1.51199
1.50402
1.49197
1.47899
1.46311
1.45308
1.44866
1.44318
1.43688
1.4293
1.41916
1.40371
1.38922
1.38387
1.37324
1.11631
1.33285
1.48939
1.55073
1.5577
1.55902
1.58179
1.67615
1.87307
2.064
2.13408
2.12015
2.07068
2.01965
1.98501
1.95256
1.91429
1.8711
1.82721
1.78546
1.74683
1.71115
1.67768
1.64563
1.61412
1.58402
1.55652
1.53105
1.50531
1.47753
1.44905
1.42261
1.39844
1.38304
1.37281
1.3557
1.33461
1.31194
1.2894
1.27116
1.25427
1.2409
1.22581
1.21042
1.20053
1.19312
1.19046
1.20228
1.2513
1.32764
1.41401
1.46233
1.48538
1.48716
1.481
1.47235
1.46772
1.47326
1.49346
1.52879
1.57568
1.6188
1.65377
1.68112
1.69524
1.69993
1.69522
1.68679
1.67635
1.65599
1.63279
1.61837
1.60803
1.59795
1.5871
1.57211
1.55816
1.54859
1.54023
1.52981
1.51991
1.51247
1.50368
1.49268
1.48021
1.46589
1.45408
1.44538
1.43833
1.43184
1.42448
1.41532
1.40434
1.39256
1.38258
1.36899
1.00786
1.08303
1.27733
1.45932
1.51981
1.6282
1.78977
1.95865
2.0779
2.11892
2.11677
2.10649
2.07869
2.03566
1.99424
1.95469
1.91445
1.87375
1.83305
1.79306
1.75457
1.718
1.68339
1.65072
1.61942
1.58884
1.55869
1.52946
1.50177
1.47838
1.4615
1.44142
1.41697
1.3908
1.36521
1.34251
1.32063
1.30973
1.30218
1.28942
1.26947
1.23879
1.21972
1.21505
1.20825
1.19792
1.18496
1.1709
1.16422
1.17753
1.22627
1.3144
1.38734
1.44084
1.45778
1.48716
1.53177
1.58569
1.62823
1.66903
1.70113
1.71038
1.71414
1.71431
1.7121
1.70369
1.69268
1.67732
1.66282
1.65187
1.64068
1.62921
1.61737
1.6042
1.58939
1.57187
1.55303
1.54087
1.53721
1.53426
1.52843
1.52061
1.51134
1.49996
1.4843
1.46648
1.45452
1.44627
1.43873
1.43093
1.42291
1.41512
1.40628
1.39368
1.38391
1.36916
1.00014
1.00453
1.05936
1.254
1.5538
1.80729
1.99093
2.11416
2.17534
2.1523
2.11085
2.0948
2.07793
2.04728
2.00318
1.9559
1.91197
1.87194
1.83403
1.79694
1.76023
1.72402
1.68835
1.65321
1.61899
1.58633
1.55582
1.5286
1.50475
1.48243
1.45744
1.4314
1.4057
1.37963
1.3555
1.3366
1.3231
1.30959
1.29272
1.27482
1.25346
1.23507
1.22149
1.20786
1.19531
1.18416
1.1728
1.16101
1.1514
1.14148
1.14366
1.16958
1.2345
1.34302
1.48323
1.57376
1.64621
1.69961
1.72706
1.75949
1.77396
1.76863
1.75835
1.74354
1.72659
1.70378
1.68316
1.66533
1.6466
1.63933
1.63199
1.62354
1.61654
1.60821
1.59621
1.57846
1.55489
1.53899
1.53184
1.52657
1.52097
1.51401
1.50584
1.49682
1.48688
1.4724
1.4555
1.44449
1.43632
1.42806
1.41946
1.41181
1.40561
1.39965
1.39293
1.37606
1.00014
1.00453
1.05936
1.25401
1.55379
1.80729
1.99094
2.11416
2.17534
2.1523
2.11085
2.0948
2.07793
2.04727
2.00318
1.95589
1.91197
1.87194
1.83403
1.79694
1.76023
1.72402
1.68835
1.65321
1.61899
1.58633
1.55581
1.5286
1.50476
1.48244
1.45745
1.43141
1.40571
1.37963
1.3555
1.33659
1.32308
1.30956
1.2927
1.2748
1.25342
1.23508
1.22153
1.20788
1.19532
1.18415
1.17281
1.161
1.15141
1.14141
1.14379
1.169
1.23405
1.34583
1.48096
1.57993
1.64825
1.69495
1.72558
1.76229
1.77217
1.76814
1.76017
1.74652
1.7261
1.70253
1.68563
1.66832
1.64466
1.6374
1.63136
1.6226
1.61588
1.60735
1.59568
1.57874
1.5541
1.53744
1.53097
1.5261
1.52104
1.51459
1.50647
1.49756
1.48601
1.46899
1.45359
1.4449
1.43727
1.42858
1.41963
1.41213
1.40562
1.39766
1.38881
1.37049
1.00786
1.08303
1.27733
1.45932
1.5198
1.62821
1.78978
1.95865
2.0779
2.11892
2.11677
2.10649
2.07869
2.03566
1.99424
1.95469
1.91444
1.87375
1.83305
1.79306
1.75457
1.718
1.68339
1.65073
1.61942
1.58884
1.5587
1.52947
1.50176
1.47835
1.46148
1.44142
1.41698
1.39081
1.3652
1.3425
1.32061
1.30968
1.30212
1.28938
1.26944
1.23875
1.21976
1.21508
1.20827
1.19792
1.18502
1.17081
1.16434
1.17711
1.22723
1.31199
1.39306
1.43882
1.45304
1.48846
1.53242
1.57914
1.62703
1.6733
1.69646
1.71202
1.71319
1.71287
1.70985
1.7036
1.69607
1.68051
1.65781
1.64713
1.63919
1.62766
1.61722
1.6068
1.59438
1.57581
1.5528
1.53731
1.53199
1.52979
1.52739
1.52132
1.5125
1.50255
1.48951
1.46794
1.44996
1.4451
1.4405
1.43382
1.42525
1.4172
1.41066
1.40229
1.3904
1.36864
1.11631
1.33285
1.48939
1.55073
1.5577
1.55902
1.58179
1.67615
1.87306
2.064
2.13408
2.12015
2.07068
2.01965
1.98501
1.95256
1.91429
1.8711
1.82722
1.78546
1.74683
1.71115
1.67768
1.64563
1.61412
1.58402
1.55652
1.53105
1.50531
1.47754
1.44906
1.42261
1.39843
1.38303
1.3728
1.3557
1.33462
1.31194
1.28938
1.27116
1.25428
1.2409
1.2258
1.21041
1.20052
1.19312
1.19043
1.20227
1.25141
1.32781
1.41337
1.4616
1.48709
1.48644
1.48036
1.47393
1.46852
1.47223
1.49261
1.52986
1.57694
1.61803
1.65337
1.67659
1.69175
1.70067
1.6972
1.68513
1.66999
1.65149
1.63312
1.61849
1.60966
1.60013
1.58915
1.57436
1.55529
1.54402
1.53758
1.53017
1.52246
1.51466
1.50503
1.49308
1.47844
1.46302
1.45139
1.44602
1.44065
1.4326
1.42276
1.41272
1.40432
1.39603
1.38618
1.36738
1.38208
1.51917
1.55142
1.56467
1.57174
1.57096
1.56894
1.57084
1.6077
1.77665
1.99425
2.04994
2.0403
2.01982
1.98591
1.94797
1.90652
1.86306
1.82036
1.77972
1.7415
1.70575
1.67242
1.64143
1.6121
1.58374
1.55527
1.52643
1.4979
1.46854
1.43985
1.41546
1.39742
1.37795
1.35608
1.33817
1.32181
1.30516
1.28663
1.26983
1.25258
1.23385
1.22297
1.21533
1.20762
1.21718
1.26747
1.36068
1.4483
1.49636
1.524
1.52419
1.51983
1.50855
1.49159
1.4785
1.46723
1.46037
1.45622
1.45086
1.4546
1.46859
1.50007
1.5429
1.58382
1.62438
1.65035
1.65206
1.64686
1.64261
1.63669
1.62861
1.61902
1.60617
1.59024
1.57486
1.5608
1.55253
1.54389
1.53269
1.52307
1.51586
1.50743
1.49232
1.47236
1.45929
1.4533
1.44792
1.44184
1.43461
1.42612
1.41546
1.4035
1.39075
1.38241
1.37087
1.5447
1.57572
1.5736
1.56899
1.56767
1.56998
1.57198
1.56905
1.55667
1.56165
1.65826
1.83892
1.97839
2.0057
1.98578
1.93854
1.89153
1.85011
1.81203
1.7749
1.7383
1.70291
1.66931
1.63766
1.60728
1.57746
1.54759
1.51818
1.49145
1.46597
1.44243
1.41946
1.39626
1.37281
1.35206
1.33553
1.31916
1.30492
1.29008
1.27311
1.25646
1.24143
1.22979
1.23718
1.2768
1.36501
1.46042
1.54343
1.56674
1.5614
1.54927
1.53948
1.5281
1.51501
1.50607
1.4959
1.48238
1.46829
1.45458
1.44129
1.43225
1.42775
1.42316
1.42835
1.44994
1.48935
1.5438
1.59085
1.61423
1.63004
1.6366
1.63333
1.62456
1.6104
1.5916
1.57476
1.56207
1.55047
1.54052
1.53341
1.52654
1.51925
1.50919
1.49328
1.47436
1.46256
1.45505
1.44764
1.44041
1.43268
1.42257
1.41042
1.39831
1.38735
1.37924
1.36786
1.57127
1.58437
1.58367
1.57999
1.57632
1.57562
1.57376
1.56686
1.54616
1.52044
1.48992
1.52516
1.6816
1.85334
1.91849
1.90988
1.87789
1.84076
1.80306
1.76546
1.72879
1.69358
1.65978
1.62781
1.5976
1.5687
1.5408
1.51311
1.48744
1.46215
1.43769
1.41468
1.39441
1.37531
1.35548
1.33913
1.32304
1.30714
1.28942
1.27616
1.263
1.26547
1.29402
1.38545
1.4928
1.56098
1.5923
1.60413
1.60146
1.59201
1.57655
1.56001
1.54694
1.5345
1.51939
1.50244
1.48664
1.473
1.45997
1.44429
1.43161
1.42451
1.41911
1.41346
1.40672
1.40448
1.41618
1.44659
1.48461
1.51941
1.55309
1.57424
1.58809
1.58349
1.57417
1.57022
1.56611
1.55908
1.5501
1.54175
1.53311
1.52335
1.51096
1.49509
1.47859
1.46628
1.45713
1.44938
1.44214
1.4345
1.42496
1.41132
1.39714
1.38447
1.3777
1.36898
1.58209
1.58258
1.58232
1.58023
1.57682
1.57407
1.56696
1.5492
1.5228
1.4854
1.45175
1.40972
1.41917
1.51752
1.70035
1.83362
1.84913
1.82894
1.79032
1.7493
1.71082
1.67678
1.6454
1.6158
1.58805
1.56113
1.53421
1.50603
1.48021
1.45663
1.43469
1.41504
1.39753
1.38054
1.36133
1.34304
1.32621
1.31146
1.29875
1.29516
1.32182
1.40733
1.51512
1.59355
1.63906
1.65033
1.64606
1.63571
1.61753
1.59694
1.57728
1.56211
1.55047
1.53985
1.52711
1.51167
1.49384
1.47786
1.46662
1.45474
1.44107
1.42899
1.41979
1.41111
1.40302
1.39623
1.38803
1.37756
1.37607
1.38351
1.40811
1.44598
1.49123
1.52897
1.54792
1.56309
1.56438
1.56114
1.55286
1.54405
1.53516
1.52453
1.5123
1.49596
1.48158
1.47016
1.45987
1.4518
1.44483
1.43654
1.42592
1.41232
1.39921
1.3873
1.38047
1.36966
1.58192
1.58289
1.58241
1.58049
1.57746
1.56916
1.55115
1.518
1.48406
1.44878
1.41084
1.36785
1.3342
1.32001
1.37647
1.54748
1.71546
1.77304
1.76205
1.72897
1.69096
1.65714
1.62742
1.59935
1.57315
1.54839
1.52446
1.49989
1.47908
1.46027
1.43999
1.42019
1.40397
1.38751
1.36945
1.3515
1.33709
1.32803
1.34915
1.42339
1.54314
1.63063
1.68302
1.69781
1.69595
1.6866
1.66568
1.6383
1.61357
1.59502
1.58196
1.56974
1.55746
1.54583
1.53473
1.52298
1.50717
1.48743
1.46991
1.45828
1.44759
1.43479
1.42247
1.41242
1.40448
1.39675
1.38714
1.373
1.35629
1.34366
1.34018
1.3453
1.36341
1.40354
1.44693
1.4782
1.50941
1.516
1.51513
1.51468
1.51054
1.50292
1.49753
1.49313
1.4878
1.48101
1.46897
1.4571
1.44844
1.43907
1.4272
1.41434
1.4034
1.39215
1.38314
1.36978
1.58504
1.58541
1.5841
1.58072
1.57136
1.55099
1.51691
1.47532
1.43654
1.39355
1.34688
1.32373
1.29057
1.25278
1.22383
1.25605
1.39863
1.59346
1.70209
1.69979
1.67647
1.64146
1.60891
1.58033
1.55656
1.53835
1.52217
1.5026
1.4824
1.46445
1.44576
1.42556
1.41025
1.39579
1.38106
1.36856
1.38306
1.45289
1.57343
1.67754
1.72973
1.72721
1.72576
1.71955
1.70373
1.68468
1.66448
1.64206
1.6191
1.60053
1.58823
1.57746
1.56729
1.55733
1.54505
1.52908
1.51148
1.49316
1.47491
1.45976
1.44792
1.43742
1.42696
1.41723
1.40795
1.39852
1.38754
1.37263
1.35345
1.33966
1.33173
1.32707
1.3239
1.32549
1.33736
1.35309
1.37614
1.40506
1.4285
1.45437
1.47175
1.4771
1.48245
1.4874
1.48728
1.48247
1.47002
1.4583
1.45077
1.44166
1.43015
1.41992
1.40779
1.39447
1.38322
1.36959
1.58418
1.58263
1.57856
1.56943
1.54766
1.51439
1.46861
1.4187
1.37113
1.33482
1.29869
1.26618
1.22111
1.19216
1.17838
1.15485
1.16556
1.27794
1.48836
1.61757
1.64067
1.62614
1.59964
1.57453
1.55083
1.534
1.52096
1.50439
1.48626
1.47073
1.45422
1.43464
1.4217
1.41044
1.41759
1.48024
1.60235
1.72824
1.78618
1.79117
1.77945
1.76418
1.74576
1.72626
1.70693
1.68875
1.6717
1.65076
1.62679
1.61044
1.59735
1.58434
1.57217
1.5611
1.54806
1.53038
1.51201
1.4973
1.48325
1.46618
1.44917
1.44158
1.43555
1.42629
1.41459
1.402
1.38778
1.37231
1.3568
1.3418
1.33111
1.32431
1.31978
1.31469
1.30626
1.29705
1.29139
1.29479
1.30688
1.33191
1.36508
1.39509
1.41298
1.43403
1.45377
1.45468
1.44485
1.43447
1.42956
1.42651
1.42188
1.41625
1.40897
1.40015
1.38966
1.37353
1.57748
1.57432
1.56708
1.54448
1.50898
1.46289
1.39876
1.35384
1.32143
1.27963
1.2197
1.17794
1.16872
1.15941
1.13622
1.09668
1.07901
1.0907
1.18093
1.39172
1.54149
1.59862
1.5945
1.579
1.55619
1.53772
1.52525
1.51055
1.49533
1.48429
1.47187
1.45404
1.45455
1.49824
1.61118
1.74975
1.82973
1.84925
1.83995
1.8177
1.78734
1.76159
1.74303
1.72879
1.71375
1.69641
1.67805
1.6563
1.63349
1.61579
1.60163
1.58857
1.57572
1.56272
1.54617
1.52797
1.51102
1.49632
1.48252
1.46903
1.45698
1.44464
1.43201
1.42143
1.41142
1.40078
1.38756
1.37118
1.35924
1.35278
1.34488
1.33506
1.32457
1.31318
1.30149
1.29079
1.28235
1.27769
1.27484
1.26909
1.27106
1.28152
1.30128
1.32797
1.36328
1.39204
1.4043
1.40751
1.40831
1.41214
1.41411
1.41182
1.40828
1.40272
1.39527
1.38081
1.56748
1.56218
1.54242
1.50506
1.45355
1.38557
1.33735
1.29918
1.24875
1.18804
1.14742
1.12874
1.11682
1.09833
1.06857
1.04992
1.04196
1.04024
1.04741
1.12705
1.32709
1.50654
1.58557
1.58329
1.57168
1.55409
1.54188
1.52661
1.51384
1.50472
1.50229
1.52273
1.62294
1.75928
1.8589
1.90495
1.90121
1.88475
1.85054
1.81228
1.78122
1.75859
1.74074
1.72714
1.71346
1.69655
1.67783
1.65872
1.63955
1.62142
1.60508
1.58968
1.57207
1.55888
1.55018
1.53757
1.52159
1.50439
1.48863
1.4764
1.46275
1.44394
1.43212
1.42501
1.4163
1.40642
1.39467
1.38221
1.36988
1.35521
1.3409
1.32799
1.31562
1.30546
1.29792
1.29216
1.28565
1.27967
1.27123
1.26091
1.25158
1.24031
1.23614
1.23976
1.25142
1.27473
1.30524
1.32582
1.33981
1.35289
1.36366
1.37404
1.38132
1.38173
1.37797
1.36631
1.55498
1.53709
1.49993
1.44533
1.37151
1.31157
1.27021
1.21259
1.16125
1.12847
1.09722
1.08179
1.06854
1.05402
1.0427
1.04282
1.03959
1.03798
1.04035
1.04737
1.10925
1.28411
1.51118
1.57342
1.58078
1.57694
1.56683
1.54968
1.53466
1.54312
1.60975
1.74615
1.89858
1.93251
1.92481
1.91564
1.89369
1.86478
1.8366
1.81041
1.79028
1.77182
1.75012
1.73025
1.7121
1.69313
1.67426
1.65808
1.64408
1.63056
1.6152
1.59707
1.57775
1.5579
1.54155
1.52722
1.51383
1.50214
1.48968
1.47554
1.45988
1.44468
1.4306
1.41773
1.40702
1.39717
1.38708
1.37679
1.36579
1.35346
1.34028
1.32714
1.3146
1.3041
1.29533
1.28771
1.28101
1.27489
1.26743
1.25726
1.24346
1.22956
1.22169
1.21784
1.21479
1.21494
1.21855
1.22512
1.23707
1.25093
1.27176
1.29666
1.32157
1.34454
1.34635
1.34488
1.53372
1.4934
1.43278
1.35391
1.2803
1.2279
1.17217
1.11891
1.09246
1.06932
1.05056
1.04432
1.03839
1.03551
1.03626
1.04052
1.04961
1.05749
1.06026
1.06374
1.07145
1.11032
1.2884
1.49451
1.58109
1.58497
1.58209
1.58265
1.60618
1.71102
1.87132
1.96655
1.99499
1.98019
1.94768
1.90624
1.87532
1.84965
1.83352
1.81654
1.79613
1.77107
1.7464
1.7261
1.70854
1.6907
1.6753
1.66139
1.64687
1.63069
1.61107
1.58999
1.57123
1.55381
1.53835
1.52463
1.51315
1.50288
1.49076
1.47695
1.46212
1.44567
1.4297
1.41695
1.40609
1.39609
1.38643
1.3769
1.36691
1.35557
1.34252
1.32829
1.3144
1.30302
1.29473
1.28811
1.28218
1.27635
1.26881
1.25738
1.24154
1.22736
1.21999
1.21561
1.2115
1.20844
1.20491
1.20147
1.19486
1.18427
1.18518
1.1949
1.21433
1.24023
1.25811
1.28093
1.4934
1.41535
1.31902
1.23222
1.19069
1.14499
1.07821
1.06449
1.06843
1.06622
1.06094
1.0588
1.05588
1.05511
1.05738
1.06649
1.08027
1.0891
1.09088
1.09247
1.09007
1.09024
1.11629
1.28802
1.48606
1.555
1.6258
1.71155
1.82122
1.93133
1.99432
2.01486
1.99234
1.95853
1.92351
1.89707
1.87706
1.86157
1.8475
1.82987
1.80748
1.78057
1.75278
1.73082
1.71442
1.70052
1.68689
1.67194
1.6562
1.63907
1.61825
1.59343
1.57153
1.55615
1.54355
1.53246
1.52251
1.51233
1.5003
1.48657
1.47098
1.45307
1.4365
1.42335
1.41238
1.40294
1.39422
1.3855
1.37582
1.3641
1.34995
1.33417
1.31986
1.31003
1.30326
1.2974
1.2917
1.28536
1.27645
1.26278
1.24517
1.23173
1.22503
1.22019
1.21516
1.21001
1.20471
1.19826
1.18826
1.17457
1.1642
1.16233
1.16332
1.16602
1.17189
1.19149
1.39555
1.23307
1.09705
1.02622
1.00623
0.988898
0.975171
0.991594
1.0314
1.06346
1.08652
1.10326
1.10293
1.09793
1.09562
1.10046
1.11251
1.11901
1.11937
1.1191
1.11503
1.10333
1.10117
1.12785
1.26191
1.50772
1.74699
1.95398
2.09748
2.15116
2.11966
2.05957
1.98973
1.94305
1.90856
1.88677
1.87094
1.8576
1.84355
1.82479
1.8017
1.77432
1.74574
1.72329
1.7064
1.6924
1.67845
1.66317
1.64719
1.63016
1.60976
1.58532
1.56268
1.5456
1.5323
1.52125