/*--------------------------------*- C++ -*----------------------------------*\
  =========                 |
  \\      /  F ield         | OpenFOAM: The Open Source CFD Toolbox
   \\    /   O peration     | Website:  https://openfoam.org
    \\  /    A nd           | Version:  7
     \\/     M anipulation  |
\*---------------------------------------------------------------------------*/
FoamFile
{
    version     2.0;
    format      ascii;
    class       volVectorField;
    location    "1.1";
    object      U;
}
// * * * * * * * * * * * * * * * * * * * * * * * * * * * * * * * * * * * * * //

dimensions      [0 1 -1 0 0 0 0];

internalField   nonuniform List<vector> 
4608
(
(3 -5.4633e-18 0)
(3 -5.04785e-17 0)
(3 4.19688e-17 0)
(3 6.31524e-17 0)
(3 1.0803e-16 0)
(3 4.94676e-16 0)
(3 8.25149e-16 0)
(3 5.37581e-16 0)
(3 5.49221e-16 0)
(3 8.46143e-16 0)
(3 9.21368e-16 0)
(3 9.45557e-16 0)
(3 1.06407e-15 0)
(3 5.42101e-16 0)
(3 -9.94197e-17 0)
(3 3.10628e-16 0)
(3 -3.97304e-17 0)
(3 -7.62922e-16 0)
(3 -1.62319e-16 0)
(3 3.07429e-18 0)
(3 4.71756e-16 0)
(3 1.08257e-15 0)
(3 1.79688e-15 0)
(3 1.5731e-15 0)
(3 7.47183e-17 0)
(3 -2.937e-16 0)
(3 -3.2527e-16 0)
(3 -1.76776e-16 0)
(3 5.48791e-16 0)
(3 1.04605e-15 0)
(3 6.99306e-16 0)
(3 1.21046e-16 0)
(3 2.45193e-16 0)
(3 3.20246e-16 0)
(3 2.02748e-16 0)
(3 3.58176e-16 0)
(3 5.07294e-16 0)
(3 3.10363e-16 0)
(3 -2.51585e-16 0)
(3 -1.68139e-17 0)
(3 3.85593e-16 0)
(3 -4.72555e-16 0)
(3 -1.43101e-16 0)
(3 3.44877e-16 0)
(3 1.07987e-15 0)
(3 2.19754e-15 0)
(3 3.2884e-15 0)
(3 1.59564e-15 0)
(3 -1.44772e-16 0)
(3 -3.12783e-16 0)
(3 -3.27727e-16 0)
(3 -2.80891e-16 0)
(3 2.69284e-16 0)
(3 6.39015e-16 0)
(3 7.02998e-16 0)
(3 8.79397e-16 0)
(3 4.81844e-16 0)
(3 3.6682e-16 0)
(3 5.15252e-16 0)
(3 8.81481e-16 0)
(3 8.56939e-16 0)
(3 6.99372e-16 0)
(3 7.7964e-16 0)
(3 1.08e-15 0)
(3 1.21153e-15 0)
(3 6.61051e-16 0)
(3 2.37571e-16 0)
(3 4.98855e-16 0)
(3 8.86418e-16 0)
(3 1.07883e-15 0)
(3 1.99868e-15 0)
(3 1.96402e-15 0)
(3 -2.26252e-16 0)
(3 8.31468e-17 0)
(3 1.58475e-16 0)
(3 -1.35769e-16 0)
(3 6.94443e-17 0)
(3 4.58401e-16 0)
(3 1.13658e-15 0)
(3 2.07407e-15 0)
(3 2.33627e-15 0)
(3 2.59547e-15 0)
(3 2.22621e-15 0)
(3 1.77074e-15 0)
(3 1.52601e-15 0)
(3 1.05127e-15 0)
(3 1.02997e-15 0)
(3 9.9579e-16 0)
(3 7.03702e-16 0)
(3 7.39222e-16 0)
(3 8.74632e-16 0)
(3 6.47659e-16 0)
(3 -7.50267e-17 0)
(3 -2.08624e-17 0)
(3 1.4551e-15 0)
(3 2.41372e-15 0)
(3 2.03526e-16 0)
(3 6.73923e-17 0)
(3 1.24619e-16 0)
(3 3.87682e-16 0)
(3 8.31896e-16 0)
(3 4.50593e-16 0)
(3 1.11838e-16 0)
(3 2.24627e-16 0)
(3 4.63476e-16 0)
(3 6.32254e-16 0)
(3 1.30522e-15 0)
(3 1.49387e-15 0)
(3 8.19183e-16 0)
(3 3.46459e-16 0)
(3 4.30378e-17 0)
(3 -7.03831e-16 0)
(3 -8.23939e-16 0)
(3 -8.92522e-16 0)
(3 -2.29485e-16 0)
(3 7.08289e-16 0)
(3 7.45186e-16 0)
(3 8.57217e-16 0)
(3 1.338e-15 0)
(3 1.8677e-15 0)
(3 5.89209e-17 0)
(3 -1.40542e-16 0)
(3 8.48045e-17 0)
(3 2.95877e-16 0)
(3 1.17329e-16 0)
(3 -2.6513e-16 0)
(3 -2.94154e-16 0)
(3 -4.25213e-16 0)
(3 -1.10441e-16 0)
(3 -9.62233e-17 0)
(3 1.73163e-16 0)
(3 1.6693e-16 0)
(3 5.20116e-16 0)
(3 8.99201e-16 0)
(3 4.78406e-16 0)
(3 -5.75005e-16 0)
(3 -2.00561e-15 0)
(3 -2.2625e-15 0)
(3 -1.49811e-15 0)
(3 -8.42924e-17 0)
(3 1.41095e-15 0)
(3 2.1012e-15 0)
(3 1.12716e-15 0)
(3 1.90586e-15 0)
(3 -3.47133e-17 0)
(3 5.22025e-17 0)
(3 1.04578e-16 0)
(3 -7.49862e-17 0)
(3 -7.49502e-16 0)
(3 -7.23771e-16 0)
(3 -4.02157e-16 0)
(3 6.50448e-17 0)
(3 9.47906e-17 0)
(3 -5.48966e-16 0)
(3 -8.52375e-16 0)
(3 -5.52608e-16 0)
(3 2.83647e-17 0)
(3 1.12575e-15 0)
(3 1.22137e-15 0)
(3 7.85642e-17 0)
(3 -1.2667e-15 0)
(3 -1.72536e-15 0)
(3 -1.66777e-15 0)
(3 -7.72972e-16 0)
(3 5.79049e-16 0)
(3 1.44771e-15 0)
(3 1.0763e-15 0)
(3 1.97745e-16 0)
(3 -1.13073e-16 0)
(3 4.89427e-17 0)
(3 3.70744e-17 0)
(3 -1.77022e-16 0)
(3 -6.85284e-16 0)
(3 -1.05197e-15 0)
(3 -1.0431e-15 0)
(3 -8.96962e-16 0)
(3 -1.14741e-15 0)
(3 -1.26693e-15 0)
(3 -1.70807e-15 0)
(3 -1.86266e-15 0)
(3 -1.8898e-15 0)
(3 -1.02913e-15 0)
(3 -3.05357e-16 0)
(3 -1.57502e-16 0)
(3 -5.28127e-16 0)
(3 -8.94794e-16 0)
(3 -1.26194e-15 0)
(3 -2.15163e-16 0)
(3 6.69636e-17 0)
(3 -3.77988e-16 0)
(3 -4.91488e-16 0)
(3 -8.77335e-16 0)
(3 -1.12378e-16 0)
(3 8.00435e-17 0)
(3 -2.14342e-16 0)
(3 -6.27737e-16 0)
(3 -5.60774e-16 0)
(3 -8.33022e-16 0)
(3 -6.64702e-16 0)
(3 -8.26572e-16 0)
(3 -1.00301e-15 0)
(3 -3.51359e-16 0)
(3 -1.11524e-15 0)
(3 -1.43368e-15 0)
(3 -1.76944e-15 0)
(3 -1.88229e-15 0)
(3 -1.67746e-15 0)
(3 -1.08966e-15 0)
(3 -1.60366e-16 0)
(3 7.0103e-16 0)
(3 1.59609e-15 0)
(3 9.32524e-16 0)
(3 3.53563e-16 0)
(3 -1.36369e-16 0)
(3 -4.33066e-16 0)
(3 -7.1827e-16 0)
(3 8.10357e-17 0)
(3 1.20606e-16 0)
(3 4.59287e-17 0)
(3 1.74579e-16 0)
(3 6.40841e-16 0)
(3 9.23539e-16 0)
(3 6.09965e-16 0)
(3 -2.4646e-17 0)
(3 -4.69857e-16 0)
(3 -3.39019e-16 0)
(3 2.58602e-16 0)
(3 7.41098e-18 0)
(3 -8.13461e-16 0)
(3 -1.03738e-15 0)
(3 -7.61118e-16 0)
(3 -1.30365e-15 0)
(3 -1.08411e-15 0)
(3 -6.9712e-16 0)
(3 -5.36599e-16 0)
(3 -9.36686e-16 0)
(3 -4.3774e-16 0)
(3 -1.46365e-16 0)
(3 -7.99428e-16 0)
(3 -1.054e-15 0)
(3 3.84396e-17 0)
(3 -2.36429e-16 0)
(3 3.25289e-16 0)
(3 8.14723e-16 0)
(3 9.24113e-16 0)
(3 9.0261e-16 0)
(3 4.02907e-16 0)
(3 -3.32288e-17 0)
(3 1.72958e-16 0)
(3 4.79542e-16 0)
(3 1.35882e-15 0)
(3 1.27495e-15 0)
(3 3.85484e-16 0)
(3 -5.96382e-16 0)
(3 -1.58456e-15 0)
(3 -1.71337e-15 0)
(3 -2.04573e-15 0)
(3 -2.28347e-15 0)
(3 -2.55568e-15 0)
(3 -2.27131e-15 0)
(3 -1.49911e-15 0)
(3 -1.38111e-15 0)
(3 -1.19343e-15 0)
(3 -1.68091e-15 0)
(3 6.96427e-17 0)
(3 1.74362e-17 0)
(3 -3.35371e-17 0)
(3 -1.67535e-16 0)
(3 -2.27842e-16 0)
(3 -1.61449e-16 0)
(3 -1.05601e-16 0)
(3 3.03448e-16 0)
(3 6.50916e-16 0)
(3 1.38233e-15 0)
(3 1.88859e-15 0)
(3 2.59397e-15 0)
(3 1.67802e-15 0)
(3 6.91084e-16 0)
(3 -4.27345e-16 0)
(3 -7.79795e-16 0)
(3 -1.2951e-15 0)
(3 -1.63613e-15 0)
(3 -1.60608e-15 0)
(3 -1.67344e-15 0)
(3 -1.94612e-15 0)
(3 -1.79634e-15 0)
(3 -5.76588e-16 0)
(3 4.18923e-16 0)
(3 -1.19662e-17 0)
(3 7.48473e-17 0)
(3 -3.956e-16 0)
(3 -3.90767e-16 0)
(3 -4.12904e-16 0)
(3 -5.42571e-16 0)
(3 -7.03073e-16 0)
(3 -4.08932e-16 0)
(3 1.32191e-17 0)
(3 1.61335e-16 0)
(3 -1.52981e-16 0)
(3 3.65481e-17 0)
(3 2.86354e-17 0)
(3 4.1662e-16 0)
(3 6.59891e-16 0)
(3 5.98985e-16 0)
(3 7.73627e-16 0)
(3 2.48964e-16 0)
(3 -2.26191e-16 0)
(3 -4.75842e-16 0)
(3 -5.05838e-16 0)
(3 -6.83261e-17 0)
(3 1.9533e-16 0)
(3 7.85073e-16 0)
(3 -4.55471e-17 0)
(3 -1.18066e-16 0)
(3 -9.83013e-17 0)
(3 1.05811e-16 0)
(3 -5.79769e-19 0)
(3 -7.07108e-16 0)
(3 -1.0018e-15 0)
(3 -9.64627e-16 0)
(3 -2.87741e-16 0)
(3 6.15888e-17 0)
(3 -6.03905e-17 0)
(3 -1.62372e-16 0)
(3 1.95717e-16 0)
(3 1.05398e-15 0)
(3 1.24736e-15 0)
(3 1.60732e-15 0)
(3 1.90518e-15 0)
(3 2.03168e-15 0)
(3 2.12205e-15 0)
(3 1.86268e-15 0)
(3 1.75819e-15 0)
(3 1.44696e-15 0)
(3 7.03729e-16 0)
(3 -7.90407e-16 0)
(3 -6.35256e-17 0)
(3 -3.07929e-17 0)
(3 5.74294e-18 0)
(3 2.11742e-17 0)
(3 2.36104e-16 0)
(3 1.39967e-16 0)
(3 1.54624e-16 0)
(3 1.7976e-16 0)
(3 3.24731e-16 0)
(3 9.01483e-16 0)
(3 1.19212e-15 0)
(3 8.24108e-16 0)
(3 1.03638e-15 0)
(3 1.38969e-15 0)
(3 1.50516e-15 0)
(3 1.85649e-15 0)
(3 2.0751e-15 0)
(3 2.05442e-15 0)
(3 2.06694e-15 0)
(3 2.19796e-15 0)
(3 1.71973e-15 0)
(3 2.2885e-16 0)
(3 -9.14611e-16 0)
(3 -2.07059e-15 0)
(3 3.2601e-17 0)
(3 2.01575e-16 0)
(3 2.95404e-16 0)
(3 2.64e-16 0)
(3 2.21921e-16 0)
(3 2.58108e-16 0)
(3 6.64564e-17 0)
(3 -2.13578e-16 0)
(3 -2.13215e-16 0)
(3 -1.35865e-17 0)
(3 -8.59239e-17 0)
(3 -2.00467e-16 0)
(3 -2.58841e-16 0)
(3 8.0006e-17 0)
(3 7.45762e-16 0)
(3 1.05022e-15 0)
(3 1.22999e-15 0)
(3 1.11017e-15 0)
(3 8.32545e-16 0)
(3 9.8917e-16 0)
(3 8.7661e-16 0)
(3 5.83737e-16 0)
(3 -3.72706e-17 0)
(3 -4.64666e-16 0)
(3 5.11543e-17 0)
(3 -3.34559e-17 0)
(3 2.26514e-16 0)
(3 1.24143e-16 0)
(3 -9.28122e-17 0)
(3 -3.17362e-16 0)
(3 -4.282e-16 0)
(3 -3.0383e-16 0)
(3 -3.3303e-16 0)
(3 -5.58486e-16 0)
(3 -6.22647e-16 0)
(3 -3.2656e-16 0)
(3 -2.74342e-16 0)
(3 2.05746e-16 0)
(3 1.48053e-15 0)
(3 1.42628e-15 0)
(3 9.26831e-16 0)
(3 2.79469e-16 0)
(3 5.44023e-16 0)
(3 3.20112e-16 0)
(3 -8.82965e-17 0)
(3 -3.11738e-16 0)
(3 1.39679e-16 0)
(3 9.59856e-16 0)
(3 -1.05899e-16 0)
(3 -1.35155e-16 0)
(3 -4.30782e-17 0)
(3 -3.99698e-16 0)
(3 -6.43753e-16 0)
(3 2.6915e-17 0)
(3 8.48683e-16 0)
(3 1.2169e-15 0)
(3 6.29222e-16 0)
(3 1.78675e-16 0)
(3 4.2433e-17 0)
(3 1.682e-16 0)
(3 -8.85845e-17 0)
(3 -5.15943e-16 0)
(3 9.86614e-17 0)
(3 3.77403e-16 0)
(3 1.38122e-16 0)
(3 2.60312e-16 0)
(3 9.24877e-16 0)
(3 7.89043e-16 0)
(3 1.77566e-17 0)
(3 -4.32386e-16 0)
(3 1.41186e-15 0)
(3 3.22438e-15 0)
(3 1.52325e-16 0)
(3 3.41787e-16 0)
(3 1.10798e-16 0)
(3 -3.39985e-16 0)
(3 -7.58863e-16 0)
(3 -2.23385e-16 0)
(3 1.59038e-16 0)
(3 1.10589e-16 0)
(3 -5.97802e-17 0)
(3 3.49372e-17 0)
(3 -1.42214e-17 0)
(3 -1.61506e-16 0)
(3 -3.92357e-16 0)
(3 -8.92902e-16 0)
(3 -1.442e-15 0)
(3 -9.95882e-16 0)
(3 1.19569e-15 0)
(3 1.77291e-15 0)
(3 1.43061e-15 0)
(3 1.341e-15 0)
(3 1.43266e-15 0)
(3 1.55693e-15 0)
(3 2.11939e-15 0)
(3 2.29314e-15 0)
(3 4.04524e-17 0)
(3 6.61437e-17 0)
(3 -1.23993e-16 0)
(3 2.87731e-17 0)
(3 -2.04173e-16 0)
(3 -6.61008e-16 0)
(3 -6.84067e-16 0)
(3 -6.35093e-16 0)
(3 -7.73652e-16 0)
(3 -4.21769e-16 0)
(3 -3.7464e-16 0)
(3 -3.63069e-16 0)
(3 -3.5551e-16 0)
(3 -5.27366e-16 0)
(3 -7.20572e-16 0)
(3 -2.40312e-16 0)
(3 1.6283e-15 0)
(3 2.34676e-15 0)
(3 1.68225e-15 0)
(3 1.0326e-15 0)
(3 1.10389e-15 0)
(3 1.79392e-15 0)
(3 1.78182e-15 0)
(3 1.33805e-15 0)
(3 -8.91722e-17 0)
(3 -4.82161e-16 0)
(3 -6.4057e-16 0)
(3 -4.552e-16 0)
(3 1.55918e-17 0)
(3 -1.78153e-16 0)
(3 -7.08245e-17 0)
(3 -2.17688e-16 0)
(3 -6.0251e-16 0)
(3 -5.07089e-16 0)
(3 -4.45221e-16 0)
(3 -4.44046e-16 0)
(3 -4.23561e-16 0)
(3 -3.37057e-16 0)
(3 -9.73095e-17 0)
(3 7.4745e-17 0)
(3 1.20257e-15 0)
(3 1.65906e-15 0)
(3 2.08501e-15 0)
(3 1.30562e-15 0)
(3 4.13195e-16 0)
(3 5.65633e-16 0)
(3 9.32928e-16 0)
(3 1.06569e-15 0)
(3 -1.20458e-16 0)
(3 -2.38316e-16 0)
(3 -2.21465e-16 0)
(3 -2.11129e-16 0)
(3 -2.54681e-16 0)
(3 1.31293e-17 0)
(3 2.88579e-16 0)
(3 2.10362e-16 0)
(3 3.17933e-16 0)
(3 2.98039e-16 0)
(3 2.97873e-16 0)
(3 2.46622e-16 0)
(3 4.7374e-16 0)
(3 6.56965e-16 0)
(3 8.56194e-16 0)
(3 7.29395e-16 0)
(3 1.08354e-15 0)
(3 1.31271e-15 0)
(3 1.10934e-15 0)
(3 3.4773e-16 0)
(3 -2.80328e-16 0)
(3 -6.18455e-16 0)
(3 -6.58982e-16 0)
(3 -1.76168e-15 0)
(3 -7.28764e-17 0)
(3 -1.72651e-16 0)
(3 -1.12125e-16 0)
(3 6.39773e-17 0)
(3 2.54067e-16 0)
(3 2.21874e-16 0)
(3 1.19898e-17 0)
(3 -2.51153e-17 0)
(3 -8.96714e-17 0)
(3 -3.58448e-16 0)
(3 -4.74639e-16 0)
(3 -1.64227e-16 0)
(3 1.74595e-16 0)
(3 3.87557e-16 0)
(3 8.70694e-16 0)
(3 6.5461e-16 0)
(3 5.17892e-17 0)
(3 7.56729e-17 0)
(3 -1.40857e-15 0)
(3 -2.27298e-15 0)
(3 -1.89545e-15 0)
(3 -9.63831e-16 0)
(3 -9.01913e-16 0)
(3 -2.16015e-15 0)
(3 -5.50241e-17 0)
(3 -1.17842e-16 0)
(3 9.09015e-17 0)
(3 4.30129e-16 0)
(3 9.66886e-16 0)
(3 6.65315e-16 0)
(3 2.35461e-16 0)
(3 3.23178e-16 0)
(3 3.6769e-16 0)
(3 -3.28776e-16 0)
(3 -5.50164e-16 0)
(3 -3.29403e-16 0)
(3 -2.11526e-16 0)
(3 2.45305e-16 0)
(3 1.269e-15 0)
(3 -1.87946e-16 0)
(3 -2.74872e-15 0)
(3 -3.14004e-15 0)
(3 -2.90083e-15 0)
(3 -3.25906e-15 0)
(3 -2.25223e-15 0)
(3 -1.38099e-15 0)
(3 -1.96059e-15 0)
(3 -2.65852e-15 0)
(3 1.24312e-16 0)
(3 6.7137e-16 0)
(3 7.52453e-16 0)
(3 5.91281e-16 0)
(3 4.67938e-16 0)
(3 6.884e-16 0)
(3 4.10686e-16 0)
(3 8.57332e-16 0)
(3 1.48181e-15 0)
(3 1.17366e-15 0)
(3 6.29017e-16 0)
(3 -2.72972e-16 0)
(3 -3.78331e-16 0)
(3 -1.1667e-16 0)
(3 4.87772e-17 0)
(3 -2.41376e-16 0)
(3 -2.38651e-15 0)
(3 -2.64959e-15 0)
(3 -2.56107e-15 0)
(3 -2.25141e-15 0)
(3 -2.23208e-15 0)
(3 -2.89652e-15 0)
(3 -3.19943e-15 0)
(3 -2.98038e-15 0)
(3 4.14222e-16 0)
(3 2.06461e-16 0)
(3 2.52048e-16 0)
(3 -5.95089e-17 0)
(3 -8.62615e-17 0)
(3 4.95183e-16 0)
(3 4.4414e-16 0)
(3 4.78829e-16 0)
(3 2.65336e-16 0)
(3 4.64036e-16 0)
(3 6.5167e-16 0)
(3 5.56187e-16 0)
(3 1.23284e-16 0)
(3 -3.85602e-16 0)
(3 -9.88993e-16 0)
(3 -1.08524e-15 0)
(3 -2.86897e-15 0)
(3 -3.14378e-15 0)
(3 -2.91962e-15 0)
(3 -2.00653e-15 0)
(3 -1.42546e-15 0)
(3 -7.809e-16 0)
(3 -5.69757e-16 0)
(3 -2.08667e-16 0)
(3 -5.74123e-17 0)
(3 -2.31071e-16 0)
(3 -6.25635e-17 0)
(3 -9.42307e-17 0)
(3 2.91036e-16 0)
(3 5.64278e-16 0)
(3 6.1181e-16 0)
(3 2.27545e-16 0)
(3 -5.14004e-16 0)
(3 -9.23737e-16 0)
(3 -2.85846e-16 0)
(3 4.50421e-16 0)
(3 4.57078e-16 0)
(3 1.15803e-16 0)
(3 -3.09643e-16 0)
(3 -1.02011e-15 0)
(3 -1.63237e-15 0)
(3 -3.42058e-15 0)
(3 -3.96303e-15 0)
(3 -1.88086e-15 0)
(3 1.96226e-16 0)
(3 -1.73458e-16 0)
(3 -2.3536e-16 0)
(3 4.32505e-16 0)
(3 -1.16201e-16 0)
(3 6.17903e-17 0)
(3 5.10584e-17 0)
(3 1.90651e-16 0)
(3 1.12443e-16 0)
(3 -2.17581e-16 0)
(3 -5.25721e-16 0)
(3 -2.18769e-16 0)
(3 -2.72929e-16 0)
(3 -8.60795e-16 0)
(3 -1.63626e-15 0)
(3 -1.19521e-15 0)
(3 -6.4876e-16 0)
(3 -6.34269e-16 0)
(3 9.30029e-17 0)
(3 5.87886e-16 0)
(3 2.09669e-16 0)
(3 -3.26168e-16 0)
(3 -5.6951e-16 0)
(3 -9.92744e-16 0)
(3 -1.3589e-15 0)
(3 -2.06871e-15 0)
(3 -2.4215e-15 0)
(3 -1.53605e-15 0)
(3 -1.36363e-16 0)
(3 -5.06811e-16 0)
(3 -1.1887e-16 0)
(3 -8.67058e-17 0)
(3 -5.80953e-16 0)
(3 -7.61522e-16 0)
(3 -5.4458e-16 0)
(3 -2.12543e-16 0)
(3 -2.76262e-17 0)
(3 1.43145e-16 0)
(3 2.96178e-17 0)
(3 -1.328e-16 0)
(3 -8.09442e-17 0)
(3 -1.56245e-17 0)
(3 5.99638e-16 0)
(3 1.27901e-15 0)
(3 1.30385e-15 0)
(3 2.73289e-15 0)
(3 4.49269e-15 0)
(3 4.33009e-15 0)
(3 1.82539e-15 0)
(3 -2.8319e-16 0)
(3 -7.32173e-16 0)
(3 -9.70474e-16 0)
(3 -2.70368e-17 0)
(3 -2.67483e-19 0)
(3 4.13959e-17 0)
(3 -2.83805e-17 0)
(3 -8.32033e-18 0)
(3 3.65097e-16 0)
(3 1.23742e-15 0)
(3 1.35069e-15 0)
(3 6.7204e-16 0)
(3 1.1458e-15 0)
(3 1.79172e-15 0)
(3 1.41292e-15 0)
(3 1.01494e-15 0)
(3 7.04607e-16 0)
(3 2.75196e-16 0)
(3 8.76085e-16 0)
(3 2.90795e-15 0)
(3 4.85363e-15 0)
(3 5.65758e-15 0)
(3 4.73688e-15 0)
(3 2.72281e-15 0)
(3 7.02399e-16 0)
(3 7.88534e-16 0)
(3 -1.67254e-15 0)
(3 2.73681e-16 0)
(3 6.82569e-16 0)
(3 2.74126e-16 0)
(3 2.17245e-16 0)
(3 3.33174e-16 0)
(3 1.66462e-16 0)
(3 2.60587e-16 0)
(3 4.84575e-16 0)
(3 8.30411e-16 0)
(3 1.04218e-15 0)
(3 1.10035e-15 0)
(3 8.29854e-16 0)
(3 5.16198e-16 0)
(3 6.12252e-16 0)
(3 5.57951e-16 0)
(3 5.14021e-16 0)
(3 2.76803e-15 0)
(3 4.68111e-15 0)
(3 4.33664e-15 0)
(3 2.20447e-15 0)
(3 1.8817e-15 0)
(3 -2.72642e-16 0)
(3 -2.16802e-15 0)
(3 -9.58904e-16 0)
(3 8.81774e-17 0)
(3 5.71222e-17 0)
(3 4.60006e-17 0)
(3 3.00517e-17 0)
(3 -4.17049e-17 0)
(3 -2.15382e-16 0)
(3 -3.37067e-16 0)
(3 -1.66185e-16 0)
(3 5.9669e-16 0)
(3 8.3589e-16 0)
(3 3.69087e-16 0)
(3 1.36675e-16 0)
(3 1.78749e-16 0)
(3 5.71022e-16 0)
(3 6.17003e-16 0)
(3 4.79723e-16 0)
(3 1.14691e-15 0)
(3 1.72713e-15 0)
(3 1.97235e-15 0)
(3 2.4833e-15 0)
(3 2.69872e-15 0)
(3 1.42031e-15 0)
(3 1.28782e-16 0)
(3 4.87291e-16 0)
(2.93362 0.0132948 0)
(2.84357 0.0817941 0)
(2.75952 0.13724 0)
(2.6687 0.236848 0)
(2.56925 0.358345 0)
(2.51668 0.433534 0)
(2.41444 0.548513 0)
(2.35314 0.628555 0)
(2.31093 0.724141 0)
(2.25492 0.797679 0)
(2.24926 0.852471 0)
(2.28313 0.886439 0)
(2.32746 0.894525 0)
(2.33643 0.890124 0)
(2.34478 0.884115 0)
(2.34576 0.86735 0)
(2.34444 0.859079 0)
(2.34308 0.849773 0)
(2.34508 0.84744 0)
(2.34583 0.849401 0)
(2.34338 0.849353 0)
(2.33927 0.850142 0)
(2.33582 0.850862 0)
(2.3335 0.849845 0)
(2.99877 0.00118515 0)
(2.98905 0.0129523 0)
(2.96182 0.0496982 0)
(2.90321 0.129485 0)
(2.79953 0.277902 0)
(2.69225 0.455124 0)
(2.51678 0.694019 0)
(2.40067 0.89415 0)
(2.21475 1.0746 0)
(2.16365 1.1036 0)
(2.15217 1.03292 0)
(2.18262 0.997089 0)
(2.25046 0.95233 0)
(2.30216 0.900503 0)
(2.33192 0.853923 0)
(2.35055 0.833271 0)
(2.35219 0.835381 0)
(2.35618 0.83646 0)
(2.357 0.837418 0)
(2.35544 0.840665 0)
(2.35183 0.845278 0)
(2.34482 0.847681 0)
(2.33941 0.850727 0)
(2.33634 0.851435 0)
(3 -4.95329e-06 0)
(2.99999 1.22035e-05 0)
(3.00002 1.23966e-05 0)
(2.99992 4.23411e-05 0)
(2.99857 0.00200089 0)
(2.99195 0.0114431 0)
(2.9633 0.0567392 0)
(2.90456 0.166899 0)
(2.76292 0.420069 0)
(2.58989 0.709291 0)
(2.46128 0.840459 0)
(2.33686 0.933306 0)
(2.289 0.914548 0)
(2.2976 0.900273 0)
(2.31501 0.883908 0)
(2.34853 0.869083 0)
(2.35352 0.865945 0)
(2.35849 0.844956 0)
(2.36168 0.839319 0)
(2.36084 0.838895 0)
(2.35898 0.841206 0)
(2.35251 0.844624 0)
(2.34746 0.848358 0)
(2.34452 0.850284 0)
(3 -5.56538e-08 0)
(3 -5.72105e-08 0)
(3 -8.79743e-07 0)
(3 -1.62686e-06 0)
(3.00001 -9.13792e-06 0)
(2.99999 2.10986e-05 0)
(3.00001 -5.12215e-05 0)
(2.99933 0.00114449 0)
(2.98917 0.0180546 0)
(2.89794 0.168793 0)
(2.78005 0.407574 0)
(2.41502 0.813176 0)
(2.33906 0.884349 0)
(2.28506 0.945134 0)
(2.29037 0.945337 0)
(2.30875 0.922078 0)
(2.33495 0.885851 0)
(2.34314 0.859988 0)
(2.35386 0.843151 0)
(2.35962 0.839354 0)
(2.36336 0.84116 0)
(2.36132 0.844304 0)
(2.35816 0.846785 0)
(2.35306 0.849186 0)
(3 1.50923e-10 0)
(3 -3.11121e-09 0)
(3 -2.08361e-08 0)
(3 -7.83151e-08 0)
(3 -7.66698e-07 0)
(3 -7.69857e-07 0)
(3 -1.46909e-06 0)
(3 -2.20862e-06 0)
(3.00004 -8.74664e-05 0)
(2.99931 0.000913905 0)
(2.98716 0.0186644 0)
(2.85241 0.188483 0)
(2.69408 0.43738 0)
(2.40597 0.762815 0)
(2.29254 0.908788 0)
(2.29774 0.891061 0)
(2.31049 0.883896 0)
(2.3207 0.877012 0)
(2.33322 0.869093 0)
(2.34993 0.853382 0)
(2.3564 0.849399 0)
(2.35741 0.849994 0)
(2.35798 0.849429 0)
(2.35336 0.853572 0)
(3 9.48104e-13 0)
(3 1.1942e-12 0)
(3 8.89435e-11 0)
(3 7.17485e-11 0)
(3 -2.94213e-10 0)
(3 -6.56799e-08 0)
(3 -6.08837e-08 0)
(3 -2.13511e-07 0)
(3 -6.49932e-06 0)
(3 -6.20944e-06 0)
(3.00003 -7.30628e-05 0)
(2.99832 0.0023051 0)
(2.97691 0.0333817 0)
(2.81306 0.229795 0)
(2.52863 0.578013 0)
(2.42706 0.742123 0)
(2.29005 0.893125 0)
(2.28315 0.9 0)
(2.30077 0.887755 0)
(2.32331 0.860726 0)
(2.33184 0.853015 0)
(2.34257 0.850177 0)
(2.34681 0.845126 0)
(2.35134 0.841371 0)
(3 -1.02301e-14 0)
(3 9.61813e-13 0)
(3 2.02676e-11 0)
(3 2.63639e-11 0)
(3 3.15329e-11 0)
(3 -3.26042e-11 0)
(3 -7.68428e-10 0)
(3 -1.06923e-09 0)
(3 -2.40156e-08 0)
(3 -4.23912e-07 0)
(3 -7.76544e-06 0)
(3 -4.89742e-06 0)
(3 -3.67228e-05 0)
(2.99491 0.00697425 0)
(2.93977 0.0750052 0)
(2.76599 0.318029 0)
(2.41667 0.727066 0)
(2.37986 0.786572 0)
(2.322 0.842001 0)
(2.31906 0.844784 0)
(2.32354 0.845796 0)
(2.32889 0.8414 0)
(2.33698 0.835409 0)
(2.34262 0.835604 0)
(3 -7.34427e-16 0)
(3 -1.60693e-14 0)
(3 1.1546e-13 0)
(3 2.01767e-12 0)
(3 6.95749e-12 0)
(3 6.91224e-12 0)
(3 5.14767e-12 0)
(3 2.38905e-12 0)
(3 5.91386e-11 0)
(3 5.54366e-11 0)
(3 -3.91733e-08 0)
(3 -5.72752e-07 0)
(3 -2.43557e-06 0)
(3.00001 -2.60349e-05 0)
(2.99969 0.000536643 0)
(2.98663 0.0184754 0)
(2.86387 0.171877 0)
(2.68854 0.447582 0)
(2.34612 0.834747 0)
(2.30137 0.85725 0)
(2.31214 0.845264 0)
(2.30655 0.845149 0)
(2.31261 0.840609 0)
(2.32651 0.839095 0)
(3 -3.91929e-16 0)
(3 -1.53677e-15 0)
(3 -2.83149e-17 0)
(3 7.84692e-15 0)
(3 7.94126e-14 0)
(3 7.91565e-13 0)
(3 9.92244e-13 0)
(3 1.25426e-12 0)
(3 1.53007e-11 0)
(3 1.46673e-11 0)
(3 2.81467e-10 0)
(3 -7.76652e-09 0)
(3 -3.56318e-08 0)
(3 -2.988e-06 0)
(3 -4.34482e-06 0)
(3 -1.11728e-05 0)
(2.99727 0.00464215 0)
(2.96047 0.0599226 0)
(2.72582 0.364281 0)
(2.58844 0.592181 0)
(2.35416 0.816764 0)
(2.29017 0.879674 0)
(2.28903 0.859315 0)
(2.31048 0.845995 0)
(3 -9.61368e-16 0)
(3 1.32693e-17 0)
(3 6.08402e-16 0)
(3 1.31872e-15 0)
(3 7.11948e-16 0)
(3 8.21559e-15 0)
(3 2.3225e-14 0)
(3 8.66867e-14 0)
(3 2.58168e-13 0)
(3 2.4138e-12 0)
(3 1.95019e-11 0)
(3 1.68055e-11 0)
(3 1.17483e-10 0)
(3 -2.17771e-08 0)
(3 -1.00041e-06 0)
(3 -1.03434e-06 0)
(3 -9.66927e-06 0)
(2.99953 0.000704352 0)
(2.98058 0.0297942 0)
(2.90059 0.178278 0)
(2.56007 0.594683 0)
(2.44192 0.744351 0)
(2.35402 0.799267 0)
(2.33716 0.835319 0)
(3 -1.41838e-15 0)
(3 -1.56133e-16 0)
(3 -3.46648e-16 0)
(3 4.32757e-17 0)
(3 4.13789e-16 0)
(3 2.57459e-16 0)
(3 2.62028e-16 0)
(3 2.39937e-15 0)
(3 3.21722e-15 0)
(3 1.36193e-14 0)
(3 2.85956e-13 0)
(3 4.16275e-12 0)
(3 1.99689e-11 0)
(3 8.82808e-11 0)
(3 -2.06462e-08 0)
(3 -1.07567e-07 0)
(3 -1.51976e-06 0)
(3 -5.1485e-06 0)
(2.99992 0.000161098 0)
(2.99588 0.0075887 0)
(2.9092 0.131403 0)
(2.77855 0.376915 0)
(2.42926 0.757107 0)
(2.32716 0.885884 0)
(3 7.01774e-16 0)
(3 9.21466e-16 0)
(3 1.14603e-15 0)
(3 1.1353e-15 0)
(3 7.66334e-16 0)
(3 4.71249e-16 0)
(3 7.61503e-16 0)
(3 2.14374e-15 0)
(3 2.01718e-15 0)
(3 2.83108e-15 0)
(3 5.56019e-15 0)
(3 2.65159e-13 0)
(3 2.13897e-12 0)
(3 6.69836e-12 0)
(3 1.04564e-10 0)
(3 -2.23109e-09 0)
(3 -1.99911e-08 0)
(3 -1.3643e-06 0)
(3 -1.19506e-06 0)
(3 -4.93138e-06 0)
(2.99747 0.00472171 0)
(2.97431 0.0547659 0)
(2.77226 0.336477 0)
(2.51973 0.668547 0)
(3 7.35587e-16 0)
(3 -3.20378e-16 0)
(3 -7.42655e-16 0)
(3 -3.98724e-16 0)
(3 7.59309e-17 0)
(3 1.07645e-15 0)
(3 1.36018e-15 0)
(3 7.71465e-16 0)
(3 8.63709e-16 0)
(3 2.1428e-15 0)
(3 2.71365e-15 0)
(3 6.58679e-15 0)
(3 2.83828e-14 0)
(3 7.59454e-13 0)
(3 1.68951e-11 0)
(3 2.94377e-11 0)
(3 -3.06187e-11 0)
(3 -3.08641e-08 0)
(3 -5.55798e-07 0)
(3 -3.99598e-07 0)
(3 -2.67536e-06 0)
(2.99943 0.0011734 0)
(2.97689 0.0388948 0)
(2.84361 0.241699 0)
(3 -1.71701e-15 0)
(3 -1.86189e-15 0)
(3 -1.48432e-15 0)
(3 -7.78164e-16 0)
(3 3.4994e-16 0)
(3 2.58485e-15 0)
(3 2.67362e-15 0)
(3 1.5773e-15 0)
(3 9.01986e-16 0)
(3 1.06991e-15 0)
(3 2.89964e-15 0)
(3 4.48168e-15 0)
(3 5.06005e-15 0)
(3 4.88091e-15 0)
(3 1.00894e-12 0)
(3 6.87802e-12 0)
(3 5.56171e-12 0)
(3 -1.60681e-11 0)
(3 -2.2529e-08 0)
(3 -1.16657e-07 0)
(3 -2.64548e-07 0)
(3 -1.25176e-06 0)
(2.99954 0.000943718 0)
(2.99158 0.0160912 0)
(3 -1.52324e-15 0)
(3 -1.1406e-15 0)
(3 -9.21306e-16 0)
(3 1.13396e-16 0)
(3 2.38132e-15 0)
(3 2.5669e-15 0)
(3 1.98785e-15 0)
(3 1.68685e-15 0)
(3 1.88517e-15 0)
(3 2.59223e-15 0)
(3 3.36149e-15 0)
(3 2.29631e-15 0)
(3 1.19894e-15 0)
(3 5.14027e-16 0)
(3 4.18025e-15 0)
(3 2.83391e-13 0)
(3 1.32975e-12 0)
(3 2.19347e-12 0)
(3 -4.72673e-11 0)
(3 -1.28564e-08 0)
(3 -4.96266e-08 0)
(3 -2.5006e-07 0)
(3 1.62142e-05 0)
(3 -2.15879e-05 0)
(3 -4.32524e-16 0)
(3 2.00921e-16 0)
(3 4.55633e-16 0)
(3 1.36934e-15 0)
(3 1.73112e-15 0)
(3 1.36177e-15 0)
(3 6.41652e-16 0)
(3 3.47269e-16 0)
(3 1.52099e-15 0)
(3 2.46126e-15 0)
(3 3.51733e-15 0)
(3 1.70096e-15 0)
(3 3.67531e-16 0)
(3 7.23471e-16 0)
(3 1.20664e-15 0)
(3 2.90169e-15 0)
(3 5.99201e-14 0)
(3 7.95768e-13 0)
(3 4.29239e-13 0)
(3 -3.13696e-10 0)
(3 -2.75125e-09 0)
(3 -8.68553e-08 0)
(3 -4.05939e-08 0)
(3 -6.63154e-07 0)
(3 1.07455e-15 0)
(3 1.52189e-15 0)
(3 1.63091e-15 0)
(3 1.07901e-15 0)
(3 1.83409e-16 0)
(3 2.2618e-16 0)
(3 2.42194e-16 0)
(3 3.11476e-16 0)
(3 5.77388e-16 0)
(3 1.3596e-15 0)
(3 8.52257e-16 0)
(3 1.4881e-15 0)
(3 6.0475e-16 0)
(3 4.29325e-16 0)
(3 1.20338e-15 0)
(3 -1.26066e-15 0)
(3 -2.11116e-14 0)
(3 -7.35586e-13 0)
(3 -6.21637e-13 0)
(3 3.60957e-10 0)
(3 1.74769e-09 0)
(3 1.08376e-07 0)
(3 2.62902e-08 0)
(3 6.2398e-07 0)
(3 3.23453e-15 0)
(3 3.26647e-15 0)
(3 1.92785e-15 0)
(3 -3.28302e-16 0)
(3 -9.71775e-16 0)
(3 -7.61348e-16 0)
(3 2.97669e-16 0)
(3 9.25514e-16 0)
(3 1.61146e-15 0)
(3 1.66579e-15 0)
(3 -6.37595e-16 0)
(3 -1.52388e-15 0)
(3 -5.36467e-16 0)
(3 4.45457e-16 0)
(3 -2.98832e-15 0)
(3 -2.73242e-13 0)
(3 -1.3069e-12 0)
(3 -2.21442e-12 0)
(3 4.39967e-11 0)
(3 1.32958e-08 0)
(3 4.57709e-08 0)
(3 2.85952e-07 0)
(3 -1.61639e-05 0)
(3 2.16032e-05 0)
(3 2.43735e-15 0)
(3 2.15466e-15 0)
(3 1.05052e-15 0)
(3 7.01355e-16 0)
(3 4.4221e-18 0)
(3 -5.2665e-16 0)
(3 -3.04991e-16 0)
(3 1.89146e-15 0)
(3 2.60098e-15 0)
(3 2.388e-15 0)
(3 -2.40429e-16 0)
(3 -3.71531e-16 0)
(3 -3.58371e-17 0)
(3 -2.6903e-15 0)
(3 -1.00204e-12 0)
(3 -6.88929e-12 0)
(3 -5.47373e-12 0)
(3 1.56119e-11 0)
(3 2.25468e-08 0)
(3 1.1619e-07 0)
(3 2.66234e-07 0)
(3 1.23558e-06 0)
(2.99954 -0.000943751 0)
(2.99158 -0.0160912 0)
(3 1.3185e-15 0)
(3 8.85275e-16 0)
(3 7.17225e-16 0)
(3 1.70823e-16 0)
(3 -4.46403e-16 0)
(3 -4.55561e-16 0)
(3 -4.25903e-16 0)
(3 6.63453e-16 0)
(3 1.06633e-15 0)
(3 1.07679e-15 0)
(3 6.92821e-16 0)
(3 -2.00581e-15 0)
(3 -2.15569e-14 0)
(3 -7.55882e-13 0)
(3 -1.68676e-11 0)
(3 -2.95252e-11 0)
(3 3.05653e-11 0)
(3 3.09042e-08 0)
(3 5.55539e-07 0)
(3 3.98824e-07 0)
(3 2.67515e-06 0)
(2.99943 -0.00117339 0)
(2.97689 -0.0388951 0)
(2.84361 -0.241698 0)
(3 1.17047e-15 0)
(3 1.20322e-15 0)
(3 1.06604e-15 0)
(3 2.38168e-16 0)
(3 -3.22579e-17 0)
(3 -2.8289e-16 0)
(3 1.20824e-16 0)
(3 4.03912e-16 0)
(3 -4.66967e-17 0)
(3 1.79194e-15 0)
(3 6.41582e-16 0)
(3 -2.61127e-13 0)
(3 -2.14269e-12 0)
(3 -6.70435e-12 0)
(3 -1.04555e-10 0)
(3 2.2309e-09 0)
(3 1.99928e-08 0)
(3 1.36425e-06 0)
(3 1.19497e-06 0)
(3 4.93159e-06 0)
(2.99747 -0.00472171 0)
(2.97431 -0.0547659 0)
(2.77226 -0.336477 0)
(2.51973 -0.668546 0)
(3 -1.26337e-15 0)
(3 -4.52973e-16 0)
(3 -1.69473e-16 0)
(3 8.7212e-17 0)
(3 1.78132e-16 0)
(3 9.68799e-16 0)
(3 3.17341e-16 0)
(3 -1.34367e-15 0)
(3 -3.00136e-15 0)
(3 -1.44446e-14 0)
(3 -2.81552e-13 0)
(3 -4.15207e-12 0)
(3 -1.99676e-11 0)
(3 -8.8283e-11 0)
(3 2.06462e-08 0)
(3 1.07567e-07 0)
(3 1.51976e-06 0)
(3 5.14849e-06 0)
(2.99992 -0.000161098 0)
(2.99588 -0.00758869 0)
(2.9092 -0.131403 0)
(2.77855 -0.376915 0)
(2.42926 -0.757107 0)
(2.32716 -0.885884 0)
(3 -2.26228e-15 0)
(3 -2.32428e-15 0)
(3 -1.62978e-15 0)
(3 -9.29082e-16 0)
(3 -3.90504e-16 0)
(3 -6.64755e-15 0)
(3 -2.17681e-14 0)
(3 -8.36246e-14 0)
(3 -2.51863e-13 0)
(3 -2.40478e-12 0)
(3 -1.94932e-11 0)
(3 -1.68009e-11 0)
(3 -1.17479e-10 0)
(3 2.17772e-08 0)
(3 1.00041e-06 0)
(3 1.03434e-06 0)
(3 9.66926e-06 0)
(2.99953 -0.000704351 0)
(2.98058 -0.0297942 0)
(2.90059 -0.178278 0)
(2.56007 -0.594683 0)
(2.44192 -0.744351 0)
(2.35402 -0.799267 0)
(2.33716 -0.835319 0)
(3 -3.43614e-15 0)
(3 -2.47681e-16 0)
(3 -5.7968e-16 0)
(3 -7.1773e-15 0)
(3 -7.80314e-14 0)
(3 -7.87778e-13 0)
(3 -9.87936e-13 0)
(3 -1.25133e-12 0)
(3 -1.52999e-11 0)
(3 -1.46681e-11 0)
(3 -2.81468e-10 0)
(3 7.76652e-09 0)
(3 3.56318e-08 0)
(3 2.988e-06 0)
(3 4.34482e-06 0)
(3 1.11728e-05 0)
(2.99727 -0.00464215 0)
(2.96047 -0.0599226 0)
(2.72582 -0.364281 0)
(2.58844 -0.592181 0)
(2.35416 -0.816764 0)
(2.29017 -0.879674 0)
(2.28903 -0.859315 0)
(2.31048 -0.845995 0)
(3 -3.54089e-15 0)
(3 1.25177e-14 0)
(3 -1.17259e-13 0)
(3 -2.01872e-12 0)
(3 -6.96084e-12 0)
(3 -6.91168e-12 0)
(3 -5.15176e-12 0)
(3 -2.38785e-12 0)
(3 -5.91382e-11 0)
(3 -5.54302e-11 0)
(3 3.91733e-08 0)
(3 5.72752e-07 0)
(3 2.43557e-06 0)
(3.00001 2.60349e-05 0)
(2.99969 -0.000536643 0)
(2.98663 -0.0184754 0)
(2.86387 -0.171877 0)
(2.68854 -0.447582 0)
(2.34612 -0.834747 0)
(2.30137 -0.85725 0)
(2.31214 -0.845264 0)
(2.30655 -0.845149 0)
(2.31261 -0.840609 0)
(2.32651 -0.839095 0)
(3 9.30875e-15 0)
(3 -9.63303e-13 0)
(3 -2.02696e-11 0)
(3 -2.63671e-11 0)
(3 -3.15367e-11 0)
(3 3.25985e-11 0)
(3 7.68425e-10 0)
(3 1.06923e-09 0)
(3 2.40156e-08 0)
(3 4.23912e-07 0)
(3 7.76544e-06 0)
(3 4.89742e-06 0)
(3 3.67228e-05 0)
(2.99491 -0.00697425 0)
(2.93977 -0.0750052 0)
(2.76599 -0.318029 0)
(2.41667 -0.727066 0)
(2.37986 -0.786572 0)
(2.322 -0.842001 0)
(2.31906 -0.844784 0)
(2.32354 -0.845796 0)
(2.32889 -0.8414 0)
(2.33698 -0.835409 0)
(2.34262 -0.835604 0)
(3 -9.44197e-13 0)
(3 -1.19116e-12 0)
(3 -8.89425e-11 0)
(3 -7.17435e-11 0)
(3 2.94214e-10 0)
(3 6.56799e-08 0)
(3 6.08837e-08 0)
(3 2.13511e-07 0)
(3 6.49932e-06 0)
(3 6.20944e-06 0)
(3.00003 7.30628e-05 0)
(2.99832 -0.0023051 0)
(2.97691 -0.0333817 0)
(2.81306 -0.229795 0)
(2.52863 -0.578013 0)
(2.42706 -0.742123 0)
(2.29005 -0.893125 0)
(2.28315 -0.9 0)
(2.30077 -0.887755 0)
(2.32331 -0.860726 0)
(2.33184 -0.853015 0)
(2.34257 -0.850177 0)
(2.34681 -0.845126 0)
(2.35134 -0.841371 0)
(3 -1.50922e-10 0)
(3 3.11121e-09 0)
(3 2.08362e-08 0)
(3 7.83153e-08 0)
(3 7.66698e-07 0)
(3 7.69857e-07 0)
(3 1.46909e-06 0)
(3 2.20862e-06 0)
(3.00004 8.74664e-05 0)
(2.99931 -0.000913905 0)
(2.98716 -0.0186644 0)
(2.85241 -0.188483 0)
(2.69408 -0.43738 0)
(2.40597 -0.762815 0)
(2.29254 -0.908788 0)
(2.29774 -0.891061 0)
(2.31049 -0.883896 0)
(2.3207 -0.877012 0)
(2.33322 -0.869093 0)
(2.34993 -0.853382 0)
(2.3564 -0.849399 0)
(2.35741 -0.849994 0)
(2.35798 -0.849429 0)
(2.35336 -0.853572 0)
(3 5.56538e-08 0)
(3 5.72106e-08 0)
(3 8.79745e-07 0)
(3 1.62686e-06 0)
(3.00001 9.13792e-06 0)
(2.99999 -2.10986e-05 0)
(3.00001 5.12216e-05 0)
(2.99933 -0.00114449 0)
(2.98917 -0.0180546 0)
(2.89794 -0.168793 0)
(2.78005 -0.407574 0)
(2.41502 -0.813176 0)
(2.33906 -0.884349 0)
(2.28506 -0.945134 0)
(2.29037 -0.945337 0)
(2.30875 -0.922078 0)
(2.33495 -0.885851 0)
(2.34314 -0.859988 0)
(2.35386 -0.843151 0)
(2.35962 -0.839354 0)
(2.36336 -0.84116 0)
(2.36132 -0.844304 0)
(2.35816 -0.846785 0)
(2.35306 -0.849186 0)
(3 4.9533e-06 0)
(2.99999 -1.22035e-05 0)
(3.00002 -1.23966e-05 0)
(2.99992 -4.2341e-05 0)
(2.99857 -0.00200089 0)
(2.99195 -0.0114431 0)
(2.9633 -0.0567392 0)
(2.90456 -0.166899 0)
(2.76292 -0.420069 0)
(2.58989 -0.709291 0)
(2.46128 -0.840459 0)
(2.33686 -0.933306 0)
(2.289 -0.914548 0)
(2.2976 -0.900273 0)
(2.31501 -0.883908 0)
(2.34853 -0.869083 0)
(2.35352 -0.865945 0)
(2.35849 -0.844956 0)
(2.36168 -0.839319 0)
(2.36084 -0.838895 0)
(2.35898 -0.841206 0)
(2.35251 -0.844624 0)
(2.34746 -0.848358 0)
(2.34452 -0.850284 0)
(2.99877 -0.00118515 0)
(2.98905 -0.0129523 0)
(2.96182 -0.0496982 0)
(2.90321 -0.129485 0)
(2.79953 -0.277902 0)
(2.69225 -0.455124 0)
(2.51678 -0.694019 0)
(2.40067 -0.89415 0)
(2.21475 -1.0746 0)
(2.16365 -1.1036 0)
(2.15217 -1.03292 0)
(2.18262 -0.997089 0)
(2.25046 -0.95233 0)
(2.30216 -0.900503 0)
(2.33192 -0.853923 0)
(2.35055 -0.833271 0)
(2.35219 -0.835381 0)
(2.35618 -0.83646 0)
(2.357 -0.837418 0)
(2.35544 -0.840665 0)
(2.35183 -0.845278 0)
(2.34482 -0.847681 0)
(2.33941 -0.850727 0)
(2.33634 -0.851435 0)
(2.93362 -0.0132948 0)
(2.84357 -0.0817941 0)
(2.75952 -0.13724 0)
(2.6687 -0.236848 0)
(2.56925 -0.358345 0)
(2.51668 -0.433534 0)
(2.41444 -0.548513 0)
(2.35314 -0.628555 0)
(2.31093 -0.724141 0)
(2.25492 -0.797678 0)
(2.24926 -0.852471 0)
(2.28313 -0.886439 0)
(2.32746 -0.894525 0)
(2.33643 -0.890124 0)
(2.34478 -0.884115 0)
(2.34576 -0.86735 0)
(2.34444 -0.859079 0)
(2.34308 -0.849773 0)
(2.34508 -0.84744 0)
(2.34583 -0.849401 0)
(2.34338 -0.849353 0)
(2.33927 -0.850142 0)
(2.33582 -0.850862 0)