/*--------------------------------*- C++ -*----------------------------------*\
  =========                 |
  \\      /  F ield         | OpenFOAM: The Open Source CFD Toolbox
   \\    /   O peration     | Website:  https://openfoam.org
    \\  /    A nd           | Version:  7
     \\/     M anipulation  |
\*---------------------------------------------------------------------------*/
FoamFile
{
    version     2.0;
    format      ascii;
    class       volVectorField;
    location    "3.2";
    object      U;
}
// * * * * * * * * * * * * * * * * * * * * * * * * * * * * * * * * * * * * * //

dimensions      [0 1 -1 0 0 0 0];

internalField   nonuniform List<vector> 
73728
(
(3 -2.56925e-18 0)
(3 -1.97006e-17 0)
(3 -5.12183e-17 0)
(3 -1.28273e-16 0)
(3 -1.30235e-16 0)
(3 4.22725e-16 0)
(3 2.25058e-16 0)
(3 5.06536e-17 0)
(3 -1.59981e-16 0)
(3 -2.8411e-17 0)
(3 4.26846e-16 0)
(3 -1.73862e-16 0)
(3 -6.55033e-16 0)
(3 -1.19042e-15 0)
(3 -1.94974e-15 0)
(3 -2.18988e-15 0)
(3 -2.39475e-15 0)
(3 -2.5721e-15 0)
(3 -2.44957e-15 0)
(3 -2.47841e-15 0)
(3 -2.38324e-15 0)
(3 -2.06082e-15 0)
(3 -1.31272e-15 0)
(3 -5.68011e-16 0)
(3 -1.23028e-17 0)
(3 2.75772e-16 0)
(3 -1.12722e-16 0)
(3 -3.81581e-17 0)
(3 -1.30909e-16 0)
(3 -8.65331e-16 0)
(3 -1.03446e-15 0)
(3 -4.91272e-16 0)
(3 -3.88089e-17 0)
(3 2.62143e-16 0)
(3 5.7341e-16 0)
(3 3.69481e-16 0)
(3 3.55769e-16 0)
(3 1.03101e-15 0)
(3 1.42798e-15 0)
(3 8.88927e-16 0)
(3 5.1133e-16 0)
(3 -1.8707e-16 0)
(3 4.04142e-16 0)
(3 9.56833e-16 0)
(3 1.71394e-15 0)
(3 1.84689e-15 0)
(3 9.25104e-16 0)
(3 -1.55006e-16 0)
(3 4.87444e-16 0)
(3 1.37233e-15 0)
(3 2.12277e-15 0)
(3 2.26317e-15 0)
(3 1.9762e-15 0)
(3 9.23126e-16 0)
(3 1.12177e-15 0)
(3 5.06588e-16 0)
(3 3.50225e-16 0)
(3 1.19633e-15 0)
(3 1.67739e-15 0)
(3 2.28901e-15 0)
(3 1.52673e-15 0)
(3 5.14089e-16 0)
(3 7.37681e-16 0)
(3 1.03033e-15 0)
(3 7.54593e-16 0)
(3 6.21292e-16 0)
(3 -8.45692e-16 0)
(3 -1.58661e-15 0)
(3 -1.11134e-15 0)
(3 1.81102e-16 0)
(3 5.40664e-16 0)
(3 3.86793e-16 0)
(3 5.70842e-16 0)
(3 6.29669e-16 0)
(3 3.43967e-16 0)
(3 -2.19657e-16 0)
(3 -5.42536e-16 0)
(3 -4.4405e-16 0)
(3 -2.89066e-16 0)
(3 -1.80965e-16 0)
(3 1.23015e-16 0)
(3 3.7665e-16 0)
(3 6.26357e-17 0)
(3 5.52457e-17 0)
(3 5.35054e-17 0)
(3 -1.45374e-16 0)
(3 -8.34786e-16 0)
(3 -2.0656e-15 0)
(3 -2.66246e-15 0)
(3 -2.73347e-15 0)
(3 -2.37521e-15 0)
(3 -2.16361e-15 0)
(3 -1.70678e-15 0)
(3 -8.9333e-16 0)
(3 -4.79035e-16 0)
(3 -1.5725e-16 0)
(3 -4.42633e-18 0)
(3 -1.42355e-16 0)
(3 -4.49101e-16 0)
(3 -5.12738e-16 0)
(3 -6.29485e-16 0)
(3 -3.57378e-16 0)
(3 -4.31675e-16 0)
(3 -4.30139e-16 0)
(3 -6.93032e-16 0)
(3 -1.18299e-16 0)
(3 2.68245e-16 0)
(3 -6.68053e-18 0)
(3 -1.27262e-16 0)
(3 -1.81694e-15 0)
(3 -2.85392e-15 0)
(3 -2.14765e-15 0)
(3 -1.83541e-15 0)
(3 -1.37058e-15 0)
(3 -1.56248e-15 0)
(3 -1.92975e-15 0)
(3 -1.87025e-15 0)
(3 -1.56275e-15 0)
(3 -3.77269e-16 0)
(3 2.97889e-17 0)
(3 5.49718e-16 0)
(3 4.16364e-16 0)
(3 -1.12129e-15 0)
(3 -9.20572e-16 0)
(3 -2.10221e-16 0)
(3 -1.38407e-15 0)
(3 -1.55455e-15 0)
(3 -2.54067e-15 0)
(3 -2.78817e-15 0)
(3 -2.44962e-16 0)
(3 1.48373e-15 0)
(3 2.96335e-15 0)
(3 3.07092e-15 0)
(3 2.14562e-15 0)
(3 1.62408e-15 0)
(3 1.2141e-15 0)
(3 9.32415e-16 0)
(3 1.15535e-15 0)
(3 2.20502e-15 0)
(3 3.52185e-15 0)
(3 4.72278e-15 0)
(3 5.22624e-15 0)
(3 3.13831e-15 0)
(3 2.0966e-15 0)
(3 3.14201e-15 0)
(3 4.1221e-15 0)
(3 3.5395e-15 0)
(3 3.10443e-15 0)
(3 2.30892e-15 0)
(3 1.57389e-15 0)
(3 1.79185e-15 0)
(3 2.22847e-15 0)
(3 1.8145e-15 0)
(3 1.14971e-15 0)
(3 1.11386e-15 0)
(3 2.13206e-15 0)
(3 1.34217e-15 0)
(3 2.36134e-16 0)
(3 3.71204e-16 0)
(3 1.67363e-15 0)
(3 1.18358e-15 0)
(3 3.48373e-16 0)
(3 -6.87008e-16 0)
(3 -2.34127e-15 0)
(3 -2.19991e-15 0)
(3 -6.56405e-16 0)
(3 -2.439e-16 0)
(3 1.41312e-16 0)
(3 1.01688e-16 0)
(3 -3.99695e-16 0)
(3 -1.1102e-15 0)
(3 -1.47783e-15 0)
(3 -1.60423e-15 0)
(3 -1.80252e-15 0)
(3 -1.251e-15 0)
(3 -8.31378e-16 0)
(3 -9.04758e-16 0)
(3 -5.20954e-16 0)
(3 -1.04995e-15 0)
(3 -1.226e-15 0)
(3 -7.54215e-16 0)
(3 2.22979e-16 0)
(3 2.08207e-16 0)
(3 -9.82697e-16 0)
(3 -1.2269e-15 0)
(3 -1.23798e-15 0)
(3 -1.18868e-15 0)
(3 -5.06386e-16 0)
(3 -1.72534e-15 0)
(3 -1.82841e-15 0)
(3 -1.72355e-15 0)
(3 -1.29338e-15 0)
(3 2.7609e-18 0)
(3 -1.10394e-16 0)
(3 -3.62152e-16 0)
(3 -2.18598e-16 0)
(3 -7.45673e-16 0)
(3 -1.04356e-15 0)
(3 -1.26489e-15 0)
(3 -8.00045e-16 0)
(3 -2.96653e-16 0)
(3 2.70257e-16 0)
(3 2.54075e-17 0)
(3 -1.26743e-16 0)
(3 -3.39491e-16 0)
(3 -7.19239e-16 0)
(3 -8.81416e-16 0)
(3 -1.29821e-15 0)
(3 -8.96482e-16 0)
(3 -6.03839e-16 0)
(3 -8.34398e-16 0)
(3 -9.95409e-16 0)
(3 -1.28175e-15 0)
(3 -8.16606e-16 0)
(3 -2.32748e-16 0)
(3 -4.42723e-16 0)
(3 -1.28248e-15 0)
(3 -1.9522e-15 0)
(3 -3.13241e-15 0)
(3 -3.85743e-15 0)
(3 -3.05913e-15 0)
(3 -2.96724e-15 0)
(3 -2.92435e-15 0)
(3 -3.18813e-15 0)
(3 -3.19975e-15 0)
(3 -2.99259e-15 0)
(3 -2.08779e-15 0)
(3 8.90853e-16 0)
(3 2.1686e-15 0)
(3 1.47551e-15 0)
(3 1.63967e-15 0)
(3 1.71104e-15 0)
(3 1.7836e-15 0)
(3 2.35847e-15 0)
(3 3.61768e-15 0)
(3 4.71205e-15 0)
(3 6.82086e-15 0)
(3 6.7752e-15 0)
(3 6.49999e-15 0)
(3 5.53182e-15 0)
(3 4.32244e-15 0)
(3 3.73671e-15 0)
(3 3.48593e-15 0)
(3 2.52987e-15 0)
(3 1.91954e-15 0)
(3 2.14802e-15 0)
(3 2.94838e-15 0)
(3 4.72106e-15 0)
(3 3.60338e-15 0)
(3 2.3623e-15 0)
(3 3.61143e-16 0)
(3 -9.76811e-16 0)
(3 -7.76215e-16 0)
(3 -6.43187e-16 0)
(3 -6.0495e-16 0)
(3 -4.12512e-18 0)
(3 -4.31679e-16 0)
(3 -1.4446e-15 0)
(3 -2.81033e-15 0)
(3 -2.27406e-15 0)
(3 3.24734e-16 0)
(3 7.56473e-16 0)
(3 2.1024e-16 0)
(3 2.15158e-16 0)
(3 -1.13643e-15 0)
(3 -3.13091e-15 0)
(3 -3.97795e-15 0)
(3 -3.84445e-15 0)
(3 -3.36901e-15 0)
(3 -2.54996e-15 0)
(3 -2.19205e-15 0)
(3 -1.8552e-15 0)
(3 -1.72979e-15 0)
(3 -1.57632e-15 0)
(3 -1.82261e-15 0)
(3 -1.71326e-15 0)
(3 -1.11812e-15 0)
(3 1.12532e-16 0)
(3 3.80978e-16 0)
(3 2.08755e-16 0)
(3 2.92913e-16 0)
(3 2.55913e-16 0)
(3 -7.36899e-17 0)
(3 -3.76907e-16 0)
(3 -1.47271e-15 0)
(3 -1.72083e-15 0)
(3 -2.69473e-15 0)
(3 -1.48205e-15 0)
(3 -1.1491e-16 0)
(3 -6.99706e-16 0)
(3 -8.00721e-16 0)
(3 -5.58711e-16 0)
(3 -3.75596e-16 0)
(3 -4.7056e-17 0)
(3 2.59348e-16 0)
(3 6.44478e-16 0)
(3 6.96381e-16 0)
(3 2.69022e-16 0)
(3 2.47895e-16 0)
(3 1.33132e-16 0)
(3 -8.53859e-18 0)
(3 -4.6306e-17 0)
(3 -1.88525e-16 0)
(3 -5.36742e-16 0)
(3 -1.11447e-15 0)
(3 -1.4884e-15 0)
(3 -1.61367e-15 0)
(3 -1.76079e-15 0)
(3 -1.67807e-15 0)
(3 -1.12644e-15 0)
(3 -7.94065e-16 0)
(3 -9.96804e-16 0)
(3 -1.5287e-15 0)
(3 -2.41381e-15 0)
(3 -3.01532e-15 0)
(3 -3.40919e-15 0)
(3 -3.59073e-15 0)
(3 -3.50069e-15 0)
(3 -5.56492e-15 0)
(3 -5.57461e-15 0)
(3 -4.54145e-15 0)
(3 -5.0071e-15 0)
(3 -4.88248e-15 0)
(3 -1.6818e-15 0)
(3 -1.25419e-15 0)
(3 9.27564e-17 0)
(3 1.13356e-15 0)
(3 1.97891e-15 0)
(3 2.55631e-15 0)
(3 3.47946e-15 0)
(3 3.95587e-15 0)
(3 4.43686e-15 0)
(3 4.70384e-15 0)
(3 4.38057e-15 0)
(3 5.00099e-15 0)
(3 5.06318e-15 0)
(3 4.6868e-15 0)
(3 4.48354e-15 0)
(3 4.4817e-15 0)
(3 3.99652e-15 0)
(3 2.94924e-15 0)
(3 3.12382e-15 0)
(3 4.38862e-15 0)
(3 3.76615e-15 0)
(3 3.75698e-15 0)
(3 3.65969e-15 0)
(3 2.20308e-15 0)
(3 -5.45554e-16 0)
(3 -5.09655e-16 0)
(3 -3.73988e-17 0)
(3 -4.7215e-16 0)
(3 -4.02144e-16 0)
(3 -2.38336e-16 0)
(3 -4.97993e-16 0)
(3 -3.1927e-16 0)
(3 1.95729e-15 0)
(3 2.87895e-15 0)
(3 2.07356e-15 0)
(3 8.50122e-16 0)
(3 -3.6148e-16 0)
(3 -1.41041e-15 0)
(3 -3.28498e-15 0)
(3 -4.51316e-15 0)
(3 -5.26849e-15 0)
(3 -5.71496e-15 0)
(3 -4.70709e-15 0)
(3 -4.7531e-15 0)
(3 -4.20321e-15 0)
(3 -3.15341e-15 0)
(3 -3.44564e-15 0)
(3 -3.58947e-15 0)
(3 -3.89407e-15 0)
(3 -3.32767e-15 0)
(3 -2.28148e-15 0)
(3 -1.58638e-15 0)
(3 -1.13681e-15 0)
(3 -5.21767e-16 0)
(3 -5.00675e-16 0)
(3 -8.97993e-16 0)
(3 -1.53101e-15 0)
(3 -1.24319e-15 0)
(3 -6.54813e-16 0)
(3 -2.34115e-16 0)
(3 4.49129e-16 0)
(3 -8.24191e-17 0)
(3 -2.33775e-16 0)
(3 -1.96623e-16 0)
(3 -6.16977e-16 0)
(3 -1.51927e-16 0)
(3 -1.15359e-16 0)
(3 1.45384e-16 0)
(3 2.4782e-16 0)
(3 3.52859e-16 0)
(3 7.45676e-17 0)
(3 3.30869e-16 0)
(3 2.79455e-16 0)
(3 5.71681e-17 0)
(3 -1.71467e-16 0)
(3 -9.02041e-16 0)
(3 -1.00157e-15 0)
(3 -1.1248e-15 0)
(3 -1.48162e-15 0)
(3 -1.13366e-15 0)
(3 -8.83784e-16 0)
(3 -5.3314e-16 0)
(3 -9.57835e-16 0)
(3 -8.38148e-16 0)
(3 -4.3389e-16 0)
(3 -9.23983e-17 0)
(3 2.532e-16 0)
(3 2.04355e-16 0)
(3 -4.82865e-16 0)
(3 -1.32109e-15 0)
(3 -2.14708e-15 0)
(3 -3.85276e-15 0)
(3 -4.95528e-15 0)
(3 -4.84287e-15 0)
(3 -4.13425e-15 0)
(3 -3.56827e-15 0)
(3 -4.00115e-15 0)
(3 -3.65318e-15 0)
(3 -1.33236e-15 0)
(3 1.28428e-16 0)
(3 1.39094e-15 0)
(3 2.09221e-15 0)
(3 3.90951e-15 0)
(3 4.74461e-15 0)
(3 4.6253e-15 0)
(3 4.33856e-15 0)
(3 4.74551e-15 0)
(3 5.47561e-15 0)
(3 6.43808e-15 0)
(3 7.58097e-15 0)
(3 7.8706e-15 0)
(3 7.47625e-15 0)
(3 6.84944e-15 0)
(3 4.92733e-15 0)
(3 3.66009e-15 0)
(3 3.30775e-15 0)
(3 2.72441e-15 0)
(3 2.83015e-15 0)
(3 3.64154e-15 0)
(3 4.1206e-15 0)
(3 2.13544e-15 0)
(3 9.51298e-16 0)
(3 5.37777e-16 0)
(3 3.46237e-17 0)
(3 3.49809e-16 0)
(3 1.01391e-15 0)
(3 1.94422e-15 0)
(3 2.04342e-15 0)
(3 1.25743e-15 0)
(3 4.70259e-16 0)
(3 1.11407e-15 0)
(3 1.31865e-15 0)
(3 4.90835e-16 0)
(3 2.22955e-16 0)
(3 2.74253e-17 0)
(3 -3.81327e-16 0)
(3 -2.8987e-15 0)
(3 -5.04564e-15 0)
(3 -5.53004e-15 0)
(3 -5.94815e-15 0)
(3 -4.94429e-15 0)
(3 -3.77316e-15 0)
(3 -3.69641e-15 0)
(3 -4.64925e-15 0)
(3 -4.73393e-15 0)
(3 -4.41276e-15 0)
(3 -4.21997e-15 0)
(3 -2.74958e-15 0)
(3 -2.01722e-15 0)
(3 -2.24299e-15 0)
(3 -2.58547e-15 0)
(3 -2.37092e-15 0)
(3 -2.52019e-15 0)
(3 -2.47652e-15 0)
(3 -1.99411e-15 0)
(3 -6.43834e-16 0)
(3 5.40226e-16 0)
(3 -1.80915e-16 0)
(3 4.50002e-17 0)
(3 5.35021e-16 0)
(3 6.31905e-16 0)
(3 7.6483e-16 0)
(3 5.05162e-16 0)
(3 2.62614e-17 0)
(3 -3.70032e-16 0)
(3 -5.05461e-17 0)
(3 2.74205e-16 0)
(3 1.63657e-16 0)
(3 1.4228e-16 0)
(3 -2.61109e-16 0)
(3 -3.35477e-16 0)
(3 -5.49801e-16 0)
(3 -6.61411e-16 0)
(3 -3.95788e-16 0)
(3 -4.61585e-17 0)
(3 3.71954e-17 0)
(3 -3.46741e-16 0)
(3 -2.74856e-16 0)
(3 -6.82037e-17 0)
(3 4.60533e-16 0)
(3 1.2849e-15 0)
(3 1.54727e-15 0)
(3 1.46188e-15 0)
(3 1.18276e-15 0)
(3 -9.90852e-17 0)
(3 -1.4226e-15 0)
(3 -1.63936e-15 0)
(3 -1.79256e-15 0)
(3 -1.88435e-15 0)
(3 -1.83884e-15 0)
(3 -9.84325e-16 0)
(3 -7.06022e-16 0)
(3 -1.4178e-15 0)
(3 -1.05232e-15 0)
(3 -3.94494e-16 0)
(3 1.16324e-15 0)
(3 1.72197e-15 0)
(3 2.49703e-15 0)
(3 3.47284e-15 0)
(3 4.25754e-15 0)
(3 4.14455e-15 0)
(3 4.00513e-15 0)
(3 4.43555e-15 0)
(3 4.11691e-15 0)
(3 3.90631e-15 0)
(3 4.8733e-15 0)
(3 4.42105e-15 0)
(3 4.73965e-15 0)
(3 5.21881e-15 0)
(3 5.06997e-15 0)
(3 3.8644e-15 0)
(3 3.02518e-15 0)
(3 2.76226e-15 0)
(3 2.87619e-15 0)
(3 3.83672e-15 0)
(3 3.8173e-15 0)
(3 2.9104e-15 0)
(3 4.5962e-16 0)
(3 -2.9662e-16 0)
(3 -6.68231e-16 0)
(3 -1.19764e-15 0)
(3 -3.38443e-16 0)
(3 1.17016e-15 0)
(3 4.63351e-16 0)
(3 1.93402e-16 0)
(3 -8.18763e-17 0)
(3 4.43373e-16 0)
(3 1.35699e-15 0)
(3 1.46156e-15 0)
(3 2.67218e-15 0)
(3 3.93314e-15 0)
(3 4.19063e-15 0)
(3 1.78917e-15 0)
(3 1.37982e-15 0)
(3 1.21032e-16 0)
(3 -7.68341e-16 0)
(3 -8.69266e-16 0)
(3 -1.39184e-15 0)
(3 -6.60583e-16 0)
(3 -2.68801e-15 0)
(3 -3.05194e-15 0)
(3 -2.78223e-15 0)
(3 -2.97967e-15 0)
(3 -2.47668e-15 0)
(3 -1.96427e-15 0)
(3 -2.20923e-15 0)
(3 -2.94679e-15 0)
(3 -4.00963e-15 0)
(3 -4.48494e-15 0)
(3 -2.73211e-15 0)
(3 -2.47445e-15 0)
(3 -2.07997e-15 0)
(3 -1.87729e-15 0)
(3 -2.89515e-17 0)
(3 -1.16209e-16 0)
(3 -1.18528e-16 0)
(3 3.52371e-17 0)
(3 1.58297e-16 0)
(3 6.15972e-16 0)
(3 7.18012e-16 0)
(3 4.69908e-16 0)
(3 3.66287e-16 0)
(3 4.07377e-16 0)
(3 2.68041e-17 0)
(3 -4.20336e-16 0)
(3 -1.17413e-16 0)
(3 -7.78932e-17 0)
(3 1.56325e-16 0)
(3 4.59187e-16 0)
(3 2.05072e-16 0)
(3 -2.07808e-17 0)
(3 -5.6569e-16 0)
(3 -8.58117e-16 0)
(3 -1.03287e-15 0)
(3 1.21803e-16 0)
(3 1.31673e-15 0)
(3 1.77754e-15 0)
(3 1.57937e-15 0)
(3 1.02964e-15 0)
(3 2.51675e-16 0)
(3 -4.47591e-16 0)
(3 -4.78179e-16 0)
(3 -2.31121e-16 0)
(3 -1.91583e-16 0)
(3 -2.02405e-16 0)
(3 2.07479e-16 0)
(3 4.95027e-16 0)
(3 1.59671e-16 0)
(3 6.92637e-18 0)
(3 8.9187e-17 0)
(3 1.13619e-15 0)
(3 2.63589e-15 0)
(3 3.09556e-15 0)
(3 2.72409e-15 0)
(3 1.89408e-15 0)
(3 1.53613e-15 0)
(3 2.42497e-15 0)
(3 2.33784e-15 0)
(3 1.85022e-15 0)
(3 5.89506e-16 0)
(3 -9.07844e-16 0)
(3 -8.84936e-16 0)
(3 -4.54727e-16 0)
(3 7.71001e-16 0)
(3 2.15571e-15 0)
(3 3.31466e-15 0)
(3 3.16324e-15 0)
(3 2.43316e-15 0)
(3 1.66622e-15 0)
(3 2.30164e-15 0)
(3 2.23007e-15 0)
(3 1.656e-15 0)
(3 1.23708e-15 0)
(3 6.22672e-16 0)
(3 2.75238e-16 0)
(3 -3.30525e-16 0)
(3 -1.15108e-15 0)
(3 -1.24468e-15 0)
(3 -5.96894e-16 0)
(3 -4.14389e-16 0)
(3 -5.48997e-16 0)
(3 -3.57792e-16 0)
(3 -7.83871e-16 0)
(3 -3.41204e-16 0)
(3 1.87239e-15 0)
(3 3.25894e-15 0)
(3 4.10248e-15 0)
(3 3.94098e-15 0)
(3 3.4227e-15 0)
(3 4.11784e-15 0)
(3 2.81443e-15 0)
(3 3.31953e-16 0)
(3 -5.57311e-16 0)
(3 -1.03986e-15 0)
(3 -5.38631e-16 0)
(3 -6.36927e-16 0)
(3 -5.30588e-16 0)
(3 -8.14284e-16 0)
(3 -7.6583e-16 0)
(3 -8.43371e-16 0)
(3 -9.93986e-16 0)
(3 -1.35245e-15 0)
(3 -3.12597e-15 0)
(3 -4.85845e-15 0)
(3 -4.43362e-15 0)
(3 -2.83474e-15 0)
(3 -8.56659e-16 0)
(3 -5.74697e-16 0)
(3 -2.8026e-16 0)
(3 3.65312e-16 0)
(3 8.09792e-16 0)
(3 3.80285e-16 0)
(3 -1.95016e-16 0)
(3 -1.47233e-16 0)
(3 -1.55385e-16 0)
(3 1.80879e-17 0)
(3 6.88092e-16 0)
(3 6.24672e-16 0)
(3 -9.40671e-18 0)
(3 -1.09614e-16 0)
(3 -3.50492e-16 0)
(3 -9.2298e-17 0)
(3 1.68934e-16 0)
(3 5.55395e-16 0)
(3 6.28622e-16 0)
(3 1.65703e-16 0)
(3 -3.1301e-16 0)
(3 -4.3463e-16 0)
(3 -3.43776e-16 0)
(3 -1.50056e-15 0)
(3 -9.34132e-16 0)
(3 -2.79007e-16 0)
(3 3.26548e-17 0)
(3 -2.05354e-16 0)
(3 -3.59919e-16 0)
(3 -3.3089e-16 0)
(3 4.48369e-16 0)
(3 9.60207e-16 0)
(3 1.28945e-15 0)
(3 1.06079e-15 0)
(3 1.2276e-15 0)
(3 1.76449e-15 0)
(3 1.11035e-15 0)
(3 6.70079e-16 0)
(3 -2.76988e-17 0)
(3 -8.76679e-16 0)
(3 5.23252e-16 0)
(3 2.72642e-15 0)
(3 3.26773e-15 0)
(3 2.10629e-15 0)
(3 4.9853e-17 0)
(3 -1.90197e-15 0)
(3 -1.52342e-15 0)
(3 -4.74892e-16 0)
(3 -6.84086e-16 0)
(3 -6.43634e-16 0)
(3 2.1063e-16 0)
(3 -1.34384e-15 0)
(3 -7.78649e-16 0)
(3 -1.99951e-16 0)
(3 9.05427e-16 0)
(3 1.76841e-15 0)
(3 1.44076e-15 0)
(3 6.29368e-16 0)
(3 5.42261e-16 0)
(3 6.6536e-16 0)
(3 4.17688e-16 0)
(3 3.1201e-16 0)
(3 2.63394e-16 0)
(3 3.85278e-16 0)
(3 2.31409e-16 0)
(3 -4.1818e-16 0)
(3 -6.91931e-16 0)
(3 -9.64506e-16 0)
(3 -1.10609e-15 0)
(3 -1.04615e-15 0)
(3 -7.88231e-16 0)
(3 -1.76203e-15 0)
(3 -2.02112e-15 0)
(3 -1.11227e-15 0)
(3 4.43934e-16 0)
(3 1.93549e-15 0)
(3 2.54797e-15 0)
(3 2.59381e-15 0)
(3 3.0217e-15 0)
(3 2.33469e-15 0)
(3 1.21858e-15 0)
(3 1.20811e-15 0)
(3 8.13678e-16 0)
(3 1.20595e-15 0)
(3 7.76464e-16 0)
(3 9.35929e-16 0)
(3 1.3788e-15 0)
(3 1.35751e-15 0)
(3 3.89684e-16 0)
(3 -3.45116e-16 0)
(3 -1.07714e-15 0)
(3 -2.57436e-15 0)
(3 -3.95816e-15 0)
(3 -3.40016e-15 0)
(3 -3.33156e-15 0)
(3 -3.14655e-15 0)
(3 1.66948e-16 0)
(3 1.28367e-15 0)
(3 1.16309e-15 0)
(3 4.36519e-17 0)
(3 -2.54994e-16 0)
(3 -2.70725e-16 0)
(3 -5.59134e-16 0)
(3 -3.87574e-16 0)
(3 -1.76933e-16 0)
(3 -5.17209e-17 0)
(3 2.37444e-16 0)
(3 2.17099e-16 0)
(3 -2.32541e-17 0)
(3 -2.21151e-16 0)
(3 -2.25066e-16 0)
(3 -5.83133e-16 0)
(3 -2.86279e-16 0)
(3 4.33547e-16 0)
(3 4.36309e-16 0)
(3 4.46552e-16 0)
(3 3.28101e-16 0)
(3 2.52163e-16 0)
(3 1.76852e-16 0)
(3 1.18758e-16 0)
(3 -1.07342e-15 0)
(3 -2.27574e-15 0)
(3 -2.746e-15 0)
(3 -2.71104e-15 0)
(3 -2.66475e-15 0)
(3 -1.95031e-15 0)
(3 -5.64888e-16 0)
(3 1.25699e-16 0)
(3 7.8968e-16 0)
(3 1.28214e-15 0)
(3 1.88304e-15 0)
(3 1.51981e-15 0)
(3 1.50729e-15 0)
(3 3.24789e-15 0)
(3 3.65318e-15 0)
(3 3.39389e-15 0)
(3 2.18126e-15 0)
(3 1.82094e-15 0)
(3 2.43614e-15 0)
(3 1.73297e-15 0)
(3 -1.13349e-15 0)
(3 -1.55947e-15 0)
(3 -2.67639e-15 0)
(3 -2.85911e-15 0)
(3 -2.38203e-15 0)
(3 -7.48515e-16 0)
(3 -2.51559e-16 0)
(3 -2.6682e-15 0)
(3 -1.80351e-15 0)
(3 -1.76446e-15 0)
(3 -1.55002e-15 0)
(3 -1.1472e-15 0)
(3 -1.73195e-15 0)
(3 1.6338e-15 0)
(3 2.10794e-15 0)
(3 1.23041e-15 0)
(3 -4.59013e-16 0)
(3 -8.04981e-16 0)
(3 -7.85665e-16 0)
(3 -3.55651e-16 0)
(3 -3.85475e-16 0)
(3 -4.39376e-16 0)
(3 -5.45635e-16 0)
(3 -1.09686e-15 0)
(3 -1.55964e-15 0)
(3 -1.59151e-15 0)
(3 -1.51947e-15 0)
(3 -1.41895e-15 0)
(3 -5.87834e-16 0)
(3 -1.11337e-15 0)
(3 -1.17287e-15 0)
(3 -1.48454e-15 0)
(3 -1.46475e-15 0)
(3 -1.50769e-15 0)
(3 -1.09872e-15 0)
(3 -5.81136e-16 0)
(3 -5.88877e-16 0)
(3 8.89761e-16 0)
(3 1.98295e-15 0)
(3 2.45008e-15 0)
(3 2.20068e-15 0)
(3 2.03594e-15 0)
(3 2.38329e-15 0)
(3 1.99826e-15 0)
(3 4.81447e-16 0)
(3 -7.67112e-16 0)
(3 -2.45057e-15 0)
(3 -2.85495e-15 0)
(3 -2.07166e-15 0)
(3 -6.91559e-16 0)
(3 3.03558e-16 0)
(3 7.78507e-16 0)
(3 2.65571e-16 0)
(3 2.63693e-17 0)
(3 1.99015e-16 0)
(3 1.85354e-17 0)
(3 -1.3661e-16 0)
(3 2.15059e-16 0)
(3 2.60538e-16 0)
(3 4.37635e-17 0)
(3 -6.26249e-17 0)
(3 -2.2792e-16 0)
(3 -4.75931e-17 0)
(3 1.79541e-16 0)
(3 7.28561e-16 0)
(3 4.66063e-16 0)
(3 -3.22717e-16 0)
(3 -9.4892e-16 0)
(3 -1.1065e-15 0)
(3 -6.04891e-16 0)
(3 1.15339e-16 0)
(3 6.79106e-16 0)
(3 4.87081e-16 0)
(3 2.03404e-16 0)
(3 8.80966e-17 0)
(3 4.08168e-16 0)
(3 -2.09545e-16 0)
(3 -1.08625e-15 0)
(3 -2.20359e-15 0)
(3 -3.23528e-15 0)
(3 -3.26455e-15 0)
(3 -2.67633e-15 0)
(3 -2.1128e-15 0)
(3 -1.39377e-15 0)
(3 -8.67047e-16 0)
(3 -2.13449e-16 0)
(3 8.69561e-17 0)
(3 7.84543e-16 0)
(3 3.37767e-15 0)
(3 5.22707e-15 0)
(3 6.62964e-15 0)
(3 7.13209e-15 0)
(3 5.84332e-15 0)
(3 3.78161e-15 0)
(3 2.41925e-15 0)
(3 1.1043e-15 0)
(3 2.32279e-16 0)
(3 -2.29234e-16 0)
(3 -1.45289e-15 0)
(3 -1.82215e-15 0)
(3 -1.29151e-15 0)
(3 -1.27845e-15 0)
(3 -1.25887e-15 0)
(3 -1.5232e-15 0)
(3 -5.74668e-16 0)
(3 -3.54358e-16 0)
(3 -1.59748e-15 0)
(3 -4.01298e-15 0)
(3 -3.49614e-15 0)
(3 1.94526e-16 0)
(3 1.18879e-15 0)
(3 1.07073e-15 0)
(3 9.70884e-16 0)
(3 2.05453e-16 0)
(3 -4.47928e-16 0)
(3 -3.82854e-16 0)
(3 -3.83023e-16 0)
(3 -2.21842e-16 0)
(3 -1.27476e-16 0)
(3 -7.67333e-16 0)
(3 -8.08319e-16 0)
(3 1.8515e-16 0)
(3 2.18311e-16 0)
(3 2.14314e-16 0)
(3 1.39422e-16 0)
(3 -7.5727e-16 0)
(3 -1.97918e-15 0)
(3 -3.02095e-15 0)
(3 -2.91209e-15 0)
(3 -2.0823e-15 0)
(3 -1.0195e-15 0)
(3 -4.03652e-16 0)
(3 1.01524e-15 0)
(3 2.14453e-15 0)
(3 2.68628e-15 0)
(3 2.03845e-15 0)
(3 1.82174e-15 0)
(3 1.61331e-15 0)
(3 1.28361e-15 0)
(3 8.32911e-16 0)
(3 5.76088e-16 0)
(3 -1.36929e-17 0)
(3 -2.48729e-16 0)
(3 6.3123e-17 0)
(3 8.89237e-16 0)
(3 1.36734e-15 0)
(3 1.3076e-15 0)
(3 3.39384e-16 0)
(3 -1.46867e-15 0)
(3 -1.71515e-15 0)
(3 -1.32658e-15 0)
(3 2.0664e-17 0)
(3 5.47498e-16 0)
(3 7.37621e-16 0)
(3 9.88794e-16 0)
(3 5.8525e-16 0)
(3 1.90768e-16 0)
(3 -7.10339e-16 0)
(3 -1.24168e-15 0)
(3 -1.38603e-15 0)
(3 -7.86632e-16 0)
(3 -9.05153e-17 0)
(3 -1.02881e-16 0)
(3 -2.3712e-16 0)
(3 -1.89255e-16 0)
(3 -4.50566e-16 0)
(3 -1.09302e-16 0)
(3 3.79676e-16 0)
(3 6.33194e-16 0)
(3 4.64603e-16 0)
(3 5.04732e-16 0)
(3 6.28062e-16 0)
(3 1.1672e-15 0)
(3 1.11163e-15 0)
(3 5.1214e-16 0)
(3 7.74527e-17 0)
(3 -1.42908e-15 0)
(3 -2.75448e-15 0)
(3 -2.7692e-15 0)
(3 -3.12413e-15 0)
(3 -2.69586e-15 0)
(3 -1.46105e-15 0)
(3 -8.61581e-16 0)
(3 1.05283e-18 0)
(3 7.72195e-16 0)
(3 1.96521e-15 0)
(3 4.62748e-15 0)
(3 4.08217e-15 0)
(3 2.85118e-15 0)
(3 2.17136e-15 0)
(3 -1.02656e-15 0)
(3 -2.9162e-15 0)
(3 -2.37055e-15 0)
(3 -1.34182e-15 0)
(3 -9.54612e-16 0)
(3 3.17685e-16 0)
(3 1.17499e-15 0)
(3 1.13218e-15 0)
(3 8.38977e-16 0)
(3 1.12477e-15 0)
(3 -1.0652e-15 0)
(3 -1.39174e-15 0)
(3 -2.44523e-15 0)
(3 -3.69043e-15 0)
(3 -3.77715e-15 0)
(3 -3.51379e-15 0)
(3 -2.01222e-15 0)
(3 -2.36307e-16 0)
(3 8.361e-16 0)
(3 5.87973e-16 0)
(3 1.60383e-16 0)
(3 -4.21713e-17 0)
(3 -3.37573e-16 0)
(3 -3.99589e-16 0)
(3 -8.84618e-16 0)
(3 -1.42716e-15 0)
(3 -1.37378e-15 0)
(3 -1.28057e-15 0)
(3 -7.25409e-16 0)
(3 -1.00913e-15 0)
(3 -2.2021e-15 0)
(3 -2.79886e-15 0)
(3 -3.39964e-15 0)
(3 -4.82205e-15 0)
(3 -4.90189e-15 0)
(3 -3.57805e-15 0)
(3 -1.05228e-15 0)
(3 -6.72706e-16 0)
(3 -1.17398e-15 0)
(3 -1.76943e-15 0)
(3 -2.27123e-15 0)
(3 -1.92019e-15 0)
(3 -7.03329e-16 0)
(3 1.79982e-16 0)
(3 1.82349e-16 0)
(3 5.21711e-16 0)
(3 8.05804e-16 0)
(3 6.38096e-16 0)
(3 9.92966e-16 0)
(3 2.42311e-15 0)
(3 2.48023e-15 0)
(3 2.19609e-15 0)
(3 1.13899e-15 0)
(3 -2.43257e-16 0)
(3 -1.71631e-15 0)
(3 -1.62215e-15 0)
(3 -1.94165e-15 0)
(3 -5.67249e-17 0)
(3 -3.90492e-16 0)
(3 -5.00845e-16 0)
(3 -4.14435e-16 0)
(3 -3.44201e-16 0)
(3 -3.33058e-16 0)
(3 -2.70757e-16 0)
(3 -2.74683e-16 0)
(3 -6.04344e-16 0)
(3 -8.15548e-16 0)
(3 -7.21824e-16 0)
(3 -2.92329e-16 0)
(3 1.14956e-16 0)
(3 1.09011e-16 0)
(3 -9.32197e-17 0)
(3 -4.58062e-16 0)
(3 -4.41461e-16 0)
(3 1.03943e-16 0)
(3 4.54804e-16 0)
(3 1.29921e-15 0)
(3 1.96896e-15 0)
(3 2.10044e-15 0)
(3 2.00616e-15 0)
(3 1.71876e-15 0)
(3 2.06369e-15 0)
(3 1.14934e-15 0)
(3 -5.05772e-16 0)
(3 -1.0583e-15 0)
(3 -1.28422e-15 0)
(3 -4.03807e-16 0)
(3 2.42593e-16 0)
(3 -1.55642e-16 0)
(3 -7.16333e-17 0)
(3 -7.52858e-16 0)
(3 -1.03036e-15 0)
(3 6.2713e-16 0)
(3 1.89577e-15 0)
(3 2.48235e-16 0)
(3 -2.36723e-15 0)
(3 -3.5809e-15 0)
(3 -3.67789e-15 0)
(3 -2.61869e-15 0)
(3 1.14206e-15 0)
(3 2.08489e-15 0)
(3 1.99018e-15 0)
(3 2.28505e-15 0)
(3 2.83175e-15 0)
(3 1.61662e-15 0)
(3 2.3703e-16 0)
(3 -1.96181e-16 0)
(3 -3.04888e-15 0)
(3 -3.88452e-15 0)
(3 -2.85849e-15 0)
(3 -3.20209e-15 0)
(3 -5.27445e-15 0)
(3 -4.88361e-15 0)
(3 -4.12433e-15 0)
(3 -3.23923e-15 0)
(3 1.05932e-16 0)
(3 1.31169e-15 0)
(3 5.84206e-16 0)
(3 5.81377e-16 0)
(3 6.66679e-17 0)
(3 -9.15327e-16 0)
(3 -1.81406e-15 0)
(3 -1.87665e-15 0)
(3 -3.99632e-15 0)
(3 -4.98762e-15 0)
(3 -4.87035e-15 0)
(3 -3.97552e-15 0)
(3 -3.82795e-15 0)
(3 -4.30158e-15 0)
(3 -5.08038e-15 0)
(3 -5.48985e-15 0)
(3 -4.67213e-15 0)
(3 -2.63268e-15 0)
(3 -2.37169e-15 0)
(3 -2.5161e-15 0)
(3 -3.43752e-15 0)
(3 -4.54963e-15 0)
(3 -4.62258e-15 0)
(3 -3.85675e-15 0)
(3 -2.12345e-15 0)
(3 -2.65482e-16 0)
(3 1.26489e-15 0)
(3 1.13698e-15 0)
(3 1.06411e-15 0)
(3 7.42184e-16 0)
(3 2.30217e-15 0)
(3 3.07217e-15 0)
(3 2.78181e-15 0)
(3 2.14579e-15 0)
(3 1.41113e-15 0)
(3 2.86228e-16 0)
(3 -1.09078e-15 0)
(3 -1.02392e-15 0)
(3 -1.49488e-17 0)
(3 -2.31143e-18 0)
(3 1.87916e-16 0)
(3 1.76318e-16 0)
(3 5.77349e-16 0)
(3 2.2232e-16 0)
(3 1.74182e-16 0)
(3 2.97791e-16 0)
(3 1.60237e-16 0)
(3 -4.13374e-16 0)
(3 -1.02582e-15 0)
(3 -1.13781e-15 0)
(3 -9.06193e-16 0)
(3 -7.2194e-16 0)
(3 -5.54811e-16 0)
(3 -5.49466e-16 0)
(3 8.88015e-18 0)
(3 7.9707e-16 0)
(3 1.24991e-15 0)
(3 1.36388e-15 0)
(3 1.54785e-15 0)
(3 1.75898e-15 0)
(3 1.44127e-15 0)
(3 9.15381e-16 0)
(3 9.27506e-16 0)
(3 1.55602e-15 0)
(3 1.73447e-15 0)
(3 7.86958e-16 0)
(3 2.23284e-16 0)
(3 6.09602e-16 0)
(3 4.56245e-16 0)
(3 3.86044e-16 0)
(3 -1.26209e-15 0)
(3 -2.7127e-15 0)
(3 -3.57138e-15 0)
(3 -3.00026e-15 0)
(3 -2.21725e-15 0)
(3 -1.64305e-15 0)
(3 -1.60924e-15 0)
(3 -1.38409e-15 0)
(3 -1.57637e-15 0)
(3 -6.62607e-16 0)
(3 2.48241e-15 0)
(3 2.96336e-15 0)
(3 2.44013e-15 0)
(3 4.11636e-16 0)
(3 -4.104e-16 0)
(3 -1.19614e-15 0)
(3 -1.70377e-15 0)
(3 -8.72893e-16 0)
(3 -1.6568e-15 0)
(3 -2.6077e-15 0)
(3 -5.09853e-16 0)
(3 -5.15745e-16 0)
(3 -1.44507e-15 0)
(3 -3.68864e-15 0)
(3 -4.26332e-15 0)
(3 -3.03425e-15 0)
(3 -2.22757e-16 0)
(3 2.22515e-15 0)
(3 3.42065e-15 0)
(3 2.61382e-15 0)
(3 1.19936e-15 0)
(3 2.53074e-16 0)
(3 -7.1133e-16 0)
(3 -1.73676e-15 0)
(3 -2.09889e-15 0)
(3 -3.81967e-15 0)
(3 -3.76296e-15 0)
(3 -2.61896e-15 0)
(3 -3.00024e-15 0)
(3 -3.69076e-15 0)
(3 -4.2616e-15 0)
(3 -4.43767e-15 0)
(3 -3.39744e-15 0)
(3 -2.84584e-15 0)
(3 -1.97298e-15 0)
(3 -8.37795e-16 0)
(3 -7.76473e-16 0)
(3 -2.11564e-15 0)
(3 -3.05879e-15 0)
(3 -3.54075e-15 0)
(3 -2.19257e-15 0)
(3 9.76933e-17 0)
(3 1.06238e-15 0)
(3 2.5929e-15 0)
(3 3.65433e-15 0)
(3 3.40257e-15 0)
(3 4.20026e-15 0)
(3 4.23083e-15 0)
(3 4.07395e-15 0)
(3 3.72984e-15 0)
(3 3.01437e-15 0)
(3 2.52523e-15 0)
(3 1.39318e-15 0)
(3 5.97824e-16 0)
(3 5.55018e-17 0)
(3 5.68075e-16 0)
(3 7.03665e-16 0)
(3 9.51308e-16 0)
(3 1.17965e-15 0)
(3 1.48106e-15 0)
(3 9.15445e-16 0)
(3 6.46641e-16 0)
(3 1.92106e-16 0)
(3 7.61772e-17 0)
(3 1.16689e-16 0)
(3 2.07206e-16 0)
(3 3.67658e-16 0)
(3 6.88372e-16 0)
(3 -6.01734e-16 0)
(3 -5.5377e-16 0)
(3 8.64223e-16 0)
(3 1.40116e-15 0)
(3 1.93981e-15 0)
(3 1.60145e-15 0)
(3 1.29282e-15 0)
(3 1.04685e-15 0)
(3 4.45479e-16 0)
(3 5.49637e-16 0)
(3 4.37168e-16 0)
(3 9.45264e-16 0)
(3 1.10692e-15 0)
(3 7.76843e-16 0)
(3 -2.76715e-16 0)
(3 -8.34451e-16 0)
(3 -6.78761e-16 0)
(3 2.25996e-16 0)
(3 -8.09891e-16 0)
(3 -2.26194e-15 0)
(3 -2.63069e-15 0)
(3 -2.65264e-15 0)
(3 -2.63388e-15 0)
(3 -3.07621e-15 0)
(3 -2.42421e-15 0)
(3 -1.30112e-15 0)
(3 -9.22995e-16 0)
(3 -5.65271e-16 0)
(3 -4.25346e-16 0)
(3 3.43202e-16 0)
(3 4.06157e-16 0)
(3 3.36458e-16 0)
(3 -4.33636e-16 0)
(3 -9.46565e-16 0)
(3 -5.08834e-16 0)
(3 -4.33029e-17 0)
(3 -3.36001e-16 0)
(3 8.73479e-16 0)
(3 1.49809e-15 0)
(3 1.8039e-15 0)
(3 1.73253e-15 0)
(3 -1.27239e-16 0)
(3 -1.60758e-15 0)
(3 -1.60007e-15 0)
(3 -1.90095e-15 0)
(3 -1.82841e-15 0)
(3 -1.21989e-15 0)
(3 -1.19002e-15 0)
(3 -1.16699e-15 0)
(3 -1.25593e-15 0)
(3 2.05074e-17 0)
(3 1.49132e-15 0)
(3 2.18864e-15 0)
(3 1.58104e-15 0)
(3 4.16053e-16 0)
(3 -5.07052e-16 0)
(3 -3.37743e-15 0)
(3 -5.06571e-15 0)
(3 -4.5285e-15 0)
(3 -4.02208e-15 0)
(3 -3.55746e-15 0)
(3 -3.17855e-15 0)
(3 -2.22319e-15 0)
(3 -1.09492e-15 0)
(3 -6.85362e-16 0)
(3 -1.17877e-15 0)
(3 -1.14945e-15 0)
(3 -5.65906e-16 0)
(3 -6.38734e-17 0)
(3 -4.24615e-16 0)
(3 -1.27329e-15 0)
(3 5.84578e-16 0)
(3 3.18984e-15 0)
(3 3.73658e-15 0)
(3 3.57678e-15 0)
(3 2.61467e-15 0)
(3 2.23023e-15 0)
(3 1.71355e-15 0)
(3 1.72016e-15 0)
(3 5.61164e-16 0)
(3 -3.22272e-16 0)
(3 -9.60482e-16 0)
(3 4.47469e-18 0)
(3 3.24482e-17 0)
(3 1.95033e-16 0)
(3 3.60206e-16 0)
(3 -8.67398e-17 0)
(3 5.44645e-16 0)
(3 6.98409e-16 0)
(3 7.51411e-16 0)
(3 7.68575e-16 0)
(3 9.82765e-16 0)
(3 1.50977e-15 0)
(3 1.68575e-15 0)
(3 1.58719e-15 0)
(3 8.55953e-16 0)
(3 5.32634e-16 0)
(3 2.15358e-16 0)
(3 -2.46145e-16 0)
(3 -1.11423e-16 0)
(3 5.18024e-16 0)
(3 4.39854e-16 0)
(3 7.78306e-16 0)
(3 8.55162e-16 0)
(3 5.85744e-16 0)
(3 4.23128e-16 0)
(3 3.53963e-16 0)
(3 -2.17318e-17 0)
(3 -1.02596e-15 0)
(3 -1.65333e-15 0)
(3 -1.5678e-15 0)
(3 -7.11452e-16 0)
(3 2.25804e-15 0)
(3 2.63243e-15 0)
(3 2.15899e-15 0)
(3 9.73188e-16 0)
(3 1.13054e-16 0)
(3 -2.25066e-15 0)
(3 -3.53354e-15 0)
(3 -2.54587e-15 0)
(3 -1.07781e-15 0)
(3 -5.67616e-16 0)
(3 -8.39745e-16 0)
(3 -1.91522e-15 0)
(3 -4.12279e-15 0)
(3 -4.02316e-15 0)
(3 -2.11651e-15 0)
(3 3.5745e-16 0)
(3 1.44182e-15 0)
(3 1.78978e-15 0)
(3 1.29586e-15 0)
(3 9.35733e-16 0)
(3 1.44716e-15 0)
(3 3.00909e-15 0)
(3 3.50449e-15 0)
(3 1.88085e-15 0)
(3 -2.885e-16 0)
(3 -1.31072e-16 0)
(3 -3.29744e-16 0)
(3 -1.39278e-15 0)
(3 -3.49209e-15 0)
(3 -3.66493e-15 0)
(3 -3.95827e-15 0)
(3 -3.21435e-15 0)
(3 -1.35697e-16 0)
(3 1.14649e-15 0)
(3 2.5142e-15 0)
(3 4.53847e-15 0)
(3 5.07798e-15 0)
(3 4.59407e-15 0)
(3 2.68905e-15 0)
(3 1.44333e-15 0)
(3 -2.58686e-16 0)
(3 -1.87651e-15 0)
(3 -2.38824e-15 0)
(3 -3.7042e-15 0)
(3 -3.82163e-15 0)
(3 -3.86545e-15 0)
(3 -3.15017e-15 0)
(3 -2.80227e-15 0)
(3 -1.8829e-15 0)
(3 -1.44911e-15 0)
(3 -5.93715e-16 0)
(3 -6.90019e-17 0)
(3 -4.30631e-16 0)
(3 -1.96956e-15 0)
(3 -1.27851e-15 0)
(3 9.93151e-16 0)
(3 8.4939e-16 0)
(3 5.72442e-16 0)
(3 -1.63481e-16 0)
(3 -1.39321e-15 0)
(3 -2.06545e-15 0)
(3 -2.31006e-15 0)
(3 -2.24008e-15 0)
(3 -3.01162e-15 0)
(3 -4.9045e-15 0)
(3 -4.70722e-15 0)
(3 -3.54435e-17 0)
(3 -1.30021e-16 0)
(3 1.95719e-16 0)
(3 -2.88276e-16 0)
(3 -5.0744e-16 0)
(3 -6.60146e-16 0)
(3 -4.68121e-16 0)
(3 -3.94203e-16 0)
(3 3.37006e-16 0)
(3 3.0984e-16 0)
(3 3.37577e-16 0)
(3 6.58085e-16 0)
(3 6.52916e-16 0)
(3 6.55231e-16 0)
(3 1.63831e-15 0)
(3 1.48981e-15 0)
(3 -3.47113e-16 0)
(3 -1.21094e-15 0)
(3 -9.03993e-16 0)
(3 -7.51688e-16 0)
(3 -9.41244e-16 0)
(3 -4.9691e-16 0)
(3 -3.45503e-16 0)
(3 -6.1702e-16 0)
(3 -7.36422e-16 0)
(3 -1.40675e-15 0)
(3 -1.04645e-15 0)
(3 1.0962e-15 0)
(3 1.83143e-15 0)
(3 2.27078e-15 0)
(3 2.30688e-15 0)
(3 3.07479e-15 0)
(3 4.53223e-15 0)
(3 4.02694e-15 0)
(3 2.29846e-15 0)
(3 -9.42363e-17 0)
(3 -1.64417e-15 0)
(3 -1.24176e-15 0)
(3 -8.78497e-16 0)
(3 -7.58151e-16 0)
(3 -1.14753e-15 0)
(3 -2.29893e-15 0)
(3 -2.07617e-15 0)
(3 -1.74456e-15 0)
(3 -8.91543e-16 0)
(3 2.27866e-16 0)
(3 1.22672e-15 0)
(3 1.41068e-15 0)
(3 1.47901e-15 0)
(3 2.51333e-15 0)
(3 3.7793e-15 0)
(3 4.04671e-15 0)
(3 3.42916e-15 0)
(3 1.77778e-15 0)
(3 2.3642e-15 0)
(3 2.51749e-15 0)
(3 9.3735e-16 0)
(3 -1.73564e-15 0)
(3 -2.87353e-15 0)
(3 -1.29798e-15 0)
(3 -1.39998e-15 0)
(3 -1.50932e-15 0)
(3 -2.34406e-16 0)
(3 1.39007e-15 0)
(3 2.42232e-15 0)
(3 3.34814e-15 0)
(3 4.37959e-15 0)
(3 3.48177e-15 0)
(3 2.29984e-15 0)
(3 1.57059e-15 0)
(3 1.44247e-15 0)
(3 1.15319e-15 0)
(3 3.32146e-16 0)
(3 1.39254e-16 0)
(3 3.8472e-16 0)
(3 -4.25086e-16 0)
(3 -1.15749e-15 0)
(3 -1.45331e-15 0)
(3 -1.32232e-15 0)
(3 -1.36764e-15 0)
(3 -5.41315e-16 0)
(3 -3.14607e-16 0)
(3 1.16973e-15 0)
(3 1.71688e-15 0)
(3 1.15634e-15 0)
(3 2.0257e-16 0)
(3 -2.89148e-16 0)
(3 -8.23669e-16 0)
(3 -1.70371e-15 0)
(3 -1.34275e-15 0)
(3 -1.45969e-15 0)
(3 -1.63036e-15 0)
(3 -4.19958e-18 0)
(3 4.53064e-16 0)
(3 4.99848e-16 0)
(3 3.12621e-16 0)
(3 1.01458e-17 0)
(3 5.29446e-17 0)
(3 -4.54646e-16 0)
(3 -1.26302e-15 0)
(3 -6.43319e-16 0)
(3 -2.83829e-16 0)
(3 4.42304e-17 0)
(3 2.09715e-16 0)
(3 1.40233e-16 0)
(3 3.79969e-16 0)
(3 4.70036e-16 0)
(3 8.55971e-16 0)
(3 6.50228e-16 0)
(3 8.7367e-16 0)
(3 1.00582e-15 0)
(3 9.63521e-16 0)
(3 6.38559e-16 0)
(3 -4.47946e-16 0)
(3 -1.086e-15 0)
(3 -1.3463e-15 0)
(3 -1.4364e-15 0)
(3 -1.34019e-15 0)
(3 -7.82832e-16 0)
(3 -8.08006e-16 0)
(3 -9.41868e-16 0)
(3 -1.03276e-15 0)
(3 -1.32152e-16 0)
(3 1.16626e-15 0)
(3 3.20979e-15 0)
(3 2.84796e-15 0)
(3 1.2776e-15 0)
(3 1.37118e-15 0)
(3 1.75702e-15 0)
(3 2.45286e-15 0)
(3 3.24784e-15 0)
(3 2.50708e-15 0)
(3 1.06676e-15 0)
(3 2.25402e-16 0)
(3 1.40143e-15 0)
(3 1.93047e-15 0)
(3 2.29454e-15 0)
(3 1.75523e-15 0)
(3 4.56065e-16 0)
(3 2.87723e-17 0)
(3 8.69307e-17 0)
(3 3.02102e-16 0)
(3 4.63236e-16 0)
(3 5.84243e-16 0)
(3 2.14799e-15 0)
(3 3.60341e-15 0)
(3 4.1803e-15 0)
(3 3.65528e-15 0)
(3 2.20493e-15 0)
(3 2.64368e-15 0)