/*--------------------------------*- C++ -*----------------------------------*\
  =========                 |
  \\      /  F ield         | OpenFOAM: The Open Source CFD Toolbox
   \\    /   O peration     | Website:  https://openfoam.org
    \\  /    A nd           | Version:  7
     \\/     M anipulation  |
\*---------------------------------------------------------------------------*/
FoamFile
{
    version     2.0;
    format      ascii;
    class       volScalarField;
    location    "1.5";
    object      p;
}
// * * * * * * * * * * * * * * * * * * * * * * * * * * * * * * * * * * * * * //

dimensions      [1 -1 -2 0 0 0 0];

internalField   nonuniform List<scalar> 
4608
(
1
1
1
1
1
1
1
1
1
1
1
1
1
1
1
1
1
1
1
1
1
1
1
1
1
1
1
1
1
1
1
1
1
1
1
1
1
1
1
1
1
1
1
1
1
1
1
1
1
1
1
1
1
1
1
1
1
1
1
1
1
1
1
1
1
1
1
1
1
1
1
1
1
1
1
1
1
1
1
1
1
1
1
1
1
1
1
1
1
1
1
1
1
1
1
1
1
1
1
1
1
1
1
1
1
1
1
1
1
1
1
1
1
1
1
1
1
1
1
1
1
1
1
1
1
1
1
1
1
1
1
1
1
1
1
1
1
1
1
1
1
1
1
1
1
1
1
1
1
1
1
1
1
1
1
1
1
1
1
1
1
1
1
1
1
1
1
1
1
1
1
1
1
1
1
1
1
1
1
1
1
1
1
1
1
1
1
1
1
1
1
1
1
1
1
1
1
1
1
1
1
1
1
1
1
1
1
1
1
1
1
1
1
1
1
1
1
1
1
1
1
1
1
1
1
1
1
1
1
1
1
1
1
1
1
1
1
1
1
1
1
1
1
1
1
1
1
1
1
1
1
1
1
1
1
1
1
1
1
1
1
1
1
1
1
1
1
1
1
1
1
1
1
1
1
1
1
1
1
1
1
1
1
1
1
1
1
1
1
1
1
1
1
1
1
1
1
1
1
1
1
1
1
1
1
1
1
1
1
1
1
1
1
1
1
1
1
1
1
1
1
1
1
1
1
1
1
1
1
1
1
1
1
1
1
1
1
1
1
1
1
1
1
1
1
1
1
1
1
1
1
1
1
1
1
1
1
1
1
1
1
1
1
1
1
1
1
1
1
1
1
1
1
1
1
1
1
1
1
1
1
1
1
1
1
1
1
1
1
1
1
1
1
1
1
1
1
1
1
1
1
1
1
1
1
1
1
1
1
1
1
1
1
1
1
1
1
1
1
1
1
1
1
1
1
1
1
1
1
1
1
1
1
1
1
1
1
1
1
1
1
1
1
1
1
1
1
1
1
1
1
1
1
1
1
1
1
1
1
1
1
1
1
1
1
1
1
1
1
1
1
1
1
1
1
1
1
1
1
1
1
1
1
1
1
1
1
1
1
1
1
1
1
1
1
1
1
1
1
1
1
1
1
1
1
1
1
1
1
1
1
1
1
1
1
1
1
1
1
1
1
1
1
1
1
1
1
1
1
1
1
1
1
1
1
1
1
1
1
1
1
1
1
1
1
1
1
1
1
1
1
1
1
1
1
1
1
1
1
1
1
1
1
1
1
1
1
1
1
1
1
1
1
1
1
1
1
1
1
1
1
1
1
1
1
1
1
1
1
1
1
1
1
1
1
1
1
1
1
1
1
1
1
1
1
1
1
1
1
1
1
1
1
1
1
1
1
1
1
1
1
1
1
1
1
1
1
1
1
1
1
1
1
1
1
1
1
1
1
1
1
1
1
1
1
1
1
1
1
1
1
1
1
1
1
1
1
1
1
1
1
1
1
1
1
1
1
1
1
1
1
1
1
1
1
1
1
1
1
1
1
1
1
1
1
1
1
1
1
1
1
1
1
1
1
1
1
1
1
1
1
1
1
1
1
1
1
1
1
1
1
1
1
1
1
1
1
1
1
1
1
1
1
1
1
1
1
1
1
1
1
1
1
1
1
1
1
1
1
1
1
1
1
1
1
1
1
1
1
1
1
1
1
1
1
1
1
1
1
1
1
1
1
1
1
1
1
1
1.29391
1.75444
2.3288
2.99431
3.61275
4.3296
4.84029
5.28851
5.35475
5.16076
4.73765
4.21502
3.79547
3.66758
3.57293
3.56831
3.59754
3.64705
3.70042
3.73092
3.73667
3.73596
3.73466
3.74625
1.00225
1.02257
1.08025
1.21791
1.47382
1.84894
2.37356
2.99735
3.55958
3.8204
4.08586
4.02915
3.93004
3.86789
3.80913
3.72472
3.68925
3.68201
3.69231
3.71645
3.73523
3.74696
3.74731
3.75258
0.999996
1.00002
1.00002
1.00014
1.00361
1.02263
1.1111
1.35932
2.00123
2.9725
3.895
4.27894
4.3508
4.26733
4.12792
3.89881
3.73376
3.68034
3.67863
3.69844
3.73393
3.75629
3.75958
3.76502
1
1
0.999998
0.999997
0.999985
1.00003
0.999984
1.00161
1.03645
1.29639
2.04654
3.10276
3.9678
4.10977
4.04172
4.00375
3.91779
3.79071
3.71616
3.70071
3.70972
3.73335
3.75116
3.76035
1
1
1
1
0.999999
0.999999
0.999997
0.999997
0.999894
1.00144
1.03811
1.37623
2.20766
3.34078
3.82635
4.10863
4.08512
3.98577
3.79715
3.71973
3.68251
3.67887
3.69652
3.72303
1
1
1
1
1
1
1
1
0.999988
0.999989
0.999897
1.00399
1.06591
1.53313
2.46995
3.58736
3.95128
3.91817
3.87659
3.81652
3.75551
3.69399
3.6897
3.70451
1
1
1
1
1
1
1
1
1
0.999999
0.999987
0.999992
0.999961
1.01185
1.1597
1.79536
2.84862
3.67901
3.93946
3.93675
3.87735
3.78341
3.74321
3.72662
1
1
1
1
1
1
1
1
1
1
1
0.999999
0.999995
0.99996
1.00088
1.03468
1.36123
2.27412
3.20165
3.70135
3.83229
3.81005
3.74655
3.72182
1
1
1
1
1
1
1
1
1
1
1
1
1
0.999995
0.999992
1
1.00765
1.12579
1.75397
2.88002
3.6005
3.67677
3.71335
3.71463
1
1
1
1
1
1
1
1
1
1
1
1
1
1
0.999998
0.999998
0.999982
1.00122
1.05174
1.40669
2.3748
3.30907
3.76428
3.7821
1
1
1
1
1
1
1
1
1
1
1
1
1
1
1
1
0.999998
0.999992
1.00027
1.01356
1.2374
1.98739
3.11818
3.47227
1
1
1
1
1
1
1
1
1
1
1
1
1
1
1
1
1
0.999998
0.999997
1.00001
1.00718
1.10539
1.72237
2.78884
1
1
1
1
1
1
1
1
1
1
1
1
1
1
1
1
1
1
0.999999
0.999999
1
1.00181
1.0673
1.50662
1
1
1
1
1
1
1
1
1
1
1
1
1
1
1
1
1
1
1
1
1
0.999999
1.0014
1.02764
1
1
1
1
1
1
1
1
1
1
1
1
1
1
1
1
1
1
1
1
1
1
1.00002
1.00001
1
1
1
1
1
1
1
1
1
1
1
1
1
1
1
1
1
1
1
1
1
1
1
0.999993
1
1
1
1
1
1
1
1
1
1
1
1
1
1
1
1
1
1
1
1
1
1
1
0.999993
1
1
1
1
1
1
1
1
1
1
1
1
1
1
1
1
1
1
1
1
1
1
1.00002
1.00001
1
1
1
1
1
1
1
1
1
1
1
1
1
1
1
1
1
1
1
1
1
0.999999
1.0014
1.02766
1
1
1
1
1
1
1
1
1
1
1
1
1
1
1
1
1
1
0.999999
0.999999
1
1.00181
1.06732
1.50662
1
1
1
1
1
1
1
1
1
1
1
1
1
1
1
1
1
0.999998
0.999997
1.00001
1.00718
1.10538
1.72245
2.78862
1
1
1
1
1
1
1
1
1
1
1
1
1
1
1
1
0.999998
0.999992
1.00027
1.01356
1.23741
1.98743
3.11813
3.47219
1
1
1
1
1
1
1
1
1
1
1
1
1
1
0.999998
0.999998
0.999982
1.00122
1.05174
1.4067
2.37477
3.30912
3.76427
3.78208
1
1
1
1
1
1
1
1
1
1
1
1
1
0.999995
0.999992
1
1.00765
1.12579
1.75397
2.88003
3.60049
3.67678
3.71335
3.71462
1
1
1
1
1
1
1
1
1
1
1
0.999999
0.999995
0.99996
1.00088
1.03468
1.36123
2.27412
3.20165
3.70135
3.83229
3.81005
3.74656
3.72182
1
1
1
1
1
1
1
1
1
0.999999
0.999987
0.999992
0.999961
1.01185
1.1597
1.79536
2.84862
3.67901
3.93946
3.93675
3.87735
3.78341
3.74321
3.72662
1
1
1
1
1
1
1
1
0.999988
0.999989
0.999897
1.00399
1.06591
1.53313
2.46995
3.58736
3.95128
3.91817
3.87659
3.81652
3.75551
3.69399
3.6897
3.70451
1
1
1
1
0.999999
0.999999
0.999997
0.999997
0.999894
1.00144
1.03811
1.37623
2.20766
3.34078
3.82635
4.10863
4.08512
3.98577
3.79715
3.71973
3.68251
3.67887
3.69652
3.72303
1
1
0.999998
0.999997
0.999985
1.00003
0.999984
1.00161
1.03645
1.29639
2.04654
3.10276
3.9678
4.10977
4.04172
4.00375
3.91779
3.79071
3.71616
3.70071
3.70972
3.73335
3.75116
3.76035
0.999996
1.00002
1.00002
1.00014
1.00361
1.02263
1.1111
1.35932
2.00123
2.9725
3.895
4.27894
4.3508
4.26733
4.12792
3.89881
3.73376
3.68034
3.67863
3.69844
3.73393
3.75629
3.75958
3.76502
1.00225
1.02257
1.08025
1.21791
1.47382
1.84894
2.37356
2.99735
3.55958
3.8204
4.08586
4.02915
3.93004
3.86789
3.80913
3.72472
3.68925
3.68201
3.69231
3.71645
3.73523
3.74696
3.74731
3.75258
1.29391
1.75444
2.3288
2.99431
3.61275
4.3296
4.84029
5.28851
5.35475
5.16076
4.73765
4.21502
3.79547
3.66758
3.57293
3.56831
3.59754
3.64705
3.70042
3.73092
3.73667
3.73596
3.73466
3.74625
2.64322
1.69912
1.11877
0.851914
0.72696
0.659237
0.639254
0.665874
0.769507
0.885713
0.952583
0.987054
0.997208
0.993404
0.989051
1.01094
1.07138
1.08506
1.08267
1.07339
1.05367
1.04325
1.04964
1.1292
1.53685
2.78588
4.64242
6.85449
8.92412
9.36549
8.65686
7.55057
6.84416
6.53394
6.33741
6.13456
5.90247
5.67714
5.47081
5.2668
5.04959
4.82863
4.61884
4.41742
4.23791
4.09293
3.97431
3.86735
3.76023
3.64342
3.50396
3.33143
3.15611
3.03764
2.96495
2.90405
2.84241
2.77692
2.70148
2.61268
2.51181
2.41489
2.33451
2.27787
2.22689
2.17401
2.12273
2.06464
1.9996
1.93458
1.87762
1.83058
1.78709
1.75722
1.73005
1.72804
1.7635
1.89212
2.14105
2.51478
2.94994
3.33151
3.65276
3.86043
4.04094
4.09849
4.09005
4.01591
3.9319
3.84559
3.768
3.69811
3.6182
3.51282
3.38833
3.22066
3.35419
2.75883
2.1656
1.72673
1.50713
1.30817
1.07537
0.99535
1.00726
0.986927
0.948324
0.925391
0.913617
0.919048
0.928979
0.961925
1.00327
1.02722
1.03107
1.03196
1.02306
1.027
1.1173
1.65366
2.54969
3.0614
3.60194
4.31912
5.67089
6.86409
7.52863
7.40059
7.03587
6.68923
6.41313
6.16282
5.94711
5.7492
5.54523
5.33111
5.1079
4.88652
4.67497
4.48909
4.32407
4.17162
4.04242
3.93251
3.82276
3.69858
3.55335
3.38462
3.22751
3.11359
3.02948
2.9649
2.90107
2.83114
2.75414
2.66855
2.57291
2.47557
2.3904
2.32616
2.27287
2.2187
2.16576
2.1064
2.04437
1.98322
1.92617
1.87128
1.83198
1.82124
1.84895
1.94982
2.10156
2.30576
2.51345
2.69105
2.81274
2.95728
3.12802
3.29085
3.41724
3.48323
3.52153
3.57952
3.63672
3.70693
3.72286
3.69871
3.63572
3.52554
3.4017
3.25602
3.65876
3.33755
2.88852
2.36054
1.9501
1.70544
1.45825
1.199
1.08813
1.04371
0.994624
0.930059
0.907154
0.913846
0.932498
0.943827
0.95702
0.972218
0.989523
1.00188
1.01687
1.12971
1.78409
2.70073
3.22392
3.31758
3.32284
3.34826
3.61837
4.67954
6.25826
7.14434
7.18997
6.93568
6.46369
6.11027
5.88068
5.66504
5.42861
5.19785
4.99177
4.80497
4.62782
4.45043
4.27505
4.10178
3.94606
3.82164
3.72417
3.61763
3.48972
3.35567
3.22465
3.09072
2.97496
2.89186
2.83208
2.77346
2.70529
2.62837
2.54301
2.44722
2.35366
2.27523
2.21767
2.16468
2.11777
2.07096
2.02032
1.9677
1.92312
1.89387
1.90996
1.98398
2.16446
2.40969
2.58935
2.72092
2.77512
2.76436
2.72525
2.70572
2.71327
2.75623
2.83837
2.95956
3.1121
3.29835
3.47681
3.58961
3.59531
3.5982
3.58623
3.52232
3.42571
3.28531
3.73949
3.61391
3.34282
2.94143
2.44139
2.12953
1.92669
1.61561
1.3226
1.25249
1.21323
1.11798
1.01134
0.980657
0.983098
0.966049
0.943477
0.944578
0.956408
0.976261
1.12936
1.79513
2.8864
3.18621
3.26955
3.2778
3.18826
3.07918
3.0146
3.12972
3.79725
5.26353
6.44457
6.52989
6.44052
6.1733
5.90745
5.63193
5.35272
5.13456
4.98126
4.83031
4.65899
4.47106
4.27881
4.10228
3.94204
3.7945
3.68268
3.6006
3.50498
3.38553
3.25101
3.10818
2.9842
2.88144
2.8022
2.75313
2.7077
2.64336
2.55673
2.45283
2.35476
2.2695
2.2015
2.1471
2.10193
2.06785
2.03587
1.99019
2.00315
2.06911
2.26108
2.49439
2.7765
2.86746
2.91859
2.92363
2.89863
2.85915
2.79137
2.70368
2.63518
2.58006
2.56284
2.57891
2.63408
2.74494
2.90267
3.06152
3.17001
3.26794
3.35038
3.33609
3.32765
3.31067
3.7385
3.71507
3.58422
3.32747
2.94589
2.5097
2.28014
2.06093
1.72699
1.42587
1.37195
1.31695
1.22923
1.10398
1.01718
0.975384
0.953759
0.949417
0.971689
1.20922
1.90257
2.95226
3.31531
3.25791
3.16156
3.05812
2.97498
2.90642
2.84507
2.76362
2.79318
3.12849
4.20784
5.47997
6.14156
6.12367
5.93131
5.61194
5.33096
5.10115
4.89675
4.70601
4.51938
4.34501
4.2124
4.10504
3.98101
3.83321
3.6792
3.53543
3.40701
3.28971
3.20616
3.14053
3.04499
2.93208
2.82013
2.71939
2.63696
2.56486
2.49279
2.4358
2.3822
2.31145
2.23016
2.16544
2.11224
2.08614
2.10772
2.19984
2.39869
2.65997
2.85986
3.00017
3.08905
3.06821
3.04245
3.0035
2.93046
2.83925
2.74579
2.67069
2.61267
2.56204
2.53101
2.51084
2.4924
2.46929
2.48135
2.5171
2.61307
2.74601
2.92718
3.06003
3.19543
3.27013
3.72914
3.72668
3.69394
3.54952
3.30702
2.95437
2.58253
2.35981
2.12499
1.85096
1.58365
1.47329
1.43773
1.36607
1.22091
1.0774
1.05478
1.09117
1.37974
2.20657
3.08152
3.43185
3.372
3.22288
3.06954
2.93128
2.8593
2.79573
2.70834
2.61409
2.55277
2.50328
2.6258
3.28138
4.50484
5.46602
5.5993
5.54315
5.36029
5.12619
4.87676
4.62923
4.41518
4.27112
4.16418
4.05628
3.93987
3.80981
3.65253
3.49491
3.36792
3.27185
3.18384
3.09103
3.00137
2.90908
2.80535
2.69357
2.59678
2.52944
2.47305
2.40179
2.33756
2.28575
2.24252
2.18148
2.17619
2.24759
2.44102
2.76678
3.02425
3.17176
3.24912
3.25088
3.22971
3.19379
3.13824
3.0424
2.92867
2.82131
2.71738
2.63575
2.60441
2.57385
2.53362
2.4972
2.46966
2.44045
2.38705
2.30052
2.29135
2.31711
2.4079
2.56667
2.73138
2.95267
3.73127
3.73666
3.72144
3.67059
3.53091
3.2889
2.96474
2.66926
2.38389
2.15989
1.96369
1.76256
1.55594
1.49249
1.42782
1.29745
1.31976
1.68309
2.65356
3.4972
3.69634
3.58578
3.37336
3.19636
3.03911
2.91976
2.83625
2.74882
2.62597
2.53027
2.45517
2.39984
2.31676
2.33587
2.64198
3.57734
4.60284
5.24559
5.27138
5.14452
4.86257
4.58435
4.37122
4.222
4.10448
4.00348
3.9002
3.77756
3.62713
3.46865
3.3361
3.23377
3.14529
3.06772
2.99112
2.90475
2.80242
2.69424
2.58928
2.50115
2.43124
2.36989
2.32875
2.29938
2.29791
2.36257
2.56236
2.85559
3.1413
3.37107
3.38826
3.35269
3.33156
3.29526
3.2306
3.16559
3.10225
3.02795
2.93944
2.83813
2.72481
2.64963
2.6128
2.57642
2.53916
2.50496
2.4763
2.44083
2.37818
2.28756
2.22062
2.19905
2.19671
2.2215
2.28452
2.47892
3.72555
3.73339
3.73335
3.72063
3.65975
3.51475
3.26222
2.99567
2.72726
2.42029
2.21695
2.06934
1.84667
1.66359
1.58599
1.70894
2.31066
3.40259
4.16072
4.13636
3.9512
3.68848
3.45904
3.27507
3.10952
2.98504
2.86614
2.7448
2.60524
2.50817
2.42347
2.34995
2.26146
2.20502
2.14958
2.25692
2.77733
3.75263
4.60507
4.82593
4.78987
4.61325
4.40241
4.22629
4.07966
3.95298
3.83873
3.72024
3.58123
3.42625
3.2901
3.19093
3.11366
3.04724
2.97763
2.89351
2.79191
2.67519
2.55651
2.46833
2.41877
2.39366
2.37357
2.44545
2.66113
3.00137
3.3829
3.56231
3.6366
3.62179
3.56974
3.48344
3.382
3.28483
3.20656
3.15131
3.10029
3.0368
2.96339
2.86596
2.73854
2.6572
2.61697
2.58354
2.55052
2.51793
2.4929
2.46127
2.3971
2.28936
2.21359
2.18069
2.15894
2.14378
2.13536
2.15556
3.72114
3.72329
3.72138
3.71446
3.70001
3.63136
3.48091
3.2405
3.0097
2.7478
2.50067
2.27601
2.08865
1.98492
2.22609
3.12645
4.32749
4.79322
4.69041
4.4009
4.10061
3.8481
3.63439
3.43166
3.23886
3.07648
2.92794
2.77885
2.63855
2.5328
2.43905
2.33822
2.24696
2.16838
2.10661
2.01748
2.01664
2.24007
2.94652
3.85395
4.42901
4.49382
4.4354
4.25425
4.0621
3.91079
3.79232
3.67557
3.54278
3.3948
3.25276
3.14675
3.06708
3.00422
2.94138
2.86776
2.78137
2.67449
2.55759
2.49075
2.45309
2.4926
2.67294
3.05917
3.46944
3.7913
3.86728
3.83587
3.74956
3.64922
3.54098
3.43517
3.34677
3.27899
3.2172
3.16503
3.1153
3.06017
2.99256
2.89005
2.75155
2.66092
2.6209
2.59002
2.5559
2.52075
2.49383
2.46233
2.40842
2.31137
2.22328
2.17957
2.15029
2.12763
2.11328
2.08146
3.76677
3.75738
3.74832
3.72827
3.69948
3.6737
3.60483
3.45417
3.24644
2.98876
2.76141
2.49453
2.52377
3.02106
4.2603
5.42749
5.59413
5.38913
5.0187
4.65434
4.33204
4.05961
3.82199
3.60035
3.39825
3.21669
3.04214
2.85776
2.68413
2.53579
2.42537
2.32159
2.23864
2.16694
2.09901
2.00046
1.93194
1.85842
1.917
2.3343
3.16932
3.9317
4.17246
4.14865
4.02452
3.86954
3.74884
3.6389
3.50654
3.36656
3.23405
3.12186
3.02089
2.94826
2.88438
2.82782
2.7602
2.70086
2.58452
2.57269
2.69319
3.02533
3.46424
3.83053
4.08568
4.11949
4.08983
3.99683
3.83618
3.65636
3.51117
3.4002
3.31531
3.26596
3.22352
3.1783
3.13556
3.08739
3.01947
2.90786
2.76553
2.66979
2.62871
2.59772
2.56405
2.53248
2.50522
2.46971
2.41241
2.32569
2.23876
2.18722
2.15314
2.12825
2.10846
2.06473
3.66577
3.77954
3.79321
3.76696
3.73026
3.7075
3.67163
3.59609
3.42552
3.23833
3.01177
3.20287
4.22915
5.71479
6.41942
6.34074
5.9989
5.60856
5.24197
4.89575
4.56645
4.26364
3.99259
3.74635
3.52784
3.33185
3.15045
2.96794
2.79295
2.62558
2.47734
2.34508
2.23886
2.15117
2.07075
1.99405
1.90487
1.82644
1.74989
1.74852
1.94458
2.5551
3.38348
3.85318
3.91469
3.85164
3.71116
3.60122
3.47558
3.34414
3.21726
3.10007
2.98276
2.90603
2.8494
2.81896
2.77866
2.77151
2.87374
3.15281
3.59424
3.90417
4.10663
4.18189
4.19534
4.14937
4.06598
3.97043
3.85733
3.70142
3.5312
3.39387
3.30477
3.25593
3.21523
3.17554
3.13611
3.09897
3.04356
2.93361
2.79396
2.69491
2.64504
2.61071
2.57536
2.54177
2.51076
2.47424
2.42189
2.34417
2.25698
2.20019
2.16702
2.1392
2.11315
2.06188
3.59846
3.74245
3.73017
3.72186
3.71927
3.72213
3.70305
3.66549
3.54903
3.56829
4.20736
5.77438
7.26171
7.65991
7.41974
6.8349
6.28304
5.82608
5.43572
5.07874
4.74437
4.43417
4.15393
3.89998
3.67121
3.45859
3.25395
3.05037
2.85326
2.67465
2.52005
2.39518
2.29401
2.20192
2.10263
2.0079
1.91283
1.81917
1.72495
1.66301
1.62614
1.699
2.08289
2.804
3.43771
3.65715
3.62481
3.50574
3.37251
3.26819
3.16571
3.06815
2.96418
2.89541
2.86318
2.86252
2.98645
3.32256
3.78324
4.26187
4.48686
4.52985
4.47039
4.35396
4.20674
4.08858
3.99701
3.91651
3.83395
3.72402
3.56882
3.40635
3.31441
3.26186
3.21933
3.17897
3.1321
3.07909
3.01374
2.9214
2.81368
2.73024
2.67889
2.63892
2.59967
2.55912
2.51534
2.46783
2.40911
2.33591
2.26144
2.21189
2.18211
2.15351
2.12463
2.06887
2.68752
3.30053
3.55148
3.7357
3.78127
3.77281
3.73419
3.7345
3.97837
5.33875
7.63952
8.44802
8.33112
8.07527
7.6422
7.14861
6.62571
6.10983
5.64025
5.23326
4.88269
4.56909
4.27741
4.00235
3.75185
3.53202
3.33643
3.14923
2.95318
2.75439
2.56257
2.39886
2.27999
2.20222
2.13155
2.04281
1.94333
1.8606
1.77207
1.66761
1.58315
1.53227
1.54774
1.74862
2.25358
2.96444
3.36406
3.38467
3.32941
3.25342
3.14925
3.05058
2.98234
2.95661
3.03559
3.34884
3.85475
4.31605
4.61877
4.70188
4.68354
4.60695
4.47687
4.35098
4.21893
4.08445
3.97087
3.88142
3.81336
3.73357
3.59083
3.43477
3.34512
3.28594
3.23257
3.18316
3.13368
3.08482
3.02263
2.92844
2.83008
2.76405
2.71376
2.66642
2.62338
2.58655
2.54424
2.48412
2.41736
2.34542
2.27667
2.22848
2.19498
2.16246
2.12997
2.07113
1.39951
2.28258
3.12566
3.67071
3.70296
3.69566
3.85486
4.59181
6.48906
8.85786
9.88726
9.69007
8.96356
8.25684
7.79582
7.36721
6.87326
6.33812
5.8293
5.38797
5.01302
4.68548
4.38543
4.10346
3.83967
3.59351
3.36747
3.16693
2.99552
2.82358
2.63097
2.46734
2.34949
2.24031
2.1335
2.06221
1.99679
1.90478
1.80404
1.69672
1.59182
1.51457
1.46188
1.45999
1.53205
1.845
2.50577
2.93357
3.12488
3.10276
3.0428
3.06634
3.22683
3.49616
3.9901
4.54214
4.90284
5.03738
5.03096
4.93901
4.76922
4.60147
4.44424
4.32165
4.22098
4.12054
4.00657
3.88794
3.78556
3.69256
3.56518
3.44703
3.37732
3.31537
3.25984
3.20491
3.13874
3.05569
2.9554
2.85495
2.80691
2.77921
2.74663
2.70686
2.65971
2.5993
2.5218
2.43785
2.35742
2.31276
2.28275
2.24564
2.21087
2.17995
2.14789
2.08468
1.02632
1.26063
1.92939
2.9928
3.46581
4.28385
5.75245
7.75197
9.3789
9.93982
9.87091
9.67987
9.27795
8.66057
8.0763
7.52411
6.9763
6.45262
5.97033
5.53302
5.1364
4.77516
4.44475
4.15038
3.89889
3.67556
3.46076
3.24713
3.01247
2.80306
2.69936
2.60621
2.48322
2.34925
2.22627
2.09923
1.96172
1.86524
1.82555
1.78339
1.70581
1.60239
1.47645
1.38336
1.36892
1.39028
1.57705
2.0226
2.62218
2.85846
3.00991
3.54079
4.24564
4.67517
5.1464
5.26518
5.19654
5.11062
5.01138
4.88829
4.75552
4.62733
4.47133
4.33458
4.22417
4.12391
4.02783
3.92691
3.82001
3.69759
3.54255
3.43248
3.39171
3.36278
3.31736
3.25918
3.18126
3.07141
2.94147
2.84372
2.8038
2.77326
2.74475
2.71578
2.68003
2.61898
2.52876
2.43155
2.34573
2.29871
2.28277
2.27293
2.25238
2.22357
2.19168
2.12297
1.0005
1.01358
1.14991
1.8831
3.75354
6.0659
8.2857
10.0801
11.0358
10.5523
9.76487
9.54632
9.32787
8.89891
8.2688
7.59914
6.98691
6.45436
5.98873
5.56949
5.18178
4.82299
4.49442
4.19252
3.9078
3.63907
3.39785
3.19731
3.03548
2.88509
2.7149
2.54009
2.39275
2.26133
2.13111
2.00908
1.93643
1.89226
1.83228
1.74852
1.66175
1.56045
1.43205
1.35936
1.33482
1.32738
1.34337
1.4447
1.82356
2.59069
3.44032
4.51273
5.22437
5.55955
5.74747
5.69452
5.45852
5.14447
4.92688
4.79513
4.68843
4.59273
4.49483
4.39094
4.25954
4.14701
4.05346
3.95164
3.81901
3.68055
3.58638
3.50827
3.42502
3.34314
3.27653
3.21802
3.14697
3.0374
2.94446
2.89253
2.85386
2.82185
2.79313
2.76364
2.72608
2.66235
2.54261
2.40452
2.33059
2.30162
2.2838
2.26119
2.23308
2.20336
2.17028
2.09854
1.0005
1.01356
1.15032
1.87989
3.7643
6.05927
8.28134
10.0813
11.0357
10.5492
9.77204
9.54806
9.33092
8.90259
8.2726
7.60212
6.98813
6.45308
5.98467
5.56498
5.18031
4.82563
4.49809
4.19344
3.9075
3.64472
3.40998
3.19211
3.00023
2.85488
2.70035
2.53661
2.39192
2.26138
2.12971
2.004
1.93635
1.89502
1.8318
1.74779
1.66131
1.56037
1.43417
1.36
1.33355
1.32704
1.3417
1.44551
1.83157
2.54919
3.63984
4.45207
5.05577
5.60449
5.7697
5.66186
5.51399
5.25496
4.99824
4.84252
4.7102
4.60384
4.47757
4.32742
4.18729
4.08885
4.01316
3.93236
3.82631
3.6935
3.55144
3.46743
3.40354
3.33388
3.27028
3.21201
3.14301
3.04024
2.92355
2.8578
2.81947
2.78903
2.76036
2.73108
2.69463
2.63646
2.52934
2.3969
2.33285
2.30653
2.28423
2.26084
2.23504
2.20597
2.17244
2.09872
1.0263
1.26062
1.9297
2.98943
3.4731
4.28012
5.74759
7.75179
9.37639
9.93937
9.87351
9.68354
9.28106
8.66344
8.07858
7.52542
6.97753
6.45405
5.97103
5.53333
5.13657
4.77444
4.44256
4.14498
3.89001
3.66702
3.4537
3.23631
3.006
2.81924
2.71639
2.60844
2.47854
2.34429
2.22061
2.08144
1.94759
1.87105
1.83591
1.78942
1.70817
1.60215
1.48339
1.38717
1.36922
1.39546
1.55832
2.0394
2.58651
2.83174
3.17692
3.50942
4.04111
4.6757
5.10974
5.22033
5.23116
5.16957
5.10033
4.97221
4.79133
4.58812
4.42786
4.31726
4.21015
4.11429
4.04659
3.97385
3.8762
3.74296
3.56895
3.45479
3.41135
3.36067
3.3019
3.2399
3.16215
3.05067
2.92783
2.8527
2.81941
2.7924
2.76471
2.7334
2.69129
2.62636
2.5181
2.41069
2.36695
2.3364
2.31377
2.29269
2.26827
2.23678
2.1997
2.12206
1.39926
2.28324
3.12474
3.67011
3.70411
3.69568
3.85388
4.59212
6.49167
8.85709
9.8898
9.69412
8.96711
8.25852
7.79583
7.36628
6.87207
6.33654
5.82776
5.38683
5.01182
4.68412
4.38435
4.10348
3.84245
3.59695
3.3679
3.16811
2.99726
2.81733
2.62171
2.46537
2.3483
2.2359
2.13593
2.07548
1.99937
1.90274
1.8019
1.69837
1.59521
1.51503
1.4628
1.45804
1.53191
1.87071
2.44069
3.01857
3.10797
3.09087
3.08424
3.07836
3.17155
3.50546
4.03314
4.57382
4.92028
5.10611
5.07203
4.93524
4.71503
4.52358
4.40285
4.3202
4.23332
4.12683
4.01454
3.90815
3.80862
3.70876
3.57027
3.43348
3.36257
3.30962
3.25797
3.20422
3.14206
3.06066
2.95566
2.86032
2.80332
2.76571
2.73522
2.70419
2.66493
2.60424
2.5219
2.44168
2.36015
2.2952
2.26744
2.24603
2.22245
2.19363
2.15966
2.08465
2.68739
3.30086
3.55144
3.73548
3.78117
3.77269
3.734
3.73453
3.97903
5.33807
7.64002
8.44916
8.33072
8.07407
7.64036
7.14651
6.62405
6.10869
5.63967
5.2328
4.88227
4.56931
4.27843
4.00437
3.75441
3.53249
3.33526
3.14947
2.95521
2.75316
2.5588
2.39532
2.28017
2.20621
2.13403
2.03773
1.94116
1.8622
1.77433
1.67004
1.58076
1.52933
1.54822
1.73514
2.28567
2.95432
3.32664
3.39582
3.3331
3.231
3.13326
3.06388
2.99033
2.9602
3.04809
3.35818
3.83741
4.34099
4.6142
4.66385
4.62657
4.5629
4.47493
4.36585
4.24358
4.10582
3.99025
3.89956
3.82187
3.72302
3.56113
3.41416
3.33794
3.28752
3.24531
3.20795
3.16932
3.112
3.01561
2.88821
2.79189
2.73459
2.69814
2.66824
2.64187
2.60948
2.5605
2.48469
2.38454
2.30263
2.26162
2.23503
2.20812
2.17733
2.14496
2.07619
3.59853
3.74265
3.73033
3.72184
3.71915
3.7221
3.70307
3.66551
3.5491
3.56819
4.20682
5.77357
7.26058
7.65936
7.41879
6.83356
6.28196
5.82549
5.43553
5.07884
4.74498
4.43532
4.15508
3.90093
3.67171
3.45864
3.25397
3.05056
2.85314
2.67395
2.52066
2.39733
2.2958
2.20192
2.10144
2.00793
1.91489
1.8209
1.72508
1.66196
1.6244
1.69921
2.08431
2.78583
3.49617
3.64
3.58475
3.49933
3.37726
3.26248
3.16951
3.07856
2.96998
2.89753
2.86958
2.86529
2.97423
3.30119
3.76419
4.21795
4.46807
4.53074
4.48473
4.37247
4.22288
4.09131
3.99877
3.91674
3.82963
3.71114
3.54803
3.40334
3.32162
3.27337
3.23539
3.19317
3.14566
3.09298
3.01343
2.88606
2.77655
2.72091
2.67852
2.64248
2.60721
2.56761
2.52489
2.47159
2.40176
2.32268
2.25787
2.21826
2.18485
2.15103
2.12448
2.07615
3.66578
3.77962
3.79327
3.76699
3.73026
3.70749
3.67166
3.59613
3.42554
3.23833
3.01169
3.20258
4.22867
5.71442
6.41911
6.34066
5.99867
5.60857
5.2425
4.89658
4.56745
4.26456
3.99319
3.74671
3.52781
3.33138
3.14959
2.96709
2.79244
2.62544
2.47713
2.3445
2.2388
2.1516
2.07209
1.99577
1.90594
1.82676
1.74963
1.7473
1.94224
2.56787
3.36141
3.85432
3.9249
3.85045
3.70876
3.59065
3.47812
3.35391
3.22711
3.10283
2.97796
2.9016
2.85238
2.82068
2.77825
2.77014
2.87244
3.15895
3.61564
3.9385
4.14185
4.2002
4.19699
4.14445
4.06073
3.96006
3.8375
3.6797
3.52244
3.39948
3.31107
3.26695
3.22923
3.18718
3.14583
3.09869
3.02116
2.8941
2.77401
2.70804
2.66009
2.61721
2.57971
2.54631
2.51829
2.48909
2.43182
2.33193
2.24495
2.20072
2.16879
2.13879
2.11444
2.06205
3.76676
3.75738
3.74834
3.72828
3.69948
3.67369
3.60483
3.45417
3.24644
2.98876
2.76139
2.49452
2.52377
3.02124
4.26066
5.42784
5.5943
5.38953
5.01943
4.65516
4.3327
4.05998
3.82205
3.60009
3.39764
3.21592
3.04143
2.85711
2.68381
2.53621
2.42589
2.32143
2.23848
2.16703
2.09941
2.00092
1.93221
1.85864
1.91752
2.33033
3.169
3.93799
4.16299
4.14422
4.026
3.8764
3.74986
3.63942
3.51192
3.37143
3.23534
3.11723
3.01405
2.94409
2.884
2.82872
2.76123
2.70206
2.58801
2.58082
2.71084
3.05207
3.48783
3.84657
4.0954
4.11657
4.08411
3.97716
3.80978
3.63406
3.50655
3.40859
3.32344
3.27814
3.23455
3.18522
3.13245
3.0721
2.99243
2.88512
2.77216
2.69729
2.64794
2.60592
2.56995
2.53983
2.50858
2.46478
2.40123
2.31125
2.23107
2.19013
2.16233
2.13488
2.11094
2.06258
3.72113
3.7233
3.72138
3.71446
3.70001
3.63135
3.48091
3.2405
3.0097
2.74781
2.50066
2.27602
2.08865
1.98497
2.22634
3.12697
4.32785
4.79354
4.69076
4.40131
4.10079
3.8481
3.63423
3.43126
3.23829
3.07594
2.92748
2.7785
2.63879
2.5335
2.43937
2.3381
2.24689
2.16823
2.10678
2.01756
2.01661
2.2419
2.94957
3.84412
4.43008
4.49578
4.43846
4.25902
4.06618
3.91507
3.79118
3.67539
3.5454
3.39712
3.2509
3.14215
3.06305
2.99992
2.93755
2.86563
2.78178
2.6775
2.56332
2.49429
2.45486
2.49593
2.67319
3.04833
3.46024
3.78689
3.85367
3.82823
3.74433
3.63786
3.53754
3.44601
3.3603
3.29128
3.22863
3.1682
3.1055
3.03578
2.95676
2.86383
2.76313
2.68908
2.64021
2.6005
2.56314
2.52633
2.48983
2.44604
2.38432
2.30048
2.2267
2.18815
2.16524
2.14192
2.11886
2.07679
3.72555
3.73339
3.73335
3.72063
3.65976
3.51475
3.26222
2.99567
2.72725
2.42029
2.21695
2.06934
1.84666
1.66358
1.58602
1.70905
2.31075
3.40267
4.16084
4.13642
3.95106
3.68825
3.45878
3.27463
3.10911
2.98486
2.86607
2.74482
2.60556
2.50866
2.42369
2.34994
2.26147
2.20497
2.14949
2.25713
2.77244
3.75967
4.61158
4.82954
4.7909
4.61149
4.40422
4.22648
4.07968
3.95087
3.83625
3.72114
3.58491
3.42685
3.28671
3.18899
3.11271
3.04594
2.97591
2.89193
2.79203
2.6773
2.55996
2.46949
2.41899
2.39446
2.37251
2.44039
2.64999
3.00543
3.35168
3.59686
3.64258
3.61198
3.57018
3.50246
3.40019
3.29296
3.21836
3.15763
3.09818
3.02607
2.94257
2.84499
2.74152
2.67174
2.62676
2.59112
2.55509
2.51827
2.48492
2.44287
2.37758
2.2921
2.22547
2.19438
2.17741
2.16076
2.13533
2.13995
3.73127
3.73666
3.72144
3.67059
3.53091
3.28889
2.96475
2.66926
2.38388
2.1599
1.9637
1.76255
1.55594
1.49249
1.42783
1.29745
1.31975
1.68298
2.65346
3.49702
3.6961
3.58552
3.37311
3.19609
3.03896
2.91984
2.83638
2.74896
2.62632
2.53072
2.45543
2.39999
2.31679
2.33597
2.64262
3.57277
4.59713
5.25241
5.27936
5.14756
4.85428
4.57906
4.37049
4.22039
4.10132
3.99997
3.89915
3.78013
3.6304
3.4681
3.33466
3.233
3.14422
3.0675
2.99288
2.90827
2.80587
2.69679
2.59094
2.49982
2.42803
2.36817
2.32769
2.30057
2.29934
2.3688
2.56628
2.87392
3.15912
3.32996
3.40863
3.37899
3.32746
3.28554
3.23905
3.17231
3.10272
3.02543
2.94483
2.84669
2.7298
2.65331
2.6183
2.58564
2.54819
2.50945
2.47336
2.43265
2.37047
2.29614
2.23801
2.21284
2.20545
2.23218
2.284
2.46075
3.72914
3.72668
3.69394
3.54952
3.30702
2.95437
2.58253
2.35981
2.125
1.85097
1.58365
1.47329
1.43774
1.36607
1.22091
1.0774
1.05477
1.09115
1.37966
2.20634
3.08136
3.43159
3.37174
3.22267
3.06945
2.93146
2.85954
2.79593
2.70861
2.61437
2.55296
2.50338
2.62572
3.28009
4.51121
5.45351
5.60038
5.5449
5.36086
5.12622
4.87597
4.62803
4.41457
4.27133
4.16393
4.05502
3.93938
3.81058
3.65241
3.49311
3.36701
3.27185
3.18392
3.0917
3.00212
2.90974
2.80497
2.69235
2.59399
2.52666
2.47045
2.40031
2.33842
2.2876
2.24305
2.18221
2.17989
2.24449
2.4549
2.74296
3.04685
3.1801
3.23283
3.2284
3.20749
3.17183
3.1225
3.05613
2.97646
2.87548
2.76229
2.6597
2.59429
2.55789
2.52752
2.49984
2.46835
2.43509
2.39462
2.31664
2.2996
2.32065
2.40464
2.56593
2.71335
2.93162
3.7385
3.71507
3.58422
3.32747
2.94589
2.5097
2.28014
2.06093
1.72699
1.42587
1.37195
1.31695
1.22924
1.10398
1.01718
0.975384
0.953758
0.949416
0.971682
1.20916
1.90247
2.95233
3.31515
3.25769
3.1616
3.05844
2.97531
2.90663
2.84527
2.76375
2.79323
3.12867
4.20731
5.47904
6.14421
6.11941
5.92948
5.61143
5.32928
5.09803
4.89573
4.70717
4.52112
4.34722
4.21509
4.10759
3.98199
3.83239
3.67737
3.53353
3.40577
3.28997
3.2084
3.14207
3.04484
2.93013
2.81802
2.71671
2.63336
2.56092
2.49092
2.43724
2.38326
2.31115
2.22952
2.16572
2.11216
2.08412
2.10753
2.19733
2.38554
2.64257
2.90129
2.99077
3.04783
3.04538
3.01494
2.96743
2.92091
2.87567
2.78786
2.6713
2.59833
2.55988
2.52997
2.50863
2.49251
2.47389
2.4915
2.53165
2.62408
2.7503
2.92767
3.04621
3.15387
3.25408
3.73949
3.61391
3.34282
2.94143
2.44139
2.12953
1.92669
1.61561
1.3226
1.25249
1.21323
1.11798
1.01134
0.980656
0.983097
0.966049
0.943476
0.944577
0.956408
0.976261
1.12935
1.79533
2.88641
3.18616
3.26977
3.27809
3.1885
3.0794
3.0147
3.12981
3.79727
5.26293
6.44408
6.52963
6.44025
6.17511
5.90743
5.63204
5.3527
5.1346
4.98232
4.83131
4.65996
4.47224
4.27909
4.10172
3.94144
3.79349
3.68162
3.60021
3.50527
3.38678
3.2526
3.10912
2.98439
2.88112
2.80153
2.75241
2.70707
2.64255
2.55543
2.45094
2.35379
2.26916
2.20116
2.14639
2.10045
2.06663
2.03463
1.98853
2.00103
2.06563
2.25382
2.4887
2.75696
2.89547
2.92404
2.91234
2.89155
2.83232
2.75949
2.68045
2.62996
2.58915
2.56322
2.57703
2.63311
2.75501
2.91728
3.06754
3.17227
3.26825
3.3471
3.32565
3.32074
3.3067
3.65876
3.33755
2.88852
2.36054
1.9501
1.70544
1.45825
1.199
1.08813
1.04371
0.994624
0.930059
0.907154
0.913846
0.932498
0.943827
0.95702
0.972218
0.989522
1.00188
1.01687
1.12975
1.78428
2.70082
3.22405
3.3178
3.32293
3.34829
3.6184
4.67937
6.25841
7.14361
7.18979
6.93542
6.46333
6.11064
5.88044
5.66536
5.42914
5.19844
4.9921
4.80525
4.6281
4.45074
4.27494
4.10127
3.94532
3.82094
3.72406
3.61787
3.49004
3.35631
3.22535
3.09096
2.97486
2.89157
2.8318
2.77323
2.7053
2.62851
2.54304
2.44672
2.35316
2.27506
2.21724
2.16381
2.11665
2.06993
2.01971
1.96729
1.92264
1.89384
1.90758
1.9863
2.15985
2.41026
2.60544
2.75769
2.80739
2.7808
2.71069
2.69602
2.70548
2.75032
2.83409
2.95718
3.1139
3.30074
3.47102
3.57921
3.59536
3.60167
3.58886
3.52647
3.43623
3.28998
3.35419
2.75883
2.1656
1.72673
1.50713
1.30817
1.07537
0.99535
1.00726
0.986928
0.948324
0.925391
0.913617
0.919048
0.928979
0.961925
1.00327
1.02722
1.03107
1.03196
1.02306
1.027
1.11733
1.6537
2.54966
3.06142
3.60195
4.31912
5.67082
6.86361
7.52862
7.40051
7.03594
6.6894
6.41331
6.16313
5.94717
5.7493
5.54552
5.33148
5.10787
4.88571
4.67385
4.48789
4.3233
4.1712
4.0422
3.9327
3.82323
3.69911
3.55358
3.384
3.22627
3.11268
3.029
2.96448
2.90077
2.83113
2.7544
2.66906
2.57363
2.47634
2.3908
2.32634
2.27275
2.21835
2.16545
2.10627
2.04452
1.9834
1.92632
1.87118
1.83171
1.82139
1.84915
1.95417
2.11749
2.3219
2.5178
2.67232
2.80403
2.97003
3.13193
3.28771
3.42045
3.48858
3.52376
3.57565
3.62204
3.6908
3.71934
3.69984
3.64047
3.53738
3.41663
3.26192
2.64322
1.69912
1.11877
0.851915
0.72696
0.659237
0.639254
0.665874
0.769507
0.885713
0.952583
0.987054
0.997208
0.993404
0.989051
1.01094
1.07138
1.08506
1.08267
1.07339
1.05367
1.04325
1.04965
1.12918
1.53675
2.78568