/*--------------------------------*- C++ -*----------------------------------*\
  =========                 |
  \\      /  F ield         | OpenFOAM: The Open Source CFD Toolbox
   \\    /   O peration     | Website:  https://openfoam.org
    \\  /    A nd           | Version:  7
     \\/     M anipulation  |
\*---------------------------------------------------------------------------*/
FoamFile
{
    version     2.0;
    format      ascii;
    class       volScalarField;
    location    "1.5";
    object      rho;
}
// * * * * * * * * * * * * * * * * * * * * * * * * * * * * * * * * * * * * * //

dimensions      [1 -3 0 0 0 0 0];

internalField   nonuniform List<scalar> 
4608
(
1.40001
1.40001
1.40001
1.40001
1.40001
1.40001
1.40001
1.40001
1.40001
1.40001
1.40001
1.40001
1.40001
1.40001
1.40001
1.40001
1.40001
1.40001
1.40001
1.40001
1.40001
1.40001
1.40001
1.40001
1.40001
1.40001
1.40001
1.40001
1.40001
1.40001
1.40001
1.40001
1.40001
1.40001
1.40001
1.40001
1.40001
1.40001
1.40001
1.40001
1.40001
1.40001
1.40001
1.40001
1.40001
1.40001
1.40001
1.40001
1.40001
1.40001
1.40001
1.40001
1.40001
1.40001
1.40001
1.40001
1.40001
1.40001
1.40001
1.40001
1.40001
1.40001
1.40001
1.40001
1.40001
1.40001
1.40001
1.40001
1.40001
1.40001
1.40001
1.40001
1.40001
1.40001
1.40001
1.40001
1.40001
1.40001
1.40001
1.40001
1.40001
1.40001
1.40001
1.40001
1.40001
1.40001
1.40001
1.40001
1.40001
1.40001
1.40001
1.40001
1.40001
1.40001
1.40001
1.40001
1.40001
1.40001
1.40001
1.40001
1.40001
1.40001
1.40001
1.40001
1.40001
1.40001
1.40001
1.40001
1.40001
1.40001
1.40001
1.40001
1.40001
1.40001
1.40001
1.40001
1.40001
1.40001
1.40001
1.40001
1.40001
1.40001
1.40001
1.40001
1.40001
1.40001
1.40001
1.40001
1.40001
1.40001
1.40001
1.40001
1.40001
1.40001
1.40001
1.40001
1.40001
1.40001
1.40001
1.40001
1.40001
1.40001
1.40001
1.40001
1.40001
1.40001
1.40001
1.40001
1.40001
1.40001
1.40001
1.40001
1.40001
1.40001
1.40001
1.40001
1.40001
1.40001
1.40001
1.40001
1.40001
1.40001
1.40001
1.40001
1.40001
1.40001
1.40001
1.40001
1.40001
1.40001
1.40001
1.40001
1.40001
1.40001
1.40001
1.40001
1.40001
1.40001
1.40001
1.40001
1.40001
1.40001
1.40001
1.40001
1.40001
1.40001
1.40001
1.40001
1.40001
1.40001
1.40001
1.40001
1.40001
1.40001
1.40001
1.40001
1.40001
1.40001
1.40001
1.40001
1.40001
1.40001
1.40001
1.40001
1.40001
1.40001
1.40001
1.40001
1.40001
1.40001
1.40001
1.40001
1.40001
1.40001
1.40001
1.40001
1.40001
1.40001
1.40001
1.40001
1.40001
1.40001
1.40001
1.40001
1.40001
1.40001
1.40001
1.40001
1.40001
1.40001
1.40001
1.40001
1.40001
1.40001
1.40001
1.40001
1.40001
1.40001
1.40001
1.40001
1.40001
1.40001
1.40001
1.40001
1.40001
1.40001
1.40001
1.40001
1.40001
1.40001
1.40001
1.40001
1.40001
1.40001
1.40001
1.40001
1.40001
1.40001
1.40001
1.40001
1.40001
1.40001
1.40001
1.40001
1.40001
1.40001
1.40001
1.40001
1.40001
1.40001
1.40001
1.40001
1.40001
1.40001
1.40001
1.40001
1.40001
1.40001
1.40001
1.40001
1.40001
1.40001
1.40001
1.40001
1.40001
1.40001
1.40001
1.40001
1.40001
1.40001
1.40001
1.40001
1.40001
1.40001
1.40001
1.40001
1.40001
1.40001
1.40001
1.40001
1.40001
1.40001
1.40001
1.40001
1.40001
1.40001
1.40001
1.40001
1.40001
1.40001
1.40001
1.40001
1.40001
1.40001
1.40001
1.40001
1.40001
1.40001
1.40001
1.40001
1.40001
1.40001
1.40001
1.40001
1.40001
1.40001
1.40001
1.40001
1.40001
1.40001
1.40001
1.40001
1.40001
1.40001
1.40001
1.40001
1.40001
1.40001
1.40001
1.40001
1.40001
1.40001
1.40001
1.40001
1.40001
1.40001
1.40001
1.40001
1.40001
1.40001
1.40001
1.40001
1.40001
1.40001
1.40001
1.40001
1.40001
1.40001
1.40001
1.40001
1.40001
1.40001
1.40001
1.40001
1.40001
1.40001
1.40001
1.40001
1.40001
1.40001
1.40001
1.40001
1.40001
1.40001
1.40001
1.40001
1.40001
1.40001
1.40001
1.40001
1.40001
1.40001
1.40001
1.40001
1.40001
1.40001
1.40001
1.40001
1.40001
1.40001
1.40001
1.40001
1.40001
1.40001
1.40001
1.40001
1.40001
1.40001
1.40001
1.40001
1.40001
1.40001
1.40001
1.40001
1.40001
1.40001
1.40001
1.40001
1.40001
1.40001
1.40001
1.40001
1.40001
1.40001
1.40001
1.40001
1.40001
1.40001
1.40001
1.40001
1.40001
1.40001
1.40001
1.40001
1.40001
1.40001
1.40001
1.40001
1.40001
1.40001
1.40001
1.40001
1.40001
1.40001
1.40001
1.40001
1.40001
1.40001
1.40001
1.40001
1.40001
1.40001
1.40001
1.40001
1.40001
1.40001
1.40001
1.40001
1.40001
1.40001
1.40001
1.40001
1.40001
1.40001
1.40001
1.40001
1.40001
1.40001
1.40001
1.40001
1.40001
1.40001
1.40001
1.40001
1.40001
1.40001
1.40001
1.40001
1.40001
1.40001
1.40001
1.40001
1.40001
1.40001
1.40001
1.40001
1.40001
1.40001
1.40001
1.40001
1.40001
1.40001
1.40001
1.40001
1.40001
1.40001
1.40001
1.40001
1.40001
1.40001
1.40001
1.40001
1.40001
1.40001
1.40001
1.40001
1.40001
1.40001
1.40001
1.40001
1.40001
1.40001
1.40001
1.40001
1.40001
1.40001
1.40001
1.40001
1.40001
1.40001
1.40001
1.40001
1.40001
1.40001
1.40001
1.40001
1.40001
1.40001
1.40001
1.40001
1.40001
1.40001
1.40001
1.40001
1.40001
1.40001
1.40001
1.40001
1.40001
1.40001
1.40001
1.40001
1.40001
1.40001
1.40001
1.40001
1.40001
1.40001
1.40001
1.40001
1.40001
1.40001
1.40001
1.40001
1.40001
1.40001
1.40001
1.40001
1.40001
1.40001
1.40001
1.40001
1.40001
1.40001
1.40001
1.40001
1.40001
1.40001
1.40001
1.40001
1.40001
1.40001
1.40001
1.40001
1.40001
1.40001
1.40001
1.40001
1.40001
1.40001
1.40001
1.40001
1.40001
1.40001
1.40001
1.40001
1.40001
1.40001
1.40001
1.40001
1.40001
1.40001
1.40001
1.40001
1.40001
1.40001
1.40001
1.40001
1.40001
1.40001
1.40001
1.40001
1.40001
1.40001
1.40001
1.40001
1.40001
1.40001
1.40001
1.40001
1.40001
1.40001
1.40001
1.40001
1.40001
1.40001
1.40001
1.40001
1.40001
1.40001
1.40001
1.40001
1.40001
1.40001
1.40001
1.40001
1.40001
1.40001
1.40001
1.40001
1.40001
1.40001
1.40001
1.40001
1.40001
1.40001
1.40001
1.40001
1.40001
1.40001
1.40001
1.40001
1.40001
1.40001
1.40001
1.40001
1.40001
1.40001
1.40001
1.40001
1.40001
1.40001
1.40001
1.40001
1.40001
1.40001
1.40001
1.40001
1.40001
1.40001
1.40001
1.40001
1.40001
1.40001
1.40001
1.40001
1.40001
1.40001
1.40001
1.40001
1.40001
1.40001
1.40001
1.40001
1.40001
1.40001
1.40001
1.40001
1.40001
1.40001
1.40001
1.40001
1.40001
1.40001
1.40001
1.40001
1.40001
1.40001
1.40001
1.40001
1.40001
1.40001
1.40001
1.40001
1.40001
1.40001
1.40001
1.40001
1.40001
1.40001
1.40001
1.40001
1.40001
1.40001
1.40001
1.40001
1.40001
1.40001
1.40001
1.40001
1.40001
1.40001
1.40001
1.40001
1.40001
1.40001
1.40001
1.40001
1.40001
1.40001
1.40001
1.40001
1.40001
1.40001
1.40001
1.40001
1.40001
1.40001
1.40001
1.40001
1.40001
1.40001
1.40001
1.40001
1.40001
1.40001
1.40001
1.40001
1.40001
1.40001
1.40001
1.40001
1.40001
1.40001
1.40001
1.40001
1.40001
1.40001
1.40001
1.40001
1.40001
1.40001
1.40001
1.40001
1.40001
1.40001
1.40001
1.40001
1.40001
1.40001
1.40001
1.40001
1.40001
1.40001
1.40001
1.40001
1.40001
1.40001
1.40001
1.40001
1.40001
1.40001
1.40001
1.40001
1.40001
1.40001
1.40001
1.40001
1.679
2.081
2.53359
3.00745
3.40797
3.84633
4.1348
4.40704
4.41736
4.29696
4.04503
3.7193
3.44958
3.36811
3.30557
3.30095
3.31983
3.35096
3.38508
3.40435
3.4078
3.4074
3.4067
3.41378
1.40215
1.42086
1.47194
1.58953
1.80038
2.10442
2.51172
2.98011
3.3662
3.52799
3.67611
3.61229
3.53362
3.48793
3.44857
3.39479
3.37131
3.36459
3.37122
3.3875
3.40062
3.409
3.40967
3.41266
1.4
1.40002
1.40003
1.40012
1.40329
1.42061
1.49861
1.70602
2.2014
2.8741
3.46476
3.6954
3.76046
3.71393
3.62774
3.48307
3.37518
3.34059
3.34032
3.35515
3.38139
3.39855
3.40187
3.40424
1.4
1.4
1.4
1.4
1.39999
1.40004
1.4
1.40145
1.43174
1.63663
2.18776
2.9124
3.45099
3.57578
3.53826
3.51049
3.45406
3.3734
3.32927
3.32572
3.33665
3.35636
3.37047
3.37514
1.40001
1.40001
1.40001
1.4
1.4
1.4
1.4
1.4
1.39991
1.40131
1.43254
1.69915
2.29557
3.04731
3.35485
3.53299
3.52178
3.46404
3.34969
3.30742
3.29087
3.29362
3.30626
3.32098
1.40001
1.40001
1.40001
1.40001
1.40001
1.4
1.4
1.4
1.39999
1.39999
1.39992
1.40364
1.45619
1.8186
2.47686
3.19355
3.43008
3.41365
3.38899
3.35344
3.31897
3.28153
3.27856
3.28675
1.40001
1.40001
1.40001
1.40001
1.40001
1.40001
1.40001
1.40001
1.4
1.4
1.39999
1.4
1.39998
1.41075
1.5336
2.01933
2.74329
3.2647
3.4244
3.42308
3.38631
3.32723
3.30259
3.29228
1.40001
1.40001
1.40001
1.40001
1.40001
1.40001
1.40001
1.40001
1.40001
1.40001
1.4
1.4
1.4
1.39997
1.40085
1.43118
1.69455
2.36895
2.97884
3.28783
3.36279
3.34836
3.30774
3.29088
1.40001
1.40001
1.40001
1.40001
1.40001
1.40001
1.40001
1.40001
1.40001
1.40001
1.40001
1.40001
1.4
1.4
1.4
1.40001
1.40706
1.50987
1.99786
2.78087
3.23522
3.27759
3.29528
3.29276
1.40001
1.40001
1.40001
1.40001
1.40001
1.40001
1.40001
1.40001
1.40001
1.40001
1.40001
1.40001
1.40001
1.4
1.4
1.4
1.39999
1.40118
1.4467
1.73878
2.44798
3.06437
3.34861
3.3454
1.40001
1.40001
1.40001
1.40001
1.40001
1.40001
1.40001
1.40001
1.40001
1.40001
1.40001
1.40001
1.40001
1.40001
1.40001
1.4
1.4
1.4
1.40028
1.41259
1.60389
2.18244
2.95584
3.17202
1.40001
1.40001
1.40001
1.40001
1.40001
1.40001
1.40001
1.40001
1.40001
1.40001
1.40001
1.40001
1.40001
1.40001
1.40001
1.40001
1.4
1.4
1.4
1.40002
1.40682
1.49446
1.98709
2.74383
1.40001
1.40001
1.40001
1.40001
1.40001
1.40001
1.40001
1.40001
1.40001
1.40001
1.40001
1.40001
1.40001
1.40001
1.40001
1.40001
1.40001
1.4
1.4
1.4
1.40001
1.40176
1.46158
1.82286
1.40001
1.40001
1.40001
1.40001
1.40001
1.40001
1.40001
1.40001
1.40001
1.40001
1.40001
1.40001
1.40001
1.40001
1.40001
1.40001
1.40001
1.40001
1.40001
1.4
1.4
1.4
1.40139
1.42569
1.40001
1.40001
1.40001
1.40001
1.40001
1.40001
1.40001
1.40001
1.40001
1.40001
1.40001
1.40001
1.40001
1.40001
1.40001
1.40001
1.40001
1.40001
1.40001
1.40001
1.4
1.4
1.40002
1.40003
1.40001
1.40001
1.40001
1.40001
1.40001
1.40001
1.40001
1.40001
1.40001
1.40001
1.40001
1.40001
1.40001
1.40001
1.40001
1.40001
1.40001
1.40001
1.40001
1.40001
1.40001
1.4
1.4
1.4
1.40001
1.40001
1.40001
1.40001
1.40001
1.40001
1.40001
1.40001
1.40001
1.40001
1.40001
1.40001
1.40001
1.40001
1.40001
1.40001
1.40001
1.40001
1.40001
1.40001
1.40001
1.4
1.4
1.4
1.40001
1.40001
1.40001
1.40001
1.40001
1.40001
1.40001
1.40001
1.40001
1.40001
1.40001
1.40001
1.40001
1.40001
1.40001
1.40001
1.40001
1.40001
1.40001
1.40001
1.4
1.4
1.40002
1.40003
1.40001
1.40001
1.40001
1.40001
1.40001
1.40001
1.40001
1.40001
1.40001
1.40001
1.40001
1.40001
1.40001
1.40001
1.40001
1.40001
1.40001
1.40001
1.40001
1.4
1.4
1.4
1.40139
1.42571
1.40001
1.40001
1.40001
1.40001
1.40001
1.40001
1.40001
1.40001
1.40001
1.40001
1.40001
1.40001
1.40001
1.40001
1.40001
1.40001
1.40001
1.4
1.4
1.4
1.40001
1.40176
1.4616
1.82286
1.40001
1.40001
1.40001
1.40001
1.40001
1.40001
1.40001
1.40001
1.40001
1.40001
1.40001
1.40001
1.40001
1.40001
1.40001
1.40001
1.4
1.4
1.4
1.40002
1.40682
1.49445
1.98715
2.74368
1.40001
1.40001
1.40001
1.40001
1.40001
1.40001
1.40001
1.40001
1.40001
1.40001
1.40001
1.40001
1.40001
1.40001
1.40001
1.4
1.4
1.4
1.40028
1.41259
1.60389
2.18246
2.95581
3.17198
1.40001
1.40001
1.40001
1.40001
1.40001
1.40001
1.40001
1.40001
1.40001
1.40001
1.40001
1.40001
1.40001
1.4
1.4
1.4
1.39999
1.40118
1.4467
1.73879
2.44797
3.06439
3.34861
3.34539
1.40001
1.40001
1.40001
1.40001
1.40001
1.40001
1.40001
1.40001
1.40001
1.40001
1.40001
1.40001
1.4
1.4
1.4
1.40001
1.40706
1.50987
1.99786
2.78087
3.23521
3.27759
3.29528
3.29276
1.40001
1.40001
1.40001
1.40001
1.40001
1.40001
1.40001
1.40001
1.40001
1.40001
1.4
1.4
1.4
1.39997
1.40085
1.43118
1.69455
2.36895
2.97884
3.28783
3.36279
3.34836
3.30774
3.29088
1.40001
1.40001
1.40001
1.40001
1.40001
1.40001
1.40001
1.40001
1.4
1.4
1.39999
1.4
1.39998
1.41075
1.5336
2.01933
2.74329
3.2647
3.4244
3.42308
3.38631
3.32723
3.30259
3.29228
1.40001
1.40001
1.40001
1.40001
1.40001
1.4
1.4
1.4
1.39999
1.39999
1.39992
1.40364
1.45619
1.8186
2.47686
3.19355
3.43008
3.41365
3.38899
3.35344
3.31897
3.28153
3.27856
3.28675
1.40001
1.40001
1.40001
1.4
1.4
1.4
1.4
1.4
1.39991
1.40131
1.43254
1.69915
2.29557
3.04731
3.35485
3.53299
3.52178
3.46404
3.34969
3.30742
3.29087
3.29362
3.30626
3.32098
1.4
1.4
1.4
1.4
1.39999
1.40004
1.4
1.40145
1.43174
1.63663
2.18776
2.9124
3.45099
3.57578
3.53826
3.51049
3.45406
3.37341
3.32927
3.32572
3.33665
3.35636
3.37047
3.37514
1.4
1.40002
1.40003
1.40012
1.40329
1.42061
1.49861
1.70602
2.2014
2.8741
3.46476
3.6954
3.76046
3.71393
3.62774
3.48307
3.37518
3.34059
3.34032
3.35515
3.38139
3.39855
3.40187
3.40424
1.40215
1.42086
1.47194
1.58953
1.80038
2.10442
2.51172
2.98011
3.3662
3.52799
3.67611
3.61229
3.53362
3.48793
3.44857
3.39479
3.37131
3.36459
3.37122
3.3875
3.40062
3.409
3.40967
3.41266
1.679
2.081
2.53359
3.00745
3.40797
3.84633
4.1348
4.40704
4.41736
4.29696
4.04503
3.7193
3.44958
3.36811
3.30557
3.30095
3.31983
3.35096
3.38508
3.40435
3.4078
3.4074
3.4067
3.41378
2.65324
1.92945
1.42611
1.16267
1.01122
0.932694
0.91973
0.945936
1.04286
1.15168
1.2208
1.25869
1.2732
1.27088
1.26599
1.28328
1.33982
1.35581
1.35474
1.34791
1.32972
1.32217
1.32805
1.3961
1.71131
2.56767
3.68231
4.84264
5.84146
6.00243
5.67108
5.14414
4.79795
4.64324
4.54508
4.44132
4.3199
4.19991
4.08909
3.97928
3.86136
3.73949
3.62209
3.50853
3.40688
3.32395
3.25466
3.19069
3.12577
3.05481
2.97016
2.86483
2.75656
2.68277
2.63719
2.59851
2.55887
2.5165
2.46756
2.40955
2.34279
2.27756
2.2226
2.18356
2.14864
2.11278
2.07816
2.03833
1.99266
1.94584
1.90395
1.86897
1.83649
1.81454
1.79448
1.79425
1.82022
1.91242
2.08612
2.33738
2.61797
2.8555
3.05035
3.17358
3.27805
3.30857
3.29933
3.25608
3.20997
3.16385
3.12082
3.08037
3.0321
2.96736
2.89101
2.78979
3.14499
2.73113
2.29949
1.96028
1.76975
1.59874
1.39814
1.31286
1.31544
1.28985
1.24797
1.22623
1.21583
1.22084
1.22867
1.25664
1.29462
1.3195
1.32451
1.32487
1.31563
1.31788
1.39391
1.80327
2.42183
2.756
3.08674
3.5017
4.24367
4.85527
5.15907
5.08933
4.89958
4.72144
4.581
4.4527
4.34027
4.23632
4.12786
4.01368
3.89262
3.77018
3.6519
3.54763
3.45515
3.36879
3.29404
3.2286
3.16214
3.08674
2.99875
2.89632
2.80002
2.72962
2.67746
2.63698
2.59609
2.55089
2.50096
2.44529
2.38244
2.31756
2.26
2.2162
2.17989
2.1434
2.10793
2.06732
2.02387
1.98013
1.93852
1.8982
1.86891
1.86132
1.88136
1.95314
2.06001
2.20029
2.33846
2.45378
2.53064
2.62115
2.72743
2.8278
2.9052
2.94546
2.96848
3.0036
3.03965
3.08442
3.09538
3.08103
3.04264
2.97432
2.89765
2.81028
3.33987
3.12919
2.8223
2.44426
2.13177
1.93997
1.73812
1.50925
1.40353
1.36188
1.31571
1.25312
1.2292
1.23595
1.25408
1.26252
1.27303
1.28716
1.30459
1.31679
1.32952
1.42415
1.92278
2.54401
2.87318
2.92733
2.93013
2.94488
3.10299
3.69402
4.5129
4.9447
4.96196
4.8365
4.60002
4.42006
4.30136
4.18784
4.06191
3.9379
3.82521
3.72117
3.62191
3.52244
3.42382
3.32504
3.2345
3.16085
3.10227
3.0372
2.95902
2.87715
2.79694
2.71423
2.64168
2.58899
2.551
2.51319
2.4687
2.41823
2.36169
2.29758
2.23405
2.1802
2.14095
2.10507
2.07327
2.04134
2.00608
1.96863
1.93622
1.91393
1.92467
1.97565
2.09896
2.2639
2.38501
2.47099
2.50515
2.49743
2.47119
2.45819
2.4629
2.49009
2.54199
2.61796
2.71235
2.82635
2.93452
3.00425
3.01168
3.01492
3.00754
2.9677
2.90862
2.82506
3.36694
3.29251
3.11912
2.8503
2.49789
2.26872
2.11488
1.86516
1.61614
1.55903
1.5262
1.43861
1.33473
1.30589
1.30933
1.29349
1.26808
1.26832
1.27987
1.29889
1.43015
1.93571
2.66709
2.85231
2.89899
2.90117
2.84287
2.77185
2.72755
2.79621
3.18084
3.97429
4.55778
4.62185
4.57955
4.44478
4.30628
4.16087
4.01237
3.8938
3.81042
3.72794
3.63351
3.52892
3.42018
3.31861
3.22578
3.14014
3.07469
3.02548
2.96735
2.89401
2.81082
2.72184
2.64396
2.57929
2.52981
2.49897
2.46978
2.42757
2.36972
2.29931
2.23223
2.17399
2.12798
2.09084
2.05968
2.03682
2.01518
1.98326
1.99167
2.03551
2.16435
2.31856
2.5007
2.56047
2.5959
2.5964
2.57932
2.5531
2.50947
2.45311
2.40868
2.37269
2.36107
2.37131
2.40631
2.47678
2.57616
2.6764
2.74624
2.80857
2.8586
2.84931
2.84536
2.83668
3.33974
3.33019
3.25357
3.09284
2.84184
2.54058
2.37647
2.21252
1.94842
1.7031
1.66019
1.61251
1.53051
1.41137
1.33368
1.30043
1.2799
1.27256
1.29143
1.49049
2.01174
2.70522
2.92499
2.88765
2.8233
2.75413
2.69958
2.65465
2.61385
2.55923
2.57754
2.77912
3.38671
4.06671
4.40972
4.4024
4.30484
4.13937
3.99122
3.86768
3.75681
3.65264
3.54952
3.45195
3.37671
3.31532
3.24449
3.15915
3.06848
2.98284
2.90507
2.83271
2.78013
2.73873
2.67933
2.60917
2.53868
2.47479
2.42191
2.37433
2.32551
2.28587
2.24895
2.20107
2.14612
2.10201
2.06542
2.04799
2.063
2.12593
2.25762
2.4268
2.55265
2.63986
2.69578
2.68318
2.66768
2.64314
2.59602
2.5367
2.47602
2.42781
2.39082
2.35823
2.33835
2.32522
2.31301
2.29749
2.30563
2.32931
2.39188
2.47803
2.59315
2.67528
2.7592
2.80559
3.30979
3.3139
3.30008
3.21599
3.06594
2.8364
2.58232
2.4251
2.25279
2.04159
1.82913
1.73834
1.70582
1.64037
1.51064
1.3883
1.36951
1.40011
1.63158
2.22332
2.789
2.99411
2.95444
2.85766
2.75856
2.66925
2.62296
2.58143
2.52404
2.46127
2.42068
2.38881
2.46649
2.85986
3.55084
4.05189
4.1272
4.09785
4.00164
3.87753
3.74225
3.60622
3.4865
3.4044
3.34398
3.28365
3.21726
3.14126
3.04743
2.95257
2.87554
2.81708
2.76337
2.7062
2.65034
2.59221
2.52615
2.45454
2.39191
2.34713
2.30923
2.26109
2.21747
2.18228
2.15294
2.11177
2.10801
2.15604
2.28409
2.49408
2.65441
2.74455
2.78926
2.79147
2.77903
2.75753
2.72391
2.66473
2.59288
2.5233
2.45553
2.4031
2.38383
2.36481
2.3391
2.31555
2.29763
2.27866
2.24371
2.18647
2.18059
2.19771
2.25782
2.36108
2.46769
2.6045
3.29757
3.3052
3.29978
3.27371
3.19145
3.04127
2.83022
2.63048
2.4314
2.26839
2.11904
1.96139
1.79533
1.74227
1.68791
1.57651
1.59072
1.85259
2.50618
3.03569
3.15174
3.08331
2.95004
2.83824
2.73815
2.66179
2.60842
2.55355
2.47356
2.41001
2.36
2.32358
2.26936
2.28232
2.47609
3.0309
3.60225
3.9393
3.95484
3.88725
3.73467
3.58229
3.46208
3.37645
3.30882
3.25093
3.19103
3.11864
3.02862
2.93316
2.85317
2.79141
2.7377
2.68961
2.64149
2.58699
2.52195
2.45239
2.38381
2.32551
2.27889
2.23769
2.20962
2.19019
2.18887
2.23135
2.36043
2.54727
2.72483
2.86434
2.87274
2.85098
2.83834
2.81682
2.77803
2.73895
2.70071
2.65489
2.59893
2.53373
2.46054
2.41263
2.38956
2.36672
2.34326
2.3216
2.30314
2.27991
2.23853
2.1784
2.13344
2.1186
2.11732
2.13411
2.17694
2.30236
3.29241
3.29826
3.29976
3.29441
3.25997
3.17225
3.01275
2.83874
2.65832
2.44328
2.29599
2.18696
2.01663
1.87394
1.81181
1.90006
2.3098
2.99313
3.42895
3.41333
3.30278
3.14531
3.00578
2.89246
2.78871
2.71005
2.63432
2.55548
2.46289
2.39926
2.34396
2.29632
2.23734
2.19965
2.16188
2.23308
2.56004
3.13348
3.61058
3.72529
3.70455
3.60486
3.48614
3.3863
3.30037
3.22487
3.15649
3.0852
3.00121
2.90752
2.82553
2.76589
2.71863
2.67691
2.63264
2.57913
2.51416
2.43858
2.36059
2.30253
2.26954
2.25289
2.2391
2.2858
2.42325
2.63433
2.86694
2.97524
3.019
3.01064
2.98026
2.9291
2.86865
2.8107
2.76391
2.73084
2.70002
2.66096
2.61525
2.55355
2.47159
2.4193
2.39368
2.37279
2.35268
2.33286
2.31734
2.29678
2.25376
2.18064
2.12955
2.10772
2.09357
2.08385
2.07951
2.09285
3.29488
3.29499
3.29367
3.29026
3.2822
3.2394
3.14374
2.98826
2.83645
2.65917
2.48749
2.32782
2.19436
2.11279
2.27127
2.83072
3.53293
3.79329
3.73511
3.56939
3.39515
3.24722
3.12089
2.99894
2.88041
2.77885
2.68441
2.58736
2.49474
2.426
2.36476
2.29687
2.23426
2.18017
2.13753
2.07637
2.07394
2.22045
2.66782
3.20322
3.53301
3.55269
3.51878
3.41387
3.30056
3.2098
3.13781
3.06644
2.98521
2.89473
2.8079
2.74284
2.6932
2.65308
2.61242
2.56474
2.50881
2.4391
2.36213
2.31818
2.29308
2.3185
2.43349
2.67325
2.91816
3.10633
3.15574
3.1379
3.08682
3.02871
2.9657
2.90353
2.85127
2.8111
2.77419
2.74322
2.71369
2.68042
2.63864
2.57365
2.48427
2.42557
2.40017
2.38135
2.36106
2.34001
2.32337
2.30263
2.26581
2.19924
2.13941
2.1102
2.0909
2.07636
2.06781
2.04746
3.33387
3.32482
3.31739
3.3038
3.28425
3.26591
3.21971
3.12139
2.98595
2.81576
2.66261
2.47794
2.49363
2.79272
3.5142
4.14679
4.24046
4.13097
3.92875
3.72576
3.54289
3.38623
3.24767
3.11599
2.99346
2.88119
2.77086
2.65154
2.53744
2.43869
2.36513
2.29524
2.23858
2.18846
2.14017
2.06811
2.01915
1.96626
2.00636
2.28483
2.81203
3.26568
3.39009
3.37309
3.2963
3.20149
3.12662
3.05801
2.97561
2.88877
2.80656
2.73634
2.6723
2.62531
2.58303
2.5454
2.50015
2.46011
2.38296
2.37406
2.44996
2.6571
2.92345
3.13861
3.28627
3.3078
3.2906
3.23731
3.14515
3.03956
2.9545
2.89011
2.84066
2.8114
2.78567
2.75849
2.73361
2.7056
2.66402
2.59233
2.49985
2.43826
2.41295
2.39458
2.37467
2.35563
2.33845
2.31477
2.27542
2.21576
2.15619
2.12132
2.09853
2.08232
2.06977
2.04108
3.28704
3.35168
3.35605
3.33697
3.30887
3.29056
3.26487
3.215
3.10453
2.98267
2.82937
2.93836
3.51914
4.31951
4.68756
4.6499
4.4742
4.26877
4.07191
3.88231
3.69831
3.52554
3.36767
3.22133
3.08909
2.96841
2.85466
2.7375
2.62258
2.51064
2.41147
2.32245
2.24829
2.18483
2.12613
2.07005
2.00426
1.94679
1.89006
1.88829
2.02435
2.43276
2.94665
3.23119
3.25266
3.21177
3.12274
3.05197
2.97114
2.88823
2.80937
2.7359
2.66057
2.61001
2.57148
2.54917
2.52103
2.51113
2.57268
2.74067
3.00496
3.18971
3.30864
3.35787
3.36643
3.34014
3.29172
3.23638
3.17112
3.07954
2.97957
2.89908
2.84604
2.81606
2.79081
2.76702
2.74404
2.72193
2.68738
2.61726
2.52741
2.46357
2.43247
2.41218
2.39131
2.3708
2.35079
2.32582
2.28922
2.2354
2.17578
2.13747
2.11542
2.09703
2.07978
2.04513
3.2733
3.3408
3.3249
3.31468
3.30993
3.30734
3.29358
3.26883
3.1918
3.19922
3.55048
4.39094
5.13641
5.34251
5.2273
4.9344
4.65116
4.41166
4.20351
4.0095
3.82372
3.64708
3.48362
3.33239
3.19373
3.06259
2.93453
2.80484
2.67576
2.55501
2.44904
2.36341
2.29328
2.22851
2.15731
2.08719
2.0155
1.94462
1.87263
1.82658
1.79801
1.85062
2.11869
2.59487
2.98931
3.11401
3.09125
3.01313
2.92454
2.85684
2.79245
2.73092
2.66356
2.61549
2.59203
2.58669
2.66043
2.86179
3.13115
3.40845
3.5394
3.5672
3.53432
3.46963
3.38626
3.31935
3.26749
3.22052
3.17196
3.10841
3.01811
2.92162
2.86571
2.83279
2.806
2.78098
2.75186
2.71824
2.67681
2.6189
2.55041
2.49618
2.46324
2.43866
2.4151
2.38999
2.36087
2.32768
2.28658
2.23615
2.18516
2.15164
2.132
2.11311
2.0939
2.05556
2.68556
3.08242
3.23332
3.34088
3.35881
3.35217
3.32382
3.32078
3.4602
4.20461
5.36291
5.77037
5.71616
5.59397
5.38154
5.13319
4.8644
4.59476
4.34412
4.12194
3.92606
3.74643
3.57522
3.41046
3.25787
3.1217
2.99899
2.88005
2.75286
2.61918
2.48594
2.37052
2.28729
2.233
2.1825
2.11706
2.04196
1.97877
1.91113
1.83106
1.76704
1.72536
1.73592
1.88159
2.23208
2.69493
2.94862
2.95043
2.91401
2.86388
2.79648
2.73239
2.6891
2.66296
2.70897
2.89849
3.19649
3.4578
3.62887
3.68848
3.67991
3.637
3.56075
3.48601
3.40988
3.3328
3.26609
3.2132
3.17379
3.12775
3.04422
2.95175
2.89813
2.8616
2.82732
2.79443
2.76137
2.72953
2.69083
2.63202
2.56929
2.52675
2.49407
2.46363
2.43654
2.41295
2.38424
2.34281
2.29698
2.24783
2.20077
2.16773
2.14513
2.12337
2.10155
2.06048
1.73802
2.39748
2.97831
3.31504
3.31864
3.31227
3.40615
3.83037
4.85335
6.01849
6.49283
6.40182
6.05843
5.71796
5.4909
5.27512
5.02296
4.74455
4.47256
4.23048
4.01933
3.82988
3.65234
3.48285
3.32254
3.17092
3.02881
2.89969
2.78664
2.67116
2.53859
2.42317
2.33979
2.26232
2.18516
2.13255
2.08308
2.01361
1.93727
1.85492
1.77353
1.71202
1.66924
1.66624
1.71909
1.9444
2.40005
2.6786
2.79794
2.7821
2.74113
2.75351
2.84898
3.00716
3.29637
3.61253
3.80954
3.88004
3.88058
3.83343
3.74091
3.64928
3.55832
3.48412
3.42486
3.36664
3.29966
3.22952
3.16931
3.11458
3.03905
2.96909
2.92848
2.8911
2.85493
2.81726
2.77221
2.71842
2.65592
2.59208
2.56082
2.54282
2.5215
2.4956
2.46504
2.42539
2.3736
2.31612
2.26034
2.2292
2.20863
2.18337
2.15995
2.13929
2.11766
2.07283
1.42445
1.62476
2.15243
2.88551
3.18544
3.66984
4.49036
5.53643
6.32794
6.58671
6.53935
6.43831
6.24499
5.94715
5.65822
5.37801
5.09554
4.82093
4.56338
4.32404
4.10035
3.8907
3.69459
3.517
3.36363
3.22629
3.09208
2.95545
2.80073
2.65952
2.58736
2.52148
2.435
2.34043
2.25256
2.1602
2.05776
1.98479
1.9544
1.92208
1.86271
1.78235
1.6817
1.60548
1.58951
1.60548
1.74756
2.07026
2.47726
2.63081
2.72803
3.05297
3.45588
3.69542
3.96579
4.02696
3.98747
3.93907
3.88337
3.81553
3.7431
3.67351
3.58401
3.50198
3.43547
3.37576
3.31979
3.26096
3.19817
3.12591
3.03317
2.96737
2.94326
2.92552
2.89596
2.85669
2.80458
2.73399
2.65158
2.58929
2.56355
2.54345
2.52495
2.50631
2.48298
2.44264
2.38234
2.31561
2.25499
2.2213
2.21021
2.20386
2.1905
2.17155
2.15025
2.10137
1.40049
1.4128
1.5349
2.12239
3.36656
4.6721
5.80682
6.67819
7.1065
6.87793
6.50144
6.39298
6.28591
6.0766
5.76418
5.42494
5.10768
4.82672
4.57796
4.34841
4.12943
3.92097
3.72603
3.54412
3.37027
3.20407
3.05257
2.92385
2.81704
2.71555
2.59854
2.47651
2.37265
2.27903
2.18468
2.0944
2.03943
2.00566
1.95987
1.89603
1.82972
1.75048
1.64638
1.58486
1.56282
1.55469
1.56741
1.64658
1.92866
2.45835
2.99514
3.62684
4.01028
4.17935
4.28245
4.25565
4.12948
3.96001
3.84222
3.76987
3.71149
3.65756
3.60204
3.54131
3.46166
3.39262
3.33687
3.2779
3.20063
3.11889
3.06341
3.01716
2.96567
2.91348
2.87027
2.83179
2.78523
2.71445
2.65481
2.62224
2.59773
2.57708
2.55871
2.53997
2.51564
2.47341
2.39274
2.29794
2.2453
2.22402
2.21129
2.19576
2.17701
2.15746
2.13539
2.08436
1.40049
1.41277
1.53526
2.11984
3.37227
4.66814
5.80554
6.67923
7.10617
6.87635
6.50469
6.39383
6.28747
6.07844
5.76604
5.42638
5.10822
4.82605
4.57571
4.3459
4.1286
3.92252
3.72823
3.54473
3.37013
3.2076
3.06023
2.92042
2.79388
2.69548
2.58864
2.47412
2.37212
2.27913
2.18371
2.09066
2.03939
2.00778
1.95943
1.89537
1.82927
1.7503
1.64802
1.58543
1.56184
1.55439
1.56605
1.64808
1.93426
2.43164
3.10947
3.58259
3.93081
4.20805
4.28806
4.23445
4.15995
4.024
3.88414
3.79656
3.72094
3.66158
3.59083
3.50411
3.42002
3.35934
3.31254
3.26464
3.2032
3.12618
3.04245
2.99177
2.9515
2.90646
2.86486
2.82699
2.78264
2.71649
2.64151
2.5996
2.57495
2.5551
2.53645
2.51764
2.49417
2.45581
2.38341
2.29214
2.24689
2.22796
2.21215
2.19607
2.17887
2.15973
2.13734
2.0849
1.42444
1.62477
2.15266
2.88334
3.18974
3.66766
4.48853
5.53685
6.32602
6.58646
6.54028
6.44011
6.24672
5.94862
5.65928
5.3785
5.09601
4.82174
4.56382
4.32425
4.10049
3.89028
3.69329
3.51376
3.35813
3.22087
3.0875
2.94835
2.79662
2.67063
2.59888
2.52299
2.43184
2.33705
2.24865
2.14714
2.04728
1.98923
1.96206
1.92639
1.86432
1.78195
1.68714
1.60882
1.58972
1.60945
1.73296
2.08327
2.45482
2.61547
2.82953
3.02983
3.35351
3.70719
3.92591
3.9959
4.00648
3.97686
3.93883
3.86444
3.76033
3.64541
3.55517
3.49203
3.42932
3.37089
3.32906
3.28569
3.22935
3.15319
3.05067
2.98144
2.95437
2.92157
2.8827
2.84181
2.79211
2.72153
2.64311
2.59479
2.57347
2.55589
2.53778
2.51741
2.49009
2.44755
2.37507
2.30085
2.26971
2.24843
2.23297
2.2188
2.20264
2.18172
2.15677
2.10146
1.7378
2.39796
2.97768
3.31478
3.31929
3.31226
3.40558
3.83059
4.85435
6.01796
6.49419
6.40392
6.06027
5.71872
5.49078
5.2745
5.02229
4.74382
4.4719
4.22993
4.01863
3.82902
3.65159
3.48272
3.32409
3.17299
3.02913
2.90065
2.78808
2.66705
2.53206
2.42174
2.33905
2.25924
2.18702
2.14228
2.08496
2.01212
1.93556
1.85608
1.77609
1.71221
1.67049
1.66444
1.7187
1.96258
2.35556
2.7325
2.78956
2.77373
2.76841
2.7613
2.81761
3.01519
3.31645
3.62197
3.82029
3.9256
3.9069
3.83016
3.70682
3.59925
3.53222
3.48535
3.43436
3.37029
3.30305
3.24046
3.18356
3.12673
3.04518
2.96268
2.91931
2.88561
2.85137
2.81495
2.77396
2.72298
2.65739
2.59629
2.55932
2.53501
2.51558
2.49561
2.46999
2.42995
2.37511
2.32058
2.26383
2.21835
2.19905
2.18452
2.16884
2.14958
2.12653
2.07294
2.68547
3.08261
3.23327
3.34075
3.35875
3.35209
3.32367
3.32082
3.46057
4.20426
5.36327
5.77102
5.71598
5.59334
5.38051
5.13206
4.8636
4.59425
4.34387
4.12169
3.92577
3.74649
3.57577
3.41165
3.25954
3.12221
2.99848
2.88041
2.75421
2.61811
2.48312
2.36802
2.28754
2.23597
2.18443
2.11337
2.04035
1.97996
1.91281
1.83296
1.76519
1.72289
1.73625
1.87193
2.25269
2.68996
2.92512
2.95732
2.91572
2.84907
2.78688
2.74141
2.69462
2.6654
2.71703
2.90239
3.18698
3.47598
3.6255
3.66325
3.64363
3.6094
3.55957
3.49589
3.42503
3.34455
3.27667
3.2239
3.18043
3.12457
3.02944
2.94077
2.89386
2.86251
2.83566
2.81091
2.78489
2.74834
2.68812
2.60718
2.54514
2.50855
2.48584
2.46744
2.45106
2.42987
2.39647
2.345
2.27619
2.21889
2.19015
2.17207
2.15422
2.13374
2.11193
2.06301
3.27335
3.34089
3.325
3.31467
3.30986
3.30732
3.2936
3.26884
3.19185
3.19917
3.55017
4.39053
5.13582
5.34226
5.22682
4.93374
4.65066
4.4114
4.20342
4.00953
3.82403
3.64772
3.48431
3.333
3.19415
3.06282
2.93468
2.80497
2.67561
2.55451
2.44957
2.36502
2.29462
2.22858
2.15637
2.08705
2.01699
1.94593
1.87275
1.82577
1.79655
1.85065
2.1195
2.58433
3.02172
3.10668
3.06827
3.00788
2.92677
2.85319
2.79502
2.73742
2.66718
2.61667
2.59634
2.58817
2.65319
2.84975
3.12027
3.38175
3.52727
3.56868
3.54328
3.48027
3.39522
3.32001
3.26781
3.22088
3.17095
3.10291
3.00737
2.9204
2.87022
2.84052
2.81759
2.79216
2.76224
2.72786
2.67687
2.59619
2.52663
2.4916
2.46517
2.44329
2.42174
2.39606
2.36609
2.32808
2.28008
2.22647
2.18234
2.15557
2.13331
2.11092
2.09348
2.05999
3.28704
3.35173
3.3561
3.33699
3.30887
3.29055
3.26489
3.21503
3.10454
2.98268
2.82932
2.93819
3.51889
4.31937
4.68743
4.64988
4.4741
4.26879
4.07218
3.88275
3.69885
3.52606
3.36804
3.2216
3.08914
2.96817
2.85413
2.73692
2.6222
2.5106
2.41154
2.32217
2.24816
2.18501
2.12706
2.07128
2.00493
1.94696
1.8899
1.88737
2.02268
2.44136
2.93313
3.23352
3.25829
3.21063
3.12083
3.04482
2.97251
2.89448
2.81588
2.73787
2.65733
2.60678
2.5732
2.55035
2.52111
2.51035
2.57207
2.74484
3.01742
3.21025
3.32948
3.3678
3.36642
3.33697
3.28925
3.23158
3.16067
3.06756
2.97511
2.90309
2.85031
2.82331
2.80036
2.77538
2.75081
2.72168
2.67268
2.59178
2.51488
2.47301
2.44328
2.41717
2.39414
2.37288
2.35406
2.33335
2.29394
2.22631
2.16725
2.13742
2.11613
2.09636
2.08058
2.04516
3.33386
3.32482
3.3174
3.30381
3.28425
3.2659
3.21971
3.12139
2.98596
2.81576
2.6626
2.47794
2.49364
2.79285
3.51442
4.14691
4.24053
4.13118
3.92914
3.72621
3.54326
3.38645
3.24773
3.11585
2.9931
2.8807
2.77038
2.65108
2.5372
2.43902
2.36554
2.29513
2.23843
2.18847
2.14038
2.06835
2.01929
1.96636
2.00671
2.28228
2.81195
3.26939
3.38461
3.37069
3.29737
3.20555
3.12699
3.05788
2.97845
2.89168
2.80752
2.73336
2.66772
2.62245
2.58279
2.54607
2.50083
2.46078
2.38498
2.37929
2.46086
2.67284
2.93653
3.14731
3.29175
3.30627
3.28787
3.22688
3.13021
3.0265
2.95218
2.89595
2.84627
2.81906
2.79235
2.76245
2.73123
2.69546
2.64595
2.57708
2.50411
2.45616
2.42536
2.39979
2.37812
2.35981
2.34032
2.31161
2.26809
2.20585
2.1509
2.12328
2.1048
2.08668