/*--------------------------------*- C++ -*----------------------------------*\
  =========                 |
  \\      /  F ield         | OpenFOAM: The Open Source CFD Toolbox
   \\    /   O peration     | Website:  https://openfoam.org
    \\  /    A nd           | Version:  7
     \\/     M anipulation  |
\*---------------------------------------------------------------------------*/
FoamFile
{
    version     2.0;
    format      ascii;
    class       volScalarField;
    location    "1.5";
    object      T;
}
// * * * * * * * * * * * * * * * * * * * * * * * * * * * * * * * * * * * * * //

dimensions      [0 0 0 1 0 0 0];

internalField   nonuniform List<scalar> 
4608
(
1
1
1
1
1
1
1
1
1
1
1
1
1
1
1
1
1
1
1
1
1
1
1
1
1
1
1
1
1
1
1
1
1
1
1
1
1
1
1
1
1
1
1
1
1
1
1
1
1
1
1
1
1
1
1
1
1
1
1
1
1
1
1
1
1
1
1
1
1
1
1
1
1
1
1
1
1
1
1
1
1
1
1
1
1
1
1
1
1
1
1
1
1
1
1
1
1
1
1
1
1
1
1
1
1
1
1
1
1
1
1
1
1
1
1
1
1
1
1
1
1
1
1
1
1
1
1
1
1
1
1
1
1
1
1
1
1
1
1
1
1
1
1
1
1
1
1
1
1
1
1
1
1
1
1
1
1
1
1
1
1
1
1
1
1
1
1
1
1
1
1
1
1
1
1
1
1
1
1
1
1
1
1
1
1
1
1
1
1
1
1
1
1
1
1
1
1
1
1
1
1
1
1
1
1
1
1
1
1
1
1
1
1
1
1
1
1
1
1
1
1
1
1
1
1
1
1
1
1
1
1
1
1
1
1
1
1
1
1
1
1
1
1
1
1
1
1
1
1
1
1
1
1
1
1
1
1
1
1
1
1
1
1
1
1
1
1
1
1
1
1
1
1
1
1
1
1
1
1
1
1
1
1
1
1
1
1
1
1
1
1
1
1
1
1
1
1
1
1
1
1
1
1
1
1
1
1
1
1
1
1
1
1
1
1
1
1
1
1
1
1
1
1
1
1
1
1
1
1
1
1
1
1
1
1
1
1
1
1
1
1
1
1
1
1
1
1
1
1
1
1
1
1
1
1
1
1
1
1
1
1
1
1
1
1
1
1
1
1
1
1
1
1
1
1
1
1
1
1
1
1
1
1
1
1
1
1
1
1
1
1
1
1
1
1
1
1
1
1
1
1
1
1
1
1
1
1
1
1
1
1
1
1
1
1
1
1
1
1
1
1
1
1
1
1
1
1
1
1
1
1
1
1
1
1
1
1
1
1
1
1
1
1
1
1
1
1
1
1
1
1
1
1
1
1
1
1
1
1
1
1
1
1
1
1
1
1
1
1
1
1
1
1
1
1
1
1
1
1
1
1
1
1
1
1
1
1
1
1
1
1
1
1
1
1
1
1
1
1
1
1
1
1
1
1
1
1
1
1
1
1
1
1
1
1
1
1
1
1
1
1
1
1
1
1
1
1
1
1
1
1
1
1
1
1
1
1
1
1
1
1
1
1
1
1
1
1
1
1
1
1
1
1
1
1
1
1
1
1
1
1
1
1
1
1
1
1
1
1
1
1
1
1
1
1
1
1
1
1
1
1
1
1
1
1
1
1
1
1
1
1
1
1
1
1
1
1
1
1
1
1
1
1
1
1
1
1
1
1
1
1
1
1
1
1
1
1
1
1
1
1
1
1
1
1
1
1
1
1
1
1
1
1
1
1
1
1
1
1
1
1
1
1
1
1
1
1
1
1
1
1
1
1
1
1
1
1
1
1
1
1
1
1
1
1
1
1
1
1
1
1
1
1
1
1
1
1
1
1
1
1
1
1
1
1
1
1
1
1
1
1
1
1
1
1
1
1
1
1
1
1
1
1
1
1
1
1
1
1
1
1
1
1
1
1
1
1
1
1
1
1
1
1
1
1
1
1
1
1
1
1
1
1
1
1
1
1
1
1
1
1
1
1
1
1
1
1
1
1
1
1
1
1
1
1
1
1
1
1
1
1
1
1
1
1
1
1
1
1.07891
1.18031
1.28684
1.39389
1.48413
1.57591
1.63888
1.68003
1.6971
1.68144
1.63972
1.5866
1.54039
1.52448
1.51324
1.5134
1.51712
1.52371
1.53043
1.53431
1.53511
1.535
1.53478
1.53635
1.00072
1.00757
1.02746
1.07269
1.14606
1.23004
1.323
1.4081
1.48044
1.51604
1.55605
1.56157
1.55706
1.55252
1.54638
1.53607
1.53204
1.53208
1.53335
1.53596
1.53776
1.5388
1.53864
1.53945
0.999998
1.00001
1.00001
1.00005
1.00126
1.0078
1.03799
1.11549
1.2727
1.44794
1.57385
1.62108
1.61979
1.60861
1.59303
1.56711
1.54874
1.54239
1.5418
1.54325
1.54597
1.54737
1.54722
1.54838
1
1
1
0.999999
0.999995
1.00001
0.999991
1.00058
1.01348
1.10896
1.30963
1.49151
1.60967
1.60908
1.59921
1.59672
1.58796
1.57319
1.5627
1.55786
1.55654
1.55725
1.55813
1.55979
1
1
1
1
1
1
0.999999
0.999999
0.999961
1.00051
1.01454
1.13394
1.34639
1.53483
1.59677
1.62811
1.62395
1.61086
1.58702
1.57453
1.56662
1.56376
1.56525
1.56949
1
1
1
1
1
1
1
1
0.999996
0.999997
0.999959
1.00139
1.02478
1.18024
1.3961
1.57265
1.61273
1.60692
1.60144
1.59334
1.58414
1.57598
1.57557
1.57795
1
1
1
1
1
1
1
1
1
1
0.999996
0.999997
0.999977
1.00415
1.05868
1.24472
1.45376
1.57768
1.61058
1.61009
1.60302
1.59195
1.58679
1.5847
1
1
1
1
1
1
1
1
1
1
1
1
0.999998
0.999985
1.00028
1.01214
1.12462
1.34397
1.50472
1.57609
1.59547
1.59304
1.58574
1.58333
1
1
1
1
1
1
1
1
1
1
1
1
1
0.999998
0.999998
0.999994
1.00259
1.04388
1.2291
1.44992
1.55808
1.57052
1.57762
1.57937
1
1
1
1
1
1
1
1
1
1
1
1
1
1
1
0.999999
0.999993
1.00038
1.01779
1.13262
1.35815
1.5118
1.57379
1.58276
1
1
1
1
1
1
1
1
1
1
1
1
1
1
1
1
0.999999
0.999997
1.00007
1.00453
1.08011
1.27489
1.4769
1.53252
1
1
1
1
1
1
1
1
1
1
1
1
1
1
1
1
1
0.999999
0.999999
1
1.0023
1.03553
1.2135
1.42297
1
1
1
1
1
1
1
1
1
1
1
1
1
1
1
1
1
1
1
1
0.999999
1.00056
1.02234
1.15712
1
1
1
1
1
1
1
1
1
1
1
1
1
1
1
1
1
1
1
1
1
1
1.00041
1.00912
1
1
1
1
1
1
1
1
1
1
1
1
1
1
1
1
1
1
1
1
1
1
1.00001
0.999996
1
1
1
1
1
1
1
1
1
1
1
1
1
1
1
1
1
1
1
1
1
1
1
0.999998
1
1
1
1
1
1
1
1
1
1
1
1
1
1
1
1
1
1
1
1
1
1
1
0.999998
1
1
1
1
1
1
1
1
1
1
1
1
1
1
1
1
1
1
1
1
1
1
1.00001
0.999996
1
1
1
1
1
1
1
1
1
1
1
1
1
1
1
1
1
1
1
1
1
1
1.00041
1.00913
1
1
1
1
1
1
1
1
1
1
1
1
1
1
1
1
1
1
1
1
0.999999
1.00056
1.02234
1.15712
1
1
1
1
1
1
1
1
1
1
1
1
1
1
1
1
1
0.999999
0.999999
1
1.0023
1.03553
1.21351
1.42293
1
1
1
1
1
1
1
1
1
1
1
1
1
1
1
1
0.999999
0.999997
1.00007
1.00453
1.08011
1.27489
1.47689
1.53251
1
1
1
1
1
1
1
1
1
1
1
1
1
1
1
0.999999
0.999993
1.00038
1.01779
1.13262
1.35815
1.51181
1.57379
1.58275
1
1
1
1
1
1
1
1
1
1
1
1
1
0.999998
0.999998
0.999994
1.00259
1.04388
1.2291
1.44992
1.55808
1.57052
1.57762
1.57937
1
1
1
1
1
1
1
1
1
1
1
1
0.999998
0.999985
1.00028
1.01214
1.12462
1.34397
1.50472
1.57609
1.59547
1.59304
1.58574
1.58333
1
1
1
1
1
1
1
1
1
1
0.999996
0.999997
0.999977
1.00415
1.05868
1.24472
1.45376
1.57768
1.61058
1.61009
1.60302
1.59195
1.58679
1.5847
1
1
1
1
1
1
1
1
0.999996
0.999997
0.999959
1.00139
1.02478
1.18024
1.3961
1.57265
1.61273
1.60692
1.60144
1.59334
1.58414
1.57598
1.57557
1.57795
1
1
1
1
1
1
0.999999
0.999999
0.999961
1.00051
1.01454
1.13394
1.34639
1.53483
1.59677
1.62811
1.62395
1.61086
1.58702
1.57453
1.56662
1.56376
1.56525
1.56949
1
1
1
0.999999
0.999995
1.00001
0.999991
1.00058
1.01348
1.10896
1.30963
1.49151
1.60967
1.60908
1.59921
1.59672
1.58796
1.57319
1.5627
1.55786
1.55654
1.55725
1.55813
1.55979
0.999998
1.00001
1.00001
1.00005
1.00126
1.0078
1.03799
1.11549
1.2727
1.44794
1.57385
1.62108
1.61979
1.60861
1.59303
1.56711
1.54874
1.54239
1.5418
1.54325
1.54597
1.54737
1.54722
1.54838
1.00072
1.00757
1.02746
1.07269
1.14606
1.23004
1.323
1.4081
1.48044
1.51604
1.55605
1.56157
1.55706
1.55252
1.54638
1.53607
1.53204
1.53208
1.53335
1.53596
1.53776
1.5388
1.53864
1.53945
1.07891
1.18031
1.28684
1.39389
1.48413
1.57591
1.63888
1.68003
1.6971
1.68144
1.63972
1.5866
1.54039
1.52448
1.51324
1.5134
1.51712
1.52371
1.53043
1.53431
1.53511
1.535
1.53478
1.53635
1.39472
1.23288
1.09829
1.02582
1.00646
0.989537
0.973067
0.985507
1.03303
1.07669
1.09241
1.09787
1.09652
1.09434
1.09375
1.1029
1.11951
1.12043
1.11884
1.11487
1.10936
1.10466
1.10652
1.13236
1.25727
1.51898
1.76503
1.98163
2.13882
2.1844
2.1371
2.05493
1.99707
1.97008
1.95209
1.93375
1.91289
1.89242
1.87308
1.85298
1.83082
1.80776
1.78527
1.76268
1.7415
1.72389
1.70957
1.69691
1.68418
1.66976
1.65162
1.62803
1.60293
1.5852
1.574
1.56462
1.55514
1.54488
1.53273
1.51803
1.50101
1.48442
1.47049
1.46047
1.45099
1.44058
1.43003
1.41807
1.40488
1.3919
1.38064
1.37124
1.36234
1.35578
1.34974
1.34834
1.35638
1.38514
1.43687
1.50627
1.57753
1.63339
1.67649
1.70301
1.72583
1.73425
1.73553
1.7267
1.71487
1.70168
1.69033
1.68076
1.67062
1.65735
1.64084
1.61623
1.49313
1.4142
1.31849
1.2332
1.19225
1.14555
1.0768
1.06142
1.07202
1.07121
1.06385
1.05653
1.05201
1.05392
1.05852
1.07166
1.08494
1.0899
1.08984
1.09048
1.08867
1.091
1.12218
1.28386
1.47392
1.55514
1.63368
1.72682
1.87085
1.97924
2.04303
2.0358
2.01043
1.98349
1.95992
1.9377
1.91831
1.89998
1.88072
1.85953
1.83709
1.81454
1.79222
1.77153
1.75209
1.73364
1.71807
1.70524
1.69249
1.67751
1.65893
1.63604
1.61375
1.59694
1.58407
1.5741
1.56447
1.55382
1.54173
1.52783
1.51193
1.49546
1.48078
1.46947
1.45972
1.44919
1.43841
1.42647
1.41418
1.40219
1.39109
1.38015
1.37234
1.36985
1.37589
1.39763
1.42824
1.46712
1.50477
1.53538
1.55607
1.57954
1.60563
1.62925
1.64675
1.65561
1.66083
1.66845
1.675
1.68256
1.68381
1.68068
1.6729
1.65946
1.64354
1.62206
1.53368
1.49323
1.43286
1.35205
1.2807
1.23075
1.17458
1.11222
1.0854
1.07293
1.05835
1.03907
1.03321
1.03515
1.041
1.04661
1.05248
1.05745
1.06189
1.06519
1.07078
1.11056
1.29903
1.48625
1.5709
1.58665
1.58764
1.59178
1.63253
1.77351
1.94146
2.02279
2.02863
2.00765
1.96721
1.93536
1.91404
1.89384
1.87106
1.84795
1.82696
1.80776
1.78882
1.76884
1.74807
1.72705
1.70799
1.69268
1.68066
1.66755
1.65109
1.63285
1.6141
1.5942
1.57663
1.56378
1.55426
1.54499
1.53418
1.52167
1.50749
1.49119
1.47496
1.46103
1.45017
1.43965
1.43005
1.42032
1.40994
1.39934
1.39054
1.38533
1.3893
1.40591
1.4437
1.49016
1.51995
1.54161
1.55088
1.54964
1.54394
1.54098
1.54233
1.54964
1.56324
1.58268
1.60634
1.6338
1.65872
1.67279
1.67131
1.67086
1.66939
1.66165
1.64889
1.62809
1.55492
1.53667
1.50041
1.44476
1.36834
1.31411
1.27543
1.21269
1.14572
1.12473
1.11292
1.08797
1.0608
1.05134
1.05118
1.0456
1.04163
1.04265
1.04618
1.05226
1.10555
1.29833
1.51512
1.5639
1.57895
1.58176
1.57009
1.55523
1.54734
1.56698
1.67131
1.85416
1.97957
1.97797
1.96892
1.94445
1.92056
1.89497
1.86768
1.84611
1.83019
1.81399
1.79513
1.77378
1.75148
1.73061
1.71086
1.69175
1.67684
1.66613
1.65366
1.63778
1.61926
1.59872
1.58017
1.56401
1.55075
1.54239
1.53488
1.52445
1.51049
1.49348
1.47685
1.46151
1.44838
1.43768
1.42872
1.42133
1.41438
1.4049
1.40807
1.42312
1.46257
1.50617
1.55441
1.56786
1.57404
1.57645
1.57332
1.56783
1.55727
1.54301
1.53166
1.52236
1.51965
1.52257
1.53252
1.55158
1.57745
1.60146
1.61604
1.62899
1.64085
1.63918
1.63731
1.63394
1.56716
1.56181
1.54228
1.50621
1.45126
1.38299
1.34326
1.30408
1.2409
1.17211
1.15694
1.1434
1.12442
1.0951
1.06777
1.05007
1.04326
1.0445
1.05338
1.13581
1.32403
1.52785
1.58683
1.57951
1.56774
1.55453
1.54283
1.53279
1.52385
1.51182
1.51713
1.576
1.73945
1.88653
1.94983
1.94738
1.92896
1.89806
1.86995
1.84649
1.82481
1.80375
1.78254
1.7622
1.74649
1.73349
1.71782
1.69872
1.67865
1.65937
1.6419
1.62587
1.61454
1.6054
1.59107
1.57327
1.55522
1.53838
1.52432
1.51235
1.50071
1.49183
1.48295
1.47022
1.45483
1.44225
1.43174
1.42608
1.43035
1.44868
1.48748
1.53452
1.5685
1.59109
1.60424
1.60091
1.59669
1.59088
1.58036
1.56699
1.55253
1.54006
1.52991
1.521
1.51535
1.51177
1.50858
1.5047
1.50671
1.51288
1.52947
1.5514
1.58034
1.60135
1.62134
1.63182
1.57739
1.57439
1.56709
1.5452
1.51009
1.45824
1.40012
1.36231
1.32058
1.26928
1.21212
1.18654
1.17998
1.16589
1.1315
1.08649
1.07827
1.09109
1.18391
1.38946
1.54684
1.60469
1.59787
1.57893
1.55783
1.53744
1.52615
1.51623
1.50223
1.48693
1.4764
1.46709
1.49043
1.60635
1.77614
1.88861
1.89936
1.89378
1.87534
1.85084
1.82443
1.79716
1.77291
1.75643
1.7434
1.72942
1.71445
1.69797
1.67799
1.65716
1.63973
1.62601
1.61303
1.59909
1.58543
1.57114
1.55474
1.53634
1.51992
1.50875
1.49932
1.48712
1.47582
1.46639
1.45825
1.44622
1.44529
1.45945
1.49619
1.55308
1.59507
1.61792
1.63082
1.63041
1.62705
1.6215
1.61296
1.59843
1.58131
1.56535
1.5493
1.53555
1.52955
1.52376
1.51643
1.50984
1.50483
1.49941
1.48945
1.47303
1.47112
1.47607
1.49307
1.52191
1.5496
1.58716
1.58413
1.58276
1.57891
1.56973
1.54892
1.514
1.46655
1.42064
1.37265
1.33304
1.29737
1.25808
1.21333
1.19929
1.18428
1.15218
1.16153
1.27191
1.48233
1.61284
1.64192
1.62815
1.6009
1.57666
1.55389
1.53569
1.52229
1.50707
1.48627
1.46987
1.45646
1.44596
1.42925
1.43286
1.4938
1.65241
1.78889
1.86425
1.86606
1.85282
1.82282
1.79162
1.76764
1.7506
1.73666
1.72409
1.71114
1.69581
1.67667
1.65559
1.63697
1.62186
1.60844
1.59682
1.58531
1.57197
1.5557
1.53807
1.52067
1.50574
1.4936
1.48272
1.47548
1.4698
1.46974
1.48234
1.51978
1.56947
1.61399
1.64768
1.65124
1.64637
1.64329
1.6378
1.62808
1.61808
1.60815
1.59674
1.58343
1.5682
1.55037
1.53753
1.53079
1.52405
1.51705
1.51058
1.50526
1.49883
1.48735
1.47016
1.45721
1.45317
1.4525
1.45734
1.46919
1.50736
1.58419
1.58471
1.58397
1.58113
1.57169
1.55116
1.51593
1.4774
1.43631
1.38683
1.35181
1.32471
1.28201
1.24285
1.22551
1.25918
1.40052
1.59153
1.69878
1.69656
1.67486
1.64177
1.61112
1.58519
1.56106
1.54206
1.5232
1.50372
1.48092
1.46356
1.44749
1.4327
1.4151
1.40342
1.39204
1.41495
1.51883
1.67664
1.78562
1.81364
1.81016
1.79163
1.76797
1.74728
1.73058
1.7161
1.7026
1.68817
1.67057
1.64978
1.63019
1.61515
1.60343
1.59368
1.58347
1.57066
1.55467
1.53585
1.5162
1.50081
1.49206
1.48749
1.48408
1.49779
1.53744
1.59507
1.65196
1.67625
1.68641
1.6842
1.67692
1.66496
1.65054
1.63617
1.62422
1.61557
1.60755
1.59774
1.58637
1.57129
1.55122
1.53767
1.5306
1.52435
1.51773
1.51107
1.50607
1.50027
1.48905
1.4698
1.45525
1.44847
1.44372
1.44027
1.4376
1.44196
1.58113
1.58199
1.58181
1.5805
1.57822
1.5694
1.55016
1.51818
1.48552
1.44667
1.40742
1.36885
1.33256
1.31527
1.37216
1.54627
1.71487
1.76906
1.75807
1.72614
1.6909
1.65907
1.63036
1.60201
1.57423
1.54995
1.52702
1.50362
1.48071
1.46164
1.44398
1.42521
1.40796
1.39244
1.37975
1.3603
1.36132
1.41237
1.54626
1.68442
1.75506
1.77087
1.7647
1.74464
1.72303
1.70575
1.69203
1.67811
1.66149
1.64186
1.62181
1.60617
1.59436
1.5853
1.57629
1.56541
1.5521
1.53512
1.51586
1.50422
1.4977
1.50513
1.53776
1.60211
1.66448
1.70872
1.71567
1.71141
1.70058
1.68684
1.67158
1.65635
1.6433
1.63302
1.62357
1.61528
1.6072
1.59835
1.58779
1.57212
1.55063
1.53585
1.52876
1.52268
1.51554
1.50814
1.50272
1.4971
1.48812
1.47139
1.45489
1.44603
1.43977
1.43457
1.43079
1.42326
1.5818
1.58215
1.58186
1.57988
1.57701
1.57481
1.56746
1.54926
1.52214
1.48602
1.45195
1.40938
1.41692
1.51448
1.69724
1.83239
1.84692
1.8264
1.78841
1.74893
1.71184
1.67841
1.64758
1.61763
1.58932
1.56303
1.53707
1.50889
1.48094
1.45575
1.43567
1.41608
1.40004
1.38624
1.37308
1.35421
1.33953
1.32322
1.33765
1.43032
1.57788
1.68553
1.7231
1.7219
1.70929
1.69214
1.67861
1.66595
1.6498
1.63156
1.61325
1.59725
1.58263
1.57223
1.56334
1.55534
1.54562
1.53701
1.51842
1.51714
1.53899
1.59402
1.65898
1.70864
1.74057
1.74355
1.74004
1.72847
1.7076
1.6841
1.66378
1.6471
1.63394
1.62637
1.62006
1.61307
1.60586
1.59756
1.5868
1.57041
1.5488
1.53295
1.52519
1.51878
1.51166
1.50511
1.49984
1.49372
1.48429
1.46946
1.45362
1.4435
1.43643
1.43088
1.42618
1.41623
1.56131
1.57873
1.58237
1.58041
1.5783
1.5774
1.57443
1.56595
1.54476
1.52
1.49026
1.52603
1.68247
1.85223
1.91725
1.90909
1.8771
1.83941
1.8023
1.76546
1.72864
1.69311
1.6598
1.62818
1.59885
1.57142
1.54507
1.51785
1.49095
1.4641
1.43825
1.41364
1.39414
1.37844
1.36354
1.34861
1.33058
1.31346
1.29617
1.29638
1.34484
1.47041
1.60755
1.6695
1.68495
1.67893
1.66381
1.65196
1.6377
1.621
1.60327
1.58636
1.56954
1.55879
1.55132
1.54817
1.54307
1.54517
1.56383
1.61054
1.67455
1.71359
1.73766
1.74356
1.74472
1.73919
1.72931
1.71755
1.70295
1.68272
1.6592
1.63894
1.62566
1.61869
1.61292
1.6067
1.60004
1.59393
1.58556
1.56922
1.54766
1.53147
1.52235
1.51523
1.50776
1.50097
1.49527
1.48935
1.48114
1.46813
1.45225
1.44109
1.43415
1.42816
1.42247
1.41147
1.53908
1.56832
1.57065
1.57199
1.57314
1.57559
1.57406
1.56989
1.55669
1.56151
1.65902
1.8411
1.97929
2.00728
1.9872
1.93922
1.8912
1.84886
1.8104
1.77335
1.73709
1.70215
1.66939
1.63846
1.60931
1.58103
1.55239
1.52256
1.49288
1.46556
1.4406
1.41883
1.40045
1.3833
1.36453
1.34682
1.32869
1.30969
1.2896
1.27463
1.26618
1.28531
1.37635
1.51284
1.61001
1.64419
1.64165
1.62889
1.61445
1.60159
1.58714
1.57289
1.55801
1.54984
1.54646
1.54929
1.57157
1.62542
1.69157
1.75054
1.77477
1.77781
1.7708
1.75683
1.73922
1.72444
1.71258
1.70256
1.69218
1.67727
1.65546
1.63228
1.61921
1.61206
1.60623
1.60037
1.59345
1.58585
1.57622
1.56172
1.54452
1.53128
1.52257
1.51497
1.507
1.49908
1.4916
1.4843
1.47502
1.46246
1.44888
1.4392
1.43291
1.42677
1.42055
1.40907
1.40103
1.49907
1.53777
1.56546
1.57609
1.57568
1.57285
1.57442
1.60966
1.77764
1.99432
2.04965
2.04046
2.021
1.98812
1.94968
1.90692
1.86164
1.81772
1.77746
1.74113
1.70742
1.67497
1.64297
1.61228
1.58403
1.55753
1.53085
1.50188
1.47228
1.44316
1.41674
1.39554
1.38071
1.36732
1.3509
1.33238
1.3164
1.29814
1.27503
1.25431
1.24332
1.24824
1.30107
1.41349
1.54001
1.59725
1.60606
1.59958
1.59043
1.57661
1.56303
1.55267
1.55439
1.5688
1.61753
1.68831
1.7475
1.7819
1.78465
1.78183
1.77337
1.7602
1.74738
1.73218
1.71575
1.70211
1.69115
1.68213
1.67117
1.65139
1.6291
1.61593
1.60761
1.60067
1.59476
1.58877
1.58224
1.57263
1.55768
1.54211
1.53148
1.52332
1.51524
1.50736
1.50073
1.49396
1.48445
1.47338
1.46079
1.44829
1.43924
1.43254
1.42578
1.41894
1.40724
1.12733
1.33291
1.46927
1.55021
1.56213
1.56206
1.58444
1.67832
1.87185
2.06049
2.13192
2.11911
2.07133
2.02163
1.98769
1.95524
1.91572
1.87023
1.82469
1.78306
1.74613
1.71276
1.68101
1.64947
1.61791
1.58659
1.55654
1.52903
1.50495
1.47989
1.45095
1.42552
1.40581
1.38638
1.3669
1.35383
1.34201
1.32434
1.30372
1.2806
1.25657
1.23854
1.22609
1.22671
1.24768
1.32843
1.46168
1.53327
1.5636
1.56137
1.55408
1.55906
1.58568
1.62766
1.69464
1.76027
1.80179
1.8176
1.81503
1.80377
1.78484
1.7653
1.74856
1.73655
1.72544
1.71351
1.69994
1.68543
1.67223
1.65981
1.64238
1.62537
1.61458
1.60546
1.59856
1.59264
1.58511
1.5737
1.55787
1.54198
1.53455
1.53015
1.525
1.51852
1.51057
1.50039
1.48742
1.47358
1.46014
1.45248
1.44699
1.43993
1.43301
1.42661
1.41999
1.408
1.0087
1.08624
1.25493
1.45206
1.52323
1.63425
1.7935
1.96025
2.075
2.11271
2.11326
2.10488
2.07994
2.03877
1.99831
1.95868
1.91675
1.87385
1.83164
1.79144
1.75375
1.71827
1.68427
1.65213
1.62279
1.59496
1.56693
1.53818
1.50584
1.47556
1.46061
1.44705
1.42773
1.40529
1.38367
1.3605
1.33466
1.31568
1.3077
1.29899
1.28208
1.25865
1.22913
1.20631
1.20571
1.21234
1.26341
1.36778
1.4819
1.52115
1.54466
1.62371
1.71994
1.77118
1.81678
1.83048
1.82451
1.81639
1.80667
1.79363
1.77867
1.76351
1.74661
1.73286
1.72141
1.71028
1.6986
1.68591
1.67222
1.65604
1.63512
1.61944
1.61331
1.60925
1.60372
1.59726
1.58804
1.57279
1.55306
1.53757
1.53121
1.5265
1.52188
1.51701
1.51111
1.50108
1.48605
1.4701
1.45634
1.44879
1.44597
1.44388
1.43955
1.43354
1.42698
1.4144
1.00015
1.00441
1.04884
1.24216
1.56093
1.81766
1.99766
2.11318
2.17409
2.14792
2.10274
2.09056
2.07751
2.05024
2.00833
1.9611
1.9151
1.87211
1.83144
1.79314
1.75679
1.72208
1.68872
1.65613
1.62329
1.59007
1.55836
1.53094
1.50856
1.48742
1.46269
1.43595
1.41186
1.38914
1.36568
1.34297
1.3293
1.32085
1.30886
1.29109
1.27149
1.24802
1.21775
1.20081
1.19576
1.19531
1.1999
1.22835
1.32371
1.47537
1.60809
1.74197
1.82385
1.86235
1.87895
1.87336
1.85059
1.81875
1.79523
1.78075
1.76851
1.75796
1.747
1.7359
1.72269
1.71131
1.70066
1.68776
1.67049
1.65212
1.63901
1.62789
1.61685
1.60647
1.59816
1.59096
1.58183
1.56657
1.55275
1.54431
1.53804
1.53297
1.52827
1.52329
1.51712
1.50695
1.4877
1.46494
1.45319
1.44885
1.44591
1.44172
1.43606
1.42979
1.42288
1.40953
1.00015
1.0044
1.04898
1.24154
1.56276
1.81721
1.99704
2.1131
2.17417
2.14779
2.10324
2.09066
2.07768
2.05047
2.0086
1.96135
1.91523
1.87199
1.8311
1.79273
1.75664
1.72234
1.6891
1.65621
1.62324
1.59079
1.56001
1.53025
1.50341
1.48279
1.46042
1.43536
1.41169
1.3891
1.36538
1.34197
1.32927
1.32138
1.30881
1.291
1.27146
1.24809
1.21834
1.20094
1.19537
1.19523
1.19944
1.22793
1.32568
1.46768
1.6388
1.73978
1.80067
1.86459
1.88375
1.87194
1.8557
1.82827
1.80157
1.78571
1.77222
1.76028
1.74573
1.72894
1.71409
1.70403
1.69611
1.68635
1.67235
1.65407
1.63422
1.62259
1.61442
1.60589
1.59813
1.59068
1.58132
1.56686
1.54949
1.53905
1.53295
1.52818
1.52359
1.51869
1.51253
1.50299
1.48573
1.46399
1.45357
1.44937
1.44562
1.4413
1.4361
1.42998
1.42299
1.40928
1.0087
1.08623
1.255
1.45152
1.52438
1.63379
1.79271
1.96006
2.07508
2.11269
2.11351
2.10509
2.08006
2.03894
1.9985
1.95884
1.91691
1.87395
1.83169
1.79145
1.75375
1.71819
1.68403
1.65151
1.62175
1.59393
1.56605
1.53674
1.50482
1.47791
1.4633
1.44743
1.42689
1.40434
1.38255
1.35717
1.33183
1.31683
1.30999
1.30047
1.28274
1.25875
1.23093
1.20712
1.20582
1.21386
1.25892
1.37052
1.47511
1.51577
1.57189
1.62161
1.68706
1.76576
1.82216
1.829
1.82795
1.81988
1.81284
1.80133
1.78385
1.76205
1.74366
1.73085
1.71877
1.70875
1.70175
1.69322
1.68043
1.66186
1.63785
1.62228
1.61656
1.61042
1.60359
1.59612
1.58555
1.56932
1.55082
1.53916
1.5338
1.52956
1.5252
1.52012
1.51312
1.50228
1.48431
1.46683
1.45998
1.45478
1.45066
1.44663
1.44172
1.43534
1.42787
1.41373
1.12727
1.33303
1.46915
1.55008
1.56232
1.56207
1.5843
1.67833
1.87221
2.06049
2.13202
2.1193
2.07152
2.02178
1.98773
1.95522
1.91565
1.87005
1.82448
1.78291
1.74601
1.71266
1.68094
1.64954
1.61832
1.58707
1.55658
1.52909
1.50505
1.47889
1.44957
1.42523
1.40554
1.38554
1.3673
1.35636
1.34254
1.3239
1.30333
1.28105
1.25743
1.23878
1.22594
1.2264
1.24785
1.33448
1.4506
1.54658
1.55981
1.56008
1.55973
1.56076
1.57587
1.62765
1.70255
1.76793
1.80311
1.82102
1.81752
1.80393
1.78079
1.75954
1.74508
1.73535
1.7257
1.71427
1.70157
1.68847
1.67488
1.66061
1.64141
1.62248
1.61257
1.60572
1.59965
1.59361
1.58578
1.57362
1.55714
1.54238
1.53348
1.52741
1.52224
1.51701
1.5105
1.50042
1.48653
1.47307
1.45958
1.44851
1.44355
1.43943
1.43461
1.42869
1.42182
1.40791
1.401
1.49913
1.53777
1.56542
1.57608
1.57567
1.57285
1.57442
1.60975
1.77756
1.99432
2.0497
2.04043
2.02093
1.98801
1.94954
1.90676
1.8615
1.81763
1.77741
1.74111
1.70748
1.67512
1.64323
1.61255
1.58397
1.55725
1.53078
1.50217
1.47222
1.44267
1.41615
1.39549
1.38137
1.3677
1.34989
1.33195
1.31674
1.29865
1.27557
1.25373
1.24272
1.24839
1.2977
1.4205
1.53759
1.59218
1.6076
1.60041
1.58768
1.57401
1.56469
1.55364
1.55485
1.57059
1.61986
1.68573
1.7484
1.7818
1.78241
1.77768
1.76985
1.76002
1.7484
1.73459
1.71866
1.70489
1.69342
1.68236
1.66815
1.64572
1.62537
1.61484
1.60787
1.60225
1.59776
1.59327
1.58526
1.57057
1.55091
1.53573
1.52615
1.51957
1.51394
1.509
1.50348
1.49583
1.48341
1.46665
1.45284
1.44569
1.44059
1.43504
1.42861
1.4219
1.40895
1.53908
1.56836
1.57067
1.57198
1.57313
1.57558
1.57406
1.56989
1.5567
1.56149
1.65895
1.84102
1.97921
2.00723
1.98713
1.9391
1.89108
1.84878
1.81038
1.77338
1.73717
1.70229
1.66952
1.63856
1.60932
1.58093
1.55232
1.52258
1.4929
1.46547
1.44064
1.41913
1.40073
1.38326
1.36435
1.34693
1.32914
1.31005
1.28961
1.2744
1.26585
1.28544
1.37676
1.50917
1.61983
1.64034
1.63566
1.62875
1.61549
1.60083
1.58758
1.57447
1.55894
1.55027
1.54734
1.5499
1.56941
1.62179
1.68892
1.74618
1.77342
1.77743
1.77199
1.75891
1.74128
1.72525
1.71317
1.70247
1.69082
1.67443
1.65169
1.63152
1.62019
1.61334
1.6076
1.60107
1.59434
1.58739
1.57602
1.55632
1.53849
1.52885
1.52117
1.51414
1.50723
1.50024
1.49397
1.48631
1.47472
1.4605
1.44846
1.44072
1.43383
1.4266
1.42074
1.41099
1.56132
1.57874
1.58237
1.58041
1.5783
1.57739
1.57443
1.56596
1.54476
1.52
1.49025
1.52598
1.68239
1.85217
1.91721
1.90907
1.87706
1.8394
1.80236
1.76556
1.72877
1.69322
1.65986
1.6282
1.59881
1.57132
1.54493
1.51774
1.4909
1.46404
1.43808
1.41347
1.39418
1.3786
1.36383
1.34897
1.33088
1.31357
1.29609
1.2961
1.34433
1.47255
1.60442
1.66879
1.68643
1.679
1.66375
1.65097
1.63814
1.62222
1.60446
1.58663
1.56893
1.55834
1.5519
1.5484
1.54279
1.54489
1.5635
1.61122
1.67756
1.7176
1.7416
1.74604
1.74542
1.73878
1.72837
1.7156
1.6998
1.67938
1.65756
1.63938
1.62632
1.61999
1.61441
1.60773
1.60105
1.59393
1.58255
1.56331
1.54426
1.53306
1.52424
1.51586
1.50852
1.50233
1.49768
1.49345
1.48415
1.46642
1.4502
1.44147
1.43484
1.42834
1.42279
1.41157
1.5818
1.58215
1.58187
1.57988
1.57701
1.57481
1.56746
1.54926
1.52214
1.48602
1.45195
1.40937
1.41692
1.51449
1.69728
1.83245
1.84695
1.82645
1.78849
1.74903
1.71192
1.67845
1.64758
1.61758
1.58923
1.56292
1.53698
1.50881
1.4809
1.45579
1.43572
1.41605
1.40004
1.38629
1.37321
1.35437
1.33963
1.32331
1.33778
1.42948
1.57777
1.68631
1.72197
1.72129
1.70937
1.693
1.67887
1.66625
1.65076
1.63227
1.61334
1.59662
1.58175
1.57172
1.56328
1.55543
1.54578
1.53727
1.51918
1.51859
1.54222
1.59864
1.66284
1.71106
1.7418
1.74312
1.73905
1.72552
1.70395
1.68105
1.6629
1.64784
1.63471
1.628
1.62171
1.61426
1.60567
1.59563
1.58333
1.56735
1.54987
1.53745
1.52849
1.52026
1.51293
1.50681
1.50066
1.49277
1.48219
1.4669
1.45218
1.44408
1.43827
1.43235
1.42698
1.41619
1.58112
1.58199
1.58181
1.5805
1.57822
1.5694
1.55016
1.51818
1.48552
1.44667
1.40742
1.36885
1.33256
1.31529
1.37221
1.54638
1.71494
1.76909
1.7581
1.72618
1.69092
1.65906
1.63033
1.60196
1.57415
1.54988
1.52696
1.50358
1.48075
1.46175
1.44404
1.4252
1.40796
1.39242
1.3798
1.36034
1.36132
1.41284
1.54676
1.68293
1.75512
1.77119
1.76512
1.7452
1.72346
1.70626
1.69192
1.67817
1.66192
1.6422
1.62159
1.60562
1.59387
1.58472
1.57571
1.56502
1.55212
1.53562
1.51693
1.50497
1.49812
1.50587
1.53804
1.6005
1.66254
1.70839
1.714
1.71043
1.69969
1.68505
1.67088
1.65765
1.64515
1.63493
1.62546
1.61602
1.60609
1.59515
1.58289
1.56861
1.5527
1.54038
1.5318
1.52437
1.51697
1.50947
1.50224
1.49419
1.4834
1.46869
1.45508
1.44754
1.44267
1.43744
1.4321
1.42288
1.58419
1.58471
1.58397
1.58113
1.57169
1.55116
1.51593
1.4774
1.43631
1.38683
1.35181
1.32471
1.28201
1.24285
1.22552
1.25921
1.40055
1.59153
1.69878
1.69655
1.67483
1.64174
1.61109
1.58514
1.56101
1.54204
1.5232
1.50373
1.48097
1.46364
1.44754
1.4327
1.41511
1.40342
1.39202
1.41497
1.51784
1.67782
1.78649
1.81397
1.81018
1.79142
1.76825
1.74735
1.7306
1.71587
1.7023
1.68825
1.67101
1.64985
1.62974
1.61488
1.60332
1.59356
1.58328
1.57043
1.55464
1.53613
1.51681
1.5011
1.49219
1.48769
1.48389
1.49684
1.53529
1.59563
1.64788
1.68102
1.68756
1.68303
1.67675
1.66719
1.65312
1.63775
1.62637
1.61679
1.60729
1.59608
1.58324
1.56819
1.55181
1.54004
1.53204
1.52546
1.51865
1.51162
1.50515
1.4972
1.48509
1.46938
1.45697
1.45088
1.44719
1.44336
1.43693
1.43885
1.58413
1.58276
1.57891
1.56973
1.54892
1.514
1.46655
1.42064
1.37265
1.33304
1.29737
1.25808
1.21333
1.19929
1.18428
1.15218
1.16152
1.27188
1.48231
1.6128
1.64188
1.62812
1.60087
1.57663
1.55387
1.5357
1.5223
1.50709
1.48632
1.46994
1.45651
1.44599
1.42926
1.43288
1.49393
1.65155
1.78824
1.86513
1.86698
1.85314
1.82196
1.79107
1.76761
1.75045
1.7363
1.72365
1.71096
1.69605
1.67704
1.65552
1.63677
1.62173
1.60825
1.59678
1.58557
1.57252
1.55626
1.53848
1.52097
1.50555
1.49303
1.48243
1.47531
1.47006
1.47
1.48345
1.52051
1.57271
1.61696
1.64214
1.65373
1.64983
1.64286
1.63683
1.62969
1.61924
1.60829
1.59629
1.58403
1.56936
1.55128
1.53847
1.53208
1.52591
1.5188
1.51164
1.50495
1.49725
1.48551
1.47137
1.46036
1.45542
1.45371
1.45884
1.46845
1.50351
1.57739
1.57439
1.56709
1.5452
1.51009
1.45824
1.40012
1.36231
1.32058
1.26929
1.21211
1.18654
1.17999
1.1659
1.1315
1.08649
1.07826
1.09108
1.18388
1.3894
1.54681
1.60466
1.59784
1.57891
1.55782
1.53746
1.52618
1.51626
1.50227
1.48698
1.47643
1.46711
1.49041
1.60617
1.777
1.88704
1.89954
1.89403
1.87542
1.85086
1.82444
1.79708
1.77285
1.75644
1.74335
1.72923
1.71436
1.69807
1.67799
1.65694
1.6396
1.626
1.61301
1.59914
1.58554
1.57131
1.55477
1.53623
1.51949
1.50827
1.49885
1.48686
1.47603
1.46679
1.45841
1.44635
1.44607
1.45894
1.49892
1.54934
1.59852
1.61914
1.62793
1.62728
1.62404
1.61833
1.61072
1.6007
1.58887
1.57373
1.55625
1.53963
1.52821
1.52138
1.51563
1.51036
1.50449
1.49816
1.49044
1.4758
1.47247
1.47651
1.49217
1.52142
1.54637
1.58326
1.56716
1.56181
1.54228
1.50621
1.45126
1.38299
1.34326
1.30408
1.2409
1.17211
1.15694
1.1434
1.12442
1.0951
1.06777
1.05007
1.04326
1.0445
1.05338
1.13579
1.324
1.52787
1.58681
1.57948
1.56774
1.55457
1.54287
1.53282
1.52388
1.51184
1.51714
1.57603
1.73937
1.88643
1.95009
1.94698
1.92879
1.898
1.86979
1.84618
1.82468
1.80386
1.78273
1.76244
1.74679
1.73379
1.71794
1.69864
1.67844
1.65912
1.64172
1.6259
1.61486
1.60561
1.59108
1.57304
1.55494
1.53798
1.5237
1.51166
1.50042
1.49215
1.4832
1.47021
1.45476
1.44235
1.43175
1.42571
1.43037
1.44823
1.48489
1.53188
1.5754
1.58931
1.59763
1.59727
1.59274
1.58578
1.57904
1.57234
1.55899
1.5402
1.52742
1.52055
1.51539
1.5116
1.50859
1.50536
1.50834
1.51514
1.53108
1.55201
1.58041
1.59937
1.61557
1.6292
1.55492
1.53667
1.50041
1.44476
1.36834
1.31411
1.27543
1.21269
1.14572
1.12473
1.11292
1.08797
1.0608
1.05134
1.05118
1.0456
1.04163
1.04265
1.04618
1.05226
1.10555
1.29838
1.51513
1.56389
1.57898
1.58179
1.57012
1.55526
1.54736
1.567
1.67132
1.85411
1.9795
1.97793
1.9689
1.94461
1.92056
1.89496
1.86767
1.8461
1.83026
1.81408
1.79523
1.77391
1.7515
1.73054
1.71079
1.69161
1.67671
1.66608
1.65369
1.63796
1.6195
1.59886
1.5802
1.56397
1.55064
1.54226
1.53474
1.5243
1.51029
1.49322
1.47674
1.46148
1.44835
1.43759
1.42847
1.42114
1.41417
1.40462
1.40763
1.42235
1.4612
1.50493
1.55098
1.57312
1.57571
1.57442
1.57212
1.56368
1.55228
1.53932
1.53072
1.52385
1.51991
1.52247
1.53239
1.55311
1.57966
1.60239
1.61635
1.629
1.64051
1.63794
1.63647
1.6333
1.53368
1.49323
1.43286
1.35205
1.2807
1.23075
1.17458
1.11221
1.0854
1.07293
1.05835
1.03907
1.03321
1.03515
1.041
1.04661
1.05248
1.05745
1.06189
1.06519
1.07078
1.11057
1.29908
1.48627
1.57092
1.58667
1.58765
1.59178
1.63253
1.77349
1.94147
2.02275
2.0286
2.00761
1.96717
1.93542
1.91403
1.89386
1.87108
1.84799
1.82699
1.80779
1.78886
1.76887
1.74806
1.72698
1.7079
1.69259
1.68064
1.66758
1.65113
1.63295
1.61421
1.59423
1.57662
1.56374
1.55422
1.54495
1.53417
1.52168
1.50749
1.4911
1.47489
1.46099
1.45006
1.43945
1.42983
1.42015
1.40986
1.39928
1.39042
1.38528
1.38873
1.40636
1.44261
1.49043
1.52343
1.54794
1.5562
1.55221
1.54143
1.53955
1.54124
1.54888
1.56277
1.58237
1.60644
1.63397
1.65786
1.67173
1.67091
1.67123
1.66978
1.66225
1.65032
1.62879
1.49313
1.4142
1.31849
1.2332
1.19225
1.14555
1.0768
1.06142
1.07202
1.07121
1.06385
1.05653
1.05201
1.05392
1.05852
1.07166
1.08494
1.0899
1.08984
1.09048
1.08867
1.091
1.12219
1.28387
1.47391
1.55514
1.63367
1.72681
1.87085
1.97921
2.04303
2.0358
2.01043
1.98351
1.95994
1.93773
1.91832
1.89999
1.88075
1.85957
1.8371
1.81446
1.79209
1.7714
1.752
1.73359
1.71805
1.70525
1.69254
1.67756
1.65894
1.63592
1.61355
1.59681
1.584
1.57404
1.56443
1.55382
1.54177
1.5279
1.51204
1.49557
1.48083
1.46947
1.45964
1.44905
1.43831
1.42644
1.41423
1.40224
1.3911
1.38009
1.37224
1.36988
1.37592
1.39861
1.43187
1.4704
1.50524
1.53209
1.55487
1.58168
1.60643
1.62921
1.64751
1.65619
1.66098
1.66801
1.67321
1.68051
1.68322
1.68066
1.67328
1.66079
1.64558
1.62315
1.39472
1.23288
1.09829
1.02582
1.00646
0.989537
0.973067
0.985507
1.03303
1.07669
1.09241
1.09787
1.09652
1.09434
1.09375
1.1029
1.11951
1.12043
1.11884
1.11487
1.10936
1.10466
1.10652
1.13236
1.25725
1.51895
1.76501
1.98161
2.1388
2.18438
2.13709
2.05494
1.99708
1.97011
1.95211
1.93378
1.9129
1.89244
1.8731
1.85301
1.83081
1.80774
1.78521
1.76261
1.74143
1.72384
1.70956
1.69695
1.68425
1.66986