/*--------------------------------*- C++ -*----------------------------------*\
  =========                 |
  \\      /  F ield         | OpenFOAM: The Open Source CFD Toolbox
   \\    /   O peration     | Website:  https://openfoam.org
    \\  /    A nd           | Version:  7
     \\/     M anipulation  |
\*---------------------------------------------------------------------------*/
FoamFile
{
    version     2.0;
    format      ascii;
    class       volVectorField;
    location    "1.5";
    object      U;
}
// * * * * * * * * * * * * * * * * * * * * * * * * * * * * * * * * * * * * * //

dimensions      [0 1 -1 0 0 0 0];

internalField   nonuniform List<vector> 
4608
(
(3 4.86665e-17 0)
(3 1.18498e-16 0)
(3 1.85946e-17 0)
(3 1.5685e-16 0)
(3 4.37742e-16 0)
(3 5.42105e-16 0)
(3 9.8153e-17 0)
(3 -4.63632e-16 0)
(3 -1.75159e-16 0)
(3 1.34701e-16 0)
(3 1.42101e-16 0)
(3 1.88038e-16 0)
(3 4.39374e-16 0)
(3 1.59353e-15 0)
(3 1.8711e-15 0)
(3 1.931e-15 0)
(3 2.0128e-15 0)
(3 1.50943e-15 0)
(3 8.15614e-16 0)
(3 5.65005e-16 0)
(3 -3.66912e-16 0)
(3 -5.0351e-16 0)
(3 -4.92484e-16 0)
(3 3.35716e-17 0)
(3 7.07172e-17 0)
(3 3.20605e-17 0)
(3 -1.90707e-16 0)
(3 -2.56294e-16 0)
(3 5.14782e-16 0)
(3 1.2233e-15 0)
(3 1.24082e-15 0)
(3 2.09851e-16 0)
(3 -3.54473e-16 0)
(3 -9.44033e-16 0)
(3 -1.03915e-15 0)
(3 -6.40867e-16 0)
(3 -2.61989e-17 0)
(3 1.34138e-15 0)
(3 1.61439e-15 0)
(3 1.12571e-15 0)
(3 1.10755e-15 0)
(3 6.18052e-16 0)
(3 5.26365e-17 0)
(3 -3.85031e-16 0)
(3 -4.25772e-16 0)
(3 -3.28942e-16 0)
(3 -7.73228e-16 0)
(3 -5.83571e-16 0)
(3 -1.52854e-16 0)
(3 -1.28074e-16 0)
(3 -6.58781e-16 0)
(3 -2.7305e-16 0)
(3 6.271e-16 0)
(3 1.05086e-15 0)
(3 7.61726e-16 0)
(3 6.96181e-16 0)
(3 -1.53554e-16 0)
(3 -1.1544e-15 0)
(3 -1.27567e-15 0)
(3 -1.08642e-15 0)
(3 -8.25373e-16 0)
(3 -6.64986e-16 0)
(3 -8.84834e-16 0)
(3 -8.82786e-16 0)
(3 -9.40462e-16 0)
(3 -6.69215e-16 0)
(3 -1.36503e-15 0)
(3 -3.64341e-16 0)
(3 3.47064e-16 0)
(3 1.38755e-16 0)
(3 7.3209e-17 0)
(3 -1.8561e-16 0)
(3 -1.87851e-16 0)
(3 -2.20424e-16 0)
(3 -1.04478e-15 0)
(3 -1.13686e-15 0)
(3 -5.52005e-17 0)
(3 8.96166e-16 0)
(3 6.09301e-16 0)
(3 1.02969e-17 0)
(3 5.42904e-17 0)
(3 9.96285e-17 0)
(3 -3.9034e-16 0)
(3 -1.1543e-15 0)
(3 -1.3648e-15 0)
(3 -1.42606e-15 0)
(3 -1.21638e-15 0)
(3 -1.08529e-15 0)
(3 -1.04852e-15 0)
(3 -3.86389e-16 0)
(3 1.88845e-16 0)
(3 2.25845e-16 0)
(3 -1.93014e-16 0)
(3 -4.22919e-16 0)
(3 -4.87957e-16 0)
(3 -5.61812e-16 0)
(3 -7.38867e-17 0)
(3 -6.30347e-16 0)
(3 -5.51318e-17 0)
(3 9.98341e-17 0)
(3 -4.42756e-16 0)
(3 -2.72659e-16 0)
(3 3.05723e-16 0)
(3 5.3703e-16 0)
(3 1.27236e-16 0)
(3 -1.50407e-16 0)
(3 -2.99529e-16 0)
(3 -1.3954e-15 0)
(3 -1.40822e-15 0)
(3 -1.64224e-15 0)
(3 -1.44108e-15 0)
(3 -1.2965e-15 0)
(3 -1.42501e-15 0)
(3 -1.1764e-15 0)
(3 1.08554e-16 0)
(3 3.21738e-16 0)
(3 -2.63394e-17 0)
(3 2.61803e-17 0)
(3 -5.42512e-16 0)
(3 -9.26799e-16 0)
(3 -6.55925e-17 0)
(3 2.47795e-17 0)
(3 4.19724e-16 0)
(3 3.91034e-16 0)
(3 2.50948e-16 0)
(3 -9.86283e-17 0)
(3 -1.11838e-16 0)
(3 -4.23716e-17 0)
(3 1.52234e-16 0)
(3 2.44221e-16 0)
(3 5.64299e-16 0)
(3 -9.65432e-17 0)
(3 -3.77828e-16 0)
(3 -6.64474e-16 0)
(3 -1.23115e-15 0)
(3 -1.21293e-15 0)
(3 -6.24175e-16 0)
(3 -3.90439e-16 0)
(3 3.06856e-16 0)
(3 5.95882e-16 0)
(3 3.88005e-16 0)
(3 -1.12797e-16 0)
(3 -1.57778e-17 0)
(3 6.97713e-16 0)
(3 4.19105e-17 0)
(3 2.99075e-16 0)
(3 -3.33697e-17 0)
(3 -6.61739e-17 0)
(3 5.11488e-16 0)
(3 7.138e-16 0)
(3 4.45417e-16 0)
(3 1.7981e-16 0)
(3 4.23751e-16 0)
(3 8.51704e-16 0)
(3 9.5282e-16 0)
(3 6.86133e-16 0)
(3 1.39784e-16 0)
(3 7.64855e-19 0)
(3 2.73391e-16 0)
(3 4.68045e-17 0)
(3 2.11197e-16 0)
(3 6.19481e-16 0)
(3 1.51034e-16 0)
(3 -8.33685e-18 0)
(3 -3.33898e-16 0)
(3 -4.06449e-16 0)
(3 -1.00068e-15 0)
(3 -6.38276e-16 0)
(3 8.12161e-17 0)
(3 1.00605e-16 0)
(3 2.17285e-16 0)
(3 3.28386e-16 0)
(3 -9.32683e-17 0)
(3 -2.25395e-16 0)
(3 1.46248e-16 0)
(3 6.61563e-16 0)
(3 9.15462e-16 0)
(3 1.13139e-15 0)
(3 9.63148e-16 0)
(3 7.23388e-16 0)
(3 3.19216e-16 0)
(3 -3.11654e-16 0)
(3 6.65483e-17 0)
(3 4.01152e-17 0)
(3 -7.79842e-17 0)
(3 -5.96095e-16 0)
(3 -1.03618e-15 0)
(3 -8.76685e-16 0)
(3 -5.84936e-16 0)
(3 -3.76576e-16 0)
(3 -5.34485e-16 0)
(3 -6.90069e-16 0)
(3 -7.1446e-17 0)
(3 1.3673e-16 0)
(3 3.97476e-16 0)
(3 2.5112e-16 0)
(3 -4.29076e-17 0)
(3 -3.62552e-16 0)
(3 -7.39208e-16 0)
(3 -7.1179e-16 0)
(3 1.79509e-16 0)
(3 4.1839e-16 0)
(3 1.53997e-16 0)
(3 5.38135e-16 0)
(3 8.37201e-16 0)
(3 1.03131e-15 0)
(3 1.83616e-16 0)
(3 2.6188e-16 0)
(3 -8.78877e-16 0)
(3 -1.50675e-15 0)
(3 -2.07578e-15 0)
(3 -1.58558e-15 0)
(3 -9.52931e-16 0)
(3 -2.10711e-16 0)
(3 5.81307e-16 0)
(3 8.08713e-16 0)
(3 -1.53437e-16 0)
(3 2.76473e-16 0)
(3 2.16355e-17 0)
(3 7.9678e-17 0)
(3 1.48096e-17 0)
(3 -2.45433e-16 0)
(3 -6.88387e-16 0)
(3 -1.18975e-15 0)
(3 -9.98134e-16 0)
(3 -1.16359e-15 0)
(3 -7.88795e-16 0)
(3 -4.94136e-16 0)
(3 3.44457e-16 0)
(3 8.63199e-16 0)
(3 5.31052e-16 0)
(3 -1.92326e-16 0)
(3 -1.27053e-15 0)
(3 -1.8096e-15 0)
(3 -1.66371e-15 0)
(3 -9.68253e-16 0)
(3 -8.77479e-16 0)
(3 -7.62197e-16 0)
(3 -6.68848e-16 0)
(3 6.57645e-16 0)
(3 1.82535e-16 0)
(3 1.5194e-16 0)
(3 -1.33867e-16 0)
(3 -5.47818e-16 0)
(3 -4.94848e-16 0)
(3 -7.832e-16 0)
(3 -6.09807e-16 0)
(3 -1.33538e-16 0)
(3 7.06751e-17 0)
(3 2.37653e-16 0)
(3 2.46957e-16 0)
(3 -1.53279e-16 0)
(3 -1.10583e-16 0)
(3 3.16642e-16 0)
(3 -4.79105e-17 0)
(3 -7.71474e-16 0)
(3 -1.13197e-15 0)
(3 -6.36192e-16 0)
(3 -1.22084e-16 0)
(3 -1.59593e-16 0)
(3 1.47544e-16 0)
(3 2.43659e-16 0)
(3 1.2757e-16 0)
(3 -5.45791e-16 0)
(3 -9.91871e-18 0)
(3 6.94066e-17 0)
(3 2.1268e-16 0)
(3 -2.53165e-16 0)
(3 -3.82349e-16 0)
(3 -2.76571e-16 0)
(3 -2.23832e-16 0)
(3 2.03491e-16 0)
(3 6.25527e-16 0)
(3 1.53028e-15 0)
(3 1.55517e-15 0)
(3 1.28326e-15 0)
(3 5.43665e-16 0)
(3 -1.61071e-16 0)
(3 -5.63361e-16 0)
(3 -3.94395e-16 0)
(3 -2.35486e-16 0)
(3 -5.74179e-16 0)
(3 -1.04793e-15 0)
(3 -1.2314e-15 0)
(3 -5.33968e-16 0)
(3 1.7715e-16 0)
(3 5.18866e-16 0)
(3 3.64461e-16 0)
(3 -3.78139e-18 0)
(3 -2.21756e-16 0)
(3 -8.62913e-17 0)
(3 6.90889e-18 0)
(3 -1.16035e-16 0)
(3 1.78676e-16 0)
(3 1.37043e-17 0)
(3 6.08193e-17 0)
(3 1.45533e-16 0)
(3 3.52462e-16 0)
(3 7.04761e-16 0)
(3 7.0161e-16 0)
(3 5.67422e-16 0)
(3 -7.35321e-16 0)
(3 -7.38061e-16 0)
(3 -2.14951e-16 0)
(3 -2.79996e-16 0)
(3 -5.13583e-16 0)
(3 -4.3498e-16 0)
(3 -3.20409e-16 0)
(3 -3.92613e-16 0)
(3 2.01498e-16 0)
(3 5.24513e-16 0)
(3 4.56892e-16 0)
(3 4.24352e-17 0)
(3 -5.92989e-16 0)
(3 -1.27364e-15 0)
(3 -9.14837e-16 0)
(3 -4.50043e-16 0)
(3 9.57012e-17 0)
(3 1.25148e-16 0)
(3 -1.64074e-16 0)
(3 -7.99021e-16 0)
(3 -1.71441e-15 0)
(3 -1.81747e-15 0)
(3 -1.44181e-15 0)
(3 -1.36392e-15 0)
(3 -1.25417e-15 0)
(3 -8.44548e-16 0)
(3 -6.4369e-16 0)
(3 -4.97501e-16 0)
(3 -2.69908e-16 0)
(3 -2.85324e-16 0)
(3 1.90125e-16 0)
(3 3.4722e-16 0)
(3 1.64419e-16 0)
(3 -9.15715e-17 0)
(3 -4.38557e-16 0)
(3 -9.65994e-17 0)
(3 -2.74467e-16 0)
(3 -1.11556e-16 0)
(3 3.74877e-16 0)
(3 1.92845e-16 0)
(3 -3.18854e-16 0)
(3 6.56182e-17 0)
(3 -1.55354e-16 0)
(3 -5.09013e-16 0)
(3 -9.05053e-16 0)
(3 -1.14264e-15 0)
(3 -1.03624e-15 0)
(3 -1.57807e-15 0)
(3 -1.14968e-15 0)
(3 -1.54375e-15 0)
(3 -1.9171e-15 0)
(3 -1.78765e-15 0)
(3 -1.63531e-15 0)
(3 -8.67077e-16 0)
(3 -6.2552e-17 0)
(3 -1.27877e-17 0)
(3 -3.15186e-16 0)
(3 1.03295e-16 0)
(3 5.97827e-16 0)
(3 -1.9917e-17 0)
(3 2.14549e-16 0)
(3 3.75181e-16 0)
(3 7.30654e-16 0)
(3 8.29871e-16 0)
(3 3.11105e-16 0)
(3 1.69598e-16 0)
(3 2.57137e-16 0)
(3 -2.67731e-16 0)
(3 -8.77453e-16 0)
(3 -1.20136e-15 0)
(3 -1.21036e-15 0)
(3 -7.28297e-16 0)
(3 -6.75399e-16 0)
(3 -1.02411e-15 0)
(3 -1.42917e-15 0)
(3 -1.2143e-15 0)
(3 -1.07294e-15 0)
(3 -5.28262e-16 0)
(3 1.32536e-16 0)
(3 6.84162e-17 0)
(3 -2.76604e-16 0)
(3 -1.79641e-16 0)
(3 -8.50656e-20 0)
(3 2.73733e-17 0)
(3 3.47899e-16 0)
(3 1.17304e-16 0)
(3 -2.55362e-16 0)
(3 -1.00932e-16 0)
(3 5.6671e-16 0)
(3 5.71011e-16 0)
(3 4.56082e-16 0)
(3 -2.71773e-16 0)
(3 -7.66028e-16 0)
(3 -1.20574e-15 0)
(3 -1.34007e-15 0)
(3 -9.81276e-16 0)
(3 -7.46369e-16 0)
(3 -9.09912e-16 0)
(3 -7.6914e-16 0)
(3 -5.55264e-16 0)
(3 4.02729e-17 0)
(3 -1.35581e-15 0)
(3 -2.32589e-15 0)
(3 -1.83108e-15 0)
(3 -1.62048e-15 0)
(3 -1.8571e-15 0)
(3 -1.51426e-15 0)
(3 -5.01091e-17 0)
(3 -3.02059e-16 0)
(3 -2.93759e-16 0)
(3 -4.07462e-16 0)
(3 -3.64942e-16 0)
(3 -2.6904e-16 0)
(3 -7.86924e-17 0)
(3 -5.69976e-17 0)
(3 4.18688e-16 0)
(3 6.40369e-16 0)
(3 -2.63271e-17 0)
(3 -3.65337e-16 0)
(3 -4.29726e-16 0)
(3 -3.21251e-16 0)
(3 -9.66499e-16 0)
(3 -1.29351e-15 0)
(3 -1.21278e-15 0)
(3 -1.05076e-15 0)
(3 -2.45714e-15 0)
(3 -3.61668e-15 0)
(3 -3.06465e-15 0)
(3 -1.60543e-15 0)
(3 -9.65735e-16 0)
(3 -1.44795e-15 0)
(3 -1.01926e-17 0)
(3 2.20697e-16 0)
(3 1.93285e-16 0)
(3 2.01733e-16 0)
(3 2.50749e-16 0)
(3 2.18464e-16 0)
(3 -4.39034e-17 0)
(3 8.95621e-17 0)
(3 4.67736e-16 0)
(3 3.80879e-16 0)
(3 1.68114e-16 0)
(3 -4.3987e-16 0)
(3 -6.20349e-16 0)
(3 -7.51028e-16 0)
(3 -7.03983e-16 0)
(3 -1.31379e-15 0)
(3 -1.77416e-15 0)
(3 -2.47555e-15 0)
(3 -1.43123e-15 0)
(3 -3.40636e-16 0)
(3 -1.72319e-15 0)
(3 -2.04245e-15 0)
(3 -1.74342e-15 0)
(3 -1.43865e-15 0)
(3 3.00083e-17 0)
(3 1.83867e-16 0)
(3 3.50418e-16 0)
(3 3.98449e-16 0)
(3 1.9188e-16 0)
(3 3.30661e-16 0)
(3 6.7337e-16 0)
(3 1.24378e-15 0)
(3 -2.6653e-17 0)
(3 -1.65716e-16 0)
(3 -1.4318e-16 0)
(3 -4.5673e-16 0)
(3 -8.71068e-16 0)
(3 -1.136e-15 0)
(3 -1.32473e-15 0)
(3 -1.84066e-15 0)
(3 -2.15033e-15 0)
(3 -2.30937e-15 0)
(3 -7.95495e-16 0)
(3 9.4456e-16 0)
(3 8.88324e-17 0)
(3 -1.05541e-15 0)
(3 -1.41866e-15 0)
(3 -1.17695e-15 0)
(3 -1.33002e-16 0)
(3 -5.39893e-16 0)
(3 -5.65269e-16 0)
(3 -6.76273e-16 0)
(3 -7.01685e-16 0)
(3 -6.55925e-16 0)
(3 -2.52973e-17 0)
(3 -1.22908e-16 0)
(3 -5.96156e-16 0)
(3 -7.48656e-16 0)
(3 7.9449e-17 0)
(3 6.8222e-16 0)
(3 8.79221e-16 0)
(3 5.67738e-16 0)
(3 -4.59644e-16 0)
(3 -9.47407e-16 0)
(3 -1.13666e-15 0)
(3 -5.50484e-16 0)
(3 -3.57652e-17 0)
(3 -2.62702e-16 0)
(3 -1.16904e-15 0)
(3 -1.05347e-15 0)
(3 -1.23843e-15 0)
(3 -1.56651e-15 0)
(3 -5.6546e-17 0)
(3 2.60428e-17 0)
(3 -2.36602e-16 0)
(3 -4.27684e-16 0)
(3 -2.09875e-16 0)
(3 -2.62943e-16 0)
(3 -7.65803e-16 0)
(3 -9.58391e-16 0)
(3 -4.9524e-16 0)
(3 -1.08189e-16 0)
(3 8.91957e-16 0)
(3 1.13512e-15 0)
(3 7.71724e-16 0)
(3 8.42585e-16 0)
(3 8.69881e-16 0)
(3 1.18778e-15 0)
(3 1.27933e-15 0)
(3 9.19024e-16 0)
(3 1.07523e-15 0)
(3 4.74219e-16 0)
(3 4.69814e-16 0)
(3 1.60455e-17 0)
(3 -6.95022e-16 0)
(3 -8.28625e-16 0)
(3 -9.86713e-20 0)
(3 -1.2524e-16 0)
(3 -7.20734e-17 0)
(3 2.5014e-16 0)
(3 3.07543e-16 0)
(3 -4.86327e-17 0)
(3 -8.85065e-16 0)
(3 -6.35376e-16 0)
(3 1.4445e-17 0)
(3 5.01603e-16 0)
(3 8.78562e-16 0)
(3 1.0563e-15 0)
(3 8.73408e-16 0)
(3 1.59879e-16 0)
(3 -1.43722e-16 0)
(3 2.99054e-16 0)
(3 7.83221e-16 0)
(3 7.58719e-16 0)
(3 1.90116e-16 0)
(3 5.63149e-17 0)
(3 -8.9391e-16 0)
(3 -1.34895e-15 0)
(3 -1.09439e-15 0)
(3 -7.7068e-16 0)
(3 2.66825e-16 0)
(3 1.01071e-16 0)
(3 2.06099e-16 0)
(3 4.11887e-16 0)
(3 3.52175e-16 0)
(3 9.98134e-18 0)
(3 1.31846e-16 0)
(3 5.91381e-16 0)
(3 9.48798e-16 0)
(3 1.23269e-15 0)
(3 1.75986e-15 0)
(3 1.78899e-15 0)
(3 9.15053e-16 0)
(3 -4.57197e-17 0)
(3 -1.33145e-15 0)
(3 -1.44197e-15 0)
(3 -7.80725e-16 0)
(3 -1.0873e-15 0)
(3 -8.79407e-16 0)
(3 -7.41774e-16 0)
(3 -9.31546e-16 0)
(3 -6.00248e-16 0)
(3 -5.84299e-16 0)
(3 2.41331e-16 0)
(3 1.26703e-16 0)
(3 5.99004e-16 0)
(3 9.11181e-16 0)
(3 5.20187e-16 0)
(3 5.97324e-17 0)
(3 3.0479e-16 0)
(3 8.91564e-16 0)
(3 1.39695e-15 0)
(3 1.59469e-15 0)
(3 1.42509e-15 0)
(3 5.97497e-16 0)
(3 1.80177e-16 0)
(3 1.62271e-16 0)
(3 2.6884e-17 0)
(3 4.4251e-16 0)
(3 6.68462e-16 0)
(3 1.64139e-16 0)
(3 -4.22472e-16 0)
(3 -4.93423e-16 0)
(3 -7.15525e-16 0)
(3 3.63963e-19 0)
(3 5.72994e-16 0)
(3 1.76899e-16 0)
(3 3.01999e-17 0)
(3 -9.35647e-17 0)
(3 1.5325e-16 0)
(3 2.07321e-16 0)
(3 1.66268e-16 0)
(3 2.67178e-16 0)
(3 4.04037e-16 0)
(3 2.45698e-17 0)
(3 -3.52815e-16 0)
(3 -6.52994e-17 0)
(3 2.66381e-16 0)
(3 -5.37787e-17 0)
(3 -9.05054e-17 0)
(3 2.09998e-16 0)
(3 3.29908e-16 0)
(3 8.37654e-16 0)
(3 8.41211e-16 0)
(3 3.26131e-16 0)
(3 1.46383e-15 0)
(3 1.44532e-15 0)
(3 3.90637e-16 0)
(3 2.85183e-16 0)
(3 4.09936e-16 0)
(3 9.05011e-16 0)
(3 -6.82754e-17 0)
(3 2.9112e-18 0)
(3 1.30608e-16 0)
(3 -1.89706e-16 0)
(3 9.78965e-17 0)
(3 6.8105e-16 0)
(3 6.75068e-16 0)
(3 -2.19757e-16 0)
(3 -6.67999e-16 0)
(3 -5.43733e-16 0)
(3 -7.18344e-16 0)
(3 -8.27992e-16 0)
(3 3.77765e-16 0)
(3 6.3992e-16 0)
(3 5.58098e-16 0)
(3 7.32471e-17 0)
(3 4.05129e-16 0)
(3 9.26276e-16 0)
(3 1.08426e-15 0)
(3 1.39774e-15 0)
(3 2.01845e-15 0)
(3 1.68664e-15 0)
(3 1.07823e-15 0)
(3 9.35961e-16 0)
(3 -1.96152e-16 0)
(3 -2.74019e-17 0)
(3 -1.11995e-16 0)
(3 -1.88653e-17 0)
(3 -1.25131e-16 0)
(3 -2.68525e-16 0)
(3 -1.16908e-17 0)
(3 9.36841e-17 0)
(3 3.69607e-17 0)
(3 1.17765e-16 0)
(3 -3.53442e-16 0)
(3 -1.40588e-15 0)
(3 -6.88353e-16 0)
(3 -1.50459e-16 0)
(3 6.98825e-16 0)
(3 8.40687e-16 0)
(3 5.5825e-16 0)
(3 4.26907e-16 0)
(3 1.72336e-16 0)
(3 1.62546e-16 0)
(3 8.90007e-16 0)
(3 2.0949e-15 0)
(3 1.59064e-15 0)
(3 4.34763e-16 0)
(3 3.8338e-16 0)
(3 9.06686e-17 0)
(3 -3.00088e-16 0)
(3 -3.51623e-16 0)
(3 -4.92396e-16 0)
(3 -6.87518e-16 0)
(3 -4.12471e-16 0)
(3 -1.09404e-17 0)
(3 -1.82069e-16 0)
(3 -6.75169e-16 0)
(3 -8.66869e-16 0)
(3 -1.22671e-15 0)
(3 -1.17721e-15 0)
(3 -1.02311e-15 0)
(3 -5.52248e-16 0)
(3 1.78194e-17 0)
(3 -7.51764e-17 0)
(3 -4.39944e-16 0)
(3 -8.8407e-17 0)
(3 -4.02131e-17 0)
(3 -2.31143e-18 0)
(3 5.27517e-16 0)
(3 1.41925e-15 0)
(3 1.54425e-15 0)
(3 8.85344e-16 0)
(3 -1.97389e-17 0)
(3 2.10327e-16 0)
(3 5.64042e-17 0)
(3 -1.29775e-16 0)
(3 -2.55021e-16 0)
(3 -1.03383e-16 0)
(3 -1.49878e-16 0)
(3 -2.63246e-16 0)
(3 -5.62145e-16 0)
(3 -7.93509e-16 0)
(3 -7.14665e-16 0)
(3 -6.58119e-16 0)
(3 -8.44183e-16 0)
(3 -1.46018e-15 0)
(3 -1.14145e-15 0)
(3 -3.90299e-16 0)
(3 9.50182e-16 0)
(3 9.8578e-16 0)
(3 7.68171e-16 0)
(3 7.76224e-16 0)
(3 6.98589e-16 0)
(3 1.45404e-15 0)
(3 2.64159e-15 0)
(3 2.57955e-15 0)
(3 4.80244e-17 0)
(3 3.10356e-16 0)
(3 6.74608e-16 0)
(3 5.35293e-16 0)
(3 1.08178e-16 0)
(3 -1.86372e-16 0)
(3 -9.7696e-17 0)
(3 1.7331e-16 0)
(3 -8.61734e-16 0)
(3 -9.97915e-16 0)
(3 -3.30586e-16 0)
(3 1.49174e-17 0)
(3 1.92359e-17 0)
(3 -4.43065e-16 0)
(3 -7.39255e-16 0)
(3 -6.64697e-16 0)
(3 -3.64503e-16 0)
(3 -7.84827e-16 0)
(3 -5.02242e-16 0)
(3 -3.37594e-16 0)
(3 -3.00146e-16 0)
(3 4.82198e-16 0)
(3 1.76362e-15 0)
(3 2.93493e-15 0)
(3 1.29867e-16 0)
(3 6.43745e-17 0)
(3 2.85478e-16 0)
(3 2.47303e-16 0)
(3 2.21663e-16 0)
(3 -5.67074e-17 0)
(3 -4.26177e-17 0)
(3 -2.43211e-16 0)
(3 -7.27108e-16 0)
(3 -1.15259e-15 0)
(3 -5.44368e-16 0)
(3 2.53608e-16 0)
(3 4.25277e-16 0)
(3 1.20764e-18 0)
(3 1.56718e-16 0)
(3 -3.4591e-16 0)
(3 -1.17206e-15 0)
(3 -1.56014e-15 0)
(3 -1.39111e-15 0)
(3 -1.51233e-15 0)
(3 -6.51511e-16 0)
(3 4.5442e-16 0)
(3 1.34068e-15 0)
(3 1.26845e-15 0)
(2.93381 0.0118084 0)
(2.84355 0.0818461 0)
(2.75848 0.140031 0)
(2.67077 0.233744 0)
(2.56773 0.360739 0)
(2.51714 0.433466 0)
(2.41467 0.547821 0)
(2.35316 0.628586 0)
(2.31115 0.724036 0)
(2.25439 0.798086 0)
(2.24887 0.852267 0)
(2.28318 0.886404 0)
(2.32772 0.894639 0)
(2.33637 0.889656 0)
(2.34508 0.884764 0)
(2.34622 0.867078 0)
(2.34476 0.859197 0)
(2.34259 0.850231 0)
(2.34367 0.847303 0)
(2.3459 0.849243 0)
(2.34382 0.849194 0)
(2.34048 0.849662 0)
(2.33641 0.850874 0)
(2.33358 0.850079 0)
(2.99881 0.0011453 0)
(2.98903 0.0129021 0)
(2.96149 0.0501541 0)
(2.90379 0.129114 0)
(2.79874 0.27849 0)
(2.69281 0.454954 0)
(2.51687 0.693996 0)
(2.40007 0.894547 0)
(2.21624 1.07275 0)
(2.16279 1.10517 0)
(2.15242 1.03231 0)
(2.18352 0.996652 0)
(2.24939 0.951714 0)
(2.30123 0.901628 0)
(2.33326 0.853122 0)
(2.35154 0.830852 0)
(2.35231 0.835235 0)
(2.35564 0.837173 0)
(2.35605 0.837765 0)
(2.35516 0.840277 0)
(2.35257 0.844419 0)
(2.34589 0.846748 0)
(2.34027 0.849535 0)
(2.3368 0.851048 0)
(3 -5.06367e-06 0)
(2.99999 1.12822e-05 0)
(3.00001 3.06418e-05 0)
(2.99993 2.90849e-05 0)
(2.99856 0.00201906 0)
(2.99199 0.0114114 0)
(2.96339 0.0565012 0)
(2.90377 0.167874 0)
(2.76592 0.417133 0)
(2.58502 0.713508 0)
(2.46399 0.840098 0)
(2.33695 0.932285 0)
(2.28942 0.914532 0)
(2.29686 0.900829 0)
(2.31427 0.884459 0)
(2.34894 0.867441 0)
(2.35521 0.86606 0)
(2.35835 0.84641 0)
(2.36127 0.839476 0)
(2.36028 0.839009 0)
(2.35911 0.840422 0)
(2.35322 0.843844 0)
(2.34799 0.84711 0)
(2.34458 0.849875 0)
(3 -7.42648e-08 0)
(3 -5.77202e-08 0)
(3 -5.78239e-07 0)
(3 -1.53286e-06 0)
(3.00001 -9.17186e-06 0)
(2.99999 2.07979e-05 0)
(3.00002 -6.73292e-05 0)
(2.99931 0.00120092 0)
(2.98953 0.017639 0)
(2.89569 0.171205 0)
(2.7834 0.406605 0)
(2.41702 0.810512 0)
(2.33619 0.887012 0)
(2.28337 0.945754 0)
(2.28926 0.946581 0)
(2.30827 0.922996 0)
(2.33591 0.885639 0)
(2.34502 0.860403 0)
(2.35352 0.843203 0)
(2.35842 0.839822 0)
(2.36201 0.842013 0)
(2.36102 0.845429 0)
(2.35804 0.847683 0)
(2.35312 0.849589 0)
(3 2.20245e-10 0)
(3 -2.76023e-09 0)
(3 -2.6437e-08 0)
(3 -7.8331e-08 0)
(3 -7.6374e-07 0)
(3 -7.73378e-07 0)
(3 -1.68016e-06 0)
(3 -2.07194e-06 0)
(3.00004 -8.60213e-05 0)
(2.99929 0.000938679 0)
(2.98748 0.0184542 0)
(2.85211 0.188418 0)
(2.68618 0.441742 0)
(2.41913 0.750949 0)
(2.29072 0.913456 0)
(2.29389 0.893558 0)
(2.30945 0.883374 0)
(2.32125 0.877008 0)
(2.33497 0.869269 0)
(2.34967 0.853801 0)
(2.35645 0.848978 0)
(2.3567 0.850637 0)
(2.35721 0.850569 0)
(2.35305 0.854793 0)
(3 2.46456e-12 0)
(3 6.8587e-13 0)
(3 6.72147e-11 0)
(3 1.84858e-11 0)
(3 2.01701e-10 0)
(3 -6.77887e-08 0)
(3 -6.67959e-08 0)
(3 -2.06141e-07 0)
(3 -6.52908e-06 0)
(3 -6.25538e-06 0)
(3.00003 -7.10682e-05 0)
(2.9983 0.0022868 0)
(2.97616 0.0342953 0)
(2.81934 0.224339 0)
(2.52089 0.586156 0)
(2.42558 0.740133 0)
(2.29446 0.888658 0)
(2.28515 0.897623 0)
(2.30158 0.887327 0)
(2.32454 0.86037 0)
(2.33357 0.850881 0)
(2.34247 0.849055 0)
(2.34637 0.844784 0)
(2.35074 0.841642 0)
(3 -5.72758e-15 0)
(3 8.17645e-13 0)
(3 1.76267e-11 0)
(3 2.54565e-11 0)
(3 3.1439e-11 0)
(3 -4.41432e-11 0)
(3 -7.25225e-10 0)
(3 -1.22663e-09 0)
(3 -2.30825e-08 0)
(3 -4.31935e-07 0)
(3 -7.85943e-06 0)
(3 -4.88784e-06 0)
(3 -3.28287e-05 0)
(2.99514 0.00665269 0)
(2.93726 0.0775893 0)
(2.77385 0.311861 0)
(2.41258 0.731783 0)
(2.37358 0.791384 0)
(2.3202 0.843472 0)
(2.31863 0.84417 0)
(2.32408 0.844603 0)
(2.33005 0.841153 0)
(2.33712 0.834982 0)
(2.34282 0.835435 0)
(3 -3.57421e-16 0)
(3 -1.25385e-14 0)
(3 1.13876e-13 0)
(3 1.98201e-12 0)
(3 7.12972e-12 0)
(3 7.19931e-12 0)
(3 5.84107e-12 0)
(3 2.43171e-12 0)
(3 6.64998e-11 0)
(3 -1.31367e-10 0)
(3 -3.81116e-08 0)
(3 -5.75966e-07 0)
(3 -2.27103e-06 0)
(3.00001 -2.65021e-05 0)
(2.99967 0.000578359 0)
(2.98731 0.0178382 0)
(2.86019 0.176425 0)
(2.69511 0.441963 0)
(2.34831 0.828684 0)
(2.29371 0.865049 0)
(2.31062 0.84862 0)
(2.30691 0.846685 0)
(2.31212 0.840927 0)
(2.32662 0.839022 0)
(3 1.07952e-15 0)
(3 -1.58666e-15 0)
(3 -2.0011e-15 0)
(3 5.62254e-15 0)
(3 8.28639e-14 0)
(3 8.532e-13 0)
(3 1.10568e-12 0)
(3 1.32346e-12 0)
(3 1.54201e-11 0)
(3 1.51179e-11 0)
(3 3.06889e-10 0)
(3 -6.81771e-09 0)
(3 -3.61446e-08 0)
(3 -3.11394e-06 0)
(3 -3.9475e-06 0)
(3 -1.56943e-05 0)
(2.99713 0.00485505 0)
(2.9626 0.0584358 0)
(2.72348 0.366665 0)
(2.58751 0.591965 0)
(2.36483 0.807428 0)
(2.29113 0.879037 0)
(2.28898 0.858541 0)
(2.31085 0.844887 0)
(3 -1.41095e-16 0)
(3 -1.26996e-15 0)
(3 -1.32326e-15 0)
(3 -7.01616e-16 0)
(3 -1.59841e-15 0)
(3 5.23869e-15 0)
(3 2.51451e-14 0)
(3 8.83481e-14 0)
(3 2.63553e-13 0)
(3 2.34702e-12 0)
(3 2.44472e-11 0)
(3 1.48802e-11 0)
(3 1.0983e-10 0)
(3 -2.28412e-08 0)
(3 -1.00686e-06 0)
(3 -1.11779e-06 0)
(3 -9.41915e-06 0)
(2.99956 0.000658775 0)
(2.98009 0.0303342 0)
(2.90327 0.17685 0)
(2.56318 0.593349 0)
(2.42807 0.757822 0)
(2.35568 0.794038 0)
(2.34072 0.831238 0)
(3 -1.13471e-15 0)
(3 -2.20516e-15 0)
(3 -2.32271e-15 0)
(3 -1.73966e-15 0)
(3 -1.02488e-15 0)
(3 8.30447e-16 0)
(3 2.16256e-15 0)
(3 3.53628e-15 0)
(3 4.16028e-15 0)
(3 1.47486e-14 0)
(3 3.44026e-13 0)
(3 3.25946e-12 0)
(3 1.92641e-11 0)
(3 8.7335e-11 0)
(3 -1.97322e-08 0)
(3 -1.17685e-07 0)
(3 -1.358e-06 0)
(3 -5.40631e-06 0)
(2.99991 0.000181642 0)
(2.99606 0.00751055 0)
(2.91062 0.128858 0)
(2.74494 0.392035 0)
(2.47465 0.707372 0)
(2.33149 0.897636 0)
(3 6.24261e-16 0)
(3 -9.70608e-16 0)
(3 -1.40309e-15 0)
(3 -1.41249e-15 0)
(3 -1.27808e-15 0)
(3 -1.12985e-15 0)
(3 -9.32025e-16 0)
(3 5.49386e-17 0)
(3 1.61727e-15 0)
(3 3.6182e-15 0)
(3 5.1408e-15 0)
(3 1.65243e-13 0)
(3 1.97051e-12 0)
(3 5.93814e-12 0)
(3 1.05659e-10 0)
(3 -2.42484e-09 0)
(3 -1.74889e-08 0)
(3 -1.56791e-06 0)
(3 -1.39883e-06 0)
(2.99999 9.46718e-07 0)
(2.99754 0.00435385 0)
(2.96862 0.0591663 0)
(2.79137 0.316592 0)
(2.51655 0.672239 0)
(3 3.73987e-16 0)
(3 2.28662e-18 0)
(3 -1.13018e-15 0)
(3 -1.67145e-15 0)
(3 -2.03299e-15 0)
(3 -1.05319e-15 0)
(3 2.74897e-16 0)
(3 8.0335e-16 0)
(3 1.18127e-15 0)
(3 1.01234e-15 0)
(3 1.98102e-16 0)
(3 2.36796e-15 0)
(3 1.31809e-14 0)
(3 6.87231e-13 0)
(3 1.58855e-11 0)
(3 3.193e-11 0)
(3 -1.00556e-10 0)
(3 -3.82269e-08 0)
(3 -5.56064e-07 0)
(3 -6.02093e-07 0)
(3 3.27585e-06 0)
(2.9995 0.000966057 0)
(2.97627 0.0423836 0)
(2.84642 0.235006 0)
(3 -4.9309e-16 0)
(3 -9.16607e-17 0)
(3 -7.71236e-18 0)
(3 -1.11271e-15 0)
(3 -8.93797e-16 0)
(3 -3.19686e-16 0)
(3 -3.94945e-16 0)
(3 -9.73014e-16 0)
(3 -1.12773e-15 0)
(3 -4.43003e-16 0)
(3 1.60919e-16 0)
(3 -2.21556e-16 0)
(3 -9.13456e-16 0)
(3 3.70051e-15 0)
(3 7.76153e-13 0)
(3 7.7075e-12 0)
(3 6.07574e-12 0)
(3 -2.92755e-11 0)
(3 -2.35126e-08 0)
(3 -9.46215e-08 0)
(3 -3.48717e-07 0)
(3 -1.02906e-06 0)
(2.99952 0.000902708 0)
(2.99242 0.0164467 0)
(3 2.5921e-16 0)
(3 1.17136e-15 0)
(3 1.52939e-15 0)
(3 1.2618e-15 0)
(3 4.90794e-16 0)
(3 -1.64108e-15 0)
(3 -2.39293e-15 0)
(3 -2.25595e-15 0)
(3 -6.78795e-16 0)
(3 2.09572e-17 0)
(3 -7.46267e-16 0)
(3 -1.38732e-15 0)
(3 -1.0325e-15 0)
(3 -1.57855e-15 0)
(3 3.23738e-16 0)
(3 2.30838e-13 0)
(3 1.25228e-12 0)
(3 3.94999e-12 0)
(3 -1.35234e-11 0)
(3 -5.8189e-09 0)
(3 -5.799e-08 0)
(3 -2.34027e-07 0)
(3 1.17005e-05 0)
(2.99999 -1.98469e-05 0)
(3 2.21377e-16 0)
(3 -1.8501e-16 0)
(3 -3.03658e-16 0)
(3 -1.02188e-16 0)
(3 -4.70424e-16 0)
(3 -1.15438e-15 0)
(3 -1.10875e-15 0)
(3 -2.3281e-16 0)
(3 8.71921e-16 0)
(3 5.89261e-16 0)
(3 -1.4337e-16 0)
(3 -3.6207e-16 0)
(3 -6.96677e-16 0)
(3 -1.7707e-15 0)
(3 -1.60715e-15 0)
(3 2.6559e-16 0)
(3 2.00464e-14 0)
(3 1.65753e-12 0)
(3 1.49931e-12 0)
(3 -4.00909e-11 0)
(3 -4.27719e-09 0)
(3 -5.4676e-08 0)
(3 -7.87559e-09 0)
(3 -1.62588e-06 0)
(3 -3.30573e-16 0)
(3 -9.6711e-16 0)
(3 -2.24781e-15 0)
(3 -1.88283e-15 0)
(3 -1.20865e-15 0)
(3 -5.67563e-16 0)
(3 1.37007e-15 0)
(3 1.66209e-15 0)
(3 1.18739e-15 0)
(3 4.25588e-16 0)
(3 5.98432e-16 0)
(3 -2.40465e-16 0)
(3 -1.20704e-15 0)
(3 -1.78036e-15 0)
(3 -1.02046e-15 0)
(3 -9.07899e-16 0)
(3 -4.69662e-14 0)
(3 -1.46321e-12 0)
(3 -2.10872e-12 0)
(3 4.34857e-11 0)
(3 2.66412e-09 0)
(3 6.01559e-08 0)
(3 1.58942e-09 0)
(3 1.54772e-06 0)
(3 -1.555e-15 0)
(3 -1.1679e-15 0)
(3 -1.37785e-15 0)
(3 -1.4618e-15 0)
(3 -3.6855e-17 0)
(3 6.91044e-16 0)
(3 3.58061e-16 0)
(3 5.13827e-16 0)
(3 4.82864e-17 0)
(3 -1.02869e-15 0)
(3 -1.71547e-15 0)
(3 -1.18079e-15 0)
(3 -1.00661e-15 0)
(3 -7.34468e-16 0)
(3 -4.32264e-15 0)
(3 -2.28591e-13 0)
(3 -1.2748e-12 0)
(3 -3.83555e-12 0)
(3 1.37137e-13 0)
(3 6.4001e-09 0)
(3 4.7489e-08 0)
(3 2.41353e-07 0)
(3 -1.16812e-05 0)
(2.99999 2.11229e-05 0)
(3 -2.17471e-15 0)
(3 -9.98333e-16 0)
(3 -6.87401e-16 0)
(3 1.35251e-16 0)
(3 4.22001e-16 0)
(3 2.69054e-16 0)
(3 -7.51388e-16 0)
(3 -5.88923e-16 0)
(3 -5.03449e-16 0)
(3 -6.54039e-16 0)
(3 -1.34255e-15 0)
(3 -7.88938e-16 0)
(3 -8.17613e-16 0)
(3 -5.70671e-15 0)
(3 -7.76047e-13 0)
(3 -7.70149e-12 0)
(3 -6.08131e-12 0)
(3 2.98517e-11 0)
(3 2.34345e-08 0)
(3 9.49627e-08 0)
(3 3.49992e-07 0)
(3 1.01924e-06 0)
(2.99952 -0.000901064 0)
(2.9924 -0.016474 0)
(3 -9.09547e-16 0)
(3 -6.30705e-16 0)
(3 3.51703e-16 0)
(3 7.80375e-16 0)
(3 -5.23585e-17 0)
(3 -1.13762e-15 0)
(3 -1.21236e-15 0)
(3 -6.97125e-16 0)
(3 -1.25091e-15 0)
(3 -4.53866e-16 0)
(3 2.43054e-16 0)
(3 -2.95834e-15 0)
(3 -1.57588e-14 0)
(3 -6.90107e-13 0)
(3 -1.58898e-11 0)
(3 -3.19209e-11 0)
(3 1.00598e-10 0)
(3 3.82517e-08 0)
(3 5.55915e-07 0)
(3 6.02122e-07 0)
(3 -3.26978e-06 0)
(2.9995 -0.000966517 0)
(2.97627 -0.0423612 0)
(2.84627 -0.235179 0)
(3 -1.20442e-15 0)
(3 -1.04249e-16 0)
(3 1.59658e-16 0)
(3 -3.35308e-17 0)
(3 -1.32437e-15 0)
(3 -1.96025e-15 0)
(3 -1.04507e-15 0)
(3 -8.3724e-16 0)
(3 -7.56238e-16 0)
(3 -5.86762e-16 0)
(3 -1.40327e-15 0)
(3 -1.59701e-13 0)
(3 -1.9622e-12 0)
(3 -5.93204e-12 0)
(3 -1.05654e-10 0)
(3 2.4248e-09 0)
(3 1.74896e-08 0)
(3 1.5688e-06 0)
(3 1.3968e-06 0)
(2.99999 -9.27345e-07 0)
(2.99754 -0.00435531 0)
(2.96863 -0.0591594 0)
(2.79138 -0.316587 0)
(2.51648 -0.672355 0)
(3 -5.52967e-16 0)
(3 -1.12959e-16 0)
(3 -4.26207e-17 0)
(3 -8.5936e-16 0)
(3 -1.38893e-15 0)
(3 -1.98701e-15 0)
(3 -1.03617e-15 0)
(3 -3.01959e-15 0)
(3 -1.86941e-15 0)
(3 -1.0509e-14 0)
(3 -3.38866e-13 0)
(3 -3.25697e-12 0)
(3 -1.9262e-11 0)
(3 -8.73339e-11 0)
(3 1.97324e-08 0)
(3 1.17688e-07 0)
(3 1.35792e-06 0)
(3 5.40695e-06 0)
(2.99991 -0.000181681 0)
(2.99606 -0.00750927 0)
(2.9106 -0.128881 0)
(2.74503 -0.391982 0)
(2.47461 -0.707427 0)
(2.33148 -0.897676 0)
(3 -3.73416e-16 0)
(3 -7.24295e-16 0)
(3 -9.19097e-16 0)
(3 -1.71508e-15 0)
(3 -1.7141e-15 0)
(3 -8.54933e-15 0)
(3 -2.48467e-14 0)
(3 -8.55103e-14 0)
(3 -2.60782e-13 0)
(3 -2.3461e-12 0)
(3 -2.44458e-11 0)
(3 -1.48795e-11 0)
(3 -1.09831e-10 0)
(3 2.28411e-08 0)
(3 1.00686e-06 0)
(3 1.11779e-06 0)
(3 9.41913e-06 0)
(2.99956 -0.00065877 0)
(2.98009 -0.0303346 0)
(2.90328 -0.176846 0)
(2.56316 -0.593368 0)
(2.42809 -0.757801 0)
(2.35568 -0.794045 0)
(2.34072 -0.831245 0)
(3 8.76537e-17 0)
(3 1.57836e-15 0)
(3 8.31659e-16 0)
(3 -8.75002e-15 0)
(3 -8.47852e-14 0)
(3 -8.49203e-13 0)
(3 -1.10408e-12 0)
(3 -1.32373e-12 0)
(3 -1.54194e-11 0)
(3 -1.51155e-11 0)
(3 -3.06885e-10 0)
(3 6.8177e-09 0)
(3 3.61448e-08 0)
(3 3.11392e-06 0)
(3 3.94755e-06 0)
(3 1.56938e-05 0)
(2.99713 -0.00485504 0)
(2.9626 -0.0584359 0)
(2.72348 -0.366664 0)
(2.58751 -0.591964 0)
(2.36482 -0.807432 0)
(2.29113 -0.879034 0)
(2.28898 -0.858541 0)
(2.31085 -0.844889 0)
(3 4.95278e-16 0)
(3 1.39254e-14 0)
(3 -1.13068e-13 0)
(3 -1.98146e-12 0)
(3 -7.12765e-12 0)
(3 -7.19496e-12 0)
(3 -5.84253e-12 0)
(3 -2.42944e-12 0)
(3 -6.64966e-11 0)
(3 1.31368e-10 0)
(3 3.81116e-08 0)
(3 5.75966e-07 0)
(3 2.27104e-06 0)
(3.00001 2.6502e-05 0)
(2.99967 -0.000578358 0)
(2.98731 -0.0178382 0)
(2.86019 -0.176425 0)
(2.69511 -0.441963 0)
(2.34831 -0.828684 0)
(2.29371 -0.865048 0)
(2.31062 -0.84862 0)
(2.30691 -0.846685 0)
(2.31212 -0.840927 0)
(2.32662 -0.839022 0)
(3 5.00409e-15 0)
(3 -8.1817e-13 0)
(3 -1.76271e-11 0)
(3 -2.54564e-11 0)
(3 -3.14389e-11 0)
(3 4.41439e-11 0)
(3 7.25216e-10 0)
(3 1.22663e-09 0)
(3 2.30825e-08 0)
(3 4.31935e-07 0)
(3 7.85943e-06 0)
(3 4.88784e-06 0)
(3 3.28288e-05 0)
(2.99514 -0.00665269 0)
(2.93726 -0.0775892 0)
(2.77385 -0.311861 0)
(2.41258 -0.731783 0)
(2.37358 -0.791384 0)
(2.3202 -0.843472 0)
(2.31863 -0.84417 0)
(2.32408 -0.844603 0)
(2.33005 -0.841153 0)
(2.33712 -0.834982 0)
(2.34282 -0.835435 0)
(3 -2.46545e-12 0)
(3 -6.87359e-13 0)
(3 -6.72155e-11 0)
(3 -1.84848e-11 0)
(3 -2.01702e-10 0)
(3 6.77887e-08 0)
(3 6.67959e-08 0)
(3 2.06141e-07 0)
(3 6.52908e-06 0)
(3 6.25538e-06 0)
(3.00003 7.10682e-05 0)
(2.9983 -0.0022868 0)
(2.97616 -0.0342953 0)
(2.81934 -0.224339 0)
(2.52089 -0.586156 0)
(2.42558 -0.740133 0)
(2.29446 -0.888658 0)
(2.28515 -0.897622 0)
(2.30158 -0.887327 0)
(2.32454 -0.86037 0)
(2.33357 -0.850881 0)
(2.34247 -0.849055 0)
(2.34637 -0.844784 0)
(2.35074 -0.841642 0)
(3 -2.20244e-10 0)
(3 2.76023e-09 0)
(3 2.64371e-08 0)
(3 7.83311e-08 0)
(3 7.6374e-07 0)
(3 7.73378e-07 0)
(3 1.68017e-06 0)
(3 2.07194e-06 0)
(3.00004 8.60213e-05 0)
(2.99929 -0.000938679 0)
(2.98748 -0.0184542 0)
(2.85211 -0.188418 0)
(2.68618 -0.441742 0)
(2.41913 -0.750949 0)
(2.29072 -0.913456 0)
(2.29389 -0.893558 0)
(2.30945 -0.883374 0)
(2.32125 -0.877008 0)
(2.33497 -0.869269 0)
(2.34967 -0.853801 0)
(2.35645 -0.848978 0)
(2.3567 -0.850637 0)
(2.35721 -0.850569 0)
(2.35305 -0.854793 0)
(3 7.42647e-08 0)
(3 5.77203e-08 0)
(3 5.78239e-07 0)
(3 1.53286e-06 0)
(3.00001 9.17186e-06 0)
(2.99999 -2.07979e-05 0)
(3.00002 6.73292e-05 0)
(2.99931 -0.00120092 0)
(2.98953 -0.017639 0)
(2.89569 -0.171205 0)
(2.7834 -0.406605 0)
(2.41702 -0.810512 0)
(2.33619 -0.887012 0)
(2.28337 -0.945754 0)
(2.28926 -0.946581 0)
(2.30827 -0.922996 0)
(2.33591 -0.885639 0)
(2.34502 -0.860403 0)
(2.35352 -0.843203 0)
(2.35842 -0.839822 0)
(2.36201 -0.842013 0)
(2.36102 -0.845429 0)
(2.35804 -0.847683 0)
(2.35312 -0.849589 0)
(3 5.06367e-06 0)
(2.99999 -1.12821e-05 0)
(3.00001 -3.06419e-05 0)
(2.99993 -2.90848e-05 0)
(2.99856 -0.00201906 0)
(2.99199 -0.0114114 0)
(2.96339 -0.0565012 0)
(2.90377 -0.167874 0)
(2.76592 -0.417133 0)
(2.58502 -0.713508 0)
(2.46399 -0.840098 0)
(2.33695 -0.932285 0)
(2.28942 -0.914532 0)
(2.29686 -0.900829 0)
(2.31427 -0.884459 0)
(2.34894 -0.867441 0)
(2.35521 -0.86606 0)
(2.35835 -0.84641 0)
(2.36127 -0.839476 0)
(2.36028 -0.839009 0)
(2.35911 -0.840422 0)
(2.35322 -0.843844 0)
(2.34799 -0.84711 0)
(2.34458 -0.849875 0)
(2.99881 -0.0011453 0)
(2.98903 -0.0129021 0)
(2.96149 -0.0501541 0)
(2.90379 -0.129114 0)
(2.79874 -0.27849 0)
(2.69281 -0.454954 0)
(2.51687 -0.693996 0)
(2.40007 -0.894547 0)
(2.21624 -1.07275 0)
(2.16279 -1.10517 0)
(2.15242 -1.03231 0)
(2.18352 -0.996652 0)
(2.24939 -0.951714 0)
(2.30123 -0.901628 0)
(2.33326 -0.853122 0)
(2.35154 -0.830852 0)
(2.35231 -0.835235 0)
(2.35564 -0.837173 0)
(2.35605 -0.837765 0)
(2.35516 -0.840277 0)
(2.35257 -0.844419 0)
(2.34589 -0.846748 0)
(2.34027 -0.849535 0)
(2.3368 -0.851048 0)
(2.93381 -0.0118084 0)
(2.84355 -0.0818461 0)
(2.75848 -0.140031 0)
(2.67077 -0.233744 0)
(2.56773 -0.360739 0)
(2.51714 -0.433466 0)
(2.41467 -0.547821 0)
(2.35316 -0.628586 0)
(2.31115 -0.724036 0)
(2.25439 -0.798086 0)
(2.24887 -0.852267 0)
(2.28318 -0.886404 0)
(2.32772 -0.894639 0)
(2.33637 -0.889656 0)