/*--------------------------------*- C++ -*----------------------------------*\
  =========                 |
  \\      /  F ield         | OpenFOAM: The Open Source CFD Toolbox
   \\    /   O peration     | Website:  https://openfoam.org
    \\  /    A nd           | Version:  7
     \\/     M anipulation  |
\*---------------------------------------------------------------------------*/
FoamFile
{
    version     2.0;
    format      ascii;
    class       volScalarField;
    location    "4";
    object      p;
}
// * * * * * * * * * * * * * * * * * * * * * * * * * * * * * * * * * * * * * //

dimensions      [1 -1 -2 0 0 0 0];

internalField   nonuniform List<scalar> 
18432
(
1
1
1
1
1
1
1
1
1
1
1
1
1
1
1
1
1
1
1
1
1
1
1
1
1
1
1
1
1
1
1
1
1
1
1
1
1
1
1
1
1
1
1
1
1
1
1
1
1
1
1
1
1
1
1
1
1
1
1
1
1
1
1
1
1
1
1
1
1
1
1
1
1
1
1
1
1
1
1
1
1
1
1
1
1
1
1
1
1
1
1
1
1
1
1
1
1
1
1
1
1
1
1
1
1
1
1
1
1
1
1
1
1
1
1
1
1
1
1
1
1
1
1
1
1
1
1
1
1
1
1
1
1
1
1
1
1
1
1
1
1
1
1
1
1
1
1
1
1
1
1
1
1
1
1
1
1
1
1
1
1
1
1
1
1
1
1
1
1
1
1
1
1
1
1
1
1
1
1
1
1
1
1
1
1
1
1
1
1
1
1
1
1
1
1
1
1
1
1
1
1
1
1
1
1
1
1
1
1
1
1
1
1
1
1
1
1
1
1
1
1
1
1
1
1
1
1
1
1
1
1
1
1
1
1
1
1
1
1
1
1
1
1
1
1
1
1
1
1
1
1
1
1
1
1
1
1
1
1
1
1
1
1
1
1
1
1
1
1
1
1
1
1
1
1
1
1
1
1
1
1
1
1
1
1
1
1
1
1
1
1
1
1
1
1
1
1
1
1
1
1
1
1
1
1
1
1
1
1
1
1
1
1
1
1
1
1
1
1
1
1
1
1
1
1
1
1
1
1
1
1
1
1
1
1
1
1
1
1
1
1
1
1
1
1
1
1
1
1
1
1
1
1
1
1
1
1
1
1
1
1
1
1
1
1
1
1
1
1
1
1
1
1
1
1
1
1
1
1
1
1
1
1
1
1
1
1
1
1
1
1
1
1
1
1
1
1
1
1
1
1
1
1
1
1
1
1
1
1
1
1
1
1
1
1
1
1
1
1
1
1
1
1
1
1
1
1
1
1
1
1
1
1
1
1
1
1
1
1
1
1
1
1
1
1
1
1
1
1
1
1
1
1
1
1
1
1
1
1
1
1
1
1
1
1
1
1
1
1
1
1
1
1
1
1
1
1
1
1
1
1
1
1
1
1
1
1
1
1
1
1
1
1
1
1
1
1
1
1
1
1
1
1
1
1
1
1
1
1
1
1
1
1
1
1
1
1
1
1
1
1
1
1
1
1
1
1
1
1
1
1
1
1
1
1
1
1
1
1
1
1
1
1
1
1
1
1
1
1
1
1
1
1
1
1
1
1
1
1
1
1
1
1
1
1
1
1
1
1
1
1
1
1
1
1
1
1
1
1
1
1
1
1
1
1
1
1
1
1
1
1
1
1
1
1
1
1
1
1
1
1
1
1
1
1
1
1
1
1
1
1
1
1
1
1
1
1
1
1
1
1
1
1
1
1
1
1
1
1
1
1
1
1
1
1
1
1
1
1
1
1
1
1
1
1
1
1
1
1
1
1
1
1
1
1
1
1
1
1
1
1
1
1
1
1
1
1
1
1
1
1
1
1
1
1
1
1
1
1
1
1
1
1
1
1
1
1
1
1
1
1
1
1
1
1
1
1
1
1
1
1
1
1
1
1
1
1
1
1
1
1
1
1
1
1
1
1
1
1
1
1
1
1
1
1
1
1
1
1
1
1
1
1
1
1
1
1
1
1
1
1
1
1
1
1
1
1
1
1
1
1
1
1
1
1
1
1
1
1
1
1
1
1
1
1
1
1
1
1
1
1
1
1
1
1
1
1
1
1
1
1
1
1
1
1
1
1
1
1
1
1
1
1
1
1
1
1
1
1
1
1
1
1
1
1
1
1
1
1
1
1
1
1
1
1
1
1
1
1
1
1
1
1
1
1
1
1
1
1
1
1
1
1
1
1
1
1
1
1
1
1
1
1
1
1
1
1
1
1
1
1
1
1
1
1
1
1
1
1
1
1
1
1
1
1
1
1
1
1
1
1
1
1
1
1
1
1
1
1
1
1
1
1
1
1
1
1
1
1
1
1
1
1
1
1
1
1
1
1
1
1
1
1
1
1
1
1
1
1
1
1
1
1
1
1
1
1
1
1
1
1
1
1
1
1
1
1
1
1
1
1
1
1
1
1
1
1
1
1
1
1
1
1
1
1
1
1
1
1
1
1
1
1
1
1
1
1
1
1
1
1
1
1
1
1
1
1
1
1
1
1
1
1
1
1
1
1
1
1
1
1
1
1
1
1
1
1
1
1
1
1
1
1
1
1
1
1
1
1
1
1
1
1
1
1
1
1
1
1
1
1
1
1
1
1
1
1
1
1
1
1
1
1
1
1
1
1
1
1
1
1
1
1
1
1
1
1
1
1
1
1
1
1
1
1
1
1
1
1
1
1
1
1
1
1
1
1
1
1
1
1
1
1
1
1
1
1
1
1
1
1
1
1
1
1
1
1
1
1
1
1
1
1
1
1
1
1
1
1
1
1
1
1
1
1
1
1
1
1
1
1
1
1
1
1
1
1
1
1
1
1
1
1
1
1
1
1
1
1
1
1
1
1
1
1
1
1
1
1
1
1
1
1
1
1
1
1
1
1
1
1
1
1
1
1
1
1
1
1
1
1
1
1
1
1
1
1
1
1
1
1
1
1
1
1
1
1
1
1
1
1
1
1
1
1
1
1
1
1
1
1
1
1
1
1
1
1
1
1
1
1
1
1
1
1
1
1
1
1
1
1
1
1
1
1
1
1
1
1
1
1
1
1
1
1
1
1
1
1
1
1
1
1
1
1
1
1
1
1
1
1
1
1
1
1
1
1
1
1
1
1
1
1
1
1
1
1
1
1
1
1
1
1
1
1
1
1
1
1
1
1
1
1
1
1
1
1
1
1
1
1
1
1
1
1
1
1
1
1
1
1
1
1
1
1
1
1
1
1
1
1
1
1
1
1
1
1
1
1
1
1
1
1
1
1
1
1
1
1
1
1
1
1
1
1
1
1
1
1
1
1
1
1
1
1
1
1
1
1
1
1
1
1
1
1
1
1
1
1
1
1
1
1
1
1
1
1
1
1
1
1
1
1
1
1
1
1
1
1
1
1
1
1
1
1
1
1
1
1
1
1
1
1
1
1
1
1
1
1
1
1
1
1
1
1
1
1
1
1
1
1
1
1
1
1
1
1
1
1
1
1
1
1
1
1
1
1
1
1
1
1
1
1
1
1
1
1
1
1
1
1
1
1
1
1
1
1
1
1
1
1
1
1
1
1
1
1
1
1
1
1
1
1
1
1
1
1
1
1
1
1
1
1
1
1
1
1
1
1
1
1
1
1
1
1
1
1
1
1
1
1
1
1
1
1
1
1
1
1
1
1
1
1
1
1
1
1
1
1
1
1
1
1
1
1
1
1
1
1
1
1
1
1
1
1
1
1
1
1
1
1
1
1
1
1
1
1
1
1
1
1
1
1
1
1
1
1
1
1
1
1
1
1
1
1
1
1
1
1
1
1
1
1
1
1
1
1
1
1
1
1
1
1
1
1
1
1
1
1
1
1
1
1
1
1
1
1
1
1
1
1
1
1
1
1
1
1
1
1
1
1
1
1
1
1
1
1
1
1
1
1
1
1
1
1
1
1
1
1
1
1
1
1
1
1
1
1
1
1
1
1
1
1
1
1
1
1
1
1
1
1
1
1
1
1
1
1
1
1
1
1
1
1
1
1
1
1
1
1
1
1
1
1
1
1
1
1
1
1
1
1
1
1
1
1
1
1
1
1
1
1
1
1
1
1
1
1
1
1
1
1
1
1
1
1
1
1
1
1
1
1
1
1
1
1
1
1
1
1
1
1
1
1
1
1
1
1
1
1
1
1
1
1
1
1
1
1
1
1
1
1
1
1
1
1
1
1
1
1
1
1
1
1
1
1
1
1
1
1
1
1
1
1
1
1
1
1
1
1
1
1
1
1
1
1
1
1
1
1
1
1
1
1
1
1
1
1
1
1
1
1
1
1
1
1
1
1
1
1
1
1
1
1
1
1
1
1
1
1
1
1
1
1
1
1
1
1
1
1
1
1
1
1
1
1
1
1
1
1
1
1
1
1
1
1
1
1
1
1
1
1
1
1
1
1
1
1
1
1
1
1
1
1
1
1
1
1
1
1
1
1
1
1
1
1
1
1
1
1
1
1
1
1
1
1
1
1
1
1
1
1
1
1
1
1
1
1
1
1
1
1
1
1
1
1
1
1
1
1
1
1
1
1
1
1
1
1
1
1
1
1
1
1
1
1
1
1
1
1
1
1
1
1
1
1
1
1
1
1
1
1
1
1
1
1
1
1
1
1
1
1
1
1
1
1
1
1
1
1
1
1
1
1
1
1
1
1
1
1
1
1
1
1
1
1
1
1
1
1
1
1
1
1
1
1
1
1
1
1
1
1
1
1
1
1
1
1
1
1
1
1
1
1
1
1
1
1
1
1
1
1
1
1
1
1
1
1
1
1
1
1
1
1
1
1
1
1
1
1
1
1
1
1
1
1
1
1
1
1
1
1
1
1
1
1
1
1
1
1
1
1
1
1
1
1
1
1
1
1
1
1
1
1
1
1
1
1
1
1
1
1
1
1
1
1
1
1
1
1
1
1
1
1
1
1
1
1
1
1
1
1
1
1
1
1
1
1
1
1
1
1
1
1
1
1
1
1
1
1
1
1
1
1
1
1
1
1
1
1
1
1
1
1
1
1
1
1
1
1
1
1
1
1
1
1
1
1
1
1
1
1
1
1
1
1
1
1
1
1
1
1
1
1
1
1
1
1
1
1
1
1
1
1
1
1
1
1
1
1
1
1
1
1
1
1
1
1
1
1
1
1
1
1
1
1
1
1
1
1
1
1
1
1
1
1
1
1
1
1
1
1
1
1
1
1
1
1
1
1
1
1
1
1
1
1
1
1
1
1
1
1
1
1
1
1
1
1
1
1
1
1
1
1
1
1
1
1
1
1
1
1
1
1
1
1
1
1
1
1
1
1
1
1
1
1
1
1
1
1
1
1
1
1
1
1
1
1
1
1
1
1
1
1
1
1
1
1
1
1
1
1
1
1
1
1
1
1
1
1
1
1
1
1
1
1
1
1
1
1
1
1
1
1
1
1
1
1
1
1
1
1
1
1
1
1
1
1
1
1
1
1
1
1
1
1
1
1
1
1
1
1
1
1
1
1
1
1
1
1
1
1
1
1
1
1
1
1
1
1
1
1
1
1
1
1
1
1
1
1
1
1
1
1
1
1
1
1
1
1
1
1
1
1
1
1
1
1
1
1
1
1
1
1
1
1
1
1
1
1
1
1
1
1
1
1
1
1
1
1
1
1
1
1
1
1
1
1
1
1
1
1
1
1
1
1
1
1
1
1
1
1
1
1
1
1
1
1
1
1
1
1
1
1
1
1
1
1
1
1
1
1
1
1
1
1
1
1
1
1
1
1
1
1
1
1
1
1
1
1
1
1
1
1
1
1
1
1
1
1
1
1
1
1
1
1
1
1
1
1
1
1
1
1
1
1
1
1
1
1
1
1
1
1
1
1
1
1
1
1
1
1
1
1
1
1
1
1
1
1
1
1
1
1
1
1
1
1
1
1
1
1
1
1
1
1
1
1
1
1
1
1
1
1
1
1
1
1
1
1
1
1
1
1
1
1
1
1
1
1
1
1
1
1
1
1
1
1
1
1
1
1
1
1
1
1
1
1
1
1
1
1
1
1
1
1
1
1
1
1
1
1
1
1
1
1
1
1
1
1
1
1
1
1
1
1
1
1
1
1
1
1
1
1
1
1
1
1
1
1
1
1
1
1
1
1
1
1
1
1
1
1
1
1
1
1
1
1
1
1
1
1
1
1
1
1
1
1
1
1
1
1
1
1
1
1
1
1
1
1
1
1
1
1
1
1
1
1
1
1
1
1
1
1
1
1
1
1
1
1
1
1
1
1
1
1
1
1
1
1
1
1
1
1
1
1
1
1
1
1
1
1
1
1
1
1
1
1
1
1
1
1
1
1
1
1
1
1
1
1
1
1
1
1
1
1
1
1
1
1
1
1
1
1
1
1
1
1
1
1
1
1
1
1
1
1
1
1
1
1
1
1
1
1
1
1
1
1
1
1
1
1
1
1
1
1
1
1
1
1
1
1
1
1
1
1
1
1
1
1
1
1
1
1
1
1
1
1
1
1
1
1
1
1
1
1
1
1
1
1
1
1
1
1
1
1
1
1
1
1
1
1
1
1
1
1
1
1
1
1
1
1
1
1
1
1
1
1
1
1
1
1
1
1
1
1
1
1
1
1
1
1
1
1
1
1
1
1
1
1
1
1
1
1
1
1
1
1
1
1
1
1
1
1
1
1
1
1
1
1
1
1
1
1
1
1
1
1
1
1
1
1
1
1
1
1
1
1
1
1
1
1
1
1
1
1
1
1
1
1
1
1
1
1
1
1
1
1
1
1
1
1
1
1
1
1
1
1
1
1
1
1
1
1
1
1
1
1
1
1
1
1
1
1
1
1
1
1
1
1
1
1
1
1
1
1
1
1
1
1
1
1
1
1
1
1
1
1
1
1
1
1
1
1
1
1
1
1
1
1
1
1
1
1
1
1
1
1
1
1
1
1
1
1
1
1
1
1
1
1
1
1
1
1
1
1
1
1
1
1
1
1
1
1
1
1
1
1
1
1
1
1
1
1
1
1
1
1
1
1
1
1
1
1
1
1
1
1
1
1
1
1
1
1
1
1
1
1
1
1
1
1
1
1
1
1
1
1
1
1
1
1
1
1
1
1
1
1
1
1
1
1
1
1
1
1
1
1
1
1
1
1
1
1
1
1
1
1
1
1
1
1
1
1
1
1
1
1
1
1
1
1
1
1
1
1
1
1
1
1
1
1
1
1
1
1
1
1
1
1
1
1
1
1
1
1
1
1
1
1
1
1
1
1.29403
1.74041
2.30749
2.96054
3.51655
4.16688
4.71008
5.06907
5.32988
5.24539
4.95268
4.49681
4.07786
3.75619
3.6507
3.57988
3.55933
3.58675
3.62801
3.6689
3.69465
3.71295
3.72737
3.74169
3.76122
3.77602
3.77931
3.78023
3.77393
3.76599
3.76007
3.7553
3.75349
3.75495
3.76051
3.77267
3.78691
3.79084
3.79022
3.78774
3.78037
3.77206
3.77071
3.77091
3.7722
3.77585
3.77811
3.77754
1.00163
1.02188
1.06664
1.19221
1.42493
1.74929
2.23042
2.73862
3.34368
3.72895
3.92252
4.06089
4.01492
3.93378
3.83486
3.77977
3.72189
3.70268
3.67378
3.66098
3.67133
3.69174
3.7127
3.73114
3.75196
3.77029
3.77702
3.78021
3.77894
3.77474
3.77083
3.76949
3.77006
3.77213
3.7745
3.77711
3.77853
3.7775
3.77503
3.77098
3.76626
3.76475
3.76524
3.76655
3.7698
3.77536
3.7786
3.77955
1
0.999996
1.00002
0.999974
1.00158
1.01222
1.06417
1.2212
1.60394
2.36816
3.29104
3.96543
4.26807
4.30818
4.24482
4.12972
3.9725
3.78919
3.6849
3.64387
3.64647
3.66409
3.68115
3.70015
3.7211
3.74088
3.75647
3.76946
3.77826
3.78186
3.78404
3.78549
3.78548
3.78634
3.78822
3.78827
3.7858
3.78036
3.77386
3.76753
3.76282
3.76141
3.76137
3.76202
3.76494
3.77059
3.77468
3.7777
1
1
1
0.999999
0.999999
0.999981
1.00004
1.00015
1.00508
1.08112
1.39087
2.1827
3.03182
3.91421
4.10124
4.03605
3.9867
3.95507
3.85332
3.75199
3.71092
3.69681
3.67444
3.67604
3.69487
3.71434
3.73104
3.74778
3.75584
3.76151
3.7671
3.77156
3.77398
3.77794
3.78164
3.78176
3.78013
3.77665
3.77233
3.76827
3.76641
3.7661
3.76644
3.76757
3.77078
3.77524
3.77648
3.77864
1
1
1
1
1
0.999999
1
0.999999
1
0.999939
1.00139
1.04742
1.29068
1.96894
2.92632
3.53592
4.04122
4.08833
4.05706
3.95402
3.85022
3.76974
3.71909
3.70343
3.70529
3.72032
3.73296
3.7443
3.74877
3.75336
3.75468
3.75549
3.75619
3.75907
3.76631
3.77004
3.76984
3.76945
3.76835
3.76701
3.76668
3.76783
3.77024
3.77399
3.77895
3.78272
3.78235
3.78351
1
1
1
1
1
1
1
1
1
0.999997
0.999998
0.99995
1.00085
1.02437
1.25692
1.77698
2.74981
3.36424
3.76216
3.90019
3.89753
3.86759
3.81171
3.77515
3.76164
3.74437
3.72867
3.7234
3.72791
3.73788
3.75021
3.75864
3.76491
3.77031
3.7752
3.77627
3.77612
3.77603
3.77493
3.7733
3.77261
3.77313
3.77493
3.77886
3.7828
3.78354
3.77944
3.77746
1
1
1
1
1
1
1
1
1
1
1
0.999997
0.999997
0.999962
1.00086
1.01669
1.17353
1.71276
2.51824
3.33559
3.60856
3.75262
3.80567
3.80432
3.77295
3.71903
3.71005
3.71523
3.7183
3.72187
3.73371
3.75227
3.77237
3.7868
3.78833
3.78584
3.78355
3.78245
3.78091
3.77747
3.77531
3.77409
3.77445
3.77811
3.78006
3.77826
3.77233
3.76815
1
1
1
1
1
1
1
1
1
1
1
1
1
0.999997
0.999998
0.999976
1.00041
1.0177
1.13045
1.62361
2.35703
3.2232
3.62005
3.68303
3.75035
3.7142
3.6906
3.69514
3.69833
3.70141
3.70998
3.7275
3.74919
3.76617
3.77645
3.77749
3.77707
3.77479
3.77111
3.76926
3.76822
3.76753
3.77055
3.77538
3.77745
3.77729
3.7746
3.77164
1
1
1
1
1
1
1
1
1
1
1
1
1
1
1
0.999998
0.999998
0.999982
1.00025
1.01409
1.122
1.51139
2.29598
3.02252
3.59283
3.72449
3.7324
3.73989
3.72892
3.71211
3.70826
3.71346
3.72636
3.73894
3.7508
3.75914
3.76206
3.7628
3.76218
3.76318
3.76489
3.76621
3.77033
3.77537
3.77775
3.77862
3.77717
3.77451
1
1
1
1
1
1
1
1
1
1
1
1
1
1
1
1
1
0.999998
0.999998
0.999983
1.00032
1.00853
1.12771
1.48369
2.25611
2.9385
3.45578
3.70454
3.76091
3.74857
3.74845
3.75322
3.75255
3.75361
3.75628
3.76187
3.76562
3.76583
3.76454
3.76439
3.76637
3.77024
3.77437
3.77536
3.77637
3.77765
3.77662
3.77337
1
1
1
1
1
1
1
1
1
1
1
1
1
1
1
1
1
1
1
0.999998
0.999998
0.999986
1.00054
1.00926
1.10676
1.50856
2.20898
2.98798
3.36278
3.60118
3.71896
3.75233
3.74863
3.75332
3.75526
3.75486
3.76097
3.76625
3.77206
3.77684
3.78193
3.78633
3.78675
3.78522
3.78394
3.78209
3.77863
3.77494
1
1
1
1
1
1
1
1
1
1
1
1
1
1
1
1
1
1
1
1
1
0.999998
0.999998
0.999989
1.00044
1.01323
1.09875
1.51916
2.20359
3.0868
3.44749
3.57255
3.64638
3.69448
3.71328
3.72158
3.7315
3.74597
3.76112
3.7729
3.7776
3.77984
3.78043
3.77999
3.78028
3.78148
3.78073
3.77854
1
1
1
1
1
1
1
1
1
1
1
1
1
1
1
1
1
1
1
1
1
1
1
0.999999
0.999999
0.999993
1.0004
1.01643
1.11968
1.55188
2.3282
3.09571
3.58393
3.66381
3.70095
3.71396
3.71437
3.72532
3.74019
3.75412
3.76183
3.76685
3.77056
3.77114
3.77023
3.771
3.77016
3.76944
1
1
1
1
1
1
1
1
1
1
1
1
1
1
1
1
1
1
1
1
1
1
1
1
1
0.999999
0.999998
1
1.00075
1.01865
1.17763
1.63799
2.47377
3.17733
3.59879
3.74776
3.74943
3.77491
3.78257
3.78013
3.77682
3.77632
3.7758
3.77413
3.77086
3.76632
3.76394
3.76449
1
1
1
1
1
1
1
1
1
1
1
1
1
1
1
1
1
1
1
1
1
1
1
1
1
1
1
1
0.999998
1.00001
1.00191
1.0263
1.2514
1.81559
2.70421
3.25233
3.58191
3.74274
3.77169
3.77767
3.78719
3.78746
3.78452
3.78115
3.77659
3.77388
3.77347
3.77401
1
1
1
1
1
1
1
1
1
1
1
1
1
1
1
1
1
1
1
1
1
1
1
1
1
1
1
1
1
1
0.999997
1.00005
1.00476
1.04821
1.36397
2.06829
3.03677
3.43917
3.57273
3.67205
3.73851
3.75105
3.75452
3.75694
3.76426
3.77187
3.77622
3.77886
1
1
1
1
1
1
1
1
1
1
1
1
1
1
1
1
1
1
1
1
1
1
1
1
1
1
1
1
1
1
1
1
0.999997
1.0002
1.01162
1.10596
1.57699
2.41507
3.26431
3.66428
3.70606
3.72381
3.72363
3.72678
3.73939
3.75505
3.76406
3.76999
1
1
1
1
1
1
1
1
1
1
1
1
1
1
1
1
1
1
1
1
1
1
1
1
1
1
1
1
1
1
1
1
1
0.999999
1.00001
1.001
1.02997
1.2345
1.91515
2.83037
3.48112
3.74629
3.75764
3.779
3.78733
3.78722
3.78119
3.77871
1
1
1
1
1
1
1
1
1
1
1
1
1
1
1
1
1
1
1
1
1
1
1
1
1
1
1
1
1
1
1
1
1
1
1
0.999998
1.00014
1.0047
1.08733
1.5034
2.41507
3.14829
3.54712
3.75113
3.78571
3.78603
3.78904
3.78917
1
1
1
1
1
1
1
1
1
1
1
1
1
1
1
1
1
1
1
1
1
1
1
1
1
1
1
1
1
1
1
1
1
1
1
1
1
1
1.00112
1.02235
1.23551
1.94031
2.99423
3.51674
3.62862
3.68605
3.73192
3.75443
1
1
1
1
1
1
1
1
1
1
1
1
1
1
1
1
1
1
1
1
1
1
1
1
1
1
1
1
1
1
1
1
1
1
1
1
1
1
0.999999
1.00009
1.00725
1.10093
1.60636
2.56471
3.40503
3.70592
3.75333
3.76403
1
1
1
1
1
1
1
1
1
1
1
1
1
1
1
1
1
1
1
1
1
1
1
1
1
1
1
1
1
1
1
1
1
1
1
1
1
1
1
1
1.00002
1.00145
1.04349
1.34309
2.22332
3.1484
3.65692
3.79194
1
1
1
1
1
1
1
1
1
1
1
1
1
1
1
1
1
1
1
1
1
1
1
1
1
1
1
1
1
1
1
1
1
1
1
1
1
1
1
1
1
1
1.00048
1.01309
1.21528
1.92142
3.03685
3.41847
1
1
1
1
1
1
1
1
1
1
1
1
1
1
1
1
1
1
1
1
1
1
1
1
1
1
1
1
1
1
1
1
1
1
1
1
1
1
1
1
1
1
0.999999
1.00007
1.00809
1.09729
1.70211
2.65406
1
1
1
1
1
1
1
1
1
1
1
1
1
1
1
1
1
1
1
1
1
1
1
1
1
1
1
1
1
1
1
1
1
1
1
1
1
1
1
1
1
1
1
1
1.00003
1.0018
1.07007
1.43824
1
1
1
1
1
1
1
1
1
1
1
1
1
1
1
1
1
1
1
1
1
1
1
1
1
1
1
1
1
1
1
1
1
1
1
1
1
1
1
1
1
1
1
1
1
1
1.0017
1.01975
1
1
1
1
1
1
1
1
1
1
1
1
1
1
1
1
1
1
1
1
1
1
1
1
1
1
1
1
1
1
1
1
1
1
1
1
1
1
1
1
1
1
1
1
1
1
1.00002
0.999862
1
1
1
1
1
1
1
1
1
1
1
1
1
1
1
1
1
1
1
1
1
1
1
1
1
1
1
1
1
1
1
1
1
1
1
1
1
1
1
1
1
1
1
1
1
1
1
0.999955
1
1
1
1
1
1
1
1
1
1
1
1
1
1
1
1
1
1
1
1
1
1
1
1
1
1
1
1
1
1
1
1
1
1
1
1
1
1
1
1
1
1
1
1
1
1
1
0.999992
1
1
1
1
1
1
1
1
1
1
1
1
1
1
1
1
1
1
1
1
1
1
1
1
1
1
1
1
1
1
1
1
1
1
1
1
1
1
1
1
1
1
1
1
1
1
1
1
1
1
1
1
1
1
1
1
1
1
1
1
1
1
1
1
1
1
1
1
1
1
1
1
1
1
1
1
1
1
1
1
1
1
1
1
1
1
1
1
1
1
1
1
1
1
1
1
1
1
1
1
1
1
1
1
1
1
1
1
1
1
1
1
1
1
1
1
1
1
1
1
1
1
1
1
1
1
1
1
1
1
1
1
1
1
1
1
1
1
1
1
1
1
1
1
1
1
1
1
1
1
1
1
1
1
1
1
1
1
1
1
1
1
1
1
1
1
1
1
1
1
1
1
1
1
1
1
1
1
1
1
1
1
1
1
1
1
1
1
1
1
1
1
1
1
1
1
1
1
1
1
1
1
1
1
1
1
1
1
1
1
1
1
1
1
1
1
1
1
1
1
1
1
1
1
1
1
1
1
1
1
1
1
1
1
1
1
1
1
1
1
1
1
1
1
1
1
1
1
1
1
1
1
1
1
1
1
1
1
1
1
1
1
1
1
1
1
1
1
1
1
1
1
1
1
1
1
1
1
1
1
1
1
1
1
1
1
1
1
1
1
1
1
1
1
1
1
1
1
1
1
1
1
1
1
1
1
1
1
1
1
1
1
1
1
1
1
1
1
1
1
1
1
1
1
1
1
1
1
1
1
1
1
1
1
1
0.999992
1
1
1
1
1
1
1
1
1
1
1
1
1
1
1
1
1
1
1
1
1
1
1
1
1
1
1
1
1
1
1
1
1
1
1
1
1
1
1
1
1
1
1
1
1
1
1
0.999955
1
1
1
1
1
1
1
1
1
1
1
1
1
1
1
1
1
1
1
1
1
1
1
1
1
1
1
1
1
1
1
1
1
1
1
1
1
1
1
1
1
1
1
1
1
1
1.00002
0.999861
1
1
1
1
1
1
1
1
1
1
1
1
1
1
1
1
1
1
1
1
1
1
1
1
1
1
1
1
1
1
1
1
1
1
1
1
1
1
1
1
1
1
1
1
1
1
1.0017
1.01987
1
1
1
1
1
1
1
1
1
1
1
1
1
1
1
1
1
1
1
1
1
1
1
1
1
1
1
1
1
1
1
1
1
1
1
1
1
1
1
1
1
1
1
1
1.00003
1.0018
1.0699
1.4403
1
1
1
1
1
1
1
1
1
1
1
1
1
1
1
1
1
1
1
1
1
1
1
1
1
1
1
1
1
1
1
1
1
1
1
1
1
1
1
1
1
1
0.999999
1.00007
1.00809
1.0972
1.70251
2.65584
1
1
1
1
1
1
1
1
1
1
1
1
1
1
1
1
1
1
1
1
1
1
1
1
1
1
1
1
1
1
1
1
1
1
1
1
1
1
1
1
1
1
1.00048
1.01309
1.21535
1.92058
3.03933
3.41836
1
1
1
1
1
1
1
1
1
1
1
1
1
1
1
1
1
1
1
1
1
1
1
1
1
1
1
1
1
1
1
1
1
1
1
1
1
1
1
1
1.00002
1.00145
1.04349
1.34314
2.22305
3.14843
3.65767
3.79144
1
1
1
1
1
1
1
1
1
1
1
1
1
1
1
1
1
1
1
1
1
1
1
1
1
1
1
1
1
1
1
1
1
1
1
1
1
1
0.999999
1.00009
1.00725
1.10092
1.60635
2.5648
3.40483
3.70613
3.75338
3.76393
1
1
1
1
1
1
1
1
1
1
1
1
1
1
1
1
1
1
1
1
1
1
1
1
1
1
1
1
1
1
1
1
1
1
1
1
1
1
1.00112
1.02235
1.23551
1.9403
2.99424
3.51667
3.62863
3.68609
3.73195
3.75438
1
1
1
1
1
1
1
1
1
1
1
1
1
1
1
1
1
1
1
1
1
1
1
1
1
1
1
1
1
1
1
1
1
1
1
0.999998
1.00014
1.0047
1.08733
1.5034
2.41506
3.14832
3.5471
3.7511
3.78573
3.78604
3.78905
3.78915
1
1
1
1
1
1
1
1
1
1
1
1
1
1
1
1
1
1
1
1
1
1
1
1
1
1
1
1
1
1
1
1
1
0.999999
1.00001
1.001
1.02997
1.2345
1.91515
2.83037
3.48111
3.7463
3.75764
3.77898
3.78734
3.78723
3.7812
3.7787
1
1
1
1
1
1
1
1
1
1
1
1
1
1
1
1
1
1
1
1
1
1
1
1
1
1
1
1
1
1
1
1
0.999997
1.0002
1.01162
1.10596
1.57699
2.41507
3.26432
3.66429
3.70605
3.72382
3.72363
3.72678
3.73939
3.75506
3.76405
3.76999
1
1
1
1
1
1
1
1
1
1
1
1
1
1
1
1
1
1
1
1
1
1
1
1
1
1
1
1
1
1
0.999997
1.00005
1.00476
1.04821
1.36397
2.06829
3.03677
3.43917
3.57274
3.67205
3.7385
3.75105
3.75452
3.75694
3.76426
3.77187
3.77621
3.77886
1
1
1
1
1
1
1
1
1
1
1
1
1
1
1
1
1
1
1
1
1
1
1
1
1
1
1
1
0.999998
1.00001
1.00191
1.0263
1.2514
1.81559
2.70421
3.25233
3.58191
3.74273
3.77169
3.77767
3.78719
3.78746
3.78452
3.78115
3.77659
3.77388
3.77347
3.77401
1
1
1
1
1
1
1
1
1
1
1
1
1
1
1
1
1
1
1
1
1
1
1
1
1
0.999999
0.999998
1
1.00075
1.01865
1.17763
1.63799
2.47377
3.17733
3.59879
3.74776
3.74943
3.77491
3.78257
3.78013
3.77682
3.77632
3.7758
3.77413
3.77086
3.76632
3.76394
3.76449
1
1
1
1
1
1
1
1
1
1
1
1
1
1
1
1
1
1
1
1
1
1
1
0.999999
0.999999
0.999993
1.0004
1.01643
1.11968
1.55188
2.3282
3.09571
3.58393
3.66381
3.70096
3.71396
3.71437
3.72532
3.74019
3.75412
3.76183
3.76685
3.77056
3.77114
3.77023
3.771
3.77016
3.76944
1
1
1
1
1
1
1
1
1
1
1
1
1
1
1
1
1
1
1
1
1
0.999998
0.999998
0.999989
1.00044
1.01323
1.09875
1.51916
2.20359
3.0868
3.44749
3.57255
3.64638
3.69448
3.71328
3.72158
3.7315
3.74597
3.76112
3.7729
3.7776
3.77984
3.78043
3.77999
3.78028
3.78148
3.78073
3.77854
1
1
1
1
1
1
1
1
1
1
1
1
1
1
1
1
1
1
1
0.999998
0.999998
0.999986
1.00054
1.00926
1.10676
1.50856
2.20898
2.98798
3.36278
3.60118
3.71896
3.75233
3.74863
3.75332
3.75526
3.75486
3.76097
3.76625
3.77206
3.77684
3.78193
3.78633
3.78675
3.78522
3.78394
3.78209
3.77863
3.77494
1
1
1
1
1
1
1
1
1
1
1
1
1
1
1
1
1
0.999998
0.999998
0.999983
1.00032
1.00853
1.12771
1.48369
2.25611
2.9385
3.45578
3.70454
3.76091
3.74857
3.74845
3.75322
3.75255
3.75361
3.75628
3.76187
3.76562
3.76583
3.76454
3.76439
3.76637
3.77024
3.77437
3.77536
3.77637
3.77765
3.77662
3.77337
1
1
1
1
1
1
1
1
1
1
1
1
1
1
1
0.999998
0.999998
0.999982
1.00025
1.01409
1.122
1.51139
2.29598
3.02252
3.59283
3.72449
3.7324
3.73989
3.72892
3.71211
3.70826
3.71346
3.72636
3.73894
3.7508
3.75914
3.76206
3.7628
3.76218
3.76318
3.76489
3.76621
3.77033
3.77537
3.77775
3.77862
3.77717
3.77451
1
1
1
1
1
1
1
1
1
1
1
1
1
0.999997
0.999998
0.999976
1.00041
1.0177
1.13045
1.62361
2.35703
3.2232
3.62005
3.68303
3.75035
3.7142
3.6906
3.69514
3.69833
3.70141
3.70998
3.7275
3.74919
3.76617
3.77645
3.77749
3.77707
3.77479
3.77111
3.76926
3.76822
3.76753
3.77055
3.77538
3.77745
3.77729
3.7746
3.77164
1
1
1
1
1
1
1
1
1
1
1
0.999997
0.999997
0.999962
1.00086
1.01669
1.17353
1.71276
2.51824
3.33559
3.60856
3.75262
3.80567
3.80432
3.77295
3.71903
3.71005
3.71523
3.7183
3.72187
3.73371
3.75227
3.77237
3.7868
3.78833
3.78584
3.78355
3.78245
3.78091
3.77747
3.77531
3.77409
3.77445
3.77811
3.78006
3.77826
3.77233
3.76815
1
1
1
1
1
1
1
1
1
0.999997
0.999998
0.99995
1.00085
1.02437
1.25692
1.77698
2.74981
3.36424
3.76216
3.90019
3.89753
3.86759
3.81171
3.77515
3.76164
3.74437
3.72867
3.7234
3.72791
3.73788
3.75021
3.75864
3.76491
3.77031
3.7752
3.77627
3.77612
3.77603
3.77493
3.7733
3.77261
3.77313
3.77493
3.77886
3.7828
3.78354
3.77944
3.77746
1
1
1
1
1
0.999999
1
0.999999
1
0.999939
1.00139
1.04742
1.29068
1.96894
2.92632
3.53591
4.04121
4.08833
4.05706
3.95402
3.85022
3.76974
3.71909
3.70343
3.70529
3.72032
3.73296
3.7443
3.74877
3.75336
3.75468
3.75549
3.75619
3.75907
3.76631
3.77004
3.76984
3.76945
3.76835
3.76701
3.76668
3.76783
3.77024
3.77399
3.77895
3.78272
3.78235
3.78351
1
1
1
0.999999
0.999999
0.999981
1.00004
1.00015
1.00508
1.08112
1.39087
2.1827
3.03182
3.9142
4.10124
4.03606
3.9867
3.95507
3.85332
3.75199
3.71092
3.69681
3.67444
3.67604
3.69487
3.71434
3.73104
3.74778
3.75584
3.76151
3.7671
3.77156
3.77398
3.77794
3.78164
3.78176
3.78013
3.77665
3.77233
3.76827
3.76641
3.7661
3.76644
3.76757
3.77078
3.77524
3.77648
3.77864
1
0.999996
1.00002
0.999974
1.00158
1.01222
1.06417
1.2212
1.60394
2.36816
3.29104
3.96543
4.26807
4.30818
4.24482
4.12972
3.9725
3.78919
3.6849
3.64387
3.64647
3.66409
3.68115
3.70015
3.72109
3.74088
3.75647
3.76946
3.77826
3.78186
3.78404
3.78549
3.78548
3.78634
3.78822
3.78827
3.7858
3.78036
3.77386
3.76753
3.76282
3.76141
3.76137
3.76202
3.76494
3.77059
3.77468
3.7777
1.00163
1.02188
1.06664
1.19221
1.42493
1.74929
2.23042
2.73862
3.34368
3.72895
3.92252
4.06089
4.01492
3.93378
3.83486
3.77977
3.72189
3.70268
3.67378
3.66098
3.67133
3.69174
3.7127
3.73114
3.75196
3.77029
3.77702
3.78021
3.77894
3.77474
3.77083
3.76949
3.77006
3.77213
3.7745
3.77711
3.77853
3.7775
3.77503
3.77098
3.76626
3.76475
3.76524
3.76655
3.7698
3.77536
3.7786
3.77955
1.29403
1.74041
2.30748
2.96054
3.51655
4.16688
4.71008
5.06907
5.32988
5.24539
4.95268
4.49681
4.07786
3.75619
3.6507
3.57988
3.55933
3.58675
3.628
3.6689
3.69465
3.71295
3.72737
3.74169
3.76122
3.77602
3.77931
3.78023
3.77393
3.76599
3.76007
3.7553
3.75349
3.75495
3.76051
3.77267
3.78691
3.79084
3.79022
3.78774
3.78037
3.77206
3.77071
3.77091
3.7722
3.77585
3.77811
3.77754
2.65295
1.69731
1.18621
0.836734
0.634237
0.642091
0.712873
0.733996
0.76001
0.845564
0.957954
0.974524
0.977784
1.00844
1.033
1.03982
1.04884
1.07457
1.0817
1.07844
1.06979
1.06607
1.06281
1.05126
1.04793
1.0522
1.05569
1.05425
1.04955
1.04355
1.03797
1.03703
1.03732
1.03892
1.0417
1.04388
1.0449
1.04519
1.04501
1.04518
1.04622
1.04908
1.05167
1.05201
1.0519
1.05106
1.04831
1.04607
1.05683
1.23238
1.75154
3.1314
5.24929
7.77574
10.3156
10.2498
9.39378
8.39255
7.99153
7.80311
7.64684
7.5067
7.44925
7.3908
7.2692
7.08015
6.76353
6.41024
6.2557
6.18613
6.15948
6.16128
6.09594
5.99877
5.85141
5.56678
5.26964
5.16144
5.10791
5.08726
5.0953
5.04976
4.98491
4.86501
4.65456
4.51953
4.47159
4.42623
4.3756
4.31546
4.23486
4.09769
3.94082
3.87293
3.84228
3.81883
3.80069
3.77177
3.73482
3.66216
3.52317
3.39663
3.33135
3.29125
3.2617
3.23829
3.21425
3.17941
3.11905
3.03522
2.97398
2.93752
2.90548
2.86912
2.81607
2.73391
2.67088
2.64667
2.62856
2.61165
2.59596
2.57811
2.554
2.50898
2.42009
2.32912
2.29359
2.27786
2.26552
2.25695
2.25538
2.2458
2.22753
2.1964
2.135
2.05825
2.01705
1.99493
1.97587
1.96045
1.94829
1.933
1.92217
1.90663
1.91792
2.00327
2.28227
2.87554
3.70264
4.43508
5.0744
5.58597
5.66442
5.5596
5.39366
5.22465
5.11393
5.04539
4.9894
4.95661
4.93617
4.90704
4.86761
4.81285
4.72385
4.61858
4.5753
4.55431
4.53852
4.52098
4.49663
4.46793
4.41976
4.34174
4.29042
4.2644
4.24163
4.21889
4.19317
4.15403
4.07404
3.97767
3.93993
3.92121
3.90476
3.89804
3.89915
3.88499
3.86422
3.83786
3.79307
3.68334
3.38766
2.71805
2.19182
1.83068
1.41485
1.23226
1.15587
1.03522
0.973651
0.976334
0.952532
0.914425
0.912465
0.929134
0.9634
0.984252
0.997312
1.02573
1.03869
1.03567
1.03303
1.03835
1.04519
1.04516
1.04795
1.05674
1.05882
1.05678
1.0519
1.04717
1.04413
1.04353
1.04303
1.04403
1.04616
1.04676
1.0469
1.04661
1.04613
1.04618
1.04667
1.0483
1.0495
1.04967
1.04922
1.04731
1.04591
1.05629
1.24426
1.96813
2.75766
3.2359
3.95352
4.77888
6.65175
8.09254
8.65053
8.46131
8.18912
7.87598
7.64681
7.5223
7.4472
7.37151
7.24068
7.07554
6.83339
6.53378
6.30199
6.17514
6.10464
6.06528
6.0302
5.95072
5.83456
5.63958
5.38635
5.22032
5.15313
5.10509
5.06398
5.01423
4.94668
4.85412
4.70093
4.5369
4.45261
4.41052
4.37458
4.32714
4.25543
4.14731
4.01188
3.90747
3.84983
3.81475
3.78314
3.75194
3.70895
3.63391
3.52487
3.42238
3.3604
3.31892
3.27828
3.23921
3.21198
3.18675
3.13908
3.06394
3.0031
2.96463
2.93084
2.89182
2.83765
2.7636
2.70505
2.67707
2.65743
2.63665
2.61583
2.59463
2.56829
2.52339
2.44101
2.35249
2.31014
2.2888
2.27251
2.25962
2.24646
2.23478
2.21977
2.19836
2.149
2.07149
2.03099
2.01752
2.0006
1.98309
1.96911
1.95662
1.95508
1.98661
2.11231
2.40836
2.7991
3.13484
3.44581
3.88536
4.27941
4.72355
4.99357
5.16912
5.26503
5.24468
5.18443
5.09558
5.02778
4.98959
4.96539
4.92453
4.87161
4.81395
4.74166
4.65
4.59312
4.57224
4.55209
4.5313
4.50702
4.47644
4.4318
4.36405
4.30802
4.27838
4.25599
4.23151
4.20278
4.16066
4.08605
3.99372
3.95127
3.93553
3.92531
3.91915
3.91601
3.89855
3.87701
3.84821
3.8006
3.69429
3.66659
3.34125
2.84048
2.40196
1.98081
1.6369
1.44501
1.27002
1.06966
1.02099
0.984891
0.925131
0.919322
0.929441
0.945658
0.951021
0.957501
0.978581
0.999267
1.00514
1.01054
1.02108
1.03273
1.03653
1.04349
1.05374
1.05735
1.05738
1.05511
1.05088
1.04852
1.0479
1.04774
1.04865
1.04846
1.0476
1.04609
1.04432
1.04382
1.04383
1.04472
1.04729
1.04879
1.04889
1.0472
1.04864
1.06894
1.24293
2.13175
2.94219
3.36622
3.46272
3.48104
3.52946
4.08367
5.87824
7.8831
8.64222
8.46059
7.99409
7.6347
7.50532
7.38998
7.23746
7.10035
6.9856
6.85962
6.66652
6.43085
6.20892
6.06074
5.97934
5.91027
5.8297
5.73329
5.63404
5.50726
5.34719
5.20934
5.1314
5.06127
4.98169
4.88782
4.78461
4.67619
4.56349
4.46369
4.3877
4.32926
4.27132
4.20461
4.12549
4.04586
3.9564
3.87221
3.82418
3.78183
3.72587
3.65229
3.56416
3.47752
3.41444
3.37112
3.33373
3.29926
3.26578
3.22032
3.15839
3.09142
3.0287
2.98009
2.94009
2.90091
2.86038
2.8116
2.76013
2.70965
2.65579
2.62267
2.60351
2.5816
2.55723
2.52858
2.48416
2.41183
2.35436
2.33276
2.31717
2.29754
2.27558
2.25319
2.23019
2.20419
2.16927
2.12002
2.06798
2.04089
2.01689
1.99236
1.97627
1.96956
1.98043
2.02984
2.22884
2.63209
2.96797
3.21931
3.27325
3.29279
3.37014
3.56243
3.90426
4.43599
4.88589
5.14013
5.28138
5.24679
5.15713
5.02156
4.9692
4.94625
4.89819
4.83919
4.78956
4.74922
4.69511
4.61027
4.53629
4.50558
4.48452
4.46712
4.44397
4.40956
4.37268
4.33415
4.28537
4.23756
4.20041
4.165
4.12061
4.06176
4.00998
3.97017
3.93256
3.90916
3.89551
3.88393
3.86615
3.84497
3.81567
3.77148
3.68536
3.7563
3.62726
3.31119
2.91338
2.50696
2.10294
1.83767
1.62778
1.3756
1.25855
1.19433
1.08393
1.0142
1.01444
0.993603
0.958666
0.950667
0.95188
0.947507
0.948131
0.953906
0.97067
0.999582
1.02118
1.03416
1.04555
1.04894
1.05032
1.04942
1.04653
1.04738
1.05158
1.05646
1.05736
1.05653
1.05434
1.05035
1.04691
1.04656
1.04713
1.04888
1.0497
1.04924
1.04936
1.05381
1.11107
1.35455
2.0973
3.20932
3.39553
3.46989
3.50193
3.48971
3.36294
3.31281
3.61237
4.96878
7.17647
7.98006
7.90438
7.77157
7.59686
7.3615
7.1109
6.99251
6.93621
6.85184
6.73378
6.54169
6.30449
6.07877
5.91539
5.82248
5.74191
5.67564
5.61723
5.56026
5.46052
5.30427
5.13834
5.02209
4.925
4.82832
4.74765
4.68837
4.62203
4.51502
4.38006
4.28441
4.23017
4.18936
4.15382
4.11009
4.04348
3.95108
3.8388
3.74155
3.65923
3.58171
3.51885
3.47319
3.43666
3.39464
3.34585
3.30081
3.25381
3.18828
3.1125
3.05582
3.01615
2.98011
2.94084
2.89504
2.84971
2.81642
2.78169
2.73387
2.66952
2.6147
2.59491
2.5806
2.55891
2.51801
2.45202
2.39544
2.37076
2.34995
2.31933
2.28271
2.25393
2.23266
2.2101
2.18116
2.14421
2.11063
2.08778
2.06009
2.02723
2.00606
1.99461
2.0126
2.14294
2.41412
2.84486
3.17862
3.32976
3.38493
3.37304
3.33495
3.28188
3.28075
3.35137
3.62753
4.11509
4.58526
5.03215
5.10384
5.08497
5.05298
5.00339
4.94097
4.87148
4.83463
4.815
4.79192
4.7419
4.64133
4.54157
4.49177
4.4686
4.44845
4.43362
4.41975
4.39557
4.36061
4.30943
4.24781
4.19141
4.13938
4.09435
4.06588
4.04116
4.00519
3.95756
3.91401
3.8929
3.87691
3.85965
3.83769
3.80316
3.75784
3.69157
3.77258
3.74063
3.587
3.31155
2.95458
2.54296
2.24221
1.99232
1.69293
1.51639
1.40972
1.27839
1.14997
1.10627
1.05572
0.985841
0.960518
0.958897
0.944912
0.941085
0.94741
0.957919
0.973853
0.996168
1.01088
1.02058
1.02649
1.03077
1.03585
1.03799
1.0393
1.04801
1.0546
1.05501
1.054
1.0517
1.05022
1.05001
1.05128
1.05463
1.0566
1.05585
1.05311
1.05577
1.13945
1.63306
2.3094
3.15483
3.5248
3.51641
3.47111
3.46314
3.46406
3.38906
3.25853
3.2
3.32469
4.29131
6.15927
7.56552
7.84934
7.68555
7.32227
7.03815
6.9306
6.87375
6.79305
6.67624
6.55261
6.3836
6.15062
5.9122
5.76684
5.68899
5.63053
5.58397
5.5165
5.44924
5.3456
5.15437
4.97515
4.87655
4.80491
4.74209
4.67855
4.6041
4.49827
4.34869
4.25197
4.20635
4.16645
4.12589
4.0849
4.03739
3.95804
3.8121
3.67517
3.60561
3.55872
3.51843
3.48458
3.45366
3.42049
3.38818
3.32828
3.23173
3.14369
3.08399
3.03969
3.00034
2.96303
2.92574
2.8857
2.84168
2.79423
2.75343
2.71778
2.67892
2.63542
2.58996
2.55627
2.52675
2.48635
2.43454
2.40031
2.38141
2.3593
2.32943
2.29109
2.25459
2.23073
2.20458
2.16814
2.12674
2.09287
2.07107
2.05433
2.03991
2.04238
2.08574
2.27788
2.68089
3.06217
3.36036
3.4568
3.4547
3.42601
3.3712
3.31373
3.26431
3.24827
3.24414
3.27527
3.44008
3.79432
4.3166
4.82297
5.01592
5.05839
4.99236
4.90222
4.85821
4.83892
4.81444
4.78144
4.73038
4.6582
4.56746
4.49914
4.46391
4.44233
4.42119
4.3994
4.37089
4.33734
4.29104
4.23064
4.16827
4.1207
4.08877
4.06106
4.03241
4.00124
3.96705
3.92604
3.88708
3.86672
3.84816
3.82171
3.77866
3.7319
3.67693
3.77543
3.75961
3.71209
3.56166
3.31198
2.94692
2.61931
2.34915
2.05619
1.83347
1.6825
1.52145
1.36466
1.2884
1.22056
1.11936
1.06378
1.04386
1.00495
0.97537
0.977583
0.97904
0.970448
0.969167
0.974329
0.977237
0.982156
0.991858
1.00526
1.01928
1.02836
1.04217
1.05003
1.05095
1.05083
1.04938
1.04853
1.0498
1.05423
1.05844
1.05846
1.05731
1.06136
1.14096
1.77673
2.70244
3.21653
3.51107
3.55364
3.52218
3.45116
3.39409
3.38142
3.36032
3.28305
3.16585
3.09412
3.14206
3.71772
5.28831
6.97522
7.38405
7.28963
7.12069
6.95402
6.8042
6.68844
6.6075
6.52191
6.41135
6.22333
5.96172
5.76083
5.66398
5.59384
5.53845
5.47879
5.40444
5.30576
5.1498
4.96199
4.85301
4.79597
4.74262
4.68535
4.6136
4.5009
4.34467
4.23445
4.18333
4.14431
4.11468
4.08407
4.03991
3.95288
3.78701
3.64125
3.58617
3.5584
3.54859
3.54319
3.50971
3.46725
3.39667
3.28614
3.17488
3.11016
3.06758
3.03136
2.99691
2.96117
2.92315
2.88329
2.83253
2.78067
2.74565
2.71964
2.69319
2.65434
2.58773
2.5189
2.48212
2.46113
2.44639
2.43117
2.41332
2.39178
2.36438
2.32813
2.28406
2.23406
2.18314
2.13893
2.1087
2.08603
2.07038
2.06843
2.09253
2.20194
2.46664
2.95066
3.29065
3.43714
3.50822
3.50179
3.47405
3.43734
3.37248
3.29925
3.27212
3.25708
3.2409
3.23667
3.247
3.30861
3.50427
3.94978
4.44241
4.77932
4.83014
4.88118
4.90687
4.89293
4.84475
4.77991
4.72106
4.66333
4.59029
4.51988
4.4703
4.44069
4.42033
4.40124
4.37377
4.33626
4.28507
4.21522
4.14612
4.10635
4.08293
4.06094
4.03767
4.01191
3.98028
3.94051
3.89842
3.85594
3.8167
3.77802
3.73984
3.71517
3.68015
3.76536
3.75971
3.73572
3.67624
3.52821
3.26537
2.98206
2.68499
2.37301
2.15219
1.96649
1.7793
1.60696
1.4926
1.39059
1.26576
1.18542
1.14302
1.09229
1.0203
1.00631
0.999749
0.978691
0.973945
0.977766
0.974842
0.970638
0.971991
0.978092
0.993316
1.01086
1.02439
1.03373