/*--------------------------------*- C++ -*----------------------------------*\
  =========                 |
  \\      /  F ield         | OpenFOAM: The Open Source CFD Toolbox
   \\    /   O peration     | Website:  https://openfoam.org
    \\  /    A nd           | Version:  7
     \\/     M anipulation  |
\*---------------------------------------------------------------------------*/
FoamFile
{
    version     2.0;
    format      ascii;
    class       volScalarField;
    location    "4";
    object      T;
}
// * * * * * * * * * * * * * * * * * * * * * * * * * * * * * * * * * * * * * //

dimensions      [0 0 0 1 0 0 0];

internalField   nonuniform List<scalar> 
18432
(
1
1
1
1
1
1
1
1
1
1
1
1
1
1
1
1
1
1
1
1
1
1
1
1
1
1
1
1
1
1
1
1
1
1
1
1
1
1
1
1
1
1
1
1
1
1
1
1
1
1
1
1
1
1
1
1
1
1
1
1
1
1
1
1
1
1
1
1
1
1
1
1
1
1
1
1
1
1
1
1
1
1
1
1
1
1
1
1
1
1
1
1
1
1
1
1
1
1
1
1
1
1
1
1
1
1
1
1
1
1
1
1
1
1
1
1
1
1
1
1
1
1
1
1
1
1
1
1
1
1
1
1
1
1
1
1
1
1
1
1
1
1
1
1
1
1
1
1
1
1
1
1
1
1
1
1
1
1
1
1
1
1
1
1
1
1
1
1
1
1
1
1
1
1
1
1
1
1
1
1
1
1
1
1
1
1
1
1
1
1
1
1
1
1
1
1
1
1
1
1
1
1
1
1
1
1
1
1
1
1
1
1
1
1
1
1
1
1
1
1
1
1
1
1
1
1
1
1
1
1
1
1
1
1
1
1
1
1
1
1
1
1
1
1
1
1
1
1
1
1
1
1
1
1
1
1
1
1
1
1
1
1
1
1
1
1
1
1
1
1
1
1
1
1
1
1
1
1
1
1
1
1
1
1
1
1
1
1
1
1
1
1
1
1
1
1
1
1
1
1
1
1
1
1
1
1
1
1
1
1
1
1
1
1
1
1
1
1
1
1
1
1
1
1
1
1
1
1
1
1
1
1
1
1
1
1
1
1
1
1
1
1
1
1
1
1
1
1
1
1
1
1
1
1
1
1
1
1
1
1
1
1
1
1
1
1
1
1
1
1
1
1
1
1
1
1
1
1
1
1
1
1
1
1
1
1
1
1
1
1
1
1
1
1
1
1
1
1
1
1
1
1
1
1
1
1
1
1
1
1
1
1
1
1
1
1
1
1
1
1
1
1
1
1
1
1
1
1
1
1
1
1
1
1
1
1
1
1
1
1
1
1
1
1
1
1
1
1
1
1
1
1
1
1
1
1
1
1
1
1
1
1
1
1
1
1
1
1
1
1
1
1
1
1
1
1
1
1
1
1
1
1
1
1
1
1
1
1
1
1
1
1
1
1
1
1
1
1
1
1
1
1
1
1
1
1
1
1
1
1
1
1
1
1
1
1
1
1
1
1
1
1
1
1
1
1
1
1
1
1
1
1
1
1
1
1
1
1
1
1
1
1
1
1
1
1
1
1
1
1
1
1
1
1
1
1
1
1
1
1
1
1
1
1
1
1
1
1
1
1
1
1
1
1
1
1
1
1
1
1
1
1
1
1
1
1
1
1
1
1
1
1
1
1
1
1
1
1
1
1
1
1
1
1
1
1
1
1
1
1
1
1
1
1
1
1
1
1
1
1
1
1
1
1
1
1
1
1
1
1
1
1
1
1
1
1
1
1
1
1
1
1
1
1
1
1
1
1
1
1
1
1
1
1
1
1
1
1
1
1
1
1
1
1
1
1
1
1
1
1
1
1
1
1
1
1
1
1
1
1
1
1
1
1
1
1
1
1
1
1
1
1
1
1
1
1
1
1
1
1
1
1
1
1
1
1
1
1
1
1
1
1
1
1
1
1
1
1
1
1
1
1
1
1
1
1
1
1
1
1
1
1
1
1
1
1
1
1
1
1
1
1
1
1
1
1
1
1
1
1
1
1
1
1
1
1
1
1
1
1
1
1
1
1
1
1
1
1
1
1
1
1
1
1
1
1
1
1
1
1
1
1
1
1
1
1
1
1
1
1
1
1
1
1
1
1
1
1
1
1
1
1
1
1
1
1
1
1
1
1
1
1
1
1
1
1
1
1
1
1
1
1
1
1
1
1
1
1
1
1
1
1
1
1
1
1
1
1
1
1
1
1
1
1
1
1
1
1
1
1
1
1
1
1
1
1
1
1
1
1
1
1
1
1
1
1
1
1
1
1
1
1
1
1
1
1
1
1
1
1
1
1
1
1
1
1
1
1
1
1
1
1
1
1
1
1
1
1
1
1
1
1
1
1
1
1
1
1
1
1
1
1
1
1
1
1
1
1
1
1
1
1
1
1
1
1
1
1
1
1
1
1
1
1
1
1
1
1
1
1
1
1
1
1
1
1
1
1
1
1
1
1
1
1
1
1
1
1
1
1
1
1
1
1
1
1
1
1
1
1
1
1
1
1
1
1
1
1
1
1
1
1
1
1
1
1
1
1
1
1
1
1
1
1
1
1
1
1
1
1
1
1
1
1
1
1
1
1
1
1
1
1
1
1
1
1
1
1
1
1
1
1
1
1
1
1
1
1
1
1
1
1
1
1
1
1
1
1
1
1
1
1
1
1
1
1
1
1
1
1
1
1
1
1
1
1
1
1
1
1
1
1
1
1
1
1
1
1
1
1
1
1
1
1
1
1
1
1
1
1
1
1
1
1
1
1
1
1
1
1
1
1
1
1
1
1
1
1
1
1
1
1
1
1
1
1
1
1
1
1
1
1
1
1
1
1
1
1
1
1
1
1
1
1
1
1
1
1
1
1
1
1
1
1
1
1
1
1
1
1
1
1
1
1
1
1
1
1
1
1
1
1
1
1
1
1
1
1
1
1
1
1
1
1
1
1
1
1
1
1
1
1
1
1
1
1
1
1
1
1
1
1
1
1
1
1
1
1
1
1
1
1
1
1
1
1
1
1
1
1
1
1
1
1
1
1
1
1
1
1
1
1
1
1
1
1
1
1
1
1
1
1
1
1
1
1
1
1
1
1
1
1
1
1
1
1
1
1
1
1
1
1
1
1
1
1
1
1
1
1
1
1
1
1
1
1
1
1
1
1
1
1
1
1
1
1
1
1
1
1
1
1
1
1
1
1
1
1
1
1
1
1
1
1
1
1
1
1
1
1
1
1
1
1
1
1
1
1
1
1
1
1
1
1
1
1
1
1
1
1
1
1
1
1
1
1
1
1
1
1
1
1
1
1
1
1
1
1
1
1
1
1
1
1
1
1
1
1
1
1
1
1
1
1
1
1
1
1
1
1
1
1
1
1
1
1
1
1
1
1
1
1
1
1
1
1
1
1
1
1
1
1
1
1
1
1
1
1
1
1
1
1
1
1
1
1
1
1
1
1
1
1
1
1
1
1
1
1
1
1
1
1
1
1
1
1
1
1
1
1
1
1
1
1
1
1
1
1
1
1
1
1
1
1
1
1
1
1
1
1
1
1
1
1
1
1
1
1
1
1
1
1
1
1
1
1
1
1
1
1
1
1
1
1
1
1
1
1
1
1
1
1
1
1
1
1
1
1
1
1
1
1
1
1
1
1
1
1
1
1
1
1
1
1
1
1
1
1
1
1
1
1
1
1
1
1
1
1
1
1
1
1
1
1
1
1
1
1
1
1
1
1
1
1
1
1
1
1
1
1
1
1
1
1
1
1
1
1
1
1
1
1
1
1
1
1
1
1
1
1
1
1
1
1
1
1
1
1
1
1
1
1
1
1
1
1
1
1
1
1
1
1
1
1
1
1
1
1
1
1
1
1
1
1
1
1
1
1
1
1
1
1
1
1
1
1
1
1
1
1
1
1
1
1
1
1
1
1
1
1
1
1
1
1
1
1
1
1
1
1
1
1
1
1
1
1
1
1
1
1
1
1
1
1
1
1
1
1
1
1
1
1
1
1
1
1
1
1
1
1
1
1
1
1
1
1
1
1
1
1
1
1
1
1
1
1
1
1
1
1
1
1
1
1
1
1
1
1
1
1
1
1
1
1
1
1
1
1
1
1
1
1
1
1
1
1
1
1
1
1
1
1
1
1
1
1
1
1
1
1
1
1
1
1
1
1
1
1
1
1
1
1
1
1
1
1
1
1
1
1
1
1
1
1
1
1
1
1
1
1
1
1
1
1
1
1
1
1
1
1
1
1
1
1
1
1
1
1
1
1
1
1
1
1
1
1
1
1
1
1
1
1
1
1
1
1
1
1
1
1
1
1
1
1
1
1
1
1
1
1
1
1
1
1
1
1
1
1
1
1
1
1
1
1
1
1
1
1
1
1
1
1
1
1
1
1
1
1
1
1
1
1
1
1
1
1
1
1
1
1
1
1
1
1
1
1
1
1
1
1
1
1
1
1
1
1
1
1
1
1
1
1
1
1
1
1
1
1
1
1
1
1
1
1
1
1
1
1
1
1
1
1
1
1
1
1
1
1
1
1
1
1
1
1
1
1
1
1
1
1
1
1
1
1
1
1
1
1
1
1
1
1
1
1
1
1
1
1
1
1
1
1
1
1
1
1
1
1
1
1
1
1
1
1
1
1
1
1
1
1
1
1
1
1
1
1
1
1
1
1
1
1
1
1
1
1
1
1
1
1
1
1
1
1
1
1
1
1
1
1
1
1
1
1
1
1
1
1
1
1
1
1
1
1
1
1
1
1
1
1
1
1
1
1
1
1
1
1
1
1
1
1
1
1
1
1
1
1
1
1
1
1
1
1
1
1
1
1
1
1
1
1
1
1
1
1
1
1
1
1
1
1
1
1
1
1
1
1
1
1
1
1
1
1
1
1
1
1
1
1
1
1
1
1
1
1
1
1
1
1
1
1
1
1
1
1
1
1
1
1
1
1
1
1
1
1
1
1
1
1
1
1
1
1
1
1
1
1
1
1
1
1
1
1
1
1
1
1
1
1
1
1
1
1
1
1
1
1
1
1
1
1
1
1
1
1
1
1
1
1
1
1
1
1
1
1
1
1
1
1
1
1
1
1
1
1
1
1
1
1
1
1
1
1
1
1
1
1
1
1
1
1
1
1
1
1
1
1
1
1
1
1
1
1
1
1
1
1
1
1
1
1
1
1
1
1
1
1
1
1
1
1
1
1
1
1
1
1
1
1
1
1
1
1
1
1
1
1
1
1
1
1
1
1
1
1
1
1
1
1
1
1
1
1
1
1
1
1
1
1
1
1
1
1
1
1
1
1
1
1
1
1
1
1
1
1
1
1
1
1
1
1
1
1
1
1
1
1
1
1
1
1
1
1
1
1
1
1
1
1
1
1
1
1
1
1
1
1
1
1
1
1
1
1
1
1
1
1
1
1
1
1
1
1
1
1
1
1
1
1
1
1
1
1
1
1
1
1
1
1
1
1
1
1
1
1
1
1
1
1
1
1
1
1
1
1
1
1
1
1
1
1
1
1
1
1
1
1
1
1
1
1
1
1
1
1
1
1
1
1
1
1
1
1
1
1
1
1
1
1
1
1
1
1
1
1
1
1
1
1
1
1
1
1
1
1
1
1
1
1
1
1
1
1
1
1
1
1
1
1
1
1
1
1
1
1
1
1
1
1
1
1
1
1
1
1
1
1
1
1
1
1
1
1
1
1
1
1
1
1
1
1
1
1
1
1
1
1
1
1
1
1
1
1
1
1
1
1
1
1
1
1
1
1
1
1
1
1
1
1
1
1
1
1
1
1
1
1
1
1
1
1
1
1
1
1
1
1
1
1
1
1
1
1
1
1
1
1
1
1
1
1
1
1
1
1
1
1
1
1
1
1
1
1
1
1
1
1
1
1
1
1
1
1
1
1
1
1
1
1
1
1
1
1
1
1
1
1
1
1
1
1
1
1
1
1
1
1
1
1
1
1
1
1
1
1
1
1
1
1
1
1
1
1
1
1
1
1
1
1
1
1
1
1
1
1
1
1
1
1
1
1
1
1
1
1
1
1
1
1
1
1
1
1
1
1
1
1
1
1
1
1
1
1
1
1
1
1
1
1
1
1
1
1
1
1
1
1
1
1
1
1
1
1
1
1
1
1
1
1
1
1
1
1
1
1
1
1
1
1
1
1
1
1
1
1
1
1
1
1
1
1
1
1
1
1
1
1
1
1
1
1
1
1
1
1
1
1
1
1
1
1
1
1
1
1
1
1
1
1
1
1
1
1
1
1
1
1
1
1
1
1
1
1
1
1
1
1
1
1
1
1
1
1
1
1
1
1
1
1
1
1
1
1
1
1
1
1
1
1
1
1
1
1
1
1
1
1
1
1
1
1
1
1
1
1
1
1
1
1
1
1
1
1
1
1
1
1
1
1
1
1
1
1
1
1
1
1
1
1
1
1
1
1
1
1
1
1
1
1
1
1
1
1
1
1
1
1
1
1
1
1
1
1
1
1
1
1
1
1
1
1
1
1
1
1
1
1
1
1
1
1
1
1
1
1
1
1
1
1
1
1
1
1
1
1
1
1
1
1
1
1
1
1
1
1
1
1
1
1
1
1
1
1
1
1
1
1
1
1
1
1
1
1
1
1
1
1
1
1
1
1
1
1
1
1
1
1
1
1
1
1
1
1
1
1
1
1
1
1
1
1
1
1
1
1
1
1
1
1
1
1
1
1
1
1
1
1
1
1
1
1
1
1
1
1
1
1
1
1
1
1
1
1
1
1
1
1
1
1
1
1
1
1
1
1
1
1
1
1
1
1
1
1
1
1
1
1
1
1
1
1
1
1
1
1
1
1
1
1
1
1
1
1
1
1
1
1
1
1
1
1
1
1
1
1
1
1
1
1
1
1
1
1
1
1
1
1
1
1
1
1
1
1
1
1
1
1
1
1
1
1
1
1
1
1
1
1
1
1
1
1
1
1
1
1
1
1
1
1
1
1
1
1
1
1
1
1
1
1
1
1
1
1
1
1
1
1
1
1
1
1
1
1
1
1
1
1
1
1
1
1
1
1
1
1
1
1
1
1
1
1
1
1
1
1
1
1
1
1
1
1
1
1
1
1
1
1
1
1
1
1
1
1
1
1
1
1
1
1
1
1
1
1
1
1
1
1
1
1
1
1
1
1
1
1
1
1
1
1
1
1
1
1
1
1
1
1
1
1
1
1
1
1
1
1
1
1
1
1
1
1
1
1
1
1
1
1
1
1
1
1
1.07889
1.17726
1.28316
1.38938
1.47157
1.55706
1.62343
1.66392
1.69371
1.6891
1.66337
1.61641
1.57169
1.53458
1.52314
1.51624
1.51429
1.51731
1.52181
1.52683
1.53073
1.53394
1.53627
1.53801
1.53996
1.54163
1.54255
1.54329
1.54314
1.5426
1.54193
1.54132
1.54121
1.54165
1.54288
1.54479
1.54663
1.54712
1.54707
1.5468
1.546
1.54533
1.54537
1.54558
1.5459
1.54643
1.54677
1.54685
1.00052
1.00736
1.02288
1.0652
1.13423
1.21078
1.30157
1.37702
1.45537
1.50507
1.53404
1.55874
1.56253
1.55913
1.55181
1.54748
1.54057
1.53714
1.53198
1.53142
1.53314
1.53623
1.53909
1.5412
1.54327
1.5451
1.54608
1.54701
1.54713
1.54692
1.54645
1.54612
1.54611
1.54639
1.54691
1.5475
1.54775
1.54763
1.54732
1.54679
1.5463
1.54625
1.54643
1.54675
1.54723
1.54785
1.54812
1.54868
1
1
1.00001
0.999992
1.00055
1.00423
1.02227
1.0746
1.1824
1.34852
1.4995
1.58627
1.61993
1.61939
1.61197
1.59957
1.58202
1.56079
1.54647
1.54148
1.54188
1.54441
1.54695
1.54928
1.55133
1.55292
1.5542
1.55553
1.5566
1.55704
1.55711
1.55695
1.55641
1.556
1.55595
1.55586
1.55547
1.5547
1.55363
1.55253
1.55179
1.55152
1.55148
1.5515
1.55168
1.55208
1.55214
1.55313
1
1
1
1
1
0.999994
1.00001
1.00005
1.00185
1.0309
1.14304
1.34155
1.48145
1.6077
1.61639
1.60457
1.60006
1.5972
1.58515
1.57207
1.56627
1.56421
1.56096
1.56096
1.56274
1.5644
1.56552
1.56675
1.56734
1.56789
1.56815
1.56799
1.56738
1.56697
1.56685
1.56663
1.56619
1.56537
1.56413
1.56278
1.56195
1.56158
1.56135
1.56115
1.56106
1.56103
1.56042
1.56128
1
1
1
1
1
1
1
1
1
0.999975
1.00052
1.01819
1.10673
1.29654
1.47657
1.56032
1.62541
1.62644
1.62219
1.60893
1.59619
1.58598
1.57896
1.57629
1.57527
1.57623
1.57709
1.57788
1.5781
1.57838
1.57796
1.57712
1.57607
1.57573
1.57613
1.57635
1.57607
1.57541
1.57435
1.57315
1.57241
1.57219
1.57211
1.57207
1.57204
1.57183
1.57061
1.57119
1
1
1
1
1
1
1
1
1
0.999999
0.999999
0.99998
1.00029
1.00915
1.09574
1.24866
1.4402
1.53141
1.58646
1.60497
1.60488
1.60152
1.59435
1.5888
1.58608
1.58325
1.5815
1.58074
1.58111
1.58191
1.58261
1.5826
1.58281
1.58331
1.58379
1.58374
1.58336
1.58272
1.58185
1.581
1.58058
1.58043
1.58031
1.58032
1.58025
1.57978
1.57812
1.57831
1
1
1
1
1
1
1
1
1
1
1
0.999999
0.999999
0.999985
1.00029
1.00613
1.0637
1.2266
1.39295
1.52441
1.56238
1.58236
1.5892
1.58901
1.58558
1.57977
1.57977
1.58037
1.57998
1.57995
1.58082
1.58255
1.58519
1.58726
1.58737
1.58685
1.58611
1.58553
1.58494
1.58429
1.58403
1.58377
1.58365
1.58372
1.58363
1.58306
1.58162
1.58145
1
1
1
1
1
1
1
1
1
1
1
1
1
0.999999
0.999999
0.999991
1.00013
1.00632
1.0477
1.20007
1.3618
1.50041
1.55753
1.56653
1.57843
1.57533
1.57324
1.57383
1.57404
1.57429
1.57521
1.5775
1.58062
1.5832
1.58463
1.58465
1.58444
1.5839
1.58332
1.58325
1.58328
1.58326
1.58361
1.58392
1.58393
1.58375
1.58314
1.58295
1
1
1
1
1
1
1
1
1
1
1
1
1
1
1
0.999999
0.999999
0.999993
1.00008
1.00492
1.04422
1.16592
1.34415
1.46785
1.54925
1.56698
1.56936
1.57204
1.571
1.56982
1.56986
1.57125
1.5735
1.57535
1.57712
1.57856
1.5792
1.57953
1.57978
1.58038
1.58107
1.58161
1.58228
1.5828
1.58304
1.58316
1.58303
1.58283
1
1
1
1
1
1
1
1
1
1
1
1
1
1
1
1
1
1
1
0.999994
1.0001
1.00294
1.04537
1.15831
1.33155
1.44724
1.52405
1.55737
1.56692
1.56731
1.56909
1.57054
1.57041
1.57071
1.57148
1.573
1.57428
1.57499
1.57562
1.57632
1.5772
1.57826
1.57918
1.57966
1.58021
1.58079
1.58117
1.58098
1
1
1
1
1
1
1
1
1
1
1
1
1
1
1
1
1
1
1
0.999999
0.999999
0.999995
1.00017
1.00319
1.03738
1.16342
1.31964
1.45004
1.50496
1.5405
1.55831
1.56328
1.56306
1.5643
1.56576
1.56669
1.56816
1.56956
1.57091
1.57199
1.57322
1.57459
1.57539
1.57603
1.57671
1.5772
1.57768
1.57743
1
1
1
1
1
1
1
1
1
1
1
1
1
1
1
1
1
1
1
1
1
0.999999
1
0.999996
1.00014
1.00452
1.03462
1.16411
1.31817
1.46299
1.51528
1.53273
1.54391
1.55137
1.55506
1.55695
1.55933
1.56197
1.56391
1.56532
1.56661
1.56791
1.56912
1.5701
1.571
1.57185
1.57275
1.5726
1
1
1
1
1
1
1
1
1
1
1
1
1
1
1
1
1
1
1
1
1
1
1
1
1
0.999997
1.00013
1.00554
1.04174
1.17063
1.34062
1.46667
1.53242
1.54157
1.54673
1.55058
1.55265
1.55497
1.55653
1.55795
1.55921
1.56098
1.56288
1.56399
1.5646
1.56518
1.56577
1.56578
1
1
1
1
1
1
1
1
1
1
1
1
1
1
1
1
1
1
1
1
1
1
1
1
1
1
1
1
1.00024
1.00628
1.06171
1.19257
1.36553
1.47439
1.53219
1.55307
1.55461
1.55838
1.55843
1.55764
1.55728
1.55807
1.55947
1.56054
1.56058
1.56017
1.56008
1.5602
1
1
1
1
1
1
1
1
1
1
1
1
1
1
1
1
1
1
1
1
1
1
1
1
1
1
1
1
0.999999
1
1.00062
1.00892
1.0852
1.23464
1.40289
1.48501
1.53121
1.55338
1.55551
1.55535
1.55664
1.5577
1.55882
1.55942
1.55909
1.55829
1.55807
1.55815
1
1
1
1
1
1
1
1
1
1
1
1
1
1
1
1
1
1
1
1
1
1
1
1
1
1
1
1
1
1
0.999999
1.00001
1.00156
1.01654
1.11871
1.28974
1.45433
1.51259
1.52949
1.54155
1.55016
1.5531
1.55461
1.55554
1.55617
1.55619
1.5563
1.55682
1
1
1
1
1
1
1
1
1
1
1
1
1
1
1
1
1
1
1
1
1
1
1
1
1
1
1
1
1
1
1
1
0.999999
1.00006
1.00382
1.03648
1.17669
1.35577
1.49162
1.54191
1.54569
1.5493
1.55051
1.55129
1.55226
1.55329
1.55402
1.55507
1
1
1
1
1
1
1
1
1
1
1
1
1
1
1
1
1
1
1
1
1
1
1
1
1
1
1
1
1
1
1
1
1
1
1
1.00032
1.01001
1.0791
1.25743
1.4257
1.51869
1.55377
1.55524
1.55769
1.55765
1.5571
1.55589
1.55596
1
1
1
1
1
1
1
1
1
1
1
1
1
1
1
1
1
1
1
1
1
1
1
1
1
1
1
1
1
1
1
1
1
1
1
0.999999
1.00004
1.00154
1.02955
1.15879
1.35429
1.47245
1.52838
1.55591
1.55791
1.55701
1.55705
1.55737
1
1
1
1
1
1
1
1
1
1
1
1
1
1
1
1
1
1
1
1
1
1
1
1
1
1
1
1
1
1
1
1
1
1
1
1
1
1
1.00034
1.00754
1.07792
1.26211
1.45059
1.52624
1.53868
1.54505
1.55056
1.55411
1
1
1
1
1
1
1
1
1
1
1
1
1
1
1
1
1
1
1
1
1
1
1
1
1
1
1
1
1
1
1
1
1
1
1
1
1
1
1
1.00002
1.00231
1.0342
1.18307
1.38213
1.51264
1.54945
1.55431
1.5565
1
1
1
1
1
1
1
1
1
1
1
1
1
1
1
1
1
1
1
1
1
1
1
1
1
1
1
1
1
1
1
1
1
1
1
1
1
1
1
1
1
1.00045
1.01442
1.11055
1.32182
1.47584
1.54478
1.56081
1
1
1
1
1
1
1
1
1
1
1
1
1
1
1
1
1
1
1
1
1
1
1
1
1
1
1
1
1
1
1
1
1
1
1
1
1
1
1
1
1
1
1.00014
1.00428
1.07164
1.25733
1.45849
1.51044
1
1
1
1
1
1
1
1
1
1
1
1
1
1
1
1
1
1
1
1
1
1
1
1
1
1
1
1
1
1
1
1
1
1
1
1
1
1
1
1
1
1
1
1.00002
1.00256
1.03269
1.20752
1.39398
1
1
1
1
1
1
1
1
1
1
1
1
1
1
1
1
1
1
1
1
1
1
1
1
1
1
1
1
1
1
1
1
1
1
1
1
1
1
1
1
1
1
1
1
1.00001
1.00056
1.02308
1.13641
1
1
1
1
1
1
1
1
1
1
1
1
1
1
1
1
1
1
1
1
1
1
1
1
1
1
1
1
1
1
1
1
1
1
1
1
1
1
1
1
1
1
1
1
1
1
1.0005
1.00641
1
1
1
1
1
1
1
1
1
1
1
1
1
1
1
1
1
1
1
1
1
1
1
1
1
1
1
1
1
1
1
1
1
1
1
1
1
1
1
1
1
1
1
1
1
1
1.00001
0.999951
1
1
1
1
1
1
1
1
1
1
1
1
1
1
1
1
1
1
1
1
1
1
1
1
1
1
1
1
1
1
1
1
1
1
1
1
1
1
1
1
1
1
1
1
1
1
1
0.999986
1
1
1
1
1
1
1
1
1
1
1
1
1
1
1
1
1
1
1
1
1
1
1
1
1
1
1
1
1
1
1
1
1
1
1
1
1
1
1
1
1
1
1
1
1
1
1
0.999998
1
1
1
1
1
1
1
1
1
1
1
1
1
1
1
1
1
1
1
1
1
1
1
1
1
1
1
1
1
1
1
1
1
1
1
1
1
1
1
1
1
1
1
1
1
1
1
1
1
1
1
1
1
1
1
1
1
1
1
1
1
1
1
1
1
1
1
1
1
1
1
1
1
1
1
1
1
1
1
1
1
1
1
1
1
1
1
1
1
1
1
1
1
1
1
1
1
1
1
1
1
1
1
1
1
1
1
1
1
1
1
1
1
1
1
1
1
1
1
1
1
1
1
1
1
1
1
1
1
1
1
1
1
1
1
1
1
1
1
1
1
1
1
1
1
1
1
1
1
1
1
1
1
1
1
1
1
1
1
1
1
1
1
1
1
1
1
1
1
1
1
1
1
1
1
1
1
1
1
1
1
1
1
1
1
1
1
1
1
1
1
1
1
1
1
1
1
1
1
1
1
1
1
1
1
1
1
1
1
1
1
1
1
1
1
1
1
1
1
1
1
1
1
1
1
1
1
1
1
1
1
1
1
1
1
1
1
1
1
1
1
1
1
1
1
1
1
1
1
1
1
1
1
1
1
1
1
1
1
1
1
1
1
1
1
1
1
1
1
1
1
1
1
1
1
1
1
1
1
1
1
1
1
1
1
1
1
1
1
1
1
1
1
1
1
1
1
1
1
1
1
1
1
1
1
1
1
1
1
1
1
1
1
1
1
1
1
1
1
1
1
1
1
1
1
1
1
1
1
1
1
1
1
1
1
0.999998
1
1
1
1
1
1
1
1
1
1
1
1
1
1
1
1
1
1
1
1
1
1
1
1
1
1
1
1
1
1
1
1
1
1
1
1
1
1
1
1
1
1
1
1
1
1
1
0.999986
1
1
1
1
1
1
1
1
1
1
1
1
1
1
1
1
1
1
1
1
1
1
1
1
1
1
1
1
1
1
1
1
1
1
1
1
1
1
1
1
1
1
1
1
1
1
1.00001
0.99995
1
1
1
1
1
1
1
1
1
1
1
1
1
1
1
1
1
1
1
1
1
1
1
1
1
1
1
1
1
1
1
1
1
1
1
1
1
1
1
1
1
1
1
1
1
1
1.00051
1.00645
1
1
1
1
1
1
1
1
1
1
1
1
1
1
1
1
1
1
1
1
1
1
1
1
1
1
1
1
1
1
1
1
1
1
1
1
1
1
1
1
1
1
1
1
1.00001
1.00056
1.02302
1.13698
1
1
1
1
1
1
1
1
1
1
1
1
1
1
1
1
1
1
1
1
1
1
1
1
1
1
1
1
1
1
1
1
1
1
1
1
1
1
1
1
1
1
1
1.00002
1.00257
1.03267
1.20759
1.39424
1
1
1
1
1
1
1
1
1
1
1
1
1
1
1
1
1
1
1
1
1
1
1
1
1
1
1
1
1
1
1
1
1
1
1
1
1
1
1
1
1
1
1.00014
1.00428
1.07166
1.25717
1.45888
1.51041
1
1
1
1
1
1
1
1
1
1
1
1
1
1
1
1
1
1
1
1
1
1
1
1
1
1
1
1
1
1
1
1
1
1
1
1
1
1
1
1
1
1.00045
1.01441
1.11057
1.32177
1.47585
1.54488
1.56075
1
1
1
1
1
1
1
1
1
1
1
1
1
1
1
1
1
1
1
1
1
1
1
1
1
1
1
1
1
1
1
1
1
1
1
1
1
1
1
1.00002
1.00231
1.0342
1.18307
1.38215
1.51261
1.54947
1.55431
1.55648
1
1
1
1
1
1
1
1
1
1
1
1
1
1
1
1
1
1
1
1
1
1
1
1
1
1
1
1
1
1
1
1
1
1
1
1
1
1
1.00034
1.00754
1.07792
1.26211
1.45059
1.52623
1.53868
1.54505
1.55056
1.5541
1
1
1
1
1
1
1
1
1
1
1
1
1
1
1
1
1
1
1
1
1
1
1
1
1
1
1
1
1
1
1
1
1
1
1
0.999999
1.00004
1.00154
1.02955
1.15879
1.35429
1.47245
1.52837
1.5559
1.55791
1.55701
1.55706
1.55737
1
1
1
1
1
1
1
1
1
1
1
1
1
1
1
1
1
1
1
1
1
1
1
1
1
1
1
1
1
1
1
1
1
1
1
1.00032
1.01001
1.07909
1.25743
1.4257
1.51869
1.55377
1.55524
1.55769
1.55765
1.5571
1.55589
1.55596
1
1
1
1
1
1
1
1
1
1
1
1
1
1
1
1
1
1
1
1
1
1
1
1
1
1
1
1
1
1
1
1
0.999999
1.00006
1.00382
1.03648
1.17669
1.35577
1.49162
1.54191
1.54569
1.5493
1.55051
1.55129
1.55226
1.55329
1.55402
1.55507
1
1
1
1
1
1
1
1
1
1
1
1
1
1
1
1
1
1
1
1
1
1
1
1
1
1
1
1
1
1
0.999999
1.00001
1.00156
1.01654
1.11871
1.28974
1.45433
1.51259
1.52949
1.54155
1.55016
1.5531
1.55461
1.55554
1.55617
1.55619
1.5563
1.55682
1
1
1
1
1
1
1
1
1
1
1
1
1
1
1
1
1
1
1
1
1
1
1
1
1
1
1
1
0.999999
1
1.00062
1.00892
1.0852
1.23464
1.40289
1.48501
1.53121
1.55338
1.55551
1.55535
1.55664
1.5577
1.55882
1.55942
1.55909
1.55829
1.55806
1.55815
1
1
1
1
1
1
1
1
1
1
1
1
1
1
1
1
1
1
1
1
1
1
1
1
1
1
1
1
1.00024
1.00628
1.06171
1.19257
1.36553
1.47439
1.53219
1.55307
1.55461
1.55838
1.55843
1.55764
1.55728
1.55807
1.55947
1.56054
1.56058
1.56017
1.56008
1.5602
1
1
1
1
1
1
1
1
1
1
1
1
1
1
1
1
1
1
1
1
1
1
1
1
1
0.999997
1.00013
1.00554
1.04174
1.17063
1.34062
1.46667
1.53242
1.54157
1.54673
1.55058
1.55266
1.55497
1.55653
1.55795
1.55921
1.56098
1.56288
1.56399
1.5646
1.56518
1.56577
1.56578
1
1
1
1
1
1
1
1
1
1
1
1
1
1
1
1
1
1
1
1
1
0.999999
1
0.999996
1.00014
1.00452
1.03462
1.16411
1.31817
1.46299
1.51528
1.53273
1.54391
1.55137
1.55506
1.55695
1.55933
1.56197
1.56391
1.56532
1.56661
1.56791
1.56912
1.5701
1.571
1.57185
1.57275
1.5726
1
1
1
1
1
1
1
1
1
1
1
1
1
1
1
1
1
1
1
0.999999
0.999999
0.999995
1.00017
1.00319
1.03738
1.16342
1.31964
1.45004
1.50496
1.5405
1.55831
1.56328
1.56306
1.5643
1.56576
1.56669
1.56816
1.56956
1.57091
1.57199
1.57322
1.57459
1.57539
1.57603
1.57671
1.5772
1.57768
1.57743
1
1
1
1
1
1
1
1
1
1
1
1
1
1
1
1
1
1
1
0.999994
1.0001
1.00294
1.04537
1.15831
1.33155
1.44724
1.52405
1.55737
1.56692
1.56731
1.56909
1.57054
1.57041
1.57071
1.57148
1.573
1.57428
1.57499
1.57562
1.57632
1.5772
1.57826
1.57918
1.57966
1.58021
1.58079
1.58117
1.58098
1
1
1
1
1
1
1
1
1
1
1
1
1
1
1
0.999999
0.999999
0.999993
1.00008
1.00492
1.04422
1.16592
1.34415
1.46785
1.54925
1.56698
1.56936
1.57204
1.571
1.56982
1.56986
1.57125
1.5735
1.57535
1.57712
1.57856
1.5792
1.57953
1.57978
1.58038
1.58107
1.58161
1.58228
1.5828
1.58304
1.58316
1.58303
1.58283
1
1
1
1
1
1
1
1
1
1
1
1
1
0.999999
0.999999
0.999991
1.00013
1.00632
1.0477
1.20007
1.3618
1.50041
1.55753
1.56653
1.57843
1.57533
1.57324
1.57383
1.57404
1.57429
1.57521
1.5775
1.58062
1.5832
1.58463
1.58465
1.58444
1.5839
1.58332
1.58325
1.58328
1.58326
1.58361
1.58392
1.58393
1.58375
1.58314
1.58295
1
1
1
1
1
1
1
1
1
1
1
0.999999
0.999999
0.999985
1.00029
1.00613
1.0637
1.2266
1.39295
1.52441
1.56238
1.58236
1.5892
1.58901
1.58558
1.57977
1.57977
1.58037
1.57998
1.57995
1.58082
1.58255
1.58519
1.58726
1.58737
1.58685
1.58611
1.58553
1.58494
1.58429
1.58403
1.58377
1.58365
1.58372
1.58363
1.58306
1.58162
1.58145
1
1
1
1
1
1
1
1
1
0.999999
0.999999
0.99998
1.00029
1.00915
1.09574
1.24866
1.4402
1.53141
1.58646
1.60497
1.60488
1.60152
1.59435
1.5888
1.58608
1.58325
1.5815
1.58074
1.58111
1.58191
1.58261
1.5826
1.58281
1.58331
1.58379
1.58374
1.58336
1.58272
1.58185
1.581
1.58058
1.58043
1.58031
1.58032
1.58025
1.57978
1.57812
1.57831
1
1
1
1
1
1
1
1
1
0.999975
1.00052
1.01819
1.10673
1.29654
1.47657
1.56032
1.62541
1.62644
1.62219
1.60893
1.59619
1.58598
1.57896
1.57629
1.57527
1.57623
1.57709
1.57788
1.5781
1.57838
1.57796
1.57712
1.57607
1.57573
1.57613
1.57635
1.57607
1.57541
1.57435
1.57315
1.57241
1.57219
1.57211
1.57207
1.57204
1.57183
1.57061
1.57119
1
1
1
1
1
0.999994
1.00001
1.00005
1.00185
1.0309
1.14304
1.34155
1.48145
1.6077
1.61639
1.60457
1.60006
1.5972
1.58515
1.57207
1.56627
1.56421
1.56096
1.56096
1.56274
1.5644
1.56552
1.56675
1.56734
1.56789
1.56815
1.56799
1.56738
1.56697
1.56685
1.56663
1.56619
1.56537
1.56413
1.56278
1.56195
1.56158
1.56135
1.56115
1.56106
1.56103
1.56042
1.56128
1
1
1.00001
0.999992
1.00055
1.00423
1.02227
1.0746
1.1824
1.34852
1.4995
1.58627
1.61993
1.61939
1.61197
1.59957
1.58202
1.56079
1.54647
1.54148
1.54188
1.54441
1.54695
1.54928
1.55133
1.55292
1.5542
1.55553
1.5566
1.55704
1.55711
1.55695
1.55641
1.556
1.55595
1.55586
1.55547
1.5547
1.55363
1.55253
1.55179
1.55152
1.55148
1.5515
1.55168
1.55208
1.55214
1.55313
1.00052
1.00736
1.02288
1.0652
1.13423
1.21078
1.30157
1.37702
1.45537
1.50507
1.53404
1.55874
1.56253
1.55913
1.55181
1.54748
1.54057
1.53714
1.53198
1.53142
1.53314
1.53623
1.53909
1.5412
1.54327
1.5451
1.54608
1.54701
1.54713
1.54692
1.54645
1.54612
1.54611
1.54639
1.54691
1.5475
1.54775
1.54763
1.54732
1.54679
1.5463
1.54625
1.54643
1.54675
1.54723
1.54785
1.54812
1.54868
1.07889
1.17726
1.28316
1.38938
1.47157
1.55706
1.62343
1.66392
1.69371
1.6891
1.66337
1.61641
1.57169
1.53458
1.52314
1.51624
1.51429
1.51731
1.52181
1.52683
1.53073
1.53394
1.53627
1.53801
1.53996
1.54163
1.54255
1.54329
1.54314
1.5426
1.54193
1.54132
1.54121
1.54165
1.54288
1.54479
1.54663
1.54712
1.54707
1.5468
1.546
1.54533
1.54537
1.54558
1.5459
1.54643
1.54677
1.54685
1.40311
1.23648
1.12244
1.03296
0.969719
0.978852
1.01514
1.01996
1.0302
1.06588
1.10481
1.10384
1.1
1.104
1.10952
1.11285
1.11701
1.12467
1.12451
1.12213
1.11772
1.1166
1.11582
1.11233
1.11046
1.11112
1.11121
1.11042
1.10849
1.10648
1.10464
1.10395
1.10345
1.10339
1.10378
1.10428
1.10441
1.10435
1.1041
1.10403
1.10406
1.10443
1.10482
1.10479
1.1046
1.10402
1.10253
1.10181
1.10534
1.16618
1.31255
1.56339
1.81841
2.05118
2.24511
2.24114
2.18031
2.11011
2.08619
2.07325
2.06183
2.05106
2.04674
2.04299
2.03458
2.02066
1.99524
1.96502
1.95124
1.94515
1.94305
1.9437
1.93802
1.92875
1.91488
1.88802
1.85932
1.84841
1.84291
1.84083
1.84157
1.83689
1.83053
1.81824
1.79536
1.78074
1.77559
1.77071
1.76515
1.75798
1.74793
1.73098
1.71227
1.70444
1.70104
1.69848
1.69649
1.69312
1.68852
1.67899
1.66029
1.64278
1.63392
1.62865
1.62484
1.62183
1.6187
1.6141
1.60561
1.59304
1.58327
1.57717
1.57178
1.56572
1.55701
1.54376
1.53394
1.53018
1.52731
1.52469
1.52226
1.51938
1.51539
1.50778
1.49242
1.47652
1.47065
1.46825
1.46636
1.46497
1.46464
1.46266
1.45891
1.45251
1.4402
1.42498
1.41694
1.4128
1.40925
1.40638
1.4041
1.40113
1.39894
1.39561
1.398
1.41638
1.47302
1.577
1.69663
1.78713
1.85951
1.90974
1.92164
1.91164
1.89515
1.87795
1.86627
1.85892
1.85329
1.84998
1.8476
1.84415
1.83946
1.83302
1.8233
1.8125
1.80867
1.80719
1.80636
1.80538
1.80324
1.79976
1.79312
1.78294
1.77652
1.77346
1.77097
1.76855
1.76579
1.76134
1.7517
1.74007
1.73586
1.73401
1.73209
1.73085
1.73038
1.72742
1.72363
1.71976
1.7144
1.7019
1.50354
1.41339
1.32901
1.26465
1.17356
1.12743
1.10973
1.07546
1.06681
1.07275
1.06882
1.05944
1.05859
1.06316
1.07316
1.08049
1.08567
1.09517
1.09857
1.09747
1.09658
1.09836
1.10108
1.1015
1.1025
1.10456
1.10482
1.10403
1.10245
1.10131
1.1005
1.1001
1.09955
1.09952
1.09988
1.10018
1.10029
1.10021
1.09988
1.09975
1.09973
1.09996
1.10014
1.10009
1.09985
1.09866
1.09867
1.10208
1.1632
1.36724
1.51313
1.56877
1.66776
1.77368
1.96737
2.08744
2.12921
2.11967
2.1049
2.0833
2.06682
2.05782
2.05152
2.04538
2.03553
2.02318
2.00386
1.97834
1.95797
1.94692
1.94066
1.93703
1.93382
1.92655
1.91583
1.8974
1.87284
1.85635
1.84957
1.84464
1.84026
1.83503
1.82808
1.81857
1.80207
1.78387
1.77461
1.76997
1.76587
1.76045
1.75209
1.73885
1.72233
1.70976
1.70303
1.69915
1.69545
1.6916
1.68609
1.67617
1.66158
1.64734
1.63874
1.63309
1.62774
1.62264
1.61894
1.61558
1.60895
1.59782
1.58817
1.58171
1.5761
1.56996
1.56146
1.54947
1.54016
1.53566
1.53242
1.52923
1.52598
1.52238
1.51786
1.51043
1.49653
1.48129
1.47427
1.47097
1.46832
1.46603
1.46343
1.4609
1.45766
1.45305
1.44309
1.4277
1.41988
1.41758
1.41456
1.41132
1.40868
1.40623
1.40594
1.41257
1.43865
1.49654
1.56498
1.61687
1.66199
1.72202
1.77208
1.82299
1.8525
1.87128
1.88229
1.881
1.8755
1.86645
1.8593
1.85523
1.85233
1.84758
1.84154
1.83477
1.8266
1.81706
1.8117
1.81006
1.80857
1.80719
1.80515
1.80167
1.7955
1.78628
1.77918
1.77572
1.77315
1.77037
1.76726
1.76264
1.75391
1.74265
1.73787
1.7364
1.73514
1.73393
1.73279
1.72938
1.7255
1.72128
1.71567
1.7037
1.53864
1.49803
1.43072
1.36411
1.28842
1.21965
1.17879
1.13637
1.08349
1.07069
1.06011
1.04228
1.04131
1.04489
1.05072
1.0532
1.05564
1.06249
1.06905
1.07129
1.0733
1.0768
1.08119
1.08357
1.0863
1.08945
1.09096
1.09116
1.09092
1.09026
1.08975
1.08963
1.08961
1.08991
1.08989
1.08983
1.08978
1.08951
1.08929
1.08927
1.0895
1.09023
1.09079
1.09091
1.09058
1.09134
1.0983
1.15372
1.37958
1.54165
1.5987
1.60342
1.60657
1.61799
1.70211
1.91632
2.10223
2.15158
2.13617
2.10158
2.07464
2.06554
2.05663
2.04421
2.03331
2.02456
2.01483
1.99812
1.97669
1.9567
1.94345
1.93562
1.9291
1.92173
1.9129
1.90391
1.89129
1.87487
1.86081
1.85258
1.84517
1.8367
1.82653
1.8153
1.80381
1.79111
1.7797
1.77079
1.76397
1.75736
1.74987
1.74071
1.73053
1.71927
1.70928
1.70366
1.69852
1.69137
1.68167
1.66962
1.65742
1.64865
1.64241
1.63702
1.63225
1.62773
1.62159
1.61297
1.60327
1.59369
1.58575
1.57909
1.57288
1.56678
1.55943
1.55111
1.54231
1.5334
1.52831
1.52537
1.52189
1.51764
1.51251
1.50487
1.49246
1.48266
1.47946
1.47728
1.47402
1.46996
1.46567
1.46103
1.45556
1.44825
1.4383
1.42793
1.4224
1.41774
1.4132
1.41039
1.40927
1.4116
1.42211
1.46295
1.53725
1.59417
1.63267
1.63959
1.64221
1.65436
1.68287
1.72977
1.79629
1.84702
1.87518
1.88957
1.88595
1.8764
1.86165
1.85607
1.8538
1.84855
1.84174
1.83578
1.83091
1.82478
1.81583
1.80848
1.80595
1.80432
1.80277
1.80008
1.79539
1.78976
1.78418
1.77808
1.77258
1.76859
1.76486
1.75984
1.75292
1.7467
1.74199
1.73744
1.73446
1.73241
1.73022
1.72679
1.72296
1.71862
1.71326
1.70347
1.55631
1.53841
1.49712
1.44254
1.3801
1.31213
1.26412
1.21929
1.15946
1.13086
1.11335
1.08273
1.0627
1.06345
1.05793
1.04827
1.04683
1.04737
1.04601
1.04621
1.04808
1.05343
1.06252
1.06953
1.0736
1.07674
1.07805
1.0792
1.07948
1.07925
1.0797
1.08115
1.08295
1.08341
1.08326
1.08283
1.08186
1.0811
1.08115
1.08148
1.0821
1.08236
1.08241
1.08291
1.08474
1.10441
1.18059
1.35367
1.55854
1.60618
1.61968
1.62114
1.61837
1.60065
1.60058
1.65031
1.83839
2.06411
2.11837
2.10915
2.09894
2.08576
2.06733
2.04785
2.03802
2.03303
2.02568
2.01531
1.99765
1.97516
1.95394
1.93884
1.92991
1.92209
1.91576
1.91031
1.90487
1.89498
1.87873
1.86091
1.84829
1.8375
1.82669
1.81764
1.81124
1.80392
1.7916
1.77588
1.76464
1.7581
1.75312
1.74907
1.74372
1.73555
1.72444
1.71055
1.69824
1.68752
1.67677
1.6674
1.66034
1.65512
1.64906
1.64206
1.6354
1.62853
1.61965
1.60892
1.60025
1.59374
1.58776
1.58158
1.57458
1.56751
1.56233
1.557
1.54911
1.53875
1.53015
1.52694
1.52458
1.52105
1.51409
1.50211
1.49169
1.48746
1.48401
1.47872
1.47236
1.46741
1.46354
1.45898
1.45279
1.4449
1.43783
1.43326
1.42764
1.42094
1.41705
1.41538
1.41933
1.4467
1.49925
1.57297
1.62556
1.6509
1.66002
1.65823
1.65206
1.64574
1.6468
1.65853
1.69855
1.76279
1.81994
1.86962
1.87563
1.87298
1.86949
1.86433
1.85798
1.85069
1.84621
1.84366
1.84068
1.83465
1.82346
1.81324
1.80868
1.80646
1.80406
1.80183
1.79952
1.7957
1.79053
1.78405
1.7772
1.77126
1.76551
1.76015
1.75682
1.75411
1.74981
1.74383
1.73843
1.73542
1.73257
1.72915
1.72506
1.71983
1.71399
1.70625
1.56729
1.56076
1.53908
1.50197
1.45124
1.38915
1.34087
1.29512
1.23276
1.19474
1.17032
1.1383
1.10404
1.09204
1.07712
1.0559
1.049
1.049
1.04486
1.04336
1.0453
1.04861
1.05385
1.06089
1.06513
1.06758
1.06888
1.07009
1.07186
1.073
1.07372
1.07639
1.07879
1.07911
1.07894
1.07851
1.0782
1.0782
1.07876
1.08008
1.08078
1.08065
1.0802
1.08121
1.10936
1.26183
1.40594
1.53699
1.61531
1.62723
1.62698
1.62745
1.62728
1.61571
1.59772
1.59412
1.61615
1.76398
1.97923
2.10526
2.12014
2.10603
2.07618
2.05364
2.04388
2.0378
2.02983
2.01916
2.00807
1.99204
1.96957
1.94677
1.9326
1.92458
1.91843
1.91351
1.90699
1.90087
1.89034
1.87014
1.85057
1.83922
1.83093
1.82395
1.81678
1.80837
1.7962
1.77874
1.76684
1.76093
1.75576
1.75072
1.74596
1.7404
1.73064
1.71257
1.69489
1.68515
1.67824
1.67228
1.66703
1.66193
1.65659
1.65151
1.64283
1.62929
1.61665
1.60742
1.60015
1.59375
1.58807
1.58254
1.57634
1.56917
1.56154
1.55553
1.55055
1.54468
1.5375
1.52971
1.52388
1.519
1.51215
1.50281
1.49645
1.49304
1.48894
1.48349
1.47681
1.47032
1.46557
1.4601
1.45229
1.4435
1.4362
1.43165
1.42858
1.42589
1.42658
1.43604
1.47501
1.54997
1.61088
1.6543
1.67113
1.672
1.66931
1.66226
1.654
1.64709
1.64591
1.64602
1.65121
1.67602
1.72586
1.79319
1.85179
1.87282
1.87677
1.86969
1.8594
1.85402
1.85166
1.84903
1.84523
1.83919
1.83074
1.8205
1.81317
1.80943
1.80685
1.80395
1.80072
1.79663
1.79204
1.78631
1.77947
1.77251
1.76713
1.76362
1.76055
1.75731
1.75369
1.74954
1.74434
1.73885
1.73508
1.73132
1.72649
1.71988
1.71358
1.70707
1.5757
1.57174
1.56332
1.54202
1.50732
1.45568
1.40674
1.36113
1.30744
1.26625
1.23607
1.19968
1.16161
1.14336
1.1256
1.09738
1.08143
1.07576
1.06425
1.0549
1.05549
1.05604
1.0539
1.05406
1.0556
1.05621
1.05758
1.06054
1.06456
1.06884
1.07163
1.07552
1.07798
1.07845
1.07846
1.07823
1.07806
1.07836
1.07955
1.08112
1.08128
1.08113
1.08247
1.10883
1.29491
1.49832
1.57162
1.61004
1.63096
1.63106
1.62841
1.62522
1.62436
1.62073
1.60865
1.59196
1.58356
1.59196
1.68458
1.89189
2.0582
2.08622
2.0782
2.06407
2.0499
2.03695
2.02666
2.01836
2.00956
1.99914
1.98218
1.95757
1.93757
1.92749
1.92011
1.91447
1.90846
1.90075
1.89076
1.87473
1.85431
1.84182
1.83511
1.829
1.82257
1.81455
1.80175
1.78328
1.76961
1.76298
1.75778
1.75386
1.75007
1.74471
1.73404
1.71317
1.69374
1.68583
1.68179
1.68012
1.67862
1.6728
1.66607
1.65597
1.64074
1.62489
1.61487
1.60787
1.60191
1.5966
1.59141
1.5858
1.57952
1.57145
1.56348
1.55837
1.55472
1.55075
1.54444
1.53315
1.52103
1.51423
1.51025
1.50772
1.50528
1.50206
1.49813
1.49329
1.48672
1.4784
1.46866
1.45841
1.44888
1.44198
1.43694
1.4335
1.43365
1.43892
1.46111
1.51199
1.5954
1.65002
1.67001
1.68168
1.68175
1.67925
1.67497
1.66584
1.65514
1.65136
1.64947
1.64742
1.64823
1.65064
1.66044
1.68906
1.75006
1.81221
1.85055
1.85722
1.86182
1.863
1.86133
1.85597
1.84921
1.84264
1.83572
1.82706
1.81893
1.81346
1.81014
1.80752
1.80477
1.80089
1.79584
1.78943
1.7812
1.77329
1.76898
1.76661
1.76432
1.76177
1.7589
1.75523
1.75008
1.74397
1.73731
1.73082
1.72442
1.71846
1.71512
1.71102
1.58
1.57798
1.57345
1.56414
1.54328
1.50699
1.46653
1.4205
1.36844
1.33132
1.2971
1.25872
1.22159
1.19697
1.17268
1.14015
1.11885
1.10767
1.09365
1.07229
1.06798
1.06608
1.06013
1.05883
1.05977
1.05852
1.05705
1.05743
1.05936
1.06441
1.06997
1.07391
1.0766
1.07752
1.07833
1.07924
1.07975
1.08018
1.08174
1.08261
1.08303
1.08717
1.12358
1.28714
1.54715
1.6185
1.63073
1.63648
1.62992
1.6227
1.62433
1.62393
1.62038
1.61825
1.6101
1.59363
1.5776
1.56862
1.56984
1.61633
1.78386
1.97155
2.05305
2.06122
2.04708
2.02497
2.01503
2.01018
2.00579
1.99687
1.98574
1.96674
1.94295