/*--------------------------------*- C++ -*----------------------------------*\
  =========                 |
  \\      /  F ield         | OpenFOAM: The Open Source CFD Toolbox
   \\    /   O peration     | Website:  https://openfoam.org
    \\  /    A nd           | Version:  7
     \\/     M anipulation  |
\*---------------------------------------------------------------------------*/
FoamFile
{
    version     2.0;
    format      ascii;
    class       volVectorField;
    location    "4";
    object      U;
}
// * * * * * * * * * * * * * * * * * * * * * * * * * * * * * * * * * * * * * //

dimensions      [0 1 -1 0 0 0 0];

internalField   nonuniform List<vector> 
18432
(
(3 -8.33725e-18 0)
(3 3.23322e-17 0)
(3 -2.97696e-16 0)
(3 -4.86557e-16 0)
(3 -6.81101e-16 0)
(3 -3.60827e-16 0)
(3 -3.19825e-17 0)
(3 8.90913e-16 0)
(3 1.5004e-15 0)
(3 1.38606e-15 0)
(3 6.67396e-16 0)
(3 1.26776e-16 0)
(3 -6.43481e-17 0)
(3 -6.86935e-16 0)
(3 -1.29798e-15 0)
(3 -1.59162e-15 0)
(3 -1.27003e-15 0)
(3 -1.25822e-15 0)
(3 -1.28155e-15 0)
(3 -1.47039e-15 0)
(3 -2.03392e-15 0)
(3 -2.46393e-15 0)
(3 -1.21415e-15 0)
(3 -7.8664e-16 0)
(3 1.55135e-16 0)
(3 1.30644e-15 0)
(3 3.04374e-16 0)
(3 -6.13176e-16 0)
(3 -4.31433e-16 0)
(3 -1.43143e-16 0)
(3 -2.34133e-16 0)
(3 -4.02695e-16 0)
(3 -8.75696e-16 0)
(3 -9.03873e-16 0)
(3 -1.04837e-15 0)
(3 -3.35131e-16 0)
(3 -1.68476e-16 0)
(3 -1.17767e-16 0)
(3 -5.48227e-17 0)
(3 -5.51969e-16 0)
(3 -6.98006e-16 0)
(3 -9.01653e-16 0)
(3 -6.41354e-16 0)
(3 -2.32433e-16 0)
(3 2.96303e-16 0)
(3 1.02838e-16 0)
(3 -4.83047e-16 0)
(3 -4.32873e-16 0)
(3 -2.02843e-16 0)
(3 6.12289e-17 0)
(3 -2.12915e-16 0)
(3 -6.29223e-16 0)
(3 -9.42755e-16 0)
(3 -1.57744e-15 0)
(3 -1.09766e-15 0)
(3 5.54788e-16 0)
(3 1.2484e-15 0)
(3 1.15535e-15 0)
(3 -2.55244e-16 0)
(3 -1.07742e-15 0)
(3 -7.15571e-16 0)
(3 -1.37241e-15 0)
(3 -1.77999e-15 0)
(3 -1.56709e-15 0)
(3 -1.08138e-15 0)
(3 -8.50183e-16 0)
(3 -1.99442e-15 0)
(3 -3.20092e-15 0)
(3 -3.14482e-15 0)
(3 -2.98907e-15 0)
(3 -2.22384e-15 0)
(3 -8.32262e-16 0)
(3 1.42233e-16 0)
(3 1.21408e-15 0)
(3 -7.72624e-17 0)
(3 -5.80133e-16 0)
(3 -4.74432e-16 0)
(3 -3.27191e-16 0)
(3 -5.28292e-16 0)
(3 -5.00844e-16 0)
(3 -3.44896e-16 0)
(3 -9.56107e-16 0)
(3 -1.45183e-15 0)
(3 -1.69991e-15 0)
(3 -9.49959e-16 0)
(3 4.71748e-16 0)
(3 8.06886e-16 0)
(3 2.88426e-16 0)
(3 -2.58896e-16 0)
(3 -3.70725e-16 0)
(3 -1.09149e-16 0)
(3 5.97279e-16 0)
(3 1.46137e-15 0)
(3 9.29994e-16 0)
(3 -5.22295e-17 0)
(3 -1.23597e-15 0)
(3 -7.87517e-17 0)
(3 -8.10624e-17 0)
(3 -5.34546e-17 0)
(3 4.2794e-17 0)
(3 -1.32365e-16 0)
(3 -7.78557e-16 0)
(3 -7.74789e-16 0)
(3 -1.56139e-16 0)
(3 -2.30895e-16 0)
(3 -1.00151e-15 0)
(3 -1.72371e-15 0)
(3 -2.79001e-15 0)
(3 -2.34712e-15 0)
(3 -2.03109e-15 0)
(3 -2.12364e-15 0)
(3 -2.2914e-15 0)
(3 -1.76586e-15 0)
(3 -1.44828e-15 0)
(3 -1.4791e-15 0)
(3 -1.29331e-15 0)
(3 -6.18593e-16 0)
(3 -3.29461e-19 0)
(3 -3.26243e-16 0)
(3 -1.34448e-15 0)
(3 -1.10201e-15 0)
(3 -1.10499e-15 0)
(3 -1.31212e-15 0)
(3 -2.49413e-16 0)
(3 5.45087e-16 0)
(3 2.55449e-16 0)
(3 -6.93273e-16 0)
(3 -6.0448e-16 0)
(3 3.02767e-16 0)
(3 5.25532e-16 0)
(3 -5.80239e-16 0)
(3 -1.7288e-15 0)
(3 -1.27587e-15 0)
(3 4.43574e-16 0)
(3 1.06034e-15 0)
(3 1.30572e-15 0)
(3 1.08825e-15 0)
(3 8.60994e-16 0)
(3 1.11145e-15 0)
(3 1.26611e-15 0)
(3 9.42784e-16 0)
(3 7.95845e-16 0)
(3 1.09065e-15 0)
(3 6.97045e-16 0)
(3 1.30674e-16 0)
(3 8.95238e-17 0)
(3 -5.13434e-17 0)
(3 -9.87345e-17 0)
(3 9.39611e-17 0)
(3 5.73792e-16 0)
(3 3.28374e-16 0)
(3 -2.88596e-16 0)
(3 -8.53677e-16 0)
(3 -8.0122e-16 0)
(3 -8.13652e-16 0)
(3 -7.52115e-16 0)
(3 -9.7116e-16 0)
(3 -1.13437e-15 0)
(3 -1.4345e-15 0)
(3 -1.433e-15 0)
(3 -1.3268e-15 0)
(3 -1.36736e-15 0)
(3 -7.28578e-16 0)
(3 -3.6037e-16 0)
(3 -3.53063e-16 0)
(3 -4.79217e-16 0)
(3 -9.55564e-16 0)
(3 -1.48384e-15 0)
(3 -1.95949e-15 0)
(3 -1.38258e-15 0)
(3 -2.77094e-16 0)
(3 2.76485e-16 0)
(3 5.71804e-16 0)
(3 6.26588e-16 0)
(3 -3.54461e-16 0)
(3 -1.21631e-16 0)
(3 2.63338e-16 0)
(3 5.06893e-16 0)
(3 2.11767e-16 0)
(3 -4.38049e-16 0)
(3 -7.14954e-16 0)
(3 -1.08329e-15 0)
(3 -8.295e-16 0)
(3 -3.33736e-16 0)
(3 3.92971e-16 0)
(3 1.03172e-15 0)
(3 1.09164e-15 0)
(3 4.04131e-16 0)
(3 -2.92832e-16 0)
(3 4.96531e-17 0)
(3 8.17701e-16 0)
(3 1.20778e-15 0)
(3 -1.05483e-17 0)
(3 9.13906e-17 0)
(3 -1.15115e-16 0)
(3 -2.86331e-16 0)
(3 1.79373e-17 0)
(3 2.22902e-16 0)
(3 1.50447e-16 0)
(3 -8.48612e-16 0)
(3 -1.99056e-15 0)
(3 -1.7412e-15 0)
(3 -6.43033e-16 0)
(3 2.90591e-16 0)
(3 -9.8664e-17 0)
(3 -4.33357e-16 0)
(3 4.38643e-17 0)
(3 7.63812e-16 0)
(3 8.54235e-17 0)
(3 -6.66017e-19 0)
(3 1.46801e-16 0)
(3 4.56966e-17 0)
(3 -1.37103e-15 0)
(3 -1.59264e-15 0)
(3 -1.24359e-15 0)
(3 -8.89802e-16 0)
(3 -1.52447e-15 0)
(3 -5.61125e-16 0)
(3 3.01731e-16 0)
(3 6.80416e-16 0)
(3 7.09014e-16 0)
(3 5.75286e-16 0)
(3 -2.61843e-16 0)
(3 -5.21239e-16 0)
(3 -1.84655e-16 0)
(3 3.80176e-17 0)
(3 1.68093e-16 0)
(3 1.41178e-18 0)
(3 -2.89416e-16 0)
(3 -9.45299e-16 0)
(3 -1.12581e-15 0)
(3 -1.03973e-15 0)
(3 -1.14089e-15 0)
(3 -8.55882e-16 0)
(3 -1.474e-16 0)
(3 -2.27347e-16 0)
(3 5.96954e-17 0)
(3 4.48914e-16 0)
(3 1.28673e-15 0)
(3 6.92605e-16 0)
(3 5.09503e-17 0)
(3 -2.86064e-16 0)
(3 -2.67727e-16 0)
(3 1.11761e-16 0)
(3 4.9488e-16 0)
(3 4.02499e-17 0)
(3 -4.77641e-16 0)
(3 -1.43002e-15 0)
(3 -2.75777e-15 0)
(3 -2.49946e-15 0)
(3 -1.54842e-15 0)
(3 -7.29501e-16 0)
(3 -1.07389e-15 0)
(3 -9.06089e-16 0)
(3 -1.00555e-16 0)
(3 -5.82585e-17 0)
(3 7.41555e-16 0)
(3 1.07891e-15 0)
(3 9.40198e-16 0)
(3 2.3533e-16 0)
(3 -1.22684e-15 0)
(3 -6.9347e-16 0)
(3 -1.81665e-16 0)
(3 5.53299e-16 0)
(3 1.18952e-15 0)
(3 1.50471e-15 0)
(3 1.01586e-15 0)
(3 6.62685e-17 0)
(3 -2.11814e-16 0)
(3 -5.3876e-16 0)
(3 -6.68225e-16 0)
(3 -1.1206e-15 0)
(3 -1.10164e-15 0)
(3 -9.95912e-16 0)
(3 -7.61909e-16 0)
(3 -9.92315e-16 0)
(3 -1.03182e-15 0)
(3 -1.5669e-15 0)
(3 -1.99374e-15 0)
(3 -2.12517e-15 0)
(3 -2.08603e-15 0)
(3 -2.09133e-16 0)
(3 1.07058e-15 0)
(3 7.98082e-16 0)
(3 9.26279e-16 0)
(3 1.34383e-15 0)
(3 2.44865e-15 0)
(3 2.88746e-15 0)
(3 -8.631e-17 0)
(3 -2.98733e-16 0)
(3 -9.86306e-17 0)
(3 7.17604e-16 0)
(3 5.87262e-16 0)
(3 4.82711e-17 0)
(3 -7.10862e-16 0)
(3 -8.92206e-16 0)
(3 -4.32226e-16 0)
(3 -7.78865e-16 0)
(3 -9.84066e-16 0)
(3 -1.17983e-15 0)
(3 -1.38117e-15 0)
(3 -8.30948e-16 0)
(3 -3.1389e-16 0)
(3 -6.13495e-17 0)
(3 4.35419e-16 0)
(3 1.16882e-15 0)
(3 1.52927e-15 0)
(3 1.20151e-15 0)
(3 2.10939e-16 0)
(3 3.01466e-16 0)
(3 7.82892e-16 0)
(3 1.06856e-15 0)
(3 1.79313e-15 0)
(3 2.49358e-15 0)
(3 1.88609e-15 0)
(3 7.24845e-16 0)
(3 -6.64902e-16 0)
(3 -7.57415e-16 0)
(3 7.57343e-16 0)
(3 3.5977e-16 0)
(3 -1.5454e-15 0)
(3 -8.48257e-16 0)
(3 2.43633e-16 0)
(3 3.53597e-16 0)
(3 -4.39179e-16 0)
(3 -1.76976e-15 0)
(3 -2.36529e-15 0)
(3 -2.84039e-15 0)
(3 -1.8771e-15 0)
(3 1.80023e-16 0)
(3 3.28915e-16 0)
(3 2.03416e-15 0)
(3 2.16963e-15 0)
(3 1.71814e-15 0)
(3 1.7191e-15 0)
(3 2.14531e-15 0)
(3 -2.38221e-17 0)
(3 3.75451e-16 0)
(3 7.67912e-16 0)
(3 1.39698e-15 0)
(3 5.29426e-16 0)
(3 -3.57e-16 0)
(3 -3.24369e-16 0)
(3 1.71336e-17 0)
(3 9.98243e-16 0)
(3 8.31126e-16 0)
(3 3.06143e-17 0)
(3 1.03908e-16 0)
(3 5.97445e-16 0)
(3 8.1254e-16 0)
(3 7.84654e-16 0)
(3 7.75501e-16 0)
(3 7.54588e-16 0)
(3 1.01612e-15 0)
(3 5.67891e-16 0)
(3 1.31953e-16 0)
(3 -2.73151e-16 0)
(3 -8.02387e-16 0)
(3 -1.32227e-16 0)
(3 4.54251e-16 0)
(3 8.93265e-16 0)
(3 1.12715e-15 0)
(3 1.14802e-15 0)
(3 1.05502e-15 0)
(3 9.49623e-16 0)
(3 1.12628e-15 0)
(3 1.09261e-15 0)
(3 1.07751e-15 0)
(3 -3.44905e-16 0)
(3 4.07961e-17 0)
(3 2.27705e-16 0)
(3 8.71701e-16 0)
(3 3.75832e-16 0)
(3 1.35106e-15 0)
(3 7.91143e-16 0)
(3 7.09495e-16 0)
(3 1.618e-16 0)
(3 -8.92818e-16 0)
(3 -8.05299e-16 0)
(3 -1.3019e-16 0)
(3 7.12849e-16 0)
(3 6.50572e-16 0)
(3 3.8494e-16 0)
(3 -4.617e-16 0)
(3 1.54235e-16 0)
(3 4.45628e-16 0)
(3 3.54048e-16 0)
(3 -1.08507e-16 0)
(3 -2.05303e-16 0)
(3 -3.93407e-17 0)
(3 2.39544e-16 0)
(3 1.02791e-15 0)
(3 1.64744e-15 0)
(3 2.17148e-15 0)
(3 1.43999e-15 0)
(3 1.55229e-15 0)
(3 1.17692e-15 0)
(3 9.37714e-16 0)
(3 1.22061e-15 0)
(3 1.45275e-15 0)
(3 1.08836e-15 0)
(3 1.07894e-15 0)
(3 1.01588e-15 0)
(3 -6.51895e-16 0)
(3 -7.79414e-16 0)
(3 -1.18522e-15 0)
(3 -6.86638e-16 0)
(3 5.36339e-16 0)
(3 7.88096e-16 0)
(3 6.99016e-16 0)
(3 4.46228e-16 0)
(3 1.07884e-15 0)
(3 2.4489e-15 0)
(3 2.02619e-15 0)
(3 5.1087e-16 0)
(3 9.00335e-17 0)
(3 6.77076e-16 0)
(3 6.07163e-16 0)
(3 8.47013e-16 0)
(3 9.12312e-16 0)
(3 1.82706e-15 0)
(3 3.00493e-15 0)
(3 2.80294e-15 0)
(3 1.18619e-15 0)
(3 4.01487e-16 0)
(3 -1.86748e-16 0)
(3 -7.80136e-16 0)
(3 -1.04546e-15 0)
(3 -9.24796e-16 0)
(3 -9.34498e-16 0)
(3 -1.52764e-15 0)
(3 -1.9726e-15 0)
(3 -8.67312e-17 0)
(3 -4.97586e-17 0)
(3 -4.81167e-16 0)
(3 -1.10029e-15 0)
(3 -9.20282e-16 0)
(3 -2.63128e-16 0)
(3 3.87655e-16 0)
(3 9.4647e-16 0)
(3 1.22279e-15 0)
(3 1.89379e-15 0)
(3 1.53087e-15 0)
(3 6.43082e-16 0)
(3 1.23075e-16 0)
(3 4.32664e-16 0)
(3 8.88811e-16 0)
(3 1.18445e-15 0)
(3 5.79584e-16 0)
(3 4.93612e-17 0)
(3 1.28535e-16 0)
(3 6.83117e-17 0)
(3 -6.85014e-17 0)
(3 4.54796e-16 0)
(3 1.05802e-15 0)
(3 4.62824e-16 0)
(3 4.56863e-16 0)
(3 2.51101e-16 0)
(3 1.99183e-16 0)
(3 8.47059e-16 0)
(3 1.25731e-15 0)
(3 1.192e-15 0)
(3 6.59221e-16 0)
(3 4.04701e-16 0)
(3 1.10571e-15 0)
(3 1.56064e-15 0)
(3 2.3199e-15 0)
(3 2.8551e-15 0)
(3 3.16662e-15 0)
(3 3.68531e-15 0)
(3 4.70648e-15 0)
(3 4.06745e-15 0)
(3 2.93244e-15 0)
(3 5.60839e-16 0)
(3 -6.04188e-16 0)
(3 -1.47153e-15 0)
(3 -1.7414e-15 0)
(3 -1.98241e-15 0)
(3 -2.53881e-15 0)
(3 -2.01232e-15 0)
(3 1.09262e-16 0)
(3 7.61711e-17 0)
(3 -2.42767e-16 0)
(3 -6.01665e-16 0)
(3 -3.02898e-16 0)
(3 2.73539e-16 0)
(3 5.32141e-16 0)
(3 7.35824e-16 0)
(3 6.61537e-16 0)
(3 6.07571e-16 0)
(3 1.9855e-16 0)
(3 3.2139e-16 0)
(3 1.15618e-15 0)
(3 9.52441e-16 0)
(3 3.61776e-16 0)
(3 4.48855e-16 0)
(3 5.04938e-16 0)
(3 1.45627e-16 0)
(3 2.49959e-19 0)
(3 1.151e-15 0)
(3 1.51196e-15 0)
(3 1.76602e-15 0)
(3 1.33362e-15 0)
(3 6.89447e-16 0)
(3 4.38844e-16 0)
(3 1.95325e-16 0)
(3 -1.58965e-16 0)
(3 -6.06263e-16 0)
(3 -1.48997e-15 0)
(3 -1.43187e-15 0)
(3 -4.50927e-16 0)
(3 5.32574e-16 0)
(3 1.37781e-15 0)
(3 2.49066e-15 0)
(3 3.18387e-15 0)
(3 3.45436e-15 0)
(3 2.52112e-15 0)
(3 2.21033e-15 0)
(3 2.12713e-15 0)
(3 2.33783e-15 0)
(3 1.94538e-15 0)
(3 1.35164e-15 0)
(3 8.46669e-16 0)
(3 7.91229e-16 0)
(3 1.8842e-16 0)
(3 6.52209e-16 0)
(3 1.04415e-15 0)
(3 9.99133e-16 0)
(3 -2.41477e-17 0)
(3 6.15079e-17 0)
(3 -8.14047e-17 0)
(3 -5.76528e-17 0)
(3 -4.02127e-17 0)
(3 2.93544e-16 0)
(3 3.318e-16 0)
(3 3.05926e-16 0)
(3 3.93821e-16 0)
(3 4.43043e-18 0)
(3 1.76196e-16 0)
(3 7.79357e-16 0)
(3 1.78625e-15 0)
(3 1.36702e-15 0)
(3 7.88848e-16 0)
(3 8.08209e-16 0)
(3 1.56046e-15 0)
(3 2.20851e-15 0)
(3 1.16983e-15 0)
(3 1.93844e-15 0)
(3 2.41034e-15 0)
(3 2.209e-15 0)
(3 1.56101e-15 0)
(3 1.01798e-15 0)
(3 7.52455e-16 0)
(3 -3.49782e-16 0)
(3 -1.53826e-15 0)
(3 -2.21538e-15 0)
(3 -2.6171e-15 0)
(3 -2.40286e-15 0)
(3 -1.37527e-15 0)
(3 -3.75682e-16 0)
(3 -1.28931e-16 0)
(3 1.20843e-15 0)
(3 1.00556e-15 0)
(3 8.66004e-17 0)
(3 -4.86566e-16 0)
(3 -1.31295e-15 0)
(3 -2.27639e-15 0)
(3 -1.91815e-15 0)
(3 -8.10283e-16 0)
(3 4.86648e-16 0)
(3 1.35983e-15 0)
(3 1.39063e-15 0)
(3 1.21574e-15 0)
(3 1.14235e-15 0)
(3 1.29747e-15 0)
(3 9.66592e-16 0)
(3 -5.88414e-17 0)
(3 1.43183e-17 0)
(3 -2.78576e-17 0)
(3 -1.37054e-16 0)
(3 -4.93052e-16 0)
(3 -1.17203e-17 0)
(3 6.79148e-16 0)
(3 7.37791e-16 0)
(3 8.35582e-16 0)
(3 4.43919e-16 0)
(3 -2.1022e-16 0)
(3 3.96622e-16 0)
(3 9.48561e-16 0)
(3 1.25842e-15 0)
(3 8.60185e-16 0)
(3 2.49681e-16 0)
(3 5.82546e-16 0)
(3 9.31141e-16 0)
(3 3.01652e-16 0)
(3 3.71595e-16 0)
(3 5.98747e-16 0)
(3 2.93717e-16 0)
(3 4.12159e-16 0)
(3 2.75321e-16 0)
(3 2.73103e-16 0)
(3 1.31812e-16 0)
(3 3.48138e-16 0)
(3 3.0667e-16 0)
(3 3.49621e-17 0)
(3 5.30586e-16 0)
(3 7.24694e-16 0)
(3 2.01405e-16 0)
(3 -3.44285e-16 0)
(3 -2.47158e-16 0)
(3 -2.8502e-16 0)
(3 -4.07039e-16 0)
(3 -4.31695e-16 0)
(3 -1.51259e-15 0)
(3 -2.04065e-15 0)
(3 -2.17455e-15 0)
(3 -1.40157e-15 0)
(3 5.38359e-16 0)
(3 1.87646e-15 0)
(3 1.50989e-15 0)
(3 -2.6009e-16 0)
(3 -9.40067e-16 0)
(3 -8.03067e-16 0)
(3 -7.47443e-16 0)
(3 8.4775e-17 0)
(3 -1.37395e-16 0)
(3 -1.33036e-16 0)
(3 -2.37778e-16 0)
(3 -3.60391e-17 0)
(3 7.48381e-17 0)
(3 1.35939e-16 0)
(3 3.11139e-16 0)
(3 -9.34578e-17 0)
(3 -3.22379e-16 0)
(3 -4.81465e-16 0)
(3 -9.05026e-16 0)
(3 -9.05704e-16 0)
(3 -1.15534e-15 0)
(3 -9.56429e-16 0)
(3 -6.70478e-16 0)
(3 -4.40688e-16 0)
(3 -7.37692e-16 0)
(3 -6.00241e-16 0)
(3 4.19736e-16 0)
(3 5.57369e-16 0)
(3 3.36531e-16 0)
(3 2.29184e-16 0)
(3 5.11073e-16 0)
(3 3.97242e-16 0)
(3 6.13304e-16 0)
(3 1.43094e-15 0)
(3 2.35432e-15 0)
(3 2.61794e-15 0)
(3 1.91723e-15 0)
(3 1.40476e-15 0)
(3 1.27347e-15 0)
(3 9.09917e-16 0)
(3 3.27248e-16 0)
(3 4.00314e-16 0)
(3 1.21343e-15 0)
(3 1.44675e-15 0)
(3 1.17811e-16 0)
(3 -3.57773e-17 0)
(3 4.1234e-16 0)
(3 6.23242e-16 0)
(3 1.44644e-15 0)
(3 2.44993e-15 0)
(3 2.13166e-15 0)
(3 7.29586e-16 0)
(3 -1.25304e-15 0)
(3 -1.5187e-15 0)
(3 -6.1779e-16 0)
(3 -6.61471e-17 0)
(3 -6.21147e-16 0)
(3 -2.56383e-16 0)
(3 2.18405e-16 0)
(3 8.91074e-16 0)
(3 5.02313e-16 0)
(3 -1.5256e-17 0)
(3 -6.65927e-16 0)
(3 -9.01042e-16 0)
(3 -5.94516e-16 0)
(3 -7.07234e-16 0)
(3 -1.17932e-15 0)
(3 -2.2103e-15 0)
(3 -2.36406e-15 0)
(3 -1.39674e-15 0)
(3 -6.41161e-16 0)
(3 -4.72744e-16 0)
(3 -7.60792e-16 0)
(3 -8.76901e-16 0)
(3 5.51583e-16 0)
(3 1.30856e-15 0)
(3 1.80327e-15 0)
(3 2.08434e-15 0)
(3 1.55634e-15 0)
(3 7.45899e-16 0)
(3 3.36183e-16 0)
(3 2.34989e-16 0)
(3 4.02038e-16 0)
(3 9.05449e-16 0)
(3 9.20233e-16 0)
(3 5.49914e-16 0)
(3 1.04378e-15 0)
(3 1.56968e-16 0)
(3 -1.22614e-15 0)
(3 -1.04941e-15 0)
(3 -4.22298e-16 0)
(3 -1.3302e-16 0)
(3 -1.15147e-16 0)
(3 2.17996e-16 0)
(3 6.0787e-16 0)
(3 4.70754e-16 0)
(3 2.68395e-16 0)
(3 5.53878e-16 0)
(3 7.10136e-16 0)
(3 7.48507e-16 0)
(3 -1.53125e-16 0)
(3 4.91865e-16 0)
(3 1.25499e-15 0)
(3 8.84876e-17 0)
(3 -1.6638e-16 0)
(3 -1.87956e-17 0)
(3 3.77315e-16 0)
(3 2.77041e-16 0)
(3 1.21001e-16 0)
(3 2.44584e-16 0)
(3 4.11617e-16 0)
(3 4.53352e-16 0)
(3 4.49704e-16 0)
(3 1.98354e-16 0)
(3 -1.14674e-15 0)
(3 -2.08673e-15 0)
(3 -3.25599e-16 0)
(3 8.54292e-16 0)
(3 6.24631e-16 0)
(3 -9.69984e-17 0)
(3 -4.84169e-16 0)
(3 2.80399e-16 0)
(3 5.19547e-16 0)
(3 1.43475e-15 0)
(3 2.44825e-15 0)
(3 2.8164e-15 0)
(3 2.26914e-15 0)
(3 1.47375e-15 0)
(3 2.26588e-17 0)
(3 -3.94731e-16 0)
(3 -9.78582e-16 0)
(3 -1.72978e-15 0)
(3 -1.99935e-15 0)
(3 -1.20624e-15 0)
(3 -1.00803e-16 0)
(3 -4.51398e-16 0)
(3 -1.50133e-15 0)
(3 -2.69826e-15 0)
(3 -2.69713e-15 0)
(3 -1.78725e-15 0)
(3 -4.42362e-16 0)
(3 5.25319e-16 0)
(3 -5.84688e-16 0)
(3 -8.10028e-16 0)
(3 -6.29115e-16 0)
(3 -9.82595e-16 0)
(3 -1.11256e-16 0)
(3 4.05855e-16 0)
(3 1.13882e-15 0)
(3 1.39406e-15 0)
(3 9.52959e-16 0)
(3 -4.29782e-17 0)
(3 2.43371e-16 0)
(3 1.71754e-16 0)
(3 1.27217e-16 0)
(3 -3.16007e-16 0)
(3 -1.02527e-15 0)
(3 -1.07554e-15 0)
(3 -5.59665e-16 0)
(3 -8.26287e-17 0)
(3 6.82469e-16 0)
(3 1.09911e-15 0)
(3 8.39409e-16 0)
(3 9.47961e-16 0)
(3 7.05871e-16 0)
(3 5.19383e-16 0)
(3 4.90226e-16 0)
(3 4.94428e-16 0)
(3 3.45808e-16 0)
(3 3.1293e-16 0)
(3 5.47368e-16 0)
(3 1.04178e-15 0)
(3 1.85585e-15 0)
(3 1.91246e-15 0)
(3 1.57123e-15 0)
(3 4.05486e-16 0)
(3 -7.04329e-16 0)
(3 -1.32616e-15 0)
(3 -2.25078e-15 0)
(3 -2.6718e-15 0)
(3 -2.72696e-15 0)
(3 -1.53249e-15 0)
(3 -4.3434e-16 0)
(3 1.76199e-16 0)
(3 1.19615e-16 0)
(3 1.50485e-16 0)
(3 -2.97771e-16 0)
(3 6.77369e-17 0)
(3 6.79827e-16 0)
(3 9.64396e-16 0)
(3 7.15731e-16 0)
(3 8.87522e-16 0)
(3 1.44803e-15 0)
(3 1.24431e-15 0)
(3 7.1797e-16 0)
(3 5.58861e-16 0)
(3 1.21325e-15 0)
(3 -1.19989e-16 0)
(3 -1.04983e-15 0)
(3 -3.7857e-16 0)
(3 -6.088e-18 0)
(3 -2.11808e-16 0)
(3 -3.95613e-16 0)
(3 -2.30856e-16 0)
(3 8.42591e-18 0)
(3 -2.59394e-16 0)
(3 -8.95195e-16 0)
(3 -7.54556e-16 0)
(3 -5.27315e-16 0)
(3 8.39417e-16 0)
(3 1.57879e-15 0)
(3 1.92303e-15 0)
(3 6.71466e-16 0)
(3 -2.26942e-16 0)
(3 -4.91393e-17 0)
(3 2.72733e-16 0)
(3 8.49116e-16 0)
(3 1.04633e-15 0)
(3 2.001e-15 0)
(3 1.81608e-15 0)
(3 1.84681e-15 0)
(3 2.48391e-15 0)
(3 1.77211e-15 0)
(3 1.79398e-15 0)
(3 1.59427e-15 0)
(3 -1.12278e-15 0)
(3 -1.57807e-15 0)
(3 -1.31201e-15 0)
(3 -5.81955e-16 0)
(3 -7.46873e-16 0)
(3 -5.00898e-16 0)
(3 1.03819e-15 0)
(3 2.14401e-15 0)
(3 3.0784e-15 0)
(3 3.60456e-15 0)
(3 2.79057e-15 0)
(3 2.18648e-15 0)
(3 1.87317e-15 0)
(3 8.74751e-16 0)
(3 8.04214e-16 0)
(3 7.27011e-16 0)
(3 1.61191e-15 0)
(3 1.51428e-15 0)
(3 1.27399e-15 0)
(3 8.49323e-16 0)
(3 -1.21033e-16 0)
(3 -4.17315e-16 0)
(3 2.68688e-16 0)
(3 -3.2144e-17 0)
(3 -4.89246e-18 0)
(3 -8.89368e-17 0)
(3 -4.16765e-17 0)
(3 1.09236e-15 0)
(3 1.34931e-15 0)
(3 1.20326e-15 0)
(3 1.15023e-15 0)
(3 5.87753e-16 0)
(3 3.30122e-16 0)
(3 5.16694e-16 0)
(3 4.94689e-16 0)
(3 7.00216e-16 0)
(3 -1.1321e-16 0)
(3 1.07423e-16 0)
(3 3.07732e-16 0)
(3 3.1091e-16 0)
(3 1.0701e-15 0)
(3 1.32108e-15 0)
(3 1.05734e-15 0)
(3 1.28043e-15 0)
(3 8.33607e-16 0)
(3 8.63087e-16 0)
(3 1.30614e-15 0)
(3 1.87017e-15 0)
(3 1.39603e-15 0)
(3 9.39764e-16 0)
(3 4.9914e-16 0)
(3 3.04038e-16 0)
(3 2.15457e-17 0)
(3 2.16637e-16 0)
(3 9.60608e-16 0)
(3 1.69085e-15 0)
(3 1.64041e-15 0)
(3 1.63197e-15 0)
(3 1.97066e-15 0)
(3 2.52022e-15 0)
(3 2.36153e-15 0)
(3 1.61963e-15 0)
(3 1.09687e-15 0)
(3 1.01286e-15 0)
(3 1.34559e-15 0)
(3 2.13792e-15 0)
(3 2.2594e-15 0)
(3 1.10034e-15 0)
(3 1.87947e-16 0)
(3 -1.52952e-16 0)
(3 1.09974e-16 0)
(3 -2.49837e-16 0)
(3 2.30023e-16 0)
(3 8.42493e-16 0)
(3 3.5772e-16 0)
(3 9.68791e-16 0)
(3 9.94253e-16 0)
(3 1.2287e-15 0)
(3 9.14658e-16 0)
(3 2.92582e-16 0)
(3 -6.23054e-16 0)
(3 -2.57777e-16 0)
(3 1.19623e-15 0)
(3 1.21363e-15 0)
(3 5.66245e-16 0)
(3 7.93985e-16 0)
(3 1.79237e-15 0)
(3 1.65857e-15 0)
(3 7.5839e-16 0)
(3 -8.20928e-17 0)
(3 -2.55366e-16 0)
(3 -4.49329e-16 0)
(3 -9.98744e-16 0)
(3 -1.90509e-16 0)
(3 8.54741e-16 0)
(3 1.00301e-15 0)
(3 2.33836e-15 0)
(3 1.85497e-15 0)
(3 1.88259e-15 0)
(3 1.55231e-15 0)
(3 1.35558e-15 0)
(3 5.9199e-16 0)
(3 -8.05402e-17 0)
(3 -1.70487e-16 0)
(3 4.41944e-16 0)
(3 9.60447e-16 0)
(3 1.59714e-15 0)
(3 1.89739e-15 0)
(3 2.41464e-15 0)
(3 3.11571e-15 0)
(3 3.40528e-15 0)
(3 2.53027e-15 0)
(3 2.13662e-15 0)
(3 2.43993e-15 0)
(3 1.74402e-15 0)
(3 8.72619e-16 0)
(3 4.68649e-16 0)
(3 -2.22822e-16 0)
(3 -1.13558e-16 0)
(3 7.25857e-17 0)
(3 1.3711e-16 0)
(3 2.21795e-16 0)
(3 5.22816e-16 0)
(3 1.28996e-16 0)
(3 -1.56693e-16 0)
(3 -4.99473e-16 0)
(3 -1.08232e-15 0)
(3 -1.09621e-15 0)
(3 -6.95362e-16 0)
(3 -3.3052e-16 0)
(3 6.00836e-16 0)
(3 9.23511e-16 0)
(3 1.00541e-15 0)
(3 6.38511e-17 0)
(3 1.0735e-16 0)
(3 6.52418e-16 0)
(3 5.58576e-16 0)
(3 2.58673e-16 0)
(3 -2.28969e-16 0)
(3 -1.45463e-15 0)
(3 -1.12208e-15 0)
(3 -5.52156e-16 0)
(3 4.47507e-16 0)
(3 7.33876e-16 0)
(3 1.42233e-15 0)
(3 1.75473e-15 0)
(3 1.71558e-15 0)
(3 1.98189e-15 0)
(3 1.42318e-15 0)
(3 2.66009e-16 0)
(3 1.07636e-16 0)
(3 3.06019e-16 0)
(3 6.99577e-16 0)
(3 1.87966e-15 0)
(3 2.65191e-15 0)
(3 1.91826e-15 0)
(3 1.79719e-15 0)
(3 2.28827e-15 0)
(3 2.92597e-15 0)
(3 2.74329e-15 0)
(3 1.67998e-15 0)
(3 1.24939e-15 0)
(3 7.19224e-16 0)
(3 7.03627e-16 0)
(3 7.98762e-16 0)
(3 2.12281e-16 0)
(3 -1.16496e-16 0)
(3 2.97243e-16 0)
(3 2.16841e-16 0)
(3 -7.19608e-17 0)
(3 1.75254e-16 0)
(3 -1.03673e-15 0)
(3 -8.97874e-16 0)
(3 -8.45741e-16 0)
(3 -5.09502e-16 0)
(3 -5.482e-18 0)
(3 1.22048e-15 0)
(3 6.96714e-16 0)
(3 6.13818e-17 0)
(3 1.41905e-16 0)
(3 2.85778e-16 0)
(3 -6.67098e-16 0)
(3 -1.31282e-15 0)
(3 -1.10188e-15 0)
(3 -4.26275e-16 0)
(3 -7.60889e-17 0)
(3 -3.97609e-16 0)
(3 -1.23834e-15 0)
(3 -2.04351e-15 0)
(3 -2.49112e-15 0)
(3 -2.24449e-15 0)
(3 -1.84587e-15 0)
(3 -6.09265e-16 0)
(3 7.87945e-16 0)
(3 3.30706e-16 0)
(3 1.34612e-16 0)
(3 -3.92746e-16 0)
(3 -5.2176e-16 0)
(3 -2.03599e-16 0)
(3 -1.21692e-16 0)
(3 4.90197e-16 0)
(3 1.23632e-15 0)
(3 1.95108e-15 0)
(3 1.30653e-15 0)
(3 5.21178e-16 0)
(3 1.19934e-16 0)
(3 8.16889e-16 0)
(3 1.41623e-15 0)
(3 7.33938e-16 0)
(3 -1.06177e-16 0)
(3 1.03257e-17 0)
(3 4.67782e-16 0)
(3 3.78459e-16 0)
(3 6.55982e-17 0)
(3 2.14832e-17 0)
(3 3.6915e-17 0)
(3 1.17496e-16 0)
(3 1.70126e-16 0)
(3 -1.39594e-16 0)
(3 -6.83109e-16 0)
(3 -5.41619e-16 0)
(3 4.84907e-17 0)
(3 7.30223e-16 0)
(3 9.26924e-16 0)
(3 1.33328e-15 0)
(3 1.05008e-15 0)
(3 7.81584e-16 0)
(3 -1.25776e-16 0)
(3 -6.3992e-16 0)
(3 -6.19146e-16 0)
(3 -1.50185e-15 0)
(3 -2.21019e-15 0)
(3 -1.88121e-15 0)
(3 -2.05521e-15 0)
(3 -2.21154e-15 0)
(3 -2.09322e-15 0)
(3 -2.59999e-15 0)
(3 -1.77706e-15 0)
(3 -9.36448e-16 0)
(3 -6.2023e-16 0)
(3 -3.18223e-17 0)
(3 2.56411e-16 0)
(3 -2.65876e-16 0)
(3 -1.53834e-15 0)
(3 -1.53672e-15 0)
(3 -9.83867e-16 0)
(3 -6.27803e-16 0)
(3 -4.82825e-16 0)
(3 8.81324e-17 0)
(3 4.52101e-16 0)
(3 4.58812e-16 0)
(3 6.99568e-16 0)
(3 9.44346e-16 0)
(3 1.29894e-15 0)
(3 1.15501e-15 0)
(3 4.13812e-16 0)
(3 2.62128e-16 0)
(3 1.27592e-16 0)
(3 -1.70733e-16 0)
(3 4.9034e-17 0)
(3 7.94898e-16 0)
(3 1.51898e-15 0)
(3 -1.88978e-17 0)
(3 4.29334e-18 0)
(3 1.51453e-16 0)
(3 2.11414e-16 0)
(3 -7.38815e-17 0)
(3 -2.35602e-16 0)
(3 1.7166e-16 0)
(3 5.11357e-16 0)
(3 7.74843e-16 0)
(3 1.31907e-15 0)
(3 8.4244e-16 0)
(3 4.84112e-16 0)
(3 4.8225e-16 0)
(3 8.49827e-17 0)
(3 -3.0595e-17 0)
(3 -9.8383e-16 0)
(3 -2.32463e-15 0)
(3 -2.78925e-15 0)
(3 -3.99161e-15 0)
(3 -4.02277e-15 0)
(3 -3.45899e-15 0)
(3 -2.13101e-15 0)
(3 -1.65692e-15 0)
(3 -1.02559e-15 0)
(3 -4.59407e-16 0)
(3 -2.4249e-16 0)
(3 2.68715e-16 0)
(3 4.27824e-17 0)
(3 -2.02946e-16 0)
(3 -5.44745e-16 0)
(3 -5.92572e-16 0)
(3 -4.1175e-16 0)
(3 -1.60337e-16 0)
(3 2.14424e-17 0)
(3 -1.36024e-16 0)
(3 -4.23108e-16 0)
(3 -1.0884e-15 0)
(3 -4.77203e-16 0)
(3 1.19883e-15 0)
(3 1.94161e-15 0)
(3 1.32298e-15 0)
(3 1.02102e-15 0)
(3 1.1016e-15 0)
(3 -5.51113e-16 0)
(3 -6.78481e-16 0)
(3 -1.00435e-15 0)
(3 5.73332e-16 0)
(3 1.98105e-15 0)
(3 -8.86429e-18 0)
(3 -9.69341e-17 0)
(3 -2.61176e-16 0)
(3 -5.51412e-16 0)
(3 -4.76923e-16 0)
(3 4.55166e-17 0)
(3 1.57909e-16 0)
(3 6.08527e-17 0)
(3 -6.76344e-17 0)
(3 2.77265e-16 0)
(3 5.43329e-16 0)
(3 8.06583e-16 0)
(3 8.61238e-16 0)
(3 1.07296e-15 0)
(3 1.08969e-15 0)
(3 -6.45774e-16 0)
(3 -1.74577e-15 0)
(3 -1.38213e-15 0)
(3 -5.38493e-16 0)
(3 -9.01123e-16 0)
(3 -1.0954e-15 0)
(3 -4.52385e-16 0)
(3 -1.14141e-16 0)
(3 -6.6424e-17 0)
(3 1.18228e-16 0)
(3 -1.07174e-16 0)
(3 -3.46618e-16 0)
(3 -8.99878e-17 0)
(3 3.23957e-16 0)
(3 9.69202e-16 0)
(3 1.20514e-15 0)
(3 7.8229e-16 0)
(3 2.13981e-16 0)
(3 3.50336e-16 0)
(3 4.05145e-16 0)
(3 2.28398e-16 0)
(3 9.568e-17 0)
(3 6.97431e-16 0)
(3 1.71903e-15 0)
(3 1.01816e-15 0)
(3 7.51611e-16 0)
(3 1.07146e-15 0)
(3 -5.78161e-17 0)
(3 -9.62537e-16 0)
(3 -9.92197e-16 0)
(3 -3.39335e-16 0)
(3 3.34189e-16 0)
(3 1.07015e-15 0)
(3 1.18644e-16 0)
(3 -1.70323e-16 0)
(3 -5.01928e-16 0)
(3 -4.18478e-16 0)
(3 1.99405e-16 0)
(3 7.14447e-16 0)
(3 2.65598e-16 0)
(3 -6.19439e-17 0)
(3 1.99691e-16 0)
(3 4.91661e-16 0)
(3 6.03033e-16 0)
(3 1.38678e-15 0)
(3 7.59226e-16 0)
(3 7.18784e-16 0)
(3 7.25233e-16 0)
(3 -1.22032e-15 0)
(3 -1.27074e-15 0)
(3 -1.0178e-15 0)
(3 -7.69029e-16 0)
(3 -1.00013e-15 0)
(3 -8.19226e-16 0)
(3 -9.55879e-17 0)
(3 3.68656e-16 0)
(3 -1.13767e-16 0)
(3 -1.00431e-15 0)
(3 -9.7907e-16 0)
(3 -1.4989e-15 0)
(3 -1.6845e-15 0)
(3 -1.17164e-16 0)
(3 1.94533e-15 0)
(3 2.2462e-15 0)
(3 1.48455e-15 0)
(3 5.4828e-16 0)
(3 7.19968e-16 0)
(3 4.77873e-16 0)
(3 2.20058e-16 0)
(3 2.27541e-16 0)
(3 3.69671e-16 0)
(3 3.6462e-16 0)
(3 3.5791e-16 0)
(3 1.73262e-16 0)
(3 -1.91456e-16 0)
(3 -4.70949e-16 0)
(3 -4.33062e-16 0)
(3 -3.03028e-16 0)
(3 3.78364e-16 0)
(3 4.77483e-16 0)
(3 6.96814e-16 0)
(3 -4.56918e-17 0)
(3 -7.56153e-17 0)
(3 1.09999e-17 0)
(3 2.53645e-16 0)
(3 7.57638e-17 0)
(3 -2.86291e-16 0)
(3 2.4485e-16 0)
(3 3.73677e-16 0)
(3 2.41664e-16 0)
(3 -4.12807e-16 0)
(3 -8.05141e-16 0)
(3 -6.75675e-16 0)
(3 -4.67088e-16 0)
(3 -3.5629e-16 0)
(3 1.47926e-17 0)
(3 -2.01095e-16 0)
(3 -6.67909e-16 0)
(3 -1.1205e-15 0)
(3 -1.37238e-15 0)
(3 -8.88989e-16 0)
(3 -3.39952e-16 0)
(3 4.00484e-16 0)
(3 1.20097e-16 0)
(3 -4.5296e-16 0)
(3 -1.38579e-15 0)
(3 -1.53195e-15 0)
(3 -1.82352e-15 0)
(3 -1.47926e-15 0)
(3 -5.42378e-16 0)
(3 1.95427e-16 0)
(3 4.41551e-16 0)
(3 7.42228e-17 0)
(3 -8.25891e-17 0)
(3 -7.50844e-16 0)
(3 -1.26337e-15 0)
(3 -9.94918e-16 0)
(3 -6.72645e-16 0)
(3 -4.17737e-16 0)
(3 -4.88682e-16 0)
(3 2.67752e-16 0)
(3 3.7545e-16 0)
(3 1.02324e-16 0)
(3 -6.06e-16 0)
(3 -4.05898e-16 0)
(3 2.57118e-16 0)
(3 -1.30837e-16 0)
(3 -4.37985e-16 0)
(3 -5.88155e-16 0)
(3 2.16404e-16 0)
(3 3.54825e-16 0)
(3 2.10637e-16 0)
(3 1.17112e-16 0)
(3 -5.96037e-16 0)
(3 -5.54412e-16 0)
(3 -9.06125e-17 0)
(3 -1.94895e-17 0)
(3 -4.49062e-16 0)
(3 -9.13307e-16 0)
(3 -1.57056e-15 0)
(3 -2.13001e-15 0)
(3 -2.19773e-15 0)
(3 -1.26529e-15 0)
(3 -4.81338e-16 0)
(3 -3.75121e-16 0)
(3 -2.15513e-16 0)
(3 2.83021e-16 0)
(3 3.07094e-16 0)
(3 8.89164e-16 0)
(3 1.11524e-15 0)
(3 1.01639e-15 0)
(3 1.49258e-15 0)
(3 1.8912e-15 0)
(3 1.71736e-15 0)
(3 1.35765e-15 0)
(3 2.06904e-15 0)
(3 2.46692e-15 0)
(3 1.95746e-15 0)
(3 1.47227e-15 0)
(3 1.01705e-15 0)
(3 -2.14934e-16 0)
(3 -2.34901e-16 0)
(3 -8.88829e-16 0)
(3 -2.84374e-16 0)
(3 -2.08153e-16 0)
(3 -1.88449e-17 0)
(3 8.3426e-16 0)
(3 7.4163e-16 0)
(3 6.75545e-16 0)
(3 9.03363e-16 0)
(3 4.25872e-16 0)
(3 -5.36212e-16 0)
(3 -1.31667e-15 0)
(3 -1.33158e-15 0)
(3 -1.39548e-15 0)
(3 -1.79194e-15 0)
(3 -1.9363e-15 0)
(3 -3.37387e-17 0)
(3 1.01764e-16 0)
(3 3.25121e-16 0)
(3 1.60181e-16 0)
(3 1.45258e-16 0)
(3 8.9172e-17 0)
(3 -3.81297e-16 0)
(3 -8.19801e-16 0)
(3 -3.78971e-16 0)
(3 1.8151e-16 0)
(3 9.46092e-17 0)
(3 -1.29603e-15 0)
(3 -3.08774e-15 0)
(3 -2.94698e-15 0)
(3 -2.08615e-15 0)
(3 -1.56425e-15 0)
(3 -1.59442e-16 0)
(3 3.09097e-16 0)
(3 6.68762e-16 0)
(3 6.78506e-16 0)
(3 5.96768e-16 0)
(3 1.38548e-15 0)
(3 1.90692e-15 0)
(3 3.42966e-15 0)
(3 3.85908e-15 0)
(3 3.70543e-15 0)
(3 3.55306e-15 0)
(3 3.84021e-15 0)
(3 2.81873e-15 0)
(3 2.07927e-15 0)
(3 9.85374e-16 0)
(3 3.21159e-17 0)
(3 -3.11685e-16 0)
(3 -1.41777e-16 0)
(3 -2.11829e-16 0)
(3 -6.50693e-16 0)
(3 -7.61751e-16 0)
(3 -5.65493e-16 0)
(3 -6.5168e-16 0)
(3 -1.15585e-15 0)
(3 -9.11491e-16 0)
(3 -5.45507e-16 0)
(3 -4.05728e-16 0)
(3 -1.92835e-15 0)
(3 -3.66574e-15 0)
(3 -3.3624e-15 0)
(3 -8.8911e-16 0)
(3 -1.09402e-15 0)
(3 5.61088e-18 0)
(3 1.3439e-16 0)
(3 -9.00344e-17 0)
(3 2.54875e-17 0)
(3 1.71911e-16 0)
(3 3.31302e-17 0)
(3 -6.38487e-16 0)
(3 -6.93809e-16 0)
(3 1.85873e-16 0)
(3 5.1657e-16 0)
(3 1.30552e-16 0)
(3 -3.67611e-16 0)
(3 -8.77709e-16 0)
(3 -1.3476e-15 0)
(3 -1.49734e-15 0)
(3 -1.13546e-15 0)
(3 -5.71292e-16 0)
(3 -4.95733e-16 0)
(3 -5.1295e-16 0)
(3 -7.45816e-16 0)
(3 -3.60625e-16 0)
(3 1.38822e-16 0)
(3 1.13771e-15 0)
(3 1.7236e-15 0)
(3 1.66945e-15 0)
(3 1.73612e-15 0)
(3 1.99839e-15 0)
(3 1.71493e-15 0)
(3 1.54337e-15 0)
(3 1.15639e-15 0)
(3 8.86369e-16 0)
(3 5.87663e-16 0)
(3 1.55774e-16 0)
(3 -1.64441e-16 0)
(3 -6.94757e-16 0)
(3 -1.24971e-15 0)
(3 -1.64443e-15 0)
(3 -2.04109e-15 0)
(3 -2.14535e-15 0)
(3 -2.42803e-15 0)
(3 -2.37786e-15 0)
(3 -1.50604e-15 0)
(3 -1.0615e-15 0)
(3 -7.93606e-16 0)
(3 -1.01619e-15 0)
(3 -4.83342e-16 0)
(3 1.41229e-15 0)
(3 8.89727e-16 0)
(3 1.26955e-16 0)
(3 2.21546e-16 0)
(3 -3.35026e-16 0)
(3 -5.69255e-16 0)
(3 -6.17432e-16 0)
(3 1.82594e-16 0)
(3 4.2796e-16 0)
(3 1.2231e-15 0)
(3 9.72569e-16 0)
(3 6.49602e-16 0)
(3 5.49118e-16 0)
(3 1.14601e-15 0)
(3 1.9769e-15 0)
(3 2.17229e-16 0)
(3 -1.63562e-16 0)
(3 -1.17361e-16 0)
(3 -6.4777e-16 0)
(3 -8.54674e-16 0)
(3 -7.97225e-16 0)
(3 -2.70065e-16 0)
(3 -9.28326e-17 0)
(3 -6.03223e-16 0)
(3 -1.27877e-15 0)
(3 -1.93709e-15 0)
(3 -1.05185e-15 0)
(3 5.32202e-16 0)
(3 1.0445e-15 0)
(3 1.1021e-15 0)
(3 1.35501e-15 0)
(3 1.37851e-15 0)
(3 1.01963e-15 0)
(3 8.88626e-16 0)
(3 1.11418e-15 0)
(3 1.30813e-15 0)
(3 1.00192e-15 0)
(3 -1.06214e-16 0)
(3 -1.01241e-15 0)
(3 -1.38537e-15 0)
(3 -1.30704e-15 0)
(3 -8.80973e-16 0)
(3 -8.05028e-16 0)
(3 -9.88129e-16 0)
(3 -2.49053e-16 0)
(3 8.01605e-16 0)
(3 1.85792e-15 0)
(3 1.75492e-15 0)
(3 1.15319e-15 0)
(3 2.18983e-15 0)
(3 -1.91964e-16 0)
(3 -2.20962e-16 0)
(3 1.45314e-16 0)
(3 2.33208e-16 0)
(3 8.35801e-16 0)
(3 7.0241e-16 0)
(3 8.65472e-16 0)
(3 6.77807e-16 0)
(3 3.27033e-16 0)
(3 4.67179e-16 0)
(3 9.91887e-16 0)
(3 2.17022e-15 0)
(3 3.2482e-15 0)
(3 1.47736e-15 0)
(3 7.74859e-16 0)
(3 1.3267e-15 0)
(3 1.08343e-15 0)
(3 6.18332e-16 0)
(3 3.26541e-16 0)
(3 4.90677e-16 0)
(3 1.96113e-16 0)
(3 -5.88029e-16 0)
(3 -1.16548e-15 0)
(3 -1.47862e-15 0)
(3 -5.88766e-16 0)
(3 6.35533e-16 0)
(3 4.68522e-16 0)
(3 1.63586e-16 0)
(3 2.89864e-16 0)
(3 5.9718e-16 0)
(3 4.75173e-16 0)
(3 4.08945e-16 0)
(3 7.78566e-16 0)
(3 1.73906e-15 0)
(3 1.21502e-15 0)
(3 3.41792e-16 0)
(3 1.3874e-16 0)
(3 2.96076e-16 0)
(3 1.1736e-16 0)
(3 7.95985e-16 0)
(3 1.01533e-15 0)
(3 8.29419e-16 0)
(3 1.86541e-15 0)
(3 3.46103e-15 0)
(3 3.82601e-15 0)
(3 2.59441e-15 0)
(3 1.06828e-15 0)
(3 1.18015e-15 0)
(3 -1.72095e-16 0)
(3 -1.66242e-16 0)
(3 1.41378e-16 0)
(3 3.55465e-16 0)
(3 1.23361e-15 0)
(3 1.19363e-15 0)
(3 5.7907e-16 0)
(3 -2.545e-16 0)
(3 -2.99479e-16 0)
(3 -2.99501e-16 0)
(3 4.3158e-16 0)
(3 1.0994e-15 0)
(3 8.81225e-16 0)
(3 1.32707e-15 0)
(3 9.8918e-16 0)
(3 1.54884e-15 0)
(3 1.75853e-15 0)
(3 1.84833e-15 0)
(3 1.51903e-15 0)
(3 8.21114e-16 0)
(3 3.29108e-16 0)
(3 1.96101e-16 0)
(3 -1.15736e-16 0)
(3 -5.83646e-16 0)
(3 -3.57647e-16 0)
(3 6.85927e-16 0)
(3 2.92833e-16 0)
(3 -3.62965e-16 0)
(3 -3.20951e-16 0)
(3 7.69659e-16 0)
(3 1.16938e-15 0)
(3 1.50211e-15 0)
(3 8.43852e-16 0)
(3 3.12572e-16 0)
(3 -5.66889e-17 0)
(3 1.33095e-16 0)
(3 -3.30823e-16 0)
(3 3.31025e-16 0)
(3 7.72164e-16 0)
(3 5.97084e-16 0)
(3 4.0481e-16 0)
(3 7.11541e-16 0)
(3 1.25642e-15 0)
(3 1.23985e-15 0)
(3 1.01285e-15 0)
(3 1.24368e-15 0)
(3 1.19143e-15 0)
(3 -8.73345e-18 0)
(3 1.08054e-16 0)
(3 1.46628e-16 0)
(3 1.00574e-16 0)
(3 -4.80613e-17 0)
(3 -2.06264e-16 0)
(3 1.29663e-16 0)
(3 1.94735e-16 0)
(3 6.85475e-17 0)
(3 -8.03065e-16 0)
(3 -9.48023e-16 0)
(3 -5.87642e-16 0)
(3 -7.39415e-16 0)
(3 -9.7063e-16 0)
(3 -9.23374e-16 0)
(3 -7.89421e-16 0)