/*--------------------------------*- C++ -*----------------------------------*\
  =========                 |
  \\      /  F ield         | OpenFOAM: The Open Source CFD Toolbox
   \\    /   O peration     | Website:  https://openfoam.org
    \\  /    A nd           | Version:  7
     \\/     M anipulation  |
\*---------------------------------------------------------------------------*/
FoamFile
{
    version     2.0;
    format      ascii;
    class       volScalarField;
    location    "2.5";
    object      p;
}
// * * * * * * * * * * * * * * * * * * * * * * * * * * * * * * * * * * * * * //

dimensions      [1 -1 -2 0 0 0 0];

internalField   nonuniform List<scalar> 
4608
(
1
1
1
1
1
1
1
1
1
1
1
1
1
1
1
1
1
1
1
1
1
1
1
1
1
1
1
1
1
1
1
1
1
1
1
1
1
1
1
1
1
1
1
1
1
1
1
1
1
1
1
1
1
1
1
1
1
1
1
1
1
1
1
1
1
1
1
1
1
1
1
1
1
1
1
1
1
1
1
1
1
1
1
1
1
1
1
1
1
1
1
1
1
1
1
1
1
1
1
1
1
1
1
1
1
1
1
1
1
1
1
1
1
1
1
1
1
1
1
1
1
1
1
1
1
1
1
1
1
1
1
1
1
1
1
1
1
1
1
1
1
1
1
1
1
1
1
1
1
1
1
1
1
1
1
1
1
1
1
1
1
1
1
1
1
1
1
1
1
1
1
1
1
1
1
1
1
1
1
1
1
1
1
1
1
1
1
1
1
1
1
1
1
1
1
1
1
1
1
1
1
1
1
1
1
1
1
1
1
1
1
1
1
1
1
1
1
1
1
1
1
1
1
1
1
1
1
1
1
1
1
1
1
1
1
1
1
1
1
1
1
1
1
1
1
1
1
1
1
1
1
1
1
1
1
1
1
1
1
1
1
1
1
1
1
1
1
1
1
1
1
1
1
1
1
1
1
1
1
1
1
1
1
1
1
1
1
1
1
1
1
1
1
1
1
1
1
1
1
1
1
1
1
1
1
1
1
1
1
1
1
1
1
1
1
1
1
1
1
1
1
1
1
1
1
1
1
1
1
1
1
1
1
1
1
1
1
1
1
1
1
1
1
1
1
1
1
1
1
1
1
1
1
1
1
1
1
1
1
1
1
1
1
1
1
1
1
1
1
1
1
1
1
1
1
1
1
1
1
1
1
1
1
1
1
1
1
1
1
1
1
1
1
1
1
1
1
1
1
1
1
1
1
1
1
1
1
1
1
1
1
1
1
1
1
1
1
1
1
1
1
1
1
1
1
1
1
1
1
1
1
1
1
1
1
1
1
1
1
1
1
1
1
1
1
1
1
1
1
1
1
1
1
1
1
1
1
1
1
1
1
1
1
1
1
1
1
1
1
1
1
1
1
1
1
1
1
1
1
1
1
1
1
1
1
1
1
1
1
1
1
1
1
1
1
1
1
1
1
1
1
1
1
1
1
1
1
1
1
1
1
1
1
1
1
1
1
1
1
1
1
1
1
1
1
1
1
1
1
1
1
1
1
1
1
1
1
1
1
1
1
1
1
1
1
1
1
1
1
1
1
1
1
1
1
1
1
1
1
1
1
1
1
1
1
1
1
1
1
1
1
1
1
1
1
1
1
1
1
1
1
1
1
1
1
1
1
1
1
1
1
1
1
1
1
1
1
1
1
1
1
1
1
1
1
1
1
1
1
1
1
1
1
1
1
1
1
1
1
1
1
1
1
1
1
1
1
1
1
1
1
1
1
1
1
1
1
1
1
1
1
1
1
1
1
1
1
1
1
1
1
1
1
1
1
1
1
1
1
1
1
1
1
1
1
1
1
1
1
1
1
1
1
1
1
1
1
1
1
1
1
1
1
1
1
1
1
1
1
1
1
1
1
1
1
1
1
1
1
1
1
1
1
1
1
1
1
1
1
1
1
1
1
1
1
1
1
1
1
1
1
1
1
1
1
1
1
1
1
1
1
1
1
1
1
1
1
1
1
1
1
1
1
1
1
1
1
1
1
1
1
1
1
1
1
1
1
1
1
1
1
1
1
1
1
1
1
1
1.29069
1.76572
2.33863
2.95988
3.65066
4.27624
4.83328
5.32537
5.35999
5.15189
4.7231
4.21925
3.79451
3.67487
3.57796
3.58015
3.60854
3.64332
3.68297
3.72504
3.75501
3.7612
3.75948
3.76427
1.00313
1.01712
1.0846
1.22
1.46926
1.85966
2.36806
3.00665
3.5447
3.826
4.05166
4.06053
3.93872
3.85927
3.78725
3.72689
3.69882
3.67301
3.67708
3.70148
3.73493
3.75096
3.75409
3.76
1
0.999948
1.00018
1.00032
1.00344
1.02472
1.10663
1.36808
1.97701
3.00607
3.84201
4.32239
4.36111
4.26652
4.10202
3.88852
3.7424
3.66177
3.65379
3.67093
3.70001
3.73075
3.74724
3.75784
1
0.999998
0.999997
0.999998
0.999986
1.00004
0.999907
1.0019
1.03354
1.2941
2.02572
3.17212
4.01522
4.05945
4.02891
4.0086
3.91155
3.76747
3.7041
3.69466
3.69631
3.71008
3.73719
3.76811
1
1
1
1
0.999999
0.999999
0.999988
0.999989
0.999903
1.00118
1.04543
1.33814
2.26636
3.23057
3.97974
4.12246
4.08963
3.97677
3.86828
3.77125
3.71842
3.70953
3.72011
3.75205
1
1
1
1
1
1
1
0.999999
0.999992
0.999992
0.999916
1.0025
1.08155
1.51211
2.52817
3.40717
3.89528
3.95586
3.90115
3.8291
3.77517
3.72989
3.70423
3.71306
1
1
1
1
1
1
1
1
1
0.999999
0.999993
0.999981
1.00006
1.00962
1.15192
1.80061
2.96599
3.6588
3.8007
3.81017
3.80842
3.76702
3.71529
3.70104
1
1
1
1
1
1
1
1
1
1
1
0.999997
0.999997
0.99997
1.00092
1.0399
1.35047
2.26264
3.3012
3.81145
3.85526
3.82514
3.76765
3.73078
1
1
1
1
1
1
1
1
1
1
1
1
1
0.999995
0.999994
1.00001
1.00665
1.14975
1.74889
2.787
3.52403
3.82341
3.82069
3.76696
1
1
1
1
1
1
1
1
1
1
1
1
1
1
0.999999
0.999999
0.999981
1.00177
1.03937
1.42653
2.33247
3.43514
3.62659
3.69165
1
1
1
1
1
1
1
1
1
1
1
1
1
1
1
1
0.999996
0.999989
1.00011
1.01833
1.19252
1.99634
3.04176
3.68354
1
1
1
1
1
1
1
1
1
1
1
1
1
1
1
1
1
0.999998
0.999998
1.00004
1.0042
1.11685
1.7152
2.94477
1
1
1
1
1
1
1
1
1
1
1
1
1
1
1
1
1
1
0.999999
0.999999
1
1.00252
1.06731
1.52433
1
1
1
1
1
1
1
1
1
1
1
1
1
1
1
1
1
1
1
1
1
0.999998
1.00124
1.02699
1
1
1
1
1
1
1
1
1
1
1
1
1
1
1
1
1
1
1
1
1
0.999999
1.00001
0.999977
1
1
1
1
1
1
1
1
1
1
1
1
1
1
1
1
1
1
1
1
1
1
1
0.999982
1
1
1
1
1
1
1
1
1
1
1
1
1
1
1
1
1
1
1
1
1
1
0.999998
0.999995
1
1
1
1
1
1
1
1
1
1
1
1
1
1
1
1
1
1
1
1
1
0.999999
0.999996
1.00008
1
1
1
1
1
1
1
1
1
1
1
1
1
1
1
1
1
1
1
1
1
0.999998
1.00112
1.02978
1
1
1
1
1
1
1
1
1
1
1
1
1
1
1
1
1
1
0.999999
0.999999
1
1.00208
1.07013
1.47934
1
1
1
1
1
1
1
1
1
1
1
1
1
1
1
1
1
0.999998
0.999998
1.00003
1.00452
1.11391
1.7298
2.76762
1
1
1
1
1
1
1
1
1
1
1
1
1
1
1
1
0.999996
0.99999
1.00012
1.01763
1.19363
2.02079
3.00954
3.63568
1
1
1
1
1
1
1
1
1
1
1
1
1
1
0.999999
0.999999
0.999981
1.00173
1.03956
1.41847
2.34854
3.44182
3.59729
3.67678
1
1
1
1
1
1
1
1
1
1
1
1
1
0.999995
0.999994
1.00001
1.00671
1.14999
1.74434
2.78095
3.54743
3.81699
3.80791
3.7601
1
1
1
1
1
1
1
1
1
1
1
0.999997
0.999997
0.99997
1.00093
1.03957
1.35128
2.26672
3.29209
3.81264
3.85995
3.82765
3.75935
3.72596
1
1
1
1
1
1
1
1
1
0.999999
0.999993
0.999981
1.00006
1.00964
1.15194
1.79857
2.97059
3.6558
3.79774
3.81027
3.81079
3.76822
3.71225
3.69926
1
1
1
1
1
1
1
0.999999
0.999992
0.999992
0.999916
1.0025
1.08142
1.51295
2.52681
3.40751
3.89691
3.95477
3.8987
3.83064
3.77781
3.7314
3.70311
3.71205
1
1
1
1
0.999999
0.999999
0.999988
0.999989
0.999903
1.00118
1.04548
1.338
2.26663
3.23151
3.97812
4.12259
4.08979
3.97772
3.86798
3.77234
3.7189
3.70911
3.71982
3.75126
1
0.999998
0.999997
0.999998
0.999986
1.00004
0.999907
1.0019
1.03356
1.29404
2.026
3.17078
4.01771
4.05936
4.02799
4.00762
3.91184
3.76902
3.70374
3.69504
3.6965
3.70975
3.73665
3.76827
1
0.999948
1.00018
1.00032
1.00344
1.02471
1.10663
1.36808
1.97699
3.00631
3.84181
4.32234
4.36124
4.26647
4.10166
3.88807
3.74322
3.66241
3.65331
3.67094
3.70023
3.73046
3.74694
3.75807
1.00313
1.01713
1.08454
1.22003
1.46929
1.85959
2.36804
3.00676
3.5446
3.82611
4.05146
4.0606
3.93876
3.85923
3.787
3.72703
3.69909
3.67302
3.67692
3.70132
3.73482
3.75083
3.75403
3.76013
1.29069
1.76566
2.33874
2.95999
3.65033
4.27635
4.83346
5.32531
5.35994
5.15185
4.72303
4.21923
3.79441
3.67501
3.57797
3.58027
3.60868
3.64322
3.68266
3.72474
3.75489
3.76107
3.75945
3.76439
2.66189
1.68449
1.13413
0.895554
0.720975
0.632465
0.64513
0.713631
0.785897
0.838414
0.914226
0.99422
1.00844
1.0011
1.0002
1.01615
1.04163
1.07142
1.07925
1.08016
1.07804
1.05738
1.03984
1.08905
1.54172
2.89193
4.66727
6.90571
8.87121
9.24367
8.51727
7.51881
6.86762
6.57541
6.40038
6.17906
5.90367
5.63065
5.40881
5.21365
5.01775
4.82706
4.63991
4.45974
4.30229
4.17018
4.04956
3.9245
3.79079
3.65719
3.53033
3.40807
3.29238
3.18419
3.07625
2.96725
2.86616
2.79415
2.74546
2.70137
2.65466
2.60439
2.54135
2.44039
2.29415
2.17336
2.12008
2.09574
2.07022
2.05606
2.0505
2.10961
2.33043
2.76171
3.35132
3.97125
4.49343
4.97559
5.23821
5.24475
5.17918
5.07713
4.93977
4.77242
4.60471
4.36253
4.16818
4.11044
4.07234
4.06509
4.10351
4.09401
4.05162
3.98472
3.83441
3.56056
3.3673
2.77094
2.13668
1.77894
1.54553
1.2591
1.08856
1.04655
0.993948
0.94187
0.92326
0.927548
0.926015
0.922218
0.928603
0.954517
0.989054
1.02074
1.03446
1.04015
1.03688
1.03848
1.10509
1.55237
2.6126
3.05817
3.55444
4.31942
5.62884
6.69793
7.40201
7.39711
7.10249
6.75498
6.45723
6.18891
5.92455
5.68836
5.49517
5.3034
5.09792
4.8905
4.7096
4.54682
4.3864
4.23806
4.11275
3.98803
3.84794
3.69945
3.56061
3.4406
3.33764
3.24494
3.15176
3.04384
2.93057
2.84333
2.7882
2.74193
2.69344
2.64099
2.57523
2.47587
2.3367
2.22897
2.16896
2.14069
2.10733
2.11808
2.20654
2.45257
2.87631
3.18535
3.36229
3.60971
3.94044
4.19441
4.51608
4.80637
5.01569
5.0261
4.9358
4.78706
4.61022
4.3947
4.20657
4.14102
4.10206
4.09126
4.12151
4.10567
4.06253
3.99181
3.85465
3.59602
3.64685
3.3352
2.86764
2.33197
1.9868
1.70295
1.41248
1.23931
1.13384
1.01077
0.939028
0.938808
0.933726
0.92523
0.921324
0.928191
0.944075
0.966891
0.991758
1.00842
1.03154
1.17643
1.7484
2.6632
3.3105
3.32212
3.30706
3.32704
3.56839
4.55903
6.10747
7.11613
7.23981
6.99285
6.47173
6.06734
5.81107
5.60346
5.40215
5.20488
5.0151
4.84534
4.68312
4.50858
4.31628
4.12254
3.96412
3.85489
3.7489
3.63061
3.5201
3.429
3.34572
3.25323
3.1397
3.00621
2.87111
2.75855
2.69292
2.65099
2.60891
2.56068
2.50189
2.42615
2.33975
2.24208
2.15763
2.14495
2.15489
2.27782
2.60272
3.04006
3.39515
3.45502
3.41916
3.36335
3.39775
3.5704
3.9731
4.46271
4.76328
4.90862
4.90072
4.81442
4.62786
4.41171
4.24689
4.18868
4.14307
4.09611
4.04666
4.00758
3.96924
3.907
3.80691
3.62158
3.73825
3.60505
3.32599
2.88107
2.44527
2.16893
1.84936
1.54807
1.42451
1.31013
1.12322
1.05554
1.04909
1.03438
0.987562
0.946654
0.944657
0.942235
0.944461
0.958219
1.12255
1.83516
2.79073
3.27494
3.31425
3.28049
3.17683
3.06362
2.97621
3.07282
3.70749
5.17925
6.48975
6.54443
6.42494
6.12549
5.84442
5.58634
5.33339
5.13858
4.98222
4.8398
4.68338
4.51347
4.31977
4.11438
3.91633
3.77989
3.69891
3.62686
3.55209
3.48074
3.40281
3.29823
3.1612
3.01553
2.87006
2.74385
2.66475
2.61615
2.57141
2.52106
2.46448
2.40519
2.35003
2.27872
2.20261
2.2304
2.41265
2.82007
3.22214
3.54046
3.59444
3.56759
3.48106
3.36753
3.28288
3.28642
3.3971
3.70151
4.08404
4.44497
4.62346
4.62974
4.57346
4.44261
4.33909
4.27173
4.19401
4.11156
4.04458
3.9957
3.93923
3.85149
3.76671
3.64932
3.75987
3.72366
3.58355
3.30845
2.90892
2.55767
2.28299
1.97049
1.68362
1.5388
1.41208
1.23352
1.13928
1.12332
1.08052
0.998088
0.95914
0.947721
0.96614
1.15453
1.93562
2.83637
3.24689
3.27766
3.22056
3.10106
2.98787
2.89053
2.81347
2.74391
2.76862
3.09853
4.21663
5.50939
6.16968
6.11699
5.82372
5.47041
5.19694
5.01488
4.89827
4.80865
4.71497
4.58475
4.41017
4.18627
3.93654
3.73232
3.61395
3.52505
3.44889
3.38385
3.31858
3.24127
3.14121
3.01836
2.88854
2.7747
2.67411
2.57788
2.50878
2.4658
2.43821
2.41018
2.39462
2.38885
2.46576
2.71864
3.10473
3.42238
3.6099
3.67594
3.62786
3.55387
3.47665
3.39192
3.3056
3.2484
3.17259
3.19355
3.34931
3.66481
4.10818
4.34549
4.47151
4.46932
4.41377
4.32561
4.24203
4.16796
4.09311
3.99558
3.88783
3.76879
3.68575
3.61051
3.73876
3.73815
3.70739
3.56063
3.30082
2.9612
2.61754
2.342
2.07687
1.843
1.68901
1.50484
1.32196
1.27032
1.24213
1.15822
1.07456
1.09593
1.37552
2.16858
3.12539
3.37715
3.32517
3.20941
3.08985
2.97458
2.86632
2.76941
2.68744
2.61071
2.55946
2.51576
2.64276
3.31409
4.50597
5.53568
5.57437
5.40476
5.23385
5.05012
4.88915
4.72195
4.58126
4.46692
4.35118
4.19881
3.94599
3.70613
3.5762
3.49275
3.42445
3.35867
3.28935
3.222
3.15133
3.06574
2.96143
2.82553
2.65672
2.53734
2.48537
2.44565
2.43113
2.43564
2.50427
2.72309
3.14824
3.53252
3.68705
3.74899
3.76331
3.70729
3.63135
3.56045
3.49477
3.42373
3.34637
3.24974
3.15796
3.05347
3.04885
3.11851
3.37198
3.75356
4.14291
4.32631
4.34126
4.32937
4.29212
4.21764
4.1147
3.99289
3.85269
3.72798
3.66818
3.60461
3.70944
3.72043
3.71372
3.67989
3.52953
3.27799
2.99592
2.68474
2.36232
2.14903
1.99182
1.84081
1.5958
1.40166
1.37307
1.3198
1.35492
1.72839
2.69147
3.54774
3.67429
3.53583
3.32207
3.15615
3.04655
2.93347
2.81916
2.71747
2.62237
2.53736
2.46023
2.41011
2.32982
2.3463
2.62936
3.51474
4.65519
5.05004
5.1658
5.07375
4.85894
4.65428
4.49745
4.39225
4.29088
4.15215
3.9485
3.73613
3.58677
3.48596
3.40447
3.32746
3.24751
3.16237
3.07367
2.99154
2.89941
2.77417
2.63368
2.53844
2.49192
2.46997
2.48147
2.63506
3.02443
3.56764
3.96241
3.98148
3.89988
3.81973
3.73886
3.67215
3.60807
3.55734
3.50016
3.43852
3.37598
3.29292
3.16995
3.03833
2.98595
2.97906
3.01351
3.1806
3.53078
3.98057
4.21183
4.28755
4.27682
4.21406
4.10318
3.9804
3.85231
3.74825
3.698
3.62306
3.71913
3.71911
3.71427
3.69421
3.64325
3.49699
3.25277
3.01105
2.7484
2.40679
2.18421
2.10239
1.93143
1.70508
1.56343
1.67718
2.28455
3.4099
4.16399
4.1445
3.94845
3.68701
3.44704
3.2665
3.11664
2.97241
2.83484
2.716
2.60171
2.50633
2.41459
2.35222
2.26808
2.19444
2.14126
2.23136
2.7699
3.70837
4.55502
4.76858
4.74436
4.62966
4.47246
4.33658
4.20297
4.05706
3.90246
3.74169
3.59203
3.47044
3.37288
3.28662
3.20198
3.11691
3.04034
2.96347
2.86523
2.74868
2.64024
2.56991
2.53058
2.57985
2.85207
3.38882
3.90035
4.22756
4.24453
4.18751
4.02494
3.83987
3.73035
3.65617
3.59525
3.5531
3.50571
3.45826
3.40834
3.32937
3.18823
3.04345
2.97386
2.94239
2.93781
2.95242
3.05517
3.34966
3.72341
3.97807
4.06157
4.04138
3.98617
3.92766
3.85881
3.79751
3.74738
3.65214
3.74635
3.75005
3.74725
3.73047
3.70014
3.62705
3.48171
3.24299
3.02508
2.74954
2.5025
2.26945
2.1137
2.01858
2.24649
3.14531
4.34779
4.79801
4.68726
4.39613
4.09218
3.84657
3.64392
3.46288
3.2813
3.09623
2.91394
2.74872
2.61307
2.50061
2.40332
2.3256
2.24391
2.14684
2.07731
2.02119
2.0304
2.2522
2.9484
3.86951
4.43348
4.53683
4.4741
4.29962
4.13163
3.96998
3.82836
3.70165
3.57304
3.44254
3.33139
3.2429
3.16419
3.0807
2.99748
2.90689
2.81298
2.7383
2.67159
2.65363
2.77115
3.17096
3.78378
4.22763
4.35521
4.3454
4.27676
4.15968
4.03574
3.89744
3.77641
3.67634
3.61052
3.56168
3.51068
3.45753
3.40278
3.32997
3.20578
3.05686
2.9773
2.9408
2.91617
2.90561
2.90674
2.96146
3.12721
3.36156
3.66736
3.81057
3.84474
3.86183
3.86093
3.83072
3.79309
3.69599
3.69967
3.72007
3.7355
3.727
3.71036
3.67558
3.60023
3.4533
3.24543
3.00074
2.78073
2.4976
2.53464
3.02867
4.24069
5.42131
5.60855
5.39106
5.00559
4.63645
4.31881
4.05138
3.82544
3.62381
3.43068
3.2403
3.04976
2.85776
2.68451
2.52596
2.39927
2.30124
2.21929
2.14032
2.07348
1.99542
1.96034
1.90369
1.95798
2.36642
3.18866
3.92779
4.21651
4.19986
4.08498
3.94413
3.81552
3.68181
3.53452
3.38005
3.26773
3.19072
3.11804
3.02773
2.94354
2.85586
2.8084
2.77254
2.82877
3.09582
3.64278
4.19115
4.52474
4.57529
4.5295
4.38088
4.22449
4.11156
4.02019
3.92262
3.81392
3.7114
3.63588
3.57382
3.5137
3.45208
3.38865
3.31839
3.22375
3.09533
2.991
2.94695
2.91434
2.88747
2.86654
2.86252
2.86668
2.92896
3.05956
3.32471
3.57258
3.71439
3.82929
3.86153
3.84249
3.74974
3.76845
3.74302
3.71979
3.71505
3.71481
3.70366
3.66297
3.57832
3.40654
3.2288
3.01623
3.20034
4.22921
5.74495
6.43982
6.33503
5.96893
5.56677
5.18997
4.84904
4.54654
4.27001
4.01532
3.77975
3.56377
3.36474
3.17416
2.98344
2.80333
2.62926
2.47348
2.33996
2.21923
2.12706
2.073
2.02963
1.95322
1.88278
1.80097
1.78996
1.96383
2.54674
3.34015
3.82913
3.96038
3.93295
3.81252
3.6582
3.50042
3.34331
3.22845
3.14143
3.05868
2.97064
2.90233
2.84718
2.86616
3.07389
3.56924
4.1415
4.60316
4.69295
4.64843
4.58563
4.48488
4.3703
4.23511
4.11159
4.01556
3.93328
3.84597
3.7514
3.66374
3.5885
3.51943
3.45087
3.37923
3.30478
3.22617
3.12635
3.01882
2.96439
2.92571
2.88775
2.85222
2.82349
2.80516
2.78557
2.78283
2.85462
3.08894
3.37396
3.62833
3.78998
3.83433
3.77873
3.43207
3.57005
3.68488
3.76207
3.77932
3.75803
3.7085
3.64865
3.53149
3.56199
4.18293
5.71813
7.27009
7.67611
7.42643
6.8256
6.25051
5.78141
5.38726
5.03474
4.71351
4.42468
4.16496
3.92561
3.70615
3.50122
3.29741
3.08799
2.88099
2.68512
2.52584
2.40035
2.281
2.18058
2.09005
1.99967
1.91726
1.85027
1.77913
1.7193
1.6618
1.71519
2.05982
2.75796
3.40518
3.71875
3.70793
3.62102
3.49073
3.33941
3.19705
3.08915
3.01487
2.96315
2.93035
3.01194
3.39517
4.09422
4.65142
5.00889
5.00996
4.9253
4.72807
4.55451
4.43694
4.34599
4.24772
4.13769
4.03375
3.93845
3.84577
3.75919
3.67796
3.60185
3.52882
3.45564
3.37898
3.30276
3.23117
3.1514
3.05284
2.98308
2.93936
2.8971
2.85607
2.81541
2.78045
2.74545
2.70408
2.65748
2.70395
2.89923
3.21284
3.50309
3.68075
3.67658
2.62488
3.31391
3.70444
3.75643
3.72392
3.694
3.69744
3.72004
4.01831
5.42531
7.58303
8.44573
8.4048
8.13386
7.68096
7.16198
6.61831
6.09854
5.63135
5.2181
4.84517
4.5134
4.2359
4.00065
3.78462
3.57708
3.37487
3.17379
2.96937
2.76611
2.58149
2.42786
2.31363
2.22493
2.12625
2.0188
1.93844
1.86653
1.7873
1.68999
1.61727
1.55622
1.5581
1.73764
2.23651
2.97212
3.4071
3.46464
3.42314
3.33735
3.16666
3.05278
3.0151
3.0608
3.31696
3.86465
4.64317
5.09133
5.10711
5.09115
5.00633
4.85884
4.70263
4.54918
4.42436
4.32823
4.24049
4.14682
4.04807
3.95193
3.85565
3.7616
3.67898
3.60813
3.53929
3.46464
3.38495
3.30957
3.24127
3.17266
3.08987
3.00679
2.94715
2.90147
2.85924
2.81228
2.76536
2.72366
2.68707
2.63476
2.57508
2.59201
2.7391
3.00128
3.32333
3.51533
1.43454
2.26393
3.29633
3.57934
3.5821
3.67516
3.89128
4.71437
6.58596
8.80781
9.75387
9.67791
9.02542
8.29996
7.83052
7.41062
6.92107
6.37193
5.83834
5.37374
4.97965
4.62923
4.31263
4.04599
3.82323
3.61933
3.41229
3.20666
3.00785
2.82338
2.66844
2.53126
2.37864
2.22087
2.13621
2.08533
2.01025
1.90766
1.80204
1.70306
1.61689
1.54732
1.48693
1.45441
1.51688
1.85223
2.53801
3.0721
3.24843
3.19255
3.09295
3.11463
3.31766
3.78903
4.49387
5.13745
5.56687
5.54471
5.35627
5.08137
4.9129
4.78016
4.66784
4.56157
4.45289
4.34883
4.26034
4.17685
4.07713
3.96331
3.85104
3.75052
3.66876
3.60198
3.54141
3.47856
3.40916
3.34173
3.27328
3.19101
3.09378
3.00713
2.94714
2.90405
2.86434
2.82082
2.77307
2.72086
2.66667
2.61177
2.56778
2.51824
2.52747
2.60569
2.78594
3.13249
1.0326
1.24201
2.02603
2.89827
3.39796
4.60439
5.78644
7.89527
9.39292
9.80161
9.77093
9.67323
9.27785
8.66215
8.09427
7.57394
7.06318
6.52487
5.97811
5.49677
5.11046
4.76763
4.43105
4.12674
3.86494
3.62953
3.41066
3.19931
3.00729
2.85189
2.73061
2.59636
2.42555
2.27758
2.17301
2.06615
1.94786
1.84436
1.77154
1.71935
1.6548
1.56426
1.47442
1.42743
1.39941
1.41402
1.61177
2.09443
2.67566
3.00122
3.26527
3.84626
4.54277
5.11313
5.45255
5.65305
5.6431
5.53689
5.34917
5.12419
4.93093
4.76558
4.64875
4.59679
4.53312
4.43908
4.33282
4.22849
4.11737
4.00125
3.88189
3.76273
3.65955
3.58372
3.51736
3.46152
3.42242
3.39281
3.3414
3.24768
3.13138
3.03578
2.97758
2.93857
2.90177
2.8627
2.81874
2.76927
2.71377
2.66356
2.60757
2.54073
2.4786
2.44145
2.46646
2.69714
1.00061
1.01007
1.1901
1.80556
3.57821
6.3664
8.13267
9.82357
10.9877
10.4493
9.7908
9.59564
9.38281
9.00381
8.38998
7.68267
7.03491
6.49932
6.00563
5.5526
5.13493
4.79983
4.57391
4.33368
4.04563
3.75729
3.48963
3.24354
3.04682
2.8756
2.70396
2.57677
2.50829
2.40795
2.25154
2.07728
1.93781
1.85477
1.79643
1.72981
1.64033
1.57793
1.52903
1.47247
1.40089
1.3328
1.3368
1.43949
1.81375
2.79174
3.83339
4.88172
5.61374
6.02025
6.05558
5.95745
5.69751
5.44783
5.29804
5.13334
4.94045
4.75788
4.62249
4.52467
4.45131
4.38074
4.29836
4.21175
4.10824
3.98165
3.85497
3.75182
3.68155
3.62328
3.56656
3.5128
3.45809
3.39712
3.31978
3.21484
3.08771
2.98918
2.93579
2.90061
2.86742
2.83281
2.79378
2.74838
2.69371
2.63042
2.56511
2.49878
2.43456
2.38769
2.38084
2.45159
1.00035
1.01995
1.16973
1.99529
3.8061
5.69261
8.40111
9.88471
10.9605
10.6833
10.0831
9.69712
9.36761
8.8355
8.17366
7.4989
6.88822
6.41622
6.06002
5.69161
5.28862
4.9168
4.56414
4.23772
3.94102
3.65065
3.44812
3.31578
3.15116
2.95908
2.7758
2.61598
2.46633
2.32702
2.16418
2.01983
1.9713
1.93194
1.87336
1.78842
1.68228
1.58071
1.49098
1.41759
1.35643
1.31486
1.32074
1.42226
1.87625
2.74986
3.96677
4.93037
5.53738
6.04518
6.06782
5.91915
5.66537
5.43297
5.29912
5.13463
4.9439
4.76719
4.64596
4.53913
4.43491
4.35672
4.28853
4.20822
4.11138
3.9906
3.8736
3.76677
3.661
3.57971
3.52937
3.48595
3.44083
3.38601
3.31433
3.21313
3.08517
2.98261
2.93071
2.89741
2.86565
2.83293
2.79697
2.75545
2.70243
2.63373
2.55638
2.48074
2.41351
2.37081
2.37208
2.48643
1.02175
1.29811
2.05384
3.10568
3.51471
4.04495
5.91508
7.78052
9.5436
10.0576
10.0162
9.81704
9.31383
8.59438
7.95408
7.40482
6.90543
6.41636
5.92889
5.47901
5.1116
4.80191
4.50305
4.21824
3.94432
3.68678
3.4345
3.19376
2.99955
2.82647
2.66976
2.54068
2.41633
2.28415
2.15286
2.04083
1.93284
1.84544
1.78685
1.72647
1.65499
1.5745
1.49356
1.43398
1.36308
1.36899
1.53699
2.01092
2.66414
2.92743
3.36189
3.93188
4.53013
5.16616
5.44701
5.60208
5.59983
5.51923
5.37733
5.17711
4.94824
4.77357
4.67846
4.59242
4.48517
4.37537
4.26771
4.16743
4.08879
4.02156
3.93032
3.81586
3.68953
3.58376
3.53335
3.49897
3.46014
3.40843
3.34295
3.24941
3.12136
3.01282
2.96148
2.92935
2.89884
2.86778
2.83359
2.79219
2.73463
2.65814
2.56389
2.4732
2.42144
2.40633
2.44007
2.72895
1.34942
2.42364
3.19044
3.60349
3.6567
3.6869
3.93769
4.7324
6.55898
8.81484
9.91132
9.76005
8.9794
8.21787
7.70917
7.27523
6.80899
6.30437
5.82263
5.41705
5.07134
4.74206
4.42077
4.11522
3.83066
3.58017
3.3495
3.12817
2.94044
2.80062
2.68026
2.55164
2.41514
2.25907
2.11547
2.02491
1.94539
1.8478
1.76974
1.72035
1.67413
1.61417
1.54411
1.49381
1.54564
1.86821
2.4425
3.00011
3.23452
3.2041
3.16135
3.18105
3.35745
3.83948
4.56724
5.14139
5.53112
5.53853
5.39463
5.12611
4.93261
4.80412
4.67569
4.53949
4.42722
4.33703
4.25191
4.17083
4.0802
3.97651
3.8704
3.76807
3.67719
3.58767
3.51947
3.46507
3.41274
3.36076
3.30185
3.21712
3.08507
2.95976
2.90686
2.87657
2.84874
2.82101
2.79005
2.75759
2.72829
2.6868
2.59467
2.48228
2.46289
2.53875
2.72815
3.13762
2.5346
3.51302
3.68993
3.68956
3.69036
3.67078
3.66238
3.68651
3.97125
5.33245
7.62728
8.53332
8.34183
8.04156
7.58484
7.10577
6.60103
6.11278
5.68179
5.301
4.94836
4.6113
4.29119
3.99343
3.72355
3.48355
3.27844
3.10894
2.95553
2.7978
2.63129
2.46921
2.33235
2.25148
2.16874
2.05726
1.9346
1.8222
1.74128
1.67466
1.62305
1.58333
1.59909
1.7703
2.30543
2.97387
3.34365
3.4367
3.39318
3.29386
3.17583
3.10887
3.04982
3.08006
3.308
3.84138
4.53818
5.05132
5.14405
5.10268
5.01912
4.87589
4.68999
4.50545
4.38121
4.31701
4.24835
4.17315
4.08476
3.97946
3.86841
3.76499
3.66676
3.57688
3.50436
3.44617
3.39534
3.34789
3.29795
3.22925
3.10356
2.95418
2.89356
2.86459
2.8373
2.81119
2.78296
2.75232
2.71827
2.67598
2.59113
2.56531
2.66447
2.90259
3.17714
3.45613
3.56695
3.66545
3.73601
3.75789
3.75703
3.72428
3.67577
3.62734
3.52565
3.55521
4.21503
5.78693
7.25686
7.66037
7.42533
6.84255
6.29022
5.84229
5.4679
5.12072
4.78409
4.45839
4.15201
3.8697
3.61597
3.39492
3.20593
3.02846
2.85574
2.70613
2.58555
2.47479
2.34407
2.20496
2.09006
1.98453
1.88335
1.79625
1.7245
1.68727
1.65644
1.7243
2.09602
2.80631
3.51332
3.67101
3.64979
3.5598
3.43408
3.32934
3.23369
3.14233
3.04665
2.94661
2.89115
2.96028
3.32313
4.00847
4.67991
5.04557
5.04232
4.9255
4.70076
4.4728
4.35869
4.30455
4.23667
4.1615
4.08056
3.9896
3.88059
3.74784
3.63288
3.55291
3.49073
3.43816
3.391
3.34294
3.28842
3.22007
3.11618
2.97774
2.88771
2.84865
2.81753
2.78699
2.76443
2.74253
2.73228
2.72135
2.75827
2.89906
3.17587
3.36826
3.52737
3.60077
3.78616
3.76999
3.74073
3.72712
3.71131
3.68852
3.65636
3.5825
3.41247
3.22341
3.01801
3.2189
4.26191
5.72072
6.44247
6.3684
6.01033
5.61133
5.25206
4.91602
4.58681
4.2665
3.97302
3.71158
3.48029
3.27634
3.10703
2.96384
2.82929
2.68757
2.54296
2.40245
2.26936
2.13423
2.03754
1.96442
1.88544
1.81737
1.75511
1.7618
1.96439
2.59659
3.37408
3.87749
3.9669
3.92025
3.77432
3.61555
3.49377
3.38468
3.28456
3.18462
3.07509
2.9476
2.84121
2.80092
2.82527
3.02938
3.5637
4.27346
4.69849
4.73235
4.65222
4.50746
4.40484
4.3129
4.21271
4.13181
4.06001
3.98878
3.89223
3.74037
3.59932
3.52871
3.47498
3.42558
3.37925
3.33079
3.2745
3.20673
3.11813
3.00156
2.89513
2.82889
2.79594
2.77033
2.76798
2.77965
2.83005
2.97357
3.19395
3.49815
3.66995
3.70442
3.6915
3.618
3.7055
3.73804
3.74274
3.7329
3.71914
3.68245
3.6074
3.46136
3.24801
2.99506
2.77247
2.49269
2.53379
3.03035
4.25636
5.45978
5.59991
5.38698
5.01403
4.64521
4.31222
4.02381
3.78218
3.57366
3.3878
3.21498
3.05135
2.8954
2.74597
2.60392
2.47068
2.34026
2.23465
2.13342
2.04769
1.96496
1.90623
1.85005
1.92638
2.35431
3.24715
4.02964
4.25038
4.19647
4.02727
3.87226
3.74928
3.65018
3.55839
3.45633
3.35448
3.24852
3.12527
2.98466
2.86471
2.80017
2.77771
2.76214
2.84282
3.18936
3.73501
4.31189
4.5615
4.53333
4.41933
4.25611
4.16672
4.1127
4.05523
3.99191
3.8994
3.75257
3.57926
3.4964
3.45283
3.40686
3.36112
3.31378
3.25645
3.18399
3.09939
3.011
2.92194
2.84204
2.81091
2.80586
2.82365
2.91115
3.15079
3.46119
3.73321
3.8866
3.88949
3.85421
3.76734
3.60931
3.75218
3.75595
3.74997
3.73641
3.70777
3.63232
3.48682
3.2491
3.02623
2.74677
2.49765
2.26587
2.11389
2.01669
2.2503
3.16063
4.33538
4.802
4.69079
4.39027
4.07547
3.80801
3.59628
3.42467
3.26091
3.09453
2.92908
2.78943
2.66764
2.56754
2.46962
2.36247
2.24685
2.12383
2.03811
1.97074
1.98161
2.22983
3.00197
3.95869
4.58659
4.61282
4.52683
4.27888
4.03928
3.86916
3.76364
3.68697
3.61269
3.5265
3.42641
3.30505
3.15911
3.00833
2.90167
2.83214
2.77769
2.73343
2.69721
2.71096
2.85136
3.25074
3.83203
4.23641
4.21825
4.21103
4.18856
4.13844
4.07081
3.99141
3.8919
3.76003
3.58698
3.46698
3.42991
3.38738
3.33662
3.28512
3.22895
3.16135
3.08473
3.01008
2.94166
2.88771
2.85902
2.87569
3.00324
3.29867
3.65792
3.90225
4.04309
4.04808
4.01904
3.93614
3.80349
3.59678
3.72023
3.7203
3.7152
3.69566
3.64247
3.49449
3.25474
3.01524
2.75083
2.40525
2.18443
2.10232
1.93108
1.70413
1.56185
1.67633
2.26246
3.37559
4.17117
4.14767
3.93382
3.64955
3.4137
3.25748
3.12083
2.98722
2.85794
2.76545
2.66597
2.56151
2.45623
2.36018
2.24585
2.13959
2.07001
2.16979
2.67682
3.74383
4.69729
4.9396
4.90844
4.72783
4.49553
4.27167
4.07446
3.92461
3.81749
3.73216
3.65016
3.56695
3.47469
3.35159
3.19076
3.03541
2.93475
2.86327
2.79501
2.73965
2.67859
2.64808
2.61294
2.65681
2.87998
3.35225
3.8259
4.06494
4.14997
4.14778
4.08689
3.98398
3.87976
3.77331
3.62534
3.46579
3.38813
3.34842
3.29921
3.2484
3.1979
3.13767
3.07578
3.02601
2.99617
2.96155
2.99599
3.16909
3.49339
3.82916
4.01579
4.10801
4.10056
4.06224
4.00279
3.91278
3.79207
3.59437
3.70751
3.71887
3.71364
3.6789
3.52943
3.27828
2.99584
2.68535
2.36598
2.148
1.98877
1.83862
1.59396
1.40495
1.3725
1.31474
1.34719
1.70158
2.696
3.53366
3.64997
3.5302
3.32889
3.16985
3.05807
2.94955
2.83356
2.74032
2.66644
2.58208
2.48115
2.39314
2.27203
2.26719
2.54462
3.45433
4.53021
5.26543
5.33965
5.25455
4.97794
4.6831
4.44222
4.2565
4.11681
3.99276
3.87487
3.77956
3.69677
3.60484
3.49946
3.37192
3.20806
3.05965
2.96576
2.90024
2.83193
2.75963
2.69528
2.64155
2.59316
2.53089
2.51006
2.60213
2.95538
3.41571
3.79421
3.92913
3.97958
3.94673
3.87195
3.77963
3.65841
3.48943
3.35677
3.29929
3.25797
3.21162
3.17
3.12628
3.09853
3.08303
3.11324
3.21911
3.46365
3.78136
4.00278
4.12966
4.18937
4.15958
4.09698
4.02768
3.94497
3.85473
3.7583
3.60529
3.73814
3.73777
3.70722
3.56145
3.30197
2.95978
2.62066
2.34608
2.0765
1.83869
1.68787
1.50749
1.32371
1.27032
1.24008
1.154
1.07184
1.09224
1.36942
2.18934
3.05367
3.38111
3.34769
3.23212
3.10071
2.9814
2.86813
2.76637
2.70306
2.63855
2.55879
2.48757
2.59569
3.18958
4.44695
5.38485
5.62199
5.57293
5.38574
5.17301
4.92442
4.67541
4.4581
4.29661
4.18143
4.07365
3.95226
3.82697
3.72649
3.65183
3.5511
3.41595
3.24917
3.08886
2.97
2.90511
2.86124
2.81089
2.74449
2.67274
2.59604
2.50136
2.43915
2.39698
2.43344
2.62911
3.03954
3.47986
3.76114
3.87605
3.86855
3.8186
3.70514
3.54675
3.38057
3.2552
3.20618
3.174
3.14951
3.1471
3.18256
3.30489
3.52718
3.89871
4.1529
4.20976
4.22425
4.22045
4.2165
4.16568
4.10244
4.0285
3.93074
3.82343
3.73288
3.62029
3.75991
3.72389
3.5838
3.30792
2.90875
2.56053
2.28543
1.96798
1.67941
1.53884
1.41509
1.23605
1.13843
1.12278
1.07972
0.997368
0.958441
0.948091
0.965779
1.16411
1.91553
2.81677
3.31428
3.31109
3.23155
3.09826
2.97835
2.85593
2.80629
2.74309
2.76505
3.08635
4.17993
5.41285
6.16458
6.1274
5.95485
5.63662
5.34679
5.09303
4.88516
4.70801
4.53202
4.36444
4.22505
4.10862
3.99101
3.88012
3.77537
3.6342
3.48488
3.3506
3.24266
3.14384
3.03637
2.93194
2.86415
2.8296
2.80012
2.73717
2.63972
2.51868
2.41997
2.37165
2.33221
2.3305
2.42124
2.73964
3.17895
3.53263
3.69307
3.70538
3.67178
3.57812
3.41485
3.26459
3.19223
3.17446
3.18029
3.23528
3.47755
3.83902
4.25284
4.49111
4.52527
4.4672
4.37528
4.28543
4.21121
4.14323
4.07879
3.99885
3.91027
3.81641
3.73865
3.62727
3.73878
3.60606
3.32599
2.87981
2.44854
2.17152
1.84689
1.54654
1.42463
1.30998
1.12342
1.05537
1.04899
1.03463
0.987763
0.946482
0.944326
0.942286
0.944889
0.959003
1.13486
1.7933
2.84069
3.31939
3.31326
3.263
3.16209
3.03972
2.95012
3.04472
3.67142
5.18189
6.49563
6.56628
6.45765
6.20458
5.92952
5.62804
5.34326
5.10043
4.90646
4.74729
4.60366
4.47537
4.35851
4.23384
4.10158
3.94722
3.76419
3.59645
3.46101
3.34773
3.25276
3.17299
3.0946
3.01284
2.94036
2.86689
2.77817
2.68418
2.58661
2.49149
2.41431
2.36031
2.31612
2.29438
2.25539
2.29386
2.49615
2.88639
3.27111
3.5319
3.58642
3.56238
3.45865
3.3152
3.21803
3.22763
3.34403
3.67341
4.12158
4.47101
4.63978
4.62426
4.60071
4.54757
4.44721
4.32138
4.19736
4.10261
4.02906
3.95803
3.8856
3.81548
3.76891
3.67604
3.64725
3.33594
2.86599
2.33272
1.98957
1.70255
1.41135
1.23931
1.13326
1.01043
0.939323
0.938224
0.932708
0.92514
0.921478
0.928524
0.944309
0.967122
0.991588
1.00851
1.03251
1.16984
1.74401
2.72534
3.30173
3.31863
3.3011
3.3181
3.53846
4.51979
6.11603
7.18091
7.28683
7.0387
6.49827
6.08331
5.80522
5.59056
5.3612
5.14048
4.9647
4.82392
4.67907
4.51923
4.34497
4.17495
4.03046
3.89151
3.73543
3.58458
3.46675
3.37774
3.30352
3.23047
3.14603
3.03915
2.91882
2.82274
2.74393
2.66181
2.57543
2.50233
2.45075
2.39958
2.35055
2.29095
2.23662
2.18455
2.17391
2.27149
2.55349
2.95189
3.3068
3.4309
3.40494
3.37333
3.42886
3.62763
3.95134
4.38199
4.63007
4.76941
4.80925
4.76875
4.66911
4.55795
4.44518
4.32098
4.18594
4.0882
4.01335
3.94674
3.88702
3.83175
3.7783
3.66605
3.36792
2.76855
2.13645
1.78426
1.5447
1.2535
1.08962
1.04843
0.994253
0.942362
0.923971
0.927028
0.925054
0.921507
0.928512
0.955246
0.989924
1.02125
1.03371
1.03972
1.03668
1.038
1.10316
1.59754
2.61824
3.04236
3.5496
4.30488
5.56739
6.67307
7.46527
7.48021
7.15082
6.7846
6.46107
6.11228
5.78658
5.6017
5.45254
5.29053
5.1366
4.97777
4.80328
4.61535
4.4205
4.2189
4.02454
3.87031
3.74904
3.64336
3.55848
3.48598
3.41479
3.33664
3.2412
3.11572
2.96307
2.81456
2.71674
2.65974
2.61482
2.57645
2.53776
2.49005
2.43554
2.36388
2.28377
2.19338
2.09787
2.0788
2.12908
2.33527
2.69658
3.12162
3.37789
3.70139
4.09939
4.46454
4.6711
4.74496
4.7877
4.79451
4.7688
4.70927
4.63765
4.54851
4.45282
4.32996
4.17941
4.0835
4.0284
3.97484
3.92508
3.87295
3.81744
3.69863
2.6615
1.68411
1.138
0.89575
0.715624
0.631078
0.6455
0.716728
0.788203
0.839054
0.91469
0.993701
1.00702
0.999636
0.999832
1.01652
1.04308
1.07208
1.07876