/*--------------------------------*- C++ -*----------------------------------*\
  =========                 |
  \\      /  F ield         | OpenFOAM: The Open Source CFD Toolbox
   \\    /   O peration     | Website:  https://openfoam.org
    \\  /    A nd           | Version:  7
     \\/     M anipulation  |
\*---------------------------------------------------------------------------*/
FoamFile
{
    version     2.0;
    format      ascii;
    class       volScalarField;
    location    "2.5";
    object      rho;
}
// * * * * * * * * * * * * * * * * * * * * * * * * * * * * * * * * * * * * * //

dimensions      [1 -3 0 0 0 0 0];

internalField   nonuniform List<scalar> 
4608
(
1.40001
1.40001
1.40001
1.40001
1.40001
1.40001
1.40001
1.40001
1.40001
1.40001
1.40001
1.40001
1.40001
1.40001
1.40001
1.40001
1.40001
1.40001
1.40001
1.40001
1.40001
1.40001
1.40001
1.40001
1.40001
1.40001
1.40001
1.40001
1.40001
1.40001
1.40001
1.40001
1.40001
1.40001
1.40001
1.40001
1.40001
1.40001
1.40001
1.40001
1.40001
1.40001
1.40001
1.40001
1.40001
1.40001
1.40001
1.40001
1.40001
1.40001
1.40001
1.40001
1.40001
1.40001
1.40001
1.40001
1.40001
1.40001
1.40001
1.40001
1.40001
1.40001
1.40001
1.40001
1.40001
1.40001
1.40001
1.40001
1.40001
1.40001
1.40001
1.40001
1.40001
1.40001
1.40001
1.40001
1.40001
1.40001
1.40001
1.40001
1.40001
1.40001
1.40001
1.40001
1.40001
1.40001
1.40001
1.40001
1.40001
1.40001
1.40001
1.40001
1.40001
1.40001
1.40001
1.40001
1.40001
1.40001
1.40001
1.40001
1.40001
1.40001
1.40001
1.40001
1.40001
1.40001
1.40001
1.40001
1.40001
1.40001
1.40001
1.40001
1.40001
1.40001
1.40001
1.40001
1.40001
1.40001
1.40001
1.40001
1.40001
1.40001
1.40001
1.40001
1.40001
1.40001
1.40001
1.40001
1.40001
1.40001
1.40001
1.40001
1.40001
1.40001
1.40001
1.40001
1.40001
1.40001
1.40001
1.40001
1.40001
1.40001
1.40001
1.40001
1.40001
1.40001
1.40001
1.40001
1.40001
1.40001
1.40001
1.40001
1.40001
1.40001
1.40001
1.40001
1.40001
1.40001
1.40001
1.40001
1.40001
1.40001
1.40001
1.40001
1.40001
1.40001
1.40001
1.40001
1.40001
1.40001
1.40001
1.40001
1.40001
1.40001
1.40001
1.40001
1.40001
1.40001
1.40001
1.40001
1.40001
1.40001
1.40001
1.40001
1.40001
1.40001
1.40001
1.40001
1.40001
1.40001
1.40001
1.40001
1.40001
1.40001
1.40001
1.40001
1.40001
1.40001
1.40001
1.40001
1.40001
1.40001
1.40001
1.40001
1.40001
1.40001
1.40001
1.40001
1.40001
1.40001
1.40001
1.40001
1.40001
1.40001
1.40001
1.40001
1.40001
1.40001
1.40001
1.40001
1.40001
1.40001
1.40001
1.40001
1.40001
1.40001
1.40001
1.40001
1.40001
1.40001
1.40001
1.40001
1.40001
1.40001
1.40001
1.40001
1.40001
1.40001
1.40001
1.40001
1.40001
1.40001
1.40001
1.40001
1.40001
1.40001
1.40001
1.40001
1.40001
1.40001
1.40001
1.40001
1.40001
1.40001
1.40001
1.40001
1.40001
1.40001
1.40001
1.40001
1.40001
1.40001
1.40001
1.40001
1.40001
1.40001
1.40001
1.40001
1.40001
1.40001
1.40001
1.40001
1.40001
1.40001
1.40001
1.40001
1.40001
1.40001
1.40001
1.40001
1.40001
1.40001
1.40001
1.40001
1.40001
1.40001
1.40001
1.40001
1.40001
1.40001
1.40001
1.40001
1.40001
1.40001
1.40001
1.40001
1.40001
1.40001
1.40001
1.40001
1.40001
1.40001
1.40001
1.40001
1.40001
1.40001
1.40001
1.40001
1.40001
1.40001
1.40001
1.40001
1.40001
1.40001
1.40001
1.40001
1.40001
1.40001
1.40001
1.40001
1.40001
1.40001
1.40001
1.40001
1.40001
1.40001
1.40001
1.40001
1.40001
1.40001
1.40001
1.40001
1.40001
1.40001
1.40001
1.40001
1.40001
1.40001
1.40001
1.40001
1.40001
1.40001
1.40001
1.40001
1.40001
1.40001
1.40001
1.40001
1.40001
1.40001
1.40001
1.40001
1.40001
1.40001
1.40001
1.40001
1.40001
1.40001
1.40001
1.40001
1.40001
1.40001
1.40001
1.40001
1.40001
1.40001
1.40001
1.40001
1.40001
1.40001
1.40001
1.40001
1.40001
1.40001
1.40001
1.40001
1.40001
1.40001
1.40001
1.40001
1.40001
1.40001
1.40001
1.40001
1.40001
1.40001
1.40001
1.40001
1.40001
1.40001
1.40001
1.40001
1.40001
1.40001
1.40001
1.40001
1.40001
1.40001
1.40001
1.40001
1.40001
1.40001
1.40001
1.40001
1.40001
1.40001
1.40001
1.40001
1.40001
1.40001
1.40001
1.40001
1.40001
1.40001
1.40001
1.40001
1.40001
1.40001
1.40001
1.40001
1.40001
1.40001
1.40001
1.40001
1.40001
1.40001
1.40001
1.40001
1.40001
1.40001
1.40001
1.40001
1.40001
1.40001
1.40001
1.40001
1.40001
1.40001
1.40001
1.40001
1.40001
1.40001
1.40001
1.40001
1.40001
1.40001
1.40001
1.40001
1.40001
1.40001
1.40001
1.40001
1.40001
1.40001
1.40001
1.40001
1.40001
1.40001
1.40001
1.40001
1.40001
1.40001
1.40001
1.40001
1.40001
1.40001
1.40001
1.40001
1.40001
1.40001
1.40001
1.40001
1.40001
1.40001
1.40001
1.40001
1.40001
1.40001
1.40001
1.40001
1.40001
1.40001
1.40001
1.40001
1.40001
1.40001
1.40001
1.40001
1.40001
1.40001
1.40001
1.40001
1.40001
1.40001
1.40001
1.40001
1.40001
1.40001
1.40001
1.40001
1.40001
1.40001
1.40001
1.40001
1.40001
1.40001
1.40001
1.40001
1.40001
1.40001
1.40001
1.40001
1.40001
1.40001
1.40001
1.40001
1.40001
1.40001
1.40001
1.40001
1.40001
1.40001
1.40001
1.40001
1.40001
1.40001
1.40001
1.40001
1.40001
1.40001
1.40001
1.40001
1.40001
1.40001
1.40001
1.40001
1.40001
1.40001
1.40001
1.40001
1.40001
1.40001
1.40001
1.40001
1.40001
1.40001
1.40001
1.40001
1.40001
1.40001
1.40001
1.40001
1.40001
1.40001
1.40001
1.40001
1.40001
1.40001
1.40001
1.40001
1.40001
1.40001
1.40001
1.40001
1.40001
1.40001
1.40001
1.40001
1.40001
1.40001
1.40001
1.40001
1.40001
1.40001
1.40001
1.40001
1.40001
1.40001
1.40001
1.40001
1.40001
1.40001
1.40001
1.40001
1.40001
1.40001
1.40001
1.40001
1.40001
1.40001
1.40001
1.40001
1.40001
1.40001
1.40001
1.40001
1.40001
1.40001
1.40001
1.40001
1.40001
1.40001
1.40001
1.40001
1.40001
1.40001
1.40001
1.40001
1.40001
1.40001
1.40001
1.40001
1.40001
1.40001
1.40001
1.40001
1.40001
1.40001
1.40001
1.40001
1.40001
1.40001
1.40001
1.40001
1.40001
1.40001
1.40001
1.40001
1.40001
1.40001
1.40001
1.40001
1.40001
1.40001
1.40001
1.40001
1.40001
1.40001
1.40001
1.40001
1.40001
1.40001
1.40001
1.40001
1.40001
1.40001
1.40001
1.40001
1.40001
1.40001
1.40001
1.40001
1.40001
1.40001
1.40001
1.40001
1.40001
1.40001
1.40001
1.40001
1.40001
1.40001
1.40001
1.40001
1.40001
1.40001
1.40001
1.40001
1.40001
1.40001
1.40001
1.40001
1.40001
1.40001
1.40001
1.40001
1.40001
1.40001
1.40001
1.40001
1.40001
1.40001
1.40001
1.40001
1.40001
1.40001
1.40001
1.40001
1.40001
1.40001
1.40001
1.40001
1.40001
1.40001
1.40001
1.40001
1.40001
1.40001
1.40001
1.40001
1.40001
1.40001
1.40001
1.40001
1.40001
1.40001
1.40001
1.40001
1.40001
1.40001
1.40001
1.40001
1.40001
1.40001
1.40001
1.40001
1.40001
1.40001
1.40001
1.40001
1.40001
1.40001
1.40001
1.40001
1.40001
1.40001
1.40001
1.40001
1.40001
1.40001
1.40001
1.40001
1.40001
1.40001
1.40001
1.40001
1.40001
1.40001
1.40001
1.40001
1.40001
1.40001
1.40001
1.40001
1.40001
1.40001
1.40001
1.40001
1.40001
1.40001
1.40001
1.40001
1.40001
1.40001
1.40001
1.40001
1.40001
1.40001
1.40001
1.40001
1.40001
1.40001
1.40001
1.40001
1.40001
1.40001
1.40001
1.40001
1.67614
2.09005
2.54013
2.98334
3.43478
3.8139
4.13351
4.42517
4.41903
4.29012
4.03794
3.72497
3.45103
3.37209
3.30606
3.30701
3.32588
3.34841
3.37465
3.40277
3.42158
3.42363
3.42163
3.42371
1.40299
1.41586
1.47547
1.59131
1.79812
2.11181
2.50904
2.9862
3.3552
3.52984
3.66328
3.63231
3.53947
3.48055
3.43146
3.39294
3.37666
3.36027
3.36291
3.37915
3.40114
3.41071
3.4122
3.41552
1.40001
1.39996
1.40018
1.4003
1.40315
1.42248
1.49477
1.7133
2.18311
2.89541
3.43386
3.72879
3.76363
3.7083
3.6076
3.47406
3.38145
3.334
3.33042
3.34089
3.35876
3.37793
3.3899
3.39676
1.40001
1.4
1.4
1.4
1.39999
1.40004
1.39992
1.40172
1.42917
1.63567
2.17172
2.95369
3.48082
3.54028
3.52484
3.51105
3.45161
3.36921
3.33452
3.32625
3.32619
3.33481
3.35469
3.37744
1.40001
1.40001
1.4
1.4
1.4
1.4
1.39999
1.39999
1.39992
1.40106
1.43902
1.66902
2.33496
2.98349
3.43311
3.54391
3.52837
3.4661
3.40148
3.34027
3.30617
3.30501
3.31515
3.33966
1.40001
1.40001
1.40001
1.40001
1.40001
1.4
1.4
1.4
1.4
1.4
1.39994
1.40226
1.46972
1.80129
2.52047
3.09352
3.40061
3.43513
3.40034
3.35516
3.3229
3.29687
3.28771
3.29469
1.40001
1.40001
1.40001
1.40001
1.40001
1.40001
1.40001
1.40001
1.40001
1.4
1.4
1.39999
1.40008
1.40864
1.52879
2.02085
2.81841
3.25074
3.3394
3.34357
3.3429
3.31652
3.28473
3.27978
1.40001
1.40001
1.40001
1.40001
1.40001
1.40001
1.40001
1.40001
1.40001
1.40001
1.40001
1.4
1.4
1.39998
1.40089
1.43556
1.688
2.35518
3.0354
3.35686
3.37738
3.3573
3.31997
3.29902
1.40001
1.40001
1.40001
1.40001
1.40001
1.40001
1.40001
1.40001
1.40001
1.40001
1.40001
1.40001
1.4
1.4
1.4
1.40003
1.40616
1.52892
1.99688
2.72151
3.19154
3.36816
3.36449
3.32858
1.40001
1.40001
1.40001
1.40001
1.40001
1.40001
1.40001
1.40001
1.40001
1.40001
1.40001
1.40001
1.40001
1.4
1.4
1.4
1.39999
1.40171
1.43565
1.75256
2.42307
3.14682
3.25626
3.29091
1.40001
1.40001
1.40001
1.40001
1.40001
1.40001
1.40001
1.40001
1.40001
1.40001
1.40001
1.40001
1.40001
1.40001
1.40001
1.4
1.4
1.39999
1.40012
1.41705
1.5678
2.18711
2.89448
3.31376
1.40001
1.40001
1.40001
1.40001
1.40001
1.40001
1.40001
1.40001
1.40001
1.40001
1.40001
1.40001
1.40001
1.40001
1.40001
1.40001
1.4
1.4
1.4
1.40005
1.404
1.50483
1.97843
2.85403
1.40001
1.40001
1.40001
1.40001
1.40001
1.40001
1.40001
1.40001
1.40001
1.40001
1.40001
1.40001
1.40001
1.40001
1.40001
1.40001
1.40001
1.40001
1.4
1.4
1.40001
1.40245
1.46148
1.83912
1.40001
1.40001
1.40001
1.40001
1.40001
1.40001
1.40001
1.40001
1.40001
1.40001
1.40001
1.40001
1.40001
1.40001
1.40001
1.40001
1.40001
1.40001
1.40001
1.4
1.4
1.4
1.40123
1.42504
1.40001
1.40001
1.40001
1.40001
1.40001
1.40001
1.40001
1.40001
1.40001
1.40001
1.40001
1.40001
1.40001
1.40001
1.40001
1.40001
1.40001
1.40001
1.40001
1.40001
1.4
1.4
1.40001
1.39999
1.40001
1.40001
1.40001
1.40001
1.40001
1.40001
1.40001
1.40001
1.40001
1.40001
1.40001
1.40001
1.40001
1.40001
1.40001
1.40001
1.40001
1.40001
1.40001
1.40001
1.40001
1.4
1.4
1.39999
1.40001
1.40001
1.40001
1.40001
1.40001
1.40001
1.40001
1.40001
1.40001
1.40001
1.40001
1.40001
1.40001
1.40001
1.40001
1.40001
1.40001
1.40001
1.40001
1.40001
1.40001
1.4
1.4
1.4
1.40001
1.40001
1.40001
1.40001
1.40001
1.40001
1.40001
1.40001
1.40001
1.40001
1.40001
1.40001
1.40001
1.40001
1.40001
1.40001
1.40001
1.40001
1.40001
1.40001
1.4
1.4
1.4
1.4001
1.40001
1.40001
1.40001
1.40001
1.40001
1.40001
1.40001
1.40001
1.40001
1.40001
1.40001
1.40001
1.40001
1.40001
1.40001
1.40001
1.40001
1.40001
1.40001
1.4
1.4
1.4
1.40111
1.42798
1.40001
1.40001
1.40001
1.40001
1.40001
1.40001
1.40001
1.40001
1.40001
1.40001
1.40001
1.40001
1.40001
1.40001
1.40001
1.40001
1.40001
1.40001
1.4
1.4
1.40001
1.40202
1.4642
1.80592
1.40001
1.40001
1.40001
1.40001
1.40001
1.40001
1.40001
1.40001
1.40001
1.40001
1.40001
1.40001
1.40001
1.40001
1.40001
1.40001
1.4
1.4
1.4
1.40004
1.40431
1.50182
1.99259
2.73781
1.40001
1.40001
1.40001
1.40001
1.40001
1.40001
1.40001
1.40001
1.40001
1.40001
1.40001
1.40001
1.40001
1.40001
1.40001
1.4
1.4
1.4
1.40013
1.41642
1.5683
2.20545
2.88
3.28221
1.40001
1.40001
1.40001
1.40001
1.40001
1.40001
1.40001
1.40001
1.40001
1.40001
1.40001
1.40001
1.40001
1.4
1.4
1.4
1.39999
1.40167
1.43587
1.74627
2.43296
3.15309
3.24009
3.2809
1.40001
1.40001
1.40001
1.40001
1.40001
1.40001
1.40001
1.40001
1.40001
1.40001
1.40001
1.40001
1.4
1.4
1.4
1.40003
1.40621
1.52904
1.99375
2.71715
3.20528
3.36501
3.35714
3.32357
1.40001
1.40001
1.40001
1.40001
1.40001
1.40001
1.40001
1.40001
1.40001
1.40001
1.40001
1.4
1.4
1.39998
1.4009
1.43528
1.68848
2.35784
3.0308
3.35633
3.38075
3.35933
3.31496
3.29615
1.40001
1.40001
1.40001
1.40001
1.40001
1.40001
1.40001
1.40001
1.40001
1.4
1.4
1.39999
1.40008
1.40866
1.52883
2.01935
2.82122
3.24905
3.33777
3.34355
3.34446
3.31731
3.28263
3.27878
1.40001
1.40001
1.40001
1.40001
1.40001
1.4
1.4
1.4
1.4
1.4
1.39994
1.40227
1.4696
1.80189
2.5196
3.09374
3.40151
3.43468
3.39899
3.35626
3.32458
3.29766
3.28678
3.29399
1.40001
1.40001
1.4
1.4
1.4
1.4
1.39999
1.39999
1.39992
1.40105
1.43906
1.66892
2.33508
2.9841
3.43231
3.54394
3.5284
3.46662
3.40129
3.34108
3.30647
3.30487
3.3148
3.33899
1.40001
1.4
1.4
1.4
1.39999
1.40004
1.39992
1.40172
1.42918
1.63561
2.17192
2.95277
3.48245
3.54008
3.52436
3.51046
3.45169
3.36999
3.3342
3.32661
3.32644
3.3347
3.35426
3.37746
1.40001
1.39996
1.40018
1.4003
1.40315
1.42247
1.49477
1.71331
2.1831
2.89556
3.43374
3.72876
3.76373
3.70826
3.60737
3.47376
3.38195
3.33435
3.33011
3.34091
3.35895
3.3778
3.38968
3.39688
1.40299
1.41586
1.47543
1.59133
1.79814
2.11176
2.50903
2.98628
3.35513
3.5299
3.66317
3.63235
3.5395
3.48053
3.43129
3.39303
3.37686
3.36029
3.3628
3.37903
3.40107
3.41064
3.41216
3.41559
1.67614
2.09
2.5402
2.98341
3.43457
3.81398
4.13361
4.42515
4.41901
4.29011
4.0379
3.72495
3.45095
3.37219
3.30608
3.3071
3.32598
3.34836
3.37444
3.40256
3.4215
3.42356
3.42161
3.42376
2.66555
1.91637
1.44153
1.20079
1.00474
0.910329
0.923168
0.989481
1.06126
1.11263
1.18318
1.26412
1.28251
1.27728
1.27631
1.29001
1.31435
1.34494
1.35375
1.35471
1.35289
1.33607
1.32117
1.36298
1.71134
2.62913
3.6899
4.87052
5.81562
5.94186
5.6039
5.12917
4.8134
4.66512
4.57367
4.45768
4.31408
4.17128
4.05395
3.9491
3.84223
3.73692
3.6327
3.53152
3.44187
3.36524
3.29445
3.22108
3.14278
3.06427
2.98896
2.91511
2.84347
2.7753
2.70688
2.63765
2.57325
2.52722
2.49591
2.46728
2.43667
2.4035
2.36164
2.29402
2.19476
2.11144
2.07399
2.05658
2.03837
2.02841
2.02533
2.06661
2.21558
2.49433
2.86005
3.22705
3.52325
3.7868
3.92351
3.92927
3.89511
3.84169
3.76818
3.67532
3.58061
3.44467
3.33565
3.30257
3.28015
3.27563
3.29724
3.29156
3.26656
3.22735
3.13834
2.97765
3.15203
2.73929
2.27886
1.99894
1.8
1.5584
1.40898
1.36188
1.30601
1.24653
1.22448
1.22993
1.22786
1.22248
1.22791
1.25135
1.28401
1.31509
1.32742
1.33156
1.32853
1.32931
1.38481
1.73071
2.45728
2.74927
3.0545
3.49853
4.21923
4.76826
5.0998
5.08428
4.93499
4.75641
4.60086
4.46045
4.32261
4.20003
4.09895
3.99697
3.88567
3.7713
3.67067
3.57964
3.48914
3.40399
3.3306
3.25742
3.17539
3.08802
3.0057
2.9336
2.87025
2.81212
2.75335
2.68536
2.61394
2.55859
2.52334
2.49345
2.4618
2.42732
2.38385
2.31765
2.22357
2.14947
2.10749
2.08741
2.06397
2.07154
2.13277
2.29798
2.57035
2.76143
2.86938
3.01471
3.20465
3.35089
3.53248
3.69343
3.80853
3.81443
3.76494
3.68102
3.58104
3.46075
3.35586
3.31874
3.29606
3.28957
3.30693
3.2979
3.27252
3.23087
3.14964
2.99745
3.33037
3.12775
2.80942
2.42398
2.16141
1.94068
1.70013
1.5448
1.44695
1.32899
1.26038
1.261
1.25718
1.24608
1.24054
1.24614
1.26166
1.28442
1.30744
1.32181
1.34163
1.46385
1.89898
2.52083
2.92722
2.92956
2.92028
2.93115
3.07056
3.62357
4.42821
4.93643
4.98954
4.86616
4.60232
4.39374
4.25977
4.15158
4.04581
3.94036
3.83687
3.7429
3.65303
3.55557
3.44633
3.33447
3.24234
3.17815
3.11546
3.0451
2.97888
2.92358
2.87264
2.81563
2.74491
2.66067
2.57462
2.50263
2.46063
2.43343
2.40575
2.37377
2.33456
2.28379
2.22542
2.15846
2.09961
2.08991
2.09658
2.17971
2.39382
2.67002
2.88777
2.92278
2.90099
2.8642
2.88222
2.98336
3.21721
3.49284
3.6616
3.74264
3.73814
3.69009
3.58581
3.46536
3.37424
3.34214
3.31658
3.28995
3.26112
3.23813
3.21539
3.17864
3.11938
3.00942
3.36616
3.28924
3.11214
2.81258
2.50318
2.30046
2.05507
1.80889
1.70537
1.6069
1.43981
1.37892
1.37325
1.35904
1.313
1.27167
1.27005
1.26791
1.26989
1.28189
1.42339
1.96756
2.60886
2.91069
2.92711
2.90479
2.83696
2.76224
2.70145
2.7582
3.12391
3.93015
4.59263
4.63129
4.57092
4.41715
4.27216
4.13647
4.00104
3.89557
3.81083
3.73317
3.64671
3.55152
3.44137
3.32375
3.21012
3.1314
3.08424
3.0417
2.99662
2.95292
2.90529
2.84104
2.75588
2.66426
2.57148
2.49062
2.43987
2.40842
2.37918
2.34593
2.30817
2.26855
2.2316
2.18301
2.12934
2.14734
2.26815
2.53161
2.78084
2.97079
3.00219
2.98579
2.93271
2.8621
2.80797
2.80935
2.87502
3.05353
3.27373
3.4782
3.57785
3.58166
3.55007
3.47641
3.41936
3.38272
3.34015
3.29379
3.25415
3.22475
3.19161
3.14086
3.09173
3.02242
3.35405
3.3398
3.2599
3.08746
2.82124
2.57704
2.37783
2.13856
1.91215
1.79683
1.69147
1.53466
1.45027
1.43678
1.39881
1.32263
1.28461
1.2723
1.28814
1.44504
2.03707
2.63492
2.88541
2.90098
2.86341
2.78472
2.70963
2.64478
2.59333
2.54666
2.56181
2.76158
3.39689
4.09015
4.42434
4.39797
4.24923
4.06565
3.91949
3.82114
3.75908
3.71079
3.65863
3.58527
3.48696
3.36018
3.21668
3.09836
3.02985
2.97774
2.93186
2.89185
2.85125
2.80261
2.7393
2.66222
2.58057
2.50829
2.44356
2.3809
2.3358
2.30744
2.289
2.27039
2.2603
2.25488
2.30391
2.46492
2.7067
2.89999
3.00915
3.04521
3.01621
2.97164
2.9243
2.87176
2.81841
2.78319
2.73676
2.74922
2.84217
3.02817
3.28389
3.41685
3.48499
3.48492
3.45559
3.40764
3.36177
3.3201
3.27686
3.21968
3.15659
3.08759
3.03982
2.99684
3.31951
3.32504
3.31264
3.22777
3.0656
2.84181
2.60519
2.40826
2.21079
2.03128
1.91133
1.76265
1.60823
1.56365
1.54003
1.46722
1.38881
1.40444
1.62291
2.19192
2.81782
2.961
2.92651
2.85029
2.77215
2.69723
2.62681
2.56391
2.51122
2.46112
2.427
2.3979
2.47848
2.88194
3.54858
4.08429
4.1119
4.02522
3.93619
3.83841
3.75137
3.65942
3.58104
3.5166
3.45095
3.36374
3.21773
3.07743
3.00135
2.95238
2.91183
2.87198
2.82893
2.78648
2.74194
2.68844
2.62363
2.53806
2.4296
2.35211
2.31829
2.29225
2.28316
2.28596
2.33002
2.46709
2.72771
2.96034
3.05318
3.08802
3.0935
3.05998
3.01457
2.97159
2.93135
2.88789
2.84075
2.78198
2.72674
2.66262
2.65948
2.70148
2.85348
3.07734
3.29838
3.39983
3.41316
3.40809
3.38788
3.34568
3.28644
3.21546
3.13358
3.06094
3.02607
2.9906
3.28734
3.29938
3.29841
3.28119
3.19
3.03118
2.84681
2.63578
2.41019
2.25633
2.13961
2.02419
1.82933
1.67034
1.64824
1.60261
1.62546
1.88904
2.52481
3.05855
3.13795
3.05299
2.9189
2.81318
2.74275
2.66993
2.59651
2.53248
2.47235
2.41711
2.3657
2.33228
2.27847
2.28874
2.46516
2.98908
3.62958
3.84355
3.90371
3.85327
3.73475
3.62109
3.53257
3.47277
3.41535
3.33669
3.21907
3.09448
3.0055
2.94531
2.89678
2.85024
2.80081
2.74778
2.69275
2.64148
2.58356
2.50374
2.41284
2.35122
2.321
2.30705
2.31447
2.41241
2.65291
2.9741
3.20334
3.21797
3.17246
3.12542
3.07667
3.03651
2.9981
2.96737
2.93273
2.89583
2.85859
2.80871
2.73439
2.65366
2.62213
2.61605
2.63709
2.73889
2.94804
3.20722
3.33982
3.38407
3.37852
3.34308
3.27935
3.20791
3.133
3.07206
3.04265
3.00029
3.292
3.29267
3.2902
3.27845
3.24751
3.15638
3.0009
2.84391
2.66856
2.43104
2.27298
2.21505
2.08738
1.91125
1.79634
1.87641
2.28557
2.99007
3.42862
3.41826
3.30369
3.14745
3.00014
2.88731
2.79252
2.70077
2.61332
2.53762
2.46401
2.40211
2.3419
2.30044
2.24268
2.19099
2.15395
2.21457
2.55493
3.11357
3.59218
3.6979
3.68219
3.61515
3.52417
3.4455
3.3687
3.28507
3.19547
3.10063
3.01055
2.93711
2.87829
2.82569
2.77339
2.72037
2.67224
2.62367
2.56128
2.4869
2.41664
2.37122
2.34552
2.37685
2.54742
2.8682
3.1642
3.35108
3.36477
3.33423
3.24401
3.13623
3.07062
3.02596
2.98946
2.96428
2.93619
2.90851
2.87975
2.83352
2.74839
2.65956
2.61656
2.59573
2.59315
2.60229
2.66647
2.84556
3.06639
3.21354
3.26295
3.24957
3.21497
3.17977
3.13958
3.10357
3.07446
3.01904
3.31184
3.3125
3.30959
3.29733
3.27781
3.23219
3.14073
2.98778
2.84577
2.66078
2.49144
2.32654
2.21742
2.1423
2.29117
2.84777
3.53719
3.79127
3.73129
3.56849
3.39445
3.25068
3.12958
3.01938
2.90691
2.79069
2.67518
2.5692
2.48038
2.40699
2.34331
2.29067
2.23353
2.16472
2.11534
2.07812
2.08342
2.22898
2.67158
3.21452
3.53622
3.57844
3.53989
3.43695
3.33821
3.24359
3.16018
3.08407
3.00606
2.92627
2.85774
2.80256
2.753
2.70004
2.64692
2.58859
2.52849
2.48066
2.43809
2.42532
2.49848
2.74234
3.09988
3.34444
3.42673
3.42334
3.38694
3.32239
3.25308
3.17285
3.10082
3.0408
3.00138
2.97247
2.94282
2.91235
2.8812
2.83919
2.76473
2.67271
2.62271
2.59955
2.5841
2.57827
2.58118
2.61697
2.72055
2.86223
3.04431
3.12695
3.14317
3.14848
3.1468
3.12949
3.10837
3.05068
3.28992
3.29818
3.30668
3.3009
3.28958
3.26615
3.21683
3.12169
2.98657
2.82563
2.67844
2.48288
2.50469
2.80082
3.50608
4.14185
4.24714
4.13174
3.92255
3.7176
3.53756
3.3837
3.25188
3.13205
3.01477
2.89665
2.77601
2.65222
2.5393
2.4343
2.34832
2.28112
2.22529
2.16954
2.12142
2.06433
2.03853
1.99758
2.03491
2.30594
2.82388
3.26162
3.41507
3.40156
3.32924
3.24354
3.16576
3.08471
2.99478
2.89866
2.82714
2.77709
2.72964
2.67099
2.61737
2.56042
2.52906
2.50511
2.53975
2.70228
3.02428
3.33996
3.51839
3.55517
3.53109
3.45008
3.36353
3.30154
3.25018
3.19405
3.13006
3.069
3.02405
2.98759
2.95277
2.91756
2.88151
2.84086
2.78398
2.70426
2.63839
2.61058
2.5903
2.57453
2.56358
2.56345
2.5682
2.60774
2.68787
2.84927
2.99602
3.07536
3.13696
3.15584
3.14527
3.09101
3.34378
3.32452
3.30748
3.30333
3.30003
3.29073
3.2621
3.2058
3.0939
2.97833
2.83464
2.94066
3.5241
4.33679
4.70013
4.64906
4.46046
4.24857
4.04557
3.85749
3.68699
3.52874
3.38141
3.24304
3.11356
2.9912
2.87078
2.74732
2.62913
2.51339
2.40845
2.31737
2.23287
2.16669
2.12706
2.09433
2.03805
1.98656
1.92707
1.91659
2.03631
2.42594
2.92023
3.21153
3.27555
3.25604
3.18043
3.08553
2.98895
2.89026
2.81506
2.75661
2.70116
2.64334
2.5992
2.56248
2.5726
2.69852
2.99174
3.32136
3.57649
3.63317
3.60959
3.57568
3.52083
3.45781
3.38277
3.31354
3.2587
3.211
3.15984
3.10402
3.0522
3.00794
2.96776
2.92838
2.8874
2.84408
2.79669
2.73449
2.66604
2.63124
2.60713
2.58428
2.56376
2.54764
2.53725
2.52545
2.52166
2.5665
2.71224
2.88494
3.03311
3.12541
3.15226
3.11914
3.1544
3.23592
3.30246
3.34118
3.34796
3.33322
3.29934
3.25817
3.17933
3.19403
3.53784
4.36553
5.14054
5.35065
5.23109
4.93044
4.63562
4.39071
4.18037
3.98668
3.80513
3.63894
3.48809
3.34764
3.21718
3.09241
2.96434
2.82867
2.69137
2.55946
2.45159
2.36639
2.28375
2.21243
2.1452
2.0766
2.0153
1.96561
1.91194
1.86718
1.82309
1.8609
2.10067
2.56196
2.96371
3.14575
3.13684
3.08047
2.99837
2.90258
2.80917
2.73694
2.6857
2.65267
2.62565
2.67462
2.9054
3.31056
3.62263
3.8205
3.82094
3.7745
3.66726
3.57354
3.51096
3.46165
3.40676
3.34381
3.28357
3.22815
3.17363
3.12213
3.07378
3.02877
2.98613
2.94391
2.89962
2.8547
2.81124
2.76125
2.6983
2.65342
2.62587
2.59994
2.57524
2.55115
2.52947
2.50606
2.47736
2.44486
2.47438
2.59845
2.79274
2.96811
3.07692
3.07273
2.63426
3.09523
3.33914
3.34313
3.31937
3.29787
3.2993
3.31093
3.48348
4.25264
5.34424
5.77367
5.75558
5.62491
5.40101
5.13852
4.85994
4.59007
4.34173
4.11474
3.90287
3.70944
3.54555
3.40657
3.27823
3.15221
3.02551
2.89543
2.75974
2.62253
2.49651
2.39084
2.31132
2.24851
2.17684
2.09704
2.03621
1.98133
1.92082
1.84625
1.79039
1.74186
1.74205
1.87116
2.21798
2.69664
2.97285
3.00052
2.97224
2.91512
2.80284
2.72706
2.69717
2.72396
2.8781
3.20068
3.63736
3.88633
3.89864
3.89052
3.84267
3.75855
3.67173
3.58801
3.51895
3.46575
3.41671
3.36339
3.30619
3.24945
3.19187
3.13556
3.0865
3.04469
3.00427
2.96036
2.91288
2.86739
2.8253
2.78205
2.72941
2.67667
2.63897
2.61041
2.58441
2.55539
2.5257
2.49801
2.472
2.43449
2.39433
2.4056
2.50129
2.66836
2.87106
2.98636
1.76277
2.38683
3.09268
3.24552
3.24145
3.29929
3.42986
3.91026
4.91701
5.98203
6.42951
6.39987
6.09628
5.74546
5.50879
5.29362
5.04366
4.75932
4.47555
4.22104
3.99793
3.79345
3.60466
3.44466
3.31047
3.1858
3.05559
2.92263
2.79121
2.66719
2.56134
2.46639
2.35942
2.24755
2.1869
2.1491
2.09227
2.01431
1.93386
1.85774
1.79049
1.73518
1.68706
1.65836
1.70508
1.9502
2.42157
2.7673
2.87331
2.83622
2.76768
2.77618
2.89366
3.17358
3.58127
3.93717
4.1641
4.15137
4.04831
3.89778
3.80617
3.73242
3.66896
3.60971
3.54875
3.49052
3.44097
3.39313
3.33428
3.26551
3.19766
3.1381
3.09034
3.05115
3.01518
2.97719
2.9349
2.89359
2.85056
2.79824
2.73648
2.68167
2.64366
2.61665
2.5921
2.56499
2.53459
2.50033
2.46331
2.42468
2.3934
2.36059
2.3673
2.41993
2.53855
2.75675
1.43014
1.60973
2.22681
2.81849
3.1459
3.84711
4.51198
5.64507
6.33979
6.48296
6.47139
6.43231
6.25071
5.954
5.66822
5.39971
5.13395
4.85319
4.56252
4.29939
4.08209
3.88466
3.68618
3.50302
3.34294
3.1966
3.0575
2.9202
2.79326
2.6886
2.60577
2.51332
2.39378
2.28881
2.21385
2.13552
2.04674
1.96768
1.9115
1.87064
1.81983
1.74795
1.67522
1.63671
1.61396
1.62486
1.77343
2.11847
2.50835
2.7179
2.8811
3.22831
3.61901
3.9309
4.12375
4.23117
4.22453
4.16237
4.05576
3.93077
3.82454
3.73339
3.6681
3.63823
3.60259
3.55039
3.49085
3.43053
3.36388
3.2931
3.22115
3.1505
3.08987
3.04563
3.0063
2.97232
2.94782
2.92839
2.89512
2.83563
2.76217
2.70159
2.6647
2.64047
2.61797
2.59395
2.5662
2.53378
2.49643
2.46185
2.42279
2.37738
2.3366
2.31376
2.33126
2.4825
1.40061
1.40939
1.57345
2.05171
3.26233
4.80701
5.71896
6.56763
7.06667
6.80407
6.49487
6.40792
6.31151
6.13067
5.82609
5.46671
5.12949
4.84737
4.58293
4.33426
4.09938
3.90687
3.77442
3.63077
3.45551
3.27759
3.10915
2.94986
2.81981
2.7048
2.58825
2.50063
2.45207
2.38103
2.26982
2.14375
2.03959
1.97565
1.93011
1.87809
1.80812
1.75825
1.71842
1.67252
1.61463
1.55898
1.56188
1.64085
1.91639
2.58056
3.22445
3.82361
4.20783
4.41286
4.44124
4.39033
4.25312
4.11763
4.03372
3.9418
3.83555
3.73472
3.65912
3.60252
3.56005
3.51983
3.47305
3.42281
3.36084
3.28408
3.2074
3.14536
3.10415
3.07107
3.03815
3.00569
2.97109
2.93142
2.88168
2.8152
2.735
2.67257
2.6387
2.61667
2.5962
2.57497
2.5505
2.52104
2.4844
2.44116
2.39627
2.35114
2.3081
2.27724
2.27526
2.32323
1.40035
1.41897
1.54488
2.19409
3.39926
4.50829
5.87761
6.54345
7.04814
6.92601
6.6457
6.4585
6.29973
6.0427
5.71619
5.37466
5.05731
4.80637
4.61401
4.41166
4.18628
3.97403
3.76807
3.57277
3.39138
3.21108
3.08303
2.99656
2.88775
2.7598
2.63678
2.52828
2.42386
2.3249
2.208
2.10221
2.06426
2.03306
1.98754
1.92229
1.84061
1.76092
1.68876
1.62898
1.57931
1.54441
1.54867
1.62836
1.96739
2.56529
3.30689
3.84305
4.16844
4.43143
4.44359
4.36679
4.23446
4.1097
4.03502
3.94225
3.837
3.73995
3.67287
3.61232
3.55208
3.50667
3.46745
3.42048
3.36249
3.28932
3.21836
3.15408
3.09168
3.04455
3.01522
2.98894
2.96024
2.92453
2.87807
2.81372
2.73323
2.66862
2.63577
2.61472
2.59482
2.57454
2.55209
2.5255
2.49052
2.44391
2.39103
2.33943
2.29391
2.26642
2.2686
2.34662
1.42028
1.6577
2.23218
2.9578
3.22351
3.55213
4.58499
5.51395
6.3844
6.6429
6.61078
6.50504
6.25625
5.90645
5.59414
5.31892
5.0611
4.8007
4.5357
4.28694
4.08084
3.90411
3.72948
3.55926
3.3923
3.23214
3.072
2.91536
2.78716
2.67159
2.56533
2.47662
2.38908
2.29425
2.19965
2.11772
2.0363
1.96906
1.92327
1.87589
1.81977
1.756
1.69098
1.64352
1.58514
1.58819
1.71388
2.05874
2.50316
2.67665
2.94279
3.27595
3.61914
3.96785
4.11699
4.19906
4.19804
4.15211
4.0723
3.96082
3.83415
3.73874
3.68677
3.63876
3.57756
3.51426
3.45219
3.39363
3.34641
3.30555
3.25033
3.18154
3.10646
3.04417
3.0157
2.99586
2.97161
2.93785
2.89489
2.8351
2.7551
2.68765
2.65535
2.63493
2.61553
2.59588
2.57439
2.54791
2.50986
2.45829
2.39404
2.33262
2.29792
2.29055
2.31401
2.50443
1.69804
2.4912
3.01074
3.2767
3.29541
3.3076
3.45234
3.9045
4.88941
6.01759
6.51593
6.44091
6.06296
5.6939
5.44812
5.23339
4.99428
4.72529
4.46184
4.23782
4.04611
3.86071
3.67444
3.49186
3.31727
3.15958
3.01121
2.86726
2.74495
2.65292
2.57116
2.48174
2.38617
2.27494
2.17137
2.10518
2.04575
1.97213
1.91215
1.87236
1.83478
1.78654
1.73124
1.69092
1.72857
1.96093
2.35595
2.71906
2.86378
2.84331
2.81288
2.82013
2.92192
3.2049
3.61858
3.93609
4.14506
4.14836
4.07021
3.92376
3.81802
3.7483
3.67697
3.59978
3.53555
3.48404
3.43542
3.38931
3.33687
3.27512
3.21041
3.14816
3.09395
3.04194
3.00343
2.97203
2.93995
2.90635
2.86761
2.81303
2.72962
2.65094
2.618
2.59883
2.58096
2.56315
2.54341
2.52255
2.50258
2.474
2.41071
2.33637
2.32468
2.37609
2.50288
2.76471
2.57332
3.20541
3.32419
3.31016
3.30007
3.28325
3.27551
3.28817
3.45397
4.21046
5.36711
5.81143
5.72
5.57696
5.35561
5.11713
4.85673
4.59772
4.36432
4.15567
3.96069
3.77081
3.58474
3.40569
3.2387
3.08725
2.95684
2.84981
2.75184
2.6479
2.53404
2.42025
2.32416
2.26714
2.20806
2.12702
2.03606
1.95154
1.88907
1.83624
1.79445
1.76194
1.77337
1.89593
2.26263
2.70021
2.93407
2.98276
2.95296
2.88732
2.80978
2.7637
2.72005
2.73651
2.87122
3.18617
3.58299
3.86676
3.91998
3.89714
3.85025
3.77066
3.66917
3.56539
3.49441
3.45894
3.42142
3.38026
3.33038
3.26767
3.19971
3.13718
3.07947
3.02806
2.9871
2.9536
2.92302
2.89303
2.86049
2.81576
2.73553
2.64128
2.60376
2.58585
2.56879
2.55239
2.53425
2.51474
2.49303
2.46425
2.40597
2.38854
2.45369
2.60797
2.78456
2.95602
3.23845
3.28923
3.33355
3.34054
3.33614
3.31179
3.2771
3.24339
3.17518
3.19013
3.55712
4.40127
5.13661
5.34411
5.23162
4.94108
4.65812
4.42297
4.22267
4.03389
3.84754
3.66272
3.48353
3.31339
3.15695
3.01901
2.9011
2.79049
2.67924
2.5786
2.49535
2.41885
2.32777
2.22934
2.14668
2.06934
1.9939
1.92803
1.87192
1.84291
1.818
1.86657
2.12692
2.59453
3.02521
3.12267
3.10536
3.04502
2.96382
2.8955
2.83215
2.77145
2.70723
2.64258
2.60095
2.64251
2.86333
3.26417
3.63947
3.84153
3.84066
3.77746
3.65517
3.52945
3.46594
3.43602
3.39944
3.35863
3.31309
3.25953
3.19386
3.11466
3.04754
3.002
2.96733
2.93787
2.91034
2.88065
2.84566
2.80127
2.73517
2.64864
2.59219
2.56813
2.54918
2.53049
2.51682
2.50332
2.49781
2.48954
2.51174
2.59926
2.77161
2.89149
2.98937
3.02972
3.35442
3.34123
3.32033
3.311
3.29884
3.28123
3.25755
3.20751
3.09671
2.97436
2.83557
2.95152
3.54358
4.32667
4.69843
4.66208
4.47948
4.27207
4.08083
3.89757
3.71362
3.52988
3.35699
3.19933
3.05764
2.93165
2.82662
2.73638
2.64971
2.55588
2.4579
2.3615
2.26792
2.17036
2.10038
2.0482
1.99127
1.94067
1.89243
1.89576
2.03585
2.45978
2.94281
3.23779
3.27688
3.2487
3.16014
3.06258
2.9859
2.91555
2.84967
2.78356
2.71174
2.62907
2.56167
2.53315
2.5472
2.67221
2.99012
3.39399
3.6347
3.6574
3.61277
3.53244
3.47704
3.42666
3.37042
3.32542
3.28531
3.24458
3.18781
3.09764
3.01444
2.974
2.94383
2.91623
2.88974
2.86069
2.82558
2.7826
2.72668
2.65387
2.58762
2.54668
2.52698
2.51156
2.51222
2.52104
2.55399
2.64342
2.77769
2.95984
3.06095
3.08217
3.07143
3.02524
3.29309
3.30992
3.31171
3.30457
3.29536
3.27127
3.222
3.12683
2.98767
2.82132
2.67266
2.47942
2.50375
2.80175
3.51173
4.15283
4.24322
4.13137
3.92985
3.72522
3.53573
3.36792
3.22464
3.09897
2.98569
2.87958
2.77817
2.67905
2.58232
2.48847
2.39781
2.30675
2.23274
2.16174
2.10159
2.04277
2.00156
1.95951
2.01081
2.29414
2.85559
3.32766
3.43471
3.39751
3.29263
3.20036
3.12716
3.06697
3.01048
2.94618
2.88031
2.81139
2.7323
2.64298
2.56741
2.52548
2.51029
2.49783
2.54788
2.75862
3.07919
3.40892
3.54371
3.52961
3.47012
3.38144
3.33084
3.30133
3.26986
3.23444
3.18112
3.09455
2.99125
2.94306
2.91835
2.8922
2.86618
2.83851
2.80357
2.75827
2.70509
2.64989
2.5952
2.54584
2.52729
2.52695
2.53909
2.59536
2.74448
2.93068