/*--------------------------------*- C++ -*----------------------------------*\
  =========                 |
  \\      /  F ield         | OpenFOAM: The Open Source CFD Toolbox
   \\    /   O peration     | Website:  https://openfoam.org
    \\  /    A nd           | Version:  7
     \\/     M anipulation  |
\*---------------------------------------------------------------------------*/
FoamFile
{
    version     2.0;
    format      ascii;
    class       volScalarField;
    location    "2.5";
    object      T;
}
// * * * * * * * * * * * * * * * * * * * * * * * * * * * * * * * * * * * * * //

dimensions      [0 0 0 1 0 0 0];

internalField   nonuniform List<scalar> 
4608
(
1
1
1
1
1
1
1
1
1
1
1
1
1
1
1
1
1
1
1
1
1
1
1
1
1
1
1
1
1
1
1
1
1
1
1
1
1
1
1
1
1
1
1
1
1
1
1
1
1
1
1
1
1
1
1
1
1
1
1
1
1
1
1
1
1
1
1
1
1
1
1
1
1
1
1
1
1
1
1
1
1
1
1
1
1
1
1
1
1
1
1
1
1
1
1
1
1
1
1
1
1
1
1
1
1
1
1
1
1
1
1
1
1
1
1
1
1
1
1
1
1
1
1
1
1
1
1
1
1
1
1
1
1
1
1
1
1
1
1
1
1
1
1
1
1
1
1
1
1
1
1
1
1
1
1
1
1
1
1
1
1
1
1
1
1
1
1
1
1
1
1
1
1
1
1
1
1
1
1
1
1
1
1
1
1
1
1
1
1
1
1
1
1
1
1
1
1
1
1
1
1
1
1
1
1
1
1
1
1
1
1
1
1
1
1
1
1
1
1
1
1
1
1
1
1
1
1
1
1
1
1
1
1
1
1
1
1
1
1
1
1
1
1
1
1
1
1
1
1
1
1
1
1
1
1
1
1
1
1
1
1
1
1
1
1
1
1
1
1
1
1
1
1
1
1
1
1
1
1
1
1
1
1
1
1
1
1
1
1
1
1
1
1
1
1
1
1
1
1
1
1
1
1
1
1
1
1
1
1
1
1
1
1
1
1
1
1
1
1
1
1
1
1
1
1
1
1
1
1
1
1
1
1
1
1
1
1
1
1
1
1
1
1
1
1
1
1
1
1
1
1
1
1
1
1
1
1
1
1
1
1
1
1
1
1
1
1
1
1
1
1
1
1
1
1
1
1
1
1
1
1
1
1
1
1
1
1
1
1
1
1
1
1
1
1
1
1
1
1
1
1
1
1
1
1
1
1
1
1
1
1
1
1
1
1
1
1
1
1
1
1
1
1
1
1
1
1
1
1
1
1
1
1
1
1
1
1
1
1
1
1
1
1
1
1
1
1
1
1
1
1
1
1
1
1
1
1
1
1
1
1
1
1
1
1
1
1
1
1
1
1
1
1
1
1
1
1
1
1
1
1
1
1
1
1
1
1
1
1
1
1
1
1
1
1
1
1
1
1
1
1
1
1
1
1
1
1
1
1
1
1
1
1
1
1
1
1
1
1
1
1
1
1
1
1
1
1
1
1
1
1
1
1
1
1
1
1
1
1
1
1
1
1
1
1
1
1
1
1
1
1
1
1
1
1
1
1
1
1
1
1
1
1
1
1
1
1
1
1
1
1
1
1
1
1
1
1
1
1
1
1
1
1
1
1
1
1
1
1
1
1
1
1
1
1
1
1
1
1
1
1
1
1
1
1
1
1
1
1
1
1
1
1
1
1
1
1
1
1
1
1
1
1
1
1
1
1
1
1
1
1
1
1
1
1
1
1
1
1
1
1
1
1
1
1
1
1
1
1
1
1
1
1
1
1
1
1
1
1
1
1
1
1
1
1
1
1
1
1
1
1
1
1
1
1
1
1
1
1
1
1
1
1
1
1
1
1
1
1
1
1
1
1
1
1
1
1
1
1
1
1
1
1
1
1
1
1
1
1
1
1
1
1
1
1
1
1
1
1
1
1
1
1
1
1
1
1
1
1
1
1
1
1
1
1
1
1
1
1
1
1
1
1
1
1
1
1
1
1
1
1
1
1
1
1
1
1
1
1
1
1
1
1
1
1
1
1
1
1.07806
1.18276
1.28895
1.389
1.488
1.56972
1.63701
1.6848
1.69811
1.68123
1.63756
1.58578
1.53935
1.52571
1.51514
1.51564
1.51899
1.52331
1.52791
1.5326
1.53644
1.53805
1.53824
1.53927
1.00099
1.00574
1.02912
1.07333
1.14396
1.23285
1.32134
1.4096
1.47908
1.51747
1.54844
1.56505
1.55792
1.55234
1.54516
1.5378
1.53357
1.5303
1.53079
1.53355
1.5374
1.53967
1.54028
1.54121
1
0.999983
1.00006
1.00011
1.0012
1.00853
1.03647
1.11791
1.26783
1.45351
1.56641
1.62288
1.62226
1.61075
1.59187
1.56702
1.54945
1.53764
1.53594
1.53831
1.54224
1.54623
1.54758
1.54883
1
0.999999
0.999999
0.999999
0.999995
1.00001
0.999967
1.00067
1.01246
1.10765
1.30589
1.50354
1.61494
1.60531
1.60021
1.5984
1.58656
1.56549
1.55517
1.55507
1.55579
1.55755
1.55963
1.56194
1
1
1
1
1
1
0.999996
0.999997
0.999964
1.00043
1.01709
1.12246
1.35888
1.51595
1.62292
1.62856
1.6227
1.60627
1.59213
1.58064
1.57457
1.57136
1.57102
1.57288
1
1
1
1
1
1
1
1
0.999997
0.999997
0.999965
1.00088
1.03025
1.17525
1.40428
1.54195
1.60366
1.61223
1.6062
1.59777
1.59056
1.58389
1.57737
1.57778
1
1
1
1
1
1
1
1
1
1
0.999998
0.999994
1.00001
1.00343
1.05488
1.24743
1.47331
1.57574
1.5934
1.59538
1.59496
1.59018
1.58352
1.57983
1
1
1
1
1
1
1
1
1
1
1
0.999999
0.999999
0.999989
1.00029
1.01414
1.12007
1.345
1.5226
1.58959
1.5981
1.5951
1.58879
1.58323
1
1
1
1
1
1
1
1
1
1
1
1
1
0.999998
0.999999
0.999998
1.00225
1.0528
1.22614
1.4337
1.54586
1.58923
1.58984
1.58439
1
1
1
1
1
1
1
1
1
1
1
1
1
1
1
1
0.999993
1.00056
1.01357
1.13956
1.34766
1.52827
1.55922
1.57049
1
1
1
1
1
1
1
1
1
1
1
1
1
1
1
1
0.999999
0.999997
1.00003
1.00608
1.06489
1.27789
1.47124
1.55623
1
1
1
1
1
1
1
1
1
1
1
1
1
1
1
1
1
0.999999
0.999999
1.00001
1.00134
1.03906
1.21373
1.44452
1
1
1
1
1
1
1
1
1
1
1
1
1
1
1
1
1
1
1
1
1
1.00077
1.02242
1.16037
1
1
1
1
1
1
1
1
1
1
1
1
1
1
1
1
1
1
1
1
1
0.999999
1.00036
1.00895
1
1
1
1
1
1
1
1
1
1
1
1
1
1
1
1
1
1
1
1
1
1
1
0.999987
1
1
1
1
1
1
1
1
1
1
1
1
1
1
1
1
1
1
1
1
1
1
1
0.999994
1
1
1
1
1
1
1
1
1
1
1
1
1
1
1
1
1
1
1
1
1
1
1
0.999999
1
1
1
1
1
1
1
1
1
1
1
1
1
1
1
1
1
1
1
1
1
1
0.999999
1.00002
1
1
1
1
1
1
1
1
1
1
1
1
1
1
1
1
1
1
1
1
1
0.999999
1.00033
1.00961
1
1
1
1
1
1
1
1
1
1
1
1
1
1
1
1
1
1
1
1
0.999999
1.00064
1.02321
1.14683
1
1
1
1
1
1
1
1
1
1
1
1
1
1
1
1
1
1
0.999999
1.00001
1.00144
1.0384
1.21537
1.41525
1
1
1
1
1
1
1
1
1
1
1
1
1
1
1
1
0.999999
0.999997
1.00003
1.00584
1.06554
1.28279
1.46297
1.55078
1
1
1
1
1
1
1
1
1
1
1
1
1
1
1
1
0.999993
1.00054
1.01359
1.13721
1.35143
1.5282
1.55435
1.56893
1
1
1
1
1
1
1
1
1
1
1
1
1
0.999998
0.999999
0.999997
1.00227
1.05294
1.22487
1.43288
1.54945
1.58805
1.58799
1.58389
1
1
1
1
1
1
1
1
1
1
1
0.999999
0.999999
0.999989
1.00029
1.01402
1.12042
1.3459
1.5207
1.59035
1.59845
1.59518
1.58768
1.58256
1
1
1
1
1
1
1
1
1
1
0.999998
0.999994
1.00001
1.00344
1.05487
1.24694
1.47413
1.57527
1.59294
1.59543
1.59521
1.5903
1.58323
1.57955
1
1
1
1
1
1
1
1
0.999997
0.999997
0.999965
1.00089
1.0302
1.17551
1.40401
1.542
1.60391
1.612
1.60583
1.59788
1.59086
1.58415
1.57734
1.57769
1
1
1
1
1
1
0.999996
0.999997
0.999964
1.00042
1.0171
1.12241
1.35897
1.51608
1.62264
1.6286
1.62276
1.60642
1.5921
1.58071
1.57463
1.57125
1.57106
1.57287
1
0.999999
0.999999
0.999999
0.999995
1.00001
0.999967
1.00067
1.01246
1.10763
1.30594
1.50337
1.61519
1.60537
1.60007
1.59828
1.58664
1.56578
1.55517
1.55506
1.55575
1.55746
1.55961
1.562
1
0.999983
1.00006
1.00011
1.0012
1.00853
1.03647
1.11791
1.26783
1.45355
1.56639
1.62287
1.62226
1.61075
1.59184
1.56698
1.54956
1.53775
1.53588
1.5383
1.54225
1.54617
1.54756
1.54886
1.00099
1.00574
1.0291
1.07334
1.14397
1.23283
1.32134
1.40961
1.47906
1.51748
1.5484
1.56506
1.55793
1.55233
1.54514
1.53782
1.5336
1.5303
1.53078
1.53354
1.53739
1.53965
1.54028
1.54123
1.07806
1.18274
1.28897
1.38902
1.48795
1.56973
1.63703
1.68479
1.6981
1.68122
1.63755
1.58578
1.53934
1.52572
1.51514
1.51565
1.519
1.52329
1.52788
1.53257
1.53642
1.53802
1.53824
1.53929
1.39808
1.2306
1.10146
1.04413
1.0046
0.972674
0.978354
1.00971
1.03675
1.05497
1.08176
1.10109
1.10083
1.09728
1.09713
1.10279
1.10951
1.11528
1.11612
1.11627
1.11559
1.10798
1.10189
1.11864
1.26124
1.53994
1.77083
1.98501
2.13558
2.17797
2.12784
2.05226
1.99749
1.97329
1.95916
1.94063
1.91586
1.88981
1.86789
1.8483
1.82834
1.80842
1.78817
1.76798
1.74999
1.73488
1.7209
1.70574
1.68867
1.6709
1.65358
1.63675
1.62103
1.60627
1.59105
1.57495
1.55937
1.54788
1.53999
1.53284
1.52525
1.51702
1.50654
1.48933
1.46341
1.44106
1.43112
1.42667
1.42188
1.41909
1.4174
1.42913
1.47257
1.55008
1.64048
1.72286
1.78552
1.83951
1.86912
1.86871
1.86153
1.85023
1.83529
1.81791
1.80042
1.77305
1.74943
1.74247
1.73812
1.73742
1.74234
1.74131
1.73647
1.72855
1.71052
1.67408
1.49562
1.41618
1.31266
1.24592
1.20208
1.13113
1.08162
1.07585
1.06548
1.05783
1.05561
1.05581
1.05584
1.05614
1.05875
1.06791
1.0784
1.08665
1.09103
1.09361
1.09267
1.09371
1.11721
1.25574
1.4885
1.55731
1.62915
1.7285
1.86773
1.96658
2.03201
2.03686
2.0149
1.98827
1.96488
1.94252
1.91884
1.89611
1.87689
1.8576
1.83678
1.81548
1.79626
1.77827
1.76003
1.74305
1.72878
1.71402
1.69653
1.67721
1.65847
1.64196
1.62798
1.61548
1.60259
1.5869
1.56959
1.55581
1.54696
1.53952
1.53174
1.52324
1.5124
1.49558
1.47124
1.45179
1.44084
1.43574
1.42942
1.43146
1.44843
1.49419
1.56665
1.61493
1.6405
1.67632
1.72144
1.75242
1.78983
1.82187
1.84375
1.84472
1.83539
1.82067
1.80236
1.77782
1.7549
1.74689
1.74236
1.7412
1.74486
1.74292
1.73798
1.72974
1.71338
1.67958
1.53305
1.49286
1.42902
1.34686
1.2869
1.22851
1.16313
1.12315
1.09705
1.06478
1.04306
1.0423
1.0398
1.03952
1.03975
1.0428
1.04759
1.0539
1.06198
1.06807
1.07642
1.12512
1.28899
1.47908
1.58332
1.5876
1.58543
1.5891
1.62699
1.76143
1.93091
2.01818
2.0314
2.01186
1.96867
1.93328
1.90985
1.88961
1.86935
1.84929
1.82992
1.81237
1.79478
1.77525
1.7534
1.73088
1.71166
1.69812
1.68466
1.6692
1.65437
1.64204
1.63056
1.61759
1.60136
1.58182
1.56123
1.54317
1.53216
1.52517
1.51823
1.51024
1.50035
1.48728
1.47193
1.45424
1.43869
1.43687
1.43894
1.46302
1.52218
1.59403
1.64599
1.65495
1.65007
1.64399
1.65042
1.67548
1.72894
1.78875
1.82123
1.83616
1.83541
1.82657
1.80685
1.78233
1.76208
1.75461
1.74889
1.74306
1.73724
1.73268
1.72824
1.7208
1.70858
1.68479
1.55476
1.53442
1.49621
1.4341
1.36761
1.31996
1.25987
1.19814
1.16943
1.14144
1.09217
1.07168
1.06953
1.06555
1.05301
1.04218
1.04132
1.0404
1.04123
1.04651
1.1041
1.3058
1.4976
1.5752
1.58517
1.58108
1.56773
1.55276
1.5424
1.5597
1.66154
1.84496
1.97832
1.97834
1.96787
1.94146
1.91524
1.89072
1.86621
1.84672
1.83034
1.81501
1.79799
1.77921
1.75735
1.73303
1.708
1.68994
1.67902
1.66934
1.65952
1.65025
1.63975
1.6253
1.60591
1.58459
1.56257
1.54235
1.52904
1.52076
1.51312
1.50452
1.49481
1.48433
1.4743
1.46139
1.44818
1.45416
1.4892
1.55953
1.62217
1.66847
1.67619
1.67281
1.66177
1.64724
1.63679
1.63774
1.65424
1.69709
1.74653
1.78914
1.80915
1.80968
1.80359
1.78911
1.77657
1.76794
1.75789
1.74759
1.74006
1.73471
1.72795
1.71676
1.70565
1.69039
1.5694
1.56091
1.539
1.50021
1.44351
1.38948
1.34417
1.28998
1.23268
1.19897
1.16876
1.12529
1.0998
1.09457
1.08144
1.05648
1.0453
1.04284
1.05004
1.11855
1.33028
1.50704
1.57539
1.58179
1.57463
1.55904
1.54377
1.53009
1.51885
1.50844
1.51303
1.57082
1.73785
1.88579
1.95229
1.94722
1.91875
1.88373
1.8563
1.83737
1.82428
1.8142
1.80422
1.79029
1.77067
1.74419
1.71331
1.68646
1.6699
1.65733
1.6469
1.63819
1.62947
1.61913
1.60541
1.58729
1.56708
1.5487
1.53209
1.51583
1.50368
1.49608
1.49126
1.48621
1.4832
1.48319
1.49836
1.54411
1.60588
1.65219
1.67951
1.68998
1.68391
1.67431
1.66444
1.65359
1.64201
1.63402
1.62296
1.62627
1.64981
1.69434
1.75142
1.7805
1.79631
1.79547
1.78821
1.77714
1.76659
1.75752
1.74874
1.73739
1.72432
1.70888
1.69749
1.68669
1.57682
1.57394
1.56684
1.54438
1.50742
1.45882
1.40664
1.36149
1.3152
1.27024
1.23716
1.19524
1.15081
1.13737
1.12919
1.10515
1.08322
1.09246
1.18659
1.3851
1.55282
1.59677
1.59072
1.5764
1.56045
1.54396
1.52765
1.51222
1.49825
1.4851
1.47642
1.46882
1.4928
1.60994
1.77772
1.89751
1.89794
1.87982
1.86155
1.84196
1.82462
1.8065
1.79104
1.77834
1.76521
1.74757
1.71687
1.68602
1.66815
1.65625
1.64647
1.63725
1.62786
1.61882
1.60904
1.59648
1.58026
1.55858
1.53088
1.51026
1.50091
1.4937
1.49073
1.49167
1.5047
1.54528
1.61585
1.6706
1.69066
1.69966
1.70313
1.69616
1.68645
1.67743
1.66909
1.65977
1.64919
1.6354
1.62141
1.60551
1.60498
1.61612
1.6544
1.70765
1.75847
1.78152
1.78069
1.77846
1.77368
1.76488
1.75284
1.7385
1.72129
1.70509
1.69708
1.68745
1.57977
1.57867
1.57628
1.57012
1.54902
1.514
1.47334
1.42601
1.3722
1.33342
1.30331
1.27318
1.22128
1.17481
1.16628
1.15295
1.16699
1.28094
1.49241
1.62392
1.63929
1.62142
1.59338
1.57068
1.55508
1.5382
1.52005
1.50227
1.48496
1.46966
1.45594
1.44673
1.43156
1.43521
1.49326
1.64621
1.7956
1.83947
1.85263
1.84344
1.82142
1.79946
1.7824
1.77068
1.7589
1.74215
1.71724
1.6903
1.67076
1.65699
1.64537
1.63441
1.62329
1.61124
1.59805
1.58554
1.57116
1.55122
1.52814
1.51148
1.50311
1.49887
1.50102
1.52922
1.59606
1.6794
1.73175
1.73217
1.72102
1.71101
1.70133
1.69307
1.68484
1.67835
1.67088
1.66237
1.6534
1.64136
1.62301
1.60295
1.59425
1.59428
1.59984
1.62579
1.67674
1.73758
1.76554
1.77378
1.77225
1.76475
1.75171
1.73714
1.72144
1.70816
1.70155
1.6906
1.58165
1.58132
1.58045
1.57755
1.57061
1.55108
1.51751
1.48228
1.44189
1.38604
1.34533
1.3288
1.29541
1.24898
1.21848
1.25135
1.39938
1.59658
1.70028
1.69745
1.67324
1.64
1.60855
1.58387
1.5625
1.54081
1.51868
1.49842
1.47824
1.46075
1.44346
1.43152
1.41586
1.40221
1.39176
1.41062
1.5178
1.66745
1.77526
1.80536
1.80385
1.79289
1.77672
1.76208
1.74672
1.72901
1.70975
1.68946
1.67041
1.65422
1.64057
1.62837
1.61636
1.60408
1.59286
1.58132
1.56615
1.54738
1.52954
1.51732
1.51046
1.51958
1.56743
1.65413
1.72571
1.76618
1.76606
1.75829
1.73703
1.71411
1.7008
1.69158
1.68371
1.6781
1.67156
1.66462
1.65698
1.645
1.62405
1.60209
1.59118
1.58698
1.58608
1.58837
1.60409
1.64802
1.69998
1.73308
1.74266
1.74114
1.73584
1.72929
1.72072
1.71304
1.70643
1.69359
1.58368
1.58493
1.58514
1.58391
1.58039
1.57104
1.552
1.51959
1.48822
1.44671
1.40622
1.36565
1.33452
1.31915
1.3727
1.54628
1.72084
1.77177
1.75869
1.72471
1.68778
1.65664
1.63009
1.60564
1.58032
1.55328
1.52495
1.49783
1.4749
1.45446
1.43586
1.42136
1.40651
1.38844
1.37484
1.36166
1.36438
1.41459
1.54507
1.68527
1.75524
1.77496
1.76948
1.7514
1.73275
1.71353
1.69602
1.68035
1.66406
1.647
1.63205
1.61997
1.60911
1.59738
1.58542
1.57215
1.55752
1.54541
1.53409
1.5318
1.55279
1.61882
1.70888
1.76971
1.77934
1.77709
1.76781
1.75283
1.73683
1.71973
1.70503
1.69261
1.68414
1.67752
1.67016
1.66208
1.65345
1.64201
1.62334
1.60123
1.58928
1.58379
1.57991
1.57775
1.57659
1.5843
1.60928
1.64424
1.68653
1.70608
1.71249
1.7172
1.71772
1.7137
1.7084
1.69615
1.57437
1.57909
1.58156
1.58073
1.57908
1.5755
1.56687
1.54872
1.52135
1.48677
1.45347
1.40831
1.41674
1.5139
1.69334
1.83248
1.84877
1.82672
1.78656
1.74603
1.70918
1.67626
1.64694
1.61982
1.59314
1.5661
1.53806
1.5085
1.48006
1.45272
1.43038
1.41235
1.39623
1.38115
1.36836
1.35327
1.34631
1.3342
1.34708
1.43672
1.58085
1.68595
1.72856
1.72857
1.71781
1.7024
1.68735
1.671
1.65232
1.63251
1.61818
1.60853
1.59921
1.58699
1.57447
1.56155
1.55464
1.54946
1.55933
1.60389
1.68632
1.7568
1.80044
1.80172
1.79586
1.77771
1.75836
1.74349
1.73169
1.71935
1.70588
1.69305
1.68325
1.67472
1.66596
1.6565
1.6464
1.63534
1.62116
1.60247
1.58711
1.58039
1.57514
1.57018
1.56545
1.56334
1.56272
1.57246
1.5936
1.63361
1.66942
1.69091
1.70898
1.71307
1.71035
1.69836
1.57781
1.57624
1.57453
1.5745
1.57597
1.57568
1.57205
1.56269
1.54148
1.51774
1.48969
1.52364
1.68012
1.85459
1.9182
1.90771
1.87347
1.83438
1.79604
1.75987
1.72639
1.6941
1.66246
1.6317
1.60244
1.57484
1.54796
1.52033
1.49277
1.46455
1.43781
1.41365
1.39145
1.3744
1.36442
1.35676
1.34174
1.32687
1.30839
1.30751
1.35017
1.46972
1.60132
1.66924
1.69271
1.69106
1.67825
1.65985
1.63958
1.61946
1.6056
1.59545
1.58531
1.57336
1.56328
1.55555
1.55976
1.59475
1.67025
1.74571
1.80189
1.80838
1.80293
1.79544
1.78335
1.76945
1.75276
1.73719
1.72517
1.71492
1.704
1.69199
1.68051
1.67022
1.66025
1.6498
1.63848
1.62679
1.615
1.60063
1.58526
1.57726
1.57108
1.56441
1.55752
1.55159
1.54783
1.54421
1.545
1.55717
1.59445
1.63731
1.67474
1.69769
1.70293
1.69606
1.52324
1.54456
1.56212
1.57636
1.58039
1.57843
1.57362
1.56779
1.55507
1.56129
1.65528
1.83378
1.97998
2.00847
1.98755
1.93814
1.88772
1.84344
1.80419
1.76805
1.73422
1.7023
1.67168
1.64172
1.61279
1.58508
1.55731
1.52835
1.49864
1.46874
1.44241
1.4201
1.39832
1.37985
1.36401
1.34814
1.3319
1.31785
1.30275
1.28912
1.27615
1.29039
1.37278
1.50711
1.60855
1.65501
1.65489
1.64567
1.6299
1.6107
1.59332
1.58016
1.5716
1.56386
1.56247
1.57657
1.636
1.73141
1.79759
1.83548
1.83566
1.82685
1.80498
1.78432
1.76924
1.75766
1.7456
1.73239
1.71986
1.70805
1.69651
1.68567
1.67519
1.6649
1.65444
1.64336
1.63145
1.61974
1.60913
1.59782
1.58396
1.57394
1.56714
1.56002
1.55268
1.54503
1.53892
1.53374
1.52813
1.52176
1.5299
1.56206
1.6106
1.65235
1.67475
1.67513
1.39502
1.49892
1.55316
1.57308
1.57063
1.56817
1.56895
1.57299
1.61495
1.78606
1.98649
2.04793
2.04441
2.02447
1.991
1.9513
1.90654
1.8601
1.81584
1.77541
1.73802
1.70343
1.6726
1.64416
1.61627
1.58871
1.56167
1.5346
1.50635
1.47665
1.44766
1.42168
1.40141
1.38532
1.36747
1.34777
1.33278
1.31888
1.30269
1.28151
1.26463
1.2508
1.25217
1.30011
1.4117
1.54302
1.60451
1.61655
1.61239
1.60278
1.58173
1.56722
1.56503
1.57312
1.61348
1.69043
1.78714
1.83409
1.83397
1.83205
1.82396
1.80985
1.79308
1.77504
1.76022
1.74841
1.73755
1.72611
1.71415
1.70267
1.69115
1.67953
1.66875
1.65908
1.64933
1.63849
1.6269
1.6159
1.60613
1.59657
1.5849
1.57267
1.5635
1.55611
1.54888
1.54075
1.53285
1.52647
1.52181
1.51518
1.50569
1.50849
1.53311
1.57468
1.62054
1.64798
1.13932
1.32792
1.49219
1.54401
1.54713
1.5595
1.58835
1.68791
1.8752
2.06134
2.12388
2.11709
2.07268
2.02246
1.99005
1.95989
1.92113
1.87437
1.8263
1.78233
1.74379
1.70845
1.67497
1.6444
1.61685
1.59052
1.56344
1.53606
1.50866
1.48199
1.45854
1.43683
1.41141
1.38339
1.36756
1.35846
1.34512
1.32588
1.30457
1.28343
1.26426
1.24843
1.23392
1.22782
1.24547
1.32967
1.46732
1.55421
1.58278
1.5759
1.56454
1.57068
1.60514
1.67151
1.75676
1.82681
1.87163
1.8699
1.85233
1.82512
1.80709
1.79301
1.78116
1.76918
1.75669
1.74426
1.73338
1.72337
1.71191
1.69917
1.68607
1.67322
1.66204
1.65275
1.64435
1.63577
1.62624
1.61683
1.60761
1.59652
1.58281
1.56992
1.56072
1.55377
1.54704
1.53964
1.53173
1.52348
1.51559
1.50803
1.50201
1.4935
1.49473
1.50747
1.53644
1.59082
1.01084
1.08019
1.27378
1.43963
1.51218
1.67559
1.79545
1.95806
2.07422
2.11667
2.11382
2.1054
2.07801
2.03679
1.99922
1.96373
1.9261
1.88224
1.83438
1.78991
1.7527
1.71822
1.68291
1.64928
1.61862
1.58961
1.56172
1.53382
1.50728
1.48503
1.46708
1.44626
1.41858
1.39313
1.37418
1.35453
1.33237
1.31227
1.29749
1.28678
1.27305
1.25288
1.23219
1.22099
1.2139
1.21834
1.27239
1.38412
1.49339
1.54594
1.58668
1.66799
1.75736
1.82106
1.85113
1.87047
1.87012
1.86232
1.84648
1.82506
1.80501
1.78707
1.77429
1.76886
1.76162
1.75044
1.73768
1.72565
1.7136
1.70107
1.68718
1.67206
1.65812
1.64735
1.638
1.63042
1.62541
1.62203
1.61582
1.60344
1.58714
1.57319
1.56439
1.55806
1.55177
1.54506
1.53778
1.53012
1.52189
1.51471
1.50678
1.4962
1.48508
1.47727
1.4812
1.52105
1.00018
1.00335
1.05891
1.23204
1.53556
1.85417
1.99088
2.09407
2.17681
2.15005
2.11046
2.09646
2.08127
2.05612
2.01611
1.96751
1.92006
1.87712
1.83461
1.79354
1.75366
1.71999
1.69655
1.67105
1.63909
1.6049
1.57133
1.53938
1.51271
1.48841
1.4626
1.44263
1.4321
1.41583
1.38873
1.35659
1.33014
1.31435
1.30304
1.28947
1.27009
1.25643
1.24571
1.23255
1.21468
1.19689
1.19825
1.2282
1.32503
1.51457
1.6644
1.78743
1.86777
1.90996
1.90889
1.89974
1.87546
1.85228
1.83882
1.8232
1.8033
1.78355
1.7686
1.75837
1.75049
1.74243
1.73269
1.7227
1.71135
1.69738
1.68267
1.66994
1.66042
1.65174
1.6435
1.63621
1.62948
1.62242
1.61285
1.59874
1.58055
1.56586
1.55763
1.55193
1.54626
1.5402
1.53354
1.52625
1.51795
1.50854
1.49865
1.48791
1.47671
1.46791
1.46497
1.47736
1.00011
1.00632
1.06003
1.27315
1.56757
1.76778
2.00108
2.11488
2.17713
2.15949
2.12413
2.10204
2.08179
2.04706
2.00189
1.95333
1.90685
1.86893
1.83876
1.80619
1.76866
1.73213
1.69578
1.66057
1.62691
1.59165
1.56579
1.54914
1.52771
1.5011
1.47382
1.44857
1.42454
1.40129
1.37222
1.34515
1.33696
1.33037
1.31958
1.30251
1.27958
1.25673
1.23604
1.21832
1.20243
1.19192
1.19396
1.22281
1.33514
1.50073
1.67937
1.79611
1.85978
1.90983
1.91174
1.8977
1.87309
1.85079
1.8386
1.82345
1.80388
1.78454
1.77092
1.7592
1.74796
1.73938
1.73152
1.72243
1.71182
1.69849
1.68504
1.67196
1.65781
1.64609
1.63873
1.6328
1.6273
1.62092
1.61222
1.59874
1.58027
1.56473
1.55667
1.55137
1.54613
1.54051
1.53434
1.52747
1.51913
1.50875
1.49682
1.48457
1.473
1.46449
1.46386
1.48342
1.00717
1.09632
1.28815
1.47
1.52647
1.59424
1.80614
1.97549
2.09277
2.11965
2.12119
2.11281
2.08422
2.03713
1.99061
1.94904
1.91019
1.87117
1.83003
1.78931
1.75363
1.72195
1.69039
1.65921
1.62783
1.59693
1.56521
1.5337
1.50669
1.48117
1.45699
1.43622
1.41598
1.39384
1.37023
1.34917
1.32887
1.31211
1.3007
1.2885
1.27324
1.2553
1.23655
1.22151
1.20388
1.20678
1.25551
1.36748
1.49004
1.53118
1.59939
1.68032
1.75241
1.82282
1.85229
1.86778
1.86749
1.86097
1.84866
1.82992
1.8068
1.78751
1.77658
1.76692
1.75518
1.74305
1.73073
1.71923
1.71059
1.70326
1.6929
1.67913
1.66278
1.64816
1.64032
1.63512
1.63017
1.62425
1.61669
1.60459
1.58612
1.56939
1.56141
1.55644
1.55165
1.54665
1.54096
1.53423
1.52538
1.51382
1.49933
1.48438
1.47526
1.47077
1.47627
1.52552
1.11258
1.36204
1.48357
1.53963
1.55349
1.56055
1.59682
1.69686
1.87806
2.05079
2.12953
2.12146
2.07344
2.02059
1.98103
1.94623
1.90871
1.86785
1.82698
1.78958
1.75475
1.71961
1.68437
1.64993
1.61667
1.58637
1.55729
1.5274
1.49971
1.47795
1.45941
1.43944
1.417
1.39024
1.36396
1.34663
1.33133
1.31175
1.29574
1.28634
1.27742
1.26493
1.24868
1.23681
1.25184
1.33381
1.45143
1.54471
1.58125
1.57765
1.57345
1.57918
1.60869
1.67721
1.76704
1.82871
1.86815
1.86916
1.85556
1.82901
1.80871
1.79436
1.78027
1.76547
1.75309
1.74276
1.73274
1.72282
1.71187
1.69983
1.68782
1.67568
1.66392
1.65117
1.64055
1.63226
1.62515
1.6189
1.612
1.60112
1.58231
1.5631
1.55448
1.54962
1.54526
1.54085
1.53576
1.53045
1.52627
1.52043
1.50684
1.48744
1.48324
1.49585
1.52601
1.58884
1.37894
1.53436
1.55404
1.56047
1.56558
1.56525
1.56536
1.56961
1.60967
1.77308
1.98957
2.05572
2.04171
2.0187
1.98275
1.94408
1.90282
1.86134
1.82263
1.78585
1.74912
1.71206
1.67591
1.64161
1.60959
1.57972
1.55227
1.52731
1.50364
1.47926
1.45373
1.42833
1.40494
1.39033
1.37507
1.35409
1.33024
1.30722
1.29048
1.27681
1.26628
1.25808
1.26242
1.30723
1.42649
1.54189
1.59544
1.61307
1.60871
1.59713
1.58239
1.57486
1.56973
1.57576
1.61298
1.6879
1.77323
1.82889
1.83718
1.83308
1.82502
1.81037
1.78951
1.76913
1.75529
1.74731
1.73838
1.7284
1.71713
1.70497
1.69259
1.68017
1.667
1.65375
1.64244
1.63348
1.62622
1.62012
1.61411
1.60559
1.58836
1.56586
1.55582
1.55092
1.54635
1.54196
1.5374
1.53227
1.52649
1.52029
1.50775
1.50362
1.52027
1.55816
1.59738
1.63686
1.54202
1.56014
1.56903
1.57492
1.57663
1.57438
1.57032
1.56573
1.55453
1.56022
1.65894
1.84077
1.97789
2.0068
1.98705
1.93877
1.89053
1.84926
1.81286
1.7772
1.74079
1.70413
1.66866
1.63506
1.60357
1.57432
1.54711
1.5194
1.49223
1.46924
1.45061
1.43238
1.40981
1.38469
1.36308
1.34263
1.32239
1.30431
1.28975
1.28177
1.27559
1.2933
1.37966
1.51429
1.6259
1.64584
1.64545
1.63669
1.62214
1.60977
1.5985
1.58736
1.57553
1.56108
1.55621
1.56836
1.62482
1.71923
1.80024
1.83881
1.83803
1.82549
1.80049
1.7742
1.76062
1.75388
1.74481
1.73468
1.72431
1.71358
1.70103
1.68461
1.66891
1.65692
1.64695
1.63841
1.63123
1.62468
1.61784
1.60931
1.59503
1.57396
1.55961
1.55293
1.54738
1.54191
1.53774
1.53379
1.53142
1.53036
1.53742
1.56148
1.60421
1.63085
1.65197
1.66388
1.58019
1.57966
1.57726
1.57595
1.57505
1.57378
1.5714
1.56368
1.54276
1.51723
1.49008
1.52683
1.68381
1.85109
1.91968
1.91241
1.87845
1.8389
1.80182
1.76583
1.72919
1.69216
1.65692
1.62416
1.59353
1.56461
1.53889
1.51638
1.49489
1.47214
1.44846
1.42428
1.4009
1.3767
1.35812
1.34274
1.3256
1.31105
1.29842
1.30108
1.35087
1.47787
1.60518
1.67661
1.69481
1.68941
1.6721
1.65278
1.63813
1.62527
1.61366
1.60172
1.58759
1.56962
1.55278
1.548
1.55284
1.58713
1.66856
1.76278
1.80975
1.81148
1.80281
1.78643
1.77358
1.76209
1.74987
1.7395
1.73014
1.72112
1.70937
1.6905
1.67164
1.66113
1.65261
1.64453
1.63716
1.63007
1.62243
1.6134
1.601
1.58342
1.56638
1.55515
1.54902
1.54425
1.54253
1.54362
1.55134
1.57486
1.60981
1.65462
1.67855
1.68265
1.68264
1.67432
1.57534
1.58109
1.58222
1.58147
1.58004
1.57597
1.56747
1.54979
1.522
1.48622
1.45229
1.4075
1.41681
1.51423
1.69686
1.84061
1.84763
1.8255
1.78625
1.74576
1.70746
1.67265
1.64206
1.61445
1.58856
1.56307
1.53766
1.51306
1.48873
1.46495
1.44255
1.42034
1.4012
1.38166
1.3641
1.34668
1.33332
1.3218
1.34122
1.43672
1.59198
1.69534
1.73248
1.72923
1.71237
1.69393
1.67853
1.66623
1.65481
1.64242
1.63048
1.61769
1.60136
1.581
1.56212
1.55228
1.54914
1.54815
1.56207
1.61861
1.69819
1.77085
1.8021
1.79813
1.78296
1.76214
1.75134
1.74409
1.73626
1.72787
1.71612
1.6977
1.67521
1.66322
1.65641
1.64913
1.64176
1.63442
1.62616
1.61609
1.60407
1.59079
1.57627
1.5629
1.55712
1.55453
1.5569
1.57035
1.60727
1.65343
1.69186
1.71306
1.71465
1.71088
1.70088
1.68048
1.58418
1.58582
1.58586
1.58494
1.58143
1.57164
1.55251
1.52028
1.48834
1.44625
1.40537
1.36496
1.33457
1.31888
1.37395
1.551
1.71809
1.76999
1.75721
1.72312
1.68601
1.6529
1.62511
1.6013
1.57763
1.55256
1.52635
1.50334
1.48325
1.46632
1.44897
1.42946
1.40828
1.38448
1.36629
1.35091
1.35341
1.40933
1.55675
1.70003
1.77576
1.78105
1.77311
1.74866
1.72241
1.70197
1.68854
1.67825
1.66826
1.65737
1.64536
1.63033
1.61044
1.58797
1.57127
1.56043
1.55201
1.54544
1.53955
1.54197
1.56623
1.63085
1.71603
1.7658
1.76365
1.76228
1.7585
1.75117
1.74223
1.73214
1.71966
1.703
1.68056
1.66411
1.65834
1.65164
1.64353
1.6354
1.6271
1.61767
1.60673
1.59555
1.58467
1.57577
1.56963
1.57164
1.5912
1.63536
1.68651
1.72034
1.73958
1.74119
1.73765
1.72775
1.71168
1.68441
1.5818
1.58151
1.58067
1.57787
1.57064
1.55088
1.51786
1.48285
1.44216
1.38568
1.3453
1.32874
1.29531
1.24886
1.21819
1.2513
1.39403
1.58905
1.70017
1.69771
1.67251
1.63679
1.60501
1.5825
1.56212
1.54175
1.52156
1.50624
1.48936
1.47174
1.4529
1.43449
1.41205
1.38989
1.3757
1.39822
1.50079
1.67264
1.79608
1.82515
1.822
1.80263
1.77768
1.75337
1.73144
1.71378
1.70013
1.68841
1.67698
1.66585
1.65421
1.63855
1.61659
1.59362
1.57769
1.56623
1.55552
1.5468
1.53701
1.53149
1.52497
1.53274
1.57231
1.6468
1.71345
1.74654
1.75541
1.75464
1.74648
1.73331
1.72028
1.70692
1.68776
1.66647
1.65546
1.64922
1.64141
1.63345
1.62587
1.61712
1.60816
1.60097
1.59682
1.59096
1.59589
1.62196
1.66852
1.71406
1.73913
1.75186
1.75125
1.747
1.73987
1.72872
1.7137
1.68733
1.57948
1.57841
1.57627
1.56999
1.54895
1.51396
1.47331
1.42605
1.37272
1.33318
1.30274
1.27276
1.2208
1.17562
1.16614
1.15168
1.16478
1.27353
1.49276
1.62252
1.63728
1.62164
1.59428
1.57168
1.55538
1.53953
1.52226
1.50749
1.49417
1.47856
1.45999
1.44337
1.41962
1.41927
1.47783
1.63678
1.77953
1.86392
1.87199
1.86317
1.83404
1.8012
1.77494
1.75492
1.73936
1.72441
1.70898
1.69586
1.68443
1.6719
1.65782
1.64081
1.61833
1.59657
1.58194
1.57151
1.56065
1.54903
1.53857
1.5295
1.52066
1.50908
1.50626
1.52344
1.58469
1.65654
1.70982
1.72726
1.73264
1.72856
1.71917
1.70744
1.69212
1.66991
1.6516
1.64341
1.63703
1.62983
1.62341
1.61663
1.61273
1.61097
1.61617
1.6331
1.66862
1.71096
1.73892
1.75505
1.76289
1.75955
1.75224
1.74384
1.73387
1.72266
1.71026
1.68993
1.57669
1.57383
1.56677
1.54444
1.50755
1.45859
1.40716
1.36217
1.31516
1.26932
1.23686
1.19586
1.15136
1.13749
1.1287
1.10402
1.08246
1.09127
1.18487
1.3888
1.54333
1.59746
1.59366
1.57875
1.56081
1.54415
1.52796
1.51251
1.50214
1.49072
1.47607
1.46276
1.48406
1.59301
1.77343
1.88196
1.90148
1.89619
1.87776
1.85577
1.82885
1.80119
1.77671
1.75889
1.74592
1.7331
1.71784
1.70146
1.68794
1.67792
1.66426
1.64554
1.62191
1.59857
1.5809
1.57093
1.56393
1.55574
1.54481
1.53277
1.51945
1.50291
1.49212
1.4853
1.49267
1.52941
1.59875
1.66496
1.70268
1.71795
1.7172
1.71116
1.69685
1.67625
1.65379
1.63646
1.62955
1.62463
1.62067
1.61992
1.62535
1.6439
1.67707
1.72816
1.75954
1.76547
1.76651
1.76584
1.7655
1.75986
1.7527
1.74373
1.73127
1.71733
1.70558
1.69069
1.5694
1.56094
1.53899
1.50008
1.44342
1.38989
1.34466
1.28958
1.2317
1.19885
1.1695
1.12617
1.0997
1.09445
1.08117
1.05626
1.04519
1.04302
1.04993
1.12118
1.32681
1.50455
1.58607
1.586
1.57591
1.55846
1.54275
1.52577
1.5187
1.50847
1.51192
1.56757
1.73348
1.87986
1.95425
1.94943
1.93198
1.90044
1.87146
1.84552
1.82325
1.80336
1.783
1.7635
1.74735
1.73394
1.71998
1.70632
1.69289
1.67386
1.65299
1.63415
1.61866
1.60439
1.58883
1.57316
1.56274
1.55743
1.55268
1.54215
1.52562
1.50474
1.48765
1.47949
1.47288
1.4736
1.49131
1.54828
1.61778
1.66831
1.69109
1.69436
1.69015
1.67797
1.65624
1.63551
1.62631
1.62385
1.62468
1.63271
1.66759
1.71693
1.76998
1.79805
1.80097
1.79395
1.78254
1.7718
1.76345
1.75568
1.74808
1.7382
1.72669
1.71439
1.70398
1.68898
1.55487
1.53457
1.49618
1.43389
1.36807
1.32037
1.25945
1.19785
1.16943
1.14137
1.09224
1.07167
1.06953
1.06566
1.05311
1.04217
1.04126
1.04046
1.0414
1.04678
1.108
1.29559
1.50791
1.58481
1.58363
1.57715
1.56531
1.55039
1.53911
1.55552
1.65547
1.84394
1.98041
1.9817
1.97237
1.95005
1.92492
1.89552
1.8673
1.84275
1.82219
1.80449
1.78832
1.77393
1.761
1.74715
1.73173
1.71248
1.68877
1.66624
1.6476
1.63163
1.61821
1.6071
1.59613
1.5844
1.57365
1.56225
1.54792
1.53221
1.51557
1.49907
1.48544
1.47619
1.46901
1.46551
1.45869
1.46625
1.50413
1.57051
1.62999
1.6679
1.67607
1.67318
1.65948
1.64016
1.62798
1.6298
1.64709
1.69305
1.75077
1.79219
1.81098
1.80891
1.80569
1.79941
1.78803
1.7737
1.7592
1.74767
1.73856
1.72992
1.72117
1.7123
1.70591
1.69352
1.53312
1.49297
1.4288
1.34703
1.28733
1.22827
1.16296
1.12327
1.09695
1.06468
1.04308
1.04204
1.03946
1.03953
1.03984
1.04297
1.0477
1.05398
1.06191
1.06809
1.07673
1.12283
1.28793
1.49388
1.58095
1.58617
1.58441
1.58816
1.62321
1.75682
1.93106
2.02294
2.03594
2.01615
1.97162
1.93581
1.90956
1.88832
1.86538
1.84279
1.82425
1.80931
1.79404
1.77709
1.75811
1.73866
1.72123
1.70342
1.68273
1.66258
1.64658
1.6342
1.62402
1.61424
1.60272
1.58758
1.56961
1.55434
1.54134
1.52758
1.51284
1.50009
1.49094
1.48209
1.47383
1.46366
1.45416
1.44437
1.44289
1.46256
1.5153
1.58213
1.63418
1.65275
1.64993
1.64638
1.65503
1.68321
1.72553
1.77818
1.80684
1.82146
1.82587
1.82151
1.81065
1.79844
1.78579
1.77114
1.75487
1.743
1.73384
1.72584
1.71873
1.71193
1.70525
1.69101
1.49571
1.4158
1.3126
1.24727
1.20197
1.12913
1.08194
1.07652
1.06575
1.05814
1.05576
1.05547
1.05551
1.05587
1.05876
1.06827
1.07869
1.08678
1.0908
1.09347
1.09257
1.09361
1.11658
1.27003
1.48999
1.55378
1.62707
1.72633
1.86222
1.96393
2.03724
2.04193
2.01876
1.99186
1.96596
1.93562
1.90545
1.88775
1.87259
1.85608
1.84037
1.82411
1.80617
1.78651
1.76525
1.74191
1.71835
1.69915
1.68359
1.66954
1.65804
1.64842
1.63903
1.62867
1.61577
1.59817
1.5756
1.55244
1.53664
1.52711
1.51928
1.5124
1.50561
1.49748
1.48833
1.47636
1.46253
1.44605
1.42772
1.42373
1.4339
1.47416
1.5382
1.606
1.6438
1.68921
1.74108
1.78382
1.80607
1.81467
1.81982
1.8209
1.81843
1.81232
1.80498
1.79541
1.78451
1.77001
1.75192
1.74053
1.73421
1.72786
1.72176
1.71543
1.70879
1.69416
1.39807
1.23042
1.10256
1.04465
1.00253
0.971456
0.978315
1.01097
1.03768
1.05539
1.082
1.1008
1.10036
1.09678
1.09704
1.10303
1.10994
1.11544
1.11599
1.11611
1.11539
1.1078
1.102
1.12187
1.26401
1.5268
1.76206
1.97981
2.13865
2.17849
2.13303
2.05904
2.00245
1.9772
1.95922
1.93302
1.90251
1.87995
1.86367
1.84911
1.83408
1.8172
1.79863
1.77928
1.75899
1.73637
1.7121