/*--------------------------------*- C++ -*----------------------------------*\
  =========                 |
  \\      /  F ield         | OpenFOAM: The Open Source CFD Toolbox
   \\    /   O peration     | Website:  https://openfoam.org
    \\  /    A nd           | Version:  7
     \\/     M anipulation  |
\*---------------------------------------------------------------------------*/
FoamFile
{
    version     2.0;
    format      ascii;
    class       volVectorField;
    location    "2.5";
    object      U;
}
// * * * * * * * * * * * * * * * * * * * * * * * * * * * * * * * * * * * * * //

dimensions      [0 1 -1 0 0 0 0];

internalField   nonuniform List<vector> 
4608
(
(3 -2.39361e-16 0)
(3 -4.78685e-16 0)
(3 -1.98431e-16 0)
(3 1.93807e-16 0)
(3 -9.39279e-17 0)
(3 -5.99222e-16 0)
(3 -4.7104e-16 0)
(3 -5.02915e-16 0)
(3 2.6706e-16 0)
(3 7.58589e-16 0)
(3 8.48976e-16 0)
(3 6.85973e-17 0)
(3 -2.90932e-16 0)
(3 -3.1894e-16 0)
(3 -3.74106e-16 0)
(3 -4.54069e-16 0)
(3 -7.76622e-16 0)
(3 -1.15362e-15 0)
(3 -1.2095e-15 0)
(3 -5.31436e-16 0)
(3 -4.48288e-16 0)
(3 7.23131e-16 0)
(3 1.44442e-15 0)
(3 1.01382e-15 0)
(3 -8.68931e-17 0)
(3 2.76433e-16 0)
(3 6.34961e-16 0)
(3 1.30213e-15 0)
(3 1.27146e-15 0)
(3 -4.32473e-17 0)
(3 -1.67447e-16 0)
(3 -4.14564e-16 0)
(3 1.08924e-15 0)
(3 2.2084e-15 0)
(3 2.2814e-15 0)
(3 1.69442e-15 0)
(3 1.0906e-15 0)
(3 1.4681e-15 0)
(3 7.4396e-16 0)
(3 4.33236e-16 0)
(3 -4.11749e-16 0)
(3 -1.29759e-15 0)
(3 -1.09438e-15 0)
(3 -3.41287e-16 0)
(3 -1.93482e-17 0)
(3 6.5105e-16 0)
(3 1.07432e-15 0)
(3 1.05154e-15 0)
(3 8.29533e-17 0)
(3 6.54681e-16 0)
(3 1.00333e-15 0)
(3 1.83809e-15 0)
(3 2.14816e-15 0)
(3 1.95204e-15 0)
(3 1.37419e-15 0)
(3 8.29194e-16 0)
(3 1.14916e-15 0)
(3 2.31873e-15 0)
(3 3.22164e-15 0)
(3 3.54317e-15 0)
(3 3.87493e-15 0)
(3 3.01439e-15 0)
(3 2.89004e-15 0)
(3 2.58028e-15 0)
(3 1.04891e-15 0)
(3 2.58813e-16 0)
(3 -2.02527e-17 0)
(3 -3.92764e-16 0)
(3 -1.04173e-15 0)
(3 -1.42347e-15 0)
(3 -1.08985e-15 0)
(3 -7.51601e-16 0)
(3 -2.13798e-16 0)
(3 -6.74122e-16 0)
(3 -1.40479e-16 0)
(3 8.78854e-16 0)
(3 1.31859e-15 0)
(3 1.55317e-15 0)
(3 9.2083e-16 0)
(3 5.74784e-16 0)
(3 9.0167e-16 0)
(3 1.41482e-15 0)
(3 1.99449e-15 0)
(3 2.39548e-15 0)
(3 2.56582e-15 0)
(3 2.59826e-15 0)
(3 2.10613e-15 0)
(3 1.50107e-15 0)
(3 1.09375e-15 0)
(3 1.00329e-15 0)
(3 9.92524e-16 0)
(3 5.46307e-16 0)
(3 -1.32471e-16 0)
(3 -8.683e-16 0)
(3 -1.57604e-15 0)
(3 -1.06924e-15 0)
(3 -2.78478e-16 0)
(3 -9.71153e-16 0)
(3 -5.16249e-16 0)
(3 2.43496e-17 0)
(3 4.24852e-16 0)
(3 6.62733e-16 0)
(3 7.55819e-16 0)
(3 7.24593e-16 0)
(3 4.95988e-16 0)
(3 3.09904e-16 0)
(3 7.07457e-16 0)
(3 1.19551e-15 0)
(3 1.0647e-15 0)
(3 1.25128e-15 0)
(3 1.08802e-15 0)
(3 1.13409e-15 0)
(3 7.22111e-16 0)
(3 6.48414e-16 0)
(3 1.26586e-15 0)
(3 1.57597e-15 0)
(3 1.44754e-15 0)
(3 7.30452e-16 0)
(3 -4.67444e-16 0)
(3 -2.36423e-16 0)
(3 1.28165e-16 0)
(3 -6.22875e-17 0)
(3 -2.49621e-16 0)
(3 -2.74225e-16 0)
(3 2.60693e-16 0)
(3 8.14144e-16 0)
(3 7.6576e-16 0)
(3 7.90396e-16 0)
(3 4.62765e-16 0)
(3 2.82217e-16 0)
(3 4.30461e-17 0)
(3 2.37049e-16 0)
(3 2.43357e-19 0)
(3 1.60566e-16 0)
(3 4.38754e-16 0)
(3 2.45898e-16 0)
(3 -2.9589e-16 0)
(3 -2.36138e-16 0)
(3 1.04761e-15 0)
(3 1.9926e-15 0)
(3 1.60687e-15 0)
(3 -6.67879e-16 0)
(3 -1.02465e-15 0)
(3 -1.76911e-16 0)
(3 8.48809e-17 0)
(3 2.74665e-16 0)
(3 6.41974e-17 0)
(3 -3.31562e-16 0)
(3 -8.51167e-17 0)
(3 9.21675e-17 0)
(3 1.45368e-16 0)
(3 4.27138e-16 0)
(3 4.75819e-16 0)
(3 3.67483e-16 0)
(3 -6.27958e-16 0)
(3 -9.8793e-16 0)
(3 -6.06843e-16 0)
(3 -4.79911e-16 0)
(3 -2.98862e-16 0)
(3 -4.3965e-16 0)
(3 -6.33425e-17 0)
(3 8.64208e-16 0)
(3 1.11682e-15 0)
(3 1.18469e-15 0)
(3 5.4507e-16 0)
(3 -1.40495e-15 0)
(3 -1.56881e-15 0)
(3 -2.8228e-17 0)
(3 2.96912e-16 0)
(3 6.20413e-16 0)
(3 2.5219e-16 0)
(3 -1.57504e-16 0)
(3 -4.25526e-16 0)
(3 -6.78889e-16 0)
(3 -2.59532e-16 0)
(3 -1.02871e-16 0)
(3 -5.80206e-16 0)
(3 -6.09936e-16 0)
(3 -6.14285e-16 0)
(3 -4.06242e-16 0)
(3 6.17593e-17 0)
(3 -2.3606e-16 0)
(3 -8.02877e-16 0)
(3 -5.69023e-16 0)
(3 1.04997e-15 0)
(3 1.8439e-15 0)
(3 2.05773e-15 0)
(3 2.04896e-15 0)
(3 1.29691e-15 0)
(3 1.97814e-17 0)
(3 -4.35992e-16 0)
(3 6.09549e-16 0)
(3 1.08855e-16 0)
(3 2.59713e-16 0)
(3 3.88981e-16 0)
(3 8.56836e-16 0)
(3 4.98082e-16 0)
(3 -9.26516e-16 0)
(3 -1.38638e-15 0)
(3 -1.39841e-15 0)
(3 -9.46854e-16 0)
(3 -5.67888e-16 0)
(3 -4.22993e-17 0)
(3 1.5009e-16 0)
(3 2.62785e-16 0)
(3 5.7111e-16 0)
(3 -2.58884e-16 0)
(3 -6.04912e-16 0)
(3 -3.1048e-16 0)
(3 4.27507e-16 0)
(3 1.05962e-15 0)
(3 1.73385e-15 0)
(3 6.83508e-16 0)
(3 3.40437e-16 0)
(3 8.25108e-17 0)
(3 4.70833e-16 0)
(3 -3.50989e-17 0)
(3 2.0637e-16 0)
(3 6.59132e-16 0)
(3 6.7183e-16 0)
(3 3.07411e-16 0)
(3 -2.54379e-16 0)
(3 -6.10877e-16 0)
(3 -5.19879e-16 0)
(3 -1.25798e-16 0)
(3 -2.17265e-16 0)
(3 -1.15984e-16 0)
(3 -3.40419e-16 0)
(3 -1.72159e-16 0)
(3 2.33606e-16 0)
(3 6.03428e-16 0)
(3 1.57829e-16 0)
(3 -1.04049e-16 0)
(3 1.13015e-18 0)
(3 1.71537e-16 0)
(3 2.89421e-16 0)
(3 1.81472e-15 0)
(3 2.27731e-15 0)
(3 2.79444e-15 0)
(3 2.19021e-15 0)
(3 3.00725e-16 0)
(3 2.07057e-16 0)
(3 2.43693e-16 0)
(3 -1.67608e-17 0)
(3 -5.38667e-16 0)
(3 -7.82985e-17 0)
(3 4.00069e-16 0)
(3 5.85131e-16 0)
(3 4.40645e-16 0)
(3 1.27223e-16 0)
(3 5.30932e-17 0)
(3 -2.8551e-16 0)
(3 -7.13714e-16 0)
(3 -5.04579e-16 0)
(3 1.58677e-16 0)
(3 1.31906e-16 0)
(3 -2.32483e-16 0)
(3 -3.59203e-16 0)
(3 -2.1726e-16 0)
(3 1.39201e-16 0)
(3 2.88646e-15 0)
(3 4.73543e-15 0)
(3 5.43996e-15 0)
(3 3.12375e-15 0)
(3 -9.3061e-17 0)
(3 -6.52522e-16 0)
(3 -5.8813e-16 0)
(3 -6.0069e-16 0)
(3 -6.69902e-16 0)
(3 -5.98487e-16 0)
(3 -2.8575e-16 0)
(3 -4.47034e-16 0)
(3 -5.54509e-16 0)
(3 -7.85928e-16 0)
(3 -5.77746e-16 0)
(3 -4.54669e-16 0)
(3 -8.73384e-16 0)
(3 -6.53087e-16 0)
(3 -6.38986e-16 0)
(3 2.62531e-17 0)
(3 -1.97201e-16 0)
(3 -2.91296e-16 0)
(3 -2.36322e-16 0)
(3 -5.69811e-16 0)
(3 2.69813e-16 0)
(3 1.61149e-15 0)
(3 3.04203e-15 0)
(3 3.53288e-15 0)
(3 -1.2536e-16 0)
(3 -3.96374e-16 0)
(3 -4.89017e-16 0)
(3 -4.15712e-16 0)
(3 -4.61754e-16 0)
(3 -8.79643e-16 0)
(3 -8.91967e-16 0)
(3 -7.90162e-16 0)
(3 -7.6811e-16 0)
(3 -5.33545e-16 0)
(3 -4.58721e-16 0)
(3 1.47311e-16 0)
(3 6.85757e-17 0)
(3 3.1044e-16 0)
(3 -1.01069e-16 0)
(3 5.03676e-16 0)
(3 1.03213e-15 0)
(3 9.9071e-16 0)
(3 3.15928e-16 0)
(3 -6.27462e-16 0)
(3 -3.55091e-16 0)
(3 1.27545e-15 0)
(3 1.33512e-15 0)
(3 1.46894e-15 0)
(3 9.08733e-17 0)
(3 1.47545e-16 0)
(3 1.58508e-16 0)
(3 5.43805e-16 0)
(3 3.77749e-16 0)
(3 -3.07896e-16 0)
(3 -7.88256e-16 0)
(3 -9.93342e-16 0)
(3 -8.72507e-16 0)
(3 -7.29872e-16 0)
(3 -6.70589e-16 0)
(3 -7.14212e-16 0)
(3 -6.0184e-16 0)
(3 -5.36352e-16 0)
(3 -1.05962e-16 0)
(3 4.73583e-16 0)
(3 1.19231e-15 0)
(3 1.62376e-15 0)
(3 1.26205e-15 0)
(3 1.20731e-15 0)
(3 1.27147e-15 0)
(3 2.38425e-15 0)
(3 1.4103e-15 0)
(3 8.16983e-16 0)
(3 6.80464e-17 0)
(3 4.11536e-16 0)
(3 3.90751e-16 0)
(3 -1.04187e-16 0)
(3 -2.84995e-17 0)
(3 1.00807e-16 0)
(3 -3.18464e-16 0)
(3 -5.97618e-16 0)
(3 -1.29726e-15 0)
(3 -1.35122e-15 0)
(3 -1.24055e-15 0)
(3 -1.44663e-15 0)
(3 -1.34947e-15 0)
(3 -1.04897e-15 0)
(3 -3.74494e-16 0)
(3 -1.21599e-16 0)
(3 4.92093e-16 0)
(3 1.02423e-15 0)
(3 1.94505e-15 0)
(3 1.98576e-15 0)
(3 1.03552e-15 0)
(3 1.41302e-16 0)
(3 -6.63371e-16 0)
(3 -5.93275e-16 0)
(3 1.30573e-16 0)
(3 2.88991e-16 0)
(3 1.19251e-16 0)
(3 -2.28668e-16 0)
(3 -7.54801e-17 0)
(3 3.8641e-16 0)
(3 2.34591e-16 0)
(3 2.87479e-16 0)
(3 -1.74762e-17 0)
(3 2.39922e-16 0)
(3 -5.78456e-17 0)
(3 -3.46169e-16 0)
(3 -4.34739e-16 0)
(3 -3.15684e-16 0)
(3 -4.75347e-16 0)
(3 -3.36039e-16 0)
(3 -5.90863e-16 0)
(3 -5.14387e-16 0)
(3 -6.44923e-16 0)
(3 -5.48144e-16 0)
(3 -7.13504e-16 0)
(3 -2.51987e-15 0)
(3 -4.07164e-15 0)
(3 -3.60509e-15 0)
(3 -5.02482e-17 0)
(3 -4.01633e-17 0)
(3 -1.43881e-16 0)
(3 -1.41305e-16 0)
(3 6.22536e-16 0)
(3 1.13886e-15 0)
(3 1.47274e-15 0)
(3 1.2425e-15 0)
(3 8.30557e-16 0)
(3 1.69008e-16 0)
(3 -2.61537e-17 0)
(3 3.33174e-16 0)
(3 6.71866e-16 0)
(3 6.2027e-16 0)
(3 7.38304e-17 0)
(3 1.47507e-18 0)
(3 -7.70323e-16 0)
(3 -7.73326e-16 0)
(3 -2.17969e-15 0)
(3 -2.8819e-15 0)
(3 -3.15251e-15 0)
(3 -3.58636e-15 0)
(3 -3.21447e-15 0)
(3 -2.99639e-15 0)
(3 -2.53527e-16 0)
(3 1.25732e-17 0)
(3 1.38652e-16 0)
(3 -1.49194e-19 0)
(3 2.95643e-18 0)
(3 6.12432e-17 0)
(3 4.5122e-16 0)
(3 5.65225e-16 0)
(3 5.61266e-16 0)
(3 1.41908e-17 0)
(3 -1.61021e-16 0)
(3 7.57743e-17 0)
(3 -1.27833e-16 0)
(3 -5.33889e-17 0)
(3 -1.10561e-16 0)
(3 -5.3737e-16 0)
(3 -8.40901e-16 0)
(3 -1.13278e-15 0)
(3 -1.95786e-15 0)
(3 -2.27875e-15 0)
(3 -2.42441e-15 0)
(3 -1.75207e-15 0)
(3 -1.38275e-15 0)
(3 -1.54168e-15 0)
(3 3.92241e-17 0)
(3 9.5556e-17 0)
(3 9.02401e-17 0)
(3 -2.79671e-17 0)
(3 -7.94116e-16 0)
(3 -1.44735e-15 0)
(3 -1.63222e-15 0)
(3 -8.4511e-16 0)
(3 6.33846e-16 0)
(3 1.1215e-15 0)
(3 9.64733e-16 0)
(3 1.61868e-16 0)
(3 -9.16961e-16 0)
(3 -1.38047e-15 0)
(3 -1.82692e-15 0)
(3 -1.8937e-15 0)
(3 -1.40865e-15 0)
(3 -1.63798e-15 0)
(3 -1.32225e-15 0)
(3 -6.56009e-16 0)
(3 -2.85592e-16 0)
(3 3.94014e-16 0)
(3 2.07747e-16 0)
(3 3.07008e-16 0)
(3 1.98569e-16 0)
(3 6.54696e-18 0)
(3 -1.89469e-16 0)
(3 -8.35085e-17 0)
(3 -2.80154e-16 0)
(3 -1.34536e-16 0)
(3 -4.89164e-16 0)
(3 -2.67342e-16 0)
(3 1.50372e-16 0)
(3 -1.71404e-16 0)
(3 -1.63147e-16 0)
(3 -2.95432e-16 0)
(3 -6.99638e-16 0)
(3 -1.00631e-15 0)
(3 -1.1583e-15 0)
(3 -6.01462e-16 0)
(3 -8.26122e-16 0)
(3 2.26037e-16 0)
(3 1.1957e-15 0)
(3 1.13515e-15 0)
(3 6.16992e-16 0)
(3 9.71458e-16 0)
(3 2.38105e-15 0)
(3 2.4974e-15 0)
(3 -1.35552e-17 0)
(3 -1.8351e-16 0)
(3 -3.75862e-16 0)
(3 -2.79139e-16 0)
(3 -1.81297e-17 0)
(3 1.86427e-16 0)
(3 1.80688e-16 0)
(3 -1.04944e-15 0)
(3 -1.2697e-15 0)
(3 -1.21712e-15 0)
(3 -1.0451e-15 0)
(3 -3.53008e-16 0)
(3 1.50744e-16 0)
(3 5.01973e-16 0)
(3 1.12958e-15 0)
(3 1.3104e-15 0)
(3 1.52298e-15 0)
(3 1.88048e-15 0)
(3 2.74365e-15 0)
(3 1.18937e-16 0)
(3 -1.31581e-15 0)
(3 -8.91839e-16 0)
(3 5.10639e-16 0)
(3 6.21518e-16 0)
(3 -3.95369e-16 0)
(3 -4.44098e-16 0)
(3 -4.4844e-16 0)
(3 -4.2644e-16 0)
(3 -1.36749e-16 0)
(3 7.66241e-17 0)
(3 3.27441e-16 0)
(3 1.09399e-16 0)
(3 -3.70679e-17 0)
(3 3.10978e-17 0)
(3 3.04217e-16 0)
(3 5.57048e-16 0)
(3 3.48763e-16 0)
(3 3.17518e-16 0)
(3 7.86757e-16 0)
(3 1.04122e-15 0)
(3 1.45495e-15 0)
(3 1.06379e-15 0)
(3 1.1483e-15 0)
(3 6.19266e-16 0)
(3 -6.30504e-16 0)
(3 -1.49575e-15 0)
(3 -1.82345e-15 0)
(3 -1.7612e-15 0)
(3 9.16988e-18 0)
(3 -2.00011e-17 0)
(3 -1.24125e-16 0)
(3 -1.4833e-16 0)
(3 2.58249e-17 0)
(3 1.87032e-16 0)
(3 1.42398e-16 0)
(3 2.01791e-16 0)
(3 2.00162e-16 0)
(3 1.58098e-16 0)
(3 5.77989e-16 0)
(3 3.49872e-16 0)
(3 -2.34095e-16 0)
(3 -9.24183e-16 0)
(3 -6.08369e-16 0)
(3 -6.81997e-17 0)
(3 -2.97609e-16 0)
(3 -4.07168e-16 0)
(3 -6.1641e-16 0)
(3 -5.24262e-16 0)
(3 -1.36756e-15 0)
(3 -2.84693e-15 0)
(3 -3.83761e-15 0)
(3 -3.72756e-15 0)
(3 1.55616e-16 0)
(3 1.00898e-16 0)
(3 -1.45369e-17 0)
(3 -4.92162e-16 0)
(3 -7.55336e-16 0)
(3 -1.16881e-15 0)
(3 -1.25318e-15 0)
(3 -5.41426e-16 0)
(3 1.03235e-16 0)
(3 2.12483e-16 0)
(3 2.51764e-16 0)
(3 1.65447e-16 0)
(3 5.97754e-16 0)
(3 8.7792e-16 0)
(3 7.27278e-16 0)
(3 3.10899e-16 0)
(3 -7.68862e-16 0)
(3 -1.34302e-15 0)
(3 -1.92128e-15 0)
(3 -2.02018e-15 0)
(3 -2.35024e-15 0)
(3 -3.63824e-15 0)
(3 -3.7296e-15 0)
(3 -3.639e-15 0)
(3 -2.80101e-16 0)
(3 -3.21538e-16 0)
(3 -2.06894e-16 0)
(3 -3.77195e-16 0)
(3 -2.89513e-16 0)
(3 1.62134e-16 0)
(3 2.9834e-16 0)
(3 1.94166e-16 0)
(3 8.56669e-17 0)
(3 4.80363e-16 0)
(3 2.86447e-16 0)
(3 3.86219e-16 0)
(3 6.28198e-16 0)
(3 1.02729e-15 0)
(3 4.8209e-16 0)
(3 -2.42619e-16 0)
(3 -2.73138e-16 0)
(3 -7.91627e-16 0)
(3 -1.08217e-15 0)
(3 -1.39902e-15 0)
(3 -9.6281e-16 0)
(3 -6.45594e-16 0)
(3 -1.75434e-16 0)
(3 -1.14e-15 0)
(3 9.45231e-17 0)
(3 1.44358e-16 0)
(3 -1.57545e-16 0)
(3 -2.27411e-16 0)
(3 -7.82233e-17 0)
(3 1.20232e-16 0)
(3 -7.42111e-19 0)
(3 -4.81713e-16 0)
(3 -6.30688e-16 0)
(3 -4.04211e-16 0)
(3 -2.31622e-16 0)
(3 5.49408e-17 0)
(3 -2.01031e-17 0)
(3 -3.58982e-16 0)
(3 -4.37609e-16 0)
(3 -5.1079e-16 0)
(3 -5.11787e-16 0)
(3 7.65706e-17 0)
(3 1.13987e-16 0)
(3 -2.10881e-16 0)
(3 5.68976e-17 0)
(3 8.89101e-16 0)
(3 4.84211e-16 0)
(3 -1.1007e-15 0)
(3 2.0683e-16 0)
(3 1.60038e-16 0)
(3 1.07909e-16 0)
(3 5.3295e-16 0)
(3 -3.31599e-16 0)
(3 -1.23505e-15 0)
(3 -1.16613e-15 0)
(3 -7.09577e-16 0)
(3 -1.35644e-16 0)
(3 -6.20763e-16 0)
(3 -3.86061e-16 0)
(3 -5.17116e-16 0)
(3 -4.94604e-16 0)
(3 -6.53742e-16 0)
(3 -5.2647e-16 0)
(3 -2.24653e-16 0)
(3 -3.0569e-16 0)
(3 -2.78556e-16 0)
(3 -7.78805e-16 0)
(3 -2.22597e-16 0)
(3 4.2031e-16 0)
(3 7.60015e-16 0)
(3 1.56671e-16 0)
(3 -2.75351e-15 0)
(3 -2.82282e-16 0)
(3 -6.62704e-16 0)
(3 -4.00398e-16 0)
(3 -1.77123e-16 0)
(3 -3.3442e-16 0)
(3 -3.71525e-16 0)
(3 1.12731e-17 0)
(3 3.95266e-16 0)
(3 8.96917e-16 0)
(3 5.15802e-16 0)
(3 2.56902e-16 0)
(3 -2.56112e-16 0)
(3 -3.43368e-16 0)
(3 -2.40808e-16 0)
(3 -9.22349e-17 0)
(3 4.87129e-16 0)
(3 5.90631e-16 0)
(3 1.27325e-16 0)
(3 -9.67569e-16 0)
(3 -9.99561e-16 0)
(3 -4.81833e-16 0)
(3 -2.9751e-16 0)
(3 1.30039e-16 0)
(3 -1.63552e-15 0)
(3 8.82789e-17 0)
(3 2.6058e-16 0)
(3 -7.4522e-17 0)
(3 -1.53267e-16 0)
(3 -3.80948e-17 0)
(3 4.43046e-16 0)
(3 1.02201e-15 0)
(3 7.02565e-16 0)
(3 -2.43655e-16 0)
(3 -3.49155e-16 0)
(3 -4.2458e-16 0)
(3 -4.42902e-16 0)
(3 -6.19544e-16 0)
(3 -3.90284e-16 0)
(3 -4.09855e-16 0)
(3 -2.14464e-16 0)
(3 -6.25866e-16 0)
(3 -7.27614e-16 0)
(3 -5.96016e-16 0)
(3 -8.38439e-16 0)
(3 -6.75129e-16 0)
(3 -2.41662e-16 0)
(3 4.47502e-16 0)
(3 1.81845e-16 0)
(3 2.73258e-16 0)
(3 8.73748e-16 0)
(3 9.45025e-16 0)
(3 7.37853e-16 0)
(3 1.01867e-15 0)
(3 1.39058e-15 0)
(3 1.16396e-15 0)
(3 1.13367e-15 0)
(3 -1.01659e-15 0)
(3 -2.16907e-15 0)
(3 -2.10278e-15 0)
(3 -1.72833e-15 0)
(3 -1.55509e-15 0)
(3 -1.75023e-15 0)
(3 -2.54442e-15 0)
(3 -3.16979e-15 0)
(3 -3.08318e-15 0)
(3 -2.48221e-15 0)
(3 -6.40923e-16 0)
(3 1.08662e-15 0)
(3 2.22627e-15 0)
(3 2.1516e-15 0)
(3 2.64739e-15 0)
(3 3.41948e-15 0)
(3 -2.05196e-16 0)
(3 -3.45851e-16 0)
(3 -7.49838e-17 0)
(3 1.69297e-16 0)
(3 5.25302e-16 0)
(3 1.30084e-15 0)
(3 1.44639e-15 0)
(3 1.061e-15 0)
(3 2.84864e-16 0)
(3 2.14156e-16 0)
(3 -1.07813e-15 0)
(3 -1.71097e-15 0)
(3 -1.67046e-15 0)
(3 -1.61951e-15 0)
(3 -2.41557e-15 0)
(3 -3.4385e-15 0)
(3 -3.12755e-15 0)
(3 -2.47215e-15 0)
(3 -2.0117e-15 0)
(3 2.75786e-16 0)
(3 2.85385e-15 0)
(3 3.08807e-15 0)
(3 2.92308e-15 0)
(3 2.69367e-15 0)
(3 -2.88787e-16 0)
(3 -4.69129e-16 0)
(3 -3.40903e-16 0)
(3 -4.71527e-17 0)
(3 2.83327e-16 0)
(3 7.16592e-16 0)
(3 1.06982e-15 0)
(3 6.25886e-16 0)
(3 6.59445e-16 0)
(3 8.73151e-16 0)
(3 -1.35474e-17 0)
(3 -5.73427e-16 0)
(3 -7.87806e-16 0)
(3 -8.42156e-16 0)
(3 -9.16873e-16 0)
(3 -1.33347e-15 0)
(3 -1.33067e-15 0)
(3 -1.42446e-15 0)
(3 -1.62249e-15 0)
(3 -6.53714e-16 0)
(3 1.45276e-16 0)
(3 9.03892e-16 0)
(3 1.18596e-15 0)
(3 1.11707e-15 0)
(2.93132 0.0358428 0)
(2.85602 0.0352143 0)
(2.74985 0.159746 0)
(2.67019 0.241482 0)
(2.58295 0.340969 0)
(2.49145 0.452079 0)
(2.43062 0.541421 0)
(2.34871 0.625196 0)
(2.31061 0.72396 0)
(2.25762 0.800048 0)
(2.25076 0.854989 0)
(2.28428 0.887849 0)
(2.32301 0.898699 0)
(2.33507 0.886288 0)
(2.34587 0.881273 0)
(2.34848 0.865444 0)
(2.3489 0.858842 0)
(2.34583 0.852934 0)
(2.3415 0.849817 0)
(2.3413 0.84928 0)
(2.34066 0.848524 0)
(2.33953 0.848234 0)
(2.33789 0.848878 0)
(2.33711 0.849451 0)
(2.99849 0.00163824 0)
(2.99137 0.0105111 0)
(2.96014 0.0486374 0)
(2.90041 0.134468 0)
(2.80828 0.270647 0)
(2.6709 0.47115 0)
(2.54373 0.677771 0)
(2.38121 0.902266 0)
(2.21474 1.07409 0)
(2.16758 1.10136 0)
(2.14921 1.04406 0)
(2.18753 1.00148 0)
(2.24218 0.951609 0)
(2.30469 0.899733 0)
(2.32885 0.858177 0)
(2.34793 0.827167 0)
(2.3563 0.833993 0)
(2.35654 0.842701 0)
(2.35315 0.845956 0)
(2.34859 0.846231 0)
(2.34697 0.846014 0)
(2.34477 0.846249 0)
(2.34226 0.847189 0)
(2.34002 0.84947 0)
(3 3.88147e-07 0)
(3.00002 -2.34297e-05 0)
(2.99994 3.65395e-05 0)
(2.99984 0.000248525 0)
(2.99868 0.00177465 0)
(2.99106 0.0132149 0)
(2.96669 0.0516893 0)
(2.89594 0.176561 0)
(2.7698 0.415712 0)
(2.61206 0.686374 0)
(2.43586 0.859305 0)
(2.33273 0.92693 0)
(2.30008 0.916379 0)
(2.30324 0.902355 0)
(2.30635 0.894375 0)
(2.34294 0.860983 0)
(2.35728 0.859662 0)
(2.35859 0.856345 0)
(2.35763 0.849203 0)
(2.35474 0.848287 0)
(2.35337 0.847218 0)
(2.35373 0.847194 0)
(2.35006 0.848596 0)
(2.34571 0.851627 0)
(3 -1.27744e-09 0)
(3 -1.01287e-06 0)
(3 -2.0225e-06 0)
(3 -1.37146e-06 0)
(3 -8.44625e-06 0)
(2.99999 2.35634e-05 0)
(3.00004 -8.98546e-05 0)
(2.99927 0.00109528 0)
(2.98904 0.0198091 0)
(2.91971 0.139398 0)
(2.68239 0.487882 0)
(2.51507 0.714878 0)
(2.33914 0.892643 0)
(2.26751 0.974105 0)
(2.27355 0.95422 0)
(2.30501 0.912564 0)
(2.33248 0.876691 0)
(2.34626 0.863197 0)
(2.35473 0.851267 0)
(2.36075 0.841322 0)
(2.36045 0.84238 0)
(2.35957 0.845967 0)
(2.35839 0.84553 0)
(2.35243 0.847507 0)
(3 -1.93799e-10 0)
(3 2.972e-09 0)
(3 -8.34817e-08 0)
(3 -1.2895e-07 0)
(3 -5.26618e-07 0)
(3 -6.41073e-07 0)
(3 -5.54686e-06 0)
(3 -5.68412e-06 0)
(3.00002 -4.5759e-05 0)
(2.99944 0.000571992 0)
(2.98207 0.0237143 0)
(2.88415 0.157695 0)
(2.65015 0.466449 0)
(2.36694 0.810713 0)
(2.36405 0.837133 0)
(2.3091 0.878437 0)
(2.31373 0.877356 0)
(2.32926 0.872188 0)
(2.34831 0.850937 0)
(2.35427 0.844973 0)
(2.35942 0.844301 0)
(2.36087 0.84135 0)
(2.35927 0.842048 0)
(2.35394 0.841256 0)
(3 -8.66308e-13 0)
(3 1.47125e-10 0)
(3 3.16362e-10 0)
(3 -8.31112e-10 0)
(3 -2.97129e-10 0)
(3 -3.42702e-08 0)
(3 -8.01891e-08 0)
(3 -3.55061e-07 0)
(3 -5.98377e-06 0)
(3 -5.65655e-06 0)
(3.00002 -5.2755e-05 0)
(2.99894 0.00138236 0)
(2.96708 0.0415042 0)
(2.81463 0.228527 0)
(2.62053 0.518423 0)
(2.30915 0.874958 0)
(2.26219 0.886072 0)
(2.30801 0.876061 0)
(2.31018 0.872082 0)
(2.32344 0.864474 0)
(2.34439 0.852558 0)
(2.34913 0.845531 0)
(2.35061 0.839623 0)
(2.34836 0.840498 0)
(3 4.14711e-14 0)
(3 -8.18373e-14 0)
(3 2.15474e-11 0)
(3 1.579e-11 0)
(3 1.68457e-11 0)
(3 -2.7453e-10 0)
(3 -5.24699e-10 0)
(3 -6.75997e-10 0)
(3 -8.52831e-09 0)
(3 -3.53513e-07 0)
(3 -3.82743e-06 0)
(3.00001 -1.03204e-05 0)
(2.99997 9.629e-06 0)
(2.99621 0.00581207 0)
(2.94707 0.0690984 0)
(2.7085 0.368072 0)
(2.55775 0.595997 0)
(2.3186 0.84047 0)
(2.26693 0.897916 0)
(2.28459 0.877221 0)
(2.31179 0.854695 0)
(2.32476 0.850645 0)
(2.33549 0.848657 0)
(2.33952 0.841911 0)
(3 6.89335e-15 0)
(3 7.58979e-15 0)
(3 1.53537e-14 0)
(3 1.15701e-12 0)
(3 1.88384e-12 0)
(3 2.33547e-12 0)
(3 3.09419e-12 0)
(3 4.48629e-12 0)
(3 6.49945e-11 0)
(3 -5.39462e-10 0)
(3 -1.20247e-08 0)
(3 -1.70544e-06 0)
(3 -1.68531e-06 0)
(3.00001 -1.65028e-05 0)
(2.99963 0.000482341 0)
(2.98406 0.022754 0)
(2.90387 0.149523 0)
(2.56593 0.551496 0)
(2.44027 0.719377 0)
(2.35419 0.807019 0)
(2.32005 0.848296 0)
(2.31301 0.852142 0)
(2.32249 0.848073 0)
(2.32856 0.838082 0)
(3 1.76517e-15 0)
(3 1.86719e-15 0)
(3 1.24868e-15 0)
(3 2.90133e-15 0)
(3 1.9024e-14 0)
(3 2.75037e-13 0)
(3 9.00264e-13 0)
(3 1.91028e-12 0)
(3 1.40874e-11 0)
(3 2.00531e-11 0)
(3 4.81694e-11 0)
(3 -1.60291e-08 0)
(3 -1.58308e-07 0)
(3 -3.58791e-06 0)
(3 -1.88463e-06 0)
(2.99999 8.60756e-06 0)
(2.9977 0.00371951 0)
(2.93957 0.0819864 0)
(2.8205 0.286831 0)
(2.45092 0.718752 0)
(2.34723 0.830803 0)
(2.32542 0.836887 0)
(2.32109 0.839229 0)
(2.31609 0.841025 0)
(3 2.25189e-15 0)
(3 2.38601e-15 0)
(3 4.44036e-16 0)
(3 3.49023e-16 0)
(3 -5.71159e-16 0)
(3 2.06179e-15 0)
(3 4.54889e-14 0)
(3 1.64447e-13 0)
(3 5.31723e-13 0)
(3 3.851e-12 0)
(3 7.07723e-12 0)
(3 1.13179e-10 0)
(3 -1.52063e-09 0)
(3 -3.01262e-08 0)
(3 -4.61405e-07 0)
(3 -7.62635e-07 0)
(3.00001 -1.54725e-05 0)
(2.99934 0.00124063 0)
(2.98952 0.0201932 0)
(2.84189 0.218265 0)
(2.64144 0.499924 0)
(2.4476 0.737991 0)
(2.32194 0.87643 0)
(2.30404 0.863742 0)
(3 2.69997e-15 0)
(3 3.46609e-15 0)
(3 1.67586e-15 0)
(3 -7.01536e-16 0)
(3 -2.20164e-15 0)
(3 -3.83065e-15 0)
(3 -4.22453e-15 0)
(3 7.94314e-16 0)
(3 6.97566e-16 0)
(3 3.49562e-14 0)
(3 5.27249e-13 0)
(3 1.80615e-11 0)
(3 1.51057e-11 0)
(3 2.23675e-10 0)
(3 -4.76958e-09 0)
(3 -7.73156e-08 0)
(3 -2.34035e-06 0)
(3 -5.19779e-06 0)
(2.99996 5.02048e-05 0)
(2.99316 0.0114737 0)
(2.94776 0.0900716 0)
(2.68765 0.44523 0)
(2.47436 0.725159 0)
(2.38069 0.791726 0)
(3 3.0059e-15 0)
(3 2.0429e-15 0)
(3 7.18656e-16 0)
(3 5.05929e-16 0)
(3 2.06708e-16 0)
(3 -2.43939e-15 0)
(3 -4.17217e-15 0)
(3 -3.94043e-15 0)
(3 -4.30974e-15 0)
(3 -3.81712e-15 0)
(3 -1.41099e-15 0)
(3 3.24282e-13 0)
(3 2.60232e-12 0)
(3 2.2592e-11 0)
(3 6.77673e-11 0)
(3 -1.74692e-09 0)
(3 -4.77991e-08 0)
(3 -1.32128e-06 0)
(3 -1.50077e-06 0)
(2.99999 1.71354e-05 0)
(2.99869 0.00271939 0)
(2.9605 0.0588544 0)
(2.77063 0.337844 0)
(2.56996 0.622445 0)
(3 8.81067e-16 0)
(3 -8.17744e-18 0)
(3 -1.04137e-15 0)
(3 -5.20281e-16 0)
(3 -8.95063e-16 0)
(3 -1.47198e-15 0)
(3 -1.65784e-15 0)
(3 -1.63535e-15 0)
(3 -1.57069e-15 0)
(3 -8.35254e-16 0)
(3 -6.76165e-16 0)
(3 -1.21386e-15 0)
(3 2.01085e-14 0)
(3 9.50551e-13 0)
(3 1.73735e-11 0)
(3 1.32579e-11 0)
(3 3.132e-11 0)
(3 -2.02753e-08 0)
(3 -3.65844e-07 0)
(3 -5.54261e-07 0)
(3 1.54646e-06 0)
(2.99926 0.00127648 0)
(2.97574 0.0434951 0)
(2.87208 0.226135 0)
(3 6.2285e-16 0)
(3 1.08685e-15 0)
(3 1.64475e-15 0)
(3 9.66173e-16 0)
(3 -3.83909e-16 0)
(3 7.36788e-17 0)
(3 -3.47506e-16 0)
(3 -4.57199e-16 0)
(3 -3.24125e-16 0)
(3 1.68718e-15 0)
(3 1.7877e-15 0)
(3 9.71227e-16 0)
(3 2.2656e-16 0)
(3 -6.49988e-16 0)
(3 8.01983e-13 0)
(3 3.03338e-12 0)
(3 2.47098e-11 0)
(3 6.55193e-11 0)
(3 -1.9522e-08 0)
(3 -1.07249e-07 0)
(3 -1.76448e-07 0)
(3 -3.56673e-06 0)
(2.99958 0.000949362 0)
(2.99504 0.0122327 0)
(3 -6.21216e-16 0)
(3 -1.23575e-15 0)
(3 -9.55596e-16 0)
(3 -8.29618e-16 0)
(3 -9.69953e-17 0)
(3 2.44572e-16 0)
(3 -8.11722e-17 0)
(3 -6.04516e-16 0)
(3 -2.81904e-16 0)
(3 3.01235e-17 0)
(3 7.10017e-16 0)
(3 9.13426e-16 0)
(3 5.05054e-16 0)
(3 1.38424e-16 0)
(3 4.20361e-15 0)
(3 1.07569e-13 0)
(3 1.67523e-12 0)
(3 7.8816e-12 0)
(3 -4.27467e-11 0)
(3 -8.31762e-09 0)
(3 -3.90179e-08 0)
(3 -7.0728e-07 0)
(3 4.80943e-06 0)
(3 -5.42327e-05 0)
(3 -3.15504e-15 0)
(3 -3.13218e-15 0)
(3 -2.78389e-15 0)
(3 -1.35583e-15 0)
(3 -5.66165e-16 0)
(3 -9.42483e-16 0)
(3 -4.64601e-16 0)
(3 -6.9827e-17 0)
(3 4.65679e-16 0)
(3 1.62294e-16 0)
(3 -7.42589e-17 0)
(3 4.46339e-16 0)
(3 1.18031e-15 0)
(3 2.39808e-15 0)
(3 1.94561e-15 0)
(3 1.82113e-15 0)
(3 2.42039e-14 0)
(3 8.02013e-13 0)
(3 3.96552e-13 0)
(3 -4.43382e-11 0)
(3 -3.74167e-09 0)
(3 -5.20084e-08 0)
(3 -1.21985e-07 0)
(3 -1.06773e-05 0)
(3 -2.44701e-15 0)
(3 -2.10158e-15 0)
(3 -1.08771e-15 0)
(3 1.83249e-16 0)
(3 3.05848e-16 0)
(3 -1.76927e-16 0)
(3 -2.50573e-16 0)
(3 7.23002e-16 0)
(3 1.69375e-15 0)
(3 1.84695e-15 0)
(3 1.08076e-15 0)
(3 5.73452e-16 0)
(3 2.60229e-16 0)
(3 1.94771e-16 0)
(3 -6.70884e-16 0)
(3 -5.77905e-15 0)
(3 5.0603e-17 0)
(3 -6.05134e-13 0)
(3 -7.15649e-13 0)
(3 1.33387e-10 0)
(3 1.72034e-09 0)
(3 7.8819e-08 0)
(3 1.23938e-06 0)
(3 -1.242e-06 0)
(3 -8.38999e-16 0)
(3 -5.83897e-16 0)
(3 -9.60204e-17 0)
(3 6.75614e-16 0)
(3 1.56166e-15 0)
(3 1.24302e-15 0)
(3 1.01902e-15 0)
(3 1.80934e-15 0)
(3 2.05986e-15 0)
(3 1.97678e-15 0)
(3 9.06759e-16 0)
(3 -3.05712e-16 0)
(3 -1.30671e-15 0)
(3 -1.41362e-15 0)
(3 -2.51572e-15 0)
(3 -1.63281e-13 0)
(3 -2.24181e-12 0)
(3 -2.24822e-12 0)
(3 1.05054e-10 0)
(3 1.32967e-08 0)
(3 6.39684e-08 0)
(3 9.32378e-08 0)
(3 5.43289e-06 0)
(2.99997 -6.17088e-05 0)
(3 -6.08796e-16 0)
(3 -8.40353e-16 0)
(3 -8.11694e-16 0)
(3 -7.43509e-16 0)
(3 -3.11449e-16 0)
(3 -4.13703e-17 0)
(3 5.96478e-16 0)
(3 9.72841e-16 0)
(3 1.07095e-15 0)
(3 9.2749e-16 0)
(3 8.24666e-16 0)
(3 2.43071e-16 0)
(3 -1.75289e-15 0)
(3 -3.76466e-15 0)
(3 -8.06035e-13 0)
(3 -3.35949e-12 0)
(3 -2.4629e-11 0)
(3 -2.65862e-11 0)
(3 1.75771e-08 0)
(3 1.78794e-07 0)
(3 2.77201e-07 0)
(3 6.05467e-07 0)
(2.9997 -0.000634774 0)
(2.98999 -0.0190506 0)
(3 1.19786e-15 0)
(3 -1.7822e-15 0)
(3 -2.07643e-15 0)
(3 -2.23279e-15 0)
(3 -2.86393e-15 0)
(3 -2.56235e-15 0)
(3 -1.59635e-15 0)
(3 -1.79703e-15 0)
(3 -1.26965e-15 0)
(3 -6.03618e-16 0)
(3 -5.4067e-17 0)
(3 -1.60006e-16 0)
(3 -1.80944e-14 0)
(3 -8.4324e-13 0)
(3 -1.58915e-11 0)
(3 -1.3156e-11 0)
(3 -1.11979e-10 0)
(3 2.39037e-08 0)
(3 2.8161e-07 0)
(3 5.35171e-07 0)
(3 2.00093e-06 0)
(2.99931 -0.00149245 0)
(2.97892 -0.033954 0)
(2.83666 -0.259035 0)
(3 2.18539e-16 0)
(3 2.03701e-16 0)
(3 -1.86509e-15 0)
(3 -2.92626e-15 0)
(3 -2.54639e-15 0)
(3 -2.08763e-15 0)
(3 -1.83896e-15 0)
(3 -2.30362e-15 0)
(3 -3.79966e-15 0)
(3 -3.34636e-15 0)
(3 -3.39387e-15 0)
(3 -3.00938e-13 0)
(3 -2.57666e-12 0)
(3 -2.34307e-11 0)
(3 -5.53623e-11 0)
(3 1.85603e-09 0)
(3 4.36966e-08 0)
(3 1.20838e-06 0)
(3 1.27346e-06 0)
(3 2.07091e-06 0)
(2.9984 -0.00338455 0)
(2.96819 -0.0504673 0)
(2.75553 -0.35154 0)
(2.53779 -0.637758 0)
(3 -1.27912e-15 0)
(3 2.91561e-16 0)
(3 9.4236e-16 0)
(3 4.51747e-16 0)
(3 1.97379e-16 0)
(3 7.03549e-16 0)
(3 -4.84867e-16 0)
(3 -5.56393e-15 0)
(3 -7.72987e-15 0)
(3 -4.29001e-14 0)
(3 -5.49198e-13 0)
(3 -1.79277e-11 0)
(3 -1.50764e-11 0)
(3 -2.32818e-10 0)
(3 4.81339e-09 0)
(3 7.37601e-08 0)
(3 2.31799e-06 0)
(3 4.81717e-06 0)
(2.99996 -5.21339e-05 0)
(2.9935 -0.010724 0)
(2.94409 -0.0963564 0)
(2.70314 -0.427081 0)
(2.45578 -0.749588 0)
(2.37447 -0.776681 0)
(3 -1.97788e-15 0)
(3 -2.00801e-16 0)
(3 1.7795e-15 0)
(3 3.09452e-15 0)
(3 3.90222e-15 0)
(3 1.19255e-15 0)
(3 -4.19976e-14 0)
(3 -1.59272e-13 0)
(3 -5.40406e-13 0)
(3 -3.77038e-12 0)
(3 -7.91731e-12 0)
(3 -1.07846e-10 0)
(3 1.32746e-09 0)
(3 3.7092e-08 0)
(3 3.9669e-07 0)
(3 7.97386e-07 0)
(3.00001 1.47775e-05 0)
(2.99937 -0.0012033 0)
(2.98913 -0.0200815 0)
(2.84155 -0.217228 0)
(2.65388 -0.491015 0)
(2.43524 -0.74677 0)
(2.31545 -0.889402 0)
(2.29877 -0.865986 0)
(3 -1.58119e-15 0)
(3 -1.37739e-15 0)
(3 -5.31519e-17 0)
(3 -1.06321e-15 0)
(3 -1.65372e-14 0)
(3 -2.7822e-13 0)
(3 -8.91215e-13 0)
(3 -1.91177e-12 0)
(3 -1.42207e-11 0)
(3 -1.99905e-11 0)
(3 -5.11699e-11 0)
(3 1.59327e-08 0)
(3 1.57929e-07 0)
(3 3.5448e-06 0)
(3 1.4072e-06 0)
(3 -5.13867e-06 0)
(2.99764 -0.00381924 0)
(2.94028 -0.0808516 0)
(2.81344 -0.289538 0)
(2.4536 -0.711072 0)
(2.35314 -0.825528 0)
(2.32437 -0.841602 0)
(2.31895 -0.842721 0)
(2.31675 -0.839857 0)
(3 -8.43516e-15 0)
(3 -7.38077e-15 0)
(3 -1.51843e-14 0)
(3 -1.15778e-12 0)
(3 -1.89402e-12 0)
(3 -2.36248e-12 0)
(3 -3.08354e-12 0)
(3 -4.47054e-12 0)
(3 -6.95974e-11 0)
(3 5.35113e-10 0)
(3 1.21217e-08 0)
(3 1.70911e-06 0)
(3 1.67652e-06 0)
(3.00001 1.63177e-05 0)
(2.99963 -0.000480679 0)
(2.98422 -0.0225858 0)
(2.90276 -0.150405 0)
(2.56784 -0.549704 0)
(2.43657 -0.721639 0)
(2.35456 -0.80379 0)
(2.32161 -0.848304 0)
(2.31347 -0.854028 0)
(2.32085 -0.849911 0)
(2.32774 -0.837102 0)
(3 -4.14914e-14 0)
(3 8.28969e-14 0)
(3 -2.16194e-11 0)
(3 -1.58398e-11 0)
(3 -1.66395e-11 0)
(3 2.69971e-10 0)
(3 5.32174e-10 0)
(3 4.90231e-10 0)
(3 9.30259e-09 0)
(3 3.52945e-07 0)
(3 3.79482e-06 0)
(3.00001 1.05665e-05 0)
(2.99997 -1.22229e-05 0)
(2.99621 -0.00578071 0)
(2.94668 -0.0695842 0)
(2.70975 -0.366428 0)
(2.55815 -0.596032 0)
(2.31696 -0.842653 0)
(2.26552 -0.89916 0)
(2.28427 -0.875903 0)
(2.3124 -0.853694 0)
(2.32551 -0.85145 0)
(2.3359 -0.849936 0)
(2.33818 -0.841595 0)
(3 8.66092e-13 0)
(3 -1.46265e-10 0)
(3 -3.16835e-10 0)
(3 8.39855e-10 0)
(3 3.11266e-10 0)
(3 3.41929e-08 0)
(3 8.04884e-08 0)
(3 3.53313e-07 0)
(3 6.008e-06 0)
(3 5.64589e-06 0)
(3.00002 5.2719e-05 0)
(2.99893 -0.00138219 0)
(2.96714 -0.0414759 0)
(2.81449 -0.228707 0)
(2.61992 -0.518633 0)
(2.30937 -0.873871 0)
(2.26292 -0.885999 0)
(2.30788 -0.876615 0)
(2.3101 -0.872374 0)
(2.32401 -0.863836 0)
(2.34491 -0.851733 0)
(2.35008 -0.845903 0)
(2.35 -0.840322 0)
(2.34744 -0.840779 0)
(3 1.92758e-10 0)
(3 -2.94313e-09 0)
(3 8.33842e-08 0)
(3 1.29664e-07 0)
(3 5.28269e-07 0)
(3 6.41483e-07 0)
(3 5.54082e-06 0)
(3 5.68053e-06 0)
(3.00002 4.60274e-05 0)
(2.99944 -0.000574679 0)
(2.98208 -0.0236738 0)
(2.88391 -0.158007 0)
(2.65093 -0.465933 0)
(2.36669 -0.811128 0)
(2.36346 -0.837251 0)
(2.30911 -0.878399 0)
(2.31389 -0.877167 0)
(2.32939 -0.872307 0)
(2.34832 -0.85156 0)
(2.35432 -0.8445 0)
(2.35964 -0.844175 0)
(2.36112 -0.841274 0)
(2.35908 -0.842313 0)
(2.35342 -0.841461 0)
(3 1.27146e-09 0)
(3 1.00549e-06 0)
(3 2.02108e-06 0)
(3 1.38003e-06 0)
(3 8.45465e-06 0)
(2.99999 -2.35571e-05 0)
(3.00004 8.93348e-05 0)
(2.99928 -0.00109213 0)
(2.98902 -0.0198396 0)
(2.91991 -0.139235 0)
(2.68214 -0.48819 0)
(2.51485 -0.715036 0)
(2.33985 -0.892002 0)
(2.26752 -0.97417 0)
(2.27334 -0.954482 0)
(2.30488 -0.912784 0)
(2.33255 -0.876379 0)
(2.34664 -0.862997 0)
(2.35453 -0.851498 0)
(2.36058 -0.841275 0)
(2.36044 -0.842191 0)
(2.35964 -0.845939 0)
(2.35843 -0.845665 0)
(2.35243 -0.84752 0)
(3 -3.8983e-07 0)
(3.00002 2.28922e-05 0)
(2.99994 -3.32269e-05 0)
(2.99984 -0.000249398 0)
(2.99868 -0.00177719 0)
(2.99106 -0.0132109 0)
(2.96669 -0.0516967 0)
(2.89596 -0.176514 0)
(2.76965 -0.415847 0)
(2.6123 -0.686186 0)
(2.43572 -0.859425 0)
(2.33273 -0.926941 0)
(2.30009 -0.916319 0)
(2.30327 -0.902324 0)
(2.30623 -0.894538 0)
(2.34294 -0.861044 0)
(2.35732 -0.859334 0)
(2.35879 -0.856381 0)
(2.35762 -0.849313 0)
(2.35464 -0.848322 0)
(2.35334 -0.847133 0)
(2.35373 -0.847238 0)
(2.35007 -0.848711 0)
(2.34571 -0.851632 0)
(2.99849 -0.00164025 0)
(2.99136 -0.010516 0)
(2.96016 -0.0486182 0)
(2.90041 -0.134451 0)
(2.80827 -0.27066 0)
(2.67093 -0.471142 0)
(2.5437 -0.67779 0)
(2.38127 -0.902233 0)
(2.21469 -1.07414 0)
(2.16756 -1.10129 0)
(2.14919 -1.04409 0)
(2.18756 -1.0015 0)
(2.24214 -0.951594 0)
(2.3047 -0.899715 0)
(2.32883 -0.858274 0)
(2.34792 -0.827153 0)
(2.35628 -0.833834 0)
(2.35661 -0.84262 0)
(2.35315 -0.846056 0)
(2.34855 -0.846316 0)
(2.34694 -0.846054 0)
(2.34477 -0.846282 0)
(2.34226 -0.84723 0)
(2.34002 -0.849462 0)
(2.93133 -0.0358827 0)
(2.85599 -0.035312 0)
(2.7499 -0.159529 0)
(2.67015 -0.241549 0)
(2.58291 -0.341051 0)
(2.49151 -0.451981 0)
(2.4306 -0.541417 0)
(2.34874 -0.625224 0)
(2.31061 -0.723971 0)
(2.25759 -0.800039 0)
(2.25074 -0.854983 0)
(2.28429 -0.887848 0)
(2.32299 -0.898739 0)
(2.33509 -0.886239 0)
(2.3459 -0.881316 0)
(2.34848 -0.865434 0)
(2.34891 -0.858791 0)