/*--------------------------------*- C++ -*----------------------------------*\
  =========                 |
  \\      /  F ield         | OpenFOAM: The Open Source CFD Toolbox
   \\    /   O peration     | Website:  https://openfoam.org
    \\  /    A nd           | Version:  7
     \\/     M anipulation  |
\*---------------------------------------------------------------------------*/
FoamFile
{
    version     2.0;
    format      ascii;
    class       volScalarField;
    location    "1.7";
    object      p;
}
// * * * * * * * * * * * * * * * * * * * * * * * * * * * * * * * * * * * * * //

dimensions      [1 -1 -2 0 0 0 0];

internalField   nonuniform List<scalar> 
4608
(
1
1
1
1
1
1
1
1
1
1
1
1
1
1
1
1
1
1
1
1
1
1
1
1
1
1
1
1
1
1
1
1
1
1
1
1
1
1
1
1
1
1
1
1
1
1
1
1
1
1
1
1
1
1
1
1
1
1
1
1
1
1
1
1
1
1
1
1
1
1
1
1
1
1
1
1
1
1
1
1
1
1
1
1
1
1
1
1
1
1
1
1
1
1
1
1
1
1
1
1
1
1
1
1
1
1
1
1
1
1
1
1
1
1
1
1
1
1
1
1
1
1
1
1
1
1
1
1
1
1
1
1
1
1
1
1
1
1
1
1
1
1
1
1
1
1
1
1
1
1
1
1
1
1
1
1
1
1
1
1
1
1
1
1
1
1
1
1
1
1
1
1
1
1
1
1
1
1
1
1
1
1
1
1
1
1
1
1
1
1
1
1
1
1
1
1
1
1
1
1
1
1
1
1
1
1
1
1
1
1
1
1
1
1
1
1
1
1
1
1
1
1
1
1
1
1
1
1
1
1
1
1
1
1
1
1
1
1
1
1
1
1
1
1
1
1
1
1
1
1
1
1
1
1
1
1
1
1
1
1
1
1
1
1
1
1
1
1
1
1
1
1
1
1
1
1
1
1
1
1
1
1
1
1
1
1
1
1
1
1
1
1
1
1
1
1
1
1
1
1
1
1
1
1
1
1
1
1
1
1
1
1
1
1
1
1
1
1
1
1
1
1
1
1
1
1
1
1
1
1
1
1
1
1
1
1
1
1
1
1
1
1
1
1
1
1
1
1
1
1
1
1
1
1
1
1
1
1
1
1
1
1
1
1
1
1
1
1
1
1
1
1
1
1
1
1
1
1
1
1
1
1
1
1
1
1
1
1
1
1
1
1
1
1
1
1
1
1
1
1
1
1
1
1
1
1
1
1
1
1
1
1
1
1
1
1
1
1
1
1
1
1
1
1
1
1
1
1
1
1
1
1
1
1
1
1
1
1
1
1
1
1
1
1
1
1
1
1
1
1
1
1
1
1
1
1
1
1
1
1
1
1
1
1
1
1
1
1
1
1
1
1
1
1
1
1
1
1
1
1
1
1
1
1
1
1
1
1
1
1
1
1
1
1
1
1
1
1
1
1
1
1
1
1
1
1
1
1
1
1
1
1
1
1
1
1
1
1
1
1
1
1
1
1
1
1
1
1
1
1
1
1
1
1
1
1
1
1
1
1
1
1
1
1
1
1
1
1
1
1
1
1
1
1
1
1
1
1
1
1
1
1
1
1
1
1
1
1
1
1
1
1
1
1
1
1
1
1
1
1
1
1
1
1
1
1
1
1
1
1
1
1
1
1
1
1
1
1
1
1
1
1
1
1
1
1
1
1
1
1
1
1
1
1
1
1
1
1
1
1
1
1
1
1
1
1
1
1
1
1
1
1
1
1
1
1
1
1
1
1
1
1
1
1
1
1
1
1
1
1
1
1
1
1
1
1
1
1
1
1
1
1
1
1
1
1
1
1
1
1
1
1
1
1
1
1
1
1
1
1
1
1
1
1
1
1
1
1
1
1
1
1
1
1
1
1
1
1
1
1
1
1
1
1
1
1
1
1
1
1
1
1
1
1
1
1
1
1
1
1
1
1
1
1
1
1
1
1
1
1
1
1
1
1
1
1
1
1
1
1
1
1
1
1
1
1
1
1
1
1
1
1
1
1
1
1
1
1
1
1
1
1
1
1
1
1
1
1
1.29071
1.76788
2.33434
2.96081
3.6504
4.27496
4.84136
5.3168
5.35972
5.1584
4.72718
4.21524
3.803
3.6782
3.57629
3.57705
3.60829
3.64712
3.69136
3.73638
3.7529
3.75554
3.75486
3.76641
1.00296
1.01694
1.08623
1.21868
1.47123
1.85739
2.3739
2.9974
3.54444
3.83761
4.05708
4.04372
3.93604
3.87155
3.78503
3.72139
3.69429
3.67192
3.67968
3.70967
3.73848
3.74714
3.75043
3.76074
1
0.999946
1.00022
1.00029
1.00348
1.02452
1.1068
1.36863
1.97292
3.00897
3.84229
4.31729
4.35547
4.27099
4.11003
3.89006
3.72408
3.65004
3.65153
3.67463
3.71037
3.73416
3.74377
3.7532
1
0.999998
0.999997
0.999998
0.999987
1.00004
0.999902
1.00196
1.03251
1.2974
2.02142
3.20312
3.95516
4.0652
4.04689
4.02064
3.89655
3.74014
3.70082
3.69648
3.69867
3.71271
3.73971
3.76172
1
1
1
1
0.999999
0.999999
0.999987
0.999989
0.999902
1.00129
1.04447
1.34177
2.2607
3.22228
3.99619
4.12854
4.08835
3.96267
3.85275
3.76113
3.7151
3.70967
3.72423
3.75653
1
1
1
1
1
1
1
0.999999
0.999991
0.999991
0.999917
1.00245
1.0848
1.49807
2.52057
3.41005
3.94024
3.96852
3.92028
3.85399
3.78054
3.72837
3.70969
3.71968
1
1
1
1
1
1
1
1
1
0.999999
0.999993
0.99998
1.00008
1.0088
1.15675
1.79712
2.9865
3.61281
3.79127
3.83367
3.8224
3.75988
3.70706
3.6968
1
1
1
1
1
1
1
1
1
1
1
0.999997
0.999997
0.999971
1.00107
1.03768
1.35569
2.25827
3.31326
3.81286
3.84244
3.81136
3.75069
3.72554
1
1
1
1
1
1
1
1
1
1
1
1
1
0.999995
0.999995
1
1.00711
1.14608
1.74199
2.77662
3.56579
3.82438
3.8159
3.76995
1
1
1
1
1
1
1
1
1
1
1
1
1
1
0.999999
0.999999
0.999979
1.00154
1.03947
1.42185
2.36206
3.39133
3.58591
3.67783
1
1
1
1
1
1
1
1
1
1
1
1
1
1
1
1
0.999996
0.99999
1.00012
1.01782
1.19396
1.99537
3.06487
3.67641
1
1
1
1
1
1
1
1
1
1
1
1
1
1
1
1
1
0.999998
0.999998
1.00003
1.00424
1.12132
1.72401
2.90781
1
1
1
1
1
1
1
1
1
1
1
1
1
1
1
1
1
1
0.999999
0.999999
1
1.00278
1.06513
1.53354
1
1
1
1
1
1
1
1
1
1
1
1
1
1
1
1
1
1
1
1
1
0.999998
1.00114
1.02812
1
1
1
1
1
1
1
1
1
1
1
1
1
1
1
1
1
1
1
1
1
0.999999
1
0.999979
1
1
1
1
1
1
1
1
1
1
1
1
1
1
1
1
1
1
1
1
1
1
1
0.999988
1
1
1
1
1
1
1
1
1
1
1
1
1
1
1
1
1
1
1
1
1
1
1
0.99999
1
1
1
1
1
1
1
1
1
1
1
1
1
1
1
1
1
1
1
1
1
0.999999
1
0.999983
1
1
1
1
1
1
1
1
1
1
1
1
1
1
1
1
1
1
1
1
1
0.999997
1.00114
1.02792
1
1
1
1
1
1
1
1
1
1
1
1
1
1
1
1
1
1
0.999999
0.999999
1
1.00277
1.06522
1.53217
1
1
1
1
1
1
1
1
1
1
1
1
1
1
1
1
1
0.999998
0.999998
1.00003
1.00423
1.12138
1.72352
2.90793
1
1
1
1
1
1
1
1
1
1
1
1
1
1
1
1
0.999996
0.99999
1.00012
1.01781
1.19397
1.99561
3.06385
3.67665
1
1
1
1
1
1
1
1
1
1
1
1
1
1
0.999999
0.999999
0.999979
1.00154
1.03948
1.42175
2.36241
3.39084
3.58565
3.67788
1
1
1
1
1
1
1
1
1
1
1
1
1
0.999995
0.999995
1
1.00711
1.14608
1.74195
2.77659
3.56608
3.82424
3.81579
3.77006
1
1
1
1
1
1
1
1
1
1
1
0.999997
0.999997
0.999971
1.00107
1.03768
1.35569
2.25829
3.31318
3.81288
3.84251
3.81135
3.75062
3.72556
1
1
1
1
1
1
1
1
1
0.999999
0.999993
0.99998
1.00008
1.0088
1.15675
1.79712
2.9865
3.61281
3.79127
3.83367
3.82242
3.75988
3.70704
3.69679
1
1
1
1
1
1
1
0.999999
0.999991
0.999991
0.999917
1.00245
1.0848
1.49808
2.52057
3.41005
3.94024
3.96852
3.92028
3.85399
3.78053
3.72838
3.70969
3.71969
1
1
1
1
0.999999
0.999999
0.999987
0.999989
0.999902
1.00129
1.04447
1.34177
2.2607
3.22228
3.99619
4.12854
4.08835
3.96267
3.85275
3.76113
3.7151
3.70967
3.72423
3.75654
1
0.999998
0.999997
0.999998
0.999987
1.00004
0.999902
1.00196
1.03251
1.2974
2.02142
3.20312
3.95516
4.0652
4.04689
4.02064
3.89656
3.74014
3.70082
3.69648
3.69867
3.7127
3.73971
3.76172
1
0.999946
1.00022
1.00029
1.00348
1.02452
1.1068
1.36863
1.97292
3.00897
3.84229
4.31729
4.35547
4.27099
4.11003
3.89006
3.72408
3.65004
3.65153
3.67463
3.71037
3.73416
3.74377
3.7532
1.00296
1.01694
1.08623
1.21868
1.47123
1.85739
2.3739
2.9974
3.54444
3.83761
4.05708
4.04372
3.93604
3.87155
3.78503
3.72139
3.69429
3.67192
3.67968
3.70967
3.73848
3.74714
3.75043
3.76074
1.29071
1.76788
2.33434
2.96081
3.6504
4.27496
4.84136
5.3168
5.35972
5.1584
4.72718
4.21524
3.803
3.6782
3.57629
3.57705
3.60829
3.64712
3.69136
3.73638
3.7529
3.75554
3.75486
3.76641
2.66084
1.69961
1.15012
0.884858
0.687676
0.625089
0.647814
0.733846
0.818974
0.869283
0.92038
0.946457
0.950467
0.968051
1.02889
1.07016
1.07109
1.06272
1.0458
1.04641
1.05139
1.06194
1.07572
1.15087
1.53236
2.74671
4.58325
6.73476
8.86317
9.40676
8.71882
7.57046
6.83947
6.50397
6.3408
6.15862
5.95591
5.74576
5.52326
5.28403
5.04062
4.81903
4.63057
4.46938
4.32697
4.19374
4.06076
3.92573
3.78229
3.6297
3.46968
3.32455
3.21614
3.13366
3.06288
2.99627
2.9336
2.86706
2.78743
2.68152
2.55529
2.42941
2.33397
2.29384
2.26342
2.2309
2.19233
2.15168
2.10293
2.03827
1.93829
1.85848
1.86313
1.92342
2.14178
2.58526
3.15459
3.67335
4.10035
4.36222
4.58365
4.69322
4.65292
4.53783
4.33438
4.10818
3.9764
3.85925
3.80222
3.76281
3.71282
3.65936
3.59993
3.51003
3.37135
3.20549
3.37263
2.76105
2.15769
1.80726
1.53017
1.21376
1.08182
1.06067
1.01542
0.96255
0.923512
0.900472
0.900534
0.912812
0.958733
1.00603
1.01301
1.01378
1.0083
1.01303
1.0205
1.03432
1.13374
1.66354
2.56058
3.09115
3.60342
4.29076
5.63778
6.86683
7.50725
7.38176
7.01159
6.6739
6.41376
6.20396
6.00403
5.79892
5.58335
5.3474
5.10584
4.88941
4.70768
4.54831
4.40581
4.2713
4.13585
3.99602
3.85189
3.7027
3.54803
3.40429
3.29132
3.20249
3.12499
3.05405
2.9865
2.9163
2.83563
2.73441
2.61661
2.50128
2.40699
2.34469
2.30119
2.2637
2.22285
2.18568
2.14134
2.08263
2.00885
2.00263
2.08173
2.29411
2.61363
2.85201
3.04195
3.29388
3.5737
3.76493
3.90208
4.03426
4.12003
4.16802
4.15694
4.11069
4.03056
3.94121
3.86154
3.79936
3.74429
3.69195
3.62184
3.52196
3.40918
3.25293
3.64406
3.33634
2.85057
2.3419
2.01461
1.70726
1.38254
1.21825
1.11587
1.01995
0.965662
0.923365
0.909864
0.914179
0.931906
0.961987
0.972837
0.975714
0.984096
0.999639
1.0157
1.12119
1.77731
2.67612
3.25107
3.34048
3.33012
3.34705
3.60848
4.65538
6.18808
7.11333
7.18361
6.94095
6.46293
6.12271
5.89639
5.68051
5.46221
5.23019
4.99885
4.79639
4.61902
4.45718
4.31038
4.17526
4.04745
3.92089
3.78876
3.64686
3.49651
3.35225
3.23476
3.14642
3.06642
2.98866
2.91287
2.83912
2.76274
2.6755
2.57345
2.47123
2.38468
2.30909
2.24276
2.19319
2.1657
2.14713
2.13524
2.12651
2.16986
2.33702
2.60374
2.83212
2.99933
3.05915
3.08519
3.09469
3.13174
3.21121
3.31199
3.49391
3.68657
3.89214
4.0137
4.06249
4.05806
4.01249
3.93714
3.83987
3.73302
3.64957
3.56415
3.46658
3.38699
3.28178
3.72872
3.59961
3.31794
2.86686
2.45943
2.19562
1.852
1.51968
1.38824
1.27936
1.18955
1.11932
1.04775
0.973974
0.964199
0.96263
0.953445
0.950203
0.956438
0.971755
1.11683
1.78461
2.857
3.15188
3.27147
3.295
3.21081
3.10378
3.0315
3.13412
3.75146
5.19934
6.43202
6.50891
6.42619
6.17647
5.90831
5.63769
5.39486
5.18609
5.01221
4.82375
4.62147
4.43248
4.26723
4.12667
4.00935
3.90751
3.79734
3.65649
3.49251
3.34517
3.22533
3.13702
3.05933
2.97811
2.89406
2.81655
2.73795
2.65306
2.56156
2.46667
2.38543
2.31007
2.24326
2.19002
2.1749
2.17013
2.2387
2.42343
2.7049
3.02121
3.19127
3.24473
3.22556
3.19901
3.12903
3.05032
2.99005
2.93362
2.91516
2.95419
3.05627
3.25411
3.51347
3.76348
3.89203
3.8949
3.87111
3.82423
3.72613
3.61793
3.52421
3.4504
3.40197
3.3164
3.75524
3.71755
3.57857
3.30709
2.90226
2.56241
2.30166
1.98372
1.64893
1.49554
1.40127
1.3249
1.231
1.08988
0.981568
0.959703
0.955844
0.952544
0.979997
1.229
1.91984
2.97773
3.27033
3.21132
3.15114
3.08485
3.00329
2.92857
2.87638
2.79459
2.81048
3.10243
4.19023
5.47564
6.10759
6.12986
5.95403
5.64992
5.39162
5.1717
4.96087
4.75138
4.5525
4.37805
4.23575
4.11343
3.99375
3.87041
3.7369
3.5855
3.42053
3.29746
3.23126
3.16621
3.08639
2.99954
2.90794
2.81379
2.70099
2.58942
2.53664
2.49106
2.43431
2.35694
2.29966
2.23947
2.25172
2.3675
2.69556
3.01031
3.32243
3.43997
3.42141
3.37064
3.2883
3.19271
3.11369
3.03019
2.94526
2.87005
2.83452
2.78987
2.77715
2.82418
2.96735
3.23091
3.47905
3.64882
3.78399
3.79067
3.7397
3.59728
3.47912
3.4269
3.40571
3.33672
3.74521
3.74208
3.70792
3.56498
3.30817
2.93872
2.61097
2.38775
2.12378
1.7861
1.59281
1.54167
1.47999
1.36099
1.15227
1.04516
1.04707
1.09634
1.4043
2.21315
3.09883
3.41244
3.35004
3.20008
3.05381
2.95116
2.87641
2.80554
2.73908
2.65389
2.5704
2.49718
2.62102
3.28306
4.47317
5.43596
5.59105
5.54528
5.3559
5.14073
4.92334
4.69959
4.4972
4.32241
4.18727
4.08461
3.98821
3.87258
3.72964
3.5638
3.40676
3.27507
3.17557
3.10345
3.04142
2.97959
2.8995
2.7874
2.65978
2.56735
2.49412
2.43771
2.40031
2.37946
2.36389
2.40997
2.61912
3.01027
3.31522
3.50099
3.5938
3.58587
3.54255
3.44613
3.3196
3.2042
3.11736
3.04308
2.96843
2.88869
2.81846
2.76926
2.7375
2.7134
2.70563
2.76477
2.89794
3.04877
3.23825
3.42602
3.50238
3.46815
3.4219
3.42028
3.45439
3.41831
3.70846
3.72633
3.71666
3.67817
3.53417
3.29556
2.97147
2.63394
2.44646
2.22706
1.95564
1.6854
1.62324
1.56811
1.43468
1.26938
1.30731
1.70578
2.66821
3.46419
3.68386
3.57162
3.37264
3.18913
3.0397
2.93552
2.84201
2.75078
2.65684
2.56783
2.46859
2.40101
2.31067
2.32688
2.62096
3.51824
4.6043
5.2729
5.24613
5.08187
4.85236
4.6268
4.43408
4.28032
4.15529
4.04907
3.94525
3.82246
3.67984
3.52417
3.38016
3.25236
3.15383
3.09106
3.0359
2.97089
2.88705
2.77522
2.63493
2.52957
2.4606
2.43993
2.43195
2.50996
2.72257
3.03843
3.38957
3.66555
3.6674
3.66919
3.64138
3.58043
3.50026
3.41195
3.32619
3.24247
3.15989
3.06568
2.96404
2.88096
2.81454
2.7674
2.72788
2.69545
2.67689
2.64851
2.6062
2.6155
2.6711
2.81795
3.00624
3.17937
3.32541
3.38087
3.43491
3.4162
3.71692
3.71624
3.71094
3.69081
3.63497
3.4917
3.27802
2.9966
2.65459
2.48058
2.29484
2.05151
1.80305
1.69845
1.62855
1.74099
2.3736
3.45873
4.15086
4.10828
3.93291
3.70094
3.47384
3.28108
3.1239
2.99428
2.85931
2.74451
2.63705
2.53796
2.42511
2.34395
2.25951
2.196
2.1223
2.20862
2.72755
3.76166
4.62755
4.83508
4.77884
4.62055
4.44918
4.2967
4.13956
3.97796
3.84431
3.7244
3.60411
3.47954
3.36104
3.25027
3.15056
3.06862
3.00207
2.93243
2.84617
2.7335
2.60336
2.52572
2.48994
2.51696
2.68671
3.13337
3.54266
3.82915
3.96066
3.92785
3.85647
3.74709
3.64141
3.55514
3.47254
3.39826
3.33156
3.26482
3.18766
3.08734
2.96533
2.86611
2.81513
2.77578
2.73443
2.70306
2.67772
2.63205
2.5767
2.48623
2.43219
2.45085
2.53604
2.70064
2.94189
3.13079
3.2373
3.26367
3.75883
3.75672
3.74653
3.72524
3.69231
3.62063
3.4781
3.26636
3.00244
2.71493
2.50846
2.31088
2.0796
1.98764
2.22624
3.13841
4.37984
4.79251
4.68087
4.39563
4.10811
3.86708
3.64379
3.43444
3.24941
3.08701
2.93159
2.79846
2.68102
2.55975
2.43668
2.33489
2.24764
2.15402
2.06966
1.97488
1.97442
2.2017
2.94738
3.90039
4.475
4.54871
4.49695
4.3252
4.13623
3.94524
3.76509
3.62316
3.51863
3.42807
3.34026
3.24432
3.14333
3.04541
2.96614
2.88351
2.79688
2.70776
2.6149
2.57869
2.65516
2.95633
3.45794
4.03058
4.16235
4.11155
4.04423
3.95749
3.84349
3.74191
3.65297
3.56477
3.47457
3.39956
3.33762
3.27541
3.19997
3.0991
2.97632
2.87168
2.81708
2.78181
2.74968
2.7213
2.69052
2.64455
2.57463
2.4773
2.38771
2.35365
2.35155
2.38247
2.47948
2.65693
2.833
3.01557
3.71827
3.74733
3.74129
3.73145
3.711
3.67639
3.60744
3.45965
3.26192
2.99955
2.77153
2.49594
2.53295
3.0557
4.28273
5.44204
5.60006
5.38299
5.0046
4.64425
4.33428
4.07112
3.83555
3.61965
3.42005
3.22396
3.02938
2.84699
2.69507
2.55915
2.45287
2.36415
2.27883
2.17408
2.06421
1.95282
1.88343
1.83037
1.90566
2.35911
3.23453
3.97873
4.25022
4.2442
4.13188
3.94137
3.73547
3.57745
3.46894
3.3814
3.30065
3.21234
3.12033
3.01833
2.9293
2.83891
2.79367
2.72258
2.73806
2.91969
3.37657
3.89231
4.32341
4.43632
4.40217
4.25765
4.08052
3.9348
3.82303
3.73784
3.6638
3.57909
3.4847
3.40459
3.34533
3.28422
3.21072
3.12252
3.00504
2.88017
2.82004
2.78761
2.76221
2.73615
2.70227
2.65869
2.59134
2.488
2.38616
2.33694
2.31519
2.29976
2.29909
2.32584
2.39762
2.57478
3.74709
3.73053
3.7146
3.7129
3.71298
3.69758
3.65749
3.57903
3.40901
3.23238
3.02769
3.21828
4.23709
5.7254
6.42189
6.32966
5.97585
5.5823
5.21807
4.88033
4.5648
4.27129
4.00548
3.76937
3.56027
3.3585
3.15748
2.96179
2.78098
2.60855
2.46497
2.35362
2.26328
2.17925
2.08778
1.99076
1.88635
1.80453
1.73434
1.74674
1.97711
2.61345
3.42613
3.9423
3.9841
3.92567
3.73075
3.54059
3.40549
3.31946
3.25483
3.18126
3.09758
2.99866
2.90979
2.84025
2.84116
2.96935
3.37168
3.90368
4.37162
4.5305
4.53569
4.47482
4.35618
4.229
4.10153
3.96547
3.84894
3.75812
3.67961
3.5938
3.50103
3.41326
3.34545
3.28454
3.21901
3.14276
3.03669
2.91677
2.83574
2.7942
2.76421
2.73292
2.69538
2.65286
2.59986
2.51479
2.41078
2.34374
2.30866
2.27799
2.2596
2.24451
2.23938
2.26116
3.39246
3.60134
3.77439
3.79937
3.78902
3.7447
3.68081
3.63521
3.53589
3.55782
4.19688
5.78096
7.27878
7.65787
7.40112
6.81073
6.25131
5.7945
5.41203
5.06543
4.74319
4.44443
4.17187
3.92029
3.6869
3.46378
3.24514
3.03567
2.84128
2.66783
2.52985
2.41846
2.30283
2.17895
2.06137
1.97338
1.89309
1.81149
1.73118
1.66925
1.62822
1.70373
2.08854
2.83447
3.51594
3.71149
3.66215
3.49287
3.35192
3.27718
3.21103
3.14883
3.07175
3.0028
2.93412
2.99599
3.30489
3.88602
4.40223
4.7622
4.87519
4.82375
4.67912
4.48835
4.31411
4.18247
4.05536
3.94929
3.86401
3.78142
3.6988
3.61445
3.52898
3.43883
3.35467
3.28231
3.21356
3.13692
3.04201
2.9415
2.86223
2.80864
2.76889
2.73124
2.68916
2.63853
2.57735
2.51157
2.43888
2.3722
2.32791
2.2926
2.25646
2.22052
2.19697
2.16486
2.57018
3.32497
3.73078
3.76443
3.72581
3.6918
3.68101
3.69849
3.97745
5.34047
7.64487
8.50952
8.35504
8.05488
7.63238
7.15222
6.62623
6.10218
5.6277
5.21723
4.86482
4.55369
4.27265
4.01399
3.77213
3.54601
3.3288
3.11767
2.91431
2.72768
2.56957
2.43359
2.31394
2.21074
2.11136
2.00824
1.91021
1.82083
1.7373
1.64953
1.59563
1.54426
1.55615
1.75406
2.31381
3.03556
3.40805
3.42397
3.3648
3.27688
3.16443
3.11758
3.07654
3.13421
3.3356
3.85917
4.49676
4.84695
4.8742
4.88002
4.87668
4.81643
4.69784
4.53568
4.35064
4.17209
4.02131
3.91613
3.84657
3.7811
3.70839
3.63254
3.55469
3.46438
3.36603
3.27735
3.20108
3.12686
3.04053
2.94806
2.8757
2.82135
2.77368
2.7276
2.67995
2.63196
2.58538
2.53479
2.46409
2.39755
2.35233
2.31739
2.2765
2.23297
2.19283
2.13088
1.41338
2.2559
3.27153
3.54012
3.57351
3.65587
3.9066
4.67251
6.52456
8.84797
9.93972
9.77496
9.03324
8.28799
7.81114
7.37388
6.86482
6.31243
5.79714
5.35843
4.99366
4.67537
4.37956
4.09937
3.8298
3.5754
3.36516
3.18831
2.99482
2.79675
2.63886
2.50651
2.37896
2.24304
2.12952
2.04367
1.9564
1.85214
1.75459
1.67209
1.59189
1.52662
1.49628
1.47156
1.54381
1.90081
2.5801
3.00172
3.16927
3.14774
3.12194
3.16205
3.43031
3.92313
4.51728
5.19119
5.43244
5.3283
5.13315
4.93423
4.7856
4.69773
4.62727
4.53955
4.4019
4.22196
4.04493
3.91957
3.8362
3.76682
3.69879
3.62872
3.56049
3.4856
3.38993
3.28424
3.19337
3.1114
3.0319
2.95626
2.89287
2.84109
2.7924
2.74288
2.69281
2.64133
2.56954
2.48613
2.43666
2.40016
2.36579
2.33448
2.29781
2.25511
2.20492
2.11686
1.0306
1.23401
1.99894
2.98689
3.48011
4.33227
5.73594
7.69474
9.26759
9.90302
9.90057
9.75536
9.3281
8.70044
8.09256
7.51673
6.95108
6.41093
5.92013
5.49534
5.12802
4.79497
4.4773
4.16714
3.87676
3.61912
3.3765
3.13374
2.99264
2.9125
2.79814
2.64355
2.48111
2.31763
2.18721
2.06067
1.9393
1.87269
1.82932
1.76365
1.67089
1.58039
1.50141
1.44318
1.41819
1.437
1.63446
2.09774
2.70539
2.99383
3.17613
3.79787
4.65495
5.16108
5.49757
5.58352
5.54681
5.35224
5.15106
4.98961
4.80327
4.66398
4.57561
4.50125
4.40233
4.25275
4.09635
3.98086
3.88104
3.7984
3.72371
3.65063
3.57188
3.48783
3.40233
3.31614
3.22294
3.13046
3.04306
2.96994
2.90961
2.86017
2.81639
2.77586
2.73467
2.67793
2.58989
2.48123
2.4181
2.39052
2.36912
2.3473
2.31913
2.28226
2.23045
2.11795
1.00059
1.01194
1.17614
1.93592
3.74175
6.08848
8.23299
9.97806
10.8919
10.4042
9.75122
9.59326
9.40955
8.98821
8.31656
7.59469
6.94796
6.3994
5.9243
5.50911
5.14131
4.81864
4.53469
4.25959
3.96529
3.66457
3.40202
3.18311
3.0028
2.86157
2.73213
2.57359
2.43249
2.36688
2.27008
2.1356
2.00552
1.9
1.79877
1.70459
1.60076
1.50379
1.45291
1.44004
1.41591
1.36967
1.384
1.4936
1.91784
2.85581
3.75066
4.88562
5.67256
6.02719
6.02959
5.90875
5.61754
5.31674
5.11751
4.97716
4.82648
4.69287
4.57859
4.4589
4.3445
4.23675
4.105
3.95495
3.84315
3.75859
3.691
3.64036
3.59279
3.53247
3.43809
3.30046
3.17236
3.09026
3.02251
2.96026
2.90919
2.86688
2.82742
2.78444
2.73087
2.66075
2.56782
2.47728
2.42409
2.39138
2.36502
2.34143
2.31538
2.28383
2.2419
2.13082
1.00058
1.01245
1.16877
1.97367
3.7365
5.96969
8.30711
9.98992
10.893
10.4921
9.8534
9.61971
9.38402
8.92191
8.242
7.52552
6.89211
6.36771
5.9328
5.54844
5.19144
4.85599
4.53873
4.23756
3.94309
3.63887
3.35942
3.18661
3.04741
2.8816
2.71974
2.57717
2.4485
2.30655
2.18482
2.08167
1.9891
1.89574
1.80196
1.70731
1.5944
1.49968
1.45253
1.42299
1.39123
1.36416
1.38064
1.49325
1.90012
2.75475
4.01222
4.95741
5.51084
6.02196
6.04858
5.83177
5.52299
5.30836
5.16368
5.03238
4.86701
4.71186
4.58143
4.45901
4.34246
4.22285
4.08573
3.94019
3.83326
3.76284
3.70813
3.65334
3.58666
3.50643
3.4149
3.29837
3.16406
3.0771
3.03556
2.99303
2.94799
2.90651
2.86584
2.81694
2.75227
2.66956
2.56817
2.47328
2.42725
2.40435
2.38392
2.36069
2.33668
2.31055
2.27334
2.15007
1.03033
1.23755
1.98408
3.02703
3.47242
4.25324
5.81399
7.70185
9.27436
9.92323
9.95594
9.7623
9.32671
8.68164
8.06436
7.49162
6.9282
6.38718
5.89805
5.47353
5.10853
4.78489
4.48621
4.2099
3.95184
3.6963
3.44099
3.20149
2.97619
2.79277
2.65037
2.53198
2.40514
2.26028
2.14526
2.08582
2.02992
1.95173
1.86
1.75552
1.64644
1.54363
1.4648
1.41952
1.40284
1.43678
1.63747
2.15095
2.69972
2.92521
3.39281
3.89321
4.50666
5.12059
5.43242
5.5146
5.47754
5.38518
5.24254
5.07126
4.88206
4.73524
4.62095
4.51103
4.38192
4.22998
4.0825
3.9577
3.88012
3.82082
3.76362
3.70101
3.62673
3.52969
3.40911
3.28787
3.1822
3.09579
3.02077
2.96025
2.90823
2.85947
2.81406
2.76745
2.71388
2.64901
2.57559
2.50607
2.45208
2.40719
2.36795
2.3322
2.29944
2.26894
2.23244
2.13236
1.41372
2.25846
3.26346
3.55262
3.57196
3.64839
3.91782
4.68631
6.50821
8.8372
9.96438
9.77949
9.00986
8.26199
7.78825
7.35697
6.85454
6.31264
5.8048
5.3712
5.00793
4.69081
4.39641
4.11257
3.83215
3.56718
3.33868
3.13441
2.95615
2.80152
2.65257
2.50233
2.35364
2.22947
2.13623
2.03974
1.93625
1.84048
1.75404
1.66322
1.59803
1.54161
1.48801
1.47982
1.55516
1.93235
2.53954
3.10365
3.19879
3.13191
3.12194
3.14826
3.34272
3.85965
4.52032
5.15447
5.44857
5.4097
5.22431
4.98836
4.81164
4.69939
4.61796
4.51996
4.38023
4.20798
4.04784
3.91581
3.83949
3.77633
3.7098
3.64562
3.5783
3.48831
3.37397
3.27042
3.1878
3.10583
3.01896
2.95991
2.91619
2.86699
2.812
2.75466
2.69622
2.63619
2.56722
2.4994
2.45556
2.42402
2.38959
2.35164
2.30537
2.25577
2.20591
2.12059
2.5733
3.32305
3.72943
3.76612
3.72653
3.68905
3.67969
3.69829
3.96998
5.31627
7.6416
8.50332
8.34015
8.04841
7.62812
7.15562
6.63545
6.11366
5.64032
5.23131
4.87804
4.5639
4.27495
4.00436
3.75514
3.53073
3.32411
3.12227
2.92233
2.73348
2.56711
2.43085
2.32446
2.23126
2.13123
2.02785
1.91856
1.81376
1.72667
1.65019
1.60624
1.56371
1.57593
1.75727
2.33294
3.05026
3.39645
3.42823
3.35399
3.22404
3.11629
3.09516
3.06279
3.11495
3.33614
3.88804
4.54839
4.88632
4.91257
4.89725
4.85726
4.75558
4.63118
4.49107
4.3423
4.1901
4.05074
3.94157
3.87722
3.80798
3.72135
3.63243
3.54149
3.43873
3.33851
3.26133
3.19637
3.13052
3.06285
2.98416
2.90518
2.84124
2.78333
2.72628
2.67266
2.62535
2.57977
2.52797
2.4686
2.40748
2.35935
2.3198
2.27482
2.22588
2.18455
2.12588
3.39389
3.60146
3.77383
3.79869
3.78853
3.74434
3.68032
3.63469
3.53522
3.55622
4.19787
5.7809
7.27938
7.64849
7.39567
6.81549
6.25975
5.80476
5.42383
5.07666
4.75002
4.44516
4.16626
3.9116
3.67711
3.45322
3.2385
3.03589
2.84687
2.67578
2.53977
2.42913
2.31223
2.1901
2.07212
1.97298
1.88616
1.8134
1.74266
1.68956
1.64059
1.71653
2.10378
2.8185
3.55273
3.71334
3.65269
3.49259
3.34403
3.25815
3.18731
3.13252
3.06422
3.00481
2.94144
3.00991
3.31169
3.85755
4.42006
4.74971
4.8384
4.77487
4.62226
4.45052
4.31446
4.21063
4.10119
3.98522
3.88711
3.79425
3.69243
3.58895
3.49394
3.41283
3.34481
3.28369
3.21754
3.14518
3.06603
2.96328
2.86967
2.80949
2.76165
2.71783
2.67657
2.63053
2.57535
2.514
2.45079
2.38436
2.32813
2.28454
2.25414
2.22212
2.19559
2.16114
3.74741
3.73065
3.71442
3.71263
3.71265
3.69743
3.65765
3.57916
3.40911
3.23183
3.0285
3.22117
4.2451
5.73178
6.42556
6.33363
5.98074
5.58752
5.22298
4.88314
4.56347
4.26592
3.99774
3.76035
3.54924
3.34984
3.15701
2.96688
2.7869
2.61509
2.47405
2.36503
2.27137
2.17729
2.07902
1.98171
1.88233
1.80585
1.74603
1.75997
1.97655
2.63313
3.42298
3.94697
4.00137
3.93876
3.73596
3.5236
3.40439
3.33002
3.26303
3.18593
3.10103
3.0022
2.9163
2.84777
2.84204
2.95433
3.36773
3.89186
4.34847
4.52845
4.52199
4.46266
4.36292
4.26091
4.14675
4.00845
3.87309
3.76075
3.65579
3.55417
3.46588
3.39791
3.35006
3.30685
3.25843
3.18752
3.06323
2.91284
2.83098
2.78855
2.75054
2.71369
2.67799
2.63835
2.59455
2.53367
2.44198
2.35468
2.30837
2.27699
2.26074
2.24199
2.22496
2.25784
3.71856
3.74738
3.74121
3.73144
3.71111
3.67656
3.60762
3.45965
3.26185
2.9992
2.77166
2.49635
2.53439
3.06052
4.28674
5.44498
5.60259
5.38506
5.00457
4.64128
4.32854
4.06405
3.82845
3.61253
3.41404
3.22167
3.03112
2.85158
2.70405
2.57205
2.46396
2.36888
2.27967
2.17261
2.06112
1.94855
1.88205
1.8312
1.91246
2.35959
3.22576
3.99345
4.2484
4.24479
4.13249
3.94041
3.73212
3.57202
3.47409
3.39018
3.30829
3.21967
3.12854
3.02988
2.9423
2.84871
2.79662
2.71468
2.72692
2.92998
3.37134
3.92294
4.34194
4.43601
4.40149
4.28013
4.1054
3.95261
3.83041
3.73275
3.64254
3.5474
3.46543
3.40685
3.35627
3.29898
3.22963
3.14198
3.00401
2.86824
2.80744
2.77455
2.74763
2.71942
2.68631
2.64536
2.59275
2.51705
2.4151
2.34174
2.31353
2.30057
2.29274
2.31113
2.37426
2.57588
3.75899
3.75666
3.74643
3.72518
3.69232
3.62068
3.47819
3.26638
3.00244
2.7148
2.50839
2.311
2.07967
1.98794
2.22686
3.13751
4.37927
4.79135
4.67877
4.39169
4.10285
3.86231
3.64016
3.43131
3.24758
3.08773
2.93508
2.80462
2.68905
2.56695
2.44065
2.33548
2.24735
2.15175
2.06486
1.97008
1.97361
2.20136
2.95411
3.88324
4.46956
4.55575
4.50625
4.34424
4.14901
3.9491
3.76002
3.62256
3.52307
3.43409
3.34774
3.25458
3.15699
3.06263
2.98077
2.89313
2.8007
2.70366
2.6049
2.57811
2.65632
2.98323
3.51853
4.0506
4.1438
4.12294
4.05223
3.93136
3.81899
3.72493
3.63658
3.54704
3.47135
3.40779
3.3525
3.29499
3.21892
3.1032
2.95819
2.85869
2.80929
2.77234
2.74205
2.71365
2.68574
2.65072
2.60162
2.51241
2.4065
2.35443
2.34351
2.37037
2.45811
2.6148
2.83227
3.03925
3.71693
3.71621
3.71089
3.69079
3.63497
3.49172
3.27802
2.99661
2.65461
2.48057
2.29483
2.05152
1.80311
1.69847
1.62847
1.7402
2.37124
3.45598
4.14781
4.10418
3.9301
3.6989
3.47284
3.28132
3.12586
2.9977
2.86352
2.74867
2.64052
2.5407
2.42564
2.34237
2.25727
2.19125
2.11722
2.20541
2.72151
3.76532
4.62473
4.81323
4.7664
4.61956
4.45325
4.29778
4.14152
3.97839
3.84117
3.72562
3.60831
3.4854
3.36784
3.25842
3.16127
3.07697
3.00454
2.93076
2.84151
2.72577
2.59844
2.52563
2.49166
2.52339
2.70449
3.12937
3.52149
3.84688
3.96379
3.90292
3.80965
3.72205
3.63695
3.5569
3.48203
3.41284
3.34867
3.28212
3.19744
3.07761
2.93592
2.85859
2.81801
2.77706
2.73849
2.71123
2.68721
2.64923
2.59471
2.50808
2.41948
2.42906
2.5099
2.68693
2.89687
3.1115
3.28301
3.28973
3.70847
3.72633
3.71665
3.67815
3.53415
3.29556
2.97146
2.63395
2.44647
2.22705
1.95563
1.68539
1.62325
1.56813
1.43459
1.26928
1.30686
1.70458
2.66597
3.46146
3.68303
3.57124
3.37346
3.19061
3.04214
2.93834
2.84473
2.75332
2.65867
2.56795
2.46685
2.39721
2.30618
2.32218
2.61794
3.51999
4.59199
5.26712
5.24598
5.07445
4.84402
4.62493
4.43466
4.27687
4.14957
4.043
3.94186
3.82564
3.68717
3.53171
3.38493
3.2572
3.16303
3.09697
3.03427
2.96008
2.86913
2.75854
2.62861
2.53257
2.46272
2.44189
2.43172
2.50447
2.69874
3.02495
3.39451
3.64011
3.65053
3.66917
3.6435
3.59163
3.51596
3.42939
3.33911
3.24787
3.15342
3.04623
2.94424
2.87439
2.81034
2.76353
2.7301
2.70822
2.69039
2.66667
2.61565
2.59849
2.6342
2.77297
2.97335
3.15336
3.30463
3.44464
3.47251
3.43457
3.74521
3.74208
3.70792
3.56498
3.30817
2.93871
2.61097
2.38775
2.12378
1.7861
1.5928
1.54167
1.48
1.361
1.15228
1.04514
1.04704
1.09627
1.40419
2.21327
3.09889
3.41354
3.35208
3.20274
3.05666
2.95382
2.87802
2.80598
2.73814
2.65195
2.56749
2.49364
2.61746
3.27807
4.47498
5.43467
5.58687
5.54178
5.35325
5.13814
4.92068
4.69773
4.49139
4.31617
4.18415
4.08167
3.98495
3.87325
3.73518
3.57169
3.41272
3.27706
3.17414
3.10241
3.04441
2.98655
2.90512
2.79071
2.66502
2.5715
2.49426
2.43666
2.39848
2.37604
2.357
2.40077
2.6176
2.99422
3.30836
3.5069
3.60757
3.60048
3.5504
3.44564
3.31787
3.19292
3.09172
3.01759
2.95836
2.88193
2.81149
2.76938
2.74454
2.73026
2.72336
2.78486
2.88486
3.00574
3.19166
3.36158
3.42612
3.43735
3.46292
3.50254
3.4949
3.41786
3.75525
3.71755
3.57857
3.30709
2.90226
2.56241
2.30166
1.98372
1.64893
1.49554
1.40127
1.3249
1.231
1.08988
0.981579
0.95969
0.955836
0.952561
0.980073
1.22958
1.92131
2.97922
3.27192
3.21405
3.15354
3.0865
3.00376
2.92781
2.87478
2.79279
2.80814
3.09924
4.18599
5.47311
6.11497
6.13038
5.9545
5.64984
5.39248
5.17167
4.95844
4.7465
4.5469
4.37569
4.23742
4.11639
3.99658
3.87302
3.73943
3.5866
3.42155
3.29224
3.21698
3.15035
3.07332
2.98913
2.90417
2.81447
2.70221
2.59466
2.54139
2.49084
2.43207
2.35709
2.29782
2.23749
2.25122
2.36825
2.69214
3.01866
3.34065
3.45634
3.44193
3.38218
3.28548
3.17905
3.09457
3.01271
2.93303
2.86811
2.83564
2.80181
2.7888
2.8378
2.99512
3.23674
3.4346
3.60412
3.73272
3.74667
3.70535
3.61682
3.5684
3.50827
3.44617
3.34111
3.72872
3.59961
3.31794
2.86686
2.45943
2.19562
1.852
1.51967
1.38823
1.27936
1.18955
1.11932
1.04774
0.973975
0.964202
0.962622
0.953445
0.950213
0.956449
0.97182
1.11732
1.7859
2.85813
3.15336
3.27339
3.29548
3.20979
3.10222
3.02984
3.1321
3.74803
5.19658
6.42948
6.51391
6.43124
6.17868
5.91012
5.63842
5.39204
5.17955
5.00619
4.81966
4.61992
4.4335
4.27011
4.13269
4.01739
3.91234
3.79539
3.64837
3.48258
3.33589
3.22178
3.13605
3.05599
2.97513
2.89548
2.8191
2.73915
2.6531
2.55884
2.4641
2.38345
2.30829
2.24097
2.18949
2.17549
2.17039
2.23853
2.42591
2.71797
3.0127
3.19812
3.24386
3.21653
3.18811
3.11978
3.04223
2.98199
2.93788
2.92287
2.96481
3.06651
3.27784
3.53148
3.72846
3.84542
3.87337
3.85486
3.81163
3.74943
3.66894
3.56464
3.47986
3.4157
3.31127
3.64406
3.33634
2.85057
2.3419
2.01461
1.70726
1.38254
1.21825
1.11587
1.01995
0.965663
0.923363
0.909864
0.91418
0.931909
0.96199
0.972834
0.975713
0.984099
0.999656
1.01573
1.12134
1.77685
2.67548
3.25177
3.34003
3.32909
3.34583
3.60683
4.65234
6.1861
7.11401
7.18491
6.94376
6.46686
6.12493
5.89661
5.67995
5.45952
5.22706
4.99585
4.79399
4.61908
4.45938
4.31357
4.17844
4.04897
3.92009
3.78665
3.64341
3.49091
3.34773
3.23404
3.14655
3.06643
2.98984
2.91463
2.84008
2.76266
2.67391
2.5711
2.47015
2.3841
2.30765
2.24121
2.19347
2.16655
2.14736
2.1356
2.12549
2.16899
2.33352
2.59098
2.82064
2.97883
3.05083
3.08025
3.09259
3.13407
3.22017
3.32324
3.49896
3.69274
3.89315
4.00391
4.0575
4.05406
4.01498
3.95456
3.87331
3.77738
3.66874
3.565
3.46136
3.38195
3.27281
3.37263
2.76106
2.15769
1.80726
1.53017
1.21376
1.08182
1.06067
1.01542
0.962551
0.92351
0.900471
0.900534
0.912813
0.958735
1.00603
1.01301
1.01378
1.0083
1.01304
1.02049
1.03433
1.13344
1.66193
2.5593
3.09115
3.60308
4.28939
5.63698
6.86586
7.50883
7.3842
7.01355
6.67569
6.41393
6.20102
6.00083
5.79722
5.58233
5.34717
5.10638
4.89069
4.70921
4.54934
4.40517
4.26888
4.13245
3.9931
3.84955
3.7003
3.54586
3.40399
3.29243
3.20436
3.12752
3.05626
2.98742
2.91622
2.83472
2.73332
2.61644
2.50195
2.40742
2.34434
2.30146
2.26442
2.22344
2.18586
2.14121
2.08189
2.00758
2.0015
2.07539
2.29291
2.61114
2.85811
3.05119
3.2942
3.57845
3.78128
3.8988
4.01486
4.0979
4.13924
4.15109
4.11552
4.05413
3.97799
3.90451
3.83343
3.75255
3.67837
3.59896
3.48862
3.38089
3.24819
2.66085
1.69961
1.15012
0.884861
0.687677
0.625089
0.647814
0.733844
0.818974
0.869286
0.92038
0.946455
0.950467
0.968054
1.02889
1.07016
1.07109
1.06272
1.0458
1.04641
1.05139
1.06194
1.07569
1.15048
1.53137
2.74617