/*--------------------------------*- C++ -*----------------------------------*\
  =========                 |
  \\      /  F ield         | OpenFOAM: The Open Source CFD Toolbox
   \\    /   O peration     | Website:  https://openfoam.org
    \\  /    A nd           | Version:  7
     \\/     M anipulation  |
\*---------------------------------------------------------------------------*/
FoamFile
{
    version     2.0;
    format      ascii;
    class       volScalarField;
    location    "1.7";
    object      rho;
}
// * * * * * * * * * * * * * * * * * * * * * * * * * * * * * * * * * * * * * //

dimensions      [1 -3 0 0 0 0 0];

internalField   nonuniform List<scalar> 
4608
(
1.40001
1.40001
1.40001
1.40001
1.40001
1.40001
1.40001
1.40001
1.40001
1.40001
1.40001
1.40001
1.40001
1.40001
1.40001
1.40001
1.40001
1.40001
1.40001
1.40001
1.40001
1.40001
1.40001
1.40001
1.40001
1.40001
1.40001
1.40001
1.40001
1.40001
1.40001
1.40001
1.40001
1.40001
1.40001
1.40001
1.40001
1.40001
1.40001
1.40001
1.40001
1.40001
1.40001
1.40001
1.40001
1.40001
1.40001
1.40001
1.40001
1.40001
1.40001
1.40001
1.40001
1.40001
1.40001
1.40001
1.40001
1.40001
1.40001
1.40001
1.40001
1.40001
1.40001
1.40001
1.40001
1.40001
1.40001
1.40001
1.40001
1.40001
1.40001
1.40001
1.40001
1.40001
1.40001
1.40001
1.40001
1.40001
1.40001
1.40001
1.40001
1.40001
1.40001
1.40001
1.40001
1.40001
1.40001
1.40001
1.40001
1.40001
1.40001
1.40001
1.40001
1.40001
1.40001
1.40001
1.40001
1.40001
1.40001
1.40001
1.40001
1.40001
1.40001
1.40001
1.40001
1.40001
1.40001
1.40001
1.40001
1.40001
1.40001
1.40001
1.40001
1.40001
1.40001
1.40001
1.40001
1.40001
1.40001
1.40001
1.40001
1.40001
1.40001
1.40001
1.40001
1.40001
1.40001
1.40001
1.40001
1.40001
1.40001
1.40001
1.40001
1.40001
1.40001
1.40001
1.40001
1.40001
1.40001
1.40001
1.40001
1.40001
1.40001
1.40001
1.40001
1.40001
1.40001
1.40001
1.40001
1.40001
1.40001
1.40001
1.40001
1.40001
1.40001
1.40001
1.40001
1.40001
1.40001
1.40001
1.40001
1.40001
1.40001
1.40001
1.40001
1.40001
1.40001
1.40001
1.40001
1.40001
1.40001
1.40001
1.40001
1.40001
1.40001
1.40001
1.40001
1.40001
1.40001
1.40001
1.40001
1.40001
1.40001
1.40001
1.40001
1.40001
1.40001
1.40001
1.40001
1.40001
1.40001
1.40001
1.40001
1.40001
1.40001
1.40001
1.40001
1.40001
1.40001
1.40001
1.40001
1.40001
1.40001
1.40001
1.40001
1.40001
1.40001
1.40001
1.40001
1.40001
1.40001
1.40001
1.40001
1.40001
1.40001
1.40001
1.40001
1.40001
1.40001
1.40001
1.40001
1.40001
1.40001
1.40001
1.40001
1.40001
1.40001
1.40001
1.40001
1.40001
1.40001
1.40001
1.40001
1.40001
1.40001
1.40001
1.40001
1.40001
1.40001
1.40001
1.40001
1.40001
1.40001
1.40001
1.40001
1.40001
1.40001
1.40001
1.40001
1.40001
1.40001
1.40001
1.40001
1.40001
1.40001
1.40001
1.40001
1.40001
1.40001
1.40001
1.40001
1.40001
1.40001
1.40001
1.40001
1.40001
1.40001
1.40001
1.40001
1.40001
1.40001
1.40001
1.40001
1.40001
1.40001
1.40001
1.40001
1.40001
1.40001
1.40001
1.40001
1.40001
1.40001
1.40001
1.40001
1.40001
1.40001
1.40001
1.40001
1.40001
1.40001
1.40001
1.40001
1.40001
1.40001
1.40001
1.40001
1.40001
1.40001
1.40001
1.40001
1.40001
1.40001
1.40001
1.40001
1.40001
1.40001
1.40001
1.40001
1.40001
1.40001
1.40001
1.40001
1.40001
1.40001
1.40001
1.40001
1.40001
1.40001
1.40001
1.40001
1.40001
1.40001
1.40001
1.40001
1.40001
1.40001
1.40001
1.40001
1.40001
1.40001
1.40001
1.40001
1.40001
1.40001
1.40001
1.40001
1.40001
1.40001
1.40001
1.40001
1.40001
1.40001
1.40001
1.40001
1.40001
1.40001
1.40001
1.40001
1.40001
1.40001
1.40001
1.40001
1.40001
1.40001
1.40001
1.40001
1.40001
1.40001
1.40001
1.40001
1.40001
1.40001
1.40001
1.40001
1.40001
1.40001
1.40001
1.40001
1.40001
1.40001
1.40001
1.40001
1.40001
1.40001
1.40001
1.40001
1.40001
1.40001
1.40001
1.40001
1.40001
1.40001
1.40001
1.40001
1.40001
1.40001
1.40001
1.40001
1.40001
1.40001
1.40001
1.40001
1.40001
1.40001
1.40001
1.40001
1.40001
1.40001
1.40001
1.40001
1.40001
1.40001
1.40001
1.40001
1.40001
1.40001
1.40001
1.40001
1.40001
1.40001
1.40001
1.40001
1.40001
1.40001
1.40001
1.40001
1.40001
1.40001
1.40001
1.40001
1.40001
1.40001
1.40001
1.40001
1.40001
1.40001
1.40001
1.40001
1.40001
1.40001
1.40001
1.40001
1.40001
1.40001
1.40001
1.40001
1.40001
1.40001
1.40001
1.40001
1.40001
1.40001
1.40001
1.40001
1.40001
1.40001
1.40001
1.40001
1.40001
1.40001
1.40001
1.40001
1.40001
1.40001
1.40001
1.40001
1.40001
1.40001
1.40001
1.40001
1.40001
1.40001
1.40001
1.40001
1.40001
1.40001
1.40001
1.40001
1.40001
1.40001
1.40001
1.40001
1.40001
1.40001
1.40001
1.40001
1.40001
1.40001
1.40001
1.40001
1.40001
1.40001
1.40001
1.40001
1.40001
1.40001
1.40001
1.40001
1.40001
1.40001
1.40001
1.40001
1.40001
1.40001
1.40001
1.40001
1.40001
1.40001
1.40001
1.40001
1.40001
1.40001
1.40001
1.40001
1.40001
1.40001
1.40001
1.40001
1.40001
1.40001
1.40001
1.40001
1.40001
1.40001
1.40001
1.40001
1.40001
1.40001
1.40001
1.40001
1.40001
1.40001
1.40001
1.40001
1.40001
1.40001
1.40001
1.40001
1.40001
1.40001
1.40001
1.40001
1.40001
1.40001
1.40001
1.40001
1.40001
1.40001
1.40001
1.40001
1.40001
1.40001
1.40001
1.40001
1.40001
1.40001
1.40001
1.40001
1.40001
1.40001
1.40001
1.40001
1.40001
1.40001
1.40001
1.40001
1.40001
1.40001
1.40001
1.40001
1.40001
1.40001
1.40001
1.40001
1.40001
1.40001
1.40001
1.40001
1.40001
1.40001
1.40001
1.40001
1.40001
1.40001
1.40001
1.40001
1.40001
1.40001
1.40001
1.40001
1.40001
1.40001
1.40001
1.40001
1.40001
1.40001
1.40001
1.40001
1.40001
1.40001
1.40001
1.40001
1.40001
1.40001
1.40001
1.40001
1.40001
1.40001
1.40001
1.40001
1.40001
1.40001
1.40001
1.40001
1.40001
1.40001
1.40001
1.40001
1.40001
1.40001
1.40001
1.40001
1.40001
1.40001
1.40001
1.40001
1.40001
1.40001
1.40001
1.40001
1.40001
1.40001
1.40001
1.40001
1.40001
1.40001
1.40001
1.40001
1.40001
1.40001
1.40001
1.40001
1.40001
1.40001
1.40001
1.40001
1.40001
1.40001
1.40001
1.40001
1.40001
1.40001
1.40001
1.40001
1.40001
1.40001
1.40001
1.40001
1.40001
1.40001
1.40001
1.40001
1.40001
1.40001
1.40001
1.40001
1.40001
1.40001
1.40001
1.40001
1.40001
1.40001
1.40001
1.40001
1.40001
1.40001
1.40001
1.40001
1.40001
1.40001
1.40001
1.40001
1.40001
1.40001
1.40001
1.40001
1.40001
1.40001
1.40001
1.40001
1.40001
1.40001
1.40001
1.40001
1.40001
1.40001
1.40001
1.40001
1.40001
1.40001
1.40001
1.40001
1.40001
1.40001
1.40001
1.40001
1.40001
1.40001
1.40001
1.40001
1.40001
1.40001
1.40001
1.40001
1.40001
1.40001
1.40001
1.40001
1.40001
1.40001
1.40001
1.40001
1.40001
1.40001
1.40001
1.40001
1.40001
1.40001
1.40001
1.40001
1.40001
1.40001
1.40001
1.40001
1.40001
1.40001
1.40001
1.40001
1.40001
1.40001
1.40001
1.40001
1.40001
1.40001
1.40001
1.40001
1.40001
1.40001
1.40001
1.40001
1.40001
1.40001
1.40001
1.40001
1.40001
1.40001
1.40001
1.40001
1.40001
1.40001
1.40001
1.40001
1.40001
1.40001
1.40001
1.40001
1.40001
1.40001
1.40001
1.40001
1.40001
1.40001
1.40001
1.40001
1.40001
1.40001
1.40001
1.67614
2.09188
2.53701
2.98438
3.43456
3.81308
4.13828
4.41847
4.41896
4.29558
4.04085
3.72166
3.45628
3.37415
3.30481
3.30495
3.32577
3.35115
3.38074
3.41041
3.41964
3.41981
3.41842
3.42499
1.40283
1.41568
1.47689
1.59033
1.79961
2.10997
2.5134
2.97911
3.35512
3.53829
3.66626
3.62125
3.53712
3.48842
3.42959
3.38969
3.37395
3.3597
3.36482
3.38469
3.40322
3.40791
3.40955
3.41615
1.40001
1.39995
1.40021
1.40027
1.40318
1.4223
1.4949
1.71367
2.18036
2.8981
3.43424
3.72444
3.75943
3.71099
3.61282
3.47563
3.37101
3.32713
3.32837
3.34226
3.36451
3.37984
3.38761
3.39431
1.40001
1.4
1.4
1.4
1.39999
1.40004
1.39992
1.40178
1.42826
1.63851
2.16834
2.97368
3.44406
3.5456
3.53419
3.51865
3.44478
3.35434
3.33072
3.32547
3.32615
3.33604
3.35686
3.37401
1.40001
1.40001
1.4
1.4
1.4
1.4
1.39999
1.39999
1.39992
1.40116
1.43817
1.67156
2.33233
2.97717
3.44157
3.54832
3.52921
3.45825
3.39075
3.33219
3.30384
3.30486
3.31859
3.34359
1.40001
1.40001
1.40001
1.40001
1.40001
1.4
1.4
1.4
1.4
1.4
1.39994
1.40221
1.47238
1.79171
2.51494
3.09532
3.42659
3.44137
3.41137
3.37052
3.32674
3.29642
3.29206
3.29943
1.40001
1.40001
1.40001
1.40001
1.40001
1.40001
1.40001
1.40001
1.40001
1.4
1.4
1.39999
1.4001
1.40792
1.53284
2.01802
2.83034
3.22323
3.33346
3.35899
3.35193
3.31194
3.28014
3.2775
1.40001
1.40001
1.40001
1.40001
1.40001
1.40001
1.40001
1.40001
1.40001
1.40001
1.40001
1.4
1.4
1.39998
1.40104
1.43355
1.69199
2.35242
3.04381
3.35807
3.36918
3.34882
3.30999
3.29642
1.40001
1.40001
1.40001
1.40001
1.40001
1.40001
1.40001
1.40001
1.40001
1.40001
1.40001
1.40001
1.4
1.4
1.4
1.40002
1.4066
1.5256
1.99231
2.71485
3.21752
3.36852
3.36109
3.33005
1.40001
1.40001
1.40001
1.40001
1.40001
1.40001
1.40001
1.40001
1.40001
1.40001
1.40001
1.40001
1.40001
1.4
1.4
1.4
1.39999
1.40149
1.43583
1.74846
2.44445
3.11831
3.23145
3.28189
1.40001
1.40001
1.40001
1.40001
1.40001
1.40001
1.40001
1.40001
1.40001
1.40001
1.40001
1.40001
1.40001
1.40001
1.40001
1.4
1.4
1.4
1.40013
1.41658
1.56896
2.18561
2.91143
3.30833
1.40001
1.40001
1.40001
1.40001
1.40001
1.40001
1.40001
1.40001
1.40001
1.40001
1.40001
1.40001
1.40001
1.40001
1.40001
1.40001
1.4
1.4
1.4
1.40004
1.40403
1.50854
1.98677
2.83162
1.40001
1.40001
1.40001
1.40001
1.40001
1.40001
1.40001
1.40001
1.40001
1.40001
1.40001
1.40001
1.40001
1.40001
1.40001
1.40001
1.40001
1.40001
1.4
1.4
1.40001
1.4027
1.45948
1.848
1.40001
1.40001
1.40001
1.40001
1.40001
1.40001
1.40001
1.40001
1.40001
1.40001
1.40001
1.40001
1.40001
1.40001
1.40001
1.40001
1.40001
1.40001
1.40001
1.4
1.4
1.4
1.40113
1.42613
1.40001
1.40001
1.40001
1.40001
1.40001
1.40001
1.40001
1.40001
1.40001
1.40001
1.40001
1.40001
1.40001
1.40001
1.40001
1.40001
1.40001
1.40001
1.40001
1.40001
1.4
1.4
1.40001
1.39999
1.40001
1.40001
1.40001
1.40001
1.40001
1.40001
1.40001
1.40001
1.40001
1.40001
1.40001
1.40001
1.40001
1.40001
1.40001
1.40001
1.40001
1.40001
1.40001
1.40001
1.40001
1.4
1.4
1.39999
1.40001
1.40001
1.40001
1.40001
1.40001
1.40001
1.40001
1.40001
1.40001
1.40001
1.40001
1.40001
1.40001
1.40001
1.40001
1.40001
1.40001
1.40001
1.40001
1.40001
1.40001
1.4
1.4
1.4
1.40001
1.40001
1.40001
1.40001
1.40001
1.40001
1.40001
1.40001
1.40001
1.40001
1.40001
1.40001
1.40001
1.40001
1.40001
1.40001
1.40001
1.40001
1.40001
1.40001
1.4
1.4
1.40001
1.4
1.40001
1.40001
1.40001
1.40001
1.40001
1.40001
1.40001
1.40001
1.40001
1.40001
1.40001
1.40001
1.40001
1.40001
1.40001
1.40001
1.40001
1.40001
1.40001
1.4
1.4
1.4
1.40113
1.42595
1.40001
1.40001
1.40001
1.40001
1.40001
1.40001
1.40001
1.40001
1.40001
1.40001
1.40001
1.40001
1.40001
1.40001
1.40001
1.40001
1.40001
1.40001
1.4
1.4
1.40001
1.4027
1.45957
1.84682
1.40001
1.40001
1.40001
1.40001
1.40001
1.40001
1.40001
1.40001
1.40001
1.40001
1.40001
1.40001
1.40001
1.40001
1.40001
1.40001
1.4
1.4
1.4
1.40004
1.40403
1.50859
1.98639
2.83162
1.40001
1.40001
1.40001
1.40001
1.40001
1.40001
1.40001
1.40001
1.40001
1.40001
1.40001
1.40001
1.40001
1.40001
1.40001
1.4
1.4
1.4
1.40013
1.41657
1.56896
2.1858
2.91082
3.30842
1.40001
1.40001
1.40001
1.40001
1.40001
1.40001
1.40001
1.40001
1.40001
1.40001
1.40001
1.40001
1.40001
1.4
1.4
1.4
1.39999
1.40149
1.43584
1.74838
2.4447
3.11801
3.2313
3.28193
1.40001
1.40001
1.40001
1.40001
1.40001
1.40001
1.40001
1.40001
1.40001
1.40001
1.40001
1.40001
1.4
1.4
1.4
1.40002
1.4066
1.52559
1.99228
2.71484
3.2177
3.36844
3.36102
3.33011
1.40001
1.40001
1.40001
1.40001
1.40001
1.40001
1.40001
1.40001
1.40001
1.40001
1.40001
1.4
1.4
1.39998
1.40104
1.43355
1.69198
2.35243
3.04376
3.35808
3.36922
3.34882
3.30994
3.29644
1.40001
1.40001
1.40001
1.40001
1.40001
1.40001
1.40001
1.40001
1.40001
1.4
1.4
1.39999
1.4001
1.40792
1.53284
2.01802
2.83034
3.22324
3.33346
3.35899
3.35194
3.31194
3.28012
3.2775
1.40001
1.40001
1.40001
1.40001
1.40001
1.4
1.4
1.4
1.4
1.4
1.39994
1.40221
1.47238
1.79171
2.51494
3.09532
3.42659
3.44137
3.41137
3.37052
3.32674
3.29643
3.29206
3.29943
1.40001
1.40001
1.4
1.4
1.4
1.4
1.39999
1.39999
1.39992
1.40116
1.43817
1.67156
2.33233
2.97717
3.44157
3.54832
3.52921
3.45825
3.39075
3.33219
3.30384
3.30486
3.3186
3.3436
1.40001
1.4
1.4
1.4
1.39999
1.40004
1.39992
1.40178
1.42826
1.63851
2.16834
2.97368
3.44406
3.5456
3.53419
3.51865
3.44478
3.35434
3.33072
3.32547
3.32615
3.33604
3.35686
3.37401
1.40001
1.39995
1.40021
1.40027
1.40318
1.4223
1.4949
1.71367
2.18036
2.8981
3.43424
3.72444
3.75943
3.71099
3.61282
3.47563
3.37101
3.32713
3.32837
3.34226
3.36451
3.37984
3.38761
3.39431
1.40283
1.41568
1.47689
1.59033
1.79961
2.10997
2.5134
2.97911
3.35512
3.53829
3.66626
3.62125
3.53712
3.48842
3.42959
3.38969
3.37395
3.3597
3.36482
3.38469
3.40322
3.40791
3.40955
3.41615
1.67614
2.09188
2.53701
2.98438
3.43456
3.81308
4.13828
4.41847
4.41896
4.29558
4.04085
3.72166
3.45628
3.37415
3.30481
3.30495
3.32577
3.35115
3.38074
3.41041
3.41964
3.41981
3.41842
3.42499
2.66443
1.93041
1.45388
1.18719
0.974266
0.908519
0.928109
1.00524
1.08696
1.14073
1.19555
1.22342
1.22718
1.24196
1.29838
1.34203
1.34398
1.33763
1.32172
1.32191
1.32755
1.34034
1.3535
1.41631
1.70588
2.53583
3.64459
4.77945
5.80655
6.01764
5.69689
5.15181
4.79626
4.62983
4.54701
4.45137
4.34356
4.23174
4.11391
3.98694
3.85587
3.73425
3.62904
3.53769
3.45589
3.37879
3.30171
3.22337
3.1397
3.04955
2.95323
2.8641
2.79619
2.74358
2.69796
2.65504
2.61503
2.57294
2.5225
2.45445
2.37181
2.28796
2.22368
2.19643
2.17548
2.1528
2.1256
2.09668
2.062
2.01623
1.94543
1.88904
1.89251
1.93529
2.08646
2.38038
2.73848
3.05167
3.30069
3.44934
3.57422
3.63392
3.61141
3.54743
3.43301
3.30325
3.22743
3.15956
3.12598
3.10229
3.07186
3.04003
3.00616
2.95536
2.87368
2.77194
3.15579
2.73306
2.29373
2.01831
1.78984
1.52946
1.40224
1.36986
1.31975
1.26882
1.23212
1.20384
1.20234
1.21191
1.25485
1.30173
1.3085
1.30865
1.30229
1.30525
1.31288
1.32579
1.41124
1.81403
2.42767
2.77127
3.08456
3.48219
4.21999
4.85233
5.14763
5.07976
4.88858
4.71509
4.58079
4.47097
4.36553
4.25776
4.1444
4.02009
3.89032
3.77214
3.67174
3.58225
3.50058
3.42282
3.34456
3.26348
3.17953
3.09215
3.00002
2.91243
2.84228
2.78619
2.73666
2.69118
2.6482
2.60395
2.55312
2.48856
2.41198
2.33559
2.27247
2.23054
2.20096
2.17513
2.14632
2.11985
2.08837
2.04703
1.99559
1.99146
2.04648
2.19139
2.40298
2.55297
2.66983
2.82304
2.99053
3.10322
3.18536
3.26322
3.31365
3.34031
3.33303
3.30511
3.25782
3.2058
3.15918
3.12196
3.08897
3.05803
3.01758
2.96035
2.89474
2.7996
3.32921
3.129
2.79753
2.43088
2.18475
1.9462
1.67278
1.5239
1.42973
1.34136
1.28838
1.24555
1.2313
1.23546
1.25334
1.28189
1.29028
1.29196
1.29912
1.31318
1.32708
1.4166
1.92062
2.53116
2.89195
2.93926
2.93225
2.9415
3.09339
3.67533
4.47137
4.93151
4.96159
4.84023
4.59833
4.42275
4.30462
4.19046
4.07535
3.95261
3.82768
3.71656
3.61831
3.52736
3.44344
3.36526
3.29092
3.21706
3.13967
3.05622
2.96644
2.87831
2.80515
2.74947
2.69863
2.64906
2.60075
2.55389
2.50523
2.44924
2.3827
2.31509
2.25701
2.20545
2.15976
2.12515
2.10581
2.09249
2.08374
2.07696
2.10579
2.21654
2.3923
2.54143
2.64635
2.67907
2.69273
2.69818
2.72043
2.76834
2.82923
2.93824
3.0523
3.17257
3.24296
3.27112
3.26852
3.24265
3.19944
3.14216
3.07858
3.02946
2.97975
2.92323
2.87698
2.81392
3.36123
3.28633
3.1069
2.80248
2.51422
2.32072
2.05499
1.78364
1.67529
1.58224
1.502
1.43728
1.37092
1.30276
1.29195
1.28948
1.27927
1.27476
1.28048
1.29405
1.41606
1.92311
2.65153
2.83416
2.90156
2.91222
2.85717
2.78632
2.73671
2.79768
3.15245
3.93658
4.56081
4.61237
4.57045
4.44175
4.30052
4.15775
4.03104
3.9205
3.82676
3.72329
3.61094
3.5052
3.41223
3.33182
3.26341
3.20431
3.14066
3.05772
2.95927
2.86946
2.79523
2.74024
2.69173
2.64071
2.58726
2.53768
2.48713
2.43224
2.37251
2.3098
2.25517
2.20366
2.15771
2.12035
2.11009
2.10662
2.15291
2.27557
2.45689
2.65639
2.76273
2.79647
2.7804
2.76101
2.71634
2.66665
2.62837
2.59273
2.58069
2.605
2.66764
2.78823
2.94402
3.08926
3.16586
3.16862
3.15628
3.1294
3.07049
3.00637
2.9517
2.90881
2.88069
2.83013
3.35174
3.33703
3.25737
3.08651
2.8164
2.57958
2.39003
2.14746
1.8846
1.76216
1.68253
1.61508
1.53195
1.40643
1.30741
1.28601
1.28124
1.27627
1.30041
1.50702
2.0186
2.71554
2.90024
2.86157
2.81858
2.7725
2.71809
2.66806
2.63323
2.57965
2.58946
2.76306
3.37744
4.06712
4.38936
4.40181
4.31079
4.15426
4.02196
3.90613
3.79217
3.67675
3.56577
3.46787
3.38799
3.31876
3.24956
3.17793
3.10022
3.01039
2.91102
2.83659
2.79666
2.75685
2.70732
2.65265
2.59429
2.53382
2.46088
2.38817
2.35374
2.32338
2.28513
2.23305
2.19425
2.15268
2.16043
2.23696
2.44952
2.64752
2.83691
2.90897
2.89777
2.86634
2.8142
2.7538
2.70408
2.65132
2.59771
2.55017
2.52758
2.49998
2.49051
2.51992
2.60856
2.7687
2.91713
3.01761
3.09876
3.1041
3.07442
2.99035
2.92071
2.89044
2.87837
2.83824
3.32389
3.32755
3.3134
3.23051
3.06969
2.82531
2.59962
2.44085
2.24542
1.98692
1.83505
1.79339
1.74187
1.64118
1.45729
1.36078
1.36262
1.40488
1.65278
2.22558
2.79235
2.98011
2.94053
2.84483
2.74997
2.68287
2.63372
2.58697
2.54384
2.4882
2.43355
2.38512
2.46285
2.85923
3.53082
4.03143
4.12061
4.0979
3.99959
3.88544
3.7678
3.64425
3.53122
3.43234
3.35572
3.29772
3.24255
3.17513
3.09064
2.99203
2.8984
2.81966
2.76
2.71583
2.67685
2.63739
2.58609
2.51395
2.43132
2.37139
2.32349
2.28649
2.26148
2.24718
2.23501
2.26422
2.39868
2.64471
2.82946
2.93978
2.99452
2.98982
2.96409
2.9061
2.82866
2.75738
2.70342
2.65711
2.61038
2.56046
2.51602
2.48473
2.46445
2.44922
2.44341
2.48045
2.56309
2.65616
2.77235
2.88717
2.93391
2.91262
2.88413
2.884
2.90618
2.88502
3.28676
3.30325
3.29958
3.27895
3.19171
3.04149
2.82966
2.6012
2.47127
2.31332
2.11023
1.9012
1.85288
1.80882
1.6975
1.55354
1.57955
1.86563
2.51357
3.0091
3.14259
3.07423
2.95025
2.83405
2.73868
2.67196
2.61221
2.5549
2.49477
2.43638
2.3703
2.32517
2.26455
2.27478
2.45959
2.99157
3.59999
3.96036
3.94669
3.85642
3.72882
3.60323
3.4955
3.40849
3.33639
3.27483
3.21523
3.14367
3.05909
2.96634
2.88034
2.80346
2.74316
2.70422
2.6696
2.62841
2.57482
2.50298
2.41265
2.34478
2.2993
2.28604
2.28026
2.33045
2.46361
2.65838
2.87213
3.03504
3.03503
3.03577
3.01921
2.98273
2.93504
2.88224
2.83027
2.77916
2.72864
2.67065
2.60732
2.55525
2.51354
2.4837
2.45852
2.43771
2.42617
2.40858
2.38163
2.38743
2.42295
2.51651
2.635
2.741
2.82789
2.86033
2.89425
2.88374
3.29036
3.29004
3.28712
3.27532
3.24139
3.15246
3.01727
2.83426
2.60407
2.48518
2.35409
2.17504
1.98666
1.90652
1.849
1.92732
2.35087
3.01974
3.41964
3.39504
3.29275
3.1551
3.01626
2.89566
2.79649
2.71489
2.6295
2.55562
2.48585
2.4214
2.34703
2.29363
2.23598
2.19242
2.14144
2.19779
2.52422
3.14117
3.63612
3.7347
3.69981
3.6077
3.51077
3.42435
3.33263
3.23691
3.15808
3.08768
3.01646
2.94181
2.87001
2.8021
2.73989
2.68809
2.64582
2.6014
2.54637
2.47485
2.3915
2.34156
2.31765
2.3347
2.44234
2.71571
2.95784
3.12477
3.203
3.18566
3.14497
3.08102
3.01826
2.96694
2.9177
2.87321
2.83351
2.79397
2.74773
2.6863
2.6102
2.54791
2.51608
2.49165
2.46579
2.44591
2.42994
2.40112
2.36691
2.30905
2.27381
2.28596
2.34142
2.44695
2.59796
2.71296
2.77934
2.79423
3.31974
3.31627
3.30823
3.29384
3.27339
3.22898
3.13914
3.00326
2.83029
2.63765
2.49716
2.35789
2.19196
2.1166
2.27126
2.83511
3.56144
3.79247
3.73008
3.5682
3.40252
3.26111
3.12722
2.99943
2.88527
2.78436
2.68647
2.6011
2.52526
2.44621
2.36395
2.29414
2.2336
2.16886
2.11091
2.04421
2.04311
2.19436
2.67223
3.23607
3.55691
3.58311
3.55283
3.45393
3.3436
3.2298
3.12133
3.03575
2.97243
2.91678
2.8619
2.80128
2.73719
2.67469
2.62394
2.57112
2.5165
2.4602
2.40163
2.37553
2.42342
2.61087
2.90876
3.23884
3.31845
3.29013
3.25319
3.206
3.14131
3.08168
3.02847
2.97568
2.92158
2.87677
2.84073
2.80509
2.7609
2.69952
2.62293
2.55703
2.52245
2.50043
2.48067
2.46329
2.44428
2.41547
2.37145
2.3092
2.25105
2.2288
2.2268
2.24686
2.30971
2.42344
2.53653
2.64718
3.30074
3.31684
3.3123
3.30454
3.29041
3.26686
3.2214
3.12561
2.99732
2.82479
2.67291
2.48229
2.50305
2.81849
3.529
4.14612
4.24257
4.1277
3.92234
3.72231
3.54637
3.39412
3.25555
3.12669
3.00587
2.885
2.76237
2.64522
2.54576
2.45547
2.38454
2.32431
2.26553
2.19188
2.11281
2.03136
1.98263
1.94455
1.99679
2.30184
2.85256
3.28907
3.43363
3.42819
3.36035
3.24579
3.12064
3.0224
2.95407
2.89845
2.8466
2.78924
2.72915
2.66284
2.60574
2.54834
2.52002
2.47348
2.48251
2.59296
2.86593
3.16874
3.40717
3.48104
3.46323
3.3822
3.28278
3.19976
3.13525
3.08543
3.0419
2.9917
2.93515
2.88726
2.85308
2.81884
2.77692
2.7241
2.65082
2.5714
2.53268
2.51161
2.49545
2.47959
2.45953
2.43368
2.39164
2.32382
2.25646
2.2242
2.21018
2.19933
2.19815
2.21543
2.26335
2.37581
3.32992
3.31746
3.30578
3.30237
3.29809
3.28599
3.25795
3.20622
3.09617
2.98111
2.84214
2.95122
3.52572
4.32166
4.68463
4.6409
4.46083
4.25521
4.06009
3.87462
3.69726
3.52904
3.3743
3.23481
3.10942
2.98605
2.85982
2.73352
2.61425
2.4989
2.40186
2.32636
2.26428
2.20485
2.13784
2.06616
1.98859
1.9281
1.87622
1.88492
2.04623
2.4697
2.97007
3.28258
3.29527
3.25803
3.13584
3.01585
2.92968
2.87384
2.83099
2.78188
2.72608
2.66096
2.6025
2.55823
2.55778
2.6355
2.87633
3.1846
3.44581
3.54303
3.54816
3.51711
3.45195
3.38015
3.30782
3.22961
3.16187
3.10838
3.06214
3.0116
2.95672
2.90481
2.8653
2.83042
2.79271
2.74749
2.682
2.60579
2.5533
2.52598
2.50651
2.48709
2.46472
2.43981
2.40745
2.35139
2.28106
2.2353
2.21131
2.19035
2.17846
2.1682
2.16469
2.17772
3.13214
3.25735
3.35716
3.36339
3.35496
3.3236
3.27974
3.24875
3.18273
3.19241
3.54454
4.39506
5.14218
5.33692
5.21383
4.91998
4.63455
4.39586
4.19148
4.00176
3.82132
3.65088
3.49297
3.34477
3.20471
3.06841
2.93137
2.79548
2.66581
2.54852
2.45474
2.37934
2.29996
2.21222
2.12648
2.06057
1.99938
1.93721
1.87643
1.82985
1.79717
1.85126
2.1194
2.61416
3.03698
3.14963
3.11638
3.0063
2.91282
2.86218
2.81768
2.77623
2.72408
2.67746
2.6284
2.66534
2.85232
3.19371
3.48794
3.68723
3.75086
3.72317
3.64489
3.53987
3.44312
3.37106
3.2989
3.23682
3.1862
3.13696
3.08739
3.03727
2.98756
2.93556
2.88635
2.84309
2.8014
2.75452
2.69553
2.63182
2.58067
2.54588
2.52035
2.49663
2.47052
2.43899
2.40049
2.35809
2.30906
2.26224
2.23053
2.20564
2.18087
2.15641
2.14098
2.1186
2.6019
3.10626
3.34452
3.34819
3.32172
3.29745
3.28897
3.29797
3.45924
4.20653
5.36896
5.80082
5.72648
5.58138
5.37379
5.13365
4.8654
4.59216
4.33767
4.11139
3.91302
3.73479
3.57119
3.4182
3.2725
3.13366
2.99735
2.8606
2.72489
2.5981
2.49016
2.39676
2.31353
2.24014
2.16848
2.09263
2.01857
1.94936
1.88418
1.81555
1.77397
1.7335
1.74169
1.88593
2.27436
2.74512
2.98297
2.97601
2.93576
2.87663
2.80214
2.77021
2.73846
2.77158
2.8906
3.19766
3.55919
3.75289
3.77192
3.77962
3.7771
3.74225
3.67553
3.58477
3.4808
3.38085
3.29565
3.2344
3.19233
3.15181
3.10649
3.06071
3.01601
2.96432
2.90638
2.8528
2.80551
2.75841
2.70286
2.64316
2.59659
2.56162
2.53097
2.50158
2.47134
2.4409
2.41097
2.37846
2.33162
2.28584
2.25354
2.22812
2.19858
2.16824
2.14142
2.09899
1.74745
2.3867
3.06811
3.22076
3.23772
3.28876
3.44017
3.88592
4.87989
6.01187
6.51558
6.44151
6.09223
5.7331
5.4982
5.27844
5.01906
4.73095
4.4538
4.2106
4.00434
3.82156
3.64876
3.48236
3.31935
3.16144
3.02715
2.9119
2.78412
2.65095
2.54339
2.4524
2.36372
2.26705
2.1844
2.12071
2.05514
1.97553
1.89965
1.835
1.77204
1.7201
1.69627
1.67494
1.7286
1.98748
2.45568
2.72617
2.82505
2.80902
2.78675
2.80774
2.96546
3.25544
3.59624
3.97004
4.09462
4.03677
3.9283
3.81932
3.73898
3.69246
3.65272
3.6025
3.52446
3.42294
3.3223
3.24888
3.19749
3.15325
3.11036
3.06799
3.02839
2.98508
2.9284
2.86397
2.80696
2.75443
2.70281
2.65344
2.61215
2.57896
2.5482
2.51696
2.48519
2.45202
2.40486
2.34992
2.31696
2.29181
2.26725
2.24416
2.21719
2.18668
2.15225
2.09223
1.42843
1.60532
2.19879
2.869
3.19249
3.70369
4.49413
5.52142
6.26945
6.55824
6.54328
6.47487
6.2749
5.97189
5.6698
5.37599
5.08199
4.79717
4.53268
4.29786
4.09073
3.89993
3.71486
3.53078
3.35459
3.19369
3.03754
2.87824
2.78416
2.72986
2.65272
2.54818
2.4368
2.32147
2.22656
2.13279
2.04208
1.99118
1.95702
1.90598
1.83383
1.76259
1.69971
1.65222
1.63145
1.64566
1.79412
2.12454
2.53135
2.71781
2.82868
3.2013
3.68106
3.95718
4.14728
4.19638
4.17581
4.0658
3.95044
3.85941
3.75633
3.68087
3.63221
3.59015
3.5339
3.44932
3.35996
3.29144
3.22939
3.17716
3.13121
3.08733
3.04043
2.99052
2.9393
2.88603
2.82738
2.76872
2.71267
2.66517
2.62579
2.59423
2.56707
2.54203
2.51622
2.47959
2.42203
2.35012
2.30729
2.28774
2.27196
2.25546
2.23442
2.20776
2.172
2.09442
1.40059
1.41133
1.55758
2.15577
3.35793
4.68964
5.80093
6.63583
7.02514
6.79394
6.48756
6.41827
6.33351
6.12913
5.79452
5.42642
5.08804
4.7962
4.53926
4.31014
4.10235
3.91653
3.75104
3.58846
3.41042
3.22318
3.05518
2.91185
2.7912
2.6957
2.60837
2.50059
2.40304
2.35624
2.28573
2.18701
2.09096
2.01178
1.93404
1.86077
1.77905
1.70181
1.66056
1.64948
1.62888
1.59153
1.60351
1.68763
1.9983
2.63085
3.18113
3.82999
4.23814
4.42167
4.42707
4.3668
4.21344
4.04914
3.93811
3.85904
3.77497
3.70021
3.63658
3.57004
3.50596
3.44432
3.36755
3.27785
3.20901
3.15624
3.11455
3.08372
3.05509
3.0193
2.96281
2.87833
2.79806
2.74531
2.70107
2.66034
2.62742
2.60071
2.57613
2.54934
2.51543
2.47031
2.40927
2.34848
2.31209
2.28914
2.27
2.25256
2.23348
2.21084
2.18148
2.10296
1.40057
1.41183
1.55008
2.18375
3.35364
4.63637
5.84141
6.63397
7.02454
6.83536
6.53666
6.43236
6.32101
6.09556
5.75601
5.38968
5.05949
4.78002
4.54471
4.33277
4.13118
3.93811
3.75315
3.5748
3.39624
3.20658
3.02805
2.91484
2.82115
2.70923
2.60045
2.5037
2.41496
2.31404
2.22501
2.14832
2.07894
2.00819
1.93618
1.86272
1.77393
1.69853
1.6603
1.63574
1.60865
1.58736
1.60111
1.68842
1.98447
2.565
3.3242
3.85024
4.15946
4.43417
4.43709
4.32311
4.1598
4.04454
3.9654
3.89066
3.79678
3.70913
3.6371
3.57002
3.50584
3.43751
3.3562
3.268
3.20217
3.15848
3.1248
3.09142
3.05104
3.00305
2.94877
2.87846
2.79472
2.73806
2.7099
2.68151
2.65254
2.62681
2.60204
2.57185
2.53079
2.4771
2.40993
2.34588
2.31387
2.29733
2.28258
2.26597
2.24889
2.23019
2.20374
2.11569
1.42816
1.6086
2.18761
2.89481
3.18633
3.66241
4.53575
5.51526
6.27071
6.56945
6.57281
6.48148
6.27402
5.96082
5.6535
5.36153
5.07053
4.78536
4.52117
4.28632
4.08002
3.894
3.71995
3.55662
3.40096
3.24212
3.07958
2.92366
2.77324
2.64938
2.55325
2.47254
2.38451
2.28124
2.19711
2.15197
2.10898
2.04926
1.97938
1.89936
1.81458
1.73345
1.67039
1.63307
1.61845
1.6449
1.79664
2.16386
2.53067
2.67557
2.9574
3.24669
3.61013
3.95745
4.1148
4.15186
4.13278
4.08365
4.00565
3.9086
3.79918
3.71583
3.65411
3.59526
3.52503
3.4389
3.3514
3.27521
3.22687
3.1902
3.15599
3.11886
3.07426
3.01581
2.94328
2.86975
2.80406
2.74873
2.69956
2.65939
2.62499
2.59389
2.56599
2.5374
2.50369
2.46146
2.41261
2.36591
2.32898
2.29776
2.27033
2.24513
2.22192
2.20001
2.17408
2.10319
1.7478
2.38859
3.06276
3.22932
3.23656
3.28365
3.44611
3.89221
4.87121
6.01097
6.52941
6.44463
6.08086
5.7198
5.48608
5.27023
5.01412
4.73094
4.45684
4.21679
4.01196
3.83045
3.65937
3.49167
3.32229
3.1572
3.0107
2.87629
2.75701
2.65328
2.55245
2.44976
2.34634
2.25784
2.19005
2.11801
2.03901
1.9648
1.89794
1.82763
1.77651
1.73121
1.68915
1.68066
1.73727
2.0095
2.42651
2.78944
2.84523
2.79851
2.787
2.79861
2.9147
3.22338
3.59904
3.93922
4.10475
4.08536
3.98251
3.85049
3.75132
3.68901
3.64463
3.59174
3.51515
3.4181
3.32519
3.24606
3.19851
3.15886
3.11817
3.07991
3.03994
2.98567
2.91606
2.85318
2.80247
2.75119
2.69485
2.6555
2.62659
2.59457
2.55942
2.52328
2.48647
2.44791
2.40214
2.35697
2.32817
2.30714
2.2831
2.25608
2.22301
2.18761
2.15286
2.09388
2.604
3.10491
3.34392
3.34925
3.3222
3.29548
3.288
3.29773
3.45491
4.19536
5.36695
5.79672
5.71839
5.57748
5.37178
5.13616
4.87118
4.59808
4.34362
4.1185
3.92034
3.74109
3.57322
3.41274
3.26159
3.12291
2.99219
2.86126
2.72942
2.60286
2.48919
2.39552
2.32203
2.25628
2.18327
2.10589
2.0228
1.94199
1.87505
1.81607
1.78223
1.74821
1.75659
1.88786
2.2863
2.75238
2.97437
2.97868
2.92933
2.8436
2.77223
2.75594
2.73042
2.75987
2.89091
3.21204
3.59171
3.78166
3.79236
3.78466
3.76391
3.70751
3.63835
3.56098
3.47807
3.39334
3.3144
3.25012
3.21066
3.16806
3.11473
3.06082
3.00721
2.94629
2.88574
2.83906
2.79997
2.75956
2.71645
2.66522
2.61362
2.57194
2.53487
2.49901
2.46524
2.43498
2.40535
2.37178
2.33332
2.29247
2.25895
2.2306
2.19826
2.16388
2.13549
2.09592
3.13291
3.25736
3.35686
3.36298
3.35466
3.32333
3.27936
3.24841
3.18229
3.19151
3.54517
4.39498
5.14206
5.33205
5.21142
4.9229
4.63927
4.4012
4.19757
4.00782
3.82534
3.65163
3.48985
3.33933
3.19811
3.06074
2.92576
2.79482
2.66993
2.55481
2.46278
2.38816
2.30786
2.22125
2.13418
2.05995
1.99436
1.93906
1.88526
1.8452
1.80654
1.86052
2.1299
2.60341
3.05877
3.14984
3.10996
3.00555
2.90742
2.85016
2.80283
2.7658
2.71922
2.6784
2.63305
2.67448
2.85741
3.17923
3.49855
3.67347
3.73021
3.6972
3.61495
3.52022
3.44433
3.3871
3.32477
3.25742
3.20029
3.14561
3.08445
3.02202
2.96557
2.9182
2.87796
2.84098
2.80136
2.75807
2.70971
2.64388
2.5824
2.5434
2.51327
2.48644
2.46136
2.43268
2.39772
2.35796
2.31594
2.27033
2.23145
2.20106
2.18001
2.15828
2.14072
2.1176
3.3301
3.31751
3.30565
3.3022
3.29789
3.2859
3.25807
3.20632
3.09625
2.98077
2.84266
2.95303
3.53026
4.32478
4.68638
4.64291
4.46341
4.25797
4.06274
3.87628
3.69677
3.5262
3.36977
3.22909
3.10212
2.98001
2.85918
2.73707
2.61886
2.50431
2.40956
2.33553
2.27005
2.20267
2.13083
2.05959
1.98692
1.93076
1.88539
1.89494
2.04534
2.48141
2.96836
3.28389
3.30498
3.26561
3.13891
3.00493
2.92828
2.87993
2.836
2.78491
2.72823
2.66303
2.60654
2.56422
2.55785
2.62605
2.87445
3.17705
3.42968
3.54283
3.54241
3.51182
3.45604
3.39824
3.33388
3.25506
3.1769
3.11108
3.04915
2.98864
2.93554
2.89526
2.86816
2.84414
2.81673
2.77486
2.6975
2.60119
2.54874
2.52167
2.49739
2.47454
2.45341
2.4301
2.40346
2.36383
2.30176
2.24241
2.21131
2.19021
2.17961
2.16679
2.15652
2.17843
3.30092
3.31688
3.31225
3.30452
3.2905
3.26699
3.22152
3.12561
2.99726
2.82455
2.673
2.48256
2.50398
2.82125
3.53072
4.14752
4.24411
4.12898
3.92245
3.72077
3.54321
3.39006
3.25126
3.12215
3.00185
2.88333
2.76357
2.64864
2.55233
2.46489
2.39265
2.32753
2.26542
2.18956
2.10996
2.02867
1.9828
1.94614
2.00232
2.30251
2.84626
3.29654
3.4322
3.42814
3.3604
3.24503
3.11841
3.01873
2.95687
2.90367
2.85131
2.794
2.73457
2.6703
2.61408
2.55467
2.52195
2.46833
2.47516
2.59953
2.86275
3.18496
3.41813
3.48083
3.46263
3.39513
3.29737
3.21115
3.14045
3.0834
3.03032
2.97359
2.92422
2.88963
2.86156
2.83047
2.79092
2.73735
2.64951
2.56311
2.52469
2.50391
2.48707
2.46953
2.44922
2.42434
2.39202
2.34332
2.27536
2.22677