/*--------------------------------*- C++ -*----------------------------------*\
  =========                 |
  \\      /  F ield         | OpenFOAM: The Open Source CFD Toolbox
   \\    /   O peration     | Website:  https://openfoam.org
    \\  /    A nd           | Version:  7
     \\/     M anipulation  |
\*---------------------------------------------------------------------------*/
FoamFile
{
    version     2.0;
    format      ascii;
    class       volScalarField;
    location    "1.7";
    object      T;
}
// * * * * * * * * * * * * * * * * * * * * * * * * * * * * * * * * * * * * * //

dimensions      [0 0 0 1 0 0 0];

internalField   nonuniform List<scalar> 
4608
(
1
1
1
1
1
1
1
1
1
1
1
1
1
1
1
1
1
1
1
1
1
1
1
1
1
1
1
1
1
1
1
1
1
1
1
1
1
1
1
1
1
1
1
1
1
1
1
1
1
1
1
1
1
1
1
1
1
1
1
1
1
1
1
1
1
1
1
1
1
1
1
1
1
1
1
1
1
1
1
1
1
1
1
1
1
1
1
1
1
1
1
1
1
1
1
1
1
1
1
1
1
1
1
1
1
1
1
1
1
1
1
1
1
1
1
1
1
1
1
1
1
1
1
1
1
1
1
1
1
1
1
1
1
1
1
1
1
1
1
1
1
1
1
1
1
1
1
1
1
1
1
1
1
1
1
1
1
1
1
1
1
1
1
1
1
1
1
1
1
1
1
1
1
1
1
1
1
1
1
1
1
1
1
1
1
1
1
1
1
1
1
1
1
1
1
1
1
1
1
1
1
1
1
1
1
1
1
1
1
1
1
1
1
1
1
1
1
1
1
1
1
1
1
1
1
1
1
1
1
1
1
1
1
1
1
1
1
1
1
1
1
1
1
1
1
1
1
1
1
1
1
1
1
1
1
1
1
1
1
1
1
1
1
1
1
1
1
1
1
1
1
1
1
1
1
1
1
1
1
1
1
1
1
1
1
1
1
1
1
1
1
1
1
1
1
1
1
1
1
1
1
1
1
1
1
1
1
1
1
1
1
1
1
1
1
1
1
1
1
1
1
1
1
1
1
1
1
1
1
1
1
1
1
1
1
1
1
1
1
1
1
1
1
1
1
1
1
1
1
1
1
1
1
1
1
1
1
1
1
1
1
1
1
1
1
1
1
1
1
1
1
1
1
1
1
1
1
1
1
1
1
1
1
1
1
1
1
1
1
1
1
1
1
1
1
1
1
1
1
1
1
1
1
1
1
1
1
1
1
1
1
1
1
1
1
1
1
1
1
1
1
1
1
1
1
1
1
1
1
1
1
1
1
1
1
1
1
1
1
1
1
1
1
1
1
1
1
1
1
1
1
1
1
1
1
1
1
1
1
1
1
1
1
1
1
1
1
1
1
1
1
1
1
1
1
1
1
1
1
1
1
1
1
1
1
1
1
1
1
1
1
1
1
1
1
1
1
1
1
1
1
1
1
1
1
1
1
1
1
1
1
1
1
1
1
1
1
1
1
1
1
1
1
1
1
1
1
1
1
1
1
1
1
1
1
1
1
1
1
1
1
1
1
1
1
1
1
1
1
1
1
1
1
1
1
1
1
1
1
1
1
1
1
1
1
1
1
1
1
1
1
1
1
1
1
1
1
1
1
1
1
1
1
1
1
1
1
1
1
1
1
1
1
1
1
1
1
1
1
1
1
1
1
1
1
1
1
1
1
1
1
1
1
1
1
1
1
1
1
1
1
1
1
1
1
1
1
1
1
1
1
1
1
1
1
1
1
1
1
1
1
1
1
1
1
1
1
1
1
1
1
1
1
1
1
1
1
1
1
1
1
1
1
1
1
1
1
1
1
1
1
1
1
1
1
1
1
1
1
1
1
1
1
1
1
1
1
1
1
1
1
1
1
1
1
1
1
1
1
1
1
1
1
1
1
1
1
1
1
1
1
1
1
1
1
1
1
1
1
1
1
1
1
1
1
1
1
1
1
1
1
1
1
1
1
1
1
1
1
1
1
1
1
1
1
1
1
1
1
1
1
1
1
1
1
1
1
1
1
1
1
1
1
1
1
1
1
1
1.07807
1.18317
1.28817
1.38895
1.48799
1.56959
1.63786
1.68464
1.69805
1.68121
1.63779
1.58568
1.54045
1.52616
1.51501
1.51527
1.51894
1.52365
1.52864
1.53382
1.53644
1.53745
1.53779
1.53956
1.00094
1.00567
1.02968
1.07283
1.14454
1.23241
1.3223
1.4086
1.479
1.51844
1.54924
1.56333
1.5579
1.55377
1.5451
1.537
1.53293
1.53011
1.53101
1.53443
1.53793
1.53936
1.53998
1.54123
1
0.999982
1.00007
1.0001
1.00121
1.00846
1.03654
1.11812
1.26681
1.45356
1.56635
1.62286
1.62197
1.61127
1.59268
1.56694
1.54664
1.53588
1.53593
1.53923
1.54392
1.54677
1.5472
1.54803
1
0.999999
0.999999
1
0.999996
1.00001
0.999966
1.00069
1.01208
1.10854
1.30515
1.50803
1.60777
1.60517
1.6031
1.59974
1.58361
1.56102
1.55557
1.5562
1.5568
1.55808
1.55968
1.56088
1
1
1
1
1
1
0.999996
0.999997
0.999964
1.00046
1.01675
1.1238
1.35701
1.51527
1.62562
1.62893
1.62181
1.60421
1.59076
1.58022
1.57428
1.57149
1.57113
1.57291
1
1
1
1
1
1
1
1
0.999997
0.999997
0.999965
1.00087
1.03148
1.17056
1.40314
1.54236
1.60987
1.61446
1.60886
1.60083
1.59098
1.58346
1.57761
1.57833
1
1
1
1
1
1
1
1
1
1
0.999998
0.999993
1.00001
1.00313
1.0565
1.24675
1.47725
1.56922
1.59228
1.59785
1.59651
1.58936
1.58222
1.57911
1
1
1
1
1
1
1
1
1
1
1
0.999999
0.999999
0.999989
1.00033
1.0134
1.12174
1.34398
1.52394
1.58961
1.59666
1.59337
1.58641
1.58225
1
1
1
1
1
1
1
1
1
1
1
1
1
0.999998
0.999999
0.999994
1.00239
1.05173
1.2241
1.43186
1.55154
1.58947
1.58945
1.58495
1
1
1
1
1
1
1
1
1
1
1
1
1
1
1
0.999999
0.999992
1.00048
1.01353
1.13848
1.35282
1.52259
1.55357
1.5689
1
1
1
1
1
1
1
1
1
1
1
1
1
1
1
1
0.999999
0.999997
1.00003
1.00592
1.06539
1.27814
1.47379
1.55577
1
1
1
1
1
1
1
1
1
1
1
1
1
1
1
1
1
1
0.999999
1.00001
1.00136
1.04064
1.21484
1.43767
1
1
1
1
1
1
1
1
1
1
1
1
1
1
1
1
1
1
1
1
0.999999
1.00085
1.02172
1.16177
1
1
1
1
1
1
1
1
1
1
1
1
1
1
1
1
1
1
1
1
1
0.999999
1.00033
1.00928
1
1
1
1
1
1
1
1
1
1
1
1
1
1
1
1
1
1
1
1
1
1
1
0.999987
1
1
1
1
1
1
1
1
1
1
1
1
1
1
1
1
1
1
1
1
1
1
1
0.999996
1
1
1
1
1
1
1
1
1
1
1
1
1
1
1
1
1
1
1
1
1
1
1
0.999996
1
1
1
1
1
1
1
1
1
1
1
1
1
1
1
1
1
1
1
1
1
1
1
0.999988
1
1
1
1
1
1
1
1
1
1
1
1
1
1
1
1
1
1
1
1
1
0.999999
1.00034
1.00922
1
1
1
1
1
1
1
1
1
1
1
1
1
1
1
1
1
1
1
1
0.999999
1.00085
1.02175
1.16148
1
1
1
1
1
1
1
1
1
1
1
1
1
1
1
1
1
1
0.999999
1.00001
1.00136
1.04066
1.21473
1.43773
1
1
1
1
1
1
1
1
1
1
1
1
1
1
1
1
0.999999
0.999997
1.00003
1.00591
1.06539
1.27819
1.47361
1.55583
1
1
1
1
1
1
1
1
1
1
1
1
1
1
1
0.999999
0.999992
1.00048
1.01354
1.13846
1.35288
1.52251
1.55353
1.56891
1
1
1
1
1
1
1
1
1
1
1
1
1
0.999998
0.999999
0.999994
1.00239
1.05173
1.22409
1.43185
1.55158
1.58945
1.58944
1.58496
1
1
1
1
1
1
1
1
1
1
1
0.999999
0.999999
0.999989
1.00033
1.0134
1.12174
1.34398
1.52393
1.58961
1.59667
1.59337
1.5864
1.58226
1
1
1
1
1
1
1
1
1
1
0.999998
0.999993
1.00001
1.00313
1.0565
1.24675
1.47725
1.56922
1.59228
1.59785
1.59651
1.58936
1.58222
1.57911
1
1
1
1
1
1
1
1
0.999997
0.999997
0.999965
1.00087
1.03148
1.17056
1.40314
1.54236
1.60987
1.61446
1.60886
1.60083
1.59098
1.58346
1.57761
1.57833
1
1
1
1
1
1
0.999996
0.999997
0.999964
1.00046
1.01675
1.1238
1.35701
1.51527
1.62562
1.62893
1.62181
1.60421
1.59076
1.58022
1.57428
1.57149
1.57113
1.57291
1
0.999999
0.999999
1
0.999996
1.00001
0.999966
1.00069
1.01208
1.10854
1.30515
1.50803
1.60777
1.60517
1.6031
1.59974
1.58361
1.56102
1.55557
1.5562
1.5568
1.55808
1.55968
1.56088
1
0.999982
1.00007
1.0001
1.00121
1.00846
1.03654
1.11812
1.26681
1.45356
1.56635
1.62286
1.62197
1.61127
1.59268
1.56694
1.54664
1.53588
1.53593
1.53923
1.54392
1.54677
1.5472
1.54803
1.00094
1.00567
1.02968
1.07283
1.14454
1.23241
1.3223
1.4086
1.479
1.51844
1.54924
1.56333
1.5579
1.55377
1.5451
1.537
1.53293
1.53011
1.53101
1.53443
1.53793
1.53936
1.53998
1.54123
1.07807
1.18317
1.28817
1.38895
1.48799
1.56959
1.63786
1.68464
1.69805
1.68121
1.63779
1.58568
1.54045
1.52616
1.51501
1.51527
1.51894
1.52365
1.52864
1.53382
1.53644
1.53745
1.53779
1.53956
1.39812
1.23262
1.1075
1.04348
0.988179
0.963247
0.977195
1.02203
1.05483
1.06686
1.07778
1.08307
1.08432
1.09124
1.10943
1.11639
1.11574
1.11228
1.10774
1.10823
1.10877
1.10921
1.11268
1.13762
1.2576
1.51643
1.76057
1.97276
2.13698
2.18849
2.14264
2.05727
1.99641
1.96672
1.95231
1.93695
1.91969
1.9009
1.87962
1.85547
1.83017
1.8067
1.78637
1.76871
1.75288
1.73768
1.72186
1.70506
1.68654
1.66634
1.64484
1.62508
1.61027
1.59905
1.58937
1.57994
1.57055
1.56005
1.54705
1.52952
1.50831
1.48656
1.46944
1.4621
1.4566
1.4508
1.44396
1.43673
1.4278
1.41531
1.39487
1.37735
1.37827
1.39142
1.43712
1.52051
1.61273
1.68521
1.73919
1.77052
1.79539
1.80811
1.80376
1.79087
1.76759
1.74115
1.72489
1.71004
1.70287
1.69808
1.69212
1.68522
1.67653
1.66276
1.64246
1.61898
1.4962
1.41435
1.31698
1.25361
1.19689
1.11103
1.0801
1.08401
1.07717
1.06207
1.04934
1.0472
1.04859
1.05449
1.06964
1.08198
1.08385
1.08455
1.08396
1.08657
1.08822
1.09222
1.12472
1.28387
1.47666
1.56161
1.6355
1.72509
1.87036
1.98123
2.04175
2.03445
2.008
1.98161
1.9602
1.94266
1.92546
1.90676
1.88609
1.86224
1.83743
1.81467
1.795
1.77756
1.76204
1.74705
1.73123
1.71426
1.69606
1.67644
1.65574
1.63644
1.62119
1.60919
1.59866
1.58878
1.57885
1.56794
1.55492
1.53832
1.51878
1.49932
1.48288
1.47165
1.46376
1.45701
1.44992
1.44348
1.43552
1.42435
1.40931
1.40785
1.42412
1.46562
1.52273
1.56399
1.59514
1.6335
1.67302
1.69853
1.71501
1.7308
1.7407
1.74692
1.74608
1.74124
1.73208
1.72117
1.71126
1.70378
1.69702
1.69022
1.68035
1.6656
1.64881
1.62671
1.53241
1.49278
1.42655
1.34876
1.29098
1.22812
1.15709
1.11921
1.09267
1.06454
1.04932
1.03787
1.03452
1.03593
1.04096
1.05063
1.05557
1.05731
1.06051
1.06573
1.07152
1.10805
1.29554
1.48018
1.57385
1.59111
1.58997
1.59303
1.63313
1.77332
1.93752
2.0194
2.02699
2.00763
1.9677
1.93812
1.9177
1.89782
1.87643
1.85252
1.82837
1.80677
1.7872
1.76905
1.75248
1.73698
1.72185
1.7063
1.68944
1.67057
1.65017
1.63053
1.61441
1.60213
1.59081
1.57948
1.56802
1.55637
1.54391
1.52933
1.51209
1.49442
1.4792
1.46579
1.45381
1.44483
1.43982
1.43656
1.4346
1.43341
1.4426
1.4761
1.52374
1.56014
1.58674
1.59863
1.60406
1.60575
1.61167
1.62397
1.63889
1.66477
1.69093
1.71754
1.73274
1.7387
1.73819
1.73238
1.72281
1.71087
1.69762
1.68658
1.67458
1.66023
1.64818
1.63278
1.55307
1.53346
1.4951
1.43217
1.3695
1.32454
1.26172
1.19281
1.16012
1.132
1.10877
1.0903
1.06998
1.04667
1.04484
1.04514
1.04343
1.04356
1.04571
1.05132
1.10417
1.29918
1.50849
1.55695
1.57849
1.58402
1.57329
1.55952
1.55081
1.56836
1.66603
1.8491
1.9744
1.97567
1.96845
1.94678
1.92341
1.89834
1.87367
1.85194
1.8337
1.81379
1.7918
1.77037
1.75081
1.734
1.72001
1.70724
1.69273
1.67416
1.65228
1.6321
1.61542
1.60272
1.5912
1.57888
1.56601
1.55385
1.54119
1.52711
1.51156
1.49508
1.48087
1.46761
1.45551
1.44601
1.443
1.44221
1.45579
1.49097
1.54133
1.59228
1.61717
1.62442
1.62416
1.6221
1.61271
1.60143
1.59266
1.58408
1.58145
1.58767
1.60396
1.63393
1.6708
1.70555
1.72113
1.7209
1.71708
1.71085
1.69895
1.6848
1.67155
1.66067
1.65335
1.64055
1.56855
1.55965
1.53805
1.50006
1.44268
1.39068
1.34824
1.29326
1.22493
1.18818
1.16597
1.14846
1.12498
1.0849
1.05109
1.04477
1.04445
1.04489
1.05506
1.14172
1.33151
1.53517
1.57866
1.57112
1.56519
1.55773
1.5469
1.5367
1.52928
1.51666
1.5195
1.57196
1.73692
1.88485
1.94804
1.94961
1.93368
1.90405
1.87677
1.8536
1.83147
1.80919
1.78742
1.76745
1.75032
1.73523
1.72063
1.70507
1.68752
1.66746
1.64504
1.62747
1.61757
1.60789
1.59603
1.58309
1.56926
1.5547
1.53661
1.51798
1.50879
1.50104
1.4914
1.47768
1.46726
1.45645
1.45916
1.4817
1.54062
1.59184
1.63961
1.65556
1.65299
1.64632
1.63586
1.62314
1.61208
1.60006
1.58731
1.57561
1.57002
1.56234
1.56114
1.56904
1.59257
1.63373
1.66968
1.69285
1.70959
1.70966
1.70296
1.68416
1.66767
1.65985
1.6565
1.64589
1.57746
1.57441
1.5667
1.54495
1.50877
1.4562
1.40612
1.36955
1.32416
1.2585
1.2152
1.2035
1.18953
1.16099
1.10697
1.07529
1.0758
1.09254
1.18953
1.39219
1.55367
1.60311
1.59498
1.57483
1.55469
1.54001
1.52901
1.51829
1.50745
1.49323
1.47874
1.46578
1.48991
1.60754
1.77365
1.88776
1.8996
1.89449
1.87476
1.85231
1.82937
1.80543
1.78298
1.76305
1.74693
1.73407
1.72195
1.70753
1.68946
1.66755
1.64556
1.62612
1.6108
1.59982
1.59067
1.58165
1.56967
1.55229
1.53155
1.51569
1.50282
1.4926
1.48595
1.48242
1.48074
1.49013
1.52866
1.59352
1.64036
1.66727
1.68018
1.67911
1.67322
1.66016
1.64299
1.62687
1.61437
1.60337
1.59203
1.57947
1.5683
1.56032
1.55512
1.55102
1.55025
1.56048
1.58291
1.60695
1.63528
1.6613
1.67126
1.66703
1.66105
1.66034
1.66409
1.6588
1.57963
1.57932
1.57697
1.57046
1.55022
1.51695
1.47017
1.41763
1.38595
1.3478
1.29744
1.24109
1.2265
1.2137
1.18325
1.14393
1.15871
1.28005
1.48614
1.61174
1.64114
1.62652
1.60044
1.57541
1.55388
1.5381
1.52317
1.50734
1.49095
1.47554
1.45806
1.44567
1.42852
1.43208
1.49186
1.64648
1.79058
1.86399
1.86095
1.84488
1.82184
1.79771
1.77592
1.7581
1.74363
1.731
1.71787
1.7023
1.6841
1.66328
1.64294
1.62417
1.6096
1.60028
1.5921
1.58243
1.56978
1.55228
1.52899
1.51034
1.49821
1.49425
1.49314
1.50785
1.54717
1.60016
1.65223
1.69084
1.6917
1.69212
1.68851
1.68055
1.66962
1.65731
1.64531
1.63339
1.62127
1.60709
1.59154
1.57846
1.56766
1.55992
1.55339
1.54803
1.54469
1.53947
1.53202
1.53375
1.54339
1.5677
1.59725
1.62391
1.64631
1.65479
1.66153
1.65851
1.5815
1.58136
1.58051
1.5776
1.57
1.55066
1.52099
1.4802
1.42717
1.39741
1.36477
1.32049
1.27062
1.24721
1.23309
1.26466
1.41354
1.60353
1.69937
1.69412
1.67218
1.64221
1.61239
1.58635
1.56392
1.54408
1.52236
1.50348
1.48516
1.4674
1.44658
1.43072
1.41474
1.40229
1.38749
1.40691
1.51278
1.67656
1.78173
1.8125
1.80831
1.79305
1.77422
1.75666
1.73899
1.72052
1.70421
1.6887
1.67275
1.65591
1.63953
1.62392
1.60985
1.59819
1.58851
1.57816
1.56484
1.54632
1.52403
1.51011
1.50408
1.5093
1.54008
1.61532
1.67681
1.71559
1.73117
1.72617
1.71674
1.70266
1.68905
1.67756
1.66624
1.65584
1.64609
1.63594
1.62416
1.60901
1.59048
1.57485
1.5664
1.55965
1.55253
1.5472
1.54276
1.53465
1.52409
1.50743
1.49753
1.50099
1.51638
1.54515
1.58534
1.61563
1.63069
1.63521
1.58518
1.58594
1.58549
1.58337
1.57917
1.56981
1.55118
1.52265
1.48516
1.44102
1.40634
1.3721
1.32824
1.3147
1.37225
1.54978
1.72172
1.76918
1.75687
1.72465
1.69033
1.66015
1.63126
1.60305
1.57669
1.55218
1.52774
1.50623
1.48636
1.46499
1.44308
1.42488
1.4088
1.39042
1.37264
1.35253
1.35294
1.40469
1.54416
1.6874
1.76137
1.77729
1.77204
1.75316
1.73189
1.71013
1.68875
1.6709
1.65726
1.64542
1.63401
1.62143
1.60774
1.59405
1.58259
1.5701
1.55599
1.54088
1.52433
1.51973
1.53388
1.58525
1.66433
1.74224
1.75603
1.74953
1.74043
1.72817
1.71295
1.69995
1.6887
1.67716
1.66499
1.65443
1.64489
1.63474
1.62265
1.60723
1.58863
1.57228
1.56353
1.55755
1.55183
1.54664
1.54104
1.53278
1.51995
1.50192
1.485
1.47843
1.47844
1.4845
1.50291
1.53489
1.56364
1.59483
1.5771
1.58171
1.58133
1.58087
1.57895
1.5755
1.56778
1.54963
1.5236
1.48662
1.45166
1.4077
1.41672
1.51783
1.69902
1.83759
1.84796
1.82577
1.78629
1.74676
1.71105
1.67925
1.64942
1.62073
1.59291
1.56449
1.53533
1.50679
1.48211
1.45912
1.44012
1.424
1.40823
1.38863
1.3678
1.34588
1.32995
1.3178
1.33611
1.43484
1.58747
1.69356
1.73295
1.73325
1.72144
1.70003
1.67584
1.65711
1.64402
1.63328
1.62331
1.61237
1.60067
1.58691
1.57384
1.55964
1.55203
1.541
1.54412
1.57641
1.64945
1.71969
1.77649
1.7842
1.77957
1.76238
1.74022
1.72161
1.70712
1.69603
1.68623
1.67488
1.66213
1.65085
1.64155
1.63114
1.61871
1.60477
1.58709
1.56812
1.55885
1.55385
1.54966
1.54486
1.53818
1.52945
1.5169
1.49891
1.48048
1.47097
1.46653
1.46393
1.4643
1.46977
1.48306
1.51725
1.57539
1.57433
1.57314
1.57404
1.57612
1.57536
1.57169
1.56279
1.54146
1.51801
1.49141
1.5267
1.68248
1.85474
1.91919
1.90945
1.87548
1.83663
1.7993
1.76339
1.72851
1.69446
1.66189
1.63136
1.603
1.57463
1.54573
1.51692
1.4893
1.46144
1.43679
1.41641
1.39939
1.38375
1.36722
1.34891
1.32803
1.31028
1.29414
1.29737
1.35271
1.48149
1.61498
1.68137
1.69265
1.68689
1.66561
1.6436
1.62738
1.61709
1.60961
1.601
1.59079
1.57767
1.56531
1.55435
1.55512
1.57735
1.64111
1.71613
1.77616
1.7902
1.78966
1.78123
1.76674
1.75158
1.73593
1.71899
1.70422
1.69265
1.68231
1.67065
1.65774
1.64506
1.63461
1.62463
1.61371
1.60142
1.58515
1.56708
1.55487
1.54866
1.54394
1.53839
1.53102
1.52226
1.51189
1.49729
1.47962
1.46792
1.46164
1.45602
1.45215
1.44928
1.44831
1.45365
1.51636
1.54785
1.574
1.58148
1.58114
1.57739
1.57121
1.56654
1.55535
1.56025
1.65766
1.84147
1.98171
2.00885
1.98733
1.93803
1.8884
1.84545
1.80768
1.77213
1.73775
1.70431
1.67211
1.6409
1.61065
1.5804
1.54986
1.5203
1.49216
1.46555
1.44284
1.42303
1.40175
1.37895
1.35714
1.34076
1.32558
1.30915
1.29163
1.27713
1.26839
1.28844
1.37962
1.51799
1.6208
1.64975
1.64519
1.6266
1.61105
1.603
1.59545
1.5879
1.57869
1.57012
1.56284
1.57368
1.62214
1.70349
1.76699
1.80816
1.81966
1.81385
1.79725
1.77513
1.75416
1.73698
1.72103
1.70817
1.69783
1.68762
1.67725
1.66605
1.65372
1.64002
1.62716
1.61629
1.60598
1.59436
1.57996
1.56474
1.55275
1.5445
1.53807
1.53157
1.52391
1.51455
1.50315
1.49113
1.47872
1.46806
1.46113
1.4552
1.44853
1.44163
1.43662
1.43058
1.38293
1.49858
1.56169
1.57405
1.57032
1.56744
1.56688
1.57003
1.60973
1.7774
1.99347
2.05374
2.04263
2.02045
1.98842
1.95049
1.90668
1.86037
1.81637
1.77656
1.74054
1.70697
1.675
1.64403
1.61375
1.58423
1.55482
1.52582
1.49732
1.46983
1.44465
1.42151
1.40025
1.38164
1.36312
1.34355
1.32485
1.3077
1.29087
1.27198
1.25926
1.24717
1.25086
1.30211
1.42429
1.54813
1.59951
1.61074
1.60461
1.5948
1.58102
1.57556
1.57285
1.58318
1.61553
1.68963
1.7688
1.80814
1.80913
1.8076
1.80757
1.80187
1.7894
1.77137
1.74986
1.72766
1.70827
1.69509
1.68693
1.67953
1.67126
1.66156
1.65006
1.63618
1.62142
1.60835
1.5974
1.58701
1.57491
1.56151
1.55049
1.54196
1.53426
1.5265
1.51818
1.50959
1.50128
1.49202
1.47955
1.46843
1.46138
1.45609
1.44962
1.4418
1.43361
1.42127
1.13236
1.32328
1.49283
1.53882
1.5452
1.55628
1.58982
1.68339
1.87185
2.06046
2.13575
2.1245
2.07585
2.0239
1.98895
1.95578
1.91486
1.868
1.82227
1.78165
1.74589
1.71279
1.68041
1.64806
1.6153
1.58332
1.55633
1.5329
1.50596
1.47701
1.45255
1.43089
1.40903
1.38518
1.36483
1.34914
1.33274
1.31256
1.2931
1.27571
1.25767
1.24253
1.23494
1.23001
1.25034
1.33895
1.47094
1.54152
1.57059
1.56883
1.5684
1.57667
1.61946
1.68715
1.75856
1.83063
1.85742
1.84793
1.8294
1.80868
1.7919
1.78116
1.77353
1.76416
1.74854
1.72681
1.70452
1.68902
1.67966
1.67243
1.66486
1.65588
1.646
1.63475
1.62065
1.60545
1.59273
1.58145
1.57047
1.55978
1.55046
1.5423
1.53417
1.52566
1.51697
1.5081
1.49587
1.48116
1.47233
1.46619
1.46085
1.45635
1.45091
1.44382
1.43426
1.41648
1.0101
1.07619
1.27275
1.45753
1.52614
1.63761
1.78685
1.95107
2.06951
2.11403
2.11833
2.10932
2.08121
2.03967
1.99824
1.95749
1.91491
1.87097
1.82855
1.79008
1.755
1.72131
1.68734
1.65233
1.61793
1.5865
1.55623
1.52428
1.50484
1.49367
1.47675
1.45241
1.42546
1.39769
1.37526
1.35267
1.32954
1.31669
1.30866
1.29546
1.27561
1.25528
1.23667
1.22288
1.217
1.22249
1.27542
1.38235
1.49626
1.54219
1.57197
1.6609
1.7704
1.82593
1.85583
1.86278
1.85965
1.84297
1.82549
1.80999
1.7902
1.77393
1.76363
1.7553
1.74405
1.7261
1.70684
1.69325
1.68251
1.67375
1.66492
1.65544
1.64472
1.63282
1.62055
1.60865
1.59587
1.58292
1.57051
1.5601
1.55133
1.54352
1.53598
1.52879
1.52155
1.51199
1.49703
1.47811
1.46724
1.4629
1.45988
1.45702
1.45308
1.44725
1.43768
1.41573
1.00017
1.00382
1.05715
1.25723
1.56003
1.8176
1.98696
2.10514
2.17059
2.14396
2.1043
2.09256
2.07996
2.05307
2.00935
1.95942
1.91177
1.86798
1.82718
1.78945
1.75457
1.72247
1.69249
1.66184
1.62779
1.59173
1.55894
1.53042
1.50614
1.48615
1.46643
1.44087
1.41716
1.40633
1.39042
1.36709
1.3428
1.32222
1.30209
1.2825
1.2597
1.2371
1.22493
1.22224
1.21696
1.20484
1.20836
1.23905
1.34364
1.51972
1.65065
1.78588
1.87384
1.90835
1.90678
1.89436
1.86655
1.83828
1.81928
1.80565
1.78997
1.77558
1.76266
1.74857
1.73485
1.7221
1.70659
1.6892
1.67666
1.66719
1.65912
1.65272
1.64641
1.63796
1.62459
1.60533
1.58728
1.57592
1.56661
1.55784
1.55014
1.54329
1.53657
1.52911
1.51991
1.50793
1.49213
1.47679
1.46782
1.46253
1.45861
1.45524
1.45134
1.44623
1.43878
1.41855
1.00017
1.00397
1.05562
1.26532
1.55983
1.80262
1.99096
2.10823
2.171
2.14896
2.11038
2.09373
2.07842
2.04915
2.00466
1.9548
1.90711
1.86502
1.82761
1.79281
1.75932
1.72631
1.69304
1.65956
1.62543
1.58874
1.55321
1.53053
1.51229
1.48908
1.46422
1.44109
1.41945
1.39548
1.37472
1.35658
1.3395
1.32161
1.30295
1.2832
1.25832
1.2361
1.22481
1.21792
1.21079
1.20315
1.20722
1.23817
1.3405
1.50357
1.68977
1.80259
1.85486
1.90132
1.90847
1.88857
1.85879
1.83747
1.82306
1.81084
1.79464
1.77848
1.7635
1.74863
1.7341
1.71985
1.70432
1.68797
1.67592
1.66789
1.66136
1.65448
1.64578
1.63468
1.62131
1.60424
1.58502
1.57336
1.56825
1.56265
1.55594
1.54908
1.54194
1.53342
1.52252
1.50878
1.49193
1.47604
1.4686
1.46522
1.46216
1.45853
1.45466
1.45045
1.44422
1.42275
1.01002
1.07707
1.26975
1.46395
1.52571
1.62586
1.79455
1.95505
2.0706
2.11473
2.12061
2.10866
2.08119
2.03904
1.99702
1.95621
1.91292
1.86863
1.82636
1.78777
1.75293
1.72031
1.68839
1.65716
1.62677
1.59613
1.5643
1.53304
1.50246
1.47578
1.45326
1.43366
1.41212
1.38714
1.36696
1.35697
1.34753
1.33337
1.31557
1.29399
1.27028
1.2467
1.22769
1.21693
1.21349
1.22287
1.27598
1.39166
1.49353
1.53063
1.60612
1.67879
1.74768
1.81148
1.84831
1.85952
1.85555
1.84621
1.83231
1.81645
1.79905
1.78409
1.77043
1.75661
1.74033
1.72206
1.70541
1.69174
1.68342
1.67675
1.66955
1.66132
1.6516
1.63856
1.62158
1.60398
1.5888
1.57677
1.56659
1.55839
1.55107
1.54335
1.53535
1.52694
1.51754
1.50667
1.49458
1.48294
1.474
1.46668
1.46021
1.4543
1.44885
1.44387
1.43759
1.41942
1.1324
1.32373
1.49175
1.54016
1.54508
1.55552
1.59164
1.68564
1.87048
2.05826
2.13651
2.12446
2.07435
2.02224
1.9875
1.95434
1.91387
1.86807
1.82343
1.78328
1.74756
1.71446
1.68198
1.64896
1.61486
1.58181
1.55252
1.52564
1.50113
1.47823
1.45492
1.43005
1.40436
1.38242
1.3656
1.34827
1.32945
1.31142
1.29385
1.27406
1.25935
1.24668
1.2333
1.2327
1.25325
1.34625
1.46522
1.55771
1.57398
1.5668
1.56825
1.57492
1.60559
1.67636
1.75838
1.83191
1.85834
1.85384
1.83654
1.81372
1.79572
1.78345
1.77389
1.76181
1.74454
1.72353
1.70426
1.68887
1.68057
1.67367
1.66563
1.65716
1.64794
1.6357
1.61985
1.60474
1.5925
1.58047
1.56839
1.56049
1.55436
1.547
1.53817
1.52838
1.51811
1.50769
1.49622
1.48461
1.47661
1.47093
1.4653
1.45931
1.45187
1.44363
1.43451
1.41786
1.3835
1.49836
1.56141
1.57426
1.57039
1.56721
1.56678
1.57006
1.60872
1.77406
1.99336
2.05369
2.04188
2.02023
1.98806
1.95047
1.90706
1.86146
1.81795
1.77829
1.74201
1.70792
1.67495
1.6427
1.61186
1.58283
1.5553
1.52772
1.49896
1.47026
1.44383
1.42065
1.40147
1.38448
1.36663
1.34813
1.32786
1.30756
1.28922
1.27213
1.26176
1.25225
1.25602
1.30316
1.42857
1.55152
1.59868
1.6113
1.60296
1.58731
1.57376
1.57233
1.57042
1.58013
1.61562
1.69464
1.7729
1.80896
1.81355
1.81157
1.80668
1.79577
1.78204
1.76567
1.74788
1.72873
1.71103
1.69785
1.69066
1.68279
1.67267
1.66145
1.64874
1.634
1.61966
1.60824
1.59821
1.5882
1.57853
1.56754
1.55618
1.5466
1.53723
1.52733
1.5178
1.50946
1.50153
1.4922
1.48117
1.47024
1.46223
1.45599
1.44876
1.44011
1.43217
1.42002
1.51663
1.5479
1.5739
1.58139
1.58108
1.57736
1.57118
1.56649
1.55527
1.55999
1.65776
1.84148
1.98192
2.00822
1.98678
1.93823
1.88902
1.84647
1.809
1.77337
1.73842
1.70424
1.67136
1.63992
1.6097
1.57953
1.54966
1.52077
1.49279
1.4663
1.44377
1.42402
1.40265
1.38037
1.35929
1.3409
1.32405
1.30928
1.29411
1.28192
1.2714
1.29165
1.38283
1.51567
1.62609
1.65047
1.64433
1.62687
1.61024
1.60041
1.59205
1.58563
1.57763
1.57062
1.56398
1.57559
1.62258
1.69871
1.76876
1.81017
1.81592
1.80808
1.79012
1.76999
1.75369
1.7404
1.72694
1.71281
1.70046
1.6887
1.67596
1.66265
1.64944
1.6373
1.62711
1.61817
1.608
1.5965
1.5841
1.56913
1.55574
1.54647
1.53837
1.53029
1.52241
1.51387
1.50372
1.49265
1.48152
1.47032
1.46067
1.4531
1.44761
1.44142
1.43589
1.42879
1.57545
1.57435
1.57312
1.57401
1.57607
1.57534
1.5717
1.5628
1.54147
1.51792
1.49153
1.52713
1.68349
1.85547
1.91957
1.90982
1.87594
1.83716
1.79982
1.76365
1.72823
1.69369
1.6609
1.63034
1.6018
1.57375
1.54584
1.51755
1.48984
1.46193
1.43748
1.41769
1.40082
1.38387
1.36596
1.34707
1.32631
1.30944
1.29652
1.30029
1.35292
1.48561
1.61442
1.68269
1.695
1.68859
1.6663
1.64166
1.62763
1.61881
1.61081
1.6016
1.59131
1.57831
1.56638
1.55482
1.55555
1.57502
1.64026
1.715
1.77506
1.78949
1.78715
1.77906
1.76737
1.75541
1.74135
1.72404
1.7068
1.69236
1.67854
1.66492
1.65293
1.64306
1.63523
1.62777
1.61954
1.6082
1.58982
1.56774
1.55504
1.54817
1.54191
1.5353
1.52816
1.51998
1.51131
1.50059
1.48529
1.4701
1.46145
1.45547
1.45212
1.44859
1.44443
1.45104
1.57714
1.58171
1.58132
1.58087
1.57896
1.57552
1.56779
1.54963
1.52359
1.48657
1.45168
1.40778
1.41701
1.51874
1.69978
1.83797
1.84813
1.8259
1.78623
1.74636
1.71031
1.67835
1.64855
1.6199
1.59224
1.56429
1.53554
1.50728
1.48323
1.46087
1.44173
1.42488
1.40881
1.38917
1.3676
1.34471
1.32887
1.31732
1.33717
1.43471
1.58667
1.69598
1.73294
1.73351
1.72167
1.70001
1.67553
1.65661
1.6449
1.63457
1.62438
1.6133
1.6017
1.58852
1.57579
1.56114
1.55248
1.53973
1.54241
1.57797
1.64873
1.7244
1.77838
1.78418
1.7796
1.76494
1.74308
1.72326
1.70759
1.69484
1.68285
1.67016
1.65911
1.65059
1.64204
1.63174
1.62007
1.60695
1.58732
1.56667
1.55679
1.55132
1.54668
1.54167
1.53553
1.52764
1.51749
1.5038
1.48599
1.47229
1.4667
1.4642
1.46305
1.46664
1.47808
1.51579
1.58519
1.58594
1.58548
1.58336
1.57917
1.56982
1.55119
1.52265
1.48516
1.441
1.40633
1.37211
1.32825
1.31479
1.37246
1.54969
1.72141
1.76889
1.75652
1.72417
1.68972
1.6596
1.63085
1.6027
1.57652
1.55233
1.52823
1.50703
1.48747
1.46611
1.44387
1.42536
1.40909
1.39022
1.37173
1.35127
1.35245
1.40446
1.54558
1.68473
1.76135
1.77834
1.7732
1.75516
1.7334
1.71079
1.68829
1.67083
1.65777
1.64611
1.63498
1.62285
1.60967
1.59645
1.58466
1.57152
1.5566
1.54013
1.52292
1.51954
1.53387
1.59001
1.67407
1.74517
1.75313
1.75026
1.74131
1.72518
1.70993
1.69756
1.68631
1.67459
1.66415
1.6549
1.64622
1.63675
1.62485
1.60784
1.58595
1.57017
1.56236
1.55603
1.55044
1.54529
1.54038
1.53426
1.52534
1.5089
1.48891
1.47873
1.47725
1.48247
1.49907
1.52766
1.56315
1.59784
1.5815
1.58136
1.58051
1.5776
1.57
1.55066
1.52099
1.4802
1.42717
1.39741
1.36477
1.32049
1.27063
1.24722
1.23307
1.26446
1.41296
1.60291
1.69894
1.69364
1.67191
1.64204
1.61233
1.58642
1.56422
1.5446
1.52299
1.50407
1.4857
1.46794
1.44686
1.43061
1.41436
1.40134
1.38645
1.40624
1.51169
1.67764
1.78193
1.8098
1.8066
1.79285
1.77474
1.75675
1.73921
1.72069
1.70394
1.6888
1.67314
1.65652
1.64037
1.62517
1.61156
1.59946
1.58876
1.57762
1.56388
1.54492
1.52313
1.51017
1.50441
1.51052
1.54354
1.61499
1.67344
1.71709
1.73148
1.72354
1.711
1.69939
1.6883
1.67761
1.66731
1.6576
1.64834
1.63843
1.62575
1.60781
1.58593
1.57356
1.56695
1.56009
1.5534
1.54848
1.5441
1.53732
1.52761
1.51169
1.49518
1.49706
1.51197
1.54321
1.57851
1.61341
1.6363
1.63929
1.57963
1.57932
1.57697
1.57046
1.55022
1.51695
1.47016
1.41763
1.38595
1.3478
1.29744
1.24109
1.2265
1.2137
1.18323
1.1439
1.15855
1.27964
1.48565
1.61144
1.64113
1.62655
1.6006
1.57561
1.55422
1.5385
1.52363
1.50783
1.49129
1.47555
1.45775
1.445
1.4277
1.43121
1.49141
1.6468
1.78911
1.86377
1.86121
1.84399
1.8207
1.79736
1.77587
1.75767
1.74296
1.7303
1.71753
1.70266
1.68494
1.66428
1.64365
1.62507
1.61113
1.60132
1.59196
1.58074
1.56699
1.54958
1.52789
1.51087
1.49863
1.49469
1.49319
1.50697
1.54305
1.59801
1.65303
1.68791
1.68988
1.69216
1.68865
1.68181
1.67168
1.65995
1.64751
1.63471
1.62076
1.60425
1.58832
1.57714
1.56655
1.559
1.55373
1.55014
1.54695
1.54237
1.53294
1.53042
1.53695
1.56053
1.59252
1.6205
1.64374
1.66422
1.66659
1.66155
1.57746
1.57441
1.5667
1.54495
1.50877
1.4562
1.40612
1.36955
1.32416
1.2585
1.21519
1.2035
1.18953
1.161
1.10697
1.07528
1.07579
1.09251
1.18945
1.39223
1.55382
1.60331
1.59527
1.57518
1.55506
1.54037
1.52923
1.51837
1.50735
1.49295
1.47823
1.46516
1.48934
1.60685
1.77398
1.88764
1.8992
1.89418
1.87449
1.85202
1.82907
1.8052
1.78225
1.76229
1.74656
1.73371
1.72155
1.70761
1.69018
1.66869
1.64651
1.62653
1.61074
1.59985
1.59143
1.58321
1.57087
1.55294
1.53246
1.51638
1.50282
1.49246
1.48568
1.4819
1.47951
1.48845
1.52843
1.59122
1.6396
1.6683
1.68221
1.68117
1.67432
1.6603
1.64312
1.62558
1.61072
1.59938
1.59019
1.57818
1.56701
1.56029
1.55644
1.55416
1.55303
1.56331
1.57996
1.59993
1.62825
1.65252
1.66159
1.66353
1.66665
1.6712
1.66997
1.65942
1.56855
1.55965
1.53805
1.50006
1.44268
1.39068
1.34824
1.29326
1.22493
1.18818
1.16597
1.14846
1.12498
1.0849
1.05109
1.04477
1.04445
1.0449
1.05508
1.14191
1.3319
1.53554
1.57884
1.57143
1.56545
1.55793
1.54697
1.53662
1.52909
1.51639
1.51912
1.57145
1.73641
1.88471
1.9488
1.94963
1.9337
1.90404
1.87686
1.85364
1.83128
1.8087
1.78682
1.76717
1.75046
1.73549
1.72083
1.70541
1.68808
1.66792
1.64545
1.62685
1.61556
1.60558
1.59415
1.58168
1.56877
1.55486
1.53687
1.51894
1.50964
1.50102
1.49103
1.47775
1.46699
1.45611
1.45911
1.48188
1.53996
1.5933
1.64332
1.65818
1.65593
1.64776
1.63541
1.62112
1.60924
1.59726
1.58519
1.5752
1.57024
1.56478
1.56309
1.57126
1.59649
1.63367
1.66306
1.68689
1.70254
1.70468
1.6993
1.68707
1.67995
1.67116
1.66215
1.64715
1.55307
1.53346
1.4951
1.43217
1.3695
1.32454
1.26172
1.19281
1.16012
1.132
1.10877
1.0903
1.06998
1.04667
1.04484
1.04514
1.04343
1.04357
1.04572
1.05134
1.10436
1.2996
1.50868
1.557
1.57873
1.58402
1.57316
1.55934
1.55058
1.56807
1.66557
1.84872
1.97419
1.97615
1.96892
1.94696
1.92353
1.89838
1.87347
1.85137
1.83313
1.81336
1.7916
1.77044
1.75112
1.73468
1.72094
1.70787
1.69265
1.67329
1.6511
1.63092
1.61499
1.60262
1.59062
1.57827
1.56617
1.55424
1.54138
1.52714
1.51116
1.49468
1.48055
1.46732
1.45514
1.44595
1.44314
1.44228
1.45577
1.49158
1.54423
1.5913
1.6179
1.62439
1.62271
1.62059
1.61125
1.6001
1.59135
1.58452
1.58265
1.58949
1.6056
1.63727
1.67288
1.69987
1.71556
1.71783
1.71528
1.70975
1.70186
1.69124
1.67706
1.66497
1.65541
1.63982
1.53241
1.49278
1.42655
1.34876
1.29098
1.22812
1.15709
1.11921
1.09267
1.06454
1.04932
1.03787
1.03452
1.03593
1.04096
1.05063
1.05557
1.05731
1.06052
1.06574
1.07153
1.10812
1.29546
1.47995
1.57388
1.59104
1.58984
1.59287
1.63291
1.77296
1.93732
2.01941
2.02709
2.00785
1.96803
1.93832
1.91773
1.89776
1.87619
1.85218
1.82798
1.80645
1.78714
1.76926
1.75288
1.73742
1.72211
1.70625
1.68908
1.6699
1.64923
1.6298
1.61432
1.6022
1.59083
1.57965
1.56826
1.55645
1.54378
1.52896
1.51164
1.4942
1.47906
1.46551
1.45352
1.4449
1.44001
1.43664
1.4347
1.43324
1.44253
1.47553
1.52128
1.55813
1.58375
1.59754
1.60333
1.6054
1.61194
1.62507
1.64023
1.66519
1.69151
1.71756
1.7313
1.73779
1.73737
1.73248
1.7252
1.7154
1.70353
1.68937
1.67477
1.65954
1.64753
1.63139
1.4962
1.41435
1.31698
1.25361
1.19689
1.11103
1.0801
1.08401
1.07717
1.06207
1.04934
1.0472
1.04859
1.05449
1.06964
1.08198
1.08385
1.08455
1.08396
1.08658
1.08822
1.09222
1.12463
1.28341
1.47634
1.56159
1.63547
1.72495
1.8703
1.9811
2.04185
2.03464
2.00817
1.98177
1.96021
1.94239
1.9252
1.90662
1.88596
1.86214
1.8374
1.81475
1.79511
1.77765
1.762
1.74683
1.73089
1.71391
1.69561
1.67587
1.65522
1.63622
1.62123
1.60942
1.59907
1.58916
1.57898
1.56784
1.55464
1.53799
1.51863
1.49933
1.48285
1.47152
1.46377
1.45714
1.45006
1.44355
1.43552
1.42421
1.40899
1.40756
1.42271
1.46517
1.52255
1.56516
1.59664
1.63364
1.6737
1.70056
1.71443
1.72833
1.73811
1.74346
1.74548
1.74145
1.73449
1.7256
1.71681
1.70832
1.69842
1.68868
1.67741
1.66107
1.64496
1.626
1.39812
1.23262
1.1075
1.04348
0.988179
0.963248
0.977195
1.02203
1.05483
1.06686
1.07778
1.08307
1.08432
1.09124
1.10943
1.11639
1.11574
1.11228
1.10774
1.10823
1.10877
1.10921
1.11267
1.13749
1.25729
1.5163
1.76049
1.97277
2.13712
2.18863
2.14287
2.05756
1.99667
1.96684
1.95222
1.93682
1.91941
1.9006
1.8794
1.85542
1.83027
1.80686
1.78652
1.76875
1.75276
1.73738
1.72149
1.70465
1.68604
1.66583
1.6445
1.62507