/*--------------------------------*- C++ -*----------------------------------*\
  =========                 |
  \\      /  F ield         | OpenFOAM: The Open Source CFD Toolbox
   \\    /   O peration     | Website:  https://openfoam.org
    \\  /    A nd           | Version:  7
     \\/     M anipulation  |
\*---------------------------------------------------------------------------*/
FoamFile
{
    version     2.0;
    format      ascii;
    class       volVectorField;
    location    "1.7";
    object      U;
}
// * * * * * * * * * * * * * * * * * * * * * * * * * * * * * * * * * * * * * //

dimensions      [0 1 -1 0 0 0 0];

internalField   nonuniform List<vector> 
4608
(
(3 1.16371e-17 0)
(3 9.65944e-17 0)
(3 -3.51642e-17 0)
(3 -8.81315e-17 0)
(3 7.1556e-17 0)
(3 1.01549e-16 0)
(3 -3.22656e-17 0)
(3 5.86959e-16 0)
(3 4.77602e-16 0)
(3 4.80769e-16 0)
(3 2.70831e-16 0)
(3 -2.77498e-16 0)
(3 -3.39802e-16 0)
(3 7.40878e-17 0)
(3 6.8849e-16 0)
(3 6.17866e-16 0)
(3 6.61298e-16 0)
(3 8.08656e-16 0)
(3 1.09712e-15 0)
(3 1.10178e-15 0)
(3 1.01283e-15 0)
(3 -5.5022e-17 0)
(3 -6.42462e-16 0)
(3 -6.02367e-16 0)
(3 1.2322e-17 0)
(3 3.79501e-16 0)
(3 -8.78375e-18 0)
(3 -5.01627e-16 0)
(3 -2.90659e-16 0)
(3 -3.3977e-16 0)
(3 -5.38337e-16 0)
(3 1.77433e-16 0)
(3 2.30452e-16 0)
(3 1.49712e-16 0)
(3 -7.43386e-16 0)
(3 -8.73859e-16 0)
(3 -7.48643e-16 0)
(3 -3.97348e-16 0)
(3 1.96761e-16 0)
(3 -2.33207e-17 0)
(3 3.91939e-16 0)
(3 9.16554e-16 0)
(3 1.0685e-15 0)
(3 5.4588e-16 0)
(3 4.39701e-16 0)
(3 -1.97632e-16 0)
(3 -3.70118e-16 0)
(3 -8.51884e-16 0)
(3 5.53315e-17 0)
(3 2.72654e-16 0)
(3 2.26913e-16 0)
(3 8.10816e-19 0)
(3 3.38153e-17 0)
(3 3.2088e-17 0)
(3 -1.57346e-16 0)
(3 -3.72734e-16 0)
(3 -2.45165e-16 0)
(3 -1.34198e-15 0)
(3 -2.23511e-15 0)
(3 -2.04354e-15 0)
(3 -1.14252e-15 0)
(3 -1.27944e-15 0)
(3 -1.18876e-15 0)
(3 -2.04061e-16 0)
(3 4.18381e-16 0)
(3 8.20288e-16 0)
(3 4.00691e-16 0)
(3 -5.58857e-16 0)
(3 -1.8761e-15 0)
(3 -1.78609e-15 0)
(3 -9.85587e-16 0)
(3 -1.92085e-15 0)
(3 1.37552e-16 0)
(3 4.63357e-17 0)
(3 1.60714e-16 0)
(3 2.29417e-16 0)
(3 8.61474e-16 0)
(3 7.61432e-16 0)
(3 6.92597e-16 0)
(3 3.52435e-16 0)
(3 2.21789e-16 0)
(3 -2.40765e-16 0)
(3 -1.8286e-16 0)
(3 -7.83058e-16 0)
(3 -7.29905e-16 0)
(3 -1.31004e-15 0)
(3 -1.24268e-15 0)
(3 -1.03046e-16 0)
(3 5.8484e-16 0)
(3 4.31701e-16 0)
(3 1.42786e-16 0)
(3 -4.71242e-16 0)
(3 -1.51235e-15 0)
(3 -3.14253e-15 0)
(3 -3.48114e-15 0)
(3 -2.25209e-15 0)
(3 -5.30286e-17 0)
(3 3.41714e-17 0)
(3 -7.32427e-17 0)
(3 5.0411e-16 0)
(3 7.31575e-16 0)
(3 8.25516e-16 0)
(3 7.30206e-16 0)
(3 9.70583e-16 0)
(3 3.07645e-16 0)
(3 1.16274e-16 0)
(3 4.86957e-16 0)
(3 6.58335e-16 0)
(3 1.85471e-16 0)
(3 -1.18969e-15 0)
(3 -1.72989e-15 0)
(3 -1.56341e-15 0)
(3 -7.01254e-16 0)
(3 -4.1185e-16 0)
(3 -2.04873e-16 0)
(3 -4.5225e-17 0)
(3 -1.58969e-16 0)
(3 -7.59514e-16 0)
(3 -1.76759e-15 0)
(3 -1.37103e-15 0)
(3 9.28897e-17 0)
(3 3.17924e-17 0)
(3 -3.62299e-16 0)
(3 2.58912e-17 0)
(3 -1.06916e-16 0)
(3 -1.6587e-16 0)
(3 -1.79769e-17 0)
(3 5.50536e-16 0)
(3 2.95717e-16 0)
(3 -7.6135e-16 0)
(3 -1.40441e-15 0)
(3 -8.878e-16 0)
(3 -1.18913e-15 0)
(3 -9.49964e-16 0)
(3 -1.0224e-15 0)
(3 -7.94702e-16 0)
(3 -5.21525e-16 0)
(3 -6.39198e-17 0)
(3 -2.29092e-16 0)
(3 -2.62315e-16 0)
(3 -3.38355e-16 0)
(3 -6.08403e-16 0)
(3 -1.91251e-15 0)
(3 -2.08587e-15 0)
(3 1.66356e-16 0)
(3 -4.50045e-16 0)
(3 -5.38907e-16 0)
(3 -1.27752e-15 0)
(3 -1.48352e-15 0)
(3 -1.59948e-15 0)
(3 -1.85673e-15 0)
(3 -1.47631e-15 0)
(3 -7.45311e-16 0)
(3 -1.74301e-16 0)
(3 -3.44775e-16 0)
(3 -5.37622e-16 0)
(3 1.23503e-17 0)
(3 9.9813e-17 0)
(3 4.05419e-18 0)
(3 4.36533e-16 0)
(3 1.62512e-17 0)
(3 1.04647e-16 0)
(3 2.46594e-16 0)
(3 -2.98904e-16 0)
(3 -3.71885e-16 0)
(3 -6.17238e-16 0)
(3 -1.6506e-15 0)
(3 -2.04055e-15 0)
(3 -4.26184e-17 0)
(3 -8.78649e-17 0)
(3 -2.79242e-16 0)
(3 -8.71603e-16 0)
(3 -8.25733e-16 0)
(3 -4.25439e-16 0)
(3 -7.45164e-16 0)
(3 -1.13954e-15 0)
(3 -7.29018e-16 0)
(3 8.70317e-16 0)
(3 1.73038e-15 0)
(3 1.99927e-15 0)
(3 2.65574e-15 0)
(3 3.15023e-15 0)
(3 2.63349e-15 0)
(3 1.10721e-15 0)
(3 1.50449e-16 0)
(3 6.18268e-17 0)
(3 -1.86404e-16 0)
(3 -5.81375e-16 0)
(3 -6.81386e-16 0)
(3 -9.33573e-16 0)
(3 -1.02823e-15 0)
(3 -1.49464e-15 0)
(3 3.13402e-16 0)
(3 2.67516e-16 0)
(3 3.11859e-16 0)
(3 4.74939e-16 0)
(3 5.36335e-16 0)
(3 1.65725e-15 0)
(3 1.83715e-15 0)
(3 1.17771e-15 0)
(3 6.40727e-16 0)
(3 7.16459e-16 0)
(3 1.71982e-15 0)
(3 2.3898e-15 0)
(3 2.32867e-15 0)
(3 2.39174e-15 0)
(3 2.24918e-15 0)
(3 1.75643e-15 0)
(3 6.57767e-16 0)
(3 -5.92609e-16 0)
(3 -1.09816e-15 0)
(3 -1.14984e-15 0)
(3 -1.32297e-15 0)
(3 -2.77754e-15 0)
(3 -3.20035e-15 0)
(3 -2.5862e-15 0)
(3 -1.52542e-16 0)
(3 -2.02148e-16 0)
(3 4.66257e-16 0)
(3 1.00682e-15 0)
(3 1.79373e-15 0)
(3 1.71813e-15 0)
(3 1.68098e-15 0)
(3 1.36233e-15 0)
(3 1.27152e-15 0)
(3 1.56813e-15 0)
(3 1.28913e-15 0)
(3 1.25955e-15 0)
(3 8.41533e-16 0)
(3 4.63976e-16 0)
(3 2.57582e-16 0)
(3 5.33035e-16 0)
(3 6.07436e-16 0)
(3 -2.07123e-16 0)
(3 -4.97426e-16 0)
(3 -5.63749e-16 0)
(3 -6.07087e-17 0)
(3 -4.51398e-16 0)
(3 -1.89048e-15 0)
(3 -2.55734e-15 0)
(3 -8.46737e-17 0)
(3 4.20074e-16 0)
(3 1.44398e-16 0)
(3 2.85346e-16 0)
(3 2.50064e-16 0)
(3 -3.0285e-16 0)
(3 1.25644e-16 0)
(3 2.02456e-16 0)
(3 1.06489e-15 0)
(3 1.42926e-15 0)
(3 1.14655e-15 0)
(3 1.00384e-15 0)
(3 5.25553e-16 0)
(3 -1.46233e-16 0)
(3 -5.75457e-16 0)
(3 -2.38435e-16 0)
(3 4.62705e-16 0)
(3 6.15609e-16 0)
(3 5.09967e-16 0)
(3 -2.51607e-16 0)
(3 -6.92684e-16 0)
(3 -2.01625e-16 0)
(3 -7.28144e-16 0)
(3 -1.17618e-15 0)
(3 8.88916e-17 0)
(3 6.96447e-17 0)
(3 -4.87147e-16 0)
(3 -1.16471e-15 0)
(3 -1.70584e-15 0)
(3 -1.92699e-15 0)
(3 -1.88182e-15 0)
(3 -1.15246e-15 0)
(3 -2.8883e-16 0)
(3 -2.60577e-16 0)
(3 -1.76401e-16 0)
(3 -3.66455e-16 0)
(3 -6.01857e-16 0)
(3 -9.6704e-16 0)
(3 -8.50136e-16 0)
(3 -1.12448e-16 0)
(3 4.98333e-16 0)
(3 1.35668e-15 0)
(3 2.00166e-15 0)
(3 9.20066e-16 0)
(3 -5.73586e-16 0)
(3 -1.17597e-15 0)
(3 -4.69323e-16 0)
(3 1.09807e-16 0)
(3 -9.88489e-17 0)
(3 -3.91072e-16 0)
(3 -6.35052e-16 0)
(3 -9.51908e-16 0)
(3 -1.29829e-15 0)
(3 -1.25498e-15 0)
(3 -9.26031e-16 0)
(3 -6.11912e-16 0)
(3 -2.19804e-16 0)
(3 -2.35734e-16 0)
(3 -5.96864e-16 0)
(3 -4.61653e-16 0)
(3 -2.70882e-16 0)
(3 3.15219e-16 0)
(3 4.33263e-16 0)
(3 4.32234e-16 0)
(3 2.94861e-16 0)
(3 8.77782e-16 0)
(3 1.04566e-15 0)
(3 4.53249e-16 0)
(3 1.88399e-16 0)
(3 5.68727e-16 0)
(3 1.49601e-15 0)
(3 1.97751e-15 0)
(3 -1.67836e-16 0)
(3 -3.92613e-16 0)
(3 -1.68619e-17 0)
(3 -1.56617e-16 0)
(3 -9.2919e-16 0)
(3 -6.85266e-16 0)
(3 -2.90936e-16 0)
(3 -3.27537e-16 0)
(3 -5.48717e-16 0)
(3 -5.80231e-16 0)
(3 -7.34384e-16 0)
(3 -2.80137e-16 0)
(3 9.03791e-16 0)
(3 1.29357e-15 0)
(3 1.43103e-15 0)
(3 1.02965e-15 0)
(3 2.52064e-16 0)
(3 -2.14912e-16 0)
(3 -2.90553e-16 0)
(3 6.82114e-16 0)
(3 1.1578e-15 0)
(3 1.86889e-15 0)
(3 2.26508e-15 0)
(3 2.23574e-15 0)
(3 -4.19793e-17 0)
(3 -8.68813e-17 0)
(3 2.91118e-16 0)
(3 5.18225e-16 0)
(3 3.7869e-16 0)
(3 7.63164e-17 0)
(3 -4.49236e-16 0)
(3 -1.30526e-15 0)
(3 -2.33093e-15 0)
(3 -2.66464e-15 0)
(3 -2.56201e-15 0)
(3 -2.1745e-15 0)
(3 -1.37235e-15 0)
(3 -9.07653e-16 0)
(3 -4.16597e-16 0)
(3 8.11187e-17 0)
(3 -9.77115e-18 0)
(3 -3.7335e-16 0)
(3 1.36886e-16 0)
(3 4.06221e-16 0)
(3 7.39933e-16 0)
(3 8.92398e-16 0)
(3 1.05074e-15 0)
(3 8.992e-16 0)
(3 1.83002e-16 0)
(3 2.48399e-16 0)
(3 5.09631e-16 0)
(3 6.79032e-16 0)
(3 1.04102e-15 0)
(3 8.85627e-16 0)
(3 8.81841e-16 0)
(3 4.69574e-17 0)
(3 -1.34207e-16 0)
(3 -6.71574e-16 0)
(3 -9.65847e-16 0)
(3 -1.21512e-15 0)
(3 -1.65385e-15 0)
(3 -1.27391e-15 0)
(3 -7.62634e-16 0)
(3 1.58333e-16 0)
(3 3.65818e-16 0)
(3 1.90805e-16 0)
(3 5.96682e-16 0)
(3 1.04539e-15 0)
(3 6.79587e-16 0)
(3 3.45854e-16 0)
(3 -2.06835e-16 0)
(3 -4.02241e-16 0)
(3 9.35466e-17 0)
(3 2.98278e-16 0)
(3 1.50867e-16 0)
(3 -6.64724e-18 0)
(3 2.78637e-16 0)
(3 1.28623e-15 0)
(3 2.0058e-15 0)
(3 1.86702e-15 0)
(3 1.75898e-15 0)
(3 2.21578e-15 0)
(3 2.34415e-15 0)
(3 2.07385e-15 0)
(3 1.12341e-15 0)
(3 8.11865e-16 0)
(3 1.12412e-15 0)
(3 2.6316e-15 0)
(3 3.0186e-15 0)
(3 1.80522e-15 0)
(3 1.10168e-15 0)
(3 1.18017e-15 0)
(3 1.12893e-15 0)
(3 1.2848e-15 0)
(3 4.45765e-16 0)
(3 -1.62216e-16 0)
(3 1.25513e-17 0)
(3 3.95342e-16 0)
(3 6.59316e-16 0)
(3 6.6299e-16 0)
(3 1.01422e-15 0)
(3 1.24119e-15 0)
(3 1.00181e-15 0)
(3 1.4098e-15 0)
(3 1.60703e-15 0)
(3 2.25757e-15 0)
(3 2.52537e-15 0)
(3 2.68321e-15 0)
(3 1.98579e-15 0)
(3 1.35385e-15 0)
(3 1.95023e-15 0)
(3 2.64923e-15 0)
(3 1.97467e-15 0)
(3 1.97376e-15 0)
(3 1.79424e-15 0)
(3 3.44964e-16 0)
(3 1.21127e-15 0)
(3 1.34135e-15 0)
(3 8.90997e-16 0)
(3 -4.87482e-16 0)
(3 3.06399e-17 0)
(3 1.60429e-16 0)
(3 7.07992e-17 0)
(3 -2.39761e-16 0)
(3 -2.71362e-16 0)
(3 -6.62853e-16 0)
(3 -9.36069e-16 0)
(3 -4.65617e-16 0)
(3 -2.11108e-16 0)
(3 -3.1783e-16 0)
(3 -4.05168e-16 0)
(3 -3.77429e-16 0)
(3 -7.1273e-16 0)
(3 -3.42301e-16 0)
(3 2.13815e-17 0)
(3 -5.45284e-17 0)
(3 2.10864e-16 0)
(3 1.10818e-15 0)
(3 7.81573e-16 0)
(3 -4.34761e-16 0)
(3 7.47406e-16 0)
(3 1.26795e-15 0)
(3 1.14005e-15 0)
(3 -3.47743e-16 0)
(3 2.44299e-17 0)
(3 -2.78113e-17 0)
(3 -4.51265e-16 0)
(3 -4.16111e-16 0)
(3 -6.26363e-16 0)
(3 -8.01157e-16 0)
(3 -8.45332e-16 0)
(3 -8.83886e-16 0)
(3 -8.89968e-16 0)
(3 -1.24029e-15 0)
(3 -1.8767e-15 0)
(3 -1.66895e-15 0)
(3 -1.00707e-15 0)
(3 -8.66921e-16 0)
(3 -1.3591e-15 0)
(3 -1.95298e-15 0)
(3 -8.61402e-16 0)
(3 6.30274e-16 0)
(3 5.90148e-16 0)
(3 7.87241e-16 0)
(3 1.33439e-15 0)
(3 1.5148e-15 0)
(3 1.28885e-15 0)
(3 1.49214e-16 0)
(3 7.93038e-18 0)
(3 2.10847e-16 0)
(3 3.78641e-16 0)
(3 5.70445e-16 0)
(3 8.0383e-16 0)
(3 6.47433e-16 0)
(3 4.73159e-16 0)
(3 -1.48257e-17 0)
(3 -3.94424e-16 0)
(3 -3.166e-16 0)
(3 -3.45554e-16 0)
(3 -3.14286e-16 0)
(3 -4.07364e-16 0)
(3 -4.2406e-16 0)
(3 -1.02777e-15 0)
(3 -1.61334e-15 0)
(3 -2.14347e-15 0)
(3 -1.87227e-15 0)
(3 -3.78004e-16 0)
(3 8.63787e-16 0)
(3 1.45722e-15 0)
(3 1.39654e-15 0)
(3 1.12294e-15 0)
(3 -3.1349e-16 0)
(3 -1.99326e-16 0)
(3 -1.23644e-16 0)
(3 -1.35047e-16 0)
(3 9.08308e-18 0)
(3 4.17629e-16 0)
(3 7.80851e-16 0)
(3 3.16358e-16 0)
(3 6.90278e-17 0)
(3 2.39621e-16 0)
(3 1.05098e-16 0)
(3 3.2056e-16 0)
(3 -2.48927e-17 0)
(3 -4.79375e-16 0)
(3 -5.84428e-16 0)
(3 -1.08772e-15 0)
(3 -1.52678e-15 0)
(3 -1.43277e-15 0)
(3 -1.46384e-15 0)
(3 -1.97038e-16 0)
(3 6.91845e-16 0)
(3 3.0891e-16 0)
(3 2.71173e-16 0)
(3 2.83708e-16 0)
(3 7.15443e-16 0)
(3 9.42238e-18 0)
(3 -1.59152e-17 0)
(3 1.01983e-17 0)
(3 1.14277e-16 0)
(3 2.1952e-16 0)
(3 7.88148e-17 0)
(3 -8.83476e-17 0)
(3 2.54532e-16 0)
(3 4.95458e-16 0)
(3 2.31802e-16 0)
(3 4.31022e-17 0)
(3 -1.22886e-16 0)
(3 -4.31221e-16 0)
(3 -9.67518e-16 0)
(3 -1.81529e-15 0)
(3 -1.96457e-15 0)
(3 -5.96229e-16 0)
(3 3.00209e-16 0)
(3 4.59543e-16 0)
(3 2.76631e-16 0)
(3 3.01596e-16 0)
(3 4.91717e-16 0)
(3 7.2336e-16 0)
(3 1.91759e-15 0)
(3 6.39349e-17 0)
(3 -4.68233e-16 0)
(3 -6.62656e-17 0)
(3 8.22433e-17 0)
(3 2.28005e-16 0)
(3 -8.72228e-17 0)
(3 2.12983e-16 0)
(3 3.55775e-16 0)
(3 2.7929e-16 0)
(3 4.36732e-16 0)
(3 -2.17135e-18 0)
(3 -1.8344e-16 0)
(3 -8.61468e-16 0)
(3 -1.1068e-15 0)
(3 -1.1886e-15 0)
(3 -1.22416e-15 0)
(3 -3.84003e-16 0)
(3 1.32074e-15 0)
(3 1.12974e-15 0)
(3 -1.37169e-16 0)
(3 -4.27074e-17 0)
(3 3.22917e-16 0)
(3 1.2271e-15 0)
(3 2.29009e-15 0)
(3 -3.82958e-16 0)
(3 -4.03097e-16 0)
(3 -3.10209e-16 0)
(3 -4.40152e-16 0)
(3 -3.13096e-16 0)
(3 -2.15385e-16 0)
(3 6.55865e-17 0)
(3 8.92971e-18 0)
(3 2.27678e-18 0)
(3 -9.25843e-17 0)
(3 -2.1173e-16 0)
(3 -4.11652e-16 0)
(3 -5.66208e-16 0)
(3 -4.70541e-16 0)
(3 -5.15072e-17 0)
(3 -1.13113e-16 0)
(3 1.62218e-16 0)
(3 1.12548e-15 0)
(3 1.60272e-15 0)
(3 7.78604e-16 0)
(3 -1.16942e-16 0)
(3 -9.22204e-16 0)
(3 -1.34974e-15 0)
(3 1.54109e-16 0)
(3 -3.00325e-17 0)
(3 8.71308e-17 0)
(3 9.89142e-17 0)
(3 -5.18348e-17 0)
(3 -9.09124e-16 0)
(3 -1.21754e-15 0)
(3 -1.3437e-15 0)
(3 -1.39399e-15 0)
(3 -2.31738e-15 0)
(3 -2.31033e-15 0)
(3 -1.65107e-15 0)
(3 -1.53574e-15 0)
(3 -8.48988e-16 0)
(3 -1.04663e-16 0)
(3 -2.74566e-16 0)
(3 -2.86259e-16 0)
(3 -5.3692e-16 0)
(3 -7.07233e-16 0)
(3 -8.4678e-16 0)
(3 1.03236e-15 0)
(3 4.73241e-16 0)
(3 -1.15941e-15 0)
(3 -2.28428e-15 0)
(3 -1.21945e-15 0)
(3 4.24689e-16 0)
(3 1.63643e-16 0)
(3 1.34911e-16 0)
(3 4.22688e-16 0)
(3 -1.56649e-16 0)
(3 -2.48489e-16 0)
(3 -3.79767e-16 0)
(3 -4.18625e-16 0)
(3 -3.33756e-16 0)
(3 -2.41662e-16 0)
(3 -3.61502e-16 0)
(3 1.24561e-16 0)
(3 1.58536e-16 0)
(3 3.66847e-17 0)
(3 -2.88046e-16 0)
(3 -5.83473e-16 0)
(3 -9.00783e-16 0)
(3 -8.56494e-16 0)
(3 -7.07635e-16 0)
(3 -1.70797e-16 0)
(3 -5.69148e-16 0)
(3 -1.34393e-15 0)
(3 -1.18631e-15 0)
(3 -1.05493e-15 0)
(3 8.34138e-18 0)
(3 5.49139e-17 0)
(3 -1.11522e-17 0)
(3 4.2604e-16 0)
(3 3.62907e-16 0)
(3 7.18496e-17 0)
(3 -5.59414e-17 0)
(3 -2.12258e-18 0)
(3 2.60602e-16 0)
(3 1.36254e-15 0)
(3 1.69224e-15 0)
(3 2.15145e-15 0)
(3 1.51732e-15 0)
(3 6.65291e-16 0)
(3 3.56014e-16 0)
(3 1.6155e-16 0)
(3 8.47586e-16 0)
(3 7.16737e-16 0)
(3 5.66617e-16 0)
(3 -1.12284e-15 0)
(3 -2.81339e-15 0)
(3 -7.18205e-16 0)
(3 4.67506e-16 0)
(3 -2.02593e-16 0)
(3 -1.1787e-16 0)
(3 -3.08647e-16 0)
(3 -8.98111e-17 0)
(3 1.51558e-16 0)
(3 5.29303e-16 0)
(3 1.75501e-16 0)
(3 -7.2438e-16 0)
(3 -9.37539e-16 0)
(3 -8.69371e-16 0)
(3 -2.66906e-16 0)
(3 7.14161e-16 0)
(3 8.32265e-16 0)
(3 9.81436e-16 0)
(3 1.14544e-15 0)
(3 1.60749e-15 0)
(3 1.60475e-15 0)
(3 1.63764e-15 0)
(3 1.56742e-16 0)
(3 -1.10798e-15 0)
(3 -1.79234e-15 0)
(3 -1.37853e-15 0)
(3 -3.68164e-16 0)
(3 -2.91342e-16 0)
(3 -9.01343e-16 0)
(3 1.51618e-16 0)
(3 1.61977e-16 0)
(3 -9.47701e-17 0)
(3 -2.87681e-16 0)
(3 5.39967e-17 0)
(3 1.38629e-15 0)
(3 1.71309e-15 0)
(3 8.3503e-16 0)
(3 1.15412e-16 0)
(3 -2.43398e-16 0)
(3 -6.11111e-17 0)
(3 4.09528e-16 0)
(3 2.01036e-15 0)
(3 1.92584e-15 0)
(3 1.54223e-15 0)
(3 1.14995e-15 0)
(3 3.14713e-16 0)
(3 -1.93615e-15 0)
(3 -1.95057e-15 0)
(3 -1.72695e-15 0)
(3 5.9537e-17 0)
(3 5.64226e-16 0)
(3 3.78852e-16 0)
(3 4.9957e-16 0)
(3 8.96866e-17 0)
(3 2.99113e-16 0)
(3 1.91261e-17 0)
(3 -5.85313e-16 0)
(3 -7.57195e-16 0)
(3 8.42619e-17 0)
(3 1.71629e-15 0)
(3 1.74563e-15 0)
(3 1.49684e-15 0)
(3 9.32808e-16 0)
(3 9.33692e-16 0)
(3 1.28354e-15 0)
(3 1.49714e-15 0)
(3 1.90039e-15 0)
(3 2.02857e-15 0)
(3 2.00289e-15 0)
(3 1.91132e-15 0)
(3 8.11647e-16 0)
(3 -9.83357e-16 0)
(3 -1.13646e-15 0)
(3 -3.88657e-16 0)
(3 -3.34975e-16 0)
(3 4.93124e-16 0)
(3 1.00219e-15 0)
(3 1.68795e-17 0)
(3 1.63056e-16 0)
(3 3.55272e-16 0)
(3 3.9112e-17 0)
(3 -8.38772e-17 0)
(3 4.17091e-17 0)
(3 3.13099e-16 0)
(3 9.57188e-16 0)
(3 1.01758e-15 0)
(3 8.06172e-16 0)
(3 4.76393e-16 0)
(3 6.89579e-17 0)
(3 8.70732e-19 0)
(3 6.97545e-16 0)
(3 1.29752e-15 0)
(3 1.62386e-15 0)
(3 1.43081e-15 0)
(3 8.05549e-16 0)
(3 -5.28189e-16 0)
(3 -8.01593e-16 0)
(3 -7.33852e-16 0)
(3 -8.72514e-16 0)
(3 -7.39905e-16 0)
(3 -1.64015e-16 0)
(2.93129 0.0340112 0)
(2.85684 0.032416 0)
(2.74807 0.16659 0)
(2.67367 0.23687 0)
(2.57966 0.344058 0)
(2.49299 0.451243 0)
(2.43103 0.541061 0)
(2.34787 0.625034 0)
(2.31103 0.725284 0)
(2.25806 0.799143 0)
(2.25102 0.854938 0)
(2.28302 0.888815 0)
(2.32244 0.896354 0)
(2.33602 0.886046 0)
(2.34668 0.880127 0)
(2.34889 0.866535 0)
(2.34797 0.859533 0)
(2.34479 0.85236 0)
(2.34251 0.84911 0)
(2.34281 0.848743 0)
(2.34017 0.847994 0)
(2.33869 0.84816 0)
(2.3371 0.8491 0)
(2.33728 0.849537 0)
(2.99855 0.00156017 0)
(2.99144 0.0102842 0)
(2.95933 0.0495096 0)
(2.90141 0.134036 0)
(2.80675 0.272103 0)
(2.67193 0.470515 0)
(2.54628 0.676337 0)
(2.37411 0.90558 0)
(2.21817 1.07175 0)
(2.17265 1.1009 0)
(2.14917 1.04441 0)
(2.18209 1.00258 0)
(2.24623 0.952566 0)
(2.30575 0.897382 0)
(2.3269 0.857651 0)
(2.34836 0.829107 0)
(2.35563 0.836689 0)
(2.35609 0.842797 0)
(2.35359 0.843908 0)
(2.35055 0.843923 0)
(2.34823 0.844812 0)
(2.34471 0.845514 0)
(2.34186 0.847662 0)
(2.33987 0.849626 0)
(3 3.0636e-07 0)
(3.00002 -2.85337e-05 0)
(2.99992 8.43418e-05 0)
(2.99986 0.000219556 0)
(2.99867 0.00177252 0)
(2.99112 0.0131911 0)
(2.96683 0.0513079 0)
(2.89427 0.179249 0)
(2.7763 0.408844 0)
(2.60713 0.690086 0)
(2.43457 0.860244 0)
(2.33404 0.927109 0)
(2.30036 0.917017 0)
(2.30226 0.902309 0)
(2.30783 0.890676 0)
(2.34294 0.86135 0)
(2.35521 0.864468 0)
(2.35681 0.854848 0)
(2.357 0.848943 0)
(2.35569 0.846748 0)
(2.35624 0.845386 0)
(2.35434 0.846759 0)
(2.34938 0.849275 0)
(2.34556 0.852817 0)
(3 -2.12737e-09 0)
(3 -1.1963e-06 0)
(3 -1.98856e-06 0)
(3 -1.13537e-06 0)
(3 -8.29868e-06 0)
(2.99999 2.32277e-05 0)
(3.00005 -0.00011033 0)
(2.99923 0.00121599 0)
(2.98981 0.0186441 0)
(2.91374 0.14405 0)
(2.68642 0.48197 0)
(2.52496 0.709935 0)
(2.32143 0.910015 0)
(2.26711 0.971356 0)
(2.27714 0.948657 0)
(2.30659 0.908288 0)
(2.33163 0.88161 0)
(2.34293 0.866826 0)
(2.35479 0.853186 0)
(2.3608 0.842002 0)
(2.36098 0.843257 0)
(2.36043 0.845711 0)
(2.35853 0.845202 0)
(2.35142 0.848476 0)
(3 -2.33032e-10 0)
(3 3.12622e-09 0)
(3 -7.75953e-08 0)
(3 -1.07806e-07 0)
(3 -4.90289e-07 0)
(3 -6.49268e-07 0)
(3 -5.78403e-06 0)
(3 -5.69692e-06 0)
(3.00002 -4.25746e-05 0)
(2.99942 0.000546351 0)
(2.98201 0.0245091 0)
(2.89 0.151743 0)
(2.63045 0.482041 0)
(2.3791 0.795784 0)
(2.37175 0.833501 0)
(2.30987 0.878259 0)
(2.31418 0.880382 0)
(2.32777 0.873708 0)
(2.34598 0.851243 0)
(2.35256 0.849077 0)
(2.35969 0.845645 0)
(2.36075 0.841437 0)
(2.35923 0.840254 0)
(2.35377 0.839736 0)
(3 -4.27757e-13 0)
(3 1.52379e-10 0)
(3 2.91693e-10 0)
(3 -6.40049e-10 0)
(3 -6.82164e-11 0)
(3 -3.5425e-08 0)
(3 -8.21781e-08 0)
(3 -3.70352e-07 0)
(3 -6.04419e-06 0)
(3 -5.75195e-06 0)
(3.00002 -5.2137e-05 0)
(2.99897 0.00134578 0)
(2.96469 0.0443399 0)
(2.82944 0.212813 0)
(2.59878 0.534999 0)
(2.30837 0.876173 0)
(2.28185 0.869414 0)
(2.31041 0.872596 0)
(2.30851 0.870053 0)
(2.32802 0.862039 0)
(2.3452 0.852474 0)
(2.34767 0.843271 0)
(2.34996 0.838738 0)
(2.34848 0.83938 0)
(3 6.83001e-14 0)
(3 -6.136e-14 0)
(3 1.88262e-11 0)
(3 1.322e-11 0)
(3 1.67037e-11 0)
(3 -3.49227e-10 0)
(3 -4.82301e-10 0)
(3 -3.19786e-10 0)
(3 -1.10523e-08 0)
(3 -3.60343e-07 0)
(3 -3.7576e-06 0)
(3.00001 -1.17648e-05 0)
(2.99996 3.65019e-05 0)
(2.99666 0.00514865 0)
(2.94119 0.0739284 0)
(2.71977 0.353318 0)
(2.54709 0.601713 0)
(2.29991 0.869218 0)
(2.26231 0.896801 0)
(2.29361 0.868863 0)
(2.31102 0.854397 0)
(2.32547 0.853642 0)
(2.33524 0.847736 0)
(2.33875 0.840517 0)
(3 5.76507e-15 0)
(3 5.66949e-15 0)
(3 5.48719e-15 0)
(3 9.05799e-13 0)
(3 1.41977e-12 0)
(3 2.56594e-12 0)
(3 3.81849e-12 0)
(3 5.26439e-12 0)
(3 7.37425e-11 0)
(3 -3.3367e-10 0)
(3 -1.44132e-08 0)
(3 -1.73044e-06 0)
(3 -1.62215e-06 0)
(3.00001 -1.69063e-05 0)
(2.99957 0.000579772 0)
(2.98535 0.0213723 0)
(2.89495 0.153069 0)
(2.56936 0.550507 0)
(2.45729 0.701567 0)
(2.35087 0.812288 0)
(2.31275 0.857004 0)
(2.30981 0.857181 0)
(2.31958 0.849841 0)
(2.32641 0.837613 0)
(3 -2.40887e-15 0)
(3 -2.41496e-15 0)
(3 -2.72379e-15 0)
(3 -1.44968e-15 0)
(3 1.47511e-14 0)
(3 3.15728e-13 0)
(3 1.15082e-12 0)
(3 2.26321e-12 0)
(3 1.69712e-11 0)
(3 2.08851e-11 0)
(3 7.45866e-11 0)
(3 -1.51333e-08 0)
(3 -1.50484e-07 0)
(3 -3.13799e-06 0)
(3 -6.27712e-07 0)
(3 -2.88774e-06 0)
(2.9974 0.00405818 0)
(2.94261 0.0781204 0)
(2.81691 0.290613 0)
(2.44509 0.727136 0)
(2.36567 0.809531 0)
(2.32674 0.835146 0)
(2.31908 0.838633 0)
(2.31537 0.837808 0)
(3 -2.64327e-15 0)
(3 -2.11263e-15 0)
(3 -8.67833e-16 0)
(3 -3.36294e-16 0)
(3 -2.2692e-15 0)
(3 6.50488e-16 0)
(3 5.16097e-14 0)
(3 1.71748e-13 0)
(3 6.82356e-13 0)
(3 3.67897e-12 0)
(3 1.21646e-11 0)
(3 1.02644e-10 0)
(3 -1.11505e-09 0)
(3 -3.67758e-08 0)
(3 -4.27257e-07 0)
(3 -7.35413e-07 0)
(3.00001 -1.67615e-05 0)
(2.99944 0.00110334 0)
(2.98909 0.0195349 0)
(2.83848 0.221325 0)
(2.67151 0.482333 0)
(2.41982 0.766018 0)
(2.31346 0.887651 0)
(2.29581 0.861829 0)
(3 -4.68837e-16 0)
(3 1.50113e-15 0)
(3 1.92879e-15 0)
(3 1.35467e-15 0)
(3 6.09519e-16 0)
(3 -2.64031e-16 0)
(3 -1.16627e-15 0)
(3 4.11991e-15 0)
(3 4.65048e-15 0)
(3 3.80532e-14 0)
(3 6.91335e-13 0)
(3 1.71999e-11 0)
(3 1.38485e-11 0)
(3 2.19384e-10 0)
(3 -6.33273e-09 0)
(3 -9.72484e-08 0)
(3 -2.51503e-06 0)
(3 -4.74482e-06 0)
(2.99996 4.81969e-05 0)
(2.99329 0.0112999 0)
(2.95172 0.0903807 0)
(2.6775 0.45201 0)
(2.48805 0.70852 0)
(2.38024 0.78731 0)
(3 5.96044e-16 0)
(3 4.52041e-16 0)
(3 -1.65068e-16 0)
(3 -4.34425e-16 0)
(3 -7.83181e-17 0)
(3 -1.77302e-16 0)
(3 -1.26633e-16 0)
(3 2.0326e-16 0)
(3 -6.20483e-16 0)
(3 -1.03464e-15 0)
(3 2.50657e-17 0)
(3 2.43417e-13 0)
(3 2.31657e-12 0)
(3 1.9311e-11 0)
(3 7.33214e-11 0)
(3 -1.31145e-09 0)
(3 -4.54258e-08 0)
(3 -1.09664e-06 0)
(3 -1.42121e-06 0)
(2.99999 1.63154e-05 0)
(2.99869 0.0026307 0)
(2.95609 0.0655407 0)
(2.79451 0.317242 0)
(2.54095 0.648527 0)
(3 1.25381e-15 0)
(3 4.5648e-16 0)
(3 1.5087e-16 0)
(3 -2.10567e-17 0)
(3 9.16684e-17 0)
(3 -1.58236e-16 0)
(3 -1.40292e-17 0)
(3 -1.7679e-16 0)
(3 -4.86128e-16 0)
(3 -2.75938e-16 0)
(3 -1.27539e-15 0)
(3 -2.22159e-15 0)
(3 1.35345e-14 0)
(3 9.13701e-13 0)
(3 1.55122e-11 0)
(3 1.46745e-11 0)
(3 7.09275e-11 0)
(3 -1.67498e-08 0)
(3 -3.9093e-07 0)
(3 -4.79948e-07 0)
(3 4.62328e-07 0)
(2.99918 0.00144797 0)
(2.97743 0.0440371 0)
(2.88429 0.213445 0)
(3 1.29789e-15 0)
(3 5.93035e-16 0)
(3 8.02613e-16 0)
(3 8.08696e-16 0)
(3 -8.83774e-16 0)
(3 -9.07552e-16 0)
(3 -2.03452e-16 0)
(3 3.08815e-16 0)
(3 1.30639e-16 0)
(3 -2.93306e-16 0)
(3 -2.23715e-16 0)
(3 -1.22988e-15 0)
(3 -1.87325e-15 0)
(3 -1.88512e-15 0)
(3 6.60673e-13 0)
(3 3.44147e-12 0)
(3 2.41867e-11 0)
(3 2.39594e-11 0)
(3 -1.86845e-08 0)
(3 -1.45207e-07 0)
(3 -1.76548e-07 0)
(3 -4.21932e-06 0)
(2.99961 0.00087302 0)
(2.99572 0.0127406 0)
(3 3.01001e-16 0)
(3 -1.48833e-16 0)
(3 2.11021e-16 0)
(3 -3.37243e-16 0)
(3 -1.75916e-15 0)
(3 -1.53162e-15 0)
(3 -1.27806e-15 0)
(3 -1.01495e-15 0)
(3 -1.72043e-15 0)
(3 -2.18906e-15 0)
(3 -2.32837e-15 0)
(3 -1.89108e-15 0)
(3 -2.68042e-15 0)
(3 -2.4831e-15 0)
(3 9.64307e-16 0)
(3 1.25291e-13 0)
(3 2.06189e-12 0)
(3 2.64348e-12 0)
(3 -7.17092e-11 0)
(3 -8.03516e-09 0)
(3 -4.58173e-08 0)
(3 -8.29448e-07 0)
(3 4.13105e-06 0)
(3 -6.07541e-05 0)
(3 -3.71807e-16 0)
(3 2.21739e-16 0)
(3 -3.65544e-16 0)
(3 -1.19814e-15 0)
(3 -1.45407e-15 0)
(3 -2.12436e-15 0)
(3 -3.34754e-15 0)
(3 -4.24919e-15 0)
(3 -3.10878e-15 0)
(3 -3.05685e-15 0)
(3 -3.99435e-15 0)
(3 -2.79823e-15 0)
(3 -2.40334e-15 0)
(3 -1.91188e-15 0)
(3 -3.53394e-15 0)
(3 2.37184e-15 0)
(3 -1.21819e-14 0)
(3 7.66139e-13 0)
(3 5.10594e-13 0)
(3 -9.75368e-11 0)
(3 -2.73051e-09 0)
(3 -1.32127e-07 0)
(3 -6.19179e-08 0)
(3 -6.98469e-06 0)
(3 -5.22063e-16 0)
(3 -6.9435e-16 0)
(3 -4.06401e-16 0)
(3 -8.10709e-16 0)
(3 -1.16896e-15 0)
(3 -1.91507e-15 0)
(3 -3.41449e-15 0)
(3 -3.88203e-15 0)
(3 -3.62013e-15 0)
(3 -2.91595e-15 0)
(3 -2.77741e-15 0)
(3 -2.67996e-15 0)
(3 -2.2013e-15 0)
(3 -1.33565e-15 0)
(3 -1.94572e-15 0)
(3 -3.24608e-15 0)
(3 -4.05752e-14 0)
(3 -7.34431e-13 0)
(3 -8.0464e-13 0)
(3 6.63029e-11 0)
(3 2.31492e-09 0)
(3 1.34905e-07 0)
(3 2.83692e-08 0)
(3 5.19348e-06 0)
(3 -1.00331e-15 0)
(3 -9.36094e-16 0)
(3 -4.08284e-16 0)
(3 1.44881e-16 0)
(3 -4.48525e-18 0)
(3 3.56964e-16 0)
(3 -9.38015e-17 0)
(3 -2.16535e-15 0)
(3 -3.03902e-15 0)
(3 -1.5514e-15 0)
(3 -9.46727e-17 0)
(3 -1.0074e-15 0)
(3 -1.28708e-15 0)
(3 3.12789e-17 0)
(3 -3.30198e-15 0)
(3 -1.16734e-13 0)
(3 -2.12961e-12 0)
(3 -2.58107e-12 0)
(3 7.41265e-11 0)
(3 7.90501e-09 0)
(3 4.52478e-08 0)
(3 8.47694e-07 0)
(3 -4.20005e-06 0)
(2.99999 4.89084e-05 0)
(3 -7.53372e-16 0)
(3 -6.44811e-16 0)
(3 -1.28649e-16 0)
(3 1.13403e-15 0)
(3 1.43236e-15 0)
(3 1.22467e-15 0)
(3 6.27975e-16 0)
(3 -9.11649e-16 0)
(3 -1.40807e-15 0)
(3 -7.64844e-16 0)
(3 -2.76256e-17 0)
(3 3.33905e-17 0)
(3 -4.56581e-16 0)
(3 -2.19543e-15 0)
(3 -6.73625e-13 0)
(3 -3.43858e-12 0)
(3 -2.40286e-11 0)
(3 -1.98587e-11 0)
(3 1.85514e-08 0)
(3 1.50642e-07 0)
(3 1.81343e-07 0)
(3 4.215e-06 0)
(2.99961 -0.000869316 0)
(2.99554 -0.0129794 0)
(3 -6.04957e-16 0)
(3 -1.00666e-15 0)
(3 -1.34457e-15 0)
(3 -1.17948e-15 0)
(3 -1.15329e-15 0)
(3 -1.89139e-15 0)
(3 -1.64644e-15 0)
(3 -4.59989e-16 0)
(3 -7.20855e-16 0)
(3 -1.71644e-15 0)
(3 -1.20695e-15 0)
(3 -5.02171e-16 0)
(3 -1.90803e-14 0)
(3 -9.221e-13 0)
(3 -1.54874e-11 0)
(3 -1.47399e-11 0)
(3 -6.98471e-11 0)
(3 1.66079e-08 0)
(3 3.96401e-07 0)
(3 4.84236e-07 0)
(3 -5.37328e-07 0)
(2.99918 -0.00144029 0)
(2.97732 -0.0441174 0)
(2.8843 -0.213376 0)
(3 -9.0108e-16 0)
(3 -1.31117e-15 0)
(3 -4.59505e-15 0)
(3 -5.24051e-15 0)
(3 -4.48606e-15 0)
(3 -4.55563e-15 0)
(3 -2.15488e-15 0)
(3 -3.52894e-16 0)
(3 -2.78478e-16 0)
(3 -9.07738e-16 0)
(3 -2.25988e-15 0)
(3 -2.46419e-13 0)
(3 -2.31803e-12 0)
(3 -1.92657e-11 0)
(3 -7.33114e-11 0)
(3 1.3111e-09 0)
(3 4.54981e-08 0)
(3 1.09059e-06 0)
(3 1.42388e-06 0)
(2.99999 -1.62181e-05 0)
(2.99869 -0.00263662 0)
(2.9562 -0.0653396 0)
(2.7934 -0.318204 0)
(2.54217 -0.647438 0)
(3 6.8124e-16 0)
(3 -4.19297e-16 0)
(3 -1.79095e-15 0)
(3 -1.90243e-15 0)
(3 -2.01967e-15 0)
(3 -2.99493e-15 0)
(3 -7.79037e-16 0)
(3 -4.65262e-15 0)
(3 -3.93124e-15 0)
(3 -3.82105e-14 0)
(3 -6.92523e-13 0)
(3 -1.71995e-11 0)
(3 -1.38494e-11 0)
(3 -2.19233e-10 0)
(3 6.32841e-09 0)
(3 9.73256e-08 0)
(3 2.51382e-06 0)
(3 4.73376e-06 0)
(2.99996 -4.81001e-05 0)
(2.9933 -0.0113004 0)
(2.95177 -0.0903602 0)
(2.67751 -0.452001 0)
(2.48769 -0.70874 0)
(2.38033 -0.7869 0)
(3 3.38555e-15 0)
(3 2.95118e-15 0)
(3 3.01821e-15 0)
(3 2.8022e-15 0)
(3 9.57692e-16 0)
(3 -3.42348e-15 0)
(3 -5.56822e-14 0)
(3 -1.75825e-13 0)
(3 -6.86427e-13 0)
(3 -3.68244e-12 0)
(3 -1.21818e-11 0)
(3 -1.02582e-10 0)
(3 1.11321e-09 0)
(3 3.68798e-08 0)
(3 4.26393e-07 0)
(3 7.37031e-07 0)
(3.00001 1.67436e-05 0)
(2.99944 -0.00110246 0)
(2.98908 -0.0195407 0)
(2.83849 -0.221304 0)
(2.67178 -0.482211 0)
(2.41956 -0.766298 0)
(2.3133 -0.887801 0)
(2.29574 -0.861725 0)
(3 2.35712e-15 0)
(3 2.65587e-15 0)
(3 1.29071e-15 0)
(3 -2.73145e-16 0)
(3 -1.61809e-14 0)
(3 -3.17991e-13 0)
(3 -1.15124e-12 0)
(3 -2.26077e-12 0)
(3 -1.69691e-11 0)
(3 -2.08847e-11 0)
(3 -7.45937e-11 0)
(3 1.51331e-08 0)
(3 1.50481e-07 0)
(3 3.138e-06 0)
(3 6.20469e-07 0)
(3 2.93975e-06 0)
(2.9974 -0.00405991 0)
(2.94262 -0.0780951 0)
(2.81681 -0.290662 0)
(2.44511 -0.727072 0)
(2.36578 -0.809458 0)
(2.32673 -0.835195 0)
(2.31906 -0.838661 0)
(2.31538 -0.837813 0)
(3 -6.98175e-15 0)
(3 -6.80265e-15 0)
(3 -6.30001e-15 0)
(3 -9.06846e-13 0)
(3 -1.42006e-12 0)
(3 -2.56448e-12 0)
(3 -3.8166e-12 0)
(3 -5.26337e-12 0)
(3 -7.37549e-11 0)
(3 3.33701e-10 0)
(3 1.44134e-08 0)
(3 1.73045e-06 0)
(3 1.62213e-06 0)
(3.00001 1.69069e-05 0)
(2.99957 -0.00057981 0)
(2.98535 -0.0213712 0)
(2.89494 -0.153077 0)
(2.56937 -0.550482 0)
(2.45726 -0.701581 0)
(2.35087 -0.812279 0)
(2.31276 -0.857001 0)
(2.30979 -0.85719 0)
(2.31957 -0.849845 0)
(2.32641 -0.837607 0)
(3 -7.10408e-14 0)
(3 5.99288e-14 0)
(3 -1.88284e-11 0)
(3 -1.32212e-11 0)
(3 -1.67048e-11 0)
(3 3.49223e-10 0)
(3 4.82308e-10 0)
(3 3.19589e-10 0)
(3 1.10534e-08 0)
(3 3.6034e-07 0)
(3 3.75758e-06 0)
(3.00001 1.17651e-05 0)
(2.99996 -3.65066e-05 0)
(2.99666 -0.00514857 0)
(2.94119 -0.0739297 0)
(2.71978 -0.353313 0)
(2.54709 -0.601715 0)
(2.29991 -0.869214 0)
(2.26231 -0.896812 0)
(2.29361 -0.868865 0)
(2.31102 -0.854394 0)
(2.32547 -0.853643 0)
(2.33524 -0.847736 0)
(2.33875 -0.840514 0)
(3 4.24331e-13 0)
(3 -1.52379e-10 0)
(3 -2.91697e-10 0)
(3 6.40048e-10 0)
(3 6.82175e-11 0)
(3 3.5425e-08 0)
(3 8.21781e-08 0)
(3 3.70352e-07 0)
(3 6.04418e-06 0)
(3 5.75195e-06 0)
(3.00002 5.21368e-05 0)
(2.99897 -0.00134577 0)
(2.96469 -0.04434 0)
(2.82944 -0.212812 0)
(2.59878 -0.535001 0)
(2.30837 -0.876171 0)
(2.28185 -0.869414 0)
(2.3104 -0.872597 0)
(2.30852 -0.870053 0)
(2.32803 -0.862039 0)
(2.3452 -0.852474 0)
(2.34767 -0.843268 0)
(2.34996 -0.838738 0)
(2.34848 -0.839379 0)
(3 2.3303e-10 0)
(3 -3.12622e-09 0)
(3 7.75953e-08 0)
(3 1.07806e-07 0)
(3 4.9029e-07 0)
(3 6.49268e-07 0)
(3 5.78402e-06 0)
(3 5.69692e-06 0)
(3.00002 4.25747e-05 0)
(2.99942 -0.000546352 0)
(2.98201 -0.0245091 0)
(2.89 -0.151743 0)
(2.63045 -0.482041 0)
(2.3791 -0.795785 0)
(2.37175 -0.833501 0)
(2.30986 -0.878259 0)
(2.31418 -0.880382 0)
(2.32777 -0.873708 0)
(2.34598 -0.851243 0)
(2.35256 -0.849077 0)
(2.35969 -0.845644 0)
(2.36075 -0.841437 0)
(2.35923 -0.840253 0)
(2.35377 -0.839736 0)
(3 2.12736e-09 0)
(3 1.1963e-06 0)
(3 1.98856e-06 0)
(3 1.13538e-06 0)
(3 8.29868e-06 0)
(2.99999 -2.32277e-05 0)
(3.00005 0.000110329 0)
(2.99923 -0.00121599 0)
(2.98981 -0.0186441 0)
(2.91374 -0.14405 0)
(2.68642 -0.48197 0)
(2.52496 -0.709935 0)
(2.32143 -0.910015 0)
(2.26711 -0.971356 0)
(2.27714 -0.948657 0)
(2.30659 -0.908288 0)
(2.33163 -0.88161 0)
(2.34293 -0.866826 0)
(2.35479 -0.853186 0)
(2.3608 -0.842002 0)
(2.36098 -0.843257 0)
(2.36043 -0.845711 0)
(2.35853 -0.845202 0)
(2.35142 -0.848477 0)
(3 -3.0636e-07 0)
(3.00002 2.85337e-05 0)
(2.99992 -8.43417e-05 0)
(2.99986 -0.000219556 0)
(2.99867 -0.00177252 0)
(2.99112 -0.0131911 0)
(2.96683 -0.051308 0)
(2.89427 -0.179249 0)
(2.7763 -0.408844 0)
(2.60713 -0.690085 0)
(2.43457 -0.860244 0)
(2.33404 -0.927109 0)
(2.30036 -0.917017 0)
(2.30226 -0.902309 0)
(2.30783 -0.890676 0)
(2.34294 -0.861349 0)
(2.35521 -0.864467 0)
(2.35681 -0.854848 0)
(2.357 -0.848943 0)
(2.35569 -0.846748 0)
(2.35624 -0.845386 0)
(2.35434 -0.846759 0)
(2.34938 -0.849276 0)
(2.34556 -0.852817 0)
(2.99855 -0.00156017 0)
(2.99144 -0.0102842 0)
(2.95933 -0.0495096 0)
(2.90141 -0.134036 0)
(2.80675 -0.272103 0)
(2.67193 -0.470515 0)
(2.54628 -0.676337 0)
(2.37411 -0.90558 0)
(2.21817 -1.07175 0)
(2.17265 -1.1009 0)
(2.14917 -1.04441 0)
(2.18209 -1.00258 0)
(2.24623 -0.952566 0)
(2.30575 -0.897382 0)
(2.3269 -0.857651 0)
(2.34836 -0.829107 0)
(2.35563 -0.836688 0)
(2.35609 -0.842797 0)
(2.35359 -0.843908 0)
(2.35055 -0.843923 0)
(2.34823 -0.844812 0)
(2.34471 -0.845514 0)
(2.34186 -0.847662 0)
(2.33987 -0.849626 0)
(2.93129 -0.0340112 0)
(2.85684 -0.032416 0)
(2.74807 -0.16659 0)
(2.67367 -0.23687 0)
(2.57966 -0.344058 0)
(2.49299 -0.451243 0)
(2.43103 -0.541061 0)
(2.34787 -0.625034 0)
(2.31103 -0.725284 0)
(2.25806 -0.799143 0)
(2.25102 -0.854938 0)
(2.28302 -0.888815 0)
(2.32244 -0.896354 0)
(2.33602 -0.886046 0)
(2.34668 -0.880127 0)