/*--------------------------------*- C++ -*----------------------------------*\
  =========                 |
  \\      /  F ield         | OpenFOAM: The Open Source CFD Toolbox
   \\    /   O peration     | Website:  https://openfoam.org
    \\  /    A nd           | Version:  7
     \\/     M anipulation  |
\*---------------------------------------------------------------------------*/
FoamFile
{
    version     2.0;
    format      ascii;
    class       volVectorField;
    location    "1.8";
    object      U;
}
// * * * * * * * * * * * * * * * * * * * * * * * * * * * * * * * * * * * * * //

dimensions      [0 1 -1 0 0 0 0];

internalField   nonuniform List<vector> 
73728
(
(3 5.95444e-18 0)
(3 1.64615e-17 0)
(3 6.79324e-17 0)
(3 -6.16854e-17 0)
(3 2.85239e-17 0)
(3 -2.45249e-16 0)
(3 -5.37239e-16 0)
(3 -1.92928e-16 0)
(3 4.40746e-16 0)
(3 3.6384e-16 0)
(3 -2.00788e-16 0)
(3 -1.28847e-16 0)
(3 1.54136e-16 0)
(3 2.19938e-16 0)
(3 -4.10475e-16 0)
(3 -3.0968e-16 0)
(3 2.43576e-16 0)
(3 2.37921e-17 0)
(3 -4.20424e-16 0)
(3 -9.61067e-16 0)
(3 -6.67204e-16 0)
(3 -2.1333e-17 0)
(3 1.40627e-16 0)
(3 3.88879e-17 0)
(3 -1.39597e-17 0)
(3 6.03064e-17 0)
(3 -2.2334e-16 0)
(3 -1.21698e-15 0)
(3 -2.39279e-15 0)
(3 -2.87655e-15 0)
(3 -1.56717e-15 0)
(3 -7.28591e-16 0)
(3 -1.02535e-16 0)
(3 -1.27014e-16 0)
(3 -5.99548e-16 0)
(3 -2.77557e-16 0)
(3 -8.02505e-17 0)
(3 -4.00314e-17 0)
(3 -3.75924e-16 0)
(3 -1.07363e-15 0)
(3 -9.92261e-16 0)
(3 2.44915e-16 0)
(3 4.17757e-16 0)
(3 5.80172e-16 0)
(3 5.27184e-16 0)
(3 5.44398e-16 0)
(3 7.44173e-16 0)
(3 8.86526e-16 0)
(3 7.1374e-17 0)
(3 -6.73543e-17 0)
(3 8.17423e-17 0)
(3 5.39406e-16 0)
(3 6.32779e-16 0)
(3 6.99458e-16 0)
(3 3.14304e-17 0)
(3 3.3665e-17 0)
(3 -6.181e-16 0)
(3 -1.06409e-15 0)
(3 -4.61043e-16 0)
(3 -4.37493e-16 0)
(3 -5.97163e-16 0)
(3 -9.0805e-16 0)
(3 -8.38163e-16 0)
(3 -3.5584e-16 0)
(3 -9.97072e-17 0)
(3 1.26065e-16 0)
(3 4.6331e-16 0)
(3 1.78546e-15 0)
(3 1.97262e-15 0)
(3 7.05057e-16 0)
(3 4.12601e-16 0)
(3 4.52147e-16 0)
(3 6.37576e-16 0)
(3 6.6812e-16 0)
(3 2.49727e-16 0)
(3 -4.17526e-16 0)
(3 -1.38406e-15 0)
(3 -1.14352e-15 0)
(3 -1.17618e-15 0)
(3 -1.38722e-15 0)
(3 -2.34988e-16 0)
(3 3.88658e-16 0)
(3 6.81978e-16 0)
(3 8.27173e-16 0)
(3 1.71334e-15 0)
(3 9.5014e-16 0)
(3 2.81037e-16 0)
(3 -1.12417e-16 0)
(3 -2.72101e-16 0)
(3 -5.61668e-16 0)
(3 -6.27387e-16 0)
(3 -8.89843e-17 0)
(3 1.09088e-16 0)
(3 -1.16165e-15 0)
(3 -1.43567e-15 0)
(3 -1.20689e-15 0)
(3 8.75338e-17 0)
(3 8.45181e-17 0)
(3 1.93237e-16 0)
(3 2.96812e-16 0)
(3 2.22895e-16 0)
(3 -7.77044e-16 0)
(3 -9.88223e-16 0)
(3 -8.31727e-16 0)
(3 -5.18946e-16 0)
(3 -4.71837e-16 0)
(3 -5.61838e-16 0)
(3 -6.65749e-16 0)
(3 -6.27001e-16 0)
(3 -7.11197e-17 0)
(3 -2.61951e-16 0)
(3 -3.24389e-16 0)
(3 2.75527e-16 0)
(3 7.13527e-16 0)
(3 2.85165e-16 0)
(3 -5.96993e-16 0)
(3 -1.20997e-16 0)
(3 4.94871e-16 0)
(3 1.11244e-15 0)
(3 7.70929e-16 0)
(3 4.23602e-16 0)
(3 1.96024e-16 0)
(3 -2.78902e-16 0)
(3 -1.08463e-15 0)
(3 -3.60821e-15 0)
(3 -3.1145e-15 0)
(3 -1.73157e-15 0)
(3 7.03429e-16 0)
(3 1.35602e-15 0)
(3 8.20645e-16 0)
(3 -6.30355e-17 0)
(3 -4.13876e-16 0)
(3 -3.78554e-16 0)
(3 -1.75456e-16 0)
(3 -3.28007e-16 0)
(3 -1.01316e-15 0)
(3 -7.66248e-16 0)
(3 4.25275e-16 0)
(3 9.33809e-16 0)
(3 1.27797e-15 0)
(3 1.46282e-15 0)
(3 1.05942e-15 0)
(3 1.13768e-15 0)
(3 2.37094e-16 0)
(3 -5.07891e-16 0)
(3 2.73888e-16 0)
(3 3.23359e-16 0)
(3 1.39406e-15 0)
(3 2.01385e-15 0)
(3 2.25313e-15 0)
(3 7.24671e-16 0)
(3 6.64373e-17 0)
(3 -1.12466e-15 0)
(3 -1.57611e-15 0)
(3 -9.29971e-16 0)
(3 -7.55305e-16 0)
(3 -1.20257e-15 0)
(3 -1.49966e-15 0)
(3 -1.41381e-15 0)
(3 -1.07135e-15 0)
(3 -7.76133e-16 0)
(3 -2.78723e-16 0)
(3 1.1367e-15 0)
(3 1.74189e-15 0)
(3 1.86999e-15 0)
(3 2.69575e-15 0)
(3 1.10602e-15 0)
(3 5.1405e-16 0)
(3 -3.13605e-17 0)
(3 -7.42139e-16 0)
(3 -1.36194e-15 0)
(3 -1.72216e-15 0)
(3 -2.02373e-15 0)
(3 -1.76423e-15 0)
(3 -1.00324e-15 0)
(3 -1.16128e-15 0)
(3 -4.25421e-16 0)
(3 3.68599e-16 0)
(3 1.11507e-15 0)
(3 1.04564e-15 0)
(3 1.0073e-15 0)
(3 2.16063e-15 0)
(3 1.25892e-15 0)
(3 8.58755e-16 0)
(3 4.32116e-16 0)
(3 -1.21698e-16 0)
(3 -1.10003e-16 0)
(3 3.09376e-16 0)
(3 3.30798e-16 0)
(3 -7.39752e-16 0)
(3 -1.07631e-15 0)
(3 -1.63878e-15 0)
(3 9.28666e-18 0)
(3 6.53902e-17 0)
(3 -1.19726e-16 0)
(3 -6.11285e-18 0)
(3 -3.07146e-16 0)
(3 -7.78727e-16 0)
(3 -3.64324e-16 0)
(3 -5.15406e-17 0)
(3 -4.9336e-16 0)
(3 -5.5784e-16 0)
(3 -3.17599e-16 0)
(3 -3.39217e-16 0)
(3 -8.34963e-16 0)
(3 -6.89269e-16 0)
(3 -3.28854e-16 0)
(3 -3.60094e-16 0)
(3 -3.64141e-16 0)
(3 1.22286e-16 0)
(3 7.91558e-16 0)
(3 6.56002e-16 0)
(3 8.02638e-16 0)
(3 1.31987e-15 0)
(3 1.43646e-15 0)
(3 7.88065e-16 0)
(3 -3.29969e-16 0)
(3 -1.07798e-16 0)
(3 -2.01404e-16 0)
(3 -4.25856e-16 0)
(3 -9.18765e-16 0)
(3 -7.37658e-16 0)
(3 -3.55884e-16 0)
(3 3.07063e-16 0)
(3 -6.44582e-17 0)
(3 -3.33717e-16 0)
(3 4.79378e-16 0)
(3 4.76149e-16 0)
(3 2.53512e-16 0)
(3 -1.89657e-16 0)
(3 -3.54795e-16 0)
(3 -6.59378e-17 0)
(3 2.18741e-16 0)
(3 -1.46746e-16 0)
(3 4.90744e-16 0)
(3 1.35954e-15 0)
(3 2.3073e-15 0)
(3 1.92359e-15 0)
(3 1.12224e-15 0)
(3 -1.53865e-17 0)
(3 -7.2338e-16 0)
(3 -1.243e-15 0)
(3 -7.92286e-16 0)
(3 2.53211e-18 0)
(3 1.55395e-15 0)
(3 2.64355e-15 0)
(3 9.4366e-16 0)
(3 -1.36916e-15 0)
(3 -1.77296e-15 0)
(3 -2.60318e-15 0)
(3 -2.55479e-15 0)
(3 -1.33481e-15 0)
(3 -8.49329e-16 0)
(3 -9.22031e-16 0)
(3 -2.04957e-15 0)
(3 -2.20497e-15 0)
(3 -1.04607e-15 0)
(3 1.52034e-15 0)
(3 2.55181e-15 0)
(3 2.46406e-15 0)
(3 2.12167e-15 0)
(3 1.61186e-15 0)
(3 1.29226e-15 0)
(3 9.65578e-16 0)
(3 -1.50335e-15 0)
(3 -2.05259e-15 0)
(3 -1.98823e-15 0)
(3 -1.81689e-15 0)
(3 -1.80369e-15 0)
(3 -1.40926e-15 0)
(3 -1.51803e-15 0)
(3 -1.70076e-15 0)
(3 -9.04099e-16 0)
(3 -4.54466e-16 0)
(3 1.60404e-16 0)
(3 1.01239e-15 0)
(3 7.7465e-16 0)
(3 4.6857e-16 0)
(3 5.25364e-16 0)
(3 7.32867e-16 0)
(3 7.98877e-16 0)
(3 9.28026e-16 0)
(3 7.50905e-16 0)
(3 4.68261e-16 0)
(3 2.44485e-16 0)
(3 6.84989e-17 0)
(3 -5.2073e-18 0)
(3 3.88092e-17 0)
(3 -1.62373e-17 0)
(3 2.63799e-16 0)
(3 1.58029e-16 0)
(3 1.40707e-16 0)
(3 9.80999e-17 0)
(3 2.01713e-16 0)
(3 2.74937e-16 0)
(3 4.0827e-16 0)
(3 -6.77008e-17 0)
(3 -3.70915e-16 0)
(3 1.66591e-16 0)
(3 1.24706e-16 0)
(3 -6.39369e-16 0)
(3 -7.93986e-16 0)
(3 -3.28117e-16 0)
(3 3.10694e-16 0)
(3 7.78869e-17 0)
(3 1.45779e-16 0)
(3 7.87057e-16 0)
(3 9.88896e-16 0)
(3 7.26187e-16 0)
(3 9.47078e-16 0)
(3 8.0388e-16 0)
(3 4.16711e-16 0)
(3 -1.17378e-16 0)
(3 -7.13334e-16 0)
(3 -2.03361e-16 0)
(3 4.75097e-16 0)
(3 9.36194e-16 0)
(3 8.03114e-16 0)
(3 8.11558e-16 0)
(3 7.8329e-16 0)
(3 6.83334e-16 0)
(3 4.05445e-16 0)
(3 -6.42156e-17 0)
(3 -5.02977e-17 0)
(3 -3.17833e-16 0)
(3 -5.54886e-16 0)
(3 -2.61955e-16 0)
(3 1.6051e-16 0)
(3 1.07187e-15 0)
(3 9.93829e-16 0)
(3 9.1885e-16 0)
(3 1.47172e-15 0)
(3 1.94268e-15 0)
(3 2.60949e-15 0)
(3 1.25073e-15 0)
(3 7.71203e-16 0)
(3 2.89337e-16 0)
(3 -1.94851e-16 0)
(3 3.2112e-16 0)
(3 4.7646e-16 0)
(3 9.31098e-16 0)
(3 1.47299e-15 0)
(3 -1.30658e-17 0)
(3 -1.87073e-15 0)
(3 -2.3713e-15 0)
(3 -2.61378e-15 0)
(3 -2.72491e-15 0)
(3 -2.07775e-15 0)
(3 -2.10367e-15 0)
(3 -2.56529e-15 0)
(3 -4.14949e-15 0)
(3 -4.36341e-15 0)
(3 -1.40409e-15 0)
(3 2.28377e-15 0)
(3 3.08507e-15 0)
(3 3.63834e-15 0)
(3 2.72492e-15 0)
(3 2.81093e-16 0)
(3 -5.56992e-16 0)
(3 -3.769e-16 0)
(3 -1.24445e-15 0)
(3 -1.55746e-15 0)
(3 -1.87713e-15 0)
(3 -2.04637e-15 0)
(3 -1.62679e-15 0)
(3 -1.28271e-15 0)
(3 -1.74549e-15 0)
(3 -1.61101e-15 0)
(3 -8.40461e-16 0)
(3 -3.49019e-16 0)
(3 8.22961e-16 0)
(3 1.6219e-15 0)
(3 1.44588e-15 0)
(3 -9.02793e-17 0)
(3 -1.17781e-15 0)
(3 -3.75546e-16 0)
(3 -2.01626e-16 0)
(3 4.3201e-16 0)
(3 3.01852e-16 0)
(3 5.66896e-16 0)
(3 2.76987e-16 0)
(3 -3.58228e-17 0)
(3 -7.87096e-16 0)
(3 -4.94948e-16 0)
(3 2.32728e-16 0)
(3 3.69992e-16 0)
(3 6.3544e-16 0)
(3 3.1026e-16 0)
(3 6.41127e-16 0)
(3 6.81063e-16 0)
(3 1.31112e-16 0)
(3 -1.0674e-16 0)
(3 -2.49266e-16 0)
(3 -1.23105e-16 0)
(3 3.00971e-16 0)
(3 2.28184e-16 0)
(3 -2.75149e-16 0)
(3 -5.01675e-16 0)
(3 -4.94836e-16 0)
(3 1.72103e-16 0)
(3 3.41501e-16 0)
(3 5.17516e-16 0)
(3 7.32584e-16 0)
(3 1.11481e-15 0)
(3 9.38515e-16 0)
(3 5.92165e-16 0)
(3 8.56086e-16 0)
(3 1.43019e-15 0)
(3 1.28414e-15 0)
(3 7.29687e-16 0)
(3 1.9526e-16 0)
(3 1.87714e-16 0)
(3 5.23455e-16 0)
(3 1.4872e-16 0)
(3 3.02375e-16 0)
(3 3.82899e-16 0)
(3 1.06683e-15 0)
(3 1.33263e-15 0)
(3 8.66517e-16 0)
(3 3.72066e-16 0)
(3 -1.78336e-16 0)
(3 -6.04222e-17 0)
(3 -1.822e-16 0)
(3 9.41045e-18 0)
(3 8.87121e-16 0)
(3 1.94858e-15 0)
(3 2.05213e-15 0)
(3 2.30498e-15 0)
(3 2.22482e-15 0)
(3 2.34465e-15 0)
(3 2.71277e-15 0)
(3 2.23069e-15 0)
(3 1.59534e-15 0)
(3 1.73592e-15 0)
(3 1.74683e-15 0)
(3 1.80066e-15 0)
(3 1.74134e-15 0)
(3 8.59375e-16 0)
(3 -3.58873e-17 0)
(3 -1.68681e-15 0)
(3 -2.41628e-15 0)
(3 -1.09795e-15 0)
(3 -5.67582e-16 0)
(3 -9.67204e-16 0)
(3 -1.95248e-15 0)
(3 -2.78136e-15 0)
(3 -3.2054e-15 0)
(3 -3.90359e-15 0)
(3 -3.60751e-16 0)
(3 1.60939e-15 0)
(3 2.5479e-15 0)
(3 2.71079e-15 0)
(3 2.51231e-15 0)
(3 1.28433e-15 0)
(3 -8.51345e-16 0)
(3 -1.43069e-15 0)
(3 -1.46391e-15 0)
(3 -1.63015e-15 0)
(3 -1.45292e-15 0)
(3 -1.15763e-15 0)
(3 -1.52536e-15 0)
(3 -1.6126e-15 0)
(3 -1.41627e-15 0)
(3 -6.241e-16 0)
(3 3.63869e-16 0)
(3 1.57835e-15 0)
(3 2.22185e-15 0)
(3 2.72815e-15 0)
(3 3.06504e-15 0)
(3 2.82821e-15 0)
(3 7.29339e-16 0)
(3 -1.38493e-17 0)
(3 -6.46617e-16 0)
(3 -9.59068e-16 0)
(3 -4.37887e-16 0)
(3 -6.30331e-16 0)
(3 -8.82742e-16 0)
(3 -9.47801e-16 0)
(3 -1.16844e-15 0)
(3 -1.08456e-15 0)
(3 1.20836e-16 0)
(3 1.9032e-16 0)
(3 3.25415e-16 0)
(3 2.57867e-16 0)
(3 8.77875e-16 0)
(3 1.04796e-15 0)
(3 7.74956e-16 0)
(3 6.35169e-16 0)
(3 1.2594e-15 0)
(3 1.15943e-15 0)
(3 6.00087e-16 0)
(3 1.26458e-16 0)
(3 4.29541e-16 0)
(3 5.48118e-17 0)
(3 -8.19678e-17 0)
(3 -4.2595e-16 0)
(3 -3.75025e-16 0)
(3 -2.97215e-16 0)
(3 4.27046e-17 0)
(3 3.60137e-16 0)
(3 4.96784e-16 0)
(3 3.16786e-16 0)
(3 3.99452e-16 0)
(3 6.70012e-16 0)
(3 6.84194e-16 0)
(3 6.02928e-16 0)
(3 5.63271e-16 0)
(3 8.8763e-17 0)
(3 -2.89238e-16 0)
(3 -4.4244e-16 0)
(3 -9.54151e-16 0)
(3 -9.37457e-16 0)
(3 -4.38711e-16 0)
(3 4.66178e-16 0)
(3 1.30186e-15 0)
(3 1.11629e-15 0)
(3 8.01427e-16 0)
(3 9.4349e-16 0)
(3 2.11474e-16 0)
(3 3.27155e-16 0)
(3 6.96475e-16 0)
(3 2.22997e-15 0)
(3 2.74332e-15 0)
(3 1.58315e-15 0)
(3 8.34374e-16 0)
(3 2.02975e-15 0)
(3 2.92141e-15 0)
(3 2.75791e-15 0)
(3 2.53357e-15 0)
(3 1.83499e-15 0)
(3 1.25854e-15 0)
(3 1.45968e-15 0)
(3 1.61013e-15 0)
(3 1.40524e-15 0)
(3 9.24702e-16 0)
(3 -3.7192e-17 0)
(3 -7.47042e-16 0)
(3 8.55769e-16 0)
(3 1.04131e-15 0)
(3 5.55702e-16 0)
(3 -6.82119e-16 0)
(3 -9.69651e-16 0)
(3 -3.49792e-16 0)
(3 -3.95786e-16 0)
(3 -6.9787e-16 0)
(3 -5.44393e-16 0)
(3 -1.43191e-17 0)
(3 2.53622e-16 0)
(3 5.03416e-16 0)
(3 7.05369e-16 0)
(3 -1.47731e-15 0)
(3 -1.92636e-15 0)
(3 -1.67602e-15 0)
(3 -1.33883e-15 0)
(3 -1.18921e-15 0)
(3 -5.01031e-16 0)
(3 -2.77482e-16 0)
(3 4.01684e-17 0)
(3 2.97069e-17 0)
(3 -1.0254e-16 0)
(3 1.00437e-15 0)
(3 1.84467e-15 0)
(3 2.96104e-15 0)
(3 3.35712e-15 0)
(3 4.03321e-15 0)
(3 5.25122e-15 0)
(3 3.39409e-15 0)
(3 6.48353e-16 0)
(3 -7.85474e-16 0)
(3 -1.0354e-15 0)
(3 -9.84796e-16 0)
(3 -1.27656e-15 0)
(3 -1.87025e-15 0)
(3 -2.03699e-15 0)
(3 -1.29112e-15 0)
(3 -1.4305e-15 0)
(3 5.57686e-17 0)
(3 -6.96316e-17 0)
(3 3.26106e-16 0)
(3 1.17995e-15 0)
(3 1.11854e-15 0)
(3 9.17061e-16 0)
(3 1.03541e-15 0)
(3 8.54551e-16 0)
(3 7.25499e-16 0)
(3 2.51402e-16 0)
(3 -3.17701e-16 0)
(3 -4.42206e-16 0)
(3 -2.29523e-16 0)
(3 1.18577e-16 0)
(3 6.19907e-16 0)
(3 4.68245e-17 0)
(3 -4.62946e-16 0)
(3 -5.23329e-16 0)
(3 4.74451e-17 0)
(3 -1.72789e-16 0)
(3 7.36313e-18 0)
(3 5.64506e-16 0)
(3 5.26575e-16 0)
(3 4.74054e-16 0)
(3 2.08367e-17 0)
(3 -5.34313e-16 0)
(3 -5.60892e-16 0)
(3 -3.32699e-16 0)
(3 -4.19428e-16 0)
(3 -8.23275e-16 0)
(3 -1.30013e-15 0)
(3 -1.47558e-15 0)
(3 -1.51977e-15 0)
(3 -9.79091e-16 0)
(3 -6.12654e-16 0)
(3 1.68993e-16 0)
(3 1.01698e-15 0)
(3 1.70305e-15 0)
(3 1.9504e-15 0)
(3 2.00553e-15 0)
(3 1.88943e-15 0)
(3 1.57268e-15 0)
(3 -1.17438e-16 0)
(3 -8.42611e-16 0)
(3 1.73772e-16 0)
(3 1.06407e-15 0)
(3 1.8298e-15 0)
(3 2.47043e-15 0)
(3 2.99745e-15 0)
(3 1.92766e-15 0)
(3 1.49356e-15 0)
(3 1.0126e-15 0)
(3 1.32762e-15 0)
(3 1.85432e-15 0)
(3 1.90289e-15 0)
(3 1.91421e-15 0)
(3 2.57151e-15 0)
(3 1.38807e-15 0)
(3 8.06302e-16 0)
(3 3.65044e-16 0)
(3 2.84878e-16 0)
(3 1.83174e-15 0)
(3 1.1627e-15 0)
(3 -1.70477e-15 0)
(3 -1.53354e-15 0)
(3 -1.5791e-15 0)
(3 -1.69894e-15 0)
(3 -1.16288e-15 0)
(3 2.44753e-16 0)
(3 -2.01686e-16 0)
(3 -1.76308e-15 0)
(3 -1.58513e-15 0)
(3 -9.00521e-16 0)
(3 -9.62791e-16 0)
(3 -1.21877e-15 0)
(3 -5.74583e-16 0)
(3 -3.03436e-17 0)
(3 3.75442e-16 0)
(3 6.45433e-16 0)
(3 1.08143e-15 0)
(3 7.02222e-16 0)
(3 2.91277e-16 0)
(3 6.95284e-16 0)
(3 1.92459e-15 0)
(3 2.3479e-15 0)
(3 2.79124e-15 0)
(3 1.48482e-15 0)
(3 -3.81821e-16 0)
(3 -3.49904e-16 0)
(3 -1.54184e-15 0)
(3 -2.45895e-15 0)
(3 -1.47965e-15 0)
(3 -1.20077e-15 0)
(3 -1.36874e-15 0)
(3 -1.15813e-15 0)
(3 -6.42509e-16 0)
(3 1.09416e-16 0)
(3 -6.58882e-16 0)
(3 -1.14265e-16 0)
(3 -2.15699e-17 0)
(3 -2.49964e-16 0)
(3 -9.66036e-17 0)
(3 1.66629e-16 0)
(3 -1.00664e-16 0)
(3 -3.46121e-16 0)
(3 -4.22121e-16 0)
(3 -4.72575e-16 0)
(3 -3.5318e-17 0)
(3 3.43544e-16 0)
(3 4.29355e-16 0)
(3 3.9073e-16 0)
(3 1.04105e-15 0)
(3 1.13544e-15 0)
(3 1.4718e-15 0)
(3 1.18741e-15 0)
(3 5.12663e-16 0)
(3 -4.40588e-18 0)
(3 9.40826e-17 0)
(3 1.61694e-16 0)
(3 1.54419e-16 0)
(3 3.58275e-16 0)
(3 2.70246e-16 0)
(3 -6.49683e-18 0)
(3 6.5752e-17 0)
(3 -5.28988e-17 0)
(3 -6.05281e-16 0)
(3 -1.01487e-15 0)
(3 -1.18158e-15 0)
(3 -1.08897e-15 0)
(3 -6.51656e-16 0)
(3 -5.8972e-16 0)
(3 -2.76268e-16 0)
(3 1.18701e-15 0)
(3 2.58517e-15 0)
(3 3.42003e-15 0)
(3 2.77334e-15 0)
(3 1.36899e-15 0)
(3 9.74477e-16 0)
(3 4.85496e-16 0)
(3 -2.22896e-16 0)
(3 2.986e-16 0)
(3 1.12738e-15 0)
(3 1.87647e-15 0)
(3 3.47892e-15 0)
(3 3.94641e-15 0)
(3 1.9324e-15 0)
(3 1.07878e-15 0)
(3 7.32714e-16 0)
(3 8.66894e-16 0)
(3 1.08527e-15 0)
(3 2.21666e-15 0)
(3 3.31623e-15 0)
(3 3.68592e-15 0)
(3 3.5662e-15 0)
(3 2.94363e-15 0)
(3 2.6939e-15 0)
(3 2.90429e-15 0)
(3 2.83535e-15 0)
(3 1.15188e-15 0)
(3 9.92597e-16 0)
(3 1.89127e-17 0)
(3 -2.94487e-16 0)
(3 -1.02778e-15 0)
(3 -1.17386e-15 0)
(3 -5.2921e-16 0)
(3 -1.08393e-15 0)
(3 -2.72269e-15 0)
(3 -1.0789e-15 0)
(3 -1.91863e-16 0)
(3 -2.12814e-16 0)
(3 -1.93715e-16 0)
(3 1.12633e-16 0)
(3 3.17213e-16 0)
(3 8.71615e-16 0)
(3 1.71845e-15 0)
(3 2.15534e-15 0)
(3 1.53004e-15 0)
(3 1.70041e-16 0)
(3 -1.44349e-15 0)
(3 -1.38073e-15 0)
(3 -4.39739e-16 0)
(3 1.06851e-16 0)
(3 -1.2887e-16 0)
(3 -2.74487e-16 0)
(3 -1.11857e-16 0)
(3 -1.37606e-15 0)
(3 -1.54578e-15 0)
(3 -1.62098e-15 0)
(3 -1.58998e-15 0)
(3 -1.87186e-15 0)
(3 -2.44826e-15 0)
(3 -1.41955e-15 0)
(3 -1.90542e-16 0)
(3 -3.58142e-16 0)
(3 -6.21533e-16 0)
(3 -8.61781e-16 0)
(3 -1.00753e-15 0)
(3 -9.55262e-16 0)
(3 -9.02324e-16 0)
(3 -1.03032e-15 0)
(3 -4.82215e-16 0)
(3 2.0716e-16 0)
(3 1.87621e-16 0)
(3 8.19245e-18 0)
(3 8.29557e-16 0)
(3 1.21279e-15 0)
(3 1.35515e-15 0)
(3 1.19799e-15 0)
(3 1.33039e-15 0)
(3 1.22347e-15 0)
(3 9.30751e-16 0)
(3 1.31033e-15 0)
(3 1.26319e-15 0)
(3 2.08161e-16 0)
(3 3.56429e-16 0)
(3 1.06e-15 0)
(3 1.67229e-15 0)
(3 1.15972e-15 0)
(3 4.65272e-16 0)
(3 4.15163e-16 0)
(3 4.90568e-16 0)
(3 5.03815e-16 0)
(3 3.20362e-16 0)
(3 1.86227e-16 0)
(3 7.12397e-16 0)
(3 6.72782e-16 0)
(3 6.60458e-16 0)
(3 9.60146e-16 0)
(3 1.09381e-15 0)
(3 1.2751e-15 0)
(3 2.11193e-15 0)
(3 1.95507e-15 0)
(3 2.39354e-16 0)
(3 -4.89165e-16 0)
(3 -5.31431e-16 0)
(3 -6.59293e-16 0)
(3 -9.24146e-16 0)
(3 4.493e-16 0)
(3 3.08896e-15 0)
(3 3.65013e-15 0)
(3 3.70957e-15 0)
(3 3.23492e-15 0)
(3 1.53447e-15 0)
(3 1.1357e-15 0)
(3 1.03598e-15 0)
(3 5.23879e-16 0)
(3 1.20056e-15 0)
(3 1.61411e-15 0)
(3 1.8773e-15 0)
(3 2.33519e-15 0)
(3 2.16955e-15 0)
(3 1.07903e-15 0)
(3 6.36612e-16 0)
(3 7.39542e-16 0)
(3 2.34453e-15 0)
(3 3.41919e-15 0)
(3 9.55292e-16 0)
(3 2.65172e-17 0)
(3 -1.08615e-16 0)
(3 -2.63024e-16 0)
(3 -1.57179e-16 0)
(3 -4.26732e-16 0)
(3 -9.36332e-16 0)
(3 -1.56329e-16 0)
(3 4.41274e-16 0)
(3 3.3412e-16 0)
(3 1.04538e-15 0)
(3 1.38374e-15 0)
(3 1.20604e-15 0)
(3 1.18915e-15 0)
(3 1.87435e-15 0)
(3 2.03245e-15 0)
(3 1.19251e-15 0)
(3 5.0325e-17 0)
(3 -8.78708e-16 0)
(3 -1.31596e-15 0)
(3 -3.26729e-17 0)
(3 -6.43729e-18 0)
(3 -5.8151e-16 0)
(3 -9.90545e-16 0)
(3 -8.41105e-16 0)
(3 -2.67933e-16 0)
(3 3.65889e-16 0)
(3 6.14672e-16 0)
(3 -6.34767e-16 0)
(3 -1.24675e-15 0)
(3 -2.6948e-15 0)
(3 -3.29878e-15 0)
(3 -1.47503e-16 0)
(3 -3.6099e-17 0)
(3 -4.43209e-16 0)
(3 -5.82063e-16 0)
(3 -7.09652e-16 0)
(3 -7.25787e-16 0)
(3 -6.00338e-16 0)
(3 -1.24784e-16 0)
(3 -1.70294e-16 0)
(3 3.11111e-16 0)
(3 1.11419e-15 0)
(3 1.22904e-15 0)
(3 7.54387e-16 0)
(3 6.27795e-16 0)
(3 3.99632e-16 0)
(3 4.17196e-16 0)
(3 3.91696e-16 0)
(3 -3.73862e-16 0)
(3 2.29402e-16 0)
(3 1.86033e-15 0)
(3 2.45655e-15 0)
(3 1.01319e-15 0)
(3 8.83038e-16 0)
(3 7.75357e-16 0)
(3 2.39811e-16 0)
(3 4.63525e-16 0)
(3 1.03852e-15 0)
(3 7.11723e-16 0)
(3 1.13063e-15 0)
(3 1.06091e-15 0)
(3 1.58178e-15 0)
(3 1.3424e-15 0)
(3 1.51166e-15 0)
(3 1.4135e-15 0)
(3 1.44478e-15 0)
(3 1.37306e-15 0)
(3 4.78467e-16 0)
(3 3.0847e-16 0)
(3 1.07179e-16 0)
(3 -8.42567e-16 0)
(3 -1.81223e-15 0)
(3 -2.17517e-15 0)
(3 -2.03602e-15 0)
(3 -1.81231e-15 0)
(3 -6.84758e-16 0)
(3 8.89071e-16 0)
(3 1.56236e-15 0)
(3 2.36916e-15 0)
(3 2.4251e-15 0)
(3 2.37275e-15 0)
(3 1.94305e-15 0)
(3 1.8093e-15 0)
(3 1.02832e-15 0)
(3 3.35095e-16 0)
(3 2.35872e-17 0)
(3 5.85356e-16 0)
(3 1.16091e-15 0)
(3 1.09264e-15 0)
(3 8.74394e-16 0)
(3 -6.37446e-16 0)
(3 -1.05236e-15 0)
(3 -6.21292e-16 0)
(3 1.991e-15 0)
(3 2.72682e-15 0)
(3 4.33592e-17 0)
(3 -2.12292e-15 0)
(3 -2.12658e-15 0)
(3 -1.6996e-15 0)
(3 -1.32026e-15 0)
(3 -9.4956e-16 0)
(3 5.35074e-16 0)
(3 1.34078e-15 0)
(3 1.42276e-15 0)
(3 1.19004e-15 0)
(3 7.63217e-16 0)
(3 4.45791e-16 0)
(3 9.71525e-16 0)
(3 1.19987e-15 0)
(3 8.65845e-16 0)
(3 2.95457e-16 0)
(3 -9.89035e-17 0)
(3 -5.35379e-16 0)
(3 2.26847e-16 0)
(3 -2.81578e-16 0)
(3 -3.2336e-16 0)
(3 -1.81158e-16 0)
(3 -9.86583e-17 0)
(3 -3.55825e-16 0)
(3 3.55395e-16 0)
(3 3.48193e-16 0)
(3 -3.85275e-16 0)
(3 -9.46467e-16 0)
(3 -1.25988e-15 0)
(3 -1.74935e-15 0)
(3 -2.81938e-15 0)
(3 -3.65525e-15 0)
(3 -1.74914e-16 0)
(3 -4.94716e-17 0)
(3 1.38464e-16 0)
(3 -4.72093e-17 0)
(3 -1.68534e-16 0)
(3 2.75276e-16 0)
(3 5.11888e-16 0)
(3 1.09281e-15 0)
(3 5.67637e-16 0)
(3 -4.65658e-17 0)
(3 4.11836e-16 0)
(3 3.09194e-16 0)
(3 -3.06467e-16 0)
(3 -1.01296e-15 0)
(3 -1.9388e-15 0)
(3 -1.57939e-15 0)
(3 -6.74217e-16 0)
(3 8.28955e-17 0)
(3 8.01779e-16 0)
(3 1.06605e-15 0)
(3 1.61667e-15 0)
(3 1.91528e-15 0)
(3 1.88659e-15 0)
(3 9.35958e-16 0)
(3 4.0056e-16 0)
(3 4.17117e-16 0)
(3 9.44227e-16 0)
(3 1.05113e-15 0)
(3 1.10397e-15 0)
(3 1.23316e-15 0)
(3 1.30479e-15 0)
(3 1.06537e-15 0)
(3 3.99241e-16 0)
(3 8.26569e-16 0)
(3 5.36454e-16 0)
(3 1.76295e-16 0)
(3 -1.28004e-16 0)
(3 -3.31908e-16 0)
(3 -4.73658e-16 0)
(3 -6.08673e-16 0)
(3 -9.37567e-16 0)
(3 -5.53131e-16 0)
(3 1.68257e-16 0)
(3 5.70077e-16 0)
(3 8.52438e-16 0)
(3 7.11793e-16 0)
(3 1.3295e-15 0)
(3 1.76578e-15 0)
(3 1.72712e-15 0)
(3 1.75955e-15 0)
(3 1.55562e-15 0)
(3 9.95278e-16 0)
(3 4.23134e-17 0)
(3 4.12836e-17 0)
(3 2.34489e-16 0)
(3 1.99613e-16 0)
(3 1.64235e-16 0)
(3 3.70919e-16 0)
(3 8.47883e-17 0)
(3 -7.71759e-16 0)
(3 -9.24018e-16 0)
(3 -6.01808e-16 0)
(3 7.58131e-16 0)
(3 -1.3845e-16 0)
(3 -2.03652e-15 0)
(3 -3.12606e-15 0)
(3 -3.06519e-15 0)
(3 -2.64784e-15 0)
(3 -1.75469e-15 0)
(3 3.97734e-16 0)
(3 1.57194e-15 0)
(3 1.13955e-15 0)
(3 4.50394e-17 0)
(3 -3.72323e-17 0)
(3 1.40096e-15 0)
(3 1.91948e-15 0)
(3 2.90092e-15 0)
(3 3.3233e-15 0)
(3 1.59701e-15 0)
(3 -5.60986e-16 0)
(3 -9.88751e-16 0)
(3 -1.11754e-15 0)
(3 -1.72716e-16 0)
(3 2.13983e-16 0)
(3 -3.29206e-16 0)
(3 4.55077e-16 0)
(3 6.76328e-16 0)
(3 1.31145e-15 0)
(3 9.93739e-16 0)
(3 2.32727e-16 0)
(3 -3.08236e-16 0)
(3 -7.17332e-16 0)
(3 -7.29242e-16 0)
(3 -1.32897e-15 0)
(3 -2.57016e-15 0)
(3 -3.287e-15 0)
(3 1.52898e-16 0)
(3 1.97667e-16 0)
(3 5.46763e-16 0)
(3 5.67088e-16 0)
(3 4.63285e-16 0)
(3 7.39339e-16 0)
(3 1.00517e-15 0)
(3 8.32144e-16 0)
(3 4.97141e-16 0)
(3 -2.69083e-16 0)
(3 -3.14451e-16 0)
(3 -1.15185e-15 0)
(3 -1.74202e-15 0)
(3 -2.26098e-15 0)
(3 -1.77319e-15 0)
(3 -1.91068e-15 0)
(3 -1.61166e-15 0)
(3 -7.60742e-16 0)
(3 -4.84737e-16 0)
(3 -1.51084e-16 0)
(3 2.48263e-16 0)
(3 1.14619e-15 0)
(3 1.00596e-15 0)
(3 6.52892e-16 0)
(3 5.63695e-16 0)
(3 2.16113e-16 0)
(3 -7.87553e-18 0)
(3 7.19805e-16 0)
(3 1.75042e-16 0)
(3 7.01674e-16 0)
(3 4.81678e-16 0)
(3 4.72946e-16 0)
(3 2.8907e-16 0)
(3 4.974e-17 0)
(3 -6.18819e-16 0)
(3 -4.16989e-16 0)
(3 -4.55239e-16 0)
(3 -9.70233e-16 0)
(3 -1.16864e-15 0)
(3 -6.03798e-16 0)
(3 -3.84835e-16 0)
(3 -3.32351e-17 0)
(3 3.36343e-16 0)
(3 5.97129e-16 0)
(3 2.423e-16 0)
(3 4.32652e-16 0)
(3 7.28186e-16 0)
(3 1.99801e-15 0)
(3 2.11625e-15 0)
(3 1.62204e-15 0)
(3 9.05511e-16 0)
(3 3.6096e-16 0)
(3 -1.67446e-16 0)
(3 1.64327e-16 0)
(3 6.45757e-16 0)
(3 1.76956e-16 0)
(3 -7.0723e-16 0)
(3 -1.17079e-15 0)
(3 -1.21896e-15 0)
(3 -9.89521e-16 0)
(3 6.26475e-16 0)
(3 1.02859e-15 0)
(3 -3.69936e-16 0)
(3 -1.89288e-15 0)
(3 -1.9309e-15 0)
(3 -2.10934e-15 0)
(3 -2.03555e-15 0)
(3 -1.71924e-15 0)
(3 -1.35509e-15 0)
(3 5.67469e-16 0)
(3 5.34766e-16 0)
(3 9.65513e-17 0)
(3 -3.2011e-16 0)
(3 9.36205e-17 0)
(3 1.21281e-15 0)
(3 3.82489e-15 0)
(3 4.80827e-15 0)
(3 4.28984e-15 0)
(3 2.64524e-15 0)
(3 1.40461e-15 0)
(3 -1.49913e-16 0)
(3 -3.99846e-17 0)
(3 -5.28539e-16 0)
(3 -1.05717e-15 0)
(3 -1.29827e-15 0)
(3 -8.33551e-16 0)
(3 1.10869e-16 0)
(3 2.57066e-16 0)
(3 1.12501e-15 0)
(3 8.00537e-16 0)
(3 3.53715e-16 0)
(3 4.11109e-17 0)
(3 -1.34557e-16 0)
(3 -1.06989e-15 0)
(3 -1.34502e-15 0)
(3 -2.5012e-15 0)
(3 5.93741e-17 0)
(3 4.72508e-16 0)
(3 5.36423e-16 0)
(3 5.68541e-16 0)
(3 3.50981e-16 0)
(3 5.65848e-16 0)
(3 7.96899e-16 0)
(3 6.81139e-16 0)
(3 5.91443e-16 0)
(3 6.85947e-16 0)
(3 1.61239e-16 0)
(3 -7.27915e-17 0)
(3 -2.87832e-16 0)
(3 -7.88527e-17 0)
(3 4.70872e-16 0)
(3 3.09562e-16 0)
(3 -4.39743e-17 0)
(3 -5.81989e-16 0)
(3 -4.90365e-16 0)
(3 -4.6438e-16 0)
(3 1.6251e-16 0)
(3 1.18003e-16 0)
(3 2.50129e-16 0)
(3 -1.8321e-16 0)
(3 -5.02822e-16 0)
(3 -6.0155e-16 0)
(3 -3.18753e-16 0)
(3 6.66193e-16 0)
(3 7.90583e-16 0)
(3 4.60058e-16 0)
(3 -6.06896e-17 0)
(3 -4.76666e-16 0)
(3 -5.5234e-16 0)
(3 -6.82047e-16 0)
(3 -1.6894e-16 0)
(3 3.53463e-17 0)
(3 -2.44482e-16 0)
(3 -1.29879e-15 0)
(3 -1.45693e-15 0)
(3 5.93008e-17 0)
(3 8.37795e-16 0)
(3 1.26715e-15 0)
(3 5.92328e-16 0)
(3 -2.80489e-16 0)
(3 -3.94771e-16 0)
(3 -3.22545e-16 0)
(3 -1.02464e-15 0)
(3 -9.90996e-16 0)
(3 -9.60295e-16 0)
(3 -4.52136e-16 0)
(3 -4.15141e-16 0)
(3 -1.04197e-16 0)
(3 5.67563e-16 0)
(3 4.86049e-16 0)
(3 -1.17529e-16 0)
(3 -3.83561e-16 0)
(3 -8.94808e-16 0)
(3 -1.96642e-15 0)
(3 -1.99785e-15 0)
(3 -1.22971e-15 0)
(3 9.37333e-16 0)
(3 1.49931e-15 0)
(3 5.62699e-16 0)
(3 -1.67279e-15 0)
(3 -1.93851e-15 0)
(3 -1.8496e-15 0)
(3 -1.7066e-15 0)
(3 -2.34391e-15 0)
(3 -1.52732e-15 0)
(3 -3.15102e-16 0)
(3 5.24519e-17 0)
(3 6.99216e-16 0)
(3 1.21436e-15 0)
(3 1.01887e-15 0)
(3 2.12825e-15 0)
(3 2.98745e-15 0)
(3 4.02559e-15 0)
(3 3.93453e-15 0)
(3 2.84304e-15 0)
(3 1.34095e-15 0)
(3 1.21036e-15 0)
(3 2.05882e-15 0)
(3 9.14243e-16 0)
(3 -1.46556e-15 0)
(3 -2.5681e-15 0)
(3 -3.99904e-15 0)
(3 -2.32559e-15 0)
(3 -6.7194e-16 0)
(3 3.51436e-17 0)
(3 -4.5401e-16 0)
(3 -6.15078e-16 0)
(3 -5.72609e-16 0)
(3 -1.70545e-16 0)
(3 3.89486e-16 0)
(3 -8.29491e-16 0)
(3 -1.97913e-15 0)
(3 -1.37733e-16 0)
(3 -1.00676e-16 0)
(3 -4.66664e-17 0)
(3 1.61875e-16 0)
(3 1.40104e-17 0)
(3 -2.86984e-16 0)
(3 -3.00439e-16 0)
(3 -7.87211e-17 0)
(3 -5.24765e-17 0)
(3 -1.83278e-16 0)
(3 -1.24836e-16 0)
(3 1.21583e-16 0)
(3 5.54662e-16 0)
(3 1.45072e-15 0)
(3 1.71089e-15 0)
(3 1.86941e-15 0)
(3 2.12965e-15 0)
(3 1.25492e-15 0)
(3 5.46686e-16 0)
(3 1.5359e-16 0)
(3 4.17021e-16 0)
(3 3.89978e-16 0)
(3 6.05014e-16 0)
(3 8.93348e-16 0)
(3 3.48788e-17 0)
(3 -3.72501e-16 0)
(3 -5.68818e-16 0)
(3 4.72526e-16 0)
(3 1.09347e-15 0)
(3 1.42e-15 0)
(3 1.56846e-15 0)
(3 1.56712e-15 0)
(3 1.24307e-15 0)
(3 6.21438e-16 0)
(3 -5.23675e-17 0)
(3 -6.24386e-16 0)
(3 -8.97532e-16 0)
(3 -1.08195e-15 0)
(3 -9.33761e-16 0)
(3 -3.68308e-16 0)
(3 1.39743e-15 0)
(3 1.36995e-15 0)
(3 -1.32698e-16 0)
(3 -1.20904e-15 0)
(3 -1.26278e-15 0)
(3 -2.69298e-15 0)
(3 -4.01549e-15 0)
(3 -5.12716e-15 0)
(3 -4.88642e-15 0)
(3 -3.06359e-15 0)
(3 -1.45531e-15 0)
(3 1.01812e-17 0)
(3 7.49223e-16 0)
(3 6.00627e-16 0)
(3 -5.33754e-16 0)
(3 -1.58579e-15 0)
(3 -1.71159e-15 0)
(3 -1.20058e-15 0)
(3 -1.4076e-15 0)
(3 -9.44316e-16 0)
(3 -1.4254e-16 0)
(3 3.78051e-16 0)
(3 -6.45609e-16 0)
(3 -2.07327e-15 0)
(3 -3.19416e-15 0)
(3 -1.92777e-15 0)
(3 2.44699e-16 0)
(3 6.33209e-16 0)
(3 8.24487e-16 0)
(3 2.09843e-16 0)
(3 6.27515e-16 0)
(3 1.51377e-15 0)
(3 2.62334e-15 0)
(3 3.41564e-15 0)
(3 3.54898e-15 0)
(3 3.16024e-15 0)
(3 3.19607e-15 0)
(3 3.53072e-15 0)
(3 2.53112e-15 0)
(3 2.08789e-15 0)
(3 1.99642e-15 0)
(3 1.58817e-15 0)
(3 6.26227e-16 0)
(3 1.93179e-16 0)
(3 -1.69408e-15 0)
(3 -3.63224e-15 0)
(3 -4.05997e-15 0)
(3 -1.0811e-15 0)
(3 -6.41182e-16 0)
(3 -3.22831e-16 0)
(3 -2.75862e-16 0)
(3 -2.51881e-16 0)
(3 -1.84291e-16 0)
(3 4.45728e-16 0)
(3 6.00943e-16 0)
(3 4.69731e-16 0)
(3 3.11178e-17 0)
(3 -1.99284e-17 0)
(3 -1.08837e-16 0)
(3 3.82816e-16 0)
(3 6.2733e-16 0)
(3 4.07601e-16 0)
(3 -8.16739e-16 0)
(3 -1.07325e-15 0)
(3 -1.30498e-15 0)
(3 -1.43521e-15 0)
(3 -9.46208e-16 0)
(3 2.1256e-17 0)
(3 7.93088e-16 0)
(3 1.39544e-15 0)
(3 1.06383e-15 0)
(3 1.04322e-15 0)
(3 1.13327e-15 0)
(3 1.18071e-16 0)
(3 -8.42738e-16 0)
(3 -1.2302e-15 0)
(3 -1.577e-15 0)
(3 -1.37158e-15 0)
(3 -9.36015e-16 0)
(3 -7.66469e-16 0)
(3 1.70618e-17 0)
(3 4.99874e-16 0)
(3 3.48334e-16 0)
(3 -2.43317e-16 0)
(3 1.46447e-16 0)
(3 1.35065e-15 0)
(3 2.03317e-15 0)
(3 2.4258e-15 0)
(3 2.00233e-15 0)
(3 1.30641e-15 0)
(3 5.69282e-16 0)
(3 -3.9477e-16 0)
(3 -2.01003e-16 0)
(3 -3.39024e-16 0)
(3 -8.39992e-16 0)
(3 -1.45719e-15 0)
(3 -4.48314e-16 0)
(3 -4.8981e-16 0)
(3 -1.99125e-15 0)
(3 -1.97664e-15 0)
(3 -1.85732e-15 0)
(3 -3.91204e-15 0)
(3 -4.07987e-15 0)
(3 -4.23102e-15 0)
(3 -3.7489e-15 0)
(3 -2.22724e-15 0)
(3 -3.52928e-16 0)
(3 7.74478e-17 0)
(3 -2.4718e-17 0)
(3 4.34353e-17 0)
(3 7.88153e-17 0)
(3 -1.65315e-15 0)
(3 -1.88559e-15 0)
(3 -6.52184e-16 0)
(3 -9.25411e-16 0)
(3 -1.05987e-15 0)
(3 -9.42627e-16 0)
(3 -1.25364e-15 0)
(3 -1.75775e-15 0)
(3 -2.18924e-15 0)
(3 -1.85053e-15 0)
(3 -6.37872e-16 0)
(3 2.90886e-16 0)
(3 1.79535e-15 0)
(3 2.07618e-15 0)
(3 2.52591e-15 0)
(3 2.58013e-15 0)
(3 2.10828e-15 0)
(3 2.00031e-15 0)
(3 2.37312e-15 0)
(3 2.97111e-15 0)
(3 2.84416e-15 0)
(3 2.33329e-15 0)
(3 2.28106e-15 0)
(3 1.74687e-15 0)
(3 1.08363e-15 0)
(3 6.33614e-16 0)
(3 1.90868e-16 0)
(3 -4.23679e-17 0)
(3 -4.69796e-16 0)
(3 -1.57724e-15 0)
(3 -1.86276e-15 0)
(3 -2.4439e-15 0)
(3 -2.07553e-15 0)
(3 -1.53854e-15 0)
(3 -1.1432e-15 0)
(3 -7.81414e-16 0)
(3 -6.07609e-16 0)
(3 -3.55082e-16 0)
(3 -3.29469e-16 0)
(3 1.34028e-15 0)
(3 2.55764e-15 0)
(3 5.56027e-17 0)
(3 2.62056e-16 0)
(3 -3.42649e-18 0)
(3 -2.779e-16 0)
(3 2.20565e-17 0)
(3 1.67991e-16 0)
(3 -3.91274e-16 0)
(3 -9.04807e-16 0)
(3 -1.15117e-15 0)
(3 -9.58887e-16 0)
(3 -8.42037e-16 0)
(3 -6.44758e-17 0)
(3 -1.65168e-16 0)
(3 -4.19272e-16 0)
(3 -4.37124e-16 0)
(3 1.29427e-16 0)
(3 -1.59778e-16 0)
(3 -6.24988e-16 0)
(3 -2.37853e-16 0)
(3 -3.539e-16 0)
(3 -7.38642e-16 0)
(3 -7.64794e-16 0)
(3 -1.10561e-15 0)
(3 -1.00992e-15 0)
(3 -8.38772e-17 0)
(3 3.4952e-16 0)
(3 -4.78369e-16 0)
(3 -9.57093e-16 0)
(3 -1.04282e-15 0)
(3 3.19357e-16 0)
(3 7.6478e-16 0)
(3 1.48214e-15 0)
(3 1.40467e-15 0)
(3 1.19396e-15 0)
(3 1.89993e-15 0)
(3 2.25611e-15 0)
(3 1.60446e-15 0)
(3 3.01511e-16 0)
(3 -4.0919e-16 0)
(3 -9.87788e-16 0)
(3 -1.29211e-15 0)
(3 -1.70833e-15 0)
(3 -1.11784e-15 0)
(3 -4.24795e-16 0)
(3 -5.03202e-16 0)
(3 -1.44333e-15 0)
(3 -1.17398e-15 0)
(3 -1.67383e-15 0)
(3 -2.09255e-15 0)
(3 -1.96691e-15 0)
(3 -1.0438e-15 0)
(3 -2.82279e-16 0)
(3 5.00115e-17 0)
(3 2.4118e-16 0)
(3 5.96709e-16 0)
(3 3.11213e-16 0)
(3 2.11315e-17 0)
(3 6.26958e-16 0)
(3 8.30107e-16 0)
(3 2.78833e-16 0)
(3 -6.44232e-16 0)
(3 -1.34785e-15 0)
(3 -6.96131e-16 0)
(3 5.17106e-16 0)
(3 5.12951e-16 0)
(3 -1.51143e-16 0)
(3 -1.9706e-16 0)
(3 3.37718e-16 0)
(3 9.28764e-16 0)
(3 4.74801e-15 0)
(3 5.25868e-15 0)
(3 5.02836e-15 0)
(3 4.0715e-15 0)
(3 2.85167e-15 0)
(3 2.50204e-15 0)
(3 1.24583e-15 0)
(3 8.51247e-16 0)
(3 8.186e-16 0)
(3 5.33524e-16 0)
(3 -2.39922e-16 0)
(3 -8.37521e-17 0)
(3 2.70447e-16 0)
(3 3.42468e-17 0)
(3 -5.76487e-16 0)
(3 -2.53575e-16 0)
(3 -7.58963e-16 0)
(3 -1.77641e-15 0)
(3 -3.43765e-15 0)
(3 -2.00327e-15 0)
(3 -8.15147e-16 0)
(3 -8.92203e-16 0)
(3 -5.59353e-16 0)
(3 -2.44592e-17 0)
(3 3.05658e-16 0)
(3 8.07549e-16 0)
(3 7.33041e-16 0)
(3 1.23861e-16 0)
(3 -1.46595e-16 0)
(3 -2.41608e-16 0)
(3 -7.46681e-16 0)
(3 -8.45737e-16 0)
(3 -1.31096e-15 0)
(3 -1.02962e-15 0)
(3 -1.01881e-15 0)
(3 -5.15554e-16 0)
(3 2.50025e-16 0)
(3 8.06519e-16 0)
(3 7.94091e-16 0)
(3 5.51016e-16 0)
(3 -5.67131e-17 0)
(3 8.55894e-17 0)
(3 1.75716e-16 0)
(3 5.77062e-17 0)
(3 -6.66234e-17 0)
(3 6.53902e-16 0)
(3 1.37109e-15 0)
(3 2.03724e-15 0)
(3 2.40029e-15 0)
(3 1.7568e-15 0)
(3 1.33642e-15 0)
(3 1.92297e-15 0)
(3 1.12469e-15 0)
(3 4.65908e-17 0)
(3 -5.13244e-16 0)
(3 -8.32005e-16 0)
(3 -9.55254e-16 0)
(3 -6.06445e-16 0)
(3 9.65862e-17 0)
(3 9.00104e-16 0)
(3 1.30012e-15 0)
(3 1.81254e-15 0)
(3 2.01846e-15 0)
(3 1.62064e-15 0)
(3 1.01727e-15 0)
(3 6.20499e-16 0)
(3 2.41906e-16 0)
(3 -5.07431e-16 0)
(3 -9.02565e-16 0)
(3 -2.64223e-16 0)
(3 2.81048e-16 0)
(3 6.03503e-16 0)
(3 6.06888e-16 0)
(3 8.76232e-16 0)
(3 1.10673e-15 0)
(3 2.03567e-16 0)
(3 -1.03465e-15 0)
(3 -1.20089e-15 0)
(3 -6.50927e-16 0)
(3 4.18751e-17 0)
(3 2.30255e-16 0)
(3 9.50765e-16 0)
(3 1.47196e-15 0)
(3 1.78393e-15 0)
(3 1.73644e-15 0)
(3 1.49319e-15 0)
(3 6.36515e-16 0)
(3 -2.03588e-16 0)