/*--------------------------------*- C++ -*----------------------------------*\
  =========                 |
  \\      /  F ield         | OpenFOAM: The Open Source CFD Toolbox
   \\    /   O peration     | Website:  https://openfoam.org
    \\  /    A nd           | Version:  7
     \\/     M anipulation  |
\*---------------------------------------------------------------------------*/
FoamFile
{
    version     2.0;
    format      ascii;
    class       volScalarField;
    location    "0.6";
    object      p;
}
// * * * * * * * * * * * * * * * * * * * * * * * * * * * * * * * * * * * * * //

dimensions      [1 -1 -2 0 0 0 0];

internalField   nonuniform List<scalar> 
4608
(
1
1
1
1
1
1
1
1
1
1
1
1
1
1
1
1
1
1
1
1
1
1
1
1
1
1
1
1
1
1
1
1
1
1
1
1
1
1
1
1
1
1
1
1
1
1
1
1
1
1
1
1
1
1
1
1
1
1
1
1
1
1
1
1
1
1
1
1
1
1
1
1
1
1
1
1
1
1
1
1
1
1
1
1
1
1
1
1
1
1
1
1
1
1
1
1
1
1
1
1
1
1
1
1
1
1
1
1
1
1
1
1
1
1
1
1
1
1
1
1
1
1
1
1
1
1
1
1
1
1
1
1
1
1
1
1
1
1
1
1
1
1
1
1
1
1
1
1
1
1
1
1
1
1
1
1
1
1
1
1
1
1
1
1
1
1
1
1
1
1
1
1
1
1
1
1
1
1
1
1
1
1
1
1
1
1
1
1
1
1
1
1
1
1
1
1
1
1
1
1
1
1
1
1
1
1
1
1
1
1
1
1
1
1
1
1
1
1
1
1
1
1
1
1
1
1
1
1
1
1
1
1
1
1
1
1
1
1
1
1
1
1
1
1
1
1
1
1
1
1
1
1
1
1
1
1
1
1
1
1
1
1
1
1
1
1
1
1
1
1
1
1
1
1
1
1
1
1
1
1
1
1
1
1
1
1
1
1
1
1
1
1
1
1
1
1
1
1
1
1
1
1
1
1
1
1
1
1
1
1
1
1
1
1
1
1
1
1
1
1
1
1
1
1
1
1
1
1
1
1
1
1
1
1
1
1
1
1
1
1
1
1
1
1
1
1
1
1
1
1
1
1
1
1
1
1
1
1
1
1
1
1
1
1
1
1
1
1
1
1
1
1
1
1
1
1
1
1
1
1
1
1
1
1
1
1
1
1
1
1
1
1
1
1
1
1
1
1
1
1
1
1
1
1
1
1
1
1
1
1
1
1
1
1
1
1
1
1
1
1
1
1
1
1
1
1
1
1
1
1
1
1
1
1
1
1
1
1
1
1
1
1
1
1
1
1
1
1
1
1
1
1
1
1
1
1
1
1
1
1
1
1
1
1
1
1
1
1
1
1
1
1
1
1
1
1
1
1
1
1
1
1
1
1
1
1
1
1
1
1
1
1
1
1
1
1
1
1
1
1
1
1
1
1
1
1
1
1
1
1
1
1
1
1
1
1
1
1
1
1
1
1
1
1
1
1
1
1
1
1
1
1
1
1
1
1
1
1
1
1
1
1
1
1
1
1
1
1
1
1
1
1
1
1
1
1
1
1
1
1
1
1
1
1
1
1
1
1
1
1
1
1
1
1
1
1
1
1
1
1
1
1
1
1
1
1
1
1
1
1
1
1
1
1
1
1
1
1
1
1
1
1
1
1
1
1
1
1
1
1
1
1
1
1
1
1
1
1
1
1
1
1
1
1
1
1
1
1
1
1
1
1
1
1
1
1
1
1
1
1
1
1
1
1
1
1
1
1
1
1
1
1
1
1
1
1
1
1
1
1
1
1
1
1
1
1
1
1
1
1
1
1
1
1
1
1
1
1
1
1
1
1
1
1
1
1
1
1
1
1
1
1
1
1
1
1
1
1
1
1
1
1
1
1
1
1
1
1
1
1
1
1
1
1
1
1
1
1
1
1
1
1
1
1
1
1
1
1
1
1
1
1
1
1
1
1
1
1
1
1
1
1
1
1
1
1
1
1
1
1
1
1
1
1
1
1
1
1
1
1
1
1
1
1
1
1
1
1
1.29107
1.75869
2.34974
2.96491
3.62786
4.30229
4.81943
5.31802
5.36814
5.15806
4.7112
4.22109
3.79896
3.66218
3.56981
3.57973
3.61408
3.64792
3.67468
3.70106
3.73485
3.76598
3.77276
3.7746
1.00332
1.01822
1.07922
1.22372
1.46824
1.85984
2.36521
3.00835
3.553
3.83724
4.02383
4.05521
3.96753
3.8612
3.76983
3.72273
3.70684
3.68436
3.6815
3.69633
3.72069
3.74607
3.75966
3.7657
1
0.999964
1.00002
1.00037
1.00353
1.0245
1.10797
1.36399
1.98352
3.01141
3.83121
4.3095
4.3748
4.27691
4.09602
3.84971
3.74786
3.69787
3.67196
3.68427
3.70183
3.72224
3.74296
3.76172
1
0.999999
0.999998
0.999998
0.999986
1.00004
0.999932
1.0017
1.0355
1.28851
2.04969
3.08404
4.06939
4.12354
4.03961
3.97509
3.89153
3.80983
3.74597
3.70857
3.70494
3.71546
3.73267
3.76155
1
1
1
1
0.999999
0.999999
0.999992
0.99999
0.999905
1.00105
1.04692
1.33646
2.26479
3.26074
3.96294
4.11192
4.06992
3.96821
3.87574
3.79238
3.72296
3.71239
3.71839
3.7396
1
1
1
1
1
1
1
0.999999
0.999991
0.999992
0.999911
1.00276
1.07367
1.54075
2.53678
3.47842
3.83174
3.88355
3.85008
3.77674
3.71551
3.7138
3.71249
3.71614
1
1
1
1
1
1
1
1
1
0.999999
0.999993
0.999985
0.999994
1.01215
1.14796
1.81067
2.87982
3.78237
3.85749
3.83154
3.78514
3.7641
3.73756
3.71865
1
1
1
1
1
1
1
1
1
1
1
0.999998
0.999997
0.999968
1.00071
1.0429
1.34146
2.2943
3.2624
3.81691
3.85762
3.83161
3.79519
3.76632
1
1
1
1
1
1
1
1
1
1
1
1
1
0.999996
0.999992
1.00004
1.0064
1.14646
1.75188
2.9232
3.43517
3.68315
3.80737
3.79901
1
1
1
1
1
1
1
1
1
1
1
1
1
1
0.999999
0.999999
0.999983
1.00184
1.04412
1.42563
2.3435
3.3696
3.75306
3.7397
1
1
1
1
1
1
1
1
1
1
1
1
1
1
1
1
0.999998
0.99999
1.00017
1.01526
1.21864
2.00255
3.03294
3.52711
1
1
1
1
1
1
1
1
1
1
1
1
1
1
1
1
1
0.999998
0.999997
1.00002
1.00566
1.1034
1.74491
2.7251
1
1
1
1
1
1
1
1
1
1
1
1
1
1
1
1
1
1
0.999999
0.999999
0.999998
1.00177
1.07092
1.49635
1
1
1
1
1
1
1
1
1
1
1
1
1
1
1
1
1
1
1
1
0.999999
0.999999
1.00126
1.02794
1
1
1
1
1
1
1
1
1
1
1
1
1
1
1
1
1
1
1
1
1
0.999999
1.00001
1.00003
1
1
1
1
1
1
1
1
1
1
1
1
1
1
1
1
1
1
1
1
1
1
1
0.999999
1
1
1
1
1
1
1
1
1
1
1
1
1
1
1
1
1
1
1
1
1
1
1
0.999999
1
1
1
1
1
1
1
1
1
1
1
1
1
1
1
1
1
1
1
1
1
0.999999
1.00001
1.00003
1
1
1
1
1
1
1
1
1
1
1
1
1
1
1
1
1
1
1
1
0.999999
0.999999
1.00126
1.02794
1
1
1
1
1
1
1
1
1
1
1
1
1
1
1
1
1
1
0.999999
0.999999
0.999998
1.00177
1.07092
1.49635
1
1
1
1
1
1
1
1
1
1
1
1
1
1
1
1
1
0.999998
0.999997
1.00002
1.00566
1.1034
1.74491
2.7251
1
1
1
1
1
1
1
1
1
1
1
1
1
1
1
1
0.999998
0.99999
1.00017
1.01526
1.21864
2.00255
3.03294
3.52711
1
1
1
1
1
1
1
1
1
1
1
1
1
1
0.999999
0.999999
0.999983
1.00184
1.04412
1.42563
2.3435
3.3696
3.75306
3.7397
1
1
1
1
1
1
1
1
1
1
1
1
1
0.999996
0.999992
1.00004
1.0064
1.14646
1.75188
2.9232
3.43517
3.68315
3.80737
3.79901
1
1
1
1
1
1
1
1
1
1
1
0.999998
0.999997
0.999968
1.00071
1.0429
1.34146
2.2943
3.2624
3.81691
3.85762
3.83161
3.79519
3.76632
1
1
1
1
1
1
1
1
1
0.999999
0.999993
0.999985
0.999994
1.01215
1.14796
1.81067
2.87982
3.78237
3.85749
3.83154
3.78514
3.7641
3.73756
3.71865
1
1
1
1
1
1
1
0.999999
0.999991
0.999992
0.999911
1.00276
1.07367
1.54075
2.53678
3.47842
3.83174
3.88355
3.85008
3.77674
3.71551
3.7138
3.71249
3.71614
1
1
1
1
0.999999
0.999999
0.999992
0.99999
0.999905
1.00105
1.04692
1.33646
2.26479
3.26074
3.96294
4.11192
4.06992
3.96821
3.87574
3.79238
3.72296
3.71239
3.71839
3.7396
1
0.999999
0.999998
0.999998
0.999986
1.00004
0.999932
1.0017
1.0355
1.28851
2.04969
3.08404
4.06939
4.12354
4.03961
3.97509
3.89153
3.80983
3.74597
3.70857
3.70494
3.71546
3.73267
3.76155
1
0.999964
1.00002
1.00037
1.00353
1.0245
1.10797
1.36399
1.98352
3.01141
3.83121
4.3095
4.3748
4.27691
4.09602
3.84971
3.74786
3.69787
3.67196
3.68427
3.70183
3.72224
3.74296
3.76172
1.00332
1.01822
1.07922
1.22372
1.46824
1.85984
2.36521
3.00835
3.553
3.83724
4.02383
4.05521
3.96753
3.8612
3.76983
3.72273
3.70684
3.68436
3.6815
3.69633
3.72069
3.74607
3.75966
3.7657
1.29107
1.75869
2.34974
2.96491
3.62786
4.30229
4.81943
5.31802
5.36814
5.15806
4.7112
4.22109
3.79896
3.66218
3.56981
3.57973
3.61408
3.64792
3.67468
3.70106
3.73485
3.76598
3.77276
3.7746
2.66949
1.67821
1.12439
0.898839
0.71619
0.635687
0.658082
0.732368
0.789212
0.825952
0.896294
0.986678
1.00012
0.988342
0.990474
1.00218
1.00536
1.00655
1.00975
1.00847
1.00266
0.984073
0.951874
0.934205
0.929183
0.924192
0.919849
0.916795
0.929593
1.00516
1.22667
1.61583
2.30873
3.13779
3.85574
4.45102
5.01709
5.3579
5.55443
5.62763
5.46731
5.26102
5.05951
4.8043
4.45364
4.07985
3.79553
3.60589
3.45505
3.34252
3.23262
3.10358
2.97112
2.86038
2.75973
2.65682
2.56212
2.47707
2.39512
2.30945
2.23332
2.17842
2.13952
2.09585
2.03138
1.96965
1.93156
1.90894
1.89141
1.86384
1.81343
1.74521
1.68331
1.63891
1.60859
1.58758
1.56884
1.54519
1.51361
1.46931
1.44519
1.4394
1.43612
1.4344
1.43527
1.44609
1.47038
1.49893
1.5128
1.50564
1.4868
1.46187
1.42327
1.39497
1.37536
1.41232
3.37155
2.77171
2.12263
1.77692
1.53895
1.2409
1.10969
1.06546
0.993691
0.930735
0.923883
0.929467
0.916487
0.90917
0.919554
0.945241
0.960977
0.962345
0.963322
0.966568
0.964601
0.952878
0.936891
0.932831
0.928951
0.92539
0.927885
0.960705
1.16114
1.59162
1.96508
2.27169
2.46552
2.60333
2.78157
2.98658
3.23972
3.48006
3.6573
3.86525
3.95509
4.02138
4.09699
4.08751
4.02742
3.97057
3.87598
3.75532
3.61513
3.47922
3.35035
3.21091
3.06817
2.93975
2.82907
2.72313
2.62048
2.52945
2.44381
2.36888
2.30096
2.23431
2.17867
2.12499
2.06835
2.03081
2.00902
1.98467
1.95839
1.92492
1.87516
1.81313
1.75523
1.71193
1.68262
1.66199
1.64435
1.62068
1.57565
1.51255
1.48825
1.48551
1.48492
1.48774
1.49536
1.50354
1.51335
1.52718
1.53923
1.5423
1.53485
1.52369
1.5054
1.48351
1.48251
1.52794
3.65349
3.34235
2.86262
2.34659
1.99775
1.66986
1.40152
1.2679
1.14175
0.984786
0.947701
0.946886
0.917461
0.901707
0.906713
0.920367
0.926549
0.921226
0.921772
0.92936
0.934713
0.933518
0.925736
0.923639
0.927974
0.957165
1.07418
1.36965
1.93052
2.33132
2.54022
2.61355
2.5822
2.47529
2.39728
2.38173
2.37473
2.39929
2.48228
2.61808
2.82014
3.064
3.37672
3.64178
3.72831
3.72793
3.73085
3.67884
3.5882
3.49302
3.40951
3.30914
3.18237
3.04451
2.9145
2.7774
2.65348
2.55089
2.45208
2.35369
2.25792
2.18056
2.1212
2.07469
2.04603
2.02674
1.99743
1.95426
1.91103
1.87418
1.83322
1.78464
1.73447
1.68982
1.6529
1.6244
1.60338
1.58499
1.55701
1.52237
1.49805
1.48855
1.48684
1.48684
1.48636
1.48809
1.49451
1.50544
1.5204
1.5301
1.52444
1.51236
1.50384
1.50853
1.54831
1.63578
3.74146
3.61946
3.33454
2.88707
2.49462
2.15365
1.78164
1.58868
1.45946
1.24746
1.12328
1.09526
1.03748
0.960204
0.946546
0.94562
0.92698
0.894988
0.884931
0.886443
0.887648
0.891736
0.892821
0.902801
0.98664
1.28324
1.69417
2.16378
2.53951
2.61775
2.62103
2.6074
2.55622
2.46113
2.34203
2.23387
2.15769
2.09844
2.03621
1.97341
1.96857
2.01161
2.12234
2.29699
2.51733
2.73392
2.97112
3.04618
3.05886
3.0906
3.09386
3.05782
2.96169
2.86455
2.78076
2.70974
2.63863
2.587
2.52684
2.44281
2.35653
2.26031
2.17825
2.13325
2.10451
2.07243
2.0256
1.96436
1.89955
1.85427
1.81469
1.77292
1.72973
1.68682
1.64844
1.61727
1.59092
1.56605
1.54936
1.53451
1.51493
1.50225
1.49655
1.49403
1.49443
1.49602
1.49822
1.50693
1.52911
1.56224
1.59013
1.60705
1.62409
1.64065
1.65794
1.6329
3.75515
3.72838
3.5965
3.29758
2.93589
2.59903
2.22003
1.93846
1.74749
1.51829
1.3344
1.26087
1.18492
1.04824
0.98674
0.975209
0.943156
0.899302
0.884461
0.885085
0.883762
0.888319
0.934924
1.09482
1.57954
2.12665
2.4002
2.57676
2.61972
2.60287
2.55893
2.49172
2.41846
2.34259
2.25135
2.11512
2.03243
1.99292
1.94511
1.86629
1.80715
1.78502
1.75874
1.713
1.71086
1.75954
1.88967
2.05068
2.16476
2.27605
2.42503
2.56949
2.64976
2.70827
2.69848
2.645
2.59036
2.55127
2.5087
2.46229
2.411
2.33578
2.25532
2.21226
2.18279
2.14767
2.09996
2.03562
1.9617
1.88973
1.83359
1.78465
1.73909
1.69735
1.66056
1.62547
1.59195
1.56334
1.54792
1.5364
1.51813
1.51166
1.51195
1.51612
1.52599
1.53533
1.5435
1.55813
1.59438
1.64724
1.68808
1.697
1.68663
1.67244
1.66418
1.62161
3.73388
3.72971
3.70166
3.55419
3.29345
2.99022
2.60322
2.29776
2.08677
1.85119
1.61297
1.49036
1.38842
1.25183
1.14136
1.10973
1.05762
0.964808
0.925692
0.931012
0.957192
1.08476
1.3752
1.8599
2.51244
2.62351
2.61455
2.57663
2.52165
2.4431
2.36646
2.28033
2.23654
2.20726
2.13777
1.99704
1.93896
1.91095
1.86931
1.78427
1.71332
1.68959
1.65764
1.5933
1.53429
1.51977
1.51466
1.49646
1.47815
1.48916
1.52059
1.61527
1.74601
1.91065
2.04985
2.14623
2.1626
2.15371
2.17699
2.20482
2.18957
2.14523
2.07489
2.04363
2.03651
2.0204
1.98633
1.9441
1.89519
1.86073
1.84106
1.81935
1.78894
1.75165
1.71305
1.67279
1.63305
1.61386
1.60534
1.59717
1.58842
1.58024
1.57449
1.57737
1.58575
1.59424
1.59659
1.59498
1.59472
1.61034
1.63812
1.63936
1.62052
1.5975
1.55547
1.42007
3.71989
3.72731
3.70895
3.67448
3.53219
3.29906
2.98029
2.64925
2.39429
2.13313
1.91421
1.76296
1.63023
1.44917
1.29222
1.244
1.18865
1.08029
1.01825
1.06067
1.30067
1.82957
2.28123
2.72186
2.83571
2.78772
2.65023
2.52839
2.42156
2.32469
2.22401
2.13207
2.09752
2.06789
2.00728
1.88744
1.82016
1.78934
1.7486
1.68383
1.61418
1.58772
1.55592
1.49411
1.44589
1.42925
1.40552
1.37277
1.34008
1.28937
1.21315
1.2058
1.2187
1.25966
1.33667
1.41466
1.4713
1.51855
1.58953
1.70979
1.7779
1.81664
1.85293
1.86463
1.89644
1.9305
1.92182
1.90503
1.89389
1.87281
1.84775
1.83701
1.82138
1.79414
1.76031
1.72378
1.68948
1.66994
1.65858
1.6514
1.64591
1.63873
1.62682
1.61858
1.61761
1.62732
1.62742
1.61568
1.59584
1.58407
1.56865
1.54016
1.48992
1.40889
1.29551
1.18374
3.7493
3.73758
3.7216
3.69693
3.65449
3.5252
3.27296
2.9741
2.72982
2.43302
2.15939
1.98849
1.86028
1.723
1.50541
1.39681
1.34132
1.36193
1.5218
1.89505
2.55789
2.89388
3.0094
3.02948
2.96794
2.85284
2.70395
2.5259
2.39387
2.28908
2.17778
2.07999
2.03521
1.98798
1.91925
1.81384
1.73956
1.6991
1.65281
1.59524
1.51763
1.47353
1.43292
1.38166
1.35143
1.32846
1.29163
1.26896
1.25114
1.21468
1.13713
1.10033
1.09895
1.10512
1.11259
1.10402
1.08662
1.07458
1.08136
1.11741
1.17127
1.21217
1.27927
1.37281
1.43727
1.51143
1.57555
1.61152
1.66772
1.68773
1.68467
1.68811
1.6918
1.68231
1.65994
1.63146
1.60251
1.58019
1.5674
1.56252
1.55919
1.56327
1.56472
1.56
1.55788
1.55305
1.54016
1.509
1.44891
1.38401
1.33935
1.29511
1.23533
1.17691
1.14789
1.14146
3.7685
3.74276
3.72228
3.71014
3.70081
3.64967
3.49887
3.25025
3.00314
2.72013
2.46316
2.25746
2.03179
1.89048
1.75471
1.68885
1.81992
2.29784
2.93048
3.28041
3.52164
3.46275
3.33926
3.19312
3.03372
2.87829
2.71751
2.55475
2.42528
2.30621
2.18544
2.08007
2.01565
1.94842
1.86332
1.76739
1.71245
1.67013
1.61287
1.54501
1.46419
1.40188
1.35919
1.31241
1.27168
1.23187
1.18369
1.16962
1.16287
1.13621
1.07531
1.02918
1.02292
1.02843
1.02818
1.00971
0.98128
0.959589
0.945636
0.929327
0.912852
0.912767
0.918281
0.938307
0.964606
0.990768
1.04823
1.12295
1.20454
1.30193
1.38424
1.43139
1.47831
1.51335
1.5184
1.50689
1.48703
1.46406
1.44998
1.44403
1.44237
1.44926
1.45163
1.43783
1.40694
1.36397
1.30697
1.24172
1.18294
1.14024
1.12088
1.12043
1.1332
1.13763
1.13826
1.13884
3.7297
3.73207
3.72345
3.70143
3.68394
3.67359
3.60818
3.45586
3.25759
2.97758
2.6943
2.49555
2.31131
2.1435
2.26103
2.64518
3.3506
4.06722
4.30671
4.21595
4.06284
3.85782
3.61794
3.38391
3.18386
2.98969
2.805
2.65225
2.52468
2.39484
2.26347
2.14378
2.04207
1.94318
1.83729
1.74472
1.70542
1.66765
1.60505
1.5234
1.43917
1.37642
1.33268
1.28375
1.23046
1.17638
1.13169
1.1185
1.10628
1.07903
1.02716
0.967754
0.946799
0.948557
0.944478
0.924325
0.892328
0.879488
0.874857
0.859308
0.830554
0.824683
0.825941
0.823512
0.818013
0.811301
0.81512
0.830813
0.856008
0.903276
0.968467
1.02825
1.08299
1.13808
1.17958
1.1888
1.18198
1.16869
1.16126
1.15701
1.15832
1.16493
1.1693
1.15826
1.13277
1.09695
1.07038
1.05886
1.05491
1.05878
1.07595
1.10652
1.13296
1.13798
1.13898
1.14016
3.80439
3.83518
3.80476
3.72887
3.67091
3.65789
3.65244
3.58533
3.437
3.21081
2.95352
2.7628
2.89617
3.34609
4.14788
4.60948
4.98202
4.96348
4.81429
4.53135
4.23533
3.97622
3.72442
3.48401
3.29822
3.14309
2.98577
2.83218
2.6736
2.49464
2.30391
2.13925
2.03309
1.94558
1.85229
1.77825
1.71711
1.65685
1.58387
1.50573
1.42593
1.37164
1.33012
1.27836
1.20789
1.13786
1.10737
1.09622
1.07787
1.04634
0.995741
0.930173
0.897245
0.884156
0.871044
0.845821
0.817225
0.803071
0.791138
0.773453
0.757535
0.753108
0.760401
0.767303
0.764672
0.75717
0.753102
0.755542
0.759481
0.766154
0.781777
0.804587
0.831291
0.860047
0.883672
0.895974
0.901776
0.909376
0.921948
0.940449
0.963098
0.984485
0.99755
1.00188
1.00803
1.01741
1.03052
1.04321
1.04998
1.05744
1.07715
1.11351
1.14565
1.15046
1.15074
1.15038
3.56935
3.78035
3.78138
3.74287
3.68887
3.65733
3.63771
3.63518
3.56276
3.4136
3.53002
4.09374
5.01558
5.87853
6.22219
6.06588
5.89925
5.54781
5.11063
4.7347
4.42728
4.14766
3.88014
3.63794
3.42864
3.23429
3.05139
2.89505
2.75315
2.58711
2.38766
2.19891
2.07004
2.00925
1.95976
1.87425
1.7717
1.67732
1.57955
1.50031
1.46895
1.43274
1.37324
1.28795
1.18145
1.10968
1.09344
1.0846
1.06252
1.02355
0.96829
0.904286
0.874752
0.85699
0.839012
0.810206
0.783253
0.767611
0.748934
0.730688
0.713405
0.703787
0.706886
0.71346
0.710077
0.710017
0.712609
0.714973
0.717004
0.72195
0.731102
0.743927
0.762276
0.785267
0.800784
0.811197
0.824475
0.84413
0.868255
0.896204
0.925501
0.951879
0.976244
0.999094
1.01409
1.02522
1.03569
1.04237
1.04787
1.05924
1.08061
1.11663
1.15456
1.16651
1.16746
1.16825
2.52367
3.32701
3.72444
3.80834
3.79496
3.70702
3.63816
3.64049
3.78924
4.51815
5.91791
6.88085
7.18108
7.0703
6.81464
6.48227
6.09663
5.74098
5.38011
5.04645
4.73199
4.40934
4.08403
3.77686
3.51104
3.28659
3.09325
2.92165
2.75915
2.59931
2.44074
2.29651
2.17506
2.06158
1.94731
1.83183
1.72366
1.643
1.58364
1.53376
1.47622
1.40504
1.32134
1.22633
1.14528
1.10923
1.08681
1.06224
1.03079
0.990123
0.939354
0.891005
0.860704
0.83716
0.813236
0.782353
0.760005
0.744808
0.725651
0.704146
0.678615
0.665584
0.665786
0.664304
0.660407
0.661073
0.669369
0.67883
0.677843
0.678675
0.690288
0.706256
0.725586
0.753887
0.781492
0.80152
0.820502
0.843995
0.878237
0.918434
0.955713
0.982265
1.00035
1.0111
1.02007
1.03094
1.03816
1.04084
1.04595
1.05501
1.07089
1.09673
1.13627
1.16989
1.17869
1.18164
1.38278
2.2576
3.15599
3.6827
3.70797
3.73672
3.86648
4.46936
5.88306
7.56014
8.60426
8.54895
8.29836
7.71981
7.07759
6.59549
6.21189
5.90056
5.60803
5.27837
4.91929
4.55698
4.21749
3.89701
3.60768
3.37056
3.17133
2.99502
2.82588
2.65438
2.48763
2.34635
2.22147
2.09238
1.96256
1.84476
1.75482
1.68581
1.61898
1.54977
1.47837
1.40344
1.31961
1.23056
1.16392
1.12274
1.08938
1.05996
1.02789
0.985626
0.933226
0.887207
0.856033
0.829571
0.802092
0.770536
0.750871
0.735039
0.714375
0.690302
0.663396
0.654973
0.650737
0.643294
0.629454
0.623229
0.623533
0.625459
0.626593
0.627715
0.636663
0.654816
0.678734
0.713255
0.757448
0.795035
0.828111
0.868759
0.914335
0.951428
0.97625
0.991933
1.00457
1.01586
1.027
1.03682
1.03969
1.03928
1.04225
1.04973
1.06064
1.07651
1.104
1.15051
1.18758
1.19172
1.02539
1.24469
1.99974
3.03008
3.46313
4.28471
5.69215
7.34343
8.64455
8.98425
8.92676
8.70341
8.38088
8.00796
7.50545
6.96966
6.50213
6.08588
5.69924
5.3287
4.97926
4.63549
4.30325
4.04141
3.84033
3.62578
3.41601
3.21808
3.02309
2.8323
2.65931
2.50675
2.36192
2.22062
2.09158
1.9829
1.88962
1.79633
1.70129
1.6142
1.53833
1.46406
1.38389
1.30237
1.22847
1.16997
1.129
1.09686
1.0607
1.01334
0.960137
0.916791
0.88363
0.850803
0.816015
0.784355
0.763067
0.74362
0.719054
0.690812
0.669228
0.66109
0.651243
0.632643
0.614376
0.606986
0.603814
0.603175
0.604949
0.604439
0.606112
0.615156
0.635344
0.66943
0.720834
0.784106
0.848737
0.915677
0.957881
0.974549
0.982389
0.990001
1.00204
1.01586
1.0301
1.04027
1.03981
1.0362
1.03863
1.04488
1.05304
1.06441
1.08545
1.1243
1.1769
1.19748
1.00046
1.01324
1.18077
1.94831
3.7878
6.03937
8.19191
9.59072
9.98211
9.75371
9.17495
8.63874
8.28735
8.00891
7.69108
7.24441
6.71646
6.18649
5.69059
5.25923
4.87682
4.53847
4.26285
4.02424
3.77469
3.53618
3.31755
3.11305
2.91457
2.72588
2.55826
2.41128
2.27364
2.13943
2.01537
1.90915
1.81498
1.72202
1.6292
1.54474
1.46963
1.39685
1.32454
1.2532
1.18354
1.12473
1.08369
1.05163
1.01633
0.970378
0.919276
0.880774
0.852981
0.821247
0.783025
0.75144
0.733182
0.717469
0.693889
0.663228
0.645865
0.639969
0.631945
0.616628
0.602169
0.597287
0.59475
0.594772
0.59601
0.595392
0.595543
0.599279
0.610903
0.635732
0.680091
0.758014
0.86318
0.947339
0.980306
0.990306
0.991769
0.993319
1.00235
1.01846
1.03488
1.04263
1.03811
1.03402
1.03584
1.04017
1.04573
1.05459
1.07458
1.11244
1.16455
1.20638
1.00046
1.01324
1.18077
1.94831
3.7878
6.03937
8.19191
9.59072
9.98211
9.75371
9.17495
8.63874
8.28735
8.00891
7.69108
7.24441
6.71646
6.18649
5.69059
5.25923
4.87682
4.53847
4.26285
4.02424
3.77469
3.53618
3.31755
3.11304
2.91457
2.72588
2.55826
2.41128
2.27364
2.13943
2.01537
1.90915
1.81498
1.72202
1.6292
1.54474
1.46963
1.39685
1.32454
1.2532
1.18354
1.12473
1.08369
1.05163
1.01633
0.970378
0.919276
0.880774
0.852981
0.821247
0.783025
0.75144
0.733182
0.717469
0.69389
0.663227
0.645866
0.639969
0.631945
0.61663
0.602164
0.597288
0.594755
0.594768
0.596011
0.59539
0.59552
0.599285
0.610833
0.637611
0.691216
0.775011
0.86764
0.945528
0.979337
0.990013
0.991078
0.990117
0.99868
1.01566
1.0343
1.04264
1.03811
1.03404
1.03591
1.0402
1.04562
1.05441
1.07448
1.1126
1.16529
1.20125
1.02539
1.24469
1.99974
3.03008
3.46313
4.28471
5.69215
7.34343
8.64455
8.98425
8.92676
8.70341
8.38088
8.00796
7.50545
6.96966
6.50213
6.08588
5.69924
5.3287
4.97926
4.63549
4.30325
4.04141
3.84033
3.62578
3.41601
3.21808
3.02309
2.8323
2.65931
2.50675
2.36192
2.22062
2.09158
1.9829
1.88962
1.79633
1.70129
1.6142
1.53833
1.46406
1.38389
1.30237
1.22847
1.16997
1.129
1.09686
1.0607
1.01334
0.960137
0.916791
0.88363
0.850803
0.816015
0.784355
0.763067
0.74362
0.719054
0.690812
0.669228
0.661089
0.651245
0.632656
0.614355
0.606983
0.603834
0.603167
0.604951
0.604434
0.606028
0.615278
0.635544
0.669236
0.722525
0.786079
0.85287
0.918485
0.95885
0.975022
0.982684
0.990254
1.00195
1.01591
1.03003
1.04018
1.03962
1.03617
1.03887
1.04503
1.05277
1.06381
1.08498
1.12499
1.17966
1.19748
1.38278
2.2576
3.15599
3.6827
3.70797
3.73672
3.86648
4.46936
5.88306
7.56014
8.60426
8.54895
8.29836
7.71981
7.07759
6.59549
6.21189
5.90056
5.60803
5.27837
4.91929
4.55698
4.21749
3.89701
3.60768
3.37056
3.17133
2.99502
2.82588
2.65438
2.48763
2.34635
2.22147
2.09238
1.96256
1.84476
1.75482
1.68581
1.61898
1.54977
1.47837
1.40344
1.31961
1.23056
1.16392
1.12274
1.08938
1.05996
1.02789
0.985626
0.933226
0.887207
0.856033
0.829571
0.802092
0.770536
0.750871
0.735039
0.714375
0.690301
0.663396
0.654976
0.650731
0.643297
0.629461
0.623213
0.623533
0.625461
0.626601
0.627727
0.636707
0.654902
0.6783
0.713392
0.757927
0.795121
0.829064
0.870685
0.915881
0.952289
0.976546
0.991989
1.00464
1.01589
1.02713
1.03686
1.03955
1.03929
1.0424
1.04968
1.06041
1.07629
1.10401
1.15026
1.18604
1.1911
2.52367
3.32701
3.72444
3.80834
3.79496
3.70702
3.63816
3.64049
3.78924
4.51815
5.91791
6.88085
7.18108
7.0703
6.81464
6.48227
6.09663
5.74098
5.38011
5.04645
4.73199
4.40934
4.08403
3.77686
3.51104
3.28659
3.09325
2.92165
2.75915
2.59931
2.44074
2.29651
2.17506
2.06158
1.94731
1.83183
1.72366
1.643
1.58364
1.53376
1.47622
1.40504
1.32134
1.22633
1.14528
1.10923
1.08681
1.06224
1.03079
0.990123
0.939354
0.891005
0.860704
0.83716
0.813236
0.782353
0.760005
0.744808
0.725652
0.704145
0.678614
0.665586
0.665782
0.664305
0.660409
0.661075
0.669355
0.67884
0.677881
0.678649
0.690341
0.706277
0.725413
0.753927
0.781629
0.801376
0.820408
0.844148
0.878634
0.918684
0.955869
0.982441
1.00052
1.01121
1.02009
1.03092
1.03808
1.0408
1.04578
1.05473
1.07067
1.09687
1.13697
1.16991
1.17809
1.18098
3.56935
3.78035
3.78138
3.74287
3.68887
3.65733
3.63771
3.63518
3.56276
3.4136
3.53002
4.09374
5.01558
5.87853
6.22219
6.06588
5.89925
5.54781
5.11063
4.7347
4.42728
4.14766
3.88014
3.63794
3.42864
3.23429
3.05139
2.89505
2.75315
2.58711
2.38766
2.19891
2.07004
2.00925
1.95976
1.87425
1.7717
1.67732
1.57955
1.50031
1.46895
1.43274
1.37324
1.28795
1.18145
1.10968
1.09344
1.0846
1.06252
1.02355
0.96829
0.904286
0.874752
0.85699
0.839012
0.810206
0.783253
0.767611
0.748934
0.730688
0.713405
0.703788
0.706886
0.713461
0.710078
0.71002
0.712581
0.715027
0.717024
0.721899
0.731144
0.743941
0.762196
0.785267
0.800797
0.811138
0.824436
0.844118
0.868216
0.89611
0.925447
0.951969
0.976329
0.999086
1.01398
1.02519
1.03586
1.04248
1.04777
1.05894
1.0803
1.11693
1.15508
1.16638
1.16729
1.16818
3.80439
3.83518
3.80476
3.72887
3.67091
3.65789
3.65244
3.58533
3.437
3.21081
2.95352
2.7628
2.89617
3.34609
4.14788
4.60948
4.98202
4.96348
4.81429
4.53135
4.23533
3.97622
3.72442
3.48401
3.29822
3.14309
2.98577
2.83219
2.6736
2.49464
2.30391
2.13925
2.03309
1.94558
1.85229
1.77825
1.71711
1.65685
1.58387
1.50573
1.42593
1.37164
1.33012
1.27836
1.20789
1.13786
1.10737
1.09622
1.07787
1.04634
0.995741
0.930173
0.897245
0.884156
0.871044
0.845821
0.817225
0.803071
0.791138
0.773453
0.757535
0.753108
0.760401
0.767304
0.764676
0.757163
0.753098
0.755567
0.759477
0.766144
0.781795
0.804583
0.831265
0.860049
0.883672
0.895963
0.901739
0.909317
0.921941
0.940386
0.963007
0.984537
0.997635
1.00188
1.008
1.01742
1.03069
1.04348
1.04986
1.05703
1.07678
1.11376
1.14621
1.15078
1.15102
1.15064
3.7297
3.73207
3.72345
3.70143
3.68394
3.67359
3.60818
3.45586
3.25759
2.97758
2.6943
2.49555
2.31131
2.1435
2.26103
2.64518
3.3506
4.06722
4.30671
4.21595
4.06284
3.85782
3.61794
3.38391
3.18386
2.98969
2.805
2.65225
2.52468
2.39484
2.26347
2.14378
2.04207
1.94318
1.83729
1.74472
1.70542
1.66765
1.60505
1.5234
1.43917
1.37642
1.33268
1.28375
1.23046
1.17638
1.13169
1.1185
1.10628
1.07903
1.02716
0.967754
0.946799
0.948557
0.944478
0.924325
0.892328
0.879488
0.874857
0.859308
0.830554
0.824683
0.825941
0.823512
0.818013
0.811299
0.81512
0.830817
0.856006
0.903275
0.968473
1.02825
1.08302
1.13804
1.17955
1.18881
1.18199
1.16872
1.16129
1.15697
1.15825
1.16491
1.16934
1.1582
1.13278
1.09709
1.07042
1.05891
1.05483
1.05848
1.07558
1.10639
1.13308
1.13792
1.13885
1.14019
3.7685
3.74276
3.72228
3.71014
3.70081
3.64967
3.49887
3.25025
3.00314
2.72013
2.46316
2.25746
2.03179
1.89048
1.75471
1.68885
1.81992
2.29784
2.93048
3.28041
3.52164
3.46275
3.33926
3.19312
3.03372
2.87829
2.71751
2.55475
2.42528
2.30621
2.18544
2.08007
2.01565
1.94842
1.86332
1.76739
1.71245
1.67013
1.61287
1.54501
1.46419
1.40188
1.35919
1.31241
1.27168
1.23187
1.18369
1.16962
1.16287
1.13621
1.07531
1.02918
1.02292
1.02843
1.02818
1.00971
0.98128
0.959589
0.945636
0.929327
0.912852
0.912767
0.918281
0.938307
0.964606
0.990767
1.04823
1.12295
1.20454
1.30193
1.38424
1.43139
1.47832
1.51334
1.5184
1.50689
1.48703
1.46407
1.45002
1.44405
1.44233
1.44923
1.45167
1.4378
1.40692
1.36414
1.30694
1.24152
1.18304
1.14068
1.12115
1.12079
1.13347
1.13754
1.13805
1.13877
3.7493
3.73758
3.7216
3.69693
3.65449
3.5252
3.27296
2.9741
2.72982
2.43302
2.15939
1.98849
1.86028
1.723
1.5054
1.39681
1.34132
1.36193
1.5218
1.89505
2.55789
2.89388
3.0094
3.02948
2.96794
2.85284
2.70395
2.5259
2.39387
2.28908
2.17778
2.07999
2.03521
1.98798
1.91925
1.81384
1.73956
1.6991
1.65281
1.59524
1.51763
1.47353
1.43292
1.38166
1.35143
1.32846
1.29163
1.26896
1.25114
1.21468
1.13713
1.10033
1.09895
1.10512
1.11259
1.10402
1.08662
1.07458
1.08136
1.11741
1.17127
1.21217
1.27927
1.37281
1.43727
1.51143
1.57555
1.61152
1.66773
1.68773
1.68467
1.68811
1.6918
1.68231
1.65994
1.63146
1.60251
1.58018
1.56741
1.56254
1.55919
1.56325
1.56477
1.55996
1.55787
1.55316
1.5402
1.50876
1.44917
1.3844
1.33916
1.29478
1.2354
1.17713
1.14778
1.14119
3.71989
3.72731
3.70895
3.67448
3.53219
3.29906
2.98029
2.64925
2.39429
2.13313
1.91421
1.76296
1.63023
1.44916
1.29222
1.244
1.18865
1.08029
1.01825
1.06067
1.30067
1.82957
2.28123
2.72186
2.83571
2.78772
2.65023
2.52839
2.42156
2.32469
2.22401
2.13207
2.09752
2.06789
2.00728
1.88744
1.82016
1.78934
1.7486
1.68383
1.61418
1.58772
1.55592
1.49411
1.44589
1.42925
1.40552
1.37277
1.34008
1.28937
1.21315
1.2058
1.2187
1.25966
1.33667
1.41466
1.4713
1.51855
1.58953
1.70979
1.7779
1.81664
1.85292
1.86463
1.89644
1.9305
1.92182
1.90503
1.89389
1.87281
1.84775
1.837
1.82138
1.79414
1.76031
1.72377
1.68948
1.66993
1.65858
1.65141
1.64591
1.63872
1.62683
1.61858
1.61759
1.62736
1.62742
1.61563
1.59596
1.58429
1.56854
1.54002
1.48989
1.40903
1.29562
1.18341
3.73388
3.72971
3.70166
3.55419
3.29345
2.99022
2.60322
2.29776
2.08677
1.85119
1.61297
1.49036
1.38842
1.25183
1.14136
1.10973
1.05762
0.964808
0.925692
0.931012
0.957192
1.08476
1.3752
1.8599
2.51244
2.62351
2.61455
2.57663
2.52165
2.4431
2.36646
2.28033
2.23654
2.20726
2.13777
1.99704
1.93896
1.91095
1.86931
1.78427
1.71332
1.68959
1.65764
1.5933
1.53429
1.51977
1.51466
1.49646
1.47815
1.48916
1.52059
1.61527
1.74601
1.91065
2.04985
2.14623
2.1626
2.15371
2.17699
2.20482
2.18957
2.14523
2.07489
2.04363
2.03651
2.0204
1.98633
1.9441
1.89519
1.86073
1.84106
1.81935
1.78894
1.75165
1.71306
1.67279
1.63305
1.61386
1.60534
1.59717
1.58842
1.58024
1.57449
1.57737
1.58573
1.59425
1.59661
1.59501
1.59479
1.61039
1.63808
1.63937
1.62054
1.59742
1.5552
1.41962
3.75515
3.72838
3.5965
3.29758
2.93589
2.59903
2.22003
1.93846
1.74749
1.51829
1.3344
1.26087
1.18492
1.04824
0.98674
0.975209
0.943156
0.899302
0.884461
0.885085
0.883762
0.888319
0.934924
1.09482
1.57954
2.12665
2.4002
2.57676
2.61972
2.60287
2.55893
2.49172
2.41846
2.34259
2.25135
2.11512
2.03243
1.99292
1.94511
1.86629
1.80715
1.78502
1.75874
1.713
1.71086
1.75954
1.88967
2.05068
2.16476
2.27605
2.42503
2.56949
2.64976
2.70827
2.69848
2.645
2.59036
2.55127
2.5087
2.46229
2.411
2.33578
2.25532
2.21226
2.18279
2.14767
2.09996
2.03562
1.9617
1.88973
1.8336
1.78465
1.73909
1.69735
1.66056
1.62547
1.59195
1.56334
1.54792
1.5364
1.51813
1.51166
1.51195
1.51612
1.52598
1.53532
1.5435
1.55812
1.59435
1.64724
1.68812
1.69703
1.68661
1.67235
1.66404
1.62136
3.74146
3.61946
3.33454
2.88707
2.49462
2.15365
1.78164
1.58868
1.45946
1.24746
1.12328
1.09526
1.03748
0.960204
0.946546
0.94562
0.92698
0.894988
0.884931
0.886443
0.887648
0.891736
0.892821
0.902801
0.98664
1.28324
1.69417
2.16378
2.53951
2.61775
2.62103
2.6074
2.55622
2.46113
2.34203
2.23387
2.15769
2.09844
2.03621
1.97341
1.96857
2.01161
2.12234
2.29699
2.51733
2.73392
2.97112
3.04618
3.05886
3.0906
3.09386
3.05782
2.96169
2.86455
2.78076
2.70974
2.63863
2.587
2.52684
2.44281
2.35653
2.26031
2.17825
2.13325
2.10451
2.07243
2.0256
1.96436
1.89955
1.85427
1.81469
1.77292
1.72973
1.68682
1.64844
1.61726
1.59092
1.56605
1.54936
1.53451
1.51494
1.50225
1.49655
1.49402
1.49443
1.49602
1.49821
1.50692
1.5291
1.56225
1.59018
1.6071
1.62408
1.64062
1.65788
1.63281
3.65349
3.34235
2.86262
2.34659
1.99775
1.66986
1.40152
1.2679
1.14175
0.984786
0.947701
0.946886
0.917461
0.901707
0.906713
0.920367
0.926549
0.921226
0.921772
0.92936
0.934713
0.933518
0.925736
0.923639
0.927974
0.957165
1.07418
1.36965
1.93052
2.33132
2.54022
2.61355
2.5822
2.47529
2.39728
2.38173
2.37473
2.39929
2.48228
2.61808
2.82014
3.064
3.37672
3.64178
3.72831
3.72793
3.73085
3.67884
3.5882
3.49302
3.40951
3.30914
3.18237
3.04451
2.9145
2.7774
2.65348
2.55089
2.45208
2.35369
2.25792
2.18056
2.1212
2.07469
2.04603
2.02674
1.99743
1.95426
1.91103
1.87418
1.83322
1.78464
1.73447
1.68982
1.6529
1.62439
1.60338
1.58499
1.55701
1.52237
1.49805
1.48855
1.48684
1.48684
1.48635
1.48809
1.49451
1.50544
1.52039
1.53011
1.52446
1.51236
1.50383
1.50853
1.54832
1.63581
3.37155
2.77171
2.12263
1.77692
1.53895
1.2409
1.10969
1.06546
0.993691
0.930735
0.923883
0.929467
0.916487
0.90917
0.919554
0.945241
0.960977
0.962345
0.963322
0.966568
0.964601
0.952878
0.936891
0.932831
0.928951
0.92539
0.927885
0.960705
1.16114
1.59162
1.96508
2.27169
2.46552
2.60333
2.78157
2.98658
3.23972
3.48006
3.6573
3.86525
3.95509
4.02138
4.09699
4.08751