/*--------------------------------*- C++ -*----------------------------------*\
  =========                 |
  \\      /  F ield         | OpenFOAM: The Open Source CFD Toolbox
   \\    /   O peration     | Website:  https://openfoam.org
    \\  /    A nd           | Version:  7
     \\/     M anipulation  |
\*---------------------------------------------------------------------------*/
FoamFile
{
    version     2.0;
    format      ascii;
    class       volScalarField;
    location    "0.6";
    object      rho;
}
// * * * * * * * * * * * * * * * * * * * * * * * * * * * * * * * * * * * * * //

dimensions      [1 -3 0 0 0 0 0];

internalField   nonuniform List<scalar> 
4608
(
1.40001
1.40001
1.40001
1.40001
1.40001
1.40001
1.40001
1.40001
1.40001
1.40001
1.40001
1.40001
1.40001
1.40001
1.40001
1.40001
1.40001
1.40001
1.40001
1.40001
1.40001
1.40001
1.40001
1.40001
1.40001
1.40001
1.40001
1.40001
1.40001
1.40001
1.40001
1.40001
1.40001
1.40001
1.40001
1.40001
1.40001
1.40001
1.40001
1.40001
1.40001
1.40001
1.40001
1.40001
1.40001
1.40001
1.40001
1.40001
1.40001
1.40001
1.40001
1.40001
1.40001
1.40001
1.40001
1.40001
1.40001
1.40001
1.40001
1.40001
1.40001
1.40001
1.40001
1.40001
1.40001
1.40001
1.40001
1.40001
1.40001
1.40001
1.40001
1.40001
1.40001
1.40001
1.40001
1.40001
1.40001
1.40001
1.40001
1.40001
1.40001
1.40001
1.40001
1.40001
1.40001
1.40001
1.40001
1.40001
1.40001
1.40001
1.40001
1.40001
1.40001
1.40001
1.40001
1.40001
1.40001
1.40001
1.40001
1.40001
1.40001
1.40001
1.40001
1.40001
1.40001
1.40001
1.40001
1.40001
1.40001
1.40001
1.40001
1.40001
1.40001
1.40001
1.40001
1.40001
1.40001
1.40001
1.40001
1.40001
1.40001
1.40001
1.40001
1.40001
1.40001
1.40001
1.40001
1.40001
1.40001
1.40001
1.40001
1.40001
1.40001
1.40001
1.40001
1.40001
1.40001
1.40001
1.40001
1.40001
1.40001
1.40001
1.40001
1.40001
1.40001
1.40001
1.40001
1.40001
1.40001
1.40001
1.40001
1.40001
1.40001
1.40001
1.40001
1.40001
1.40001
1.40001
1.40001
1.40001
1.40001
1.40001
1.40001
1.40001
1.40001
1.40001
1.40001
1.40001
1.40001
1.40001
1.40001
1.40001
1.40001
1.40001
1.40001
1.40001
1.40001
1.40001
1.40001
1.40001
1.40001
1.40001
1.40001
1.40001
1.40001
1.40001
1.40001
1.40001
1.40001
1.40001
1.40001
1.40001
1.40001
1.40001
1.40001
1.40001
1.40001
1.40001
1.40001
1.40001
1.40001
1.40001
1.40001
1.40001
1.40001
1.40001
1.40001
1.40001
1.40001
1.40001
1.40001
1.40001
1.40001
1.40001
1.40001
1.40001
1.40001
1.40001
1.40001
1.40001
1.40001
1.40001
1.40001
1.40001
1.40001
1.40001
1.40001
1.40001
1.40001
1.40001
1.40001
1.40001
1.40001
1.40001
1.40001
1.40001
1.40001
1.40001
1.40001
1.40001
1.40001
1.40001
1.40001
1.40001
1.40001
1.40001
1.40001
1.40001
1.40001
1.40001
1.40001
1.40001
1.40001
1.40001
1.40001
1.40001
1.40001
1.40001
1.40001
1.40001
1.40001
1.40001
1.40001
1.40001
1.40001
1.40001
1.40001
1.40001
1.40001
1.40001
1.40001
1.40001
1.40001
1.40001
1.40001
1.40001
1.40001
1.40001
1.40001
1.40001
1.40001
1.40001
1.40001
1.40001
1.40001
1.40001
1.40001
1.40001
1.40001
1.40001
1.40001
1.40001
1.40001
1.40001
1.40001
1.40001
1.40001
1.40001
1.40001
1.40001
1.40001
1.40001
1.40001
1.40001
1.40001
1.40001
1.40001
1.40001
1.40001
1.40001
1.40001
1.40001
1.40001
1.40001
1.40001
1.40001
1.40001
1.40001
1.40001
1.40001
1.40001
1.40001
1.40001
1.40001
1.40001
1.40001
1.40001
1.40001
1.40001
1.40001
1.40001
1.40001
1.40001
1.40001
1.40001
1.40001
1.40001
1.40001
1.40001
1.40001
1.40001
1.40001
1.40001
1.40001
1.40001
1.40001
1.40001
1.40001
1.40001
1.40001
1.40001
1.40001
1.40001
1.40001
1.40001
1.40001
1.40001
1.40001
1.40001
1.40001
1.40001
1.40001
1.40001
1.40001
1.40001
1.40001
1.40001
1.40001
1.40001
1.40001
1.40001
1.40001
1.40001
1.40001
1.40001
1.40001
1.40001
1.40001
1.40001
1.40001
1.40001
1.40001
1.40001
1.40001
1.40001
1.40001
1.40001
1.40001
1.40001
1.40001
1.40001
1.40001
1.40001
1.40001
1.40001
1.40001
1.40001
1.40001
1.40001
1.40001
1.40001
1.40001
1.40001
1.40001
1.40001
1.40001
1.40001
1.40001
1.40001
1.40001
1.40001
1.40001
1.40001
1.40001
1.40001
1.40001
1.40001
1.40001
1.40001
1.40001
1.40001
1.40001
1.40001
1.40001
1.40001
1.40001
1.40001
1.40001
1.40001
1.40001
1.40001
1.40001
1.40001
1.40001
1.40001
1.40001
1.40001
1.40001
1.40001
1.40001
1.40001
1.40001
1.40001
1.40001
1.40001
1.40001
1.40001
1.40001
1.40001
1.40001
1.40001
1.40001
1.40001
1.40001
1.40001
1.40001
1.40001
1.40001
1.40001
1.40001
1.40001
1.40001
1.40001
1.40001
1.40001
1.40001
1.40001
1.40001
1.40001
1.40001
1.40001
1.40001
1.40001
1.40001
1.40001
1.40001
1.40001
1.40001
1.40001
1.40001
1.40001
1.40001
1.40001
1.40001
1.40001
1.40001
1.40001
1.40001
1.40001
1.40001
1.40001
1.40001
1.40001
1.40001
1.40001
1.40001
1.40001
1.40001
1.40001
1.40001
1.40001
1.40001
1.40001
1.40001
1.40001
1.40001
1.40001
1.40001
1.40001
1.40001
1.40001
1.40001
1.40001
1.40001
1.40001
1.40001
1.40001
1.40001
1.40001
1.40001
1.40001
1.40001
1.40001
1.40001
1.40001
1.40001
1.40001
1.40001
1.40001
1.40001
1.40001
1.40001
1.40001
1.40001
1.40001
1.40001
1.40001
1.40001
1.40001
1.40001
1.40001
1.40001
1.40001
1.40001
1.40001
1.40001
1.40001
1.40001
1.40001
1.40001
1.40001
1.40001
1.40001
1.40001
1.40001
1.40001
1.40001
1.40001
1.40001
1.40001
1.40001
1.40001
1.40001
1.40001
1.40001
1.40001
1.40001
1.40001
1.40001
1.40001
1.40001
1.40001
1.40001
1.40001
1.40001
1.40001
1.40001
1.40001
1.40001
1.40001
1.40001
1.40001
1.40001
1.40001
1.40001
1.40001
1.40001
1.40001
1.40001
1.40001
1.40001
1.40001
1.40001
1.40001
1.40001
1.40001
1.40001
1.40001
1.40001
1.40001
1.40001
1.40001
1.40001
1.40001
1.40001
1.40001
1.40001
1.40001
1.40001
1.40001
1.40001
1.40001
1.40001
1.40001
1.40001
1.40001
1.40001
1.40001
1.40001
1.40001
1.40001
1.40001
1.40001
1.40001
1.40001
1.40001
1.40001
1.40001
1.40001
1.40001
1.40001
1.40001
1.40001
1.40001
1.40001
1.40001
1.40001
1.40001
1.40001
1.40001
1.40001
1.40001
1.40001
1.40001
1.40001
1.40001
1.40001
1.40001
1.40001
1.40001
1.40001
1.40001
1.40001
1.40001
1.40001
1.40001
1.40001
1.40001
1.40001
1.40001
1.40001
1.40001
1.40001
1.40001
1.40001
1.40001
1.40001
1.40001
1.40001
1.40001
1.40001
1.40001
1.40001
1.40001
1.40001
1.40001
1.40001
1.40001
1.40001
1.40001
1.40001
1.40001
1.40001
1.40001
1.40001
1.40001
1.40001
1.40001
1.40001
1.40001
1.40001
1.40001
1.40001
1.40001
1.40001
1.40001
1.40001
1.40001
1.40001
1.40001
1.40001
1.40001
1.40001
1.40001
1.40001
1.40001
1.40001
1.40001
1.40001
1.40001
1.40001
1.40001
1.40001
1.40001
1.40001
1.40001
1.40001
1.40001
1.40001
1.40001
1.40001
1.40001
1.40001
1.40001
1.40001
1.40001
1.40001
1.40001
1.40001
1.40001
1.40001
1.40001
1.40001
1.40001
1.40001
1.40001
1.40001
1.40001
1.40001
1.40001
1.40001
1.40001
1.40001
1.40001
1.40001
1.40001
1.40001
1.40001
1.40001
1.40001
1.40001
1.40001
1.40001
1.40001
1.40001
1.40001
1.40001
1.40001
1.40001
1.40001
1.40001
1.40001
1.40001
1.40001
1.40001
1.40001
1.40001
1.40001
1.67648
2.08414
2.54832
2.98616
3.41995
3.83119
4.12458
4.4227
4.42288
4.29263
4.0294
3.72634
3.45549
3.36437
3.30026
3.30601
3.32868
3.35128
3.36899
3.38682
3.40892
3.42657
3.42917
3.4301
1.40318
1.41686
1.47084
1.59415
1.79726
2.11283
2.50641
2.98758
3.36096
3.53542
3.64637
3.6274
3.5602
3.48304
3.42012
3.3892
3.38052
3.36752
3.36613
3.37617
3.39208
3.40692
3.41493
3.41866
1.40001
1.39997
1.40003
1.40034
1.40324
1.4223
1.4959
1.7101
2.18794
2.89754
3.42622
3.7203
3.77629
3.71613
3.60328
3.44782
3.38264
3.35368
3.34257
3.35113
3.36189
3.37284
3.38615
3.39877
1.40001
1.4
1.4
1.4
1.39999
1.40004
1.39995
1.40153
1.43093
1.63035
2.18878
2.89917
3.51869
3.57106
3.5307
3.49131
3.4374
3.38857
3.359
3.33795
3.33448
3.3395
3.35085
3.37188
1.40001
1.40001
1.4
1.4
1.4
1.4
1.4
1.4
1.39992
1.40094
1.44019
1.66953
2.33331
2.99663
3.42673
3.53689
3.51417
3.4569
3.40581
3.35677
3.31124
3.30587
3.3131
3.32894
1.40001
1.40001
1.40001
1.40001
1.40001
1.4
1.4
1.4
1.4
1.4
1.39993
1.40253
1.46289
1.82187
2.52403
3.13619
3.36277
3.39445
3.37246
3.32499
3.28478
3.28653
3.29098
3.29566
1.40001
1.40001
1.40001
1.40001
1.40001
1.40001
1.40001
1.40001
1.40001
1.4
1.4
1.39999
1.40002
1.41093
1.52478
2.02834
2.76278
3.32618
3.37332
3.35586
3.32608
3.31472
3.30025
3.29027
1.40001
1.40001
1.40001
1.40001
1.40001
1.40001
1.40001
1.40001
1.40001
1.40001
1.40001
1.4
1.4
1.39998
1.40069
1.43837
1.68128
2.37553
3.01197
3.35553
3.37929
3.36258
3.3389
3.32131
1.40001
1.40001
1.40001
1.40001
1.40001
1.40001
1.40001
1.40001
1.40001
1.40001
1.40001
1.40001
1.4
1.4
1.4
1.40005
1.40591
1.52681
1.99585
2.80952
3.1352
3.28408
3.3566
3.351
1.40001
1.40001
1.40001
1.40001
1.40001
1.40001
1.40001
1.40001
1.40001
1.40001
1.40001
1.40001
1.40001
1.4
1.4
1.4
1.39999
1.40178
1.43985
1.75215
2.42961
3.10933
3.33659
3.32243
1.40001
1.40001
1.40001
1.40001
1.40001
1.40001
1.40001
1.40001
1.40001
1.40001
1.40001
1.40001
1.40001
1.40001
1.40001
1.4
1.4
1.4
1.40018
1.41416
1.58832
2.19787
2.89736
3.20894
1.40001
1.40001
1.40001
1.40001
1.40001
1.40001
1.40001
1.40001
1.40001
1.40001
1.40001
1.40001
1.40001
1.40001
1.40001
1.40001
1.4
1.4
1.4
1.40002
1.40539
1.49271
2.00349
2.70906
1.40001
1.40001
1.40001
1.40001
1.40001
1.40001
1.40001
1.40001
1.40001
1.40001
1.40001
1.40001
1.40001
1.40001
1.40001
1.40001
1.40001
1.4
1.4
1.4
1.4
1.40172
1.46446
1.82374
1.40001
1.40001
1.40001
1.40001
1.40001
1.40001
1.40001
1.40001
1.40001
1.40001
1.40001
1.40001
1.40001
1.40001
1.40001
1.40001
1.40001
1.40001
1.40001
1.4
1.4
1.4
1.40124
1.42633
1.40001
1.40001
1.40001
1.40001
1.40001
1.40001
1.40001
1.40001
1.40001
1.40001
1.40001
1.40001
1.40001
1.40001
1.40001
1.40001
1.40001
1.40001
1.40001
1.40001
1.4
1.4
1.40001
1.40005
1.40001
1.40001
1.40001
1.40001
1.40001
1.40001
1.40001
1.40001
1.40001
1.40001
1.40001
1.40001
1.40001
1.40001
1.40001
1.40001
1.40001
1.40001
1.40001
1.40001
1.40001
1.4
1.4
1.4
1.40001
1.40001
1.40001
1.40001
1.40001
1.40001
1.40001
1.40001
1.40001
1.40001
1.40001
1.40001
1.40001
1.40001
1.40001
1.40001
1.40001
1.40001
1.40001
1.40001
1.40001
1.4
1.4
1.4
1.40001
1.40001
1.40001
1.40001
1.40001
1.40001
1.40001
1.40001
1.40001
1.40001
1.40001
1.40001
1.40001
1.40001
1.40001
1.40001
1.40001
1.40001
1.40001
1.40001
1.4
1.4
1.40001
1.40005
1.40001
1.40001
1.40001
1.40001
1.40001
1.40001
1.40001
1.40001
1.40001
1.40001
1.40001
1.40001
1.40001
1.40001
1.40001
1.40001
1.40001
1.40001
1.40001
1.4
1.4
1.4
1.40124
1.42633
1.40001
1.40001
1.40001
1.40001
1.40001
1.40001
1.40001
1.40001
1.40001
1.40001
1.40001
1.40001
1.40001
1.40001
1.40001
1.40001
1.40001
1.4
1.4
1.4
1.4
1.40172
1.46446
1.82374
1.40001
1.40001
1.40001
1.40001
1.40001
1.40001
1.40001
1.40001
1.40001
1.40001
1.40001
1.40001
1.40001
1.40001
1.40001
1.40001
1.4
1.4
1.4
1.40002
1.40539
1.49271
2.00349
2.70906
1.40001
1.40001
1.40001
1.40001
1.40001
1.40001
1.40001
1.40001
1.40001
1.40001
1.40001
1.40001
1.40001
1.40001
1.40001
1.4
1.4
1.4
1.40018
1.41416
1.58832
2.19787
2.89736
3.20894
1.40001
1.40001
1.40001
1.40001
1.40001
1.40001
1.40001
1.40001
1.40001
1.40001
1.40001
1.40001
1.40001
1.4
1.4
1.4
1.39999
1.40178
1.43985
1.75215
2.42961
3.10933
3.33659
3.32243
1.40001
1.40001
1.40001
1.40001
1.40001
1.40001
1.40001
1.40001
1.40001
1.40001
1.40001
1.40001
1.4
1.4
1.4
1.40005
1.40591
1.52681
1.99585
2.80952
3.1352
3.28408
3.3566
3.351
1.40001
1.40001
1.40001
1.40001
1.40001
1.40001
1.40001
1.40001
1.40001
1.40001
1.40001
1.4
1.4
1.39998
1.40069
1.43837
1.68128
2.37553
3.01197
3.35553
3.37929
3.36258
3.3389
3.32131
1.40001
1.40001
1.40001
1.40001
1.40001
1.40001
1.40001
1.40001
1.40001
1.4
1.4
1.39999
1.40002
1.41093
1.52478
2.02834
2.76278
3.32618
3.37332
3.35586
3.32608
3.31472
3.30025
3.29027
1.40001
1.40001
1.40001
1.40001
1.40001
1.4
1.4
1.4
1.4
1.4
1.39993
1.40253
1.46289
1.82187
2.52403
3.13619
3.36277
3.39445
3.37246
3.32499
3.28478
3.28653
3.29098
3.29566
1.40001
1.40001
1.4
1.4
1.4
1.4
1.4
1.4
1.39992
1.40094
1.44019
1.66953
2.33331
2.99663
3.42673
3.53689
3.51417
3.4569
3.40581
3.35677
3.31124
3.30587
3.3131
3.32894
1.40001
1.4
1.4
1.4
1.39999
1.40004
1.39995
1.40153
1.43093
1.63035
2.18878
2.89917
3.51869
3.57106
3.5307
3.49131
3.4374
3.38857
3.359
3.33795
3.33448
3.3395
3.35085
3.37188
1.40001
1.39997
1.40003
1.40034
1.40324
1.4223
1.4959
1.7101
2.18794
2.89754
3.42622
3.7203
3.77629
3.71613
3.60328
3.44782
3.38264
3.35368
3.34257
3.35113
3.36189
3.37284
3.38615
3.39877
1.40318
1.41686
1.47084
1.59415
1.79726
2.11283
2.50641
2.98758
3.36096
3.53542
3.64637
3.6274
3.5602
3.48304
3.42012
3.3892
3.38052
3.36752
3.36613
3.37617
3.39208
3.40692
3.41493
3.41866
1.67648
2.08414
2.54832
2.98616
3.41995
3.83119
4.12458
4.4227
4.42288
4.29263
4.0294
3.72634
3.45549
3.36437
3.30026
3.30601
3.32868
3.35128
3.36899
3.38682
3.40892
3.42657
3.42917
3.4301
2.67107
1.91101
1.43312
1.2047
1.00264
0.912674
0.933086
1.00441
1.06467
1.10321
1.16807
1.2562
1.27276
1.26423
1.26686
1.27859
1.28274
1.28456
1.28795
1.28727
1.2832
1.26773
1.23922
1.22321
1.21868
1.21422
1.21063
1.20843
1.22001
1.28366
1.46149
1.76417
2.26316
2.80702
3.24839
3.60209
3.92951
4.11756
4.20758
4.24034
4.15406
4.04722
3.94141
3.80141
3.5982
3.37451
3.20498
3.09428
3.00744
2.94332
2.8785
2.79888
2.71599
2.6489
2.5901
2.53005
2.47269
2.41702
2.35956
2.29789
2.24341
2.20576
2.18023
2.15035
2.10284
2.0543
2.02295
2.00451
1.99145
1.97256
1.93811
1.88983
1.84424
1.81023
1.78628
1.76995
1.75683
1.74224
1.72339
1.69402
1.67771
1.67344
1.67051
1.66891
1.66973
1.67942
1.70162
1.72916
1.74442
1.74393
1.74056
1.73641
1.72635
1.72897
1.7369
1.80436
3.15499
2.74042
2.26905
1.99832
1.79602
1.54134
1.42314
1.37766
1.30753
1.23737
1.22631
1.23058
1.21778
1.2097
1.21929
1.24358
1.25811
1.25913
1.25989
1.26274
1.26085
1.24978
1.23483
1.23118
1.22788
1.22401
1.22602
1.25487
1.42043
1.747
2.02834
2.25616
2.39361
2.47998
2.58978
2.71813
2.8815
3.03839
3.15113
3.27792
3.33306
3.37646
3.42384
3.41661
3.37439
3.33113
3.26863
3.19581
3.11354
3.03383
2.95703
2.87162
2.78308
2.70456
2.63863
2.57566
2.5125
2.45322
2.39412
2.34057
2.29175
2.24509
2.20753
2.17104
2.12965
2.09906
2.07999
2.05992
2.04048
2.0175
1.98379
1.94075
1.89916
1.86693
1.84435
1.8287
1.81686
1.8025
1.77312
1.72932
1.71263
1.71014
1.70948
1.7115
1.71763
1.7252
1.73597
1.75186
1.76714
1.77788
1.78516
1.79443
1.803
1.81398
1.83787
1.90956
3.3339
3.13239
2.80658
2.43501
2.17018
1.91384
1.68964
1.56989
1.45414
1.30385
1.26898
1.26907
1.24192
1.2234
1.22729
1.23861
1.24452
1.23936
1.23967
1.24646
1.25107
1.24984
1.24194
1.23966
1.24305
1.26878
1.36995
1.61191
2.02058
2.29528
2.44691
2.50227
2.48065
2.40368
2.34506
2.33185
2.32583
2.34195
2.39726
2.48539
2.61267
2.76657
2.95968
3.1251
3.18336
3.1825
3.18261
3.15202
3.0988
3.04385
2.9966
2.93808
2.86185
2.7778
2.69823
2.61267
2.53393
2.46704
2.40008
2.331
2.26182
2.20657
2.1657
2.13399
2.1127
2.09627
2.07169
2.03742
2.00448
1.97807
1.95016
1.91721
1.88211
1.84945
1.82141
1.79987
1.78569
1.77545
1.75882
1.73694
1.72057
1.71178
1.70964
1.70942
1.70917
1.71146
1.7195
1.73378
1.75405
1.77294
1.78384
1.79493
1.81471
1.84766
1.90447
2.00743
3.3664
3.29728
3.118
2.81744
2.53945
2.28989
2.00239
1.84204
1.73419
1.55146
1.44139
1.41651
1.36333
1.28893
1.27357
1.27151
1.2529
1.22149
1.21067
1.21193
1.21321
1.21739
1.21859
1.22803
1.30253
1.54687
1.87024
2.21218
2.44545
2.49909
2.50397
2.49684
2.46149
2.39219
2.30418
2.22393
2.16839
2.12695
2.08387
2.03998
2.03651
2.06649
2.14193
2.25789
2.40635
2.55307
2.70945
2.76297
2.77312
2.79467
2.80112
2.78226
2.72598
2.66739
2.61516
2.57047
2.52565
2.49314
2.45294
2.39351
2.33121
2.26262
2.20508
2.17345
2.152
2.12682
2.08994
2.04244
1.99247
1.95878
1.93122
1.90348
1.87475
1.84489
1.81698
1.79421
1.77613
1.76069
1.75231
1.74461
1.73174
1.72026
1.71402
1.71162
1.71229
1.71503
1.7209
1.73583
1.76624
1.80978
1.85219
1.8899
1.93181
1.97228
2.00982
2.0011
3.35043
3.34147
3.26722
3.08009
2.83978
2.60777
2.33229
2.11357
1.96337
1.78058
1.6265
1.56091
1.49258
1.3676
1.31111
1.30056
1.2696
1.22575
1.20949
1.20995
1.20889
1.21325
1.25617
1.39451
1.77642
2.17599
2.36991
2.4821
2.49717
2.48343
2.45235
2.40618
2.35463
2.30039
2.23451
2.13522
2.07569
2.04874
2.01628
1.96119
1.92149
1.90853
1.8913
1.85688
1.8555
1.89093
1.98521
2.10041
2.1806
2.25759
2.36021
2.46125
2.52153
2.56668
2.56165
2.52702
2.49134
2.46561
2.43615
2.40222
2.36525
2.31247
2.25536
2.22344
2.20115
2.17471
2.1386
2.08951
2.03326
1.97934
1.93902
1.90564
1.8758
1.84862
1.82381
1.79877
1.77524
1.75686
1.74826
1.74167
1.72879
1.72174
1.72119
1.72347
1.73206
1.74273
1.75526
1.77851
1.82577
1.89261
1.95203
1.98666
2.00493
2.01399
2.02082
1.98522
3.31555
3.32034
3.30925
3.22327
3.05986
2.86198
2.59672
2.37447
2.21786
2.04034
1.85249
1.74992
1.66467
1.54829
1.451
1.42201
1.37374
1.28474
1.24691
1.25207
1.27622
1.38661
1.62036
1.98175
2.43308
2.5067
2.49804
2.46681
2.42286
2.36598
2.31209
2.2522
2.22244
2.20294
2.15465
2.05332
2.01207
1.99299
1.96442
1.90371
1.85498
1.84163
1.82058
1.77283
1.72734
1.71755
1.7149
1.70127
1.68679
1.6945
1.7164
1.78663
1.88445
2.00767
2.11288
2.18303
2.19436
2.18736
2.20138
2.21865
2.20735
2.1753
2.12316
2.09802
2.09176
2.07909
2.05297
2.01997
1.98116
1.95439
1.94155
1.92886
1.91067
1.88725
1.8617
1.83333
1.80499
1.79395
1.79029
1.78608
1.78021
1.77342
1.76878
1.77164
1.78037
1.79102
1.8006
1.8136
1.83494
1.8767
1.93178
1.96143
1.96866
1.96465
1.9349
1.80079
3.29358
3.30225
3.2946
3.2776
3.19212
3.04581
2.83773
2.61081
2.43226
2.24648
2.08239
1.96251
1.85641
1.71093
1.57982
1.53656
1.4864
1.38573
1.32579
1.35967
1.55067
1.94916
2.26748
2.5625
2.6372
2.6049
2.5109
2.42648
2.351
2.28332
2.21373
2.15038
2.12739
2.10775
2.0659
1.98028
1.93318
1.91191
1.88264
1.83499
1.78428
1.76779
1.74624
1.69972
1.66246
1.65027
1.63195
1.60579
1.57982
1.53876
1.47517
1.46875
1.4791
1.51231
1.57454
1.63507
1.67681
1.71062
1.76234
1.85119
1.90271
1.93072
1.95586
1.96163
1.98169
2.00425
1.99724
1.9829
1.97314
1.95694
1.94084
1.93807
1.9319
1.91631
1.89458
1.86993
1.84643
1.83418
1.8278
1.82441
1.82205
1.8182
1.81022
1.80697
1.81002
1.82383
1.83338
1.84168
1.85457
1.87973
1.89742
1.89676
1.86872
1.80039
1.69404
1.58591
3.30968
3.30265
3.29353
3.27957
3.25492
3.17516
3.01504
2.81922
2.65619
2.45273
2.25537
2.1269
2.03038
1.92511
1.75187
1.65854
1.61344
1.6248
1.73506
2.00269
2.4605
2.67845
2.74757
2.7598
2.72087
2.64686
2.54752
2.42463
2.3323
2.26103
2.18576
2.11987
2.09054
2.05818
2.00984
1.93343
1.88094
1.85266
1.8183
1.77461
1.71487
1.68215
1.65173
1.61194
1.58908
1.57146
1.54125
1.52206
1.50733
1.47737
1.41142
1.3784
1.37687
1.38196
1.38826
1.38022
1.36351
1.34769
1.35186
1.38016
1.42328
1.45425
1.50511
1.57816
1.62633
1.68032
1.72827
1.75585
1.79613
1.81385
1.81492
1.8232
1.83127
1.82775
1.81466
1.79661
1.77747
1.76259
1.75423
1.75293
1.75339
1.76014
1.76543
1.76717
1.7723
1.7768
1.77868
1.77443
1.75442
1.72803
1.70877
1.68171
1.63277
1.57889
1.55208
1.54628
3.32895
3.30919
3.29469
3.28532
3.27897
3.24649
3.15128
2.99235
2.83194
2.64356
2.46374
2.31547
2.15105
2.04659
1.94645
1.88355
1.97393
2.29095
2.69715
2.92744
3.07724
3.03684
2.95513
2.86217
2.76319
2.66543
2.55997
2.45049
2.36302
2.28235
2.201
2.13017
2.08604
2.03934
1.97828
1.90701
1.86644
1.83634
1.79449
1.74298
1.67898
1.62918
1.59543
1.55811
1.52553
1.49293
1.45169
1.4389
1.43298
1.41027
1.35744
1.31456
1.30805
1.3127
1.3123
1.29512
1.26806
1.24587
1.23165
1.21609
1.19995
1.19731
1.1994
1.21346
1.2324
1.25026
1.29582
1.35871
1.4266
1.50699
1.57595
1.6185
1.65682
1.69263
1.702
1.69717
1.68579
1.67088
1.66137
1.6594
1.66207
1.67408
1.68457
1.68345
1.66878
1.64226
1.60465
1.56448
1.53355
1.51423
1.5095
1.51631
1.53407
1.54024
1.54175
1.54279
3.3118
3.3097
3.3013
3.28309
3.26964
3.2637
3.2227
3.12509
2.99617
2.81141
2.61763
2.47906
2.34992
2.22446
2.2985
2.5418
2.98262
3.40466
3.54474
3.49387
3.4065
3.28481
3.13864
2.99448
2.87033
2.74739
2.62805
2.5288
2.44548
2.35875
2.26912
2.18673
2.1163
2.04529
1.96637
1.89706
1.86889
1.84121
1.79466
1.73262
1.66523
1.6133
1.57741
1.53731
1.49317
1.44731
1.40798
1.39537
1.38409
1.36004
1.31424
1.25878
1.23742
1.23869
1.23462
1.21526
1.18441
1.17024
1.16509
1.15038
1.12158
1.11356
1.11266
1.10868
1.10151
1.09128
1.09312
1.10634
1.12853
1.1703
1.22818
1.28151
1.32916
1.37937
1.42436
1.43728
1.43496
1.42767
1.42429
1.42348
1.42852
1.44213
1.45744
1.45816
1.44706
1.42453
1.40997
1.41044
1.42098
1.43875
1.46523
1.50467
1.53424
1.54016
1.5419
1.54327
3.37358
3.38406
3.36297
3.30963
3.26838
3.25879
3.256
3.21238
3.11471
2.96508
2.79201
2.65905
2.73939
3.00124
3.46496
3.73051
3.94158
3.93169
3.84959
3.69177
3.52296
3.3716
3.22094
3.07393
2.95927
2.86374
2.76547
2.66739
2.56358
2.44344
2.31107
2.19338
2.11881
2.05721
1.9898
1.93465
1.88698
1.83969
1.78368
1.72261
1.65856
1.61365
1.57853
1.53484
1.47511
1.41441
1.38689
1.37602
1.35894
1.3306
1.28517
1.22402
1.19128
1.1778
1.16452
1.1398
1.11159
1.09647
1.08399
1.06713
1.04904
1.04282
1.04868
1.05303
1.04999
1.04036
1.03395
1.03503
1.03778
1.04385
1.05924
1.08188
1.10743
1.13585
1.16376
1.18059
1.19094
1.20189
1.21744
1.23772
1.26289
1.2909
1.31111
1.32391
1.33939
1.35805
1.38032
1.40257
1.42026
1.43807
1.46609
1.51122
1.54549
1.5512
1.55224
1.55163
3.24618
3.36028
3.35795
3.33223
3.29504
3.27025
3.25282
3.25156
3.20397
3.10067
3.16155
3.47615
3.9866
4.44748
4.62674
4.54591
4.46297
4.27833
4.03913
3.82912
3.65491
3.49358
3.33584
3.18955
3.06072
2.93955
2.82386
2.72358
2.63123
2.52052
2.38295
2.24844
2.15515
2.11152
2.07602
2.0127
1.93462
1.86197
1.78508
1.72155
1.69588
1.66575
1.61605
1.54426
1.4528
1.38958
1.37427
1.36573
1.34521
1.30985
1.25944
1.19917
1.16953
1.15133
1.13301
1.10427
1.07718
1.06084
1.04161
1.02371
1.006
0.993058
0.995258
0.999894
0.995325
0.994132
0.994772
0.99496
0.995486
0.999951
1.0096
1.02358
1.04292
1.06646
1.08614
1.10097
1.11862
1.14251
1.16961
1.19945
1.23111
1.26257
1.29391
1.32444
1.34723
1.3678
1.38867
1.40579
1.42093
1.43983
1.46902
1.51307
1.55262
1.56522
1.56708
1.56763
2.57585
3.09286
3.34163
3.3854
3.37459
3.31276
3.2622
3.26164
3.34781
3.75837
4.50758
5.00314
5.16071
5.10524
4.97655
4.80604
4.60375
4.41452
4.21788
4.03368
3.85802
3.67388
3.48271
3.29618
3.13058
2.98809
2.86388
2.75264
2.64606
2.53939
2.43058
2.32874
2.24031
2.15558
2.06928
1.98239
1.90094
1.83919
1.79194
1.75136
1.70397
1.64458
1.57387
1.49224
1.42077
1.38815
1.36763
1.3451
1.31638
1.27901
1.23157
1.18504
1.15463
1.13076
1.10643
1.07524
1.05228
1.03644
1.01675
0.995337
0.97034
0.954111
0.953058
0.950368
0.944518
0.944065
0.950485
0.957726
0.956086
0.956736
0.968387
0.985362
1.0066
1.03697
1.06693
1.09064
1.11373
1.14144
1.17918
1.22147
1.2604
1.29288
1.31794
1.33646
1.3544
1.37521
1.39324
1.40665
1.4202
1.43595
1.45831
1.4912
1.53344
1.56614
1.57642
1.5799
1.72528
2.38525
2.99398
3.31626
3.32456
3.33911
3.41225
3.75756
4.53365
5.39352
5.89733
5.87354
5.75426
5.46858
5.14246
4.89395
4.69184
4.52514
4.36805
4.18806
3.98826
3.78133
3.58133
3.38646
3.20593
3.05527
2.92744
2.81351
2.70274
2.58768
2.47215
2.37153
2.28055
2.18452
2.08642
1.99692
1.92849
1.87543
1.8227
1.76645
1.70727
1.64433
1.57273
1.49514
1.43582
1.39854
1.36839
1.34184
1.31272
1.27362
1.22405
1.17942
1.14857
1.12222
1.09459
1.06266
1.04221
1.02571
1.0045
0.980448
0.954146
0.943469
0.937548
0.928392
0.912833
0.904307
0.903434
0.903473
0.903358
0.904206
0.913535
0.932823
0.958922
0.996497
1.04349
1.084
1.1204
1.16398
1.21239
1.25174
1.28119
1.30298
1.32227
1.34097
1.36065
1.38034
1.39481
1.40653
1.41784
1.43104
1.44718
1.46842
1.49966
1.54529
1.58316
1.58915
1.42361
1.61404
2.20006
2.89877
3.1791
3.67307
4.46256
5.32534
5.96438
6.12647
6.09997
5.99169
5.8316
5.64438
5.38768
5.11044
4.86486
4.64205
4.4326
4.22925
4.03398
3.83687
3.64062
3.4817
3.35705
3.22255
3.09033
2.96473
2.83883
2.71214
2.59371
2.48664
2.38305
2.28018
2.18458
2.1033
2.0331
1.96194
1.88778
1.81801
1.75579
1.69389
1.62599
1.55576
1.49109
1.43914
1.40258
1.37397
1.34142
1.29791
1.24776
1.20599
1.17383
1.14185
1.10745
1.07549
1.05358
1.03365
1.00871
0.980562
0.958936
0.949452
0.937953
0.917301
0.897089
0.887752
0.882763
0.880386
0.880811
0.880202
0.882195
0.892237
0.91446
0.951936
1.00729
1.07375
1.14052
1.20607
1.25063
1.27301
1.28653
1.301
1.3199
1.34073
1.3629
1.38269
1.39479
1.40445
1.41518
1.42671
1.43933
1.45494
1.47951
1.51832
1.57062
1.59473
1.40046
1.41254
1.5608
2.16692
3.38085
4.66453
5.7752
6.43085
6.60389
6.49564
6.22297
5.96529
5.7951
5.65384
5.49066
5.25931
4.98257
4.70069
4.43148
4.19356
3.97799
3.7821
3.61814
3.47263
3.31722
3.16671
3.02762
2.89625
2.76639
2.6396
2.52367
2.4194
2.31978
2.22105
2.12852
2.04843
1.97659
1.90445
1.83089
1.76254
1.70057
1.63934
1.57724
1.51482
1.45295
1.40011
1.3631
1.33416
1.30194
1.25912
1.21026
1.17256
1.14509
1.11375
1.07559
1.0433
1.02417
1.00778
0.983559
0.952694
0.934938
0.92778
0.918134
0.90082
0.884483
0.877422
0.873257
0.871545
0.871409
0.870748
0.871284
0.87579
0.889131
0.917192
0.966056
1.04852
1.15487
1.23366
1.27159
1.28672
1.29464
1.30418
1.32014
1.34296
1.36723
1.38445
1.39321
1.40249
1.4128
1.42259
1.43232
1.44476
1.46813
1.5063
1.55806
1.6028
1.40046
1.41254
1.5608
2.16692
3.38085
4.66453
5.7752
6.43085
6.60389
6.49564
6.22297
5.96529
5.7951
5.65384
5.49066
5.25931
4.98257
4.70069
4.43148
4.19356
3.97799
3.7821
3.61814
3.47263
3.31722
3.16671
3.02762
2.89625
2.76639
2.6396
2.52367
2.4194
2.31978
2.22105
2.12852
2.04843
1.97659
1.90445
1.83089
1.76254
1.70057
1.63934
1.57724
1.51482
1.45295
1.40011
1.3631
1.33416
1.30194
1.25912
1.21026
1.17256
1.14509
1.11375
1.07559
1.0433
1.02417
1.00778
0.983559
0.952693
0.934939
0.927779
0.918133
0.900824
0.884478
0.877424
0.873263
0.871539
0.871408
0.870745
0.871264
0.875798
0.889047
0.919114
0.977392
1.06534
1.15932
1.23241
1.27064
1.2866
1.29394
1.30128
1.31665
1.34028
1.36676
1.38436
1.39314
1.40249
1.41287
1.42264
1.43222
1.44456
1.46797
1.50645
1.55883
1.59809
1.42361
1.61404
2.20006
2.89877
3.1791
3.67307
4.46256
5.32534
5.96438
6.12647
6.09997
5.99169
5.8316
5.64438
5.38768
5.11044
4.86486
4.64205
4.4326
4.22925
4.03398
3.83687
3.64062
3.4817
3.35705
3.22255
3.09033
2.96473
2.83883
2.71214
2.59371
2.48664
2.38305
2.28018
2.18458
2.1033
2.0331
1.96194
1.88778
1.81801
1.75579
1.69389
1.62599
1.55576
1.49109
1.43914
1.40258
1.37397
1.34142
1.29791
1.24776
1.20599
1.17383
1.14185
1.10745
1.07549
1.05358
1.03365
1.00871
0.980561
0.958936
0.949451
0.937954
0.917315
0.897071
0.887745
0.882786
0.880374
0.880813
0.880197
0.882108
0.892367
0.914653
0.951723
1.00898
1.07569
1.14454
1.20871
1.25173
1.27351
1.28677
1.30118
1.31977
1.34078
1.36286
1.38261
1.39461
1.40442
1.41538
1.42689
1.43911
1.4543
1.47901
1.51893
1.57343
1.59467
1.72528
2.38525
2.99398
3.31626
3.32456
3.33911
3.41225
3.75756
4.53365
5.39352
5.89733
5.87354
5.75426
5.46858
5.14246
4.89395
4.69184
4.52514
4.36805
4.18806
3.98826
3.78133
3.58133
3.38646
3.20593
3.05527
2.92744
2.81351
2.70274
2.58768
2.47215
2.37153
2.28055
2.18452
2.08642
1.99692
1.92849
1.87543
1.8227
1.76645
1.70727
1.64433
1.57273
1.49514
1.43582
1.39854
1.36839
1.34184
1.31272
1.27362
1.22405
1.17942
1.14857
1.12222
1.09459
1.06266
1.04221
1.02571
1.0045
0.980447
0.954145
0.943472
0.937542
0.928395
0.912842
0.904286
0.903436
0.903477
0.903366
0.904218
0.913581
0.932912
0.958479
0.996624
1.04395
1.0841
1.12131
1.16576
1.21382
1.25254
1.2815
1.303
1.32231
1.34097
1.36079
1.38039
1.39471
1.40652
1.41795
1.43102
1.44697
1.4682
1.49971
1.54506
1.58152
1.58858
2.57585
3.09286
3.34163
3.3854
3.37459
3.31276
3.2622
3.26164
3.34781
3.75837
4.50758
5.00314
5.16071
5.10524
4.97655
4.80604
4.60375
4.41452
4.21788
4.03368
3.85802
3.67388
3.48271
3.29618
3.13058
2.98809
2.86388
2.75264
2.64606
2.53939
2.43058
2.32874
2.24031
2.15558
2.06928
1.98239
1.90094
1.83919
1.79194
1.75136
1.70397
1.64458
1.57387
1.49224
1.42077
1.38815
1.36763
1.3451
1.31638
1.27901
1.23157
1.18504
1.15463
1.13076
1.10643
1.07524
1.05228
1.03644
1.01675
0.995337
0.970339
0.954114
0.953054
0.950368
0.94452
0.944066
0.950471
0.957736
0.956123
0.956711
0.968439
0.985382
1.00643
1.037
1.06704
1.0905
1.11364
1.1416
1.17955
1.2217
1.26055
1.29305
1.3181
1.33656
1.35442
1.3752
1.39316
1.40659
1.42005
1.43568
1.45809
1.49136
1.53414
1.56618
1.57579
1.57926
3.24618
3.36028
3.35795
3.33223
3.29504
3.27025
3.25282
3.25156
3.20397
3.10067
3.16155
3.47615
3.9866
4.44748
4.62674
4.54591
4.46297
4.27833
4.03913
3.82912
3.65491
3.49358
3.33584
3.18955
3.06072
2.93955
2.82386
2.72358
2.63123
2.52052
2.38295
2.24844
2.15515
2.11152
2.07602
2.0127
1.93462
1.86197
1.78508
1.72155
1.69588
1.66575
1.61605
1.54426
1.45281
1.38958
1.37427
1.36573
1.34521
1.30985
1.25944
1.19917
1.16953
1.15133
1.13301
1.10427
1.07718
1.06085
1.04161
1.02371
1.006
0.993058
0.995257
0.999895
0.995327
0.994135
0.994747
0.995003
0.99551
0.999905
1.00965
1.0236
1.04285
1.06645
1.08616
1.10091
1.11858
1.1425
1.16958
1.19937
1.23106
1.26265
1.294
1.32442
1.34712
1.36777
1.38884
1.4059
1.42085
1.43953
1.46868
1.51338
1.55317
1.56507
1.56689
1.56756
3.37358
3.38406
3.36297
3.30963
3.26838
3.25879
3.256
3.21238
3.11471
2.96508
2.79201
2.65905
2.73939
3.00124
3.46496
3.73051
3.94158
3.93169
3.84959
3.69177
3.52296
3.3716
3.22094
3.07393
2.95927
2.86374
2.76547
2.66739
2.56358
2.44344
2.31107
2.19338
2.11881
2.05721
1.9898
1.93465
1.88698
1.83969
1.78368
1.72261
1.65856
1.61365
1.57853
1.53484
1.47511
1.41441
1.38689
1.37602
1.35894
1.3306
1.28517
1.22402
1.19128
1.1778
1.16452
1.1398
1.11159
1.09647
1.08399
1.06713
1.04904
1.04282
1.04868
1.05303
1.05
1.04036
1.03394
1.03505
1.03777
1.04384
1.05926
1.08187
1.10741
1.13585
1.16376
1.18057
1.1909
1.20183
1.21744
1.23767
1.2628
1.29096
1.31119
1.32391
1.33936
1.35805
1.38048
1.40284
1.42018
1.43768
1.46564
1.51147
1.54612
1.55149
1.55249
1.55186
3.3118
3.3097
3.3013
3.28309
3.26964
3.2637
3.2227
3.12509
2.99617
2.81141
2.61763
2.47906
2.34992
2.22446
2.2985
2.5418
2.98262
3.40466
3.54474
3.49387
3.4065
3.28481
3.13864
2.99448
2.87033
2.74739
2.62805
2.5288
2.44548
2.35875
2.26912
2.18673
2.1163
2.04529
1.96637
1.89706
1.86889
1.84121
1.79466
1.73262
1.66523
1.6133
1.57741
1.53731
1.49317
1.44731
1.40798
1.39537
1.38409
1.36004
1.31424
1.25878
1.23742
1.23869
1.23462
1.21526
1.18441
1.17024
1.16509
1.15038
1.12158
1.11356
1.11266
1.10868
1.10151
1.09128
1.09312
1.10634
1.12853
1.1703
1.22819
1.2815
1.32918
1.37934
1.42433
1.43729