/*--------------------------------*- C++ -*----------------------------------*\
  =========                 |
  \\      /  F ield         | OpenFOAM: The Open Source CFD Toolbox
   \\    /   O peration     | Website:  https://openfoam.org
    \\  /    A nd           | Version:  7
     \\/     M anipulation  |
\*---------------------------------------------------------------------------*/
FoamFile
{
    version     2.0;
    format      ascii;
    class       volScalarField;
    location    "0.6";
    object      T;
}
// * * * * * * * * * * * * * * * * * * * * * * * * * * * * * * * * * * * * * //

dimensions      [0 0 0 1 0 0 0];

internalField   nonuniform List<scalar> 
4608
(
1
1
1
1
1
1
1
1
1
1
1
1
1
1
1
1
1
1
1
1
1
1
1
1
1
1
1
1
1
1
1
1
1
1
1
1
1
1
1
1
1
1
1
1
1
1
1
1
1
1
1
1
1
1
1
1
1
1
1
1
1
1
1
1
1
1
1
1
1
1
1
1
1
1
1
1
1
1
1
1
1
1
1
1
1
1
1
1
1
1
1
1
1
1
1
1
1
1
1
1
1
1
1
1
1
1
1
1
1
1
1
1
1
1
1
1
1
1
1
1
1
1
1
1
1
1
1
1
1
1
1
1
1
1
1
1
1
1
1
1
1
1
1
1
1
1
1
1
1
1
1
1
1
1
1
1
1
1
1
1
1
1
1
1
1
1
1
1
1
1
1
1
1
1
1
1
1
1
1
1
1
1
1
1
1
1
1
1
1
1
1
1
1
1
1
1
1
1
1
1
1
1
1
1
1
1
1
1
1
1
1
1
1
1
1
1
1
1
1
1
1
1
1
1
1
1
1
1
1
1
1
1
1
1
1
1
1
1
1
1
1
1
1
1
1
1
1
1
1
1
1
1
1
1
1
1
1
1
1
1
1
1
1
1
1
1
1
1
1
1
1
1
1
1
1
1
1
1
1
1
1
1
1
1
1
1
1
1
1
1
1
1
1
1
1
1
1
1
1
1
1
1
1
1
1
1
1
1
1
1
1
1
1
1
1
1
1
1
1
1
1
1
1
1
1
1
1
1
1
1
1
1
1
1
1
1
1
1
1
1
1
1
1
1
1
1
1
1
1
1
1
1
1
1
1
1
1
1
1
1
1
1
1
1
1
1
1
1
1
1
1
1
1
1
1
1
1
1
1
1
1
1
1
1
1
1
1
1
1
1
1
1
1
1
1
1
1
1
1
1
1
1
1
1
1
1
1
1
1
1
1
1
1
1
1
1
1
1
1
1
1
1
1
1
1
1
1
1
1
1
1
1
1
1
1
1
1
1
1
1
1
1
1
1
1
1
1
1
1
1
1
1
1
1
1
1
1
1
1
1
1
1
1
1
1
1
1
1
1
1
1
1
1
1
1
1
1
1
1
1
1
1
1
1
1
1
1
1
1
1
1
1
1
1
1
1
1
1
1
1
1
1
1
1
1
1
1
1
1
1
1
1
1
1
1
1
1
1
1
1
1
1
1
1
1
1
1
1
1
1
1
1
1
1
1
1
1
1
1
1
1
1
1
1
1
1
1
1
1
1
1
1
1
1
1
1
1
1
1
1
1
1
1
1
1
1
1
1
1
1
1
1
1
1
1
1
1
1
1
1
1
1
1
1
1
1
1
1
1
1
1
1
1
1
1
1
1
1
1
1
1
1
1
1
1
1
1
1
1
1
1
1
1
1
1
1
1
1
1
1
1
1
1
1
1
1
1
1
1
1
1
1
1
1
1
1
1
1
1
1
1
1
1
1
1
1
1
1
1
1
1
1
1
1
1
1
1
1
1
1
1
1
1
1
1
1
1
1
1
1
1
1
1
1
1
1
1
1
1
1
1
1
1
1
1
1
1
1
1
1
1
1
1
1
1
1
1
1
1
1
1
1
1
1
1
1
1
1
1
1
1
1
1
1
1
1
1
1
1
1
1
1
1
1
1
1
1
1
1
1
1
1
1
1
1
1
1
1
1
1
1
1
1
1
1
1
1
1
1
1
1
1
1
1
1
1
1
1
1
1
1
1
1
1
1
1
1
1
1.07815
1.18139
1.29091
1.39004
1.48512
1.57216
1.63586
1.68342
1.69922
1.68226
1.6369
1.58588
1.53916
1.52393
1.51435
1.51592
1.52004
1.52393
1.52703
1.5299
1.53386
1.53868
1.54028
1.54061
1.00105
1.00611
1.02725
1.07469
1.14371
1.23237
1.32113
1.40974
1.48
1.51952
1.54493
1.56512
1.56018
1.552
1.54316
1.53778
1.53515
1.53172
1.53117
1.53277
1.53563
1.53937
1.54133
1.54213
1
0.999988
1.00001
1.00012
1.00122
1.00844
1.03695
1.11665
1.2692
1.45503
1.56549
1.62173
1.6219
1.61127
1.59145
1.5632
1.55117
1.54369
1.53797
1.53918
1.54157
1.54503
1.54753
1.54951
1
1
0.999999
0.999999
0.999995
1.00001
0.999975
1.00061
1.01312
1.10646
1.31104
1.48928
1.61912
1.6166
1.6018
1.594
1.58497
1.57405
1.56129
1.55545
1.55554
1.55762
1.55953
1.56179
1
1
1
1
1
1
0.999998
0.999997
0.999965
1.00038
1.01771
1.12071
1.35889
1.5234
1.61908
1.62762
1.62141
1.60708
1.59318
1.58168
1.57408
1.57216
1.57127
1.57271
1
1
1
1
1
1
1
1
0.999997
0.999997
0.999963
1.00096
1.02752
1.18398
1.40708
1.55278
1.59525
1.60173
1.59828
1.59022
1.58359
1.58202
1.57931
1.57863
1
1
1
1
1
1
1
1
1
1
0.999998
0.999996
0.999986
1.00431
1.05402
1.24977
1.45932
1.59202
1.60095
1.59845
1.59323
1.58981
1.58552
1.58228
1
1
1
1
1
1
1
1
1
1
1
0.999999
0.999999
0.999988
1.00022
1.01508
1.11704
1.35213
1.51641
1.5925
1.59817
1.59528
1.59133
1.58759
1
1
1
1
1
1
1
1
1
1
1
1
1
0.999999
0.999998
1.00001
1.00217
1.05125
1.22887
1.45665
1.53396
1.57013
1.58802
1.58718
1
1
1
1
1
1
1
1
1
1
1
1
1
1
1
1
0.999994
1.00057
1.01522
1.13911
1.35039
1.5172
1.57475
1.57583
1
1
1
1
1
1
1
1
1
1
1
1
1
1
1
1
0.999999
0.999997
1.00005
1.0051
1.07416
1.27559
1.46552
1.53882
1
1
1
1
1
1
1
1
1
1
1
1
1
1
1
1
1
0.999999
0.999999
1
1.00181
1.03487
1.21932
1.40829
1
1
1
1
1
1
1
1
1
1
1
1
1
1
1
1
1
1
1
1
0.999999
1.00055
1.02379
1.14868
1
1
1
1
1
1
1
1
1
1
1
1
1
1
1
1
1
1
1
1
1
0.999999
1.00037
1.00897
1
1
1
1
1
1
1
1
1
1
1
1
1
1
1
1
1
1
1
1
1
1
1
1
1
1
1
1
1
1
1
1
1
1
1
1
1
1
1
1
1
1
1
1
1
1
1
1
1
1
1
1
1
1
1
1
1
1
1
1
1
1
1
1
1
1
1
1
1
1
1
1
1
1
1
1
1
1
1
1
1
1
1
1
1
1
1
1
1
1
1
1
1
1
1
1
1
1
1
1
1
1
1
1
1
1
1
1
1
1
1
1
1
1
1
1
1
0.999999
1.00037
1.00897
1
1
1
1
1
1
1
1
1
1
1
1
1
1
1
1
1
1
1
1
0.999999
1.00055
1.02379
1.14868
1
1
1
1
1
1
1
1
1
1
1
1
1
1
1
1
1
0.999999
0.999999
1
1.00181
1.03487
1.21932
1.40829
1
1
1
1
1
1
1
1
1
1
1
1
1
1
1
1
0.999999
0.999997
1.00005
1.0051
1.07416
1.27559
1.46552
1.53882
1
1
1
1
1
1
1
1
1
1
1
1
1
1
1
1
0.999994
1.00057
1.01522
1.13911
1.35039
1.5172
1.57475
1.57583
1
1
1
1
1
1
1
1
1
1
1
1
1
0.999999
0.999998
1.00001
1.00217
1.05125
1.22887
1.45665
1.53396
1.57013
1.58802
1.58718
1
1
1
1
1
1
1
1
1
1
1
0.999999
0.999999
0.999988
1.00022
1.01508
1.11704
1.35213
1.51641
1.5925
1.59817
1.59528
1.59133
1.58759
1
1
1
1
1
1
1
1
1
1
0.999998
0.999996
0.999986
1.00431
1.05402
1.24977
1.45932
1.59202
1.60095
1.59845
1.59323
1.58981
1.58552
1.58228
1
1
1
1
1
1
1
1
0.999997
0.999997
0.999963
1.00096
1.02752
1.18398
1.40708
1.55278
1.59525
1.60173
1.59828
1.59022
1.58359
1.58202
1.57931
1.57863
1
1
1
1
1
1
0.999998
0.999997
0.999965
1.00038
1.01771
1.12071
1.35889
1.5234
1.61908
1.62762
1.62141
1.60708
1.59318
1.58168
1.57408
1.57216
1.57127
1.57271
1
1
0.999999
0.999999
0.999995
1.00001
0.999975
1.00061
1.01312
1.10646
1.31104
1.48928
1.61912
1.6166
1.6018
1.594
1.58497
1.57405
1.56129
1.55545
1.55554
1.55762
1.55953
1.56179
1
0.999988
1.00001
1.00012
1.00122
1.00844
1.03695
1.11665
1.2692
1.45503
1.56549
1.62173
1.6219
1.61127
1.59145
1.5632
1.55117
1.54369
1.53797
1.53918
1.54157
1.54503
1.54753
1.54951
1.00105
1.00611
1.02725
1.07469
1.14371
1.23237
1.32113
1.40974
1.48
1.51952
1.54493
1.56512
1.56018
1.552
1.54316
1.53778
1.53515
1.53172
1.53117
1.53277
1.53563
1.53937
1.54133
1.54213
1.07815
1.18139
1.29091
1.39004
1.48512
1.57216
1.63586
1.68342
1.69922
1.68226
1.6369
1.58588
1.53916
1.52393
1.51435
1.51592
1.52004
1.52393
1.52703
1.5299
1.53386
1.53868
1.54028
1.54061
1.39918
1.22946
1.09841
1.04456
1.00003
0.975119
0.987388
1.02082
1.03779
1.04816
1.07426
1.09963
1.10011
1.09448
1.09457
1.09735
1.09727
1.09701
1.09759
1.09679
1.09392
1.08675
1.07538
1.06923
1.06743
1.0656
1.06374
1.06214
1.06674
1.09627
1.17507
1.28228
1.4282
1.56498
1.66176
1.72995
1.78749
1.82173
1.84815
1.85804
1.8426
1.81988
1.79716
1.76935
1.73284
1.69264
1.65797
1.63148
1.60838
1.58988
1.57224
1.55242
1.53151
1.51178
1.49169
1.47016
1.45063
1.43479
1.4211
1.40705
1.39371
1.38265
1.37386
1.36452
1.35243
1.34232
1.33676
1.33325
1.32967
1.32284
1.30994
1.29287
1.27784
1.2675
1.26074
1.25575
1.2502
1.24167
1.22959
1.2143
1.20598
1.2042
1.20357
1.20328
1.20341
1.2055
1.20976
1.2136
1.21411
1.20871
1.19589
1.17866
1.15422
1.12955
1.10859
1.09582
1.4961
1.41599
1.30966
1.24489
1.19961
1.12712
1.09164
1.08274
1.06397
1.05306
1.05475
1.05744
1.05363
1.0522
1.05585
1.06414
1.06936
1.07002
1.07045
1.07164
1.07106
1.06742
1.06221
1.06074
1.05917
1.05845
1.05956
1.07182
1.14445
1.27548
1.35634
1.40964
1.44206
1.46964
1.50368
1.53828
1.57405
1.60352
1.62489
1.65085
1.66128
1.66741
1.67526
1.67492
1.67094
1.66875
1.66015
1.64512
1.62555
1.60554
1.58622
1.56542
1.54342
1.52175
1.50105
1.48017
1.46017
1.4435
1.42906
1.41694
1.40563
1.39328
1.3817
1.37031
1.35971
1.35449
1.35223
1.34886
1.34368
1.33576
1.32334
1.30795
1.29391
1.28377
1.27724
1.27238
1.26707
1.25879
1.24409
1.22451
1.21658
1.21611
1.21609
1.21697
1.21884
1.22012
1.22047
1.22045
1.21944
1.2145
1.2037
1.18878
1.16892
1.14495
1.1293
1.12022
1.53421
1.49385
1.42796
1.34917
1.28877
1.22153
1.16128
1.1307
1.09924
1.05741
1.04555
1.04458
1.03425
1.03188
1.03431
1.04029
1.0423
1.04063
1.04099
1.04384
1.04599
1.04568
1.04356
1.04311
1.04515
1.05616
1.09774
1.18959
1.33761
1.42199
1.45339
1.46227
1.45731
1.44172
1.43118
1.42995
1.42944
1.43428
1.44966
1.47475
1.51118
1.55052
1.59728
1.63147
1.63967
1.63995
1.64117
1.634
1.62111
1.6066
1.59291
1.57682
1.5568
1.53443
1.51222
1.48828
1.46606
1.44759
1.43034
1.41364
1.39759
1.3835
1.37124
1.3611
1.35583
1.35357
1.34982
1.34287
1.33474
1.32648
1.31606
1.3032
1.29018
1.27917
1.27049
1.26351
1.25707
1.24983
1.23936
1.22705
1.21895
1.21743
1.21756
1.21772
1.2175
1.21728
1.21682
1.21562
1.21351
1.20825
1.19643
1.1796
1.16017
1.14304
1.13818
1.14081
1.55598
1.5368
1.49724
1.4346
1.37529
1.31671
1.24566
1.20745
1.17822
1.12568
1.09104
1.0825
1.06539
1.04295
1.04051
1.04118
1.03582
1.02579
1.02333
1.02401
1.02431
1.0255
1.02574
1.02923
1.06047
1.16141
1.26821
1.36937
1.45385
1.46648
1.46545
1.462
1.45388
1.44035
1.423
1.40626
1.3931
1.38124
1.36799
1.35432
1.3533
1.36283
1.3872
1.42425
1.46457
1.49918
1.53521
1.54351
1.54426
1.54826
1.54632
1.53866
1.52106
1.50349
1.48866
1.47586
1.46263
1.45271
1.44218
1.42884
1.41521
1.39857
1.38297
1.37411
1.36911
1.3642
1.3569
1.34649
1.33472
1.32531
1.31553
1.30397
1.29171
1.28005
1.27014
1.26194
1.25402
1.24524
1.23786
1.23141
1.22473
1.22257
1.22238
1.22203
1.22188
1.22123
1.21885
1.21539
1.21205
1.20851
1.20192
1.19047
1.17699
1.16461
1.15489
1.1424
1.56912
1.56211
1.5411
1.49886
1.44739
1.39531
1.33262
1.28401
1.24607
1.19377
1.14858
1.1309
1.11143
1.07308
1.05365
1.04977
1.04003
1.02715
1.02378
1.02411
1.02348
1.02506
1.04198
1.09913
1.24484
1.36826
1.4179
1.4534
1.46871
1.46734
1.46085
1.44978
1.43795
1.42569
1.41056
1.38682
1.37083
1.36186
1.35059
1.33226
1.3167
1.3094
1.30188
1.29153
1.29087
1.30272
1.33263
1.36686
1.38983
1.41145
1.43845
1.46158
1.4712
1.47723
1.47478
1.46537
1.45565
1.44864
1.4417
1.43502
1.42708
1.41411
1.39998
1.39297
1.38833
1.3826
1.37471
1.3639
1.35074
1.33663
1.32389
1.31112
1.29798
1.28545
1.27469
1.26512
1.25546
1.24579
1.23957
1.235
1.2294
1.22918
1.22982
1.23157
1.23344
1.23339
1.23111
1.22653
1.22257
1.2185
1.21069
1.19588
1.17774
1.16258
1.15293
1.14358
1.57665
1.57261
1.56602
1.54374
1.50688
1.46274
1.40351
1.35477
1.31726
1.27022
1.21899
1.19235
1.16768
1.13195
1.10125
1.09256
1.07784
1.05137
1.03935
1.04102
1.05003
1.09524
1.18818
1.31393
1.44567
1.46524
1.4653
1.46233
1.45709
1.44564
1.43293
1.41749
1.40889
1.40275
1.38903
1.36163
1.34913
1.34237
1.33223
1.31217
1.29309
1.28442
1.2747
1.25823
1.24354
1.23879
1.23654
1.23146
1.22684
1.23035
1.24029
1.26573
1.29715
1.33235
1.35824
1.37641
1.37974
1.37847
1.38449
1.39128
1.38873
1.38065
1.36818
1.36371
1.36303
1.36049
1.35456
1.34743
1.33925
1.33292
1.32755
1.32052
1.31081
1.29942
1.28823
1.27741
1.26664
1.25946
1.25537
1.25193
1.24917
1.2475
1.24623
1.24648
1.24696
1.24618
1.24139
1.23124
1.21673
1.2013
1.18718
1.17013
1.15242
1.13838
1.12547
1.10402
1.58122
1.58021
1.57608
1.56953
1.54916
1.51641
1.47034
1.42061
1.37815
1.32937
1.28694
1.25765
1.22943
1.18581
1.14514
1.13345
1.11956
1.09141
1.07525
1.09213
1.17429
1.31411
1.4085
1.48707
1.50539
1.49826
1.47769
1.4588
1.44202
1.42537
1.40651
1.38809
1.38035
1.37353
1.36028
1.33437
1.31815
1.31026
1.30033
1.28468
1.26653
1.2574
1.24742
1.23065
1.21763
1.21251
1.20576
1.19685
1.18755
1.1731
1.15134
1.14936
1.15353
1.16611
1.1885
1.21128
1.22842
1.24281
1.26273
1.29307
1.30817
1.31728
1.32632
1.33077
1.33978
1.34849
1.34714
1.34503
1.34378
1.33982
1.33286
1.327
1.31991
1.31076
1.30079
1.29058
1.281
1.27464
1.27039
1.26724
1.26466
1.26181
1.25817
1.25404
1.25118
1.24915
1.24273
1.22821
1.20469
1.1798
1.15742
1.13679
1.11621
1.09557
1.07065
1.04498
1.58597
1.58437
1.58197
1.57817
1.57187
1.55434
1.51977
1.47692
1.43882
1.38875
1.34043
1.3089
1.28272
1.25302
1.20304
1.17907
1.16388
1.1735
1.22793
1.32476
1.45542
1.51261
1.53342
1.53681
1.52713
1.50895
1.48597
1.45848
1.43696
1.41737
1.39489
1.37367
1.36295
1.35225
1.3369
1.31342
1.29478
1.28397
1.27258
1.2585
1.23897
1.22638
1.21454
1.2
1.19063
1.18351
1.17325
1.1672
1.16205
1.15107
1.12794
1.11758
1.11742
1.11955
1.122
1.11984
1.11571
1.11629
1.11986
1.13348
1.15212
1.16696
1.18994
1.21784
1.23726
1.25929
1.2763
1.28492
1.29992
1.30266
1.29953
1.29627
1.29338
1.2886
1.28064
1.27131
1.2622
1.25512
1.2509
1.24793
1.24494
1.24341
1.24084
1.23588
1.23063
1.2237
1.21227
1.19058
1.15621
1.12128
1.09734
1.07817
1.05922
1.04356
1.03541
1.03348
1.58486
1.58343
1.5817
1.58104
1.58012
1.57387
1.55443
1.52067
1.48464
1.44055
1.39967
1.36493
1.32239
1.29321
1.26209
1.25529
1.29077
1.40422
1.52112
1.56881
1.60219
1.59635
1.58199
1.56189
1.53707
1.51181
1.48617
1.45957
1.43689
1.41464
1.39011
1.36708
1.35276
1.33759
1.31865
1.29751
1.2845
1.27329
1.25831
1.24099
1.2209
1.20468
1.1927
1.17924
1.16704
1.1552
1.14155
1.13801
1.13611
1.12793
1.10902
1.09607
1.09483
1.09683
1.09689
1.09149
1.08338
1.07831
1.0749
1.06987
1.06505
1.06729
1.07187
1.08255
1.09579
1.10943
1.13251
1.15708
1.18209
1.2095
1.2297
1.23816
1.24916
1.25172
1.24898
1.24305
1.23494
1.22671
1.22188
1.2183
1.21494
1.21198
1.20641
1.19575
1.18034
1.16277
1.14029
1.11118
1.07993
1.05423
1.03957
1.03449
1.03416
1.03405
1.03361
1.03344
1.57666
1.57867
1.57903
1.5784
1.57741
1.57583
1.56746
1.54819
1.52216
1.48276
1.44101
1.40932
1.377
1.34905
1.37718
1.45695
1.57273
1.67246
1.70095
1.68934
1.66975
1.64422
1.6138
1.58208
1.55293
1.52348
1.49427
1.46835
1.44535
1.42143
1.39652
1.37251
1.3509
1.33011
1.3081
1.28758
1.27755
1.26803
1.25209
1.23095
1.20995
1.19445
1.18279
1.16909
1.15369
1.13794
1.12528
1.12221
1.119
1.11074
1.09419
1.07632
1.0712
1.07208
1.07099
1.06484
1.05475
1.05216
1.05125
1.04577
1.03674
1.03682
1.03924
1.0399
1.03969
1.04082
1.04396
1.05134
1.06193
1.08057
1.10396
1.12333
1.14072
1.1551
1.15941
1.15797
1.15319
1.14605
1.14146
1.13792
1.1352
1.13091
1.12323
1.11207
1.09594
1.07806
1.06282
1.05103
1.03934
1.03027
1.02805
1.02955
1.03384
1.03443
1.03416
1.03431
1.57879
1.58664
1.58392
1.57735
1.57243
1.57146
1.57046
1.56254
1.54487
1.51603
1.48099
1.45463
1.48013
1.56087
1.67594
1.72987
1.76956
1.76741
1.75084
1.71839
1.6831
1.65106
1.61885
1.58677
1.56036
1.53657
1.51153
1.4865
1.46009
1.42934
1.39567
1.36545
1.34337
1.32404
1.30326
1.28682
1.27397
1.26087
1.24317
1.22374
1.20363
1.19003
1.17969
1.16606
1.14639
1.12627
1.11784
1.11532
1.11045
1.10092
1.08471
1.06391
1.05445
1.05096
1.04718
1.03892
1.02926
1.02539
1.02178
1.01472
1.01097
1.01106
1.01514
1.02013
1.01957
1.01892
1.01973
1.02197
1.02457
1.02756
1.03328
1.04118
1.05091
1.06006
1.06306
1.0625
1.06008
1.05927
1.0602
1.06375
1.06766
1.06769
1.06519
1.05946
1.05365
1.04884
1.04522
1.0413
1.03501
1.02945
1.0286
1.03156
1.0378
1.03833
1.03788
1.03797
1.53938
1.57502
1.57654
1.57253
1.56734
1.56571
1.56566
1.56518
1.55678
1.5413
1.56317
1.64874
1.76136
1.85048
1.88277
1.86811
1.85056
1.81542
1.7714
1.73111
1.69586
1.66212
1.62844
1.59682
1.56829
1.54038
1.51281
1.48814
1.46488
1.43699
1.40277
1.36916
1.34472
1.3322
1.3216
1.3037
1.28211
1.26117
1.23881
1.22009
1.21267
1.20417
1.18965
1.16763
1.13851
1.118
1.11391
1.11182
1.1058
1.094
1.07636
1.05574
1.04714
1.04209
1.03672
1.02719
1.01799
1.01302
1.00662
0.999271
0.992813
0.992194
0.99436
0.998953
0.99878
0.999895
1.0029
1.00604
1.00836
1.01078
1.01381
1.01751
1.02327
1.03087
1.03218
1.03152
1.03187
1.03438
1.03929
1.04605
1.05247
1.05549
1.05629
1.0561
1.05382
1.04936
1.04414
1.03808
1.03245
1.02994
1.02984
1.03319
1.04108
1.04339
1.04299
1.04333
1.37164
1.506
1.56039
1.57491
1.5744
1.56662
1.56135
1.56262
1.5846
1.68302
1.83804
1.92543
1.9481
1.93888
1.9171
1.88829
1.85399
1.82068
1.78578
1.75152
1.71715
1.68027
1.64173
1.60417
1.57015
1.53986
1.51213
1.48596
1.45984
1.43304
1.40586
1.38063
1.35923
1.33895
1.31749
1.29368
1.26945
1.25067
1.23727
1.22606
1.21289
1.19609
1.17538
1.15053
1.12854
1.1187
1.11254
1.1056
1.09627
1.08379
1.06783
1.05263
1.04362
1.0365
1.02902
1.01866
1.01115
1.00608
0.999178
0.990425
0.979104
0.976638
0.978013
0.9786
0.978883
0.980342
0.98594
0.992314
0.992572
0.993115
0.997955
1.00345
1.00916
1.01781
1.02546
1.02887
1.03141
1.03518
1.04271
1.05268
1.06157
1.06365
1.06264
1.05917
1.05442
1.04953
1.0432
1.03592
1.03108
1.02861
1.02807
1.02966
1.0374
1.04579
1.04679
1.04709
1.12208
1.32508
1.47577
1.5547
1.56146
1.56671
1.58637
1.66521
1.81671
1.9624
2.04262
2.03771
2.01898
1.97634
1.92683
1.88676
1.85357
1.82554
1.79743
1.76448
1.72683
1.68718
1.64869
1.61108
1.57545
1.54448
1.51664
1.49033
1.46379
1.43609
1.40877
1.38514
1.36374
1.34095
1.3169
1.29333
1.27393
1.25845
1.24352
1.22828
1.21231
1.19491
1.17469
1.15226
1.13488
1.12392
1.11455
1.1059
1.09624
1.08343
1.06738
1.05314
1.04343
1.03492
1.02589
1.01515
1.00865
1.00327
0.995644
0.985699
0.973392
0.971908
0.97172
0.97008
0.965388
0.964853
0.966256
0.969199
0.97108
0.971907
0.975695
0.982764
0.990937
1.00207
1.01624
1.0268
1.03477
1.04492
1.05583
1.06412
1.06678
1.06579
1.06363
1.06059
1.0567
1.05159
1.04356
1.03446
1.02914
1.02696
1.02606
1.02636
1.03064
1.04234
1.0502
1.04988
1.00838
1.07963
1.27253
1.46342
1.52508
1.63313
1.78575
1.93055
2.02911
2.05306
2.04878
2.03362
2.01201
1.98626
1.95031
1.90934
1.87118
1.83545
1.80006
1.76395
1.72807
1.69141
1.65482
1.62506
1.60155
1.57518
1.54755
1.51964
1.49087
1.46203
1.43542
1.41133
1.38759
1.36344
1.34041
1.31986
1.30121
1.28183
1.2617
1.24306
1.22661
1.21005
1.19155
1.17198
1.15342
1.13816
1.12692
1.11765
1.10702
1.09305
1.07729
1.06428
1.05389
1.04316
1.03158
1.02102
1.01397
1.00718
0.99799
0.986313
0.977044
0.974804
0.972057
0.965553
0.958801
0.957232
0.957611
0.959179
0.961535
0.961391
0.961874
0.965239
0.972688
0.984526
1.00187
1.02236
1.04183
1.06291
1.07229
1.07177
1.06904
1.06534
1.06285
1.06077
1.05814
1.05329
1.0437
1.03292
1.02749
1.02533
1.02427
1.02422
1.02713
1.03669
1.04906
1.05126
1.00014
1.00425
1.05912
1.25877
1.56852
1.81265
1.98586
2.08791
2.11618
2.10222
2.06412
2.02744
2.00209
1.98317
1.96107
1.92843
1.88719
1.84252
1.79779
1.75578
1.71634
1.67999
1.64947
1.62239
1.59307
1.56335
1.53407
1.5048
1.47499
1.44577
1.41919
1.3953
1.37216
1.34856
1.32558
1.30481
1.28554
1.2659
1.24578
1.22701
1.20989
1.19292
1.1757
1.15821
1.14041
1.12465
1.11303
1.10353
1.09288
1.07896
1.0634
1.05162
1.04287
1.03232
1.0192
1.00836
1.00224
0.996703
0.987687
0.974629
0.967139
0.965703
0.963614
0.958329
0.953144
0.953024
0.953503
0.955412
0.95755
0.957282
0.956936
0.957985
0.961914
0.970384
0.985586
1.01211
1.0464
1.07508
1.07931
1.07749
1.07248
1.0663
1.06298
1.06172
1.05968
1.05435
1.04317
1.03219
1.02646
1.02366
1.02214
1.02192
1.02472
1.03394
1.04642
1.05374
1.00014
1.00425
1.05912
1.25877
1.56852
1.81265
1.98586
2.08791
2.11618
2.10222
2.06412
2.02744
2.00209
1.98317
1.96107
1.92843
1.88719
1.84252
1.79779
1.75578
1.71634
1.67999
1.64947
1.62239
1.59307
1.56335
1.53407
1.5048
1.47499
1.44577
1.41919
1.3953
1.37216
1.34856
1.32558
1.30481
1.28554
1.2659
1.24578
1.22701
1.20989
1.19292
1.1757
1.15821
1.14041
1.12465
1.11303
1.10353
1.09288
1.07896
1.0634
1.05162
1.04287
1.03232
1.0192
1.00836
1.00224
0.996703
0.987687
0.974628
0.967139
0.965703
0.963614
0.958329
0.953142
0.953024
0.953505
0.955411
0.957551
0.957283
0.956922
0.957986
0.961894
0.971216
0.99009
1.01847
1.04777
1.07411
1.07905
1.07727
1.07231
1.06524
1.06191
1.06092
1.05946
1.05442
1.04323
1.0322
1.02648
1.02365
1.0221
1.02188
1.02473
1.03399
1.04657
1.05235
1.00838
1.07963
1.27253
1.46342
1.52508
1.63313
1.78575
1.93055
2.02911
2.05306
2.04878
2.03362
2.01201
1.98626
1.95031
1.90934
1.87118
1.83545
1.80006
1.76395
1.72807
1.69141
1.65482
1.62506
1.60155
1.57518
1.54755
1.51964
1.49087
1.46203
1.43542
1.41133
1.38759
1.36344
1.34041
1.31986
1.30121
1.28183
1.2617
1.24306
1.22661
1.21005
1.19155
1.17198
1.15342
1.13816
1.12692
1.11765
1.10702
1.09305
1.07729
1.06428
1.05389
1.04316
1.03158
1.02102
1.01397
1.00718
0.99799
0.986312
0.977044
0.974804
0.972058
0.965559
0.958788
0.957233
0.957617
0.959179
0.961537
0.961388
0.961835
0.96529
0.97279
0.98446
1.00254
1.02308
1.04324
1.06385
1.07243
1.07186
1.06916
1.06547
1.06286
1.06079
1.0581
1.05327
1.04364
1.03292
1.02759
1.02534
1.02416
1.02409
1.02702
1.0369
1.04964
1.0513
1.12208
1.32508
1.47577
1.5547
1.56146
1.56671
1.58637
1.66521
1.81671
1.9624
2.04262
2.03771
2.01898
1.97634
1.92683
1.88676
1.85357
1.82554
1.79743
1.76448
1.72683
1.68718
1.64869
1.61108
1.57545
1.54448
1.51664
1.49033
1.46379
1.43609
1.40877
1.38514
1.36374
1.34095
1.3169
1.29333
1.27393
1.25845
1.24352
1.22828
1.21231
1.19491
1.17469
1.15226
1.13488
1.12392
1.11455
1.1059
1.09624
1.08343
1.06738
1.05314
1.04343
1.03492
1.02589
1.01515
1.00865
1.00327
0.995644
0.985698
0.973392
0.971909
0.971718
0.970081
0.96539
0.96485
0.966255
0.969199
0.971085
0.971913
0.975713
0.982801
0.99076
1.00214
1.01643
1.02682
1.03512
1.04564
1.05637
1.06441
1.06685
1.06584
1.06367
1.06061
1.05673
1.05159
1.0435
1.03447
1.02921
1.02693
1.02599
1.0263
1.03061
1.04227
1.04992
1.04971
1.37164
1.506
1.56039
1.57491
1.5744
1.56662
1.56135
1.56262
1.5846
1.68302
1.83804
1.92543
1.9481
1.93888
1.9171
1.88829
1.85399
1.82068
1.78578
1.75152
1.71715
1.68027
1.64173
1.60417
1.57015
1.53986
1.51213
1.48596
1.45984
1.43304
1.40586
1.38063
1.35923
1.33895
1.31749
1.29368
1.26945
1.25067
1.23727
1.22606
1.21289
1.19609
1.17538
1.15053
1.12854
1.1187
1.11254
1.1056
1.09627
1.08379
1.06783
1.05263
1.04362
1.0365
1.02902
1.01866
1.01115
1.00608
0.999178
0.990425
0.979104
0.976638
0.978012
0.978601
0.978884
0.980342
0.985932
0.99232
0.992588
0.993103
0.997977
1.00346
1.00909
1.01784
1.02553
1.02882
1.03137
1.03522
1.04285
1.05276
1.06162
1.06371
1.06269
1.05922
1.05442
1.04951
1.04318
1.03593
1.03102
1.02853
1.02802
1.02968
1.03757
1.04578
1.04667
1.04694
1.53938
1.57502
1.57654
1.57253
1.56734
1.56571
1.56566
1.56518
1.55678
1.5413
1.56317
1.64874
1.76136
1.85048
1.88277
1.86811
1.85056
1.81542
1.7714
1.73111
1.69586
1.66212
1.62844
1.59682
1.56829
1.54038
1.51281
1.48814
1.46488
1.43699
1.40277
1.36916
1.34472
1.3322
1.3216
1.3037
1.28211
1.26117
1.23881
1.22009
1.21267
1.20417
1.18965
1.16763
1.13851
1.118
1.11391
1.11182
1.1058
1.094
1.07636
1.05574
1.04714
1.04209
1.03672
1.02719
1.01799
1.01302
1.00662
0.999271
0.992813
0.992194
0.99436
0.998953
0.99878
0.999896
1.00289
1.00607
1.00836
1.01076
1.01383
1.01751
1.02324
1.03087
1.03219
1.0315
1.03186
1.03437
1.03927
1.04601
1.05245
1.05553
1.05631
1.0561
1.05379
1.04935
1.04419
1.03811
1.0324
1.02986
1.02978
1.03325
1.04118
1.04337
1.04297
1.04332
1.57879
1.58664
1.58392
1.57735
1.57243
1.57146
1.57046
1.56254
1.54487
1.51603
1.48099
1.45463
1.48013
1.56087
1.67594
1.72987
1.76956
1.76741
1.75084
1.71839
1.6831
1.65106
1.61885
1.58677
1.56036
1.53657
1.51153
1.4865
1.46009
1.42934
1.39567
1.36545
1.34337
1.32404
1.30326
1.28682
1.27397
1.26087
1.24317
1.22374
1.20363
1.19003
1.17969
1.16606
1.14639
1.12627
1.11784
1.11532
1.11045
1.10092
1.08471
1.06391
1.05445
1.05096
1.04718
1.03892
1.02926
1.02539
1.02178
1.01472
1.01097
1.01106
1.01515
1.02013
1.01957
1.01891
1.01973
1.02198
1.02457
1.02756
1.03328
1.04118
1.0509
1.06006
1.06306
1.06249
1.06007
1.05925
1.0602
1.06373
1.06764
1.0677
1.06521
1.05947
1.05365
1.04884
1.04526
1.04137
1.03495
1.02933
1.02856
1.03162
1.03789
1.03842
1.03797
1.03805
1.57666
1.57867
1.57903
1.5784
1.57741
1.57583
1.56746
1.54819
1.52216
1.48276
1.44101
1.40932
1.377
1.34905
1.37718
1.45695
1.57273
1.67246
1.70095
1.68934
1.66975
1.64422
1.6138
1.58208
1.55293
1.52348
1.49427
1.46835
1.44535
1.42143
1.39652
1.37251
1.3509
1.33011
1.3081
1.28758
1.27755
1.26803
1.25209
1.23095
1.20995
1.19445
1.18279
1.16909
1.15369
1.13794
1.12528
1.12221
1.119
1.11074
1.09419
1.07632
1.0712
1.07208
1.07099
1.06484
1.05475
1.05216
1.05125
1.04577
1.03674
1.03682
1.03924
1.0399
1.03969
1.04082
1.04396
1.05134
1.06193
1.08057
1.10396
1.12333
1.14073
1.15509
1.15941
1.15797
1.15319
1.14605
1.14147
1.13791
1.13518
1.1309
1.12324
1.11205
1.09594
1.0781
1.06283
1.05104
1.03929
1.03018
1.028
1.02951
1.03383
1.03441
1.03416
1.03432
1.58486
1.58343
1.5817
1.58104
1.58012
1.57387
1.55443
1.52067
1.48464
1.44055
1.39967
1.36493
1.32239
1.29321
1.26209
1.25529
1.29077
1.40422
1.52112
1.56881
1.60219
1.59635
1.58199
1.56189
1.53707
1.51181
1.48617
1.45957
1.43689
1.41464
1.39011
1.36708
1.35276
1.33759
1.31865
1.29751
1.2845
1.27329
1.25831
1.24099
1.2209
1.20468
1.1927
1.17924
1.16704
1.1552
1.14155
1.13801
1.13611
1.12793
1.10902
1.09607
1.09483
1.09683
1.09689
1.09149
1.08338
1.07831
1.0749
1.06987
1.06505
1.06729
1.07187
1.08255
1.09579
1.10943
1.13251
1.15708
1.18209
1.2095
1.22969
1.23815
1.24917
1.25172
1.24898
1.24305
1.23494
1.22672
1.22188
1.21831
1.21493
1.21198
1.20642
1.19574
1.18033
1.1628
1.1403
1.11113
1.07994
1.05434
1.03964
1.03458
1.03421
1.03403
1.03356
1.03342
1.58597
1.58437
1.58197
1.57817
1.57187
1.55434
1.51977
1.47692
1.43882
1.38875
1.34043
1.3089
1.28272
1.25302
1.20304
1.17907
1.16388
1.1735
1.22793
1.32476
1.45542
1.51261
1.53342
1.53681
1.52713
1.50895
1.48597
1.45848
1.43696
1.41737
1.39489
1.37367
1.36295
1.35225
1.3369
1.31342
1.29478
1.28397
1.27258
1.2585
1.23897
1.22638
1.21454
1.2
1.19063
1.18351
1.17325
1.1672
1.16205
1.15107
1.12794
1.11758
1.11742
1.11955
1.122
1.11984
1.11571
1.11629
1.11986
1.13348
1.15212
1.16696
1.18994
1.21784
1.23726
1.25929
1.2763
1.28492
1.29992
1.30266
1.29953
1.29627
1.29338
1.2886
1.28064
1.27131
1.2622
1.25512
1.2509
1.24794
1.24494
1.24341
1.24085
1.23587
1.23063
1.22372
1.21228
1.19053
1.15628
1.12136
1.09725
1.0781
1.05928
1.04363
1.03535
1.0334
1.58122
1.58021
1.57608
1.56953
1.54916
1.51641
1.47034
1.42061
1.37815
1.32937
1.28694
1.25765
1.22943
1.18581
1.14514
1.13345
1.11956
1.09141
1.07525
1.09213
1.17429
1.31411
1.4085
1.48707
1.50539
1.49826
1.47769
1.4588
1.44202
1.42537
1.40651
1.38809
1.38035
1.37353
1.36028
1.33437
1.31815
1.31026
1.30033
1.28468
1.26653
1.2574
1.24742
1.23065
1.21763
1.21251
1.20576
1.19685
1.18755
1.1731
1.15134
1.14936
1.15353
1.16611
1.1885
1.21128
1.22842
1.24281
1.26273
1.29307
1.30817
1.31728
1.32632
1.33077
1.33978
1.34849
1.34714
1.34503
1.34378
1.33982
1.33286
1.327
1.31991
1.31076
1.30079
1.29058
1.281
1.27464
1.27039
1.26724
1.26466
1.26181
1.25817
1.25404
1.25118
1.24916
1.24273
1.2282
1.20472
1.17985
1.1574
1.13676
1.11624
1.09561
1.07064
1.04489
1.57665
1.57261
1.56602
1.54374
1.50688
1.46274
1.40351
1.35477
1.31726
1.27022
1.21899
1.19235
1.16768
1.13195
1.10125
1.09256
1.07784
1.05137
1.03935
1.04102
1.05003
1.09524
1.18818
1.31393
1.44567
1.46524
1.4653
1.46233
1.45709
1.44564
1.43293
1.41749
1.40889
1.40275
1.38903
1.36163
1.34913
1.34237
1.33223
1.31217
1.29309
1.28442
1.2747
1.25823
1.24354
1.23879
1.23654
1.23146
1.22684
1.23035
1.24029
1.26573
1.29715
1.33235
1.35824
1.37641
1.37974
1.37847
1.38449
1.39128
1.38873
1.38065
1.36818
1.36371
1.36303
1.36049
1.35456
1.34743
1.33925
1.33292
1.32755
1.32052
1.31081
1.29942
1.28823
1.27741
1.26664
1.25946
1.25537
1.25193
1.24917
1.2475
1.24623
1.24649
1.24696
1.24618
1.24139
1.23124
1.21674
1.20131
1.18718
1.17013
1.15244
1.13836
1.1254
1.10392
1.56912
1.56211
1.5411
1.49886
1.44739
1.39531
1.33262
1.28401
1.24607
1.19377
1.14858
1.1309
1.11143
1.07308
1.05365
1.04977
1.04003
1.02715
1.02378
1.02411
1.02348
1.02506
1.04198
1.09913
1.24484
1.36826
1.4179
1.4534
1.46871
1.46734
1.46085
1.44978
1.43795
1.42569
1.41056
1.38682
1.37083
1.36186
1.35059
1.33226
1.3167
1.3094
1.30188
1.29153
1.29087
1.30272
1.33263
1.36686
1.38983
1.41145
1.43845
1.46158
1.4712
1.47723
1.47478
1.46537
1.45565
1.44864
1.4417
1.43502
1.42708
1.41411
1.39998
1.39297
1.38833
1.3826
1.37471
1.3639
1.35074
1.33663
1.32389
1.31112
1.29798
1.28545
1.27469
1.26512
1.25546
1.2458
1.23957
1.235
1.2294
1.22918
1.22982
1.23157
1.23344
1.23339
1.23111
1.22653
1.22257
1.21849
1.2107
1.19589
1.17774
1.16256
1.1529
1.14353
1.55598
1.5368
1.49724
1.4346
1.37529
1.31671
1.24566
1.20745
1.17822
1.12568
1.09104
1.0825
1.06539
1.04295
1.04051
1.04118
1.03582
1.02579
1.02333
1.02401
1.02431
1.0255
1.02574
1.02923
1.06047
1.16141
1.26821
1.36937
1.45385
1.46648
1.46545
1.462
1.45388
1.44035
1.423
1.40626
1.3931
1.38124
1.36799
1.35432
1.3533
1.36283
1.3872
1.42425
1.46457
1.49918
1.53521
1.54351
1.54426
1.54826
1.54632
1.53866
1.52106
1.50349
1.48866
1.47586
1.46263
1.45271
1.44218
1.42884
1.41521
1.39857
1.38297
1.37411
1.36911
1.3642
1.3569
1.34649
1.33472
1.32531
1.31553
1.30397
1.29171
1.28005
1.27014
1.26194
1.25402
1.24524
1.23786
1.23141
1.22473
1.22257
1.22238
1.22203
1.22188
1.22123
1.21885
1.21539
1.21204
1.20851
1.20193
1.19048
1.17699
1.1646
1.15488
1.14238
1.53421
1.49385
1.42796
1.34917
1.28877
1.22153
1.16128
1.1307
1.09924
1.05741
1.04555
1.04458
1.03425
1.03188
1.03431
1.04029
1.0423
1.04063
1.04099
1.04384
1.04599
1.04568
1.04356
1.04311
1.04515
1.05616
1.09774
1.18959
1.33761
1.42199
1.45339
1.46227
1.45731
1.44172
1.43118
1.42995
1.42944
1.43428
1.44966
1.47475
1.51118
1.55052
1.59728
1.63147
1.63967
1.63995
1.64117
1.634
1.62111
1.6066
1.59291
1.57682
1.5568
1.53443
1.51222
1.48828
1.46606
1.44759
1.43034
1.41364
1.39759
1.3835
1.37124
1.3611
1.35583
1.35357
1.34982
1.34287
1.33474
1.32648
1.31606
1.3032
1.29018
1.27917
1.27049
1.26351
1.25707
1.24983
1.23936
1.22705
1.21895
1.21743
1.21756
1.21772
1.2175
1.21728
1.21682
1.21562
1.21351
1.20825
1.19643
1.17961
1.16017
1.14304
1.13819
1.14082
1.4961
1.41599
1.30966
1.24489
1.19961
1.12712
1.09164
1.08274
1.06397
1.05306
1.05475
1.05744
1.05363
1.0522
1.05585
1.06414
1.06936
1.07002
1.07045
1.07164
1.07106
1.06742
1.06221
1.06074
1.05917
1.05845
1.05956
1.07182
1.14445
1.27548
1.35634
1.40964
1.44206
1.46964
1.50368
1.53828
1.57405
1.60352
1.62489
1.65085
1.66128
1.66741
1.67526
1.67492
1.67094
1.66875
1.66015
1.64512
1.62555
1.60554
1.58622
1.56542
1.54342
1.52175
1.50105
1.48017
1.46017
1.4435
1.42906
1.41694
1.40563
1.39328
1.3817
1.37031
1.35971
1.35449
1.35223
1.34886
1.34368
1.33576
1.32334
1.30795
1.29391
1.28377
1.27724
1.27238
1.26707
1.25879
1.24409
1.22451
1.21658
1.21611
1.21609
1.21697
1.21884
1.22012
1.22047
1.22045
1.21944
1.2145
1.2037
1.18878
1.16892
1.14495
1.12931
1.12022
1.39918
1.22946
1.09841
1.04456
1.00003
0.975119
0.987388
1.02082
1.03779
1.04816
1.07426
1.09963
1.10011
1.09448
1.09457
1.09735
1.09727
1.09701
1.09759
1.09679
1.09392
1.08675
1.07538
1.06923
1.06743
1.0656
1.06374
1.06214
1.06674
1.09627
1.17507
1.28228
1.4282
1.56498