/*--------------------------------*- C++ -*----------------------------------*\
  =========                 |
  \\      /  F ield         | OpenFOAM: The Open Source CFD Toolbox
   \\    /   O peration     | Website:  https://openfoam.org
    \\  /    A nd           | Version:  7
     \\/     M anipulation  |
\*---------------------------------------------------------------------------*/
FoamFile
{
    version     2.0;
    format      ascii;
    class       volVectorField;
    location    "0.6";
    object      U;
}
// * * * * * * * * * * * * * * * * * * * * * * * * * * * * * * * * * * * * * //

dimensions      [0 1 -1 0 0 0 0];

internalField   nonuniform List<vector> 
4608
(
(3 -4.93102e-17 0)
(3 2.42505e-16 0)
(3 -1.15764e-16 0)
(3 4.7316e-17 0)
(3 -2.66132e-17 0)
(3 -8.73199e-16 0)
(3 -2.14511e-15 0)
(3 -2.0059e-16 0)
(3 1.09255e-15 0)
(3 1.93481e-15 0)
(3 1.87681e-15 0)
(3 6.25848e-16 0)
(3 3.57439e-16 0)
(3 -2.12442e-16 0)
(3 -6.7569e-16 0)
(3 -7.16419e-16 0)
(3 -6.82111e-16 0)
(3 -5.05432e-16 0)
(3 -3.69808e-16 0)
(3 -1.66135e-16 0)
(3 8.66658e-17 0)
(3 2.0806e-16 0)
(3 4.16396e-16 0)
(3 4.54662e-16 0)
(3 -3.15128e-17 0)
(3 -6.74578e-17 0)
(3 -6.25601e-17 0)
(3 1.38863e-16 0)
(3 -9.56326e-17 0)
(3 -9.74987e-16 0)
(3 -1.77034e-15 0)
(3 -9.87018e-16 0)
(3 3.12207e-16 0)
(3 8.62322e-16 0)
(3 1.58068e-15 0)
(3 4.03677e-16 0)
(3 -4.77515e-16 0)
(3 -1.32261e-15 0)
(3 -9.99942e-16 0)
(3 -8.53279e-16 0)
(3 -8.88357e-16 0)
(3 -8.77913e-16 0)
(3 -5.37375e-16 0)
(3 -7.41541e-16 0)
(3 -2.72794e-16 0)
(3 4.76688e-16 0)
(3 1.35751e-15 0)
(3 1.92194e-15 0)
(3 2.53243e-16 0)
(3 -1.86005e-17 0)
(3 -6.53748e-16 0)
(3 -6.31635e-16 0)
(3 -5.94539e-16 0)
(3 -5.91699e-16 0)
(3 -6.56273e-16 0)
(3 -1.04978e-15 0)
(3 -5.35105e-17 0)
(3 4.51524e-16 0)
(3 1.1602e-15 0)
(3 -2.46808e-16 0)
(3 -1.10406e-15 0)
(3 -1.47446e-15 0)
(3 -1.67508e-15 0)
(3 -2.11912e-15 0)
(3 -2.25189e-15 0)
(3 -2.42589e-15 0)
(3 -2.67581e-15 0)
(3 -2.57837e-15 0)
(3 -6.71883e-16 0)
(3 4.89486e-16 0)
(3 1.0761e-15 0)
(3 1.90143e-15 0)
(3 -1.03753e-19 0)
(3 2.47475e-16 0)
(3 -7.78003e-17 0)
(3 -5.4978e-16 0)
(3 -5.72871e-16 0)
(3 -4.31587e-16 0)
(3 -4.63496e-16 0)
(3 -5.98554e-16 0)
(3 2.58622e-18 0)
(3 1.54203e-16 0)
(3 1.21538e-16 0)
(3 -5.37229e-16 0)
(3 -9.17797e-16 0)
(3 -7.27614e-16 0)
(3 -1.29176e-15 0)
(3 -2.03344e-15 0)
(3 -2.08982e-15 0)
(3 -2.14273e-15 0)
(3 -2.34489e-15 0)
(3 -2.19993e-15 0)
(3 -1.51894e-15 0)
(3 -7.29837e-16 0)
(3 -1.83492e-17 0)
(3 1.61879e-15 0)
(3 -3.03459e-16 0)
(3 -2.61875e-16 0)
(3 7.68332e-16 0)
(3 1.40087e-15 0)
(3 5.41815e-16 0)
(3 1.15584e-16 0)
(3 -1.56818e-16 0)
(3 -2.32762e-16 0)
(3 -6.21123e-16 0)
(3 -5.37294e-16 0)
(3 -1.52357e-15 0)
(3 -2.20265e-15 0)
(3 -1.92764e-15 0)
(3 -1.97589e-15 0)
(3 -1.69489e-15 0)
(3 -2.0388e-15 0)
(3 -2.38061e-15 0)
(3 -2.21153e-15 0)
(3 -2.24175e-15 0)
(3 -2.25886e-15 0)
(3 -1.90115e-15 0)
(3 -1.44214e-15 0)
(3 -1.00587e-15 0)
(3 1.13771e-16 0)
(3 1.15189e-16 0)
(3 1.80198e-16 0)
(3 4.43301e-16 0)
(3 7.59076e-16 0)
(3 8.00993e-16 0)
(3 5.73545e-16 0)
(3 1.76919e-16 0)
(3 2.38626e-16 0)
(3 4.98056e-16 0)
(3 -1.48085e-16 0)
(3 -8.68354e-16 0)
(3 -1.24381e-15 0)
(3 -1.13898e-15 0)
(3 -1.41209e-15 0)
(3 -1.65652e-15 0)
(3 -2.09148e-15 0)
(3 -2.74178e-15 0)
(3 -2.49173e-15 0)
(3 -2.69072e-15 0)
(3 -2.94655e-15 0)
(3 -3.30979e-15 0)
(3 -3.26214e-15 0)
(3 -2.04114e-15 0)
(3 -1.71391e-15 0)
(3 1.60871e-16 0)
(3 5.43582e-16 0)
(3 5.3405e-16 0)
(3 -1.80041e-16 0)
(3 -2.63124e-16 0)
(3 9.42709e-17 0)
(3 2.99838e-16 0)
(3 1.1933e-15 0)
(3 1.76002e-15 0)
(3 5.0615e-16 0)
(3 6.15503e-17 0)
(3 -1.00601e-15 0)
(3 -1.18741e-15 0)
(3 -7.29605e-17 0)
(3 -3.53986e-16 0)
(3 -7.29069e-16 0)
(3 -1.10109e-15 0)
(3 -1.93804e-15 0)
(3 -2.44603e-15 0)
(3 -3.31413e-15 0)
(3 -4.26802e-15 0)
(3 -4.48972e-15 0)
(3 -3.07986e-15 0)
(3 -2.01226e-15 0)
(3 1.798e-17 0)
(3 3.60444e-16 0)
(3 2.7402e-16 0)
(3 1.02335e-16 0)
(3 -2.68509e-16 0)
(3 -1.299e-16 0)
(3 -4.55568e-16 0)
(3 -5.78075e-16 0)
(3 -1.13422e-16 0)
(3 4.80591e-16 0)
(3 2.93738e-16 0)
(3 -2.08444e-16 0)
(3 -2.6116e-16 0)
(3 -5.64177e-16 0)
(3 -5.8974e-16 0)
(3 -3.41644e-16 0)
(3 -6.97026e-16 0)
(3 -1.57457e-15 0)
(3 -2.29587e-15 0)
(3 -2.95065e-15 0)
(3 -2.9682e-15 0)
(3 -2.6995e-15 0)
(3 -1.71951e-15 0)
(3 -1.70534e-15 0)
(3 -1.4065e-16 0)
(3 -1.19652e-16 0)
(3 -4.94368e-18 0)
(3 2.81617e-16 0)
(3 3.73612e-16 0)
(3 -1.7579e-17 0)
(3 -3.22141e-16 0)
(3 -6.85134e-16 0)
(3 -4.42174e-16 0)
(3 4.78629e-16 0)
(3 6.44099e-16 0)
(3 1.39159e-15 0)
(3 2.73989e-15 0)
(3 2.34575e-15 0)
(3 1.64925e-15 0)
(3 1.08585e-15 0)
(3 2.65808e-16 0)
(3 -5.68141e-16 0)
(3 -1.35693e-15 0)
(3 -1.4356e-15 0)
(3 -3.22683e-16 0)
(3 3.73851e-17 0)
(3 3.64191e-16 0)
(3 -1.4554e-16 0)
(3 -1.77511e-16 0)
(3 -8.33989e-16 0)
(3 -6.14491e-16 0)
(3 -3.89981e-16 0)
(3 -3.3938e-16 0)
(3 -4.52234e-16 0)
(3 -3.09615e-16 0)
(3 -1.34096e-16 0)
(3 -1.01513e-16 0)
(3 6.28846e-16 0)
(3 8.38258e-16 0)
(3 2.74402e-15 0)
(3 2.96486e-15 0)
(3 2.94422e-15 0)
(3 2.59954e-15 0)
(3 1.99698e-15 0)
(3 1.58466e-15 0)
(3 1.07606e-15 0)
(3 1.64336e-15 0)
(3 2.41834e-15 0)
(3 2.23327e-15 0)
(3 9.34876e-16 0)
(3 -1.88667e-16 0)
(3 -8.1085e-16 0)
(3 -2.20699e-16 0)
(3 -1.86054e-16 0)
(3 -2.59373e-16 0)
(3 -2.5741e-16 0)
(3 -1.48482e-16 0)
(3 2.10883e-16 0)
(3 9.08972e-17 0)
(3 -5.62569e-17 0)
(3 -2.17037e-18 0)
(3 3.20234e-16 0)
(3 3.49816e-16 0)
(3 2.74716e-16 0)
(3 3.88826e-16 0)
(3 1.05278e-15 0)
(3 1.29527e-15 0)
(3 1.30693e-15 0)
(3 1.61131e-15 0)
(3 2.57963e-15 0)
(3 3.1352e-15 0)
(3 3.83259e-15 0)
(3 3.1012e-15 0)
(3 1.4451e-15 0)
(3 1.96646e-16 0)
(3 3.70968e-16 0)
(3 4.17911e-16 0)
(3 7.28259e-16 0)
(3 2.69747e-16 0)
(3 8.39851e-17 0)
(3 9.47665e-17 0)
(3 -3.26434e-17 0)
(3 -3.64858e-16 0)
(3 -1.29678e-15 0)
(3 -1.79503e-15 0)
(3 -3.56761e-16 0)
(3 1.73341e-17 0)
(3 -1.88891e-16 0)
(3 9.73311e-17 0)
(3 -8.60483e-17 0)
(3 -1.60173e-16 0)
(3 1.20201e-15 0)
(3 1.9448e-15 0)
(3 2.55369e-15 0)
(3 2.4336e-15 0)
(3 2.37862e-15 0)
(3 2.39637e-15 0)
(3 1.24626e-15 0)
(3 -7.42699e-16 0)
(3 -1.30279e-15 0)
(3 1.19232e-16 0)
(3 -3.85982e-17 0)
(3 4.12531e-17 0)
(3 -9.07334e-17 0)
(3 -2.51071e-16 0)
(3 -7.08692e-16 0)
(3 -1.24858e-15 0)
(3 -1.84612e-15 0)
(3 -2.59133e-15 0)
(3 -1.09665e-15 0)
(3 4.0841e-16 0)
(3 4.99564e-16 0)
(3 5.77495e-16 0)
(3 1.26008e-16 0)
(3 6.72989e-17 0)
(3 8.5819e-16 0)
(3 1.71838e-15 0)
(3 1.84847e-15 0)
(3 1.64304e-15 0)
(3 8.9411e-16 0)
(3 4.48013e-16 0)
(3 4.50747e-16 0)
(3 -8.1322e-17 0)
(3 -6.61953e-16 0)
(3 -1.50792e-16 0)
(3 -2.83119e-16 0)
(3 4.75246e-16 0)
(3 2.2346e-16 0)
(3 -1.34967e-16 0)
(3 -2.15414e-16 0)
(3 2.76252e-16 0)
(3 3.59478e-16 0)
(3 -3.45897e-16 0)
(3 -3.88361e-16 0)
(3 -3.5971e-16 0)
(3 1.38176e-16 0)
(3 9.40114e-16 0)
(3 1.38481e-15 0)
(3 1.30331e-15 0)
(3 1.51399e-15 0)
(3 1.51181e-15 0)
(3 1.60412e-15 0)
(3 1.14586e-15 0)
(3 3.33857e-16 0)
(3 -2.8155e-16 0)
(3 -4.2906e-16 0)
(3 -2.26047e-16 0)
(3 1.02651e-16 0)
(3 -8.9828e-17 0)
(3 -1.01788e-16 0)
(3 -1.96469e-16 0)
(3 -2.78918e-16 0)
(3 -2.65621e-16 0)
(3 3.2188e-17 0)
(3 5.11565e-16 0)
(3 6.62753e-16 0)
(3 2.04367e-16 0)
(3 1.50881e-16 0)
(3 7.45034e-16 0)
(3 1.19484e-15 0)
(3 1.30782e-15 0)
(3 1.76077e-15 0)
(3 1.43575e-15 0)
(3 6.95999e-16 0)
(3 2.45744e-16 0)
(3 4.20012e-16 0)
(3 4.34605e-16 0)
(3 1.38773e-16 0)
(3 -9.81941e-17 0)
(3 -2.08229e-15 0)
(3 -2.30585e-15 0)
(3 -1.71523e-15 0)
(3 -1.43219e-16 0)
(3 -3.57317e-16 0)
(3 -8.84607e-16 0)
(3 -6.18123e-16 0)
(3 -3.61601e-16 0)
(3 -2.69408e-16 0)
(3 -2.5928e-16 0)
(3 1.85337e-16 0)
(3 1.02181e-15 0)
(3 1.3748e-15 0)
(3 1.63881e-15 0)
(3 1.40786e-15 0)
(3 7.89293e-16 0)
(3 6.15186e-16 0)
(3 1.12438e-16 0)
(3 -5.61687e-16 0)
(3 -4.65308e-16 0)
(3 -9.39325e-16 0)
(3 -1.17218e-15 0)
(3 -1.50181e-15 0)
(3 -1.11602e-15 0)
(3 -1.73112e-15 0)
(3 -2.12486e-15 0)
(3 -1.25608e-15 0)
(3 1.59853e-16 0)
(3 7.08859e-16 0)
(3 4.63036e-16 0)
(3 1.51592e-16 0)
(3 7.4494e-17 0)
(3 7.14226e-16 0)
(3 6.14279e-16 0)
(3 1.08039e-15 0)
(3 1.66565e-15 0)
(3 1.15291e-15 0)
(3 2.03434e-16 0)
(3 4.47993e-17 0)
(3 1.02382e-16 0)
(3 -3.9875e-16 0)
(3 5.36036e-17 0)
(3 -6.20076e-17 0)
(3 -2.39415e-16 0)
(3 -8.96098e-16 0)
(3 -1.71992e-15 0)
(3 -1.54623e-15 0)
(3 -4.94313e-16 0)
(3 1.98151e-15 0)
(3 2.28203e-15 0)
(3 3.2363e-15 0)
(3 2.38185e-16 0)
(3 3.84695e-16 0)
(3 1.15418e-15 0)
(3 1.03373e-15 0)
(3 1.12084e-15 0)
(3 1.00614e-15 0)
(3 5.40924e-16 0)
(3 -7.34088e-17 0)
(3 4.48503e-16 0)
(3 2.72451e-16 0)
(3 -1.06805e-16 0)
(3 1.46841e-16 0)
(3 3.8176e-16 0)
(3 3.97938e-16 0)
(3 4.63658e-16 0)
(3 7.6722e-16 0)
(3 4.31038e-16 0)
(3 2.43847e-16 0)
(3 -4.04786e-16 0)
(3 -7.48871e-16 0)
(3 6.14184e-16 0)
(3 1.83766e-15 0)
(3 3.58331e-15 0)
(3 3.95672e-15 0)
(3 1.01627e-17 0)
(3 -3.37029e-16 0)
(3 -1.50928e-16 0)
(3 3.15039e-16 0)
(3 7.57099e-16 0)
(3 1.23877e-15 0)
(3 1.27651e-15 0)
(3 4.53804e-16 0)
(3 -9.33633e-17 0)
(3 -3.49234e-16 0)
(3 -8.90525e-16 0)
(3 -1.02721e-15 0)
(3 -3.75895e-16 0)
(3 5.9031e-17 0)
(3 1.67314e-16 0)
(3 9.03845e-17 0)
(3 3.09977e-16 0)
(3 3.70634e-16 0)
(3 1.0571e-15 0)
(3 1.36766e-15 0)
(3 1.05385e-15 0)
(3 1.4679e-15 0)
(3 1.52395e-15 0)
(3 9.25808e-16 0)
(3 -2.22962e-16 0)
(3 -6.06268e-16 0)
(3 -8.09293e-16 0)
(3 -3.32807e-16 0)
(3 7.71527e-16 0)
(3 1.27923e-15 0)
(3 2.05368e-15 0)
(3 2.1885e-15 0)
(3 1.39722e-16 0)
(3 -7.39665e-16 0)
(3 -1.29487e-15 0)
(3 -5.25896e-16 0)
(3 -6.15643e-16 0)
(3 -6.21953e-16 0)
(3 -7.33916e-17 0)
(3 -4.10389e-17 0)
(3 -1.05437e-17 0)
(3 -1.48702e-17 0)
(3 9.33861e-17 0)
(3 8.08643e-16 0)
(3 1.69262e-15 0)
(3 1.66322e-15 0)
(3 7.03931e-16 0)
(3 4.68932e-16 0)
(3 -1.37449e-16 0)
(3 -2.88921e-16 0)
(3 -5.07262e-16 0)
(3 -4.90026e-16 0)
(3 -2.46658e-16 0)
(3 -1.26564e-15 0)
(3 -1.03659e-15 0)
(3 2.52229e-17 0)
(3 3.80741e-16 0)
(3 4.4326e-16 0)
(3 8.93857e-16 0)
(3 1.04663e-15 0)
(3 8.04198e-18 0)
(3 -5.76492e-16 0)
(3 -3.80972e-16 0)
(3 1.11653e-16 0)
(3 -1.40328e-16 0)
(3 -8.04657e-16 0)
(3 -1.07023e-15 0)
(3 -9.62209e-16 0)
(3 -6.21497e-16 0)
(3 -9.38524e-16 0)
(3 -8.99619e-16 0)
(3 -1.15321e-15 0)
(3 1.52493e-16 0)
(3 2.63638e-16 0)
(3 4.95416e-16 0)
(3 2.57647e-16 0)
(3 -1.36154e-16 0)
(3 -1.31712e-15 0)
(3 -2.32023e-15 0)
(3 -1.57494e-15 0)
(3 2.02783e-16 0)
(3 8.29297e-16 0)
(3 4.83105e-16 0)
(3 -2.03189e-16 0)
(3 -6.83008e-16 0)
(3 -8.69839e-16 0)
(3 -1.45064e-15 0)
(3 -1.44558e-15 0)
(3 -1.82618e-15 0)
(3 -1.64268e-15 0)
(3 -1.36928e-15 0)
(3 -1.61948e-15 0)
(3 -1.43487e-15 0)
(3 -1.50663e-15 0)
(3 -2.06879e-15 0)
(3 -2.13199e-15 0)
(3 1.55272e-16 0)
(3 1.08351e-16 0)
(3 1.62514e-16 0)
(3 3.16315e-16 0)
(3 2.65626e-16 0)
(3 -3.13524e-16 0)
(3 -1.06864e-15 0)
(3 -2.56317e-15 0)
(3 -1.77477e-15 0)
(3 7.5012e-17 0)
(3 -4.79696e-16 0)
(3 -7.38064e-16 0)
(3 -4.68116e-16 0)
(3 -5.27409e-16 0)
(3 -6.22774e-16 0)
(3 -9.06634e-16 0)
(3 -9.56459e-16 0)
(3 -6.47465e-16 0)
(3 -3.58933e-16 0)
(3 -2.63109e-16 0)
(3 -8.29539e-16 0)
(3 -1.51765e-15 0)
(3 -2.03297e-15 0)
(3 -1.93088e-15 0)
(3 -8.63911e-17 0)
(3 3.78919e-17 0)
(3 -5.83748e-16 0)
(3 -7.11859e-16 0)
(3 -4.5886e-16 0)
(3 -2.05469e-16 0)
(3 -8.55096e-18 0)
(3 -3.17052e-16 0)
(3 -1.89868e-15 0)
(3 -2.05778e-15 0)
(3 -1.5475e-15 0)
(3 -8.90717e-16 0)
(3 -1.01485e-15 0)
(3 -9.40921e-16 0)
(3 -3.15213e-16 0)
(3 -1.57996e-16 0)
(3 1.94748e-17 0)
(3 -1.14887e-16 0)
(3 -2.66028e-16 0)
(3 -3.36728e-16 0)
(3 -1.39735e-15 0)
(3 -1.22594e-15 0)
(3 -1.007e-15 0)
(3 -1.30976e-15 0)
(3 -2.06943e-16 0)
(3 2.49267e-16 0)
(3 2.6188e-16 0)
(3 -4.59092e-16 0)
(3 -7.0856e-16 0)
(3 -1.7916e-16 0)
(3 -1.55408e-17 0)
(3 6.75232e-16 0)
(3 7.42652e-16 0)
(3 -3.82817e-17 0)
(3 -2.48036e-16 0)
(3 -1.10276e-15 0)
(3 -2.16811e-15 0)
(3 -1.81893e-15 0)
(3 -1.55285e-15 0)
(3 -1.47035e-15 0)
(3 -1.10825e-15 0)
(3 -7.58374e-16 0)
(3 -8.39781e-16 0)
(3 -1.20203e-15 0)
(3 -1.24546e-15 0)
(3 -1.16234e-15 0)
(3 -1.57592e-15 0)
(3 -1.87111e-15 0)
(3 -3.14299e-17 0)
(3 -1.15803e-17 0)
(3 1.94594e-16 0)
(3 7.06443e-17 0)
(3 -3.87314e-16 0)
(3 -4.68386e-17 0)
(3 2.1391e-16 0)
(3 1.74593e-15 0)
(3 3.82275e-15 0)
(3 2.17326e-15 0)
(3 1.83535e-15 0)
(3 1.38169e-16 0)
(3 -7.23087e-17 0)
(3 -7.54383e-16 0)
(3 -1.89416e-15 0)
(3 -3.14263e-15 0)
(3 -1.6393e-15 0)
(3 -6.7137e-16 0)
(3 -4.42324e-16 0)
(3 -6.12169e-16 0)
(3 -8.79328e-17 0)
(3 -2.07796e-16 0)
(3 -9.31921e-16 0)
(3 -1.15358e-15 0)
(3 1.03094e-16 0)
(3 1.2649e-16 0)
(3 1.88026e-16 0)
(3 1.28955e-16 0)
(3 1.85643e-16 0)
(3 5.42956e-16 0)
(3 1.30176e-15 0)
(3 1.07048e-15 0)
(3 -2.96458e-16 0)
(3 -4.94975e-16 0)
(3 -4.15097e-16 0)
(3 -9.46107e-17 0)
(3 6.92334e-16 0)
(3 1.22788e-15 0)
(3 1.05828e-15 0)
(3 1.00327e-15 0)
(3 9.38438e-16 0)
(3 9.81517e-17 0)
(3 -8.51056e-16 0)
(3 -7.95369e-16 0)
(3 2.49546e-16 0)
(3 5.88275e-16 0)
(3 5.90436e-16 0)
(3 -4.47153e-16 0)
(3 2.04813e-17 0)
(3 -2.07313e-17 0)
(3 1.16805e-16 0)
(3 5.71714e-16 0)
(3 1.34246e-15 0)
(3 1.62854e-15 0)
(3 2.00994e-15 0)
(3 6.70009e-16 0)
(3 -1.33778e-15 0)
(3 -1.5265e-15 0)
(3 -1.81559e-15 0)
(3 -1.5434e-15 0)
(3 -5.6118e-16 0)
(3 1.22287e-15 0)
(3 2.45438e-15 0)
(3 2.47963e-15 0)
(3 1.03625e-15 0)
(3 -4.11019e-16 0)
(3 -1.97352e-15 0)
(3 -1.69983e-15 0)
(3 -1.96125e-15 0)
(3 -1.43938e-15 0)
(3 5.43098e-17 0)
(3 1.08654e-15 0)
(3 -9.63031e-17 0)
(3 1.91081e-16 0)
(3 5.62252e-16 0)
(3 1.05157e-15 0)
(3 1.7543e-15 0)
(3 2.40112e-15 0)
(3 8.81624e-16 0)
(3 3.96854e-16 0)
(3 7.03414e-16 0)
(3 3.77817e-16 0)
(3 1.87493e-16 0)
(3 -1.17466e-16 0)
(3 2.48992e-17 0)
(3 -8.46401e-17 0)
(3 -8.16357e-16 0)
(3 -1.47058e-15 0)
(3 -1.90268e-15 0)
(3 -1.95977e-15 0)
(3 -1.52783e-15 0)
(3 -1.91415e-15 0)
(3 -1.86383e-15 0)
(3 -1.32734e-15 0)
(3 -6.74706e-16 0)
(3 1.03101e-15 0)
(3 -2.87908e-16 0)
(3 -1.54635e-16 0)
(3 6.32818e-17 0)
(3 -9.10936e-17 0)
(3 -9.53455e-16 0)
(3 -1.761e-15 0)
(3 -1.88616e-15 0)
(3 -1.52581e-15 0)
(3 -1.41939e-15 0)
(3 -2.684e-16 0)
(3 1.20621e-15 0)
(3 1.92076e-15 0)
(3 9.26003e-16 0)
(3 -1.96885e-16 0)
(3 -1.11287e-15 0)
(3 -1.3144e-15 0)
(3 -1.67528e-15 0)
(3 -1.37904e-15 0)
(3 -1.00675e-15 0)
(3 -6.44415e-16 0)
(3 9.05863e-16 0)
(3 1.2393e-15 0)
(3 7.9198e-16 0)
(3 2.10812e-15 0)
(3 5.76122e-17 0)
(3 -4.02167e-16 0)
(3 -1.1107e-15 0)
(3 -1.65379e-15 0)
(3 -2.24842e-15 0)
(3 -2.59537e-15 0)
(3 -2.5888e-15 0)
(3 -1.85141e-15 0)
(3 -5.46229e-16 0)
(3 -2.66353e-16 0)
(3 -1.33256e-16 0)
(3 -3.81002e-16 0)
(3 -1.25678e-15 0)
(3 -2.26929e-15 0)
(3 -1.88974e-15 0)
(3 -4.01745e-16 0)
(3 -5.13605e-17 0)
(3 7.66127e-17 0)
(3 7.76412e-16 0)
(3 1.16298e-15 0)
(3 1.57087e-15 0)
(3 1.71777e-15 0)
(3 2.18424e-15 0)
(3 2.06029e-15 0)
(3 1.61824e-16 0)
(3 1.36442e-16 0)
(3 -5.00984e-16 0)
(3 -5.71782e-16 0)
(3 -4.46217e-16 0)
(3 -3.37056e-16 0)
(3 -2.09727e-16 0)
(3 2.11918e-16 0)
(3 6.3038e-16 0)
(3 4.44923e-16 0)
(3 2.17215e-16 0)
(3 -3.90687e-16 0)
(3 -1.21327e-15 0)
(3 -1.89009e-15 0)
(3 -1.94753e-15 0)
(3 -1.83917e-15 0)
(3 -1.14972e-15 0)
(3 1.45248e-16 0)
(3 7.2354e-16 0)
(3 5.71168e-16 0)
(3 9.50599e-18 0)
(3 9.66225e-16 0)
(3 1.84105e-15 0)
(3 1.79674e-15 0)
(2.93164 0.0360905 0)
(2.85134 0.0493578 0)
(2.75724 0.136583 0)
(2.66375 0.252303 0)
(2.58398 0.342926 0)
(2.49754 0.444797 0)
(2.42244 0.545759 0)
(2.35052 0.626686 0)
(2.31218 0.722846 0)
(2.25813 0.799118 0)
(2.24968 0.85673 0)
(2.28585 0.884572 0)
(2.32769 0.89859 0)
(2.33464 0.891087 0)
(2.34291 0.880605 0)
(2.34672 0.865977 0)
(2.34957 0.856125 0)
(2.34874 0.851943 0)
(2.3434 0.851352 0)
(2.33849 0.851096 0)
(2.33754 0.849892 0)
(2.33959 0.848645 0)
(2.33999 0.848648 0)
(2.33903 0.84908 0)
(2.99841 0.00171957 0)
(2.99091 0.0112795 0)
(2.96234 0.0466847 0)
(2.89896 0.13373 0)
(2.80734 0.271754 0)
(2.67617 0.467369 0)
(2.53183 0.684935 0)
(2.39353 0.896734 0)
(2.21346 1.07631 0)
(2.16574 1.0994 0)
(2.14057 1.04479 0)
(2.19637 1.00223 0)
(2.24548 0.948397 0)
(2.30241 0.897326 0)
(2.32911 0.858927 0)
(2.34839 0.827917 0)
(2.35534 0.829364 0)
(2.3599 0.837516 0)
(2.35279 0.846612 0)
(2.34846 0.850297 0)
(2.34313 0.851254 0)
(2.34236 0.850168 0)
(2.34263 0.849416 0)
(2.34078 0.849891 0)
(3 5.15359e-07 0)
(3.00003 7.62753e-06 0)
(3.00001 -8.99278e-05 0)
(2.9998 0.00024038 0)
(2.99863 0.00188179 0)
(2.99121 0.012873 0)
(2.96561 0.0537087 0)
(2.90133 0.169635 0)
(2.75759 0.426566 0)
(2.61932 0.682092 0)
(2.43397 0.858724 0)
(2.33433 0.930692 0)
(2.2948 0.913551 0)
(2.30538 0.897857 0)
(2.30771 0.898096 0)
(2.33976 0.871771 0)
(2.35737 0.848297 0)
(2.3627 0.851433 0)
(2.35943 0.850334 0)
(2.3557 0.85042 0)
(2.3508 0.850768 0)
(2.34895 0.85021 0)
(2.3484 0.850248 0)
(2.34582 0.851161 0)
(3 -6.35857e-10 0)
(3 -6.6831e-07 0)
(3 -1.58649e-06 0)
(3 -1.55864e-06 0)
(3 -8.78448e-06 0)
(2.99999 2.36115e-05 0)
(3.00001 -2.76135e-05 0)
(2.9994 0.000846699 0)
(2.98766 0.0214223 0)
(2.92406 0.137245 0)
(2.69517 0.475507 0)
(2.46304 0.758398 0)
(2.36445 0.872294 0)
(2.29258 0.952049 0)
(2.27757 0.950801 0)
(2.29855 0.923371 0)
(2.32865 0.879799 0)
(2.35029 0.851966 0)
(2.35884 0.844355 0)
(2.36188 0.838786 0)
(2.36106 0.839822 0)
(2.35858 0.842535 0)
(2.35635 0.845391 0)
(2.35255 0.848128 0)
(3 -1.28861e-10 0)
(3 2.05316e-09 0)
(3 -7.02286e-08 0)
(3 -1.41773e-07 0)
(3 -5.78472e-07 0)
(3 -6.6928e-07 0)
(3 -4.22904e-06 0)
(3 -5.52767e-06 0)
(3.00003 -6.91597e-05 0)
(2.99943 0.000707413 0)
(2.98269 0.0221946 0)
(2.87258 0.166085 0)
(2.68396 0.448911 0)
(2.35616 0.827472 0)
(2.34292 0.849663 0)
(2.30563 0.881984 0)
(2.30776 0.878459 0)
(2.32003 0.870723 0)
(2.34711 0.853929 0)
(2.35905 0.846146 0)
(2.35986 0.842183 0)
(2.36028 0.837956 0)
(2.35999 0.839792 0)
(2.35434 0.846842 0)
(3 -1.15532e-12 0)
(3 1.03218e-10 0)
(3 3.32981e-10 0)
(3 -1.00885e-09 0)
(3 -7.81364e-10 0)
(3 -3.43145e-08 0)
(3 -7.98754e-08 0)
(3 -3.38874e-07 0)
(3 -6.03004e-06 0)
(3 -5.66768e-06 0)
(3.00003 -5.89111e-05 0)
(2.9988 0.0016354 0)
(2.97364 0.0343839 0)
(2.78789 0.259404 0)
(2.63522 0.507551 0)
(2.33954 0.830903 0)
(2.24732 0.924975 0)
(2.28012 0.892048 0)
(2.31101 0.872892 0)
(2.32413 0.868473 0)
(2.3374 0.857001 0)
(2.34538 0.849102 0)
(2.35215 0.839901 0)
(2.35112 0.840216 0)
(3 1.55156e-14 0)
(3 -9.71787e-14 0)
(3 2.6065e-11 0)
(3 2.43983e-11 0)
(3 1.96221e-11 0)
(3 -2.11837e-10 0)
(3 -5.92307e-10 0)
(3 -9.91215e-10 0)
(3 -1.35138e-08 0)
(3 -2.9554e-07 0)
(3 -5.29341e-06 0)
(3.00001 -3.39571e-06 0)
(3 -4.69013e-05 0)
(2.99493 0.00744423 0)
(2.95476 0.0655236 0)
(2.6999 0.3779 0)
(2.52089 0.61894 0)
(2.38755 0.782544 0)
(2.29511 0.873152 0)
(2.28931 0.879456 0)
(2.3056 0.865712 0)
(2.32446 0.848804 0)
(2.33536 0.839678 0)
(2.34144 0.840398 0)
(3 1.62447e-15 0)
(3 -3.64217e-15 0)
(3 3.60497e-14 0)
(3 1.6787e-12 0)
(3 2.90784e-12 0)
(3 2.78243e-12 0)
(3 3.13363e-12 0)
(3 4.09545e-12 0)
(3 9.00976e-11 0)
(3 -1.15407e-09 0)
(3 -7.27454e-09 0)
(3 -1.34087e-06 0)
(3 -1.93498e-06 0)
(3.00001 -1.72637e-05 0)
(2.99971 0.000397741 0)
(2.98261 0.0237569 0)
(2.90038 0.148345 0)
(2.59458 0.531555 0)
(2.38447 0.778664 0)
(2.3463 0.809292 0)
(2.32047 0.840554 0)
(2.31533 0.842621 0)
(2.32669 0.837328 0)
(2.33548 0.832274 0)
(3 -1.1908e-15 0)
(3 -1.62293e-15 0)
(3 -2.91078e-15 0)
(3 -3.89372e-15 0)
(3 2.49653e-14 0)
(3 2.87509e-13 0)
(3 9.8533e-13 0)
(3 1.67057e-12 0)
(3 8.89166e-12 0)
(3 1.42423e-11 0)
(3 3.15943e-11 0)
(3 -1.92227e-08 0)
(3 -1.06205e-07 0)
(3 -2.6857e-06 0)
(3 -4.65966e-06 0)
(2.99998 2.45795e-05 0)
(2.99788 0.0037015 0)
(2.94255 0.0766473 0)
(2.77052 0.313332 0)
(2.52512 0.635054 0)
(2.32104 0.892663 0)
(2.29108 0.861481 0)
(2.31611 0.837539 0)
(2.32256 0.836984 0)
(3 -1.00685e-15 0)
(3 -2.04631e-15 0)
(3 -3.95434e-15 0)
(3 -5.16683e-15 0)
(3 -5.30224e-15 0)
(3 -1.91618e-15 0)
(3 3.05016e-14 0)
(3 1.90252e-13 0)
(3 2.95448e-13 0)
(3 2.53746e-12 0)
(3 5.37914e-12 0)
(3 6.3074e-11 0)
(3 -6.67134e-10 0)
(3 -2.80334e-08 0)
(3 -8.76678e-07 0)
(3 -8.08949e-07 0)
(3 -9.81652e-06 0)
(2.99936 0.000999804 0)
(2.98455 0.0269374 0)
(2.87687 0.18454 0)
(2.57838 0.574435 0)
(2.45697 0.713499 0)
(2.34854 0.825208 0)
(2.32094 0.854353 0)
(3 1.90851e-16 0)
(3 -2.66088e-15 0)
(3 -4.60184e-15 0)
(3 -2.67977e-15 0)
(3 -1.01168e-15 0)
(3 -4.37517e-16 0)
(3 -9.75267e-16 0)
(3 2.40375e-15 0)
(3 5.20385e-15 0)
(3 3.93464e-14 0)
(3 3.21645e-13 0)
(3 1.61094e-11 0)
(3 1.62787e-11 0)
(3 1.49947e-10 0)
(3 -1.26642e-08 0)
(3 -1.10281e-07 0)
(3 -1.35694e-06 0)
(3 -6.26882e-06 0)
(2.99994 9.86776e-05 0)
(2.99494 0.00903396 0)
(2.9203 0.115342 0)
(2.75618 0.385888 0)
(2.41679 0.775028 0)
(2.36743 0.838221 0)
(3 -1.03557e-15 0)
(3 -1.97805e-16 0)
(3 -6.69404e-17 0)
(3 -4.1167e-16 0)
(3 -9.13561e-16 0)
(3 -1.67727e-15 0)
(3 -2.831e-15 0)
(3 -2.28872e-15 0)
(3 -1.62444e-15 0)
(3 1.35428e-15 0)
(3 4.15044e-15 0)
(3 3.30757e-13 0)
(3 3.19225e-12 0)
(3 1.84216e-11 0)
(3 7.52394e-11 0)
(3 -1.79113e-09 0)
(3 -3.14882e-08 0)
(3 -1.56053e-06 0)
(3 -1.61658e-06 0)
(3 -4.89976e-06 0)
(2.99799 0.0039264 0)
(2.97123 0.0520754 0)
(2.77355 0.326301 0)
(2.51057 0.678173 0)
(3 -4.91585e-16 0)
(3 1.29532e-15 0)
(3 3.49075e-15 0)
(3 4.28436e-15 0)
(3 2.3738e-15 0)
(3 6.61664e-16 0)
(3 -5.97295e-16 0)
(3 -1.59837e-15 0)
(3 -2.0728e-15 0)
(3 -1.54372e-15 0)
(3 1.75957e-15 0)
(3 -2.70272e-15 0)
(3 3.85186e-14 0)
(3 1.13312e-12 0)
(3 2.02689e-11 0)
(3 1.68818e-11 0)
(3 -4.67711e-11 0)
(3 -3.94014e-08 0)
(3 -5.36248e-07 0)
(3 -4.56595e-07 0)
(3 -4.43641e-06 0)
(2.99941 0.00115849 0)
(2.97475 0.043149 0)
(2.88605 0.197011 0)
(3 4.90421e-16 0)
(3 1.18782e-15 0)
(3 2.67549e-15 0)
(3 3.68534e-15 0)
(3 4.29616e-15 0)
(3 3.11602e-15 0)
(3 1.78634e-15 0)
(3 7.14434e-18 0)
(3 -1.88856e-15 0)
(3 -2.51669e-15 0)
(3 -2.14646e-15 0)
(3 -2.38238e-15 0)
(3 -4.1586e-15 0)
(3 2.46804e-16 0)
(3 8.98095e-13 0)
(3 4.37596e-12 0)
(3 9.04943e-12 0)
(3 4.43927e-11 0)
(3 -1.8346e-08 0)
(3 -1.18571e-07 0)
(3 -5.62354e-07 0)
(3 -1.78091e-06 0)
(2.99959 0.000829625 0)
(2.99249 0.0172151 0)
(3 -1.30372e-15 0)
(3 -1.12143e-15 0)
(3 3.87414e-16 0)
(3 1.35439e-15 0)
(3 2.51359e-15 0)
(3 3.68115e-15 0)
(3 3.33808e-15 0)
(3 1.89233e-16 0)
(3 -1.79709e-15 0)
(3 -2.3967e-15 0)
(3 -2.26521e-15 0)
(3 -1.93622e-15 0)
(3 -3.34642e-15 0)
(3 -2.0494e-15 0)
(3 4.77186e-15 0)
(3 1.3446e-13 0)
(3 2.56888e-12 0)
(3 6.15769e-12 0)
(3 -3.90499e-11 0)
(3 -9.48672e-09 0)
(3 -7.86226e-08 0)
(3 -4.66688e-07 0)
(3 1.4332e-05 0)
(3 -3.02861e-05 0)
(3 -2.728e-16 0)
(3 8.51586e-17 0)
(3 2.03847e-16 0)
(3 6.3707e-16 0)
(3 7.79296e-16 0)
(3 1.25908e-15 0)
(3 5.68107e-16 0)
(3 4.45819e-16 0)
(3 5.07186e-16 0)
(3 5.57194e-16 0)
(3 -2.35251e-15 0)
(3 -3.59605e-15 0)
(3 -3.96995e-15 0)
(3 -3.17434e-16 0)
(3 3.61081e-16 0)
(3 1.37268e-15 0)
(3 7.2142e-14 0)
(3 1.5476e-12 0)
(3 7.87475e-13 0)
(3 -1.4528e-10 0)
(3 -2.46615e-09 0)
(3 -1.293e-07 0)
(3 -6.21336e-08 0)
(3 -4.30532e-07 0)
(3 3.6256e-15 0)
(3 3.67835e-15 0)
(3 2.4276e-15 0)
(3 7.77475e-16 0)
(3 -2.01311e-16 0)
(3 5.59392e-18 0)
(3 4.44313e-16 0)
(3 2.28604e-15 0)
(3 2.97294e-15 0)
(3 -7.95438e-16 0)
(3 -1.64367e-15 0)
(3 -2.19053e-15 0)
(3 -2.22157e-16 0)
(3 1.73601e-15 0)
(3 5.70979e-16 0)
(3 2.61828e-18 0)
(3 -9.18032e-14 0)
(3 -1.53779e-12 0)
(3 -8.029e-13 0)
(3 1.45228e-10 0)
(3 2.46587e-09 0)
(3 1.29305e-07 0)
(3 6.21132e-08 0)
(3 4.30513e-07 0)
(3 2.48036e-15 0)
(3 1.79542e-15 0)
(3 1.37255e-15 0)
(3 1.07543e-15 0)
(3 9.94412e-16 0)
(3 6.29323e-16 0)
(3 1.31785e-15 0)
(3 2.01119e-15 0)
(3 9.61491e-16 0)
(3 -3.47526e-16 0)
(3 -8.71817e-16 0)
(3 8.5359e-16 0)
(3 1.50459e-15 0)
(3 1.83529e-15 0)
(3 -2.46002e-15 0)
(3 -1.26985e-13 0)
(3 -2.58328e-12 0)
(3 -6.14811e-12 0)
(3 3.90844e-11 0)
(3 9.48682e-09 0)
(3 7.86217e-08 0)
(3 4.66691e-07 0)
(3 -1.4332e-05 0)
(3 3.02862e-05 0)
(3 7.35469e-16 0)
(3 4.10879e-16 0)
(3 2.35291e-16 0)
(3 4.70199e-16 0)
(3 1.0984e-15 0)
(3 2.9479e-16 0)
(3 -7.5474e-16 0)
(3 -1.58347e-15 0)
(3 -6.35652e-16 0)
(3 -8.36733e-16 0)
(3 -1.40169e-15 0)
(3 3.45658e-16 0)
(3 -9.70416e-16 0)
(3 -4.07972e-15 0)
(3 -8.9961e-13 0)
(3 -4.37045e-12 0)
(3 -9.05272e-12 0)
(3 -4.43917e-11 0)
(3 1.8346e-08 0)
(3 1.18572e-07 0)
(3 5.62352e-07 0)
(3 1.78091e-06 0)
(2.99959 -0.000829625 0)
(2.99249 -0.0172151 0)
(3 -1.51529e-17 0)
(3 -3.75753e-16 0)
(3 -2.79052e-16 0)
(3 -2.00483e-16 0)
(3 -1.00164e-16 0)
(3 -4.27381e-16 0)
(3 -2.41551e-16 0)
(3 -2.55303e-16 0)
(3 3.19422e-16 0)
(3 3.78569e-17 0)
(3 2.16667e-16 0)
(3 8.00939e-16 0)
(3 -4.00495e-14 0)
(3 -1.1288e-12 0)
(3 -2.02624e-11 0)
(3 -1.68787e-11 0)
(3 4.6769e-11 0)
(3 3.94014e-08 0)
(3 5.36248e-07 0)
(3 4.56595e-07 0)
(3 4.43641e-06 0)
(2.99941 -0.00115849 0)
(2.97475 -0.043149 0)
(2.88605 -0.197011 0)
(3 -1.28567e-15 0)
(3 -1.42677e-15 0)
(3 -1.00725e-15 0)
(3 -5.65217e-16 0)
(3 -2.13673e-16 0)
(3 3.44296e-16 0)
(3 5.62773e-16 0)
(3 -4.21534e-17 0)
(3 8.30634e-16 0)
(3 1.16323e-15 0)
(3 -8.41786e-17 0)
(3 -3.26123e-13 0)
(3 -3.18851e-12 0)
(3 -1.84179e-11 0)
(3 -7.524e-11 0)
(3 1.79112e-09 0)
(3 3.14882e-08 0)
(3 1.56053e-06 0)
(3 1.61658e-06 0)
(3 4.89977e-06 0)
(2.99799 -0.0039264 0)
(2.97123 -0.0520754 0)
(2.77355 -0.326301 0)
(2.51057 -0.678173 0)
(3 -1.40703e-15 0)
(3 -1.1247e-15 0)
(3 -2.27266e-15 0)
(3 -2.51732e-15 0)
(3 -2.76459e-15 0)
(3 -2.19988e-15 0)
(3 8.31562e-17 0)
(3 -1.47702e-15 0)
(3 -1.6424e-15 0)
(3 -3.1981e-14 0)
(3 -3.15267e-13 0)
(3 -1.61046e-11 0)
(3 -1.6276e-11 0)
(3 -1.49947e-10 0)
(3 1.26642e-08 0)
(3 1.10281e-07 0)
(3 1.35694e-06 0)
(3 6.26882e-06 0)
(2.99994 -9.86776e-05 0)
(2.99494 -0.00903395 0)
(2.9203 -0.115342 0)
(2.75618 -0.385888 0)
(2.41679 -0.775028 0)
(2.36743 -0.838221 0)
(3 -2.36876e-15 0)
(3 -2.63554e-15 0)
(3 -2.76133e-15 0)
(3 -2.77256e-15 0)
(3 -3.41013e-15 0)
(3 -6.37451e-15 0)
(3 -3.44244e-14 0)
(3 -1.91292e-13 0)
(3 -2.97304e-13 0)
(3 -2.54503e-12 0)
(3 -5.38992e-12 0)
(3 -6.30843e-11 0)
(3 6.6713e-10 0)
(3 2.80334e-08 0)
(3 8.76678e-07 0)
(3 8.0895e-07 0)
(3 9.81652e-06 0)
(2.99936 -0.000999804 0)
(2.98455 -0.0269374 0)
(2.87687 -0.18454 0)
(2.57838 -0.574435 0)
(2.45697 -0.713499 0)
(2.34854 -0.825208 0)
(2.32094 -0.854353 0)
(3 -1.40429e-15 0)
(3 -1.92078e-15 0)
(3 -1.48326e-15 0)
(3 -3.60694e-15 0)
(3 -3.1849e-14 0)
(3 -2.91056e-13 0)
(3 -9.89338e-13 0)
(3 -1.67161e-12 0)
(3 -8.89466e-12 0)
(3 -1.42493e-11 0)
(3 -3.16023e-11 0)
(3 1.92227e-08 0)
(3 1.06205e-07 0)
(3 2.6857e-06 0)
(3 4.65966e-06 0)
(2.99998 -2.45795e-05 0)
(2.99788 -0.0037015 0)
(2.94255 -0.0766473 0)
(2.77052 -0.313332 0)
(2.52512 -0.635054 0)
(2.32104 -0.892663 0)
(2.29108 -0.861481 0)
(2.31611 -0.837539 0)
(2.32256 -0.836984 0)
(3 -5.17764e-15 0)
(3 -4.64212e-17 0)
(3 -4.00226e-14 0)
(3 -1.67782e-12 0)
(3 -2.91559e-12 0)
(3 -2.78626e-12 0)
(3 -3.13529e-12 0)
(3 -4.0953e-12 0)
(3 -9.00949e-11 0)
(3 1.15406e-09 0)
(3 7.27453e-09 0)
(3 1.34087e-06 0)
(3 1.93498e-06 0)
(3.00001 1.72637e-05 0)
(2.99971 -0.000397741 0)
(2.98261 -0.0237569 0)
(2.90038 -0.148345 0)
(2.59458 -0.531555 0)
(2.38447 -0.778664 0)
(2.3463 -0.809292 0)
(2.32047 -0.840554 0)
(2.31533 -0.842621 0)
(2.32669 -0.837328 0)
(2.33548 -0.832274 0)
(3 -1.82701e-14 0)
(3 9.51676e-14 0)
(3 -2.60675e-11 0)
(3 -2.43969e-11 0)
(3 -1.96293e-11 0)
(3 2.11833e-10 0)
(3 5.92297e-10 0)
(3 9.91196e-10 0)
(3 1.35137e-08 0)
(3 2.9554e-07 0)
(3 5.29341e-06 0)
(3.00001 3.39571e-06 0)
(3 4.69013e-05 0)
(2.99493 -0.00744423 0)
(2.95476 -0.0655236 0)
(2.6999 -0.3779 0)
(2.52089 -0.61894 0)
(2.38755 -0.782544 0)
(2.29511 -0.873152 0)
(2.28931 -0.879456 0)
(2.3056 -0.865712 0)
(2.32446 -0.848804 0)
(2.33536 -0.839678 0)
(2.34144 -0.840398 0)
(3 1.15514e-12 0)
(3 -1.03224e-10 0)
(3 -3.32986e-10 0)
(3 1.00885e-09 0)
(3 7.81374e-10 0)
(3 3.43145e-08 0)
(3 7.98749e-08 0)
(3 3.38873e-07 0)
(3 6.03004e-06 0)
(3 5.66768e-06 0)
(3.00003 5.89111e-05 0)
(2.9988 -0.0016354 0)
(2.97364 -0.0343839 0)
(2.78789 -0.259404 0)
(2.63522 -0.507551 0)
(2.33954 -0.830903 0)
(2.24732 -0.924975 0)
(2.28012 -0.892048 0)
(2.31101 -0.872892 0)
(2.32413 -0.868473 0)
(2.3374 -0.857001 0)
(2.34538 -0.849102 0)
(2.35215 -0.839901 0)
(2.35112 -0.840216 0)
(3 1.2886e-10 0)
(3 -2.05317e-09 0)
(3 7.02287e-08 0)
(3 1.41773e-07 0)
(3 5.78476e-07 0)
(3 6.69279e-07 0)
(3 4.22904e-06 0)
(3 5.52766e-06 0)
(3.00003 6.91597e-05 0)
(2.99943 -0.000707413 0)
(2.98269 -0.0221946 0)
(2.87258 -0.166085 0)
(2.68396 -0.448911 0)
(2.35616 -0.827472 0)
(2.34292 -0.849663 0)
(2.30563 -0.881984 0)
(2.30776 -0.878459 0)
(2.32003 -0.870723 0)
(2.34711 -0.853929 0)
(2.35905 -0.846146 0)
(2.35986 -0.842183 0)
(2.36028 -0.837956 0)
(2.35999 -0.839792 0)
(2.35434 -0.846842 0)
(3 6.35859e-10 0)
(3 6.6831e-07 0)
(3 1.58649e-06 0)
(3 1.55864e-06 0)
(3 8.78448e-06 0)
(2.99999 -2.36115e-05 0)
(3.00001 2.76135e-05 0)
(2.9994 -0.000846699 0)
(2.98766 -0.0214223 0)
(2.92406 -0.137245 0)
(2.69517 -0.475507 0)
(2.46304 -0.758398 0)
(2.36445 -0.872294 0)
(2.29258 -0.952049 0)
(2.27757 -0.950801 0)
(2.29855 -0.923371 0)
(2.32865 -0.879799 0)
(2.35029 -0.851966 0)
(2.35884 -0.844355 0)
(2.36188 -0.838786 0)
(2.36106 -0.839822 0)
(2.35858 -0.842535 0)
(2.35635 -0.845391 0)
(2.35255 -0.848128 0)
(3 -5.15358e-07 0)
(3.00003 -7.6275e-06 0)
(3.00001 8.99277e-05 0)
(2.9998 -0.00024038 0)
(2.99863 -0.00188179 0)
(2.99121 -0.012873 0)
(2.96561 -0.0537087 0)
(2.90133 -0.169635 0)
(2.75759 -0.426566 0)
(2.61932 -0.682092 0)
(2.43397 -0.858724 0)
(2.33433 -0.930692 0)
(2.2948 -0.913551 0)
(2.30538 -0.897857 0)
(2.30771 -0.898096 0)
(2.33976 -0.871771 0)
(2.35737 -0.848297 0)
(2.3627 -0.851433 0)
(2.35943 -0.850334 0)
(2.3557 -0.85042 0)
(2.3508 -0.850768 0)
(2.34895 -0.85021 0)
(2.3484 -0.850248 0)
(2.34582 -0.851161 0)
(2.99841 -0.00171957 0)
(2.99091 -0.0112795 0)
(2.96234 -0.0466847 0)
(2.89896 -0.133729 0)
(2.80734 -0.271754 0)
(2.67617 -0.467369 0)
(2.53183 -0.684935 0)
(2.39353 -0.896734 0)
(2.21346 -1.07631 0)
(2.16574 -1.0994 0)
(2.14057 -1.04479 0)
(2.19637 -1.00223 0)
(2.24548 -0.948397 0)
(2.30241 -0.897326 0)
(2.32911 -0.858927 0)
(2.34839 -0.827917 0)
(2.35534 -0.829364 0)
(2.3599 -0.837516 0)
(2.35279 -0.846612 0)
(2.34846 -0.850297 0)
(2.34313 -0.851254 0)
(2.34236 -0.850168 0)
(2.34263 -0.849416 0)
(2.34078 -0.849891 0)
(2.93164 -0.0360905 0)
(2.85134 -0.0493578 0)
(2.75724 -0.136583 0)
(2.66375 -0.252303 0)
(2.58398 -0.342926 0)
(2.49754 -0.444797 0)
(2.42244 -0.545759 0)
(2.35052 -0.626686 0)
(2.31218 -0.722846 0)
(2.25813 -0.799118 0)
(2.24968 -0.85673 0)
(2.28585 -0.884572 0)
(2.32769 -0.89859 0)
(2.33464 -0.891087 0)
(2.34291 -0.880605 0)
(2.34672 -0.865977 0)