/*--------------------------------*- C++ -*----------------------------------*\
  =========                 |
  \\      /  F ield         | OpenFOAM: The Open Source CFD Toolbox
   \\    /   O peration     | Website:  https://openfoam.org
    \\  /    A nd           | Version:  7
     \\/     M anipulation  |
\*---------------------------------------------------------------------------*/
FoamFile
{
    version     2.0;
    format      ascii;
    class       volVectorField;
    location    "3.4";
    object      U;
}
// * * * * * * * * * * * * * * * * * * * * * * * * * * * * * * * * * * * * * //

dimensions      [0 1 -1 0 0 0 0];

internalField   nonuniform List<vector> 
73728
(
(3 -7.16291e-18 0)
(3 -2.06416e-17 0)
(3 -2.34513e-17 0)
(3 -1.36883e-16 0)
(3 -3.8141e-16 0)
(3 -2.43753e-16 0)
(3 4.72318e-16 0)
(3 1.24348e-15 0)
(3 1.12564e-15 0)
(3 4.87029e-16 0)
(3 1.74351e-16 0)
(3 1.7689e-16 0)
(3 -2.61095e-16 0)
(3 -2.52226e-16 0)
(3 -1.19558e-16 0)
(3 4.51902e-16 0)
(3 3.37285e-16 0)
(3 5.58753e-16 0)
(3 1.241e-15 0)
(3 1.18562e-15 0)
(3 -1.99881e-16 0)
(3 -4.81889e-16 0)
(3 -9.42677e-16 0)
(3 -1.04827e-15 0)
(3 -1.02138e-15 0)
(3 -1.26889e-15 0)
(3 -1.17557e-15 0)
(3 -7.13381e-16 0)
(3 -4.8522e-16 0)
(3 -7.73237e-16 0)
(3 -8.2986e-16 0)
(3 1.12027e-16 0)
(3 9.21277e-16 0)
(3 4.56932e-16 0)
(3 -2.5375e-16 0)
(3 -3.49262e-16 0)
(3 -2.39744e-16 0)
(3 -2.7576e-16 0)
(3 -6.24408e-16 0)
(3 -4.94048e-16 0)
(3 6.02912e-16 0)
(3 8.44748e-16 0)
(3 9.15842e-16 0)
(3 1.05237e-15 0)
(3 6.09733e-16 0)
(3 2.52887e-16 0)
(3 -2.13372e-16 0)
(3 -7.67975e-16 0)
(3 -5.07099e-16 0)
(3 -2.37e-16 0)
(3 -4.32753e-16 0)
(3 -2.01467e-16 0)
(3 -4.09083e-16 0)
(3 -2.35522e-16 0)
(3 1.44844e-16 0)
(3 1.66321e-15 0)
(3 1.83394e-15 0)
(3 1.62735e-15 0)
(3 2.38673e-15 0)
(3 1.41138e-15 0)
(3 9.49512e-17 0)
(3 -4.38869e-17 0)
(3 -1.0966e-15 0)
(3 -9.04496e-16 0)
(3 -2.42161e-16 0)
(3 2.11711e-16 0)
(3 4.2831e-17 0)
(3 1.65428e-16 0)
(3 4.36129e-16 0)
(3 -9.84619e-18 0)
(3 -3.28922e-17 0)
(3 -9.61951e-17 0)
(3 -3.58897e-16 0)
(3 -1.58805e-16 0)
(3 -1.80344e-17 0)
(3 7.09189e-16 0)
(3 1.18552e-15 0)
(3 1.49908e-15 0)
(3 1.71528e-15 0)
(3 2.32723e-15 0)
(3 2.36315e-15 0)
(3 2.18971e-15 0)
(3 3.60426e-15 0)
(3 2.70945e-15 0)
(3 1.41171e-15 0)
(3 6.44398e-16 0)
(3 -3.54572e-17 0)
(3 9.13696e-16 0)
(3 1.62976e-15 0)
(3 1.96043e-15 0)
(3 5.83682e-16 0)
(3 -5.37722e-16 0)
(3 -8.79775e-16 0)
(3 -6.45047e-16 0)
(3 -1.8692e-16 0)
(3 -1.55319e-17 0)
(3 1.28392e-16 0)
(3 -2.2994e-16 0)
(3 -4.23485e-16 0)
(3 -5.8982e-16 0)
(3 -4.61364e-16 0)
(3 -2.87535e-17 0)
(3 1.62158e-15 0)
(3 3.20311e-15 0)
(3 3.1675e-15 0)
(3 2.47907e-15 0)
(3 1.30903e-15 0)
(3 9.14745e-16 0)
(3 -1.46241e-16 0)
(3 -8.5184e-16 0)
(3 -4.83339e-16 0)
(3 9.48781e-16 0)
(3 1.36898e-15 0)
(3 1.71632e-15 0)
(3 2.07671e-15 0)
(3 1.6834e-15 0)
(3 -6.06218e-16 0)
(3 -2.07441e-15 0)
(3 -2.95285e-15 0)
(3 -3.18668e-15 0)
(3 -2.91207e-15 0)
(3 -2.65504e-15 0)
(3 -2.016e-15 0)
(3 -7.6079e-17 0)
(3 6.18797e-16 0)
(3 -4.17274e-17 0)
(3 -5.92714e-16 0)
(3 -4.30262e-16 0)
(3 5.10555e-16 0)
(3 3.0002e-16 0)
(3 2.70108e-17 0)
(3 7.93049e-16 0)
(3 1.42201e-15 0)
(3 -4.58042e-16 0)
(3 -1.09418e-15 0)
(3 -8.60352e-16 0)
(3 -2.34182e-16 0)
(3 1.58044e-15 0)
(3 2.21683e-15 0)
(3 1.63072e-15 0)
(3 5.60264e-16 0)
(3 1.18359e-16 0)
(3 -3.22899e-16 0)
(3 -3.93781e-16 0)
(3 -2.89152e-16 0)
(3 4.00948e-17 0)
(3 4.71578e-16 0)
(3 9.84831e-16 0)
(3 8.04611e-16 0)
(3 6.66257e-16 0)
(3 4.49138e-16 0)
(3 7.56576e-16 0)
(3 2.59209e-15 0)
(3 2.78974e-15 0)
(3 2.84914e-15 0)
(3 2.7262e-15 0)
(3 8.68544e-16 0)
(3 9.8277e-16 0)
(3 3.23092e-16 0)
(3 -8.67457e-17 0)
(3 -3.09933e-16 0)
(3 -2.73152e-16 0)
(3 -5.42559e-16 0)
(3 -1.61784e-16 0)
(3 5.18866e-16 0)
(3 -1.83285e-17 0)
(3 -7.69446e-16 0)
(3 -1.17376e-15 0)
(3 -1.03829e-15 0)
(3 -3.76496e-16 0)
(3 2.07067e-16 0)
(3 1.32277e-15 0)
(3 1.54514e-15 0)
(3 1.12472e-15 0)
(3 1.33854e-15 0)
(3 3.19464e-15 0)
(3 4.81689e-15 0)
(3 5.08867e-15 0)
(3 4.89258e-15 0)
(3 3.56853e-15 0)
(3 8.8859e-16 0)
(3 -4.0406e-16 0)
(3 -1.69687e-15 0)
(3 7.07946e-18 0)
(3 2.25746e-15 0)
(3 2.91702e-15 0)
(3 1.26117e-15 0)
(3 -1.46353e-15 0)
(3 -1.56708e-15 0)
(3 -1.56806e-15 0)
(3 -3.92051e-16 0)
(3 -1.0107e-15 0)
(3 9.77574e-17 0)
(3 -2.41708e-16 0)
(3 -5.62347e-16 0)
(3 -9.91384e-16 0)
(3 -1.13601e-15 0)
(3 -5.55026e-16 0)
(3 -2.14991e-16 0)
(3 3.74675e-17 0)
(3 3.04824e-16 0)
(3 6.91056e-16 0)
(3 1.18819e-15 0)
(3 1.15228e-15 0)
(3 6.26986e-16 0)
(3 5.19587e-16 0)
(3 2.93426e-16 0)
(3 -1.04774e-16 0)
(3 -1.95673e-17 0)
(3 4.08711e-16 0)
(3 7.67311e-16 0)
(3 5.75725e-16 0)
(3 -8.77316e-16 0)
(3 -1.82272e-15 0)
(3 -3.0644e-15 0)
(3 -3.21746e-15 0)
(3 -3.44432e-15 0)
(3 -2.26118e-15 0)
(3 3.26968e-17 0)
(3 3.21602e-16 0)
(3 3.63879e-16 0)
(3 -6.18169e-17 0)
(3 -7.8396e-16 0)
(3 -2.37089e-15 0)
(3 -2.18726e-15 0)
(3 -1.43567e-15 0)
(3 -1.11635e-15 0)
(3 5.43312e-16 0)
(3 1.26115e-15 0)
(3 5.95222e-16 0)
(3 4.48551e-17 0)
(3 9.20716e-17 0)
(3 7.97101e-17 0)
(3 1.12208e-15 0)
(3 1.19308e-15 0)
(3 6.33047e-16 0)
(3 7.02017e-16 0)
(3 4.03521e-16 0)
(3 9.6382e-16 0)
(3 7.79779e-16 0)
(3 -2.33838e-16 0)
(3 -4.082e-16 0)
(3 -2.97399e-16 0)
(3 -5.65677e-16 0)
(3 -5.38577e-16 0)
(3 -1.3002e-16 0)
(3 9.59674e-17 0)
(3 1.15272e-15 0)
(3 1.28417e-15 0)
(3 2.96108e-15 0)
(3 3.40539e-15 0)
(3 3.95244e-15 0)
(3 3.30741e-15 0)
(3 3.16588e-15 0)
(3 3.48106e-15 0)
(3 2.68344e-15 0)
(3 2.20012e-15 0)
(3 1.36566e-15 0)
(3 1.04504e-15 0)
(3 4.962e-16 0)
(3 7.37632e-16 0)
(3 4.01291e-16 0)
(3 -2.42608e-16 0)
(3 -8.20129e-16 0)
(3 -9.74901e-16 0)
(3 -1.24715e-15 0)
(3 -6.56833e-16 0)
(3 -2.11676e-16 0)
(3 8.3803e-16 0)
(3 1.44171e-15 0)
(3 1.89684e-15 0)
(3 2.60407e-15 0)
(3 4.33085e-15 0)
(3 4.36129e-15 0)
(3 4.03044e-15 0)
(3 1.51871e-15 0)
(3 -9.31322e-16 0)
(3 -1.29552e-15 0)
(3 -1.40593e-15 0)
(3 7.48468e-16 0)
(3 1.49288e-15 0)
(3 1.095e-15 0)
(3 -1.22091e-15 0)
(3 -2.72558e-15 0)
(3 -3.45386e-15 0)
(3 -3.57485e-15 0)
(3 -2.15867e-15 0)
(3 -2.74757e-15 0)
(3 -1.15363e-16 0)
(3 -9.71903e-17 0)
(3 -7.74203e-17 0)
(3 -2.77384e-16 0)
(3 -5.95155e-16 0)
(3 -1.22748e-15 0)
(3 -1.39896e-15 0)
(3 -1.41116e-15 0)
(3 -2.00824e-15 0)
(3 -1.83063e-15 0)
(3 -1.81767e-16 0)
(3 2.90084e-16 0)
(3 4.94398e-16 0)
(3 8.13861e-16 0)
(3 7.99283e-16 0)
(3 1.90927e-16 0)
(3 -1.29283e-15 0)
(3 -1.20247e-15 0)
(3 -1.30488e-15 0)
(3 -1.57259e-15 0)
(3 -1.06173e-15 0)
(3 -9.63721e-16 0)
(3 -1.66433e-15 0)
(3 -1.02435e-15 0)
(3 -7.76372e-16 0)
(3 -9.22e-16 0)
(3 -4.85894e-16 0)
(3 -1.70759e-16 0)
(3 -7.56773e-16 0)
(3 -1.36135e-15 0)
(3 -1.54393e-15 0)
(3 -3.0655e-15 0)
(3 -2.93801e-15 0)
(3 -2.92192e-15 0)
(3 -1.68874e-15 0)
(3 -7.3515e-16 0)
(3 -5.92624e-16 0)
(3 -4.02901e-16 0)
(3 -1.62195e-16 0)
(3 -4.13218e-17 0)
(3 -2.135e-16 0)
(3 -5.08903e-16 0)
(3 -1.08158e-15 0)
(3 -9.72014e-16 0)
(3 1.52226e-16 0)
(3 7.63764e-16 0)
(3 1.2095e-15 0)
(3 9.49953e-16 0)
(3 3.84454e-16 0)
(3 3.71319e-16 0)
(3 3.2549e-16 0)
(3 -5.56762e-16 0)
(3 -6.1424e-16 0)
(3 -2.28388e-16 0)
(3 8.3363e-17 0)
(3 1.32161e-15 0)
(3 1.19486e-15 0)
(3 2.16171e-15 0)
(3 3.10016e-15 0)
(3 3.56616e-15 0)
(3 3.33939e-15 0)
(3 3.1071e-15 0)
(3 3.58357e-15 0)
(3 2.51636e-15 0)
(3 1.87348e-15 0)
(3 1.10823e-15 0)
(3 7.31126e-16 0)
(3 -3.97956e-16 0)
(3 -1.30178e-15 0)
(3 -8.64158e-16 0)
(3 -1.10341e-15 0)
(3 -1.01367e-15 0)
(3 -9.0669e-16 0)
(3 -9.55036e-16 0)
(3 -9.72411e-16 0)
(3 -1.26904e-15 0)
(3 -1.02477e-15 0)
(3 -1.35473e-16 0)
(3 4.3597e-16 0)
(3 5.09036e-16 0)
(3 9.92954e-16 0)
(3 2.18042e-15 0)
(3 3.79238e-15 0)
(3 3.02613e-15 0)
(3 1.45509e-15 0)
(3 1.20559e-15 0)
(3 1.88025e-15 0)
(3 3.12264e-15 0)
(3 2.4829e-15 0)
(3 8.85058e-16 0)
(3 1.49593e-16 0)
(3 -1.00563e-15 0)
(3 -2.56726e-15 0)
(3 -2.44252e-15 0)
(3 -1.71495e-15 0)
(3 -1.35686e-15 0)
(3 1.1291e-16 0)
(3 4.54422e-16 0)
(3 9.71745e-16 0)
(3 7.49294e-16 0)
(3 7.0836e-16 0)
(3 -2.02646e-17 0)
(3 -2.83848e-16 0)
(3 -7.83493e-16 0)
(3 -1.35815e-15 0)
(3 -1.05288e-15 0)
(3 -4.77817e-16 0)
(3 -9.10202e-17 0)
(3 1.1235e-16 0)
(3 -1.87072e-16 0)
(3 -6.09362e-17 0)
(3 3.92986e-16 0)
(3 3.22029e-17 0)
(3 -3.26419e-16 0)
(3 -1.24701e-15 0)
(3 -1.11584e-15 0)
(3 2.92166e-16 0)
(3 1.83752e-18 0)
(3 2.79079e-18 0)
(3 2.56649e-16 0)
(3 7.16379e-16 0)
(3 7.68107e-17 0)
(3 -5.63335e-16 0)
(3 -6.60531e-16 0)
(3 -1.37524e-15 0)
(3 -2.36639e-15 0)
(3 -2.35436e-15 0)
(3 -3.13453e-15 0)
(3 -2.98485e-15 0)
(3 -2.22677e-15 0)
(3 -5.11393e-16 0)
(3 -1.78739e-16 0)
(3 -7.15672e-16 0)
(3 -1.29877e-15 0)
(3 -1.52921e-15 0)
(3 -1.54216e-15 0)
(3 -1.37157e-15 0)
(3 -1.33888e-15 0)
(3 -1.41346e-15 0)
(3 -1.34274e-15 0)
(3 -8.7749e-16 0)
(3 6.69441e-16 0)
(3 7.64852e-16 0)
(3 1.00904e-15 0)
(3 1.1793e-15 0)
(3 4.30975e-16 0)
(3 -6.73198e-17 0)
(3 -8.49866e-16 0)
(3 -1.59335e-16 0)
(3 -7.89532e-17 0)
(3 -1.15442e-16 0)
(3 -6.87797e-17 0)
(3 7.28958e-16 0)
(3 9.84485e-16 0)
(3 1.96888e-15 0)
(3 2.65253e-15 0)
(3 2.66791e-15 0)
(3 2.39408e-15 0)
(3 1.48442e-15 0)
(3 1.06733e-15 0)
(3 9.6072e-16 0)
(3 1.12615e-15 0)
(3 1.39981e-15 0)
(3 1.98006e-15 0)
(3 2.43441e-15 0)
(3 2.08715e-15 0)
(3 1.24263e-15 0)
(3 4.75015e-16 0)
(3 7.87241e-16 0)
(3 1.09304e-15 0)
(3 5.62856e-16 0)
(3 -3.75735e-17 0)
(3 -1.27107e-15 0)
(3 -1.44008e-15 0)
(3 -5.23506e-16 0)
(3 -2.5936e-16 0)
(3 1.61785e-15 0)
(3 3.08063e-15 0)
(3 4.11667e-15 0)
(3 3.95024e-15 0)
(3 2.78968e-15 0)
(3 2.49298e-15 0)
(3 3.00755e-15 0)
(3 3.42668e-15 0)
(3 2.72376e-15 0)
(3 2.28327e-15 0)
(3 2.28525e-15 0)
(3 1.19116e-15 0)
(3 -7.61127e-17 0)
(3 -1.76938e-16 0)
(3 -6.84453e-16 0)
(3 -1.45067e-15 0)
(3 5.9512e-17 0)
(3 1.71642e-17 0)
(3 -1.05772e-16 0)
(3 2.29198e-16 0)
(3 -1.15836e-16 0)
(3 -3.43107e-16 0)
(3 -5.51344e-16 0)
(3 -1.24735e-15 0)
(3 -7.68498e-16 0)
(3 -3.26518e-16 0)
(3 -2.0365e-16 0)
(3 -7.13214e-17 0)
(3 2.98998e-16 0)
(3 2.38897e-16 0)
(3 4.00129e-16 0)
(3 9.15047e-16 0)
(3 1.17049e-15 0)
(3 7.65397e-16 0)
(3 7.67571e-17 0)
(3 7.62356e-16 0)
(3 1.69505e-15 0)
(3 1.69614e-15 0)
(3 1.86882e-15 0)
(3 1.91604e-15 0)
(3 1.66075e-15 0)
(3 1.79562e-15 0)
(3 2.74509e-16 0)
(3 -7.50159e-16 0)
(3 -2.22916e-15 0)
(3 -3.54591e-15 0)
(3 -3.56436e-15 0)
(3 -2.9022e-15 0)
(3 -2.77228e-15 0)
(3 -1.91484e-15 0)
(3 -1.36414e-15 0)
(3 -9.86012e-16 0)
(3 2.94112e-16 0)
(3 1.88247e-16 0)
(3 -2.39343e-16 0)
(3 -6.16416e-16 0)
(3 6.96998e-17 0)
(3 -3.89794e-16 0)
(3 -1.75286e-15 0)
(3 -2.41024e-15 0)
(3 -2.16374e-15 0)
(3 -2.2648e-15 0)
(3 -1.61135e-15 0)
(3 -7.23373e-16 0)
(3 -1.11779e-16 0)
(3 -9.00198e-17 0)
(3 -5.11658e-17 0)
(3 3.06176e-16 0)
(3 1.21632e-16 0)
(3 4.41057e-17 0)
(3 -4.98576e-17 0)
(3 -4.49676e-16 0)
(3 -3.08751e-16 0)
(3 -1.82163e-16 0)
(3 -4.76178e-16 0)
(3 -3.80413e-16 0)
(3 -9.90731e-17 0)
(3 -4.12855e-16 0)
(3 -2.03622e-15 0)
(3 -1.08728e-15 0)
(3 -3.69981e-16 0)
(3 6.04092e-16 0)
(3 7.42418e-16 0)
(3 2.24624e-15 0)
(3 2.97392e-15 0)
(3 2.77018e-15 0)
(3 1.86383e-15 0)
(3 6.7788e-16 0)
(3 8.60483e-16 0)
(3 9.85113e-16 0)
(3 1.03274e-15 0)
(3 5.75271e-16 0)
(3 1.46202e-16 0)
(3 -5.63118e-16 0)
(3 -1.31173e-16 0)
(3 1.46359e-15 0)
(3 2.14325e-15 0)
(3 1.90579e-15 0)
(3 3.13184e-15 0)
(3 2.16141e-15 0)
(3 -2.31826e-16 0)
(3 -5.07778e-16 0)
(3 -2.20363e-16 0)
(3 1.87858e-16 0)
(3 5.60951e-16 0)
(3 1.66086e-15 0)
(3 1.2732e-15 0)
(3 1.15807e-15 0)
(3 -7.0541e-17 0)
(3 -2.11874e-15 0)
(3 -2.18594e-15 0)
(3 -1.97569e-15 0)
(3 5.62397e-17 0)
(3 3.23128e-17 0)
(3 -8.94983e-18 0)
(3 2.18757e-16 0)
(3 2.85549e-17 0)
(3 -4.71712e-16 0)
(3 -1.66597e-15 0)
(3 -1.73199e-15 0)
(3 -1.15474e-15 0)
(3 -8.1723e-16 0)
(3 -1.49956e-16 0)
(3 2.14809e-16 0)
(3 1.26405e-15 0)
(3 1.9801e-15 0)
(3 2.04002e-15 0)
(3 1.80907e-15 0)
(3 2.01123e-15 0)
(3 1.0671e-15 0)
(3 4.51663e-16 0)
(3 5.65738e-16 0)
(3 9.71622e-16 0)
(3 1.46912e-15 0)
(3 2.55505e-15 0)
(3 3.02285e-15 0)
(3 2.13277e-15 0)
(3 1.42809e-15 0)
(3 7.01518e-16 0)
(3 -4.23253e-16 0)
(3 -1.12817e-15 0)
(3 -1.56981e-15 0)
(3 -1.84566e-15 0)
(3 -6.63777e-16 0)
(3 3.88661e-16 0)
(3 -1.05076e-16 0)
(3 -3.79948e-16 0)
(3 9.9945e-17 0)
(3 4.26813e-16 0)
(3 4.17423e-16 0)
(3 8.74091e-16 0)
(3 7.30498e-16 0)
(3 6.3179e-16 0)
(3 -8.46813e-16 0)
(3 -1.62988e-15 0)
(3 -1.66574e-15 0)
(3 -1.90117e-15 0)
(3 -3.46254e-15 0)
(3 -3.29521e-15 0)
(3 -2.48385e-15 0)
(3 -1.71159e-15 0)
(3 -1.01568e-15 0)
(3 -2.96842e-16 0)
(3 1.26418e-15 0)
(3 1.59423e-15 0)
(3 1.4035e-15 0)
(3 9.91716e-16 0)
(3 4.50247e-16 0)
(3 -1.66739e-15 0)
(3 -1.98687e-15 0)
(3 -1.89699e-15 0)
(3 -2.18619e-15 0)
(3 -2.25127e-15 0)
(3 -2.05319e-15 0)
(3 -1.25013e-15 0)
(3 -9.29642e-16 0)
(3 -7.51641e-16 0)
(3 -4.91254e-16 0)
(3 3.50808e-16 0)
(3 1.57199e-15 0)
(3 2.4698e-15 0)
(3 2.4424e-15 0)
(3 1.36428e-15 0)
(3 5.87082e-16 0)
(3 4.42537e-16 0)
(3 1.40104e-15 0)
(3 2.1834e-15 0)
(3 2.01232e-15 0)
(3 1.94225e-15 0)
(3 2.08857e-15 0)
(3 2.06227e-15 0)
(3 1.94525e-15 0)
(3 7.44318e-16 0)
(3 -3.04954e-16 0)
(3 -1.73795e-15 0)
(3 -1.371e-15 0)
(3 1.69597e-15 0)
(3 2.17959e-15 0)
(3 1.28081e-15 0)
(3 8.72087e-16 0)
(3 1.3392e-15 0)
(3 1.93386e-15 0)
(3 2.28992e-15 0)
(3 2.33479e-15 0)
(3 9.7091e-16 0)
(3 -7.81806e-16 0)
(3 -9.13173e-16 0)
(3 -5.97987e-17 0)
(3 -1.19874e-16 0)
(3 7.6365e-17 0)
(3 1.45322e-16 0)
(3 2.09014e-16 0)
(3 8.56108e-16 0)
(3 1.11909e-15 0)
(3 4.9522e-16 0)
(3 7.10091e-16 0)
(3 1.22149e-15 0)
(3 8.87584e-16 0)
(3 6.88859e-16 0)
(3 5.3291e-16 0)
(3 1.33168e-15 0)
(3 1.98158e-15 0)
(3 1.90926e-15 0)
(3 1.65383e-15 0)
(3 1.54871e-15 0)
(3 4.48871e-16 0)
(3 8.28439e-16 0)
(3 8.55328e-16 0)
(3 7.60838e-16 0)
(3 1.03626e-15 0)
(3 8.03263e-16 0)
(3 5.00879e-16 0)
(3 7.95281e-16 0)
(3 9.25184e-16 0)
(3 4.86234e-16 0)
(3 4.42835e-16 0)
(3 5.93239e-16 0)
(3 9.94227e-16 0)
(3 1.22571e-15 0)
(3 3.4043e-16 0)
(3 7.12231e-17 0)
(3 -1.27275e-16 0)
(3 -1.41001e-16 0)
(3 -5.30716e-16 0)
(3 -1.46603e-15 0)
(3 -1.84356e-15 0)
(3 -1.03169e-15 0)
(3 -4.04191e-16 0)
(3 -2.80371e-16 0)
(3 -5.66518e-17 0)
(3 2.99602e-17 0)
(3 -4.06069e-16 0)
(3 -1.16308e-15 0)
(3 -2.40266e-15 0)
(3 -2.53625e-15 0)
(3 -1.84063e-15 0)
(3 -1.11708e-15 0)
(3 -4.63728e-16 0)
(3 -5.2039e-16 0)
(3 -8.59619e-17 0)
(3 5.91871e-16 0)
(3 8.21132e-16 0)
(3 1.08747e-15 0)
(3 2.04424e-16 0)
(3 -4.63824e-16 0)
(3 -8.5163e-16 0)
(3 -5.21924e-16 0)
(3 -1.80808e-15 0)
(3 -3.71057e-15 0)
(3 -4.33234e-15 0)
(3 -3.12111e-15 0)
(3 -1.0643e-15 0)
(3 -4.87847e-16 0)
(3 -6.89676e-16 0)
(3 -9.92946e-16 0)
(3 -4.08488e-16 0)
(3 5.06648e-16 0)
(3 1.18446e-15 0)
(3 1.56995e-15 0)
(3 1.92523e-15 0)
(3 1.88471e-15 0)
(3 2.99758e-15 0)
(3 3.73899e-15 0)
(3 5.30625e-15 0)
(3 4.80395e-15 0)
(3 3.11278e-15 0)
(3 2.42816e-15 0)
(3 2.58295e-15 0)
(3 2.82978e-15 0)
(3 1.69286e-15 0)
(3 -6.03131e-16 0)
(3 -2.70174e-16 0)
(3 7.08834e-16 0)
(3 1.76486e-15 0)
(3 1.9517e-15 0)
(3 2.10383e-15 0)
(3 2.02562e-15 0)
(3 2.26843e-15 0)
(3 2.69847e-15 0)
(3 3.27734e-15 0)
(3 3.61897e-15 0)
(3 2.61913e-15 0)
(3 1.38251e-15 0)
(3 1.18167e-15 0)
(3 -3.40884e-17 0)
(3 -1.16523e-16 0)
(3 -5.82169e-16 0)
(3 -9.09079e-16 0)
(3 -6.6003e-16 0)
(3 7.30625e-16 0)
(3 1.4156e-15 0)
(3 2.13591e-15 0)
(3 2.04707e-15 0)
(3 1.9107e-15 0)
(3 1.88441e-15 0)
(3 1.82333e-15 0)
(3 1.78177e-15 0)
(3 7.36403e-16 0)
(3 8.09839e-17 0)
(3 -2.06568e-16 0)
(3 -1.09472e-16 0)
(3 1.31385e-15 0)
(3 2.02302e-15 0)
(3 2.0839e-15 0)
(3 2.21604e-15 0)
(3 9.17104e-16 0)
(3 -7.78663e-16 0)
(3 -1.88145e-15 0)
(3 -1.60142e-15 0)
(3 3.07614e-16 0)
(3 1.08244e-15 0)
(3 1.36519e-15 0)
(3 1.79539e-15 0)
(3 1.59749e-15 0)
(3 1.54314e-15 0)
(3 1.01562e-15 0)
(3 -3.86484e-16 0)
(3 -5.02843e-16 0)
(3 3.19122e-16 0)
(3 4.61237e-16 0)
(3 -1.83692e-16 0)
(3 -8.48426e-16 0)
(3 -1.27523e-15 0)
(3 -1.20775e-15 0)
(3 -9.89132e-16 0)
(3 -4.57111e-16 0)
(3 -4.07256e-16 0)
(3 -3.95966e-16 0)
(3 -3.34814e-16 0)
(3 4.33047e-16 0)
(3 -2.03931e-17 0)
(3 -5.81537e-17 0)
(3 1.30241e-16 0)
(3 4.62948e-16 0)
(3 -3.79185e-16 0)
(3 -9.93627e-16 0)
(3 -2.73982e-15 0)
(3 -3.16006e-15 0)
(3 -2.36995e-15 0)
(3 -4.71226e-16 0)
(3 -1.0444e-16 0)
(3 -3.89141e-17 0)
(3 3.84305e-17 0)
(3 -6.83427e-16 0)
(3 -2.11554e-15 0)
(3 -2.27944e-15 0)
(3 -1.96348e-15 0)
(3 -9.78536e-16 0)
(3 -5.86976e-16 0)
(3 9.38065e-18 0)
(3 1.253e-16 0)
(3 1.67281e-15 0)
(3 2.45379e-15 0)
(3 2.20949e-15 0)
(3 1.87515e-15 0)
(3 1.6006e-15 0)
(3 1.97781e-15 0)
(3 3.03119e-15 0)
(3 4.36671e-15 0)
(3 5.82372e-15 0)
(3 3.84308e-15 0)
(3 1.93034e-15 0)
(3 1.79135e-15 0)
(3 1.45069e-15 0)
(3 1.85972e-15 0)
(3 3.31902e-16 0)
(3 -3.68886e-16 0)
(3 3.14778e-16 0)
(3 7.83454e-16 0)
(3 8.87615e-16 0)
(3 1.265e-15 0)
(3 1.39708e-15 0)
(3 1.56366e-15 0)
(3 1.64765e-15 0)
(3 1.52879e-15 0)
(3 2.91069e-15 0)
(3 3.39675e-15 0)
(3 3.22311e-15 0)
(3 3.2233e-15 0)
(3 2.11794e-15 0)
(3 1.10022e-16 0)
(3 1.18166e-16 0)
(3 -1.00462e-17 0)
(3 -3.44309e-16 0)
(3 -4.20457e-16 0)
(3 1.86605e-16 0)
(3 6.10751e-16 0)
(3 1.86386e-16 0)
(3 3.12414e-17 0)
(3 3.07838e-16 0)
(3 7.66921e-16 0)
(3 1.66584e-15 0)
(3 1.79637e-15 0)
(3 8.75731e-16 0)
(3 7.85873e-16 0)
(3 5.81523e-16 0)
(3 1.12264e-16 0)
(3 4.423e-16 0)
(3 8.14733e-16 0)
(3 6.30917e-16 0)
(3 5.7591e-16 0)
(3 -2.8997e-16 0)
(3 -3.39422e-16 0)
(3 1.26865e-16 0)
(3 -6.60405e-16 0)
(3 -1.0696e-15 0)
(3 -8.31086e-16 0)
(3 -1.23889e-17 0)
(3 4.61338e-16 0)
(3 3.53731e-16 0)
(3 2.86966e-16 0)
(3 3.89861e-16 0)
(3 2.379e-16 0)
(3 -3.39796e-16 0)
(3 -6.79909e-16 0)
(3 -1.79511e-16 0)
(3 -1.60035e-15 0)
(3 -2.17527e-15 0)
(3 -2.36916e-15 0)
(3 -2.46441e-15 0)
(3 -3.1879e-15 0)
(3 -3.33991e-15 0)
(3 -1.9039e-15 0)
(3 -9.53953e-17 0)
(3 7.3865e-16 0)
(3 9.60835e-16 0)
(3 3.66638e-16 0)
(3 4.96515e-16 0)
(3 7.83913e-16 0)
(3 1.06396e-15 0)
(3 7.68521e-16 0)
(3 7.03688e-17 0)
(3 -1.35469e-15 0)
(3 -2.63336e-15 0)
(3 -2.6162e-15 0)
(3 -1.55847e-15 0)
(3 -1.01067e-15 0)
(3 -8.39819e-16 0)
(3 -4.54228e-16 0)
(3 -6.65018e-16 0)
(3 -6.16589e-16 0)
(3 -1.06633e-15 0)
(3 -1.56686e-15 0)
(3 -1.35823e-15 0)
(3 3.26512e-16 0)
(3 7.28901e-16 0)
(3 9.91485e-16 0)
(3 1.7838e-15 0)
(3 2.43521e-15 0)
(3 2.90695e-15 0)
(3 2.86413e-15 0)
(3 2.34285e-15 0)
(3 2.1604e-15 0)
(3 2.75141e-15 0)
(3 2.91281e-15 0)
(3 2.41166e-15 0)
(3 7.60017e-16 0)
(3 8.71266e-16 0)
(3 5.40448e-16 0)
(3 4.65209e-17 0)
(3 -3.33232e-16 0)
(3 5.53917e-17 0)
(3 2.97572e-16 0)
(3 1.11734e-15 0)
(3 2.50904e-15 0)
(3 2.85759e-15 0)
(3 2.62142e-15 0)
(3 2.2873e-15 0)
(3 2.12416e-15 0)
(3 2.46418e-15 0)
(3 2.51786e-15 0)
(3 1.54854e-15 0)
(3 1.35866e-15 0)
(3 2.24698e-15 0)
(3 3.32759e-15 0)
(3 2.88599e-15 0)
(3 -3.83376e-16 0)
(3 -2.42521e-16 0)
(3 1.05927e-16 0)
(3 6.20643e-16 0)
(3 1.30602e-15 0)
(3 1.24271e-15 0)
(3 7.05273e-16 0)
(3 -1.11626e-17 0)
(3 -2.60911e-16 0)
(3 -3.49873e-16 0)
(3 -3.00594e-16 0)
(3 -3.77694e-16 0)
(3 -1.32959e-16 0)
(3 -2.15551e-16 0)
(3 9.71991e-17 0)
(3 1.37302e-16 0)
(3 -3.30615e-16 0)
(3 -7.10662e-16 0)
(3 -3.9245e-16 0)
(3 -1.16237e-15 0)
(3 -1.64445e-15 0)
(3 -5.65709e-16 0)
(3 4.8249e-16 0)
(3 1.04984e-15 0)
(3 1.18844e-15 0)
(3 6.22418e-16 0)
(3 8.10681e-16 0)
(3 6.95866e-16 0)
(3 6.60652e-16 0)
(3 4.42792e-16 0)
(3 1.97085e-16 0)
(3 2.78649e-16 0)
(3 3.85143e-16 0)
(3 -3.87117e-17 0)
(3 -1.29064e-15 0)
(3 -2.14951e-15 0)
(3 -3.36978e-15 0)
(3 -3.8769e-15 0)
(3 -3.80742e-15 0)
(3 -3.24371e-15 0)
(3 -4.04554e-15 0)
(3 -3.27176e-15 0)
(3 -1.6566e-15 0)
(3 -1.95391e-16 0)
(3 6.60289e-16 0)
(3 6.23396e-16 0)
(3 9.46368e-17 0)
(3 5.98602e-16 0)
(3 1.28947e-15 0)
(3 1.43159e-15 0)
(3 1.24983e-15 0)
(3 1.16179e-15 0)
(3 -5.74584e-17 0)
(3 -8.91587e-16 0)
(3 -1.27047e-15 0)
(3 -1.82815e-15 0)
(3 -1.25298e-15 0)
(3 -9.83103e-16 0)
(3 -4.02404e-16 0)
(3 -7.36595e-16 0)
(3 -1.55547e-15 0)
(3 -2.36584e-15 0)
(3 -2.65194e-15 0)
(3 -2.56398e-15 0)
(3 -2.10548e-15 0)
(3 -7.14584e-16 0)
(3 -1.16625e-16 0)
(3 6.08392e-16 0)
(3 4.06012e-16 0)
(3 1.54032e-15 0)
(3 2.26575e-15 0)
(3 3.00098e-15 0)
(3 2.77501e-15 0)
(3 2.08469e-15 0)
(3 2.42001e-16 0)
(3 -8.9372e-16 0)
(3 9.57117e-16 0)
(3 1.4346e-15 0)
(3 3.64811e-16 0)
(3 1.72454e-16 0)
(3 -5.91167e-16 0)
(3 2.44059e-16 0)
(3 1.2951e-15 0)
(3 1.39496e-15 0)
(3 1.78467e-15 0)
(3 2.34697e-15 0)
(3 2.34138e-15 0)
(3 2.29828e-15 0)
(3 2.41764e-15 0)
(3 3.26359e-15 0)
(3 2.22418e-15 0)
(3 5.53685e-16 0)
(3 1.17543e-16 0)
(3 3.25206e-16 0)
(3 5.39802e-16 0)
(3 4.64828e-16 0)
(3 -2.97455e-17 0)
(3 -1.24037e-16 0)
(3 -2.86338e-16 0)
(3 -1.34718e-16 0)
(3 -1.72304e-16 0)
(3 -3.84903e-16 0)
(3 -5.14919e-16 0)
(3 7.40683e-16 0)
(3 6.58986e-16 0)
(3 5.51812e-16 0)
(3 7.84462e-17 0)
(3 -7.75085e-16 0)
(3 -8.02644e-16 0)
(3 -1.39534e-15 0)
(3 -1.59117e-15 0)
(3 -1.22953e-15 0)
(3 -8.42521e-16 0)
(3 4.05509e-16 0)
(3 3.01502e-16 0)
(3 4.44625e-16 0)
(3 8.30591e-16 0)
(3 8.50275e-16 0)
(3 1.5908e-15 0)
(3 2.83057e-15 0)
(3 3.26004e-15 0)
(3 3.19323e-15 0)
(3 3.08332e-15 0)
(3 1.45963e-15 0)
(3 1.51917e-15 0)
(3 2.1531e-15 0)
(3 1.89137e-15 0)
(3 1.61855e-15 0)
(3 1.67322e-15 0)
(3 1.24358e-15 0)
(3 -9.95848e-16 0)
(3 -2.6368e-15 0)
(3 -2.12637e-15 0)
(3 -7.55256e-16 0)
(3 -3.75087e-16 0)
(3 -1.29645e-15 0)
(3 -1.81459e-15 0)
(3 -1.98663e-15 0)
(3 -2.01847e-15 0)
(3 -1.60178e-15 0)
(3 -7.59129e-16 0)
(3 -6.73653e-16 0)
(3 5.27168e-16 0)
(3 7.67558e-16 0)
(3 8.75994e-16 0)
(3 2.23193e-16 0)
(3 -2.22778e-16 0)
(3 2.62164e-16 0)
(3 2.84165e-16 0)
(3 -1.09581e-15 0)
(3 -2.06385e-15 0)
(3 -2.66234e-15 0)
(3 -1.99342e-15 0)
(3 -9.3329e-16 0)
(3 -3.01247e-16 0)
(3 -1.09879e-15 0)
(3 -2.14283e-15 0)
(3 -2.2275e-15 0)
(3 -2.17073e-15 0)
(3 -1.95859e-15 0)
(3 -2.10036e-15 0)
(3 -1.31416e-15 0)
(3 -2.488e-16 0)
(3 4.7443e-17 0)
(3 -5.28162e-16 0)
(3 -7.96183e-16 0)
(3 4.0574e-16 0)
(3 1.14673e-15 0)
(3 2.36413e-15 0)
(3 1.64681e-15 0)
(3 6.75722e-16 0)
(3 -3.99139e-16 0)
(3 -4.07317e-16 0)
(3 2.2452e-16 0)
(3 1.23252e-15 0)
(3 -1.21039e-16 0)
(3 -1.4014e-15 0)
(3 -1.57199e-15 0)
(3 -9.88879e-16 0)
(3 -6.38832e-16 0)
(3 -6.83243e-16 0)
(3 -4.3618e-16 0)
(3 1.27513e-16 0)
(3 6.00312e-16 0)
(3 1.2585e-15 0)
(3 1.35574e-15 0)
(3 1.11002e-15 0)
(3 3.60074e-16 0)
(3 -6.90157e-16 0)
(3 -9.0231e-16 0)
(3 -1.64598e-15 0)
(3 -2.10002e-15 0)
(3 1.17401e-16 0)
(3 5.3368e-17 0)
(3 6.7804e-17 0)
(3 -3.03239e-16 0)
(3 -7.13925e-16 0)
(3 -9.51826e-17 0)
(3 -9.88527e-17 0)
(3 8.94531e-16 0)
(3 8.57296e-16 0)
(3 7.02605e-16 0)
(3 4.72666e-17 0)
(3 -1.2616e-16 0)
(3 2.80125e-17 0)
(3 -7.2304e-16 0)
(3 -1.40679e-15 0)
(3 -1.83972e-15 0)
(3 -1.23699e-15 0)
(3 -2.65146e-16 0)
(3 8.30095e-16 0)
(3 2.0972e-15 0)
(3 2.61863e-15 0)
(3 2.10983e-15 0)
(3 1.5532e-15 0)
(3 2.00187e-15 0)
(3 2.41709e-15 0)
(3 2.67033e-15 0)
(3 1.76862e-15 0)
(3 8.93815e-16 0)
(3 9.29809e-16 0)
(3 1.85965e-15 0)
(3 1.97516e-15 0)
(3 1.7569e-15 0)
(3 1.14815e-15 0)
(3 -5.33784e-16 0)
(3 -1.5182e-15 0)
(3 -1.90244e-15 0)
(3 -6.2416e-16 0)
(3 8.5367e-16 0)
(3 2.15355e-15 0)
(3 1.20355e-15 0)
(3 4.0227e-16 0)
(3 -2.44407e-16 0)
(3 -7.27379e-16 0)
(3 -1.69422e-16 0)
(3 2.28749e-16 0)
(3 5.24186e-16 0)
(3 7.38502e-16 0)
(3 -9.10328e-17 0)
(3 -3.7452e-16 0)
(3 -5.23122e-16 0)
(3 -7.93304e-16 0)
(3 -9.2812e-16 0)
(3 -1.28256e-15 0)
(3 -1.90389e-15 0)
(3 -2.7778e-15 0)
(3 -2.40142e-15 0)
(3 -2.03939e-15 0)
(3 -1.57001e-15 0)
(3 -1.29895e-15 0)
(3 -1.29966e-15 0)
(3 -1.59813e-15 0)
(3 -1.11195e-15 0)
(3 -6.2862e-16 0)
(3 -1.67728e-15 0)
(3 -1.93934e-15 0)
(3 -1.69752e-15 0)
(3 -1.18463e-15 0)
(3 -1.60505e-15 0)
(3 -1.70817e-15 0)
(3 -1.8386e-15 0)
(3 -8.54551e-16 0)
(3 -3.8426e-16 0)
(3 1.45253e-16 0)
(3 4.5785e-16 0)
(3 1.69989e-16 0)
(3 -9.67272e-16 0)
(3 -1.77576e-15 0)
(3 -2.16089e-15 0)
(3 -1.8327e-15 0)
(3 -3.21491e-15 0)
(3 -2.93727e-15 0)
(3 -2.43813e-15 0)
(3 -1.59848e-15 0)
(3 -8.77384e-16 0)
(3 -8.68366e-16 0)
(3 3.35264e-17 0)
(3 1.34314e-15 0)
(3 7.65396e-16 0)
(3 5.43808e-17 0)
(3 -1.68408e-16 0)
(3 -1.49915e-16 0)
(3 9.70535e-18 0)
(3 -1.28124e-16 0)
(3 2.75517e-16 0)
(3 -6.70586e-16 0)
(3 -1.52617e-15 0)
(3 7.10526e-17 0)
(3 5.74918e-16 0)
(3 6.90221e-16 0)
(3 6.02336e-16 0)
(3 3.00919e-16 0)
(3 8.95664e-16 0)
(3 8.00559e-16 0)
(3 4.11208e-16 0)
(3 4.88553e-16 0)
(3 5.39305e-16 0)
(3 3.23132e-16 0)
(3 2.03839e-16 0)
(3 -3.59288e-17 0)
(3 4.74158e-17 0)
(3 1.51642e-16 0)
(3 -7.84037e-16 0)
(3 -8.46198e-16 0)
(3 -5.0297e-16 0)
(3 3.03439e-16 0)
(3 7.31192e-16 0)
(3 5.09683e-16 0)
(3 4.92214e-16 0)
(3 7.98997e-16 0)
(3 1.07739e-15 0)
(3 5.33946e-16 0)
(3 7.6408e-16 0)
(3 1.25426e-15 0)
(3 1.28866e-15 0)
(3 1.05196e-15 0)
(3 9.93598e-16 0)
(3 1.43572e-15 0)
(3 8.85575e-16 0)
(3 2.90917e-16 0)
(3 -1.33498e-16 0)
(3 1.07044e-16 0)
(3 1.66198e-16 0)
(3 3.04081e-16 0)
(3 1.38599e-15 0)
(3 1.73434e-15 0)
(3 2.24108e-15 0)
(3 1.4818e-15 0)
(3 1.3501e-15 0)
(3 1.65914e-15 0)
(3 2.25163e-15 0)
(3 1.50299e-15 0)
(3 3.42633e-16 0)
(3 1.18458e-16 0)
(3 -3.47604e-16 0)
(3 -7.448e-16 0)
(3 -1.302e-15 0)
(3 -1.87526e-15 0)
(3 -2.8888e-15 0)
(3 -3.07822e-15 0)
(3 -2.50046e-15 0)
(3 -1.84594e-15 0)
(3 -1.64549e-15 0)
(3 -1.95394e-15 0)
(3 -2.11687e-15 0)
(3 -2.75499e-15 0)
(3 -2.11098e-15 0)
(3 -2.28276e-15 0)
(3 -2.13303e-15 0)
(3 -7.21635e-16 0)
(3 -1.02228e-15 0)
(3 -1.35241e-15 0)
(3 -1.84071e-15 0)
(3 -1.97816e-15 0)
(3 -1.93373e-15 0)
(3 -1.15475e-15 0)
(3 1.50682e-16 0)
(3 7.13035e-16 0)
(3 6.26238e-16 0)
(3 2.63291e-16 0)
(3 -3.06786e-16 0)
(3 -2.5756e-16 0)
(3 -3.56791e-16 0)
(3 -4.73712e-16 0)
(3 -8.79881e-16 0)
(3 -1.62376e-15 0)
(3 -1.78464e-15 0)
(3 -1.73988e-15 0)
(3 -1.97432e-15 0)
(3 -2.51899e-15 0)
(3 -2.60853e-15 0)
(3 -2.33957e-15 0)
(3 -1.32649e-15 0)
(3 1.77474e-16 0)
(3 -1.85771e-16 0)
(3 -1.41953e-15 0)
(3 -1.54716e-15 0)
(3 -1.00407e-15 0)
(3 -7.65031e-17 0)
(3 1.03288e-15 0)
(3 1.38108e-15 0)
(3 1.24322e-15 0)
(3 6.17331e-16 0)
(3 -2.50033e-17 0)
(3 -1.44726e-16 0)
(3 -1.04792e-16 0)
(3 5.49038e-16 0)
(3 3.45342e-16 0)
(3 7.07708e-17 0)
(3 3.14217e-16 0)
(3 2.31132e-16 0)
(3 1.11929e-16 0)
(3 2.05128e-16 0)
(3 6.20122e-16 0)
(3 6.30282e-16 0)
(3 2.94262e-16 0)
(3 8.8611e-16 0)
(3 1.33501e-15 0)
(3 1.10136e-15 0)
(3 8.85137e-16 0)
(3 3.19507e-16 0)
(3 3.28319e-17 0)
(3 -4.78529e-16 0)
(3 -5.86599e-16 0)
(3 -1.76825e-16 0)
(3 1.13281e-15 0)
(3 1.06047e-15 0)
(3 3.5542e-16 0)
(3 4.6825e-16 0)
(3 7.77681e-16 0)
(3 1.68094e-15 0)
(3 1.44993e-15 0)
(3 6.20261e-16 0)
(3 4.2123e-16 0)
(3 2.87356e-16 0)
(3 9.00481e-16 0)
(3 2.18292e-15 0)
(3 2.88312e-15 0)
(3 2.54369e-15 0)
(3 1.95388e-15 0)
(3 1.76726e-15 0)
(3 1.39008e-15 0)
(3 1.81425e-15 0)
(3 2.27102e-15 0)
(3 3.15732e-15 0)
(3 2.25555e-15 0)
(3 7.61e-16 0)
(3 5.25656e-16 0)
(3 1.73785e-16 0)
(3 6.02821e-16 0)
(3 2.50369e-16 0)
(3 -7.04183e-16 0)
(3 -1.89074e-15 0)
(3 -1.92295e-15 0)
(3 -2.14621e-15 0)
(3 -2.05628e-15 0)
(3 -2.15588e-15 0)
(3 -1.54952e-15 0)
(3 -1.54235e-15 0)
(3 -1.21965e-15 0)
(3 -1.79957e-15 0)
(3 -2.59368e-15 0)
(3 -1.79164e-15 0)
(3 -7.68243e-16 0)
(3 -1.25627e-15 0)
(3 -1.33365e-15 0)
(3 -1.35962e-15 0)
(3 -1.03605e-15 0)
(3 -7.51878e-16 0)
(3 -1.21267e-15 0)
(3 -1.2431e-15 0)
(3 1.62955e-17 0)
(3 1.38499e-15 0)
(3 1.96843e-15 0)
(3 1.64991e-15 0)
(3 1.60641e-16 0)
(3 -9.86225e-16 0)
(3 -4.99733e-16 0)
(3 3.68786e-17 0)
(3 -1.30002e-17 0)
(3 -5.3268e-16 0)
(3 -5.85411e-16 0)
(3 -4.71089e-16 0)
(3 -6.48168e-16 0)
(3 -1.19361e-15 0)
(3 -1.73514e-15 0)
(3 -2.70259e-15 0)
(3 -3.13706e-15 0)
(3 -3.50046e-15 0)
(3 -3.30839e-15 0)
(3 -2.58275e-15 0)
(3 -2.25484e-15 0)
(3 -2.03213e-15 0)
(3 -1.06855e-15 0)
(3 -3.45937e-17 0)
(3 3.46444e-16 0)
(3 3.39549e-16 0)
(3 5.89044e-16 0)
(3 1.09795e-15 0)
(3 -2.62262e-16 0)
(3 -4.84592e-16 0)
(3 -3.23262e-17 0)
(3 3.33358e-16 0)
(3 8.7677e-18 0)
(3 -2.86405e-16 0)
(3 -5.27896e-16 0)
(3 -5.28557e-16 0)
(3 -6.01835e-16 0)
(3 -5.28123e-16 0)
(3 -5.06828e-17 0)
(3 4.79992e-16 0)
(3 1.8586e-16 0)
(3 3.7771e-16 0)
(3 9.28187e-16 0)
(3 1.17553e-15 0)
(3 8.29655e-16 0)
(3 8.65343e-16 0)
(3 8.6494e-16 0)
(3 5.51554e-16 0)
(3 -3.22045e-16 0)
(3 -6.35823e-18 0)
(3 7.56324e-16 0)
(3 7.72793e-16 0)
(3 7.35821e-16 0)
(3 2.67017e-16 0)
(3 3.02454e-16 0)
(3 9.51317e-16 0)
(3 1.12483e-15 0)
(3 3.36868e-16 0)
(3 -4.43032e-16 0)
(3 1.54863e-16 0)
(3 1.22245e-15 0)
(3 2.01843e-15 0)
(3 1.90887e-15 0)
(3 2.23223e-15 0)
(3 2.3971e-15 0)
(3 1.82478e-15 0)
(3 1.29474e-15 0)
(3 8.65802e-16 0)
(3 1.64285e-15 0)
(3 9.33318e-16 0)
(3 4.09071e-16 0)
(3 -5.4828e-16 0)
(3 -2.06069e-15 0)
(3 -2.01781e-15 0)
(3 -1.62832e-15 0)
(3 -1.62833e-15 0)
(3 -1.7638e-15 0)
(3 -1.72256e-15 0)
(3 -9.63627e-16 0)
(3 -1.58284e-15 0)
(3 -1.18115e-15 0)
(3 -6.22663e-16 0)
(3 -3.31552e-16 0)
(3 1.35146e-17 0)
(3 7.6566e-16 0)
(3 6.15874e-16 0)
(3 7.93032e-16 0)
(3 1.09409e-15 0)
(3 1.42363e-16 0)
(3 -1.2175e-15 0)
(3 -2.16927e-15 0)
(3 -1.47638e-15 0)
(3 3.80499e-16 0)
(3 1.9552e-15 0)
(3 3.01118e-15 0)
(3 3.3089e-15 0)
(3 3.09192e-15 0)
(3 2.97093e-15 0)
(3 2.87898e-15 0)
(3 1.74662e-15 0)
(3 7.80112e-16 0)
(3 3.71195e-16 0)
(3 5.25804e-16 0)
(3 4.48467e-17 0)
(3 -2.84258e-17 0)
(3 -8.5085e-16 0)
(3 -1.4638e-15 0)
(3 -1.35161e-15 0)
(3 -1.31863e-15 0)
(3 -7.73324e-16 0)
(3 -7.62484e-16 0)
(3 -9.63339e-16 0)
(3 -1.59478e-15 0)
(3 -2.63387e-15 0)
(3 -3.2451e-15 0)
(3 -4.13448e-15 0)
(3 -3.13568e-15 0)
(3 -2.3259e-15 0)
(3 -1.70562e-15 0)
(3 -2.17139e-15 0)
(3 -1.97529e-15 0)
(3 -1.4304e-15 0)
(3 3.98062e-16 0)
(3 1.26741e-15 0)
(3 -4.43942e-17 0)
(3 2.71204e-16 0)
(3 4.94248e-16 0)
(3 5.74282e-16 0)
(3 3.55501e-16 0)
(3 -2.17325e-16 0)
(3 -1.35849e-15 0)
(3 -1.8088e-15 0)
(3 -1.953e-15 0)
(3 -1.70262e-15 0)
(3 -1.29558e-15 0)
(3 -1.1502e-15 0)
(3 -1.39643e-15 0)
(3 -1.33318e-15 0)
(3 -6.93323e-16 0)
(3 3.79821e-16 0)
(3 5.01348e-16 0)
(3 3.67335e-16 0)
(3 1.41732e-16 0)
(3 -1.68944e-16 0)
(3 -1.18199e-16 0)
(3 3.52597e-16 0)
(3 5.75201e-16 0)
(3 4.8648e-16 0)
(3 2.60784e-16 0)
(3 -4.63921e-17 0)
(3 -5.57916e-16 0)
(3 -4.14916e-16 0)
(3 -8.74388e-16 0)
(3 -1.21292e-15 0)
(3 -1.33139e-15 0)
(3 -2.14309e-16 0)
(3 8.98414e-16 0)
(3 1.56363e-15 0)
(3 1.83536e-15 0)
(3 2.54117e-15 0)
(3 2.38019e-15 0)
(3 2.42422e-15 0)
(3 2.68495e-16 0)
(3 -9.86001e-16 0)
(3 -1.09438e-15 0)
(3 -9.33014e-16 0)
(3 -4.41879e-16 0)
(3 -2.06436e-16 0)
(3 -1.48074e-15 0)
(3 -2.92725e-15 0)
(3 -3.29471e-15 0)
(3 -2.60934e-15 0)
(3 -1.629e-15 0)
(3 -9.3973e-16 0)
(3 -9.83685e-16 0)
(3 -1.34533e-15 0)
(3 -9.88569e-16 0)
(3 7.00953e-16 0)
(3 1.17481e-15 0)
(3 1.18255e-15 0)
(3 5.73569e-16 0)
(3 4.86943e-16 0)
(3 1.04301e-15 0)
(3 1.25751e-15 0)
(3 8.04022e-16 0)