/*--------------------------------*- C++ -*----------------------------------*\
  =========                 |
  \\      /  F ield         | OpenFOAM: The Open Source CFD Toolbox
   \\    /   O peration     | Website:  https://openfoam.org
    \\  /    A nd           | Version:  7
     \\/     M anipulation  |
\*---------------------------------------------------------------------------*/
FoamFile
{
    version     2.0;
    format      ascii;
    class       volVectorField;
    location    "0.2";
    object      U;
}
// * * * * * * * * * * * * * * * * * * * * * * * * * * * * * * * * * * * * * //

dimensions      [0 1 -1 0 0 0 0];

internalField   nonuniform List<vector> 
18432
(
(3 -1.42528e-16 0)
(3 2.59171e-16 0)
(3 -2.7532e-16 0)
(3 -4.79787e-16 0)
(3 -4.49507e-16 0)
(3 -4.15926e-16 0)
(3 -2.63197e-16 0)
(3 -3.7151e-16 0)
(3 -3.16233e-16 0)
(3 1.50304e-16 0)
(3 9.54835e-18 0)
(3 -7.6664e-17 0)
(3 -1.92067e-16 0)
(3 -3.39646e-16 0)
(3 -4.21513e-16 0)
(3 -1.23028e-16 0)
(3 2.7751e-16 0)
(3 5.48156e-16 0)
(3 7.69383e-16 0)
(3 4.76517e-16 0)
(3 4.54247e-16 0)
(3 5.18207e-16 0)
(3 1.44803e-15 0)
(3 1.9895e-15 0)
(3 2.18553e-15 0)
(3 1.98422e-15 0)
(3 1.06297e-15 0)
(3 -3.01091e-16 0)
(3 -7.44144e-16 0)
(3 -8.92423e-16 0)
(3 -5.03761e-16 0)
(3 -4.91723e-16 0)
(3 -4.4328e-16 0)
(3 1.50871e-15 0)
(3 2.63951e-15 0)
(3 1.96376e-15 0)
(3 1.52108e-15 0)
(3 1.97993e-15 0)
(3 5.06688e-16 0)
(3 -1.80145e-15 0)
(3 -2.05198e-15 0)
(3 -9.90492e-16 0)
(3 -4.16187e-17 0)
(3 -1.68142e-15 0)
(3 -3.86419e-15 0)
(3 -1.03584e-15 0)
(3 1.13905e-15 0)
(3 1.65081e-15 0)
(3 -3.71065e-17 0)
(3 6.58799e-16 0)
(3 1.05234e-16 0)
(3 3.17149e-17 0)
(3 -8.86396e-17 0)
(3 -9.1225e-17 0)
(3 3.74223e-17 0)
(3 -4.34084e-16 0)
(3 -4.06257e-16 0)
(3 -2.2603e-16 0)
(3 -6.64349e-16 0)
(3 -6.21499e-16 0)
(3 -7.67076e-16 0)
(3 -6.82199e-16 0)
(3 -1.18757e-16 0)
(3 2.61487e-16 0)
(3 5.18604e-16 0)
(3 6.41447e-16 0)
(3 7.46145e-16 0)
(3 6.57773e-16 0)
(3 -1.5136e-16 0)
(3 1.30194e-16 0)
(3 1.29734e-15 0)
(3 1.9304e-15 0)
(3 2.41355e-15 0)
(3 2.41367e-15 0)
(3 1.73375e-15 0)
(3 6.90779e-16 0)
(3 2.38302e-16 0)
(3 -1.04969e-16 0)
(3 -1.65458e-16 0)
(3 1.64422e-16 0)
(3 6.93684e-16 0)
(3 1.22615e-15 0)
(3 1.06875e-15 0)
(3 -2.90891e-15 0)
(3 -2.13954e-15 0)
(3 -3.4589e-15 0)
(3 -3.86118e-15 0)
(3 -3.75046e-15 0)
(3 -3.04762e-15 0)
(3 -1.90887e-15 0)
(3 -9.62056e-16 0)
(3 -2.56869e-15 0)
(3 -4.0097e-15 0)
(3 -2.71845e-15 0)
(3 2.06247e-15 0)
(3 3.75649e-15 0)
(3 2.57863e-17 0)
(3 -1.11955e-17 0)
(3 -7.95202e-18 0)
(3 -2.68645e-16 0)
(3 -6.54522e-16 0)
(3 -7.00054e-16 0)
(3 -1.09529e-15 0)
(3 -7.05555e-16 0)
(3 -5.7647e-16 0)
(3 -7.54604e-16 0)
(3 -5.67625e-16 0)
(3 -5.52221e-16 0)
(3 -5.25656e-16 0)
(3 -3.77906e-16 0)
(3 8.37987e-16 0)
(3 1.20259e-15 0)
(3 9.30097e-16 0)
(3 7.75092e-16 0)
(3 7.19343e-16 0)
(3 1.14895e-15 0)
(3 1.67876e-15 0)
(3 2.4644e-15 0)
(3 2.74649e-15 0)
(3 2.63763e-15 0)
(3 2.2847e-15 0)
(3 2.69869e-15 0)
(3 3.48078e-15 0)
(3 4.56066e-15 0)
(3 4.8307e-15 0)
(3 4.22923e-15 0)
(3 3.2433e-15 0)
(3 3.06551e-15 0)
(3 2.97215e-15 0)
(3 3.00496e-15 0)
(3 2.04073e-15 0)
(3 -8.05345e-16 0)
(3 -2.87344e-15 0)
(3 -5.94313e-15 0)
(3 -7.24033e-15 0)
(3 -6.48099e-15 0)
(3 -6.02327e-15 0)
(3 -5.16348e-15 0)
(3 -4.45316e-15 0)
(3 -4.24181e-15 0)
(3 -3.30591e-15 0)
(3 -1.95205e-15 0)
(3 9.4288e-16 0)
(3 4.27383e-15 0)
(3 1.64124e-16 0)
(3 -4.13946e-17 0)
(3 -8.06823e-17 0)
(3 -5.79611e-16 0)
(3 -1.0512e-15 0)
(3 -1.55706e-15 0)
(3 -8.53638e-16 0)
(3 -8.77668e-16 0)
(3 -7.93799e-16 0)
(3 -2.02245e-16 0)
(3 4.25558e-16 0)
(3 9.55684e-17 0)
(3 -1.12936e-16 0)
(3 -1.07229e-16 0)
(3 5.21043e-16 0)
(3 5.70901e-16 0)
(3 3.75135e-16 0)
(3 1.77693e-16 0)
(3 7.69116e-16 0)
(3 8.34468e-16 0)
(3 1.23452e-15 0)
(3 1.90264e-15 0)
(3 2.25733e-15 0)
(3 2.07589e-15 0)
(3 1.61559e-15 0)
(3 1.16676e-15 0)
(3 2.05143e-15 0)
(3 4.27487e-15 0)
(3 5.26679e-15 0)
(3 5.56767e-15 0)
(3 5.61288e-15 0)
(3 5.16199e-15 0)
(3 5.7513e-15 0)
(3 6.39417e-15 0)
(3 4.53511e-15 0)
(3 1.89997e-15 0)
(3 1.04047e-15 0)
(3 -1.80991e-15 0)
(3 -3.82348e-15 0)
(3 -5.59327e-15 0)
(3 -5.69903e-15 0)
(3 -6.0675e-15 0)
(3 -5.30797e-15 0)
(3 -5.29077e-15 0)
(3 -4.29074e-15 0)
(3 -3.19045e-15 0)
(3 2.84818e-16 0)
(3 1.80555e-15 0)
(3 5.64621e-16 0)
(3 6.2155e-16 0)
(3 7.4205e-16 0)
(3 7.1637e-16 0)
(3 3.21611e-16 0)
(3 -2.02273e-16 0)
(3 -2.63484e-16 0)
(3 -4.22557e-16 0)
(3 1.34498e-17 0)
(3 5.03025e-16 0)
(3 5.67755e-16 0)
(3 4.7655e-16 0)
(3 2.28762e-16 0)
(3 2.75328e-16 0)
(3 1.52066e-16 0)
(3 1.31138e-16 0)
(3 1.73945e-16 0)
(3 1.61313e-16 0)
(3 5.32494e-16 0)
(3 1.09654e-15 0)
(3 1.29724e-15 0)
(3 1.57008e-15 0)
(3 1.55712e-15 0)
(3 1.10935e-15 0)
(3 8.48877e-16 0)
(3 -1.70838e-16 0)
(3 -1.76547e-15 0)
(3 2.60854e-16 0)
(3 2.73573e-15 0)
(3 3.24416e-15 0)
(3 3.16625e-15 0)
(3 2.91652e-15 0)
(3 2.71753e-15 0)
(3 2.55217e-15 0)
(3 1.28557e-15 0)
(3 9.50302e-16 0)
(3 5.92914e-16 0)
(3 2.45282e-16 0)
(3 -8.64366e-16 0)
(3 -3.43465e-15 0)
(3 -4.3816e-15 0)
(3 -5.91263e-15 0)
(3 -4.73248e-15 0)
(3 -2.62266e-15 0)
(3 -2.12043e-15 0)
(3 -2.10284e-15 0)
(3 -1.96273e-15 0)
(3 -1.45106e-15 0)
(3 4.01383e-17 0)
(3 2.01651e-16 0)
(3 2.22993e-16 0)
(3 1.71962e-16 0)
(3 -1.17182e-16 0)
(3 3.3985e-16 0)
(3 3.48303e-16 0)
(3 4.01554e-16 0)
(3 7.97428e-16 0)
(3 6.85611e-16 0)
(3 4.22722e-16 0)
(3 6.34693e-16 0)
(3 5.85244e-16 0)
(3 9.36697e-16 0)
(3 1.017e-15 0)
(3 9.57389e-16 0)
(3 7.20201e-16 0)
(3 5.39102e-16 0)
(3 5.2843e-16 0)
(3 4.26184e-16 0)
(3 1.89948e-16 0)
(3 1.43613e-16 0)
(3 -1.77604e-16 0)
(3 6.53763e-17 0)
(3 5.12353e-16 0)
(3 -7.71029e-16 0)
(3 -1.94006e-15 0)
(3 1.17742e-16 0)
(3 1.86336e-15 0)
(3 2.5643e-15 0)
(3 2.81148e-15 0)
(3 2.82257e-15 0)
(3 1.59282e-15 0)
(3 -1.17741e-15 0)
(3 -1.78395e-15 0)
(3 -1.36061e-15 0)
(3 -1.01506e-15 0)
(3 -8.82576e-16 0)
(3 -1.94685e-16 0)
(3 -1.45311e-15 0)
(3 -4.55576e-15 0)
(3 -5.22184e-15 0)
(3 -4.07498e-15 0)
(3 -3.45244e-15 0)
(3 -2.56301e-15 0)
(3 -2.79591e-15 0)
(3 -4.18926e-15 0)
(3 -4.61046e-15 0)
(3 -2.84906e-16 0)
(3 2.38142e-16 0)
(3 5.53567e-16 0)
(3 6.04057e-16 0)
(3 5.49505e-16 0)
(3 1.13825e-15 0)
(3 1.31966e-15 0)
(3 1.15139e-15 0)
(3 8.70937e-16 0)
(3 3.22062e-16 0)
(3 -4.32953e-16 0)
(3 -3.81746e-16 0)
(3 -2.7543e-16 0)
(3 7.21362e-16 0)
(3 9.72006e-16 0)
(3 4.85127e-16 0)
(3 3.22725e-16 0)
(3 -2.55169e-16 0)
(3 -8.20193e-16 0)
(3 -1.2303e-15 0)
(3 -1.47315e-15 0)
(3 -2.12722e-15 0)
(3 -1.98318e-15 0)
(3 -8.81423e-16 0)
(3 -3.96932e-16 0)
(3 -8.11709e-16 0)
(3 -8.08983e-16 0)
(3 2.90991e-15 0)
(3 4.70051e-15 0)
(3 4.35692e-15 0)
(3 4.08303e-15 0)
(3 2.27128e-15 0)
(3 6.83838e-16 0)
(3 -1.12003e-15 0)
(3 -9.32052e-16 0)
(3 -8.68231e-16 0)
(3 -7.64048e-16 0)
(3 -1.29223e-15 0)
(3 -1.12246e-15 0)
(3 -1.80805e-15 0)
(3 -1.25842e-15 0)
(3 -1.51226e-15 0)
(3 -2.31096e-15 0)
(3 -2.84513e-15 0)
(3 -2.65455e-15 0)
(3 -3.99665e-15 0)
(3 -5.1272e-15 0)
(3 -5.27094e-15 0)
(3 -2.40102e-16 0)
(3 -3.76552e-16 0)
(3 -3.73554e-17 0)
(3 -7.09996e-17 0)
(3 3.35568e-16 0)
(3 -1.13134e-16 0)
(3 -1.21844e-16 0)
(3 -1.44139e-16 0)
(3 -4.71853e-16 0)
(3 -8.04235e-16 0)
(3 -8.39975e-16 0)
(3 -8.87585e-16 0)
(3 -9.28692e-16 0)
(3 -2.63357e-17 0)
(3 3.03247e-16 0)
(3 4.89367e-16 0)
(3 2.96047e-16 0)
(3 1.08191e-16 0)
(3 -7.37303e-16 0)
(3 -1.41392e-15 0)
(3 -1.66335e-15 0)
(3 -1.74877e-15 0)
(3 -1.1832e-15 0)
(3 -4.85897e-16 0)
(3 -1.32047e-16 0)
(3 -7.2338e-18 0)
(3 9.92143e-17 0)
(3 1.88534e-15 0)
(3 2.99455e-15 0)
(3 3.11711e-15 0)
(3 2.74044e-15 0)
(3 6.06779e-16 0)
(3 -5.41776e-16 0)
(3 -1.03404e-15 0)
(3 9.32987e-16 0)
(3 7.40655e-16 0)
(3 3.92064e-16 0)
(3 -3.50065e-16 0)
(3 -1.37693e-15 0)
(3 -2.64265e-16 0)
(3 7.44375e-16 0)
(3 1.09837e-15 0)
(3 -1.12843e-15 0)
(3 -2.78759e-15 0)
(3 -3.06051e-15 0)
(3 -2.76532e-15 0)
(3 -2.59849e-15 0)
(3 -2.9735e-15 0)
(3 -9.14948e-18 0)
(3 -5.60901e-16 0)
(3 -1.11739e-15 0)
(3 -1.09154e-15 0)
(3 -7.8954e-16 0)
(3 -9.97423e-16 0)
(3 -8.9198e-16 0)
(3 -5.97661e-16 0)
(3 -5.57329e-16 0)
(3 -4.84118e-16 0)
(3 -1.24252e-16 0)
(3 -5.43457e-18 0)
(3 4.39716e-16 0)
(3 4.50481e-16 0)
(3 8.65681e-16 0)
(3 1.80078e-15 0)
(3 8.48865e-16 0)
(3 5.56312e-16 0)
(3 -4.31439e-17 0)
(3 -4.70249e-16 0)
(3 -1.18046e-15 0)
(3 -1.78646e-15 0)
(3 -1.56382e-15 0)
(3 -8.78605e-16 0)
(3 -1.74384e-16 0)
(3 3.45466e-16 0)
(3 1.26666e-15 0)
(3 -4.56073e-16 0)
(3 -8.01253e-16 0)
(3 -4.1298e-16 0)
(3 1.75065e-16 0)
(3 3.67275e-16 0)
(3 2.63476e-16 0)
(3 5.65309e-16 0)
(3 3.85623e-16 0)
(3 1.86422e-16 0)
(3 -1.02067e-15 0)
(3 -1.80184e-15 0)
(3 -2.24049e-15 0)
(3 -1.73741e-15 0)
(3 -6.99494e-16 0)
(3 -1.33716e-15 0)
(3 -2.11454e-15 0)
(3 -2.57469e-15 0)
(3 -2.30442e-15 0)
(3 -5.13954e-16 0)
(3 5.08998e-16 0)
(3 -1.76838e-15 0)
(3 1.62552e-16 0)
(3 2.41743e-16 0)
(3 3.66417e-16 0)
(3 5.89602e-16 0)
(3 5.21209e-16 0)
(3 5.00585e-16 0)
(3 3.74436e-16 0)
(3 6.91357e-17 0)
(3 1.27195e-16 0)
(3 5.12009e-17 0)
(3 7.13727e-16 0)
(3 7.00349e-16 0)
(3 5.42623e-16 0)
(3 -4.90988e-16 0)
(3 -6.7365e-17 0)
(3 7.53106e-17 0)
(3 5.45218e-16 0)
(3 5.34855e-16 0)
(3 9.54405e-16 0)
(3 1.05103e-15 0)
(3 4.44489e-16 0)
(3 2.68174e-16 0)
(3 -6.72586e-17 0)
(3 -2.49399e-16 0)
(3 -2.62761e-16 0)
(3 3.9778e-16 0)
(3 -2.84946e-16 0)
(3 -1.85945e-15 0)
(3 -2.42845e-15 0)
(3 -1.62958e-15 0)
(3 -1.37881e-15 0)
(3 -1.85596e-15 0)
(3 -2.07511e-15 0)
(3 1.84507e-16 0)
(3 2.06132e-15 0)
(3 2.27938e-15 0)
(3 1.80961e-15 0)
(3 2.61807e-16 0)
(3 -1.37226e-15 0)
(3 -3.14938e-15 0)
(3 -2.67946e-15 0)
(3 -2.22843e-15 0)
(3 -1.98167e-15 0)
(3 -1.53419e-15 0)
(3 -1.16861e-17 0)
(3 1.69553e-15 0)
(3 2.73776e-15 0)
(3 2.16054e-15 0)
(3 -1.7933e-16 0)
(3 -2.73511e-16 0)
(3 -2.06752e-16 0)
(3 1.00474e-16 0)
(3 2.79067e-16 0)
(3 3.21302e-16 0)
(3 -2.21218e-17 0)
(3 -7.07408e-17 0)
(3 1.52911e-16 0)
(3 5.82851e-16 0)
(3 8.20203e-16 0)
(3 8.31867e-16 0)
(3 -8.15206e-17 0)
(3 -6.22915e-16 0)
(3 -1.22258e-15 0)
(3 -1.42253e-15 0)
(3 -4.80318e-16 0)
(3 -1.16806e-16 0)
(3 5.99674e-16 0)
(3 1.44252e-15 0)
(3 1.49479e-15 0)
(3 1.32368e-15 0)
(3 6.44143e-16 0)
(3 6.36599e-16 0)
(3 1.20455e-15 0)
(3 2.1606e-15 0)
(3 5.87934e-16 0)
(3 -9.7882e-16 0)
(3 -1.03704e-15 0)
(3 -1.19051e-15 0)
(3 -2.41531e-15 0)
(3 -2.60429e-15 0)
(3 -1.70534e-15 0)
(3 1.06806e-15 0)
(3 1.66086e-15 0)
(3 2.03403e-15 0)
(3 3.27211e-15 0)
(3 3.63385e-15 0)
(3 2.95485e-15 0)
(3 -1.94451e-16 0)
(3 -2.82578e-15 0)
(3 -1.03698e-15 0)
(3 2.73436e-16 0)
(3 3.24472e-15 0)
(3 4.60459e-15 0)
(3 3.85649e-15 0)
(3 2.73357e-15 0)
(3 4.16507e-15 0)
(3 7.78295e-17 0)
(3 -1.27693e-16 0)
(3 -4.64625e-16 0)
(3 -6.17573e-16 0)
(3 -8.29506e-16 0)
(3 -7.21999e-16 0)
(3 -4.16512e-16 0)
(3 3.78779e-16 0)
(3 6.71915e-16 0)
(3 1.41765e-15 0)
(3 1.2337e-15 0)
(3 3.08203e-16 0)
(3 -3.46207e-16 0)
(3 -3.84396e-16 0)
(3 -9.01049e-16 0)
(3 -6.70019e-16 0)
(3 2.69017e-17 0)
(3 2.24119e-16 0)
(3 2.7832e-16 0)
(3 9.9747e-16 0)
(3 1.69006e-15 0)
(3 1.67482e-15 0)
(3 1.5052e-15 0)
(3 1.64806e-15 0)
(3 2.42078e-15 0)
(3 3.30706e-15 0)
(3 2.71451e-15 0)
(3 1.87591e-15 0)
(3 1.63892e-15 0)
(3 1.00612e-15 0)
(3 -1.95414e-16 0)
(3 3.19051e-16 0)
(3 3.27111e-15 0)
(3 3.51507e-15 0)
(3 2.4976e-15 0)
(3 7.85864e-16 0)
(3 1.49988e-15 0)
(3 3.63271e-15 0)
(3 4.04392e-15 0)
(3 3.03361e-15 0)
(3 1.4854e-15 0)
(3 8.95169e-16 0)
(3 9.46082e-16 0)
(3 2.69406e-15 0)
(3 2.60093e-15 0)
(3 1.52352e-15 0)
(3 1.62236e-15 0)
(3 2.11456e-15 0)
(3 1.47442e-16 0)
(3 1.31082e-16 0)
(3 2.69211e-16 0)
(3 4.32588e-16 0)
(3 1.30933e-17 0)
(3 1.58416e-16 0)
(3 8.80347e-16 0)
(3 1.0708e-15 0)
(3 1.22461e-15 0)
(3 7.92776e-16 0)
(3 9.41081e-16 0)
(3 1.43134e-17 0)
(3 -2.25704e-16 0)
(3 -5.32188e-16 0)
(3 -1.01826e-15 0)
(3 -6.39975e-16 0)
(3 -1.09782e-16 0)
(3 9.51918e-16 0)
(3 1.19906e-15 0)
(3 1.20118e-15 0)
(3 1.35692e-15 0)
(3 2.16266e-15 0)
(3 1.9273e-15 0)
(3 1.74377e-15 0)
(3 2.33878e-15 0)
(3 4.25511e-15 0)
(3 5.38146e-15 0)
(3 4.39461e-15 0)
(3 3.48974e-15 0)
(3 1.45216e-15 0)
(3 -9.22458e-16 0)
(3 -9.74183e-16 0)
(3 2.06446e-15 0)
(3 2.92682e-15 0)
(3 1.58618e-15 0)
(3 2.1761e-16 0)
(3 2.87043e-16 0)
(3 2.29664e-15 0)
(3 3.38591e-15 0)
(3 2.99854e-15 0)
(3 3.0318e-15 0)
(3 -3.97545e-17 0)
(3 -2.40542e-15 0)
(3 -2.28385e-15 0)
(3 -4.08045e-16 0)
(3 6.22647e-16 0)
(3 1.29536e-15 0)
(3 1.57439e-15 0)
(3 -1.84518e-16 0)
(3 5.12559e-16 0)
(3 6.03402e-16 0)
(3 8.69107e-16 0)
(3 9.91899e-16 0)
(3 9.40523e-16 0)
(3 9.37407e-16 0)
(3 6.39599e-16 0)
(3 -2.84879e-16 0)
(3 -8.2849e-16 0)
(3 -8.45616e-16 0)
(3 -6.05414e-16 0)
(3 3.23422e-16 0)
(3 1.18929e-16 0)
(3 -6.77937e-16 0)
(3 -6.58613e-16 0)
(3 -5.86907e-16 0)
(3 -4.48529e-16 0)
(3 -2.64692e-17 0)
(3 -2.80275e-16 0)
(3 3.65293e-17 0)
(3 5.10618e-16 0)
(3 1.0036e-15 0)
(3 1.54072e-15 0)
(3 2.58534e-15 0)
(3 2.90051e-15 0)
(3 2.45104e-15 0)
(3 1.03804e-15 0)
(3 -1.49615e-15 0)
(3 -3.15492e-15 0)
(3 -4.69458e-15 0)
(3 -4.93587e-15 0)
(3 -4.55727e-15 0)
(3 -4.45826e-15 0)
(3 -2.0379e-15 0)
(3 -8.90273e-16 0)
(3 -5.72859e-16 0)
(3 -2.13785e-16 0)
(3 1.80924e-15 0)
(3 2.29024e-15 0)
(3 3.42828e-15 0)
(3 1.47466e-15 0)
(3 -1.31539e-15 0)
(3 -1.44801e-15 0)
(3 -8.69692e-17 0)
(3 1.62425e-15 0)
(3 1.64269e-15 0)
(3 1.53942e-15 0)
(3 -1.09725e-16 0)
(3 4.83695e-17 0)
(3 1.7867e-16 0)
(3 1.53784e-16 0)
(3 1.76467e-16 0)
(3 7.92569e-17 0)
(3 1.21348e-16 0)
(3 -2.09153e-16 0)
(3 -8.79275e-16 0)
(3 -1.26135e-15 0)
(3 -1.08743e-15 0)
(3 -9.48673e-16 0)
(3 -3.03507e-16 0)
(3 -6.2982e-17 0)
(3 1.82342e-17 0)
(3 -4.12598e-16 0)
(3 -7.26578e-16 0)
(3 -1.09471e-15 0)
(3 -1.27363e-15 0)
(3 -1.3794e-15 0)
(3 -1.35262e-15 0)
(3 -1.17351e-15 0)
(3 6.60544e-16 0)
(3 1.95153e-15 0)
(3 2.32507e-15 0)
(3 1.66299e-15 0)
(3 6.33215e-17 0)
(3 -2.66733e-15 0)
(3 -5.31229e-15 0)
(3 -5.23975e-15 0)
(3 -4.37416e-15 0)
(3 -4.62354e-15 0)
(3 -4.75716e-15 0)
(3 -4.94696e-15 0)
(3 -4.0773e-15 0)
(3 1.32387e-16 0)
(3 1.382e-15 0)
(3 1.67853e-15 0)
(3 2.36602e-15 0)
(3 4.70602e-15 0)
(3 5.46763e-15 0)
(3 4.21925e-15 0)
(3 2.69006e-15 0)
(3 2.19082e-15 0)
(3 2.38473e-15 0)
(3 2.40998e-15 0)
(3 1.94785e-15 0)
(3 1.49332e-15 0)
(3 -2.23691e-16 0)
(3 -6.44425e-16 0)
(3 -8.00323e-16 0)
(3 -8.58483e-16 0)
(3 -5.50703e-16 0)
(3 -4.45872e-16 0)
(3 -3.75908e-16 0)
(3 -5.47049e-16 0)
(3 -2.88267e-16 0)
(3 -5.4572e-17 0)
(3 1.32244e-16 0)
(3 -7.74694e-16 0)
(3 -1.26662e-15 0)
(3 -1.11008e-15 0)
(3 -8.05972e-16 0)
(3 -1.18857e-15 0)
(3 -1.42365e-15 0)
(3 -1.27125e-15 0)
(3 -1.20579e-15 0)
(3 -7.5055e-16 0)
(3 -1.02307e-15 0)
(3 -5.59802e-16 0)
(3 -2.83057e-18 0)
(3 -4.97068e-17 0)
(3 -6.05714e-16 0)
(3 -1.6176e-15 0)
(3 -2.52373e-15 0)
(3 -4.34389e-15 0)
(3 -5.49318e-15 0)
(3 -5.31745e-15 0)
(3 -3.14056e-15 0)
(3 -3.24094e-15 0)
(3 -3.44928e-15 0)
(3 -5.98757e-15 0)
(3 -6.78836e-15 0)
(3 -3.80098e-15 0)
(3 8.13752e-16 0)
(3 2.7554e-15 0)
(3 4.39149e-15 0)
(3 5.03197e-15 0)
(3 4.91346e-15 0)
(3 3.83361e-15 0)
(3 3.44161e-15 0)
(3 3.30634e-15 0)
(3 3.64747e-15 0)
(3 3.8472e-15 0)
(3 2.64257e-15 0)
(3 1.69898e-15 0)
(3 2.00148e-17 0)
(3 -3.00879e-16 0)
(3 -3.84171e-16 0)
(3 -3.01937e-16 0)
(3 -2.13785e-16 0)
(3 -2.9447e-16 0)
(3 -5.66464e-16 0)
(3 -4.76574e-16 0)
(3 -1.76639e-16 0)
(3 -3.48845e-16 0)
(3 -1.0065e-15 0)
(3 -1.74731e-15 0)
(3 -1.97322e-15 0)
(3 -1.57443e-15 0)
(3 -1.29146e-15 0)
(3 -8.83093e-16 0)
(3 -4.09912e-16 0)
(3 -2.2417e-16 0)
(3 -4.42059e-16 0)
(3 -2.11547e-16 0)
(3 3.53032e-16 0)
(3 2.09774e-17 0)
(3 -1.60381e-15 0)
(3 -4.37331e-15 0)
(3 -5.92816e-15 0)
(3 -5.94619e-15 0)
(3 -5.53863e-15 0)
(3 -3.85425e-15 0)
(3 -2.77675e-15 0)
(3 -3.36443e-15 0)
(3 -3.14308e-15 0)
(3 -2.91341e-15 0)
(3 -3.0945e-15 0)
(3 -4.10796e-15 0)
(3 -3.95371e-15 0)
(3 -2.63195e-15 0)
(3 -7.572e-17 0)
(3 1.29778e-15 0)
(3 1.6195e-15 0)
(3 1.0834e-15 0)
(3 9.55688e-16 0)
(3 1.44195e-15 0)
(3 2.27804e-15 0)
(3 3.02315e-15 0)
(3 2.73116e-15 0)
(3 2.84067e-15 0)
(3 2.71662e-15 0)
(3 2.07736e-15 0)
(3 2.16634e-16 0)
(3 -1.76444e-16 0)
(3 4.09672e-17 0)
(3 1.60563e-16 0)
(3 -2.56122e-18 0)
(3 -1.77166e-16 0)
(3 -2.96161e-16 0)
(3 2.69418e-16 0)
(3 2.14471e-16 0)
(3 -7.95646e-16 0)
(3 -1.84401e-15 0)
(3 -1.84637e-15 0)
(3 -1.91407e-15 0)
(3 -1.51153e-15 0)
(3 1.28326e-17 0)
(3 9.72019e-16 0)
(3 1.05028e-15 0)
(3 1.17348e-15 0)
(3 1.34725e-15 0)
(3 1.23862e-15 0)
(3 6.24821e-16 0)
(3 -1.47091e-16 0)
(3 -1.29401e-15 0)
(3 -5.30033e-15 0)
(3 -7.3156e-15 0)
(3 -7.59023e-15 0)
(3 -6.61191e-15 0)
(3 -3.33766e-15 0)
(3 -1.04725e-15 0)
(3 -8.95495e-16 0)
(3 4.41053e-16 0)
(3 1.11718e-15 0)
(3 6.40279e-16 0)
(3 5.46332e-16 0)
(3 1.40772e-15 0)
(3 2.63864e-15 0)
(3 3.17843e-15 0)
(3 2.89209e-15 0)
(3 2.63892e-15 0)
(3 2.1304e-15 0)
(3 1.46061e-15 0)
(3 7.40762e-16 0)
(3 -4.20275e-17 0)
(3 -6.69852e-17 0)
(3 5.20134e-16 0)
(3 6.31244e-16 0)
(3 2.78967e-15 0)
(3 3.68665e-15 0)
(3 6.8006e-17 0)
(3 5.72876e-18 0)
(3 -5.27719e-18 0)
(3 -6.70596e-17 0)
(3 2.24951e-16 0)
(3 7.84774e-16 0)
(3 6.41775e-16 0)
(3 4.35073e-16 0)
(3 3.32939e-17 0)
(3 -2.33443e-16 0)
(3 3.5872e-16 0)
(3 2.48764e-16 0)
(3 -6.79852e-16 0)
(3 -4.40319e-16 0)
(3 5.22436e-16 0)
(3 1.19543e-15 0)
(3 1.36286e-15 0)
(3 1.29673e-15 0)
(3 1.07861e-15 0)
(3 8.57255e-16 0)
(3 2.1112e-16 0)
(3 -4.44162e-16 0)
(3 -1.45461e-15 0)
(3 -2.24535e-15 0)
(3 -3.18611e-15 0)
(3 -4.97339e-15 0)
(3 -5.55353e-15 0)
(3 -5.2177e-15 0)
(3 -3.49558e-15 0)
(3 -2.5048e-15 0)
(3 -1.98055e-15 0)
(3 -1.09085e-15 0)
(3 1.50873e-15 0)
(3 4.47633e-15 0)
(3 4.75642e-15 0)
(3 4.97743e-15 0)
(3 6.06574e-15 0)
(3 5.34236e-15 0)
(3 4.37798e-15 0)
(3 4.69628e-15 0)
(3 5.30909e-15 0)
(3 4.3492e-15 0)
(3 2.14778e-15 0)
(3 1.1095e-15 0)
(3 1.3105e-15 0)
(3 2.06716e-15 0)
(3 4.21846e-15 0)
(3 5.22504e-15 0)
(3 -1.71578e-16 0)
(3 1.21926e-16 0)
(3 9.19354e-17 0)
(3 2.92615e-17 0)
(3 3.82742e-16 0)
(3 8.1303e-16 0)
(3 1.66143e-16 0)
(3 -3.44315e-16 0)
(3 -3.69938e-16 0)
(3 -1.6279e-16 0)
(3 9.02584e-16 0)
(3 1.35749e-15 0)
(3 7.92767e-16 0)
(3 4.16102e-16 0)
(3 4.35157e-16 0)
(3 4.67344e-16 0)
(3 4.95578e-16 0)
(3 7.44063e-16 0)
(3 7.69372e-16 0)
(3 7.5188e-16 0)
(3 4.33405e-16 0)
(3 -6.32692e-17 0)
(3 -6.1669e-16 0)
(3 -8.41038e-16 0)
(3 -1.2361e-15 0)
(3 -3.34017e-15 0)
(3 -5.67543e-15 0)
(3 -5.80291e-15 0)
(3 -3.48239e-15 0)
(3 -8.15851e-16 0)
(3 -7.38782e-16 0)
(3 -1.16903e-16 0)
(3 1.89825e-15 0)
(3 3.60494e-15 0)
(3 3.89912e-15 0)
(3 4.79505e-15 0)
(3 4.87729e-15 0)
(3 4.06493e-15 0)
(3 3.74865e-15 0)
(3 4.95232e-15 0)
(3 6.8379e-15 0)
(3 7.14394e-15 0)
(3 5.60019e-15 0)
(3 3.356e-15 0)
(3 2.13668e-15 0)
(3 2.76785e-15 0)
(3 5.22416e-15 0)
(3 5.47097e-15 0)
(3 -1.01398e-18 0)
(3 6.83051e-16 0)
(3 7.04305e-16 0)
(3 7.50088e-16 0)
(3 6.20133e-16 0)
(3 -7.11089e-16 0)
(3 -7.99041e-16 0)
(3 -4.45322e-16 0)
(3 -2.7281e-16 0)
(3 1.09412e-16 0)
(3 8.18095e-16 0)
(3 1.36983e-15 0)
(3 1.20661e-15 0)
(3 9.3987e-16 0)
(3 7.78471e-16 0)
(3 6.1131e-16 0)
(3 -8.46081e-17 0)
(3 -1.57101e-17 0)
(3 1.58846e-16 0)
(3 6.57036e-16 0)
(3 7.96072e-16 0)
(3 1.01193e-15 0)
(3 1.11695e-15 0)
(3 7.44371e-16 0)
(3 -2.58508e-16 0)
(3 -2.42244e-15 0)
(3 -3.16598e-15 0)
(3 -3.36142e-15 0)
(3 -2.54758e-15 0)
(3 -2.16538e-15 0)
(3 -1.86759e-15 0)
(3 -1.69982e-15 0)
(3 -1.03568e-15 0)
(3 2.14481e-16 0)
(3 9.87463e-16 0)
(3 1.67202e-15 0)
(3 2.03397e-15 0)
(3 1.71601e-15 0)
(3 2.32854e-15 0)
(3 2.78386e-15 0)
(3 4.16682e-15 0)
(3 4.54977e-15 0)
(3 4.48689e-15 0)
(3 4.00727e-15 0)
(3 1.91307e-15 0)
(3 1.30514e-15 0)
(3 1.38939e-15 0)
(3 3.55831e-16 0)
(3 3.32744e-16 0)
(3 2.83465e-16 0)
(3 2.75409e-16 0)
(3 2.7356e-16 0)
(3 -4.09573e-16 0)
(3 -8.44004e-16 0)
(3 -1.04209e-15 0)
(3 -9.47974e-16 0)
(3 -7.04713e-16 0)
(3 -3.52534e-16 0)
(3 7.50367e-17 0)
(3 4.63666e-16 0)
(3 1.03946e-15 0)
(3 1.43061e-15 0)
(3 2.24822e-16 0)
(3 3.77239e-17 0)
(3 3.3614e-16 0)
(3 4.58503e-16 0)
(3 2.74996e-17 0)
(3 -3.06893e-16 0)
(3 2.81835e-16 0)
(3 5.71449e-16 0)
(3 4.14512e-16 0)
(3 -5.167e-17 0)
(3 -6.8055e-16 0)
(3 -5.35095e-16 0)
(3 9.87619e-16 0)
(3 1.231e-16 0)
(3 -2.7074e-15 0)
(3 -4.84919e-15 0)
(3 -4.9358e-15 0)
(3 -3.56955e-15 0)
(3 -1.99943e-15 0)
(3 -7.09945e-16 0)
(3 -2.86771e-16 0)
(3 -1.8044e-15 0)
(3 -1.99843e-15 0)
(3 -1.40276e-15 0)
(3 -1.53498e-15 0)
(3 -1.0444e-15 0)
(3 -1.00443e-15 0)
(3 5.53926e-16 0)
(3 1.35185e-15 0)
(3 2.15035e-15 0)
(3 3.07235e-15 0)
(3 1.23105e-15 0)
(3 -1.37089e-15 0)
(3 -2.15199e-15 0)
(3 9.21616e-17 0)
(3 -1.90553e-17 0)
(3 -1.54882e-16 0)
(3 -3.35058e-16 0)
(3 -6.32881e-16 0)
(3 -5.55066e-16 0)
(3 -7.01448e-16 0)
(3 -1.04336e-15 0)
(3 -8.4049e-16 0)
(3 -8.73479e-16 0)
(3 -1.10752e-15 0)
(3 -5.00541e-16 0)
(3 2.52824e-16 0)
(3 7.89866e-16 0)
(3 -3.05151e-16 0)
(3 1.59166e-16 0)
(3 7.15963e-16 0)
(3 5.44831e-16 0)
(3 1.21442e-16 0)
(3 -3.68584e-16 0)
(3 -7.70536e-16 0)
(3 -2.0373e-15 0)
(3 -2.95494e-15 0)
(3 -2.49133e-15 0)
(3 -2.41767e-15 0)
(3 -8.06147e-16 0)
(3 2.93301e-15 0)
(3 4.4593e-15 0)
(3 3.31681e-15 0)
(3 4.69769e-16 0)
(3 -1.67865e-15 0)
(3 -2.32132e-15 0)
(3 -1.85589e-15 0)
(3 -4.34619e-16 0)
(3 3.47988e-16 0)
(3 -1.89042e-15 0)
(3 -2.7606e-15 0)
(3 -2.82947e-15 0)
(3 -3.21379e-15 0)
(3 -3.20401e-15 0)
(3 -2.6328e-15 0)
(3 -5.56113e-16 0)
(3 3.9421e-16 0)
(3 1.21126e-15 0)
(3 2.87662e-15 0)
(3 3.86357e-15 0)
(3 3.15447e-15 0)
(3 2.0253e-15 0)
(3 -9.86167e-17 0)
(3 -2.97096e-16 0)
(3 -2.79946e-16 0)
(3 -1.755e-16 0)
(3 5.05646e-16 0)
(3 8.85472e-16 0)
(3 1.10193e-15 0)
(3 8.66777e-16 0)
(3 4.92424e-16 0)
(3 1.367e-16 0)
(3 -7.84876e-16 0)
(3 -5.40771e-16 0)
(3 -1.23872e-16 0)
(3 1.63491e-16 0)
(3 2.79026e-16 0)
(3 1.57851e-16 0)
(3 -1.46668e-16 0)
(3 -8.24424e-16 0)
(3 -4.73827e-16 0)
(3 2.75027e-16 0)
(3 -9.66346e-16 0)
(3 -2.52973e-15 0)
(3 -3.70424e-15 0)
(3 -3.31711e-15 0)
(3 -2.86555e-15 0)
(3 -5.72071e-16 0)
(3 1.17868e-15 0)
(3 1.89975e-15 0)
(3 1.35067e-15 0)
(3 1.06048e-15 0)
(3 2.03008e-15 0)
(3 1.66603e-15 0)
(3 9.5334e-16 0)
(3 1.14478e-15 0)
(3 2.78896e-15 0)
(3 -1.37483e-15 0)
(3 -3.45215e-15 0)
(3 -3.72044e-15 0)
(3 -3.61098e-15 0)
(3 -3.04147e-15 0)
(3 -2.167e-15 0)
(3 -1.47693e-15 0)
(3 -8.2788e-16 0)
(3 -4.52963e-16 0)
(3 5.53611e-17 0)
(3 8.06739e-16 0)
(3 1.5306e-15 0)
(3 4.27186e-15 0)
(3 -4.11046e-16 0)
(3 -3.33824e-16 0)
(3 -5.62664e-17 0)
(3 -1.94496e-17 0)
(3 6.91207e-16 0)
(3 1.04738e-15 0)
(3 1.11963e-15 0)
(3 1.00858e-15 0)
(3 6.18969e-16 0)
(3 2.12642e-16 0)
(3 2.50824e-17 0)
(3 -2.95583e-16 0)
(3 -4.46486e-16 0)
(3 -1.88469e-16 0)
(3 1.02943e-16 0)
(3 5.55202e-17 0)
(3 -5.52638e-16 0)
(3 -8.99261e-16 0)
(3 -7.13855e-16 0)
(3 -9.03462e-16 0)
(3 -2.38884e-15 0)
(3 -2.75112e-15 0)
(3 -3.3669e-15 0)
(3 -3.92823e-15 0)
(3 -3.32589e-15 0)
(3 -1.99708e-15 0)
(3 -1.62187e-15 0)
(3 -1.73382e-15 0)
(3 -2.01492e-15 0)
(3 -1.50731e-15 0)
(3 9.98507e-16 0)
(3 3.86821e-15 0)
(3 3.40596e-15 0)
(3 2.66927e-15 0)
(3 1.77207e-15 0)
(3 6.61736e-17 0)
(3 -3.19095e-15 0)
(3 -3.84829e-15 0)
(3 -3.52264e-15 0)
(3 -2.85404e-15 0)
(3 -2.54013e-15 0)
(3 -1.87262e-15 0)
(3 -1.31992e-15 0)
(3 -1.98428e-16 0)
(3 4.04787e-16 0)
(3 -3.65674e-16 0)
(3 1.11821e-15 0)
(3 4.14683e-15 0)
(3 -2.46501e-16 0)
(3 -6.44467e-17 0)
(3 2.58502e-17 0)
(3 -2.01853e-16 0)
(3 9.5559e-17 0)
(3 4.04865e-16 0)
(3 1.16592e-17 0)
(3 -1.18618e-16 0)
(3 -1.23074e-17 0)
(3 5.35872e-18 0)
(3 1.08581e-16 0)
(3 -4.16928e-16 0)
(3 -5.56106e-16 0)
(3 -2.83647e-16 0)
(3 2.26723e-16 0)
(3 1.1979e-15 0)
(3 7.84164e-16 0)
(3 3.00633e-17 0)
(3 -7.08032e-16 0)
(3 -2.84822e-15 0)
(3 -3.62181e-15 0)
(3 -3.15574e-15 0)
(3 -2.96891e-15 0)
(3 -2.59262e-15 0)
(3 -2.17212e-15 0)
(3 -2.6024e-15 0)
(3 -3.44431e-15 0)
(3 -4.44839e-15 0)
(3 -4.96789e-15 0)
(3 -4.42303e-15 0)
(3 -1.5411e-15 0)
(3 1.79546e-15 0)
(3 3.03141e-15 0)
(3 2.57327e-15 0)
(3 -5.62486e-16 0)
(3 -1.55032e-15 0)
(3 -7.33114e-17 0)
(3 2.80388e-17 0)
(3 -6.07942e-16 0)
(3 -2.64651e-15 0)
(3 -3.15518e-15 0)
(3 -2.53394e-15 0)
(3 -1.58347e-15 0)
(3 -1.26824e-15 0)
(3 -2.21865e-15 0)
(3 -2.79674e-15 0)
(3 -5.08269e-16 0)
(3 2.51989e-15 0)
(3 1.4355e-16 0)
(3 -1.46808e-16 0)
(3 -3.77349e-16 0)
(3 -2.72527e-16 0)
(3 -4.23619e-16 0)
(3 3.17262e-16 0)
(3 7.13973e-16 0)
(3 9.17983e-16 0)
(3 7.89366e-16 0)
(3 4.37291e-16 0)
(3 3.3012e-16 0)
(3 2.3642e-16 0)
(3 2.03742e-16 0)
(3 -5.33431e-17 0)
(3 -2.23538e-16 0)
(3 1.02042e-16 0)
(3 -2.4826e-17 0)
(3 -3.69803e-16 0)
(3 -3.91784e-16 0)
(3 -1.4504e-15 0)
(3 -1.97804e-15 0)
(3 -2.37663e-15 0)
(3 -2.90182e-15 0)
(3 -2.40359e-15 0)
(3 -1.79879e-15 0)
(3 -1.46737e-15 0)
(3 -1.96896e-15 0)
(3 -4.34285e-15 0)
(3 -4.84761e-15 0)
(3 -4.41307e-15 0)
(3 -3.32591e-15 0)
(3 -3.06863e-15 0)
(3 -3.32348e-16 0)
(3 3.98611e-16 0)
(3 -1.84837e-15 0)
(3 -1.82701e-15 0)
(3 1.55343e-15 0)
(3 2.57029e-15 0)
(3 2.08336e-15 0)
(3 1.5401e-15 0)
(3 -1.51565e-15 0)
(3 -2.80039e-15 0)
(3 -3.75432e-15 0)
(3 -4.01645e-15 0)
(3 -4.20529e-15 0)
(3 -3.99987e-15 0)
(3 -3.10699e-15 0)
(3 -1.70437e-15 0)
(3 2.80263e-17 0)
(3 3.96467e-17 0)
(3 3.8756e-17 0)
(3 3.9029e-16 0)
(3 7.31676e-17 0)
(3 1.04378e-16 0)
(3 8.44023e-16 0)
(3 6.94623e-16 0)
(3 4.09833e-16 0)
(3 3.57929e-16 0)
(3 1.04126e-15 0)
(3 1.90981e-15 0)
(3 1.42791e-15 0)
(3 8.74332e-16 0)
(3 -6.64696e-16 0)
(3 -1.60936e-15 0)
(3 -1.79759e-15 0)
(3 -1.80128e-15 0)
(3 -3.17162e-16 0)
(3 3.41109e-16 0)
(3 9.87726e-16 0)
(3 8.02409e-16 0)
(3 1.34789e-15 0)
(3 1.7252e-15 0)
(3 1.56842e-15 0)
(3 1.14844e-15 0)
(3 1.97871e-16 0)
(3 -6.12926e-16 0)
(3 -9.35684e-16 0)
(3 -1.60965e-15 0)
(3 -2.027e-15 0)
(3 -2.14711e-15 0)
(3 -2.86991e-15 0)
(3 -2.38189e-15 0)
(3 -6.94676e-16 0)
(3 1.80193e-15 0)
(3 3.93578e-15 0)
(3 2.56455e-15 0)
(3 2.07281e-15 0)
(3 1.89655e-15 0)
(3 1.48279e-15 0)
(3 1.33732e-15 0)
(3 6.10602e-16 0)
(3 -1.18358e-15 0)
(3 -2.4037e-15 0)
(3 -2.42827e-15 0)
(3 -1.74901e-15 0)
(3 -2.12607e-15 0)
(3 5.39791e-17 0)
(3 6.27424e-16 0)
(3 5.48205e-16 0)
(3 2.58146e-16 0)
(3 -2.11392e-16 0)
(3 -5.22045e-16 0)
(3 -2.88698e-16 0)
(3 1.02651e-16 0)
(3 4.07808e-16 0)
(3 9.03906e-16 0)
(3 1.42648e-15 0)
(3 2.01783e-15 0)
(3 1.61643e-15 0)
(3 1.24171e-15 0)
(3 6.7185e-16 0)
(3 -6.3618e-16 0)
(3 -5.37789e-16 0)
(3 -1.15441e-16 0)
(3 4.03715e-16 0)
(3 1.28166e-15 0)
(3 1.87352e-15 0)
(3 2.22665e-15 0)
(3 4.31052e-15 0)
(3 6.25312e-15 0)
(3 6.88956e-15 0)
(3 4.77428e-15 0)
(3 3.73654e-15 0)
(3 3.64917e-15 0)
(3 3.34949e-15 0)
(3 8.08534e-16 0)
(3 -5.88118e-16 0)
(3 -8.70161e-16 0)
(3 -8.98973e-16 0)
(3 2.92824e-16 0)
(3 1.88487e-15 0)
(3 4.51668e-15 0)
(3 6.50584e-15 0)
(3 4.01731e-15 0)
(3 -1.72993e-16 0)
(3 -7.03614e-16 0)
(3 -8.35154e-17 0)
(3 1.17403e-15 0)
(3 2.77201e-15 0)
(3 2.72406e-15 0)
(3 1.55238e-15 0)
(3 1.05734e-15 0)
(3 5.7933e-16 0)
(3 7.10792e-16 0)
(3 9.76088e-17 0)
(3 4.24953e-16 0)
(3 3.46591e-17 0)
(3 -6.30996e-16 0)
(3 -8.2637e-16 0)
(3 -1.49861e-15 0)
(3 -1.74729e-15 0)
(3 -7.25827e-16 0)
(3 6.34477e-16 0)
(3 8.24891e-16 0)
(3 1.01524e-15 0)
(3 4.74763e-16 0)
(3 3.88009e-16 0)
(3 -1.60775e-16 0)
(3 -3.15253e-16 0)
(3 -3.95041e-16 0)
(3 -1.90464e-16 0)
(3 -1.80433e-16 0)
(3 -4.092e-17 0)
(3 4.98852e-16 0)
(3 1.04201e-15 0)
(3 1.90774e-15 0)
(3 3.44053e-15 0)
(3 5.50273e-15 0)
(3 5.85506e-15 0)
(3 5.41341e-15 0)
(3 6.33952e-15 0)
(3 7.68188e-15 0)
(3 7.24674e-15 0)
(3 3.50136e-15 0)
(3 1.34043e-15 0)
(3 1.02568e-15 0)
(3 1.89144e-15 0)
(3 2.86722e-15 0)
(3 3.22631e-15 0)
(3 3.35092e-15 0)
(3 4.08791e-15 0)
(3 1.2714e-15 0)
(3 -6.93415e-16 0)
(3 -2.13558e-15 0)
(3 -1.75713e-15 0)
(3 3.74066e-15 0)
(3 5.78488e-15 0)
(3 6.50233e-15 0)
(3 6.20658e-15 0)
(3 4.05435e-15 0)
(3 1.90766e-15 0)
(3 1.63079e-15 0)
(3 -6.37927e-17 0)
(3 -6.89204e-16 0)
(3 -4.21385e-16 0)
(3 -8.36625e-17 0)
(3 1.50039e-16 0)
(3 -4.67121e-17 0)
(3 -5.76371e-16 0)
(3 -4.35214e-16 0)
(3 2.97319e-16 0)
(3 3.14277e-16 0)
(3 2.21213e-16 0)
(3 -3.01146e-16 0)
(3 -4.4446e-16 0)
(3 -6.44721e-16 0)
(3 -4.86874e-16 0)
(3 -5.47081e-16 0)
(3 -9.42385e-16 0)
(3 -9.23058e-16 0)
(3 -3.16882e-16 0)
(3 3.30603e-16 0)
(3 5.80783e-16 0)
(3 1.77292e-15 0)
(3 2.50615e-15 0)
(3 3.13129e-15 0)
(3 3.2351e-15 0)
(3 4.00663e-15 0)
(3 5.47086e-15 0)
(3 7.11987e-15 0)
(3 8.93065e-15 0)
(3 9.154e-15 0)
(3 5.60181e-15 0)
(3 3.12687e-15 0)
(3 3.18907e-15 0)
(3 2.50859e-15 0)
(3 2.08554e-15 0)
(3 2.31486e-15 0)
(3 1.54428e-15 0)
(3 -1.65802e-16 0)
(3 -8.67667e-16 0)
(3 -1.52939e-15 0)
(3 -1.44318e-15 0)
(3 9.1226e-16 0)
(3 2.01468e-15 0)
(3 3.94305e-15 0)
(3 4.73023e-15 0)
(3 4.5291e-15 0)
(3 3.50372e-15 0)
(3 2.63549e-15 0)
(3 2.11366e-16 0)
(3 -3.93577e-16 0)
(3 -6.67272e-16 0)
(3 -2.68463e-16 0)
(3 -1.27601e-16 0)
(3 -7.90508e-17 0)
(3 -4.20654e-16 0)
(3 -8.05893e-16 0)
(3 -8.8707e-16 0)
(3 -5.11155e-18 0)
(3 1.88071e-16 0)
(3 -5.73361e-18 0)
(3 5.32865e-17 0)
(3 4.022e-16 0)
(3 4.90408e-16 0)
(3 1.07568e-16 0)
(3 -1.76374e-16 0)
(3 2.3262e-16 0)
(3 6.98563e-16 0)
(3 1.81204e-16 0)
(3 1.93141e-16 0)
(3 3.50807e-16 0)
(3 5.04763e-16 0)
(3 1.93475e-16 0)
(3 -7.28474e-16 0)
(3 -1.03893e-15 0)
(3 -8.77163e-16 0)
(3 -2.90917e-16 0)
(3 2.13025e-15 0)
(3 5.32048e-15 0)
(3 5.13951e-15 0)
(3 2.58078e-15 0)
(3 1.48027e-15 0)
(3 1.62554e-15 0)
(3 1.79592e-15 0)
(3 1.57989e-15 0)
(3 2.9934e-16 0)
(3 -1.57994e-15 0)
(3 -1.72598e-15 0)
(3 -1.49143e-15 0)
(3 -1.96702e-15 0)
(3 -1.70014e-15 0)
(3 -1.21741e-16 0)
(3 2.16257e-15 0)
(3 2.9137e-15 0)
(3 4.26855e-15 0)
(3 4.9701e-15 0)
(3 3.6884e-15 0)
(3 -9.65699e-17 0)
(3 -2.86367e-16 0)
(3 -4.88241e-16 0)
(3 -4.82637e-16 0)
(3 -4.36438e-16 0)
(3 -4.95218e-16 0)
(3 -3.31588e-16 0)
(3 -2.33171e-16 0)
(3 -5.0794e-16 0)
(3 -2.91433e-16 0)
(3 1.38222e-16 0)
(3 5.06883e-16 0)
(3 8.63201e-16 0)
(3 1.03763e-15 0)
(3 8.55025e-16 0)
(3 6.17048e-16 0)
(3 7.97017e-16 0)
(3 1.48975e-16 0)
(3 -4.34961e-16 0)
(3 -1.36531e-15 0)
(3 -1.27381e-15 0)
(3 -1.99453e-15 0)
(3 -2.35798e-15 0)
(3 -3.3661e-15 0)
(3 -4.53452e-15 0)
(3 -6.14813e-15 0)
(3 -4.49035e-15 0)
(3 -2.00998e-15 0)
(3 -9.40881e-16 0)
(3 3.65411e-16 0)
(3 1.35866e-15 0)
(3 1.02334e-15 0)
(3 -5.16056e-16 0)
(3 5.00521e-16 0)
(3 1.584e-15 0)
(3 7.33086e-16 0)
(3 -8.86137e-16 0)
(3 -2.51486e-15 0)
(3 -2.28867e-15 0)
(3 -7.60138e-16 0)
(3 -2.80377e-16 0)
(3 1.0644e-15 0)
(3 2.53833e-15 0)
(3 3.32584e-15 0)
(3 3.124e-15 0)
(3 2.24572e-15 0)
(3 1.28591e-15 0)
(3 1.40648e-15 0)
(3 -6.45009e-18 0)
(3 -1.60663e-17 0)
(3 4.51268e-17 0)
(3 -1.85351e-16 0)
(3 -3.04313e-16 0)
(3 -2.4916e-16 0)
(3 9.73084e-17 0)
(3 4.62928e-16 0)
(3 -2.81965e-16 0)
(3 -1.07299e-15 0)
(3 -1.26403e-15 0)