/*--------------------------------*- C++ -*----------------------------------*\
  =========                 |
  \\      /  F ield         | OpenFOAM: The Open Source CFD Toolbox
   \\    /   O peration     | Website:  https://openfoam.org
    \\  /    A nd           | Version:  7
     \\/     M anipulation  |
\*---------------------------------------------------------------------------*/
FoamFile
{
    version     2.0;
    format      ascii;
    class       volVectorField;
    location    "3.4";
    object      U;
}
// * * * * * * * * * * * * * * * * * * * * * * * * * * * * * * * * * * * * * //

dimensions      [0 1 -1 0 0 0 0];

internalField   nonuniform List<vector> 
73728
(
(3 6.89181e-17 0)
(3 -6.7134e-17 0)
(3 -1.74759e-16 0)
(3 -2.58493e-16 0)
(3 -1.53753e-16 0)
(3 2.77873e-16 0)
(3 4.11402e-16 0)
(3 4.71203e-16 0)
(3 5.60351e-16 0)
(3 1.52209e-16 0)
(3 -6.88268e-16 0)
(3 -9.01833e-16 0)
(3 -6.06015e-16 0)
(3 -5.24946e-16 0)
(3 -3.68023e-16 0)
(3 7.11359e-16 0)
(3 1.25013e-15 0)
(3 1.09407e-15 0)
(3 9.88951e-16 0)
(3 5.78178e-16 0)
(3 1.22936e-15 0)
(3 5.31884e-16 0)
(3 3.03223e-16 0)
(3 1.77214e-16 0)
(3 2.35621e-16 0)
(3 2.81641e-16 0)
(3 9.4798e-16 0)
(3 2.24708e-16 0)
(3 8.389e-17 0)
(3 -5.32746e-17 0)
(3 -5.17609e-16 0)
(3 -5.72463e-16 0)
(3 -7.0821e-16 0)
(3 -5.69409e-16 0)
(3 -1.08204e-16 0)
(3 6.46574e-16 0)
(3 1.55901e-15 0)
(3 7.76455e-16 0)
(3 3.88278e-16 0)
(3 2.31238e-16 0)
(3 -1.49683e-17 0)
(3 -1.61618e-16 0)
(3 -5.2248e-16 0)
(3 -8.28307e-16 0)
(3 -4.51042e-16 0)
(3 1.79341e-16 0)
(3 1.95019e-16 0)
(3 -2.28987e-16 0)
(3 -5.41433e-16 0)
(3 -3.42438e-16 0)
(3 -3.85238e-16 0)
(3 -1.1825e-16 0)
(3 2.89003e-16 0)
(3 4.64508e-16 0)
(3 1.00233e-15 0)
(3 -2.18833e-16 0)
(3 -8.72286e-16 0)
(3 -7.79614e-16 0)
(3 9.44805e-17 0)
(3 4.6818e-16 0)
(3 1.10292e-15 0)
(3 1.41622e-15 0)
(3 1.1216e-15 0)
(3 5.15372e-16 0)
(3 6.69387e-16 0)
(3 8.41748e-16 0)
(3 7.33619e-16 0)
(3 7.09676e-16 0)
(3 8.8537e-17 0)
(3 1.44443e-15 0)
(3 1.77183e-15 0)
(3 1.38244e-15 0)
(3 9.3616e-16 0)
(3 2.47465e-16 0)
(3 -9.76516e-16 0)
(3 -8.93459e-17 0)
(2.63678 0.000210488 0)
(0.755043 0.000569307 0)
(0.53109 0.000972842 0)
(0.543013 0.00116624 0)
(0.555025 0.00214893 0)
(0.561233 0.00299195 0)
(0.55918 0.00360579 0)
(0.551232 0.00430234 0)
(0.537241 0.00496063 0)
(0.516067 0.00542952 0)
(0.489137 0.00586806 0)
(0.465449 0.00648619 0)
(0.449637 0.0072463 0)
(0.438786 0.00808651 0)
(0.434102 0.00924446 0)
(0.42991 0.0108536 0)
(0.422991 0.0136724 0)
(0.409132 0.0158642 0)
(0.383129 0.0280477 0)
(0.324872 0.0374325 0)
(3 9.48117e-17 0)
(3 -1.24135e-16 0)
(3 -3.48655e-16 0)
(3 -1.33662e-16 0)
(3 5.06965e-16 0)
(3 8.0659e-16 0)
(3 8.85306e-16 0)
(3 1.16719e-15 0)
(3 1.38097e-15 0)
(3 1.12032e-15 0)
(3 -4.08767e-16 0)
(3 -8.95189e-16 0)
(3 -4.87319e-16 0)
(3 -3.49003e-17 0)
(3 4.23989e-16 0)
(3 1.21023e-15 0)
(3 1.21872e-15 0)
(3 8.65919e-16 0)
(3 9.06988e-16 0)
(3 1.0663e-15 0)
(3 1.5884e-15 0)
(3 1.4236e-15 0)
(3 9.37998e-16 0)
(3 4.73191e-17 0)
(3 2.83532e-16 0)
(3 2.33793e-16 0)
(3 5.80472e-16 0)
(3 1.04262e-15 0)
(3 6.09466e-16 0)
(3 2.23238e-16 0)
(3 -7.07134e-16 0)
(3 -1.40079e-15 0)
(3 -1.79387e-15 0)
(3 -8.42737e-16 0)
(3 -1.10685e-17 0)
(3 1.69997e-15 0)
(3 2.54062e-15 0)
(3 1.10943e-15 0)
(3 1.08633e-15 0)
(3 1.11371e-15 0)
(3 4.92445e-16 0)
(3 -3.68849e-16 0)
(3 -1.76932e-15 0)
(3 -1.84618e-15 0)
(3 -7.82015e-16 0)
(3 2.13855e-16 0)
(3 -5.13869e-16 0)
(3 -1.31019e-15 0)
(3 -2.42872e-15 0)
(3 -1.80292e-15 0)
(3 -1.1835e-15 0)
(3 -1.07539e-15 0)
(3 -1.26282e-16 0)
(3 7.46732e-16 0)
(3 9.29378e-16 0)
(3 -6.55702e-16 0)
(3 -2.08702e-15 0)
(3 -1.93825e-15 0)
(3 -9.17592e-16 0)
(3 5.87972e-16 0)
(3 1.01899e-15 0)
(3 1.12469e-15 0)
(3 1.16745e-15 0)
(3 1.19745e-15 0)
(3 1.32955e-15 0)
(3 1.1225e-15 0)
(3 1.17264e-15 0)
(3 1.52567e-15 0)
(3 1.31054e-15 0)
(3 8.17811e-16 0)
(3 9.29773e-16 0)
(3 7.98974e-16 0)
(3 5.54844e-16 0)
(3 -2.65562e-16 0)
(3 -1.4554e-15 0)
(3 -2.46296e-16 0)
(2.63931 0.00158502 0)
(0.756089 0.00342755 0)
(0.531163 0.00402127 0)
(0.543026 0.00456334 0)
(0.554848 0.00754691 0)
(0.560704 0.0101221 0)
(0.558551 0.0119912 0)
(0.550285 0.0140404 0)
(0.536045 0.0159593 0)
(0.514727 0.0173094 0)
(0.487951 0.0186057 0)
(0.464717 0.0203943 0)
(0.449752 0.0226118 0)
(0.439521 0.0254922 0)
(0.435467 0.0288161 0)
(0.431381 0.0336614 0)
(0.426099 0.0415177 0)
(0.413022 0.0486911 0)
(0.398284 0.0685363 0)
(0.365455 0.0811958 0)
(3 -6.61782e-17 0)
(3 -4.14321e-17 0)
(3 -5.3762e-17 0)
(3 -9.39042e-18 0)
(3 1.21006e-16 0)
(3 2.02339e-16 0)
(3 4.37528e-16 0)
(3 1.22275e-15 0)
(3 1.13785e-15 0)
(3 1.35752e-15 0)
(3 9.90285e-16 0)
(3 1.3569e-16 0)
(3 -3.05325e-16 0)
(3 -6.67912e-16 0)
(3 -6.70972e-16 0)
(3 -1.16477e-15 0)
(3 -1.04639e-15 0)
(3 3.59655e-16 0)
(3 1.29308e-15 0)
(3 1.23605e-15 0)
(3 5.71178e-16 0)
(3 4.434e-16 0)
(3 4.71216e-16 0)
(3 5.18541e-16 0)
(3 -9.95396e-17 0)
(3 -4.35636e-16 0)
(3 -6.47392e-16 0)
(3 -5.69786e-16 0)
(3 4.46213e-16 0)
(3 6.83817e-16 0)
(3 1.37867e-16 0)
(3 -8.93269e-16 0)
(3 -1.44557e-15 0)
(3 -3.63798e-16 0)
(3 1.46802e-15 0)
(3 2.1185e-15 0)
(3 2.57299e-15 0)
(3 2.08039e-15 0)
(3 1.69075e-15 0)
(3 1.96231e-15 0)
(3 2.00809e-15 0)
(3 6.95568e-16 0)
(3 -1.27542e-16 0)
(3 -6.60357e-16 0)
(3 -1.11987e-15 0)
(3 -1.35929e-15 0)
(3 -1.27517e-15 0)
(3 -1.44538e-15 0)
(3 -8.55221e-16 0)
(3 -3.104e-16 0)
(3 2.12356e-16 0)
(3 -6.12319e-16 0)
(3 -2.8156e-16 0)
(3 2.93611e-17 0)
(3 2.38273e-16 0)
(3 1.35461e-16 0)
(3 1.77197e-16 0)
(3 2.15253e-17 0)
(3 4.41582e-16 0)
(3 8.74107e-16 0)
(3 2.19835e-16 0)
(3 -2.46127e-16 0)
(3 -5.40573e-16 0)
(3 3.3228e-16 0)
(3 7.86911e-16 0)
(3 4.34897e-16 0)
(3 8.91339e-16 0)
(3 1.40728e-15 0)
(3 1.58365e-15 0)
(3 2.92527e-16 0)
(3 -5.5814e-16 0)
(3 3.61902e-16 0)
(3 2.44385e-16 0)
(3 -1.23123e-16 0)
(3 -1.25933e-15 0)
(3 3.03689e-16 0)
(2.64596 0.00323409 0)
(0.759138 0.00689114 0)
(0.53263 0.00716408 0)
(0.544662 0.00805371 0)
(0.556571 0.0128481 0)
(0.562422 0.0169738 0)
(0.56026 0.0201292 0)
(0.551764 0.0233054 0)
(0.537478 0.026259 0)
(0.516278 0.0284086 0)
(0.490033 0.0305356 0)
(0.467695 0.0333235 0)
(0.453931 0.0366763 0)
(0.445125 0.0414011 0)
(0.442306 0.0468523 0)
(0.439435 0.0546457 0)
(0.437297 0.065011 0)
(0.427577 0.0745976 0)
(0.418437 0.0940492 0)
(0.401116 0.110876 0)
(3 4.63117e-17 0)
(3 4.22314e-18 0)
(3 -3.71075e-16 0)
(3 -4.57783e-16 0)
(3 -1.45546e-15 0)
(3 -1.27094e-15 0)
(3 -2.87416e-16 0)
(3 1.39936e-16 0)
(3 -1.35675e-16 0)
(3 -5.80712e-17 0)
(3 -5.72695e-16 0)
(3 -1.30538e-15 0)
(3 -1.25812e-15 0)
(3 -5.30282e-16 0)
(3 -6.94546e-16 0)
(3 -8.27697e-16 0)
(3 -1.55275e-16 0)
(3 1.37666e-15 0)
(3 1.42895e-15 0)
(3 1.24594e-15 0)
(3 6.92621e-16 0)
(3 3.98433e-16 0)
(3 2.06135e-16 0)
(3 3.43994e-16 0)
(3 1.52357e-16 0)
(3 1.35794e-16 0)
(3 -7.37999e-17 0)
(3 2.79389e-16 0)
(3 6.36222e-16 0)
(3 6.89425e-16 0)
(3 9.10571e-16 0)
(3 8.10162e-16 0)
(3 -8.9572e-16 0)
(3 -8.17158e-16 0)
(3 1.46494e-15 0)
(3 1.56332e-15 0)
(3 1.0917e-15 0)
(3 1.53195e-15 0)
(3 2.02359e-15 0)
(3 2.46088e-15 0)
(3 2.8001e-15 0)
(3 1.6161e-15 0)
(3 1.30595e-15 0)
(3 6.05415e-16 0)
(3 -1.24093e-15 0)
(3 -1.0736e-15 0)
(3 -4.25971e-16 0)
(3 -3.352e-17 0)
(3 1.89341e-16 0)
(3 8.68802e-17 0)
(3 -3.43159e-16 0)
(3 -6.22831e-16 0)
(3 -1.06955e-15 0)
(3 -8.03563e-16 0)
(3 -5.20888e-16 0)
(3 2.00907e-16 0)
(3 9.45709e-16 0)
(3 1.27095e-15 0)
(3 1.60004e-15 0)
(3 1.50421e-15 0)
(3 1.03149e-15 0)
(3 2.82674e-16 0)
(3 4.30682e-16 0)
(3 7.50792e-16 0)
(3 1.14492e-15 0)
(3 6.35819e-16 0)
(3 3.48554e-16 0)
(3 2.09718e-16 0)
(3 3.96821e-16 0)
(3 2.33102e-16 0)
(3 3.29344e-16 0)
(3 3.50556e-16 0)
(3 -2.47135e-16 0)
(3 -1.09597e-15 0)
(3 -1.03781e-16 0)
(3 1.14538e-15 0)
(2.657 0.00504957 0)
(0.76398 0.0109626 0)
(0.534802 0.0106254 0)
(0.547111 0.011675 0)
(0.559198 0.0179311 0)
(0.565427 0.0234308 0)
(0.563208 0.0278356 0)
(0.554493 0.0320307 0)
(0.540262 0.0359176 0)
(0.519257 0.0387847 0)
(0.493706 0.0415756 0)
(0.472584 0.0450767 0)
(0.460349 0.0494359 0)
(0.453493 0.0553575 0)
(0.452396 0.0623747 0)
(0.451383 0.0723033 0)
(0.451667 0.0838924 0)
(0.445217 0.0948351 0)
(0.438468 0.111507 0)
(0.428561 0.12714 0)
(3 -8.1975e-17 0)
(3 -1.80176e-16 0)
(3 -5.98549e-17 0)
(3 1.64162e-16 0)
(3 2.45239e-16 0)
(3 3.72787e-16 0)
(3 3.48642e-17 0)
(3 -4.1697e-16 0)
(3 -2.70584e-16 0)
(3 -4.51656e-16 0)
(3 -8.0064e-16 0)
(3 -1.14944e-15 0)
(3 -1.05379e-15 0)
(3 -8.33648e-16 0)
(3 -4.49719e-16 0)
(3 -2.61025e-16 0)
(3 -5.77867e-18 0)
(3 3.27902e-16 0)
(3 7.27619e-16 0)
(3 1.29859e-15 0)
(3 1.23997e-15 0)
(3 1.0556e-15 0)
(3 4.59056e-16 0)
(3 -5.21005e-16 0)
(3 -2.9159e-16 0)
(3 -4.06501e-16 0)
(3 -7.65391e-16 0)
(3 -2.78574e-16 0)
(3 8.98329e-17 0)
(3 5.24829e-16 0)
(3 9.65155e-16 0)
(3 1.19457e-15 0)
(3 9.11272e-16 0)
(3 6.31029e-16 0)
(3 1.30061e-15 0)
(3 8.99947e-16 0)
(3 5.37649e-16 0)
(3 8.19113e-16 0)
(3 1.18002e-15 0)
(3 1.32236e-15 0)
(3 9.62881e-16 0)
(3 1.42427e-15 0)
(3 2.14676e-15 0)
(3 2.33462e-15 0)
(3 7.07943e-16 0)
(3 -2.21502e-16 0)
(3 -2.26416e-16 0)
(3 3.01133e-16 0)
(3 -2.88614e-17 0)
(3 -1.42555e-15 0)
(3 -2.07411e-15 0)
(3 -1.41433e-15 0)
(3 -9.01247e-16 0)
(3 -5.35448e-16 0)
(3 -5.23176e-16 0)
(3 -1.94011e-16 0)
(3 2.83297e-16 0)
(3 8.60426e-16 0)
(3 1.03392e-15 0)
(3 1.36014e-15 0)
(3 1.49993e-15 0)
(3 1.10652e-15 0)
(3 1.59303e-15 0)
(3 8.03001e-16 0)
(3 -2.40123e-16 0)
(3 -6.86267e-16 0)
(3 -5.60229e-16 0)
(3 -2.70293e-16 0)
(3 5.03805e-17 0)
(3 3.2149e-16 0)
(3 4.50639e-16 0)
(3 -5.88108e-16 0)
(3 -1.20038e-15 0)
(3 -1.89985e-15 0)
(3 -4.63268e-16 0)
(3 3.00403e-16 0)
(2.67322 0.00725953 0)
(0.770888 0.0160889 0)
(0.537375 0.0146694 0)
(0.549874 0.0157234 0)
(0.561873 0.0231108 0)
(0.56824 0.0296726 0)
(0.565964 0.034889 0)
(0.557109 0.0398668 0)
(0.542848 0.044665 0)
(0.521938 0.0483008 0)
(0.497133 0.0516439 0)
(0.477675 0.0556854 0)
(0.467401 0.0608655 0)
(0.462875 0.0673148 0)
(0.463758 0.0751861 0)
(0.46544 0.086083 0)
(0.466851 0.0984003 0)
(0.462967 0.110132 0)
(0.456689 0.124322 0)
(0.449756 0.139292 0)
(3 -2.32355e-16 0)
(3 5.45788e-17 0)
(3 6.93764e-16 0)
(3 9.14991e-16 0)
(3 1.49919e-15 0)
(3 1.40272e-15 0)
(3 7.68517e-16 0)
(3 4.41312e-16 0)
(3 4.72937e-16 0)
(3 4.90303e-17 0)
(3 4.7554e-16 0)
(3 6.21298e-16 0)
(3 6.80163e-16 0)
(3 -2.74369e-16 0)
(3 -4.00285e-16 0)
(3 -4.79492e-16 0)
(3 -6.91526e-16 0)
(3 -1.06198e-15 0)
(3 -4.55833e-16 0)
(3 1.95807e-16 0)
(3 8.50857e-16 0)
(3 1.02184e-15 0)
(3 -3.84041e-16 0)
(3 -1.1584e-15 0)
(3 -1.27518e-15 0)
(3 -1.18268e-15 0)
(3 -7.95527e-16 0)
(3 -1.44073e-15 0)
(3 -1.26612e-15 0)
(3 -3.65797e-16 0)
(3 1.87922e-16 0)
(3 6.91669e-16 0)
(3 2.58204e-15 0)
(3 2.64545e-15 0)
(3 1.64708e-15 0)
(3 1.10639e-15 0)
(3 1.37007e-15 0)
(3 8.73964e-16 0)
(3 -4.73661e-16 0)
(3 -1.04443e-15 0)
(3 3.5434e-16 0)
(3 1.67153e-15 0)
(3 1.8615e-15 0)
(3 2.27189e-15 0)
(3 1.83545e-15 0)
(3 7.41518e-16 0)
(3 -2.52776e-16 0)
(3 -6.75638e-16 0)
(3 8.08648e-17 0)
(3 -3.87393e-16 0)
(3 -5.87927e-16 0)
(3 2.25814e-16 0)
(3 4.19576e-16 0)
(3 8.6885e-16 0)
(3 1.00383e-15 0)
(3 7.71656e-16 0)
(3 4.37628e-16 0)
(3 8.76761e-16 0)
(3 4.96462e-16 0)
(3 9.20791e-16 0)
(3 1.34022e-15 0)
(3 1.6893e-15 0)
(3 1.30037e-15 0)
(3 1.47519e-15 0)
(3 -4.34938e-16 0)
(3 -1.71898e-15 0)
(3 -1.34297e-15 0)
(3 -7.48506e-16 0)
(3 -4.34504e-16 0)
(3 -2.7501e-16 0)
(3 -3.27779e-16 0)
(3 -9.66496e-16 0)
(3 -1.41463e-15 0)
(3 -1.34914e-15 0)
(3 -9.80395e-16 0)
(3 -5.22891e-16 0)
(2.69565 0.00971217 0)
(0.780576 0.0222761 0)
(0.540743 0.0192533 0)
(0.553337 0.0202841 0)
(0.564967 0.0286212 0)
(0.571117 0.0357187 0)
(0.568809 0.0411712 0)
(0.56 0.0465929 0)
(0.545664 0.0521462 0)
(0.524674 0.0565998 0)
(0.500548 0.0604111 0)
(0.483046 0.0649574 0)
(0.474865 0.0707088 0)
(0.472568 0.0772949 0)
(0.475449 0.0854777 0)
(0.480073 0.0963364 0)
(0.48206 0.108868 0)
(0.479775 0.121011 0)
(0.473714 0.133785 0)
(0.468014 0.147479 0)
(3 3.98519e-17 0)
(3 7.7942e-17 0)
(3 -6.43536e-18 0)
(3 2.7841e-17 0)
(3 1.00656e-15 0)
(3 8.27981e-16 0)
(3 8.92861e-16 0)
(3 6.92676e-16 0)
(3 -4.60801e-17 0)
(3 -2.71374e-16 0)
(3 2.265e-16 0)
(3 4.19985e-16 0)
(3 7.2674e-16 0)
(3 8.87052e-16 0)
(3 9.09436e-16 0)
(3 7.66368e-16 0)
(3 5.05858e-17 0)
(3 -7.33659e-16 0)
(3 -5.48242e-16 0)
(3 1.31737e-16 0)
(3 7.29984e-16 0)
(3 3.18225e-16 0)
(3 -3.74255e-16 0)
(3 -1.81372e-16 0)
(3 -4.96945e-16 0)
(3 -6.30093e-16 0)
(3 -6.0534e-16 0)
(3 -3.42951e-16 0)
(3 2.76288e-16 0)
(3 2.48269e-16 0)
(3 9.65278e-17 0)
(3 9.04254e-16 0)
(3 2.04608e-15 0)
(3 1.63507e-15 0)
(3 8.95195e-16 0)
(3 8.25022e-16 0)
(3 8.81196e-16 0)
(3 6.89451e-16 0)
(3 2.89965e-16 0)
(3 -7.99907e-16 0)
(3 -3.37503e-16 0)
(3 1.92346e-16 0)
(3 -4.57999e-17 0)
(3 -9.44655e-17 0)
(3 7.70968e-16 0)
(3 1.43777e-15 0)
(3 1.12612e-15 0)
(3 6.33038e-17 0)
(3 4.61597e-18 0)
(3 6.34301e-16 0)
(3 4.17403e-16 0)
(3 1.33482e-15 0)
(3 1.74913e-15 0)
(3 1.58354e-15 0)
(3 1.46747e-15 0)
(3 1.26536e-15 0)
(3 6.42026e-16 0)
(3 5.47441e-16 0)
(3 3.42416e-16 0)
(3 6.46019e-16 0)
(3 8.00083e-16 0)
(3 1.20687e-15 0)
(3 1.35827e-15 0)
(3 9.28406e-16 0)
(3 6.63348e-16 0)
(3 5.80797e-16 0)
(3 4.15889e-16 0)
(3 4.68804e-16 0)
(3 7.80975e-16 0)
(3 1.28758e-15 0)
(3 1.34953e-15 0)
(3 -1.32188e-16 0)
(3 -7.83959e-16 0)
(3 -1.11347e-15 0)
(3 -1.36989e-15 0)
(3 -1.59151e-15 0)
(2.72442 0.0118947 0)
(0.793592 0.0290006 0)
(0.545119 0.0242396 0)
(0.557703 0.0254079 0)
(0.568564 0.0346596 0)
(0.573998 0.0416379 0)
(0.571628 0.0466857 0)
(0.563105 0.0522075 0)
(0.548634 0.0582375 0)
(0.527413 0.0634921 0)
(0.503972 0.0678989 0)
(0.488566 0.0730911 0)
(0.482276 0.0792556 0)
(0.481888 0.0858844 0)
(0.486711 0.0939942 0)
(0.493886 0.104329 0)
(0.496785 0.116374 0)
(0.495208 0.128104 0)
(0.489714 0.139889 0)
(0.484176 0.152355 0)
(3 -3.17127e-17 0)
(3 -3.55346e-16 0)
(3 -2.34861e-16 0)
(3 2.56467e-16 0)
(3 2.85935e-16 0)
(3 2.72959e-16 0)
(3 -2.78207e-16 0)
(3 -4.68323e-16 0)
(3 -3.90912e-16 0)
(3 -5.92998e-16 0)
(3 -3.68018e-16 0)
(3 -5.45898e-17 0)
(3 2.77399e-17 0)
(3 4.50002e-16 0)
(3 3.88545e-16 0)
(3 6.60845e-16 0)
(3 9.44954e-16 0)
(3 1.0942e-15 0)
(3 1.25389e-15 0)
(3 5.40796e-16 0)
(3 -3.14444e-17 0)
(3 -6.39728e-17 0)
(3 7.81852e-16 0)
(3 1.31516e-15 0)
(3 1.21076e-15 0)
(3 6.8371e-16 0)
(3 2.83634e-16 0)
(3 9.78575e-16 0)
(3 1.57123e-15 0)
(3 1.2434e-15 0)
(3 1.68729e-15 0)
(3 2.09167e-15 0)
(3 1.56049e-15 0)
(3 1.22549e-15 0)
(3 1.14875e-15 0)
(3 4.94654e-16 0)
(3 -3.04806e-17 0)
(3 4.36493e-16 0)
(3 1.27572e-15 0)
(3 1.07745e-15 0)
(3 -7.68626e-17 0)
(3 -7.89855e-16 0)
(3 -4.55945e-16 0)
(3 -3.91422e-17 0)
(3 7.49682e-16 0)
(3 6.91439e-16 0)
(3 8.37503e-16 0)
(3 1.09161e-15 0)
(3 5.71434e-16 0)
(3 4.54406e-16 0)
(3 2.20117e-16 0)
(3 -6.54333e-16 0)
(3 -3.12972e-16 0)
(3 4.0056e-16 0)
(3 3.99022e-16 0)
(3 -4.37735e-17 0)
(3 1.29813e-17 0)
(3 -3.55813e-16 0)
(3 -2.65892e-16 0)
(3 -5.74658e-16 0)
(3 -6.65894e-16 0)
(3 -4.41921e-17 0)
(3 5.54058e-16 0)
(3 3.57868e-16 0)
(3 4.88484e-16 0)
(3 7.03856e-16 0)
(3 6.2873e-16 0)
(3 6.82663e-16 0)
(3 1.23273e-15 0)
(3 1.59416e-15 0)
(3 1.71046e-15 0)
(3 1.02217e-15 0)
(3 -3.99259e-17 0)
(3 1.15841e-16 0)
(3 -1.18851e-15 0)
(3 -1.97904e-15 0)
(2.75844 0.0134874 0)
(0.810185 0.03595 0)
(0.550646 0.0295042 0)
(0.563001 0.0314882 0)
(0.572461 0.0414215 0)
(0.576563 0.0474175 0)
(0.57418 0.0514819 0)
(0.566142 0.0568164 0)
(0.551651 0.0629478 0)
(0.530212 0.0687943 0)
(0.507781 0.0740028 0)
(0.494502 0.080002 0)
(0.489643 0.0866121 0)
(0.490796 0.0934071 0)
(0.497326 0.101352 0)
(0.506469 0.111029 0)
(0.510457 0.122151 0)
(0.509056 0.132784 0)
(0.504303 0.143464 0)
(0.498534 0.154348 0)
(3 1.87775e-17 0)
(3 2.77553e-17 0)
(3 3.93753e-16 0)
(3 7.0456e-16 0)
(3 3.17671e-16 0)
(3 1.8765e-16 0)
(3 -3.69715e-17 0)
(3 -1.43676e-16 0)
(3 8.96964e-17 0)
(3 2.05659e-16 0)
(3 2.26364e-16 0)
(3 3.16406e-16 0)
(3 1.42417e-16 0)
(3 -1.38248e-16 0)
(3 -8.07011e-16 0)
(3 -5.67937e-16 0)
(3 3.77738e-17 0)
(3 8.75278e-16 0)
(3 7.08326e-16 0)
(3 9.42706e-16 0)
(3 -1.27311e-16 0)
(3 -2.56991e-16 0)
(3 3.07838e-16 0)
(3 8.10524e-16 0)
(3 5.99975e-16 0)
(3 4.81851e-16 0)
(3 5.75199e-16 0)
(3 6.10563e-16 0)
(3 4.4029e-16 0)
(3 3.71714e-16 0)
(3 1.13368e-15 0)
(3 1.44807e-15 0)
(3 9.33914e-16 0)
(3 5.10736e-16 0)
(3 4.21749e-16 0)
(3 -5.2646e-16 0)
(3 -1.19702e-15 0)
(3 -1.28644e-15 0)
(3 -5.17615e-16 0)
(3 3.978e-16 0)
(3 1.00422e-15 0)
(3 5.88772e-16 0)
(3 2.04126e-16 0)
(3 -1.35441e-16 0)
(3 -9.58942e-17 0)
(3 -1.74584e-16 0)
(3 -2.62831e-16 0)
(3 -1.92026e-16 0)
(3 -4.39378e-16 0)
(3 -1.86793e-16 0)
(3 4.28815e-16 0)
(3 -7.5784e-16 0)
(3 -9.1241e-16 0)
(3 -5.41953e-16 0)
(3 -4.19714e-16 0)
(3 -3.1497e-16 0)
(3 3.97092e-16 0)
(3 -5.28212e-16 0)
(3 -5.63182e-16 0)
(3 -7.85091e-16 0)
(3 -9.81795e-16 0)
(3 -8.29872e-16 0)
(3 -9.90865e-16 0)
(3 -7.57574e-16 0)
(3 -1.14218e-16 0)
(3 -7.71905e-18 0)
(3 9.8684e-18 0)
(3 -5.88586e-17 0)
(3 -1.56817e-16 0)
(3 -9.06303e-16 0)
(3 -9.43848e-16 0)
(3 5.06627e-16 0)
(3 4.81835e-16 0)
(3 -9.18118e-17 0)
(3 -2.42719e-16 0)
(3 -4.75107e-16 0)
(2.79625 0.0142952 0)
(0.830876 0.0428919 0)
(0.557544 0.0350678 0)
(0.569279 0.0382192 0)
(0.576475 0.0487805 0)
(0.578677 0.052945 0)
(0.576299 0.0557493 0)
(0.568777 0.0606781 0)
(0.554332 0.0664734 0)
(0.532845 0.0724708 0)
(0.512122 0.0786415 0)
(0.500876 0.0855792 0)
(0.497094 0.092775 0)
(0.499415 0.100008 0)
(0.507333 0.10801 0)
(0.517871 0.117218 0)
(0.522628 0.127385 0)
(0.521059 0.136788 0)
(0.517145 0.146231 0)
(0.510944 0.155348 0)
(3 -1.34403e-16 0)
(3 -1.17186e-16 0)
(3 3.04611e-16 0)
(3 4.72118e-16 0)
(3 1.72684e-16 0)
(3 3.61616e-16 0)
(3 1.06532e-15 0)
(3 1.2638e-15 0)
(3 1.08519e-15 0)
(3 8.88997e-16 0)
(3 8.45345e-16 0)
(3 6.28014e-16 0)
(3 5.49503e-16 0)
(3 7.71573e-16 0)
(3 9.70764e-16 0)
(3 3.28994e-16 0)
(3 -5.50147e-16 0)
(3 -9.43001e-17 0)
(3 -5.98279e-16 0)
(3 -1.17475e-15 0)
(3 -1.38357e-15 0)
(3 -1.44515e-15 0)
(3 -1.00671e-15 0)
(3 -7.06322e-16 0)
(3 -3.57724e-16 0)
(3 -3.70946e-16 0)
(3 -2.9548e-16 0)
(3 -9.8331e-17 0)
(3 -1.22224e-16 0)
(3 6.15652e-16 0)
(3 5.80812e-16 0)
(3 9.8252e-16 0)
(3 1.20319e-15 0)
(3 7.17942e-16 0)
(3 -2.51103e-16 0)
(3 -8.66901e-16 0)
(3 -1.326e-15 0)
(3 -1.98302e-15 0)
(3 -1.52899e-15 0)
(3 -5.53095e-16 0)
(3 1.19453e-15 0)
(3 1.37604e-15 0)
(3 7.90399e-16 0)
(3 8.44125e-17 0)
(3 -8.46828e-16 0)
(3 -7.79758e-16 0)
(3 -8.59342e-16 0)
(3 -1.65057e-15 0)
(3 -1.75663e-15 0)
(3 -7.37883e-16 0)
(3 7.97233e-16 0)
(3 4.63701e-16 0)
(3 5.41033e-16 0)
(3 -9.56894e-17 0)
(3 -7.83519e-16 0)
(3 -1.00311e-15 0)
(3 -6.38375e-16 0)
(3 -1.43903e-16 0)
(3 -3.48661e-16 0)
(3 -5.27686e-16 0)
(3 -6.05949e-16 0)
(3 -1.80767e-15 0)
(3 -2.5762e-15 0)
(3 -1.83187e-15 0)
(3 -7.14488e-16 0)
(3 3.16623e-17 0)
(3 1.43478e-16 0)
(3 4.44195e-16 0)
(3 6.06616e-16 0)
(3 7.63094e-16 0)
(3 2.93223e-16 0)
(3 -2.80511e-17 0)
(3 -1.46408e-16 0)
(3 -5.2135e-16 0)
(3 -2.88046e-16 0)
(3 -2.4855e-16 0)
(2.83613 0.0141062 0)
(0.856319 0.049519 0)
(0.565981 0.040446 0)
(0.576256 0.0457871 0)
(0.580401 0.0564159 0)
(0.5806 0.0581655 0)
(0.577786 0.0598855 0)
(0.570503 0.0640467 0)
(0.556033 0.0691052 0)
(0.535033 0.0747381 0)
(0.517048 0.0816703 0)
(0.507725 0.0894852 0)
(0.504892 0.0974721 0)
(0.508058 0.10543 0)
(0.517078 0.113907 0)
(0.528441 0.123079 0)
(0.533348 0.132527 0)
(0.531521 0.140936 0)
(0.528072 0.149233 0)
(0.521339 0.156721 0)
(3 -4.55529e-17 0)
(3 -5.52107e-17 0)
(3 1.29496e-16 0)
(3 2.14497e-17 0)
(3 5.7148e-17 0)
(3 4.43038e-16 0)
(3 1.11549e-15 0)
(3 1.00783e-15 0)
(3 8.64979e-16 0)
(3 1.00113e-15 0)
(3 2.1797e-16 0)
(3 1.89033e-16 0)
(3 6.25035e-16 0)
(3 1.21734e-15 0)
(3 1.39948e-15 0)
(3 1.15323e-15 0)
(3 7.98751e-16 0)
(3 2.30558e-16 0)
(3 -6.2061e-16 0)
(3 -1.27589e-15 0)
(3 -1.69354e-15 0)
(3 -1.70831e-15 0)
(3 -1.42764e-15 0)
(3 -1.0774e-15 0)
(3 -1.93889e-16 0)
(3 2.27061e-16 0)
(3 -1.97e-16 0)
(3 -4.70754e-16 0)
(3 -1.23822e-16 0)
(3 9.0043e-17 0)
(3 1.48817e-16 0)
(3 1.27132e-17 0)
(3 1.46957e-16 0)
(3 4.02584e-16 0)
(3 -3.80185e-18 0)
(3 -2.75395e-16 0)
(3 -1.16239e-15 0)
(3 -1.34529e-15 0)
(3 -1.37269e-15 0)
(3 -7.32255e-16 0)
(3 7.30928e-18 0)
(3 7.14716e-16 0)
(3 4.88866e-16 0)
(3 2.86632e-16 0)
(3 -2.32458e-16 0)
(3 -5.56221e-16 0)
(3 -6.55688e-16 0)
(3 -3.71419e-16 0)
(3 1.37795e-18 0)
(3 1.07274e-16 0)
(3 9.35216e-18 0)
(3 -3.24541e-17 0)
(3 -5.74626e-17 0)
(3 -1.5352e-16 0)
(3 -4.9386e-16 0)
(3 -6.30768e-16 0)
(3 -1.25539e-15 0)
(3 -7.84859e-16 0)
(3 -1.88574e-16 0)
(3 -4.09866e-16 0)
(3 -1.31645e-15 0)
(3 -1.16973e-15 0)
(3 -1.16903e-15 0)
(3 -1.24503e-15 0)
(3 -1.61667e-15 0)
(3 -1.76375e-15 0)
(3 -9.53933e-16 0)
(3 -2.57163e-16 0)
(3 -1.38716e-16 0)
(3 4.29026e-16 0)
(3 3.47092e-16 0)
(3 4.96933e-17 0)
(3 -4.0831e-16 0)
(3 -1.42389e-16 0)
(3 3.27611e-17 0)
(3 -3.44264e-16 0)
(2.87626 0.0127346 0)
(0.886971 0.0556746 0)
(0.575901 0.0459518 0)
(0.583453 0.0542729 0)
(0.584162 0.0638133 0)
(0.58241 0.0634565 0)
(0.578714 0.0639447 0)
(0.570959 0.0670685 0)
(0.55661 0.0712375 0)
(0.536644 0.0761459 0)
(0.522069 0.083304 0)
(0.514961 0.0916635 0)
(0.513193 0.100392 0)
(0.517074 0.10929 0)
(0.526987 0.118664 0)
(0.538561 0.128343 0)
(0.54294 0.137522 0)
(0.540838 0.145357 0)
(0.537311 0.152707 0)
(0.529935 0.158943 0)
(3 7.39884e-17 0)
(3 1.31764e-16 0)
(3 2.28841e-16 0)
(3 2.23063e-16 0)
(3 2.38951e-16 0)
(3 1.07582e-17 0)
(3 -8.58789e-16 0)
(3 -1.05226e-15 0)
(3 -4.10694e-16 0)
(3 1.32179e-16 0)
(3 -1.21303e-16 0)
(3 9.83967e-17 0)
(3 3.82081e-16 0)
(3 1.91182e-16 0)
(3 6.97061e-17 0)
(3 -2.11651e-16 0)
(3 -2.43274e-16 0)
(3 -5.312e-16 0)
(3 -6.8381e-16 0)
(3 -5.74493e-16 0)
(3 -4.62328e-16 0)
(3 -5.88005e-16 0)
(3 -4.87823e-16 0)
(3 -9.95274e-16 0)
(3 -1.50935e-16 0)
(3 7.03484e-16 0)
(3 8.73933e-16 0)
(3 4.3955e-16 0)
(3 3.29456e-17 0)
(3 -1.17596e-16 0)
(3 1.79256e-16 0)
(3 2.59676e-16 0)
(3 5.14446e-17 0)
(3 -6.32674e-17 0)
(3 3.03465e-16 0)
(3 3.78673e-16 0)
(3 5.54203e-16 0)
(3 8.42714e-16 0)
(3 2.36585e-16 0)
(3 -3.09258e-16 0)
(3 -6.92003e-16 0)
(3 -1.28468e-15 0)
(3 -1.23368e-15 0)
(3 -7.99011e-16 0)
(3 -7.49372e-16 0)
(3 -8.85756e-16 0)
(3 -5.19726e-16 0)
(3 3.45286e-17 0)
(3 8.45193e-16 0)
(3 1.44602e-15 0)
(3 9.48085e-16 0)
(3 3.39745e-16 0)
(3 2.72978e-16 0)
(3 5.97956e-16 0)
(3 6.7165e-16 0)
(3 -2.99959e-16 0)
(3 -1.2164e-15 0)
(3 -3.46883e-16 0)
(3 5.54668e-16 0)
(3 6.01495e-16 0)
(3 -6.76477e-17 0)
(3 2.39739e-17 0)
(3 5.27119e-17 0)
(3 2.44671e-17 0)
(3 -1.35422e-15 0)
(3 -1.51501e-15 0)
(3 -6.72725e-16 0)
(3 -3.31761e-16 0)
(3 -6.81926e-16 0)
(3 -9.76658e-16 0)
(3 -7.39754e-16 0)
(3 -2.76783e-16 0)
(3 5.56116e-16 0)
(3 4.1613e-16 0)
(3 4.42899e-16 0)
(3 4.07422e-16 0)
(2.9156 0.0101207 0)
(0.922975 0.0616763 0)
(0.587078 0.0515581 0)
(0.589989 0.0636756 0)
(0.587751 0.0706257 0)
(0.58396 0.0687544 0)
(0.57918 0.0677111 0)
(0.57046 0.0700452 0)
(0.55613 0.0732626 0)
(0.537693 0.0772306 0)
(0.526716 0.0840776 0)
(0.522135 0.0924367 0)
(0.521682 0.101779 0)
(0.526663 0.111517 0)
(0.537438 0.121969 0)
(0.548586 0.132518 0)
(0.551945 0.141754 0)
(0.549395 0.149423 0)
(0.545297 0.156149 0)
(0.537053 0.16151 0)
(3 3.38261e-17 0)
(3 2.32163e-16 0)
(3 2.61976e-16 0)
(3 1.28563e-16 0)
(3 2.72645e-16 0)
(3 -4.27415e-16 0)
(3 -1.50727e-15 0)
(3 -2.55994e-15 0)
(3 -2.23761e-15 0)
(3 -1.9029e-15 0)
(3 -9.45274e-16 0)
(3 -4.40813e-16 0)
(3 -4.90837e-17 0)
(3 -1.44932e-16 0)
(3 -7.73034e-16 0)
(3 -9.50853e-16 0)
(3 -1.22502e-15 0)
(3 -1.15157e-15 0)
(3 -8.7343e-16 0)
(3 -1.45318e-16 0)
(3 3.4435e-16 0)
(3 5.08354e-16 0)
(3 1.65851e-17 0)
(3 -3.60106e-16 0)
(3 -4.58592e-16 0)
(3 -2.59036e-16 0)
(3 -1.66392e-16 0)
(3 -1.71853e-16 0)
(3 -3.17497e-16 0)
(3 -4.16167e-16 0)
(3 -3.41824e-16 0)
(3 7.69037e-18 0)
(3 5.87627e-17 0)
(3 -1.30498e-17 0)
(3 -1.31862e-16 0)
(3 6.34646e-16 0)
(3 1.76685e-15 0)
(3 1.68162e-15 0)
(3 1.70897e-15 0)
(3 3.72661e-16 0)
(3 -7.8262e-16 0)
(3 -1.6738e-15 0)
(3 -2.00312e-15 0)
(3 -1.70984e-15 0)
(3 -1.26449e-15 0)
(3 -9.53801e-16 0)
(3 -6.81261e-16 0)
(3 -4.27798e-16 0)
(3 -1.1715e-16 0)
(3 -7.44415e-17 0)
(3 4.07221e-16 0)
(3 5.55829e-16 0)
(3 1.18505e-15 0)
(3 1.53377e-15 0)
(3 8.55865e-16 0)
(3 9.02154e-16 0)
(3 1.14749e-15 0)
(3 5.56121e-16 0)
(3 1.35509e-16 0)
(3 1.21674e-16 0)
(3 -3.98383e-16 0)
(3 -9.1135e-16 0)
(3 -4.3862e-16 0)
(3 -5.6601e-16 0)
(3 -6.8297e-16 0)
(3 -4.41163e-16 0)
(3 -2.67379e-16 0)
(3 -1.65851e-16 0)
(3 -1.38806e-16 0)
(3 -2.36962e-16 0)
(3 -1.10178e-16 0)
(3 1.5843e-16 0)
(3 3.99629e-16 0)
(3 -1.0479e-16 0)
(3 -3.33188e-16 0)
(3 -2.70214e-16 0)
(2.95463 0.00597087 0)
(0.963987 0.0681029 0)
(0.598528 0.0571055 0)
(0.594991 0.0735571 0)
(0.591165 0.0767523 0)
(0.585491 0.0735127 0)
(0.579374 0.0714197 0)
(0.569522 0.0731108 0)
(0.554748 0.0751887 0)
(0.538317 0.078179 0)
(0.53091 0.0844786 0)
(0.528624 0.092574 0)
(0.529964 0.102136 0)
(0.536547 0.112587 0)
(0.548395 0.123801 0)
(0.558651 0.135024 0)
(0.560746 0.144341 0)
(0.557691 0.152079 0)
(0.552563 0.158402 0)
(0.542846 0.163443 0)
(3 2.85588e-16 0)
(3 8.83459e-16 0)
(3 4.51106e-16 0)
(3 -1.53658e-16 0)
(3 -2.92664e-16 0)
(3 -3.71167e-16 0)
(3 -2.28049e-16 0)
(3 -6.61627e-16 0)
(3 -1.29348e-15 0)
(3 -8.75788e-16 0)
(3 -3.26488e-16 0)
(3 4.59166e-16 0)
(3 4.24713e-16 0)
(3 -5.0037e-17 0)
(3 -2.86812e-16 0)
(3 -1.02298e-16 0)
(3 1.7046e-16 0)
(3 7.10373e-17 0)
(3 -7.31357e-17 0)
(3 2.06199e-16 0)
(3 1.04595e-15 0)
(3 1.20212e-15 0)
(3 1.02722e-15 0)
(3 8.41717e-16 0)
(3 -1.83018e-16 0)
(3 -4.40445e-17 0)
(3 -2.10716e-16 0)
(3 -2.95778e-16 0)
(3 -6.72448e-17 0)
(3 -2.25221e-16 0)
(3 -6.77833e-16 0)
(3 -1.21019e-15 0)
(3 -4.80936e-16 0)
(3 -2.71656e-16 0)
(3 -3.67734e-16 0)
(3 -1.50297e-16 0)
(3 1.95167e-16 0)
(3 3.17249e-16 0)
(3 2.57678e-16 0)
(3 -2.96892e-16 0)
(3 -8.2213e-16 0)
(3 -1.19968e-15 0)
(3 -1.50468e-15 0)
(3 -1.21623e-15 0)
(3 -2.1574e-16 0)
(3 -2.60415e-16 0)
(3 -7.6651e-16 0)
(3 -6.74254e-16 0)
(3 -6.27715e-16 0)
(3 -1.4376e-15 0)
(3 -1.16589e-15 0)
(3 -2.47256e-16 0)
(3 4.19003e-17 0)
(3 2.25846e-16 0)
(3 5.0569e-16 0)
(3 1.16135e-15 0)
(3 1.40169e-15 0)
(3 -4.27133e-16 0)
(3 -1.21784e-15 0)
(3 -1.17762e-15 0)
(3 -1.11728e-15 0)
(3 -1.17566e-15 0)
(3 -3.46333e-16 0)
(3 -8.07559e-16 0)
(3 -1.40763e-15 0)
(3 -1.90047e-15 0)
(3 -2.16783e-15 0)
(3 -1.48713e-15 0)
(3 -6.13229e-16 0)
(3 7.51549e-16 0)
(3 1.69367e-15 0)
(3 1.37275e-15 0)
(3 9.00754e-16 0)
(3 7.95344e-16 0)
(3 6.12442e-16 0)
(3 1.53045e-16 0)
(2.99003 0.00105145 0)
(1.00968 0.0753007 0)
(0.60846 0.0634853 0)
(0.598371 0.0821402 0)
(0.594492 0.0821484 0)
(0.587039 0.0776653 0)
(0.579627 0.0751118 0)
(0.568377 0.0761247 0)
(0.55271 0.0769618 0)
(0.538905 0.0792117 0)
(0.534614 0.0847028 0)
(0.534301 0.0924777 0)
(0.537571 0.102288 0)
(0.546308 0.1129 0)
(0.559317 0.124637 0)
(0.568307 0.13593 0)
(0.569176 0.144982 0)
(0.565705 0.15266 0)
(0.559277 0.158577 0)
(0.547688 0.163554 0)
(3 1.04932e-17 0)
(3 -1.96115e-16 0)
(3 -2.72458e-16 0)
(3 -4.21434e-16 0)
(3 -6.56345e-16 0)
(3 -4.0036e-16 0)
(3 -8.90165e-17 0)
(3 8.27951e-17 0)
(3 -1.10746e-16 0)
(3 7.19363e-16 0)
(3 1.14984e-15 0)
(3 1.8651e-15 0)
(3 1.428e-15 0)
(3 6.03923e-16 0)
(3 3.61209e-16 0)
(3 2.60791e-16 0)
(3 7.16191e-16 0)
(3 1.23147e-16 0)
(3 -4.10104e-16 0)
(3 4.76407e-17 0)
(3 5.67404e-16 0)
(3 6.85726e-16 0)
(3 9.85533e-16 0)
(3 1.59668e-15 0)
(3 9.8643e-16 0)
(3 7.41629e-17 0)
(3 -2.48356e-16 0)
(3 -1.55627e-16 0)
(3 -3.64276e-16 0)
(3 -2.79239e-16 0)
(3 -2.76268e-16 0)
(3 -3.05045e-16 0)
(3 -1.29208e-17 0)
(3 4.55159e-16 0)
(3 8.09409e-16 0)
(3 4.61348e-16 0)
(3 -3.68592e-16 0)
(3 -6.12691e-16 0)
(3 -5.97227e-16 0)
(3 -5.9705e-16 0)
(3 -7.16507e-16 0)
(3 -6.73719e-16 0)
(3 1.0784e-16 0)
(3 -4.97523e-17 0)
(3 -3.99051e-16 0)
(3 -2.96226e-16 0)
(3 -2.37455e-16 0)
(3 -2.45171e-16 0)
(3 -5.09768e-16 0)
(3 -3.15762e-16 0)
(3 2.12639e-16 0)
(3 2.27105e-16 0)
(3 -3.56774e-16 0)
(3 -1.26699e-15 0)
(3 -1.6528e-16 0)
(3 8.44758e-16 0)
(3 8.83776e-16 0)
(3 8.20327e-16 0)
(3 4.28094e-16 0)
(3 -4.06189e-16 0)
(3 -1.01189e-15 0)
(3 -5.60764e-16 0)
(3 -1.46764e-15 0)
(3 -1.70823e-15 0)
(3 -1.36916e-15 0)
(3 -1.22527e-15 0)
(3 -1.81709e-15 0)
(3 -1.35697e-15 0)
(3 -9.09679e-16 0)
(3 4.4619e-17 0)
(3 2.11879e-16 0)
(3 6.75251e-17 0)
(3 1.12321e-16 0)
(3 1.05333e-15 0)
(3 1.18865e-15 0)
(3 1.30326e-15 0)
(2.99999 7.85261e-06 0)
(1.0618 0.0823186 0)
(0.616591 0.071283 0)
(0.601265 0.0883804 0)
(0.597164 0.0868707 0)
(0.588525 0.0813316 0)
(0.580113 0.078608 0)
(0.567071 0.0787679 0)
(0.550543 0.0784485 0)
(0.539987 0.0804079 0)
(0.53794 0.0851681 0)
(0.539304 0.0929134 0)
(0.544719 0.102814 0)
(0.555725 0.113908 0)
(0.569457 0.125513 0)
(0.57679 0.136057 0)
(0.57673 0.144315 0)
(0.573016 0.151475 0)
(0.565147 0.15689 0)
(0.551814 0.161795 0)
(3 -2.86286e-16 0)
(3 -5.44778e-16 0)
(3 -3.55892e-16 0)
(3 -4.47762e-16 0)
(3 -6.25741e-16 0)
(3 -3.27184e-16 0)
(3 6.86582e-17 0)
(3 4.96145e-16 0)
(3 6.65448e-16 0)
(3 9.77016e-16 0)
(3 1.35382e-15 0)
(3 1.50765e-15 0)
(3 1.03428e-15 0)
(3 5.87815e-16 0)
(3 1.74445e-16 0)
(3 -3.42496e-16 0)
(3 -1.30174e-15 0)
(3 -1.53777e-15 0)
(3 -1.52651e-15 0)
(3 -1.6504e-15 0)
(3 -1.45188e-15 0)
(3 -6.06379e-16 0)
(3 -1.01238e-16 0)
(3 5.33218e-16 0)
(3 5.9433e-16 0)
(3 3.08366e-16 0)
(3 -1.86194e-16 0)
(3 -7.61492e-16 0)
(3 -1.3462e-15 0)
(3 -9.30149e-16 0)
(3 -1.06709e-15 0)
(3 -8.61743e-16 0)
(3 -1.66821e-16 0)
(3 4.42073e-16 0)
(3 9.49896e-16 0)
(3 2.77368e-16 0)
(3 -4.0374e-16 0)
(3 -7.12593e-16 0)
(3 -8.86534e-16 0)
(3 -1.00031e-15 0)
(3 -9.21849e-16 0)
(3 -9.11459e-16 0)
(3 -6.85698e-16 0)
(3 -5.70288e-16 0)
(3 -1.03137e-15 0)
(3 -4.80713e-16 0)
(3 1.59177e-16 0)
(3 -1.93614e-16 0)
(3 -3.79652e-16 0)
(3 1.38623e-16 0)
(3 8.56807e-16 0)
(3 6.35844e-16 0)
(3 -4.60764e-16 0)
(3 -1.73065e-15 0)
(3 -1.23139e-15 0)
(3 -6.27095e-16 0)
(3 -7.25675e-16 0)
(3 -6.00084e-16 0)
(3 -2.6006e-16 0)
(3 -7.76063e-16 0)
(3 -1.20563e-15 0)
(3 -9.60409e-16 0)
(3 -1.06429e-15 0)
(3 -1.33581e-15 0)
(3 -1.51588e-15 0)
(3 -1.33666e-15 0)
(3 -1.75431e-15 0)
(3 -2.18468e-15 0)
(3 -9.54314e-16 0)
(3 -6.13664e-16 0)
(3 -9.3516e-16 0)
(3 -5.66412e-16 0)
(3 1.84601e-16 0)
(3 5.54777e-16 0)
(3 7.97923e-16 0)
(3 1.60474e-15 0)
(3 1.3724e-12 0)
(1.12424 0.0885637 0)
(0.623393 0.079193 0)
(0.602897 0.0940012 0)
(0.598883 0.0909535 0)
(0.590034 0.0846099 0)
(0.580289 0.0816327 0)
(0.565469 0.0806924 0)