/*--------------------------------*- C++ -*----------------------------------*\
  =========                 |
  \\      /  F ield         | OpenFOAM: The Open Source CFD Toolbox
   \\    /   O peration     | Website:  https://openfoam.org
    \\  /    A nd           | Version:  7
     \\/     M anipulation  |
\*---------------------------------------------------------------------------*/
FoamFile
{
    version     2.0;
    format      ascii;
    class       volVectorField;
    location    "2.1";
    object      U;
}
// * * * * * * * * * * * * * * * * * * * * * * * * * * * * * * * * * * * * * //

dimensions      [0 1 -1 0 0 0 0];

internalField   nonuniform List<vector> 
73728
(
(3 8.54678e-17 0)
(3 3.05223e-16 0)
(3 5.89872e-16 0)
(3 7.21062e-16 0)
(3 7.03626e-16 0)
(3 6.81538e-16 0)
(3 5.09831e-16 0)
(3 1.28881e-16 0)
(3 1.6017e-16 0)
(3 1.26161e-17 0)
(3 -1.40155e-16 0)
(3 -3.65395e-16 0)
(3 -2.60806e-16 0)
(3 -1.8604e-16 0)
(3 -1.54416e-16 0)
(3 -1.94953e-16 0)
(3 -1.12853e-16 0)
(3 -1.30712e-16 0)
(3 -7.93329e-16 0)
(3 -7.42228e-16 0)
(3 -8.13231e-16 0)
(3 -6.90248e-16 0)
(3 -3.67659e-16 0)
(3 -3.83699e-16 0)
(3 1.74137e-16 0)
(3 8.89039e-16 0)
(3 5.47482e-16 0)
(3 -1.44884e-16 0)
(3 -6.20479e-16 0)
(3 -7.3689e-16 0)
(3 -5.97935e-16 0)
(3 -5.40206e-16 0)
(3 -8.18139e-16 0)
(3 -1.24968e-15 0)
(3 -6.87913e-16 0)
(3 -1.45289e-16 0)
(3 -2.64688e-16 0)
(3 7.45249e-17 0)
(3 3.81349e-16 0)
(3 4.08258e-16 0)
(3 2.87217e-16 0)
(3 -8.45975e-17 0)
(3 1.11023e-16 0)
(3 7.74442e-16 0)
(3 1.01878e-15 0)
(3 9.38589e-16 0)
(3 4.52833e-16 0)
(3 4.65986e-16 0)
(3 2.97945e-16 0)
(3 -9.0988e-17 0)
(3 -7.18963e-16 0)
(3 -7.43372e-16 0)
(3 -1.83063e-16 0)
(3 7.47211e-16 0)
(3 4.29085e-16 0)
(3 -1.66269e-16 0)
(3 -1.85406e-16 0)
(3 3.49856e-16 0)
(3 3.68977e-16 0)
(3 2.66125e-16 0)
(3 1.13998e-16 0)
(3 -3.35636e-16 0)
(3 -5.84119e-16 0)
(3 -3.53471e-16 0)
(3 -2.78224e-16 0)
(3 -4.805e-18 0)
(3 -1.1378e-16 0)
(3 -3.37318e-16 0)
(3 -1.2251e-16 0)
(3 -2.43074e-16 0)
(3 -1.04729e-16 0)
(3 -5.3224e-16 0)
(3 -4.86027e-16 0)
(3 -4.68036e-16 0)
(3 -1.49682e-16 0)
(3 1.87473e-16 0)
(3 -2.76308e-16 0)
(3 -2.19843e-16 0)
(3 -5.98804e-16 0)
(3 -1.11508e-15 0)
(3 -9.67105e-16 0)
(3 -5.84303e-16 0)
(3 -1.32603e-16 0)
(3 -3.49235e-16 0)
(3 -1.33837e-15 0)
(3 -1.13782e-15 0)
(3 -3.0439e-16 0)
(3 2.69397e-16 0)
(3 1.44996e-16 0)
(3 -5.19859e-16 0)
(3 -1.66041e-15 0)
(3 -2.02129e-15 0)
(3 -9.93342e-16 0)
(3 5.66014e-16 0)
(3 5.59455e-16 0)
(3 5.75056e-16 0)
(3 7.34043e-17 0)
(3 4.75589e-17 0)
(3 2.70125e-16 0)
(3 2.38735e-16 0)
(3 4.35887e-16 0)
(3 1.25057e-16 0)
(3 -5.05341e-16 0)
(3 -7.20339e-16 0)
(3 -9.81008e-17 0)
(3 -9.14702e-17 0)
(3 -4.26252e-16 0)
(3 -5.17141e-16 0)
(3 -1.07356e-16 0)
(3 -5.42412e-16 0)
(3 -5.8066e-16 0)
(3 -5.36157e-16 0)
(3 -5.27278e-16 0)
(3 -7.62512e-16 0)
(3 -9.05399e-16 0)
(3 -5.72009e-16 0)
(3 -5.30525e-16 0)
(3 -2.21719e-16 0)
(3 -3.6528e-16 0)
(3 -8.41969e-16 0)
(3 -3.68017e-16 0)
(3 8.37018e-16 0)
(3 7.56514e-16 0)
(3 8.95387e-16 0)
(3 1.74096e-17 0)
(3 -7.06871e-16 0)
(3 -4.44417e-16 0)
(3 -2.62569e-16 0)
(3 -4.82024e-16 0)
(3 -1.52668e-15 0)
(3 -1.10498e-15 0)
(3 -4.169e-16 0)
(3 -1.0737e-15 0)
(3 -8.38187e-16 0)
(3 -4.76278e-16 0)
(3 -1.73767e-16 0)
(3 -9.7881e-17 0)
(3 1.84214e-16 0)
(3 4.56108e-16 0)
(3 1.11206e-15 0)
(3 1.29442e-15 0)
(3 1.26228e-15 0)
(3 7.50079e-16 0)
(3 8.32161e-16 0)
(3 -4.19667e-16 0)
(3 -1.03939e-15 0)
(3 -1.56144e-15 0)
(3 -1.92495e-15 0)
(3 -1.24538e-15 0)
(3 -2.56668e-16 0)
(3 -6.88064e-16 0)
(3 -9.07405e-16 0)
(3 -3.51428e-16 0)
(3 1.39027e-16 0)
(3 7.2696e-16 0)
(3 7.52209e-16 0)
(3 1.4022e-15 0)
(3 9.27962e-16 0)
(3 5.95408e-16 0)
(3 4.98087e-16 0)
(3 6.6153e-16 0)
(3 1.09347e-15 0)
(3 8.84136e-16 0)
(3 -7.71662e-16 0)
(3 -9.323e-16 0)
(3 -1.77455e-15 0)
(3 -1.33365e-15 0)
(3 -1.58193e-15 0)
(3 -1.7309e-15 0)
(3 -1.29302e-15 0)
(3 4.04433e-17 0)
(3 4.89271e-16 0)
(3 1.25104e-15 0)
(3 3.5468e-16 0)
(3 -1.46444e-15 0)
(3 -2.67091e-15 0)
(3 -2.41209e-15 0)
(3 -1.97879e-15 0)
(3 -4.66836e-16 0)
(3 -4.00771e-17 0)
(3 -1.07516e-15 0)
(3 -1.31454e-15 0)
(3 -7.8704e-16 0)
(3 -5.4501e-16 0)
(3 2.72876e-16 0)
(3 -2.88065e-16 0)
(3 -1.12184e-15 0)
(3 -1.23292e-15 0)
(3 -4.9145e-16 0)
(3 1.1418e-15 0)
(3 7.84324e-16 0)
(3 6.34802e-16 0)
(3 -1.79621e-16 0)
(3 -1.28605e-16 0)
(3 -1.45774e-16 0)
(3 -2.85933e-16 0)
(3 -3.90571e-16 0)
(3 -1.53281e-15 0)
(3 -2.01609e-15 0)
(3 -1.4647e-15 0)
(3 -1.3833e-15 0)
(3 -3.80001e-16 0)
(3 -1.559e-16 0)
(3 5.40635e-16 0)
(3 1.01325e-15 0)
(3 3.85268e-16 0)
(3 3.48639e-16 0)
(3 2.57616e-16 0)
(3 -1.66397e-17 0)
(3 1.26681e-17 0)
(3 3.45303e-16 0)
(3 4.29578e-16 0)
(3 3.21836e-16 0)
(3 5.02218e-16 0)
(3 6.63727e-16 0)
(3 3.34183e-16 0)
(3 -2.88154e-16 0)
(3 -3.8072e-16 0)
(3 -3.28834e-17 0)
(3 -8.41526e-17 0)
(3 -4.18147e-16 0)
(3 -3.88556e-16 0)
(3 3.84636e-17 0)
(3 -1.17103e-15 0)
(3 -1.51101e-15 0)
(3 -2.2565e-15 0)
(3 -2.94632e-15 0)
(3 -3.04251e-15 0)
(3 -2.68675e-15 0)
(3 -2.0825e-15 0)
(3 -1.24121e-15 0)
(3 -5.78544e-16 0)
(3 2.18417e-16 0)
(3 8.44241e-16 0)
(3 9.60933e-16 0)
(3 1.16089e-15 0)
(3 1.60099e-15 0)
(3 1.927e-15 0)
(3 2.02944e-15 0)
(3 1.26988e-15 0)
(3 1.06492e-15 0)
(3 1.8313e-16 0)
(3 -1.17033e-15 0)
(3 -1.7917e-15 0)
(3 -2.12526e-15 0)
(3 -1.94091e-15 0)
(3 -1.48187e-15 0)
(3 -6.24735e-16 0)
(3 9.79892e-17 0)
(3 4.69164e-16 0)
(3 1.04493e-15 0)
(3 1.75914e-15 0)
(3 2.05217e-15 0)
(3 1.55215e-15 0)
(3 1.19676e-15 0)
(3 1.26228e-15 0)
(3 1.42229e-15 0)
(3 7.54446e-16 0)
(3 2.34795e-16 0)
(3 -1.32733e-15 0)
(3 -2.02503e-15 0)
(3 -1.60901e-15 0)
(3 -2.90547e-16 0)
(3 4.00164e-16 0)
(3 -1.4108e-16 0)
(3 2.07648e-16 0)
(3 1.44596e-15 0)
(3 3.04937e-15 0)
(3 3.59419e-15 0)
(3 -3.28769e-16 0)
(3 -2.01894e-15 0)
(3 -1.95317e-15 0)
(3 -7.69284e-16 0)
(3 -3.86417e-16 0)
(3 -2.75996e-16 0)
(3 -1.14149e-16 0)
(3 3.47e-16 0)
(3 2.65301e-16 0)
(3 -1.66226e-15 0)
(3 -1.92719e-15 0)
(3 -6.22512e-16 0)
(3 4.51556e-16 0)
(3 1.90717e-16 0)
(3 1.25696e-16 0)
(3 -2.61384e-16 0)
(3 -4.70177e-16 0)
(3 3.46504e-16 0)
(3 1.48311e-15 0)
(3 -6.22869e-17 0)
(3 -1.20142e-16 0)
(3 -5.42507e-16 0)
(3 -8.82688e-16 0)
(3 -1.52223e-15 0)
(3 -1.74956e-15 0)
(3 -1.07865e-15 0)
(3 -2.08609e-16 0)
(3 -1.82816e-16 0)
(3 -1.22137e-16 0)
(3 -1.89349e-16 0)
(3 -2.76203e-16 0)
(3 -1.70181e-16 0)
(3 -3.49925e-17 0)
(3 2.8943e-16 0)
(3 7.83377e-16 0)
(3 1.28116e-15 0)
(3 1.71154e-15 0)
(3 1.65285e-15 0)
(3 1.74484e-15 0)
(3 1.81434e-15 0)
(3 1.73478e-15 0)
(3 1.5543e-15 0)
(3 1.3738e-15 0)
(3 6.01884e-16 0)
(3 -2.17819e-16 0)
(3 -6.38559e-16 0)
(3 -1.84225e-15 0)
(3 -1.55818e-15 0)
(3 -6.83788e-16 0)
(3 -4.25135e-16 0)
(3 -7.95871e-16 0)
(3 -1.49123e-15 0)
(3 -1.38642e-15 0)
(3 -1.347e-15 0)
(3 -1.45414e-15 0)
(3 -1.19871e-15 0)
(3 -5.8691e-16 0)
(3 1.04409e-16 0)
(3 5.21556e-16 0)
(3 1.12298e-15 0)
(3 1.25197e-15 0)
(3 1.07939e-15 0)
(3 5.17343e-16 0)
(3 8.45112e-16 0)
(3 1.63436e-15 0)
(3 1.76713e-15 0)
(3 1.97157e-15 0)
(3 1.86105e-15 0)
(3 7.81759e-16 0)
(3 -1.70118e-16 0)
(3 -6.60945e-16 0)
(3 -3.58521e-16 0)
(3 -5.73206e-16 0)
(3 -1.10882e-15 0)
(3 -1.27221e-15 0)
(3 -1.46639e-15 0)
(3 -1.02832e-15 0)
(3 -3.8727e-16 0)
(3 1.05104e-15 0)
(3 1.0227e-15 0)
(3 5.0772e-16 0)
(3 2.43641e-16 0)
(3 3.23093e-16 0)
(3 4.44206e-16 0)
(3 1.49853e-16 0)
(3 -5.76826e-16 0)
(3 -1.59223e-15 0)
(3 -1.68953e-15 0)
(3 -4.21062e-16 0)
(3 4.2894e-16 0)
(3 1.8314e-15 0)
(3 1.79512e-15 0)
(3 1.24064e-15 0)
(3 1.9056e-15 0)
(3 3.4928e-15 0)
(3 3.07317e-15 0)
(3 -9.86832e-16 0)
(3 -2.14779e-15 0)
(3 -2.55462e-15 0)
(3 -1.87551e-15 0)
(3 -5.69654e-16 0)
(3 -1.86616e-16 0)
(3 1.11644e-16 0)
(3 6.01601e-16 0)
(3 5.79054e-16 0)
(3 -4.72457e-16 0)
(3 -1.34412e-15 0)
(3 -1.55927e-15 0)
(3 -3.26617e-16 0)
(3 -1.55712e-16 0)
(3 2.401e-16 0)
(3 3.95131e-16 0)
(3 4.22639e-16 0)
(3 1.49826e-15 0)
(3 1.76918e-15 0)
(3 -9.62309e-17 0)
(3 -3.77056e-16 0)
(3 -8.50442e-16 0)
(3 -1.55118e-15 0)
(3 -9.8607e-16 0)
(3 -2.50275e-16 0)
(3 7.28601e-16 0)
(3 8.13274e-16 0)
(3 9.06492e-16 0)
(3 3.10919e-16 0)
(3 -5.63793e-16 0)
(3 -1.19974e-15 0)
(3 -1.4044e-15 0)
(3 -1.03707e-15 0)
(3 -7.72262e-16 0)
(3 -1.32636e-16 0)
(3 3.10627e-16 0)
(3 5.79167e-16 0)
(3 7.56871e-16 0)
(3 8.85788e-16 0)
(3 1.17872e-15 0)
(3 5.12359e-16 0)
(3 2.97487e-16 0)
(3 3.92429e-16 0)
(3 5.22883e-16 0)
(3 5.2695e-16 0)
(3 3.68445e-16 0)
(3 -7.28083e-16 0)
(3 -1.21576e-15 0)
(3 -1.34644e-15 0)
(3 -1.67564e-15 0)
(3 -8.8921e-16 0)
(3 -2.40724e-16 0)
(3 7.21147e-17 0)
(3 7.95702e-17 0)
(3 -3.19717e-16 0)
(3 -2.13955e-16 0)
(3 9.09318e-16 0)
(3 1.65458e-15 0)
(3 2.53583e-15 0)
(3 2.70217e-15 0)
(3 2.59733e-15 0)
(3 2.09988e-15 0)
(3 1.88038e-15 0)
(3 2.00097e-15 0)
(3 1.91171e-15 0)
(3 1.68187e-15 0)
(3 2.24616e-15 0)
(3 2.87267e-15 0)
(3 2.68203e-15 0)
(3 2.55047e-15 0)
(3 1.68039e-15 0)
(3 7.77963e-16 0)
(3 -6.54915e-16 0)
(3 -1.88813e-15 0)
(3 -1.89106e-15 0)
(3 -2.06259e-15 0)
(3 -1.92681e-15 0)
(3 -1.31568e-15 0)
(3 -7.01568e-16 0)
(3 -5.3018e-16 0)
(3 -3.97273e-16 0)
(3 -3.88975e-16 0)
(3 -5.86254e-16 0)
(3 -9.80583e-16 0)
(3 -1.17799e-15 0)
(3 -1.14932e-15 0)
(3 -1.11401e-15 0)
(3 -6.03296e-16 0)
(3 -4.22439e-16 0)
(3 -4.43022e-16 0)
(3 7.61816e-17 0)
(3 1.39465e-15 0)
(3 2.04344e-15 0)
(3 2.64386e-15 0)
(3 1.56623e-15 0)
(3 3.16882e-16 0)
(3 -1.47484e-15 0)
(3 -1.56079e-15 0)
(3 -2.7353e-15 0)
(3 -2.83433e-15 0)
(3 -1.42929e-17 0)
(3 1.5485e-15 0)
(3 1.5687e-15 0)
(3 9.89911e-16 0)
(3 5.01707e-16 0)
(3 -9.75159e-17 0)
(3 -4.34891e-16 0)
(3 -4.46995e-16 0)
(3 -1.07451e-16 0)
(3 7.85488e-16 0)
(3 1.07003e-15 0)
(3 1.45348e-15 0)
(3 1.52293e-15 0)
(3 2.6348e-15 0)
(3 2.03917e-15 0)
(3 -5.1627e-18 0)
(3 -5.72163e-17 0)
(3 -6.13467e-17 0)
(3 -4.4135e-17 0)
(3 3.27747e-16 0)
(3 4.40583e-16 0)
(3 4.73274e-16 0)
(3 4.12868e-16 0)
(3 6.3931e-16 0)
(3 5.61554e-16 0)
(3 3.8255e-16 0)
(3 1.41396e-16 0)
(3 -3.07165e-16 0)
(3 -3.31078e-16 0)
(3 -2.39258e-16 0)
(3 -2.6275e-16 0)
(3 -1.89395e-16 0)
(3 -6.75427e-17 0)
(3 2.126e-17 0)
(3 -4.74658e-16 0)
(3 -1.52805e-16 0)
(3 -8.74191e-16 0)
(3 -9.17722e-16 0)
(3 -7.53738e-16 0)
(3 -4.95119e-16 0)
(3 -3.33778e-16 0)
(3 -3.12723e-16 0)
(3 -2.13534e-16 0)
(3 -3.1411e-16 0)
(3 -1.0474e-15 0)
(3 -1.24245e-15 0)
(3 -1.11827e-15 0)
(3 3.63931e-17 0)
(3 7.29481e-16 0)
(3 8.90618e-16 0)
(3 7.24854e-16 0)
(3 2.29687e-16 0)
(3 1.88277e-15 0)
(3 2.685e-15 0)
(3 3.53458e-15 0)
(3 3.48749e-15 0)
(3 2.60646e-15 0)
(3 2.45342e-15 0)
(3 2.70612e-15 0)
(3 2.98743e-15 0)
(3 2.08221e-15 0)
(3 1.37053e-15 0)
(3 4.96874e-16 0)
(3 2.43764e-16 0)
(3 8.1518e-16 0)
(3 1.04465e-15 0)
(3 6.75474e-16 0)
(3 -2.25364e-16 0)
(3 -1.05684e-15 0)
(3 -1.26416e-15 0)
(3 -8.97661e-16 0)
(3 -6.4465e-16 0)
(3 -1.26045e-15 0)
(3 -2.03583e-15 0)
(3 -1.80471e-15 0)
(3 -1.26194e-15 0)
(3 -1.35229e-15 0)
(3 -1.08102e-15 0)
(3 -1.10844e-15 0)
(3 -2.34245e-15 0)
(3 -2.63136e-15 0)
(3 -2.21741e-15 0)
(3 -1.30959e-15 0)
(3 1.29198e-16 0)
(3 2.11901e-16 0)
(3 2.54486e-16 0)
(3 5.84752e-16 0)
(3 1.42701e-15 0)
(3 2.59886e-15 0)
(3 2.51277e-15 0)
(3 7.57582e-16 0)
(3 -8.52874e-16 0)
(3 -3.92603e-16 0)
(3 -3.81211e-16 0)
(3 -6.39662e-16 0)
(3 4.51009e-16 0)
(3 1.73235e-15 0)
(3 2.15349e-15 0)
(3 2.50883e-15 0)
(3 2.15594e-15 0)
(3 1.94451e-15 0)
(3 1.02927e-15 0)
(3 3.79352e-16 0)
(3 8.83154e-16 0)
(3 1.66036e-15 0)
(3 1.92122e-15 0)
(3 1.94517e-15 0)
(3 1.14461e-15 0)
(3 -3.13319e-16 0)
(3 -6.17403e-16 0)
(3 -3.07087e-16 0)
(3 -3.18565e-17 0)
(3 7.96297e-17 0)
(3 1.26551e-16 0)
(3 3.51911e-16 0)
(3 4.51505e-16 0)
(3 -1.74902e-16 0)
(3 -5.71326e-16 0)
(3 -4.11986e-16 0)
(3 -2.74552e-17 0)
(3 2.75775e-16 0)
(3 5.67728e-16 0)
(3 6.70839e-16 0)
(3 -4.26746e-17 0)
(3 -6.88136e-16 0)
(3 -1.77132e-16 0)
(3 -3.50544e-16 0)
(3 -3.10413e-16 0)
(3 1.49746e-17 0)
(3 6.27061e-16 0)
(3 1.02516e-15 0)
(3 8.93589e-16 0)
(3 -5.61157e-17 0)
(3 -8.89404e-16 0)
(3 -1.06058e-15 0)
(3 -1.25558e-15 0)
(3 -1.30875e-15 0)
(3 -1.81119e-15 0)
(3 -1.67578e-15 0)
(3 -1.21215e-15 0)
(3 -1.18809e-15 0)
(3 -1.34905e-15 0)
(3 -1.45864e-15 0)
(3 -9e-16 0)
(3 -5.63617e-16 0)
(3 -4.55138e-16 0)
(3 5.16767e-16 0)
(3 8.05227e-16 0)
(3 1.15626e-15 0)
(3 1.65095e-15 0)
(3 2.22361e-15 0)
(3 1.9224e-15 0)
(3 8.71942e-16 0)
(3 5.49714e-16 0)
(3 1.33354e-15 0)
(3 2.15382e-15 0)
(3 1.65044e-15 0)
(3 4.06424e-16 0)
(3 -1.08261e-15 0)
(3 -1.60577e-15 0)
(3 -1.2723e-15 0)
(3 -9.44154e-16 0)
(3 -1.18754e-15 0)
(3 -1.81809e-15 0)
(3 -1.21851e-15 0)
(3 -9.63249e-16 0)
(3 -8.97758e-16 0)
(3 -6.56637e-16 0)
(3 -5.14173e-16 0)
(3 -9.14763e-16 0)
(3 -1.01917e-15 0)
(3 -9.9222e-16 0)
(3 -9.30876e-16 0)
(3 -2.60203e-16 0)
(3 -1.29801e-16 0)
(3 -1.43975e-15 0)
(3 -2.09928e-15 0)
(3 -1.99155e-15 0)
(3 -6.27954e-16 0)
(3 5.37533e-16 0)
(3 7.85475e-16 0)
(3 6.98133e-16 0)
(3 1.24338e-15 0)
(3 1.77059e-15 0)
(3 1.53762e-15 0)
(3 5.50236e-16 0)
(3 3.17348e-16 0)
(3 1.19329e-15 0)
(3 1.99085e-15 0)
(3 9.83149e-16 0)
(3 6.89028e-16 0)
(3 7.91137e-16 0)
(3 4.68874e-16 0)
(3 1.56788e-15 0)
(3 2.50774e-15 0)
(3 2.79394e-15 0)
(3 2.96568e-15 0)
(3 2.45872e-15 0)
(3 1.71626e-15 0)
(3 1.52642e-15 0)
(3 1.77655e-15 0)
(3 1.18444e-15 0)
(3 8.35388e-16 0)
(3 1.22822e-15 0)
(3 1.43779e-15 0)
(3 6.83812e-16 0)
(3 1.18108e-16 0)
(3 -5.36633e-19 0)
(3 1.11199e-16 0)
(3 4.73087e-16 0)
(3 7.59394e-16 0)
(3 1.75477e-16 0)
(3 -1.35626e-16 0)
(3 -4.10594e-16 0)
(3 -5.52021e-16 0)
(3 -6.30573e-16 0)
(3 -5.10288e-16 0)
(3 -4.15454e-17 0)
(3 -2.11263e-16 0)
(3 -7.36847e-16 0)
(3 -3.77271e-16 0)
(3 -3.40015e-16 0)
(3 -4.46968e-16 0)
(3 -2.38614e-16 0)
(3 4.64594e-16 0)
(3 5.05908e-16 0)
(3 9.85595e-16 0)
(3 2.33888e-17 0)
(3 -2.82971e-16 0)
(3 -3.4719e-16 0)
(3 -4.70827e-16 0)
(3 -5.64578e-16 0)
(3 -7.40237e-16 0)
(3 -7.65059e-16 0)
(3 -1.04754e-15 0)
(3 -8.86139e-16 0)
(3 -5.65577e-16 0)
(3 -9.55962e-16 0)
(3 -1.91976e-15 0)
(3 -3.14767e-15 0)
(3 -2.6719e-15 0)
(3 -1.49136e-15 0)
(3 1.44039e-16 0)
(3 3.00741e-16 0)
(3 2.85564e-16 0)
(3 3.0436e-16 0)
(3 6.77279e-16 0)
(3 5.76302e-16 0)
(3 4.76134e-17 0)
(3 -1.21943e-16 0)
(3 2.05008e-16 0)
(3 4.87945e-16 0)
(3 6.6211e-16 0)
(3 -5.87761e-16 0)
(3 -8.48967e-16 0)
(3 -7.01269e-16 0)
(3 -1.28338e-15 0)
(3 -1.41107e-15 0)
(3 -1.46961e-15 0)
(3 -6.7607e-16 0)
(3 -9.92063e-16 0)
(3 -1.2287e-15 0)
(3 -1.7445e-15 0)
(3 -1.13248e-15 0)
(3 -5.94648e-16 0)
(3 5.76904e-16 0)
(3 -8.24509e-17 0)
(3 -4.19028e-16 0)
(3 -3.30396e-16 0)
(3 -8.22503e-17 0)
(3 -7.61726e-17 0)
(3 -1.3942e-16 0)
(3 -4.51195e-16 0)
(3 2.46479e-16 0)
(3 3.66644e-16 0)
(3 6.17851e-16 0)
(3 6.0785e-16 0)
(3 3.47394e-16 0)
(3 3.12066e-17 0)
(3 -3.06188e-16 0)
(3 -9.38622e-16 0)
(3 -1.40874e-15 0)
(3 2.73639e-16 0)
(3 2.58897e-15 0)
(3 2.63198e-15 0)
(3 2.47587e-15 0)
(3 2.32989e-15 0)
(3 3.66e-15 0)
(3 4.06313e-15 0)
(3 2.90583e-15 0)
(3 2.74405e-15 0)
(3 2.45759e-15 0)
(3 2.21464e-15 0)
(3 2.35354e-15 0)
(3 2.23359e-15 0)
(3 1.4698e-15 0)
(3 -3.9464e-16 0)
(3 -1.69766e-16 0)
(3 -4.64925e-16 0)
(3 -3.20553e-16 0)
(3 7.75428e-16 0)
(3 1.11978e-15 0)
(3 1.02452e-15 0)
(3 3.17516e-16 0)
(3 2.77074e-16 0)
(3 4.49158e-16 0)
(3 4.0192e-16 0)
(3 7.60845e-17 0)
(3 3.19141e-16 0)
(3 2.15726e-16 0)
(3 -2.59446e-16 0)
(3 -8.28211e-16 0)
(3 -1.06208e-15 0)
(3 -1.17409e-15 0)
(3 -8.07064e-16 0)
(3 -3.0823e-16 0)
(3 -9.13847e-17 0)
(3 -3.76378e-16 0)
(3 -7.36246e-16 0)
(3 -9.78243e-16 0)
(3 -9.457e-16 0)
(3 -8.61978e-16 0)
(3 -7.59695e-16 0)
(3 -3.49639e-16 0)
(3 -1.24375e-16 0)
(3 7.92603e-16 0)
(3 1.57087e-15 0)
(3 1.37462e-15 0)
(3 9.03643e-16 0)
(3 7.51656e-16 0)
(3 4.83858e-16 0)
(3 4.0035e-16 0)
(3 3.03034e-16 0)
(3 2.77302e-16 0)
(3 -5.02152e-16 0)
(3 -7.69514e-16 0)
(3 -7.58176e-16 0)
(3 -9.17762e-16 0)
(3 -5.19591e-16 0)
(3 -1.48942e-16 0)
(3 -1.82611e-17 0)
(3 -7.92103e-16 0)
(3 -6.97455e-16 0)
(3 -2.67939e-16 0)
(3 4.77398e-16 0)
(3 1.01047e-15 0)
(3 1.85368e-17 0)
(3 -9.02632e-16 0)
(3 -5.81898e-16 0)
(3 -5.78528e-16 0)
(3 -5.03685e-16 0)
(3 -1.06939e-15 0)
(3 -7.16084e-16 0)
(3 -3.99285e-16 0)
(3 2.60773e-16 0)
(3 1.09372e-15 0)
(3 4.94915e-16 0)
(3 -1.85921e-16 0)
(3 -9.18985e-16 0)
(3 -9.99148e-16 0)
(3 -4.23869e-16 0)
(3 -1.09401e-16 0)
(3 -3.34118e-16 0)
(3 -4.13153e-16 0)
(3 -1.22637e-16 0)
(3 2.67207e-16 0)
(3 -1.00023e-16 0)
(3 7.93266e-16 0)
(3 1.81799e-15 0)
(3 1.7103e-15 0)
(3 9.8717e-16 0)
(3 -1.01377e-16 0)
(3 -6.93591e-16 0)
(3 -5.08523e-16 0)
(3 -1.01201e-15 0)
(3 -9.62549e-16 0)
(3 -8.11772e-16 0)
(3 -2.89688e-16 0)
(3 3.61506e-16 0)
(3 1.33602e-15 0)
(3 2.47883e-15 0)
(3 3.54552e-15 0)
(3 5.39762e-15 0)
(3 5.98474e-15 0)
(3 6.56324e-15 0)
(3 5.74509e-15 0)
(3 5.31776e-15 0)
(3 3.4569e-15 0)
(3 2.48923e-15 0)
(3 2.69056e-15 0)
(3 3.09867e-15 0)
(3 1.28094e-15 0)
(3 -1.53912e-15 0)
(3 -3.43285e-15 0)
(3 -3.53615e-15 0)
(3 -3.29891e-15 0)
(3 -1.96327e-15 0)
(3 -2.37379e-16 0)
(3 4.48067e-16 0)
(3 1.21019e-17 0)
(3 1.10128e-16 0)
(3 9.65895e-17 0)
(3 -7.4569e-17 0)
(3 4.35867e-16 0)
(3 3.08037e-18 0)
(3 -1.33731e-16 0)
(3 -2.4354e-16 0)
(3 -2.49132e-16 0)
(3 -1.2517e-16 0)
(3 -5.05004e-16 0)
(3 -3.21246e-17 0)
(3 -2.86463e-17 0)
(3 -3.34738e-16 0)
(3 -4.18374e-16 0)
(3 -5.11103e-16 0)
(3 -1.07137e-15 0)
(3 -1.80511e-15 0)
(3 -1.20877e-15 0)
(3 -6.7775e-16 0)
(3 -1.07338e-16 0)
(3 3.05588e-16 0)
(3 7.5307e-16 0)
(3 7.53225e-16 0)
(3 2.75201e-16 0)
(3 4.73891e-16 0)
(3 3.89978e-16 0)
(3 5.01145e-16 0)
(3 2.47401e-16 0)
(3 4.60792e-16 0)
(3 2.71143e-16 0)
(3 9.087e-17 0)
(3 -2.62055e-16 0)
(3 -4.64071e-16 0)
(3 -5.19911e-16 0)
(3 -8.31314e-16 0)
(3 -3.26679e-16 0)
(3 -4.4206e-16 0)
(3 1.63365e-16 0)
(3 1.38273e-16 0)
(3 -5.43175e-16 0)
(3 -7.02198e-16 0)
(3 -1.00957e-15 0)
(3 -9.58703e-16 0)
(3 -1.5041e-15 0)
(3 -1.62425e-15 0)
(3 -9.2372e-16 0)
(3 -1.321e-16 0)
(3 -9.48182e-16 0)
(3 -5.72278e-16 0)
(3 9.87362e-17 0)
(3 2.2129e-16 0)
(3 -1.04983e-16 0)
(3 1.5653e-16 0)
(3 1.97932e-15 0)
(3 1.37912e-15 0)
(3 5.24607e-16 0)
(3 -1.36054e-16 0)
(3 -1.61855e-15 0)
(3 -2.39018e-15 0)
(3 -2.01464e-15 0)
(3 -1.83392e-15 0)
(3 -5.51245e-16 0)
(3 7.39048e-16 0)
(3 2.41774e-15 0)
(3 2.87544e-15 0)
(3 2.42033e-15 0)
(3 1.67354e-15 0)
(3 7.4417e-16 0)
(3 -6.42791e-16 0)
(3 -1.40436e-15 0)
(3 -1.80148e-15 0)
(3 -1.71901e-15 0)
(3 -7.63154e-16 0)
(3 -4.32137e-16 0)
(3 -2.36681e-16 0)
(3 4.46783e-16 0)
(3 1.56996e-15 0)
(3 2.71346e-15 0)
(3 3.49449e-15 0)
(3 3.76313e-15 0)
(3 3.44341e-15 0)
(3 3.52978e-15 0)
(3 3.98409e-15 0)
(3 2.42974e-15 0)
(3 2.50903e-15 0)
(3 2.21774e-15 0)
(3 -3.28651e-16 0)
(3 -2.22079e-15 0)
(3 -3.48274e-15 0)
(3 -3.70185e-15 0)
(3 -3.6501e-15 0)
(3 -3.82276e-15 0)
(3 -3.36177e-15 0)
(3 -2.28533e-15 0)
(3 -8.15641e-16 0)
(3 -1.0693e-16 0)
(3 8.62898e-17 0)
(3 2.18537e-16 0)
(3 3.86682e-16 0)
(3 6.76193e-16 0)
(3 6.67253e-16 0)
(3 4.17667e-16 0)
(3 4.54059e-16 0)
(3 6.04667e-16 0)
(3 1.08741e-15 0)
(3 1.60107e-15 0)
(3 8.70968e-16 0)
(3 -2.17132e-16 0)
(3 -2.88477e-16 0)
(3 1.88713e-16 0)
(3 5.45713e-16 0)
(3 4.63659e-17 0)
(3 -6.1057e-16 0)
(3 -5.74928e-16 0)
(3 -3.29151e-16 0)
(3 2.10165e-16 0)
(3 5.75903e-16 0)
(3 1.22327e-15 0)
(3 4.25099e-16 0)
(3 3.31792e-16 0)
(3 4.50476e-16 0)
(3 5.93254e-16 0)
(3 4.91027e-16 0)
(3 1.40264e-17 0)
(3 -5.54073e-16 0)
(3 -8.25831e-16 0)
(3 -7.38497e-16 0)
(3 -7.51652e-16 0)
(3 -8.637e-16 0)
(3 -6.88137e-16 0)
(3 -5.2045e-16 0)
(3 2.36625e-16 0)
(3 3.30628e-16 0)
(3 1.16287e-16 0)
(3 1.7213e-16 0)
(3 -8.57029e-16 0)
(3 -8.98737e-16 0)
(3 -1.09407e-15 0)
(3 -1.181e-15 0)
(3 -1.14653e-15 0)
(3 -1.51935e-15 0)
(3 -1.80046e-15 0)
(3 -1.37814e-15 0)
(3 -4.02702e-16 0)
(3 -5.97009e-16 0)
(3 -1.01729e-16 0)
(3 3.86934e-16 0)
(3 3.47723e-16 0)
(3 -1.20573e-16 0)
(3 -3.84236e-17 0)
(3 8.0572e-16 0)
(3 1.00224e-15 0)
(3 1.68429e-16 0)
(3 -1.05716e-15 0)
(3 -1.45161e-15 0)
(3 -9.79032e-16 0)
(3 3.27784e-16 0)
(3 9.52088e-16 0)
(3 9.86768e-16 0)
(3 1.31113e-15 0)
(3 1.63516e-15 0)
(3 1.60357e-15 0)
(3 8.70719e-16 0)
(3 7.16406e-16 0)
(3 9.06282e-17 0)
(3 -2.42921e-16 0)
(3 -3.59497e-16 0)
(3 -1.05695e-15 0)
(3 -9.89027e-16 0)
(3 -6.86414e-16 0)
(3 -3.83215e-16 0)
(3 -2.75251e-16 0)
(3 -1.68615e-16 0)
(3 -1.72619e-16 0)
(3 -5.47296e-16 0)
(3 -5.15413e-17 0)
(3 5.77446e-16 0)
(3 2.69855e-15 0)
(3 2.74356e-15 0)
(3 1.47972e-15 0)
(3 -2.48898e-16 0)
(3 -1.16027e-15 0)
(3 -3.05947e-15 0)
(3 -4.21887e-15 0)
(3 -4.44221e-15 0)
(3 -3.98488e-15 0)
(3 -3.70475e-15 0)
(3 -3.39361e-15 0)
(3 -3.5453e-15 0)
(3 -3.12257e-15 0)
(3 -1.65007e-15 0)
(3 -1.01046e-16 0)
(3 -4.24483e-16 0)
(3 -5.86645e-16 0)
(3 -5.14248e-16 0)
(3 -3.23901e-16 0)
(3 7.95711e-16 0)
(3 1.09073e-15 0)
(3 6.96587e-16 0)
(3 6.84393e-16 0)
(3 1.16382e-15 0)
(3 8.79008e-16 0)
(3 -3.95245e-16 0)
(3 -1.26921e-15 0)
(3 -9.48491e-16 0)
(3 -1.79385e-16 0)
(3 -2.01997e-16 0)
(3 -9.4032e-17 0)
(3 1.10381e-16 0)
(3 -6.48328e-17 0)
(3 5.92916e-16 0)
(3 2.02136e-15 0)
(3 1.91825e-15 0)
(3 1.5832e-15 0)
(3 1.13152e-15 0)
(3 1.42293e-15 0)
(3 1.53921e-15 0)
(3 2.19836e-15 0)
(3 1.79569e-15 0)
(3 4.56233e-16 0)
(3 3.38443e-16 0)
(3 2.58449e-16 0)
(3 2.38575e-18 0)
(3 -3.46583e-16 0)
(3 -4.83134e-16 0)
(3 -4.29922e-16 0)
(3 1.70847e-16 0)
(3 5.13813e-16 0)
(3 3.95648e-16 0)
(3 2.8905e-16 0)
(3 3.35429e-16 0)
(3 7.15022e-17 0)
(3 1.48713e-16 0)
(3 1.85023e-16 0)
(3 1.59162e-16 0)
(3 -1.09903e-16 0)
(3 -1.4179e-16 0)
(3 -1.1705e-16 0)
(3 7.58035e-17 0)
(3 4.57398e-16 0)
(3 -1.95674e-16 0)
(3 -6.73469e-16 0)
(3 -4.23007e-17 0)
(3 8.04754e-16 0)
(3 8.72973e-16 0)
(3 8.5313e-17 0)
(3 -1.13674e-15 0)
(3 -1.33483e-15 0)
(3 -1.47573e-15 0)
(3 2.56618e-16 0)
(3 8.48417e-16 0)
(3 1.71629e-15 0)
(3 2.55667e-15 0)
(3 2.33082e-15 0)
(3 2.06106e-15 0)
(3 2.17276e-15 0)
(3 1.89637e-15 0)
(3 1.21968e-15 0)
(3 2.81476e-16 0)
(3 -7.64218e-16 0)
(3 -9.07953e-16 0)
(3 -6.8068e-16 0)
(3 -6.06368e-16 0)
(3 -4.95822e-16 0)
(3 -2.68994e-16 0)
(3 -2.0541e-16 0)
(3 -4.74769e-16 0)
(3 -1.6399e-15 0)
(3 -2.46739e-15 0)
(3 -2.96874e-15 0)
(3 -1.9978e-15 0)
(3 -1.81439e-15 0)
(3 -8.28105e-16 0)
(3 5.55241e-17 0)
(3 5.88505e-16 0)
(3 -5.01231e-16 0)
(3 -2.07193e-15 0)
(3 -3.84887e-15 0)
(3 -4.97807e-15 0)
(3 -5.44942e-15 0)
(3 -4.21453e-15 0)
(3 -4.11984e-15 0)
(3 -3.09292e-15 0)
(3 -2.30811e-15 0)
(3 -2.0061e-15 0)
(3 -1.30455e-15 0)
(3 -7.80267e-16 0)
(3 -1.1061e-16 0)
(3 -3.74422e-16 0)
(3 -6.15748e-16 0)
(3 -4.28648e-16 0)
(3 -4.49794e-16 0)
(3 -6.74302e-16 0)
(3 -9.5781e-16 0)
(3 -7.52502e-16 0)
(3 3.22614e-16 0)
(3 1.28013e-15 0)
(3 7.29502e-16 0)
(3 -4.20474e-16 0)
(3 -3.44435e-16 0)
(3 -7.47229e-16 0)
(3 -9.6702e-16 0)
(3 -7.46225e-16 0)
(3 5.59556e-16 0)
(3 5.83181e-16 0)
(3 -2.6199e-17 0)
(3 -2.73063e-16 0)
(3 1.86876e-16 0)
(3 1.19576e-15 0)
(3 9.93732e-16 0)
(3 1.17612e-15 0)
(3 8.96967e-16 0)
(3 3.30998e-16 0)
(3 5.2722e-16 0)
(3 1.16043e-15 0)
(3 1.18825e-15 0)
(3 1.2465e-15 0)
(3 1.25538e-15 0)
(3 9.28648e-16 0)
(3 3.8295e-16 0)
(3 2.03772e-16 0)
(3 2.65356e-16 0)
(3 2.53397e-16 0)
(3 -1.43325e-15 0)
(3 -1.39279e-15 0)
(3 -1.23867e-15 0)
(3 -5.94067e-16 0)
(3 8.34564e-19 0)
(3 -6.28741e-18 0)
(3 1.30891e-16 0)
(3 8.51199e-16 0)
(3 8.46701e-16 0)
(3 7.60721e-16 0)
(3 6.47891e-16 0)
(3 8.12029e-16 0)
(3 8.26208e-16 0)
(3 6.63525e-16 0)
(3 7.0781e-16 0)
(3 5.32389e-16 0)
(3 7.97407e-16 0)
(3 6.86426e-16 0)
(3 2.14102e-16 0)
(3 -8.68244e-16 0)
(3 -2.16107e-15 0)
(3 -1.89954e-15 0)
(3 -1.67567e-15 0)
(3 -1.91234e-16 0)
(3 9.48797e-16 0)
(3 2.63896e-15 0)
(3 2.84589e-15 0)
(3 3.1484e-15 0)
(3 2.9886e-15 0)
(3 1.27471e-15 0)
(3 9.10462e-16 0)
(3 1.06344e-15 0)
(3 -6.6704e-16 0)
(3 -1.5611e-15 0)
(3 -1.703e-15 0)
(3 -2.35857e-15 0)
(3 -1.84848e-15 0)
(3 -6.73522e-16 0)
(3 -4.88608e-16 0)
(3 -7.05824e-16 0)
(3 -1.18468e-15 0)
(3 -2.4728e-15 0)
(3 -2.64601e-15 0)
(3 -2.30794e-15 0)
(3 -2.48113e-15 0)
(3 -2.51323e-15 0)
(3 -2.99422e-15 0)
(3 -2.13988e-15 0)
(3 -2.98731e-15 0)
(3 -4.0481e-15 0)
(3 -4.68661e-15 0)
(3 -4.16841e-15 0)
(3 -3.18661e-15 0)
(3 -3.14342e-15 0)
(3 -2.75826e-15 0)
(3 -2.17968e-15 0)
(3 -1.77475e-15 0)
(3 -1.1376e-15 0)
(3 1.71221e-16 0)
(3 1.10957e-17 0)
(3 2.27514e-17 0)
(3 3.10123e-16 0)
(3 5.93534e-16 0)
(3 5.98475e-16 0)
(3 8.25365e-17 0)
(3 -8.21262e-16 0)
(3 -1.70539e-15 0)
(3 -1.16966e-15 0)
(3 -6.0679e-16 0)
(3 -2.28137e-16 0)
(3 6.04031e-18 0)
(3 2.4916e-17 0)
(3 -1.5891e-16 0)
(3 -8.12445e-16 0)
(3 -1.22295e-15 0)
(3 -1.11023e-15 0)
(3 -7.83782e-16 0)
(3 -4.56219e-16 0)
(3 -1.65934e-16 0)
(3 -7.86696e-16 0)
(3 -1.05109e-15 0)
(3 -7.81553e-16 0)
(3 -3.37006e-16 0)
(3 -1.97532e-17 0)
(3 -5.22712e-17 0)
(3 -3.22843e-16 0)
(3 -1.42294e-16 0)
(3 1.80403e-16 0)
(3 2.457e-16 0)
(3 -7.80825e-17 0)
(3 -7.61851e-17 0)
(3 -1.3718e-16 0)
(3 9.14265e-16 0)
(3 2.91836e-16 0)
(3 -2.73904e-16 0)
(3 -1.05549e-15 0)
(3 -1.69034e-15 0)
(3 -2.06542e-15 0)
(3 -1.89753e-15 0)
(3 -1.13968e-15 0)
(3 -4.36576e-16 0)
(3 1.22484e-16 0)
(3 5.94054e-16 0)
(3 9.94941e-16 0)
(3 7.70901e-16 0)
(3 3.15972e-16 0)
(3 3.25007e-16 0)
(3 8.21535e-16 0)
(3 1.11977e-15 0)
(3 1.35086e-15 0)
(3 1.5987e-15 0)
(3 4.07065e-16 0)
(3 -1.21479e-16 0)
(3 -8.98679e-16 0)
(3 -2.78285e-16 0)
(3 -5.05341e-16 0)
(3 -2.08209e-15 0)
(3 -2.42894e-15 0)
(3 -1.92252e-15 0)
(3 -4.30745e-16 0)
(3 -3.38601e-16 0)
(3 2.95822e-16 0)
(3 1.64195e-15 0)
(3 1.88966e-15 0)
(3 8.03163e-16 0)
(3 -2.23653e-17 0)
(3 -2.50042e-16 0)
(3 -9.22236e-16 0)
(3 -1.0245e-15 0)
(3 -2.3543e-15 0)
(3 -3.13008e-15 0)
(3 -2.58256e-15 0)
(3 -1.13683e-15 0)
(3 -3.13603e-16 0)
(3 -6.23689e-16 0)
(3 -7.06903e-16 0)
(3 -6.29899e-16 0)
(3 -6.68011e-16 0)
(3 -4.24414e-16 0)
(3 -7.06833e-16 0)
(3 -1.19799e-15 0)
(3 -1.62272e-15 0)
(3 -2.68048e-15 0)
(3 -3.46557e-15 0)
(3 -4.17693e-15 0)
(3 -4.50795e-15 0)
(3 -5.26184e-15 0)
(3 -3.52938e-15 0)
(3 -1.25473e-15 0)
(3 -9.9036e-16 0)
(3 -1.19758e-15 0)
(3 -1.81601e-15 0)
(3 -1.71999e-15 0)
(3 -1.16814e-15 0)
(3 -2.36806e-17 0)
(3 2.4012e-16 0)
(3 8.74475e-17 0)
(3 3.04376e-16 0)
(3 4.52982e-16 0)
(3 2.15798e-16 0)
(3 5.59166e-17 0)
(3 1.58612e-16 0)
(3 1.36962e-16 0)
(3 -7.1627e-16 0)
(3 -1.20542e-15 0)
(3 -2.24251e-15 0)
(3 -2.05389e-15 0)
(3 -1.79693e-15 0)
(3 -9.55839e-16 0)
(3 -6.48631e-16 0)
(3 -8.12304e-16 0)
(3 -1.20324e-15 0)
(3 -1.50251e-15 0)
(3 -1.31926e-15 0)
(3 -2.96249e-16 0)
(3 2.18514e-16 0)
(3 1.86254e-16 0)
(3 -8.58726e-16 0)
(3 -1.04672e-15 0)
(3 -1.10803e-15 0)
(3 -3.79883e-16 0)
(3 -4.9088e-16 0)
(3 -1.07832e-15 0)
(3 -1.5243e-15 0)
(3 -1.33369e-15 0)
(3 -1.21119e-15 0)
(3 -9.04405e-16 0)
(3 -6.71743e-16 0)
(3 -2.23976e-17 0)
(3 -3.43014e-16 0)
(3 -1.0645e-15 0)
(3 -1.23615e-15 0)
(3 -1.55012e-15 0)
(3 -2.28537e-15 0)
(3 -2.14118e-15 0)
(3 1.24357e-16 0)
(3 8.5271e-16 0)
(3 1.41698e-15 0)
(3 7.69583e-16 0)
(3 -9.6361e-17 0)
(3 -5.97557e-16 0)
(3 -2.11571e-16 0)
(3 2.74879e-16 0)
(3 7.33266e-16 0)
(3 1.37861e-15 0)
(3 1.67759e-15 0)
(3 1.25395e-15 0)
(3 8.8943e-16 0)
(3 8.74769e-16 0)
(3 5.92717e-16 0)
(3 5.33817e-16 0)
(3 2.10328e-16 0)
(3 -7.91463e-17 0)
(3 -6.72616e-17 0)
(3 -1.15608e-16 0)
(3 -2.16005e-16 0)
(3 -3.7309e-16 0)
(3 -5.32353e-16 0)
(3 -5.15564e-16 0)
(3 -2.72087e-16 0)
(3 -5.86954e-16 0)
(3 -1.29382e-15 0)
(3 -1.74459e-15 0)
(3 -1.85692e-15 0)
(3 -1.4979e-15 0)
(3 -1.93633e-15 0)
(3 -1.98255e-15 0)
(3 4.79797e-17 0)
(3 -1.77795e-16 0)
(3 -9.47183e-16 0)
(3 -9.85767e-16 0)
(3 -9.40687e-16 0)
(3 -5.68773e-16 0)
(3 9.93124e-16 0)
(3 1.10221e-15 0)
(3 1.08301e-17 0)
(3 -2.37149e-17 0)
(3 -1.93878e-16 0)
(3 -1.10504e-15 0)
(3 -2.88169e-15 0)
(3 -3.4998e-15 0)
(3 -3.80116e-15 0)
(3 -2.72481e-15 0)
(3 -4.36069e-16 0)
(3 1.04726e-15 0)
(3 8.15344e-16 0)
(3 -5.32842e-16 0)
(3 -1.05932e-15 0)
(3 -7.38226e-16 0)
(3 -2.75041e-16 0)
(3 1.43664e-15 0)
(3 1.56819e-15 0)
(3 -2.24828e-17 0)
(3 -2.76998e-16 0)
(3 -3.11572e-16 0)
(3 1.13169e-16 0)
(3 1.87851e-16 0)
(3 -1.27664e-16 0)
(3 1.08709e-16 0)
(3 -1.75685e-16 0)
(3 -9.00057e-16 0)
(3 -9.44354e-16 0)
(3 -6.01935e-16 0)
(3 -2.99027e-16 0)
(3 -1.14443e-16 0)
(3 1.01833e-16 0)
(3 -4.88782e-16 0)
(3 -8.20375e-16 0)
(3 -7.93166e-16 0)
(3 -5.44623e-16 0)
(3 -3.4239e-16 0)
(3 2.25171e-16 0)
(3 4.01431e-16 0)
(3 4.17199e-16 0)
(3 3.32386e-16 0)
(3 -1.5472e-16 0)
(3 -2.96504e-16 0)
(3 -2.0221e-16 0)
(3 -6.00852e-16 0)
(3 -1.64412e-15 0)
(3 -2.79214e-15 0)
(3 -2.79994e-15 0)
(3 -2.10567e-15 0)
(3 -1.90598e-15 0)
(3 -2.46936e-15 0)
(3 -2.4355e-15 0)
(3 -2.02185e-15 0)
(3 -1.76663e-15 0)
(3 -1.3605e-15 0)
(3 -1.31572e-15 0)
(3 -1.26571e-15 0)
(3 4.53702e-16 0)
(3 9.89137e-16 0)
(3 1.37855e-15 0)
(3 4.71192e-16 0)
(3 -6.92488e-16 0)
(3 -7.10283e-16 0)
(3 1.10542e-15 0)
(3 2.28094e-15 0)
(3 1.86287e-15 0)
(3 9.15668e-16 0)
(3 9.79598e-16 0)
(3 2.38485e-16 0)
(3 3.17896e-16 0)
(3 4.29e-16 0)
(3 5.52716e-16 0)
(3 7.75565e-16 0)
(3 1.48383e-15 0)
(3 2.22794e-15 0)
(3 2.07977e-15 0)
(3 7.73003e-16 0)
(3 -8.73067e-16 0)
(3 -7.40027e-16 0)
(3 -8.65644e-16 0)
(3 -9.21511e-16 0)
(3 -8.7245e-16 0)
(3 -1.01089e-15 0)
(3 -2.53548e-15 0)
(3 -2.68931e-15 0)
(3 -1.68498e-15 0)
(3 -1.23526e-15 0)
(3 -1.73728e-17 0)
(3 5.69307e-16 0)
(3 1.81204e-16 0)
(3 -8.61876e-16 0)
(3 -9.41743e-16 0)
(3 -4.6948e-16 0)
(3 -2.5025e-16 0)
(3 8.88532e-17 0)
(3 6.09437e-16 0)
(3 5.1621e-16 0)
(3 1.20676e-15 0)
(3 -2.2743e-16 0)
(3 -1.111e-15 0)
(3 -1.66466e-15 0)
(3 -1.52429e-15 0)
(3 -1.42126e-15 0)
(3 -1.42755e-15 0)
(3 2.63843e-16 0)
(3 1.72483e-15 0)
(3 1.97638e-15 0)
(3 1.36742e-15 0)
(3 4.85572e-16 0)
(3 7.76292e-16 0)
(3 1.48683e-15 0)
(3 1.81594e-15 0)
(3 2.28864e-15 0)
(3 2.38956e-15 0)
(3 -8.65922e-19 0)
(3 -8.53441e-17 0)
(3 -3.21898e-16 0)
(3 8.87214e-17 0)
(3 -3.21777e-16 0)
(3 -6.83735e-16 0)
(3 -2.26991e-16 0)
(3 3.24919e-16 0)
(3 1.30858e-15 0)
(3 1.37015e-15 0)
(3 8.9592e-16 0)
(3 1.43399e-16 0)
(3 -2.06973e-16 0)
(3 -4.95093e-17 0)
(3 -1.75001e-16 0)
(3 4.41852e-16 0)
(3 5.55855e-16 0)
(3 6.99048e-16 0)
(3 7.59137e-17 0)
(3 -3.70473e-16 0)
(3 -5.87714e-16 0)
(3 -4.10541e-16 0)
(3 2.3243e-16 0)
(3 4.0841e-16 0)
(3 -6.41615e-18 0)
(3 -2.63366e-16 0)
(3 -5.0079e-16 0)
(3 -1.11096e-15 0)
(3 -2.10898e-15 0)
(3 -2.04606e-15 0)
(3 -2.18487e-15 0)
(3 -2.04062e-15 0)
(3 -1.48481e-15 0)
(3 -8.17105e-16 0)
(3 -1.55554e-16 0)
(3 5.367e-16 0)
(3 3.20839e-16 0)
(3 7.83147e-16 0)
(3 8.69118e-16 0)
(3 3.03408e-16 0)
(3 7.87672e-17 0)
(3 3.64938e-16 0)
(3 5.75167e-16 0)
(3 1.03411e-15 0)
(3 1.60421e-15 0)
(3 1.4127e-15 0)
(3 4.8211e-17 0)
(3 -8.83305e-17 0)
(3 -8.62343e-16 0)
(3 -9.51287e-16 0)
(3 -1.26761e-15 0)
(3 -1.66878e-15 0)
(3 -1.63801e-15 0)
(3 -1.36494e-15 0)