/*--------------------------------*- C++ -*----------------------------------*\
  =========                 |
  \\      /  F ield         | OpenFOAM: The Open Source CFD Toolbox
   \\    /   O peration     | Website:  https://openfoam.org
    \\  /    A nd           | Version:  7
     \\/     M anipulation  |
\*---------------------------------------------------------------------------*/
FoamFile
{
    version     2.0;
    format      ascii;
    class       volScalarField;
    location    "2.2";
    object      p;
}
// * * * * * * * * * * * * * * * * * * * * * * * * * * * * * * * * * * * * * //

dimensions      [1 -1 -2 0 0 0 0];

internalField   nonuniform List<scalar> 
18432
(
1
1
1
1
1
1
1
1
1
1
1
1
1
1
1
1
1
1
1
1
1
1
1
1
1
1
1
1
1
1
1
1
1
1
1
1
1
1
1
1
1
1
1
1
1
1
1
1
1
1
1
1
1
1
1
1
1
1
1
1
1
1
1
1
1
1
1
1
1
1
1
1
1
1
1
1
1
1
1
1
1
1
1
1
1
1
1
1
1
1
1
1
1
1
1
1
1
1
1
1
1
1
1
1
1
1
1
1
1
1
1
1
1
1
1
1
1
1
1
1
1
1
1
1
1
1
1
1
1
1
1
1
1
1
1
1
1
1
1
1
1
1
1
1
1
1
1
1
1
1
1
1
1
1
1
1
1
1
1
1
1
1
1
1
1
1
1
1
1
1
1
1
1
1
1
1
1
1
1
1
1
1
1
1
1
1
1
1
1
1
1
1
1
1
1
1
1
1
1
1
1
1
1
1
1
1
1
1
1
1
1
1
1
1
1
1
1
1
1
1
1
1
1
1
1
1
1
1
1
1
1
1
1
1
1
1
1
1
1
1
1
1
1
1
1
1
1
1
1
1
1
1
1
1
1
1
1
1
1
1
1
1
1
1
1
1
1
1
1
1
1
1
1
1
1
1
1
1
1
1
1
1
1
1
1
1
1
1
1
1
1
1
1
1
1
1
1
1
1
1
1
1
1
1
1
1
1
1
1
1
1
1
1
1
1
1
1
1
1
1
1
1
1
1
1
1
1
1
1
1
1
1
1
1
1
1
1
1
1
1
1
1
1
1
1
1
1
1
1
1
1
1
1
1
1
1
1
1
1
1
1
1
1
1
1
1
1
1
1
1
1
1
1
1
1
1
1
1
1
1
1
1
1
1
1
1
1
1
1
1
1
1
1
1
1
1
1
1
1
1
1
1
1
1
1
1
1
1
1
1
1
1
1
1
1
1
1
1
1
1
1
1
1
1
1
1
1
1
1
1
1
1
1
1
1
1
1
1
1
1
1
1
1
1
1
1
1
1
1
1
1
1
1
1
1
1
1
1
1
1
1
1
1
1
1
1
1
1
1
1
1
1
1
1
1
1
1
1
1
1
1
1
1
1
1
1
1
1
1
1
1
1
1
1
1
1
1
1
1
1
1
1
1
1
1
1
1
1
1
1
1
1
1
1
1
1
1
1
1
1
1
1
1
1
1
1
1
1
1
1
1
1
1
1
1
1
1
1
1
1
1
1
1
1
1
1
1
1
1
1
1
1
1
1
1
1
1
1
1
1
1
1
1
1
1
1
1
1
1
1
1
1
1
1
1
1
1
1
1
1
1
1
1
1
1
1
1
1
1
1
1
1
1
1
1
1
1
1
1
1
1
1
1
1
1
1
1
1
1
1
1
1
1
1
1
1
1
1
1
1
1
1
1
1
1
1
1
1
1
1
1
1
1
1
1
1
1
1
1
1
1
1
1
1
1
1
1
1
1
1
1
1
1
1
1
1
1
1
1
1
1
1
1
1
1
1
1
1
1
1
1
1
1
1
1
1
1
1
1
1
1
1
1
1
1
1
1
1
1
1
1
1
1
1
1
1
1
1
1
1
1
1
1
1
1
1
1
1
1
1
1
1
1
1
1
1
1
1
1
1
1
1
1
1
1
1
1
1
1
1
1
1
1
1
1
1
1
1
1
1
1
1
1
1
1
1
1
1
1
1
1
1
1
1
1
1
1
1
1
1
1
1
1
1
1
1
1
1
1
1
1
1
1
1
1
1
1
1
1
1
1
1
1
1
1
1
1
1
1
1
1
1
1
1
1
1
1
1
1
1
1
1
1
1
1
1
1
1
1
1
1
1
1
1
1
1
1
1
1
1
1
1
1
1
1
1
1
1
1
1
1
1
1
1
1
1
1
1
1
1
1
1
1
1
1
1
1
1
1
1
1
1
1
1
1
1
1
1
1
1
1
1
1
1
1
1
1
1
1
1
1
1
1
1
1
1
1
1
1
1
1
1
1
1
1
1
1
1
1
1
1
1
1
1
1
1
1
1
1
1
1
1
1
1
1
1
1
1
1
1
1
1
1
1
1
1
1
1
1
1
1
1
1
1
1
1
1
1
1
1
1
1
1
1
1
1
1
1
1
1
1
1
1
1
1
1
1
1
1
1
1
1
1
1
1
1
1
1
1
1
1
1
1
1
1
1
1
1
1
1
1
1
1
1
1
1
1
1
1
1
1
1
1
1
1
1
1
1
1
1
1
1
1
1
1
1
1
1
1
1
1
1
1
1
1
1
1
1
1
1
1
1
1
1
1
1
1
1
1
1
1
1
1
1
1
1
1
1
1
1
1
1
1
1
1
1
1
1
1
1
1
1
1
1
1
1
1
1
1
1
1
1
1
1
1
1
1
1
1
1
1
1
1
1
1
1
1
1
1
1
1
1
1
1
1
1
1
1
1
1
1
1
1
1
1
1
1
1
1
1
1
1
1
1
1
1
1
1
1
1
1
1
1
1
1
1
1
1
1
1
1
1
1
1
1
1
1
1
1
1
1
1
1
1
1
1
1
1
1
1
1
1
1
1
1
1
1
1
1
1
1
1
1
1
1
1
1
1
1
1
1
1
1
1
1
1
1
1
1
1
1
1
1
1
1
1
1
1
1
1
1
1
1
1
1
1
1
1
1
1
1
1
1
1
1
1
1
1
1
1
1
1
1
1
1
1
1
1
1
1
1
1
1
1
1
1
1
1
1
1
1
1
1
1
1
1
1
1
1
1
1
1
1
1
1
1
1
1
1
1
1
1
1
1
1
1
1
1
1
1
1
1
1
1
1
1
1
1
1
1
1
1
1
1
1
1
1
1
1
1
1
1
1
1
1
1
1
1
1
1
1
1
1
1
1
1
1
1
1
1
1
1
1
1
1
1
1
1
1
1
1
1
1
1
1
1
1
1
1
1
1
1
1
1
1
1
1
1
1
1
1
1
1
1
1
1
1
1
1
1
1
1
1
1
1
1
1
1
1
1
1
1
1
1
1
1
1
1
1
1
1
1
1
1
1
1
1
1
1
1
1
1
1
1
1
1
1
1
1
1
1
1
1
1
1
1
1
1
1
1
1
1
1
1
1
1
1
1
1
1
1
1
1
1
1
1
1
1
1
1
1
1
1
1
1
1
1
1
1
1
1
1
1
1
1
1
1
1
1
1
1
1
1
1
1
1
1
1
1
1
1
1
1
1
1
1
1
1
1
1
1
1
1
1
1
1
1
1
1
1
1
1
1
1
1
1
1
1
1
1
1
1
1
1
1
1
1
1
1
1
1
1
1
1
1
1
1
1
1
1
1
1
1
1
1
1
1
1
1
1
1
1
1
1
1
1
1
1
1
1
1
1
1
1
1
1
1
1
1
1
1
1
1
1
1
1
1
1
1
1
1
1
1
1
1
1
1
1
1
1
1
1
1
1
1
1
1
1
1
1
1
1
1
1
1
1
1
1
1
1
1
1
1
1
1
1
1
1
1
1
1
1
1
1
1
1
1
1
1
1
1
1
1
1
1
1
1
1
1
1
1
1
1
1
1
1
1
1
1
1
1
1
1
1
1
1
1
1
1
1
1
1
1
1
1
1
1
1
1
1
1
1
1
1
1
1
1
1
1
1
1
1
1
1
1
1
1
1
1
1
1
1
1
1
1
1
1
1
1
1
1
1
1
1
1
1
1
1
1
1
1
1
1
1
1
1
1
1
1
1
1
1
1
1
1
1
1
1
1
1
1
1
1
1
1
1
1
1
1
1
1
1
1
1
1
1
1
1
1
1
1
1
1
1
1
1
1
1
1
1
1
1
1
1
1
1
1
1
1
1
1
1
1
1
1
1
1
1
1
1
1
1
1
1
1
1
1
1
1
1
1
1
1
1
1
1
1
1
1
1
1
1
1
1
1
1
1
1
1
1
1
1
1
1
1
1
1
1
1
1
1
1
1
1
1
1
1
1
1
1
1
1
1
1
1
1
1
1
1
1
1
1
1
1
1
1
1
1
1
1
1
1
1
1
1
1
1
1
1
1
1
1
1
1
1
1
1
1
1
1
1
1
1
1
1
1
1
1
1
1
1
1
1
1
1
1
1
1
1
1
1
1
1
1
1
1
1
1
1
1
1
1
1
1
1
1
1
1
1
1
1
1
1
1
1
1
1
1
1
1
1
1
1
1
1
1
1
1
1
1
1
1
1
1
1
1
1
1
1
1
1
1
1
1
1
1
1
1
1
1
1
1
1
1
1
1
1
1
1
1
1
1
1
1
1
1
1
1
1
1
1
1
1
1
1
1
1
1
1
1
1
1
1
1
1
1
1
1
1
1
1
1
1
1
1
1
1
1
1
1
1
1
1
1
1
1
1
1
1
1
1
1
1
1
1
1
1
1
1
1
1
1
1
1
1
1
1
1
1
1
1
1
1
1
1
1
1
1
1
1
1
1
1
1
1
1
1
1
1
1
1
1
1
1
1
1
1
1
1
1
1
1
1
1
1
1
1
1
1
1
1
1
1
1
1
1
1
1
1
1
1
1
1
1
1
1
1
1
1
1
1
1
1
1
1
1
1
1
1
1
1
1
1
1
1
1
1
1
1
1
1
1
1
1
1
1
1
1
1
1
1
1
1
1
1
1
1
1
1
1
1
1
1
1
1
1
1
1
1
1
1
1
1
1
1
1
1
1
1
1
1
1
1
1
1
1
1
1
1
1
1
1
1
1
1
1
1
1
1
1
1
1
1
1
1
1
1
1
1
1
1
1
1
1
1
1
1
1
1
1
1
1
1
1
1
1
1
1
1
1
1
1
1
1
1
1
1
1
1
1
1
1
1
1
1
1
1
1
1
1
1
1
1
1
1
1
1
1
1
1
1
1
1
1
1
1
1
1
1
1
1
1
1
1
1
1
1
1
1
1
1
1
1
1
1
1
1
1
1
1
1
1
1
1
1
1
1
1
1
1
1
1
1
1
1
1
1
1
1
1
1
1
1
1
1
1
1
1
1
1
1
1
1
1
1
1
1
1
1
1
1
1
1
1
1
1
1
1
1
1
1
1
1
1
1
1
1
1
1
1
1
1
1
1
1
1
1
1
1
1
1
1
1
1
1
1
1
1
1
1
1
1
1
1
1
1
1
1
1
1
1
1
1
1
1
1
1
1
1
1
1
1
1
1
1
1
1
1
1
1
1
1
1
1
1
1
1
1
1
1
1
1
1
1
1
1
1
1
1
1
1
1
1
1
1
1
1
1
1
1
1
1
1
1
1
1
1
1
1
1
1
1
1
1
1
1
1
1
1
1
1
1
1
1
1
1
1
1
1
1
1
1
1
1
1
1
1
1
1
1
1
1
1
1
1
1
1
1
1
1
1
1
1
1
1
1
1
1
1
1
1
1
1
1
1
1
1
1
1
1
1
1
1
1
1
1
1
1
1
1
1
1
1
1
1
1
1
1
1
1
1
1
1
1
1
1
1
1
1
1
1
1
1
1
1
1
1
1
1
1
1
1
1
1
1
1
1
1
1
1
1
1
1
1
1
1
1
1
1
1
1
1
1
1
1
1
1
1
1
1
1
1
1
1
1
1
1
1
1
1
1
1
1
1
1
1
1
1
1
1
1
1
1
1
1
1
1
1
1
1
1
1
1
1
1
1
1
1
1
1
1
1
1
1
1
1
1
1
1
1
1
1
1
1
1
1
1
1
1
1
1
1
1
1
1
1
1
1
1
1
1
1
1
1
1
1
1
1
1
1
1
1
1
1
1
1
1
1
1
1
1
1
1
1
1
1
1
1
1
1
1
1
1
1
1
1
1
1
1
1
1
1
1
1
1
1
1
1
1
1
1
1
1
1
1
1
1
1
1
1
1
1
1
1
1
1
1
1
1
1
1
1
1
1
1
1
1
1
1
1
1
1
1
1
1
1
1
1
1
1
1
1
1
1
1
1
1
1
1
1
1
1
1
1
1
1
1
1
1
1
1
1
1
1
1
1
1
1
1
1
1
1
1
1
1
1
1
1
1
1
1
1
1
1
1
1
1
1
1
1
1
1
1
1
1
1
1
1
1
1
1
1
1
1
1
1
1
1
1
1
1
1
1
1
1
1
1
1
1
1
1
1
1
1
1
1
1
1
1
1
1
1
1
1
1
1
1
1
1
1
1
1
1
1
1
1
1
1
1
1
1
1
1
1
1
1
1
1
1
1
1
1
1
1
1
1
1
1
1
1
1
1
1
1
1
1
1
1
1
1
1
1
1
1
1
1
1
1
1
1
1
1
1
1
1
1
1
1
1
1
1
1
1
1
1
1
1
1
1
1
1
1
1
1
1
1
1
1
1
1
1
1
1
1
1
1
1
1
1
1
1
1
1
1
1
1
1
1
1
1
1
1
1
1
1
1
1
1
1
1
1
1
1
1
1
1
1
1
1
1
1
1
1
1
1
1
1
1
1
1
1
1
1
1
1
1
1
1
1
1
1
1
1
1
1
1
1
1
1
1
1
1
1
1
1
1
1
1
1
1
1
1
1
1
1
1
1
1
1
1
1
1
1
1
1
1
1
1
1
1
1
1
1
1
1
1
1
1
1
1
1
1
1
1
1
1
1
1
1
1
1
1
1
1
1
1
1
1
1
1
1
1
1
1
1
1
1
1
1
1
1
1
1
1
1
1
1
1
1
1
1
1
1
1
1
1
1
1
1
1
1
1
1
1
1
1
1
1
1
1
1
1
1
1
1
1
1
1
1
1
1
1
1
1
1
1
1
1
1
1
1
1
1
1
1
1
1
1
1
1
1
1
1
1
1
1
1
1
1
1
1
1
1
1
1
1
1
1
1
1
1
1
1
1
1
1
1
1
1
1
1
1
1
1
1
1
1
1
1
1
1
1
1
1
1
1
1
1
1
1
1
1
1
1
1
1
1
1
1
1
1
1
1.29017
1.74721
2.3383
2.89729
3.52948
4.20113
4.65609
5.09012
5.34123
5.26571
4.95305
4.47319
4.05507
3.77858
3.66816
3.58609
3.56443
3.58781
3.62109
3.65189
3.68592
3.70972
3.72899
3.73965
3.74402
3.74809
3.75463
3.76146
3.76363
3.76312
3.76525
3.77446
3.78855
3.79739
3.79822
3.7963
3.7904
3.78085
3.77276
3.76877
3.76821
3.76846
3.76901
3.77068
3.77119
3.77118
3.76896
3.76538
1.00251
1.01571
1.06655
1.20736
1.41097
1.76377
2.22169
2.75608
3.31301
3.72892
3.91609
4.03235
4.03272
3.959
3.84933
3.77712
3.73299
3.71226
3.67509
3.66563
3.67525
3.69736
3.72358
3.74863
3.75881
3.76248
3.75935
3.75965
3.76079
3.76074
3.76211
3.76687
3.77187
3.77602
3.77853
3.77772
3.77472
3.77072
3.76841
3.76849
3.7692
3.77128
3.77605
3.77892
3.77912
3.7785
3.77516
3.77167
1
0.999979
1.00003
1.0001
1.00139
1.01301
1.06346
1.21901
1.60924
2.33359
3.34062
3.90383
4.30433
4.32577
4.2623
4.12507
3.95602
3.76329
3.66332
3.65906
3.67046
3.68825
3.71781
3.75246
3.76641
3.77029
3.77142
3.76951
3.77062
3.77428
3.7767
3.77816
3.77668
3.77469
3.77169
3.76698
3.76238
3.75961
3.75929
3.7602
3.76266
3.76799
3.77607
3.78166
3.78315
3.78293
3.78129
3.7793
1
1
1
1
0.999999
0.999989
1.00005
1.00007
1.00592
1.06814
1.42246
2.13639
3.17564
3.86726
4.02659
4.02748
3.9523
3.876
3.81555
3.75543
3.73318
3.70762
3.6938
3.6998
3.71329
3.73123
3.74537
3.75673
3.76651
3.77306
3.77866
3.78193
3.7818
3.7809
3.77785
3.77282
3.76953
3.76716
3.76591
3.76657
3.76925
3.77407
3.77921
3.78177
3.78063
3.7782
3.77469
3.77235
1
1
1
1
1
1
1
1
1
0.999927
1.00197
1.04609
1.28631
2.00712
2.82324
3.71207
4.01466
4.02529
3.98985
3.92456
3.8091
3.73771
3.69946
3.67535
3.67399
3.68368
3.69672
3.71291
3.73084
3.74487
3.75611
3.76574
3.7735
3.77598
3.77633
3.77607
3.77569
3.77493
3.7744
3.77569
3.7792
3.78378
3.78635
3.78576
3.78317
3.77897
3.7722
3.76982
1
1
1
1
1
1
1
1
1
0.999997
0.999998
0.999955
1.00067
1.03209
1.21808
1.80228
2.71022
3.41391
3.92279
3.93331
3.88927
3.8353
3.79369
3.75504
3.7217
3.69796
3.69192
3.6937
3.70848
3.73446
3.75255
3.76575
3.77293
3.77486
3.7748
3.77472
3.77389
3.77181
3.77064
3.77134
3.77496
3.7779
3.7769
3.77414
3.77067
3.76614
3.76131
3.76227
1
1
1
1
1
1
1
1
1
1
1
0.999998
0.999998
0.999965
1.00051
1.01694
1.20496
1.66495
2.57253
3.21233
3.68312
3.87164
3.87055
3.85367
3.79851
3.75815
3.73721
3.72127
3.72226
3.73044
3.74581
3.76694
3.77449
3.7767
3.77566
3.77428
3.77223
3.76853
3.76642
3.76591
3.76991
3.77305
3.77261
3.77072
3.76836
3.76724
3.7652
3.76724
1
1
1
1
1
1
1
1
1
1
1
1
1
0.999997
0.999998
0.999972
1.00068
1.01245
1.14461
1.61035
2.37821
3.19933
3.50228
3.66445
3.74875
3.76665
3.76056
3.7328
3.72968
3.73604
3.74303
3.75092
3.76089
3.76976
3.76985
3.76798
3.7668
3.76625
3.76682
3.77181
3.77734
3.77902
3.77862
3.77732
3.77524
3.77401
3.77308
3.77355
1
1
1
1
1
1
1
1
1
1
1
1
1
1
1
0.999998
0.999998
0.999981
1.00036
1.01337
1.10827
1.56378
2.26748
3.12272
3.51215
3.62372
3.6929
3.68857
3.70197
3.71416
3.71312
3.71859
3.72817
3.73898
3.74958
3.75746
3.76242
3.76693
3.77075
3.77652
3.78055
3.78119
3.78166
3.78155
3.77892
3.77504
3.77405
3.77385
1
1
1
1
1
1
1
1
1
1
1
1
1
1
1
1
1
0.999998
0.999998
0.999985
1.00023
1.01327
1.11046
1.48296
2.23954
2.9748
3.53739
3.66662
3.70165
3.71473
3.71233
3.70799
3.71136
3.71717
3.72731
3.73897
3.74975
3.76026
3.76874
3.77511
3.77682
3.77661
3.77783
3.77917
3.77733
3.77406
3.77361
3.77305
1
1
1
1
1
1
1
1
1
1
1
1
1
1
1
1
1
1
1
0.999998
0.999999
0.999987
1.00035
1.00902
1.12428
1.45954
2.2255
2.93004
3.47194
3.70257
3.7534
3.74832
3.75409
3.7507
3.74674
3.7521
3.7601
3.76863
3.77878
3.78297
3.78233
3.77839
3.77603
3.77418
3.77083
3.76742
3.76686
3.76636
1
1
1
1
1
1
1
1
1
1
1
1
1
1
1
1
1
1
1
1
1
0.999998
0.999999
0.999987
1.00061
1.00908
1.11589
1.51593
2.25434
2.97622
3.39607
3.64282
3.73125
3.74577
3.75151
3.76763
3.77154
3.77462
3.78133
3.78575
3.78726
3.78476
3.78201
3.77967
3.77526
3.77255
3.77199
3.77155
1
1
1
1
1
1
1
1
1
1
1
1
1
1
1
1
1
1
1
1
1
1
1
0.999998
0.999999
0.99999
1.00069
1.01458
1.11729
1.57787
2.30022
3.16317
3.45211
3.56864
3.65141
3.72185
3.72887
3.74045
3.75571
3.76687
3.77315
3.77473
3.77234
3.77125
3.77056
3.77217
3.77499
3.77648
1
1
1
1
1
1
1
1
1
1
1
1
1
1
1
1
1
1
1
1
1
1
1
1
1
0.999998
0.999999
0.999996
1.00074
1.02325
1.14788
1.66715
2.4509
3.25085
3.61586
3.6608
3.68798
3.70781
3.72555
3.74125
3.74677
3.74803
3.75203
3.75786
3.76463
3.76892
3.77104
3.77387
1
1
1
1
1
1
1
1
1
1
1
1
1
1
1
1
1
1
1
1
1
1
1
1
1
1
1
0.999999
0.999998
1.00003
1.0013
1.0333
1.22489
1.82993
2.67903
3.34598
3.69676
3.76314
3.77004
3.77856
3.77151
3.76031
3.76095
3.76681
3.77362
3.77634
3.77682
3.77785
1
1
1
1
1
1
1
1
1
1
1
1
1
1
1
1
1
1
1
1
1
1
1
1
1
1
1
1
1
1
0.999998
1.0001
1.00332
1.05584
1.36989
2.08516
2.91122
3.42556
3.69377
3.76256
3.76141
3.78038
3.78785
3.78973
3.79126
3.79129
3.78929
3.78742
1
1
1
1
1
1
1
1
1
1
1
1
1
1
1
1
1
1
1
1
1
1
1
1
1
1
1
1
1
1
1
1
0.999996
1.00033
1.00997
1.10558
1.58233
2.45104
3.27318
3.5045
3.61378
3.71842
3.73918
3.75298
3.76801
3.7788
3.78367
3.7842
1
1
1
1
1
1
1
1
1
1
1
1
1
1
1
1
1
1
1
1
1
1
1
1
1
1
1
1
1
1
1
1
0.999999
0.999999
1
1.00121
1.03101
1.22728
1.91412
2.83117
3.54308
3.66422
3.69352
3.71523
3.73506
3.75576
3.76809
3.7685
1
1
1
1
1
1
1
1
1
1
1
1
1
1
1
1
1
1
1
1
1
1
1
1
1
1
1
1
1
1
1
1
1
1
1
0.999998
1.00012
1.0049
1.08877
1.48015
2.40648
3.22516
3.68504
3.78721
3.79085
3.79429
3.79437
3.78177
1
1
1
1
1
1
1
1
1
1
1
1
1
1
1
1
1
1
1
1
1
1
1
1
1
1
1
1
1
1
1
1
1
1
1
1
0.999999
1
1.00102
1.02239
1.25913
1.95284
2.92114
3.42872
3.70458
3.78969
3.78564
3.78699
1
1
1
1
1
1
1
1
1
1
1
1
1
1
1
1
1
1
1
1
1
1
1
1
1
1
1
1
1
1
1
1
1
1
1
1
1
1
0.999999
1.00012
1.00742
1.09422
1.60429
2.60152
3.42154
3.59397
3.6631
3.70837
1
1
1
1
1
1
1
1
1
1
1
1
1
1
1
1
1
1
1
1
1
1
1
1
1
1
1
1
1
1
1
1
1
1
1
1
1
1
1
1
1.00001
1.00154
1.04261
1.34849
2.22042
3.20642
3.66723
3.72052
1
1
1
1
1
1
1
1
1
1
1
1
1
1
1
1
1
1
1
1
1
1
1
1
1
1
1
1
1
1
1
1
1
1
1
1
1
1
1
1
1
1
1.00038
1.016
1.19584
1.91387
2.88244
3.57285
1
1
1
1
1
1
1
1
1
1
1
1
1
1
1
1
1
1
1
1
1
1
1
1
1
1
1
1
1
1
1
1
1
1
1
1
1
1
1
1
1
1
1
1.00011
1.00542
1.1044
1.69199
2.77277
1
1
1
1
1
1
1
1
1
1
1
1
1
1
1
1
1
1
1
1
1
1
1
1
1
1
1
1
1
1
1
1
1
1
1
1
1
1
1
1
1
1
1
1
1.00002
1.00248
1.06931
1.44429
1
1
1
1
1
1
1
1
1
1
1
1
1
1
1
1
1
1
1
1
1
1
1
1
1
1
1
1
1
1
1
1
1
1
1
1
1
1
1
1
1
1
1
1
1
1.00001
1.00132
1.01685
1
1
1
1
1
1
1
1
1
1
1
1
1
1
1
1
1
1
1
1
1
1
1
1
1
1
1
1
1
1
1
1
1
1
1
1
1
1
1
1
1
1
1
1
1
1
1.00001
0.999818
1
1
1
1
1
1
1
1
1
1
1
1
1
1
1
1
1
1
1
1
1
1
1
1
1
1
1
1
1
1
1
1
1
1
1
1
1
1
1
1
1
1
1
1
1
1
1
0.999932
1
1
1
1
1
1
1
1
1
1
1
1
1
1
1
1
1
1
1
1
1
1
1
1
1
1
1
1
1
1
1
1
1
1
1
1
1
1
1
1
1
1
1
1
1
1
1
0.99999
1
1
1
1
1
1
1
1
1
1
1
1
1
1
1
1
1
1
1
1
1
1
1
1
1
1
1
1
1
1
1
1
1
1
1
1
1
1
1
1
1
1
1
1
1
1
1
1
1
1
1
1
1
1
1
1
1
1
1
1
1
1
1
1
1
1
1
1
1
1
1
1
1
1
1
1
1
1
1
1
1
1
1
1
1
1
1
1
1
1
1
1
1
1
1
1
1
1
1
1
1
1
1
1
1
1
1
1
1
1
1
1
1
1
1
1
1
1
1
1
1
1
1
1
1
1
1
1
1
1
1
1
1
1
1
1
1
1
1
1
1
1
1
1
1
1
1
1
1
1
1
1
1
1
1
1
1
1
1
1
1
1
1
1
1
1
1
1
1
1
1
1
1
1
1
1
1
1
1
1
1
1
1
1
1
1
1
1
1
1
1
1
1
1
1
1
1
1
1
1
1
1
1
1
1
1
1
1
1
1
1
1
1
1
1
1
1
1
1
1
1
1
1
1
1
1
1
1
1
1
1
1
1
1
1
1
1
1
1
1
1
1
1
1
1
1
1
1
1
1
1
1
1
1
1
1
1
1
1
1
1
1
1
1
1
1
1
1
1
1
1
1
1
1
1
1
1
1
1
1
1
1
1
1
1
1
1
1
1
1
1
1
1
1
1
1
1
1
1
1
1
1
1
1
1
1
1
1
1
1
1
1
1
1
1
1
1
1
1
1
1
1
1
1
1
1
1
1
1
1
1
1
1
1
1
0.99999
1
1
1
1
1
1
1
1
1
1
1
1
1
1
1
1
1
1
1
1
1
1
1
1
1
1
1
1
1
1
1
1
1
1
1
1
1
1
1
1
1
1
1
1
1
1
1
0.999932
1
1
1
1
1
1
1
1
1
1
1
1
1
1
1
1
1
1
1
1
1
1
1
1
1
1
1
1
1
1
1
1
1
1
1
1
1
1
1
1
1
1
1
1
1
1
1.00001
0.999818
1
1
1
1
1
1
1
1
1
1
1
1
1
1
1
1
1
1
1
1
1
1
1
1
1
1
1
1
1
1
1
1
1
1
1
1
1
1
1
1
1
1
1
1
1
1.00001
1.00132
1.01684
1
1
1
1
1
1
1
1
1
1
1
1
1
1
1
1
1
1
1
1
1
1
1
1
1
1
1
1
1
1
1
1
1
1
1
1
1
1
1
1
1
1
1
1
1.00002
1.00248
1.0693
1.4442
1
1
1
1
1
1
1
1
1
1
1
1
1
1
1
1
1
1
1
1
1
1
1
1
1
1
1
1
1
1
1
1
1
1
1
1
1
1
1
1
1
1
1
1.00011
1.00542
1.10441
1.69189
2.77249
1
1
1
1
1
1
1
1
1
1
1
1
1
1
1
1
1
1
1
1
1
1
1
1
1
1
1
1
1
1
1
1
1
1
1
1
1
1
1
1
1
1
1.00038
1.016
1.19588
1.91396
2.88223
3.57278
1
1
1
1
1
1
1
1
1
1
1
1
1
1
1
1
1
1
1
1
1
1
1
1
1
1
1
1
1
1
1
1
1
1
1
1
1
1
1
1
1.00001
1.00154
1.0426
1.34852
2.22048
3.20646
3.667
3.72042
1
1
1
1
1
1
1
1
1
1
1
1
1
1
1
1
1
1
1
1
1
1
1
1
1
1
1
1
1
1
1
1
1
1
1
1
1
1
0.999999
1.00012
1.00742
1.09423
1.60422
2.60169
3.42129
3.59391
3.66317
3.7084
1
1
1
1
1
1
1
1
1
1
1
1
1
1
1
1
1
1
1
1
1
1
1
1
1
1
1
1
1
1
1
1
1
1
1
1
0.999999
1
1.00102
1.02239
1.25913
1.95284
2.92115
3.42877
3.70448
3.78972
3.78572
3.78702
1
1
1
1
1
1
1
1
1
1
1
1
1
1
1
1
1
1
1
1
1
1
1
1
1
1
1
1
1
1
1
1
1
1
1
0.999998
1.00012
1.0049
1.08877
1.48015
2.40651
3.22513
3.68502
3.78722
3.79086
3.7943
3.79441
3.78181
1
1
1
1
1
1
1
1
1
1
1
1
1
1
1
1
1
1
1
1
1
1
1
1
1
1
1
1
1
1
1
1
0.999999
0.999999
1
1.00121
1.03101
1.22728
1.91411
2.83118
3.54308
3.6642
3.69351
3.71523
3.73507
3.75578
3.76811
3.76851
1
1
1
1
1
1
1
1
1
1
1
1
1
1
1
1
1
1
1
1
1
1
1
1
1
1
1
1
1
1
1
1
0.999996
1.00033
1.00997
1.10558
1.58233
2.45104
3.27317
3.50451
3.61378
3.7184
3.73918
3.75299
3.76801
3.77881
3.78368
3.78421
1
1
1
1
1
1
1
1
1
1
1
1
1
1
1
1
1
1
1
1
1
1
1
1
1
1
1
1
1
1
0.999998
1.0001
1.00332
1.05584
1.36989
2.08515
2.91122
3.42556
3.69376
3.76257
3.7614
3.78037
3.78785
3.78973
3.79126
3.7913
3.78929
3.78742
1
1
1
1
1
1
1
1
1
1
1
1
1
1
1
1
1
1
1
1
1
1
1
1
1
1
1
0.999999
0.999998
1.00003
1.0013
1.0333
1.22489
1.82993
2.67903
3.34598
3.69676
3.76314
3.77004
3.77856
3.77151
3.76031
3.76095
3.76681
3.77362
3.77634
3.77682
3.77785
1
1
1
1
1
1
1
1
1
1
1
1
1
1
1
1
1
1
1
1
1
1
1
1
1
0.999998
0.999999
0.999996
1.00074
1.02325
1.14788
1.66715
2.4509
3.25085
3.61586
3.6608
3.68798
3.70781
3.72555
3.74125
3.74677
3.74803
3.75203
3.75786
3.76463
3.76892
3.77104
3.77387
1
1
1
1
1
1
1
1
1
1
1
1
1
1
1
1
1
1
1
1
1
1
1
0.999998
0.999999
0.99999
1.00069
1.01458
1.11729
1.57787
2.30022
3.16317
3.45211
3.56865
3.65141
3.72185
3.72887
3.74045
3.75571
3.76687
3.77315
3.77473
3.77234
3.77125
3.77056
3.77217
3.77499
3.77648
1
1
1
1
1
1
1
1
1
1
1
1
1
1
1
1
1
1
1
1
1
0.999998
0.999999
0.999987
1.00061
1.00908
1.11589
1.51593
2.25434
2.97622
3.39607
3.64282
3.73125
3.74577
3.75151
3.76763
3.77154
3.77462
3.78133
3.78575
3.78726
3.78476
3.78201
3.77967
3.77526
3.77255
3.77199
3.77155
1
1
1
1
1
1
1
1
1
1
1
1
1
1
1
1
1
1
1
0.999998
0.999999
0.999987
1.00035
1.00902
1.12428
1.45954
2.2255
2.93004
3.47194
3.70257
3.7534
3.74832
3.75409
3.7507
3.74674
3.7521
3.7601
3.76863
3.77878
3.78297
3.78233
3.77839
3.77603
3.77418
3.77083
3.76742
3.76686
3.76636
1
1
1
1
1
1
1
1
1
1
1
1
1
1
1
1
1
0.999998
0.999998
0.999985
1.00023
1.01327
1.11046
1.48296
2.23954
2.9748
3.53739
3.66662
3.70165
3.71473
3.71233
3.70799
3.71136
3.71717
3.72731
3.73897
3.74975
3.76026
3.76874
3.77511
3.77682
3.77661
3.77783
3.77917
3.77733
3.77406
3.77361
3.77305
1
1
1
1
1
1
1
1
1
1
1
1
1
1
1
0.999998
0.999998
0.999981
1.00036
1.01337
1.10827
1.56378
2.26748
3.12272
3.51215
3.62372
3.6929
3.68857
3.70197
3.71416
3.71312
3.71859
3.72817
3.73898
3.74958
3.75746
3.76242
3.76693
3.77075
3.77652
3.78055
3.78119
3.78166
3.78155
3.77892
3.77505
3.77405
3.77385
1
1
1
1
1
1
1
1
1
1
1
1
1
0.999997
0.999998
0.999972
1.00068
1.01245
1.14461
1.61035
2.37821
3.19933
3.50228
3.66445
3.74875
3.76665
3.76056
3.7328
3.72968
3.73604
3.74303
3.75092
3.76089
3.76976
3.76985
3.76798
3.7668
3.76625
3.76682
3.77181
3.77734
3.77902
3.77862
3.77732
3.77524
3.77401
3.77308
3.77354
1
1
1
1
1
1
1
1
1
1
1
0.999998
0.999998
0.999965
1.00051
1.01694
1.20496
1.66495
2.57253
3.21233
3.68312
3.87164
3.87055
3.85367
3.79851
3.75815
3.73721
3.72127
3.72226
3.73044
3.74581
3.76694
3.77449
3.7767
3.77566
3.77428
3.77223
3.76853
3.76642
3.76591
3.76991
3.77305
3.77261
3.77072
3.76836
3.76724
3.7652
3.76724
1
1
1
1
1
1
1
1
1
0.999997
0.999998
0.999955
1.00067
1.03209
1.21808
1.80228
2.71022
3.41391
3.92279
3.93331
3.88927
3.8353
3.79369
3.75504
3.7217
3.69796
3.69192
3.6937
3.70848
3.73446
3.75256
3.76575
3.77293
3.77486
3.7748
3.77472
3.77389
3.77181
3.77064
3.77134
3.77496
3.7779
3.7769
3.77414
3.77067
3.76614
3.76131
3.76227
1
1
1
1
1
1
1
1
1
0.999927
1.00197
1.04609
1.28631
2.00712
2.82324
3.71207
4.01466
4.02529
3.98985
3.92456
3.8091
3.73771
3.69946
3.67535
3.67399
3.68368
3.69672
3.71291
3.73084
3.74487
3.75611
3.76574
3.7735
3.77598
3.77633
3.77607
3.77569
3.77493
3.7744
3.77569
3.7792
3.78378
3.78635
3.78576
3.78317
3.77897
3.7722
3.76982
1
1
1
1
0.999999
0.999989
1.00005
1.00007
1.00592
1.06814
1.42246
2.13639
3.17563
3.86726
4.02659
4.02748
3.9523
3.876
3.81555
3.75543
3.73318
3.70762
3.6938
3.6998
3.71329
3.73123
3.74537
3.75673
3.76651
3.77306
3.77866
3.78193
3.7818
3.7809
3.77785
3.77282
3.76953
3.76716
3.76591
3.76657
3.76925
3.77407
3.77921
3.78177
3.78063
3.7782
3.77469
3.77235
1
0.999979
1.00003
1.0001
1.00139
1.01301
1.06346
1.21901
1.60924
2.33359
3.34062
3.90383
4.30433
4.32577
4.2623
4.12507
3.95602
3.76329
3.66332
3.65906
3.67046
3.68825
3.71781
3.75246
3.76641
3.77029
3.77142
3.76951
3.77062
3.77428
3.7767
3.77816
3.77668
3.77469
3.77169
3.76698
3.76238
3.75961
3.75929
3.7602
3.76266
3.76799
3.77607
3.78166
3.78315
3.78293
3.78129
3.7793
1.00251
1.01571
1.06655
1.20736
1.41097
1.76377
2.22169
2.75608
3.31301
3.72892
3.91609
4.03235
4.03272
3.959
3.84933
3.77712
3.73299
3.71226
3.67509
3.66563
3.67525
3.69736
3.72358
3.74863
3.75881
3.76248
3.75935
3.75965
3.76079
3.76074
3.76211
3.76687
3.77187
3.77602
3.77853
3.77772
3.77472
3.77072
3.76841
3.76849
3.7692
3.77128
3.77605
3.77892
3.77912
3.7785
3.77516
3.77167
1.29017
1.74721
2.3383
2.89729
3.52948
4.20113
4.65609
5.09012
5.34123
5.26571
4.95305
4.47319
4.05507
3.77858
3.66816
3.58609
3.56443
3.58782
3.62109
3.65189
3.68592
3.70972
3.72899
3.73965
3.74402
3.74809
3.75463
3.76146
3.76363
3.76312
3.76524
3.77446
3.78855
3.79739
3.79822
3.7963
3.7904
3.78085
3.77276
3.76877
3.76821
3.76846
3.76901
3.77068
3.77119
3.77118
3.76896
3.76538
2.6407
1.70426
1.18457
0.806899
0.636489
0.659532
0.725137
0.730989
0.765623
0.868116
0.962767
0.963206
0.969662
1.00682
1.02886
1.03534
1.04671
1.07447
1.07938
1.07566
1.06923
1.06745
1.06387
1.05391
1.05208
1.05493
1.05512
1.05202
1.04516
1.03769
1.03546
1.03578
1.03704
1.04066
1.04525
1.04673
1.04722
1.0471
1.04441
1.04331
1.04445
1.04735
1.0504
1.05108
1.05106
1.05043
1.04865
1.04835
1.05499
1.21125
1.88091
3.23165
5.18591
7.7465
10.2018
10.1606
9.38082
8.42514
8.06481
7.85171
7.62076
7.46296
7.35727
7.27774
7.16131
7.01592
6.81412
6.52023
6.3272
6.25118
6.18852
6.12449
6.03589
5.93735
5.79621
5.54459
5.30005
5.20886
5.15835
5.13299
5.10522
5.05335
4.98229
4.83474
4.64834
4.55009
4.49824
4.44826
4.39073
4.31269
4.18415
4.02302
3.93503
3.89395
3.86206
3.8434
3.82235
3.78942
3.73978
3.62859
3.47213
3.37164
3.32854
3.30237
3.27846
3.25139
3.21558
3.16542
3.0852
3.00613
2.96378
2.93396
2.90389
2.86714
2.809
2.72351
2.66945
2.64812
2.63007
2.61223
2.59383
2.57325
2.54477
2.49192
2.40453
2.33778
2.31085
2.29336
2.27811
2.2635
2.247
2.22478
2.19328
2.14091
2.0833
2.05567
2.03784
2.0198
2.00197
1.98315
1.96471
1.94182
1.91628
1.88654
1.89631
1.99344
2.2947
2.90839
3.67437
4.35095
4.91304
5.44206
5.54825
5.47822
5.41724
5.30487
5.19481
5.10084
4.99822
4.90543
4.83293
4.76528
4.69272
4.63311
4.60493
4.58666
4.57557
4.55442
4.52511
4.49344
4.43591
4.31444
4.21535
4.18264
4.15941
4.13993
4.11892
4.0952
4.06585
4.01228
3.92687
3.87963
3.8588
3.84164
3.82991
3.81239
3.78888
3.75841
3.69641
3.58614
3.52919
3.49955
3.37438
2.70435
2.20704
1.81881
1.39948
1.24956
1.16012
1.02998
0.98833
0.985931
0.946471
0.90635
0.907889
0.927516
0.96102
0.981132
0.99682
1.02926
1.03584
1.03342
1.03404
1.04153
1.04841
1.0499
1.05523
1.05877
1.0581
1.05365
1.04675
1.04257
1.04217
1.04207
1.04286
1.04656
1.0495
1.04985
1.04976
1.04843
1.04582
1.04449
1.04443
1.04559
1.04738
1.04839
1.04819
1.04661
1.04692
1.05867
1.19498
1.9405
2.84057
3.21985
3.91746
4.77286
6.53785
8.0281
8.65683
8.54548
8.28477
7.94752
7.63171
7.49677
7.40274
7.31709
7.18735
7.03975
6.85957
6.60185
6.34031
6.20588
6.13439
6.08964
6.027
5.9346
5.81044
5.62557
5.39979
5.24736
5.18009
5.13332
5.07811
5.0114
4.92537
4.81969
4.68654
4.57279
4.4949
4.4446
4.39341
4.31986
4.20321
4.07058
3.97511
3.91512
3.87327
3.83641
3.80262
3.76652
3.70978
3.61068
3.4914
3.40681
3.35147
3.30618
3.27538
3.25388
3.23141
3.18971
3.11578
3.0345
2.9883
2.95612
2.924
2.88695
2.83493
2.76058
2.69978
2.6768
2.65786
2.63778
2.61684
2.59349
2.56239
2.50945
2.42307
2.34768
2.31636
2.29814
2.28086
2.26397
2.24882
2.23527
2.21117
2.16253
2.08903
2.05319
2.04385
2.03656
2.02112
2.00323
1.9857
1.96594
1.94981
1.97175
2.08965
2.4001
2.82343
3.11245
3.38999
3.78454
4.20239
4.58406
4.86161
5.09824
5.2926
5.30661
5.23908
5.125
5.01544
4.9291
4.86454
4.80209
4.73206
4.66232
4.61926
4.59808
4.5831
4.56606
4.53531
4.4995
4.44321
4.33934
4.23847
4.20233
4.17956
4.15701
4.1339
4.10848
4.0763
4.02467
3.94726
3.89695
3.87609
3.85784
3.84233
3.82247
3.79775
3.76388
3.7043
3.60939
3.55007
3.51788
3.66669
3.33741
2.8427
2.40622
1.97342
1.64269
1.45228
1.25949
1.07171
1.02878
0.979639
0.918395
0.916694
0.929772
0.944445
0.948746
0.957005
0.981858
1.00014
1.00528
1.01162
1.02476
1.03751
1.04226
1.04761
1.05245
1.05331
1.05228
1.04923
1.04712
1.04691
1.04699
1.04879
1.05175
1.05186
1.05111
1.04917
1.04555
1.04374
1.04356
1.04374
1.04528
1.04673
1.0471
1.04603
1.04856
1.08353
1.2666
1.96535
3.07216
3.41388
3.36988
3.39372
3.51079
4.08046
5.82959
7.87142
8.72706
8.57865
8.08915
7.64622
7.49323
7.37818
7.22611
7.07858
6.9635
6.84332
6.67165
6.42895
6.19227
6.07017
5.99322
5.92548
5.8436
5.74636
5.64489
5.52483
5.36765
5.21155
5.11509
5.03587
4.94465
4.84175
4.75132
4.69367
4.62754
4.5411
4.44187
4.34669
4.25497
4.16145
4.08259
4.01621
3.94737
3.88771
3.84758
3.79839
3.73259
3.64785
3.55181
3.47359
3.42181
3.37094
3.32282
3.28283
3.24268
3.19705
3.14455
3.07702
3.00905
2.96363
2.93251
2.90238
2.86901
2.82796
2.76164
2.67497
2.63463
2.61943
2.60249
2.58252
2.55958
2.52916
2.47838
2.41094
2.36971
2.34549
2.32354
2.305
2.28678
2.26494
2.23362
2.19175
2.13705
2.09381
2.06483
2.04555
2.02295
2.00524
1.99243
1.98199
1.98566
2.028
2.22741
2.58694
2.94782
3.20938
3.28684
3.31488
3.37312
3.54596
3.85647
4.3553
4.82753
5.10192
5.25042
5.23521
5.14509
4.99575
4.9216
4.86927
4.80914
4.75592
4.70151
4.63094
4.57323
4.54726
4.52144
4.49029
4.45802
4.41622
4.35555
4.27646
4.20401
4.15905
4.12979
4.10398
4.07945
4.0503
4.00995
3.96388
3.90969
3.85825
3.83252
3.81184
3.78937
3.76435
3.7315
3.68363
3.62924
3.57872
3.51404
3.75045
3.6246
3.31234
2.92002
2.50325
2.10777
1.84694
1.62233
1.36864
1.26934
1.19479
1.06989
1.02019
1.0172
0.989806
0.955907
0.952336
0.951824
0.947269
0.948723
0.956125
0.978465
1.01012
1.0262
1.03435
1.04177
1.04464
1.04539
1.04333
1.04308
1.04636
1.054
1.05991
1.06066
1.05997
1.05762
1.05246
1.04804
1.04751
1.04772
1.04818
1.04795
1.0477
1.04728
1.05041
1.11315
1.49149
2.12291
3.06189
3.5257
3.544
3.46695
3.38705
3.34271
3.32804
3.62127
5.00593
7.25738
8.07274
7.92872
7.75198
7.56444
7.34804
7.12424
7.00272
6.93461
6.84387
6.71709
6.51449
6.24636
6.02474
5.91427
5.83569
5.77759
5.73745
5.68502
5.60946
5.47343
5.25794
5.06795
4.96258
4.88148
4.81053
4.74837
4.68235
4.60559
4.51872
4.39747
4.28072
4.2153
4.17128
4.13055
4.07819
4.01429
3.93917
3.84503
3.75086
3.65839
3.57879
3.52273
3.48399
3.44591
3.40276
3.3537
3.2991
3.2387
3.17382
3.11166
3.05564
3.0039
2.95859
2.93127
2.91267
2.88883
2.85109
2.78541
2.69298
2.62999
2.60488
2.58928
2.57297
2.55248
2.52085
2.4696
2.41608
2.37336
2.33634
2.30437
2.27991
2.26318
2.2458
2.22152
2.18396
2.12761
2.08076
2.05677
2.03923
2.0188
2.0088
2.00495
2.03206
2.14066
2.43239
2.82069
3.15332
3.32349
3.35352
3.34597
3.31238
3.27012
3.27436
3.35014
3.6106
4.02804
4.4731
4.88669
5.01853
5.01198
4.99387
4.95699
4.91229
4.8546
4.80251
4.74399
4.66449
4.58467
4.53752
4.50145
4.46565
4.43599
4.41061
4.37551
4.30988
4.22603
4.16407
4.12544
4.09463
4.06567
4.04081
4.01782
3.98455
3.93237
3.87252
3.82739
3.79994
3.77415
3.74703
3.71817
3.68862
3.65067
3.60315
3.52817
3.7611
3.73151
3.58383
3.31686
2.9481
2.54547
2.25386
1.98196
1.68686
1.52702
1.41816
1.26583
1.15335
1.10839
1.05249
0.980462
0.962866
0.957929
0.9432
0.942929
0.951442
0.963628
0.981464
0.998134
1.00457
1.01217
1.01905
1.02489
1.03111
1.03391
1.03934
1.05286
1.05763
1.05772
1.05674
1.05419
1.05177
1.05111
1.05194
1.0542
1.05455
1.05327
1.05021
1.05165
1.10778
1.61767
2.50518
3.09214
3.48967
3.56944
3.54044
3.47133
3.37996
3.34421
3.27413
3.20539
3.33391
4.34477
6.18422
7.58895
7.82689
7.63779
7.29356
7.05916
6.97143
6.91052
6.8063
6.67428
6.50931
6.28805
6.04506
5.87354
5.79226
5.73594
5.70845
5.64961
5.57269
5.47195
5.27847
5.04168
4.91421
4.85135
4.79872
4.75404
4.70261
4.63231
4.5008
4.33655
4.25284
4.21082
4.17207
4.13333
4.08819
4.03041
3.93552
3.79496
3.67629
3.60874
3.566
3.53138
3.49909
3.46505
3.42522
3.37555
3.31347
3.22985
3.14905
3.08754
3.0395
2.9977
2.95697
2.91648
2.88301
2.85412
2.82084
2.77411
2.71561
2.65718
2.61217
2.58491
2.56224
2.53571
2.50087
2.45683
2.41509
2.37927
2.34495
2.31195
2.28272
2.25911
2.24306
2.22153
2.17786
2.11663
2.07692
2.0573
2.04069
2.02955
2.03989
2.0986
2.30602
2.67889
3.12064
3.28762
3.39536
3.41224
3.39657
3.35831
3.30939
3.2659
3.25443
3.24905
3.28412
3.38922
3.65994
4.10271
4.57361
4.83992
4.95837
4.95579
4.9213
4.86177
4.81169
4.76611
4.70527
4.61915
4.52442
4.472
4.44556
4.41619
4.3842
4.34971
4.3088
4.25358
4.1859
4.13146
4.09783
4.06872
4.03738
4.00185
3.96296
3.92071
3.87483
3.82548
3.7901
3.76622
3.74069
3.70802
3.66943
3.63219
3.60438
3.55024
3.76154
3.74669
3.69567
3.55752
3.30555
2.93905
2.62713
2.34843
2.04948
1.83929
1.686
1.50845
1.36511
1.29038
1.21876
1.11032
1.06884
1.04523
1.00221
0.979922
0.983874
0.98363
0.971791
0.968415
0.969034
0.969985
0.976448
0.987957
1.00332
1.01807
1.03011
1.04681
1.05294
1.05353
1.05327
1.05115
1.04923
1.04972
1.05241
1.05499
1.05474
1.05347
1.05834
1.12585
1.62551
2.73565
3.24109
3.45294
3.54781
3.48927
3.43268
3.42154
3.37511
3.33268
3.27598
3.16543
3.09674
3.15252
3.71843
5.27458
6.97759
7.3343
7.26272
7.14573
7.02309
6.8843
6.74179
6.62889
6.50796
6.33074
6.1013
5.90005
5.77495
5.70319
5.65162
5.60341
5.53081
5.43702
5.27644
5.05683
4.91439
4.84885
4.8015
4.75253
4.69422
4.60882
4.45437
4.29769
4.23737
4.19878
4.17655
4.16054
4.11806
4.05595
3.93541
3.74415
3.62526
3.58954
3.56792
3.56181
3.54987
3.51831
3.47838
3.41344
3.29777
3.18779
3.12384
3.07797
3.03892
3.00368
2.96606
2.92242
2.87417
2.83304
2.80377
2.78179
2.75453
2.70612
2.63717
2.57476
2.53636
2.50689
2.47937
2.45314
2.42551
2.39662
2.36758
2.33974
2.3121
2.28194
2.24265
2.19397
2.14134
2.10581
2.08872
2.07437
2.06343
2.07431
2.18167
2.47729
2.91713
3.26956
3.50044
3.54115
3.53268
3.47973
3.4027
3.34777
3.31679
3.29162
3.27341
3.25548
3.23661
3.19193
3.20324
3.33922
3.70192
4.23237
4.6163
4.77258
4.87436
4.8947
4.87204
4.8212
4.73299
4.63515
4.5367
4.46695
4.43493
4.40103
4.36437
4.3302
4.29472
4.26044
4.21579
4.15091
4.09574
4.06025
4.02666
3.99058
3.95631
3.92147
3.88099
3.83565
3.79072
3.75163
3.71857
3.687
3.6568
3.63054
3.60951
3.56317
3.76724
3.7566
3.74325
3.6869
3.5311
3.26725
2.98713
2.67936
2.3774
2.1584
1.96939
1.76718
1.60378
1.49057
1.38637
1.25864
1.19197
1.14919
1.08961
1.02157
1.01433
1.00324
0.979614
0.974581
0.973589
0.968523
0.967812
0.970196
0.978619
0.995941