/*--------------------------------*- C++ -*----------------------------------*\
  =========                 |
  \\      /  F ield         | OpenFOAM: The Open Source CFD Toolbox
   \\    /   O peration     | Website:  https://openfoam.org
    \\  /    A nd           | Version:  7
     \\/     M anipulation  |
\*---------------------------------------------------------------------------*/
FoamFile
{
    version     2.0;
    format      ascii;
    class       volScalarField;
    location    "2.2";
    object      T;
}
// * * * * * * * * * * * * * * * * * * * * * * * * * * * * * * * * * * * * * //

dimensions      [0 0 0 1 0 0 0];

internalField   nonuniform List<scalar> 
18432
(
1
1
1
1
1
1
1
1
1
1
1
1
1
1
1
1
1
1
1
1
1
1
1
1
1
1
1
1
1
1
1
1
1
1
1
1
1
1
1
1
1
1
1
1
1
1
1
1
1
1
1
1
1
1
1
1
1
1
1
1
1
1
1
1
1
1
1
1
1
1
1
1
1
1
1
1
1
1
1
1
1
1
1
1
1
1
1
1
1
1
1
1
1
1
1
1
1
1
1
1
1
1
1
1
1
1
1
1
1
1
1
1
1
1
1
1
1
1
1
1
1
1
1
1
1
1
1
1
1
1
1
1
1
1
1
1
1
1
1
1
1
1
1
1
1
1
1
1
1
1
1
1
1
1
1
1
1
1
1
1
1
1
1
1
1
1
1
1
1
1
1
1
1
1
1
1
1
1
1
1
1
1
1
1
1
1
1
1
1
1
1
1
1
1
1
1
1
1
1
1
1
1
1
1
1
1
1
1
1
1
1
1
1
1
1
1
1
1
1
1
1
1
1
1
1
1
1
1
1
1
1
1
1
1
1
1
1
1
1
1
1
1
1
1
1
1
1
1
1
1
1
1
1
1
1
1
1
1
1
1
1
1
1
1
1
1
1
1
1
1
1
1
1
1
1
1
1
1
1
1
1
1
1
1
1
1
1
1
1
1
1
1
1
1
1
1
1
1
1
1
1
1
1
1
1
1
1
1
1
1
1
1
1
1
1
1
1
1
1
1
1
1
1
1
1
1
1
1
1
1
1
1
1
1
1
1
1
1
1
1
1
1
1
1
1
1
1
1
1
1
1
1
1
1
1
1
1
1
1
1
1
1
1
1
1
1
1
1
1
1
1
1
1
1
1
1
1
1
1
1
1
1
1
1
1
1
1
1
1
1
1
1
1
1
1
1
1
1
1
1
1
1
1
1
1
1
1
1
1
1
1
1
1
1
1
1
1
1
1
1
1
1
1
1
1
1
1
1
1
1
1
1
1
1
1
1
1
1
1
1
1
1
1
1
1
1
1
1
1
1
1
1
1
1
1
1
1
1
1
1
1
1
1
1
1
1
1
1
1
1
1
1
1
1
1
1
1
1
1
1
1
1
1
1
1
1
1
1
1
1
1
1
1
1
1
1
1
1
1
1
1
1
1
1
1
1
1
1
1
1
1
1
1
1
1
1
1
1
1
1
1
1
1
1
1
1
1
1
1
1
1
1
1
1
1
1
1
1
1
1
1
1
1
1
1
1
1
1
1
1
1
1
1
1
1
1
1
1
1
1
1
1
1
1
1
1
1
1
1
1
1
1
1
1
1
1
1
1
1
1
1
1
1
1
1
1
1
1
1
1
1
1
1
1
1
1
1
1
1
1
1
1
1
1
1
1
1
1
1
1
1
1
1
1
1
1
1
1
1
1
1
1
1
1
1
1
1
1
1
1
1
1
1
1
1
1
1
1
1
1
1
1
1
1
1
1
1
1
1
1
1
1
1
1
1
1
1
1
1
1
1
1
1
1
1
1
1
1
1
1
1
1
1
1
1
1
1
1
1
1
1
1
1
1
1
1
1
1
1
1
1
1
1
1
1
1
1
1
1
1
1
1
1
1
1
1
1
1
1
1
1
1
1
1
1
1
1
1
1
1
1
1
1
1
1
1
1
1
1
1
1
1
1
1
1
1
1
1
1
1
1
1
1
1
1
1
1
1
1
1
1
1
1
1
1
1
1
1
1
1
1
1
1
1
1
1
1
1
1
1
1
1
1
1
1
1
1
1
1
1
1
1
1
1
1
1
1
1
1
1
1
1
1
1
1
1
1
1
1
1
1
1
1
1
1
1
1
1
1
1
1
1
1
1
1
1
1
1
1
1
1
1
1
1
1
1
1
1
1
1
1
1
1
1
1
1
1
1
1
1
1
1
1
1
1
1
1
1
1
1
1
1
1
1
1
1
1
1
1
1
1
1
1
1
1
1
1
1
1
1
1
1
1
1
1
1
1
1
1
1
1
1
1
1
1
1
1
1
1
1
1
1
1
1
1
1
1
1
1
1
1
1
1
1
1
1
1
1
1
1
1
1
1
1
1
1
1
1
1
1
1
1
1
1
1
1
1
1
1
1
1
1
1
1
1
1
1
1
1
1
1
1
1
1
1
1
1
1
1
1
1
1
1
1
1
1
1
1
1
1
1
1
1
1
1
1
1
1
1
1
1
1
1
1
1
1
1
1
1
1
1
1
1
1
1
1
1
1
1
1
1
1
1
1
1
1
1
1
1
1
1
1
1
1
1
1
1
1
1
1
1
1
1
1
1
1
1
1
1
1
1
1
1
1
1
1
1
1
1
1
1
1
1
1
1
1
1
1
1
1
1
1
1
1
1
1
1
1
1
1
1
1
1
1
1
1
1
1
1
1
1
1
1
1
1
1
1
1
1
1
1
1
1
1
1
1
1
1
1
1
1
1
1
1
1
1
1
1
1
1
1
1
1
1
1
1
1
1
1
1
1
1
1
1
1
1
1
1
1
1
1
1
1
1
1
1
1
1
1
1
1
1
1
1
1
1
1
1
1
1
1
1
1
1
1
1
1
1
1
1
1
1
1
1
1
1
1
1
1
1
1
1
1
1
1
1
1
1
1
1
1
1
1
1
1
1
1
1
1
1
1
1
1
1
1
1
1
1
1
1
1
1
1
1
1
1
1
1
1
1
1
1
1
1
1
1
1
1
1
1
1
1
1
1
1
1
1
1
1
1
1
1
1
1
1
1
1
1
1
1
1
1
1
1
1
1
1
1
1
1
1
1
1
1
1
1
1
1
1
1
1
1
1
1
1
1
1
1
1
1
1
1
1
1
1
1
1
1
1
1
1
1
1
1
1
1
1
1
1
1
1
1
1
1
1
1
1
1
1
1
1
1
1
1
1
1
1
1
1
1
1
1
1
1
1
1
1
1
1
1
1
1
1
1
1
1
1
1
1
1
1
1
1
1
1
1
1
1
1
1
1
1
1
1
1
1
1
1
1
1
1
1
1
1
1
1
1
1
1
1
1
1
1
1
1
1
1
1
1
1
1
1
1
1
1
1
1
1
1
1
1
1
1
1
1
1
1
1
1
1
1
1
1
1
1
1
1
1
1
1
1
1
1
1
1
1
1
1
1
1
1
1
1
1
1
1
1
1
1
1
1
1
1
1
1
1
1
1
1
1
1
1
1
1
1
1
1
1
1
1
1
1
1
1
1
1
1
1
1
1
1
1
1
1
1
1
1
1
1
1
1
1
1
1
1
1
1
1
1
1
1
1
1
1
1
1
1
1
1
1
1
1
1
1
1
1
1
1
1
1
1
1
1
1
1
1
1
1
1
1
1
1
1
1
1
1
1
1
1
1
1
1
1
1
1
1
1
1
1
1
1
1
1
1
1
1
1
1
1
1
1
1
1
1
1
1
1
1
1
1
1
1
1
1
1
1
1
1
1
1
1
1
1
1
1
1
1
1
1
1
1
1
1
1
1
1
1
1
1
1
1
1
1
1
1
1
1
1
1
1
1
1
1
1
1
1
1
1
1
1
1
1
1
1
1
1
1
1
1
1
1
1
1
1
1
1
1
1
1
1
1
1
1
1
1
1
1
1
1
1
1
1
1
1
1
1
1
1
1
1
1
1
1
1
1
1
1
1
1
1
1
1
1
1
1
1
1
1
1
1
1
1
1
1
1
1
1
1
1
1
1
1
1
1
1
1
1
1
1
1
1
1
1
1
1
1
1
1
1
1
1
1
1
1
1
1
1
1
1
1
1
1
1
1
1
1
1
1
1
1
1
1
1
1
1
1
1
1
1
1
1
1
1
1
1
1
1
1
1
1
1
1
1
1
1
1
1
1
1
1
1
1
1
1
1
1
1
1
1
1
1
1
1
1
1
1
1
1
1
1
1
1
1
1
1
1
1
1
1
1
1
1
1
1
1
1
1
1
1
1
1
1
1
1
1
1
1
1
1
1
1
1
1
1
1
1
1
1
1
1
1
1
1
1
1
1
1
1
1
1
1
1
1
1
1
1
1
1
1
1
1
1
1
1
1
1
1
1
1
1
1
1
1
1
1
1
1
1
1
1
1
1
1
1
1
1
1
1
1
1
1
1
1
1
1
1
1
1
1
1
1
1
1
1
1
1
1
1
1
1
1
1
1
1
1
1
1
1
1
1
1
1
1
1
1
1
1
1
1
1
1
1
1
1
1
1
1
1
1
1
1
1
1
1
1
1
1
1
1
1
1
1
1
1
1
1
1
1
1
1
1
1
1
1
1
1
1
1
1
1
1
1
1
1
1
1
1
1
1
1
1
1
1
1
1
1
1
1
1
1
1
1
1
1
1
1
1
1
1
1
1
1
1
1
1
1
1
1
1
1
1
1
1
1
1
1
1
1
1
1
1
1
1
1
1
1
1
1
1
1
1
1
1
1
1
1
1
1
1
1
1
1
1
1
1
1
1
1
1
1
1
1
1
1
1
1
1
1
1
1
1
1
1
1
1
1
1
1
1
1
1
1
1
1
1
1
1
1
1
1
1
1
1
1
1
1
1
1
1
1
1
1
1
1
1
1
1
1
1
1
1
1
1
1
1
1
1
1
1
1
1
1
1
1
1
1
1
1
1
1
1
1
1
1
1
1
1
1
1
1
1
1
1
1
1
1
1
1
1
1
1
1
1
1
1
1
1
1
1
1
1
1
1
1
1
1
1
1
1
1
1
1
1
1
1
1
1
1
1
1
1
1
1
1
1
1
1
1
1
1
1
1
1
1
1
1
1
1
1
1
1
1
1
1
1
1
1
1
1
1
1
1
1
1
1
1
1
1
1
1
1
1
1
1
1
1
1
1
1
1
1
1
1
1
1
1
1
1
1
1
1
1
1
1
1
1
1
1
1
1
1
1
1
1
1
1
1
1
1
1
1
1
1
1
1
1
1
1
1
1
1
1
1
1
1
1
1
1
1
1
1
1
1
1
1
1
1
1
1
1
1
1
1
1
1
1
1
1
1
1
1
1
1
1
1
1
1
1
1
1
1
1
1
1
1
1
1
1
1
1
1
1
1
1
1
1
1
1
1
1
1
1
1
1
1
1
1
1
1
1
1
1
1
1
1
1
1
1
1
1
1
1
1
1
1
1
1
1
1
1
1
1
1
1
1
1
1
1
1
1
1
1
1
1
1
1
1
1
1
1
1
1
1
1
1
1
1
1
1
1
1
1
1
1
1
1
1
1
1
1
1
1
1
1
1
1
1
1
1
1
1
1
1
1
1
1
1
1
1
1
1
1
1
1
1
1
1
1
1
1
1
1
1
1
1
1
1
1
1
1
1
1
1
1
1
1
1
1
1
1
1
1
1
1
1
1
1
1
1
1
1
1
1
1
1
1
1
1
1
1
1
1
1
1
1
1
1
1
1
1
1
1
1
1
1
1
1
1
1
1
1
1
1
1
1
1
1
1
1
1
1
1
1
1
1
1
1
1
1
1
1
1
1
1
1
1
1
1
1
1
1
1
1
1
1
1
1
1
1
1
1
1
1
1
1
1
1
1
1
1
1
1
1
1
1
1
1
1
1
1
1
1
1
1
1
1
1
1
1
1
1
1
1
1
1
1
1
1
1
1
1
1
1
1
1
1
1
1
1
1
1
1
1
1
1
1
1
1
1
1
1
1
1
1
1
1
1
1
1
1
1
1
1
1
1
1
1
1
1
1
1
1
1
1
1
1
1
1
1
1
1
1
1
1
1
1
1
1
1
1
1
1
1
1
1
1
1
1
1
1
1
1
1
1
1
1
1
1
1
1
1
1
1
1
1
1
1
1
1
1
1
1
1
1
1
1
1
1
1
1
1
1
1
1
1
1
1
1
1
1
1
1
1
1
1
1
1
1
1
1
1
1
1
1
1
1
1
1
1
1
1
1
1
1
1
1
1
1
1
1
1
1
1
1
1
1
1
1
1
1
1
1
1
1
1
1
1
1
1
1
1
1
1
1
1
1
1
1
1
1
1
1
1
1
1
1
1
1
1
1
1
1
1
1
1
1
1
1
1
1
1
1
1
1
1
1
1
1
1
1
1
1
1
1
1
1
1
1
1
1
1
1
1
1
1
1
1
1
1
1
1
1
1
1
1
1
1
1
1
1
1
1
1
1
1
1
1
1
1
1
1
1
1
1
1
1
1
1
1
1
1
1
1
1
1
1
1
1
1
1
1
1
1
1
1
1
1
1
1
1
1
1
1
1
1
1
1
1
1
1
1
1
1
1
1
1
1
1
1
1
1
1
1
1
1
1
1
1
1
1
1
1
1
1
1
1
1
1
1
1
1
1
1
1
1
1
1
1
1
1
1
1
1
1
1
1
1
1
1
1
1
1
1
1
1
1
1
1
1
1
1
1
1
1
1
1
1
1
1
1
1
1
1
1
1
1
1
1
1
1
1
1
1
1
1
1
1
1
1
1
1
1
1
1
1
1
1
1
1
1
1
1
1
1
1
1
1
1
1
1
1
1
1
1
1
1
1
1
1
1
1
1
1
1
1
1
1
1
1
1
1
1
1
1
1
1
1
1
1
1
1
1
1
1
1
1
1
1
1
1
1
1
1
1
1
1
1
1
1
1
1
1
1
1
1
1
1
1
1
1
1
1
1
1
1
1
1
1
1
1
1
1
1
1
1
1
1
1
1
1
1
1
1
1
1
1
1
1
1
1
1
1
1
1
1
1
1
1
1
1
1
1
1
1
1
1
1
1
1
1
1
1
1
1
1
1
1
1
1
1
1
1
1
1
1
1
1
1
1
1
1
1
1
1
1
1
1
1
1
1
1
1
1
1
1
1
1
1
1
1
1
1
1
1
1
1
1
1
1
1
1
1
1
1
1
1
1
1
1
1
1
1
1
1
1
1
1
1
1
1
1
1
1
1
1
1
1
1
1
1
1
1
1.07792
1.17912
1.28866
1.37989
1.47181
1.56061
1.61804
1.66693
1.69604
1.69123
1.66251
1.61318
1.56914
1.53779
1.52663
1.51618
1.5138
1.51658
1.52111
1.52587
1.53077
1.53367
1.53563
1.5368
1.53763
1.53876
1.54038
1.54171
1.54187
1.54173
1.54208
1.54363
1.54582
1.54709
1.5473
1.54723
1.54661
1.54545
1.54473
1.54459
1.54479
1.54509
1.54528
1.54553
1.54569
1.54577
1.54565
1.54551
1.00079
1.00527
1.02294
1.07013
1.12913
1.21427
1.30075
1.3798
1.45177
1.50541
1.53218
1.55314
1.56674
1.56319
1.55456
1.54646
1.54003
1.53666
1.53242
1.53275
1.53434
1.53695
1.5397
1.54228
1.54357
1.5445
1.54462
1.545
1.54501
1.5448
1.54485
1.54551
1.54642
1.54719
1.54764
1.54757
1.54719
1.54662
1.54643
1.54652
1.54679
1.54726
1.54787
1.54813
1.54815
1.54808
1.54769
1.54798
1
0.999993
1.00001
1.00004
1.00049
1.00451
1.02208
1.07386
1.18429
1.34166
1.50426
1.57845
1.62408
1.62362
1.61549
1.59929
1.57907
1.55572
1.54415
1.54441
1.54608
1.54819
1.55149
1.55483
1.55574
1.55607
1.5563
1.55616
1.55616
1.55614
1.5558
1.55537
1.55502
1.5548
1.55445
1.55377
1.5529
1.55214
1.55185
1.55179
1.55198
1.55255
1.55333
1.55366
1.55357
1.55331
1.55277
1.55358
1
1
1
1
1
0.999997
1.00001
1.00003
1.00214
1.02607
1.15118
1.33182
1.50924
1.59796
1.60625
1.60432
1.59517
1.58649
1.58
1.57349
1.57025
1.5665
1.56426
1.56414
1.56482
1.5662
1.56732
1.56844
1.56944
1.56947
1.5692
1.56863
1.56808
1.56768
1.567
1.56598
1.56487
1.56375
1.56291
1.56263
1.56265
1.56286
1.56295
1.56273
1.56195
1.56102
1.55995
1.56069
1
1
1
1
1
1
1
1
1
0.999971
1.00073
1.01768
1.10718
1.3048
1.45608
1.58478
1.62095
1.61914
1.61408
1.60594
1.59116
1.58177
1.57645
1.57213
1.57119
1.57183
1.57286
1.57452
1.57632
1.57704
1.57728
1.57771
1.57827
1.57833
1.57807
1.57743
1.57648
1.57536
1.5745
1.57431
1.57438
1.57446
1.57425
1.57345
1.57223
1.57098
1.5694
1.57004
1
1
1
1
1
1
1
1
1
0.999999
0.999999
0.999982
1.00024
1.01199
1.08147
1.25313
1.43597
1.54389
1.60986
1.60959
1.60296
1.5959
1.59045
1.58499
1.581
1.579
1.57791
1.57771
1.57857
1.58056
1.58206
1.5837
1.58452
1.58445
1.58407
1.58342
1.58258
1.58171
1.58121
1.58113
1.58123
1.5812
1.58064
1.57957
1.57839
1.57736
1.57622
1.57691
1
1
1
1
1
1
1
1
1
1
1
0.999999
0.999999
0.999987
1.00017
1.00618
1.0756
1.21507
1.40564
1.5062
1.57222
1.5969
1.59698
1.59544
1.59008
1.58617
1.58286
1.57971
1.5794
1.58016
1.58215
1.58515
1.58628
1.58606
1.58556
1.58488
1.58419
1.58363
1.58347
1.5834
1.58367
1.58372
1.58329
1.58256
1.5819
1.58157
1.58105
1.58149
1
1
1
1
1
1
1
1
1
1
1
1
1
0.999999
0.999999
0.99999
1.00022
1.00445
1.05265
1.19723
1.3626
1.49758
1.54053
1.5657
1.5791
1.58096
1.58001
1.57693
1.57721
1.57838
1.57961
1.58093
1.58241
1.58354
1.58343
1.58293
1.5827
1.58277
1.58311
1.58399
1.58453
1.58454
1.58426
1.58381
1.58354
1.58344
1.58327
1.58331
1
1
1
1
1
1
1
1
1
1
1
1
1
1
1
0.999999
0.999999
0.999993
1.00011
1.00468
1.03903
1.18117
1.33996
1.47979
1.53685
1.55253
1.56428
1.56618
1.56919
1.57077
1.57093
1.57193
1.5735
1.57528
1.57692
1.57816
1.57922
1.58033
1.58132
1.58235
1.58293
1.58306
1.58314
1.5832
1.58312
1.58295
1.58296
1.58288
1
1
1
1
1
1
1
1
1
1
1
1
1
1
1
1
1
1
0.999999
0.999995
1.00007
1.00456
1.03954
1.1557
1.3298
1.45536
1.53416
1.55388
1.55986
1.5639
1.56392
1.564
1.56522
1.56675
1.56849
1.57052
1.5727
1.57472
1.57634
1.57772
1.5784
1.57877
1.57942
1.58015
1.58046
1.58062
1.58105
1.58095
1
1
1
1
1
1
1
1
1
1
1
1
1
1
1
1
1
1
1
1
1
0.999995
1.00011
1.00307
1.044
1.14951
1.32248
1.44283
1.5227
1.55445
1.56143
1.56194
1.56397
1.56443
1.56475
1.56606
1.56778
1.56929
1.57092
1.57246
1.57325
1.57369
1.57428
1.57488
1.57523
1.57554
1.57636
1.57638
1
1
1
1
1
1
1
1
1
1
1
1
1
1
1
1
1
1
1
1
1
0.999999
1
0.999995
1.00019
1.0031
1.04019
1.16465
1.32617
1.44761
1.50788
1.54134
1.55364
1.55774
1.56046
1.56353
1.56395
1.56428
1.56523
1.56683
1.56826
1.56907
1.56957
1.56994
1.57011
1.57047
1.57156
1.5719
1
1
1
1
1
1
1
1
1
1
1
1
1
1
1
1
1
1
1
1
1
1
1
0.999999
1
0.999996
1.00022
1.00498
1.04059
1.17952
1.33491
1.4716
1.51157
1.52954
1.54397
1.55424
1.55443
1.55538
1.55732
1.55983
1.56211
1.56334
1.56357
1.56369
1.56394
1.56469
1.56625
1.56715
1
1
1
1
1
1
1
1
1
1
1
1
1
1
1
1
1
1
1
1
1
1
1
1
1
1
1
0.999998
1.00023
1.0079
1.05104
1.20033
1.36193
1.48659
1.53595
1.54194
1.54548
1.54763
1.54999
1.55307
1.5553
1.55656
1.55759
1.55807
1.55862
1.55962
1.5611
1.56237
1
1
1
1
1
1
1
1
1
1
1
1
1
1
1
1
1
1
1
1
1
1
1
1
1
1
1
1
0.999999
1.00001
1.00042
1.01127
1.07675
1.23753
1.39939
1.50002
1.54771
1.55348
1.55374
1.55593
1.55615
1.55594
1.55624
1.55647
1.55668
1.55742
1.55866
1.55975
1
1
1
1
1
1
1
1
1
1
1
1
1
1
1
1
1
1
1
1
1
1
1
1
1
1
1
1
1
1
0.999999
1.00003
1.00109
1.01895
1.1218
1.29053
1.4375
1.50987
1.54398
1.55372
1.55472
1.55795
1.55834
1.55783
1.55762
1.55785
1.55853
1.55916
1
1
1
1
1
1
1
1
1
1
1
1
1
1
1
1
1
1
1
1
1
1
1
1
1
1
1
1
1
1
1
1
0.999999
1.0001
1.00335
1.03576
1.1797
1.36066
1.48911
1.51977
1.53632
1.55062
1.55219
1.55307
1.55422
1.5557
1.55734
1.55806
1
1
1
1
1
1
1
1
1
1
1
1
1
1
1
1
1
1
1
1
1
1
1
1
1
1
1
1
1
1
1
1
1
1
1
1.00038
1.01051
1.07577
1.25745
1.42578
1.52922
1.54342
1.54668
1.54831
1.54989
1.55266
1.55553
1.55616
1
1
1
1
1
1
1
1
1
1
1
1
1
1
1
1
1
1
1
1
1
1
1
1
1
1
1
1
1
1
1
1
1
1
1
0.999999
1.00003
1.00158
1.03025
1.14903
1.35506
1.48483
1.54875
1.55778
1.5571
1.55814
1.55901
1.55818
1
1
1
1
1
1
1
1
1
1
1
1
1
1
1
1
1
1
1
1
1
1
1
1
1
1
1
1
1
1
1
1
1
1
1
1
1
1
1.00031
1.00738
1.08672
1.26236
1.44031
1.51245
1.54761
1.55932
1.55902
1.55926
1
1
1
1
1
1
1
1
1
1
1
1
1
1
1
1
1
1
1
1
1
1
1
1
1
1
1
1
1
1
1
1
1
1
1
1
1
1
1
1.00003
1.00242
1.03148
1.18381
1.38866
1.51294
1.53433
1.54414
1.55014
1
1
1
1
1
1
1
1
1
1
1
1
1
1
1
1
1
1
1
1
1
1
1
1
1
1
1
1
1
1
1
1
1
1
1
1
1
1
1
1
1
1.00047
1.01427
1.1116
1.31996
1.48323
1.54633
1.55173
1
1
1
1
1
1
1
1
1
1
1
1
1
1
1
1
1
1
1
1
1
1
1
1
1
1
1
1
1
1
1
1
1
1
1
1
1
1
1
1
1
1
1.00011
1.00517
1.06574
1.25265
1.43389
1.53456
1
1
1
1
1
1
1
1
1
1
1
1
1
1
1
1
1
1
1
1
1
1
1
1
1
1
1
1
1
1
1
1
1
1
1
1
1
1
1
1
1
1
1
1.00003
1.00173
1.03434
1.20505
1.41569
1
1
1
1
1
1
1
1
1
1
1
1
1
1
1
1
1
1
1
1
1
1
1
1
1
1
1
1
1
1
1
1
1
1
1
1
1
1
1
1
1
1
1
1
1
1.00076
1.02314
1.13603
1
1
1
1
1
1
1
1
1
1
1
1
1
1
1
1
1
1
1
1
1
1
1
1
1
1
1
1
1
1
1
1
1
1
1
1
1
1
1
1
1
1
1
1
1
1
1.00039
1.00547
1
1
1
1
1
1
1
1
1
1
1
1
1
1
1
1
1
1
1
1
1
1
1
1
1
1
1
1
1
1
1
1
1
1
1
1
1
1
1
1
1
1
1
1
1
1
1
0.999939
1
1
1
1
1
1
1
1
1
1
1
1
1
1
1
1
1
1
1
1
1
1
1
1
1
1
1
1
1
1
1
1
1
1
1
1
1
1
1
1
1
1
1
1
1
1
1
0.99998
1
1
1
1
1
1
1
1
1
1
1
1
1
1
1
1
1
1
1
1
1
1
1
1
1
1
1
1
1
1
1
1
1
1
1
1
1
1
1
1
1
1
1
1
1
1
1
0.999997
1
1
1
1
1
1
1
1
1
1
1
1
1
1
1
1
1
1
1
1
1
1
1
1
1
1
1
1
1
1
1
1
1
1
1
1
1
1
1
1
1
1
1
1
1
1
1
1
1
1
1
1
1
1
1
1
1
1
1
1
1
1
1
1
1
1
1
1
1
1
1
1
1
1
1
1
1
1
1
1
1
1
1
1
1
1
1
1
1
1
1
1
1
1
1
1
1
1
1
1
1
1
1
1
1
1
1
1
1
1
1
1
1
1
1
1
1
1
1
1
1
1
1
1
1
1
1
1
1
1
1
1
1
1
1
1
1
1
1
1
1
1
1
1
1
1
1
1
1
1
1
1
1
1
1
1
1
1
1
1
1
1
1
1
1
1
1
1
1
1
1
1
1
1
1
1
1
1
1
1
1
1
1
1
1
1
1
1
1
1
1
1
1
1
1
1
1
1
1
1
1
1
1
1
1
1
1
1
1
1
1
1
1
1
1
1
1
1
1
1
1
1
1
1
1
1
1
1
1
1
1
1
1
1
1
1
1
1
1
1
1
1
1
1
1
1
1
1
1
1
1
1
1
1
1
1
1
1
1
1
1
1
1
1
1
1
1
1
1
1
1
1
1
1
1
1
1
1
1
1
1
1
1
1
1
1
1
1
1
1
1
1
1
1
1
1
1
1
1
1
1
1
1
1
1
1
1
1
1
1
1
1
1
1
1
1
1
1
1
1
1
1
1
1
1
1
1
1
1
1
1
1
1
1
1
0.999997
1
1
1
1
1
1
1
1
1
1
1
1
1
1
1
1
1
1
1
1
1
1
1
1
1
1
1
1
1
1
1
1
1
1
1
1
1
1
1
1
1
1
1
1
1
1
1
0.999979
1
1
1
1
1
1
1
1
1
1
1
1
1
1
1
1
1
1
1
1
1
1
1
1
1
1
1
1
1
1
1
1
1
1
1
1
1
1
1
1
1
1
1
1
1
1
1
0.999939
1
1
1
1
1
1
1
1
1
1
1
1
1
1
1
1
1
1
1
1
1
1
1
1
1
1
1
1
1
1
1
1
1
1
1
1
1
1
1
1
1
1
1
1
1
1
1.00039
1.00546
1
1
1
1
1
1
1
1
1
1
1
1
1
1
1
1
1
1
1
1
1
1
1
1
1
1
1
1
1
1
1
1
1
1
1
1
1
1
1
1
1
1
1
1
1
1.00076
1.02314
1.136
1
1
1
1
1
1
1
1
1
1
1
1
1
1
1
1
1
1
1
1
1
1
1
1
1
1
1
1
1
1
1
1
1
1
1
1
1
1
1
1
1
1
1
1.00003
1.00174
1.03435
1.20502
1.41566
1
1
1
1
1
1
1
1
1
1
1
1
1
1
1
1
1
1
1
1
1
1
1
1
1
1
1
1
1
1
1
1
1
1
1
1
1
1
1
1
1
1
1.00011
1.00517
1.06576
1.25267
1.43385
1.53456
1
1
1
1
1
1
1
1
1
1
1
1
1
1
1
1
1
1
1
1
1
1
1
1
1
1
1
1
1
1
1
1
1
1
1
1
1
1
1
1
1
1.00047
1.01427
1.11161
1.31998
1.48323
1.54629
1.55172
1
1
1
1
1
1
1
1
1
1
1
1
1
1
1
1
1
1
1
1
1
1
1
1
1
1
1
1
1
1
1
1
1
1
1
1
1
1
1
1.00003
1.00242
1.03149
1.18379
1.38869
1.51291
1.53432
1.54415
1.55014
1
1
1
1
1
1
1
1
1
1
1
1
1
1
1
1
1
1
1
1
1
1
1
1
1
1
1
1
1
1
1
1
1
1
1
1
1
1
1.00031
1.00738
1.08672
1.26236
1.44031
1.51246
1.54759
1.55932
1.55903
1.55927
1
1
1
1
1
1
1
1
1
1
1
1
1
1
1
1
1
1
1
1
1
1
1
1
1
1
1
1
1
1
1
1
1
1
1
0.999999
1.00003
1.00158
1.03024
1.14903
1.35507
1.48482
1.54875
1.55778
1.5571
1.55814
1.55901
1.55819
1
1
1
1
1
1
1
1
1
1
1
1
1
1
1
1
1
1
1
1
1
1
1
1
1
1
1
1
1
1
1
1
1
1
1
1.00038
1.01051
1.07577
1.25745
1.42578
1.52922
1.54342
1.54668
1.54831
1.54989
1.55267
1.55554
1.55616
1
1
1
1
1
1
1
1
1
1
1
1
1
1
1
1
1
1
1
1
1
1
1
1
1
1
1
1
1
1
1
1
0.999999
1.0001
1.00335
1.03576
1.1797
1.36066
1.48911
1.51977
1.53632
1.55062
1.55219
1.55307
1.55422
1.5557
1.55734
1.55806
1
1
1
1
1
1
1
1
1
1
1
1
1
1
1
1
1
1
1
1
1
1
1
1
1
1
1
1
1
1
0.999999
1.00003
1.00109
1.01895
1.1218
1.29053
1.4375
1.50987
1.54398
1.55372
1.55472
1.55795
1.55834
1.55783
1.55762
1.55785
1.55853
1.55916
1
1
1
1
1
1
1
1
1
1
1
1
1
1
1
1
1
1
1
1
1
1
1
1
1
1
1
1
0.999999
1.00001
1.00042
1.01127
1.07675
1.23753
1.39939
1.50002
1.54771
1.55349
1.55374
1.55593
1.55615
1.55594
1.55624
1.55647
1.55668
1.55742
1.55866
1.55975
1
1
1
1
1
1
1
1
1
1
1
1
1
1
1
1
1
1
1
1
1
1
1
1
1
1
1
0.999998
1.00023
1.0079
1.05104
1.20033
1.36193
1.48659
1.53595
1.54194
1.54548
1.54763
1.54999
1.55307
1.5553
1.55656
1.55759
1.55807
1.55862
1.55962
1.5611
1.56237
1
1
1
1
1
1
1
1
1
1
1
1
1
1
1
1
1
1
1
1
1
1
1
0.999999
1
0.999996
1.00022
1.00498
1.04059
1.17952
1.33491
1.4716
1.51157
1.52954
1.54397
1.55424
1.55443
1.55538
1.55732
1.55983
1.56211
1.56334
1.56357
1.56369
1.56394
1.56469
1.56625
1.56715
1
1
1
1
1
1
1
1
1
1
1
1
1
1
1
1
1
1
1
1
1
0.999999
1
0.999995
1.00019
1.0031
1.04019
1.16465
1.32617
1.44761
1.50788
1.54134
1.55364
1.55774
1.56046
1.56353
1.56395
1.56428
1.56523
1.56683
1.56826
1.56907
1.56957
1.56994
1.57011
1.57047
1.57156
1.5719
1
1
1
1
1
1
1
1
1
1
1
1
1
1
1
1
1
1
1
1
1
0.999995
1.00011
1.00307
1.044
1.14951
1.32248
1.44283
1.5227
1.55445
1.56143
1.56194
1.56397
1.56443
1.56475
1.56606
1.56778
1.56929
1.57092
1.57246
1.57325
1.57369
1.57428
1.57488
1.57523
1.57554
1.57636
1.57638
1
1
1
1
1
1
1
1
1
1
1
1
1
1
1
1
1
1
0.999999
0.999995
1.00007
1.00456
1.03954
1.1557
1.3298
1.45536
1.53416
1.55388
1.55986
1.5639
1.56392
1.564
1.56522
1.56675
1.56849
1.57052
1.5727
1.57472
1.57634
1.57772
1.57839
1.57877
1.57942
1.58015
1.58046
1.58062
1.58105
1.58095
1
1
1
1
1
1
1
1
1
1
1
1
1
1
1
0.999999
0.999999
0.999993
1.00011
1.00468
1.03903
1.18117
1.33996
1.47979
1.53685
1.55253
1.56428
1.56618
1.56919
1.57077
1.57093
1.57193
1.5735
1.57528
1.57692
1.57816
1.57922
1.58033
1.58132
1.58235
1.58293
1.58306
1.58314
1.5832
1.58312
1.58295
1.58296
1.58288
1
1
1
1
1
1
1
1
1
1
1
1
1
0.999999
0.999999
0.99999
1.00022
1.00445
1.05265
1.19723
1.3626
1.49758
1.54053
1.5657
1.5791
1.58096
1.58001
1.57693
1.57721
1.57838
1.57961
1.58093
1.58241
1.58354
1.58343
1.58293
1.5827
1.58277
1.58311
1.58399
1.58453
1.58454
1.58426
1.58381
1.58354
1.58344
1.58327
1.58331
1
1
1
1
1
1
1
1
1
1
1
0.999999
0.999999
0.999987
1.00017
1.00618
1.0756
1.21507
1.40564
1.5062
1.57222
1.5969
1.59698
1.59544
1.59008
1.58617
1.58286
1.57971
1.5794
1.58016
1.58215
1.58515
1.58628
1.58606
1.58556
1.58488
1.58419
1.58363
1.58347
1.5834
1.58367
1.58372
1.58329
1.58256
1.5819
1.58157
1.58105
1.58149
1
1
1
1
1
1
1
1
1
0.999999
0.999999
0.999982
1.00024
1.01199
1.08147
1.25313
1.43597
1.54389
1.60986
1.60959
1.60296
1.5959
1.59045
1.58499
1.581
1.579
1.57791
1.57771
1.57857
1.58056
1.58206
1.5837
1.58452
1.58445
1.58407
1.58342
1.58258
1.58171
1.58121
1.58113
1.58123
1.5812
1.58064
1.57957
1.57839
1.57736
1.57622
1.57691
1
1
1
1
1
1
1
1
1
0.999971
1.00073
1.01768
1.10718
1.3048
1.45608
1.58478
1.62095
1.61914
1.61408
1.60594
1.59116
1.58177
1.57645
1.57213
1.57119
1.57183
1.57286
1.57452
1.57632
1.57704
1.57728
1.57771
1.57827
1.57833
1.57807
1.57743
1.57648
1.57536
1.5745
1.57431
1.57438
1.57446
1.57425
1.57345
1.57223
1.57098
1.5694
1.57004
1
1
1
1
1
0.999997
1.00001
1.00003
1.00214
1.02607
1.15118
1.33182
1.50924
1.59796
1.60625
1.60432
1.59517
1.58649
1.58
1.57349
1.57025
1.5665
1.56426
1.56414
1.56482
1.5662
1.56732
1.56844
1.56944
1.56947
1.5692
1.56863
1.56808
1.56768
1.567
1.56598
1.56487
1.56375
1.56291
1.56263
1.56265
1.56286
1.56295
1.56273
1.56195
1.56102
1.55995
1.56069
1
0.999993
1.00001
1.00004
1.00049
1.00451
1.02208
1.07386
1.18429
1.34166
1.50426
1.57845
1.62408
1.62362
1.61549
1.59929
1.57907
1.55572
1.54415
1.54441
1.54608
1.54819
1.55149
1.55483
1.55574
1.55607
1.5563
1.55616
1.55616
1.55614
1.5558
1.55537
1.55502
1.5548
1.55445
1.55377
1.5529
1.55214
1.55185
1.55179
1.55197
1.55255
1.55333
1.55366
1.55357
1.55331
1.55277
1.55358
1.00079
1.00527
1.02294
1.07013
1.12913
1.21427
1.30075
1.3798
1.45177
1.50541
1.53218
1.55314
1.56674
1.56319
1.55456
1.54646
1.54003
1.53666
1.53242
1.53275
1.53434
1.53695
1.5397
1.54228
1.54357
1.5445
1.54462
1.545
1.54501
1.5448
1.54485
1.54551
1.54642
1.54719
1.54764
1.54757
1.54719
1.54662
1.54643
1.54652
1.54679
1.54726
1.54787
1.54813
1.54815
1.54808
1.54769
1.54798
1.07792
1.17912
1.28866
1.37989
1.47181
1.56061
1.61804
1.66693
1.69604
1.69123
1.66251
1.61318
1.56914
1.53779
1.52663
1.51618
1.5138
1.51658
1.52111
1.52587
1.53077
1.53367
1.53563
1.5368
1.53763
1.53876
1.54038
1.54171
1.54187
1.54173
1.54208
1.54363
1.54582
1.54709
1.5473
1.54723
1.54661
1.54545
1.54473
1.54459
1.54479
1.54509
1.54528
1.54553
1.54569
1.54577
1.54565
1.54551
1.40127
1.23737
1.12289
1.0227
0.968701
0.985542
1.01738
1.01907
1.03461
1.07746
1.1041
1.09882
1.09672
1.10244
1.10925
1.11276
1.11753
1.12465
1.12356
1.12049
1.1171
1.11684
1.11617
1.11324
1.11178
1.11185
1.1114
1.10985
1.10727
1.10485
1.10387
1.10352
1.10331
1.10377
1.10498
1.10526
1.10525
1.105
1.10372
1.10317
1.10329
1.10367
1.10433
1.10447
1.10443
1.1041
1.1029
1.10265
1.10475
1.15769
1.34667
1.58436
1.80868
2.03765
2.23414
2.23707
2.1846
2.11208
2.0881
2.07633
2.06175
2.05089
2.04243
2.03608
2.02738
2.01643
2.00054
1.976
1.95866
1.95131
1.94577
1.94039
1.93244
1.92292
1.90896
1.8848
1.86123
1.85225
1.84722
1.84479
1.84218
1.83732
1.83054
1.81544
1.79532
1.78461
1.77888
1.77323
1.76675
1.75781
1.7426
1.7232
1.71252
1.70735
1.70325
1.70075
1.69789
1.69385
1.68779
1.67367
1.65293
1.63948
1.63386
1.63047
1.62727
1.62354
1.61842
1.61108
1.59924
1.58739
1.58098
1.57645
1.57189
1.5663
1.55731
1.54386
1.53509
1.53161
1.52867
1.52568
1.52248
1.51891
1.5141
1.50522
1.49013
1.4784
1.47379
1.47086
1.46828
1.46573
1.46267
1.4584
1.45225
1.44205
1.43075
1.4252
1.42159
1.41796
1.41433
1.4105
1.40681
1.4023
1.39731
1.39103
1.39306
1.41394
1.47488
1.58231
1.6924
1.77713
1.84211
1.90115
1.91198
1.90399
1.89627
1.88345
1.87184
1.8628
1.85281
1.84315
1.83518
1.82741
1.81933
1.81313
1.81026
1.8082
1.80704
1.80523
1.80314
1.80097
1.79558
1.78161
1.76897
1.76434
1.76105
1.75848
1.75607
1.75352
1.75023
1.74377
1.7334
1.72774
1.72508
1.72237
1.71989
1.71636
1.71221
1.70783
1.7003
1.68733
1.68118
1.6777
1.50181
1.41116
1.33202
1.26275
1.16841
1.13182
1.11081
1.07503
1.07185
1.07584
1.06698
1.056
1.05641
1.06226
1.07285
1.08012
1.08609
1.09642
1.09753
1.09644
1.09653
1.09904
1.1021
1.10315
1.10469
1.10514
1.1048
1.10318
1.10107
1.1
1.09985
1.0996
1.09947
1.1001
1.10105
1.10129
1.10128
1.1008
1.09966
1.09891
1.09879
1.09896
1.09945
1.09973
1.09964
1.09883
1.09912
1.103
1.14711
1.35265
1.53452
1.58049
1.66808
1.76867
1.9487
2.0803
2.13281
2.1275
2.11174
2.08869
2.06637
2.05773
2.05051
2.04322
2.03253
2.0207
2.00623
1.98466
1.96173
1.94954
1.94289
1.93896
1.93357
1.92528
1.91345
1.89542
1.87331
1.85822
1.85155
1.84693
1.84143
1.83497
1.8267
1.81592
1.80155
1.78889
1.78002
1.77408
1.76818
1.75999
1.74657
1.73042
1.71863
1.71104
1.7057
1.70101
1.69657
1.69196
1.68479
1.67213
1.65644
1.64515
1.63779
1.63168
1.62744
1.6244
1.62115
1.61516
1.60443
1.59238
1.58538
1.58059
1.57577
1.57013
1.56207
1.55047
1.54056
1.53655
1.53341
1.53012
1.52655
1.52247
1.5172
1.50855
1.49405
1.48097
1.47553
1.47232
1.46925
1.46621
1.46333
1.46052
1.45572
1.44648
1.43236
1.42513
1.42305
1.42142
1.41831
1.41476
1.41132
1.40752
1.40449
1.40918
1.43369
1.49453
1.56802
1.613
1.65438
1.71011
1.76475
1.80985
1.84014
1.86419
1.88314
1.88411
1.87777
1.86738
1.85682
1.84779
1.84057
1.83339
1.82549
1.81788
1.81319
1.81061
1.80892
1.80745
1.80508
1.80245
1.79716
1.78508
1.77232
1.76731
1.76396
1.76093
1.75826
1.75559
1.75216
1.74608
1.73659
1.73051
1.72773
1.72474
1.72174
1.71794
1.71373
1.70911
1.70201
1.69078
1.68433
1.68062
1.53873
1.49753
1.43109
1.36462
1.28684
1.22178
1.18093
1.1338
1.08397
1.0726
1.05799
1.04006
1.04014
1.04516
1.05057
1.05263
1.05564
1.06351
1.06924
1.07115
1.07335
1.07768
1.08274
1.08533
1.08731
1.0891
1.0897
1.08969
1.08939
1.0891
1.08913
1.08926
1.0899
1.09088
1.09101
1.091
1.09085
1.08997
1.08914
1.08898
1.08905
1.08955
1.09016
1.09052
1.09031
1.09145
1.10351
1.16198
1.33574
1.54862
1.60723
1.60078
1.6025
1.6177
1.69818
1.90317
2.0992
2.16186
2.14817
2.10937
2.07481
2.0654
2.05773
2.04549
2.03202
2.02147
2.01139
1.99679
1.97541
1.95454
1.94337
1.93629
1.93039
1.92333
1.91479
1.90489
1.89216
1.87609
1.86053
1.85077
1.84266
1.83323
1.82265
1.81336
1.8073
1.79947
1.78903
1.77739
1.76648
1.75597
1.74521
1.7356
1.72704
1.71833
1.71084
1.70549
1.6992
1.69073
1.67972
1.66675
1.65625
1.64942
1.6426
1.63602
1.6304
1.62465
1.61813
1.61057
1.60049
1.58998
1.58298
1.57842
1.57397
1.56893
1.56254
1.55177
1.53779
1.53132
1.52869
1.52566
1.52215
1.51811
1.51279
1.50421
1.49291
1.48606
1.48189
1.47787
1.47436
1.47097
1.46694
1.46097
1.45293
1.44249
1.43408
1.42829
1.42429
1.41952
1.41571
1.41306
1.41093
1.41201
1.42146
1.46263
1.52904
1.58899
1.62955
1.64138
1.64644
1.65644
1.68235
1.7248
1.7878
1.8419
1.86939
1.88384
1.88239
1.87341
1.85849
1.85106
1.8456
1.83906
1.83278
1.82589
1.81712
1.81052
1.80792
1.80552
1.80284
1.80019
1.79614
1.78876
1.77844
1.76899
1.76305
1.75928
1.7563
1.75371
1.75066
1.74623
1.74057
1.73359
1.72682
1.72304
1.71956
1.71556
1.71137
1.70684
1.70124
1.69488
1.68907
1.68113
1.55596
1.53837
1.49737
1.44327
1.37935
1.31372
1.26591
1.21769
1.15762
1.13364
1.11332
1.07879
1.06463
1.06421
1.0566
1.04773
1.04731
1.0472
1.04577
1.04632
1.04876
1.05586
1.06576
1.07087
1.0734
1.0755
1.07675
1.07773
1.07787
1.07822
1.07952
1.08189
1.08406
1.08446
1.08433
1.08383
1.08255
1.08145
1.0814
1.08156
1.08178
1.08183
1.08203
1.08238
1.08367
1.10485
1.22447
1.36684
1.52483
1.61513
1.62607
1.62045
1.61222
1.60368
1.60374
1.64919
1.83724
2.0732
2.12761
2.11183
2.09769
2.08363
2.06728
2.0502
2.0387
2.03089
2.02186
2.01047
1.9929
1.96916
1.94918
1.93885
1.93128
1.92578
1.92197
1.91665
1.9088
1.89493
1.873
1.85338
1.84218
1.83345
1.82581
1.81936
1.81226
1.80319
1.79236
1.77803
1.76442
1.75672
1.75158
1.7467
1.73988
1.73162
1.72195
1.70984
1.69791
1.68592
1.6751
1.66707
1.6617
1.65664
1.65077
1.64397
1.63629
1.62751
1.61818
1.60893
1.60007
1.59166
1.58458
1.58043
1.57763
1.57419
1.5687
1.55837
1.54355
1.53339
1.52912
1.5263
1.52329
1.5196
1.514
1.50478
1.49517
1.4876
1.48097
1.4752
1.47079
1.46772
1.46451
1.46011
1.45307
1.44213
1.43262
1.42773
1.42418
1.42007
1.41776
1.41684
1.42253
1.44527
1.50179
1.57018
1.62262
1.64791
1.65466
1.65409
1.64978
1.6452
1.6467
1.65886
1.69648
1.75243
1.80623
1.85292
1.86578
1.86408
1.86295
1.8604
1.85658
1.85052
1.84402
1.83599
1.82566
1.8168
1.81228
1.80874
1.80502
1.80167
1.79852
1.79412
1.78587
1.77514
1.76733
1.7625
1.75868
1.75524
1.75239
1.74994
1.7461
1.73947
1.73181
1.72582
1.72156
1.71735
1.71297
1.70862
1.70488
1.70045
1.69477
1.6855
1.56632
1.55995
1.53867
1.50231
1.4499
1.38976
1.3428
1.29243
1.23123
1.1974
1.17277
1.13545
1.10521
1.0925
1.07589
1.05407
1.04966
1.04866
1.04427
1.0441
1.04675
1.05064
1.0563
1.06134
1.06304
1.06496
1.06664
1.06839
1.07066
1.07202
1.07395
1.07792
1.0797
1.07979
1.0796
1.07901
1.07845
1.07842
1.07902
1.08009
1.08026
1.08003
1.07944
1.07998
1.0984
1.25268
1.45561
1.54363
1.60234
1.62897
1.62879
1.62617
1.62052
1.61603
1.60397
1.59371
1.61516
1.7692
1.97988
2.10918
2.11934
2.1031
2.07431
2.05554
2.04688
2.03959
2.02859
2.01621
2.00219
1.98281
1.96042
1.94381
1.9354
1.92916
1.9257
1.91955
1.91223
1.90235
1.88223
1.85718
1.84369
1.83702
1.83126
1.82611
1.8201
1.81203
1.79683
1.7771
1.76664
1.76173
1.75734
1.75259
1.74672
1.73898
1.72643
1.70872
1.69329
1.68429
1.67866
1.67423
1.66991
1.66491
1.65889
1.65141
1.6422
1.63008
1.61803
1.60832
1.60046
1.59382
1.58754
1.58129
1.57633
1.57239
1.56797
1.56127
1.55156
1.5412
1.53343
1.52872
1.52466
1.51987
1.51359
1.50542
1.49749
1.49089
1.48497
1.47927
1.47393
1.46929
1.46588
1.46166
1.4534
1.44136
1.43324
1.42921
1.42584
1.42351
1.42566
1.43777
1.47949
1.54801
1.61871
1.64601
1.66111
1.66633
1.66444
1.65962
1.6534
1.64799
1.64715
1.64697
1.65267
1.66861
1.70756
1.7663
1.82241
1.8521
1.86619
1.86703
1.86319
1.85654
1.85019
1.84404
1.83649
1.82657
1.81617
1.81056
1.80741
1.80359
1.79937
1.79523
1.79042
1.78356
1.77505
1.76804
1.76347
1.75972
1.75595
1.7518
1.74737
1.74224
1.73617
1.72927
1.7239
1.72001
1.71612
1.71145
1.70631
1.702
1.69897
1.69243
1.57441
1.57037
1.5614
1.54135
1.50613
1.45445
1.40759
1.36045
1.30643
1.26813
1.23714
1.19647
1.16187
1.14367
1.12481
1.09441
1.08284
1.07619
1.06358
1.05653
1.05773
1.05773
1.05461
1.05378
1.05349
1.05369
1.0557
1.05934
1.06416
1.06887
1.0724
1.07699
1.07869
1.07888
1.07882
1.07835
1.07792
1.07813
1.07919
1.08044
1.08048
1.08022
1.0818
1.10408
1.24982
1.4956
1.58804
1.61533
1.6308
1.62448
1.62137
1.62492
1.62358
1.62005
1.61182
1.59328
1.58266
1.59174
1.68214
1.88872
2.05954
2.08416
2.07751
2.06638
2.05508
2.04235
2.02913
2.01819
2.00689
1.99147
1.97118
1.95211
1.93947
1.93163
1.92593
1.921
1.91367
1.90402
1.88756
1.86434
1.84881
1.84158
1.8361
1.83022
1.82336
1.81369
1.79614
1.77725
1.76954
1.76441
1.76137
1.75922
1.75383
1.74584
1.73047
1.70573
1.68994
1.6853
1.6828
1.68232
1.68072
1.67591
1.66979
1.66021
1.64366
1.62777
1.6179
1.61062
1.60446
1.59902
1.59315
1.58635
1.57914
1.57323
1.56908
1.56598
1.56161
1.55335
1.54143
1.53038
1.52344
1.51796
1.51272
1.5077
1.5025
1.49732
1.49242
1.48741
1.48185
1.47587
1.46832
1.459
1.4485
1.44095
1.4373
1.43407
1.43193
1.43427
1.45651
1.51403
1.59032
1.64506
1.67859
1.68704
1.68625
1.67939
1.66902
1.66146
1.65783
1.65496
1.65281
1.65063
1.64827
1.64213
1.64405
1.66474
1.71654
1.78575
1.83292
1.85197
1.86119
1.8624
1.85986
1.8542
1.84444
1.83311
1.8214
1.81319
1.80939
1.80531
1.80103
1.79699
1.79257
1.78824
1.78244
1.77394
1.76682
1.76238
1.75846
1.75437
1.75038
1.74601
1.74033
1.73357
1.72689
1.72127
1.71671
1.71263
1.70897
1.70606
1.70369
1.69788
1.5803
1.57753
1.57427
1.56522
1.54329
1.50702
1.46698
1.41922
1.3696
1.33301
1.29787
1.25604
1.22113
1.19638
1.17122
1.13779
1.12064
1.10949
1.09314
1.07293
1.0707
1.06741
1.06053
1.05872
1.05795
1.05613
1.05607
1.05696
1.05987
1.06573
1.07133
1.075
1.07727
1.07808
1.07851
1.07914
1.07953
1.08009
1.08149
1.08199
1.08229
1.08767
1.13893
1.2772
1.51275
1.62192
1.64008
1.63838
1.63412
1.62692
1.61825
1.61746
1.61844
1.61774
1.61312
1.59627
1.57863
1.56857
1.56975
1.61522
1.78449
1.97159
2.05387
2.06422
2.05407
2.03353
2.02159
2.01387
2.00405
1.99251
1.9774