/*--------------------------------*- C++ -*----------------------------------*\
  =========                 |
  \\      /  F ield         | OpenFOAM: The Open Source CFD Toolbox
   \\    /   O peration     | Website:  https://openfoam.org
    \\  /    A nd           | Version:  7
     \\/     M anipulation  |
\*---------------------------------------------------------------------------*/
FoamFile
{
    version     2.0;
    format      ascii;
    class       volVectorField;
    location    "2.2";
    object      U;
}
// * * * * * * * * * * * * * * * * * * * * * * * * * * * * * * * * * * * * * //

dimensions      [0 1 -1 0 0 0 0];

internalField   nonuniform List<vector> 
18432
(
(3 -5.63678e-17 0)
(3 -4.54773e-16 0)
(3 -1.47124e-16 0)
(3 -1.57765e-16 0)
(3 -6.04031e-16 0)
(3 -8.34174e-16 0)
(3 -1.09772e-15 0)
(3 -1.56589e-15 0)
(3 -1.83463e-15 0)
(3 -8.44321e-16 0)
(3 -4.96327e-16 0)
(3 -5.45209e-16 0)
(3 -1.1488e-15 0)
(3 -9.53202e-16 0)
(3 -1.48483e-16 0)
(3 1.7436e-17 0)
(3 7.02883e-16 0)
(3 1.12716e-15 0)
(3 1.564e-15 0)
(3 1.50176e-15 0)
(3 1.44574e-15 0)
(3 4.88976e-16 0)
(3 -6.22578e-16 0)
(3 -1.79318e-15 0)
(3 -1.35541e-15 0)
(3 8.24633e-17 0)
(3 7.58352e-16 0)
(3 8.81012e-16 0)
(3 -3.79251e-17 0)
(3 -6.4179e-16 0)
(3 -5.84246e-16 0)
(3 -3.05294e-16 0)
(3 -6.24597e-16 0)
(3 -9.17493e-16 0)
(3 -1.14368e-15 0)
(3 -1.22914e-15 0)
(3 -1.43662e-15 0)
(3 -1.5608e-15 0)
(3 -2.11514e-15 0)
(3 -2.23737e-15 0)
(3 -2.36912e-15 0)
(3 -2.36418e-15 0)
(3 -2.1267e-15 0)
(3 -9.86409e-16 0)
(3 -9.43493e-16 0)
(3 -1.27131e-15 0)
(3 -1.27432e-16 0)
(3 5.67914e-16 0)
(3 -3.47765e-16 0)
(3 -4.24923e-16 0)
(3 1.01558e-16 0)
(3 1.84487e-16 0)
(3 -1.90873e-16 0)
(3 -6.01046e-16 0)
(3 -8.32038e-16 0)
(3 -1.04148e-15 0)
(3 -1.62738e-15 0)
(3 -2.48145e-15 0)
(3 -2.98782e-15 0)
(3 -3.0062e-15 0)
(3 -3.30986e-15 0)
(3 -2.07019e-15 0)
(3 -9.00638e-16 0)
(3 -2.39983e-16 0)
(3 1.66384e-16 0)
(3 8.0901e-16 0)
(3 1.14447e-15 0)
(3 1.15008e-15 0)
(3 1.08983e-15 0)
(3 3.39184e-16 0)
(3 -2.94597e-16 0)
(3 -7.7403e-16 0)
(3 -1.16875e-16 0)
(3 1.36632e-15 0)
(3 2.77312e-15 0)
(3 2.61467e-15 0)
(3 9.57754e-16 0)
(3 -1.27429e-16 0)
(3 -4.62003e-16 0)
(3 -4.57641e-16 0)
(3 -9.83492e-16 0)
(3 -8.32156e-16 0)
(3 -9.23539e-16 0)
(3 -1.06878e-15 0)
(3 -1.69716e-15 0)
(3 -1.68425e-15 0)
(3 -2.32997e-15 0)
(3 -2.75548e-15 0)
(3 -2.81491e-15 0)
(3 -2.80649e-15 0)
(3 -2.89508e-15 0)
(3 -1.30927e-15 0)
(3 -1.2355e-15 0)
(3 -4.58653e-16 0)
(3 1.01491e-16 0)
(3 2.98029e-16 0)
(3 1.31305e-17 0)
(3 2.39135e-16 0)
(3 -1.80344e-16 0)
(3 -6.49219e-16 0)
(3 -6.13859e-16 0)
(3 8.99019e-17 0)
(3 8.885e-16 0)
(3 6.4321e-17 0)
(3 -2.75192e-16 0)
(3 -1.75632e-15 0)
(3 -2.86274e-15 0)
(3 -2.29029e-15 0)
(3 -1.0165e-15 0)
(3 -9.54477e-17 0)
(3 -2.55538e-16 0)
(3 -1.71968e-15 0)
(3 -2.33762e-15 0)
(3 -1.43667e-15 0)
(3 -8.90337e-16 0)
(3 -2.49166e-16 0)
(3 -2.73712e-16 0)
(3 -8.98397e-16 0)
(3 -1.35818e-15 0)
(3 -9.56666e-16 0)
(3 -9.42848e-16 0)
(3 3.83024e-16 0)
(3 5.57612e-16 0)
(3 6.06688e-16 0)
(3 4.51017e-16 0)
(3 6.57012e-16 0)
(3 1.84731e-16 0)
(3 -9.74269e-16 0)
(3 -6.00226e-16 0)
(3 -7.89315e-16 0)
(3 3.86473e-17 0)
(3 2.26841e-16 0)
(3 -5.05042e-16 0)
(3 -9.18509e-16 0)
(3 -6.78257e-16 0)
(3 -1.34781e-15 0)
(3 -1.59762e-15 0)
(3 -1.65795e-15 0)
(3 -2.26614e-15 0)
(3 -3.62069e-15 0)
(3 -3.26754e-15 0)
(3 -1.62286e-15 0)
(3 -8.75711e-16 0)
(3 -7.36106e-16 0)
(3 2.12678e-17 0)
(3 -1.369e-16 0)
(3 -1.69522e-16 0)
(3 -6.52685e-16 0)
(3 -1.20786e-15 0)
(3 -3.28682e-16 0)
(3 2.73509e-17 0)
(3 2.48018e-17 0)
(3 -1.42497e-16 0)
(3 -7.79467e-17 0)
(3 5.8447e-16 0)
(3 1.60281e-15 0)
(3 2.79228e-15 0)
(3 2.50424e-15 0)
(3 5.5268e-16 0)
(3 -4.52167e-16 0)
(3 2.9347e-17 0)
(3 -7.9773e-16 0)
(3 -1.03252e-15 0)
(3 -1.54668e-15 0)
(3 -1.56449e-15 0)
(3 -1.49125e-15 0)
(3 -1.84691e-15 0)
(3 -1.04869e-15 0)
(3 -5.61493e-16 0)
(3 2.17663e-16 0)
(3 4.21743e-16 0)
(3 -2.64956e-16 0)
(3 -3.42696e-16 0)
(3 5.26525e-17 0)
(3 5.53221e-16 0)
(3 8.6676e-16 0)
(3 9.58363e-16 0)
(3 1.36773e-17 0)
(3 -2.45517e-17 0)
(3 1.51688e-18 0)
(3 -1.99562e-16 0)
(3 -3.12259e-16 0)
(3 -4.39801e-16 0)
(3 -9.75926e-16 0)
(3 -1.40813e-15 0)
(3 -1.16616e-15 0)
(3 -6.59298e-16 0)
(3 -1.68305e-15 0)
(3 -2.53445e-15 0)
(3 -3.3428e-15 0)
(3 -7.63256e-16 0)
(3 -1.04662e-15 0)
(3 -6.4906e-17 0)
(3 -3.42291e-16 0)
(3 1.42261e-16 0)
(3 3.92912e-16 0)
(3 2.01564e-16 0)
(3 -7.08285e-19 0)
(3 1.48385e-16 0)
(3 3.18368e-16 0)
(3 5.26782e-16 0)
(3 1.08114e-15 0)
(3 2.7038e-15 0)
(3 3.1058e-15 0)
(3 2.20713e-15 0)
(3 1.35967e-15 0)
(3 1.23773e-15 0)
(3 1.71168e-15 0)
(3 2.41021e-15 0)
(3 2.20284e-15 0)
(3 9.59236e-17 0)
(3 -2.06275e-15 0)
(3 -2.0703e-15 0)
(3 -1.66761e-15 0)
(3 -1.17378e-15 0)
(3 -1.46827e-16 0)
(3 4.6135e-16 0)
(3 7.00311e-16 0)
(3 8.10806e-16 0)
(3 8.37713e-16 0)
(3 6.36119e-16 0)
(3 5.07504e-16 0)
(3 4.70155e-16 0)
(3 6.00989e-16 0)
(3 2.40817e-16 0)
(3 4.73792e-16 0)
(3 1.323e-16 0)
(3 -1.20952e-16 0)
(3 3.15356e-16 0)
(3 -5.47711e-17 0)
(3 -1.11943e-16 0)
(3 -1.08634e-15 0)
(3 -1.46146e-15 0)
(3 -4.82525e-16 0)
(3 7.94889e-16 0)
(3 5.72875e-16 0)
(3 -1.18299e-15 0)
(3 -1.88832e-15 0)
(3 -5.44645e-16 0)
(3 -5.12412e-16 0)
(3 2.67748e-16 0)
(3 6.73558e-16 0)
(3 7.67993e-16 0)
(3 9.30741e-16 0)
(3 1.32173e-15 0)
(3 1.65793e-15 0)
(3 1.45825e-15 0)
(3 1.00095e-15 0)
(3 7.46551e-16 0)
(3 1.73388e-15 0)
(3 2.33226e-15 0)
(3 5.40813e-16 0)
(3 -5.84491e-16 0)
(3 -4.18185e-16 0)
(3 -3.16459e-16 0)
(3 6.55738e-17 0)
(3 1.07843e-16 0)
(3 9.08929e-16 0)
(3 7.04534e-16 0)
(3 -1.44153e-15 0)
(3 -1.98717e-15 0)
(3 -1.47506e-15 0)
(3 -7.79682e-16 0)
(3 9.85892e-16 0)
(3 1.85811e-15 0)
(3 1.27093e-15 0)
(3 1.3386e-15 0)
(3 1.73728e-15 0)
(3 3.5875e-16 0)
(3 -9.98863e-16 0)
(3 -2.28447e-15 0)
(3 -3.02634e-15 0)
(3 -2.44827e-15 0)
(3 -1.40161e-15 0)
(3 -4.5678e-16 0)
(3 -1.60218e-16 0)
(3 3.34385e-16 0)
(3 2.33798e-16 0)
(3 4.09356e-16 0)
(3 6.48231e-16 0)
(3 5.0981e-16 0)
(3 3.63884e-16 0)
(3 1.0917e-16 0)
(3 3.60967e-16 0)
(3 1.47023e-16 0)
(3 -5.68733e-16 0)
(3 -1.02897e-15 0)
(3 -2.19697e-16 0)
(3 -1.53297e-16 0)
(3 7.39892e-17 0)
(3 6.88653e-17 0)
(3 4.15953e-16 0)
(3 1.84763e-15 0)
(3 2.13025e-15 0)
(3 1.27302e-15 0)
(3 5.71076e-16 0)
(3 4.27439e-16 0)
(3 8.01433e-16 0)
(3 5.31154e-16 0)
(3 -2.68928e-16 0)
(3 -9.86389e-16 0)
(3 -9.5936e-16 0)
(3 -7.77299e-16 0)
(3 -9.58767e-16 0)
(3 -9.08253e-16 0)
(3 -3.93277e-16 0)
(3 1.24752e-15 0)
(3 1.66601e-15 0)
(3 1.15585e-15 0)
(3 9.63778e-16 0)
(3 9.89644e-16 0)
(3 1.48593e-15 0)
(3 1.81102e-15 0)
(3 1.00037e-15 0)
(3 5.32527e-16 0)
(3 6.48317e-16 0)
(3 1.89379e-16 0)
(3 -1.12942e-15 0)
(3 -1.22163e-15 0)
(3 -1.85591e-15 0)
(3 -2.28936e-15 0)
(3 -1.99295e-15 0)
(3 -1.76525e-15 0)
(3 -1.28881e-15 0)
(3 -8.11771e-16 0)
(3 -2.29282e-16 0)
(3 3.4326e-16 0)
(3 1.76864e-15 0)
(3 1.72351e-15 0)
(3 1.02221e-15 0)
(3 4.19432e-16 0)
(3 3.09752e-16 0)
(3 2.29199e-16 0)
(3 -1.70679e-16 0)
(3 -7.71169e-16 0)
(3 -1.57088e-15 0)
(3 -2.10713e-16 0)
(3 -4.19711e-16 0)
(3 -3.61635e-16 0)
(3 2.73729e-16 0)
(3 7.13052e-16 0)
(3 5.81418e-16 0)
(3 1.93467e-16 0)
(3 4.41442e-16 0)
(3 9.81529e-16 0)
(3 2.57112e-16 0)
(3 3.44497e-16 0)
(3 7.16202e-16 0)
(3 -3.0831e-16 0)
(3 -1.63652e-15 0)
(3 -1.76693e-15 0)
(3 -1.06552e-15 0)
(3 9.43189e-16 0)
(3 1.97249e-15 0)
(3 2.83955e-15 0)
(3 4.46832e-15 0)
(3 4.53029e-15 0)
(3 3.56496e-15 0)
(3 2.79925e-15 0)
(3 1.19515e-15 0)
(3 2.79134e-16 0)
(3 -6.01125e-16 0)
(3 -4.59898e-16 0)
(3 3.1091e-16 0)
(3 6.12913e-16 0)
(3 5.25087e-16 0)
(3 4.78698e-16 0)
(3 5.95889e-16 0)
(3 -5.26684e-17 0)
(3 -1.52555e-15 0)
(3 -2.13119e-15 0)
(3 -2.97476e-15 0)
(3 -1.75576e-15 0)
(3 -1.32463e-15 0)
(3 -3.19746e-16 0)
(3 9.68199e-16 0)
(3 1.41206e-15 0)
(3 1.67067e-15 0)
(3 1.87925e-15 0)
(3 1.13985e-15 0)
(3 3.43176e-16 0)
(3 6.41347e-16 0)
(3 -9.09365e-17 0)
(3 -1.67808e-15 0)
(3 3.60917e-16 0)
(3 3.61553e-16 0)
(3 3.03299e-16 0)
(3 -1.89121e-16 0)
(3 -6.79236e-16 0)
(3 -6.22578e-16 0)
(3 -9.53762e-17 0)
(3 1.07877e-15 0)
(3 2.16914e-15 0)
(3 2.33498e-15 0)
(3 1.90987e-15 0)
(3 1.55315e-15 0)
(3 2.26276e-16 0)
(3 -5.31049e-16 0)
(3 -1.43994e-15 0)
(3 -8.5186e-16 0)
(3 3.5149e-16 0)
(3 1.32939e-15 0)
(3 1.70027e-15 0)
(3 1.51748e-15 0)
(3 1.49852e-15 0)
(3 1.23428e-15 0)
(3 6.28848e-16 0)
(3 -6.71649e-16 0)
(3 -1.32632e-15 0)
(3 -1.14698e-15 0)
(3 -5.84063e-16 0)
(3 -3.41362e-16 0)
(3 2.22396e-16 0)
(3 9.00836e-16 0)
(3 6.84938e-16 0)
(3 6.88388e-16 0)
(3 1.11684e-15 0)
(3 7.60171e-16 0)
(3 -1.7438e-16 0)
(3 -1.81117e-15 0)
(3 -1.5361e-15 0)
(3 -8.65603e-16 0)
(3 -2.15107e-16 0)
(3 -1.30426e-16 0)
(3 -2.7801e-16 0)
(3 -1.45914e-16 0)
(3 -6.88216e-17 0)
(3 -1.40167e-16 0)
(3 4.68399e-16 0)
(3 1.09654e-15 0)
(3 1.05983e-15 0)
(3 7.48972e-16 0)
(3 -4.03235e-17 0)
(3 -1.13482e-16 0)
(3 -1.13646e-15 0)
(3 -1.90861e-15 0)
(3 -7.26256e-16 0)
(3 5.92207e-17 0)
(3 5.76195e-16 0)
(3 4.95724e-16 0)
(3 1.96118e-16 0)
(3 4.64017e-16 0)
(3 4.83609e-17 0)
(3 9.68807e-17 0)
(3 4.8345e-16 0)
(3 1.06613e-15 0)
(3 2.34737e-15 0)
(3 1.21594e-15 0)
(3 -7.85968e-16 0)
(3 -1.57208e-15 0)
(3 -1.19424e-15 0)
(3 -3.4184e-16 0)
(3 -3.06854e-17 0)
(3 -3.89635e-16 0)
(3 -7.55675e-16 0)
(3 -5.99601e-16 0)
(3 -6.04773e-16 0)
(3 -8.20548e-16 0)
(3 -6.10054e-16 0)
(3 5.18873e-16 0)
(3 1.17811e-15 0)
(3 1.27021e-15 0)
(3 1.14345e-15 0)
(3 8.50247e-16 0)
(3 1.22694e-15 0)
(3 2.33744e-15 0)
(3 3.18856e-15 0)
(3 3.07992e-15 0)
(3 1.90558e-15 0)
(3 8.07008e-16 0)
(3 9.29182e-17 0)
(3 -6.8344e-16 0)
(3 -1.03238e-15 0)
(3 -1.4215e-15 0)
(3 -1.81884e-15 0)
(3 -1.1896e-15 0)
(3 -9.26866e-17 0)
(3 1.21525e-16 0)
(3 6.65322e-16 0)
(3 3.5548e-15 0)
(3 -1.06778e-16 0)
(3 -2.92593e-16 0)
(3 -6.88007e-16 0)
(3 -1.13124e-15 0)
(3 -2.87758e-16 0)
(3 5.18896e-16 0)
(3 5.01813e-16 0)
(3 2.77215e-16 0)
(3 -1.19086e-16 0)
(3 -1.23558e-15 0)
(3 -2.57543e-15 0)
(3 -2.18257e-15 0)
(3 -1.15817e-15 0)
(3 1.35094e-15 0)
(3 3.12632e-15 0)
(3 2.28043e-15 0)
(3 6.65558e-16 0)
(3 -5.6456e-16 0)
(3 -9.0147e-16 0)
(3 -6.66419e-16 0)
(3 -4.28182e-16 0)
(3 -2.73065e-16 0)
(3 1.04625e-15 0)
(3 1.78223e-15 0)
(3 2.49303e-15 0)
(3 1.44878e-15 0)
(3 1.16373e-15 0)
(3 5.70558e-16 0)
(3 1.30593e-16 0)
(3 -3.30874e-17 0)
(3 -5.36658e-17 0)
(3 1.00304e-17 0)
(3 2.4028e-17 0)
(3 4.68777e-16 0)
(3 7.55076e-16 0)
(3 1.44058e-15 0)
(3 1.99895e-15 0)
(3 1.72114e-15 0)
(3 -1.43804e-17 0)
(3 -8.81161e-16 0)
(3 -1.89308e-16 0)
(3 1.06564e-15 0)
(3 1.52588e-15 0)
(3 -2.16897e-16 0)
(3 -5.73049e-16 0)
(3 -5.96056e-16 0)
(3 -2.54125e-16 0)
(3 7.52137e-16 0)
(3 2.05186e-16 0)
(3 4.90541e-16 0)
(3 1.0058e-15 0)
(3 5.79329e-16 0)
(3 3.95782e-17 0)
(3 5.0968e-17 0)
(3 3.79164e-16 0)
(3 5.67576e-16 0)
(3 1.28035e-16 0)
(3 -1.52458e-15 0)
(3 -2.17216e-15 0)
(3 -3.42573e-15 0)
(3 -4.44127e-15 0)
(3 -2.44009e-15 0)
(3 1.95895e-16 0)
(3 1.20216e-15 0)
(3 1.5544e-15 0)
(3 1.37891e-15 0)
(3 5.55998e-16 0)
(3 -1.40132e-15 0)
(3 -1.39469e-15 0)
(3 -3.32869e-16 0)
(3 1.08798e-15 0)
(3 1.54418e-15 0)
(3 1.79705e-15 0)
(3 1.92963e-15 0)
(3 1.27808e-15 0)
(3 4.71878e-16 0)
(3 -8.43795e-16 0)
(3 -7.57755e-16 0)
(3 -2.03606e-16 0)
(3 3.44364e-16 0)
(3 -1.07914e-16 0)
(3 -6.73095e-16 0)
(3 -9.09906e-16 0)
(3 -1.49841e-15 0)
(3 -1.19221e-15 0)
(3 -9.80147e-16 0)
(3 -9.33665e-16 0)
(3 -1.03242e-16 0)
(3 9.30761e-16 0)
(3 2.32307e-15 0)
(3 1.75428e-15 0)
(3 2.31325e-16 0)
(3 -2.13967e-15 0)
(3 -2.41028e-15 0)
(3 -3.31074e-15 0)
(3 -3.21464e-15 0)
(3 3.26447e-17 0)
(3 3.05453e-17 0)
(3 5.48219e-16 0)
(3 4.74289e-16 0)
(3 7.70224e-17 0)
(3 -3.01473e-16 0)
(3 -1.78733e-16 0)
(3 8.46491e-18 0)
(3 -1.16763e-16 0)
(3 -1.20658e-16 0)
(3 -1.07444e-16 0)
(3 -7.36812e-16 0)
(3 -3.11632e-15 0)
(3 -4.64417e-15 0)
(3 -4.58604e-15 0)
(3 -1.89879e-15 0)
(3 -1.22416e-15 0)
(3 -1.2685e-16 0)
(3 2.28213e-16 0)
(3 -8.81377e-17 0)
(3 3.42755e-16 0)
(3 6.56667e-16 0)
(3 -1.86097e-16 0)
(3 -7.11593e-16 0)
(3 -8.88314e-17 0)
(3 5.60491e-16 0)
(3 6.02665e-16 0)
(3 2.19513e-17 0)
(3 -8.3335e-16 0)
(3 -5.06883e-16 0)
(3 4.50752e-16 0)
(3 1.4888e-15 0)
(3 1.29278e-15 0)
(3 2.64901e-18 0)
(3 -5.08017e-16 0)
(3 -1.57202e-15 0)
(3 -2.44809e-15 0)
(3 -2.51508e-15 0)
(3 -1.52826e-15 0)
(3 1.25076e-16 0)
(3 1.60772e-15 0)
(3 6.80254e-16 0)
(3 3.77543e-16 0)
(3 7.29218e-16 0)
(3 4.49607e-16 0)
(3 -1.27679e-15 0)
(3 -2.06993e-15 0)
(3 -2.30469e-15 0)
(3 -1.65494e-16 0)
(3 -6.5964e-16 0)
(3 -9.61992e-16 0)
(3 -6.73643e-16 0)
(3 -1.61204e-16 0)
(3 -5.29967e-17 0)
(3 -7.8455e-17 0)
(3 2.6102e-16 0)
(3 5.2373e-18 0)
(3 1.27168e-15 0)
(3 1.82506e-15 0)
(3 5.53347e-16 0)
(3 -1.57237e-15 0)
(3 -1.99407e-15 0)
(3 -2.22147e-15 0)
(3 -2.05693e-15 0)
(3 -1.16719e-15 0)
(3 -4.08937e-16 0)
(3 -1.1589e-16 0)
(3 5.34863e-16 0)
(3 8.95922e-16 0)
(3 7.0293e-16 0)
(3 -1.16755e-16 0)
(3 -1.65381e-15 0)
(3 -2.39925e-15 0)
(3 -1.65638e-15 0)
(3 -1.26587e-15 0)
(3 -1.69409e-15 0)
(3 -9.93051e-16 0)
(3 -8.43813e-16 0)
(3 -1.70479e-16 0)
(3 7.09549e-16 0)
(3 4.72175e-16 0)
(3 2.18894e-16 0)
(3 -8.41222e-17 0)
(3 2.21269e-16 0)
(3 -1.95532e-15 0)
(3 -2.42082e-15 0)
(3 -1.95885e-15 0)
(3 -1.022e-15 0)
(3 -2.04028e-16 0)
(3 1.88846e-16 0)
(3 3.55951e-16 0)
(3 1.16922e-15 0)
(3 2.46922e-15 0)
(3 2.1156e-15 0)
(3 3.33296e-16 0)
(3 -3.60456e-17 0)
(3 -1.15308e-16 0)
(3 -4.65293e-16 0)
(3 -4.46231e-16 0)
(3 9.03834e-18 0)
(3 8.69876e-16 0)
(3 7.45591e-16 0)
(3 4.09901e-16 0)
(3 3.09044e-16 0)
(3 4.32215e-16 0)
(3 1.00274e-15 0)
(3 1.07432e-15 0)
(3 8.64204e-16 0)
(3 9.62226e-16 0)
(3 1.73307e-16 0)
(3 -2.07403e-16 0)
(3 -6.70521e-16 0)
(3 -1.14069e-15 0)
(3 -1.3677e-15 0)
(3 -1.48718e-15 0)
(3 -1.09749e-15 0)
(3 -5.0907e-16 0)
(3 -4.33278e-16 0)
(3 3.85107e-16 0)
(3 -5.60545e-16 0)
(3 -1.80269e-15 0)
(3 -3.01996e-15 0)
(3 -2.74178e-15 0)
(3 -2.29709e-15 0)
(3 -1.69732e-15 0)
(3 -6.7713e-16 0)
(3 -2.42381e-16 0)
(3 -1.52998e-15 0)
(3 -2.20084e-15 0)
(3 -2.1469e-15 0)
(3 -2.06845e-15 0)
(3 -2.30627e-15 0)
(3 -2.04072e-15 0)
(3 -1.65172e-15 0)
(3 -1.75978e-15 0)
(3 -1.22203e-15 0)
(3 -1.26705e-15 0)
(3 -5.93756e-16 0)
(3 6.45122e-16 0)
(3 9.67073e-16 0)
(3 2.09657e-15 0)
(3 3.34021e-15 0)
(3 3.24071e-15 0)
(3 2.30347e-15 0)
(3 -2.10451e-16 0)
(3 3.48301e-16 0)
(3 4.80971e-16 0)
(3 5.78824e-16 0)
(3 2.3426e-16 0)
(3 -1.41643e-16 0)
(3 -3.61783e-16 0)
(3 -7.06778e-16 0)
(3 -1.27933e-16 0)
(3 4.65185e-16 0)
(3 9.04372e-16 0)
(3 1.71198e-15 0)
(3 3.42692e-15 0)
(3 3.20988e-15 0)
(3 4.50453e-16 0)
(3 -8.0753e-16 0)
(3 -6.92014e-16 0)
(3 -6.11876e-16 0)
(3 -7.18935e-16 0)
(3 -6.87925e-16 0)
(3 -1.06964e-15 0)
(3 -1.45238e-15 0)
(3 -4.81945e-16 0)
(3 -7.2e-17 0)
(3 3.2702e-16 0)
(3 3.91853e-17 0)
(3 6.20965e-16 0)
(3 6.35584e-16 0)
(3 4.76235e-16 0)
(3 4.00472e-16 0)
(3 -1.01324e-15 0)
(3 -1.4045e-15 0)
(3 -1.85343e-15 0)
(3 -2.59615e-15 0)
(3 -3.96872e-15 0)
(3 -4.04898e-15 0)
(3 -2.76723e-15 0)
(3 -2.02417e-16 0)
(3 4.05686e-16 0)
(3 -4.36472e-16 0)
(3 -5.35217e-16 0)
(3 -1.46807e-16 0)
(3 9.38591e-16 0)
(3 1.41505e-15 0)
(3 1.57663e-15 0)
(3 1.55107e-15 0)
(3 1.21373e-15 0)
(3 8.10906e-16 0)
(3 -7.80633e-17 0)
(3 7.47872e-16 0)
(3 6.97391e-16 0)
(3 9.70116e-16 0)
(3 -2.24802e-16 0)
(3 -6.26979e-16 0)
(3 -8.11743e-16 0)
(3 -9.16255e-16 0)
(3 -4.77694e-16 0)
(3 1.85954e-16 0)
(3 6.01689e-17 0)
(3 4.70344e-16 0)
(3 1.05753e-15 0)
(3 2.33383e-15 0)
(3 2.03124e-15 0)
(3 1.68534e-15 0)
(3 1.23515e-15 0)
(3 1.15408e-15 0)
(3 1.08301e-15 0)
(3 3.30698e-16 0)
(3 -1.16973e-16 0)
(3 6.31543e-17 0)
(3 2.35179e-16 0)
(3 6.58835e-16 0)
(3 1.6506e-15 0)
(3 2.3517e-15 0)
(3 3.16713e-15 0)
(3 2.88521e-15 0)
(3 1.60897e-15 0)
(3 4.37293e-16 0)
(3 -1.41668e-16 0)
(3 1.99439e-16 0)
(3 5.16045e-16 0)
(3 3.33856e-16 0)
(3 -4.38598e-16 0)
(3 -1.45315e-15 0)
(3 -1.06539e-15 0)
(3 1.65597e-16 0)
(3 9.64741e-16 0)
(3 4.38086e-16 0)
(3 9.69474e-17 0)
(3 8.63415e-16 0)
(3 1.24958e-15 0)
(3 1.8276e-15 0)
(3 1.14503e-15 0)
(3 -1.82169e-16 0)
(3 -7.94767e-16 0)
(3 -8.32808e-16 0)
(3 4.7714e-17 0)
(3 8.40072e-17 0)
(3 6.27337e-16 0)
(3 5.62771e-16 0)
(3 5.23258e-16 0)
(3 2.40487e-16 0)
(3 -1.02589e-16 0)
(3 -4.77245e-16 0)
(3 -7.40843e-16 0)
(3 -3.12012e-16 0)
(3 2.87873e-17 0)
(3 5.99722e-16 0)
(3 1.0129e-15 0)
(3 1.19505e-15 0)
(3 2.85881e-15 0)
(3 3.22825e-15 0)
(3 2.11938e-15 0)
(3 7.34411e-16 0)
(3 -8.79093e-17 0)
(3 -5.11257e-16 0)
(3 -1.58058e-17 0)
(3 2.05513e-16 0)
(3 1.57446e-16 0)
(3 -8.53047e-17 0)
(3 1.08528e-15 0)
(3 1.99614e-15 0)
(3 1.65728e-15 0)
(3 1.17613e-15 0)
(3 3.36696e-16 0)
(3 3.15303e-16 0)
(3 6.66929e-16 0)
(3 1.10016e-15 0)
(3 1.40254e-15 0)
(3 1.39691e-15 0)
(3 2.4555e-15 0)
(3 1.76425e-15 0)
(3 1.14327e-15 0)
(3 4.3061e-16 0)
(3 -6.2116e-16 0)
(3 -2.35595e-16 0)
(3 4.45012e-16 0)
(3 1.23019e-15 0)
(3 1.63169e-15 0)
(3 8.29998e-16 0)
(3 4.3211e-16 0)
(3 -3.08111e-16 0)
(3 -6.83636e-16 0)
(3 -2.58482e-16 0)
(3 1.33323e-16 0)
(3 -1.54173e-16 0)
(3 -2.5999e-16 0)
(3 -2.77852e-16 0)
(3 2.40955e-16 0)
(3 2.35344e-17 0)
(3 -4.07933e-16 0)
(3 -1.22995e-15 0)
(3 -1.65148e-15 0)
(3 -1.20709e-15 0)
(3 -1.77008e-16 0)
(3 4.67292e-16 0)
(3 8.37231e-16 0)
(3 1.48136e-15 0)
(3 2.4331e-15 0)
(3 2.20417e-15 0)
(3 1.19062e-15 0)
(3 4.86169e-16 0)
(3 6.87571e-16 0)
(3 5.62993e-17 0)
(3 -5.16485e-16 0)
(3 -6.42478e-16 0)
(3 -8.29768e-16 0)
(3 -1.0413e-15 0)
(3 -7.41531e-16 0)
(3 -7.12131e-16 0)
(3 -9.79345e-16 0)
(3 -9.27805e-16 0)
(3 -3.34096e-16 0)
(3 -1.48321e-16 0)
(3 3.78259e-17 0)
(3 -4.94925e-17 0)
(3 5.65431e-16 0)
(3 1.3443e-15 0)
(3 2.46992e-15 0)
(3 3.24612e-15 0)
(3 2.52333e-15 0)
(3 1.24824e-15 0)
(3 1.04772e-15 0)
(3 1.94776e-15 0)
(3 2.14698e-15 0)
(3 2.22909e-15 0)
(3 1.17624e-15 0)
(3 3.29171e-16 0)
(3 2.50097e-16 0)
(3 -1.39913e-16 0)
(3 -4.9173e-16 0)
(3 -5.83531e-16 0)
(3 1.34243e-16 0)
(3 -1.75072e-16 0)
(3 -9.36094e-16 0)
(3 -3.78699e-16 0)
(3 1.89269e-16 0)
(3 1.05515e-16 0)
(3 -6.93388e-16 0)
(3 -1.50189e-15 0)
(3 -2.3302e-15 0)
(3 -3.10766e-15 0)
(3 -2.51746e-15 0)
(3 -1.16824e-15 0)
(3 3.8862e-18 0)
(3 -1.11917e-17 0)
(3 5.8449e-16 0)
(3 6.44664e-16 0)
(3 9.12575e-16 0)
(3 4.68631e-16 0)
(3 4.66772e-16 0)
(3 5.55381e-16 0)
(3 -7.88474e-17 0)
(3 -5.20029e-16 0)
(3 -1.19148e-15 0)
(3 -1.80805e-15 0)
(3 -2.26021e-15 0)
(3 -1.96372e-15 0)
(3 -1.32349e-15 0)
(3 -1.1564e-15 0)
(3 -8.14042e-16 0)
(3 -4.01872e-16 0)
(3 1.05692e-16 0)
(3 3.45272e-16 0)
(3 6.68312e-16 0)
(3 9.85293e-16 0)
(3 1.66255e-15 0)
(3 2.45653e-15 0)
(3 2.51465e-15 0)
(3 2.13276e-15 0)
(3 2.83461e-15 0)
(3 2.37646e-15 0)
(3 2.54359e-15 0)
(3 2.43e-15 0)
(3 3.21128e-16 0)
(3 -5.05117e-16 0)
(3 1.39764e-16 0)
(3 7.88284e-16 0)
(3 9.89449e-16 0)
(3 -4.23006e-16 0)
(3 -8.29054e-17 0)
(3 3.16742e-16 0)
(3 2.9691e-16 0)
(3 -4.9496e-16 0)
(3 -4.37785e-16 0)
(3 -2.88175e-16 0)
(3 -3.9942e-16 0)
(3 -8.01975e-16 0)
(3 -1.11942e-15 0)
(3 -1.47149e-15 0)
(3 -1.09858e-15 0)
(3 -1.5308e-16 0)
(3 9.69867e-16 0)
(3 1.42959e-16 0)
(3 -4.40461e-16 0)
(3 9.07803e-17 0)
(3 1.60035e-15 0)
(3 1.92602e-15 0)
(3 4.97606e-16 0)
(3 2.85376e-16 0)
(3 3.8519e-16 0)
(3 1.4454e-16 0)
(3 -8.37438e-16 0)
(3 -8.57017e-16 0)
(3 -1.3144e-15 0)
(3 -1.31589e-15 0)
(3 -1.44861e-15 0)
(3 -1.34478e-15 0)
(3 -1.42464e-15 0)
(3 -6.73088e-16 0)
(3 -1.77559e-16 0)
(3 6.24686e-16 0)
(3 1.06811e-15 0)
(3 9.47031e-16 0)
(3 6.10097e-17 0)
(3 -7.48131e-16 0)
(3 -5.08872e-16 0)
(3 3.04119e-16 0)
(3 6.20763e-16 0)
(3 8.68173e-16 0)
(3 -1.50441e-16 0)
(3 -3.61228e-16 0)
(3 2.55364e-17 0)
(3 4.43308e-17 0)
(3 3.04521e-16 0)
(3 1.08819e-15 0)
(3 1.72754e-15 0)
(3 8.35028e-16 0)
(3 6.97533e-17 0)
(3 4.06334e-16 0)
(3 8.09704e-16 0)
(3 6.08688e-16 0)
(3 -3.50863e-16 0)
(3 -6.09835e-16 0)
(3 2.55717e-17 0)
(3 6.54099e-16 0)
(3 9.00957e-16 0)
(3 1.0134e-15 0)
(3 6.84409e-16 0)
(3 6.95857e-16 0)
(3 1.23289e-15 0)
(3 1.02993e-15 0)
(3 7.7874e-16 0)
(3 1.29849e-15 0)
(3 2.16866e-15 0)
(3 3.00565e-15 0)
(3 2.11288e-15 0)
(3 1.96171e-15 0)
(3 2.02524e-15 0)
(3 1.83966e-15 0)
(3 1.20065e-16 0)
(3 -4.51622e-16 0)
(3 -5.69729e-16 0)
(3 -9.98571e-16 0)
(3 -1.48453e-15 0)
(3 -7.35971e-16 0)
(3 -6.15336e-17 0)
(3 1.17434e-16 0)
(3 -1.45154e-16 0)
(3 -9.95971e-17 0)
(3 -9.59681e-17 0)
(3 -4.83552e-16 0)
(3 -2.26731e-15 0)
(3 -3.27297e-15 0)
(3 -3.11319e-15 0)
(3 -2.5157e-15 0)
(3 -8.32532e-16 0)
(3 9.36108e-16 0)
(3 2.72331e-16 0)
(3 -2.02092e-16 0)
(3 -5.21521e-17 0)
(3 -2.23581e-16 0)
(3 -5.73422e-16 0)
(3 -2.44492e-16 0)
(3 4.28834e-16 0)
(3 1.96418e-16 0)
(3 -3.9593e-17 0)
(3 1.05104e-16 0)
(3 4.22851e-16 0)
(3 1.03846e-15 0)
(3 3.60658e-16 0)
(3 3.15162e-16 0)
(3 4.1592e-16 0)
(3 9.50401e-16 0)
(3 1.20611e-15 0)
(3 1.05249e-15 0)
(3 7.44658e-16 0)
(3 2.10418e-16 0)
(3 -1.24275e-16 0)
(3 1.83391e-15 0)
(3 2.65366e-15 0)
(3 2.65179e-15 0)
(3 2.28759e-15 0)
(3 1.9945e-15 0)
(3 1.77591e-15 0)
(3 1.45164e-15 0)
(3 1.58408e-15 0)
(3 2.06473e-15 0)
(3 2.2891e-15 0)
(3 -1.50362e-16 0)
(3 -1.11728e-15 0)
(3 -6.05363e-16 0)
(3 -1.00098e-16 0)
(3 -3.84082e-16 0)
(3 -5.02963e-16 0)
(3 -1.14509e-16 0)
(3 -2.94503e-16 0)
(3 -4.57051e-16 0)
(3 -1.46755e-16 0)
(3 -5.93626e-16 0)
(3 -1.95886e-15 0)
(3 -2.56962e-15 0)
(3 -1.81021e-15 0)
(3 -1.28492e-15 0)
(3 -4.73104e-16 0)
(3 1.16649e-16 0)
(3 -6.60775e-17 0)
(3 -3.51545e-16 0)
(3 -8.64464e-16 0)
(3 -6.88104e-16 0)
(3 -3.88237e-16 0)
(3 -2.95659e-16 0)
(3 -1.22493e-17 0)
(3 1.537e-15 0)
(3 -4.28148e-18 0)
(3 1.59789e-16 0)
(3 7.4859e-18 0)
(3 4.3214e-17 0)
(3 -1.95727e-17 0)
(3 1.5204e-18 0)
(3 -3.38921e-16 0)
(3 -3.76014e-16 0)
(3 -4.70599e-16 0)
(3 -6.83988e-16 0)
(3 -5.52427e-16 0)
(3 -7.50999e-16 0)
(3 -9.12711e-16 0)
(3 7.7618e-16 0)
(3 9.39593e-16 0)
(3 4.33658e-16 0)
(3 5.92227e-16 0)
(3 -9.13446e-17 0)
(3 -9.27515e-16 0)
(3 -1.29965e-15 0)
(3 -1.11847e-15 0)
(3 3.80067e-18 0)
(3 1.03262e-15 0)
(3 8.05804e-16 0)
(3 4.79282e-18 0)
(3 6.42606e-16 0)
(3 8.41502e-16 0)
(3 3.18296e-16 0)
(3 -1.00307e-16 0)
(3 -3.33888e-16 0)
(3 -6.74972e-16 0)
(3 -8.38521e-16 0)
(3 -3.02877e-16 0)
(3 -3.55894e-16 0)
(3 -5.38132e-16 0)
(3 5.11479e-16 0)
(3 1.48165e-15 0)
(3 1.83471e-15 0)
(3 8.10599e-16 0)
(3 -8.62163e-16 0)
(3 -1.66806e-15 0)
(3 -1.67406e-15 0)
(3 -1.13034e-15 0)
(3 -7.13001e-16 0)
(3 -6.05141e-16 0)
(3 -4.79711e-16 0)
(3 9.01935e-17 0)
(3 5.69497e-16 0)
(3 -1.92826e-16 0)
(3 -3.01841e-16 0)
(3 -8.53363e-16 0)
(3 -1.14462e-15 0)
(3 -6.74769e-16 0)
(3 -4.65326e-16 0)
(3 3.27031e-16 0)
(3 6.52481e-16 0)
(3 8.64507e-16 0)
(3 7.49647e-16 0)
(3 1.94932e-16 0)
(3 -6.38347e-16 0)
(3 -9.27852e-16 0)
(3 -1.02461e-15 0)
(3 -7.62482e-16 0)
(3 -6.55075e-16 0)
(3 -5.99891e-16 0)
(3 3.42362e-17 0)
(3 -1.68985e-16 0)
(3 2.10005e-16 0)
(3 8.59458e-16 0)
(3 1.16592e-15 0)
(3 1.05517e-15 0)
(3 1.40501e-15 0)
(3 1.78071e-15 0)
(3 1.81159e-15 0)
(3 8.91118e-16 0)
(3 6.58995e-16 0)
(3 9.82376e-17 0)
(3 -9.16076e-16 0)
(3 -1.17165e-15 0)
(3 -6.17923e-16 0)
(3 -5.02331e-16 0)
(3 -2.25772e-16 0)
(3 5.43236e-16 0)
(3 8.37861e-16 0)
(3 1.30618e-15 0)
(3 8.80307e-16 0)
(3 -4.73145e-17 0)
(3 -1.36763e-15 0)
(3 -2.35789e-15 0)
(3 -2.33113e-15 0)
(3 -1.8258e-15 0)
(3 -1.58369e-15 0)
(3 -1.51679e-15 0)
(3 -1.19262e-15 0)
(3 -6.64471e-16 0)
(3 -1.17556e-15 0)
(3 1.18162e-16 0)
(3 -1.10184e-15 0)
(3 -8.89869e-16 0)
(3 -7.66789e-16 0)
(3 -4.19927e-16 0)
(3 3.05979e-16 0)
(3 4.08633e-16 0)
(3 6.76836e-16 0)
(3 9.3193e-16 0)
(3 1.1475e-15 0)
(3 7.62456e-16 0)
(3 -4.47574e-16 0)
(3 -1.95522e-15 0)
(3 -2.57861e-15 0)
(3 -1.60513e-16 0)
(3 1.15727e-16 0)
(3 1.79687e-16 0)
(3 1.2945e-15 0)
(3 2.45061e-15 0)
(3 2.3293e-15 0)
(3 2.10603e-15 0)
(3 1.72544e-15 0)
(3 2.04178e-15 0)
(3 2.52519e-15 0)
(3 2.21565e-15 0)
(3 1.06052e-15 0)
(3 1.3691e-15 0)
(3 1.39781e-15 0)
(3 5.57077e-16 0)
(3 -2.45357e-16 0)
(3 -8.38013e-16 0)
(3 -5.67027e-16 0)
(3 -6.23542e-16 0)
(3 -2.45337e-16 0)
(3 -1.95609e-17 0)
(3 1.80234e-16 0)
(3 -7.36031e-17 0)
(3 -1.1692e-15 0)
(3 -1.14259e-15 0)
(3 -7.94956e-16 0)
(3 -5.25544e-16 0)
(3 -7.17948e-16 0)
(3 -1.36498e-15 0)
(3 -9.11825e-16 0)
(3 -6.85018e-16 0)
(3 -3.10826e-16 0)
(3 4.74755e-17 0)
(3 4.3442e-17 0)
(3 2.83244e-16 0)
(3 1.34397e-16 0)
(3 -3.65261e-17 0)
(3 1.28464e-16 0)
(3 2.16845e-16 0)
(3 1.36003e-16 0)
(3 -1.12324e-16 0)
(3 -6.08906e-16 0)
(3 -8.16337e-16 0)
(3 -9.01842e-16 0)
(3 -6.08007e-16 0)
(3 -7.12856e-16 0)
(3 -1.61152e-15 0)
(3 -1.76999e-15 0)
(3 -1.17922e-15 0)
(3 -7.57637e-17 0)
(3 1.06606e-15 0)
(3 1.37198e-15 0)
(3 7.81953e-16 0)
(3 7.33637e-16 0)
(3 5.62627e-16 0)
(3 5.1897e-16 0)
(3 6.39564e-16 0)
(3 1.14904e-15 0)
(3 5.20419e-16 0)
(3 7.88889e-16 0)
(3 1.221e-15 0)
(3 2.40327e-15 0)
(3 2.91954e-15 0)
(3 2.21291e-15 0)
(3 1.74517e-15 0)
(3 -7.40933e-17 0)
(3 -6.8403e-16 0)
(3 -9.2355e-16 0)
(3 -2.23121e-16 0)
(3 5.31404e-16 0)
(3 4.44835e-16 0)
(3 -3.62709e-16 0)
(3 -1.25365e-15 0)
(3 -1.30626e-15 0)
(3 -1.0456e-15 0)
(3 -1.27909e-15 0)
(3 -1.43811e-15 0)
(3 -1.32175e-15 0)
(3 -1.42394e-15 0)
(3 -1.85512e-15 0)
(3 -2.75801e-15 0)
(3 -2.10416e-15 0)
(3 -8.98788e-17 0)
(3 3.45674e-16 0)
(3 1.83187e-16 0)
(3 -3.06095e-16 0)
(3 -4.69175e-16 0)
(3 -3.43286e-16 0)
(3 -2.72562e-16 0)
(3 -1.12125e-15 0)
(3 -1.32664e-15 0)
(3 -1.07529e-15 0)
(3 -6.00684e-16 0)
(3 -2.57528e-16 0)
(3 3.71091e-16 0)
(3 8.54298e-16 0)
(3 3.67606e-16 0)
(3 -1.40794e-16 0)
(3 7.26398e-16 0)
(3 1.99735e-15 0)
(3 2.4693e-15 0)
(3 2.26625e-15 0)
(3 1.37546e-15 0)
(3 1.81245e-16 0)
(3 -8.3074e-16 0)
(3 -8.96856e-16 0)
(3 -8.1576e-16 0)
(3 -7.19359e-16 0)
(3 -3.44298e-16 0)
(3 9.87595e-16 0)
(3 1.10669e-15 0)
(3 -2.31053e-16 0)
(3 -6.34496e-16 0)
(3 -9.48071e-16 0)
(3 -3.64895e-16 0)
(3 8.45955e-16 0)
(3 1.4157e-15 0)
(3 1.59868e-15 0)
(3 2.03964e-15 0)
(3 1.64e-15 0)
(3 1.15307e-15 0)
(3 -1.805e-18 0)
(3 -1.78378e-15 0)
(3 -2.42409e-15 0)
(3 -3.04382e-15 0)
(3 -2.81724e-15 0)
(3 -2.75385e-15 0)
(3 -2.85727e-15 0)
(3 -3.39259e-15 0)
(3 -4.52079e-15 0)
(3 -2.04306e-16 0)
(3 1.31423e-16 0)
(3 3.25067e-16 0)
(3 -5.09941e-17 0)
(3 -3.48052e-16 0)
(3 -2.45452e-16 0)
(3 -2.6545e-16 0)
(3 4.73084e-17 0)
(3 8.13354e-17 0)
(3 1.89275e-16 0)
(3 6.83054e-16 0)
(3 1.46354e-15 0)
(3 1.91311e-15 0)
(3 1.15001e-15 0)
(3 7.70555e-16 0)
(3 -6.17688e-16 0)
(3 -8.57253e-16 0)
(3 -8.80883e-16 0)
(3 -7.39116e-16 0)
(3 -7.64772e-16 0)
(3 -8.85848e-16 0)
(3 -5.77399e-16 0)
(3 -5.42695e-16 0)
(3 -3.53278e-16 0)
(3 8.94012e-16 0)
(3 7.28627e-16 0)
(3 3.71263e-16 0)
(3 -2.37825e-16 0)
(3 -1.35347e-15 0)
(3 -1.60095e-15 0)
(3 -1.23788e-15 0)
(3 -2.20945e-16 0)
(3 -4.5863e-17 0)
(3 -2.95571e-16 0)
(3 -3.05246e-16 0)
(3 4.07441e-16 0)
(3 5.5964e-16 0)
(3 8.93658e-16 0)
(3 7.87476e-16 0)
(3 1.0266e-15 0)
(3 4.0591e-16 0)
(3 -5.90642e-17 0)
(3 -2.25786e-16 0)
(3 -1.14981e-15 0)
(3 -2.0987e-15 0)
(3 -2.70461e-15 0)
(3 -2.87463e-15 0)
(3 -2.78366e-15 0)
(3 1.1948e-16 0)
(3 6.75835e-17 0)
(3 -1.53244e-17 0)
(3 3.33377e-16 0)
(3 4.20013e-17 0)
(3 1.11896e-16 0)
(3 7.88597e-16 0)
(3 2.1956e-15 0)
(3 2.62218e-15 0)
(3 2.33028e-15 0)
(3 2.41831e-15 0)
(3 2.39802e-15 0)
(3 1.60019e-15 0)
(3 -1.55758e-16 0)
(3 -1.02723e-16 0)
(3 -1.06845e-15 0)
(3 -2.77508e-15 0)
(3 -4.27884e-15 0)
(3 -4.60204e-15 0)
(3 -2.94299e-15 0)
(3 -4.31166e-16 0)
(3 1.27416e-15 0)
(3 9.86314e-16 0)
(3 1.03962e-15 0)
(3 1.10999e-15 0)
(3 9.42593e-16 0)
(3 -7.17152e-16 0)
(3 -9.65996e-16 0)
(3 -1.3297e-15 0)
(3 -1.57826e-15 0)
(3 -9.43856e-16 0)
(3 -4.55705e-16 0)
(3 -4.99835e-17 0)
(3 -1.19248e-15 0)
(3 -1.1713e-15 0)
(3 -7.82965e-16 0)
(3 -5.45342e-16 0)
(3 -7.8642e-16 0)
(3 -8.24693e-16 0)
(3 -9.78948e-17 0)
(3 4.86879e-16 0)
(3 2.60558e-16 0)
(3 9.25679e-16 0)
(3 1.08357e-15 0)
(3 -9.02731e-17 0)
(3 -1.58898e-15 0)
(3 -2.74523e-15 0)
(3 -2.29606e-15 0)
(3 1.83612e-16 0)
(3 6.88955e-17 0)
(3 3.64722e-16 0)
(3 6.71272e-16 0)
(3 4.99523e-16 0)
(3 4.12416e-16 0)
(3 1.04195e-15 0)
(3 1.21446e-15 0)
(3 1.3723e-15 0)
(3 1.42932e-15 0)
(3 1.08387e-15 0)
(3 -2.22366e-16 0)
(3 -7.14938e-16 0)
(3 -1.75157e-16 0)
(3 -7.458e-16 0)
(3 -2.72482e-15 0)
(3 -3.28087e-15 0)
(3 -3.0217e-15 0)
(3 -1.40353e-15 0)
(3 -9.44413e-17 0)
(3 1.68743e-15 0)
(3 1.93788e-15 0)
(3 3.3938e-16 0)
(3 -8.22893e-16 0)
(3 -1.35653e-15 0)
(3 -1.98608e-16 0)
(3 3.89975e-16 0)
(3 1.26586e-16 0)
(3 9.60096e-17 0)
(3 1.8328e-16 0)
(3 1.36147e-16 0)
(3 -5.64494e-16 0)
(3 -7.5597e-16 0)
(3 -7.56282e-16 0)
(3 -6.20548e-16 0)
(3 -4.04839e-16 0)
(3 -4.28183e-16 0)
(3 -2.56122e-16 0)
(3 -3.90081e-16 0)
(3 -9.41377e-16 0)
(3 -1.0783e-15 0)
(3 -7.00607e-16 0)
(3 -3.39607e-16 0)
(3 1.02203e-15 0)
(3 1.31389e-15 0)
(3 4.03155e-16 0)
(3 -7.67513e-16 0)
(3 1.648e-15 0)
(3 -1.6999e-16 0)
(3 -2.96662e-16 0)
(3 1.92084e-16 0)
(3 8.65999e-16 0)
(3 1.23104e-15 0)
(3 8.79599e-16 0)
(3 6.75655e-16 0)
(3 1.70425e-17 0)
(3 -1.70305e-15 0)
(3 -2.59483e-15 0)
(3 -2.69927e-15 0)
(3 -2.05616e-15 0)
(3 -1.22885e-15 0)
(3 -7.79872e-16 0)
(3 -1.27585e-15 0)
(3 -1.36252e-15 0)
(3 -1.90416e-15 0)
(3 -1.80926e-15 0)
(3 -1.19754e-15 0)
(3 -1.32371e-15 0)
(3 -1.04921e-15 0)
(3 -9.74651e-16 0)
(3 -1.17036e-16 0)
(3 -2.83892e-16 0)
(3 -8.89831e-16 0)
(3 -9.01847e-16 0)
(3 -1.12483e-16 0)
(3 -7.73209e-18 0)
(3 4.29919e-16 0)
(3 9.49342e-16 0)
(3 9.03485e-16 0)
(3 6.06155e-16 0)
(3 3.93625e-16 0)
(3 6.03683e-16 0)
(3 -2.67709e-16 0)
(3 -6.28861e-16 0)
(3 -7.43505e-16 0)
(3 -5.7496e-16 0)
(3 -1.49066e-16 0)
(3 -7.06258e-16 0)
(3 -1.09072e-15 0)
(3 -2.79494e-16 0)
(3 9.54379e-16 0)
(3 1.43888e-15 0)
(3 1.57645e-15 0)
(3 1.06416e-15 0)
(3 5.52438e-16 0)
(3 6.55521e-16 0)
(3 -3.48974e-16 0)
(3 -4.07918e-16 0)
(3 -3.51549e-16 0)
(3 -2.02063e-16 0)
(3 1.88472e-16 0)
(3 1.22048e-16 0)
(3 -8.71852e-16 0)
(3 -1.30592e-15 0)
(3 -2.10172e-15 0)
(3 -2.78313e-15 0)
(3 -1.55699e-15 0)
(3 -2.91754e-16 0)
(3 -5.12459e-17 0)
(3 2.44771e-16 0)
(3 -3.90391e-16 0)
(3 -4.58661e-16 0)
(3 -5.25606e-16 0)
(3 -7.40052e-16 0)
(3 -8.15146e-16 0)
(3 -5.81637e-16 0)
(3 -2.18363e-15 0)
(3 -2.65048e-15 0)
(3 -1.75325e-15 0)
(3 -4.38293e-16 0)
(3 -3.94431e-16 0)
(3 -1.54545e-15 0)
(3 -1.78774e-15 0)
(3 -1.05796e-15 0)
(3 9.70468e-17 0)
(3 3.8679e-16 0)
(3 3.73913e-16 0)
(3 6.21059e-16 0)
(3 1.02837e-15 0)
(3 1.7125e-15 0)
(3 4.46257e-16 0)
(3 -1.51253e-15 0)
(3 -2.09281e-15 0)
(3 -2.19346e-15 0)
(3 -1.67049e-15 0)
(3 -1.39912e-15 0)
(3 -2.6197e-15 0)
(3 -2.34645e-15 0)
(3 -1.51564e-15 0)
(3 -1.43514e-15 0)
(3 -1.08486e-15 0)
(3 -3.76558e-16 0)
(3 -3.83689e-16 0)
(3 -1.53501e-15 0)
(3 -4.18186e-18 0)
(3 1.24903e-16 0)
(3 -2.87861e-16 0)
(3 -1.01614e-15 0)
(3 -1.23764e-15 0)
(3 -1.06197e-15 0)
(3 -9.17213e-16 0)