/*--------------------------------*- C++ -*----------------------------------*\
  =========                 |
  \\      /  F ield         | OpenFOAM: The Open Source CFD Toolbox
   \\    /   O peration     | Website:  https://openfoam.org
    \\  /    A nd           | Version:  7
     \\/     M anipulation  |
\*---------------------------------------------------------------------------*/
FoamFile
{
    version     2.0;
    format      ascii;
    class       volScalarField;
    location    "0.3";
    object      p;
}
// * * * * * * * * * * * * * * * * * * * * * * * * * * * * * * * * * * * * * //

dimensions      [1 -1 -2 0 0 0 0];

internalField   nonuniform List<scalar> 
4608
(
1
1
1
1
1
1
1
1
1
1
1
1
1
1
1
1
1
1
1
1
1
1
1
1
1
1
1
1
1
1
1
1
1
1
1
1
1
1
1
1
1
1
1
1
1
1
1
1
1
1
1
1
1
1
1
1
1
1
1
1
1
1
1
1
1
1
1
1
1
1
1
1
1
1
1
1
1
1
1
1
1
1
1
1
1
1
1
1
1
1
1
1
1
1
1
1
1
1
1
1
1
1
1
1
1
1
1
1
1
1
1
1
1
1
1
1
1
1
1
1
1
1
1
1
1
1
1
1
1
1
1
1
1
1
1
1
1
1
1
1
1
1
1
1
1
1
1
1
1
1
1
1
1
1
1
1
1
1
1
1
1
1
1
1
1
1
1
1
1
1
1
1
1
1
1
1
1
1
1
1
1
1
1
1
1
1
1
1
1
1
1
1
1
1
1
1
1
1
1
1
1
1
1
1
1
1
1
1
1
1
1
1
1
1
1
1
1
1
1
1
1
1
1
1
1
1
1
1
1
1
1
1
1
1
1
1
1
1
1
1
1
1
1
1
1
1
1
1
1
1
1
1
1
1
1
1
1
1
1
1
1
1
1
1
1
1
1
1
1
1
1
1
1
1
1
1
1
1
1
1
1
1
1
1
1
1
1
1
1
1
1
1
1
1
1
1
1
1
1
1
1
1
1
1
1
1
1
1
1
1
1
1
1
1
1
1
1
1
1
1
1
1
1
1
1
1
1
1
1
1
1
1
1
1
1
1
1
1
1
1
1
1
1
1
1
1
1
1
1
1
1
1
1
1
1
1
1
1
1
1
1
1
1
1
1
1
1
1
1
1
1
1
1
1
1
1
1
1
1
1
1
1
1
1
1
1
1
1
1
1
1
1
1
1
1
1
1
1
1
1
1
1
1
1
1
1
1
1
1
1
1
1
1
1
1
1
1
1
1
1
1
1
1
1
1
1
1
1
1
1
1
1
1
1
1
1
1
1
1
1
1
1
1
1
1
1
1
1
1
1
1
1
1
1
1
1
1
1
1
1
1
1
1
1
1
1
1
1
1
1
1
1
1
1
1
1
1
1
1
1
1
1
1
1
1
1
1
1
1
1
1
1
1
1
1
1
1
1
1
1
1
1
1
1
1
1
1
1
1
1
1
1
1
1
1
1
1
1
1
1
1
1
1
1
1
1
1
1
1
1
1
1
1
1
1
1
1
1
1
1
1
1
1
1
1
1
1
1
1
1
1
1
1
1
1
1
1
1
1
1
1
1
1
1
1
1
1
1
1
1
1
1
1
1
1
1
1
1
1
1
1
1
1
1
1
1
1
1
1
1
1
1
1
1
1
1
1
1
1
1
1
1
1
1
1
1
1
1
1
1
1
1
1
1
1
1
1
1
1
1
1
1
1
1
1
1
1
1
1
1
1
1
1
1
1
1
1
1
1
1
1
1
1
1
1
1
1
1
1
1
1
1
1
1
1
1
1
1
1
1
1
1
1
1
1
1
1
1
1
1
1
1
1
1
1
1
1
1
1
1
1
1
1
1
1
1
1
1
1
1
1
1
1
1
1
1
1
1
1
1
1
1
1
1
1
1
1
1
1
1
1
1
1
1
1
1
1
1
1
1
1
1
1
1
1
1
1
1
1
1
1
1
1
1
1
1
1
1
1
1
1
1
1
1
1
1
1
1
1
1
1
1
1
1
1
1
1
1
1
1
1
1
1
1
1
1
1
1
1.29153
1.76175
2.33338
2.97236
3.64073
4.29039
4.83358
5.31243
5.37345
5.17132
4.72149
4.21106
3.8245
3.69055
3.57652
3.55047
3.56668
3.55432
3.52988
3.51296
3.48818
3.45653
3.43374
3.4185
1.00299
1.01879
1.0836
1.21823
1.47118
1.85657
2.37402
2.98425
3.56867
3.84869
4.03384
4.03895
3.97472
3.88589
3.77513
3.71178
3.64035
3.5486
3.5012
3.48037
3.4534
3.42661
3.41549
3.40554
1
0.999948
1.00015
1.0003
1.00352
1.02418
1.10763
1.364
1.97718
3.00937
3.81626
4.32928
4.37231
4.2839
4.09662
3.86798
3.68225
3.52807
3.45946
3.44226
3.42142
3.40744
3.39664
3.38731
1
0.999998
0.999997
0.999998
0.999986
1.00004
0.99991
1.00188
1.03221
1.3029
2.01334
3.17203
4.01336
4.07243
4.0297
3.97158
3.83664
3.63683
3.51537
3.45461
3.39335
3.36216
3.35269
3.35903
1
1
1
1
0.999999
0.999999
0.999988
0.99999
0.999901
1.00141
1.04201
1.3404
2.29215
3.2489
3.97979
4.06056
3.99133
3.81984
3.65845
3.51629
3.39921
3.34346
3.32394
3.32338
1
1
1
1
1
1
1
0.999999
0.999992
0.999992
0.999911
1.0027
1.08241
1.53998
2.49171
3.52202
3.75002
3.72425
3.68101
3.58469
3.45187
3.37771
3.35391
3.33985
1
1
1
1
1
1
1
1
1
0.999999
0.999989
0.999981
1.00002
1.01166
1.15058
1.80069
2.78438
3.41233
3.65347
3.5979
3.49211
3.43542
3.38857
3.34212
1
1
1
1
1
1
1
1
1
1
1
0.999998
0.999998
0.999965
1.00093
1.03365
1.33732
1.99247
2.92133
3.28995
3.43796
3.42559
3.37882
3.3445
1
1
1
1
1
1
1
1
1
1
1
1
1
0.999994
0.999995
0.999985
1.00639
1.07845
1.43817
2.16768
2.90508
3.24979
3.25364
3.31139
1
1
1
1
1
1
1
1
1
1
1
1
1
1
0.999999
0.999997
0.99998
1.00033
1.01326
1.15113
1.55433
2.26722
2.78914
3.18299
1
1
1
1
1
1
1
1
1
1
1
1
1
1
1
1
0.999996
0.999997
0.999985
1.00187
1.02754
1.1963
1.66403
2.22477
1
1
1
1
1
1
1
1
1
1
1
1
1
1
1
1
1
1
0.999997
0.999994
1.00005
1.0036
1.05268
1.18908
1
1
1
1
1
1
1
1
1
1
1
1
1
1
1
1
1
1
1
0.999999
1
0.999993
1.00087
1.00103
1
1
1
1
1
1
1
1
1
1
1
1
1
1
1
1
1
1
1
1
1
0.999998
1
0.999925
1
1
1
1
1
1
1
1
1
1
1
1
1
1
1
1
1
1
1
1
1
1
1
0.99997
1
1
1
1
1
1
1
1
1
1
1
1
1
1
1
1
1
1
1
1
1
1
1
0.999998
1
1
1
1
1
1
1
1
1
1
1
1
1
1
1
1
1
1
1
1
1
1
1
0.999998
1
1
1
1
1
1
1
1
1
1
1
1
1
1
1
1
1
1
1
1
1
1
1
0.99997
1
1
1
1
1
1
1
1
1
1
1
1
1
1
1
1
1
1
1
1
1
0.999998
1
0.999925
1
1
1
1
1
1
1
1
1
1
1
1
1
1
1
1
1
1
1
0.999999
1
0.999993
1.00087
1.00103
1
1
1
1
1
1
1
1
1
1
1
1
1
1
1
1
1
1
0.999997
0.999994
1.00005
1.0036
1.05268
1.18908
1
1
1
1
1
1
1
1
1
1
1
1
1
1
1
1
0.999996
0.999997
0.999985
1.00187
1.02754
1.1963
1.66403
2.22477
1
1
1
1
1
1
1
1
1
1
1
1
1
1
0.999999
0.999997
0.99998
1.00033
1.01326
1.15113
1.55433
2.26722
2.78914
3.18299
1
1
1
1
1
1
1
1
1
1
1
1
1
0.999994
0.999995
0.999985
1.00639
1.07845
1.43817
2.16768
2.90508
3.24979
3.25364
3.31139
1
1
1
1
1
1
1
1
1
1
1
0.999998
0.999998
0.999965
1.00093
1.03365
1.33732
1.99247
2.92133
3.28995
3.43796
3.42559
3.37882
3.3445
1
1
1
1
1
1
1
1
1
0.999999
0.999989
0.999981
1.00002
1.01166
1.15058
1.80069
2.78438
3.41233
3.65347
3.5979
3.49211
3.43542
3.38857
3.34212
1
1
1
1
1
1
1
0.999999
0.999992
0.999992
0.999911
1.0027
1.08241
1.53998
2.49171
3.52202
3.75002
3.72425
3.68101
3.58469
3.45187
3.37771
3.35391
3.33985
1
1
1
1
0.999999
0.999999
0.999988
0.99999
0.999901
1.00141
1.04201
1.3404
2.29215
3.2489
3.97979
4.06056
3.99133
3.81984
3.65845
3.51629
3.39921
3.34346
3.32394
3.32338
1
0.999998
0.999997
0.999998
0.999986
1.00004
0.99991
1.00188
1.03221
1.3029
2.01334
3.17203
4.01336
4.07243
4.0297
3.97158
3.83664
3.63683
3.51537
3.45461
3.39335
3.36216
3.35269
3.35903
1
0.999948
1.00015
1.0003
1.00352
1.02418
1.10763
1.364
1.97718
3.00937
3.81626
4.32928
4.37231
4.2839
4.09662
3.86798
3.68225
3.52807
3.45946
3.44226
3.42142
3.40744
3.39664
3.38731
1.00299
1.01879
1.0836
1.21823
1.47118
1.85657
2.37402
2.98425
3.56867
3.84869
4.03384
4.03895
3.97472
3.88589
3.77513
3.71178
3.64035
3.5486
3.5012
3.48037
3.4534
3.42661
3.41549
3.40554
1.29153
1.76175
2.33338
2.97236
3.64073
4.29039
4.83358
5.31243
5.37345
5.17132
4.72149
4.21106
3.8245
3.69055
3.57652
3.55047
3.56668
3.55432
3.52988
3.51296
3.48818
3.45653
3.43374
3.4185
2.41566
1.53706
1.05259
0.738864
0.514689
0.496224
0.56456
0.619458
0.607168
0.618381
0.676731
0.743399
0.752375
0.759884
0.795042
0.825013
0.824047
0.81325
0.810272
0.816344
0.839171
0.85808
0.860182
0.85687
0.834266
0.795078
0.783822
0.785931
0.795801
0.813282
0.835191
0.857674
0.877708
0.898704
0.930899
0.97843
1.01833
1.03469
1.03977
1.04107
1.0428
1.04559
1.04781
1.058
1.06517
1.04468
1.02994
1.02226
1.02006
1.02137
1.03137
1.05602
1.07676
1.08046
1.081
1.08149
1.0819
1.0821
1.08138
1.07683
1.06311
1.03306
1.00574
1.00014
1
1
1
1
1
1
1
1
1
1
1
1
1
1
1
1
1
1
1
1
1
1
1
1
1
1
1
1
1
1
1
1
3.0686
2.48243
1.96922
1.65407
1.29677
1.01374
0.979117
0.938798
0.835398
0.771261
0.762589
0.739884
0.704937
0.700177
0.713135
0.736589
0.743216
0.745551
0.753342
0.773145
0.797091
0.812452
0.817384
0.81716
0.806848
0.790008
0.784118
0.785343
0.79549
0.814158
0.834035
0.853003
0.875564
0.904593
0.942283
0.98669
1.01876
1.03182
1.03772
1.04155
1.04386
1.04498
1.04653
1.05243
1.05629
1.03906
1.02676
1.02241
1.02303
1.02676
1.03781
1.05962
1.07787
1.08152
1.08214
1.08267
1.08302
1.08316
1.08253
1.07828
1.06305
1.03057
1.00454
1.00008
1
1
1
1
1
1
1
1
1
1
1
1
1
1
1
1
1
1
1
1
1
1
1
1
1
1
1
1
1
1
1
1
3.30928
3.05059
2.6014
2.18487
1.85317
1.483
1.21357
1.11568
1.00837
0.840431
0.780132
0.765357
0.726483
0.699227
0.702258
0.719028
0.740798
0.738425
0.738637
0.746447
0.760744
0.77106
0.77866
0.784738
0.785739
0.778526
0.776242
0.780518
0.794416
0.814334
0.83454
0.853755
0.879015
0.916098
0.95686
0.989075
1.0121
1.02876
1.03952
1.04548
1.04819
1.04922
1.05104
1.05579
1.04793
1.03138
1.02204
1.01979
1.02214
1.03041
1.04495
1.0647
1.07827
1.08078
1.08145
1.08222
1.083
1.08352
1.08365
1.08014
1.06205
1.02631
1.00295
1.00003
1
1
1
1
1
1
1
1
1
1
1
1
1
1
1
1
1
1
1
1
1
1
1
1
1
1
1
1
1
1
1
1
3.33648
3.26045
3.03719
2.66089
2.33177
2.00723
1.59728
1.40454
1.32427
1.15159
0.961675
0.939647
0.908769
0.80973
0.762113
0.766716
0.761608
0.742621
0.722804
0.717753
0.718669
0.720819
0.725206
0.736445
0.752802
0.758813
0.765599
0.773798
0.784999
0.801996
0.821818
0.84448
0.872426
0.910188
0.952393
0.979754
1.00303
1.02608
1.04573
1.05523
1.05666
1.05494
1.05506
1.05638
1.04383
1.03186
1.02484
1.02136
1.02207
1.0302
1.04798
1.07078
1.08247
1.08433
1.08511
1.08571
1.08606
1.08619
1.08484
1.0774
1.05553
1.01957
1.00154
1.00001
1
1
1
1
1
1
1
1
1
1
1
1
1
1
1
1
1
1
1
1
1
1
1
1
1
1
1
1
1
1
1
1
3.33564
3.31557
3.23856
3.03486
2.72663
2.44814
2.10155
1.71784
1.59255
1.47124
1.24896
1.10842
1.05237
0.952758
0.847082
0.825089
0.806935
0.767217
0.7251
0.724611
0.720961
0.719984
0.723752
0.735604
0.756987
0.762777
0.759793
0.760747
0.765723
0.777554
0.80037
0.830544
0.859611
0.892916
0.936479
0.971777
1.00607
1.03369
1.05813
1.06895
1.06893
1.06509
1.05741
1.04543
1.03405
1.02659
1.0232
1.02272
1.02625
1.03585
1.05307
1.07451
1.086
1.08814
1.08915
1.08995
1.09043
1.09032
1.0875
1.07658
1.04748
1.01183
1.00051
1
1
1
1
1
1
1
1
1
1
1
1
1
1
1
1
1
1
1
1
1
1
1
1
1
1
1
1
1
1
1
1
1
3.34051
3.33401
3.30525
3.2234
3.03343
2.77623
2.52118
2.16527
1.88733
1.74185
1.55329
1.36962
1.27217
1.16592
1.00167
0.960134
0.953611
0.914005
0.828897
0.802842
0.784307
0.759299
0.752324
0.751435
0.752048
0.745227
0.741981
0.742129
0.743148
0.749588
0.771766
0.811399
0.847255
0.871219
0.90766
0.959162
0.995079
1.02634
1.06271
1.07477
1.06864
1.0568
1.0448
1.03065
1.02103
1.0171
1.01704
1.02309
1.03623
1.05264
1.06768
1.07966
1.08759
1.09008
1.09113
1.09218
1.09292
1.0932
1.09105
1.07459
1.03613
1.00517
1.00009
1
1
1
1
1
1
1
1
1
1
1
1
1
1
1
1
1
1
1
1
1
1
1
1
1
1
1
1
1
1
1
1
1
3.3299
3.32286
3.30244
3.26344
3.17587
3.00819
2.81345
2.55027
2.24002
2.04034
1.8342
1.60513
1.4972
1.41081
1.22257
1.08588
1.07034
1.04108
0.962696
0.897112
0.853814
0.800352
0.757621
0.752549
0.754076
0.745408
0.742192
0.744644
0.746738
0.752072
0.770044
0.800944
0.824953
0.840229
0.861551
0.90395
0.956863
0.994886
1.03905
1.05939
1.05411
1.04274
1.02722
1.01323
1.00754
1.0065
1.01098
1.02476
1.04636
1.06456
1.07761
1.08882
1.09684
1.09869
1.09927
1.0996
1.09949
1.09729
1.08827
1.06243
1.02044
1.00134
1.00001
1
1
1
1
1
1
1
1
1
1
1
1
1
1
1
1
1
1
1
1
1
1
1
1
1
1
1
1
1
1
1
1
1
3.33217
3.32818
3.30769
3.27734
3.23669
3.1552
3.03075
2.84559
2.56775
2.35074
2.15497
1.87957
1.71495
1.63029
1.4833
1.30418
1.24382
1.19576
1.09504
1.0189
0.989174
0.944287
0.854008
0.827731
0.825305
0.807142
0.782458
0.775798
0.776872
0.781304
0.791365
0.810767
0.820619
0.827197
0.836533
0.85657
0.894746
0.947308
0.999899
1.03003
1.02627
1.01248
0.999431
0.994887
0.996534
1.00628
1.0228
1.04591
1.06363
1.07262
1.08029
1.09206
1.1032
1.10623
1.10758
1.10846
1.10828
1.10399
1.08495
1.04268
1.00661
1.00012
1
1
1
1
1
1
1
1
1
1
1
1
1
1
1
1
1
1
1
1
1
1
1
1
1
1
1
1
1
1
1
1
1
1
3.34386
3.34786
3.32783
3.31623
3.30643
3.27165
3.1865
3.0471
2.82125
2.59864
2.42948
2.19464
1.9667
1.84416
1.71171
1.51779
1.43288
1.38316
1.27384
1.13497
1.10543
1.0725
0.985968
0.936764
0.919294
0.883427
0.82361
0.802935
0.803904
0.812264
0.819842
0.826147
0.832333
0.834154
0.839153
0.849891
0.866484
0.895632
0.939627
0.968601
0.97896
0.978401
0.976839
0.983498
0.995534
1.01486
1.04476
1.07214
1.0854
1.09185
1.09783
1.10535
1.11038
1.11169
1.11269
1.11358
1.11359
1.10472
1.06929
1.01852
1.00084
1
1
1
1
1
1
1
1
1
1
1
1
1
1
1
1
1
1
1
1
1
1
1
1
1
1
1
1
1
1
1
1
1
1
1
3.31484
3.27586
3.26207
3.2819
3.29602
3.29539
3.25208
3.16642
3.02783
2.83069
2.64809
2.46743
2.23396
2.06159
1.93706
1.75826
1.6166
1.54453
1.44432
1.31238
1.25351
1.21107
1.11348
1.03041
1.02061
0.992694
0.924892
0.876326
0.873664
0.880317
0.877458
0.87757
0.881817
0.879997
0.881198
0.884258
0.890487
0.900172
0.909639
0.923687
0.937615
0.950921
0.963248
0.97625
0.996268
1.02765
1.06204
1.0827
1.09217
1.09929
1.10747
1.11855
1.12546
1.12689
1.12747
1.12766
1.12224
1.09248
1.03507
1.00294
1.00002
1
1
1
1
1
1
1
1
1
1
1
1
1
1
1
1
1
1
1
1
1
1
1
1
1
1
1
1
1
1
1
1
1
1
1
2.85216
3.11506
3.30638
3.32564
3.28026
3.24286
3.24314
3.23395
3.167
3.03632
2.85137
2.67611
2.49587
2.29789
2.14235
1.98011
1.82944
1.73029
1.62016
1.45959
1.3923
1.35905
1.28246
1.1736
1.15141
1.14099
1.09105
1.05725
1.06561
1.09954
1.1024
1.07997
1.06141
1.05324
1.04215
1.02476
1.00385
0.975136
0.947175
0.942315
0.946281
0.955245
0.974246
1.00201
1.03628
1.07408
1.09576
1.09969
1.10111
1.10368
1.10874
1.1215
1.13947
1.14567
1.14738
1.14503
1.11665
1.05102
1.00567
1.00006
1
1
1
1
1
1
1
1
1
1
1
1
1
1
1
1
1
1
1
1
1
1
1
1
1
1
1
1
1
1
1
1
1
1
1
1
1.74423
2.38275
2.91455
3.19109
3.23351
3.26085
3.26688
3.26806
3.25311
3.18561
3.05183
2.85873
2.69234
2.51764
2.34
2.18506
2.01908
1.90702
1.81442
1.67509
1.59376
1.61794
1.62187
1.57814
1.57951
1.67811
1.70202
1.6674
1.66706
1.70794
1.71896
1.67921
1.6194
1.57255
1.53027
1.48316
1.42339
1.34554
1.26355
1.19568
1.14495
1.10651
1.0809
1.0738
1.08181
1.10198
1.11633
1.12054
1.12345
1.12776
1.13743
1.15856
1.1754
1.17837
1.17396
1.13763
1.06138
1.00733
1.00009
1
1
1
1
1
1
1
1
1
1
1
1
1
1
1
1
1
1
1
1
1
1
1
1
1
1
1
1
1
1
1
1
1
1
1
1
1
1.07503
1.37264
1.90695
2.44759
2.93455
3.22353
3.22028
3.23274
3.23837
3.24326
3.1859
3.05223
2.88867
2.73205
2.54689
2.42431
2.31877
2.25507
2.31255
2.37158
2.42261
2.64478
2.8119
2.76058
2.73251
2.75625
2.72997
2.64362
2.55454
2.47655
2.38983
2.27685
2.15556
2.06281
1.98739
1.90753
1.81305
1.70865
1.61432
1.54086
1.47663
1.40699
1.32843
1.24964
1.18378
1.14255
1.1302
1.1326
1.14234
1.16147
1.19227
1.21688
1.22176
1.20752
1.15301
1.06197
1.00659
1.00007
1
1
1
1
1
1
1
1
1
1
1
1
1
1
1
1
1
1
1
1
1
1
1
1
1
1
1
1
1
1
1
1
1
1
1
1
1
1
1.00137
1.02235
1.11843
1.43549
1.96502
2.55867
2.92242
3.1946
3.24953
3.20125
3.192
3.1854
3.14893
3.14604
3.20062
3.34012
3.53641
3.83395
4.12673
4.09113
4.11828
4.22341
4.17716
3.98893
3.80252
3.64499
3.49317
3.3221
3.14316
2.97751
2.82097
2.65794
2.50241
2.3732
2.26471
2.16108
2.05185
1.94782
1.87035
1.81809
1.77586
1.73262
1.68195
1.6195
1.53879
1.43551
1.32839
1.26279
1.25052
1.26274
1.27605
1.27001
1.23158
1.15496
1.05239
1.00429
1.00004
1
1
1
1
1
1
1
1
1
1
1
1
1
1
1
1
1
1
1
1
1
1
1
1
1
1
1
1
1
1
1
1
1
1
1
1
1
1
1
0.999977
1.00019
1.00283
1.03018
1.14663
1.49422
2.02359
2.56721
3.00321
3.14318
3.4158
3.85514
4.40712
4.9204
5.38081
5.57543
5.60487
5.63153
5.52133
5.16693
4.90818
4.73803
4.52915
4.28462
4.03832
3.82506
3.62853
3.41888
3.21995
3.05171
2.89456
2.72944
2.56977
2.43313
2.31468
2.19939
2.09296
2.00663
1.95145
1.91778
1.8921
1.86991
1.84948
1.82793
1.79995
1.759
1.69395
1.59674
1.47746
1.36596
1.29138
1.23247
1.1373
1.03515
1.00194
1.00001
1
1
1
1
1
1
1
1
1
1
1
1
1
1
1
1
1
1
1
1
1
1
1
1
1
1
1
1
1
1
1
1
1
1
1
1
1
1
1
1
0.999993
0.999995
1.00001
1.00034
1.00456
1.03844
1.20302
1.59242
2.35486
3.4901
4.58838
5.59376
6.38877
6.92727
7.25238
7.22766
7.03178
6.79447
6.50516
6.03902
5.51046
5.09643
4.735
4.35818
4.01831
3.75002
3.50125
3.24488
3.02166
2.85158
2.69836
2.53552
2.37632
2.24547
2.14677
2.06755
2.02187
2.00234
1.99875
2.01031
2.02903
2.04942
2.06698
2.07598
2.07149
2.04596
1.98846
1.88094
1.71094
1.49165
1.25986
1.08863
1.01408
1.00052
1
1
1
1
1
1
1
1
1
1
1
1
1
1
1
1
1
1
1
1
1
1
1
1
1
1
1
1
1
1
1
1
1
1
1
1
1
1
1
1
1
1
0.999993
0.999995
1.00001
1.00034
1.00456
1.03844
1.20302
1.59242
2.35486
3.4901
4.58838
5.59376
6.38877
6.92727
7.25238
7.22766
7.03178
6.79447
6.50516
6.03902
5.51046
5.09643
4.735
4.35818
4.01831
3.75002
3.50125
3.24488
3.02166
2.85158
2.69836
2.53552
2.37632
2.24547
2.14677
2.06755
2.02187
2.00234
1.99875
2.01031
2.02903
2.04941
2.06697
2.07598
2.07149
2.04596
1.98846
1.88094
1.71094
1.49165
1.25985
1.08863
1.01408
1.00052
1
1
1
1
1
1
1
1
1
1
1
1
1
1
1
1
1
1
1
1
1
1
1
1
1
1
1
1
1
1
1
1
1
1
1
1
1
1
1
1
1
1
0.999977
1.00019
1.00283
1.03018
1.14663
1.49422
2.02359
2.56721
3.00321
3.14318
3.4158
3.85514
4.40712
4.9204
5.38081
5.57543
5.60487
5.63153
5.52133
5.16693
4.90818
4.73803
4.52915
4.28462
4.03832
3.82506
3.62853
3.41888
3.21995
3.05171
2.89456
2.72944
2.56977
2.43313
2.31468
2.19939
2.09296
2.00663
1.95145
1.91778
1.8921
1.86991
1.84948
1.82793
1.79995
1.759
1.69395
1.59674
1.47746
1.36595
1.29138
1.23246
1.1373
1.03515
1.00194
1.00001
1
1
1
1
1
1
1
1
1
1
1
1
1
1
1
1
1
1
1
1
1
1
1
1
1
1
1
1
1
1
1
1
1
1
1
1
1
1
1
1
1.00137
1.02235
1.11843
1.43549
1.96502
2.55867
2.92242
3.1946
3.24953
3.20125
3.192
3.1854
3.14893
3.14604
3.20062
3.34012
3.53641
3.83395
4.12673
4.09113
4.11828
4.22341
4.17716
3.98893
3.80252
3.64499
3.49317
3.3221
3.14316
2.97751
2.82097
2.65794
2.50241
2.3732
2.26471
2.16108
2.05185
1.94782
1.87035
1.81809
1.77586
1.73262
1.68195
1.6195
1.53879
1.43551
1.32839
1.26279
1.25052
1.26274
1.27605
1.27001
1.23158
1.15496
1.05239
1.00429
1.00004
1
1
1
1
1
1
1
1
1
1
1
1
1
1
1
1
1
1
1
1
1
1
1
1
1
1
1
1
1
1
1
1
1
1
1
1
1
1
1
1.07503
1.37264
1.90695
2.44759
2.93455
3.22353
3.22028
3.23274
3.23837
3.24326
3.1859
3.05223
2.88867
2.73205
2.54689
2.42431
2.31877
2.25507
2.31255
2.37158
2.42261
2.64478
2.8119
2.76058
2.73251
2.75625
2.72997
2.64362
2.55454
2.47655
2.38983
2.27685
2.15556
2.06281
1.98739
1.90753
1.81305
1.70865
1.61432
1.54086
1.47663
1.40699
1.32843
1.24964
1.18378
1.14255
1.1302
1.1326
1.14234
1.16147
1.19227
1.21688
1.22176
1.20752
1.15301
1.06197
1.00659
1.00007
1
1
1
1
1
1
1
1
1
1
1
1
1
1
1
1
1
1
1
1
1
1
1
1
1
1
1
1
1
1
1
1
1
1
1
1
1
1
1.74423
2.38275
2.91455
3.19109
3.23351
3.26085
3.26688
3.26806
3.25311
3.18561
3.05183
2.85873
2.69234
2.51764
2.34
2.18506
2.01908
1.90702
1.81442
1.67509
1.59376
1.61794
1.62187
1.57814
1.57951
1.67811
1.70202
1.6674
1.66706
1.70794
1.71896
1.67921
1.6194
1.57255
1.53027
1.48316
1.42339
1.34554
1.26355
1.19568
1.14495
1.10651
1.0809
1.0738
1.08181
1.10198
1.11633
1.12054
1.12345
1.12776
1.13743
1.15856
1.1754
1.17837
1.17396
1.13763
1.06138
1.00733
1.00009
1
1
1
1
1
1
1
1
1
1
1
1
1
1
1
1
1
1
1
1
1
1
1
1
1
1
1
1
1
1
1
1
1
1
1
1
1
2.85216
3.11506
3.30638
3.32564
3.28026
3.24286
3.24314
3.23395
3.167
3.03632
2.85137
2.67611
2.49587
2.29789
2.14235
1.98011
1.82944
1.73029
1.62016
1.45959
1.3923
1.35905
1.28246
1.1736
1.15141
1.14099
1.09105
1.05725
1.06561
1.09954
1.1024
1.07997
1.06141
1.05324
1.04215
1.02476
1.00385
0.975136
0.947175
0.942315
0.946281
0.955245
0.974246
1.00201
1.03628
1.07408
1.09576
1.09969
1.10111
1.10368
1.10874
1.1215
1.13947
1.14567
1.14738
1.14503
1.11665
1.05102
1.00567
1.00006
1
1
1
1
1
1
1
1
1
1
1
1
1
1
1
1
1
1
1
1
1
1
1
1
1
1
1
1
1
1
1
1
1
1
1
1
3.31484
3.27586
3.26207
3.2819
3.29602
3.29539
3.25208
3.16642
3.02783
2.83069
2.64809
2.46743
2.23396
2.06159
1.93706
1.75826
1.6166
1.54453
1.44432
1.31238
1.25351
1.21107
1.11348
1.03041
1.02061
0.992694
0.924892
0.876326
0.873664
0.880317
0.877458
0.87757
0.881817
0.879997
0.881198
0.884258
0.890487
0.900172
0.909639
0.923687
0.937615
0.950921
0.963248
0.97625
0.996268
1.02765
1.06204
1.0827
1.09217
1.09929
1.10747
1.11855
1.12546
1.12689
1.12747
1.12766
1.12224
1.09248
1.03507
1.00294
1.00002
1
1
1
1
1
1
1
1
1
1
1
1
1
1
1
1
1
1
1
1
1
1
1
1
1
1
1
1
1
1
1
1
1
1
1
3.34386
3.34786
3.32783
3.31623
3.30643
3.27165
3.1865
3.0471
2.82125
2.59864
2.42948
2.19464
1.9667
1.84416
1.71171
1.51779
1.43288
1.38316
1.27384
1.13497
1.10543
1.0725
0.985968
0.936764
0.919294
0.883427
0.82361
0.802935
0.803904
0.812264
0.819842
0.826147
0.832333
0.834154
0.839153
0.849891
0.866484
0.895632
0.939627
0.968601
0.97896
0.978401
0.976839
0.983498
0.995534
1.01486
1.04476
1.07214
1.0854
1.09185
1.09783
1.10535
1.11038
1.11169
1.11269
1.11358
1.11359
1.10472
1.06929
1.01852
1.00084
1
1
1
1
1
1
1
1
1
1
1
1
1
1
1
1
1
1
1
1
1
1
1
1
1
1
1
1
1
1
1
1
1
1
1
3.33217
3.32818
3.30769
3.27734
3.23669
3.1552
3.03075
2.84559
2.56775
2.35074
2.15497
1.87957
1.71495
1.63029
1.4833
1.30418
1.24382
1.19576
1.09504
1.0189
0.989174
0.944287
0.854008
0.827731
0.825305
0.807142
0.782458
0.775798
0.776872
0.781304
0.791365
0.810767
0.820619
0.827197
0.836533
0.85657
0.894746
0.947308
0.999899
1.03003
1.02627
1.01248
0.999431
0.994887
0.996534
1.00628
1.0228
1.04591
1.06363
1.07262
1.08029
1.09206
1.1032
1.10623
1.10758
1.10846
1.10828
1.10399
1.08495
1.04268
1.00661
1.00012
1
1
1
1
1
1
1
1
1
1
1
1
1
1
1
1
1
1
1
1
1
1
1
1
1
1
1
1
1
1
1
1
1
1
3.3299
3.32286
3.30244
3.26344
3.17587
3.00819
2.81345
2.55027
2.24002
2.04034
1.8342
1.60513
1.4972
1.41081
1.22257
1.08588
1.07034
1.04108
0.962696
0.897112
0.853814
0.800352
0.757621
0.752549
0.754076
0.745408
0.742192
0.744644
0.746738
0.752072
0.770044
0.800944
0.824953
0.840229
0.861551
0.90395
0.956863
0.994886
1.03905
1.05939
1.05411
1.04274
1.02722
1.01323
1.00754
1.0065
1.01098
1.02476
1.04636
1.06456
1.07761
1.08882
1.09684
1.09869
1.09927
1.0996
1.09949
1.09729
1.08827
1.06243
1.02044
1.00134
1.00001
1
1
1
1
1
1
1
1
1
1
1
1
1
1
1
1
1
1
1
1
1
1
1
1
1
1
1
1
1
1
1
1
1
3.34051
3.33401
3.30525
3.2234
3.03343
2.77623
2.52118
2.16527
1.88733
1.74185
1.55329
1.36962
1.27217
1.16592
1.00167
0.960134
0.953611
0.914005
0.828897
0.802842
0.784307
0.759299
0.752324
0.751435
0.752048
0.745227
0.741981
0.742129
0.743148
0.749588
0.771766
0.811399
0.847255
0.871219
0.90766
0.959162
0.995079
1.02634
1.06271
1.07477
1.06864
1.0568
1.0448
1.03065
1.02103
1.0171
1.01704
1.02309
1.03623
1.05264
1.06768
1.07966
1.08759
1.09008
1.09113
1.09218
1.09292
1.0932
1.09105
1.07459
1.03613
1.00517
1.00009
1
1
1
1
1
1
1
1
1
1
1
1
1
1
1
1
1
1
1
1
1
1
1
1
1
1
1
1
1
1
1
1
1
3.33564
3.31557
3.23856
3.03486
2.72663
2.44814
2.10155
1.71784
1.59255
1.47124
1.24896
1.10842
1.05237
0.952758
0.847082
0.825089
0.806935
0.767217
0.7251
0.724611
0.720961
0.719984
0.723752
0.735604
0.756987
0.762777
0.759793
0.760747
0.765723
0.777554
0.80037
0.830544
0.859611
0.892916
0.936479
0.971777
1.00607
1.03369
1.05813
1.06895
1.06893
1.06509
1.05741
1.04543
1.03405
1.02659
1.0232
1.02272
1.02625
1.03585
1.05307
1.07451
1.086
1.08814
1.08915
1.08995
1.09043
1.09032
1.0875
1.07658
1.04748
1.01183
1.00051
1
1
1
1
1
1
1
1
1
1
1
1
1
1
1
1
1
1
1
1
1
1
1
1
1
1
1
1
1
1
1
1
1
3.33648
3.26045
3.03719
2.66089
2.33177
2.00723
1.59728
1.40454
1.32427
1.15159
0.961675
0.939647
0.908769
0.80973
0.762113
0.766716
0.761608
0.742621
0.722804
0.717753
0.718669
0.720819
0.725206
0.736445
0.752802
0.758813
0.765599
0.773798
0.784999
0.801996
0.821818
0.84448
0.872426
0.910188
0.952393
0.979754
1.00303
1.02608
1.04573
1.05523
1.05666
1.05494
1.05506
1.05638
1.04383
1.03186
1.02484
1.02136
1.02207
1.0302
1.04798
1.07078
1.08247
1.08433
1.08511
1.08571
1.08606
1.08619
1.08484
1.0774
1.05553
1.01957
1.00154
1.00001
1
1
1
1
1
1
1
1
1
1
1
1
1
1
1
1
1
1
1
1
1
1
1
1
1
1
1
1
1
1
1
1
3.30928
3.05059
2.6014
2.18487
1.85317
1.483
1.21357
1.11568
1.00837
0.840431
0.780132
0.765357
0.726483
0.699227
0.702258
0.719028
0.740798
0.738425
0.738637
0.746447
0.760744
0.77106
0.77866
0.784738
0.785739
0.778526
0.776242
0.780518
0.794416
0.814334
0.83454
0.853755
0.879015
0.916098
0.95686
0.989075
1.0121
1.02876
1.03952
1.04548
1.04819
1.04922
1.05104
1.05579
1.04793
1.03138
1.02204
1.01979
1.02214
1.03041
1.04495
1.0647
1.07827
1.08078
1.08145
1.08222
1.083
1.08352
1.08365
1.08014
1.06205
1.02631
1.00295
1.00003
1
1
1
1
1
1
1
1
1
1
1
1
1
1
1
1
1
1
1
1
1
1
1
1
1
1
1
1
1
1
1
1
3.0686
2.48243
1.96922
1.65407
1.29677
1.01374
0.979117
0.938798
0.835398
0.771261
0.762589
0.739884
0.704937
0.700177
0.713135
0.736589
0.743216
0.745551
0.753342
0.773145
0.797091
0.812452
0.817384
0.81716
0.806848
0.790008
0.784118
0.785343
0.79549
0.814158
0.834035
0.853003
0.875564
0.904593
0.942283
0.98669
1.01876
1.03182
1.03772
1.04155
1.04386
1.04498
1.04653
1.05243
1.05629
1.03906
1.02676
1.02241
1.02303
1.02676
1.03781
1.05962
1.07787
1.08152
1.08214
1.08267
1.08302
1.08316
1.08253
1.07828
1.06305
1.03057
1.00454
1.00008
1
1
1
1
1
1
1
1
1
1
1
1
1
1
1
1
1
1
1
1
1
1
1
1
1
1
1
1
1
1
1
1
2.41566
1.53706
1.05259
0.738864
0.514689
0.496224
0.56456
0.619458
0.607168
0.618381
0.676731
0.743399
0.752375
0.759884
0.795042
0.825013
0.824047
0.81325
0.810272
0.816344
0.839171
0.85808
0.860182
0.85687
0.834266
0.795078
0.783822
0.785931
0.795801
0.813282
0.835191
0.857674
0.877708
0.898704
0.930899
0.97843
1.01833
1.03469
1.03977
1.04107
1.0428
1.04559
1.04781
1.058
1.06517
1.04468
1.02994
1.02226
1.02006
1.02137
1.03137
1.05602
1.07676
1.08046
1.081
1.08149
1.0819
1.0821
1.08138
1.07683
1.06311
1.03306
1.00574
1.00014
1
1
1
1
1
1
1
1
1
1
1
1
1
1
1
1
1
1
1
1
1
1
1
1
1
1
1
1
1
1
1
1
)
;

boundaryField
{
    inlet
    {
        type            fixedValue;
        value           uniform 1;
    }
    outlet
    {
        type            zeroGradient;
    }
    bottom
    {
        type            symmetryPlane;
    }
    top
    {
        type            symmetryPlane;
    }
    obstacle
    {
        type            zeroGradient;
    }
    defaultFaces
    {
        type            empty;
    }
}


// ************************************************************************* //
