/*--------------------------------*- C++ -*----------------------------------*\
  =========                 |
  \\      /  F ield         | OpenFOAM: The Open Source CFD Toolbox
   \\    /   O peration     | Website:  https://openfoam.org
    \\  /    A nd           | Version:  7
     \\/     M anipulation  |
\*---------------------------------------------------------------------------*/
FoamFile
{
    version     2.0;
    format      ascii;
    class       volScalarField;
    location    "0.3";
    object      rho;
}
// * * * * * * * * * * * * * * * * * * * * * * * * * * * * * * * * * * * * * //

dimensions      [1 -3 0 0 0 0 0];

internalField   nonuniform List<scalar> 
4608
(
1.40001
1.40001
1.40001
1.40001
1.40001
1.40001
1.40001
1.40001
1.40001
1.40001
1.40001
1.40001
1.40001
1.40001
1.40001
1.40001
1.40001
1.40001
1.40001
1.40001
1.40001
1.40001
1.40001
1.40001
1.40001
1.40001
1.40001
1.40001
1.40001
1.40001
1.40001
1.40001
1.40001
1.40001
1.40001
1.40001
1.40001
1.40001
1.40001
1.40001
1.40001
1.40001
1.40001
1.40001
1.40001
1.40001
1.40001
1.40001
1.40001
1.40001
1.40001
1.40001
1.40001
1.40001
1.40001
1.40001
1.40001
1.40001
1.40001
1.40001
1.40001
1.40001
1.40001
1.40001
1.40001
1.40001
1.40001
1.40001
1.40001
1.40001
1.40001
1.40001
1.40001
1.40001
1.40001
1.40001
1.40001
1.40001
1.40001
1.40001
1.40001
1.40001
1.40001
1.40001
1.40001
1.40001
1.40001
1.40001
1.40001
1.40001
1.40001
1.40001
1.40001
1.40001
1.40001
1.40001
1.40001
1.40001
1.40001
1.40001
1.40001
1.40001
1.40001
1.40001
1.40001
1.40001
1.40001
1.40001
1.40001
1.40001
1.40001
1.40001
1.40001
1.40001
1.40001
1.40001
1.40001
1.40001
1.40001
1.40001
1.40001
1.40001
1.40001
1.40001
1.40001
1.40001
1.40001
1.40001
1.40001
1.40001
1.40001
1.40001
1.40001
1.40001
1.40001
1.40001
1.40001
1.40001
1.40001
1.40001
1.40001
1.40001
1.40001
1.40001
1.40001
1.40001
1.40001
1.40001
1.40001
1.40001
1.40001
1.40001
1.40001
1.40001
1.40001
1.40001
1.40001
1.40001
1.40001
1.40001
1.40001
1.40001
1.40001
1.40001
1.40001
1.40001
1.40001
1.40001
1.40001
1.40001
1.40001
1.40001
1.40001
1.40001
1.40001
1.40001
1.40001
1.40001
1.40001
1.40001
1.40001
1.40001
1.40001
1.40001
1.40001
1.40001
1.40001
1.40001
1.40001
1.40001
1.40001
1.40001
1.40001
1.40001
1.40001
1.40001
1.40001
1.40001
1.40001
1.40001
1.40001
1.40001
1.40001
1.40001
1.40001
1.40001
1.40001
1.40001
1.40001
1.40001
1.40001
1.40001
1.40001
1.40001
1.40001
1.40001
1.40001
1.40001
1.40001
1.40001
1.40001
1.40001
1.40001
1.40001
1.40001
1.40001
1.40001
1.40001
1.40001
1.40001
1.40001
1.40001
1.40001
1.40001
1.40001
1.40001
1.40001
1.40001
1.40001
1.40001
1.40001
1.40001
1.40001
1.40001
1.40001
1.40001
1.40001
1.40001
1.40001
1.40001
1.40001
1.40001
1.40001
1.40001
1.40001
1.40001
1.40001
1.40001
1.40001
1.40001
1.40001
1.40001
1.40001
1.40001
1.40001
1.40001
1.40001
1.40001
1.40001
1.40001
1.40001
1.40001
1.40001
1.40001
1.40001
1.40001
1.40001
1.40001
1.40001
1.40001
1.40001
1.40001
1.40001
1.40001
1.40001
1.40001
1.40001
1.40001
1.40001
1.40001
1.40001
1.40001
1.40001
1.40001
1.40001
1.40001
1.40001
1.40001
1.40001
1.40001
1.40001
1.40001
1.40001
1.40001
1.40001
1.40001
1.40001
1.40001
1.40001
1.40001
1.40001
1.40001
1.40001
1.40001
1.40001
1.40001
1.40001
1.40001
1.40001
1.40001
1.40001
1.40001
1.40001
1.40001
1.40001
1.40001
1.40001
1.40001
1.40001
1.40001
1.40001
1.40001
1.40001
1.40001
1.40001
1.40001
1.40001
1.40001
1.40001
1.40001
1.40001
1.40001
1.40001
1.40001
1.40001
1.40001
1.40001
1.40001
1.40001
1.40001
1.40001
1.40001
1.40001
1.40001
1.40001
1.40001
1.40001
1.40001
1.40001
1.40001
1.40001
1.40001
1.40001
1.40001
1.40001
1.40001
1.40001
1.40001
1.40001
1.40001
1.40001
1.40001
1.40001
1.40001
1.40001
1.40001
1.40001
1.40001
1.40001
1.40001
1.40001
1.40001
1.40001
1.40001
1.40001
1.40001
1.40001
1.40001
1.40001
1.40001
1.40001
1.40001
1.40001
1.40001
1.40001
1.40001
1.40001
1.40001
1.40001
1.40001
1.40001
1.40001
1.40001
1.40001
1.40001
1.40001
1.40001
1.40001
1.40001
1.40001
1.40001
1.40001
1.40001
1.40001
1.40001
1.40001
1.40001
1.40001
1.40001
1.40001
1.40001
1.40001
1.40001
1.40001
1.40001
1.40001
1.40001
1.40001
1.40001
1.40001
1.40001
1.40001
1.40001
1.40001
1.40001
1.40001
1.40001
1.40001
1.40001
1.40001
1.40001
1.40001
1.40001
1.40001
1.40001
1.40001
1.40001
1.40001
1.40001
1.40001
1.40001
1.40001
1.40001
1.40001
1.40001
1.40001
1.40001
1.40001
1.40001
1.40001
1.40001
1.40001
1.40001
1.40001
1.40001
1.40001
1.40001
1.40001
1.40001
1.40001
1.40001
1.40001
1.40001
1.40001
1.40001
1.40001
1.40001
1.40001
1.40001
1.40001
1.40001
1.40001
1.40001
1.40001
1.40001
1.40001
1.40001
1.40001
1.40001
1.40001
1.40001
1.40001
1.40001
1.40001
1.40001
1.40001
1.40001
1.40001
1.40001
1.40001
1.40001
1.40001
1.40001
1.40001
1.40001
1.40001
1.40001
1.40001
1.40001
1.40001
1.40001
1.40001
1.40001
1.40001
1.40001
1.40001
1.40001
1.40001
1.40001
1.40001
1.40001
1.40001
1.40001
1.40001
1.40001
1.40001
1.40001
1.40001
1.40001
1.40001
1.40001
1.40001
1.40001
1.40001
1.40001
1.40001
1.40001
1.40001
1.40001
1.40001
1.40001
1.40001
1.40001
1.40001
1.40001
1.40001
1.40001
1.40001
1.40001
1.40001
1.40001
1.40001
1.40001
1.40001
1.40001
1.40001
1.40001
1.40001
1.40001
1.40001
1.40001
1.40001
1.40001
1.40001
1.40001
1.40001
1.40001
1.40001
1.40001
1.40001
1.40001
1.40001
1.40001
1.40001
1.40001
1.40001
1.40001
1.40001
1.40001
1.40001
1.40001
1.40001
1.40001
1.40001
1.40001
1.40001
1.40001
1.40001
1.40001
1.40001
1.40001
1.40001
1.40001
1.40001
1.40001
1.40001
1.40001
1.40001
1.40001
1.40001
1.40001
1.40001
1.40001
1.40001
1.40001
1.40001
1.40001
1.40001
1.40001
1.40001
1.40001
1.40001
1.40001
1.40001
1.40001
1.40001
1.40001
1.40001
1.40001
1.40001
1.40001
1.40001
1.40001
1.40001
1.40001
1.40001
1.40001
1.40001
1.40001
1.40001
1.40001
1.40001
1.40001
1.40001
1.40001
1.40001
1.40001
1.40001
1.40001
1.40001
1.40001
1.40001
1.40001
1.40001
1.40001
1.40001
1.40001
1.40001
1.40001
1.40001
1.40001
1.40001
1.40001
1.40001
1.40001
1.40001
1.40001
1.40001
1.40001
1.40001
1.40001
1.40001
1.40001
1.40001
1.40001
1.40001
1.40001
1.40001
1.40001
1.40001
1.40001
1.40001
1.40001
1.40001
1.40001
1.40001
1.40001
1.40001
1.40001
1.40001
1.40001
1.40001
1.40001
1.40001
1.40001
1.40001
1.40001
1.40001
1.40001
1.40001
1.40001
1.40001
1.40001
1.40001
1.40001
1.40001
1.40001
1.40001
1.40001
1.40001
1.40001
1.40001
1.40001
1.40001
1.40001
1.40001
1.40001
1.40001
1.40001
1.40001
1.40001
1.40001
1.40001
1.40001
1.40001
1.40001
1.40001
1.40001
1.40001
1.40001
1.40001
1.40001
1.40001
1.40001
1.40001
1.40001
1.40001
1.40001
1.40001
1.40001
1.40001
1.40001
1.40001
1.40001
1.40001
1.40001
1.40001
1.40001
1.40001
1.40001
1.40001
1.40001
1.40001
1.40001
1.40001
1.40001
1.40001
1.40001
1.40001
1.40001
1.40001
1.40001
1.40001
1.40001
1.40001
1.40001
1.40001
1.40001
1.40001
1.40001
1.40001
1.40001
1.40001
1.40001
1.40001
1.40001
1.40001
1.40001
1.67685
2.08688
2.53649
2.99207
3.42753
3.82281
4.13225
4.41681
4.42823
4.30389
4.03648
3.71819
3.47124
3.38276
3.30628
3.28667
3.29801
3.28994
3.27348
3.26139
3.24389
3.2215
3.20467
3.19193
1.40286
1.4174
1.4747
1.58986
1.79916
2.10959
2.51303
2.97005
3.37225
3.54588
3.65165
3.61557
3.56319
3.498
3.42447
3.38435
3.33861
3.27802
3.24557
3.23153
3.21373
3.19564
3.18755
3.17833
1.40001
1.39996
1.40015
1.40028
1.40322
1.422
1.49559
1.71
2.18396
2.89945
3.41591
3.73239
3.77117
3.71973
3.6053
3.4624
3.34323
3.24385
3.20005
3.18782
3.17367
3.16539
3.16069
3.15285
1.40001
1.4
1.4
1.4
1.39999
1.40004
1.39992
1.40171
1.42801
1.64261
2.16203
2.95607
3.47681
3.54639
3.52756
3.49041
3.40428
3.2796
3.20682
3.16872
3.12789
3.10856
3.10942
3.1155
1.40001
1.40001
1.4
1.4
1.4
1.4
1.39999
1.39999
1.39992
1.40127
1.43606
1.67083
2.35136
2.98966
3.44465
3.50514
3.46426
3.36327
3.26746
3.18052
3.10605
3.07227
3.07055
3.07476
1.40001
1.40001
1.40001
1.40001
1.40001
1.4
1.4
1.4
1.4
1.4
1.39993
1.40245
1.47002
1.82279
2.49663
3.16238
3.3073
3.29574
3.27227
3.21236
3.12807
3.08524
3.08037
3.07957
1.40001
1.40001
1.40001
1.40001
1.40001
1.40001
1.40001
1.40001
1.40001
1.4
1.4
1.39998
1.40004
1.41052
1.52722
2.02137
2.70041
3.10696
3.26019
3.22562
3.15808
3.12618
3.10275
3.07998
1.40001
1.40001
1.40001
1.40001
1.40001
1.40001
1.40001
1.40001
1.40001
1.40001
1.4
1.4
1.4
1.39997
1.4009
1.42999
1.67698
2.16994
2.8102
3.04792
3.14011
3.13308
3.10511
3.088
1.40001
1.40001
1.40001
1.40001
1.40001
1.40001
1.40001
1.40001
1.40001
1.40001
1.40001
1.40001
1.4
1.4
1.4
1.4
1.40594
1.4693
1.76186
2.30648
2.8138
3.04489
3.04641
3.08434
1.40001
1.40001
1.40001
1.40001
1.40001
1.40001
1.40001
1.40001
1.40001
1.40001
1.40001
1.40001
1.40001
1.4
1.4
1.4
1.39999
1.40033
1.41228
1.53174
1.85584
2.39176
2.75752
3.026
1.40001
1.40001
1.40001
1.40001
1.40001
1.40001
1.40001
1.40001
1.40001
1.40001
1.40001
1.40001
1.40001
1.40001
1.40001
1.4
1.4
1.4
1.39999
1.4018
1.42532
1.57094
1.9458
2.37667
1.40001
1.40001
1.40001
1.40001
1.40001
1.40001
1.40001
1.40001
1.40001
1.40001
1.40001
1.40001
1.40001
1.40001
1.40001
1.40001
1.4
1.4
1.4
1.4
1.40006
1.4034
1.44811
1.56622
1.40001
1.40001
1.40001
1.40001
1.40001
1.40001
1.40001
1.40001
1.40001
1.40001
1.40001
1.40001
1.40001
1.40001
1.40001
1.40001
1.40001
1.40001
1.4
1.4
1.4
1.4
1.40086
1.40105
1.40001
1.40001
1.40001
1.40001
1.40001
1.40001
1.40001
1.40001
1.40001
1.40001
1.40001
1.40001
1.40001
1.40001
1.40001
1.40001
1.40001
1.40001
1.40001
1.40001
1.4
1.4
1.40001
1.39993
1.40001
1.40001
1.40001
1.40001
1.40001
1.40001
1.40001
1.40001
1.40001
1.40001
1.40001
1.40001
1.40001
1.40001
1.40001
1.40001
1.40001
1.40001
1.40001
1.40001
1.40001
1.4
1.4
1.39997
1.40001
1.40001
1.40001
1.40001
1.40001
1.40001
1.40001
1.40001
1.40001
1.40001
1.40001
1.40001
1.40001
1.40001
1.40001
1.40001
1.40001
1.40001
1.40001
1.40001
1.40001
1.40001
1.40001
1.4
1.40001
1.40001
1.40001
1.40001
1.40001
1.40001
1.40001
1.40001
1.40001
1.40001
1.40001
1.40001
1.40001
1.40001
1.40001
1.40001
1.40001
1.40001
1.40001
1.40001
1.40001
1.40001
1.40001
1.4
1.40001
1.40001
1.40001
1.40001
1.40001
1.40001
1.40001
1.40001
1.40001
1.40001
1.40001
1.40001
1.40001
1.40001
1.40001
1.40001
1.40001
1.40001
1.40001
1.40001
1.40001
1.4
1.4
1.39997
1.40001
1.40001
1.40001
1.40001
1.40001
1.40001
1.40001
1.40001
1.40001
1.40001
1.40001
1.40001
1.40001
1.40001
1.40001
1.40001
1.40001
1.40001
1.40001
1.40001
1.4
1.4
1.40001
1.39993
1.40001
1.40001
1.40001
1.40001
1.40001
1.40001
1.40001
1.40001
1.40001
1.40001
1.40001
1.40001
1.40001
1.40001
1.40001
1.40001
1.40001
1.40001
1.4
1.4
1.4
1.4
1.40086
1.40105
1.40001
1.40001
1.40001
1.40001
1.40001
1.40001
1.40001
1.40001
1.40001
1.40001
1.40001
1.40001
1.40001
1.40001
1.40001
1.40001
1.4
1.4
1.4
1.4
1.40006
1.4034
1.44811
1.56622
1.40001
1.40001
1.40001
1.40001
1.40001
1.40001
1.40001
1.40001
1.40001
1.40001
1.40001
1.40001
1.40001
1.40001
1.40001
1.4
1.4
1.4
1.39999
1.4018
1.42532
1.57094
1.9458
2.37667
1.40001
1.40001
1.40001
1.40001
1.40001
1.40001
1.40001
1.40001
1.40001
1.40001
1.40001
1.40001
1.40001
1.4
1.4
1.4
1.39999
1.40033
1.41228
1.53174
1.85584
2.39176
2.75752
3.026
1.40001
1.40001
1.40001
1.40001
1.40001
1.40001
1.40001
1.40001
1.40001
1.40001
1.40001
1.40001
1.4
1.4
1.4
1.4
1.40594
1.4693
1.76186
2.30648
2.8138
3.04489
3.04641
3.08434
1.40001
1.40001
1.40001
1.40001
1.40001
1.40001
1.40001
1.40001
1.40001
1.40001
1.4
1.4
1.4
1.39997
1.4009
1.42999
1.67698
2.16994
2.8102
3.04792
3.14011
3.13308
3.10511
3.088
1.40001
1.40001
1.40001
1.40001
1.40001
1.40001
1.40001
1.40001
1.40001
1.4
1.4
1.39998
1.40004
1.41052
1.52722
2.02137
2.70041
3.10696
3.26019
3.22562
3.15808
3.12618
3.10275
3.07998
1.40001
1.40001
1.40001
1.40001
1.40001
1.4
1.4
1.4
1.4
1.4
1.39993
1.40245
1.47002
1.82279
2.49663
3.16238
3.3073
3.29574
3.27227
3.21236
3.12807
3.08524
3.08037
3.07957
1.40001
1.40001
1.4
1.4
1.4
1.4
1.39999
1.39999
1.39992
1.40127
1.43606
1.67083
2.35136
2.98966
3.44465
3.50514
3.46426
3.36327
3.26746
3.18052
3.10605
3.07227
3.07055
3.07476
1.40001
1.4
1.4
1.4
1.39999
1.40004
1.39992
1.40171
1.42801
1.64261
2.16203
2.95607
3.47681
3.54639
3.52756
3.49041
3.40428
3.2796
3.20682
3.16872
3.12789
3.10856
3.10942
3.1155
1.40001
1.39996
1.40015
1.40028
1.40322
1.422
1.49559
1.71
2.18396
2.89945
3.41591
3.73239
3.77117
3.71973
3.6053
3.4624
3.34323
3.24385
3.20005
3.18782
3.17367
3.16539
3.16069
3.15285
1.40286
1.4174
1.4747
1.58986
1.79916
2.10959
2.51303
2.97005
3.37225
3.54588
3.65165
3.61557
3.56319
3.498
3.42447
3.38435
3.33861
3.27802
3.24557
3.23153
3.21373
3.19564
3.18755
3.17833
1.67685
2.08688
2.53649
2.99207
3.42753
3.82281
4.13225
4.41681
4.42823
4.30389
4.03648
3.71819
3.47124
3.38276
3.30628
3.28667
3.29801
3.28994
3.27348
3.26139
3.24389
3.2215
3.20467
3.19193
2.48238
1.79561
1.36478
1.04116
0.792165
0.769957
0.834327
0.888409
0.877315
0.89034
0.9519
1.02159
1.03579
1.0466
1.08566
1.11374
1.11174
1.09923
1.09559
1.10255
1.12861
1.14938
1.15092
1.14684
1.12179
1.08083
1.07007
1.07241
1.08317
1.10221
1.12594
1.15044
1.17255
1.19539
1.2289
1.27568
1.31422
1.33265
1.33923
1.3417
1.34509
1.3508
1.36016
1.38693
1.42097
1.42736
1.42811
1.42498
1.42336
1.42503
1.43508
1.45736
1.47592
1.47938
1.47993
1.48044
1.48086
1.48107
1.48038
1.47598
1.46253
1.4328
1.40569
1.40014
1.40001
1.4
1.4
1.4
1.40001
1.40001
1.40001
1.40001
1.40001
1.40001
1.40001
1.40001
1.40001
1.40001
1.40001
1.40001
1.40001
1.40001
1.40001
1.40001
1.40001
1.40001
1.40001
1.40001
1.40001
1.40001
1.40001
1.40001
1.40001
1.40001
1.40001
1.40001
2.94556
2.52923
2.14548
1.89126
1.59178
1.34762
1.30492
1.26006
1.15973
1.09131
1.07868
1.05267
1.01328
1.00797
1.02207
1.04633
1.05053
1.05115
1.05729
1.07642
1.10219
1.11857
1.12177
1.11979
1.10676
1.08674
1.08033
1.08165
1.09234
1.11198
1.13315
1.15374
1.17805
1.20832
1.24584
1.28714
1.31597
1.33086
1.3387
1.34418
1.34841
1.3531
1.36295
1.38652
1.41757
1.42519
1.42574
1.42481
1.42625
1.43099
1.44189
1.46088
1.47697
1.4804
1.48104
1.48159
1.48197
1.48212
1.48152
1.4774
1.46247
1.43033
1.4045
1.40009
1.40001
1.4
1.4
1.4
1.40001
1.40001
1.40001
1.40001
1.40001
1.40001
1.40001
1.40001
1.40001
1.40001
1.40001
1.40001
1.40001
1.40001
1.40001
1.40001
1.40001
1.40001
1.40001
1.40001
1.40001
1.40001
1.40001
1.40001
1.40001
1.40001
1.40001
1.40001
3.1048
2.93078
2.61564
2.30953
2.05772
1.75999
1.52488
1.43712
1.34005
1.17741
1.11533
1.09895
1.05727
1.02705
1.03004
1.0475
1.06807
1.0643
1.06346
1.06937
1.08305
1.09386
1.10184
1.1066
1.10499
1.09558
1.09211
1.09573
1.1091
1.12876
1.14898
1.1686
1.19419
1.23073
1.26932
1.29628
1.31269
1.32895
1.343
1.35158
1.35739
1.36433
1.37794
1.40295
1.41979
1.4226
1.42213
1.4223
1.42583
1.43564
1.4492
1.46551
1.47727
1.47966
1.48035
1.48115
1.48194
1.48248
1.48262
1.47922
1.46147
1.4261
1.40293
1.40004
1.40001
1.4
1.4
1.4
1.40001
1.40001
1.40001
1.40001
1.40001
1.40001
1.40001
1.40001
1.40001
1.40001
1.40001
1.40001
1.40001
1.40001
1.40001
1.40001
1.40001
1.40001
1.40001
1.40001
1.40001
1.40001
1.40001
1.40001
1.40001
1.40001
1.40001
1.40001
3.10454
3.05876
2.9122
2.65309
2.41818
2.17657
1.85139
1.69269
1.62822
1.47908
1.30111
1.27945
1.24955
1.15042
1.09876
1.10261
1.09692
1.07596
1.053
1.04523
1.04587
1.04791
1.05249
1.06423
1.08124
1.08672
1.09294
1.10077
1.11152
1.12801
1.14745
1.16959
1.196
1.23088
1.26892
1.28974
1.30464
1.32638
1.35137
1.36471
1.37142
1.37968
1.3959
1.41846
1.42557
1.4266
1.42582
1.42452
1.42618
1.43567
1.45203
1.47102
1.48128
1.48309
1.4839
1.48454
1.48492
1.48507
1.48379
1.47656
1.45505
1.41941
1.40153
1.40002
1.4
1.4
1.4
1.4
1.40001
1.40001
1.40001
1.40001
1.40001
1.40001
1.40001
1.40001
1.40001
1.40001
1.40001
1.40001
1.40001
1.40001
1.40001
1.40001
1.40001
1.40001
1.40001
1.40001
1.40001
1.40001
1.40001
1.40001
1.40001
1.40001
1.40001
1.40001
3.09086
3.08156
3.03494
2.90225
2.69344
2.49891
2.24423
1.9474
1.85096
1.75411
1.56137
1.43118
1.37947
1.28697
1.18463
1.15905
1.13835
1.09589
1.05219
1.05069
1.04532
1.04317
1.04659
1.05957
1.08423
1.09165
1.08853
1.08932
1.09389
1.10531
1.12788
1.15674
1.18275
1.2118
1.24994
1.27773
1.30296
1.33266
1.36481
1.38106
1.38898
1.3994
1.41147
1.41969
1.42298
1.42393
1.42501
1.42671
1.43159
1.44172
1.45617
1.47399
1.48456
1.48675
1.48781
1.48866
1.48916
1.48908
1.48639
1.47578
1.4471
1.41173
1.40051
1.40001
1.4
1.4
1.4
1.40001
1.40001
1.40001
1.40001
1.40001
1.40001
1.40001
1.40001
1.40001
1.40001
1.40001
1.40001
1.40001
1.40001
1.40001
1.40001
1.40001
1.40001
1.40001
1.40001
1.40001
1.40001
1.40001
1.40001
1.40001
1.40001
1.40001
1.40001
1.40001
3.08565
3.08481
3.0693
3.01863
2.89519
2.723
2.54769
2.2909
2.08155
1.96978
1.81764
1.65849
1.57164
1.47921
1.33243
1.2871
1.27767
1.2364
1.15311
1.12725
1.10738
1.07897
1.07181
1.07269
1.07692
1.07335
1.06884
1.0683
1.06871
1.07448
1.09587
1.13287
1.16385
1.18301
1.21405
1.25741
1.28711
1.32467
1.37242
1.39217
1.39709
1.40329
1.41215
1.41442
1.41469
1.41655
1.41974
1.42823
1.44319
1.45759
1.46873
1.47833
1.48586
1.48855
1.48969
1.49079
1.49157
1.4919
1.48985
1.47381
1.43583
1.40512
1.40009
1.40001
1.4
1.4
1.4
1.40001
1.40001
1.40001
1.40001
1.40001
1.40001
1.40001
1.40001
1.40001
1.40001
1.40001
1.40001
1.40001
1.40001
1.40001
1.40001
1.40001
1.40001
1.40001
1.40001
1.40001
1.40001
1.40001
1.40001
1.40001
1.40001
1.40001
1.40001
1.40001
3.07776
3.07669
3.06653
3.04304
2.98778
2.8788
2.74972
2.56922
2.34517
2.19627
2.03851
1.85313
1.76101
1.68803
1.52649
1.40051
1.38273
1.35363
1.2784
1.21376
1.17082
1.11675
1.07375
1.07083
1.0746
1.06843
1.06364
1.06522
1.06659
1.07112
1.08804
1.11605
1.13464
1.14506
1.16245
1.20019
1.24918
1.29779
1.35715
1.38961
1.39726
1.40346
1.40521
1.40328
1.40412
1.40718
1.4146
1.43149
1.45246
1.46708
1.47714
1.48691
1.49487
1.49694
1.49759
1.49796
1.49789
1.49585
1.48718
1.46185
1.42026
1.40133
1.40001
1.4
1.4
1.4
1.4
1.40001
1.40001
1.40001
1.40001
1.40001
1.40001
1.40001
1.40001
1.40001
1.40001
1.40001
1.40001
1.40001
1.40001
1.40001
1.40001
1.40001
1.40001
1.40001
1.40001
1.40001
1.40001
1.40001
1.40001
1.40001
1.40001
1.40001
1.40001
1.40001
3.08353
3.08357
3.07291
3.05577
3.03141
2.97958
2.89821
2.77396
2.57991
2.4235
2.27973
2.06904
1.936
1.86684
1.74536
1.59001
1.53347
1.48948
1.39846
1.32612
1.29714
1.25391
1.16694
1.14265
1.1411
1.12474
1.09915
1.08992
1.09047
1.09359
1.1015
1.11791
1.12396
1.12756
1.13552
1.15672
1.19891
1.26012
1.33029
1.37521
1.38424
1.38547
1.38546
1.38886
1.39516
1.40896
1.42898
1.45182
1.46646
1.47308
1.47917
1.49
1.50112
1.50427
1.50564
1.50653
1.5064
1.50237
1.48394
1.44231
1.40655
1.40013
1.40001
1.4
1.4
1.4
1.40001
1.40001
1.40001
1.40001
1.40001
1.40001
1.40001
1.40001
1.40001
1.40001
1.40001
1.40001
1.40001
1.40001
1.40001
1.40001
1.40001
1.40001
1.40001
1.40001
1.40001
1.40001
1.40001
1.40001
1.40001
1.40001
1.40001
1.40001
1.40001
1.40001
3.10443
3.10788
3.09597
3.0901
3.08441
3.06173
3.00604
2.91396
2.76013
2.60343
2.48171
2.30804
2.13214
2.03486
1.92895
1.76929
1.69409
1.64966
1.55341
1.42821
1.40047
1.37096
1.29266
1.24677
1.22965
1.19505
1.13562
1.11229
1.1127
1.11953
1.12411
1.12674
1.13066
1.13297
1.13925
1.15383
1.17868
1.2223
1.28325
1.32663
1.34881
1.35979
1.36823
1.38066
1.39738
1.42084
1.45079
1.47495
1.48577
1.49087
1.49596
1.503
1.50809
1.50952
1.51057
1.51148
1.51152
1.50302
1.46845
1.41833
1.40083
1.40001
1.4
1.4
1.4
1.4
1.40001
1.40001
1.40001
1.40001
1.40001
1.40001
1.40001
1.40001
1.40001
1.40001
1.40001
1.40001
1.40001
1.40001
1.40001
1.40001
1.40001
1.40001
1.40001
1.40001
1.40001
1.40001
1.40001
1.40001
1.40001
1.40001
1.40001
1.40001
1.40001
1.40001
3.10297
3.07565
3.06663
3.07733
3.08677
3.0881
3.06074
3.00252
2.90729
2.77003
2.64051
2.50919
2.33453
2.20201
2.10465
1.96189
1.84334
1.78166
1.69667
1.5819
1.52874
1.49168
1.40723
1.33249
1.32197
1.29511
1.23019
1.17996
1.17623
1.18082
1.17668
1.17416
1.17741
1.17827
1.18432
1.1936
1.21042
1.23782
1.26529
1.29127
1.31443
1.33644
1.35687
1.37614
1.40124
1.4337
1.46547
1.48365
1.49173
1.49789
1.50534
1.51595
1.52278
1.52424
1.52484
1.52505
1.51988
1.49103
1.43463
1.40291
1.40002
1.4
1.4
1.4
1.4
1.40001
1.40001
1.40001
1.40001
1.40001
1.40001
1.40001
1.40001
1.40001
1.40001
1.40001
1.40001
1.40001
1.40001
1.40001
1.40001
1.40001
1.40001
1.40001
1.40001
1.40001
1.40001
1.40001
1.40001
1.40001
1.40001
1.40001
1.40001
1.40001
1.40001
1.40001
2.81551
2.98622
3.1121
3.12188
3.09038
3.06145
3.06011
3.05332
3.0076
2.91762
2.78786
2.66165
2.52864
2.37999
2.2612
2.13497
2.01305
1.93048
1.83911
1.70495
1.64603
1.61763
1.5532
1.45865
1.43575
1.42436
1.37767
1.34279
1.34917
1.37734
1.37828
1.35475
1.34037
1.34222
1.34099
1.33487
1.3307
1.32543
1.31436
1.31612
1.32711
1.34374
1.37036
1.40438
1.44129
1.47778
1.49674
1.49928
1.50003
1.50205
1.50665
1.51893
1.53636
1.54233
1.54398
1.54173
1.51438
1.45026
1.40559
1.40006
1.4
1.4
1.4
1.4
1.40001
1.40001
1.40001
1.40001
1.40001
1.40001
1.40001
1.40001
1.40001
1.40001
1.40001
1.40001
1.40001
1.40001
1.40001
1.40001
1.40001
1.40001
1.40001
1.40001
1.40001
1.40001
1.40001
1.40001
1.40001
1.40001
1.40001
1.40001
1.40001
1.40001
1.40001
1.40001
2.01201
2.4832
2.8543
3.04494
3.06745
3.08091
3.08163
3.08224
3.07193
3.02467
2.93022
2.79261
2.67164
2.54304
2.4101
2.29106
2.1603
2.06889
1.99273
1.87888
1.80782
1.82314
1.82339
1.78075
1.77769
1.84999
1.8678
1.83807
1.83725
1.87263
1.88686
1.85965
1.82226
1.80014
1.78129
1.75908
1.72973
1.68543
1.62728
1.57104
1.52783
1.49704
1.47834
1.47457
1.48443
1.50445
1.51633
1.51929
1.52158
1.52542
1.53459
1.55482
1.57086
1.57364
1.56941
1.53455
1.46031
1.40719
1.40009
1.40001
1.4
1.4
1.4
1.40001
1.40001
1.40001
1.40001
1.40001
1.40001
1.40001
1.40001
1.40001
1.40001
1.40001
1.40001
1.40001
1.40001
1.40001
1.40001
1.40001
1.40001
1.40001
1.40001
1.40001
1.40001
1.40001
1.40001
1.40001
1.40001
1.40001
1.40001
1.40001
1.40001
1.40001
1.40001
1.40001
1.46761
1.71516
2.13486
2.53672
2.86989
3.05913
3.05604
3.06486
3.06599
3.0668
3.02512
2.92922
2.81209
2.69863
2.56291
2.46804
2.38403
2.32085
2.35308
2.38177
2.40429
2.54358
2.66307
2.6308
2.6128
2.63596
2.6241
2.5702
2.5139
2.46844
2.41812
2.34912
2.27413
2.22086
2.18039
2.13645
2.08035
2.01246
1.94578
1.88962
1.83702
1.77755
1.70891
1.63872
1.57887
1.54043
1.52864
1.5308
1.53975
1.55781
1.58709
1.61037
1.6149
1.60137
1.54928
1.46076
1.40645
1.40008
1.4
1.4
1.4
1.4
1.40001
1.40001
1.40001
1.40001
1.40001
1.40001
1.40001
1.40001
1.40001
1.40001
1.40001
1.40001
1.40001
1.40001
1.40001
1.40001
1.40001
1.40001
1.40001
1.40001
1.40001
1.40001
1.40001
1.40001
1.40001
1.40001
1.40001
1.40001
1.40001
1.40001
1.40001
1.40001
1.40001
1.40001
1.40132
1.42065
1.50574
1.76927
2.17985
2.60839
2.85953
3.0501
3.07796
3.04141
3.03075
3.02322
2.99385
2.98085
3.00321
3.07365
3.1827
3.34922
3.52273
3.49791
3.50422
3.56441
3.54138
3.43438
3.32849
3.24018
3.15398
3.05327
2.94585
2.84723
2.75479
2.65657
2.56115
2.48222
2.41653
2.35265
2.28207
2.2124
2.16061
2.12638
2.09799
2.06685
2.02766
1.97628
1.90626
1.81299
1.71394
1.65303
1.64187
1.65352
1.66605
1.66039
1.62423
1.55103
1.45123
1.40419
1.40004
1.4
1.4
1.4
1.4
1.40001
1.40001
1.40001
1.40001
1.40001
1.40001
1.40001
1.40001
1.40001
1.40001
1.40001
1.40001
1.40001
1.40001
1.40001
1.40001
1.40001
1.40001
1.40001
1.40001
1.40001
1.40001
1.40001
1.40001
1.40001
1.40001
1.40001
1.40001
1.40001
1.40001
1.40001
1.40001
1.40001
1.40001
1.40001
1.39998
1.40019
1.40271
1.42795
1.53048
1.8157
2.22242
2.61986
2.91841
3.00628
3.17247
3.43515
3.75817
4.04979
4.29988
4.40013
4.40979
4.41054
4.34435
4.13733
3.98335
3.88483
3.76702
3.62926
3.48972
3.3693
3.25722
3.13375
3.01466
2.91521
2.82271
2.7228
2.62351
2.53753
2.46213
2.38642
2.31499
2.25735
2.22306
2.20464
2.19132
2.17949
2.16756
2.15305
2.13144
2.09696
2.04022
1.95468
1.84906
1.74901
1.68052
1.62516
1.53378
1.43427
1.40189
1.40001
1.4
1.4
1.4
1.4
1.40001
1.40001
1.40001
1.40001
1.40001
1.40001
1.40001
1.40001
1.40001
1.40001
1.40001
1.40001
1.40001
1.40001
1.40001
1.40001
1.40001
1.40001
1.40001
1.40001
1.40001
1.40001
1.40001
1.40001
1.40001
1.40001
1.40001
1.40001
1.40001
1.40001
1.40001
1.40001
1.40001
1.40001
1.40001
1.40001
1.4
1.4
1.40001
1.40034
1.40436
1.43532
1.57843
1.89662
2.4663
3.21522
3.87528
4.4435
4.87113
5.14209
5.28977
5.26657
5.16083
5.02799
4.8615
4.59807
4.3027
4.07421
3.87539
3.6632
3.46836
3.31513
3.17076
3.01642
2.87981
2.77738
2.68519
2.5839
2.48163
2.39657
2.33275
2.28144
2.25483
2.25012
2.25613
2.27364
2.29657
2.31982
2.33956
2.35085
2.35073
2.33279
2.28748
2.19966
2.05626
1.8632
1.64938
1.48584
1.41367
1.40051
1.40001
1.4
1.4
1.4
1.4
1.40001
1.40001
1.40001
1.40001
1.40001
1.40001
1.40001
1.40001
1.40001
1.40001
1.40001
1.40001
1.40001
1.40001
1.40001
1.40001
1.40001
1.40001
1.40001
1.40001
1.40001
1.40001
1.40001
1.40001
1.40001
1.40001
1.40001
1.40001
1.40001
1.40001
1.40001
1.40001
1.40001
1.40001
1.40001
1.40001
1.40001
1.4
1.4
1.40001
1.40034
1.40436
1.43532
1.57843
1.89662
2.4663
3.21522
3.87528
4.4435
4.87113
5.14209
5.28977
5.26657
5.16083
5.02799
4.8615
4.59807
4.3027
4.07421
3.87539
3.6632
3.46836
3.31513
3.17076
3.01642
2.87981
2.77738
2.68519
2.5839
2.48163
2.39657
2.33275
2.28144
2.25483
2.25012
2.25613
2.27364
2.29657
2.31982
2.33956
2.35085
2.35073
2.33279
2.28748
2.19966
2.05626
1.8632
1.64937
1.48583
1.41367
1.40051
1.40001
1.4
1.4
1.4
1.4
1.40001
1.40001
1.40001
1.40001
1.40001
1.40001
1.40001
1.40001
1.40001
1.40001
1.40001
1.40001
1.40001
1.40001
1.40001
1.40001
1.40001
1.40001
1.40001
1.40001
1.40001
1.40001
1.40001
1.40001
1.40001
1.40001
1.40001
1.40001
1.40001
1.40001
1.40001
1.40001
1.40001
1.40001
1.40001
1.40001
1.40001
1.39998
1.40019
1.40271
1.42795
1.53048
1.8157
2.22242
2.61986
2.91841
3.00628
3.17247
3.43515
3.75817
4.04979
4.29988
4.40013
4.40979
4.41054
4.34435
4.13733
3.98335
3.88483
3.76702
3.62926
3.48972
3.3693
3.25722
3.13375
3.01466
2.91521
2.82271
2.7228
2.62351
2.53753
2.46213
2.38642
2.31499
2.25735
2.22306
2.20464
2.19132
2.17949
2.16756
2.15305
2.13144
2.09696
2.04022
1.95468
1.84906
1.74901
1.68052
1.62516
1.53378
1.43427
1.40189
1.40001
1.4
1.4
1.4
1.4
1.40001
1.40001
1.40001
1.40001
1.40001
1.40001
1.40001
1.40001
1.40001
1.40001
1.40001
1.40001
1.40001
1.40001
1.40001
1.40001
1.40001
1.40001
1.40001
1.40001
1.40001
1.40001
1.40001
1.40001
1.40001
1.40001
1.40001
1.40001
1.40001
1.40001
1.40001
1.40001
1.40001
1.40001
1.40001
1.40001
1.40132
1.42065
1.50574
1.76927
2.17985
2.60839
2.85953
3.0501
3.07796
3.04141
3.03075
3.02322
2.99385
2.98085
3.00321
3.07365
3.1827
3.34922
3.52273
3.49791
3.50422
3.56441
3.54138
3.43438
3.32849
3.24018
3.15398
3.05327
2.94585
2.84723
2.75479
2.65657
2.56115
2.48222
2.41653
2.35265
2.28207
2.2124
2.16061
2.12638
2.09799
2.06685
2.02766
1.97628
1.90626
1.81299
1.71394
1.65303
1.64187
1.65352
1.66605
1.66039
1.62423
1.55103
1.45123
1.40419
1.40004
1.4
1.4
1.4
1.4
1.40001
1.40001
1.40001
1.40001
1.40001
1.40001
1.40001
1.40001
1.40001
1.40001
1.40001
1.40001
1.40001
1.40001
1.40001
1.40001
1.40001
1.40001
1.40001
1.40001
1.40001
1.40001
1.40001
1.40001
1.40001
1.40001
1.40001
1.40001
1.40001
1.40001
1.40001
1.40001
1.40001
1.40001
1.40001
1.46761
1.71516
2.13486
2.53672
2.86989
3.05913
3.05604
3.06486
3.06599
3.0668
3.02512
2.92922
2.81209
2.69863
2.56291
2.46804
2.38403
2.32085
2.35308
2.38177
2.40429
2.54358
2.66307
2.6308
2.6128
2.63596
2.6241
2.5702
2.5139
2.46844
2.41812
2.34912
2.27413
2.22086
2.18039
2.13645
2.08035
2.01246
1.94578
1.88962
1.83702
1.77755
1.70891
1.63872
1.57887
1.54043
1.52864
1.5308
1.53975
1.55781
1.58709
1.61037
1.6149
1.60137
1.54928
1.46076
1.40645
1.40008
1.4
1.4
1.4
1.4
1.40001
1.40001
1.40001
1.40001
1.40001
1.40001
1.40001
1.40001
1.40001
1.40001
1.40001
1.40001
1.40001
1.40001
1.40001
1.40001
1.40001
1.40001
1.40001
1.40001
1.40001
1.40001
1.40001
1.40001
1.40001
1.40001
1.40001
1.40001
1.40001
1.40001
1.40001
1.40001
1.40001
1.40001
2.01201
2.4832
2.8543
3.04494
3.06745
3.08091
3.08163
3.08224
3.07193
3.02467
2.93022
2.79261
2.67164
2.54304
2.4101
2.29106
2.1603
2.06889
1.99273
1.87888
1.80782
1.82314
1.82339
1.78075
1.77769
1.84999
1.8678
1.83807
1.83725
1.87263
1.88686
1.85965
1.82226
1.80014
1.78129
1.75908
1.72973
1.68543
1.62728
1.57104
1.52783
1.49704
1.47834
1.47457
1.48443
1.50445
1.51633
1.51929
1.52158
1.52542
1.53459
1.55482
1.57086
1.57364
1.56941
1.53455
1.46031
1.40719
1.40009
1.40001
1.4
1.4
1.4
1.40001
1.40001
1.40001
1.40001
1.40001
1.40001
1.40001
1.40001
1.40001
1.40001
1.40001
1.40001
1.40001
1.40001
1.40001
1.40001
1.40001
1.40001
1.40001
1.40001
1.40001
1.40001
1.40001
1.40001
1.40001
1.40001
1.40001
1.40001
1.40001
1.40001
1.40001
1.40001
1.40001
2.81551
2.98622
3.1121
3.12188
3.09038
3.06145
3.06011
3.05332
3.0076
2.91762
2.78786
2.66165
2.52864
2.37999
2.2612
2.13497
2.01305
1.93048
1.83911
1.70495
1.64603
1.61763
1.5532
1.45865
1.43575
1.42436
1.37767
1.34279
1.34917
1.37734
1.37828
1.35475
1.34037
1.34222
1.34099
1.33487
1.3307
1.32543
1.31436
1.31612
1.32711
1.34374
1.37036
1.40438
1.44129
1.47778
1.49674
1.49928
1.50003
1.50205
1.50665
1.51893
1.53636
1.54233
1.54398
1.54173
1.51438
1.45026
1.40559
1.40006
1.4
1.4
1.4
1.4
1.40001
1.40001
1.40001
1.40001
1.40001
1.40001
1.40001
1.40001
1.40001
1.40001
1.40001
1.40001
1.40001
1.40001
1.40001
1.40001
1.40001
1.40001
1.40001
1.40001
1.40001
1.40001
1.40001
1.40001
1.40001
1.40001
1.40001
1.40001
1.40001
1.40001
1.40001
1.40001
3.10297
3.07565
3.06663
3.07733
3.08677
3.0881
3.06074
3.00252
2.90729
2.77003
2.64051
2.50919
2.33453
2.20201
2.10465
1.96189
1.84334
1.78166
1.69667
1.5819
1.52874
1.49168
1.40723
1.33249
1.32197
1.29511
1.23019
1.17996
1.17623
1.18082
1.17668
1.17416
1.17741
1.17827
1.18432
1.1936
1.21042
1.23782
1.26529
1.29127
1.31443
1.33644
1.35687
1.37614
1.40124
1.4337
1.46547
1.48365
1.49173
1.49789
1.50534
1.51595
1.52278
1.52424
1.52484
1.52505
1.51988
1.49103
1.43463
1.40291
1.40002
1.4
1.4
1.4
1.4
1.40001
1.40001
1.40001
1.40001
1.40001
1.40001
1.40001
1.40001
1.40001
1.40001
1.40001
1.40001
1.40001
1.40001
1.40001
1.40001
1.40001
1.40001
1.40001
1.40001
1.40001
1.40001
1.40001
1.40001
1.40001
1.40001
1.40001
1.40001
1.40001
1.40001
1.40001
3.10443
3.10788
3.09597
3.0901
3.08441
3.06173
3.00604
2.91396
2.76013
2.60343
2.48171
2.30804
2.13214
2.03486
1.92895
1.76929
1.69409
1.64966
1.55341
1.42821
1.40047
1.37096
1.29266
1.24677
1.22965
1.19505