/*--------------------------------*- C++ -*----------------------------------*\
  =========                 |
  \\      /  F ield         | OpenFOAM: The Open Source CFD Toolbox
   \\    /   O peration     | Website:  https://openfoam.org
    \\  /    A nd           | Version:  7
     \\/     M anipulation  |
\*---------------------------------------------------------------------------*/
FoamFile
{
    version     2.0;
    format      ascii;
    class       volScalarField;
    location    "0.3";
    object      T;
}
// * * * * * * * * * * * * * * * * * * * * * * * * * * * * * * * * * * * * * //

dimensions      [0 0 0 1 0 0 0];

internalField   nonuniform List<scalar> 
4608
(
1
1
1
1
1
1
1
1
1
1
1
1
1
1
1
1
1
1
1
1
1
1
1
1
1
1
1
1
1
1
1
1
1
1
1
1
1
1
1
1
1
1
1
1
1
1
1
1
1
1
1
1
1
1
1
1
1
1
1
1
1
1
1
1
1
1
1
1
1
1
1
1
1
1
1
1
1
1
1
1
1
1
1
1
1
1
1
1
1
1
1
1
1
1
1
1
1
1
1
1
1
1
1
1
1
1
1
1
1
1
1
1
1
1
1
1
1
1
1
1
1
1
1
1
1
1
1
1
1
1
1
1
1
1
1
1
1
1
1
1
1
1
1
1
1
1
1
1
1
1
1
1
1
1
1
1
1
1
1
1
1
1
1
1
1
1
1
1
1
1
1
1
1
1
1
1
1
1
1
1
1
1
1
1
1
1
1
1
1
1
1
1
1
1
1
1
1
1
1
1
1
1
1
1
1
1
1
1
1
1
1
1
1
1
1
1
1
1
1
1
1
1
1
1
1
1
1
1
1
1
1
1
1
1
1
1
1
1
1
1
1
1
1
1
1
1
1
1
1
1
1
1
1
1
1
1
1
1
1
1
1
1
1
1
1
1
1
1
1
1
1
1
1
1
1
1
1
1
1
1
1
1
1
1
1
1
1
1
1
1
1
1
1
1
1
1
1
1
1
1
1
1
1
1
1
1
1
1
1
1
1
1
1
1
1
1
1
1
1
1
1
1
1
1
1
1
1
1
1
1
1
1
1
1
1
1
1
1
1
1
1
1
1
1
1
1
1
1
1
1
1
1
1
1
1
1
1
1
1
1
1
1
1
1
1
1
1
1
1
1
1
1
1
1
1
1
1
1
1
1
1
1
1
1
1
1
1
1
1
1
1
1
1
1
1
1
1
1
1
1
1
1
1
1
1
1
1
1
1
1
1
1
1
1
1
1
1
1
1
1
1
1
1
1
1
1
1
1
1
1
1
1
1
1
1
1
1
1
1
1
1
1
1
1
1
1
1
1
1
1
1
1
1
1
1
1
1
1
1
1
1
1
1
1
1
1
1
1
1
1
1
1
1
1
1
1
1
1
1
1
1
1
1
1
1
1
1
1
1
1
1
1
1
1
1
1
1
1
1
1
1
1
1
1
1
1
1
1
1
1
1
1
1
1
1
1
1
1
1
1
1
1
1
1
1
1
1
1
1
1
1
1
1
1
1
1
1
1
1
1
1
1
1
1
1
1
1
1
1
1
1
1
1
1
1
1
1
1
1
1
1
1
1
1
1
1
1
1
1
1
1
1
1
1
1
1
1
1
1
1
1
1
1
1
1
1
1
1
1
1
1
1
1
1
1
1
1
1
1
1
1
1
1
1
1
1
1
1
1
1
1
1
1
1
1
1
1
1
1
1
1
1
1
1
1
1
1
1
1
1
1
1
1
1
1
1
1
1
1
1
1
1
1
1
1
1
1
1
1
1
1
1
1
1
1
1
1
1
1
1
1
1
1
1
1
1
1
1
1
1
1
1
1
1
1
1
1
1
1
1
1
1
1
1
1
1
1
1
1
1
1
1
1
1
1
1
1
1
1
1
1
1
1
1
1
1
1
1
1
1
1
1
1
1
1
1
1
1
1
1
1
1
1
1
1
1
1
1
1
1
1
1
1
1
1
1
1
1
1
1
1
1
1
1
1
1
1
1
1
1
1
1
1
1
1
1
1
1
1
1
1
1
1
1
1
1
1
1
1.0783
1.18188
1.2879
1.39078
1.48709
1.57124
1.63762
1.68389
1.69884
1.68217
1.63759
1.58558
1.54248
1.52739
1.51444
1.51237
1.51405
1.51251
1.50966
1.508
1.50544
1.50214
1.50007
1.49938
1.00095
1.00629
1.02872
1.07275
1.14479
1.23209
1.32256
1.40669
1.48155
1.51956
1.54653
1.56395
1.5617
1.55525
1.54336
1.53545
1.52654
1.51556
1.51027
1.50781
1.50441
1.50119
1.50012
1.50009
1
0.999983
1.00005
1.0001
1.00122
1.00834
1.03684
1.11673
1.26745
1.45308
1.56408
1.62389
1.62317
1.61234
1.59079
1.564
1.54197
1.52267
1.5135
1.51175
1.50929
1.50706
1.50452
1.50411
1
0.999999
0.999999
0.999999
0.999995
1.00001
0.999968
1.00066
1.01197
1.11047
1.30372
1.50229
1.61606
1.60767
1.59929
1.59301
1.57781
1.5525
1.53471
1.52632
1.51882
1.51422
1.50954
1.50944
1
1
1
1
1
1
0.999996
0.999997
0.999963
1.0005
1.01585
1.12313
1.36475
1.5214
1.6175
1.62185
1.61301
1.59006
1.56753
1.5478
1.53214
1.52358
1.51553
1.5132
1
1
1
1
1
1
1
1
0.999997
0.999998
0.999963
1.00095
1.03086
1.1828
1.39725
1.55922
1.58742
1.58203
1.57488
1.56227
1.54493
1.53272
1.52433
1.51833
1
1
1
1
1
1
1
1
1
1
0.999996
0.999995
0.999996
1.00412
1.05474
1.24716
1.44354
1.5376
1.56889
1.56159
1.54809
1.53849
1.52897
1.51916
1
1
1
1
1
1
1
1
1
1
1
0.999999
1
0.999987
1.00029
1.01198
1.11645
1.2855
1.45537
1.51118
1.5328
1.53071
1.52341
1.51629
1
1
1
1
1
1
1
1
1
1
1
1
1
0.999998
0.999998
0.999989
1.00215
1.02759
1.1428
1.31575
1.44542
1.49422
1.49524
1.50306
1
1
1
1
1
1
1
1
1
1
1
1
1
1
1
0.999999
0.999993
1.00009
1.00446
1.05213
1.17255
1.32711
1.41606
1.47264
1
1
1
1
1
1
1
1
1
1
1
1
1
1
1
1
0.999999
0.999999
0.999993
1.00059
1.00928
1.06613
1.19727
1.31053
1
1
1
1
1
1
1
1
1
1
1
1
1
1
1
1
1
1
0.999999
0.999999
1.00001
1.00117
1.01771
1.06289
1
1
1
1
1
1
1
1
1
1
1
1
1
1
1
1
1
1
1
1
1
0.999997
1.00027
1.00028
1
1
1
1
1
1
1
1
1
1
1
1
1
1
1
1
1
1
1
1
1
0.999999
1
0.999976
1
1
1
1
1
1
1
1
1
1
1
1
1
1
1
1
1
1
1
1
1
1
1
0.999991
1
1
1
1
1
1
1
1
1
1
1
1
1
1
1
1
1
1
1
1
1
1
1
1
1
1
1
1
1
1
1
1
1
1
1
1
1
1
1
1
1
1
1
1
1
1
1
1
1
1
1
1
1
1
1
1
1
1
1
1
1
1
1
1
1
1
1
1
1
1
1
0.999991
1
1
1
1
1
1
1
1
1
1
1
1
1
1
1
1
1
1
1
1
1
0.999999
1
0.999976
1
1
1
1
1
1
1
1
1
1
1
1
1
1
1
1
1
1
1
1
1
0.999997
1.00027
1.00028
1
1
1
1
1
1
1
1
1
1
1
1
1
1
1
1
1
1
0.999999
0.999999
1.00001
1.00117
1.01771
1.06289
1
1
1
1
1
1
1
1
1
1
1
1
1
1
1
1
0.999999
0.999999
0.999993
1.00059
1.00928
1.06613
1.19727
1.31053
1
1
1
1
1
1
1
1
1
1
1
1
1
1
1
0.999999
0.999993
1.00009
1.00446
1.05213
1.17255
1.32711
1.41606
1.47264
1
1
1
1
1
1
1
1
1
1
1
1
1
0.999998
0.999998
0.999989
1.00215
1.02759
1.1428
1.31575
1.44542
1.49422
1.49524
1.50306
1
1
1
1
1
1
1
1
1
1
1
0.999999
1
0.999987
1.00029
1.01198
1.11645
1.2855
1.45537
1.51118
1.5328
1.53071
1.52341
1.51629
1
1
1
1
1
1
1
1
1
1
0.999996
0.999995
0.999996
1.00412
1.05474
1.24716
1.44354
1.5376
1.56889
1.56159
1.54809
1.53849
1.52897
1.51916
1
1
1
1
1
1
1
1
0.999997
0.999998
0.999963
1.00095
1.03086
1.1828
1.39725
1.55922
1.58742
1.58203
1.57488
1.56227
1.54493
1.53272
1.52433
1.51833
1
1
1
1
1
1
0.999996
0.999997
0.999963
1.0005
1.01585
1.12313
1.36475
1.5214
1.6175
1.62185
1.61301
1.59006
1.56753
1.5478
1.53214
1.52358
1.51553
1.5132
1
0.999999
0.999999
0.999999
0.999995
1.00001
0.999968
1.00066
1.01197
1.11047
1.30372
1.50229
1.61606
1.60767
1.59929
1.59301
1.57781
1.5525
1.53471
1.52632
1.51882
1.51422
1.50954
1.50944
1
0.999983
1.00005
1.0001
1.00122
1.00834
1.03684
1.11673
1.26745
1.45308
1.56408
1.62389
1.62317
1.61234
1.59079
1.564
1.54197
1.52267
1.5135
1.51175
1.50929
1.50706
1.50452
1.50411
1.00095
1.00629
1.02872
1.07275
1.14479
1.23209
1.32256
1.40669
1.48155
1.51956
1.54653
1.56395
1.5617
1.55525
1.54336
1.53545
1.52654
1.51556
1.51027
1.50781
1.50441
1.50119
1.50012
1.50009
1.0783
1.18188
1.2879
1.39078
1.48709
1.57124
1.63762
1.68389
1.69884
1.68217
1.63759
1.58558
1.54248
1.52739
1.51444
1.51237
1.51405
1.51251
1.50966
1.508
1.50544
1.50214
1.50007
1.49938
1.36237
1.19842
1.07976
0.993515
0.909618
0.902279
0.947334
0.976176
0.968908
0.972365
0.9953
1.01877
1.01694
1.01647
1.02524
1.03707
1.03771
1.03577
1.03541
1.03658
1.04097
1.04518
1.04635
1.04603
1.04118
1.02987
1.0255
1.02601
1.02858
1.03301
1.03848
1.04373
1.04797
1.05253
1.06051
1.07379
1.0848
1.08699
1.08696
1.08631
1.08537
1.08368
1.07851
1.06797
1.04945
1.02466
1.00967
1.00434
1.00332
1.00343
1.00616
1.01446
1.02137
1.02249
1.02262
1.02273
1.02282
1.02287
1.02266
1.0214
1.01766
1.00941
1.00167
1.00004
1
1
1
1
1
1
1
1
1
1
1
1
1
1
1
1
1
1
1
1
1
1
1
1
1
1
1
1
1
1
1
1
1.45848
1.3741
1.28498
1.22442
1.14054
1.05314
1.05046
1.04306
1.00848
0.989426
0.989758
0.984009
0.973979
0.972505
0.976837
0.985571
0.99046
0.992981
0.997535
1.00556
1.01247
1.01687
1.02012
1.02164
1.02063
1.01773
1.01615
1.01649
1.01954
1.02504
1.03045
1.03507
1.04053
1.04809
1.05888
1.07321
1.08382
1.08543
1.08524
1.0848
1.0838
1.0812
1.07498
1.06267
1.0432
1.0207
1.00823
1.00461
1.0042
1.00453
1.00766
1.01546
1.0217
1.02278
1.02293
1.02305
1.02312
1.02315
1.02297
1.02179
1.01765
1.00872
1.00132
1.00002
1
1
1
1
1
1
1
1
1
1
1
1
1
1
1
1
1
1
1
1
1
1
1
1
1
1
1
1
1
1
1
1
1.49221
1.45724
1.39238
1.32444
1.26084
1.17968
1.11419
1.08687
1.05348
0.999316
0.979251
0.975025
0.961984
0.953141
0.954494
0.960996
0.971026
0.971341
0.972385
0.977235
0.983375
0.986862
0.989369
0.992808
0.99552
0.994852
0.995083
0.997261
1.00278
1.01003
1.01687
1.02282
1.03051
1.0421
1.05538
1.06822
1.07942
1.08377
1.08364
1.08294
1.08109
1.07665
1.06787
1.05357
1.03333
1.015
1.00614
1.00381
1.00363
1.00484
1.00948
1.01711
1.02188
1.0226
1.02275
1.02293
1.02312
1.02324
1.02327
1.0223
1.01739
1.00753
1.00086
1.00001
1
1
1
1
1
1
1
1
1
1
1
1
1
1
1
1
1
1
1
1
1
1
1
1
1
1
1
1
1
1
1
1
1.5046
1.49232
1.46009
1.40412
1.34998
1.29109
1.20785
1.16168
1.13866
1.09003
1.03477
1.02819
1.01819
0.9854
0.971062
0.973513
0.972047
0.966275
0.960996
0.961378
0.962016
0.963009
0.964656
0.968804
0.97474
0.977568
0.980694
0.984145
0.988741
0.995381
1.0027
1.01085
1.02124
1.03525
1.05078
1.06352
1.07635
1.08304
1.08337
1.08252
1.07868
1.07048
1.05816
1.04263
1.02511
1.01262
1.00628
1.00378
1.00331
1.00461
1.01043
1.01909
1.02308
1.02358
1.02376
1.02389
1.02395
1.02397
1.02359
1.02154
1.0156
1.00563
1.00045
1
1
1
1
1
1
1
1
1
1
1
1
1
1
1
1
1
1
1
1
1
1
1
1
1
1
1
1
1
1
1
1
1
1.51088
1.50632
1.49393
1.46397
1.41726
1.37156
1.311
1.23497
1.20455
1.17424
1.11989
1.08428
1.06804
1.03644
1.00109
0.99662
0.992414
0.980119
0.964795
0.965519
0.965586
0.966269
0.968152
0.971948
0.977451
0.978232
0.977198
0.977717
0.979999
0.98486
0.993477
1.00521
1.01751
1.03159
1.04891
1.06478
1.081
1.08593
1.08542
1.08361
1.07741
1.06555
1.04882
1.03093
1.01735
1.00934
1.00524
1.00358
1.00361
1.00588
1.01245
1.02058
1.02414
1.02465
1.02487
1.02504
1.02514
1.0251
1.02429
1.0213
1.01339
1.00343
1.00015
1
1
1
1
1
1
1
1
1
1
1
1
1
1
1
1
1
1
1
1
1
1
1
1
1
1
1
1
1
1
1
1
1
1.51564
1.5131
1.50763
1.49497
1.46685
1.42737
1.38544
1.32323
1.26938
1.238
1.1964
1.15616
1.13324
1.1035
1.05248
1.04436
1.04492
1.03495
1.00638
0.997103
0.991556
0.985215
0.982694
0.980719
0.97767
0.972025
0.971871
0.972564
0.973517
0.976684
0.985953
1.00273
1.01917
1.03102
1.04668
1.06793
1.08236
1.08471
1.08407
1.08082
1.07087
1.05433
1.03581
1.02015
1.01043
1.00521
1.0029
1.00287
1.00522
1.01106
1.01772
1.02246
1.02475
1.02524
1.02544
1.02567
1.02582
1.02586
1.02525
1.02078
1.01028
1.00151
1.00003
1
1
1
1
1
1
1
1
1
1
1
1
1
1
1
1
1
1
1
1
1
1
1
1
1
1
1
1
1
1
1
1
1
1.5147
1.51202
1.50771
1.5014
1.48814
1.46293
1.43245
1.38968
1.33724
1.30061
1.25969
1.21264
1.19027
1.17009
1.12127
1.08549
1.08372
1.07675
1.05427
1.03477
1.02095
1.00335
0.987822
0.983885
0.982419
0.976735
0.976904
0.978674
0.980169
0.982995
0.990829
1.00473
1.01789
1.0273
1.03762
1.05444
1.0724
1.07325
1.07185
1.06731
1.05618
1.04017
1.02341
1.01087
1.00459
1.00137
1.00054
1.00222
1.00857
1.01589
1.02134
1.02519
1.02723
1.02754
1.02764
1.02769
1.02764
1.02698
1.02447
1.01749
1.00588
1.0004
1
1
1
1
1
1
1
1
1
1
1
1
1
1
1
1
1
1
1
1
1
1
1
1
1
1
1
1
1
1
1
1
1
1
1.5129
1.51106
1.50697
1.50151
1.49481
1.48252
1.46403
1.43616
1.39341
1.35797
1.32339
1.2718
1.24015
1.22261
1.1898
1.14833
1.13557
1.12393
1.09625
1.07567
1.06761
1.05431
1.02457
1.01416
1.01256
1.00468
0.996625
0.996515
0.997387
1.00022
1.00583
1.01535
1.02216
1.02707
1.03138
1.03673
1.04482
1.05247
1.0523
1.0486
1.03795
1.02311
1.00992
1.00287
0.999995
0.999891
1.00206
1.00858
1.01543
1.01941
1.02247
1.0261
1.02889
1.02955
1.02987
1.03008
1.03001
1.02877
1.02359
1.0121
1.00193
1.00004
1
1
1
1
1
1
1
1
1
1
1
1
1
1
1
1
1
1
1
1
1
1
1
1
1
1
1
1
1
1
1
1
1
1
1.50798
1.50811
1.50486
1.50245
1.50078
1.49599
1.48405
1.46397
1.431
1.39743
1.37054
1.33122
1.29138
1.2688
1.24234
1.201
1.18414
1.17383
1.14805
1.11256
1.10507
1.09521
1.06784
1.0519
1.04665
1.03494
1.01535
1.01063
1.01147
1.01576
1.02106
1.02651
1.03061
1.03076
1.03122
1.03121
1.02919
1.02584
1.02512
1.02218
1.01611
1.00734
0.999525
0.99728
0.997401
0.99998
1.00818
1.01767
1.02275
1.0253
1.02741
1.0296
1.0308
1.03103
1.03125
1.03145
1.03143
1.02901
1.01945
1.00536
1.00025
1
1
1
1
1
1
1
1
1
1
1
1
1
1
1
1
1
1
1
1
1
1
1
1
1
1
1
1
1
1
1
1
1
1
1
1.4956
1.49114
1.48923
1.49307
1.49491
1.49398
1.48752
1.47643
1.45805
1.43066
1.40403
1.3767
1.33969
1.31073
1.28853
1.25469
1.22779
1.21367
1.19177
1.16148
1.14795
1.13664
1.10776
1.08262
1.08085
1.0731
1.05256
1.03974
1.03988
1.04372
1.04399
1.04636
1.04853
1.04561
1.04168
1.03717
1.02996
1.01812
1.00649
1.00147
0.998661
0.996153
0.993873
0.993179
0.995391
1.0035
1.0146
1.02167
1.02501
1.02745
1.02998
1.033
1.03472
1.03504
1.03517
1.0352
1.03373
1.02579
1.01008
1.00087
1.00001
1
1
1
1
1
1
1
1
1
1
1
1
1
1
1
1
1
1
1
1
1
1
1
1
1
1
1
1
1
1
1
1
1
1
1
1.41823
1.46041
1.4874
1.49138
1.48602
1.48296
1.48374
1.48283
1.4742
1.45696
1.4319
1.40762
1.38186
1.35171
1.32642
1.29846
1.27231
1.25482
1.23333
1.19853
1.1842
1.17621
1.15597
1.12642
1.12274
1.12148
1.10874
1.1023
1.10576
1.11763
1.11978
1.11605
1.10864
1.09858
1.08801
1.07477
1.05613
1.03
1.00889
1.00237
0.998256
0.995241
0.995322
0.998885
1.0066
1.01756
1.02494
1.02688
1.02769
1.0287
1.03026
1.03369
1.03834
1.03994
1.04039
1.03977
1.03232
1.0146
1.00168
1.00002
1
1
1
1
1
1
1
1
1
1
1
1
1
1
1
1
1
1
1
1
1
1
1
1
1
1
1
1
1
1
1
1
1
1
1
1
1.21368
1.34337
1.42955
1.46721
1.4758
1.48177
1.48417
1.4844
1.48258
1.4745
1.45811
1.43316
1.41085
1.38602
1.35929
1.33523
1.30849
1.29047
1.27473
1.24816
1.23424
1.24243
1.24528
1.24072
1.24392
1.26993
1.27575
1.27001
1.27032
1.27688
1.27542
1.26416
1.24415
1.223
1.20271
1.18041
1.15206
1.11768
1.08708
1.06551
1.04916
1.03479
1.02362
1.0195
1.02029
1.02547
1.03069
1.03256
1.03369
1.03504
1.03768
1.0432
1.04756
1.04835
1.04724
1.03789
1.01755
1.00218
1.00003
1
1
1
1
1
1
1
1
1
1
1
1
1
1
1
1
1
1
1
1
1
1
1
1
1
1
1
1
1
1
1
1
1
1
1
1
1
1.02551
1.12042
1.25055
1.35081
1.43155
1.47524
1.47525
1.47669
1.47872
1.48056
1.47441
1.4588
1.43813
1.41734
1.39125
1.3752
1.36168
1.36033
1.37589
1.39402
1.41068
1.45571
1.47825
1.46907
1.46415
1.46389
1.45649
1.44
1.42264
1.40461
1.38363
1.35693
1.32701
1.30038
1.27608
1.24999
1.22012
1.18865
1.16152
1.14161
1.12535
1.10815
1.0883
1.06761
1.04968
1.03839
1.03509
1.03583
1.03866
1.04382
1.05172
1.05792
1.05918
1.05568
1.04192
1.01781
1.00198
1.00002
1
1
1
1
1
1
1
1
1
1
1
1
1
1
1
1
1
1
1
1
1
1
1
1
1
1
1
1
1
1
1
1
1
1
1
1
1
1
1.00043
1.0075
1.03989
1.13589
1.26203
1.37332
1.43079
1.46633
1.47805
1.47358
1.47449
1.47511
1.47253
1.47759
1.49204
1.52138
1.55559
1.60263
1.64005
1.63744
1.64533
1.65884
1.65135
1.62606
1.59939
1.57491
1.55057
1.52327
1.49377
1.46406
1.43364
1.40072
1.3679
1.33851
1.31205
1.28601
1.25877
1.23258
1.21193
1.19703
1.18504
1.17361
1.16131
1.14726
1.13013
1.10851
1.08507
1.0695
1.06631
1.06914
1.07229
1.07085
1.06156
1.0425
1.01524
1.0013
1.00001
1
1
1
1
1
1
1
1
1
1
1
1
1
1
1
1
1
1
1
1
1
1
1
1
1
1
1
1
1
1
1
1
1
1
1
1
1
1
1
0.999994
1.00006
1.0009
1.01002
1.04888
1.15213
1.27475
1.37187
1.44068
1.46376
1.50739
1.57117
1.64175
1.70097
1.75195
1.77395
1.77941
1.78757
1.7793
1.74841
1.72505
1.70748
1.68325
1.65281
1.62009
1.58938
1.5596
1.52739
1.49534
1.46556
1.43564
1.40342
1.37132
1.34241
1.31616
1.29028
1.26573
1.24451
1.22895
1.21784
1.20883
1.20114
1.19456
1.1886
1.18227
1.17437
1.1624
1.14364
1.11865
1.09339
1.07582
1.06172
1.03811
1.01042
1.00059
1
1
1
1
1
1
1
1
1
1
1
1
1
1
1
1
1
1
1
1
1
1
1
1
1
1
1
1
1
1
1
1
1
1
1
1
1
1
1
1
1
0.999998
0.999999
1
1.0001
1.00145
1.01289
1.06703
1.17546
1.33675
1.51969
1.65762
1.76241
1.83619
1.88605
1.91943
1.92132
1.90755
1.89187
1.87334
1.83874
1.79298
1.75127
1.71054
1.66562
1.62199
1.58366
1.54593
1.50604
1.46897
1.43741
1.40687
1.37379
1.3406
1.31174
1.28839
1.26875
1.25536
1.24584
1.24029
1.23786
1.23691
1.23682
1.23689
1.23631
1.2337
1.22787
1.217
1.19715
1.16489
1.12082
1.06937
1.02575
1.00428
1.00016
1
1
1
1
1
1
1
1
1
1
1
1
1
1
1
1
1
1
1
1
1
1
1
1
1
1
1
1
1
1
1
1
1
1
1
1
1
1
1
1
1
1
0.999998
0.999999
1
1.0001
1.00145
1.01289
1.06703
1.17546
1.33675
1.51969
1.65762
1.76241
1.83619
1.88605
1.91943
1.92132
1.90755
1.89187
1.87334
1.83874
1.79298
1.75127
1.71054
1.66562
1.62199
1.58366
1.54593
1.50604
1.46897
1.43741
1.40687
1.37379
1.3406
1.31174
1.28839
1.26875
1.25536
1.24584
1.24029
1.23786
1.23691
1.23682
1.23689
1.23631
1.2337
1.22787
1.217
1.19715
1.16489
1.12082
1.06937
1.02575
1.00428
1.00016
1
1
1
1
1
1
1
1
1
1
1
1
1
1
1
1
1
1
1
1
1
1
1
1
1
1
1
1
1
1
1
1
1
1
1
1
1
1
1
1
1
1
0.999994
1.00006
1.0009
1.01002
1.04888
1.15213
1.27475
1.37187
1.44068
1.46376
1.50739
1.57117
1.64175
1.70097
1.75195
1.77395
1.77941
1.78757
1.7793
1.74841
1.72505
1.70748
1.68325
1.65281
1.62009
1.58938
1.5596
1.52739
1.49534
1.46556
1.43564
1.40342
1.37132
1.34241
1.31616
1.29028
1.26573
1.24451
1.22895
1.21784
1.20883
1.20114
1.19456
1.1886
1.18227
1.17437
1.1624
1.14364
1.11865
1.09339
1.07582
1.06172
1.03811
1.01042
1.00059
1
1
1
1
1
1
1
1
1
1
1
1
1
1
1
1
1
1
1
1
1
1
1
1
1
1
1
1
1
1
1
1
1
1
1
1
1
1
1
1
1
1.00043
1.0075
1.03989
1.13589
1.26203
1.37332
1.43079
1.46633
1.47805
1.47358
1.47449
1.47511
1.47253
1.47759
1.49204
1.52138
1.55559
1.60263
1.64005
1.63744
1.64533
1.65884
1.65135
1.62606
1.59939
1.57491
1.55057
1.52327
1.49377
1.46406
1.43364
1.40072
1.3679
1.33851
1.31205
1.28601
1.25877
1.23258
1.21193
1.19703
1.18504
1.17361
1.16131
1.14726
1.13013
1.10851
1.08507
1.0695
1.06631
1.06914
1.07229
1.07085
1.06156
1.0425
1.01524
1.0013
1.00001
1
1
1
1
1
1
1
1
1
1
1
1
1
1
1
1
1
1
1
1
1
1
1
1
1
1
1
1
1
1
1
1
1
1
1
1
1
1
1
1.02551
1.12042
1.25055
1.35081
1.43155
1.47524
1.47525
1.47669
1.47872
1.48056
1.47441
1.4588
1.43813
1.41734
1.39125
1.3752
1.36168
1.36033
1.37589
1.39402
1.41068
1.45571
1.47825
1.46907
1.46415
1.46389
1.45649
1.44
1.42264
1.40461
1.38363
1.35693
1.32701
1.30038
1.27608
1.24999
1.22012
1.18865
1.16152
1.14161
1.12535
1.10815
1.0883
1.06761
1.04968
1.03839
1.03509
1.03583
1.03866
1.04382
1.05172
1.05792
1.05918
1.05568
1.04192
1.01781
1.00198
1.00002
1
1
1
1
1
1
1
1
1
1
1
1
1
1
1
1
1
1
1
1
1
1
1
1
1
1
1
1
1
1
1
1
1
1
1
1
1
1
1.21368
1.34337
1.42955
1.46721
1.4758
1.48177
1.48417
1.4844
1.48258
1.4745
1.45811
1.43316
1.41085
1.38602
1.35929
1.33523
1.30849
1.29047
1.27473
1.24816
1.23424
1.24243
1.24528
1.24072
1.24392
1.26993
1.27575
1.27001
1.27032
1.27688
1.27542
1.26416
1.24415
1.223
1.20271
1.18041
1.15206
1.11768
1.08708
1.06551
1.04916
1.03479
1.02362
1.0195
1.02029
1.02547
1.03069
1.03256
1.03369
1.03504
1.03768
1.0432
1.04756
1.04835
1.04724
1.03789
1.01755
1.00218
1.00003
1
1
1
1
1
1
1
1
1
1
1
1
1
1
1
1
1
1
1
1
1
1
1
1
1
1
1
1
1
1
1
1
1
1
1
1
1
1.41823
1.46041
1.4874
1.49138
1.48602
1.48296
1.48374
1.48283
1.4742
1.45696
1.4319
1.40762
1.38186
1.35171
1.32642
1.29846
1.27231
1.25482
1.23333
1.19853
1.1842
1.17621
1.15597
1.12642
1.12274
1.12148
1.10874
1.1023
1.10576
1.11763
1.11978
1.11605
1.10864
1.09858
1.08801
1.07477
1.05613
1.03
1.00889
1.00237
0.998256
0.995241
0.995322
0.998885
1.0066
1.01756
1.02494
1.02688
1.02769
1.0287
1.03026
1.03369
1.03834
1.03994
1.04039
1.03977
1.03232
1.0146
1.00168
1.00002
1
1
1
1
1
1
1
1
1
1
1
1
1
1
1
1
1
1
1
1
1
1
1
1
1
1
1
1
1
1
1
1
1
1
1
1
1.4956
1.49114
1.48923
1.49307
1.49491
1.49398
1.48752
1.47643
1.45805
1.43066
1.40403
1.3767
1.33969
1.31073
1.28853
1.25469
1.22779
1.21367
1.19177
1.16148
1.14795
1.13664
1.10776
1.08262
1.08085
1.0731
1.05256
1.03974
1.03988
1.04372
1.04399
1.04636
1.04853
1.04561
1.04168
1.03717
1.02996
1.01812
1.00649
1.00147
0.998661
0.996153
0.993873
0.993179
0.995391
1.0035
1.0146
1.02167
1.02501
1.02745
1.02998
1.033
1.03472
1.03504
1.03517
1.0352
1.03373
1.02579
1.01008
1.00087
1.00001
1
1
1
1
1
1
1
1
1
1
1
1
1
1
1
1
1
1
1
1
1
1
1
1
1
1
1
1
1
1
1
1
1
1
1
1.50798
1.50811
1.50486
1.50245
1.50078
1.49599
1.48405
1.46397
1.431
1.39743
1.37054
1.33122
1.29138
1.2688
1.24234
1.201
1.18414
1.17383
1.14805
1.11256
1.10507
1.09521
1.06784
1.0519
1.04665
1.03494
1.01535
1.01063
1.01147
1.01576
1.02106
1.02651
1.03061
1.03076
1.03122
1.03121
1.02919
1.02584
1.02512
1.02218
1.01611
1.00734
0.999525
0.99728
0.997401
0.99998
1.00818
1.01767
1.02275
1.0253
1.02741
1.0296
1.0308
1.03103
1.03125
1.03145
1.03143
1.02901
1.01945
1.00536
1.00025
1
1
1
1
1
1
1
1
1
1
1
1
1
1
1
1
1
1
1
1
1
1
1
1
1
1
1
1
1
1
1
1
1
1
1
1.5129
1.51106
1.50697
1.50151
1.49481
1.48252
1.46403
1.43616
1.39341
1.35797
1.32339
1.2718
1.24015
1.22261
1.1898
1.14833
1.13557
1.12393
1.09625
1.07567
1.06761
1.05431
1.02457
1.01416
1.01256
1.00468
0.996625
0.996515
0.997387
1.00022
1.00583
1.01535
1.02216
1.02707
1.03138
1.03673
1.04482
1.05247
1.0523
1.0486
1.03795
1.02311
1.00992
1.00287
0.999995
0.999891
1.00206
1.00858
1.01543
1.01941
1.02247
1.0261
1.02889
1.02955
1.02987
1.03008
1.03001
1.02877
1.02359
1.0121
1.00193
1.00004
1
1
1
1
1
1
1
1
1
1
1
1
1
1
1
1
1
1
1
1
1
1
1
1
1
1
1
1
1
1
1
1
1
1
1.5147
1.51202
1.50771
1.5014
1.48814
1.46293
1.43245
1.38968
1.33724
1.30061
1.25969
1.21264
1.19027
1.17009
1.12127
1.08549
1.08372
1.07675
1.05427
1.03477
1.02095
1.00335
0.987822
0.983885
0.982419
0.976735
0.976904
0.978674
0.980169
0.982995
0.990829
1.00473
1.01789
1.0273
1.03762
1.05444
1.0724
1.07325
1.07185
1.06731
1.05618
1.04017
1.02341
1.01087
1.00459
1.00137
1.00054
1.00222
1.00857
1.01589
1.02134
1.02519
1.02723
1.02754
1.02764
1.02769
1.02764
1.02698
1.02447
1.01749
1.00588
1.0004
1
1
1
1
1
1
1
1
1
1
1
1
1
1
1
1
1
1
1
1
1
1
1
1
1
1
1
1
1
1
1
1
1
1
1.51564
1.5131
1.50763
1.49497
1.46685
1.42737
1.38544
1.32323
1.26938
1.238
1.1964
1.15616
1.13324
1.1035
1.05248
1.04436
1.04492
1.03495
1.00638
0.997103
0.991556
0.985215
0.982694
0.980719
0.97767
0.972025
0.971871
0.972564
0.973517
0.976684
0.985953
1.00273
1.01917
1.03102
1.04668
1.06793
1.08236
1.08471
1.08407
1.08082
1.07087
1.05433
1.03581
1.02015
1.01043
1.00521
1.0029
1.00287
1.00522
1.01106
1.01772
1.02246
1.02475
1.02524
1.02544
1.02567
1.02582
1.02586
1.02525
1.02078
1.01028
1.00151
1.00003
1
1
1
1
1
1
1
1
1
1
1
1
1
1
1
1
1
1
1
1
1
1
1
1
1
1
1
1
1
1
1
1
1
1.51088
1.50632
1.49393
1.46397
1.41726
1.37156
1.311
1.23497
1.20455
1.17424
1.11989
1.08428
1.06804
1.03644
1.00109
0.99662
0.992414
0.980119
0.964795
0.965519
0.965586
0.966269
0.968152
0.971948
0.977451
0.978232
0.977198
0.977717
0.979999
0.98486
0.993477
1.00521
1.01751
1.03159
1.04891
1.06478
1.081
1.08593
1.08542
1.08361
1.07741
1.06555
1.04882
1.03093
1.01735
1.00934
1.00524
1.00358
1.00361
1.00588
1.01245
1.02058
1.02414
1.02465
1.02487
1.02504
1.02514
1.0251
1.02429
1.0213
1.01339
1.00343
1.00015
1
1
1
1
1
1
1
1
1
1
1
1
1
1
1
1
1
1
1
1
1
1
1
1
1
1
1
1
1
1
1
1
1
1.5046
1.49232
1.46009
1.40412
1.34998
1.29109
1.20785
1.16168
1.13866
1.09003
1.03477
1.02819
1.01819
0.9854
0.971062
0.973513
0.972047
0.966275
0.960996
0.961378
0.962016
0.963009
0.964656
0.968804
0.97474
0.977568
0.980694
0.984145
0.988741
0.995381
1.0027
1.01085
1.02124
1.03525
1.05078
1.06352
1.07635
1.08304
1.08337
1.08252
1.07868
1.07048
1.05816
1.04263
1.02511
1.01262
1.00628
1.00378
1.00331
1.00461
1.01043
1.01909
1.02308
1.02358
1.02376
1.02389
1.02395
1.02397
1.02359
1.02154
1.0156
1.00563
1.00045
1
1
1
1
1
1
1
1
1
1
1
1
1
1
1
1
1
1
1
1
1
1
1
1
1
1
1
1
1
1
1
1
1
1.49221
1.45724
1.39238
1.32444
1.26084
1.17968
1.11419
1.08687
1.05348
0.999316
0.979251
0.975025
0.961984
0.953141
0.954494
0.960996
0.971026
0.971341
0.972385
0.977235
0.983375
0.986862
0.989369
0.992808
0.99552
0.994852
0.995083
0.997261
1.00278
1.01003
1.01687
1.02282
1.03051
1.0421
1.05538
1.06822
1.07942
1.08377
1.08364
1.08294
1.08109
1.07665
1.06787
1.05357
1.03333
1.015
1.00614
1.00381
1.00363
1.00484
1.00948
1.01711
1.02188
1.0226
1.02275
1.02293
1.02312
1.02324
1.02327
1.0223
1.01739
1.00753
1.00086
1.00001
1
1
1
1
1
1
1
1
1
1
1
1
1
1
1
1
1
1
1
1
1
1
1
1
1
1
1
1
1
1
1
1
1.45848
1.3741
1.28498
1.22442
1.14054
1.05314
1.05046
1.04306
1.00848
0.989426
0.989758
0.984009
0.973979
0.972505
0.976837
0.985571
0.99046
0.992981
0.997535
1.00556
1.01247
1.01687
1.02012
1.02164
1.02063
1.01773
1.01615
1.01649
1.01954
1.02504
1.03045
1.03507
1.04053
1.04809
1.05888
1.07321
1.08382
1.08543
1.08524
1.0848
1.0838
1.0812
1.07498
1.06267
1.0432
1.0207
1.00823
1.00461
1.0042
1.00453
1.00766
1.01546
1.0217
1.02278
1.02293
1.02305
1.02312
1.02315
1.02297
1.02179
1.01765
1.00872
1.00132
1.00002
1
1
1
1
1
1
1
1
1
1
1
1
1
1
1
1
1
1
1
1
1
1
1
1
1
1
1
1
1
1
1
1
1.36237
1.19842
1.07976
0.993515
0.909618
0.902279
0.947334
0.976176
0.968908
0.972365
0.9953
1.01877
1.01694
1.01647
1.02524
1.03707
1.03771
1.03577
1.03541
1.03658
1.04097
1.04518
1.04635
1.04603
1.04118
1.02987
1.0255
1.02601
1.02858
1.03301
1.03848
1.04373
1.04797
1.05253
1.06051
1.07379
1.0848
1.08699
1.08696
1.08631
1.08537
1.08368
1.07851
1.06797
1.04945
1.02466
1.00967
1.00434
1.00332
1.00343
1.00616
1.01446
1.02137
1.02249
1.02262
1.02273
1.02282
1.02287
1.02266
1.0214
1.01766
1.00941
1.00167
1.00004
1
1
1
1
1
1
1
1
1
1
1
1
1
1
1
1
1
1
1
1
1
1
1
1
1
1
1
1
1
1
1
1
)
;

boundaryField
{
    inlet
    {
        type            fixedValue;
        value           uniform 1;
    }
    outlet
    {
        type            inletOutlet;
        inletValue      uniform 1;
        value           nonuniform List<scalar> 
32
(
1
1
1
1
1
1
1
1
1
1
1
1
1
1
1
1
1
1
1
1
1
1
1
1
1
1
1
1
1
1
1
1
)
;
    }
    bottom
    {
        type            symmetryPlane;
    }
    top
    {
        type            symmetryPlane;
    }
    obstacle
    {
        type            zeroGradient;
    }
    defaultFaces
    {
        type            empty;
    }
}


// ************************************************************************* //
