/*--------------------------------*- C++ -*----------------------------------*\
  =========                 |
  \\      /  F ield         | OpenFOAM: The Open Source CFD Toolbox
   \\    /   O peration     | Website:  https://openfoam.org
    \\  /    A nd           | Version:  7
     \\/     M anipulation  |
\*---------------------------------------------------------------------------*/
FoamFile
{
    version     2.0;
    format      ascii;
    class       volVectorField;
    location    "0.3";
    object      U;
}
// * * * * * * * * * * * * * * * * * * * * * * * * * * * * * * * * * * * * * //

dimensions      [0 1 -1 0 0 0 0];

internalField   nonuniform List<vector> 
4608
(
(3 -7.16507e-17 0)
(3 -7.92631e-17 0)
(3 -2.1127e-16 0)
(3 -4.20572e-16 0)
(3 -2.35019e-16 0)
(3 7.68367e-16 0)
(3 1.08614e-15 0)
(3 1.08784e-15 0)
(3 -5.44518e-17 0)
(3 -4.14139e-16 0)
(3 -6.18385e-16 0)
(3 -3.21559e-16 0)
(3 2.78012e-17 0)
(3 2.29233e-16 0)
(3 7.78232e-16 0)
(3 1.73235e-15 0)
(3 2.21462e-15 0)
(3 1.90416e-15 0)
(3 2.78329e-15 0)
(3 3.23237e-15 0)
(3 2.55592e-15 0)
(3 5.74521e-16 0)
(3 -1.04447e-15 0)
(3 -2.54345e-15 0)
(3 -1.13334e-16 0)
(3 2.14113e-16 0)
(3 -8.09064e-17 0)
(3 -3.55719e-16 0)
(3 -8.04628e-17 0)
(3 2.74454e-16 0)
(3 1.57124e-16 0)
(3 3.25035e-17 0)
(3 -1.28762e-15 0)
(3 -1.61457e-15 0)
(3 -2.1098e-15 0)
(3 -1.00792e-15 0)
(3 1.33367e-16 0)
(3 1.84958e-17 0)
(3 2.06158e-15 0)
(3 3.56581e-15 0)
(3 5.2696e-15 0)
(3 4.86046e-15 0)
(3 2.89554e-15 0)
(3 1.97937e-15 0)
(3 1.51338e-16 0)
(3 -3.3634e-15 0)
(3 -5.661e-15 0)
(3 -4.2628e-15 0)
(3 -1.08719e-16 0)
(3 -1.62164e-16 0)
(3 -5.55933e-16 0)
(3 -4.95617e-16 0)
(3 -7.67441e-17 0)
(3 -2.04755e-16 0)
(3 -5.54207e-16 0)
(3 -4.5479e-16 0)
(3 -7.34534e-16 0)
(3 -1.25077e-15 0)
(3 -1.49727e-15 0)
(3 -6.58742e-16 0)
(3 1.26252e-15 0)
(3 1.21631e-15 0)
(3 1.7949e-15 0)
(3 3.36619e-15 0)
(3 4.46975e-15 0)
(3 4.3268e-15 0)
(3 2.73132e-15 0)
(3 2.67833e-15 0)
(3 -7.90943e-16 0)
(3 -5.01807e-15 0)
(3 -5.82706e-15 0)
(3 -3.32542e-15 0)
(3 2.38232e-16 0)
(3 2.25525e-16 0)
(3 -3.49762e-16 0)
(3 -1.34236e-15 0)
(3 -4.46435e-16 0)
(3 -1.52031e-16 0)
(3 -5.02464e-16 0)
(3 4.4565e-17 0)
(3 1.14616e-15 0)
(3 6.54781e-16 0)
(3 -6.86034e-17 0)
(3 -8.5886e-16 0)
(3 -8.74961e-17 0)
(3 1.1485e-15 0)
(3 1.17731e-15 0)
(3 1.98241e-15 0)
(3 2.23835e-15 0)
(3 7.25963e-16 0)
(3 7.93833e-16 0)
(3 1.00648e-15 0)
(3 -3.74414e-15 0)
(3 -6.08442e-15 0)
(3 -6.76916e-15 0)
(3 -6.46556e-15 0)
(3 3.5007e-16 0)
(3 4.71563e-16 0)
(3 4.93301e-16 0)
(3 2.09548e-16 0)
(3 -2.92517e-16 0)
(3 -3.45912e-16 0)
(3 -7.69048e-16 0)
(3 -7.52218e-17 0)
(3 1.64324e-15 0)
(3 2.56516e-15 0)
(3 1.21618e-15 0)
(3 1.54004e-16 0)
(3 1.17881e-16 0)
(3 3.56094e-16 0)
(3 1.09256e-15 0)
(3 7.98445e-16 0)
(3 7.78789e-16 0)
(3 1.08973e-15 0)
(3 7.57012e-16 0)
(3 -1.49486e-15 0)
(3 -2.09883e-15 0)
(3 -3.07124e-15 0)
(3 -4.51343e-15 0)
(3 -3.22548e-15 0)
(3 -5.26373e-17 0)
(3 -3.37639e-16 0)
(3 -2.25153e-16 0)
(3 2.79631e-16 0)
(3 1.33461e-16 0)
(3 -4.37743e-17 0)
(3 -8.58975e-17 0)
(3 3.28145e-16 0)
(3 1.01875e-15 0)
(3 2.75021e-15 0)
(3 2.26066e-15 0)
(3 9.88488e-16 0)
(3 6.68481e-16 0)
(3 3.42867e-16 0)
(3 -2.55303e-16 0)
(3 -2.05175e-16 0)
(3 -1.22447e-15 0)
(3 -1.1542e-15 0)
(3 -1.09979e-15 0)
(3 -1.43949e-15 0)
(3 -7.2645e-16 0)
(3 -4.95539e-16 0)
(3 -5.01637e-16 0)
(3 2.58296e-16 0)
(3 -1.20771e-16 0)
(3 -1.88545e-16 0)
(3 -2.69667e-16 0)
(3 2.43774e-16 0)
(3 -3.2931e-17 0)
(3 -3.28005e-16 0)
(3 -8.09241e-16 0)
(3 -8.399e-16 0)
(3 -8.5106e-16 0)
(3 3.18581e-16 0)
(3 1.00998e-15 0)
(3 4.10759e-16 0)
(3 -2.30458e-16 0)
(3 -6.91967e-16 0)
(3 -6.39202e-16 0)
(3 -4.88519e-16 0)
(3 -1.7067e-15 0)
(3 -1.8577e-15 0)
(3 -1.31188e-15 0)
(3 5.86076e-16 0)
(3 1.0167e-15 0)
(3 9.71925e-16 0)
(3 5.70943e-16 0)
(3 -8.08111e-16 0)
(3 -2.25001e-16 0)
(3 -3.31653e-16 0)
(3 3.44882e-16 0)
(3 9.60292e-16 0)
(3 1.26159e-16 0)
(3 -3.94318e-16 0)
(3 -6.08414e-16 0)
(3 -6.46737e-16 0)
(3 -1.46467e-15 0)
(3 -1.79841e-15 0)
(3 -1.09374e-15 0)
(3 -2.57407e-16 0)
(3 -8.68997e-16 0)
(3 -4.85175e-16 0)
(3 -9.49151e-16 0)
(3 -1.51426e-15 0)
(3 -2.25701e-15 0)
(3 -2.33503e-15 0)
(3 -1.02879e-15 0)
(3 2.05938e-15 0)
(3 1.86571e-15 0)
(3 1.88511e-16 0)
(3 -1.47189e-15 0)
(3 -3.47919e-15 0)
(3 1.57566e-16 0)
(3 3.50954e-16 0)
(3 7.04625e-16 0)
(3 1.0418e-15 0)
(3 2.9512e-16 0)
(3 -9.68867e-17 0)
(3 3.4034e-16 0)
(3 2.98289e-17 0)
(3 -1.12523e-15 0)
(3 -2.40023e-15 0)
(3 -2.9913e-15 0)
(3 -1.70595e-15 0)
(3 -1.55173e-15 0)
(3 -7.31998e-16 0)
(3 -7.80649e-16 0)
(3 -2.13193e-15 0)
(3 -2.65677e-15 0)
(3 -2.29344e-15 0)
(3 -6.46553e-16 0)
(3 2.06447e-15 0)
(3 2.20878e-15 0)
(3 -4.65526e-16 0)
(3 -3.0649e-15 0)
(3 -3.55989e-15 0)
(3 8.05236e-17 0)
(3 2.95191e-16 0)
(3 4.36791e-16 0)
(3 4.73279e-16 0)
(3 4.64571e-16 0)
(3 -2.82232e-16 0)
(3 -4.01262e-16 0)
(3 -1.05125e-15 0)
(3 -1.12013e-15 0)
(3 -1.2781e-15 0)
(3 -2.09786e-15 0)
(3 -3.07766e-15 0)
(3 -2.88517e-15 0)
(3 -2.26637e-15 0)
(3 -1.20499e-15 0)
(3 -8.8741e-16 0)
(3 -1.88201e-15 0)
(3 5.2322e-16 0)
(3 1.08931e-15 0)
(3 1.80136e-15 0)
(3 2.34104e-15 0)
(3 -8.60323e-16 0)
(3 -1.9682e-15 0)
(3 -2.4484e-15 0)
(3 -1.76808e-16 0)
(3 -1.05932e-16 0)
(3 -3.05036e-16 0)
(3 -3.3699e-16 0)
(3 -2.64011e-17 0)
(3 2.72631e-16 0)
(3 3.65776e-16 0)
(3 2.34794e-16 0)
(3 3.98875e-16 0)
(3 7.24283e-16 0)
(3 -1.27314e-16 0)
(3 -4.45351e-16 0)
(3 4.71465e-17 0)
(3 -9.49575e-17 0)
(3 2.35349e-17 0)
(3 1.3707e-16 0)
(3 3.453e-16 0)
(3 1.44007e-15 0)
(3 1.34214e-15 0)
(3 1.51918e-15 0)
(3 1.54832e-15 0)
(3 6.20079e-16 0)
(3 6.56446e-16 0)
(3 6.52065e-17 0)
(3 2.33564e-16 0)
(3 4.08175e-16 0)
(3 7.14681e-17 0)
(3 -4.51907e-16 0)
(3 -2.26518e-16 0)
(3 -2.16878e-17 0)
(3 1.34288e-16 0)
(3 7.86856e-16 0)
(3 5.89566e-16 0)
(3 -5.26025e-16 0)
(3 -8.64524e-16 0)
(3 -1.16554e-16 0)
(3 2.46369e-16 0)
(3 9.37286e-16 0)
(3 3.59993e-16 0)
(3 -2.40126e-17 0)
(3 8.42158e-16 0)
(3 2.06141e-15 0)
(3 2.18091e-15 0)
(3 8.93111e-16 0)
(3 -5.70111e-16 0)
(3 3.80964e-16 0)
(3 7.78483e-16 0)
(3 1.61633e-15 0)
(3 -2.36865e-17 0)
(3 -7.01842e-17 0)
(3 -1.89948e-16 0)
(3 -2.78803e-16 0)
(3 -3.15804e-16 0)
(3 -4.65782e-16 0)
(3 -9.92111e-16 0)
(3 -5.4349e-16 0)
(3 2.41781e-16 0)
(3 9.72442e-16 0)
(3 -3.99156e-16 0)
(3 -8.98584e-16 0)
(3 -9.63951e-16 0)
(3 -5.48245e-16 0)
(3 1.24064e-16 0)
(3 8.42374e-16 0)
(3 1.8351e-15 0)
(3 2.10174e-15 0)
(3 2.21858e-15 0)
(3 -6.11653e-16 0)
(3 -1.32205e-15 0)
(3 7.61985e-16 0)
(3 1.04801e-15 0)
(3 2.20219e-15 0)
(3 -2.73982e-16 0)
(3 -4.31081e-16 0)
(3 -3.32199e-16 0)
(3 3.66325e-17 0)
(3 -8.45821e-16 0)
(3 -1.33432e-15 0)
(3 -4.83795e-16 0)
(3 -3.11456e-17 0)
(3 8.93161e-16 0)
(3 1.80146e-15 0)
(3 1.00845e-15 0)
(3 1.37951e-16 0)
(3 -1.08197e-15 0)
(3 -5.44455e-16 0)
(3 2.30973e-15 0)
(3 2.3506e-15 0)
(3 8.16393e-16 0)
(3 2.71251e-16 0)
(3 -5.76591e-16 0)
(3 -2.58341e-16 0)
(3 1.75221e-15 0)
(3 3.32476e-15 0)
(3 3.18622e-15 0)
(3 1.50331e-15 0)
(3 -1.93089e-17 0)
(3 -2.17207e-16 0)
(3 -3.49148e-16 0)
(3 -5.90115e-16 0)
(3 -6.32572e-16 0)
(3 1.46388e-16 0)
(3 7.85406e-16 0)
(3 1.09254e-15 0)
(3 8.64119e-16 0)
(3 -4.08485e-16 0)
(3 1.06248e-15 0)
(3 1.65698e-15 0)
(3 1.39039e-15 0)
(3 1.36203e-15 0)
(3 2.64061e-15 0)
(3 2.06166e-15 0)
(3 1.1748e-15 0)
(3 1.14608e-15 0)
(3 1.46423e-15 0)
(3 1.41207e-15 0)
(3 6.58208e-17 0)
(3 -7.44422e-16 0)
(3 -4.9457e-16 0)
(3 -6.85148e-16 0)
(3 -1.52421e-18 0)
(3 -1.78551e-16 0)
(3 -4.50647e-17 0)
(3 -1.93014e-16 0)
(3 1.48623e-16 0)
(3 6.50448e-16 0)
(3 1.77616e-15 0)
(3 1.65462e-15 0)
(3 -1.53707e-16 0)
(3 -1.3584e-15 0)
(3 5.87591e-16 0)
(3 1.80035e-15 0)
(3 1.89398e-15 0)
(3 1.83804e-15 0)
(3 1.37435e-15 0)
(3 1.43514e-15 0)
(3 1.17106e-15 0)
(3 8.20746e-16 0)
(3 8.28675e-16 0)
(3 -2.42781e-16 0)
(3 -2.48569e-15 0)
(3 -4.13673e-15 0)
(3 -3.95738e-15 0)
(3 -2.25486e-15 0)
(3 -1.86536e-16 0)
(3 -1.84199e-16 0)
(3 2.70603e-16 0)
(3 1.07695e-16 0)
(3 1.35397e-16 0)
(3 8.03211e-16 0)
(3 1.42668e-15 0)
(3 2.24738e-15 0)
(3 1.71036e-16 0)
(3 -4.72466e-16 0)
(3 -3.85872e-16 0)
(3 -1.22437e-16 0)
(3 4.20146e-16 0)
(3 -1.42403e-16 0)
(3 -7.46803e-16 0)
(3 3.98306e-16 0)
(3 1.46111e-15 0)
(3 1.1797e-15 0)
(3 3.77575e-16 0)
(3 -2.43899e-16 0)
(3 -9.42952e-17 0)
(3 -1.78255e-16 0)
(3 -7.52209e-16 0)
(3 -2.23236e-15 0)
(3 1.26035e-16 0)
(3 2.77254e-16 0)
(3 -3.72543e-16 0)
(3 -6.64626e-16 0)
(3 2.62027e-16 0)
(3 1.13343e-15 0)
(3 6.97967e-16 0)
(3 1.08101e-15 0)
(3 4.04826e-16 0)
(3 -2.66088e-16 0)
(3 -1.18416e-15 0)
(3 -1.41772e-15 0)
(3 -8.66074e-16 0)
(3 -1.40694e-16 0)
(3 4.61229e-16 0)
(3 6.8544e-16 0)
(3 1.20468e-15 0)
(3 1.84244e-15 0)
(3 1.42536e-15 0)
(3 1.41028e-15 0)
(3 1.15393e-15 0)
(3 5.83031e-16 0)
(3 -1.1144e-16 0)
(3 1.29012e-16 0)
(3 2.45555e-16 0)
(3 -1.71604e-16 0)
(3 -3.75617e-16 0)
(3 1.53241e-16 0)
(3 6.66769e-16 0)
(3 7.57109e-16 0)
(3 2.73235e-17 0)
(3 -1.31502e-15 0)
(3 -1.70188e-15 0)
(3 -1.17594e-15 0)
(3 -1.24946e-15 0)
(3 -2.38885e-15 0)
(3 -2.36036e-15 0)
(3 -4.13531e-16 0)
(3 8.47726e-16 0)
(3 4.04422e-16 0)
(3 2.33182e-16 0)
(3 8.60411e-17 0)
(3 -2.97129e-16 0)
(3 4.70044e-16 0)
(3 8.70389e-16 0)
(3 7.72253e-16 0)
(3 8.59873e-16 0)
(3 1.47598e-15 0)
(3 -6.42323e-17 0)
(3 -2.81994e-16 0)
(3 -2.05584e-16 0)
(3 3.98553e-16 0)
(3 1.05872e-15 0)
(3 8.28903e-16 0)
(3 -3.83218e-16 0)
(3 -1.44097e-15 0)
(3 -1.77378e-15 0)
(3 -2.31414e-15 0)
(3 -2.04003e-15 0)
(3 -2.08072e-15 0)
(3 -2.13664e-15 0)
(3 -1.93276e-15 0)
(3 -3.72532e-16 0)
(3 -1.70432e-16 0)
(3 -1.95945e-16 0)
(3 -1.34065e-15 0)
(3 -1.47484e-15 0)
(3 6.43852e-16 0)
(3 1.56626e-15 0)
(3 1.69041e-15 0)
(3 2.34914e-15 0)
(3 2.37094e-15 0)
(3 1.97926e-16 0)
(3 4.58616e-16 0)
(3 5.39763e-16 0)
(3 3.62685e-16 0)
(3 2.11459e-16 0)
(3 6.52283e-17 0)
(3 -2.03143e-16 0)
(3 -6.02741e-16 0)
(3 -1.61814e-15 0)
(3 -2.31328e-15 0)
(3 -2.92844e-15 0)
(3 -2.82694e-15 0)
(3 -2.95051e-15 0)
(3 -3.16366e-15 0)
(3 -1.29461e-15 0)
(3 -1.04521e-15 0)
(3 -8.31756e-16 0)
(3 -2.13115e-16 0)
(3 2.45166e-16 0)
(3 6.71346e-16 0)
(3 3.59681e-16 0)
(3 5.75074e-16 0)
(3 1.4348e-15 0)
(3 1.48668e-15 0)
(3 2.04748e-16 0)
(3 3.43546e-16 0)
(3 2.74151e-16 0)
(3 2.78587e-16 0)
(3 1.00584e-16 0)
(3 1.65165e-16 0)
(3 -4.2211e-16 0)
(3 -5.18824e-17 0)
(3 -2.80365e-16 0)
(3 -9.33011e-16 0)
(3 -1.44164e-15 0)
(3 -2.22988e-15 0)
(3 -2.4374e-15 0)
(3 -2.72183e-15 0)
(3 -1.85731e-15 0)
(3 -1.29728e-15 0)
(3 -9.23953e-16 0)
(3 -1.22812e-16 0)
(3 2.49256e-16 0)
(3 -4.4127e-16 0)
(3 -7.42878e-16 0)
(3 -4.34211e-16 0)
(3 1.45495e-16 0)
(3 4.622e-16 0)
(3 -3.33061e-16 0)
(3 -3.36863e-16 0)
(3 -2.18013e-16 0)
(3 3.60411e-16 0)
(3 6.20907e-16 0)
(3 7.69978e-16 0)
(3 9.80899e-17 0)
(3 2.0157e-16 0)
(3 1.13886e-15 0)
(3 1.08306e-15 0)
(3 1.06927e-15 0)
(3 1.00855e-15 0)
(3 1.23415e-16 0)
(3 -1.14706e-16 0)
(3 -2.77037e-16 0)
(3 -3.18324e-16 0)
(3 -1.92142e-16 0)
(3 -3.21882e-16 0)
(3 -9.40311e-16 0)
(3 -1.3206e-15 0)
(3 -1.10451e-15 0)
(3 -9.06319e-16 0)
(3 1.26185e-15 0)
(3 9.48762e-16 0)
(3 -1.18433e-16 0)
(3 -9.75188e-17 0)
(3 2.03863e-16 0)
(3 3.77898e-16 0)
(3 -4.47971e-16 0)
(3 -5.42739e-16 0)
(3 -1.15929e-16 0)
(3 1.48119e-15 0)
(3 2.33797e-15 0)
(3 3.06036e-15 0)
(3 3.36652e-15 0)
(3 3.58556e-15 0)
(3 2.3617e-15 0)
(3 7.99677e-16 0)
(3 -8.15891e-16 0)
(3 -3.54618e-16 0)
(3 -5.73495e-16 0)
(3 -9.178e-16 0)
(3 -1.73982e-15 0)
(3 -4.75852e-16 0)
(3 -2.74245e-16 0)
(3 1.66468e-16 0)
(3 1.88612e-15 0)
(3 1.76421e-15 0)
(3 1.7479e-16 0)
(3 -7.63186e-17 0)
(3 -1.91692e-16 0)
(3 -5.62674e-16 0)
(3 -1.13812e-15 0)
(3 -1.18898e-15 0)
(3 -7.89865e-16 0)
(3 9.37112e-16 0)
(3 3.31822e-15 0)
(3 3.47125e-15 0)
(3 3.39156e-15 0)
(3 2.96802e-15 0)
(3 2.90367e-15 0)
(3 1.56846e-15 0)
(3 2.69485e-16 0)
(3 -8.32546e-16 0)
(3 -1.81656e-15 0)
(3 -2.5569e-15 0)
(3 -2.58214e-15 0)
(3 -2.83515e-17 0)
(3 1.41978e-15 0)
(3 1.94207e-15 0)
(3 1.74718e-15 0)
(3 1.00069e-15 0)
(3 -1.73393e-16 0)
(3 -5.5246e-16 0)
(3 -1.89703e-16 0)
(3 -2.05447e-16 0)
(3 -1.01842e-16 0)
(3 -4.1291e-16 0)
(3 -7.20132e-16 0)
(3 3.86104e-17 0)
(3 1.89664e-15 0)
(3 2.10227e-15 0)
(3 1.59178e-15 0)
(3 1.68824e-15 0)
(3 1.86851e-15 0)
(3 1.96738e-15 0)
(3 2.09895e-15 0)
(3 1.15005e-15 0)
(3 -1.40612e-15 0)
(3 -1.80929e-15 0)
(3 -1.63575e-15 0)
(3 8.65818e-17 0)
(3 2.62035e-15 0)
(3 2.65029e-15 0)
(3 1.93493e-15 0)
(3 3.73072e-16 0)
(3 -2.21813e-16 0)
(3 -4.49839e-17 0)
(3 3.54685e-16 0)
(3 2.19563e-16 0)
(3 2.40126e-17 0)
(3 -2.50493e-16 0)
(3 -7.78125e-16 0)
(3 -9.29169e-16 0)
(3 1.13096e-16 0)
(3 1.55117e-15 0)
(3 9.1645e-16 0)
(3 7.26682e-16 0)
(3 6.44942e-16 0)
(3 1.0733e-15 0)
(3 1.88015e-15 0)
(3 1.21505e-15 0)
(3 6.99264e-16 0)
(3 7.93857e-16 0)
(3 1.2862e-15 0)
(3 1.47233e-15 0)
(3 1.56594e-15 0)
(3 8.27719e-16 0)
(3 1.06647e-15 0)
(3 1.1279e-15 0)
(3 1.40027e-16 0)
(3 4.45306e-18 0)
(3 5.37075e-17 0)
(3 -1.81486e-16 0)
(3 -7.93599e-16 0)
(3 -8.39031e-16 0)
(3 -5.48371e-16 0)
(3 -7.61205e-16 0)
(3 -9.57566e-16 0)
(3 -7.29348e-16 0)
(3 5.60256e-16 0)
(3 6.86927e-16 0)
(3 7.81981e-16 0)
(3 1.42668e-15 0)
(3 1.07383e-15 0)
(3 -4.53997e-16 0)
(3 4.7388e-17 0)
(3 1.16529e-15 0)
(3 1.30182e-15 0)
(3 1.33586e-15 0)
(3 8.13983e-16 0)
(3 2.76611e-16 0)
(3 4.21445e-16 0)
(3 8.17337e-16 0)
(3 2.40402e-16 0)
(3 2.17386e-16 0)
(3 -2.95632e-16 0)
(3 -3.96048e-16 0)
(3 -5.36692e-16 0)
(3 -6.4418e-16 0)
(3 1.33866e-16 0)
(3 7.90798e-18 0)
(3 -2.51127e-15 0)
(3 -2.26451e-15 0)
(3 -9.10989e-16 0)
(3 2.0136e-15 0)
(3 2.30302e-15 0)
(3 2.08178e-15 0)
(3 1.45128e-15 0)
(3 6.24784e-16 0)
(3 7.72328e-17 0)
(3 2.48008e-16 0)
(3 9.44083e-16 0)
(3 1.90997e-15 0)
(3 1.16126e-15 0)
(3 5.53312e-16 0)
(3 -9.91545e-16 0)
(3 -4.913e-16 0)
(3 1.36476e-17 0)
(3 4.65464e-16 0)
(3 1.22737e-16 0)
(3 -7.08098e-17 0)
(3 -1.0108e-17 0)
(3 2.68884e-16 0)
(3 1.82967e-16 0)
(3 -6.00367e-16 0)
(3 -1.50962e-15 0)
(3 -1.13711e-15 0)
(3 -4.37782e-16 0)
(3 7.2155e-16 0)
(3 1.25815e-15 0)
(3 1.05157e-15 0)
(3 4.73515e-16 0)
(3 -6.40305e-16 0)
(3 -1.9882e-15 0)
(3 -8.00632e-16 0)
(3 4.26091e-16 0)
(3 2.06201e-15 0)
(3 2.37108e-15 0)
(3 2.44728e-16 0)
(3 -7.11184e-16 0)
(3 -2.51373e-15 0)
(3 -8.89726e-17 0)
(3 1.86218e-16 0)
(3 8.96453e-16 0)
(3 9.02816e-16 0)
(3 2.55793e-16 0)
(3 2.03636e-16 0)
(3 -8.40719e-16 0)
(3 -1.23792e-15 0)
(3 -3.79002e-16 0)
(3 4.65929e-17 0)
(3 1.13854e-15 0)
(3 1.35056e-15 0)
(3 1.35725e-16 0)
(3 -5.82899e-16 0)
(3 -5.62748e-16 0)
(3 -9.2852e-16 0)
(3 -2.24637e-15 0)
(3 -2.43195e-15 0)
(3 -2.1166e-15 0)
(3 -7.86316e-16 0)
(3 1.51563e-15 0)
(3 -4.65797e-16 0)
(3 -2.97061e-15 0)
(3 -4.31082e-15 0)
(3 -1.19158e-16 0)
(3 -6.54897e-17 0)
(3 1.80174e-16 0)
(3 4.35312e-16 0)
(3 3.04723e-16 0)
(3 -5.21559e-18 0)
(3 -4.98812e-16 0)
(3 -4.40355e-16 0)
(3 6.89809e-18 0)
(3 8.90386e-16 0)
(3 1.77032e-15 0)
(3 7.53037e-16 0)
(3 -4.44669e-16 0)
(3 -6.91711e-16 0)
(3 -1.17783e-17 0)
(3 2.27343e-16 0)
(3 -4.8958e-18 0)
(3 -1.60742e-15 0)
(3 -1.92156e-15 0)
(3 -1.41806e-15 0)
(3 -3.37372e-16 0)
(3 -5.10403e-16 0)
(3 -1.14602e-15 0)
(3 -1.48178e-15 0)
(2.93159 0.0304314 0)
(2.85187 0.0491485 0)
(2.75147 0.156142 0)
(2.67165 0.236198 0)
(2.57686 0.34783 0)
(2.49815 0.446067 0)
(2.42496 0.543032 0)
(2.34861 0.625326 0)
(2.31217 0.725257 0)
(2.25918 0.79758 0)
(2.25016 0.854895 0)
(2.28198 0.885688 0)
(2.32121 0.894703 0)
(2.33641 0.884005 0)
(2.33742 0.882711 0)
(2.35112 0.870526 0)
(2.36168 0.858935 0)
(2.36892 0.855365 0)
(2.38088 0.859372 0)
(2.39361 0.861227 0)
(2.40674 0.862973 0)
(2.42044 0.867039 0)
(2.43051 0.873569 0)
(2.43928 0.879735 0)
(2.99853 0.00154672 0)
(2.99059 0.0114137 0)
(2.96043 0.0492737 0)
(2.9018 0.132629 0)
(2.80499 0.272892 0)
(2.67691 0.465933 0)
(2.53833 0.680591 0)
(2.37584 0.90476 0)
(2.22377 1.06722 0)
(2.17712 1.09997 0)
(2.14085 1.04853 0)
(2.18133 1.00111 0)
(2.25355 0.94659 0)
(2.29682 0.898638 0)
(2.32305 0.862926 0)
(2.35368 0.829482 0)
(2.37031 0.833334 0)
(2.38518 0.849713 0)
(2.39212 0.856165 0)
(2.40261 0.861083 0)
(2.41354 0.866125 0)
(2.42384 0.871307 0)
(2.43128 0.874251 0)
(2.43976 0.878415 0)
(3 4.9301e-07 0)
(3.00002 -1.82755e-05 0)
(2.99996 1.24848e-05 0)
(2.99985 0.000216304 0)
(2.99864 0.00182226 0)
(2.99122 0.0129915 0)
(2.96658 0.0517346 0)
(2.89506 0.178344 0)
(2.78177 0.40188 0)
(2.59204 0.701239 0)
(2.44127 0.861173 0)
(2.33163 0.925439 0)
(2.29847 0.914736 0)
(2.30001 0.901509 0)
(2.30715 0.895454 0)
(2.34847 0.863878 0)
(2.37014 0.861694 0)
(2.3893 0.868616 0)
(2.4018 0.860008 0)
(2.41586 0.857748 0)
(2.43052 0.859734 0)
(2.44138 0.863894 0)
(2.44588 0.86867 0)
(2.45528 0.874463 0)
(3 1.1109e-11 0)
(3 -1.10967e-06 0)
(3 -1.80873e-06 0)
(3 -1.32411e-06 0)
(3.00001 -8.57128e-06 0)
(2.99999 2.27107e-05 0)
(3.00005 -0.000114789 0)
(2.99923 0.00123723 0)
(2.99027 0.0177437 0)
(2.90439 0.152094 0)
(2.70897 0.461798 0)
(2.4998 0.724474 0)
(2.32766 0.899721 0)
(2.26889 0.972447 0)
(2.27855 0.952275 0)
(2.31477 0.911385 0)
(2.35092 0.88417 0)
(2.37816 0.87878 0)
(2.4065 0.864795 0)
(2.42724 0.848072 0)
(2.44077 0.854174 0)
(2.45576 0.863866 0)
(2.45861 0.871194 0)
(2.46792 0.876023 0)
(3 -1.15411e-13 0)
(3 3.21626e-09 0)
(3 -6.97866e-08 0)
(3 -1.19877e-07 0)
(3 -6.05687e-07 0)
(3 -7.25621e-07 0)
(3 -5.54855e-06 0)
(3 -5.36845e-06 0)
(3.00002 -4.40871e-05 0)
(2.99937 0.00062714 0)
(2.98349 0.0227163 0)
(2.88049 0.158157 0)
(2.65025 0.462954 0)
(2.36206 0.820531 0)
(2.33419 0.83377 0)
(2.33129 0.876994 0)
(2.34327 0.881347 0)
(2.3645 0.887066 0)
(2.40185 0.866156 0)
(2.42659 0.855879 0)
(2.44188 0.85552 0)
(2.46549 0.863643 0)
(2.47028 0.864911 0)
(2.47829 0.864048 0)
(3 -5.25336e-14 0)
(3 1.13576e-10 0)
(3 3.59681e-10 0)
(3 -7.66025e-10 0)
(3 -6.88046e-10 0)
(3 -4.01805e-08 0)
(3 -8.9936e-08 0)
(3 -3.60817e-07 0)
(3 -5.79191e-06 0)
(3 -5.56608e-06 0)
(3.00004 -8.20327e-05 0)
(2.99876 0.00180983 0)
(2.96932 0.0376966 0)
(2.80042 0.245515 0)
(2.57721 0.535581 0)
(2.37614 0.784763 0)
(2.30481 0.923381 0)
(2.32638 0.909504 0)
(2.3696 0.871554 0)
(2.40595 0.864754 0)
(2.43733 0.867113 0)
(2.45979 0.863376 0)
(2.46926 0.858218 0)
(2.48213 0.854316 0)
(3 -3.35768e-15 0)
(3 -2.15048e-13 0)
(3 2.99819e-11 0)
(3 2.74652e-11 0)
(3 2.84165e-11 0)
(3 -7.96184e-11 0)
(3 -6.53932e-10 0)
(3 9.47544e-10 0)
(3 -2.40316e-08 0)
(3 -2.62862e-07 0)
(3 -6.15817e-06 0)
(3.00001 -1.39084e-05 0)
(2.99997 3.72151e-05 0)
(2.99569 0.00574092 0)
(2.93821 0.0828633 0)
(2.7783 0.298746 0)
(2.46633 0.685564 0)
(2.3955 0.782138 0)
(2.39298 0.841928 0)
(2.40687 0.855638 0)
(2.42986 0.86282 0)
(2.45202 0.864611 0)
(2.4666 0.859872 0)
(2.48929 0.853125 0)
(3 -3.24171e-15 0)
(3 -2.55441e-14 0)
(3 2.95346e-14 0)
(3 2.32709e-12 0)
(3 4.88332e-12 0)
(3 7.04531e-12 0)
(3 6.07432e-12 0)
(3 7.57234e-12 0)
(3 -4.09619e-12 0)
(3 5.31586e-10 0)
(3 -3.84011e-08 0)
(3 -1.47402e-06 0)
(3 -1.24541e-06 0)
(3.00001 -2.33455e-05 0)
(2.99963 0.000547615 0)
(2.98808 0.0188535 0)
(2.882 0.154853 0)
(2.66989 0.444218 0)
(2.56342 0.638862 0)
(2.42039 0.850266 0)
(2.41938 0.837567 0)
(2.4599 0.848763 0)
(2.47688 0.855049 0)
(2.49153 0.85674 0)
(3 -3.09923e-15 0)
(3 -3.07745e-15 0)
(3 -1.01945e-15 0)
(3 1.03286e-15 0)
(3 9.35014e-14 0)
(3 6.94428e-13 0)
(3 1.69918e-12 0)
(3 2.27017e-12 0)
(3 1.95141e-12 0)
(3 1.04494e-11 0)
(3 3.30691e-10 0)
(3 -5.93432e-09 0)
(3 -9.36837e-08 0)
(3 -3.62195e-06 0)
(3 -2.99208e-06 0)
(3 -1.60193e-05 0)
(2.99772 0.00385734 0)
(2.97174 0.0432472 0)
(2.87153 0.200747 0)
(2.63245 0.543126 0)
(2.58311 0.652502 0)
(2.49628 0.790072 0)
(2.48325 0.876562 0)
(2.47863 0.853689 0)
(3 -2.52741e-15 0)
(3 -1.99858e-15 0)
(3 -2.23908e-15 0)
(3 -1.27635e-15 0)
(3 -2.52874e-15 0)
(3 2.82582e-15 0)
(3 5.99926e-14 0)
(3 1.53165e-13 0)
(3 2.62694e-13 0)
(3 1.91552e-12 0)
(3 4.8808e-11 0)
(3 6.3527e-11 0)
(3 -5.26516e-10 0)
(3 -7.34871e-08 0)
(3 -4.67356e-07 0)
(3 -1.47565e-06 0)
(3.00001 -1.3655e-05 0)
(2.99989 0.000210838 0)
(2.99539 0.00780977 0)
(2.94838 0.078678 0)
(2.83382 0.285914 0)
(2.69536 0.52071 0)
(2.5648 0.759036 0)
(2.56803 0.746478 0)
(3 4.26742e-16 0)
(3 -9.40493e-17 0)
(3 -3.37284e-16 0)
(3 -3.83704e-15 0)
(3 -5.0238e-15 0)
(3 -5.08085e-15 0)
(3 -1.52499e-15 0)
(3 -1.08348e-15 0)
(3 1.15853e-14 0)
(3 1.03526e-14 0)
(3 1.13009e-12 0)
(3 1.11206e-11 0)
(3 8.25588e-12 0)
(3 3.06377e-10 0)
(3 -5.87447e-09 0)
(3 -7.92428e-08 0)
(3 -2.52797e-06 0)
(3 -1.98384e-06 0)
(3 -6.98576e-06 0)
(2.99943 0.00107355 0)
(2.99077 0.0177851 0)
(2.94782 0.0974164 0)
(2.79764 0.358739 0)
(2.73552 0.524288 0)
(3 1.71909e-15 0)
(3 4.83558e-16 0)
(3 -4.17685e-16 0)
(3 -1.67417e-15 0)
(3 -3.89521e-15 0)
(3 -3.99865e-15 0)
(3 -3.09441e-15 0)
(3 -2.90496e-15 0)
(3 -1.44447e-16 0)
(3 9.27391e-16 0)
(3 -1.68202e-15 0)
(3 1.31495e-13 0)
(3 1.29847e-12 0)
(3 4.92807e-11 0)
(3 2.73376e-11 0)
(3 -4.32672e-11 0)
(3 -6.62668e-08 0)
(3 -2.62081e-07 0)
(3 -2.21158e-06 0)
(3 -3.22601e-06 0)
(2.99998 2.37076e-05 0)
(2.99891 0.00234163 0)
(2.98367 0.0311824 0)
(2.94733 0.113246 0)
(3 1.89295e-15 0)
(3 1.70643e-15 0)
(3 9.16576e-16 0)
(3 4.95864e-16 0)
(3 -2.36845e-15 0)
(3 -2.85228e-15 0)
(3 -3.20657e-15 0)
(3 -1.84614e-15 0)
(3 -4.04209e-16 0)
(3 -7.47201e-17 0)
(3 -1.91766e-16 0)
(3 5.90709e-16 0)
(3 3.33623e-14 0)
(3 1.8923e-12 0)
(3 1.13453e-11 0)
(3 9.09445e-12 0)
(3 8.46602e-11 0)
(3 -4.3722e-09 0)
(3 -7.54224e-08 0)
(3 -5.35745e-07 0)
(3 -3.30449e-07 0)
(3 -5.11724e-06 0)
(2.9998 0.000585416 0)
(2.99961 0.000530727 0)
(3 4.48447e-16 0)
(3 9.274e-16 0)
(3 1.95772e-16 0)
(3 -1.33043e-15 0)
(3 -1.81678e-15 0)
(3 -1.43805e-15 0)
(3 -2.25307e-15 0)
(3 -1.89757e-15 0)
(3 -1.60018e-15 0)
(3 -1.1242e-15 0)
(3 8.30241e-16 0)
(3 -7.80581e-18 0)
(3 1.52642e-15 0)
(3 1.44203e-15 0)
(3 2.14048e-13 0)
(3 1.54027e-12 0)
(3 2.48472e-11 0)
(3 -3.59482e-12 0)
(3 8.1198e-11 0)
(3 -1.42863e-08 0)
(3 -5.81785e-08 0)
(3 -1.1481e-06 0)
(3 7.8172e-07 0)
(3.00003 -4.17753e-05 0)
(3 -1.2738e-15 0)
(3 -8.56492e-16 0)
(3 2.23019e-16 0)
(3 -2.00377e-16 0)
(3 -7.50019e-16 0)
(3 -4.47169e-16 0)
(3 -6.10533e-16 0)
(3 -1.11345e-15 0)
(3 -2.22201e-15 0)
(3 -3.68959e-15 0)
(3 -3.00961e-15 0)
(3 -1.84117e-15 0)
(3 -1.53865e-15 0)
(3 -1.0759e-15 0)
(3 -5.01142e-17 0)
(3 7.9284e-14 0)
(3 2.00352e-12 0)
(3 2.79311e-12 0)
(3 1.69759e-12 0)
(3 -1.4139e-10 0)
(3 -3.14752e-09 0)
(3 -5.92801e-08 0)
(3 -5.30475e-08 0)
(3.00001 -2.06141e-05 0)
(3 -1.38284e-15 0)
(3 -1.07539e-15 0)
(3 5.72238e-16 0)
(3 6.92581e-16 0)
(3 7.17135e-16 0)
(3 -2.21814e-17 0)
(3 -3.05934e-16 0)
(3 -5.94072e-16 0)
(3 -2.30583e-15 0)
(3 -2.21293e-15 0)
(3 -2.07926e-15 0)
(3 -2.16256e-15 0)
(3 -2.28707e-15 0)
(3 -2.87663e-15 0)
(3 -1.7373e-15 0)
(3 -1.24666e-15 0)
(3 2.83276e-14 0)
(3 5.9603e-14 0)
(3 7.0276e-13 0)
(3 -5.82706e-13 0)
(3 -1.57658e-11 0)
(3 -2.38553e-10 0)
(3 -1.01977e-08 0)
(3 -1.08201e-06 0)
(3 -7.55753e-16 0)
(3 7.2842e-16 0)
(3 8.97527e-16 0)
(3 9.5948e-16 0)
(3 1.17927e-15 0)
(3 1.00294e-15 0)
(3 6.84623e-16 0)
(3 -7.40114e-16 0)
(3 -1.05956e-15 0)
(3 -5.20354e-16 0)
(3 -3.79406e-16 0)
(3 -6.83219e-16 0)
(3 -2.23631e-16 0)
(3 7.78879e-16 0)
(3 5.32316e-16 0)
(3 5.21831e-16 0)
(3 -2.40163e-14 0)
(3 -6.2314e-14 0)
(3 -5.31552e-13 0)
(3 5.93841e-13 0)
(3 1.60329e-11 0)
(3 2.38718e-10 0)
(3 1.01978e-08 0)
(3 1.08201e-06 0)
(3 -1.9332e-16 0)
(3 2.06554e-16 0)
(3 9.1084e-16 0)
(3 2.20185e-15 0)
(3 2.21694e-15 0)
(3 2.02272e-15 0)
(3 1.7125e-15 0)
(3 8.58578e-16 0)
(3 5.52868e-17 0)
(3 -1.23742e-15 0)
(3 -1.14683e-15 0)
(3 -2.98409e-16 0)
(3 3.95337e-16 0)
(3 2.31244e-15 0)
(3 2.48122e-15 0)
(3 -7.67948e-14 0)
(3 -1.97618e-12 0)
(3 -2.80421e-12 0)
(3 -1.7272e-12 0)
(3 1.41247e-10 0)
(3 3.1474e-09 0)
(3 5.928e-08 0)
(3 5.30475e-08 0)
(3.00001 2.06141e-05 0)
(3 -5.88857e-16 0)
(3 -2.1939e-15 0)
(3 -1.5704e-15 0)
(3 1.03701e-15 0)
(3 3.59655e-15 0)
(3 4.49213e-15 0)
(3 2.56374e-15 0)
(3 6.4085e-16 0)
(3 -7.17797e-16 0)
(3 -9.77033e-16 0)
(3 -9.50067e-16 0)
(3 4.41521e-16 0)
(3 -7.02203e-18 0)
(3 5.65929e-16 0)
(3 -2.11107e-13 0)
(3 -1.53776e-12 0)
(3 -2.48424e-11 0)
(3 3.60135e-12 0)
(3 -8.1211e-11 0)
(3 1.42863e-08 0)
(3 5.81785e-08 0)
(3 1.1481e-06 0)
(3 -7.8172e-07 0)
(3.00003 4.17753e-05 0)
(3 4.08653e-16 0)
(3 -1.70225e-15 0)
(3 -2.43457e-15 0)
(3 5.81158e-16 0)
(3 1.94858e-15 0)
(3 2.8673e-15 0)
(3 2.30971e-15 0)
(3 -1.33123e-15 0)
(3 -1.55106e-15 0)
(3 -9.92711e-16 0)
(3 2.8581e-16 0)
(3 1.22734e-15 0)
(3 -2.7351e-14 0)
(3 -1.88484e-12 0)
(3 -1.13439e-11 0)
(3 -9.09277e-12 0)
(3 -8.46552e-11 0)
(3 4.37221e-09 0)
(3 7.54224e-08 0)
(3 5.35745e-07 0)
(3 3.30449e-07 0)
(3 5.11724e-06 0)
(2.9998 -0.000585416 0)
(2.99961 -0.000530727 0)
(3 1.22933e-15 0)
(3 1.40553e-16 0)
(3 -3.61253e-16 0)
(3 1.69524e-15 0)
(3 2.34719e-15 0)
(3 1.96161e-15 0)
(3 2.29182e-15 0)
(3 9.97321e-16 0)
(3 -1.08928e-15 0)
(3 -8.88697e-16 0)
(3 2.43745e-15 0)
(3 -1.25894e-13 0)
(3 -1.29223e-12 0)
(3 -4.92789e-11 0)
(3 -2.7337e-11 0)
(3 4.32674e-11 0)
(3 6.62668e-08 0)
(3 2.62081e-07 0)
(3 2.21158e-06 0)
(3 3.22601e-06 0)
(2.99998 -2.37076e-05 0)
(2.99891 -0.00234163 0)
(2.98367 -0.0311824 0)
(2.94733 -0.113246 0)
(3 1.52379e-15 0)
(3 1.06635e-15 0)
(3 9.88176e-16 0)
(3 4.65121e-16 0)
(3 1.91789e-16 0)
(3 3.56013e-16 0)
(3 6.75903e-16 0)
(3 -7.00557e-16 0)
(3 -1.28147e-14 0)
(3 -1.03484e-14 0)
(3 -1.12906e-12 0)
(3 -1.11211e-11 0)
(3 -8.25811e-12 0)
(3 -3.06379e-10 0)
(3 5.87447e-09 0)
(3 7.92428e-08 0)
(3 2.52797e-06 0)
(3 1.98384e-06 0)
(3 6.98576e-06 0)
(2.99943 -0.00107355 0)
(2.99077 -0.0177851 0)
(2.94782 -0.0974164 0)
(2.79764 -0.358739 0)
(2.73552 -0.524288 0)
(3 1.97974e-15 0)
(3 2.43656e-15 0)
(3 2.3305e-15 0)
(3 -1.26321e-15 0)
(3 -1.60831e-15 0)
(3 -6.24815e-15 0)
(3 -6.31241e-14 0)
(3 -1.5042e-13 0)
(3 -2.59218e-13 0)
(3 -1.91425e-12 0)
(3 -4.88097e-11 0)
(3 -6.3531e-11 0)
(3 5.26513e-10 0)
(3 7.34871e-08 0)
(3 4.67356e-07 0)
(3 1.47565e-06 0)
(3.00001 1.3655e-05 0)
(2.99989 -0.000210838 0)
(2.99539 -0.00780977 0)
(2.94838 -0.078678 0)
(2.83382 -0.285914 0)
(2.69536 -0.52071 0)
(2.5648 -0.759036 0)
(2.56803 -0.746478 0)
(3 1.4155e-15 0)
(3 2.20095e-15 0)
(3 5.64342e-16 0)
(3 -1.70315e-15 0)
(3 -9.27497e-14 0)
(3 -6.96509e-13 0)
(3 -1.70012e-12 0)
(3 -2.2684e-12 0)
(3 -1.94967e-12 0)
(3 -1.04491e-11 0)
(3 -3.30694e-10 0)
(3 5.93431e-09 0)
(3 9.36837e-08 0)
(3 3.62195e-06 0)
(3 2.99208e-06 0)
(3 1.60193e-05 0)
(2.99772 -0.00385734 0)
(2.97174 -0.0432472 0)
(2.87153 -0.200747 0)
(2.63245 -0.543126 0)
(2.58311 -0.652502 0)
(2.49628 -0.790072 0)
(2.48325 -0.876562 0)
(2.47863 -0.853689 0)
(3 -2.9767e-16 0)
(3 2.21118e-14 0)
(3 -3.12009e-14 0)
(3 -2.32888e-12 0)
(3 -4.87762e-12 0)
(3 -7.0427e-12 0)
(3 -6.07113e-12 0)
(3 -7.56851e-12 0)
(3 4.09968e-12 0)
(3 -5.31583e-10 0)
(3 3.84011e-08 0)
(3 1.47402e-06 0)
(3 1.24541e-06 0)
(3.00001 2.33455e-05 0)
(2.99963 -0.000547615 0)
(2.98808 -0.0188535 0)
(2.882 -0.154853 0)
(2.66989 -0.444218 0)
(2.56342 -0.638862 0)
(2.42039 -0.850266 0)
(2.41938 -0.837567 0)
(2.4599 -0.848763 0)
(2.47688 -0.855049 0)
(2.49153 -0.85674 0)
(3 1.0508e-15 0)
(3 2.1281e-13 0)
(3 -2.99835e-11 0)
(3 -2.74646e-11 0)
(3 -2.84138e-11 0)
(3 7.96206e-11 0)
(3 6.53934e-10 0)
(3 -9.47542e-10 0)
(3 2.40316e-08 0)
(3 2.62863e-07 0)
(3 6.15817e-06 0)
(3.00001 1.39084e-05 0)
(2.99997 -3.72151e-05 0)
(2.99569 -0.00574092 0)
(2.93821 -0.0828633 0)
(2.7783 -0.298746 0)
(2.46633 -0.685564 0)
(2.3955 -0.782138 0)
(2.39298 -0.841928 0)
(2.40687 -0.855638 0)
(2.42986 -0.86282 0)
(2.45202 -0.864611 0)
(2.4666 -0.859872 0)
(2.48929 -0.853125 0)
(3 5.2468e-14 0)
(3 -1.13576e-10 0)
(3 -3.59684e-10 0)
(3 7.66023e-10 0)
(3 6.88048e-10 0)
(3 4.01805e-08 0)
(3 8.9936e-08 0)
(3 3.60817e-07 0)
(3 5.79191e-06 0)
(3 5.56608e-06 0)
(3.00004 8.20327e-05 0)
(2.99876 -0.00180983 0)
(2.96932 -0.0376966 0)
(2.80042 -0.245515 0)
(2.57721 -0.535581 0)
(2.37614 -0.784763 0)
(2.30481 -0.923381 0)
(2.32638 -0.909504 0)
(2.3696 -0.871554 0)
(2.40595 -0.864754 0)
(2.43733 -0.867113 0)
(2.45979 -0.863376 0)
(2.46926 -0.858218 0)
(2.48213 -0.854316 0)
(3 1.13283e-13 0)
(3 -3.21627e-09 0)
(3 6.97866e-08 0)
(3 1.19877e-07 0)
(3 6.05687e-07 0)
(3 7.25621e-07 0)
(3 5.54855e-06 0)
(3 5.36845e-06 0)
(3.00002 4.40871e-05 0)
(2.99937 -0.00062714 0)
(2.98349 -0.0227163 0)
(2.88049 -0.158157 0)
(2.65025 -0.462954 0)
(2.36206 -0.820531 0)
(2.33419 -0.83377 0)
(2.33129 -0.876994 0)
(2.34327 -0.881347 0)
(2.3645 -0.887066 0)
(2.40185 -0.866156 0)
(2.42659 -0.855879 0)
(2.44188 -0.85552 0)
(2.46549 -0.863643 0)
(2.47028 -0.864911 0)
(2.47829 -0.864048 0)
(3 -1.11161e-11 0)
(3 1.10967e-06 0)
(3 1.80873e-06 0)
(3 1.32411e-06 0)
(3.00001 8.57129e-06 0)
(2.99999 -2.27107e-05 0)
(3.00005 0.000114789 0)
(2.99923 -0.00123723 0)
(2.99027 -0.0177437 0)
(2.90439 -0.152094 0)
(2.70897 -0.461798 0)
(2.4998 -0.724474 0)
(2.32766 -0.899721 0)
(2.26889 -0.972447 0)
(2.27855 -0.952275 0)
(2.31477 -0.911385 0)
(2.35092 -0.88417 0)
(2.37816 -0.87878 0)
(2.4065 -0.864795 0)
(2.42724 -0.848072 0)
(2.44077 -0.854174 0)
(2.45576 -0.863866 0)
(2.45861 -0.871194 0)
(2.46792 -0.876023 0)
(3 -4.9301e-07 0)
(3.00002 1.82755e-05 0)
(2.99996 -1.2485e-05 0)
(2.99985 -0.000216304 0)
(2.99864 -0.00182226 0)
(2.99122 -0.0129915 0)
(2.96658 -0.0517346 0)
(2.89506 -0.178344 0)
(2.78177 -0.40188 0)
(2.59204 -0.701239 0)
(2.44127 -0.861173 0)
(2.33163 -0.925439 0)
(2.29847 -0.914736 0)
(2.30001 -0.901509 0)
(2.30715 -0.895454 0)
(2.34847 -0.863878 0)
(2.37014 -0.861694 0)
(2.3893 -0.868616 0)
(2.4018 -0.860008 0)
(2.41586 -0.857748 0)
(2.43052 -0.859734 0)
(2.44138 -0.863894 0)
(2.44588 -0.86867 0)
(2.45528 -0.874463 0)
(2.99853 -0.00154672 0)
(2.99059 -0.0114137 0)
(2.96043 -0.0492737 0)
(2.9018 -0.132629 0)
(2.80499 -0.272892 0)
(2.67691 -0.465933 0)
(2.53833 -0.680591 0)
(2.37584 -0.90476 0)
(2.22377 -1.06722 0)
(2.17712 -1.09997 0)
(2.14085 -1.04853 0)
(2.18133 -1.00111 0)
(2.25355 -0.94659 0)
(2.29682 -0.898638 0)
(2.32305 -0.862926 0)
(2.35368 -0.829482 0)
(2.37031 -0.833334 0)
(2.38518 -0.849713 0)
(2.39212 -0.856165 0)
(2.40261 -0.861083 0)
(2.41354 -0.866125 0)
(2.42384 -0.871307 0)
(2.43128 -0.874251 0)
(2.43976 -0.878415 0)
(2.93159 -0.0304314 0)
(2.85187 -0.0491485 0)
(2.75147 -0.156142 0)
(2.67165 -0.236198 0)
(2.57686 -0.34783 0)
(2.49815 -0.446067 0)
(2.42496 -0.543032 0)
(2.34861 -0.625326 0)
(2.31217 -0.725257 0)
(2.25918 -0.79758 0)
(2.25016 -0.854895 0)
(2.28198 -0.885688 0)
(2.32121 -0.894703 0)
(2.33641 -0.884005 0)
(2.33742 -0.882711 0)
(2.35112 -0.870526 0)
(2.36168 -0.858935 0)