/*--------------------------------*- C++ -*----------------------------------*\
  =========                 |
  \\      /  F ield         | OpenFOAM: The Open Source CFD Toolbox
   \\    /   O peration     | Website:  https://openfoam.org
    \\  /    A nd           | Version:  7
     \\/     M anipulation  |
\*---------------------------------------------------------------------------*/
FoamFile
{
    version     2.0;
    format      ascii;
    class       volScalarField;
    location    "2";
    object      p;
}
// * * * * * * * * * * * * * * * * * * * * * * * * * * * * * * * * * * * * * //

dimensions      [1 -1 -2 0 0 0 0];

internalField   nonuniform List<scalar> 
18432
(
1
1
1
1
1
1
1
1
1
1
1
1
1
1
1
1
1
1
1
1
1
1
1
1
1
1
1
1
1
1
1
1
1
1
1
1
1
1
1
1
1
1
1
1
1
1
1
1
1
1
1
1
1
1
1
1
1
1
1
1
1
1
1
1
1
1
1
1
1
1
1
1
1
1
1
1
1
1
1
1
1
1
1
1
1
1
1
1
1
1
1
1
1
1
1
1
1
1
1
1
1
1
1
1
1
1
1
1
1
1
1
1
1
1
1
1
1
1
1
1
1
1
1
1
1
1
1
1
1
1
1
1
1
1
1
1
1
1
1
1
1
1
1
1
1
1
1
1
1
1
1
1
1
1
1
1
1
1
1
1
1
1
1
1
1
1
1
1
1
1
1
1
1
1
1
1
1
1
1
1
1
1
1
1
1
1
1
1
1
1
1
1
1
1
1
1
1
1
1
1
1
1
1
1
1
1
1
1
1
1
1
1
1
1
1
1
1
1
1
1
1
1
1
1
1
1
1
1
1
1
1
1
1
1
1
1
1
1
1
1
1
1
1
1
1
1
1
1
1
1
1
1
1
1
1
1
1
1
1
1
1
1
1
1
1
1
1
1
1
1
1
1
1
1
1
1
1
1
1
1
1
1
1
1
1
1
1
1
1
1
1
1
1
1
1
1
1
1
1
1
1
1
1
1
1
1
1
1
1
1
1
1
1
1
1
1
1
1
1
1
1
1
1
1
1
1
1
1
1
1
1
1
1
1
1
1
1
1
1
1
1
1
1
1
1
1
1
1
1
1
1
1
1
1
1
1
1
1
1
1
1
1
1
1
1
1
1
1
1
1
1
1
1
1
1
1
1
1
1
1
1
1
1
1
1
1
1
1
1
1
1
1
1
1
1
1
1
1
1
1
1
1
1
1
1
1
1
1
1
1
1
1
1
1
1
1
1
1
1
1
1
1
1
1
1
1
1
1
1
1
1
1
1
1
1
1
1
1
1
1
1
1
1
1
1
1
1
1
1
1
1
1
1
1
1
1
1
1
1
1
1
1
1
1
1
1
1
1
1
1
1
1
1
1
1
1
1
1
1
1
1
1
1
1
1
1
1
1
1
1
1
1
1
1
1
1
1
1
1
1
1
1
1
1
1
1
1
1
1
1
1
1
1
1
1
1
1
1
1
1
1
1
1
1
1
1
1
1
1
1
1
1
1
1
1
1
1
1
1
1
1
1
1
1
1
1
1
1
1
1
1
1
1
1
1
1
1
1
1
1
1
1
1
1
1
1
1
1
1
1
1
1
1
1
1
1
1
1
1
1
1
1
1
1
1
1
1
1
1
1
1
1
1
1
1
1
1
1
1
1
1
1
1
1
1
1
1
1
1
1
1
1
1
1
1
1
1
1
1
1
1
1
1
1
1
1
1
1
1
1
1
1
1
1
1
1
1
1
1
1
1
1
1
1
1
1
1
1
1
1
1
1
1
1
1
1
1
1
1
1
1
1
1
1
1
1
1
1
1
1
1
1
1
1
1
1
1
1
1
1
1
1
1
1
1
1
1
1
1
1
1
1
1
1
1
1
1
1
1
1
1
1
1
1
1
1
1
1
1
1
1
1
1
1
1
1
1
1
1
1
1
1
1
1
1
1
1
1
1
1
1
1
1
1
1
1
1
1
1
1
1
1
1
1
1
1
1
1
1
1
1
1
1
1
1
1
1
1
1
1
1
1
1
1
1
1
1
1
1
1
1
1
1
1
1
1
1
1
1
1
1
1
1
1
1
1
1
1
1
1
1
1
1
1
1
1
1
1
1
1
1
1
1
1
1
1
1
1
1
1
1
1
1
1
1
1
1
1
1
1
1
1
1
1
1
1
1
1
1
1
1
1
1
1
1
1
1
1
1
1
1
1
1
1
1
1
1
1
1
1
1
1
1
1
1
1
1
1
1
1
1
1
1
1
1
1
1
1
1
1
1
1
1
1
1
1
1
1
1
1
1
1
1
1
1
1
1
1
1
1
1
1
1
1
1
1
1
1
1
1
1
1
1
1
1
1
1
1
1
1
1
1
1
1
1
1
1
1
1
1
1
1
1
1
1
1
1
1
1
1
1
1
1
1
1
1
1
1
1
1
1
1
1
1
1
1
1
1
1
1
1
1
1
1
1
1
1
1
1
1
1
1
1
1
1
1
1
1
1
1
1
1
1
1
1
1
1
1
1
1
1
1
1
1
1
1
1
1
1
1
1
1
1
1
1
1
1
1
1
1
1
1
1
1
1
1
1
1
1
1
1
1
1
1
1
1
1
1
1
1
1
1
1
1
1
1
1
1
1
1
1
1
1
1
1
1
1
1
1
1
1
1
1
1
1
1
1
1
1
1
1
1
1
1
1
1
1
1
1
1
1
1
1
1
1
1
1
1
1
1
1
1
1
1
1
1
1
1
1
1
1
1
1
1
1
1
1
1
1
1
1
1
1
1
1
1
1
1
1
1
1
1
1
1
1
1
1
1
1
1
1
1
1
1
1
1
1
1
1
1
1
1
1
1
1
1
1
1
1
1
1
1
1
1
1
1
1
1
1
1
1
1
1
1
1
1
1
1
1
1
1
1
1
1
1
1
1
1
1
1
1
1
1
1
1
1
1
1
1
1
1
1
1
1
1
1
1
1
1
1
1
1
1
1
1
1
1
1
1
1
1
1
1
1
1
1
1
1
1
1
1
1
1
1
1
1
1
1
1
1
1
1
1
1
1
1
1
1
1
1
1
1
1
1
1
1
1
1
1
1
1
1
1
1
1
1
1
1
1
1
1
1
1
1
1
1
1
1
1
1
1
1
1
1
1
1
1
1
1
1
1
1
1
1
1
1
1
1
1
1
1
1
1
1
1
1
1
1
1
1
1
1
1
1
1
1
1
1
1
1
1
1
1
1
1
1
1
1
1
1
1
1
1
1
1
1
1
1
1
1
1
1
1
1
1
1
1
1
1
1
1
1
1
1
1
1
1
1
1
1
1
1
1
1
1
1
1
1
1
1
1
1
1
1
1
1
1
1
1
1
1
1
1
1
1
1
1
1
1
1
1
1
1
1
1
1
1
1
1
1
1
1
1
1
1
1
1
1
1
1
1
1
1
1
1
1
1
1
1
1
1
1
1
1
1
1
1
1
1
1
1
1
1
1
1
1
1
1
1
1
1
1
1
1
1
1
1
1
1
1
1
1
1
1
1
1
1
1
1
1
1
1
1
1
1
1
1
1
1
1
1
1
1
1
1
1
1
1
1
1
1
1
1
1
1
1
1
1
1
1
1
1
1
1
1
1
1
1
1
1
1
1
1
1
1
1
1
1
1
1
1
1
1
1
1
1
1
1
1
1
1
1
1
1
1
1
1
1
1
1
1
1
1
1
1
1
1
1
1
1
1
1
1
1
1
1
1
1
1
1
1
1
1
1
1
1
1
1
1
1
1
1
1
1
1
1
1
1
1
1
1
1
1
1
1
1
1
1
1
1
1
1
1
1
1
1
1
1
1
1
1
1
1
1
1
1
1
1
1
1
1
1
1
1
1
1
1
1
1
1
1
1
1
1
1
1
1
1
1
1
1
1
1
1
1
1
1
1
1
1
1
1
1
1
1
1
1
1
1
1
1
1
1
1
1
1
1
1
1
1
1
1
1
1
1
1
1
1
1
1
1
1
1
1
1
1
1
1
1
1
1
1
1
1
1
1
1
1
1
1
1
1
1
1
1
1
1
1
1
1
1
1
1
1
1
1
1
1
1
1
1
1
1
1
1
1
1
1
1
1
1
1
1
1
1
1
1
1
1
1
1
1
1
1
1
1
1
1
1
1
1
1
1
1
1
1
1
1
1
1
1
1
1
1
1
1
1
1
1
1
1
1
1
1
1
1
1
1
1
1
1
1
1
1
1
1
1
1
1
1
1
1
1
1
1
1
1
1
1
1
1
1
1
1
1
1
1
1
1
1
1
1
1
1
1
1
1
1
1
1
1
1
1
1
1
1
1
1
1
1
1
1
1
1
1
1
1
1
1
1
1
1
1
1
1
1
1
1
1
1
1
1
1
1
1
1
1
1
1
1
1
1
1
1
1
1
1
1
1
1
1
1
1
1
1
1
1
1
1
1
1
1
1
1
1
1
1
1
1
1
1
1
1
1
1
1
1
1
1
1
1
1
1
1
1
1
1
1
1
1
1
1
1
1
1
1
1
1
1
1
1
1
1
1
1
1
1
1
1
1
1
1
1
1
1
1
1
1
1
1
1
1
1
1
1
1
1
1
1
1
1
1
1
1
1
1
1
1
1
1
1
1
1
1
1
1
1
1
1
1
1
1
1
1
1
1
1
1
1
1
1
1
1
1
1
1
1
1
1
1
1
1
1
1
1
1
1
1
1
1
1
1
1
1
1
1
1
1
1
1
1
1
1
1
1
1
1
1
1
1
1
1
1
1
1
1
1
1
1
1
1
1
1
1
1
1
1
1
1
1
1
1
1
1
1
1
1
1
1
1
1
1
1
1
1
1
1
1
1
1
1
1
1
1
1
1
1
1
1
1
1
1
1
1
1
1
1
1
1
1
1
1
1
1
1
1
1
1
1
1
1
1
1
1
1
1
1
1
1
1
1
1
1
1
1
1
1
1
1
1
1
1
1
1
1
1
1
1
1
1
1
1
1
1
1
1
1
1
1
1
1
1
1
1
1
1
1
1
1
1
1
1
1
1
1
1
1
1
1
1
1
1
1
1
1
1
1
1
1
1
1
1
1
1
1
1
1
1
1
1
1
1
1
1
1
1
1
1
1
1
1
1
1
1
1
1
1
1
1
1
1
1
1
1
1
1
1
1
1
1
1
1
1
1
1
1
1
1
1
1
1
1
1
1
1
1
1
1
1
1
1
1
1
1
1
1
1
1
1
1
1
1
1
1
1
1
1
1
1
1
1
1
1
1
1
1
1
1
1
1
1
1
1
1
1
1
1
1
1
1
1
1
1
1
1
1
1
1
1
1
1
1
1
1
1
1
1
1
1
1
1
1
1
1
1
1
1
1
1
1
1
1
1
1
1
1
1
1
1
1
1
1
1
1
1
1
1
1
1
1
1
1
1
1
1
1
1
1
1
1
1
1
1
1
1
1
1
1
1
1
1
1
1
1
1
1
1
1
1
1
1
1
1
1
1
1
1
1
1
1
1
1
1
1
1
1
1
1
1
1
1
1
1
1
1
1
1
1
1
1
1
1
1
1
1
1
1
1
1
1
1
1
1
1
1
1
1
1
1
1
1
1
1
1
1
1
1
1
1
1
1
1
1
1
1
1
1
1
1
1
1
1
1
1
1
1
1
1
1
1
1
1
1
1
1
1
1
1
1
1
1
1
1
1
1
1
1
1
1
1
1
1
1
1
1
1
1
1
1
1
1
1
1
1
1
1
1
1
1
1
1
1
1
1
1
1
1
1
1
1
1
1
1
1
1
1
1
1
1
1
1
1
1
1
1
1
1
1
1
1
1
1
1
1
1
1
1
1
1
1
1
1
1
1
1
1
1
1
1
1
1
1
1
1
1
1
1
1
1
1
1
1
1
1
1
1
1
1
1
1
1
1
1
1
1
1
1
1
1
1
1
1
1
1
1
1
1
1
1
1
1
1
1
1
1
1
1
1
1
1
1
1
1
1
1
1
1
1
1
1
1
1
1
1
1
1
1
1
1
1
1
1
1
1
1
1
1
1
1
1
1
1
1
1
1
1
1
1
1
1
1
1
1
1
1
1
1
1
1
1
1
1
1
1
1
1
1
1
1
1
1
1
1
1
1
1
1
1
1
1
1
1
1
1
1
1
1
1
1
1
1
1
1
1
1
1
1
1
1
1
1
1
1
1
1
1
1
1
1
1
1
1
1
1
1
1
1
1
1
1
1
1
1
1
1
1
1
1
1
1
1
1
1
1
1
1
1
1
1
1
1
1
1
1
1
1
1
1
1
1
1
1
1
1
1
1
1
1
1
1
1
1
1
1
1
1
1
1
1
1
1
1
1
1
1
1
1
1
1
1
1
1
1
1
1
1
1
1
1
1
1
1
1
1
1
1
1
1
1
1
1
1
1
1
1
1
1
1
1
1
1
1
1
1
1
1
1
1
1
1
1
1
1
1
1
1
1
1
1
1
1
1
1
1
1
1
1
1
1
1
1
1
1
1
1
1
1
1
1
1
1
1
1
1
1
1
1
1
1
1
1
1
1
1
1
1
1
1
1
1
1
1
1
1
1
1
1
1
1
1
1
1
1
1
1
1
1
1
1
1
1
1
1
1
1
1
1
1
1
1
1
1
1
1
1
1
1
1
1
1
1
1
1
1
1
1
1
1
1
1
1
1
1
1
1
1
1
1
1
1
1
1
1
1
1
1
1
1
1
1
1
1
1
1
1
1
1
1
1
1
1
1
1
1
1
1
1
1
1
1
1
1
1
1
1
1
1
1
1
1
1
1
1
1
1
1
1
1
1
1
1
1
1
1
1
1
1
1
1
1
1
1
1
1
1
1
1
1
1
1
1
1
1
1
1
1
1
1
1
1
1
1
1
1
1
1
1
1
1
1
1
1
1
1
1
1
1
1
1
1
1
1
1
1
1
1
1
1
1
1
1
1
1
1
1
1
1
1
1
1
1
1
1
1
1
1
1
1
1
1
1
1
1
1
1
1
1
1
1
1
1
1
1
1
1
1
1
1
1
1
1
1
1
1
1
1
1
1
1
1
1
1
1
1
1
1
1
1
1
1
1
1
1
1
1
1
1
1
1
1
1
1
1
1
1
1
1
1
1
1
1
1
1
1
1
1
1
1
1
1
1
1
1
1
1
1
1
1
1
1
1
1
1
1
1
1
1
1
1
1
1
1
1
1
1
1
1
1
1
1
1
1
1
1
1
1
1
1
1
1
1
1
1.28988
1.74965
2.33603
2.89086
3.53948
4.19656
4.65268
5.09548
5.34334
5.26704
4.94779
4.46882
4.05869
3.78372
3.66865
3.58477
3.56319
3.5848
3.61753
3.64981
3.68564
3.71002
3.72768
3.73598
3.74103
3.74711
3.75536
3.76235
3.76433
3.76504
3.76952
3.7812
3.79387
3.79878
3.7981
3.7948
3.78691
3.77723
3.77075
3.7681
3.76782
3.76784
3.76871
3.77035
3.77073
3.77044
3.76764
3.76507
1.00248
1.01512
1.06805
1.20757
1.40988
1.76557
2.22029
2.75592
3.31138
3.73468
3.90957
4.03371
4.03827
3.96177
3.84748
3.77721
3.73688
3.71137
3.67458
3.6661
3.67577
3.69825
3.72573
3.74871
3.75718
3.75899
3.75613
3.75873
3.75975
3.76004
3.76246
3.7681
3.77311
3.77732
3.7789
3.77753
3.7741
3.77026
3.76869
3.76897
3.77001
3.77305
3.77758
3.77908
3.77899
3.77776
3.77349
3.77021
1
0.999978
1.00004
1.0001
1.00136
1.01312
1.06309
1.21933
1.60815
2.33589
3.33585
3.90316
4.30921
4.32709
4.2618
4.12128
3.95594
3.76879
3.66686
3.66304
3.67368
3.69238
3.72493
3.75618
3.76592
3.76857
3.76858
3.76642
3.76849
3.77188
3.77391
3.77531
3.77448
3.77294
3.76977
3.76505
3.76103
3.75927
3.75955
3.76111
3.76467
3.77138
3.77941
3.78331
3.78395
3.78336
3.78043
3.77789
1
1
1
1
0.999998
0.999993
1.00005
1.00007
1.00589
1.06768
1.4271
2.13137
3.19399
3.84083
4.02884
4.02735
3.93782
3.87753
3.82308
3.75894
3.7384
3.71277
3.69852
3.70342
3.7171
3.73381
3.74597
3.7575
3.76736
3.77366
3.77899
3.78152
3.78109
3.77993
3.7762
3.77154
3.76884
3.76668
3.76595
3.76729
3.77081
3.77624
3.7809
3.78214
3.78037
3.77743
3.77331
3.7715
1
1
1
1
1
1
1
1
1
0.999926
1.00208
1.04488
1.28859
2.00397
2.81942
3.73334
3.99588
4.02052
3.98691
3.92173
3.80691
3.73713
3.69496
3.67179
3.67174
3.68201
3.69545
3.71322
3.7323
3.74728
3.75978
3.77006
3.77593
3.77743
3.77728
3.77681
3.77639
3.77547
3.77512
3.77687
3.78088
3.78507
3.78649
3.78494
3.78192
3.77652
3.76977
3.76832
1
1
1
1
1
1
1
1
1
0.999997
0.999998
0.999955
1.00068
1.03258
1.21323
1.81114
2.7061
3.42947
3.92251
3.92819
3.87873
3.8316
3.7876
3.74724
3.7145
3.69443
3.68922
3.6924
3.71085
3.73578
3.75351
3.76685
3.77314
3.77475
3.77454
3.77435
3.7732
3.77101
3.77013
3.77157
3.77568
3.77731
3.77541
3.77253
3.7689
3.76433
3.76038
3.7623
1
1
1
1
1
1
1
1
1
1
1
0.999998
0.999998
0.999967
1.00048
1.01757
1.20448
1.66154
2.56838
3.20833
3.7036
3.87624
3.87511
3.85125
3.79375
3.75785
3.73611
3.71969
3.72082
3.72973
3.7446
3.7647
3.77163
3.77477
3.77378
3.77218
3.76969
3.76645
3.76486
3.76618
3.77116
3.77288
3.77193
3.77008
3.76827
3.76758
3.76581
3.7683
1
1
1
1
1
1
1
1
1
1
1
1
1
0.999998
0.999998
0.999972
1.00066
1.01212
1.1475
1.60346
2.39218
3.17683
3.49361
3.68764
3.76535
3.77547
3.76291
3.73598
3.73481
3.73928
3.74508
3.75138
3.76065
3.76784
3.76752
3.76657
3.76613
3.76593
3.76787
3.77383
3.77836
3.77916
3.77848
3.77669
3.77495
3.77409
3.77331
3.77385
1
1
1
1
1
1
1
1
1
1
1
1
1
1
1
0.999998
0.999998
0.999981
1.00038
1.0129
1.10953
1.56853
2.26073
3.12916
3.49125
3.62114
3.68477
3.69018
3.71068
3.71679
3.71423
3.71991
3.7292
3.73977
3.75104
3.75894
3.7642
3.76894
3.77342
3.77947
3.78187
3.78198
3.78219
3.78123
3.77741
3.77434
3.77374
3.77361
1
1
1
1
1
1
1
1
1
1
1
1
1
1
1
1
1
0.999998
0.999998
0.999985
1.00023
1.01373
1.10748
1.4866
2.24031
2.981
3.5396
3.65278
3.70012
3.71063
3.70529
3.70526
3.70904
3.71595
3.72699
3.73957
3.75141
3.76279
3.77124
3.77634
3.77733
3.77713
3.7785
3.77901
3.77647
3.77363
3.77368
3.77323
1
1
1
1
1
1
1
1
1
1
1
1
1
1
1
1
1
1
1
0.999999
0.999999
0.999987
1.00033
1.00937
1.12346
1.45636
2.22692
2.93497
3.48243
3.70416
3.74664
3.74615
3.75097
3.74591
3.7428
3.74945
3.75762
3.76719
3.77723
3.78061
3.77946
3.77594
3.77434
3.77256
3.7693
3.76653
3.7668
3.76667
1
1
1
1
1
1
1
1
1
1
1
1
1
1
1
1
1
1
1
1
1
0.999998
0.999999
0.999987
1.00058
1.00891
1.11887
1.51046
2.2558
2.96452
3.40663
3.6522
3.73633
3.7477
3.75804
3.76957
3.77181
3.77484
3.78179
3.78646
3.78707
3.78392
3.78118
3.77769
3.77306
3.77129
3.77122
3.77103
1
1
1
1
1
1
1
1
1
1
1
1
1
1
1
1
1
1
1
1
1
1
1
0.999998
0.999999
0.99999
1.00073
1.01395
1.11893
1.57813
2.30885
3.15099
3.4377
3.56399
3.66813
3.7322
3.73378
3.74504
3.7602
3.76939
3.77495
3.77487
3.77238
3.77144
3.77143
3.77356
3.7764
3.77734
1
1
1
1
1
1
1
1
1
1
1
1
1
1
1
1
1
1
1
1
1
1
1
1
1
0.999998
0.999999
0.999995
1.00078
1.02304
1.14761
1.66932
2.4449
3.26817
3.60318
3.65015
3.68027
3.70317
3.72547
3.74022
3.74464
3.74731
3.75237
3.76014
3.7681
3.77115
3.77302
3.77554
1
1
1
1
1
1
1
1
1
1
1
1
1
1
1
1
1
1
1
1
1
1
1
1
1
1
1
0.999999
0.999997
1.00002
1.00129
1.0341
1.22098
1.83524
2.67889
3.35071
3.69955
3.75505
3.76664
3.77212
3.76189
3.75376
3.75825
3.76621
3.77381
3.77573
3.77646
3.77764
1
1
1
1
1
1
1
1
1
1
1
1
1
1
1
1
1
1
1
1
1
1
1
1
1
1
1
1
1
1
0.999998
1.0001
1.00322
1.05709
1.36532
2.08263
2.90753
3.44139
3.70163
3.7654
3.7649
3.78429
3.78936
3.7908
3.79186
3.79114
3.78879
3.78643
1
1
1
1
1
1
1
1
1
1
1
1
1
1
1
1
1
1
1
1
1
1
1
1
1
1
1
1
1
1
1
1
0.999996
1.00035
1.00954
1.10764
1.58309
2.46043
3.24615
3.49086
3.62362
3.73465
3.74579
3.7583
3.77307
3.78194
3.78567
3.78476
1
1
1
1
1
1
1
1
1
1
1
1
1
1
1
1
1
1
1
1
1
1
1
1
1
1
1
1
1
1
1
1
0.999999
0.999999
1
1.00129
1.03026
1.22841
1.90885
2.84228
3.54811
3.64979
3.67971
3.70909
3.73554
3.75766
3.76771
3.76794
1
1
1
1
1
1
1
1
1
1
1
1
1
1
1
1
1
1
1
1
1
1
1
1
1
1
1
1
1
1
1
1
1
1
1
0.999998
1.00011
1.00505
1.08798
1.48497
2.4084
3.22813
3.69189
3.78175
3.78747
3.79287
3.78789
3.77381
1
1
1
1
1
1
1
1
1
1
1
1
1
1
1
1
1
1
1
1
1
1
1
1
1
1
1
1
1
1
1
1
1
1
1
1
0.999999
1
1.00099
1.02303
1.25689
1.94963
2.90757
3.443
3.72297
3.79176
3.79185
3.79138
1
1
1
1
1
1
1
1
1
1
1
1
1
1
1
1
1
1
1
1
1
1
1
1
1
1
1
1
1
1
1
1
1
1
1
1
1
1
0.999999
1.00012
1.00714
1.09509
1.60503
2.61137
3.40179
3.57867
3.66911
3.72171
1
1
1
1
1
1
1
1
1
1
1
1
1
1
1
1
1
1
1
1
1
1
1
1
1
1
1
1
1
1
1
1
1
1
1
1
1
1
1
0.999999
1.00001
1.00161
1.0422
1.35067
2.21404
3.2106
3.65355
3.71446
1
1
1
1
1
1
1
1
1
1
1
1
1
1
1
1
1
1
1
1
1
1
1
1
1
1
1
1
1
1
1
1
1
1
1
1
1
1
1
1
1
1
1.00036
1.01635
1.19151
1.91889
2.88498
3.58611
1
1
1
1
1
1
1
1
1
1
1
1
1
1
1
1
1
1
1
1
1
1
1
1
1
1
1
1
1
1
1
1
1
1
1
1
1
1
1
1
1
1
1
1.00011
1.0052
1.10732
1.69281
2.76171
1
1
1
1
1
1
1
1
1
1
1
1
1
1
1
1
1
1
1
1
1
1
1
1
1
1
1
1
1
1
1
1
1
1
1
1
1
1
1
1
1
1
1
1
1.00002
1.00254
1.06886
1.43586
1
1
1
1
1
1
1
1
1
1
1
1
1
1
1
1
1
1
1
1
1
1
1
1
1
1
1
1
1
1
1
1
1
1
1
1
1
1
1
1
1
1
1
1
1
1.00001
1.00129
1.01672
1
1
1
1
1
1
1
1
1
1
1
1
1
1
1
1
1
1
1
1
1
1
1
1
1
1
1
1
1
1
1
1
1
1
1
1
1
1
1
1
1
1
1
1
1
1
1.00001
0.999831
1
1
1
1
1
1
1
1
1
1
1
1
1
1
1
1
1
1
1
1
1
1
1
1
1
1
1
1
1
1
1
1
1
1
1
1
1
1
1
1
1
1
1
1
1
1
1
0.999938
1
1
1
1
1
1
1
1
1
1
1
1
1
1
1
1
1
1
1
1
1
1
1
1
1
1
1
1
1
1
1
1
1
1
1
1
1
1
1
1
1
1
1
1
1
1
1
0.999992
1
1
1
1
1
1
1
1
1
1
1
1
1
1
1
1
1
1
1
1
1
1
1
1
1
1
1
1
1
1
1
1
1
1
1
1
1
1
1
1
1
1
1
1
1
1
1
1
1
1
1
1
1
1
1
1
1
1
1
1
1
1
1
1
1
1
1
1
1
1
1
1
1
1
1
1
1
1
1
1
1
1
1
1
1
1
1
1
1
1
1
1
1
1
1
1
1
1
1
1
1
1
1
1
1
1
1
1
1
1
1
1
1
1
1
1
1
1
1
1
1
1
1
1
1
1
1
1
1
1
1
1
1
1
1
1
1
1
1
1
1
1
1
1
1
1
1
1
1
1
1
1
1
1
1
1
1
1
1
1
1
1
1
1
1
1
1
1
1
1
1
1
1
1
1
1
1
1
1
1
1
1
1
1
1
1
1
1
1
1
1
1
1
1
1
1
1
1
1
1
1
1
1
1
1
1
1
1
1
1
1
1
1
1
1
1
1
1
1
1
1
1
1
1
1
1
1
1
1
1
1
1
1
1
1
1
1
1
1
1
1
1
1
1
1
1
1
1
1
1
1
1
1
1
1
1
1
1
1
1
1
1
1
1
1
1
1
1
1
1
1
1
1
1
1
1
1
1
1
1
1
1
1
1
1
1
1
1
1
1
1
1
1
1
1
1
1
1
1
1
1
1
1
1
1
1
1
1
1
1
1
1
1
1
1
1
1
1
1
1
1
1
1
1
1
1
1
1
1
1
1
1
1
1
1
0.999992
1
1
1
1
1
1
1
1
1
1
1
1
1
1
1
1
1
1
1
1
1
1
1
1
1
1
1
1
1
1
1
1
1
1
1
1
1
1
1
1
1
1
1
1
1
1
1
0.999938
1
1
1
1
1
1
1
1
1
1
1
1
1
1
1
1
1
1
1
1
1
1
1
1
1
1
1
1
1
1
1
1
1
1
1
1
1
1
1
1
1
1
1
1
1
1
1.00001
0.999831
1
1
1
1
1
1
1
1
1
1
1
1
1
1
1
1
1
1
1
1
1
1
1
1
1
1
1
1
1
1
1
1
1
1
1
1
1
1
1
1
1
1
1
1
1
1.00001
1.00129
1.01672
1
1
1
1
1
1
1
1
1
1
1
1
1
1
1
1
1
1
1
1
1
1
1
1
1
1
1
1
1
1
1
1
1
1
1
1
1
1
1
1
1
1
1
1
1.00002
1.00254
1.06889
1.43581
1
1
1
1
1
1
1
1
1
1
1
1
1
1
1
1
1
1
1
1
1
1
1
1
1
1
1
1
1
1
1
1
1
1
1
1
1
1
1
1
1
1
1
1.00011
1.0052
1.1073
1.69293
2.76147
1
1
1
1
1
1
1
1
1
1
1
1
1
1
1
1
1
1
1
1
1
1
1
1
1
1
1
1
1
1
1
1
1
1
1
1
1
1
1
1
1
1
1.00036
1.01635
1.19149
1.91889
2.885
3.58601
1
1
1
1
1
1
1
1
1
1
1
1
1
1
1
1
1
1
1
1
1
1
1
1
1
1
1
1
1
1
1
1
1
1
1
1
1
1
1
0.999999
1.00001
1.00161
1.04221
1.35067
2.21398
3.2106
3.65362
3.71448
1
1
1
1
1
1
1
1
1
1
1
1
1
1
1
1
1
1
1
1
1
1
1
1
1
1
1
1
1
1
1
1
1
1
1
1
1
1
0.999999
1.00012
1.00713
1.09509
1.60507
2.61135
3.40181
3.57865
3.66915
3.72176
1
1
1
1
1
1
1
1
1
1
1
1
1
1
1
1
1
1
1
1
1
1
1
1
1
1
1
1
1
1
1
1
1
1
1
1
0.999999
1
1.00099
1.02303
1.25688
1.94962
2.9076
3.44297
3.72295
3.79175
3.79186
3.79141
1
1
1
1
1
1
1
1
1
1
1
1
1
1
1
1
1
1
1
1
1
1
1
1
1
1
1
1
1
1
1
1
1
1
1
0.999998
1.00011
1.00505
1.08798
1.48497
2.40837
3.22814
3.69191
3.78173
3.78746
3.79287
3.78789
3.77382
1
1
1
1
1
1
1
1
1
1
1
1
1
1
1
1
1
1
1
1
1
1
1
1
1
1
1
1
1
1
1
1
0.999999
0.999999
1
1.00129
1.03026
1.2284
1.90886
2.84227
3.54811
3.6498
3.67972
3.70909
3.73553
3.75764
3.7677
3.76793
1
1
1
1
1
1
1
1
1
1
1
1
1
1
1
1
1
1
1
1
1
1
1
1
1
1
1
1
1
1
1
1
0.999996
1.00035
1.00954
1.10764
1.5831
2.46043
3.24616
3.49085
3.62363
3.73466
3.74579
3.7583
3.77306
3.78194
3.78566
3.78475
1
1
1
1
1
1
1
1
1
1
1
1
1
1
1
1
1
1
1
1
1
1
1
1
1
1
1
1
1
1
0.999998
1.0001
1.00322
1.05709
1.36532
2.08263
2.90753
3.44139
3.70163
3.7654
3.76491
3.7843
3.78935
3.79079
3.79186
3.79114
3.78879
3.78643
1
1
1
1
1
1
1
1
1
1
1
1
1
1
1
1
1
1
1
1
1
1
1
1
1
1
1
0.999999
0.999997
1.00002
1.00129
1.0341
1.22098
1.83524
2.67889
3.35071
3.69955
3.75505
3.76664
3.77212
3.76189
3.75376
3.75825
3.76621
3.77381
3.77573
3.77646
3.77764
1
1
1
1
1
1
1
1
1
1
1
1
1
1
1
1
1
1
1
1
1
1
1
1
1
0.999998
0.999999
0.999995
1.00078
1.02304
1.14761
1.66932
2.4449
3.26817
3.60318
3.65015
3.68027
3.70317
3.72547
3.74022
3.74464
3.74731
3.75237
3.76014
3.7681
3.77116
3.77303
3.77554
1
1
1
1
1
1
1
1
1
1
1
1
1
1
1
1
1
1
1
1
1
1
1
0.999998
0.999999
0.99999
1.00073
1.01395
1.11893
1.57813
2.30885
3.15099
3.4377
3.56399
3.66813
3.7322
3.73378
3.74504
3.7602
3.76939
3.77495
3.77487
3.77238
3.77144
3.77144
3.77356
3.7764
3.77734
1
1
1
1
1
1
1
1
1
1
1
1
1
1
1
1
1
1
1
1
1
0.999998
0.999999
0.999987
1.00058
1.00891
1.11887
1.51046
2.25581
2.96452
3.40663
3.6522
3.73633
3.7477
3.75804
3.76957
3.77181
3.77484
3.78179
3.78646
3.78707
3.78392
3.78118
3.77769
3.77306
3.77129
3.77122
3.77103
1
1
1
1
1
1
1
1
1
1
1
1
1
1
1
1
1
1
1
0.999999
0.999999
0.999987
1.00033
1.00937
1.12346
1.45636
2.22692
2.93496
3.48243
3.70416
3.74664
3.74615
3.75097
3.74591
3.7428
3.74945
3.75763
3.76719
3.77723
3.78061
3.77946
3.77594
3.77434
3.77256
3.7693
3.76653
3.7668
3.76667
1
1
1
1
1
1
1
1
1
1
1
1
1
1
1
1
1
0.999998
0.999998
0.999985
1.00023
1.01373
1.10748
1.4866
2.24031
2.981
3.5396
3.65279
3.70012
3.71063
3.70529
3.70526
3.70904
3.71595
3.72699
3.73956
3.75141
3.76279
3.77124
3.77634
3.77733
3.77713
3.7785
3.77901
3.77647
3.77363
3.77368
3.77323
1
1
1
1
1
1
1
1
1
1
1
1
1
1
1
0.999998
0.999998
0.999981
1.00038
1.0129
1.10953
1.56853
2.26073
3.12916
3.49125
3.62114
3.68478
3.69018
3.71068
3.71679
3.71423
3.71991
3.7292
3.73977
3.75104
3.75894
3.7642
3.76894
3.77342
3.77947
3.78187
3.78198
3.78219
3.78123
3.77741
3.77434
3.77374
3.77361
1
1
1
1
1
1
1
1
1
1
1
1
1
0.999998
0.999998
0.999972
1.00066
1.01212
1.1475
1.60346
2.39218
3.17683
3.49361
3.68763
3.76535
3.77547
3.76291
3.73598
3.73481
3.73928
3.74508
3.75138
3.76065
3.76784
3.76752
3.76657
3.76613
3.76593
3.76787
3.77383
3.77836
3.77916
3.77848
3.77669
3.77495
3.77409
3.77331
3.77385
1
1
1
1
1
1
1
1
1
1
1
0.999998
0.999998
0.999967
1.00048
1.01757
1.20448
1.66154
2.56838
3.20833
3.7036
3.87624
3.87511
3.85125
3.79375
3.75785
3.73611
3.71969
3.72082
3.72973
3.7446
3.7647
3.77163
3.77477
3.77378
3.77218
3.76969
3.76645
3.76486
3.76618
3.77116
3.77288
3.77192
3.77008
3.76827
3.76758
3.76581
3.7683
1
1
1
1
1
1
1
1
1
0.999997
0.999998
0.999955
1.00068
1.03258
1.21323
1.81114
2.7061
3.42946
3.92251
3.92819
3.87873
3.8316
3.7876
3.74724
3.7145
3.69443
3.68923
3.6924
3.71085
3.73578
3.75351
3.76685
3.77314
3.77475
3.77454
3.77435
3.7732
3.77101
3.77013
3.77157
3.77567
3.77731
3.77541
3.77253
3.7689
3.76433
3.76038
3.7623
1
1
1
1
1
1
1
1
1
0.999926
1.00208
1.04488
1.28859
2.00397
2.81942
3.73334
3.99588
4.02052
3.98691
3.92173
3.80691
3.73713
3.69496
3.67179
3.67174
3.68201
3.69545
3.71322
3.7323
3.74728
3.75978
3.77006
3.77593
3.77743
3.77728
3.7768
3.77639
3.77547
3.77512
3.77687
3.78088
3.78507
3.78649
3.78494
3.78192
3.77652
3.76977
3.76832
1
1
1
1
0.999998
0.999993
1.00005
1.00007
1.00589
1.06768
1.4271
2.13137
3.19398
3.84084
4.02884
4.02735
3.93782
3.87753
3.82308
3.75894
3.7384
3.71277
3.69852
3.70342
3.7171
3.73381
3.74597
3.7575
3.76736
3.77366
3.77899
3.78152
3.78109
3.77993
3.7762
3.77154
3.76884
3.76668
3.76595
3.76729
3.77081
3.77624
3.7809
3.78214
3.78037
3.77743
3.77331
3.7715
1
0.999978
1.00004
1.0001
1.00136
1.01312
1.06309
1.21933
1.60815
2.33589
3.33585
3.90316
4.30921
4.32709
4.2618
4.12128
3.95594
3.76879
3.66686
3.66304
3.67368
3.69237
3.72493
3.75618
3.76592
3.76857
3.76858
3.76642
3.76849
3.77188
3.77391
3.77531
3.77448
3.77294
3.76977
3.76505
3.76103
3.75927
3.75955
3.76111
3.76467
3.77138
3.77941
3.78331
3.78395
3.78336
3.78044
3.77789
1.00248
1.01512
1.06805
1.20757
1.40988
1.76557
2.22029
2.75592
3.31138
3.73468
3.90957
4.03371
4.03827
3.96177
3.84748
3.77721
3.73688
3.71137
3.67458
3.6661
3.67577
3.69825
3.72573
3.74871
3.75718
3.75899
3.75613
3.75873
3.75975
3.76004
3.76246
3.7681
3.77311
3.77732
3.7789
3.77753
3.7741
3.77026
3.76869
3.76897
3.77001
3.77305
3.77758
3.77908
3.77899
3.77776
3.77349
3.77021
1.28988
1.74965
2.33603
2.89086
3.53948
4.19656
4.65268
5.09548
5.34334
5.26704
4.94779
4.46882
4.05869
3.78372
3.66865
3.58477
3.56319
3.5848
3.61753
3.64981
3.68564
3.71002
3.72768
3.73598
3.74103
3.74711
3.75536
3.76235
3.76433
3.76504
3.76952
3.7812
3.79387
3.79878
3.7981
3.7948
3.78691
3.77723
3.77075
3.7681
3.76782
3.76784
3.76871
3.77035
3.77073
3.77044
3.76764
3.76507
2.6629
1.66776
1.11358
0.896593
0.70745
0.637431
0.665168
0.736856
0.786075
0.822119
0.899609
1.00173
1.01659
1.00996
1.02193
1.0434
1.04635
1.05039
1.06583
1.0759
1.07533
1.07284
1.0729
1.06893
1.0527
1.04397
1.04507
1.04782
1.04767
1.04552
1.04257
1.0393
1.03658
1.03625
1.03697
1.04009
1.04624
1.049
1.04958
1.04969
1.04823
1.04505
1.0448
1.04577
1.04839
1.05077
1.05127
1.05169
1.05768
1.20856
1.92655
3.29504
5.2241
7.82282
10.21
10.0374
9.27481
8.38223
8.15687
8.02268
7.74089
7.40093
7.24674
7.16783
7.13242
7.07031
6.94183
6.7992
6.58274
6.234
5.97572
5.87881
5.81582
5.793
5.76211
5.68974
5.5774
5.3556
5.14573
5.07298
5.02105
4.97088
4.91034
4.84632
4.76189
4.60107
4.38731
4.29205
4.25296
4.22527
4.21679
4.18935
4.14804
4.07918
3.93516
3.77566
3.69422
3.64854
3.61034
3.57159
3.52513
3.46221
3.38986
3.32668
3.28321
3.25426
3.22434
3.18542
3.11761
2.99886
2.90697
2.87687
2.85557
2.83465
2.81711
2.79979
2.78011
2.74971
2.67811
2.56841
2.50351
2.48228
2.46677
2.45149
2.43558
2.41808
2.39402
2.35495
2.29483
2.23419
2.20249
2.18433
2.16772
2.14874
2.12165
2.07481
2.02008
1.99248
1.9783
1.96399
1.95233
1.94231
1.93044
1.91319
1.88602
1.91856
2.08866
2.51415
3.20637
3.9297
4.49882
5.04319
5.49839
5.47115
5.3441
5.20027
5.04653
4.94345
4.84857
4.73717
4.65166
4.61009
4.58184
4.57177
4.56284
4.53534
4.48702
4.40007
4.29468
4.24696
4.22033
4.1996
4.19058
4.17284
4.14857
4.11824
4.05393
3.93339
3.85162
3.82251
3.80192
3.78905
3.78709
3.77564
3.75644
3.73243
3.68666
3.59969
3.52551
3.49393
3.47725
3.44686
3.3718
2.77234
2.11447
1.76704
1.52171
1.22614
1.12076
1.07152
0.992131
0.93813
0.940625
0.943162
0.929725
0.930173
0.945079
0.975002
0.992973
1.00482
1.02697
1.04626
1.04788
1.04846
1.05207
1.05366
1.049
1.04576
1.04669
1.05003
1.05092
1.04899
1.04743
1.04556
1.04386
1.04341
1.04353
1.04608
1.0489
1.04918
1.04928
1.04888
1.04677
1.04449
1.0441
1.04459
1.04625
1.04747
1.04899
1.06065
1.184
1.9129
2.82645
3.20538
3.93533
4.8367
6.57125
7.97441
8.5887
8.48834
8.32346
8.08122
7.75886
7.47355
7.30392
7.17217
7.06044
6.96699
6.88358
6.76912
6.59994
6.3407
6.07427
5.92109
5.84391
5.7812
5.72538
5.652
5.55643
5.3926
5.17927
5.05732
5.00439
4.97255
4.92826
4.86334
4.77935
4.64897
4.46604
4.32753
4.26918
4.2319
4.19466
4.1616
4.11899
4.05566
3.9427
3.80271
3.72552
3.68451
3.64507
3.60496
3.5593
3.48859
3.38802
3.33567
3.30992
3.27884
3.24474
3.20165
3.13425
3.02807
2.92654
2.87873
2.85582
2.83675
2.81641
2.79379
2.76751
2.7358
2.68391
2.59201
2.51704
2.48724
2.46962
2.4536
2.43627
2.41898
2.40148
2.37452
2.3223
2.26225
2.22703
2.20679
2.18877
2.16943
2.14494
2.10587
2.05352
2.0156
1.99677
1.98211
1.97037
1.96218
1.95193
1.96622
2.02594
2.23803
2.57965
2.92504
3.20462
3.53896
3.93285
4.22332
4.65546
4.83138
4.95946
5.06451
5.04546
4.98379
4.88804
4.77919
4.67796
4.63258
4.61164
4.59711
4.57783
4.54339
4.48999
4.40828
4.31688
4.26853
4.24265
4.21755
4.20004
4.17962
4.15421
4.12108
4.06146
3.96571
3.88202
3.84271
3.8223
3.80803
3.79887
3.78457
3.76517
3.73848
3.68932
3.6122
3.54538
3.51116
3.49435
3.46409
3.6615
3.34521
2.85745
2.3588
2.00296
1.64796
1.39954
1.275
1.13845
0.990364
0.97126
0.959086
0.926349
0.921774
0.929938
0.94195
0.951895
0.965836
0.990208
1.0242
1.03087
1.03195
1.0379
1.04275
1.04216
1.04233
1.04694
1.05455
1.05678
1.05599
1.05305
1.04857
1.04674
1.04643
1.04704
1.04935
1.04963
1.04901
1.04795
1.04519
1.04322
1.04323
1.04345
1.04486
1.04639
1.05081
1.08723
1.26326
1.93538
3.03415
3.3345
3.35473
3.43694
3.5809
4.14152
5.8608
7.82442
8.65195
8.52872
8.16335
7.80216
7.59815
7.39624
7.16265
6.94355
6.82579
6.74793
6.65355
6.53023
6.39935
6.21826
6.03009
5.88537
5.79246
5.70494
5.60506
5.49271
5.37703
5.23519
5.08491
4.97291
4.90881
4.84967
4.78564
4.70954
4.62104
4.52303
4.40107
4.29309
4.24392
4.20038
4.144
4.07044
3.97863
3.88235
3.80804
3.7473
3.68455
3.62359
3.5714
3.52441
3.47696
3.41317
3.34157
3.27952
3.23287
3.19176
3.14688
3.08922
3.02025
2.95213
2.89358
2.85504
2.83289
2.8125
2.78774
2.75934
2.717
2.64536
2.56652
2.53182
2.51322
2.49404
2.47779
2.45973
2.43742
2.40552
2.35815
2.29601
2.24168
2.20865
2.18599
2.16603
2.14508
2.12041
2.08727
2.04212
1.99847
1.97431
1.96241
1.96169
1.96463
1.99949
2.13787
2.44017
2.79564
3.03238
3.20206
3.25361
3.30354
3.39268
3.56009
3.89461
4.36255
4.68114
4.94899
5.04783
5.02365
4.94121
4.80445
4.71052
4.66253
4.61412
4.55836
4.52533
4.49996
4.45609
4.4
4.35208
4.2948
4.22447
4.18441
4.16194
4.14204
4.1174
4.08474
4.03283
3.97625
3.93403
3.88705
3.82847
3.78104
3.76071
3.74407
3.72395
3.69631
3.65201
3.59745
3.56564
3.53903
3.50952
3.456
3.74959
3.62217
3.32758
2.89634
2.50185
2.13255
1.80402
1.61544
1.44835
1.23524
1.16775
1.11625
1.02384
0.979216
0.981244
0.970066
0.949567
0.946596
0.956182
0.965917
0.971723
0.978311
0.991997
1.01393
1.02483
1.03293
1.04267
1.04823
1.04989
1.05054
1.0486
1.04724
1.04843
1.05274
1.05821
1.05998
1.05951
1.05756
1.05296
1.04585
1.04297
1.0427
1.0428
1.04503
1.052
1.11702
1.50097
2.12992
3.04855
3.48894
3.47929
3.4317
3.41661
3.40777
3.38156
3.67565
5.01599
7.12549
7.874
7.95997
7.87596
7.71254
7.46557
7.19205
6.95085
6.75967
6.65032
6.55106
6.45482
6.36696
6.28629
6.15184
5.96794
5.79281
5.66382
5.55379
5.45128
5.36326
5.27907
5.15203
4.99059
4.86962
4.79497
4.73179
4.67743
4.63115
4.58178
4.49481
4.37487
4.24674
4.15978
4.08734
4.00485
3.92184
3.85791
3.81316
3.76588
3.70818
3.64773
3.58402
3.51962
3.45498
3.39404
3.33551
3.27684
3.22495
3.17423
3.12147
3.0725
3.03151
2.98679
2.93464
2.87765
2.82887
2.80682
2.78666
2.75157
2.68572
2.60996
2.56839
2.54761
2.51754
2.47446
2.44543
2.43077
2.41483
2.39214
2.34784
2.28766
2.24038
2.20947
2.18499
2.16375
2.1422
2.11423
2.08098
2.04076
2.00408
1.98041
1.97607
1.98653
2.06897
2.29949
2.67092
3.00255
3.22252
3.3179
3.34014
3.32966
3.29429
3.21363
3.19898
3.26694
3.55616
3.9411
4.44413
4.76891
4.87207
4.87429
4.84154
4.79623
4.74349
4.65935
4.5605
4.5037
4.48185
4.44253
4.41016
4.37352
4.31903
4.24158
4.18264
4.15737
4.13062
4.09477
4.05543
4.02818
4.00804
3.97706
3.92772
3.86036
3.79593
3.75378
3.72948
3.70206
3.66521
3.63188
3.61282
3.59217
3.56364
3.52696
3.46479
3.76037
3.73186
3.59498
3.29494
2.95437
2.57468
2.20819
1.97176
1.767
1.51203
1.37362
1.2815
1.16363
1.06039
1.0428
1.0131
0.962492
0.953406
0.960756
0.958306
0.954406
0.956233
0.963491
0.978541
0.998754
1.01543
1.03104
1.0363
1.03905
1.04244
1.04236
1.041
1.04413
1.05528
1.05939
1.0597
1.05928
1.05712
1.05263
1.04694
1.04521
1.04484
1.04586
1.05201
1.11422
1.63646
2.53692
3.12876
3.47993
3.53963
3.49626
3.40391
3.36039
3.35532
3.33638
3.25313
3.35871
4.27387
6.05523
7.43774
7.86678
7.78163
7.5156
7.26882
7.03871
6.79231
6.56386
6.4481
6.36984
6.32165
6.23817
6.14742
6.01558
5.80932
5.62587
5.51694
5.43302
5.35159
5.26075
5.15187
4.99583
4.83033
4.75377
4.70509
4.66249
4.61602
4.56689
4.5218
4.42668
4.24638
4.0933
4.01606
3.96018
3.91309
3.87076
3.82715
3.77642
3.71715
3.63703
3.55334
3.49026
3.44092
3.39483
3.34317
3.28282
3.21438
3.1502
3.10003
3.05938
3.02143
2.98349
2.94595
2.90097
2.85212
2.80418
2.76039
2.71343
2.65524
2.60377
2.57917
2.55675
2.5278
2.48841
2.44661
2.42166
2.40228
2.37418
2.33052
2.28068
2.24682
2.22342
2.19749
2.16691
2.13789
2.11091
2.08256
2.05205
2.01618
2.00505
2.03453
2.16802
2.50368
2.90452
3.20452
3.34076
3.38833
3.38624
3.36743
3.33441
3.28414
3.21153
3.14606
3.12912
3.16213
3.31983
3.65528
4.14037
4.54935
4.80699
4.85551
4.8345
4.76022
4.65126
4.54861
4.48102
4.46187
4.43838
4.3978
4.35895
4.32152
4.27841
4.22209
4.15459
4.10025
4.05923
4.03347
4.01559
3.99429
3.96847
3.93701
3.89386
3.83218
3.76404
3.71625
3.67963
3.64188
3.61235
3.59208
3.5736
3.55608
3.5399
3.48984
3.76114
3.74726
3.70117
3.5442
3.29798
2.98408
2.60645
2.32147
2.08803
1.83446
1.65434
1.52798
1.38471
1.24811
1.19937
1.1513
1.06982
1.03727
1.02659
0.996774
0.970519
0.966763
0.967647
0.965816
0.969296
0.981355
0.994456
1.00288
1.01019
1.01897
1.02729
1.03057
1.0383
1.05239
1.05655
1.05725
1.05753
1.05607
1.05054
1.047
1.04657
1.04853
1.0593
1.13413
1.62711
2.77865
3.26917
3.49172
3.57377
3.48993
3.41919
3.39046
3.32171
3.28399
3.26966
3.23903
3.14614
3.16272
3.65192
5.17433
6.76603
7.32027
7.43957
7.34183
7.16439
6.87019
6.55325
6.38768
6.31058
6.26209
6.1954
6.09503
5.97688
5.81058
5.62028
5.49672
5.41415
5.33595
5.25468
5.15631
5.0134
4.84314
4.73424
4.68294
4.63983
4.60588
4.56298
4.50474
4.40795
4.23679
4.06589
3.98587
3.94817
3.93003
3.91713
3.87854
3.82716
3.73451
3.60183
3.51362
3.46826
3.43227
3.39765
3.35801
3.29587
3.19247
3.10623
3.07155
3.04908
3.03203
3.01653
2.9918
2.95637
2.89402
2.79095
2.7045
2.66823
2.64912
2.63205
2.61172
2.58717
2.55669
2.51721
2.46504
2.41037
2.36934
2.33892
2.31527
2.29373
2.26996
2.24289
2.21263
2.18117
2.14419
2.10224
2.07028
2.05183
2.05747
2.1213
2.34528
2.71455
3.1545
3.35799
3.37217
3.39764
3.40343
3.3929
3.36995
3.33928
3.29577
3.23042
3.1704
3.1337
3.10501
3.10569
3.16314
3.38381
3.7626
4.23003
4.57362
4.70456
4.70536
4.65835
4.58478
4.50152
4.45491
4.42604
4.39932
4.37017
4.34798
4.31816
4.2523
4.13969
4.06579
4.03269
4.00901
3.99862
3.99496
3.97338
3.94777
3.91751
3.8686
3.79067
3.70541
3.65102
3.62265
3.60498
3.58891
3.57082
3.54991
3.52999
3.487
3.76852
3.75752
3.7465
3.68514
3.53652
3.28154
2.96554
2.68519
2.41088
2.1336
1.94228
1.78093
1.62092
1.47236
1.38197
1.29989
1.18902
1.12653
1.09377
1.04792
0.991979
0.984209
0.982371
0.971019
0.971495
0.978584
0.978979
0.977843
0.979303
0.984588