/*--------------------------------*- C++ -*----------------------------------*\
  =========                 |
  \\      /  F ield         | OpenFOAM: The Open Source CFD Toolbox
   \\    /   O peration     | Website:  https://openfoam.org
    \\  /    A nd           | Version:  7
     \\/     M anipulation  |
\*---------------------------------------------------------------------------*/
FoamFile
{
    version     2.0;
    format      ascii;
    class       volScalarField;
    location    "2";
    object      T;
}
// * * * * * * * * * * * * * * * * * * * * * * * * * * * * * * * * * * * * * //

dimensions      [0 0 0 1 0 0 0];

internalField   nonuniform List<scalar> 
18432
(
1
1
1
1
1
1
1
1
1
1
1
1
1
1
1
1
1
1
1
1
1
1
1
1
1
1
1
1
1
1
1
1
1
1
1
1
1
1
1
1
1
1
1
1
1
1
1
1
1
1
1
1
1
1
1
1
1
1
1
1
1
1
1
1
1
1
1
1
1
1
1
1
1
1
1
1
1
1
1
1
1
1
1
1
1
1
1
1
1
1
1
1
1
1
1
1
1
1
1
1
1
1
1
1
1
1
1
1
1
1
1
1
1
1
1
1
1
1
1
1
1
1
1
1
1
1
1
1
1
1
1
1
1
1
1
1
1
1
1
1
1
1
1
1
1
1
1
1
1
1
1
1
1
1
1
1
1
1
1
1
1
1
1
1
1
1
1
1
1
1
1
1
1
1
1
1
1
1
1
1
1
1
1
1
1
1
1
1
1
1
1
1
1
1
1
1
1
1
1
1
1
1
1
1
1
1
1
1
1
1
1
1
1
1
1
1
1
1
1
1
1
1
1
1
1
1
1
1
1
1
1
1
1
1
1
1
1
1
1
1
1
1
1
1
1
1
1
1
1
1
1
1
1
1
1
1
1
1
1
1
1
1
1
1
1
1
1
1
1
1
1
1
1
1
1
1
1
1
1
1
1
1
1
1
1
1
1
1
1
1
1
1
1
1
1
1
1
1
1
1
1
1
1
1
1
1
1
1
1
1
1
1
1
1
1
1
1
1
1
1
1
1
1
1
1
1
1
1
1
1
1
1
1
1
1
1
1
1
1
1
1
1
1
1
1
1
1
1
1
1
1
1
1
1
1
1
1
1
1
1
1
1
1
1
1
1
1
1
1
1
1
1
1
1
1
1
1
1
1
1
1
1
1
1
1
1
1
1
1
1
1
1
1
1
1
1
1
1
1
1
1
1
1
1
1
1
1
1
1
1
1
1
1
1
1
1
1
1
1
1
1
1
1
1
1
1
1
1
1
1
1
1
1
1
1
1
1
1
1
1
1
1
1
1
1
1
1
1
1
1
1
1
1
1
1
1
1
1
1
1
1
1
1
1
1
1
1
1
1
1
1
1
1
1
1
1
1
1
1
1
1
1
1
1
1
1
1
1
1
1
1
1
1
1
1
1
1
1
1
1
1
1
1
1
1
1
1
1
1
1
1
1
1
1
1
1
1
1
1
1
1
1
1
1
1
1
1
1
1
1
1
1
1
1
1
1
1
1
1
1
1
1
1
1
1
1
1
1
1
1
1
1
1
1
1
1
1
1
1
1
1
1
1
1
1
1
1
1
1
1
1
1
1
1
1
1
1
1
1
1
1
1
1
1
1
1
1
1
1
1
1
1
1
1
1
1
1
1
1
1
1
1
1
1
1
1
1
1
1
1
1
1
1
1
1
1
1
1
1
1
1
1
1
1
1
1
1
1
1
1
1
1
1
1
1
1
1
1
1
1
1
1
1
1
1
1
1
1
1
1
1
1
1
1
1
1
1
1
1
1
1
1
1
1
1
1
1
1
1
1
1
1
1
1
1
1
1
1
1
1
1
1
1
1
1
1
1
1
1
1
1
1
1
1
1
1
1
1
1
1
1
1
1
1
1
1
1
1
1
1
1
1
1
1
1
1
1
1
1
1
1
1
1
1
1
1
1
1
1
1
1
1
1
1
1
1
1
1
1
1
1
1
1
1
1
1
1
1
1
1
1
1
1
1
1
1
1
1
1
1
1
1
1
1
1
1
1
1
1
1
1
1
1
1
1
1
1
1
1
1
1
1
1
1
1
1
1
1
1
1
1
1
1
1
1
1
1
1
1
1
1
1
1
1
1
1
1
1
1
1
1
1
1
1
1
1
1
1
1
1
1
1
1
1
1
1
1
1
1
1
1
1
1
1
1
1
1
1
1
1
1
1
1
1
1
1
1
1
1
1
1
1
1
1
1
1
1
1
1
1
1
1
1
1
1
1
1
1
1
1
1
1
1
1
1
1
1
1
1
1
1
1
1
1
1
1
1
1
1
1
1
1
1
1
1
1
1
1
1
1
1
1
1
1
1
1
1
1
1
1
1
1
1
1
1
1
1
1
1
1
1
1
1
1
1
1
1
1
1
1
1
1
1
1
1
1
1
1
1
1
1
1
1
1
1
1
1
1
1
1
1
1
1
1
1
1
1
1
1
1
1
1
1
1
1
1
1
1
1
1
1
1
1
1
1
1
1
1
1
1
1
1
1
1
1
1
1
1
1
1
1
1
1
1
1
1
1
1
1
1
1
1
1
1
1
1
1
1
1
1
1
1
1
1
1
1
1
1
1
1
1
1
1
1
1
1
1
1
1
1
1
1
1
1
1
1
1
1
1
1
1
1
1
1
1
1
1
1
1
1
1
1
1
1
1
1
1
1
1
1
1
1
1
1
1
1
1
1
1
1
1
1
1
1
1
1
1
1
1
1
1
1
1
1
1
1
1
1
1
1
1
1
1
1
1
1
1
1
1
1
1
1
1
1
1
1
1
1
1
1
1
1
1
1
1
1
1
1
1
1
1
1
1
1
1
1
1
1
1
1
1
1
1
1
1
1
1
1
1
1
1
1
1
1
1
1
1
1
1
1
1
1
1
1
1
1
1
1
1
1
1
1
1
1
1
1
1
1
1
1
1
1
1
1
1
1
1
1
1
1
1
1
1
1
1
1
1
1
1
1
1
1
1
1
1
1
1
1
1
1
1
1
1
1
1
1
1
1
1
1
1
1
1
1
1
1
1
1
1
1
1
1
1
1
1
1
1
1
1
1
1
1
1
1
1
1
1
1
1
1
1
1
1
1
1
1
1
1
1
1
1
1
1
1
1
1
1
1
1
1
1
1
1
1
1
1
1
1
1
1
1
1
1
1
1
1
1
1
1
1
1
1
1
1
1
1
1
1
1
1
1
1
1
1
1
1
1
1
1
1
1
1
1
1
1
1
1
1
1
1
1
1
1
1
1
1
1
1
1
1
1
1
1
1
1
1
1
1
1
1
1
1
1
1
1
1
1
1
1
1
1
1
1
1
1
1
1
1
1
1
1
1
1
1
1
1
1
1
1
1
1
1
1
1
1
1
1
1
1
1
1
1
1
1
1
1
1
1
1
1
1
1
1
1
1
1
1
1
1
1
1
1
1
1
1
1
1
1
1
1
1
1
1
1
1
1
1
1
1
1
1
1
1
1
1
1
1
1
1
1
1
1
1
1
1
1
1
1
1
1
1
1
1
1
1
1
1
1
1
1
1
1
1
1
1
1
1
1
1
1
1
1
1
1
1
1
1
1
1
1
1
1
1
1
1
1
1
1
1
1
1
1
1
1
1
1
1
1
1
1
1
1
1
1
1
1
1
1
1
1
1
1
1
1
1
1
1
1
1
1
1
1
1
1
1
1
1
1
1
1
1
1
1
1
1
1
1
1
1
1
1
1
1
1
1
1
1
1
1
1
1
1
1
1
1
1
1
1
1
1
1
1
1
1
1
1
1
1
1
1
1
1
1
1
1
1
1
1
1
1
1
1
1
1
1
1
1
1
1
1
1
1
1
1
1
1
1
1
1
1
1
1
1
1
1
1
1
1
1
1
1
1
1
1
1
1
1
1
1
1
1
1
1
1
1
1
1
1
1
1
1
1
1
1
1
1
1
1
1
1
1
1
1
1
1
1
1
1
1
1
1
1
1
1
1
1
1
1
1
1
1
1
1
1
1
1
1
1
1
1
1
1
1
1
1
1
1
1
1
1
1
1
1
1
1
1
1
1
1
1
1
1
1
1
1
1
1
1
1
1
1
1
1
1
1
1
1
1
1
1
1
1
1
1
1
1
1
1
1
1
1
1
1
1
1
1
1
1
1
1
1
1
1
1
1
1
1
1
1
1
1
1
1
1
1
1
1
1
1
1
1
1
1
1
1
1
1
1
1
1
1
1
1
1
1
1
1
1
1
1
1
1
1
1
1
1
1
1
1
1
1
1
1
1
1
1
1
1
1
1
1
1
1
1
1
1
1
1
1
1
1
1
1
1
1
1
1
1
1
1
1
1
1
1
1
1
1
1
1
1
1
1
1
1
1
1
1
1
1
1
1
1
1
1
1
1
1
1
1
1
1
1
1
1
1
1
1
1
1
1
1
1
1
1
1
1
1
1
1
1
1
1
1
1
1
1
1
1
1
1
1
1
1
1
1
1
1
1
1
1
1
1
1
1
1
1
1
1
1
1
1
1
1
1
1
1
1
1
1
1
1
1
1
1
1
1
1
1
1
1
1
1
1
1
1
1
1
1
1
1
1
1
1
1
1
1
1
1
1
1
1
1
1
1
1
1
1
1
1
1
1
1
1
1
1
1
1
1
1
1
1
1
1
1
1
1
1
1
1
1
1
1
1
1
1
1
1
1
1
1
1
1
1
1
1
1
1
1
1
1
1
1
1
1
1
1
1
1
1
1
1
1
1
1
1
1
1
1
1
1
1
1
1
1
1
1
1
1
1
1
1
1
1
1
1
1
1
1
1
1
1
1
1
1
1
1
1
1
1
1
1
1
1
1
1
1
1
1
1
1
1
1
1
1
1
1
1
1
1
1
1
1
1
1
1
1
1
1
1
1
1
1
1
1
1
1
1
1
1
1
1
1
1
1
1
1
1
1
1
1
1
1
1
1
1
1
1
1
1
1
1
1
1
1
1
1
1
1
1
1
1
1
1
1
1
1
1
1
1
1
1
1
1
1
1
1
1
1
1
1
1
1
1
1
1
1
1
1
1
1
1
1
1
1
1
1
1
1
1
1
1
1
1
1
1
1
1
1
1
1
1
1
1
1
1
1
1
1
1
1
1
1
1
1
1
1
1
1
1
1
1
1
1
1
1
1
1
1
1
1
1
1
1
1
1
1
1
1
1
1
1
1
1
1
1
1
1
1
1
1
1
1
1
1
1
1
1
1
1
1
1
1
1
1
1
1
1
1
1
1
1
1
1
1
1
1
1
1
1
1
1
1
1
1
1
1
1
1
1
1
1
1
1
1
1
1
1
1
1
1
1
1
1
1
1
1
1
1
1
1
1
1
1
1
1
1
1
1
1
1
1
1
1
1
1
1
1
1
1
1
1
1
1
1
1
1
1
1
1
1
1
1
1
1
1
1
1
1
1
1
1
1
1
1
1
1
1
1
1
1
1
1
1
1
1
1
1
1
1
1
1
1
1
1
1
1
1
1
1
1
1
1
1
1
1
1
1
1
1
1
1
1
1
1
1
1
1
1
1
1
1
1
1
1
1
1
1
1
1
1
1
1
1
1
1
1
1
1
1
1
1
1
1
1
1
1
1
1
1
1
1
1
1
1
1
1
1
1
1
1
1
1
1
1
1
1
1
1
1
1
1
1
1
1
1
1
1
1
1
1
1
1
1
1
1
1
1
1
1
1
1
1
1
1
1
1
1
1
1
1
1
1
1
1
1
1
1
1
1
1
1
1
1
1
1
1
1
1
1
1
1
1
1
1
1
1
1
1
1
1
1
1
1
1
1
1
1
1
1
1
1
1
1
1
1
1
1
1
1
1
1
1
1
1
1
1
1
1
1
1
1
1
1
1
1
1
1
1
1
1
1
1
1
1
1
1
1
1
1
1
1
1
1
1
1
1
1
1
1
1
1
1
1
1
1
1
1
1
1
1
1
1
1
1
1
1
1
1
1
1
1
1
1
1
1
1
1
1
1
1
1
1
1
1
1
1
1
1
1
1
1
1
1
1
1
1
1
1
1
1
1
1
1
1
1
1
1
1
1
1
1
1
1
1
1
1
1
1
1
1
1
1
1
1
1
1
1
1
1
1
1
1
1
1
1
1
1
1
1
1
1
1
1
1
1
1
1
1
1
1
1
1
1
1
1
1
1
1
1
1
1
1
1
1
1
1
1
1
1
1
1
1
1
1
1
1
1
1
1
1
1
1
1
1
1
1
1
1
1
1
1
1
1
1
1
1
1
1
1
1
1
1
1
1
1
1
1
1
1
1
1
1
1
1
1
1
1
1
1
1
1
1
1
1
1
1
1
1
1
1
1
1
1
1
1
1
1
1
1
1
1
1
1
1
1
1
1
1
1
1
1
1
1
1
1
1
1
1
1
1
1
1
1
1
1
1
1
1
1
1
1
1
1
1
1
1
1
1
1
1
1
1
1
1
1
1
1
1
1
1
1
1
1
1
1
1
1
1
1
1
1
1
1
1
1
1
1
1
1
1
1
1
1
1
1
1
1
1
1
1
1
1
1
1
1
1
1
1
1
1
1
1
1
1
1
1
1
1
1
1
1
1
1
1
1
1
1
1
1
1
1
1
1
1
1
1
1
1
1
1
1
1
1
1
1
1
1
1
1
1
1
1
1
1
1
1
1
1
1
1
1
1
1
1
1
1
1
1
1
1
1
1
1
1
1
1
1
1
1
1
1
1
1
1
1
1
1
1
1
1
1
1
1
1
1
1
1
1
1
1
1
1
1
1
1
1
1
1
1
1
1
1
1
1
1
1
1
1
1
1
1
1
1
1
1
1
1
1
1
1
1
1
1
1
1
1
1
1
1
1
1
1
1
1
1
1
1
1
1
1
1
1
1
1
1
1
1
1
1
1
1
1
1
1
1
1
1
1
1
1
1
1
1
1
1
1
1
1
1
1
1
1
1
1
1
1
1
1
1
1
1
1
1
1
1
1
1
1
1
1
1
1
1
1
1
1
1
1
1
1
1
1
1
1
1
1
1
1
1
1
1
1
1
1
1
1
1
1
1
1
1
1
1
1
1
1
1
1
1
1
1
1
1
1
1
1
1
1
1
1
1
1
1
1
1
1
1
1
1
1
1
1
1
1
1
1
1
1
1
1
1
1
1
1
1
1
1
1
1
1
1
1
1
1
1
1
1
1
1
1
1
1
1
1
1
1
1
1
1
1
1
1
1.07784
1.17965
1.2883
1.37882
1.47296
1.56022
1.61779
1.66763
1.6962
1.69123
1.66193
1.61274
1.56956
1.53854
1.52679
1.51571
1.51359
1.51627
1.52083
1.52575
1.53075
1.53358
1.53535
1.53634
1.53731
1.53875
1.54058
1.54177
1.54187
1.54189
1.54259
1.54451
1.54644
1.5472
1.54725
1.54705
1.54613
1.54501
1.54454
1.54452
1.54478
1.54502
1.54524
1.54548
1.54563
1.54568
1.54553
1.54546
1.00079
1.00507
1.02347
1.07014
1.12874
1.21484
1.30052
1.37979
1.45151
1.50611
1.53131
1.55356
1.56755
1.56351
1.55433
1.54619
1.5403
1.53644
1.53259
1.53291
1.5344
1.53695
1.53983
1.5422
1.54342
1.54412
1.54432
1.5449
1.54483
1.54466
1.54486
1.54571
1.54662
1.54738
1.54768
1.54754
1.54707
1.54655
1.54646
1.54658
1.54694
1.54749
1.54802
1.54814
1.54812
1.54799
1.54752
1.54781
1
0.999993
1.00001
1.00004
1.00048
1.00455
1.02196
1.07393
1.18405
1.34203
1.50352
1.57866
1.62464
1.62399
1.61539
1.59865
1.57884
1.55626
1.54481
1.54505
1.54652
1.54868
1.55229
1.55511
1.55566
1.55592
1.55602
1.55584
1.55589
1.55579
1.55538
1.55502
1.55484
1.55468
1.55428
1.55355
1.5527
1.55208
1.55189
1.5519
1.55225
1.55298
1.55369
1.55383
1.55365
1.55332
1.55268
1.55345
1
1
1
1
0.999999
0.999999
1.00001
1.00003
1.00213
1.02591
1.15263
1.33105
1.51225
1.59388
1.60646
1.60444
1.59324
1.58674
1.58105
1.57411
1.57096
1.56722
1.56493
1.56452
1.56526
1.56651
1.56745
1.56864
1.56954
1.56951
1.56916
1.56857
1.56805
1.56762
1.56685
1.56581
1.56473
1.56364
1.56293
1.56276
1.56286
1.56311
1.56313
1.56275
1.56184
1.56088
1.55985
1.56064
1
1
1
1
1
1
1
1
1
0.999971
1.00077
1.01723
1.10803
1.30391
1.45561
1.58746
1.61854
1.61858
1.61392
1.60555
1.59081
1.5817
1.57588
1.57161
1.571
1.57165
1.57278
1.57465
1.57648
1.57721
1.57763
1.57825
1.57862
1.57859
1.57821
1.57748
1.57648
1.57534
1.57461
1.57452
1.57462
1.57466
1.57429
1.5733
1.57201
1.5707
1.56921
1.56991
1
1
1
1
1
1
1
1
1
0.999999
0.999999
0.999982
1.00024
1.01217
1.07971
1.2555
1.43564
1.54674
1.60961
1.6088
1.60138
1.59534
1.58959
1.584
1.58038
1.57875
1.57759
1.57752
1.57869
1.58059
1.5822
1.58397
1.58459
1.58447
1.58402
1.58331
1.58244
1.58159
1.58121
1.58122
1.58134
1.5812
1.58043
1.57932
1.57816
1.57719
1.57618
1.57696
1
1
1
1
1
1
1
1
1
1
1
0.999999
0.999999
0.999987
1.00016
1.00641
1.07558
1.21406
1.40502
1.50553
1.575
1.59753
1.59755
1.59525
1.58977
1.5861
1.58246
1.57933
1.57916
1.58013
1.58216
1.58503
1.58595
1.58577
1.58528
1.58454
1.58387
1.58345
1.58335
1.58347
1.58379
1.5837
1.58314
1.58243
1.58189
1.58164
1.58115
1.58164
1
1
1
1
1
1
1
1
1
1
1
1
1
0.999999
0.999999
0.999989
1.00022
1.00433
1.05366
1.19522
1.36514
1.49453
1.53956
1.56909
1.58095
1.5818
1.5801
1.57732
1.57787
1.57881
1.57986
1.58095
1.58232
1.58325
1.58306
1.58267
1.58261
1.58277
1.58334
1.58423
1.5846
1.58454
1.58417
1.58371
1.58354
1.58347
1.58331
1.58334
1
1
1
1
1
1
1
1
1
1
1
1
1
1
1
0.999999
0.999999
0.999993
1.00012
1.00452
1.03947
1.18272
1.33839
1.48046
1.5339
1.55209
1.56348
1.56648
1.57014
1.5709
1.57106
1.57213
1.57368
1.57541
1.57709
1.57835
1.57948
1.58062
1.58167
1.58267
1.58304
1.5831
1.58317
1.58317
1.583
1.5829
1.58293
1.58285
1
1
1
1
1
1
1
1
1
1
1
1
1
1
1
1
1
0.999999
0.999999
0.999995
1.00007
1.00473
1.03843
1.15652
1.33029
1.45615
1.5343
1.55218
1.55962
1.56328
1.56315
1.56382
1.56516
1.56665
1.56842
1.57064
1.57296
1.57502
1.57662
1.57785
1.5784
1.57881
1.57951
1.58014
1.5804
1.58059
1.58107
1.58096
1
1
1
1
1
1
1
1
1
1
1
1
1
1
1
1
1
1
1
1
1
0.999995
1.0001
1.00319
1.04384
1.14826
1.32312
1.44413
1.52439
1.55458
1.56052
1.5616
1.5635
1.56379
1.56416
1.56574
1.56743
1.569
1.57071
1.57219
1.57294
1.57343
1.57411
1.57469
1.57505
1.57543
1.57633
1.57641
1
1
1
1
1
1
1
1
1
1
1
1
1
1
1
1
1
1
1
1
1
0.999999
1
0.999995
1.00019
1.00304
1.04125
1.16322
1.32642
1.44574
1.50927
1.54235
1.55429
1.55811
1.56152
1.56366
1.56385
1.56417
1.56525
1.56701
1.56831
1.56901
1.56943
1.56965
1.56979
1.57027
1.57148
1.57186
1
1
1
1
1
1
1
1
1
1
1
1
1
1
1
1
1
1
1
1
1
1
1
0.999999
1
0.999996
1.00023
1.00477
1.04109
1.1797
1.33599
1.4697
1.5098
1.52941
1.54639
1.55524
1.55482
1.55579
1.55793
1.56034
1.56248
1.56338
1.56351
1.5636
1.56394
1.56484
1.5665
1.56733
1
1
1
1
1
1
1
1
1
1
1
1
1
1
1
1
1
1
1
1
1
1
1
1
1
1
1
0.999997
1.00025
1.00784
1.05091
1.20115
1.361
1.48871
1.53421
1.54038
1.54431
1.54695
1.55011
1.55328
1.55528
1.55658
1.55757
1.55813
1.55892
1.55992
1.56148
1.5627
1
1
1
1
1
1
1
1
1
1
1
1
1
1
1
1
1
1
1
1
1
1
1
1
1
1
1
1
0.999999
1.00001
1.00042
1.01155
1.07531
1.239
1.39941
1.50122
1.54783
1.55223
1.55324
1.55526
1.55519
1.55512
1.55584
1.55611
1.5566
1.55742
1.55885
1.55986
1
1
1
1
1
1
1
1
1
1
1
1
1
1
1
1
1
1
1
1
1
1
1
1
1
1
1
1
1
1
0.999999
1.00003
1.00105
1.01938
1.1204
1.29031
1.43692
1.51185
1.54509
1.55428
1.55536
1.55844
1.55841
1.55776
1.55767
1.55791
1.55866
1.55914
1
1
1
1
1
1
1
1
1
1
1
1
1
1
1
1
1
1
1
1
1
1
1
1
1
1
1
1
1
1
1
1
0.999999
1.0001
1.0032
1.03642
1.18013
1.36187
1.48538
1.51822
1.5379
1.55242
1.55281
1.55351
1.55471
1.55619
1.5577
1.5582
1
1
1
1
1
1
1
1
1
1
1
1
1
1
1
1
1
1
1
1
1
1
1
1
1
1
1
1
1
1
1
1
1
1
1
1.0004
1.01028
1.07609
1.25614
1.42739
1.52972
1.54133
1.54475
1.54726
1.54985
1.55315
1.55577
1.5562
1
1
1
1
1
1
1
1
1
1
1
1
1
1
1
1
1
1
1
1
1
1
1
1
1
1
1
1
1
1
1
1
1
1
1
0.999999
1.00003
1.00163
1.02998
1.1504
1.3551
1.48557
1.54953
1.55679
1.55666
1.55833
1.55849
1.55736
1
1
1
1
1
1
1
1
1
1
1
1
1
1
1
1
1
1
1
1
1
1
1
1
1
1
1
1
1
1
1
1
1
1
1
1
1
1
1.0003
1.00759
1.08599
1.26158
1.43831
1.51454
1.55006
1.55976
1.55989
1.55979
1
1
1
1
1
1
1
1
1
1
1
1
1
1
1
1
1
1
1
1
1
1
1
1
1
1
1
1
1
1
1
1
1
1
1
1
1
1
1
1.00004
1.00233
1.03173
1.18414
1.39022
1.50993
1.53236
1.54506
1.55168
1
1
1
1
1
1
1
1
1
1
1
1
1
1
1
1
1
1
1
1
1
1
1
1
1
1
1
1
1
1
1
1
1
1
1
1
1
1
1
1
1
1.00049
1.01417
1.11249
1.31846
1.48359
1.54445
1.55082
1
1
1
1
1
1
1
1
1
1
1
1
1
1
1
1
1
1
1
1
1
1
1
1
1
1
1
1
1
1
1
1
1
1
1
1
1
1
1
1
1
1
1.00011
1.00528
1.06426
1.25403
1.43398
1.53709
1
1
1
1
1
1
1
1
1
1
1
1
1
1
1
1
1
1
1
1
1
1
1
1
1
1
1
1
1
1
1
1
1
1
1
1
1
1
1
1
1
1
1
1.00003
1.00166
1.03532
1.20507
1.41502
1
1
1
1
1
1
1
1
1
1
1
1
1
1
1
1
1
1
1
1
1
1
1
1
1
1
1
1
1
1
1
1
1
1
1
1
1
1
1
1
1
1
1
1
1
1.00078
1.02294
1.13432
1
1
1
1
1
1
1
1
1
1
1
1
1
1
1
1
1
1
1
1
1
1
1
1
1
1
1
1
1
1
1
1
1
1
1
1
1
1
1
1
1
1
1
1
1
1
1.00039
1.0054
1
1
1
1
1
1
1
1
1
1
1
1
1
1
1
1
1
1
1
1
1
1
1
1
1
1
1
1
1
1
1
1
1
1
1
1
1
1
1
1
1
1
1
1
1
1
1
0.999943
1
1
1
1
1
1
1
1
1
1
1
1
1
1
1
1
1
1
1
1
1
1
1
1
1
1
1
1
1
1
1
1
1
1
1
1
1
1
1
1
1
1
1
1
1
1
1
0.999981
1
1
1
1
1
1
1
1
1
1
1
1
1
1
1
1
1
1
1
1
1
1
1
1
1
1
1
1
1
1
1
1
1
1
1
1
1
1
1
1
1
1
1
1
1
1
1
0.999998
1
1
1
1
1
1
1
1
1
1
1
1
1
1
1
1
1
1
1
1
1
1
1
1
1
1
1
1
1
1
1
1
1
1
1
1
1
1
1
1
1
1
1
1
1
1
1
1
1
1
1
1
1
1
1
1
1
1
1
1
1
1
1
1
1
1
1
1
1
1
1
1
1
1
1
1
1
1
1
1
1
1
1
1
1
1
1
1
1
1
1
1
1
1
1
1
1
1
1
1
1
1
1
1
1
1
1
1
1
1
1
1
1
1
1
1
1
1
1
1
1
1
1
1
1
1
1
1
1
1
1
1
1
1
1
1
1
1
1
1
1
1
1
1
1
1
1
1
1
1
1
1
1
1
1
1
1
1
1
1
1
1
1
1
1
1
1
1
1
1
1
1
1
1
1
1
1
1
1
1
1
1
1
1
1
1
1
1
1
1
1
1
1
1
1
1
1
1
1
1
1
1
1
1
1
1
1
1
1
1
1
1
1
1
1
1
1
1
1
1
1
1
1
1
1
1
1
1
1
1
1
1
1
1
1
1
1
1
1
1
1
1
1
1
1
1
1
1
1
1
1
1
1
1
1
1
1
1
1
1
1
1
1
1
1
1
1
1
1
1
1
1
1
1
1
1
1
1
1
1
1
1
1
1
1
1
1
1
1
1
1
1
1
1
1
1
1
1
1
1
1
1
1
1
1
1
1
1
1
1
1
1
1
1
1
1
1
1
1
1
1
1
1
1
1
1
1
1
1
1
1
1
1
1
1
0.999998
1
1
1
1
1
1
1
1
1
1
1
1
1
1
1
1
1
1
1
1
1
1
1
1
1
1
1
1
1
1
1
1
1
1
1
1
1
1
1
1
1
1
1
1
1
1
1
0.999981
1
1
1
1
1
1
1
1
1
1
1
1
1
1
1
1
1
1
1
1
1
1
1
1
1
1
1
1
1
1
1
1
1
1
1
1
1
1
1
1
1
1
1
1
1
1
1
0.999943
1
1
1
1
1
1
1
1
1
1
1
1
1
1
1
1
1
1
1
1
1
1
1
1
1
1
1
1
1
1
1
1
1
1
1
1
1
1
1
1
1
1
1
1
1
1
1.00039
1.00541
1
1
1
1
1
1
1
1
1
1
1
1
1
1
1
1
1
1
1
1
1
1
1
1
1
1
1
1
1
1
1
1
1
1
1
1
1
1
1
1
1
1
1
1
1
1.00078
1.02295
1.13431
1
1
1
1
1
1
1
1
1
1
1
1
1
1
1
1
1
1
1
1
1
1
1
1
1
1
1
1
1
1
1
1
1
1
1
1
1
1
1
1
1
1
1
1.00003
1.00166
1.03532
1.2051
1.41499
1
1
1
1
1
1
1
1
1
1
1
1
1
1
1
1
1
1
1
1
1
1
1
1
1
1
1
1
1
1
1
1
1
1
1
1
1
1
1
1
1
1
1.00011
1.00528
1.06425
1.25403
1.43399
1.53707
1
1
1
1
1
1
1
1
1
1
1
1
1
1
1
1
1
1
1
1
1
1
1
1
1
1
1
1
1
1
1
1
1
1
1
1
1
1
1
1
1
1.00049
1.01417
1.11249
1.31845
1.48359
1.54446
1.55082
1
1
1
1
1
1
1
1
1
1
1
1
1
1
1
1
1
1
1
1
1
1
1
1
1
1
1
1
1
1
1
1
1
1
1
1
1
1
1
1.00004
1.00233
1.03173
1.18415
1.39021
1.50993
1.53236
1.54507
1.55168
1
1
1
1
1
1
1
1
1
1
1
1
1
1
1
1
1
1
1
1
1
1
1
1
1
1
1
1
1
1
1
1
1
1
1
1
1
1
1.0003
1.00759
1.08599
1.26157
1.43832
1.51454
1.55006
1.55976
1.55989
1.55979
1
1
1
1
1
1
1
1
1
1
1
1
1
1
1
1
1
1
1
1
1
1
1
1
1
1
1
1
1
1
1
1
1
1
1
0.999999
1.00003
1.00163
1.02998
1.1504
1.3551
1.48557
1.54954
1.55678
1.55665
1.55833
1.55849
1.55736
1
1
1
1
1
1
1
1
1
1
1
1
1
1
1
1
1
1
1
1
1
1
1
1
1
1
1
1
1
1
1
1
1
1
1
1.0004
1.01028
1.07609
1.25614
1.42739
1.52972
1.54133
1.54475
1.54726
1.54985
1.55315
1.55577
1.5562
1
1
1
1
1
1
1
1
1
1
1
1
1
1
1
1
1
1
1
1
1
1
1
1
1
1
1
1
1
1
1
1
0.999999
1.0001
1.0032
1.03642
1.18013
1.36187
1.48538
1.51822
1.5379
1.55242
1.55281
1.55351
1.55471
1.55619
1.5577
1.5582
1
1
1
1
1
1
1
1
1
1
1
1
1
1
1
1
1
1
1
1
1
1
1
1
1
1
1
1
1
1
0.999999
1.00003
1.00105
1.01938
1.1204
1.29031
1.43692
1.51185
1.54509
1.55428
1.55536
1.55844
1.55841
1.55776
1.55767
1.55791
1.55866
1.55914
1
1
1
1
1
1
1
1
1
1
1
1
1
1
1
1
1
1
1
1
1
1
1
1
1
1
1
1
0.999999
1.00001
1.00042
1.01155
1.07531
1.239
1.39941
1.50122
1.54783
1.55223
1.55324
1.55526
1.55519
1.55512
1.55584
1.55611
1.5566
1.55742
1.55885
1.55986
1
1
1
1
1
1
1
1
1
1
1
1
1
1
1
1
1
1
1
1
1
1
1
1
1
1
1
0.999997
1.00025
1.00784
1.05091
1.20115
1.36101
1.48871
1.53421
1.54038
1.54431
1.54695
1.55011
1.55328
1.55528
1.55658
1.55757
1.55813
1.55892
1.55992
1.56148
1.5627
1
1
1
1
1
1
1
1
1
1
1
1
1
1
1
1
1
1
1
1
1
1
1
0.999999
1
0.999996
1.00023
1.00477
1.04109
1.1797
1.33599
1.4697
1.5098
1.52941
1.54639
1.55524
1.55482
1.55579
1.55793
1.56034
1.56248
1.56338
1.56351
1.5636
1.56394
1.56484
1.5665
1.56733
1
1
1
1
1
1
1
1
1
1
1
1
1
1
1
1
1
1
1
1
1
0.999999
1
0.999995
1.00019
1.00304
1.04125
1.16322
1.32642
1.44574
1.50927
1.54235
1.55429
1.55811
1.56152
1.56366
1.56385
1.56417
1.56525
1.56701
1.56831
1.56901
1.56943
1.56965
1.56979
1.57027
1.57148
1.57186
1
1
1
1
1
1
1
1
1
1
1
1
1
1
1
1
1
1
1
1
1
0.999995
1.0001
1.00319
1.04384
1.14826
1.32312
1.44413
1.52439
1.55458
1.56052
1.5616
1.5635
1.56379
1.56416
1.56574
1.56743
1.569
1.57071
1.57219
1.57294
1.57343
1.57411
1.57469
1.57505
1.57543
1.57633
1.57641
1
1
1
1
1
1
1
1
1
1
1
1
1
1
1
1
1
0.999999
0.999999
0.999995
1.00007
1.00473
1.03843
1.15652
1.33029
1.45615
1.5343
1.55218
1.55962
1.56328
1.56315
1.56382
1.56516
1.56665
1.56842
1.57064
1.57296
1.57502
1.57662
1.57785
1.5784
1.57881
1.57951
1.58014
1.5804
1.58059
1.58107
1.58096
1
1
1
1
1
1
1
1
1
1
1
1
1
1
1
0.999999
0.999999
0.999993
1.00012
1.00452
1.03947
1.18272
1.33839
1.48046
1.5339
1.55209
1.56348
1.56648
1.57014
1.5709
1.57106
1.57213
1.57368
1.57541
1.57709
1.57835
1.57948
1.58062
1.58167
1.58267
1.58304
1.5831
1.58317
1.58317
1.583
1.5829
1.58293
1.58285
1
1
1
1
1
1
1
1
1
1
1
1
1
0.999999
0.999999
0.999989
1.00022
1.00433
1.05366
1.19522
1.36514
1.49453
1.53956
1.56909
1.58095
1.5818
1.5801
1.57732
1.57787
1.57881
1.57986
1.58095
1.58232
1.58325
1.58306
1.58267
1.58261
1.58277
1.58334
1.58423
1.5846
1.58454
1.58417
1.58371
1.58354
1.58347
1.58331
1.58334
1
1
1
1
1
1
1
1
1
1
1
0.999999
0.999999
0.999987
1.00016
1.00641
1.07558
1.21406
1.40502
1.50553
1.575
1.59753
1.59755
1.59525
1.58977
1.5861
1.58246
1.57933
1.57916
1.58013
1.58216
1.58503
1.58595
1.58577
1.58528
1.58454
1.58387
1.58345
1.58335
1.58347
1.58379
1.5837
1.58314
1.58243
1.58189
1.58164
1.58115
1.58164
1
1
1
1
1
1
1
1
1
0.999999
0.999999
0.999982
1.00024
1.01217
1.07971
1.2555
1.43564
1.54674
1.60961
1.6088
1.60138
1.59534
1.58959
1.584
1.58038
1.57875
1.57759
1.57752
1.57869
1.58059
1.5822
1.58397
1.58459
1.58447
1.58402
1.58331
1.58244
1.58159
1.58121
1.58122
1.58134
1.5812
1.58043
1.57932
1.57816
1.57719
1.57618
1.57696
1
1
1
1
1
1
1
1
1
0.999971
1.00077
1.01723
1.10803
1.30391
1.45561
1.58746
1.61854
1.61858
1.61392
1.60555
1.59081
1.5817
1.57588
1.57161
1.571
1.57165
1.57278
1.57465
1.57648
1.57721
1.57763
1.57825
1.57862
1.57859
1.57821
1.57748
1.57648
1.57534
1.57461
1.57452
1.57462
1.57466
1.57429
1.5733
1.57201
1.5707
1.56921
1.56991
1
1
1
1
0.999999
0.999999
1.00001
1.00003
1.00213
1.02591
1.15263
1.33105
1.51225
1.59388
1.60646
1.60444
1.59324
1.58674
1.58105
1.57411
1.57096
1.56722
1.56493
1.56452
1.56526
1.56651
1.56745
1.56864
1.56954
1.56951
1.56916
1.56857
1.56805
1.56762
1.56685
1.56581
1.56473
1.56364
1.56293
1.56276
1.56286
1.56311
1.56313
1.56275
1.56184
1.56088
1.55985
1.56064
1
0.999993
1.00001
1.00004
1.00048
1.00455
1.02196
1.07393
1.18405
1.34203
1.50352
1.57866
1.62464
1.62399
1.61539
1.59865
1.57884
1.55626
1.54481
1.54505
1.54652
1.54868
1.55229
1.55511
1.55566
1.55592
1.55602
1.55584
1.55589
1.55579
1.55538
1.55502
1.55484
1.55468
1.55428
1.55355
1.5527
1.55208
1.55189
1.5519
1.55225
1.55298
1.55369
1.55383
1.55365
1.55332
1.55268
1.55345
1.00079
1.00507
1.02347
1.07014
1.12874
1.21484
1.30052
1.37979
1.45151
1.50611
1.53131
1.55356
1.56755
1.56351
1.55433
1.54619
1.5403
1.53644
1.53259
1.53291
1.5344
1.53695
1.53983
1.5422
1.54342
1.54412
1.54432
1.5449
1.54483
1.54466
1.54486
1.54571
1.54662
1.54738
1.54768
1.54754
1.54707
1.54655
1.54646
1.54658
1.54694
1.54749
1.54802
1.54814
1.54812
1.54799
1.54752
1.54781
1.07784
1.17965
1.2883
1.37882
1.47296
1.56022
1.61779
1.66763
1.6962
1.69123
1.66193
1.61274
1.56956
1.53854
1.52679
1.51571
1.51359
1.51627
1.52083
1.52575
1.53075
1.53358
1.53535
1.53634
1.53731
1.53875
1.54058
1.54177
1.54187
1.54189
1.54259
1.54451
1.54644
1.5472
1.54725
1.54705
1.54613
1.54501
1.54454
1.54452
1.54478
1.54502
1.54524
1.54548
1.54563
1.54568
1.54553
1.54546
1.40372
1.23273
1.1003
1.0479
0.998088
0.981939
0.99802
1.03075
1.04178
1.05
1.07729
1.11102
1.11378
1.10947
1.11084
1.11321
1.11321
1.11509
1.12131
1.12222
1.12125
1.11896
1.11782
1.11604
1.11161
1.10867
1.1087
1.1087
1.1082
1.1068
1.10545
1.10438
1.10329
1.10297
1.10299
1.10348
1.10496
1.10543
1.10538
1.10517
1.10426
1.10293
1.10276
1.10285
1.10334
1.10389
1.10374
1.10377
1.10557
1.15625
1.35858
1.59782
1.81558
2.04293
2.23466
2.22955
2.17954
2.11046
2.09525
2.08851
2.06963
2.04354
2.03108
2.02523
2.02303
2.01903
2.00964
1.99842
1.97982
1.94914
1.92627
1.91791
1.91255
1.9108
1.90807
1.90149
1.89124
1.86991
1.84897
1.84125
1.83555
1.83006
1.82334
1.81616
1.80657
1.78841
1.76458
1.75395
1.7497
1.74681
1.74594
1.74272
1.7379
1.72967
1.71209
1.69243
1.68304
1.67822
1.67381
1.66864
1.66198
1.6527
1.64214
1.63288
1.62659
1.62241
1.61816
1.6126
1.60265
1.58472
1.57062
1.56592
1.56258
1.55934
1.55674
1.55431
1.55174
1.5477
1.53684
1.51892
1.50807
1.50459
1.50193
1.49911
1.49603
1.49264
1.48822
1.48139
1.47092
1.46016
1.45449
1.45118
1.44796
1.44403
1.43821
1.42826
1.41663
1.41068
1.40779
1.40515
1.40336
1.40197
1.40019
1.39707
1.39148
1.39866
1.4351
1.51655
1.62838
1.72585
1.79421
1.85473
1.90238
1.90002
1.88715
1.87215
1.85665
1.84654
1.83717
1.82489
1.81447
1.80918
1.8065
1.80652
1.80631
1.80377
1.79851
1.7887
1.77664
1.77077
1.76702
1.76362
1.76188
1.75968
1.75756
1.75505
1.7481
1.73303
1.72208
1.71786
1.71477
1.7128
1.71266
1.7118
1.7104
1.70832
1.70297
1.69146
1.68141
1.67704
1.67454
1.66933
1.50158
1.42195
1.31441
1.24839
1.19968
1.12834
1.10277
1.0911
1.06722
1.05919
1.06336
1.06716
1.06529
1.06545
1.06919
1.07694
1.08301
1.08785
1.09596
1.10185
1.10206
1.10181
1.10231
1.1031
1.10208
1.10161
1.1019
1.10244
1.10239
1.1014
1.10085
1.10048
1.10001
1.09973
1.09966
1.10013
1.10078
1.10081
1.10081
1.10053
1.09948
1.09849
1.09832
1.09844
1.09895
1.09904
1.09974
1.10365
1.14352
1.34339
1.53661
1.58259
1.67111
1.77438
1.94992
2.07657
2.12871
2.12394
2.11466
2.09883
2.07495
2.05309
2.03999
2.02988
2.02094
2.01355
2.00759
1.99884
1.98463
1.96159
1.93754
1.92391
1.91716
1.91159
1.9065
1.89965
1.89059
1.87468
1.85334
1.84075
1.83483
1.83102
1.82615
1.8193
1.81035
1.79583
1.77515
1.75946
1.75307
1.74915
1.7449
1.74078
1.73552
1.72776
1.71409
1.69708
1.6883
1.684
1.67925
1.67363
1.66694
1.65692
1.64244
1.63462
1.63076
1.62621
1.62134
1.61533
1.60581
1.58995
1.57429
1.56686
1.56333
1.56034
1.55727
1.55397
1.5502
1.54568
1.53793
1.52338
1.51104
1.50618
1.50307
1.49997
1.49656
1.49316
1.48976
1.48492
1.47598
1.46558
1.45935
1.45566
1.45218
1.44816
1.44283
1.43455
1.42364
1.41569
1.41188
1.40921
1.40743
1.4064
1.40508
1.40832
1.42117
1.4643
1.52752
1.58486
1.62696
1.67473
1.72828
1.76419
1.81393
1.83293
1.84658
1.85889
1.85789
1.85277
1.84368
1.83174
1.81937
1.8135
1.8118
1.81081
1.80904
1.80556
1.79991
1.79072
1.78004
1.77407
1.77036
1.76635
1.76357
1.76104
1.7587
1.75592
1.74973
1.73774
1.72655
1.72103
1.71797
1.71566
1.7144
1.71316
1.71175
1.70945
1.70381
1.6936
1.68439
1.67966
1.6772
1.67214
1.53815
1.49851
1.43256
1.35716
1.29534
1.22235
1.16651
1.13715
1.10245
1.06116
1.05636
1.05322
1.04363
1.04262
1.04535
1.05004
1.0539
1.05877
1.06676
1.07718
1.07939
1.07992
1.08178
1.0843
1.08547
1.08642
1.08843
1.09082
1.09158
1.09139
1.09076
1.08976
1.08952
1.08955
1.08981
1.09053
1.09063
1.09058
1.09048
1.08971
1.08888
1.08884
1.08893
1.08948
1.09029
1.09224
1.10487
1.1613
1.32802
1.53778
1.60279
1.60207
1.608
1.62553
1.70417
1.90642
2.09373
2.15593
2.14499
2.1156
2.08763
2.07232
2.05699
2.03841
2.0207
2.01086
2.00466
1.99727
1.98719
1.97547
1.95818
1.94013
1.92668
1.91806
1.90986
1.90009
1.88881
1.87727
1.86262
1.84691
1.83507
1.82813
1.82192
1.81524
1.80723
1.79777
1.78627
1.77219
1.75998
1.75436
1.7493
1.74258
1.73344
1.72202
1.70995
1.70104
1.69385
1.68604
1.67814
1.67089
1.66396
1.65714
1.64775
1.63732
1.62841
1.62188
1.61618
1.60986
1.60148
1.59103
1.58015
1.57101
1.56521
1.56189
1.55879
1.55508
1.55061
1.54392
1.53272
1.52002
1.5147
1.51185
1.50836
1.50489
1.50119
1.49696
1.49119
1.48282
1.47195
1.46237
1.45657
1.45256
1.44879
1.44451
1.43916
1.43182
1.42213
1.41309
1.40828
1.40618
1.40653
1.4077
1.41573
1.44514
1.50384
1.56531
1.60286
1.62855
1.63582
1.64353
1.65789
1.68277
1.72815
1.78693
1.82317
1.85288
1.864
1.86168
1.85302
1.83822
1.82723
1.82132
1.8159
1.80958
1.80611
1.80357
1.79884
1.79246
1.78645
1.77904
1.76995
1.76446
1.76128
1.75891
1.75652
1.75359
1.7482
1.74121
1.73519
1.72839
1.72013
1.71368
1.71136
1.70985
1.70819
1.70557
1.70047
1.69327
1.68851
1.68445
1.68011
1.67199
1.55584
1.53804
1.49919
1.44025
1.38066
1.31665
1.25487
1.21741
1.17891
1.124
1.10622
1.09196
1.06567
1.05298
1.05424
1.05154
1.04615
1.04577
1.04894
1.0517
1.0534
1.05543
1.05972
1.06666
1.07088
1.07396
1.07692
1.07855
1.0796
1.08029
1.08009
1.07997
1.08057
1.08217
1.08402
1.08461
1.08452
1.08412
1.08296
1.08094
1.08029
1.08036
1.08057
1.0816
1.0841
1.10602
1.22789
1.36914
1.51908
1.60636
1.61898
1.61714
1.6156
1.61281
1.61
1.65663
1.8384
2.05526
2.11407
2.11465
2.10859
2.09614
2.07638
2.05333
2.0336
2.01803
2.00827
1.99929
1.99075
1.98266
1.97457
1.96125
1.94327
1.92631
1.91378
1.90275
1.89221
1.88293
1.87387
1.8605
1.84399
1.83143
1.82322
1.81609
1.80988
1.80484
1.79949
1.78984
1.77591
1.76051
1.74999
1.7413
1.73095
1.72014
1.71176
1.70622
1.70014
1.69231
1.68413
1.67563
1.66677
1.65737
1.64866
1.6404
1.6323
1.62531
1.61837
1.61082
1.60333
1.59688
1.58953
1.58109
1.57214
1.56455
1.56111
1.55803
1.55273
1.54228
1.52947
1.52234
1.51889
1.51361
1.50587
1.50049
1.49757
1.49452
1.49058
1.48293
1.47202
1.46348
1.45822
1.45408
1.45027
1.44606
1.44022
1.43287
1.42391
1.41616
1.41138
1.41126
1.41366
1.43143
1.47799
1.54595
1.59965
1.63346
1.6481
1.65199
1.65063
1.64569
1.63518
1.6354
1.64657
1.68917
1.74092
1.80331
1.84082
1.85075
1.85039
1.84712
1.84261
1.83661
1.82601
1.81434
1.80865
1.80631
1.80162
1.79754
1.79267
1.78539
1.77577
1.76862
1.76546
1.76227
1.75829
1.75396
1.75095
1.74872
1.7445
1.73729
1.72766
1.71914
1.71415
1.71155
1.70861
1.70438
1.7002
1.69763
1.69458
1.69022
1.68459
1.67526
1.56621
1.55996
1.54003
1.49956
1.45184
1.39308
1.33263
1.2915
1.25106
1.19365
1.16136
1.13846
1.10773
1.07874
1.07384
1.06464
1.0489
1.04699
1.04962
1.04914
1.04798
1.04845
1.05051
1.05508
1.0613
1.06628
1.07059
1.0719
1.07273
1.07404
1.07461
1.07464
1.07577
1.07907
1.08046
1.08066
1.08062
1.08022
1.07921
1.0778
1.07745
1.07752
1.07807
1.08011
1.10024
1.25816
1.46423
1.54812
1.59648
1.62284
1.62212
1.61813
1.6172
1.61634
1.61217
1.60014
1.6186
1.75798
1.96434
2.09883
2.12399
2.11498
2.09128
2.07116
2.05218
2.03103
2.01089
2.00005
1.9921
1.98644
1.97781
1.9689
1.95589
1.93605
1.91822
1.90719
1.89841
1.88967
1.87997
1.86851
1.85202
1.83419
1.8254
1.81956
1.81453
1.80921
1.80396
1.79894
1.78786
1.76657
1.74804
1.73807
1.73065
1.72452
1.71925
1.71365
1.70664
1.69805
1.6869
1.67573
1.66711
1.65995
1.6535
1.64641
1.63801
1.62829
1.61922
1.61213
1.60634
1.6008
1.59488
1.58844
1.58059
1.57237
1.56453
1.55774
1.55075
1.54158
1.53269
1.52819
1.52356
1.51758
1.51046
1.50345
1.49897
1.49528
1.49007
1.48223
1.47315
1.46702
1.46303
1.45857
1.45296
1.44718
1.44165
1.43577
1.42915
1.42112
1.41941
1.42582
1.4535
1.51851
1.58709
1.63464
1.65424
1.66174
1.66165
1.65938
1.6553
1.64879
1.63888
1.63049
1.62926
1.63497
1.6593
1.7078
1.77221
1.82145
1.85103
1.85472
1.85208
1.84342
1.83032
1.81796
1.81032
1.80823
1.80548
1.80033
1.79526
1.79061
1.78546
1.77883
1.77061
1.76384
1.7589
1.75588
1.75379
1.75122
1.74782
1.74327
1.73691
1.72836
1.71937
1.71327
1.70884
1.70426
1.70052
1.69785
1.69526
1.69244
1.68953
1.68197
1.57436
1.57043
1.56207
1.53962
1.50544
1.46001
1.40336
1.35794
1.31539
1.26494
1.22913
1.20197
1.16754
1.13214
1.11975
1.10636
1.08259
1.07315
1.0705
1.0623
1.05428
1.05273
1.0529
1.05232
1.05342
1.05721
1.0614
1.06393
1.06606
1.06868
1.07153
1.0727
1.07484
1.07849
1.0796
1.07995
1.08023
1.08005
1.07887
1.07805
1.07797
1.07853
1.08186
1.10596
1.249
1.50565
1.5945
1.61869
1.63229
1.62192
1.61802
1.62081
1.61734
1.61323
1.61033
1.6037
1.58942
1.59316
1.67323
1.87674
2.04074
2.08308
2.08968
2.08216
2.06702
2.04181
2.01477
2.00036
1.99268
1.98678
1.97887
1.96816
1.9567
1.94103
1.92267
1.91031
1.90174
1.89347
1.88486
1.87453
1.85933
1.84074
1.82848
1.82231
1.81709
1.81308
1.80794
1.80091
1.78979
1.76972
1.74856
1.73803
1.73305
1.73092
1.72928
1.72413
1.71725
1.70487
1.68704
1.67482
1.66832
1.66308
1.65807
1.65243
1.64365
1.62877
1.6162
1.61125
1.60819
1.60595
1.60377
1.59961
1.59325
1.58287
1.56637
1.55241
1.5464
1.54334
1.54089
1.53731
1.53218
1.52599
1.51885
1.50971
1.49987
1.49229
1.48651
1.4822
1.47862
1.47446
1.46954
1.46403
1.458
1.45062
1.44194
1.43539
1.4314
1.43244
1.44552
1.48995
1.55699
1.62889
1.66012
1.66289
1.66679
1.66815
1.66681
1.66356
1.65941
1.65409
1.64597
1.63784
1.63237
1.6288
1.62938
1.63898
1.67282
1.72649
1.7875
1.82787
1.84089
1.84056
1.83522
1.82632
1.81599
1.8105
1.8071
1.80378
1.80023
1.79779
1.79444
1.78687
1.77328
1.76402
1.75984
1.7569
1.75551
1.75492
1.75188
1.74806
1.74345
1.73644
1.7259
1.71489
1.70817
1.7049
1.70296
1.70099
1.69827
1.6946
1.69104
1.68447
1.58043
1.57762
1.57465
1.56488
1.54399
1.50845
1.46361
1.4216
1.37621
1.32649
1.29216
1.26024
1.2251
1.19088
1.17025
1.14978
1.11958
1.10238
1.09371
1.08107
1.06474
1.06189
1.06102
1.05711
1.05724
1.05955
1.05975
1.05955
1.06008
1.0619
1.06584
1.07065
1.07568
1.08047
1.08122
1.08144
1.08183
1.08168
1.08059
1.07966
1.07989
1.08643
1.14202
1.27564
1.50314
1.62806
1.64491
1.64382
1.64214
1.62844
1.61421
1.61386
1.6145
1.61045
1.60501
1.60037
1.5922
1.57537
1.56678
1.60637
1.77272
1.95004
2.05639