/*--------------------------------*- C++ -*----------------------------------*\
  =========                 |
  \\      /  F ield         | OpenFOAM: The Open Source CFD Toolbox
   \\    /   O peration     | Website:  https://openfoam.org
    \\  /    A nd           | Version:  7
     \\/     M anipulation  |
\*---------------------------------------------------------------------------*/
FoamFile
{
    version     2.0;
    format      ascii;
    class       volVectorField;
    location    "2";
    object      U;
}
// * * * * * * * * * * * * * * * * * * * * * * * * * * * * * * * * * * * * * //

dimensions      [0 1 -1 0 0 0 0];

internalField   nonuniform List<vector> 
18432
(
(3 5.67549e-18 0)
(3 3.0407e-17 0)
(3 -2.58236e-16 0)
(3 -8.7107e-17 0)
(3 -8.17118e-17 0)
(3 -7.54556e-17 0)
(3 7.52044e-17 0)
(3 6.31499e-16 0)
(3 6.2316e-16 0)
(3 5.1737e-16 0)
(3 -3.63408e-16 0)
(3 -5.69549e-16 0)
(3 -7.92859e-16 0)
(3 -5.93503e-16 0)
(3 -8.30564e-16 0)
(3 -6.65897e-16 0)
(3 -7.53011e-16 0)
(3 -7.44106e-16 0)
(3 -8.47848e-16 0)
(3 -9.07725e-16 0)
(3 -1.14482e-15 0)
(3 -9.31881e-16 0)
(3 -9.6336e-16 0)
(3 -8.4575e-16 0)
(3 -8.11654e-16 0)
(3 -1.32973e-15 0)
(3 -1.75153e-15 0)
(3 -1.6746e-15 0)
(3 -1.58125e-15 0)
(3 -1.47229e-15 0)
(3 -1.15887e-15 0)
(3 -1.37938e-15 0)
(3 -9.46886e-16 0)
(3 -1.70276e-16 0)
(3 2.90658e-16 0)
(3 1.25247e-15 0)
(3 1.83438e-15 0)
(3 1.90081e-15 0)
(3 1.80962e-15 0)
(3 1.27586e-15 0)
(3 6.83657e-16 0)
(3 9.11955e-16 0)
(3 9.91046e-16 0)
(3 7.61449e-16 0)
(3 4.1424e-16 0)
(3 -2.51289e-17 0)
(3 -2.38228e-16 0)
(3 -5.55966e-16 0)
(3 -5.82533e-17 0)
(3 1.59316e-16 0)
(3 -2.60991e-16 0)
(3 -3.13663e-16 0)
(3 -5.78917e-16 0)
(3 -7.37179e-16 0)
(3 -5.80517e-16 0)
(3 -6.406e-16 0)
(3 -3.19059e-16 0)
(3 -9.55384e-17 0)
(3 -5.02563e-16 0)
(3 -1.18539e-15 0)
(3 -1.39576e-15 0)
(3 -1.73204e-15 0)
(3 -1.67867e-15 0)
(3 -1.59428e-15 0)
(3 -1.5389e-15 0)
(3 -1.37765e-15 0)
(3 -1.32681e-15 0)
(3 -1.53227e-15 0)
(3 -1.42812e-15 0)
(3 -1.98008e-15 0)
(3 -2.15291e-15 0)
(3 -1.1439e-15 0)
(3 -9.63594e-16 0)
(3 -1.31613e-15 0)
(3 -1.34537e-15 0)
(3 -1.43542e-15 0)
(3 -1.29588e-15 0)
(3 -1.3771e-15 0)
(3 -1.72227e-15 0)
(3 -2.34917e-15 0)
(3 -2.46706e-15 0)
(3 -1.85344e-15 0)
(3 -5.28835e-16 0)
(3 5.65246e-16 0)
(3 2.67055e-15 0)
(3 3.39529e-15 0)
(3 1.65151e-15 0)
(3 1.10769e-16 0)
(3 3.36209e-16 0)
(3 7.20426e-16 0)
(3 1.61117e-15 0)
(3 1.75189e-15 0)
(3 1.24853e-15 0)
(3 2.17521e-16 0)
(3 -4.84209e-16 0)
(3 -1.98223e-15 0)
(3 -1.43882e-16 0)
(3 -1.65943e-16 0)
(3 -3.11736e-16 0)
(3 -6.89388e-16 0)
(3 -7.99448e-16 0)
(3 -9.37619e-16 0)
(3 -8.5591e-16 0)
(3 -1.29696e-15 0)
(3 -1.75579e-15 0)
(3 -2.37803e-15 0)
(3 -2.46106e-15 0)
(3 -2.00659e-15 0)
(3 -2.11382e-15 0)
(3 -3.41116e-15 0)
(3 -3.25475e-15 0)
(3 -2.57455e-15 0)
(3 -2.24608e-15 0)
(3 -1.50084e-15 0)
(3 -4.98898e-16 0)
(3 2.15728e-16 0)
(3 3.10909e-16 0)
(3 -3.84309e-16 0)
(3 -6.91284e-16 0)
(3 -6.19999e-16 0)
(3 -6.09765e-16 0)
(3 -4.57481e-16 0)
(3 1.69943e-16 0)
(3 6.17737e-16 0)
(3 1.04244e-15 0)
(3 4.89679e-16 0)
(3 1.92883e-16 0)
(3 -7.49241e-17 0)
(3 -6.89528e-16 0)
(3 -6.85175e-16 0)
(3 -1.95464e-16 0)
(3 2.03871e-16 0)
(3 1.56658e-15 0)
(3 2.54701e-15 0)
(3 3.12488e-15 0)
(3 2.63935e-15 0)
(3 1.38635e-15 0)
(3 9.28453e-16 0)
(3 6.75935e-16 0)
(3 1.31519e-15 0)
(3 1.99425e-15 0)
(3 9.69388e-16 0)
(3 -3.25279e-16 0)
(3 -1.13737e-15 0)
(3 1.64298e-16 0)
(3 -5.50782e-17 0)
(3 -1.09798e-16 0)
(3 -1.40104e-16 0)
(3 -9.20804e-17 0)
(3 -1.31985e-16 0)
(3 -3.64715e-16 0)
(3 -2.43573e-16 0)
(3 -9.65762e-16 0)
(3 -1.43375e-15 0)
(3 -2.69602e-15 0)
(3 -3.07943e-15 0)
(3 -2.95102e-15 0)
(3 -2.92294e-15 0)
(3 -2.64566e-15 0)
(3 -2.07812e-15 0)
(3 -1.7696e-15 0)
(3 -1.65631e-15 0)
(3 -5.71838e-16 0)
(3 1.07398e-15 0)
(3 1.43155e-15 0)
(3 1.16272e-15 0)
(3 1.56422e-15 0)
(3 1.32309e-15 0)
(3 1.25138e-15 0)
(3 1.23736e-15 0)
(3 5.65702e-16 0)
(3 3.12136e-16 0)
(3 1.52917e-16 0)
(3 7.82168e-16 0)
(3 3.88227e-16 0)
(3 -1.01197e-15 0)
(3 -1.6125e-15 0)
(3 -1.38366e-15 0)
(3 -9.40583e-16 0)
(3 7.54132e-17 0)
(3 7.51832e-16 0)
(3 1.76082e-15 0)
(3 2.54492e-15 0)
(3 2.58597e-15 0)
(3 1.99822e-15 0)
(3 1.32077e-15 0)
(3 7.4124e-16 0)
(3 8.32794e-16 0)
(3 1.05226e-15 0)
(3 1.34972e-15 0)
(3 1.25318e-15 0)
(3 6.69413e-16 0)
(3 7.41795e-17 0)
(3 -5.04255e-18 0)
(3 3.82348e-16 0)
(3 2.20567e-16 0)
(3 9.70019e-17 0)
(3 4.71326e-16 0)
(3 -7.42269e-17 0)
(3 7.91114e-17 0)
(3 -1.06504e-16 0)
(3 1.70075e-16 0)
(3 -2.76309e-16 0)
(3 -1.26166e-15 0)
(3 -1.50609e-15 0)
(3 -1.07378e-15 0)
(3 -6.86904e-16 0)
(3 -2.90891e-16 0)
(3 -4.3719e-16 0)
(3 -1.01903e-15 0)
(3 -7.83868e-16 0)
(3 -2.88378e-16 0)
(3 1.08339e-16 0)
(3 2.25191e-16 0)
(3 -2.6044e-16 0)
(3 -4.34671e-16 0)
(3 -2.75977e-17 0)
(3 7.05405e-16 0)
(3 9.71724e-16 0)
(3 3.10741e-16 0)
(3 -4.65204e-16 0)
(3 -1.13191e-15 0)
(3 -1.33102e-15 0)
(3 -1.83288e-15 0)
(3 -2.02828e-15 0)
(3 -2.04356e-15 0)
(3 -1.41512e-15 0)
(3 -7.89422e-16 0)
(3 -3.76463e-16 0)
(3 1.57491e-16 0)
(3 6.42416e-16 0)
(3 8.78581e-16 0)
(3 1.494e-15 0)
(3 4.79124e-16 0)
(3 -5.19228e-16 0)
(3 -9.12662e-16 0)
(3 2.35096e-16 0)
(3 1.33724e-15 0)
(3 1.69248e-15 0)
(3 1.36923e-15 0)
(3 -1.06159e-16 0)
(3 -2.67474e-17 0)
(3 3.20287e-16 0)
(3 4.50776e-17 0)
(3 -1.66067e-16 0)
(3 2.43511e-16 0)
(3 3.53507e-16 0)
(3 7.7184e-16 0)
(3 4.76229e-16 0)
(3 1.2576e-16 0)
(3 2.93626e-16 0)
(3 8.78224e-16 0)
(3 5.06531e-16 0)
(3 7.74753e-16 0)
(3 9.87867e-16 0)
(3 6.79865e-16 0)
(3 6.88915e-16 0)
(3 5.46396e-16 0)
(3 6.93337e-16 0)
(3 -6.59776e-16 0)
(3 -1.25668e-15 0)
(3 -1.00779e-15 0)
(3 -1.20258e-15 0)
(3 -1.36106e-15 0)
(3 -3.90862e-17 0)
(3 7.68685e-16 0)
(3 1.88797e-15 0)
(3 1.29096e-15 0)
(3 1.34674e-16 0)
(3 -1.89037e-15 0)
(3 -2.04256e-15 0)
(3 -1.93597e-15 0)
(3 -1.51735e-15 0)
(3 -1.14062e-15 0)
(3 -6.11172e-16 0)
(3 -7.84536e-16 0)
(3 -1.49947e-15 0)
(3 -1.39436e-15 0)
(3 -3.97329e-16 0)
(3 1.58126e-15 0)
(3 1.6286e-15 0)
(3 1.13107e-15 0)
(3 2.93116e-16 0)
(3 -1.139e-16 0)
(3 1.86896e-15 0)
(3 2.65063e-15 0)
(3 3.55882e-15 0)
(3 3.3804e-15 0)
(3 1.79559e-17 0)
(3 2.95954e-18 0)
(3 -3.8437e-16 0)
(3 -2.94201e-16 0)
(3 -4.54471e-16 0)
(3 -1.00247e-15 0)
(3 -6.07042e-16 0)
(3 1.21021e-16 0)
(3 8.17137e-16 0)
(3 8.38031e-16 0)
(3 4.05658e-16 0)
(3 7.2246e-16 0)
(3 2.01997e-15 0)
(3 2.82913e-15 0)
(3 1.48753e-15 0)
(3 5.60948e-16 0)
(3 8.88136e-16 0)
(3 1.76728e-15 0)
(3 8.77221e-17 0)
(3 -1.27261e-15 0)
(3 -2.12001e-15 0)
(3 -2.21297e-15 0)
(3 -7.14648e-16 0)
(3 2.86772e-16 0)
(3 1.57328e-15 0)
(3 1.46506e-15 0)
(3 1.12638e-15 0)
(3 1.0057e-15 0)
(3 7.7749e-16 0)
(3 6.20405e-16 0)
(3 -4.67697e-17 0)
(3 -1.035e-15 0)
(3 -1.20015e-15 0)
(3 -1.17949e-15 0)
(3 -1.03185e-15 0)
(3 -8.63161e-16 0)
(3 -1.24555e-15 0)
(3 -1.60272e-15 0)
(3 -1.20643e-15 0)
(3 9.30451e-17 0)
(3 7.72121e-16 0)
(3 1.38572e-15 0)
(3 2.78253e-15 0)
(3 3.30465e-15 0)
(3 3.53634e-15 0)
(3 3.51603e-15 0)
(3 3.2001e-15 0)
(3 2.78227e-15 0)
(3 -5.10846e-17 0)
(3 8.16487e-17 0)
(3 -2.58234e-16 0)
(3 3.82595e-17 0)
(3 -3.74412e-16 0)
(3 -3.51576e-16 0)
(3 -2.52918e-16 0)
(3 3.58327e-16 0)
(3 3.75634e-16 0)
(3 4.30085e-16 0)
(3 -2.08067e-16 0)
(3 1.70661e-16 0)
(3 1.30723e-15 0)
(3 2.38642e-15 0)
(3 1.94534e-15 0)
(3 6.3914e-16 0)
(3 4.38842e-16 0)
(3 8.25625e-16 0)
(3 3.33281e-16 0)
(3 4.46529e-16 0)
(3 -1.25612e-15 0)
(3 -1.39003e-15 0)
(3 -5.45694e-16 0)
(3 -8.78719e-17 0)
(3 1.22288e-15 0)
(3 2.27627e-15 0)
(3 2.13366e-15 0)
(3 2.24566e-15 0)
(3 2.29353e-15 0)
(3 3.05042e-15 0)
(3 2.84223e-15 0)
(3 2.15437e-15 0)
(3 1.80948e-15 0)
(3 1.69719e-15 0)
(3 1.04623e-15 0)
(3 4.41546e-16 0)
(3 -3.23455e-17 0)
(3 -9.64057e-16 0)
(3 -2.13996e-15 0)
(3 -1.7992e-15 0)
(3 -5.18966e-16 0)
(3 4.33484e-16 0)
(3 1.07915e-15 0)
(3 1.77204e-15 0)
(3 2.07343e-15 0)
(3 1.85964e-15 0)
(3 1.28457e-15 0)
(3 1.19649e-15 0)
(3 -2.55035e-17 0)
(3 2.79962e-16 0)
(3 -1.03831e-17 0)
(3 -5.21702e-16 0)
(3 -6.11001e-16 0)
(3 -3.41816e-16 0)
(3 3.9049e-16 0)
(3 5.64577e-16 0)
(3 -3.74132e-17 0)
(3 -9.69786e-16 0)
(3 -9.94671e-16 0)
(3 -1.32041e-15 0)
(3 -1.30546e-15 0)
(3 -7.76387e-16 0)
(3 -5.11178e-17 0)
(3 9.06428e-16 0)
(3 1.09167e-15 0)
(3 1.1799e-15 0)
(3 1.32053e-15 0)
(3 2.03666e-15 0)
(3 1.51946e-15 0)
(3 2.18245e-16 0)
(3 -6.89167e-16 0)
(3 -3.00692e-16 0)
(3 3.98937e-16 0)
(3 1.31025e-15 0)
(3 2.11573e-15 0)
(3 2.52202e-15 0)
(3 2.19656e-15 0)
(3 1.71094e-15 0)
(3 1.07111e-15 0)
(3 1.69385e-15 0)
(3 2.66475e-15 0)
(3 2.85055e-15 0)
(3 2.33403e-15 0)
(3 1.79088e-15 0)
(3 6.46175e-16 0)
(3 4.60554e-16 0)
(3 -4.06596e-16 0)
(3 -1.13248e-15 0)
(3 -7.08834e-16 0)
(3 -1.04565e-15 0)
(3 1.62342e-16 0)
(3 2.93758e-16 0)
(3 1.77008e-16 0)
(3 -1.3319e-16 0)
(3 3.59271e-16 0)
(3 1.79576e-15 0)
(3 -2.3895e-17 0)
(3 -5.15544e-16 0)
(3 -1.01576e-16 0)
(3 -2.61227e-16 0)
(3 1.11486e-16 0)
(3 2.12502e-16 0)
(3 5.15143e-16 0)
(3 -2.79676e-16 0)
(3 -9.07291e-16 0)
(3 -9.79307e-16 0)
(3 -8.96164e-16 0)
(3 -9.39599e-16 0)
(3 -9.85071e-16 0)
(3 -1.11161e-15 0)
(3 -1.23154e-15 0)
(3 -2.15485e-16 0)
(3 5.8239e-17 0)
(3 4.92137e-16 0)
(3 1.83133e-15 0)
(3 2.7749e-15 0)
(3 2.73893e-15 0)
(3 1.46038e-15 0)
(3 5.22171e-16 0)
(3 -4.93303e-16 0)
(3 -1.35985e-15 0)
(3 -1.5968e-15 0)
(3 -3.28538e-17 0)
(3 4.92562e-16 0)
(3 1.22116e-15 0)
(3 1.57896e-15 0)
(3 1.36977e-15 0)
(3 1.94282e-15 0)
(3 1.43712e-15 0)
(3 1.05469e-15 0)
(3 1.25198e-15 0)
(3 3.58352e-16 0)
(3 1.09129e-16 0)
(3 2.41237e-16 0)
(3 4.48631e-16 0)
(3 -2.78756e-16 0)
(3 -1.06352e-15 0)
(3 -3.93614e-16 0)
(3 4.92961e-16 0)
(3 9.50159e-16 0)
(3 4.01188e-16 0)
(3 1.05874e-16 0)
(3 1.03982e-15 0)
(3 2.0831e-15 0)
(3 5.64399e-17 0)
(3 -2.6863e-17 0)
(3 3.31801e-16 0)
(3 1.46252e-15 0)
(3 2.47719e-15 0)
(3 2.22949e-15 0)
(3 1.31513e-15 0)
(3 4.86343e-16 0)
(3 6.57729e-16 0)
(3 6.99374e-16 0)
(3 2.99039e-16 0)
(3 6.31157e-16 0)
(3 1.04237e-15 0)
(3 1.15854e-15 0)
(3 6.26362e-16 0)
(3 5.09591e-16 0)
(3 3.28787e-16 0)
(3 5.01345e-16 0)
(3 1.16852e-15 0)
(3 1.59569e-15 0)
(3 1.01462e-15 0)
(3 1.22386e-15 0)
(3 1.60023e-15 0)
(3 8.865e-16 0)
(3 -2.60769e-16 0)
(3 -6.77293e-16 0)
(3 -1.18555e-15 0)
(3 -1.64437e-15 0)
(3 -6.50768e-16 0)
(3 8.20525e-16 0)
(3 1.52414e-15 0)
(3 9.69586e-16 0)
(3 7.8516e-16 0)
(3 6.84805e-16 0)
(3 1.02065e-15 0)
(3 9.36801e-16 0)
(3 5.13232e-16 0)
(3 -4.62701e-17 0)
(3 -4.20757e-16 0)
(3 -5.6777e-16 0)
(3 -9.83297e-16 0)
(3 -5.78241e-16 0)
(3 -6.10047e-16 0)
(3 -6.38315e-16 0)
(3 2.69896e-16 0)
(3 1.54341e-15 0)
(3 2.59302e-15 0)
(3 2.02776e-15 0)
(3 1.9158e-16 0)
(3 3.1668e-16 0)
(3 1.1545e-16 0)
(3 4.52515e-16 0)
(3 3.48683e-16 0)
(3 3.38301e-16 0)
(3 2.90312e-16 0)
(3 3.17303e-16 0)
(3 5.98295e-16 0)
(3 1.04303e-15 0)
(3 1.23282e-15 0)
(3 1.87408e-15 0)
(3 2.3911e-15 0)
(3 2.34881e-15 0)
(3 2.1289e-15 0)
(3 1.4541e-15 0)
(3 1.11595e-15 0)
(3 5.85067e-16 0)
(3 -1.09486e-16 0)
(3 -4.88611e-16 0)
(3 -2.65109e-16 0)
(3 5.35478e-16 0)
(3 7.78243e-16 0)
(3 6.78705e-16 0)
(3 -9.71737e-17 0)
(3 -3.16905e-16 0)
(3 -7.7999e-16 0)
(3 -1.88523e-15 0)
(3 -2.25539e-15 0)
(3 -8.84831e-16 0)
(3 2.88072e-17 0)
(3 -1.90356e-16 0)
(3 -3.48131e-16 0)
(3 -4.68776e-16 0)
(3 -5.45362e-16 0)
(3 3.18416e-16 0)
(3 7.95293e-16 0)
(3 5.94756e-16 0)
(3 2.89257e-17 0)
(3 -2.69637e-16 0)
(3 -2.96602e-16 0)
(3 -6.05289e-16 0)
(3 -9.35511e-16 0)
(3 -1.01226e-15 0)
(3 -3.88967e-16 0)
(3 4.62316e-16 0)
(3 5.84434e-16 0)
(3 6.50511e-16 0)
(3 1.01377e-17 0)
(3 1.46894e-16 0)
(3 -1.26971e-18 0)
(3 -6.90991e-16 0)
(3 -1.43046e-15 0)
(3 -1.38132e-15 0)
(3 -1.05948e-15 0)
(3 -1.19363e-15 0)
(3 -1.34805e-15 0)
(3 -1.02176e-15 0)
(3 6.21941e-16 0)
(3 2.67862e-15 0)
(3 2.5101e-15 0)
(3 1.96564e-15 0)
(3 1.43471e-15 0)
(3 9.88025e-16 0)
(3 7.19309e-16 0)
(3 4.61445e-16 0)
(3 -2.22849e-16 0)
(3 -7.56289e-16 0)
(3 2.84291e-16 0)
(3 2.12385e-16 0)
(3 -1.55085e-16 0)
(3 4.20084e-18 0)
(3 4.18921e-16 0)
(3 5.894e-16 0)
(3 3.08371e-16 0)
(3 -3.34016e-16 0)
(3 3.68905e-16 0)
(3 5.84415e-16 0)
(3 2.90062e-16 0)
(3 2.79371e-16 0)
(3 -2.30044e-16 0)
(3 -4.16919e-16 0)
(3 -3.43506e-16 0)
(3 -3.27331e-16 0)
(3 -1.19421e-16 0)
(3 4.99645e-16 0)
(3 1.16827e-15 0)
(3 8.82984e-16 0)
(3 5.18549e-16 0)
(3 1.45456e-15 0)
(3 1.94908e-15 0)
(3 2.13253e-15 0)
(3 1.76845e-15 0)
(3 9.94722e-16 0)
(3 -4.33412e-16 0)
(3 -8.29788e-16 0)
(3 -1.4476e-16 0)
(3 -3.2434e-16 0)
(3 -4.14532e-16 0)
(3 -7.16448e-16 0)
(3 -7.04535e-16 0)
(3 -1.03455e-15 0)
(3 -1.41268e-15 0)
(3 -1.57455e-15 0)
(3 -6.04686e-16 0)
(3 5.80426e-17 0)
(3 3.72845e-16 0)
(3 1.01025e-15 0)
(3 7.60301e-16 0)
(3 4.3765e-16 0)
(3 4.86923e-16 0)
(3 8.79552e-16 0)
(3 7.46489e-16 0)
(3 -1.45694e-16 0)
(3 -4.8451e-16 0)
(3 -6.47759e-16 0)
(3 5.612e-18 0)
(3 1.82756e-16 0)
(3 1.50421e-16 0)
(3 8.73224e-16 0)
(3 1.81571e-15 0)
(3 2.17798e-15 0)
(3 9.35539e-16 0)
(3 1.48601e-15 0)
(3 1.54274e-15 0)
(3 1.34991e-15 0)
(3 1.59839e-15 0)
(3 1.54755e-15 0)
(3 1.22857e-15 0)
(3 1.12797e-15 0)
(3 8.76973e-16 0)
(3 -5.55039e-17 0)
(3 -6.79517e-16 0)
(3 -5.57592e-16 0)
(3 -2.31521e-16 0)
(3 1.37893e-16 0)
(3 3.95158e-16 0)
(3 9.57918e-16 0)
(3 1.15205e-15 0)
(3 1.30972e-15 0)
(3 1.2342e-15 0)
(3 3.0734e-16 0)
(3 -6.93748e-17 0)
(3 -2.58295e-16 0)
(3 1.29076e-18 0)
(3 -8.77061e-17 0)
(3 -6.99281e-17 0)
(3 -2.10711e-16 0)
(3 1.78327e-16 0)
(3 3.62125e-16 0)
(3 -2.44456e-16 0)
(3 -8.03203e-16 0)
(3 -6.30645e-16 0)
(3 -3.07531e-16 0)
(3 -4.66465e-16 0)
(3 -6.5752e-16 0)
(3 -2.65205e-16 0)
(3 -1.29135e-16 0)
(3 5.13564e-16 0)
(3 9.08292e-16 0)
(3 9.56951e-16 0)
(3 1.98084e-16 0)
(3 -1.64102e-16 0)
(3 -5.37964e-16 0)
(3 -2.30043e-16 0)
(3 6.41305e-16 0)
(3 8.23396e-16 0)
(3 3.2293e-16 0)
(3 -3.8154e-16 0)
(3 -1.78196e-16 0)
(3 4.22323e-16 0)
(3 2.85158e-16 0)
(3 4.92928e-16 0)
(3 9.75507e-16 0)
(3 1.55308e-15 0)
(3 1.61263e-15 0)
(3 1.67207e-15 0)
(3 1.51171e-15 0)
(3 1.13889e-15 0)
(3 1.16392e-15 0)
(3 1.28006e-15 0)
(3 -2.59727e-17 0)
(3 -4.12757e-16 0)
(3 1.15217e-16 0)
(3 6.12981e-16 0)
(3 1.60665e-16 0)
(3 -3.30664e-16 0)
(3 -7.91347e-16 0)
(3 -8.32645e-16 0)
(3 -5.03671e-16 0)
(3 -2.26347e-16 0)
(3 4.86854e-16 0)
(3 5.81831e-17 0)
(3 3.02791e-16 0)
(3 5.31755e-16 0)
(3 2.9689e-16 0)
(3 -7.34542e-17 0)
(3 1.10309e-16 0)
(3 1.98828e-16 0)
(3 1.38125e-16 0)
(3 -1.12437e-15 0)
(3 -1.65127e-15 0)
(3 -1.4579e-15 0)
(3 -2.96049e-16 0)
(3 -6.15186e-17 0)
(3 -1.06904e-16 0)
(3 -3.11005e-16 0)
(3 -8.50229e-16 0)
(3 -9.21861e-16 0)
(3 -5.12846e-16 0)
(3 -2.07179e-16 0)
(3 -4.05007e-17 0)
(3 -1.43192e-16 0)
(3 -5.94974e-17 0)
(3 3.26762e-18 0)
(3 -1.78485e-16 0)
(3 -5.77987e-16 0)
(3 -1.6727e-16 0)
(3 9.22491e-17 0)
(3 -7.47601e-16 0)
(3 -3.26653e-16 0)
(3 1.81733e-15 0)
(3 1.5324e-15 0)
(3 7.96701e-16 0)
(3 8.91179e-16 0)
(3 1.11865e-15 0)
(3 1.05413e-15 0)
(3 2.40832e-15 0)
(3 3.24675e-15 0)
(3 2.80041e-15 0)
(3 1.59366e-15 0)
(3 8.59557e-16 0)
(3 5.70123e-16 0)
(3 6.56986e-16 0)
(3 3.3736e-16 0)
(3 -6.77173e-16 0)
(3 -1.69821e-15 0)
(3 -1.09532e-15 0)
(3 1.06623e-18 0)
(3 2.17509e-16 0)
(3 -5.60275e-17 0)
(3 3.25182e-16 0)
(3 2.11484e-16 0)
(3 3.04648e-16 0)
(3 7.5683e-17 0)
(3 -2.65397e-16 0)
(3 -9.61698e-17 0)
(3 4.22271e-16 0)
(3 -2.42839e-16 0)
(3 -5.36455e-16 0)
(3 2.15714e-16 0)
(3 3.22273e-16 0)
(3 1.16002e-16 0)
(3 3.73348e-17 0)
(3 -5.9422e-16 0)
(3 -9.83294e-16 0)
(3 -1.51255e-15 0)
(3 -1.95509e-15 0)
(3 -1.52163e-15 0)
(3 -5.11758e-16 0)
(3 -1.6975e-16 0)
(3 -4.1065e-16 0)
(3 2.42385e-16 0)
(3 6.86979e-16 0)
(3 1.28951e-15 0)
(3 1.26323e-15 0)
(3 3.57651e-16 0)
(3 -5.24594e-16 0)
(3 2.44706e-16 0)
(3 6.80146e-16 0)
(3 7.04656e-16 0)
(3 7.65495e-16 0)
(3 6.72116e-16 0)
(3 3.01952e-16 0)
(3 5.87248e-16 0)
(3 2.5515e-15 0)
(3 2.91567e-15 0)
(3 2.75524e-15 0)
(3 2.43758e-15 0)
(3 1.34182e-15 0)
(3 9.27161e-16 0)
(3 9.23095e-16 0)
(3 1.00337e-15 0)
(3 7.78153e-16 0)
(3 5.25788e-16 0)
(3 7.76894e-17 0)
(3 -1.39666e-16 0)
(3 -7.64623e-16 0)
(3 -3.14094e-18 0)
(3 -5.57255e-17 0)
(3 -6.73212e-17 0)
(3 3.03887e-16 0)
(3 5.05295e-16 0)
(3 3.28225e-16 0)
(3 1.87987e-17 0)
(3 -8.01541e-16 0)
(3 6.75041e-17 0)
(3 8.84329e-16 0)
(3 1.4373e-15 0)
(3 1.10851e-15 0)
(3 9.57792e-16 0)
(3 1.12769e-16 0)
(3 -2.70038e-16 0)
(3 1.24164e-16 0)
(3 2.18266e-16 0)
(3 4.09401e-16 0)
(3 7.20752e-16 0)
(3 6.28515e-16 0)
(3 1.66716e-16 0)
(3 8.49042e-17 0)
(3 4.74395e-16 0)
(3 6.65348e-16 0)
(3 2.6191e-16 0)
(3 -1.10934e-15 0)
(3 -1.22104e-15 0)
(3 -7.56949e-16 0)
(3 -7.5291e-16 0)
(3 -7.60601e-16 0)
(3 -3.99781e-16 0)
(3 6.80861e-16 0)
(3 1.00814e-15 0)
(3 8.54765e-16 0)
(3 7.48196e-16 0)
(3 1.16108e-15 0)
(3 1.34866e-15 0)
(3 1.331e-15 0)
(3 1.6536e-15 0)
(3 2.92979e-15 0)
(3 3.14737e-15 0)
(3 2.68832e-15 0)
(3 1.48645e-15 0)
(3 9.90966e-16 0)
(3 1.62454e-15 0)
(3 1.35529e-15 0)
(3 2.3748e-16 0)
(3 -1.07373e-15 0)
(3 4.08226e-18 0)
(3 -3.24429e-16 0)
(3 -3.20098e-16 0)
(3 -2.78122e-16 0)
(3 -3.46097e-16 0)
(3 -3.84563e-16 0)
(3 -2.29974e-16 0)
(3 -4.92958e-16 0)
(3 9.96773e-16 0)
(3 1.88634e-15 0)
(3 2.79577e-15 0)
(3 3.2054e-15 0)
(3 1.56732e-15 0)
(3 8.52936e-16 0)
(3 6.13015e-16 0)
(3 1.24893e-16 0)
(3 5.52494e-17 0)
(3 6.22956e-16 0)
(3 8.06375e-16 0)
(3 5.64192e-16 0)
(3 -1.82064e-16 0)
(3 -5.09247e-16 0)
(3 -6.28058e-16 0)
(3 -5.4561e-16 0)
(3 -3.50112e-16 0)
(3 -1.46527e-15 0)
(3 -1.59832e-15 0)
(3 -7.77882e-16 0)
(3 -1.3425e-16 0)
(3 -4.2762e-17 0)
(3 -7.3107e-16 0)
(3 -1.46701e-15 0)
(3 -1.06626e-15 0)
(3 1.08443e-15 0)
(3 1.50414e-15 0)
(3 8.20622e-16 0)
(3 9.61753e-16 0)
(3 1.99208e-15 0)
(3 2.30535e-15 0)
(3 2.23637e-15 0)
(3 2.63627e-15 0)
(3 1.87106e-15 0)
(3 4.96906e-16 0)
(3 2.33073e-16 0)
(3 7.24777e-17 0)
(3 -2.36604e-16 0)
(3 -9.19127e-16 0)
(3 -1.01128e-15 0)
(3 8.50066e-17 0)
(3 -7.28545e-17 0)
(3 -9.33416e-17 0)
(3 -2.50236e-16 0)
(3 -4.41965e-16 0)
(3 -2.57882e-16 0)
(3 3.68457e-16 0)
(3 1.36363e-15 0)
(3 2.24864e-15 0)
(3 1.60592e-15 0)
(3 9.6893e-16 0)
(3 8.43938e-16 0)
(3 8.96736e-16 0)
(3 2.73216e-16 0)
(3 1.6986e-16 0)
(3 -1.04963e-16 0)
(3 -1.83965e-16 0)
(3 -3.44267e-16 0)
(3 -9.29039e-16 0)
(3 -1.72336e-15 0)
(3 -1.15765e-15 0)
(3 -1.00852e-15 0)
(3 -9.69617e-16 0)
(3 -1.2621e-15 0)
(3 -1.303e-15 0)
(3 -1.80324e-15 0)
(3 -1.76745e-15 0)
(3 -1.11639e-15 0)
(3 -3.61653e-16 0)
(3 -5.64064e-16 0)
(3 -6.651e-16 0)
(3 -6.25652e-16 0)
(3 -4.38142e-16 0)
(3 3.32277e-17 0)
(3 1.68901e-15 0)
(3 1.93568e-15 0)
(3 1.7048e-15 0)
(3 2.27055e-15 0)
(3 3.04622e-15 0)
(3 1.68064e-15 0)
(3 -1.12743e-16 0)
(3 -2.89384e-16 0)
(3 -2.19062e-16 0)
(3 -3.2973e-16 0)
(3 -1.32944e-15 0)
(3 -1.32977e-15 0)
(3 -8.12807e-17 0)
(3 2.76066e-16 0)
(3 -1.17743e-17 0)
(3 3.21495e-17 0)
(3 8.46351e-17 0)
(3 -3.39353e-16 0)
(3 -3.24975e-16 0)
(3 3.28474e-17 0)
(3 7.58445e-18 0)
(3 3.40859e-16 0)
(3 -1.23669e-16 0)
(3 -5.60589e-16 0)
(3 -1.94464e-15 0)
(3 -2.77378e-15 0)
(3 -1.98158e-15 0)
(3 -3.64167e-16 0)
(3 -5.3028e-17 0)
(3 -1.60689e-16 0)
(3 -7.05489e-16 0)
(3 -1.22467e-15 0)
(3 -1.93188e-15 0)
(3 -1.28437e-15 0)
(3 -7.81905e-16 0)
(3 -5.13598e-16 0)
(3 -7.79021e-16 0)
(3 -1.18479e-15 0)
(3 -1.35731e-15 0)
(3 -1.25632e-15 0)
(3 -1.17066e-15 0)
(3 -1.39155e-15 0)
(3 -1.15783e-15 0)
(3 -1.83796e-15 0)
(3 -1.9615e-15 0)
(3 -7.78906e-16 0)
(3 -6.37896e-16 0)
(3 -7.58642e-16 0)
(3 -7.88571e-16 0)
(3 -1.11895e-15 0)
(3 -3.45015e-16 0)
(3 6.27465e-16 0)
(3 8.79216e-16 0)
(3 -1.63116e-17 0)
(3 -1.2998e-15 0)
(3 -1.41716e-15 0)
(3 -7.77916e-16 0)
(3 -4.63922e-16 0)
(3 2.10636e-16 0)
(3 -1.03469e-16 0)
(3 1.23207e-16 0)
(3 5.43814e-16 0)
(3 2.55737e-16 0)
(3 2.86449e-16 0)
(3 -5.98928e-17 0)
(3 -8.14785e-16 0)
(3 -6.65402e-16 0)
(3 -6.93044e-16 0)
(3 -4.16831e-16 0)
(3 -5.94035e-16 0)
(3 -1.09589e-15 0)
(3 -4.23992e-16 0)
(3 -1.27432e-15 0)
(3 -1.96251e-15 0)
(3 -1.89975e-15 0)
(3 -2.66431e-16 0)
(3 -2.19512e-16 0)
(3 -8.64988e-16 0)
(3 -1.02644e-15 0)
(3 -7.83739e-16 0)
(3 -2.84513e-16 0)
(3 2.04699e-16 0)
(3 8.3145e-18 0)
(3 -2.64573e-16 0)
(3 -5.04314e-16 0)
(3 -4.68416e-16 0)
(3 -9.05206e-16 0)
(3 -6.55674e-16 0)
(3 -3.80116e-16 0)
(3 5.70199e-18 0)
(3 1.27182e-16 0)
(3 1.64318e-16 0)
(3 -1.82281e-15 0)
(3 -1.98035e-15 0)
(3 -2.13882e-15 0)
(3 -2.08934e-15 0)
(3 -2.41798e-15 0)
(3 -2.58843e-15 0)
(3 -1.74528e-15 0)
(3 -8.4455e-16 0)
(3 -1.11939e-15 0)
(3 -2.04893e-15 0)
(3 -2.12455e-15 0)
(3 -1.45747e-15 0)
(3 -7.74103e-16 0)
(3 -4.43458e-17 0)
(3 6.33851e-16 0)
(3 7.91981e-16 0)
(3 1.07362e-15 0)
(3 1.75795e-15 0)
(3 1.4474e-16 0)
(3 -1.14235e-16 0)
(3 -3.22523e-16 0)
(3 -1.96707e-16 0)
(3 1.93191e-16 0)
(3 2.32948e-16 0)
(3 2.93006e-16 0)
(3 -3.7094e-16 0)
(3 -1.4298e-16 0)
(3 1.10287e-15 0)
(3 1.63448e-15 0)
(3 1.22729e-15 0)
(3 7.2682e-16 0)
(3 6.25843e-16 0)
(3 9.11864e-16 0)
(3 7.05402e-16 0)
(3 6.02186e-16 0)
(3 2.87169e-16 0)
(3 3.1396e-16 0)
(3 -2.50387e-16 0)
(3 -3.90007e-16 0)
(3 -3.97379e-16 0)
(3 -1.23603e-16 0)
(3 -2.57005e-16 0)
(3 -9.25019e-16 0)
(3 -1.20103e-15 0)
(3 -6.04439e-16 0)
(3 2.48391e-16 0)
(3 9.04969e-16 0)
(3 7.31042e-16 0)
(3 1.9558e-16 0)
(3 -8.1896e-16 0)
(3 -2.04027e-15 0)
(3 -2.30642e-15 0)
(3 -1.86053e-15 0)
(3 -1.28734e-15 0)
(3 -1.42703e-15 0)
(3 -2.40076e-15 0)
(3 -2.97008e-15 0)
(3 -3.7929e-15 0)
(3 -3.91426e-15 0)
(3 -3.1933e-15 0)
(3 -1.74007e-15 0)
(3 -1.06218e-15 0)
(3 2.84298e-17 0)
(3 7.50931e-16 0)
(3 1.14348e-15 0)
(3 1.20036e-15 0)
(3 -1.77522e-17 0)
(3 1.78335e-17 0)
(3 2.77068e-16 0)
(3 1.13178e-15 0)
(3 9.58889e-16 0)
(3 7.92004e-16 0)
(3 7.09175e-16 0)
(3 4.98815e-16 0)
(3 4.04554e-16 0)
(3 5.52072e-16 0)
(3 1.62265e-15 0)
(3 3.23065e-15 0)
(3 2.98376e-15 0)
(3 1.78188e-15 0)
(3 2.32576e-15 0)
(3 2.11486e-15 0)
(3 1.88607e-15 0)
(3 1.1082e-15 0)
(3 -1.72891e-16 0)
(3 -1.03157e-15 0)
(3 -1.41741e-15 0)
(3 -5.78275e-16 0)
(3 -2.64344e-18 0)
(3 3.57132e-18 0)
(3 5.61488e-16 0)
(3 6.72344e-16 0)
(3 8.827e-16 0)
(3 5.72812e-16 0)
(3 -8.04352e-18 0)
(3 8.74756e-16 0)
(3 1.58771e-15 0)
(3 3.57988e-16 0)
(3 -7.93567e-16 0)
(3 -1.00938e-15 0)
(3 -5.17583e-16 0)
(3 -4.27291e-16 0)
(3 -1.2869e-15 0)
(3 -3.43131e-15 0)
(3 -3.44793e-15 0)
(3 -3.06077e-15 0)
(3 -2.76164e-15 0)
(3 -2.90346e-15 0)
(3 -2.2091e-15 0)
(3 -1.06475e-15 0)
(3 -6.7149e-16 0)
(3 -9.09242e-16 0)
(3 -1.03365e-15 0)
(3 -8.77962e-16 0)
(3 -7.91267e-17 0)
(3 1.97645e-16 0)
(3 2.885e-16 0)
(3 5.87612e-16 0)
(3 2.55134e-16 0)
(3 1.93829e-17 0)
(3 2.53951e-16 0)
(3 4.71815e-16 0)
(3 3.86352e-16 0)
(3 1.15564e-16 0)
(3 -1.18981e-16 0)
(3 -8.22037e-16 0)
(3 -6.96704e-16 0)
(3 -4.67001e-16 0)
(3 2.05502e-16 0)
(3 5.17064e-16 0)
(3 9.22629e-16 0)
(3 1.41307e-15 0)
(3 1.82821e-16 0)
(3 -9.86222e-16 0)
(3 -1.54351e-15 0)
(3 -1.51804e-15 0)
(3 -1.41639e-15 0)
(3 1.816e-17 0)
(3 5.6177e-16 0)
(3 9.75254e-16 0)
(3 1.32172e-15 0)
(3 7.06406e-16 0)
(3 -6.85787e-16 0)
(3 -9.17853e-16 0)
(3 -5.5935e-16 0)
(3 -2.66531e-16 0)
(3 -1.42907e-16 0)
(3 -3.12333e-16 0)
(3 -7.59305e-16 0)
(3 -1.49653e-15 0)
(3 -1.88467e-15 0)
(3 -1.92444e-15 0)
(3 -1.46257e-15 0)
(3 -8.32353e-16 0)
(3 3.16891e-17 0)
(3 -1.17829e-16 0)
(3 -1.2304e-15 0)
(3 -1.58323e-15 0)
(3 -1.62223e-15 0)
(3 -1.92084e-15 0)
(3 -2.06454e-15 0)
(3 -1.46758e-15 0)
(3 -3.10273e-16 0)
(3 -2.42459e-16 0)
(3 1.53137e-16 0)
(3 7.67645e-17 0)
(3 9.19985e-17 0)
(3 1.49884e-16 0)
(3 2.17935e-16 0)
(3 1.77794e-16 0)
(3 3.59072e-16 0)
(3 2.04514e-16 0)
(3 -2.80459e-16 0)
(3 -9.76754e-16 0)
(3 -1.64855e-15 0)
(3 -5.6948e-16 0)
(3 -6.37938e-16 0)
(3 -5.39706e-16 0)
(3 -5.75942e-16 0)
(3 -4.50779e-16 0)
(3 -5.54999e-16 0)
(3 -6.244e-16 0)
(3 -4.36513e-16 0)
(3 -5.96129e-18 0)
(3 -2.39494e-16 0)
(3 1.77422e-16 0)
(3 4.67141e-16 0)
(3 1.12872e-15 0)
(3 7.70297e-16 0)
(3 8.49747e-16 0)
(3 9.08603e-16 0)
(3 6.02935e-16 0)
(3 6.75191e-16 0)
(3 2.13626e-16 0)
(3 4.63285e-16 0)
(3 8.18908e-16 0)
(3 4.10078e-16 0)
(3 -1.65045e-16 0)
(3 -4.34432e-16 0)
(3 -1.01661e-16 0)
(3 1.69244e-17 0)
(3 6.05217e-17 0)
(3 4.35525e-16 0)
(3 9.01303e-16 0)
(3 5.6707e-16 0)
(3 -1.62292e-16 0)
(3 -6.3553e-16 0)
(3 -4.35844e-16 0)
(3 8.0694e-17 0)
(3 6.01903e-17 0)
(3 -1.5745e-17 0)
(3 -2.22195e-16 0)
(3 8.05807e-17 0)
(3 1.05498e-16 0)
(3 8.05127e-16 0)
(3 8.93882e-16 0)
(3 4.51694e-16 0)
(3 -2.20477e-16 0)
(3 -2.4335e-16 0)
(3 -1.8598e-16 0)
(3 -2.74315e-16 0)
(3 -3.0012e-16 0)
(3 -6.39539e-16 0)
(3 -1.52121e-15 0)
(3 -1.42773e-15 0)
(3 -1.25899e-15 0)
(3 -1.23008e-15 0)
(3 -1.94676e-15 0)
(3 -2.05014e-15 0)
(3 -9.10343e-16 0)
(3 3.14691e-17 0)
(3 6.50014e-16 0)
(3 8.75659e-16 0)
(3 1.71476e-16 0)
(3 3.20352e-16 0)
(3 1.06168e-15 0)
(3 5.58526e-16 0)
(3 9.24306e-16 0)
(3 1.17939e-15 0)
(3 1.43017e-15 0)
(3 1.62242e-15 0)
(3 1.56118e-15 0)
(3 1.60305e-15 0)
(3 1.8035e-15 0)
(3 2.64314e-15 0)
(3 2.44505e-15 0)
(3 2.49005e-15 0)
(3 2.48173e-15 0)
(3 2.54338e-15 0)
(3 2.41535e-15 0)
(3 4.06451e-16 0)
(3 6.49905e-16 0)
(3 1.44161e-15 0)
(3 1.37189e-15 0)
(3 1.44086e-15 0)
(3 1.67812e-15 0)
(3 1.88505e-15 0)
(3 1.33353e-15 0)
(3 2.17963e-17 0)
(3 -2.82069e-17 0)
(3 -3.91885e-16 0)
(3 -4.77414e-16 0)
(3 -2.03361e-16 0)
(3 -2.94397e-16 0)
(3 -4.68849e-16 0)
(3 -5.27445e-16 0)
(3 8.0413e-18 0)
(3 -6.10703e-17 0)
(3 -1.24691e-15 0)
(3 -1.32022e-15 0)
(3 -7.91646e-16 0)
(3 -5.54708e-16 0)
(3 -6.35374e-16 0)
(3 -1.20237e-15 0)
(3 -1.23123e-15 0)
(3 -2.13282e-15 0)
(3 -1.49288e-15 0)
(3 -9.84351e-16 0)
(3 -9.4332e-16 0)
(3 1.75283e-17 0)
(3 1.28231e-16 0)
(3 7.1362e-16 0)
(3 1.16653e-15 0)
(3 1.0129e-15 0)
(3 9.27409e-16 0)
(3 8.78009e-16 0)
(3 7.85706e-16 0)
(3 8.72598e-16 0)
(3 7.19366e-17 0)
(3 4.10225e-16 0)
(3 -2.05748e-16 0)
(3 -3.80973e-17 0)
(3 1.18047e-15 0)
(3 1.83839e-15 0)
(3 2.27375e-15 0)
(3 2.14047e-15 0)
(3 1.84258e-15 0)
(3 1.25947e-15 0)
(3 8.26398e-16 0)
(3 1.15803e-15 0)
(3 1.31323e-15 0)
(3 1.24503e-15 0)
(3 1.59519e-15 0)
(3 1.85058e-15 0)
(3 1.96933e-15 0)
(3 1.90295e-15 0)
(3 -3.83166e-17 0)
(3 1.94429e-17 0)
(3 -2.92842e-16 0)
(3 -9.62345e-16 0)
(3 -1.35436e-15 0)
(3 -1.22517e-15 0)
(3 -9.8851e-16 0)
(3 -7.37012e-16 0)
(3 -4.5011e-17 0)
(3 -5.5518e-16 0)
(3 -1.71871e-15 0)
(3 -1.88381e-15 0)
(3 -1.50233e-15 0)
(3 -1.00146e-15 0)
(3 -4.66782e-16 0)
(3 1.69839e-16 0)
(3 3.48003e-16 0)
(3 -7.84438e-16 0)
(3 -1.47984e-15 0)
(3 -4.15407e-17 0)
(3 1.24978e-15 0)
(3 7.92577e-16 0)
(3 8.10872e-16 0)
(3 1.62917e-15 0)
(3 2.74734e-15 0)
(3 1.86148e-15 0)
(3 1.98941e-15 0)
(3 2.34399e-15 0)
(3 1.77457e-15 0)
(3 1.4251e-15 0)
(3 1.12279e-15 0)
(3 -2.69119e-17 0)
(3 -7.75657e-16 0)
(3 -7.61735e-16 0)
(3 -9.4821e-16 0)
(3 -6.64139e-16 0)
(3 2.29692e-16 0)
(3 8.57856e-16 0)
(3 1.11921e-15 0)
(3 6.84313e-16 0)
(3 1.28143e-15 0)
(3 9.95403e-16 0)
(3 3.92675e-16 0)
(3 2.38271e-16 0)
(3 6.39775e-16 0)
(3 9.29747e-16 0)
(3 1.5656e-15 0)
(3 2.24081e-15 0)
(3 -2.17171e-16 0)
(3 -2.45134e-17 0)
(3 -6.32649e-16 0)
(3 -8.37579e-16 0)
(3 -1.19443e-15 0)
(3 -9.35997e-16 0)
(3 -1.20972e-15 0)
(3 -1.30869e-15 0)
(3 -9.05563e-16 0)
(3 -6.26693e-16 0)
(3 -2.06879e-16 0)
(3 2.58311e-16 0)
(3 3.29985e-16 0)
(3 -9.62903e-17 0)
(3 -7.71974e-16 0)
(3 -7.10548e-16 0)
(3 -7.08569e-16 0)
(3 -8.0038e-17 0)
(3 -9.21187e-16 0)
(3 3.21188e-16 0)
(3 1.18448e-15 0)
(3 2.58694e-15 0)
(3 3.34083e-15 0)
(3 2.97481e-15 0)
(3 3.20497e-15 0)
(3 2.9104e-15 0)
(3 1.6796e-15 0)
(3 1.50011e-15 0)
(3 1.22355e-15 0)
(3 2.31774e-16 0)
(3 5.12092e-17 0)
(3 2.36937e-16 0)
(3 4.29879e-16 0)
(3 4.63939e-16 0)
(3 -4.58865e-18 0)
(3 -1.86748e-16 0)
(3 -3.31809e-16 0)
(3 1.71489e-15 0)
(3 2.30331e-15 0)
(3 2.00859e-15 0)
(3 2.45597e-15 0)
(3 2.17371e-15 0)
(3 1.71823e-15 0)
(3 6.33426e-16 0)
(3 3.57583e-16 0)
(3 6.71858e-16 0)
(3 1.44924e-15 0)
(3 1.70177e-15 0)
(3 4.01853e-17 0)
(3 3.19822e-17 0)
(3 1.17065e-16 0)
(3 2.10605e-17 0)
(3 -2.83297e-16 0)
(3 -1.25063e-16 0)
(3 -1.64158e-16 0)
(3 -1.37921e-17 0)
(3 -6.57571e-17 0)
(3 -2.06631e-16 0)
(3 5.32093e-16 0)
(3 1.63411e-15 0)
(3 1.82099e-15 0)
(3 -1.02984e-16 0)
(3 -8.70943e-16 0)
(3 -1.04347e-15 0)
(3 -9.86829e-16 0)
(3 -3.39529e-16 0)
(3 2.56686e-16 0)
(3 6.69905e-16 0)
(3 1.50343e-15 0)
(3 1.54396e-15 0)
(3 1.83038e-15 0)
(3 2.62892e-15 0)
(3 2.12383e-15 0)
(3 1.46577e-15 0)
(3 -3.99295e-16 0)
(3 1.87578e-16 0)
(3 1.60439e-15 0)
(3 9.45598e-16 0)
(3 8.97492e-16 0)
(3 1.39325e-15 0)
(3 2.14831e-15 0)
(3 1.6078e-15 0)
(3 4.54291e-16 0)
(3 -2.35874e-16 0)
(3 -5.10108e-16 0)
(3 -5.5853e-17 0)
(3 1.15075e-15 0)
(3 1.89276e-15 0)
(3 1.78021e-15 0)
(3 1.50053e-15 0)
(3 1.21496e-15 0)
(3 7.87797e-16 0)
(3 9.9508e-17 0)
(3 1.16399e-16 0)
(3 -1.99648e-16 0)
(3 -6.46374e-16 0)
(3 9.12153e-17 0)
(3 4.27371e-16 0)
(3 9.366e-16 0)
(3 7.95174e-16 0)
(3 1.09232e-16 0)
(3 1.43489e-16 0)
(3 6.34381e-16 0)
(3 4.04677e-16 0)
(3 4.25192e-16 0)
(3 1.30463e-15 0)
(3 1.89944e-15 0)
(3 5.28969e-16 0)
(3 -1.16835e-16 0)
(3 -2.46681e-16 0)
(3 1.02127e-17 0)
(3 2.57857e-16 0)
(3 2.60186e-16 0)
(3 2.20725e-16 0)
(3 8.20652e-16 0)
(3 1.2192e-16 0)
(3 -3.60985e-16 0)
(3 -4.5058e-16 0)
(3 -7.41897e-16 0)
(3 -1.21696e-15 0)
(3 -1.47895e-15 0)
(3 -1.58954e-15 0)
(3 -1.11335e-15 0)
(3 4.1185e-16 0)
(3 -1.09461e-16 0)
(3 2.12089e-17 0)
(3 1.63154e-15 0)
(3 3.0599e-15 0)
(3 3.53132e-15 0)
(3 3.03719e-15 0)
(3 1.40817e-15 0)
(3 6.70782e-16 0)
(3 -4.74378e-17 0)
(3 1.97646e-16 0)
(3 6.81349e-16 0)
(3 3.35151e-16 0)
(3 2.22237e-17 0)
(3 -8.75656e-17 0)
(3 -2.97823e-16 0)
(3 2.2597e-16 0)
(3 1.43619e-16 0)
(3 -1.34597e-15 0)
(3 -2.28724e-15 0)
(3 -1.72217e-15 0)
(3 1.18119e-16 0)
(3 3.67783e-16 0)
(3 7.06507e-16 0)
(3 1.17724e-15 0)
(3 1.13352e-15 0)
(3 1.01339e-15 0)
(3 1.13839e-15 0)
(3 1.2383e-15 0)
(3 9.14629e-16 0)
(3 -1.95365e-16 0)
(3 -4.75683e-16 0)
(3 -5.2402e-16 0)
(3 -2.99847e-16 0)
(3 -3.53364e-18 0)
(3 1.21286e-15 0)
(3 1.61604e-15 0)
(3 1.44302e-15 0)
(3 1.63594e-15 0)
(3 7.9485e-16 0)
(3 6.04586e-16 0)
(3 -7.88229e-16 0)
(3 -5.42378e-16 0)
(3 -1.02621e-15 0)
(3 -2.1571e-15 0)
(3 -2.08147e-15 0)
(3 -1.48828e-15 0)
(3 -8.88355e-17 0)
(3 -3.93773e-18 0)
(3 -1.74505e-15 0)
(3 -1.69928e-15 0)
(3 2.8473e-16 0)
(3 2.29377e-15 0)
(3 2.33435e-15 0)
(3 2.04718e-15 0)
(3 1.45683e-15 0)
(3 7.42209e-16 0)
(3 1.28506e-16 0)
(3 3.68386e-17 0)
(3 -3.7556e-16 0)
(3 -9.57245e-17 0)
(3 5.1322e-16 0)
(3 1.62728e-16 0)
(3 6.36747e-16 0)
(3 8.38862e-16 0)
(3 -3.14298e-16 0)
(3 -1.44743e-15 0)
(3 -1.38683e-15 0)
(3 -8.17852e-16 0)
(3 5.03003e-17 0)
(3 4.82628e-17 0)
(3 2.17849e-16 0)
(3 7.78775e-16 0)
(3 1.30621e-15 0)
(3 1.3538e-15 0)
(3 9.66283e-16 0)
(3 2.64064e-16 0)
(3 -4.99504e-16 0)
(3 -1.09025e-15 0)
(3 -2.11244e-15 0)
(3 -1.91316e-15 0)