/*--------------------------------*- C++ -*----------------------------------*\
  =========                 |
  \\      /  F ield         | OpenFOAM: The Open Source CFD Toolbox
   \\    /   O peration     | Website:  https://openfoam.org
    \\  /    A nd           | Version:  7
     \\/     M anipulation  |
\*---------------------------------------------------------------------------*/
FoamFile
{
    version     2.0;
    format      ascii;
    class       volScalarField;
    location    "4";
    object      p;
}
// * * * * * * * * * * * * * * * * * * * * * * * * * * * * * * * * * * * * * //

dimensions      [1 -1 -2 0 0 0 0];

internalField   nonuniform List<scalar> 
73728
(
1
1
1
1
1
1
1
1
1
1
1
1
1
1
1
1
1
1
1
1
1
1
1
1
1
1
1
1
1
1
1
1
1
1
1
1
1
1
1
1
1
1
1
1
1
1
1
1
1
1
1
1
1
1
1
1
1
1
1.00849
6.88535
11.6483
11.8269
11.8833
11.918
11.9313
11.9187
11.8738
11.794
11.6927
11.632
11.6348
11.6739
11.7407
11.8516
11.983
12.0701
12.1151
12.148
12.1637
12.1625
12.1426
12.0876
12.0012
11.9302
11.9056
11.9343
12.0122
12.1129
12.2297
12.3508
12.4603
12.5492
12.602
12.6245
12.5996
12.4675
1
1
1
1
1
1
1
1
1
1
1
1
1
1
1
1
1
1
1
1
1
1
1
1
1
1
1
1
1
1
1
1
1
1
1
1
1
1
1
1
1
1
1
1
1
1
1
1
1
1
1
1
1
1
1
1
1
1
1.00857
6.88671
11.6498
11.829
11.8852
11.9195
11.9322
11.9186
11.8727
11.7916
11.6897
11.6295
11.6328
11.6715
11.7384
11.8498
11.9815
12.0684
12.114
12.1466
12.1615
12.1594
12.1387
12.083
11.9967
11.927
11.9031
11.9327
12.009
12.1113
12.2247
12.341
12.4471
12.5356
12.586
12.5896
12.5728
12.4695
1
1
1
1
1
1
1
1
1
1
1
1
1
1
1
1
1
1
1
1
1
1
1
1
1
1
1
1
1
1
1
1
1
1
1
1
1
1
1
1
1
1
1
1
1
1
1
1
1
1
1
1
1
1
1
1
1
1
1.00873
6.88909
11.652
11.8311
11.8867
11.9201
11.9314
11.9169
11.8698
11.787
11.6844
11.6252
11.6295
11.6676
11.7347
11.8471
11.9795
12.0664
12.1126
12.1445
12.1579
12.1543
12.1321
12.0753
11.9892
11.9214
11.8984
11.9292
12.0019
12.1034
12.2139
12.323
12.4233
12.5084
12.5573
12.5552
12.5348
12.4285
1
1
1
1
1
1
1
1
1
1
1
1
1
1
1
1
1
1
1
1
1
1
1
1
1
1
1
1
1
1
1
1
1
1
1
1
1
1
1
1
1
1
1
1
1
1
1
1
1
1
1
1
1
1
1
1
1
1
1.00901
6.89306
11.6555
11.834
11.8891
11.9211
11.9298
11.914
11.8654
11.7803
11.6767
11.6188
11.6245
11.6618
11.7291
11.8429
11.9765
12.0633
12.1102
12.1408
12.1521
12.1463
12.1216
12.063
11.977
11.9121
11.891
11.9239
11.993
12.0913
12.1995
12.2997
12.3908
12.4676
12.5146
12.5134
12.4883
12.3886
1
1
1
1
1
1
1
1
1
1
1
1
1
1
1
1
1
1
1
1
1
1
1
1
1
1
1
1
1
1
1
1
1
1
1
1
1
1
1
1
1
1
1
1
1
1
1
1
1
1
1
1
1
1
1
1
1
1
1.00938
6.89808
11.6594
11.8371
11.8914
11.922
11.9278
11.9102
11.8593
11.7709
11.6662
11.6109
11.6183
11.6545
11.7221
11.8375
11.9729
12.0592
12.1065
12.1357
12.1445
12.1358
12.1074
12.0455
11.9593
11.8985
11.8806
11.9167
11.9837
12.0775
12.1819
12.2727
12.3526
12.4174
12.4585
12.4627
12.4403
12.3476
1
1
1
1
1
1
1
1
1
1
1
1
1
1
1
1
1
1
1
1
1
1
1
1
1
1
1
1
1
1
1
1
1
1
1
1
1
1
1
1
1
1
1
1
1
1
1
1
1
1
1
1
1
1
1
1
1
1
1.00978
6.9034
11.6634
11.84
11.8935
11.9225
11.925
11.905
11.851
11.7587
11.6538
11.6019
11.6111
11.6464
11.7143
11.8317
11.9686
12.0539
12.1013
12.1291
12.1352
12.123
12.0895
12.0227
11.9351
11.8791
11.8672
11.9081
11.9751
12.0646
12.1636
12.2449
12.3119
12.3629
12.3947
12.4024
12.3805
12.2931
1
1
1
1
1
1
1
1
1
1
1
1
1
1
1
1
1
1
1
1
1
1
1
1
1
1
1
1
1
1
1
1
1
1
1
1
1
1
1
1
1
1
1
1
1
1
1
1
1
1
1
1
1
1
1
1
1
1
1.01014
6.90827
11.6671
11.8423
11.895
11.9222
11.9213
11.8983
11.8403
11.7441
11.6396
11.5918
11.6031
11.6377
11.7063
11.8257
11.9636
12.0469
12.0942
12.1209
12.1245
12.1086
12.0688
11.9952
11.9047
11.8535
11.8507
11.8972
11.9662
12.054
12.1481
12.2202
12.2728
12.3091
12.3304
12.3363
12.3096
12.2215
1
1
1
1
1
1
1
1
1
1
1
1
1
1
1
1
1
1
1
1
1
1
1
1
1
1
1
1
1
1
1
1
1
1
1
1
1
1
1
1
1
1
1
1
1
1
1
1
1
1
1
1
1
1
1
1
1
1
1.01038
6.91179
11.6699
11.8436
11.8954
11.921
11.9165
11.8899
11.8274
11.7273
11.624
11.581
11.5944
11.6289
11.6986
11.8199
11.9576
12.0379
12.0848
12.1108
12.1126
12.093
12.0464
11.9638
11.8689
11.8225
11.8302
11.8826
11.9559
12.0453
12.1369
12.2012
12.2398
12.2615
12.2723
12.2715
12.2359
12.1416
1
1
1
1
1
1
1
1
1
1
1
1
1
1
1
1
1
1
1
1
1
1
1
1
1
1
1
1
1
1
1
1
1
1
1
1
1
1
1
1
1
1
1
1
1
1
1
1
1
1
1
1
1
1
1
1
1
1
1.01042
6.9128
11.6713
11.8434
11.8943
11.9185
11.9107
11.88
11.8127
11.7087
11.6076
11.5698
11.5854
11.6206
11.6919
11.8147
11.9507
12.027
12.0729
12.0983
12.0994
12.0766
12.0229
11.9301
11.8298
11.7886
11.8056
11.8631
11.9424
12.0374
12.1293
12.1878
12.2148
12.2247
12.2253
12.2144
12.1691
12.066
1
1
1
1
1
1
1
1
1
1
1
1
1
1
1
1
1
1
1
1
1
1
1
1
1
1
1
1
1
1
1
1
1
1
1
1
1
1
1
1
1
1
1
1
1
1
1
1
1
1
1
1
1
1
1
1
1
1
1.01002
6.9093
11.6705
11.8414
11.8918
11.9148
11.9041
11.8691
11.7966
11.6887
11.5906
11.5583
11.5763
11.6134
11.6866
11.8102
11.9432
12.0143
12.0583
12.0831
12.0844
12.0591
11.9985
11.8952
11.7901
11.7546
11.7779
11.8383
11.9243
12.0277
12.1221
12.1771
12.1976
12.1987
12.1904
12.1688
12.1143
12.0029
1
1
1
1
1
1
1
1
1
1
1
1
1
1
1
1
1
1
1
1
1
1
1
1
1
1
1
1
1
1
1
1
1
1
1
1
1
1
1
1
1
1
1
1
1
1
1
1
1
1
1
1
1
1
1
1
1
1
1.00901
6.89947
11.6676
11.8381
11.8877
11.9101
11.8968
11.8576
11.7799
11.6679
11.5733
11.5468
11.5673
11.6069
11.6825
11.807
11.9357
12.0003
12.0409
12.0648
12.0671
12.04
11.9729
11.8599
11.7527
11.7237
11.7494
11.8101
11.9013
12.0139
12.1116
12.1657
12.1839
12.1804
12.1657
12.1347
12.0715
11.9521
1
1
1
1
1
1
1
1
1
1
1
1
1
1
1
1
1
1
1
1
1
1
1
1
1
1
1
1
1
1
1
1
1
1
1
1
1
1
1
1
1
1
1
1
1
1
1
1
1
1
1
1
1
1
1
1
1
1
1.00724
6.88179
11.6626
11.834
11.8823
11.9045
11.8892
11.8459
11.763
11.6471
11.5559
11.5354
11.558
11.6008
11.6797
11.8054
11.9291
11.9861
12.0214
12.0434
12.0465
12.0184
11.9449
11.8243
11.7198
11.6977
11.7228
11.7817
11.8758
11.995
12.0949
12.1487
12.1672
12.164
12.1464
12.109
12.0376
11.9107
1
1
1
1
1
1
1
1
1
1
1
1
1
1
1
1
1
1
1
1
1
1
1
1
1
1
1
1
1
1
1
1
1
1
1
1
1
1
1
1
1
1
1
1
1
1
1
1
1
1
1
1
1
1
1
1
1
1
1.00464
6.85528
11.6564
11.8294
11.876
11.8981
11.8811
11.8343
11.7467
11.6269
11.5389
11.5239
11.5482
11.5945
11.6778
11.8055
11.924
11.9727
12.0009
12.0194
12.0221
11.9929
11.9132
11.7882
11.6923
11.6775
11.7009
11.7572
11.8522
11.9738
12.072
12.1227
12.142
12.1425
12.1254
12.0853
12.0061
11.8735
1
1
1
1
1
1
1
1
1
1
1
1
1
1
1
1
1
1
1
1
1
1
1
1
1
1
1
1
1
1
1
1
1
1
1
1
1
1
1
1
1
1
1
1
1
1
1
1
1
1
1
1
1
1
1
1
1
1
1.00234
6.8189
11.6496
11.8254
11.8684
11.8908
11.8722
11.8228
11.7313
11.608
11.5228
11.5123
11.5378
11.5877
11.6765
11.8071
11.9205
11.9612
11.9812
11.9943
11.9942
11.9622
11.8761
11.7513
11.6694
11.6619
11.685
11.7401
11.8352
11.9555
12.0466
12.0899
12.1075
12.1108
12.0953
12.0544
11.9686
11.835
1
1
1
1
1
1
1
1
1
1
1
1
1
1
1
1
1
1
1
1
1
1
1
1
1
1
1
1
1
1
1
1
1
1
1
1
1
1
1
1
1
1
1
1
1
1
1
1
1
1
1
1
1
1
1
1
1
1
1
6.77284
11.6426
11.8228
11.8604
11.8824
11.8621
11.8112
11.7168
11.5909
11.5081
11.5008
11.5267
11.5801
11.6751
11.8094
11.9183
11.9522
11.9642
11.9702
11.9645
11.926
11.8328
11.713
11.6489
11.6487
11.6742
11.731
11.8271
11.944
12.024
12.0565
12.0691
12.0707
12.0539
12.0102
11.9174
11.7896
1
1
1
1
1
1
1
1
1
1
1
1
1
1
1
1
1
1
1
1
1
1
1
1
1
1
1
1
1
1
1
1
1
1
1
1
1
1
1
1
1
1
1
1
1
1
1
1
1
1
1
1
1
1
1
1
1
1
1
6.71615
11.6358
11.8224
11.8524
11.8731
11.8506
11.7991
11.7029
11.5756
11.4954
11.4898
11.5153
11.5717
11.6732
11.8113
11.9166
11.9456
11.9509
11.9495
11.9351
11.8861
11.7838
11.6725
11.628
11.6354
11.6662
11.7274
11.8266
11.9404
12.0077
12.0287
12.0341
12.0295
12.0063
11.9547
11.8531
11.7348
1
1
1
1
1
1
1
1
1
1
1
1
1
1
1
1
1
1
1
1
1
1
1
1
1
1
1
1
1
1
1
1
1
1
1
1
1
1
1
1
1
1
1
1
1
1
1
1
1
1
1
1
1
1
1
1
1
1
1
6.6502
11.6304
11.8245
11.8442
11.8627
11.8375
11.7859
11.6889
11.5614
11.4855
11.4799
11.5042
11.563
11.6704
11.812
11.9143
11.9405
11.9412
11.933
11.9082
11.8461
11.7321
11.6306
11.6042
11.6194
11.6574
11.7264
11.8312
11.9429
11.9981
12.0097
12.0078
11.9945
11.9609
11.8959
11.7826
11.6739
1
1
1
1
1
1
1
1
1
1
1
1
1
1
1
1
1
1
1
1
1
1
1
1
1
1
1
1
1
1
1
1
1
1
1
1
1
1
1
1
1
1
1
1
1
1
1
1
1
1
1
1
1
1
1
1
1
1
1
6.57512
11.6271
11.8281
11.8363
11.851
11.8231
11.7715
11.6737
11.5476
11.4787
11.4723
11.4949
11.5551
11.6671
11.8113
11.9102
11.9354
11.934
11.9199
11.8851
11.8086
11.6826
11.5904
11.5772
11.5989
11.6449
11.7238
11.8369
11.9476
11.9936
11.9991
11.9914
11.9692
11.9245
11.843
11.7168
11.618
1
1
1
1
1
1
1
1
1
1
1
1
1
1
1
1
1
1
1
1
1
1
1
1
1
1
1
1
1
1
1
1
1
1
1
1
1
1
1
1
1
1
1
1
1
1
1
1
1
1
1
1
1
1
1
1
1
1
1
6.49081
11.6258
11.8324
11.8297
11.8385
11.8077
11.7553
11.6561
11.5333
11.4741
11.4676
11.4888
11.5494
11.6643
11.8094
11.9035
11.9282
11.927
11.9089
11.8651
11.7745
11.6388
11.5557
11.5501
11.5746
11.6267
11.716
11.8394
11.9491
11.9901
11.9935
11.982
11.9527
11.8972
11.7983
11.6626
11.5772
1
1
1
1
1
1
1
1
1
1
1
1
1
1
1
1
1
1
1
1
1
1
1
1
1
1
1
1
1
1
1
1
1
1
1
1
1
1
1
1
1
1
1
1
1
1
1
1
1
1
1
1
1
1
1
1
1
1
1
6.3972
11.6255
11.8368
11.8254
11.8258
11.7919
11.737
11.6353
11.5179
11.4707
11.4657
11.4863
11.5477
11.6641
11.8069
11.8936
11.9175
11.9178
11.8978
11.8466
11.7433
11.6024
11.5293
11.5272
11.5507
11.6048
11.7026
11.8354
11.9425
11.9815
11.9863
11.9735
11.9399
11.874
11.7582
11.6198
11.5518
1
1
1
1
1
1
1
1
1
1
1
1
1
1
1
1
1
1
1
1
1
1
1
1
1
1
1
1
1
1
1
1
1
1
1
1
1
1
1
1
1
1
1
1
1
1
1
1
1
1
1
1
1
1
1
1
1
1
1
6.29476
11.6256
11.8409
11.8217
11.815
11.7767
11.7168
11.6109
11.5014
11.4671
11.4656
11.4874
11.551
11.6684
11.8053
11.8813
11.9023
11.9038
11.8833
11.8261
11.7136
11.5741
11.5123
11.5109
11.5319
11.5853
11.6874
11.8247
11.9264
11.9639
11.9713
11.9593
11.9231
11.847
11.7177
11.5863
11.5364
1
1
1
1
1
1
1
1
1
1
1
1
1
1
1
1
1
1
1
1
1
1
1
1
1
1
1
1
1
1
1
1
1
1
1
1
1
1
1
1
1
1
1
1
1
1
1
1
1
1
1
1
1
1
1
1
1
1
1
6.18411
11.6247
11.8448
11.8183
11.8069
11.7626
11.6949
11.5835
11.4841
11.4629
11.4662
11.4917
11.5594
11.6785
11.8062
11.8681
11.8838
11.8838
11.8614
11.7999
11.6825
11.552
11.5033
11.5019
11.5209
11.574
11.6768
11.8121
11.9048
11.9381
11.9464
11.9355
11.897
11.811
11.6733
11.5592
11.5241
1
1
1
1
1
1
1
1
1
1
1
1
1
1
1
1
1
1
1
1
1
1
1
1
1
1
1
1
1
1
1
1
1
1
1
1
1
1
1
1
1
1
1
1
1
1
1
1
1
1
1
1
1
1
1
1
1
1
1
6.06638
11.6223
11.8475
11.8155
11.8011
11.7496
11.6717
11.5542
11.4668
11.4571
11.4658
11.4975
11.5729
11.6953
11.8103
11.856
11.8648
11.8598
11.8339
11.7674
11.6474
11.5326
11.4982
11.4984
11.5175
11.5715
11.6747
11.8043
11.884
11.909
11.9145
11.9019
11.8593
11.7635
11.6228
11.5326
11.5092
1
1
1
1
1
1
1
1
1
1
1
1
1
1
1
1
1
1
1
1
1
1
1
1
1
1
1
1
1
1
1
1
1
1
1
1
1
1
1
1
1
1
1
1
1
1
1
1
1
1
1
1
1
1
1
1
1
1
1
5.94376
11.6174
11.8484
11.8124
11.7963
11.7375
11.6481
11.5248
11.4505
11.4493
11.4632
11.5034
11.5897
11.7163
11.8166
11.8471
11.8479
11.8353
11.8032
11.7301
11.6086
11.5138
11.4924
11.4963
11.5186
11.5757
11.6812
11.804
11.8687
11.8835
11.8819
11.8625
11.8112
11.7042
11.5657
11.5006
11.487
1
1
1
1
1
1
1
1
1
1
1
1
1
1
1
1
1
1
1
1
1
1
1
1
1
1
1
1
1
1
1
1
1
1
1
1
1
1
1
1
1
1
1
1
1
1
1
1
1
1
1
1
1
1
1
1
1
1
1
5.81838
11.6097
11.8477
11.808
11.7909
11.7251
11.6244
11.4977
11.437
11.4404
11.4586
11.5086
11.6082
11.7383
11.8231
11.8421
11.8355
11.8144
11.7726
11.6896
11.5673
11.4931
11.4826
11.4916
11.5204
11.5839
11.6932
11.8095
11.8597
11.8652
11.8547
11.8243
11.7594
11.6394
11.5078
11.4625
11.4559
1
1
1
1
1
1
1
1
1
1
1
1
1
1
1
1
1
1
1
1
1
1
1
1
1
1
1
1
1
1
1
1
1
1
1
1
1
1
1
1
1
1
1
1
1
1
1
1
1
1
1
1
1
1
1
1
1
1
1
5.69196
11.5996
11.845
11.801
11.783
11.711
11.6004
11.4751
11.4278
11.4319
11.4538
11.5144
11.6279
11.7584
11.8281
11.8396
11.8275
11.7987
11.7454
11.65
11.5269
11.4701
11.4673
11.4817
11.5183
11.5905
11.7061
11.8161
11.8548
11.8533
11.8346
11.7933
11.7125
11.5798
11.4591
11.4252
11.4218
1
1
1
1
1
1
1
1
1
1
1
1
1
1
1
1
1
1
1
1
1
1
1
1
1
1
1
1
1
1
1
1
1
1
1
1
1
1
1
1
1
1
1
1
1
1
1
1
1
1
1
1
1
1
1
1
1
1
1
5.56591
11.5879
11.8405
11.7901
11.771
11.6935
11.5756
11.4576
11.4232
11.4259
11.4511
11.5225
11.6483
11.7742
11.8298
11.8368
11.8216
11.787
11.7229
11.6148
11.4925
11.4478
11.4483
11.4666
11.5104
11.593
11.7159
11.8199
11.8494
11.8435
11.8194
11.7688
11.6731
11.5316
11.4257
11.3978
11.3943
1
1
1
1
1
1
1
1
1
1
1
1
1
1
1
1
1
1
1
1
1
1
1
1
1
1
1
1
1
1
1
1
1
1
1
1
1
1
1
1
1
1
1
1
1
1
1
1
1
1
1
1
1
1
1
1
1
1
1
5.44107
11.5752
11.8344
11.776
11.7546
11.6716
11.5497
11.4452
11.4225
11.424
11.453
11.535
11.6689
11.7838
11.8263
11.8311
11.815
11.7765
11.703
11.5841
11.4675
11.4302
11.4298
11.4496
11.4989
11.5917
11.7208
11.8171
11.8396
11.8316
11.8041
11.7458
11.6376
11.4937
11.4064
11.3822
11.3786
1
1
1
1
1
1
1
1
1
1
1
1
1
1
1
1
1
1
1
1
1
1
1
1
1
1
1
1
1
1
1
1
1
1
1
1
1
1
1
1
1
1
1
1
1
1
1
1
1
1
1
1
1
1
1
1
1
1
1
5.31732
11.5616
11.8279
11.7599
11.7341
11.6448
11.5224
11.4368
11.4245
11.4269
11.4618
11.554
11.6896
11.7875
11.8178
11.821
11.8053
11.7641
11.6823
11.556
11.4506
11.4192
11.4162
11.4358
11.4889
11.5896
11.7208
11.8059
11.8231
11.8144
11.7845
11.7191
11.6006
11.4622
11.3952
11.3744
11.372
1
1
1
1
1
1
1
1
1
1
1
1
1
1
1
1
1
1
1
1
1
1
1
1
1
1
1
1
1
1
1
1
1
1
1
1
1
1
1
1
1
1
1
1
1
1
1
1
1
1
1
1
1
1
1
1
1
1
1
5.19386
11.5467
11.8218
11.7432
11.7109
11.614
11.4945
11.4302
11.4269
11.434
11.478
11.5803
11.7109
11.7876
11.8064
11.8072
11.7911
11.7472
11.6576
11.5285
11.4393
11.4131
11.4094
11.4294
11.4857
11.5915
11.7186
11.7882
11.8
11.79
11.7572
11.6847
11.5585
11.4335
11.3855
11.369
11.37
1
1
1
1
1
1
1
1
1
1
1
1
1
1
1
1
1
1
1
1
1
1
1
1
1
1
1
1
1
1
1
1
1
1
1
1
1
1
1
1
1
1
1
1
1
1
1
1
1
1
1
1
1
1
1
1
1
1
1
5.06978
11.529
11.8167
11.7278
11.6867
11.5804
11.4675
11.4242
11.4271
11.443
11.4995
11.6122
11.7332
11.7879
11.7959
11.7919
11.7728
11.7244
11.6267
11.5
11.4301
11.4089
11.4075
11.4303
11.4919
11.6022
11.7191
11.77
11.7738
11.7593
11.7211
11.6404
11.5099
11.4049
11.3721
11.3611
11.3679
1
1
1
1
1
1
1
1
1
1
1
1
1
1
1
1
1
1
1
1
1
1
1
1
1
1
1
1
1
1
1
1
1
1
1
1
1
1
1
1
1
1
1
1
1
1
1
1
1
1
1
1
1
1
1
1
1
1
1
4.94453
11.5066
11.8125
11.7151
11.663
11.5466
11.4438
11.4179
11.4249
11.452
11.5238
11.6461
11.7547
11.7903
11.7888
11.778
11.7529
11.6963
11.5892
11.4702
11.419
11.4034
11.407
11.436
11.5065
11.6219
11.7246
11.7576
11.7507
11.7273
11.6799
11.5884
11.4572
11.3746
11.3523
11.3475
11.3615
1
1
1
1
1
1
1
1
1
1
1
1
1
1
1
1
1
1
1
1
1
1
1
1
1
1
1
1
1
1
1
1
1
1
1
1
1
1
1
1
1
1
1
1
1
1
1
1
1
1
1
1
1
1
1
1
1
1
1
4.81832
11.4775
11.8095
11.7051
11.64
11.5151
11.426
11.4112
11.4215
11.4603
11.5488
11.6788
11.7732
11.7937
11.7854
11.768
11.7344
11.6651
11.5472
11.4398
11.4036
11.3944
11.405
11.4435
11.5259
11.6461
11.7336
11.7513
11.7342
11.7004
11.6402
11.5355
11.4067
11.3435
11.327
11.3278
11.3493
1
1
1
1
1
1
1
1
1
1
1
1
1
1
1
1
1
1
1
1
1
1
1
1
1
1
1
1
1
1
1
1
1
1
1
1
1
1
1
1
1
1
1
1
1
1
1
1
1
1
1
1
1
1
1
1
1
1
1
4.69229
11.441
11.807
11.696
11.6167
11.4881
11.4155
11.4052
11.4185
11.4688
11.5731
11.7076
11.7866
11.7963
11.7845
11.7622
11.7186
11.6331
11.5049
11.4116
11.3848
11.3816
11.4005
11.4508
11.5462
11.6691
11.742
11.7478
11.7229
11.6798
11.6064
11.4887
11.3657
11.3158
11.3014
11.3059
11.3339
1
1
1
1
1
1
1
1
1
1
1
1
1
1
1
1
1
1
1
1
1
1
1
1
1
1
1
1
1
1
1
1
1
1
1
1
1
1
1
1
1
1
1
1
1
1
1
1
1
1
1
1
1
1
1
1
1
1
1
4.56802
11.398
11.8032
11.6846
11.5923
11.4668
11.4117
11.4015
11.4188
11.4797
11.5972
11.7304
11.7937
11.7965
11.7839
11.7579
11.7038
11.6014
11.4669
11.3886
11.3666
11.3678
11.3946
11.4574
11.5651
11.6865
11.746
11.743
11.7128
11.6622
11.5774
11.4504
11.3375
11.2964
11.2817
11.2882
11.3207
1
1
1
1
1
1
1
1
1
1
1
1
1
1
1
1
1
1
1
1
1
1
1
1
1
1
1
1
1
1
1
1
1
1
1
1
1
1
1
1
1
1
1
1
1
1
1
1
1
1
1
1
1
1
1
1
1
1
1
4.44677
11.3512
11.7966
11.6677
11.5667
11.4514
11.4117
11.4023
11.4244
11.4957
11.6226
11.7473
11.7937
11.7934
11.7811
11.7514
11.6871
11.57
11.4364
11.3736
11.3533
11.3575
11.3908
11.4644
11.5812
11.6964
11.7428
11.7338
11.7
11.6433
11.5492
11.4183
11.3198
11.285
11.2704
11.2785
11.3143
1
1
1
1
1
1
1
1
1
1
1
1
1
1
1
1
1
1
1
1
1
1
1
1
1
1
1
1
1
1
1
1
1
1
1
1
1
1
1
1
1
1
1
1
1
1
1
1
1
1
1
1
1
1
1
1
1
1
1
4.33022
11.3034
11.785
11.6455
11.5404
11.4403
11.4132
11.4072
11.4364
11.5189
11.6514
11.7595
11.7883
11.7863
11.7736
11.7398
11.6656
11.5379
11.4133
11.3663
11.3474
11.3541
11.3923
11.4745
11.5956
11.6986
11.732
11.7185
11.6815
11.6194
11.5182
11.3892
11.3072
11.2772
11.2648
11.2756
11.3161
1
1
1
1
1
1
1
1
1
1
1
1
1
1
1
1
1
1
1
1
1
1
1
1
1
1
1
1
1
1
1
1
1
1
1
1
1
1
1
1
1
1
1
1
1
1
1
1
1
1
1
1
1
1
1
1
1
1
1
4.2188
11.2553
11.7687
11.6202
11.5139
11.4316
11.4142
11.4143
11.4536
11.5491
11.6829
11.7687
11.7816
11.7767
11.7615
11.7222
11.6378
11.504
11.3961
11.3633
11.3478
11.3574
11.4007
11.4911
11.6106
11.6954
11.716
11.697
11.6562
11.5889
11.4822
11.3597
11.2943
11.2685
11.2605
11.2762
11.3247
1
1
1
1
1
1
1
1
1
1
1
1
1
1
1
1
1
1
1
1
1
1
1
1
1
1
1
1
1
1
1
1
1
1
1
1
1
1
1
1
1
1
1
1
1
1
1
1
1
1
1
1
1
1
1
1
1
1
1
4.11143
11.2068
11.7501
11.594
11.4885
11.4242
11.4132
11.4222
11.4743
11.584
11.7139
11.7766
11.7778
11.7676
11.7468
11.6993
11.6038
11.4687
11.3822
11.3607
11.3508
11.3648
11.4165
11.5153
11.628
11.6921
11.6994
11.6727
11.6264
11.5525
11.4407
11.3281
11.2773
11.2555
11.2534
11.2764
11.3356
1
1
1
1
1
1
1
1
1
1
1
1
1
1
1
1
1
1
1
1
1
1
1
1
1
1
1
1
1
1
1
1
1
1
1
1
1
1
1
1
1
1
1
1
1
1
1
1
1
1
1
1
1
1
1
1
1
1
1
4.00661
11.1569
11.7312
11.5694
11.466
11.417
11.4111
11.43
11.4972
11.62
11.7413
11.784
11.7776
11.7613
11.7323
11.6734
11.5654
11.4336
11.3696
11.3556
11.3524
11.3737
11.4374
11.5447
11.6469
11.6916
11.6862
11.6508
11.5966
11.5132
11.3957
11.2946
11.2548
11.2371
11.2414
11.274
11.3453
1
1
1
1
1
1
1
1
1
1
1
1
1
1
1
1
1
1
1
1
1
1
1
1
1
1
1
1
1
1
1
1
1
1
1
1
1
1
1
1
1
1
1
1
1
1
1
1
1
1
1
1
1
1
1
1
1
1
1
3.90304
11.1045
11.713
11.5478
11.4483
11.4112
11.409
11.4382
11.5211
11.6538
11.7631
11.7904
11.7793
11.7583
11.7202
11.6474
11.5261
11.4014
11.3564
11.3469
11.3503
11.382
11.46
11.5752
11.6645
11.6931
11.6768
11.6337
11.5706
11.4751
11.3518
11.2628
11.2291
11.2152
11.226
11.2695
11.3529
1
1
1
1
1
1
1
1
1
1
1
1
1
1
1
1
1
1
1
1
1
1
1
1
1
1
1
1
1
1
1
1
1
1
1
1
1
1
1
1
1
1
1
1
1
1
1
1
1
1
1
1
1
1
1
1
1
1
1
3.8002
11.0485
11.6952
11.5298
11.4367
11.4082
11.4087
11.4482
11.545
11.6827
11.7786
11.7949
11.7814
11.7569
11.7101
11.6228
11.4896
11.3752
11.3429
11.3352
11.345
11.3886
11.482
11.6025
11.6778
11.6935
11.6691
11.6207
11.5487
11.4404
11.3137
11.2371
11.2056
11.1951
11.2122
11.2661
11.3598
1
1
1
1
1
1
1
1
1
1
1
1
1
1
1
1
1
1
1
1
1
1
1
1
1
1
1
1
1
1
1
1
1
1
1
1
1
1
1
1
1
1
1
1
1
1
1
1
1
1
1
1
1
1
1
1
1
1
1
3.69851
10.9879
11.6764
11.5145
11.4314
11.4085
11.4125
11.4615
11.5692
11.7063
11.7876
11.7962
11.782
11.7546
11.6997
11.599
11.4577
11.3568
11.3318
11.3239
11.3395
11.3952
11.5025
11.6233
11.6839
11.6893
11.6602
11.6083
11.5279
11.4077
11.2832
11.2191
11.1882
11.1818
11.2047
11.2679
11.3688
1
1
1
1
1
1
1
1
1
1
1
1
1
1
1
1
1
1
1
1
1
1
1
1
1
1
1
1
1
1
1
1
1
1
1
1
1
1
1
1
1
1
1
1
1
1
1
1
1
1
1
1
1
1
1
1
1
1
1
3.59932
10.9231
11.656
11.5005
11.4313
11.4117
11.4214
11.4794
11.5948
11.7258
11.7913
11.7938
11.7793
11.749
11.6866
11.5739
11.4308
11.346
11.3247
11.3167
11.3375
11.4045
11.5226
11.6363
11.6817
11.6789
11.6473
11.5929
11.5042
11.3745
11.2591
11.2063
11.1773
11.1765
11.2057
11.2783
11.3833
1
1
1
1
1
1
1
1
1
1
1
1
1
1
1
1
1
1
1
1
1
1
1
1
1
1
1
1
1
1
1
1
1
1
1
1
1
1
1
1
1
1
1
1
1
1
1
1
1
1
1
1
1
1
1
1
1
1
1
3.50422
10.8548
11.6343
11.4877
11.4331
11.4178
11.4343
11.5018
11.6229
11.7431
11.7923
11.7886
11.7724
11.7386
11.6686
11.546
11.4075
11.3405
11.3213
11.3153
11.3421
11.42
11.5439
11.6433
11.673
11.6628
11.6292
11.5719
11.474
11.339
11.2391
11.1951
11.1714
11.1773
11.2144
11.2973
11.4039
1
1
1
1
1
1
1
1
1
1
1
1
1
1
1
1
1
1
1
1
1
1
1
1
1
1
1
1
1
1
1
1
1
1
1
1
1
1
1
1
1
1
1
1
1
1
1
1
1
1
1
1
1
1
1
1
1
1
1
3.41476
10.7858
11.6111
11.476
11.4351
11.425
11.4498
11.5281
11.6533
11.76
11.7931
11.7829
11.7628
11.7237
11.6453
11.515
11.3872
11.3374
11.3203
11.3195
11.3539
11.443
11.5679
11.6477
11.6614
11.6435
11.6072
11.5446
11.436
11.3011
11.2203
11.1829
11.1671
11.1807
11.2281
11.3214
11.4273
1
1
1
1
1
1
1
1
1
1
1
1
1
1
1
1
1
1
1
1
1
1
1
1
1
1
1
1
1
1
1
1
1
1
1
1
1
1
1
1
1
1
1
1
1
1
1
1
1
1
1
1
1
1
1
1
1
1
1
3.33146
10.7182
11.5882
11.4657
11.4358
11.4315
11.466
11.5561
11.6843
11.7766
11.7957
11.7791
11.7532
11.7066
11.6178
11.4823
11.3694
11.3338
11.3198
11.3261
11.3709
11.4716
11.5926
11.6523
11.6508
11.6251
11.5846
11.5131
11.3923
11.2637
11.2006
11.169
11.162
11.1841
11.243
11.3462
11.4491
1
1
1
1
1
1
1
1
1
1
1
1
1
1
1
1
1
1
1
1
1
1
1
1
1
1
1
1
1
1
1
1
1
1
1
1
1
1
1
1
1
1
1
1
1
1
1
1
1
1
1
1
1
1
1
1
1
1
1
3.25403
10.653
11.5678
11.4574
11.4348
11.4362
11.4819
11.5835
11.713
11.7921
11.8001
11.7781
11.7462
11.6901
11.589
11.4503
11.3533
11.3276
11.3178
11.3325
11.3897
11.5015
11.6151
11.6567
11.6433
11.6121
11.5652
11.4806
11.348
11.2305
11.1809
11.1544
11.1554
11.1866
11.2573
11.3687
11.4653
1
1
1
1
1
1
1
1
1
1
1
1
1
1
1
1
1
1
1
1
1
1
1
1
1
1
1
1
1
1
1
1
1
1
1
1
1
1
1
1
1
1
1
1
1
1
1
1
1
1
1
1
1
1
1
1
1
1
1
3.18159
10.5912
11.5506
11.4516
11.4329
11.4395
11.4965
11.6085
11.7374
11.805
11.8048
11.7795
11.7423
11.6761
11.5621
11.422
11.3397
11.319
11.3138
11.3368
11.4067
11.5279
11.6325
11.6592
11.6386
11.6043
11.5495
11.4501
11.3087
11.2049
11.1637
11.1414
11.1492
11.189
11.2708
11.3872
11.4742
1
1
1
1
1
1
1
1
1
1
1
1
1
1
1
1
1
1
1
1
1
1
1
1
1
1
1
1
1
1
1
1
1
1
1
1
1
1
1
1
1
1
1
1
1
1
1
1
1
1
1
1
1
1
1
1
1
1
1
3.11316
10.5318
11.5374
11.448
11.4312
11.4429
11.5104
11.6304
11.7564
11.814
11.8083
11.782
11.7404
11.6646
11.5385
11.3993
11.3301
11.3097
11.3083
11.3391
11.4207
11.5484
11.6433
11.6586
11.6348
11.5988
11.5357
11.4224
11.2772
11.1877
11.1513
11.1329
11.146
11.1935
11.2848
11.4021
11.4755
1
1
1
1
1
1
1
1
1
1
1
1
1
1
1
1
1
1
1
1
1
1
1
1
1
1
1
1
1
1
1
1
1
1
1
1
1
1
1
1
1
1
1
1
1
1
1
1
1
1
1
1
1
1
1
1
1
1
1
3.04809
10.474
11.5271
11.4471
11.4309
11.4483
11.5246
11.6495
11.7705
11.8191
11.8099
11.7835
11.7381
11.6536
11.5178
11.3826
11.324
11.3024
11.3036
11.341
11.4326
11.5634
11.6482
11.6548
11.6303
11.5924
11.5211
11.3963
11.2526
11.1773
11.1443
11.1299
11.1473
11.2021
11.3016
11.4152
11.4724
1
1
1
1
1
1
1
1
1
1
1
1
1
1
1
1
1
1
1
1
1
1
1
1
1
1
1
1
1
1
1
1
1
1
1
1
1
1
1
1
1
1
1
1
1
1
1
1
1
1
1
1
1
1
1
1
1
1
1
2.98633
10.417
11.5187
11.448
11.4331
11.4568
11.5399
11.667
11.7807
11.8207
11.8089
11.7823
11.7333
11.6408
11.4979
11.3699
11.3204
11.2981
11.3018
11.3454
11.4453
11.5754
11.649
11.6484
11.624
11.5828
11.5035
11.3698
11.2321
11.1701
11.1404
11.1306
11.1524
11.2157
11.3226
11.4286
11.4702
1
1
1
1
1
1
1
1
1
1
1
1
1
1
1
1
1
1
1
1
1
1
1
1
1
1
1
1
1
1
1
1
1
1
1
1
1
1
1
1
1
1
1
1
1
1
1
1
1
1
1
1
1
1
1
1
1
1
1
2.92842
10.3608
11.5113
11.4493
11.4379
11.468
11.5568
11.6842
11.7889
11.8202
11.8054
11.7775
11.7248
11.6249
11.4776
11.3593
11.3178
11.2965
11.3039
11.3542
11.4615
11.5873
11.6482
11.6412
11.6152
11.5697
11.4823
11.3418
11.2131
11.1628
11.1367
11.1322
11.1601
11.2336
11.3466
11.4429
11.4709
1
1
1
1
1
1
1
1
1
1
1
1
1
1
1
1
1
1
1
1
1
1
1
1
1
1
1
1
1
1
1
1
1
1
1
1
1
1
1
1
1
1
1
1
1
1
1
1
1
1
1
1
1
1
1
1
1
1
1
2.87531
10.3067
11.5043
11.4501
11.444
11.4807
11.5748
11.7015
11.7968
11.8195
11.8009
11.7703
11.7128
11.6059
11.4568
11.3497
11.3151
11.2968
11.3094
11.3672
11.4811
11.6005
11.6483
11.6352
11.6056
11.5543
11.4582
11.3127
11.1948
11.1539
11.1315
11.1325
11.1686
11.2528
11.3705
11.4569
11.4737
1
1
1
1
1
1
1
1
1
1
1
1
1
1
1
1
1
1
1
1
1
1
1
1
1
1
1
1
1
1
1
1
1
1
1
1
1
1
1
1
1
1
1
1
1
1
1
1
1
1
1
1
1
1
1
1
1
1
1
2.82789
10.2563
11.4981
11.4502
11.4499
11.4932
11.5925
11.7185
11.8051
11.82
11.7975
11.7629
11.6997
11.5855
11.4364
11.3407
11.3116
11.2976
11.316
11.3822
11.5021
11.6143
11.6503
11.6316
11.5975
11.5393
11.434
11.2851
11.178
11.1438
11.1247
11.1312
11.1759
11.2706
11.3912
11.4678
11.4751
1
1
1
1
1
1
1
1
1
1
1
1
1
1
1
1
1
1
1
1
1
1
1
1
1
1
1
1
1
1
1
1
1
1
1
1
1
1
1
1
1
1
1
1
1
1
1
1
1
1
1
1
1
1
1
1
1
1
1
2.78655
10.2114
11.4931
11.4493
11.4543
11.5039
11.6082
11.7338
11.8135
11.8223
11.7965
11.7578
11.6882
11.5664
11.418
11.3324
11.3069
11.2976
11.322
11.3963
11.5213
11.6264
11.653
11.6297
11.5916
11.5268
11.4128
11.262
11.1645
11.1344
11.1178
11.1292
11.1819
11.2855
11.4063
11.473
11.4715
1
1
1
1
1
1
1
1
1
1
1
1
1
1
1
1
1
1
1
1
1
1
1
1
1
1
1
1
1
1
1
1
1
1
1
1
1
1
1
1
1
1
1
1
1
1
1
1
1
1
1
1
1
1
1
1
1
1
1
2.75108
10.1728
11.4898
11.4477
11.4569
11.512
11.6208
11.746
11.8208
11.8254
11.7976
11.7561
11.6802
11.5508
11.4032
11.3261
11.3019
11.2964
11.3258
11.4074
11.5361
11.635
11.6545
11.6285
11.5879
11.5175
11.3959
11.2448
11.1562
11.1281
11.1132
11.1284
11.1875
11.2976
11.4152
11.4709
11.4613
1
1
1
1
1
1
1
1
1
1
1
1
1
1
1
1
1
1
1
1
1
1
1
1
1
1
1
1
1
1
1
1
1
1
1
1
1
1
1
1
1
1
1
1
1
1
1
1
1
1
1
1
1
1
1
1
1
1
1
2.72083
10.14
11.4882
11.4462
11.4583
11.5179
11.63
11.7546
11.8262
11.8283
11.8001
11.7567
11.6754
11.5394
11.3928
11.3223
11.2977
11.2942
11.3274
11.4147
11.5457
11.6395
11.6544
11.6272
11.5852
11.5104
11.3828
11.2332
11.1525
11.1254
11.1118
11.1298
11.1937
11.3083
11.4201
11.4637
11.4465
1
1
1
1
1
1
1
1
1
1
1
1
1
1
1
1
1
1
1
1
1
1
1
1
1
1
1
1
1
1
1
1
1
1
1
1
1
1
1
1
1
1
1
1
1
1
1
1
1
1
1
1
1
1
1
1
1
1
1
2.69493
10.1122
11.4878
11.4452
11.4598
11.5227
11.6368
11.7602
11.8295
11.8303
11.8027
11.7578
11.6719
11.5306
11.386
11.3205
11.295
11.2923
11.3282
11.4196
11.5515
11.6413
11.6527
11.6253
11.5824
11.5039
11.3716
11.2246
11.1511
11.1247
11.1127
11.1331
11.2012
11.3191
11.4238
11.4555
11.4316
1
1
1
1
1
1
1
1
1
1
1
1
1
1
1
1
1
1
1
1
1
1
1
1
1
1
1
1
1
1
1
1
1
1
1
1
1
1
1
1
1
1
1
1
1
1
1
1
1
1
1
1
1
1
1
1
1
1
1
2.67278
10.0883
11.4878
11.4451
11.4621
11.5274
11.6425
11.7641
11.8311
11.831
11.8037
11.7573
11.6675
11.5222
11.3805
11.3198
11.294
11.2921
11.33
11.4245
11.5565
11.6418
11.6501
11.6223
11.5785
11.4964
11.3602
11.2162
11.1489
11.1232
11.1133
11.1365
11.2089
11.3297
11.4287
11.4508
11.4218
1
1
1
1
1
1
1
1
1
1
1
1
1
1
1
1
1
1
1
1
1
1
1
1
1
1
1
1
1
1
1
1
1
1
1
1
1
1
1
1
1
1
1
1
1
1
1
1
1
1
1
1
1
1
1
1
1
1
1
2.65433
10.068
11.4874
11.4455
11.4655
11.5326
11.648
11.7673
11.8317
11.8305
11.8025
11.7543
11.6612
11.5133
11.375
11.3189
11.2939
11.2938
11.3342
11.4313
11.5627
11.6434
11.6481
11.6189
11.5729
11.4871
11.3471
11.2062
11.1436
11.1189
11.1116
11.1384
11.2154
11.3391
11.4353
11.4505
11.4193
1
1
1
1
1
1
1
1
1
1
1
1
1
1
1
1
1
1
1
1
1
1
1
1
1
1
1
1
1
1
1
1
1
1
1
1
1
1
1
1
1
1
1
1
1
1
1
1
1
1
1
1
1
1
1
1
1
1
1
2.63987
10.0513
11.4864
11.446
11.4694
11.538
11.6532
11.7703
11.8319
11.829
11.7992
11.7491
11.6534
11.5044
11.3696
11.3174
11.2943
11.297
11.3399
11.4393
11.57
11.6468
11.6479
11.6163
11.5672
11.4771
11.3336
11.1951
11.1358
11.1118
11.1074
11.1378
11.2196
11.3461
11.4415
11.4532
11.4225
1
1
1
1
1
1
1
1
1
1
1
1
1
1
1
1
1
1
1
1
1
1
1
1
1
1
1
1
1
1
1
1
1
1
1
1
1
1
1
1
1
1
1
1
1
1
1
1
1
1
1
1
1
1
1
1
1
1
1
2.63018
10.0389
11.4848
11.4462
11.4727
11.5425
11.6575
11.7729
11.8319
11.8274
11.7955
11.7436
11.646
11.4964
11.3646
11.3157
11.2949
11.3001
11.3453
11.4467
11.5772
11.6506
11.649
11.6151
11.5629
11.4691
11.3225
11.1854
11.1279
11.1041
11.1019
11.1354
11.2212
11.3503
11.4455
11.4573
11.4286
1
1
1
1
1
1
1
1
1
1
1
1
1
1
1
1
1
1
1
1
1
1
1
1
1
1
1
1
1
1
1
1
1
1
1
1
1
1
1
1
1
1
1
1
1
1
1
1
1
1
1
1
1
1
1
1
1
1
1
2.62597
10.032
11.4831
11.446
11.4744
11.5451
11.6603
11.775
11.8324
11.827
11.7936
11.7401
11.641
11.4908
11.3607
11.3139
11.2946
11.3015
11.3486
11.4515
11.5821
11.6537
11.6505
11.6151
11.5611
11.4648
11.316
11.1792
11.1223
11.0984
11.0975
11.1329
11.2209
11.3519
11.4473
11.4597
11.4326
1
1
1
1
1
1
1
1
1
1
1
1
1
1
1
1
1
1
1
1
1
1
1
1
1
1
1
1
1
1
1
1
1
1
1
1
1
1
1
1
1
1
1
1
1
1
1
1
1
1
1
1
1
1
1
1
1
1
1
2.626
10.032
11.483
11.4459
11.4743
11.5451
11.6603
11.7751
11.8325
11.827
11.7936
11.7401
11.641
11.4908
11.3607
11.3139
11.2946
11.3015
11.3486
11.4515
11.5822
11.6538
11.6505
11.6151
11.5611
11.4648
11.316
11.1792
11.1223
11.0984
11.0975
11.1329
11.2209
11.352
11.4473
11.4597
11.4326
1
1
1
1
1
1
1
1
1
1
1
1
1
1
1
1
1
1
1
1
1
1
1
1
1
1
1
1
1
1
1
1
1
1
1
1
1
1
1
1
1
1
1
1
1
1
1
1
1
1
1
1
1
1
1
1
1
1
1
2.63012
10.0389
11.4848
11.4462
11.4727
11.5425
11.6575
11.773
11.832
11.8274
11.7955
11.7436
11.646
11.4964
11.3646
11.3157
11.2949
11.3001
11.3454
11.4468
11.5773
11.6507
11.649
11.6151
11.5629
11.4691
11.3225
11.1854
11.1279
11.1042
11.1019
11.1354
11.2212
11.3504
11.4455
11.4573
11.4286
1
1
1
1
1
1
1
1
1
1
1
1
1
1
1
1
1
1
1
1
1
1
1
1
1
1
1
1
1
1
1
1
1
1
1
1
1
1
1
1
1
1
1
1
1
1
1
1
1
1
1
1
1
1
1
1
1
1
1
2.6398
10.0512
11.4864
11.446
11.4695
11.5381
11.6532
11.7704
11.832
11.829
11.7992
11.7491
11.6533
11.5043
11.3696
11.3174
11.2943
11.297
11.3399
11.4394
11.5701
11.6469
11.648
11.6163
11.5672
11.4771
11.3335
11.1952
11.1359
11.1119
11.1075
11.1379
11.2197
11.3461
11.4415
11.4532
11.4225
1
1
1
1
1
1
1
1
1
1
1
1
1
1
1
1
1
1
1
1
1
1
1
1
1
1
1
1
1
1
1
1
1
1
1
1
1
1
1
1
1
1
1
1
1
1
1
1
1
1
1
1
1
1
1
1
1
1
1
2.65424
10.0678
11.4874
11.4455
11.4656
11.5327
11.648
11.7674
11.8318
11.8305
11.8025
11.7543
11.6611
11.5133
11.3749
11.3189
11.2939
11.2938
11.3343
11.4314
11.5628
11.6435
11.6482
11.6189
11.573
11.4871
11.3471
11.2062
11.1437
11.119
11.1117
11.1385
11.2156
11.3392
11.4354
11.4505
11.4193
1
1
1
1
1
1
1
1
1
1
1
1
1
1
1
1
1
1
1
1
1
1
1
1
1
1
1
1
1
1
1
1
1
1
1
1
1
1
1
1
1
1
1
1
1
1
1
1
1
1
1
1
1
1
1
1
1
1
1
2.67267
10.0882
11.4879
11.4451
11.4622
11.5275
11.6426
11.7641
11.8311
11.8311
11.8038
11.7574
11.6674
11.5222
11.3804
11.3198
11.294
11.2921
11.3301
11.4246
11.5566
11.6419
11.6501
11.6224
11.5785
11.4964
11.3602
11.2162
11.149
11.1234
11.1135
11.1367
11.2091
11.3298
11.4288
11.4508
11.4218
1
1
1
1
1
1
1
1
1
1
1
1
1
1
1
1
1
1
1
1
1
1
1
1
1
1
1
1
1
1
1
1
1
1
1
1
1
1
1
1
1
1
1
1
1
1
1
1
1
1
1
1
1
1
1
1
1
1
1
2.69479
10.112
11.4879
11.4452
11.4599
11.5228
11.6369
11.7603
11.8296
11.8304
11.8027
11.7578
11.6719
11.5305
11.386
11.3205
11.295
11.2923
11.3283
11.4197
11.5516
11.6414
11.6527
11.6253
11.5825
11.5039
11.3716
11.2247
11.1512
11.1248
11.1128
11.1333
11.2014
11.3193
11.4239
11.4555
11.4316
1
1
1
1
1
1
1
1
1
1
1
1
1
1
1
1
1
1
1
1
1
1
1
1
1
1
1
1
1
1
1
1
1
1
1
1
1
1
1
1
1
1
1
1
1
1
1
1
1
1
1
1
1
1
1
1
1
1
1
2.72067
10.1398
11.4883
11.4463
11.4584
11.518
11.6301
11.7547
11.8263
11.8283
11.8002
11.7568
11.6754
11.5393
11.3928
11.3224
11.2977
11.2942
11.3275
11.4148
11.5459
11.6396
11.6544
11.6273
11.5852
11.5104
11.3828
11.2332
11.1526
11.1255
11.112
11.13
11.194
11.3086
11.4203
11.4637
11.4465
1
1
1
1
1
1
1
1
1
1
1
1
1
1
1
1
1
1
1
1
1
1
1
1
1
1
1
1
1
1
1
1
1
1
1
1
1
1
1
1
1
1
1
1
1
1
1
1
1
1
1
1
1
1
1
1
1
1
1
2.7509
10.1726