/*--------------------------------*- C++ -*----------------------------------*\
  =========                 |
  \\      /  F ield         | OpenFOAM: The Open Source CFD Toolbox
   \\    /   O peration     | Website:  https://openfoam.org
    \\  /    A nd           | Version:  7
     \\/     M anipulation  |
\*---------------------------------------------------------------------------*/
FoamFile
{
    version     2.0;
    format      ascii;
    class       volScalarField;
    location    "4";
    object      rho;
}
// * * * * * * * * * * * * * * * * * * * * * * * * * * * * * * * * * * * * * //

dimensions      [1 -3 0 0 0 0 0];

internalField   nonuniform List<scalar> 
73728
(
1.40001
1.40001
1.40001
1.40001
1.40001
1.40001
1.40001
1.40001
1.40001
1.40001
1.40001
1.40001
1.40001
1.40001
1.40001
1.40001
1.40001
1.40001
1.40001
1.40001
1.40001
1.40001
1.40001
1.40001
1.40001
1.40001
1.40001
1.40001
1.40001
1.40001
1.40001
1.40001
1.40001
1.40001
1.40001
1.40001
1.40001
1.40001
1.40001
1.40001
1.40001
1.40001
1.40001
1.40001
1.40001
1.40001
1.40001
1.40001
1.40001
1.40001
1.40001
1.40001
1.40001
1.40001
1.40001
1.40001
1.40001
1.40001
1.40339
4.04653
5.5924
5.68348
5.72149
5.73825
5.74107
5.73326
5.71655
5.69239
5.66055
5.63989
5.63991
5.65194
5.67464
5.71364
5.75942
5.78914
5.80397
5.81456
5.81937
5.81826
5.81037
5.79046
5.7597
5.73414
5.72453
5.73305
5.75818
5.79125
5.82976
5.86959
5.90523
5.93385
5.95041
5.95681
5.94514
5.89554
1.40001
1.40001
1.40001
1.40001
1.40001
1.40001
1.40001
1.40001
1.40001
1.40001
1.40001
1.40001
1.40001
1.40001
1.40001
1.40001
1.40001
1.40001
1.40001
1.40001
1.40001
1.40001
1.40001
1.40001
1.40001
1.40001
1.40001
1.40001
1.40001
1.40001
1.40001
1.40001
1.40001
1.40001
1.40001
1.40001
1.40001
1.40001
1.40001
1.40001
1.40001
1.40001
1.40001
1.40001
1.40001
1.40001
1.40001
1.40001
1.40001
1.40001
1.40001
1.40001
1.40001
1.40001
1.40001
1.40001
1.40001
1.40001
1.40343
4.04692
5.59273
5.68407
5.72196
5.7386
5.74122
5.73312
5.71607
5.69151
5.65947
5.63898
5.6392
5.65113
5.67386
5.71302
5.7589
5.78854
5.80355
5.81408
5.8186
5.81719
5.80901
5.78887
5.75816
5.73304
5.72368
5.7325
5.7571
5.7907
5.82807
5.8663
5.90078
5.92917
5.94503
5.94525
5.93684
5.89776
1.40001
1.40001
1.40001
1.40001
1.40001
1.40001
1.40001
1.40001
1.40001
1.40001
1.40001
1.40001
1.40001
1.40001
1.40001
1.40001
1.40001
1.40001
1.40001
1.40001
1.40001
1.40001
1.40001
1.40001
1.40001
1.40001
1.40001
1.40001
1.40001
1.40001
1.40001
1.40001
1.40001
1.40001
1.40001
1.40001
1.40001
1.40001
1.40001
1.40001
1.40001
1.40001
1.40001
1.40001
1.40001
1.40001
1.40001
1.40001
1.40001
1.40001
1.40001
1.40001
1.40001
1.40001
1.40001
1.40001
1.40001
1.40001
1.40349
4.04761
5.5931
5.68438
5.722
5.73832
5.74051
5.73216
5.71483
5.68978
5.65751
5.63737
5.63797
5.64973
5.67255
5.71204
5.75816
5.78777
5.80301
5.81326
5.81728
5.81538
5.80673
5.78624
5.75558
5.7311
5.72206
5.7313
5.75468
5.78803
5.82442
5.86025
5.89284
5.92002
5.93534
5.93373
5.92463
5.88568
1.40001
1.40001
1.40001
1.40001
1.40001
1.40001
1.40001
1.40001
1.40001
1.40001
1.40001
1.40001
1.40001
1.40001
1.40001
1.40001
1.40001
1.40001
1.40001
1.40001
1.40001
1.40001
1.40001
1.40001
1.40001
1.40001
1.40001
1.40001
1.40001
1.40001
1.40001
1.40001
1.40001
1.40001
1.40001
1.40001
1.40001
1.40001
1.40001
1.40001
1.40001
1.40001
1.40001
1.40001
1.40001
1.40001
1.40001
1.40001
1.40001
1.40001
1.40001
1.40001
1.40001
1.40001
1.40001
1.40001
1.40001
1.40001
1.40361
4.04881
5.59367
5.68474
5.72212
5.73794
5.7393
5.73058
5.7129
5.68717
5.65458
5.63497
5.63611
5.64764
5.67057
5.71053
5.75702
5.78658
5.80201
5.81184
5.81517
5.81252
5.80308
5.78196
5.75137
5.72793
5.71955
5.72947
5.75167
5.78392
5.81954
5.85244
5.882
5.90644
5.92102
5.91968
5.90944
5.87368
1.40001
1.40001
1.40001
1.40001
1.40001
1.40001
1.40001
1.40001
1.40001
1.40001
1.40001
1.40001
1.40001
1.40001
1.40001
1.40001
1.40001
1.40001
1.40001
1.40001
1.40001
1.40001
1.40001
1.40001
1.40001
1.40001
1.40001
1.40001
1.40001
1.40001
1.40001
1.40001
1.40001
1.40001
1.40001
1.40001
1.40001
1.40001
1.40001
1.40001
1.40001
1.40001
1.40001
1.40001
1.40001
1.40001
1.40001
1.40001
1.40001
1.40001
1.40001
1.40001
1.40001
1.40001
1.40001
1.40001
1.40001
1.40001
1.40376
4.05031
5.59424
5.68493
5.72198
5.73728
5.7377
5.72844
5.71027
5.68357
5.65063
5.63194
5.63376
5.64504
5.66809
5.70862
5.75567
5.78502
5.80056
5.80989
5.81238
5.80875
5.79809
5.77594
5.74524
5.72326
5.716
5.72705
5.74858
5.77927
5.81362
5.84338
5.86925
5.88974
5.90226
5.90261
5.89361
5.86062
1.40001
1.40001
1.40001
1.40001
1.40001
1.40001
1.40001
1.40001
1.40001
1.40001
1.40001
1.40001
1.40001
1.40001
1.40001
1.40001
1.40001
1.40001
1.40001
1.40001
1.40001
1.40001
1.40001
1.40001
1.40001
1.40001
1.40001
1.40001
1.40001
1.40001
1.40001
1.40001
1.40001
1.40001
1.40001
1.40001
1.40001
1.40001
1.40001
1.40001
1.40001
1.40001
1.40001
1.40001
1.40001
1.40001
1.40001
1.40001
1.40001
1.40001
1.40001
1.40001
1.40001
1.40001
1.40001
1.40001
1.40001
1.40001
1.40392
4.05187
5.59466
5.6848
5.72151
5.73624
5.73563
5.72568
5.70679
5.67896
5.64589
5.62847
5.63103
5.64211
5.66534
5.70652
5.75406
5.783
5.79853
5.8074
5.80899
5.80418
5.79184
5.76806
5.73691
5.7166
5.71146
5.72411
5.74572
5.77499
5.80752
5.83408
5.85568
5.87159
5.88099
5.88238
5.87363
5.84255
1.40001
1.40001
1.40001
1.40001
1.40001
1.40001
1.40001
1.40001
1.40001
1.40001
1.40001
1.40001
1.40001
1.40001
1.40001
1.40001
1.40001
1.40001
1.40001
1.40001
1.40001
1.40001
1.40001
1.40001
1.40001
1.40001
1.40001
1.40001
1.40001
1.40001
1.40001
1.40001
1.40001
1.40001
1.40001
1.40001
1.40001
1.40001
1.40001
1.40001
1.40001
1.40001
1.40001
1.40001
1.40001
1.40001
1.40001
1.40001
1.40001
1.40001
1.40001
1.40001
1.40001
1.40001
1.40001
1.40001
1.40001
1.40001
1.40407
4.05324
5.59486
5.68427
5.72054
5.73473
5.73305
5.72227
5.70244
5.67339
5.64046
5.62454
5.62791
5.63892
5.66247
5.70437
5.75218
5.78038
5.79583
5.80431
5.80511
5.79902
5.78462
5.7585
5.72636
5.70778
5.70582
5.7204
5.74284
5.77152
5.80235
5.82584
5.84265
5.85366
5.85952
5.86027
5.84981
5.81855
1.40001
1.40001
1.40001
1.40001
1.40001
1.40001
1.40001
1.40001
1.40001
1.40001
1.40001
1.40001
1.40001
1.40001
1.40001
1.40001
1.40001
1.40001
1.40001
1.40001
1.40001
1.40001
1.40001
1.40001
1.40001
1.40001
1.40001
1.40001
1.40001
1.40001
1.40001
1.40001
1.40001
1.40001
1.40001
1.40001
1.40001
1.40001
1.40001
1.40001
1.40001
1.40001
1.40001
1.40001
1.40001
1.40001
1.40001
1.40001
1.40001
1.40001
1.40001
1.40001
1.40001
1.40001
1.40001
1.40001
1.40001
1.40001
1.40417
4.0541
5.59471
5.68315
5.71881
5.73267
5.73
5.71826
5.69727
5.66698
5.63445
5.62022
5.62449
5.63565
5.65969
5.70227
5.74996
5.77708
5.79234
5.80054
5.80077
5.79344
5.77677
5.74763
5.71401
5.69708
5.69876
5.71546
5.73945
5.76878
5.79873
5.81956
5.83166
5.83786
5.8402
5.83861
5.82504
5.79172
1.40001
1.40001
1.40001
1.40001
1.40001
1.40001
1.40001
1.40001
1.40001
1.40001
1.40001
1.40001
1.40001
1.40001
1.40001
1.40001
1.40001
1.40001
1.40001
1.40001
1.40001
1.40001
1.40001
1.40001
1.40001
1.40001
1.40001
1.40001
1.40001
1.40001
1.40001
1.40001
1.40001
1.40001
1.40001
1.40001
1.40001
1.40001
1.40001
1.40001
1.40001
1.40001
1.40001
1.40001
1.40001
1.40001
1.40001
1.40001
1.40001
1.40001
1.40001
1.40001
1.40001
1.40001
1.40001
1.40001
1.40001
1.40001
1.40418
4.05406
5.59403
5.68135
5.71627
5.72998
5.72651
5.71371
5.69137
5.65982
5.628
5.61564
5.62084
5.63246
5.65719
5.70029
5.74736
5.77307
5.78798
5.79597
5.79595
5.78754
5.76851
5.7359
5.70044
5.68534
5.69026
5.70878
5.73497
5.76627
5.79634
5.81514
5.8234
5.82572
5.82463
5.81944
5.80267
5.76641
1.40001
1.40001
1.40001
1.40001
1.40001
1.40001
1.40001
1.40001
1.40001
1.40001
1.40001
1.40001
1.40001
1.40001
1.40001
1.40001
1.40001
1.40001
1.40001
1.40001
1.40001
1.40001
1.40001
1.40001
1.40001
1.40001
1.40001
1.40001
1.40001
1.40001
1.40001
1.40001
1.40001
1.40001
1.40001
1.40001
1.40001
1.40001
1.40001
1.40001
1.40001
1.40001
1.40001
1.40001
1.40001
1.40001
1.40001
1.40001
1.40001
1.40001
1.40001
1.40001
1.40001
1.40001
1.40001
1.40001
1.40001
1.40001
1.40402
4.0523
5.59264
5.67895
5.71307
5.72673
5.72261
5.70866
5.68485
5.65203
5.62123
5.61083
5.61704
5.62952
5.65509
5.69852
5.7445
5.76842
5.78268
5.79047
5.79052
5.78126
5.75992
5.72373
5.68665
5.67358
5.68065
5.7003
5.72888
5.76322
5.79414
5.81169
5.81779
5.81728
5.81305
5.80418
5.78441
5.74527
1.40001
1.40001
1.40001
1.40001
1.40001
1.40001
1.40001
1.40001
1.40001
1.40001
1.40001
1.40001
1.40001
1.40001
1.40001
1.40001
1.40001
1.40001
1.40001
1.40001
1.40001
1.40001
1.40001
1.40001
1.40001
1.40001
1.40001
1.40001
1.40001
1.40001
1.40001
1.40001
1.40001
1.40001
1.40001
1.40001
1.40001
1.40001
1.40001
1.40001
1.40001
1.40001
1.40001
1.40001
1.40001
1.40001
1.40001
1.40001
1.40001
1.40001
1.40001
1.40001
1.40001
1.40001
1.40001
1.40001
1.40001
1.40001
1.4036
4.04811
5.5906
5.67619
5.70937
5.72301
5.71833
5.70322
5.67789
5.64381
5.61417
5.60589
5.61312
5.62675
5.65334
5.69709
5.74161
5.7633
5.77644
5.78391
5.78424
5.77443
5.75085
5.71134
5.6736
5.66281
5.67074
5.69057
5.72109
5.7587
5.79084
5.80805
5.81334
5.81139
5.80493
5.79293
5.77025
5.72834
1.40001
1.40001
1.40001
1.40001
1.40001
1.40001
1.40001
1.40001
1.40001
1.40001
1.40001
1.40001
1.40001
1.40001
1.40001
1.40001
1.40001
1.40001
1.40001
1.40001
1.40001
1.40001
1.40001
1.40001
1.40001
1.40001
1.40001
1.40001
1.40001
1.40001
1.40001
1.40001
1.40001
1.40001
1.40001
1.40001
1.40001
1.40001
1.40001
1.40001
1.40001
1.40001
1.40001
1.40001
1.40001
1.40001
1.40001
1.40001
1.40001
1.40001
1.40001
1.40001
1.40001
1.40001
1.40001
1.40001
1.40001
1.40001
1.40287
4.04098
5.58798
5.67339
5.70539
5.71896
5.71375
5.69749
5.67068
5.63536
5.60694
5.6008
5.60902
5.62398
5.65188
5.69613
5.73893
5.75804
5.76942
5.77626
5.77684
5.7667
5.74097
5.69884
5.66205
5.6537
5.66147
5.68079
5.71237
5.75239
5.78543
5.80254
5.80791
5.8061
5.79867
5.78454
5.75905
5.71456
1.40001
1.40001
1.40001
1.40001
1.40001
1.40001
1.40001
1.40001
1.40001
1.40001
1.40001
1.40001
1.40001
1.40001
1.40001
1.40001
1.40001
1.40001
1.40001
1.40001
1.40001
1.40001
1.40001
1.40001
1.40001
1.40001
1.40001
1.40001
1.40001
1.40001
1.40001
1.40001
1.40001
1.40001
1.40001
1.40001
1.40001
1.40001
1.40001
1.40001
1.40001
1.40001
1.40001
1.40001
1.40001
1.40001
1.40001
1.40001
1.40001
1.40001
1.40001
1.40001
1.40001
1.40001
1.40001
1.40001
1.40001
1.40001
1.40179
4.03043
5.58503
5.67076
5.70137
5.71474
5.70895
5.6916
5.66339
5.62691
5.5997
5.59557
5.60462
5.62102
5.65062
5.69566
5.73667
5.753
5.76201
5.76769
5.76813
5.75762
5.72977
5.68612
5.65231
5.64657
5.6538
5.67231
5.70429
5.74525
5.77783
5.79399
5.79961
5.79896
5.79189
5.77682
5.7487
5.70227
1.40001
1.40001
1.40001
1.40001
1.40001
1.40001
1.40001
1.40001
1.40001
1.40001
1.40001
1.40001
1.40001
1.40001
1.40001
1.40001
1.40001
1.40001
1.40001
1.40001
1.40001
1.40001
1.40001
1.40001
1.40001
1.40001
1.40001
1.40001
1.40001
1.40001
1.40001
1.40001
1.40001
1.40001
1.40001
1.40001
1.40001
1.40001
1.40001
1.40001
1.40001
1.40001
1.40001
1.40001
1.40001
1.40001
1.40001
1.40001
1.40001
1.40001
1.40001
1.40001
1.40001
1.40001
1.40001
1.40001
1.40001
1.40001
1.4009
4.01571
5.58197
5.66865
5.69723
5.71033
5.70382
5.68554
5.65614
5.61869
5.59265
5.59015
5.59985
5.61774
5.64937
5.69553
5.73486
5.74853
5.75483
5.75872
5.75824
5.74674
5.71671
5.67306
5.64413
5.64098
5.64812
5.66637
5.69843
5.739
5.7693
5.78308
5.78814
5.78834
5.78194
5.76665
5.73627
5.68948
1.40001
1.40001
1.40001
1.40001
1.40001
1.40001
1.40001
1.40001
1.40001
1.40001
1.40001
1.40001
1.40001
1.40001
1.40001
1.40001
1.40001
1.40001
1.40001
1.40001
1.40001
1.40001
1.40001
1.40001
1.40001
1.40001
1.40001
1.40001
1.40001
1.40001
1.40001
1.40001
1.40001
1.40001
1.40001
1.40001
1.40001
1.40001
1.40001
1.40001
1.40001
1.40001
1.40001
1.40001
1.40001
1.40001
1.40001
1.40001
1.40001
1.40001
1.40001
1.40001
1.40001
1.40001
1.40001
1.40001
1.40001
1.40001
1.40001
3.99692
5.57893
5.66741
5.69327
5.7057
5.69826
5.67928
5.64902
5.61091
5.58594
5.58465
5.5947
5.614
5.64796
5.6955
5.73338
5.74481
5.74849
5.75007
5.74766
5.73398
5.70148
5.65952
5.63675
5.63617
5.64422
5.66316
5.69562
5.73506
5.76168
5.77187
5.77531
5.77496
5.76806
5.75192
5.71916
5.67425
1.40001
1.40001
1.40001
1.40001
1.40001
1.40001
1.40001
1.40001
1.40001
1.40001
1.40001
1.40001
1.40001
1.40001
1.40001
1.40001
1.40001
1.40001
1.40001
1.40001
1.40001
1.40001
1.40001
1.40001
1.40001
1.40001
1.40001
1.40001
1.40001
1.40001
1.40001
1.40001
1.40001
1.40001
1.40001
1.40001
1.40001
1.40001
1.40001
1.40001
1.40001
1.40001
1.40001
1.40001
1.40001
1.40001
1.40001
1.40001
1.40001
1.40001
1.40001
1.40001
1.40001
1.40001
1.40001
1.40001
1.40001
1.40001
1.40001
3.97321
5.57605
5.6674
5.6899
5.70105
5.69229
5.67275
5.64196
5.60359
5.57976
5.57919
5.58929
5.60985
5.64617
5.69517
5.73194
5.74178
5.74337
5.74252
5.73715
5.71996
5.68423
5.64522
5.62925
5.63129
5.64125
5.66183
5.69537
5.73377
5.75614
5.76253
5.76362
5.76113
5.75202
5.73332
5.69745
5.65577
1.40001
1.40001
1.40001
1.40001
1.40001
1.40001
1.40001
1.40001
1.40001
1.40001
1.40001
1.40001
1.40001
1.40001
1.40001
1.40001
1.40001
1.40001
1.40001
1.40001
1.40001
1.40001
1.40001
1.40001
1.40001
1.40001
1.40001
1.40001
1.40001
1.40001
1.40001
1.40001
1.40001
1.40001
1.40001
1.40001
1.40001
1.40001
1.40001
1.40001
1.40001
1.40001
1.40001
1.40001
1.40001
1.40001
1.40001
1.40001
1.40001
1.40001
1.40001
1.40001
1.40001
1.40001
1.40001
1.40001
1.40001
1.40001
1.40001
3.94544
5.57363
5.66861
5.68719
5.69649
5.68595
5.6659
5.63483
5.59653
5.57435
5.57401
5.58379
5.6054
5.6439
5.69424
5.73017
5.73924
5.73936
5.73627
5.72752
5.70586
5.66607
5.63041
5.6207
5.62543
5.63801
5.66134
5.69683
5.73454
5.7528
5.75618
5.75488
5.74929
5.73682
5.71359
5.67358
5.63513
1.40001
1.40001
1.40001
1.40001
1.40001
1.40001
1.40001
1.40001
1.40001
1.40001
1.40001
1.40001
1.40001
1.40001
1.40001
1.40001
1.40001
1.40001
1.40001
1.40001
1.40001
1.40001
1.40001
1.40001
1.40001
1.40001
1.40001
1.40001
1.40001
1.40001
1.40001
1.40001
1.40001
1.40001
1.40001
1.40001
1.40001
1.40001
1.40001
1.40001
1.40001
1.40001
1.40001
1.40001
1.40001
1.40001
1.40001
1.40001
1.40001
1.40001
1.40001
1.40001
1.40001
1.40001
1.40001
1.40001
1.40001
1.40001
1.40001
3.91362
5.57186
5.67051
5.68494
5.69202
5.67967
5.65887
5.62735
5.58951
5.5698
5.56943
5.57873
5.60102
5.64121
5.6926
5.72765
5.73654
5.73605
5.73116
5.71911
5.69256
5.64859
5.61616
5.61107
5.61799
5.63341
5.66026
5.69867
5.73602
5.75122
5.75265
5.74935
5.74082
5.72464
5.69575
5.65131
5.61617
1.40001
1.40001
1.40001
1.40001
1.40001
1.40001
1.40001
1.40001
1.40001
1.40001
1.40001
1.40001
1.40001
1.40001
1.40001
1.40001
1.40001
1.40001
1.40001
1.40001
1.40001
1.40001
1.40001
1.40001
1.40001
1.40001
1.40001
1.40001
1.40001
1.40001
1.40001
1.40001
1.40001
1.40001
1.40001
1.40001
1.40001
1.40001
1.40001
1.40001
1.40001
1.40001
1.40001
1.40001
1.40001
1.40001
1.40001
1.40001
1.40001
1.40001
1.40001
1.40001
1.40001
1.40001
1.40001
1.40001
1.40001
1.40001
1.40001
3.87772
5.57052
5.67271
5.68356
5.68782
5.67356
5.65157
5.61924
5.58234
5.56591
5.56562
5.57455
5.59716
5.63852
5.69036
5.72405
5.733
5.73269
5.72665
5.7117
5.68033
5.63303
5.60378
5.60141
5.60926
5.62685
5.65735
5.69938
5.7364
5.74992
5.75073
5.74616
5.73531
5.71551
5.68069
5.63295
5.60245
1.40001
1.40001
1.40001
1.40001
1.40001
1.40001
1.40001
1.40001
1.40001
1.40001
1.40001
1.40001
1.40001
1.40001
1.40001
1.40001
1.40001
1.40001
1.40001
1.40001
1.40001
1.40001
1.40001
1.40001
1.40001
1.40001
1.40001
1.40001
1.40001
1.40001
1.40001
1.40001
1.40001
1.40001
1.40001
1.40001
1.40001
1.40001
1.40001
1.40001
1.40001
1.40001
1.40001
1.40001
1.40001
1.40001
1.40001
1.40001
1.40001
1.40001
1.40001
1.40001
1.40001
1.40001
1.40001
1.40001
1.40001
1.40001
1.40001
3.83772
5.56935
5.67514
5.68347
5.68407
5.66763
5.64395
5.61033
5.57495
5.56233
5.56253
5.57139
5.59446
5.63652
5.68773
5.71916
5.72807
5.72845
5.722
5.70464
5.66904
5.61999
5.59423
5.59312
5.60066
5.61901
5.65248
5.6978
5.73401
5.74688
5.74815
5.74328
5.73104
5.70773
5.66717
5.61848
5.59403
1.40001
1.40001
1.40001
1.40001
1.40001
1.40001
1.40001
1.40001
1.40001
1.40001
1.40001
1.40001
1.40001
1.40001
1.40001
1.40001
1.40001
1.40001
1.40001
1.40001
1.40001
1.40001
1.40001
1.40001
1.40001
1.40001
1.40001
1.40001
1.40001
1.40001
1.40001
1.40001
1.40001
1.40001
1.40001
1.40001
1.40001
1.40001
1.40001
1.40001
1.40001
1.40001
1.40001
1.40001
1.40001
1.40001
1.40001
1.40001
1.40001
1.40001
1.40001
1.40001
1.40001
1.40001
1.40001
1.40001
1.40001
1.40001
1.40001
3.79384
5.5681
5.67772
5.684
5.68131
5.66215
5.63603
5.6006
5.5674
5.5587
5.55996
5.56931
5.59316
5.63581
5.68523
5.71317
5.72143
5.72243
5.71609
5.6968
5.6581
5.60964
5.5879
5.58709
5.59384
5.61194
5.64693
5.69387
5.72832
5.74073
5.74289
5.73838
5.72533
5.69861
5.6534
5.60717
5.58903
1.40001
1.40001
1.40001
1.40001
1.40001
1.40001
1.40001
1.40001
1.40001
1.40001
1.40001
1.40001
1.40001
1.40001
1.40001
1.40001
1.40001
1.40001
1.40001
1.40001
1.40001
1.40001
1.40001
1.40001
1.40001
1.40001
1.40001
1.40001
1.40001
1.40001
1.40001
1.40001
1.40001
1.40001
1.40001
1.40001
1.40001
1.40001
1.40001
1.40001
1.40001
1.40001
1.40001
1.40001
1.40001
1.40001
1.40001
1.40001
1.40001
1.40001
1.40001
1.40001
1.40001
1.40001
1.40001
1.40001
1.40001
1.40001
1.40001
3.74641
5.56633
5.68052
5.68484
5.67963
5.65731
5.62785
5.59026
5.55994
5.555
5.55771
5.56821
5.59342
5.63697
5.68344
5.70665
5.71338
5.71421
5.70746
5.68681
5.64657
5.60138
5.58431
5.58357
5.58975
5.60779
5.64303
5.68927
5.72072
5.73173
5.73424
5.73012
5.71636
5.6863
5.63825
5.59804
5.58507
1.40001
1.40001
1.40001
1.40001
1.40001
1.40001
1.40001
1.40001
1.40001
1.40001
1.40001
1.40001
1.40001
1.40001
1.40001
1.40001
1.40001
1.40001
1.40001
1.40001
1.40001
1.40001
1.40001
1.40001
1.40001
1.40001
1.40001
1.40001
1.40001
1.40001
1.40001
1.40001
1.40001
1.40001
1.40001
1.40001
1.40001
1.40001
1.40001
1.40001
1.40001
1.40001
1.40001
1.40001
1.40001
1.40001
1.40001
1.40001
1.40001
1.40001
1.40001
1.40001
1.40001
1.40001
1.40001
1.40001
1.40001
1.40001
1.40001
3.69595
5.5639
5.6831
5.68593
5.67879
5.65303
5.61954
5.57966
5.55279
5.5511
5.5554
5.56762
5.59539
5.6403
5.68258
5.70037
5.70483
5.7045
5.69671
5.67451
5.63352
5.59396
5.58198
5.5819
5.58825
5.60663
5.642
5.68628
5.71332
5.72157
5.72316
5.71849
5.70339
5.66996
5.62089
5.58898
5.58018
1.40001
1.40001
1.40001
1.40001
1.40001
1.40001
1.40001
1.40001
1.40001
1.40001
1.40001
1.40001
1.40001
1.40001
1.40001
1.40001
1.40001
1.40001
1.40001
1.40001
1.40001
1.40001
1.40001
1.40001
1.40001
1.40001
1.40001
1.40001
1.40001
1.40001
1.40001
1.40001
1.40001
1.40001
1.40001
1.40001
1.40001
1.40001
1.40001
1.40001
1.40001
1.40001
1.40001
1.40001
1.40001
1.40001
1.40001
1.40001
1.40001
1.40001
1.40001
1.40001
1.40001
1.40001
1.40001
1.40001
1.40001
1.40001
1.40001
3.64337
5.56059
5.68516
5.68682
5.67817
5.64911
5.61131
5.56939
5.54639
5.54698
5.55262
5.5671
5.59851
5.64499
5.68233
5.6949
5.69684
5.6944
5.68461
5.66037
5.61908
5.58658
5.57933
5.58069
5.58826
5.60772
5.64383
5.68585
5.70777
5.71258
5.71181
5.70479
5.68681
5.6495
5.60113
5.57801
5.57269
1.40001
1.40001
1.40001
1.40001
1.40001
1.40001
1.40001
1.40001
1.40001
1.40001
1.40001
1.40001
1.40001
1.40001
1.40001
1.40001
1.40001
1.40001
1.40001
1.40001
1.40001
1.40001
1.40001
1.40001
1.40001
1.40001
1.40001
1.40001
1.40001
1.40001
1.40001
1.40001
1.40001
1.40001
1.40001
1.40001
1.40001
1.40001
1.40001
1.40001
1.40001
1.40001
1.40001
1.40001
1.40001
1.40001
1.40001
1.40001
1.40001
1.40001
1.40001
1.40001
1.40001
1.40001
1.40001
1.40001
1.40001
1.40001
1.40001
3.58958
5.55632
5.68663
5.68703
5.67708
5.64507
5.60332
5.5602
5.54134
5.54303
5.54945
5.56665
5.60233
5.64996
5.68194
5.69052
5.6903
5.68515
5.67225
5.64495
5.60363
5.57845
5.57513
5.57847
5.58841
5.61014
5.64759
5.68738
5.70441
5.70607
5.70222
5.69151
5.66889
5.6271
5.58106
5.56485
5.56208
1.40001
1.40001
1.40001
1.40001
1.40001
1.40001
1.40001
1.40001
1.40001
1.40001
1.40001
1.40001
1.40001
1.40001
1.40001
1.40001
1.40001
1.40001
1.40001
1.40001
1.40001
1.40001
1.40001
1.40001
1.40001
1.40001
1.40001
1.40001
1.40001
1.40001
1.40001
1.40001
1.40001
1.40001
1.40001
1.40001
1.40001
1.40001
1.40001
1.40001
1.40001
1.40001
1.40001
1.40001
1.40001
1.40001
1.40001
1.40001
1.40001
1.40001
1.40001
1.40001
1.40001
1.40001
1.40001
1.40001
1.40001
1.40001
1.40001
3.53527
5.55125
5.68731
5.68608
5.67485
5.64032
5.59542
5.55285
5.53821
5.53971
5.54661
5.56673
5.60676
5.65431
5.68092
5.68682
5.6851
5.67747
5.66089
5.62961
5.58832
5.5694
5.56883
5.5743
5.58714
5.61193
5.65161
5.68929
5.70242
5.70173
5.69507
5.68065
5.65256
5.60638
5.56412
5.55193
5.55031
1.40001
1.40001
1.40001
1.40001
1.40001
1.40001
1.40001
1.40001
1.40001
1.40001
1.40001
1.40001
1.40001
1.40001
1.40001
1.40001
1.40001
1.40001
1.40001
1.40001
1.40001
1.40001
1.40001
1.40001
1.40001
1.40001
1.40001
1.40001
1.40001
1.40001
1.40001
1.40001
1.40001
1.40001
1.40001
1.40001
1.40001
1.40001
1.40001
1.40001
1.40001
1.40001
1.40001
1.40001
1.40001
1.40001
1.40001
1.40001
1.40001
1.40001
1.40001
1.40001
1.40001
1.40001
1.40001
1.40001
1.40001
1.40001
1.40001
3.48099
5.54572
5.68721
5.68348
5.67085
5.63425
5.58744
5.54759
5.53702
5.53766
5.54487
5.56798
5.61173
5.65723
5.67873
5.68299
5.68039
5.67097
5.65092
5.61555
5.57491
5.56039
5.5611
5.56819
5.58372
5.61222
5.65452
5.69021
5.70022
5.69807
5.68957
5.67198
5.63878
5.58952
5.55243
5.54237
5.54078
1.40001
1.40001
1.40001
1.40001
1.40001
1.40001
1.40001
1.40001
1.40001
1.40001
1.40001
1.40001
1.40001
1.40001
1.40001
1.40001
1.40001
1.40001
1.40001
1.40001
1.40001
1.40001
1.40001
1.40001
1.40001
1.40001
1.40001
1.40001
1.40001
1.40001
1.40001
1.40001
1.40001
1.40001
1.40001
1.40001
1.40001
1.40001
1.40001
1.40001
1.40001
1.40001
1.40001
1.40001
1.40001
1.40001
1.40001
1.40001
1.40001
1.40001
1.40001
1.40001
1.40001
1.40001
1.40001
1.40001
1.40001
1.40001
1.40001
3.42705
5.53995
5.68649
5.67943
5.66497
5.62646
5.5792
5.54432
5.53747
5.53734
5.54505
5.57111
5.61713
5.65827
5.67485
5.67821
5.67534
5.66473
5.64169
5.60287
5.56448
5.55285
5.5534
5.56122
5.57885
5.61108
5.65568
5.68886
5.69651
5.69367
5.68405
5.66378
5.62625
5.57619
5.54556
5.53684
5.53523
1.40001
1.40001
1.40001
1.40001
1.40001
1.40001
1.40001
1.40001
1.40001
1.40001
1.40001
1.40001
1.40001
1.40001
1.40001
1.40001
1.40001
1.40001
1.40001
1.40001
1.40001
1.40001
1.40001
1.40001
1.40001
1.40001
1.40001
1.40001
1.40001
1.40001
1.40001
1.40001
1.40001
1.40001
1.40001
1.40001
1.40001
1.40001
1.40001
1.40001
1.40001
1.40001
1.40001
1.40001
1.40001
1.40001
1.40001
1.40001
1.40001
1.40001
1.40001
1.40001
1.40001
1.40001
1.40001
1.40001
1.40001
1.40001
1.40001
3.37338
5.53414
5.68562
5.67443
5.65739
5.61684
5.57054
5.54254
5.53911
5.53895
5.54791
5.57682
5.62294
5.6576
5.66945
5.67212
5.66926
5.65778
5.63208
5.5909
5.55666
5.54738
5.54728
5.55523
5.57444
5.60957
5.65506
5.68449
5.69045
5.68741
5.677
5.6543
5.61318
5.565
5.54146
5.53395
5.53284
1.40001
1.40001
1.40001
1.40001
1.40001
1.40001
1.40001
1.40001
1.40001
1.40001
1.40001
1.40001
1.40001
1.40001
1.40001
1.40001
1.40001
1.40001
1.40001
1.40001
1.40001
1.40001
1.40001
1.40001
1.40001
1.40001
1.40001
1.40001
1.40001
1.40001
1.40001
1.40001
1.40001
1.40001
1.40001
1.40001
1.40001
1.40001
1.40001
1.40001
1.40001
1.40001
1.40001
1.40001
1.40001
1.40001
1.40001
1.40001
1.40001
1.40001
1.40001
1.40001
1.40001
1.40001
1.40001
1.40001
1.40001
1.40001
1.40001
3.31967
5.52824
5.68508
5.66894
5.64858
5.60566
5.56167
5.54139
5.54092
5.54214
5.55347
5.58534
5.62937
5.65616
5.66347
5.66499
5.66173
5.6492
5.62097
5.57898
5.55052
5.54329
5.54328
5.55164
5.57225
5.60927
5.65351
5.67783
5.68202
5.67862
5.66726
5.64208
5.59829
5.55477
5.53783
5.53187
5.53192
1.40001
1.40001
1.40001
1.40001
1.40001
1.40001
1.40001
1.40001
1.40001
1.40001
1.40001
1.40001
1.40001
1.40001
1.40001
1.40001
1.40001
1.40001
1.40001
1.40001
1.40001
1.40001
1.40001
1.40001
1.40001
1.40001
1.40001
1.40001
1.40001
1.40001
1.40001
1.40001
1.40001
1.40001
1.40001
1.40001
1.40001
1.40001
1.40001
1.40001
1.40001
1.40001
1.40001
1.40001
1.40001
1.40001
1.40001
1.40001
1.40001
1.40001
1.40001
1.40001
1.40001
1.40001
1.40001
1.40001
1.40001
1.40001
1.40001
3.26559
5.52197
5.68506
5.66356
5.63927
5.59352
5.55304
5.54026
5.54187
5.54592
5.56097
5.59603
5.63649
5.65525
5.6583
5.65773
5.65288
5.63859
5.60766
5.56661
5.54493
5.53956
5.54069
5.55041
5.57301
5.61186
5.65282
5.67086
5.67241
5.66761
5.65441
5.62639
5.5811
5.54451
5.53288
5.52886
5.53092
1.40001
1.40001
1.40001
1.40001
1.40001
1.40001
1.40001
1.40001
1.40001
1.40001
1.40001
1.40001
1.40001
1.40001
1.40001
1.40001
1.40001
1.40001
1.40001
1.40001
1.40001
1.40001
1.40001
1.40001
1.40001
1.40001
1.40001
1.40001
1.40001
1.40001
1.40001
1.40001
1.40001
1.40001
1.40001
1.40001
1.40001
1.40001
1.40001
1.40001
1.40001
1.40001
1.40001
1.40001
1.40001
1.40001
1.40001
1.40001
1.40001
1.40001
1.40001
1.40001
1.40001
1.40001
1.40001
1.40001
1.40001
1.40001
1.40001
3.21102
5.51481
5.68558
5.65876
5.63004
5.58132
5.54542
5.53875
5.54183
5.54952
5.5695
5.60768
5.64369
5.65554
5.65486
5.65129
5.64369
5.62628
5.59205
5.55367
5.53852
5.5352
5.53838
5.55066
5.57658
5.61744
5.65373
5.66568
5.66378
5.65605
5.63969
5.60802
5.56243
5.53361
5.52568
5.52379
5.52839
1.40001
1.40001
1.40001
1.40001
1.40001
1.40001
1.40001
1.40001
1.40001
1.40001
1.40001
1.40001
1.40001
1.40001
1.40001
1.40001
1.40001
1.40001
1.40001
1.40001
1.40001
1.40001
1.40001
1.40001
1.40001
1.40001
1.40001
1.40001
1.40001
1.40001
1.40001
1.40001
1.40001
1.40001
1.40001
1.40001
1.40001
1.40001
1.40001
1.40001
1.40001
1.40001
1.40001
1.40001
1.40001
1.40001
1.40001
1.40001
1.40001
1.40001
1.40001
1.40001
1.40001
1.40001
1.40001
1.40001
1.40001
1.40001
1.40001
3.15613
5.50613
5.68651
5.65458
5.62104
5.57002
5.53959
5.53678
5.54106
5.55269
5.57833
5.61919
5.65015
5.65658
5.65314
5.64658
5.63534
5.61306
5.5749
5.54053
5.5305
5.52944
5.53543
5.55139
5.58159
5.62437
5.65563
5.66248
5.65732
5.6461
5.62542
5.58922
5.54448
5.52238
5.51652
5.51661
5.52378
1.40001
1.40001
1.40001
1.40001
1.40001
1.40001
1.40001
1.40001
1.40001
1.40001
1.40001
1.40001
1.40001
1.40001
1.40001
1.40001
1.40001
1.40001
1.40001
1.40001
1.40001
1.40001
1.40001
1.40001
1.40001
1.40001
1.40001
1.40001
1.40001
1.40001
1.40001
1.40001
1.40001
1.40001
1.40001
1.40001
1.40001
1.40001
1.40001
1.40001
1.40001
1.40001
1.40001
1.40001
1.40001
1.40001
1.40001
1.40001
1.40001
1.40001
1.40001
1.40001
1.40001
1.40001
1.40001
1.40001
1.40001
1.40001
1.40001
3.10146
5.49561
5.68733
5.65045
5.61203
5.56034
5.53603
5.53481
5.54019
5.55573
5.58702
5.62959
5.65516
5.65771
5.65259
5.64366
5.62825
5.59979
5.55777
5.52816
5.52125
5.52224
5.53154
5.55179
5.58673
5.63076
5.65717
5.66007
5.65256
5.63824
5.61311
5.57245
5.52974
5.51232
5.50717
5.50859
5.51805
1.40001
1.40001
1.40001
1.40001
1.40001
1.40001
1.40001
1.40001
1.40001
1.40001
1.40001
1.40001
1.40001
1.40001
1.40001
1.40001
1.40001
1.40001
1.40001
1.40001
1.40001
1.40001
1.40001
1.40001
1.40001
1.40001
1.40001
1.40001
1.40001
1.40001
1.40001
1.40001
1.40001
1.40001
1.40001
1.40001
1.40001
1.40001
1.40001
1.40001
1.40001
1.40001
1.40001
1.40001
1.40001
1.40001
1.40001
1.40001
1.40001
1.40001
1.40001
1.40001
1.40001
1.40001
1.40001
1.40001
1.40001
1.40001
1.40001
3.04769
5.48342
5.68719
5.64553
5.6027
5.55263
5.53458
5.53339
5.54022
5.55939
5.59557
5.6381
5.65821
5.6583
5.65246
5.6416
5.62192
5.58706
5.54241
5.51772
5.51224
5.51471
5.52707
5.55174
5.59114
5.63497
5.65704
5.65711
5.64805
5.63131
5.60232
5.55852
5.51938
5.50506
5.49984
5.50197
5.51304
1.40001
1.40001
1.40001
1.40001
1.40001
1.40001
1.40001
1.40001
1.40001
1.40001
1.40001
1.40001
1.40001
1.40001
1.40001
1.40001
1.40001
1.40001
1.40001
1.40001
1.40001
1.40001
1.40001
1.40001
1.40001
1.40001
1.40001
1.40001
1.40001
1.40001
1.40001
1.40001
1.40001
1.40001
1.40001
1.40001
1.40001
1.40001
1.40001
1.40001
1.40001
1.40001
1.40001
1.40001
1.40001
1.40001
1.40001
1.40001
1.40001
1.40001
1.40001
1.40001
1.40001
1.40001
1.40001
1.40001
1.40001
1.40001
1.40001
2.99534
5.47025
5.68529
5.6391
5.59296
5.54687
5.53425
5.53337
5.54199
5.56465
5.60448
5.64465
5.659
5.65785
5.65184
5.63919
5.6154
5.57492
5.52996
5.51017
5.50501
5.50844
5.52319
5.55165
5.59442
5.63641
5.65421
5.6525
5.64246
5.62374
5.59167
5.54665
5.51259
5.50053
5.49539
5.49811
5.51037
1.40001
1.40001
1.40001
1.40001
1.40001
1.40001
1.40001
1.40001
1.40001
1.40001
1.40001
1.40001
1.40001
1.40001
1.40001
1.40001
1.40001
1.40001
1.40001
1.40001
1.40001
1.40001
1.40001
1.40001
1.40001
1.40001
1.40001
1.40001
1.40001
1.40001
1.40001
1.40001
1.40001
1.40001
1.40001
1.40001
1.40001
1.40001
1.40001
1.40001
1.40001
1.40001
1.40001
1.40001
1.40001
1.40001
1.40001
1.40001
1.40001
1.40001
1.40001
1.40001
1.40001
1.40001
1.40001
1.40001
1.40001
1.40001
1.40001
2.94477
5.45668
5.68137
5.63104
5.58299
5.5426
5.53436
5.53469
5.54593
5.57225
5.61433
5.6494
5.65799
5.65611
5.64978
5.63543
5.60776
5.56305
5.52058
5.50553
5.50048
5.50467
5.521
5.55246
5.59692
5.63495
5.64845
5.6456
5.63473
5.61434
5.57994
5.53566
5.50747
5.4972
5.49287
5.4966
5.5105
1.40001
1.40001
1.40001
1.40001
1.40001
1.40001
1.40001
1.40001
1.40001
1.40001
1.40001
1.40001
1.40001
1.40001
1.40001
1.40001
1.40001
1.40001
1.40001
1.40001
1.40001
1.40001
1.40001
1.40001
1.40001
1.40001
1.40001
1.40001
1.40001
1.40001
1.40001
1.40001
1.40001
1.40001
1.40001
1.40001
1.40001
1.40001
1.40001
1.40001
1.40001
1.40001
1.40001
1.40001
1.40001
1.40001
1.40001
1.40001
1.40001
1.40001
1.40001
1.40001
1.40001
1.40001
1.40001
1.40001
1.40001
1.40001
1.40001
2.89601
5.44298
5.67595
5.62186
5.57299
5.5392
5.53431
5.53684
5.55167
5.58214
5.62492
5.65277
5.65632
5.65347
5.64623
5.62995
5.59841
5.55107
5.51371
5.50283
5.49845
5.50336
5.52118
5.55539
5.59954
5.63142
5.64064
5.63647
5.62445
5.60245
5.56637
5.52445
5.50214
5.49342
5.49072
5.49621
5.51292
1.40001
1.40001
1.40001
1.40001
1.40001
1.40001
1.40001
1.40001
1.40001
1.40001
1.40001
1.40001
1.40001
1.40001
1.40001
1.40001
1.40001
1.40001
1.40001
1.40001
1.40001
1.40001
1.40001
1.40001
1.40001
1.40001
1.40001
1.40001
1.40001
1.40001
1.40001
1.40001
1.40001
1.40001