/*--------------------------------*- C++ -*----------------------------------*\
  =========                 |
  \\      /  F ield         | OpenFOAM: The Open Source CFD Toolbox
   \\    /   O peration     | Website:  https://openfoam.org
    \\  /    A nd           | Version:  7
     \\/     M anipulation  |
\*---------------------------------------------------------------------------*/
FoamFile
{
    version     2.0;
    format      ascii;
    class       volScalarField;
    location    "4";
    object      T;
}
// * * * * * * * * * * * * * * * * * * * * * * * * * * * * * * * * * * * * * //

dimensions      [0 0 0 1 0 0 0];

internalField   nonuniform List<scalar> 
73728
(
1
1
1
1
1
1
1
1
1
1
1
1
1
1
1
1
1
1
1
1
1
1
1
1
1
1
1
1
1
1
1
1
1
1
1
1
1
1
1
1
1
1
1
1
1
1
1
1
1
1
1
1
1
1
1
1
1
1
1.00605
2.38217
2.91606
2.9133
2.90775
2.90772
2.90955
2.91042
2.90794
2.90067
2.89192
2.88744
2.88812
2.89165
2.89657
2.90398
2.91283
2.91895
2.92235
2.92494
2.92631
2.92657
2.92575
2.92252
2.91712
2.91279
2.91167
2.91435
2.92057
2.92823
2.93693
2.94589
2.95408
2.96081
2.96498
2.96709
2.96704
2.96063
1
1
1
1
1
1
1
1
1
1
1
1
1
1
1
1
1
1
1
1
1
1
1
1
1
1
1
1
1
1
1
1
1
1
1
1
1
1
1
1
1
1
1
1
1
1
1
1
1
1
1
1
1
1
1
1
1
1
1.00611
2.38241
2.91625
2.91351
2.90798
2.90792
2.90968
2.91047
2.9079
2.90052
2.89173
2.88729
2.88799
2.8915
2.89642
2.90386
2.91274
2.91885
2.92229
2.92486
2.92617
2.92637
2.92549
2.9222
2.91681
2.91257
2.91149
2.91424
2.92034
2.92812
2.93658
2.94521
2.95316
2.95992
2.96389
2.96463
2.96488
2.96001
1
1
1
1
1
1
1
1
1
1
1
1
1
1
1
1
1
1
1
1
1
1
1
1
1
1
1
1
1
1
1
1
1
1
1
1
1
1
1
1
1
1
1
1
1
1
1
1
1
1
1
1
1
1
1
1
1
1
1.00622
2.38283
2.91662
2.91387
2.90833
2.90821
2.90984
2.91054
2.90782
2.90027
2.89143
2.88704
2.8878
2.89124
2.89617
2.90368
2.91263
2.91874
2.92224
2.92476
2.92596
2.92605
2.92506
2.92168
2.9163
2.91217
2.91115
2.91399
2.91984
2.92757
2.93584
2.94395
2.95149
2.95806
2.96197
2.96227
2.96201
2.95632
1
1
1
1
1
1
1
1
1
1
1
1
1
1
1
1
1
1
1
1
1
1
1
1
1
1
1
1
1
1
1
1
1
1
1
1
1
1
1
1
1
1
1
1
1
1
1
1
1
1
1
1
1
1
1
1
1
1
1.00642
2.3835
2.91718
2.91441
2.90885
2.90864
2.91008
2.91065
2.90773
2.89994
2.89101
2.88669
2.88752
2.89086
2.8958
2.90342
2.91246
2.91859
2.92214
2.92458
2.92562
2.92556
2.92437
2.92084
2.91546
2.91153
2.91062
2.91361
2.91919
2.92671
2.93482
2.94231
2.94919
2.95521
2.95905
2.95942
2.95861
2.95285
1
1
1
1
1
1
1
1
1
1
1
1
1
1
1
1
1
1
1
1
1
1
1
1
1
1
1
1
1
1
1
1
1
1
1
1
1
1
1
1
1
1
1
1
1
1
1
1
1
1
1
1
1
1
1
1
1
1
1.00668
2.38435
2.91787
2.91508
2.90949
2.90919
2.91039
2.91079
2.90758
2.89946
2.89044
2.88627
2.88718
2.89039
2.89533
2.90308
2.91227
2.91839
2.92199
2.92433
2.92519
2.92492
2.92344
2.91966
2.91424
2.91057
2.90987
2.9131
2.91851
2.92572
2.93357
2.9404
2.94648
2.95165
2.95513
2.95595
2.95515
2.94963
1
1
1
1
1
1
1
1
1
1
1
1
1
1
1
1
1
1
1
1
1
1
1
1
1
1
1
1
1
1
1
1
1
1
1
1
1
1
1
1
1
1
1
1
1
1
1
1
1
1
1
1
1
1
1
1
1
1
1.00696
2.38526
2.91865
2.91585
2.91024
2.90984
2.91077
2.91093
2.90731
2.89882
2.88977
2.88581
2.8868
2.88988
2.89482
2.90271
2.91205
2.91812
2.92175
2.924
2.92466
2.92414
2.92227
2.91813
2.91259
2.90922
2.90891
2.91248
2.91785
2.92476
2.93226
2.93841
2.94359
2.94777
2.95065
2.95177
2.95094
2.9457
1
1
1
1
1
1
1
1
1
1
1
1
1
1
1
1
1
1
1
1
1
1
1
1
1
1
1
1
1
1
1
1
1
1
1
1
1
1
1
1
1
1
1
1
1
1
1
1
1
1
1
1
1
1
1
1
1
1
1.00722
2.38614
2.91946
2.91668
2.9111
2.91054
2.91117
2.91102
2.9069
2.89805
2.88903
2.88533
2.88639
2.88935
2.89429
2.90234
2.91178
2.91775
2.92139
2.92358
2.92404
2.92327
2.92092
2.91626
2.9105
2.90743
2.90773
2.91171
2.91716
2.92394
2.93111
2.93663
2.94079
2.94393
2.94607
2.94712
2.94598
2.94063
1
1
1
1
1
1
1
1
1
1
1
1
1
1
1
1
1
1
1
1
1
1
1
1
1
1
1
1
1
1
1
1
1
1
1
1
1
1
1
1
1
1
1
1
1
1
1
1
1
1
1
1
1
1
1
1
1
1
1.00739
2.38686
2.92026
2.91758
2.91207
2.91128
2.91155
2.91101
2.90638
2.89718
2.88825
2.88484
2.88599
2.88885
2.89381
2.902
2.91145
2.91725
2.92089
2.92302
2.92335
2.92232
2.91946
2.91415
2.90804
2.90528
2.90631
2.91066
2.91637
2.92324
2.93025
2.93524
2.9384
2.9405
2.9419
2.94252
2.94082
2.93492
1
1
1
1
1
1
1
1
1
1
1
1
1
1
1
1
1
1
1
1
1
1
1
1
1
1
1
1
1
1
1
1
1
1
1
1
1
1
1
1
1
1
1
1
1
1
1
1
1
1
1
1
1
1
1
1
1
1
1.00741
2.38722
2.92095
2.91845
2.91311
2.91204
2.91189
2.91091
2.90578
2.89624
2.88747
2.8844
2.88563
2.88843
2.89343
2.90171
2.91108
2.91662
2.92021
2.92232
2.92259
2.92132
2.91793
2.91188
2.90534
2.90291
2.9046
2.90926
2.91535
2.92258
2.92962
2.93422
2.93656
2.93778
2.93847
2.93847
2.93604
2.92947
1
1
1
1
1
1
1
1
1
1
1
1
1
1
1
1
1
1
1
1
1
1
1
1
1
1
1
1
1
1
1
1
1
1
1
1
1
1
1
1
1
1
1
1
1
1
1
1
1
1
1
1
1
1
1
1
1
1
1.00714
2.38705
2.92148
2.91922
2.91411
2.9128
2.91226
2.91081
2.90516
2.89528
2.88672
2.88401
2.88532
2.88813
2.89319
2.90152
2.91069
2.91588
2.91934
2.92142
2.92171
2.92025
2.91636
2.90954
2.90262
2.90056
2.90268
2.90752
2.91402
2.92179
2.92899
2.9334
2.93526
2.93577
2.93591
2.93519
2.93203
2.92486
1
1
1
1
1
1
1
1
1
1
1
1
1
1
1
1
1
1
1
1
1
1
1
1
1
1
1
1
1
1
1
1
1
1
1
1
1
1
1
1
1
1
1
1
1
1
1
1
1
1
1
1
1
1
1
1
1
1
1.00643
2.38613
2.92182
2.91982
2.915
2.91355
2.91268
2.91077
2.90458
2.89435
2.88603
2.88369
2.88507
2.88794
2.89309
2.90145
2.91034
2.91508
2.9183
2.92032
2.92068
2.91909
2.91471
2.90718
2.90008
2.89843
2.90071
2.90553
2.91237
2.92072
2.92812
2.93249
2.9342
2.93434
2.93407
2.93265
2.92886
2.9211
1
1
1
1
1
1
1
1
1
1
1
1
1
1
1
1
1
1
1
1
1
1
1
1
1
1
1
1
1
1
1
1
1
1
1
1
1
1
1
1
1
1
1
1
1
1
1
1
1
1
1
1
1
1
1
1
1
1
1.00519
2.38421
2.92194
2.92023
2.91572
2.91423
2.91313
2.91082
2.90412
2.89352
2.88542
2.88345
2.88486
2.88784
2.89314
2.90154
2.91008
2.91429
2.91711
2.919
2.91943
2.91775
2.91291
2.90482
2.89785
2.89666
2.89888
2.90354
2.91055
2.91932
2.92682
2.93117
2.93293
2.93307
2.93257
2.93069
2.92629
2.91798
1
1
1
1
1
1
1
1
1
1
1
1
1
1
1
1
1
1
1
1
1
1
1
1
1
1
1
1
1
1
1
1
1
1
1
1
1
1
1
1
1
1
1
1
1
1
1
1
1
1
1
1
1
1
1
1
1
1
1.00336
2.38124
2.92192
2.92046
2.91623
2.91482
2.91359
2.91098
2.90382
2.89284
2.8849
2.88327
2.88469
2.88779
2.89332
2.90183
2.90999
2.91359
2.91588
2.9175
2.91792
2.91616
2.91086
2.90243
2.89603
2.89532
2.8974
2.90183
2.90888
2.91779
2.92513
2.92922
2.93105
2.93148
2.93094
2.92886
2.92389
2.91516
1
1
1
1
1
1
1
1
1
1
1
1
1
1
1
1
1
1
1
1
1
1
1
1
1
1
1
1
1
1
1
1
1
1
1
1
1
1
1
1
1
1
1
1
1
1
1
1
1
1
1
1
1
1
1
1
1
1
1.0017
2.37729
2.92183
2.92056
2.91648
2.91528
2.91403
2.91124
2.90372
2.89235
2.88451
2.88316
2.88454
2.88779
2.89362
2.90228
2.91005
2.91305
2.91473
2.91594
2.91616
2.9142
2.90843
2.89999
2.89454
2.8943
2.89636
2.90066
2.9077
2.91649
2.92329
2.9268
2.92851
2.92918
2.92869
2.92652
2.92107
2.91224
1
1
1
1
1
1
1
1
1
1
1
1
1
1
1
1
1
1
1
1
1
1
1
1
1
1
1
1
1
1
1
1
1
1
1
1
1
1
1
1
1
1
1
1
1
1
1
1
1
1
1
1
1
1
1
1
1
1
1
2.37233
2.92165
2.92055
2.91653
2.91557
2.9144
2.91158
2.90378
2.8921
2.88428
2.88311
2.88442
2.88781
2.894
2.90286
2.91026
2.91275
2.91379
2.91447
2.9143
2.91184
2.90557
2.89746
2.89323
2.89349
2.89569
2.90006
2.90716
2.91569
2.92167
2.92438
2.92569
2.92627
2.92569
2.92326
2.91729
2.90883
1
1
1
1
1
1
1
1
1
1
1
1
1
1
1
1
1
1
1
1
1
1
1
1
1
1
1
1
1
1
1
1
1
1
1
1
1
1
1
1
1
1
1
1
1
1
1
1
1
1
1
1
1
1
1
1
1
1
1
2.36651
2.92145
2.92046
2.91629
2.91566
2.91463
2.91195
2.90397
2.89205
2.88428
2.88317
2.88435
2.88786
2.89445
2.9035
2.91057
2.91266
2.91316
2.91325
2.91246
2.90922
2.90229
2.89477
2.89191
2.8927
2.89522
2.89985
2.90716
2.91547
2.92052
2.92236
2.92313
2.92327
2.92226
2.91918
2.91259
2.90479
1
1
1
1
1
1
1
1
1
1
1
1
1
1
1
1
1
1
1
1
1
1
1
1
1
1
1
1
1
1
1
1
1
1
1
1
1
1
1
1
1
1
1
1
1
1
1
1
1
1
1
1
1
1
1
1
1
1
1
2.35977
2.92136
2.92034
2.91567
2.91546
2.91464
2.91221
2.90418
2.89216
2.8846
2.88338
2.8844
2.88798
2.89493
2.90414
2.91091
2.91273
2.91284
2.91238
2.91078
2.90659
2.89884
2.89197
2.89036
2.89173
2.89472
2.89985
2.90754
2.9157
2.91987
2.92096
2.92117
2.92077
2.91893
2.91487
2.90745
2.9003
1
1
1
1
1
1
1
1
1
1
1
1
1
1
1
1
1
1
1
1
1
1
1
1
1
1
1
1
1
1
1
1
1
1
1
1
1
1
1
1
1
1
1
1
1
1
1
1
1
1
1
1
1
1
1
1
1
1
1
2.35209
2.92147
2.92026
2.91486
2.91487
2.91433
2.91226
2.90425
2.89234
2.88523
2.88384
2.88469
2.88827
2.89548
2.90479
2.9112
2.91284
2.91275
2.91179
2.9094
2.90417
2.89554
2.88928
2.88859
2.89044
2.89396
2.89975
2.90801
2.91608
2.91958
2.92019
2.91999
2.91892
2.91623
2.91098
2.90263
2.89614
1
1
1
1
1
1
1
1
1
1
1
1
1
1
1
1
1
1
1
1
1
1
1
1
1
1
1
1
1
1
1
1
1
1
1
1
1
1
1
1
1
1
1
1
1
1
1
1
1
1
1
1
1
1
1
1
1
1
1
2.34343
2.92183
2.92019
2.91395
2.91395
2.91366
2.91201
2.90407
2.89246
2.88611
2.88463
2.88533
2.88883
2.89618
2.90546
2.9114
2.91289
2.91274
2.91139
2.90829
2.902
2.89264
2.88699
2.88682
2.88888
2.89281
2.89931
2.90825
2.91624
2.91938
2.9198
2.91931
2.91769
2.91419
2.90768
2.89861
2.89304
1
1
1
1
1
1
1
1
1
1
1
1
1
1
1
1
1
1
1
1
1
1
1
1
1
1
1
1
1
1
1
1
1
1
1
1
1
1
1
1
1
1
1
1
1
1
1
1
1
1
1
1
1
1
1
1
1
1
1
2.3337
2.92239
2.92003
2.91294
2.91274
2.9128
2.91142
2.90347
2.89243
2.88711
2.88574
2.88633
2.8898
2.89715
2.9062
2.91147
2.91277
2.91265
2.91104
2.90733
2.9001
2.8903
2.88531
2.88535
2.88734
2.8914
2.8985
2.90807
2.91585
2.91883
2.91934
2.91872
2.91674
2.91247
2.90473
2.8954
2.89104
1
1
1
1
1
1
1
1
1
1
1
1
1
1
1
1
1
1
1
1
1
1
1
1
1
1
1
1
1
1
1
1
1
1
1
1
1
1
1
1
1
1
1
1
1
1
1
1
1
1
1
1
1
1
1
1
1
1
1
2.32289
2.92307
2.91971
2.91176
2.9115
2.91186
2.91048
2.90242
2.89219
2.88809
2.88704
2.88768
2.89129
2.89856
2.90709
2.91149
2.91244
2.91229
2.91051
2.9063
2.89834
2.88855
2.88431
2.88438
2.88615
2.89016
2.89758
2.90745
2.91482
2.91767
2.91836
2.91774
2.91554
2.91052
2.90176
2.89288
2.88977
1
1
1
1
1
1
1
1
1
1
1
1
1
1
1
1
1
1
1
1
1
1
1
1
1
1
1
1
1
1
1
1
1
1
1
1
1
1
1
1
1
1
1
1
1
1
1
1
1
1
1
1
1
1
1
1
1
1
1
2.31096
2.92377
2.91925
2.91049
2.91035
2.91086
2.90926
2.90093
2.89173
2.88894
2.88837
2.88933
2.89325
2.9005
2.90824
2.91157
2.91201
2.91158
2.90952
2.90494
2.89655
2.8873
2.88392
2.88394
2.88553
2.8895
2.89696
2.9067
2.91342
2.91595
2.9167
2.91612
2.91371
2.90795
2.89855
2.89083
2.88873
1
1
1
1
1
1
1
1
1
1
1
1
1
1
1
1
1
1
1
1
1
1
1
1
1
1
1
1
1
1
1
1
1
1
1
1
1
1
1
1
1
1
1
1
1
1
1
1
1
1
1
1
1
1
1
1
1
1
1
2.29791
2.92443
2.91859
2.90924
2.90935
2.90985
2.90779
2.89908
2.89108
2.88951
2.88948
2.89111
2.89563
2.90295
2.90967
2.91183
2.91171
2.91064
2.90825
2.90323
2.89454
2.88628
2.88383
2.88393
2.88545
2.88946
2.89697
2.90631
2.91209
2.91401
2.91454
2.91384
2.91109
2.90459
2.89492
2.88884
2.88753
1
1
1
1
1
1
1
1
1
1
1
1
1
1
1
1
1
1
1
1
1
1
1
1
1
1
1
1
1
1
1
1
1
1
1
1
1
1
1
1
1
1
1
1
1
1
1
1
1
1
1
1
1
1
1
1
1
1
1
2.28395
2.92495
2.91775
2.90803
2.90849
2.90887
2.90616
2.89705
2.89031
2.88969
2.89026
2.89285
2.89822
2.90575
2.91136
2.91243
2.91165
2.90979
2.9069
2.90126
2.89231
2.88537
2.88377
2.88404
2.88572
2.88996
2.89762
2.90646
2.91115
2.91232
2.91234
2.91116
2.90774
2.90041
2.89084
2.8865
2.88584
1
1
1
1
1
1
1
1
1
1
1
1
1
1
1
1
1
1
1
1
1
1
1
1
1
1
1
1
1
1
1
1
1
1
1
1
1
1
1
1
1
1
1
1
1
1
1
1
1
1
1
1
1
1
1
1
1
1
1
2.26928
2.92525
2.91682
2.90683
2.90771
2.90788
2.90439
2.89502
2.88952
2.8895
2.89075
2.89441
2.90086
2.90864
2.91316
2.91344
2.91192
2.90937
2.90566
2.89915
2.88997
2.88438
2.88348
2.884
2.88609
2.89076
2.89868
2.90702
2.91067
2.91116
2.91055
2.90856
2.90414
2.89586
2.88671
2.88373
2.88352
1
1
1
1
1
1
1
1
1
1
1
1
1
1
1
1
1
1
1
1
1
1
1
1
1
1
1
1
1
1
1
1
1
1
1
1
1
1
1
1
1
1
1
1
1
1
1
1
1
1
1
1
1
1
1
1
1
1
1
2.25408
2.92537
2.91581
2.90559
2.90691
2.90683
2.90248
2.89314
2.88883
2.88909
2.89102
2.89582
2.90348
2.91139
2.91492
2.91473
2.91262
2.90945
2.90479
2.89719
2.88775
2.8833
2.88288
2.88367
2.88622
2.89147
2.8998
2.90768
2.91049
2.91046
2.90928
2.90648
2.90091
2.89167
2.88326
2.88105
2.88102
1
1
1
1
1
1
1
1
1
1
1
1
1
1
1
1
1
1
1
1
1
1
1
1
1
1
1
1
1
1
1
1
1
1
1
1
1
1
1
1
1
1
1
1
1
1
1
1
1
1
1
1
1
1
1
1
1
1
1
2.23853
2.92534
2.91474
2.90425
2.906
2.90561
2.90041
2.89147
2.88829
2.88864
2.89124
2.8972
2.90599
2.91378
2.91646
2.916
2.91359
2.90988
2.90433
2.89566
2.88608
2.88234
2.8821
2.88303
2.88601
2.89194
2.90074
2.90813
2.91027
2.90993
2.90833
2.90487
2.89822
2.88831
2.88091
2.8791
2.87904
1
1
1
1
1
1
1
1
1
1
1
1
1
1
1
1
1
1
1
1
1
1
1
1
1
1
1
1
1
1
1
1
1
1
1
1
1
1
1
1
1
1
1
1
1
1
1
1
1
1
1
1
1
1
1
1
1
1
1
2.22276
2.92517
2.91362
2.90283
2.90495
2.90418
2.8982
2.89005
2.88788
2.88833
2.89162
2.89871
2.90834
2.91562
2.91759
2.91704
2.91455
2.91049
2.90413
2.89455
2.88518
2.88182
2.88144
2.88237
2.88564
2.89221
2.90135
2.90815
2.90977
2.90925
2.9074
2.90338
2.89583
2.88571
2.8796
2.87803
2.87793
1
1
1
1
1
1
1
1
1
1
1
1
1
1
1
1
1
1
1
1
1
1
1
1
1
1
1
1
1
1
1
1
1
1
1
1
1
1
1
1
1
1
1
1
1
1
1
1
1
1
1
1
1
1
1
1
1
1
1
2.20677
2.92482
2.91245
2.90142
2.90378
2.90249
2.89584
2.88884
2.88754
2.88823
2.89237
2.90051
2.91049
2.91687
2.91826
2.91769
2.91529
2.911
2.90394
2.89371
2.88498
2.88189
2.88118
2.88201
2.88541
2.89247
2.90168
2.90761
2.90881
2.90822
2.90618
2.90166
2.89335
2.88357
2.8789
2.87754
2.87752
1
1
1
1
1
1
1
1
1
1
1
1
1
1
1
1
1
1
1
1
1
1
1
1
1
1
1
1
1
1
1
1
1
1
1
1
1
1
1
1
1
1
1
1
1
1
1
1
1
1
1
1
1
1
1
1
1
1
1
2.19041
2.92416
2.91124
2.90011
2.90254
2.90057
2.89343
2.88778
2.8872
2.88836
2.89355
2.90269
2.91247
2.91766
2.91853
2.91794
2.91566
2.91122
2.90353
2.89299
2.88532
2.88247
2.88154
2.88224
2.88575
2.8931
2.90194
2.90666
2.90742
2.9067
2.90444
2.8994
2.89052
2.88167
2.87833
2.87727
2.87748
1
1
1
1
1
1
1
1
1
1
1
1
1
1
1
1
1
1
1
1
1
1
1
1
1
1
1
1
1
1
1
1
1
1
1
1
1
1
1
1
1
1
1
1
1
1
1
1
1
1
1
1
1
1
1
1
1
1
1
2.17349
2.923
2.90997
2.89906
2.90134
2.89847
2.89112
2.88684
2.88675
2.88866
2.89507
2.90513
2.91432
2.91819
2.91861
2.91791
2.91568
2.91104
2.90271
2.89226
2.88592
2.88334
2.88242
2.88312
2.88689
2.89444
2.90242
2.90575
2.90588
2.90477
2.9021
2.89645
2.88723
2.87978
2.87752
2.87684
2.87747
1
1
1
1
1
1
1
1
1
1
1
1
1
1
1
1
1
1
1
1
1
1
1
1
1
1
1
1
1
1
1
1
1
1
1
1
1
1
1
1
1
1
1
1
1
1
1
1
1
1
1
1
1
1
1
1
1
1
1
2.15581
2.9211
2.90869
2.89837
2.90021
2.89632
2.88912
2.88604
2.88622
2.88906
2.89675
2.90755
2.91595
2.91863
2.91863
2.91778
2.91548
2.91043
2.90143
2.89148
2.88646
2.88423
2.8835
2.88442
2.88872
2.89647
2.90331
2.90533
2.90461
2.90279
2.89943
2.89298
2.88365
2.87778
2.87626
2.87601
2.87718
1
1
1
1
1
1
1
1
1
1
1
1
1
1
1
1
1
1
1
1
1
1
1
1
1
1
1
1
1
1
1
1
1
1
1
1
1
1
1
1
1
1
1
1
1
1
1
1
1
1
1
1
1
1
1
1
1
1
1
2.13732
2.91831
2.90747
2.89804
2.89911
2.89428
2.88766
2.88537
2.88575
2.8895
2.89842
2.90974
2.91718
2.91893
2.91867
2.91774
2.91521
2.9095
2.8998
2.89066
2.88675
2.88496
2.88452
2.88594
2.89098
2.89891
2.90456
2.90543
2.90385
2.90122
2.8969
2.88945
2.88023
2.87573
2.87462
2.87477
2.87649
1
1
1
1
1
1
1
1
1
1
1
1
1
1
1
1
1
1
1
1
1
1
1
1
1
1
1
1
1
1
1
1
1
1
1
1
1
1
1
1
1
1
1
1
1
1
1
1
1
1
1
1
1
1
1
1
1
1
1
2.11811
2.91459
2.90643
2.89791
2.89795
2.89251
2.88686
2.8849
2.88546
2.89007
2.90001
2.91152
2.91792
2.919
2.91872
2.91781
2.91496
2.90838
2.89808
2.88998
2.88681
2.88548
2.88541
2.88756
2.89343
2.90136
2.90585
2.9058
2.90348
2.90015
2.89484
2.88639
2.87753
2.87396
2.87298
2.8734
2.87558
1
1
1
1
1
1
1
1
1
1
1
1
1
1
1
1
1
1
1
1
1
1
1
1
1
1
1
1
1
1
1
1
1
1
1
1
1
1
1
1
1
1
1
1
1
1
1
1
1
1
1
1
1
1
1
1
1
1
1
2.0984
2.91008
2.90556
2.8976
2.89669
2.89117
2.88666
2.8847
2.88551
2.8909
2.9016
2.91278
2.91811
2.91876
2.91864
2.91781
2.91456
2.90708
2.89653
2.88963
2.88691
2.88591
2.88626
2.88926
2.89586
2.90351
2.9069
2.90612
2.90329
2.89936
2.89317
2.88397
2.87578
2.87281
2.87179
2.87235
2.87484
1
1
1
1
1
1
1
1
1
1
1
1
1
1
1
1
1
1
1
1
1
1
1
1
1
1
1
1
1
1
1
1
1
1
1
1
1
1
1
1
1
1
1
1
1
1
1
1
1
1
1
1
1
1
1
1
1
1
1
2.0784
2.90513
2.90492
2.89671
2.89532
2.89029
2.88683
2.8849
2.88602
2.89219
2.90335
2.9136
2.91769
2.91821
2.91827
2.91744
2.91377
2.90553
2.89532
2.88977
2.88731
2.88657
2.88732
2.89108
2.8982
2.90523
2.90757
2.90623
2.903
2.89854
2.8916
2.88205
2.87482
2.87228
2.87124
2.87188
2.87459
1
1
1
1
1
1
1
1
1
1
1
1
1
1
1
1
1
1
1
1
1
1
1
1
1
1
1
1
1
1
1
1
1
1
1
1
1
1
1
1
1
1
1
1
1
1
1
1
1
1
1
1
1
1
1
1
1
1
1
2.05868
2.90009
2.90405
2.89535
2.89389
2.88971
2.88715
2.88546
2.88699
2.89408
2.90543
2.91418
2.91688
2.91736
2.91748
2.9165
2.91237
2.90364
2.89439
2.89033
2.88818
2.88769
2.88882
2.89321
2.9005
2.90652
2.90784
2.90597
2.90238
2.89745
2.8899
2.8804
2.87429
2.87204
2.87113
2.87195
2.87499
1
1
1
1
1
1
1
1
1
1
1
1
1
1
1
1
1
1
1
1
1
1
1
1
1
1
1
1
1
1
1
1
1
1
1
1
1
1
1
1
1
1
1
1
1
1
1
1
1
1
1
1
1
1
1
1
1
1
1
2.03947
2.89502
2.90282
2.89376
2.89243
2.88929
2.88742
2.88615
2.88835
2.89653
2.9078
2.91471
2.91607
2.91633
2.91631
2.91498
2.91029
2.90135
2.89362
2.891
2.88936
2.88922
2.89087
2.89585
2.9029
2.90756
2.9079
2.90534
2.90139
2.89598
2.88791
2.87878
2.87381
2.8718
2.87116
2.8723
2.87591
1
1
1
1
1
1
1
1
1
1
1
1
1
1
1
1
1
1
1
1
1
1
1
1
1
1
1
1
1
1
1
1
1
1
1
1
1
1
1
1
1
1
1
1
1
1
1
1
1
1
1
1
1
1
1
1
1
1
1
2.02059
2.88979
2.90139
2.89213
2.89104
2.88897
2.88753
2.88683
2.89
2.89935
2.91018
2.91525
2.91563
2.91543
2.9149
2.91295
2.90756
2.89874
2.89286
2.89138
2.89049
2.89089
2.8934
2.89903
2.90553
2.90866
2.90803
2.90461
2.90022
2.89419
2.8856
2.87705
2.87308
2.87131
2.87105
2.87265
2.87701
1
1
1
1
1
1
1
1
1
1
1
1
1
1
1
1
1
1
1
1
1
1
1
1
1
1
1
1
1
1
1
1
1
1
1
1
1
1
1
1
1
1
1
1
1
1
1
1
1
1
1
1
1
1
1
1
1
1
1
2.00167
2.88421
2.89991
2.89066
2.88988
2.88869
2.88753
2.88744
2.89185
2.90229
2.91233
2.91582
2.91557
2.91478
2.9135
2.91066
2.9044
2.89596
2.89198
2.89131
2.89122
2.8925
2.89615
2.90251
2.90831
2.91007
2.9084
2.90423
2.89919
2.89231
2.88313
2.87528
2.87201
2.87048
2.87062
2.87285
2.87806
1
1
1
1
1
1
1
1
1
1
1
1
1
1
1
1
1
1
1
1
1
1
1
1
1
1
1
1
1
1
1
1
1
1
1
1
1
1
1
1
1
1
1
1
1
1
1
1
1
1
1
1
1
1
1
1
1
1
1
1.98239
2.87807
2.89847
2.88949
2.8891
2.88852
2.88752
2.88804
2.89382
2.90505
2.91412
2.91641
2.91574
2.91443
2.91234
2.90839
2.90111
2.89325
2.89084
2.89071
2.89138
2.89381
2.89879
2.90592
2.91097
2.9117
2.90906
2.90432
2.89855
2.89065
2.88086
2.87372
2.8708
2.86947
2.87
2.87294
2.87901
1
1
1
1
1
1
1
1
1
1
1
1
1
1
1
1
1
1
1
1
1
1
1
1
1
1
1
1
1
1
1
1
1
1
1
1
1
1
1
1
1
1
1
1
1
1
1
1
1
1
1
1
1
1
1
1
1
1
1
1.96257
2.87128
2.89707
2.88868
2.88881
2.88857
2.88761
2.88878
2.8958
2.90746
2.91546
2.9169
2.91598
2.91427
2.91143
2.9063
2.89802
2.8909
2.88949
2.8896
2.89108
2.8947
2.90113
2.90892
2.91321
2.91323
2.9099
2.90478
2.8983
2.88934
2.87914
2.87274
2.86985
2.86868
2.86953
2.87317
2.87995
1
1
1
1
1
1
1
1
1
1
1
1
1
1
1
1
1
1
1
1
1
1
1
1
1
1
1
1
1
1
1
1
1
1
1
1
1
1
1
1
1
1
1
1
1
1
1
1
1
1
1
1
1
1
1
1
1
1
1
1.94224
2.86382
2.89561
2.88815
2.889
2.8889
2.88799
2.88979
2.89782
2.90946
2.91633
2.91717
2.91615
2.91413
2.91062
2.90438
2.89533
2.88908
2.88818
2.88835
2.89051
2.8953
2.90309
2.91125
2.91477
2.91429
2.91069
2.90539
2.89823
2.88828
2.87808
2.87241
2.86944
2.86845
2.86957
2.87385
2.88112
1
1
1
1
1
1
1
1
1
1
1
1
1
1
1
1
1
1
1
1
1
1
1
1
1
1
1
1
1
1
1
1
1
1
1
1
1
1
1
1
1
1
1
1
1
1
1
1
1
1
1
1
1
1
1
1
1
1
1
1.92171
2.85585
2.89407
2.8878
2.88958
2.88945
2.88874
2.89115
2.89995
2.91112
2.9168
2.91719
2.91613
2.91383
2.90973
2.9025
2.89308
2.88781
2.88709
2.8873
2.89
2.89582
2.90471
2.91277
2.91557
2.91473
2.91116
2.9058
2.898
2.88727
2.87759
2.87259
2.86963
2.86894
2.87035
2.87527
2.88274
1
1
1
1
1
1
1
1
1
1
1
1
1
1
1
1
1
1
1
1
1
1
1
1
1
1
1
1
1
1
1
1
1
1
1
1
1
1
1
1
1
1
1
1
1
1
1
1
1
1
1
1
1
1
1
1
1
1
1
1.90141
2.84762
2.89247
2.88758
2.8903
2.89016
2.88976
2.89286
2.90227
2.91262
2.91706
2.91703
2.91583
2.91325
2.9086
2.90052
2.89119
2.887
2.88627
2.88662
2.88981
2.89655
2.90615
2.91358
2.91566
2.91456
2.91118
2.90576
2.89732
2.88615
2.8775
2.87307
2.87037
2.87005
2.87184
2.87741
2.88488
1
1
1
1
1
1
1
1
1
1
1
1
1
1
1
1
1
1
1
1
1
1
1
1
1
1
1
1
1
1
1
1
1
1
1
1
1
1
1
1
1
1
1
1
1
1
1
1
1
1
1
1
1
1
1
1
1
1
1
1.88183
2.83946
2.89082
2.88746
2.89099
2.89093
2.89093
2.89486
2.90475
2.91405
2.91726
2.91683
2.91532
2.9124
2.90715
2.8984
2.88961
2.88645
2.8857
2.88633
2.89003
2.89764
2.90755
2.91389
2.91519
2.9139
2.91071
2.90515
2.89603
2.88487
2.87759
2.87361
2.87139
2.8714
2.8738
2.88004
2.88732
1
1
1
1
1
1
1
1
1
1
1
1
1
1
1
1
1
1
1
1
1
1
1
1
1
1
1
1
1
1
1
1
1
1
1
1
1
1
1
1
1
1
1
1
1
1
1
1
1
1
1
1
1
1
1
1
1
1
1
1.8632
2.83158
2.88921
2.88742
2.89154
2.89167
2.89215
2.89702
2.90724
2.91544
2.91757
2.91674
2.91481
2.9114
2.90543
2.8962
2.8883
2.88595
2.88527
2.88631
2.89063
2.89906
2.90884
2.91396
2.9144
2.91304
2.90992
2.90402
2.89422
2.88359
2.87764
2.8741
2.87247
2.87284
2.876
2.88285
2.88973
1
1
1
1
1
1
1
1
1
1
1
1
1
1
1
1
1
1
1
1
1
1
1
1
1
1
1
1
1
1
1
1
1
1
1
1
1
1
1
1
1
1
1
1
1
1
1
1
1
1
1
1
1
1
1
1
1
1
1
1.84557
2.82405
2.88779
2.88749
2.89194
2.89227
2.89332
2.89913
2.90956
2.91673
2.91799
2.91683
2.91445
2.91041
2.90361
2.89405
2.88716
2.88538
2.88487
2.88639
2.89142
2.90057
2.90984
2.9138
2.91366
2.91227
2.90907
2.90259
2.89219
2.88253
2.87768
2.87458
2.87352
2.87431
2.8783
2.8856
2.89185
1
1
1
1
1
1
1
1
1
1
1
1
1
1
1
1
1
1
1
1
1
1
1
1
1
1
1
1
1
1
1
1
1
1
1
1
1
1
1
1
1
1
1
1
1
1
1
1
1
1
1
1
1
1
1
1
1
1
1
1.82878
2.81689
2.88663
2.88771
2.89222
2.89273
2.8944
2.90107
2.91155
2.91782
2.91843
2.91706
2.91427
2.90956
2.90186
2.89214
2.88624
2.88473
2.88443
2.88644
2.89221
2.90191
2.91046
2.91336
2.91292
2.9116
2.9082
2.90101
2.89028
2.88187
2.87782
2.87514
2.8746
2.8759
2.88066
2.88817
2.89355
1
1
1
1
1
1
1
1
1
1
1
1
1
1
1
1
1
1
1
1
1
1
1
1
1
1
1
1
1
1
1
1
1
1
1
1
1
1
1
1
1
1
1
1
1
1
1
1
1
1
1
1
1
1
1
1
1
1
1
1.81257
2.80996
2.8858
2.88806
2.89247
2.89315
2.89543
2.90281
2.91314
2.91865
2.91884
2.91735
2.91419
2.90882
2.90028
2.89059
2.8856
2.88409
2.884
2.88646
2.89291
2.90292
2.91063
2.91262
2.9121
2.91086
2.90717
2.89932
2.88865
2.88161
2.87819
2.87596
2.87586
2.87777
2.88316
2.89057
2.89482
1
1
1
1
1
1
1
1
1
1
1
1
1
1
1
1
1
1
1
1
1
1
1
1
1
1
1
1
1
1
1
1
1
1
1
1
1
1
1
1
1
1
1
1
1
1
1
1
1
1
1
1
1
1
1
1
1
1
1
1.79676
2.80314
2.88521
2.8886
2.8928
2.89369
2.89648
2.90437
2.91438
2.91921
2.91915
2.91755
2.91405
2.90806
2.89883
2.88943
2.88523
2.88361
2.8837
2.88656
2.89359
2.90365
2.91047
2.91168
2.91117
2.90984
2.9058
2.89744
2.88721
2.88158
2.87877
2.87706
2.87738
2.87999
2.88595
2.89293
2.89591
1
1
1
1
1
1
1
1
1
1
1
1
1
1
1
1
1
1
1
1
1
1
1
1
1
1
1
1
1
1
1
1
1
1
1
1
1
1
1
1
1
1
1
1
1
1
1
1
1
1
1
1
1
1
1
1
1
1
1
1.78135
2.79636
2.88478
2.88929
2.89332
2.89442
2.89761
2.90583
2.91536
2.91953
2.91928
2.91755
2.9137
2.90714
2.89741
2.88852
2.885
2.88337
2.88364
2.88691
2.89445
2.90429
2.91012
2.91068
2.91009
2.90847
2.90399
2.89526
2.8858
2.8815
2.8793
2.87824
2.87911
2.88255
2.88904
2.89538
2.89715
1
1
1
1
1
1
1
1
1
1
1
1
1
1
1
1
1
1
1
1
1
1
1
1
1
1
1
1
1
1
1
1
1
1
1
1
1
1
1
1
1
1
1
1
1
1
1
1
1
1
1
1
1
1
1
1
1
1
1
1.76649
2.78969
2.88447
2.89001
2.89402
2.89535
2.89888
2.90729
2.91621
2.91969
2.91924
2.9173
2.91306
2.90597
2.89592
2.88773
2.88483
2.8833
2.88387
2.88764
2.89563
2.90502
2.90977
2.90977
2.90888
2.90681
2.90176
2.89273
2.88424
2.88114
2.8795
2.87919
2.88085
2.88529
2.89227
2.89793
2.89871
1
1
1
1
1
1
1
1
1
1
1
1
1
1
1
1
1
1
1
1
1
1
1
1
1
1
1
1
1
1
1
1
1
1
1
1
1
1
1
1
1
1
1
1
1
1
1
1
1
1
1
1
1
1
1
1
1
1
1
1.75252
2.78332
2.88424
2.89068
2.89481
2.89639
2.90023
2.90877
2.91703
2.91981
2.91912
2.91685
2.91219
2.90458
2.89439
2.887
2.88462
2.88334
2.88433
2.88868
2.89712
2.90594
2.90964
2.90908
2.90772
2.90503
2.89929
2.88997
2.8825
2.88039
2.8793
2.8797
2.8824
2.8879
2.89537
2.90041
2.90048
1
1
1
1
1
1
1
1
1
1
1
1
1
1
1
1
1
1
1
1
1
1
1
1
1
1
1
1
1
1
1
1
1
1
1
1
1
1
1
1
1
1
1
1
1
1
1
1
1
1
1
1
1
1
1
1
1
1
1
1.73983
2.77748
2.88409
2.89125
2.89558
2.89742
2.90158
2.91021
2.91784
2.91999
2.91905
2.91637
2.91125
2.90312
2.89289
2.8863
2.88432
2.88339
2.88485
2.88985
2.89872
2.90696
2.90973
2.90867
2.90678
2.9034
2.89686
2.88727
2.8807
2.87927
2.87867
2.87979
2.88355
2.89014
2.89807
2.90259
2.90213
1
1
1
1
1
1
1
1
1
1
1
1
1
1
1
1
1
1
1
1
1
1
1
1
1
1
1
1
1
1
1
1
1
1
1
1
1
1
1
1
1
1
1
1
1
1
1
1
1
1
1
1
1
1
1
1
1
1
1
1.72863
2.77236
2.88404
2.89169
2.89622
2.89832
2.90281
2.91151
2.91862
2.92026
2.91909
2.91604
2.91044
2.90177
2.89156
2.88567
2.88395
2.88337
2.8853
2.89093
2.90018
2.90789
2.90993
2.90848
2.90615
2.9021
2.89475
2.88492
2.87905
2.87798
2.87773
2.87956
2.88425
2.89184
2.90013
2.90422
2.90332
1
1
1
1
1
1
1
1
1
1
1
1
1
1
1
1
1
1
1
1
1
1
1
1
1
1
1
1
1
1
1
1
1
1
1
1
1
1
1
1
1
1
1
1
1
1
1
1
1
1
1
1
1
1
1
1
1
1
1
1.71897
2.76801
2.88411
2.892
2.8967
2.89904
2.90384
2.91256
2.91927
2.92055
2.91923
2.91591
2.90987
2.90069
2.89051
2.8852
2.88355
2.88325
2.88558
2.89176
2.90131
2.90857
2.91008
2.90841
2.90578
2.90118
2.89311
2.88309
2.87778
2.87684
2.87679
2.87914
2.88456
2.89296
2.90144
2.90512
2.90391
1
1
1
1
1
1
1
1
1
1
1
1
1
1
1
1
1
1
1
1
1
1
1
1
1
1
1
1
1
1
1
1
1
1
1
1
1
1
1
1
1
1
1
1
1
1
1
1
1
1
1
1
1
1
1
1
1
1
1
1.7107
2.76433
2.88429
2.89226
2.89705
2.89961
2.90466
2.91334
2.91976
2.92079
2.91942
2.91592
2.90953
2.8999
2.88978
2.88493
2.88324
2.88307
2.88569
2.89229
2.90202
2.90894
2.91014
2.90837
2.90558
2.90056
2.89191
2.88182
2.87693
2.87594
2.87595
2.87861
2.88456
2.89363
2.90213
2.9054
2.90407
1
1
1
1
1
1
1
1
1
1
1
1
1
1
1
1
1
1
1
1
1
1
1
1
1
1
1
1
1
1
1
1
1
1
1
1
1
1
1
1
1
1
1
1
1
1
1
1
1
1
1
1
1
1
1
1
1
1
1
1.70357
2.76118
2.88451
2.89251
2.89741
2.90012
2.90532
2.91389
2.92007
2.92096
2.91956
2.91594
2.90926
2.8993
2.88932
2.88481
2.88305
2.88293
2.88573
2.89262
2.90243
2.90909
2.91006
2.9083
2.90546
2.9001
2.89098
2.88091
2.87635
2.87522
2.87522
2.87803
2.88438
2.89402
2.90246
2.90536
2.90409
1
1
1
1
1
1
1
1
1
1
1
1
1
1
1
1
1
1
1
1
1
1
1
1
1
1
1
1
1
1
1
1
1
1
1
1
1
1
1
1
1
1
1
1
1
1
1
1
1
1
1
1
1
1
1
1
1
1
1
1.69738
2.75841
2.88472
2.89283
2.89783
2.90061
2.9059
2.91431
2.92025
2.92101
2.91958
2.91584
2.90893
2.89872
2.88894
2.88478
2.88299
2.88292
2.88584
2.89295
2.90275
2.9091
2.90989
2.90816
2.90527
2.89965
2.89015
2.88011
2.8758
2.87456
2.87457
2.87746
2.88414
2.89426
2.90269
2.90532
2.9043
1
1
1
1
1
1
1
1
1
1
1
1
1
1
1
1
1
1
1
1
1
1
1
1
1
1
1
1
1
1
1
1
1
1
1
1
1
1
1
1
1
1
1
1
1
1
1
1
1
1
1
1
1
1
1
1
1
1
1
1.69211
2.75596
2.88485
2.89318
2.89834
2.90112
2.90642
2.91467
2.92035
2.92098
2.91944
2.91556
2.90846
2.8981
2.88856
2.88473
2.88299
2.88305
2.88613
2.8934
2.90316
2.90919
2.90973
2.90797
2.90497
2.89908
2.88924
2.87928
2.87512
2.87381
2.87388
2.87693
2.8839
2.89441
2.90295
2.90541
2.90482
1
1
1
1
1
1
1
1
1
1
1
1
1
1
1
1
1
1
1
1
1
1
1
1
1
1
1
1
1
1
1
1
1
1
1
1
1
1
1
1
1
1
1
1
1
1
1
1
1
1
1
1
1
1
1
1
1
1
1
1.68787
2.75392
2.88487
2.89347
2.89884
2.90161
2.90688
2.91497
2.92041
2.92089
2.91919
2.91514
2.90788
2.89746
2.88818
2.88462
2.88304
2.88328
2.88653
2.89395
2.90364
2.9094
2.9097
2.90781
2.90463
2.89845
2.88831
2.87844
2.87438
2.87297
2.87313
2.87636
2.88363
2.89445
2.90318
2.90566
2.90552
1
1
1
1
1
1
1
1
1
1
1
1
1
1
1
1
1
1
1
1
1
1
1
1
1
1
1
1
1
1
1
1
1
1
1
1
1
1
1
1
1
1
1
1
1
1
1
1
1
1
1
1
1
1
1
1
1
1
1
1.68498
2.75251
2.88486
2.89368
2.89923
2.90199
2.90724
2.91521
2.92045
2.92079
2.91893
2.91473
2.90734
2.89688
2.88782
2.88451
2.88308
2.88351
2.88692
2.89446
2.90413
2.90965
2.90977
2.90774
2.90437
2.89793
2.88754
2.87772
2.87373
2.87225
2.87248
2.87584
2.88335
2.89443
2.90334
2.90606
2.90623
1
1
1
1
1
1
1
1
1
1
1
1
1
1
1
1
1
1
1
1
1
1
1
1
1
1
1
1
1
1
1
1
1
1
1
1
1
1
1
1
1
1
1
1
1
1
1
1
1
1
1
1
1
1
1
1
1
1
1
1.68376
2.75185
2.8848
2.89376
2.89943
2.9022
2.90746
2.91538
2.9205
2.92078
2.91879
2.91448
2.90698
2.89648
2.88754
2.88438
2.88305
2.88362
2.88715
2.8948
2.90447
2.90986
2.90987
2.90775
2.90425
2.89764
2.88709
2.87727
2.8733
2.87179
2.87208
2.87553
2.88319
2.89443
2.90343
2.90629
2.9066
1
1
1
1
1
1
1
1
1
1
1
1
1
1
1
1
1
1
1
1
1
1
1
1
1
1
1
1
1
1
1
1
1
1
1
1
1
1
1
1
1
1
1
1
1
1
1
1
1
1
1
1
1
1
1
1
1
1
1
1.68377
2.75185
2.8848
2.89375
2.89943
2.9022
2.90746
2.91539
2.9205
2.92078
2.91879
2.91448
2.90698
2.89648
2.88754
2.88437
2.88305
2.88362
2.88715
2.8948
2.90447
2.90986
2.90987
2.90775
2.90425
2.89764
2.88709
2.87727
2.8733
2.87179
2.87208
2.87553
2.88319
2.89443
2.90344
2.90629
2.9066
1
1
1
1
1
1
1
1
1
1
1
1
1
1
1
1
1
1
1
1
1
1
1
1
1
1
1
1
1
1
1
1
1
1
1
1
1
1
1
1
1
1
1
1
1
1
1
1
1
1
1
1
1
1
1
1
1
1
1
1.68496
2.7525
2.88486
2.89368
2.89924
2.90199
2.90724
2.91522
2.92045
2.9208
2.91893
2.91473
2.90734
2.89688
2.88782
2.88451
2.88308
2.88351
2.88691
2.89446
2.90413
2.90965
2.90977
2.90774
2.90437
2.89793
2.88754
2.87772
2.87373
2.87225
2.87248
2.87584
2.88336
2.89444
2.90334
2.90607
2.90624
1
1
1
1
1
1
1
1
1
1
1
1
1
1
1
1
1
1
1
1
1
1
1
1
1
1
1
1
1
1
1
1
1
1
1
1
1
1
1
1
1
1
1
1
1
1
1
1
1
1
1
1
1
1
1
1
1
1
1
1.68785
2.75391
2.88488
2.89347
2.89884
2.90161
2.90689
2.91498
2.92042
2.9209
2.91919
2.91514
2.90788
2.89745
2.88818
2.88462
2.88303
2.88328
2.88653
2.89395
2.90365
2.90941
2.90971
2.90782
2.90463
2.89845
2.88831
2.87844
2.87439
2.87298
2.87314
2.87637
2.88364
2.89446
2.90319
2.90567
2.90553
1
1
1
1
1
1
1
1
1
1
1
1
1
1
1
1
1
1
1
1
1
1
1
1
1
1
1
1
1
1
1
1
1
1
1
1
1
1
1
1
1
1
1
1
1
1
1
1
1
1
1
1
1
1
1
1
1
1
1
1.69209
2.75595
2.88485
2.89318
2.89834
2.90113
2.90643
2.91467
2.92035
2.92098
2.91945
2.91556
2.90846
2.89809
2.88855
2.88472
2.88299
2.88304
2.88613
2.89341
2.90316
2.9092
2.90973
2.90797
2.90498
2.89909
2.88925
2.87929
2.87513
2.87382
2.87389
2.87694
2.88391
2.89443
2.90296
2.90542
2.90483
1
1
1
1
1
1
1
1
1
1
1
1
1
1
1
1
1
1
1
1
1
1
1
1
1
1
1
1
1
1
1
1
1
1
1
1
1
1
1
1
1
1
1
1
1
1
1
1
1
1
1
1
1
1
1
1
1
1
1
1.69735
2.7584
2.88473
2.89284
2.89784
2.90062
2.9059
2.91432
2.92025
2.92102
2.91958
2.91584
2.90893
2.89872
2.88894
2.88477
2.88299
2.88291
2.88584
2.89295
2.90276
2.90911
2.90989
2.90816
2.90528
2.89966
2.89015
2.88012
2.87581
2.87457
2.87458
2.87748
2.88416
2.89428
2.90271
2.90533
2.90431
1
1
1
1
1
1
1
1
1
1
1
1
1
1
1
1
1
1
1
1
1
1
1
1
1
1
1
1
1
1
1
1
1
1
1
1
1
1
1
1
1
1
1
1
1
1
1
1
1
1
1
1
1
1
1
1
1
1
1
1.70353
2.76117
2.88452
2.89252
2.89742
2.90013
2.90533
2.9139
2.92008
2.92096
2.91956
2.91594
2.90927
2.8993
2.88931
2.8848
2.88304
2.88292
2.88572
2.89262
2.90243
2.90909
2.91006
2.90831
2.90547
2.90012
2.89099
2.88092
2.87636
2.87523
2.87524
2.87805
2.8844
2.89405
2.90247
2.90537
2.9041
1
1
1
1
1
1
1
1
1
1
1
1
1
1
1
1
1
1
1
1
1
1
1
1
1
1
1
1
1
1
1
1
1
1
1
1
1
1
1
1
1
1
1
1
1
1
1
1
1
1
1
1
1
1
1
1
1
1
1
1.71066
2.76432
2.8843
2.89226
2.89706
2.89962
2.90466
2.91335
2.91976
2.9208
2.91942
2.91593
2.90953
2.8999
2.88978
2.88493
2.88323
2.88306
2.88568
2.89229
2.90202
2.90895
2.91014
2.90838
2.9056
2.90057
2.89192
2.88183
2.87695
2.87596
2.87597
2.87863
2.88458
2.89366
2.90215
2.90541
2.90407
1
1
1
1
1
1
1
1
1
1
1
1
1
1
1
1
1
1
1
1
1
1
1
1
1
1
1
1
1
1
1
1
1
1
1
1
1
1
1
1
1
1
1
1
1
1
1
1
1
1
1
1
1
1
1
1
1