/*--------------------------------*- C++ -*----------------------------------*\
  =========                 |
  \\      /  F ield         | OpenFOAM: The Open Source CFD Toolbox
   \\    /   O peration     | Website:  https://openfoam.org
    \\  /    A nd           | Version:  7
     \\/     M anipulation  |
\*---------------------------------------------------------------------------*/
FoamFile
{
    version     2.0;
    format      ascii;
    class       volVectorField;
    location    "4";
    object      U;
}
// * * * * * * * * * * * * * * * * * * * * * * * * * * * * * * * * * * * * * //

dimensions      [0 1 -1 0 0 0 0];

internalField   nonuniform List<vector> 
73728
(
(3 7.13132e-18 0)
(3 -6.85617e-17 0)
(3 9.14573e-18 0)
(3 -4.86763e-17 0)
(3 1.53282e-16 0)
(3 2.29564e-17 0)
(3 -7.80283e-16 0)
(3 -1.28354e-15 0)
(3 -1.29422e-15 0)
(3 -9.72817e-16 0)
(3 -1.28291e-15 0)
(3 -1.16135e-15 0)
(3 -2.42549e-16 0)
(3 2.22797e-16 0)
(3 1.08252e-15 0)
(3 1.20873e-15 0)
(3 6.89248e-16 0)
(3 2.127e-16 0)
(3 -2.48823e-16 0)
(3 3.74783e-16 0)
(3 7.78339e-16 0)
(3 1.41977e-15 0)
(3 8.54585e-16 0)
(3 6.00935e-16 0)
(3 1.72446e-16 0)
(3 -1.10345e-16 0)
(3 -7.10373e-16 0)
(3 -1.39023e-15 0)
(3 -8.73264e-16 0)
(3 -6.50881e-16 0)
(3 -6.4203e-16 0)
(3 -5.20227e-16 0)
(3 -1.51817e-16 0)
(3 -1.28216e-16 0)
(3 -4.32696e-16 0)
(3 -2.41613e-16 0)
(3 5.52365e-16 0)
(3 9.16671e-16 0)
(3 8.96611e-16 0)
(3 4.52574e-16 0)
(3 4.11841e-17 0)
(3 -7.55979e-17 0)
(3 -1.49912e-16 0)
(3 -5.46982e-17 0)
(3 5.95076e-17 0)
(3 6.61485e-17 0)
(3 3.15503e-16 0)
(3 2.53907e-16 0)
(3 -1.76426e-16 0)
(3 9.17521e-17 0)
(3 -5.63705e-16 0)
(3 -9.70625e-16 0)
(3 -9.33494e-16 0)
(3 -4.19168e-16 0)
(3 -1.05537e-15 0)
(3 -9.57989e-16 0)
(3 -5.56396e-16 0)
(3 -3.74605e-16 0)
(2.99437 -1.8291e-07 0)
(1.02796 4.95913e-05 0)
(0.626519 9.53185e-05 0)
(0.619637 0.000323868 0)
(0.621561 0.000492194 0)
(0.62075 0.000482081 0)
(0.617407 0.000607188 0)
(0.610279 0.000823885 0)
(0.599786 0.000963942 0)
(0.585681 0.00102376 0)
(0.569786 0.00108352 0)
(0.558955 0.00117919 0)
(0.554543 0.0012964 0)
(0.553317 0.00140169 0)
(0.554444 0.00155852 0)
(0.559364 0.00175223 0)
(0.56601 0.00197438 0)
(0.568546 0.00219879 0)
(0.567536 0.00237883 0)
(0.565308 0.00258291 0)
(0.560522 0.0028019 0)
(0.552778 0.00298876 0)
(0.541658 0.0031476 0)
(0.526156 0.00332839 0)
(0.507469 0.00355555 0)
(0.490602 0.00382147 0)
(0.479942 0.00409984 0)
(0.473313 0.00442153 0)
(0.470744 0.00477472 0)
(0.468423 0.00533791 0)
(0.464213 0.00596064 0)
(0.457557 0.00694216 0)
(0.448057 0.00822923 0)
(0.435377 0.00952476 0)
(0.417909 0.0125014 0)
(0.392167 0.0143195 0)
(0.358125 0.0278936 0)
(0.29532 0.0364138 0)
(3 8.91098e-17 0)
(3 -1.28088e-18 0)
(3 5.35066e-17 0)
(3 4.7977e-17 0)
(3 -8.92741e-18 0)
(3 -4.41932e-16 0)
(3 -1.85461e-15 0)
(3 -2.45702e-15 0)
(3 -1.85268e-15 0)
(3 -1.08674e-15 0)
(3 -8.47164e-16 0)
(3 -5.84058e-16 0)
(3 1.62972e-16 0)
(3 1.03298e-15 0)
(3 1.24001e-15 0)
(3 9.79816e-16 0)
(3 7.10734e-16 0)
(3 4.00729e-16 0)
(3 3.04887e-16 0)
(3 9.70225e-16 0)
(3 1.43321e-15 0)
(3 1.41526e-15 0)
(3 7.70795e-16 0)
(3 8.36288e-16 0)
(3 8.80945e-16 0)
(3 -8.55204e-17 0)
(3 -1.5002e-15 0)
(3 -2.25547e-15 0)
(3 -6.45583e-16 0)
(3 5.00393e-17 0)
(3 9.18425e-17 0)
(3 -4.56181e-16 0)
(3 -4.32006e-16 0)
(3 -5.6465e-16 0)
(3 -1.55641e-16 0)
(3 9.90171e-16 0)
(3 1.70165e-15 0)
(3 1.97722e-15 0)
(3 2.63676e-16 0)
(3 -5.27635e-16 0)
(3 -3.7616e-16 0)
(3 -2.39312e-16 0)
(3 -3.66924e-16 0)
(3 -4.11587e-16 0)
(3 -7.44744e-16 0)
(3 -9.60803e-16 0)
(3 -7.16698e-16 0)
(3 -5.8735e-16 0)
(3 -9.87633e-16 0)
(3 -1.34523e-15 0)
(3 -2.25988e-15 0)
(3 -2.8813e-15 0)
(3 -2.48977e-15 0)
(3 -1.98739e-15 0)
(3 -1.38529e-15 0)
(3 5.92532e-18 0)
(3 5.99708e-16 0)
(3 3.0332e-16 0)
(2.99431 -1.69699e-06 0)
(1.02771 5.28033e-05 0)
(0.62626 0.000162038 0)
(0.619368 0.000854648 0)
(0.621202 0.00134907 0)
(0.620281 0.00121991 0)
(0.616926 0.00156525 0)
(0.609807 0.00229517 0)
(0.599322 0.00286536 0)
(0.585159 0.00314981 0)
(0.56924 0.00336424 0)
(0.558528 0.00365137 0)
(0.554208 0.00401976 0)
(0.553037 0.00436339 0)
(0.55423 0.00485319 0)
(0.559209 0.00544875 0)
(0.565828 0.0061358 0)
(0.568261 0.00679655 0)
(0.567202 0.00732694 0)
(0.564858 0.00792534 0)
(0.559973 0.00858356 0)
(0.552244 0.00919646 0)
(0.541132 0.00973973 0)
(0.525612 0.0103199 0)
(0.506935 0.0109882 0)
(0.490175 0.0117242 0)
(0.479609 0.0124713 0)
(0.473189 0.0133925 0)
(0.470882 0.0144085 0)
(0.469284 0.0160834 0)
(0.465475 0.0185051 0)
(0.459067 0.0216794 0)
(0.449805 0.0259546 0)
(0.436806 0.0299533 0)
(0.421357 0.0378813 0)
(0.397588 0.044156 0)
(0.374308 0.0645313 0)
(0.334648 0.0755767 0)
(3 7.83415e-17 0)
(3 2.77609e-16 0)
(3 8.46003e-17 0)
(3 1.49382e-16 0)
(3 -2.8693e-16 0)
(3 -9.44832e-16 0)
(3 -1.48999e-15 0)
(3 -1.46291e-15 0)
(3 -7.58057e-16 0)
(3 -6.43423e-16 0)
(3 5.22618e-16 0)
(3 6.7177e-16 0)
(3 2.55884e-16 0)
(3 1.55169e-16 0)
(3 6.07331e-16 0)
(3 5.18979e-16 0)
(3 4.84505e-16 0)
(3 -1.55077e-16 0)
(3 1.48519e-16 0)
(3 1.79964e-15 0)
(3 9.35172e-16 0)
(3 -7.99172e-17 0)
(3 -4.34049e-16 0)
(3 5.46225e-16 0)
(3 1.14851e-15 0)
(3 8.46312e-16 0)
(3 -9.08085e-16 0)
(3 -2.38507e-15 0)
(3 -1.60911e-15 0)
(3 -1.28357e-15 0)
(3 -1.92927e-16 0)
(3 -3.43169e-16 0)
(3 -1.52399e-16 0)
(3 -2.49438e-16 0)
(3 1.39572e-16 0)
(3 1.5642e-15 0)
(3 1.96255e-15 0)
(3 1.89886e-15 0)
(3 8.56174e-16 0)
(3 4.09657e-16 0)
(3 6.09977e-16 0)
(3 1.21543e-15 0)
(3 8.53854e-16 0)
(3 5.3217e-17 0)
(3 1.07357e-17 0)
(3 1.1846e-17 0)
(3 3.72621e-16 0)
(3 1.18396e-16 0)
(3 4.06798e-16 0)
(3 -7.36253e-16 0)
(3 -2.31796e-15 0)
(3 -3.18685e-15 0)
(3 -2.30513e-15 0)
(3 -2.01075e-15 0)
(3 -1.5127e-15 0)
(3 -5.25727e-16 0)
(3 -4.68963e-16 0)
(3 -1.01935e-16 0)
(2.99421 -2.97855e-06 0)
(1.0273 0.000163101 0)
(0.626039 0.000376717 0)
(0.619318 0.00149599 0)
(0.621237 0.00237006 0)
(0.620249 0.00225802 0)
(0.61691 0.00285343 0)
(0.60982 0.0040021 0)
(0.599361 0.00490353 0)
(0.585116 0.00536928 0)
(0.569175 0.00572632 0)
(0.558668 0.00620311 0)
(0.554509 0.00680275 0)
(0.553453 0.0073635 0)
(0.55479 0.00816699 0)
(0.559921 0.00913033 0)
(0.56659 0.0102344 0)
(0.568946 0.0113205 0)
(0.567836 0.0122029 0)
(0.565378 0.0131652 0)
(0.560461 0.0141987 0)
(0.552874 0.0152006 0)
(0.541854 0.0161011 0)
(0.526349 0.0170562 0)
(0.507714 0.0181686 0)
(0.491194 0.0194187 0)
(0.480878 0.0207161 0)
(0.474858 0.0222651 0)
(0.473019 0.0239303 0)
(0.472454 0.0266929 0)
(0.470059 0.0306384 0)
(0.464611 0.0352777 0)
(0.456632 0.0417042 0)
(0.444334 0.0479261 0)
(0.431688 0.0590309 0)
(0.411403 0.0668797 0)
(0.394348 0.0874652 0)
(0.370006 0.10413 0)
(3 -4.37183e-17 0)
(3 -1.18252e-16 0)
(3 -2.35613e-16 0)
(3 -7.07703e-18 0)
(3 -3.4208e-16 0)
(3 -3.89072e-16 0)
(3 -4.5294e-16 0)
(3 -4.67425e-16 0)
(3 -5.1574e-16 0)
(3 -6.7492e-16 0)
(3 -7.38313e-17 0)
(3 5.20657e-16 0)
(3 -1.57628e-16 0)
(3 -1.02316e-15 0)
(3 5.04249e-16 0)
(3 1.38918e-15 0)
(3 1.25551e-15 0)
(3 6.80788e-16 0)
(3 3.59063e-16 0)
(3 8.15189e-16 0)
(3 2.8953e-16 0)
(3 -4.57964e-16 0)
(3 -1.22829e-15 0)
(3 -1.36782e-15 0)
(3 -1.46679e-15 0)
(3 -2.03221e-15 0)
(3 -1.97982e-15 0)
(3 -2.56604e-15 0)
(3 -2.95402e-15 0)
(3 -3.71829e-15 0)
(3 -3.12335e-15 0)
(3 -1.73945e-15 0)
(3 -7.43417e-17 0)
(3 5.42097e-16 0)
(3 1.19126e-15 0)
(3 1.53725e-15 0)
(3 1.7761e-15 0)
(3 1.85147e-15 0)
(3 2.442e-15 0)
(3 2.66507e-15 0)
(3 1.55759e-15 0)
(3 1.50161e-15 0)
(3 1.7929e-15 0)
(3 1.45984e-15 0)
(3 2.01509e-15 0)
(3 2.40424e-15 0)
(3 2.05207e-15 0)
(3 9.57049e-17 0)
(3 -1.11425e-15 0)
(3 -1.64935e-15 0)
(3 -2.64587e-15 0)
(3 -3.33741e-15 0)
(3 -3.43409e-15 0)
(3 -2.00068e-15 0)
(3 -1.76111e-15 0)
(3 -2.29468e-15 0)
(3 -2.57969e-15 0)
(3 -2.06595e-15 0)
(2.99402 -4.68733e-06 0)
(1.02661 0.000189275 0)
(0.625689 0.000515506 0)
(0.619201 0.0019875 0)
(0.621295 0.00330258 0)
(0.620348 0.00329689 0)
(0.617216 0.00412677 0)
(0.610316 0.00565968 0)
(0.599969 0.00691966 0)
(0.58565 0.00760821 0)
(0.5697 0.00810375 0)
(0.559486 0.0087425 0)
(0.555556 0.0095367 0)
(0.554667 0.0102874 0)
(0.556207 0.0113728 0)
(0.561558 0.0126689 0)
(0.568305 0.0141894 0)
(0.570582 0.0157175 0)
(0.569305 0.0169832 0)
(0.566688 0.0182735 0)
(0.561719 0.0196252 0)
(0.554334 0.020991 0)
(0.54346 0.0222561 0)
(0.527975 0.0235791 0)
(0.50939 0.025116 0)
(0.493188 0.0268468 0)
(0.483249 0.0286825 0)
(0.477737 0.0308087 0)
(0.476626 0.0330787 0)
(0.477231 0.036758 0)
(0.476626 0.0417454 0)
(0.472432 0.047453 0)
(0.466133 0.0551973 0)
(0.455246 0.0629346 0)
(0.445036 0.0751796 0)
(0.428315 0.0845965 0)
(0.415001 0.102393 0)
(0.398017 0.11716 0)
(3 -1.02679e-16 0)
(3 -1.78149e-16 0)
(3 7.13003e-18 0)
(3 -1.83798e-16 0)
(3 -5.23515e-16 0)
(3 -4.47537e-16 0)
(3 -2.82228e-16 0)
(3 -3.88455e-16 0)
(3 -7.72469e-16 0)
(3 -7.86227e-16 0)
(3 -9.92843e-16 0)
(3 -4.96673e-16 0)
(3 -4.45614e-16 0)
(3 -9.85773e-16 0)
(3 -2.24539e-16 0)
(3 5.74612e-16 0)
(3 9.53746e-16 0)
(3 6.8314e-16 0)
(3 -1.07912e-16 0)
(3 -9.91006e-16 0)
(3 -9.08294e-16 0)
(3 -8.47696e-16 0)
(3 -7.96574e-16 0)
(3 -2.36725e-15 0)
(3 -2.83616e-15 0)
(3 -2.91511e-15 0)
(3 -2.50524e-15 0)
(3 -2.3193e-15 0)
(3 -2.6293e-15 0)
(3 -2.23886e-15 0)
(3 -1.60057e-15 0)
(3 -1.11792e-15 0)
(3 -1.77085e-16 0)
(3 2.50413e-16 0)
(3 5.20507e-16 0)
(3 9.34129e-16 0)
(3 1.33324e-15 0)
(3 1.45918e-15 0)
(3 1.55282e-15 0)
(3 1.58562e-15 0)
(3 1.208e-15 0)
(3 7.97901e-16 0)
(3 1.51387e-15 0)
(3 2.44751e-15 0)
(3 2.44676e-15 0)
(3 1.77546e-15 0)
(3 -7.28168e-17 0)
(3 -2.81574e-15 0)
(3 -3.36894e-15 0)
(3 -2.96782e-15 0)
(3 -3.85252e-15 0)
(3 -4.4046e-15 0)
(3 -4.6446e-15 0)
(3 -3.47977e-15 0)
(3 -3.4774e-15 0)
(3 -3.47863e-15 0)
(3 -3.16157e-15 0)
(3 -2.13568e-15 0)
(2.99378 -5.50398e-06 0)
(1.02571 0.000261209 0)
(0.62523 0.000663775 0)
(0.618982 0.0024065 0)
(0.62123 0.00419539 0)
(0.620309 0.00435895 0)
(0.617416 0.00544362 0)
(0.610664 0.00736321 0)
(0.600372 0.00896302 0)
(0.585911 0.00985507 0)
(0.569976 0.0105097 0)
(0.560214 0.0113496 0)
(0.556574 0.0123166 0)
(0.555895 0.0132465 0)
(0.557716 0.0146037 0)
(0.563399 0.0162031 0)
(0.570308 0.0181174 0)
(0.572448 0.020075 0)
(0.57097 0.0216727 0)
(0.568186 0.02323 0)
(0.563166 0.0248556 0)
(0.556031 0.0265435 0)
(0.545382 0.0281624 0)
(0.529971 0.0298321 0)
(0.511477 0.0317982 0)
(0.495695 0.0339954 0)
(0.486133 0.0363509 0)
(0.481264 0.0390895 0)
(0.481059 0.0419598 0)
(0.482865 0.0462899 0)
(0.484096 0.0518195 0)
(0.481457 0.0582416 0)
(0.476817 0.0664513 0)
(0.467943 0.0749474 0)
(0.459222 0.0868779 0)
(0.445838 0.0975176 0)
(0.433998 0.112477 0)
(0.419719 0.126994 0)
(3 -7.01202e-17 0)
(3 2.92426e-16 0)
(3 3.81015e-16 0)
(3 1.58266e-16 0)
(3 7.44945e-17 0)
(3 -2.26818e-16 0)
(3 -4.30611e-16 0)
(3 -6.46375e-16 0)
(3 -1.18457e-15 0)
(3 -1.28338e-15 0)
(3 -1.37e-15 0)
(3 -1.511e-15 0)
(3 -1.45444e-15 0)
(3 -1.02614e-15 0)
(3 -8.38773e-16 0)
(3 -1.04287e-15 0)
(3 -6.43858e-16 0)
(3 -5.05295e-16 0)
(3 -4.18599e-16 0)
(3 -1.16085e-15 0)
(3 -7.64433e-16 0)
(3 -3.67903e-16 0)
(3 3.03417e-17 0)
(3 -8.03668e-16 0)
(3 -1.90326e-15 0)
(3 -2.23586e-15 0)
(3 -2.17586e-15 0)
(3 -9.09019e-16 0)
(3 -3.26577e-16 0)
(3 -1.20917e-16 0)
(3 4.8649e-16 0)
(3 3.60613e-16 0)
(3 -1.63227e-16 0)
(3 -8.23242e-16 0)
(3 -1.02967e-15 0)
(3 -6.12916e-16 0)
(3 9.14584e-16 0)
(3 1.52562e-15 0)
(3 1.40405e-15 0)
(3 1.06389e-15 0)
(3 1.3662e-15 0)
(3 1.29742e-15 0)
(3 1.90294e-15 0)
(3 2.07731e-15 0)
(3 1.23498e-15 0)
(3 3.53624e-16 0)
(3 -1.37836e-15 0)
(3 -2.38511e-15 0)
(3 -2.10512e-15 0)
(3 -1.82491e-15 0)
(3 -2.11511e-15 0)
(3 -2.52044e-15 0)
(3 -2.92006e-15 0)
(3 -3.06582e-15 0)
(3 -3.03948e-15 0)
(3 -2.74655e-15 0)
(3 -2.09437e-15 0)
(3 -2.74466e-15 0)
(2.99352 -5.38378e-06 0)
(1.02475 0.000421408 0)
(0.624746 0.000874043 0)
(0.618775 0.00283469 0)
(0.62121 0.00510883 0)
(0.620335 0.00548969 0)
(0.617696 0.00684249 0)
(0.611097 0.00912086 0)
(0.600796 0.011 0)
(0.586161 0.0120539 0)
(0.570299 0.0128815 0)
(0.561053 0.0139444 0)
(0.557695 0.0150775 0)
(0.557243 0.0161724 0)
(0.559419 0.0177785 0)
(0.565537 0.01966 0)
(0.572644 0.021971 0)
(0.574614 0.0243073 0)
(0.572914 0.026191 0)
(0.569923 0.0280035 0)
(0.56483 0.0298935 0)
(0.557934 0.0318523 0)
(0.547577 0.033775 0)
(0.532334 0.0357205 0)
(0.514014 0.038051 0)
(0.498813 0.0407143 0)
(0.48967 0.0436217 0)
(0.48553 0.0469819 0)
(0.48616 0.050439 0)
(0.489056 0.0552095 0)
(0.491952 0.060887 0)
(0.491049 0.0676209 0)
(0.487765 0.0757445 0)
(0.480888 0.0844094 0)
(0.473141 0.0954285 0)
(0.462452 0.106549 0)
(0.451714 0.119554 0)
(0.438285 0.132971 0)
(3 2.02551e-17 0)
(3 4.40282e-16 0)
(3 6.20988e-16 0)
(3 7.93538e-16 0)
(3 5.20008e-16 0)
(3 1.62361e-16 0)
(3 -5.93445e-17 0)
(3 -4.04388e-16 0)
(3 -7.56813e-16 0)
(3 -9.50862e-16 0)
(3 -1.3629e-15 0)
(3 -1.55742e-15 0)
(3 -1.1986e-15 0)
(3 -9.73011e-16 0)
(3 -8.69747e-16 0)
(3 -9.09688e-16 0)
(3 -7.38004e-16 0)
(3 5.00207e-17 0)
(3 2.64392e-16 0)
(3 -5.11016e-17 0)
(3 -5.71346e-16 0)
(3 -3.78891e-16 0)
(3 -1.48115e-16 0)
(3 1.05322e-16 0)
(3 -2.68398e-16 0)
(3 -3.05518e-16 0)
(3 -5.04653e-16 0)
(3 -3.0753e-16 0)
(3 4.56728e-16 0)
(3 1.0528e-15 0)
(3 1.10051e-15 0)
(3 1.08379e-15 0)
(3 6.46693e-16 0)
(3 5.5418e-16 0)
(3 7.54369e-16 0)
(3 4.46553e-16 0)
(3 6.45484e-16 0)
(3 1.28469e-15 0)
(3 1.68866e-15 0)
(3 2.00358e-15 0)
(3 1.86718e-15 0)
(3 1.48006e-15 0)
(3 1.23697e-15 0)
(3 2.88109e-16 0)
(3 -7.6161e-16 0)
(3 -9.80529e-16 0)
(3 -9.95732e-16 0)
(3 -7.17187e-16 0)
(3 -7.9613e-16 0)
(3 -1.53534e-15 0)
(3 -1.65705e-15 0)
(3 -1.00402e-15 0)
(3 -5.99067e-16 0)
(3 -1.9695e-15 0)
(3 -2.37285e-15 0)
(3 -2.20833e-15 0)
(3 -2.27307e-15 0)
(3 -2.93555e-15 0)
(2.99328 -4.48876e-06 0)
(1.02385 0.000677462 0)
(0.624298 0.00117008 0)
(0.618607 0.00333058 0)
(0.621283 0.0060621 0)
(0.62045 0.00670292 0)
(0.618068 0.0083164 0)
(0.611625 0.010913 0)
(0.601249 0.0130133 0)
(0.586417 0.0141967 0)
(0.570681 0.0152311 0)
(0.561966 0.0165468 0)
(0.558862 0.0178483 0)
(0.558669 0.0190973 0)
(0.561304 0.0209203 0)
(0.567977 0.0230548 0)
(0.575314 0.0257218 0)
(0.577062 0.0283962 0)
(0.575109 0.0305552 0)
(0.571867 0.0326314 0)
(0.566686 0.0347761 0)
(0.559976 0.0369531 0)
(0.549911 0.039102 0)
(0.534892 0.0412237 0)
(0.51682 0.0437983 0)
(0.502534 0.0469229 0)
(0.493852 0.050448 0)
(0.490463 0.054409 0)
(0.49172 0.0584595 0)
(0.495544 0.0635694 0)
(0.499752 0.0692807 0)
(0.500466 0.0759826 0)
(0.498327 0.0836837 0)
(0.493059 0.0919714 0)
(0.486433 0.101993 0)
(0.477637 0.112552 0)
(0.46798 0.123984 0)
(0.45485 0.136286 0)
(3 2.52577e-16 0)
(3 2.44464e-16 0)
(3 -2.55452e-16 0)
(3 -1.71027e-16 0)
(3 -2.02978e-16 0)
(3 -2.35706e-16 0)
(3 -3.3167e-16 0)
(3 -2.55672e-16 0)
(3 -2.33203e-16 0)
(3 -4.48567e-16 0)
(3 -4.08457e-16 0)
(3 -6.59018e-16 0)
(3 -7.54803e-16 0)
(3 -9.68474e-16 0)
(3 -9.65356e-16 0)
(3 2.00296e-16 0)
(3 1.4923e-16 0)
(3 2.32257e-16 0)
(3 -6.80576e-16 0)
(3 -7.1267e-16 0)
(3 -1.70661e-15 0)
(3 -9.08836e-16 0)
(3 1.58651e-16 0)
(3 8.81995e-16 0)
(3 1.29473e-15 0)
(3 1.93253e-15 0)
(3 2.1252e-15 0)
(3 1.14151e-15 0)
(3 7.23265e-16 0)
(3 1.12681e-15 0)
(3 1.15433e-15 0)
(3 1.57316e-15 0)
(3 2.40346e-15 0)
(3 2.54003e-15 0)
(3 2.15229e-15 0)
(3 2.33947e-15 0)
(3 2.1917e-15 0)
(3 1.98115e-15 0)
(3 2.09126e-15 0)
(3 2.07667e-15 0)
(3 1.73791e-15 0)
(3 1.10901e-15 0)
(3 8.29622e-16 0)
(3 8.36426e-16 0)
(3 3.75786e-16 0)
(3 -1.14665e-15 0)
(3 -1.00054e-15 0)
(3 -1.32151e-15 0)
(3 -1.80281e-15 0)
(3 -2.31057e-15 0)
(3 -1.58581e-15 0)
(3 -4.55803e-16 0)
(3 -4.86898e-16 0)
(3 -7.37735e-16 0)
(3 -1.15531e-15 0)
(3 -1.99472e-15 0)
(3 -2.91812e-15 0)
(3 -2.62108e-15 0)
(2.99312 -5.63859e-07 0)
(1.02315 0.00106894 0)
(0.623933 0.00156548 0)
(0.618503 0.00393384 0)
(0.621476 0.00710141 0)
(0.620682 0.00800753 0)
(0.618492 0.00984578 0)
(0.612188 0.0127164 0)
(0.601734 0.0149905 0)
(0.586717 0.0162759 0)
(0.571168 0.0175107 0)
(0.563012 0.0190914 0)
(0.560138 0.0205769 0)
(0.560228 0.0219771 0)
(0.563409 0.0239996 0)
(0.570737 0.0263527 0)
(0.57833 0.0293143 0)
(0.579846 0.0322909 0)
(0.577633 0.0347335 0)
(0.574115 0.0370945 0)
(0.568818 0.0394912 0)
(0.562209 0.0418625 0)
(0.55236 0.0441586 0)
(0.537563 0.0463384 0)
(0.51984 0.0489912 0)
(0.506903 0.0525123 0)
(0.498849 0.0566319 0)
(0.49612 0.0611717 0)
(0.497802 0.0658205 0)
(0.502329 0.0713063 0)
(0.507456 0.0771316 0)
(0.509382 0.0836417 0)
(0.508153 0.0907795 0)
(0.504102 0.0983886 0)
(0.498713 0.107424 0)
(0.491264 0.116832 0)
(0.482344 0.126693 0)
(0.469565 0.137525 0)
(3 1.8956e-17 0)
(3 1.36343e-17 0)
(3 -4.6053e-16 0)
(3 -1.2257e-15 0)
(3 -1.11083e-15 0)
(3 -1.02022e-15 0)
(3 -9.40364e-16 0)
(3 -5.76464e-16 0)
(3 -3.77395e-16 0)
(3 2.59061e-16 0)
(3 4.07114e-16 0)
(3 -9.37957e-17 0)
(3 -2.1778e-16 0)
(3 -3.01757e-16 0)
(3 -8.62036e-16 0)
(3 -4.10532e-16 0)
(3 -4.92703e-16 0)
(3 -1.40799e-15 0)
(3 -2.06779e-15 0)
(3 -2.00444e-15 0)
(3 -1.56511e-16 0)
(3 4.57603e-16 0)
(3 7.31362e-16 0)
(3 5.17363e-16 0)
(3 -3.59655e-16 0)
(3 -1.7394e-16 0)
(3 6.7057e-16 0)
(3 9.72116e-16 0)
(3 1.04194e-15 0)
(3 1.45044e-16 0)
(3 -3.26211e-17 0)
(3 1.00249e-15 0)
(3 1.3963e-15 0)
(3 1.63365e-15 0)
(3 1.69158e-15 0)
(3 2.72275e-15 0)
(3 3.21736e-15 0)
(3 2.29315e-15 0)
(3 1.47576e-15 0)
(3 5.89061e-16 0)
(3 1.11308e-18 0)
(3 -8.0969e-17 0)
(3 5.5472e-16 0)
(3 5.38552e-16 0)
(3 7.3998e-16 0)
(3 7.76045e-16 0)
(3 -4.51831e-16 0)
(3 -1.94991e-15 0)
(3 -2.5346e-15 0)
(3 -1.63134e-15 0)
(3 -1.31273e-15 0)
(3 -1.38914e-15 0)
(3 -1.66247e-15 0)
(3 -1.48726e-15 0)
(3 -1.56264e-15 0)
(3 -1.95352e-15 0)
(3 -2.53463e-15 0)
(3 -2.22351e-15 0)
(2.9931 1.28116e-06 0)
(1.02285 0.00165612 0)
(0.623719 0.00213854 0)
(0.618523 0.0046981 0)
(0.621744 0.00827934 0)
(0.620948 0.00938657 0)
(0.618877 0.0114019 0)
(0.612688 0.0144793 0)
(0.602174 0.0168827 0)
(0.587007 0.0182487 0)
(0.571729 0.0196719 0)
(0.564136 0.0215306 0)
(0.561467 0.0232437 0)
(0.561857 0.0248162 0)
(0.565651 0.027029 0)
(0.573706 0.0295564 0)
(0.581597 0.0327347 0)
(0.58293 0.0359723 0)
(0.580475 0.0386996 0)
(0.576689 0.0413734 0)
(0.571192 0.044026 0)
(0.564585 0.0465945 0)
(0.554801 0.0489695 0)
(0.540147 0.0511019 0)
(0.522958 0.0536874 0)
(0.511698 0.0574862 0)
(0.50465 0.0620622 0)
(0.502453 0.067137 0)
(0.504454 0.0723658 0)
(0.509458 0.0783217 0)
(0.515174 0.0844087 0)
(0.517762 0.0907923 0)
(0.517087 0.0973822 0)
(0.513949 0.104347 0)
(0.509763 0.112401 0)
(0.503288 0.120562 0)
(0.494746 0.128996 0)
(0.482263 0.13833 0)
(3 -1.53529e-16 0)
(3 -2.66841e-16 0)
(3 -1.05214e-16 0)
(3 -3.53922e-16 0)
(3 -8.60421e-16 0)
(3 -6.86439e-16 0)
(3 -3.15675e-16 0)
(3 -5.10598e-16 0)
(3 -3.88154e-17 0)
(3 3.43108e-16 0)
(3 4.70712e-16 0)
(3 4.57452e-16 0)
(3 5.77798e-16 0)
(3 3.78539e-16 0)
(3 7.91161e-17 0)
(3 -3.63753e-16 0)
(3 -9.35413e-16 0)
(3 -7.81283e-16 0)
(3 -3.94386e-16 0)
(3 4.78408e-16 0)
(3 4.74947e-16 0)
(3 -7.27935e-16 0)
(3 -9.06842e-16 0)
(3 -9.98557e-16 0)
(3 -1.57451e-16 0)
(3 2.99884e-16 0)
(3 -1.15845e-16 0)
(3 2.93101e-16 0)
(3 9.26673e-16 0)
(3 1.346e-15 0)
(3 7.56887e-16 0)
(3 8.311e-16 0)
(3 9.12796e-16 0)
(3 1.16652e-15 0)
(3 1.42801e-15 0)
(3 1.78746e-15 0)
(3 1.77519e-15 0)
(3 1.32423e-15 0)
(3 1.12524e-15 0)
(3 5.08256e-16 0)
(3 1.03161e-16 0)
(3 -1.25199e-16 0)
(3 -5.08733e-16 0)
(3 -4.03541e-16 0)
(3 -2.1086e-17 0)
(3 -1.74881e-16 0)
(3 -7.73281e-16 0)
(3 -1.29824e-15 0)
(3 -1.95473e-15 0)
(3 -2.24059e-15 0)
(3 -2.12854e-15 0)
(3 -2.25675e-15 0)
(3 -2.67358e-15 0)
(3 -2.01921e-15 0)
(3 -1.15898e-15 0)
(3 -1.28368e-15 0)
(3 -1.19518e-15 0)
(3 -8.63439e-16 0)
(2.99336 1.09987e-05 0)
(1.02328 0.00255243 0)
(0.623735 0.00294262 0)
(0.618703 0.00566979 0)
(0.622083 0.00960962 0)
(0.621223 0.01085 0)
(0.619191 0.0129746 0)
(0.61307 0.0161642 0)
(0.602513 0.0186462 0)
(0.587273 0.0200695 0)
(0.572397 0.0216813 0)
(0.565331 0.0238158 0)
(0.562838 0.0258034 0)
(0.563554 0.0275948 0)
(0.567974 0.0299802 0)
(0.576785 0.0326395 0)
(0.58503 0.0359641 0)
(0.586283 0.0394156 0)
(0.583647 0.0424101 0)
(0.579623 0.0454119 0)
(0.573847 0.048323 0)
(0.567118 0.0511038 0)
(0.557184 0.0535188 0)
(0.542518 0.0555437 0)
(0.526076 0.0579913 0)
(0.516726 0.0619131 0)
(0.511029 0.0666992 0)
(0.509427 0.0721406 0)
(0.511742 0.0779115 0)
(0.517139 0.0843665 0)
(0.523072 0.0909231 0)
(0.525853 0.0973554 0)
(0.525202 0.103557 0)
(0.522929 0.110071 0)
(0.519521 0.117226 0)
(0.513855 0.124308 0)
(0.505485 0.131598 0)
(0.493074 0.139553 0)
(3 4.24786e-17 0)
(3 6.06615e-17 0)
(3 5.39127e-17 0)
(3 1.93267e-17 0)
(3 1.90295e-16 0)
(3 2.29951e-16 0)
(3 3.79223e-16 0)
(3 5.18842e-16 0)
(3 1.00235e-15 0)
(3 6.88107e-16 0)
(3 4.27986e-16 0)
(3 4.42878e-16 0)
(3 -1.71333e-16 0)
(3 -6.85649e-16 0)
(3 -8.67601e-16 0)
(3 -1.10733e-15 0)
(3 -1.51359e-15 0)
(3 -1.12888e-15 0)
(3 -1.77345e-16 0)
(3 1.14673e-15 0)
(3 8.21694e-16 0)
(3 -6.58002e-16 0)
(3 -2.37312e-15 0)
(3 -2.20685e-15 0)
(3 7.51038e-17 0)
(3 1.82413e-16 0)
(3 -2.64808e-16 0)
(3 2.23542e-16 0)
(3 7.60765e-16 0)
(3 1.71592e-15 0)
(3 1.95179e-15 0)
(3 5.96408e-16 0)
(3 9.13828e-16 0)
(3 9.62318e-16 0)
(3 1.33259e-15 0)
(3 7.11836e-16 0)
(3 3.48695e-16 0)
(3 5.12055e-16 0)
(3 7.31061e-16 0)
(3 1.96447e-16 0)
(3 6.75277e-16 0)
(3 3.98933e-16 0)
(3 -1.15081e-15 0)
(3 -1.74906e-15 0)
(3 -6.1811e-16 0)
(3 1.212e-16 0)
(3 -9.51415e-17 0)
(3 -5.7307e-16 0)
(3 -7.14722e-16 0)
(3 -7.26589e-16 0)
(3 -9.9612e-16 0)
(3 -8.9767e-16 0)
(3 -9.95717e-16 0)
(3 -5.78321e-16 0)
(3 -2.08043e-16 0)
(3 -7.43442e-16 0)
(3 -1.26739e-15 0)
(3 -1.37131e-15 0)
(2.99402 2.12477e-05 0)
(1.02473 0.00379802 0)
(0.624011 0.00400762 0)
(0.619012 0.0068749 0)
(0.622454 0.0110942 0)
(0.621469 0.0123849 0)
(0.6194 0.0145355 0)
(0.613288 0.0177342 0)
(0.602713 0.0202456 0)
(0.587488 0.0217048 0)
(0.573142 0.0235176 0)
(0.566629 0.0259329 0)
(0.564275 0.0282275 0)
(0.565288 0.0302795 0)
(0.570306 0.0328421 0)
(0.579872 0.0356433 0)
(0.588523 0.0390282 0)
(0.589829 0.0426201 0)
(0.587125 0.0458298 0)
(0.582914 0.0491413 0)
(0.576816 0.0523177 0)
(0.569799 0.0553328 0)
(0.559451 0.0577924 0)
(0.544575 0.0596993 0)
(0.529127 0.062025 0)
(0.521761 0.0659273 0)
(0.51761 0.070664 0)
(0.516802 0.0762098 0)
(0.519609 0.0823841 0)
(0.525491 0.0892904 0)
(0.531267 0.0964535 0)
(0.533873 0.103082 0)
(0.532961 0.109163 0)
(0.531164 0.11546 0)
(0.528256 0.12198 0)
(0.523146 0.128318 0)
(0.514876 0.134731 0)
(0.502376 0.141479 0)
(3 6.18565e-17 0)
(3 2.6957e-16 0)
(3 2.06732e-16 0)
(3 6.81643e-16 0)
(3 6.72667e-16 0)
(3 3.2797e-17 0)
(3 7.07782e-17 0)
(3 3.0892e-16 0)
(3 4.31705e-16 0)
(3 1.06407e-16 0)
(3 -3.04386e-16 0)
(3 -1.63881e-16 0)
(3 -1.27139e-16 0)
(3 -7.3895e-18 0)
(3 -8.33408e-16 0)
(3 -7.61911e-16 0)
(3 -1.7739e-16 0)
(3 2.82162e-16 0)
(3 7.01308e-16 0)
(3 7.84565e-16 0)
(3 1.74776e-15 0)
(3 2.20379e-15 0)
(3 8.09019e-16 0)
(3 4.3776e-17 0)
(3 1.5035e-16 0)
(3 -5.343e-17 0)
(3 2.51006e-16 0)
(3 6.7128e-16 0)
(3 7.70882e-16 0)
(3 6.21473e-16 0)
(3 8.23718e-16 0)
(3 3.69269e-16 0)
(3 -1.80251e-16 0)
(3 -1.58816e-16 0)
(3 -9.37572e-17 0)
(3 -2.52767e-16 0)
(3 -2.07425e-16 0)
(3 -2.36834e-16 0)
(3 -9.42152e-16 0)
(3 -5.78988e-16 0)
(3 -5.67842e-16 0)
(3 -1.26625e-16 0)
(3 -6.59524e-16 0)
(3 -1.02517e-15 0)
(3 -9.56849e-16 0)
(3 -9.32913e-16 0)
(3 -3.1644e-16 0)
(3 -3.858e-17 0)
(3 -1.6483e-16 0)
(3 -1.00745e-17 0)
(3 1.09896e-16 0)
(3 4.49219e-16 0)
(3 4.88859e-16 0)
(3 6.27686e-16 0)
(3 8.0606e-16 0)
(3 1.04797e-16 0)
(3 -1.02523e-15 0)
(3 -1.73963e-15 0)
(2.99518 4.16494e-05 0)
(1.02751 0.00537336 0)
(0.624594 0.00532103 0)
(0.619503 0.00832923 0)
(0.622836 0.0127381 0)
(0.621658 0.0139306 0)
(0.619464 0.0160263 0)
(0.6133 0.0191589 0)
(0.602737 0.0216568 0)
(0.587634 0.0231438 0)
(0.573952 0.0251604 0)
(0.568036 0.0278667 0)
(0.565824 0.0304815 0)
(0.567081 0.0328212 0)
(0.57265 0.035581 0)
(0.582928 0.0385402 0)
(0.591985 0.041959 0)
(0.593448 0.0456071 0)
(0.590834 0.0489432 0)
(0.586523 0.0524951 0)
(0.580157 0.0559372 0)
(0.572657 0.0591943 0)
(0.561607 0.061735 0)
(0.546344 0.0635558 0)
(0.53214 0.06586 0)
(0.526639 0.0696475 0)
(0.52404 0.0741219 0)
(0.52421 0.0795695 0)
(0.527854 0.0858687 0)
(0.534421 0.0930603 0)
(0.539953 0.100663 0)
(0.54198 0.107586 0)
(0.54088 0.113846 0)
(0.538978 0.120125 0)
(0.536342 0.126377 0)
(0.531527 0.132316 0)
(0.523195 0.138056 0)
(0.510547 0.143857 0)
(3 1.15847e-17 0)
(3 -2.27443e-17 0)
(3 -6.13335e-17 0)
(3 -4.20683e-17 0)
(3 -2.45194e-16 0)
(3 -1.10849e-15 0)
(3 -9.95649e-16 0)
(3 -7.27263e-16 0)
(3 -1.22801e-15 0)
(3 -1.00956e-15 0)
(3 -6.41706e-16 0)
(3 -3.08925e-16 0)
(3 -2.41849e-16 0)
(3 6.24513e-16 0)
(3 2.82712e-16 0)
(3 -1.20202e-16 0)
(3 3.15631e-16 0)
(3 1.28078e-15 0)
(3 1.39416e-15 0)
(3 8.65003e-16 0)
(3 5.43424e-16 0)
(3 1.41456e-15 0)
(3 2.19438e-15 0)
(3 2.02772e-15 0)
(3 1.29437e-15 0)
(3 6.93967e-16 0)
(3 6.30527e-17 0)
(3 -5.55304e-16 0)
(3 -5.78839e-16 0)
(3 -6.95578e-16 0)
(3 -5.15633e-16 0)
(3 -4.13779e-16 0)
(3 -6.85627e-16 0)
(3 -1.24342e-15 0)
(3 -1.80564e-15 0)
(3 -1.68333e-15 0)
(3 -1.44172e-15 0)
(3 -1.4242e-15 0)
(3 -1.56918e-15 0)
(3 -1.45149e-15 0)
(3 -1.18673e-15 0)
(3 -1.27755e-15 0)
(3 -1.31524e-16 0)
(3 1.11689e-15 0)
(3 1.12489e-15 0)
(3 3.30478e-16 0)
(3 4.16916e-16 0)
(3 3.88085e-16 0)
(3 8.48541e-17 0)
(3 -4.32186e-16 0)
(3 6.37954e-16 0)
(3 1.2416e-15 0)
(3 1.11445e-15 0)
(3 3.42118e-16 0)
(3 -4.735e-16 0)
(3 -4.37325e-16 0)
(3 -1.42756e-15 0)
(3 -1.23868e-15 0)
(2.9969 2.31671e-05 0)
(1.03179 0.00728191 0)
(0.625451 0.006869 0)
(0.620178 0.010035 0)
(0.623295 0.0145165 0)
(0.621808 0.0154967 0)
(0.619386 0.0174346 0)
(0.613092 0.0204135 0)
(0.602548 0.0228672 0)
(0.587665 0.0243681 0)
(0.574791 0.026588 0)
(0.569549 0.0295828 0)
(0.56751 0.0325283 0)
(0.568974 0.0351967 0)
(0.575035 0.0381934 0)
(0.585932 0.041364 0)
(0.595336 0.0447984 0)
(0.596985 0.0484212 0)
(0.594627 0.0517746 0)
(0.590354 0.0554478 0)
(0.583876 0.0591083 0)
(0.575722 0.0625765 0)
(0.563694 0.0652452 0)
(0.547963 0.0670661 0)
(0.535213 0.0695077 0)
(0.531255 0.0731945 0)
(0.529989 0.0773984 0)
(0.531359 0.0825287 0)
(0.536123 0.0886856 0)
(0.543558 0.0958915 0)
(0.548997 0.103588 0)
(0.55029 0.110642 0)
(0.549112 0.117193 0)
(0.546827 0.123606 0)
(0.544195 0.129938 0)
(0.539314 0.135837 0)
(0.53063 0.141112 0)
(0.517857 0.146288 0)
(3 -1.43614e-16 0)
(3 -5.61472e-16 0)
(3 -2.57798e-16 0)
(3 -2.46569e-16 0)
(3 -5.88493e-17 0)
(3 4.24184e-16 0)
(3 1.16776e-16 0)
(3 -1.65548e-16 0)
(3 4.75902e-17 0)
(3 1.63222e-16 0)
(3 -1.15044e-16 0)
(3 -5.46971e-16 0)
(3 1.06866e-17 0)
(3 2.5159e-16 0)
(3 4.62739e-16 0)
(3 3.8824e-17 0)
(3 -8.45092e-17 0)
(3 4.79157e-17 0)
(3 4.30088e-16 0)
(3 5.01319e-16 0)
(3 4.16221e-16 0)
(3 6.49736e-16 0)
(3 1.75012e-15 0)
(3 2.02847e-15 0)
(3 1.3705e-15 0)
(3 1.26465e-15 0)
(3 6.76449e-16 0)
(3 -1.86157e-16 0)
(3 -4.95697e-16 0)
(3 -1.0748e-15 0)
(3 -1.45532e-15 0)
(3 -1.79568e-15 0)
(3 -7.75035e-16 0)
(3 -2.70667e-16 0)
(3 -1.02815e-15 0)
(3 -2.18593e-15 0)
(3 -3.25699e-15 0)
(3 -3.2466e-15 0)
(3 -2.36004e-15 0)
(3 -1.18814e-15 0)
(3 -8.36216e-16 0)
(3 -8.52414e-16 0)
(3 -2.29888e-16 0)
(3 4.8928e-16 0)
(3 7.43563e-16 0)
(3 8.49932e-16 0)
(3 -9.48774e-18 0)
(3 3.15022e-16 0)
(3 7.52217e-16 0)
(3 3.22551e-16 0)
(3 -1.8187e-16 0)
(3 1.25445e-16 0)
(3 6.96604e-16 0)
(3 5.82603e-16 0)
(3 2.44626e-16 0)
(3 -8.99564e-16 0)
(3 -8.51854e-16 0)
(3 -2.06325e-16 0)
(2.99843 1.87222e-06 0)
(1.03772 0.00948633 0)
(0.626566 0.00863989 0)
(0.621021 0.0119874 0)
(0.623731 0.0164064 0)
(0.621869 0.0170371 0)
(0.619127 0.0187257 0)
(0.612658 0.0214895 0)
(0.60214 0.0238842 0)
(0.587573 0.0253997 0)
(0.575631 0.027784 0)
(0.571138 0.0310427 0)
(0.569347 0.0343337 0)
(0.57102 0.0373724 0)
(0.577524 0.0406566 0)
(0.588925 0.0440856 0)
(0.598524 0.0475778 0)
(0.600303 0.0511039 0)
(0.598319 0.0543797 0)
(0.59426 0.0580279 0)
(0.58789 0.0617681 0)
(0.579011 0.0653555 0)
(0.565784 0.0681792 0)
(0.549646 0.0701562 0)
(0.538494 0.072918 0)
(0.53564 0.0765612 0)
(0.535487 0.0805228 0)
(0.538018 0.0854644 0)
(0.544104 0.0912505 0)
(0.552474 0.0981984 0)
(0.557962 0.105626 0)
(0.558702 0.112431 0)
(0.557485 0.119024 0)
(0.555007 0.125559 0)
(0.5522 0.13209 0)
(0.546888 0.138126 0)
(0.53744 0.143159 0)
(0.524631 0.148167 0)
(3 -2.36203e-17 0)
(3 -1.13745e-16 0)
(3 -2.98097e-16 0)
(3 3.27534e-17 0)
(3 7.43994e-16 0)
(3 1.47575e-15 0)
(3 1.57279e-15 0)
(3 1.14648e-15 0)
(3 1.01183e-15 0)
(3 9.60055e-16 0)
(3 9.94789e-16 0)
(3 1.63027e-16 0)
(3 1.21918e-16 0)
(3 -6.73806e-16 0)
(3 -6.16728e-16 0)
(3 -3.75818e-16 0)
(3 5.27242e-16 0)
(3 2.23883e-16 0)
(3 1.37308e-16 0)
(3 7.30411e-16 0)
(3 7.58665e-16 0)
(3 8.69897e-16 0)
(3 1.00126e-15 0)
(3 1.18646e-15 0)
(3 5.6203e-16 0)
(3 2.32015e-16 0)
(3 -1.54274e-16 0)
(3 -3.08164e-16 0)
(3 -3.96204e-16 0)
(3 -1.82351e-16 0)
(3 -7.15829e-16 0)
(3 -9.03592e-16 0)
(3 -1.72897e-15 0)
(3 -2.25325e-15 0)
(3 -1.83837e-15 0)
(3 -1.91425e-15 0)
(3 -2.40682e-15 0)
(3 -2.55557e-15 0)
(3 -1.39704e-15 0)
(3 -8.14411e-16 0)
(3 -1.14769e-16 0)
(3 -6.59318e-17 0)
(3 -3.64524e-16 0)
(3 -4.76008e-16 0)
(3 -3.51186e-16 0)
(3 8.24417e-16 0)
(3 2.5044e-16 0)
(3 3.46842e-16 0)
(3 1.16371e-15 0)
(3 1.46255e-15 0)
(3 8.88027e-17 0)
(3 -1.88538e-16 0)
(3 -4.10646e-16 0)
(3 -4.77541e-16 0)
(3 -3.89198e-17 0)
(3 3.04898e-16 0)
(3 2.55163e-16 0)
(3 5.61925e-17 0)
(3 4.48789e-16 0)
(1.04554 0.0119205 0)
(0.627849 0.010563 0)
(0.622074 0.0141124 0)
(0.624221 0.0183348 0)
(0.621856 0.0185533 0)
(0.618736 0.0198953 0)
(0.612041 0.0224104 0)
(0.60152 0.0247266 0)
(0.58732 0.0262818 0)
(0.576365 0.0287795 0)
(0.572764 0.0322444 0)
(0.571333 0.0358503 0)
(0.573278 0.03927 0)
(0.580206 0.0428794 0)
(0.591972 0.0466318 0)
(0.601526 0.050255 0)
(0.603319 0.0536711 0)
(0.601725 0.0568399 0)
(0.598049 0.0603237 0)
(0.591969 0.0639381 0)
(0.582412 0.0674772 0)
(0.567941 0.0704139 0)
(0.551634 0.0727384 0)
(0.542159 0.0759408 0)
(0.539924 0.0796346 0)
(0.540616 0.0835727 0)
(0.544259 0.0884203 0)
(0.551599 0.0939316 0)
(0.56086 0.100405 0)
(0.566359 0.107336 0)
(0.566828 0.113588 0)
(0.565675 0.119848 0)
(0.563328 0.126215 0)
(0.560309 0.132751 0)
(0.5544 0.138758 0)
(0.543917 0.143584 0)
(0.531286 0.148888 0)
(3 2.39238e-16 0)
(3 4.66013e-16 0)
(3 2.86096e-16 0)
(3 -9.14318e-17 0)
(3 -2.07538e-16 0)
(3 1.89968e-16 0)
(3 3.74001e-16 0)
(3 4.17659e-16 0)
(3 3.8893e-16 0)
(3 6.07269e-16 0)
(3 5.8871e-16 0)