/*--------------------------------*- C++ -*----------------------------------*\
  =========                 |
  \\      /  F ield         | OpenFOAM: The Open Source CFD Toolbox
   \\    /   O peration     | Website:  https://openfoam.org
    \\  /    A nd           | Version:  7
     \\/     M anipulation  |
\*---------------------------------------------------------------------------*/
FoamFile
{
    version     2.0;
    format      ascii;
    class       volVectorField;
    location    "0.3";
    object      U;
}
// * * * * * * * * * * * * * * * * * * * * * * * * * * * * * * * * * * * * * //

dimensions      [0 1 -1 0 0 0 0];

internalField   nonuniform List<vector> 
73728
(
(3 -3.62291e-18 0)
(3 -1.19424e-16 0)
(3 -2.14331e-16 0)
(3 -3.67916e-16 0)
(3 -1.76269e-16 0)
(3 9.66849e-17 0)
(3 4.71195e-16 0)
(3 5.61754e-16 0)
(3 2.82432e-16 0)
(3 7.46511e-17 0)
(3 2.7527e-16 0)
(3 9.17688e-16 0)
(3 1.88075e-16 0)
(3 8.49903e-17 0)
(3 2.27042e-16 0)
(3 3.28705e-16 0)
(3 6.01745e-16 0)
(3 3.94123e-16 0)
(3 1.05339e-16 0)
(3 3.03653e-16 0)
(3 4.77659e-16 0)
(3 1.1991e-16 0)
(3 1.16384e-16 0)
(3 9.37293e-16 0)
(3 2.40321e-15 0)
(3 2.39306e-15 0)
(3 1.58447e-15 0)
(3 1.03607e-15 0)
(3 2.77382e-16 0)
(3 -3.19383e-16 0)
(3 -7.45393e-16 0)
(3 -8.55577e-16 0)
(3 -4.44106e-17 0)
(3 1.15525e-15 0)
(3 1.23135e-15 0)
(3 1.67591e-16 0)
(3 -6.37139e-16 0)
(3 -7.34104e-16 0)
(3 -1.00052e-15 0)
(3 -1.32874e-15 0)
(3 -5.6774e-16 0)
(3 1.96913e-16 0)
(3 -2.43275e-16 0)
(3 6.13533e-16 0)
(3 7.20144e-16 0)
(3 1.35735e-15 0)
(3 2.33335e-15 0)
(3 6.85391e-17 0)
(3 -4.25077e-16 0)
(3 -1.25727e-15 0)
(3 -1.66265e-15 0)
(3 -1.27022e-15 0)
(3 -1.02544e-15 0)
(3 -8.11203e-16 0)
(3 -1.57351e-15 0)
(3 -2.06876e-15 0)
(3 -1.49549e-15 0)
(3 -9.65745e-16 0)
(3 1.20915e-16 0)
(3 1.07038e-15 0)
(3 6.22787e-16 0)
(3 3.49384e-16 0)
(3 1.07115e-15 0)
(3 1.53376e-15 0)
(3 8.40171e-16 0)
(3 1.02294e-15 0)
(3 4.1378e-16 0)
(3 -2.83079e-16 0)
(3 -2.93234e-16 0)
(3 -3.54966e-16 0)
(3 -5.32459e-16 0)
(3 -1.26136e-15 0)
(3 -1.19807e-15 0)
(3 -5.47539e-16 0)
(3 -8.5189e-16 0)
(3 -1.90478e-15 0)
(3 -2.12334e-15 0)
(3 -1.54831e-15 0)
(3 -9.49088e-16 0)
(3 -9.45441e-16 0)
(3 -7.58369e-16 0)
(3 -7.62472e-16 0)
(3 -1.12745e-15 0)
(3 -9.21822e-16 0)
(3 -8.5404e-16 0)
(3 -9.64602e-16 0)
(3 -3.56599e-17 0)
(3 4.26176e-16 0)
(3 4.10853e-16 0)
(3 5.7579e-16 0)
(3 7.39779e-16 0)
(3 8.17736e-16 0)
(3 4.16348e-16 0)
(3 1.92504e-16 0)
(3 -2.94006e-18 0)
(3 -6.17189e-16 0)
(3 -9.14377e-17 0)
(3 -3.46901e-17 0)
(3 -2.13917e-16 0)
(3 -2.43628e-16 0)
(3 2.17004e-17 0)
(3 7.16232e-16 0)
(3 6.64098e-16 0)
(3 4.84121e-16 0)
(3 2.2329e-16 0)
(3 -2.25235e-16 0)
(3 -4.8099e-16 0)
(3 -2.14859e-16 0)
(3 -8.56398e-16 0)
(3 -5.49534e-16 0)
(3 -2.28207e-16 0)
(3 1.12363e-16 0)
(3 9.40378e-16 0)
(3 1.33039e-15 0)
(3 1.61738e-15 0)
(3 1.67869e-15 0)
(3 1.31778e-15 0)
(3 1.30735e-16 0)
(3 9.2102e-16 0)
(3 2.77481e-15 0)
(3 3.17506e-15 0)
(3 2.87124e-15 0)
(3 2.8195e-15 0)
(3 2.37065e-15 0)
(3 1.74655e-15 0)
(3 1.23247e-15 0)
(3 3.56771e-16 0)
(3 -2.64533e-16 0)
(3 3.69296e-16 0)
(3 7.98699e-16 0)
(3 6.22046e-17 0)
(3 -1.5008e-15 0)
(3 -3.03598e-15 0)
(3 -2.48785e-15 0)
(3 -1.69642e-15 0)
(3 -1.80861e-15 0)
(3 -1.71613e-15 0)
(3 -1.2685e-15 0)
(3 -1.21715e-15 0)
(3 -3.55434e-16 0)
(3 5.19647e-16 0)
(3 2.28436e-15 0)
(3 3.141e-15 0)
(3 1.46479e-15 0)
(3 -1.28497e-15 0)
(3 -2.21006e-15 0)
(3 -2.01547e-15 0)
(3 -1.75429e-15 0)
(3 -2.18207e-15 0)
(3 -2.11277e-15 0)
(3 -1.91511e-15 0)
(3 -2.17312e-15 0)
(3 -1.78087e-15 0)
(3 -1.70957e-15 0)
(3 -7.83383e-16 0)
(3 1.62568e-15 0)
(3 1.41092e-15 0)
(3 1.98067e-15 0)
(3 4.0683e-15 0)
(3 4.40455e-15 0)
(3 9.37328e-16 0)
(3 1.60215e-16 0)
(3 -1.29981e-15 0)
(3 -2.0941e-15 0)
(3 -1.69115e-15 0)
(3 -1.08576e-15 0)
(3 -1.52002e-15 0)
(3 -2.37782e-15 0)
(3 -2.20008e-15 0)
(3 -1.90989e-15 0)
(3 -2.35839e-15 0)
(3 -2.01943e-15 0)
(3 -1.03356e-15 0)
(3 -4.68126e-16 0)
(3 8.41899e-16 0)
(3 1.15451e-15 0)
(3 8.65537e-16 0)
(3 6.44584e-16 0)
(3 6.95914e-16 0)
(3 -3.33223e-16 0)
(3 -5.69218e-16 0)
(3 -2.52532e-16 0)
(3 8.46464e-16 0)
(3 1.78414e-15 0)
(3 2.29003e-15 0)
(3 2.50184e-15 0)
(3 2.5522e-15 0)
(3 1.0117e-15 0)
(3 -6.13706e-16 0)
(3 -4.60652e-16 0)
(3 -5.81696e-16 0)
(3 -1.42712e-15 0)
(3 -3.69309e-17 0)
(3 -1.17239e-16 0)
(3 1.61792e-17 0)
(3 4.15764e-17 0)
(3 2.65065e-16 0)
(3 1.54359e-16 0)
(3 4.31121e-17 0)
(3 -2.17602e-16 0)
(3 -3.61734e-16 0)
(3 -5.56587e-16 0)
(3 -8.52845e-16 0)
(3 -1.47437e-15 0)
(3 -1.26954e-15 0)
(3 -7.44732e-16 0)
(3 -3.25263e-16 0)
(3 4.06598e-16 0)
(3 9.13518e-16 0)
(3 1.02835e-15 0)
(3 1.22025e-15 0)
(3 8.32531e-16 0)
(3 8.90443e-16 0)
(3 8.3842e-16 0)
(3 2.81734e-15 0)
(3 3.69251e-15 0)
(3 3.8495e-15 0)
(3 4.09624e-15 0)
(3 3.65155e-15 0)
(3 3.30196e-15 0)
(3 1.7926e-15 0)
(3 1.37876e-15 0)
(3 1.74335e-16 0)
(3 3.17461e-16 0)
(3 -8.29815e-17 0)
(3 -7.25069e-16 0)
(3 -5.64788e-16 0)
(3 -5.98399e-16 0)
(3 -1.27256e-15 0)
(3 -1.60858e-15 0)
(3 -1.06288e-15 0)
(3 -6.41752e-16 0)
(3 -1.26603e-15 0)
(3 -1.74111e-15 0)
(3 -1.90322e-15 0)
(3 -1.36651e-15 0)
(3 -5.31067e-16 0)
(3 1.07518e-15 0)
(3 1.41272e-15 0)
(3 1.35016e-15 0)
(3 1.0537e-15 0)
(3 1.76174e-16 0)
(3 -3.04601e-16 0)
(3 -7.32886e-16 0)
(3 -5.21217e-16 0)
(3 -1.21091e-15 0)
(3 -1.60981e-15 0)
(3 -1.94819e-15 0)
(3 -1.42e-15 0)
(3 -9.39656e-16 0)
(3 5.17649e-16 0)
(3 1.47093e-15 0)
(3 2.92929e-15 0)
(3 5.23005e-15 0)
(3 6.14217e-15 0)
(3 5.02388e-15 0)
(3 2.64623e-15 0)
(3 -1.8671e-16 0)
(3 -1.89053e-15 0)
(3 -1.86928e-15 0)
(3 -5.11919e-16 0)
(3 -4.12728e-16 0)
(3 -6.63263e-16 0)
(3 -7.03071e-16 0)
(3 -2.34918e-15 0)
(3 -8.1638e-16 0)
(3 -1.55648e-16 0)
(3 1.22674e-15 0)
(3 1.56262e-15 0)
(3 1.67438e-15 0)
(3 1.73578e-15 0)
(3 1.25818e-15 0)
(3 8.92031e-16 0)
(3 1.39785e-15 0)
(3 1.06632e-15 0)
(3 4.68596e-16 0)
(3 3.76035e-16 0)
(3 6.13825e-16 0)
(3 9.40351e-16 0)
(3 1.22724e-15 0)
(3 2.71859e-15 0)
(3 3.61871e-15 0)
(3 2.68871e-15 0)
(3 1.36133e-15 0)
(3 6.3883e-16 0)
(3 -2.07633e-17 0)
(3 -2.88582e-16 0)
(3 -4.41124e-16 0)
(3 6.90941e-17 0)
(3 1.78854e-16 0)
(3 4.57616e-16 0)
(3 2.7253e-16 0)
(3 1.26486e-16 0)
(3 -4.99448e-16 0)
(3 -3.87522e-16 0)
(3 -1.1678e-16 0)
(3 -1.02015e-16 0)
(3 -1.69609e-16 0)
(3 -2.21939e-16 0)
(3 1.36548e-17 0)
(3 1.25203e-16 0)
(3 -6.6561e-17 0)
(3 -8.82916e-17 0)
(3 6.25143e-16 0)
(3 8.77447e-16 0)
(3 4.15295e-16 0)
(3 -2.10846e-16 0)
(3 1.77605e-16 0)
(3 1.29161e-15 0)
(3 1.99874e-15 0)
(3 2.42618e-15 0)
(3 2.88886e-15 0)
(3 3.43026e-15 0)
(3 3.22324e-15 0)
(3 1.88298e-15 0)
(3 1.90035e-15 0)
(3 1.74184e-15 0)
(3 1.42822e-15 0)
(3 6.42461e-16 0)
(3 -3.72294e-16 0)
(3 -1.94564e-15 0)
(3 -2.22192e-15 0)
(3 -1.49377e-15 0)
(3 -1.46601e-15 0)
(3 -1.33808e-15 0)
(3 -8.25736e-16 0)
(3 -1.13129e-15 0)
(3 -1.67156e-15 0)
(3 -1.5625e-15 0)
(3 -1.39336e-15 0)
(3 -1.2354e-15 0)
(3 -8.89084e-16 0)
(3 -9.23026e-16 0)
(3 -9.55961e-16 0)
(3 -1.27099e-15 0)
(3 -3.73695e-16 0)
(3 8.95442e-16 0)
(3 1.27099e-15 0)
(3 4.82362e-16 0)
(3 -1.05427e-16 0)
(3 -2.96071e-16 0)
(3 -7.49956e-16 0)
(3 -1.66069e-15 0)
(3 -2.11464e-15 0)
(3 -2.11348e-15 0)
(3 2.53297e-16 0)
(3 1.40617e-15 0)
(3 1.94092e-15 0)
(3 2.46937e-15 0)
(3 4.03352e-15 0)
(3 4.04557e-15 0)
(3 3.81418e-15 0)
(3 3.59898e-15 0)
(3 2.13665e-15 0)
(3 6.00243e-16 0)
(3 1.29304e-15 0)
(3 1.23157e-15 0)
(3 5.40821e-16 0)
(3 -1.34646e-16 0)
(3 -4.30454e-16 0)
(3 -7.8204e-16 0)
(3 -8.8025e-16 0)
(3 2.32734e-17 0)
(3 1.48807e-16 0)
(3 1.47464e-16 0)
(3 3.28679e-16 0)
(3 9.84322e-16 0)
(3 1.30526e-15 0)
(3 -2.02632e-16 0)
(3 -1.38058e-15 0)
(3 -2.64028e-15 0)
(3 -2.71582e-15 0)
(3 -2.03185e-15 0)
(3 -6.47489e-16 0)
(3 5.4845e-16 0)
(3 2.11411e-16 0)
(3 5.49218e-16 0)
(3 9.14301e-16 0)
(3 2.59503e-15 0)
(3 3.26949e-15 0)
(3 3.24714e-15 0)
(3 1.97524e-15 0)
(3 9.87442e-16 0)
(3 4.37922e-16 0)
(3 6.06238e-18 0)
(3 1.51843e-16 0)
(3 -1.77458e-16 0)
(3 -3.90603e-17 0)
(3 -6.63221e-16 0)
(3 -5.58793e-16 0)
(3 -8.20626e-16 0)
(3 -2.97802e-16 0)
(3 2.51388e-16 0)
(3 3.2414e-16 0)
(3 1.49113e-16 0)
(3 4.06935e-17 0)
(3 2.37077e-16 0)
(3 3.6333e-16 0)
(3 2.46065e-16 0)
(3 1.25985e-15 0)
(3 1.29841e-15 0)
(3 7.35976e-16 0)
(3 7.35368e-16 0)
(3 1.70398e-15 0)
(3 2.58618e-15 0)
(3 2.73091e-15 0)
(3 1.51756e-15 0)
(3 1.3731e-15 0)
(3 1.25681e-15 0)
(3 4.8363e-16 0)
(3 3.98631e-16 0)
(3 1.16367e-15 0)
(3 1.81496e-15 0)
(3 1.67555e-15 0)
(3 1.0255e-15 0)
(3 -9.30626e-16 0)
(3 -1.8342e-15 0)
(3 -1.96335e-15 0)
(3 -2.39522e-15 0)
(3 -1.86456e-15 0)
(3 -3.54941e-16 0)
(3 4.65736e-16 0)
(3 -3.03703e-16 0)
(3 -1.00832e-15 0)
(3 -1.50859e-15 0)
(3 -1.203e-15 0)
(3 -1.14249e-15 0)
(3 -1.13543e-15 0)
(3 -7.32943e-16 0)
(3 -6.35489e-16 0)
(3 -1.08009e-15 0)
(3 -1.27774e-15 0)
(3 -1.21281e-15 0)
(3 -9.8775e-16 0)
(3 -1.16872e-15 0)
(3 -1.77557e-15 0)
(3 -2.74534e-15 0)
(3 -3.12606e-15 0)
(3 -2.55164e-15 0)
(3 -1.9509e-15 0)
(3 -1.38034e-15 0)
(3 -6.06974e-16 0)
(3 -1.06906e-16 0)
(3 5.18837e-16 0)
(3 8.71433e-16 0)
(3 1.59201e-15 0)
(3 1.77874e-15 0)
(3 1.99897e-15 0)
(3 2.36354e-15 0)
(3 2.69219e-15 0)
(3 3.0798e-15 0)
(3 3.13007e-15 0)
(3 2.52972e-15 0)
(3 2.12241e-15 0)
(3 5.21377e-16 0)
(3 -5.82403e-16 0)
(3 -3.5108e-16 0)
(3 -3.66985e-16 0)
(3 1.8139e-16 0)
(3 1.16381e-15 0)
(3 1.31333e-15 0)
(3 1.17079e-15 0)
(3 1.19477e-15 0)
(3 7.2151e-17 0)
(3 -6.29725e-16 0)
(3 -1.80409e-15 0)
(3 -3.11576e-15 0)
(3 -3.00966e-15 0)
(3 -1.69348e-15 0)
(3 -1.40191e-15 0)
(3 -1.25866e-15 0)
(3 -1.24803e-15 0)
(3 -1.4342e-15 0)
(3 -2.29285e-15 0)
(3 -1.91474e-15 0)
(3 7.11228e-16 0)
(3 1.75979e-15 0)
(3 2.27236e-15 0)
(3 2.43446e-15 0)
(3 2.32379e-15 0)
(3 1.15893e-16 0)
(3 -2.75874e-16 0)
(3 -3.14374e-16 0)
(3 -1.1613e-16 0)
(3 -4.25653e-17 0)
(3 -7.86335e-17 0)
(3 -6.26557e-16 0)
(3 -8.1622e-16 0)
(3 -7.22988e-16 0)
(3 -5.92217e-16 0)
(3 -3.25878e-16 0)
(3 1.12287e-16 0)
(3 7.17498e-17 0)
(3 4.14785e-16 0)
(3 1.77801e-15 0)
(3 2.57617e-15 0)
(3 2.24128e-15 0)
(3 2.0682e-15 0)
(3 2.13038e-15 0)
(3 2.72315e-15 0)
(3 3.08016e-15 0)
(3 3.39743e-15 0)
(3 2.78184e-15 0)
(3 1.99587e-15 0)
(3 1.80053e-16 0)
(3 -3.0667e-16 0)
(3 -1.14723e-16 0)
(3 3.60725e-18 0)
(3 7.85632e-16 0)
(3 1.12572e-15 0)
(3 -9.28684e-16 0)
(3 -1.48618e-15 0)
(3 -8.48881e-16 0)
(3 -2.55963e-16 0)
(3 -8.56438e-16 0)
(3 -1.08825e-15 0)
(3 -1.06304e-16 0)
(3 -1.39729e-16 0)
(3 1.31426e-16 0)
(3 3.47653e-16 0)
(3 -2.72087e-16 0)
(3 -7.75646e-16 0)
(3 -1.09944e-15 0)
(3 -1.73307e-15 0)
(3 -2.34472e-16 0)
(3 3.24438e-17 0)
(3 7.24876e-17 0)
(3 -3.10503e-16 0)
(3 -2.74216e-16 0)
(3 -1.0734e-16 0)
(3 -2.90397e-16 0)
(3 -1.08976e-15 0)
(3 -1.23455e-15 0)
(3 -1.51152e-15 0)
(3 -1.65417e-15 0)
(3 -1.67132e-15 0)
(3 -7.24457e-16 0)
(3 3.43138e-16 0)
(3 7.68816e-17 0)
(3 3.09482e-16 0)
(3 1.42559e-15 0)
(3 8.02039e-16 0)
(3 1.05978e-15 0)
(3 2.05779e-17 0)
(3 8.16057e-16 0)
(3 2.3248e-15 0)
(3 2.90117e-15 0)
(3 2.7551e-15 0)
(3 3.57502e-15 0)
(3 3.50624e-15 0)
(3 3.58733e-15 0)
(3 2.68134e-15 0)
(3 1.60583e-15 0)
(3 1.81724e-15 0)
(3 2.62198e-15 0)
(3 3.27139e-15 0)
(3 3.2825e-15 0)
(3 2.47313e-15 0)
(3 -3.6748e-18 0)
(3 -1.42574e-15 0)
(3 -1.37508e-15 0)
(3 -1.47937e-15 0)
(3 -1.24247e-15 0)
(3 -1.93383e-15 0)
(3 -2.5164e-15 0)
(3 -2.52021e-15 0)
(3 -2.69138e-15 0)
(3 -1.54069e-15 0)
(3 -1.35278e-15 0)
(3 -2.23181e-15 0)
(3 -2.62451e-15 0)
(3 -2.28826e-15 0)
(3 -1.84092e-15 0)
(3 5.2084e-16 0)
(3 2.83022e-15 0)
(3 3.1909e-15 0)
(3 -1.16413e-17 0)
(3 -1.10635e-16 0)
(3 -2.41117e-17 0)
(3 1.0811e-16 0)
(3 3.25636e-16 0)
(3 4.38627e-16 0)
(3 4.96631e-16 0)
(3 -3.63733e-16 0)
(3 -4.2038e-16 0)
(3 -4.71057e-16 0)
(3 -3.22652e-16 0)
(3 2.5332e-16 0)
(3 9.8617e-16 0)
(3 1.50607e-15 0)
(3 2.40016e-15 0)
(3 2.01463e-15 0)
(3 2.02612e-15 0)
(3 2.45511e-15 0)
(3 3.66291e-15 0)
(3 4.03685e-15 0)
(3 3.65008e-15 0)
(3 2.75818e-15 0)
(3 2.5879e-15 0)
(3 2.78461e-15 0)
(3 1.78034e-15 0)
(3 1.66296e-15 0)
(3 6.02845e-16 0)
(3 -3.28098e-16 0)
(3 -1.23907e-15 0)
(3 -7.38992e-16 0)
(3 -1.53615e-15 0)
(3 -2.28611e-15 0)
(3 -2.01392e-15 0)
(3 -1.6355e-15 0)
(3 -1.2263e-15 0)
(3 -1.05838e-15 0)
(3 -5.23435e-16 0)
(3 -2.4897e-16 0)
(3 3.89e-17 0)
(3 2.45222e-16 0)
(3 7.22947e-16 0)
(3 4.97431e-17 0)
(3 -2.90161e-16 0)
(3 -6.44458e-16 0)
(3 -4.28782e-16 0)
(3 -7.04758e-16 0)
(3 -8.49846e-16 0)
(3 -8.86959e-16 0)
(3 -3.61772e-16 0)
(3 6.73051e-16 0)
(3 1.88718e-15 0)
(3 2.35996e-15 0)
(3 2.18064e-15 0)
(3 2.10457e-15 0)
(3 1.35484e-15 0)
(3 8.7731e-16 0)
(3 5.26398e-16 0)
(3 4.32745e-16 0)
(3 1.38129e-15 0)
(3 1.63538e-15 0)
(3 1.05913e-15 0)
(3 5.65768e-16 0)
(3 8.98579e-18 0)
(3 7.46896e-16 0)
(3 2.08261e-15 0)
(3 3.24073e-15 0)
(3 3.84677e-15 0)
(3 3.96729e-15 0)
(3 4.43662e-15 0)
(3 4.62851e-15 0)
(3 5.2068e-15 0)
(3 4.83598e-15 0)
(3 3.88683e-15 0)
(3 2.47749e-15 0)
(3 1.3371e-15 0)
(3 -5.25029e-16 0)
(3 -1.40067e-15 0)
(3 -1.51049e-15 0)
(3 -1.13888e-15 0)
(3 -1.32669e-15 0)
(3 -2.41047e-15 0)
(3 -2.55945e-15 0)
(3 -2.2084e-15 0)
(3 -1.98118e-15 0)
(3 -3.02464e-15 0)
(3 -2.89905e-15 0)
(3 -2.44332e-15 0)
(3 -1.47805e-15 0)
(3 -1.77681e-15 0)
(3 -1.52839e-15 0)
(3 -9.66158e-16 0)
(3 -1.15777e-16 0)
(3 -2.79161e-16 0)
(3 6.84807e-16 0)
(3 1.74002e-15 0)
(3 3.03309e-15 0)
(3 -1.22892e-16 0)
(3 -1.50706e-16 0)
(3 -1.2823e-16 0)
(3 -2.23371e-16 0)
(3 1.76104e-17 0)
(3 1.96235e-16 0)
(3 3.79158e-16 0)
(3 6.73717e-16 0)
(3 4.54742e-16 0)
(3 3.59345e-16 0)
(3 2.77134e-16 0)
(3 -1.99752e-17 0)
(3 1.09394e-15 0)
(3 1.90309e-15 0)
(3 1.85681e-15 0)
(3 1.77526e-15 0)
(3 2.2592e-15 0)
(3 3.24164e-15 0)
(3 4.07705e-15 0)
(3 4.02207e-15 0)
(3 3.76689e-15 0)
(3 3.35079e-15 0)
(3 3.369e-15 0)
(3 3.25168e-15 0)
(3 1.94915e-15 0)
(3 1.57548e-15 0)
(3 5.92889e-16 0)
(3 5.33808e-17 0)
(3 -1.88028e-15 0)
(3 -1.95954e-15 0)
(3 -3.14416e-15 0)
(3 -3.94718e-15 0)
(3 -3.46148e-15 0)
(3 -2.80841e-15 0)
(3 -2.59682e-15 0)
(3 -1.85357e-15 0)
(3 -4.45016e-16 0)
(3 1.7919e-16 0)
(3 9.79518e-17 0)
(3 -2.85436e-16 0)
(3 -1.59047e-16 0)
(3 2.61492e-16 0)
(3 -1.94243e-17 0)
(3 -3.67128e-16 0)
(3 -1.98406e-15 0)
(3 -2.65416e-15 0)
(3 -2.85684e-15 0)
(3 -1.7591e-15 0)
(3 -1.5459e-15 0)
(3 -1.80167e-15 0)
(3 -1.15544e-15 0)
(3 5.53153e-16 0)
(3 1.98229e-15 0)
(3 2.04091e-15 0)
(3 2.86639e-15 0)
(3 2.95172e-15 0)
(3 1.68171e-15 0)
(3 3.44157e-17 0)
(3 -7.90917e-18 0)
(3 1.14736e-15 0)
(3 2.17634e-15 0)
(3 2.34916e-15 0)
(3 2.08556e-15 0)
(3 2.44349e-15 0)
(3 2.8984e-15 0)
(3 3.18738e-15 0)
(3 3.56893e-15 0)
(3 4.29465e-15 0)
(3 4.02343e-15 0)
(3 4.00619e-15 0)
(3 4.23061e-15 0)
(3 3.07007e-15 0)
(3 2.52024e-15 0)
(3 8.24697e-16 0)
(3 -5.02721e-16 0)
(3 -2.19771e-15 0)
(3 -3.4439e-15 0)
(3 -3.73529e-15 0)
(3 -3.29317e-15 0)
(3 -2.30899e-15 0)
(3 -2.38483e-15 0)
(3 -2.2392e-15 0)
(3 -2.58599e-15 0)
(3 -2.23151e-15 0)
(3 -2.41148e-15 0)
(3 -2.1523e-15 0)
(3 -2.26838e-15 0)
(3 -2.19001e-15 0)
(3 -1.82088e-15 0)
(3 -6.58652e-16 0)
(3 -5.8598e-16 0)
(3 -3.23398e-17 0)
(3 2.85354e-16 0)
(3 4.7729e-16 0)
(3 1.03271e-17 0)
(3 3.6647e-16 0)
(3 1.51026e-16 0)
(3 2.42061e-16 0)
(3 1.09633e-16 0)
(3 -2.76854e-16 0)
(3 -1.64175e-16 0)
(3 -4.56567e-16 0)
(3 -3.63983e-16 0)
(3 -4.54386e-16 0)
(3 -7.57022e-16 0)
(3 -3.45862e-16 0)
(3 2.41247e-16 0)
(3 4.67559e-16 0)
(3 8.00911e-16 0)
(3 8.31085e-16 0)
(3 2.43955e-16 0)
(3 4.77103e-16 0)
(3 5.57895e-16 0)
(3 1.70111e-15 0)
(3 1.80335e-15 0)
(3 1.70335e-15 0)
(3 2.50721e-15 0)
(3 3.40598e-15 0)
(3 3.61353e-15 0)
(3 3.02026e-15 0)
(3 4.6409e-16 0)
(3 -5.24884e-16 0)
(3 -3.6967e-16 0)
(3 -9.3461e-18 0)
(3 -8.73749e-16 0)
(3 -1.49003e-15 0)
(3 -2.19373e-15 0)
(3 -1.727e-15 0)
(3 -1.53041e-15 0)
(3 -1.53026e-15 0)
(3 -1.48952e-15 0)
(3 -1.22785e-15 0)
(3 -3.77074e-16 0)
(3 -2.1729e-16 0)
(3 -3.76668e-16 0)
(3 -2.9934e-16 0)
(3 -3.32092e-16 0)
(3 -1.29839e-16 0)
(3 8.73019e-17 0)
(3 -5.50857e-16 0)
(3 -2.28435e-15 0)
(3 -3.91112e-15 0)
(3 -3.73474e-15 0)
(3 -3.28844e-15 0)
(3 -3.36011e-15 0)
(3 -1.39635e-15 0)
(3 5.60495e-16 0)
(3 1.59282e-15 0)
(3 1.67818e-15 0)
(3 1.43886e-15 0)
(3 1.42535e-15 0)
(3 1.59232e-15 0)
(3 1.98069e-15 0)
(3 1.37685e-15 0)
(3 2.8765e-17 0)
(3 6.34174e-16 0)
(3 1.42176e-15 0)
(3 2.76288e-15 0)
(3 3.32272e-15 0)
(3 3.07632e-15 0)
(3 2.97656e-15 0)
(3 3.17499e-15 0)
(3 4.28003e-15 0)
(3 3.87246e-15 0)
(3 3.78291e-15 0)
(3 3.41933e-15 0)
(3 2.62618e-15 0)
(3 1.59103e-15 0)
(3 5.19856e-16 0)
(3 4.02377e-16 0)
(3 -7.73094e-16 0)
(3 -2.19011e-15 0)
(3 -2.91333e-15 0)
(3 -3.46475e-15 0)
(3 -4.09437e-15 0)
(3 -4.21386e-15 0)
(3 -2.578e-15 0)
(3 -2.24479e-15 0)
(3 -1.77736e-15 0)
(3 -1.89079e-15 0)
(3 -9.00813e-16 0)
(3 -5.5002e-16 0)
(3 -1.90763e-15 0)
(3 -1.8366e-15 0)
(3 -7.55619e-16 0)
(3 -8.21075e-16 0)
(3 -1.43358e-15 0)
(3 -1.92169e-15 0)
(3 -1.31934e-15 0)
(3 -1.72638e-16 0)
(3 6.85516e-16 0)
(3 9.98205e-16 0)
(3 -2.18391e-17 0)
(3 1.37738e-16 0)
(3 -2.61713e-16 0)
(3 -7.14682e-16 0)
(3 -9.61557e-16 0)
(3 -5.30919e-16 0)
(3 -4.5214e-16 0)
(3 -4.48261e-16 0)
(3 -9.98057e-17 0)
(3 3.22052e-19 0)
(3 5.50741e-16 0)
(3 6.85464e-16 0)
(3 6.32527e-16 0)
(3 5.65444e-16 0)
(3 3.2608e-16 0)
(3 -4.19293e-17 0)
(3 2.48812e-17 0)
(3 1.78955e-16 0)
(3 8.6897e-17 0)
(3 5.70943e-16 0)
(3 6.01081e-16 0)
(3 6.34181e-16 0)
(3 9.61975e-16 0)
(3 6.04614e-16 0)
(3 4.1246e-17 0)
(3 4.42078e-16 0)
(3 9.91238e-16 0)
(3 9.77763e-16 0)
(3 3.43072e-16 0)
(3 1.54334e-16 0)
(3 8.18463e-16 0)
(3 6.07701e-16 0)
(3 3.19732e-16 0)
(3 -2.35332e-16 0)
(3 -3.24288e-16 0)
(3 -3.86741e-16 0)
(3 -4.27025e-16 0)
(3 -9.56683e-16 0)
(3 -8.19752e-16 0)
(3 -5.2362e-16 0)
(3 4.28828e-17 0)
(3 3.33949e-17 0)
(3 -5.03437e-16 0)
(3 -9.25442e-16 0)
(3 -1.28061e-15 0)
(3 -2.56984e-15 0)
(3 -3.13e-15 0)
(3 -3.52738e-15 0)
(3 -3.9959e-15 0)
(3 -3.07082e-15 0)
(3 -1.58042e-15 0)
(3 -1.11451e-15 0)
(3 -1.18502e-15 0)
(3 -4.68707e-16 0)
(3 -7.79936e-16 0)
(3 -5.64703e-16 0)
(3 6.05482e-16 0)
(3 2.11487e-15 0)
(3 2.45446e-15 0)
(3 1.6615e-15 0)
(3 1.61434e-15 0)
(3 2.0323e-15 0)
(3 3.16825e-15 0)
(3 3.46544e-15 0)
(3 3.34551e-15 0)
(3 3.4743e-15 0)
(3 4.27003e-15 0)
(3 3.84769e-15 0)
(3 3.69554e-15 0)
(3 3.54417e-15 0)
(3 1.57275e-15 0)
(3 8.03997e-16 0)
(3 3.37076e-16 0)
(3 -9.04369e-16 0)
(3 -2.41098e-15 0)
(3 -2.7255e-15 0)
(3 -1.3143e-15 0)
(3 -1.35028e-15 0)
(3 -1.53063e-15 0)
(3 -2.30954e-15 0)
(3 -2.34588e-15 0)
(3 -2.23219e-15 0)
(3 -2.60518e-15 0)
(3 -2.37608e-15 0)
(3 -2.03825e-15 0)
(3 -1.4398e-15 0)
(3 -1.2272e-15 0)
(3 -6.5438e-16 0)
(3 4.64525e-18 0)
(3 -3.5192e-16 0)
(3 -5.18846e-16 0)
(3 8.75952e-17 0)
(3 6.84793e-16 0)
(3 8.67803e-16 0)
(3 1.6075e-15 0)
(3 1.81506e-15 0)
(3 -2.85735e-17 0)
(3 -9.27039e-17 0)
(3 -2.78023e-17 0)
(3 -4.81878e-17 0)
(3 -1.32289e-16 0)
(3 1.13363e-16 0)
(3 6.12732e-17 0)
(3 1.31205e-16 0)
(3 5.15944e-16 0)
(3 5.47564e-16 0)
(3 4.66642e-16 0)
(3 3.03211e-16 0)
(3 2.67624e-17 0)
(3 7.83105e-17 0)
(3 2.50298e-16 0)
(3 5.98262e-16 0)
(3 7.90816e-16 0)
(3 -3.04182e-17 0)
(3 -6.83632e-16 0)
(3 -4.13179e-16 0)
(3 -1.61086e-16 0)
(3 -6.83072e-16 0)
(3 -7.65182e-16 0)
(3 -5.24872e-16 0)
(3 -4.50032e-17 0)
(3 4.1353e-16 0)
(3 1.03271e-15 0)
(3 1.07701e-15 0)
(3 8.22672e-16 0)
(3 8.60309e-16 0)
(3 9.53302e-16 0)
(3 1.63733e-16 0)
(3 3.6341e-16 0)
(3 -7.33003e-17 0)
(3 -2.16062e-16 0)
(3 -9.17553e-16 0)
(3 -1.87629e-15 0)
(3 -1.58902e-15 0)
(3 -7.02636e-16 0)
(3 -7.03817e-16 0)
(3 -9.99657e-16 0)
(3 -1.55566e-15 0)
(3 -2.20994e-15 0)
(3 -1.77374e-15 0)
(3 -1.52088e-15 0)
(3 -1.80509e-15 0)
(3 -2.34919e-15 0)
(3 -3.39004e-15 0)
(3 -3.89969e-15 0)
(3 -3.5961e-15 0)
(3 -2.90952e-15 0)
(3 -1.98289e-15 0)
(3 -1.23791e-15 0)
(3 -1.68097e-15 0)
(3 -1.8672e-15 0)
(3 -1.94377e-15 0)
(3 -2.03668e-15 0)
(3 -4.35733e-16 0)
(3 1.24043e-15 0)
(3 1.43351e-15 0)
(3 1.72791e-15 0)
(3 1.90927e-15 0)
(3 2.3176e-15 0)
(3 2.3721e-15 0)
(3 2.51528e-15 0)
(3 2.08701e-15 0)
(3 1.37355e-15 0)
(3 2.27591e-15 0)
(3 1.07804e-15 0)
(3 3.80341e-16 0)
(3 -1.34562e-16 0)
(3 -5.24974e-16 0)
(3 -5.92019e-16 0)
(3 -1.61676e-15 0)
(3 -1.89953e-15 0)
(3 -1.46894e-15 0)
(3 -1.36224e-15 0)
(3 -1.71048e-15 0)
(3 -1.35478e-15 0)
(3 -1.07652e-15 0)
(3 -1.51939e-15 0)
(3 -1.91014e-15 0)
(3 -1.86902e-15 0)
(3 -1.91391e-15 0)
(3 -2.55434e-15 0)
(3 -2.35698e-15 0)
(3 -8.03889e-16 0)
(3 -6.08836e-16 0)
(3 -2.7268e-16 0)
(3 9.0666e-16 0)
(3 1.48194e-15 0)
(3 2.76895e-15 0)
(3 3.08797e-15 0)
(3 2.12362e-15 0)
(3 6.41561e-16 0)
(3 8.25305e-17 0)
(3 8.72683e-17 0)
(3 1.78853e-16 0)
(3 6.11364e-16 0)
(3 6.78372e-16 0)
(3 5.87163e-16 0)
(3 5.33048e-16 0)
(3 7.1078e-16 0)
(3 5.94168e-16 0)
(3 5.11719e-16 0)
(3 3.68807e-16 0)
(3 -3.87872e-17 0)
(3 -5.37699e-16 0)
(3 -6.73663e-16 0)
(3 -1.27138e-15 0)
(3 -9.09342e-16 0)
(3 -1.26743e-16 0)
(3 -1.07595e-16 0)
(3 4.68767e-17 0)
(3 8.69792e-18 0)
(3 -4.79016e-16 0)
(3 -8.34381e-16 0)
(3 -2.28791e-15 0)
(3 -3.32286e-15 0)
(3 -3.06606e-15 0)
(3 -2.61987e-15 0)
(3 -2.05491e-15 0)
(3 -7.27377e-16 0)
(3 1.2613e-15 0)
(3 2.14221e-15 0)
(3 1.67498e-15 0)
(3 1.53796e-15 0)
(3 1.17672e-15 0)
(3 7.68988e-16 0)
(3 8.61946e-16 0)
(3 1.19331e-15 0)
(3 3.73665e-16 0)
(3 -7.60105e-16 0)
(3 -5.85922e-16 0)
(3 -3.86453e-16 0)
(3 -6.89781e-16 0)
(3 -1.31991e-15 0)
(3 -1.53032e-15 0)
(3 -9.72932e-17 0)
(3 3.29081e-16 0)
(3 3.88874e-16 0)
(3 -2.45745e-17 0)
(3 -5.19011e-16 0)
(3 -2.15865e-15 0)
(3 -3.27082e-15 0)
(3 -3.49621e-15 0)
(3 -3.52071e-15 0)
(3 -3.33586e-15 0)
(3 -3.20158e-15 0)
(3 -3.31734e-15 0)
(3 -3.15025e-15 0)
(3 -3.9122e-15 0)
(3 -3.32703e-15 0)
(3 4.21093e-16 0)
(3 1.49425e-15 0)
(3 9.58343e-16 0)
(3 -1.60258e-16 0)
(3 -2.06982e-16 0)
(3 7.47728e-17 0)
(3 1.26327e-15 0)
(3 1.82228e-15 0)
(3 2.47532e-15 0)
(3 2.44055e-15 0)
(3 1.91355e-15 0)
(3 4.22185e-16 0)
(3 -3.90804e-16 0)
(3 -4.49769e-16 0)
(3 -3.45194e-16 0)
(3 -7.1375e-16 0)
(3 5.96891e-17 0)
(3 5.92944e-16 0)
(3 3.7849e-16 0)
(3 -7.41212e-16 0)
(3 -1.24761e-15 0)
(3 -1.11376e-15 0)
(3 -7.06308e-16 0)
(3 -1.20126e-16 0)
(3 2.59913e-16 0)
(3 7.58514e-16 0)
(3 4.3864e-16 0)
(3 1.45491e-16 0)
(3 -6.35939e-16 0)
(3 -2.72021e-16 0)
(3 1.66472e-16 0)
(3 6.07627e-16 0)
(3 1.31161e-15 0)
(3 2.38272e-15 0)
(3 2.24313e-15 0)
(3 1.6801e-15 0)
(3 9.04507e-16 0)
(3 -1.6411e-16 0)
(3 -1.66748e-15 0)
(3 2.29835e-16 0)
(3 4.60339e-16 0)
(3 6.27321e-16 0)
(3 9.88669e-16 0)
(3 1.05327e-15 0)
(3 6.06985e-16 0)
(3 6.03108e-16 0)
(3 3.51301e-16 0)
(3 -7.93882e-17 0)
(3 -1.25097e-16 0)
(3 -2.12572e-16 0)
(3 -3.65333e-16 0)
(3 -3.78644e-16 0)
(3 1.26516e-16 0)
(3 5.53495e-16 0)
(3 -4.88951e-17 0)
(3 -1.41556e-16 0)
(3 5.85603e-16 0)
(3 1.27507e-15 0)
(3 2.45089e-16 0)
(3 -9.05008e-16 0)
(3 -2.27477e-15 0)
(3 -3.37387e-15 0)
(3 -3.1177e-15 0)
(3 -1.60517e-15 0)
(3 -1.30966e-15 0)
(3 -2.49294e-16 0)
(3 2.83721e-16 0)
(3 1.73481e-15 0)
(3 2.24615e-15 0)
(3 2.68154e-15 0)
(3 1.75857e-15 0)
(3 8.50155e-16 0)
(3 4.62992e-16 0)
(3 3.35416e-16 0)
(3 5.6248e-16 0)
(3 4.96652e-16 0)
(3 1.97932e-16 0)
(3 -4.39727e-16 0)
(3 -1.00546e-15 0)
(3 -1.52668e-15 0)
(3 -1.42018e-15 0)
(3 -3.02653e-16 0)
(3 2.94328e-16 0)
(3 5.63965e-16 0)
(3 9.79409e-16 0)
(3 -4.3828e-16 0)
(3 -1.49102e-15 0)
(3 -1.95668e-15 0)
(3 -2.45271e-15 0)
(3 -3.12129e-15 0)
(3 -3.32277e-15 0)
(3 -3.42669e-15 0)
(3 -3.20478e-15 0)
(3 -2.94885e-15 0)
(3 -2.7295e-15 0)
(3 -1.18955e-15 0)
(3 2.11074e-16 0)
(3 9.25298e-16 0)
(3 1.31104e-15 0)
(3 1.16686e-15 0)
(3 6.19735e-16 0)
(3 2.4627e-16 0)
(3 3.39059e-16 0)
(3 5.83985e-16 0)
(3 1.63808e-15 0)
(3 1.93577e-15 0)
(3 7.15983e-16 0)
(3 -3.94465e-16 0)
(3 -1.12353e-15 0)
(3 -8.69451e-16 0)
(3 -1.05057e-15 0)
(3 -9.23765e-16 0)
(3 -8.77177e-17 0)
(3 6.28285e-16 0)
(3 9.32361e-16 0)
(3 1.32199e-15 0)
(3 1.41427e-15 0)
(3 1.43974e-15 0)
(3 7.00358e-16 0)
(3 2.12509e-16 0)
(3 3.98929e-16 0)
(3 6.17019e-16 0)
(3 3.14554e-16 0)
(3 7.08329e-16 0)
(3 9.23016e-16 0)
(3 -2.30677e-16 0)
(3 -1.40011e-15 0)
(3 -8.99208e-16 0)
(3 1.02659e-15 0)
(3 2.36319e-15 0)
(3 3.11186e-15 0)
(3 3.1e-15 0)
(3 2.27721e-15 0)
(3 2.0705e-15 0)
(3 6.39469e-16 0)
(3 -1.17097e-16 0)
(3 -1.07025e-16 0)
(3 -1.72143e-16 0)
(3 4.45405e-17 0)
(3 2.61686e-16 0)
(3 2.90497e-16 0)
(3 3.15409e-16 0)
(3 1.23276e-16 0)
(3 -2.28428e-16 0)
(3 -1.34378e-15 0)
(3 -1.70599e-15 0)
(3 -1.68094e-15 0)
(3 -5.13856e-16 0)
(3 2.63328e-16 0)
(3 6.50152e-17 0)
(3 -1.50575e-15 0)
(3 -8.04108e-16 0)
(3 -2.83056e-16 0)
(3 -4.14153e-17 0)
(3 -3.26706e-16 0)
(3 -8.47587e-16 0)
(3 -5.90547e-16 0)
(3 -1.30888e-16 0)
(3 -8.66618e-18 0)
(3 8.09634e-16 0)
(3 9.10528e-16 0)
(3 1.13621e-15 0)
(3 6.73161e-16 0)
(3 3.22133e-16 0)
(3 5.34624e-17 0)
(3 1.93112e-16 0)
(3 8.48751e-17 0)
(3 3.45492e-16 0)
(3 -4.52772e-16 0)
(3 -5.95791e-16 0)
(3 -2.75161e-16 0)
(3 5.40528e-16 0)
(3 -8.12618e-17 0)
(3 -4.75033e-16 0)
(3 -5.7893e-16 0)
(3 -5.68644e-16 0)
(3 3.75364e-16 0)
(3 5.70113e-16 0)
(3 5.77239e-16 0)
(3 -4.69053e-16 0)
(3 -2.44715e-16 0)
(3 -2.04999e-16 0)
(3 -4.75025e-18 0)
(3 -1.65131e-16 0)
(3 -5.36437e-16 0)
(3 -1.23554e-15 0)
(3 -1.18713e-15 0)
(3 -9.42469e-16 0)
(3 -1.88563e-15 0)
(3 -2.4424e-15 0)
(3 -1.85317e-15 0)
(3 -1.16606e-15 0)
(3 -6.82931e-16 0)
(3 -8.98823e-16 0)
(3 -2.62142e-16 0)
(3 6.58004e-16 0)
(3 8.29331e-17 0)
(3 8.1723e-16 0)
(3 1.32231e-15 0)
(3 1.64774e-15 0)
(3 1.27443e-15 0)
(3 7.8937e-16 0)
(3 -5.32613e-16 0)
(3 -6.28298e-16 0)
(3 -9.18756e-16 0)
(3 -1.64847e-15 0)
(3 -1.45262e-15 0)
(3 2.57436e-16 0)
(3 2.23775e-16 0)
(3 4.76338e-16 0)
(3 2.09563e-15 0)
(3 3.30004e-15 0)
(3 3.31905e-15 0)
(3 2.88519e-15 0)
(3 2.59422e-15 0)
(3 2.63705e-15 0)
(3 1.07441e-15 0)
(3 6.20245e-16 0)
(3 6.00569e-16 0)
(3 1.16057e-15 0)
(3 1.11289e-15 0)
(3 9.8926e-16 0)
(3 9.3943e-16 0)
(3 2.07925e-16 0)
(3 2.10408e-16 0)
(3 1.84072e-16 0)
(3 1.51881e-15 0)
(3 4.03803e-15 0)
(3 3.63998e-15 0)
(3 3.80803e-15 0)
(3 3.38311e-15 0)
(3 -1.59058e-16 0)
(3 -5.72178e-16 0)
(3 -5.54517e-16 0)
(3 -9.41753e-16 0)
(3 -9.30642e-16 0)
(3 -4.58766e-16 0)
(3 -5.40257e-16 0)
(3 -6.54663e-16 0)
(3 -3.88968e-16 0)
(3 -6.4839e-16 0)
(3 -9.10708e-16 0)
(3 -7.44264e-16 0)
(3 -2.99505e-16 0)
(3 -9.44555e-16 0)
(3 -1.44117e-15 0)
(3 -2.49798e-15 0)
(3 -2.85659e-15 0)
(3 -2.45947e-15 0)
(3 -1.96054e-15 0)
(3 -1.45644e-15 0)
(3 -1.50559e-15 0)
(3 -9.84414e-16 0)
(3 4.19267e-17 0)
(3 8.44798e-16 0)
(3 1.08209e-15 0)
(3 2.66907e-15 0)
(3 2.42513e-15 0)
(3 2.29262e-15 0)
(3 1.64795e-15 0)
(3 5.02733e-16 0)
(3 -7.1002e-16 0)
(3 -5.43613e-16 0)
(3 -4.1972e-16 0)
(3 -6.5576e-16 0)
(3 -4.0988e-16 0)
(3 -5.7736e-16 0)
(3 -2.29466e-16 0)
(3 -1.17114e-16 0)
(3 2.92754e-16 0)
(3 3.51248e-17 0)
(3 3.22525e-16 0)
(3 4.20152e-16 0)
(3 8.1428e-16 0)
(3 6.97752e-16 0)
(3 3.71398e-16 0)
(3 1.15608e-15 0)
(3 1.28725e-15 0)
(3 1.07389e-15 0)
(3 7.38989e-16 0)
(3 1.02634e-15 0)
(3 -8.87961e-17 0)
(3 -7.2576e-16 0)
(3 -1.14976e-15 0)
(3 -1.1646e-15 0)
(3 -1.30554e-15 0)
(3 -1.47085e-15 0)
(3 -1.59948e-15 0)
(3 -2.43364e-15 0)
(3 -2.66452e-15 0)
(3 -2.60039e-15 0)
(3 -1.85355e-15 0)
(3 -1.04742e-15 0)
(3 -8.89642e-17 0)
(3 7.95118e-16 0)
(3 1.35325e-15 0)
(3 3.06726e-16 0)
(3 -8.20022e-16 0)
(3 -1.2176e-15 0)
(3 -1.41527e-15 0)
(3 -1.7966e-15 0)
(3 -1.93227e-15 0)
(3 -7.78684e-16 0)
(3 -3.04528e-16 0)
(3 1.20127e-16 0)
(3 3.49364e-16 0)
(3 1.45783e-15 0)
(3 2.52232e-15 0)
(3 3.32649e-15 0)
(3 2.88e-15 0)
(3 3.45712e-15 0)
(3 3.23604e-15 0)
(3 2.69036e-15 0)
(3 1.99259e-15 0)
(3 1.75208e-15 0)
(3 2.00939e-15 0)
(3 1.5287e-15 0)
(3 2.22563e-15 0)
(3 2.06843e-15 0)
(3 1.00249e-15 0)
(3 -5.90309e-16 0)
(3 -1.70503e-15 0)
(3 -1.12174e-15 0)
(3 -6.2562e-16 0)
(3 1.47366e-15 0)
(3 1.67623e-15 0)
(3 1.4102e-15 0)
(3 3.9675e-17 0)
(3 -1.35934e-16 0)
(3 -1.49247e-16 0)
(3 -4.65455e-17 0)
(3 -3.43677e-16 0)
(3 -6.1963e-16 0)
(3 -7.96205e-16 0)
(3 -8.84565e-16 0)
(3 -6.66731e-16 0)
(3 2.83866e-17 0)
(3 6.21616e-17 0)
(3 6.47412e-16 0)
(3 5.2862e-16 0)
(3 6.01574e-16 0)
(3 -1.69862e-17 0)
(3 -6.38932e-16 0)
(3 -1.7409e-15 0)
(3 -2.83264e-15 0)
(3 -3.29803e-15 0)
(3 -1.86825e-15 0)
(3 -1.58829e-15 0)
(3 -1.59977e-15 0)
(3 -6.71314e-16 0)
(3 -3.93471e-16 0)
(3 5.38207e-16 0)
(3 1.91671e-15 0)
(3 2.09396e-15 0)
(3 1.28385e-15 0)
(3 5.99314e-16 0)
(3 1.77072e-16 0)
(3 3.85933e-16 0)
(3 5.67487e-16 0)
(3 2.07258e-16 0)
(3 4.13542e-17 0)
(3 -4.9304e-16 0)
(3 -4.90256e-16 0)
(3 -5.9073e-16 0)
(3 -7.30731e-16 0)
(3 -1.00574e-15 0)
(3 -1.30868e-15 0)
(3 -1.43392e-15 0)
(3 -2.00088e-15 0)
(3 -2.4609e-15 0)
(3 -1.36596e-15 0)
(3 -3.70702e-16 0)
(3 3.90925e-16 0)
(3 2.22501e-16 0)
(3 -2.20905e-16 0)
(3 1.95771e-16 0)
(3 6.21441e-16 0)
(3 6.20186e-16 0)
(3 -5.22776e-16 0)
(3 -1.28986e-15 0)
(3 -5.77106e-16 0)
(3 8.5739e-16 0)
(3 1.42893e-15 0)
(3 1.45067e-15 0)
(3 7.42311e-16 0)
(3 -4.91704e-16 0)
(3 -1.3661e-15 0)
(3 -1.40182e-15 0)
(3 -7.52212e-16 0)
(3 5.25768e-16 0)
(3 1.16513e-15 0)
(3 9.10916e-16 0)
(3 -4.80098e-16 0)
(3 -1.06392e-15 0)
(3 -8.28756e-16 0)
(3 -7.71607e-16 0)
(3 -9.72697e-16 0)
(3 -1.19101e-15 0)
(3 -1.71296e-15 0)
(3 -2.3852e-15 0)
(3 -1.00274e-15 0)
(3 -3.69134e-16 0)
(3 3.11164e-16 0)
(3 1.58723e-15 0)
(3 2.89636e-15 0)
(3 3.28067e-15 0)
(3 3.21383e-15 0)
(3 2.35937e-15 0)
(3 2.17578e-15 0)
(3 2.04284e-15 0)
(3 1.90786e-15 0)
(3 1.95952e-15 0)
(3 2.23076e-15 0)
(3 1.68053e-15 0)
(3 1.17016e-15 0)
(3 5.29312e-16 0)
(3 5.12319e-16 0)
(3 -8.24913e-17 0)
(3 -1.27248e-15 0)
(3 -1.80041e-15 0)
(3 -1.40314e-15 0)
(3 -3.51562e-16 0)
(3 3.1681e-16 0)
(3 -6.18306e-17 0)
(3 -3.09715e-16 0)
(3 -3.00406e-16 0)
(3 -8.54771e-17 0)
(3 -1.42063e-16 0)
(3 -4.89448e-16 0)
(3 -2.52036e-16 0)
(3 1.08725e-17 0)
(3 -2.44737e-16 0)
(3 -5.54227e-16 0)
(3 -3.53359e-16 0)
(3 -5.43059e-16 0)
(3 -1.02782e-15 0)
(3 -1.21952e-15 0)
(3 -1.46664e-15 0)
(3 -1.44269e-15 0)
(3 -1.46396e-15 0)
(3 -1.66866e-15 0)
(3 -2.20676e-15 0)
(3 -2.98418e-15 0)
(3 -2.65582e-15 0)
(3 -1.82874e-15 0)
(3 -9.05819e-16 0)
(3 -2.00519e-16 0)
(3 -1.48478e-16 0)
(3 5.92527e-16 0)
(3 8.641e-16 0)
(3 4.07991e-16 0)
(3 1.37796e-16 0)
(3 1.46036e-16 0)
(3 8.73532e-16 0)
(3 4.16162e-16 0)
(3 2.4453e-16 0)
(3 1.54345e-16 0)
(3 -3.32147e-16 0)
(3 -9.4204e-16 0)
(3 -1.27133e-15 0)
(3 -1.97033e-15 0)
(3 -2.87989e-15 0)
(3 -2.77046e-15 0)
(3 -2.59115e-15 0)
(3 -3.52111e-15 0)
(3 -2.88215e-15 0)
(3 -2.03779e-15 0)
(3 -1.04897e-15 0)
(3 -6.94116e-16 0)
(3 -4.93494e-16 0)
(3 2.80673e-16 0)
(3 1.14892e-15 0)
(3 1.1721e-15 0)
(3 9.54241e-16 0)
(3 -1.22784e-16 0)
(3 -1.99686e-16 0)
(3 7.89149e-16 0)
(3 2.36148e-15 0)
(3 2.37478e-15 0)
(3 2.23562e-15 0)
(3 1.88013e-15 0)