/*--------------------------------*- C++ -*----------------------------------*\
  =========                 |
  \\      /  F ield         | OpenFOAM: The Open Source CFD Toolbox
   \\    /   O peration     | Website:  https://openfoam.org
    \\  /    A nd           | Version:  7
     \\/     M anipulation  |
\*---------------------------------------------------------------------------*/
FoamFile
{
    version     2.0;
    format      ascii;
    class       volVectorField;
    location    "2";
    object      U;
}
// * * * * * * * * * * * * * * * * * * * * * * * * * * * * * * * * * * * * * //

dimensions      [0 1 -1 0 0 0 0];

internalField   nonuniform List<vector> 
73728
(
(3 -3.61475e-18 0)
(3 1.83882e-17 0)
(3 -5.18366e-17 0)
(3 -8.36602e-17 0)
(3 -5.85278e-17 0)
(3 -1.31229e-17 0)
(3 -4.92614e-17 0)
(3 4.38045e-16 0)
(3 8.48881e-16 0)
(3 1.0299e-15 0)
(3 8.16568e-16 0)
(3 5.27042e-17 0)
(3 -1.26265e-16 0)
(3 6.71083e-17 0)
(3 6.50393e-16 0)
(3 2.16211e-15 0)
(3 3.23968e-15 0)
(3 3.21632e-15 0)
(3 3.14991e-15 0)
(3 2.93132e-15 0)
(3 2.75574e-15 0)
(3 2.81435e-15 0)
(3 2.64451e-15 0)
(3 2.01024e-15 0)
(3 6.08135e-17 0)
(3 -4.27979e-16 0)
(3 -6.00765e-16 0)
(3 3.33326e-16 0)
(3 9.87266e-16 0)
(3 1.07535e-15 0)
(3 1.74965e-15 0)
(3 1.46742e-15 0)
(3 1.23351e-15 0)
(3 1.08141e-15 0)
(3 1.6658e-15 0)
(3 2.16283e-15 0)
(3 2.39654e-15 0)
(3 1.71831e-15 0)
(3 1.25257e-15 0)
(3 1.03876e-15 0)
(3 4.04215e-16 0)
(3 -3.68723e-16 0)
(3 -1.30176e-15 0)
(3 -9.52344e-16 0)
(3 -7.63404e-16 0)
(3 -5.70286e-16 0)
(3 -6.427e-16 0)
(3 -1.34987e-15 0)
(3 -5.17743e-16 0)
(3 -1.98624e-15 0)
(3 -2.93775e-15 0)
(3 -3.71769e-15 0)
(3 -3.5634e-15 0)
(3 -2.22604e-15 0)
(3 -1.98405e-15 0)
(3 -3.91174e-16 0)
(3 -1.11045e-17 0)
(3 8.3896e-17 0)
(3 1.83327e-16 0)
(3 -5.40072e-17 0)
(3 -5.40169e-16 0)
(3 -5.65466e-16 0)
(3 2.69445e-16 0)
(3 2.52203e-16 0)
(3 2.04907e-16 0)
(3 1.23007e-16 0)
(3 -8.84509e-17 0)
(3 5.89835e-17 0)
(3 -4.11881e-16 0)
(3 -2.47573e-16 0)
(3 -3.27389e-16 0)
(3 -3.69403e-16 0)
(3 -6.56942e-16 0)
(3 -1.14874e-15 0)
(3 -1.74599e-15 0)
(3 -1.89516e-15 0)
(3 -1.61043e-15 0)
(3 -1.10527e-15 0)
(3 -6.05214e-16 0)
(3 -3.09052e-16 0)
(3 -1.84425e-16 0)
(3 -3.33035e-16 0)
(3 -1.42596e-16 0)
(3 -2.8165e-16 0)
(3 4.21769e-16 0)
(3 9.49539e-16 0)
(3 7.80619e-16 0)
(3 4.41791e-16 0)
(3 -1.3013e-16 0)
(3 -9.84542e-16 0)
(3 -1.44232e-15 0)
(3 -1.61636e-15 0)
(3 -8.40745e-16 0)
(3 -3.96676e-16 0)
(3 -5.23995e-16 0)
(3 -4.74653e-17 0)
(3 -6.4384e-18 0)
(3 1.95839e-16 0)
(3 -2.24788e-16 0)
(3 -3.52093e-16 0)
(3 1.7638e-17 0)
(3 3.47351e-16 0)
(3 2.05869e-16 0)
(3 3.89422e-16 0)
(3 1.25859e-15 0)
(3 1.21238e-15 0)
(3 9.22282e-16 0)
(3 8.72167e-16 0)
(3 5.10168e-16 0)
(3 6.80965e-16 0)
(3 1.06721e-15 0)
(3 1.93162e-15 0)
(3 2.37311e-15 0)
(3 3.29525e-15 0)
(3 3.98562e-15 0)
(3 4.22388e-15 0)
(3 3.3074e-15 0)
(3 2.1479e-15 0)
(3 1.12754e-15 0)
(3 2.51486e-16 0)
(3 -9.28648e-16 0)
(3 -1.85316e-15 0)
(3 -2.54823e-15 0)
(3 -1.68331e-16 0)
(3 1.19715e-15 0)
(3 2.16523e-15 0)
(3 2.30613e-15 0)
(3 1.62767e-15 0)
(3 9.93105e-16 0)
(3 1.0061e-15 0)
(3 1.08081e-15 0)
(3 1.49204e-15 0)
(3 2.22744e-15 0)
(3 2.92335e-15 0)
(3 2.73074e-15 0)
(3 2.74103e-15 0)
(3 2.13244e-15 0)
(3 8.38876e-16 0)
(3 -1.63985e-16 0)
(3 -2.21423e-16 0)
(3 -2.77101e-16 0)
(3 1.21907e-16 0)
(3 1.95133e-16 0)
(3 -7.37953e-16 0)
(3 -7.64605e-16 0)
(3 -1.61335e-15 0)
(3 -2.51952e-15 0)
(3 -3.43972e-15 0)
(3 -3.4106e-15 0)
(3 -3.41058e-15 0)
(3 -3.05644e-15 0)
(3 -2.03228e-15 0)
(3 -1.71182e-15 0)
(3 -1.68588e-17 0)
(3 4.78974e-16 0)
(3 3.41833e-16 0)
(3 2.0149e-16 0)
(3 8.01814e-16 0)
(3 1.45141e-15 0)
(3 1.58444e-15 0)
(3 1.08449e-15 0)
(3 2.27138e-16 0)
(3 3.22426e-17 0)
(3 1.08717e-15 0)
(3 2.38562e-16 0)
(3 -2.95085e-16 0)
(3 -5.67201e-16 0)
(3 -9.00556e-16 0)
(3 -1.02055e-15 0)
(3 -9.58394e-16 0)
(3 -1.34348e-15 0)
(3 -1.48737e-15 0)
(3 -1.70498e-15 0)
(3 -2.04379e-15 0)
(3 -1.70224e-15 0)
(3 4.62562e-16 0)
(3 -3.27942e-16 0)
(3 -1.68831e-15 0)
(3 -2.48404e-15 0)
(3 -1.1931e-15 0)
(3 1.22187e-16 0)
(3 8.05862e-16 0)
(3 6.30186e-17 0)
(3 -3.61929e-16 0)
(3 -7.40731e-16 0)
(3 -2.52941e-15 0)
(3 -3.47207e-15 0)
(3 -4.05014e-15 0)
(3 -2.18801e-15 0)
(3 -7.23598e-16 0)
(3 -7.29127e-16 0)
(3 -3.25438e-16 0)
(3 -1.22355e-17 0)
(3 3.11528e-18 0)
(3 -3.72191e-17 0)
(3 -3.66908e-16 0)
(3 -3.41221e-16 0)
(3 1.6228e-17 0)
(3 6.18827e-16 0)
(3 4.10024e-16 0)
(3 3.16154e-17 0)
(3 8.07727e-17 0)
(3 5.98789e-17 0)
(3 5.77479e-16 0)
(3 4.10548e-16 0)
(3 -8.71481e-17 0)
(3 -3.48791e-16 0)
(3 -6.47642e-16 0)
(3 -6.75977e-16 0)
(3 4.79674e-16 0)
(3 9.12786e-16 0)
(3 6.4314e-16 0)
(3 2.61643e-16 0)
(3 -3.57335e-16 0)
(3 -3.46514e-16 0)
(3 -2.93775e-16 0)
(3 -2.65174e-16 0)
(3 -4.3033e-16 0)
(3 -5.60072e-17 0)
(3 7.22544e-16 0)
(3 1.02384e-15 0)
(3 2.14869e-15 0)
(3 1.13559e-15 0)
(3 7.65683e-16 0)
(3 2.39683e-16 0)
(3 -3.05958e-17 0)
(3 -4.2091e-16 0)
(3 -3.7921e-16 0)
(3 -8.71537e-17 0)
(3 9.84799e-17 0)
(3 2.36456e-16 0)
(3 6.17199e-16 0)
(3 9.31268e-16 0)
(3 1.0724e-15 0)
(3 1.42371e-15 0)
(3 9.70122e-16 0)
(3 6.16861e-16 0)
(3 3.78684e-16 0)
(3 4.06759e-16 0)
(3 -3.87565e-16 0)
(3 -1.25926e-15 0)
(3 -9.65261e-16 0)
(3 -1.11348e-15 0)
(3 -1.64787e-15 0)
(3 -1.84785e-15 0)
(3 -1.85443e-15 0)
(3 -2.15711e-15 0)
(3 -2.9667e-15 0)
(3 -3.61229e-15 0)
(3 -1.33219e-15 0)
(3 -8.59493e-16 0)
(3 -9.1209e-16 0)
(3 -5.28152e-16 0)
(3 8.31195e-16 0)
(3 1.01509e-15 0)
(3 1.46997e-15 0)
(3 1.91272e-15 0)
(3 1.53243e-15 0)
(3 1.28986e-15 0)
(3 1.25196e-15 0)
(3 5.99253e-16 0)
(3 -3.89949e-16 0)
(3 -1.31415e-15 0)
(3 -1.28139e-15 0)
(3 -5.38478e-16 0)
(3 -2.65869e-17 0)
(3 6.24053e-16 0)
(3 4.16349e-16 0)
(3 -1.73195e-16 0)
(3 -2.22709e-15 0)
(3 -2.57384e-15 0)
(3 -1.94467e-15 0)
(3 -2.35034e-15 0)
(3 -2.69955e-15 0)
(3 -2.97007e-15 0)
(3 -2.88101e-15 0)
(3 -2.55638e-15 0)
(3 -2.05128e-15 0)
(3 -1.34206e-15 0)
(3 -6.8144e-16 0)
(3 3.61012e-16 0)
(3 -1.58741e-15 0)
(3 -3.1724e-15 0)
(3 -3.71552e-15 0)
(3 -2.65552e-15 0)
(3 -5.97947e-16 0)
(3 -7.23522e-17 0)
(3 -1.17227e-15 0)
(3 1.22363e-16 0)
(3 5.53805e-17 0)
(3 2.27721e-16 0)
(3 3.5064e-16 0)
(3 1.00284e-16 0)
(3 -1.66577e-16 0)
(3 8.77211e-17 0)
(3 5.33231e-16 0)
(3 2.98063e-16 0)
(3 2.87621e-16 0)
(3 4.28517e-16 0)
(3 -1.25051e-16 0)
(3 -7.22621e-16 0)
(3 -6.76366e-16 0)
(3 -4.2838e-16 0)
(3 -1.63889e-16 0)
(3 1.64366e-17 0)
(3 6.77695e-17 0)
(3 1.85351e-16 0)
(3 9.85959e-17 0)
(3 -7.42391e-16 0)
(3 -9.99203e-16 0)
(3 -7.70195e-16 0)
(3 -5.59542e-16 0)
(3 2.06468e-16 0)
(3 1.24593e-15 0)
(3 2.35263e-15 0)
(3 2.67486e-15 0)
(3 1.78726e-15 0)
(3 6.11424e-16 0)
(3 5.56583e-16 0)
(3 5.2524e-16 0)
(3 2.51787e-16 0)
(3 -3.63701e-16 0)
(3 -2.33992e-16 0)
(3 2.33497e-16 0)
(3 1.63134e-16 0)
(3 -3.53226e-16 0)
(3 -7.83122e-16 0)
(3 -1.3293e-15 0)
(3 -1.38988e-16 0)
(3 1.00971e-15 0)
(3 2.2253e-15 0)
(3 1.49751e-15 0)
(3 1.18829e-15 0)
(3 8.95046e-16 0)
(3 -4.54588e-16 0)
(3 -9.41216e-16 0)
(3 -1.17319e-15 0)
(3 -1.1331e-15 0)
(3 -8.63144e-16 0)
(3 -6.84495e-16 0)
(3 -1.22807e-15 0)
(3 -1.89247e-15 0)
(3 -1.65169e-15 0)
(3 -6.36972e-16 0)
(3 1.12668e-16 0)
(3 -8.78207e-17 0)
(3 -3.38004e-16 0)
(3 -1.87795e-16 0)
(3 1.85075e-16 0)
(3 -8.2698e-17 0)
(3 1.41209e-17 0)
(3 -6.3151e-17 0)
(3 3.69056e-16 0)
(3 8.10188e-16 0)
(3 1.01853e-15 0)
(3 7.04007e-17 0)
(3 -4.57336e-17 0)
(3 -3.53223e-16 0)
(3 -6.7408e-16 0)
(3 -4.67253e-16 0)
(3 -3.07051e-16 0)
(3 8.8291e-16 0)
(3 2.22448e-15 0)
(3 2.00591e-15 0)
(3 6.677e-16 0)
(3 -2.11889e-15 0)
(3 -4.55274e-15 0)
(3 -6.935e-15 0)
(3 -5.745e-15 0)
(3 -3.13118e-15 0)
(3 -2.06563e-15 0)
(3 -2.56932e-15 0)
(3 -3.88134e-15 0)
(3 -4.13084e-15 0)
(3 -3.14749e-15 0)
(3 -1.71705e-15 0)
(3 -2.31439e-16 0)
(3 -8.5354e-16 0)
(3 -1.89415e-15 0)
(3 -2.49941e-15 0)
(3 -1.69441e-15 0)
(3 -5.40704e-16 0)
(3 -5.93729e-16 0)
(3 -1.36986e-15 0)
(3 -6.44975e-17 0)
(3 3.72814e-16 0)
(3 2.76306e-16 0)
(3 8.77027e-16 0)
(3 9.28346e-16 0)
(3 6.43241e-16 0)
(3 -4.61256e-16 0)
(3 -9.9943e-18 0)
(3 2.45621e-16 0)
(3 3.55742e-16 0)
(3 7.92439e-17 0)
(3 -6.76466e-16 0)
(3 -7.00178e-16 0)
(3 -2.93517e-16 0)
(3 1.51953e-16 0)
(3 4.32016e-16 0)
(3 1.80103e-17 0)
(3 -6.20917e-16 0)
(3 -6.33174e-16 0)
(3 -3.99114e-16 0)
(3 -2.79088e-16 0)
(3 -7.25535e-16 0)
(3 -1.45905e-15 0)
(3 -1.6629e-15 0)
(3 -1.24575e-15 0)
(3 -7.92488e-16 0)
(3 2.06616e-16 0)
(3 -4.12183e-18 0)
(3 -3.99494e-16 0)
(3 -5.63921e-16 0)
(3 -2.32556e-16 0)
(3 -4.13089e-16 0)
(3 -3.30826e-16 0)
(3 -3.40101e-17 0)
(3 8.22715e-16 0)
(3 1.13763e-15 0)
(3 1.25242e-16 0)
(3 6.20787e-16 0)
(3 4.43566e-16 0)
(3 8.24458e-16 0)
(3 1.85371e-15 0)
(3 2.80537e-15 0)
(3 3.10689e-15 0)
(3 8.46476e-16 0)
(3 3.07595e-16 0)
(3 -4.90808e-16 0)
(3 -1.16535e-15 0)
(3 -1.20147e-15 0)
(3 -1.2157e-15 0)
(3 -2.37207e-15 0)
(3 -2.27427e-15 0)
(3 -1.57724e-15 0)
(3 -8.90256e-16 0)
(3 -9.48252e-16 0)
(3 -3.53169e-16 0)
(3 8.78579e-16 0)
(3 1.55923e-15 0)
(3 1.22931e-15 0)
(3 -9.25991e-17 0)
(3 9.10383e-16 0)
(3 6.41911e-16 0)
(3 -6.07667e-16 0)
(3 -9.53162e-16 0)
(3 -1.26382e-15 0)
(3 -1.65427e-15 0)
(3 -1.29899e-16 0)
(3 7.93076e-16 0)
(3 3.5145e-16 0)
(3 1.45849e-16 0)
(3 5.50799e-16 0)
(3 6.67832e-16 0)
(3 6.13393e-16 0)
(3 1.87602e-16 0)
(3 -2.33968e-16 0)
(3 -4.94495e-16 0)
(3 -1.03106e-15 0)
(3 1.26902e-16 0)
(3 -8.86569e-16 0)
(3 -2.15566e-15 0)
(3 -4.26523e-15 0)
(3 -5.04204e-15 0)
(3 -4.7679e-15 0)
(3 -3.8596e-15 0)
(3 -3.62153e-15 0)
(3 -3.88795e-15 0)
(3 -3.08472e-15 0)
(3 -2.25082e-15 0)
(3 -2.74712e-15 0)
(3 -2.77234e-15 0)
(3 -2.30805e-15 0)
(3 -2.22801e-15 0)
(3 -2.39248e-15 0)
(3 -2.15179e-15 0)
(3 -1.6991e-15 0)
(3 -2.66078e-15 0)
(3 -2.45304e-15 0)
(3 3.46749e-17 0)
(3 -4.12479e-18 0)
(3 -1.05772e-16 0)
(3 8.72712e-17 0)
(3 -2.35835e-17 0)
(3 -5.92547e-17 0)
(3 -3.2781e-16 0)
(3 -4.703e-16 0)
(3 -4.13682e-16 0)
(3 -1.77495e-16 0)
(3 -8.10385e-16 0)
(3 -1.29189e-15 0)
(3 -1.47508e-15 0)
(3 -1.4997e-15 0)
(3 -1.09365e-15 0)
(3 -8.4484e-16 0)
(3 -4.11987e-16 0)
(3 -1.2677e-15 0)
(3 -2.52404e-15 0)
(3 -1.95199e-15 0)
(3 -1.38475e-15 0)
(3 -1.52559e-15 0)
(3 -1.22162e-15 0)
(3 -2.26369e-15 0)
(3 -2.45866e-15 0)
(3 -1.95124e-15 0)
(3 -1.45699e-15 0)
(3 -1.10497e-15 0)
(3 -6.21847e-16 0)
(3 -4.1998e-16 0)
(3 -5.16869e-17 0)
(3 -7.76858e-16 0)
(3 -3.55984e-16 0)
(3 2.03408e-16 0)
(3 2.21889e-16 0)
(3 -1.34453e-16 0)
(3 -4.79386e-16 0)
(3 -1.0625e-16 0)
(3 9.98964e-16 0)
(3 2.48822e-15 0)
(3 2.89403e-15 0)
(3 2.26778e-15 0)
(3 4.07965e-16 0)
(3 -4.30363e-16 0)
(3 -9.43174e-16 0)
(3 -8.49082e-16 0)
(3 -2.38212e-16 0)
(3 -1.26624e-15 0)
(3 -2.37551e-15 0)
(3 -2.95338e-15 0)
(3 -2.95356e-15 0)
(3 -2.90491e-15 0)
(3 -1.28344e-15 0)
(3 -2.46843e-16 0)
(3 8.7976e-16 0)
(3 1.78212e-15 0)
(3 1.78111e-15 0)
(3 1.48547e-15 0)
(3 4.42795e-16 0)
(3 5.27916e-16 0)
(3 6.88618e-16 0)
(3 2.68391e-16 0)
(3 -3.50844e-16 0)
(3 -6.26018e-16 0)
(3 -9.62523e-16 0)
(3 -9.74839e-16 0)
(3 -1.48228e-15 0)
(3 -1.89446e-15 0)
(3 -2.19575e-15 0)
(3 -2.08015e-15 0)
(3 -1.9256e-15 0)
(3 -1.59294e-15 0)
(3 -1.58065e-15 0)
(3 -3.10946e-15 0)
(3 -4.67979e-15 0)
(3 -5.22597e-15 0)
(3 -5.247e-15 0)
(3 -3.46906e-15 0)
(3 -3.99867e-15 0)
(3 -3.5606e-15 0)
(3 -3.62606e-15 0)
(3 -4.03383e-15 0)
(3 -4.25188e-15 0)
(3 -3.91304e-15 0)
(3 -3.50323e-15 0)
(3 -2.92407e-15 0)
(3 -2.80697e-15 0)
(3 -3.53061e-15 0)
(3 -4.49872e-15 0)
(3 -4.43843e-15 0)
(3 -4.04549e-15 0)
(3 -3.18488e-15 0)
(3 -3.42e-15 0)
(3 -4.63083e-15 0)
(3 -5.37928e-15 0)
(3 -5.34713e-15 0)
(3 1.23655e-16 0)
(3 -1.02651e-17 0)
(3 -1.15395e-16 0)
(3 -6.68283e-16 0)
(3 -4.75284e-16 0)
(3 -4.00749e-16 0)
(3 1.22307e-16 0)
(3 -1.8854e-16 0)
(3 -1.05184e-15 0)
(3 -1.353e-15 0)
(3 -1.53019e-15 0)
(3 -1.4067e-15 0)
(3 -1.51061e-15 0)
(3 -1.94772e-15 0)
(3 -1.62168e-15 0)
(3 -1.46588e-15 0)
(3 -6.44417e-17 0)
(3 1.65872e-16 0)
(3 -3.04095e-16 0)
(3 -1.71573e-15 0)
(3 -3.09102e-15 0)
(3 -2.67513e-15 0)
(3 -1.89434e-15 0)
(3 -1.35558e-15 0)
(3 -1.23443e-15 0)
(3 -1.44237e-15 0)
(3 -1.98799e-15 0)
(3 -1.55866e-15 0)
(3 -1.63555e-15 0)
(3 -1.69755e-15 0)
(3 -4.86712e-16 0)
(3 6.82536e-18 0)
(3 -1.93238e-16 0)
(3 -7.65034e-16 0)
(3 -1.70696e-15 0)
(3 -1.70252e-15 0)
(3 -1.58145e-15 0)
(3 -7.25084e-16 0)
(3 7.28617e-16 0)
(3 1.78785e-15 0)
(3 1.50464e-15 0)
(3 5.90191e-16 0)
(3 -6.47044e-16 0)
(3 -7.07733e-16 0)
(3 -2.93853e-16 0)
(3 3.12705e-16 0)
(3 8.66783e-16 0)
(3 -7.2372e-18 0)
(3 -1.50225e-15 0)
(3 -1.10438e-15 0)
(3 -6.58754e-16 0)
(3 -2.01211e-16 0)
(3 1.07553e-16 0)
(3 4.45498e-16 0)
(3 5.69485e-16 0)
(3 1.41889e-15 0)
(3 2.27461e-15 0)
(3 1.86288e-15 0)
(3 1.59085e-15 0)
(3 1.91194e-15 0)
(3 1.43882e-15 0)
(3 1.01952e-15 0)
(3 9.00059e-16 0)
(3 1.52547e-16 0)
(3 -6.98418e-16 0)
(3 -2.20147e-15 0)
(3 -3.96375e-15 0)
(3 -4.31796e-15 0)
(3 -4.073e-15 0)
(3 -3.16724e-15 0)
(3 -2.95383e-15 0)
(3 -3.08171e-15 0)
(3 -4.45747e-15 0)
(3 -5.564e-15 0)
(3 -6.48475e-15 0)
(3 -7.00355e-15 0)
(3 -7.1162e-15 0)
(3 -6.02252e-15 0)
(3 -5.86432e-15 0)
(3 -4.29241e-15 0)
(3 -1.61876e-15 0)
(3 -1.05362e-15 0)
(3 -1.56409e-15 0)
(3 -2.48513e-15 0)
(3 -1.70671e-15 0)
(3 -1.08472e-15 0)
(3 -1.10071e-16 0)
(3 1.66004e-16 0)
(3 3.59906e-16 0)
(3 -6.38557e-16 0)
(3 -1.38952e-15 0)
(3 -1.39433e-15 0)
(3 -2.16921e-15 0)
(3 -2.68362e-15 0)
(3 -2.55242e-15 0)
(3 -2.86246e-15 0)
(3 -2.12127e-16 0)
(3 -1.18784e-16 0)
(3 6.37143e-17 0)
(3 -1.95476e-16 0)
(3 -5.09933e-16 0)
(3 -4.06614e-16 0)
(3 -4.20205e-16 0)
(3 -5.63698e-16 0)
(3 -8.68378e-16 0)
(3 -1.19873e-15 0)
(3 -1.05684e-15 0)
(3 -1.18795e-15 0)
(3 -6.55287e-16 0)
(3 -5.76646e-16 0)
(3 -9.15071e-16 0)
(3 -1.00019e-15 0)
(3 -1.06983e-15 0)
(3 -8.95881e-16 0)
(3 -6.90173e-16 0)
(3 -1.34453e-15 0)
(3 -5.44885e-16 0)
(3 -8.14115e-17 0)
(3 -7.50831e-16 0)
(3 -5.17443e-16 0)
(3 3.5531e-16 0)
(3 4.56827e-16 0)
(3 -1.24049e-16 0)
(3 -4.58398e-16 0)
(3 -6.41521e-16 0)
(3 -1.86559e-15 0)
(3 -1.62346e-15 0)
(3 -2.41294e-15 0)
(3 -3.07245e-15 0)
(3 -3.5477e-15 0)
(3 -3.06114e-15 0)
(3 -2.58155e-15 0)
(3 -1.90955e-15 0)
(3 -1.3681e-15 0)
(3 -6.30745e-16 0)
(3 -3.19035e-16 0)
(3 -6.99054e-16 0)
(3 -5.25009e-16 0)
(3 -3.10663e-16 0)
(3 -4.13166e-16 0)
(3 7.91957e-16 0)
(3 1.86222e-15 0)
(3 1.98055e-15 0)
(3 1.82817e-15 0)
(3 1.66113e-15 0)
(3 1.55517e-15 0)
(3 1.25369e-15 0)
(3 6.59152e-16 0)
(3 2.40604e-16 0)
(3 9.9854e-16 0)
(3 1.27907e-15 0)
(3 1.60595e-15 0)
(3 1.73603e-15 0)
(3 3.09038e-15 0)
(3 3.45201e-15 0)
(3 3.15579e-15 0)
(3 2.8074e-15 0)
(3 2.15724e-15 0)
(3 -2.15163e-16 0)
(3 -9.36569e-16 0)
(3 -1.75454e-15 0)
(3 -2.18345e-15 0)
(3 -2.728e-15 0)
(3 -2.19321e-15 0)
(3 -2.04803e-15 0)
(3 -2.62271e-15 0)
(3 -3.18813e-15 0)
(3 -3.96472e-15 0)
(3 -5.56998e-15 0)
(3 -7.1608e-15 0)
(3 -7.52997e-15 0)
(3 -8.64156e-15 0)
(3 -8.95226e-15 0)
(3 -8.32649e-15 0)
(3 -6.28612e-15 0)
(3 -4.25081e-15 0)
(3 -1.93185e-15 0)
(3 -5.46024e-16 0)
(3 1.6682e-16 0)
(3 3.04628e-16 0)
(3 7.72615e-17 0)
(3 2.07221e-16 0)
(3 7.31128e-16 0)
(3 9.93259e-16 0)
(3 7.48283e-16 0)
(3 -1.69159e-16 0)
(3 -1.47062e-15 0)
(3 -2.66228e-15 0)
(3 -3.6796e-15 0)
(3 -3.2034e-15 0)
(3 -3.20526e-15 0)
(3 -2.49023e-15 0)
(3 -1.01503e-16 0)
(3 -2.15871e-16 0)
(3 -1.98968e-16 0)
(3 3.85999e-16 0)
(3 -9.23243e-17 0)
(3 -5.92839e-16 0)
(3 -7.62969e-16 0)
(3 -7.38104e-16 0)
(3 -2.13109e-16 0)
(3 -1.23997e-17 0)
(3 1.24519e-16 0)
(3 2.58592e-16 0)
(3 4.83141e-16 0)
(3 6.51248e-16 0)
(3 1.80332e-16 0)
(3 -1.88827e-16 0)
(3 -1.44713e-15 0)
(3 -1.7695e-15 0)
(3 -1.85866e-15 0)
(3 -1.02784e-15 0)
(3 8.81932e-16 0)
(3 1.19741e-15 0)
(3 1.09477e-15 0)
(3 6.90969e-16 0)
(3 8.29071e-16 0)
(3 4.15021e-17 0)
(3 -4.36173e-16 0)
(3 -1.27819e-15 0)
(3 -1.11765e-15 0)
(3 -9.85569e-16 0)
(3 -1.41602e-15 0)
(3 -1.80162e-15 0)
(3 -2.39474e-15 0)
(3 -3.32363e-15 0)
(3 -3.36387e-15 0)
(3 -2.31697e-15 0)
(3 -1.02815e-15 0)
(3 -2.94913e-16 0)
(3 -3.24319e-16 0)
(3 -1.16162e-15 0)
(3 -1.32266e-15 0)
(3 -9.2192e-16 0)
(3 1.28516e-16 0)
(3 6.93319e-16 0)
(3 1.46765e-15 0)
(3 1.98359e-15 0)
(3 2.23978e-15 0)
(3 2.95069e-15 0)
(3 3.79194e-15 0)
(3 4.63204e-15 0)
(3 4.29729e-15 0)
(3 2.97676e-15 0)
(3 1.04252e-15 0)
(3 2.39074e-16 0)
(3 -1.31064e-16 0)
(3 -3.8607e-16 0)
(3 5.52273e-17 0)
(3 9.04896e-16 0)
(3 6.27425e-16 0)
(3 6.64873e-16 0)
(3 9.39427e-16 0)
(3 1.02035e-15 0)
(3 -6.25822e-16 0)
(3 -1.45399e-15 0)
(3 -1.71884e-15 0)
(3 -2.39982e-15 0)
(3 -2.76645e-15 0)
(3 -3.00012e-15 0)
(3 -2.95006e-15 0)
(3 -3.03469e-15 0)
(3 -3.59256e-15 0)
(3 -5.11252e-15 0)
(3 -6.08006e-15 0)
(3 -5.61567e-15 0)
(3 -5.53975e-15 0)
(3 -5.68296e-15 0)
(3 -5.30053e-15 0)
(3 -3.9738e-15 0)
(3 -3.00931e-15 0)
(3 -2.30682e-15 0)
(3 -1.77714e-15 0)
(3 -1.76151e-15 0)
(3 -9.08206e-16 0)
(3 4.46059e-16 0)
(3 4.53475e-16 0)
(3 9.63751e-17 0)
(3 -2.46518e-16 0)
(3 -7.89576e-17 0)
(3 -4.36597e-17 0)
(3 -8.39611e-16 0)
(3 -1.84551e-15 0)
(3 -2.09222e-15 0)
(3 -1.88291e-15 0)
(3 -1.8614e-15 0)
(3 -2.49633e-15 0)
(3 -2.50822e-15 0)
(3 -2.83562e-17 0)
(3 1.07684e-18 0)
(3 -1.59069e-16 0)
(3 -2.83991e-16 0)
(3 -1.89826e-16 0)
(3 -2.853e-16 0)
(3 -4.35956e-16 0)
(3 -2.00363e-16 0)
(3 8.80119e-17 0)
(3 4.28476e-16 0)
(3 3.94364e-16 0)
(3 3.31728e-16 0)
(3 1.39382e-16 0)
(3 3.29315e-16 0)
(3 2.18168e-16 0)
(3 -3.12613e-16 0)
(3 -1.05153e-15 0)
(3 -3.17006e-16 0)
(3 1.51227e-16 0)
(3 7.79939e-16 0)
(3 8.27829e-16 0)
(3 9.41242e-16 0)
(3 1.15435e-15 0)
(3 4.0717e-16 0)
(3 -1.34875e-15 0)
(3 -2.49951e-15 0)
(3 -2.11197e-15 0)
(3 -2.01355e-15 0)
(3 -1.82013e-15 0)
(3 -8.95221e-16 0)
(3 -6.32007e-16 0)
(3 -5.46853e-16 0)
(3 -5.00117e-16 0)
(3 -1.24103e-15 0)
(3 -2.04595e-15 0)
(3 -2.28357e-15 0)
(3 -1.34843e-15 0)
(3 -6.35364e-16 0)
(3 -1.9059e-16 0)
(3 -5.05822e-16 0)
(3 -9.0289e-16 0)
(3 -8.81033e-16 0)
(3 -8.39452e-16 0)
(3 7.52615e-16 0)
(3 1.17507e-15 0)
(3 1.0247e-15 0)
(3 1.88525e-15 0)
(3 2.70702e-15 0)
(3 2.4409e-15 0)
(3 1.81972e-15 0)
(3 1.27236e-15 0)
(3 1.56769e-15 0)
(3 9.72906e-16 0)
(3 -1.10617e-16 0)
(3 -1.91366e-15 0)
(3 -2.69033e-15 0)
(3 -2.34478e-15 0)
(3 -2.08877e-15 0)
(3 -1.97284e-15 0)
(3 -1.36046e-15 0)
(3 -1.30848e-15 0)
(3 -9.66986e-16 0)
(3 -7.11753e-16 0)
(3 -8.29557e-16 0)
(3 -2.00108e-15 0)
(3 -3.24504e-15 0)
(3 -3.57854e-15 0)
(3 -3.801e-15 0)
(3 -3.74923e-15 0)
(3 -3.09299e-15 0)
(3 -2.87324e-15 0)
(3 -3.26679e-15 0)
(3 -3.49892e-15 0)
(3 -3.52528e-15 0)
(3 -3.41001e-15 0)
(3 -3.00638e-15 0)
(3 -2.42978e-15 0)
(3 -1.87146e-15 0)
(3 -1.85456e-15 0)
(3 -7.87297e-16 0)
(3 -7.51915e-16 0)
(3 -5.05217e-16 0)
(3 -3.37549e-16 0)
(3 1.62889e-16 0)
(3 2.91443e-16 0)
(3 1.43243e-16 0)
(3 -2.59687e-16 0)
(3 -2.53186e-16 0)
(3 6.23287e-16 0)
(3 8.92348e-16 0)
(3 4.17351e-16 0)
(3 6.08283e-16 0)
(3 8.83208e-16 0)
(3 -1.08999e-16 0)
(3 -1.4092e-15 0)
(3 -1.51703e-15 0)
(3 -2.50121e-17 0)
(3 -4.73726e-17 0)
(3 -9.63185e-17 0)
(3 -3.51552e-16 0)
(3 -4.25484e-16 0)
(3 -3.04285e-16 0)
(3 -1.9596e-16 0)
(3 5.62525e-17 0)
(3 -1.25401e-17 0)
(3 4.39723e-17 0)
(3 1.60667e-16 0)
(3 5.873e-17 0)
(3 8.70265e-17 0)
(3 4.70127e-17 0)
(3 -2.69865e-17 0)
(3 2.11813e-16 0)
(3 5.70618e-16 0)
(3 1.8653e-15 0)
(3 2.00965e-15 0)
(3 1.44908e-15 0)
(3 9.77635e-16 0)
(3 -8.64842e-18 0)
(3 -2.16497e-16 0)
(3 -1.17841e-15 0)
(3 -2.16102e-15 0)
(3 -2.02806e-15 0)
(3 -1.05565e-15 0)
(3 -6.98561e-16 0)
(3 -7.58611e-16 0)
(3 -1.17517e-15 0)
(3 -8.07044e-16 0)
(3 -9.63207e-16 0)
(3 -1.32888e-16 0)
(3 4.36742e-16 0)
(3 1.1434e-15 0)
(3 1.88724e-16 0)
(3 -9.3219e-16 0)
(3 -1.58124e-15 0)
(3 -1.17823e-15 0)
(3 -2.91638e-16 0)
(3 -8.6639e-16 0)
(3 -1.50123e-15 0)
(3 -1.96529e-15 0)
(3 -1.93044e-15 0)
(3 -1.45441e-15 0)
(3 -1.48776e-15 0)
(3 -3.38239e-16 0)
(3 2.45074e-15 0)
(3 2.96775e-15 0)
(3 1.85028e-15 0)
(3 1.594e-15 0)
(3 2.01689e-15 0)
(3 1.6634e-15 0)
(3 9.49908e-16 0)
(3 2.55243e-16 0)
(3 3.4638e-17 0)
(3 -2.09818e-16 0)
(3 -2.77019e-16 0)
(3 -1.71774e-16 0)
(3 -7.22403e-16 0)
(3 -9.62927e-16 0)
(3 -1.3688e-15 0)
(3 -1.22558e-15 0)
(3 -1.73725e-15 0)
(3 -2.48868e-15 0)
(3 -2.56318e-15 0)
(3 -2.40874e-15 0)
(3 -2.35787e-15 0)
(3 -2.06351e-15 0)
(3 -2.04332e-15 0)
(3 -2.27589e-15 0)
(3 -2.23256e-15 0)
(3 -2.07178e-15 0)
(3 -2.57049e-15 0)
(3 -2.82361e-15 0)
(3 -2.07171e-15 0)
(3 -1.04404e-15 0)
(3 -9.0719e-16 0)
(3 -8.91237e-16 0)
(3 -1.29139e-16 0)
(3 5.12311e-16 0)
(3 8.43698e-16 0)
(3 2.23561e-16 0)
(3 2.09876e-16 0)
(3 2.73153e-16 0)
(3 1.93233e-16 0)
(3 -1.45997e-17 0)
(3 -1.64142e-16 0)
(3 3.52615e-16 0)
(3 5.66989e-16 0)
(3 6.4525e-16 0)
(3 -1.52399e-16 0)
(3 -1.89781e-15 0)
(3 -2.30043e-15 0)
(3 -2.14261e-15 0)
(3 -2.22429e-15 0)
(3 8.02474e-17 0)
(3 2.59164e-16 0)
(3 2.74271e-16 0)
(3 2.49496e-17 0)
(3 -6.94071e-17 0)
(3 5.39451e-18 0)
(3 -3.59174e-17 0)
(3 -6.47491e-17 0)
(3 -2.28053e-16 0)
(3 -4.41672e-16 0)
(3 -4.6797e-16 0)
(3 5.48378e-16 0)
(3 8.18865e-16 0)
(3 5.9873e-16 0)
(3 3.21288e-16 0)
(3 3.88427e-16 0)
(3 1.00607e-15 0)
(3 2.19733e-15 0)
(3 2.81005e-15 0)
(3 2.33934e-15 0)
(3 1.42668e-15 0)
(3 7.75764e-16 0)
(3 6.75371e-16 0)
(3 -4.83415e-16 0)
(3 -3.44893e-16 0)
(3 5.99525e-16 0)
(3 -1.31316e-16 0)
(3 -5.62816e-16 0)
(3 -9.25509e-16 0)
(3 -1.41634e-15 0)
(3 -1.27004e-15 0)
(3 -8.1549e-16 0)
(3 5.4136e-16 0)
(3 2.41802e-15 0)
(3 2.43167e-15 0)
(3 2.30224e-15 0)
(3 2.43796e-16 0)
(3 -5.92041e-16 0)
(3 -1.2231e-15 0)
(3 -1.16872e-15 0)
(3 -5.54996e-16 0)
(3 -7.55416e-16 0)
(3 -3.75673e-16 0)
(3 -2.64121e-16 0)
(3 -1.45297e-16 0)
(3 -3.04645e-16 0)
(3 5.09427e-16 0)
(3 1.93135e-15 0)
(3 2.66427e-15 0)
(3 3.03688e-15 0)
(3 3.4886e-15 0)
(3 3.46615e-15 0)
(3 1.38409e-15 0)
(3 -2.47801e-16 0)
(3 -8.21999e-16 0)
(3 -1.31759e-15 0)
(3 -2.59661e-15 0)
(3 -3.04444e-15 0)
(3 -2.47627e-15 0)
(3 -1.43232e-15 0)
(3 -4.64553e-16 0)
(3 -1.71302e-15 0)
(3 -2.1317e-15 0)
(3 -1.99053e-15 0)
(3 -2.17132e-15 0)
(3 -1.77897e-15 0)
(3 -1.13939e-15 0)
(3 -1.09506e-15 0)
(3 -9.85874e-16 0)
(3 -1.64064e-15 0)
(3 -1.6451e-15 0)
(3 -9.00557e-16 0)
(3 -8.89528e-16 0)
(3 -8.298e-16 0)
(3 -5.76778e-16 0)
(3 -7.62568e-17 0)
(3 5.96812e-16 0)
(3 1.71298e-16 0)
(3 6.8726e-17 0)
(3 -4.11988e-16 0)
(3 -2.90822e-16 0)
(3 -1.52301e-19 0)
(3 6.25533e-16 0)
(3 7.91076e-16 0)
(3 1.09084e-15 0)
(3 1.39467e-15 0)
(3 1.53613e-15 0)
(3 1.4909e-15 0)
(3 8.2917e-16 0)
(3 -4.3608e-16 0)
(3 -1.17855e-15 0)
(3 -1.94978e-15 0)
(3 -3.14194e-15 0)
(3 -2.7438e-15 0)
(3 -1.86242e-15 0)
(3 -1.62726e-15 0)
(3 3.11974e-19 0)
(3 1.07901e-17 0)
(3 1.10382e-16 0)
(3 2.00599e-16 0)
(3 1.30537e-16 0)
(3 3.37693e-16 0)
(3 2.2403e-16 0)
(3 -1.13146e-16 0)
(3 -4.02301e-16 0)
(3 -2.9088e-16 0)
(3 -1.08852e-16 0)
(3 7.53783e-16 0)
(3 1.206e-15 0)
(3 1.42005e-15 0)
(3 1.24368e-15 0)
(3 5.83674e-16 0)
(3 4.12903e-16 0)
(3 1.96114e-16 0)
(3 2.51745e-16 0)
(3 1.18533e-15 0)
(3 1.58612e-15 0)
(3 1.6805e-15 0)
(3 1.33676e-15 0)
(3 1.0758e-15 0)
(3 1.48393e-15 0)
(3 7.89807e-16 0)
(3 -6.22835e-16 0)
(3 -1.75666e-15 0)
(3 -1.63196e-15 0)
(3 -1.3266e-15 0)
(3 -1.52332e-15 0)
(3 -1.0355e-15 0)
(3 -3.95295e-16 0)
(3 3.95834e-16 0)
(3 1.42323e-15 0)
(3 1.62798e-15 0)
(3 -2.40959e-16 0)
(3 -4.62697e-16 0)
(3 -8.69482e-16 0)
(3 -1.2021e-15 0)
(3 -1.14473e-15 0)
(3 -7.26957e-16 0)
(3 8.79937e-16 0)
(3 1.89561e-15 0)
(3 1.47415e-15 0)
(3 9.42869e-16 0)
(3 -3.22397e-16 0)
(3 -9.10658e-16 0)
(3 9.70233e-16 0)
(3 2.35798e-15 0)
(3 1.96716e-15 0)
(3 1.39947e-15 0)
(3 -4.91324e-16 0)
(3 -1.13749e-15 0)
(3 -1.135e-15 0)
(3 -2.51496e-15 0)
(3 -3.32027e-15 0)
(3 -4.38725e-15 0)
(3 -4.69099e-15 0)
(3 -3.2405e-15 0)
(3 -2.37517e-15 0)
(3 -1.78255e-15 0)
(3 -1.46953e-15 0)
(3 -1.23376e-15 0)
(3 -1.77612e-15 0)
(3 -2.79036e-15 0)
(3 -2.18876e-15 0)
(3 -1.78955e-15 0)
(3 -2.43555e-15 0)
(3 -2.62274e-15 0)
(3 -1.95093e-15 0)
(3 -1.09034e-15 0)
(3 -8.37587e-16 0)
(3 -7.16591e-16 0)
(3 8.12206e-16 0)
(3 1.85352e-15 0)
(3 1.54532e-15 0)
(3 4.75389e-16 0)
(3 -1.15388e-16 0)
(3 -3.69282e-16 0)
(3 -2.05188e-16 0)
(3 1.48475e-16 0)
(3 9.27806e-16 0)
(3 1.23197e-16 0)
(3 -2.61631e-16 0)
(3 -3.95801e-16 0)
(3 -2.9995e-17 0)
(3 -4.71328e-17 0)
(3 -8.85881e-16 0)
(3 -1.65509e-15 0)
(3 -1.74304e-15 0)
(3 -6.82186e-16 0)
(3 -1.11806e-15 0)
(3 -2.04143e-15 0)
(3 -1.37312e-15 0)
(3 -1.43255e-15 0)
(3 -8.15182e-17 0)
(3 -2.87285e-16 0)
(3 -2.96167e-16 0)
(3 -4.69768e-17 0)
(3 6.67405e-17 0)
(3 8.66838e-17 0)
(3 2.29305e-16 0)
(3 1.1671e-16 0)
(3 2.45493e-18 0)
(3 3.86734e-16 0)
(3 2.73458e-16 0)
(3 -5.44823e-16 0)
(3 -5.61056e-16 0)
(3 -1.29992e-16 0)
(3 8.68371e-16 0)
(3 1.39808e-15 0)
(3 1.00239e-15 0)
(3 6.78567e-16 0)
(3 1.22482e-16 0)
(3 5.39592e-16 0)
(3 8.71595e-16 0)
(3 6.30592e-16 0)
(3 -4.00281e-16 0)
(3 -9.8054e-16 0)
(3 -3.74383e-16 0)
(3 -3.7488e-16 0)
(3 -8.74637e-16 0)
(3 -7.51536e-16 0)
(3 -5.62453e-16 0)
(3 -2.97932e-16 0)
(3 -1.53855e-16 0)
(3 -5.62074e-16 0)
(3 -2.94529e-16 0)
(3 -1.44142e-16 0)
(3 5.86045e-16 0)
(3 9.89371e-16 0)
(3 8.71786e-16 0)
(3 7.86353e-16 0)
(3 1.27663e-15 0)
(3 6.65696e-16 0)
(3 5.73472e-16 0)
(3 3.77907e-16 0)
(3 8.78548e-16 0)
(3 1.33266e-15 0)
(3 9.6367e-16 0)
(3 8.32279e-16 0)
(3 -7.54389e-16 0)
(3 -9.93369e-16 0)
(3 -4.22646e-17 0)
(3 1.05043e-15 0)
(3 5.02004e-16 0)
(3 -1.11827e-15 0)
(3 -7.82559e-16 0)
(3 -8.15089e-16 0)
(3 -6.14726e-16 0)
(3 -7.61999e-16 0)
(3 -1.61687e-15 0)
(3 -3.01811e-15 0)
(3 -4.19199e-15 0)
(3 -3.87087e-15 0)
(3 -3.33301e-15 0)
(3 -1.24245e-15 0)
(3 6.44406e-16 0)
(3 4.28912e-16 0)
(3 2.07275e-17 0)
(3 -1.68459e-15 0)
(3 -2.66295e-15 0)
(3 -2.92011e-15 0)
(3 -2.6166e-15 0)
(3 -2.17336e-15 0)
(3 -2.24613e-15 0)
(3 -8.21411e-16 0)
(3 4.54891e-16 0)
(3 1.14086e-15 0)
(3 1.2575e-15 0)
(3 1.24343e-15 0)
(3 1.52745e-15 0)
(3 2.27088e-15 0)
(3 1.76828e-15 0)
(3 1.27032e-15 0)
(3 7.18992e-16 0)
(3 1.36836e-16 0)
(3 -5.53311e-16 0)
(3 -2.56103e-16 0)
(3 -6.57744e-16 0)
(3 -1.26972e-15 0)
(3 -1.42275e-15 0)
(3 -1.35312e-15 0)
(3 -1.34147e-15 0)
(3 -9.36873e-16 0)
(3 -9.26007e-16 0)
(3 -8.1452e-16 0)
(3 -1.28762e-15 0)
(3 -2.43674e-15 0)
(3 -2.07431e-15 0)
(3 -1.37478e-15 0)
(3 3.38194e-18 0)
(3 6.46151e-17 0)
(3 7.61643e-17 0)
(3 -1.46401e-16 0)
(3 -5.55999e-17 0)
(3 -1.13734e-16 0)
(3 4.81054e-17 0)
(3 2.09843e-16 0)
(3 2.04181e-16 0)
(3 2.9738e-16 0)
(3 5.06581e-16 0)
(3 8.38656e-17 0)
(3 7.78243e-17 0)
(3 3.80995e-17 0)
(3 4.0184e-16 0)
(3 4.3431e-16 0)
(3 4.34521e-16 0)
(3 5.39492e-16 0)
(3 1.88951e-16 0)
(3 2.27554e-16 0)
(3 4.03338e-16 0)
(3 3.12821e-16 0)
(3 -2.15492e-16 0)
(3 -1.35264e-16 0)
(3 1.03501e-16 0)
(3 5.31152e-17 0)
(3 3.73191e-16 0)
(3 7.79705e-16 0)
(3 1.79692e-16 0)
(3 3.04475e-16 0)
(3 1.22666e-15 0)
(3 1.46535e-15 0)
(3 1.1595e-15 0)
(3 7.84943e-16 0)
(3 5.37786e-16 0)
(3 8.08644e-16 0)
(3 1.01362e-15 0)
(3 1.28826e-15 0)
(3 1.74135e-15 0)
(3 2.37132e-15 0)
(3 2.87066e-15 0)
(3 3.50149e-15 0)
(3 3.13549e-15 0)
(3 2.22284e-15 0)
(3 9.94013e-16 0)
(3 7.4149e-16 0)
(3 -5.89361e-16 0)
(3 -1.91756e-15 0)
(3 -1.97442e-15 0)
(3 -1.3798e-15 0)
(3 -1.22397e-15 0)
(3 -3.0226e-15 0)
(3 -2.67011e-15 0)
(3 -2.19846e-15 0)
(3 -1.47856e-15 0)
(3 -1.39688e-15 0)
(3 -1.38996e-15 0)
(3 -2.47372e-15 0)
(3 -3.84973e-15 0)
(3 -4.39244e-15 0)
(3 -2.9681e-15 0)
(3 -2.18589e-15 0)
(3 -1.15979e-15 0)
(3 -6.4538e-17 0)
(3 6.24486e-16 0)
(3 9.61316e-17 0)
(3 -8.82692e-16 0)
(3 -1.11536e-15 0)
(3 -7.46559e-16 0)
(3 -2.29424e-16 0)
(3 -6.46565e-16 0)
(3 -3.61899e-16 0)
(3 9.05755e-16 0)
(3 1.06461e-15 0)
(3 8.34375e-16 0)
(3 9.2037e-16 0)
(3 7.21469e-16 0)
(3 4.53709e-16 0)
(3 3.61948e-16 0)
(3 1.14357e-16 0)
(3 -4.35279e-16 0)
(3 -6.82672e-16 0)
(3 -1.21002e-15 0)
(3 -1.35074e-15 0)
(3 -1.54748e-15 0)
(3 -1.57736e-15 0)
(3 -1.67979e-15 0)
(3 -2.05762e-15 0)
(3 -1.82551e-15 0)
(3 -1.78021e-15 0)
(3 -2.45943e-15 0)
(3 -3.0044e-15 0)
(3 -2.27565e-15 0)
(3 -3.06314e-15 0)
(3 -1.87693e-15 0)
(3 -8.57373e-16 0)
(3 1.80429e-17 0)
(3 -6.94573e-17 0)
(3 1.02504e-16 0)
(3 3.97225e-16 0)
(3 4.16806e-16 0)
(3 2.99041e-16 0)
(3 4.33655e-16 0)
(3 4.47186e-16 0)
(3 5.72606e-16 0)
(3 1.49575e-16 0)
(3 4.99282e-16 0)
(3 9.30609e-16 0)
(3 1.15096e-15 0)
(3 1.32862e-15 0)
(3 7.22394e-16 0)
(3 1.18182e-16 0)
(3 -1.1259e-17 0)
(3 9.18441e-17 0)
(3 3.32717e-16 0)
(3 5.83601e-17 0)
(3 5.1532e-16 0)
(3 1.68966e-15 0)
(3 2.6404e-15 0)
(3 3.04007e-15 0)
(3 2.99955e-15 0)
(3 2.94233e-15 0)
(3 3.14808e-15 0)
(3 2.83184e-15 0)
(3 1.67124e-15 0)
(3 6.24269e-16 0)
(3 5.32711e-16 0)
(3 5.23872e-16 0)
(3 2.75092e-16 0)
(3 3.72087e-16 0)
(3 9.29578e-16 0)
(3 1.66097e-15 0)
(3 2.64547e-15 0)
(3 2.57699e-15 0)
(3 2.2421e-15 0)
(3 2.35958e-15 0)
(3 2.30636e-15 0)
(3 2.78546e-15 0)
(3 2.0909e-15 0)
(3 1.06258e-15 0)
(3 5.68498e-16 0)
(3 3.84297e-16 0)
(3 -4.43235e-16 0)
(3 -1.46512e-15 0)
(3 -2.28538e-15 0)
(3 -2.22994e-15 0)
(3 -2.82286e-15 0)
(3 -3.33209e-15 0)
(3 -3.72873e-15 0)
(3 -3.42926e-15 0)
(3 -3.35813e-15 0)
(3 -2.01958e-15 0)
(3 -1.51935e-15 0)
(3 -1.8601e-16 0)
(3 -2.19097e-15 0)
(3 -5.04423e-15 0)
(3 -4.89602e-15 0)
(3 -4.1944e-15 0)
(3 -2.55957e-15 0)
(3 -1.9199e-15 0)
(3 1.10839e-16 0)
(3 1.6749e-15 0)
(3 1.55644e-15 0)
(3 1.10904e-15 0)
(3 8.56575e-16 0)
(3 6.499e-17 0)
(3 -6.19508e-16 0)
(3 -2.90024e-16 0)
(3 4.89163e-16 0)
(3 1.48177e-15 0)
(3 1.2993e-15 0)
(3 7.15449e-16 0)
(3 -5.78391e-16 0)
(3 -4.71197e-16 0)
(3 -7.5417e-16 0)
(3 1.27973e-16 0)
(3 -7.9705e-16 0)
(3 -1.13524e-15 0)
(3 -1.73468e-15 0)
(3 -1.96037e-15 0)
(3 -1.9567e-15 0)
(3 -1.59781e-15 0)
(3 -1.57037e-15 0)
(3 -1.20725e-15 0)
(3 -1.15226e-15 0)
(3 -1.55241e-15 0)
(3 -2.03915e-15 0)
(3 -3.17552e-15 0)
(3 -3.76711e-15 0)
(3 -1.28492e-15 0)
(3 -8.86372e-16 0)
(3 -9.39408e-16 0)
(3 5.28004e-18 0)
(3 -8.36115e-17 0)
(3 3.949e-16 0)
(3 4.89126e-16 0)
(3 2.98731e-16 0)
(3 -8.87013e-19 0)
(3 4.30307e-17 0)
(3 1.60428e-16 0)
(3 1.26217e-16 0)
(3 7.50043e-17 0)
(3 2.90447e-16 0)
(3 5.42268e-16 0)
(3 4.23774e-16 0)
(3 -3.8227e-16 0)
(3 -9.01364e-17 0)
(3 8.65919e-16 0)
(3 1.34226e-15 0)
(3 9.5633e-16 0)
(3 1.72066e-15 0)
(3 1.60159e-15 0)
(3 1.56008e-15 0)
(3 2.15861e-15 0)
(3 3.30728e-15 0)
(3 3.08373e-15 0)
(3 2.74095e-15 0)
(3 2.60053e-15 0)
(3 3.3628e-15 0)
(3 4.02738e-15 0)
(3 3.75241e-15 0)
(3 1.43046e-15 0)
(3 3.8237e-16 0)
(3 -6.47184e-16 0)
(3 -1.00695e-15 0)
(3 -5.68819e-16 0)
(3 2.38687e-16 0)
(3 1.01546e-15 0)
(3 2.01473e-15 0)
(3 2.29649e-15 0)
(3 2.63512e-15 0)
(3 2.30314e-15 0)
(3 1.77608e-15 0)
(3 6.31725e-16 0)
(3 -4.44849e-17 0)
(3 -4.93837e-16 0)
(3 -1.12237e-15 0)
(3 -7.3449e-16 0)
(3 2.39256e-16 0)
(3 2.00805e-16 0)
(3 -1.50482e-15 0)
(3 -2.16739e-15 0)