/*--------------------------------*- C++ -*----------------------------------*\
  =========                 |
  \\      /  F ield         | OpenFOAM: The Open Source CFD Toolbox
   \\    /   O peration     | Website:  https://openfoam.org
    \\  /    A nd           | Version:  7
     \\/     M anipulation  |
\*---------------------------------------------------------------------------*/
FoamFile
{
    version     2.0;
    format      ascii;
    class       volScalarField;
    location    "3";
    object      p;
}
// * * * * * * * * * * * * * * * * * * * * * * * * * * * * * * * * * * * * * //

dimensions      [1 -1 -2 0 0 0 0];

internalField   nonuniform List<scalar> 
18432
(
1
1
1
1
1
1
1
1
1
1
1
1
1
1
1
1
1
1
1
1
1
1
1
1
1
1
1
1
1
1
1
1
1
1
1
1
1
1
1
1
1
1
1
1
1
1
1
1
1
1
1
1
1
1
1
1
1
1
1
1
1
1
1
1
1
1
1
1
1
1
1
1
1
1
1
1
1
1
1
1
1
1
1
1
1
1
1
1
1
1
1
1
1
1
1
1
1
1
1
1
1
1
1
1
1
1
1
1
1
1
1
1
1
1
1
1
1
1
1
1
1
1
1
1
1
1
1
1
1
1
1
1
1
1
1
1
1
1
1
1
1
1
1
1
1
1
1
1
1
1
1
1
1
1
1
1
1
1
1
1
1
1
1
1
1
1
1
1
1
1
1
1
1
1
1
1
1
1
1
1
1
1
1
1
1
1
1
1
1
1
1
1
1
1
1
1
1
1
1
1
1
1
1
1
1
1
1
1
1
1
1
1
1
1
1
1
1
1
1
1
1
1
1
1
1
1
1
1
1
1
1
1
1
1
1
1
1
1
1
1
1
1
1
1
1
1
1
1
1
1
1
1
1
1
1
1
1
1
1
1
1
1
1
1
1
1
1
1
1
1
1
1
1
1
1
1
1
1
1
1
1
1
1
1
1
1
1
1
1
1
1
1
1
1
1
1
1
1
1
1
1
1
1
1
1
1
1
1
1
1
1
1
1
1
1
1
1
1
1
1
1
1
1
1
1
1
1
1
1
1
1
1
1
1
1
1
1
1
1
1
1
1
1
1
1
1
1
1
1
1
1
1
1
1
1
1
1
1
1
1
1
1
1
1
1
1
1
1
1
1
1
1
1
1
1
1
1
1
1
1
1
1
1
1
1
1
1
1
1
1
1
1
1
1
1
1
1
1
1
1
1
1
1
1
1
1
1
1
1
1
1
1
1
1
1
1
1
1
1
1
1
1
1
1
1
1
1
1
1
1
1
1
1
1
1
1
1
1
1
1
1
1
1
1
1
1
1
1
1
1
1
1
1
1
1
1
1
1
1
1
1
1
1
1
1
1
1
1
1
1
1
1
1
1
1
1
1
1
1
1
1
1
1
1
1
1
1
1
1
1
1
1
1
1
1
1
1
1
1
1
1
1
1
1
1
1
1
1
1
1
1
1
1
1
1
1
1
1
1
1
1
1
1
1
1
1
1
1
1
1
1
1
1
1
1
1
1
1
1
1
1
1
1
1
1
1
1
1
1
1
1
1
1
1
1
1
1
1
1
1
1
1
1
1
1
1
1
1
1
1
1
1
1
1
1
1
1
1
1
1
1
1
1
1
1
1
1
1
1
1
1
1
1
1
1
1
1
1
1
1
1
1
1
1
1
1
1
1
1
1
1
1
1
1
1
1
1
1
1
1
1
1
1
1
1
1
1
1
1
1
1
1
1
1
1
1
1
1
1
1
1
1
1
1
1
1
1
1
1
1
1
1
1
1
1
1
1
1
1
1
1
1
1
1
1
1
1
1
1
1
1
1
1
1
1
1
1
1
1
1
1
1
1
1
1
1
1
1
1
1
1
1
1
1
1
1
1
1
1
1
1
1
1
1
1
1
1
1
1
1
1
1
1
1
1
1
1
1
1
1
1
1
1
1
1
1
1
1
1
1
1
1
1
1
1
1
1
1
1
1
1
1
1
1
1
1
1
1
1
1
1
1
1
1
1
1
1
1
1
1
1
1
1
1
1
1
1
1
1
1
1
1
1
1
1
1
1
1
1
1
1
1
1
1
1
1
1
1
1
1
1
1
1
1
1
1
1
1
1
1
1
1
1
1
1
1
1
1
1
1
1
1
1
1
1
1
1
1
1
1
1
1
1
1
1
1
1
1
1
1
1
1
1
1
1
1
1
1
1
1
1
1
1
1
1
1
1
1
1
1
1
1
1
1
1
1
1
1
1
1
1
1
1
1
1
1
1
1
1
1
1
1
1
1
1
1
1
1
1
1
1
1
1
1
1
1
1
1
1
1
1
1
1
1
1
1
1
1
1
1
1
1
1
1
1
1
1
1
1
1
1
1
1
1
1
1
1
1
1
1
1
1
1
1
1
1
1
1
1
1
1
1
1
1
1
1
1
1
1
1
1
1
1
1
1
1
1
1
1
1
1
1
1
1
1
1
1
1
1
1
1
1
1
1
1
1
1
1
1
1
1
1
1
1
1
1
1
1
1
1
1
1
1
1
1
1
1
1
1
1
1
1
1
1
1
1
1
1
1
1
1
1
1
1
1
1
1
1
1
1
1
1
1
1
1
1
1
1
1
1
1
1
1
1
1
1
1
1
1
1
1
1
1
1
1
1
1
1
1
1
1
1
1
1
1
1
1
1
1
1
1
1
1
1
1
1
1
1
1
1
1
1
1
1
1
1
1
1
1
1
1
1
1
1
1
1
1
1
1
1
1
1
1
1
1
1
1
1
1
1
1
1
1
1
1
1
1
1
1
1
1
1
1
1
1
1
1
1
1
1
1
1
1
1
1
1
1
1
1
1
1
1
1
1
1
1
1
1
1
1
1
1
1
1
1
1
1
1
1
1
1
1
1
1
1
1
1
1
1
1
1
1
1
1
1
1
1
1
1
1
1
1
1
1
1
1
1
1
1
1
1
1
1
1
1
1
1
1
1
1
1
1
1
1
1
1
1
1
1
1
1
1
1
1
1
1
1
1
1
1
1
1
1
1
1
1
1
1
1
1
1
1
1
1
1
1
1
1
1
1
1
1
1
1
1
1
1
1
1
1
1
1
1
1
1
1
1
1
1
1
1
1
1
1
1
1
1
1
1
1
1
1
1
1
1
1
1
1
1
1
1
1
1
1
1
1
1
1
1
1
1
1
1
1
1
1
1
1
1
1
1
1
1
1
1
1
1
1
1
1
1
1
1
1
1
1
1
1
1
1
1
1
1
1
1
1
1
1
1
1
1
1
1
1
1
1
1
1
1
1
1
1
1
1
1
1
1
1
1
1
1
1
1
1
1
1
1
1
1
1
1
1
1
1
1
1
1
1
1
1
1
1
1
1
1
1
1
1
1
1
1
1
1
1
1
1
1
1
1
1
1
1
1
1
1
1
1
1
1
1
1
1
1
1
1
1
1
1
1
1
1
1
1
1
1
1
1
1
1
1
1
1
1
1
1
1
1
1
1
1
1
1
1
1
1
1
1
1
1
1
1
1
1
1
1
1
1
1
1
1
1
1
1
1
1
1
1
1
1
1
1
1
1
1
1
1
1
1
1
1
1
1
1
1
1
1
1
1
1
1
1
1
1
1
1
1
1
1
1
1
1
1
1
1
1
1
1
1
1
1
1
1
1
1
1
1
1
1
1
1
1
1
1
1
1
1
1
1
1
1
1
1
1
1
1
1
1
1
1
1
1
1
1
1
1
1
1
1
1
1
1
1
1
1
1
1
1
1
1
1
1
1
1
1
1
1
1
1
1
1
1
1
1
1
1
1
1
1
1
1
1
1
1
1
1
1
1
1
1
1
1
1
1
1
1
1
1
1
1
1
1
1
1
1
1
1
1
1
1
1
1
1
1
1
1
1
1
1
1
1
1
1
1
1
1
1
1
1
1
1
1
1
1
1
1
1
1
1
1
1
1
1
1
1
1
1
1
1
1
1
1
1
1
1
1
1
1
1
1
1
1
1
1
1
1
1
1
1
1
1
1
1
1
1
1
1
1
1
1
1
1
1
1
1
1
1
1
1
1
1
1
1
1
1
1
1
1
1
1
1
1
1
1
1
1
1
1
1
1
1
1
1
1
1
1
1
1
1
1
1
1
1
1
1
1
1
1
1
1
1
1
1
1
1
1
1
1
1
1
1
1
1
1
1
1
1
1
1
1
1
1
1
1
1
1
1
1
1
1
1
1
1
1
1
1
1
1
1
1
1
1
1
1
1
1
1
1
1
1
1
1
1
1
1
1
1
1
1
1
1
1
1
1
1
1
1
1
1
1
1
1
1
1
1
1
1
1
1
1
1
1
1
1
1
1
1
1
1
1
1
1
1
1
1
1
1
1
1
1
1
1
1
1
1
1
1
1
1
1
1
1
1
1
1
1
1
1
1
1
1
1
1
1
1
1
1
1
1
1
1
1
1
1
1
1
1
1
1
1
1
1
1
1
1
1
1
1
1
1
1
1
1
1
1
1
1
1
1
1
1
1
1
1
1
1
1
1
1
1
1
1
1
1
1
1
1
1
1
1
1
1
1
1
1
1
1
1
1
1
1
1
1
1
1
1
1
1
1
1
1
1
1
1
1
1
1
1
1
1
1
1
1
1
1
1
1
1
1
1
1
1
1
1
1
1
1
1
1
1
1
1
1
1
1
1
1
1
1
1
1
1
1
1
1
1
1
1
1
1
1
1
1
1
1
1
1
1
1
1
1
1
1
1
1
1
1
1
1
1
1
1
1
1
1
1
1
1
1
1
1
1
1
1
1
1
1
1
1
1
1
1
1
1
1
1
1
1
1
1
1
1
1
1
1
1
1
1
1
1
1
1
1
1
1
1
1
1
1
1
1
1
1
1
1
1
1
1
1
1
1
1
1
1
1
1
1
1
1
1
1
1
1
1
1
1
1
1
1
1
1
1
1
1
1
1
1
1
1
1
1
1
1
1
1
1
1
1
1
1
1
1
1
1
1
1
1
1
1
1
1
1
1
1
1
1
1
1
1
1
1
1
1
1
1
1
1
1
1
1
1
1
1
1
1
1
1
1
1
1
1
1
1
1
1
1
1
1
1
1
1
1
1
1
1
1
1
1
1
1
1
1
1
1
1
1
1
1
1
1
1
1
1
1
1
1
1
1
1
1
1
1
1
1
1
1
1
1
1
1
1
1
1
1
1
1
1
1
1
1
1
1
1
1
1
1
1
1
1
1
1
1
1
1
1
1
1
1
1
1
1
1
1
1
1
1
1
1
1
1
1
1
1
1
1
1
1
1
1
1
1
1
1
1
1
1
1
1
1
1
1
1
1
1
1
1
1
1
1
1
1
1
1
1
1
1
1
1
1
1
1
1
1
1
1
1
1
1
1
1
1
1
1
1
1
1
1
1
1
1
1
1
1
1
1
1
1
1
1
1
1
1
1
1
1
1
1
1
1
1
1
1
1
1
1
1
1
1
1
1
1
1
1
1
1
1
1
1
1
1
1
1
1
1
1
1
1
1
1
1
1
1
1
1
1
1
1
1
1
1
1
1
1
1
1
1
1
1
1
1
1
1
1
1
1
1
1
1
1
1
1
1
1
1
1
1
1
1
1
1
1
1
1
1
1
1
1
1
1
1
1
1
1
1
1
1
1
1
1
1
1
1
1
1
1
1
1
1
1
1
1
1
1
1
1
1
1
1
1
1
1
1
1
1
1
1
1
1
1
1
1
1
1
1
1
1
1
1
1
1
1
1
1
1
1
1
1
1
1
1
1
1
1
1
1
1
1
1
1
1
1
1
1
1
1
1
1
1
1
1
1
1
1
1
1
1
1
1
1
1
1
1
1
1
1
1
1
1
1
1
1
1
1
1
1
1
1
1
1
1
1
1
1
1
1
1
1
1
1
1
1
1
1
1
1
1
1
1
1
1
1
1
1
1
1
1
1
1
1
1
1
1
1
1
1
1
1
1
1
1
1
1
1
1
1
1
1
1
1
1
1
1
1
1
1
1
1
1
1
1
1
1
1
1
1
1
1
1
1
1
1
1
1
1
1
1
1
1
1
1
1
1
1
1
1
1
1
1
1
1
1
1
1
1
1
1
1
1
1
1
1
1
1
1
1
1
1
1
1
1
1
1
1
1
1
1
1
1
1
1
1
1
1
1
1
1
1
1
1
1
1
1
1
1
1
1
1
1
1
1
1
1
1
1
1
1
1
1
1
1
1
1
1
1
1
1
1
1
1
1
1
1
1
1
1
1
1
1
1
1
1
1
1
1
1
1
1
1
1
1
1
1
1
1
1
1
1
1
1
1
1
1
1
1
1
1
1
1
1
1
1
1
1
1
1
1
1
1
1
1
1
1
1
1
1
1
1
1
1
1
1
1
1
1
1
1
1
1
1
1
1
1
1
1
1
1
1
1
1
1
1
1
1
1
1
1
1
1
1
1
1
1
1
1
1
1
1
1
1
1
1
1
1
1
1
1
1
1
1
1
1
1
1
1
1
1
1
1
1
1
1
1
1
1
1
1
1
1
1
1
1
1
1
1
1
1
1
1
1
1
1
1
1
1
1
1
1
1
1
1
1
1
1
1
1
1
1
1
1
1
1
1
1
1
1
1
1
1
1
1
1
1
1
1
1
1
1
1
1
1
1
1
1
1
1
1
1
1
1
1
1
1
1
1
1
1
1
1
1
1
1
1
1
1
1
1
1
1
1
1
1
1
1
1
1
1
1
1
1
1
1
1
1
1
1
1
1
1
1
1
1
1
1
1
1
1
1
1
1
1
1
1
1
1
1
1
1
1
1
1
1
1
1
1
1
1
1
1
1
1
1
1
1
1
1
1
1
1
1
1
1
1
1
1
1
1
1
1
1
1
1
1
1
1
1
1
1
1
1
1
1
1
1
1
1
1
1
1
1
1
1
1
1
1
1
1
1
1
1
1
1
1
1
1
1
1
1
1
1
1
1
1
1
1
1
1
1
1
1
1
1
1
1
1
1
1
1
1
1
1
1
1
1
1
1
1
1
1
1
1
1
1
1
1
1
1
1
1
1
1
1
1
1
1
1
1
1
1
1
1
1
1
1
1
1
1
1
1
1
1
1
1
1
1
1
1
1
1
1
1
1
1
1
1
1
1
1
1
1
1
1
1
1
1
1
1
1
1
1
1
1
1
1
1
1
1
1
1
1
1
1
1
1
1
1
1
1
1
1
1
1
1
1
1
1
1
1
1
1
1
1
1
1
1.29184
1.74017
2.33483
2.928
3.50515
4.20167
4.67749
5.07504
5.33456
5.25222
4.95905
4.49315
4.05867
3.75902
3.66105
3.58708
3.56515
3.59379
3.63134
3.66342
3.69014
3.70983
3.72758
3.74757
3.75891
3.7617
3.76154
3.76093
3.76237
3.76085
3.7571
3.75695
3.7624
3.77563
3.79068
3.79608
3.79546
3.79237
3.78538
3.77554
3.77001
3.76949
3.76996
3.77158
3.77348
3.77405
3.77398
3.77078
1.0023
1.01875
1.0634
1.20263
1.41719
1.7557
2.22646
2.75145
3.3324
3.70888
3.92588
4.04179
4.01793
3.94282
3.84823
3.78209
3.72174
3.70862
3.67457
3.66368
3.67341
3.69458
3.71704
3.74186
3.76148
3.76834
3.77199
3.76993
3.76591
3.76507
3.76515
3.76667
3.76963
3.77233
3.77586
3.77792
3.77687
3.77377
3.76946
3.76686
3.76677
3.76749
3.76923
3.77344
3.77802
3.77904
3.77873
3.77739
1
0.999986
0.999997
1.00007
1.00152
1.01254
1.06447
1.21887
1.61091
2.33931
3.33732
3.92629
4.28407
4.31693
4.25496
4.12873
3.97092
3.76223
3.65704
3.64501
3.65589
3.67411
3.69491
3.72374
3.75337
3.76788
3.77458
3.77841
3.77823
3.78014
3.78273
3.78451
3.78572
3.78475
3.78104
3.77632
3.77106
3.76569
3.76147
3.75989
3.76007
3.76097
3.76394
3.77042
3.7771
3.77938
3.77947
3.78145
1
1
1
1
0.999999
0.999981
1.00007
1.00009
1.00573
1.07309
1.40371
2.15788
3.08207
3.96369
4.03946
4.01443
3.99797
3.9081
3.80329
3.74201
3.71716
3.69343
3.67888
3.68613
3.703
3.71928
3.73828
3.75231
3.76188
3.76846
3.7745
3.77931
3.78244
3.78273
3.78185
3.77883
3.77398
3.76985
3.76719
3.7659
3.7662
3.76789
3.77124
3.77596
3.77957
3.77901
3.77689
3.77682
1
1
1
1
1
0.999999
1
1
1
0.999933
1.00155
1.04916
1.28061
2.00717
2.86519
3.61792
4.05119
4.07166
4.00826
3.93032
3.83323
3.74591
3.71119
3.69246
3.6868
3.69684
3.70951
3.72118
3.73292
3.74233
3.74902
3.75334
3.75978
3.76898
3.77205
3.77233
3.77238
3.7717
3.77097
3.77093
3.77273
3.77638
3.78107
3.78475
3.7857
3.78379
3.78017
3.77784
1
1
1
1
1
1
1
1
1
0.999997
0.999998
0.999955
1.00072
1.02851
1.24124
1.77313
2.72746
3.3622
3.87881
3.93232
3.92319
3.85115
3.80367
3.77442
3.7492
3.72233
3.70633
3.70501
3.71124
3.73062
3.74852
3.76022
3.76964
3.77506
3.77591
3.77582
3.77588
3.77467
3.77267
3.77187
3.77285
3.77589
3.77977
3.78067
3.77831
3.77473
3.76915
3.76667
1
1
1
1
1
1
1
1
1
1
1
0.999997
0.999998
0.999962
1.00068
1.0154
1.1959
1.68607
2.57013
3.2434
3.62073
3.84378
3.84567
3.8383
3.79651
3.75784
3.74106
3.7283
3.72373
3.72915
3.7449
3.76777
3.78353
3.78514
3.78255
3.78087
3.77962
3.77754
3.77324
3.77103
3.76974
3.77154
3.77522
3.77504
3.77245
3.76895
3.76456
3.76437
1
1
1
1
1
1
1
1
1
1
1
1
1
0.999997
0.999998
0.999974
1.00062
1.01463
1.13512
1.63044
2.33319
3.25599
3.53339
3.66471
3.69895
3.70274
3.72184
3.71549
3.70902
3.71517
3.72965
3.7456
3.75895
3.77137
3.77559
3.77463
3.77162
3.76862
3.76736
3.76691
3.76888
3.77534
3.77826
3.77835
3.77731
3.77533
3.77231
3.7721
1
1
1
1
1
1
1
1
1
1
1
1
1
1
1
0.999998
0.999998
0.999982
1.00027
1.01493
1.10765
1.53888
2.29591
3.08061
3.58553
3.65454
3.71528
3.71052
3.69725
3.69974
3.70663
3.71566
3.72468
3.73745
3.7484
3.75551
3.75933
3.76146
3.76444
3.76673
3.77066
3.77592
3.77827
3.7797
3.78032
3.77865
3.77528
3.77418
1
1
1
1
1
1
1
1
1
1
1
1
1
1
1
1
1
0.999999
0.999998
0.999985
1.00024
1.01082
1.1237
1.47702
2.24874
2.95466
3.52372
3.70844
3.72357
3.73599
3.73842
3.73354
3.7278
3.72896
3.7366
3.74431
3.75009
3.75584
3.76132
3.76671
3.77329
3.77524
3.77543
3.77707
3.77874
3.77683
3.77393
3.7724
1
1
1
1
1
1
1
1
1
1
1
1
1
1
1
1
1
1
1
0.999998
0.999999
0.999985
1.00045
1.00844
1.11945
1.48073
2.22549
2.92276
3.4134
3.66578
3.75295
3.76331
3.76103
3.75816
3.75245
3.75716
3.76593
3.77194
3.77909
3.78589
3.78921
3.78736
3.78342
3.78097
3.77825
3.7738
3.77016
3.76793
1
1
1
1
1
1
1
1
1
1
1
1
1
1
1
1
1
1
1
1
1
0.999998
0.999998
0.999988
1.0006
1.01058
1.10444
1.52577
2.23153
3.05388
3.38475
3.57208
3.69858
3.73672
3.73204
3.74135
3.75749
3.76709
3.77613
3.78225
3.78453
3.78449
3.78255
3.78176
3.7814
3.77893
3.7761
3.77485
1
1
1
1
1
1
1
1
1
1
1
1
1
1
1
1
1
1
1
1
1
1
1
0.999998
0.999999
0.999991
1.00051
1.01664
1.11483
1.57295
2.29673
3.16106
3.52285
3.60418
3.6517
3.68387
3.71056
3.72987
3.7448
3.75679
3.76588
3.77146
3.77253
3.77048
3.76983
3.76935
3.77022
3.77215
1
1
1
1
1
1
1
1
1
1
1
1
1
1
1
1
1
1
1
1
1
1
1
1
1
0.999999
0.999999
1
1.00067
1.02223
1.15642
1.65234
2.46474
3.20705
3.63758
3.70537
3.73213
3.7435
3.74364
3.74885
3.75649
3.76004
3.75835
3.75875
3.75975
3.76077
3.76383
3.7676
1
1
1
1
1
1
1
1
1
1
1
1
1
1
1
1
1
1
1
1
1
1
1
1
1
1
1
1
0.999998
1.00003
1.00145
1.02949
1.24303
1.8115
2.667
3.31178
3.6571
3.77522
3.78369
3.78583
3.7837
3.78133
3.77606
3.7727
3.77427
3.77537
3.77673
3.77802
1
1
1
1
1
1
1
1
1
1
1
1
1
1
1
1
1
1
1
1
1
1
1
1
1
1
1
1
1
1
0.999997
1.00007
1.00396
1.05032
1.37627
2.0916
2.96925
3.38881
3.61237
3.75113
3.76175
3.76039
3.76947
3.77795
3.78241
3.78655
3.78782
3.78789
1
1
1
1
1
1
1
1
1
1
1
1
1
1
1
1
1
1
1
1
1
1
1
1
1
1
1
1
1
1
1
1
0.999996
1.00025
1.01162
1.10255
1.58035
2.40626
3.33693
3.57879
3.65269
3.6836
3.70972
3.73592
3.7541
3.76608
3.77445
3.77906
1
1
1
1
1
1
1
1
1
1
1
1
1
1
1
1
1
1
1
1
1
1
1
1
1
1
1
1
1
1
1
1
0.999999
0.999999
1.00001
1.001
1.03193
1.22292
1.92934
2.82544
3.49899
3.70558
3.73579
3.75396
3.75601
3.75855
3.76554
3.77432
1
1
1
1
1
1
1
1
1
1
1
1
1
1
1
1
1
1
1
1
1
1
1
1
1
1
1
1
1
1
1
1
1
1
1
0.999998
1.00015
1.00456
1.0905
1.4778
2.38973
3.18427
3.64077
3.79035
3.79787
3.79869
3.79661
3.79469
1
1
1
1
1
1
1
1
1
1
1
1
1
1
1
1
1
1
1
1
1
1
1
1
1
1
1
1
1
1
1
1
1
1
1
1
0.999999
1
1.00111
1.02057
1.25448
1.96002
2.9882
3.43066
3.6101
3.74922
3.76877
3.77017
1
1
1
1
1
1
1
1
1
1
1
1
1
1
1
1
1
1
1
1
1
1
1
1
1
1
1
1
1
1
1
1
1
1
1
1
1
1
0.999999
1.00009
1.00813
1.09543
1.60866
2.56655
3.46026
3.65321
3.69361
3.70756
1
1
1
1
1
1
1
1
1
1
1
1
1
1
1
1
1
1
1
1
1
1
1
1
1
1
1
1
1
1
1
1
1
1
1
1
1
1
1
1
1.00002
1.00138
1.04356
1.33859
2.24414
3.18889
3.69391
3.77102
1
1
1
1
1
1
1
1
1
1
1
1
1
1
1
1
1
1
1
1
1
1
1
1
1
1
1
1
1
1
1
1
1
1
1
1
1
1
1
1
1
1
1.00043
1.01434
1.212
1.92526
2.88742
3.46392
1
1
1
1
1
1
1
1
1
1
1
1
1
1
1
1
1
1
1
1
1
1
1
1
1
1
1
1
1
1
1
1
1
1
1
1
1
1
1
1
1
1
0.999999
1.00009
1.0067
1.09706
1.6917
2.65923
1
1
1
1
1
1
1
1
1
1
1
1
1
1
1
1
1
1
1
1
1
1
1
1
1
1
1
1
1
1
1
1
1
1
1
1
1
1
1
1
1
1
1
1
1.00002
1.00193
1.07447
1.41704
1
1
1
1
1
1
1
1
1
1
1
1
1
1
1
1
1
1
1
1
1
1
1
1
1
1
1
1
1
1
1
1
1
1
1
1
1
1
1
1
1
1
1
1
1
1
1.00166
1.01737
1
1
1
1
1
1
1
1
1
1
1
1
1
1
1
1
1
1
1
1
1
1
1
1
1
1
1
1
1
1
1
1
1
1
1
1
1
1
1
1
1
1
1
1
1
1
1.00001
0.99986
1
1
1
1
1
1
1
1
1
1
1
1
1
1
1
1
1
1
1
1
1
1
1
1
1
1
1
1
1
1
1
1
1
1
1
1
1
1
1
1
1
1
1
1
1
1
1
0.99995
1
1
1
1
1
1
1
1
1
1
1
1
1
1
1
1
1
1
1
1
1
1
1
1
1
1
1
1
1
1
1
1
1
1
1
1
1
1
1
1
1
1
1
1
1
1
1
0.999991
1
1
1
1
1
1
1
1
1
1
1
1
1
1
1
1
1
1
1
1
1
1
1
1
1
1
1
1
1
1
1
1
1
1
1
1
1
1
1
1
1
1
1
1
1
1
1
1
1
1
1
1
1
1
1
1
1
1
1
1
1
1
1
1
1
1
1
1
1
1
1
1
1
1
1
1
1
1
1
1
1
1
1
1
1
1
1
1
1
1
1
1
1
1
1
1
1
1
1
1
1
1
1
1
1
1
1
1
1
1
1
1
1
1
1
1
1
1
1
1
1
1
1
1
1
1
1
1
1
1
1
1
1
1
1
1
1
1
1
1
1
1
1
1
1
1
1
1
1
1
1
1
1
1
1
1
1
1
1
1
1
1
1
1
1
1
1
1
1
1
1
1
1
1
1
1
1
1
1
1
1
1
1
1
1
1
1
1
1
1
1
1
1
1
1
1
1
1
1
1
1
1
1
1
1
1
1
1
1
1
1
1
1
1
1
1
1
1
1
1
1
1
1
1
1
1
1
1
1
1
1
1
1
1
1
1
1
1
1
1
1
1
1
1
1
1
1
1
1
1
1
1
1
1
1
1
1
1
1
1
1
1
1
1
1
1
1
1
1
1
1
1
1
1
1
1
1
1
1
1
1
1
1
1
1
1
1
1
1
1
1
1
1
1
1
1
1
1
1
1
1
1
1
1
1
1
1
1
1
1
1
1
1
1
1
1
1
1
1
1
1
1
1
1
1
1
1
1
1
1
1
1
1
1
1
0.999991
1
1
1
1
1
1
1
1
1
1
1
1
1
1
1
1
1
1
1
1
1
1
1
1
1
1
1
1
1
1
1
1
1
1
1
1
1
1
1
1
1
1
1
1
1
1
1
0.99995
1
1
1
1
1
1
1
1
1
1
1
1
1
1
1
1
1
1
1
1
1
1
1
1
1
1
1
1
1
1
1
1
1
1
1
1
1
1
1
1
1
1
1
1
1
1
1.00001
0.999859
1
1
1
1
1
1
1
1
1
1
1
1
1
1
1
1
1
1
1
1
1
1
1
1
1
1
1
1
1
1
1
1
1
1
1
1
1
1
1
1
1
1
1
1
1
1
1.00168
1.01715
1
1
1
1
1
1
1
1
1
1
1
1
1
1
1
1
1
1
1
1
1
1
1
1
1
1
1
1
1
1
1
1
1
1
1
1
1
1
1
1
1
1
1
1
1.00002
1.00193
1.07465
1.41793
1
1
1
1
1
1
1
1
1
1
1
1
1
1
1
1
1
1
1
1
1
1
1
1
1
1
1
1
1
1
1
1
1
1
1
1
1
1
1
1
1
1
0.999999
1.00009
1.0067
1.09704
1.69188
2.66166
1
1
1
1
1
1
1
1
1
1
1
1
1
1
1
1
1
1
1
1
1
1
1
1
1
1
1
1
1
1
1
1
1
1
1
1
1
1
1
1
1
1
1.00043
1.01433
1.21188
1.92523
2.88819
3.46343
1
1
1
1
1
1
1
1
1
1
1
1
1
1
1
1
1
1
1
1
1
1
1
1
1
1
1
1
1
1
1
1
1
1
1
1
1
1
1
1
1.00002
1.00138
1.04357
1.33865
2.2433
3.1896
3.69424
3.76956
1
1
1
1
1
1
1
1
1
1
1
1
1
1
1
1
1
1
1
1
1
1
1
1
1
1
1
1
1
1
1
1
1
1
1
1
1
1
0.999999
1.00009
1.00813
1.0954
1.60884
2.56633
3.45968
3.65427
3.69431
3.70712
1
1
1
1
1
1
1
1
1
1
1
1
1
1
1
1
1
1
1
1
1
1
1
1
1
1
1
1
1
1
1
1
1
1
1
1
0.999999
1
1.00111
1.02057
1.25448
1.95997
2.98847
3.43029
3.61017
3.74963
3.76896
3.7699
1
1
1
1
1
1
1
1
1
1
1
1
1
1
1
1
1
1
1
1
1
1
1
1
1
1
1
1
1
1
1
1
1
1
1
0.999998
1.00015
1.00456
1.0905
1.47783
2.38962
3.18433
3.64087
3.79027
3.79793
3.79869
3.79663
3.79458
1
1
1
1
1
1
1
1
1
1
1
1
1
1
1
1
1
1
1
1
1
1
1
1
1
1
1
1
1
1
1
1
0.999999
0.999999
1.00001
1.001
1.03193
1.22292
1.92935
2.82546
3.49895
3.70557
3.73584
3.75399
3.75603
3.75854
3.76551
3.77427
1
1
1
1
1
1
1
1
1
1
1
1
1
1
1
1
1
1
1
1
1
1
1
1
1
1
1
1
1
1
1
1
0.999996
1.00025
1.01162
1.10255
1.58035
2.40626
3.33694
3.57877
3.6527
3.68361
3.70973
3.73594
3.75411
3.76607
3.77442
3.77903
1
1
1
1
1
1
1
1
1
1
1
1
1
1
1
1
1
1
1
1
1
1
1
1
1
1
1
1
1
1
0.999997
1.00007
1.00396
1.05032
1.37627
2.09161
2.96924
3.38883
3.61237
3.75113
3.76176
3.7604
3.76947
3.77795
3.78241
3.78655
3.78781
3.78788
1
1
1
1
1
1
1
1
1
1
1
1
1
1
1
1
1
1
1
1
1
1
1
1
1
1
1
1
0.999998
1.00003
1.00145
1.02949
1.24303
1.8115
2.667
3.31178
3.6571
3.77522
3.78369
3.78583
3.78371
3.78133
3.77606
3.7727
3.77427
3.77537
3.77673
3.77801
1
1
1
1
1
1
1
1
1
1
1
1
1
1
1
1
1
1
1
1
1
1
1
1
1
0.999999
0.999999
1
1.00067
1.02223
1.15642
1.65234
2.46474
3.20705
3.63757
3.70537
3.73213
3.7435
3.74364
3.74885
3.7565
3.76005
3.75835
3.75874
3.75975
3.76077
3.76383
3.7676
1
1
1
1
1
1
1
1
1
1
1
1
1
1
1
1
1
1
1
1
1
1
1
0.999998
0.999999
0.999991
1.00051
1.01664
1.11483
1.57295
2.29673
3.16106
3.52285
3.60418
3.6517
3.68387
3.71056
3.72987
3.7448
3.75679
3.76588
3.77146
3.77253
3.77048
3.76983
3.76935
3.77021
3.77215
1
1
1
1
1
1
1
1
1
1
1
1
1
1
1
1
1
1
1
1
1
0.999998
0.999998
0.999988
1.0006
1.01058
1.10444
1.52577
2.23153
3.05388
3.38475
3.57208
3.69857
3.73672
3.73204
3.74135
3.75749
3.76709
3.77613
3.78225
3.78453
3.78449
3.78255
3.78176
3.7814
3.77893
3.7761
3.77485
1
1
1
1
1
1
1
1
1
1
1
1
1
1
1
1
1
1
1
0.999998
0.999999
0.999985
1.00045
1.00844
1.11945
1.48073
2.22549
2.92276
3.4134
3.66578
3.75295
3.76331
3.76103
3.75816
3.75245
3.75716
3.76593
3.77194
3.77909
3.78589
3.78921
3.78736
3.78342
3.78097
3.77825
3.7738
3.77016
3.76793
1
1
1
1
1
1
1
1
1
1
1
1
1
1
1
1
1
0.999999
0.999998
0.999985
1.00024
1.01082
1.1237
1.47702
2.24874
2.95466
3.52372
3.70844
3.72357
3.73599
3.73842
3.73354
3.7278
3.72896
3.7366
3.74431
3.75009
3.75584
3.76132
3.76671
3.77329
3.77524
3.77543
3.77707
3.77874
3.77683
3.77393
3.7724
1
1
1
1
1
1
1
1
1
1
1
1
1
1
1
0.999998
0.999998
0.999982
1.00027
1.01493
1.10765
1.53888
2.29591
3.08061
3.58553
3.65454
3.71529
3.71053
3.69725
3.69974
3.70663
3.71566
3.72468
3.73745
3.7484
3.75551
3.75933
3.76146
3.76443
3.76673
3.77066
3.77592
3.77827
3.7797
3.78032
3.77865
3.77528
3.77418
1
1
1
1
1
1
1
1
1
1
1
1
1
0.999997
0.999998
0.999974
1.00062
1.01463
1.13512
1.63044
2.33319
3.25599
3.53339
3.66471
3.69895
3.70274
3.72183
3.71549
3.70902
3.71517
3.72965
3.7456
3.75895
3.77137
3.77559
3.77463
3.77162
3.76862
3.76736
3.76691
3.76888
3.77534
3.77826
3.77835
3.77731
3.77533
3.77231
3.7721
1
1
1
1
1
1
1
1
1
1
1
0.999997
0.999998
0.999962
1.00068
1.0154
1.1959
1.68607
2.57013
3.2434
3.62073
3.84378
3.84567
3.8383
3.79651
3.75784
3.74106
3.7283
3.72373
3.72915
3.7449
3.76777
3.78353
3.78514
3.78255
3.78087
3.77962
3.77754
3.77324
3.77103
3.76974
3.77154
3.77522
3.77504
3.77245
3.76895
3.76456
3.76437
1
1
1
1
1
1
1
1
1
0.999997
0.999998
0.999955
1.00072
1.02851
1.24124
1.77313
2.72746
3.3622
3.87881
3.93232
3.92319
3.85115
3.80367
3.77442
3.7492
3.72234
3.70633
3.70501
3.71124
3.73062
3.74852
3.76022
3.76964
3.77506
3.77591
3.77582
3.77588
3.77467
3.77268
3.77187
3.77285
3.77589
3.77977
3.78067
3.77831
3.77473
3.76915
3.76667
1
1
1
1
1
0.999999
1
1
1
0.999933
1.00155
1.04916
1.28061
2.00717
2.86519
3.61792
4.05119
4.07166
4.00826
3.93032
3.83323
3.74591
3.71119
3.69246
3.6868
3.69684
3.70951
3.72118
3.73292
3.74233
3.74902
3.75334
3.75978
3.76898
3.77205
3.77233
3.77238
3.7717
3.77097
3.77093
3.77273
3.77637
3.78107
3.78475
3.7857
3.78379
3.78017
3.77784
1
1
1
1
0.999999
0.999981
1.00007
1.00009
1.00573
1.07309
1.40371
2.15788
3.08207
3.96369
4.03946
4.01443
3.99797
3.9081
3.80329
3.74201
3.71716
3.69343
3.67888
3.68613
3.703
3.71928
3.73828
3.75231
3.76188
3.76846
3.7745
3.77931
3.78244
3.78273
3.78185
3.77883
3.77398
3.76985
3.76719
3.7659
3.7662
3.76788
3.77124
3.77596
3.77957
3.77901
3.77689
3.77682
1
0.999986
0.999997
1.00007
1.00152
1.01254
1.06447
1.21887
1.61091
2.33931
3.33732
3.92629
4.28407
4.31693
4.25496
4.12873
3.97092
3.76223
3.65704
3.64501
3.65589
3.67411
3.69491
3.72374
3.75337
3.76788
3.77458
3.77841
3.77823
3.78014
3.78273
3.78451
3.78572
3.78475
3.78104
3.77632
3.77106
3.76569
3.76147
3.75989
3.76007
3.76097
3.76394
3.77042
3.7771
3.77938
3.77947
3.78145
1.0023
1.01875
1.0634
1.20263
1.41719
1.7557
2.22646
2.75145
3.3324
3.70888
3.92588
4.04179
4.01793
3.94282
3.84823
3.78209
3.72174
3.70862
3.67457
3.66368
3.67341
3.69458
3.71704
3.74186
3.76148
3.76834
3.77199
3.76993
3.76591
3.76507
3.76515
3.76667
3.76963
3.77233
3.77586
3.77792
3.77687
3.77377
3.76946
3.76686
3.76677
3.76749
3.76923
3.77344
3.77802
3.77904
3.77873
3.77739
1.29184
1.74017
2.33483
2.928
3.50515
4.20167
4.67749
5.07504
5.33456
5.25222
4.95905
4.49315
4.05867
3.75902
3.66105
3.58708
3.56515
3.59379
3.63134
3.66342
3.69014
3.70983
3.72758
3.74757
3.75891
3.7617
3.76154
3.76093
3.76237
3.76085
3.7571
3.75695
3.7624
3.77563
3.79068
3.79608
3.79546
3.79237
3.78538
3.77554
3.77001
3.76949
3.76996
3.77158
3.77348
3.77405
3.77398
3.77078
2.65235
1.74134
1.08134
0.752998
0.744368
0.706444
0.680752
0.712155
0.795378
0.86049
0.886521
0.930646
0.995185
1.03311
1.03764
1.04456
1.06495
1.06866
1.06474
1.06586
1.06659
1.06114
1.05551
1.05962
1.0642
1.06302
1.05277
1.04109
1.03986
1.04117
1.04226
1.04227
1.04163
1.04148
1.04077
1.03956
1.03969
1.0409
1.04486
1.05011
1.05129
1.05144
1.05114
1.04938
1.04695
1.04627
1.04552
1.04622
1.05665
1.22961
1.8505
3.2085
5.24949
7.84018
10.3568
10.2417
9.29493
8.25192
7.85537
7.83216
7.73412
7.58386
7.45787
7.35035
7.19113
6.94802
6.72387
6.56733
6.43485
6.30943
6.16676
5.98891
5.8292
5.74495
5.69037
5.64831
5.58546
5.50593
5.37588
5.15407
4.90092
4.76305
4.70062
4.66285
4.66991
4.68868
4.6488
4.59027
4.46926
4.2528
4.08447
4.01587
3.9761
3.9444
3.90636
3.85522
3.76774
3.63124
3.54948
3.51952
3.49889
3.49014
3.46762
3.43403
3.36869
3.22103
3.07301
3.02734
3.00706
2.99239
2.98804
2.97364
2.95293
2.92393
2.85795
2.74808
2.6689
2.64191
2.62309
2.60048
2.57223
2.54267
2.50822
2.46718
2.42747
2.39438
2.36293
2.32331
2.26699
2.22135
2.20189
2.18768
2.17302
2.15785
2.1414
2.11916
2.07733
2.00589
1.95136
1.92942
1.91819
1.90975
1.90395
1.89764
1.91795
2.02912
2.33923
2.9324
3.69567
4.38244
5.06492
5.60159
5.71762
5.62188
5.41749
5.18991
5.09695
5.07372
5.04419
4.99802
4.95714
4.9098
4.80343
4.68008
4.62198
4.59595
4.57481
4.56379
4.56574
4.54475
4.51836
4.49244
4.44946
4.36218
4.25134
4.19871
4.17465
4.15351
4.13738
4.11976
4.09628
4.06904
4.02352
3.94436
3.89043
3.87116
3.85829
3.85421
3.84315
3.82256
3.80181
3.72316
3.36096
2.76329
2.24176
1.69326
1.43685
1.29711
1.11452
1.03962
1.01828
0.966932
0.914223
0.909831
0.931692
0.953386
0.966289
0.978485
1.00614
1.01373
1.01625
1.02221
1.03673
1.04811
1.05429
1.06075
1.06165
1.05926
1.04951
1.04377
1.04417
1.04504
1.04612
1.04696
1.04703
1.0471
1.04596
1.04488
1.04458
1.04501
1.04724
1.04893
1.04925
1.04949
1.04928
1.0479
1.04567
1.04306
1.0436
1.05597
1.21734
1.93691
2.77213
3.16245
3.89454
4.8098
6.68284
8.13816
8.68447
8.45176
8.12537
7.89519
7.71387
7.59323
7.50977
7.38851
7.20204
6.96096
6.70952
6.57164
6.46517
6.33915
6.20312
6.0551
5.90578
5.76937
5.67275
5.60693
5.54134
5.45693
5.33623
5.16792
4.9941
4.8594
4.76315
4.70306
4.66013
4.62808
4.59151
4.5283
4.4261
4.28274
4.15139
4.05892
3.98459
3.9346
3.9032
3.86323
3.79326
3.68257
3.58087
3.52763
3.49634
3.47061
3.44694
3.41257
3.35705
3.25333
3.12251
3.04597
3.01442
2.99617
2.97919
2.96071
2.93697
2.90922
2.86547
2.78109
2.69222
2.64655
2.62264
2.60658
2.59293
2.57005
2.53815
2.49536
2.45109
2.41492
2.3805
2.3412
2.29233
2.2486
2.22429
2.20975
2.19491
2.17814
2.15944
2.13538
2.09536
2.02656
1.96153
1.93463
1.92426
1.91755
1.92087
1.96305
2.10756
2.43868
2.833
3.13257
3.42989
3.82099
4.25525
4.70218
5.01716
5.27103
5.31065
5.23853
5.15827
5.10882
5.06121
5.01566
4.97558
4.92628
4.83084
4.70542
4.63366
4.60754
4.59039
4.58111
4.56736
4.54072
4.51527
4.49039
4.45059
4.36627
4.26779
4.21584
4.19183
4.17375
4.15514
4.13448
4.1098
4.07986
4.03531
3.96633
3.90644
3.87803
3.8615
3.85133
3.84534
3.82937
3.80549
3.72705
3.66891
3.32821
2.88153
2.38254
1.9508
1.68586
1.42657
1.20209
1.119
1.04537
0.951245
0.931369
0.941987
0.943082
0.939999
0.945997
0.960114
0.97011
0.976642
0.989371
1.01752
1.03701
1.04375
1.04904
1.05155
1.05084
1.0469
1.04686
1.04868
1.05073
1.05337
1.05368
1.05272
1.05006
1.04583
1.0445
1.04433
1.04518
1.0471
1.04752
1.04781
1.04788
1.04643
1.04529
1.04429
1.04702
1.07456
1.25091
2.0987
3.00248
3.29378
3.33185
3.4015
3.52728
4.14033
5.91941
8.02669
8.70577
8.44657
7.86242
7.57505
7.52379
7.46537
7.31661
7.15172
6.99599
6.77456
6.55109
6.39297
6.26429
6.15069
6.0567
5.95403
5.8252
5.68657
5.56309
5.46021
5.35473
5.2317
5.11203
5.03472
4.96641
4.88159
4.77333
4.67478
4.59178
4.51015
4.41554
4.31588
4.24078
4.18566
4.12041
4.03988
3.95048
3.87542
3.81729
3.75206
3.68093
3.61708
3.55681
3.49999
3.45366
3.41126
3.36286
3.3012
3.23001
3.16711
3.1034
3.03634
2.99067
2.9665
2.94851
2.92643
2.89069
2.82577
2.75006
2.69786
2.66161
2.62982
2.59958
2.57439
2.54998
2.51687
2.4685
2.41398
2.37741
2.35015
2.31908
2.28619
2.2512
2.20915
2.17931
2.16512
2.15037
2.13286
2.11089
2.07492
2.02202
1.97582
1.94945
1.9438
1.95263
2.0271
2.25548
2.62486
3.0716
3.2376
3.22103
3.23631
3.31906
3.53793
3.948
4.45397
4.98693
5.19855
5.24685
5.20063
5.13127
5.04646
5.00933
4.9664
4.90239
4.81648
4.707
4.64702
4.62349
4.60656
4.58862
4.5625
4.5356
4.50843
4.47251
4.41291
4.32935
4.26876
4.24011
4.2093
4.16798
4.13173
4.10542
4.08045
4.0516
4.01348
3.97431
3.93991
3.90087
3.86195
3.83447
3.81095
3.78696
3.75888
3.69443
3.75405
3.61784
3.32353
2.91975
2.47374
2.13726
1.84618
1.55132
1.41673
1.31156
1.14893
1.08372
1.06262
1.01149
0.962923
0.961895
0.957969
0.942119
0.940484
0.949404
0.975627
1.00024
1.01185
1.01932
1.03134
1.03603
1.03812
1.04144
1.04733
1.05335
1.05494
1.05508
1.05392
1.05137
1.04886
1.0484
1.04949
1.05299
1.0543
1.05356
1.05223
1.04944
1.04353
1.04244
1.04687
1.1151
1.42083
2.12038
3.23043
3.48244
3.42284
3.38308
3.36787
3.34263
3.34648
3.67516
5.10527
7.40855
7.95101
7.75359
7.66903
7.56015
7.42157
7.23999
7.11832
7.02162
6.82133
6.53709
6.34862
6.24384
6.16064
6.08541
6.00554
5.89775
5.73273
5.52024
5.348
5.24409
5.17959
5.13875
5.11556
5.06573
4.98508
4.86348
4.68687
4.51564
4.39292
4.31421
4.267
4.23898
4.21912
4.17679
4.10803
3.9947
3.85834
3.78303
3.74771
3.71665
3.6722
3.60988
3.52616
3.43654
3.36284
3.30781
3.26927
3.24163
3.21094
3.16129
3.09209
3.02251
2.97069
2.93454
2.89928
2.85545
2.79575
2.737
2.70905
2.68778
2.65728
2.61106
2.57343
2.55187
2.52266
2.47282
2.40983
2.36218
2.33944
2.32373
2.30208
2.26859
2.22012
2.17643
2.15381
2.13905
2.12399
2.10249
2.07013
2.02802
1.98736
1.97614
1.99005
2.10345
2.45543
2.84274
3.20113
3.39568
3.40605
3.35088
3.27708
3.26419
3.27841
3.38506
3.64916
4.1292
4.6514
5.01102
5.06428
5.07225
5.07101
5.0515
4.98715
4.89139
4.81232
4.73313
4.68569
4.66545
4.63212
4.59548
4.5684
4.54083
4.50019
4.43948
4.36922
4.32709
4.30441
4.27602
4.23513
4.18316
4.13637
4.09902
4.06601
4.03778
4.01781
3.99872
3.96871
3.92665
3.87708
3.83063
3.79358
3.75788
3.72451
3.68159
3.76589
3.73213
3.5946
3.31711
2.92241
2.58148
2.25167
1.91682
1.72435
1.58486
1.38568
1.25322
1.18384
1.10505
1.00348
0.980758
0.970879
0.946017
0.943529
0.952025
0.966788
0.971341
0.975814
0.97985
0.990396
1.005
1.01652
1.02734
1.03803
1.04653
1.04992
1.05093
1.04967
1.04629
1.04652
1.05031
1.05656
1.05978
1.05972
1.05848
1.05526
1.049
1.04236
1.04434
1.12524
1.66915
2.42301
3.18909
3.54896
3.5599
3.47942
3.38378
3.3324
3.33383
3.27152
3.24191
3.38764
4.38172
6.34729
7.45904
7.70237
7.54002
7.28743
7.1554
7.08421
6.9763
6.79064
6.52163
6.32877
6.23943
6.16448
6.08337
5.98747
5.87967
5.71585
5.46818
5.29075
5.21495
5.15925
5.1174
5.09476
5.04542
4.98223
4.8782
4.66773
4.44786
4.34492
4.29223
4.25141
4.22162
4.19163
4.14832
4.10442
4.02569
3.87914
3.77268
3.72253
3.68232
3.64378
3.59586
3.52195
3.41406
3.32743
3.28212
3.25037
3.22155
3.19133
3.15937
3.12502
3.07265
2.99061
2.9033
2.84139
2.80167
2.77982
2.76483
2.74782
2.72554
2.68975
2.63774
2.58304
2.53708
2.50028
2.45704
2.40858
2.36931
2.33502
2.30131
2.27208
2.24325
2.21543
2.18653
2.15691
2.12825
2.1063
2.08175
2.0588
2.03215
2.02187
2.07351
2.24611
2.66434
3.09068
3.3432
3.47363
3.48055
3.46204
3.38021
3.29716
3.27143
3.2464
3.23826
3.26849
3.41793
3.78849
4.29302
4.79857
4.977
5.06739
5.04084
4.95124
4.86875
4.81547
4.77
4.72497
4.67815
4.63811
4.60519
4.56916
4.52079
4.45531
4.38934
4.34753
4.32042
4.29543
4.26842
4.23638
4.19629
4.14812
4.10272
4.06832
4.036
4.00356
3.97335
3.94429
3.91174
3.87277
3.82482
3.77873
3.74299
3.7156
3.66929
3.76513
3.74877
3.70497
3.56381
3.2759
2.96126
2.65169
2.31041
2.05906
1.87088
1.66038
1.49782
1.3982
1.29872
1.15904
1.11482
1.08661
1.03497
1.00129
1.00342
0.995884
0.975919
0.964548
0.961669
0.962647
0.968118
0.98087
1.00015
1.02129
1.03199
1.03833
1.04212
1.04209
1.04108
1.04244
1.0509
1.05852
1.05981
1.06017
1.05914
1.05418
1.04718
1.05036
1.12357
1.71007
2.72612
3.23566
3.52501
3.58398
3.52963
3.47844
3.40283
3.30356
3.2572
3.23703
3.19299
3.15745
3.21231
3.80362
5.39692
6.87842
7.15228
7.20032
7.2042
7.13057
6.95052
6.74236
6.52084
6.331
6.22864
6.1481
6.06544
5.97185
5.87002
5.7176
5.47114
5.2825
5.21052
5.15309
5.10576
5.073
5.02401
4.95883
4.85741
4.6654
4.44795
4.34596
4.29313
4.2465
4.20443
4.17542
4.14464
4.09797
4.0122
3.87637
3.76419
3.70873
3.67097
3.63469
3.59245
3.52458
3.40375
3.29802
3.2605
3.23729
3.22123
3.21553
3.19779
3.16715
3.10778
2.98366
2.86551
2.8179
2.78837
2.76003
2.7376
2.71888
2.70105
2.68594
2.66018
2.59672
2.52176
2.47775
2.45236
2.42516
2.38972
2.34576
2.30168
2.26611
2.23849
2.21553
2.19209
2.16113
2.12313
2.09126
2.07057
2.06259
2.07612
2.17501
2.47405
2.87801
3.34309
3.44845
3.50498
3.5094
3.48091
3.42922
3.36465
3.31326
3.28782
3.25625
3.22684
3.20584
3.21108
3.27386
3.49407
3.95868
4.50707
4.81155
4.89652
4.88918
4.88563
4.86438
4.82695
4.76467
4.70246
4.66098
4.6236
4.56622
4.47472
4.39249
4.35637
4.33366
4.31713
4.30094
4.27597
4.24885
4.21737
4.17805
4.12757
4.07259
4.02947
3.99605
3.96775
3.94064
3.91057
3.87296
3.8281
3.78342
3.73606
3.69969
3.65739
3.76405
3.75559
3.73248
3.67468
3.51699
3.28273
2.98095
2.6575
2.40358
2.17912
1.93585
1.75884
1.6221
1.49503
1.3525
1.2781
1.22238
1.1406
1.06441
1.0482
1.02273
0.987065
0.973578
0.971836
0.96665
0.967336
0.972964
0.985964
0.995985
1.0003
1.00529