/*--------------------------------*- C++ -*----------------------------------*\
  =========                 |
  \\      /  F ield         | OpenFOAM: The Open Source CFD Toolbox
   \\    /   O peration     | Website:  https://openfoam.org
    \\  /    A nd           | Version:  7
     \\/     M anipulation  |
\*---------------------------------------------------------------------------*/
FoamFile
{
    version     2.0;
    format      ascii;
    class       volScalarField;
    location    "3";
    object      T;
}
// * * * * * * * * * * * * * * * * * * * * * * * * * * * * * * * * * * * * * //

dimensions      [0 0 0 1 0 0 0];

internalField   nonuniform List<scalar> 
18432
(
1
1
1
1
1
1
1
1
1
1
1
1
1
1
1
1
1
1
1
1
1
1
1
1
1
1
1
1
1
1
1
1
1
1
1
1
1
1
1
1
1
1
1
1
1
1
1
1
1
1
1
1
1
1
1
1
1
1
1
1
1
1
1
1
1
1
1
1
1
1
1
1
1
1
1
1
1
1
1
1
1
1
1
1
1
1
1
1
1
1
1
1
1
1
1
1
1
1
1
1
1
1
1
1
1
1
1
1
1
1
1
1
1
1
1
1
1
1
1
1
1
1
1
1
1
1
1
1
1
1
1
1
1
1
1
1
1
1
1
1
1
1
1
1
1
1
1
1
1
1
1
1
1
1
1
1
1
1
1
1
1
1
1
1
1
1
1
1
1
1
1
1
1
1
1
1
1
1
1
1
1
1
1
1
1
1
1
1
1
1
1
1
1
1
1
1
1
1
1
1
1
1
1
1
1
1
1
1
1
1
1
1
1
1
1
1
1
1
1
1
1
1
1
1
1
1
1
1
1
1
1
1
1
1
1
1
1
1
1
1
1
1
1
1
1
1
1
1
1
1
1
1
1
1
1
1
1
1
1
1
1
1
1
1
1
1
1
1
1
1
1
1
1
1
1
1
1
1
1
1
1
1
1
1
1
1
1
1
1
1
1
1
1
1
1
1
1
1
1
1
1
1
1
1
1
1
1
1
1
1
1
1
1
1
1
1
1
1
1
1
1
1
1
1
1
1
1
1
1
1
1
1
1
1
1
1
1
1
1
1
1
1
1
1
1
1
1
1
1
1
1
1
1
1
1
1
1
1
1
1
1
1
1
1
1
1
1
1
1
1
1
1
1
1
1
1
1
1
1
1
1
1
1
1
1
1
1
1
1
1
1
1
1
1
1
1
1
1
1
1
1
1
1
1
1
1
1
1
1
1
1
1
1
1
1
1
1
1
1
1
1
1
1
1
1
1
1
1
1
1
1
1
1
1
1
1
1
1
1
1
1
1
1
1
1
1
1
1
1
1
1
1
1
1
1
1
1
1
1
1
1
1
1
1
1
1
1
1
1
1
1
1
1
1
1
1
1
1
1
1
1
1
1
1
1
1
1
1
1
1
1
1
1
1
1
1
1
1
1
1
1
1
1
1
1
1
1
1
1
1
1
1
1
1
1
1
1
1
1
1
1
1
1
1
1
1
1
1
1
1
1
1
1
1
1
1
1
1
1
1
1
1
1
1
1
1
1
1
1
1
1
1
1
1
1
1
1
1
1
1
1
1
1
1
1
1
1
1
1
1
1
1
1
1
1
1
1
1
1
1
1
1
1
1
1
1
1
1
1
1
1
1
1
1
1
1
1
1
1
1
1
1
1
1
1
1
1
1
1
1
1
1
1
1
1
1
1
1
1
1
1
1
1
1
1
1
1
1
1
1
1
1
1
1
1
1
1
1
1
1
1
1
1
1
1
1
1
1
1
1
1
1
1
1
1
1
1
1
1
1
1
1
1
1
1
1
1
1
1
1
1
1
1
1
1
1
1
1
1
1
1
1
1
1
1
1
1
1
1
1
1
1
1
1
1
1
1
1
1
1
1
1
1
1
1
1
1
1
1
1
1
1
1
1
1
1
1
1
1
1
1
1
1
1
1
1
1
1
1
1
1
1
1
1
1
1
1
1
1
1
1
1
1
1
1
1
1
1
1
1
1
1
1
1
1
1
1
1
1
1
1
1
1
1
1
1
1
1
1
1
1
1
1
1
1
1
1
1
1
1
1
1
1
1
1
1
1
1
1
1
1
1
1
1
1
1
1
1
1
1
1
1
1
1
1
1
1
1
1
1
1
1
1
1
1
1
1
1
1
1
1
1
1
1
1
1
1
1
1
1
1
1
1
1
1
1
1
1
1
1
1
1
1
1
1
1
1
1
1
1
1
1
1
1
1
1
1
1
1
1
1
1
1
1
1
1
1
1
1
1
1
1
1
1
1
1
1
1
1
1
1
1
1
1
1
1
1
1
1
1
1
1
1
1
1
1
1
1
1
1
1
1
1
1
1
1
1
1
1
1
1
1
1
1
1
1
1
1
1
1
1
1
1
1
1
1
1
1
1
1
1
1
1
1
1
1
1
1
1
1
1
1
1
1
1
1
1
1
1
1
1
1
1
1
1
1
1
1
1
1
1
1
1
1
1
1
1
1
1
1
1
1
1
1
1
1
1
1
1
1
1
1
1
1
1
1
1
1
1
1
1
1
1
1
1
1
1
1
1
1
1
1
1
1
1
1
1
1
1
1
1
1
1
1
1
1
1
1
1
1
1
1
1
1
1
1
1
1
1
1
1
1
1
1
1
1
1
1
1
1
1
1
1
1
1
1
1
1
1
1
1
1
1
1
1
1
1
1
1
1
1
1
1
1
1
1
1
1
1
1
1
1
1
1
1
1
1
1
1
1
1
1
1
1
1
1
1
1
1
1
1
1
1
1
1
1
1
1
1
1
1
1
1
1
1
1
1
1
1
1
1
1
1
1
1
1
1
1
1
1
1
1
1
1
1
1
1
1
1
1
1
1
1
1
1
1
1
1
1
1
1
1
1
1
1
1
1
1
1
1
1
1
1
1
1
1
1
1
1
1
1
1
1
1
1
1
1
1
1
1
1
1
1
1
1
1
1
1
1
1
1
1
1
1
1
1
1
1
1
1
1
1
1
1
1
1
1
1
1
1
1
1
1
1
1
1
1
1
1
1
1
1
1
1
1
1
1
1
1
1
1
1
1
1
1
1
1
1
1
1
1
1
1
1
1
1
1
1
1
1
1
1
1
1
1
1
1
1
1
1
1
1
1
1
1
1
1
1
1
1
1
1
1
1
1
1
1
1
1
1
1
1
1
1
1
1
1
1
1
1
1
1
1
1
1
1
1
1
1
1
1
1
1
1
1
1
1
1
1
1
1
1
1
1
1
1
1
1
1
1
1
1
1
1
1
1
1
1
1
1
1
1
1
1
1
1
1
1
1
1
1
1
1
1
1
1
1
1
1
1
1
1
1
1
1
1
1
1
1
1
1
1
1
1
1
1
1
1
1
1
1
1
1
1
1
1
1
1
1
1
1
1
1
1
1
1
1
1
1
1
1
1
1
1
1
1
1
1
1
1
1
1
1
1
1
1
1
1
1
1
1
1
1
1
1
1
1
1
1
1
1
1
1
1
1
1
1
1
1
1
1
1
1
1
1
1
1
1
1
1
1
1
1
1
1
1
1
1
1
1
1
1
1
1
1
1
1
1
1
1
1
1
1
1
1
1
1
1
1
1
1
1
1
1
1
1
1
1
1
1
1
1
1
1
1
1
1
1
1
1
1
1
1
1
1
1
1
1
1
1
1
1
1
1
1
1
1
1
1
1
1
1
1
1
1
1
1
1
1
1
1
1
1
1
1
1
1
1
1
1
1
1
1
1
1
1
1
1
1
1
1
1
1
1
1
1
1
1
1
1
1
1
1
1
1
1
1
1
1
1
1
1
1
1
1
1
1
1
1
1
1
1
1
1
1
1
1
1
1
1
1
1
1
1
1
1
1
1
1
1
1
1
1
1
1
1
1
1
1
1
1
1
1
1
1
1
1
1
1
1
1
1
1
1
1
1
1
1
1
1
1
1
1
1
1
1
1
1
1
1
1
1
1
1
1
1
1
1
1
1
1
1
1
1
1
1
1
1
1
1
1
1
1
1
1
1
1
1
1
1
1
1
1
1
1
1
1
1
1
1
1
1
1
1
1
1
1
1
1
1
1
1
1
1
1
1
1
1
1
1
1
1
1
1
1
1
1
1
1
1
1
1
1
1
1
1
1
1
1
1
1
1
1
1
1
1
1
1
1
1
1
1
1
1
1
1
1
1
1
1
1
1
1
1
1
1
1
1
1
1
1
1
1
1
1
1
1
1
1
1
1
1
1
1
1
1
1
1
1
1
1
1
1
1
1
1
1
1
1
1
1
1
1
1
1
1
1
1
1
1
1
1
1
1
1
1
1
1
1
1
1
1
1
1
1
1
1
1
1
1
1
1
1
1
1
1
1
1
1
1
1
1
1
1
1
1
1
1
1
1
1
1
1
1
1
1
1
1
1
1
1
1
1
1
1
1
1
1
1
1
1
1
1
1
1
1
1
1
1
1
1
1
1
1
1
1
1
1
1
1
1
1
1
1
1
1
1
1
1
1
1
1
1
1
1
1
1
1
1
1
1
1
1
1
1
1
1
1
1
1
1
1
1
1
1
1
1
1
1
1
1
1
1
1
1
1
1
1
1
1
1
1
1
1
1
1
1
1
1
1
1
1
1
1
1
1
1
1
1
1
1
1
1
1
1
1
1
1
1
1
1
1
1
1
1
1
1
1
1
1
1
1
1
1
1
1
1
1
1
1
1
1
1
1
1
1
1
1
1
1
1
1
1
1
1
1
1
1
1
1
1
1
1
1
1
1
1
1
1
1
1
1
1
1
1
1
1
1
1
1
1
1
1
1
1
1
1
1
1
1
1
1
1
1
1
1
1
1
1
1
1
1
1
1
1
1
1
1
1
1
1
1
1
1
1
1
1
1
1
1
1
1
1
1
1
1
1
1
1
1
1
1
1
1
1
1
1
1
1
1
1
1
1
1
1
1
1
1
1
1
1
1
1
1
1
1
1
1
1
1
1
1
1
1
1
1
1
1
1
1
1
1
1
1
1
1
1
1
1
1
1
1
1
1
1
1
1
1
1
1
1
1
1
1
1
1
1
1
1
1
1
1
1
1
1
1
1
1
1
1
1
1
1
1
1
1
1
1
1
1
1
1
1
1
1
1
1
1
1
1
1
1
1
1
1
1
1
1
1
1
1
1
1
1
1
1
1
1
1
1
1
1
1
1
1
1
1
1
1
1
1
1
1
1
1
1
1
1
1
1
1
1
1
1
1
1
1
1
1
1
1
1
1
1
1
1
1
1
1
1
1
1
1
1
1
1
1
1
1
1
1
1
1
1
1
1
1
1
1
1
1
1
1
1
1
1
1
1
1
1
1
1
1
1
1
1
1
1
1
1
1
1
1
1
1
1
1
1
1
1
1
1
1
1
1
1
1
1
1
1
1
1
1
1
1
1
1
1
1
1
1
1
1
1
1
1
1
1
1
1
1
1
1
1
1
1
1
1
1
1
1
1
1
1
1
1
1
1
1
1
1
1
1
1
1
1
1
1
1
1
1
1
1
1
1
1
1
1
1
1
1
1
1
1
1
1
1
1
1
1
1
1
1
1
1
1
1
1
1
1
1
1
1
1
1
1
1
1
1
1
1
1
1
1
1
1
1
1
1
1
1
1
1
1
1
1
1
1
1
1
1
1
1
1
1
1
1
1
1
1
1
1
1
1
1
1
1
1
1
1
1
1
1
1
1
1
1
1
1
1
1
1
1
1
1
1
1
1
1
1
1
1
1
1
1
1
1
1
1
1
1
1
1
1
1
1
1
1
1
1
1
1
1
1
1
1
1
1
1
1
1
1
1
1
1
1
1
1
1
1
1
1
1
1
1
1
1
1
1
1
1
1
1
1
1
1
1
1
1
1
1
1
1
1
1
1
1
1
1
1
1
1
1
1
1
1
1
1
1
1
1
1
1
1
1
1
1
1
1
1
1
1
1
1
1
1
1
1
1
1
1
1
1
1
1
1
1
1
1
1
1
1
1
1
1
1
1
1
1
1
1
1
1
1
1
1
1
1
1
1
1
1
1
1
1
1
1
1
1
1
1
1
1
1
1
1
1
1
1
1
1
1
1
1
1
1
1
1
1
1
1
1
1
1
1
1
1
1
1
1
1
1
1
1
1
1
1
1
1
1
1
1
1
1
1
1
1
1
1
1
1
1
1
1
1
1
1
1
1
1
1
1
1
1
1
1
1
1
1
1
1
1
1
1
1
1
1
1
1
1
1
1
1
1
1
1
1
1
1
1
1
1
1
1
1
1
1
1
1
1
1
1
1
1
1
1
1
1
1
1
1
1
1
1
1
1
1
1
1
1
1
1
1
1
1
1
1
1
1
1
1
1
1
1
1
1
1
1
1
1
1
1
1
1
1
1
1
1
1
1
1
1
1
1
1
1
1
1
1
1
1
1
1
1
1
1
1
1
1
1
1
1
1
1
1
1
1
1
1
1
1
1
1
1
1
1
1
1
1
1
1
1
1
1
1
1
1
1
1
1
1
1
1
1
1
1
1
1
1
1
1
1
1
1
1
1
1
1
1
1
1
1
1
1
1
1
1
1
1
1
1
1
1
1
1
1
1
1
1
1
1
1
1
1
1
1
1
1
1
1
1
1
1
1
1
1
1
1
1
1
1
1
1
1
1
1
1
1
1
1
1
1
1
1
1
1
1
1
1
1
1
1
1
1
1
1
1
1
1
1
1
1
1
1
1
1
1
1
1
1
1
1
1
1
1
1
1
1
1
1
1
1
1
1
1
1
1
1
1
1
1
1
1
1
1
1
1
1
1
1
1
1
1
1
1
1
1
1
1
1
1
1
1
1
1
1
1
1
1
1
1
1
1
1
1
1
1
1
1
1
1
1
1
1
1
1
1
1
1
1
1
1
1
1
1
1
1
1
1
1
1
1
1
1
1
1
1
1
1
1
1
1
1
1
1
1
1
1
1
1
1
1
1
1
1
1
1
1
1
1
1
1
1
1
1
1
1
1
1
1
1
1
1
1
1
1
1
1
1
1
1
1
1
1
1
1
1
1
1
1
1
1
1
1
1
1
1
1
1
1
1
1
1
1
1
1
1
1
1
1
1
1
1
1
1
1
1
1
1
1
1
1
1
1
1
1
1
1
1
1
1
1
1
1
1
1
1
1
1
1
1
1
1
1
1
1
1
1
1
1
1
1
1
1
1
1
1
1
1
1
1
1
1
1
1
1
1
1
1
1
1
1
1.07835
1.17743
1.28796
1.38478
1.46935
1.56047
1.62002
1.66477
1.69512
1.69032
1.66349
1.61534
1.56948
1.53506
1.52517
1.51714
1.51433
1.51741
1.52199
1.52665
1.53092
1.53392
1.53601
1.53804
1.53934
1.54012
1.54074
1.54149
1.54197
1.54174
1.54126
1.54136
1.54245
1.54458
1.54664
1.54737
1.54735
1.54704
1.54621
1.54523
1.54493
1.5451
1.54537
1.54572
1.546
1.54616
1.5462
1.54609
1.00073
1.0063
1.0218
1.06874
1.13138
1.21198
1.30135
1.37904
1.45419
1.50302
1.53379
1.55423
1.5639
1.56096
1.55426
1.54792
1.53955
1.5368
1.53188
1.53207
1.53387
1.53683
1.53938
1.54194
1.54395
1.54495
1.54591
1.54603
1.54579
1.54559
1.54544
1.54552
1.54597
1.54657
1.54726
1.54762
1.54751
1.54712
1.54654
1.54633
1.54641
1.54666
1.54705
1.5476
1.54807
1.54817
1.54809
1.54856
1
0.999996
0.999997
1.00002
1.00053
1.00434
1.02241
1.07389
1.1845
1.34311
1.50465
1.58054
1.62174
1.62147
1.6143
1.60016
1.58147
1.55644
1.54266
1.5422
1.54375
1.54634
1.54884
1.5519
1.5546
1.55572
1.5564
1.55694
1.55692
1.557
1.55687
1.55642
1.55607
1.55572
1.55523
1.55469
1.55394
1.55298
1.55211
1.55169
1.5516
1.55162
1.5519
1.55248
1.55294
1.55295
1.55263
1.55365
1
1
1
1
1
0.999994
1.00002
1.00003
1.00207
1.02793
1.14592
1.33595
1.49291
1.61283
1.60845
1.60194
1.60106
1.59094
1.57815
1.57098
1.56779
1.56444
1.56194
1.56248
1.56367
1.5648
1.5663
1.5675
1.56857
1.569
1.56896
1.56857
1.56806
1.56762
1.56726
1.56661
1.56559
1.56432
1.56316
1.56239
1.56211
1.56204
1.56207
1.56212
1.56199
1.5614
1.56024
1.56103
1
1
1
1
1
1
1
1
1
0.999973
1.00058
1.01881
1.10422
1.30587
1.46353
1.57209
1.62585
1.62521
1.61599
1.60626
1.59436
1.58297
1.57787
1.57469
1.57252
1.57332
1.57428
1.57525
1.57645
1.57712
1.57686
1.57636
1.57643
1.57716
1.57728
1.57699
1.57634
1.57533
1.57422
1.57351
1.57341
1.57346
1.57352
1.5734
1.57277
1.57174
1.57016
1.57068
1
1
1
1
1
1
1
1
1
0.999999
0.999999
0.999981
1.00025
1.01066
1.09013
1.24594
1.43722
1.53323
1.60433
1.60939
1.60801
1.59874
1.59222
1.58787
1.58403
1.58092
1.57949
1.57891
1.57921
1.58069
1.58177
1.58265
1.58381
1.58428
1.58417
1.58374
1.58308
1.58221
1.58138
1.58097
1.58089
1.58087
1.58089
1.58055
1.57954
1.57838
1.57684
1.57722
1
1
1
1
1
1
1
1
1
1
1
0.999999
0.999999
0.999985
1.00023
1.00563
1.07174
1.21998
1.40443
1.51205
1.56373
1.5931
1.59373
1.59342
1.58911
1.58572
1.58395
1.5816
1.57992
1.58022
1.58177
1.58464
1.58714
1.58715
1.5866
1.58595
1.58534
1.58465
1.58398
1.58378
1.58357
1.58361
1.58366
1.58335
1.58253
1.58174
1.58085
1.58108
1
1
1
1
1
1
1
1
1
1
1
1
1
0.999999
0.999999
0.99999
1.0002
1.00523
1.04939
1.20313
1.35534
1.50478
1.5453
1.56413
1.57266
1.57449
1.57639
1.57519
1.57485
1.57573
1.57781
1.58015
1.58221
1.58398
1.58434
1.5841
1.58347
1.58302
1.583
1.58311
1.58357
1.58428
1.58436
1.58416
1.58378
1.58347
1.58311
1.58313
1
1
1
1
1
1
1
1
1
1
1
1
1
1
1
0.999999
0.999999
0.999993
1.00008
1.00524
1.0388
1.17337
1.34563
1.47611
1.54672
1.55742
1.56678
1.56805
1.56794
1.56899
1.57041
1.57171
1.57302
1.57496
1.57677
1.57795
1.5787
1.57943
1.58035
1.58114
1.58196
1.58263
1.58291
1.58308
1.58321
1.58316
1.58302
1.58289
1
1
1
1
1
1
1
1
1
1
1
1
1
1
1
1
1
1
1
0.999994
1.00007
1.00371
1.04442
1.15548
1.33094
1.45135
1.53289
1.55839
1.5628
1.56664
1.56759
1.56703
1.56676
1.56746
1.5694
1.57106
1.5725
1.57402
1.57542
1.57672
1.57807
1.57875
1.57917
1.57983
1.58055
1.58077
1.58104
1.58088
1
1
1
1
1
1
1
1
1
1
1
1
1
1
1
1
1
1
1
0.999999
1
0.999995
1.00014
1.0029
1.04184
1.15607
1.32194
1.4406
1.51335
1.54987
1.56164
1.56383
1.56459
1.56553
1.56588
1.56697
1.5687
1.57007
1.57136
1.57278
1.57409
1.57465
1.57506
1.57561
1.57608
1.57628
1.57677
1.57658
1
1
1
1
1
1
1
1
1
1
1
1
1
1
1
1
1
1
1
1
1
0.999999
1
0.999996
1.00019
1.00362
1.03628
1.16663
1.32239
1.45848
1.50627
1.53289
1.55009
1.5567
1.55754
1.56014
1.56288
1.56405
1.56505
1.56626
1.56758
1.56878
1.56961
1.57032
1.57102
1.57141
1.57206
1.57218
1
1
1
1
1
1
1
1
1
1
1
1
1
1
1
1
1
1
1
1
1
1
1
0.999999
1
0.999996
1.00016
1.00567
1.03998
1.1776
1.33552
1.4735
1.52183
1.53278
1.54198
1.54937
1.5531
1.55484
1.55622
1.55794
1.5603
1.56252
1.56361
1.56391
1.56424
1.56458
1.56549
1.56626
1
1
1
1
1
1
1
1
1
1
1
1
1
1
1
1
1
1
1
1
1
1
1
1
1
1
1
0.999999
1.00021
1.0075
1.05421
1.1958
1.36329
1.48012
1.53876
1.54839
1.55182
1.5527
1.55233
1.5531
1.55531
1.5573
1.55818
1.55874
1.55872
1.55876
1.55977
1.56102
1
1
1
1
1
1
1
1
1
1
1
1
1
1
1
1
1
1
1
1
1
1
1
1
1
1
1
1
0.999999
1.00001
1.00047
1.00995
1.08299
1.23242
1.39763
1.49379
1.5422
1.55607
1.55597
1.55632
1.55699
1.55816
1.55844
1.55807
1.55773
1.55746
1.55804
1.55906
1
1
1
1
1
1
1
1
1
1
1
1
1
1
1
1
1
1
1
1
1
1
1
1
1
1
1
1
1
1
0.999999
1.00002
1.00131
1.01707
1.12325
1.29221
1.44574
1.50514
1.53391
1.55139
1.55404
1.55506
1.55681
1.55716
1.55701
1.5572
1.55776
1.55856
1
1
1
1
1
1
1
1
1
1
1
1
1
1
1
1
1
1
1
1
1
1
1
1
1
1
1
1
1
1
1
1
0.999999
1.00008
1.00388
1.03505
1.17864
1.35451
1.49902
1.52928
1.53986
1.54578
1.54933
1.55179
1.55316
1.55415
1.55556
1.557
1
1
1
1
1
1
1
1
1
1
1
1
1
1
1
1
1
1
1
1
1
1
1
1
1
1
1
1
1
1
1
1
1
1
1
1.00031
1.01071
1.07456
1.26144
1.42441
1.52305
1.54936
1.55234
1.55388
1.55316
1.55291
1.55408
1.5564
1
1
1
1
1
1
1
1
1
1
1
1
1
1
1
1
1
1
1
1
1
1
1
1
1
1
1
1
1
1
1
1
1
1
1
0.999999
1.00004
1.00148
1.0308
1.1494
1.352
1.47849
1.54225
1.55943
1.55849
1.5581
1.55835
1.55896
1
1
1
1
1
1
1
1
1
1
1
1
1
1
1
1
1
1
1
1
1
1
1
1
1
1
1
1
1
1
1
1
1
1
1
1
1
1
1.00034
1.00682
1.08469
1.26568
1.45027
1.51283
1.53543
1.55309
1.55627
1.55689
1
1
1
1
1
1
1
1
1
1
1
1
1
1
1
1
1
1
1
1
1
1
1
1
1
1
1
1
1
1
1
1
1
1
1
1
1
1
1
1.00003
1.00263
1.0322
1.18483
1.38365
1.51901
1.54215
1.54796
1.55002
1
1
1
1
1
1
1
1
1
1
1
1
1
1
1
1
1
1
1
1
1
1
1
1
1
1
1
1
1
1
1
1
1
1
1
1
1
1
1
1
1
1.00042
1.01452
1.10842
1.32616
1.48126
1.54961
1.55808
1
1
1
1
1
1
1
1
1
1
1
1
1
1
1
1
1
1
1
1
1
1
1
1
1
1
1
1
1
1
1
1
1
1
1
1
1
1
1
1
1
1
1.00013
1.00463
1.07119
1.25479
1.43405
1.51862
1
1
1
1
1
1
1
1
1
1
1
1
1
1
1
1
1
1
1
1
1
1
1
1
1
1
1
1
1
1
1
1
1
1
1
1
1
1
1
1
1
1
1
1.00003
1.00215
1.03215
1.2042
1.39611
1
1
1
1
1
1
1
1
1
1
1
1
1
1
1
1
1
1
1
1
1
1
1
1
1
1
1
1
1
1
1
1
1
1
1
1
1
1
1
1
1
1
1
1
1.00001
1.0006
1.02462
1.12947
1
1
1
1
1
1
1
1
1
1
1
1
1
1
1
1
1
1
1
1
1
1
1
1
1
1
1
1
1
1
1
1
1
1
1
1
1
1
1
1
1
1
1
1
1
1
1.0005
1.00562
1
1
1
1
1
1
1
1
1
1
1
1
1
1
1
1
1
1
1
1
1
1
1
1
1
1
1
1
1
1
1
1
1
1
1
1
1
1
1
1
1
1
1
1
1
1
1
0.999951
1
1
1
1
1
1
1
1
1
1
1
1
1
1
1
1
1
1
1
1
1
1
1
1
1
1
1
1
1
1
1
1
1
1
1
1
1
1
1
1
1
1
1
1
1
1
1
0.999985
1
1
1
1
1
1
1
1
1
1
1
1
1
1
1
1
1
1
1
1
1
1
1
1
1
1
1
1
1
1
1
1
1
1
1
1
1
1
1
1
1
1
1
1
1
1
1
0.999997
1
1
1
1
1
1
1
1
1
1
1
1
1
1
1
1
1
1
1
1
1
1
1
1
1
1
1
1
1
1
1
1
1
1
1
1
1
1
1
1
1
1
1
1
1
1
1
1
1
1
1
1
1
1
1
1
1
1
1
1
1
1
1
1
1
1
1
1
1
1
1
1
1
1
1
1
1
1
1
1
1
1
1
1
1
1
1
1
1
1
1
1
1
1
1
1
1
1
1
1
1
1
1
1
1
1
1
1
1
1
1
1
1
1
1
1
1
1
1
1
1
1
1
1
1
1
1
1
1
1
1
1
1
1
1
1
1
1
1
1
1
1
1
1
1
1
1
1
1
1
1
1
1
1
1
1
1
1
1
1
1
1
1
1
1
1
1
1
1
1
1
1
1
1
1
1
1
1
1
1
1
1
1
1
1
1
1
1
1
1
1
1
1
1
1
1
1
1
1
1
1
1
1
1
1
1
1
1
1
1
1
1
1
1
1
1
1
1
1
1
1
1
1
1
1
1
1
1
1
1
1
1
1
1
1
1
1
1
1
1
1
1
1
1
1
1
1
1
1
1
1
1
1
1
1
1
1
1
1
1
1
1
1
1
1
1
1
1
1
1
1
1
1
1
1
1
1
1
1
1
1
1
1
1
1
1
1
1
1
1
1
1
1
1
1
1
1
1
1
1
1
1
1
1
1
1
1
1
1
1
1
1
1
1
1
1
1
1
1
1
1
1
1
1
1
1
1
1
1
1
1
1
1
1
1
0.999997
1
1
1
1
1
1
1
1
1
1
1
1
1
1
1
1
1
1
1
1
1
1
1
1
1
1
1
1
1
1
1
1
1
1
1
1
1
1
1
1
1
1
1
1
1
1
1
0.999985
1
1
1
1
1
1
1
1
1
1
1
1
1
1
1
1
1
1
1
1
1
1
1
1
1
1
1
1
1
1
1
1
1
1
1
1
1
1
1
1
1
1
1
1
1
1
1
0.999951
1
1
1
1
1
1
1
1
1
1
1
1
1
1
1
1
1
1
1
1
1
1
1
1
1
1
1
1
1
1
1
1
1
1
1
1
1
1
1
1
1
1
1
1
1
1
1.0005
1.00555
1
1
1
1
1
1
1
1
1
1
1
1
1
1
1
1
1
1
1
1
1
1
1
1
1
1
1
1
1
1
1
1
1
1
1
1
1
1
1
1
1
1
1
1
1.00001
1.0006
1.02469
1.12966
1
1
1
1
1
1
1
1
1
1
1
1
1
1
1
1
1
1
1
1
1
1
1
1
1
1
1
1
1
1
1
1
1
1
1
1
1
1
1
1
1
1
1
1.00003
1.00215
1.03214
1.2043
1.3965
1
1
1
1
1
1
1
1
1
1
1
1
1
1
1
1
1
1
1
1
1
1
1
1
1
1
1
1
1
1
1
1
1
1
1
1
1
1
1
1
1
1
1.00013
1.00463
1.07114
1.2548
1.43424
1.51855
1
1
1
1
1
1
1
1
1
1
1
1
1
1
1
1
1
1
1
1
1
1
1
1
1
1
1
1
1
1
1
1
1
1
1
1
1
1
1
1
1
1.00042
1.01452
1.10842
1.32596
1.4814
1.54968
1.55791
1
1
1
1
1
1
1
1
1
1
1
1
1
1
1
1
1
1
1
1
1
1
1
1
1
1
1
1
1
1
1
1
1
1
1
1
1
1
1
1.00003
1.00263
1.03219
1.18488
1.38358
1.51893
1.5423
1.54805
1.54996
1
1
1
1
1
1
1
1
1
1
1
1
1
1
1
1
1
1
1
1
1
1
1
1
1
1
1
1
1
1
1
1
1
1
1
1
1
1
1.00034
1.00682
1.08469
1.26567
1.45031
1.51277
1.53544
1.55315
1.55629
1.55685
1
1
1
1
1
1
1
1
1
1
1
1
1
1
1
1
1
1
1
1
1
1
1
1
1
1
1
1
1
1
1
1
1
1
1
0.999999
1.00004
1.00148
1.03081
1.14941
1.35198
1.4785
1.54225
1.55943
1.5585
1.5581
1.55835
1.55895
1
1
1
1
1
1
1
1
1
1
1
1
1
1
1
1
1
1
1
1
1
1
1
1
1
1
1
1
1
1
1
1
1
1
1
1.00031
1.01071
1.07456
1.26145
1.42441
1.52305
1.54936
1.55234
1.55388
1.55317
1.55291
1.55408
1.55639
1
1
1
1
1
1
1
1
1
1
1
1
1
1
1
1
1
1
1
1
1
1
1
1
1
1
1
1
1
1
1
1
0.999999
1.00008
1.00388
1.03505
1.17864
1.35451
1.49902
1.52927
1.53986
1.54578
1.54933
1.55179
1.55316
1.55414
1.55555
1.557
1
1
1
1
1
1
1
1
1
1
1
1
1
1
1
1
1
1
1
1
1
1
1
1
1
1
1
1
1
1
0.999999
1.00002
1.00131
1.01707
1.12324
1.29221
1.44574
1.50515
1.53391
1.55139
1.55404
1.55506
1.55681
1.55716
1.55701
1.55719
1.55776
1.55856
1
1
1
1
1
1
1
1
1
1
1
1
1
1
1
1
1
1
1
1
1
1
1
1
1
1
1
1
0.999999
1.00001
1.00047
1.00995
1.08299
1.23242
1.39763
1.49379
1.5422
1.55607
1.55597
1.55632
1.55699
1.55816
1.55844
1.55807
1.55773
1.55746
1.55804
1.55906
1
1
1
1
1
1
1
1
1
1
1
1
1
1
1
1
1
1
1
1
1
1
1
1
1
1
1
0.999999
1.00021
1.0075
1.05421
1.1958
1.36329
1.48012
1.53876
1.54839
1.55182
1.5527
1.55233
1.5531
1.55531
1.5573
1.55818
1.55874
1.55872
1.55876
1.55977
1.56102
1
1
1
1
1
1
1
1
1
1
1
1
1
1
1
1
1
1
1
1
1
1
1
0.999999
1
0.999996
1.00016
1.00567
1.03998
1.1776
1.33552
1.4735
1.52183
1.53278
1.54198
1.54937
1.5531
1.55484
1.55622
1.55794
1.5603
1.56252
1.56361
1.56391
1.56424
1.56458
1.56549
1.56626
1
1
1
1
1
1
1
1
1
1
1
1
1
1
1
1
1
1
1
1
1
0.999999
1
0.999996
1.00019
1.00362
1.03628
1.16663
1.32239
1.45848
1.50627
1.53289
1.55009
1.5567
1.55754
1.56014
1.56288
1.56405
1.56505
1.56626
1.56758
1.56878
1.56961
1.57032
1.57102
1.57141
1.57206
1.57218
1
1
1
1
1
1
1
1
1
1
1
1
1
1
1
1
1
1
1
0.999999
1
0.999995
1.00014
1.0029
1.04184
1.15608
1.32194
1.4406
1.51335
1.54987
1.56164
1.56383
1.56459
1.56553
1.56588
1.56697
1.5687
1.57007
1.57136
1.57278
1.57409
1.57465
1.57506
1.57561
1.57608
1.57628
1.57677
1.57658
1
1
1
1
1
1
1
1
1
1
1
1
1
1
1
1
1
1
1
0.999994
1.00007
1.00371
1.04442
1.15548
1.33094
1.45135
1.53289
1.55839
1.5628
1.56664
1.56759
1.56703
1.56676
1.56746
1.5694
1.57106
1.5725
1.57402
1.57542
1.57672
1.57807
1.57875
1.57917
1.57983
1.58055
1.58077
1.58104
1.58088
1
1
1
1
1
1
1
1
1
1
1
1
1
1
1
0.999999
0.999999
0.999993
1.00008
1.00524
1.03881
1.17337
1.34563
1.47611
1.54672
1.55742
1.56678
1.56805
1.56794
1.56899
1.57041
1.57171
1.57302
1.57496
1.57677
1.57795
1.5787
1.57943
1.58035
1.58114
1.58196
1.58263
1.58291
1.58308
1.58321
1.58316
1.58302
1.58289
1
1
1
1
1
1
1
1
1
1
1
1
1
0.999999
0.999999
0.99999
1.0002
1.00523
1.04939
1.20313
1.35534
1.50478
1.5453
1.56413
1.57266
1.57449
1.57639
1.57519
1.57485
1.57573
1.57781
1.58015
1.58221
1.58398
1.58434
1.5841
1.58347
1.58302
1.583
1.58311
1.58357
1.58428
1.58436
1.58416
1.58378
1.58347
1.58311
1.58313
1
1
1
1
1
1
1
1
1
1
1
0.999999
0.999999
0.999985
1.00023
1.00563
1.07174
1.21998
1.40443
1.51205
1.56373
1.5931
1.59373
1.59342
1.58911
1.58572
1.58395
1.5816
1.57992
1.58022
1.58177
1.58464
1.58714
1.58715
1.5866
1.58595
1.58534
1.58465
1.58398
1.58378
1.58357
1.58361
1.58366
1.58335
1.58253
1.58174
1.58085
1.58108
1
1
1
1
1
1
1
1
1
0.999999
0.999999
0.999981
1.00025
1.01066
1.09013
1.24594
1.43722
1.53323
1.60433
1.60939
1.60801
1.59874
1.59222
1.58787
1.58403
1.58092
1.57949
1.57891
1.57921
1.58069
1.58177
1.58265
1.58381
1.58428
1.58416
1.58374
1.58308
1.58221
1.58138
1.58097
1.58089
1.58087
1.58089
1.58055
1.57954
1.57838
1.57684
1.57722
1
1
1
1
1
1
1
1
1
0.999973
1.00058
1.01881
1.10422
1.30587
1.46353
1.57209
1.62585
1.62521
1.61599
1.60626
1.59436
1.58297
1.57787
1.57469
1.57252
1.57332
1.57428
1.57525
1.57645
1.57712
1.57686
1.57636
1.57643
1.57716
1.57728
1.57699
1.57634
1.57533
1.57422
1.57351
1.57341
1.57346
1.57352
1.5734
1.57277
1.57174
1.57016
1.57068
1
1
1
1
1
0.999994
1.00002
1.00003
1.00207
1.02793
1.14592
1.33595
1.49291
1.61283
1.60845
1.60194
1.60106
1.59094
1.57815
1.57098
1.56779
1.56444
1.56194
1.56248
1.56367
1.5648
1.5663
1.5675
1.56857
1.569
1.56896
1.56857
1.56806
1.56762
1.56726
1.56661
1.56559
1.56432
1.56316
1.56239
1.56211
1.56204
1.56207
1.56212
1.56199
1.5614
1.56024
1.56104
1
0.999996
0.999997
1.00002
1.00053
1.00434
1.02241
1.07389
1.1845
1.34311
1.50465
1.58054
1.62174
1.62147
1.6143
1.60016
1.58147
1.55644
1.54266
1.5422
1.54375
1.54634
1.54884
1.5519
1.5546
1.55572
1.5564
1.55694
1.55692
1.557
1.55687
1.55642
1.55607
1.55572
1.55523
1.55469
1.55394
1.55298
1.55211
1.55169
1.5516
1.55162
1.5519
1.55248
1.55294
1.55295
1.55263
1.55365
1.00073
1.0063
1.0218
1.06874
1.13138
1.21198
1.30135
1.37904
1.45419
1.50302
1.53379
1.55423
1.5639
1.56096
1.55426
1.54792
1.53955
1.5368
1.53188
1.53207
1.53387
1.53683
1.53938
1.54194
1.54395
1.54495
1.54591
1.54603
1.54579
1.54559
1.54544
1.54552
1.54597
1.54657
1.54726
1.54762
1.54751
1.54712
1.54654
1.54633
1.54641
1.54666
1.54705
1.5476
1.54807
1.54817
1.54809
1.54856
1.07835
1.17743
1.28796
1.38478
1.46935
1.56047
1.62002
1.66477
1.69512
1.69032
1.66349
1.61534
1.56948
1.53506
1.52517
1.51714
1.51433
1.51741
1.52199
1.52665
1.53092
1.53392
1.53601
1.53804
1.53934
1.54012
1.54074
1.54149
1.54197
1.54174
1.54126
1.54136
1.54245
1.54458
1.54664
1.54737
1.54735
1.54704
1.54621
1.54523
1.54493
1.5451
1.54537
1.54572
1.546
1.54616
1.5462
1.54609
1.40218
1.24564
1.09879
0.989191
1.00337
1.00663
1.00356
1.01867
1.05454
1.07296
1.07445
1.08256
1.10106
1.11489
1.11646
1.11826
1.12169
1.11992
1.11728
1.11799
1.1186
1.11681
1.11389
1.11436
1.11448
1.1137
1.11022
1.10665
1.10612
1.10601
1.10565
1.10512
1.10445
1.1042
1.1038
1.10323
1.10318
1.1033
1.10406
1.10522
1.10529
1.10517
1.1048
1.1038
1.10289
1.10253
1.1018
1.10198
1.1052
1.16348
1.33646
1.57568
1.81536
2.05041
2.24698
2.24262
2.17736
2.09972
2.07766
2.07841
2.07168
2.05902
2.04766
2.03972
2.02866
2.01053
1.99204
1.97809
1.9664
1.95541
1.94276
1.92677
1.91231
1.90445
1.89927
1.89549
1.88995
1.88246
1.86949
1.84675
1.82074
1.80679
1.80069
1.79698
1.798
1.80021
1.79588
1.78907
1.7751
1.75
1.73039
1.72263
1.71821
1.7146
1.71011
1.70369
1.692
1.6736
1.66266
1.65849
1.65553
1.65423
1.6512
1.64675
1.63794
1.61717
1.59588
1.58954
1.58689
1.58505
1.58464
1.58272
1.57982
1.57573
1.56582
1.54857
1.53584
1.53139
1.52801
1.52379
1.51851
1.51311
1.50711
1.50025
1.49377
1.48834
1.48291
1.47563
1.46502
1.45655
1.45288
1.45016
1.44747
1.44483
1.44203
1.43816
1.43037
1.4162
1.40493
1.40038
1.39819
1.39661
1.39558
1.39444
1.39879
1.42245
1.48433
1.58638
1.69503
1.77964
1.85686
1.91208
1.92682
1.91766
1.89725
1.87389
1.8636
1.86088
1.85777
1.85303
1.84905
1.84425
1.83262
1.8192
1.8133
1.81076
1.8084
1.80705
1.80712
1.80458
1.80197
1.79994
1.79615
1.7868
1.77377
1.7674
1.76432
1.76149
1.75915
1.75676
1.75385
1.75049
1.74475
1.73487
1.72812
1.72566
1.72399
1.72349
1.72218
1.71972
1.71725
1.70853
1.49998
1.42075
1.33949
1.23168
1.17511
1.14552
1.09835
1.08319
1.08167
1.06744
1.05424
1.05463
1.06322
1.07169
1.07621
1.08008
1.0882
1.08969
1.09045
1.09302
1.09896
1.103
1.10453
1.1057
1.10557
1.10466
1.10184
1.10063
1.10087
1.10084
1.10066
1.10054
1.10048
1.10056
1.10036
1.09995
1.09968
1.09968
1.10007
1.10039
1.1004
1.10039
1.10013
1.09935
1.09855
1.09752
1.09797
1.10215
1.15444
1.35403
1.52127
1.56737
1.66221
1.77324
1.96468
2.09222
2.13502
2.12105
2.10154
2.08555
2.07383
2.06453
2.05682
2.04675
2.03237
2.0137
1.99297
1.98096
1.97169
1.96081
1.94882
1.93537
1.92152
1.90876
1.89987
1.89399
1.88815
1.88021
1.86837
1.85096
1.83272
1.8189
1.80919
1.80321
1.79885
1.79538
1.7912
1.78372
1.77179
1.7551
1.73954
1.72865
1.71999
1.71426
1.71056
1.70567
1.69679
1.68181
1.66793
1.66058
1.65625
1.65264
1.64942
1.6448
1.63732
1.62282
1.604
1.59313
1.58891
1.58659
1.58417
1.58146
1.57799
1.57392
1.56734
1.55437
1.54022
1.53268
1.52843
1.52527
1.52239
1.51817
1.51268
1.50545
1.49805
1.49214
1.48646
1.47957
1.4704
1.46214
1.4574
1.45439
1.45158
1.44866
1.44551
1.44138
1.43415
1.42077
1.40753
1.40192
1.39979
1.39856
1.39934
1.40844
1.43833
1.50257
1.5712
1.61712
1.65961
1.71304
1.76824
1.82014
1.85492
1.88295
1.88692
1.87983
1.87174
1.86672
1.86161
1.85672
1.85272
1.84763
1.83738
1.82374
1.81596
1.81328
1.81145
1.81035
1.80862
1.80544
1.80281
1.8007
1.7971
1.78815
1.77644
1.77004
1.76693
1.76444
1.7617
1.7589
1.75595
1.75254
1.74714
1.73832
1.73067
1.72703
1.72485
1.72339
1.72262
1.72081
1.71805
1.70933
1.539
1.49649
1.43623
1.35919
1.28447
1.23294
1.17407
1.11792
1.09682
1.07638
1.0484
1.04533
1.04895
1.04939
1.04918
1.05139
1.05616
1.05963
1.06212
1.06657
1.07572
1.08233
1.08478
1.08628
1.08771
1.08806
1.0879
1.08836
1.0894
1.09018
1.09101
1.09111
1.09093
1.09041
1.08953
1.08934
1.08931
1.08956
1.09009
1.09027
1.09046
1.09052
1.0901
1.08965
1.08947
1.09073
1.10029
1.1569
1.36703
1.54329
1.59428
1.59354
1.59864
1.61651
1.7042
1.91402
2.11902
2.15938
2.13714
2.09031
2.06949
2.0674
2.06362
2.05098
2.03659
2.02364
2.00538
1.98657
1.97276
1.96137
1.95126
1.94267
1.93275
1.9205
1.90764
1.89615
1.88638
1.87618
1.86374
1.85152
1.84322
1.83582
1.82701
1.81592
1.80545
1.79602
1.78634
1.77518
1.76322
1.75431
1.74745
1.73918
1.72939
1.71895
1.71001
1.7028
1.69485
1.68545
1.6761
1.66747
1.65963
1.65322
1.64737
1.64088
1.63247
1.6226
1.61327
1.60394
1.59439
1.58777
1.58429
1.58161
1.57833
1.57294
1.56303
1.551
1.54249
1.53638
1.53078
1.52516
1.52035
1.51599
1.5103
1.50202
1.49293
1.48683
1.48217
1.4768
1.47076
1.46381
1.45542
1.44977
1.44705
1.44429
1.44123
1.4374
1.4308
1.42051
1.41126
1.40571
1.40457
1.40651
1.42243
1.46907
1.53635
1.609
1.63436
1.63185
1.63399
1.64748
1.67961
1.7349
1.79761
1.85982
1.88273
1.88555
1.88032
1.87249
1.86327
1.8595
1.85561
1.84927
1.84033
1.82811
1.82088
1.81814
1.81645
1.81458
1.81169
1.80864
1.8055
1.80154
1.79518
1.78589
1.77869
1.77475
1.77039
1.7648
1.76013
1.75693
1.75411
1.75097
1.74677
1.74178
1.73692
1.73159
1.72647
1.72291
1.71996
1.71708
1.71376
1.70619
1.55621
1.53738
1.49877
1.44282
1.37612
1.32012
1.26367
1.20026
1.17094
1.14488
1.10151
1.08281
1.07694
1.06239
1.04938
1.04972
1.04857
1.04406
1.04399
1.04699
1.05506
1.0625
1.0659
1.06815
1.07174
1.074
1.07553
1.07724
1.07925
1.081
1.08208
1.08234
1.08218
1.08168
1.08112
1.08111
1.0817
1.0829
1.08332
1.08318
1.08299
1.08233
1.08085
1.0808
1.08247
1.10593
1.20225
1.36244
1.55359
1.61398
1.61321
1.60971
1.6051
1.59976
1.60148
1.655
1.85415
2.09102
2.11547
2.09594
2.08888
2.08152
2.07203
2.05776
2.04646
2.03763
2.02099
1.997
1.98028
1.97037
1.96233
1.95499
1.9472
1.93692
1.92121
1.90049
1.88298
1.87219
1.86533
1.86132
1.85907
1.85385
1.84548
1.83263
1.8134
1.79373
1.77873
1.76864
1.7623
1.75854
1.75604
1.75091
1.74277
1.72905
1.71207
1.70244
1.69784
1.69382
1.68757
1.67895
1.66755
1.65525
1.64501
1.63745
1.63218
1.62851
1.6241
1.61668
1.60652
1.59599
1.5881
1.58246
1.57705
1.57046
1.56138
1.55178
1.54687
1.5429
1.53721
1.52899
1.52234
1.51846
1.51349
1.50527
1.49455
1.48619
1.48207
1.47905
1.47508
1.46867
1.4593
1.45113
1.44687
1.44405
1.44128
1.43734
1.43114
1.42263
1.41431
1.41209
1.41514
1.4392
1.50847
1.5758
1.63003
1.65849
1.66095
1.6539
1.64383
1.64422
1.64734
1.6636
1.70124
1.7655
1.82941
1.86793
1.87166
1.8698
1.87008
1.86856
1.86265
1.85366
1.84541
1.83625
1.8302
1.82759
1.82388
1.82004
1.81718
1.81401
1.80921
1.8021
1.79393
1.78898
1.78633
1.78236
1.77638
1.76922
1.76347
1.75915
1.75535
1.75219
1.75009
1.7479
1.74382
1.73808
1.73162
1.72582
1.72106
1.71635
1.71216
1.70665
1.56672
1.55996
1.54017
1.50227
1.44734
1.39651
1.34047
1.27776
1.24096
1.212
1.16524
1.13138
1.11293
1.09097
1.06167
1.05527
1.05229
1.0445
1.04387
1.04674
1.0518
1.0532
1.05458
1.05569
1.05862
1.06283
1.06623
1.06967
1.07303
1.07538
1.07657
1.07735
1.07721
1.07658
1.07673
1.07797
1.08002
1.08115
1.08118
1.08099
1.08034
1.07878
1.07708
1.07777
1.10452
1.27058
1.43446
1.55002
1.61603
1.62838
1.62632
1.61987
1.61145
1.60866
1.59766
1.59708
1.62319
1.77766
1.9998
2.09461
2.10755
2.09377
2.07217
2.0611
2.05453
2.04466
2.02894
2.00586
1.98847
1.97971
1.97205
1.9638
1.95438
1.94395
1.9278
1.90288
1.88438
1.87623
1.87041
1.86592
1.86351
1.85833
1.85162
1.8402
1.81671
1.79116
1.77817
1.77088
1.76513
1.76089
1.75718
1.75247
1.74759
1.73788
1.71916
1.70524
1.69823
1.69286
1.68797
1.68177
1.67178
1.65702
1.64464
1.63796
1.6336
1.62994
1.62609
1.62155
1.61607
1.60774
1.59484
1.58099
1.57103
1.56464
1.56107
1.55872
1.55581
1.55179
1.54563
1.53676
1.52718
1.51901
1.51272
1.5057
1.49722
1.49004
1.48365
1.47713
1.47167
1.46629
1.46099
1.45519
1.44943
1.44399
1.43978
1.4352
1.43056
1.42483
1.42293
1.43391
1.46913
1.5465
1.61813
1.6565
1.6738
1.6742
1.67177
1.66124
1.65123
1.64885
1.64585
1.64597
1.6509
1.67356
1.72619
1.79052
1.84888
1.86641
1.87576
1.87336
1.86419
1.8562
1.85061
1.84543
1.84017
1.83456
1.82978
1.82614
1.82211
1.81644
1.80868
1.8008
1.79576
1.79242
1.78914
1.78536
1.78075
1.77511
1.76885
1.76344
1.75943
1.7557
1.75181
1.74821
1.74467
1.74041
1.73509
1.72858
1.72247
1.71781
1.71444
1.70853
1.57475
1.5706
1.56266
1.54225
1.50275
1.45802
1.40973
1.3535
1.31089
1.27487
1.22945
1.19348
1.17093
1.14622
1.10856
1.09649
1.08828
1.07267
1.06212
1.06316
1.06145
1.05621
1.05271
1.05129
1.05146
1.05305
1.05707
1.0631
1.06944
1.07243
1.07419
1.0756
1.07583
1.07568
1.07618
1.0785
1.08058
1.08121
1.08152
1.08135
1.08027
1.0783
1.0793
1.10319
1.27213
1.50048
1.58213
1.62111
1.63586
1.63086
1.6303
1.6273
1.61587
1.6072
1.6021
1.59325
1.59105
1.60109
1.69787
1.9046
2.04762
2.0676
2.06962
2.0692
2.06296
2.0476
2.02952
2.01022
1.9932
1.98358
1.97554
1.9672
1.958
1.94807
1.93315
1.9083
1.88868
1.88115
1.8752
1.87027
1.86667
1.86103
1.85343
1.84203
1.82055
1.79515
1.78253
1.7756
1.7693
1.76362
1.75976
1.75607
1.75061
1.74041
1.72349
1.70874
1.70126
1.69614
1.69115
1.68519
1.67569
1.65879
1.64363
1.63819
1.635
1.633
1.63256
1.6301
1.62506
1.61558
1.59634
1.57773
1.56981
1.56464
1.55972
1.556
1.55297
1.55012
1.54774
1.54332
1.53253
1.51971
1.5121
1.50759
1.50287
1.49654
1.48845
1.48045
1.47383
1.46842
1.46382
1.45906
1.45286
1.4453
1.43899
1.43503
1.43318
1.43601
1.45641
1.51474
1.58467
1.65769
1.67546
1.6837
1.68337
1.67881
1.67074
1.66241
1.65692
1.65452
1.65059
1.64688
1.64482
1.64584
1.65517
1.68693
1.75019
1.81804
1.85221
1.86316
1.86189
1.86147
1.85967
1.8559
1.84909
1.84194
1.83682
1.83224
1.82544
1.81474
1.80491
1.80049
1.79772
1.79557
1.79324
1.78969
1.78582
1.78137
1.77607
1.76973
1.76346
1.75874
1.75497
1.75161
1.74816
1.74396
1.73855
1.73214
1.72617
1.72043
1.71619
1.71072
1.5799
1.57747
1.57304
1.56387
1.54173
1.50916
1.46513
1.41589
1.37583
1.33655
1.28936
1.25461
1.22639
1.19715
1.16182
1.14379
1.12959
1.10709
1.08458
1.08024
1.0732
1.06323
1.05883
1.05782
1.05573
1.05592
1.05776
1.06188
1.0653
1.0668
1.06838
1.07064
1.07262
1.07484
1.07745
1.08058
1.08212
1.08253
1.08303
1.08305
1.08153
1.08496
1.12392
1.28012
1.52244
1.60427
1.63
1.64083
1.64156
1.63203
1.62655
1.62583
1.6194
1.60232
1.59374
1.58943
1.58522
1.57949
1.58073
1.62842
1.78374
1.96697
2.03746
2.0609
2.05778
2.04151
2.02536
2.01109
1.99555
1.98209
1.97198