/*--------------------------------*- C++ -*----------------------------------*\
  =========                 |
  \\      /  F ield         | OpenFOAM: The Open Source CFD Toolbox
   \\    /   O peration     | Website:  https://openfoam.org
    \\  /    A nd           | Version:  7
     \\/     M anipulation  |
\*---------------------------------------------------------------------------*/
FoamFile
{
    version     2.0;
    format      ascii;
    class       volVectorField;
    location    "3";
    object      U;
}
// * * * * * * * * * * * * * * * * * * * * * * * * * * * * * * * * * * * * * //

dimensions      [0 1 -1 0 0 0 0];

internalField   nonuniform List<vector> 
18432
(
(3 6.76413e-17 0)
(3 3.23389e-16 0)
(3 9.08957e-16 0)
(3 1.0665e-15 0)
(3 8.39161e-16 0)
(3 6.58374e-16 0)
(3 -2.49732e-17 0)
(3 -9.22833e-16 0)
(3 -8.51853e-16 0)
(3 -3.42516e-16 0)
(3 5.07097e-16 0)
(3 1.3419e-15 0)
(3 2.20082e-15 0)
(3 2.03737e-15 0)
(3 7.73079e-16 0)
(3 -1.07132e-17 0)
(3 -7.91548e-16 0)
(3 -6.50354e-16 0)
(3 -4.39235e-16 0)
(3 -3.67603e-16 0)
(3 -1.00628e-15 0)
(3 -1.72217e-15 0)
(3 -6.65741e-16 0)
(3 1.39543e-16 0)
(3 8.86397e-16 0)
(3 9.73693e-16 0)
(3 1.07154e-15 0)
(3 9.9017e-16 0)
(3 6.97774e-16 0)
(3 4.44479e-16 0)
(3 -1.08077e-17 0)
(3 1.21453e-16 0)
(3 2.68323e-16 0)
(3 9.78099e-17 0)
(3 -4.0902e-16 0)
(3 1.87222e-16 0)
(3 5.73165e-16 0)
(3 5.71982e-16 0)
(3 6.3702e-16 0)
(3 1.68988e-15 0)
(3 2.82753e-15 0)
(3 3.68844e-15 0)
(3 3.35249e-15 0)
(3 8.8534e-16 0)
(3 4.79762e-16 0)
(3 -3.14497e-16 0)
(3 -4.52991e-16 0)
(3 -2.94536e-16 0)
(3 -6.97945e-18 0)
(3 6.03482e-17 0)
(3 6.53667e-16 0)
(3 1.2831e-15 0)
(3 9.80545e-16 0)
(3 6.18874e-16 0)
(3 5.19491e-16 0)
(3 -8.39784e-16 0)
(3 -9.67988e-16 0)
(3 -5.71948e-16 0)
(3 -4.93591e-16 0)
(3 1.07591e-15 0)
(3 1.64974e-15 0)
(3 1.50573e-15 0)
(3 5.45352e-16 0)
(3 -6.55111e-16 0)
(3 -8.94727e-16 0)
(3 -7.7013e-16 0)
(3 -7.2162e-16 0)
(3 -1.10744e-15 0)
(3 -2.01117e-15 0)
(3 -2.16098e-15 0)
(3 -1.43314e-15 0)
(3 -1.34253e-16 0)
(3 1.58213e-15 0)
(3 2.06436e-15 0)
(3 1.86471e-15 0)
(3 1.70522e-15 0)
(3 1.52272e-15 0)
(3 8.98062e-16 0)
(3 -1.6724e-16 0)
(3 -6.36954e-16 0)
(3 -6.00271e-16 0)
(3 -7.51862e-16 0)
(3 -1.32308e-15 0)
(3 1.32871e-16 0)
(3 9.38868e-16 0)
(3 7.67629e-16 0)
(3 6.90768e-16 0)
(3 2.56853e-15 0)
(3 4.49594e-15 0)
(3 5.2521e-15 0)
(3 4.017e-15 0)
(3 -3.48669e-16 0)
(3 -1.35441e-15 0)
(3 -2.12795e-15 0)
(3 -2.14537e-15 0)
(3 -2.45304e-15 0)
(3 -2.63306e-17 0)
(3 1.57066e-16 0)
(3 2.96058e-16 0)
(3 2.8241e-16 0)
(3 3.97785e-16 0)
(3 1.72236e-16 0)
(3 1.41693e-16 0)
(3 3.02707e-16 0)
(3 1.71616e-16 0)
(3 -2.90937e-16 0)
(3 -4.48608e-16 0)
(3 1.38074e-16 0)
(3 -5.48846e-19 0)
(3 -7.85108e-18 0)
(3 -5.49977e-16 0)
(3 -5.17482e-16 0)
(3 -1.07352e-16 0)
(3 -9.03383e-17 0)
(3 -1.94734e-16 0)
(3 -3.13334e-16 0)
(3 -5.8943e-16 0)
(3 -1.35462e-15 0)
(3 -1.2859e-15 0)
(3 -4.63422e-16 0)
(3 3.02918e-16 0)
(3 1.54161e-15 0)
(3 1.51709e-15 0)
(3 7.65785e-16 0)
(3 2.29939e-16 0)
(3 -6.48278e-16 0)
(3 -8.45321e-16 0)
(3 -8.49358e-16 0)
(3 -9.38486e-16 0)
(3 -8.36804e-16 0)
(3 -4.6997e-16 0)
(3 -1.98305e-16 0)
(3 -8.25329e-16 0)
(3 -6.54162e-16 0)
(3 1.33117e-15 0)
(3 2.91502e-15 0)
(3 4.55534e-15 0)
(3 5.89738e-15 0)
(3 3.60982e-15 0)
(3 9.91164e-16 0)
(3 -3.70021e-16 0)
(3 -1.57577e-15 0)
(3 -1.83753e-15 0)
(3 -1.05057e-15 0)
(3 5.94954e-17 0)
(3 8.17959e-17 0)
(3 4.16049e-16 0)
(3 4.49917e-16 0)
(3 6.48908e-16 0)
(3 5.19315e-16 0)
(3 1.59748e-16 0)
(3 -2.73021e-17 0)
(3 5.24285e-17 0)
(3 -2.19542e-16 0)
(3 -4.38701e-17 0)
(3 4.48518e-16 0)
(3 3.70023e-16 0)
(3 3.68213e-16 0)
(3 2.2902e-16 0)
(3 -3.50174e-16 0)
(3 -8.50194e-16 0)
(3 -9.88046e-16 0)
(3 -7.51671e-16 0)
(3 -5.66648e-16 0)
(3 -7.17145e-16 0)
(3 -9.95914e-16 0)
(3 -1.14732e-15 0)
(3 -8.59111e-16 0)
(3 -5.1509e-16 0)
(3 3.86634e-16 0)
(3 3.1961e-16 0)
(3 -1.76434e-16 0)
(3 -5.5229e-16 0)
(3 -7.18721e-16 0)
(3 -2.99398e-16 0)
(3 -5.01165e-17 0)
(3 -1.67696e-16 0)
(3 -1.15896e-16 0)
(3 -4.88628e-16 0)
(3 -6.39152e-16 0)
(3 -2.22615e-15 0)
(3 -1.46934e-15 0)
(3 3.37465e-16 0)
(3 2.70176e-15 0)
(3 4.18877e-15 0)
(3 4.79947e-15 0)
(3 2.47903e-15 0)
(3 4.8789e-16 0)
(3 -8.85456e-16 0)
(3 -1.3328e-15 0)
(3 -5.19468e-16 0)
(3 -4.80314e-16 0)
(3 -1.01047e-16 0)
(3 -4.48764e-16 0)
(3 -4.87853e-16 0)
(3 -2.04833e-16 0)
(3 -8.99791e-17 0)
(3 -2.3335e-16 0)
(3 -6.15959e-16 0)
(3 -1.00382e-15 0)
(3 -8.89382e-16 0)
(3 -5.7443e-16 0)
(3 -3.87882e-16 0)
(3 -4.05988e-16 0)
(3 -7.49348e-16 0)
(3 -9.31103e-16 0)
(3 -1.14251e-15 0)
(3 -1.66285e-15 0)
(3 -1.78408e-15 0)
(3 -2.39638e-15 0)
(3 -1.57771e-15 0)
(3 -1.18947e-15 0)
(3 -1.15918e-15 0)
(3 -9.17995e-16 0)
(3 -9.36777e-16 0)
(3 -9.91825e-16 0)
(3 -4.70451e-16 0)
(3 -6.13858e-16 0)
(3 -9.19173e-16 0)
(3 -1.00442e-15 0)
(3 -9.12019e-16 0)
(3 -8.93322e-16 0)
(3 -7.36946e-16 0)
(3 -2.7575e-17 0)
(3 2.06736e-16 0)
(3 -1.96054e-16 0)
(3 -6.77242e-16 0)
(3 -1.17377e-15 0)
(3 -1.77809e-15 0)
(3 -8.57999e-16 0)
(3 5.17262e-16 0)
(3 9.89154e-16 0)
(3 9.03746e-16 0)
(3 4.52252e-16 0)
(3 4.6734e-16 0)
(3 6.23502e-16 0)
(3 -4.55253e-16 0)
(3 -1.6398e-15 0)
(3 -1.5702e-15 0)
(3 -1.40974e-15 0)
(3 2.19228e-17 0)
(3 -2.54606e-17 0)
(3 -4.52132e-16 0)
(3 -9.48899e-16 0)
(3 -8.29072e-16 0)
(3 -5.60339e-16 0)
(3 -6.63266e-16 0)
(3 -4.75127e-16 0)
(3 -3.44512e-16 0)
(3 -4.83912e-16 0)
(3 -1.10991e-15 0)
(3 -1.76702e-15 0)
(3 -1.41271e-15 0)
(3 -1.27562e-15 0)
(3 -1.17513e-15 0)
(3 -8.19772e-16 0)
(3 -1.02024e-15 0)
(3 -1.34952e-15 0)
(3 -1.91155e-15 0)
(3 -2.00392e-15 0)
(3 -1.41949e-15 0)
(3 -5.8151e-16 0)
(3 -7.53242e-16 0)
(3 -7.72445e-16 0)
(3 -4.82823e-16 0)
(3 -5.08432e-16 0)
(3 -5.4714e-16 0)
(3 -1.91418e-16 0)
(3 -8.62243e-17 0)
(3 -2.17778e-16 0)
(3 -5.37558e-16 0)
(3 -3.07767e-16 0)
(3 -1.86852e-16 0)
(3 -7.77769e-16 0)
(3 -1.15569e-15 0)
(3 -1.42674e-15 0)
(3 -8.88616e-16 0)
(3 -3.87735e-16 0)
(3 -5.18798e-16 0)
(3 -5.97763e-16 0)
(3 -7.5607e-16 0)
(3 3.53681e-17 0)
(3 8.95036e-16 0)
(3 8.02698e-16 0)
(3 6.90748e-16 0)
(3 2.62253e-16 0)
(3 1.1812e-17 0)
(3 -1.35302e-15 0)
(3 2.02144e-17 0)
(3 -1.43768e-16 0)
(3 -5.16932e-16 0)
(3 -4.95897e-16 0)
(3 -4.15037e-16 0)
(3 -1.77111e-16 0)
(3 -1.3746e-16 0)
(3 -1.99892e-16 0)
(3 -2.54148e-16 0)
(3 -3.77172e-16 0)
(3 -5.66809e-16 0)
(3 -7.15491e-16 0)
(3 3.69498e-16 0)
(3 1.49342e-15 0)
(3 1.3036e-15 0)
(3 1.04648e-15 0)
(3 -4.33854e-16 0)
(3 -1.45705e-15 0)
(3 -1.91082e-15 0)
(3 -2.10011e-15 0)
(3 -1.56764e-15 0)
(3 -1.36345e-16 0)
(3 -1.27924e-17 0)
(3 1.32589e-16 0)
(3 1.86931e-16 0)
(3 2.00653e-17 0)
(3 -1.44375e-16 0)
(3 -7.93964e-17 0)
(3 1.96989e-17 0)
(3 6.9784e-16 0)
(3 1.24001e-15 0)
(3 -8.87146e-16 0)
(3 -1.11253e-15 0)
(3 -1.05395e-15 0)
(3 -6.50629e-16 0)
(3 -4.61222e-16 0)
(3 4.5615e-16 0)
(3 7.05527e-16 0)
(3 1.68806e-16 0)
(3 -1.41562e-15 0)
(3 -2.64756e-15 0)
(3 -1.60364e-15 0)
(3 -6.49856e-17 0)
(3 3.70895e-16 0)
(3 1.45262e-15 0)
(3 2.57772e-15 0)
(3 2.36305e-15 0)
(3 -6.12992e-17 0)
(3 -2.8517e-17 0)
(3 -2.25218e-16 0)
(3 -4.36587e-16 0)
(3 -5.82619e-16 0)
(3 -5.11482e-16 0)
(3 -1.02551e-16 0)
(3 1.62768e-16 0)
(3 8.70511e-17 0)
(3 -4.1552e-16 0)
(3 -7.72362e-17 0)
(3 9.27614e-16 0)
(3 1.12864e-15 0)
(3 9.43535e-16 0)
(3 7.7357e-16 0)
(3 5.06084e-16 0)
(3 -7.30305e-16 0)
(3 -1.09838e-15 0)
(3 -1.37849e-15 0)
(3 -1.16039e-15 0)
(3 -1.1014e-15 0)
(3 -1.01426e-15 0)
(3 -5.71713e-16 0)
(3 2.12247e-16 0)
(3 2.50492e-16 0)
(3 9.38773e-18 0)
(3 2.45326e-16 0)
(3 3.82304e-16 0)
(3 -2.78369e-16 0)
(3 -8.8389e-16 0)
(3 -2.92766e-16 0)
(3 5.74117e-16 0)
(3 -1.10893e-16 0)
(3 6.8271e-17 0)
(3 8.94474e-16 0)
(3 1.03355e-15 0)
(3 4.67835e-16 0)
(3 2.8133e-16 0)
(3 2.63421e-16 0)
(3 4.03628e-16 0)
(3 -8.91993e-16 0)
(3 -1.53691e-15 0)
(3 -1.64517e-16 0)
(3 6.37091e-16 0)
(3 1.65863e-15 0)
(3 1.50288e-15 0)
(3 9.063e-16 0)
(3 4.48043e-16 0)
(3 3.32379e-16 0)
(3 9.51976e-17 0)
(3 2.89673e-16 0)
(3 -1.40402e-17 0)
(3 -1.70743e-16 0)
(3 -4.58418e-16 0)
(3 -3.72128e-16 0)
(3 9.76036e-17 0)
(3 6.63494e-16 0)
(3 7.23887e-16 0)
(3 7.12027e-16 0)
(3 7.7235e-16 0)
(3 4.05302e-16 0)
(3 1.87223e-16 0)
(3 -3.73746e-16 0)
(3 -7.99637e-16 0)
(3 -1.03644e-15 0)
(3 -1.22576e-15 0)
(3 -1.10542e-15 0)
(3 -1.16245e-15 0)
(3 -1.45118e-15 0)
(3 -1.45999e-15 0)
(3 -1.19336e-15 0)
(3 -7.14097e-16 0)
(3 -4.37213e-16 0)
(3 -7.91566e-17 0)
(3 3.14016e-16 0)
(3 1.07943e-17 0)
(3 -3.84562e-16 0)
(3 -5.22109e-16 0)
(3 4.2731e-16 0)
(3 5.09606e-16 0)
(3 5.06149e-16 0)
(3 6.32408e-16 0)
(3 5.81484e-16 0)
(3 -1.22633e-16 0)
(3 -9.11046e-16 0)
(3 -1.41632e-15 0)
(3 -1.38173e-15 0)
(3 -3.72491e-16 0)
(3 4.35479e-16 0)
(3 9.79072e-16 0)
(3 1.26599e-15 0)
(3 1.73765e-15 0)
(3 1.92323e-15 0)
(3 2.71348e-16 0)
(3 -7.03516e-16 0)
(3 7.0985e-16 0)
(3 1.82953e-15 0)
(3 -5.42628e-17 0)
(3 -2.15674e-17 0)
(3 2.46488e-16 0)
(3 5.40427e-16 0)
(3 1.24986e-16 0)
(3 -7.35692e-17 0)
(3 2.03289e-17 0)
(3 3.65049e-16 0)
(3 1.06019e-15 0)
(3 5.11955e-16 0)
(3 -2.3273e-16 0)
(3 3.43287e-16 0)
(3 3.54387e-16 0)
(3 -2.71753e-16 0)
(3 -1.09413e-15 0)
(3 -5.91582e-16 0)
(3 -1.15824e-15 0)
(3 -1.15164e-15 0)
(3 -1.11454e-15 0)
(3 -1.14943e-15 0)
(3 -1.09765e-15 0)
(3 -8.18688e-16 0)
(3 1.6987e-16 0)
(3 -1.78328e-17 0)
(3 -1.89965e-16 0)
(3 -1.12475e-15 0)
(3 -8.43259e-16 0)
(3 -2.37614e-16 0)
(3 9.37147e-16 0)
(3 1.69335e-15 0)
(3 1.83499e-15 0)
(3 1.85656e-15 0)
(3 1.50736e-15 0)
(3 5.32812e-16 0)
(3 3.57668e-16 0)
(3 7.00293e-17 0)
(3 -1.88158e-16 0)
(3 8.69732e-17 0)
(3 6.23444e-16 0)
(3 1.93821e-15 0)
(3 2.05858e-15 0)
(3 2.17341e-15 0)
(3 2.41426e-15 0)
(3 2.84578e-15 0)
(3 3.05274e-15 0)
(3 2.70072e-15 0)
(3 2.92691e-15 0)
(3 3.59358e-15 0)
(3 -1.45679e-16 0)
(3 -6.5588e-17 0)
(3 2.86014e-16 0)
(3 3.30444e-16 0)
(3 3.99905e-16 0)
(3 9.54026e-18 0)
(3 9.26864e-17 0)
(3 3.78084e-16 0)
(3 3.79797e-16 0)
(3 2.31228e-16 0)
(3 1.09097e-16 0)
(3 1.54809e-16 0)
(3 -7.78482e-17 0)
(3 -5.06267e-16 0)
(3 -8.4865e-16 0)
(3 -1.52844e-15 0)
(3 -1.43323e-15 0)
(3 -1.48518e-15 0)
(3 -1.50485e-15 0)
(3 -5.30928e-16 0)
(3 2.56125e-16 0)
(3 4.19585e-16 0)
(3 7.85535e-16 0)
(3 3.63415e-16 0)
(3 -8.26827e-17 0)
(3 -9.42908e-16 0)
(3 -1.54852e-15 0)
(3 -4.47929e-16 0)
(3 4.49353e-16 0)
(3 8.46586e-16 0)
(3 1.31597e-15 0)
(3 9.26246e-16 0)
(3 6.49692e-16 0)
(3 9.64871e-17 0)
(3 4.0403e-17 0)
(3 1.47657e-16 0)
(3 2.15973e-16 0)
(3 2.5493e-16 0)
(3 5.41832e-16 0)
(3 1.41481e-15 0)
(3 2.23532e-15 0)
(3 2.77088e-15 0)
(3 2.67681e-15 0)
(3 2.59484e-15 0)
(3 3.57169e-15 0)
(3 3.73754e-15 0)
(3 3.32158e-15 0)
(3 3.39262e-15 0)
(3 1.35071e-16 0)
(3 3.00991e-16 0)
(3 7.77768e-17 0)
(3 -1.71511e-16 0)
(3 -3.1563e-16 0)
(3 -4.08799e-16 0)
(3 -2.27568e-16 0)
(3 -2.49201e-16 0)
(3 -6.15618e-16 0)
(3 -9.30747e-16 0)
(3 -7.0969e-16 0)
(3 -8.02135e-16 0)
(3 -5.05977e-16 0)
(3 -3.38043e-16 0)
(3 -5.21601e-16 0)
(3 -8.95174e-16 0)
(3 -7.78028e-17 0)
(3 -3.5378e-16 0)
(3 -2.32762e-16 0)
(3 4.07518e-18 0)
(3 3.83228e-16 0)
(3 7.02468e-16 0)
(3 2.56271e-16 0)
(3 1.67903e-16 0)
(3 -6.01226e-17 0)
(3 -4.56049e-17 0)
(3 -1.53021e-16 0)
(3 -6.89682e-16 0)
(3 -8.67785e-16 0)
(3 -1.49017e-15 0)
(3 -1.1293e-15 0)
(3 -1.17068e-15 0)
(3 -1.93212e-15 0)
(3 -1.88852e-15 0)
(3 -2.16176e-15 0)
(3 -2.41863e-15 0)
(3 -2.24625e-15 0)
(3 -1.90525e-15 0)
(3 -1.41567e-15 0)
(3 -4.14217e-16 0)
(3 8.71313e-16 0)
(3 1.22125e-15 0)
(3 1.51179e-15 0)
(3 1.53699e-15 0)
(3 1.54311e-15 0)
(3 1.78788e-15 0)
(3 1.63411e-15 0)
(3 1.97907e-15 0)
(3 1.69562e-18 0)
(3 -2.71405e-16 0)
(3 -5.77227e-16 0)
(3 -5.46761e-16 0)
(3 -4.89425e-16 0)
(3 -6.05851e-16 0)
(3 -9.36519e-16 0)
(3 -1.14895e-15 0)
(3 -1.27088e-15 0)
(3 -1.13942e-15 0)
(3 -1.51217e-15 0)
(3 -1.63411e-15 0)
(3 -7.18295e-16 0)
(3 4.91827e-17 0)
(3 -1.68162e-16 0)
(3 -3.32055e-16 0)
(3 1.22142e-15 0)
(3 1.40478e-15 0)
(3 1.37098e-15 0)
(3 1.26227e-15 0)
(3 1.05967e-15 0)
(3 1.1369e-15 0)
(3 6.85036e-16 0)
(3 2.94189e-16 0)
(3 3.11814e-17 0)
(3 -5.87257e-17 0)
(3 3.36475e-16 0)
(3 4.69493e-16 0)
(3 6.77094e-17 0)
(3 -3.54496e-16 0)
(3 -6.10737e-16 0)
(3 -1.02247e-15 0)
(3 -1.6234e-15 0)
(3 -1.92639e-15 0)
(3 -2.27218e-15 0)
(3 -2.50802e-15 0)
(3 -2.72539e-15 0)
(3 -2.59943e-15 0)
(3 -2.13079e-15 0)
(3 -1.05776e-15 0)
(3 1.62411e-15 0)
(3 2.39349e-15 0)
(3 2.00353e-15 0)
(3 1.67449e-15 0)
(3 1.35856e-15 0)
(3 1.52066e-16 0)
(3 -3.62361e-16 0)
(3 -1.26141e-16 0)
(3 -2.5778e-17 0)
(3 -1.71769e-16 0)
(3 -1.63942e-16 0)
(3 2.31547e-17 0)
(3 -5.91575e-17 0)
(3 1.20452e-16 0)
(3 1.98497e-17 0)
(3 -5.15832e-17 0)
(3 -2.0451e-16 0)
(3 -5.26545e-16 0)
(3 -4.1313e-16 0)
(3 -9.78697e-16 0)
(3 -1.07866e-15 0)
(3 -6.25809e-16 0)
(3 -4.48367e-16 0)
(3 -1.31927e-16 0)
(3 4.99007e-16 0)
(3 4.32599e-16 0)
(3 4.17449e-17 0)
(3 -2.22358e-16 0)
(3 -1.6352e-16 0)
(3 -2.99294e-16 0)
(3 -9.45298e-16 0)
(3 -1.46889e-15 0)
(3 -1.28928e-15 0)
(3 -7.23805e-16 0)
(3 -2.48825e-16 0)
(3 5.7812e-16 0)
(3 1.04223e-15 0)
(3 1.29528e-15 0)
(3 9.86746e-16 0)
(3 -6.61555e-16 0)
(3 -9.18415e-16 0)
(3 -1.48084e-15 0)
(3 -1.97239e-15 0)
(3 -1.6514e-15 0)
(3 -1.24091e-15 0)
(3 -9.88989e-16 0)
(3 8.21468e-17 0)
(3 9.41271e-16 0)
(3 1.06918e-15 0)
(3 1.3331e-15 0)
(3 8.72697e-16 0)
(3 1.08278e-16 0)
(3 2.44284e-16 0)
(3 -4.97415e-16 0)
(3 -6.29736e-16 0)
(3 -2.71148e-16 0)
(3 1.35144e-16 0)
(3 3.86315e-16 0)
(3 1.03392e-15 0)
(3 1.06412e-15 0)
(3 7.96541e-16 0)
(3 9.51528e-16 0)
(3 5.92252e-16 0)
(3 2.02062e-16 0)
(3 -8.61661e-17 0)
(3 -5.12772e-16 0)
(3 -5.86101e-16 0)
(3 -8.8941e-16 0)
(3 -1.70926e-15 0)
(3 -1.27674e-15 0)
(3 -1.54723e-16 0)
(3 3.31383e-16 0)
(3 4.47227e-16 0)
(3 2.70212e-16 0)
(3 1.03282e-16 0)
(3 -4.69254e-16 0)
(3 -1.08123e-15 0)
(3 -2.02884e-15 0)
(3 -2.80507e-15 0)
(3 -2.89247e-15 0)
(3 -1.87889e-15 0)
(3 -4.57374e-16 0)
(3 1.36289e-16 0)
(3 -4.62073e-17 0)
(3 -1.00508e-15 0)
(3 -8.10603e-16 0)
(3 -6.76994e-16 0)
(3 -5.6907e-16 0)
(3 -7.03375e-16 0)
(3 -7.24216e-16 0)
(3 -1.26349e-15 0)
(3 -1.64412e-15 0)
(3 -1.57185e-16 0)
(3 1.32784e-15 0)
(3 1.97395e-15 0)
(3 1.51922e-15 0)
(3 5.00658e-16 0)
(3 2.06141e-17 0)
(3 -4.31069e-16 0)
(3 -5.9244e-16 0)
(3 -5.16132e-16 0)
(3 2.83525e-16 0)
(3 7.72636e-16 0)
(3 5.21596e-16 0)
(3 3.2346e-17 0)
(3 1.74099e-16 0)
(3 5.80531e-16 0)
(3 4.81239e-16 0)
(3 6.97983e-16 0)
(3 2.4211e-16 0)
(3 1.55362e-18 0)
(3 7.62224e-17 0)
(3 9.36771e-17 0)
(3 2.56708e-16 0)
(3 2.58507e-16 0)
(3 -4.92584e-16 0)
(3 -9.97647e-16 0)
(3 -1.37376e-15 0)
(3 -1.08964e-15 0)
(3 -5.24848e-16 0)
(3 -4.77785e-16 0)
(3 3.11783e-16 0)
(3 7.09519e-16 0)
(3 6.39785e-16 0)
(3 -1.04501e-16 0)
(3 -1.53135e-15 0)
(3 -1.634e-15 0)
(3 -1.33236e-15 0)
(3 -1.07889e-15 0)
(3 -3.61036e-16 0)
(3 5.76394e-16 0)
(3 6.59566e-16 0)
(3 -3.87644e-16 0)
(3 -2.04466e-15 0)
(3 -1.99361e-15 0)
(3 -5.13238e-16 0)
(3 1.82851e-17 0)
(3 3.6276e-16 0)
(3 1.37851e-15 0)
(3 1.67194e-15 0)
(3 1.09316e-15 0)
(3 9.74011e-16 0)
(3 7.59535e-16 0)
(3 3.30937e-16 0)
(3 -8.85741e-16 0)
(3 -1.6967e-15 0)
(3 -1.87136e-15 0)
(3 -1.26566e-15 0)
(3 -1.29311e-15 0)
(3 -1.02868e-16 0)
(3 8.08933e-16 0)
(3 2.17887e-16 0)
(3 1.7183e-18 0)
(3 6.31569e-17 0)
(3 -3.7937e-16 0)
(3 -5.97695e-16 0)
(3 -6.21587e-16 0)
(3 3.13899e-17 0)
(3 8.4013e-16 0)
(3 8.13384e-16 0)
(3 7.81847e-16 0)
(3 1.0299e-15 0)
(3 8.87974e-16 0)
(3 4.78132e-16 0)
(3 -1.64837e-16 0)
(3 -7.59474e-16 0)
(3 -1.17377e-15 0)
(3 -9.81817e-16 0)
(3 -6.68836e-16 0)
(3 -4.90796e-16 0)
(3 -1.03653e-15 0)
(3 -5.81424e-16 0)
(3 -2.67948e-16 0)
(3 2.90922e-16 0)
(3 8.3111e-16 0)
(3 9.63682e-16 0)
(3 4.79738e-16 0)
(3 3.24313e-16 0)
(3 9.73376e-16 0)
(3 7.86809e-16 0)
(3 2.99267e-16 0)
(3 -2.28805e-16 0)
(3 -3.0055e-16 0)
(3 -3.01717e-16 0)
(3 1.2829e-17 0)
(3 9.55142e-16 0)
(3 2.63731e-15 0)
(3 2.93864e-15 0)
(3 1.68232e-15 0)
(3 2.15189e-16 0)
(3 -7.42441e-16 0)
(3 -4.77042e-16 0)
(3 -3.92646e-16 0)
(3 -4.84636e-16 0)
(3 -3.30497e-16 0)
(3 -2.27762e-16 0)
(3 -9.40238e-17 0)
(3 8.15634e-17 0)
(3 6.40892e-16 0)
(3 2.9988e-16 0)
(3 1.77309e-17 0)
(3 -2.07832e-16 0)
(3 -1.75852e-16 0)
(3 -3.32126e-17 0)
(3 9.49647e-17 0)
(3 3.09714e-16 0)
(3 8.13316e-16 0)
(3 7.34676e-16 0)
(3 6.51539e-16 0)
(3 8.39116e-16 0)
(3 1.13043e-15 0)
(3 1.39323e-15 0)
(3 1.01147e-15 0)
(3 9.23313e-16 0)
(3 -3.73873e-16 0)
(3 2.87381e-16 0)
(3 -5.33185e-17 0)
(3 -7.30923e-16 0)
(3 -5.80001e-16 0)
(3 -5.31865e-16 0)
(3 -2.31252e-16 0)
(3 5.97827e-16 0)
(3 1.16779e-15 0)
(3 8.80744e-16 0)
(3 1.11985e-15 0)
(3 1.83905e-16 0)
(3 -2.11043e-16 0)
(3 -8.89053e-17 0)
(3 3.83527e-17 0)
(3 2.41052e-16 0)
(3 -3.64407e-17 0)
(3 8.3543e-17 0)
(3 2.85813e-16 0)
(3 6.94373e-16 0)
(3 1.13468e-15 0)
(3 1.33442e-15 0)
(3 1.21397e-15 0)
(3 1.13469e-15 0)
(3 7.52905e-16 0)
(3 5.37302e-16 0)
(3 5.5806e-16 0)
(3 5.92141e-16 0)
(3 4.37422e-16 0)
(3 7.21634e-16 0)
(3 1.20275e-15 0)
(3 1.03507e-15 0)
(3 7.63117e-16 0)
(3 6.81226e-16 0)
(3 1.47844e-17 0)
(3 -6.50757e-17 0)
(3 2.05593e-16 0)
(3 5.85223e-16 0)
(3 9.37142e-16 0)
(3 8.24485e-16 0)
(3 4.33258e-16 0)
(3 4.09558e-16 0)
(3 6.6372e-16 0)
(3 9.95252e-16 0)
(3 1.6024e-15 0)
(3 1.47642e-15 0)
(3 9.87818e-16 0)
(3 1.06228e-15 0)
(3 1.01971e-15 0)
(3 -2.86925e-16 0)
(3 -5.90342e-16 0)
(3 -1.11286e-18 0)
(3 5.08192e-16 0)
(3 5.67021e-16 0)
(3 5.40385e-16 0)
(3 9.54582e-16 0)
(3 3.08835e-16 0)
(3 -1.72998e-16 0)
(3 -5.85637e-17 0)
(3 2.28775e-17 0)
(3 -1.6561e-15 0)
(3 -2.0976e-15 0)
(3 -1.29015e-15 0)
(3 -7.72091e-16 0)
(3 -3.20494e-16 0)
(3 3.3357e-16 0)
(3 2.77663e-16 0)
(3 2.75372e-16 0)
(3 2.33425e-17 0)
(3 1.48009e-16 0)
(3 -4.89012e-17 0)
(3 -2.46756e-16 0)
(3 -5.93534e-17 0)
(3 -3.14833e-16 0)
(3 -7.77737e-16 0)
(3 -3.98463e-16 0)
(3 3.3565e-16 0)
(3 7.54518e-16 0)
(3 5.45491e-16 0)
(3 4.28778e-16 0)
(3 2.55651e-16 0)
(3 -4.69302e-16 0)
(3 -2.33834e-17 0)
(3 9.87137e-17 0)
(3 -1.7401e-16 0)
(3 3.29983e-17 0)
(3 1.55065e-17 0)
(3 4.46241e-16 0)
(3 4.79555e-16 0)
(3 5.39702e-16 0)
(3 4.85718e-16 0)
(3 7.20072e-16 0)
(3 4.26293e-16 0)
(3 6.3664e-17 0)
(3 2.4026e-16 0)
(3 1.33538e-15 0)
(3 1.92681e-15 0)
(3 -1.51767e-16 0)
(3 -7.68749e-16 0)
(3 -6.36e-16 0)
(3 -3.74007e-16 0)
(3 -2.00088e-16 0)
(3 3.82151e-16 0)
(3 4.99936e-16 0)
(3 4.52878e-17 0)
(3 -4.73571e-16 0)
(3 -1.03612e-15 0)
(3 -1.15362e-15 0)
(3 -1.89934e-15 0)
(3 -1.4335e-15 0)
(3 -6.21458e-16 0)
(3 3.02556e-16 0)
(3 1.37227e-15 0)
(3 9.78373e-16 0)
(3 1.11701e-15 0)
(3 1.86059e-15 0)
(3 2.24841e-15 0)
(3 1.90898e-15 0)
(3 9.28109e-16 0)
(3 2.10056e-16 0)
(3 -2.20762e-17 0)
(3 -7.01539e-17 0)
(3 -7.02639e-16 0)
(3 -5.35343e-16 0)
(3 -2.13768e-16 0)
(3 -4.87444e-17 0)
(3 -2.13146e-16 0)
(3 -1.02642e-16 0)
(3 -3.15242e-16 0)
(3 -1.01683e-15 0)
(3 -6.64148e-17 0)
(3 6.79931e-17 0)
(3 2.42944e-16 0)
(3 4.24572e-17 0)
(3 2.9864e-16 0)
(3 1.66366e-16 0)
(3 3.32577e-16 0)
(3 4.6599e-16 0)
(3 1.45445e-16 0)
(3 -1.92561e-16 0)
(3 -5.85489e-16 0)
(3 2.22491e-16 0)
(3 6.34156e-16 0)
(3 1.40158e-15 0)
(3 1.0415e-15 0)
(3 -1.23732e-17 0)
(3 -5.75095e-16 0)
(3 -3.34934e-16 0)
(3 -1.36151e-16 0)
(3 1.61466e-16 0)
(3 -9.60087e-17 0)
(3 -1.95706e-16 0)
(3 -3.17895e-17 0)
(3 1.85508e-17 0)
(3 6.01507e-17 0)
(3 4.99629e-16 0)
(3 7.8002e-16 0)
(3 3.09394e-16 0)
(3 -8.04253e-17 0)
(3 8.53718e-17 0)
(3 -3.22761e-17 0)
(3 6.83014e-16 0)
(3 1.14865e-15 0)
(3 1.50937e-15 0)
(3 1.80592e-15 0)
(3 2.67356e-15 0)
(3 2.74299e-15 0)
(3 1.84076e-15 0)
(3 4.88861e-16 0)
(3 3.55763e-17 0)
(3 -2.76445e-16 0)
(3 -5.68391e-16 0)
(3 -1.07447e-15 0)
(3 -1.79989e-15 0)
(3 -8.64129e-16 0)
(3 -8.59978e-16 0)
(3 -7.47015e-16 0)
(3 3.84877e-16 0)
(3 5.47619e-17 0)
(3 2.52235e-16 0)
(3 3.10912e-16 0)
(3 1.04953e-16 0)
(3 2.02821e-16 0)
(3 -9.45426e-17 0)
(3 -1.7265e-16 0)
(3 -3.60902e-17 0)
(3 -2.40407e-16 0)
(3 -9.44146e-16 0)
(3 -1.16998e-15 0)
(3 -3.92197e-16 0)
(3 -7.53872e-17 0)
(3 -6.25121e-16 0)
(3 -6.33889e-16 0)
(3 -8.06828e-16 0)
(3 -5.8144e-16 0)
(3 -5.65684e-16 0)
(3 -9.72136e-16 0)
(3 -1.11686e-15 0)
(3 -4.65213e-16 0)
(3 -1.03084e-16 0)
(3 1.15277e-16 0)
(3 2.20693e-16 0)
(3 1.0785e-15 0)
(3 1.37035e-15 0)
(3 1.31213e-15 0)
(3 4.48473e-16 0)
(3 6.43017e-17 0)
(3 -2.93982e-16 0)
(3 -4.84858e-16 0)
(3 1.18337e-15 0)
(3 1.7481e-15 0)
(3 1.31867e-15 0)
(3 9.67599e-16 0)
(3 1.26995e-15 0)
(3 1.37843e-15 0)
(3 9.24853e-16 0)
(3 4.50999e-16 0)
(3 1.7783e-16 0)
(3 -9.54533e-17 0)
(3 -1.33737e-15 0)
(3 -1.94333e-15 0)
(3 -2.00329e-15 0)
(3 -1.85764e-15 0)
(3 -1.52052e-15 0)
(3 -5.28643e-16 0)
(3 4.13473e-16 0)
(3 1.19759e-17 0)
(3 5.40097e-18 0)
(3 2.17734e-17 0)
(3 1.19066e-16 0)
(3 -1.76873e-16 0)
(3 -2.40443e-16 0)
(3 -5.44868e-16 0)
(3 -3.3112e-16 0)
(3 -3.47916e-16 0)
(3 -7.23145e-16 0)
(3 -6.79699e-16 0)
(3 -4.8604e-16 0)
(3 -2.61814e-16 0)
(3 -5.97869e-16 0)
(3 -9.64682e-16 0)
(3 -7.49339e-17 0)
(3 2.65632e-16 0)
(3 1.1917e-16 0)
(3 -9.92593e-16 0)
(3 -1.72935e-15 0)
(3 -9.9495e-16 0)
(3 -6.00213e-16 0)
(3 -1.8432e-16 0)
(3 2.86026e-16 0)
(3 2.30258e-16 0)
(3 2.46842e-16 0)
(3 -1.361e-17 0)
(3 8.15501e-17 0)
(3 4.66735e-16 0)
(3 8.73437e-16 0)
(3 1.09363e-15 0)
(3 1.53395e-15 0)
(3 2.12991e-15 0)
(3 2.145e-15 0)
(3 1.85421e-15 0)
(3 1.31318e-15 0)
(3 1.9393e-17 0)
(3 -4.07891e-16 0)
(3 1.00808e-17 0)
(3 -4.17256e-16 0)
(3 -8.9946e-16 0)
(3 -2.09527e-15 0)
(3 -2.22235e-15 0)
(3 -9.88291e-16 0)
(3 -5.30253e-16 0)
(3 1.207e-16 0)
(3 9.62775e-16 0)
(3 1.73924e-15 0)
(3 -5.28505e-17 0)
(3 -2.42819e-16 0)
(3 -3.10597e-16 0)
(3 -7.40852e-17 0)
(3 -1.73776e-16 0)
(3 1.31719e-16 0)
(3 4.26698e-16 0)
(3 4.11496e-16 0)
(3 1.43889e-16 0)
(3 -9.63552e-17 0)
(3 -1.42172e-16 0)
(3 -3.10388e-16 0)
(3 -2.56252e-16 0)
(3 -7.40547e-17 0)
(3 -2.05144e-16 0)
(3 1.04138e-15 0)
(3 1.83395e-15 0)
(3 1.70178e-15 0)
(3 1.28599e-15 0)
(3 1.19046e-15 0)
(3 7.4796e-16 0)
(3 3.56123e-16 0)
(3 2.14903e-16 0)
(3 4.86251e-16 0)
(3 3.36914e-16 0)
(3 5.29206e-16 0)
(3 -2.68562e-16 0)
(3 -7.99686e-16 0)
(3 -5.09957e-16 0)
(3 -3.64475e-16 0)
(3 -1.01527e-15 0)
(3 -8.22903e-16 0)
(3 2.42324e-17 0)
(3 7.23509e-16 0)
(3 1.06527e-15 0)
(3 9.22103e-16 0)
(3 9.13802e-16 0)
(3 9.31115e-16 0)
(3 -1.15609e-16 0)
(3 -7.65456e-16 0)
(3 -9.15217e-16 0)
(3 -9.62693e-16 0)
(3 -6.54757e-16 0)
(3 1.36317e-16 0)
(3 1.97792e-16 0)
(3 8.4671e-16 0)
(3 1.3338e-15 0)
(3 1.54455e-15 0)
(3 8.84114e-17 0)
(3 1.00721e-16 0)
(3 1.89792e-16 0)
(3 2.16229e-16 0)
(3 1.0703e-16 0)
(3 3.98098e-16 0)
(3 6.05355e-16 0)
(3 7.41196e-16 0)
(3 5.32161e-16 0)
(3 1.65065e-16 0)
(3 1.89594e-17 0)
(3 1.1574e-16 0)
(3 7.87743e-17 0)
(3 5.38488e-16 0)
(3 1.21558e-15 0)
(3 1.70969e-15 0)
(3 1.92226e-15 0)
(3 1.51837e-15 0)
(3 1.29194e-15 0)
(3 1.43943e-15 0)
(3 1.073e-15 0)
(3 9.8538e-16 0)
(3 1.24222e-15 0)
(3 8.53228e-16 0)
(3 7.62821e-16 0)
(3 7.05824e-16 0)
(3 1.2218e-15 0)
(3 1.44264e-15 0)
(3 1.63662e-15 0)
(3 1.40751e-15 0)
(3 7.34e-16 0)
(3 7.87846e-16 0)
(3 9.44935e-16 0)
(3 9.19039e-16 0)
(3 7.46576e-16 0)
(3 5.69147e-16 0)
(3 9.64746e-16 0)
(3 8.86128e-16 0)
(3 7.40306e-18 0)
(3 1.46498e-16 0)
(3 1.5042e-16 0)
(3 9.28935e-18 0)
(3 -1.05144e-15 0)
(3 -1.04965e-15 0)
(3 -8.46361e-16 0)
(3 -7.99591e-16 0)
(3 -4.78487e-16 0)
(3 4.68863e-16 0)
(3 -1.18344e-17 0)
(3 3.01747e-16 0)
(3 7.71278e-16 0)
(3 6.48068e-16 0)
(3 4.70553e-16 0)
(3 2.40951e-16 0)
(3 6.47231e-17 0)
(3 2.04708e-16 0)
(3 7.1769e-16 0)
(3 8.58357e-16 0)
(3 9.37101e-16 0)
(3 1.24355e-15 0)
(3 1.18881e-15 0)
(3 1.54765e-15 0)
(3 1.58507e-15 0)
(3 5.7461e-16 0)
(3 -5.69438e-16 0)
(3 -5.63768e-16 0)
(3 -1.0855e-16 0)
(3 -4.69553e-16 0)
(3 -6.9475e-16 0)
(3 -5.22888e-16 0)
(3 -1.65835e-16 0)
(3 3.9477e-16 0)
(3 6.28014e-16 0)
(3 1.08548e-15 0)
(3 2.43021e-15 0)
(3 3.59424e-15 0)
(3 3.20092e-15 0)
(3 2.36932e-15 0)
(3 2.58178e-15 0)
(3 1.86089e-15 0)
(3 1.37137e-15 0)
(3 1.13449e-15 0)
(3 9.53946e-16 0)
(3 5.1147e-16 0)
(3 6.15086e-16 0)
(3 5.27866e-16 0)
(3 -2.33802e-16 0)
(3 -7.07205e-16 0)
(3 -1.12715e-15 0)
(3 -1.66401e-15 0)
(3 -1.87296e-15 0)
(3 -1.90871e-15 0)
(3 -1.03866e-15 0)
(3 -1.13527e-15 0)
(3 -7.99531e-16 0)
(3 4.70306e-16 0)
(3 -6.23882e-18 0)
(3 9.18668e-17 0)
(3 -3.23879e-16 0)
(3 -2.9295e-16 0)
(3 -6.39663e-17 0)
(3 -1.63604e-16 0)
(3 -1.16937e-16 0)
(3 9.64533e-17 0)
(3 2.18781e-16 0)
(3 1.96983e-16 0)
(3 3.56835e-16 0)
(3 1.08441e-15 0)
(3 1.72844e-15 0)
(3 2.13715e-15 0)
(3 2.2337e-15 0)
(3 1.77015e-15 0)
(3 1.3949e-15 0)
(3 1.14804e-15 0)
(3 1.11933e-15 0)
(3 1.05996e-15 0)
(3 8.92307e-16 0)
(3 9.34122e-16 0)
(3 1.02117e-15 0)
(3 1.31603e-15 0)
(3 1.50692e-15 0)
(3 1.94264e-15 0)
(3 2.15469e-15 0)
(3 2.784e-15 0)
(3 1.2007e-15 0)
(3 1.59322e-16 0)
(3 8.02162e-16 0)
(3 9.13241e-16 0)
(3 6.89713e-16 0)
(3 5.39279e-17 0)
(3 -2.52087e-17 0)
(3 1.93662e-16 0)
(3 7.11935e-16 0)
(3 4.11421e-16 0)
(3 -5.63589e-17 0)
(3 -6.57901e-16 0)
(3 -5.45608e-16 0)
(3 -3.69331e-17 0)
(3 3.58396e-16 0)
(3 -4.51884e-17 0)
(3 6.91933e-16 0)
(3 1.14047e-15 0)
(3 1.07822e-15 0)
(3 7.51882e-16 0)
(3 4.24191e-18 0)
(3 -1.21275e-16 0)
(3 -3.88716e-16 0)
(3 -4.65975e-16 0)
(3 -2.37921e-16 0)
(3 5.55843e-17 0)
(3 2.63292e-16 0)
(3 1.25392e-16 0)
(3 -3.44555e-16 0)
(3 -4.45857e-16 0)
(3 -1.3268e-16 0)
(3 2.8387e-16 0)
(3 1.45406e-15 0)
(3 1.75406e-15 0)
(3 1.23484e-15 0)
(3 2.799e-16 0)
(3 4.81408e-18 0)
(3 1.92063e-16 0)
(3 1.25568e-16 0)
(3 3.32435e-16 0)
(3 9.21532e-16 0)
(3 1.13326e-15 0)
(3 1.42179e-15 0)
(3 1.10255e-15 0)
(3 1.66732e-15 0)
(3 1.29857e-15 0)
(3 5.20496e-16 0)
(3 5.27584e-16 0)
(3 5.86772e-16 0)
(3 6.08984e-16 0)
(3 4.72608e-16 0)
(3 8.50678e-16 0)
(3 1.10352e-15 0)
(3 1.07843e-15 0)
(3 1.31341e-15 0)
(3 1.47706e-15 0)
(3 1.07586e-15 0)
(3 8.2534e-16 0)
(3 4.58933e-16 0)
(3 1.01252e-16 0)
(3 7.43997e-17 0)
(3 1.00055e-15 0)
(3 1.45449e-15 0)
(3 1.60736e-15 0)
(3 8.80451e-16 0)
(3 7.8128e-16 0)
(3 5.70472e-16 0)
(3 -2.47798e-16 0)
(3 -6.10192e-17 0)
(3 -3.3949e-16 0)
(3 -7.14554e-17 0)
(3 -1.01644e-16 0)
(3 -3.13714e-16 0)
(3 -3.55343e-17 0)
(3 -9.42076e-17 0)
(3 -1.54745e-16 0)
(3 -1.10921e-16 0)
(3 8.59008e-17 0)
(3 4.16862e-16 0)
(3 4.80891e-16 0)
(3 7.4244e-16 0)
(3 7.98856e-16 0)
(3 -6.41293e-18 0)
(3 -2.22816e-16 0)
(3 -2.2926e-16 0)
(3 2.29495e-17 0)
(3 2.25947e-19 0)
(3 4.52149e-16 0)
(3 1.40771e-15 0)
(3 1.2095e-15 0)
(3 7.50706e-16 0)
(3 7.89092e-16 0)
(3 1.07805e-15 0)
(3 1.27966e-15 0)
(3 4.534e-16 0)
(3 2.83748e-17 0)
(3 1.46844e-15 0)
(3 2.0583e-15 0)
(3 1.85658e-15 0)
(3 1.78651e-15 0)
(3 1.81421e-15 0)
(3 1.84606e-15 0)
(3 1.97654e-15 0)
(3 2.37396e-15 0)
(3 2.21053e-15 0)
(3 2.25258e-15 0)
(3 2.48426e-15 0)
(3 1.47694e-15 0)
(3 1.13356e-15 0)
(3 1.28278e-15 0)
(3 2.72928e-15 0)
(3 3.27996e-15 0)
(3 1.55582e-15 0)
(3 7.72154e-16 0)
(3 4.47646e-16 0)
(3 -5.52217e-16 0)
(3 1.01248e-17 0)
(3 4.1852e-17 0)
(3 -2.21392e-16 0)
(3 -4.02718e-16 0)
(3 -6.02625e-16 0)
(3 -1.01666e-15 0)
(3 -1.26031e-15 0)
(3 -7.86949e-16 0)
(3 -3.76929e-16 0)
(3 3.07966e-17 0)
(3 1.14538e-16 0)
(3 2.88979e-16 0)
(3 2.20683e-16 0)
(3 1.06765e-16 0)
(3 4.30627e-16 0)
(3 1.1027e-15 0)
(3 1.61238e-15 0)
(3 1.50078e-15 0)
(3 1.34512e-15 0)
(3 1.2876e-15 0)
(3 1.16389e-15 0)
(3 1.57882e-15 0)
(3 1.54173e-15 0)
(3 1.5893e-15 0)
(3 1.25937e-15 0)
(3 9.40462e-16 0)
(3 7.5957e-16 0)
(3 4.45726e-16 0)
(3 8.00033e-16 0)
(3 9.9574e-16 0)
(3 1.20309e-15 0)
(3 1.87186e-15 0)
(3 2.75933e-15 0)
(3 2.83047e-15 0)
(3 2.56772e-15 0)
(3 2.34869e-15 0)
(3 2.40955e-15 0)
(3 2.44535e-15 0)
(3 2.63851e-15 0)
(3 2.21318e-15 0)
(3 1.48444e-15 0)
(3 2.09079e-15 0)
(3 3.36004e-15 0)
(3 3.29953e-15 0)
(3 2.39805e-15 0)
(3 1.69811e-15 0)
(3 9.54944e-16 0)
(3 -8.3701e-16 0)
(3 6.1767e-17 0)
(3 4.34863e-17 0)
(3 -4.60486e-16 0)
(3 -9.47445e-16 0)
(3 -9.71127e-16 0)
(3 -1.24048e-15 0)
(3 -1.13421e-15 0)
(3 -1.37015e-15 0)
(3 -1.97222e-15 0)
(3 -1.61935e-15 0)
(3 -1.51668e-15 0)
(3 -1.32516e-15 0)
(3 -1.36956e-15 0)
(3 -1.34891e-15 0)
(3 -6.54739e-16 0)
(3 -2.40348e-16 0)
(3 1.65368e-16 0)
(3 8.00523e-16 0)
(3 1.29152e-15 0)
(3 1.51854e-15 0)
(3 6.67736e-16 0)
(3 2.94592e-16 0)
(3 -7.33052e-16 0)
(3 -9.1784e-16 0)
(3 -1.12865e-15 0)
(3 -3.93942e-16 0)
(3 -2.41238e-16 0)
(3 -9.57141e-17 0)
(3 -1.23631e-16 0)
(3 4.81701e-16 0)
(3 7.58752e-16 0)
(3 1.6963e-15 0)
(3 2.47658e-15 0)
(3 3.02943e-15 0)
(3 2.55988e-15 0)
(3 6.65971e-16 0)
(3 -8.35955e-17 0)
(3 -1.977e-16 0)
(3 1.68953e-16 0)
(3 5.19925e-16 0)
(3 2.38404e-16 0)
(3 1.50948e-15 0)
(3 1.72546e-15 0)
(3 2.01466e-15 0)
(3 1.96194e-15 0)
(3 1.70641e-15 0)
(3 2.26569e-16 0)
(3 -1.57558e-15 0)
(3 -1.27762e-17 0)
(3 -1.42075e-16 0)
(3 -1.58265e-16 0)
(3 2.28288e-17 0)
(3 1.19945e-16 0)
(3 -6.89747e-17 0)
(3 -5.59474e-16 0)
(3 -1.55953e-15 0)
(3 -1.86759e-15 0)
(3 -2.03089e-15 0)
(3 -1.43446e-15 0)
(3 -1.21585e-15 0)
(3 -1.19306e-15 0)
(3 -1.59146e-15 0)
(3 -1.45227e-15 0)
(3 -1.87587e-15 0)
(3 -2.25833e-15 0)
(3 -1.40579e-15 0)
(3 -7.06748e-16 0)
(3 -7.97848e-17 0)
(3 -1.16768e-16 0)
(3 -3.59401e-16 0)
(3 -9.57379e-16 0)
(3 -1.21997e-15 0)
(3 -1.80515e-15 0)
(3 -2.15383e-15 0)
(3 -1.88296e-15 0)
(3 -1.38056e-15 0)
(3 -5.67233e-16 0)
(3 5.85078e-16 0)
(3 1.75057e-15 0)
(3 1.57112e-15 0)
(3 7.23808e-17 0)
(3 2.38634e-16 0)
(3 -4.3838e-16 0)
(3 -9.2713e-16 0)
(3 -1.10365e-15 0)
(3 -1.4263e-15 0)
(3 -1.68881e-15 0)
(3 -6.46081e-16 0)
(3 4.96999e-16 0)
(3 5.0897e-16 0)
(3 1.05456e-15 0)
(3 2.07879e-15 0)
(3 1.9402e-15 0)
(3 1.0291e-15 0)
(3 -5.14646e-16 0)
(3 -7.95033e-16 0)
(3 3.2286e-18 0)
(3 -1.96855e-16 0)
(3 -3.01391e-17 0)
(3 3.37185e-16 0)
(3 5.78067e-16 0)
(3 1.5075e-16 0)
(3 -6.7317e-17 0)
(3 -3.95271e-16 0)
(3 1.19445e-16 0)
(3 -9.0235e-17 0)
(3 3.92607e-16 0)
(3 4.1326e-17 0)
(3 -2.31175e-16 0)
(3 -7.17762e-16 0)
(3 -7.52484e-16 0)
(3 -1.05165e-15 0)
(3 -1.2517e-15 0)
(3 -1.49889e-15 0)
(3 -2.37943e-15 0)
(3 -2.7296e-15 0)
(3 -1.47068e-15 0)
(3 -1.06014e-15 0)
(3 -1.08252e-15 0)
(3 -1.0789e-15 0)
(3 -1.55053e-15 0)
(3 -1.73276e-15 0)
(3 -8.85721e-16 0)
(3 -1.72469e-16 0)
(3 6.51615e-16 0)
(3 6.35824e-16 0)
(3 4.56387e-16 0)
(3 -7.2622e-16 0)
(3 -1.18007e-15 0)
(3 -1.56052e-15 0)
(3 -2.34333e-15 0)
(3 -2.01939e-15 0)
(3 -1.49925e-15 0)
(3 -1.3116e-15 0)
(3 -1.36457e-15 0)
(3 5.49778e-16 0)
(3 1.29081e-15 0)
(3 1.43092e-15 0)
(3 1.4175e-15 0)
(3 5.02478e-16 0)
(3 -1.52411e-16 0)
(3 -1.08628e-15 0)
(3 -1.46423e-15 0)
(3 -1.50538e-15 0)
(3 -2.05155e-17 0)
(3 2.02263e-16 0)
(3 3.38395e-16 0)
(3 3.12535e-16 0)
(3 8.48969e-17 0)
(3 5.69705e-17 0)
(3 2.54205e-16 0)
(3 5.63377e-16 0)
(3 2.28274e-16 0)
(3 2.16232e-16 0)
(3 -2.45023e-16 0)
(3 -5.57356e-16 0)
(3 -5.16278e-16 0)