/*--------------------------------*- C++ -*----------------------------------*\
  =========                 |
  \\      /  F ield         | OpenFOAM: The Open Source CFD Toolbox
   \\    /   O peration     | Website:  https://openfoam.org
    \\  /    A nd           | Version:  7
     \\/     M anipulation  |
\*---------------------------------------------------------------------------*/
FoamFile
{
    version     2.0;
    format      ascii;
    class       volScalarField;
    location    "0.9";
    object      p;
}
// * * * * * * * * * * * * * * * * * * * * * * * * * * * * * * * * * * * * * //

dimensions      [1 -1 -2 0 0 0 0];

internalField   nonuniform List<scalar> 
18432
(
1
1
1
1
1
1
1
1
1
1
1
1
1
1
1
1
1
1
1
1
1
1
1
1
1
1
1
1
1
1
1
1
1
1
1
1
1
1
1
1
1
1
1
1
1
1
1
1
1
1
1
1
1
1
1
1
1
1
1
1
1
1
1
1
1
1
1
1
1
1
1
1
1
1
1
1
1
1
1
1
1
1
1
1
1
1
1
1
1
1
1
1
1
1
1
1
1
1
1
1
1
1
1
1
1
1
1
1
1
1
1
1
1
1
1
1
1
1
1
1
1
1
1
1
1
1
1
1
1
1
1
1
1
1
1
1
1
1
1
1
1
1
1
1
1
1
1
1
1
1
1
1
1
1
1
1
1
1
1
1
1
1
1
1
1
1
1
1
1
1
1
1
1
1
1
1
1
1
1
1
1
1
1
1
1
1
1
1
1
1
1
1
1
1
1
1
1
1
1
1
1
1
1
1
1
1
1
1
1
1
1
1
1
1
1
1
1
1
1
1
1
1
1
1
1
1
1
1
1
1
1
1
1
1
1
1
1
1
1
1
1
1
1
1
1
1
1
1
1
1
1
1
1
1
1
1
1
1
1
1
1
1
1
1
1
1
1
1
1
1
1
1
1
1
1
1
1
1
1
1
1
1
1
1
1
1
1
1
1
1
1
1
1
1
1
1
1
1
1
1
1
1
1
1
1
1
1
1
1
1
1
1
1
1
1
1
1
1
1
1
1
1
1
1
1
1
1
1
1
1
1
1
1
1
1
1
1
1
1
1
1
1
1
1
1
1
1
1
1
1
1
1
1
1
1
1
1
1
1
1
1
1
1
1
1
1
1
1
1
1
1
1
1
1
1
1
1
1
1
1
1
1
1
1
1
1
1
1
1
1
1
1
1
1
1
1
1
1
1
1
1
1
1
1
1
1
1
1
1
1
1
1
1
1
1
1
1
1
1
1
1
1
1
1
1
1
1
1
1
1
1
1
1
1
1
1
1
1
1
1
1
1
1
1
1
1
1
1
1
1
1
1
1
1
1
1
1
1
1
1
1
1
1
1
1
1
1
1
1
1
1
1
1
1
1
1
1
1
1
1
1
1
1
1
1
1
1
1
1
1
1
1
1
1
1
1
1
1
1
1
1
1
1
1
1
1
1
1
1
1
1
1
1
1
1
1
1
1
1
1
1
1
1
1
1
1
1
1
1
1
1
1
1
1
1
1
1
1
1
1
1
1
1
1
1
1
1
1
1
1
1
1
1
1
1
1
1
1
1
1
1
1
1
1
1
1
1
1
1
1
1
1
1
1
1
1
1
1
1
1
1
1
1
1
1
1
1
1
1
1
1
1
1
1
1
1
1
1
1
1
1
1
1
1
1
1
1
1
1
1
1
1
1
1
1
1
1
1
1
1
1
1
1
1
1
1
1
1
1
1
1
1
1
1
1
1
1
1
1
1
1
1
1
1
1
1
1
1
1
1
1
1
1
1
1
1
1
1
1
1
1
1
1
1
1
1
1
1
1
1
1
1
1
1
1
1
1
1
1
1
1
1
1
1
1
1
1
1
1
1
1
1
1
1
1
1
1
1
1
1
1
1
1
1
1
1
1
1
1
1
1
1
1
1
1
1
1
1
1
1
1
1
1
1
1
1
1
1
1
1
1
1
1
1
1
1
1
1
1
1
1
1
1
1
1
1
1
1
1
1
1
1
1
1
1
1
1
1
1
1
1
1
1
1
1
1
1
1
1
1
1
1
1
1
1
1
1
1
1
1
1
1
1
1
1
1
1
1
1
1
1
1
1
1
1
1
1
1
1
1
1
1
1
1
1
1
1
1
1
1
1
1
1
1
1
1
1
1
1
1
1
1
1
1
1
1
1
1
1
1
1
1
1
1
1
1
1
1
1
1
1
1
1
1
1
1
1
1
1
1
1
1
1
1
1
1
1
1
1
1
1
1
1
1
1
1
1
1
1
1
1
1
1
1
1
1
1
1
1
1
1
1
1
1
1
1
1
1
1
1
1
1
1
1
1
1
1
1
1
1
1
1
1
1
1
1
1
1
1
1
1
1
1
1
1
1
1
1
1
1
1
1
1
1
1
1
1
1
1
1
1
1
1
1
1
1
1
1
1
1
1
1
1
1
1
1
1
1
1
1
1
1
1
1
1
1
1
1
1
1
1
1
1
1
1
1
1
1
1
1
1
1
1
1
1
1
1
1
1
1
1
1
1
1
1
1
1
1
1
1
1
1
1
1
1
1
1
1
1
1
1
1
1
1
1
1
1
1
1
1
1
1
1
1
1
1
1
1
1
1
1
1
1
1
1
1
1
1
1
1
1
1
1
1
1
1
1
1
1
1
1
1
1
1
1
1
1
1
1
1
1
1
1
1
1
1
1
1
1
1
1
1
1
1
1
1
1
1
1
1
1
1
1
1
1
1
1
1
1
1
1
1
1
1
1
1
1
1
1
1
1
1
1
1
1
1
1
1
1
1
1
1
1
1
1
1
1
1
1
1
1
1
1
1
1
1
1
1
1
1
1
1
1
1
1
1
1
1
1
1
1
1
1
1
1
1
1
1
1
1
1
1
1
1
1
1
1
1
1
1
1
1
1
1
1
1
1
1
1
1
1
1
1
1
1
1
1
1
1
1
1
1
1
1
1
1
1
1
1
1
1
1
1
1
1
1
1
1
1
1
1
1
1
1
1
1
1
1
1
1
1
1
1
1
1
1
1
1
1
1
1
1
1
1
1
1
1
1
1
1
1
1
1
1
1
1
1
1
1
1
1
1
1
1
1
1
1
1
1
1
1
1
1
1
1
1
1
1
1
1
1
1
1
1
1
1
1
1
1
1
1
1
1
1
1
1
1
1
1
1
1
1
1
1
1
1
1
1
1
1
1
1
1
1
1
1
1
1
1
1
1
1
1
1
1
1
1
1
1
1
1
1
1
1
1
1
1
1
1
1
1
1
1
1
1
1
1
1
1
1
1
1
1
1
1
1
1
1
1
1
1
1
1
1
1
1
1
1
1
1
1
1
1
1
1
1
1
1
1
1
1
1
1
1
1
1
1
1
1
1
1
1
1
1
1
1
1
1
1
1
1
1
1
1
1
1
1
1
1
1
1
1
1
1
1
1
1
1
1
1
1
1
1
1
1
1
1
1
1
1
1
1
1
1
1
1
1
1
1
1
1
1
1
1
1
1
1
1
1
1
1
1
1
1
1
1
1
1
1
1
1
1
1
1
1
1
1
1
1
1
1
1
1
1
1
1
1
1
1
1
1
1
1
1
1
1
1
1
1
1
1
1
1
1
1
1
1
1
1
1
1
1
1
1
1
1
1
1
1
1
1
1
1
1
1
1
1
1
1
1
1
1
1
1
1
1
1
1
1
1
1
1
1
1
1
1
1
1
1
1
1
1
1
1
1
1
1
1
1
1
1
1
1
1
1
1
1
1
1
1
1
1
1
1
1
1
1
1
1
1
1
1
1
1
1
1
1
1
1
1
1
1
1
1
1
1
1
1
1
1
1
1
1
1
1
1
1
1
1
1
1
1
1
1
1
1
1
1
1
1
1
1
1
1
1
1
1
1
1
1
1
1
1
1
1
1
1
1
1
1
1
1
1
1
1
1
1
1
1
1
1
1
1
1
1
1
1
1
1
1
1
1
1
1
1
1
1
1
1
1
1
1
1
1
1
1
1
1
1
1
1
1
1
1
1
1
1
1
1
1
1
1
1
1
1
1
1
1
1
1
1
1
1
1
1
1
1
1
1
1
1
1
1
1
1
1
1
1
1
1
1
1
1
1
1
1
1
1
1
1
1
1
1
1
1
1
1
1
1
1
1
1
1
1
1
1
1
1
1
1
1
1
1
1
1
1
1
1
1
1
1
1
1
1
1
1
1
1
1
1
1
1
1
1
1
1
1
1
1
1
1
1
1
1
1
1
1
1
1
1
1
1
1
1
1
1
1
1
1
1
1
1
1
1
1
1
1
1
1
1
1
1
1
1
1
1
1
1
1
1
1
1
1
1
1
1
1
1
1
1
1
1
1
1
1
1
1
1
1
1
1
1
1
1
1
1
1
1
1
1
1
1
1
1
1
1
1
1
1
1
1
1
1
1
1
1
1
1
1
1
1
1
1
1
1
1
1
1
1
1
1
1
1
1
1
1
1
1
1
1
1
1
1
1
1
1
1
1
1
1
1
1
1
1
1
1
1
1
1
1
1
1
1
1
1
1
1
1
1
1
1
1
1
1
1
1
1
1
1
1
1
1
1
1
1
1
1
1
1
1
1
1
1
1
1
1
1
1
1
1
1
1
1
1
1
1
1
1
1
1
1
1
1
1
1
1
1
1
1
1
1
1
1
1
1
1
1
1
1
1
1
1
1
1
1
1
1
1
1
1
1
1
1
1
1
1
1
1
1
1
1
1
1
1
1
1
1
1
1
1
1
1
1
1
1
1
1
1
1
1
1
1
1
1
1
1
1
1
1
1
1
1
1
1
1
1
1
1
1
1
1
1
1
1
1
1
1
1
1
1
1
1
1
1
1
1
1
1
1
1
1
1
1
1
1
1
1
1
1
1
1
1
1
1
1
1
1
1
1
1
1
1
1
1
1
1
1
1
1
1
1
1
1
1
1
1
1
1
1
1
1
1
1
1
1
1
1
1
1
1
1
1
1
1
1
1
1
1
1
1
1
1
1
1
1
1
1
1
1
1
1
1
1
1
1
1
1
1
1
1
1
1
1
1
1
1
1
1
1
1
1
1
1
1
1
1
1
1
1
1
1
1
1
1
1
1
1
1
1
1
1
1
1
1
1
1
1
1
1
1
1
1
1
1
1
1
1
1
1
1
1
1
1
1
1
1
1
1
1
1
1
1
1
1
1
1
1
1
1
1
1
1
1
1
1
1
1
1
1
1
1
1
1
1
1
1
1
1
1
1
1
1
1
1
1
1
1
1
1
1
1
1
1
1
1
1
1
1
1
1
1
1
1
1
1
1
1
1
1
1
1
1
1
1
1
1
1
1
1
1
1
1
1
1
1
1
1
1
1
1
1
1
1
1
1
1
1
1
1
1
1
1
1
1
1
1
1
1
1
1
1
1
1
1
1
1
1
1
1
1
1
1
1
1
1
1
1
1
1
1
1
1
1
1
1
1
1
1
1
1
1
1
1
1
1
1
1
1
1
1
1
1
1
1
1
1
1
1
1
1
1
1
1
1
1
1
1
1
1
1
1
1
1
1
1
1
1
1
1
1
1
1
1
1
1
1
1
1
1
1
1
1
1
1
1
1
1
1
1
1
1
1
1
1
1
1
1
1
1
1
1
1
1
1
1
1
1
1
1
1
1
1
1
1
1
1
1
1
1
1
1
1
1
1
1
1
1
1
1
1
1
1
1
1
1
1
1
1
1
1
1
1
1
1
1
1
1
1
1
1
1
1
1
1
1
1
1
1
1
1
1
1
1
1
1
1
1
1
1
1
1
1
1
1
1
1
1
1
1
1
1
1
1
1
1
1
1
1
1
1
1
1
1
1
1
1
1
1
1
1
1
1
1
1
1
1
1
1
1
1
1
1
1
1
1
1
1
1
1
1
1
1
1
1
1
1
1
1
1
1
1
1
1
1
1
1
1
1
1
1
1
1
1
1
1
1
1
1
1
1
1
1
1
1
1
1
1
1
1
1
1
1
1
1
1
1
1
1
1
1
1
1
1
1
1
1
1
1
1
1
1
1
1
1
1
1
1
1
1
1
1
1
1
1
1
1
1
1
1
1
1
1
1
1
1
1
1
1
1
1
1
1
1
1
1
1
1
1
1
1
1
1
1
1
1
1
1
1
1
1
1
1
1
1
1
1
1
1
1
1
1
1
1
1
1
1
1
1
1
1
1
1
1
1
1
1
1
1
1
1
1
1
1
1
1
1
1
1
1
1
1
1
1
1
1
1
1
1
1
1
1
1
1
1
1
1
1
1
1
1
1
1
1
1
1
1
1
1
1
1
1
1
1
1
1
1
1
1
1
1
1
1
1
1
1
1
1
1
1
1
1
1
1
1
1
1
1
1
1
1
1
1
1
1
1
1
1
1
1
1
1
1
1
1
1
1
1
1
1
1
1
1
1
1
1
1
1
1
1
1
1
1
1
1
1
1
1
1
1
1
1
1
1
1
1
1
1
1
1
1
1
1
1
1
1
1
1
1
1
1
1
1
1
1
1
1
1
1
1
1
1
1
1
1
1
1
1
1
1
1
1
1
1
1
1
1
1
1
1
1
1
1
1
1
1
1
1
1
1
1
1
1
1
1
1
1
1
1
1
1
1
1
1
1
1
1
1
1
1
1
1
1
1
1
1
1
1
1
1
1
1
1
1
1
1
1
1
1
1
1
1
1
1
1
1
1
1
1
1
1
1
1
1
1
1
1
1
1
1
1
1
1
1
1
1
1
1
1
1
1
1
1
1
1
1
1
1
1
1
1
1
1
1
1
1
1
1
1
1
1
1
1
1
1
1
1
1
1
1
1
1
1
1
1
1
1
1
1
1
1
1
1
1
1
1
1
1
1
1
1
1
1
1
1
1
1
1
1
1
1
1
1
1
1
1
1
1
1
1
1
1
1
1
1
1
1
1
1
1
1
1
1
1
1
1
1
1
1
1
1
1
1
1
1
1
1
1
1
1
1
1
1
1
1
1
1
1
1
1
1
1
1
1
1
1
1
1
1
1
1
1
1
1
1
1
1
1
1
1
1
1
1
1
1
1
1
1
1
1
1
1
1
1
1
1
1
1
1
1
1
1
1
1
1
1
1
1
1
1
1
1
1
1
1
1
1
1
1
1
1
1
1
1
1
1
1
1
1
1
1
1
1
1
1
1
1
1
1
1
1
1
1
1
1
1
1
1
1
1
1
1
1
1
1
1
1
1
1
1
1
1
1
1.28945
1.76089
2.31121
2.87831
3.59059
4.15665
4.65989
5.12315
5.34458
5.24932
4.91714
4.47689
4.09416
3.79485
3.66038
3.57517
3.55344
3.56836
3.60627
3.64826
3.68552
3.7041
3.71587
3.72753
3.74041
3.75263
3.7619
3.76804
3.77441
3.78471
3.7956
3.79907
3.79795
3.7935
3.78507
3.77579
3.76944
3.76623
3.76485
3.76494
3.76526
3.76798
3.76944
3.76956
3.76924
3.7686
3.76735
3.76831
1.0019
1.01421
1.07722
1.20172
1.40907
1.76934
2.21443
2.7529
3.32027
3.73142
3.88347
4.0713
4.05828
3.95809
3.83865
3.78811
3.74426
3.69406
3.67307
3.66961
3.68222
3.70559
3.72571
3.73591
3.74007
3.74573
3.75229
3.75542
3.75799
3.76349
3.77082
3.77753
3.78125
3.78155
3.77897
3.77439
3.77093
3.7706
3.77207
3.77445
3.77741
3.77922
3.77894
3.77765
3.7745
3.76905
3.76637
3.76788
1
0.999976
1.00007
1.00006
1.00129
1.01343
1.06094
1.22292
1.5996
2.36303
3.29997
3.93448
4.31347
4.3212
4.24581
4.11453
3.98165
3.79692
3.68259
3.679
3.69176
3.71505
3.7396
3.74833
3.75026
3.74625
3.74924
3.75275
3.75506
3.75879
3.76335
3.76759
3.76808
3.76674
3.76411
3.76205
3.76206
3.7641
3.768
3.77451
3.78256
3.78708
3.78739
3.78596
3.78228
3.77567
3.77083
3.77264
1
1
1
1
0.999998
1
0.999989
1.0001
1.0054
1.07095
1.43855
2.11813
3.2232
3.74095
4.0466
4.02475
3.93746
3.91188
3.85047
3.78866
3.7705
3.73549
3.7243
3.72067
3.72464
3.73155
3.74494
3.75879
3.76671
3.77203
3.7757
3.77558
3.77459
3.77182
3.76985
3.76811
3.76641
3.76693
3.77004
3.77529
3.78075
3.78323
3.78226
3.77946
3.77425
3.76932
3.76871
3.77089
1
1
1
1
1
1
1
0.999999
1
0.999919
1.00243
1.03841
1.30475
1.9696
2.87408
3.71795
3.89773
4.00637
3.99295
3.93459
3.81414
3.7156
3.67853
3.67134
3.67743
3.68587
3.70382
3.72805
3.75114
3.77042
3.7813
3.78282
3.78224
3.77887
3.77797
3.77786
3.77667
3.77653
3.77893
3.7823
3.78395
3.78294
3.78029
3.77561
3.76898
3.76517
3.7645
3.76622
1
1
1
1
1
1
1
1
1
0.999997
0.999997
0.999953
1.00085
1.03087
1.20241
1.84238
2.66637
3.52083
3.87774
3.86153
3.8539
3.80393
3.7492
3.71549
3.69128
3.68493
3.6895
3.70336
3.72258
3.74265
3.75985
3.77166
3.77303
3.77297
3.77211
3.77095
3.76899
3.76889
3.77238
3.77496
3.77417
3.77203
3.76947
3.76667
3.76415
3.76315
3.76231
3.7683
1
1
1
1
1
1
1
1
1
1
1
0.999998
0.999998
0.999969
1.00037
1.02239
1.18618
1.66756
2.52864
3.22627
3.77885
3.87383
3.8564
3.81568
3.77693
3.74224
3.71522
3.70921
3.71212
3.72186
3.73316
3.75024
3.75919
3.76301
3.76133
3.7603
3.76047
3.76384
3.77062
3.77328
3.77315
3.77222
3.77136
3.77102
3.77074
3.77066
3.77014
3.77541
1
1
1
1
1
1
1
1
1
1
1
1
1
0.999998
0.999998
0.999972
1.00049
1.01189
1.15859
1.57467
2.4385
3.10108
3.53952
3.76779
3.79964
3.7947
3.76088
3.7475
3.74375
3.7417
3.74118
3.73915
3.74461
3.7532
3.75886
3.76261
3.76582
3.77116
3.77793
3.77958
3.77907
3.77702
3.77484
3.77422
3.77363
3.77327
3.77347
3.77582
1
1
1
1
1
1
1
1
1
1
1
1
1
1
1
0.999998
0.999998
0.99998
1.0005
1.01066
1.12269
1.57287
2.276
3.11217
3.42747
3.60871
3.71552
3.75367
3.75366
3.73409
3.72958
3.73267
3.73879
3.74893
3.75994
3.7694
3.7775
3.78385
3.78647
3.78565
3.78369
3.78126
3.7771
3.7734
3.77172
3.77126
3.77169
3.77355
1
1
1
1
1
1
1
1
1
1
1
1
1
1
1
1
1
0.999998
0.999998
0.999985
1.00033
1.0136
1.10053
1.51796
2.20529
3.04029
3.50254
3.59807
3.67951
3.68126
3.69425
3.70807
3.71303
3.72189
3.7364
3.7515
3.76621
3.7756
3.77848
3.77937
3.7786
3.77858
3.77769
3.77553
3.77364
3.77343
3.7746
3.77549
1
1
1
1
1
1
1
1
1
1
1
1
1
1
1
1
1
1
1
0.999998
0.999999
0.999988
1.00026
1.01186
1.10696
1.46379
2.22334
2.95719
3.5131
3.67464
3.70009
3.71352
3.71538
3.7157
3.72448
3.7339
3.74596
3.75946
3.76609
3.76796
3.76707
3.76811
3.76867
3.76726
3.76698
3.76792
3.77083
3.77249
1
1
1
1
1
1
1
1
1
1
1
1
1
1
1
1
1
1
1
1
1
0.999999
0.999999
0.999989
1.00041
1.00935
1.12938
1.4827
2.25527
2.95812
3.48005
3.70143
3.74517
3.74968
3.76564
3.76538
3.76468
3.77193
3.77802
3.77838
3.77584
3.77273
3.76893
3.76668
3.76764
3.76886
3.77017
3.77156
1
1
1
1
1
1
1
1
1
1
1
1
1
1
1
1
1
1
1
1
1
1
1
0.999998
0.999999
0.999989
1.00084
1.01144
1.13369
1.56443
2.34452
3.04028
3.42867
3.65156
3.74054
3.75209
3.76141
3.77341
3.77757
3.77855
3.77786
3.77525
3.77641
3.77806
3.7798
3.78092
3.77956
3.77887
1
1
1
1
1
1
1
1
1
1
1
1
1
1
1
1
1
1
1
1
1
1
1
1
1
0.999998
0.999999
0.999992
1.00109
1.01948
1.15142
1.67185
2.46816
3.28048
3.50492
3.60448
3.67923
3.72587
3.73626
3.73994
3.74585
3.75866
3.77236
3.7798
3.78216
3.78147
3.78068
3.77874
1
1
1
1
1
1
1
1
1
1
1
1
1
1
1
1
1
1
1
1
1
1
1
1
1
1
1
0.999999
0.999998
1.00001
1.00148
1.03573
1.21437
1.84492
2.66514
3.39399
3.67267
3.69715
3.71465
3.71573
3.7226
3.73855
3.75525
3.7653
3.77056
3.77443
3.77714
3.77579
1
1
1
1
1
1
1
1
1
1
1
1
1
1
1
1
1
1
1
1
1
1
1
1
1
1
1
1
1
1
0.999997
1.0001
1.00306
1.06297
1.33787
2.09895
2.93193
3.49727
3.73915
3.75175
3.77318
3.78851
3.7889
3.78491
3.78202
3.78039
3.77757
3.77512
1
1
1
1
1
1
1
1
1
1
1
1
1
1
1
1
1
1
1
1
1
1
1
1
1
1
1
1
1
1
1
1
0.999996
1.00041
1.00805
1.12192
1.56699
2.45055
3.15043
3.52958
3.7318
3.77727
3.77931
3.79107
3.7938
3.79074
3.78539
3.78097
1
1
1
1
1
1
1
1
1
1
1
1
1
1
1
1
1
1
1
1
1
1
1
1
1
1
1
1
1
1
1
1
0.999999
0.999999
1
1.00159
1.0248
1.23882
1.90278
2.91731
3.45305
3.58129
3.6665
3.73311
3.75876
3.76558
3.76692
3.76754
1
1
1
1
1
1
1
1
1
1
1
1
1
1
1
1
1
1
1
1
1
1
1
1
1
1
1
1
1
1
1
1
1
1
1
0.999998
1.00007
1.00633
1.0822
1.50618
2.37773
3.25929
3.68639
3.72607
3.74785
3.74957
3.74526
3.74867
1
1
1
1
1
1
1
1
1
1
1
1
1
1
1
1
1
1
1
1
1
1
1
1
1
1
1
1
1
1
1
1
1
1
1
1
1
1.00001
1.0008
1.026
1.23758
1.95096
2.91161
3.52161
3.77599
3.79337
3.7885
3.78556
1
1
1
1
1
1
1
1
1
1
1
1
1
1
1
1
1
1
1
1
1
1
1
1
1
1
1
1
1
1
1
1
1
1
1
1
1
1
0.999999
1.00016
1.00579
1.10494
1.60939
2.61071
3.29988
3.57881
3.7546
3.77296
1
1
1
1
1
1
1
1
1
1
1
1
1
1
1
1
1
1
1
1
1
1
1
1
1
1
1
1
1
1
1
1
1
1
1
1
1
1
1
0.999999
1.00001
1.00195
1.03789
1.354
2.19139
3.25314
3.59819
3.66954
1
1
1
1
1
1
1
1
1
1
1
1
1
1
1
1
1
1
1
1
1
1
1
1
1
1
1
1
1
1
1
1
1
1
1
1
1
1
1
1
1
1
1.0003
1.01745
1.17911
1.93388
2.94935
3.60871
1
1
1
1
1
1
1
1
1
1
1
1
1
1
1
1
1
1
1
1
1
1
1
1
1
1
1
1
1
1
1
1
1
1
1
1
1
1
1
1
1
1
1
1.00012
1.00481
1.12011
1.66375
2.77484
1
1
1
1
1
1
1
1
1
1
1
1
1
1
1
1
1
1
1
1
1
1
1
1
1
1
1
1
1
1
1
1
1
1
1
1
1
1
1
1
1
1
1
1
1.00002
1.00316
1.05523
1.46109
1
1
1
1
1
1
1
1
1
1
1
1
1
1
1
1
1
1
1
1
1
1
1
1
1
1
1
1
1
1
1
1
1
1
1
1
1
1
1
1
1
1
1
1
1
1.00001
1.00085
1.02325
1
1
1
1
1
1
1
1
1
1
1
1
1
1
1
1
1
1
1
1
1
1
1
1
1
1
1
1
1
1
1
1
1
1
1
1
1
1
1
1
1
1
1
1
1
1
1.00001
0.999816
1
1
1
1
1
1
1
1
1
1
1
1
1
1
1
1
1
1
1
1
1
1
1
1
1
1
1
1
1
1
1
1
1
1
1
1
1
1
1
1
1
1
1
1
1
1
1
0.999935
1
1
1
1
1
1
1
1
1
1
1
1
1
1
1
1
1
1
1
1
1
1
1
1
1
1
1
1
1
1
1
1
1
1
1
1
1
1
1
1
1
1
1
1
1
1
1
0.999992
1
1
1
1
1
1
1
1
1
1
1
1
1
1
1
1
1
1
1
1
1
1
1
1
1
1
1
1
1
1
1
1
1
1
1
1
1
1
1
1
1
1
1
1
1
1
1
1
1
1
1
1
1
1
1
1
1
1
1
1
1
1
1
1
1
1
1
1
1
1
1
1
1
1
1
1
1
1
1
1
1
1
1
1
1
1
1
1
1
1
1
1
1
1
1
1
1
1
1
1
1
1
1
1
1
1
1
1
1
1
1
1
1
1
1
1
1
1
1
1
1
1
1
1
1
1
1
1
1
1
1
1
1
1
1
1
1
1
1
1
1
1
1
1
1
1
1
1
1
1
1
1
1
1
1
1
1
1
1
1
1
1
1
1
1
1
1
1
1
1
1
1
1
1
1
1
1
1
1
1
1
1
1
1
1
1
1
1
1
1
1
1
1
1
1
1
1
1
1
1
1
1
1
1
1
1
1
1
1
1
1
1
1
1
1
1
1
1
1
1
1
1
1
1
1
1
1
1
1
1
1
1
1
1
1
1
1
1
1
1
1
1
1
1
1
1
1
1
1
1
1
1
1
1
1
1
1
1
1
1
1
1
1
1
1
1
1
1
1
1
1
1
1
1
1
1
1
1
1
1
1
1
1
1
1
1
1
1
1
1
1
1
1
1
1
1
1
1
1
1
1
1
1
1
1
1
1
1
1
1
1
1
1
1
1
1
1
1
1
1
1
1
1
1
1
1
1
1
1
1
1
1
1
1
1
0.999992
1
1
1
1
1
1
1
1
1
1
1
1
1
1
1
1
1
1
1
1
1
1
1
1
1
1
1
1
1
1
1
1
1
1
1
1
1
1
1
1
1
1
1
1
1
1
1
0.999935
1
1
1
1
1
1
1
1
1
1
1
1
1
1
1
1
1
1
1
1
1
1
1
1
1
1
1
1
1
1
1
1
1
1
1
1
1
1
1
1
1
1
1
1
1
1
1.00001
0.999817
1
1
1
1
1
1
1
1
1
1
1
1
1
1
1
1
1
1
1
1
1
1
1
1
1
1
1
1
1
1
1
1
1
1
1
1
1
1
1
1
1
1
1
1
1
1.00001
1.00085
1.02326
1
1
1
1
1
1
1
1
1
1
1
1
1
1
1
1
1
1
1
1
1
1
1
1
1
1
1
1
1
1
1
1
1
1
1
1
1
1
1
1
1
1
1
1
1.00002
1.00316
1.05523
1.46108
1
1
1
1
1
1
1
1
1
1
1
1
1
1
1
1
1
1
1
1
1
1
1
1
1
1
1
1
1
1
1
1
1
1
1
1
1
1
1
1
1
1
1
1.00012
1.00481
1.12011
1.66374
2.77484
1
1
1
1
1
1
1
1
1
1
1
1
1
1
1
1
1
1
1
1
1
1
1
1
1
1
1
1
1
1
1
1
1
1
1
1
1
1
1
1
1
1
1.0003
1.01745
1.17911
1.93388
2.94936
3.60872
1
1
1
1
1
1
1
1
1
1
1
1
1
1
1
1
1
1
1
1
1
1
1
1
1
1
1
1
1
1
1
1
1
1
1
1
1
1
1
0.999999
1.00001
1.00195
1.03789
1.354
2.19138
3.25314
3.59823
3.66955
1
1
1
1
1
1
1
1
1
1
1
1
1
1
1
1
1
1
1
1
1
1
1
1
1
1
1
1
1
1
1
1
1
1
1
1
1
1
0.999999
1.00016
1.00579
1.10494
1.60939
2.6107
3.29988
3.57881
3.75462
3.77295
1
1
1
1
1
1
1
1
1
1
1
1
1
1
1
1
1
1
1
1
1
1
1
1
1
1
1
1
1
1
1
1
1
1
1
1
1
1.00001
1.0008
1.026
1.23757
1.95096
2.91161
3.52161
3.776
3.79338
3.7885
3.78556
1
1
1
1
1
1
1
1
1
1
1
1
1
1
1
1
1
1
1
1
1
1
1
1
1
1
1
1
1
1
1
1
1
1
1
0.999998
1.00007
1.00633
1.0822
1.50618
2.37772
3.25929
3.68639
3.72606
3.74784
3.74957
3.74526
3.74867
1
1
1
1
1
1
1
1
1
1
1
1
1
1
1
1
1
1
1
1
1
1
1
1
1
1
1
1
1
1
1
1
0.999999
0.999999
1
1.00159
1.0248
1.23882
1.90278
2.91731
3.45305
3.58129
3.6665
3.73311
3.75876
3.76558
3.76692
3.76754
1
1
1
1
1
1
1
1
1
1
1
1
1
1
1
1
1
1
1
1
1
1
1
1
1
1
1
1
1
1
1
1
0.999996
1.00041
1.00805
1.12192
1.56699
2.45055
3.15043
3.52957
3.7318
3.77727
3.7793
3.79107
3.7938
3.79074
3.78539
3.78097
1
1
1
1
1
1
1
1
1
1
1
1
1
1
1
1
1
1
1
1
1
1
1
1
1
1
1
1
1
1
0.999997
1.0001
1.00306
1.06297
1.33787
2.09895
2.93193
3.49727
3.73915
3.75176
3.77318
3.78851
3.7889
3.78491
3.78202
3.78039
3.77757
3.77512
1
1
1
1
1
1
1
1
1
1
1
1
1
1
1
1
1
1
1
1
1
1
1
1
1
1
1
0.999999
0.999998
1.00001
1.00148
1.03573
1.21437
1.84492
2.66514
3.39399
3.67267
3.69715
3.71465
3.71573
3.7226
3.73855
3.75525
3.7653
3.77056
3.77443
3.77714
3.77579
1
1
1
1
1
1
1
1
1
1
1
1
1
1
1
1
1
1
1
1
1
1
1
1
1
0.999998
0.999999
0.999992
1.00109
1.01948
1.15142
1.67185
2.46816
3.28048
3.50492
3.60448
3.67923
3.72587
3.73626
3.73994
3.74585
3.75866
3.77236
3.7798
3.78216
3.78147
3.78068
3.77874
1
1
1
1
1
1
1
1
1
1
1
1
1
1
1
1
1
1
1
1
1
1
1
0.999998
0.999999
0.999989
1.00084
1.01144
1.13369
1.56443
2.34452
3.04028
3.42867
3.65156
3.74054
3.75209
3.76141
3.77341
3.77757
3.77855
3.77786
3.77525
3.77641
3.77806
3.7798
3.78092
3.77956
3.77887
1
1
1
1
1
1
1
1
1
1
1
1
1
1
1
1
1
1
1
1
1
0.999999
0.999999
0.999989
1.00041
1.00935
1.12938
1.4827
2.25527
2.95812
3.48005
3.70143
3.74517
3.74968
3.76564
3.76538
3.76468
3.77193
3.77802
3.77838
3.77584
3.77273
3.76893
3.76668
3.76764
3.76886
3.77017
3.77156
1
1
1
1
1
1
1
1
1
1
1
1
1
1
1
1
1
1
1
0.999998
0.999999
0.999988
1.00026
1.01186
1.10696
1.46379
2.22334
2.95719
3.5131
3.67465
3.70009
3.71352
3.71538
3.7157
3.72449
3.7339
3.74596
3.75946
3.76609
3.76796
3.76707
3.76811
3.76867
3.76726
3.76698
3.76792
3.77083
3.77249
1
1
1
1
1
1
1
1
1
1
1
1
1
1
1
1
1
0.999998
0.999998
0.999985
1.00033
1.0136
1.10053
1.51796
2.2053
3.04029
3.50254
3.59807
3.67952
3.68126
3.69425
3.70807
3.71302
3.72189
3.7364
3.7515
3.76621
3.7756
3.77848
3.77937
3.7786
3.77858
3.77769
3.77553
3.77364
3.77343
3.7746
3.77549
1
1
1
1
1
1
1
1
1
1
1
1
1
1
1
0.999998
0.999998
0.99998
1.0005
1.01066
1.12269
1.57287
2.276
3.11217
3.42747
3.60871
3.71552
3.75367
3.75366
3.73409
3.72958
3.73267
3.73879
3.74893
3.75994
3.7694
3.7775
3.78385
3.78647
3.78565
3.78369
3.78126
3.7771
3.7734
3.77172
3.77126
3.77169
3.77355
1
1
1
1
1
1
1
1
1
1
1
1
1
0.999998
0.999998
0.999972
1.00049
1.01189
1.15859
1.57467
2.43849
3.10108
3.53952
3.76779
3.79964
3.7947
3.76088
3.7475
3.74375
3.7417
3.74119
3.73915
3.74461
3.7532
3.75886
3.76261
3.76582
3.77116
3.77793
3.77958
3.77907
3.77702
3.77484
3.77422
3.77363
3.77327
3.77347
3.77582
1
1
1
1
1
1
1
1
1
1
1
0.999998
0.999998
0.999969
1.00037
1.02239
1.18618
1.66756
2.52864
3.22627
3.77885
3.87383
3.8564
3.81568
3.77693
3.74224
3.71522
3.70921
3.71212
3.72186
3.73317
3.75025
3.75919
3.76301
3.76133
3.7603
3.76047
3.76384
3.77062
3.77328
3.77315
3.77222
3.77136
3.77102
3.77074
3.77066
3.77014
3.77541
1
1
1
1
1
1
1
1
1
0.999997
0.999997
0.999953
1.00085
1.03087
1.20241
1.84238
2.66637
3.52083
3.87775
3.86153
3.8539
3.80393
3.7492
3.71549
3.69128
3.68493
3.6895
3.70336
3.72258
3.74265
3.75985
3.77166
3.77303
3.77297
3.77211
3.77095
3.76899
3.76889
3.77238
3.77496
3.77417
3.77203
3.76947
3.76667
3.76415
3.76315
3.76231
3.7683
1
1
1
1
1
1
1
0.999999
1
0.999919
1.00243
1.03841
1.30475
1.9696
2.87407
3.71795
3.89773
4.00637
3.99295
3.93459
3.81414
3.7156
3.67852
3.67134
3.67743
3.68587
3.70382
3.72805
3.75114
3.77042
3.7813
3.78282
3.78224
3.77887
3.77797
3.77786
3.77667
3.77653
3.77893
3.7823
3.78395
3.78294
3.78029
3.77561
3.76898
3.76517
3.7645
3.76622
1
1
1
1
0.999998
1
0.999989
1.0001
1.0054
1.07095
1.43855
2.11813
3.2232
3.74095
4.0466
4.02475
3.93746
3.91188
3.85047
3.78866
3.7705
3.73549
3.7243
3.72067
3.72464
3.73155
3.74494
3.75879
3.76671
3.77203
3.7757
3.77558
3.77459
3.77182
3.76985
3.76811
3.76641
3.76693
3.77004
3.77529
3.78075
3.78323
3.78226
3.77946
3.77425
3.76932
3.76871
3.77089
1
0.999976
1.00007
1.00006
1.00129
1.01343
1.06094
1.22291
1.5996
2.36303
3.29997
3.93448
4.31347
4.3212
4.24581
4.11452
3.98165
3.79692
3.68259
3.679
3.69176
3.71505
3.7396
3.74834
3.75026
3.74625
3.74924
3.75275
3.75506
3.75879
3.76335
3.76759
3.76808
3.76674
3.76411
3.76205
3.76206
3.7641
3.768
3.77451
3.78256
3.78708
3.78739
3.78596
3.78228
3.77567
3.77084
3.77264
1.0019
1.01421
1.07722
1.20172
1.40907
1.76934
2.21443
2.7529
3.32027
3.73142
3.88347
4.0713
4.05828
3.95809
3.83865
3.78811
3.74426
3.69406
3.67307
3.66961
3.68222
3.70559
3.72571
3.73591
3.74007
3.74573
3.75229
3.75542
3.75799
3.76349
3.77082
3.77753
3.78125
3.78155
3.77897
3.77439
3.77093
3.7706
3.77207
3.77445
3.77741
3.77922
3.77894
3.77765
3.7745
3.76905
3.76637
3.76788
1.28945
1.76089
2.31121
2.87831
3.59059
4.15665
4.65989
5.12315
5.34458
5.24932
4.91714
4.47689
4.09415
3.79485
3.66038
3.57517
3.55344
3.56836
3.60627
3.64826
3.68552
3.7041
3.71587
3.72753
3.74041
3.75263
3.7619
3.76804
3.77441
3.7847
3.7956
3.79907
3.79795
3.7935
3.78507
3.77579
3.76944
3.76623
3.76485
3.76494
3.76526
3.76798
3.76944
3.76956
3.76924
3.7686
3.76735
3.76831
2.65273
1.67928
1.17601
0.870146
0.648053
0.639012
0.700339
0.746612
0.769256
0.834892
0.956269
0.984644
0.979258
0.996928
1.02879
1.03672
1.04314
1.0654
1.08384
1.08304
1.07897
1.07341
1.06688
1.05421
1.04667
1.04851
1.05118
1.05023
1.04685
1.0421
1.03812
1.03708
1.03723
1.03874
1.04236
1.04583
1.04685
1.04723
1.04646
1.04404
1.04372
1.04463
1.04721
1.0512
1.05268
1.05272
1.05232
1.0512
1.0494
1.05344
1.09788
1.28897
2.02639
3.56646
5.04773
6.502
7.99537
8.6709
8.68439
8.31827
7.72733
7.17381
6.82261
6.58072
6.50485
6.44189
6.38362
6.27574
6.16061
6.02266
5.80177
5.6147
5.52507
5.44658
5.36651
5.29357
5.21931
5.11669
4.94029
4.76265
4.68126
4.63116
4.58559
4.53555
4.47998
4.40232
4.25645
4.07372
3.99249
3.95256
3.91854
3.88664
3.84685
3.80119
3.73409
3.60471
3.44262
3.36836
3.33492
3.30973
3.29145
3.2706
3.24009
3.1989
3.12373
2.98336
2.8567
2.81139
2.78828
2.77014
2.75381
2.73108
2.70353
2.66175
2.57876
2.4649
2.4086
2.38614
2.36759
2.34791
2.3263
2.29969
2.25738
2.1895
2.13885
2.1197
2.10409
2.08639
2.06343
2.02394
1.95008
1.88454
1.86256
1.85019
1.83913
1.8293
1.82008
1.80776
1.79306
1.76992
1.71478
1.62839
1.58989
1.57707
1.56624
1.55674
1.54892
1.54289
1.53441
1.52284
1.50503
1.4663
1.40056
1.36155
1.34681
1.33485
1.32634
1.3194
1.31281
1.3045
1.29368
1.27652
1.24049
1.19017
1.17146
1.16639
1.16152
1.15762
1.15273
1.14505
1.13705
1.1283
1.11576
1.08967
1.03741
1.00026
0.992711
0.987826
0.982142
0.976829
0.972213
0.96763
0.962781
0.957012
0.947014
0.924749
0.895184
0.882083
0.875155
0.869709
0.86531
0.856986
3.37771
2.72441
2.1615
1.83071
1.45414
1.22252
1.15722
1.0545
0.973122
0.967101
0.95053
0.916117
0.909773
0.920297
0.953508
0.980688
0.995795
1.02076
1.04385
1.0441
1.04088
1.04279
1.04873
1.04813
1.04711
1.05013
1.05391
1.05286
1.04904
1.04565
1.04394
1.04371
1.04386
1.04559
1.04806
1.04834
1.04836
1.04792
1.04594
1.04408
1.04354
1.04365
1.0451
1.0484
1.05037
1.05021
1.04906
1.04871
1.05586
1.16726
1.55366
2.09765
2.87712
3.21146
3.64369
4.26324
5.13022
5.9708
6.6635
7.26246
7.53296
7.34903
7.09521
6.79377
6.62779
6.47876
6.37311
6.28005
6.17783
6.05913
5.86758
5.65408
5.53004
5.45757
5.39289
5.32664
5.25058
5.14631
4.98289
4.80779
4.71225
4.66257
4.61535
4.56347
4.50293
4.41907
4.28554
4.11932
4.03472
3.99631
3.95876
3.919
3.87558
3.82507
3.75058
3.62742
3.48206
3.40937
3.3759
3.34746
3.32254
3.29629
3.26352
3.21661
3.1347
3.01036
2.89672
2.84646
2.82223
2.80224
2.78223
2.75733
2.72622
2.67915
2.59897
2.49842
2.44249
2.41903
2.39905
2.37817
2.35402
2.32522
2.28664
2.22929
2.17243
2.14361
2.12608
2.10661
2.08066
2.04103
1.97835
1.91792
1.89129
1.87716
1.86374
1.85118
1.83888
1.82528
1.80827
1.78203
1.73254
1.65738
1.6143
1.59986
1.58925
1.57872
1.56894
1.55935
1.54907
1.53649
1.51803
1.4842
1.42808
1.38225
1.36513
1.35479
1.34513
1.33663
1.32812
1.31833
1.30631
1.29022
1.26302
1.21859
1.18902
1.18153
1.17609
1.17064
1.16418
1.15567
1.14671
1.13751
1.12582
1.10486
1.06351
1.01961
1.00725
1.00194
0.996095
0.990113
0.984556
0.978944
0.973034
0.966566
0.957875
0.941933
0.915538
0.895592
0.885904
0.878849
0.873837
0.866025
3.66181
3.34195
2.84146
2.39239
1.992
1.63652
1.43903
1.28008
1.08197
1.01182
0.982769
0.927046
0.913475
0.921766
0.937665
0.948966
0.957532
0.977993
1.00646
1.0138
1.01651
1.0245
1.03689
1.03886
1.03997
1.04668
1.05389
1.05479
1.05338
1.05055
1.04902
1.04892
1.04945
1.05122
1.05139
1.05048
1.04844
1.04497
1.0423
1.04191
1.04193
1.04306
1.04578
1.04811
1.04908
1.04851
1.05026
1.06464
1.20233
1.83181
2.49631
2.98366
3.2745
3.28823
3.24024
3.239
3.40026
3.98088
5.00149
6.24191
7.13654
7.39819
7.30339
7.04528
6.60176
6.31863
6.23908
6.22965
6.1651
6.04877
5.90298
5.71213
5.48705
5.3533
5.29916
5.25083
5.18177
5.08716
4.97377
4.86024
4.72662
4.6019
4.53291
4.47991
4.42194
4.34624
4.24436
4.15847
4.07738
3.97982
3.90458
3.85422
3.80604
3.75107
3.67953
3.58502
3.5093
3.44651
3.36971
3.30335
3.26586
3.23383
3.19658
3.14518
3.07054
2.98759
2.93846
2.89013
2.81812
2.75662
2.7294
2.70468
2.67428
2.6307
2.56792
2.51322
2.46873
2.4163
2.37251
2.3479
2.32635
2.30014
2.26537
2.21945
2.16628
2.11987
2.08961
2.06942
2.04771
2.0163
1.97441
1.92404
1.87666
1.85441
1.84075
1.82526
1.80919
1.79348
1.77623
1.75277
1.71629
1.66912
1.61771
1.58377
1.56976
1.56029
1.54967
1.53703
1.52277
1.5088
1.49357
1.46818
1.42338
1.37696
1.35202
1.34083
1.33142
1.32201
1.313
1.30314
1.29096
1.2748
1.25069
1.21417
1.1809
1.16607
1.15876
1.1525
1.14686
1.14015
1.13243
1.12449
1.11473
1.09653
1.05902
1.01517
0.995643
0.989848
0.984515
0.978644
0.972953
0.967399
0.961571
0.955272
0.947564
0.934654
0.912012
0.891264
0.877757
0.86786
0.86205
0.854693
3.7497
3.6252
3.31484
2.90834
2.51267
2.10997
1.83138
1.62927
1.39408
1.24676
1.18812
1.09364
1.00439
1.00444
0.991991
0.963468
0.949443
0.954058
0.954572
0.953974
0.956877
0.970921
0.998896
1.01775
1.02896
1.03883
1.04565
1.04712
1.04713
1.04609
1.04784
1.0532
1.05946
1.06148
1.06122
1.05973
1.05546
1.04801
1.04391
1.04357
1.0439
1.04587
1.04796
1.04829
1.04921
1.05483
1.09601
1.27269
1.98408
2.7866
3.0752
3.25617
3.33505
3.29511
3.232
3.15491
3.08668
3.09696
3.28283
3.92553
5.10803
6.31349
6.81331
6.78099
6.58486
6.42668
6.34713
6.31046
6.22249
6.0946
5.95263
5.77472
5.5359
5.36166
5.27591
5.20977
5.13948
5.07091
5.00977
4.9229
4.78656
4.63043
4.51741
4.43879
4.37435
4.32019
4.27968
4.22783
4.14237
4.01916
3.90796
3.83651
3.77364
3.70701
3.65052
3.61188
3.56714
3.49428
3.39829
3.31365
3.2557
3.20832
3.15369
3.09309
3.05077
3.02531
2.99292
2.93767
2.84957
2.76535
2.71389
2.68134
2.64826
2.61368
2.58205
2.54921
2.5029
2.43729
2.37778
2.3421
2.31889
2.29876
2.27402
2.23472
2.1811
2.12701
2.0867
2.05752
2.03574
2.01639
1.98845
1.93994
1.88375
1.84973
1.83557
1.82138
1.80379
1.78448
1.76443
1.74396
1.72041
1.68243
1.6318
1.5903
1.56679
1.5548
1.54563
1.53523
1.52054
1.50265
1.4853
1.46564
1.43191
1.38462
1.35467
1.34057
1.33003
1.32074
1.31174
1.30239
1.29081
1.27411
1.24852
1.21458
1.18356
1.16623
1.15542
1.14662
1.13924
1.1333
1.12798
1.12178
1.11296
1.09616
1.06301
1.01956
0.995714
0.989009
0.983857
0.978157
0.972269
0.966525
0.960527
0.953776
0.945417
0.933602
0.915138
0.892935
0.877818
0.866833
0.860091
0.852418
3.76052
3.73391
3.58779
3.30527
2.95906
2.54722
2.23042
1.99473
1.71101
1.5102
1.39835
1.28388
1.14145
1.09682
1.05743
0.996264
0.958654
0.96072
0.953103
0.94546
0.949403
0.956051
0.970119
0.990506
1.00572
1.01613
1.02369
1.02857
1.03442
1.03799
1.03982
1.05021
1.05738
1.05808
1.05798
1.05663
1.05317
1.04891
1.04723
1.04759
1.04971
1.05223
1.05193
1.05115
1.05708
1.16409
1.52751
2.12403
3.02386
3.21877
3.23673
3.28004
3.31001
3.27296
3.17917
3.11151
3.05766
2.99502
2.95258
2.98388
3.21653
3.95726
5.01838
6.03995
6.5329
6.46691
6.39357
6.21478
6.04687
5.93491
5.86294
5.76614
5.61567
5.42645
5.26636
5.15662
5.07566
5.00281
4.93436
4.86744
4.76786
4.62259
4.49759
4.41892
4.35663
4.29782
4.23964
4.18184
4.10776
3.99573
3.87075
3.79331
3.74033
3.69131
3.64402
3.59648
3.54834
3.49269
3.41429
3.3091
3.21854
3.16075
3.11653
3.07304
3.03304
3.00204
2.97044
2.92909
2.87155
2.78977
2.71231
2.66393
2.63069
2.59623
2.55979
2.52478
2.4854
2.44175
2.39589
2.3565
2.3228
2.28456
2.24329
2.20137
2.1555
2.11859
2.09182
2.06422
2.03411
2.00118
1.96851
1.93759
1.90105
1.85658
1.82755
1.81594
1.803
1.78558
1.76412
1.73504
1.70016
1.67577
1.6523
1.61885
1.58223
1.55743
1.54287
1.53231
1.52267
1.50935
1.48824
1.45906
1.42086
1.38274
1.36386
1.3525
1.34098
1.33257
1.32409
1.31465
1.30281
1.28472
1.25612
1.22251
1.19695
1.17849
1.16413
1.15082
1.13956
1.13041
1.12233
1.11424
1.10425
1.08829
1.06165
1.02971
1.00705
0.997912
0.992629
0.986891
0.980743
0.97444
0.967398
0.958928
0.949238
0.936291
0.913828
0.889117
0.876333
0.867639
0.86091
0.852668
3.76756
3.75471
3.70543
3.55917
3.3147
2.95474
2.60843
2.34412
2.06567
1.82907
1.67279
1.52539
1.35867
1.27814
1.21867
1.136
1.06334
1.04672
1.01401
0.977114
0.974371
0.975436
0.970075
0.966169
0.969441
0.974483
0.981929
0.992497
1.00489
1.01933
1.02872
1.04204
1.05209
1.05388
1.05436
1.05397
1.05091
1.04703
1.04689
1.04956
1.05463
1.05608
1.05594
1.06511
1.19628
1.84769
2.51887
3.08127
3.33883
3.3478
3.26628
3.24583
3.24816
3.24313
3.17973
3.11057
3.05154
2.97986
2.89465
2.86024
2.84686
2.89173
3.13713
3.8351
4.96372
5.6923
5.9991
5.95616
5.93611
5.94655
5.93469
5.82466
5.67083
5.47488
5.26125
5.11035
5.03716
4.97446
4.91705
4.85662
4.76674
4.62022
4.47938
4.39578
4.33511
4.28081
4.22818
4.17391
4.10734
4.00125
3.8561
3.75436
3.70233
3.66516
3.63081
3.59373
3.55535
3.50853
3.43342
3.31446
3.19533
3.12515
3.08152
3.04919
3.02326
3.00344
2.9832
2.95797
2.91667
2.83839
2.7243
2.64097
2.60351
2.57992
2.55875
2.53459
2.50578
2.47439
2.43701
2.38922
2.33389
2.28302
2.23831
2.19687
2.15657
2.11783
2.08149
2.04973
2.0203
1.99114
1.96419
1.93974
1.91147
1.87278
1.83307
1.80264
1.78119
1.76165
1.74084
1.71967
1.69854
1.67209
1.63954
1.60787
1.58622
1.57203
1.55715
1.53794
1.51523
1.49227
1.46817
1.44134
1.41349
1.39341
1.37969
1.35866
1.32742
1.30831
1.30119
1.29272
1.2818
1.26467
1.23615
1.20753
1.19051
1.18083
1.16971
1.15557
1.1411
1.127
1.1142
1.10425
1.09588
1.08593
1.07009
1.04393
1.00814
0.987201
0.981468
0.976384
0.97098
0.965785
0.959925
0.953521
0.945857
0.934069
0.914309
0.892334
0.878985
0.868735
0.858369
0.85037
3.7765
3.77211
3.7598
3.69527
3.54361
3.2728
2.98092
2.69459
2.37967
2.14579
1.95695
1.78239
1.60069
1.48592
1.39053
1.27891
1.18595
1.1422
1.09587
1.02683
1.00112