/*--------------------------------*- C++ -*----------------------------------*\
  =========                 |
  \\      /  F ield         | OpenFOAM: The Open Source CFD Toolbox
   \\    /   O peration     | Website:  https://openfoam.org
    \\  /    A nd           | Version:  7
     \\/     M anipulation  |
\*---------------------------------------------------------------------------*/
FoamFile
{
    version     2.0;
    format      ascii;
    class       volScalarField;
    location    "0.9";
    object      T;
}
// * * * * * * * * * * * * * * * * * * * * * * * * * * * * * * * * * * * * * //

dimensions      [0 0 0 1 0 0 0];

internalField   nonuniform List<scalar> 
18432
(
1
1
1
1
1
1
1
1
1
1
1
1
1
1
1
1
1
1
1
1
1
1
1
1
1
1
1
1
1
1
1
1
1
1
1
1
1
1
1
1
1
1
1
1
1
1
1
1
1
1
1
1
1
1
1
1
1
1
1
1
1
1
1
1
1
1
1
1
1
1
1
1
1
1
1
1
1
1
1
1
1
1
1
1
1
1
1
1
1
1
1
1
1
1
1
1
1
1
1
1
1
1
1
1
1
1
1
1
1
1
1
1
1
1
1
1
1
1
1
1
1
1
1
1
1
1
1
1
1
1
1
1
1
1
1
1
1
1
1
1
1
1
1
1
1
1
1
1
1
1
1
1
1
1
1
1
1
1
1
1
1
1
1
1
1
1
1
1
1
1
1
1
1
1
1
1
1
1
1
1
1
1
1
1
1
1
1
1
1
1
1
1
1
1
1
1
1
1
1
1
1
1
1
1
1
1
1
1
1
1
1
1
1
1
1
1
1
1
1
1
1
1
1
1
1
1
1
1
1
1
1
1
1
1
1
1
1
1
1
1
1
1
1
1
1
1
1
1
1
1
1
1
1
1
1
1
1
1
1
1
1
1
1
1
1
1
1
1
1
1
1
1
1
1
1
1
1
1
1
1
1
1
1
1
1
1
1
1
1
1
1
1
1
1
1
1
1
1
1
1
1
1
1
1
1
1
1
1
1
1
1
1
1
1
1
1
1
1
1
1
1
1
1
1
1
1
1
1
1
1
1
1
1
1
1
1
1
1
1
1
1
1
1
1
1
1
1
1
1
1
1
1
1
1
1
1
1
1
1
1
1
1
1
1
1
1
1
1
1
1
1
1
1
1
1
1
1
1
1
1
1
1
1
1
1
1
1
1
1
1
1
1
1
1
1
1
1
1
1
1
1
1
1
1
1
1
1
1
1
1
1
1
1
1
1
1
1
1
1
1
1
1
1
1
1
1
1
1
1
1
1
1
1
1
1
1
1
1
1
1
1
1
1
1
1
1
1
1
1
1
1
1
1
1
1
1
1
1
1
1
1
1
1
1
1
1
1
1
1
1
1
1
1
1
1
1
1
1
1
1
1
1
1
1
1
1
1
1
1
1
1
1
1
1
1
1
1
1
1
1
1
1
1
1
1
1
1
1
1
1
1
1
1
1
1
1
1
1
1
1
1
1
1
1
1
1
1
1
1
1
1
1
1
1
1
1
1
1
1
1
1
1
1
1
1
1
1
1
1
1
1
1
1
1
1
1
1
1
1
1
1
1
1
1
1
1
1
1
1
1
1
1
1
1
1
1
1
1
1
1
1
1
1
1
1
1
1
1
1
1
1
1
1
1
1
1
1
1
1
1
1
1
1
1
1
1
1
1
1
1
1
1
1
1
1
1
1
1
1
1
1
1
1
1
1
1
1
1
1
1
1
1
1
1
1
1
1
1
1
1
1
1
1
1
1
1
1
1
1
1
1
1
1
1
1
1
1
1
1
1
1
1
1
1
1
1
1
1
1
1
1
1
1
1
1
1
1
1
1
1
1
1
1
1
1
1
1
1
1
1
1
1
1
1
1
1
1
1
1
1
1
1
1
1
1
1
1
1
1
1
1
1
1
1
1
1
1
1
1
1
1
1
1
1
1
1
1
1
1
1
1
1
1
1
1
1
1
1
1
1
1
1
1
1
1
1
1
1
1
1
1
1
1
1
1
1
1
1
1
1
1
1
1
1
1
1
1
1
1
1
1
1
1
1
1
1
1
1
1
1
1
1
1
1
1
1
1
1
1
1
1
1
1
1
1
1
1
1
1
1
1
1
1
1
1
1
1
1
1
1
1
1
1
1
1
1
1
1
1
1
1
1
1
1
1
1
1
1
1
1
1
1
1
1
1
1
1
1
1
1
1
1
1
1
1
1
1
1
1
1
1
1
1
1
1
1
1
1
1
1
1
1
1
1
1
1
1
1
1
1
1
1
1
1
1
1
1
1
1
1
1
1
1
1
1
1
1
1
1
1
1
1
1
1
1
1
1
1
1
1
1
1
1
1
1
1
1
1
1
1
1
1
1
1
1
1
1
1
1
1
1
1
1
1
1
1
1
1
1
1
1
1
1
1
1
1
1
1
1
1
1
1
1
1
1
1
1
1
1
1
1
1
1
1
1
1
1
1
1
1
1
1
1
1
1
1
1
1
1
1
1
1
1
1
1
1
1
1
1
1
1
1
1
1
1
1
1
1
1
1
1
1
1
1
1
1
1
1
1
1
1
1
1
1
1
1
1
1
1
1
1
1
1
1
1
1
1
1
1
1
1
1
1
1
1
1
1
1
1
1
1
1
1
1
1
1
1
1
1
1
1
1
1
1
1
1
1
1
1
1
1
1
1
1
1
1
1
1
1
1
1
1
1
1
1
1
1
1
1
1
1
1
1
1
1
1
1
1
1
1
1
1
1
1
1
1
1
1
1
1
1
1
1
1
1
1
1
1
1
1
1
1
1
1
1
1
1
1
1
1
1
1
1
1
1
1
1
1
1
1
1
1
1
1
1
1
1
1
1
1
1
1
1
1
1
1
1
1
1
1
1
1
1
1
1
1
1
1
1
1
1
1
1
1
1
1
1
1
1
1
1
1
1
1
1
1
1
1
1
1
1
1
1
1
1
1
1
1
1
1
1
1
1
1
1
1
1
1
1
1
1
1
1
1
1
1
1
1
1
1
1
1
1
1
1
1
1
1
1
1
1
1
1
1
1
1
1
1
1
1
1
1
1
1
1
1
1
1
1
1
1
1
1
1
1
1
1
1
1
1
1
1
1
1
1
1
1
1
1
1
1
1
1
1
1
1
1
1
1
1
1
1
1
1
1
1
1
1
1
1
1
1
1
1
1
1
1
1
1
1
1
1
1
1
1
1
1
1
1
1
1
1
1
1
1
1
1
1
1
1
1
1
1
1
1
1
1
1
1
1
1
1
1
1
1
1
1
1
1
1
1
1
1
1
1
1
1
1
1
1
1
1
1
1
1
1
1
1
1
1
1
1
1
1
1
1
1
1
1
1
1
1
1
1
1
1
1
1
1
1
1
1
1
1
1
1
1
1
1
1
1
1
1
1
1
1
1
1
1
1
1
1
1
1
1
1
1
1
1
1
1
1
1
1
1
1
1
1
1
1
1
1
1
1
1
1
1
1
1
1
1
1
1
1
1
1
1
1
1
1
1
1
1
1
1
1
1
1
1
1
1
1
1
1
1
1
1
1
1
1
1
1
1
1
1
1
1
1
1
1
1
1
1
1
1
1
1
1
1
1
1
1
1
1
1
1
1
1
1
1
1
1
1
1
1
1
1
1
1
1
1
1
1
1
1
1
1
1
1
1
1
1
1
1
1
1
1
1
1
1
1
1
1
1
1
1
1
1
1
1
1
1
1
1
1
1
1
1
1
1
1
1
1
1
1
1
1
1
1
1
1
1
1
1
1
1
1
1
1
1
1
1
1
1
1
1
1
1
1
1
1
1
1
1
1
1
1
1
1
1
1
1
1
1
1
1
1
1
1
1
1
1
1
1
1
1
1
1
1
1
1
1
1
1
1
1
1
1
1
1
1
1
1
1
1
1
1
1
1
1
1
1
1
1
1
1
1
1
1
1
1
1
1
1
1
1
1
1
1
1
1
1
1
1
1
1
1
1
1
1
1
1
1
1
1
1
1
1
1
1
1
1
1
1
1
1
1
1
1
1
1
1
1
1
1
1
1
1
1
1
1
1
1
1
1
1
1
1
1
1
1
1
1
1
1
1
1
1
1
1
1
1
1
1
1
1
1
1
1
1
1
1
1
1
1
1
1
1
1
1
1
1
1
1
1
1
1
1
1
1
1
1
1
1
1
1
1
1
1
1
1
1
1
1
1
1
1
1
1
1
1
1
1
1
1
1
1
1
1
1
1
1
1
1
1
1
1
1
1
1
1
1
1
1
1
1
1
1
1
1
1
1
1
1
1
1
1
1
1
1
1
1
1
1
1
1
1
1
1
1
1
1
1
1
1
1
1
1
1
1
1
1
1
1
1
1
1
1
1
1
1
1
1
1
1
1
1
1
1
1
1
1
1
1
1
1
1
1
1
1
1
1
1
1
1
1
1
1
1
1
1
1
1
1
1
1
1
1
1
1
1
1
1
1
1
1
1
1
1
1
1
1
1
1
1
1
1
1
1
1
1
1
1
1
1
1
1
1
1
1
1
1
1
1
1
1
1
1
1
1
1
1
1
1
1
1
1
1
1
1
1
1
1
1
1
1
1
1
1
1
1
1
1
1
1
1
1
1
1
1
1
1
1
1
1
1
1
1
1
1
1
1
1
1
1
1
1
1
1
1
1
1
1
1
1
1
1
1
1
1
1
1
1
1
1
1
1
1
1
1
1
1
1
1
1
1
1
1
1
1
1
1
1
1
1
1
1
1
1
1
1
1
1
1
1
1
1
1
1
1
1
1
1
1
1
1
1
1
1
1
1
1
1
1
1
1
1
1
1
1
1
1
1
1
1
1
1
1
1
1
1
1
1
1
1
1
1
1
1
1
1
1
1
1
1
1
1
1
1
1
1
1
1
1
1
1
1
1
1
1
1
1
1
1
1
1
1
1
1
1
1
1
1
1
1
1
1
1
1
1
1
1
1
1
1
1
1
1
1
1
1
1
1
1
1
1
1
1
1
1
1
1
1
1
1
1
1
1
1
1
1
1
1
1
1
1
1
1
1
1
1
1
1
1
1
1
1
1
1
1
1
1
1
1
1
1
1
1
1
1
1
1
1
1
1
1
1
1
1
1
1
1
1
1
1
1
1
1
1
1
1
1
1
1
1
1
1
1
1
1
1
1
1
1
1
1
1
1
1
1
1
1
1
1
1
1
1
1
1
1
1
1
1
1
1
1
1
1
1
1
1
1
1
1
1
1
1
1
1
1
1
1
1
1
1
1
1
1
1
1
1
1
1
1
1
1
1
1
1
1
1
1
1
1
1
1
1
1
1
1
1
1
1
1
1
1
1
1
1
1
1
1
1
1
1
1
1
1
1
1
1
1
1
1
1
1
1
1
1
1
1
1
1
1
1
1
1
1
1
1
1
1
1
1
1
1
1
1
1
1
1
1
1
1
1
1
1
1
1
1
1
1
1
1
1
1
1
1
1
1
1
1
1
1
1
1
1
1
1
1
1
1
1
1
1
1
1
1
1
1
1
1
1
1
1
1
1
1
1
1
1
1
1
1
1
1
1
1
1
1
1
1
1
1
1
1
1
1
1
1
1
1
1
1
1
1
1
1
1
1
1
1
1
1
1
1
1
1
1
1
1
1
1
1
1
1
1
1
1
1
1
1
1
1
1
1
1
1
1
1
1
1
1
1
1
1
1
1
1
1
1
1
1
1
1
1
1
1
1
1
1
1
1
1
1
1
1
1
1
1
1
1
1
1
1
1
1
1
1
1
1
1
1
1
1
1
1
1
1
1
1
1
1
1
1
1
1
1
1
1
1
1
1
1
1
1
1
1
1
1
1
1
1
1
1
1
1
1
1
1
1
1
1
1
1
1
1
1
1
1
1
1
1
1
1
1
1
1
1
1
1
1
1
1
1
1
1
1
1
1
1
1
1
1
1
1
1
1
1
1
1
1
1
1
1
1
1
1
1
1
1
1
1
1
1
1
1
1
1
1
1
1
1
1
1
1
1
1
1
1
1
1
1
1
1
1
1
1
1
1
1
1
1
1
1
1
1
1
1
1
1
1
1
1
1
1
1
1
1
1
1
1
1
1
1
1
1
1
1
1
1
1
1
1
1
1
1
1
1
1
1
1
1
1
1
1
1
1
1
1
1
1
1
1
1
1
1
1
1
1
1
1
1
1
1
1
1
1
1
1
1
1
1
1
1
1
1
1
1
1
1
1
1
1
1
1
1
1
1
1
1
1
1
1
1
1
1
1
1
1
1
1
1
1
1
1
1
1
1
1
1
1
1
1
1
1
1
1
1
1
1
1
1
1
1
1
1
1
1
1
1
1
1
1
1
1
1
1
1
1
1
1
1
1
1
1
1
1
1
1
1
1
1
1
1
1
1
1
1
1
1
1
1
1
1
1
1
1
1
1
1
1
1
1
1
1
1
1
1
1
1
1
1
1
1
1
1
1
1
1
1
1
1
1
1
1
1
1
1
1
1
1
1
1
1
1
1
1
1
1
1
1
1
1
1
1
1
1
1
1
1
1
1
1
1
1
1
1
1
1
1
1
1
1
1
1
1
1
1
1
1
1
1
1
1
1
1
1
1
1
1
1
1
1
1
1
1
1
1
1
1
1
1
1
1
1
1
1
1
1
1
1
1
1
1
1
1
1
1
1
1
1
1
1
1
1
1
1
1
1
1
1
1
1
1
1
1
1
1
1
1
1
1
1
1
1
1
1
1
1
1
1
1
1
1
1
1
1
1
1
1
1
1
1
1
1
1
1
1
1
1
1
1
1
1
1
1
1
1
1
1
1
1
1
1
1
1
1
1
1
1
1
1
1
1
1
1
1
1
1
1
1
1
1
1
1
1
1
1
1
1
1
1
1
1
1
1
1
1
1
1
1
1
1
1
1
1
1
1
1
1
1
1
1
1
1
1
1
1
1
1
1
1
1
1
1
1
1
1
1
1
1
1
1
1
1
1
1
1
1
1
1
1
1
1
1
1
1
1
1
1
1
1
1
1
1
1
1
1
1
1
1
1
1
1
1
1
1
1
1
1
1
1
1
1
1
1
1
1
1
1
1
1
1
1
1
1
1
1
1
1
1
1
1
1
1
1
1
1
1
1
1
1
1
1
1
1
1
1
1
1
1
1
1
1
1
1
1
1
1
1
1
1
1
1
1
1
1
1
1
1
1
1
1
1
1
1
1
1
1
1
1
1
1
1
1
1
1
1
1
1
1
1.07779
1.18182
1.28396
1.37646
1.47938
1.5565
1.6191
1.67074
1.69563
1.68905
1.65871
1.61378
1.57378
1.54064
1.52552
1.51305
1.51259
1.51494
1.52028
1.52582
1.5302
1.53217
1.53363
1.53549
1.53781
1.53999
1.54134
1.54191
1.54254
1.54404
1.54592
1.54663
1.54668
1.54651
1.54568
1.54457
1.54395
1.54384
1.54393
1.54427
1.54454
1.54498
1.54521
1.54534
1.54544
1.54552
1.54552
1.54577
1.00061
1.00475
1.02665
1.06789
1.12851
1.21656
1.29928
1.3793
1.4523
1.50594
1.52756
1.56099
1.56899
1.56286
1.55269
1.54599
1.54041
1.53484
1.53373
1.53336
1.53475
1.53717
1.5393
1.54075
1.54179
1.54298
1.544
1.54414
1.54425
1.54491
1.54603
1.5471
1.54775
1.54786
1.54759
1.54697
1.54655
1.54656
1.54692
1.54744
1.5479
1.54807
1.54802
1.54785
1.54751
1.54698
1.54676
1.54727
1
0.999992
1.00002
1.00002
1.00045
1.00467
1.02121
1.07494
1.18204
1.34744
1.49828
1.58367
1.62552
1.62357
1.61258
1.59672
1.58128
1.5599
1.54798
1.54733
1.54871
1.55108
1.5533
1.55366
1.5539
1.55354
1.55406
1.55417
1.55396
1.55387
1.55399
1.55449
1.55445
1.55419
1.55367
1.553
1.55265
1.55264
1.55293
1.55364
1.55443
1.55466
1.55446
1.55393
1.55325
1.55246
1.5518
1.55273
1
1
1
1
0.999999
1
0.999995
1.00004
1.00196
1.02717
1.15675
1.32975
1.51577
1.57763
1.60875
1.60513
1.5939
1.59136
1.58477
1.57785
1.57515
1.5704
1.56807
1.56615
1.56592
1.56633
1.56771
1.56906
1.56928
1.56903
1.56855
1.56804
1.56759
1.56688
1.56615
1.5652
1.56411
1.56359
1.56358
1.56384
1.56406
1.56389
1.56315
1.56205
1.56092
1.56014
1.55971
1.56067
1
1
1
1
1
1
1
1
1
0.999969
1.00089
1.01483
1.11302
1.29478
1.46493
1.58517
1.60653
1.61717
1.61466
1.6068
1.59175
1.5793
1.57363
1.5718
1.57191
1.57247
1.57436
1.5766
1.57829
1.57945
1.58003
1.58003
1.57978
1.57895
1.57816
1.57721
1.57605
1.57542
1.57538
1.57545
1.57527
1.5745
1.57328
1.57179
1.5704
1.56958
1.56896
1.56976
1
1
1
1
1
1
1
1
1
0.999999
0.999999
0.999981
1.0003
1.01153
1.07611
1.26342
1.43047
1.56013
1.60237
1.59843
1.59757
1.59167
1.58454
1.58094
1.57908
1.5777
1.57753
1.57804
1.57931
1.58122
1.58351
1.58496
1.58479
1.58429
1.58343
1.58252
1.5818
1.58164
1.58182
1.58186
1.58145
1.58052
1.57946
1.57848
1.57773
1.57732
1.57675
1.57772
1
1
1
1
1
1
1
1
1
1
1
0.999999
0.999999
0.999988
1.00012
1.00812
1.06913
1.2148
1.3974
1.50872
1.5853
1.59728
1.59556
1.5921
1.58828
1.58328
1.5785
1.57803
1.57853
1.58
1.58164
1.58356
1.58429
1.5841
1.58339
1.583
1.58304
1.58355
1.58424
1.58429
1.58398
1.58335
1.58283
1.58255
1.58235
1.58221
1.58187
1.58248
1
1
1
1
1
1
1
1
1
1
1
1
1
0.999999
0.999999
0.99999
1.00016
1.00423
1.05764
1.1874
1.37422
1.48311
1.54824
1.5805
1.58383
1.58329
1.57991
1.57927
1.57909
1.57897
1.57918
1.57915
1.58
1.58109
1.58165
1.58218
1.58285
1.58381
1.58465
1.58475
1.58453
1.58393
1.58354
1.58353
1.5835
1.58342
1.58335
1.58349
1
1
1
1
1
1
1
1
1
1
1
1
1
1
1
0.999999
0.999999
0.999993
1.00016
1.00374
1.04404
1.18467
1.33987
1.47838
1.52417
1.55127
1.56772
1.5741
1.57429
1.57252
1.57305
1.57389
1.57498
1.57649
1.57817
1.5798
1.58131
1.58258
1.58316
1.58318
1.58308
1.5829
1.58263
1.58251
1.58254
1.58261
1.58272
1.58278
1
1
1
1
1
1
1
1
1
1
1
1
1
1
1
1
1
0.999999
0.999999
0.999994
1.0001
1.00472
1.03592
1.16644
1.32373
1.46236
1.52983
1.54458
1.55726
1.55972
1.56265
1.56476
1.56573
1.56734
1.56986
1.57252
1.57483
1.57642
1.57741
1.57803
1.57847
1.57907
1.57958
1.57992
1.58023
1.58059
1.58117
1.58116
1
1
1
1
1
1
1
1
1
1
1
1
1
1
1
1
1
1
1
1
1
0.999995
1.00008
1.00404
1.03794
1.14892
1.32397
1.44998
1.5286
1.55001
1.55369
1.5572
1.55905
1.56046
1.56234
1.56387
1.56566
1.56777
1.56967
1.57092
1.57173
1.57269
1.57348
1.57402
1.57476
1.57556
1.57682
1.57713
1
1
1
1
1
1
1
1
1
1
1
1
1
1
1
1
1
1
1
1
1
1
1
0.999996
1.00013
1.00317
1.04534
1.15507
1.32711
1.44435
1.51897
1.54855
1.557
1.55971
1.56218
1.56194
1.56188
1.56316
1.56522
1.56643
1.56713
1.56746
1.56761
1.568
1.56899
1.57009
1.57163
1.57208
1
1
1
1
1
1
1
1
1
1
1
1
1
1
1
1
1
1
1
1
1
1
1
0.999999
1
0.999996
1.00027
1.0039
1.04606
1.17667
1.34084
1.45463
1.5102
1.54225
1.55486
1.55594
1.55687
1.55902
1.56076
1.56213
1.56298
1.56301
1.5633
1.56388
1.56482
1.56597
1.56751
1.56777
1
1
1
1
1
1
1
1
1
1
1
1
1
1
1
1
1
1
1
1
1
1
1
1
1
0.999999
1
0.999997
1.00035
1.00667
1.05183
1.2024
1.36372
1.48891
1.52045
1.53417
1.5437
1.55032
1.55283
1.55447
1.5562
1.55784
1.55888
1.55971
1.5607
1.56162
1.56325
1.56334
1
1
1
1
1
1
1
1
1
1
1
1
1
1
1
1
1
1
1
1
1
1
1
1
1
1
1
1
1
1
1.00047
1.0122
1.0725
1.2421
1.39897
1.50831
1.54171
1.54412
1.54753
1.54942
1.55131
1.55302
1.55431
1.55525
1.55655
1.55822
1.55978
1.55981
1
1
1
1
1
1
1
1
1
1
1
1
1
1
1
1
1
1
1
1
1
1
1
1
1
1
1
1
1
1
0.999999
1.00003
1.001
1.02149
1.11112
1.29659
1.43972
1.51917
1.55151
1.55373
1.55686
1.5577
1.55727
1.55637
1.55648
1.55735
1.55792
1.55781
1
1
1
1
1
1
1
1
1
1
1
1
1
1
1
1
1
1
1
1
1
1
1
1
1
1
1
1
1
1
1
1
0.999999
1.00012
1.00267
1.04165
1.17571
1.36004
1.47199
1.52466
1.55267
1.55622
1.55542
1.55641
1.55738
1.55807
1.55834
1.55804
1
1
1
1
1
1
1
1
1
1
1
1
1
1
1
1
1
1
1
1
1
1
1
1
1
1
1
1
1
1
1
1
1
1
1
1.0005
1.00842
1.07934
1.25498
1.43771
1.51654
1.53152
1.54154
1.54959
1.55377
1.55557
1.55621
1.55612
1
1
1
1
1
1
1
1
1
1
1
1
1
1
1
1
1
1
1
1
1
1
1
1
1
1
1
1
1
1
1
1
1
1
1
0.999999
1.00002
1.00203
1.02816
1.15718
1.3487
1.49167
1.54666
1.54961
1.55312
1.55427
1.5538
1.55383
1
1
1
1
1
1
1
1
1
1
1
1
1
1
1
1
1
1
1
1
1
1
1
1
1
1
1
1
1
1
1
1
1
1
1
1
1
1
1.00025
1.00859
1.07957
1.26434
1.43961
1.52563
1.55801
1.56027
1.55934
1.55845
1
1
1
1
1
1
1
1
1
1
1
1
1
1
1
1
1
1
1
1
1
1
1
1
1
1
1
1
1
1
1
1
1
1
1
1
1
1
1
1.00004
1.00189
1.03526
1.18587
1.38974
1.49416
1.53317
1.55627
1.55725
1
1
1
1
1
1
1
1
1
1
1
1
1
1
1
1
1
1
1
1
1
1
1
1
1
1
1
1
1
1
1
1
1
1
1
1
1
1
1
1
1
1.0006
1.01276
1.11435
1.31285
1.48909
1.53653
1.5448
1
1
1
1
1
1
1
1
1
1
1
1
1
1
1
1
1
1
1
1
1
1
1
1
1
1
1
1
1
1
1
1
1
1
1
1
1
1
1
1
1
1
1.00009
1.00565
1.05944
1.26029
1.44514
1.54145
1
1
1
1
1
1
1
1
1
1
1
1
1
1
1
1
1
1
1
1
1
1
1
1
1
1
1
1
1
1
1
1
1
1
1
1
1
1
1
1
1
1
1
1.00003
1.00153
1.03992
1.1974
1.41712
1
1
1
1
1
1
1
1
1
1
1
1
1
1
1
1
1
1
1
1
1
1
1
1
1
1
1
1
1
1
1
1
1
1
1
1
1
1
1
1
1
1
1
1
1
1.00097
1.01837
1.14085
1
1
1
1
1
1
1
1
1
1
1
1
1
1
1
1
1
1
1
1
1
1
1
1
1
1
1
1
1
1
1
1
1
1
1
1
1
1
1
1
1
1
1
1
1
1
1.00025
1.00739
1
1
1
1
1
1
1
1
1
1
1
1
1
1
1
1
1
1
1
1
1
1
1
1
1
1
1
1
1
1
1
1
1
1
1
1
1
1
1
1
1
1
1
1
1
1
1
0.999935
1
1
1
1
1
1
1
1
1
1
1
1
1
1
1
1
1
1
1
1
1
1
1
1
1
1
1
1
1
1
1
1
1
1
1
1
1
1
1
1
1
1
1
1
1
1
1
0.99998
1
1
1
1
1
1
1
1
1
1
1
1
1
1
1
1
1
1
1
1
1
1
1
1
1
1
1
1
1
1
1
1
1
1
1
1
1
1
1
1
1
1
1
1
1
1
1
0.999998
1
1
1
1
1
1
1
1
1
1
1
1
1
1
1
1
1
1
1
1
1
1
1
1
1
1
1
1
1
1
1
1
1
1
1
1
1
1
1
1
1
1
1
1
1
1
1
1
1
1
1
1
1
1
1
1
1
1
1
1
1
1
1
1
1
1
1
1
1
1
1
1
1
1
1
1
1
1
1
1
1
1
1
1
1
1
1
1
1
1
1
1
1
1
1
1
1
1
1
1
1
1
1
1
1
1
1
1
1
1
1
1
1
1
1
1
1
1
1
1
1
1
1
1
1
1
1
1
1
1
1
1
1
1
1
1
1
1
1
1
1
1
1
1
1
1
1
1
1
1
1
1
1
1
1
1
1
1
1
1
1
1
1
1
1
1
1
1
1
1
1
1
1
1
1
1
1
1
1
1
1
1
1
1
1
1
1
1
1
1
1
1
1
1
1
1
1
1
1
1
1
1
1
1
1
1
1
1
1
1
1
1
1
1
1
1
1
1
1
1
1
1
1
1
1
1
1
1
1
1
1
1
1
1
1
1
1
1
1
1
1
1
1
1
1
1
1
1
1
1
1
1
1
1
1
1
1
1
1
1
1
1
1
1
1
1
1
1
1
1
1
1
1
1
1
1
1
1
1
1
1
1
1
1
1
1
1
1
1
1
1
1
1
1
1
1
1
1
1
1
1
1
1
1
1
1
1
1
1
1
1
1
1
1
1
1
1
1
1
1
1
1
1
1
1
1
1
1
1
1
1
1
1
1
1
0.999998
1
1
1
1
1
1
1
1
1
1
1
1
1
1
1
1
1
1
1
1
1
1
1
1
1
1
1
1
1
1
1
1
1
1
1
1
1
1
1
1
1
1
1
1
1
1
1
0.99998
1
1
1
1
1
1
1
1
1
1
1
1
1
1
1
1
1
1
1
1
1
1
1
1
1
1
1
1
1
1
1
1
1
1
1
1
1
1
1
1
1
1
1
1
1
1
1
0.999936
1
1
1
1
1
1
1
1
1
1
1
1
1
1
1
1
1
1
1
1
1
1
1
1
1
1
1
1
1
1
1
1
1
1
1
1
1
1
1
1
1
1
1
1
1
1
1.00025
1.0074
1
1
1
1
1
1
1
1
1
1
1
1
1
1
1
1
1
1
1
1
1
1
1
1
1
1
1
1
1
1
1
1
1
1
1
1
1
1
1
1
1
1
1
1
1
1.00097
1.01837
1.14085
1
1
1
1
1
1
1
1
1
1
1
1
1
1
1
1
1
1
1
1
1
1
1
1
1
1
1
1
1
1
1
1
1
1
1
1
1
1
1
1
1
1
1
1.00003
1.00153
1.03992
1.19739
1.41712
1
1
1
1
1
1
1
1
1
1
1
1
1
1
1
1
1
1
1
1
1
1
1
1
1
1
1
1
1
1
1
1
1
1
1
1
1
1
1
1
1
1
1.00009
1.00565
1.05944
1.26029
1.44514
1.54146
1
1
1
1
1
1
1
1
1
1
1
1
1
1
1
1
1
1
1
1
1
1
1
1
1
1
1
1
1
1
1
1
1
1
1
1
1
1
1
1
1
1.0006
1.01276
1.11435
1.31285
1.48909
1.53654
1.5448
1
1
1
1
1
1
1
1
1
1
1
1
1
1
1
1
1
1
1
1
1
1
1
1
1
1
1
1
1
1
1
1
1
1
1
1
1
1
1
1.00004
1.00189
1.03526
1.18587
1.38974
1.49416
1.53317
1.55627
1.55725
1
1
1
1
1
1
1
1
1
1
1
1
1
1
1
1
1
1
1
1
1
1
1
1
1
1
1
1
1
1
1
1
1
1
1
1
1
1
1.00025
1.00859
1.07957
1.26434
1.43961
1.52563
1.55801
1.56028
1.55934
1.55845
1
1
1
1
1
1
1
1
1
1
1
1
1
1
1
1
1
1
1
1
1
1
1
1
1
1
1
1
1
1
1
1
1
1
1
0.999999
1.00002
1.00203
1.02816
1.15718
1.3487
1.49167
1.54666
1.54961
1.55312
1.55427
1.5538
1.55383
1
1
1
1
1
1
1
1
1
1
1
1
1
1
1
1
1
1
1
1
1
1
1
1
1
1
1
1
1
1
1
1
1
1
1
1.0005
1.00842
1.07934
1.25498
1.43771
1.51654
1.53152
1.54153
1.54959
1.55377
1.55557
1.55621
1.55612
1
1
1
1
1
1
1
1
1
1
1
1
1
1
1
1
1
1
1
1
1
1
1
1
1
1
1
1
1
1
1
1
0.999999
1.00012
1.00267
1.04165
1.17571
1.36004
1.47199
1.52466
1.55267
1.55622
1.55542
1.55641
1.55738
1.55807
1.55834
1.55804
1
1
1
1
1
1
1
1
1
1
1
1
1
1
1
1
1
1
1
1
1
1
1
1
1
1
1
1
1
1
0.999999
1.00003
1.001
1.02149
1.11112
1.29659
1.43972
1.51917
1.55151
1.55373
1.55686
1.5577
1.55727
1.55637
1.55648
1.55735
1.55792
1.55781
1
1
1
1
1
1
1
1
1
1
1
1
1
1
1
1
1
1
1
1
1
1
1
1
1
1
1
1
1
1
1.00047
1.0122
1.0725
1.2421
1.39897
1.50831
1.54171
1.54412
1.54753
1.54942
1.55131
1.55302
1.55431
1.55525
1.55655
1.55822
1.55978
1.55981
1
1
1
1
1
1
1
1
1
1
1
1
1
1
1
1
1
1
1
1
1
1
1
1
1
0.999999
1
0.999997
1.00035
1.00667
1.05183
1.2024
1.36372
1.48891
1.52045
1.53417
1.5437
1.55032
1.55283
1.55447
1.5562
1.55784
1.55888
1.55971
1.5607
1.56162
1.56325
1.56334
1
1
1
1
1
1
1
1
1
1
1
1
1
1
1
1
1
1
1
1
1
1
1
0.999999
1
0.999996
1.00027
1.0039
1.04606
1.17667
1.34084
1.45463
1.5102
1.54225
1.55486
1.55594
1.55687
1.55902
1.56076
1.56213
1.56298
1.56301
1.5633
1.56388
1.56482
1.56597
1.56751
1.56777
1
1
1
1
1
1
1
1
1
1
1
1
1
1
1
1
1
1
1
1
1
1
1
0.999996
1.00013
1.00317
1.04534
1.15507
1.32711
1.44435
1.51897
1.54855
1.557
1.55971
1.56218
1.56194
1.56188
1.56316
1.56521
1.56643
1.56713
1.56746
1.56761
1.568
1.56899
1.57009
1.57163
1.57208
1
1
1
1
1
1
1
1
1
1
1
1
1
1
1
1
1
1
1
1
1
0.999995
1.00008
1.00404
1.03794
1.14892
1.32397
1.44998
1.5286
1.55001
1.55369
1.5572
1.55905
1.56046
1.56234
1.56387
1.56566
1.56777
1.56967
1.57092
1.57173
1.57269
1.57348
1.57402
1.57476
1.57556
1.57682
1.57713
1
1
1
1
1
1
1
1
1
1
1
1
1
1
1
1
1
0.999999
0.999999
0.999994
1.0001
1.00472
1.03592
1.16644
1.32373
1.46236
1.52983
1.54458
1.55726
1.55972
1.56265
1.56476
1.56573
1.56734
1.56986
1.57252
1.57483
1.57642
1.57741
1.57803
1.57847
1.57907
1.57958
1.57992
1.58023
1.58059
1.58117
1.58116
1
1
1
1
1
1
1
1
1
1
1
1
1
1
1
0.999999
0.999999
0.999993
1.00016
1.00374
1.04404
1.18467
1.33987
1.47838
1.52417
1.55127
1.56772
1.5741
1.57429
1.57252
1.57305
1.57389
1.57498
1.57649
1.57817
1.5798
1.58131
1.58258
1.58316
1.58318
1.58308
1.5829
1.58263
1.58251
1.58254
1.58261
1.58272
1.58278
1
1
1
1
1
1
1
1
1
1
1
1
1
0.999999
0.999999
0.99999
1.00016
1.00423
1.05764
1.1874
1.37422
1.48311
1.54824
1.5805
1.58383
1.58329
1.57991
1.57927
1.57909
1.57897
1.57918
1.57915
1.58
1.58109
1.58165
1.58218
1.58285
1.58381
1.58465
1.58475
1.58453
1.58393
1.58354
1.58353
1.5835
1.58342
1.58335
1.58349
1
1
1
1
1
1
1
1
1
1
1
0.999999
0.999999
0.999988
1.00012
1.00812
1.06913
1.2148
1.3974
1.50872
1.5853
1.59728
1.59556
1.5921
1.58828
1.58328
1.5785
1.57803
1.57853
1.58
1.58164
1.58356
1.58429
1.5841
1.58339
1.583
1.58304
1.58355
1.58424
1.58429
1.58398
1.58335
1.58283
1.58255
1.58235
1.58221
1.58187
1.58248
1
1
1
1
1
1
1
1
1
0.999999
0.999999
0.999981
1.0003
1.01153
1.07611
1.26342
1.43047
1.56013
1.60237
1.59843
1.59757
1.59167
1.58454
1.58094
1.57908
1.5777
1.57753
1.57804
1.57931
1.58122
1.58351
1.58496
1.58479
1.58429
1.58343
1.58252
1.5818
1.58164
1.58182
1.58186
1.58145
1.58052
1.57946
1.57848
1.57773
1.57732
1.57675
1.57772
1
1
1
1
1
1
1
1
1
0.999969
1.00089
1.01483
1.11302
1.29478
1.46493
1.58517
1.60653
1.61717
1.61466
1.6068
1.59175
1.5793
1.57363
1.5718
1.57191
1.57247
1.57436
1.5766
1.57829
1.57945
1.58003
1.58003
1.57978
1.57895
1.57816
1.57721
1.57605
1.57542
1.57538
1.57545
1.57527
1.5745
1.57328
1.57179
1.5704
1.56958
1.56896
1.56976
1
1
1
1
0.999999
1
0.999995
1.00004
1.00196
1.02717
1.15675
1.32975
1.51577
1.57763
1.60875
1.60513
1.5939
1.59136
1.58477
1.57785
1.57515
1.5704
1.56807
1.56615
1.56592
1.56633
1.56771
1.56906
1.56928
1.56903
1.56855
1.56804
1.56759
1.56688
1.56615
1.5652
1.56411
1.56359
1.56358
1.56384
1.56406
1.56389
1.56315
1.56205
1.56092
1.56014
1.55971
1.56067
1
0.999992
1.00002
1.00002
1.00045
1.00467
1.02121
1.07494
1.18204
1.34744
1.49828
1.58367
1.62552
1.62357
1.61258
1.59672
1.58128
1.5599
1.54798
1.54733
1.54871
1.55108
1.5533
1.55366
1.5539
1.55354
1.55406
1.55417
1.55396
1.55387
1.55399
1.55449
1.55445
1.55419
1.55367
1.553
1.55265
1.55264
1.55293
1.55364
1.55443
1.55466
1.55446
1.55393
1.55325
1.55246
1.5518
1.55273
1.00061
1.00475
1.02665
1.06789
1.12851
1.21656
1.29928
1.3793
1.4523
1.50594
1.52756
1.56099
1.56899
1.56286
1.55269
1.54599
1.54041
1.53484
1.53373
1.53336
1.53475
1.53717
1.5393
1.54075
1.54179
1.54298
1.544
1.54414
1.54425
1.54491
1.54603
1.5471
1.54775
1.54786
1.54759
1.54697
1.54655
1.54656
1.54692
1.54744
1.5479
1.54807
1.54802
1.54785
1.54751
1.54698
1.54676
1.54727
1.07779
1.18182
1.28396
1.37646
1.47938
1.5565
1.6191
1.67074
1.69563
1.68905
1.65871
1.61378
1.57378
1.54064
1.52552
1.51305
1.51259
1.51494
1.52028
1.52582
1.5302
1.53217
1.53363
1.53549
1.53781
1.53999
1.54134
1.54191
1.54254
1.54404
1.54592
1.54663
1.54668
1.54651
1.54568
1.54457
1.54395
1.54384
1.54393
1.54427
1.54454
1.54498
1.54521
1.54534
1.54544
1.54552
1.54552
1.54577
1.40283
1.23319
1.11875
1.04328
0.976591
0.977886
1.01219
1.02618
1.0327
1.05854
1.1028
1.10601
1.10085
1.10256
1.10857
1.1115
1.11451
1.12257
1.12484
1.12349
1.12057
1.11791
1.11606
1.1132
1.11024
1.11014
1.10994
1.109
1.10722
1.10556
1.10435
1.10377
1.10355
1.10362
1.1042
1.10491
1.10494
1.10485
1.10425
1.10306
1.10281
1.10284
1.10326
1.10435
1.1047
1.10461
1.10424
1.10343
1.10247
1.10372
1.11884
1.1803
1.36579
1.62322
1.7991
1.93615
2.05111
2.09824
2.11195
2.08758
2.04254
1.99483
1.9643
1.94677
1.94252
1.93781
1.93174
1.91996
1.90869
1.89749
1.87954
1.86286
1.8539
1.84548
1.83736
1.83049
1.82313
1.81196
1.79277
1.77418
1.76633
1.76157
1.75685
1.75114
1.74432
1.73489
1.71814
1.69797
1.68921
1.68472
1.68024
1.67583
1.67064
1.66501
1.65678
1.64032
1.61911
1.60955
1.60563
1.60283
1.60107
1.59889
1.59484
1.58852
1.57671
1.55545
1.53707
1.53118
1.5285
1.52641
1.5244
1.52095
1.51614
1.50867
1.49446
1.47552
1.46648
1.46308
1.46023
1.45711
1.45344
1.44849
1.44025
1.42712
1.41738
1.41378
1.41095
1.40777
1.40347
1.39565
1.38065
1.36734
1.36306
1.36083
1.35898
1.35737
1.35574
1.35309
1.34945
1.34356
1.33051
1.31093
1.30252
1.29987
1.29764
1.29558
1.29352
1.29151
1.28866
1.28506
1.28027
1.27109
1.25572
1.24662
1.24333
1.24059
1.23848
1.2363
1.23373
1.23037
1.22632
1.22087
1.21081
1.19686
1.19142
1.18988
1.1884
1.1872
1.1857
1.18339
1.18106
1.17851
1.17469
1.16642
1.14953
1.1366
1.13342
1.13134
1.12902
1.1269
1.1252
1.12369
1.12223
1.12057
1.11754
1.11019
1.09975
1.09478
1.09207
1.08976
1.08761
1.08373
1.50227
1.4144
1.3233
1.26395
1.18456
1.12539
1.11122
1.08202
1.06435
1.0688
1.06756
1.05987
1.05783
1.06073
1.07036
1.07928
1.08512
1.09395
1.10025
1.09998
1.09864
1.0992
1.10151
1.10223
1.10225
1.10292
1.10335
1.10274
1.10119
1.10037
1.10008
1.10001
1.09997
1.10019
1.10064
1.10066
1.10066
1.10045
1.09956
1.09861
1.09826
1.09825
1.09863
1.09972
1.10015
1.10002
1.09913
1.09917
1.10153
1.13911
1.25715
1.37517
1.50594
1.56111
1.63099
1.71526
1.80749
1.88234
1.94147
1.99537
2.02436
2.01188
1.99294
1.97011
1.95643
1.94472
1.93532
1.92516
1.91458
1.90421
1.8879
1.8687
1.85651
1.84855
1.84201
1.83593
1.82863
1.81757
1.79964
1.78088
1.77121
1.76611
1.7609
1.75505
1.7481
1.73863
1.72346
1.70474
1.69547
1.69107
1.68585
1.68028
1.67471
1.66872
1.65994
1.64441
1.62518
1.61593
1.6121
1.60864
1.60567
1.60266
1.59853
1.59166
1.57922
1.56028
1.54359
1.53708
1.53434
1.53173
1.52892
1.52524
1.52014
1.51215
1.4986
1.48166
1.47266
1.46917
1.46601
1.46256
1.45854
1.45349
1.44619
1.43517
1.42434
1.4188
1.41542
1.41185
1.40715
1.39957
1.38687
1.37461
1.36932
1.36663
1.36428
1.36209
1.35975
1.35685
1.35282
1.34645
1.3349
1.31792
1.30854
1.30549
1.30317
1.30085
1.29842
1.29561
1.29228
1.28845
1.28366
1.2759
1.26304
1.25223
1.24832
1.24595
1.24355
1.24098
1.2379
1.23415
1.22983
1.22474
1.21721
1.20521
1.19675
1.19437
1.19266
1.19098
1.18903
1.18652
1.18395
1.18135
1.17788
1.17129
1.15796
1.14317
1.13832
1.13608
1.13373
1.13141
1.12939
1.12752
1.12572
1.12385
1.12131
1.11625
1.10715
1.09976
1.09599
1.09308
1.09072
1.08691
1.53813
1.4981
1.43077
1.36291
1.2915
1.21924
1.17714
1.13874
1.08672
1.06763
1.05942
1.0426
1.03947
1.04238
1.04807
1.05266
1.05578
1.06244
1.07116
1.07367
1.07472
1.07742
1.08183
1.08401
1.08535
1.08771
1.08993
1.09042
1.09017
1.08978
1.08964
1.08979
1.09018
1.09079
1.09084
1.09068
1.09034
1.08949
1.08855
1.08831
1.08832
1.08875
1.08976
1.09082
1.09108
1.09099
1.09183
1.09671
1.14083
1.3159
1.45359
1.52408
1.56306
1.56944
1.56806
1.57299
1.60211
1.6855
1.80505
1.923
2.01182
2.03327
2.02381
2.0009
1.96237
1.93711
1.92967
1.92921
1.92371
1.91339
1.89927
1.87989
1.8576
1.84474
1.83922
1.83433
1.82752
1.81803
1.80574
1.79229
1.77672
1.76299
1.75576
1.74996
1.74319
1.73461
1.7236
1.71376
1.704
1.6918
1.68202
1.6754
1.66937
1.66268
1.65375
1.64158
1.63126
1.62275
1.61287
1.60463
1.60008
1.59609
1.59108
1.58354
1.57227
1.55953
1.55184
1.54483
1.53477
1.52607
1.52215
1.5183
1.5133
1.506
1.49539
1.48577
1.47791
1.46921
1.46226
1.45832
1.45453
1.44975
1.44319
1.43445
1.42438
1.41564
1.41012
1.40636
1.40206
1.39583
1.38717
1.37654
1.36703
1.36294
1.3605
1.35759
1.35442
1.35091
1.3466
1.34084
1.33238
1.32152
1.30993
1.30253
1.29961
1.2974
1.29461
1.29104
1.28687
1.28277
1.27865
1.27267
1.2623
1.25119
1.24529
1.2427
1.24027
1.2374
1.23419
1.23051
1.22626
1.22123
1.21437
1.20418
1.19472
1.1904
1.18816
1.18613
1.18427
1.18226
1.18012
1.1779
1.17498
1.16915
1.15682
1.14208
1.13509
1.13272
1.13055
1.12826
1.12615
1.12424
1.1224
1.12052
1.11822
1.1141
1.10634
1.0987
1.09351
1.08963
1.08697
1.0831
1.55585
1.53829
1.49744
1.44184
1.38123
1.31273
1.26262
1.21995
1.16425
1.12733
1.11162
1.08539
1.05987
1.06046
1.05732
1.04965
1.04635
1.04793
1.04805
1.0479
1.04883
1.05329
1.06202
1.06831
1.07211
1.07507
1.07704
1.07816
1.07876
1.07898
1.07989
1.08173
1.08385
1.08468
1.08465
1.08435
1.08331
1.08123
1.08017
1.08024
1.08053
1.08126
1.08202
1.08242
1.08306
1.08522
1.09911
1.15442
1.32995
1.4921
1.54581
1.57253
1.58191
1.57588
1.56924
1.56491
1.56215
1.56542
1.59637
1.68992
1.83804
1.96091
1.9995
1.99386
1.97409
1.95698
1.94933
1.94684
1.94026
1.92926
1.9148
1.89553
1.8718
1.85568
1.84719
1.8396
1.83123
1.82327
1.81625
1.80609
1.79048
1.77342
1.7612
1.75215
1.74422
1.73753
1.73312
1.72711
1.7165
1.7011
1.68752
1.67873
1.67081
1.66201
1.65417
1.64888
1.64284
1.63291
1.62041
1.61013
1.60311
1.5968
1.58874
1.57945
1.57272
1.56885
1.56385
1.55549
1.54278
1.53073
1.5229
1.51738
1.51162
1.50555
1.50005
1.49425
1.48589
1.47472
1.46509
1.45909
1.45471
1.45061
1.44578
1.4386
1.42899
1.41938
1.41233
1.4066
1.40171
1.39734
1.39144
1.38135
1.37024
1.364
1.36143
1.35867
1.35507
1.35051
1.34527
1.34009
1.3347
1.32645
1.31535
1.30609
1.30078
1.29784
1.29526
1.2921
1.28788
1.28281
1.27797
1.27305
1.26532
1.2542
1.24714
1.24375
1.24083
1.23785
1.23473
1.23144
1.22761
1.22256
1.21521
1.20543
1.19627
1.19116
1.188
1.18528
1.18296
1.1812
1.17973
1.17794
1.17523
1.16982
1.15892
1.14463
1.13652
1.13389
1.1318
1.12953
1.12724
1.12507
1.12295
1.12072
1.11806
1.11426
1.10808
1.10008
1.09427
1.08995
1.08694
1.08283
1.56604
1.55998
1.53894
1.50082
1.4517
1.38902
1.33832
1.29599
1.23731
1.19336
1.16761
1.13964
1.10164
1.08935
1.07771
1.05893
1.04805
1.04934
1.04751
1.04505
1.04616
1.04812
1.05251
1.05883
1.06335
1.06623
1.06807
1.06949
1.07153
1.07315
1.07408
1.07719
1.07938
1.07983
1.07984
1.07962
1.07891
1.07794
1.07766
1.07792
1.07886
1.07965
1.07961
1.07963
1.08167
1.11787
1.22874
1.36021
1.51468
1.5638
1.57767
1.58711
1.59025
1.58451
1.57071
1.56502
1.5618
1.55558
1.55031
1.55563
1.5944
1.70787
1.83915
1.944
1.98744
1.9774
1.9677
1.95015
1.93403
1.92269
1.91494
1.90505
1.88982
1.87069
1.85442
1.84239
1.83232
1.82282
1.81439
1.80701
1.79651
1.78037
1.76543
1.75569
1.74822
1.74113
1.73386
1.72672
1.71758
1.70366
1.68803
1.67811
1.67102
1.66429
1.65789
1.65145
1.64515
1.63797
1.62782
1.6141
1.60197
1.59373
1.58697
1.58004
1.57376
1.56945
1.56535
1.55974
1.55131
1.5386
1.52583
1.5174
1.51127
1.50494
1.49864
1.49285
1.48646
1.47917
1.47117
1.46397
1.45756
1.45003
1.44221
1.43454
1.42644
1.42015
1.41527
1.40981
1.40369
1.39667
1.3897
1.38328
1.37585
1.36705
1.36151
1.35923
1.35624
1.35189
1.34655
1.33961
1.33189
1.32711
1.32253
1.31511
1.30632
1.30031
1.29626
1.29277
1.28948
1.28559
1.28018
1.2731
1.26415
1.25526
1.25086
1.24801
1.24465
1.24161
1.23864
1.23555
1.23187
1.22657
1.2186
1.20926
1.20168
1.19598
1.19167
1.18781
1.18459
1.18188
1.1794
1.17681
1.1736
1.16848
1.15984
1.14929
1.14153
1.13795
1.13576
1.13349
1.1311
1.12864
1.126
1.12311
1.12004
1.11595
1.10831
1.09934
1.09429
1.09064
1.08758
1.08329
1.57496
1.57118
1.56241
1.54139
1.50726
1.45615
1.40486
1.36099
1.3098
1.26514
1.23405
1.20096
1.15986
1.14031
1.12481
1.10185
1.08083
1.07655
1.06734
1.05607
1.05488
1.0551
1.0535
1.05251
1.05355
1.05516
1.0576
1.06094
1.06475
1.06924
1.07204
1.07558
1.07806
1.07865
1.07894
1.07898
1.07856
1.07776
1.0778
1.07877
1.0803
1.08065
1.08059
1.0835
1.12628
1.31219
1.45401
1.53941
1.58372
1.593
1.58841
1.58922
1.59096
1.58994
1.58039
1.57102
1.56434
1.55562
1.54349
1.53821
1.53502
1.54232
1.58344
1.69163
1.83617
1.91087
1.93849
1.93225
1.92769
1.92714
1.92573
1.91495
1.89906
1.87897
1.85707
1.84134
1.83303
1.82524
1.81782
1.81065
1.80063
1.78407
1.7675
1.75732
1.75009
1.74373
1.73734
1.73058
1.72218
1.7089
1.69069
1.67736
1.67007
1.66487
1.66011
1.65504
1.65007
1.64436
1.63492
1.6191
1.60234
1.59172
1.58492
1.57976
1.57571
1.57299
1.5706
1.56756
1.56161
1.54935
1.53073
1.51631
1.50926
1.50465
1.50073
1.49684
1.49263
1.48756
1.48089
1.47236
1.46236
1.45302
1.44485
1.43713
1.42972
1.42261
1.41555
1.40949
1.40383
1.39764
1.39153
1.38606
1.38003
1.37229
1.36465
1.35842
1.3534
1.34856
1.3435
1.33847
1.33364
1.32793
1.32106
1.31428
1.30932
1.30564
1.30125
1.2958
1.28962
1.28373
1.27784
1.27126
1.26437
1.25957
1.25608
1.25044
1.24182
1.23619
1.23378
1.23107
1.22776
1.22285
1.21474
1.20639
1.20158
1.19892
1.19576
1.19166
1.1873
1.18286
1.17873
1.17534
1.17235
1.16879
1.16336
1.15454
1.14259
1.13517
1.13275
1.13063
1.12847
1.12642
1.12428
1.12221
1.11995
1.11634
1.10965
1.10162
1.09623
1.09175
1.08725
1.08269
1.58124
1.5794
1.57617
1.56609
1.54486
1.50762
1.46642
1.42264
1.37
1.33011
1.29544
1.25976
1.21977
1.19486
1.17243
1.14362
1.11869
1.10744
1.09491
1.07503
1.0668
1.06545
1.06018
1.05673
1.05775
1.05774
1.05745
1.05778
1.05954
1.06402
1.07005
1.07454
1.07773
1.07879
1.07911
1.07947
1.07998
1.07975
1.07969
1.08158
1.08273
1.08347
1.09316
1.14539
1.33543
1.52461
1.57929
1.60627
1.60641
1.59693
1.59302
1.58785
1.58727
1.58741
1.58308
1.57351
1.56348
1.5518
1.5386
1.52917
1.5244
1.52094
1.51567
1.5228
1.5691
1.67379
1.77969
1.86932
1.89566
1.91511
1.91957
1.91257