/*--------------------------------*- C++ -*----------------------------------*\
  =========                 |
  \\      /  F ield         | OpenFOAM: The Open Source CFD Toolbox
   \\    /   O peration     | Website:  https://openfoam.org
    \\  /    A nd           | Version:  7
     \\/     M anipulation  |
\*---------------------------------------------------------------------------*/
FoamFile
{
    version     2.0;
    format      ascii;
    class       volVectorField;
    location    "0.9";
    object      U;
}
// * * * * * * * * * * * * * * * * * * * * * * * * * * * * * * * * * * * * * //

dimensions      [0 1 -1 0 0 0 0];

internalField   nonuniform List<vector> 
18432
(
(3 -4.17881e-17 0)
(3 -1.15471e-16 0)
(3 1.87998e-17 0)
(3 6.76559e-17 0)
(3 -1.42183e-16 0)
(3 -4.48197e-17 0)
(3 5.34894e-17 0)
(3 6.1524e-16 0)
(3 1.09727e-15 0)
(3 7.04009e-16 0)
(3 6.01336e-16 0)
(3 4.97401e-16 0)
(3 3.96292e-16 0)
(3 2.51891e-17 0)
(3 -3.42276e-16 0)
(3 -9.43632e-16 0)
(3 -1.10431e-15 0)
(3 -8.91602e-16 0)
(3 -1.08685e-15 0)
(3 -9.15762e-16 0)
(3 -7.99936e-16 0)
(3 -1.08342e-15 0)
(3 -1.34115e-15 0)
(3 -1.71113e-15 0)
(3 -2.10968e-15 0)
(3 -1.9714e-15 0)
(3 -1.2421e-15 0)
(3 -4.17017e-16 0)
(3 -1.56725e-16 0)
(3 2.97563e-16 0)
(3 4.18769e-16 0)
(3 5.16298e-16 0)
(3 1.34859e-15 0)
(3 8.13745e-16 0)
(3 -8.60517e-16 0)
(3 -1.2437e-15 0)
(3 -1.48699e-15 0)
(3 -9.65739e-16 0)
(3 -8.41301e-16 0)
(3 -5.87597e-16 0)
(3 9.49471e-16 0)
(3 2.53917e-15 0)
(3 6.25646e-16 0)
(3 -4.95395e-16 0)
(3 -7.07791e-16 0)
(3 -8.95399e-16 0)
(3 -4.15367e-16 0)
(3 8.99758e-16 0)
(3 -7.08106e-17 0)
(3 -7.86999e-17 0)
(3 -3.03871e-16 0)
(3 -4.27331e-16 0)
(3 -6.73735e-16 0)
(3 -3.28385e-17 0)
(3 7.81513e-17 0)
(3 4.11639e-16 0)
(3 4.85862e-16 0)
(3 -1.76588e-16 0)
(3 -2.60378e-16 0)
(3 -3.89473e-16 0)
(3 -5.36932e-16 0)
(3 -9.96266e-16 0)
(3 -8.53914e-16 0)
(3 -1.58687e-15 0)
(3 -1.20122e-15 0)
(3 -8.68279e-16 0)
(3 -1.92749e-15 0)
(3 -2.08743e-15 0)
(3 -1.89523e-15 0)
(3 -2.58355e-15 0)
(3 -3.20987e-15 0)
(3 -2.6213e-15 0)
(3 -2.41799e-15 0)
(3 -2.50237e-15 0)
(3 -1.96714e-15 0)
(3 -7.20875e-16 0)
(3 -2.59405e-16 0)
(3 -3.48465e-16 0)
(3 -4.32039e-16 0)
(3 -3.21925e-16 0)
(3 6.53639e-16 0)
(3 1.63701e-16 0)
(3 -1.57397e-15 0)
(3 -9.83935e-16 0)
(3 -9.97027e-16 0)
(3 -9.46973e-16 0)
(3 -7.35961e-16 0)
(3 5.63934e-16 0)
(3 1.17624e-15 0)
(3 2.27183e-15 0)
(3 1.50188e-15 0)
(3 -1.03443e-15 0)
(3 -9.86348e-16 0)
(3 -4.21066e-16 0)
(3 -2.55676e-16 0)
(3 -4.84739e-16 0)
(3 -2.04432e-17 0)
(3 4.742e-17 0)
(3 -5.07324e-16 0)
(3 -1.23355e-15 0)
(3 -1.29593e-15 0)
(3 -9.40132e-16 0)
(3 -9.37972e-16 0)
(3 -1.26287e-15 0)
(3 -1.98573e-15 0)
(3 -1.6906e-15 0)
(3 -1.47917e-15 0)
(3 -1.90546e-15 0)
(3 -2.88908e-15 0)
(3 -2.72149e-15 0)
(3 -2.15258e-15 0)
(3 -1.37779e-15 0)
(3 -1.28066e-15 0)
(3 -1.06697e-15 0)
(3 -7.20694e-16 0)
(3 -5.23456e-16 0)
(3 -7.86613e-16 0)
(3 -1.3809e-15 0)
(3 -2.01904e-15 0)
(3 -1.85425e-15 0)
(3 -1.53132e-15 0)
(3 -1.28227e-15 0)
(3 -8.96745e-16 0)
(3 -3.17401e-17 0)
(3 -1.98395e-17 0)
(3 5.214e-16 0)
(3 6.97165e-16 0)
(3 7.22535e-16 0)
(3 -8.21957e-16 0)
(3 -2.22426e-15 0)
(3 -2.25965e-15 0)
(3 -1.86631e-15 0)
(3 -1.78366e-15 0)
(3 -1.68866e-15 0)
(3 -1.45972e-15 0)
(3 -1.31004e-15 0)
(3 -1.85044e-16 0)
(3 7.78888e-16 0)
(3 1.57028e-15 0)
(3 -2.8139e-16 0)
(3 -7.25684e-16 0)
(3 -1.08555e-15 0)
(3 -5.78388e-16 0)
(3 -1.18008e-15 0)
(3 1.25895e-16 0)
(3 -1.04732e-16 0)
(3 3.09347e-16 0)
(3 2.36597e-16 0)
(3 1.12026e-16 0)
(3 -6.09564e-16 0)
(3 -3.36217e-16 0)
(3 -7.27578e-16 0)
(3 -9.70381e-16 0)
(3 -8.77269e-16 0)
(3 -7.0994e-16 0)
(3 -1.05108e-15 0)
(3 -1.56062e-15 0)
(3 -1.28609e-15 0)
(3 -1.12968e-15 0)
(3 -6.26245e-16 0)
(3 -1.56934e-16 0)
(3 -2.84937e-16 0)
(3 3.21018e-17 0)
(3 1.94912e-16 0)
(3 1.79739e-16 0)
(3 -3.80953e-17 0)
(3 -4.14159e-16 0)
(3 -1.14252e-15 0)
(3 -1.20211e-15 0)
(3 -6.67125e-16 0)
(3 3.42264e-16 0)
(3 1.03477e-15 0)
(3 1.38798e-15 0)
(3 1.07983e-15 0)
(3 4.44248e-16 0)
(3 5.28524e-16 0)
(3 -7.02764e-16 0)
(3 -1.16871e-15 0)
(3 -1.10893e-15 0)
(3 -2.07395e-15 0)
(3 -2.21011e-15 0)
(3 -2.0422e-15 0)
(3 -1.66688e-15 0)
(3 -1.61278e-15 0)
(3 -6.23575e-17 0)
(3 8.01464e-16 0)
(3 -1.6437e-16 0)
(3 -4.02138e-16 0)
(3 -8.05389e-16 0)
(3 -1.38044e-15 0)
(3 -7.05807e-16 0)
(3 -2.13202e-15 0)
(3 -1.06085e-16 0)
(3 -2.70019e-16 0)
(3 1.95348e-16 0)
(3 8.90665e-16 0)
(3 8.32956e-16 0)
(3 3.89879e-16 0)
(3 2.00705e-16 0)
(3 -3.44544e-16 0)
(3 -3.73616e-16 0)
(3 -5.4137e-16 0)
(3 -3.48455e-16 0)
(3 2.53678e-17 0)
(3 2.28749e-16 0)
(3 -2.12181e-16 0)
(3 -3.85559e-16 0)
(3 -4.65589e-16 0)
(3 1.26841e-16 0)
(3 -4.28303e-16 0)
(3 -2.41361e-16 0)
(3 -2.12763e-16 0)
(3 4.19266e-16 0)
(3 9.53143e-16 0)
(3 6.93838e-16 0)
(3 -2.84262e-16 0)
(3 -6.69436e-16 0)
(3 -2.87799e-16 0)
(3 5.1498e-16 0)
(3 1.12818e-15 0)
(3 1.79906e-15 0)
(3 1.65342e-15 0)
(3 2.95333e-16 0)
(3 -8.72684e-16 0)
(3 -8.98601e-16 0)
(3 -3.80508e-16 0)
(3 -2.45553e-16 0)
(3 -9.69824e-16 0)
(3 -1.28045e-15 0)
(3 -1.30982e-15 0)
(3 -1.52899e-15 0)
(3 -4.79856e-16 0)
(3 6.63789e-17 0)
(3 6.28137e-16 0)
(3 -6.28286e-16 0)
(3 -1.8456e-15 0)
(3 -2.00786e-15 0)
(3 -2.52551e-15 0)
(3 -2.83275e-15 0)
(3 -2.11034e-15 0)
(3 -2.32659e-17 0)
(3 2.39185e-16 0)
(3 3.40249e-16 0)
(3 4.741e-16 0)
(3 5.13967e-16 0)
(3 1.01441e-15 0)
(3 6.91602e-16 0)
(3 5.6517e-16 0)
(3 5.67788e-16 0)
(3 1.50861e-16 0)
(3 -3.29985e-16 0)
(3 -2.2541e-16 0)
(3 -3.08565e-16 0)
(3 -4.71214e-16 0)
(3 -5.58782e-16 0)
(3 1.90171e-16 0)
(3 2.42164e-16 0)
(3 -1.38844e-16 0)
(3 -7.28167e-16 0)
(3 -3.64899e-16 0)
(3 2.69659e-16 0)
(3 5.61893e-16 0)
(3 1.96789e-16 0)
(3 -5.82781e-16 0)
(3 -8.27276e-16 0)
(3 -1.32098e-15 0)
(3 -5.32855e-16 0)
(3 1.10451e-16 0)
(3 5.77825e-16 0)
(3 -1.01386e-16 0)
(3 -5.49503e-16 0)
(3 -1.39069e-15 0)
(3 -1.07525e-15 0)
(3 -9.06738e-16 0)
(3 -1.10521e-15 0)
(3 -1.33321e-15 0)
(3 -1.41098e-15 0)
(3 -6.66398e-16 0)
(3 -4.50136e-16 0)
(3 -1.78369e-16 0)
(3 -4.9247e-16 0)
(3 -1.61379e-15 0)
(3 -2.11276e-15 0)
(3 -2.08699e-15 0)
(3 -2.18528e-15 0)
(3 -2.60486e-15 0)
(3 -2.98788e-15 0)
(3 -2.63083e-15 0)
(3 1.36842e-16 0)
(3 3.00323e-16 0)
(3 3.04423e-16 0)
(3 7.8331e-17 0)
(3 7.20902e-17 0)
(3 1.22815e-16 0)
(3 6.40717e-16 0)
(3 1.28696e-15 0)
(3 1.22138e-15 0)
(3 1.65327e-15 0)
(3 2.44863e-16 0)
(3 -9.76791e-17 0)
(3 8.34674e-19 0)
(3 3.59989e-16 0)
(3 5.26452e-16 0)
(3 1.39148e-15 0)
(3 1.35692e-15 0)
(3 1.8434e-15 0)
(3 1.61624e-15 0)
(3 1.45158e-15 0)
(3 1.3817e-15 0)
(3 1.08398e-15 0)
(3 7.62483e-16 0)
(3 2.74152e-16 0)
(3 3.10841e-17 0)
(3 -7.36877e-16 0)
(3 -1.03176e-15 0)
(3 -1.42818e-15 0)
(3 -2.04502e-15 0)
(3 -1.18686e-15 0)
(3 -7.51624e-16 0)
(3 -5.90118e-16 0)
(3 4.24835e-16 0)
(3 1.64805e-16 0)
(3 -5.26816e-17 0)
(3 -6.35218e-16 0)
(3 -6.1408e-16 0)
(3 2.63166e-17 0)
(3 6.88376e-16 0)
(3 -1.01936e-18 0)
(3 -3.03879e-17 0)
(3 -1.70295e-16 0)
(3 -1.8164e-16 0)
(3 -1.38407e-15 0)
(3 -2.42564e-15 0)
(3 -2.25294e-15 0)
(3 -1.9455e-15 0)
(3 -2.2774e-15 0)
(3 2.88727e-18 0)
(3 -2.26941e-16 0)
(3 -4.31037e-16 0)
(3 -7.71649e-16 0)
(3 -7.95377e-16 0)
(3 -1.11444e-15 0)
(3 -1.40333e-15 0)
(3 -4.48904e-16 0)
(3 8.30611e-17 0)
(3 9.23176e-16 0)
(3 1.85342e-15 0)
(3 2.38182e-15 0)
(3 2.51871e-15 0)
(3 1.82169e-15 0)
(3 1.29409e-15 0)
(3 1.17104e-15 0)
(3 1.51079e-15 0)
(3 2.46588e-15 0)
(3 3.01519e-15 0)
(3 2.84798e-15 0)
(3 2.47809e-15 0)
(3 2.3285e-15 0)
(3 2.26403e-15 0)
(3 2.00126e-15 0)
(3 1.77526e-15 0)
(3 1.31441e-15 0)
(3 -5.51738e-16 0)
(3 -9.75816e-16 0)
(3 -1.6383e-15 0)
(3 -9.92124e-16 0)
(3 6.8204e-16 0)
(3 8.95928e-16 0)
(3 6.34221e-16 0)
(3 2.09475e-16 0)
(3 1.5893e-16 0)
(3 4.24585e-16 0)
(3 9.35296e-16 0)
(3 4.90324e-16 0)
(3 2.08619e-16 0)
(3 -2.70517e-16 0)
(3 -2.45526e-16 0)
(3 4.17808e-16 0)
(3 5.78237e-16 0)
(3 -1.24145e-15 0)
(3 -3.02365e-15 0)
(3 -3.31899e-15 0)
(3 -3.19736e-15 0)
(3 -3.0185e-15 0)
(3 -8.99183e-17 0)
(3 -2.81031e-16 0)
(3 -5.24694e-16 0)
(3 -4.57637e-16 0)
(3 -3.54863e-16 0)
(3 -3.48399e-16 0)
(3 -4.96017e-16 0)
(3 -4.569e-16 0)
(3 -6.26574e-17 0)
(3 4.86929e-17 0)
(3 9.40895e-16 0)
(3 1.69342e-15 0)
(3 1.64798e-15 0)
(3 1.41379e-15 0)
(3 1.24441e-15 0)
(3 1.29952e-15 0)
(3 1.50345e-15 0)
(3 1.86234e-15 0)
(3 8.47404e-16 0)
(3 4.22246e-17 0)
(3 -3.64449e-16 0)
(3 -2.87787e-16 0)
(3 1.24029e-16 0)
(3 7.54195e-16 0)
(3 9.73355e-16 0)
(3 1.28234e-15 0)
(3 8.07743e-16 0)
(3 6.38792e-16 0)
(3 6.70679e-16 0)
(3 4.09753e-16 0)
(3 -2.35123e-17 0)
(3 -7.2368e-18 0)
(3 4.47147e-17 0)
(3 4.18245e-16 0)
(3 9.03975e-16 0)
(3 1.83263e-15 0)
(3 1.63067e-15 0)
(3 1.28939e-15 0)
(3 5.61091e-16 0)
(3 6.86581e-16 0)
(3 7.00084e-16 0)
(3 1.54625e-15 0)
(3 1.8721e-15 0)
(3 3.65619e-16 0)
(3 -1.46761e-15 0)
(3 -1.6909e-15 0)
(3 -2.03641e-15 0)
(3 -2.53889e-15 0)
(3 7.2969e-17 0)
(3 -1.48816e-17 0)
(3 -3.16067e-16 0)
(3 -2.80958e-16 0)
(3 2.64975e-17 0)
(3 7.35363e-16 0)
(3 8.55705e-16 0)
(3 5.4956e-16 0)
(3 3.82826e-16 0)
(3 4.9375e-16 0)
(3 3.69229e-17 0)
(3 -3.45501e-16 0)
(3 -1.70789e-16 0)
(3 8.9065e-17 0)
(3 3.12556e-16 0)
(3 9.33438e-16 0)
(3 1.19007e-15 0)
(3 8.24878e-16 0)
(3 1.70925e-16 0)
(3 3.0725e-17 0)
(3 3.04502e-16 0)
(3 -1.61383e-16 0)
(3 -4.12017e-16 0)
(3 -2.71138e-16 0)
(3 9.00869e-16 0)
(3 1.58133e-15 0)
(3 7.72004e-16 0)
(3 7.76463e-16 0)
(3 1.46708e-15 0)
(3 1.9263e-15 0)
(3 2.72009e-15 0)
(3 2.71618e-15 0)
(3 2.48774e-15 0)
(3 2.64337e-15 0)
(3 2.91758e-15 0)
(3 2.37124e-15 0)
(3 1.81376e-15 0)
(3 1.9065e-15 0)
(3 2.12473e-15 0)
(3 2.42648e-15 0)
(3 2.29282e-15 0)
(3 2.40733e-15 0)
(3 2.35827e-15 0)
(3 1.76111e-15 0)
(3 1.11752e-15 0)
(3 1.03915e-15 0)
(3 -3.91832e-16 0)
(3 -1.08079e-15 0)
(3 1.45765e-16 0)
(3 3.08661e-16 0)
(3 4.10101e-16 0)
(3 2.60572e-16 0)
(3 1.98615e-16 0)
(3 1.19466e-15 0)
(3 1.40745e-15 0)
(3 9.934e-16 0)
(3 3.92791e-16 0)
(3 -1.26335e-16 0)
(3 -5.28704e-16 0)
(3 -7.23213e-16 0)
(3 -4.1839e-16 0)
(3 1.52136e-16 0)
(3 2.45727e-16 0)
(3 -2.28941e-16 0)
(3 -1.17252e-15 0)
(3 -1.01241e-15 0)
(3 -3.82935e-16 0)
(3 2.72768e-16 0)
(3 1.09706e-15 0)
(3 9.0155e-16 0)
(3 8.20241e-16 0)
(3 5.96675e-16 0)
(3 1.26682e-15 0)
(3 6.06227e-16 0)
(3 -6.45245e-17 0)
(3 -3.71348e-16 0)
(3 9.61219e-16 0)
(3 2.32833e-15 0)
(3 2.95633e-15 0)
(3 4.01376e-15 0)
(3 4.80338e-15 0)
(3 3.54604e-15 0)
(3 5.75427e-16 0)
(3 -1.45745e-16 0)
(3 1.75882e-16 0)
(3 5.50845e-16 0)
(3 1.4716e-15 0)
(3 1.65765e-15 0)
(3 1.0443e-15 0)
(3 1.08092e-15 0)
(3 1.22381e-15 0)
(3 1.91874e-15 0)
(3 1.9274e-15 0)
(3 7.72179e-16 0)
(3 -2.30544e-16 0)
(3 -5.48322e-16 0)
(3 -9.03929e-17 0)
(3 4.58066e-16 0)
(3 8.71181e-16 0)
(3 5.02208e-16 0)
(3 -1.06404e-16 0)
(3 1.01669e-16 0)
(3 4.91104e-16 0)
(3 5.57123e-16 0)
(3 8.59356e-17 0)
(3 -7.0944e-16 0)
(3 -5.72108e-16 0)
(3 -1.70337e-16 0)
(3 6.23553e-16 0)
(3 5.52244e-16 0)
(3 3.67878e-16 0)
(3 -2.93746e-16 0)
(3 -1.52436e-15 0)
(3 -1.61039e-15 0)
(3 -1.1306e-15 0)
(3 -1.13089e-15 0)
(3 -1.02872e-15 0)
(3 -6.25058e-16 0)
(3 2.92552e-16 0)
(3 1.14337e-15 0)
(3 4.91085e-16 0)
(3 1.58029e-16 0)
(3 5.46311e-16 0)
(3 -2.41089e-16 0)
(3 2.71038e-16 0)
(3 1.31632e-15 0)
(3 1.72301e-15 0)
(3 2.74359e-15 0)
(3 3.52141e-15 0)
(3 2.68454e-15 0)
(3 1.44473e-15 0)
(3 1.80076e-15 0)
(3 1.46935e-15 0)
(3 4.07616e-16 0)
(3 5.45654e-16 0)
(3 -2.61539e-16 0)
(3 -9.31716e-16 0)
(3 -5.40946e-16 0)
(3 -9.18375e-18 0)
(3 2.12749e-17 0)
(3 1.24655e-15 0)
(3 1.64494e-15 0)
(3 2.63407e-15 0)
(3 7.95134e-16 0)
(3 -1.45263e-17 0)
(3 1.93865e-17 0)
(3 -4.98051e-17 0)
(3 -4.0529e-16 0)
(3 -4.10622e-16 0)
(3 -6.58086e-16 0)
(3 -9.66263e-16 0)
(3 1.1479e-16 0)
(3 -2.56825e-16 0)
(3 -6.20395e-16 0)
(3 1.77492e-17 0)
(3 1.79212e-16 0)
(3 3.89753e-16 0)
(3 -1.93557e-16 0)
(3 -3.88122e-16 0)
(3 -6.17282e-16 0)
(3 -4.15221e-16 0)
(3 4.93283e-17 0)
(3 -1.7933e-16 0)
(3 -9.48917e-16 0)
(3 -1.89006e-15 0)
(3 -1.66319e-15 0)
(3 -8.20928e-16 0)
(3 1.31799e-16 0)
(3 5.70942e-17 0)
(3 4.24032e-16 0)
(3 1.78065e-15 0)
(3 9.1519e-16 0)
(3 2.17585e-16 0)
(3 5.22839e-16 0)
(3 8.28138e-16 0)
(3 5.56831e-16 0)
(3 7.04844e-16 0)
(3 8.75054e-16 0)
(3 4.1933e-16 0)
(3 6.19261e-16 0)
(3 6.09221e-16 0)
(3 -2.17958e-16 0)
(3 -1.31394e-15 0)
(3 -9.72398e-16 0)
(3 -2.61463e-16 0)
(3 -9.1925e-16 0)
(3 -1.49833e-15 0)
(3 -1.16569e-15 0)
(3 4.13215e-16 0)
(3 1.38195e-15 0)
(3 1.39613e-15 0)
(3 2.33886e-15 0)
(3 1.1475e-16 0)
(3 -5.19518e-16 0)
(3 -1.0997e-15 0)
(3 -7.13474e-16 0)
(3 -1.06744e-16 0)
(3 -9.77932e-16 0)
(3 -1.74171e-15 0)
(3 -1.41229e-15 0)
(3 -1.01078e-15 0)
(3 -8.81485e-16 0)
(3 -9.29597e-16 0)
(3 -1.03598e-15 0)
(3 -1.33101e-15 0)
(3 -8.76694e-16 0)
(3 -3.31872e-16 0)
(3 -7.02282e-17 0)
(3 2.97396e-16 0)
(3 3.40832e-16 0)
(3 -1.51912e-17 0)
(3 2.29001e-16 0)
(3 -2.98609e-16 0)
(3 -8.19223e-16 0)
(3 -1.0377e-15 0)
(3 -5.99213e-16 0)
(3 -2.93264e-17 0)
(3 1.31529e-16 0)
(3 4.9036e-16 0)
(3 9.04582e-16 0)
(3 6.97688e-16 0)
(3 9.98336e-17 0)
(3 -1.70114e-15 0)
(3 -1.71174e-15 0)
(3 -1.76291e-15 0)
(3 -1.65172e-15 0)
(3 -3.42111e-16 0)
(3 -7.83533e-16 0)
(3 -7.77611e-16 0)
(3 -1.38851e-15 0)
(3 -1.64232e-15 0)
(3 7.79934e-16 0)
(3 1.21936e-15 0)
(3 5.59328e-16 0)
(3 -4.95362e-16 0)
(3 -9.09179e-16 0)
(3 -9.73598e-16 0)
(3 -9.89853e-16 0)
(3 -4.15514e-16 0)
(3 1.42948e-15 0)
(3 -2.39301e-17 0)
(3 -1.19401e-16 0)
(3 7.69862e-17 0)
(3 -3.92108e-17 0)
(3 -2.13733e-16 0)
(3 -8.06971e-16 0)
(3 -1.57932e-15 0)
(3 -1.19407e-15 0)
(3 -4.72629e-16 0)
(3 3.33527e-16 0)
(3 4.05191e-17 0)
(3 -1.27428e-16 0)
(3 -2.24688e-16 0)
(3 -3.48252e-16 0)
(3 -6.72375e-16 0)
(3 -3.03382e-16 0)
(3 5.24618e-17 0)
(3 1.70843e-16 0)
(3 -2.07966e-16 0)
(3 -2.38596e-16 0)
(3 -8.99977e-17 0)
(3 -1.01329e-15 0)
(3 -1.87083e-15 0)
(3 -1.17908e-15 0)
(3 -1.3477e-15 0)
(3 -1.23291e-15 0)
(3 -1.1003e-15 0)
(3 -6.05389e-17 0)
(3 -1.69234e-16 0)
(3 -1.22972e-15 0)
(3 -1.48658e-15 0)
(3 -1.29739e-15 0)
(3 -1.20433e-15 0)
(3 -1.02776e-15 0)
(3 -1.20875e-15 0)
(3 -1.16186e-15 0)
(3 4.7552e-16 0)
(3 5.77584e-16 0)
(3 3.81996e-16 0)
(3 9.92097e-17 0)
(3 -2.76718e-16 0)
(3 -4.35149e-16 0)
(3 -1.88035e-16 0)
(3 -1.33864e-15 0)
(3 -2.31262e-15 0)
(3 -2.55138e-15 0)
(3 -1.98486e-15 0)
(3 -1.87959e-15 0)
(3 -1.20779e-16 0)
(3 1.73118e-17 0)
(3 9.09572e-17 0)
(3 1.85366e-16 0)
(3 -2.52274e-17 0)
(3 -1.11715e-16 0)
(3 -8.01862e-17 0)
(3 -1.55497e-16 0)
(3 5.84347e-17 0)
(3 5.11184e-16 0)
(3 9.33754e-16 0)
(3 8.90953e-16 0)
(3 9.31079e-16 0)
(3 4.25674e-16 0)
(3 1.34524e-16 0)
(3 3.49872e-16 0)
(3 3.5296e-16 0)
(3 -1.1659e-16 0)
(3 -1.27627e-15 0)
(3 -1.99542e-15 0)
(3 -2.31711e-15 0)
(3 -7.80666e-16 0)
(3 -4.75157e-16 0)
(3 -8.42905e-16 0)
(3 -6.0304e-16 0)
(3 -5.65674e-16 0)
(3 -7.22225e-16 0)
(3 -6.32829e-16 0)
(3 -6.35531e-17 0)
(3 -4.43838e-17 0)
(3 -1.08655e-16 0)
(3 -4.41434e-16 0)
(3 4.34511e-16 0)
(3 8.90109e-16 0)
(3 4.29916e-16 0)
(3 7.39386e-16 0)
(3 1.49267e-15 0)
(3 1.91115e-15 0)
(3 1.61179e-15 0)
(3 -9.76944e-17 0)
(3 -1.64255e-15 0)
(3 -9.82892e-16 0)
(3 -1.15481e-15 0)
(3 -2.699e-15 0)
(3 -3.56875e-15 0)
(3 -4.10357e-15 0)
(3 -5.15957e-15 0)
(3 -7.21597e-15 0)
(3 7.92867e-17 0)
(3 -2.63269e-16 0)
(3 -2.53543e-16 0)
(3 -2.58578e-16 0)
(3 -5.60454e-16 0)
(3 -7.91052e-17 0)
(3 3.00985e-16 0)
(3 3.96239e-17 0)
(3 1.79366e-16 0)
(3 7.34587e-16 0)
(3 1.36037e-15 0)
(3 1.07152e-15 0)
(3 3.37393e-16 0)
(3 3.32484e-16 0)
(3 2.2052e-16 0)
(3 -2.55446e-16 0)
(3 -6.95152e-16 0)
(3 -1.45336e-15 0)
(3 -1.48873e-15 0)
(3 -5.53693e-16 0)
(3 -3.29148e-16 0)
(3 -1.2966e-16 0)
(3 9.51467e-17 0)
(3 -1.34076e-15 0)
(3 -1.29527e-15 0)
(3 -1.58946e-15 0)
(3 -2.73687e-15 0)
(3 -3.161e-15 0)
(3 -2.6802e-15 0)
(3 -2.12457e-15 0)
(3 -1.41352e-15 0)
(3 -4.97675e-18 0)
(3 1.12308e-15 0)
(3 1.3046e-15 0)
(3 1.31574e-15 0)
(3 1.46669e-15 0)
(3 1.29374e-15 0)
(3 2.34691e-16 0)
(3 -5.78856e-16 0)
(3 -9.93465e-16 0)
(3 -1.95659e-15 0)
(3 -1.27677e-15 0)
(3 -1.59728e-15 0)
(3 -2.25311e-15 0)
(3 -2.72212e-15 0)
(3 -3.14867e-15 0)
(3 -4.24058e-15 0)
(3 -6.53404e-15 0)
(3 -1.01402e-16 0)
(3 -5.72383e-17 0)
(3 2.24837e-16 0)
(3 8.62141e-18 0)
(3 -6.40988e-17 0)
(3 -8.96818e-17 0)
(3 2.06843e-16 0)
(3 8.47291e-16 0)
(3 7.70672e-16 0)
(3 4.71303e-16 0)
(3 6.63441e-16 0)
(3 1.25258e-15 0)
(3 1.00956e-15 0)
(3 6.06846e-16 0)
(3 1.84416e-16 0)
(3 -5.91606e-16 0)
(3 -9.91232e-16 0)
(3 -7.34229e-16 0)
(3 -1.06196e-16 0)
(3 3.71355e-16 0)
(3 8.56572e-16 0)
(3 7.99217e-16 0)
(3 -4.02028e-16 0)
(3 -7.51309e-16 0)
(3 -9.10742e-16 0)
(3 -1.86806e-15 0)
(3 -4.17685e-15 0)
(3 -5.47641e-15 0)
(3 -5.11225e-15 0)
(3 -2.96097e-15 0)
(3 -1.42735e-15 0)
(3 -2.48997e-16 0)
(3 7.21164e-16 0)
(3 5.64697e-16 0)
(3 1.4587e-15 0)
(3 8.84241e-16 0)
(3 -3.86698e-16 0)
(3 -1.93767e-15 0)
(3 -1.9549e-15 0)
(3 -1.87255e-15 0)
(3 -2.44366e-15 0)
(3 -3.51608e-15 0)
(3 -2.49879e-15 0)
(3 -2.75362e-16 0)
(3 1.02313e-15 0)
(3 1.20618e-15 0)
(3 1.09183e-15 0)
(3 -4.54195e-16 0)
(3 -4.57111e-17 0)
(3 -1.08505e-17 0)
(3 1.13823e-16 0)
(3 6.56939e-16 0)
(3 9.46083e-16 0)
(3 5.20261e-16 0)
(3 1.89581e-16 0)
(3 6.2693e-16 0)
(3 9.1869e-16 0)
(3 6.8899e-16 0)
(3 1.08842e-15 0)
(3 1.58593e-15 0)
(3 1.84444e-15 0)
(3 1.612e-15 0)
(3 1.22979e-15 0)
(3 7.32456e-16 0)
(3 5.74837e-16 0)
(3 5.60452e-16 0)
(3 7.09011e-16 0)
(3 7.40997e-16 0)
(3 1.17331e-15 0)
(3 1.65441e-15 0)
(3 2.11143e-15 0)
(3 2.09348e-15 0)
(3 2.06099e-15 0)
(3 -6.42371e-17 0)
(3 -3.32171e-15 0)
(3 -4.10154e-15 0)
(3 -2.77756e-15 0)
(3 -1.48896e-15 0)
(3 -1.00806e-15 0)
(3 -5.10986e-16 0)
(3 -2.49822e-16 0)
(3 -3.73968e-16 0)
(3 -3.61853e-16 0)
(3 -9.42893e-16 0)
(3 -2.77838e-15 0)
(3 -3.22628e-15 0)
(3 -1.9268e-15 0)
(3 -7.44948e-16 0)
(3 -4.42832e-16 0)
(3 -2.03173e-15 0)
(3 -3.70401e-15 0)
(3 -2.62013e-15 0)
(3 2.5392e-16 0)
(3 9.35555e-16 0)
(3 3.17174e-15 0)
(3 3.78373e-15 0)
(3 1.02483e-16 0)
(3 1.96857e-16 0)
(3 4.96984e-16 0)
(3 8.64889e-16 0)
(3 1.07642e-15 0)
(3 9.87312e-16 0)
(3 6.98251e-16 0)
(3 5.71822e-16 0)
(3 7.04556e-16 0)
(3 1.13591e-15 0)
(3 1.44666e-15 0)
(3 1.19776e-15 0)
(3 1.00056e-15 0)
(3 1.66629e-15 0)
(3 2.49744e-15 0)
(3 2.59867e-15 0)
(3 1.29968e-15 0)
(3 7.00297e-16 0)
(3 8.29622e-16 0)
(3 6.86392e-16 0)
(3 1.05774e-15 0)
(3 1.33669e-15 0)
(3 2.22527e-15 0)
(3 1.98499e-15 0)
(3 1.54584e-15 0)
(3 1.21214e-15 0)
(3 -3.67291e-16 0)
(3 -1.8099e-15 0)
(3 -1.99101e-15 0)
(3 -1.90554e-15 0)
(3 -1.91009e-15 0)
(3 -1.53152e-15 0)
(3 -7.27973e-16 0)
(3 -8.01265e-16 0)
(3 -2.85013e-15 0)
(3 -3.28251e-15 0)
(3 -3.48872e-15 0)
(3 -2.99399e-15 0)
(3 -3.0377e-15 0)
(3 -1.62527e-15 0)
(3 -6.04721e-16 0)
(3 -6.5404e-16 0)
(3 -1.61339e-15 0)
(3 -1.30891e-15 0)
(3 4.92643e-16 0)
(3 1.72404e-15 0)
(3 2.48685e-15 0)
(3 3.9748e-15 0)
(3 2.28133e-16 0)
(3 5.09361e-16 0)
(3 5.13171e-16 0)
(3 4.71763e-16 0)
(3 1.03017e-15 0)
(3 1.78193e-15 0)
(3 2.75981e-15 0)
(3 2.6117e-15 0)
(3 1.11734e-15 0)
(3 7.42464e-16 0)
(3 2.32532e-17 0)
(3 -9.381e-16 0)
(3 -8.35615e-16 0)
(3 -3.00496e-16 0)
(3 1.04259e-15 0)
(3 2.16565e-15 0)
(3 2.58899e-15 0)
(3 2.28237e-15 0)
(3 7.49617e-16 0)
(3 1.5697e-16 0)
(3 -4.4168e-16 0)
(3 -5.45914e-16 0)
(3 -2.01604e-16 0)
(3 2.28875e-16 0)
(3 1.08502e-15 0)
(3 1.91405e-15 0)
(3 2.33931e-15 0)
(3 1.75365e-15 0)
(3 3.39339e-16 0)
(3 -2.55893e-16 0)
(3 -7.33165e-16 0)
(3 -2.09868e-15 0)
(3 -3.37445e-15 0)
(3 -1.78998e-15 0)
(3 -1.5978e-15 0)
(3 -1.22058e-15 0)
(3 -6.01815e-16 0)
(3 -1.07395e-15 0)
(3 -1.34802e-15 0)
(3 -1.3861e-15 0)
(3 -1.41136e-15 0)
(3 6.64455e-16 0)
(3 1.36845e-15 0)
(3 1.99451e-15 0)
(3 2.31589e-15 0)
(3 2.12601e-15 0)
(3 2.15988e-15 0)
(3 3.57978e-15 0)
(3 9.28979e-17 0)
(3 3.37679e-16 0)
(3 1.92598e-16 0)
(3 3.94873e-16 0)
(3 9.11903e-16 0)
(3 7.64255e-16 0)
(3 5.98038e-16 0)
(3 8.32085e-16 0)
(3 1.4731e-15 0)
(3 1.27551e-15 0)
(3 4.26963e-16 0)
(3 -4.99444e-16 0)
(3 -4.42715e-16 0)
(3 -5.64954e-16 0)
(3 -4.04917e-16 0)
(3 -1.88944e-17 0)
(3 6.78491e-16 0)
(3 5.91942e-16 0)
(3 -4.35995e-16 0)
(3 -3.25015e-16 0)
(3 -1.27228e-15 0)
(3 -1.57693e-15 0)
(3 -1.68111e-15 0)
(3 -1.75677e-15 0)
(3 -4.02137e-16 0)
(3 8.18051e-16 0)
(3 1.71128e-15 0)
(3 3.21902e-15 0)
(3 2.77031e-15 0)
(3 -3.28807e-16 0)
(3 -5.37167e-16 0)
(3 -6.89621e-16 0)
(3 -1.37686e-15 0)
(3 -1.58327e-15 0)
(3 -7.58627e-16 0)
(3 1.7555e-15 0)
(3 2.71876e-15 0)
(3 3.24666e-15 0)
(3 2.87794e-15 0)
(3 9.09272e-16 0)
(3 6.83402e-16 0)
(3 1.63545e-15 0)
(3 2.8851e-15 0)
(3 2.72444e-15 0)
(3 2.84899e-15 0)
(3 3.05535e-15 0)
(3 3.77638e-15 0)
(3 5.34557e-15 0)
(3 -1.45437e-16 0)
(3 -1.29469e-16 0)
(3 -3.66911e-16 0)
(3 -3.38239e-16 0)
(3 -4.70568e-16 0)
(3 -7.74155e-16 0)
(3 -8.22071e-16 0)
(3 -3.20383e-16 0)
(3 3.05091e-16 0)
(3 7.54849e-16 0)
(3 -5.91825e-16 0)
(3 -5.45241e-16 0)
(3 -6.65932e-16 0)
(3 -6.71733e-16 0)
(3 -1.31301e-15 0)
(3 -1.48487e-15 0)
(3 -1.58168e-15 0)
(3 -9.43318e-16 0)
(3 3.28766e-17 0)
(3 3.49695e-16 0)
(3 1.96492e-16 0)
(3 -1.66754e-16 0)
(3 -7.75499e-16 0)
(3 -9.54035e-16 0)
(3 8.84537e-17 0)
(3 7.1225e-16 0)
(3 1.79868e-15 0)
(3 3.55971e-15 0)
(3 2.38332e-15 0)
(3 -4.80963e-16 0)
(3 -2.63022e-16 0)
(3 3.12254e-16 0)
(3 2.67378e-16 0)
(3 -3.85338e-16 0)
(3 -8.91022e-16 0)
(3 1.4756e-15 0)
(3 5.96615e-15 0)
(3 7.54185e-15 0)
(3 6.97594e-15 0)
(3 5.29387e-15 0)
(3 4.06709e-15 0)
(3 3.48266e-15 0)
(3 2.85469e-15 0)
(3 3.01922e-15 0)
(3 3.11629e-15 0)
(3 3.13208e-15 0)
(3 2.95207e-15 0)
(3 4.19594e-15 0)
(3 1.16326e-17 0)
(3 -1.99249e-16 0)
(3 -1.76646e-16 0)
(3 -7.07669e-16 0)
(3 -9.51705e-16 0)
(3 -5.27389e-16 0)
(3 -3.34171e-16 0)
(3 -5.31365e-16 0)
(3 -1.60971e-15 0)
(3 -2.35052e-15 0)
(3 -2.05109e-15 0)
(3 -7.6162e-16 0)
(3 -2.63614e-16 0)
(3 -3.57468e-16 0)
(3 -1.1547e-15 0)
(3 -1.14715e-15 0)
(3 -9.23363e-16 0)
(3 -5.02892e-16 0)
(3 5.88916e-16 0)
(3 1.11771e-15 0)
(3 1.9803e-15 0)
(3 1.06765e-15 0)
(3 -4.06062e-16 0)
(3 -2.85045e-16 0)
(3 -2.49105e-16 0)
(3 -3.89233e-16 0)
(3 7.00969e-16 0)
(3 3.00565e-15 0)
(3 2.20749e-15 0)
(3 9.23313e-16 0)
(3 1.1245e-15 0)
(3 1.49531e-15 0)
(3 1.87835e-15 0)
(3 1.30268e-15 0)
(3 1.42836e-15 0)
(3 1.97247e-15 0)
(3 3.33028e-15 0)
(3 4.16438e-15 0)
(3 4.52431e-15 0)
(3 5.5312e-15 0)
(3 4.64099e-15 0)
(3 2.31623e-15 0)
(3 1.48326e-15 0)
(3 2.41762e-15 0)
(3 3.6086e-15 0)
(3 3.43395e-15 0)
(3 1.63605e-15 0)
(3 9.39875e-16 0)
(3 -1.08203e-16 0)
(3 -1.36446e-16 0)
(3 2.70727e-16 0)
(3 1.99522e-16 0)
(3 -1.96991e-16 0)
(3 -2.92888e-17 0)
(3 -5.65456e-16 0)
(3 -1.96073e-15 0)
(3 -2.57156e-15 0)
(3 -2.11524e-15 0)
(3 -1.18273e-15 0)
(3 -5.93727e-16 0)
(3 6.06531e-16 0)
(3 4.75902e-16 0)
(3 4.50003e-16 0)
(3 3.08297e-16 0)
(3 2.91699e-16 0)
(3 2.42626e-16 0)
(3 3.36381e-16 0)
(3 8.00585e-16 0)
(3 -1.8174e-16 0)
(3 -1.36008e-15 0)
(3 -1.93331e-15 0)
(3 -1.94231e-15 0)
(3 -1.49987e-15 0)
(3 -5.40837e-16 0)
(3 -4.97317e-16 0)
(3 9.83104e-16 0)
(3 1.91652e-15 0)
(3 2.21191e-15 0)
(3 1.74695e-15 0)
(3 1.8462e-15 0)
(3 1.88423e-15 0)
(3 2.50062e-15 0)
(3 1.55745e-15 0)
(3 7.90564e-16 0)
(3 2.07596e-16 0)
(3 8.59095e-16 0)
(3 1.70842e-15 0)
(3 2.74225e-15 0)
(3 4.22766e-15 0)
(3 4.45801e-15 0)
(3 3.67411e-15 0)
(3 2.4199e-15 0)
(3 1.66576e-15 0)
(3 1.91171e-16 0)
(3 -1.51443e-18 0)
(3 8.38548e-18 0)
(3 -5.46332e-17 0)
(3 -1.29745e-16 0)
(3 3.86424e-18 0)
(3 1.77131e-16 0)
(3 -6.04354e-17 0)
(3 -6.46436e-16 0)
(3 -1.30873e-15 0)
(3 -1.92132e-15 0)
(3 -1.4781e-15 0)
(3 -9.72821e-16 0)
(3 -7.41487e-16 0)
(3 -6.59539e-16 0)
(3 -2.62885e-16 0)
(3 -9.40103e-17 0)
(3 7.50154e-16 0)
(3 8.07617e-16 0)
(3 5.93328e-16 0)
(3 4.95154e-16 0)
(3 6.33763e-16 0)
(3 -1.48439e-16 0)
(3 -5.88377e-16 0)
(3 -3.68298e-16 0)
(3 -2.02554e-16 0)
(3 -1.35822e-15 0)
(3 -1.36941e-15 0)
(3 -1.30523e-15 0)
(3 -9.37808e-16 0)
(3 5.92952e-16 0)
(3 1.64461e-15 0)
(3 2.04198e-15 0)
(3 2.04429e-15 0)
(3 8.17094e-16 0)
(3 6.1434e-16 0)
(3 1.11032e-15 0)
(3 1.15147e-15 0)
(3 8.24435e-16 0)
(3 7.13504e-16 0)
(3 1.26543e-15 0)
(3 2.00816e-15 0)
(3 1.69928e-15 0)
(3 2.28504e-15 0)
(3 3.14277e-15 0)
(3 2.41628e-15 0)
(3 2.01616e-16 0)
(3 -1.64605e-15 0)
(3 -6.38375e-16 0)
(3 8.46493e-17 0)
(3 4.87016e-16 0)
(3 5.45703e-19 0)
(3 -2.24311e-17 0)
(3 -9.84057e-17 0)
(3 5.06042e-17 0)
(3 2.83475e-16 0)
(3 9.27989e-17 0)
(3 1.16148e-16 0)
(3 -5.60896e-17 0)
(3 6.08146e-17 0)
(3 -4.92333e-16 0)
(3 -4.12255e-16 0)
(3 -2.52884e-16 0)
(3 -5.06163e-16 0)
(3 -5.15578e-16 0)
(3 -7.0123e-16 0)
(3 -8.49173e-16 0)
(3 -9.39316e-16 0)
(3 -1.07971e-15 0)
(3 -1.18907e-15 0)
(3 -1.72625e-15 0)
(3 -1.44913e-15 0)
(3 -2.78496e-16 0)
(3 9.33731e-17 0)
(3 -4.6488e-16 0)
(3 -1.71664e-15 0)
(3 -2.05128e-15 0)
(3 -1.31154e-15 0)
(3 -6.44318e-16 0)
(3 -9.26832e-17 0)
(3 8.47176e-16 0)
(3 8.12815e-16 0)
(3 3.76117e-16 0)
(3 8.32254e-16 0)
(3 5.065e-16 0)
(3 5.38045e-16 0)
(3 6.6789e-16 0)
(3 7.70891e-16 0)
(3 1.17378e-15 0)
(3 1.17768e-15 0)
(3 9.2637e-16 0)
(3 1.15585e-15 0)
(3 7.94606e-16 0)
(3 7.685e-17 0)
(3 -1.04631e-15 0)
(3 -1.60405e-15 0)
(3 -1.22813e-15 0)
(3 -1.43294e-15 0)
(3 -1.36007e-15 0)
(3 1.70901e-17 0)
(3 1.99575e-17 0)
(3 -1.73404e-16 0)
(3 -1.75849e-16 0)
(3 1.88887e-16 0)
(3 8.77483e-16 0)
(3 1.03026e-15 0)
(3 1.2371e-15 0)
(3 1.22805e-15 0)
(3 8.09042e-16 0)
(3 4.4367e-16 0)
(3 2.4875e-18 0)
(3 -7.48367e-16 0)
(3 -1.5945e-15 0)
(3 -1.74917e-15 0)
(3 -1.72841e-15 0)
(3 -1.65882e-15 0)
(3 -1.76125e-15 0)
(3 -3.0576e-15 0)
(3 -3.51326e-15 0)
(3 -2.46315e-15 0)
(3 -1.45284e-15 0)
(3 -1.1842e-15 0)
(3 -5.04172e-16 0)
(3 -7.39631e-17 0)
(3 -1.86766e-17 0)
(3 -1.0766e-15 0)
(3 -1.15122e-15 0)
(3 -2.51708e-16 0)
(3 3.8749e-16 0)
(3 3.69587e-16 0)
(3 4.81335e-16 0)
(3 5.00718e-16 0)
(3 6.46763e-17 0)
(3 -3.66561e-17 0)
(3 5.23278e-16 0)
(3 1.58439e-15 0)
(3 1.63825e-15 0)
(3 1.23811e-15 0)
(3 1.4504e-15 0)
(3 1.06363e-15 0)
(3 -1.15443e-16 0)
(3 -7.61598e-17 0)
(3 3.25386e-16 0)
(3 -5.5478e-16 0)
(3 -1.1722e-15 0)
(3 -7.07748e-16 0)
(3 -1.02867e-18 0)
(3 2.26895e-16 0)
(3 3.66978e-16 0)
(3 -1.50964e-16 0)
(3 -7.74298e-16 0)
(3 -8.79285e-16 0)
(3 -3.84734e-16 0)
(3 1.05115e-16 0)
(3 1.6897e-15 0)
(3 1.86157e-15 0)
(3 1.77484e-15 0)
(3 7.47512e-16 0)
(3 -1.56557e-16 0)
(3 -3.03241e-16 0)
(3 -5.51347e-16 0)
(3 -6.07539e-16 0)
(3 -5.86014e-16 0)
(3 -7.08764e-16 0)
(3 -5.67172e-16 0)
(3 -8.18266e-16 0)
(3 -1.3206e-15 0)
(3 -1.63849e-15 0)
(3 -2.00299e-15 0)
(3 -1.65555e-15 0)
(3 -4.102e-16 0)
(3 8.02497e-16 0)
(3 7.00567e-16 0)
(3 -3.11626e-16 0)
(3 1.59692e-16 0)
(3 7.25057e-16 0)
(3 7.03526e-16 0)
(3 6.97025e-16 0)
(3 5.88596e-16 0)
(3 4.85144e-16 0)
(3 9.78014e-16 0)
(3 1.50874e-15 0)
(3 1.09828e-15 0)
(3 1.20507e-15 0)
(3 1.11526e-15 0)
(3 1.00744e-15 0)
(3 9.40497e-16 0)
(3 8.34627e-16 0)
(3 6.0827e-16 0)
(3 8.28778e-16 0)
(3 7.75602e-16 0)
(3 3.99044e-16 0)
(3 5.81453e-16 0)
(3 8.81095e-16 0)
(3 1.2956e-15 0)
(3 -2.47307e-17 0)
(3 8.17472e-18 0)
(3 1.11551e-16 0)
(3 -6.22279e-16 0)
(3 -1.76794e-15 0)
(3 -1.85096e-15 0)
(3 -6.07682e-16 0)
(3 -1.06933e-16 0)
(3 -3.02336e-16 0)
(3 -6.50677e-16 0)
(3 -5.90494e-16 0)
(3 -1.07337e-15 0)
(3 -1.55215e-15 0)
(3 -7.77622e-16 0)
(3 3.06291e-16 0)
(3 4.79557e-16 0)
(3 6.15352e-16 0)
(3 9.68782e-16 0)
(3 8.63303e-16 0)
(3 3.48454e-16 0)
(3 -9.34096e-16 0)
(3 -1.08254e-15 0)
(3 -1.20634e-15 0)
(3 -2.01377e-16 0)
(3 3.74487e-16 0)
(3 4.18934e-16 0)
(3 2.70405e-16 0)
(3 6.84609e-16 0)
(3 9.67502e-16 0)
(3 1.07786e-15 0)
(3 1.16345e-15 0)
(3 4.47302e-16 0)
(3 1.65637e-16 0)
(3 1.59014e-17 0)
(3 -5.00691e-16 0)
(3 -6.44816e-16 0)
(3 -1.43575e-15 0)
(3 -1.41622e-15 0)
(3 -1.3444e-15 0)
(3 -9.38144e-16 0)
(3 -4.01295e-16 0)
(3 3.1768e-16 0)
(3 2.34583e-16 0)
(3 -9.81464e-16 0)
(3 -1.42475e-15 0)
(3 -1.38545e-15 0)
(3 -1.51682e-15 0)
(3 -1.56579e-15 0)
(3 -2.61842e-16 0)
(3 -3.68355e-16 0)
(3 1.67169e-16 0)
(3 5.69801e-16 0)
(3 3.23137e-16 0)
(3 4.62405e-16 0)
(3 2.57753e-16 0)
(3 1.73541e-16 0)
(3 -4.39961e-16 0)
(3 -7.17446e-16 0)
(3 -2.51677e-16 0)
(3 3.35437e-17 0)
(3 2.26001e-17 0)
(3 -1.61692e-16 0)
(3 -1.36976e-16 0)
(3 6.58301e-16 0)
(3 1.80208e-15 0)
(3 2.0576e-15 0)
(3 1.38931e-15 0)
(3 1.10138e-15 0)
(3 6.75725e-16 0)
(3 3.05529e-16 0)
(3 1.19121e-16 0)
(3 6.90457e-17 0)
(3 4.02982e-16 0)
(3 1.11187e-15 0)
(3 1.64812e-15 0)
(3 1.53495e-15 0)
(3 1.52065e-15 0)
(3 1.80052e-15 0)
(3 1.46865e-15 0)
(3 9.88205e-16 0)
(3 -7.46777e-16 0)
(3 -1.54792e-15 0)
(3 -2.65999e-15 0)
(3 -2.77904e-15 0)
(3 -2.38228e-15 0)
(3 -1.76644e-15 0)
(3 -1.77747e-15 0)
(3 -2.10451e-15 0)
(3 -2.27684e-15 0)
(3 -2.15671e-15 0)
(3 -2.53898e-15 0)
(3 -3.93765e-15 0)
(3 -4.78728e-15 0)
(3 -3.86189e-15 0)
(3 -2.09538e-15 0)
(3 -2.00205e-15 0)
(3 1.30307e-18 0)
(3 -1.25966e-16 0)
(3 6.88356e-17 0)
(3 2.18564e-16 0)
(3 6.68181e-16 0)
(3 5.26177e-16 0)
(3 3.87718e-17 0)
(3 -1.91707e-16 0)
(3 -2.7684e-16 0)
(3 -1.62035e-16 0)
(3 3.79067e-16 0)
(3 1.31909e-15 0)
(3 1.63126e-15 0)
(3 1.47645e-15 0)
(3 9.24572e-16 0)
(3 1.16965e-15 0)
(3 1.47283e-15 0)
(3 1.85346e-15 0)
(3 2.38143e-15 0)
(3 2.97291e-15 0)
(3 3.12055e-15 0)
(3 2.6698e-15 0)
(3 2.41284e-15 0)
(3 7.48353e-16 0)
(3 6.46493e-16 0)
(3 1.75287e-15 0)
(3 2.09562e-15 0)
(3 1.80531e-15 0)
(3 1.39688e-15 0)
(3 1.68266e-15 0)
(3 1.9703e-15 0)
(3 7.61818e-16 0)
(3 -9.63352e-16 0)
(3 -1.47261e-15 0)
(3 -1.88099e-15 0)
(3 -2.12754e-15 0)
(3 -1.46656e-15 0)
(3 -1.26334e-15 0)
(3 -1.31868e-15 0)
(3 -2.2516e-15 0)
(3 -3.95372e-15 0)
(3 -3.95829e-15 0)
(3 -3.18623e-15 0)
(3 -2.22867e-15 0)
(3 -1.17858e-15 0)
(3 1.08425e-15 0)
(3 2.631e-15 0)
(3 2.73365e-15 0)
(3 3.89725e-17 0)
(3 1.00283e-17 0)
(3 -3.30287e-16 0)
(3 -6.92309e-16 0)
(3 -7.71546e-16 0)
(3 -8.97703e-16 0)
(3 -9.56529e-16 0)
(3 -1.1309e-15 0)
(3 -8.2176e-16 0)
(3 -4.49283e-16 0)
(3 9.48719e-16 0)
(3 1.40496e-15 0)
(3 1.98814e-15 0)
(3 1.08397e-15 0)
(3 9.19628e-16 0)
(3 5.27982e-16 0)
(3 1.2865e-16 0)
(3 -1.6663e-16 0)
(3 9.82308e-16 0)
(3 2.41686e-15 0)
(3 3.55813e-15 0)
(3 3.57659e-15 0)
(3 3.32567e-15 0)
(3 2.77208e-15 0)
(3 2.85978e-15 0)
(3 2.12684e-15 0)
(3 7.38041e-16 0)
(3 9.88939e-16 0)
(3 1.03799e-15 0)
(3 1.33553e-15 0)
(3 2.05406e-15 0)
(3 1.39237e-15 0)
(3 -1.85389e-16 0)
(3 -1.41302e-15 0)
(3 -1.0312e-15 0)
(3 -1.07623e-15 0)
(3 -1.84056e-15 0)
(3 -2.17712e-15 0)
(3 -2.03835e-15 0)
(3 -2.40847e-15 0)
(3 -3.25297e-15 0)
(3 -3.57779e-15 0)
(3 -1.87887e-15 0)
(3 -2.67121e-16 0)
(3 7.27919e-17 0)
(3 6.03835e-16 0)
(3 1.41331e-15 0)
(3 2.14939e-15 0)
(3 2.96083e-17 0)
(3 -8.15653e-17 0)
(3 -4.49957e-16 0)
(3 -8.1644e-16 0)
(3 -5.09833e-16 0)
(3 -1.68888e-16 0)
(3 -1.87558e-16 0)
(3 -3.18797e-17 0)