/*--------------------------------*- C++ -*----------------------------------*\
  =========                 |
  \\      /  F ield         | OpenFOAM: The Open Source CFD Toolbox
   \\    /   O peration     | Website:  https://openfoam.org
    \\  /    A nd           | Version:  7
     \\/     M anipulation  |
\*---------------------------------------------------------------------------*/
FoamFile
{
    version     2.0;
    format      ascii;
    class       volVectorField;
    location    "1";
    object      U;
}
// * * * * * * * * * * * * * * * * * * * * * * * * * * * * * * * * * * * * * //

dimensions      [0 1 -1 0 0 0 0];

internalField   nonuniform List<vector> 
73728
(
(3 3.89632e-17 0)
(3 -1.48375e-16 0)
(3 -1.12155e-16 0)
(3 7.6007e-17 0)
(3 2.25325e-16 0)
(3 5.42921e-17 0)
(3 5.00871e-17 0)
(3 9.38734e-17 0)
(3 -1.58796e-16 0)
(3 -4.85167e-16 0)
(3 -1.01073e-15 0)
(3 -1.0898e-15 0)
(3 -1.20845e-15 0)
(3 -1.2741e-15 0)
(3 -1.59204e-15 0)
(3 -2.00697e-15 0)
(3 -1.91934e-15 0)
(3 -1.35016e-15 0)
(3 -1.743e-15 0)
(3 -1.36195e-15 0)
(3 -1.65463e-15 0)
(3 -1.60311e-15 0)
(3 -1.99293e-15 0)
(3 -2.68397e-15 0)
(3 -2.51515e-15 0)
(3 -2.39721e-15 0)
(3 -2.5558e-15 0)
(3 -2.46972e-15 0)
(3 -2.11028e-15 0)
(3 -1.73479e-15 0)
(3 -8.51149e-16 0)
(3 -2.28034e-17 0)
(3 4.10342e-16 0)
(3 2.93717e-16 0)
(3 -6.65336e-16 0)
(3 -8.3536e-16 0)
(3 -2.82322e-16 0)
(3 5.01287e-16 0)
(3 6.3164e-16 0)
(3 6.73297e-16 0)
(3 4.60986e-16 0)
(3 3.55102e-16 0)
(3 6.67471e-16 0)
(3 1.68749e-15 0)
(3 1.7345e-15 0)
(3 5.26095e-16 0)
(3 -9.1236e-16 0)
(3 -1.33923e-15 0)
(3 -2.05055e-15 0)
(3 -2.1672e-15 0)
(3 -1.58236e-15 0)
(3 -5.66928e-16 0)
(3 -1.50067e-16 0)
(3 2.47028e-16 0)
(3 4.4289e-16 0)
(3 -1.86171e-17 0)
(3 4.78541e-16 0)
(3 9.17713e-16 0)
(3 1.37196e-15 0)
(3 2.32681e-15 0)
(3 1.24455e-15 0)
(3 -1.00189e-15 0)
(3 -1.0895e-15 0)
(3 -1.19899e-15 0)
(3 -9.73082e-16 0)
(3 -5.68884e-16 0)
(3 -5.29693e-17 0)
(3 3.07355e-16 0)
(3 5.07092e-16 0)
(3 -4.49818e-16 0)
(3 -3.87708e-16 0)
(3 -1.13936e-16 0)
(3 4.21698e-16 0)
(3 4.47931e-16 0)
(3 1.11028e-15 0)
(3 2.73164e-15 0)
(3 3.17604e-15 0)
(3 1.55585e-15 0)
(3 2.49892e-16 0)
(3 -3.61954e-19 0)
(3 -1.24106e-16 0)
(3 1.17582e-16 0)
(3 1.0212e-15 0)
(3 1.2689e-15 0)
(3 8.61741e-16 0)
(3 -2.81672e-16 0)
(3 -3.1931e-16 0)
(3 -7.5039e-16 0)
(3 -1.03136e-15 0)
(3 -1.08744e-15 0)
(3 -5.41085e-16 0)
(3 5.05437e-16 0)
(3 9.15594e-16 0)
(3 -5.59891e-16 0)
(3 -1.65586e-15 0)
(3 -1.5164e-15 0)
(3 -6.67571e-17 0)
(3 -3.2574e-16 0)
(3 -3.06396e-16 0)
(3 -4.30152e-16 0)
(3 3.18306e-17 0)
(3 3.04773e-16 0)
(3 2.02321e-16 0)
(3 6.65396e-17 0)
(3 -1.42934e-16 0)
(3 -1.11083e-16 0)
(3 -4.15374e-16 0)
(3 -2.73889e-16 0)
(3 -1.23198e-15 0)
(3 -1.26343e-15 0)
(3 -1.27813e-15 0)
(3 -1.65912e-15 0)
(3 -2.51625e-15 0)
(3 -2.60534e-15 0)
(3 -3.00425e-15 0)
(3 -2.57084e-15 0)
(3 -3.71086e-15 0)
(3 -4.35233e-15 0)
(3 -3.5241e-15 0)
(3 -2.51253e-15 0)
(3 -1.41475e-15 0)
(3 -1.62962e-15 0)
(3 -1.98762e-15 0)
(3 -1.91403e-15 0)
(3 -1.48526e-15 0)
(3 4.834e-16 0)
(3 8.30098e-16 0)
(3 1.74476e-15 0)
(3 1.90498e-15 0)
(3 1.61639e-15 0)
(3 8.04058e-16 0)
(3 -5.14133e-17 0)
(3 -5.86246e-16 0)
(3 -3.97724e-16 0)
(3 8.57308e-16 0)
(3 1.28274e-15 0)
(3 1.54345e-15 0)
(3 1.66915e-15 0)
(3 1.84782e-15 0)
(3 1.84361e-15 0)
(3 1.34441e-15 0)
(3 4.98012e-16 0)
(3 -4.18699e-16 0)
(3 -2.27785e-15 0)
(3 -3.14897e-15 0)
(3 -2.49684e-15 0)
(3 -2.31373e-15 0)
(3 -4.77011e-16 0)
(3 6.98166e-16 0)
(3 6.73353e-16 0)
(3 -3.52746e-16 0)
(3 -6.9817e-16 0)
(3 -1.93213e-16 0)
(3 -2.75033e-17 0)
(3 3.15758e-16 0)
(3 6.82457e-16 0)
(3 4.7115e-16 0)
(3 -1.39805e-15 0)
(3 -2.74252e-15 0)
(3 -2.70529e-15 0)
(3 -2.09466e-15 0)
(3 -3.05086e-16 0)
(3 5.68015e-16 0)
(3 2.07224e-16 0)
(3 -2.43988e-16 0)
(3 -1.6221e-15 0)
(3 -1.00008e-15 0)
(3 -4.88969e-16 0)
(3 -6.65731e-16 0)
(3 -7.45504e-16 0)
(3 2.00598e-15 0)
(3 3.98034e-15 0)
(3 4.77751e-15 0)
(3 2.3098e-15 0)
(3 2.13771e-16 0)
(3 -1.28914e-17 0)
(3 -8.66677e-17 0)
(3 -9.51899e-17 0)
(3 6.70273e-16 0)
(3 1.05288e-15 0)
(3 9.80842e-16 0)
(3 9.33596e-16 0)
(3 8.08132e-16 0)
(3 5.74785e-16 0)
(3 2.06628e-16 0)
(3 -6.34369e-17 0)
(3 -2.78728e-16 0)
(3 8.17931e-16 0)
(3 7.88895e-16 0)
(3 -2.8159e-17 0)
(3 -1.57873e-16 0)
(3 4.90074e-17 0)
(3 -1.64806e-16 0)
(3 -1.56552e-16 0)
(3 -1.40116e-16 0)
(3 -2.00144e-16 0)
(3 -3.58962e-16 0)
(3 -7.60242e-17 0)
(3 8.54348e-18 0)
(3 3.46157e-16 0)
(3 1.52253e-16 0)
(3 1.12706e-16 0)
(3 3.29539e-16 0)
(3 4.00071e-16 0)
(3 1.47984e-16 0)
(3 3.81209e-16 0)
(3 6.05664e-16 0)
(3 3.42294e-16 0)
(3 -5.02117e-16 0)
(3 -1.63503e-15 0)
(3 -1.64544e-15 0)
(3 -1.49995e-15 0)
(3 -1.61179e-15 0)
(3 -1.98239e-15 0)
(3 -1.90416e-15 0)
(3 -8.57933e-16 0)
(3 3.16724e-16 0)
(3 7.54755e-16 0)
(3 5.04602e-16 0)
(3 1.61935e-16 0)
(3 -5.83523e-17 0)
(3 3.46221e-16 0)
(3 2.14327e-15 0)
(3 2.53976e-15 0)
(3 2.13085e-15 0)
(3 1.708e-15 0)
(3 1.72573e-15 0)
(3 1.48003e-15 0)
(3 1.02697e-15 0)
(3 5.5902e-17 0)
(3 2.50648e-16 0)
(3 4.29147e-16 0)
(3 1.94249e-15 0)
(3 2.08718e-15 0)
(3 2.56267e-15 0)
(3 3.27288e-15 0)
(3 2.56835e-15 0)
(3 2.20244e-15 0)
(3 5.73522e-16 0)
(3 -1.44137e-15 0)
(3 -2.17823e-15 0)
(3 -2.43065e-15 0)
(3 -2.64628e-15 0)
(3 -2.14461e-15 0)
(3 -5.24384e-16 0)
(3 -2.0886e-15 0)
(3 -2.87384e-15 0)
(3 -1.49421e-15 0)
(3 -7.5247e-16 0)
(3 -1.37477e-15 0)
(3 -1.523e-15 0)
(3 -1.78494e-15 0)
(3 -1.90129e-15 0)
(3 -2.18119e-15 0)
(3 -2.93401e-15 0)
(3 -2.83749e-15 0)
(3 -2.42313e-15 0)
(3 -9.44189e-16 0)
(3 -7.7517e-16 0)
(3 -9.83383e-16 0)
(3 -1.27772e-15 0)
(3 -3.6866e-16 0)
(3 3.18001e-16 0)
(3 7.90736e-16 0)
(3 9.34008e-16 0)
(3 1.90716e-15 0)
(3 2.23492e-15 0)
(3 1.55531e-15 0)
(3 8.73512e-16 0)
(3 6.43369e-16 0)
(3 5.02411e-16 0)
(3 1.24867e-15 0)
(3 1.45684e-15 0)
(3 7.38617e-16 0)
(3 -3.9411e-16 0)
(3 -1.16015e-15 0)
(3 -9.10033e-16 0)
(3 9.85946e-16 0)
(3 2.07836e-15 0)
(3 1.58229e-15 0)
(3 6.44865e-16 0)
(3 -3.10069e-16 0)
(3 -6.5675e-16 0)
(3 -9.26666e-16 0)
(3 -1.22207e-15 0)
(3 -8.28578e-16 0)
(3 4.77613e-16 0)
(3 -3.4452e-16 0)
(3 -7.63335e-17 0)
(3 -2.60406e-16 0)
(3 1.49662e-16 0)
(3 4.14507e-16 0)
(3 6.71538e-16 0)
(3 5.21766e-16 0)
(3 2.89966e-16 0)
(3 1.92608e-16 0)
(3 -2.27065e-16 0)
(3 -6.41997e-16 0)
(3 -5.96901e-16 0)
(3 -1.50581e-17 0)
(3 1.47369e-15 0)
(3 1.66542e-15 0)
(3 1.1541e-15 0)
(3 7.69277e-16 0)
(3 9.3541e-16 0)
(3 1.6357e-16 0)
(3 -1.43971e-15 0)
(3 -2.90315e-15 0)
(3 -1.97715e-15 0)
(3 -1.45337e-15 0)
(3 -9.44054e-16 0)
(3 -5.80831e-16 0)
(3 1.42601e-16 0)
(3 1.71783e-15 0)
(3 1.99072e-15 0)
(3 1.88717e-15 0)
(3 8.71832e-16 0)
(3 3.98535e-16 0)
(3 9.2914e-16 0)
(3 1.50453e-15 0)
(3 1.88039e-15 0)
(3 1.50263e-15 0)
(3 1.54718e-15 0)
(3 2.00048e-15 0)
(3 2.4446e-15 0)
(3 1.79696e-15 0)
(3 -4.07018e-16 0)
(3 -1.27253e-15 0)
(3 -8.37976e-16 0)
(3 -8.49527e-16 0)
(3 7.51192e-17 0)
(3 4.0822e-16 0)
(3 1.0712e-15 0)
(3 2.37463e-15 0)
(3 2.97648e-15 0)
(3 7.72545e-16 0)
(3 -6.55157e-16 0)
(3 -1.12955e-15 0)
(3 -8.41855e-16 0)
(3 -1.71346e-15 0)
(3 -1.91287e-15 0)
(3 -2.88951e-15 0)
(3 -3.65995e-15 0)
(3 -3.20584e-15 0)
(3 -1.34917e-15 0)
(3 -1.24097e-15 0)
(3 -2.18305e-15 0)
(3 -2.73892e-15 0)
(3 -4.03723e-15 0)
(3 -3.90052e-15 0)
(3 -3.57662e-15 0)
(3 -3.3452e-15 0)
(3 -2.7001e-15 0)
(3 -2.24123e-15 0)
(3 -2.41964e-15 0)
(3 -1.88464e-15 0)
(3 -4.78609e-16 0)
(3 -2.14845e-16 0)
(3 -2.80234e-16 0)
(3 -2.25979e-16 0)
(3 -2.78666e-16 0)
(3 -6.88924e-16 0)
(3 -1.97299e-15 0)
(3 -2.89764e-15 0)
(3 -3.16076e-15 0)
(3 -2.34243e-15 0)
(3 -2.87854e-16 0)
(3 2.92598e-16 0)
(3 1.76877e-16 0)
(3 -9.39547e-17 0)
(3 -2.24136e-16 0)
(3 -3.58813e-16 0)
(3 3.1968e-16 0)
(3 1.75201e-15 0)
(3 1.80219e-15 0)
(3 1.16051e-15 0)
(3 -2.91935e-17 0)
(3 -1.62704e-15 0)
(3 -2.00769e-15 0)
(3 -3.05647e-15 0)
(3 -3.66009e-15 0)
(3 -2.88604e-15 0)
(3 -1.72914e-15 0)
(3 -2.08083e-15 0)
(3 -7.15938e-17 0)
(3 2.50945e-17 0)
(3 3.82751e-16 0)
(3 2.1707e-16 0)
(3 4.84826e-16 0)
(3 1.00515e-15 0)
(3 8.48014e-16 0)
(3 -3.2578e-16 0)
(3 -4.0724e-16 0)
(3 -3.39697e-16 0)
(3 -8.68115e-16 0)
(3 -6.3034e-16 0)
(3 -6.50577e-17 0)
(3 8.07655e-18 0)
(3 -6.35738e-16 0)
(3 -8.31129e-16 0)
(3 -6.84525e-16 0)
(3 -3.79642e-16 0)
(3 -1.48118e-15 0)
(3 -1.08746e-15 0)
(3 1.2895e-16 0)
(3 9.76378e-17 0)
(3 2.40517e-16 0)
(3 2.88583e-16 0)
(3 8.48062e-17 0)
(3 5.27427e-16 0)
(3 1.8707e-15 0)
(3 9.00659e-16 0)
(3 4.09487e-16 0)
(3 -3.47483e-16 0)
(3 -5.30601e-16 0)
(3 -8.42416e-16 0)
(3 9.79695e-18 0)
(3 1.52718e-15 0)
(3 2.11779e-15 0)
(3 1.87564e-15 0)
(3 1.21807e-15 0)
(3 7.05943e-16 0)
(3 -2.12843e-16 0)
(3 -3.19206e-15 0)
(3 -4.05753e-15 0)
(3 -3.95033e-15 0)
(3 -3.06335e-15 0)
(3 -1.8927e-15 0)
(3 -2.42369e-16 0)
(3 1.19457e-15 0)
(3 1.90381e-15 0)
(3 1.37805e-15 0)
(3 3.13553e-16 0)
(3 5.83546e-16 0)
(3 -2.44728e-16 0)
(3 -1.09824e-15 0)
(3 -1.6744e-15 0)
(3 -2.17946e-15 0)
(3 -2.85817e-15 0)
(3 -3.43598e-15 0)
(3 -3.75592e-15 0)
(3 -3.60683e-15 0)
(3 -3.71527e-15 0)
(3 -4.78441e-15 0)
(3 -4.56324e-15 0)
(3 -3.18363e-15 0)
(3 -1.09864e-15 0)
(3 -9.33836e-16 0)
(3 -6.50144e-16 0)
(3 -1.61832e-16 0)
(3 6.61794e-16 0)
(3 1.58266e-15 0)
(3 1.79574e-15 0)
(3 1.40591e-15 0)
(3 7.81373e-16 0)
(3 1.09554e-16 0)
(3 -6.85246e-16 0)
(3 -2.59704e-15 0)
(3 -3.31528e-15 0)
(3 -3.01448e-15 0)
(3 -2.58034e-15 0)
(3 -1.77716e-15 0)
(3 -1.3999e-15 0)
(3 -1.16414e-15 0)
(3 -1.03617e-15 0)
(3 -9.60726e-16 0)
(3 -6.41416e-16 0)
(3 -3.60772e-16 0)
(3 -4.56883e-16 0)
(3 -5.01662e-16 0)
(3 -4.87386e-16 0)
(3 6.73306e-16 0)
(3 1.64157e-15 0)
(3 5.94345e-16 0)
(3 -1.3871e-15 0)
(3 -2.20443e-15 0)
(3 -2.45693e-15 0)
(3 -2.14971e-15 0)
(3 -2.83109e-15 0)
(3 -2.56819e-15 0)
(3 4.88676e-17 0)
(3 2.47795e-16 0)
(3 -4.32203e-16 0)
(3 -6.01072e-16 0)
(3 -5.66452e-16 0)
(3 -8.71783e-16 0)
(3 -6.9327e-16 0)
(3 -4.06433e-16 0)
(3 -5.37868e-16 0)
(3 -3.65548e-16 0)
(3 4.11731e-17 0)
(3 -1.91959e-16 0)
(3 -1.10607e-15 0)
(3 -1.90774e-15 0)
(3 -2.38163e-15 0)
(3 -1.91638e-15 0)
(3 -4.40372e-16 0)
(3 -4.55378e-18 0)
(3 -8.59957e-16 0)
(3 -4.15633e-16 0)
(3 2.72239e-16 0)
(3 8.48132e-16 0)
(3 9.35658e-16 0)
(3 5.571e-16 0)
(3 3.21464e-17 0)
(3 -2.94249e-16 0)
(3 -4.12774e-17 0)
(3 -4.5921e-16 0)
(3 -4.51536e-16 0)
(3 -1.12961e-15 0)
(3 -2.46444e-15 0)
(3 -2.67867e-15 0)
(3 -2.50617e-15 0)
(3 -2.20579e-15 0)
(3 -1.04126e-15 0)
(3 4.08415e-16 0)
(3 7.19891e-16 0)
(3 5.96285e-16 0)
(3 1.61241e-17 0)
(3 -1.22315e-15 0)
(3 -1.32118e-15 0)
(3 -1.31232e-15 0)
(3 -1.70674e-15 0)
(3 -5.72289e-16 0)
(3 6.80513e-17 0)
(3 -2.92021e-16 0)
(3 8.72362e-16 0)
(3 2.13644e-15 0)
(3 1.87164e-15 0)
(3 4.63493e-16 0)
(3 -9.73687e-16 0)
(3 -1.26211e-15 0)
(3 -1.49633e-15 0)
(3 -1.86126e-15 0)
(3 -1.88071e-15 0)
(3 -1.85475e-15 0)
(3 -2.43765e-15 0)
(3 -2.66587e-15 0)
(3 -3.09827e-15 0)
(3 -3.75116e-15 0)
(3 -4.11914e-15 0)
(3 -2.31467e-15 0)
(3 -1.75946e-15 0)
(3 -1.7224e-15 0)
(3 -1.83182e-15 0)
(3 4.34828e-17 0)
(3 2.09427e-15 0)
(3 3.29294e-15 0)
(3 3.2968e-15 0)
(3 1.58155e-15 0)
(3 1.0726e-15 0)
(3 1.3201e-15 0)
(3 7.57586e-16 0)
(3 3.74829e-16 0)
(3 -8.49253e-17 0)
(3 1.24655e-16 0)
(3 2.49099e-16 0)
(3 2.5876e-17 0)
(3 -1.6214e-15 0)
(3 -2.36487e-15 0)
(3 -2.95191e-15 0)
(3 -2.36974e-15 0)
(3 -2.15137e-15 0)
(3 -2.01123e-15 0)
(3 -1.80011e-15 0)
(3 -1.66803e-15 0)
(3 -1.1145e-15 0)
(3 6.72204e-17 0)
(3 9.8673e-16 0)
(3 3.51584e-16 0)
(3 4.28735e-16 0)
(3 -3.25059e-16 0)
(3 -1.07112e-15 0)
(3 -1.94842e-15 0)
(3 -2.96299e-15 0)
(3 -2.81321e-15 0)
(3 -5.37533e-17 0)
(3 -9.89691e-17 0)
(3 -5.30529e-16 0)
(3 -7.03764e-16 0)
(3 -9.79122e-16 0)
(3 -1.53971e-15 0)
(3 -1.03794e-15 0)
(3 -4.7594e-16 0)
(3 -2.32217e-16 0)
(3 -1.0405e-16 0)
(3 2.79371e-16 0)
(3 -2.67741e-16 0)
(3 -9.57099e-16 0)
(3 -1.9761e-15 0)
(3 -1.93747e-15 0)
(3 -1.82779e-15 0)
(3 -1.53693e-15 0)
(3 -2.1085e-15 0)
(3 -1.7482e-15 0)
(3 -9.56422e-16 0)
(3 -1.08986e-15 0)
(3 -8.97498e-16 0)
(3 -1.26986e-15 0)
(3 -2.11489e-15 0)
(3 -2.4408e-15 0)
(3 -2.76939e-15 0)
(3 -3.11275e-15 0)
(3 -3.35758e-15 0)
(3 -3.53737e-15 0)
(3 -3.07423e-15 0)
(3 -2.36369e-15 0)
(3 -1.74951e-15 0)
(3 -2.02764e-15 0)
(3 -3.38003e-15 0)
(3 -4.94643e-15 0)
(3 -3.285e-15 0)
(3 -1.4679e-15 0)
(3 -2.53179e-16 0)
(3 1.89297e-16 0)
(3 -2.48794e-16 0)
(3 -7.02317e-16 0)
(3 -6.12635e-16 0)
(3 -6.22207e-16 0)
(3 -4.94844e-16 0)
(3 -9.99937e-16 0)
(3 -2.83386e-16 0)
(3 -5.21907e-17 0)
(3 -6.77839e-16 0)
(3 -6.11662e-16 0)
(3 -1.10438e-15 0)
(3 -2.0248e-15 0)
(3 -2.84459e-15 0)
(3 -2.1952e-15 0)
(3 -1.875e-15 0)
(3 -1.14782e-15 0)
(3 -1.05772e-15 0)
(3 -6.81004e-16 0)
(3 -7.59212e-16 0)
(3 -1.47476e-15 0)
(3 -2.03716e-15 0)
(3 -2.56351e-15 0)
(3 -8.53909e-16 0)
(3 -2.81478e-16 0)
(3 -1.63239e-16 0)
(3 2.41844e-16 0)
(3 -6.93499e-16 0)
(3 -4.22691e-16 0)
(3 1.0646e-15 0)
(3 1.56502e-15 0)
(3 1.90663e-15 0)
(3 1.71554e-15 0)
(3 9.02868e-16 0)
(3 1.55666e-15 0)
(3 2.74934e-15 0)
(3 2.95335e-15 0)
(3 2.66163e-15 0)
(3 2.29706e-15 0)
(3 1.24766e-15 0)
(3 -7.58519e-16 0)
(3 -2.76316e-15 0)
(3 -3.69443e-15 0)
(3 -3.02639e-15 0)
(3 -2.96561e-15 0)
(3 -2.59867e-15 0)
(3 -7.4516e-16 0)
(3 -9.00211e-16 0)
(3 7.0179e-18 0)
(3 4.53662e-17 0)
(3 -2.32636e-16 0)
(3 -7.76935e-16 0)
(3 -6.97626e-16 0)
(3 1.24286e-16 0)
(3 -2.78042e-16 0)
(3 -4.80212e-16 0)
(3 -7.35765e-16 0)
(3 -1.47672e-15 0)
(3 1.24948e-16 0)
(3 7.6365e-17 0)
(3 -1.06597e-16 0)
(3 -1.99024e-16 0)
(3 -3.21881e-16 0)
(3 -4.24355e-16 0)
(3 -2.00219e-16 0)
(3 1.06904e-16 0)
(3 7.03457e-16 0)
(3 1.00822e-15 0)
(3 8.09496e-16 0)
(3 6.42903e-16 0)
(3 9.3074e-16 0)
(3 8.81648e-16 0)
(3 -8.08626e-16 0)
(3 -1.45436e-15 0)
(3 -1.36787e-15 0)
(3 -5.05584e-16 0)
(3 2.96215e-16 0)
(3 1.24407e-16 0)
(3 -2.53936e-16 0)
(3 -1.53261e-15 0)
(3 -2.50362e-15 0)
(3 -2.7173e-15 0)
(3 -2.85932e-15 0)
(3 -3.13746e-15 0)
(3 -3.93832e-15 0)
(3 -4.35782e-15 0)
(3 -3.70358e-15 0)
(3 -2.38717e-15 0)
(3 -8.07387e-16 0)
(3 -7.73692e-16 0)
(3 -6.63246e-16 0)
(3 -1.0356e-15 0)
(3 -1.98604e-15 0)
(3 -2.60994e-15 0)
(3 -2.22888e-15 0)
(3 -1.46036e-15 0)
(3 -1.15942e-15 0)
(3 -1.13156e-15 0)
(3 -1.12128e-15 0)
(3 -6.56291e-16 0)
(3 -3.78078e-16 0)
(3 -6.75729e-16 0)
(3 -1.14889e-15 0)
(3 -8.6986e-16 0)
(3 -1.21634e-15 0)
(3 -3.38053e-15 0)
(3 -3.54047e-15 0)
(3 -2.04621e-15 0)
(3 -1.85095e-15 0)
(3 -2.041e-15 0)
(3 -2.39923e-15 0)
(3 -2.35802e-15 0)
(3 -1.37495e-15 0)
(3 -1.31064e-15 0)
(3 -1.71278e-15 0)
(3 -1.55771e-15 0)
(3 -1.45864e-15 0)
(3 -1.91098e-15 0)
(3 -2.35163e-15 0)
(3 -2.21409e-15 0)
(3 -1.91828e-15 0)
(3 -2.05424e-15 0)
(3 -2.13774e-15 0)
(3 -2.2899e-15 0)
(3 -6.02648e-16 0)
(3 8.54657e-16 0)
(3 1.89753e-15 0)
(3 2.59663e-15 0)
(3 2.47118e-15 0)
(3 1.72298e-15 0)
(3 1.85987e-15 0)
(3 3.54044e-15 0)
(3 4.40604e-15 0)
(3 3.72022e-15 0)
(3 2.62184e-15 0)
(3 1.31031e-15 0)
(3 5.83117e-16 0)
(3 -1.43712e-15 0)
(3 -2.38957e-15 0)
(3 -2.10012e-15 0)
(3 -9.11821e-16 0)
(3 -7.0305e-16 0)
(3 -1.49812e-15 0)
(3 -2.31197e-15 0)
(3 -2.99089e-15 0)
(3 -2.39878e-15 0)
(3 -1.25998e-15 0)
(3 1.05141e-15 0)
(3 1.31114e-15 0)
(3 8.78787e-16 0)
(3 2.16282e-16 0)
(3 3.73143e-16 0)
(3 9.24798e-16 0)
(3 8.33875e-16 0)
(3 5.10674e-17 0)
(3 1.60234e-16 0)
(3 6.71444e-17 0)
(3 1.48272e-16 0)
(3 1.48951e-16 0)
(3 9.55042e-17 0)
(3 -2.85003e-17 0)
(3 -6.39537e-17 0)
(3 5.9942e-16 0)
(3 1.52395e-15 0)
(3 1.36637e-15 0)
(3 1.08177e-15 0)
(3 1.57597e-15 0)
(3 1.74763e-15 0)
(3 9.7512e-16 0)
(3 -1.06522e-15 0)
(3 -6.346e-16 0)
(3 1.12579e-15 0)
(3 1.11824e-15 0)
(3 7.46239e-16 0)
(3 3.70997e-16 0)
(3 5.22723e-18 0)
(3 -1.18705e-16 0)
(3 -1.32204e-16 0)
(3 -5.97289e-16 0)
(3 -1.34228e-15 0)
(3 -1.69577e-15 0)
(3 -4.55013e-16 0)
(3 -1.06249e-17 0)
(3 2.66931e-16 0)
(3 6.35613e-17 0)
(3 2.92341e-17 0)
(3 -4.78736e-16 0)
(3 -3.00598e-16 0)
(3 -3.56935e-17 0)
(3 -1.91625e-16 0)
(3 -1.69289e-17 0)
(3 4.92583e-17 0)
(3 -3.27868e-16 0)
(3 -6.40045e-16 0)
(3 -1.02461e-15 0)
(3 -7.23223e-16 0)
(3 -6.94657e-16 0)
(3 -1.92522e-15 0)
(3 -1.84988e-15 0)
(3 -2.28129e-15 0)
(3 -2.16703e-15 0)
(3 -1.76837e-15 0)
(3 -2.17251e-15 0)
(3 -8.92448e-16 0)
(3 -3.01126e-16 0)
(3 -1.88195e-16 0)
(3 -1.12541e-15 0)
(3 -1.62371e-15 0)
(3 -1.55033e-15 0)
(3 -2.17079e-15 0)
(3 -2.91103e-15 0)
(3 -1.78816e-15 0)
(3 -4.29927e-16 0)
(3 5.26495e-16 0)
(3 4.60426e-16 0)
(3 -2.73006e-15 0)
(3 -2.65182e-15 0)
(3 -2.53263e-15 0)
(3 -1.47402e-15 0)
(3 -8.49274e-16 0)
(3 2.45937e-16 0)
(3 1.01285e-15 0)
(3 1.7477e-15 0)
(3 1.2373e-15 0)
(3 1.18681e-15 0)
(3 1.78865e-15 0)
(3 2.4923e-15 0)
(3 2.91765e-15 0)
(3 2.68488e-15 0)
(3 2.9852e-15 0)
(3 2.37059e-15 0)
(3 1.36973e-15 0)
(3 8.46831e-17 0)
(3 -1.05432e-15 0)
(3 -1.70618e-15 0)
(3 -2.4534e-15 0)
(3 -5.25005e-16 0)
(3 -1.1455e-16 0)
(3 -8.06122e-16 0)
(3 -1.45062e-15 0)
(3 -2.30445e-15 0)
(3 -2.86071e-15 0)
(3 -2.56995e-15 0)
(3 -4.31573e-16 0)
(3 1.18816e-15 0)
(3 2.03442e-16 0)
(3 -4.38806e-16 0)
(3 -5.30842e-16 0)
(3 4.52186e-16 0)
(3 8.29512e-16 0)
(3 -1.63186e-16 0)
(3 -1.33753e-16 0)
(3 6.0917e-17 0)
(3 1.87914e-16 0)
(3 -8.87037e-18 0)
(3 -8.54405e-18 0)
(3 -2.08218e-17 0)
(3 -8.76284e-18 0)
(3 6.6723e-17 0)
(3 1.09198e-15 0)
(3 4.26297e-16 0)
(3 -7.43364e-16 0)
(3 -7.93784e-16 0)
(3 -8.93681e-17 0)
(3 6.82977e-16 0)
(3 -2.20361e-16 0)
(3 4.59983e-16 0)
(3 6.48093e-16 0)
(3 8.92792e-16 0)
(3 1.36893e-15 0)
(3 1.72551e-15 0)
(3 1.15058e-15 0)
(3 1.29983e-15 0)
(3 1.10971e-15 0)
(3 7.26926e-16 0)
(3 3.3192e-16 0)
(3 3.11421e-16 0)
(3 1.33946e-15 0)
(3 1.47966e-15 0)
(3 1.00304e-15 0)
(3 1.05692e-15 0)
(3 1.8659e-15 0)
(3 1.59685e-15 0)
(3 1.35622e-15 0)
(3 1.23965e-15 0)
(3 1.31426e-15 0)
(3 1.18496e-15 0)
(3 1.12452e-15 0)
(3 8.20636e-16 0)
(3 3.31544e-16 0)
(3 -3.28088e-16 0)
(3 -7.99425e-16 0)
(3 -8.32356e-16 0)
(3 -1.0534e-15 0)
(3 -2.0644e-15 0)
(3 -2.3496e-15 0)
(3 -2.03547e-15 0)
(3 -5.71481e-16 0)
(3 4.96512e-16 0)
(3 6.45275e-16 0)
(3 5.55631e-16 0)
(3 -4.725e-16 0)
(3 -1.21986e-15 0)
(3 -1.81019e-15 0)
(3 -2.48492e-15 0)
(3 -1.95231e-15 0)
(3 -1.62805e-15 0)
(3 -9.03685e-16 0)
(3 7.94725e-16 0)
(3 2.21609e-15 0)
(3 2.04808e-15 0)
(3 1.25061e-15 0)
(3 -2.89522e-16 0)
(3 -1.25179e-15 0)
(3 -8.79862e-16 0)
(3 -1.82976e-16 0)
(3 -5.66157e-16 0)
(3 -1.1044e-15 0)
(3 -1.67355e-15 0)
(3 -9.25067e-16 0)
(3 -5.31458e-16 0)
(3 5.29737e-16 0)
(3 2.21717e-15 0)
(3 2.54917e-15 0)
(3 1.02519e-15 0)
(3 1.11303e-15 0)
(3 1.51223e-15 0)
(3 1.82927e-15 0)
(3 2.13712e-15 0)
(3 2.83537e-15 0)
(3 2.76431e-15 0)
(3 2.36879e-15 0)
(3 -3.48193e-16 0)
(3 -1.80634e-15 0)
(3 -1.35845e-15 0)
(3 -1.32924e-15 0)
(3 -1.11124e-15 0)
(3 -1.78954e-15 0)
(3 -2.22943e-15 0)
(3 -2.47485e-15 0)
(3 -2.66245e-15 0)
(3 -1.69447e-15 0)
(3 -1.6005e-15 0)
(3 -2.40821e-15 0)
(3 -2.45946e-15 0)
(3 -2.30646e-15 0)
(3 1.91426e-16 0)
(3 1.7971e-16 0)
(3 2.15919e-16 0)
(3 2.51635e-16 0)
(3 1.24481e-16 0)
(3 3.63386e-17 0)
(3 -1.32093e-16 0)
(3 2.4319e-17 0)
(3 8.32602e-17 0)
(3 -3.42777e-16 0)
(3 -6.23477e-16 0)
(3 -9.48947e-16 0)
(3 -1.5061e-15 0)
(3 -7.05197e-16 0)
(3 -5.18236e-17 0)
(3 5.24051e-16 0)
(3 3.82565e-16 0)
(3 3.09036e-17 0)
(3 -2.07946e-16 0)
(3 4.23661e-16 0)
(3 1.28987e-15 0)
(3 1.68382e-15 0)
(3 1.73854e-15 0)
(3 1.01081e-15 0)
(3 6.52667e-16 0)
(3 2.42765e-16 0)
(3 3.84902e-16 0)
(3 4.15561e-16 0)
(3 1.49802e-15 0)
(3 1.674e-15 0)
(3 2.05277e-15 0)
(3 2.55657e-15 0)
(3 3.43656e-15 0)
(3 3.77911e-15 0)
(3 3.38938e-15 0)
(3 2.61921e-15 0)
(3 1.91698e-15 0)
(3 1.85692e-15 0)
(3 1.53611e-15 0)
(3 9.96344e-16 0)
(3 8.18986e-16 0)
(3 -5.35832e-17 0)
(3 -4.64416e-16 0)
(3 -7.63097e-16 0)
(3 -1.1883e-15 0)
(3 -1.56582e-15 0)
(3 -2.10522e-15 0)
(3 -1.49836e-15 0)
(3 -8.39427e-16 0)
(3 -7.93103e-16 0)
(3 -5.91669e-16 0)
(3 -8.74855e-16 0)
(3 -1.4306e-15 0)
(3 -1.49123e-15 0)
(3 -2.99487e-15 0)
(3 -2.70099e-15 0)
(3 -1.76746e-15 0)
(3 -7.20539e-16 0)
(3 7.22362e-16 0)
(3 1.89259e-15 0)
(3 3.00746e-15 0)
(3 4.05278e-15 0)
(3 4.27052e-15 0)
(3 1.61221e-15 0)
(3 1.71234e-15 0)
(3 1.07014e-15 0)
(3 3.94309e-16 0)
(3 -7.43456e-16 0)
(3 -1.33968e-15 0)
(3 -8.7598e-16 0)
(3 -1.52365e-18 0)
(3 5.35005e-16 0)
(3 1.20672e-15 0)
(3 6.12205e-16 0)
(3 4.47794e-16 0)
(3 7.8456e-16 0)
(3 1.58869e-15 0)
(3 1.94198e-15 0)
(3 2.40855e-15 0)
(3 3.43676e-15 0)
(3 4.82332e-15 0)
(3 4.65087e-15 0)
(3 2.55115e-15 0)
(3 1.01531e-15 0)
(3 3.7605e-16 0)
(3 2.50004e-16 0)
(3 -1.71062e-15 0)
(3 -1.34923e-15 0)
(3 -1.59178e-15 0)
(3 -3.42824e-15 0)
(3 -4.98568e-15 0)
(3 -4.64082e-15 0)
(3 -2.94097e-15 0)
(3 -2.88588e-15 0)
(3 -3.41994e-15 0)
(3 -3.36477e-15 0)
(3 -2.26492e-17 0)
(3 -3.8881e-17 0)
(3 3.27493e-16 0)
(3 2.20098e-16 0)
(3 3.84757e-16 0)
(3 3.14084e-16 0)
(3 1.84069e-16 0)
(3 -5.05565e-17 0)
(3 7.61883e-16 0)
(3 6.15679e-16 0)
(3 5.7164e-16 0)
(3 7.25786e-16 0)
(3 8.25961e-16 0)
(3 -1.48404e-15 0)
(3 -1.03766e-15 0)
(3 4.55842e-16 0)
(3 1.45669e-15 0)
(3 1.78574e-15 0)
(3 1.52207e-15 0)
(3 1.07265e-15 0)
(3 1.05058e-15 0)
(3 1.5741e-15 0)
(3 1.19695e-15 0)
(3 5.91678e-16 0)
(3 3.61191e-16 0)
(3 -2.44937e-16 0)
(3 6.20894e-16 0)
(3 4.98083e-16 0)
(3 1.05082e-15 0)
(3 2.22407e-15 0)
(3 2.57262e-15 0)
(3 2.53752e-15 0)
(3 3.68148e-15 0)
(3 4.20274e-15 0)
(3 4.62089e-15 0)
(3 4.5979e-15 0)
(3 3.79905e-15 0)
(3 1.68233e-15 0)
(3 8.24191e-16 0)
(3 3.6054e-16 0)
(3 8.01246e-17 0)
(3 -3.79311e-16 0)
(3 -7.19845e-16 0)
(3 -3.95403e-16 0)
(3 5.11112e-16 0)
(3 2.59513e-16 0)
(3 -1.01983e-15 0)
(3 -1.73035e-15 0)
(3 -1.63255e-15 0)
(3 -1.69636e-15 0)
(3 -1.25884e-15 0)
(3 7.41119e-17 0)
(3 8.192e-17 0)
(3 -9.39692e-16 0)
(3 -3.16733e-15 0)
(3 -3.25133e-15 0)
(3 -2.89466e-15 0)
(3 -1.35197e-15 0)
(3 -1.02152e-15 0)
(3 -3.11103e-16 0)
(3 1.0789e-15 0)
(3 2.8712e-15 0)
(3 3.4531e-15 0)
(3 3.53396e-15 0)
(3 3.16866e-15 0)
(3 3.31619e-15 0)
(3 2.85229e-15 0)
(3 1.50574e-15 0)
(3 8.34332e-16 0)
(3 7.29526e-16 0)
(3 1.11182e-15 0)
(3 8.41589e-16 0)
(3 4.33935e-16 0)
(3 8.12997e-16 0)
(3 1.99919e-15 0)
(3 1.94265e-15 0)
(3 1.5832e-15 0)
(3 2.03763e-15 0)
(3 2.43535e-15 0)
(3 1.87303e-15 0)
(3 2.02967e-15 0)
(3 1.95488e-15 0)
(3 1.44516e-15 0)
(3 1.83778e-15 0)
(3 2.25463e-15 0)
(3 3.05521e-15 0)
(3 2.05061e-15 0)
(3 -1.09571e-15 0)
(3 -4.02471e-15 0)
(3 -4.47034e-15 0)
(3 -4.08094e-15 0)
(3 -4.19931e-15 0)
(3 -4.15671e-15 0)
(3 -2.97444e-15 0)
(3 -2.79559e-15 0)
(3 -1.93617e-15 0)
(3 3.11974e-19 0)
(3 1.78864e-17 0)
(3 -3.86407e-17 0)
(3 1.25467e-17 0)
(3 3.32782e-16 0)
(3 1.10055e-15 0)
(3 1.27074e-15 0)
(3 9.69042e-16 0)
(3 7.40206e-16 0)
(3 1.65706e-15 0)
(3 2.14068e-15 0)
(3 2.74785e-15 0)
(3 3.07943e-15 0)
(3 1.95937e-15 0)
(3 1.00951e-15 0)
(3 1.15138e-15 0)
(3 1.7754e-15 0)
(3 2.08019e-15 0)
(3 1.80584e-15 0)
(3 1.54369e-15 0)
(3 1.46548e-15 0)
(3 1.62728e-15 0)
(3 1.29773e-15 0)
(3 7.35176e-16 0)
(3 5.47213e-16 0)
(3 1.06302e-15 0)
(3 1.40316e-15 0)
(3 1.22379e-15 0)
(3 1.28462e-15 0)
(3 1.26711e-15 0)
(3 2.15257e-15 0)
(3 2.18978e-15 0)
(3 1.76199e-15 0)
(3 1.77252e-15 0)
(3 1.86675e-15 0)
(3 2.05021e-15 0)
(3 1.64311e-15 0)
(3 5.98202e-16 0)
(3 -3.65643e-16 0)
(3 -5.27952e-16 0)
(3 -1.12344e-15 0)
(3 -1.18467e-15 0)
(3 -8.90594e-16 0)
(3 -4.10697e-16 0)
(3 -2.21867e-16 0)
(3 1.26793e-16 0)
(3 -2.26597e-16 0)
(3 -1.32579e-15 0)
(3 -2.11312e-15 0)
(3 -1.56628e-15 0)
(3 -1.52422e-15 0)
(3 -1.04166e-15 0)
(3 -1.25863e-16 0)
(3 2.95967e-16 0)
(3 2.62974e-16 0)
(3 -5.95407e-16 0)
(3 -9.39459e-16 0)
(3 -3.06864e-16 0)
(3 3.16078e-17 0)
(3 9.03747e-16 0)
(3 1.22976e-15 0)
(3 1.92173e-15 0)
(3 2.16023e-15 0)
(3 3.69818e-15 0)
(3 3.15937e-15 0)
(3 2.57446e-15 0)
(3 2.27482e-15 0)
(3 1.79409e-15 0)
(3 1.33969e-15 0)
(3 1.17024e-15 0)
(3 1.00114e-15 0)
(3 8.54047e-16 0)
(3 6.06514e-16 0)
(3 6.56547e-16 0)
(3 5.24805e-16 0)
(3 2.67488e-16 0)
(3 -4.34551e-16 0)
(3 -9.93549e-16 0)
(3 -1.49207e-15 0)
(3 -9.01506e-16 0)
(3 2.09947e-16 0)
(3 -1.28282e-16 0)
(3 -2.57279e-16 0)
(3 1.89728e-15 0)
(3 3.09848e-15 0)
(3 2.82238e-15 0)
(3 1.82924e-15 0)
(3 -7.70957e-16 0)
(3 -2.17386e-15 0)
(3 -3.49303e-15 0)
(3 -3.43906e-15 0)
(3 -3.45685e-15 0)
(3 -3.60177e-15 0)
(3 -3.6523e-15 0)
(3 -2.764e-15 0)
(3 -1.37371e-15 0)
(3 6.04082e-17 0)
(3 2.66228e-16 0)
(3 -5.48923e-17 0)
(3 3.11387e-16 0)
(3 6.06061e-16 0)
(3 1.13694e-15 0)
(3 1.53503e-15 0)
(3 1.3834e-15 0)
(3 7.68857e-16 0)
(3 4.75438e-16 0)
(3 8.23422e-16 0)
(3 2.46756e-15 0)
(3 2.76002e-15 0)
(3 3.58138e-15 0)
(3 3.33079e-15 0)
(3 2.72509e-15 0)
(3 2.45714e-15 0)
(3 1.94526e-15 0)
(3 2.0243e-15 0)
(3 2.33496e-15 0)
(3 3.14951e-15 0)
(3 3.10721e-15 0)
(3 3.02724e-15 0)
(3 3.28435e-15 0)
(3 3.50376e-15 0)
(3 3.88646e-15 0)
(3 3.00705e-15 0)
(3 2.14376e-15 0)
(3 2.10221e-15 0)
(3 7.41678e-16 0)
(3 -1.28384e-18 0)
(3 -5.5143e-16 0)
(3 -8.44494e-16 0)
(3 -5.27344e-16 0)
(3 -2.58417e-16 0)
(3 -3.7667e-16 0)
(3 -6.5747e-16 0)
(3 -2.24872e-16 0)
(3 -4.37132e-16 0)
(3 -1.10129e-15 0)
(3 -9.13207e-16 0)
(3 -1.12651e-15 0)
(3 -1.12616e-15 0)
(3 -1.24685e-15 0)
(3 -1.60875e-15 0)
(3 -1.54854e-15 0)
(3 -1.27952e-15 0)
(3 -6.13716e-16 0)
(3 -2.26769e-16 0)
(3 -6.77524e-16 0)
(3 1.86217e-16 0)
(3 3.75506e-16 0)
(3 3.74141e-16 0)
(3 4.83538e-16 0)
(3 9.64204e-16 0)
(3 1.70752e-15 0)
(3 1.16844e-15 0)
(3 3.34905e-16 0)
(3 1.01281e-16 0)
(3 9.72371e-16 0)
(3 1.7586e-15 0)
(3 2.93729e-15 0)
(3 3.83775e-15 0)
(3 3.31357e-15 0)
(3 2.01124e-15 0)
(3 1.21071e-15 0)
(3 6.08452e-16 0)
(3 9.72217e-16 0)
(3 1.91795e-15 0)
(3 1.87864e-15 0)
(3 1.22752e-15 0)
(3 9.24284e-16 0)
(3 9.55182e-16 0)
(3 8.53462e-16 0)
(3 1.19364e-15 0)
(3 1.36404e-16 0)
(3 -1.61474e-16 0)
(3 -1.09632e-15 0)
(3 -9.74444e-16 0)
(3 -5.85364e-16 0)
(3 -1.75407e-15 0)
(3 -3.24101e-15 0)
(3 -3.98438e-15 0)
(3 -3.09108e-15 0)
(3 -1.03385e-15 0)
(3 -2.86876e-16 0)
(3 1.10059e-16 0)
(3 9.80815e-17 0)
(3 7.80325e-16 0)
(3 -2.8756e-16 0)
(3 -2.79234e-15 0)
(3 -2.76246e-15 0)
(3 -2.83462e-15 0)
(3 -2.74543e-15 0)
(3 -2.57815e-15 0)
(3 -2.03632e-15 0)
(3 -1.43589e-17 0)
(3 4.68743e-17 0)
(3 3.38728e-16 0)
(3 1.94222e-16 0)
(3 2.88572e-16 0)
(3 2.2689e-16 0)
(3 3.49699e-16 0)
(3 3.58866e-16 0)
(3 -2.21598e-16 0)
(3 -1.23542e-15 0)
(3 -1.67199e-15 0)
(3 -4.69647e-16 0)
(3 -1.63451e-16 0)
(3 7.40635e-16 0)
(3 2.92813e-15 0)
(3 3.56733e-15 0)
(3 3.00694e-15 0)
(3 2.47679e-15 0)
(3 2.55557e-15 0)
(3 2.56224e-15 0)
(3 2.39031e-15 0)
(3 2.6688e-15 0)
(3 2.19016e-15 0)
(3 2.34135e-15 0)
(3 2.93493e-15 0)
(3 3.21807e-15 0)
(3 3.21527e-15 0)
(3 2.35864e-15 0)
(3 6.58694e-16 0)
(3 3.82535e-16 0)
(3 3.89296e-16 0)
(3 -3.69053e-16 0)
(3 -8.38117e-16 0)
(3 -9.2527e-16 0)
(3 -7.85677e-16 0)
(3 -5.39657e-16 0)
(3 -1.39529e-16 0)
(3 -3.36795e-16 0)
(3 -4.69151e-16 0)
(3 -1.65619e-16 0)
(3 1.26334e-15 0)
(3 1.20583e-15 0)
(3 2.43745e-16 0)
(3 -4.98596e-16 0)
(3 -1.15972e-15 0)
(3 -1.53288e-15 0)
(3 -7.59672e-16 0)
(3 9.31616e-16 0)
(3 1.13022e-15 0)
(3 1.46937e-15 0)
(3 1.98357e-15 0)
(3 1.93772e-15 0)
(3 1.38544e-15 0)
(3 6.18781e-16 0)
(3 8.77418e-16 0)
(3 1.1436e-15 0)
(3 -5.1711e-16 0)
(3 -1.47669e-15 0)
(3 -1.79179e-15 0)
(3 -1.71003e-15 0)
(3 -6.54701e-16 0)
(3 6.45546e-16 0)
(3 2.37773e-15 0)
(3 1.08861e-15 0)
(3 8.76406e-16 0)
(3 1.54733e-15 0)
(3 1.74295e-15 0)
(3 2.19152e-15 0)
(3 2.95062e-15 0)
(3 2.66942e-15 0)
(3 2.39421e-15 0)
(3 2.15375e-15 0)
(3 1.77505e-15 0)
(3 2.0439e-15 0)
(3 2.01946e-15 0)
(3 -3.889e-16 0)
(3 -1.66289e-15 0)
(3 -1.76744e-15 0)
(3 -1.68889e-15 0)
(3 -1.88326e-15 0)
(3 -2.83383e-15 0)
(3 -4.01439e-15 0)
(3 -4.68721e-15 0)
(3 -6.17623e-15 0)
(3 -5.74851e-15 0)
(3 -6.30706e-15 0)
(3 -3.61354e-15 0)
(3 -1.74893e-15 0)
(3 -2.18198e-16 0)
(3 7.90294e-17 0)
(3 -3.24856e-17 0)
(3 -4.49728e-16 0)
(3 -3.223e-15 0)
(3 -2.95314e-15 0)
(3 -2.61494e-15 0)
(3 -2.9349e-15 0)
(3 9.96506e-17 0)
(3 -3.75239e-17 0)
(3 -3.94225e-17 0)
(3 -1.42096e-16 0)
(3 -3.88626e-16 0)
(3 -6.90895e-16 0)
(3 -1.15237e-15 0)
(3 -8.54988e-16 0)
(3 -1.19083e-15 0)
(3 -2.51509e-15 0)
(3 -2.85728e-15 0)
(3 -2.8198e-15 0)
(3 -2.4859e-15 0)
(3 -1.52765e-15 0)
(3 -1.07875e-16 0)
(3 8.20718e-16 0)
(3 1.81959e-15 0)
(3 2.63587e-15 0)
(3 2.42968e-15 0)
(3 1.58407e-15 0)
(3 -1.94312e-16 0)
(3 -8.57916e-16 0)
(3 -1.7948e-15 0)
(3 -2.07638e-15 0)
(3 -1.66983e-15 0)
(3 -1.05645e-15 0)
(3 -1.58807e-16 0)
(3 2.94907e-16 0)
(3 6.39284e-17 0)
(3 4.50409e-16 0)
(3 1.17493e-15 0)
(3 1.57058e-15 0)
(3 4.84434e-16 0)
(3 -9.37183e-16 0)
(3 -1.09997e-15 0)
(3 -9.39827e-16 0)
(3 -4.7582e-17 0)
(3 -3.32498e-16 0)
(3 -5.04177e-16 0)
(3 -8.23122e-16 0)
(3 -3.05088e-16 0)
(3 4.62786e-17 0)
(3 -2.73523e-17 0)
(3 -1.68627e-16 0)
(3 -7.05291e-16 0)
(3 -8.57558e-16 0)
(3 -8.90303e-16 0)
(3 -1.38106e-16 0)
(3 1.18117e-15 0)
(3 2.09172e-15 0)
(3 1.65846e-15 0)
(3 1.06053e-15 0)
(3 7.0292e-16 0)
(3 1.03433e-15 0)
(3 2.12377e-15 0)
(3 1.55441e-16 0)
(3 -9.41004e-16 0)
(3 -5.15989e-16 0)
(3 -2.30444e-17 0)
(3 7.17982e-16 0)
(3 1.60066e-15 0)
(3 1.81263e-15 0)
(3 2.49301e-15 0)
(3 2.68206e-15 0)
(3 3.01323e-15 0)
(3 2.98062e-15 0)
(3 3.96919e-15 0)
(3 4.41238e-15 0)
(3 3.57092e-15 0)
(3 3.36833e-15 0)
(3 3.94697e-15 0)
(3 3.2262e-15 0)
(3 1.95455e-15 0)
(3 5.66344e-16 0)
(3 -5.74125e-16 0)
(3 -1.37442e-15 0)
(3 -1.55413e-15 0)
(3 -2.1069e-15 0)
(3 -3.19176e-15 0)
(3 -3.78565e-15 0)
(3 -3.42624e-15 0)
(3 -3.37767e-15 0)
(3 -3.66133e-15 0)
(3 -4.08927e-15 0)
(3 -5.43034e-15 0)
(3 -5.04662e-15 0)
(3 -4.09311e-15 0)
(3 -3.50645e-15 0)
(3 -2.98666e-15 0)
(3 -1.57015e-15 0)
(3 3.66505e-16 0)
(3 9.0486e-16 0)
(3 1.4651e-16 0)
(3 -6.71093e-16 0)
(3 -1.23054e-15 0)
(3 -1.27383e-15 0)
(3 1.73188e-18 0)
(3 -1.29738e-16 0)
(3 -3.5731e-16 0)
(3 -2.09861e-16 0)
(3 5.74559e-17 0)
(3 -5.1537e-16 0)
(3 -1.04271e-15 0)
(3 -1.04595e-15 0)
(3 -8.67267e-16 0)
(3 -7.94295e-16 0)
(3 -8.80446e-16 0)
(3 -8.66352e-16 0)
(3 -5.1294e-16 0)
(3 -6.16448e-16 0)
(3 -7.53642e-16 0)
(3 -3.04973e-16 0)
(3 -4.60203e-16 0)
(3 2.11216e-16 0)
(3 1.38183e-16 0)
(3 -1.26366e-16 0)
(3 -8.17186e-16 0)
(3 -2.50722e-15 0)
(3 -3.73936e-15 0)
(3 -3.8955e-15 0)
(3 -3.92959e-15 0)
(3 -4.28999e-15 0)
(3 -2.64423e-15 0)
(3 -8.83273e-16 0)
(3 -7.57298e-16 0)
(3 -5.10385e-16 0)
(3 -5.64988e-16 0)
(3 -5.22998e-16 0)
(3 -8.11799e-16 0)
(3 -1.34587e-15 0)
(3 -2.9582e-15 0)
(3 -3.32394e-15 0)
(3 -2.67949e-15 0)
(3 -1.81228e-15 0)
(3 -1.39914e-15 0)
(3 -2.47268e-15 0)
(3 -3.80163e-15 0)
(3 -3.53736e-15 0)
(3 -2.62754e-15 0)
(3 -2.21824e-15 0)
(3 -1.54815e-15 0)
(3 -7.69972e-16 0)
(3 -7.43584e-16 0)
(3 -2.24974e-16 0)
(3 2.01496e-15 0)
(3 2.14007e-15 0)
(3 1.71646e-15 0)
(3 2.67474e-15 0)
(3 3.91854e-15 0)