/*--------------------------------*- C++ -*----------------------------------*\
  =========                 |
  \\      /  F ield         | OpenFOAM: The Open Source CFD Toolbox
   \\    /   O peration     | Website:  https://openfoam.org
    \\  /    A nd           | Version:  7
     \\/     M anipulation  |
\*---------------------------------------------------------------------------*/
FoamFile
{
    version     2.0;
    format      ascii;
    class       volScalarField;
    location    "3.9";
    object      p;
}
// * * * * * * * * * * * * * * * * * * * * * * * * * * * * * * * * * * * * * //

dimensions      [1 -1 -2 0 0 0 0];

internalField   nonuniform List<scalar> 
73728
(
1
1
1
1
1
1
1
1
1
1
1
1
1
1
1
1
1
1
1
1
1
1
1
1
1
1
1
1
1
1
1
1
1
1
1
1
1
1
1
1
1
1
1
1
1
1
1
1
1
1
1
1
1
1
1
1
1
1
1
1
1
1.97774
9.13136
11.3064
11.3469
11.448
11.5827
11.6962
11.747
11.7863
11.8197
11.8395
11.8372
11.8088
11.7465
11.6554
11.5845
11.5688
11.6062
11.676
11.764
11.8716
11.9624
12.0319
12.0984
12.1497
12.1765
12.1698
12.1294
12.0562
11.9913
11.9769
12.0246
12.1412
12.2983
12.3799
1
1
1
1
1
1
1
1
1
1
1
1
1
1
1
1
1
1
1
1
1
1
1
1
1
1
1
1
1
1
1
1
1
1
1
1
1
1
1
1
1
1
1
1
1
1
1
1
1
1
1
1
1
1
1
1
1
1
1
1
1
1.96837
9.11386
11.3039
11.3478
11.4513
11.5867
11.6987
11.7488
11.7878
11.8203
11.8387
11.8355
11.8068
11.7442
11.6526
11.5822
11.5677
11.6062
11.6764
11.7657
11.8738
11.9631
12.0309
12.095
12.1442
12.1702
12.1636
12.123
12.0504
11.9807
11.9537
12.0025
12.0951
12.249
12.3624
1
1
1
1
1
1
1
1
1
1
1
1
1
1
1
1
1
1
1
1
1
1
1
1
1
1
1
1
1
1
1
1
1
1
1
1
1
1
1
1
1
1
1
1
1
1
1
1
1
1
1
1
1
1
1
1
1
1
1
1
1
1.94738
9.08107
11.3029
11.35
11.4563
11.5926
11.7021
11.7507
11.7894
11.8205
11.8372
11.833
11.8036
11.7401
11.6477
11.5781
11.5654
11.6058
11.6765
11.7676
11.8765
11.9644
12.0288
12.0882
12.1347
12.16
12.1536
12.1126
12.0399
11.9631
11.9199
11.9623
12.0487
12.1833
12.2885
1
1
1
1
1
1
1
1
1
1
1
1
1
1
1
1
1
1
1
1
1
1
1
1
1
1
1
1
1
1
1
1
1
1
1
1
1
1
1
1
1
1
1
1
1
1
1
1
1
1
1
1
1
1
1
1
1
1
1
1
1
1.9158
9.03105
11.3026
11.3542
11.4646
11.6027
11.7081
11.7543
11.7915
11.8204
11.8348
11.8294
11.799
11.734
11.6404
11.5721
11.5623
11.6052
11.6764
11.7705
11.8807
11.9668
12.0267
12.0794
12.1209
12.1441
12.1382
12.097
12.0228
11.9409
11.8877
11.9215
12.0028
12.1133
12.216
1
1
1
1
1
1
1
1
1
1
1
1
1
1
1
1
1
1
1
1
1
1
1
1
1
1
1
1
1
1
1
1
1
1
1
1
1
1
1
1
1
1
1
1
1
1
1
1
1
1
1
1
1
1
1
1
1
1
1
1
1
1.87508
8.96452
11.3026
11.3605
11.4763
11.6161
11.7156
11.7587
11.7938
11.8199
11.8316
11.8249
11.793
11.7257
11.6306
11.5646
11.559
11.6043
11.6765
11.7745
11.8862
11.9699
12.0251
12.0701
12.1038
12.1228
12.1172
12.0765
11.9999
11.9155
11.864
11.8913
11.9639
12.0591
12.1519
1
1
1
1
1
1
1
1
1
1
1
1
1
1
1
1
1
1
1
1
1
1
1
1
1
1
1
1
1
1
1
1
1
1
1
1
1
1
1
1
1
1
1
1
1
1
1
1
1
1
1
1
1
1
1
1
1
1
1
1
1
1.826
8.8817
11.3039
11.3699
11.4919
11.6323
11.7238
11.7637
11.7963
11.8189
11.8275
11.8192
11.7853
11.7151
11.619
11.5568
11.5561
11.6035
11.6773
11.78
11.8932
11.974
12.0242
12.0609
12.0851
12.0973
12.0902
12.0493
11.9705
11.8878
11.847
11.8727
11.9378
12.0248
12.1078
1
1
1
1
1
1
1
1
1
1
1
1
1
1
1
1
1
1
1
1
1
1
1
1
1
1
1
1
1
1
1
1
1
1
1
1
1
1
1
1
1
1
1
1
1
1
1
1
1
1
1
1
1
1
1
1
1
1
1
1
1
1.76942
8.78305
11.3068
11.3833
11.5116
11.6502
11.7319
11.7691
11.7987
11.8176
11.8226
11.8123
11.7756
11.702
11.6062
11.5495
11.5545
11.6026
11.6787
11.7869
11.9015
11.9787
12.024
12.0526
12.0667
12.07
12.0577
12.0135
11.9332
11.8579
11.8318
11.8595
11.9224
12.0054
12.082
1
1
1
1
1
1
1
1
1
1
1
1
1
1
1
1
1
1
1
1
1
1
1
1
1
1
1
1
1
1
1
1
1
1
1
1
1
1
1
1
1
1
1
1
1
1
1
1
1
1
1
1
1
1
1
1
1
1
1
1
1
1.70658
8.6692
11.312
11.4011
11.5351
11.6688
11.7398
11.775
11.8011
11.8161
11.8168
11.8034
11.7632
11.6861
11.5928
11.5437
11.5549
11.6023
11.681
11.7951
11.9101
11.9832
12.0242
12.0458
12.0499
12.0436
12.0218
11.9692
11.8866
11.8231
11.8126
11.8456
11.911
11.9936
12.0684
1
1
1
1
1
1
1
1
1
1
1
1
1
1
1
1
1
1
1
1
1
1
1
1
1
1
1
1
1
1
1
1
1
1
1
1
1
1
1
1
1
1
1
1
1
1
1
1
1
1
1
1
1
1
1
1
1
1
1
1
1
1.63898
8.54148
11.3203
11.4239
11.5619
11.6872
11.748
11.7816
11.804
11.8139
11.8098
11.7923
11.7477
11.6672
11.5792
11.5403
11.5574
11.6035
11.6851
11.8044
11.9176
11.9863
12.0235
12.0401
12.0361
12.0201
11.9859
11.92
11.8331
11.782
11.785
11.8251
11.8957
11.9815
12.0589
1
1
1
1
1
1
1
1
1
1
1
1
1
1
1
1
1
1
1
1
1
1
1
1
1
1
1
1
1
1
1
1
1
1
1
1
1
1
1
1
1
1
1
1
1
1
1
1
1
1
1
1
1
1
1
1
1
1
1
1
1
1.56813
8.40131
11.3322
11.4519
11.5911
11.7048
11.7564
11.7889
11.8073
11.811
11.8011
11.7784
11.7283
11.645
11.5662
11.54
11.5619
11.6079
11.6926
11.8146
11.9225
11.9864
12.0208
12.0343
12.0246
12.0002
11.9533
11.8716
11.7784
11.7384
11.7503
11.7951
11.8704
11.9616
12.0445
1
1
1
1
1
1
1
1
1
1
1
1
1
1
1
1
1
1
1
1
1
1
1
1
1
1
1
1
1
1
1
1
1
1
1
1
1
1
1
1
1
1
1
1
1
1
1
1
1
1
1
1
1
1
1
1
1
1
1
1
1
1.49555
8.2505
11.3485
11.4852
11.6213
11.7212
11.7651
11.7968
11.8105
11.8074
11.791
11.7616
11.7045
11.6199
11.5543
11.543
11.5684
11.6168
11.7047
11.826
11.9243
11.9821
12.0146
12.0265
12.0137
11.9825
11.9239
11.8274
11.7301
11.6994
11.7142
11.7596
11.8364
11.9316
12.0184
1
1
1
1
1
1
1
1
1
1
1
1
1
1
1
1
1
1
1
1
1
1
1
1
1
1
1
1
1
1
1
1
1
1
1
1
1
1
1
1
1
1
1
1
1
1
1
1
1
1
1
1
1
1
1
1
1
1
1
1
1
1.42265
8.0911
11.3699
11.5229
11.6511
11.7361
11.7739
11.8048
11.8133
11.803
11.7799
11.7419
11.6757
11.5933
11.5437
11.548
11.5774
11.631
11.7224
11.8391
11.9236
11.9733
12.0031
12.0142
12.0008
11.9648
11.8955
11.7871
11.6924
11.6708
11.6849
11.727
11.8027
11.8983
11.9819
1
1
1
1
1
1
1
1
1
1
1
1
1
1
1
1
1
1
1
1
1
1
1
1
1
1
1
1
1
1
1
1
1
1
1
1
1
1
1
1
1
1
1
1
1
1
1
1
1
1
1
1
1
1
1
1
1
1
1
1
1
1.35086
7.92546
11.3971
11.564
11.6793
11.7494
11.7829
11.8116
11.815
11.7984
11.768
11.7194
11.6424
11.5663
11.5351
11.5533
11.5894
11.6506
11.7459
11.8546
11.9221
11.9613
11.9861
11.9956
11.9829
11.9433
11.8642
11.7491
11.6663
11.6525
11.6666
11.7068
11.7797
11.8724
11.9455
1
1
1
1
1
1
1
1
1
1
1
1
1
1
1
1
1
1
1
1
1
1
1
1
1
1
1
1
1
1
1
1
1
1
1
1
1
1
1
1
1
1
1
1
1
1
1
1
1
1
1
1
1
1
1
1
1
1
1
1
1
1.2815
7.75592
11.4301
11.6065
11.7055
11.762
11.7914
11.8165
11.8153
11.7933
11.7554
11.6944
11.6065
11.5411
11.529
11.5582
11.6034
11.6744
11.7748
11.8724
11.9217
11.9486
11.9656
11.9709
11.9574
11.9134
11.8251
11.7111
11.6489
11.6421
11.6581
11.6996
11.7722
11.8609
11.9198
1
1
1
1
1
1
1
1
1
1
1
1
1
1
1
1
1
1
1
1
1
1
1
1
1
1
1
1
1
1
1
1
1
1
1
1
1
1
1
1
1
1
1
1
1
1
1
1
1
1
1
1
1
1
1
1
1
1
1
1
1
1.21583
7.58484
11.4678
11.6477
11.7301
11.7745
11.7988
11.8193
11.8135
11.7871
11.7415
11.6666
11.5716
11.5205
11.5256
11.5625
11.6178
11.7016
11.8076
11.891
11.923
11.9376
11.9452
11.943
11.9235
11.8712
11.7737
11.6725
11.6349
11.6348
11.6562
11.702
11.7779
11.8619
11.9082
1
1
1
1
1
1
1
1
1
1
1
1
1
1
1
1
1
1
1
1
1
1
1
1
1
1
1
1
1
1
1
1
1
1
1
1
1
1
1
1
1
1
1
1
1
1
1
1
1
1
1
1
1
1
1
1
1
1
1
1
1
1.155
7.41412
11.5078
11.6855
11.7539
11.7869
11.8049
11.8196
11.8091
11.7788
11.7249
11.6362
11.5415
11.5083
11.5244
11.5661
11.6325
11.7313
11.8405
11.9073
11.9256
11.93
11.9276
11.9155
11.8842
11.8171
11.7106
11.6339
11.6177
11.6263
11.6569
11.7124
11.7932
11.8715
11.9078
1
1
1
1
1
1
1
1
1
1
1
1
1
1
1
1
1
1
1
1
1
1
1
1
1
1
1
1
1
1
1
1
1
1
1
1
1
1
1
1
1
1
1
1
1
1
1
1
1
1
1
1
1
1
1
1
1
1
1
1
1
1.09997
7.24514
11.5464
11.7185
11.7767
11.8
11.8098
11.8174
11.8013
11.7671
11.7039
11.6043
11.5203
11.5045
11.525
11.5704
11.6492
11.7624
11.8683
11.9177
11.9282
11.925
11.9136
11.89
11.8437
11.757
11.6466
11.5967
11.5943
11.6126
11.6551
11.7237
11.8114
11.8831
11.9121
1
1
1
1
1
1
1
1
1
1
1
1
1
1
1
1
1
1
1
1
1
1
1
1
1
1
1
1
1
1
1
1
1
1
1
1
1
1
1
1
1
1
1
1
1
1
1
1
1
1
1
1
1
1
1
1
1
1
1
1
1
1.05204
7.07824
11.5787
11.7468
11.7978
11.8146
11.8139
11.8121
11.79
11.7506
11.6765
11.5733
11.5099
11.5072
11.5284
11.5786
11.6705
11.7928
11.8862
11.9213
11.9281
11.9206
11.9021
11.867
11.8031
11.6973
11.5926
11.564
11.5689
11.5947
11.648
11.7303
11.8236
11.8886
11.9136
1
1
1
1
1
1
1
1
1
1
1
1
1
1
1
1
1
1
1
1
1
1
1
1
1
1
1
1
1
1
1
1
1
1
1
1
1
1
1
1
1
1
1
1
1
1
1
1
1
1
1
1
1
1
1
1
1
1
1
1
1
1.01538
6.91188
11.6003
11.773
11.8175
11.8298
11.8164
11.805
11.776
11.7275
11.6415
11.5467
11.5095
11.5137
11.5366
11.5946
11.6987
11.8203
11.8927
11.9171
11.922
11.9133
11.8902
11.8445
11.7608
11.642
11.5565
11.5411
11.5491
11.5797
11.6406
11.7329
11.8259
11.8822
11.9042
1
1
1
1
1
1
1
1
1
1
1
1
1
1
1
1
1
1
1
1
1
1
1
1
1
1
1
1
1
1
1
1
1
1
1
1
1
1
1
1
1
1
1
1
1
1
1
1
1
1
1
1
1
1
1
1
1
1
1
1
1
1.00002
6.74159
11.6097
11.7997
11.8357
11.8436
11.8185
11.7975
11.7588
11.6962
11.6009
11.527
11.5139
11.5221
11.5519
11.6214
11.7353
11.8428
11.8897
11.9046
11.9078
11.8989
11.872
11.8144
11.7159
11.5973
11.5395
11.5302
11.5395
11.5731
11.6401
11.7358
11.8203
11.8639
11.8812
1
1
1
1
1
1
1
1
1
1
1
1
1
1
1
1
1
1
1
1
1
1
1
1
1
1
1
1
1
1
1
1
1
1
1
1
1
1
1
1
1
1
1
1
1
1
1
1
1
1
1
1
1
1
1
1
1
1
1
1
1
1
6.5707
11.6127
11.8272
11.852
11.8551
11.8209
11.7894
11.7376
11.6567
11.5602
11.5142
11.5169
11.5328
11.5746
11.6602
11.7785
11.8589
11.8819
11.8886
11.8881
11.8761
11.8422
11.7742
11.6657
11.566
11.5346
11.5286
11.5401
11.5783
11.6524
11.747
11.8143
11.842
11.8509
1
1
1
1
1
1
1
1
1
1
1
1
1
1
1
1
1
1
1
1
1
1
1
1
1
1
1
1
1
1
1
1
1
1
1
1
1
1
1
1
1
1
1
1
1
1
1
1
1
1
1
1
1
1
1
1
1
1
1
1
1
1
6.40514
11.6159
11.8537
11.8653
11.8642
11.8228
11.7794
11.7112
11.6116
11.5262
11.5079
11.5176
11.5442
11.604
11.7095
11.8216
11.869
11.8755
11.8738
11.8659
11.8459
11.8032
11.7211
11.6111
11.5471
11.5328
11.5321
11.5498
11.5979
11.6803
11.7676
11.8125
11.8244
11.8216
1
1
1
1
1
1
1
1
1
1
1
1
1
1
1
1
1
1
1
1
1
1
1
1
1
1
1
1
1
1
1
1
1
1
1
1
1
1
1
1
1
1
1
1
1
1
1
1
1
1
1
1
1
1
1
1
1
1
1
1
1
1
6.24603
11.6197
11.8771
11.8755
11.8692
11.8221
11.7665
11.6795
11.5679
11.5045
11.5025
11.5168
11.5568
11.6401
11.763
11.8549
11.8757
11.8729
11.8624
11.8434
11.8104
11.7523
11.6539
11.5606
11.5315
11.5271
11.5352
11.565
11.6273
11.7168
11.789
11.8131
11.8123
11.7983
1
1
1
1
1
1
1
1
1
1
1
1
1
1
1
1
1
1
1
1
1
1
1
1
1
1
1
1
1
1
1
1
1
1
1
1
1
1
1
1
1
1
1
1
1
1
1
1
1
1
1
1
1
1
1
1
1
1
1
1
1
1
6.09359
11.6262
11.8957
11.8816
11.8682
11.816
11.7479
11.6433
11.5336
11.4947
11.4965
11.5164
11.5739
11.6827
11.8107
11.8736
11.8803
11.8721
11.8535
11.8221
11.773
11.6918
11.5813
11.5202
11.5105
11.5143
11.534
11.5798
11.6587
11.7506
11.8029
11.8123
11.803
11.7798
1
1
1
1
1
1
1
1
1
1
1
1
1
1
1
1
1
1
1
1
1
1
1
1
1
1
1
1
1
1
1
1
1
1
1
1
1
1
1
1
1
1
1
1
1
1
1
1
1
1
1
1
1
1
1
1
1
1
1
1
1
1
5.94664
11.6361
11.9095
11.882
11.8611
11.8031
11.7206
11.6043
11.5126
11.4916
11.4931
11.5219
11.6001
11.7286
11.843
11.8801
11.8814
11.8696
11.8441
11.8011
11.7324
11.6274
11.5204
11.4886
11.4859
11.4969
11.5293
11.5931
11.6875
11.7723
11.8068
11.8073
11.7916
11.7609
1
1
1
1
1
1
1
1
1
1
1
1
1
1
1
1
1
1
1
1
1
1
1
1
1
1
1
1
1
1
1
1
1
1
1
1
1
1
1
1
1
1
1
1
1
1
1
1
1
1
1
1
1
1
1
1
1
1
1
1
1
1
5.8032
11.65
11.92
11.8758
11.8486
11.7814
11.6834
11.5657
11.5029
11.4899
11.4961
11.5388
11.638
11.7723
11.8579
11.8777
11.8763
11.8616
11.8298
11.7753
11.6855
11.5657
11.483
11.465
11.4644
11.4816
11.5262
11.6082
11.7107
11.7791
11.7986
11.7934
11.7725
11.7354
1
1
1
1
1
1
1
1
1
1
1
1
1
1
1
1
1
1
1
1
1
1
1
1
1
1
1
1
1
1
1
1
1
1
1
1
1
1
1
1
1
1
1
1
1
1
1
1
1
1
1
1
1
1
1
1
1
1
1
1
1
1
5.66325
11.6635
11.9291
11.8646
11.8309
11.751
11.6381
11.532
11.4969
11.4898
11.5068
11.5688
11.686
11.8082
11.8605
11.8683
11.8637
11.8454
11.8078
11.7395
11.6297
11.5134
11.4633
11.4495
11.4516
11.475
11.5333
11.6301
11.7255
11.7704
11.7773
11.7676
11.7421
11.6993
1
1
1
1
1
1
1
1
1
1
1
1
1
1
1
1
1
1
1
1
1
1
1
1
1
1
1
1
1
1
1
1
1
1
1
1
1
1
1
1
1
1
1
1
1
1
1
1
1
1
1
1
1
1
1
1
1
1
1
1
1
1
5.52549
11.6717
11.9355
11.8532
11.8095
11.712
11.5894
11.5062
11.4891
11.4917
11.5243
11.609
11.7377
11.8347
11.8591
11.8565
11.8452
11.8209
11.7742
11.6884
11.5663
11.476
11.4511
11.4413
11.4486
11.4828
11.5587
11.6606
11.7313
11.7516
11.7479
11.7316
11.7003
11.6505
1
1
1
1
1
1
1
1
1
1
1
1
1
1
1
1
1
1
1
1
1
1
1
1
1
1
1
1
1
1
1
1
1
1
1
1
1
1
1
1
1
1
1
1
1
1
1
1
1
1
1
1
1
1
1
1
1
1
1
1
1
1
5.38793
11.6712
11.939
11.8426
11.7849
11.6683
11.5454
11.4873
11.4793
11.4942
11.5464
11.6545
11.786
11.8538
11.8592
11.8462
11.8246
11.7895
11.7269
11.6209
11.5035
11.4528
11.4386
11.437
11.455
11.5089
11.6028
11.694
11.733
11.733
11.7177
11.6911
11.6501
11.5887
1
1
1
1
1
1
1
1
1
1
1
1
1
1
1
1
1
1
1
1
1
1
1
1
1
1
1
1
1
1
1
1
1
1
1
1
1
1
1
1
1
1
1
1
1
1
1
1
1
1
1
1
1
1
1
1
1
1
1
1
1
1
5.24964
11.6606
11.9388
11.8307
11.7572
11.6259
11.5122
11.4724
11.4698
11.4976
11.5714
11.7003
11.8247
11.8684
11.8612
11.8391
11.8057
11.7539
11.6673
11.5444
11.4525
11.4303
11.4241
11.4341
11.4716
11.5511
11.6557
11.7222
11.7344
11.7198
11.6918
11.6535
11.5986
11.5193
1
1
1
1
1
1
1
1
1
1
1
1
1
1
1
1
1
1
1
1
1
1
1
1
1
1
1
1
1
1
1
1
1
1
1
1
1
1
1
1
1
1
1
1
1
1
1
1
1
1
1
1
1
1
1
1
1
1
1
1
1
1
5.11082
11.6387
11.934
11.8151
11.7274
11.5895
11.4915
11.4611
11.4632
11.5037
11.5982
11.7413
11.8518
11.8775
11.863
11.8337
11.7885
11.7153
11.6009
11.4743
11.4164
11.4041
11.4075
11.4337
11.4969
11.6018
11.702
11.7403
11.7349
11.709
11.6715
11.6216
11.5498
11.4496
1
1
1
1
1
1
1
1
1
1
1
1
1
1
1
1
1
1
1
1
1
1
1
1
1
1
1
1
1
1
1
1
1
1
1
1
1
1
1
1
1
1
1
1
1
1
1
1
1
1
1
1
1
1
1
1
1
1
1
1
1
1
4.97249
11.6055
11.9235
11.7944
11.6972
11.5604
11.4817
11.4553
11.4623
11.5147
11.6261
11.7742
11.867
11.8807
11.862
11.8271
11.7689
11.6721
11.5355
11.4235
11.3895
11.3799
11.3935
11.4388
11.5298
11.6512
11.7313
11.7469
11.7306
11.6977
11.6527
11.5911
11.4999
11.3854
1
1
1
1
1
1
1
1
1
1
1
1
1
1
1
1
1
1
1
1
1
1
1
1
1
1
1
1
1
1
1
1
1
1
1
1
1
1
1
1
1
1
1
1
1
1
1
1
1
1
1
1
1
1
1
1
1
1
1
1
1
1
4.83501
11.5629
11.9062
11.7712
11.6669
11.5378
11.4788
11.4558
11.469
11.5324
11.6555
11.7982
11.8716
11.8771
11.8558
11.8152
11.7429
11.6232
11.4788
11.3941
11.3704
11.3646
11.3878
11.4539
11.5694
11.6898
11.7426
11.7426
11.7195
11.6818
11.6293
11.553
11.4425
11.3326
1
1
1
1
1
1
1
1
1
1
1
1
1
1
1
1
1
1
1
1
1
1
1
1
1
1
1
1
1
1
1
1
1
1
1
1
1
1
1
1
1
1
1
1
1
1
1
1
1
1
1
1
1
1
1
1
1
1
1
1
1
1
4.6978
11.5129
11.8847
11.7455
11.6357
11.5206
11.4785
11.4616
11.483
11.5574
11.6872
11.8155
11.8686
11.8665
11.8422
11.7945
11.7073
11.5696
11.4353
11.3802
11.3594
11.3603
11.3957
11.4841
11.6141
11.7131
11.7396
11.7289
11.7003
11.657
11.5939
11.4985
11.3778
11.2962
1
1
1
1
1
1
1
1
1
1
1
1
1
1
1
1
1
1
1
1
1
1
1
1
1
1
1
1
1
1
1
1
1
1
1
1
1
1
1
1
1
1
1
1
1
1
1
1
1
1
1
1
1
1
1
1
1
1
1
1
1
1
4.56002
11.4582
11.8629
11.7171
11.6039
11.5072
11.4781
11.4698
11.502
11.5886
11.7215
11.8293
11.8627
11.8514
11.8213
11.7647
11.6617
11.5151
11.4056
11.3724
11.3562
11.367
11.4206
11.5306
11.6589
11.7248
11.7291
11.709
11.6733
11.6207
11.5408
11.4256
11.3162
11.2691
1
1
1
1
1
1
1
1
1
1
1
1
1
1
1
1
1
1
1
1
1
1
1
1
1
1
1
1
1
1
1
1
1
1
1
1
1
1
1
1
1
1
1
1
1
1
1
1
1
1
1
1
1
1
1
1
1
1
1
1
1
1
4.4208
11.4011
11.8422
11.6869
11.5731
11.4954
11.4762
11.4781
11.5236
11.6239
11.7565
11.8422
11.8583
11.8363
11.7974
11.728
11.6087
11.4645
11.3865
11.3651
11.3588
11.3835
11.4593
11.5865
11.6972
11.7316
11.7189
11.6884
11.6425
11.574
11.4704
11.345
11.2682
11.2395
1
1
1
1
1
1
1
1
1
1
1
1
1
1
1
1
1
1
1
1
1
1
1
1
1
1
1
1
1
1
1
1
1
1
1
1
1
1
1
1
1
1
1
1
1
1
1
1
1
1
1
1
1
1
1
1
1
1
1
1
1
1
4.27987
11.341
11.8216
11.6581
11.5449
11.4843
11.4725
11.4859
11.5464
11.6608
11.7892
11.8543
11.8559
11.8242
11.7745
11.6886
11.554
11.4224
11.3724
11.3569
11.3634
11.406
11.505
11.6404
11.726
11.7363
11.7119
11.6717
11.6119
11.5201
11.3913
11.2762
11.2306
11.2083
1
1
1
1
1
1
1
1
1
1
1
1
1
1
1
1
1
1
1
1
1
1
1
1
1
1
1
1
1
1
1
1
1
1
1
1
1
1
1
1
1
1
1
1
1
1
1
1
1
1
1
1
1
1
1
1
1
1
1
1
1
1
4.13666
11.2755
11.8006
11.6313
11.5206
11.4749
11.4689
11.4937
11.57
11.6971
11.8165
11.864
11.8536
11.815
11.7537
11.65
11.5049
11.3924
11.3591
11.3499
11.3685
11.4309
11.5502
11.6829
11.7442
11.7387
11.7069
11.6579
11.5809
11.4609
11.318
11.2304
11.1991
11.183
1
1
1
1
1
1
1
1
1
1
1
1
1
1
1
1
1
1
1
1
1
1
1
1
1
1
1
1
1
1
1
1
1
1
1
1
1
1
1
1
1
1
1
1
1
1
1
1
1
1
1
1
1
1
1
1
1
1
1
1
1
1
3.9916
11.2011
11.7782
11.6065
11.5021
11.4697
11.4677
11.5032
11.5956
11.7313
11.8367
11.8684
11.8494
11.8059
11.7336
11.6138
11.4661
11.3755
11.3487
11.3457
11.3759
11.4566
11.59
11.7113
11.7518
11.7368
11.7006
11.6422
11.5445
11.3987
11.2626
11.204
11.1762
11.1695
1
1
1
1
1
1
1
1
1
1
1
1
1
1
1
1
1
1
1
1
1
1
1
1
1
1
1
1
1
1
1
1
1
1
1
1
1
1
1
1
1
1
1
1
1
1
1
1
1
1
1
1
1
1
1
1
1
1
1
1
1
1
3.84711
11.118
11.7524
11.5828
11.4904
11.4682
11.4708
11.5175
11.6248
11.7626
11.849
11.8663
11.8415
11.794
11.7119
11.5797
11.4387
11.3697
11.3441
11.3472
11.3881
11.4835
11.6227
11.7264
11.75
11.7287
11.6886
11.6187
11.4983
11.3382
11.2278
11.1878
11.1645
11.1687
1
1
1
1
1
1
1
1
1
1
1
1
1
1
1
1
1
1
1
1
1
1
1
1
1
1
1
1
1
1
1
1
1
1
1
1
1
1
1
1
1
1
1
1
1
1
1
1
1
1
1
1
1
1
1
1
1
1
1
1
1
1
3.70551
11.0273
11.7218
11.5594
11.4846
11.4689
11.48
11.5392
11.6595
11.791
11.8541
11.8581
11.8295
11.7779
11.6867
11.5473
11.4215
11.3705
11.347
11.3565
11.407
11.5132
11.6498
11.732
11.7398
11.7134
11.6675
11.5833
11.4415
11.2852
11.207
11.1756
11.1619
11.1795
1
1
1
1
1
1
1
1
1
1
1
1
1
1
1
1
1
1
1
1
1
1
1
1
1
1
1
1
1
1
1
1
1
1
1
1
1
1
1
1
1
1
1
1
1
1
1
1
1
1
1
1
1
1
1
1
1
1
1
1
1
1
3.5685
10.9299
11.6868
11.5371
11.482
11.472
11.4941
11.5686
11.6996
11.8155
11.8548
11.8467
11.8143
11.7576
11.6572
11.5161
11.4113
11.3729
11.3554
11.372
11.4321
11.5468
11.6732
11.7324
11.725
11.6927
11.6379
11.5358
11.3787
11.243
11.1912
11.1652
11.1649
11.2004
1
1
1
1
1
1
1
1
1
1
1
1
1
1
1
1
1
1
1
1
1
1
1
1
1
1
1
1
1
1
1
1
1
1
1
1
1
1
1
1
1
1
1
1
1
1
1
1
1
1
1
1
1
1
1
1
1
1
1
1
1
1
3.43717
10.8277
11.6503
11.5173
11.4807
11.4765
11.5115
11.6043
11.7421
11.8363
11.8541
11.8356
11.7987
11.7346
11.6237
11.4862
11.4045
11.3733
11.3647
11.3896
11.4613
11.5835
11.6951
11.7316
11.711
11.6712
11.6028
11.4805
11.3183
11.2114
11.1755
11.1572
11.1712
11.2271
1
1
1
1
1
1
1
1
1
1
1
1
1
1
1
1
1
1
1
1
1
1
1
1
1
1
1
1
1
1
1
1
1
1
1
1
1
1
1
1
1
1
1
1
1
1
1
1
1
1
1
1
1
1
1
1
1
1
1
1
1
1
3.31136
10.7226
11.6157
11.5018
11.4785
11.481
11.5315
11.6433
11.7808
11.8529
11.8543
11.8278
11.7858
11.711
11.5884
11.4588
11.3969
11.3705
11.3712
11.4066
11.4919
11.6201
11.7148
11.7316
11.7005
11.6516
11.5665
11.4251
11.2691
11.1901
11.1609
11.1526
11.1803
11.2567
1
1
1
1
1
1
1
1
1
1
1
1
1
1
1
1
1
1
1
1
1
1
1
1
1
1
1
1
1
1
1
1
1
1
1
1
1
1
1
1
1
1
1
1
1
1
1
1
1
1
1
1
1
1
1
1
1
1
1
1
1
1
3.18998
10.6155
11.5858
11.4916
11.4757
11.4862
11.5544
11.6819
11.812
11.8644
11.8551
11.8251
11.7762
11.688
11.5543
11.4354
11.3872
11.3652
11.3745
11.4217
11.5213
11.6522
11.7298
11.7307
11.6922
11.6338
11.5317
11.3767
11.2364
11.1785
11.1519
11.1527
11.1943
11.2883
1
1
1
1
1
1
1
1
1
1
1
1
1
1
1
1
1
1
1
1
1
1
1
1
1
1
1
1
1
1
1
1
1
1
1
1
1
1
1
1
1
1
1
1
1
1
1
1
1
1
1
1
1
1
1
1
1
1
1
1
1
1
3.07167
10.5067
11.5617
11.4866
11.4736
11.4945
11.5798
11.7174
11.8348
11.8711
11.8559
11.8249
11.7684
11.6661
11.5241
11.4177
11.3774
11.359
11.376
11.4355
11.5481
11.6769
11.738
11.7261
11.6837
11.6155
11.4984
11.3385
11.2197
11.1751
11.1514
11.1608
11.2154
11.3221
1
1
1
1
1
1
1
1
1
1
1
1
1
1
1
1
1
1
1
1
1
1
1
1
1
1
1
1
1
1
1
1
1
1
1
1
1
1
1
1
1
1
1
1
1
1
1
1
1
1
1
1
1
1
1
1
1
1
1
1
1
1
2.95572
10.3954
11.5437
11.485
11.4746
11.5079
11.6072
11.7484
11.8502
11.8732
11.8561
11.8238
11.7592
11.644
11.4982
11.4062
11.3699
11.3554
11.3792
11.4498
11.5726
11.6936
11.7382
11.7172
11.6715
11.5943
11.4659
11.3103
11.2146
11.1779
11.16
11.1777
11.2434
11.358
1
1
1
1
1
1
1
1
1
1
1
1
1
1
1
1
1
1
1
1
1
1
1
1
1
1
1
1
1
1
1
1
1
1
1
1
1
1
1
1
1
1
1
1
1
1
1
1
1
1
1
1
1
1
1
1
1
1
1
1
1
1
2.84267
10.2817
11.5302
11.4846
11.4811
11.5264
11.6368
11.7749
11.8604
11.8715
11.8544
11.8188
11.7463
11.6201
11.4753
11.3995
11.366
11.3566
11.3864
11.4674
11.5965
11.7041
11.7323
11.7043
11.6548
11.5694
11.4341
11.29
11.2156
11.184
11.1742
11.1997
11.2759
11.3947
1
1
1
1
1
1
1
1
1
1
1
1
1
1
1
1
1
1
1
1
1
1
1
1
1
1
1
1
1
1
1
1
1
1
1
1
1
1
1
1
1
1
1
1
1
1
1
1
1
1
1
1
1
1
1
1
1
1
1
1
1
1
2.73402
10.1664
11.5201
11.4835
11.492
11.5493
11.6679
11.7985
11.8673
11.8684
11.8491
11.8093
11.7283
11.5926
11.4545
11.3949
11.3652
11.3621
11.3992
11.4906
11.6211
11.7115
11.7243
11.6897
11.6348
11.5419
11.4038
11.2748
11.217
11.1898
11.1881
11.2219
11.3085
11.4293
1
1
1
1
1
1
1
1
1
1
1
1
1
1
1
1
1
1
1
1
1
1
1
1
1
1
1
1
1
1
1
1
1
1
1
1
1
1
1
1
1
1
1
1
1
1
1
1
1
1
1
1
1
1
1
1
1
1
1
1
1
1
2.63173
10.0513
11.5122
11.4813
11.5049
11.5743
11.6991
11.8205
11.8732
11.8657
11.8425
11.7966
11.7055
11.5617
11.4352
11.3903
11.3663
11.3708
11.417
11.519
11.6464
11.7184
11.7174
11.6765
11.6151
11.5147
11.3762
11.2618
11.2154
11.1928
11.1978
11.2407
11.3376
11.4584
1
1
1
1
1
1
1
1
1
1
1
1
1
1
1
1
1
1
1
1
1
1
1
1
1
1
1
1
1
1
1
1
1
1
1
1
1
1
1
1
1
1
1
1
1
1
1
1
1
1
1
1
1
1
1
1
1
1
1
1
1
1
2.53718
9.93894
11.5046
11.4796
11.5177
11.5992
11.7288
11.8411
11.8792
11.8646
11.8367
11.7829
11.6801
11.5299
11.4184
11.3853
11.3677
11.3804
11.4379
11.5501
11.6706
11.7257
11.7131
11.6668
11.5984
11.4907
11.3526
11.2503
11.2105
11.192
11.2028
11.2547
11.361
11.4793
1
1
1
1
1
1
1
1
1
1
1
1
1
1
1
1
1
1
1
1
1
1
1
1
1
1
1
1
1
1
1
1
1
1
1
1
1
1
1
1
1
1
1
1
1
1
1
1
1
1
1
1
1
1
1
1
1
1
1
1
1
1
2.45083
9.83142
11.4978
11.4791
11.5299
11.6226
11.7557
11.8591
11.8846
11.8652
11.8325
11.7698
11.6547
11.5013
11.4055
11.3804
11.369
11.3898
11.4596
11.5803
11.6918
11.7324
11.711
11.6608
11.5861
11.4714
11.3332
11.2405
11.2042
11.1886
11.2046
11.2649
11.379
11.4914
1
1
1
1
1
1
1
1
1
1
1
1
1
1
1
1
1
1
1
1
1
1
1
1
1
1
1
1
1
1
1
1
1
1
1
1
1
1
1
1
1
1
1
1
1
1
1
1
1
1
1
1
1
1
1
1
1
1
1
1
1
1
2.37231
9.73012
11.4928
11.48
11.5417
11.644
11.7789
11.8731
11.8881
11.8663
11.8293
11.7579
11.6315
11.4785
11.3975
11.3765
11.3701
11.3988
11.4803
11.6071
11.7082
11.737
11.7097
11.6569
11.5768
11.4556
11.3175
11.2332
11.1986
11.1855
11.2061
11.2743
11.3936
11.4969
1
1
1
1
1
1
1
1
1
1
1
1
1
1
1
1
1
1
1
1
1
1
1
1
1
1
1
1
1
1
1
1
1
1
1
1
1
1
1
1
1
1
1
1
1
1
1
1
1
1
1
1
1
1
1
1
1
1
1
1
1
1
2.30094
9.63557
11.4904
11.4832
11.5538
11.6639
11.7979
11.8827
11.8895
11.8664
11.8258
11.7465
11.611
11.4619
11.3938
11.3747
11.3721
11.4081
11.4995
11.6296
11.7195
11.7387
11.7076
11.6531
11.5685
11.441
11.3037
11.2278
11.1945
11.1846
11.2102
11.2856
11.4075
11.4998
1
1
1
1
1
1
1
1
1
1
1
1
1
1
1
1
1
1
1
1
1
1
1
1
1
1
1
1
1
1
1
1
1
1
1
1
1
1
1
1
1
1
1
1
1
1
1
1
1
1
1
1
1
1
1
1
1
1
1
1
1
1
2.23605
9.54769
11.4903
11.4888
11.567
11.6828
11.8133
11.8884
11.8888
11.8647
11.8206
11.7346
11.5929
11.4505
11.3934
11.3756
11.3762
11.4186
11.5184
11.649
11.7272
11.7376
11.7038
11.6481
11.5591
11.4251
11.2901
11.2231
11.1917
11.1865
11.2176
11.2999
11.4225
11.5036
1
1
1
1
1
1
1
1
1
1
1
1
1
1
1
1
1
1
1
1
1
1
1
1
1
1
1
1
1
1
1
1
1
1
1
1
1
1
1
1
1
1
1
1
1
1
1
1
1
1
1
1
1
1
1
1
1
1
1
1
1
1
2.17754
9.46662
11.4916
11.4961
11.581
11.7008
11.826
11.8916
11.8866
11.8612
11.8138
11.7217
11.5759
11.4421
11.3945
11.378
11.3823
11.4307
11.5381
11.6671
11.7334
11.735
11.6989
11.6417
11.5472
11.4063
11.2758
11.2181
11.1893
11.1897
11.2269
11.3157
11.4379
11.5088
1
1
1
1
1
1
1
1
1
1
1
1
1
1
1
1
1
1
1
1
1
1
1
1
1
1
1
1
1
1
1
1
1
1
1
1
1
1
1
1
1
1
1
1
1
1
1
1
1
1
1
1
1
1
1
1
1
1
1
1
1
1
2.12569
9.39279
11.4932
11.5039
11.595
11.7175
11.8371
11.8939
11.8845
11.8573
11.8061
11.7079
11.5594
11.4348
11.395
11.3801
11.3889
11.444
11.5586
11.6848
11.7398
11.7328
11.6945
11.6349
11.533
11.3848
11.2618
11.212
11.1866
11.1925
11.236
11.3306
11.4514
11.5141
1
1
1
1
1
1
1
1
1
1
1
1
1
1
1
1
1
1
1
1
1
1
1
1
1
1
1
1
1
1
1
1
1
1
1
1
1
1
1
1
1
1
1
1
1
1
1
1
1
1
1
1
1
1
1
1
1
1
1
1
1
1
2.08078
9.32685
11.4945
11.511
11.6076
11.7322
11.8468
11.8965
11.8836
11.8542
11.7987
11.6941
11.5435
11.4275
11.3939
11.3809
11.3948
11.4569
11.5784
11.7013
11.7463
11.7317
11.6921
11.6289
11.5178
11.3629
11.2496
11.2055
11.1832
11.1941
11.2434
11.3426
11.4613
11.518
1
1
1
1
1
1
1
1
1
1
1
1
1
1
1
1
1
1
1
1
1
1
1
1
1
1
1
1
1
1
1
1
1
1
1
1
1
1
1
1
1
1
1
1
1
1
1
1
1
1
1
1
1
1
1
1
1
1
1
1
1
1
2.04297
9.26952
11.4952
11.517
11.6182
11.7442
11.8548
11.8993
11.8839
11.8527
11.7928
11.6817
11.5293
11.4211
11.3915
11.3803
11.399
11.468
11.5955
11.7152
11.7519
11.7315
11.6916
11.6242
11.5035
11.3439
11.2411
11.1998
11.1801
11.1951
11.2492
11.3513
11.4673
11.52
1
1
1
1
1
1
1
1
1
1
1
1
1
1
1
1
1
1
1
1
1
1
1
1
1
1
1
1
1
1
1
1
1
1
1
1
1
1
1
1
1
1
1
1
1
1
1
1
1
1
1
1
1
1
1
1
1
1
1
1
1
1
2.01206
9.22147
11.4959
11.522
11.6267
11.7531
11.8605
11.9017
11.8848
11.8525
11.7888
11.6718
11.5179
11.4164
11.3892
11.3794
11.4019
11.4768
11.6088
11.7251
11.7547
11.7313
11.6916
11.6203
11.4909
11.3297
11.2369
11.1964
11.1787
11.1966
11.2543
11.3581
11.4713
11.5211
1
1
1
1
1
1
1
1
1
1
1
1
1
1
1
1
1
1
1
1
1
1
1
1
1
1
1
1
1
1
1
1
1
1
1
1
1
1
1
1
1
1
1
1
1
1
1
1
1
1
1
1
1
1
1
1
1
1
1
1
1
1
1.98766
9.1832
11.4967
11.526
11.6329
11.759
11.8639
11.9031
11.8857
11.853
11.7866
11.6648
11.5099
11.4142
11.3881
11.3789
11.4039
11.4829
11.6178
11.7295
11.7539
11.7303
11.6912
11.6164
11.4807
11.3207
11.2367
11.1965
11.1799
11.1996
11.2596
11.3641
11.4752
11.5229
1
1
1
1
1
1
1
1
1
1
1
1
1
1
1
1
1
1
1
1
1
1
1
1
1
1
1
1
1
1
1
1
1
1
1
1
1
1
1
1
1
1
1
1
1
1
1
1
1
1
1
1
1
1
1
1
1
1
1
1
1
1
1.96946
9.15489
11.4978
11.5291
11.6371
11.7623
11.8651
11.9034
11.8862
11.8536
11.7855
11.6604
11.5053
11.4142
11.3887
11.3797
11.4057
11.4866
11.6225
11.73
11.7504
11.7281
11.6891
11.6122
11.473
11.316
11.2392
11.1995
11.1834
11.2038
11.265
11.3701
11.4797
11.5257
1
1
1
1
1
1
1
1
1
1
1
1
1
1
1
1
1
1
1
1
1
1
1
1
1
1
1
1
1
1
1
1
1
1
1
1
1
1
1
1
1
1
1
1
1
1
1
1
1
1
1
1
1
1
1
1
1
1
1
1
1
1
1.95774
9.13653
11.4986
11.5311
11.6396
11.7639
11.865
11.9031
11.8861
11.8541
11.7851
11.6579
11.5031
11.4157
11.3904
11.3811
11.4073
11.4889
11.6246
11.729
11.7464
11.7247
11.686
11.6084
11.4684
11.3147
11.2423
11.2034
11.1874
11.2078
11.2697
11.3753
11.4842
11.5291
1
1
1
1
1
1
1
1
1
1
1
1
1
1
1
1
1
1
1
1
1
1
1
1
1
1
1
1
1
1
1
1
1
1
1
1
1
1
1
1
1
1
1
1
1
1
1
1
1
1
1
1
1
1
1
1
1
1
1
1
1
1
1.95287
9.1275
11.4987
11.5325
11.6412
11.7647
11.8648
11.9028
11.8859
11.854
11.7844
11.6561
11.5018
11.4169
11.3919
11.3825
11.4088
11.4908
11.6262
11.7286
11.744
11.7222
11.6834
11.6056
11.4659
11.3144
11.2441
11.2058
11.1902
11.2107
11.2732
11.3794
11.488
11.5323
1
1
1
1
1
1
1
1
1
1
1
1
1
1
1
1
1
1
1
1
1
1
1
1
1
1
1
1
1
1
1
1
1
1
1
1
1
1
1
1
1
1
1
1
1
1
1
1
1
1
1
1
1
1
1
1
1
1
1
1
1
1
1.95285
9.12763
11.4988
11.5326
11.6412
11.7647
11.8648
11.9028
11.8859
11.854
11.7844
11.6561
11.5019
11.417
11.392
11.3825
11.4088
11.4908
11.6262
11.7286
11.7439
11.7222
11.6834
11.6055
11.4659
11.3144
11.2442
11.2059
11.1902
11.2107
11.2732
11.3794
11.488
11.5323
1
1
1
1
1
1
1
1
1
1
1
1
1
1
1
1
1
1
1
1
1
1
1
1
1
1
1
1
1
1
1
1
1
1
1
1
1
1
1
1
1
1
1
1
1
1
1
1
1
1
1
1
1
1
1
1
1
1
1
1
1
1
1.95769
9.13646
11.4986
11.5312
11.6396
11.7639
11.8649
11.903
11.8861
11.8541
11.7851
11.658
11.5032
11.4157
11.3904
11.3811
11.4074
11.4889
11.6246
11.729
11.7464
11.7247
11.686
11.6084
11.4684
11.3147
11.2424
11.2034
11.1875
11.2079
11.2698
11.3753
11.4841
11.5291
1
1
1
1
1
1
1
1
1
1
1
1
1
1
1
1
1
1
1
1
1
1
1
1
1
1
1
1
1
1
1
1
1
1
1
1
1
1
1
1
1
1
1
1
1
1
1
1
1
1
1
1
1
1
1
1
1
1
1
1
1
1
1.9693
9.15467
11.4979
11.5292
11.6371
11.7624
11.8651
11.9034
11.8861
11.8536
11.7855
11.6604
11.5053
11.4143
11.3887
11.3797
11.4057
11.4866
11.6225
11.73
11.7504
11.7281
11.6891
11.6122
11.473
11.316
11.2393
11.1996
11.1835
11.2038
11.265
11.3701
11.4797
11.5257
1
1
1
1
1
1
1
1
1
1
1
1
1
1
1
1
1
1
1
1
1
1
1
1
1
1
1
1
1
1
1
1
1
1
1
1
1
1
1
1
1
1
1
1
1
1
1
1
1
1
1
1
1
1
1
1
1
1
1
1
1
1
1.98742
9.18286
11.4967
11.5261
11.6329
11.7591
11.8639
11.903
11.8857
11.853
11.7866
11.6648
11.5099
11.4142
11.3881
11.3789
11.4039
11.4829
11.6178
11.7295
11.7539
11.7303
11.6911
11.6164
11.4807
11.3207
11.2368
11.1966
11.18
11.1997
11.2596
11.3642
11.4752
11.5228
1
1
1
1
1
1
1
1
1
1
1
1
1
1
1
1
1
1
1
1
1
1
1
1
1
1
1
1
1
1
1
1
1
1
1
1
1
1
1
1
1
1
1
1
1
1
1
1
1
1
1
1
1
1
1
1
1
1
1
1
1
1
2.01177
9.22102
11.4959
11.5221
11.6268
11.7532
11.8606
11.9016
11.8848
11.8525
11.7888
11.6718
11.5178
11.4164
11.3892
11.3794
11.402
11.4768
11.6088
11.7251
11.7547
11.7313
11.6916
11.6202
11.4908
11.3297
11.237
11.1965
11.1787
11.1967
11.2544
11.3581
11.4713
11.521
1
1
1
1
1
1
1
1
1
1
1
1
1
1
1
1
1
1
1
1
1
1
1
1
1
1
1
1
1
1
1
1
1
1
1
1
1
1
1
1
1
1
1
1
1
1
1
1
1
1
1
1
1
1
1
1
1
1
1
1
1
1
2.04261
9.26899
11.4953
11.5171
11.6184
11.7443
11.8548
11.8993
11.8839
11.8527
11.7928
11.6817
11.5292
11.421
11.3915
11.3804
11.399
11.4681
11.5956
11.7152
11.7518
11.7315
11.6916
11.6241
11.5034
11.3439
11.2411
11.1998
11.1801
11.1951
11.2493
11.3514
11.4673
11.5199
1
1
1
1
1
1
1
1
1
1
1
1
1
1
1
1
1
1
1
1
1
1
1
1
1
1
1
1
1
1
1
1
1
1
1
1
1
1
1
1
1
1
1
1
1
1
1
1
1
1
1
1
1
1
1
1
1
1
1
1
1
1
2.08036
9.32625
11.4945
11.5111
11.6077
11.7323
11.8469
11.8965
11.8836
11.8542
11.7987
11.694
11.5434
11.4275
11.3938
11.3809
11.3948
11.457
11.5785
11.7013
11.7463
11.7317
11.6921
11.6288
11.5178
11.3629
11.2496
11.2055
11.1832
11.1941
11.2434
11.3427
11.4614
11.518
1
1
1
1
1
1
1
1
1
1
1
1
1
1
1
1
1
1
1
1
1
1
1
1
1
1
1
1
1
1
1
1
1
1
1
1
1
1
1
1
1
1
1
1
1
1
1
1
1
1
1
1
1
1
1
1
1
1
1
1
1
1
2.12522
9.39212
11.4933
11.504
11.5951
11.7177
11.8372
11.8939
11.8844
11.8572
11.806
11.7077
11.5592
11.4347
11.395
11.3801
11.389
11.4441
11.5587
11.6848
11.7398
11.7327
11.6944
11.6348
11.533
11.3848
11.2618
11.2121
11.1866
11.1925
11.236
11.3307
11.4515
11.5142
1
1
1
1
1
1
1
1
1
1
1
1
1
1
1
1
1
1
1
1
1
1
1
1
1
1
1
1
1
1
1
1
1
1
1
1
1
1
1
1
1
1
1
1
1
1
1
1
1
1
1
1
1
1
1
1
1
1
1
1
1
1
2.17702
9.46589
11.4916
11.4962
11.5812
11.7009
11.8261
11.8916
11.8865
11.8611
11.8137
11.7216
11.5758
11.442
11.3945
11.378
11.3823
11.4308
11.5381
11.6671
11.7333
11.7349
11.6989
11.6416
11.5472
11.4062
11.2759
11.2181
11.1893
11.1897
11.2269
11.3158
11.438
11.5089
1
1
1
1
1
1
1
1
1
1
1
1
1
1
1
1
1
1
1
1
1
1
1
1
1
1
1
1
1
1
1
1
1
1
1
1
1
1
1
1
1
1
1
1
1
1
1
1
1
1
1
1
1
1
1
1
1
1
1
1
1
1
2.23549
9.54692
11.4903
11.4889
11.5671
11.6829
11.8134
11.8884
11.8888
11.8646
11.8206
11.7345
11.5928
11.4504
11.3934
11.3756
11.3763
11.4186
11.5184
11.649
11.7271
11.7376
11.7038
11.648
11.559
11.4251
11.2901
11.2232
11.1917
11.1865
11.2177
11.3
11.4226
11.5036
1
1
1
1
1
1
1
1
1
1
1
1
1
1
1
1
1
1
1
1
1
1
1
1
1
1
1
1
1
1
1
1
1
1
1
1
1
1
1
1
1
1
1
1
1
1
1
1
1
1
1
1
1
1
1
1
1
1
1
1
1
1
2.30034
9.63476
11.4904
11.4832
11.5539
11.6641
11.798