/*--------------------------------*- C++ -*----------------------------------*\
  =========                 |
  \\      /  F ield         | OpenFOAM: The Open Source CFD Toolbox
   \\    /   O peration     | Website:  https://openfoam.org
    \\  /    A nd           | Version:  7
     \\/     M anipulation  |
\*---------------------------------------------------------------------------*/
FoamFile
{
    version     2.0;
    format      ascii;
    class       volScalarField;
    location    "3.9";
    object      rho;
}
// * * * * * * * * * * * * * * * * * * * * * * * * * * * * * * * * * * * * * //

dimensions      [1 -3 0 0 0 0 0];

internalField   nonuniform List<scalar> 
73728
(
1.40001
1.40001
1.40001
1.40001
1.40001
1.40001
1.40001
1.40001
1.40001
1.40001
1.40001
1.40001
1.40001
1.40001
1.40001
1.40001
1.40001
1.40001
1.40001
1.40001
1.40001
1.40001
1.40001
1.40001
1.40001
1.40001
1.40001
1.40001
1.40001
1.40001
1.40001
1.40001
1.40001
1.40001
1.40001
1.40001
1.40001
1.40001
1.40001
1.40001
1.40001
1.40001
1.40001
1.40001
1.40001
1.40001
1.40001
1.40001
1.40001
1.40001
1.40001
1.40001
1.40001
1.40001
1.40001
1.40001
1.40001
1.40001
1.40001
1.40001
1.40001
1.88921
4.85776
5.54603
5.53083
5.56409
5.62019
5.66491
5.68126
5.69046
5.69846
5.70443
5.70404
5.69475
5.67237
5.63882
5.61261
5.60621
5.6181
5.64119
5.67038
5.70605
5.73602
5.75884
5.78056
5.79679
5.80477
5.80155
5.78638
5.7602
5.73706
5.73123
5.74637
5.7848
5.83531
5.85616
1.40001
1.40001
1.40001
1.40001
1.40001
1.40001
1.40001
1.40001
1.40001
1.40001
1.40001
1.40001
1.40001
1.40001
1.40001
1.40001
1.40001
1.40001
1.40001
1.40001
1.40001
1.40001
1.40001
1.40001
1.40001
1.40001
1.40001
1.40001
1.40001
1.40001
1.40001
1.40001
1.40001
1.40001
1.40001
1.40001
1.40001
1.40001
1.40001
1.40001
1.40001
1.40001
1.40001
1.40001
1.40001
1.40001
1.40001
1.40001
1.40001
1.40001
1.40001
1.40001
1.40001
1.40001
1.40001
1.40001
1.40001
1.40001
1.40001
1.40001
1.40001
1.88462
4.85168
5.54496
5.53094
5.56517
5.62153
5.66569
5.6818
5.69093
5.69863
5.70415
5.70345
5.69404
5.67155
5.63785
5.61183
5.60582
5.61809
5.64133
5.67096
5.7068
5.73625
5.75849
5.77938
5.79495
5.80265
5.79944
5.78419
5.75828
5.73343
5.72323
5.73882
5.76884
5.81842
5.85196
1.40001
1.40001
1.40001
1.40001
1.40001
1.40001
1.40001
1.40001
1.40001
1.40001
1.40001
1.40001
1.40001
1.40001
1.40001
1.40001
1.40001
1.40001
1.40001
1.40001
1.40001
1.40001
1.40001
1.40001
1.40001
1.40001
1.40001
1.40001
1.40001
1.40001
1.40001
1.40001
1.40001
1.40001
1.40001
1.40001
1.40001
1.40001
1.40001
1.40001
1.40001
1.40001
1.40001
1.40001
1.40001
1.40001
1.40001
1.40001
1.40001
1.40001
1.40001
1.40001
1.40001
1.40001
1.40001
1.40001
1.40001
1.40001
1.40001
1.40001
1.40001
1.87471
4.84163
5.54439
5.53136
5.56673
5.62346
5.6667
5.6823
5.69133
5.69863
5.70359
5.70255
5.69293
5.67012
5.63612
5.61038
5.60504
5.61796
5.64139
5.67167
5.70777
5.73672
5.75778
5.77711
5.79174
5.79918
5.79606
5.78068
5.75474
5.72744
5.71163
5.72508
5.75293
5.79656
5.82963
1.40001
1.40001
1.40001
1.40001
1.40001
1.40001
1.40001
1.40001
1.40001
1.40001
1.40001
1.40001
1.40001
1.40001
1.40001
1.40001
1.40001
1.40001
1.40001
1.40001
1.40001
1.40001
1.40001
1.40001
1.40001
1.40001
1.40001
1.40001
1.40001
1.40001
1.40001
1.40001
1.40001
1.40001
1.40001
1.40001
1.40001
1.40001
1.40001
1.40001
1.40001
1.40001
1.40001
1.40001
1.40001
1.40001
1.40001
1.40001
1.40001
1.40001
1.40001
1.40001
1.40001
1.40001
1.40001
1.40001
1.40001
1.40001
1.40001
1.40001
1.40001
1.85973
4.82657
5.54405
5.5323
5.56942
5.62682
5.66855
5.68333
5.69185
5.69844
5.70267
5.70123
5.69131
5.66798
5.63352
5.60827
5.60397
5.61772
5.64141
5.67273
5.70925
5.73755
5.75709
5.77416
5.7871
5.79384
5.79085
5.7754
5.74898
5.71994
5.7007
5.71118
5.73742
5.77341
5.80651
1.40001
1.40001
1.40001
1.40001
1.40001
1.40001
1.40001
1.40001
1.40001
1.40001
1.40001
1.40001
1.40001
1.40001
1.40001
1.40001
1.40001
1.40001
1.40001
1.40001
1.40001
1.40001
1.40001
1.40001
1.40001
1.40001
1.40001
1.40001
1.40001
1.40001
1.40001
1.40001
1.40001
1.40001
1.40001
1.40001
1.40001
1.40001
1.40001
1.40001
1.40001
1.40001
1.40001
1.40001
1.40001
1.40001
1.40001
1.40001
1.40001
1.40001
1.40001
1.40001
1.40001
1.40001
1.40001
1.40001
1.40001
1.40001
1.40001
1.40001
1.40001
1.84029
4.80603
5.5436
5.53389
5.57338
5.63144
5.67095
5.68461
5.69239
5.6981
5.70145
5.6996
5.68919
5.66504
5.63005
5.60565
5.60283
5.61746
5.6415
5.67419
5.71123
5.73869
5.75658
5.77103
5.7814
5.7867
5.78376
5.76848
5.74129
5.7114
5.69274
5.70102
5.72434
5.75536
5.78549
1.40001
1.40001
1.40001
1.40001
1.40001
1.40001
1.40001
1.40001
1.40001
1.40001
1.40001
1.40001
1.40001
1.40001
1.40001
1.40001
1.40001
1.40001
1.40001
1.40001
1.40001
1.40001
1.40001
1.40001
1.40001
1.40001
1.40001
1.40001
1.40001
1.40001
1.40001
1.40001
1.40001
1.40001
1.40001
1.40001
1.40001
1.40001
1.40001
1.40001
1.40001
1.40001
1.40001
1.40001
1.40001
1.40001
1.40001
1.40001
1.40001
1.40001
1.40001
1.40001
1.40001
1.40001
1.40001
1.40001
1.40001
1.40001
1.40001
1.40001
1.40001
1.81675
4.77986
5.54307
5.53651
5.57885
5.63712
5.6736
5.68603
5.69289
5.69756
5.6999
5.69756
5.6865
5.6613
5.62598
5.60292
5.60186
5.61721
5.64191
5.67621
5.71378
5.74018
5.75635
5.76802
5.77519
5.77818
5.77461
5.75932
5.73141
5.70212
5.68715
5.69482
5.71565
5.74399
5.7709
1.40001
1.40001
1.40001
1.40001
1.40001
1.40001
1.40001
1.40001
1.40001
1.40001
1.40001
1.40001
1.40001
1.40001
1.40001
1.40001
1.40001
1.40001
1.40001
1.40001
1.40001
1.40001
1.40001
1.40001
1.40001
1.40001
1.40001
1.40001
1.40001
1.40001
1.40001
1.40001
1.40001
1.40001
1.40001
1.40001
1.40001
1.40001
1.40001
1.40001
1.40001
1.40001
1.40001
1.40001
1.40001
1.40001
1.40001
1.40001
1.40001
1.40001
1.40001
1.40001
1.40001
1.40001
1.40001
1.40001
1.40001
1.40001
1.40001
1.40001
1.40001
1.78945
4.74811
5.5426
5.5405
5.58594
5.64344
5.67614
5.68753
5.69333
5.69689
5.69807
5.69508
5.68311
5.65667
5.62146
5.60037
5.6013
5.617
5.64251
5.67872
5.71678
5.74193
5.75639
5.76529
5.76912
5.76908
5.76359
5.7473
5.71886
5.69209
5.68218
5.69052
5.71067
5.73769
5.76247
1.40001
1.40001
1.40001
1.40001
1.40001
1.40001
1.40001
1.40001
1.40001
1.40001
1.40001
1.40001
1.40001
1.40001
1.40001
1.40001
1.40001
1.40001
1.40001
1.40001
1.40001
1.40001
1.40001
1.40001
1.40001
1.40001
1.40001
1.40001
1.40001
1.40001
1.40001
1.40001
1.40001
1.40001
1.40001
1.40001
1.40001
1.40001
1.40001
1.40001
1.40001
1.40001
1.40001
1.40001
1.40001
1.40001
1.40001
1.40001
1.40001
1.40001
1.40001
1.40001
1.40001
1.40001
1.40001
1.40001
1.40001
1.40001
1.40001
1.40001
1.40001
1.75892
4.71078
5.54233
5.54607
5.59455
5.65004
5.67861
5.68914
5.69374
5.6961
5.69588
5.69193
5.67879
5.65104
5.6167
5.59835
5.60144
5.61699
5.64344
5.6817
5.71992
5.74366
5.75656
5.7631
5.76367
5.76026
5.75146
5.7324
5.70314
5.68043
5.6759
5.68595
5.70709
5.73399
5.75819
1.40001
1.40001
1.40001
1.40001
1.40001
1.40001
1.40001
1.40001
1.40001
1.40001
1.40001
1.40001
1.40001
1.40001
1.40001
1.40001
1.40001
1.40001
1.40001
1.40001
1.40001
1.40001
1.40001
1.40001
1.40001
1.40001
1.40001
1.40001
1.40001
1.40001
1.40001
1.40001
1.40001
1.40001
1.40001
1.40001
1.40001
1.40001
1.40001
1.40001
1.40001
1.40001
1.40001
1.40001
1.40001
1.40001
1.40001
1.40001
1.40001
1.40001
1.40001
1.40001
1.40001
1.40001
1.40001
1.40001
1.40001
1.40001
1.40001
1.40001
1.40001
1.72581
4.66809
5.54254
5.55332
5.60438
5.65659
5.68114
5.69089
5.69426
5.69509
5.69318
5.688
5.67335
5.6443
5.6119
5.59716
5.6023
5.61752
5.64502
5.68506
5.72268
5.74488
5.75649
5.76138
5.75921
5.75238
5.73944
5.71584
5.68504
5.66658
5.6667
5.67915
5.70216
5.73023
5.75529
1.40001
1.40001
1.40001
1.40001
1.40001
1.40001
1.40001
1.40001
1.40001
1.40001
1.40001
1.40001
1.40001
1.40001
1.40001
1.40001
1.40001
1.40001
1.40001
1.40001
1.40001
1.40001
1.40001
1.40001
1.40001
1.40001
1.40001
1.40001
1.40001
1.40001
1.40001
1.40001
1.40001
1.40001
1.40001
1.40001
1.40001
1.40001
1.40001
1.40001
1.40001
1.40001
1.40001
1.40001
1.40001
1.40001
1.40001
1.40001
1.40001
1.40001
1.40001
1.40001
1.40001
1.40001
1.40001
1.40001
1.40001
1.40001
1.40001
1.40001
1.40001
1.6908
4.62028
5.54346
5.56239
5.61507
5.66286
5.68378
5.69282
5.69488
5.6938
5.68982
5.68314
5.66655
5.63639
5.60726
5.59704
5.60385
5.61915
5.64772
5.68872
5.72455
5.74515
5.75582
5.7596
5.75549
5.74579
5.72854
5.69952
5.66654
5.65189
5.65502
5.66911
5.6938
5.72382
5.75078
1.40001
1.40001
1.40001
1.40001
1.40001
1.40001
1.40001
1.40001
1.40001
1.40001
1.40001
1.40001
1.40001
1.40001
1.40001
1.40001
1.40001
1.40001
1.40001
1.40001
1.40001
1.40001
1.40001
1.40001
1.40001
1.40001
1.40001
1.40001
1.40001
1.40001
1.40001
1.40001
1.40001
1.40001
1.40001
1.40001
1.40001
1.40001
1.40001
1.40001
1.40001
1.40001
1.40001
1.40001
1.40001
1.40001
1.40001
1.40001
1.40001
1.40001
1.40001
1.40001
1.40001
1.40001
1.40001
1.40001
1.40001
1.40001
1.40001
1.40001
1.40001
1.65456
4.56776
5.5453
5.57325
5.62611
5.66869
5.6865
5.69494
5.69543
5.69212
5.68597
5.67728
5.65816
5.62743
5.60297
5.59806
5.60603
5.62233
5.65201
5.69272
5.72532
5.74397
5.75393
5.75713
5.75195
5.73999
5.71876
5.68467
5.65025
5.63879
5.64288
5.6572
5.68244
5.71391
5.74225
1.40001
1.40001
1.40001
1.40001
1.40001
1.40001
1.40001
1.40001
1.40001
1.40001
1.40001
1.40001
1.40001
1.40001
1.40001
1.40001
1.40001
1.40001
1.40001
1.40001
1.40001
1.40001
1.40001
1.40001
1.40001
1.40001
1.40001
1.40001
1.40001
1.40001
1.40001
1.40001
1.40001
1.40001
1.40001
1.40001
1.40001
1.40001
1.40001
1.40001
1.40001
1.40001
1.40001
1.40001
1.40001
1.40001
1.40001
1.40001
1.40001
1.40001
1.40001
1.40001
1.40001
1.40001
1.40001
1.40001
1.40001
1.40001
1.40001
1.40001
1.40001
1.61774
4.51105
5.54833
5.58567
5.63696
5.67401
5.68925
5.69702
5.69581
5.69008
5.68179
5.6704
5.64799
5.61792
5.59912
5.59967
5.60914
5.62736
5.65819
5.6973
5.72523
5.74117
5.75028
5.75317
5.74777
5.73416
5.70933
5.67114
5.63757
5.62925
5.63306
5.64627
5.67118
5.70283
5.73013
1.40001
1.40001
1.40001
1.40001
1.40001
1.40001
1.40001
1.40001
1.40001
1.40001
1.40001
1.40001
1.40001
1.40001
1.40001
1.40001
1.40001
1.40001
1.40001
1.40001
1.40001
1.40001
1.40001
1.40001
1.40001
1.40001
1.40001
1.40001
1.40001
1.40001
1.40001
1.40001
1.40001
1.40001
1.40001
1.40001
1.40001
1.40001
1.40001
1.40001
1.40001
1.40001
1.40001
1.40001
1.40001
1.40001
1.40001
1.40001
1.40001
1.40001
1.40001
1.40001
1.40001
1.40001
1.40001
1.40001
1.40001
1.40001
1.40001
1.40001
1.40001
1.58101
4.45083
5.5528
5.59926
5.64718
5.67878
5.69206
5.69864
5.69577
5.68783
5.67743
5.66256
5.63618
5.60828
5.596
5.6013
5.6133
5.63421
5.66634
5.70268
5.72486
5.73729
5.74476
5.7471
5.74188
5.72705
5.69888
5.65839
5.62891
5.62327
5.62702
5.6396
5.6636
5.6943
5.71804
1.40001
1.40001
1.40001
1.40001
1.40001
1.40001
1.40001
1.40001
1.40001
1.40001
1.40001
1.40001
1.40001
1.40001
1.40001
1.40001
1.40001
1.40001
1.40001
1.40001
1.40001
1.40001
1.40001
1.40001
1.40001
1.40001
1.40001
1.40001
1.40001
1.40001
1.40001
1.40001
1.40001
1.40001
1.40001
1.40001
1.40001
1.40001
1.40001
1.40001
1.40001
1.40001
1.40001
1.40001
1.40001
1.40001
1.40001
1.40001
1.40001
1.40001
1.40001
1.40001
1.40001
1.40001
1.40001
1.40001
1.40001
1.40001
1.40001
1.40001
1.40001
1.54502
4.3879
5.55877
5.61332
5.65659
5.68324
5.69461
5.69957
5.69516
5.68539
5.67289
5.65382
5.6234
5.59922
5.59375
5.60274
5.61815
5.6425
5.67632
5.70883
5.72483
5.73317
5.73803
5.73894
5.73333
5.71706
5.68578
5.64559
5.62324
5.62003
5.62434
5.63737
5.66127
5.69064
5.70956
1.40001
1.40001
1.40001
1.40001
1.40001
1.40001
1.40001
1.40001
1.40001
1.40001
1.40001
1.40001
1.40001
1.40001
1.40001
1.40001
1.40001
1.40001
1.40001
1.40001
1.40001
1.40001
1.40001
1.40001
1.40001
1.40001
1.40001
1.40001
1.40001
1.40001
1.40001
1.40001
1.40001
1.40001
1.40001
1.40001
1.40001
1.40001
1.40001
1.40001
1.40001
1.40001
1.40001
1.40001
1.40001
1.40001
1.40001
1.40001
1.40001
1.40001
1.40001
1.40001
1.40001
1.40001
1.40001
1.40001
1.40001
1.40001
1.40001
1.40001
1.40001
1.51042
4.3233
5.566
5.62698
5.66523
5.68759
5.6966
5.69969
5.69376
5.68262
5.66796
5.64413
5.61095
5.5917
5.59229
5.60401
5.62308
5.65191
5.68757
5.71519
5.72538
5.72959
5.73132
5.72971
5.72187
5.70289
5.66844
5.63261
5.61872
5.61787
5.62398
5.63854
5.66347
5.69122
5.70591
1.40001
1.40001
1.40001
1.40001
1.40001
1.40001
1.40001
1.40001
1.40001
1.40001
1.40001
1.40001
1.40001
1.40001
1.40001
1.40001
1.40001
1.40001
1.40001
1.40001
1.40001
1.40001
1.40001
1.40001
1.40001
1.40001
1.40001
1.40001
1.40001
1.40001
1.40001
1.40001
1.40001
1.40001
1.40001
1.40001
1.40001
1.40001
1.40001
1.40001
1.40001
1.40001
1.40001
1.40001
1.40001
1.40001
1.40001
1.40001
1.40001
1.40001
1.40001
1.40001
1.40001
1.40001
1.40001
1.40001
1.40001
1.40001
1.40001
1.40001
1.40001
1.47797
4.25802
5.57368
5.63938
5.67334
5.69191
5.69799
5.69892
5.69139
5.67918
5.66221
5.63348
5.60012
5.58712
5.59147
5.60504
5.62813
5.66214
5.69884
5.72075
5.72632
5.72718
5.72555
5.72041
5.70871
5.68464
5.64697
5.6196
5.61318
5.61516
5.62451
5.64248
5.66904
5.69472
5.70604
1.40001
1.40001
1.40001
1.40001
1.40001
1.40001
1.40001
1.40001
1.40001
1.40001
1.40001
1.40001
1.40001
1.40001
1.40001
1.40001
1.40001
1.40001
1.40001
1.40001
1.40001
1.40001
1.40001
1.40001
1.40001
1.40001
1.40001
1.40001
1.40001
1.40001
1.40001
1.40001
1.40001
1.40001
1.40001
1.40001
1.40001
1.40001
1.40001
1.40001
1.40001
1.40001
1.40001
1.40001
1.40001
1.40001
1.40001
1.40001
1.40001
1.40001
1.40001
1.40001
1.40001
1.40001
1.40001
1.40001
1.40001
1.40001
1.40001
1.40001
1.40001
1.44859
4.193
5.58046
5.64992
5.68104
5.69627
5.69883
5.69722
5.68772
5.67465
5.65501
5.62222
5.59233
5.58551
5.59121
5.60633
5.63384
5.67276
5.70832
5.72429
5.72728
5.72567
5.72086
5.71189
5.6951
5.66428
5.62514
5.60704
5.6055
5.61063
5.6242
5.64671
5.67562
5.69893
5.70773
1.40001
1.40001
1.40001
1.40001
1.40001
1.40001
1.40001
1.40001
1.40001
1.40001
1.40001
1.40001
1.40001
1.40001
1.40001
1.40001
1.40001
1.40001
1.40001
1.40001
1.40001
1.40001
1.40001
1.40001
1.40001
1.40001
1.40001
1.40001
1.40001
1.40001
1.40001
1.40001
1.40001
1.40001
1.40001
1.40001
1.40001
1.40001
1.40001
1.40001
1.40001
1.40001
1.40001
1.40001
1.40001
1.40001
1.40001
1.40001
1.40001
1.40001
1.40001
1.40001
1.40001
1.40001
1.40001
1.40001
1.40001
1.40001
1.40001
1.40001
1.40001
1.42374
4.12841
5.58474
5.6586
5.68806
5.70085
5.69939
5.69423
5.68277
5.66859
5.64564
5.61121
5.58827
5.58607
5.59187
5.60897
5.64107
5.68311
5.71437
5.72555
5.72732
5.7242
5.71705
5.70424
5.68145
5.644
5.60678
5.59605
5.59698
5.6047
5.62209
5.64934
5.68009
5.70106
5.70853
1.40001
1.40001
1.40001
1.40001
1.40001
1.40001
1.40001
1.40001
1.40001
1.40001
1.40001
1.40001
1.40001
1.40001
1.40001
1.40001
1.40001
1.40001
1.40001
1.40001
1.40001
1.40001
1.40001
1.40001
1.40001
1.40001
1.40001
1.40001
1.40001
1.40001
1.40001
1.40001
1.40001
1.40001
1.40001
1.40001
1.40001
1.40001
1.40001
1.40001
1.40001
1.40001
1.40001
1.40001
1.40001
1.40001
1.40001
1.40001
1.40001
1.40001
1.40001
1.40001
1.40001
1.40001
1.40001
1.40001
1.40001
1.40001
1.40001
1.40001
1.40001
1.40632
4.06252
5.58508
5.66622
5.6945
5.70539
5.69938
5.69032
5.67671
5.66045
5.63369
5.60166
5.58769
5.58774
5.59431
5.61433
5.65069
5.69238
5.71651
5.7241
5.72522
5.72169
5.71305
5.69668
5.66712
5.62518
5.59459
5.58846
5.59038
5.59978
5.61981
5.65051
5.68119
5.69916
5.70562
1.40001
1.40001
1.40001
1.40001
1.40001
1.40001
1.40001
1.40001
1.40001
1.40001
1.40001
1.40001
1.40001
1.40001
1.40001
1.40001
1.40001
1.40001
1.40001
1.40001
1.40001
1.40001
1.40001
1.40001
1.40001
1.40001
1.40001
1.40001
1.40001
1.40001
1.40001
1.40001
1.40001
1.40001
1.40001
1.40001
1.40001
1.40001
1.40001
1.40001
1.40001
1.40001
1.40001
1.40001
1.40001
1.40001
1.40001
1.40001
1.40001
1.40001
1.40001
1.40001
1.40001
1.40001
1.40001
1.40001
1.40001
1.40001
1.40001
1.40001
1.40001
1.40001
3.99079
5.58118
5.67386
5.70046
5.70915
5.69886
5.68604
5.66959
5.64971
5.6197
5.59444
5.58881
5.59002
5.59918
5.62342
5.66311
5.69988
5.71536
5.71978
5.72032
5.71673
5.70687
5.6865
5.65183
5.60998
5.58899
5.58498
5.58728
5.59774
5.61987
5.65181
5.67955
5.6932
5.69806
1.40001
1.40001
1.40001
1.40001
1.40001
1.40001
1.40001
1.40001
1.40001
1.40001
1.40001
1.40001
1.40001
1.40001
1.40001
1.40001
1.40001
1.40001
1.40001
1.40001
1.40001
1.40001
1.40001
1.40001
1.40001
1.40001
1.40001
1.40001
1.40001
1.40001
1.40001
1.40001
1.40001
1.40001
1.40001
1.40001
1.40001
1.40001
1.40001
1.40001
1.40001
1.40001
1.40001
1.40001
1.40001
1.40001
1.40001
1.40001
1.40001
1.40001
1.40001
1.40001
1.40001
1.40001
1.40001
1.40001
1.40001
1.40001
1.40001
1.40001
1.40001
1.40001
3.91588
5.57534
5.68181
5.7056
5.71181
5.6979
5.68135
5.66129
5.63622
5.60551
5.58956
5.58938
5.59304
5.60667
5.63663
5.67777
5.70519
5.71252
5.71419
5.7135
5.70881
5.6967
5.67274
5.63464
5.59934
5.5876
5.58475
5.5877
5.5998
5.62443
5.6559
5.67774
5.68599
5.68798
1.40001
1.40001
1.40001
1.40001
1.40001
1.40001
1.40001
1.40001
1.40001
1.40001
1.40001
1.40001
1.40001
1.40001
1.40001
1.40001
1.40001
1.40001
1.40001
1.40001
1.40001
1.40001
1.40001
1.40001
1.40001
1.40001
1.40001
1.40001
1.40001
1.40001
1.40001
1.40001
1.40001
1.40001
1.40001
1.40001
1.40001
1.40001
1.40001
1.40001
1.40001
1.40001
1.40001
1.40001
1.40001
1.40001
1.40001
1.40001
1.40001
1.40001
1.40001
1.40001
1.40001
1.40001
1.40001
1.40001
1.40001
1.40001
1.40001
1.40001
1.40001
1.40001
3.84309
5.56988
5.6894
5.70952
5.71331
5.69623
5.67597
5.65151
5.62078
5.59347
5.58687
5.58894
5.59635
5.61651
5.65343
5.69235
5.70836
5.71015
5.709
5.70568
5.69843
5.68332
5.65449
5.61583
5.59293
5.58724
5.58626
5.59126
5.60685
5.63423
5.66316
5.67737
5.68033
5.67819
1.40001
1.40001
1.40001
1.40001
1.40001
1.40001
1.40001
1.40001
1.40001
1.40001
1.40001
1.40001
1.40001
1.40001
1.40001
1.40001
1.40001
1.40001
1.40001
1.40001
1.40001
1.40001
1.40001
1.40001
1.40001
1.40001
1.40001
1.40001
1.40001
1.40001
1.40001
1.40001
1.40001
1.40001
1.40001
1.40001
1.40001
1.40001
1.40001
1.40001
1.40001
1.40001
1.40001
1.40001
1.40001
1.40001
1.40001
1.40001
1.40001
1.40001
1.40001
1.40001
1.40001
1.40001
1.40001
1.40001
1.40001
1.40001
1.40001
1.40001
1.40001
1.40001
3.77288
5.56503
5.69578
5.71224
5.7132
5.69333
5.66943
5.64002
5.6056
5.58547
5.58444
5.58788
5.60009
5.62867
5.67171
5.70349
5.71042
5.70902
5.70479
5.69781
5.68622
5.66582
5.63129
5.59837
5.58768
5.5855
5.58741
5.59673
5.61722
5.64696
5.67067
5.67785
5.67657
5.67031
1.40001
1.40001
1.40001
1.40001
1.40001
1.40001
1.40001
1.40001
1.40001
1.40001
1.40001
1.40001
1.40001
1.40001
1.40001
1.40001
1.40001
1.40001
1.40001
1.40001
1.40001
1.40001
1.40001
1.40001
1.40001
1.40001
1.40001
1.40001
1.40001
1.40001
1.40001
1.40001
1.40001
1.40001
1.40001
1.40001
1.40001
1.40001
1.40001
1.40001
1.40001
1.40001
1.40001
1.40001
1.40001
1.40001
1.40001
1.40001
1.40001
1.40001
1.40001
1.40001
1.40001
1.40001
1.40001
1.40001
1.40001
1.40001
1.40001
1.40001
1.40001
1.40001
3.70541
5.56148
5.70044
5.71339
5.71082
5.68837
5.66098
5.62697
5.59339
5.58144
5.58162
5.58687
5.60536
5.64308
5.68789
5.70965
5.71171
5.70842
5.70141
5.69033
5.67328
5.64495
5.60616
5.58438
5.58052
5.58117
5.5871
5.60208
5.62828
5.65875
5.67562
5.67789
5.67358
5.66408
1.40001
1.40001
1.40001
1.40001
1.40001
1.40001
1.40001
1.40001
1.40001
1.40001
1.40001
1.40001
1.40001
1.40001
1.40001
1.40001
1.40001
1.40001
1.40001
1.40001
1.40001
1.40001
1.40001
1.40001
1.40001
1.40001
1.40001
1.40001
1.40001
1.40001
1.40001
1.40001
1.40001
1.40001
1.40001
1.40001
1.40001
1.40001
1.40001
1.40001
1.40001
1.40001
1.40001
1.40001
1.40001
1.40001
1.40001
1.40001
1.40001
1.40001
1.40001
1.40001
1.40001
1.40001
1.40001
1.40001
1.40001
1.40001
1.40001
1.40001
1.40001
1.40001
3.64033
5.55952
5.7035
5.71242
5.70594
5.68087
5.64963
5.61287
5.58549
5.57949
5.57948
5.58781
5.61382
5.65865
5.69874
5.71162
5.7118
5.70715
5.69785
5.68292
5.65921
5.62263
5.585
5.57343
5.57206
5.57511
5.58557
5.60684
5.63839
5.66641
5.6772
5.67654
5.66974
5.65775
1.40001
1.40001
1.40001
1.40001
1.40001
1.40001
1.40001
1.40001
1.40001
1.40001
1.40001
1.40001
1.40001
1.40001
1.40001
1.40001
1.40001
1.40001
1.40001
1.40001
1.40001
1.40001
1.40001
1.40001
1.40001
1.40001
1.40001
1.40001
1.40001
1.40001
1.40001
1.40001
1.40001
1.40001
1.40001
1.40001
1.40001
1.40001
1.40001
1.40001
1.40001
1.40001
1.40001
1.40001
1.40001
1.40001
1.40001
1.40001
1.40001
1.40001
1.40001
1.40001
1.40001
1.40001
1.40001
1.40001
1.40001
1.40001
1.40001
1.40001
1.40001
1.40001
3.57698
5.55936
5.70566
5.70904
5.69886
5.67021
5.63498
5.59877
5.58111
5.57775
5.57938
5.59271
5.62636
5.67339
5.70355
5.71045
5.70967
5.70395
5.69258
5.67382
5.6429
5.60116
5.57195
5.56521
5.56457
5.56979
5.58454
5.61216
5.64652
5.66891
5.67465
5.67194
5.66325
5.64918
1.40001
1.40001
1.40001
1.40001
1.40001
1.40001
1.40001
1.40001
1.40001
1.40001
1.40001
1.40001
1.40001
1.40001
1.40001
1.40001
1.40001
1.40001
1.40001
1.40001
1.40001
1.40001
1.40001
1.40001
1.40001
1.40001
1.40001
1.40001
1.40001
1.40001
1.40001
1.40001
1.40001
1.40001
1.40001
1.40001
1.40001
1.40001
1.40001
1.40001
1.40001
1.40001
1.40001
1.40001
1.40001
1.40001
1.40001
1.40001
1.40001
1.40001
1.40001
1.40001
1.40001
1.40001
1.40001
1.40001
1.40001
1.40001
1.40001
1.40001
1.40001
1.40001
3.51528
5.55954
5.70753
5.70385
5.68968
5.65656
5.61767
5.58603
5.57764
5.57628
5.58183
5.60206
5.64233
5.68541
5.7041
5.70683
5.70488
5.69795
5.68467
5.66125
5.6234
5.58282
5.56496
5.55974
5.56004
5.56747
5.58702
5.61974
5.6517
5.66612
5.66754
5.66311
5.65295
5.63702
1.40001
1.40001
1.40001
1.40001
1.40001
1.40001
1.40001
1.40001
1.40001
1.40001
1.40001
1.40001
1.40001
1.40001
1.40001
1.40001
1.40001
1.40001
1.40001
1.40001
1.40001
1.40001
1.40001
1.40001
1.40001
1.40001
1.40001
1.40001
1.40001
1.40001
1.40001
1.40001
1.40001
1.40001
1.40001
1.40001
1.40001
1.40001
1.40001
1.40001
1.40001
1.40001
1.40001
1.40001
1.40001
1.40001
1.40001
1.40001
1.40001
1.40001
1.40001
1.40001
1.40001
1.40001
1.40001
1.40001
1.40001
1.40001
1.40001
1.40001
1.40001
1.40001
3.45471
5.55877
5.7088
5.69803
5.67922
5.64033
5.59919
5.57563
5.57314
5.57527
5.58658
5.61485
5.65957
5.69405
5.7031
5.70232
5.69802
5.68907
5.67281
5.64339
5.60119
5.56959
5.56051
5.55672
5.5588
5.57007
5.59578
5.63024
5.65372
5.6598
5.65764
5.65074
5.63874
5.62044
1.40001
1.40001
1.40001
1.40001
1.40001
1.40001
1.40001
1.40001
1.40001
1.40001
1.40001
1.40001
1.40001
1.40001
1.40001
1.40001
1.40001
1.40001
1.40001
1.40001
1.40001
1.40001
1.40001
1.40001
1.40001
1.40001
1.40001
1.40001
1.40001
1.40001
1.40001
1.40001
1.40001
1.40001
1.40001
1.40001
1.40001
1.40001
1.40001
1.40001
1.40001
1.40001
1.40001
1.40001
1.40001
1.40001
1.40001
1.40001
1.40001
1.40001
1.40001
1.40001
1.40001
1.40001
1.40001
1.40001
1.40001
1.40001
1.40001
1.40001
1.40001
1.40001
3.39458
5.55601
5.70963
5.69211
5.66759
5.62246
5.5821
5.56729
5.56766
5.57445
5.59263
5.62937
5.67547
5.70005
5.70252
5.69832
5.69039
5.6778
5.65621
5.61978
5.57907
5.56117
5.55594
5.55505
5.56078
5.57901
5.61092
5.64166
5.65429
5.65354
5.64712
5.63688
5.62167
5.59938
1.40001
1.40001
1.40001
1.40001
1.40001
1.40001
1.40001
1.40001
1.40001
1.40001
1.40001
1.40001
1.40001
1.40001
1.40001
1.40001
1.40001
1.40001
1.40001
1.40001
1.40001
1.40001
1.40001
1.40001
1.40001
1.40001
1.40001
1.40001
1.40001
1.40001
1.40001
1.40001
1.40001
1.40001
1.40001
1.40001
1.40001
1.40001
1.40001
1.40001
1.40001
1.40001
1.40001
1.40001
1.40001
1.40001
1.40001
1.40001
1.40001
1.40001
1.40001
1.40001
1.40001
1.40001
1.40001
1.40001
1.40001
1.40001
1.40001
1.40001
1.40001
1.40001
3.33458
5.55082
5.70972
5.68558
5.65472
5.60492
5.56849
5.56007
5.56213
5.57383
5.59953
5.64387
5.68794
5.70426
5.70258
5.69526
5.6833
5.66512
5.63534
5.59297
5.56098
5.55303
5.55057
5.5537
5.56628
5.59341
5.629
5.65123
5.65476
5.64883
5.63816
5.624
5.60405
5.57559
1.40001
1.40001
1.40001
1.40001
1.40001
1.40001
1.40001
1.40001
1.40001
1.40001
1.40001
1.40001
1.40001
1.40001
1.40001
1.40001
1.40001
1.40001
1.40001
1.40001
1.40001
1.40001
1.40001
1.40001
1.40001
1.40001
1.40001
1.40001
1.40001
1.40001
1.40001
1.40001
1.40001
1.40001
1.40001
1.40001
1.40001
1.40001
1.40001
1.40001
1.40001
1.40001
1.40001
1.40001
1.40001
1.40001
1.40001
1.40001
1.40001
1.40001
1.40001
1.40001
1.40001
1.40001
1.40001
1.40001
1.40001
1.40001
1.40001
1.40001
1.40001
1.40001
3.27476
5.54298
5.70859
5.6776
5.64106
5.58943
5.55906
5.55386
5.55761
5.57401
5.60694
5.65661
5.69621
5.70641
5.70242
5.69269
5.67674
5.65135
5.61204
5.56832
5.54804
5.54354
5.54443
5.55316
5.57477
5.61068
5.64468
5.6573
5.65483
5.64492
5.6311
5.61303
5.58729
5.55166
1.40001
1.40001
1.40001
1.40001
1.40001
1.40001
1.40001
1.40001
1.40001
1.40001
1.40001
1.40001
1.40001
1.40001
1.40001
1.40001
1.40001
1.40001
1.40001
1.40001
1.40001
1.40001
1.40001
1.40001
1.40001
1.40001
1.40001
1.40001
1.40001
1.40001
1.40001
1.40001
1.40001
1.40001
1.40001
1.40001
1.40001
1.40001
1.40001
1.40001
1.40001
1.40001
1.40001
1.40001
1.40001
1.40001
1.40001
1.40001
1.40001
1.40001
1.40001
1.40001
1.40001
1.40001
1.40001
1.40001
1.40001
1.40001
1.40001
1.40001
1.40001
1.40001
3.21537
5.53248
5.70571
5.66778
5.62732
5.57652
5.55321
5.54933
5.55505
5.5758
5.61463
5.6664
5.70018
5.70635
5.70122
5.68958
5.66932
5.63596
5.589
5.55028
5.53828
5.5347
5.53916
5.55453
5.58581
5.62742
5.65447
5.65933
5.65303
5.64081
5.62451
5.60246
5.5701
5.52954
1.40001
1.40001
1.40001
1.40001
1.40001
1.40001
1.40001
1.40001
1.40001
1.40001
1.40001
1.40001
1.40001
1.40001
1.40001
1.40001
1.40001
1.40001
1.40001
1.40001
1.40001
1.40001
1.40001
1.40001
1.40001
1.40001
1.40001
1.40001
1.40001
1.40001
1.40001
1.40001
1.40001
1.40001
1.40001
1.40001
1.40001
1.40001
1.40001
1.40001
1.40001
1.40001
1.40001
1.40001
1.40001
1.40001
1.40001
1.40001
1.40001
1.40001
1.40001
1.40001
1.40001
1.40001
1.40001
1.40001
1.40001
1.40001
1.40001
1.40001
1.40001
1.40001
3.15637
5.51976
5.70059
5.65727
5.61386
5.56602
5.54959
5.54688
5.55503
5.57978
5.6227
5.673
5.70036
5.70378
5.69804
5.6845
5.65958
5.61851
5.56887
5.53957
5.53119
5.52898
5.53673
5.55936
5.59912
5.6403
5.65802
5.6576
5.64881
5.63507
5.61628
5.58924
5.55026
5.51132
1.40001
1.40001
1.40001
1.40001
1.40001
1.40001
1.40001
1.40001
1.40001
1.40001
1.40001
1.40001
1.40001
1.40001
1.40001
1.40001
1.40001
1.40001
1.40001
1.40001
1.40001
1.40001
1.40001
1.40001
1.40001
1.40001
1.40001
1.40001
1.40001
1.40001
1.40001
1.40001
1.40001
1.40001
1.40001
1.40001
1.40001
1.40001
1.40001
1.40001
1.40001
1.40001
1.40001
1.40001
1.40001
1.40001
1.40001
1.40001
1.40001
1.40001
1.40001
1.40001
1.40001
1.40001
1.40001
1.40001
1.40001
1.40001
1.40001
1.40001
1.40001
1.40001
3.09745
5.50549
5.69409
5.64644
5.60056
5.55761
5.54684
5.54617
5.55751
5.58608
5.63143
5.67714
5.69765
5.69868
5.69213
5.67633
5.64648
5.59935
5.55319
5.53419
5.52686
5.52701
5.53898
5.56939
5.61413
5.6479
5.65663
5.65242
5.64182
5.62625
5.60387
5.5703
5.52778
5.4987
1.40001
1.40001
1.40001
1.40001
1.40001
1.40001
1.40001
1.40001
1.40001
1.40001
1.40001
1.40001
1.40001
1.40001
1.40001
1.40001
1.40001
1.40001
1.40001
1.40001
1.40001
1.40001
1.40001
1.40001
1.40001
1.40001
1.40001
1.40001
1.40001
1.40001
1.40001
1.40001
1.40001
1.40001
1.40001
1.40001
1.40001
1.40001
1.40001
1.40001
1.40001
1.40001
1.40001
1.40001
1.40001
1.40001
1.40001
1.40001
1.40001
1.40001
1.40001
1.40001
1.40001
1.40001
1.40001
1.40001
1.40001
1.40001
1.40001
1.40001
1.40001
1.40001
3.03822
5.49048
5.68742
5.63561
5.58753
5.55082
5.54419
5.54626
5.56178
5.59425
5.64084
5.67986
5.69371
5.6921
5.68367
5.66489
5.62983
5.57971
5.54221
5.53085
5.52522
5.5288
5.54711
5.58502
5.62909
5.65147
5.65255
5.64501
5.63212
5.6134
5.5853
5.54488
5.5063
5.48929
1.40001
1.40001
1.40001
1.40001
1.40001
1.40001
1.40001
1.40001
1.40001
1.40001
1.40001
1.40001
1.40001
1.40001
1.40001
1.40001
1.40001
1.40001
1.40001
1.40001
1.40001
1.40001
1.40001
1.40001
1.40001
1.40001
1.40001
1.40001
1.40001
1.40001
1.40001
1.40001
1.40001
1.40001
1.40001
1.40001
1.40001
1.40001
1.40001
1.40001
1.40001
1.40001
1.40001
1.40001
1.40001
1.40001
1.40001
1.40001
1.40001
1.40001
1.40001
1.40001
1.40001
1.40001
1.40001
1.40001
1.40001
1.40001
1.40001
1.40001
1.40001
1.40001
2.97822
5.47539
5.6813
5.62518
5.57535
5.54493
5.54123
5.54662
5.56687
5.60358
5.65033
5.68205
5.69003
5.68542
5.67403
5.65099
5.61048
5.5613
5.53478
5.52758
5.52546
5.53396
5.56006
5.60386
5.64176
5.6533
5.6485
5.6374
5.62105
5.59694
5.56067
5.51672
5.48949
5.47892
1.40001
1.40001
1.40001
1.40001
1.40001
1.40001
1.40001
1.40001
1.40001
1.40001
1.40001
1.40001
1.40001
1.40001
1.40001
1.40001
1.40001
1.40001
1.40001
1.40001
1.40001
1.40001
1.40001
1.40001
1.40001
1.40001
1.40001
1.40001
1.40001
1.40001
1.40001
1.40001
1.40001
1.40001
1.40001
1.40001
1.40001
1.40001
1.40001
1.40001
1.40001
1.40001
1.40001
1.40001
1.40001
1.40001
1.40001
1.40001
1.40001
1.40001
1.40001
1.40001
1.40001
1.40001
1.40001
1.40001
1.40001
1.40001
1.40001
1.40001
1.40001
1.40001
2.91708
5.46008
5.67599
5.61571
5.56447
5.53969
5.538
5.5471
5.57235
5.61332
5.65886
5.68374
5.68694
5.6796
5.66455
5.63601
5.59039
5.5457
5.52896
5.52389
5.52633
5.54118
5.57532
5.62192
5.65116
5.65439
5.64551
5.6311
5.61002
5.57792
5.53296
5.49257
5.47622
5.46795
1.40001
1.40001
1.40001
1.40001
1.40001
1.40001
1.40001
1.40001
1.40001
1.40001
1.40001
1.40001
1.40001
1.40001
1.40001
1.40001
1.40001
1.40001
1.40001
1.40001
1.40001
1.40001
1.40001
1.40001
1.40001
1.40001
1.40001
1.40001
1.40001
1.40001
1.40001
1.40001
1.40001
1.40001
1.40001
1.40001
1.40001
1.40001
1.40001
1.40001
1.40001
1.40001
1.40001
1.40001
1.40001
1.40001
1.40001
1.40001
1.40001
1.40001
1.40001
1.40001
1.40001
1.40001
1.40001
1.40001
1.40001
1.40001
1.40001
1.40001
1.40001
1.40001
2.85471
5.44374
5.67099
5.60719
5.55544
5.53544
5.53533
5.54813
5.57816
5.62285
5.66541
5.68439
5.68389
5.67447
5.6556
5.62112
5.57205
5.53411
5.52333
5.52056
5.52739
5.54914
5.59033
5.63597
5.65682
5.65467
5.64317
5.62579
5.59884
5.55703
5.50719
5.47637
5.46504
5.45892
1.40001
1.40001
1.40001
1.40001
1.40001
1.40001
1.40001
1.40001
1.40001
1.40001
1.40001
1.40001
1.40001
1.40001
1.40001
1.40001
1.40001
1.40001
1.40001
1.40001
1.40001
1.40001
1.40001
1.40001
1.40001
1.40001
1.40001
1.40001
1.40001
1.40001
1.40001
1.40001
1.40001
1.40001
1.40001