/*--------------------------------*- C++ -*----------------------------------*\
  =========                 |
  \\      /  F ield         | OpenFOAM: The Open Source CFD Toolbox
   \\    /   O peration     | Website:  https://openfoam.org
    \\  /    A nd           | Version:  7
     \\/     M anipulation  |
\*---------------------------------------------------------------------------*/
FoamFile
{
    version     2.0;
    format      ascii;
    class       volScalarField;
    location    "3.9";
    object      T;
}
// * * * * * * * * * * * * * * * * * * * * * * * * * * * * * * * * * * * * * //

dimensions      [0 0 0 1 0 0 0];

internalField   nonuniform List<scalar> 
73728
(
1
1
1
1
1
1
1
1
1
1
1
1
1
1
1
1
1
1
1
1
1
1
1
1
1
1
1
1
1
1
1
1
1
1
1
1
1
1
1
1
1
1
1
1
1
1
1
1
1
1
1
1
1
1
1
1
1
1
1
1
1
1.46561
2.63165
2.85412
2.87221
2.88049
2.88529
2.89056
2.89477
2.89975
2.90388
2.90569
2.90533
2.9031
2.89918
2.8938
2.88962
2.889
2.89221
2.8977
2.90451
2.91274
2.9197
2.92503
2.93014
2.93432
2.93675
2.93676
2.93469
2.93023
2.92622
2.92567
2.9296
2.93835
2.95059
2.95962
1
1
1
1
1
1
1
1
1
1
1
1
1
1
1
1
1
1
1
1
1
1
1
1
1
1
1
1
1
1
1
1
1
1
1
1
1
1
1
1
1
1
1
1
1
1
1
1
1
1
1
1
1
1
1
1
1
1
1
1
1
1.46222
2.6299
2.85405
2.87237
2.88075
2.88559
2.89077
2.89492
2.89989
2.90394
2.90564
2.90522
2.90296
2.89902
2.89361
2.88946
2.88892
2.89221
2.89772
2.90462
2.91289
2.91974
2.92496
2.9299
2.93393
2.93631
2.93633
2.93424
2.9298
2.92548
2.92409
2.92806
2.93528
2.9473
2.95754
1
1
1
1
1
1
1
1
1
1
1
1
1
1
1
1
1
1
1
1
1
1
1
1
1
1
1
1
1
1
1
1
1
1
1
1
1
1
1
1
1
1
1
1
1
1
1
1
1
1
1
1
1
1
1
1
1
1
1
1
1
1.45428
2.62588
2.85407
2.87272
2.88119
2.88608
2.89111
2.89513
2.90006
2.904
2.90557
2.90507
2.90275
2.89875
2.89328
2.88918
2.88876
2.89219
2.89772
2.90474
2.91307
2.91983
2.92481
2.92942
2.93325
2.93559
2.93563
2.93352
2.92904
2.92424
2.92174
2.92525
2.9321
2.94254
2.95112
1
1
1
1
1
1
1
1
1
1
1
1
1
1
1
1
1
1
1
1
1
1
1
1
1
1
1
1
1
1
1
1
1
1
1
1
1
1
1
1
1
1
1
1
1
1
1
1
1
1
1
1
1
1
1
1
1
1
1
1
1
1.44222
2.61957
2.85416
2.87329
2.88189
2.88685
2.89164
2.89549
2.90031
2.90406
2.90545
2.90485
2.90244
2.89834
2.89279
2.88877
2.88854
2.89214
2.89769
2.90492
2.91334
2.91998
2.92465
2.92879
2.93226
2.93446
2.93455
2.93242
2.92781
2.92264
2.91944
2.92235
2.92884
2.93738
2.9454
1
1
1
1
1
1
1
1
1
1
1
1
1
1
1
1
1
1
1
1
1
1
1
1
1
1
1
1
1
1
1
1
1
1
1
1
1
1
1
1
1
1
1
1
1
1
1
1
1
1
1
1
1
1
1
1
1
1
1
1
1
1.42647
2.61138
2.85442
2.87406
2.8828
2.88782
2.89227
2.89593
2.90062
2.90411
2.90528
2.90457
2.90203
2.89778
2.89213
2.88825
2.88829
2.89208
2.89765
2.90515
2.91368
2.92017
2.92451
2.9281
2.93102
2.93293
2.93307
2.93095
2.92615
2.92078
2.91769
2.92017
2.92602
2.9334
2.94059
1
1
1
1
1
1
1
1
1
1
1
1
1
1
1
1
1
1
1
1
1
1
1
1
1
1
1
1
1
1
1
1
1
1
1
1
1
1
1
1
1
1
1
1
1
1
1
1
1
1
1
1
1
1
1
1
1
1
1
1
1
1.40714
2.60142
2.855
2.87509
2.88388
2.88893
2.89295
2.89644
2.90096
2.90415
2.90506
2.90422
2.90151
2.89707
2.89136
2.88771
2.88809
2.89199
2.89766
2.90547
2.91411
2.9204
2.92441
2.92742
2.92964
2.93108
2.93117
2.929
2.92401
2.91874
2.91638
2.91876
2.92407
2.93085
2.93731
1
1
1
1
1
1
1
1
1
1
1
1
1
1
1
1
1
1
1
1
1
1
1
1
1
1
1
1
1
1
1
1
1
1
1
1
1
1
1
1
1
1
1
1
1
1
1
1
1
1
1
1
1
1
1
1
1
1
1
1
1
1.38433
2.58973
2.85599
2.87639
2.88514
2.89014
2.89364
2.897
2.90132
2.90417
2.90479
2.90377
2.90085
2.8962
2.89049
2.8872
2.88797
2.89188
2.89769
2.90588
2.91461
2.92066
2.92435
2.92678
2.92825
2.92907
2.92888
2.92641
2.9213
2.91652
2.91518
2.91773
2.92285
2.92934
2.93534
1
1
1
1
1
1
1
1
1
1
1
1
1
1
1
1
1
1
1
1
1
1
1
1
1
1
1
1
1
1
1
1
1
1
1
1
1
1
1
1
1
1
1
1
1
1
1
1
1
1
1
1
1
1
1
1
1
1
1
1
1
1.35835
2.57641
2.85745
2.87801
2.88659
2.89138
2.89434
2.89765
2.90172
2.90419
2.90448
2.90321
2.90001
2.89516
2.88959
2.88679
2.888
2.89181
2.89777
2.90637
2.91512
2.92089
2.9243
2.92622
2.92695
2.92714
2.92632
2.92319
2.91792
2.91393
2.91367
2.91665
2.92189
2.92834
2.93423
1
1
1
1
1
1
1
1
1
1
1
1
1
1
1
1
1
1
1
1
1
1
1
1
1
1
1
1
1
1
1
1
1
1
1
1
1
1
1
1
1
1
1
1
1
1
1
1
1
1
1
1
1
1
1
1
1
1
1
1
1
1.32957
2.56167
2.85941
2.87999
2.88823
2.89259
2.89506
2.89837
2.90217
2.90417
2.90413
2.90247
2.89896
2.89391
2.88868
2.88655
2.88818
2.89184
2.89799
2.90695
2.91555
2.921
2.92417
2.92573
2.92585
2.92543
2.92369
2.91962
2.91403
2.91089
2.91159
2.91508
2.92065
2.92731
2.93338
1
1
1
1
1
1
1
1
1
1
1
1
1
1
1
1
1
1
1
1
1
1
1
1
1
1
1
1
1
1
1
1
1
1
1
1
1
1
1
1
1
1
1
1
1
1
1
1
1
1
1
1
1
1
1
1
1
1
1
1
1
1.29844
2.54571
2.86196
2.88235
2.89001
2.89374
2.8958
2.89918
2.90266
2.90412
2.90371
2.90154
2.89765
2.89246
2.88782
2.88654
2.88851
2.89209
2.89845
2.9076
2.91579
2.92089
2.92387
2.92522
2.92495
2.92393
2.92127
2.91608
2.91003
2.90767
2.90901
2.91283
2.91871
2.92573
2.93219
1
1
1
1
1
1
1
1
1
1
1
1
1
1
1
1
1
1
1
1
1
1
1
1
1
1
1
1
1
1
1
1
1
1
1
1
1
1
1
1
1
1
1
1
1
1
1
1
1
1
1
1
1
1
1
1
1
1
1
1
1
1.26546
2.52875
2.86513
2.88508
2.89185
2.8948
2.89655
2.90005
2.90316
2.90408
2.90319
2.9004
2.89606
2.89083
2.88705
2.88676
2.88899
2.89267
2.89925
2.90834
2.91583
2.92046
2.9233
2.92456
2.92408
2.92258
2.91908
2.91282
2.90646
2.90474
2.90631
2.91019
2.91617
2.92345
2.93019
1
1
1
1
1
1
1
1
1
1
1
1
1
1
1
1
1
1
1
1
1
1
1
1
1
1
1
1
1
1
1
1
1
1
1
1
1
1
1
1
1
1
1
1
1
1
1
1
1
1
1
1
1
1
1
1
1
1
1
1
1
1.23117
2.51108
2.86897
2.88813
2.89368
2.89575
2.89731
2.90095
2.90365
2.90405
2.90259
2.89904
2.89414
2.88909
2.88638
2.88718
2.88964
2.89362
2.90046
2.90923
2.9157
2.91972
2.92236
2.92359
2.92307
2.92122
2.91694
2.90983
2.90362
2.90254
2.90409
2.90773
2.91364
2.92095
2.92745
1
1
1
1
1
1
1
1
1
1
1
1
1
1
1
1
1
1
1
1
1
1
1
1
1
1
1
1
1
1
1
1
1
1
1
1
1
1
1
1
1
1
1
1
1
1
1
1
1
1
1
1
1
1
1
1
1
1
1
1
1
1.1962
2.49295
2.87351
2.8914
2.89544
2.89662
2.89809
2.90179
2.9041
2.90406
2.90188
2.89749
2.89192
2.88732
2.88585
2.88766
2.89049
2.89497
2.9021
2.91029
2.91553
2.91877
2.92104
2.92216
2.92171
2.91959
2.91459
2.90698
2.9016
2.90108
2.90265
2.90615
2.91186
2.91897
2.92473
1
1
1
1
1
1
1
1
1
1
1
1
1
1
1
1
1
1
1
1
1
1
1
1
1
1
1
1
1
1
1
1
1
1
1
1
1
1
1
1
1
1
1
1
1
1
1
1
1
1
1
1
1
1
1
1
1
1
1
1
1
1.16122
2.4746
2.87872
2.89474
2.89712
2.89745
2.89888
2.90253
2.90448
2.90404
2.90109
2.89577
2.88956
2.8857
2.88549
2.88815
2.8915
2.89663
2.90414
2.91153
2.91544
2.91778
2.91946
2.92028
2.91983
2.91737
2.91168
2.90414
2.90021
2.90015
2.90192
2.90551
2.9112
2.91801
2.92277
1
1
1
1
1
1
1
1
1
1
1
1
1
1
1
1
1
1
1
1
1
1
1
1
1
1
1
1
1
1
1
1
1
1
1
1
1
1
1
1
1
1
1
1
1
1
1
1
1
1
1
1
1
1
1
1
1
1
1
1
1
1.12695
2.45618
2.88447
2.89798
2.89877
2.89829
2.89969
2.90315
2.90475
2.90393
2.90018
2.89386
2.88727
2.88441
2.88538
2.88856
2.89253
2.89855
2.90645
2.91284
2.91549
2.91691
2.91789
2.91817
2.91739
2.91426
2.90791
2.90125
2.89903
2.89946
2.90164
2.90552
2.91149
2.91796
2.9218
1
1
1
1
1
1
1
1
1
1
1
1
1
1
1
1
1
1
1
1
1
1
1
1
1
1
1
1
1
1
1
1
1
1
1
1
1
1
1
1
1
1
1
1
1
1
1
1
1
1
1
1
1
1
1
1
1
1
1
1
1
1.09407
2.43771
2.89055
2.90099
2.9005
2.89916
2.90048
2.90362
2.90489
2.90366
2.89904
2.89178
2.88533
2.88371
2.8855
2.88892
2.8936
2.90066
2.90879
2.91399
2.91564
2.91627
2.91651
2.91618
2.91449
2.91029
2.9033
2.89834
2.89762
2.89873
2.90153
2.90606
2.91241
2.91852
2.92163
1
1
1
1
1
1
1
1
1
1
1
1
1
1
1
1
1
1
1
1
1
1
1
1
1
1
1
1
1
1
1
1
1
1
1
1
1
1
1
1
1
1
1
1
1
1
1
1
1
1
1
1
1
1
1
1
1
1
1
1
1
1.06308
2.41909
2.89671
2.90375
2.90219
2.90016
2.90125
2.90395
2.90484
2.90309
2.89753
2.88962
2.88404
2.8836
2.88578
2.88935
2.89482
2.90289
2.91078
2.91474
2.91578
2.91583
2.91549
2.91428
2.91148
2.90591
2.89863
2.89553
2.89575
2.89766
2.90125
2.90668
2.91353
2.91921
2.92182
1
1
1
1
1
1
1
1
1
1
1
1
1
1
1
1
1
1
1
1
1
1
1
1
1
1
1
1
1
1
1
1
1
1
1
1
1
1
1
1
1
1
1
1
1
1
1
1
1
1
1
1
1
1
1
1
1
1
1
1
1
1.0345
2.40033
2.9026
2.90631
2.90381
2.90141
2.90197
2.90418
2.90459
2.90212
2.89553
2.88756
2.88353
2.88398
2.88629
2.89004
2.89638
2.90511
2.91208
2.91499
2.91575
2.9155
2.91463
2.91255
2.90849
2.90154
2.89464
2.89304
2.8938
2.89625
2.90056
2.90697
2.91423
2.91947
2.92178
1
1
1
1
1
1
1
1
1
1
1
1
1
1
1
1
1
1
1
1
1
1
1
1
1
1
1
1
1
1
1
1
1
1
1
1
1
1
1
1
1
1
1
1
1
1
1
1
1
1
1
1
1
1
1
1
1
1
1
1
1
1.01082
2.38193
2.90784
2.90885
2.90535
2.90284
2.9026
2.90442
2.90422
2.90057
2.89297
2.88583
2.88372
2.88474
2.88711
2.89127
2.89846
2.90713
2.91259
2.9147
2.91532
2.91498
2.91375
2.91087
2.90538
2.89748
2.89192
2.89125
2.89225
2.89506
2.89991
2.907
2.91424
2.91887
2.92096
1
1
1
1
1
1
1
1
1
1
1
1
1
1
1
1
1
1
1
1
1
1
1
1
1
1
1
1
1
1
1
1
1
1
1
1
1
1
1
1
1
1
1
1
1
1
1
1
1
1
1
1
1
1
1
1
1
1
1
1
1
1.00002
2.36501
2.91223
2.91154
2.90679
2.9043
2.90339
2.90477
2.90363
2.89834
2.89007
2.88462
2.88425
2.88568
2.88841
2.89327
2.90113
2.90882
2.91245
2.91384
2.91434
2.914
2.91244
2.90869
2.90212
2.89419
2.89056
2.89031
2.89146
2.89446
2.89974
2.90707
2.91369
2.91743
2.9192
1
1
1
1
1
1
1
1
1
1
1
1
1
1
1
1
1
1
1
1
1
1
1
1
1
1
1
1
1
1
1
1
1
1
1
1
1
1
1
1
1
1
1
1
1
1
1
1
1
1
1
1
1
1
1
1
1
1
1
1
1
1
2.34915
2.91603
2.91423
2.90818
2.90578
2.90446
2.90515
2.90265
2.89545
2.88723
2.88395
2.88471
2.88679
2.89021
2.89612
2.9043
2.91008
2.91199
2.91276
2.91299
2.91245
2.91032
2.90581
2.89852
2.89187
2.89007
2.89004
2.8914
2.8947
2.90047
2.90774
2.91314
2.91573
2.91691
1
1
1
1
1
1
1
1
1
1
1
1
1
1
1
1
1
1
1
1
1
1
1
1
1
1
1
1
1
1
1
1
1
1
1
1
1
1
1
1
1
1
1
1
1
1
1
1
1
1
1
1
1
1
1
1
1
1
1
1
1
1
2.33334
2.91968
2.91687
2.90943
2.90725
2.90579
2.90546
2.90112
2.89218
2.88493
2.88374
2.8851
2.88793
2.89248
2.89971
2.90747
2.91093
2.91162
2.91179
2.91154
2.91034
2.90754
2.90205
2.89461
2.89044
2.8898
2.89014
2.89198
2.89595
2.90235
2.90911
2.9129
2.91431
2.91471
1
1
1
1
1
1
1
1
1
1
1
1
1
1
1
1
1
1
1
1
1
1
1
1
1
1
1
1
1
1
1
1
1
1
1
1
1
1
1
1
1
1
1
1
1
1
1
1
1
1
1
1
1
1
1
1
1
1
1
1
1
1
2.31772
2.9232
2.91935
2.91055
2.90851
2.90708
2.90561
2.89917
2.8891
2.88362
2.88364
2.88544
2.88916
2.89521
2.90359
2.90995
2.91154
2.91154
2.91114
2.91004
2.90784
2.90395
2.8973
2.891
2.88925
2.88926
2.8903
2.89295
2.89792
2.90485
2.91054
2.91279
2.91325
2.91302
1
1
1
1
1
1
1
1
1
1
1
1
1
1
1
1
1
1
1
1
1
1
1
1
1
1
1
1
1
1
1
1
1
1
1
1
1
1
1
1
1
1
1
1
1
1
1
1
1
1
1
1
1
1
1
1
1
1
1
1
1
1
2.30233
2.92669
2.92153
2.91147
2.90948
2.90813
2.90535
2.89689
2.88682
2.88324
2.88361
2.88587
2.89071
2.89838
2.90706
2.9114
2.91199
2.91166
2.91067
2.90862
2.90523
2.89968
2.89215
2.8881
2.88769
2.8883
2.89017
2.8939
2.90005
2.90715
2.91141
2.91256
2.9125
2.91166
1
1
1
1
1
1
1
1
1
1
1
1
1
1
1
1
1
1
1
1
1
1
1
1
1
1
1
1
1
1
1
1
1
1
1
1
1
1
1
1
1
1
1
1
1
1
1
1
1
1
1
1
1
1
1
1
1
1
1
1
1
1
2.28697
2.93021
2.92335
2.91206
2.91023
2.90877
2.90442
2.89443
2.88565
2.88346
2.88385
2.88676
2.89289
2.90178
2.90946
2.912
2.91221
2.91169
2.91019
2.90724
2.90242
2.89515
2.88784
2.88585
2.88589
2.88706
2.88979
2.89476
2.902
2.9086
2.91157
2.91203
2.91166
2.91023
1
1
1
1
1
1
1
1
1
1
1
1
1
1
1
1
1
1
1
1
1
1
1
1
1
1
1
1
1
1
1
1
1
1
1
1
1
1
1
1
1
1
1
1
1
1
1
1
1
1
1
1
1
1
1
1
1
1
1
1
1
1
2.27133
2.9338
2.92484
2.91226
2.91078
2.9089
2.90272
2.89208
2.88546
2.88395
2.88466
2.88848
2.89588
2.90501
2.91066
2.912
2.91206
2.91137
2.90935
2.90553
2.89918
2.89083
2.88522
2.88419
2.88436
2.88598
2.88953
2.89578
2.90356
2.90898
2.91087
2.91096
2.91027
2.90831
1
1
1
1
1
1
1
1
1
1
1
1
1
1
1
1
1
1
1
1
1
1
1
1
1
1
1
1
1
1
1
1
1
1
1
1
1
1
1
1
1
1
1
1
1
1
1
1
1
1
1
1
1
1
1
1
1
1
1
1
1
1
2.25547
2.93709
2.92609
2.91215
2.91112
2.90838
2.90039
2.89023
2.88576
2.88468
2.88608
2.89115
2.89958
2.90772
2.91103
2.91155
2.91141
2.91046
2.90798
2.90313
2.89534
2.88721
2.88388
2.88312
2.8835
2.88553
2.89003
2.89732
2.90457
2.90827
2.90924
2.90911
2.90805
2.90563
1
1
1
1
1
1
1
1
1
1
1
1
1
1
1
1
1
1
1
1
1
1
1
1
1
1
1
1
1
1
1
1
1
1
1
1
1
1
1
1
1
1
1
1
1
1
1
1
1
1
1
1
1
1
1
1
1
1
1
1
1
1
2.23918
2.93957
2.92701
2.91234
2.91119
2.90707
2.89779
2.88912
2.88613
2.88569
2.88802
2.89458
2.90356
2.90981
2.91118
2.91094
2.91037
2.90898
2.90578
2.89965
2.89098
2.88468
2.88311
2.88261
2.88336
2.88613
2.89187
2.8995
2.90498
2.90688
2.90707
2.90658
2.90498
2.90203
1
1
1
1
1
1
1
1
1
1
1
1
1
1
1
1
1
1
1
1
1
1
1
1
1
1
1
1
1
1
1
1
1
1
1
1
1
1
1
1
1
1
1
1
1
1
1
1
1
1
1
1
1
1
1
1
1
1
1
1
1
1
2.22211
2.94092
2.92745
2.91274
2.91109
2.90543
2.89562
2.88871
2.88652
2.88673
2.89041
2.89844
2.90731
2.91145
2.9115
2.91046
2.9092
2.907
2.9026
2.89501
2.88667
2.88319
2.88235
2.88241
2.88396
2.88807
2.89506
2.90193
2.9051
2.90549
2.90499
2.90367
2.90132
2.89752
1
1
1
1
1
1
1
1
1
1
1
1
1
1
1
1
1
1
1
1
1
1
1
1
1
1
1
1
1
1
1
1
1
1
1
1
1
1
1
1
1
1
1
1
1
1
1
1
1
1
1
1
1
1
1
1
1
1
1
1
1
1
2.20403
2.94099
2.92736
2.91316
2.91086
2.90393
2.89434
2.88872
2.88697
2.88791
2.8931
2.90235
2.91048
2.91288
2.91198
2.91027
2.90818
2.90472
2.89855
2.88973
2.88321
2.88176
2.88146
2.88237
2.88528
2.89118
2.89893
2.90399
2.90521
2.90462
2.90319
2.90096
2.89757
2.89244
1
1
1
1
1
1
1
1
1
1
1
1
1
1
1
1
1
1
1
1
1
1
1
1
1
1
1
1
1
1
1
1
1
1
1
1
1
1
1
1
1
1
1
1
1
1
1
1
1
1
1
1
1
1
1
1
1
1
1
1
1
1
2.18495
2.93961
2.92675
2.91341
2.91053
2.90286
2.89403
2.8891
2.88766
2.88935
2.89598
2.90597
2.91292
2.91402
2.91249
2.91026
2.90729
2.90223
2.89401
2.88491
2.88083
2.88008
2.88046
2.88254
2.88724
2.89494
2.90235
2.90537
2.9053
2.90397
2.90178
2.89867
2.89403
2.88733
1
1
1
1
1
1
1
1
1
1
1
1
1
1
1
1
1
1
1
1
1
1
1
1
1
1
1
1
1
1
1
1
1
1
1
1
1
1
1
1
1
1
1
1
1
1
1
1
1
1
1
1
1
1
1
1
1
1
1
1
1
1
2.16507
2.93679
2.92566
2.91335
2.91011
2.90228
2.89461
2.88998
2.88878
2.89119
2.89897
2.90906
2.91461
2.91483
2.91287
2.91023
2.90627
2.89942
2.88955
2.88148
2.87912
2.87855
2.87968
2.88311
2.88978
2.89863
2.90457
2.90594
2.90515
2.90329
2.90049
2.89651
2.89042
2.88262
1
1
1
1
1
1
1
1
1
1
1
1
1
1
1
1
1
1
1
1
1
1
1
1
1
1
1
1
1
1
1
1
1
1
1
1
1
1
1
1
1
1
1
1
1
1
1
1
1
1
1
1
1
1
1
1
1
1
1
1
1
1
2.14456
2.93275
2.92405
2.91303
2.90953
2.90207
2.89578
2.89139
2.89048
2.89357
2.90211
2.91159
2.91565
2.91527
2.91297
2.90989
2.90482
2.89623
2.88574
2.87961
2.87798
2.87766
2.8795
2.88442
2.89282
2.90157
2.90555
2.90578
2.90457
2.90228
2.8989
2.89382
2.88628
2.87875
1
1
1
1
1
1
1
1
1
1
1
1
1
1
1
1
1
1
1
1
1
1
1
1
1
1
1
1
1
1
1
1
1
1
1
1
1
1
1
1
1
1
1
1
1
1
1
1
1
1
1
1
1
1
1
1
1
1
1
1
1
1
2.12334
2.92764
2.92209
2.91223
2.90865
2.90213
2.89714
2.89323
2.8927
2.89656
2.90551
2.91375
2.9163
2.91527
2.91263
2.90899
2.90274
2.89276
2.88292
2.87889
2.87743
2.87758
2.88032
2.88682
2.89624
2.90344
2.90554
2.90505
2.90341
2.90066
2.89648
2.88997
2.88162
2.87608
1
1
1
1
1
1
1
1
1
1
1
1
1
1
1
1
1
1
1
1
1
1
1
1
1
1
1
1
1
1
1
1
1
1
1
1
1
1
1
1
1
1
1
1
1
1
1
1
1
1
1
1
1
1
1
1
1
1
1
1
1
1
2.10124
2.92169
2.92014
2.91078
2.90745
2.9023
2.89843
2.89524
2.89526
2.90014
2.90917
2.91576
2.91688
2.91493
2.91183
2.90749
2.89999
2.88925
2.88115
2.87866
2.87749
2.87836
2.88237
2.89039
2.89968
2.90452
2.90502
2.90391
2.90171
2.89824
2.8928
2.8848
2.87719
2.8741
1
1
1
1
1
1
1
1
1
1
1
1
1
1
1
1
1
1
1
1
1
1
1
1
1
1
1
1
1
1
1
1
1
1
1
1
1
1
1
1
1
1
1
1
1
1
1
1
1
1
1
1
1
1
1
1
1
1
1
1
1
1
2.07814
2.91514
2.91819
2.90866
2.90609
2.90239
2.89949
2.89715
2.89804
2.90413
2.91296
2.91781
2.91769
2.91462
2.91088
2.90556
2.89677
2.88608
2.88019
2.87851
2.87802
2.87985
2.88542
2.89465
2.90265
2.90526
2.90457
2.90273
2.89974
2.89509
2.88789
2.87908
2.87377
2.87198
1
1
1
1
1
1
1
1
1
1
1
1
1
1
1
1
1
1
1
1
1
1
1
1
1
1
1
1
1
1
1
1
1
1
1
1
1
1
1
1
1
1
1
1
1
1
1
1
1
1
1
1
1
1
1
1
1
1
1
1
1
1
2.05405
2.90793
2.91585
2.90638
2.90466
2.90234
2.90025
2.89886
2.90093
2.90829
2.91666
2.91992
2.91867
2.91464
2.91008
2.9035
2.89348
2.88358
2.87964
2.87834
2.87872
2.88178
2.88899
2.89878
2.90498
2.90586
2.90439
2.90182
2.89779
2.89143
2.88234
2.8742
2.87111
2.86976
1
1
1
1
1
1
1
1
1
1
1
1
1
1
1
1
1
1
1
1
1
1
1
1
1
1
1
1
1
1
1
1
1
1
1
1
1
1
1
1
1
1
1
1
1
1
1
1
1
1
1
1
1
1
1
1
1
1
1
1
1
1
2.0287
2.8998
2.91323
2.9041
2.90327
2.9022
2.90075
2.90031
2.90384
2.9124
2.92004
2.92197
2.91968
2.91499
2.90954
2.90158
2.89065
2.88201
2.87921
2.87831
2.87948
2.88393
2.89256
2.9021
2.90657
2.90632
2.90434
2.90112
2.89583
2.88738
2.8772
2.871
2.86892
2.86801
1
1
1
1
1
1
1
1
1
1
1
1
1
1
1
1
1
1
1
1
1
1
1
1
1
1
1
1
1
1
1
1
1
1
1
1
1
1
1
1
1
1
1
1
1
1
1
1
1
1
1
1
1
1
1
1
1
1
1
1
1
1
2.00195
2.89059
2.91044
2.90197
2.90205
2.9021
2.90105
2.90153
2.9068
2.91626
2.92292
2.92375
2.92061
2.91548
2.90918
2.89994
2.88866
2.88143
2.87903
2.87853
2.88043
2.88617
2.89576
2.90445
2.90741
2.9065
2.90421
2.90028
2.89348
2.88311
2.87335
2.86922
2.86738
2.86713
1
1
1
1
1
1
1
1
1
1
1
1
1
1
1
1
1
1
1
1
1
1
1
1
1
1
1
1
1
1
1
1
1
1
1
1
1
1
1
1
1
1
1
1
1
1
1
1
1
1
1
1
1
1
1
1
1
1
1
1
1
1
1.97421
2.88045
2.90747
2.90002
2.90114
2.90197
2.9013
2.90281
2.90979
2.91975
2.92522
2.92516
2.92134
2.9159
2.90882
2.89857
2.8876
2.88175
2.87935
2.87923
2.88178
2.88854
2.8985
2.90589
2.90762
2.90629
2.90368
2.89888
2.8904
2.87894
2.871
2.86822
2.86669
2.86726
1
1
1
1
1
1
1
1
1
1
1
1
1
1
1
1
1
1
1
1
1
1
1
1
1
1
1
1
1
1
1
1
1
1
1
1
1
1
1
1
1
1
1
1
1
1
1
1
1
1
1
1
1
1
1
1
1
1
1
1
1
1
1.94593
2.86961
2.90435
2.89825
2.90055
2.90167
2.90163
2.90434
2.91292
2.92282
2.92689
2.92606
2.92186
2.91615
2.90834
2.89743
2.88736
2.88272
2.88035
2.88054
2.88367
2.89117
2.90089
2.90669
2.9073
2.90556
2.90248
2.89662
2.88654
2.8753
2.86969
2.86752
2.86671
2.8684
1
1
1
1
1
1
1
1
1
1
1
1
1
1
1
1
1
1
1
1
1
1
1
1
1
1
1
1
1
1
1
1
1
1
1
1
1
1
1
1
1
1
1
1
1
1
1
1
1
1
1
1
1
1
1
1
1
1
1
1
1
1
1.9175
2.85825
2.90116
2.89674
2.90014
2.9013
2.90201
2.90617
2.91615
2.92536
2.92806
2.92655
2.9222
2.91617
2.90764
2.89645
2.88774
2.88393
2.88185
2.88234
2.88608
2.89415
2.90306
2.90718
2.90665
2.90444
2.90067
2.89347
2.88223
2.87243
2.86876
2.86702
2.86723
2.87037
1
1
1
1
1
1
1
1
1
1
1
1
1
1
1
1
1
1
1
1
1
1
1
1
1
1
1
1
1
1
1
1
1
1
1
1
1
1
1
1
1
1
1
1
1
1
1
1
1
1
1
1
1
1
1
1
1
1
1
1
1
1
1.88923
2.84655
2.8981
2.89557
2.89981
2.90091
2.9024
2.90823
2.9193
2.92733
2.92884
2.92686
2.92244
2.916
2.90671
2.89566
2.88847
2.88509
2.88354
2.88439
2.8889
2.89743
2.90519
2.90763
2.90609
2.90326
2.89845
2.88975
2.87807
2.87036
2.86787
2.86673
2.86811
2.87288
1
1
1
1
1
1
1
1
1
1
1
1
1
1
1
1
1
1
1
1
1
1
1
1
1
1
1
1
1
1
1
1
1
1
1
1
1
1
1
1
1
1
1
1
1
1
1
1
1
1
1
1
1
1
1
1
1
1
1
1
1
1
1.86115
2.83458
2.89535
2.89485
2.89946
2.90051
2.9028
2.91034
2.92197
2.92872
2.92931
2.92718
2.9227
2.91571
2.90566
2.89509
2.88923
2.88613
2.88516
2.8865
2.89194
2.90079
2.90723
2.9082
2.90579
2.90223
2.89616
2.88601
2.87474
2.86907
2.8671
2.86673
2.86931
2.87572
1
1
1
1
1
1
1
1
1
1
1
1
1
1
1
1
1
1
1
1
1
1
1
1
1
1
1
1
1
1
1
1
1
1
1
1
1
1
1
1
1
1
1
1
1
1
1
1
1
1
1
1
1
1
1
1
1
1
1
1
1
1
1.83302
2.82232
2.8931
2.89457
2.89909
2.9002
2.90336
2.91233
2.92388
2.92949
2.92956
2.92756
2.92297
2.91534
2.90467
2.89484
2.88993
2.8871
2.88662
2.88861
2.89503
2.90392
2.90901
2.90876
2.90567
2.90134
2.89398
2.88278
2.87261
2.86851
2.86677
2.86717
2.87099
2.87883
1
1
1
1
1
1
1
1
1
1
1
1
1
1
1
1
1
1
1
1
1
1
1
1
1
1
1
1
1
1
1
1
1
1
1
1
1
1
1
1
1
1
1
1
1
1
1
1
1
1
1
1
1
1
1
1
1
1
1
1
1
1
1.80444
2.80961
2.89136
2.89472
2.89883
2.90016
2.90418
2.9141
2.92501
2.9297
2.92958
2.92783
2.9231
2.91487
2.90384
2.89499
2.8907
2.88808
2.888
2.89078
2.89805
2.90661
2.91038
2.90909
2.90558
2.90045
2.89193
2.88031
2.87168
2.86858
2.86713
2.86834
2.87329
2.8822
1
1
1
1
1
1
1
1
1
1
1
1
1
1
1
1
1
1
1
1
1
1
1
1
1
1
1
1
1
1
1
1
1
1
1
1
1
1
1
1
1
1
1
1
1
1
1
1
1
1
1
1
1
1
1
1
1
1
1
1
1
1
1.77518
2.79633
2.89008
2.89523
2.89893
2.90061
2.90531
2.91562
2.92552
2.92933
2.92932
2.92777
2.92286
2.91417
2.90318
2.89553
2.89164
2.88929
2.88957
2.89311
2.901
2.90885
2.9113
2.90918
2.90528
2.8994
2.88997
2.87862
2.87167
2.8692
2.8683
2.87027
2.87621
2.88584
1
1
1
1
1
1
1
1
1
1
1
1
1
1
1
1
1
1
1
1
1
1
1
1
1
1
1
1
1
1
1
1
1
1
1
1
1
1
1
1
1
1
1
1
1
1
1
1
1
1
1
1
1
1
1
1
1
1
1
1
1
1
1.74535
2.78251
2.88909
2.8959
2.8996
2.90158
2.90679
2.91698
2.92561
2.92847
2.92869
2.9271
2.92204
2.91306
2.9025
2.89629
2.89278
2.89086
2.89149
2.89578
2.90401
2.91075
2.91193
2.90907
2.90472
2.89814
2.88812
2.87757
2.87223
2.87017
2.86993
2.87271
2.87957
2.8896
1
1
1
1
1
1
1
1
1
1
1
1
1
1
1
1
1
1
1
1
1
1
1
1
1
1
1
1
1
1
1
1
1
1
1
1
1
1
1
1
1
1
1
1
1
1
1
1
1
1
1
1
1
1
1
1
1
1
1
1
1
1
1.71543
2.76835
2.88831
2.89656
2.90074
2.90298
2.9086
2.9183
2.9255
2.92747
2.92767
2.92588
2.92057
2.9114
2.90169
2.89697
2.89401
2.89271
2.89383
2.89894
2.90715
2.91252
2.91254
2.90888
2.90402
2.89678
2.88647
2.87698
2.87291
2.87125
2.87166
2.87531
2.88303
2.89327
1
1
1
1
1
1
1
1
1
1
1
1
1
1
1
1
1
1
1
1
1
1
1
1
1
1
1
1
1
1
1
1
1
1
1
1
1
1
1
1
1
1
1
1
1
1
1
1
1
1
1
1
1
1
1
1
1
1
1
1
1
1
1.68612
2.75423
2.88768
2.89712
2.90213
2.90463
2.91061
2.91964
2.92538
2.92654
2.9265
2.92424
2.9185
2.9092
2.90071
2.89738
2.89514
2.89463
2.89653
2.90255
2.91043
2.91437
2.91326
2.9089
2.90345
2.89555
2.88514
2.8767
2.87348
2.87225
2.87331
2.87777
2.8863
2.89655
1
1
1
1
1
1
1
1
1
1
1
1
1
1
1
1
1
1
1
1
1
1
1
1
1
1
1
1
1
1
1
1
1
1
1
1
1
1
1
1
1
1
1
1
1
1
1
1
1
1
1
1
1
1
1
1
1
1
1
1
1
1
1.65807
2.74054
2.88715
2.89767
2.90346
2.90634
2.91268
2.92101
2.92539
2.92586
2.92541
2.92243
2.91603
2.90664
2.8996
2.89748
2.89604
2.89641
2.89947
2.90635
2.91369
2.91635
2.9142
2.90927
2.90323
2.89469
2.88425
2.87668
2.874
2.87312
2.87475
2.87998
2.88921
2.89922
1
1
1
1
1
1
1
1
1
1
1
1
1
1
1
1
1
1
1
1
1
1
1
1
1
1
1
1
1
1
1
1
1
1
1
1
1
1
1
1
1
1
1
1
1
1
1
1
1
1
1
1
1
1
1
1
1
1
1
1
1
1
1.63163
2.72757
2.88676
2.89817
2.9046
2.90795
2.91463
2.92232
2.92553
2.92552
2.92451
2.92065
2.91343
2.90404
2.89846
2.89726
2.89663
2.89799
2.90235
2.91001
2.91673
2.91833
2.91536
2.91
2.90341
2.89431
2.88383
2.87699
2.87461
2.874
2.87612
2.88201
2.89174
2.90117
1
1
1
1
1
1
1
1
1
1
1
1
1
1
1
1
1
1
1
1
1
1
1
1
1
1
1
1
1
1
1
1
1
1
1
1
1
1
1
1
1
1
1
1
1
1
1
1
1
1
1
1
1
1
1
1
1
1
1
1
1
1
1.60688
2.71546
2.88657
2.89864
2.90554
2.90939
2.91636
2.92344
2.92573
2.92547
2.92379
2.91901
2.91092
2.90165
2.89741
2.89682
2.89688
2.89935
2.90496
2.91326
2.91935
2.92017
2.91661
2.91099
2.90392
2.89433
2.88386
2.87767
2.87545
2.87506
2.8776
2.88401
2.89397
2.90251
1
1
1
1
1
1
1
1
1
1
1
1
1
1
1
1
1
1
1
1
1
1
1
1
1
1
1
1
1
1
1
1
1
1
1
1
1
1
1
1
1
1
1
1
1
1
1
1
1
1
1
1
1
1
1
1
1
1
1
1
1
1
1.58379
2.70422
2.88661
2.89916
2.90636
2.91065
2.9178
2.92433
2.92593
2.92552
2.92319
2.91752
2.90864
2.89963
2.89646
2.89625
2.89694
2.90045
2.90715
2.91596
2.92146
2.92172
2.91781
2.91209
2.90468
2.89462
2.88424
2.8787
2.87658
2.87642
2.87936
2.88615
2.89604
2.90348
1
1
1
1
1
1
1
1
1
1
1
1
1
1
1
1
1
1
1
1
1
1
1
1
1
1
1
1
1
1
1
1
1
1
1
1
1
1
1
1
1
1
1
1
1
1
1
1
1
1
1
1
1
1
1
1
1
1
1
1
1
1
1.56225
2.69377
2.88687
2.89976
2.90715
2.91179
2.91898
2.92496
2.92608
2.92556
2.92264
2.91616
2.90664
2.89802
2.89563
2.89564
2.89692
2.9013
2.90896
2.91812
2.92307
2.92292
2.9189
2.91322
2.90555
2.89508
2.88487
2.87999
2.87797
2.8781
2.88138
2.88841
2.89804
2.90429
1
1
1
1
1
1
1
1
1
1
1
1
1
1
1
1
1
1
1
1
1
1
1
1
1
1
1
1
1
1
1
1
1
1
1
1
1
1
1
1
1
1
1
1
1
1
1
1
1
1
1
1
1
1
1
1
1
1
1
1
1
1
1.54233
2.68413
2.88727
2.90045
2.90796
2.91286
2.91994
2.9254
2.92617
2.92554
2.9221
2.9149
2.90491
2.89676
2.89492
2.89505
2.89683
2.90193
2.91044
2.91985
2.9243
2.92381
2.9199
2.91437
2.90645
2.89555
2.8857
2.88146
2.87957
2.88001
2.8835
2.89066
2.89986
2.905
1
1
1
1
1
1
1
1
1
1
1
1
1
1
1
1
1
1
1
1
1
1
1
1
1
1
1
1
1
1
1
1
1
1
1
1
1
1
1
1
1
1
1
1
1
1
1
1
1
1
1
1
1
1
1
1
1
1
1
1
1
1
1.52426
2.67536
2.88774
2.90117
2.90878
2.91384
2.92074
2.9257
2.92622
2.92548
2.9216
2.91379
2.90344
2.89576
2.89429
2.89444
2.89663
2.9023
2.91159
2.92117
2.92522
2.92447
2.92093
2.9156
2.90738
2.89608
2.88679
2.88307
2.8813
2.88196
2.88554
2.89268
2.90135
2.9055
1
1
1
1
1
1
1
1
1
1
1
1
1
1
1
1
1
1
1
1
1
1
1
1
1
1
1
1
1
1
1
1
1
1
1
1
1
1
1
1
1
1
1
1
1
1
1
1
1
1
1
1
1
1
1
1
1
1
1
1
1
1
1.50827
2.66757
2.88823
2.90188
2.90954
2.91469
2.92139
2.92594
2.92627
2.92542
2.92118
2.91285
2.90224
2.89497
2.8937
2.89381
2.89627
2.90236
2.91232
2.92204
2.92581
2.92501
2.92206
2.91697
2.90842
2.8968
2.88823
2.88482
2.8831
2.88385
2.88736
2.89433
2.90237
2.90571
1
1
1
1
1
1
1
1
1
1
1
1
1
1
1
1
1
1
1
1
1
1
1
1
1
1
1
1
1
1
1
1
1
1
1
1
1
1
1
1
1
1
1
1
1
1
1
1
1
1
1
1
1
1
1
1
1
1
1
1
1
1
1.49456
2.66086
2.88871
2.90253
2.9102
2.91538
2.92187
2.92611
2.92631
2.9254
2.92089
2.91213
2.90134
2.89442
2.89318
2.89319
2.89575
2.90214
2.91262
2.92243
2.92602
2.92539
2.92322
2.91847
2.90962
2.89784
2.89006
2.88673
2.88497
2.88564
2.88892
2.89557
2.90296
2.90565
1
1
1
1
1
1
1
1
1
1
1
1
1
1
1
1
1
1
1
1
1
1
1
1
1
1
1
1
1
1
1
1
1
1
1
1
1
1
1
1
1
1
1
1
1
1
1
1
1
1
1
1
1
1
1
1
1
1
1
1
1
1
1.4832
2.65528
2.88917
2.9031
2.91075
2.91587
2.92217
2.92618
2.92633
2.92541
2.92072
2.91164
2.90074
2.89415
2.89282
2.89268
2.89518
2.90171
2.91251
2.92234
2.92582
2.92551
2.92423
2.91991
2.91086
2.89915
2.89213
2.88874
2.88684
2.88732
2.89027
2.89652
2.90329
2.90543
1
1
1
1
1
1
1
1
1
1
1
1
1
1
1
1
1
1
1
1
1
1
1
1
1
1
1
1
1
1
1
1
1
1
1
1
1
1
1
1
1
1
1
1
1
1
1
1
1
1
1
1
1
1
1
1
1
1
1
1
1
1
1.47414
2.65084
2.88959
2.90358
2.91115
2.91619
2.9223
2.92616
2.92629
2.92541
2.92065
2.91136
2.90042
2.8941
2.89267
2.89235
2.89468
2.90117
2.91211
2.92181
2.92527
2.92545
2.92489
2.92104
2.91195
2.90049
2.89414
2.89064
2.88858
2.88882
2.8914
2.89728
2.90354
2.90528
1
1
1
1
1
1
1
1
1
1
1
1
1
1
1
1
1
1
1
1
1
1
1
1
1
1
1
1
1
1
1
1
1
1
1
1
1
1
1
1
1
1
1
1
1
1
1
1
1
1
1
1
1
1
1
1
1
1
1
1
1
1
1.46732
2.64751
2.88995
2.90393
2.91143
2.91638
2.92233
2.92608
2.92622
2.9254
2.92062
2.91122
2.9003
2.89423
2.8927
2.89223
2.89438
2.90076
2.91168
2.92116
2.92461
2.92529
2.92512
2.92166
2.91267
2.90156
2.89574
2.89217
2.88997
2.88999
2.89229
2.89788
2.9038
2.90526
1
1
1
1
1
1
1
1
1
1
1
1
1
1
1
1
1
1
1
1
1
1
1
1
1
1
1
1
1
1
1
1
1
1
1
1
1
1
1
1
1
1
1
1
1
1
1
1
1
1
1
1
1
1
1
1
1
1
1
1
1
1
1.46292
2.64544
2.89022
2.90416
2.91157
2.91646
2.9223
2.92599
2.92615
2.92538
2.92061
2.91114
2.90027
2.89443
2.89283
2.89225
2.89426
2.90057
2.91144
2.92073
2.92407
2.92502
2.92507
2.92186
2.91299
2.90219
2.8967
2.89315
2.89085
2.89073
2.89286
2.89831
2.90404
2.90533
1
1
1
1
1
1
1
1
1
1
1
1
1
1
1
1
1
1
1
1
1
1
1
1
1
1
1
1
1
1
1
1
1
1
1
1
1
1
1
1
1
1
1
1
1
1
1
1
1
1
1
1
1
1
1
1
1
1
1
1
1
1
1.46118
2.64464
2.89036
2.90429
2.91166
2.91652
2.92229
2.92595
2.92611
2.92535
2.92055
2.91105
2.90022
2.89455
2.89296
2.89233
2.8943
2.90059
2.91145
2.92059
2.9238
2.92483
2.92494
2.9218
2.91301
2.90238
2.89705
2.89354
2.89123
2.89107
2.89317
2.89862
2.90429
2.9055
1
1
1
1
1
1
1
1
1
1
1
1
1
1
1
1
1
1
1
1
1
1
1
1
1
1
1
1
1
1
1
1
1
1
1
1
1
1
1
1
1
1
1
1
1
1
1
1
1
1
1
1
1
1
1
1
1
1
1
1
1
1
1.46116
2.64463
2.89036
2.90429
2.91166
2.91651
2.92228
2.92594
2.92611
2.92535
2.92055
2.91105
2.90023
2.89456
2.89296
2.89233
2.8943
2.90059
2.91145
2.92059
2.9238
2.92483
2.92494
2.9218
2.91301
2.90238
2.89705
2.89354
2.89123
2.89107
2.89317
2.89862
2.90429
2.9055
1
1
1
1
1
1
1
1
1
1
1
1
1
1
1
1
1
1
1
1
1
1
1
1
1
1
1
1
1
1
1
1
1
1
1
1
1
1
1
1
1
1
1
1
1
1
1
1
1
1
1
1
1
1
1
1
1
1
1
1
1
1
1.46291
2.64544
2.89023
2.90416
2.91157
2.91646
2.92229
2.92598
2.92615
2.92538
2.92061
2.91115
2.90028
2.89444
2.89284
2.89225
2.89426
2.90057
2.91144
2.92073
2.92407
2.92503
2.92507
2.92187
2.913
2.90219
2.8967
2.89315
2.89085
2.89073
2.89286
2.89831
2.90404
2.90533
1
1
1
1
1
1
1
1
1
1
1
1
1
1
1
1
1
1
1
1
1
1
1
1
1
1
1
1
1
1
1
1
1
1
1
1
1
1
1
1
1
1
1
1
1
1
1
1
1
1
1
1
1
1
1
1
1
1
1
1
1
1
1.46727
2.64749
2.88996
2.90394
2.91142
2.91637
2.92232
2.92607
2.92622
2.9254
2.92063
2.91123
2.9003
2.89424
2.89271
2.89223
2.89438
2.90077
2.91168
2.92117
2.92461
2.9253
2.92513
2.92167
2.91267
2.90156
2.89574
2.89217
2.88996
2.88999
2.89228
2.89788
2.9038
2.90526
1
1
1
1
1
1
1
1
1
1
1
1
1
1
1
1
1
1
1
1
1
1
1
1
1
1
1
1
1
1
1
1
1
1
1
1
1
1
1
1
1
1
1
1
1
1
1
1
1
1
1
1
1
1
1
1
1
1
1
1
1
1
1.47405
2.6508
2.8896
2.90358
2.91114
2.91618
2.92229
2.92615
2.92629
2.92541
2.92065
2.91137
2.90042
2.89411
2.89267
2.89235
2.89469
2.90118
2.91212
2.92181
2.92528
2.92546
2.92491
2.92105
2.91195
2.9005
2.89414
2.89064
2.88857
2.88881
2.8914
2.89728
2.90354
2.90528
1
1
1
1
1
1
1
1
1
1
1
1
1
1
1
1
1
1
1
1
1
1
1
1
1
1
1
1
1
1
1
1
1
1
1
1
1
1
1
1
1
1
1
1
1
1
1
1
1
1
1
1
1
1
1
1
1
1
1
1
1
1
1.48309
2.65523
2.88917
2.9031
2.91074
2.91586
2.92216
2.92617
2.92633
2.92541
2.92073
2.91165
2.90074
2.89415
2.89283
2.89268
2.89519
2.90171
2.91252
2.92235
2.92583
2.92553
2.92424
2.91992
2.91086
2.89915
2.89213
2.88873
2.88684
2.88732
2.89026
2.89652
2.90329
2.90543
1
1
1
1
1
1
1
1
1
1
1
1
1
1
1
1
1
1
1
1
1
1
1
1
1
1
1
1
1
1
1
1
1
1
1
1
1
1
1
1
1
1
1
1
1
1
1
1
1
1
1
1
1
1
1
1
1
1
1
1
1
1
1.49443
2.6608
2.88871
2.90252
2.9102
2.91537
2.92187
2.9261
2.92631
2.92541
2.9209
2.91214
2.90134
2.89443
2.89319
2.89319
2.89576
2.90215
2.91263
2.92244
2.92603
2.9254
2.92323
2.91847
2.90962
2.89783
2.89006
2.88673
2.88496
2.88564
2.88892
2.89557
2.90296
2.90566
1
1
1
1
1
1
1
1
1
1
1
1
1
1
1
1
1
1
1
1
1
1
1
1
1
1
1
1
1
1
1
1
1
1
1
1
1
1
1
1
1
1
1
1
1
1
1
1
1
1
1
1
1
1
1
1
1
1
1
1
1
1
1.50812
2.6675
2.88823
2.90187
2.90953
2.91469
2.92139
2.92594
2.92627
2.92543
2.92119
2.91285
2.90224
2.89497
2.89371
2.89382
2.89628
2.90237
2.91234
2.92205
2.92581
2.92502
2.92206
2.91697
2.90842
2.89679
2.88823
2.88481
2.8831
2.88384
2.88736
2.89434
2.90238
2.90572
1
1
1
1
1
1
1
1
1
1
1
1
1
1
1
1
1
1
1
1
1
1
1
1
1
1
1
1
1
1
1
1
1
1
1
1
1
1
1
1
1
1
1
1
1
1
1
1
1
1
1
1
1
1
1
1
1
1
1
1
1
1
1.52409
2.67528
2.88774
2.90117
2.90877
2.91384
2.92074
2.92569
2.92622
2.92547
2.9216
2.91379
2.90344
2.89576
2.8943
2.89446
2.89664
2.90231
2.9116
2.92118
2.92523
2.92447
2.92093
2.91559
2.90737
2.89607
2.88679
2.88306
2.88129
2.88196
2.88555
2.89269
2.90136
2.90551
1
1
1
1
1
1
1
1
1
1
1
1
1
1
1
1
1
1
1
1
1
1
1
1
1
1
1
1
1
1
1
1
1
1
1
1
1
1
1
1
1
1
1
1
1
1
1
1
1
1
1
1
1
1
1
1
1
1
1
1
1
1
1.54215
2.68404
2.88727
2.90045
2.90796
2.91286
2.91994
2.92539
2.92616
2.92553
2.9221
2.91491
2.90492
2.89677
2.89494
2.89506
2.89685
2.90195
2.91046
2.91986
2.9243
2.92381
2.9199
2.91436
2.90644
2.89554
2.8857
2.88146
2.87957
2.88001
2.88351
2.89067
2.89988
2.90502
1
1
1
1
1
1
1
1
1
1
1
1
1
1
1
1
1
1
1
1
1
1
1
1
1
1
1
1
1
1
1
1
1
1
1
1
1
1
1
1
1
1
1
1
1
1
1
1
1
1
1
1
1
1
1
1
1
1
1
1
1
1
1.56206
2.69367
2.88687
2.89976
2.90715
2.91179
2.91898
2.92496
2.92608
2.92556
2.92263
2.91616
2.90665
2.89803
2.89564
2.89566
2.89694
2.90132
2.90898
2.91813
2.92307
2.92292
2.91889
2.91322
2.90554
2.89507
2.88487
2.87999
2.87798
2.87811
2.8814
2.88843
2.89806
2.90431
1
1
1
1
1
1
1
1
1
1
1
1
1
1
1
1
1
1
1
1
1
1
1
1
1
1
1
1
1
1
1
1
1
1
1
1
1
1
1
1
1
1
1
1
1
1
1
1
1
1
1
1
1
1
1
1
1
1
1
1
1
1
1.58359
2.70411
2.88661