/*--------------------------------*- C++ -*----------------------------------*\
  =========                 |
  \\      /  F ield         | OpenFOAM: The Open Source CFD Toolbox
   \\    /   O peration     | Website:  https://openfoam.org
    \\  /    A nd           | Version:  7
     \\/     M anipulation  |
\*---------------------------------------------------------------------------*/
FoamFile
{
    version     2.0;
    format      ascii;
    class       volVectorField;
    location    "2";
    object      U;
}
// * * * * * * * * * * * * * * * * * * * * * * * * * * * * * * * * * * * * * //

dimensions      [0 1 -1 0 0 0 0];

internalField   nonuniform List<vector> 
73728
(
(3 -1.4e-16 0)
(3 -2.2399e-16 0)
(3 -1.03604e-17 0)
(3 2.13447e-16 0)
(3 1.96628e-16 0)
(3 2.48151e-16 0)
(3 9.62536e-18 0)
(3 2.09388e-17 0)
(3 7.40229e-17 0)
(3 1.53592e-16 0)
(3 6.97993e-16 0)
(3 9.8873e-16 0)
(3 3.21221e-17 0)
(3 -7.44695e-16 0)
(3 -9.98868e-16 0)
(3 -6.85572e-16 0)
(3 -3.25857e-16 0)
(3 -9.67501e-16 0)
(3 -8.18974e-16 0)
(3 -4.09522e-16 0)
(3 1.35085e-16 0)
(3 9.34978e-17 0)
(3 1.76736e-16 0)
(3 9.14015e-16 0)
(3 7.78854e-16 0)
(3 -1.03168e-15 0)
(3 -1.51303e-15 0)
(3 -1.18589e-15 0)
(3 -9.55495e-16 0)
(3 -1.00276e-15 0)
(3 -1.28332e-15 0)
(3 -6.95562e-16 0)
(3 1.06051e-16 0)
(3 4.70147e-16 0)
(3 1.68029e-15 0)
(3 1.3575e-15 0)
(3 2.2278e-15 0)
(3 2.16017e-15 0)
(3 1.86627e-15 0)
(3 1.85094e-15 0)
(3 1.16134e-15 0)
(3 8.41805e-16 0)
(3 5.93574e-16 0)
(3 5.18539e-16 0)
(3 6.25638e-16 0)
(3 1.07431e-15 0)
(3 2.55199e-15 0)
(3 2.85733e-15 0)
(3 2.02147e-15 0)
(3 2.4532e-15 0)
(3 3.45994e-15 0)
(3 2.93918e-15 0)
(3 1.21476e-15 0)
(3 1.31313e-15 0)
(3 1.89436e-15 0)
(3 2.04061e-15 0)
(3 2.11083e-15 0)
(3 1.74234e-15 0)
(3 1.85196e-15 0)
(3 1.31213e-15 0)
(3 -3.32934e-17 0)
(3 -5.92787e-16 0)
(3 -7.88916e-16 0)
(3 -7.07989e-16 0)
(3 -2.70567e-16 0)
(3 -3.07295e-16 0)
(3 8.66623e-16 0)
(3 1.53345e-15 0)
(3 2.78501e-15 0)
(3 2.66229e-15 0)
(3 2.6467e-15 0)
(3 1.64967e-15 0)
(3 4.37126e-16 0)
(3 5.55382e-16 0)
(3 1.49542e-15 0)
(3 1.7118e-15 0)
(3 1.6935e-15 0)
(3 8.81973e-16 0)
(3 2.64372e-16 0)
(3 5.30394e-17 0)
(3 1.71301e-16 0)
(3 4.65795e-16 0)
(3 1.93467e-15 0)
(3 2.68872e-15 0)
(3 1.59496e-15 0)
(3 1.24751e-15 0)
(3 -5.8221e-16 0)
(3 -1.37101e-15 0)
(3 -1.75244e-15 0)
(3 -1.23658e-15 0)
(3 1.5426e-16 0)
(3 -1.43001e-16 0)
(3 1.02105e-16 0)
(3 6.77839e-16 0)
(3 5.64697e-16 0)
(3 4.85332e-16 0)
(3 -1.12142e-16 0)
(3 -1.42355e-16 0)
(3 1.78624e-16 0)
(3 2.59847e-16 0)
(3 3.9939e-16 0)
(3 1.70059e-16 0)
(3 -8.25261e-17 0)
(3 -4.18996e-16 0)
(3 -3.3274e-16 0)
(3 -1.36871e-16 0)
(3 5.57964e-16 0)
(3 2.02135e-15 0)
(3 1.46991e-15 0)
(3 -2.12338e-16 0)
(3 -3.54164e-16 0)
(3 -3.90759e-16 0)
(3 -4.31388e-16 0)
(3 -1.67131e-16 0)
(3 2.35471e-17 0)
(3 3.50858e-16 0)
(3 3.54648e-16 0)
(3 2.64706e-16 0)
(3 4.2503e-16 0)
(3 1.53781e-15 0)
(3 1.80888e-15 0)
(3 7.5437e-16 0)
(3 -7.27568e-16 0)
(3 -7.75713e-16 0)
(3 -5.44512e-16 0)
(3 -1.12406e-15 0)
(3 -7.78247e-16 0)
(3 -7.355e-16 0)
(3 -1.24985e-16 0)
(3 1.71046e-16 0)
(3 6.62859e-16 0)
(3 6.15878e-16 0)
(3 2.45434e-15 0)
(3 3.3565e-15 0)
(3 3.6224e-15 0)
(3 3.83643e-15 0)
(3 4.30504e-15 0)
(3 5.08885e-15 0)
(3 3.93591e-15 0)
(3 3.4327e-15 0)
(3 2.66503e-15 0)
(3 2.37362e-15 0)
(3 3.13088e-15 0)
(3 5.46551e-15 0)
(3 5.88692e-15 0)
(3 6.66272e-15 0)
(3 7.14613e-15 0)
(3 6.17249e-15 0)
(3 4.3221e-15 0)
(3 3.47192e-15 0)
(3 2.60901e-15 0)
(3 2.35105e-15 0)
(3 2.86938e-15 0)
(3 2.49802e-15 0)
(3 1.78616e-15 0)
(3 1.19976e-15 0)
(3 7.44157e-16 0)
(3 2.81303e-17 0)
(3 1.78057e-16 0)
(3 -5.25711e-18 0)
(3 3.21349e-17 0)
(3 8.27524e-16 0)
(3 2.15447e-15 0)
(3 2.55796e-15 0)
(3 2.49131e-15 0)
(3 1.90278e-15 0)
(3 1.97728e-15 0)
(3 1.49705e-15 0)
(3 4.06265e-16 0)
(3 5.66036e-16 0)
(3 1.44898e-15 0)
(3 1.74623e-15 0)
(3 1.73126e-15 0)
(3 5.85812e-16 0)
(3 -8.84135e-17 0)
(3 2.97785e-16 0)
(3 6.84984e-16 0)
(3 6.11923e-16 0)
(3 1.38295e-15 0)
(3 2.11692e-15 0)
(3 1.05096e-15 0)
(3 2.98326e-17 0)
(3 -2.15412e-15 0)
(3 -4.05818e-15 0)
(3 -4.33953e-15 0)
(3 -3.77117e-15 0)
(3 -1.07353e-15 0)
(3 -7.55213e-17 0)
(3 -1.35598e-16 0)
(3 -5.24675e-16 0)
(3 -1.86469e-15 0)
(3 -2.09909e-15 0)
(3 -9.00978e-17 0)
(3 4.75094e-18 0)
(3 -2.54435e-16 0)
(3 -1.33168e-16 0)
(3 7.51979e-17 0)
(3 -1.59544e-16 0)
(3 -3.17733e-16 0)
(3 -7.36901e-16 0)
(3 -5.56658e-16 0)
(3 1.39668e-17 0)
(3 9.01994e-16 0)
(3 1.88272e-15 0)
(3 2.48341e-15 0)
(3 1.86966e-15 0)
(3 1.58863e-15 0)
(3 5.32968e-16 0)
(3 -1.98184e-16 0)
(3 5.81038e-16 0)
(3 1.16021e-15 0)
(3 1.2592e-15 0)
(3 9.87718e-16 0)
(3 1.25229e-15 0)
(3 1.24928e-15 0)
(3 1.55188e-15 0)
(3 2.35387e-15 0)
(3 2.54217e-15 0)
(3 1.79281e-15 0)
(3 8.33794e-16 0)
(3 -3.55087e-16 0)
(3 -5.89042e-17 0)
(3 2.20146e-15 0)
(3 2.47254e-15 0)
(3 2.37177e-15 0)
(3 2.04036e-15 0)
(3 9.17116e-16 0)
(3 2.74271e-16 0)
(3 1.20658e-15 0)
(3 1.43094e-15 0)
(3 2.09282e-15 0)
(3 2.43162e-15 0)
(3 3.67792e-15 0)
(3 4.75051e-15 0)
(3 5.64943e-15 0)
(3 8.11068e-15 0)
(3 7.22943e-15 0)
(3 5.05174e-15 0)
(3 3.54337e-15 0)
(3 4.20208e-15 0)
(3 7.27163e-15 0)
(3 7.56249e-15 0)
(3 8.06572e-15 0)
(3 7.64453e-15 0)
(3 6.09076e-15 0)
(3 5.5838e-15 0)
(3 2.94838e-15 0)
(3 1.68272e-15 0)
(3 1.51963e-15 0)
(3 1.378e-15 0)
(3 1.72802e-15 0)
(3 2.34753e-15 0)
(3 3.51014e-15 0)
(3 3.72117e-15 0)
(3 3.20226e-15 0)
(3 1.31447e-15 0)
(3 8.83303e-17 0)
(3 1.04284e-16 0)
(3 3.24576e-16 0)
(3 -4.05743e-16 0)
(3 -1.72559e-15 0)
(3 -1.40899e-15 0)
(3 -9.18922e-16 0)
(3 -6.72571e-16 0)
(3 -2.82133e-16 0)
(3 1.04286e-16 0)
(3 5.3498e-16 0)
(3 1.01763e-15 0)
(3 8.9135e-16 0)
(3 -2.21061e-16 0)
(3 -2.64306e-16 0)
(3 4.21697e-16 0)
(3 4.54249e-16 0)
(3 -7.92587e-16 0)
(3 -7.64024e-16 0)
(3 -5.32097e-16 0)
(3 -3.93819e-16 0)
(3 -1.34349e-15 0)
(3 -3.53766e-15 0)
(3 -3.41274e-15 0)
(3 -2.816e-15 0)
(3 -2.04327e-15 0)
(3 -1.11742e-15 0)
(3 2.32246e-16 0)
(3 4.17892e-16 0)
(3 -3.61375e-16 0)
(3 -1.573e-15 0)
(3 -1.01845e-15 0)
(3 1.26522e-16 0)
(3 2.1031e-16 0)
(3 -1.84139e-16 0)
(3 9.50143e-17 0)
(3 -3.05023e-16 0)
(3 -2.10487e-16 0)
(3 -1.12087e-16 0)
(3 9.47548e-17 0)
(3 4.2152e-16 0)
(3 8.5589e-16 0)
(3 1.34363e-15 0)
(3 6.75428e-16 0)
(3 2.25465e-16 0)
(3 9.40925e-18 0)
(3 -8.82371e-17 0)
(3 -3.7331e-16 0)
(3 -4.9046e-16 0)
(3 -3.40667e-16 0)
(3 4.66443e-17 0)
(3 8.35539e-16 0)
(3 1.2897e-15 0)
(3 1.31017e-15 0)
(3 1.48283e-15 0)
(3 2.4724e-15 0)
(3 1.64336e-15 0)
(3 8.99391e-16 0)
(3 1.93037e-17 0)
(3 -3.44849e-16 0)
(3 -3.2953e-16 0)
(3 3.39945e-16 0)
(3 4.78331e-16 0)
(3 6.39496e-16 0)
(3 9.66925e-16 0)
(3 1.41501e-15 0)
(3 1.92964e-15 0)
(3 1.36396e-15 0)
(3 1.24185e-15 0)
(3 5.86765e-16 0)
(3 1.34156e-15 0)
(3 2.31692e-15 0)
(3 2.87946e-15 0)
(3 3.07831e-15 0)
(3 3.72186e-15 0)
(3 4.55943e-15 0)
(3 4.51069e-15 0)
(3 4.24686e-15 0)
(3 3.90526e-15 0)
(3 4.35003e-15 0)
(3 5.18081e-15 0)
(3 5.34526e-15 0)
(3 6.67317e-15 0)
(3 7.14629e-15 0)
(3 7.58103e-15 0)
(3 7.9339e-15 0)
(3 6.59866e-15 0)
(3 3.85158e-15 0)
(3 1.56923e-15 0)
(3 1.22307e-15 0)
(3 3.59225e-15 0)
(3 4.53196e-15 0)
(3 3.94014e-15 0)
(3 3.27952e-15 0)
(3 2.76305e-15 0)
(3 1.25817e-15 0)
(3 2.29672e-16 0)
(3 -9.68435e-17 0)
(3 -5.71846e-16 0)
(3 -1.6642e-15 0)
(3 -2.52915e-15 0)
(3 -2.06794e-15 0)
(3 -1.74249e-15 0)
(3 -1.4275e-15 0)
(3 -7.15831e-16 0)
(3 1.58223e-16 0)
(3 1.83439e-17 0)
(3 8.86192e-16 0)
(3 1.67659e-15 0)
(3 1.4253e-15 0)
(3 7.55532e-17 0)
(3 -1.05344e-15 0)
(3 -2.71511e-15 0)
(3 -2.90334e-15 0)
(3 -1.72115e-15 0)
(3 -1.09716e-15 0)
(3 -1.07306e-15 0)
(3 -1.11518e-15 0)
(3 -4.38643e-16 0)
(3 9.63519e-17 0)
(3 2.87961e-16 0)
(3 3.64769e-16 0)
(3 -1.04657e-15 0)
(3 -1.09644e-15 0)
(3 -2.23121e-15 0)
(3 -2.70885e-15 0)
(3 -3.71446e-15 0)
(3 -3.92938e-15 0)
(3 1.03298e-16 0)
(3 1.13718e-17 0)
(3 3.01099e-16 0)
(3 1.33322e-16 0)
(3 -3.45073e-16 0)
(3 2.5786e-17 0)
(3 2.65253e-17 0)
(3 3.88966e-16 0)
(3 2.37714e-16 0)
(3 5.87148e-16 0)
(3 2.9744e-16 0)
(3 -4.70843e-16 0)
(3 -1.01999e-15 0)
(3 -5.98617e-16 0)
(3 -8.35182e-16 0)
(3 -9.30997e-16 0)
(3 -6.15934e-16 0)
(3 -3.67313e-16 0)
(3 -4.94787e-16 0)
(3 2.67664e-16 0)
(3 1.11232e-15 0)
(3 1.66821e-15 0)
(3 2.2039e-15 0)
(3 2.25901e-15 0)
(3 1.30048e-15 0)
(3 7.32351e-16 0)
(3 -1.05481e-15 0)
(3 -1.09573e-15 0)
(3 -6.15365e-16 0)
(3 -9.54773e-16 0)
(3 -2.03645e-15 0)
(3 -3.39525e-15 0)
(3 -2.2874e-15 0)
(3 -2.0765e-15 0)
(3 -1.30994e-15 0)
(3 -5.91374e-16 0)
(3 -7.48561e-16 0)
(3 -7.30639e-16 0)
(3 6.96724e-16 0)
(3 1.65838e-15 0)
(3 2.02535e-15 0)
(3 2.7952e-15 0)
(3 2.69801e-15 0)
(3 1.67982e-15 0)
(3 1.45252e-15 0)
(3 1.82975e-15 0)
(3 2.33327e-15 0)
(3 2.04401e-15 0)
(3 1.75687e-15 0)
(3 1.89793e-15 0)
(3 2.81474e-15 0)
(3 4.2754e-15 0)
(3 3.87988e-15 0)
(3 3.6378e-15 0)
(3 3.48604e-15 0)
(3 3.73472e-15 0)
(3 3.16816e-15 0)
(3 2.46409e-15 0)
(3 3.03601e-15 0)
(3 3.14574e-15 0)
(3 3.90432e-16 0)
(3 -1.27483e-15 0)
(3 -1.58112e-15 0)
(3 -1.32165e-15 0)
(3 -1.45613e-15 0)
(3 -1.77756e-15 0)
(3 -1.86036e-15 0)
(3 -8.63459e-16 0)
(3 1.26884e-15 0)
(3 2.03523e-15 0)
(3 6.31492e-16 0)
(3 1.60258e-16 0)
(3 1.18953e-16 0)
(3 -9.6802e-16 0)
(3 -2.02307e-15 0)
(3 -1.80296e-15 0)
(3 -1.01185e-15 0)
(3 -9.50249e-16 0)
(3 -1.32379e-15 0)
(3 -1.41195e-15 0)
(3 -1.16569e-15 0)
(3 -1.92041e-17 0)
(3 5.61984e-16 0)
(3 -6.40715e-16 0)
(3 -1.96129e-15 0)
(3 -2.43337e-15 0)
(3 -5.76684e-16 0)
(3 -2.15761e-16 0)
(3 3.05054e-16 0)
(3 8.94874e-16 0)
(3 5.15133e-16 0)
(3 -4.99588e-16 0)
(3 -2.14594e-15 0)
(3 -2.42869e-15 0)
(3 -3.24388e-15 0)
(3 -3.6012e-15 0)
(3 -1.92058e-16 0)
(3 -4.49008e-16 0)
(3 -1.52134e-16 0)
(3 1.53227e-17 0)
(3 -3.25574e-19 0)
(3 2.89729e-16 0)
(3 1.45121e-16 0)
(3 -2.54887e-16 0)
(3 -4.66553e-16 0)
(3 -1.92285e-17 0)
(3 9.67991e-17 0)
(3 -2.48654e-17 0)
(3 2.2547e-16 0)
(3 -6.80442e-17 0)
(3 -7.35518e-16 0)
(3 -7.5427e-16 0)
(3 -7.00364e-16 0)
(3 -1.01189e-15 0)
(3 -3.37954e-16 0)
(3 -2.50168e-16 0)
(3 5.12586e-16 0)
(3 2.75842e-15 0)
(3 3.2983e-15 0)
(3 2.7335e-15 0)
(3 9.30691e-16 0)
(3 -1.51703e-15 0)
(3 -1.91129e-15 0)
(3 -1.78169e-15 0)
(3 -8.3202e-16 0)
(3 -1.01907e-15 0)
(3 -1.51398e-15 0)
(3 -3.35471e-16 0)
(3 -2.75104e-16 0)
(3 -7.31749e-16 0)
(3 -2.70434e-15 0)
(3 -2.86639e-15 0)
(3 -2.20748e-15 0)
(3 -2.29995e-15 0)
(3 -1.30309e-15 0)
(3 -6.21787e-16 0)
(3 -1.73583e-16 0)
(3 5.2365e-16 0)
(3 1.16348e-15 0)
(3 5.60206e-16 0)
(3 4.35638e-16 0)
(3 7.3977e-16 0)
(3 2.42843e-16 0)
(3 -4.17194e-16 0)
(3 -5.94226e-16 0)
(3 3.38978e-16 0)
(3 1.2333e-15 0)
(3 1.4376e-15 0)
(3 2.47364e-15 0)
(3 3.0621e-15 0)
(3 2.83575e-15 0)
(3 2.71397e-15 0)
(3 2.11847e-15 0)
(3 1.00638e-15 0)
(3 5.63531e-16 0)
(3 -1.15681e-15 0)
(3 -2.35586e-15 0)
(3 -3.0861e-15 0)
(3 -3.02684e-15 0)
(3 -2.85424e-15 0)
(3 -2.45191e-15 0)
(3 -9.02444e-16 0)
(3 -7.523e-17 0)
(3 2.08401e-15 0)
(3 2.71503e-15 0)
(3 2.78713e-15 0)
(3 2.43787e-15 0)
(3 2.08185e-15 0)
(3 9.41292e-16 0)
(3 -7.91513e-16 0)
(3 -1.03546e-15 0)
(3 -1.97718e-15 0)
(3 -4.12113e-15 0)
(3 -4.19504e-15 0)
(3 -3.33867e-15 0)
(3 -1.60471e-15 0)
(3 -3.03538e-16 0)
(3 1.00859e-16 0)
(3 -9.91063e-17 0)
(3 -9.27327e-16 0)
(3 -9.2134e-16 0)
(3 -1.06678e-15 0)
(3 -1.29551e-15 0)
(3 -1.07282e-15 0)
(3 -4.89485e-16 0)
(3 5.11269e-16 0)
(3 1.72904e-15 0)
(3 1.69945e-15 0)
(3 1.23853e-15 0)
(3 4.22742e-16 0)
(3 3.86355e-16 0)
(3 3.02314e-16 0)
(3 1.38194e-16 0)
(3 2.49359e-17 0)
(3 -4.60248e-16 0)
(3 -1.17051e-16 0)
(3 4.18302e-16 0)
(3 2.14822e-16 0)
(3 -9.9145e-17 0)
(3 -2.76676e-16 0)
(3 -2.02008e-16 0)
(3 -1.90633e-16 0)
(3 -2.89111e-17 0)
(3 1.88817e-16 0)
(3 3.50595e-16 0)
(3 -3.60625e-18 0)
(3 -3.31066e-17 0)
(3 1.58325e-16 0)
(3 -1.03605e-17 0)
(3 -2.54785e-16 0)
(3 -4.83974e-16 0)
(3 -7.16972e-16 0)
(3 -3.08571e-16 0)
(3 4.89523e-16 0)
(3 1.73646e-15 0)
(3 1.47668e-15 0)
(3 5.69068e-16 0)
(3 -2.62953e-16 0)
(3 -1.05206e-15 0)
(3 -1.34646e-15 0)
(3 -4.78179e-16 0)
(3 2.70316e-16 0)
(3 7.55576e-16 0)
(3 6.44466e-16 0)
(3 -5.53963e-16 0)
(3 -1.09471e-15 0)
(3 -1.14778e-15 0)
(3 -1.02566e-15 0)
(3 -6.38825e-16 0)
(3 -1.56406e-16 0)
(3 2.32709e-16 0)
(3 2.83799e-16 0)
(3 7.44339e-16 0)
(3 -1.45095e-16 0)
(3 -2.57903e-16 0)
(3 -8.43654e-16 0)
(3 -9.90219e-16 0)
(3 -1.02468e-15 0)
(3 -1.30853e-15 0)
(3 -1.16042e-15 0)
(3 2.55369e-16 0)
(3 2.84428e-16 0)
(3 -4.17591e-16 0)
(3 -1.41006e-15 0)
(3 7.88899e-16 0)
(3 5.63198e-16 0)
(3 2.2547e-17 0)
(3 -4.95527e-16 0)
(3 -1.01527e-15 0)
(3 -1.13513e-15 0)
(3 -1.64234e-15 0)
(3 -1.86811e-15 0)
(3 -2.07023e-15 0)
(3 -2.45481e-15 0)
(3 -1.11054e-15 0)
(3 -6.83073e-16 0)
(3 5.08497e-16 0)
(3 2.73116e-15 0)
(3 3.3111e-15 0)
(3 3.15792e-15 0)
(3 2.17168e-15 0)
(3 6.64725e-16 0)
(3 5.05668e-16 0)
(3 4.86936e-16 0)
(3 1.01747e-16 0)
(3 2.95271e-16 0)
(3 -1.59657e-16 0)
(3 -1.1051e-15 0)
(3 -2.17055e-15 0)
(3 -2.68652e-15 0)
(3 -2.38695e-15 0)
(3 -2.61135e-15 0)
(3 -2.27674e-15 0)
(3 -2.20266e-15 0)
(3 -2.68725e-15 0)
(3 -1.78604e-15 0)
(3 -7.13997e-16 0)
(3 1.219e-16 0)
(3 2.56077e-16 0)
(3 2.20606e-16 0)
(3 2.59577e-16 0)
(3 2.65227e-16 0)
(3 7.79234e-17 0)
(3 1.35705e-15 0)
(3 1.79334e-15 0)
(3 1.75081e-15 0)
(3 9.07329e-16 0)
(3 5.01e-16 0)
(3 -1.72655e-17 0)
(3 3.77818e-18 0)
(3 -4.31508e-17 0)
(3 7.24168e-17 0)
(3 3.17061e-16 0)
(3 -2.18529e-16 0)
(3 -5.16778e-16 0)
(3 -1.51351e-16 0)
(3 3.86954e-16 0)
(3 9.83094e-17 0)
(3 1.72676e-16 0)
(3 -9.79162e-17 0)
(3 -2.37158e-16 0)
(3 -3.62218e-16 0)
(3 -1.61474e-16 0)
(3 -3.18537e-16 0)
(3 -2.00147e-17 0)
(3 -9.01494e-17 0)
(3 -2.11769e-16 0)
(3 -2.32346e-16 0)
(3 -5.6826e-16 0)
(3 -6.51842e-16 0)
(3 4.0427e-17 0)
(3 6.71523e-16 0)
(3 4.85515e-16 0)
(3 2.23234e-16 0)
(3 -2.90032e-16 0)
(3 -4.50504e-16 0)
(3 5.14485e-16 0)
(3 1.28202e-15 0)
(3 1.80366e-15 0)
(3 3.10153e-16 0)
(3 -1.20328e-15 0)
(3 -1.40798e-15 0)
(3 -1.03481e-15 0)
(3 -1.57658e-15 0)
(3 -1.44869e-15 0)
(3 -8.36199e-16 0)
(3 -4.07691e-17 0)
(3 -9.77769e-16 0)
(3 -1.58949e-15 0)
(3 -1.29846e-15 0)
(3 -3.08685e-15 0)
(3 -3.28031e-15 0)
(3 -2.80007e-15 0)
(3 -1.88754e-15 0)
(3 -1.68365e-15 0)
(3 -1.88798e-15 0)
(3 -2.48415e-15 0)
(3 -2.51696e-15 0)
(3 -3.05629e-15 0)
(3 -2.84235e-15 0)
(3 -2.35823e-15 0)
(3 -2.72303e-15 0)
(3 -2.6504e-15 0)
(3 -2.2175e-15 0)
(3 -1.90126e-15 0)
(3 -2.91408e-15 0)
(3 -3.42463e-15 0)
(3 -2.9718e-15 0)
(3 -2.29277e-15 0)
(3 -1.41033e-15 0)
(3 7.10982e-16 0)
(3 1.58496e-15 0)
(3 3.08042e-15 0)
(3 2.78283e-15 0)
(3 3.08049e-15 0)
(3 3.6207e-15 0)
(3 3.65349e-15 0)
(3 2.74068e-15 0)
(3 9.82619e-16 0)
(3 4.73649e-16 0)
(3 7.84039e-16 0)
(3 1.07708e-15 0)
(3 1.00407e-15 0)
(3 1.33167e-15 0)
(3 1.73668e-15 0)
(3 1.20744e-15 0)
(3 1.1981e-16 0)
(3 -1.63779e-15 0)
(3 -2.78326e-15 0)
(3 -3.02703e-15 0)
(3 -2.35498e-15 0)
(3 -1.78954e-15 0)
(3 -7.81952e-16 0)
(3 9.99644e-17 0)
(3 1.74893e-16 0)
(3 1.37457e-16 0)
(3 4.00832e-16 0)
(3 4.35915e-16 0)
(3 6.07621e-16 0)
(3 3.45647e-16 0)
(3 5.08373e-16 0)
(3 1.07696e-15 0)
(3 1.20195e-15 0)
(3 1.42895e-15 0)
(3 -1.4578e-16 0)
(3 1.31298e-16 0)
(3 8.95673e-17 0)
(3 -1.39412e-16 0)
(3 -8.29581e-16 0)
(3 -7.30371e-16 0)
(3 -8.05734e-16 0)
(3 -1.07001e-15 0)
(3 -8.08061e-16 0)
(3 -6.50979e-16 0)
(3 -1.84008e-16 0)
(3 5.72242e-17 0)
(3 4.45925e-17 0)
(3 8.51559e-17 0)
(3 1.36399e-16 0)
(3 1.80019e-16 0)
(3 2.68264e-16 0)
(3 -1.2505e-16 0)
(3 -2.26988e-16 0)
(3 -3.11519e-17 0)
(3 -2.98164e-17 0)
(3 3.00893e-16 0)
(3 4.46878e-16 0)
(3 1.12064e-15 0)
(3 1.34503e-15 0)
(3 1.06074e-15 0)
(3 1.56718e-15 0)
(3 1.66372e-15 0)
(3 1.54458e-15 0)
(3 1.57712e-15 0)
(3 1.46414e-15 0)
(3 1.24417e-15 0)
(3 4.12931e-16 0)
(3 4.78414e-16 0)
(3 -5.03601e-16 0)
(3 -3.39294e-15 0)
(3 -4.29852e-15 0)
(3 -4.46371e-15 0)
(3 -4.05888e-15 0)
(3 -2.96081e-15 0)
(3 -4.25456e-15 0)
(3 -4.61755e-15 0)
(3 -4.21152e-15 0)
(3 -3.4044e-15 0)
(3 -1.70024e-15 0)
(3 -5.17427e-16 0)
(3 -3.65937e-16 0)
(3 -1.69273e-15 0)
(3 -2.15933e-15 0)
(3 -2.91782e-15 0)
(3 -3.42106e-15 0)
(3 -4.0275e-15 0)
(3 -3.92182e-15 0)
(3 -3.52598e-15 0)
(3 -2.11027e-15 0)
(3 -8.74682e-16 0)
(3 -2.14475e-16 0)
(3 -9.53021e-16 0)
(3 -1.767e-15 0)
(3 -1.49139e-15 0)
(3 -8.08802e-16 0)
(3 -1.06898e-16 0)
(3 1.65923e-15 0)
(3 4.64703e-15 0)
(3 5.37725e-15 0)
(3 4.10103e-15 0)
(3 2.30856e-15 0)
(3 2.00545e-15 0)
(3 2.70398e-15 0)
(3 2.79965e-15 0)
(3 2.38183e-15 0)
(3 2.73091e-15 0)
(3 3.22154e-15 0)
(3 3.39362e-15 0)
(3 3.09439e-15 0)
(3 2.66392e-15 0)
(3 2.5092e-15 0)
(3 2.1226e-15 0)
(3 1.48034e-15 0)
(3 9.87504e-16 0)
(3 1.34636e-17 0)
(3 5.29224e-16 0)
(3 1.80936e-15 0)
(3 2.21243e-15 0)
(3 1.69368e-15 0)
(3 1.79261e-15 0)
(3 1.86636e-15 0)
(3 1.45321e-15 0)
(3 4.61965e-16 0)
(3 -8.83071e-16 0)
(3 -1.55476e-17 0)
(3 7.71566e-16 0)
(3 8.97367e-16 0)
(3 7.8558e-16 0)
(3 1.25953e-15 0)
(3 1.4388e-15 0)
(3 2.96785e-17 0)
(3 -1.40364e-17 0)
(3 -1.63805e-16 0)
(3 -4.45188e-16 0)
(3 -3.98244e-16 0)
(3 -4.74918e-16 0)
(3 -6.73642e-16 0)
(3 -6.23317e-16 0)
(3 -3.62754e-16 0)
(3 -5.5289e-16 0)
(3 -8.07958e-16 0)
(3 -2.89288e-16 0)
(3 -2.17193e-16 0)
(3 3.42091e-16 0)
(3 3.8684e-16 0)
(3 7.98779e-16 0)
(3 8.46251e-16 0)
(3 1.56504e-16 0)
(3 -3.61177e-16 0)
(3 -2.09051e-16 0)
(3 2.07593e-16 0)
(3 5.29611e-16 0)
(3 6.89206e-16 0)
(3 1.38076e-15 0)
(3 2.66311e-15 0)
(3 3.93015e-15 0)
(3 3.95379e-15 0)
(3 3.97131e-15 0)
(3 2.6623e-15 0)
(3 1.39871e-15 0)
(3 1.57315e-15 0)
(3 2.01842e-15 0)
(3 1.19684e-15 0)
(3 -9.81384e-18 0)
(3 -1.3399e-15 0)
(3 -1.37849e-15 0)
(3 -8.05471e-16 0)
(3 -1.33281e-15 0)
(3 -2.49564e-15 0)
(3 -2.59512e-15 0)
(3 -3.08548e-15 0)
(3 -3.02149e-15 0)
(3 -2.00098e-15 0)
(3 -2.30347e-15 0)
(3 -1.89643e-15 0)
(3 -2.32924e-16 0)
(3 8.0159e-16 0)
(3 5.79737e-16 0)
(3 4.05451e-17 0)
(3 -1.29154e-15 0)
(3 -1.98124e-15 0)
(3 -1.93177e-15 0)
(3 -5.73492e-16 0)
(3 3.33349e-16 0)
(3 6.69963e-16 0)
(3 8.32212e-16 0)
(3 1.43845e-15 0)
(3 2.38976e-15 0)
(3 3.34408e-15 0)
(3 3.28128e-15 0)
(3 3.10863e-15 0)
(3 2.7556e-15 0)
(3 2.9985e-15 0)
(3 3.04458e-15 0)
(3 2.25243e-15 0)
(3 1.78801e-15 0)
(3 1.77118e-15 0)
(3 1.69291e-15 0)
(3 2.19778e-15 0)
(3 4.07292e-15 0)
(3 4.52082e-15 0)
(3 3.27291e-15 0)
(3 2.97772e-15 0)
(3 2.64457e-15 0)
(3 2.04806e-15 0)
(3 1.54712e-15 0)
(3 1.52038e-15 0)
(3 1.21953e-15 0)
(3 1.35337e-15 0)
(3 1.97312e-15 0)
(3 2.68474e-15 0)
(3 4.02064e-15 0)
(3 5.62852e-15 0)
(3 4.48537e-15 0)
(3 2.38922e-15 0)
(3 2.1584e-15 0)
(3 3.42951e-15 0)
(3 2.38474e-15 0)
(3 1.57115e-15 0)
(3 -1.25394e-15 0)
(3 -2.7853e-15 0)
(3 -1.7456e-15 0)
(3 -8.40516e-17 0)
(3 -2.09502e-16 0)
(3 -3.14845e-16 0)
(3 -2.13015e-16 0)
(3 2.80927e-17 0)
(3 -1.32228e-16 0)
(3 2.51041e-16 0)
(3 3.23925e-16 0)
(3 3.36389e-16 0)
(3 2.3534e-16 0)
(3 3.59393e-16 0)
(3 1.14293e-15 0)
(3 1.36259e-15 0)
(3 7.84538e-16 0)
(3 1.91775e-16 0)
(3 -2.18026e-16 0)
(3 3.77423e-17 0)
(3 2.49038e-16 0)
(3 4.22306e-16 0)
(3 2.62133e-16 0)
(3 1.56815e-16 0)
(3 2.95188e-16 0)
(3 2.71457e-16 0)
(3 3.45015e-16 0)
(3 3.56915e-16 0)
(3 1.7175e-16 0)
(3 1.2733e-16 0)
(3 7.6843e-16 0)
(3 1.59291e-15 0)
(3 2.22955e-15 0)
(3 2.72047e-15 0)
(3 3.14776e-15 0)
(3 3.49485e-15 0)
(3 3.18024e-15 0)
(3 3.71676e-15 0)
(3 3.14249e-15 0)
(3 1.35679e-15 0)
(3 -5.42684e-16 0)
(3 5.31468e-16 0)
(3 1.07656e-15 0)
(3 1.27784e-15 0)
(3 8.08287e-16 0)
(3 -8.66973e-16 0)
(3 -2.15201e-15 0)
(3 -1.95418e-15 0)
(3 -1.61654e-15 0)
(3 -1.66497e-15 0)
(3 -1.82377e-15 0)
(3 -1.67321e-15 0)
(3 -7.30474e-16 0)
(3 2.44453e-16 0)
(3 1.25498e-15 0)
(3 8.68482e-16 0)
(3 2.49675e-16 0)
(3 3.46578e-16 0)
(3 1.55141e-15 0)
(3 3.35569e-15 0)
(3 4.09728e-15 0)
(3 3.75519e-15 0)
(3 4.04588e-15 0)
(3 3.57462e-15 0)
(3 3.69615e-15 0)
(3 4.30975e-15 0)
(3 5.85448e-15 0)
(3 4.53391e-15 0)
(3 2.1139e-15 0)
(3 -3.77303e-16 0)
(3 -1.14091e-15 0)
(3 -4.57713e-16 0)
(3 3.45963e-16 0)
(3 6.99182e-16 0)
(3 2.03807e-15 0)
(3 3.65609e-15 0)
(3 5.01117e-15 0)
(3 6.00786e-15 0)
(3 5.21765e-15 0)
(3 3.22694e-15 0)
(3 1.98451e-15 0)
(3 2.42063e-15 0)
(3 1.98606e-15 0)
(3 1.45562e-15 0)
(3 3.41478e-16 0)
(3 1.16119e-15 0)
(3 2.0857e-15 0)
(3 3.88162e-15 0)
(3 4.86077e-15 0)
(3 4.15805e-15 0)
(3 2.24753e-15 0)
(3 1.32772e-15 0)
(3 1.10295e-15 0)
(3 4.89522e-16 0)
(3 -1.21338e-16 0)
(3 -2.88368e-16 0)
(3 -8.51541e-16 0)
(3 -5.7853e-16 0)
(3 3.44124e-16 0)
(3 1.1422e-15 0)
(3 3.11723e-16 0)
(3 -2.0233e-15 0)
(3 -1.94704e-15 0)
(3 -4.72404e-18 0)
(3 2.92948e-16 0)
(3 8.97369e-17 0)
(3 2.50433e-16 0)
(3 1.94379e-16 0)
(3 2.98382e-16 0)
(3 4.86772e-17 0)
(3 -5.01259e-16 0)
(3 -5.7463e-16 0)
(3 2.80185e-16 0)
(3 6.71057e-16 0)
(3 7.10545e-16 0)
(3 1.66957e-16 0)
(3 5.70101e-17 0)
(3 2.26214e-16 0)
(3 9.16615e-17 0)
(3 2.28329e-17 0)
(3 3.08232e-16 0)
(3 6.99951e-16 0)
(3 9.76057e-16 0)
(3 7.69229e-16 0)
(3 5.99843e-16 0)
(3 2.08413e-16 0)
(3 5.4874e-16 0)
(3 6.52238e-16 0)
(3 1.91449e-15 0)
(3 2.78143e-15 0)
(3 4.01179e-15 0)
(3 3.65586e-15 0)
(3 3.17311e-15 0)
(3 3.34779e-15 0)
(3 2.67469e-15 0)
(3 2.86541e-17 0)
(3 6.21451e-16 0)
(3 2.43884e-15 0)
(3 2.20944e-15 0)
(3 6.6632e-16 0)
(3 -1.63123e-15 0)
(3 -1.71351e-15 0)
(3 -1.49715e-15 0)
(3 -1.33414e-15 0)
(3 -2.22497e-15 0)
(3 -2.46829e-15 0)
(3 -1.87832e-15 0)
(3 -1.89874e-15 0)
(3 -2.00131e-15 0)
(3 -1.69233e-15 0)
(3 1.94485e-17 0)
(3 4.11605e-16 0)
(3 9.47838e-16 0)
(3 1.81321e-15 0)
(3 2.45216e-15 0)
(3 3.1439e-15 0)
(3 3.25345e-15 0)
(3 5.98746e-15 0)
(3 6.51202e-15 0)
(3 4.76039e-15 0)
(3 3.76603e-15 0)
(3 4.06543e-15 0)
(3 4.25345e-15 0)
(3 3.47026e-15 0)
(3 3.29657e-15 0)
(3 2.62957e-15 0)
(3 2.59845e-15 0)
(3 3.0926e-15 0)
(3 3.12657e-15 0)
(3 2.93837e-15 0)
(3 2.44479e-15 0)
(3 2.53978e-15 0)
(3 2.56545e-15 0)
(3 2.65359e-15 0)
(3 4.14114e-15 0)
(3 5.1638e-15 0)
(3 4.11546e-15 0)
(3 1.18912e-15 0)
(3 2.53366e-16 0)
(3 3.95505e-16 0)
(3 8.23101e-16 0)
(3 6.81697e-16 0)
(3 2.41477e-15 0)
(3 3.87585e-15 0)
(3 3.9471e-15 0)
(3 2.52692e-15 0)
(3 2.10799e-15 0)
(3 3.34121e-15 0)
(3 2.47044e-15 0)
(3 8.07824e-16 0)
(3 -9.36702e-16 0)
(3 -2.42991e-15 0)
(3 -2.69621e-15 0)
(3 -2.65229e-15 0)
(3 -2.48972e-15 0)
(3 -2.65608e-15 0)
(3 -1.8941e-15 0)
(3 -1.35078e-15 0)
(3 -9.32247e-16 0)
(3 1.10516e-17 0)
(3 -5.43123e-17 0)
(3 -1.38946e-16 0)
(3 -4.32835e-16 0)
(3 4.10204e-16 0)
(3 5.19468e-16 0)
(3 7.35048e-16 0)
(3 6.95227e-16 0)
(3 6.50531e-16 0)
(3 9.49792e-16 0)
(3 6.53063e-16 0)
(3 -1.17866e-15 0)
(3 -2.13193e-15 0)
(3 -1.98853e-15 0)
(3 -1.06368e-15 0)
(3 -3.00604e-16 0)
(3 3.32029e-16 0)
(3 4.77636e-16 0)
(3 8.15328e-16 0)
(3 9.10734e-16 0)
(3 9.49836e-16 0)
(3 8.30398e-16 0)
(3 3.52962e-16 0)
(3 2.69084e-16 0)
(3 2.73781e-16 0)
(3 1.69346e-15 0)
(3 3.20164e-15 0)
(3 3.49472e-15 0)
(3 2.07303e-15 0)
(3 1.44162e-15 0)
(3 1.34397e-15 0)
(3 2.09093e-15 0)
(3 1.97311e-15 0)
(3 1.65908e-15 0)
(3 1.94072e-15 0)
(3 1.96582e-15 0)
(3 1.73482e-15 0)
(3 1.49186e-15 0)
(3 1.61111e-15 0)
(3 1.65797e-15 0)
(3 1.66626e-15 0)
(3 1.59572e-15 0)
(3 1.10067e-15 0)
(3 8.98179e-16 0)
(3 9.87821e-16 0)
(3 1.3306e-16 0)
(3 -8.6355e-16 0)
(3 -3.6041e-16 0)
(3 6.0284e-16 0)
(3 1.08085e-15 0)
(3 2.22841e-15 0)
(3 2.34353e-15 0)
(3 1.32504e-15 0)
(3 1.82801e-15 0)
(3 4.77647e-15 0)
(3 4.82465e-15 0)
(3 4.29825e-15 0)
(3 3.66273e-15 0)
(3 3.24645e-15 0)
(3 3.13888e-15 0)
(3 4.56095e-15 0)
(3 5.66701e-15 0)
(3 6.48859e-15 0)
(3 5.11516e-15 0)
(3 4.84905e-15 0)
(3 5.59165e-15 0)
(3 6.10982e-15 0)
(3 5.12077e-15 0)
(3 4.44947e-15 0)
(3 3.97401e-15 0)
(3 3.88988e-15 0)
(3 3.78623e-15 0)
(3 2.14565e-15 0)
(3 1.041e-15 0)
(3 9.03781e-16 0)
(3 2.70502e-16 0)
(3 5.19352e-16 0)
(3 3.19227e-15 0)
(3 3.90732e-15 0)
(3 3.85332e-15 0)
(3 3.2556e-15 0)
(3 2.37992e-15 0)
(3 2.29807e-15 0)
(3 2.84631e-15 0)
(3 3.59185e-15 0)
(3 1.96146e-15 0)
(3 -9.21744e-16 0)
(3 -2.29524e-15 0)
(3 -3.72988e-15 0)
(3 -4.70589e-15 0)
(3 -5.31593e-15 0)
(3 -5.29603e-15 0)
(3 -4.58148e-15 0)
(3 -3.20601e-15 0)
(3 -1.54115e-15 0)
(3 -1.54788e-15 0)
(3 1.66932e-16 0)
(3 -4.47924e-17 0)
(3 4.62252e-17 0)
(3 8.58648e-17 0)
(3 3.25349e-16 0)
(3 6.08184e-16 0)
(3 1.21631e-15 0)
(3 1.50837e-15 0)
(3 1.43641e-15 0)
(3 7.63332e-16 0)
(3 3.43264e-16 0)
(3 -2.13283e-15 0)
(3 -3.64384e-15 0)
(3 -4.48943e-15 0)
(3 -3.37264e-15 0)
(3 -1.29293e-15 0)
(3 -6.28946e-16 0)
(3 1.19712e-16 0)
(3 2.34923e-16 0)
(3 -1.22011e-16 0)
(3 2.82519e-16 0)
(3 4.45128e-16 0)
(3 5.38337e-16 0)
(3 2.04202e-16 0)
(3 2.85896e-17 0)
(3 -1.83899e-16 0)
(3 5.57194e-16 0)
(3 7.11167e-17 0)
(3 5.66443e-16 0)
(3 1.3533e-15 0)
(3 1.23413e-15 0)
(3 8.98294e-16 0)
(3 8.24423e-16 0)
(3 9.1383e-16 0)
(3 1.14212e-16 0)
(3 5.86272e-16 0)
(3 1.70448e-15 0)
(3 3.3459e-15 0)
(3 3.48532e-15 0)
(3 3.78754e-15 0)
(3 3.92795e-15 0)
(3 4.07767e-15 0)
(3 3.27415e-15 0)
(3 4.01669e-15 0)
(3 4.52537e-15 0)
(3 2.36078e-15 0)
(3 1.27496e-15 0)
(3 7.80607e-16 0)
(3 1.19234e-15 0)
(3 1.83616e-15 0)
(3 2.20833e-15 0)
(3 1.22634e-15 0)
(3 6.69786e-16 0)
(3 1.3136e-15 0)
(3 1.16795e-15 0)
(3 2.2128e-15 0)
(3 2.57849e-15 0)
(3 2.87572e-15 0)
(3 2.75313e-15 0)
(3 3.49053e-15 0)
(3 4.29221e-15 0)
(3 5.90439e-15 0)
(3 6.70743e-15 0)
(3 7.15336e-15 0)
(3 6.34233e-15 0)
(3 5.9894e-15 0)
(3 6.56043e-15 0)
(3 6.7997e-15 0)
(3 6.73045e-15 0)
(3 6.0822e-15 0)
(3 5.10243e-15 0)
(3 3.42529e-15 0)
(3 2.34304e-15 0)
(3 1.77231e-15 0)
(3 2.42636e-15 0)
(3 1.3641e-15 0)
(3 1.14201e-15 0)
(3 2.48571e-15 0)
(3 2.90641e-15 0)
(3 8.23264e-16 0)
(3 -1.3686e-15 0)
(3 -1.97736e-15 0)
(3 6.41853e-16 0)
(3 1.2357e-15 0)
(3 1.11875e-15 0)
(3 -2.45757e-17 0)
(3 -1.60538e-15 0)
(3 -2.77096e-15 0)
(3 -2.19532e-15 0)
(3 -2.55571e-15 0)
(3 -3.87245e-15 0)
(3 -5.44772e-15 0)
(3 -4.70937e-15 0)
(3 -4.59807e-15 0)
(3 -4.64206e-15 0)
(3 -4.52119e-15 0)
(3 1.4562e-16 0)
(3 6.2163e-17 0)
(3 2.04583e-17 0)
(3 2.04204e-16 0)
(3 6.92629e-17 0)
(3 2.95783e-16 0)
(3 1.11542e-16 0)
(3 -2.21748e-16 0)
(3 -4.11529e-17 0)
(3 -6.46817e-17 0)
(3 -2.65692e-16 0)
(3 -7.2115e-16 0)
(3 -1.89316e-15 0)
(3 -2.3421e-15 0)
(3 -3.88524e-16 0)
(3 -2.04364e-16 0)
(3 1.99576e-16 0)
(3 6.35161e-16 0)
(3 3.88021e-16 0)
(3 1.05562e-16 0)
(3 1.315e-17 0)
(3 -5.11389e-17 0)
(3 -2.12841e-16 0)
(3 -2.90027e-16 0)
(3 -2.10618e-16 0)
(3 -1.40591e-16 0)
(3 -6.39386e-17 0)
(3 -1.3416e-16 0)
(3 -4.94351e-16 0)
(3 5.99714e-16 0)
(3 4.45433e-16 0)
(3 -2.49907e-16 0)
(3 3.87241e-16 0)
(3 1.47834e-15 0)
(3 1.03793e-15 0)
(3 -1.35921e-15 0)
(3 -1.53151e-15 0)
(3 -5.17837e-16 0)
(3 8.61079e-16 0)
(3 1.50128e-15 0)
(3 1.99059e-15 0)
(3 3.61174e-15 0)
(3 5.92453e-15 0)
(3 6.98246e-15 0)
(3 6.52678e-15 0)
(3 5.40154e-15 0)
(3 1.35639e-15 0)
(3 -4.01682e-16 0)
(3 -8.5882e-17 0)
(3 -7.28295e-16 0)
(3 -1.34975e-15 0)
(3 -1.52242e-15 0)
(3 -1.74389e-15 0)
(3 -1.25777e-15 0)
(3 -8.12223e-16 0)
(3 -3.82129e-17 0)
(3 5.877e-16 0)
(3 9.88115e-16 0)
(3 2.26886e-15 0)
(3 2.91318e-15 0)
(3 3.46671e-15 0)
(3 4.3332e-15 0)
(3 4.8341e-15 0)
(3 6.93344e-15 0)
(3 7.224e-15 0)
(3 6.28793e-15 0)
(3 6.41514e-15 0)
(3 5.89038e-15 0)
(3 5.21852e-15 0)
(3 4.19194e-15 0)
(3 2.73879e-15 0)
(3 1.96412e-15 0)
(3 1.87584e-15 0)
(3 2.4059e-15 0)
(3 2.41848e-15 0)
(3 1.54264e-15 0)
(3 1.11018e-15 0)
(3 7.74646e-16 0)
(3 4.79429e-16 0)
(3 -5.53955e-16 0)
(3 -1.46659e-15 0)
(3 -2.30133e-15 0)
(3 -8.61495e-16 0)
(3 -3.06702e-17 0)
(3 2.22083e-16 0)
(3 1.0563e-15 0)
(3 1.12054e-15 0)
(3 1.14817e-15 0)
(3 1.29254e-15 0)
(3 1.96085e-15 0)
(3 -4.05136e-16 0)
(3 -8.16893e-16 0)
(3 -2.18437e-15 0)
(3 -2.33189e-15 0)
(3 -3.02504e-15 0)
(3 -3.53278e-15 0)
(3 -2.13732e-16 0)
(3 -3.71619e-17 0)
(3 -5.31425e-17 0)
(3 -3.21705e-16 0)
(3 -7.56302e-16 0)
(3 -9.49865e-16 0)
(3 -4.64406e-16 0)
(3 1.06614e-17 0)
(3 -2.35004e-16 0)
(3 -1.09882e-16 0)
(3 5.30723e-16 0)
(3 7.84372e-16 0)
(3 1.16178e-15 0)
(3 1.46496e-15 0)
(3 3.04859e-16 0)
(3 -1.96508e-16 0)
(3 -3.47113e-16 0)
(3 -1.26346e-16 0)
(3 3.96029e-16 0)
(3 6.52336e-16 0)
(3 6.22497e-16 0)
(3 3.05389e-16 0)
(3 -2.30358e-16 0)
(3 1.44193e-17 0)
(3 1.17878e-16 0)
(3 2.6471e-16 0)
(3 1.90427e-16 0)
(3 2.86472e-16 0)
(3 -1.3072e-15 0)
(3 -2.30159e-15 0)
(3 -1.88291e-15 0)
(3 -1.21157e-15 0)
(3 -1.40422e-16 0)
(3 2.75663e-15 0)
(3 3.23076e-15 0)
(3 1.89665e-15 0)
(3 4.73012e-16 0)
(3 -3.94888e-16 0)
(3 -5.14491e-16 0)
(3 2.3879e-15 0)
(3 3.49541e-15 0)
(3 3.43231e-15 0)
(3 4.95881e-15 0)
(3 5.08613e-15 0)
(3 5.34485e-15 0)
(3 4.39165e-15 0)
(3 3.39219e-15 0)
(3 2.52498e-15 0)
(3 2.60074e-15 0)
(3 3.21906e-15 0)
(3 2.83586e-15 0)
(3 1.08637e-15 0)
(3 2.38535e-16 0)
(3 7.66033e-17 0)
(3 -6.8528e-16 0)
(3 -1.06315e-15 0)
(3 -2.43813e-16 0)
(3 7.82691e-16 0)
(3 2.06655e-15 0)
(3 1.5695e-15 0)
(3 1.01063e-15 0)
(3 2.37217e-15 0)
(3 4.79854e-15 0)
(3 6.37101e-15 0)
(3 6.37068e-15 0)
(3 6.1859e-15 0)
(3 5.36389e-15 0)
(3 4.06493e-15 0)
(3 2.34441e-15 0)
(3 1.30688e-15 0)
(3 6.29025e-16 0)
(3 -9.11188e-17 0)
(3 -5.77869e-16 0)
(3 -1.8018e-16 0)
(3 -7.95741e-17 0)
(3 -1.57653e-16 0)
(3 -3.10619e-16 0)
(3 -1.66874e-15 0)
(3 -1.31117e-15 0)
(3 -2.19909e-16 0)
(3 5.46989e-16 0)
(3 8.03412e-16 0)
(3 -1.2186e-15 0)
(3 -1.01688e-15 0)
(3 7.73759e-16 0)
(3 2.11175e-15 0)
(3 3.65921e-15 0)
(3 3.89727e-15 0)
(3 2.96894e-15 0)
(3 1.22758e-15 0)
(3 7.13203e-16 0)
(3 1.17397e-15 0)
(3 2.22376e-16 0)
(3 -1.64926e-15 0)
(3 -1.79562e-15 0)
(3 -1.61613e-15 0)
(3 5.84324e-17 0)
(3 -1.58773e-16 0)
(3 7.65057e-17 0)
(3 -2.2429e-17 0)
(3 -2.30229e-17 0)
(3 -3.86818e-17 0)
(3 2.26234e-16 0)
(3 7.44581e-16 0)
(3 1.17947e-16 0)
(3 1.90538e-16 0)
(3 4.10606e-16 0)
(3 9.26544e-16 0)
(3 2.01339e-15 0)
(3 1.56825e-15 0)
(3 -1.97627e-16 0)
(3 -6.26221e-16 0)
(3 -1.74884e-16 0)
(3 -1.58226e-16 0)
(3 2.25169e-16 0)
(3 6.48303e-16 0)
(3 3.4649e-16 0)
(3 3.49834e-16 0)
(3 5.7662e-16 0)
(3 3.73157e-16 0)
(3 7.58633e-17 0)
(3 -6.31614e-16 0)
(3 -1.79618e-15 0)
(3 -2.18408e-15 0)
(3 -2.21316e-15 0)
(3 -3.27329e-15 0)
(3 -1.33731e-15 0)
(3 1.26347e-15 0)
(3 8.54428e-16 0)
(3 2.88744e-15 0)
(3 3.38156e-15 0)
(3 3.52852e-15 0)
(3 3.41051e-15 0)
(3 2.92573e-15 0)
(3 2.42288e-15 0)
(3 2.38734e-15 0)
(3 2.17939e-15 0)
(3 1.79237e-15 0)
(3 8.05214e-16 0)
(3 1.06774e-16 0)
(3 8.85516e-16 0)
(3 2.709e-15 0)
(3 4.06244e-15 0)
(3 5.04146e-15 0)
(3 5.24575e-15 0)
(3 5.34172e-15 0)
(3 5.89262e-15 0)
(3 4.63587e-15 0)
(3 4.19211e-15 0)
(3 3.07455e-15 0)
(3 1.91927e-15 0)
(3 2.18873e-15 0)
(3 2.59062e-15 0)
(3 3.05358e-15 0)
(3 3.35056e-15 0)
(3 2.72241e-15 0)
(3 1.8302e-16 0)
(3 -2.06033e-16 0)
(3 1.36664e-17 0)
(3 7.51182e-17 0)
(3 1.23805e-15 0)
(3 1.99652e-15 0)
(3 1.34531e-15 0)
(3 1.15447e-15 0)
(3 4.55005e-16 0)