/*--------------------------------*- C++ -*----------------------------------*\
  =========                 |
  \\      /  F ield         | OpenFOAM: The Open Source CFD Toolbox
   \\    /   O peration     | Website:  https://openfoam.org
    \\  /    A nd           | Version:  7
     \\/     M anipulation  |
\*---------------------------------------------------------------------------*/
FoamFile
{
    version     2.0;
    format      ascii;
    class       volVectorField;
    location    "2";
    object      U;
}
// * * * * * * * * * * * * * * * * * * * * * * * * * * * * * * * * * * * * * //

dimensions      [0 1 -1 0 0 0 0];

internalField   nonuniform List<vector> 
73728
(
(3 4.17759e-17 0)
(3 2.21983e-16 0)
(3 3.41165e-16 0)
(3 9.89094e-17 0)
(3 -2.27215e-16 0)
(3 -3.23523e-16 0)
(3 -2.00891e-16 0)
(3 1.26254e-16 0)
(3 2.58452e-16 0)
(3 4.58124e-16 0)
(3 5.36703e-16 0)
(3 4.58515e-16 0)
(3 4.23948e-16 0)
(3 6.3037e-16 0)
(3 5.64779e-16 0)
(3 3.8697e-16 0)
(3 -5.94181e-17 0)
(3 3.24211e-16 0)
(3 1.16e-15 0)
(3 1.23341e-15 0)
(3 4.66278e-16 0)
(3 3.38694e-16 0)
(3 -1.95309e-16 0)
(3 -7.76166e-16 0)
(3 -1.16279e-15 0)
(3 -1.50149e-15 0)
(3 -1.5338e-15 0)
(3 -1.3157e-15 0)
(3 -3.37163e-16 0)
(3 -2.30017e-16 0)
(3 2.58077e-16 0)
(3 3.12198e-16 0)
(3 3.00628e-16 0)
(3 2.96425e-17 0)
(3 -4.44347e-16 0)
(3 -9.79808e-16 0)
(3 -1.08646e-15 0)
(3 -7.49557e-16 0)
(3 -2.71313e-16 0)
(3 -9.40841e-18 0)
(3 4.19843e-16 0)
(3 6.69807e-16 0)
(3 6.92618e-16 0)
(3 -4.98809e-17 0)
(3 4.14778e-16 0)
(3 4.96938e-16 0)
(3 6.17226e-16 0)
(3 6.117e-16 0)
(3 1.89176e-16 0)
(3 3.82047e-16 0)
(3 2.29742e-16 0)
(3 1.42983e-16 0)
(3 -4.56062e-16 0)
(3 -1.05883e-15 0)
(3 -1.46486e-15 0)
(3 -1.30715e-15 0)
(3 -9.35723e-16 0)
(3 -4.55012e-16 0)
(3 9.40173e-19 0)
(3 -1.70337e-16 0)
(3 7.91448e-17 0)
(3 4.86676e-16 0)
(3 1.12415e-16 0)
(3 -4.07861e-16 0)
(3 -4.89643e-16 0)
(3 -6.31635e-16 0)
(3 -3.6643e-16 0)
(3 -2.62871e-16 0)
(3 -1.201e-16 0)
(3 -3.85134e-16 0)
(3 -4.62899e-16 0)
(3 -6.59039e-16 0)
(3 -4.10668e-16 0)
(3 -2.20474e-16 0)
(3 2.00506e-16 0)
(3 4.02929e-16 0)
(3 6.6194e-16 0)
(3 5.60407e-16 0)
(3 7.67169e-16 0)
(3 7.88623e-16 0)
(3 4.29041e-16 0)
(3 1.54914e-16 0)
(3 -1.51347e-16 0)
(3 -4.06697e-16 0)
(3 -2.7043e-16 0)
(3 1.27831e-16 0)
(3 1.00106e-15 0)
(3 1.33223e-15 0)
(3 3.81761e-16 0)
(3 -2.59546e-16 0)
(3 -4.70911e-16 0)
(3 -7.25822e-16 0)
(3 -9.94476e-16 0)
(3 -9.94499e-16 0)
(3 -4.94067e-16 0)
(3 -2.0999e-16 0)
(3 1.72665e-16 0)
(3 -7.31901e-18 0)
(3 -8.23192e-17 0)
(3 -5.72301e-16 0)
(3 -6.95355e-16 0)
(3 -5.63388e-16 0)
(3 -9.4768e-18 0)
(3 8.12439e-16 0)
(3 9.55605e-16 0)
(3 8.32144e-16 0)
(3 5.27052e-16 0)
(3 9.19604e-16 0)
(3 1.59398e-15 0)
(3 1.9866e-15 0)
(3 1.60704e-15 0)
(3 1.39601e-15 0)
(3 8.12026e-16 0)
(3 7.65065e-16 0)
(3 1.5414e-15 0)
(3 1.23189e-15 0)
(3 1.08807e-15 0)
(3 6.1331e-16 0)
(3 -2.62668e-16 0)
(3 -4.937e-16 0)
(3 -6.37838e-16 0)
(3 -1.40834e-15 0)
(3 -2.46622e-15 0)
(3 -2.71458e-15 0)
(3 -6.39212e-16 0)
(3 1.72389e-15 0)
(3 2.22873e-15 0)
(3 1.77678e-15 0)
(3 1.41893e-15 0)
(3 8.00444e-16 0)
(3 1.30567e-16 0)
(3 -7.47518e-16 0)
(3 -2.83049e-16 0)
(3 7.62384e-16 0)
(3 8.546e-16 0)
(3 9.57408e-16 0)
(3 1.51341e-15 0)
(3 1.26409e-15 0)
(3 1.23122e-15 0)
(3 4.01556e-16 0)
(3 -5.3423e-17 0)
(3 -1.30731e-16 0)
(3 -2.79748e-17 0)
(3 -3.16889e-16 0)
(3 -3.51024e-16 0)
(3 -5.66979e-17 0)
(3 -6.66767e-17 0)
(3 -3.18094e-16 0)
(3 -1.34607e-15 0)
(3 -1.71178e-15 0)
(3 -1.81392e-15 0)
(3 -1.16658e-15 0)
(3 -1.03373e-15 0)
(3 -3.53344e-16 0)
(3 -7.58811e-17 0)
(3 3.88855e-17 0)
(3 1.4269e-16 0)
(3 7.22547e-16 0)
(3 -5.15902e-16 0)
(3 -1.64979e-15 0)
(3 -1.8488e-15 0)
(3 -2.01549e-15 0)
(3 -1.64861e-15 0)
(3 -1.51373e-15 0)
(3 -6.72966e-16 0)
(3 -5.51171e-16 0)
(3 -6.83725e-16 0)
(3 -1.22368e-15 0)
(3 -1.18043e-15 0)
(3 -1.08012e-15 0)
(3 -6.37279e-16 0)
(3 -1.25584e-16 0)
(3 3.98285e-16 0)
(3 1.62667e-15 0)
(3 2.35681e-15 0)
(3 2.25328e-15 0)
(3 1.4405e-15 0)
(3 6.67758e-16 0)
(3 -7.49052e-17 0)
(3 -1.17461e-15 0)
(3 -9.13983e-16 0)
(3 2.44776e-16 0)
(3 1.19025e-15 0)
(3 1.26104e-15 0)
(3 8.08516e-16 0)
(3 -6.52987e-16 0)
(3 -1.60302e-15 0)
(3 -1.52005e-15 0)
(3 -1.79029e-15 0)
(3 -1.54786e-15 0)
(3 -9.90495e-16 0)
(3 -6.95904e-16 0)
(3 -1.03921e-17 0)
(3 -1.32861e-16 0)
(3 -9.34724e-16 0)
(3 -1.17561e-15 0)
(3 -7.82594e-16 0)
(3 -2.23222e-16 0)
(3 -2.17036e-16 0)
(3 -6.08434e-16 0)
(3 -4.80274e-16 0)
(3 -2.83173e-16 0)
(3 6.46229e-17 0)
(3 9.44969e-16 0)
(3 2.07517e-15 0)
(3 2.10686e-15 0)
(3 1.62033e-15 0)
(3 1.17017e-15 0)
(3 9.48386e-16 0)
(3 2.98848e-16 0)
(3 5.76815e-17 0)
(3 3.82363e-16 0)
(3 5.36543e-16 0)
(3 1.42757e-16 0)
(3 -4.15692e-16 0)
(3 -3.33787e-16 0)
(3 -2.48635e-16 0)
(3 -8.52268e-16 0)
(3 -1.83496e-15 0)
(3 -1.51927e-15 0)
(3 -6.39568e-16 0)
(3 3.43921e-16 0)
(3 7.00157e-16 0)
(3 5.7383e-16 0)
(3 4.36699e-16 0)
(3 3.22557e-16 0)
(3 4.67548e-16 0)
(3 7.63145e-16 0)
(3 -5.26925e-16 0)
(3 -9.54527e-16 0)
(3 -8.67578e-16 0)
(3 -4.23416e-16 0)
(3 2.31118e-16 0)
(3 1.33508e-15 0)
(3 1.57104e-15 0)
(3 1.09115e-15 0)
(3 6.23999e-16 0)
(3 3.06902e-16 0)
(3 -2.12431e-16 0)
(3 -8.0385e-16 0)
(3 -8.76887e-16 0)
(3 -1.31049e-15 0)
(3 -1.33565e-15 0)
(3 -7.82477e-16 0)
(3 -1.22733e-16 0)
(3 1.44592e-16 0)
(3 6.65111e-16 0)
(3 1.14842e-15 0)
(3 1.22439e-15 0)
(3 2.68006e-16 0)
(3 -4.47149e-16 0)
(3 -3.00955e-16 0)
(3 -2.3739e-17 0)
(3 -2.44522e-16 0)
(3 -8.72124e-16 0)
(3 -1.36611e-15 0)
(3 -1.40172e-15 0)
(3 -1.57366e-15 0)
(3 -1.71931e-15 0)
(3 -1.83274e-15 0)
(3 -1.81111e-15 0)
(3 -1.28178e-15 0)
(3 -7.39217e-16 0)
(3 -6.03308e-16 0)
(3 -1.02224e-15 0)
(3 -1.4871e-15 0)
(3 -4.65783e-16 0)
(3 -4.63946e-16 0)
(3 -5.63166e-16 0)
(3 5.67887e-16 0)
(3 1.23157e-15 0)
(3 6.9462e-16 0)
(3 5.23584e-16 0)
(3 3.51773e-16 0)
(3 7.23583e-16 0)
(3 1.00111e-15 0)
(3 2.21434e-15 0)
(3 2.36473e-15 0)
(3 2.17331e-15 0)
(3 1.40528e-15 0)
(3 1.00142e-15 0)
(3 3.97454e-16 0)
(3 -2.3529e-16 0)
(3 -1.91048e-15 0)
(3 -1.958e-15 0)
(3 -1.85465e-15 0)
(3 -1.51353e-15 0)
(3 -1.14281e-15 0)
(3 -1.6784e-16 0)
(3 -8.84861e-17 0)
(3 -4.92512e-16 0)
(3 1.14292e-16 0)
(3 6.93676e-16 0)
(3 5.07691e-16 0)
(3 2.50856e-16 0)
(3 -6.00186e-18 0)
(3 -3.08683e-16 0)
(3 -2.53728e-16 0)
(3 -3.78894e-17 0)
(3 1.35322e-16 0)
(3 4.66694e-17 0)
(3 -4.18818e-16 0)
(3 1.32111e-17 0)
(3 -7.99997e-16 0)
(3 -1.01263e-15 0)
(3 -9.8602e-16 0)
(3 -8.34706e-16 0)
(3 -3.58943e-16 0)
(3 -5.62733e-16 0)
(3 -3.5631e-16 0)
(3 -3.01322e-16 0)
(3 -7.87519e-17 0)
(3 1.5608e-16 0)
(3 4.95659e-16 0)
(3 4.34515e-16 0)
(3 8.31333e-17 0)
(3 -5.83193e-16 0)
(3 -1.27696e-15 0)
(3 -1.59288e-15 0)
(3 -1.18971e-15 0)
(3 -4.28526e-16 0)
(3 7.90748e-16 0)
(3 1.78651e-15 0)
(3 2.32449e-15 0)
(3 9.54007e-16 0)
(3 -5.71568e-16 0)
(3 -1.38587e-15 0)
(3 -1.34633e-15 0)
(3 -1.03308e-15 0)
(3 -1.09004e-16 0)
(3 -4.23863e-16 0)
(3 -5.60941e-16 0)
(3 -6.04809e-16 0)
(3 -4.68349e-16 0)
(3 -5.68692e-16 0)
(3 -5.52908e-16 0)
(3 -3.10324e-16 0)
(3 -4.79266e-16 0)
(3 -3.87127e-16 0)
(3 -4.11055e-16 0)
(3 -1.18081e-15 0)
(3 -1.14458e-15 0)
(3 -8.01937e-16 0)
(3 2.04703e-17 0)
(3 5.95268e-16 0)
(3 4.09973e-16 0)
(3 4.90269e-16 0)
(3 -1.87663e-16 0)
(3 -8.71366e-18 0)
(3 -1.9363e-16 0)
(3 6.8576e-17 0)
(3 2.38357e-16 0)
(3 3.25899e-16 0)
(3 -7.36299e-18 0)
(3 -2.31297e-16 0)
(3 -1.0166e-15 0)
(3 -2.01042e-15 0)
(3 -1.84593e-15 0)
(3 -1.39786e-15 0)
(3 -1.4704e-15 0)
(3 -1.11134e-15 0)
(3 -8.18824e-16 0)
(3 4.29755e-16 0)
(3 9.81828e-16 0)
(3 9.51631e-16 0)
(3 3.10084e-16 0)
(3 -2.87655e-17 0)
(3 -4.29362e-16 0)
(3 -1.14778e-19 0)
(3 8.94047e-16 0)
(3 1.77431e-15 0)
(3 2.48755e-15 0)
(3 2.25489e-15 0)
(3 1.94185e-15 0)
(3 1.5761e-15 0)
(3 1.61714e-15 0)
(3 1.7529e-15 0)
(3 1.80312e-15 0)
(3 1.83536e-15 0)
(3 7.17039e-16 0)
(3 1.61027e-16 0)
(3 -8.19682e-17 0)
(3 7.52271e-16 0)
(3 1.33855e-15 0)
(3 7.10275e-17 0)
(3 -1.31839e-16 0)
(3 -1.40493e-16 0)
(3 1.34912e-16 0)
(3 4.81245e-16 0)
(3 9.18877e-16 0)
(3 1.28118e-15 0)
(3 1.68865e-15 0)
(3 9.98952e-16 0)
(3 4.71581e-16 0)
(3 3.68398e-16 0)
(3 -3.94347e-16 0)
(3 -7.68948e-16 0)
(3 -1.72529e-15 0)
(3 -1.52068e-15 0)
(3 -1.64847e-15 0)
(3 -1.44839e-15 0)
(3 -1.10154e-15 0)
(3 -1.61181e-16 0)
(3 -2.84655e-16 0)
(3 -3.39546e-16 0)
(3 1.80391e-16 0)
(3 7.38991e-16 0)
(3 9.20178e-16 0)
(3 1.35626e-15 0)
(3 1.92929e-15 0)
(3 2.0332e-15 0)
(3 1.53889e-15 0)
(3 8.23063e-16 0)
(3 9.18848e-16 0)
(3 7.18624e-16 0)
(3 -6.82737e-16 0)
(3 -5.48058e-16 0)
(3 1.01027e-15 0)
(3 2.08301e-15 0)
(3 2.11746e-15 0)
(3 1.93967e-15 0)
(3 1.28379e-15 0)
(3 6.1664e-16 0)
(3 4.38616e-16 0)
(3 -1.11845e-16 0)
(3 -8.714e-16 0)
(3 -1.2674e-15 0)
(3 -8.82887e-16 0)
(3 -6.08061e-16 0)
(3 8.21552e-17 0)
(3 -5.27807e-16 0)
(3 -5.00802e-16 0)
(3 -3.01858e-16 0)
(3 4.6951e-16 0)
(3 1.09014e-15 0)
(3 3.95113e-16 0)
(3 -9.56527e-17 0)
(3 1.73728e-16 0)
(3 4.61557e-16 0)
(3 -2.03742e-17 0)
(3 -4.74272e-16 0)
(3 -1.18264e-16 0)
(3 4.16578e-16 0)
(3 6.22049e-16 0)
(3 3.98612e-16 0)
(3 4.36489e-16 0)
(3 6.25276e-16 0)
(3 1.26934e-15 0)
(3 8.87328e-16 0)
(3 3.58589e-16 0)
(3 9.56399e-18 0)
(3 -2.73632e-16 0)
(3 -5.14935e-16 0)
(3 -1.13833e-15 0)
(3 -2.11805e-15 0)
(3 -2.036e-15 0)
(3 -1.92525e-15 0)
(3 -9.12172e-16 0)
(3 3.47921e-16 0)
(3 1.60967e-15 0)
(3 1.66576e-15 0)
(3 5.17435e-16 0)
(3 -4.1376e-16 0)
(3 -7.84444e-17 0)
(3 4.16432e-16 0)
(3 9.2486e-16 0)
(3 1.2455e-15 0)
(3 1.33103e-15 0)
(3 1.13074e-15 0)
(3 1.14498e-15 0)
(3 1.67768e-15 0)
(3 1.69839e-15 0)
(3 1.3319e-15 0)
(3 1.56499e-15 0)
(3 1.56569e-15 0)
(3 1.76848e-15 0)
(3 1.56105e-15 0)
(3 1.63364e-15 0)
(3 1.64237e-15 0)
(3 2.30077e-15 0)
(3 -3.13051e-18 0)
(3 -3.7777e-16 0)
(3 -5.32097e-16 0)
(3 -6.40367e-16 0)
(3 -8.24717e-16 0)
(3 -5.45062e-18 0)
(3 3.14655e-16 0)
(3 4.25467e-16 0)
(3 5.81743e-16 0)
(3 3.70439e-16 0)
(3 8.27381e-16 0)
(3 -3.46331e-16 0)
(3 -5.26426e-16 0)
(3 -8.25629e-16 0)
(3 -1.53801e-15 0)
(3 -8.85532e-16 0)
(3 -6.80996e-16 0)
(3 -3.38576e-16 0)
(3 -7.74398e-16 0)
(3 -6.37095e-16 0)
(3 -4.23968e-16 0)
(3 -5.54424e-16 0)
(3 2.89468e-17 0)
(3 3.43069e-16 0)
(3 1.03706e-15 0)
(3 1.51948e-15 0)
(3 2.39991e-15 0)
(3 2.5998e-15 0)
(3 2.40973e-15 0)
(3 1.93038e-15 0)
(3 1.65684e-15 0)
(3 -3.10453e-16 0)
(3 2.59571e-16 0)
(3 7.64239e-16 0)
(3 2.51807e-16 0)
(3 -4.72016e-16 0)
(3 -2.02471e-16 0)
(3 6.90733e-16 0)
(3 6.78241e-16 0)
(3 -1.25986e-16 0)
(3 -6.91993e-16 0)
(3 -7.73206e-16 0)
(3 -5.34442e-16 0)
(3 -5.0678e-16 0)
(3 -3.22544e-16 0)
(3 1.13925e-16 0)
(3 -9.31063e-16 0)
(3 -1.12606e-15 0)
(3 -1.17115e-15 0)
(3 -9.31239e-16 0)
(3 -6.95867e-16 0)
(3 -3.11317e-16 0)
(3 9.1531e-16 0)
(3 1.82384e-15 0)
(3 2.14805e-15 0)
(3 1.34208e-15 0)
(3 1.85317e-17 0)
(3 -2.10664e-16 0)
(3 2.77069e-16 0)
(3 2.41448e-16 0)
(3 -1.14978e-16 0)
(3 -3.32451e-17 0)
(3 1.04939e-16 0)
(3 2.44199e-16 0)
(3 -1.25871e-16 0)
(3 -1.19999e-16 0)
(3 -1.24834e-16 0)
(3 -8.94697e-17 0)
(3 -1.32455e-16 0)
(3 -8.81681e-16 0)
(3 -1.31824e-15 0)
(3 -1.32197e-15 0)
(3 -1.16927e-15 0)
(3 -9.68661e-16 0)
(3 1.0119e-16 0)
(3 1.58144e-15 0)
(3 1.89542e-15 0)
(3 1.58454e-15 0)
(3 8.02858e-16 0)
(3 1.09478e-16 0)
(3 1.34979e-16 0)
(3 2.11132e-16 0)
(3 8.28737e-17 0)
(3 4.74085e-16 0)
(3 7.87888e-16 0)
(3 9.80934e-16 0)
(3 1.06234e-15 0)
(3 1.1965e-15 0)
(3 3.80648e-16 0)
(3 1.66859e-16 0)
(3 2.24114e-16 0)
(3 6.09553e-16 0)
(3 9.26044e-16 0)
(3 1.22683e-15 0)
(3 1.5672e-15 0)
(3 1.62159e-15 0)
(3 -1.44246e-16 0)
(3 -2.54877e-16 0)
(3 -5.08586e-16 0)
(3 -2.94828e-16 0)
(3 -2.30784e-16 0)
(3 -2.6755e-16 0)
(3 -1.54747e-16 0)
(3 -1.34196e-16 0)
(3 3.24872e-16 0)
(3 2.29875e-16 0)
(3 2.47478e-16 0)
(3 9.4177e-16 0)
(3 5.2002e-16 0)
(3 -3.33166e-16 0)
(3 -1.15118e-15 0)
(3 -9.70867e-16 0)
(3 -7.9779e-16 0)
(3 -7.20317e-16 0)
(3 -9.46595e-17 0)
(3 5.75083e-17 0)
(3 -4.88388e-17 0)
(3 -3.81135e-16 0)
(3 -1.34668e-16 0)
(3 4.32176e-16 0)
(3 8.89601e-16 0)
(3 3.98068e-16 0)
(3 2.11991e-17 0)
(3 1.34342e-15 0)
(3 1.47305e-15 0)
(3 5.18558e-16 0)
(3 -3.32569e-17 0)
(3 6.30099e-16 0)
(3 1.59e-15 0)
(3 1.62982e-15 0)
(3 1.13121e-15 0)
(3 5.9257e-16 0)
(3 6.5452e-16 0)
(3 7.25437e-16 0)
(3 2.76248e-16 0)
(3 -2.90415e-16 0)
(3 -1.38912e-15 0)
(3 -1.97767e-15 0)
(3 -1.63189e-15 0)
(3 -1.52163e-15 0)
(3 -2.32352e-15 0)
(3 -2.73505e-15 0)
(3 -2.45684e-15 0)
(3 -1.46817e-15 0)
(3 -6.53198e-16 0)
(3 -6.98721e-16 0)
(3 -9.9801e-16 0)
(3 -7.91303e-16 0)
(3 1.73786e-16 0)
(3 1.20679e-15 0)
(3 1.37684e-15 0)
(3 7.31294e-16 0)
(3 3.18708e-17 0)
(3 -1.15808e-16 0)
(3 -7.63211e-16 0)
(3 -1.0974e-15 0)
(3 -1.19029e-15 0)
(3 -1.18317e-15 0)
(3 -9.69366e-16 0)
(3 -1.27986e-15 0)
(3 -1.3244e-15 0)
(3 -9.46332e-16 0)
(3 -6.87006e-16 0)
(3 -5.60946e-16 0)
(3 -1.48408e-15 0)
(3 -1.83386e-15 0)
(3 -1.3974e-15 0)
(3 -1.54023e-15 0)
(3 -1.7088e-15 0)
(3 -1.76551e-15 0)
(3 -9.69851e-16 0)
(3 2.62416e-16 0)
(3 1.23167e-15 0)
(3 2.58919e-15 0)
(3 2.9212e-15 0)
(3 2.81857e-15 0)
(3 1.66665e-15 0)
(3 2.59011e-16 0)
(3 -8.46222e-16 0)
(3 -8.29816e-16 0)
(3 -3.86321e-16 0)
(3 -9.29339e-17 0)
(3 -8.52989e-16 0)
(3 -1.12654e-15 0)
(3 -1.1548e-15 0)
(3 -6.42748e-16 0)
(3 -1.72486e-16 0)
(3 1.16657e-15 0)
(3 1.12478e-15 0)
(3 1.54277e-15 0)
(3 2.00682e-15 0)
(3 2.00057e-15 0)
(3 1.55942e-17 0)
(3 7.55398e-17 0)
(3 -1.71451e-17 0)
(3 3.1382e-16 0)
(3 1.07702e-16 0)
(3 -3.13938e-16 0)
(3 -5.41123e-16 0)
(3 -6.53483e-16 0)
(3 -2.40687e-16 0)
(3 3.26879e-16 0)
(3 2.17159e-16 0)
(3 4.33178e-17 0)
(3 -8.32926e-16 0)
(3 -1.59629e-15 0)
(3 -1.48956e-15 0)
(3 -1.6249e-15 0)
(3 -1.33022e-15 0)
(3 -7.516e-16 0)
(3 7.92473e-17 0)
(3 8.52067e-16 0)
(3 8.97458e-16 0)
(3 1.13878e-15 0)
(3 1.05899e-15 0)
(3 1.15939e-15 0)
(3 1.48946e-15 0)
(3 1.47366e-15 0)
(3 -1.43618e-16 0)
(3 -5.63516e-16 0)
(3 -2.42495e-16 0)
(3 -9.88286e-17 0)
(3 2.29006e-16 0)
(3 1.60495e-15 0)
(3 2.44433e-15 0)
(3 2.3468e-15 0)
(3 2.01642e-15 0)
(3 2.11747e-15 0)
(3 2.11518e-15 0)
(3 1.58063e-15 0)
(3 5.20953e-16 0)
(3 3.51314e-16 0)
(3 -7.15969e-17 0)
(3 -9.06452e-16 0)
(3 -2.24179e-15 0)
(3 -2.62374e-15 0)
(3 -2.44517e-15 0)
(3 -3.21243e-15 0)
(3 -2.91943e-15 0)
(3 -1.64225e-15 0)
(3 -5.06763e-16 0)
(3 -3.91427e-16 0)
(3 -1.44715e-15 0)
(3 -2.31425e-15 0)
(3 -1.54642e-15 0)
(3 -8.47898e-16 0)
(3 -9.87463e-16 0)
(3 -1.3955e-15 0)
(3 -1.52078e-15 0)
(3 -1.6475e-15 0)
(3 -2.61402e-15 0)
(3 -2.73848e-15 0)
(3 -2.23812e-15 0)
(3 -2.42164e-15 0)
(3 -2.20904e-15 0)
(3 -2.16603e-15 0)
(3 -1.62292e-15 0)
(3 -1.45674e-15 0)
(3 -1.4152e-15 0)
(3 -1.28621e-15 0)
(3 -1.90525e-15 0)
(3 -2.2997e-15 0)
(3 -2.25354e-15 0)
(3 -2.16403e-15 0)
(3 -1.63624e-15 0)
(3 -6.86479e-16 0)
(3 -1.00538e-16 0)
(3 -5.75374e-17 0)
(3 2.09718e-16 0)
(3 1.34642e-15 0)
(3 2.84751e-15 0)
(3 3.12043e-15 0)
(3 2.29807e-15 0)
(3 1.43961e-15 0)
(3 -3.37944e-16 0)
(3 -2.25252e-15 0)
(3 -1.46488e-15 0)
(3 -7.5215e-16 0)
(3 -7.66154e-16 0)
(3 -1.22292e-15 0)
(3 -1.56191e-15 0)
(3 -9.95934e-16 0)
(3 -2.26807e-16 0)
(3 1.08397e-15 0)
(3 1.39205e-15 0)
(3 1.35425e-15 0)
(3 1.22835e-15 0)
(3 1.73771e-15 0)
(3 3.82156e-17 0)
(3 1.79789e-17 0)
(3 3.44714e-16 0)
(3 4.56669e-16 0)
(3 -2.28717e-16 0)
(3 -7.55052e-16 0)
(3 -1.08707e-15 0)
(3 -4.13771e-16 0)
(3 5.12128e-16 0)
(3 4.93445e-16 0)
(3 -9.42338e-17 0)
(3 -1.91023e-15 0)
(3 -2.21326e-15 0)
(3 -1.09881e-15 0)
(3 4.32491e-16 0)
(3 4.77489e-16 0)
(3 4.82398e-16 0)
(3 6.97489e-16 0)
(3 -4.20065e-17 0)
(3 -2.21319e-16 0)
(3 1.75819e-16 0)
(3 1.10703e-15 0)
(3 1.21499e-15 0)
(3 1.08588e-15 0)
(3 4.53514e-16 0)
(3 3.34732e-16 0)
(3 7.62016e-17 0)
(3 -3.45706e-16 0)
(3 -7.63959e-18 0)
(3 8.28198e-16 0)
(3 9.2167e-16 0)
(3 8.81761e-16 0)
(3 1.74965e-15 0)
(3 2.58411e-15 0)
(3 2.50129e-15 0)
(3 2.07341e-15 0)
(3 1.68917e-15 0)
(3 1.32641e-15 0)
(3 9.81784e-16 0)
(3 7.88284e-16 0)
(3 9.68933e-16 0)
(3 8.88815e-16 0)
(3 1.13241e-16 0)
(3 -8.64163e-16 0)
(3 -1.22694e-15 0)
(3 -1.39335e-15 0)
(3 -1.6864e-15 0)
(3 -1.9102e-15 0)
(3 -1.64667e-15 0)
(3 -1.34347e-15 0)
(3 -1.83443e-15 0)
(3 -2.58879e-15 0)
(3 -2.25567e-15 0)
(3 -1.5783e-15 0)
(3 -1.21854e-15 0)
(3 -9.58466e-16 0)
(3 -9.75826e-16 0)
(3 -1.37769e-15 0)
(3 -1.95523e-15 0)
(3 -2.34844e-15 0)
(3 -2.06201e-15 0)
(3 -1.66563e-15 0)
(3 -1.78447e-15 0)
(3 -1.38487e-15 0)
(3 -1.32628e-15 0)
(3 -1.5374e-15 0)
(3 -1.83611e-15 0)
(3 -1.39923e-15 0)
(3 -1.45139e-15 0)
(3 -1.96511e-15 0)
(3 -3.0608e-15 0)
(3 -2.09841e-15 0)
(3 -6.07664e-16 0)
(3 9.44932e-17 0)
(3 4.27851e-16 0)
(3 7.49041e-16 0)
(3 7.89965e-16 0)
(3 1.08841e-15 0)
(3 1.33886e-15 0)
(3 1.52869e-15 0)
(3 1.12235e-16 0)
(3 -1.09316e-16 0)
(3 -5.50717e-16 0)
(3 -1.26616e-15 0)
(3 -1.77246e-16 0)
(3 2.99779e-16 0)
(3 9.44653e-16 0)
(3 6.57239e-16 0)
(3 3.81117e-16 0)
(3 -6.89634e-16 0)
(3 -3.08428e-17 0)
(3 2.99345e-16 0)
(3 6.90518e-16 0)
(3 1.14695e-15 0)
(3 1.51623e-15 0)
(3 1.91431e-15 0)
(3 2.7624e-17 0)
(3 1.04704e-16 0)
(3 5.73456e-16 0)
(3 -1.02033e-17 0)
(3 -6.60716e-16 0)
(3 -2.95388e-16 0)
(3 -8.98188e-17 0)
(3 6.27038e-17 0)
(3 -1.87329e-17 0)
(3 -2.66529e-16 0)
(3 -5.64506e-16 0)
(3 -4.18447e-16 0)
(3 -2.56204e-16 0)
(3 2.20967e-16 0)
(3 1.19608e-16 0)
(3 9.80253e-16 0)
(3 2.07308e-15 0)
(3 2.57018e-15 0)
(3 2.2829e-15 0)
(3 1.17436e-15 0)
(3 1.4038e-15 0)
(3 1.89419e-15 0)
(3 1.54912e-15 0)
(3 7.65261e-16 0)
(3 -6.96347e-16 0)
(3 -1.51494e-15 0)
(3 -1.03733e-15 0)
(3 -7.00891e-16 0)
(3 -6.88947e-16 0)
(3 -3.07276e-16 0)
(3 2.72579e-17 0)
(3 -3.4137e-16 0)
(3 -6.07342e-16 0)
(3 2.87999e-16 0)
(3 2.29983e-15 0)
(3 2.74191e-15 0)
(3 2.54451e-15 0)
(3 1.83673e-15 0)
(3 1.1554e-15 0)
(3 9.06636e-16 0)
(3 8.74241e-16 0)
(3 9.56063e-16 0)
(3 6.78615e-16 0)
(3 -4.72172e-16 0)
(3 -1.45886e-15 0)
(3 -1.4832e-15 0)
(3 -8.16218e-16 0)
(3 -2.28386e-15 0)
(3 -2.40244e-15 0)
(3 -1.65512e-15 0)
(3 -1.43743e-15 0)
(3 -1.86205e-15 0)
(3 -1.55566e-15 0)
(3 -1.54477e-15 0)
(3 -1.12089e-15 0)
(3 -2.29984e-16 0)
(3 2.07157e-16 0)
(3 -4.02179e-16 0)
(3 -7.82977e-16 0)
(3 -8.53906e-16 0)
(3 -1.00782e-15 0)
(3 -9.23172e-16 0)
(3 -9.48305e-16 0)
(3 -7.03564e-16 0)
(3 -1.2646e-15 0)
(3 -2.06253e-15 0)
(3 -2.25421e-15 0)
(3 -1.87265e-15 0)
(3 -1.05619e-15 0)
(3 -9.8253e-16 0)
(3 -2.10163e-15 0)
(3 -1.38789e-15 0)
(3 3.77145e-16 0)
(3 1.2568e-15 0)
(3 2.36554e-15 0)
(3 2.63541e-15 0)
(3 2.42171e-15 0)
(3 2.58872e-15 0)
(3 1.10701e-15 0)
(3 -2.19912e-16 0)
(3 -3.5803e-16 0)
(3 -3.10337e-16 0)
(3 1.36674e-16 0)
(3 1.69854e-16 0)
(3 2.43921e-16 0)
(3 7.78696e-16 0)
(3 1.82897e-15 0)
(3 2.24269e-15 0)
(3 2.78685e-15 0)
(3 2.70795e-15 0)
(3 1.5097e-15 0)
(3 1.05718e-15 0)
(3 1.35681e-15 0)
(3 2.52308e-15 0)
(3 2.78386e-15 0)
(3 2.04961e-15 0)
(3 -1.50063e-17 0)
(3 3.30229e-16 0)
(3 4.69237e-16 0)
(3 2.57557e-16 0)
(3 1.74593e-16 0)
(3 2.85684e-16 0)
(3 5.72907e-17 0)
(3 -3.90509e-16 0)
(3 -7.01774e-17 0)
(3 2.26766e-16 0)
(3 7.35127e-16 0)
(3 1.83956e-15 0)
(3 2.1249e-15 0)
(3 7.12256e-16 0)
(3 2.71e-16 0)
(3 5.20701e-16 0)
(3 7.76411e-16 0)
(3 1.66284e-15 0)
(3 2.89402e-15 0)
(3 3.12539e-15 0)
(3 2.72624e-15 0)
(3 2.00267e-15 0)
(3 1.48854e-15 0)
(3 9.23022e-16 0)
(3 1.20876e-17 0)
(3 -5.71936e-16 0)
(3 -5.30847e-16 0)
(3 -2.40978e-16 0)
(3 -3.9699e-16 0)
(3 -1.08478e-15 0)
(3 -3.70524e-16 0)
(3 -1.54306e-16 0)
(3 -4.6313e-16 0)
(3 -5.8008e-16 0)
(3 2.26563e-16 0)
(3 2.33917e-15 0)
(3 2.33343e-15 0)
(3 1.67227e-15 0)
(3 1.34e-15 0)
(3 7.9872e-16 0)
(3 8.39368e-16 0)
(3 8.62256e-16 0)
(3 7.37203e-16 0)
(3 -1.07739e-16 0)
(3 -1.63854e-15 0)
(3 -1.44759e-15 0)
(3 -1.82368e-15 0)
(3 -2.23201e-15 0)
(3 -2.80567e-15 0)
(3 -2.36017e-15 0)
(3 -8.799e-16 0)
(3 -2.40682e-16 0)
(3 -2.7535e-16 0)
(3 -3.17484e-16 0)
(3 -3.61154e-16 0)
(3 -3.39559e-16 0)
(3 -4.30115e-16 0)
(3 -5.01701e-17 0)
(3 -3.4956e-16 0)
(3 -4.73548e-16 0)
(3 6.05932e-17 0)
(3 1.42189e-16 0)
(3 -1.52431e-16 0)
(3 -4.39271e-16 0)
(3 -6.65372e-16 0)
(3 -1.33732e-15 0)
(3 -2.05736e-15 0)
(3 -2.81141e-15 0)
(3 -2.18721e-15 0)
(3 -1.23604e-15 0)
(3 -1.12634e-15 0)
(3 -4.69453e-16 0)
(3 7.15511e-16 0)
(3 2.10054e-15 0)
(3 3.29006e-15 0)
(3 3.94282e-15 0)
(3 2.13269e-15 0)
(3 4.49899e-16 0)
(3 -7.10512e-16 0)
(3 -4.6208e-16 0)
(3 1.7319e-17 0)
(3 6.77965e-16 0)
(3 7.70897e-17 0)
(3 9.74817e-17 0)
(3 -2.2283e-16 0)
(3 -4.62051e-16 0)
(3 -1.06015e-16 0)
(3 2.062e-17 0)
(3 2.61981e-15 0)
(3 3.16629e-15 0)
(3 3.13922e-15 0)
(3 3.19084e-15 0)
(3 3.15367e-15 0)
(3 2.56834e-15 0)
(3 4.59648e-17 0)
(3 -1.14005e-15 0)
(3 8.69555e-17 0)
(3 3.49123e-18 0)
(3 -3.20616e-16 0)
(3 -1.04338e-17 0)
(3 6.01991e-16 0)
(3 2.95615e-16 0)
(3 -8.07551e-17 0)
(3 1.50886e-16 0)
(3 3.43232e-16 0)
(3 2.60971e-16 0)
(3 8.26573e-16 0)
(3 2.10498e-15 0)
(3 2.18897e-15 0)
(3 2.66455e-15 0)
(3 2.64601e-15 0)
(3 1.34227e-15 0)
(3 1.19875e-15 0)
(3 9.35018e-16 0)
(3 8.48104e-16 0)
(3 1.39195e-15 0)
(3 2.85047e-16 0)
(3 -2.96842e-16 0)
(3 -2.71154e-16 0)
(3 -4.84812e-16 0)
(3 -9.55204e-16 0)
(3 -8.47549e-16 0)
(3 -2.20177e-16 0)
(3 -1.66097e-16 0)
(3 -3.59029e-16 0)
(3 -3.68609e-16 0)
(3 -2.34156e-16 0)
(3 3.39484e-16 0)
(3 1.21802e-15 0)
(3 9.8055e-16 0)
(3 -6.15994e-16 0)
(3 -1.19653e-15 0)
(3 -1.16016e-15 0)
(3 -1.10794e-15 0)
(3 8.46402e-18 0)
(3 9.26737e-16 0)
(3 1.07045e-15 0)
(3 1.04551e-15 0)
(3 8.28903e-16 0)
(3 5.21945e-16 0)
(3 1.12242e-16 0)
(3 -7.94144e-16 0)
(3 -1.60582e-15 0)
(3 -1.85478e-15 0)
(3 -1.98988e-15 0)
(3 -5.35391e-16 0)
(3 1.60196e-15 0)
(3 2.05517e-15 0)
(3 1.22575e-15 0)
(3 7.25536e-16 0)
(3 4.90133e-16 0)
(3 1.61385e-16 0)
(3 -3.55288e-16 0)
(3 -3.36429e-16 0)
(3 -5.08928e-16 0)
(3 -5.867e-16 0)
(3 -2.99456e-16 0)
(3 -2.65813e-16 0)
(3 -2.84488e-16 0)
(3 -3.91306e-16 0)
(3 -9.51093e-17 0)
(3 -6.75691e-16 0)
(3 -1.3483e-15 0)
(3 -2.10313e-15 0)
(3 -2.54982e-15 0)
(3 -1.37353e-15 0)
(3 9.30623e-17 0)
(3 1.0551e-15 0)
(3 1.73305e-15 0)
(3 1.69271e-15 0)
(3 1.75476e-15 0)
(3 2.05614e-15 0)
(3 9.41348e-16 0)
(3 -1.11971e-15 0)
(3 -1.56087e-15 0)
(3 -1.37038e-15 0)
(3 -1.03173e-15 0)
(3 -7.51283e-16 0)
(3 -4.45073e-16 0)
(3 -3.37831e-16 0)
(3 -2.03135e-16 0)
(3 -3.82056e-16 0)
(3 -1.11899e-15 0)
(3 -1.59477e-15 0)
(3 1.55454e-15 0)
(3 2.56759e-15 0)
(3 4.48913e-15 0)
(3 4.95981e-15 0)
(3 3.12621e-15 0)
(3 -5.91988e-16 0)
(3 -2.16185e-15 0)
(3 -1.78491e-15 0)
(3 8.20138e-17 0)
(3 8.11122e-17 0)
(3 -2.0612e-16 0)
(3 -1.02176e-16 0)
(3 4.84632e-16 0)
(3 1.14811e-16 0)
(3 3.75134e-16 0)
(3 7.12244e-16 0)
(3 4.22012e-16 0)
(3 5.21144e-16 0)
(3 7.1621e-16 0)
(3 4.12829e-16 0)
(3 4.47648e-16 0)
(3 9.13605e-16 0)
(3 1.32498e-15 0)
(3 1.13208e-15 0)
(3 1.19212e-15 0)
(3 6.10748e-16 0)
(3 -4.00596e-16 0)
(3 -3.80014e-16 0)
(3 -4.64192e-16 0)
(3 -7.71864e-16 0)
(3 -9.72269e-16 0)
(3 -1.00366e-15 0)
(3 -1.07942e-15 0)
(3 -5.23257e-16 0)
(3 -2.91406e-16 0)
(3 -6.73694e-16 0)
(3 -7.85744e-16 0)
(3 -3.88915e-16 0)
(3 -8.7568e-16 0)
(3 -5.74692e-16 0)
(3 3.41732e-16 0)
(3 6.6218e-16 0)
(3 -1.69195e-15 0)
(3 -4.37103e-15 0)
(3 -3.7955e-15 0)
(3 -1.99024e-15 0)
(3 -2.81255e-16 0)
(3 8.43386e-16 0)
(3 8.98135e-16 0)
(3 2.97311e-16 0)
(3 -9.67737e-16 0)
(3 -8.63972e-16 0)
(3 1.05881e-16 0)
(3 3.85218e-16 0)
(3 4.35265e-16 0)
(3 -4.8586e-16 0)
(3 -9.12666e-17 0)
(3 -2.63431e-16 0)
(3 6.10789e-16 0)
(3 1.16542e-15 0)
(3 9.96105e-16 0)
(3 5.96303e-16 0)
(3 1.27712e-15 0)
(3 1.55203e-15 0)
(3 1.37891e-15 0)
(3 7.29264e-16 0)
(3 5.99909e-16 0)
(3 5.05943e-17 0)
(3 -5.07029e-16 0)
(3 -5.63529e-16 0)
(3 4.11353e-17 0)
(3 3.69403e-16 0)
(3 5.30289e-16 0)
(3 6.86329e-16 0)
(3 2.763e-16 0)
(3 3.6887e-16 0)
(3 6.00337e-16 0)
(3 9.97677e-16 0)
(3 1.445e-15 0)
(3 1.39764e-15 0)
(3 7.85756e-16 0)
(3 -2.28879e-16 0)
(3 1.07761e-16 0)
(3 -3.19818e-17 0)
(3 -1.29323e-15 0)
(3 -1.8057e-15 0)
(3 -1.85217e-15 0)
(3 -2.22373e-15 0)
(3 -2.43482e-15 0)
(3 -2.24634e-15 0)
(3 -8.59886e-16 0)
(3 -2.61094e-16 0)
(3 2.21196e-16 0)
(3 6.45008e-16 0)
(3 -7.54157e-17 0)
(3 -7.99601e-16 0)
(3 2.69774e-16 0)
(3 1.23936e-15 0)
(3 1.02944e-15 0)
(3 2.06646e-16 0)
(3 -1.39503e-16 0)
(3 -5.47623e-17 0)
(3 4.78293e-17 0)
(3 2.96767e-16 0)
(3 -1.08983e-16 0)
(3 1.09545e-16 0)
(3 8.99867e-16 0)
(3 5.85621e-16 0)
(3 3.27952e-16 0)
(3 -2.55716e-16 0)
(3 -3.20606e-16 0)
(3 -6.24709e-16 0)
(3 -6.72541e-16 0)
(3 -1.9923e-16 0)
(3 -2.79235e-16 0)
(3 -8.99373e-16 0)
(3 -7.85867e-16 0)
(3 -5.29198e-16 0)
(3 -3.21285e-16 0)
(3 -2.04412e-16 0)
(3 -1.9825e-16 0)
(3 5.36347e-17 0)
(3 -1.40413e-16 0)
(3 1.01163e-16 0)
(3 -3.31884e-17 0)
(3 -1.24047e-15 0)
(3 -2.04722e-15 0)
(3 -1.74876e-15 0)
(3 -6.46063e-16 0)
(3 -4.72836e-16 0)
(3 -5.12145e-16 0)
(3 -6.47324e-16 0)
(3 -3.56767e-16 0)
(3 -1.67513e-16 0)
(3 -2.44999e-16 0)
(3 -6.70288e-16 0)
(3 -9.55609e-16 0)
(3 -1.78988e-15 0)
(3 -2.83104e-15 0)
(3 -2.83953e-15 0)
(3 -2.24269e-15 0)
(3 -7.25981e-16 0)
(3 6.86644e-16 0)
(3 9.15667e-16 0)
(3 8.49735e-16 0)
(3 2.62602e-16 0)
(3 -1.78208e-16 0)
(3 -3.35319e-16 0)
(3 1.00329e-15 0)
(3 2.20925e-15 0)
(3 1.74845e-15 0)
(3 4.06849e-16 0)
(3 2.56499e-17 0)
(3 -5.75175e-16 0)
(3 -5.68861e-16 0)
(3 -3.86276e-16 0)
(3 -2.63244e-17 0)
(3 -8.3132e-17 0)
(3 -1.08076e-16 0)
(3 -2.54542e-16 0)
(3 1.95841e-16 0)
(3 5.44288e-16 0)
(3 1.54477e-15 0)
(3 1.4583e-15 0)
(3 1.22885e-16 0)
(3 -2.22081e-16 0)
(3 1.03885e-15 0)
(3 1.21071e-15 0)
(3 1.43114e-15 0)
(3 1.62986e-15 0)
(3 1.57477e-15 0)
(3 1.20181e-15 0)
(3 1.12534e-15 0)
(3 1.44917e-15 0)
(3 1.75662e-15 0)
(3 -2.45331e-16 0)
(3 -1.30542e-15 0)
(3 -1.41652e-15 0)
(3 -1.31988e-15 0)
(3 -8.40047e-16 0)
(3 -2.50012e-15 0)
(3 -3.14665e-15 0)
(3 -3.21213e-15 0)
(3 -2.36359e-15 0)
(3 -1.63477e-15 0)
(3 -7.11924e-16 0)
(3 -2.63645e-16 0)
(3 3.11897e-17 0)
(3 1.32793e-16 0)
(3 1.05517e-16 0)
(3 -1.42496e-16 0)
(3 -4.16982e-16 0)
(3 -2.71429e-16 0)
(3 -1.02982e-15 0)
(3 -2.15369e-15 0)
(3 -3.96711e-15 0)
(3 -2.85231e-15 0)
(3 -2.06417e-15 0)
(3 -4.60655e-16 0)
(3 -1.21383e-16 0)
(3 4.76633e-17 0)
(3 -5.6283e-17 0)
(3 3.58122e-16 0)
(3 2.94289e-16 0)
(3 -2.56172e-16 0)
(3 -6.32633e-16 0)
(3 -1.08472e-15 0)
(3 -1.26015e-15 0)
(3 -1.34642e-15 0)
(3 -1.3243e-15 0)
(3 -2.13718e-15 0)
(3 -1.90036e-15 0)
(3 -1.50389e-15 0)
(3 -1.69424e-15 0)
(3 -2.08535e-15 0)
(3 -2.21216e-15 0)
(3 -1.68317e-15 0)
(3 -1.4284e-15 0)
(3 -1.58708e-15 0)
(3 -1.50069e-15 0)
(3 -1.54783e-15 0)
(3 -1.97975e-15 0)
(3 -2.4185e-15 0)
(3 -2.31325e-15 0)
(3 -9.99599e-16 0)
(3 -5.9984e-16 0)
(3 -5.38302e-16 0)
(3 -1.85687e-16 0)
(3 6.32172e-16 0)
(3 1.07804e-15 0)
(3 1.34728e-15 0)
(3 8.92636e-16 0)
(3 -1.06096e-15 0)
(3 -2.36978e-15 0)
(3 -1.82553e-15 0)
(3 -1.178e-15 0)
(3 -9.72896e-16 0)
(3 -7.49998e-16 0)
(3 2.09915e-16 0)
(3 3.9554e-16 0)
(3 7.84632e-16 0)
(3 1.05201e-15 0)
(3 1.60628e-15 0)
(3 2.33133e-15 0)
(3 2.67113e-15 0)
(3 2.55482e-15 0)
(3 1.26727e-15 0)
(3 3.03092e-16 0)
(3 1.09666e-15 0)
(3 6.78009e-16 0)
(3 -3.21327e-16 0)
(3 -1.04757e-15 0)
(3 -1.29863e-15 0)
(3 -1.76841e-15 0)
(3 -1.80955e-15 0)
(3 -1.20705e-15 0)
(3 -6.20386e-16 0)
(3 5.09272e-16 0)
(3 1.14019e-15 0)
(3 9.31734e-16 0)
(3 1.19375e-15 0)
(3 5.73947e-16 0)
(3 6.61151e-16 0)
(3 9.57067e-16 0)
(3 1.05655e-15 0)
(3 6.08984e-16 0)
(3 3.89963e-16 0)
(3 1.97135e-16 0)
(3 3.59723e-16 0)
(3 5.553e-16 0)
(3 2.04056e-16 0)
(3 -2.00106e-16 0)
(3 -7.51679e-16 0)
(3 -7.38564e-16 0)
(3 -9.51954e-16 0)
(3 -1.27887e-15 0)
(3 -1.19624e-15 0)
(3 -1.02991e-15 0)
(3 -8.1895e-16 0)
(3 -6.53123e-17 0)
(3 2.96155e-16 0)
(3 8.06374e-16 0)
(3 7.40893e-16 0)
(3 6.24207e-16 0)
(3 4.37902e-16 0)
(3 3.55565e-16 0)
(3 -7.74631e-16 0)
(3 -1.29473e-15 0)
(3 -1.51979e-15 0)
(3 -1.85625e-15 0)
(3 -3.19202e-15 0)
(3 -3.71726e-15 0)
(3 -3.56065e-15 0)
(3 -2.71304e-15 0)
(3 -1.28299e-15 0)
(3 -3.70337e-16 0)
(3 8.72753e-18 0)
(3 8.06424e-17 0)
(3 9.09612e-18 0)
(3 -1.57167e-16 0)
(3 -9.78418e-17 0)
(3 -3.67953e-17 0)
(3 -2.10739e-16 0)
(3 -5.56421e-16 0)
(3 -6.69812e-16 0)
(3 -1.11887e-15 0)
(3 -1.42111e-15 0)
(3 -8.55358e-16 0)
(3 -1.42214e-15 0)
(3 -1.14377e-15 0)
(3 -1.23579e-15 0)
(3 -1.5353e-15 0)
(3 -1.4065e-15 0)
(3 -1.6383e-15 0)
(3 -1.70783e-15 0)
(3 -2.52183e-15 0)
(3 -3.1248e-15 0)
(3 -2.61338e-15 0)
(3 -1.68053e-15 0)
(3 -7.19576e-16 0)
(3 -1.99492e-16 0)
(3 1.87012e-16 0)
(3 4.23183e-16 0)
(3 6.96647e-16 0)
(3 7.99491e-16 0)
(3 9.4955e-16 0)
(3 8.97352e-16 0)
(3 -1.23903e-16 0)
(3 -2.49353e-15 0)
(3 -2.85161e-15 0)
(3 -1.37136e-15 0)
(3 -2.55697e-17 0)
(3 1.86872e-16 0)
(3 -7.94489e-17 0)
(3 -3.74155e-16 0)
(3 -8.79251e-17 0)
(3 -9.01641e-17 0)
(3 3.17279e-16 0)
(3 1.46462e-15 0)
(3 2.00724e-15 0)
(3 2.18236e-15 0)
(3 2.18761e-15 0)
(3 1.61959e-15 0)
(3 1.75629e-15 0)
(3 2.54234e-15 0)
(3 2.5388e-15 0)
(3 1.85005e-15 0)
(3 5.1527e-16 0)
(3 -8.59902e-16 0)
(3 -1.19291e-15 0)
(3 -7.71977e-16 0)
(3 -7.44216e-16 0)
(3 1.1897e-16 0)
(3 6.05264e-16 0)
(3 4.02728e-16 0)
(3 4.84202e-16 0)
(3 1.10702e-15 0)
(3 1.55486e-15 0)
(3 9.62102e-16 0)
(3 6.58524e-16 0)
(3 8.56538e-16 0)
(3 1.18303e-15 0)
(3 9.57609e-16 0)
(3 1.07086e-15 0)
(3 1.48128e-15 0)
(3 1.00449e-15 0)
(3 -1.14389e-16 0)
(3 2.07237e-16 0)
(3 6.3818e-16 0)
(3 1.82442e-16 0)
(3 -3.60302e-16 0)
(3 -1.50041e-16 0)
(3 4.96482e-16 0)
(3 1.05808e-15 0)
(3 1.09484e-15 0)
(3 4.44464e-16 0)
(3 4.08564e-16 0)
(3 1.38375e-16 0)
(3 5.28553e-16 0)
(3 6.25327e-16 0)
(3 -2.46379e-16 0)
(3 -1.08212e-15 0)
(3 -1.97316e-15 0)
(3 -2.52987e-15 0)
(3 -3.88907e-15 0)
(3 -3.71679e-15 0)
(3 -3.39496e-15 0)
(3 -3.53977e-15 0)
(3 -3.13196e-15 0)
(3 -2.61626e-15 0)
(3 -1.99849e-15 0)
(3 -1.48442e-15 0)
(3 -3.29548e-17 0)
(3 3.01812e-16 0)
(3 -1.27069e-16 0)
(3 -3.22412e-16 0)
(3 -4.71715e-16 0)
(3 -3.28941e-16 0)
(3 1.16022e-16 0)
(3 -6.09592e-17 0)
(3 -6.56309e-16 0)
(3 -9.6521e-16 0)
(3 -3.75487e-16 0)
(3 -2.06143e-16 0)
(3 9.86416e-17 0)
(3 6.85934e-16 0)
(3 8.31294e-16 0)
(3 4.84958e-16 0)
(3 -2.55065e-16 0)
(3 -1.09501e-15 0)
(3 -1.67532e-15 0)
(3 -1.70473e-15 0)
(3 -1.69995e-15 0)
(3 -8.79025e-16 0)
(3 -2.57953e-16 0)
(3 -1.24545e-16 0)
(3 -4.96661e-16 0)
(3 -6.71128e-16 0)
(3 -5.90893e-16 0)
(3 -4.48275e-16 0)
(3 -6.35839e-16 0)
(3 -1.52661e-15 0)
(3 -1.53064e-15 0)
(3 -1.36042e-15 0)
(3 -1.82335e-15 0)
(3 -1.74997e-15 0)
(3 -1.54378e-15 0)
(3 -1.05158e-15 0)
(3 -8.05305e-16 0)
(3 -1.18919e-15 0)
(3 -1.54214e-15 0)
(3 -1.46331e-15 0)
(3 -9.7345e-16 0)
(3 -3.30127e-17 0)
(3 1.35423e-15 0)
(3 1.88759e-15 0)
(3 2.41651e-15 0)
(3 2.50447e-15 0)
(3 2.45581e-15 0)
(3 3.088e-15 0)
(3 3.95925e-15 0)
(3 2.256e-15 0)
(3 1.2255e-15 0)
(3 5.65751e-16 0)
(3 1.82893e-17 0)
(3 -1.47575e-16 0)
(3 -2.01897e-16 0)