/*--------------------------------*- C++ -*----------------------------------*\
  =========                 |
  \\      /  F ield         | OpenFOAM: The Open Source CFD Toolbox
   \\    /   O peration     | Website:  https://openfoam.org
    \\  /    A nd           | Version:  7
     \\/     M anipulation  |
\*---------------------------------------------------------------------------*/
FoamFile
{
    version     2.0;
    format      ascii;
    class       volScalarField;
    location    "1.8";
    object      p;
}
// * * * * * * * * * * * * * * * * * * * * * * * * * * * * * * * * * * * * * //

dimensions      [1 -1 -2 0 0 0 0];

internalField   nonuniform List<scalar> 
4608
(
1
1
1
1
1
1
1
1
1
1
1
1
1
1
1
1
1
1
1
1
1
1
1
1
1
1
1
1
1
1
1
1
1
1
1
1
1
1
1
1
1
1
1
1
1
1
1
1
1
1
1
1
1
1
1
1
1
1
1
1
1
1
1
1
1
1
1
1
1
1
1
1
1
1
1
1
1
1
1
1
1
1
1
1
1
1
1
1
1
1
1
1
1
1
1
1
1
1
1
1
1
1
1
1
1
1
1
1
1
1
1
1
1
1
1
1
1
1
1
1
1
1
1
1
1
1
1
1
1
1
1
1
1
1
1
1
1
1
1
1
1
1
1
1
1
1
1
1
1
1
1
1
1
1
1
1
1
1
1
1
1
1
1
1
1
1
1
1
1
1
1
1
1
1
1
1
1
1
1
1
1
1
1
1
1
1
1
1
1
1
1
1
1
1
1
1
1
1
1
1
1
1
1
1
1
1
1
1
1
1
1
1
1
1
1
1
1
1
1
1
1
1
1
1
1
1
1
1
1
1
1
1
1
1
1
1
1
1
1
1
1
1
1
1
1
1
1
1
1
1
1
1
1
1
1
1
1
1
1
1
1
1
1
1
1
1
1
1
1
1
1
1
1
1
1
1
1
1
1
1
1
1
1
1
1
1
1
1
1
1
1
1
1
1
1
1
1
1
1
1
1
1
1
1
1
1
1
1
1
1
1
1
1
1
1
1
1
1
1
1
1
1
1
1
1
1
1
1
1
1
1
1
1
1
1
1
1
1
1
1
1
1
1
1
1
1
1
1
1
1
1
1
1
1
1
1
1
1
1
1
1
1
1
1
1
1
1
1
1
1
1
1
1
1
1
1
1
1
1
1
1
1
1
1
1
1
1
1
1
1
1
1
1
1
1
1
1
1
1
1
1
1
1
1
1
1
1
1
1
1
1
1
1
1
1
1
1
1
1
1
1
1
1
1
1
1
1
1
1
1
1
1
1
1
1
1
1
1
1
1
1
1
1
1
1
1
1
1
1
1
1
1
1
1
1
1
1
1
1
1
1
1
1
1
1
1
1
1
1
1
1
1
1
1
1
1
1
1
1
1
1
1
1
1
1
1
1
1
1
1
1
1
1
1
1
1
1
1
1
1
1
1
1
1
1
1
1
1
1
1
1
1
1
1
1
1
1
1
1
1
1
1
1
1
1
1
1
1
1
1
1
1
1
1
1
1
1
1
1
1
1
1
1
1
1
1
1
1
1
1
1
1
1
1
1
1
1
1
1
1
1
1
1
1
1
1
1
1
1
1
1
1
1
1
1
1
1
1
1
1
1
1
1
1
1
1
1
1
1
1
1
1
1
1
1
1
1
1
1
1
1
1
1
1
1
1
1
1
1
1
1
1
1
1
1
1
1
1
1
1
1
1
1
1
1
1
1
1
1
1
1
1
1
1
1
1
1
1
1
1
1
1
1
1
1
1
1
1
1
1
1
1
1
1
1
1
1
1
1
1
1
1
1
1
1
1
1
1
1
1
1
1
1
1
1
1
1
1
1
1
1
1
1
1
1
1
1
1
1
1
1
1
1
1
1
1
1
1
1
1
1
1
1
1
1
1
1
1
1
1
1
1
1
1
1
1
1
1
1
1
1
1
1
1
1
1
1
1
1
1
1
1
1
1
1
1
1
1
1
1
1
1
1
1
1
1
1
1
1
1
1
1
1
1
1
1
1
1
1
1
1
1
1
1
1
1
1
1
1.29185
1.75583
2.34547
2.96887
3.63798
4.31205
4.79955
5.31608
5.3824
5.16645
4.69723
4.21225
3.80501
3.65811
3.56814
3.57968
3.61951
3.65958
3.68403
3.69858
3.71576
3.74179
3.76683
3.77391
1.00311
1.01973
1.07899
1.2229
1.4643
1.86275
2.36168
3.00477
3.5653
3.84903
4.01454
4.04134
3.99134
3.85909
3.75813
3.72197
3.71065
3.69024
3.68763
3.69518
3.71443
3.73262
3.75033
3.76648
1
0.999981
0.999989
1.00031
1.00341
1.02437
1.1092
1.36074
1.99192
3.0039
3.82699
4.29598
4.37755
4.28377
4.11047
3.83767
3.72688
3.70395
3.68858
3.69846
3.71373
3.72363
3.73449
3.76008
1
0.999999
0.999997
0.999998
0.999986
1.00004
0.999954
1.00159
1.03679
1.28699
2.05707
3.067
4.04245
4.12936
4.07679
3.99502
3.8767
3.8006
3.76215
3.72691
3.71592
3.72064
3.72911
3.75535
1
1
1
1
0.999999
0.999999
0.999995
0.999992
0.999904
1.00108
1.04545
1.34552
2.2442
3.2626
3.94439
4.11803
4.07348
3.95501
3.84846
3.77793
3.7283
3.70443
3.71209
3.73146
1
1
1
1
1
1
1
0.999999
0.999989
0.999991
0.999906
1.00302
1.06895
1.54555
2.50856
3.54418
3.86697
3.86496
3.82963
3.76215
3.70663
3.70529
3.69791
3.70653
1
1
1
1
1
1
1
1
1
0.999999
0.99999
0.999989
0.999969
1.01305
1.14622
1.81057
2.86015
3.75972
3.90653
3.84833
3.78727
3.76864
3.7412
3.7145
1
1
1
1
1
1
1
1
1
1
1
0.999998
0.999995
0.999965
1.00068
1.04167
1.33503
2.29659
3.26361
3.78621
3.86237
3.84952
3.80558
3.74735
1
1
1
1
1
1
1
1
1
1
1
1
1
0.999996
0.999992
1.00004
1.00615
1.14511
1.75386
2.88604
3.43808
3.71078
3.79973
3.7747
1
1
1
1
1
1
1
1
1
1
1
1
1
1
0.999999
0.999999
0.999984
1.0018
1.04221
1.42271
2.32684
3.4025
3.74395
3.73257
1
1
1
1
1
1
1
1
1
1
1
1
1
1
1
1
0.999997
0.99999
1.00014
1.01631
1.21159
2.00908
3.03031
3.58072
1
1
1
1
1
1
1
1
1
1
1
1
1
1
1
1
1
0.999998
0.999997
1.00002
1.00531
1.10423
1.74785
2.77673
1
1
1
1
1
1
1
1
1
1
1
1
1
1
1
1
1
1
0.999999
0.999999
0.999998
1.00176
1.07236
1.50708
1
1
1
1
1
1
1
1
1
1
1
1
1
1
1
1
1
1
1
1
0.999999
0.999999
1.00136
1.02738
1
1
1
1
1
1
1
1
1
1
1
1
1
1
1
1
1
1
1
1
1
0.999999
1.00001
0.999984
1
1
1
1
1
1
1
1
1
1
1
1
1
1
1
1
1
1
1
1
1
1
1
0.999991
1
1
1
1
1
1
1
1
1
1
1
1
1
1
1
1
1
1
1
1
1
1
1
0.999992
1
1
1
1
1
1
1
1
1
1
1
1
1
1
1
1
1
1
1
1
1
0.999999
1.00001
0.999988
1
1
1
1
1
1
1
1
1
1
1
1
1
1
1
1
1
1
1
1
0.999999
0.999999
1.00144
1.02618
1
1
1
1
1
1
1
1
1
1
1
1
1
1
1
1
1
1
0.999999
0.999999
0.999998
1.00172
1.07346
1.50239
1
1
1
1
1
1
1
1
1
1
1
1
1
1
1
1
1
0.999998
0.999997
1.00002
1.00532
1.10432
1.74301
2.7927
1
1
1
1
1
1
1
1
1
1
1
1
1
1
1
1
0.999997
0.99999
1.00014
1.0163
1.2117
2.01118
3.02076
3.59194
1
1
1
1
1
1
1
1
1
1
1
1
1
1
0.999999
0.999999
0.999984
1.0018
1.0422
1.42272
2.32717
3.40256
3.74322
3.73343
1
1
1
1
1
1
1
1
1
1
1
1
1
0.999996
0.999992
1.00004
1.00615
1.14513
1.75369
2.88653
3.43797
3.71016
3.79967
3.77445
1
1
1
1
1
1
1
1
1
1
1
0.999998
0.999995
0.999965
1.00068
1.04167
1.33504
2.29658
3.2635
3.78646
3.86229
3.84944
3.80567
3.74739
1
1
1
1
1
1
1
1
1
0.999999
0.99999
0.999989
0.999969
1.01305
1.14622
1.81056
2.8602
3.75969
3.9065
3.84832
3.78728
3.76863
3.74124
3.71451
1
1
1
1
1
1
1
0.999999
0.999989
0.999991
0.999906
1.00302
1.06895
1.54555
2.50855
3.54419
3.86699
3.86496
3.82962
3.76216
3.70664
3.7053
3.69792
3.70654
1
1
1
1
0.999999
0.999999
0.999995
0.999992
0.999904
1.00108
1.04545
1.34552
2.2442
3.2626
3.94438
4.11803
4.07349
3.955
3.84846
3.77792
3.72831
3.70443
3.71209
3.73147
1
0.999999
0.999997
0.999998
0.999986
1.00004
0.999954
1.00159
1.03679
1.28699
2.05707
3.067
4.04245
4.12936
4.07679
3.99502
3.87671
3.80059
3.76215
3.72691
3.71593
3.72064
3.72911
3.75535
1
0.999981
0.999989
1.00031
1.00341
1.02437
1.1092
1.36074
1.99192
3.0039
3.82699
4.29598
4.37755
4.28377
4.11047
3.83767
3.72689
3.70395
3.68858
3.69846
3.71373
3.72362
3.73449
3.76008
1.00311
1.01973
1.07899
1.2229
1.4643
1.86275
2.36168
3.00477
3.5653
3.84903
4.01454
4.04134
3.99134
3.85909
3.75813
3.72197
3.71065
3.69024
3.68763
3.69518
3.71443
3.73262
3.75033
3.76648
1.29185
1.75583
2.34547
2.96887
3.63798
4.31205
4.79955
5.31608
5.3824
5.16645
4.69723
4.21225
3.80501
3.65811
3.56814
3.57968
3.61951
3.65958
3.68403
3.69858
3.71576
3.74179
3.76683
3.77391
2.65813
1.69954
1.16923
0.820098
0.640787
0.648383
0.715458
0.762103
0.812157
0.861
0.890349
0.915018
0.950551
1.01003
1.05897
1.06542
1.06472
1.05601
1.05073
1.04945
1.04812
1.06174
1.07676
1.1537
1.54201
2.74957
4.54821
6.69496
8.85882
9.45222
8.76898
7.58459
6.81769
6.48038
6.31951
6.14804
5.94801
5.73987
5.50502
5.24442
4.99533
4.78464
4.6128
4.46472
4.32995
4.19979
4.06882
3.932
3.78353
3.61652
3.45033
3.31622
3.22185
3.14963
3.08236
3.01717
2.95204
2.87881
2.78282
2.66671
2.54429
2.45292
2.40074
2.3608
2.31669
2.26874
2.21815
2.16406
2.09708
2.02555
1.94047
1.92404
1.96924
2.15606
2.53813
3.16375
3.78564
4.2686
4.73333
4.93085
4.91816
4.81833
4.55397
4.23865
4.13392
4.09556
4.05357
4.00813
3.95002
3.88215
3.7744
3.59416
3.47662
3.43989
3.40767
3.33814
3.37206
2.72353
2.18633
1.82072
1.42272
1.21978
1.15234
1.07432
1.01392
0.962638
0.910779
0.892006
0.901303
0.928339
0.981398
1.00122
1.00174
0.999571
1.0055
1.01066
1.01646
1.03647
1.15447
1.6944
2.59792
3.10826
3.57844
4.25865
5.61443
6.88696
7.52602
7.38572
6.98013
6.66085
6.40846
6.19148
5.99363
5.78436
5.55536
5.30746
5.06221
4.85962
4.69687
4.55223
4.41654
4.28123
4.14238
4.00054
3.85351
3.6933
3.52972
3.39294
3.29347
3.2151
3.14497
3.07802
3.00963
2.93227
2.83653
2.72451
2.60836
2.51094
2.44849
2.40388
2.35692
2.30769
2.25546
2.20425
2.15042
2.08479
2.05908
2.12193
2.3457
2.63943
2.93829
3.17765
3.46057
3.72966
3.98772
4.17878
4.27744
4.32751
4.31714
4.25979
4.19781
4.1602
4.10849
4.03982
3.96919
3.89374
3.78566
3.6308
3.50734
3.46531
3.43301
3.36518
3.66276
3.35148
2.83268
2.39594
2.01834
1.63012
1.40828
1.25195
1.10021
1.02668
0.967444
0.910878
0.904317
0.9181
0.952843
0.962315
0.961861
0.960179
0.967002
0.982473
1.00085
1.12827
1.82054
2.70489
3.27313
3.3609
3.34208
3.36027
3.61446
4.61862
6.18104
7.07824
7.16397
6.93759
6.48424
6.12872
5.89856
5.68309
5.44641
5.20159
4.97986
4.7843
4.61046
4.45556
4.31934
4.19349
4.065
3.93079
3.79214
3.64159
3.47489
3.32619
3.2259
3.14921
3.07618
3.0051
2.93741
2.86473
2.77873
2.67731
2.57019
2.46483
2.38126
2.33029
2.286
2.25043
2.21278
2.18976
2.16427
2.18933
2.29444
2.5702
2.87466
3.11332
3.2379
3.2325
3.21553
3.24631
3.30635
3.47306
3.68973
3.94249
4.15197
4.19797
4.20215
4.20601
4.16304
4.06554
3.96333
3.86054
3.74708
3.63923
3.54733
3.48635
3.43412
3.33668
3.74397
3.63493
3.32819
2.89519
2.54685
2.14111
1.78786
1.58634
1.38132
1.27849
1.21764
1.11116
0.993064
0.969322
0.974954
0.96905
0.952093
0.954048
0.950132
0.963118
1.10823
1.78438
2.83824
3.15569
3.29818
3.31521
3.22945
3.11617
3.01758
3.10485
3.70758
5.13888
6.42304
6.53571
6.44969
6.18898
5.90913
5.63655
5.39616
5.19359
5.00671
4.81392
4.60834
4.41797
4.25888
4.13936
4.03809
3.92945
3.79713
3.64137
3.47057
3.31155
3.20261
3.13053
3.05855
2.98148
2.90935
2.83734
2.75627
2.66073
2.55974
2.45803
2.36836
2.30523
2.26316
2.24095
2.22939
2.24903
2.3552
2.62516
2.93696
3.17854
3.28125
3.34065
3.32858
3.26379
3.18106
3.10723
3.01655
3.01985
3.09533
3.28284
3.6186
3.89696
4.02624
4.08316
4.06545
4.00946
3.93737
3.85448
3.75689
3.67619
3.59729
3.52462
3.4563
3.34162
3.75125
3.73006
3.59922
3.30441
2.94932
2.6128
2.25023
1.93997
1.68637
1.5094
1.42534
1.33244
1.1907
1.03011
0.982873
0.976008
0.96247
0.956084
0.987626
1.23259
1.91832
2.94067
3.23314
3.2011
3.16646
3.09305
3.00506
2.9256
2.86657
2.77719
2.78049
3.06559
4.15622
5.46881
6.16718
6.14632
5.93156
5.59782
5.31752
5.10088
4.92157
4.73978
4.55339
4.38
4.22846
4.09704
3.97798
3.85884
3.73514
3.60897
3.4753
3.32388
3.17461
3.08796
3.03388
2.9795
2.91485
2.8414
2.75325
2.65513
2.55734
2.45702
2.36503
2.30443
2.28325
2.28791
2.37446
2.61004
2.99545
3.31888
3.45218
3.45547
3.42546
3.37913
3.32088
3.25509
3.17819
3.0898
2.97618
2.90576
2.88396
2.91053
3.04023
3.3249
3.5794
3.80587
3.97435
3.9726
3.90255
3.78169
3.70726
3.6714
3.62028
3.56037
3.50649
3.38593
3.72785
3.72326
3.6936
3.55836
3.29
2.94059
2.64535
2.37695
2.07325
1.76316
1.6356
1.57127
1.47726
1.27896
1.10078
1.07692
1.07911
1.12433
1.42266
2.22853
3.10762
3.40121
3.3304
3.18303
3.03547
2.93289
2.8679
2.80037
2.73227
2.6471
2.55961
2.48359
2.60558
3.2748
4.51084
5.48908
5.59205
5.51889
5.31164
5.09523
4.88502
4.69069
4.51166
4.3491
4.20228
4.06352
3.94153
3.82788
3.71225
3.59292
3.46172
3.31815
3.18599
3.08736
3.0037
2.92831
2.84779
2.78709
2.74219
2.67668
2.5936
2.50242
2.40919
2.34691
2.37251
2.55746
2.93464
3.35661
3.67076
3.67906
3.63901
3.59252
3.51804
3.44148
3.37311
3.30653
3.22508
3.10511
2.96989
2.89386
2.85578
2.83393
2.82832
2.88122
3.00604
3.17544
3.41681
3.63043
3.67095
3.62788
3.62034
3.64038
3.65649
3.61886
3.56289
3.42948
3.71972
3.72426
3.7066
3.66909
3.53021
3.28586
2.93096
2.67014
2.45872
2.19735
1.86562
1.72105
1.68015
1.55754
1.38394
1.24648
1.29034
1.69324
2.66922
3.49325
3.68867
3.56866
3.35835
3.16076
2.99514
2.90318
2.82851
2.74613
2.65462
2.5677
2.47156
2.39999
2.3052
2.32493
2.64004
3.56324
4.64142
5.25065
5.20928
5.05557
4.83641
4.63249
4.46462
4.33186
4.19486
4.03584
3.88362
3.75779
3.6511
3.5531
3.45606
3.34932
3.22386
3.09247
2.97398
2.88642
2.81276
2.74414
2.67547
2.60326
2.54184
2.48577
2.45494
2.53036
2.81946
3.30044
3.68632
3.86261
3.85383
3.76872
3.68455
3.61586
3.53473
3.44655
3.35375
3.26359
3.17819
3.07945
2.97878
2.92018
2.87461
2.83651
2.80133
2.75948
2.73165
2.75521
2.83274
3.002
3.22151
3.41587
3.51616
3.57348
3.61378
3.59151
3.53436
3.41489
3.72866
3.73132
3.72543
3.70659
3.64942
3.50651
3.27304
2.96192
2.69326
2.5144
2.26473
2.01188
1.80674
1.72312
1.62729
1.72894
2.34139
3.42456
4.15233
4.12133
3.94343
3.70066
3.46167
3.24548
3.07051
2.95285
2.84063
2.73658
2.62902
2.53292
2.42675
2.3444
2.2587
2.19637
2.13295
2.22868
2.75697
3.7756
4.60286
4.78086
4.74776
4.61155
4.46847
4.33012
4.17696
4.00262
3.83525
3.69898
3.59516
3.50466
3.41309
3.3145
3.20701
3.0877
2.96513
2.85506
2.76831
2.70408
2.64545
2.61203
2.57298
2.60533
2.78907
3.20147
3.6819
3.99992
4.06323
4.03578
3.95934
3.82897
3.68972
3.6074
3.53534
3.4557
3.36884
3.26073
3.14174
3.06007
3.00935
2.96369
2.91287
2.86092
2.80739
2.74894
2.67939
2.62255
2.60442
2.63076
2.7313
2.9313
3.14574
3.30669
3.42102
3.46349
3.45397
3.40655
3.72729
3.72373
3.72398
3.72516
3.71004
3.63414
3.49131
3.26679
3.00781
2.72737
2.53677
2.30531
2.07002
1.99182
2.2268
3.1345
4.37487
4.81415
4.70087
4.41601
4.12116
3.85964
3.6167
3.39721
3.21548
3.06455
2.92169
2.7935
2.67315
2.55176
2.42884
2.32089
2.23628
2.14788
2.07286
1.98611
1.99204
2.22364
2.96546
3.91374
4.45109
4.54121
4.4697
4.31759
4.14348
3.96616
3.80519
3.66867
3.55379
3.45342
3.36686
3.28029
3.1887
3.08319
2.9651
2.84485
2.75422
2.69782
2.65904
2.66425
2.80943
3.19231
3.66888
4.07903
4.22977
4.2165
4.14012
4.00684
3.88303
3.78263
3.69046
3.62152
3.55429
3.47934
3.38951
3.26966
3.13802
3.0594
3.01798
2.98004
2.93935
2.89219
2.83539
2.76715
2.67689
2.59509
2.54619
2.5292
2.52628
2.56992
2.67945
2.84275
3.03193
3.21139
3.35377
3.35223
3.71179
3.70392
3.70246
3.70829
3.71287
3.68882
3.60832
3.45422
3.25238
2.98881
2.76223
2.49369
2.54215
3.07595
4.29326
5.4339
5.60552
5.3956
5.03008
4.67834
4.36566
4.08769
3.82827
3.58355
3.36501
3.17235
3.00015
2.84933
2.72362
2.60074
2.48221
2.36231
2.25806
2.15458
2.05251
1.94101
1.88275
1.84936
1.93365
2.3904
3.26553
4.0163
4.21332
4.18386
4.07211
3.93156
3.78834
3.65179
3.52622
3.41817
3.32798
3.23013
3.13002
3.03063
2.94441
2.85083
2.78806
2.73544
2.78454
3.05718
3.64176
4.14121
4.46178
4.54265
4.49701
4.35436
4.13272
3.95265
3.82557
3.75312
3.70056
3.65037
3.59158
3.52164
3.43087
3.29121
3.14057
3.0643
3.01765
2.97456
2.93409
2.89779
2.86006
2.80233
2.70333
2.58866
2.52569
2.49609
2.47349
2.46335
2.46236
2.49488
2.58366
2.74192
2.95211
3.11121
3.79659
3.79558
3.75844
3.73534
3.72685
3.71947
3.68279
3.59951
3.41959
3.21837
2.99561
3.18973
4.23821
5.74806
6.43039
6.343
5.98937
5.5949
5.23662
4.90628
4.59163
4.29316
4.01626
3.76078
3.52746
3.31177
3.11501
2.93129
2.76175
2.61281
2.50234
2.40482
2.30327
2.19439
2.07856
1.96696
1.86955
1.80519
1.75218
1.76795
2.00497
2.64947
3.46455
3.88026
3.93097
3.88425
3.76814
3.63207
3.49182
3.37449
3.27496
3.17934
3.08965
3.00281
2.94421
2.87827
2.86875
3.00996
3.45183
4.04853
4.50334
4.62396
4.62815
4.59492
4.49833
4.32883
4.10384
3.91459
3.8047
3.74713
3.70316
3.66374
3.61713
3.56224
3.47891
3.33054
3.15949
3.06505
3.01485
2.97236
2.93245
2.8972
2.86406
2.82171
2.74114
2.6126
2.52345
2.48215
2.44994
2.42489
2.40548
2.39889
2.38836
2.41805
2.49183
2.69128
3.5761
3.66778
3.68723
3.72486
3.74551
3.74969
3.72542
3.6599
3.5243
3.53178
4.14393
5.72042
7.27573
7.66348
7.42267
6.827
6.25811
5.79715
5.4154
5.07591
4.76297
4.46999
4.19003
3.91749
3.65582
3.41541
3.20772
3.02392
2.8556
2.70378
2.55931
2.41709
2.29105
2.18694
2.08447
1.99025
1.90243
1.82353
1.74322
1.69077
1.66844
1.74919
2.15273
2.89713
3.43193
3.65617
3.65452
3.56361
3.44282
3.33923
3.22409
3.13065
3.05647
3.00615
2.98797
3.0812
3.38933
3.99096
4.49925
4.82123
4.91335
4.85371
4.7206
4.57495
4.45325
4.3097
4.09562
3.91598
3.82564
3.76917
3.71853
3.66628
3.6118
3.55892
3.49004
3.37046
3.20152
3.07819
3.01935
2.97876
2.94157
2.90387
2.86243
2.81664
2.75147
2.64533
2.54361
2.48755
2.45182
2.41686
2.38512
2.36027
2.34056
2.32123
2.29942
2.3396
2.50863
3.29727
3.74301
3.8051
3.78464
3.72412
3.67203
3.67499
3.94656
5.28088
7.5663
8.44613
8.3551
8.10182
7.65955
7.13731
6.57693
6.04503
5.58602
5.20345
4.87901
4.59588
4.33131
4.06311
3.78203
3.49946
3.24152
3.03968
2.8915
2.76474
2.6337
2.49953
2.3686
2.23795
2.11156
1.9983
1.8955
1.80848
1.73186
1.66214
1.62018
1.5886
1.61005
1.82052
2.32426
2.958
3.36925
3.45488
3.42193
3.31591
3.18039
3.09448
3.06482
3.12105
3.38807
3.97147
4.63547
4.91487
4.94338
4.92856
4.9257
4.88706
4.78747
4.62186
4.4517
4.28816
4.09276
3.93442
3.85028
3.79098
3.73637
3.68298
3.62773
3.5676
3.49226
3.38473
3.24747
3.12305
3.03719
2.98666
2.95181
2.92235
2.89055
2.84315
2.76685
2.65906
2.55632
2.4995
2.46262
2.42616
2.39297
2.35848
2.32606
2.28578
2.2594
2.20466
1.3734
2.21104
3.26894
3.65237
3.6559
3.67302
3.84265
4.59795
6.52062
8.81935
9.9618
9.79647
9.04405
8.29346
7.79173
7.32381
6.80789
6.27425
5.77871
5.35968
5.00111
4.66852
4.3729
4.11639
3.87191
3.61378
3.35545
3.12567
2.93844
2.78586
2.63775
2.50588
2.39222
2.28019
2.17045
2.06388
1.95192
1.83572
1.738
1.65047
1.5913
1.54377
1.51921
1.50177
1.58004
1.87859
2.49177
2.9732
3.22409
3.2114
3.15939
3.19086
3.43532
3.89734
4.61061
5.16629
5.48751
5.43535
5.23212
5.00398
4.8772
4.80715
4.72265
4.58947
4.41906
4.25256
4.10864
3.98896
3.89382
3.81583
3.74447
3.67235
3.59912
3.52303
3.4392
3.34679
3.258
3.16913
3.0837
3.01612
2.96444
2.91962
2.87196
2.81462
2.74302
2.65042
2.55978
2.50337
2.4646
2.43009
2.39933
2.36752
2.33381
2.29154
2.24569
2.17465
1.02586
1.22284
2.05047
3.00339
3.537
4.27738
5.64538
7.67822
9.26748
9.93873
9.976
9.79895
9.35248
8.68041
8.06301
7.48428
6.92862
6.41995
5.96472
5.56266
5.18581
4.80507
4.44019
4.12566
3.84813
3.61839
3.43884
3.26787
3.06431
2.87174
2.70137
2.55511
2.43149
2.30553
2.17505
2.06574
1.99436
1.90796
1.78686
1.67685
1.60484
1.55605
1.50604
1.47299
1.43189
1.42372
1.58671
2.03561
2.66807
3.01435
3.24282
3.8977
4.71504
5.21654
5.55334
5.57722
5.55939
5.43177
5.25001
5.08854
4.91915
4.77073
4.64987
4.53595
4.43608
4.31169
4.16912
4.04374
3.93395
3.83874
3.75998
3.68722
3.60814
3.52243
3.43591
3.35398
3.26781
3.18049
3.10979
3.06075
3.00597
2.94371
2.87505
2.80655
2.74085
2.67739
2.60193
2.54114
2.49929
2.46468
2.43202
2.39725
2.3547
2.30466
2.25278
2.16689
1.00049
1.0126
1.19756
1.92632
3.82424
6.0289
8.14566
9.93914
10.891
10.4827
9.96548
9.74342
9.50301
9.01216
8.26416
7.5398
6.94091
6.44943
6.02188
5.5905
5.18033
4.88292
4.60537
4.29171
3.995
3.7363
3.48923
3.25461
3.01755
2.80614
2.72888
2.66395
2.56117
2.4277
2.29002
2.17069
2.03739
1.87316
1.72107
1.67978
1.65287
1.61415
1.56226
1.5056
1.4332
1.36035
1.3423
1.42307
1.86021
2.86028
3.79002
4.94262
5.72649
6.07871
6.04325
5.88692
5.59034
5.32958
5.18959
5.11368
4.98577
4.80219
4.62454
4.48285
4.35505
4.24925
4.1364
4.03318
3.94537
3.8608
3.7698
3.67266
3.58136
3.49193
3.39982
3.32867
3.28586
3.22904
3.1555
3.0669
2.98366
2.91504
2.85564
2.79918
2.74177
2.66815
2.57832
2.51053
2.46637
2.43095
2.39914
2.36669
2.33503
2.30694
2.27339
2.18287
1.00049
1.01036
1.1738
2.05057
3.6183
5.99787
8.35571
9.89227
10.9078
10.6063
9.9545
9.65543
9.3781
8.8445
8.12425
7.45494
6.94728
6.52734
6.10487
5.6658
5.25405
4.85823
4.49044
4.17498
3.88143
3.65936
3.51119
3.32688
3.09435
2.87136
2.68434
2.5435
2.44674
2.34548
2.23304
2.11757
1.98594
1.84846
1.74609
1.6534
1.57563
1.53535
1.49744
1.45813
1.40238
1.34484
1.34397
1.45824
1.8594
2.71039
4.03129
5.03175
5.56868
6.10432
6.0673
5.7152
5.45991
5.3332
5.23567
5.17468
5.06187
4.86669
4.66679
4.50716
4.33937
4.21862
4.15755
4.08865
4.00379
3.90692
3.78942
3.68051
3.58698
3.49586
3.40687
3.32738
3.25244
3.18998
3.12682
3.05537
2.98238
2.91702
2.86058
2.80737
2.74893
2.67428
2.58257
2.5119
2.46487
2.4285
2.39772
2.36959
2.3423
2.31459
2.27719
2.18063
1.02595
1.22684
2.0266
3.1496
3.41947
4.2412
5.86397
7.64514
9.34448
10.0093
9.97737
9.75545
9.27003
8.59308
7.99139
7.43761
6.90012
6.38981
5.92443
5.52029
5.16074
4.8067
4.47786
4.18745
3.92942
3.67199
3.40586
3.17212
2.99173
2.83897
2.67064
2.51306
2.39901
2.32532
2.24936
2.1352
2.00005
1.87587
1.76269
1.66106
1.57909
1.52423
1.4822
1.45726
1.43198
1.45964
1.6132
2.08928
2.6821
2.91581
3.39534
3.94735
4.50286
5.26574
5.45901
5.4732
5.49235
5.44778
5.29572
5.13509
4.98749
4.83677
4.67988
4.51733
4.36183
4.22941
4.11135
4.01364
3.9256
3.85124
3.79692
3.73039
3.64594
3.55045
3.44758
3.33376
3.23683
3.17347
3.12325
3.07184
3.01462
2.95784
2.90225
2.8449
2.78156
2.7034
2.61038
2.54016
2.49492
2.46136
2.43149
2.40305
2.37208
2.33849
2.29648
2.19278
1.38037
2.18739
3.31714
3.67186
3.61154
3.63549
3.87731
4.61841
6.44382
8.82699
9.94386
9.73009
8.96872
8.24841
7.76866
7.31997
6.81762
6.29634
5.81503
5.39737
5.02759
4.69547
4.39314
4.10499
3.83184
3.56713
3.31254
3.09691
2.94056
2.83153
2.72283
2.58747
2.43808
2.28279
2.15521
2.04612
1.92629
1.84828
1.79329
1.72057
1.6451
1.55786
1.52489
1.51823
1.59565
1.92968
2.47091
3.0439
3.23419
3.18605
3.14497
3.15802
3.31998
3.85554
4.64981
5.21226
5.49862
5.47553
5.29802
5.08651
4.92943
4.81582
4.69851
4.55335
4.39141
4.22895
4.09076
3.99562
3.92012
3.84406
3.76098
3.68041
3.6027
3.51859
3.42247
3.31585
3.21761
3.14587
3.08472
3.02741
2.97709
2.92635
2.87051
2.80737
2.73311
2.64702
2.56341
2.50791
2.46947
2.43575
2.40035
2.36315
2.32862
2.29217
2.25306
2.1805
2.52599
3.28299
3.73597
3.80353
3.78233
3.72234
3.67763
3.68128
3.92089
5.25233
7.58305
8.4224
8.35654
8.11713
7.68754
7.1638
6.60125
6.08164
5.62792
5.23375
4.89118
4.5891
4.30668
4.02748
3.74818
3.47662
3.24204
3.05835
2.9049
2.75656
2.61273
2.49159
2.37262
2.23236
2.09307
1.99002
1.9162
1.83016
1.72882
1.65111
1.60827
1.58759
1.61012
1.80845
2.35315
2.99329
3.39513
3.46598
3.42943
3.31905
3.15434
3.06648
3.0451
3.1128
3.45671
4.08553
4.71308
4.97057
4.97894
4.95706
4.92088
4.83153
4.708
4.5579
4.40423
4.2592
4.11547
3.99845
3.90913
3.82669
3.74647
3.67059
3.5989
3.52317
3.4311
3.32162
3.21035
3.12263
3.06372
3.01671
2.97202
2.92489
2.87216
2.81138
2.73215
2.63128
2.54922
2.50383
2.47123
2.43956
2.4065
2.36759
2.33417
2.29333
2.26575
2.20324
3.58937
3.65435
3.67555
3.71363
3.74725
3.75246
3.72754
3.66071
3.52349
3.53061
4.16362
5.74226
7.28197
7.68274
7.45505
6.86095
6.28551
5.82348
5.43499
5.08348
4.75707
4.45054
4.16032
3.88605
3.63473
3.40875
3.20739
3.02452
2.86114
2.71218
2.5687
2.42581
2.29563
2.19229
2.09806
2.00857
1.91466
1.81645
1.72573
1.66617
1.64765
1.73866
2.15456
2.86211
3.50669
3.71388
3.69421
3.58451
3.42885
3.30597
3.18723
3.10068
3.04026
3.0101
3.00191
3.11251
3.40526
3.95869
4.48821
4.78902
4.87391
4.80581
4.68002
4.54935
4.44479
4.32075
4.14409
3.96181
3.85091
3.7798
3.71657
3.65413
3.59325
3.53064
3.4541
3.34417
3.20668
3.10132
3.04365
3.00167
2.96158
2.92137
2.87897
2.82319
2.73206
2.61658
2.53519
2.48627
2.45645
2.43057
2.41201
2.39036
2.36912
2.33096
2.28198
2.32599
3.79902
3.79443
3.75594
3.73636
3.72929
3.72126
3.68296
3.59822
3.41933
3.21722
2.99861
3.20203
4.25278
5.75677
6.43904
6.35036
5.99631
5.59872
5.23256
4.89313
4.57103
4.26803
3.99105
3.74199
3.52032
3.31563
3.12569
2.94581
2.78212
2.6326
2.50943
2.40021
2.29694
2.18829
2.06612
1.95339
1.86529
1.79834
1.7467
1.7673
2.00711
2.6651
3.45492
3.90669
3.97039
3.92515
3.79045
3.61758
3.46115
3.34378
3.25574
3.18136
3.1052
3.01747
2.95043
2.87171
2.84625
2.97036
3.40452
3.99445
4.44669
4.59212
4.62992
4.60676
4.52712
4.37342
4.15679
3.93998
3.80089
3.74057
3.69495
3.64317
3.58792
3.53107
3.46161
3.34857
3.19694
3.08814
3.03179
2.99096
2.95278
2.9136
2.86863
2.80387
2.70333
2.59194
2.5259
2.48823
2.46434
2.44485
2.42714
2.41395
2.38506
2.39901
2.45689
2.67538
3.71288
3.7041
3.70231
3.70782
3.71305
3.68917
3.60795
3.45389
3.25198
2.98834
2.76279
2.49415
2.54297
3.07503
4.28913
5.43348
5.60371
5.39003
5.01729
4.65988
4.34571
4.07124
3.81796
3.58142
3.37243
3.18764
3.01978
2.86786
2.73634
2.60529
2.48137
2.35644
2.2479
2.14357
2.03909
1.93383
1.88385
1.85211
1.93652
2.38761
3.26143
4.03194
4.22492
4.20513
4.07949
3.92203
3.77492
3.63312
3.51623
3.41818
3.33165
3.24173
3.14714
3.04218
2.94046
2.8346
2.77668
2.73116
2.77355
3.04235
3.62345
4.13439
4.47655
4.56324
4.52866
4.39681
4.17518
3.95953
3.80044
3.73391
3.6831
3.63016
3.572
3.51079
3.43948
3.33495
3.19244
3.08751
3.02822
2.98208
2.93898
2.89339
2.84056
2.76982
2.68207
2.59749
2.54088
2.51017
2.49328
2.48739
2.47195
2.49409
2.56933
2.71003
2.90615
3.09513
3.72737
3.72368
3.72386
3.72492
3.70977
3.63404
3.49124
3.26669
3.00769
2.727
2.53682
2.30514
2.07014
1.9908
2.22255
3.12498
4.36624
4.80623
4.69249
4.40588
4.11281
3.8573
3.61978
3.40405
3.22685
3.08012
2.93837
2.80667
2.67997
2.5526
2.42313
2.31213
2.22766
2.13937
2.06392
1.97912
1.98693
2.22496
2.97824
3.90204
4.46848
4.54734
4.48804
4.32164
4.12543
3.93773
3.77787
3.65265
3.55757
3.46836
3.37967
3.2869
3.18695
3.07393
2.95116
2.83089
2.74755
2.69671
2.66238
2.66788
2.82317
3.21605
3.71135
4.12119
4.25284
4.23797
4.1635
3.9968
3.8401
3.75061
3.67362
3.61062
3.55061
3.48467
3.41114
3.31581
3.18653
3.08061
3.01684
2.96656
2.91951
2.86907
2.81115
2.74145
2.664
2.61091
2.57374
2.5605
2.55003
2.58033
2.67252
2.82574
3.00511
3.17308
3.32854
3.35999
3.7286
3.73121
3.72532
3.70651
3.64939
3.50658
3.27305
2.96197
2.69323
2.51427
2.2647
2.01187
1.80699
1.72295
1.62651
1.72602
2.33765
3.42088
4.14648
4.11494
3.94287
3.70557
3.47047
3.25638
3.08286
2.96511
2.84947
2.74058
2.62802
2.52965
2.41959
2.33334
2.24907
2.18638
2.12675
2.22612
2.75354
3.7899
4.59688
4.78712
4.75531
4.6111
4.46239
4.31347
4.15189
3.97615
3.81596
3.69916
3.60852
3.51697
3.41998
3.31859
3.20573
3.08168
2.96062
2.85545
2.77179
2.70826
2.64854
2.61404
2.57586
2.61403
2.80363
3.2147
3.6706
4.02008
4.07037
4.01032
3.90096
3.78549
3.67922
3.60751
3.54809
3.47474
3.3915
3.29385
3.17221
3.06238
2.99267
2.94027
2.89154
2.84398
2.79164
2.7393
2.68519
2.6543
2.63424
2.65977
2.74215
2.92045
3.1209
3.27781
3.40743
3.46497
3.47222
3.42969
3.71967
3.72421
3.70655
3.66909
3.53018
3.28582
2.9309
2.67016
2.45871
2.19729
1.86561
1.72104
1.68018
1.55749
1.38364
1.24647
1.29037
1.69524
2.67048
3.49232
3.69255
3.57465
3.36651
3.16823
3.00214
2.90857
2.83071
2.74518
2.65078
2.5607
2.46114
2.38718
2.29789
2.319
2.63857
3.57567
4.64886
5.26068
5.20976
5.05657
4.83878
4.6256
4.44621
4.30982
4.17214
4.02182
3.8828
3.7675
3.66391
3.56667
3.46804
3.35412
3.22213
3.08965
2.97808
2.89601
2.82351
2.75352
2.68083
2.60615
2.54324
2.48699
2.45178
2.52424
2.78747
3.2796
3.65727
3.82474
3.82939
3.7701
3.69506
3.62959
3.55622
3.47255
3.38134
3.28589
3.17619
3.04695
2.95476
2.9079
2.86848
2.83406
2.79634
2.76809
2.75306
2.78388
2.85875
3.00989
3.20185
3.38608
3.49462
3.5621
3.61571
3.60499
3.55973
3.43663
3.72784
3.72325
3.6936
3.55837
3.29
2.94058
2.64536
2.37697
2.07325
1.76313
1.6356
1.57128
1.47725
1.27898
1.10075
1.07688
1.07928
1.12486
1.4252
2.23223
3.11133
3.40809
3.33841
3.18977
3.03945
2.93483
2.86664
2.79564
2.72633
2.64056
2.5508
2.47701
2.60221
3.27071
4.51579
5.50447
5.60316
5.53214
5.32073
5.0943
4.87738
4.67848
4.48688
4.32294
4.18941
4.06906
3.95869
3.84706
3.72515
3.5937
3.45318
3.31366
3.19697
3.10206
3.01552
2.93544
2.85229
2.79545
2.74983
2.67961
2.59436
2.49879
2.40464
2.34307
2.36443
2.53563
2.91787
3.33425
3.64345
3.68031
3.64085
3.5968
3.54133
3.47333
3.39459
3.30541
3.19703
3.05666
2.93125
2.88439
2.85631
2.84006
2.84511
2.90536
3.03307
3.21122
3.41741
3.59473
3.63255
3.60353
3.60695
3.63245
3.66161
3.63733
3.59641
3.46512
3.75125
3.73006
3.59922
3.30441
2.94932
2.6128
2.25023
1.93999
1.68635
1.50939
1.42535
1.33243
1.1907
1.03011
0.982866
0.975974
0.962507
0.956133
0.98795
1.23438
1.92109
2.94368
3.23968
3.20442
3.16674
3.0913
3.0009
2.91966
2.86073
2.77311
2.77704
3.06264
4.1622
5.4748
6.18312
6.16464
5.95539
5.61805
5.33206
5.0993
4.90288
4.71786
4.53695
4.37041
4.22884
4.10633
3.99159
3.87282
3.74408
3.61068
3.47091
3.31748
3.18205
3.10733
3.05191
2.98869
2.91609
2.83884
2.75058
2.65554
2.55831
2.45625
2.3612
2.30046
2.28163
2.2867
2.36944
2.62356
2.9922
3.3676
3.45062
3.46655
3.4467
3.3933
3.32355
3.25074
3.16788
3.06323
2.94353
2.90233
2.89325
2.92648
3.07057
3.35831
3.61287
3.83259
3.94203
3.92422
3.85549
3.75678
3.69717
3.67206
3.63109
3.57664
3.53151
3.40783
3.74397
3.63493
3.32819
2.89519
2.54686
2.14111
1.78787
1.58634
1.38131
1.27849
1.21765
1.11115
0.993058
0.96932
0.974944
0.969048
0.952098
0.954066
0.950139
0.963197
1.10857
1.78331
2.83435
3.15615
3.2984
3.31318
3.22594
3.11076
3.01312
3.10007
3.70311
5.14684
6.43058
6.55049
6.46384
6.20106
5.9178
5.63389
5.37729
5.16272
4.97965
4.79437
4.60475
4.4301
4.28025
4.15599
4.04362
3.92685
3.79107
3.63538
3.46855
3.31904
3.2137
3.13283
3.05263
2.97627
2.90845
2.83965
2.75913
2.66302
2.56048
2.45754
2.3664
2.30384
2.2624
2.24002
2.23203
2.2582
2.37074
2.64265
2.96236
3.20659
3.30339
3.33743
3.32042
3.25249
3.16947
3.0902
3.00556
3.01817
3.10294
3.30061
3.65321
3.93742
4.04197
4.05963
4.02712
3.97035
3.91228
3.84339
3.75335
3.68198
3.61112
3.54119
3.47562
3.35116
3.66276
3.35148
2.83268
2.39594
2.01834
1.63013
1.40828
1.25194
1.10021
1.02669
0.967444
0.910877
0.904316
0.9181
0.952842
0.962314
0.961858
0.960178
0.966993
0.982462
1.00087
1.12696
1.81621
2.69928
3.27084
3.35751
3.34092
3.35917
3.61025
4.61376
6.17645
7.08984
7.16966
6.94416
6.49088
6.13551
5.89976
5.67894
5.44047
5.19436
4.9679
4.77935
4.61722
4.47061
4.33341
4.20077
4.0668
3.93014
3.78999
3.63746
3.47418
3.33201
3.22847
3.14461
3.07017
3.00286
2.93739
2.86458
2.77789
2.67668
2.56987
2.46365
2.38046
2.33203
2.2887
2.25452
2.21895
2.19578
2.17133
2.18976
2.30264
2.57677
2.86502
3.09415
3.22429
3.22304
3.20967
3.24008
3.3046
3.47944
3.69997
3.94907
4.15696
4.19202
4.19056
4.18576
4.13376
4.04114
3.9533
3.85987
3.75168
3.65104
3.56368
3.49277
3.4286
3.32555
3.37206
2.72353
2.18633
1.82071
1.42272
1.21979
1.15234
1.07432
1.01392
0.962638
0.910779
0.892006
0.901303
0.928339
0.981398
1.00122
1.00174
0.999567
1.00551
1.01065
1.01651
1.0364
1.15377
1.69043
2.59227
3.10421
3.57554
4.25764
5.61644
6.8926
7.52968
7.38806
6.98049
6.65834
6.40247
6.1798
5.97916
5.77989
5.5604
5.31656
5.07757
4.87538
4.70753
4.55771
4.41591
4.27691
4.13674
3.99471
3.84812
3.68939
3.52926
3.39259
3.29006
3.21077
3.14172
3.07518
3.00612
2.9277
2.83174
2.72102
2.60621
2.51039
2.45134
2.40883
2.36253
2.31374
2.26111
2.20839
2.14526
2.07635
2.05138
2.11093
2.32806
2.62805
2.93202
3.17289
3.45875
3.73425
3.99118
4.19905
4.28865
4.33094
4.30566
4.22904
4.17842
4.14404
4.11114
4.05907
3.99203
3.90993
3.80083
3.64427
3.50642
3.44787
3.41074
3.34895
2.65813
1.69954
1.16923
0.820096
0.640787
0.648384
0.715455
0.762103
0.812162
0.861003
0.890348
0.915018
0.950553
1.01003