/*--------------------------------*- C++ -*----------------------------------*\
  =========                 |
  \\      /  F ield         | OpenFOAM: The Open Source CFD Toolbox
   \\    /   O peration     | Website:  https://openfoam.org
    \\  /    A nd           | Version:  7
     \\/     M anipulation  |
\*---------------------------------------------------------------------------*/
FoamFile
{
    version     2.0;
    format      ascii;
    class       volScalarField;
    location    "1.8";
    object      rho;
}
// * * * * * * * * * * * * * * * * * * * * * * * * * * * * * * * * * * * * * //

dimensions      [1 -3 0 0 0 0 0];

internalField   nonuniform List<scalar> 
4608
(
1.40001
1.40001
1.40001
1.40001
1.40001
1.40001
1.40001
1.40001
1.40001
1.40001
1.40001
1.40001
1.40001
1.40001
1.40001
1.40001
1.40001
1.40001
1.40001
1.40001
1.40001
1.40001
1.40001
1.40001
1.40001
1.40001
1.40001
1.40001
1.40001
1.40001
1.40001
1.40001
1.40001
1.40001
1.40001
1.40001
1.40001
1.40001
1.40001
1.40001
1.40001
1.40001
1.40001
1.40001
1.40001
1.40001
1.40001
1.40001
1.40001
1.40001
1.40001
1.40001
1.40001
1.40001
1.40001
1.40001
1.40001
1.40001
1.40001
1.40001
1.40001
1.40001
1.40001
1.40001
1.40001
1.40001
1.40001
1.40001
1.40001
1.40001
1.40001
1.40001
1.40001
1.40001
1.40001
1.40001
1.40001
1.40001
1.40001
1.40001
1.40001
1.40001
1.40001
1.40001
1.40001
1.40001
1.40001
1.40001
1.40001
1.40001
1.40001
1.40001
1.40001
1.40001
1.40001
1.40001
1.40001
1.40001
1.40001
1.40001
1.40001
1.40001
1.40001
1.40001
1.40001
1.40001
1.40001
1.40001
1.40001
1.40001
1.40001
1.40001
1.40001
1.40001
1.40001
1.40001
1.40001
1.40001
1.40001
1.40001
1.40001
1.40001
1.40001
1.40001
1.40001
1.40001
1.40001
1.40001
1.40001
1.40001
1.40001
1.40001
1.40001
1.40001
1.40001
1.40001
1.40001
1.40001
1.40001
1.40001
1.40001
1.40001
1.40001
1.40001
1.40001
1.40001
1.40001
1.40001
1.40001
1.40001
1.40001
1.40001
1.40001
1.40001
1.40001
1.40001
1.40001
1.40001
1.40001
1.40001
1.40001
1.40001
1.40001
1.40001
1.40001
1.40001
1.40001
1.40001
1.40001
1.40001
1.40001
1.40001
1.40001
1.40001
1.40001
1.40001
1.40001
1.40001
1.40001
1.40001
1.40001
1.40001
1.40001
1.40001
1.40001
1.40001
1.40001
1.40001
1.40001
1.40001
1.40001
1.40001
1.40001
1.40001
1.40001
1.40001
1.40001
1.40001
1.40001
1.40001
1.40001
1.40001
1.40001
1.40001
1.40001
1.40001
1.40001
1.40001
1.40001
1.40001
1.40001
1.40001
1.40001
1.40001
1.40001
1.40001
1.40001
1.40001
1.40001
1.40001
1.40001
1.40001
1.40001
1.40001
1.40001
1.40001
1.40001
1.40001
1.40001
1.40001
1.40001
1.40001
1.40001
1.40001
1.40001
1.40001
1.40001
1.40001
1.40001
1.40001
1.40001
1.40001
1.40001
1.40001
1.40001
1.40001
1.40001
1.40001
1.40001
1.40001
1.40001
1.40001
1.40001
1.40001
1.40001
1.40001
1.40001
1.40001
1.40001
1.40001
1.40001
1.40001
1.40001
1.40001
1.40001
1.40001
1.40001
1.40001
1.40001
1.40001
1.40001
1.40001
1.40001
1.40001
1.40001
1.40001
1.40001
1.40001
1.40001
1.40001
1.40001
1.40001
1.40001
1.40001
1.40001
1.40001
1.40001
1.40001
1.40001
1.40001
1.40001
1.40001
1.40001
1.40001
1.40001
1.40001
1.40001
1.40001
1.40001
1.40001
1.40001
1.40001
1.40001
1.40001
1.40001
1.40001
1.40001
1.40001
1.40001
1.40001
1.40001
1.40001
1.40001
1.40001
1.40001
1.40001
1.40001
1.40001
1.40001
1.40001
1.40001
1.40001
1.40001
1.40001
1.40001
1.40001
1.40001
1.40001
1.40001
1.40001
1.40001
1.40001
1.40001
1.40001
1.40001
1.40001
1.40001
1.40001
1.40001
1.40001
1.40001
1.40001
1.40001
1.40001
1.40001
1.40001
1.40001
1.40001
1.40001
1.40001
1.40001
1.40001
1.40001
1.40001
1.40001
1.40001
1.40001
1.40001
1.40001
1.40001
1.40001
1.40001
1.40001
1.40001
1.40001
1.40001
1.40001
1.40001
1.40001
1.40001
1.40001
1.40001
1.40001
1.40001
1.40001
1.40001
1.40001
1.40001
1.40001
1.40001
1.40001
1.40001
1.40001
1.40001
1.40001
1.40001
1.40001
1.40001
1.40001
1.40001
1.40001
1.40001
1.40001
1.40001
1.40001
1.40001
1.40001
1.40001
1.40001
1.40001
1.40001
1.40001
1.40001
1.40001
1.40001
1.40001
1.40001
1.40001
1.40001
1.40001
1.40001
1.40001
1.40001
1.40001
1.40001
1.40001
1.40001
1.40001
1.40001
1.40001
1.40001
1.40001
1.40001
1.40001
1.40001
1.40001
1.40001
1.40001
1.40001
1.40001
1.40001
1.40001
1.40001
1.40001
1.40001
1.40001
1.40001
1.40001
1.40001
1.40001
1.40001
1.40001
1.40001
1.40001
1.40001
1.40001
1.40001
1.40001
1.40001
1.40001
1.40001
1.40001
1.40001
1.40001
1.40001
1.40001
1.40001
1.40001
1.40001
1.40001
1.40001
1.40001
1.40001
1.40001
1.40001
1.40001
1.40001
1.40001
1.40001
1.40001
1.40001
1.40001
1.40001
1.40001
1.40001
1.40001
1.40001
1.40001
1.40001
1.40001
1.40001
1.40001
1.40001
1.40001
1.40001
1.40001
1.40001
1.40001
1.40001
1.40001
1.40001
1.40001
1.40001
1.40001
1.40001
1.40001
1.40001
1.40001
1.40001
1.40001
1.40001
1.40001
1.40001
1.40001
1.40001
1.40001
1.40001
1.40001
1.40001
1.40001
1.40001
1.40001
1.40001
1.40001
1.40001
1.40001
1.40001
1.40001
1.40001
1.40001
1.40001
1.40001
1.40001
1.40001
1.40001
1.40001
1.40001
1.40001
1.40001
1.40001
1.40001
1.40001
1.40001
1.40001
1.40001
1.40001
1.40001
1.40001
1.40001
1.40001
1.40001
1.40001
1.40001
1.40001
1.40001
1.40001
1.40001
1.40001
1.40001
1.40001
1.40001
1.40001
1.40001
1.40001
1.40001
1.40001
1.40001
1.40001
1.40001
1.40001
1.40001
1.40001
1.40001
1.40001
1.40001
1.40001
1.40001
1.40001
1.40001
1.40001
1.40001
1.40001
1.40001
1.40001
1.40001
1.40001
1.40001
1.40001
1.40001
1.40001
1.40001
1.40001
1.40001
1.40001
1.40001
1.40001
1.40001
1.40001
1.40001
1.40001
1.40001
1.40001
1.40001
1.40001
1.40001
1.40001
1.40001
1.40001
1.40001
1.40001
1.40001
1.40001
1.40001
1.40001
1.40001
1.40001
1.40001
1.40001
1.40001
1.40001
1.40001
1.40001
1.40001
1.40001
1.40001
1.40001
1.40001
1.40001
1.40001
1.40001
1.40001
1.40001
1.40001
1.40001
1.40001
1.40001
1.40001
1.40001
1.40001
1.40001
1.40001
1.40001
1.40001
1.40001
1.40001
1.40001
1.40001
1.40001
1.40001
1.40001
1.40001
1.40001
1.40001
1.40001
1.40001
1.40001
1.40001
1.40001
1.40001
1.40001
1.40001
1.40001
1.40001
1.40001
1.40001
1.40001
1.40001
1.40001
1.40001
1.40001
1.40001
1.40001
1.40001
1.40001
1.40001
1.40001
1.40001
1.40001
1.40001
1.40001
1.40001
1.40001
1.40001
1.40001
1.40001
1.40001
1.40001
1.40001
1.40001
1.40001
1.40001
1.40001
1.40001
1.40001
1.40001
1.40001
1.40001
1.40001
1.40001
1.40001
1.40001
1.40001
1.40001
1.40001
1.40001
1.40001
1.40001
1.40001
1.40001
1.40001
1.40001
1.40001
1.40001
1.40001
1.40001
1.40001
1.40001
1.40001
1.40001
1.40001
1.40001
1.40001
1.40001
1.40001
1.40001
1.40001
1.40001
1.40001
1.40001
1.40001
1.40001
1.40001
1.40001
1.40001
1.40001
1.40001
1.40001
1.40001
1.40001
1.40001
1.40001
1.40001
1.40001
1.40001
1.40001
1.40001
1.40001
1.40001
1.40001
1.40001
1.40001
1.40001
1.40001
1.40001
1.40001
1.40001
1.40001
1.40001
1.40001
1.40001
1.40001
1.40001
1.40001
1.40001
1.40001
1.40001
1.40001
1.40001
1.40001
1.40001
1.40001
1.40001
1.40001
1.40001
1.40001
1.40001
1.40001
1.40001
1.67715
2.08195
2.54559
2.98865
3.42522
3.83638
4.11286
4.42348
4.43319
4.29849
4.01846
3.71856
3.45956
3.36255
3.30032
3.30716
3.33315
3.35921
3.37449
3.38372
3.39532
3.41247
3.42773
3.43021
1.40298
1.41826
1.47071
1.59338
1.79365
2.11478
2.50364
2.98587
3.37101
3.5429
3.63747
3.61548
3.57573
3.48334
3.41489
3.3902
3.38335
3.37079
3.36952
3.37476
3.3879
3.39994
3.41113
3.4202
1.40001
1.39999
1.39999
1.40029
1.40312
1.42218
1.49697
1.70757
2.19466
2.89264
3.42152
3.70985
3.77938
3.72187
3.6137
3.44131
3.36932
3.35572
3.35084
3.35929
3.3706
3.37684
3.38348
3.39952
1.40001
1.4
1.4
1.4
1.39999
1.40004
1.39997
1.40143
1.43208
1.62872
2.19446
2.8905
3.50164
3.5776
3.55156
3.50405
3.4289
3.38044
3.36331
3.34872
3.34338
3.34655
3.35189
3.36921
1.40001
1.40001
1.4
1.4
1.4
1.4
1.4
1.4
1.39992
1.40097
1.43888
1.6766
2.3216
2.99583
3.4165
3.5403
3.51594
3.44645
3.38633
3.34851
3.31837
3.30486
3.31053
3.32308
1.40001
1.40001
1.40001
1.40001
1.40001
1.4
1.4
1.4
1.39999
1.4
1.39993
1.40277
1.45885
1.8256
2.503
3.17505
3.382
3.38386
3.36281
3.3202
3.28304
3.28313
3.28129
3.28741
1.40001
1.40001
1.40001
1.40001
1.40001
1.40001
1.40001
1.40001
1.40001
1.4
1.4
1.39999
1.39999
1.41177
1.52329
2.02742
2.74801
3.31321
3.40492
3.36794
3.32859
3.317
3.30048
3.28529
1.40001
1.40001
1.40001
1.40001
1.40001
1.40001
1.40001
1.40001
1.40001
1.40001
1.40001
1.4
1.4
1.39997
1.40066
1.4373
1.67601
2.3772
3.01437
3.3372
3.38164
3.3728
3.34363
3.30638
1.40001
1.40001
1.40001
1.40001
1.40001
1.40001
1.40001
1.40001
1.40001
1.40001
1.40001
1.40001
1.4
1.4
1.4
1.40005
1.40569
1.52539
1.99679
2.78649
3.13779
3.29866
3.34894
3.33344
1.40001
1.40001
1.40001
1.40001
1.40001
1.40001
1.40001
1.40001
1.40001
1.40001
1.40001
1.40001
1.40001
1.4
1.4
1.4
1.39999
1.40174
1.43805
1.75105
2.41878
3.12511
3.33079
3.31711
1.40001
1.40001
1.40001
1.40001
1.40001
1.40001
1.40001
1.40001
1.40001
1.40001
1.40001
1.40001
1.40001
1.40001
1.40001
1.4
1.4
1.4
1.40015
1.41519
1.58274
2.19987
2.89353
3.24592
1.40001
1.40001
1.40001
1.40001
1.40001
1.40001
1.40001
1.40001
1.40001
1.40001
1.40001
1.40001
1.40001
1.40001
1.40001
1.40001
1.4
1.4
1.4
1.40003
1.40506
1.49327
2.00383
2.74374
1.40001
1.40001
1.40001
1.40001
1.40001
1.40001
1.40001
1.40001
1.40001
1.40001
1.40001
1.40001
1.40001
1.40001
1.40001
1.40001
1.40001
1.4
1.4
1.4
1.4
1.4017
1.46566
1.83125
1.40001
1.40001
1.40001
1.40001
1.40001
1.40001
1.40001
1.40001
1.40001
1.40001
1.40001
1.40001
1.40001
1.40001
1.40001
1.40001
1.40001
1.40001
1.40001
1.4
1.4
1.4
1.40135
1.42571
1.40001
1.40001
1.40001
1.40001
1.40001
1.40001
1.40001
1.40001
1.40001
1.40001
1.40001
1.40001
1.40001
1.40001
1.40001
1.40001
1.40001
1.40001
1.40001
1.40001
1.4
1.4
1.40002
1.4
1.40001
1.40001
1.40001
1.40001
1.40001
1.40001
1.40001
1.40001
1.40001
1.40001
1.40001
1.40001
1.40001
1.40001
1.40001
1.40001
1.40001
1.40001
1.40001
1.40001
1.40001
1.4
1.4
1.4
1.40001
1.40001
1.40001
1.40001
1.40001
1.40001
1.40001
1.40001
1.40001
1.40001
1.40001
1.40001
1.40001
1.40001
1.40001
1.40001
1.40001
1.40001
1.40001
1.40001
1.40001
1.4
1.4
1.4
1.40001
1.40001
1.40001
1.40001
1.40001
1.40001
1.40001
1.40001
1.40001
1.40001
1.40001
1.40001
1.40001
1.40001
1.40001
1.40001
1.40001
1.40001
1.40001
1.40001
1.4
1.4
1.40002
1.4
1.40001
1.40001
1.40001
1.40001
1.40001
1.40001
1.40001
1.40001
1.40001
1.40001
1.40001
1.40001
1.40001
1.40001
1.40001
1.40001
1.40001
1.40001
1.40001
1.4
1.4
1.4
1.40143
1.42456
1.40001
1.40001
1.40001
1.40001
1.40001
1.40001
1.40001
1.40001
1.40001
1.40001
1.40001
1.40001
1.40001
1.40001
1.40001
1.40001
1.40001
1.4
1.4
1.4
1.4
1.40167
1.46667
1.82737
1.40001
1.40001
1.40001
1.40001
1.40001
1.40001
1.40001
1.40001
1.40001
1.40001
1.40001
1.40001
1.40001
1.40001
1.40001
1.40001
1.4
1.4
1.4
1.40003
1.40507
1.49339
1.99956
2.7543
1.40001
1.40001
1.40001
1.40001
1.40001
1.40001
1.40001
1.40001
1.40001
1.40001
1.40001
1.40001
1.40001
1.40001
1.40001
1.4
1.4
1.4
1.40015
1.41518
1.58282
2.20161
2.88718
3.2533
1.40001
1.40001
1.40001
1.40001
1.40001
1.40001
1.40001
1.40001
1.40001
1.40001
1.40001
1.40001
1.40001
1.4
1.4
1.4
1.39999
1.40174
1.43805
1.75105
2.419
3.12519
3.33042
3.31743
1.40001
1.40001
1.40001
1.40001
1.40001
1.40001
1.40001
1.40001
1.40001
1.40001
1.40001
1.40001
1.4
1.4
1.4
1.40005
1.40569
1.52541
1.99666
2.7868
3.13773
3.29829
3.3489
3.33324
1.40001
1.40001
1.40001
1.40001
1.40001
1.40001
1.40001
1.40001
1.40001
1.40001
1.40001
1.4
1.4
1.39997
1.40066
1.4373
1.67602
2.3772
3.0143
3.33735
3.3816
3.37275
3.34369
3.3064
1.40001
1.40001
1.40001
1.40001
1.40001
1.40001
1.40001
1.40001
1.40001
1.4
1.4
1.39999
1.39999
1.41177
1.52329
2.02741
2.74804
3.31321
3.4049
3.36793
3.3286
3.31699
3.30051
3.28529
1.40001
1.40001
1.40001
1.40001
1.40001
1.4
1.4
1.4
1.39999
1.4
1.39993
1.40277
1.45885
1.8256
2.503
3.17505
3.38202
3.38385
3.3628
3.32021
3.28305
3.28313
3.28129
3.28741
1.40001
1.40001
1.4
1.4
1.4
1.4
1.4
1.4
1.39992
1.40097
1.43888
1.6766
2.3216
2.99583
3.41649
3.5403
3.51594
3.44645
3.38633
3.34851
3.31837
3.30486
3.31053
3.32308
1.40001
1.4
1.4
1.4
1.39999
1.40004
1.39997
1.40143
1.43208
1.62872
2.19446
2.8905
3.50164
3.5776
3.55156
3.50405
3.42891
3.38044
3.36331
3.34872
3.34338
3.34655
3.35189
3.36921
1.40001
1.39999
1.39999
1.40029
1.40312
1.42218
1.49697
1.70757
2.19466
2.89264
3.42152
3.70985
3.77938
3.72187
3.6137
3.4413
3.36932
3.35572
3.35084
3.35929
3.3706
3.37684
3.38348
3.39952
1.40298
1.41826
1.47071
1.59338
1.79365
2.11478
2.50364
2.98587
3.37101
3.5429
3.63747
3.61548
3.57573
3.48334
3.41489
3.3902
3.38335
3.37079
3.36952
3.37476
3.3879
3.39994
3.41113
3.4202
1.67715
2.08195
2.54559
2.98865
3.42522
3.83638
4.11286
4.42348
4.43319
4.29849
4.01846
3.71856
3.45956
3.36255
3.30032
3.30716
3.33315
3.35921
3.37449
3.38372
3.39532
3.41247
3.42773
3.43021
2.66222
1.93175
1.46722
1.12529
0.932633
0.934873
0.992841
1.03296
1.08044
1.13357
1.16763
1.19307
1.22567
1.28167
1.33051
1.33773
1.33729
1.32968
1.32569
1.32624
1.32664
1.34117
1.3544
1.41771
1.71126
2.53872
3.62867
4.75939
5.80301
6.03664
5.71773
5.15577
4.78197
4.61545
4.53442
4.44496
4.33921
4.22884
4.10402
3.96423
3.82876
3.71295
3.61797
3.53539
3.45892
3.38354
3.3065
3.22549
3.13758
3.03846
2.93889
2.85736
2.79904
2.75381
2.71135
2.67001
2.62854
2.58171
2.51984
2.44416
2.36344
2.30279
2.26815
2.24156
2.2118
2.17881
2.1432
2.10458
2.05681
2.00561
1.94528
1.93444
1.96631
2.09552
2.35187
2.74834
3.12297
3.4021
3.66011
3.77219
3.75934
3.7018
3.55495
3.37737
3.32015
3.29938
3.27532
3.2478
3.21142
3.16928
3.10504
2.99906
2.93024
2.909
2.88972
2.84786
3.15546
2.70718
2.31268
2.02776
1.70836
1.53163
1.45938
1.37928
1.32141
1.27587
1.22047
1.19489
1.20203
1.22691
1.27863
1.2973
1.29694
1.29434
1.29949
1.30484
1.31123
1.32879
1.42868
1.83443
2.45112
2.78495
3.07289
3.46531
4.20721
4.86175
5.15537
5.07953
4.86944
4.70559
4.57692
4.46462
4.36067
4.25045
4.12927
3.99692
3.86411
3.7535
3.6647
3.58468
3.50785
3.42958
3.34792
3.26389
3.17734
3.08337
2.98665
2.90458
2.84354
2.79456
2.75035
2.70798
2.66462
2.61545
2.55416
2.48168
2.40566
2.34145
2.30008
2.27043
2.23885
2.20522
2.16851
2.13193
2.09349
2.04681
2.02927
2.07285
2.22433
2.41842
2.61019
2.75866
2.9289
3.08673
3.23582
3.34705
3.40415
3.43111
3.42336
3.38979
3.35547
3.33467
3.30502
3.26397
3.22077
3.17444
3.11029
3.01985
2.94768
2.92311
2.90365
2.86298
3.33928
3.1364
2.78267
2.46972
2.18973
1.88041
1.69063
1.55398
1.41754
1.34995
1.291
1.23255
1.22536
1.23951
1.27417
1.28149
1.27896
1.27625
1.2829
1.29811
1.31473
1.42487
1.95334
2.54537
2.90583
2.95439
2.94201
2.95198
3.0985
3.65505
4.46789
4.90734
4.94882
4.83684
4.60953
4.4275
4.30732
4.19345
4.06751
3.93596
3.8154
3.70838
3.61305
3.52691
3.44963
3.37672
3.30105
3.22121
3.13895
3.04999
2.95075
2.86124
2.80011
2.75238
2.70619
2.66063
2.61708
2.57037
2.51499
2.44919
2.37922
2.30976
2.25414
2.21991
2.18956
2.16467
2.13824
2.12142
2.10233
2.11855
2.18801
2.36985
2.56505
2.71549
2.79184
2.78818
2.77473
2.79228
2.82686
2.92604
3.05503
3.20319
3.32159
3.34733
3.35244
3.35553
3.33117
3.2743
3.21361
3.15187
3.08473
3.02205
2.96857
2.93256
2.90153
2.84291
3.36662
3.30391
3.11045
2.82091
2.57788
2.27899
2.00292
1.84179
1.67157
1.58188
1.52762
1.4285
1.31777
1.29642
1.30145
1.29574
1.27749
1.27839
1.27482
1.2867
1.41058
1.93077
2.63777
2.83062
2.91723
2.92673
2.87098
2.79635
2.72862
2.77939
3.12534
3.90221
4.54791
4.62638
4.58409
4.45112
4.30393
4.1607
4.03329
3.92439
3.82313
3.71771
3.60399
3.49785
3.40829
3.34032
3.28213
3.21854
3.13935
3.04534
2.94213
2.84617
2.78066
2.73719
2.69236
2.64297
2.59621
2.54948
2.49701
2.43519
2.3695
2.30253
2.24296
2.20045
2.17167
2.15581
2.14783
2.16056
2.22989
2.40438
2.60352
2.75372
2.81549
2.84972
2.84184
2.80145
2.74908
2.70152
2.64416
2.64593
2.692
2.8061
3.00584
3.16668
3.24323
3.27878
3.26923
3.23715
3.1941
3.14472
3.08699
3.0392
2.99335
2.95111
2.91111
2.84194
3.34657
3.33955
3.26562
3.08222
2.84907
2.61698
2.35247
2.11816
1.92057
1.77477
1.70173
1.62063
1.49461
1.34796
1.30613
1.30081
1.28835
1.28078
1.30897
1.51133
2.02
2.69801
2.87429
2.85171
2.8264
2.77793
2.7205
2.66743
2.62741
2.56789
2.56906
2.73942
3.35658
4.0629
4.42313
4.41302
4.30203
4.12922
3.98301
3.86768
3.77084
3.67116
3.56719
3.46952
3.38407
3.3103
3.24287
3.17355
3.09897
3.02173
2.94067
2.84976
2.75959
2.70719
2.67382
2.63941
2.59775
2.54993
2.49249
2.42885
2.3652
2.2994
2.23854
2.19745
2.18339
2.18629
2.24329
2.39568
2.63735
2.83437
2.917
2.91659
2.89762
2.86769
2.83083
2.78978
2.74205
2.68678
2.61629
2.57205
2.55787
2.57438
2.65397
2.82578
2.9771
3.10993
3.20895
3.20859
3.16802
3.0971
3.05307
3.03213
3.00277
2.96834
2.93711
2.86407
3.30981
3.31468
3.30278
3.22485
3.05793
2.82945
2.62774
2.43619
2.21165
1.97237
1.86941
1.81615
1.73709
1.56522
1.40957
1.3912
1.39398
1.43301
1.67171
2.23836
2.79976
2.97223
2.92697
2.83271
2.73761
2.67101
2.62839
2.58375
2.53893
2.48269
2.42541
2.376
2.45319
2.8559
3.5546
4.06063
4.12188
4.08335
3.97476
3.86055
3.74759
3.6407
3.54072
3.44834
3.36456
3.28542
3.21521
3.14875
3.08022
3.00896
2.93045
2.84395
2.76373
2.70303
2.65116
2.60404
2.55255
2.5128
2.4832
2.44047
2.38655
2.32742
2.26633
2.22442
2.2411
2.36109
2.59901
2.85571
3.04119
3.04486
3.02078
2.99249
2.94776
2.90141
2.85918
2.81784
2.76762
2.6936
2.60963
2.56248
2.53904
2.52614
2.5213
2.55381
2.63018
2.73299
2.87763
3.00552
3.03038
3.00419
2.99933
3.01247
3.0228
3.00096
2.96848
2.88742
3.29208
3.29999
3.2936
3.27521
3.19309
3.04016
2.80681
2.62961
2.48177
2.29087
2.03954
1.92881
1.89676
1.79712
1.65196
1.53501
1.56772
1.8636
2.52334
3.03105
3.14543
3.07155
2.94021
2.81588
2.71053
2.65144
2.60351
2.55121
2.4921
2.43515
2.37175
2.3246
2.26128
2.27423
2.47359
3.0191
3.62041
3.94479
3.92324
3.8408
3.72127
3.60832
3.51461
3.43925
3.36026
3.26756
3.17806
3.10399
3.04153
2.98403
2.92625
2.86149
2.78468
2.70333
2.62906
2.57389
2.527
2.48291
2.43866
2.39188
2.35177
2.3151
2.29419
2.34252
2.52559
2.8192
3.04738
3.1489
3.14342
3.0933
3.04398
3.00353
2.9556
2.9029
2.8462
2.79034
2.73755
2.67692
2.61457
2.57874
2.55089
2.5273
2.50536
2.47854
2.45905
2.47345
2.52192
2.62744
2.76316
2.88068
2.94011
2.974
2.99818
2.98511
2.95134
2.87924
3.29609
3.29983
3.29799
3.28851
3.25476
3.16596
3.01663
2.81193
2.63076
2.50732
2.32844
2.14255
1.98741
1.92465
1.84766
1.91815
2.3286
2.99967
3.42154
3.40357
3.29939
3.15465
3.0084
2.87355
2.76304
2.68845
2.61672
2.54932
2.47905
2.41768
2.34907
2.29439
2.23569
2.19335
2.14966
2.21189
2.54248
3.1471
3.61721
3.7036
3.6828
3.60353
3.5216
3.44284
3.35479
3.25262
3.15285
3.07122
3.0098
2.95657
2.90191
2.8418
2.77517
2.70023
2.62245
2.55232
2.49704
2.45607
2.4181
2.39665
2.37099
2.39105
2.50548
2.7571
3.04246
3.22404
3.2616
3.24598
3.20211
3.12704
3.04692
2.999
2.95607
2.90809
2.85552
2.78974
2.71697
2.66724
2.63702
2.60972
2.57813
2.54503
2.51093
2.47374
2.42913
2.39154
2.38055
2.39784
2.46328
2.59044
2.7236
2.8213
2.88964
2.91373
2.90764
2.87752
3.30069
3.29753
3.29699
3.29625
3.28601
3.23703
3.14602
3.00188
2.83271
2.64448
2.51425
2.35012
2.18081
2.12017
2.27349
2.83889
3.56325
3.80394
3.74012
3.57871
3.40947
3.25655
3.1112
2.97708
2.86435
2.76974
2.67898
2.59653
2.51918
2.44019
2.3576
2.28387
2.22659
2.16613
2.1136
2.05207
2.05552
2.20884
2.6817
3.24205
3.54374
3.57833
3.53552
3.44721
3.34587
3.24058
3.14371
3.06124
2.99212
2.93192
2.87945
2.8256
2.76735
2.69994
2.6246
2.5473
2.48921
2.45306
2.4275
2.43033
2.52005
2.75231
3.03436
3.26803
3.35643
3.34962
3.30656
3.231
3.16103
3.10433
3.05168
3.01161
2.97137
2.9261
2.87206
2.7999
2.71988
2.67208
2.64736
2.62446
2.59952
2.57024
2.5341
2.49003
2.43224
2.37967
2.34818
2.33782
2.33871
2.36805
2.43985
2.5443
2.66238
2.7711
2.85709
2.85244
3.30009
3.29191
3.28758
3.28728
3.28933
3.27328
3.22139
3.12239
2.99097
2.81643
2.66391
2.47822
2.50763
2.83288
3.53934
4.14953
4.2448
4.13311
3.93494
3.74069
3.5644
3.40444
3.25188
3.10469
2.97057
2.85045
2.74175
2.64534
2.56456
2.48424
2.4051
2.32358
2.25054
2.17619
2.10297
2.02305
1.98299
1.95926
2.0181
2.32378
2.87088
3.31055
3.41095
3.39139
3.32171
3.23457
3.14721
3.06481
2.98818
2.92114
2.86479
2.8029
2.73818
2.67324
2.61691
2.55555
2.51535
2.48059
2.5105
2.67708
3.02097
3.30888
3.49124
3.53907
3.5131
3.4322
3.30745
3.20754
3.13675
3.09577
3.06538
3.03629
3.00222
2.9609
2.90605
2.82136
2.72981
2.68344
2.65491
2.62846
2.60373
2.58135
2.5576
2.52063
2.45647
2.38259
2.34254
2.32467
2.31153
2.30637
2.30744
2.32912
2.3868
2.48779
2.62048
2.71504
3.36616
3.35961
3.33164
3.31162
3.30458
3.30006
3.27573
3.22019
3.10156
2.96896
2.81841
2.93165
3.5267
4.33873
4.69304
4.64981
4.46755
4.26086
4.06949
3.88896
3.71307
3.54271
3.38151
3.22954
3.08736
2.95305
2.82912
2.71182
2.60177
2.50326
2.42909
2.36256
2.29113
2.21262
2.1285
2.04784
1.97714
1.93028
1.89164
1.90284
2.06709
2.49291
2.99402
3.24396
3.25836
3.22705
3.15381
3.06955
2.98185
2.90726
2.84386
2.78264
2.72442
2.66676
2.62604
2.58266
2.57303
2.65935
2.92361
3.26806
3.51903
3.59604
3.60064
3.58345
3.52842
3.43159
3.30512
3.19908
3.13678
3.10377
3.07861
3.05598
3.02872
2.99606
2.94606
2.85623
2.75222
2.69503
2.66434
2.63819
2.61338
2.59109
2.56963
2.54175
2.48934
2.40647
2.34977
2.32432
2.30448
2.28942
2.27739
2.27288
2.2653
2.28473
2.33292
2.45831
3.25417
3.29093
3.29617
3.31705
3.32705
3.32852
3.31223
3.26717
3.17415
3.1739
3.51379
4.36781
5.14524
5.34208
5.22659
4.92869
4.63809
4.39777
4.19401
4.008
3.83244
3.66495
3.50302
3.34275
3.18453
3.03471
2.90279
2.78441
2.67425
2.57365
2.47681
2.37885
2.29028
2.21548
2.14031
2.07101
2.00607
1.94775
1.88789
1.84898
1.8301
1.88754
2.16669
2.65428
2.98312
3.11114
3.10614
3.04682
2.96829
2.90046
2.82547
2.76547
2.71678
2.68179
2.66395
2.72054
2.90341
3.25444
3.54295
3.7216
3.77289
3.74065
3.66782
3.58624
3.51841
3.43877
3.31863
3.21593
3.16336
3.13077
3.10198
3.07167
3.03873
3.00648
2.96515
2.89299
2.78948
2.71422
2.67896
2.65407
2.63059
2.60628
2.57857
2.54763
2.5051
2.43683
2.37189
2.3364
2.31372
2.29111
2.26989
2.25296
2.23919
2.22547
2.21025
2.23512
2.56734
3.07546
3.35121
3.38108
3.36541
3.3208
3.28141
3.28077
3.43623
4.17066
5.33529
5.77463
5.72976
5.60454
5.38634
5.12534
4.83999
4.56316
4.31715
4.10513
3.92008
3.75636
3.60334
3.44727
3.2792
3.10412
2.93857
2.80567
2.70683
2.62198
2.53355
2.4415
2.35077
2.25907
2.16798
2.08339
2.00518
1.93942
1.88176
1.82827
1.79562
1.76924
1.78421
1.9341
2.27951
2.68933
2.94921
2.9942
2.97135
2.90134
2.8122
2.75755
2.73188
2.76458
2.92464
3.26622
3.6389
3.79406
3.81488
3.80838
3.80549
3.78224
3.72421
3.62967
3.53475
3.44275
3.33078
3.23989
3.1919
3.15754
3.12507
3.09289
3.05983
3.02422
2.97899
2.91331
2.82877
2.75226
2.69992
2.6689
2.64682
2.62679
2.60435
2.5726
2.52313
2.4535
2.3875
2.35128
2.32744
2.30289
2.28
2.25603
2.23319
2.20477
2.18686
2.14793
1.71778
2.35294
3.05808
3.29771
3.29604
3.30319
3.39865
3.83289
4.86419
5.9946
6.53319
6.45764
6.09931
5.73368
5.48479
5.25109
4.98972
4.71231
4.44709
4.21494
4.00937
3.81473
3.6405
3.49001
3.34445
3.18617
3.02217
2.87168
2.74657
2.64316
2.54128
2.44976
2.3704
2.29156
2.21285
2.13444
2.05072
1.96311
1.8886
1.82069
1.77365
1.73462
1.71316
1.69674
1.75505
1.96916
2.39033
2.70293
2.8585
2.84879
2.81163
2.8274
2.96894
3.23918
3.6495
3.95814
4.12779
4.09837
3.98799
3.86356
3.79433
3.7552
3.70491
3.62658
3.52916
3.43471
3.35254
3.28365
3.22857
3.18246
3.1388
3.09405
3.04959
3.00432
2.95421
2.89812
2.84391
2.78935
2.73692
2.6951
2.66148
2.63064
2.59774
2.55941
2.51248
2.45259
2.39428
2.35807
2.33294
2.30995
2.28869
2.26592
2.2416
2.21158
2.17985
2.12951
1.42415
1.59648
2.23262
2.88256
3.23137
3.67168
4.45226
5.51275
6.26154
6.57228
6.58508
6.49776
6.28294
5.95574
5.64945
5.35813
5.07314
4.80638
4.56155
4.33869
4.12487
3.90525
3.69074
3.50282
3.33519
3.19377
3.07909
2.96703
2.83208
2.7033
2.58755
2.48615
2.39902
2.30915
2.21498
2.13553
2.08324
2.01858
1.92633
1.84093
1.78309
1.7428
1.70108
1.67372
1.64216
1.63193
1.75417
2.07667
2.50386
2.72989
2.87243
3.26603
3.71938
3.98494
4.17867
4.19288
4.18301
4.11194
4.01154
3.92149
3.82712
3.74351
3.67317
3.60526
3.54558
3.47487
3.39549
3.32414
3.25974
3.2024
3.15371
3.10823
3.05933
3.00723
2.95558
2.90729
2.85589
2.80243
2.75844
2.72728
2.69115
2.64919
2.60305
2.55687
2.51313
2.47219
2.4239
2.38496
2.35804
2.33528
2.31302
2.28858
2.25835
2.22298
2.18663
2.12538
1.40049
1.41203
1.57548
2.14703
3.4036
4.6615
5.76874
6.62068
7.02614
6.83428
6.59194
6.4862
6.37156
6.13253
5.76282
5.39873
5.09062
4.83114
4.59809
4.35701
4.1244
3.95409
3.79203
3.60502
3.42682
3.26888
3.11165
2.95793
2.80045
2.65929
2.60664
2.56104
2.4888
2.39452
2.29668
2.21152
2.1149
1.99265
1.87633
1.84259
1.81953
1.78731
1.74501
1.69932
1.64101
1.58258
1.56782
1.6294
1.95395
2.62873
3.20295
3.86554
4.27361
4.44961
4.433
4.35413
4.19786
4.05825
3.98371
3.94235
3.87036
3.76441
3.66132
3.57844
3.50364
3.44314
3.37944
3.32097
3.26982
3.21843
3.16198
3.10163
3.04505
2.99031
2.93508
2.89372
2.86939
2.83514
2.78879
2.73185
2.67758
2.63181
2.59141
2.55283
2.51447
2.46646
2.40833
2.36461
2.33608
2.31279
2.29115
2.26833
2.24563
2.22536
2.20149
2.13619
1.40049
1.40976
1.55304
2.2388
3.28479
4.66198
5.85751
6.58114
7.03972
6.89677
6.58844
6.44631
6.31062
6.04883
5.69201
5.35611
5.09698
4.87568
4.6443
4.39884
4.16573
3.93817
3.72267
3.5349
3.35778
3.221
3.12573
3.0045
2.85062
2.70222
2.57559
2.47808
2.4099
2.33758
2.25663
2.17307
2.07672
1.97412
1.89597
1.82307
1.76003
1.72621
1.69427
1.66144
1.61554
1.56929
1.56912
1.65935
1.95405
2.53234
3.33146
3.89066
4.19104
4.47278
4.44713
4.25607
4.12239
4.05817
4.00958
3.97729
3.91277
3.79956
3.68334
3.59181
3.4967
3.42791
3.3936
3.3544
3.30433
3.24549
3.17314
3.1058
3.04799
2.99222
2.93884
2.89223
2.84777
2.80976
2.77017
2.72426
2.67621
2.6323
2.59393
2.55797
2.51923
2.47046
2.41079
2.36502
2.33464
2.31089
2.29017
2.27046
2.25073
2.23044
2.20374
2.13471
1.42421
1.60007
2.21469
2.97484
3.15654
3.65571
4.55152
5.47506
6.31347
6.6145
6.59102
6.47672
6.23868
5.90881
5.61249
5.3367
5.06284
4.79395
4.53979
4.31356
4.10873
3.90362
3.71162
3.54077
3.38614
3.22742
3.05743
2.90356
2.78278
2.67971
2.56514
2.45674
2.37688
2.3238
2.26834
2.18544
2.08695
1.99504
1.90906
1.82956
1.76377
1.7184
1.68278
1.6609
1.63974
1.66112
1.77613
2.11936
2.51797
2.67033
2.96045
3.2785
3.6046
4.03444
4.12178
4.12268
4.13795
4.11641
4.03786
3.95135
3.86601
3.77678
3.68589
3.59495
3.50785
3.4319
3.36325
3.30624
3.25421
3.20935
3.17591
3.13481
3.08264
3.02401
2.96167
2.89342
2.83585
2.79827
2.76737
2.73406
2.69574
2.65724
2.61978
2.58171
2.54045
2.48976
2.42887
2.38309
2.35391
2.33218
2.31237
2.29288
2.27081
2.24659
2.21674
2.14232
1.72373
2.33488
3.08946
3.30787
3.26703
3.27935
3.41747
3.84322
4.8338
6.00795
6.52229
6.42192
6.05867
5.70982
5.47462
5.25211
4.99619
4.72301
4.46412
4.23296
4.02281
3.8307
3.65491
3.48546
3.32058
3.15539
2.99158
2.85014
2.7463
2.67325
2.5997
2.50733
2.40383
2.29315
2.19986
2.1198
2.0318
1.97424
1.93259
1.87584
1.81542
1.74473
1.7169
1.70941
1.76708
2.00565
2.37778
2.75127
2.86498
2.83306
2.80122
2.80535
2.90007
3.21883
3.66638
3.96774
4.12875
4.11881
4.02587
3.91195
3.82272
3.75594
3.68837
3.60718
3.51646
3.4238
3.3427
3.28664
3.24302
3.1993
3.1506
3.10168
3.0536
3.00174
2.94323
2.87892
2.8203
2.77761
2.74013
2.7033
2.66968
2.63524
2.59739
2.55522
2.50648
2.4504
2.39589
2.35979
2.33493
2.31296
2.2893
2.26365
2.23919
2.21278
2.18479
2.13259
2.57871
3.0665
3.34799
3.37953
3.36338
3.31981
3.28515
3.28483
3.42202
4.15723
5.33713
5.75872
5.72822
5.6133
5.40381
5.14131
4.85269
4.58035
4.3378
4.12126
3.928
3.75459
3.59047
3.42527
3.25583
3.08663
2.93695
2.81812
2.71791
2.6195
2.52202
2.43833
2.35446
2.25363
2.15176
2.07608
2.02197
1.95813
1.88095
1.82023
1.78555
1.76696
1.78277
1.92471
2.29948
2.7115
2.9685
3.00195
2.97575
2.90209
2.79488
2.73967
2.71995
2.75898
2.96444
3.32574
3.68037
3.82731
3.83343
3.82213
3.80182
3.74965
3.67781
3.59282
3.50775
3.42713
3.34504
3.27728
3.22615
3.17922
3.13256
3.08713
3.04343
2.99728
2.94171
2.87596
2.80896
2.75569
2.71949
2.68977
2.66045
2.62866
2.59273
2.55181
2.4997
2.43438
2.38173
2.35271
2.33172
2.31089
2.28858
2.26165
2.23815
2.20898
2.18969
2.14556
3.26257
3.28237
3.28928
3.3101
3.32821
3.33057
3.31376
3.26769
3.17358
3.17318
3.52416
4.37801
5.14905
5.35357
5.24472
4.94668
4.65157
4.41017
4.20352
4.01214
3.83005
3.65519
3.48607
3.32278
3.1699
3.02972
2.90317
2.78676
2.68078
2.58174
2.48454
2.38545
2.29298
2.21899
2.1513
2.08615
2.01627
1.94223
1.87298
1.82838
1.81226
1.87787
2.1671
2.63308
3.02745
3.14427
3.13049
3.06047
2.96063
2.8795
2.80179
2.74631
2.70622
2.68371
2.67262
2.73889
2.91161
3.2353
3.53455
3.70092
3.75114
3.71426
3.64469
3.5705
3.51281
3.44468
3.34569
3.2418
3.17837
3.13749
3.10069
3.06368
3.02707
2.98938
2.94391
2.87867
2.79572
2.73147
2.69602
2.66963
2.64364
2.61691
2.58858
2.55176
2.49229
2.41761
2.36546
2.33414
2.31503
2.29818
2.2858
2.27101
2.25618
2.2298
2.19633
2.22453
3.36723
3.35911
3.33009
3.31245
3.30625
3.30126
3.27589
3.21939
3.10139
2.96824
2.82031
2.93892
3.53507
4.34325
4.69708
4.65312
4.47049
4.26209
4.06666
3.88153
3.70163
3.52835
3.36628
3.21739
3.08241
2.95583
2.83712
2.723
2.61713
2.51774
2.43396
2.35822
2.28573
2.20907
2.12234
2.04016
1.97414
1.92384
1.88501
1.89985
2.06722
2.50335
2.98805
3.26118
3.28194
3.25205
3.16822
3.06094
2.96283
2.88808
2.83174
2.78369
2.73388
2.67589
2.6297
2.57852
2.55888
2.6345
2.89495
3.23665
3.48985
3.57847
3.60394
3.59026
3.544
3.45683
3.33605
3.21441
3.13471
3.0996
3.07273
3.04193
3.00934
2.97623
2.93577
2.86863
2.77666
2.71014
2.67563
2.65033
2.62626
2.6013
2.57268
2.53121
2.46612
2.39379
2.35138
2.32752
2.31258
2.30063
2.28965
2.28108
2.26112
2.26996
2.30764
2.44741
3.30074
3.29203
3.28751
3.28707
3.28944
3.27354
3.22119
3.1222
2.99073
2.81613
2.66431
2.47853
2.50808
2.83186
3.53596
4.14981
4.24399
4.13004
3.92761
3.73001
3.55269
3.39452
3.24529
3.10295
2.97507
2.86057
2.75529
2.65861
2.57375
2.48726
2.40357
2.31796
2.2427
2.16903
2.09495
2.01961
1.98426
1.95978
2.01823
2.32066
2.86775
3.32004
3.41816
3.40441
3.32661
3.23003
3.14021
3.05353
2.98128
2.92066
2.86702
2.81025
2.74924
2.68086
2.6147
2.54554
2.50857
2.4781
2.50375
2.66857
3.01245
3.30616
3.49786
3.55039
3.5309
3.45688
3.3334
3.21314
3.12292
3.08427
3.05396
3.02258
2.98872
2.95336
2.9113
2.84827
2.76168
2.69772
2.66163
2.6335
2.60708
2.57877
2.54534
2.49995
2.44404
2.38971
2.35303
2.33374
2.32393
2.32132
2.31254
2.32718
2.37574