/*--------------------------------*- C++ -*----------------------------------*\
  =========                 |
  \\      /  F ield         | OpenFOAM: The Open Source CFD Toolbox
   \\    /   O peration     | Website:  https://openfoam.org
    \\  /    A nd           | Version:  7
     \\/     M anipulation  |
\*---------------------------------------------------------------------------*/
FoamFile
{
    version     2.0;
    format      ascii;
    class       volScalarField;
    location    "1.8";
    object      T;
}
// * * * * * * * * * * * * * * * * * * * * * * * * * * * * * * * * * * * * * //

dimensions      [0 0 0 1 0 0 0];

internalField   nonuniform List<scalar> 
4608
(
1
1
1
1
1
1
1
1
1
1
1
1
1
1
1
1
1
1
1
1
1
1
1
1
1
1
1
1
1
1
1
1
1
1
1
1
1
1
1
1
1
1
1
1
1
1
1
1
1
1
1
1
1
1
1
1
1
1
1
1
1
1
1
1
1
1
1
1
1
1
1
1
1
1
1
1
1
1
1
1
1
1
1
1
1
1
1
1
1
1
1
1
1
1
1
1
1
1
1
1
1
1
1
1
1
1
1
1
1
1
1
1
1
1
1
1
1
1
1
1
1
1
1
1
1
1
1
1
1
1
1
1
1
1
1
1
1
1
1
1
1
1
1
1
1
1
1
1
1
1
1
1
1
1
1
1
1
1
1
1
1
1
1
1
1
1
1
1
1
1
1
1
1
1
1
1
1
1
1
1
1
1
1
1
1
1
1
1
1
1
1
1
1
1
1
1
1
1
1
1
1
1
1
1
1
1
1
1
1
1
1
1
1
1
1
1
1
1
1
1
1
1
1
1
1
1
1
1
1
1
1
1
1
1
1
1
1
1
1
1
1
1
1
1
1
1
1
1
1
1
1
1
1
1
1
1
1
1
1
1
1
1
1
1
1
1
1
1
1
1
1
1
1
1
1
1
1
1
1
1
1
1
1
1
1
1
1
1
1
1
1
1
1
1
1
1
1
1
1
1
1
1
1
1
1
1
1
1
1
1
1
1
1
1
1
1
1
1
1
1
1
1
1
1
1
1
1
1
1
1
1
1
1
1
1
1
1
1
1
1
1
1
1
1
1
1
1
1
1
1
1
1
1
1
1
1
1
1
1
1
1
1
1
1
1
1
1
1
1
1
1
1
1
1
1
1
1
1
1
1
1
1
1
1
1
1
1
1
1
1
1
1
1
1
1
1
1
1
1
1
1
1
1
1
1
1
1
1
1
1
1
1
1
1
1
1
1
1
1
1
1
1
1
1
1
1
1
1
1
1
1
1
1
1
1
1
1
1
1
1
1
1
1
1
1
1
1
1
1
1
1
1
1
1
1
1
1
1
1
1
1
1
1
1
1
1
1
1
1
1
1
1
1
1
1
1
1
1
1
1
1
1
1
1
1
1
1
1
1
1
1
1
1
1
1
1
1
1
1
1
1
1
1
1
1
1
1
1
1
1
1
1
1
1
1
1
1
1
1
1
1
1
1
1
1
1
1
1
1
1
1
1
1
1
1
1
1
1
1
1
1
1
1
1
1
1
1
1
1
1
1
1
1
1
1
1
1
1
1
1
1
1
1
1
1
1
1
1
1
1
1
1
1
1
1
1
1
1
1
1
1
1
1
1
1
1
1
1
1
1
1
1
1
1
1
1
1
1
1
1
1
1
1
1
1
1
1
1
1
1
1
1
1
1
1
1
1
1
1
1
1
1
1
1
1
1
1
1
1
1
1
1
1
1
1
1
1
1
1
1
1
1
1
1
1
1
1
1
1
1
1
1
1
1
1
1
1
1
1
1
1
1
1
1
1
1
1
1
1
1
1
1
1
1
1
1
1
1
1
1
1
1
1
1
1
1
1
1
1
1
1
1
1
1
1
1
1
1
1
1
1
1
1
1
1
1
1
1
1
1
1
1
1
1
1
1
1
1
1
1
1
1
1
1
1
1
1
1
1
1
1
1
1
1
1
1
1
1
1
1
1
1
1
1
1
1
1
1
1
1
1
1
1
1
1
1
1
1
1
1
1
1
1
1
1
1
1
1
1.07837
1.1807
1.28995
1.39073
1.48697
1.57359
1.63375
1.68251
1.69977
1.68269
1.63648
1.58587
1.5398
1.52306
1.51361
1.51537
1.52028
1.52519
1.52843
1.53028
1.53213
1.53511
1.5385
1.54028
1.00099
1.00661
1.02712
1.07449
1.14293
1.23315
1.32062
1.40887
1.48069
1.52097
1.54513
1.56491
1.56273
1.55102
1.54072
1.53701
1.53544
1.53268
1.53218
1.53293
1.53494
1.53699
1.53922
1.54175
1
0.999994
0.999997
1.00011
1.00118
1.0084
1.03736
1.11565
1.27068
1.45385
1.56591
1.62119
1.62158
1.61137
1.59246
1.56126
1.54858
1.54529
1.54112
1.54135
1.54253
1.54378
1.54524
1.54849
1
1
0.999999
0.999999
0.999995
1.00001
0.999982
1.00057
1.01357
1.10626
1.31236
1.48549
1.61623
1.61592
1.60705
1.59617
1.58284
1.57401
1.56603
1.55812
1.55601
1.5565
1.55756
1.56046
1
1
1
1
1
1
0.999999
0.999998
0.999964
1.00039
1.01721
1.12355
1.35333
1.52467
1.61632
1.62846
1.62201
1.60659
1.59106
1.57954
1.57295
1.56927
1.56982
1.57206
1
1
1
1
1
1
1
1
0.999997
0.999997
0.999961
1.00104
1.02583
1.18524
1.40311
1.56277
1.60076
1.59905
1.59435
1.58636
1.58064
1.58003
1.57776
1.5785
1
1
1
1
1
1
1
1
1
1
0.999997
0.999998
0.999979
1.0046
1.05346
1.25026
1.45714
1.58868
1.60625
1.5997
1.59293
1.59063
1.58695
1.58291
1
1
1
1
1
1
1
1
1
1
1
1
0.999998
0.999987
1.00021
1.01464
1.11517
1.35253
1.51576
1.58837
1.59903
1.59789
1.59343
1.58672
1
1
1
1
1
1
1
1
1
1
1
1
1
0.999999
0.999997
1
1.00208
1.05098
1.22968
1.45002
1.53398
1.57492
1.58845
1.58533
1
1
1
1
1
1
1
1
1
1
1
1
1
1
1
1
0.999994
1.00056
1.01463
1.13749
1.34679
1.52427
1.57367
1.57535
1
1
1
1
1
1
1
1
1
1
1
1
1
1
1
1
0.999999
0.999997
1.00004
1.0054
1.0717
1.27859
1.46619
1.54441
1
1
1
1
1
1
1
1
1
1
1
1
1
1
1
1
1
0.999999
0.999999
1
1.00169
1.03526
1.22116
1.41684
1
1
1
1
1
1
1
1
1
1
1
1
1
1
1
1
1
1
1
1
0.999999
1.00054
1.02432
1.15218
1
1
1
1
1
1
1
1
1
1
1
1
1
1
1
1
1
1
1
1
1
0.999999
1.0004
1.00885
1
1
1
1
1
1
1
1
1
1
1
1
1
1
1
1
1
1
1
1
1
1
1
0.999989
1
1
1
1
1
1
1
1
1
1
1
1
1
1
1
1
1
1
1
1
1
1
1
0.999997
1
1
1
1
1
1
1
1
1
1
1
1
1
1
1
1
1
1
1
1
1
1
1
0.999997
1
1
1
1
1
1
1
1
1
1
1
1
1
1
1
1
1
1
1
1
1
1
1
0.99999
1
1
1
1
1
1
1
1
1
1
1
1
1
1
1
1
1
1
1
1
1
1
1.00043
1.0085
1
1
1
1
1
1
1
1
1
1
1
1
1
1
1
1
1
1
1
1
0.999999
1.00053
1.02467
1.15103
1
1
1
1
1
1
1
1
1
1
1
1
1
1
1
1
1
0.999999
0.999999
1
1.0017
1.03526
1.22038
1.41952
1
1
1
1
1
1
1
1
1
1
1
1
1
1
1
1
0.999999
0.999997
1.00004
1.0054
1.07175
1.27891
1.46478
1.54573
1
1
1
1
1
1
1
1
1
1
1
1
1
1
1
1
0.999994
1.00056
1.01463
1.13749
1.34686
1.52426
1.57353
1.57557
1
1
1
1
1
1
1
1
1
1
1
1
1
0.999999
0.999997
1
1.00208
1.05099
1.22964
1.4501
1.53397
1.57483
1.58845
1.58532
1
1
1
1
1
1
1
1
1
1
1
1
0.999998
0.999987
1.00021
1.01464
1.11518
1.35252
1.51575
1.5884
1.59902
1.59788
1.59344
1.58673
1
1
1
1
1
1
1
1
1
1
0.999997
0.999998
0.999979
1.0046
1.05346
1.25026
1.45715
1.58867
1.60625
1.5997
1.59293
1.59063
1.58695
1.58291
1
1
1
1
1
1
1
1
0.999997
0.999997
0.999961
1.00104
1.02583
1.18524
1.40311
1.56277
1.60076
1.59905
1.59435
1.58636
1.58064
1.58003
1.57776
1.5785
1
1
1
1
1
1
0.999999
0.999998
0.999964
1.00039
1.01721
1.12355
1.35333
1.52467
1.61632
1.62846
1.62201
1.60659
1.59106
1.57954
1.57295
1.56927
1.56982
1.57206
1
1
0.999999
0.999999
0.999995
1.00001
0.999982
1.00057
1.01357
1.10626
1.31236
1.48549
1.61623
1.61592
1.60705
1.59617
1.58284
1.57401
1.56603
1.55812
1.55601
1.5565
1.55756
1.56046
1
0.999994
0.999997
1.00011
1.00118
1.0084
1.03736
1.11565
1.27068
1.45385
1.56591
1.62119
1.62158
1.61137
1.59246
1.56126
1.54858
1.54529
1.54112
1.54135
1.54253
1.54378
1.54524
1.54849
1.00099
1.00661
1.02712
1.07449
1.14293
1.23315
1.32062
1.40887
1.48069
1.52097
1.54513
1.56491
1.56273
1.55102
1.54072
1.53701
1.53544
1.53268
1.53218
1.53293
1.53494
1.53699
1.53922
1.54175
1.07837
1.1807
1.28995
1.39074
1.48697
1.57359
1.63375
1.68251
1.69977
1.68269
1.63648
1.58587
1.5398
1.52306
1.51361
1.51537
1.52028
1.52519
1.52843
1.53028
1.53213
1.53511
1.5385
1.54028
1.39786
1.23171
1.11567
1.02031
0.961905
0.970977
1.00887
1.0329
1.05237
1.06337
1.06755
1.07373
1.08575
1.10329
1.11428
1.11502
1.11465
1.11186
1.10964
1.10783
1.10607
1.10831
1.11302
1.13929
1.26154
1.51628
1.75478
1.96936
2.13723
2.19214
2.14711
2.05953
1.996
1.9657
1.95115
1.93642
1.91907
1.90025
1.87793
1.85212
1.82657
1.8041
1.78496
1.76802
1.75255
1.73774
1.72278
1.70666
1.68823
1.66635
1.64364
1.62483
1.61148
1.60123
1.59157
1.58204
1.57231
1.56112
1.54611
1.52748
1.50713
1.49128
1.48185
1.47448
1.4664
1.45779
1.44896
1.43957
1.42742
1.41392
1.39654
1.39248
1.4021
1.44045
1.51088
1.61162
1.69708
1.75658
1.81052
1.83003
1.83156
1.82227
1.79344
1.75703
1.74314
1.73784
1.73266
1.72775
1.72199
1.71491
1.70181
1.6778
1.66105
1.6555
1.65094
1.64103
1.49611
1.40846
1.32352
1.25706
1.16592
1.11496
1.10546
1.09046
1.07423
1.0563
1.04476
1.04513
1.04975
1.05931
1.07456
1.08048
1.08134
1.08117
1.08327
1.08437
1.08527
1.09201
1.13129
1.29314
1.48385
1.56254
1.63033
1.72052
1.86828
1.98319
2.04379
2.03563
2.00685
1.98173
1.96024
1.94151
1.92427
1.90524
1.88351
1.85905
1.83409
1.81257
1.79432
1.77788
1.76267
1.74766
1.73223
1.71598
1.69794
1.67694
1.65457
1.63539
1.62153
1.61068
1.60088
1.59131
1.58127
1.56959
1.55478
1.537
1.51797
1.50135
1.49034
1.48229
1.47383
1.46506
1.45614
1.44749
1.43808
1.42598
1.42057
1.43315
1.4764
1.52794
1.57599
1.61264
1.65414
1.69161
1.72532
1.7479
1.75916
1.76577
1.76552
1.75932
1.75146
1.74659
1.74035
1.73279
1.72533
1.71723
1.70401
1.68324
1.66582
1.65969
1.65524
1.64558
1.53563
1.49601
1.42517
1.35818
1.29042
1.21366
1.16619
1.1279
1.0866
1.06475
1.04913
1.03463
1.0332
1.03698
1.04695
1.05131
1.05289
1.05328
1.05527
1.05959
1.06576
1.10858
1.30482
1.48774
1.57697
1.59264
1.59038
1.59364
1.63314
1.76908
1.93682
2.01934
2.02666
2.00806
1.96939
1.93794
1.9172
1.89733
1.87462
1.85019
1.82729
1.80619
1.78648
1.76863
1.75297
1.73865
1.724
1.7084
1.69133
1.67156
1.64869
1.62751
1.61289
1.60185
1.59141
1.58126
1.57137
1.56033
1.54682
1.5304
1.51238
1.494
1.47896
1.46962
1.46167
1.45548
1.44882
1.4451
1.44125
1.44678
1.4681
1.51836
1.56899
1.60511
1.62369
1.62311
1.62241
1.62765
1.63747
1.66173
1.69086
1.72313
1.75
1.75578
1.75485
1.75485
1.74962
1.73832
1.72662
1.71478
1.70061
1.68592
1.67296
1.66439
1.65698
1.64317
1.55693
1.54027
1.49801
1.43687
1.38316
1.3153
1.24968
1.20583
1.15691
1.13149
1.11592
1.08899
1.05504
1.04677
1.04878
1.04703
1.0434
1.04481
1.04343
1.04793
1.09992
1.29386
1.5064
1.56078
1.58283
1.58583
1.57481
1.56012
1.54827
1.56394
1.66082
1.84369
1.97724
1.9778
1.96977
1.94661
1.92215
1.8966
1.87307
1.85279
1.83343
1.81281
1.79015
1.76828
1.7494
1.7349
1.72246
1.70924
1.69334
1.67402
1.65146
1.62892
1.61245
1.60119
1.59042
1.57932
1.56886
1.55808
1.54536
1.52967
1.51241
1.49455
1.47828
1.46667
1.45898
1.4553
1.45316
1.45733
1.47868
1.52856
1.57931
1.61598
1.6316
1.64119
1.63979
1.63106
1.62
1.61025
1.59718
1.59785
1.60976
1.63786
1.68541
1.72287
1.73801
1.74347
1.74098
1.73401
1.72579
1.71599
1.70381
1.69343
1.68247
1.67208
1.66219
1.64616
1.5693
1.56371
1.54302
1.50092
1.44926
1.39777
1.33916
1.28223
1.22928
1.19067
1.17263
1.15104
1.11533
1.06988
1.05351
1.05044
1.04588
1.04508
1.05631
1.1418
1.32953
1.52592
1.57479
1.57153
1.56845
1.55882
1.54644
1.53551
1.52744
1.51411
1.51523
1.5667
1.73353
1.88446
1.95203
1.94988
1.9303
1.89793
1.86908
1.84639
1.82724
1.80753
1.78706
1.7674
1.74933
1.73274
1.71736
1.70232
1.68741
1.67208
1.65454
1.63293
1.61056
1.59692
1.58853
1.58039
1.5709
1.56003
1.54647
1.53044
1.51374
1.49597
1.47911
1.46817
1.46404
1.46508
1.48187
1.52527
1.5901
1.63932
1.65686
1.65867
1.65503
1.64969
1.64237
1.63351
1.62268
1.61001
1.59258
1.58165
1.57848
1.58281
1.60376
1.64729
1.68324
1.7133
1.73393
1.73337
1.72461
1.70946
1.69999
1.69518
1.68791
1.67923
1.6714
1.6551
1.57683
1.57258
1.56567
1.54479
1.50626
1.455
1.40939
1.36596
1.3124
1.2515
1.22491
1.21123
1.1906
1.14396
1.09332
1.08374
1.08378
1.09844
1.19144
1.39385
1.55395
1.60206
1.59297
1.57314
1.55233
1.53727
1.52758
1.51738
1.50661
1.49272
1.47746
1.4634
1.48697
1.60536
1.77663
1.8925
1.89935
1.89219
1.87089
1.84776
1.82492
1.80377
1.78392
1.76571
1.74858
1.73158
1.71627
1.70196
1.68727
1.67171
1.65382
1.63344
1.61391
1.59907
1.58617
1.57434
1.56193
1.55283
1.54602
1.53551
1.52147
1.50527
1.48826
1.4771
1.4821
1.51644
1.5808
1.64557
1.68982
1.6916
1.68653
1.68072
1.67085
1.6606
1.65165
1.64281
1.63141
1.61389
1.59328
1.58105
1.57466
1.57059
1.57048
1.57949
1.60007
1.62666
1.66233
1.69109
1.69594
1.69066
1.68988
1.69182
1.6935
1.68827
1.68034
1.66283
1.58187
1.58
1.57556
1.56838
1.54781
1.51315
1.46193
1.42158
1.38701
1.34285
1.28062
1.2492
1.24013
1.21337
1.17286
1.13685
1.1523
1.27202
1.48094
1.61349
1.6418
1.62659
1.59911
1.57147
1.54701
1.53293
1.521
1.50697
1.49131
1.47621
1.45892
1.44541
1.42719
1.43121
1.49421
1.65233
1.79483
1.86346
1.85893
1.8428
1.81954
1.79737
1.77843
1.76335
1.74773
1.72918
1.71082
1.69489
1.68059
1.66699
1.65348
1.63868
1.6208
1.60153
1.58368
1.57
1.55832
1.5473
1.53596
1.52373
1.51315
1.50322
1.4981
1.51227
1.5629
1.63899
1.69354
1.71732
1.7164
1.7057
1.69462
1.68542
1.67433
1.6622
1.64966
1.63745
1.62535
1.61052
1.59503
1.58537
1.57767
1.57129
1.5654
1.5587
1.5552
1.55949
1.57255
1.59959
1.63224
1.66011
1.6743
1.68221
1.68746
1.68441
1.67657
1.66046
1.58374
1.58307
1.58146
1.57799
1.56977
1.5506
1.519
1.47468
1.43327
1.40396
1.36169
1.31462
1.27273
1.25341
1.23302
1.2619
1.40769
1.59831
1.69903
1.69524
1.67329
1.64232
1.61094
1.58121
1.5558
1.53769
1.5198
1.50284
1.4847
1.46674
1.4463
1.43052
1.41441
1.40194
1.38912
1.41063
1.51812
1.67959
1.78149
1.80722
1.80485
1.79163
1.77643
1.76081
1.74311
1.72282
1.70302
1.68617
1.67228
1.65954
1.64662
1.63288
1.61786
1.6009
1.58295
1.56606
1.55209
1.54138
1.53164
1.52582
1.51927
1.52547
1.55847
1.62565
1.69424
1.73692
1.7441
1.74065
1.73107
1.71427
1.69536
1.68403
1.67435
1.66363
1.65167
1.63637
1.61888
1.6062
1.59767
1.58989
1.58178
1.57377
1.5653
1.55576
1.54424
1.53524
1.53166
1.536
1.55234
1.58422
1.617
1.64087
1.65745
1.66416
1.66306
1.6574
1.58095
1.58095
1.58132
1.58218
1.58066
1.57176
1.55366
1.52355
1.48655
1.44389
1.41254
1.37331
1.32888
1.31525
1.37125
1.54578
1.71889
1.7718
1.75963
1.72756
1.69224
1.65927
1.62747
1.59758
1.57163
1.54902
1.52684
1.50621
1.48557
1.46402
1.44231
1.4227
1.4061
1.38821
1.37302
1.355
1.35677
1.40938
1.54815
1.69006
1.75846
1.77673
1.76992
1.75349
1.73375
1.71347
1.69459
1.6778
1.66281
1.64902
1.63699
1.62529
1.61317
1.59873
1.58164
1.56354
1.54906
1.53969
1.53354
1.53476
1.56077
1.62382
1.69276
1.74743
1.76428
1.76233
1.75294
1.73618
1.71977
1.70591
1.69306
1.68353
1.67465
1.6647
1.65224
1.63489
1.61524
1.60293
1.596
1.58969
1.58302
1.57537
1.56645
1.55582
1.54083
1.52674
1.51806
1.51462
1.51229
1.51935
1.53749
1.56423
1.59433
1.62245
1.64338
1.64531
1.57466
1.57523
1.57668
1.57931
1.58027
1.57774
1.56816
1.54879
1.52236
1.48569
1.45168
1.40874
1.41928
1.52013
1.69822
1.83334
1.84879
1.82765
1.78964
1.75093
1.71472
1.68098
1.64816
1.61594
1.5859
1.5581
1.53195
1.50796
1.48684
1.46566
1.44489
1.42334
1.40468
1.3861
1.36641
1.34323
1.32923
1.32147
1.34142
1.44015
1.59246
1.69846
1.72933
1.72715
1.71628
1.70168
1.68521
1.66814
1.65208
1.63822
1.62636
1.6134
1.60035
1.58718
1.57522
1.56177
1.55179
1.54384
1.55282
1.59878
1.6877
1.75217
1.7892
1.79701
1.7921
1.77616
1.74933
1.72523
1.70744
1.69728
1.6901
1.68315
1.67484
1.66514
1.65284
1.63315
1.61067
1.59871
1.59129
1.58435
1.57763
1.57162
1.56557
1.55646
1.54069
1.52109
1.50946
1.50324
1.49809
1.4953
1.494
1.49964
1.51548
1.54302
1.57718
1.60429
1.57902
1.58168
1.57935
1.57914
1.5789
1.57793
1.57398
1.56492
1.54356
1.51761
1.48803
1.52325
1.68246
1.85476
1.91828
1.90981
1.8769
1.83833
1.80153
1.76623
1.73126
1.69657
1.6628
1.6303
1.59957
1.57007
1.54148
1.51331
1.48609
1.46128
1.44222
1.42505
1.40743
1.38847
1.36716
1.34471
1.32382
1.30928
1.29679
1.30076
1.35794
1.48793
1.62002
1.67462
1.689
1.68512
1.67271
1.65657
1.63944
1.625
1.61223
1.59959
1.58769
1.57642
1.56963
1.56025
1.5609
1.58458
1.65295
1.73435
1.7916
1.80019
1.79952
1.79517
1.78484
1.76606
1.73833
1.71313
1.69811
1.6902
1.68402
1.67844
1.67199
1.66458
1.65322
1.63249
1.60718
1.59222
1.58418
1.57734
1.57093
1.56541
1.56042
1.55421
1.54162
1.51992
1.50349
1.49507
1.48837
1.48284
1.47875
1.47762
1.47606
1.4817
1.49537
1.53268
1.53851
1.56032
1.5661
1.57213
1.57609
1.57716
1.57465
1.56829
1.55444
1.55786
1.65107
1.83355
1.9797
2.00838
1.98825
1.93922
1.88901
1.84549
1.80772
1.77303
1.73993
1.70753
1.67457
1.64072
1.6072
1.57564
1.54707
1.52043
1.49494
1.47079
1.44664
1.42251
1.40047
1.38197
1.36347
1.34541
1.32768
1.31071
1.29272
1.28021
1.27634
1.29739
1.39098
1.52809
1.61063
1.64527
1.64717
1.63747
1.62382
1.61179
1.59752
1.58488
1.57505
1.56934
1.57029
1.58561
1.63431
1.71684
1.77789
1.81367
1.8232
1.81658
1.80185
1.78598
1.77198
1.75458
1.72779
1.70476
1.69311
1.68548
1.67827
1.67102
1.66403
1.65725
1.64783
1.63107
1.6068
1.58774
1.57789
1.57128
1.56551
1.55986
1.55412
1.54783
1.53769
1.51979
1.50136
1.49058
1.48357
1.47684
1.47108
1.46668
1.46338
1.46024
1.45649
1.46544
1.36799
1.50098
1.56368
1.57558
1.57441
1.57004
1.56666
1.56823
1.60793
1.77269
1.98543
2.04768
2.04148
2.02382
1.99085
1.94958
1.90243
1.85465
1.81149
1.77457
1.74247
1.7129
1.68284
1.65011
1.61468
1.57831
1.54434
1.51678
1.49552
1.47623
1.45535
1.43328
1.41062
1.38691
1.36357
1.34283
1.32343
1.30548
1.28848
1.2728
1.26322
1.25706
1.26335
1.31779
1.42749
1.53986
1.5994
1.61541
1.6123
1.60005
1.5833
1.57106
1.57063
1.58052
1.62184
1.7023
1.78342
1.81358
1.81415
1.8118
1.81212
1.80896
1.79971
1.7827
1.76318
1.7438
1.72028
1.70012
1.68878
1.68086
1.67386
1.66711
1.65984
1.65156
1.64122
1.62655
1.60723
1.58862
1.57489
1.56669
1.56133
1.55753
1.55386
1.54724
1.53524
1.5173
1.499
1.48826
1.48132
1.47494
1.46937
1.46358
1.45823
1.45145
1.44645
1.43698
1.11934
1.31557
1.49654
1.55057
1.55286
1.55675
1.5829
1.67945
1.87676
2.05971
2.13473
2.12386
2.07593
2.02503
1.98885
1.95262
1.91014
1.86405
1.81922
1.78023
1.7463
1.71335
1.68166
1.65128
1.6208
1.5879
1.5544
1.52383
1.49781
1.47559
1.45315
1.43208
1.4129
1.39305
1.37318
1.35373
1.33255
1.30916
1.28836
1.26912
1.25607
1.24597
1.24151
1.23913
1.26039
1.33561
1.45942
1.54
1.57906
1.5782
1.57317
1.57998
1.61993
1.68447
1.7687
1.82733
1.86117
1.85672
1.83676
1.81325
1.79955
1.79219
1.78459
1.77172
1.75303
1.73337
1.71575
1.70072
1.68848
1.67863
1.67015
1.66168
1.65228
1.64172
1.62984
1.61675
1.60385
1.59062
1.57739
1.56676
1.55937
1.5538
1.54779
1.5396
1.52846
1.51293
1.49678
1.48627
1.47901
1.47282
1.46768
1.46278
1.45759
1.45063
1.44229
1.42968
1.00846
1.07235
1.28578
1.45869
1.53242
1.63096
1.77518
1.94994
2.0721
2.11711
2.12092
2.11128
2.08398
2.04049
1.99812
1.95554
1.91205
1.87001
1.83066
1.79495
1.76009
1.72258
1.68429
1.64894
1.61532
1.58614
1.56358
1.54196
1.51481
1.48724
1.46159
1.43884
1.41896
1.39781
1.37476
1.35426
1.34027
1.32328
1.29864
1.27523
1.26006
1.24998
1.23949
1.2321
1.22074
1.22139
1.26636
1.37233
1.49182
1.54589
1.58053
1.67077
1.77478
1.8327
1.86057
1.86224
1.86066
1.84937
1.83222
1.81665
1.79948
1.78417
1.77227
1.76142
1.75163
1.73715
1.71898
1.70307
1.68957
1.6782
1.66915
1.66079
1.65115
1.63985
1.62753
1.61511
1.60194
1.58887
1.57833
1.57118
1.56378
1.55565
1.5463
1.53672
1.52687
1.51621
1.50283
1.49168
1.48386
1.47758
1.47203
1.46648
1.45974
1.45144
1.44236
1.42735
1.00014
1.00398
1.06418
1.25609
1.57303
1.81068
1.97685
2.10173
2.17011
2.14738
2.11648
2.10306
2.08807
2.0574
2.00767
1.95523
1.90887
1.86897
1.83352
1.79636
1.75843
1.72887
1.70029
1.66668
1.63213
1.6002
1.56989
1.54043
1.50854
1.47732
1.46566
1.45626
1.44072
1.4194
1.39595
1.37416
1.3487
1.31605
1.28416
1.2763
1.27177
1.26437
1.25339
1.24041
1.22272
1.20341
1.19863
1.22273
1.33284
1.52333
1.65661
1.7901
1.87596
1.91258
1.90854
1.89285
1.8644
1.83858
1.82379
1.81597
1.80348
1.78596
1.76832
1.75384
1.74022
1.72777
1.71359
1.70025
1.68925
1.67943
1.66912
1.65776
1.64658
1.63485
1.62168
1.61044
1.6032
1.59452
1.5841
1.57171
1.56004
1.55067
1.54275
1.53511
1.52656
1.51449
1.49882
1.4864
1.47809
1.47153
1.46599
1.46071
1.45574
1.45133
1.44573
1.43059
1.00014
1.00337
1.05814
1.2823
1.54215
1.80118
1.9971
2.10438
2.16927
2.15301
2.11527
2.09696
2.08052
2.04706
1.99824
1.94861
1.90823
1.87426
1.84029
1.80323
1.76576
1.72708
1.68874
1.65351
1.61834
1.59054
1.57265
1.55022
1.5197
1.48763
1.45912
1.43697
1.42141
1.40473
1.38537
1.36424
1.33881
1.31089
1.28933
1.26971
1.25332
1.24521
1.23736
1.22868
1.21528
1.19976
1.19912
1.23032
1.33219
1.49844
1.6941
1.81061
1.8602
1.91069
1.91005
1.87998
1.85424
1.83987
1.82811
1.82148
1.81116
1.7932
1.7738
1.75679
1.73739
1.72294
1.71517
1.70646
1.69636
1.68532
1.67191
1.65907
1.64757
1.63565
1.62297
1.61064
1.59894
1.58946
1.58025
1.57017
1.56017
1.55143
1.54393
1.5365
1.52766
1.51551
1.49976
1.48695
1.4781
1.47125
1.46575
1.46113
1.45697
1.45283
1.44666
1.43012
1.00851
1.07344
1.2811
1.48225
1.51662
1.62423
1.8037
1.95491
2.07213
2.11854
2.11931
2.10873
2.08026
2.036
1.99341
1.95115
1.90806
1.86605
1.82701
1.79166
1.75847
1.72389
1.68903
1.6557
1.62463
1.59285
1.55955
1.52949
1.50513
1.48321
1.45758
1.4321
1.41304
1.40092
1.38829
1.36782
1.34171
1.31637
1.29266
1.27107
1.25341
1.24181
1.23313
1.22836
1.22262
1.2302
1.27158
1.38014
1.49126
1.52871
1.60566
1.68562
1.74888
1.82729
1.85421
1.85862
1.85824
1.85281
1.83613
1.81942
1.80613
1.79293
1.77755
1.75921
1.74084
1.72534
1.71141
1.69955
1.68885
1.68001
1.67376
1.66599
1.65583
1.64373
1.6297
1.61307
1.59796
1.58772
1.58004
1.57297
1.56561
1.55838
1.55096
1.54273
1.53288
1.52014
1.50463
1.49228
1.48387
1.47755
1.47213
1.46728
1.46244
1.45727
1.45036
1.43298
1.12113
1.31157
1.50318
1.55406
1.54764
1.55205
1.58838
1.68239
1.86631
2.05691
2.13444
2.1212
2.07244
2.02245
1.98665
1.95121
1.9104
1.86637
1.82367
1.78512
1.74969
1.71605
1.68278
1.64885
1.61556
1.58268
1.55021
1.52122
1.49903
1.4829
1.46631
1.44476
1.41995
1.39368
1.37159
1.35134
1.32731
1.31069
1.29909
1.28412
1.26865
1.25006
1.24344
1.24343
1.26419
1.34698
1.45484
1.54891
1.58042
1.57444
1.5718
1.57601
1.60272
1.67694
1.77553
1.83913
1.86451
1.86116
1.8424
1.82036
1.80532
1.79507
1.78343
1.76723
1.74835
1.72923
1.71331
1.70201
1.6923
1.68215
1.67123
1.66123
1.65176
1.64106
1.62797
1.61248
1.59723
1.58562
1.57606
1.56786
1.56121
1.55466
1.54722
1.53816
1.52659
1.51234
1.49789
1.48788
1.48068
1.47433
1.46792
1.46154
1.45592
1.45023
1.44376
1.43146
1.37139
1.49884
1.56225
1.57565
1.57439
1.56976
1.56726
1.56897
1.6041
1.7688
1.98914
2.04757
2.04238
2.02448
1.99167
1.95074
1.90447
1.85888
1.81638
1.77792
1.7433
1.71118
1.67927
1.64615
1.61171
1.57689
1.54543
1.51935
1.49632
1.47326
1.45036
1.43059
1.4108
1.38679
1.36182
1.34197
1.32677
1.30851
1.28677
1.26993
1.261
1.25788
1.26442
1.31544
1.43268
1.5455
1.60122
1.61641
1.61345
1.60115
1.58006
1.56701
1.56736
1.57955
1.63249
1.71985
1.79284
1.8182
1.81836
1.81572
1.81209
1.80395
1.79216
1.77607
1.75781
1.73991
1.72245
1.70808
1.69639
1.68512
1.67438
1.66461
1.65553
1.64564
1.63291
1.61695
1.60006
1.58643
1.57722
1.57017
1.56396
1.55777
1.55089
1.54242
1.53019
1.51324
1.49846
1.48993
1.48377
1.47796
1.47214
1.46558
1.46006
1.45347
1.44863
1.43764
1.54024
1.55866
1.56441
1.57068
1.57627
1.57735
1.57482
1.56839
1.55436
1.5577
1.65404
1.83627
1.97994
2.0091
1.99002
1.94178
1.89178
1.84866
1.81015
1.77384
1.73886
1.70464
1.67078
1.63733
1.6053
1.57515
1.54671
1.51945
1.4942
1.47074
1.44743
1.42369
1.40163
1.38316
1.36536
1.34794
1.32945
1.30934
1.28994
1.27581
1.27284
1.29622
1.39191
1.52178
1.62162
1.65363
1.65211
1.63973
1.62142
1.60735
1.5926
1.58065
1.57282
1.57027
1.5725
1.59098
1.63737
1.71304
1.77774
1.81161
1.81905
1.81144
1.7977
1.78381
1.77144
1.75606
1.73409
1.71095
1.69625
1.68662
1.67808
1.66983
1.66186
1.65349
1.64263
1.6264
1.6058
1.58957
1.58053
1.57413
1.56838
1.56289
1.55706
1.54892
1.53469
1.51523
1.50046
1.49125
1.48553
1.48065
1.47731
1.47358
1.47009
1.46352
1.45461
1.46386
1.57953
1.58144
1.57903
1.57917
1.57913
1.57812
1.57397
1.56475
1.54353
1.51744
1.48851
1.52534
1.68424
1.85564
1.91921
1.91066
1.87784
1.83906
1.80138
1.76487
1.72882
1.6935
1.65984
1.62828
1.5989
1.57042
1.5424
1.51456
1.48827
1.46388
1.44342
1.42494
1.40687
1.38683
1.36292
1.34046
1.32281
1.30868
1.29728
1.30233
1.3593
1.49047
1.61875
1.67712
1.69369
1.68977
1.67496
1.6546
1.63547
1.62091
1.60963
1.60001
1.59016
1.57872
1.57076
1.55919
1.55723
1.57848
1.64644
1.72779
1.78385
1.79658
1.79856
1.79638
1.78838
1.77122
1.74444
1.71602
1.69753
1.68951
1.6835
1.67672
1.66917
1.66099
1.65077
1.63423
1.61192
1.59527
1.58636
1.57994
1.57407
1.56809
1.56105
1.55081
1.53467
1.51589
1.50391
1.49667
1.49188
1.48777
1.48407
1.48156
1.47674
1.4796
1.49055
1.53041
1.57481
1.57525
1.57665
1.57921
1.5803
1.57776
1.5681
1.54874
1.5223
1.48562
1.45175
1.40883
1.41948
1.52022
1.69821
1.83307
1.84855
1.82712
1.78842
1.74902
1.71251
1.67911
1.64705
1.61589
1.58699
1.56008
1.5344
1.51019
1.48845
1.46644
1.44532
1.42325
1.40326
1.38357
1.36268
1.34054
1.32916
1.32309
1.34332
1.44039
1.59219
1.7002
1.73043
1.72929
1.71686
1.69994
1.68298
1.66574
1.65122
1.63849
1.62689
1.61495
1.60263
1.58869
1.57443
1.55898
1.54964
1.54297
1.55087
1.5961
1.68396
1.75072
1.79172
1.79939
1.79562
1.78067
1.75355
1.72522
1.70374
1.69489
1.68842
1.68143
1.67323
1.66424
1.654
1.63923
1.61838
1.60229
1.59283
1.58532
1.57823
1.57081
1.56239
1.55113
1.53636
1.52174
1.51177
1.50584
1.50203
1.50016
1.49651
1.50041
1.51409
1.5389
1.57068
1.6016
1.58097
1.58095
1.5813
1.58214
1.58064
1.57175
1.55366
1.52354
1.48652
1.44383
1.41255
1.37327
1.32895
1.31503
1.37041
1.54392
1.71713
1.77092
1.75885
1.72666
1.69146
1.65912
1.62798
1.59859
1.57324
1.55119
1.52913
1.50799
1.4867
1.46451
1.44182
1.42142
1.40439
1.38608
1.37064
1.35313
1.35554
1.4099
1.55043
1.68862
1.76049
1.77732
1.77153
1.75335
1.73136
1.71005
1.69137
1.67601
1.66343
1.65107
1.63876
1.62617
1.61275
1.59719
1.57946
1.56127
1.54779
1.53935
1.53403
1.53528
1.56279
1.62731
1.69962
1.75436
1.76702
1.76444
1.75486
1.73412
1.71365
1.70158
1.69115
1.68246
1.67423
1.66522
1.65514
1.64174
1.62262
1.60605
1.59581
1.58769
1.57996
1.57168
1.56233
1.55086
1.53797
1.52907
1.52248
1.51933
1.51608
1.52091
1.53642
1.56189
1.59102
1.61766
1.63903
1.64646
1.58373
1.58306
1.58144
1.57798
1.56977
1.55061
1.51901
1.47469
1.43326
1.40394
1.36169
1.31461
1.27279
1.25338
1.23283
1.2611
1.4065
1.59764
1.69861
1.69483
1.67349
1.64303
1.61206
1.58265
1.55753
1.5395
1.52111
1.50343
1.48458
1.46641
1.44534
1.42867
1.41253
1.39979
1.3878
1.41029
1.51782
1.68161
1.78106
1.80771
1.8055
1.79137
1.77544
1.75864
1.74019
1.71988
1.70088
1.68625
1.67394
1.66117
1.64764
1.63353
1.61772
1.60001
1.58218
1.56601
1.55253
1.54195
1.53209
1.52611
1.51978
1.52713
1.56147
1.62884
1.69319
1.73893
1.74437
1.73701
1.72348
1.70861
1.69398
1.68399
1.676
1.66621
1.65483
1.64096
1.62305
1.60619
1.59506
1.58659
1.57868
1.57081
1.56186
1.55291
1.54446
1.53981
1.53603
1.54003
1.55318
1.58144
1.61238
1.63628
1.65592
1.66426
1.66522
1.6604
1.58186
1.57999
1.57555
1.56837
1.54781
1.51315
1.46192
1.42158
1.38701
1.34284
1.28062
1.2492
1.24013
1.21336
1.17279
1.13684
1.15226
1.27245
1.48127
1.61383
1.6424
1.62734
1.60007
1.57238
1.54796
1.53373
1.52156
1.50698
1.49074
1.47502
1.4571
1.44316
1.42584
1.43009
1.49408
1.65465
1.79589
1.86458
1.85909
1.84282
1.81963
1.79631
1.77613
1.76097
1.74546
1.72779
1.71078
1.69598
1.6821
1.66876
1.65523
1.63944
1.62055
1.60106
1.58413
1.57143
1.56008
1.54889
1.53685
1.5242
1.51337
1.50354
1.4978
1.51151
1.55781
1.63578
1.68897
1.71219
1.71328
1.70588
1.69606
1.68723
1.67725
1.66576
1.65331
1.64008
1.62449
1.60548
1.59105
1.58316
1.57644
1.57052
1.56406
1.55977
1.55829
1.56373
1.57607
1.5998
1.62828
1.65478
1.67035
1.67996
1.68728
1.68577
1.67952
1.66355
1.57683
1.57257
1.56567
1.54479
1.50626
1.455
1.40939
1.36596
1.3124
1.2515
1.22491
1.21124
1.1906
1.14397
1.0933
1.08372
1.08385
1.0986
1.19218
1.39483
1.55468
1.60285
1.59387
1.5739
1.5528
1.53757
1.52743
1.51677
1.50574
1.49159
1.47587
1.46224
1.48651
1.60489
1.77734
1.89429
1.90035
1.89329
1.87169
1.84763
1.8241
1.80239
1.78113
1.76287
1.74721
1.73223
1.71827
1.70427
1.68892
1.67189
1.65275
1.63278
1.61548
1.60112
1.58771
1.57556
1.56307
1.55454
1.54735
1.53596
1.52156
1.50457
1.4876
1.47659
1.48075
1.5126
1.57781
1.64202
1.68603
1.6919
1.68681
1.68123
1.67393
1.66486
1.65446
1.64236
1.62713
1.60651
1.58714
1.57944
1.57453
1.57197
1.57306
1.58342
1.60428
1.63186
1.66171
1.68568
1.69048
1.68678
1.68739
1.69024
1.69374
1.69042
1.68463
1.66806
1.5693
1.56372
1.54302
1.50092
1.44927
1.39777
1.33916
1.28223
1.22928
1.19067
1.17263
1.15104
1.11533
1.06988
1.05351
1.05042
1.0459
1.0451
1.05643
1.14243
1.33037
1.5265
1.5753
1.57168
1.5684
1.5587
1.54595
1.53474
1.52661
1.51345
1.51452
1.56611
1.73436
1.88528
1.95366
1.95176
1.93264
1.89975
1.87044
1.8465
1.82558
1.80545
1.78547
1.76637
1.74921
1.73364
1.71894
1.7042
1.68882
1.67254
1.654
1.632
1.61156
1.59976
1.59124
1.58199
1.57146
1.56
1.54622
1.53043
1.51377
1.49572
1.47842
1.46755
1.46389
1.46499
1.48102
1.52753
1.58948
1.64646
1.65722
1.65998
1.65768
1.65142
1.6427
1.63283
1.62108
1.606
1.58764
1.58119
1.58006
1.58557
1.60866
1.65256
1.68805
1.71644
1.7294
1.72719
1.719
1.7063
1.69828
1.69491
1.68916
1.68134
1.67466
1.65843
1.55693
1.54027
1.49801
1.43687
1.38316
1.3153
1.24968
1.20583
1.1569
1.13149
1.11592
1.08899
1.05503
1.04677
1.04878
1.04702
1.0434
1.04481
1.04343
1.04796
1.1001
1.29367
1.50518
1.56041
1.58289
1.58562
1.57445
1.55945
1.54762
1.56319
1.66003
1.84448
1.97787
1.97921
1.97109
1.94781
1.92297
1.8964
1.8712
1.84985
1.83083
1.81093
1.78985
1.76965
1.75183
1.73681
1.72312
1.70903
1.69275
1.67333
1.65115
1.62988
1.61399
1.60164
1.58989
1.57874
1.56877
1.55845
1.54587
1.52996
1.51239
1.49436
1.47779
1.46627
1.45881
1.45521
1.45387
1.45925
1.48154
1.5316
1.58377
1.62052
1.63419
1.64061
1.63871
1.62976
1.61866
1.6076
1.59542
1.59767
1.61109
1.64055
1.69052
1.72878
1.74004
1.74042
1.73629
1.72981
1.72325
1.71488
1.70324
1.69396
1.68421
1.67421
1.66473
1.6476
1.53563
1.49601
1.42517
1.35818
1.29042
1.21367
1.16619
1.1279
1.0866
1.06475
1.04913
1.03463
1.0332
1.03698
1.04695
1.05131
1.05289
1.05328
1.05527
1.05959
1.06577
1.10817
1.3035
1.48622
1.57665
1.59226
1.59026
1.59351
1.63258
1.76845
1.93622
2.02035
2.02715
2.00863
1.96997
1.93847
1.91726
1.89696
1.87394
1.84914
1.82576
1.80546
1.78715
1.77035
1.75465
1.73954
1.72423
1.70827
1.69095
1.67094
1.64856
1.62835
1.61331
1.60125
1.59063
1.58082
1.57109
1.56004
1.54657
1.53029
1.51234
1.49374
1.47866
1.46976
1.46207
1.45624
1.45007
1.44638
1.44262
1.44686
1.46994
1.5199
1.56692
1.60176
1.62185
1.62215
1.62166
1.62671
1.63714
1.66245
1.69217
1.72409
1.75137
1.75555
1.75364
1.7525
1.74599
1.73502
1.72519
1.71476
1.70123
1.68736
1.67501
1.66507
1.65615
1.64151
1.49611
1.40846
1.32352
1.25706
1.16592
1.11496
1.10545
1.09046
1.07423
1.0563
1.04476
1.04512
1.04975
1.05931
1.07456
1.08048
1.08134
1.08117
1.08327
1.08437
1.08528
1.092
1.13104
1.29182
1.48262
1.56201
1.6301
1.72044
1.86833
1.98342
2.04408
2.03591
2.00695
1.98155
1.95971
1.9404
1.92296
1.90484
1.88395
1.85967
1.83539
1.81403
1.79541
1.77853
1.76265
1.74721
1.73155
1.71518
1.69711
1.67633
1.65453
1.63547
1.6211
1.60998
1.60019
1.59055
1.58037
1.56861
1.55393
1.53651
1.51771
1.50126
1.49076
1.48307
1.47476
1.46612
1.45722
1.44835
1.43719
1.42436
1.41896
1.43093
1.47283
1.5256
1.57496
1.61224
1.65412
1.69228
1.72568
1.75011
1.76005
1.76676
1.76483
1.75628
1.74933
1.74458
1.74041
1.7345
1.72773
1.71912
1.7059
1.6848
1.66546
1.65725
1.65227
1.64328
1.39786
1.23171
1.11567
1.02031
0.961905
0.970978
1.00887
1.0329
1.05237
1.06337
1.06754
1.07373
1.08575
1.10329
1.11428
1.11502
1.11465
1.11186
1.10964
1.10783
1.10608
1.10831
1.11301
1.13903
1.26076
1.51625
1.75517
1.96997
2.13768
2.19261
2.14751
2.05967
1.9961
1.9651
1.95033
1.93572
1.91826
1.89928
1.87743
1.85272
1.82784
1.80559
1.78613
1.76845
1.75227
1.73689
1.72158
1.70534
1.68703