/*--------------------------------*- C++ -*----------------------------------*\
  =========                 |
  \\      /  F ield         | OpenFOAM: The Open Source CFD Toolbox
   \\    /   O peration     | Website:  https://openfoam.org
    \\  /    A nd           | Version:  7
     \\/     M anipulation  |
\*---------------------------------------------------------------------------*/
FoamFile
{
    version     2.0;
    format      ascii;
    class       volVectorField;
    location    "1.8";
    object      U;
}
// * * * * * * * * * * * * * * * * * * * * * * * * * * * * * * * * * * * * * //

dimensions      [0 1 -1 0 0 0 0];

internalField   nonuniform List<vector> 
4608
(
(3 -4.70968e-18 0)
(3 -4.27493e-17 0)
(3 7.1359e-17 0)
(3 -1.48282e-16 0)
(3 -9.35918e-17 0)
(3 2.83624e-16 0)
(3 8.42597e-16 0)
(3 1.52285e-15 0)
(3 2.15275e-15 0)
(3 1.17352e-15 0)
(3 2.15641e-16 0)
(3 -3.80069e-16 0)
(3 -1.01711e-16 0)
(3 1.292e-16 0)
(3 3.70917e-16 0)
(3 4.568e-16 0)
(3 3.33117e-16 0)
(3 1.81522e-16 0)
(3 1.87822e-16 0)
(3 -3.84836e-16 0)
(3 -5.59144e-16 0)
(3 3.67144e-16 0)
(3 4.70139e-16 0)
(3 1.0135e-15 0)
(3 -1.55183e-16 0)
(3 -4.22148e-16 0)
(3 -1.23057e-16 0)
(3 -8.82487e-17 0)
(3 7.40731e-17 0)
(3 4.16156e-16 0)
(3 6.06771e-16 0)
(3 1.45393e-15 0)
(3 1.83654e-15 0)
(3 1.52825e-15 0)
(3 3.22485e-16 0)
(3 -7.51876e-16 0)
(3 -3.36081e-16 0)
(3 3.56903e-16 0)
(3 6.87668e-16 0)
(3 6.44927e-16 0)
(3 -1.83271e-16 0)
(3 -1.88833e-16 0)
(3 -2.51856e-16 0)
(3 -1.07404e-15 0)
(3 -6.3207e-16 0)
(3 7.55699e-16 0)
(3 9.94173e-16 0)
(3 1.0115e-15 0)
(3 -8.36409e-17 0)
(3 -1.48816e-16 0)
(3 -3.96655e-17 0)
(3 1.45644e-16 0)
(3 1.907e-16 0)
(3 -3.49229e-16 0)
(3 -2.0104e-16 0)
(3 3.55358e-16 0)
(3 2.11985e-16 0)
(3 2.72501e-16 0)
(3 -1.31289e-16 0)
(3 -2.36037e-16 0)
(3 -1.87084e-16 0)
(3 -5.38648e-17 0)
(3 2.1603e-16 0)
(3 4.23796e-16 0)
(3 -4.13063e-16 0)
(3 -1.13381e-15 0)
(3 -1.46798e-15 0)
(3 -1.31461e-15 0)
(3 1.5488e-16 0)
(3 8.72682e-16 0)
(3 1.45172e-15 0)
(3 1.41513e-15 0)
(3 1.25053e-16 0)
(3 3.99357e-16 0)
(3 2.96241e-16 0)
(3 -5.97292e-17 0)
(3 -1.37002e-16 0)
(3 -3.44924e-16 0)
(3 -5.33715e-16 0)
(3 -3.60499e-16 0)
(3 1.40419e-16 0)
(3 3.95795e-16 0)
(3 -3.12906e-16 0)
(3 -3.18449e-16 0)
(3 -5.93784e-16 0)
(3 -1.75141e-16 0)
(3 4.50178e-16 0)
(3 4.52396e-16 0)
(3 -2.97e-16 0)
(3 -1.4619e-15 0)
(3 -1.64993e-15 0)
(3 -1.02641e-15 0)
(3 -5.50946e-16 0)
(3 -5.7555e-16 0)
(3 -1.43975e-16 0)
(3 7.07642e-16 0)
(3 -9.34525e-17 0)
(3 1.97133e-17 0)
(3 -2.28685e-16 0)
(3 -2.05022e-16 0)
(3 1.14617e-17 0)
(3 -9.17936e-18 0)
(3 -5.62956e-16 0)
(3 -4.77413e-16 0)
(3 -4.89951e-16 0)
(3 1.36419e-16 0)
(3 5.93194e-16 0)
(3 -5.95062e-17 0)
(3 -1.86332e-16 0)
(3 5.91521e-16 0)
(3 1.24216e-15 0)
(3 1.42052e-15 0)
(3 1.19357e-15 0)
(3 4.07443e-16 0)
(3 -1.627e-16 0)
(3 -7.42501e-16 0)
(3 -7.01545e-16 0)
(3 -6.36404e-16 0)
(3 -1.39598e-15 0)
(3 -2.81492e-16 0)
(3 -5.43266e-17 0)
(3 -9.62987e-17 0)
(3 5.50139e-17 0)
(3 1.79968e-16 0)
(3 5.63061e-17 0)
(3 -2.83314e-16 0)
(3 -1.87928e-16 0)
(3 -1.87558e-16 0)
(3 -5.58355e-16 0)
(3 -5.82184e-16 0)
(3 4.27519e-16 0)
(3 8.34461e-16 0)
(3 1.24198e-15 0)
(3 1.42508e-15 0)
(3 1.26004e-15 0)
(3 1.3046e-15 0)
(3 1.27034e-15 0)
(3 1.41382e-15 0)
(3 9.60373e-16 0)
(3 7.39278e-16 0)
(3 1.0072e-15 0)
(3 7.32538e-16 0)
(3 -2.53067e-16 0)
(3 1.04854e-15 0)
(3 -1.32919e-16 0)
(3 -1.54938e-16 0)
(3 -1.02022e-16 0)
(3 -1.09327e-16 0)
(3 -2.4378e-16 0)
(3 2.59303e-17 0)
(3 4.78872e-16 0)
(3 2.88066e-16 0)
(3 2.09626e-16 0)
(3 -2.43747e-16 0)
(3 -5.53954e-16 0)
(3 -4.31488e-18 0)
(3 3.4111e-16 0)
(3 4.97454e-16 0)
(3 7.73684e-16 0)
(3 5.2265e-16 0)
(3 8.18951e-16 0)
(3 1.61378e-15 0)
(3 2.0965e-15 0)
(3 1.94067e-15 0)
(3 9.34427e-16 0)
(3 7.16479e-16 0)
(3 8.57031e-16 0)
(3 1.08933e-15 0)
(3 5.96176e-17 0)
(3 6.91371e-17 0)
(3 -8.55278e-17 0)
(3 4.85845e-17 0)
(3 3.48193e-16 0)
(3 6.33032e-16 0)
(3 7.91174e-16 0)
(3 7.25447e-16 0)
(3 3.93113e-16 0)
(3 3.31743e-16 0)
(3 3.26013e-16 0)
(3 5.37585e-16 0)
(3 4.54471e-16 0)
(3 3.54072e-16 0)
(3 4.55437e-16 0)
(3 3.39383e-16 0)
(3 3.1743e-16 0)
(3 1.05216e-15 0)
(3 2.16452e-15 0)
(3 2.23221e-15 0)
(3 8.10971e-16 0)
(3 1.90493e-16 0)
(3 3.75533e-16 0)
(3 -2.59854e-16 0)
(3 8.4699e-17 0)
(3 2.14987e-17 0)
(3 -2.26058e-16 0)
(3 -4.74058e-16 0)
(3 -4.91158e-16 0)
(3 -4.99511e-16 0)
(3 -3.68397e-16 0)
(3 -1.10172e-16 0)
(3 3.86945e-16 0)
(3 4.23958e-16 0)
(3 6.27744e-16 0)
(3 8.92371e-16 0)
(3 9.18039e-16 0)
(3 4.3322e-16 0)
(3 -5.65161e-16 0)
(3 -4.16444e-16 0)
(3 -8.5984e-17 0)
(3 4.70351e-16 0)
(3 8.29604e-16 0)
(3 7.29671e-16 0)
(3 2.73039e-16 0)
(3 -7.14217e-17 0)
(3 9.85215e-18 0)
(3 -3.7168e-16 0)
(3 -1.07629e-16 0)
(3 -1.96423e-16 0)
(3 -2.6441e-16 0)
(3 -1.75395e-16 0)
(3 -4.65884e-16 0)
(3 -8.6731e-16 0)
(3 -1.15363e-15 0)
(3 -1.29615e-15 0)
(3 -4.40201e-16 0)
(3 -4.49357e-16 0)
(3 -7.53916e-16 0)
(3 -5.94843e-16 0)
(3 -4.79879e-16 0)
(3 -6.02145e-16 0)
(3 -1.01932e-15 0)
(3 -1.69903e-15 0)
(3 -7.86162e-16 0)
(3 -5.66476e-16 0)
(3 -1.40476e-16 0)
(3 -2.13661e-16 0)
(3 -6.85743e-16 0)
(3 -5.40117e-16 0)
(3 -1.29721e-16 0)
(3 3.41478e-16 0)
(3 2.54634e-16 0)
(3 3.30046e-16 0)
(3 6.12491e-16 0)
(3 4.95973e-16 0)
(3 1.86679e-16 0)
(3 1.74421e-16 0)
(3 -1.38599e-16 0)
(3 -5.31698e-16 0)
(3 -4.12063e-16 0)
(3 6.79293e-17 0)
(3 -8.62069e-17 0)
(3 -6.16015e-16 0)
(3 -7.91857e-16 0)
(3 -4.91877e-16 0)
(3 -4.6123e-16 0)
(3 -8.41078e-16 0)
(3 -1.0485e-15 0)
(3 -9.8583e-16 0)
(3 2.09413e-16 0)
(3 7.74805e-16 0)
(3 1.05779e-15 0)
(3 2.73204e-16 0)
(3 -2.69128e-16 0)
(3 -3.30518e-17 0)
(3 7.5393e-17 0)
(3 1.90476e-17 0)
(3 4.86424e-17 0)
(3 -4.12186e-16 0)
(3 -3.44808e-16 0)
(3 -5.97434e-17 0)
(3 3.58249e-16 0)
(3 5.31224e-16 0)
(3 1.49952e-16 0)
(3 -9.9614e-17 0)
(3 1.49603e-16 0)
(3 4.35646e-17 0)
(3 3.15697e-17 0)
(3 -2.13158e-16 0)
(3 1.91672e-16 0)
(3 3.00525e-16 0)
(3 1.60509e-16 0)
(3 3.12754e-16 0)
(3 8.39856e-16 0)
(3 1.14001e-15 0)
(3 1.50823e-15 0)
(3 1.00475e-15 0)
(3 3.1507e-16 0)
(3 -1.36588e-16 0)
(3 -1.88841e-16 0)
(3 -2.31949e-16 0)
(3 -3.14252e-16 0)
(3 1.37983e-16 0)
(3 6.81773e-17 0)
(3 2.23626e-16 0)
(3 4.40225e-16 0)
(3 9.95587e-16 0)
(3 9.01358e-16 0)
(3 7.85651e-16 0)
(3 1.26347e-16 0)
(3 -4.92143e-17 0)
(3 -2.21298e-16 0)
(3 -8.80422e-16 0)
(3 -4.2093e-16 0)
(3 2.87731e-16 0)
(3 4.6431e-16 0)
(3 1.91135e-16 0)
(3 4.18666e-16 0)
(3 9.52802e-16 0)
(3 9.2849e-16 0)
(3 1.19233e-15 0)
(3 1.72349e-15 0)
(3 1.75094e-15 0)
(3 -2.67813e-16 0)
(3 -3.34427e-16 0)
(3 -1.04997e-16 0)
(3 1.93218e-16 0)
(3 4.00158e-16 0)
(3 4.09419e-16 0)
(3 -2.39113e-16 0)
(3 7.56339e-17 0)
(3 1.11431e-15 0)
(3 1.27184e-15 0)
(3 6.48811e-16 0)
(3 -2.49158e-16 0)
(3 -1.15466e-15 0)
(3 -1.18096e-15 0)
(3 -1.41182e-15 0)
(3 -8.51254e-16 0)
(3 -3.61824e-16 0)
(3 -1.68419e-16 0)
(3 -7.83926e-17 0)
(3 3.61648e-16 0)
(3 1.30077e-15 0)
(3 1.28141e-15 0)
(3 1.42284e-15 0)
(3 1.8061e-15 0)
(3 6.40445e-17 0)
(3 8.02306e-17 0)
(3 -5.89019e-17 0)
(3 -7.64138e-17 0)
(3 1.11656e-16 0)
(3 -4.81101e-16 0)
(3 -1.39728e-15 0)
(3 -1.31705e-15 0)
(3 6.7922e-16 0)
(3 1.71025e-15 0)
(3 1.35786e-15 0)
(3 5.88839e-16 0)
(3 -3.38158e-16 0)
(3 -4.09366e-16 0)
(3 -1.03311e-15 0)
(3 -1.52237e-15 0)
(3 -1.02917e-15 0)
(3 -5.30234e-16 0)
(3 -4.83064e-16 0)
(3 -9.0175e-16 0)
(3 -2.95145e-16 0)
(3 2.60827e-16 0)
(3 4.85855e-16 0)
(3 5.9415e-16 0)
(3 1.58612e-16 0)
(3 1.02518e-16 0)
(3 -6.54419e-17 0)
(3 1.56e-17 0)
(3 -1.12771e-16 0)
(3 -3.9755e-16 0)
(3 -1.34637e-16 0)
(3 -4.01041e-17 0)
(3 3.31164e-16 0)
(3 6.42595e-16 0)
(3 1.4203e-15 0)
(3 1.52511e-15 0)
(3 1.03014e-15 0)
(3 1.53372e-15 0)
(3 4.66244e-16 0)
(3 -6.89255e-16 0)
(3 -5.62487e-16 0)
(3 6.93222e-17 0)
(3 8.6007e-17 0)
(3 -1.61348e-16 0)
(3 -7.6232e-16 0)
(3 -6.63996e-19 0)
(3 6.42117e-16 0)
(3 3.73503e-16 0)
(3 1.50656e-16 0)
(3 1.25217e-16 0)
(3 2.63199e-16 0)
(3 -5.48458e-17 0)
(3 -2.08943e-16 0)
(3 6.46446e-16 0)
(3 1.02823e-15 0)
(3 5.88421e-16 0)
(3 -5.09097e-16 0)
(3 -4.95611e-16 0)
(3 7.90686e-16 0)
(3 1.51037e-15 0)
(3 1.46823e-15 0)
(3 1.37633e-15 0)
(3 -9.38932e-17 0)
(3 -2.82383e-16 0)
(3 1.62671e-16 0)
(3 -2.60932e-16 0)
(3 1.36696e-16 0)
(3 -1.37025e-16 0)
(3 -9.24144e-16 0)
(3 -1.10595e-15 0)
(3 -9.42595e-16 0)
(3 -1.28376e-15 0)
(3 -7.71119e-17 0)
(3 -1.44564e-16 0)
(3 -2.21503e-16 0)
(3 -2.30102e-16 0)
(3 1.06543e-16 0)
(3 1.51674e-16 0)
(3 1.22518e-16 0)
(3 -4.61313e-18 0)
(3 7.02639e-19 0)
(3 6.87307e-17 0)
(3 3.35189e-16 0)
(3 6.12076e-16 0)
(3 6.42049e-16 0)
(3 4.22182e-16 0)
(3 2.26367e-16 0)
(3 -1.79899e-17 0)
(3 2.13932e-16 0)
(3 4.24848e-17 0)
(3 -1.69516e-16 0)
(3 -3.02233e-16 0)
(3 -5.03062e-16 0)
(3 -1.14463e-15 0)
(3 -1.80022e-15 0)
(3 -1.94208e-15 0)
(3 -2.11683e-18 0)
(3 -4.15059e-18 0)
(3 -6.0292e-17 0)
(3 1.94243e-18 0)
(3 -4.30258e-17 0)
(3 -5.30877e-16 0)
(3 -9.24192e-16 0)
(3 -9.64213e-16 0)
(3 -4.86187e-16 0)
(3 -5.44992e-16 0)
(3 -3.72446e-16 0)
(3 2.69759e-16 0)
(3 1.13081e-15 0)
(3 2.18983e-15 0)
(3 2.78933e-15 0)
(3 1.6874e-15 0)
(3 1.2003e-15 0)
(3 2.85341e-16 0)
(3 -5.74518e-17 0)
(3 1.79728e-16 0)
(3 5.1353e-16 0)
(3 8.49372e-17 0)
(3 -8.82646e-17 0)
(3 -6.03272e-16 0)
(3 1.64082e-17 0)
(3 2.82342e-16 0)
(3 2.72463e-16 0)
(3 3.66458e-16 0)
(3 -5.01879e-16 0)
(3 -8.77853e-16 0)
(3 -1.02586e-15 0)
(3 -8.7063e-16 0)
(3 -5.07858e-16 0)
(3 -6.80046e-17 0)
(3 3.88081e-16 0)
(3 1.08069e-15 0)
(3 2.10492e-15 0)
(3 3.61789e-15 0)
(3 3.80645e-15 0)
(3 3.07861e-15 0)
(3 1.91307e-15 0)
(3 5.57069e-16 0)
(3 -6.25765e-16 0)
(3 -1.06673e-15 0)
(3 -6.29001e-16 0)
(3 2.95321e-16 0)
(3 4.09351e-16 0)
(3 2.68973e-16 0)
(3 -9.14639e-17 0)
(3 7.99735e-17 0)
(3 1.90003e-16 0)
(3 7.87581e-17 0)
(3 -1.95705e-16 0)
(3 -2.16554e-16 0)
(3 8.23941e-17 0)
(3 4.07649e-16 0)
(3 4.3294e-16 0)
(3 2.63278e-16 0)
(3 1.29455e-16 0)
(3 -6.89745e-17 0)
(3 5.36179e-16 0)
(3 1.01071e-15 0)
(3 1.2124e-15 0)
(3 1.26861e-15 0)
(3 5.31509e-16 0)
(3 1.0685e-16 0)
(3 1.60946e-16 0)
(3 1.24262e-16 0)
(3 2.48287e-16 0)
(3 6.32586e-16 0)
(3 4.56409e-16 0)
(3 1.82446e-16 0)
(3 -3.20554e-17 0)
(3 -5.7796e-17 0)
(3 -2.47775e-16 0)
(3 -2.49284e-16 0)
(3 1.72787e-16 0)
(3 6.94017e-16 0)
(3 1.22739e-15 0)
(3 1.21198e-15 0)
(3 5.24977e-16 0)
(3 6.6441e-17 0)
(3 -6.36481e-16 0)
(3 -1.57614e-15 0)
(3 -2.27196e-15 0)
(3 -1.67423e-15 0)
(3 -1.39325e-15 0)
(3 -2.18438e-16 0)
(3 3.94926e-16 0)
(3 7.13131e-16 0)
(3 7.29545e-16 0)
(3 2.67666e-16 0)
(3 -6.657e-16 0)
(3 -1.27139e-15 0)
(3 -1.26898e-15 0)
(3 -9.30537e-16 0)
(3 1.11696e-16 0)
(3 1.94823e-16 0)
(3 1.53678e-16 0)
(3 1.6431e-16 0)
(3 5.73229e-16 0)
(3 1.42321e-15 0)
(3 1.86875e-15 0)
(3 1.58343e-15 0)
(3 8.33853e-16 0)
(3 3.82097e-16 0)
(3 -4.63906e-16 0)
(3 -5.48652e-16 0)
(3 -8.06211e-16 0)
(3 -1.03186e-15 0)
(3 -6.28481e-16 0)
(3 -1.08748e-16 0)
(3 9.17838e-16 0)
(3 1.57676e-15 0)
(3 4.84434e-16 0)
(3 7.89167e-17 0)
(3 -1.40382e-15 0)
(3 -1.33805e-15 0)
(3 -1.39888e-15 0)
(3 -1.68867e-15 0)
(3 5.74772e-18 0)
(3 -8.45534e-17 0)
(3 4.14751e-16 0)
(3 2.81128e-16 0)
(3 2.225e-16 0)
(3 1.4773e-16 0)
(3 3.35779e-17 0)
(3 -3.26034e-16 0)
(3 -7.75326e-16 0)
(3 -8.46508e-16 0)
(3 -1.05634e-15 0)
(3 -9.94352e-16 0)
(3 -6.08736e-16 0)
(3 -1.48959e-16 0)
(3 1.37006e-16 0)
(3 3.50253e-16 0)
(3 9.85203e-16 0)
(3 1.06524e-15 0)
(3 7.77127e-16 0)
(3 3.07223e-16 0)
(3 -7.55982e-16 0)
(3 -7.93286e-16 0)
(3 -8.5676e-16 0)
(3 -1.51461e-15 0)
(3 -3.66741e-17 0)
(3 -2.3138e-16 0)
(3 -4.43293e-16 0)
(3 -3.63945e-16 0)
(3 -5.94141e-16 0)
(3 -1.21076e-15 0)
(3 -1.67987e-15 0)
(3 -1.92619e-15 0)
(3 -1.84434e-15 0)
(3 -1.939e-15 0)
(3 -1.15909e-15 0)
(3 -5.98094e-16 0)
(3 -1.97302e-16 0)
(3 1.89384e-16 0)
(3 2.79199e-16 0)
(3 3.05929e-16 0)
(3 2.70955e-16 0)
(3 2.10328e-16 0)
(3 -2.32588e-16 0)
(3 -1.12674e-15 0)
(3 -9.47687e-16 0)
(3 -5.02229e-16 0)
(3 -1.03449e-15 0)
(3 -1.11845e-15 0)
(3 1.12237e-16 0)
(3 9.63132e-17 0)
(3 -1.4511e-16 0)
(3 -2.38636e-16 0)
(3 -1.22756e-15 0)
(3 -1.40654e-15 0)
(3 -1.71091e-15 0)
(3 -1.12042e-15 0)
(3 -1.07877e-15 0)
(3 -9.30781e-16 0)
(3 -6.75623e-16 0)
(3 -3.53451e-16 0)
(3 -2.94754e-16 0)
(3 -8.16271e-16 0)
(3 -6.12564e-16 0)
(3 -4.37726e-16 0)
(3 -1.41225e-15 0)
(3 -1.2885e-15 0)
(3 -8.47268e-16 0)
(3 1.19086e-16 0)
(3 1.15107e-15 0)
(3 1.43819e-15 0)
(3 1.47694e-15 0)
(3 7.69401e-16 0)
(3 -1.5634e-16 0)
(3 -5.76693e-17 0)
(3 4.93818e-17 0)
(3 -2.73331e-16 0)
(3 -5.53717e-16 0)
(3 -2.38972e-16 0)
(3 -7.3896e-16 0)
(3 -3.24195e-16 0)
(3 -5.80025e-17 0)
(3 2.96582e-16 0)
(3 -2.98431e-16 0)
(3 -1.1081e-15 0)
(3 -1.72173e-15 0)
(3 -1.96265e-15 0)
(3 -2.3405e-15 0)
(3 -1.55002e-15 0)
(3 -1.1815e-15 0)
(3 -1.60003e-15 0)
(3 -9.80438e-16 0)
(3 1.08759e-15 0)
(3 2.26278e-15 0)
(3 2.67413e-15 0)
(3 3.00599e-15 0)
(3 1.88381e-15 0)
(3 -1.24765e-16 0)
(3 -3.35919e-18 0)
(3 2.06689e-17 0)
(3 -1.084e-17 0)
(3 5.40088e-16 0)
(3 5.18905e-16 0)
(3 3.77584e-16 0)
(3 6.66077e-16 0)
(3 1.01528e-15 0)
(3 8.37391e-16 0)
(3 4.38884e-16 0)
(3 1.03311e-16 0)
(3 -8.7262e-16 0)
(3 -1.94692e-15 0)
(3 -1.89361e-15 0)
(3 -1.87808e-15 0)
(3 -2.06942e-15 0)
(3 -2.19692e-15 0)
(3 -1.26653e-15 0)
(3 -8.58423e-16 0)
(3 -2.85164e-16 0)
(3 6.56564e-16 0)
(3 1.49021e-15 0)
(3 1.37013e-15 0)
(3 5.3726e-17 0)
(3 -1.07959e-16 0)
(3 -2.54095e-16 0)
(3 9.58987e-18 0)
(3 3.98251e-16 0)
(3 9.35434e-16 0)
(3 1.2643e-15 0)
(3 1.07835e-15 0)
(3 9.02454e-16 0)
(3 5.3377e-16 0)
(3 4.83099e-17 0)
(3 8.63457e-18 0)
(3 -4.14364e-16 0)
(3 -2.31033e-16 0)
(3 -8.50006e-16 0)
(3 -1.9011e-15 0)
(3 -2.2987e-15 0)
(3 -2.48798e-15 0)
(3 -2.07334e-15 0)
(3 -1.76577e-15 0)
(3 -1.04114e-15 0)
(3 -4.49195e-17 0)
(3 7.98544e-16 0)
(3 7.03796e-16 0)
(3 1.55312e-16 0)
(3 2.29602e-16 0)
(3 -1.60956e-17 0)
(3 7.90993e-16 0)
(3 7.95864e-16 0)
(3 1.00645e-15 0)
(3 8.02044e-16 0)
(3 5.89238e-16 0)
(3 -1.61531e-16 0)
(3 -5.03079e-16 0)
(3 -3.82995e-16 0)
(3 -7.77048e-17 0)
(3 6.08527e-16 0)
(3 1.33909e-15 0)
(3 2.86945e-16 0)
(3 -1.14108e-15 0)
(3 -6.75268e-16 0)
(3 -6.43676e-16 0)
(3 -7.94738e-16 0)
(3 -9.9002e-16 0)
(3 -1.16638e-15 0)
(3 -1.44727e-15 0)
(3 -1.07154e-15 0)
(3 -9.32468e-16 0)
(3 1.05106e-16 0)
(3 3.61383e-16 0)
(3 4.69122e-16 0)
(3 4.30742e-16 0)
(3 5.43442e-16 0)
(3 4.94908e-16 0)
(3 5.5164e-16 0)
(3 5.35537e-16 0)
(3 -1.37462e-16 0)
(3 -6.90048e-16 0)
(3 -2.29007e-16 0)
(3 2.29539e-16 0)
(3 1.23813e-15 0)
(3 1.41146e-15 0)
(3 5.53543e-16 0)
(3 3.87732e-16 0)
(3 1.4361e-15 0)
(3 1.60892e-15 0)
(3 6.66933e-16 0)
(3 3.92291e-16 0)
(3 -1.32242e-16 0)
(3 -1.01068e-15 0)
(3 -1.72497e-15 0)
(3 -1.60185e-15 0)
(3 9.05202e-17 0)
(3 5.61425e-17 0)
(3 7.9807e-17 0)
(3 -1.15563e-16 0)
(3 -8.67739e-18 0)
(3 3.62281e-17 0)
(3 2.30707e-16 0)
(3 5.10759e-16 0)
(3 1.86372e-16 0)
(3 -2.75588e-16 0)
(3 -4.89133e-16 0)
(3 -1.06196e-16 0)
(3 6.16002e-16 0)
(3 6.31338e-16 0)
(3 1.05322e-15 0)
(3 1.641e-15 0)
(3 1.71116e-15 0)
(3 1.68952e-15 0)
(3 1.26673e-15 0)
(3 1.14988e-15 0)
(3 1.151e-15 0)
(3 7.78873e-16 0)
(3 2.9059e-16 0)
(3 2.17279e-16 0)
(2.93192 0.0301341 0)
(2.84834 0.0612981 0)
(2.75904 0.135026 0)
(2.66145 0.251435 0)
(2.58505 0.339074 0)
(2.49932 0.444865 0)
(2.41956 0.547735 0)
(2.3523 0.62821 0)
(2.31262 0.722013 0)
(2.25794 0.795611 0)
(2.24797 0.85698 0)
(2.28531 0.883521 0)
(2.328 0.898532 0)
(2.33529 0.889689 0)
(2.3437 0.879281 0)
(2.34559 0.869166 0)
(2.34767 0.855227 0)
(2.34965 0.849918 0)
(2.34631 0.850023 0)
(2.34105 0.850626 0)
(2.33688 0.850686 0)
(2.33598 0.849895 0)
(2.33837 0.849055 0)
(2.33872 0.84911 0)
(2.99849 0.00157474 0)
(2.99017 0.0121514 0)
(2.96265 0.047076 0)
(2.89924 0.133608 0)
(2.80746 0.271203 0)
(2.68023 0.462611 0)
(2.52403 0.689841 0)
(2.39908 0.894496 0)
(2.21708 1.07605 0)
(2.1678 1.09662 0)
(2.13224 1.04169 0)
(2.19821 1.00281 0)
(2.25179 0.947011 0)
(2.29436 0.90094 0)
(2.3299 0.861823 0)
(2.34809 0.834771 0)
(2.35369 0.828328 0)
(2.36136 0.833518 0)
(2.35703 0.841563 0)
(2.35104 0.848535 0)
(2.34433 0.850952 0)
(2.33955 0.852214 0)
(2.33983 0.851078 0)
(2.34039 0.849568 0)
(3 5.50946e-07 0)
(3.00003 1.07826e-05 0)
(3.00001 -7.73998e-05 0)
(2.99983 0.000175228 0)
(2.99866 0.00184322 0)
(2.99124 0.0125796 0)
(2.96472 0.055266 0)
(2.9046 0.165704 0)
(2.75424 0.429121 0)
(2.61316 0.689094 0)
(2.43706 0.852727 0)
(2.33656 0.932986 0)
(2.29127 0.913638 0)
(2.30434 0.894895 0)
(2.31207 0.894519 0)
(2.33665 0.879865 0)
(2.35563 0.850928 0)
(2.36361 0.844116 0)
(2.36317 0.846291 0)
(2.35902 0.847183 0)
(2.35198 0.849003 0)
(2.34738 0.851464 0)
(2.34607 0.851175 0)
(2.34509 0.849935 0)
(3 -1.787e-10 0)
(3 -3.50144e-07 0)
(3 -1.45956e-06 0)
(3 -1.59997e-06 0)
(3.00001 -8.89621e-06 0)
(2.99999 2.34411e-05 0)
(3 -3.78887e-06 0)
(2.99944 0.000808745 0)
(2.98724 0.0214117 0)
(2.91819 0.143821 0)
(2.72281 0.449994 0)
(2.43461 0.792088 0)
(2.36297 0.869198 0)
(2.29788 0.943458 0)
(2.28786 0.945094 0)
(2.30135 0.922034 0)
(2.32525 0.885645 0)
(2.3492 0.852724 0)
(2.36029 0.840552 0)
(2.36322 0.836159 0)
(2.36232 0.838298 0)
(2.36021 0.841518 0)
(2.35647 0.846109 0)
(2.35214 0.848242 0)
(3 -6.08696e-11 0)
(3 1.00944e-09 0)
(3 -4.88337e-08 0)
(3 -1.44395e-07 0)
(3 -7.42473e-07 0)
(3 -6.9059e-07 0)
(3 -3.0705e-06 0)
(3 -4.91402e-06 0)
(3.00004 -8.41138e-05 0)
(2.99941 0.000780684 0)
(2.98377 0.0212104 0)
(2.86613 0.172478 0)
(2.69955 0.43781 0)
(2.35833 0.825009 0)
(2.32833 0.86243 0)
(2.30398 0.885321 0)
(2.30731 0.88095 0)
(2.3136 0.874752 0)
(2.33923 0.860327 0)
(2.35626 0.848138 0)
(2.36187 0.844667 0)
(2.36153 0.840938 0)
(2.36008 0.84231 0)
(2.35403 0.849758 0)
(3 -1.28428e-12 0)
(3 6.5242e-11 0)
(3 3.27493e-10 0)
(3 -1.45896e-09 0)
(3 -1.9431e-09 0)
(3 -3.60885e-08 0)
(3 -6.67579e-08 0)
(3 -3.20773e-07 0)
(3 -6.07937e-06 0)
(3 -5.72339e-06 0)
(3.00003 -6.81142e-05 0)
(2.99868 0.00187994 0)
(2.97699 0.0313142 0)
(2.78396 0.263806 0)
(2.61633 0.512464 0)
(2.37507 0.796764 0)
(2.25711 0.924419 0)
(2.26987 0.904955 0)
(2.30411 0.876956 0)
(2.32062 0.868282 0)
(2.33776 0.85923 0)
(2.34785 0.849682 0)
(2.35228 0.842521 0)
(2.3507 0.842346 0)
(3 4.37795e-15 0)
(3 -3.10375e-14 0)
(3 2.76935e-11 0)
(3 2.3919e-11 0)
(3 2.82136e-11 0)
(3 -6.59187e-11 0)
(3 -5.47683e-10 0)
(3 -6.26573e-10 0)
(3 -1.96232e-08 0)
(3 -2.96895e-07 0)
(3 -6.47079e-06 0)
(3.00001 -3.8775e-06 0)
(3.00001 -4.68803e-05 0)
(2.99451 0.00780021 0)
(2.95483 0.0647196 0)
(2.70494 0.373285 0)
(2.49536 0.644943 0)
(2.3998 0.775384 0)
(2.31486 0.850465 0)
(2.29204 0.865725 0)
(2.31061 0.861389 0)
(2.32766 0.845664 0)
(2.33664 0.841368 0)
(2.34063 0.842657 0)
(3 9.99826e-16 0)
(3 3.58389e-15 0)
(3 5.33504e-14 0)
(3 1.92406e-12 0)
(3 4.77915e-12 0)
(3 4.00848e-12 0)
(3 2.28445e-12 0)
(3 2.59153e-12 0)
(3 1.21758e-10 0)
(3 -1.14015e-09 0)
(3 -1.36449e-08 0)
(3 -8.13363e-07 0)
(3 -3.1003e-06 0)
(3.00001 -2.00177e-05 0)
(2.99973 0.000392039 0)
(2.98298 0.0230957 0)
(2.89814 0.144102 0)
(2.61043 0.524476 0)
(2.36912 0.79933 0)
(2.34197 0.812247 0)
(2.31444 0.839735 0)
(2.31561 0.839567 0)
(2.32577 0.839634 0)
(2.33346 0.840336 0)
(3 -7.72909e-16 0)
(3 -6.01661e-16 0)
(3 -9.95856e-16 0)
(3 2.74718e-15 0)
(3 4.41487e-14 0)
(3 3.8855e-13 0)
(3 5.93324e-13 0)
(3 1.14682e-12 0)
(3 8.05774e-12 0)
(3 1.55338e-11 0)
(3 4.87536e-11 0)
(3 -1.92803e-08 0)
(3 -5.19107e-08 0)
(3 -3.2094e-06 0)
(3 -4.63139e-06 0)
(2.99999 2.29045e-05 0)
(2.99801 0.00349583 0)
(2.94256 0.0787451 0)
(2.78009 0.305022 0)
(2.52227 0.634841 0)
(2.31287 0.888164 0)
(2.29223 0.856801 0)
(2.31847 0.845575 0)
(2.32239 0.846336 0)
(3 1.01152e-15 0)
(3 1.16492e-15 0)
(3 -6.7219e-17 0)
(3 3.08236e-16 0)
(3 -4.00529e-16 0)
(3 -5.67171e-16 0)
(3 1.30548e-14 0)
(3 1.05122e-13 0)
(3 2.29827e-13 0)
(3 3.26386e-12 0)
(3 4.82443e-12 0)
(3 7.41661e-11 0)
(3 -5.09923e-10 0)
(3 -3.17347e-08 0)
(3 -8.25292e-07 0)
(3 -7.06808e-07 0)
(3 -1.13947e-05 0)
(2.99933 0.00107685 0)
(2.98643 0.0244864 0)
(2.86818 0.190727 0)
(2.58083 0.566811 0)
(2.46774 0.708216 0)
(2.35494 0.828942 0)
(2.32055 0.859751 0)
(3 6.03816e-16 0)
(3 9.11467e-16 0)
(3 1.05125e-15 0)
(3 9.14984e-16 0)
(3 -6.24087e-16 0)
(3 -1.27665e-15 0)
(3 -1.16005e-15 0)
(3 4.70481e-16 0)
(3 3.35266e-15 0)
(3 3.40137e-14 0)
(3 3.25968e-13 0)
(3 1.61935e-11 0)
(3 1.64398e-11 0)
(3 2.00112e-10 0)
(3 -1.05446e-08 0)
(3 -8.00037e-08 0)
(3 -1.58492e-06 0)
(3 -6.06346e-06 0)
(2.99995 8.96482e-05 0)
(2.99441 0.00926837 0)
(2.92415 0.111821 0)
(2.75392 0.393797 0)
(2.42707 0.781991 0)
(2.36555 0.825176 0)
(3 -1.82313e-16 0)
(3 5.50525e-17 0)
(3 7.20767e-16 0)
(3 1.26924e-15 0)
(3 1.22879e-15 0)
(3 2.89849e-16 0)
(3 -9.74727e-16 0)
(3 -1.57334e-15 0)
(3 -1.27908e-15 0)
(3 -3.85031e-16 0)
(3 3.31563e-15 0)
(3 4.78455e-13 0)
(3 3.16169e-12 0)
(3 2.67208e-11 0)
(3 7.62581e-11 0)
(3 -1.8003e-09 0)
(3 -2.83678e-08 0)
(3 -1.67474e-06 0)
(3 -1.30069e-06 0)
(3 -4.67482e-06 0)
(2.99815 0.00367427 0)
(2.97065 0.0523979 0)
(2.77108 0.333754 0)
(2.5104 0.66358 0)
(3 8.18603e-16 0)
(3 5.35774e-16 0)
(3 3.06246e-16 0)
(3 9.45513e-17 0)
(3 1.91052e-16 0)
(3 7.21517e-16 0)
(3 9.96188e-16 0)
(3 9.13085e-16 0)
(3 2.41228e-16 0)
(3 -2.94137e-16 0)
(3 -3.31571e-16 0)
(3 -3.83527e-16 0)
(3 4.53782e-14 0)
(3 1.21611e-12 0)
(3 1.58888e-11 0)
(3 1.22755e-11 0)
(3 -2.76662e-11 0)
(3 -3.08884e-08 0)
(3 -4.57305e-07 0)
(3 -3.51056e-07 0)
(3 -3.1871e-06 0)
(2.99943 0.00110034 0)
(2.97382 0.0444171 0)
(2.88291 0.202108 0)
(3 1.39182e-15 0)
(3 6.12171e-16 0)
(3 5.22594e-16 0)
(3 3.05719e-18 0)
(3 -4.95049e-16 0)
(3 3.17193e-16 0)
(3 1.77047e-15 0)
(3 1.62499e-15 0)
(3 5.25015e-16 0)
(3 -5.16146e-17 0)
(3 -2.47713e-16 0)
(3 -6.90903e-16 0)
(3 -7.7872e-16 0)
(3 8.34907e-16 0)
(3 6.06607e-13 0)
(3 3.01242e-12 0)
(3 3.15223e-12 0)
(3 8.63354e-11 0)
(3 -1.53562e-08 0)
(3 -8.67076e-08 0)
(3 -5.39987e-07 0)
(3 -1.7762e-06 0)
(2.99951 0.00104384 0)
(2.99491 0.0131077 0)
(3 1.22799e-15 0)
(3 1.4981e-15 0)
(3 1.10209e-15 0)
(3 7.16566e-16 0)
(3 9.64656e-16 0)
(3 1.32636e-15 0)
(3 9.26563e-16 0)
(3 7.24421e-16 0)
(3 1.4066e-15 0)
(3 1.74932e-15 0)
(3 1.78534e-15 0)
(3 1.71731e-15 0)
(3 1.78778e-15 0)
(3 1.30079e-15 0)
(3 3.89881e-15 0)
(3 1.1734e-13 0)
(3 2.67007e-12 0)
(3 1.45916e-11 0)
(3 -2.5953e-11 0)
(3 -7.01892e-09 0)
(3 -7.07626e-08 0)
(3 -3.85853e-07 0)
(3 8.78704e-06 0)
(3.00002 -6.62758e-05 0)
(3 7.70667e-16 0)
(3 2.615e-16 0)
(3 3.25867e-16 0)
(3 9.77344e-16 0)
(3 1.49518e-15 0)
(3 5.05247e-16 0)
(3 -2.05361e-17 0)
(3 9.09784e-17 0)
(3 1.28831e-15 0)
(3 1.46588e-15 0)
(3 2.0093e-15 0)
(3 2.10725e-15 0)
(3 2.83822e-15 0)
(3 2.25074e-15 0)
(3 1.03286e-15 0)
(3 2.68227e-15 0)
(3 3.94685e-14 0)
(3 1.52963e-12 0)
(3 6.73709e-13 0)
(3 -1.41254e-10 0)
(3 -2.65616e-09 0)
(3 -1.06814e-07 0)
(3 -8.76016e-08 0)
(3 -2.9756e-06 0)
(3 -1.29433e-15 0)
(3 -1.52305e-15 0)
(3 -1.15039e-15 0)
(3 6.03813e-16 0)
(3 2.83796e-16 0)
(3 -5.62122e-16 0)
(3 -9.36895e-16 0)
(3 3.0107e-16 0)
(3 7.33384e-16 0)
(3 8.80501e-16 0)
(3 4.95682e-16 0)
(3 6.63923e-16 0)
(3 1.58485e-15 0)
(3 1.9256e-15 0)
(3 8.70146e-16 0)
(3 -2.08847e-15 0)
(3 -7.29124e-14 0)
(3 -1.72063e-12 0)
(3 -1.01561e-12 0)
(3 8.94797e-11 0)
(3 1.88429e-09 0)
(3 1.2281e-07 0)
(3 3.47638e-08 0)
(3 4.56138e-06 0)
(3 -2.01269e-15 0)
(3 -3.98327e-16 0)
(3 -3.92385e-16 0)
(3 -4.44028e-16 0)
(3 -4.2619e-16 0)
(3 -3.87848e-16 0)
(3 9.90407e-16 0)
(3 1.44482e-15 0)
(3 1.12942e-15 0)
(3 1.1586e-15 0)
(3 4.8374e-16 0)
(3 1.07125e-16 0)
(3 1.65645e-16 0)
(3 1.33205e-15 0)
(3 -1.85084e-15 0)
(3 -1.13908e-13 0)
(3 -2.71362e-12 0)
(3 -1.5229e-11 0)
(3 1.88451e-11 0)
(3 7.09602e-09 0)
(3 5.82321e-08 0)
(3 3.48286e-07 0)
(3 -9.47903e-06 0)
(2.99999 2.62459e-05 0)
(3 -1.02116e-15 0)
(3 -1.08232e-15 0)
(3 -8.51458e-16 0)
(3 -2.02185e-16 0)
(3 1.26389e-15 0)
(3 2.56605e-15 0)
(3 1.64742e-15 0)
(3 1.47218e-15 0)
(3 1.6438e-15 0)
(3 1.40007e-15 0)
(3 1.18469e-15 0)
(3 8.58185e-16 0)
(3 -5.31732e-16 0)
(3 -1.29474e-15 0)
(3 -6.14777e-13 0)
(3 -2.94975e-12 0)
(3 -3.92768e-12 0)
(3 -9.08193e-11 0)
(3 1.51564e-08 0)
(3 9.05082e-08 0)
(3 4.5773e-07 0)
(3 1.56172e-06 0)
(2.99948 -0.00109341 0)
(2.99501 -0.0131532 0)
(3 2.4519e-16 0)
(3 4.34074e-16 0)
(3 1.17392e-15 0)
(3 2.3712e-15 0)
(3 3.49349e-15 0)
(3 3.03333e-15 0)
(3 1.88514e-15 0)
(3 2.12027e-15 0)
(3 2.44835e-15 0)
(3 1.04542e-15 0)
(3 6.3392e-16 0)
(3 -6.22345e-16 0)
(3 -4.71034e-14 0)
(3 -1.21469e-12 0)
(3 -1.58936e-11 0)
(3 -1.18867e-11 0)
(3 2.62867e-11 0)
(3 3.13128e-08 0)
(3 4.52171e-07 0)
(3 3.51688e-07 0)
(3 2.38994e-06 0)
(2.99946 -0.00104844 0)
(2.97269 -0.0457143 0)
(2.88841 -0.19968 0)
(3 2.31341e-16 0)
(3 1.4112e-15 0)
(3 2.7696e-15 0)
(3 2.9801e-15 0)
(3 2.55541e-15 0)
(3 2.52657e-15 0)
(3 2.81189e-15 0)
(3 1.85412e-15 0)
(3 1.35863e-15 0)
(3 1.04371e-15 0)
(3 -3.58731e-15 0)
(3 -4.79739e-13 0)
(3 -3.16614e-12 0)
(3 -2.66525e-11 0)
(3 -7.62963e-11 0)
(3 1.80466e-09 0)
(3 2.83015e-08 0)
(3 1.68063e-06 0)
(3 1.2945e-06 0)
(3 5.43538e-06 0)
(2.99814 -0.00374627 0)
(2.97206 -0.0506934 0)
(2.76104 -0.344305 0)
(2.52633 -0.647558 0)
(3 -6.26855e-16 0)
(3 6.41466e-16 0)
(3 8.16008e-16 0)
(3 1.58059e-15 0)
(3 2.13138e-15 0)
(3 3.01566e-15 0)
(3 2.34205e-15 0)
(3 -7.54153e-16 0)
(3 -4.92932e-15 0)
(3 -3.54674e-14 0)
(3 -3.25482e-13 0)
(3 -1.61955e-11 0)
(3 -1.64396e-11 0)
(3 -1.99756e-10 0)
(3 1.05411e-08 0)
(3 8.01003e-08 0)
(3 1.5834e-06 0)
(3 6.06453e-06 0)
(2.99995 -8.96398e-05 0)
(2.99442 -0.0092618 0)
(2.92397 -0.112062 0)
(2.75553 -0.393077 0)
(2.42495 -0.785539 0)
(2.3681 -0.821601 0)
(3 1.70681e-16 0)
(3 6.46756e-16 0)
(3 1.40623e-15 0)
(3 1.25573e-15 0)
(3 1.8434e-15 0)
(3 7.55628e-16 0)
(3 -1.35562e-14 0)
(3 -1.05108e-13 0)
(3 -2.31349e-13 0)
(3 -3.26931e-12 0)
(3 -4.82478e-12 0)
(3 -7.43147e-11 0)
(3 5.12046e-10 0)
(3 3.17118e-08 0)
(3 8.25584e-07 0)
(3 7.07017e-07 0)
(3 1.13823e-05 0)
(2.99933 -0.00107611 0)
(2.98642 -0.0244969 0)
(2.86829 -0.190634 0)
(2.5807 -0.567041 0)
(2.4678 -0.708288 0)
(2.35482 -0.828813 0)
(2.32119 -0.859519 0)
(3 -1.06829e-15 0)
(3 -2.04023e-15 0)
(3 9.23162e-16 0)
(3 -3.73319e-15 0)
(3 -4.52769e-14 0)
(3 -3.90004e-13 0)
(3 -5.93824e-13 0)
(3 -1.14804e-12 0)
(3 -8.05821e-12 0)
(3 -1.55393e-11 0)
(3 -4.87687e-11 0)
(3 1.92731e-08 0)
(3 5.19432e-08 0)
(3 3.20832e-06 0)
(3 4.63382e-06 0)
(2.99999 -2.29397e-05 0)
(2.99802 -0.00349558 0)
(2.94256 -0.0787445 0)
(2.78 -0.305077 0)
(2.52254 -0.634642 0)
(2.31286 -0.88836 0)
(2.29201 -0.856943 0)
(2.3184 -0.845493 0)
(2.32262 -0.846325 0)
(3 -3.26631e-15 0)
(3 -6.05103e-15 0)
(3 -5.6738e-14 0)
(3 -1.92971e-12 0)
(3 -4.78713e-12 0)
(3 -4.01831e-12 0)
(3 -2.2902e-12 0)
(3 -2.59587e-12 0)
(3 -1.21767e-10 0)
(3 1.13996e-09 0)
(3 1.36486e-08 0)
(3 8.13338e-07 0)
(3 3.10024e-06 0)
(3.00001 2.00141e-05 0)
(2.99973 -0.000391954 0)
(2.98298 -0.0230989 0)
(2.89818 -0.144077 0)
(2.61035 -0.524564 0)
(2.36914 -0.799278 0)
(2.34206 -0.812205 0)
(2.31444 -0.839744 0)
(2.31557 -0.839603 0)
(2.32573 -0.839611 0)
(2.3335 -0.84033 0)
(3 -3.35865e-15 0)
(3 3.09643e-14 0)
(3 -2.76932e-11 0)
(3 -2.39183e-11 0)
(3 -2.82147e-11 0)
(3 6.59178e-11 0)
(3 5.47684e-10 0)
(3 6.26452e-10 0)
(3 1.96233e-08 0)
(3 2.96902e-07 0)
(3 6.4709e-06 0)
(3.00001 3.87784e-06 0)
(3.00001 4.68763e-05 0)
(2.99451 -0.00780032 0)
(2.95483 -0.0647171 0)
(2.70492 -0.373299 0)
(2.49539 -0.644916 0)
(2.39979 -0.775416 0)
(2.31483 -0.850451 0)
(2.29206 -0.865722 0)
(2.31062 -0.86139 0)
(2.32766 -0.845679 0)
(2.33663 -0.841355 0)
(2.34063 -0.842644 0)
(3 1.28714e-12 0)
(3 -6.52392e-11 0)
(3 -3.2749e-10 0)
(3 1.45896e-09 0)
(3 1.94308e-09 0)
(3 3.60885e-08 0)
(3 6.67573e-08 0)
(3 3.20772e-07 0)
(3 6.07938e-06 0)
(3 5.72339e-06 0)
(3.00003 6.8117e-05 0)
(2.99868 -0.00187997 0)
(2.97699 -0.0313141 0)
(2.78396 -0.263805 0)
(2.61632 -0.512468 0)
(2.37508 -0.796757 0)
(2.25711 -0.924408 0)
(2.26987 -0.904959 0)
(2.30411 -0.876965 0)
(2.32061 -0.868282 0)
(2.33776 -0.859229 0)
(2.34785 -0.849684 0)
(2.35228 -0.842518 0)
(2.3507 -0.842342 0)
(3 6.08713e-11 0)
(3 -1.00943e-09 0)
(3 4.88329e-08 0)
(3 1.44395e-07 0)
(3 7.42471e-07 0)
(3 6.90588e-07 0)
(3 3.07047e-06 0)
(3 4.914e-06 0)
(3.00004 8.41147e-05 0)
(2.99941 -0.000780691 0)
(2.98377 -0.0212103 0)
(2.86613 -0.172479 0)
(2.69955 -0.437809 0)
(2.35833 -0.825009 0)
(2.32833 -0.862432 0)
(2.30398 -0.88532 0)
(2.30731 -0.880949 0)
(2.31359 -0.874753 0)
(2.33923 -0.860327 0)
(2.35625 -0.848138 0)
(2.36187 -0.844661 0)
(2.36153 -0.84094 0)
(2.36007 -0.842312 0)
(2.35402 -0.849759 0)
(3 1.78698e-10 0)
(3 3.50141e-07 0)
(3 1.45956e-06 0)
(3 1.59997e-06 0)
(3.00001 8.8962e-06 0)
(2.99999 -2.34411e-05 0)
(3 3.78837e-06 0)
(2.99944 -0.000808745 0)
(2.98724 -0.0214117 0)
(2.91819 -0.143821 0)
(2.72281 -0.449993 0)
(2.43461 -0.792089 0)
(2.36297 -0.869198 0)
(2.29788 -0.943458 0)
(2.28786 -0.945094 0)
(2.30135 -0.922034 0)
(2.32526 -0.885643 0)
(2.3492 -0.852727 0)
(2.36029 -0.840551 0)
(2.36322 -0.836157 0)
(2.36232 -0.838296 0)
(2.36021 -0.841519 0)
(2.35647 -0.84611 0)
(2.35213 -0.848241 0)
(3 -5.50946e-07 0)
(3.00003 -1.07826e-05 0)
(3.00001 7.73996e-05 0)
(2.99983 -0.000175228 0)
(2.99866 -0.00184322 0)
(2.99124 -0.0125796 0)
(2.96472 -0.055266 0)
(2.9046 -0.165704 0)
(2.75424 -0.429121 0)
(2.61316 -0.689094 0)
(2.43706 -0.852727 0)
(2.33656 -0.932986 0)
(2.29127 -0.913638 0)
(2.30434 -0.894895 0)
(2.31207 -0.894519 0)
(2.33665 -0.879866 0)
(2.35563 -0.850927 0)
(2.36361 -0.844117 0)
(2.36317 -0.846291 0)
(2.35902 -0.847183 0)
(2.35198 -0.849002 0)
(2.34738 -0.851465 0)
(2.34607 -0.851175 0)
(2.34509 -0.849935 0)
(2.99849 -0.00157474 0)
(2.99017 -0.0121514 0)
(2.96265 -0.047076 0)
(2.89924 -0.133608 0)
(2.80746 -0.271203 0)
(2.68023 -0.462611 0)
(2.52403 -0.689841 0)
(2.39908 -0.894495 0)
(2.21708 -1.07605 0)
(2.1678 -1.09662 0)
(2.13224 -1.04169 0)
(2.1982 -1.00281 0)
(2.25179 -0.947011 0)
(2.29436 -0.90094 0)
(2.3299 -0.861823 0)
(2.34809 -0.834771 0)
(2.35369 -0.828327 0)
(2.36136 -0.833518 0)
(2.35703 -0.841562 0)
(2.35104 -0.848535 0)
(2.34433 -0.850952 0)
(2.33955 -0.852214 0)
(2.33982 -0.851079 0)
(2.34039 -0.849567 0)
(2.93192 -0.030134 0)
(2.84834 -0.0612983 0)
(2.75904 -0.135026 0)
(2.66145 -0.251435 0)
(2.58505 -0.339074 0)
(2.49932 -0.444865 0)
(2.41956 -0.547735 0)
(2.3523 -0.62821 0)
(2.31262 -0.722013 0)
(2.25794 -0.795611 0)
(2.24797 -0.85698 0)
(2.28531 -0.883521 0)
(2.328 -0.898532 0)
(2.33529 -0.88969 0)
(2.3437 -0.879281 0)
(2.34559 -0.869166 0)
(2.34767 -0.855227 0)
(2.34965 -0.849919 0)
(2.34631 -0.850023 0)
(2.34105 -0.850626 0)
(2.33688 -0.850686 0)