/*--------------------------------*- C++ -*----------------------------------*\
  =========                 |
  \\      /  F ield         | OpenFOAM: The Open Source CFD Toolbox
   \\    /   O peration     | Website:  https://openfoam.org
    \\  /    A nd           | Version:  7
     \\/     M anipulation  |
\*---------------------------------------------------------------------------*/
FoamFile
{
    version     2.0;
    format      ascii;
    class       volVectorField;
    location    "1.6";
    object      U;
}
// * * * * * * * * * * * * * * * * * * * * * * * * * * * * * * * * * * * * * //

dimensions      [0 1 -1 0 0 0 0];

internalField   nonuniform List<vector> 
73728
(
(3 -6.2836e-18 0)
(3 -4.19867e-17 0)
(3 -1.32934e-16 0)
(3 -1.83988e-16 0)
(3 -1.30235e-16 0)
(3 2.55579e-16 0)
(3 2.6963e-16 0)
(3 2.58657e-16 0)
(3 1.07452e-16 0)
(3 -1.95557e-16 0)
(3 -7.61746e-16 0)
(3 -4.30152e-16 0)
(3 1.06409e-16 0)
(3 3.13894e-16 0)
(3 3.27155e-16 0)
(3 -3.66138e-16 0)
(3 -4.41002e-16 0)
(3 2.42307e-17 0)
(3 2.78975e-17 0)
(3 7.01069e-16 0)
(3 5.65949e-16 0)
(3 5.42934e-16 0)
(3 7.82175e-16 0)
(3 8.47157e-16 0)
(3 4.81706e-16 0)
(3 1.7177e-16 0)
(3 -1.01579e-16 0)
(3 -4.55868e-17 0)
(3 -9.37657e-17 0)
(3 -1.67033e-16 0)
(3 -1.31873e-16 0)
(3 1.2531e-16 0)
(3 -2.76527e-16 0)
(3 -9.22734e-16 0)
(3 -1.77406e-15 0)
(3 -2.36057e-15 0)
(3 -2.52285e-15 0)
(3 -2.47534e-15 0)
(3 -2.32723e-15 0)
(3 -1.93769e-15 0)
(3 -1.3087e-15 0)
(3 -9.11368e-16 0)
(3 -1.01102e-15 0)
(3 -1.75836e-15 0)
(3 -1.98926e-15 0)
(3 -1.92317e-15 0)
(3 -1.32951e-15 0)
(3 -1.05759e-15 0)
(3 -7.53149e-16 0)
(3 -1.39411e-16 0)
(3 -2.54411e-16 0)
(3 1.6085e-16 0)
(3 1.67311e-16 0)
(3 1.28255e-16 0)
(3 1.41184e-16 0)
(3 4.95445e-16 0)
(3 1.06709e-15 0)
(3 1.11461e-15 0)
(3 1.84082e-15 0)
(3 2.17386e-15 0)
(3 1.86474e-15 0)
(3 1.65811e-15 0)
(3 2.12313e-15 0)
(3 2.30435e-15 0)
(3 3.07235e-15 0)
(3 3.18048e-15 0)
(3 2.20379e-15 0)
(3 1.06172e-15 0)
(3 4.89542e-16 0)
(3 -3.53764e-16 0)
(3 -5.32783e-16 0)
(3 -3.22648e-16 0)
(3 -8.85183e-16 0)
(3 -4.43778e-16 0)
(3 -3.86108e-17 0)
(3 -3.1623e-16 0)
(3 1.18835e-15 0)
(3 1.70284e-15 0)
(3 2.24783e-15 0)
(3 2.6568e-15 0)
(3 2.12505e-15 0)
(3 1.59124e-15 0)
(3 8.61221e-16 0)
(3 4.41538e-16 0)
(3 -3.62502e-16 0)
(3 -7.80527e-16 0)
(3 -9.09073e-16 0)
(3 -1.42301e-15 0)
(3 -2.45074e-15 0)
(3 -2.91918e-15 0)
(3 -2.05578e-15 0)
(3 -1.37245e-15 0)
(3 -1.56192e-15 0)
(3 -1.54334e-15 0)
(3 -1.52277e-15 0)
(3 -1.3087e-15 0)
(3 -8.6142e-17 0)
(3 -4.58074e-16 0)
(3 -7.90821e-16 0)
(3 -1.21846e-15 0)
(3 -1.31292e-15 0)
(3 -6.21097e-16 0)
(3 1.47764e-16 0)
(3 4.6502e-16 0)
(3 -1.69308e-16 0)
(3 -3.74589e-16 0)
(3 -6.30628e-16 0)
(3 -5.86814e-17 0)
(3 1.30276e-15 0)
(3 1.67084e-15 0)
(3 1.27272e-15 0)
(3 4.41255e-16 0)
(3 1.09149e-15 0)
(3 1.64547e-15 0)
(3 2.79837e-16 0)
(3 -9.26879e-16 0)
(3 -1.31681e-15 0)
(3 -1.51447e-15 0)
(3 6.66463e-16 0)
(3 1.27781e-15 0)
(3 9.39724e-16 0)
(3 -1.07359e-16 0)
(3 -9.91287e-16 0)
(3 -1.31058e-15 0)
(3 -1.70339e-15 0)
(3 -2.41294e-15 0)
(3 -1.86284e-15 0)
(3 -1.17751e-15 0)
(3 -1.217e-15 0)
(3 -1.68984e-15 0)
(3 -2.11547e-15 0)
(3 -2.73447e-15 0)
(3 -3.58891e-15 0)
(3 -5.50966e-15 0)
(3 -4.75345e-15 0)
(3 -2.89397e-15 0)
(3 -8.46758e-16 0)
(3 6.8363e-16 0)
(3 1.84417e-16 0)
(3 -3.17884e-15 0)
(3 -4.32909e-15 0)
(3 -4.20449e-15 0)
(3 -2.16578e-15 0)
(3 -1.2686e-15 0)
(3 2.55965e-16 0)
(3 3.40893e-16 0)
(3 3.00588e-16 0)
(3 2.95205e-18 0)
(3 3.32889e-16 0)
(3 8.94163e-16 0)
(3 1.57642e-15 0)
(3 1.6156e-15 0)
(3 1.08278e-15 0)
(3 3.5484e-16 0)
(3 6.30996e-16 0)
(3 4.38321e-16 0)
(3 -2.66146e-16 0)
(3 -1.25332e-15 0)
(3 -1.13311e-15 0)
(3 -7.25841e-16 0)
(3 -6.07239e-17 0)
(3 2.74086e-16 0)
(3 9.7702e-16 0)
(3 1.41765e-15 0)
(3 9.49855e-16 0)
(3 -2.21826e-16 0)
(3 -8.86482e-16 0)
(3 -1.14385e-15 0)
(3 -1.20948e-15 0)
(3 5.58608e-16 0)
(3 1.12212e-15 0)
(3 9.51359e-16 0)
(3 1.25953e-15 0)
(3 6.63813e-16 0)
(3 8.0303e-16 0)
(3 2.1401e-15 0)
(3 1.39442e-15 0)
(3 -1.40497e-15 0)
(3 -2.78083e-15 0)
(3 -2.15458e-15 0)
(3 -2.23995e-15 0)
(3 -1.8422e-15 0)
(3 -1.90897e-15 0)
(3 -1.73671e-15 0)
(3 -2.71264e-15 0)
(3 -3.1063e-15 0)
(3 -2.31041e-15 0)
(3 -2.07384e-15 0)
(3 -1.39848e-15 0)
(3 -1.05954e-15 0)
(3 -9.73247e-16 0)
(3 -9.07188e-16 0)
(3 -9.53447e-19 0)
(3 6.78949e-17 0)
(3 -1.31862e-16 0)
(3 -5.41747e-16 0)
(3 -1.6252e-16 0)
(3 -2.5827e-17 0)
(3 6.0714e-16 0)
(3 5.92836e-16 0)
(3 4.8336e-16 0)
(3 1.88541e-16 0)
(3 -3.86885e-16 0)
(3 -4.38749e-16 0)
(3 6.22526e-16 0)
(3 1.46851e-15 0)
(3 1.99349e-15 0)
(3 2.07071e-15 0)
(3 3.92103e-15 0)
(3 4.23596e-15 0)
(3 4.40283e-15 0)
(3 3.12752e-15 0)
(3 2.83746e-15 0)
(3 2.30716e-15 0)
(3 2.13701e-15 0)
(3 1.32902e-15 0)
(3 7.04698e-16 0)
(3 -6.15934e-17 0)
(3 -2.1704e-15 0)
(3 -4.11372e-15 0)
(3 -4.76773e-15 0)
(3 -4.82441e-15 0)
(3 -4.08694e-15 0)
(3 -3.1287e-15 0)
(3 -2.43088e-15 0)
(3 -3.10773e-15 0)
(3 -5.37499e-15 0)
(3 -7.18786e-15 0)
(3 -7.60385e-15 0)
(3 -6.36177e-15 0)
(3 -3.761e-15 0)
(3 -2.64589e-15 0)
(3 -2.03847e-15 0)
(3 -1.19988e-15 0)
(3 -1.0364e-15 0)
(3 -2.24492e-15 0)
(3 -4.24048e-15 0)
(3 -3.98898e-15 0)
(3 -2.61131e-15 0)
(3 -1.33973e-15 0)
(3 -1.33823e-15 0)
(3 -7.79937e-16 0)
(3 -4.6417e-17 0)
(3 -1.26248e-15 0)
(3 -4.50213e-16 0)
(3 1.04115e-15 0)
(3 2.61409e-15 0)
(3 2.49245e-15 0)
(3 1.36363e-15 0)
(3 7.31703e-16 0)
(3 -8.45789e-17 0)
(3 -1.41882e-15 0)
(3 -2.55539e-15 0)
(3 -2.34807e-15 0)
(3 -2.97842e-15 0)
(3 -2.96818e-15 0)
(3 -3.76345e-15 0)
(3 -2.59605e-15 0)
(3 -5.55724e-16 0)
(3 1.50343e-15 0)
(3 3.63422e-15 0)
(3 3.15966e-15 0)
(3 1.32239e-16 0)
(3 -2.0506e-15 0)
(3 -4.75279e-16 0)
(3 8.13726e-16 0)
(3 2.48975e-16 0)
(3 8.09625e-16 0)
(3 1.28507e-15 0)
(3 1.24239e-15 0)
(3 9.46572e-16 0)
(3 3.8084e-16 0)
(3 6.54824e-16 0)
(3 -9.80041e-17 0)
(3 -2.74377e-15 0)
(3 -3.10986e-15 0)
(3 -3.60673e-15 0)
(3 -3.93611e-15 0)
(3 -3.27766e-15 0)
(3 -2.27614e-15 0)
(3 -3.5923e-15 0)
(3 -3.59958e-15 0)
(3 -3.72118e-15 0)
(3 -3.39296e-15 0)
(3 -2.46816e-15 0)
(3 -2.28912e-15 0)
(3 -1.82557e-15 0)
(3 -6.19256e-16 0)
(3 1.59952e-16 0)
(3 2.28882e-16 0)
(3 4.58444e-16 0)
(3 9.82744e-16 0)
(3 1.18072e-15 0)
(3 1.10811e-15 0)
(3 2.74205e-16 0)
(3 2.04678e-17 0)
(3 3.65804e-16 0)
(3 3.61881e-16 0)
(3 -7.15389e-17 0)
(3 -1.91558e-17 0)
(3 3.88897e-16 0)
(3 8.48852e-16 0)
(3 2.47838e-15 0)
(3 2.93246e-15 0)
(3 4.36048e-15 0)
(3 4.71456e-15 0)
(3 4.55586e-15 0)
(3 3.80702e-15 0)
(3 2.95373e-15 0)
(3 2.00475e-15 0)
(3 1.71312e-15 0)
(3 8.45513e-16 0)
(3 9.33917e-16 0)
(3 4.72241e-16 0)
(3 -4.37561e-16 0)
(3 -1.76745e-15 0)
(3 -4.13674e-15 0)
(3 -4.34014e-15 0)
(3 -4.29832e-15 0)
(3 -4.48631e-15 0)
(3 -3.44944e-15 0)
(3 -4.27909e-15 0)
(3 -5.62535e-15 0)
(3 -7.65819e-15 0)
(3 -8.44517e-15 0)
(3 -6.11392e-15 0)
(3 -4.54568e-15 0)
(3 -4.29091e-15 0)
(3 -3.5538e-15 0)
(3 -2.17749e-15 0)
(3 -7.24214e-16 0)
(3 -8.07806e-16 0)
(3 -1.17598e-15 0)
(3 -1.28752e-15 0)
(3 -1.10169e-15 0)
(3 1.90941e-17 0)
(3 -2.53283e-16 0)
(3 -3.63691e-16 0)
(3 -4.17527e-16 0)
(3 -1.48691e-16 0)
(3 -4.38249e-16 0)
(3 3.71488e-16 0)
(3 8.67417e-16 0)
(3 6.31237e-16 0)
(3 5.21786e-16 0)
(3 -4.72325e-17 0)
(3 -7.60972e-16 0)
(3 -1.05071e-15 0)
(3 -1.59053e-15 0)
(3 -1.74971e-15 0)
(3 -1.6496e-15 0)
(3 -1.50531e-15 0)
(3 -7.36058e-16 0)
(3 2.20157e-17 0)
(3 -4.81223e-17 0)
(3 7.03968e-17 0)
(3 5.90908e-16 0)
(3 1.36783e-15 0)
(3 7.27548e-16 0)
(3 3.25675e-16 0)
(3 8.18195e-16 0)
(3 1.45453e-15 0)
(3 1.79009e-15 0)
(3 2.08593e-15 0)
(3 2.32661e-15 0)
(3 2.34646e-15 0)
(3 2.16673e-15 0)
(3 1.20296e-16 0)
(3 -4.64219e-16 0)
(3 4.32142e-16 0)
(3 5.40889e-16 0)
(3 -1.5206e-15 0)
(3 -2.30251e-15 0)
(3 -2.19234e-15 0)
(3 -1.54181e-15 0)
(3 -3.00142e-15 0)
(3 -3.73097e-15 0)
(3 -4.09245e-15 0)
(3 -4.27805e-15 0)
(3 -4.2722e-15 0)
(3 -4.44867e-15 0)
(3 -4.30602e-15 0)
(3 -2.7673e-15 0)
(3 -2.8398e-15 0)
(3 3.27257e-17 0)
(3 -1.74346e-16 0)
(3 -3.04339e-16 0)
(3 -4.42403e-16 0)
(3 -9.0594e-16 0)
(3 -1.25566e-15 0)
(3 -1.29578e-15 0)
(3 -9.18485e-16 0)
(3 -7.72589e-16 0)
(3 -4.82585e-16 0)
(3 -6.64576e-16 0)
(3 -6.97419e-16 0)
(3 -7.93418e-16 0)
(3 -6.24618e-16 0)
(3 1.36e-15 0)
(3 1.92534e-15 0)
(3 2.71955e-15 0)
(3 3.1576e-15 0)
(3 3.14899e-15 0)
(3 2.71913e-15 0)
(3 1.88119e-15 0)
(3 9.36483e-16 0)
(3 2.42728e-16 0)
(3 8.61191e-17 0)
(3 5.24184e-16 0)
(3 1.78351e-15 0)
(3 1.78667e-15 0)
(3 1.64917e-15 0)
(3 -1.25071e-16 0)
(3 -7.09626e-16 0)
(3 -2.04759e-15 0)
(3 -4.2347e-15 0)
(3 -4.14829e-15 0)
(3 -3.44338e-15 0)
(3 -4.21456e-15 0)
(3 -3.04284e-15 0)
(3 -3.23718e-15 0)
(3 -3.83584e-15 0)
(3 -3.39277e-15 0)
(3 -3.07742e-15 0)
(3 -2.33158e-15 0)
(3 -7.22286e-16 0)
(3 7.99974e-16 0)
(3 1.91754e-15 0)
(3 1.64195e-15 0)
(3 9.79164e-16 0)
(3 3.38669e-16 0)
(3 2.94551e-16 0)
(3 3.19414e-16 0)
(3 8.90397e-17 0)
(3 -3.35028e-16 0)
(3 -7.64976e-16 0)
(3 -5.36117e-17 0)
(3 -6.16878e-17 0)
(3 2.61987e-16 0)
(3 -5.39191e-17 0)
(3 -1.07734e-15 0)
(3 -8.41684e-16 0)
(3 -7.74914e-16 0)
(3 -8.43471e-16 0)
(3 -6.64444e-16 0)
(3 -1.56826e-15 0)
(3 -1.81884e-15 0)
(3 -1.93823e-15 0)
(3 -5.79547e-16 0)
(3 2.05901e-16 0)
(3 2.56822e-16 0)
(3 -4.99453e-16 0)
(3 -1.43892e-15 0)
(3 -1.97627e-15 0)
(3 1.67198e-16 0)
(3 6.54266e-16 0)
(3 7.80108e-16 0)
(3 1.78803e-15 0)
(3 4.04989e-15 0)
(3 3.08883e-15 0)
(3 3.48994e-15 0)
(3 4.25727e-15 0)
(3 3.40086e-15 0)
(3 1.8084e-15 0)
(3 -4.37677e-16 0)
(3 -1.48637e-15 0)
(3 -1.41776e-15 0)
(3 -1.06787e-15 0)
(3 -7.65272e-16 0)
(3 -3.76143e-17 0)
(3 -1.5647e-15 0)
(3 -3.55496e-15 0)
(3 -3.44272e-15 0)
(3 -3.64778e-15 0)
(3 -3.87151e-15 0)
(3 -4.61509e-15 0)
(3 -4.5417e-15 0)
(3 -4.18557e-15 0)
(3 -2.96902e-15 0)
(3 -3.13785e-15 0)
(3 -2.14344e-16 0)
(3 -2.15004e-16 0)
(3 -2.22706e-16 0)
(3 -3.29638e-17 0)
(3 -3.49474e-16 0)
(3 -6.24e-16 0)
(3 -5.79178e-16 0)
(3 -6.59751e-16 0)
(3 -1.37657e-15 0)
(3 -1.45668e-15 0)
(3 -1.58952e-15 0)
(3 -1.7669e-15 0)
(3 -1.40141e-15 0)
(3 -1.46464e-15 0)
(3 -4.30941e-16 0)
(3 4.93752e-16 0)
(3 1.11595e-15 0)
(3 6.11281e-16 0)
(3 1.38922e-15 0)
(3 1.60329e-15 0)
(3 1.6306e-15 0)
(3 1.29496e-15 0)
(3 8.87683e-16 0)
(3 8.87466e-16 0)
(3 9.86768e-17 0)
(3 6.96727e-16 0)
(3 1.74734e-15 0)
(3 2.86125e-15 0)
(3 3.23891e-15 0)
(3 2.60614e-15 0)
(3 1.09721e-15 0)
(3 -1.2232e-15 0)
(3 -1.35227e-15 0)
(3 -6.35176e-16 0)
(3 -5.09161e-16 0)
(3 -4.70639e-16 0)
(3 -1.33089e-15 0)
(3 -2.73453e-15 0)
(3 -1.94196e-15 0)
(3 7.65108e-17 0)
(3 8.77578e-16 0)
(3 1.40395e-15 0)
(3 1.68721e-15 0)
(3 1.27708e-15 0)
(3 3.50208e-16 0)
(3 2.60618e-16 0)
(3 4.09989e-16 0)
(3 8.71685e-16 0)
(3 1.85724e-15 0)
(3 1.84329e-15 0)
(3 1.38187e-15 0)
(3 6.50161e-16 0)
(3 1.96744e-16 0)
(3 1.61193e-16 0)
(3 7.59858e-17 0)
(3 9.92228e-18 0)
(3 -3.10718e-16 0)
(3 -1.00494e-16 0)
(3 2.66383e-16 0)
(3 3.58641e-16 0)
(3 4.03905e-16 0)
(3 -6.19769e-16 0)
(3 -1.42224e-15 0)
(3 -1.88851e-15 0)
(3 -2.1139e-15 0)
(3 -1.34445e-15 0)
(3 -1.36411e-15 0)
(3 -1.58577e-15 0)
(3 -1.71619e-15 0)
(3 -2.05267e-15 0)
(3 -1.99335e-15 0)
(3 -3.69616e-16 0)
(3 2.75761e-15 0)
(3 2.93026e-15 0)
(3 1.11515e-15 0)
(3 1.03516e-15 0)
(3 9.74957e-16 0)
(3 1.25762e-15 0)
(3 1.65713e-15 0)
(3 9.28479e-16 0)
(3 -5.15256e-16 0)
(3 -1.25116e-15 0)
(3 -1.68513e-15 0)
(3 -1.26905e-15 0)
(3 -8.39624e-16 0)
(3 -4.57623e-16 0)
(3 -3.85499e-16 0)
(3 -6.38244e-16 0)
(3 -9.01778e-16 0)
(3 -2.47878e-15 0)
(3 -4.36992e-15 0)
(3 -4.50723e-15 0)
(3 -3.74984e-15 0)
(3 -2.92389e-15 0)
(3 -1.79397e-15 0)
(3 -2.78012e-16 0)
(3 1.19064e-17 0)
(3 -2.72212e-16 0)
(3 -7.09732e-18 0)
(3 1.35525e-16 0)
(3 1.00888e-15 0)
(3 7.90547e-16 0)
(3 1.42288e-16 0)
(3 -7.85542e-16 0)
(3 -1.30517e-15 0)
(3 -1.40151e-15 0)
(3 -8.49782e-16 0)
(3 -8.54915e-16 0)
(3 -7.00566e-16 0)
(3 -6.75903e-16 0)
(3 -6.90546e-16 0)
(3 4.51759e-16 0)
(3 5.13363e-16 0)
(3 2.94939e-16 0)
(3 1.10577e-15 0)
(3 1.02134e-15 0)
(3 1.62661e-15 0)
(3 2.23527e-15 0)
(3 2.24904e-15 0)
(3 1.95583e-15 0)
(3 9.62789e-16 0)
(3 1.30079e-15 0)
(3 2.79229e-15 0)
(3 2.97704e-15 0)
(3 1.99929e-15 0)
(3 9.61185e-16 0)
(3 3.58141e-16 0)
(3 1.33534e-15 0)
(3 2.95238e-15 0)
(3 3.09136e-15 0)
(3 3.09029e-15 0)
(3 2.73326e-15 0)
(3 2.52951e-15 0)
(3 1.7602e-15 0)
(3 6.04144e-16 0)
(3 4.39801e-16 0)
(3 -7.89687e-16 0)
(3 -2.51485e-15 0)
(3 -2.58309e-15 0)
(3 -2.24768e-15 0)
(3 -1.75909e-15 0)
(3 -1.74898e-15 0)
(3 -1.73568e-15 0)
(3 -7.77842e-16 0)
(3 -1.60638e-16 0)
(3 8.30438e-16 0)
(3 4.25566e-16 0)
(3 6.17972e-16 0)
(3 6.32896e-16 0)
(3 4.3691e-16 0)
(3 -8.28039e-16 0)
(3 -1.71012e-15 0)
(3 -1.48328e-15 0)
(3 -6.93123e-16 0)
(3 -2.86604e-16 0)
(3 3.82782e-16 0)
(3 3.18095e-16 0)
(3 -9.6197e-17 0)
(3 -8.91392e-16 0)
(3 -1.80481e-15 0)
(3 -1.44897e-15 0)
(3 -1.56262e-15 0)
(3 -1.47669e-15 0)
(3 -1.88245e-15 0)
(3 -2.37468e-15 0)
(3 -2.26218e-15 0)
(3 -2.3841e-15 0)
(3 -1.01366e-15 0)
(3 -5.1855e-16 0)
(3 -9.19321e-16 0)
(3 -2.03169e-15 0)
(3 -1.11995e-15 0)
(3 -1.08967e-15 0)
(3 -1.65393e-15 0)
(3 -1.42122e-15 0)
(3 -1.78447e-16 0)
(3 7.76456e-16 0)
(3 1.7977e-15 0)
(3 1.53225e-15 0)
(3 1.98031e-15 0)
(3 1.74862e-15 0)
(3 1.00591e-15 0)
(3 -1.74788e-16 0)
(3 -6.5598e-16 0)
(3 -1.34131e-15 0)
(3 -1.84452e-15 0)
(3 -2.32155e-15 0)
(3 -1.93015e-15 0)
(3 -1.91358e-15 0)
(3 -1.68124e-15 0)
(3 -1.69833e-16 0)
(3 2.80146e-15 0)
(3 1.72166e-16 0)
(3 1.22637e-16 0)
(3 7.57084e-17 0)
(3 9.09885e-17 0)
(3 -5.80883e-17 0)
(3 2.08621e-16 0)
(3 2.55166e-17 0)
(3 -3.89069e-16 0)
(3 -6.27064e-16 0)
(3 -1.83981e-16 0)
(3 1.98677e-16 0)
(3 4.92665e-16 0)
(3 3.27423e-16 0)
(3 3.24936e-16 0)
(3 5.40538e-16 0)
(3 1.00749e-15 0)
(3 9.16001e-16 0)
(3 1.51445e-15 0)
(3 1.27026e-15 0)
(3 1.14196e-15 0)
(3 1.73464e-15 0)
(3 2.01878e-15 0)
(3 1.61903e-15 0)
(3 9.72385e-16 0)
(3 1.16153e-15 0)
(3 1.14439e-15 0)
(3 1.10285e-15 0)
(3 1.37324e-15 0)
(3 1.58422e-15 0)
(3 1.45288e-15 0)
(3 1.87423e-15 0)
(3 3.6345e-15 0)
(3 5.28198e-15 0)
(3 6.44044e-15 0)
(3 6.89533e-15 0)
(3 6.26441e-15 0)
(3 5.48229e-15 0)
(3 5.28876e-15 0)
(3 4.93646e-15 0)
(3 2.53229e-15 0)
(3 1.06998e-15 0)
(3 -1.50722e-16 0)
(3 -1.73854e-15 0)
(3 -1.70543e-15 0)
(3 -1.26605e-15 0)
(3 -9.66377e-16 0)
(3 -1.37165e-15 0)
(3 -1.60569e-15 0)
(3 -1.849e-15 0)
(3 -2.49468e-15 0)
(3 -3.93287e-15 0)
(3 -1.6909e-15 0)
(3 -8.50202e-16 0)
(3 -7.46997e-16 0)
(3 -7.70941e-16 0)
(3 -1.13291e-15 0)
(3 -4.63802e-16 0)
(3 -2.43466e-16 0)
(3 6.68588e-16 0)
(3 3.89682e-16 0)
(3 7.67855e-16 0)
(3 1.24171e-15 0)
(3 9.44005e-17 0)
(3 -9.74222e-16 0)
(3 -9.97935e-16 0)
(3 -8.83233e-16 0)
(3 -1.50994e-16 0)
(3 -1.04791e-16 0)
(3 -2.50286e-16 0)
(3 -6.17092e-16 0)
(3 -4.84549e-16 0)
(3 -1.38724e-15 0)
(3 -3.66575e-15 0)
(3 -4.33101e-15 0)
(3 -3.68715e-15 0)
(3 -3.10697e-15 0)
(3 -2.9434e-15 0)
(3 -2.2989e-15 0)
(3 -1.19878e-15 0)
(3 -4.45486e-16 0)
(3 3.55361e-16 0)
(3 1.63448e-15 0)
(3 2.72253e-15 0)
(3 2.40767e-15 0)
(3 2.2341e-15 0)
(3 1.69713e-15 0)
(3 3.18606e-19 0)
(3 -9.28562e-16 0)
(3 -8.95476e-16 0)
(3 -3.18098e-16 0)
(3 3.10473e-16 0)
(3 2.19359e-16 0)
(3 -6.73508e-17 0)
(3 -7.09639e-16 0)
(3 -8.32116e-17 0)
(3 5.99998e-16 0)
(3 6.5938e-17 0)
(3 3.28159e-16 0)
(3 -7.00583e-18 0)
(3 2.28308e-16 0)
(3 -3.43002e-16 0)
(3 -2.21505e-16 0)
(3 -1.37151e-16 0)
(3 -1.26562e-16 0)
(3 2.95101e-16 0)
(3 6.71329e-16 0)
(3 6.44292e-16 0)
(3 7.74094e-16 0)
(3 1.37062e-15 0)
(3 1.58947e-15 0)
(3 1.45499e-15 0)
(3 8.00315e-16 0)
(3 4.94839e-16 0)
(3 4.24674e-16 0)
(3 2.4102e-16 0)
(3 4.47999e-16 0)
(3 1.06963e-15 0)
(3 7.42901e-16 0)
(3 4.32021e-16 0)
(3 7.69101e-17 0)
(3 2.49293e-16 0)
(3 7.41305e-16 0)
(3 9.06027e-16 0)
(3 1.29972e-15 0)
(3 1.91973e-15 0)
(3 2.76943e-15 0)
(3 3.48103e-15 0)
(3 4.5908e-15 0)
(3 5.79131e-15 0)
(3 6.1688e-15 0)
(3 5.50993e-15 0)
(3 4.93463e-15 0)
(3 4.26676e-15 0)
(3 3.63357e-15 0)
(3 3.68554e-15 0)
(3 3.30529e-15 0)
(3 4.9236e-15 0)
(3 5.46319e-15 0)
(3 4.50234e-15 0)
(3 2.5237e-15 0)
(3 1.43096e-15 0)
(3 7.75166e-16 0)
(3 6.4808e-16 0)
(3 2.98164e-16 0)
(3 -1.63932e-15 0)
(3 -2.37924e-15 0)
(3 -1.74217e-15 0)
(3 -1.25659e-15 0)
(3 -1.44324e-16 0)
(3 -8.03362e-16 0)
(3 -2.46685e-15 0)
(3 -8.26395e-16 0)
(3 1.08673e-16 0)
(3 2.31856e-16 0)
(3 8.59048e-16 0)
(3 7.70648e-16 0)
(3 1.88039e-15 0)
(3 3.64831e-15 0)
(3 4.56014e-15 0)
(3 2.86042e-15 0)
(3 1.26546e-15 0)
(3 1.28926e-15 0)
(3 1.88883e-15 0)
(3 1.05458e-15 0)
(3 9.24802e-16 0)
(3 7.27045e-16 0)
(3 7.47516e-16 0)
(3 -9.01726e-16 0)
(3 -2.34998e-15 0)
(3 -2.97277e-15 0)
(3 -3.66202e-15 0)
(3 -4.46764e-15 0)
(3 -4.38834e-15 0)
(3 -3.26692e-15 0)
(3 -1.67685e-15 0)
(3 -4.35092e-16 0)
(3 1.2132e-15 0)
(3 2.02982e-15 0)
(3 3.13539e-15 0)
(3 2.52072e-15 0)
(3 2.17283e-15 0)
(3 1.84461e-15 0)
(3 1.82922e-15 0)
(3 1.50893e-15 0)
(3 1.20855e-15 0)
(3 1.52754e-15 0)
(3 1.0319e-15 0)
(3 -1.34735e-16 0)
(3 -1.59125e-15 0)
(3 -1.54332e-15 0)
(3 -2.81511e-15 0)
(3 -1.65315e-15 0)
(3 1.37395e-16 0)
(3 3.90828e-16 0)
(3 1.40772e-16 0)
(3 5.25345e-17 0)
(3 -1.27097e-16 0)
(3 -7.57208e-16 0)
(3 -5.88212e-16 0)
(3 -1.77595e-16 0)
(3 4.98975e-16 0)
(3 2.67982e-16 0)
(3 4.2892e-16 0)
(3 5.13012e-16 0)
(3 2.99102e-16 0)
(3 2.34375e-16 0)
(3 1.37979e-16 0)
(3 -5.45816e-16 0)
(3 -8.40063e-16 0)
(3 -6.27223e-16 0)
(3 -4.54036e-16 0)
(3 -2.98196e-16 0)
(3 1.22163e-16 0)
(3 8.15616e-16 0)
(3 8.63781e-16 0)
(3 7.12176e-16 0)
(3 9.73077e-16 0)
(3 7.06093e-16 0)
(3 7.00015e-16 0)
(3 8.95824e-16 0)
(3 1.21741e-15 0)
(3 2.02272e-15 0)
(3 2.81746e-15 0)
(3 3.70102e-15 0)
(3 3.98631e-15 0)
(3 3.94968e-15 0)
(3 2.45245e-15 0)
(3 2.88558e-15 0)
(3 3.55146e-15 0)
(3 2.89784e-15 0)
(3 2.28845e-15 0)
(3 2.47868e-15 0)
(3 4.22807e-15 0)
(3 5.03865e-15 0)
(3 4.63656e-15 0)
(3 4.01835e-15 0)
(3 3.12165e-15 0)
(3 1.63911e-15 0)
(3 1.53703e-15 0)
(3 -1.3183e-15 0)
(3 -4.63582e-15 0)
(3 -4.78674e-15 0)
(3 -4.01299e-15 0)
(3 -2.48521e-15 0)
(3 -1.89209e-15 0)
(3 -2.90928e-15 0)
(3 -4.87556e-15 0)
(3 -3.78472e-15 0)
(3 -1.97875e-15 0)
(3 -1.84831e-15 0)
(3 -7.71421e-16 0)
(3 1.2161e-15 0)
(3 3.47264e-15 0)
(3 4.60906e-15 0)
(3 5.53168e-15 0)
(3 4.61946e-15 0)
(3 3.34074e-15 0)
(3 1.48715e-15 0)
(3 4.56298e-16 0)
(3 3.92886e-16 0)
(3 1.21719e-15 0)
(3 1.75516e-15 0)
(3 -2.92575e-17 0)
(3 -1.11373e-15 0)
(3 -1.93636e-15 0)
(3 -2.47009e-15 0)
(3 -2.91803e-15 0)
(3 -3.34839e-15 0)
(3 -2.6174e-15 0)
(3 -1.46223e-15 0)
(3 -2.58659e-16 0)
(3 1.61654e-15 0)
(3 2.32445e-15 0)
(3 2.69833e-15 0)
(3 2.37475e-15 0)
(3 1.67361e-15 0)
(3 8.51483e-16 0)
(3 2.82654e-16 0)
(3 2.87169e-16 0)
(3 5.64713e-16 0)
(3 -1.1164e-17 0)
(3 -2.84498e-16 0)
(3 -1.40682e-16 0)
(3 -7.98437e-16 0)
(3 -3.33782e-15 0)
(3 -4.18014e-15 0)
(3 -5.22522e-15 0)
(3 -6.0394e-15 0)
(3 -3.50512e-17 0)
(3 -2.4512e-17 0)
(3 3.18946e-17 0)
(3 -6.97956e-17 0)
(3 1.39528e-16 0)
(3 -2.7724e-16 0)
(3 -1.97759e-16 0)
(3 -3.31663e-16 0)
(3 -5.35446e-16 0)
(3 -4.96913e-16 0)
(3 -1.99426e-17 0)
(3 3.50269e-16 0)
(3 -1.36832e-16 0)
(3 -4.04688e-16 0)
(3 -5.02567e-16 0)
(3 -6.92455e-16 0)
(3 -4.41196e-16 0)
(3 -1.09676e-16 0)
(3 4.72032e-16 0)
(3 5.93876e-16 0)
(3 7.72922e-16 0)
(3 1.18205e-15 0)
(3 2.24079e-15 0)
(3 2.48075e-15 0)
(3 1.9012e-15 0)
(3 1.0001e-15 0)
(3 -9.57469e-18 0)
(3 -3.91512e-17 0)
(3 5.67938e-16 0)
(3 2.2888e-15 0)
(3 3.56447e-15 0)
(3 3.60307e-15 0)
(3 3.05425e-15 0)
(3 2.6368e-15 0)
(3 1.87978e-15 0)
(3 2.93373e-15 0)
(3 3.45073e-15 0)
(3 2.89204e-15 0)
(3 2.04136e-15 0)
(3 3.57552e-15 0)
(3 4.41221e-15 0)
(3 4.02556e-15 0)
(3 1.75595e-15 0)
(3 1.41143e-15 0)
(3 1.23513e-15 0)
(3 3.12502e-15 0)
(3 2.96336e-15 0)
(3 -4.09044e-16 0)
(3 -2.34443e-15 0)
(3 -2.32065e-15 0)
(3 -2.43547e-15 0)
(3 -2.31523e-15 0)
(3 -3.50843e-15 0)
(3 -5.25546e-15 0)
(3 -7.373e-15 0)
(3 -3.98454e-15 0)
(3 -7.26601e-16 0)
(3 -2.85633e-16 0)
(3 1.17855e-15 0)
(3 3.70387e-15 0)
(3 3.8839e-15 0)
(3 3.24677e-15 0)
(3 3.58591e-15 0)
(3 4.86148e-15 0)
(3 3.50921e-15 0)
(3 1.60884e-15 0)
(3 -1.19142e-15 0)
(3 -1.03741e-15 0)
(3 2.04407e-15 0)
(3 2.81599e-15 0)
(3 1.1532e-15 0)
(3 -5.13592e-16 0)
(3 -1.45314e-15 0)
(3 -1.13182e-15 0)
(3 1.69731e-16 0)
(3 1.53291e-15 0)
(3 3.04168e-16 0)
(3 -1.85742e-15 0)
(3 -2.31915e-15 0)
(3 -2.36038e-15 0)
(3 -2.26934e-15 0)
(3 -1.03762e-15 0)
(3 -1.26119e-15 0)
(3 -1.08424e-15 0)
(3 -3.62304e-16 0)
(3 -2.305e-16 0)
(3 -1.57566e-15 0)
(3 -1.73337e-15 0)
(3 -1.61068e-15 0)
(3 -1.66498e-15 0)
(3 -1.62969e-15 0)
(3 -2.15192e-15 0)
(3 -1.88871e-15 0)
(3 -3.70349e-15 0)
(3 -4.27791e-15 0)
(3 -4.75619e-15 0)
(3 -9.01541e-17 0)
(3 -2.64204e-16 0)
(3 -3.0027e-16 0)
(3 -3.5872e-16 0)
(3 -2.25342e-16 0)
(3 -2.40199e-16 0)
(3 -8.65053e-16 0)
(3 -1.42613e-15 0)
(3 -1.1355e-15 0)
(3 -3.43826e-16 0)
(3 5.81896e-17 0)
(3 1.57107e-16 0)
(3 1.4669e-17 0)
(3 3.4724e-17 0)
(3 -1.60078e-16 0)
(3 3.92524e-16 0)
(3 5.837e-16 0)
(3 4.93949e-16 0)
(3 9.00526e-16 0)
(3 1.32149e-15 0)
(3 1.27067e-15 0)
(3 9.11848e-16 0)
(3 8.8071e-16 0)
(3 1.32504e-15 0)
(3 1.26139e-15 0)
(3 -5.78258e-17 0)
(3 -8.6235e-16 0)
(3 -8.46581e-16 0)
(3 -5.52494e-16 0)
(3 6.51068e-16 0)
(3 1.59462e-15 0)
(3 1.58267e-15 0)
(3 1.8524e-15 0)
(3 1.9289e-15 0)
(3 2.36826e-15 0)
(3 1.39971e-15 0)
(3 7.59179e-16 0)
(3 1.34397e-15 0)
(3 2.05284e-15 0)
(3 7.35172e-16 0)
(3 -1.69443e-15 0)
(3 -2.56669e-15 0)
(3 -3.91317e-15 0)
(3 -3.49777e-15 0)
(3 -2.88676e-15 0)
(3 -1.32158e-15 0)
(3 -2.08725e-17 0)
(3 5.6592e-17 0)
(3 -5.54126e-16 0)
(3 -6.24649e-17 0)
(3 -6.15979e-16 0)
(3 -1.37362e-15 0)
(3 -2.91049e-15 0)
(3 -4.2644e-15 0)
(3 -3.0347e-15 0)
(3 -1.12469e-15 0)
(3 -1.43886e-15 0)
(3 -1.32634e-15 0)
(3 -5.47793e-16 0)
(3 -2.55766e-16 0)
(3 -1.38043e-17 0)
(3 6.48236e-16 0)
(3 1.89413e-15 0)
(3 1.79243e-15 0)
(3 1.82601e-15 0)
(3 1.49226e-15 0)
(3 9.25191e-16 0)
(3 1.12183e-16 0)
(3 2.11634e-15 0)
(3 2.29431e-15 0)
(3 9.82128e-16 0)
(3 -3.64369e-16 0)
(3 -9.79735e-16 0)
(3 -7.87483e-16 0)
(3 -4.71199e-16 0)
(3 -7.71795e-16 0)
(3 -8.22802e-16 0)
(3 -1.21979e-15 0)
(3 -2.54607e-15 0)
(3 -2.6776e-15 0)
(3 -2.34197e-15 0)
(3 -2.37472e-15 0)
(3 -2.66574e-15 0)
(3 -1.4875e-15 0)
(3 2.91733e-16 0)
(3 8.88123e-16 0)
(3 -2.06193e-16 0)
(3 -8.99559e-16 0)
(3 -1.5199e-15 0)
(3 -2.68878e-15 0)
(3 -3.2763e-15 0)
(3 -2.58258e-15 0)
(3 -2.5818e-15 0)
(3 -3.8367e-15 0)
(3 -4.57112e-15 0)
(3 -4.58829e-15 0)
(3 -3.80575e-18 0)
(3 9.7976e-17 0)
(3 9.8772e-17 0)
(3 2.65462e-16 0)
(3 6.47691e-17 0)
(3 1.10889e-16 0)
(3 -3.16112e-16 0)
(3 3.9065e-16 0)
(3 8.32534e-16 0)
(3 4.96641e-16 0)
(3 -2.23523e-16 0)
(3 -4.28365e-16 0)
(3 -9.27506e-17 0)
(3 -1.6214e-17 0)
(3 4.69138e-17 0)
(3 3.08549e-16 0)
(3 5.71667e-17 0)
(3 -4.28665e-16 0)
(3 -1.91261e-16 0)
(3 2.71866e-16 0)
(3 5.15257e-16 0)
(3 5.85251e-16 0)
(3 1.40041e-15 0)
(3 1.50225e-15 0)
(3 1.90809e-15 0)
(3 1.34059e-15 0)
(3 -4.79283e-16 0)
(3 -1.38222e-15 0)
(3 -1.9719e-15 0)
(3 -1.53729e-15 0)
(3 -1.25236e-15 0)
(3 -7.50547e-16 0)
(3 -3.96642e-16 0)
(3 -1.19725e-15 0)
(3 -9.63904e-16 0)
(3 -1.15794e-15 0)
(3 -3.71219e-16 0)
(3 9.34708e-16 0)
(3 1.56653e-15 0)
(3 -1.12037e-15 0)
(3 -4.00927e-15 0)
(3 -5.38726e-15 0)
(3 -5.09487e-15 0)
(3 -3.90076e-15 0)
(3 -2.8491e-15 0)
(3 -3.169e-15 0)
(3 -1.63985e-15 0)
(3 -4.86698e-16 0)
(3 1.0337e-15 0)
(3 -3.19455e-16 0)
(3 -2.03938e-15 0)
(3 -3.81858e-15 0)
(3 -4.73307e-15 0)
(3 -3.34979e-15 0)
(3 -4.16191e-16 0)
(3 5.75435e-16 0)
(3 6.2476e-16 0)
(3 4.68385e-16 0)
(3 -6.3505e-16 0)
(3 -1.50777e-15 0)
(3 -3.2429e-15 0)
(3 -4.44716e-15 0)
(3 -4.16788e-15 0)
(3 -4.25615e-15 0)
(3 -2.86565e-15 0)
(3 -1.35047e-15 0)
(3 1.27745e-15 0)
(3 1.63671e-15 0)
(3 5.19685e-16 0)
(3 -6.72002e-17 0)
(3 -2.77619e-16 0)
(3 -8.23282e-16 0)
(3 -1.93642e-15 0)
(3 -2.56935e-15 0)
(3 -2.60628e-15 0)
(3 -1.93954e-15 0)
(3 -4.15145e-17 0)
(3 7.59375e-16 0)
(3 6.68409e-16 0)
(3 4.88117e-16 0)
(3 7.98342e-17 0)
(3 -7.17848e-16 0)
(3 -1.51285e-15 0)
(3 -4.8546e-16 0)
(3 -3.6387e-18 0)
(3 1.08116e-15 0)
(3 2.37133e-16 0)
(3 -1.62294e-15 0)
(3 -2.935e-15 0)
(3 -3.61016e-15 0)
(3 -3.91562e-15 0)
(3 -3.68029e-15 0)
(3 -3.42632e-15 0)
(3 -2.74914e-15 0)
(3 -3.20147e-15 0)
(3 -3.2427e-15 0)
(3 -1.0793e-16 0)
(3 1.00067e-16 0)
(3 2.17085e-16 0)
(3 2.23296e-16 0)
(3 -3.49429e-17 0)
(3 4.96754e-16 0)
(3 1.29431e-15 0)
(3 2.02095e-15 0)
(3 2.00471e-15 0)
(3 1.21277e-15 0)
(3 -2.10174e-16 0)
(3 -4.87377e-16 0)
(3 -4.04927e-16 0)
(3 1.42362e-16 0)
(3 5.05142e-16 0)
(3 3.78532e-16 0)
(3 -1.83224e-16 0)
(3 -8.75733e-16 0)
(3 -7.79094e-16 0)
(3 -9.28024e-16 0)
(3 -6.68354e-16 0)
(3 -1.64026e-16 0)
(3 7.90913e-16 0)
(3 4.82779e-16 0)
(3 2.88594e-16 0)
(3 -7.96766e-16 0)
(3 -2.29171e-15 0)
(3 -3.26437e-15 0)
(3 -2.83962e-15 0)
(3 -2.62477e-15 0)
(3 -2.53965e-15 0)
(3 -1.46775e-15 0)
(3 -2.57421e-15 0)
(3 -3.2611e-15 0)
(3 -3.06899e-15 0)
(3 -1.86891e-15 0)
(3 1.11024e-16 0)
(3 1.03557e-15 0)
(3 1.02271e-15 0)
(3 -1.75675e-16 0)
(3 -2.66131e-15 0)
(3 -2.2293e-15 0)
(3 -1.37622e-15 0)
(3 -4.85098e-16 0)
(3 -1.1093e-15 0)
(3 -2.28216e-15 0)
(3 -1.84509e-15 0)
(3 -9.31708e-16 0)
(3 -4.82833e-16 0)
(3 -1.45104e-15 0)
(3 -3.35577e-15 0)
(3 -3.75089e-15 0)
(3 -3.69457e-15 0)
(3 -2.77961e-15 0)
(3 -6.00077e-16 0)
(3 -2.42384e-16 0)
(3 7.7332e-16 0)
(3 2.18114e-15 0)
(3 6.0995e-16 0)
(3 -3.65587e-15 0)
(3 -4.89338e-15 0)
(3 -6.0001e-15 0)
(3 -6.90566e-15 0)
(3 -6.26287e-15 0)
(3 -4.44414e-15 0)
(3 -3.15533e-15 0)
(3 -1.67428e-15 0)
(3 -1.27529e-15 0)
(3 -2.15799e-15 0)
(3 -3.41539e-15 0)
(3 -3.47771e-15 0)
(3 -3.00425e-15 0)
(3 -1.78731e-15 0)
(3 -1.05803e-15 0)
(3 5.50611e-16 0)
(3 7.80951e-16 0)
(3 6.40572e-16 0)
(3 2.68243e-16 0)
(3 7.03805e-16 0)
(3 5.59545e-16 0)
(3 5.77138e-17 0)
(3 -5.73335e-16 0)
(3 -5.95025e-16 0)
(3 -6.69762e-16 0)
(3 -1.043e-15 0)
(3 -6.82016e-16 0)
(3 -1.54595e-15 0)
(3 -2.11352e-15 0)
(3 -3.06077e-15 0)
(3 -2.86771e-15 0)
(3 -2.31242e-15 0)
(3 -2.00451e-15 0)
(3 -1.87904e-15 0)
(3 -1.88288e-15 0)
(3 -1.68915e-15 0)
(3 -1.77926e-15 0)
(3 1.19034e-17 0)
(3 -1.04983e-16 0)
(3 -1.0583e-16 0)
(3 -4.12378e-16 0)
(3 -6.17892e-16 0)
(3 -5.62231e-16 0)
(3 -2.41321e-16 0)
(3 1.96846e-17 0)
(3 -2.90014e-16 0)
(3 -2.65257e-16 0)
(3 -2.13691e-16 0)
(3 -3.7943e-16 0)
(3 -4.25989e-16 0)
(3 -2.58352e-16 0)
(3 7.94837e-17 0)
(3 2.26501e-16 0)
(3 4.18723e-16 0)
(3 2.67441e-16 0)
(3 2.40151e-17 0)
(3 -7.27266e-17 0)
(3 -1.98568e-16 0)
(3 -9.20297e-16 0)
(3 -1.33457e-15 0)
(3 -2.22892e-15 0)
(3 -2.75866e-15 0)
(3 -3.03407e-15 0)
(3 -1.7614e-15 0)
(3 5.15578e-17 0)
(3 2.4109e-16 0)
(3 2.31993e-16 0)
(3 -7.87731e-16 0)
(3 -2.00308e-15 0)
(3 -3.77654e-15 0)
(3 -3.84804e-15 0)
(3 -3.82044e-15 0)
(3 -3.8924e-15 0)
(3 -2.20752e-15 0)
(3 -7.40698e-16 0)
(3 -3.46084e-16 0)
(3 -8.23906e-16 0)
(3 -4.08881e-16 0)
(3 -1.71839e-17 0)
(3 5.23865e-16 0)
(3 -2.27092e-16 0)
(3 -1.40336e-15 0)
(3 -1.74116e-15 0)
(3 -2.47682e-15 0)
(3 -2.192e-15 0)
(3 -1.63477e-15 0)
(3 -5.94578e-16 0)
(3 -7.36879e-16 0)
(3 -1.80843e-15 0)
(3 -1.88503e-15 0)
(3 -1.0052e-15 0)
(3 3.83797e-16 0)
(3 1.8041e-15 0)
(3 1.24143e-15 0)
(3 4.38391e-16 0)
(3 -1.88378e-15 0)
(3 -2.70292e-15 0)
(3 -2.86625e-15 0)
(3 -3.50407e-15 0)
(3 -4.22148e-15 0)
(3 -3.42588e-15 0)
(3 -2.93104e-15 0)
(3 -2.68223e-15 0)
(3 -2.05358e-15 0)
(3 -2.59319e-15 0)
(3 -2.6819e-15 0)
(3 -3.3519e-15 0)
(3 -3.3416e-15 0)
(3 -1.98794e-15 0)
(3 4.45812e-16 0)
(3 5.93302e-16 0)
(3 1.41584e-16 0)
(3 -1.33598e-15 0)
(3 -1.23357e-15 0)
(3 -2.80229e-16 0)
(3 -1.52011e-16 0)
(3 -3.42237e-16 0)
(3 -1.24373e-15 0)
(3 -8.26729e-16 0)
(3 4.19955e-16 0)
(3 8.01344e-16 0)
(3 3.63655e-17 0)
(3 -1.58089e-15 0)
(3 -1.6838e-15 0)
(3 -6.1615e-16 0)
(3 2.96648e-17 0)
(3 3.68174e-17 0)
(3 -5.5371e-16 0)
(3 -8.13179e-16 0)
(3 -3.75478e-16 0)
(3 -3.85572e-16 0)
(3 -2.31846e-16 0)
(3 -3.67561e-16 0)
(3 7.97013e-17 0)
(3 2.22677e-17 0)
(3 8.80028e-17 0)
(3 1.53732e-16 0)
(3 1.64857e-16 0)
(3 -3.66713e-16 0)
(3 -5.49836e-16 0)
(3 -9.25355e-16 0)
(3 -8.70158e-16 0)
(3 -3.69886e-16 0)
(3 1.85288e-16 0)
(3 1.93791e-16 0)
(3 -3.05245e-17 0)
(3 -7.00506e-16 0)
(3 -1.45946e-15 0)
(3 -1.45939e-15 0)
(3 -8.96836e-16 0)
(3 2.48804e-16 0)
(3 2.66027e-16 0)
(3 1.06326e-16 0)
(3 -4.62093e-16 0)
(3 -1.12835e-15 0)
(3 -1.36323e-15 0)
(3 -1.66075e-15 0)
(3 -1.80244e-15 0)
(3 5.29923e-17 0)
(3 2.14417e-15 0)
(3 2.74537e-15 0)
(3 2.6003e-15 0)
(3 2.04049e-15 0)
(3 1.85373e-15 0)
(3 -3.09846e-15 0)
(3 -4.55678e-15 0)
(3 -4.44921e-15 0)
(3 -2.87934e-15 0)
(3 -2.46028e-15 0)
(3 -2.38332e-15 0)
(3 -2.64578e-15 0)
(3 -2.54995e-15 0)
(3 -2.77504e-15 0)
(3 -2.0204e-15 0)
(3 -4.82618e-16 0)
(3 4.01298e-16 0)
(3 -2.1101e-17 0)
(3 -4.34678e-16 0)
(3 -7.34151e-16 0)
(3 -1.60732e-15 0)
(3 -2.19595e-15 0)
(3 -1.7339e-15 0)
(3 -8.74154e-16 0)
(3 2.69244e-16 0)
(3 3.14954e-17 0)
(3 4.83682e-16 0)
(3 4.88896e-16 0)
(3 4.66168e-16 0)
(3 8.53457e-16 0)
(3 -4.85246e-16 0)
(3 -2.52679e-15 0)
(3 -3.98784e-15 0)
(3 -5.51376e-15 0)
(3 -5.35576e-15 0)
(3 -4.39909e-15 0)
(3 -2.73788e-15 0)
(3 -1.36226e-15 0)
(3 -5.67729e-16 0)
(3 7.5797e-17 0)
(3 1.6009e-16 0)
(3 -2.4573e-17 0)
(3 -1.10622e-15 0)
(3 -2.1809e-15 0)
(3 -1.87073e-15 0)
(3 -1.05976e-16 0)
(3 -3.55008e-16 0)
(3 -1.65106e-15 0)
(3 -2.34904e-15 0)
(3 -1.48368e-15 0)
(3 -2.14046e-16 0)
(3 3.77867e-16 0)
(3 -6.5002e-16 0)
(3 -3.87055e-16 0)
(3 6.58419e-16 0)
(3 9.48272e-16 0)
(3 7.3515e-16 0)
(3 5.32006e-16 0)
(3 -2.66259e-16 0)
(3 -2.09723e-16 0)
(3 5.65152e-16 0)
(3 1.62409e-15 0)
(3 2.16293e-15 0)
(3 1.26844e-15 0)
(3 5.12628e-16 0)
(3 4.97958e-16 0)
(3 -3.39144e-17 0)
(3 2.04203e-16 0)
(3 1.00129e-15 0)
(3 1.99485e-15 0)
(3 -2.32833e-17 0)
(3 -1.40202e-16 0)
(3 2.45048e-17 0)
(3 3.34149e-16 0)
(3 9.58363e-17 0)
(3 -9.89555e-16 0)
(3 -1.95409e-15 0)
(3 -2.15261e-15 0)
(3 -1.06693e-15 0)
(3 -2.40327e-16 0)
(3 8.37437e-17 0)
(3 1.42816e-16 0)
(3 1.2279e-16 0)
(3 -4.30066e-16 0)
(3 -6.43349e-16 0)
(3 -6.63364e-16 0)
(3 -5.72319e-16 0)
(3 -4.44231e-16 0)
(3 -3.05983e-16 0)
(3 -2.91427e-16 0)
(3 -5.33811e-16 0)
(3 -1.1099e-15 0)
(3 -1.07627e-15 0)
(3 -2.73139e-16 0)
(3 7.29589e-16 0)
(3 1.96843e-15 0)
(3 2.27475e-15 0)
(3 1.76056e-15 0)
(3 1.74633e-15 0)
(3 1.77451e-15 0)
(3 4.27009e-16 0)
(3 -2.23545e-15 0)
(3 -2.99364e-15 0)
(3 -2.33865e-15 0)
(3 -9.8652e-16 0)
(3 -9.69554e-16 0)
(3 -1.91215e-15 0)
(3 -2.56779e-15 0)
(3 -1.91177e-15 0)
(3 -5.69283e-16 0)
(3 -5.24655e-16 0)
(3 7.26302e-17 0)
(3 2.44347e-16 0)
(3 2.21918e-16 0)
(3 -4.88793e-16 0)
(3 -5.9677e-16 0)
(3 -8.10786e-16 0)
(3 -1.25198e-16 0)
(3 -1.005e-17 0)
(3 -1.15839e-15 0)
(3 -4.4035e-16 0)
(3 1.01066e-15 0)