/*--------------------------------*- C++ -*----------------------------------*\
  =========                 |
  \\      /  F ield         | OpenFOAM: The Open Source CFD Toolbox
   \\    /   O peration     | Website:  https://openfoam.org
    \\  /    A nd           | Version:  7
     \\/     M anipulation  |
\*---------------------------------------------------------------------------*/
FoamFile
{
    version     2.0;
    format      ascii;
    class       volVectorField;
    location    "3.5";
    object      U;
}
// * * * * * * * * * * * * * * * * * * * * * * * * * * * * * * * * * * * * * //

dimensions      [0 1 -1 0 0 0 0];

internalField   nonuniform List<vector> 
73728
(
(3 -1.66001e-16 0)
(3 -4.24565e-16 0)
(3 -1.51506e-16 0)
(3 3.13735e-16 0)
(3 5.54826e-17 0)
(3 2.25864e-16 0)
(3 2.58487e-16 0)
(3 -1.35064e-16 0)
(3 -8.2485e-16 0)
(3 -1.09071e-15 0)
(3 -6.50315e-16 0)
(3 -4.26438e-16 0)
(3 -5.3308e-17 0)
(3 -5.53986e-18 0)
(3 -3.74857e-16 0)
(3 -5.2214e-16 0)
(3 -5.84242e-17 0)
(3 7.9946e-17 0)
(3 -3.39823e-16 0)
(3 -5.17238e-16 0)
(3 -3.10637e-16 0)
(3 -3.63367e-16 0)
(3 -8.55853e-16 0)
(3 -1.03602e-15 0)
(3 -8.96318e-16 0)
(3 -5.33956e-16 0)
(3 -6.51303e-16 0)
(3 9.18441e-17 0)
(3 6.2237e-17 0)
(3 -2.22748e-16 0)
(3 -5.03308e-16 0)
(3 -2.83269e-16 0)
(3 3.02911e-16 0)
(3 5.89006e-16 0)
(3 1.46485e-15 0)
(3 1.12349e-15 0)
(3 1.05035e-15 0)
(3 6.96719e-16 0)
(3 2.02242e-16 0)
(3 -1.77091e-16 0)
(3 7.89906e-16 0)
(3 8.00947e-16 0)
(3 1.25473e-15 0)
(3 9.1226e-16 0)
(3 -3.80951e-16 0)
(3 -9.01724e-16 0)
(3 -1.02493e-15 0)
(3 -3.74152e-16 0)
(3 1.56867e-16 0)
(3 3.54598e-16 0)
(3 1.17024e-16 0)
(3 -1.37243e-17 0)
(3 -2.30125e-16 0)
(3 1.50541e-16 0)
(3 2.489e-16 0)
(3 3.69157e-16 0)
(3 8.70234e-16 0)
(3 1.24462e-15 0)
(3 -1.05501e-16 0)
(3 -2.09392e-15 0)
(3 -1.95361e-15 0)
(3 -9.67936e-16 0)
(3 8.76702e-17 0)
(3 5.10318e-16 0)
(3 -2.92853e-16 0)
(3 -9.0902e-16 0)
(3 -8.90264e-16 0)
(3 -7.1002e-16 0)
(3 -7.80765e-16 0)
(3 3.63105e-16 0)
(3 1.22782e-15 0)
(3 1.38967e-15 0)
(3 1.24685e-15 0)
(3 4.47665e-16 0)
(3 -1.12898e-16 0)
(3 -3.12516e-16 0)
(3 -2.52817e-16 0)
(3 -4.66148e-17 0)
(3 -1.42039e-17 0)
(3 7.95909e-16 0)
(3 8.6217e-16 0)
(3 6.3294e-16 0)
(3 4.11785e-16 0)
(3 8.61259e-16 0)
(3 1.20867e-15 0)
(3 1.07293e-15 0)
(3 7.69813e-16 0)
(3 2.26158e-16 0)
(3 -3.26964e-17 0)
(3 1.30298e-16 0)
(3 3.02834e-16 0)
(3 2.24719e-16 0)
(3 6.25828e-16 0)
(3 1.13258e-16 0)
(3 3.82694e-16 0)
(3 2.81043e-16 0)
(3 -5.27129e-17 0)
(3 -8.63808e-18 0)
(3 1.97196e-16 0)
(3 6.08996e-16 0)
(3 5.18249e-16 0)
(3 5.11779e-16 0)
(3 2.10908e-16 0)
(3 -5.60141e-16 0)
(3 -2.24563e-15 0)
(3 -2.95235e-15 0)
(3 -1.26578e-15 0)
(3 -3.224e-16 0)
(3 6.00751e-16 0)
(3 7.73808e-17 0)
(3 -5.91882e-16 0)
(3 -1.19612e-16 0)
(3 9.7635e-16 0)
(3 9.99175e-16 0)
(3 3.05838e-16 0)
(3 -1.31486e-17 0)
(3 -5.64391e-18 0)
(3 1.95586e-17 0)
(3 -7.15275e-16 0)
(3 -1.50052e-15 0)
(3 -1.02517e-15 0)
(3 -4.56508e-16 0)
(3 -6.3471e-16 0)
(3 -6.90283e-16 0)
(3 -1.10538e-15 0)
(3 -1.29864e-15 0)
(3 -1.26111e-15 0)
(3 -9.99219e-16 0)
(3 -1.58414e-16 0)
(3 6.94769e-16 0)
(3 1.39087e-15 0)
(3 1.41818e-15 0)
(3 1.2806e-15 0)
(3 3.21873e-16 0)
(3 -3.29664e-16 0)
(3 -4.42502e-16 0)
(3 9.17558e-16 0)
(3 2.82481e-16 0)
(3 4.36992e-16 0)
(3 4.90939e-16 0)
(3 -8.74742e-16 0)
(3 -1.04358e-15 0)
(3 -1.04034e-15 0)
(3 -6.74307e-16 0)
(3 1.03226e-15 0)
(3 1.88235e-15 0)
(3 1.09917e-15 0)
(3 3.44672e-16 0)
(3 4.14605e-16 0)
(3 8.05019e-16 0)
(3 6.62693e-16 0)
(3 -3.8643e-16 0)
(3 -3.24962e-16 0)
(3 -9.22896e-16 0)
(3 -1.33761e-15 0)
(3 -1.742e-15 0)
(3 -1.67017e-15 0)
(3 -1.39447e-15 0)
(3 7.77699e-17 0)
(3 7.93328e-16 0)
(3 1.4728e-16 0)
(3 -8.69934e-16 0)
(3 -1.82731e-15 0)
(3 -1.64297e-15 0)
(3 -1.60933e-15 0)
(3 1.03524e-18 0)
(3 3.87539e-16 0)
(3 4.86747e-16 0)
(3 6.51412e-16 0)
(3 5.28893e-16 0)
(3 3.16108e-16 0)
(3 1.93632e-16 0)
(3 2.5666e-16 0)
(3 -1.27344e-16 0)
(3 8.29031e-16 0)
(3 2.80126e-15 0)
(3 2.94331e-15 0)
(3 2.53224e-15 0)
(3 8.88943e-16 0)
(3 6.90608e-16 0)
(3 1.97212e-15 0)
(3 1.02899e-15 0)
(3 7.3193e-16 0)
(3 6.14473e-16 0)
(3 5.15129e-16 0)
(3 6.04338e-16 0)
(3 6.12782e-16 0)
(3 1.48822e-15 0)
(3 6.88988e-16 0)
(3 -3.53815e-16 0)
(3 -3.97523e-16 0)
(3 -9.01293e-16 0)
(3 4.73331e-17 0)
(3 3.87329e-16 0)
(3 8.07868e-16 0)
(3 6.69131e-16 0)
(3 5.29118e-17 0)
(3 -6.9441e-16 0)
(3 -1.64747e-15 0)
(3 -1.5912e-15 0)
(3 -2.84098e-15 0)
(3 -3.40323e-15 0)
(3 -1.64976e-15 0)
(3 2.40977e-16 0)
(3 1.27997e-15 0)
(3 7.9993e-16 0)
(3 1.32601e-16 0)
(3 -4.40191e-16 0)
(3 -1.42469e-16 0)
(3 1.7246e-16 0)
(3 4.3591e-16 0)
(3 9.28624e-16 0)
(3 1.14743e-15 0)
(3 6.76563e-16 0)
(3 1.94402e-16 0)
(3 -2.94149e-16 0)
(3 -8.07042e-16 0)
(3 -7.9332e-16 0)
(3 -7.40372e-16 0)
(3 -9.67665e-16 0)
(3 -8.37953e-16 0)
(3 -5.9377e-16 0)
(3 -1.23728e-16 0)
(3 6.41364e-16 0)
(3 1.04575e-15 0)
(3 1.36806e-15 0)
(3 2.01656e-15 0)
(3 2.29859e-15 0)
(3 2.04974e-15 0)
(3 6.77697e-17 0)
(3 -1.37638e-15 0)
(3 -1.47959e-15 0)
(3 -1.03559e-15 0)
(3 -1.60846e-15 0)
(3 -1.8647e-15 0)
(3 -2.07778e-15 0)
(3 -1.76301e-15 0)
(3 -1.08065e-15 0)
(3 -1.12928e-15 0)
(3 -1.13173e-15 0)
(3 -7.4022e-16 0)
(3 2.11794e-16 0)
(3 6.55595e-16 0)
(3 7.35844e-16 0)
(3 1.78582e-15 0)
(3 1.72459e-15 0)
(3 8.23777e-16 0)
(3 -1.95363e-15 0)
(3 -3.17159e-15 0)
(3 -3.00493e-15 0)
(3 -2.61405e-15 0)
(3 -1.27396e-15 0)
(3 -1.13651e-15 0)
(3 -1.25605e-15 0)
(3 -6.75523e-16 0)
(3 -2.93844e-16 0)
(3 -1.75389e-16 0)
(3 -3.34009e-16 0)
(3 -4.33151e-16 0)
(3 -7.43748e-16 0)
(3 -7.97e-16 0)
(3 -1.03384e-15 0)
(3 -7.8892e-16 0)
(3 -2.15706e-16 0)
(3 4.86737e-16 0)
(3 1.51574e-15 0)
(3 1.74586e-15 0)
(3 1.33335e-15 0)
(3 6.46203e-16 0)
(3 1.0641e-15 0)
(3 1.82316e-15 0)
(3 3.09231e-15 0)
(3 3.63373e-15 0)
(3 3.99892e-15 0)
(3 3.41462e-15 0)
(3 2.5731e-15 0)
(3 2.5888e-15 0)
(3 1.21941e-15 0)
(3 -7.58866e-17 0)
(3 -2.51824e-16 0)
(3 -6.36641e-17 0)
(3 8.61352e-16 0)
(3 2.23664e-15 0)
(3 1.87027e-15 0)
(3 -4.84695e-16 0)
(3 -1.66883e-15 0)
(3 -2.97702e-15 0)
(3 -2.82453e-15 0)
(3 2.60239e-16 0)
(3 2.21453e-16 0)
(3 2.65297e-16 0)
(3 3.25304e-16 0)
(3 -2.04736e-16 0)
(3 -1.29508e-15 0)
(3 -1.16325e-15 0)
(3 -6.74116e-16 0)
(3 -1.33537e-15 0)
(3 -1.265e-15 0)
(3 -9.29554e-16 0)
(3 -1.43432e-15 0)
(3 -9.1484e-16 0)
(3 1.80269e-16 0)
(3 6.62061e-16 0)
(3 -6.50194e-17 0)
(3 -1.19025e-16 0)
(3 6.0483e-17 0)
(3 1.61789e-16 0)
(3 3.30387e-16 0)
(3 5.09686e-16 0)
(3 4.72923e-17 0)
(3 1.30808e-16 0)
(3 -2.27934e-16 0)
(3 -1.90385e-15 0)
(3 -1.6078e-15 0)
(3 -2.85273e-16 0)
(3 -1.62846e-16 0)
(3 -4.37246e-16 0)
(3 -5.29213e-16 0)
(3 4.56045e-16 0)
(3 1.42694e-15 0)
(3 2.60124e-15 0)
(3 3.26475e-15 0)
(3 4.15825e-15 0)
(3 5.20831e-15 0)
(3 4.90791e-15 0)
(3 1.84593e-15 0)
(3 -1.73894e-16 0)
(3 -6.09991e-16 0)
(3 -1.1209e-15 0)
(3 -2.29264e-15 0)
(3 -2.64453e-15 0)
(3 -2.14869e-15 0)
(3 -1.12398e-15 0)
(3 -1.85953e-15 0)
(3 -2.56143e-15 0)
(3 -2.51038e-15 0)
(3 -2.51161e-15 0)
(3 -2.29515e-15 0)
(3 -1.88469e-15 0)
(3 -6.76129e-16 0)
(3 -5.57108e-16 0)
(3 -6.31387e-16 0)
(3 -5.96036e-16 0)
(3 -1.92795e-15 0)
(3 -2.9697e-15 0)
(3 -2.45785e-15 0)
(3 -1.35155e-15 0)
(3 -8.94703e-16 0)
(3 -1.15967e-15 0)
(3 -1.25199e-15 0)
(3 -1.10359e-15 0)
(3 -7.58722e-16 0)
(3 -4.9834e-16 0)
(3 2.5602e-16 0)
(3 9.91896e-16 0)
(3 1.22185e-15 0)
(3 9.69771e-16 0)
(3 4.16959e-16 0)
(3 1.28842e-15 0)
(3 1.82627e-15 0)
(3 1.91021e-15 0)
(3 1.16481e-15 0)
(3 1.27008e-15 0)
(3 5.96472e-16 0)
(3 4.32288e-16 0)
(3 7.53004e-16 0)
(3 9.7814e-16 0)
(3 2.92092e-15 0)
(3 4.05614e-15 0)
(3 4.4325e-15 0)
(3 4.01009e-15 0)
(3 3.12234e-15 0)
(3 1.28555e-15 0)
(3 5.82281e-16 0)
(3 -9.25223e-16 0)
(3 -9.73381e-16 0)
(3 -4.4748e-16 0)
(3 9.5535e-16 0)
(3 2.25177e-15 0)
(3 2.39134e-15 0)
(3 8.85131e-16 0)
(3 -1.0151e-15 0)
(3 -2.21015e-15 0)
(3 -1.97691e-15 0)
(3 9.9584e-17 0)
(3 4.05093e-16 0)
(3 1.50946e-17 0)
(3 -4.64689e-16 0)
(3 -6.94222e-16 0)
(3 -4.68222e-16 0)
(3 1.97385e-16 0)
(3 6.78685e-16 0)
(3 1.10687e-15 0)
(3 4.0143e-16 0)
(3 -7.53721e-16 0)
(3 -1.054e-15 0)
(3 -9.04848e-16 0)
(3 -5.68902e-16 0)
(3 -5.5169e-17 0)
(3 -8.41252e-17 0)
(3 -1.59069e-16 0)
(3 4.1265e-17 0)
(3 -2.83069e-16 0)
(3 -5.12349e-16 0)
(3 -8.82289e-16 0)
(3 -4.89827e-16 0)
(3 -4.44427e-16 0)
(3 -1.17676e-15 0)
(3 -1.84557e-15 0)
(3 -1.99027e-15 0)
(3 -2.1394e-15 0)
(3 -1.64174e-15 0)
(3 -1.51795e-15 0)
(3 -8.582e-16 0)
(3 2.13035e-17 0)
(3 8.05677e-16 0)
(3 2.22182e-15 0)
(3 4.66504e-15 0)
(3 5.88475e-15 0)
(3 5.66359e-15 0)
(3 4.28067e-15 0)
(3 6.42313e-17 0)
(3 -5.66155e-16 0)
(3 -7.81952e-16 0)
(3 -1.767e-15 0)
(3 -2.88775e-15 0)
(3 -2.51694e-15 0)
(3 4.17929e-17 0)
(3 -4.80819e-17 0)
(3 -9.70869e-16 0)
(3 -1.70794e-15 0)
(3 -2.20521e-15 0)
(3 -2.45892e-15 0)
(3 -2.20643e-15 0)
(3 -1.75762e-15 0)
(3 -9.50694e-16 0)
(3 -1.09363e-15 0)
(3 -2.11572e-15 0)
(3 -2.04462e-15 0)
(3 -1.76623e-15 0)
(3 -1.8685e-15 0)
(3 -1.88542e-15 0)
(3 -2.31637e-15 0)
(3 -2.60036e-15 0)
(3 -1.39617e-15 0)
(3 -9.18248e-16 0)
(3 -1.1354e-15 0)
(3 -6.97638e-16 0)
(3 -3.78972e-16 0)
(3 2.43045e-16 0)
(3 4.98254e-16 0)
(3 1.22401e-15 0)
(3 9.60554e-16 0)
(3 9.13497e-16 0)
(3 2.04342e-16 0)
(3 -1.06021e-17 0)
(3 -9.99066e-16 0)
(3 -2.59491e-15 0)
(3 -3.31195e-15 0)
(3 -1.39439e-15 0)
(3 8.75951e-17 0)
(3 4.83489e-16 0)
(3 1.58083e-15 0)
(3 2.3284e-15 0)
(3 2.5078e-15 0)
(3 1.67454e-15 0)
(3 1.65029e-15 0)
(3 1.49132e-15 0)
(3 1.1439e-15 0)
(3 6.86684e-16 0)
(3 -2.46107e-16 0)
(3 -4.46051e-16 0)
(3 1.33764e-15 0)
(3 2.06118e-15 0)
(3 2.05659e-15 0)
(3 2.36046e-15 0)
(3 2.48585e-15 0)
(3 2.5894e-15 0)
(3 1.91535e-15 0)
(3 2.22294e-15 0)
(3 -2.25487e-16 0)
(3 -5.15729e-17 0)
(3 2.11873e-16 0)
(3 5.98949e-17 0)
(3 2.63393e-16 0)
(3 6.87165e-16 0)
(3 7.69131e-16 0)
(3 1.32e-15 0)
(3 1.10462e-15 0)
(3 4.33922e-16 0)
(3 4.16233e-16 0)
(3 6.73432e-16 0)
(3 6.04334e-16 0)
(3 3.55392e-16 0)
(3 -6.69352e-17 0)
(3 -1.05513e-15 0)
(3 -1.1498e-15 0)
(3 -9.48745e-16 0)
(3 -6.46245e-16 0)
(3 -5.02744e-16 0)
(3 -1.05487e-15 0)
(3 -9.93077e-16 0)
(3 -1.22207e-15 0)
(3 -1.67172e-15 0)
(3 -1.12706e-15 0)
(3 -9.97016e-16 0)
(3 -1.39128e-15 0)
(3 -1.49939e-15 0)
(3 -1.6046e-15 0)
(3 -6.47633e-16 0)
(3 2.91194e-16 0)
(3 6.37689e-16 0)
(3 1.56721e-15 0)
(3 1.82001e-15 0)
(3 2.66661e-15 0)
(3 2.14798e-15 0)
(3 8.56859e-16 0)
(3 6.23713e-17 0)
(3 -5.00792e-16 0)
(3 -1.2035e-16 0)
(3 -4.26159e-16 0)
(3 -7.98659e-16 0)
(3 -8.49694e-16 0)
(3 -4.8724e-16 0)
(3 -2.0323e-16 0)
(3 1.9376e-16 0)
(3 4.50847e-16 0)
(3 5.74537e-16 0)
(3 3.60362e-16 0)
(3 6.32412e-16 0)
(3 8.92811e-17 0)
(3 -6.79576e-16 0)
(3 -1.11814e-15 0)
(3 -1.43969e-15 0)
(3 -1.70319e-15 0)
(3 -1.87325e-15 0)
(3 -1.4696e-15 0)
(3 -2.00596e-15 0)
(3 -2.59367e-15 0)
(3 -2.45684e-15 0)
(3 -1.3827e-15 0)
(3 -3.3005e-16 0)
(3 -7.76498e-17 0)
(3 -5.33175e-18 0)
(3 2.55635e-17 0)
(3 -1.37288e-16 0)
(3 4.07635e-16 0)
(3 4.01406e-16 0)
(3 1.81843e-16 0)
(3 1.0451e-15 0)
(3 6.14123e-16 0)
(3 -6.50392e-17 0)
(3 -5.85306e-16 0)
(3 -1.54553e-15 0)
(3 -2.24262e-15 0)
(3 -2.30404e-15 0)
(3 -1.65852e-15 0)
(3 -1.16413e-15 0)
(3 -3.78334e-16 0)
(3 -9.29674e-17 0)
(3 -6.304e-16 0)
(3 -1.21402e-15 0)
(3 -3.10824e-16 0)
(3 2.5755e-16 0)
(3 5.68114e-16 0)
(3 4.82107e-16 0)
(3 5.98803e-16 0)
(3 4.01774e-16 0)
(3 2.56742e-15 0)
(3 2.93674e-15 0)
(3 2.56105e-15 0)
(3 2.50918e-15 0)
(3 3.34456e-15 0)
(3 4.16681e-15 0)
(3 4.57614e-15 0)
(3 4.8838e-15 0)
(3 -1.03797e-17 0)
(3 -2.61069e-16 0)
(3 -4.79552e-17 0)
(3 1.3181e-16 0)
(3 1.03117e-15 0)
(3 1.83428e-15 0)
(3 2.14061e-15 0)
(3 1.8925e-15 0)
(3 1.2503e-15 0)
(3 2.43946e-16 0)
(3 4.53759e-17 0)
(3 1.51674e-16 0)
(3 1.38877e-16 0)
(3 3.97543e-16 0)
(3 3.75472e-16 0)
(3 -1.07484e-15 0)
(3 -1.6781e-15 0)
(3 -1.7851e-15 0)
(3 -1.30485e-15 0)
(3 -1.06241e-15 0)
(3 -7.58007e-16 0)
(3 -5.28208e-16 0)
(3 -7.52159e-16 0)
(3 -4.58499e-16 0)
(3 1.34489e-16 0)
(3 8.95924e-16 0)
(3 1.36227e-15 0)
(3 4.69854e-16 0)
(3 -3.8532e-16 0)
(3 -3.68552e-16 0)
(3 -1.28439e-16 0)
(3 7.63325e-16 0)
(3 1.06549e-15 0)
(3 7.88461e-16 0)
(3 2.97101e-16 0)
(3 -3.68223e-16 0)
(3 3.15762e-16 0)
(3 1.91249e-15 0)
(3 1.77045e-15 0)
(3 2.10754e-15 0)
(3 2.50123e-15 0)
(3 4.02612e-15 0)
(3 3.4193e-15 0)
(3 1.07295e-15 0)
(3 2.94946e-16 0)
(3 4.20198e-16 0)
(3 3.33216e-16 0)
(3 1.46562e-15 0)
(3 3.02256e-15 0)
(3 3.38962e-15 0)
(3 1.64016e-15 0)
(3 -1.02749e-15 0)
(3 -1.89658e-15 0)
(3 -6.32822e-16 0)
(3 -7.9461e-16 0)
(3 -9.63535e-16 0)
(3 -1.0747e-15 0)
(3 -1.47685e-15 0)
(3 -1.02947e-15 0)
(3 -4.82662e-16 0)
(3 -5.10205e-16 0)
(3 -6.75636e-16 0)
(3 -9.87965e-16 0)
(3 -4.56498e-16 0)
(3 8.94789e-16 0)
(3 1.37171e-15 0)
(3 1.11592e-15 0)
(3 1.50132e-15 0)
(3 2.03796e-15 0)
(3 2.72247e-15 0)
(3 2.96457e-15 0)
(3 2.17325e-15 0)
(3 1.69149e-15 0)
(3 9.6014e-16 0)
(3 3.60352e-16 0)
(3 -5.10801e-16 0)
(3 -8.51955e-16 0)
(3 -7.77345e-16 0)
(3 -8.97496e-16 0)
(3 -1.6679e-15 0)
(3 -2.28045e-15 0)
(3 -1.57493e-15 0)
(3 -1.20522e-15 0)
(3 -1.30317e-15 0)
(3 -1.18943e-15 0)
(3 -9.70119e-16 0)
(3 -4.57078e-16 0)
(3 -7.56268e-16 0)
(3 -1.25216e-15 0)
(3 -9.34508e-16 0)
(3 -1.26366e-16 0)
(3 8.25896e-16 0)
(3 1.47019e-15 0)
(3 2.57169e-15 0)
(3 3.08022e-15 0)
(3 2.85033e-15 0)
(3 6.81645e-17 0)
(3 -3.15656e-16 0)
(3 -4.55444e-16 0)
(3 -6.07309e-16 0)
(3 -8.40888e-17 0)
(3 1.00905e-16 0)
(3 4.19238e-16 0)
(3 -3.44497e-16 0)
(3 3.27524e-16 0)
(3 8.0775e-16 0)
(3 -3.0276e-16 0)
(3 6.18008e-17 0)
(3 -7.37263e-17 0)
(3 -5.5165e-16 0)
(3 -1.76332e-16 0)
(3 -2.88822e-16 0)
(3 -6.03168e-16 0)
(3 -1.52017e-15 0)
(3 -1.92408e-15 0)
(3 -1.11265e-15 0)
(3 -6.46261e-16 0)
(3 -1.29735e-17 0)
(3 5.86436e-16 0)
(3 1.32525e-15 0)
(3 2.45783e-15 0)
(3 2.91242e-15 0)
(3 2.76316e-15 0)
(3 1.3621e-15 0)
(3 7.37346e-16 0)
(3 8.0028e-18 0)
(3 -4.50951e-16 0)
(3 7.98636e-17 0)
(3 6.31611e-16 0)
(3 2.74623e-16 0)
(3 -1.58221e-16 0)
(3 -9.86001e-16 0)
(3 1.35936e-15 0)
(3 2.53272e-15 0)
(3 3.12386e-15 0)
(3 3.10059e-15 0)
(3 4.00432e-15 0)
(3 5.17937e-15 0)
(3 4.89157e-15 0)
(3 3.87353e-15 0)
(3 3.1726e-15 0)
(3 2.59197e-15 0)
(3 2.36499e-15 0)
(3 2.73639e-15 0)
(3 4.39483e-15 0)
(3 4.39544e-15 0)
(3 2.40009e-15 0)
(3 -8.2546e-16 0)
(3 -1.18821e-15 0)
(3 -1.01814e-15 0)
(3 -6.89226e-16 0)
(3 -8.58048e-16 0)
(3 -1.76754e-15 0)
(3 -9.08334e-16 0)
(3 -7.65151e-16 0)
(3 -7.80339e-16 0)
(3 -1.15989e-15 0)
(3 -1.59234e-15 0)
(3 -1.68106e-15 0)
(3 -3.20496e-16 0)
(3 9.11241e-16 0)
(3 1.31195e-15 0)
(3 2.7987e-16 0)
(3 2.55501e-16 0)
(3 2.55405e-15 0)
(3 3.8847e-15 0)
(3 3.72381e-15 0)
(3 3.10341e-15 0)
(3 1.76834e-15 0)
(3 9.87938e-16 0)
(3 5.84351e-16 0)
(3 -2.02352e-16 0)
(3 -4.06495e-16 0)
(3 -2.67155e-16 0)
(3 -7.0849e-16 0)
(3 -1.19578e-15 0)
(3 -5.54654e-16 0)
(3 2.19312e-16 0)
(3 9.025e-16 0)
(3 -7.5324e-16 0)
(3 -1.66968e-15 0)
(3 -1.64578e-15 0)
(3 -1.42971e-15 0)
(3 -1.42628e-15 0)
(3 -1.72006e-15 0)
(3 -1.66269e-15 0)
(3 -8.81833e-16 0)
(3 -4.30652e-16 0)
(3 -6.7279e-16 0)
(3 -8.19138e-17 0)
(3 1.74425e-15 0)
(3 3.75971e-15 0)
(3 -1.75495e-16 0)
(3 -1.43564e-16 0)
(3 -2.55776e-17 0)
(3 2.4019e-17 0)
(3 -8.89011e-16 0)
(3 -1.12781e-15 0)
(3 -8.83735e-16 0)
(3 -9.80862e-16 0)
(3 -6.66916e-16 0)
(3 -1.34685e-16 0)
(3 1.35426e-16 0)
(3 9.43677e-17 0)
(3 -6.20276e-16 0)
(3 -1.69402e-15 0)
(3 -1.80249e-15 0)
(3 -1.04943e-15 0)
(3 -2.10887e-16 0)
(3 -2.3648e-16 0)
(3 -1.44901e-15 0)
(3 -1.46861e-15 0)
(3 -6.42684e-16 0)
(3 3.45466e-16 0)
(3 2.07748e-15 0)
(3 3.37154e-15 0)
(3 3.42135e-15 0)
(3 2.52048e-15 0)
(3 1.79747e-15 0)
(3 1.99058e-15 0)
(3 2.03116e-15 0)
(3 1.25026e-15 0)
(3 1.64118e-16 0)
(3 -8.47006e-16 0)
(3 -1.37367e-15 0)
(3 -1.45305e-15 0)
(3 -8.26749e-16 0)
(3 6.14844e-16 0)
(3 3.07817e-15 0)
(3 3.04299e-15 0)
(3 2.59723e-15 0)
(3 2.0647e-15 0)
(3 4.1473e-15 0)
(3 4.88747e-15 0)
(3 4.04176e-15 0)
(3 3.29628e-15 0)
(3 2.8907e-15 0)
(3 3.02606e-15 0)
(3 4.15814e-15 0)
(3 3.67451e-15 0)
(3 3.53477e-15 0)
(3 2.87285e-15 0)
(3 1.62303e-15 0)
(3 4.33438e-16 0)
(3 -2.14897e-16 0)
(3 -1.91024e-15 0)
(3 -2.05455e-15 0)
(3 -2.38271e-15 0)
(3 -2.7588e-15 0)
(3 -2.68762e-15 0)
(3 -3.30474e-15 0)
(3 -3.71257e-15 0)
(3 -2.94827e-15 0)
(3 -9.38913e-16 0)
(3 -1.27371e-16 0)
(3 -2.07629e-16 0)
(3 -1.16001e-15 0)
(3 -1.28478e-15 0)
(3 -4.21491e-16 0)
(3 5.60568e-16 0)
(3 1.86082e-15 0)
(3 2.23879e-15 0)
(3 2.37069e-15 0)
(3 3.19149e-15 0)
(3 2.61239e-15 0)
(3 4.96429e-16 0)
(3 3.3762e-17 0)
(3 -6.70219e-18 0)
(3 -1.50271e-16 0)
(3 -4.14303e-16 0)
(3 -2.7683e-17 0)
(3 8.72359e-16 0)
(3 2.9218e-15 0)
(3 3.14413e-15 0)
(3 2.70824e-15 0)
(3 2.46759e-17 0)
(3 -1.31494e-15 0)
(3 -1.30515e-15 0)
(3 -1.36884e-15 0)
(3 -1.23598e-15 0)
(3 -5.74339e-16 0)
(3 -7.70569e-17 0)
(3 6.49321e-16 0)
(3 7.19566e-16 0)
(3 5.66789e-16 0)
(3 3.99288e-16 0)
(3 1.48982e-15 0)
(3 3.08063e-15 0)
(3 -7.06089e-17 0)
(3 2.60825e-16 0)
(3 4.79131e-17 0)
(3 -1.85184e-16 0)
(3 -8.81109e-16 0)
(3 -8.38924e-16 0)
(3 -1.07851e-15 0)
(3 -3.27357e-17 0)
(3 -5.48471e-16 0)
(3 -7.86894e-16 0)
(3 -9.49104e-16 0)
(3 -1.45188e-15 0)
(3 -2.10408e-15 0)
(3 -2.09824e-15 0)
(3 -1.83063e-15 0)
(3 -1.3184e-15 0)
(3 -8.32634e-16 0)
(3 -4.1922e-16 0)
(3 -7.06612e-16 0)
(3 -1.13392e-15 0)
(3 -7.84138e-16 0)
(3 -8.52127e-16 0)
(3 -1.91094e-16 0)
(3 8.79321e-16 0)
(3 1.7568e-15 0)
(3 2.48898e-15 0)
(3 2.3009e-15 0)
(3 1.3564e-15 0)
(3 6.52833e-16 0)
(3 -6.62757e-16 0)
(3 -2.05577e-15 0)
(3 -2.53166e-15 0)
(3 -1.60378e-15 0)
(3 -1.54673e-16 0)
(3 7.36425e-16 0)
(3 1.5707e-15 0)
(3 2.94231e-15 0)
(3 3.05384e-15 0)
(3 3.20218e-15 0)
(3 3.17326e-15 0)
(3 3.89749e-15 0)
(3 4.0172e-15 0)
(3 4.21313e-15 0)
(3 4.07035e-15 0)
(3 3.93509e-15 0)
(3 3.85657e-15 0)
(3 3.75078e-15 0)
(3 3.69979e-15 0)
(3 3.29803e-15 0)
(3 2.09595e-15 0)
(3 1.50653e-15 0)
(3 1.55971e-15 0)
(3 2.69666e-16 0)
(3 -1.66869e-15 0)
(3 -3.36753e-15 0)
(3 -3.66215e-15 0)
(3 -2.69562e-15 0)
(3 -2.52432e-15 0)
(3 -2.05287e-15 0)
(3 -1.44709e-15 0)
(3 -9.58578e-16 0)
(3 -1.04447e-16 0)
(3 8.99891e-16 0)
(3 9.34828e-16 0)
(3 -2.21324e-16 0)
(3 -7.82319e-16 0)
(3 -2.38286e-16 0)
(3 7.3832e-16 0)
(3 9.57184e-16 0)
(3 3.62283e-16 0)
(3 1.13333e-15 0)
(3 2.06575e-15 0)
(3 7.30539e-16 0)
(3 -1.45978e-15 0)
(3 -1.46572e-15 0)
(3 -2.43197e-16 0)
(3 9.558e-16 0)
(3 1.08953e-15 0)
(3 1.27908e-15 0)
(3 3.16171e-15 0)
(3 3.15275e-15 0)
(3 1.63231e-15 0)
(3 7.18511e-17 0)
(3 1.58157e-16 0)
(3 4.80048e-16 0)
(3 -1.77925e-16 0)
(3 -8.5685e-16 0)
(3 -9.95314e-16 0)
(3 -1.01775e-15 0)
(3 8.93588e-18 0)
(3 -7.01093e-17 0)
(3 6.35302e-16 0)
(3 1.58369e-15 0)
(3 -9.8071e-17 0)
(3 -4.22561e-16 0)
(3 1.02254e-15 0)
(3 4.66645e-17 0)
(3 1.9092e-16 0)
(3 -1.61252e-16 0)
(3 -4.52374e-16 0)
(3 -4.54768e-16 0)
(3 -5.55816e-16 0)
(3 -8.77485e-16 0)
(3 -1.0411e-15 0)
(3 -9.73739e-16 0)
(3 -1.32893e-15 0)
(3 -1.9774e-15 0)
(3 -2.22006e-15 0)
(3 -2.23544e-15 0)
(3 -1.1067e-15 0)
(3 2.58875e-16 0)
(3 4.32993e-16 0)
(3 4.24248e-16 0)
(3 1.02042e-16 0)
(3 1.86027e-16 0)
(3 8.65023e-16 0)
(3 7.20921e-16 0)
(3 1.34606e-16 0)
(3 -2.03247e-16 0)
(3 -1.63871e-16 0)
(3 8.12894e-16 0)
(3 1.58325e-15 0)
(3 1.52445e-15 0)
(3 6.55432e-16 0)
(3 3.04219e-16 0)
(3 -1.55243e-16 0)
(3 -9.74468e-16 0)
(3 -7.01864e-16 0)
(3 -4.22383e-16 0)
(3 5.41906e-16 0)
(3 2.11749e-15 0)
(3 2.29115e-15 0)
(3 1.95385e-15 0)
(3 2.11202e-15 0)
(3 2.45365e-15 0)
(3 3.14837e-15 0)
(3 2.80761e-15 0)
(3 1.93066e-15 0)
(3 2.24996e-15 0)
(3 2.62231e-15 0)
(3 3.02916e-15 0)
(3 3.37017e-15 0)
(3 2.62164e-15 0)
(3 2.54386e-15 0)
(3 2.23908e-15 0)
(3 1.88027e-15 0)
(3 1.46088e-15 0)
(3 1.01283e-15 0)
(3 5.34492e-18 0)
(3 -1.18082e-15 0)
(3 -1.83862e-15 0)
(3 -1.93794e-15 0)
(3 -1.35433e-15 0)
(3 -7.76294e-17 0)
(3 1.06712e-15 0)
(3 2.34442e-15 0)
(3 2.30158e-15 0)
(3 2.16961e-15 0)
(3 1.75473e-15 0)
(3 1.47399e-15 0)
(3 1.23232e-15 0)
(3 1.25598e-15 0)
(3 2.20031e-16 0)
(3 2.51465e-16 0)
(3 1.75747e-16 0)
(3 -3.52353e-16 0)
(3 -2.02534e-16 0)
(3 -6.78697e-17 0)
(3 -7.28842e-16 0)
(3 -1.4884e-15 0)
(3 -1.43115e-15 0)
(3 -4.46843e-16 0)
(3 6.12459e-16 0)
(3 1.68607e-15 0)
(3 1.77406e-15 0)
(3 1.92227e-15 0)
(3 1.63444e-15 0)
(3 1.04242e-15 0)
(3 7.3342e-16 0)
(3 7.28359e-16 0)
(3 1.53944e-15 0)
(3 1.44839e-15 0)
(3 1.01696e-15 0)
(3 5.58387e-16 0)
(3 3.35643e-16 0)
(3 7.53058e-16 0)
(3 7.25206e-16 0)
(3 9.6442e-16 0)
(3 8.48762e-16 0)
(3 -1.88543e-17 0)
(3 -9.7214e-16 0)
(3 -7.87872e-17 0)
(3 6.9563e-17 0)
(3 -4.23921e-16 0)
(3 -1.92554e-16 0)
(3 5.28598e-18 0)
(3 -2.47673e-17 0)
(3 -3.55344e-16 0)
(3 -2.85614e-16 0)
(3 6.70367e-17 0)
(3 9.48254e-16 0)
(3 -2.24967e-16 0)
(3 -1.0264e-15 0)
(3 -1.29892e-15 0)
(3 -1.11449e-15 0)
(3 -8.08433e-16 0)
(3 2.33643e-16 0)
(3 1.87083e-15 0)
(3 2.48173e-15 0)
(3 2.44027e-15 0)
(3 2.46798e-15 0)
(3 1.9195e-15 0)
(3 1.47496e-15 0)
(3 1.71415e-15 0)
(3 1.18157e-15 0)
(3 -1.9413e-16 0)
(3 -4.58352e-16 0)
(3 4.6176e-17 0)
(3 4.82244e-16 0)
(3 8.94346e-17 0)
(3 1.38375e-16 0)
(3 1.21936e-15 0)
(3 5.91742e-16 0)
(3 3.64367e-16 0)
(3 -1.42206e-16 0)
(3 -2.03134e-16 0)
(3 5.66805e-16 0)
(3 1.41829e-15 0)
(3 6.73749e-16 0)
(3 1.60769e-15 0)
(3 1.77798e-15 0)
(3 1.16975e-15 0)
(3 5.75038e-16 0)
(3 9.87947e-16 0)
(3 1.7215e-15 0)
(3 2.24461e-15 0)
(3 3.11563e-15 0)
(3 3.42907e-15 0)
(3 3.09918e-15 0)
(3 2.08091e-15 0)
(3 1.08762e-15 0)
(3 9.9241e-16 0)
(3 9.58905e-16 0)
(3 4.50124e-16 0)
(3 7.95625e-17 0)
(3 -3.45757e-16 0)
(3 -3.19506e-16 0)
(3 -9.98398e-16 0)
(3 -1.34229e-15 0)
(3 -9.62336e-16 0)
(3 -2.06073e-16 0)
(3 2.04813e-16 0)
(3 1.01878e-15 0)
(3 1.3391e-15 0)
(3 1.21812e-15 0)
(3 1.03099e-15 0)
(3 1.722e-15 0)
(3 1.80055e-15 0)
(3 1.99492e-15 0)
(3 1.59792e-15 0)
(3 7.75461e-16 0)
(3 -8.66605e-16 0)
(3 -2.42764e-15 0)
(3 -2.50383e-15 0)
(3 -1.71146e-15 0)
(3 -1.28892e-15 0)
(3 -1.25121e-15 0)
(3 -4.8579e-16 0)
(3 -1.80219e-16 0)
(3 3.47664e-16 0)
(3 1.09399e-15 0)
(3 7.09884e-16 0)
(3 8.078e-16 0)
(3 1.76678e-15 0)
(3 1.9772e-15 0)
(3 1.49141e-15 0)
(3 1.10518e-15 0)
(3 1.2187e-15 0)
(3 1.14212e-15 0)
(3 9.87331e-16 0)
(3 1.61501e-15 0)
(3 1.25214e-15 0)
(3 1.56721e-15 0)
(3 1.22463e-15 0)
(3 4.23111e-16 0)
(3 1.87948e-17 0)
(3 -1.22821e-15 0)
(3 -1.81628e-15 0)
(3 -1.30094e-16 0)
(3 -2.99459e-16 0)
(3 9.6276e-18 0)
(3 -9.85439e-17 0)
(3 -7.67245e-16 0)
(3 -2.97689e-16 0)
(3 3.82185e-16 0)
(3 1.64239e-15 0)
(3 1.70541e-15 0)
(3 7.08359e-16 0)
(3 1.14483e-16 0)
(3 2.5879e-16 0)
(3 3.41828e-16 0)
(3 -3.24505e-16 0)
(3 2.8342e-17 0)
(3 2.1569e-16 0)
(3 1.0749e-15 0)
(3 2.20109e-15 0)
(3 2.26021e-15 0)
(3 2.40019e-15 0)
(3 2.48386e-15 0)
(3 2.12299e-15 0)
(3 1.81642e-15 0)
(3 1.75482e-15 0)
(3 1.31008e-15 0)
(3 1.40745e-15 0)
(3 1.53761e-15 0)
(3 1.70069e-15 0)
(3 9.99583e-16 0)
(3 6.43031e-16 0)
(3 6.75391e-16 0)
(3 1.14896e-16 0)
(3 -3.07497e-16 0)
(3 -3.05806e-16 0)
(3 -6.85327e-16 0)
(3 -9.87085e-16 0)
(3 -9.43228e-16 0)
(3 5.33558e-16 0)
(3 1.66311e-15 0)
(3 1.32739e-15 0)
(3 1.17968e-15 0)
(3 2.24573e-15 0)
(3 2.9727e-15 0)
(3 2.54735e-15 0)
(3 3.001e-15 0)
(3 2.96711e-15 0)
(3 2.06336e-15 0)
(3 1.1959e-15 0)
(3 6.8827e-16 0)
(3 7.05705e-16 0)
(3 2.67233e-16 0)
(3 -8.02526e-16 0)
(3 -1.05215e-15 0)
(3 -8.05464e-16 0)
(3 -1.07735e-15 0)
(3 -1.09231e-15 0)
(3 -1.36985e-15 0)
(3 -2.02394e-15 0)
(3 -2.47737e-15 0)
(3 -2.51064e-15 0)
(3 -2.09145e-15 0)
(3 -2.00312e-15 0)
(3 -6.94959e-16 0)
(3 4.83363e-16 0)
(3 1.79214e-15 0)
(3 1.60987e-15 0)
(3 1.64517e-15 0)
(3 1.08699e-15 0)
(3 1.82475e-17 0)
(3 -1.70523e-15 0)
(3 -3.34567e-15 0)
(3 -3.85419e-15 0)
(3 -2.54557e-15 0)
(3 -1.06875e-15 0)
(3 -8.56821e-16 0)
(3 -1.6721e-15 0)
(3 -2.06583e-15 0)
(3 -2.12296e-15 0)
(3 -1.80906e-15 0)
(3 -1.15363e-15 0)
(3 -2.73029e-16 0)
(3 5.48745e-16 0)
(3 9.46051e-16 0)
(3 1.64286e-15 0)
(3 2.32154e-15 0)
(3 2.41833e-15 0)
(3 3.28661e-15 0)
(3 3.68858e-15 0)
(3 3.29767e-15 0)
(3 1.46736e-15 0)
(3 -1.063e-15 0)
(3 -1.07653e-15 0)
(3 -1.7626e-16 0)
(3 -3.12531e-16 0)
(3 -1.30715e-15 0)
(3 -2.50485e-15 0)
(3 -2.62139e-17 0)
(3 1.14925e-16 0)
(3 3.47087e-16 0)
(3 8.58648e-17 0)
(3 -2.35518e-16 0)
(3 1.84749e-16 0)
(3 4.3258e-16 0)
(3 1.07008e-15 0)
(3 9.64691e-16 0)
(3 1.41334e-15 0)
(3 9.78418e-16 0)
(3 6.00927e-16 0)
(3 7.05664e-16 0)
(3 7.58944e-16 0)
(3 -4.08675e-17 0)
(3 -1.05149e-15 0)
(3 -7.58948e-16 0)
(3 3.79717e-16 0)
(3 1.04837e-15 0)
(3 1.77974e-15 0)
(3 2.22884e-15 0)
(3 1.9643e-15 0)
(3 1.6935e-15 0)
(3 1.43737e-15 0)
(3 1.28033e-15 0)
(3 8.4869e-16 0)
(3 1.00663e-15 0)
(3 1.91343e-15 0)
(3 2.25647e-15 0)
(3 2.29303e-15 0)
(3 2.74215e-15 0)
(3 2.2466e-15 0)
(3 1.13271e-15 0)
(3 9.76974e-16 0)
(3 7.82795e-16 0)
(3 -1.91673e-17 0)
(3 2.37312e-16 0)
(3 3.11274e-16 0)
(3 9.52136e-16 0)
(3 1.96008e-15 0)
(3 1.58048e-15 0)
(3 1.09504e-15 0)
(3 6.96388e-16 0)
(3 2.87486e-16 0)
(3 -4.44429e-16 0)
(3 -2.09551e-16 0)
(3 5.66582e-17 0)
(3 -4.897e-16 0)
(3 -5.08834e-16 0)
(3 -7.78744e-16 0)
(3 -1.09373e-15 0)
(3 -5.26831e-16 0)
(3 -6.93691e-17 0)
(3 -5.76999e-16 0)
(3 -9.19511e-16 0)
(3 -7.17821e-16 0)
(3 -5.56417e-16 0)
(3 -4.41195e-16 0)
(3 -9.76077e-16 0)
(3 -7.77254e-16 0)
(3 -8.5588e-16 0)
(3 -4.76864e-16 0)
(3 -2.12406e-16 0)
(3 1.40668e-16 0)
(3 2.3594e-16 0)
(3 1.10503e-15 0)
(3 1.35291e-15 0)
(3 1.0016e-15 0)
(3 -5.6825e-16 0)
(3 -1.51736e-15 0)
(3 -2.34484e-15 0)
(3 -1.77851e-15 0)
(3 -1.33045e-15 0)
(3 -6.49451e-16 0)
(3 -7.19697e-16 0)
(3 -1.39566e-15 0)
(3 -2.65034e-15 0)
(3 -2.79238e-15 0)
(3 -2.98083e-15 0)
(3 -2.28193e-15 0)
(3 -1.78089e-15 0)
(3 -1.52421e-15 0)
(3 2.36989e-16 0)
(3 8.45693e-16 0)
(3 1.40847e-15 0)
(3 2.25603e-15 0)
(3 3.4127e-15 0)
(3 3.85916e-15 0)
(3 2.60362e-15 0)
(3 1.18093e-15 0)
(3 5.36482e-16 0)
(3 -6.93377e-17 0)
(3 -2.70727e-16 0)
(3 -2.93136e-16 0)
(3 7.47461e-16 0)
(3 8.32065e-17 0)
(3 -6.66836e-18 0)
(3 -1.60698e-16 0)
(3 -1.46687e-16 0)
(3 8.90589e-17 0)
(3 2.17837e-16 0)
(3 -4.248e-16 0)
(3 -2.37607e-16 0)
(3 2.64832e-16 0)
(3 3.9714e-16 0)
(3 1.22048e-15 0)
(3 1.55805e-15 0)
(3 1.38489e-15 0)
(3 1.10804e-15 0)
(3 1.26082e-15 0)
(3 9.89499e-16 0)
(3 7.4651e-16 0)
(3 4.11294e-16 0)
(3 1.44867e-16 0)
(3 2.54305e-16 0)
(3 6.66429e-16 0)
(3 4.29157e-16 0)
(3 3.05439e-16 0)
(3 3.18311e-16 0)
(3 -1.11738e-16 0)
(3 -4.81766e-16 0)
(3 -6.23456e-16 0)
(3 -2.79371e-16 0)
(3 1.29215e-15 0)
(3 2.99714e-15 0)
(3 3.2369e-15 0)
(3 3.08262e-15 0)
(3 3.13015e-15 0)
(3 2.2927e-15 0)
(3 1.68634e-15 0)
(3 1.43536e-15 0)
(3 -3.19195e-16 0)
(3 -1.40522e-15 0)
(3 -1.88472e-15 0)
(3 -1.35639e-15 0)
(3 1.12241e-15 0)
(3 6.64566e-16 0)
(3 1.87105e-16 0)
(3 -6.57298e-16 0)
(3 -1.09625e-15 0)
(3 -1.55565e-15 0)
(3 -1.72259e-15 0)
(3 -1.38109e-15 0)
(3 -1.20398e-15 0)
(3 -1.53448e-15 0)
(3 -1.56031e-15 0)
(3 2.8277e-17 0)
(3 4.90756e-16 0)
(3 5.99869e-16 0)
(3 5.65972e-16 0)
(3 8.48091e-16 0)
(3 1.54781e-15 0)
(3 2.3743e-15 0)
(3 2.74872e-15 0)
(3 3.59489e-15 0)
(3 4.13149e-15 0)
(3 3.67472e-15 0)
(3 2.60975e-15 0)
(3 1.97777e-15 0)
(3 1.24677e-15 0)
(3 2.18732e-16 0)
(3 2.52108e-16 0)
(3 6.54185e-16 0)
(3 9.24296e-16 0)
(3 8.35592e-16 0)
(3 8.38736e-17 0)
(3 -1.10112e-16 0)
(3 -1.02221e-15 0)
(3 -1.14764e-15 0)
(3 -8.66438e-16 0)
(3 -3.26424e-16 0)
(3 -2.95962e-16 0)
(3 -8.3985e-16 0)
(3 -1.55797e-15 0)
(3 -2.29148e-15 0)
(3 -3.90058e-15 0)
(3 -4.59407e-15 0)
(3 -4.1585e-15 0)
(3 -2.11323e-15 0)
(3 4.8191e-16 0)
(3 1.17667e-15 0)
(3 1.03029e-15 0)
(3 5.74528e-16 0)
(3 4.12725e-16 0)
(3 -2.89769e-16 0)
(3 -9.73486e-16 0)
(3 -5.35138e-16 0)
(3 2.67697e-16 0)
(3 4.0825e-16 0)
(3 1.01474e-15 0)
(3 1.32075e-15 0)
(3 1.25584e-15 0)
(3 -3.54435e-17 0)
(3 -1.18878e-16 0)
(3 -3.54005e-16 0)
(3 -3.62563e-16 0)
(3 -1.58292e-16 0)
(3 2.31298e-16 0)
(3 3.71322e-16 0)
(3 -3.68202e-16 0)
(3 -5.35866e-16 0)
(3 4.73271e-16 0)
(3 2.24304e-15 0)
(3 2.86069e-15 0)
(3 2.11637e-15 0)
(3 1.11952e-15 0)
(3 8.13725e-16 0)
(3 7.3208e-16 0)
(3 7.85764e-16 0)
(3 6.46239e-16 0)
(3 6.4489e-16 0)
(3 5.22333e-16 0)
(3 2.44865e-17 0)
(3 -9.20464e-17 0)
(3 2.9708e-16 0)
(3 -2.27013e-16 0)
(3 -1.43843e-15 0)
(3 -1.23217e-15 0)
(3 1.53874e-15 0)
(3 2.5968e-15 0)
(3 3.19459e-15 0)
(3 3.61909e-15 0)
(3 3.13146e-15 0)
(3 2.87793e-15 0)
(3 1.27103e-15 0)
(3 7.43455e-16 0)
(3 6.93863e-16 0)
(3 -1.95513e-15 0)
(3 -2.92562e-15 0)
(3 -2.74979e-15 0)
(3 -2.17852e-15 0)
(3 -1.03301e-15 0)
(3 -5.1609e-16 0)
(3 -6.75764e-16 0)
(3 -1.31473e-15 0)
(3 -2.04171e-15 0)
(3 -2.59271e-15 0)
(3 -3.3862e-15 0)
(3 -2.65477e-15 0)
(3 -6.13641e-16 0)
(3 -4.82166e-16 0)
(3 3.47867e-16 0)
(3 7.85539e-16 0)
(3 9.20933e-18 0)
(3 -8.42341e-16 0)
(3 -4.28548e-16 0)
(3 9.08175e-16 0)
(3 1.90833e-15 0)
(3 3.70083e-15 0)
(3 4.17761e-15 0)
(3 4.25059e-15 0)
(3 3.44896e-15 0)
(3 2.23265e-15 0)
(3 9.94147e-16 0)
(3 5.93894e-16 0)
(3 5.39484e-16 0)
(3 5.2429e-16 0)
(3 2.13228e-16 0)
(3 -2.78203e-16 0)
(3 -1.5829e-16 0)
(3 6.13523e-16 0)
(3 1.36259e-15 0)
(3 1.7099e-15 0)
(3 1.24605e-15 0)
(3 1.14559e-15 0)
(3 1.27956e-15 0)
(3 1.04959e-15 0)
(3 7.30076e-16 0)
(3 4.87966e-16 0)
(3 -2.79572e-16 0)
(3 -1.0586e-15 0)
(3 -2.88681e-15 0)
(3 -4.69024e-15 0)
(3 -4.93154e-15 0)
(3 -3.44349e-15 0)
(3 1.45688e-15 0)
(3 2.77579e-15 0)
(3 2.34204e-15 0)
(3 6.84011e-16 0)
(3 -1.48854e-15 0)
(3 -1.53657e-15 0)
(3 -1.37618e-15 0)
(3 -9.21111e-16 0)
(3 -5.30917e-16 0)
(3 -7.09926e-16 0)
(3 -7.50385e-16 0)
(3 -1.07504e-15 0)
(3 -1.3769e-15 0)
(3 -1.9569e-17 0)
(3 3.79807e-16 0)
(3 7.71089e-16 0)
(3 7.13012e-16 0)
(3 7.68133e-16 0)
(3 9.12192e-16 0)
(3 6.57098e-16 0)
(3 -2.91722e-16 0)
(3 -7.28924e-16 0)
(3 1.38537e-16 0)
(3 1.53977e-15 0)
(3 1.70284e-15 0)
(3 1.28167e-15 0)
(3 7.13953e-16 0)
(3 2.33238e-16 0)
(3 -4.33075e-16 0)
(3 -1.02176e-15 0)
(3 -5.66805e-16 0)
(3 2.30831e-18 0)
(3 -3.09999e-16 0)
(3 -6.48956e-16 0)
(3 -7.34756e-16 0)
(3 -4.41112e-16 0)
(3 2.02942e-17 0)
(3 -2.44242e-17 0)
(3 9.39555e-16 0)
(3 2.32303e-15 0)
(3 2.29171e-15 0)
(3 2.03234e-15 0)
(3 2.54338e-15 0)
(3 2.4179e-15 0)
(3 1.54576e-15 0)
(3 -7.30092e-18 0)
(3 -4.18331e-16 0)
(3 -1.26138e-15 0)
(3 -1.39299e-15 0)
(3 -1.80443e-15 0)
(3 -5.69469e-16 0)
(3 3.1684e-16 0)
(3 -3.50137e-16 0)
(3 -4.54082e-16 0)
(3 -1.23111e-15 0)
(3 -2.38541e-15 0)
(3 -2.81642e-15 0)
(3 -3.00341e-15 0)
(3 -2.72138e-15 0)
(3 -1.50537e-15 0)
(3 -7.19494e-16 0)
(3 2.83384e-16 0)
(3 9.43931e-16 0)
(3 2.09661e-16 0)
(3 -8.35368e-16 0)
(3 -1.3497e-15 0)
(3 -4.55068e-17 0)
(3 1.16154e-15 0)
(3 1.79872e-15 0)
(3 1.89604e-15 0)
(3 3.30987e-15 0)
(3 4.66173e-15 0)
(3 2.54783e-15 0)
(3 1.35675e-15 0)
(3 4.06835e-16 0)