/*--------------------------------*- C++ -*----------------------------------*\
  =========                 |
  \\      /  F ield         | OpenFOAM: The Open Source CFD Toolbox
   \\    /   O peration     | Website:  https://openfoam.org
    \\  /    A nd           | Version:  7
     \\/     M anipulation  |
\*---------------------------------------------------------------------------*/
FoamFile
{
    version     2.0;
    format      ascii;
    class       volVectorField;
    location    "1.2";
    object      U;
}
// * * * * * * * * * * * * * * * * * * * * * * * * * * * * * * * * * * * * * //

dimensions      [0 1 -1 0 0 0 0];

internalField   nonuniform List<vector> 
73728
(
(3 -1.06571e-16 0)
(3 2.8586e-17 0)
(3 -5.8647e-17 0)
(3 2.91449e-16 0)
(3 3.04344e-16 0)
(3 3.96725e-16 0)
(3 3.88489e-16 0)
(3 5.59519e-16 0)
(3 1.16233e-15 0)
(3 1.52419e-15 0)
(3 8.09424e-16 0)
(3 3.75862e-16 0)
(3 2.58697e-16 0)
(3 3.51038e-16 0)
(3 5.31444e-16 0)
(3 4.1759e-16 0)
(3 7.36447e-16 0)
(3 6.40813e-16 0)
(3 3.10188e-16 0)
(3 -6.78014e-17 0)
(3 -2.17779e-16 0)
(3 2.66395e-17 0)
(3 4.55313e-16 0)
(3 4.34864e-16 0)
(3 1.40286e-15 0)
(3 1.74294e-15 0)
(3 1.43245e-15 0)
(3 -8.21886e-16 0)
(3 -1.64636e-15 0)
(3 -7.76186e-16 0)
(3 1.67008e-17 0)
(3 1.24704e-15 0)
(3 3.54912e-16 0)
(3 5.41398e-17 0)
(3 -1.73174e-16 0)
(3 -8.30254e-16 0)
(3 -1.47169e-15 0)
(3 -8.63308e-16 0)
(3 6.85254e-17 0)
(3 7.66354e-16 0)
(3 1.45477e-15 0)
(3 1.57353e-15 0)
(3 7.05005e-16 0)
(3 -1.89579e-15 0)
(3 -3.77958e-15 0)
(3 -3.4052e-15 0)
(3 -3.16811e-15 0)
(3 -1.50331e-15 0)
(3 -6.3429e-16 0)
(3 2.77348e-17 0)
(3 3.13885e-16 0)
(3 1.39401e-15 0)
(3 8.47036e-16 0)
(3 1.28255e-16 0)
(3 -4.6054e-16 0)
(3 -3.81141e-16 0)
(3 5.3077e-17 0)
(3 2.71455e-16 0)
(3 -6.83574e-17 0)
(3 -3.8161e-16 0)
(3 -6.27589e-16 0)
(3 1.72369e-16 0)
(3 7.63682e-16 0)
(3 -2.88267e-16 0)
(3 -1.66716e-15 0)
(3 -2.13847e-15 0)
(3 -1.82628e-15 0)
(3 -1.67575e-15 0)
(3 -1.9025e-15 0)
(3 -2.56009e-15 0)
(3 -2.93225e-15 0)
(3 -2.85583e-15 0)
(3 -2.42292e-15 0)
(3 -6.25781e-16 0)
(3 8.76771e-17 0)
(3 8.5379e-16 0)
(3 1.10664e-15 0)
(3 1.39455e-15 0)
(3 2.12898e-15 0)
(3 3.62996e-15 0)
(3 9.36457e-16 0)
(3 2.76363e-16 0)
(3 -2.82799e-16 0)
(3 -2.8276e-16 0)
(3 -1.39641e-16 0)
(3 9.97734e-17 0)
(3 -4.36291e-17 0)
(3 1.03585e-16 0)
(3 3.83311e-16 0)
(3 -1.11135e-16 0)
(3 -4.80893e-16 0)
(3 -6.9644e-16 0)
(3 -7.00195e-16 0)
(3 2.24689e-16 0)
(3 6.326e-17 0)
(3 -6.54973e-16 0)
(3 -7.4999e-17 0)
(3 -2.53785e-16 0)
(3 3.00502e-17 0)
(3 7.20426e-16 0)
(3 4.25391e-16 0)
(3 1.30665e-15 0)
(3 2.03465e-15 0)
(3 3.06506e-15 0)
(3 3.38904e-15 0)
(3 3.50691e-15 0)
(3 1.88399e-15 0)
(3 1.11505e-15 0)
(3 9.98186e-16 0)
(3 6.45676e-16 0)
(3 2.54989e-16 0)
(3 -1.56097e-17 0)
(3 3.7834e-16 0)
(3 -2.59859e-17 0)
(3 -5.52177e-16 0)
(3 -7.7459e-16 0)
(3 -6.33369e-16 0)
(3 6.02711e-16 0)
(3 3.09565e-15 0)
(3 4.279e-15 0)
(3 4.29007e-15 0)
(3 3.68871e-15 0)
(3 7.17314e-16 0)
(3 -1.80459e-15 0)
(3 -2.46483e-15 0)
(3 -2.00808e-15 0)
(3 1.35483e-16 0)
(3 1.24053e-15 0)
(3 8.67326e-17 0)
(3 -8.80115e-16 0)
(3 -1.38746e-15 0)
(3 -1.23758e-15 0)
(3 -7.88292e-16 0)
(3 6.04164e-16 0)
(3 2.35952e-15 0)
(3 2.87813e-15 0)
(3 3.19445e-15 0)
(3 2.94567e-15 0)
(3 2.3796e-15 0)
(3 -2.63074e-16 0)
(3 -2.53134e-15 0)
(3 -3.25733e-15 0)
(3 -3.87438e-15 0)
(3 -3.44893e-15 0)
(3 -9.06627e-16 0)
(3 -3.49976e-16 0)
(3 -1.52563e-16 0)
(3 1.35126e-15 0)
(3 1.69458e-16 0)
(3 -5.99006e-16 0)
(3 -1.20934e-15 0)
(3 -5.38718e-16 0)
(3 7.89343e-16 0)
(3 1.61772e-15 0)
(3 2.17988e-15 0)
(3 8.84043e-16 0)
(3 -8.97585e-16 0)
(3 -1.78819e-15 0)
(3 -1.66797e-15 0)
(3 -2.28215e-15 0)
(3 -4.20594e-15 0)
(3 -4.58057e-15 0)
(3 -3.56191e-15 0)
(3 -3.28843e-15 0)
(3 -3.35136e-15 0)
(3 -4.97248e-15 0)
(3 -6.12743e-15 0)
(3 -5.47478e-15 0)
(3 -4.9424e-15 0)
(3 -4.0509e-15 0)
(3 -1.60792e-15 0)
(3 -6.97812e-16 0)
(3 -3.37636e-16 0)
(3 1.58126e-15 0)
(3 4.34281e-15 0)
(3 4.04556e-15 0)
(3 4.84409e-16 0)
(3 -1.77269e-15 0)
(3 -2.4614e-15 0)
(3 -3.11289e-15 0)
(3 -2.44424e-15 0)
(3 -1.37313e-16 0)
(3 -2.11515e-16 0)
(3 -1.32111e-16 0)
(3 -8.28811e-17 0)
(3 -9.70547e-16 0)
(3 -1.19239e-15 0)
(3 -1.75069e-15 0)
(3 -1.23876e-15 0)
(3 -2.69519e-17 0)
(3 3.00775e-16 0)
(3 -3.15278e-16 0)
(3 1.25334e-16 0)
(3 -2.32967e-16 0)
(3 3.15695e-17 0)
(3 3.0263e-17 0)
(3 1.60628e-16 0)
(3 1.5082e-15 0)
(3 3.16633e-15 0)
(3 3.97661e-15 0)
(3 3.6257e-15 0)
(3 2.94087e-15 0)
(3 1.55943e-15 0)
(3 5.52983e-16 0)
(3 2.5852e-16 0)
(3 8.67745e-17 0)
(3 -4.56879e-17 0)
(3 -9.602e-16 0)
(3 -1.51678e-15 0)
(3 -1.77757e-15 0)
(3 -1.73698e-15 0)
(3 -1.69371e-15 0)
(3 -1.40432e-15 0)
(3 1.34268e-16 0)
(3 1.38299e-15 0)
(3 3.81392e-15 0)
(3 3.92875e-15 0)
(3 2.93589e-15 0)
(3 2.50225e-15 0)
(3 2.10782e-15 0)
(3 1.00065e-15 0)
(3 1.23369e-15 0)
(3 2.01945e-15 0)
(3 2.77711e-15 0)
(3 2.61692e-15 0)
(3 1.34577e-15 0)
(3 4.71394e-16 0)
(3 1.3684e-16 0)
(3 8.12862e-16 0)
(3 1.92494e-15 0)
(3 2.4494e-15 0)
(3 2.0899e-15 0)
(3 2.06589e-15 0)
(3 1.2033e-15 0)
(3 6.3506e-16 0)
(3 -5.17128e-18 0)
(3 2.35969e-17 0)
(3 -1.56351e-15 0)
(3 -4.12305e-15 0)
(3 -5.75238e-15 0)
(3 -5.3163e-15 0)
(3 -7.61366e-16 0)
(3 9.34171e-16 0)
(3 6.42985e-16 0)
(3 2.10941e-16 0)
(3 8.14572e-16 0)
(3 1.02435e-15 0)
(3 9.84423e-16 0)
(3 1.34506e-15 0)
(3 1.15885e-15 0)
(3 6.43434e-16 0)
(3 4.12356e-16 0)
(3 -4.38209e-16 0)
(3 -5.28042e-16 0)
(3 -2.37298e-15 0)
(3 -4.66935e-15 0)
(3 -5.38662e-15 0)
(3 -5.8721e-15 0)
(3 -6.00096e-15 0)
(3 -5.66526e-15 0)
(3 -4.57821e-15 0)
(3 -3.50017e-15 0)
(3 -2.30809e-15 0)
(3 -1.48601e-15 0)
(3 -1.81244e-15 0)
(3 -2.06861e-15 0)
(3 -1.15134e-15 0)
(3 -9.8812e-16 0)
(3 -4.86674e-16 0)
(3 1.29439e-15 0)
(3 1.69316e-15 0)
(3 1.85915e-15 0)
(3 2.98246e-16 0)
(3 -1.87346e-15 0)
(3 -2.8292e-15 0)
(3 -3.18786e-15 0)
(3 -1.67527e-15 0)
(3 -7.71483e-16 0)
(3 -1.11219e-15 0)
(3 -1.58528e-15 0)
(3 -1.3934e-15 0)
(3 -1.74612e-15 0)
(3 -1.74143e-15 0)
(3 -1.61007e-15 0)
(3 -1.39471e-15 0)
(3 -1.43482e-15 0)
(3 -1.21642e-15 0)
(3 -5.70377e-16 0)
(3 6.33785e-17 0)
(3 2.84597e-16 0)
(3 1.94725e-16 0)
(3 6.52995e-17 0)
(3 4.97276e-16 0)
(3 9.11246e-16 0)
(3 8.49929e-16 0)
(3 8.71054e-16 0)
(3 6.51809e-16 0)
(3 1.79878e-16 0)
(3 -4.68057e-18 0)
(3 -9.29171e-16 0)
(3 -1.27513e-15 0)
(3 -9.11749e-16 0)
(3 -3.89099e-16 0)
(3 -6.55601e-16 0)
(3 -1.74962e-15 0)
(3 -1.55897e-15 0)
(3 -1.80682e-15 0)
(3 -2.1508e-15 0)
(3 -2.55465e-15 0)
(3 -2.64933e-15 0)
(3 -2.31695e-15 0)
(3 -6.17941e-16 0)
(3 -3.77248e-16 0)
(3 7.13673e-16 0)
(3 2.63792e-15 0)
(3 3.54407e-15 0)
(3 3.18053e-15 0)
(3 4.15087e-15 0)
(3 4.83155e-15 0)
(3 4.97786e-15 0)
(3 4.51784e-15 0)
(3 3.24247e-15 0)
(3 2.27136e-15 0)
(3 1.54225e-15 0)
(3 1.38688e-16 0)
(3 -6.24113e-16 0)
(3 -6.15902e-16 0)
(3 -8.36566e-16 0)
(3 -9.87181e-16 0)
(3 -1.35662e-15 0)
(3 -1.88681e-15 0)
(3 -2.52012e-15 0)
(3 -2.74715e-15 0)
(3 -2.54669e-15 0)
(3 -3.08886e-15 0)
(3 -2.9301e-15 0)
(3 -1.98046e-15 0)
(3 -7.20268e-16 0)
(3 8.08208e-16 0)
(3 5.68178e-16 0)
(3 8.5063e-16 0)
(3 3.34297e-15 0)
(3 4.39233e-15 0)
(3 3.22385e-15 0)
(3 1.49123e-15 0)
(3 8.88784e-16 0)
(3 1.67616e-16 0)
(3 -7.60986e-16 0)
(3 -2.05482e-15 0)
(3 -1.94286e-15 0)
(3 -2.80476e-15 0)
(3 -3.0579e-15 0)
(3 -4.29812e-15 0)
(3 -5.49008e-15 0)
(3 -7.14253e-15 0)
(3 -6.64886e-15 0)
(3 -5.37434e-15 0)
(3 -2.95567e-15 0)
(3 -1.81678e-15 0)
(3 -2.72335e-16 0)
(3 1.59449e-15 0)
(3 2.38312e-15 0)
(3 2.79296e-15 0)
(3 3.37852e-15 0)
(3 4.02035e-15 0)
(3 3.54619e-15 0)
(3 2.56788e-15 0)
(3 8.52023e-16 0)
(3 -4.27076e-16 0)
(3 -9.05024e-16 0)
(3 -1.56886e-15 0)
(3 -1.53174e-15 0)
(3 -1.47421e-15 0)
(3 -1.03717e-15 0)
(3 -9.95796e-16 0)
(3 -1.14796e-15 0)
(3 -8.44916e-16 0)
(3 -9.94683e-16 0)
(3 -1.44029e-15 0)
(3 -1.39358e-15 0)
(3 -1.86349e-15 0)
(3 -1.63169e-15 0)
(3 -8.17268e-16 0)
(3 -4.64991e-16 0)
(3 -7.87048e-17 0)
(3 -1.46287e-17 0)
(3 2.93671e-16 0)
(3 2.70753e-16 0)
(3 1.02924e-15 0)
(3 7.20369e-16 0)
(3 1.34241e-16 0)
(3 1.51247e-16 0)
(3 -1.78293e-16 0)
(3 -6.49731e-16 0)
(3 -1.04344e-15 0)
(3 -1.45886e-15 0)
(3 -1.26514e-15 0)
(3 -1.58663e-15 0)
(3 -9.42898e-16 0)
(3 -1.91841e-16 0)
(3 1.26936e-16 0)
(3 -7.75942e-17 0)
(3 -7.84507e-16 0)
(3 -2.12809e-15 0)
(3 -3.33747e-15 0)
(3 -3.56531e-15 0)
(3 -3.86534e-15 0)
(3 -3.08965e-15 0)
(3 -1.30328e-15 0)
(3 -3.65195e-17 0)
(3 1.75695e-15 0)
(3 1.96118e-15 0)
(3 2.63098e-15 0)
(3 3.2053e-15 0)
(3 4.03652e-15 0)
(3 4.9026e-15 0)
(3 4.40214e-15 0)
(3 3.7216e-15 0)
(3 2.95785e-15 0)
(3 1.73009e-15 0)
(3 -4.51413e-16 0)
(3 -2.73267e-15 0)
(3 -3.25534e-15 0)
(3 -3.59743e-15 0)
(3 -3.75789e-15 0)
(3 -3.68634e-15 0)
(3 -2.20865e-15 0)
(3 -1.29166e-15 0)
(3 -8.28095e-16 0)
(3 -1.81031e-15 0)
(3 -2.55109e-15 0)
(3 -2.7735e-15 0)
(3 -2.97521e-15 0)
(3 -2.68558e-15 0)
(3 -1.73905e-15 0)
(3 -1.08441e-15 0)
(3 -3.91617e-16 0)
(3 1.82149e-15 0)
(3 3.06632e-15 0)
(3 2.86556e-15 0)
(3 1.18841e-15 0)
(3 3.58051e-16 0)
(3 7.93861e-17 0)
(3 -1.9346e-16 0)
(3 -1.97932e-15 0)
(3 -2.98714e-15 0)
(3 -3.75401e-15 0)
(3 -3.66912e-15 0)
(3 -3.71074e-15 0)
(3 -3.91703e-15 0)
(3 -4.12611e-15 0)
(3 -3.0215e-15 0)
(3 -1.95893e-15 0)
(3 -1.19625e-15 0)
(3 -1.19597e-15 0)
(3 -9.60321e-17 0)
(3 1.07726e-15 0)
(3 2.00346e-15 0)
(3 2.41929e-15 0)
(3 2.56511e-15 0)
(3 2.51678e-15 0)
(3 2.73067e-15 0)
(3 3.13343e-15 0)
(3 2.12783e-15 0)
(3 6.50628e-16 0)
(3 8.85121e-17 0)
(3 -2.40316e-16 0)
(3 -9.23005e-16 0)
(3 -1.32242e-15 0)
(3 -8.21342e-16 0)
(3 5.33906e-16 0)
(3 9.98831e-16 0)
(3 1.90486e-17 0)
(3 -5.31437e-16 0)
(3 -5.50885e-16 0)
(3 -6.44447e-16 0)
(3 6.99247e-16 0)
(3 9.29085e-16 0)
(3 1.2022e-15 0)
(3 1.00126e-15 0)
(3 -6.57701e-17 0)
(3 -2.59576e-16 0)
(3 -6.72143e-16 0)
(3 -5.78973e-16 0)
(3 -2.78902e-16 0)
(3 -1.89422e-16 0)
(3 -7.03117e-17 0)
(3 -2.69745e-16 0)
(3 -4.73982e-16 0)
(3 -4.27807e-16 0)
(3 -7.68644e-16 0)
(3 -1.04631e-15 0)
(3 -7.95976e-16 0)
(3 -2.42619e-16 0)
(3 -1.78366e-16 0)
(3 2.63462e-16 0)
(3 4.65941e-16 0)
(3 3.14133e-16 0)
(3 1.70912e-16 0)
(3 -5.95603e-16 0)
(3 -2.38832e-15 0)
(3 -3.26997e-15 0)
(3 -2.98267e-15 0)
(3 -1.44143e-15 0)
(3 -4.8819e-16 0)
(3 2.78791e-15 0)
(3 3.18108e-15 0)
(3 1.28637e-15 0)
(3 4.68002e-16 0)
(3 4.36957e-16 0)
(3 1.45379e-15 0)
(3 1.71114e-15 0)
(3 1.68979e-15 0)
(3 1.34829e-15 0)
(3 1.18087e-15 0)
(3 8.65132e-17 0)
(3 -1.42747e-15 0)
(3 -3.55169e-15 0)
(3 -4.47515e-15 0)
(3 -4.20985e-15 0)
(3 -3.28621e-15 0)
(3 -2.06154e-15 0)
(3 -9.87125e-16 0)
(3 1.44199e-16 0)
(3 8.07073e-16 0)
(3 7.36055e-16 0)
(3 2.01985e-16 0)
(3 -1.13778e-15 0)
(3 -3.07541e-15 0)
(3 -3.15622e-15 0)
(3 -2.33247e-15 0)
(3 -1.60445e-15 0)
(3 -1.05871e-15 0)
(3 -5.42388e-17 0)
(3 5.58851e-16 0)
(3 6.19076e-16 0)
(3 -3.66433e-16 0)
(3 -5.01644e-16 0)
(3 -3.07653e-17 0)
(3 -1.35368e-16 0)
(3 -7.54972e-16 0)
(3 -1.43321e-15 0)
(3 -2.35455e-15 0)
(3 -3.13281e-15 0)
(3 -3.20592e-15 0)
(3 -2.77076e-15 0)
(3 -2.3447e-15 0)
(3 -1.77149e-15 0)
(3 -1.6159e-15 0)
(3 -1.27266e-15 0)
(3 -1.04619e-15 0)
(3 -1.24992e-15 0)
(3 -9.19597e-16 0)
(3 5.53584e-17 0)
(3 8.25578e-17 0)
(3 1.73428e-16 0)
(3 1.318e-16 0)
(3 -5.73552e-16 0)
(3 -1.28464e-15 0)
(3 -1.99843e-15 0)
(3 -1.5627e-15 0)
(3 -1.06916e-15 0)
(3 -2.40252e-16 0)
(3 5.84413e-16 0)
(3 1.32956e-15 0)
(3 9.72401e-16 0)
(3 1.02224e-15 0)
(3 1.17436e-15 0)
(3 1.22654e-15 0)
(3 1.78158e-15 0)
(3 2.63905e-15 0)
(3 2.93261e-15 0)
(3 3.18856e-15 0)
(3 2.55106e-15 0)
(3 1.05122e-15 0)
(3 1.55676e-15 0)
(3 3.04781e-17 0)
(3 1.37929e-17 0)
(3 -2.55959e-16 0)
(3 -4.662e-16 0)
(3 -1.7228e-16 0)
(3 -4.16617e-16 0)
(3 -6.78584e-16 0)
(3 -1.0084e-15 0)
(3 -7.81447e-16 0)
(3 -4.20923e-16 0)
(3 -4.74633e-16 0)
(3 -6.35768e-16 0)
(3 -8.82569e-16 0)
(3 -6.35046e-16 0)
(3 -7.01689e-16 0)
(3 -1.08227e-15 0)
(3 -1.17295e-15 0)
(3 -7.07935e-16 0)
(3 -2.71092e-17 0)
(3 7.35339e-16 0)
(3 9.7288e-16 0)
(3 5.15524e-16 0)
(3 1.04559e-15 0)
(3 1.59554e-15 0)
(3 1.16708e-15 0)
(3 1.47536e-15 0)
(3 1.23969e-15 0)
(3 -8.11597e-16 0)
(3 -1.75592e-15 0)
(3 -1.23771e-15 0)
(3 -4.14444e-16 0)
(3 -3.24979e-16 0)
(3 -5.98535e-16 0)
(3 -9.31283e-16 0)
(3 -1.03635e-15 0)
(3 -8.62231e-16 0)
(3 -8.69115e-16 0)
(3 -9.73562e-16 0)
(3 -1.39418e-15 0)
(3 -1.74052e-15 0)
(3 -1.03855e-15 0)
(3 -2.97383e-16 0)
(3 -7.66769e-16 0)
(3 -5.20505e-16 0)
(3 2.05801e-16 0)
(3 6.98774e-16 0)
(3 1.33609e-15 0)
(3 1.29848e-15 0)
(3 -8.63513e-17 0)
(3 -7.96447e-16 0)
(3 -1.03789e-15 0)
(3 -6.44907e-16 0)
(3 -4.85123e-16 0)
(3 -7.77682e-16 0)
(3 -4.56604e-16 0)
(3 1.73056e-16 0)
(3 5.63329e-16 0)
(3 7.74045e-16 0)
(3 3.85694e-16 0)
(3 -7.42666e-16 0)
(3 -2.02194e-15 0)
(3 -2.04623e-15 0)
(3 -1.72341e-15 0)
(3 -2.12053e-15 0)
(3 -2.11383e-15 0)
(3 -2.07892e-15 0)
(3 -1.87413e-15 0)
(3 -1.80816e-15 0)
(3 -1.89182e-15 0)
(3 -1.27417e-15 0)
(3 -1.28465e-15 0)
(3 -2.02396e-15 0)
(3 -7.37696e-16 0)
(3 1.32043e-15 0)
(3 1.2518e-15 0)
(3 8.26365e-16 0)
(3 4.77783e-16 0)
(3 -8.66489e-16 0)
(3 -1.59579e-15 0)
(3 -1.19989e-15 0)
(3 -8.24429e-16 0)
(3 -4.30914e-16 0)
(3 -3.73208e-16 0)
(3 5.42859e-16 0)
(3 1.68176e-15 0)
(3 2.18336e-15 0)
(3 2.27297e-15 0)
(3 2.1075e-15 0)
(3 1.86789e-15 0)
(3 3.24042e-15 0)
(3 4.09314e-15 0)
(3 4.6591e-15 0)
(3 2.19077e-15 0)
(3 1.68767e-15 0)
(3 1.41619e-15 0)
(3 1.69601e-15 0)
(3 -7.66951e-17 0)
(3 -2.89655e-16 0)
(3 6.0686e-16 0)
(3 6.74141e-16 0)
(3 4.13634e-16 0)
(3 5.63331e-17 0)
(3 -1.41629e-16 0)
(3 -3.07354e-16 0)
(3 -4.37632e-16 0)
(3 -5.62845e-16 0)
(3 -5.29336e-16 0)
(3 -7.40499e-16 0)
(3 -1.12117e-15 0)
(3 -8.30226e-16 0)
(3 -1.15692e-15 0)
(3 -1.28055e-15 0)
(3 -9.48602e-16 0)
(3 -9.37021e-16 0)
(3 -5.9481e-17 0)
(3 1.07882e-15 0)
(3 2.02436e-15 0)
(3 1.60277e-15 0)
(3 9.76443e-16 0)
(3 1.0801e-15 0)
(3 5.52373e-16 0)
(3 -1.70487e-16 0)
(3 -8.02612e-16 0)
(3 -1.82481e-15 0)
(3 -1.66955e-15 0)
(3 -7.94297e-16 0)
(3 -6.81241e-16 0)
(3 -1.09016e-15 0)
(3 -1.41871e-15 0)
(3 -4.86819e-16 0)
(3 -5.14799e-16 0)
(3 -9.19143e-16 0)
(3 -2.4524e-16 0)
(3 9.0583e-16 0)
(3 1.23325e-15 0)
(3 1.74114e-15 0)
(3 1.51199e-15 0)
(3 4.47288e-16 0)
(3 2.00348e-16 0)
(3 5.38042e-16 0)
(3 1.12228e-15 0)
(3 9.13084e-16 0)
(3 4.81813e-16 0)
(3 6.86067e-16 0)
(3 1.73164e-15 0)
(3 1.92911e-15 0)
(3 1.0035e-15 0)
(3 1.07257e-15 0)
(3 5.20393e-16 0)
(3 -1.007e-15 0)
(3 -2.13411e-15 0)
(3 -2.9158e-15 0)
(3 -2.59955e-15 0)
(3 -2.10435e-15 0)
(3 -1.73831e-15 0)
(3 -2.4258e-15 0)
(3 -2.80163e-15 0)
(3 -2.79207e-15 0)
(3 -1.94849e-15 0)
(3 -1.23423e-15 0)
(3 -9.60792e-16 0)
(3 -9.16662e-16 0)
(3 -7.56433e-16 0)
(3 -7.25087e-16 0)
(3 -4.13718e-16 0)
(3 -2.34514e-16 0)
(3 -2.39401e-16 0)
(3 -5.25511e-16 0)
(3 -6.237e-16 0)
(3 -3.12084e-16 0)
(3 2.83489e-16 0)
(3 4.06801e-16 0)
(3 -1.5392e-16 0)
(3 -1.02488e-15 0)
(3 -1.68908e-15 0)
(3 -7.1292e-16 0)
(3 -1.53504e-16 0)
(3 -3.08126e-16 0)
(3 -3.12092e-16 0)
(3 3.64779e-16 0)
(3 8.9322e-16 0)
(3 1.02112e-15 0)
(3 1.27063e-15 0)
(3 3.14608e-15 0)
(3 2.94516e-15 0)
(3 3.39625e-15 0)
(3 3.89482e-15 0)
(3 4.14543e-15 0)
(3 3.491e-15 0)
(3 3.15328e-15 0)
(3 2.37569e-15 0)
(3 1.53597e-15 0)
(3 1.58797e-16 0)
(3 2.72965e-17 0)
(3 6.35668e-17 0)
(3 5.25456e-16 0)
(3 -5.17576e-16 0)
(3 -5.89226e-16 0)
(3 -5.9773e-16 0)
(3 -8.84289e-16 0)
(3 -1.47293e-15 0)
(3 -2.03643e-15 0)
(3 -1.89632e-15 0)
(3 -4.40499e-16 0)
(3 3.97456e-16 0)
(3 3.08017e-16 0)
(3 -7.16044e-17 0)
(3 -6.14137e-17 0)
(3 -3.78033e-16 0)
(3 -7.26775e-16 0)
(3 3.37593e-16 0)
(3 7.93434e-16 0)
(3 2.87852e-15 0)
(3 4.07096e-15 0)
(3 3.16578e-15 0)
(3 3.96344e-16 0)
(3 -2.85962e-15 0)
(3 -4.3325e-15 0)
(3 -3.01633e-15 0)
(3 -1.84634e-15 0)
(3 -8.36317e-16 0)
(3 -1.13435e-15 0)
(3 -1.59277e-15 0)
(3 -1.53045e-15 0)
(3 -9.42806e-16 0)
(3 -7.73321e-16 0)
(3 -7.48748e-16 0)
(3 -7.0375e-16 0)
(3 4.78128e-16 0)
(3 1.85439e-15 0)
(3 2.42266e-15 0)
(3 2.00156e-15 0)
(3 1.9484e-15 0)
(3 1.75627e-15 0)
(3 1.35629e-15 0)
(3 1.79945e-16 0)
(3 -8.05077e-16 0)
(3 -8.66576e-16 0)
(3 -8.37659e-16 0)
(3 -5.04135e-16 0)
(3 2.51283e-16 0)
(3 9.5625e-16 0)
(3 5.16151e-16 0)
(3 -5.02578e-16 0)
(3 -1.10263e-15 0)
(3 -1.43109e-15 0)
(3 -2.41113e-15 0)
(3 -3.3373e-15 0)
(3 -3.3531e-15 0)
(3 -2.23076e-15 0)
(3 -1.975e-15 0)
(3 -1.11253e-15 0)
(3 -4.07652e-16 0)
(3 -1.73757e-16 0)
(3 -6.73381e-16 0)
(3 -5.1592e-16 0)
(3 -7.62572e-16 0)
(3 -4.00766e-16 0)
(3 1.1709e-16 0)
(3 4.97424e-16 0)
(3 1.6336e-16 0)
(3 -4.80118e-16 0)
(3 -3.92789e-16 0)
(3 2.6458e-16 0)
(3 2.79778e-16 0)
(3 3.5157e-16 0)
(3 6.50344e-16 0)
(3 8.17883e-16 0)
(3 6.706e-16 0)
(3 3.14194e-17 0)
(3 -7.40838e-16 0)
(3 -6.09667e-16 0)
(3 -4.28544e-16 0)
(3 3.36077e-16 0)
(3 1.98022e-15 0)
(3 3.53474e-15 0)
(3 3.93715e-15 0)
(3 2.68406e-15 0)
(3 2.53866e-15 0)
(3 3.1581e-15 0)
(3 3.76774e-15 0)
(3 3.61129e-15 0)
(3 3.98109e-15 0)
(3 3.63533e-15 0)
(3 3.9357e-15 0)
(3 3.02533e-15 0)
(3 2.50013e-15 0)
(3 2.72222e-15 0)
(3 -1.07752e-16 0)
(3 1.1968e-16 0)
(3 2.18773e-16 0)
(3 3.71969e-16 0)
(3 -2.19955e-16 0)
(3 -1.40626e-16 0)
(3 -4.61924e-16 0)
(3 -5.52745e-16 0)
(3 -6.93331e-16 0)
(3 5.25494e-17 0)
(3 5.06921e-16 0)
(3 7.61873e-16 0)
(3 3.25102e-16 0)
(3 -3.9335e-16 0)
(3 -4.15459e-16 0)
(3 -1.46635e-17 0)
(3 -3.53483e-16 0)
(3 -9.13228e-16 0)
(3 1.00199e-15 0)
(3 2.22385e-15 0)
(3 3.58394e-15 0)
(3 4.0731e-15 0)
(3 3.66811e-15 0)
(3 1.42533e-15 0)
(3 6.35071e-16 0)
(3 -8.68792e-16 0)
(3 -5.88864e-16 0)
(3 -3.81912e-16 0)
(3 -9.10908e-16 0)
(3 -1.04162e-15 0)
(3 -1.88491e-15 0)
(3 -1.51393e-15 0)
(3 -9.87202e-16 0)
(3 -9.90402e-16 0)
(3 -9.64747e-16 0)
(3 -9.17914e-16 0)
(3 8.32557e-16 0)
(3 1.49381e-15 0)
(3 2.78245e-15 0)
(3 2.72011e-15 0)
(3 1.0783e-15 0)
(3 5.47999e-16 0)
(3 6.84496e-16 0)
(3 -5.75461e-19 0)
(3 -1.35414e-15 0)
(3 -2.20896e-15 0)
(3 -1.46045e-15 0)
(3 -1.04343e-15 0)
(3 -5.72323e-16 0)
(3 -1.87841e-15 0)
(3 -1.66924e-15 0)
(3 -1.8612e-15 0)
(3 -1.70265e-15 0)
(3 -6.73239e-16 0)
(3 -8.75206e-16 0)
(3 -1.49668e-15 0)
(3 -2.28704e-15 0)
(3 -1.98574e-15 0)
(3 -1.29143e-15 0)
(3 -9.12222e-16 0)
(3 -2.89995e-16 0)
(3 7.83282e-16 0)
(3 6.32458e-16 0)
(3 6.24051e-18 0)
(3 -3.95898e-16 0)
(3 -7.26604e-16 0)
(3 -5.50291e-16 0)
(3 -9.73995e-16 0)
(3 -2.63459e-15 0)
(3 -3.22578e-15 0)
(3 -3.4576e-15 0)
(3 -3.44263e-15 0)
(3 -2.11837e-15 0)
(3 -2.2662e-16 0)
(3 3.72885e-16 0)
(3 8.85965e-16 0)
(3 1.39409e-15 0)
(3 2.67556e-15 0)
(3 2.46396e-15 0)
(3 1.11139e-15 0)
(3 1.93816e-15 0)
(3 2.6389e-15 0)
(3 3.24391e-15 0)
(3 3.30793e-15 0)
(3 3.69296e-15 0)
(3 4.19386e-15 0)
(3 2.83893e-15 0)
(3 1.15529e-15 0)
(3 8.83994e-16 0)
(3 2.02583e-15 0)
(3 1.96907e-15 0)
(3 6.13016e-16 0)
(3 8.63107e-16 0)
(3 9.67947e-16 0)
(3 1.2749e-15 0)
(3 1.23087e-15 0)
(3 -2.50483e-16 0)
(3 -5.94022e-18 0)
(3 -1.94681e-16 0)
(3 -8.79524e-16 0)
(3 3.62389e-16 0)
(3 2.13054e-16 0)
(3 -1.86616e-16 0)
(3 2.11999e-17 0)
(3 3.63427e-16 0)
(3 1.14483e-15 0)
(3 1.49923e-15 0)
(3 3.79984e-16 0)
(3 7.86001e-17 0)
(3 3.38182e-16 0)
(3 5.07736e-16 0)
(3 1.01615e-15 0)
(3 7.47396e-16 0)
(3 6.62909e-16 0)
(3 1.31147e-15 0)
(3 1.70447e-15 0)
(3 1.65694e-15 0)
(3 1.97692e-15 0)
(3 1.56107e-15 0)
(3 9.61332e-17 0)
(3 -3.9427e-16 0)
(3 -1.24708e-15 0)
(3 -1.71818e-15 0)
(3 -2.16747e-15 0)
(3 -1.63839e-15 0)
(3 -1.38469e-15 0)
(3 -1.68391e-15 0)
(3 -1.83474e-15 0)
(3 -1.37326e-15 0)
(3 -1.32641e-15 0)
(3 -1.37771e-15 0)
(3 -1.37491e-15 0)
(3 -1.41135e-15 0)
(3 -1.65433e-15 0)
(3 -7.33257e-16 0)
(3 9.79188e-16 0)
(3 1.21044e-15 0)
(3 1.12094e-15 0)
(3 2.38739e-15 0)
(3 2.8526e-15 0)
(3 2.14514e-15 0)
(3 4.13546e-16 0)
(3 -4.89803e-17 0)
(3 1.9268e-16 0)
(3 -1.7525e-16 0)
(3 -1.27321e-15 0)
(3 -1.11688e-15 0)
(3 -2.50051e-16 0)
(3 4.0278e-16 0)
(3 -1.5194e-16 0)
(3 -6.2403e-16 0)
(3 -9.2392e-16 0)
(3 -9.9032e-16 0)
(3 -4.93637e-16 0)
(3 -2.47756e-16 0)
(3 3.34957e-16 0)
(3 6.56126e-16 0)
(3 5.72443e-16 0)
(3 7.22144e-16 0)
(3 6.79123e-16 0)
(3 1.74118e-15 0)
(3 1.0294e-15 0)
(3 -9.90847e-16 0)
(3 -2.33744e-15 0)
(3 -3.47917e-15 0)
(3 -3.97756e-15 0)
(3 -4.6969e-15 0)
(3 -5.29024e-15 0)
(3 -5.20092e-15 0)
(3 -4.9316e-15 0)
(3 -4.77778e-15 0)
(3 -4.65149e-15 0)
(3 -3.54018e-15 0)
(3 -1.03655e-15 0)
(3 1.79263e-15 0)
(3 2.32713e-15 0)
(3 3.82591e-15 0)
(3 3.92846e-15 0)
(3 3.48204e-15 0)
(3 2.08038e-15 0)
(3 1.88859e-15 0)
(3 2.34726e-15 0)
(3 2.61784e-15 0)
(3 8.77822e-16 0)
(3 1.7964e-16 0)
(3 5.74769e-16 0)
(3 2.83199e-16 0)
(3 -6.29036e-16 0)
(3 -1.29813e-15 0)
(3 -6.76294e-16 0)
(3 -1.01231e-17 0)
(3 1.66073e-15 0)
(3 2.96138e-16 0)
(3 4.41522e-16 0)
(3 -1.85125e-16 0)
(3 -3.84721e-16 0)
(3 -3.36773e-16 0)
(3 -2.58771e-16 0)
(3 -1.89041e-16 0)
(3 -5.04973e-16 0)
(3 -6.48917e-16 0)
(3 -9.71551e-16 0)
(3 -1.23812e-15 0)
(3 3.27967e-16 0)
(3 9.65542e-16 0)
(3 1.22703e-15 0)
(3 1.54852e-15 0)
(3 1.67026e-15 0)
(3 1.52343e-15 0)
(3 1.70111e-15 0)
(3 1.58397e-15 0)
(3 1.57035e-15 0)
(3 1.64582e-15 0)
(3 1.75872e-15 0)
(3 1.89844e-15 0)
(3 1.63333e-15 0)
(3 1.47682e-15 0)
(3 1.26077e-15 0)
(3 -8.04963e-18 0)
(3 -1.01373e-15 0)
(3 -1.6928e-15 0)
(3 -1.92669e-15 0)
(3 -2.81432e-15 0)
(3 -3.52456e-15 0)
(3 -3.2214e-15 0)
(3 -2.84775e-15 0)
(3 -2.77982e-15 0)
(3 -2.86436e-15 0)
(3 -3.13346e-15 0)
(3 -2.12152e-15 0)
(3 -1.4275e-15 0)
(3 -1.37829e-15 0)
(3 -1.08156e-15 0)
(3 -9.138e-16 0)
(3 -3.54823e-16 0)
(3 -8.42877e-17 0)
(3 -2.01282e-16 0)
(3 1.09275e-15 0)
(3 6.77425e-16 0)
(3 4.68885e-16 0)
(3 4.11605e-16 0)
(3 1.44928e-15 0)
(3 7.36044e-16 0)
(3 -4.3884e-17 0)
(3 -1.13584e-16 0)
(3 -3.64328e-16 0)
(3 -9.17516e-16 0)
(3 -4.78389e-16 0)
(3 9.90324e-16 0)
(3 7.27693e-16 0)
(3 -6.07223e-16 0)
(3 -5.60343e-16 0)
(3 -7.38102e-16 0)
(3 -4.95784e-16 0)
(3 1.07526e-16 0)
(3 8.22988e-16 0)
(3 2.08601e-15 0)
(3 1.58883e-15 0)
(3 3.56895e-16 0)
(3 -6.38116e-16 0)
(3 -7.58565e-16 0)
(3 -8.33176e-16 0)
(3 -1.50649e-15 0)
(3 -2.00983e-15 0)
(3 -2.75519e-15 0)
(3 -4.58355e-15 0)
(3 -6.5813e-15 0)
(3 -6.54389e-15 0)
(3 -3.71999e-15 0)
(3 -1.97009e-15 0)
(3 7.26269e-16 0)
(3 1.19275e-15 0)
(3 2.37526e-15 0)
(3 3.30452e-15 0)
(3 3.59665e-15 0)
(3 3.20744e-15 0)
(3 1.56204e-15 0)
(3 4.2383e-16 0)
(3 1.07526e-15 0)
(3 1.28448e-15 0)
(3 6.08424e-16 0)
(3 -1.13247e-15 0)
(3 -2.76372e-15 0)
(3 -2.86858e-15 0)
(3 -3.11295e-15 0)
(3 -2.38439e-15 0)
(3 -1.15021e-15 0)
(3 -7.09024e-16 0)
(3 -2.60919e-17 0)
(3 -8.77415e-17 0)
(3 4.67711e-17 0)
(3 5.003e-17 0)
(3 1.27682e-17 0)
(3 6.04898e-16 0)
(3 1.11763e-15 0)
(3 1.0258e-15 0)
(3 9.43964e-16 0)
(3 8.86648e-16 0)
(3 9.79926e-16 0)
(3 1.07595e-15 0)
(3 1.14784e-15 0)
(3 1.0758e-15 0)
(3 8.3807e-16 0)
(3 5.16553e-16 0)
(3 7.66607e-16 0)
(3 1.07193e-15 0)
(3 8.63615e-16 0)
(3 1.24503e-15 0)
(3 1.4067e-15 0)
(3 1.53984e-15 0)
(3 2.10614e-15 0)
(3 2.23769e-15 0)
(3 1.49209e-15 0)
(3 8.98585e-16 0)
(3 -2.74993e-16 0)
(3 -1.18165e-15 0)
(3 -1.38132e-15 0)
(3 -3.43904e-15 0)
(3 -2.34066e-15 0)
(3 -1.48227e-15 0)
(3 -2.91868e-15 0)
(3 -4.07958e-15 0)
(3 -4.07281e-15 0)
(3 -2.73283e-15 0)
(3 -2.57841e-17 0)
(3 1.85587e-15 0)
(3 1.50339e-15 0)
(3 4.73088e-16 0)
(3 2.10231e-16 0)
(3 6.00272e-16 0)
(3 2.72368e-16 0)
(3 -4.61273e-16 0)
(3 -8.84211e-16 0)
(3 7.71928e-16 0)
(3 1.4022e-15 0)
(3 2.09106e-15 0)
(3 2.6903e-15 0)
(3 3.42832e-15 0)
(3 2.72242e-15 0)
(3 2.52182e-15 0)
(3 2.59906e-15 0)
(3 2.54116e-15 0)
(3 2.88958e-15 0)
(3 1.67488e-15 0)
(3 1.37134e-15 0)
(3 5.50101e-16 0)
(3 -7.57623e-16 0)
(3 -1.3332e-15 0)
(3 -1.83144e-15 0)
(3 -1.80254e-15 0)
(3 -9.21534e-16 0)
(3 -2.17884e-17 0)
(3 -7.44759e-16 0)
(3 -6.07596e-16 0)
(3 3.22865e-16 0)
(3 1.20956e-15 0)
(3 6.42258e-16 0)
(3 4.86238e-16 0)
(3 2.79533e-16 0)
(3 5.47313e-16 0)
(3 1.02756e-16 0)
(3 -1.76334e-15 0)
(3 -3.104e-15 0)
(3 -2.04725e-15 0)
(3 -8.21528e-16 0)
(3 -5.22075e-16 0)
(3 5.79264e-16 0)
(3 7.70408e-16 0)
(3 1.64358e-15 0)
(3 3.02993e-15 0)
(3 3.75038e-15 0)
(3 3.55947e-15 0)
(3 1.64925e-15 0)
(3 -8.02011e-16 0)
(3 -1.06289e-15 0)
(3 -5.60638e-16 0)
(3 -1.34385e-16 0)
(3 -1.81984e-15 0)
(3 -4.73277e-15 0)
(3 -5.35546e-15 0)
(3 -4.69291e-15 0)
(3 -3.52916e-15 0)
(3 -1.84944e-15 0)
(3 -1.67279e-15 0)
(3 -1.3393e-16 0)
(3 -2.49082e-16 0)
(3 -6.14929e-16 0)
(3 -3.71e-16 0)
(3 1.39632e-16 0)
(3 -6.78271e-17 0)
(3 3.02578e-16 0)
(3 1.24837e-15 0)
(3 1.96385e-15 0)
(3 2.24907e-15 0)
(3 2.80216e-15 0)
(3 1.67809e-15 0)
(3 1.42625e-15 0)
(3 1.07095e-15 0)
(3 3.08281e-16 0)
(3 -1.5262e-16 0)
(3 4.70658e-17 0)
(3 3.09144e-16 0)
(3 3.83497e-16 0)
(3 7.43433e-16 0)
(3 9.25102e-16 0)
(3 1.084e-15 0)
(3 8.42914e-16 0)
(3 -4.3838e-16 0)
(3 -9.81713e-16 0)
(3 -9.63912e-16 0)
(3 2.97567e-17 0)
(3 -1.51744e-16 0)
(3 -8.63582e-16 0)
(3 -1.54761e-15 0)
(3 -6.97333e-16 0)
(3 -8.54879e-16 0)
(3 -1.50076e-15 0)
(3 -2.65937e-15 0)
(3 -1.72439e-15 0)
(3 4.00554e-16 0)
(3 1.22161e-15 0)
(3 1.9753e-15 0)
(3 2.50124e-16 0)
(3 8.04913e-16 0)
(3 2.76535e-15 0)
(3 3.89938e-15 0)
(3 3.45986e-15 0)
(3 2.01094e-15 0)
(3 2.48991e-15 0)
(3 3.49737e-15 0)
(3 3.93815e-15 0)
(3 3.76694e-15 0)
(3 4.50925e-15 0)
(3 3.82333e-15 0)
(3 3.57521e-15 0)
(3 3.90067e-15 0)
(3 2.53439e-15 0)
(3 2.18276e-15 0)
(3 4.10226e-16 0)
(3 -4.61531e-16 0)
(3 -1.58158e-15 0)
(3 -1.93436e-15 0)
(3 -1.2138e-15 0)
(3 -7.5242e-17 0)
(3 6.44717e-16 0)
(3 1.43432e-16 0)
(3 -2.12406e-16 0)
(3 3.15242e-16 0)
(3 2.06225e-16 0)
(3 -3.89927e-17 0)
(3 5.39472e-16 0)
(3 1.27647e-15 0)
(3 1.82379e-15 0)
(3 1.00097e-15 0)
(3 5.15213e-16 0)
(3 7.2496e-16 0)
(3 7.79303e-16 0)
(3 1.42687e-15 0)
(3 1.54606e-15 0)
(3 7.25236e-16 0)
(3 -5.77735e-16 0)
(3 -8.68347e-16 0)
(3 -2.24783e-16 0)
(3 -1.87039e-16 0)
(3 5.77138e-17 0)
(3 1.24963e-16 0)
(3 9.58436e-17 0)
(3 -1.49753e-16 0)
(3 -7.01277e-16 0)
(3 -1.84832e-15 0)
(3 -2.5934e-15 0)
(3 -2.40324e-15 0)
(3 -2.90105e-15 0)
(3 -4.81403e-15 0)
(3 -6.6805e-15 0)
(3 -6.68459e-15 0)
(3 -6.46998e-15 0)
(3 -3.77348e-15 0)
(3 -2.33916e-15 0)
(3 -1.42483e-15 0)
(3 2.67608e-17 0)
(3 -5.66962e-17 0)
(3 -1.46687e-16 0)
(3 1.96775e-16 0)
(3 -1.9817e-16 0)
(3 -8.8538e-16 0)
(3 -1.12162e-15 0)
(3 -1.77176e-16 0)
(3 4.8257e-16 0)
(3 1.06077e-15 0)
(3 4.73464e-16 0)
(3 9.42879e-16 0)
(3 1.17861e-15 0)
(3 1.24596e-15 0)
(3 1.20122e-15 0)
(3 1.11052e-15 0)
(3 1.15045e-15 0)
(3 1.23689e-15 0)
(3 1.27947e-15 0)
(3 8.15003e-16 0)
(3 6.00017e-16 0)
(3 8.62591e-16 0)
(3 2.48774e-17 0)
(3 -2.30597e-16 0)
(3 -2.70048e-16 0)
(3 1.18543e-15 0)
(3 1.6298e-15 0)
(3 1.30701e-15 0)
(3 5.49381e-16 0)
(3 5.29141e-16 0)
(3 -3.71724e-16 0)
(3 -3.39967e-15 0)
(3 -3.4534e-15 0)
(3 -2.4663e-15 0)
(3 4.88203e-16 0)
(3 1.2334e-15 0)
(3 1.22454e-15 0)
(3 1.00505e-15 0)
(3 -2.49511e-16 0)
(3 -1.4418e-16 0)
(3 2.34345e-15 0)
(3 3.62288e-15 0)
(3 3.84821e-15 0)
(3 3.46497e-15 0)
(3 2.73071e-15 0)
(3 1.91748e-15 0)
(3 1.62754e-15 0)
(3 1.2252e-15 0)
(3 1.05442e-15 0)
(3 1.06574e-15 0)
(3 1.46202e-15 0)
(3 2.40365e-15 0)
(3 2.90648e-15 0)
(3 2.49743e-15 0)
(3 1.01895e-15 0)
(3 6.71228e-16 0)
(3 -6.12034e-16 0)
(3 -4.0848e-16 0)
(3 -6.17185e-16 0)
(3 -8.45741e-16 0)
(3 -1.51063e-16 0)
(3 -1.24015e-16 0)
(3 9.4593e-17 0)
(3 6.26479e-16 0)
(3 1.40361e-15 0)
(3 1.90499e-15 0)
(3 2.38507e-15 0)
(3 2.1686e-15 0)
(3 1.42989e-15 0)
(3 8.89887e-16 0)
(3 1.69506e-15 0)
(3 2.20556e-15 0)
(3 2.68928e-15 0)
(3 3.26763e-15 0)
(3 3.05735e-15 0)
(3 2.06265e-15 0)
(3 2.81884e-16 0)
(3 -7.66809e-16 0)
(3 -1.51518e-15 0)
(3 -9.36533e-16 0)
(3 -7.57146e-16 0)
(3 -1.26131e-15 0)
(3 -1.47808e-15 0)
(3 -1.46441e-15 0)
(3 -1.62023e-15 0)
(3 -2.31262e-15 0)
(3 -3.67469e-15 0)
(3 -5.32966e-15 0)
(3 -6.12873e-15 0)
(3 -5.59414e-15 0)
(3 -4.52063e-15 0)
(3 -4.17467e-15 0)
(3 -3.79639e-15 0)
(3 -4.24107e-15 0)
(3 -2.80589e-15 0)
(3 -2.23227e-15 0)
(3 -4.28722e-17 0)
(3 -3.04595e-16 0)
(3 2.14291e-16 0)
(3 5.10309e-16 0)
(3 1.68571e-16 0)
(3 -3.96427e-16 0)
(3 -1.18128e-15 0)
(3 -1.49736e-15 0)
(3 -8.59015e-16 0)
(3 -9.59449e-18 0)
(3 3.93292e-16 0)
(3 3.79508e-16 0)
(3 1.99765e-16 0)
(3 5.88373e-16 0)
(3 1.04401e-15 0)
(3 1.11837e-15 0)
(3 7.56049e-16 0)
(3 6.35096e-16 0)
(3 8.08322e-16 0)
(3 7.74909e-16 0)
(3 5.92782e-16 0)
(3 6.50823e-16 0)
(3 9.76806e-16 0)
(3 1.69702e-15 0)
(3 2.49878e-15 0)
(3 2.22589e-15 0)
(3 1.88788e-15 0)
(3 1.96536e-15 0)
(3 1.60485e-15 0)
(3 1.01597e-16 0)
(3 -1.45576e-15 0)
(3 -3.78561e-15 0)
(3 -3.87334e-15 0)
(3 9.21744e-16 0)
(3 3.26791e-15 0)
(3 3.23011e-15 0)
(3 1.09331e-15 0)
(3 1.28836e-16 0)
(3 -2.87915e-16 0)
(3 -9.6244e-16 0)
(3 6.27929e-16 0)
(3 4.00803e-15 0)
(3 5.26338e-15 0)
(3 5.53557e-15 0)
(3 4.60569e-15 0)
(3 2.45648e-15 0)
(3 1.86931e-15 0)
(3 7.94098e-16 0)
(3 -2.51876e-16 0)
(3 -4.6929e-16 0)
(3 -1.3205e-15 0)
(3 -2.41626e-15 0)
(3 -2.91123e-15 0)
(3 -2.37115e-15 0)
(3 -1.02329e-15 0)
(3 6.23005e-17 0)
(3 -1.54669e-16 0)
(3 5.63545e-16 0)
(3 2.01948e-16 0)
(3 -7.81682e-16 0)
(3 -1.80484e-15 0)
(3 -1.73961e-15 0)
(3 4.78749e-16 0)
(3 2.31866e-15 0)
(3 1.95431e-15 0)
(3 5.80948e-16 0)
(3 -1.81989e-17 0)
(3 -6.00124e-18 0)
(3 -4.04208e-16 0)
(3 -3.01438e-16 0)
(3 7.81313e-16 0)
(3 1.52462e-15 0)
(3 2.11503e-15 0)
(3 3.41902e-15 0)
(3 3.53449e-15 0)
(3 3.38584e-15 0)
(3 3.10287e-15 0)
(3 1.62589e-15 0)
(3 -6.72306e-16 0)
(3 -6.43345e-16 0)
(3 -5.15315e-16 0)
(3 -7.00899e-16 0)
(3 -1.0886e-15 0)
(3 -7.23444e-16 0)
(3 -2.66259e-16 0)
(3 -1.40574e-15 0)
(3 -3.39063e-15 0)
(3 -3.94372e-15 0)
(3 -3.19317e-15 0)
(3 -2.77278e-15 0)
(3 -2.46628e-15 0)
(3 -2.84867e-15 0)
(3 -3.2134e-15 0)
(3 -3.35043e-15 0)
(3 -2.35649e-15 0)
(3 -2.34979e-15 0)
(3 -9.97217e-19 0)
(3 -1.40202e-16 0)
(3 -8.69256e-17 0)
(3 -4.47151e-17 0)
(3 -1.55942e-17 0)
(3 2.88181e-16 0)
(3 -1.04344e-16 0)
(3 -4.84868e-16 0)
(3 -4.20633e-16 0)
(3 -1.95755e-16 0)
(3 2.21175e-16 0)
(3 -3.10335e-16 0)
(3 -5.27221e-16 0)
(3 -6.45499e-16 0)
(3 -3.68487e-16 0)
(3 7.57913e-17 0)
(3 1.40836e-16 0)
(3 4.50927e-16 0)
(3 4.92602e-16 0)
(3 6.1116e-16 0)
(3 2.68488e-16 0)
(3 2.82976e-16 0)
(3 9.29483e-16 0)
(3 9.78596e-16 0)
(3 1.25331e-15 0)
(3 1.63785e-15 0)
(3 2.28217e-15 0)
(3 2.74857e-15 0)
(3 1.96548e-15 0)
(3 9.94498e-16 0)
(3 1.00147e-16 0)
(3 5.02026e-16 0)
(3 -1.03874e-16 0)
(3 3.46825e-16 0)
(3 7.88939e-16 0)
(3 1.38163e-15 0)
(3 -3.26902e-17 0)
(3 -1.06348e-15 0)
(3 -1.00918e-15 0)
(3 1.55015e-16 0)
(3 2.16825e-15 0)
(3 3.70526e-15 0)
(3 4.43785e-15 0)
(3 4.88714e-15 0)
(3 4.13929e-15 0)
(3 4.15388e-15 0)
(3 3.92872e-15 0)
(3 4.13145e-15 0)
(3 1.27511e-15 0)
(3 -8.09242e-16 0)
(3 -1.8518e-15 0)
(3 -3.94799e-15 0)
(3 -5.04548e-15 0)
(3 -4.74044e-15 0)
(3 -3.8714e-15 0)
(3 -1.08733e-15 0)