/*--------------------------------*- C++ -*----------------------------------*\
  =========                 |
  \\      /  F ield         | OpenFOAM: The Open Source CFD Toolbox
   \\    /   O peration     | Website:  https://openfoam.org
    \\  /    A nd           | Version:  7
     \\/     M anipulation  |
\*---------------------------------------------------------------------------*/
FoamFile
{
    version     2.0;
    format      ascii;
    class       volScalarField;
    location    "2.3";
    object      p;
}
// * * * * * * * * * * * * * * * * * * * * * * * * * * * * * * * * * * * * * //

dimensions      [1 -1 -2 0 0 0 0];

internalField   nonuniform List<scalar> 
4608
(
1
1
1
1
1
1
1
1
1
1
1
1
1
1
1
1
1
1
1
1
1
1
1
1
1
1
1
1
1
1
1
1
1
1
1
1
1
1
1
1
1
1
1
1
1
1
1
1
1
1
1
1
1
1
1
1
1
1
1
1
1
1
1
1
1
1
1
1
1
1
1
1
1
1
1
1
1
1
1
1
1
1
1
1
1
1
1
1
1
1
1
1
1
1
1
1
1
1
1
1
1
1
1
1
1
1
1
1
1
1
1
1
1
1
1
1
1
1
1
1
1
1
1
1
1
1
1
1
1
1
1
1
1
1
1
1
1
1
1
1
1
1
1
1
1
1
1
1
1
1
1
1
1
1
1
1
1
1
1
1
1
1
1
1
1
1
1
1
1
1
1
1
1
1
1
1
1
1
1
1
1
1
1
1
1
1
1
1
1
1
1
1
1
1
1
1
1
1
1
1
1
1
1
1
1
1
1
1
1
1
1
1
1
1
1
1
1
1
1
1
1
1
1
1
1
1
1
1
1
1
1
1
1
1
1
1
1
1
1
1
1
1
1
1
1
1
1
1
1
1
1
1
1
1
1
1
1
1
1
1
1
1
1
1
1
1
1
1
1
1
1
1
1
1
1
1
1
1
1
1
1
1
1
1
1
1
1
1
1
1
1
1
1
1
1
1
1
1
1
1
1
1
1
1
1
1
1
1
1
1
1
1
1
1
1
1
1
1
1
1
1
1
1
1
1
1
1
1
1
1
1
1
1
1
1
1
1
1
1
1
1
1
1
1
1
1
1
1
1
1
1
1
1
1
1
1
1
1
1
1
1
1
1
1
1
1
1
1
1
1
1
1
1
1
1
1
1
1
1
1
1
1
1
1
1
1
1
1
1
1
1
1
1
1
1
1
1
1
1
1
1
1
1
1
1
1
1
1
1
1
1
1
1
1
1
1
1
1
1
1
1
1
1
1
1
1
1
1
1
1
1
1
1
1
1
1
1
1
1
1
1
1
1
1
1
1
1
1
1
1
1
1
1
1
1
1
1
1
1
1
1
1
1
1
1
1
1
1
1
1
1
1
1
1
1
1
1
1
1
1
1
1
1
1
1
1
1
1
1
1
1
1
1
1
1
1
1
1
1
1
1
1
1
1
1
1
1
1
1
1
1
1
1
1
1
1
1
1
1
1
1
1
1
1
1
1
1
1
1
1
1
1
1
1
1
1
1
1
1
1
1
1
1
1
1
1
1
1
1
1
1
1
1
1
1
1
1
1
1
1
1
1
1
1
1
1
1
1
1
1
1
1
1
1
1
1
1
1
1
1
1
1
1
1
1
1
1
1
1
1
1
1
1
1
1
1
1
1
1
1
1
1
1
1
1
1
1
1
1
1
1
1
1
1
1
1
1
1
1
1
1
1
1
1
1
1
1
1
1
1
1
1
1
1
1
1
1
1
1
1
1
1
1
1
1
1
1
1
1
1
1
1
1
1
1
1
1
1
1
1
1
1
1
1
1
1
1
1
1
1
1
1
1
1
1
1
1
1
1
1
1
1
1
1
1
1
1
1
1
1
1
1
1
1
1
1
1
1
1
1
1
1
1
1
1
1
1
1
1
1
1
1
1
1
1
1
1
1
1
1
1
1
1
1
1
1
1
1
1
1
1
1
1
1
1
1
1
1
1
1
1
1
1
1
1
1
1
1
1
1
1
1
1
1
1
1
1
1
1
1
1
1
1
1
1
1
1
1
1.29404
1.75615
2.3234
2.99872
3.61499
4.3178
4.84974
5.29368
5.35548
5.15305
4.73374
4.22443
3.79409
3.66321
3.57459
3.57374
3.59856
3.64048
3.69195
3.73045
3.74516
3.7466
3.74152
3.74508
1.0021
1.02256
1.08183
1.21577
1.47664
1.848
2.37385
2.99417
3.57244
3.81288
4.08064
4.04706
3.93151
3.84979
3.80913
3.7395
3.69587
3.67973
3.68816
3.71383
3.73795
3.75222
3.75561
3.75689
0.999995
1.00001
1.00008
1.0001
1.00366
1.02254
1.11072
1.35928
2.00236
2.96965
3.88649
4.28795
4.3519
4.26121
4.1205
3.89906
3.74562
3.68701
3.67706
3.69023
3.72263
3.75679
3.76434
3.76821
1
1
0.999999
0.999998
0.999985
1.00003
0.999975
1.00166
1.03576
1.30144
2.04068
3.11368
3.95872
4.11236
4.03061
3.97979
3.91458
3.80734
3.71914
3.69154
3.6935
3.71779
3.74569
3.75943
1
1
1
1
0.999999
0.999999
0.999996
0.999997
0.999893
1.00155
1.03723
1.37755
2.19646
3.38187
3.82806
4.0764
4.07224
3.99272
3.80671
3.72429
3.68778
3.67929
3.69494
3.72044
1
1
1
1
1
1
1
1
0.999988
0.999989
0.999898
1.00404
1.06715
1.52786
2.48112
3.56947
3.96255
3.93372
3.88787
3.8224
3.76972
3.70951
3.69626
3.70445
1
1
1
1
1
1
1
1
1
0.999999
0.999987
0.999992
0.99997
1.01093
1.166
1.79079
2.85459
3.66035
3.93394
3.9299
3.88542
3.80358
3.74817
3.72316
1
1
1
1
1
1
1
1
1
1
1
0.999999
0.999996
0.99996
1.00101
1.03298
1.3679
2.26523
3.23257
3.66289
3.80958
3.79658
3.73661
3.70713
1
1
1
1
1
1
1
1
1
1
1
1
1
0.999995
0.999993
0.99999
1.00832
1.12184
1.7527
2.84137
3.65209
3.70457
3.72606
3.71453
1
1
1
1
1
1
1
1
1
1
1
1
1
1
0.999999
0.999998
0.999981
1.00108
1.05242
1.40107
2.39801
3.26964
3.76467
3.79921
1
1
1
1
1
1
1
1
1
1
1
1
1
1
1
1
0.999998
0.999992
1.00029
1.01357
1.23427
1.97467
3.14534
3.539
1
1
1
1
1
1
1
1
1
1
1
1
1
1
1
1
1
0.999998
0.999997
1.00001
1.00662
1.11147
1.69121
2.86325
1
1
1
1
1
1
1
1
1
1
1
1
1
1
1
1
1
1
0.999999
0.999999
0.999999
1.002
1.06178
1.51834
1
1
1
1
1
1
1
1
1
1
1
1
1
1
1
1
1
1
1
1
1
0.999998
1.00115
1.02975
1
1
1
1
1
1
1
1
1
1
1
1
1
1
1
1
1
1
1
1
1
0.999999
1.00001
1.00002
1
1
1
1
1
1
1
1
1
1
1
1
1
1
1
1
1
1
1
1
1
1
0.999999
0.99999
1
1
1
1
1
1
1
1
1
1
1
1
1
1
1
1
1
1
1
1
1
1
0.999999
0.999993
1
1
1
1
1
1
1
1
1
1
1
1
1
1
1
1
1
1
1
1
1
1
0.999997
1.00006
1
1
1
1
1
1
1
1
1
1
1
1
1
1
1
1
1
1
1
1
1
0.999999
1.00105
1.03025
1
1
1
1
1
1
1
1
1
1
1
1
1
1
1
1
1
1
0.999999
0.999999
1
1.00199
1.06803
1.49953
1
1
1
1
1
1
1
1
1
1
1
1
1
1
1
1
1
0.999999
0.999997
1.00001
1.00687
1.11025
1.7556
2.71097
1
1
1
1
1
1
1
1
1
1
1
1
1
1
1
1
0.999998
0.999993
1.00029
1.01356
1.22704
2.02212
3.12542
3.43431
1
1
1
1
1
1
1
1
1
1
1
1
1
1
0.999999
0.999998
0.999982
1.00107
1.05311
1.39565
2.38105
3.32469
3.74948
3.7737
1
1
1
1
1
1
1
1
1
1
1
1
1
0.999995
0.999993
0.99999
1.00827
1.12185
1.75963
2.81341
3.66367
3.72521
3.73407
3.7071
1
1
1
1
1
1
1
1
1
1
1
0.999999
0.999996
0.999961
1.001
1.03304
1.36667
2.26863
3.23386
3.65231
3.8118
3.80126
3.73855
3.7
1
1
1
1
1
1
1
1
1
0.999999
0.999987
0.999992
0.99997
1.01091
1.16626
1.7902
2.85359
3.66452
3.93189
3.92678
3.88484
3.80635
3.74461
3.72329
1
1
1
1
1
1
1
1
0.999988
0.999989
0.999898
1.00403
1.06717
1.52775
2.48231
3.56735
3.96302
3.93506
3.88825
3.82114
3.77057
3.71099
3.69571
3.7049
1
1
1
1
0.999999
0.999999
0.999996
0.999997
0.999893
1.00155
1.03723
1.37756
2.19599
3.38319
3.82832
4.07522
4.07162
3.99305
3.80759
3.7231
3.68862
3.67971
3.69488
3.72067
1
1
0.999999
0.999998
0.999985
1.00003
0.999975
1.00166
1.03575
1.30146
2.04066
3.11378
3.95852
4.11262
4.03049
3.97928
3.91421
3.80787
3.71959
3.69083
3.69331
3.71797
3.74562
3.75902
0.999995
1.00001
1.00008
1.0001
1.00366
1.02254
1.1107
1.35929
2.00234
2.96963
3.88638
4.28807
4.35195
4.26112
4.12051
3.89905
3.74556
3.68705
3.67703
3.69023
3.72254
3.7567
3.76411
3.76794
1.00209
1.02256
1.08186
1.2157
1.4767
1.84802
2.37381
2.99419
3.57251
3.81284
4.08048
4.04732
3.93155
3.84944
3.80933
3.73959
3.69582
3.67977
3.68819
3.71388
3.73796
3.75218
3.75548
3.75674
1.29405
1.75617
2.32327
2.99887
3.61515
4.31735
4.84988
5.29393
5.35549
5.15297
4.73364
4.22443
3.79388
3.6632
3.57478
3.57377
3.59865
3.64062
3.69215
3.73058
3.74523
3.74664
3.74149
3.74502
2.63602
1.70518
1.15546
0.782761
0.651365
0.679428
0.734361
0.735297
0.757569
0.819463
0.878109
0.921532
0.991663
1.05181
1.05501
1.04357
1.03106
1.03803
1.05467
1.07797
1.08567
1.08115
1.06453
1.11269
1.50872
2.76506
4.53243
6.7951
8.90577
9.40461
8.65733
7.54947
6.8447
6.51453
6.35151
6.13598
5.88568
5.65728
5.45654
5.26741
5.07119
4.86736
4.67374
4.48882
4.30704
4.12856
3.9676
3.84308
3.74821
3.65725
3.56468
3.47046
3.37413
3.26767
3.13452
2.96974
2.82312
2.74165
2.69997
2.66449
2.62931
2.59209
2.54848
2.49458
2.41697
2.29823
2.13589
2.02397
1.9934
1.9786
1.98281
2.03395
2.25315
2.80806
3.56748
4.22566
4.6816
5.09372
5.22421
5.08798
4.98575
4.91795
4.85466
4.77637
4.68055
4.54597
4.28854
4.02481
3.94702
3.90606
3.87967
3.89859
3.91328
3.87898
3.83648
3.69456
3.35268
2.71753
2.21853
1.8028
1.38968
1.24009
1.16922
1.05248
0.976305
0.958315
0.9284
0.911183
0.922645
0.958234
0.975329
0.975781
0.975593
0.988586
1.00642
1.02965
1.04647
1.05174
1.12678
1.59626
2.58874
3.06853
3.53303
4.26766
5.61436
6.72826
7.45693
7.37858
7.07385
6.7362
6.427
6.15616
5.92757
5.71894
5.52452
5.33508
5.13744
4.93041
4.72621
4.53422
4.35457
4.18986
4.04163
3.91014
3.80949
3.71795
3.6235
3.52503
3.42088
3.30664
3.17283
3.02639
2.89747
2.80463
2.74953
2.71101
2.67419
2.63405
2.58558
2.52594
2.44236
2.32471
2.18205
2.07537
2.04486
2.054
2.12874
2.35842
2.7994
3.19432
3.43714
3.74435
4.06927
4.28005
4.50171
4.66599
4.84902
4.95027
4.92008
4.81729
4.69889
4.54875
4.32685
4.08054
3.97177
3.92673
3.90132
3.92108
3.92897
3.89329
3.84696
3.70799
3.66271
3.3397
2.84704
2.42568
2.00696
1.60628
1.41693
1.26981
1.08546
1.01706
0.982602
0.933614
0.92595
0.940371
0.949364
0.9456
0.94252
0.947588
0.964277
0.988783
1.00824
1.14543
1.74778
2.64145
3.29912
3.34267
3.32488
3.34565
3.56108
4.51303
6.05692
7.11815
7.25848
7.04401
6.53303
6.10154
5.80545
5.57677
5.36622
5.18427
5.01599
4.84995
4.68541
4.52101
4.35926
4.20038
4.02917
3.8304
3.66975
3.59005
3.51689
3.43797
3.35218
3.25721
3.15655
3.04257
2.90655
2.76885
2.67929
2.62761
2.58645
2.54628
2.50024
2.44282
2.36963
2.28633
2.19877
2.13158
2.13897
2.24672
2.55168
2.95685
3.34212
3.42945
3.42801
3.40847
3.45521
3.59395
3.93545
4.36
4.65659
4.87598
4.88605
4.83209
4.69051
4.52354
4.34815
4.15954
4.01996
3.94907
3.91036
3.87718
3.84106
3.80544
3.77009
3.65726
3.74122
3.62362
3.31202
2.91701
2.56218
2.11128
1.76967
1.62213
1.44337
1.27723
1.19611
1.09633
1.00069
0.994622
0.987444
0.96282
0.949195
0.942357
0.940755
0.952366
1.09355
1.77603
2.72436
3.23612
3.33952
3.29978
3.21131
3.10113
2.96792
3.03841
3.63202
5.13276
6.50923
6.63627
6.52441
6.19366
5.81622
5.50146
5.25962
5.10342
4.98905
4.85675
4.7174
4.57161
4.41479
4.2425
4.05657
3.85307
3.63684
3.52361
3.46264
3.39988
3.33587
3.26879
3.18661
3.07461
2.93827
2.78577
2.67465
2.60968
2.55448
2.49721
2.44768
2.39231
2.33174
2.29406
2.26737
2.30428
2.49365
2.8724
3.22489
3.50638
3.57528
3.55154
3.45551
3.35529
3.26504
3.25783
3.36579
3.68511
4.07039
4.46195
4.6181
4.62625
4.59068
4.50087
4.37723
4.24106
4.10843
4.0057
3.93613
3.88356
3.82951
3.77666
3.73683
3.64466
3.73683
3.71378
3.58362
3.29155
2.95527
2.62118
2.21183
1.90577
1.74838
1.59225
1.4496
1.28987
1.11341
1.0314
1.01232
0.996567
0.975127
0.957506
0.98014
1.18136
1.91202
2.83222
3.20621
3.27889
3.2421
3.11542
3.00609
2.91322
2.80362
2.70593
2.7271
3.05341
4.15813
5.54428
6.26228
6.18721
5.88684
5.50322
5.21595
5.02043
4.88092
4.74247
4.59462
4.45141
4.31509
4.18144
4.04621
3.87422
3.67013
3.49843
3.39309
3.31553
3.23743
3.17054
3.12007
3.07715
2.99854
2.8523
2.68227
2.58733
2.5373
2.48291
2.42877
2.37075
2.34224
2.36172
2.48289
2.78761
3.21311
3.50862
3.63044
3.65925
3.62803
3.54716
3.44531
3.33047
3.23346
3.21013
3.19806
3.24728
3.40945
3.72716
4.12692
4.3859
4.43436
4.4244
4.38577
4.30548
4.19383
4.08931
4.00251
3.92292
3.83975
3.76406
3.70784
3.59439
3.72767
3.72763
3.6972
3.56017
3.2794
2.95744
2.66686
2.3542
1.99367
1.82669
1.72651
1.6045
1.40217
1.17329
1.13421
1.13789
1.11837
1.14942
1.4256
2.20854
3.13305
3.41304
3.35143
3.23658
3.0862
2.95492
2.87123
2.78775
2.68092
2.58525
2.52839
2.47689
2.59289
3.25614
4.51668
5.55717
5.66305
5.5437
5.2783
5.03367
4.83901
4.66719
4.51757
4.39217
4.2735
4.16147
4.05212
3.9183
3.72348
3.50837
3.33863
3.24782
3.19444
3.14965
3.10066
3.03509
2.9519
2.84311
2.69774
2.57238
2.49766
2.44012
2.39908
2.38669
2.44434
2.72205
3.18843
3.61394
3.7814
3.80041
3.77429
3.71106
3.62229
3.52581
3.45886
3.38556
3.31449
3.25569
3.20347
3.13634
3.0958
3.14958
3.37268
3.75929
4.03394
4.20131
4.28757
4.27809
4.25196
4.18595
4.07402
3.95115
3.8426
3.75642
3.69728
3.5763
3.72964
3.73681
3.72336
3.67696
3.53486
3.27959
2.96176
2.71075
2.44186
2.11928
1.86745
1.81059
1.70836
1.51743
1.32845
1.24831
1.31083
1.7176
2.66014
3.53127
3.71959
3.59111
3.37167
3.18901
3.03408
2.91741
2.82909
2.73372
2.61687
2.52405
2.44701
2.37047
2.29099
2.31047
2.62035
3.53473
4.75052
5.258
5.19966
5.07943
4.82575
4.60272
4.43887
4.32706
4.2128
4.09648
3.98091
3.85672
3.71494
3.53266
3.35872
3.24114
3.16108
3.09646
3.04069
2.99353
2.9468
2.87562
2.75035
2.5804
2.4752
2.43987
2.4413
2.59877
3.00275
3.58562
3.94532
4.03607
4.00202
3.8959
3.7484
3.6539
3.58644
3.52408
3.46403
3.40204
3.33895
3.27609
3.20994
3.11969
3.04764
2.97667
2.9927
3.13437
3.45949
3.80172
4.09162
4.20398
4.21187
4.16249
4.06487
3.95789
3.86437
3.76976
3.69389
3.56657
3.71296
3.72434
3.7298
3.71942
3.65817
3.51548
3.28161
2.95942
2.73625
2.50217
2.21919
1.97557
1.85065
1.76369
1.61742
1.71092
2.31395
3.36914
4.12963
4.13507
3.97575
3.72812
3.49452
3.29489
3.11132
2.97021
2.84968
2.73003
2.59673
2.50355
2.41245
2.3188
2.23074
2.1742
2.13373
2.23276
2.81828
3.85989
4.6111
4.84369
4.77773
4.58542
4.40287
4.26289
4.1249
3.99124
3.87356
3.77426
3.67363
3.54831
3.39845
3.23635
3.12693
3.06118
3.00513
2.94554
2.87373
2.79705
2.70204
2.58767
2.50644
2.54734
2.79877
3.32869
3.86736
4.23937
4.28405
4.25723
4.13957
3.91665
3.73212
3.62647
3.56634
3.51955
3.46903
3.41784
3.36254
3.29932
3.22537
3.13754
3.03438
2.95505
2.91157
2.91618
3.00047
3.23192
3.58067
3.88164
4.05143
4.04937
4.01496
3.95557
3.88851
3.79312
3.70004
3.56458
3.71336
3.72033
3.71957
3.71492
3.70157
3.62768
3.48411
3.25061
2.9706
2.74152
2.5447
2.27783
2.06896
2.0019
2.23393
3.15715
4.34988
4.7845
4.68526
4.41043
4.1205
3.86831
3.64714
3.45231
3.27262
3.11537
2.96335
2.80105
2.63964
2.51191
2.39924
2.28722
2.19861
2.1284
2.07597
2.01904
2.03754
2.30356
3.01063
4.0036
4.5129
4.47248
4.39726
4.21623
4.04832
3.90524
3.78225
3.68648
3.62117
3.55705
3.44081
3.25622
3.10808
3.02258
2.96065
2.89429
2.82997
2.77094
2.70753
2.6456
2.74034
3.11953
3.66125
4.1216
4.3481
4.37783
4.34254
4.24674
4.09796
3.91365
3.75486
3.64467
3.56905
3.51996
3.47031
3.42166
3.37605
3.32384
3.2522
3.15153
3.02658
2.93936
2.88804
2.87022
2.86459
2.90362
3.04527
3.31523
3.60876
3.8333
3.92952
3.92009
3.87219
3.78928
3.69998
3.5705
3.76759
3.74317
3.74664
3.74227
3.71518
3.67851
3.60216
3.45069
3.2345
2.98576
2.75733
2.49503
2.53374
3.04913
4.27461
5.42278
5.59514
5.38401
5.01162
4.64879
4.33533
4.07249
3.83568
3.61318
3.40746
3.22608
3.06221
2.89528
2.73707
2.5881
2.44786
2.30149
2.19218
2.10581
2.04015
1.97107
1.93677
1.9118
1.99254
2.42002
3.24097
3.97399
4.18732
4.14387
4.02688
3.88961
3.76434
3.66979
3.58103
3.46912
3.34489
3.2144
3.08318
2.97103
2.90152
2.84338
2.82791
2.79964
2.85405
3.08312
3.61001
4.09461
4.39313
4.53387
4.52667
4.41545
4.28278
4.16699
4.05075
3.91677
3.79499
3.67785
3.58538
3.52831
3.47724
3.43088
3.38768
3.33559
3.26481
3.1632
3.03407
2.93718
2.88104
2.85087
2.82832
2.82597
2.82143
2.88034
3.0361
3.31318
3.59045
3.76804
3.76602
3.74894
3.69941
3.59316
3.63272
3.6877
3.74629
3.76586
3.7428
3.71215
3.66637
3.58939
3.42221
3.23377
3.01234
3.19706
4.20269
5.73981
6.46048
6.34913
5.98711
5.59526
5.21838
4.86007
4.53118
4.23909
3.98405
3.7568
3.54627
3.34777
3.16165
2.98322
2.82211
2.6689
2.51961
2.37184
2.24871
2.13904
2.04095
1.96298
1.89538
1.84632
1.80324
1.80611
1.98944
2.57574
3.34164
3.80187
3.91069
3.88388
3.78263
3.66047
3.54414
3.43036
3.31193
3.17648
3.03419
2.92411
2.86545
2.84814
2.88217
3.10841
3.58258
4.16648
4.57472
4.63985
4.62437
4.582
4.48261
4.37251
4.2462
4.12086
4.01771
3.93037
3.84723
3.72867
3.60931
3.53838
3.48496
3.43948
3.39496
3.34264
3.27434
3.18014
3.05468
2.94599
2.88827
2.85115
2.82107
2.79413
2.77966
2.75224
2.74169
2.82057
3.04155
3.34659
3.54356
3.62777
3.66289
3.61107
3.61233
3.65326
3.68197
3.70417
3.72777
3.72619
3.70531
3.66716
3.55467
3.58108
4.23639
5.75248
7.26889
7.64843
7.40005
6.82938
6.28299
5.82014
5.41776
5.04879
4.70751
4.39368
4.11201
3.86617
3.6479
3.44667
3.25999
3.08473
2.92025
2.75358
2.57583
2.41063
2.28026
2.17335
2.06915
1.98094
1.91071
1.85554
1.78093
1.72034
1.66705
1.72275
2.07413
2.75639
3.35623
3.6411
3.64578
3.5759
3.47117
3.37739
3.27225
3.14453
3.02046
2.92671
2.90129
3.00049
3.41733
4.12502
4.64163
5.01495
5.05517
4.97047
4.77408
4.57489
4.43281
4.31444
4.21936
4.12372
4.02933
3.95001
3.87345
3.7584
3.62538
3.5425
3.48797
3.44226
3.39594
3.34199
3.27557
3.19251
3.08602
2.97362
2.90436
2.86286
2.82838
2.79359
2.76237
2.72749
2.67296
2.61811
2.65327
2.80761
3.11276
3.32815
3.5087
3.5635
2.76384
3.34114
3.53797
3.67981
3.76002
3.77117
3.75549
3.76652
4.01885
5.4086
7.66069
8.40147
8.32313
8.05712
7.64128
7.17533
6.67225
6.15198
5.65258
5.2101
4.8384
4.51816
4.22341
3.95365
3.72035
3.51649
3.32337
3.13413
2.95848
2.79875
2.644
2.49362
2.32922
2.18062
2.09706
2.03295
1.95934
1.88361
1.80423
1.71571
1.6479
1.57201
1.57427
1.73585
2.23257
2.93428
3.37729
3.46291
3.41964
3.31202
3.17605
3.10275
3.0303
3.04608
3.25909
3.85551
4.59959
5.03115
5.1034
5.11212
5.0829
4.97426
4.78079
4.57655
4.4071
4.27622
4.19067
4.1211
4.05069
3.98706
3.91067
3.78623
3.63516
3.53524
3.47777
3.43109
3.38667
3.33764
3.27897
3.20562
3.10824
3.00131
2.93984
2.90833
2.87684
2.83894
2.7962
2.74426
2.67002
2.58163
2.53778
2.54646
2.65211
2.88442
3.14445
3.3903
1.43934
2.31468
3.12807
3.6532
3.6679
3.71695
3.91929
4.69933
6.58182
8.87957
9.77942
9.58833
8.8914
8.20219
7.77521
7.3803
6.91721
6.40116
5.87788
5.40229
4.99924
4.65877
4.35025
4.05298
3.77467
3.52991
3.335
3.17671
3.02374
2.85998
2.68318
2.51853
2.37543
2.25259
2.13647
2.00846
1.91232
1.84481
1.7949
1.74287
1.67299
1.58092
1.51197
1.44747
1.50498
1.82677
2.48499
3.01682
3.26153
3.24288
3.16862
3.19925
3.36096
3.75439
4.43947
5.13531
5.45177
5.44104
5.32508
5.11765
4.97595
4.8714
4.72574
4.5745
4.43143
4.30879
4.22241
4.15109
4.07515
3.99183
3.89238
3.76718
3.62951
3.52947
3.4723
3.42325
3.3759
3.3292
3.27796
3.22285
3.15212
3.05421
2.95465
2.88864
2.83979
2.79474
2.74944
2.70097
2.65032
2.59047
2.54004
2.48505
2.47044
2.52679
2.67097
3.01581
1.02936
1.28647
1.93282
3.01791
3.33864
4.41513
5.90377
7.80551
9.58398
9.93612
9.85538
9.60173
9.16303
8.56502
8.00504
7.48783
6.97551
6.49592
6.03536
5.57339
5.15352
4.79791
4.47749
4.15772
3.85243
3.59971
3.37776
3.18152
3.00079
2.84406
2.70954
2.57931
2.44912
2.29884
2.13779
2.00941
1.92672
1.86765
1.79608
1.70109
1.62369
1.56393
1.49196
1.4263
1.3872
1.39667
1.58862
2.07011
2.708
2.98398
3.32435
4.02289
4.59521
5.02924
5.43655
5.57059
5.53128
5.42962
5.30749
5.14029
4.94399
4.80201
4.68859
4.598
4.48055
4.36796
4.28007
4.19461
4.10236
4.00201
3.89309
3.78328
3.665
3.56704
3.50704
3.45564
3.40244
3.34533
3.29294
3.24542
3.18769
3.09837
2.98602
2.90023
2.84049
2.78735
2.73358
2.68125
2.63778
2.60578
2.5663
2.51122
2.41393
2.36775
2.38572
2.59018
1.00056
1.01361
1.14817
1.9188
3.4319
6.19703
8.40796
9.76047
10.9118
10.5881
9.90032
9.53182
9.27166
8.82234
8.2442
7.64555
7.0646
6.54387
6.09324
5.64057
5.21544
4.82064
4.46165
4.21876
4.02062
3.77647
3.50962
3.26915
3.07602
2.89802
2.73978
2.58236
2.43087
2.32098
2.22776
2.1245
2.01437
1.90979
1.79916
1.70717
1.64522
1.58516
1.50658
1.44429
1.37886
1.33189
1.33991
1.45415
1.88441
2.81255
3.89303
5.06469
5.65007
5.93307
5.98598
5.83409
5.58789
5.36158
5.25645
5.14053
4.96694
4.79742
4.63479
4.51283
4.44957
4.3792
4.29912
4.21288
4.11032
3.99448
3.87969
3.75293
3.61668
3.52085
3.46442
3.41645
3.37282
3.33484
3.29458
3.2453
3.18696
3.10039
2.97386
2.87117
2.82477
2.78189
2.72667
2.68395
2.65673
2.62822
2.58597
2.51828
2.39925
2.32569
2.32267
2.37652
1.00032
1.01448
1.18526
1.90512
3.9767
5.79867
8.24274
9.90014
10.8605
10.6822
10.175
9.73456
9.45914
8.92695
8.20747
7.51009
6.91622
6.39793
5.98646
5.6912
5.36333
4.9749
4.59618
4.25058
3.93598
3.6732
3.42421
3.19059
3.06097
2.97077
2.83328
2.66176
2.49399
2.3341
2.18998
2.06353
1.91759
1.80364
1.76771
1.75349
1.71378
1.65123
1.55255
1.42322
1.34358
1.32474
1.33544
1.44568
1.87013
2.79231
4.00152
4.87095
5.59109
6.02323
5.93377
5.83034
5.6684
5.42532
5.29703
5.17687
4.99929
4.81709
4.65117
4.50703
4.43407
4.38898
4.33579
4.25666
4.14896
4.0244
3.89482
3.74803
3.60124
3.51315
3.462
3.41449
3.37139
3.33639
3.30865
3.27522
3.22101
3.13331
2.99238
2.87047
2.81319
2.78472
2.76027
2.73119
2.70274
2.66959
2.62164
2.53187
2.39628
2.31805
2.31319
2.38343
1.02239
1.2409
2.07017
2.98213
3.7424
4.20369
5.69232
7.73135
9.39034
10.0705
10.0168
9.83309
9.38158
8.70335
8.03247
7.41647
6.8681
6.38921
5.94354
5.50835
5.10545
4.75381
4.44869
4.16288
3.89841
3.66305
3.45393
3.2586
3.0586
2.85854
2.68998
2.53461
2.39142
2.28625
2.19251
2.07175
1.92053
1.81739
1.75353
1.69012
1.64449
1.59611
1.52707
1.43326
1.35609
1.37297
1.5539
2.05799
2.67627
3.00269
3.41738
3.83921
4.55736
5.18069
5.36516
5.52082
5.54967
5.47766
5.35942
5.19829
4.99918
4.81513
4.68682
4.5813
4.45329
4.33298
4.24826
4.17757
4.11819
4.05677
3.94718
3.77936
3.61949
3.54792
3.50473
3.46302
3.42224
3.37912
3.32317
3.25364
3.1734
3.07848
2.97872
2.89816
2.84313
2.7914
2.73703
2.69059
2.64966
2.61133
2.57254
2.51498
2.42055
2.36646
2.37635
2.57151
1.34922
2.30002
3.21713
3.59454
3.69229
3.70805
3.8804
4.68004
6.55355
8.80973
9.92321
9.79156
9.05046
8.28298
7.74458
7.2629
6.77014
6.26998
5.78758
5.35601
5.00035
4.70278
4.41967
4.12897
3.84023
3.56716
3.3343
3.15146
2.97756
2.79496
2.63309
2.50659
2.39696
2.27595
2.13678
2.02198
1.96026
1.89054
1.79094
1.69004
1.63473
1.59323
1.54217
1.49497
1.545
1.86142
2.46065
3.04165
3.24435
3.21672
3.15879
3.16568
3.38508
3.92448
4.62113
5.15785
5.50331
5.46319
5.31561
5.11286
4.96728
4.85712
4.73928
4.58461
4.41689
4.27644
4.20647
4.15678
4.10304
4.03257
3.92968
3.75366
3.5617
3.49272
3.45501
3.41764
3.38174
3.34412
3.30225
3.25348
3.18464
3.06104
2.93509
2.87087
2.83128
2.78502
2.73185
2.68567
2.64208
2.60214
2.56242
2.50642
2.46891
2.5109
2.62996
2.96729
2.48874
3.46141
3.68275
3.73931
3.76107
3.74772
3.69254
3.69653
3.95738
5.26989
7.56242
8.55928
8.38995
8.0539
7.57619
7.06981
6.56472
6.07735
5.63864
5.25969
4.92735
4.62158
4.32672
4.03482
3.74793
3.48407
3.25974
3.07105
2.91073
2.77452
2.64222
2.50385
2.35765
2.20994
2.08774
2.00876
1.92755
1.84334
1.76513
1.68216
1.6223
1.58024
1.59584
1.75227
2.24822
2.94157
3.34834
3.44646
3.40574
3.30477
3.17872
3.11072
3.07162
3.13758
3.38506
3.87095
4.58511
4.93104
5.04052
5.05149
5.02208
4.92942
4.78337
4.58882
4.3839
4.26897
4.21272
4.16008
4.09947
4.02364
3.91867
3.75778
3.57636
3.4938
3.45382
3.41679
3.38217
3.34682
3.3094
3.25939
3.16376
3.01087
2.91227
2.86891
2.83305
2.79341
2.74912
2.70239
2.64626
2.61194
2.57186
2.5774
2.66691
2.88184
3.11439
3.34893
3.51708
3.80419
3.80963
3.7655
3.72015
3.68666
3.64645
3.62619
3.53455
3.55054
4.1823
5.81317
7.23824
7.62609
7.39183
6.80803
6.27196
5.83321
5.46666
5.12952
4.80323
4.49051
4.19207
3.9067
3.64143
3.39986
3.18759
3.00594
2.8493
2.69813
2.54795
2.42248
2.33024
2.23544
2.12112
2.00961
1.90206
1.81394
1.73587
1.68898
1.65025
1.71734
2.09933
2.74432
3.41232
3.64299
3.62743
3.53711
3.43236
3.3459
3.25442
3.16286
3.06424
2.9834
2.92242
2.9811
3.30787
4.01233
4.58923
4.94065
5.01065
4.93231
4.77077
4.60535
4.42243
4.30039
4.21314
4.12956
4.05344
3.97393
3.87605
3.75451
3.62735
3.52634
3.45927
3.41705
3.37805
3.33812
3.29629
3.23571
3.12408
2.98954
2.91114
2.86144
2.81704
2.77395
2.73752
2.70337
2.66896
2.64522
2.69128
2.84309
3.1469
3.34984
3.5097
3.54379
3.63144
3.79091
3.80104
3.7892
3.75625
3.70206
3.65199
3.58088
3.42789
3.2404
3.01735
3.21534
4.21736
5.67456
6.38562
6.32998
5.99636
5.6059
5.25084
4.92589
4.61162
4.30649
4.01408
3.74438
3.50539
3.28809
3.08787
2.90173
2.75457
2.6462
2.54158
2.41461
2.29053
2.17887
2.07239
1.97118
1.88355
1.82457
1.77041
1.7781
1.96293
2.59633
3.3986
3.81784
3.90283
3.86514
3.75162
3.62006
3.51475
3.42122
3.32921
3.2222
3.09821
2.96479
2.86819
2.81817
2.83755
3.05015
3.56935
4.1771
4.6341
4.70441
4.69577
4.63349
4.47918
4.32425
4.19303
4.085
4.00253
3.93185
3.84976
3.75491
3.65699
3.55763
3.47385
3.41586
3.37517
3.33308
3.27518
3.18565
3.06961
2.97473
2.91185
2.86087
2.81374
2.77715
2.75856
2.74586
2.75063
2.8402
3.06552
3.36612
3.56932
3.64897
3.6863
3.64334
3.76616
3.76937
3.76467
3.74833
3.72319
3.67311
3.58954
3.45286
3.24628
2.99206
2.75826
2.49331
2.52982
3.02435
4.24205
5.46324
5.60911
5.38622
5.01689
4.66927
4.35724
4.0722
3.80379
3.56106
3.35277
3.17469
3.01775
2.87031
2.7337
2.60656
2.4896
2.3617
2.2412
2.14452
2.07308
1.9864
1.9239
1.87112
1.95393
2.37014
3.20542
4.02264
4.25063
4.22017
4.04826
3.85113
3.71525
3.6237
3.55123
3.46812
3.37546
3.26879
3.14579
3.00507
2.88824
2.81251
2.78591
2.77091
2.84631
3.14971
3.705
4.24268
4.56736
4.58493
4.5142
4.3428
4.18349
4.07077
3.98222
3.90926
3.8324
3.74681
3.66299
3.58533
3.50941
3.43155
3.36061
3.29747
3.21905
3.11822
3.02668
2.96481
2.91717
2.87701
2.84291
2.82728
2.824
2.87258
3.01733
3.31264
3.56913
3.72096
3.755
3.77054
3.74822
3.64769
3.69669
3.71581
3.72969
3.72121
3.6927
3.61948
3.48728
3.26066
2.98034
2.74205
2.53819
2.26912
2.06677
1.99668
2.22887
3.19626
4.3847
4.7963
4.70206
4.42509
4.13007
3.85798
3.60711
3.39591
3.22708
3.08174
2.93594
2.78973
2.65046
2.54024
2.4544
2.36142
2.26409
2.1671
2.08591
1.99263
1.99385
2.21761
2.98457
3.88735
4.51175
4.61127
4.55909
4.38263
4.09719
3.86922
3.73592
3.65107
3.57999
3.50205
3.41431
3.31261
3.19136
3.053
2.94153
2.86285
2.78363
2.7288
2.68354
2.68574
2.81414
3.22033
3.80107
4.20727
4.32144
4.30548
4.20643
4.08725
3.98816
3.89796
3.81456
3.73348
3.6612
3.59774
3.52956
3.4425
3.33877
3.24093
3.1571
3.0807
3.01831
2.97234
2.93726
2.9158
2.9041
2.93598
3.05568
3.28267
3.57387
3.80574
3.83179
3.8492
3.83822
3.79445
3.74543
3.63553
3.7056
3.72257
3.73356
3.71913
3.65782
3.51561
3.28165
2.96111
2.7363
2.50071
2.21608
1.97058
1.84776
1.76353
1.61787
1.71867
2.32524
3.33892
4.12972
4.13656
3.97889
3.72141
3.46052
3.24492
3.08918
2.96976
2.85132
2.73105
2.6266
2.5577
2.47629
2.38086
2.26551
2.18976
2.10985
2.19161
2.69248
3.71105
4.56578
4.85746
4.85591
4.73628
4.56143
4.33716
4.09735
3.91215
3.7933
3.70092
3.61944
3.5377
3.44856
3.35363
3.24692
3.11678
2.98336
2.87228
2.78479
2.71123
2.64954
2.61162
2.56661
2.61239
2.88274
3.38015
3.90576
4.18258
4.18611
4.1028
3.97004
3.87199
3.79352
3.72626
3.66319
3.60165
3.53463
3.44507
3.31045
3.16833
3.09791
3.06293
3.03174
2.99359
2.98352
3.00593
3.09816
3.3168
3.62529
3.91283
4.01533
3.94702
3.89831
3.86568
3.84294
3.79093
3.73805
3.6267
3.73083
3.73752
3.72371
3.67802
3.53449
3.27749
2.96041
2.70936
2.44176
2.11855
1.86464
1.80883
1.70752
1.51788
1.32849
1.24727
1.30971
1.69368
2.63308
3.53057
3.70258
3.5735
3.35616
3.16314
3.02803
2.93361
2.84558
2.73938
2.63859
2.5817
2.49872
2.41477
2.29305
2.29559
2.55379
3.44705
4.52035
5.2107
5.25344
5.15618
4.96457
4.74523
4.51782
4.29599
4.09877
3.96991
3.87004
3.76688
3.66338
3.57053
3.48672
3.40066
3.2947
3.16143
3.017
2.89344
2.80296
2.73045
2.66152
2.58843
2.527
2.49698
2.51039
2.6572
3.03827
3.52701
3.90884
3.93576
3.90656
3.87063
3.80861
3.74603
3.68094
3.60611
3.52387
3.41386
3.26604
3.13793
3.07932
3.04706
3.03349
3.03082
3.07615
3.26547
3.60059
3.95164
4.18664
4.22893
4.16118
4.01699
3.9251
3.87386
3.83097
3.77718
3.72612
3.61852
3.73026
3.72894
3.69742
3.55936
3.27837
2.95721
2.66576
2.35347
1.99497
1.82571
1.72478
1.60331
1.40143
1.17311
1.13477
1.13752
1.11711
1.14631
1.40879
2.21515
3.0978
3.39361
3.34866
3.22909
3.08833
2.9776
2.89373
2.79487
2.69034
2.62423
2.55648
2.48505
2.59422
3.20092
4.42599
5.3635
5.55509
5.51587
5.34579
5.16538
4.97183
4.74611
4.49891
4.27602
4.13206
4.03821
3.94141
3.83503
3.72338
3.60541
3.48428
3.37253
3.27498
3.18233
3.07256
2.95688
2.83926
2.72603
2.6385
2.57842
2.53092
2.47736
2.45871
2.45331
2.51735
2.71963
3.11521
3.51173
3.70491
3.79971
3.8274
3.78789
3.71751
3.62453
3.52278
3.39134
3.2328
3.11941
3.07065
3.05994
3.07295
3.17737
3.47352
3.87271
4.22037
4.34612
4.32567
4.24892
4.11932
4.0334
3.96557
3.90027
3.84274
3.77932
3.72547
3.61438
3.73749
3.71434
3.58336
3.29108
2.95643
2.62071
2.21058
1.90884
1.74801
1.59009
1.44935
1.28982
1.11217
1.03184
1.01298
0.996705
0.974722
0.95761
0.979067
1.18483
1.91197
2.79757
3.22754
3.29972
3.25121
3.1299
3.0231
2.91677
2.8138
2.7163
2.73342
3.03193
4.13249
5.40952
6.15381
6.09797
5.90036
5.61957
5.37817
5.18918
4.989
4.74816
4.51536
4.32898
4.1961
4.08429
3.97201
3.85442
3.7337
3.61818
3.50214
3.3883
3.27607
3.17158
3.08128
2.99198
2.88168
2.7615
2.6593
2.59227
2.557
2.53215
2.4977
2.45207
2.39179
2.36829
2.44932
2.73279
3.15187
3.47569
3.65672
3.69321
3.64658
3.56225
3.46734
3.3507
3.23121
3.13143
3.11863
3.16821
3.34814
3.72628
4.16852
4.45861
4.54529
4.51344
4.39046
4.20676
4.06342
4.0098
3.96602
3.92198
3.86858
3.80463
3.73949
3.60703
3.7408
3.62356
3.31207
2.91827
2.56212
2.10934
1.7722
1.62387
1.44028
1.2777
1.1978
1.0952
1.00009
0.995146
0.988109
0.962744
0.949037
0.942562
0.941442
0.953428
1.09913
1.7709
2.73238
3.28163
3.34602
3.31259
3.22318
3.0977
2.95696
3.02815
3.6164
5.05881
6.45464
6.57555
6.48726
6.20528
5.93797
5.69604
5.44422
5.20161
4.97718
4.74824
4.5549
4.4151
4.2997
4.19374
4.0765
3.93698
3.77867
3.61752
3.47871
3.37106
3.28163
3.19847
3.10708
3.0021
2.89611
2.80143
2.72761
2.67247
2.62024
2.54781
2.46971
2.40118
2.32053
2.28482
2.26092
2.29512
2.49094
2.86516
3.25775
3.54521
3.57883
3.54927
3.45449
3.35318
3.25092
3.2447
3.35731
3.65616
4.0354
4.46315
4.6392
4.63829
4.6051
4.49451
4.31957
4.18135
4.09682
4.02789
3.97559
3.92839
3.88059
3.83269
3.77952
3.62342
3.6625
3.33949
2.84737
2.42627
2.00587
1.60673
1.41846
1.26947
1.0843
1.01815
0.983046
0.932869
0.92563
0.94095
0.949781
0.94572
0.942556
0.948019
0.964929
0.98956
1.00889
1.14821
1.74076
2.66318
3.32331
3.35602
3.3319
3.34378
3.54934
4.48885
6.01383
7.07017
7.2606
7.05965
6.57777
6.16877
5.87582
5.6338
5.41311
5.19096
4.96058
4.75927
4.62943
4.50827
4.37265
4.21878
4.05362
3.89833
3.75079
3.60582
3.48278
3.38382
3.29513
3.20747
3.11944
3.03353
2.953
2.86215
2.74725
2.64141
2.57679
2.52312
2.46123
2.39196
2.32076
2.2674
2.23132
2.20873
2.20323
2.29278
2.56372
2.96372
3.30833
3.41654
3.39451
3.39576
3.46729
3.64733
4.019
4.44069
4.7241
4.85309
4.84019
4.76183
4.60374
4.43755
4.25849
4.1217
4.0534
4.00825
3.97123
3.93255
3.8915
3.83867
3.76595
3.5955
3.35253
2.71747
2.21933
1.80214
1.38881
1.24149
1.16939
1.05138
0.976704
0.958598
0.928043
0.910806
0.922523
0.958714
0.975626
0.975936
0.975623
0.988837
1.00677
1.02981
1.047
1.05208
1.12558
1.59671
2.61278
3.07246
3.53723
4.27374
5.60013
6.70583
7.41007
7.38807
7.11082
6.7869
6.50031
6.23444
5.9313
5.63844
5.39437
5.19393
5.02556
4.89855
4.77191
4.63403
4.4815
4.30864
4.1201
3.93241
3.77478
3.64489
3.53509
3.44022
3.35532
3.27864
3.20957
3.14214
3.0649
2.95984
2.81796
2.67545
2.57306
2.51437
2.47205
2.42325
2.37715
2.33373
2.29271
2.24492
2.16839
2.10358
2.14274
2.34189
2.70712
3.07917
3.32778
3.69693
4.10723
4.39677
4.67508
4.81718
4.94925
4.93615
4.8421
4.70671
4.56469
4.40683
4.22618
4.12333
4.07858
4.04453
4.02058
3.98288
3.93475
3.87575
3.78588
3.58433
2.63597
1.70535
1.15571
0.781088
0.651395
0.681264
0.734206
0.734099
0.757414
0.820206
0.878188
0.921381
0.991485
1.05199
1.05522
1.04368
1.03117
1.03829
1.05481
1.07787