/*--------------------------------*- C++ -*----------------------------------*\
  =========                 |
  \\      /  F ield         | OpenFOAM: The Open Source CFD Toolbox
   \\    /   O peration     | Website:  https://openfoam.org
    \\  /    A nd           | Version:  7
     \\/     M anipulation  |
\*---------------------------------------------------------------------------*/
FoamFile
{
    version     2.0;
    format      ascii;
    class       volScalarField;
    location    "2.3";
    object      rho;
}
// * * * * * * * * * * * * * * * * * * * * * * * * * * * * * * * * * * * * * //

dimensions      [1 -3 0 0 0 0 0];

internalField   nonuniform List<scalar> 
4608
(
1.40001
1.40001
1.40001
1.40001
1.40001
1.40001
1.40001
1.40001
1.40001
1.40001
1.40001
1.40001
1.40001
1.40001
1.40001
1.40001
1.40001
1.40001
1.40001
1.40001
1.40001
1.40001
1.40001
1.40001
1.40001
1.40001
1.40001
1.40001
1.40001
1.40001
1.40001
1.40001
1.40001
1.40001
1.40001
1.40001
1.40001
1.40001
1.40001
1.40001
1.40001
1.40001
1.40001
1.40001
1.40001
1.40001
1.40001
1.40001
1.40001
1.40001
1.40001
1.40001
1.40001
1.40001
1.40001
1.40001
1.40001
1.40001
1.40001
1.40001
1.40001
1.40001
1.40001
1.40001
1.40001
1.40001
1.40001
1.40001
1.40001
1.40001
1.40001
1.40001
1.40001
1.40001
1.40001
1.40001
1.40001
1.40001
1.40001
1.40001
1.40001
1.40001
1.40001
1.40001
1.40001
1.40001
1.40001
1.40001
1.40001
1.40001
1.40001
1.40001
1.40001
1.40001
1.40001
1.40001
1.40001
1.40001
1.40001
1.40001
1.40001
1.40001
1.40001
1.40001
1.40001
1.40001
1.40001
1.40001
1.40001
1.40001
1.40001
1.40001
1.40001
1.40001
1.40001
1.40001
1.40001
1.40001
1.40001
1.40001
1.40001
1.40001
1.40001
1.40001
1.40001
1.40001
1.40001
1.40001
1.40001
1.40001
1.40001
1.40001
1.40001
1.40001
1.40001
1.40001
1.40001
1.40001
1.40001
1.40001
1.40001
1.40001
1.40001
1.40001
1.40001
1.40001
1.40001
1.40001
1.40001
1.40001
1.40001
1.40001
1.40001
1.40001
1.40001
1.40001
1.40001
1.40001
1.40001
1.40001
1.40001
1.40001
1.40001
1.40001
1.40001
1.40001
1.40001
1.40001
1.40001
1.40001
1.40001
1.40001
1.40001
1.40001
1.40001
1.40001
1.40001
1.40001
1.40001
1.40001
1.40001
1.40001
1.40001
1.40001
1.40001
1.40001
1.40001
1.40001
1.40001
1.40001
1.40001
1.40001
1.40001
1.40001
1.40001
1.40001
1.40001
1.40001
1.40001
1.40001
1.40001
1.40001
1.40001
1.40001
1.40001
1.40001
1.40001
1.40001
1.40001
1.40001
1.40001
1.40001
1.40001
1.40001
1.40001
1.40001
1.40001
1.40001
1.40001
1.40001
1.40001
1.40001
1.40001
1.40001
1.40001
1.40001
1.40001
1.40001
1.40001
1.40001
1.40001
1.40001
1.40001
1.40001
1.40001
1.40001
1.40001
1.40001
1.40001
1.40001
1.40001
1.40001
1.40001
1.40001
1.40001
1.40001
1.40001
1.40001
1.40001
1.40001
1.40001
1.40001
1.40001
1.40001
1.40001
1.40001
1.40001
1.40001
1.40001
1.40001
1.40001
1.40001
1.40001
1.40001
1.40001
1.40001
1.40001
1.40001
1.40001
1.40001
1.40001
1.40001
1.40001
1.40001
1.40001
1.40001
1.40001
1.40001
1.40001
1.40001
1.40001
1.40001
1.40001
1.40001
1.40001
1.40001
1.40001
1.40001
1.40001
1.40001
1.40001
1.40001
1.40001
1.40001
1.40001
1.40001
1.40001
1.40001
1.40001
1.40001
1.40001
1.40001
1.40001
1.40001
1.40001
1.40001
1.40001
1.40001
1.40001
1.40001
1.40001
1.40001
1.40001
1.40001
1.40001
1.40001
1.40001
1.40001
1.40001
1.40001
1.40001
1.40001
1.40001
1.40001
1.40001
1.40001
1.40001
1.40001
1.40001
1.40001
1.40001
1.40001
1.40001
1.40001
1.40001
1.40001
1.40001
1.40001
1.40001
1.40001
1.40001
1.40001
1.40001
1.40001
1.40001
1.40001
1.40001
1.40001
1.40001
1.40001
1.40001
1.40001
1.40001
1.40001
1.40001
1.40001
1.40001
1.40001
1.40001
1.40001
1.40001
1.40001
1.40001
1.40001
1.40001
1.40001
1.40001
1.40001
1.40001
1.40001
1.40001
1.40001
1.40001
1.40001
1.40001
1.40001
1.40001
1.40001
1.40001
1.40001
1.40001
1.40001
1.40001
1.40001
1.40001
1.40001
1.40001
1.40001
1.40001
1.40001
1.40001
1.40001
1.40001
1.40001
1.40001
1.40001
1.40001
1.40001
1.40001
1.40001
1.40001
1.40001
1.40001
1.40001
1.40001
1.40001
1.40001
1.40001
1.40001
1.40001
1.40001
1.40001
1.40001
1.40001
1.40001
1.40001
1.40001
1.40001
1.40001
1.40001
1.40001
1.40001
1.40001
1.40001
1.40001
1.40001
1.40001
1.40001
1.40001
1.40001
1.40001
1.40001
1.40001
1.40001
1.40001
1.40001
1.40001
1.40001
1.40001
1.40001
1.40001
1.40001
1.40001
1.40001
1.40001
1.40001
1.40001
1.40001
1.40001
1.40001
1.40001
1.40001
1.40001
1.40001
1.40001
1.40001
1.40001
1.40001
1.40001
1.40001
1.40001
1.40001
1.40001
1.40001
1.40001
1.40001
1.40001
1.40001
1.40001
1.40001
1.40001
1.40001
1.40001
1.40001
1.40001
1.40001
1.40001
1.40001
1.40001
1.40001
1.40001
1.40001
1.40001
1.40001
1.40001
1.40001
1.40001
1.40001
1.40001
1.40001
1.40001
1.40001
1.40001
1.40001
1.40001
1.40001
1.40001
1.40001
1.40001
1.40001
1.40001
1.40001
1.40001
1.40001
1.40001
1.40001
1.40001
1.40001
1.40001
1.40001
1.40001
1.40001
1.40001
1.40001
1.40001
1.40001
1.40001
1.40001
1.40001
1.40001
1.40001
1.40001
1.40001
1.40001
1.40001
1.40001
1.40001
1.40001
1.40001
1.40001
1.40001
1.40001
1.40001
1.40001
1.40001
1.40001
1.40001
1.40001
1.40001
1.40001
1.40001
1.40001
1.40001
1.40001
1.40001
1.40001
1.40001
1.40001
1.40001
1.40001
1.40001
1.40001
1.40001
1.40001
1.40001
1.40001
1.40001
1.40001
1.40001
1.40001
1.40001
1.40001
1.40001
1.40001
1.40001
1.40001
1.40001
1.40001
1.40001
1.40001
1.40001
1.40001
1.40001
1.40001
1.40001
1.40001
1.40001
1.40001
1.40001
1.40001
1.40001
1.40001
1.40001
1.40001
1.40001
1.40001
1.40001
1.40001
1.40001
1.40001
1.40001
1.40001
1.40001
1.40001
1.40001
1.40001
1.40001
1.40001
1.40001
1.40001
1.40001
1.40001
1.40001
1.40001
1.40001
1.40001
1.40001
1.40001
1.40001
1.40001
1.40001
1.40001
1.40001
1.40001
1.40001
1.40001
1.40001
1.40001
1.40001
1.40001
1.40001
1.40001
1.40001
1.40001
1.40001
1.40001
1.40001
1.40001
1.40001
1.40001
1.40001
1.40001
1.40001
1.40001
1.40001
1.40001
1.40001
1.40001
1.40001
1.40001
1.40001
1.40001
1.40001
1.40001
1.40001
1.40001
1.40001
1.40001
1.40001
1.40001
1.40001
1.40001
1.40001
1.40001
1.40001
1.40001
1.40001
1.40001
1.40001
1.40001
1.40001
1.40001
1.40001
1.40001
1.40001
1.40001
1.40001
1.40001
1.40001
1.40001
1.40001
1.40001
1.40001
1.40001
1.40001
1.40001
1.40001
1.40001
1.40001
1.40001
1.40001
1.40001
1.40001
1.40001
1.40001
1.40001
1.40001
1.40001
1.40001
1.40001
1.40001
1.40001
1.40001
1.40001
1.40001
1.40001
1.40001
1.40001
1.40001
1.40001
1.40001
1.40001
1.40001
1.40001
1.40001
1.40001
1.40001
1.40001
1.40001
1.40001
1.40001
1.40001
1.40001
1.40001
1.40001
1.40001
1.40001
1.40001
1.40001
1.40001
1.40001
1.40001
1.40001
1.40001
1.40001
1.40001
1.40001
1.40001
1.40001
1.40001
1.40001
1.40001
1.40001
1.40001
1.40001
1.40001
1.40001
1.40001
1.40001
1.40001
1.40001
1.40001
1.40001
1.40001
1.40001
1.40001
1.40001
1.40001
1.40001
1.40001
1.40001
1.40001
1.40001
1.40001
1.40001
1.40001
1.40001
1.40001
1.40001
1.40001
1.40001
1.40001
1.40001
1.40001
1.40001
1.40001
1.40001
1.40001
1.6791
2.0824
2.52955
3.01093
3.40963
3.83897
4.13966
4.4097
4.41793
4.29223
4.04286
3.72604
3.44832
3.3644
3.30673
3.30482
3.32075
3.34709
3.37957
3.40397
3.41315
3.41411
3.41097
3.41299
1.402
1.42084
1.47331
1.58788
1.80255
2.1036
2.51187
2.97768
3.37457
3.52328
3.67202
3.62377
3.53438
3.47556
3.44847
3.40444
3.3766
3.36343
3.36862
3.38544
3.40199
3.41207
3.41495
3.41504
1.4
1.40001
1.40009
1.40009
1.40334
1.42051
1.49829
1.70598
2.20242
2.87237
3.45907
3.70155
3.75985
3.70947
3.62344
3.48395
3.38361
3.34482
3.33958
3.34928
3.37302
3.39821
3.40497
3.40632
1.4
1.4
1.4
1.4
1.39999
1.40004
1.39999
1.4015
1.43112
1.64066
2.18326
2.91901
3.4434
3.57793
3.53389
3.49717
3.45256
3.38396
3.33027
3.31932
3.32529
3.34536
3.36735
3.37544
1.40001
1.40001
1.40001
1.4
1.4
1.4
1.4
1.4
1.39991
1.40141
1.43175
1.70036
2.28646
3.07197
3.35908
3.5147
3.51408
3.46823
3.35521
3.30935
3.29287
3.29413
3.30615
3.32054
1.40001
1.40001
1.40001
1.40001
1.40001
1.4
1.4
1.4
1.39999
1.39999
1.39992
1.40369
1.45729
1.81425
2.48487
3.18257
3.4359
3.42246
3.39558
3.35594
3.32689
3.29246
3.28401
3.28753
1.40001
1.40001
1.40001
1.40001
1.40001
1.40001
1.40001
1.40001
1.4
1.4
1.39999
1.4
1.39999
1.4099
1.53855
2.01626
2.74637
3.25414
3.42109
3.41865
3.3915
3.3402
3.3059
3.29045
1.40001
1.40001
1.40001
1.40001
1.40001
1.40001
1.40001
1.40001
1.40001
1.40001
1.4
1.4
1.4
1.39997
1.40097
1.42963
1.69969
2.36329
2.99857
3.26495
3.34883
3.34003
3.30191
3.28185
1.40001
1.40001
1.40001
1.40001
1.40001
1.40001
1.40001
1.40001
1.40001
1.40001
1.40001
1.40001
1.4
1.4
1.4
1.4
1.40769
1.50641
1.99711
2.7549
3.26828
3.29393
3.30447
3.29367
1.40001
1.40001
1.40001
1.40001
1.40001
1.40001
1.40001
1.40001
1.40001
1.40001
1.40001
1.40001
1.40001
1.4
1.4
1.4
1.39999
1.40105
1.44741
1.73442
2.4648
3.03974
3.34822
3.35638
1.40001
1.40001
1.40001
1.40001
1.40001
1.40001
1.40001
1.40001
1.40001
1.40001
1.40001
1.40001
1.40001
1.40001
1.40001
1.4
1.4
1.4
1.4003
1.41261
1.60195
2.17246
2.96986
3.21138
1.40001
1.40001
1.40001
1.40001
1.40001
1.40001
1.40001
1.40001
1.40001
1.40001
1.40001
1.40001
1.40001
1.40001
1.40001
1.40001
1.4
1.4
1.4
1.40002
1.40628
1.50006
1.96199
2.7879
1.40001
1.40001
1.40001
1.40001
1.40001
1.40001
1.40001
1.40001
1.40001
1.40001
1.40001
1.40001
1.40001
1.40001
1.40001
1.40001
1.40001
1.4
1.4
1.4
1.40001
1.40194
1.45671
1.82992
1.40001
1.40001
1.40001
1.40001
1.40001
1.40001
1.40001
1.40001
1.40001
1.40001
1.40001
1.40001
1.40001
1.40001
1.40001
1.40001
1.40001
1.40001
1.40001
1.4
1.40001
1.4
1.40114
1.42748
1.40001
1.40001
1.40001
1.40001
1.40001
1.40001
1.40001
1.40001
1.40001
1.40001
1.40001
1.40001
1.40001
1.40001
1.40001
1.40001
1.40001
1.40001
1.40001
1.40001
1.4
1.4
1.40002
1.40004
1.40001
1.40001
1.40001
1.40001
1.40001
1.40001
1.40001
1.40001
1.40001
1.40001
1.40001
1.40001
1.40001
1.40001
1.40001
1.40001
1.40001
1.40001
1.40001
1.40001
1.40001
1.4
1.4
1.4
1.40001
1.40001
1.40001
1.40001
1.40001
1.40001
1.40001
1.40001
1.40001
1.40001
1.40001
1.40001
1.40001
1.40001
1.40001
1.40001
1.40001
1.40001
1.40001
1.40001
1.40001
1.40001
1.4
1.4
1.40001
1.40001
1.40001
1.40001
1.40001
1.40001
1.40001
1.40001
1.40001
1.40001
1.40001
1.40001
1.40001
1.40001
1.40001
1.40001
1.40001
1.40001
1.40001
1.40001
1.4
1.4
1.4
1.40007
1.40001
1.40001
1.40001
1.40001
1.40001
1.40001
1.40001
1.40001
1.40001
1.40001
1.40001
1.40001
1.40001
1.40001
1.40001
1.40001
1.40001
1.40001
1.40001
1.4
1.4
1.4
1.40103
1.4285
1.40001
1.40001
1.40001
1.40001
1.40001
1.40001
1.40001
1.40001
1.40001
1.40001
1.40001
1.40001
1.40001
1.40001
1.40001
1.40001
1.40001
1.4
1.4
1.4
1.40001
1.40193
1.46189
1.82347
1.40001
1.40001
1.40001
1.40001
1.40001
1.40001
1.40001
1.40001
1.40001
1.40001
1.40001
1.40001
1.40001
1.40001
1.40001
1.40001
1.4
1.4
1.4
1.40002
1.40655
1.49829
2.01324
2.70012
1.40001
1.40001
1.40001
1.40001
1.40001
1.40001
1.40001
1.40001
1.40001
1.40001
1.40001
1.40001
1.40001
1.40001
1.40001
1.4
1.4
1.4
1.4003
1.41263
1.59557
2.20622
2.96431
3.15274
1.40001
1.40001
1.40001
1.40001
1.40001
1.40001
1.40001
1.40001
1.40001
1.40001
1.40001
1.40001
1.40001
1.4
1.4
1.4
1.39999
1.40104
1.44801
1.73072
2.45254
3.07125
3.34209
3.3431
1.40001
1.40001
1.40001
1.40001
1.40001
1.40001
1.40001
1.40001
1.40001
1.40001
1.40001
1.40001
1.4
1.4
1.4
1.4
1.40765
1.50634
2.0024
2.73699
3.2746
3.30588
3.30789
3.28986
1.40001
1.40001
1.40001
1.40001
1.40001
1.40001
1.40001
1.40001
1.40001
1.40001
1.4
1.4
1.4
1.39997
1.40097
1.4297
1.69867
2.36565
2.99978
3.25853
3.35004
3.34284
3.30241
3.27733
1.40001
1.40001
1.40001
1.40001
1.40001
1.40001
1.40001
1.40001
1.4
1.4
1.39999
1.4
1.39999
1.40988
1.53874
2.01588
2.74558
3.25672
3.42002
3.41684
3.39105
3.34173
3.30361
3.2901
1.40001
1.40001
1.40001
1.40001
1.40001
1.4
1.4
1.4
1.39999
1.39999
1.39992
1.40369
1.45731
1.81412
2.48566
3.18138
3.4361
3.42321
3.39582
3.35515
3.32736
3.29333
3.28357
3.28761
1.40001
1.40001
1.40001
1.4
1.4
1.4
1.4
1.4
1.39991
1.40141
1.43175
1.70038
2.28612
3.07271
3.35931
3.51402
3.51371
3.46841
3.3557
3.30852
3.29345
3.29452
3.30609
3.32063
1.4
1.4
1.4
1.4
1.39999
1.40004
1.39999
1.4015
1.43111
1.64067
2.18324
2.91907
3.44325
3.5781
3.53383
3.49687
3.45235
3.38431
3.33046
3.31887
3.32518
3.34557
3.36734
3.37519
1.4
1.40001
1.40009
1.40009
1.40334
1.42052
1.49828
1.70599
2.20241
2.87236
3.45901
3.70163
3.75987
3.7094
3.62343
3.48393
3.38364
3.34483
3.33951
3.34925
3.37297
3.3982
3.40485
3.40618
1.40199
1.42085
1.47334
1.58783
1.80259
2.10361
2.51184
2.97769
3.37462
3.52325
3.67194
3.62392
3.53439
3.47532
3.4486
3.40448
3.3766
3.36346
3.36864
3.38546
3.40198
3.41205
3.41487
3.41496
1.67911
2.08242
2.52946
3.01104
3.40973
3.83869
4.13974
4.40984
4.41794
4.29218
4.0428
3.72605
3.44818
3.36438
3.30686
3.30483
3.32081
3.3472
3.3797
3.40404
3.41319
3.41413
3.41095
3.41296
2.64797
1.93767
1.45202
1.09481
0.946274
0.964789
1.00552
1.00652
1.03011
1.09449
1.15311
1.19534
1.26242
1.32244
1.32654
1.31699
1.30578
1.31203
1.32818
1.35162
1.35941
1.35629
1.34217
1.38212
1.6844
2.54916
3.61907
4.81093
5.83063
6.01834
5.67022
5.14286
4.79798
4.63279
4.55072
4.43979
4.309
4.18855
4.08162
3.97957
3.87235
3.75949
3.65163
3.54872
3.44645
3.34396
3.24969
3.17551
3.11805
3.06275
3.00675
2.95007
2.8921
2.82739
2.74488
2.6405
2.54647
2.49401
2.46697
2.44361
2.42016
2.39516
2.36587
2.32984
2.27802
2.19797
2.08611
2.00768
1.98575
1.97449
1.97727
2.01283
2.16235
2.52359
2.99143
3.37683
3.63295
3.8571
3.92013
3.84546
3.78981
3.75348
3.71937
3.67641
3.62263
3.54721
3.40226
3.25123
3.2051
3.18002
3.16372
3.17409
3.18264
3.16329
3.13966
3.05259
3.14466
2.70384
2.33558
2.01607
1.68533
1.54572
1.47153
1.36215
1.2898
1.26744
1.23344
1.21118
1.22171
1.25646
1.27334
1.27343
1.27266
1.28343
1.29957
1.32108
1.3382
1.34154
1.40357
1.76131
2.43868
2.75623
3.04424
3.47021
4.21103
4.78807
5.12538
5.07806
4.91757
4.74503
4.58799
4.44794
4.32855
4.21953
4.11683
4.01552
3.90831
3.79353
3.67958
3.57271
3.47191
3.37789
3.29169
3.21413
3.15386
3.09842
3.04143
2.98223
2.91936
2.84988
2.76761
2.67573
2.59362
2.5343
2.499
2.47374
2.44923
2.42237
2.38999
2.35029
2.29463
2.21554
2.11804
2.04381
2.02155
2.02765
2.07898
2.23401
2.51944
2.76487
2.91401
3.09674
3.2832
3.40343
3.52728
3.61651
3.71575
3.77078
3.75447
3.69695
3.63039
3.54663
3.42245
3.28199
3.21822
3.19094
3.17526
3.18637
3.19127
3.17132
3.14531
3.06015
3.34286
3.13154
2.79344
2.49182
2.18004
1.85814
1.69715
1.57148
1.40513
1.33857
1.30398
1.25516
1.24776
1.2617
1.26969
1.26438
1.26
1.26455
1.28014
1.30332
1.32077
1.43899
1.90222
2.50413
2.91322
2.94252
2.93235
2.94497
3.06958
3.60149
4.40709
4.93086
4.99754
4.89187
4.63505
4.41496
4.26113
4.14099
4.02886
3.93041
3.83834
3.74576
3.65374
3.56153
3.47055
3.38083
3.28275
3.16559
3.06922
3.02087
2.97617
2.928
2.8754
2.81691
2.75497
2.68458
2.59896
2.51075
2.45273
2.41879
2.3912
2.36393
2.33272
2.29399
2.24468
2.18846
2.1296
2.08247
2.08684
2.15857
2.35911
2.61698
2.85147
2.90511
2.90474
2.89324
2.91975
3.00008
3.19696
3.43525
3.59874
3.72165
3.72836
3.69883
3.62099
3.5281
3.42986
3.32286
3.24255
3.20121
3.17817
3.1582
3.13701
3.11717
3.09752
3.02884
3.36845
3.29944
3.09978
2.83368
2.58546
2.25308
1.98774
1.87204
1.72507
1.57873
1.50689
1.41721
1.32966
1.32178
1.31321
1.28769
1.27291
1.2668
1.26566
1.2764
1.39806
1.92742
2.57195
2.87863
2.94049
2.91504
2.85873
2.78884
2.70023
2.74006
3.08279
3.90135
4.59367
4.67671
4.62093
4.45369
4.25892
4.09373
3.96357
3.87723
3.81383
3.74211
3.66655
3.5861
3.49866
3.40152
3.29464
3.17478
3.04581
2.97799
2.94096
2.90249
2.86315
2.82176
2.7709
2.70178
2.6169
2.51994
2.44764
2.40509
2.36836
2.32974
2.29616
2.25852
2.21754
2.19275
2.17523
2.19956
2.3233
2.56469
2.78129
2.94829
2.98773
2.97356
2.91585
2.8554
2.79896
2.7929
2.85634
3.04262
3.26252
3.48328
3.57094
3.57943
3.56069
3.51038
3.43971
3.36234
3.28739
3.22894
3.18867
3.15749
3.1255
3.09539
3.07325
3.01871
3.33979
3.33014
3.25395
3.06936
2.84776
2.61807
2.32168
2.09349
1.97249
1.8429
1.72072
1.58414
1.43054
1.35475
1.3346
1.31797
1.29581
1.27987
1.30036
1.46649
2.01871
2.63464
2.86343
2.89864
2.87343
2.79101
2.72067
2.66095
2.58973
2.52369
2.5363
2.73362
3.35852
4.09857
4.47231
4.43655
4.28463
4.08497
3.93125
3.82421
3.74698
3.67259
3.59292
3.51428
3.43827
3.36216
3.28297
3.182
3.06147
2.95857
2.89508
2.84798
2.79996
2.75844
2.72681
2.70023
2.65173
2.56008
2.45049
2.38789
2.35448
2.31793
2.28153
2.24255
2.22391
2.23686
2.31582
2.51067
2.77425
2.94997
3.01885
3.03342
3.0148
2.96649
2.90477
2.83438
2.77473
2.76018
2.75142
2.78054
2.876
3.06149
3.29103
3.4386
3.46648
3.46072
3.43864
3.39337
3.33023
3.27081
3.22129
3.17604
3.12852
3.08469
3.05241
2.98535
3.30913
3.31475
3.30185
3.22242
3.04696
2.83704
2.64077
2.41986
2.15437
2.02503
1.9437
1.84369
1.67468
1.47584
1.441
1.44404
1.42541
1.45092
1.66783
2.22119
2.82055
2.983
2.94269
2.86763
2.76983
2.68466
2.63073
2.57685
2.50755
2.44445
2.40671
2.37185
2.44471
2.84273
3.55377
4.10401
4.16351
4.1003
3.95931
3.82776
3.72143
3.62718
3.54488
3.4754
3.40898
3.34549
3.28231
3.20407
3.08893
2.96029
2.85783
2.80234
2.76921
2.74164
2.71188
2.67193
2.62007
2.55115
2.45767
2.37528
2.32545
2.28711
2.25996
2.25211
2.28982
2.46755
2.75573
3.01059
3.10711
3.11337
3.09758
3.06013
3.00789
2.95085
2.91036
2.86533
2.82142
2.7852
2.75312
2.71209
2.68608
2.71828
2.85182
3.07956
3.23765
3.33107
3.38056
3.37539
3.36022
3.32242
3.25889
3.1892
3.12767
3.07839
3.04401
2.97175
3.2964
3.30491
3.30024
3.27671
3.19331
3.0342
2.82782
2.66015
2.47259
2.23632
2.04512
2.00086
1.91914
1.76198
1.60245
1.5345
1.58328
1.8841
2.51665
3.05416
3.16556
3.08659
2.94902
2.83415
2.73582
2.66092
2.60451
2.5443
2.46848
2.40741
2.35653
2.3051
2.25204
2.26486
2.46049
3.00536
3.68604
3.95224
3.91956
3.85313
3.71463
3.59162
3.50002
3.43731
3.37262
3.30624
3.24007
3.16734
3.08249
2.97267
2.86731
2.79533
2.74639
2.70694
2.67292
2.64383
2.61453
2.56915
2.48865
2.37807
2.30817
2.28552
2.28642
2.388
2.64121
2.98892
3.1996
3.24898
3.22818
3.16511
3.07883
3.02383
2.98457
2.94855
2.91323
2.87553
2.83628
2.79708
2.75634
2.70134
2.65746
2.61347
2.62323
2.70978
2.90487
3.1042
3.26928
3.33234
3.33697
3.30891
3.25324
3.1927
3.14034
3.08641
3.04197
2.9659
3.28493
3.29258
3.29755
3.29276
3.25788
3.17181
3.02507
2.81489
2.66521
2.50156
2.29672
2.1157
2.02082
1.95394
1.83505
1.89894
2.30374
2.96133
3.40681
3.41213
3.31896
3.1715
3.02907
2.90596
2.79138
2.70233
2.62521
2.54708
2.45856
2.39853
2.33963
2.27724
2.21762
2.17923
2.15045
2.21572
2.58574
3.2005
3.61735
3.73625
3.69843
3.59037
3.48679
3.40666
3.3264
3.24818
3.17904
3.12003
3.05978
2.98394
2.89226
2.79287
2.72618
2.68597
2.65096
2.6132
2.56747
2.51839
2.45634
2.38114
2.32795
2.35413
2.51367
2.83581
3.15056
3.36095
3.38831
3.37263
3.30493
3.17635
3.06879
3.00734
2.97308
2.9466
2.91732
2.8867
2.85284
2.81373
2.76809
2.7142
2.65149
2.60292
2.57642
2.57932
2.63171
2.77287
2.97998
3.15365
3.25005
3.24864
3.22857
3.19497
3.1572
3.10237
3.04766
2.96682
3.29032
3.2928
3.29222
3.28988
3.28241
3.23706
3.1466
2.99614
2.81116
2.6558
2.51936
2.32798
2.17824
2.12449
2.27588
2.85826
3.55545
3.78836
3.73138
3.57476
3.40814
3.26119
3.13047
3.01368
2.90413
2.80638
2.70952
2.60386
2.49741
2.41212
2.33669
2.26284
2.20362
2.15472
2.11677
2.07586
2.08806
2.26322
2.70667
3.28649
3.57376
3.54575
3.49946
3.39382
3.2933
3.20682
3.13268
3.07422
3.0337
2.99391
2.92243
2.8092
2.71787
2.66457
2.6254
2.58301
2.5414
2.50234
2.46001
2.41784
2.47691
2.71044
3.03317
3.29331
3.42386
3.44337
3.42314
3.36894
3.28459
3.17874
3.08599
3.02161
2.97825
2.95057
2.92218
2.89362
2.86596
2.83375
2.78973
2.7282
2.65194
2.59877
2.56718
2.55658
2.5542
2.57894
2.66682
2.83023
3.00381
3.13463
3.18959
3.18408
3.15567
3.10647
3.05358
2.97585
3.33476
3.31583
3.31594
3.31214
3.29422
3.26958
3.21913
3.12032
2.97841
2.81362
2.6597
2.47772
2.49998
2.81
3.52047
4.15023
4.2453
4.13138
3.92694
3.72421
3.54606
3.39476
3.25675
3.1252
3.00134
2.88966
2.78606
2.67781
2.5734
2.4739
2.37995
2.2802
2.20463
2.14445
2.09849
2.04795
2.02176
2.00192
2.05784
2.33866
2.8505
3.28616
3.40268
3.37418
3.29927
3.21277
3.13544
3.07577
3.01917
2.94854
2.87119
2.79034
2.70831
2.6374
2.59374
2.55597
2.54436
2.52252
2.55437
2.69106
3.00357
3.28644
3.45562
3.53452
3.53035
3.46846
3.39457
3.33077
3.26543
3.18814
3.11741
3.0491
2.99564
2.96331
2.93419
2.9071
2.88109
2.84938
2.80644
2.74502
2.66631
2.60678
2.57183
2.55297
2.53889
2.53821
2.53595
2.57291
2.66963
2.83963
3.00407
3.11284
3.10723
3.09495
3.06314
2.99846
3.26234
3.29357
3.32614
3.33535
3.31817
3.29436
3.26166
3.21016
3.10127
2.97878
2.82934
2.93516
3.50322
4.32539
4.70812
4.65664
4.47227
4.26572
4.06205
3.86416
3.67866
3.5107
3.36173
3.22748
3.1016
2.98047
2.86366
2.74822
2.64158
2.53898
2.43813
2.33704
2.2523
2.17572
2.10469
2.04641
1.99501
1.9577
1.9271
1.92707
2.05274
2.44315
2.92289
3.20047
3.2477
3.22753
3.16144
3.08392
3.01114
2.9402
2.86519
2.77859
2.68723
2.61674
2.58058
2.56518
2.58463
2.71993
2.99705
3.33029
3.55938
3.60752
3.60044
3.57697
3.5198
3.45724
3.38682
3.31648
3.25767
3.20766
3.16008
3.09167
3.02236
2.98116
2.94979
2.92271
2.89596
2.86458
2.8238
2.76729
2.69094
2.62387
2.58754
2.56345
2.54369
2.52617
2.51757
2.50043
2.49376
2.54431
2.68281
2.87207
2.98965
3.04005
3.05331
3.02066
3.27227
3.29323
3.29912
3.30283
3.31414
3.31043
3.29421
3.26781
3.19368
3.20601
3.56724
4.38466
5.14175
5.33702
5.21851
4.9332
4.65273
4.41029
4.19571
3.99437
3.80291
3.62168
3.45539
3.30866
3.17785
3.05604
2.93994
2.8274
2.71878
2.60661
2.48505
2.3711
2.28069
2.20586
2.13124
2.06603
2.01232
1.96967
1.91194
1.86645
1.82625
1.86624
2.11105
2.56389
2.93531
3.10177
3.09467
3.04917
2.98283
2.92319
2.8554
2.77327
2.69159
2.63172
2.61024
2.67059
2.92087
3.32526
3.61478
3.82284
3.85028
3.80453
3.69767
3.5875
3.50979
3.44401
3.38957
3.33327
3.27858
3.2343
3.19137
3.12508
3.04688
2.99741
2.96424
2.93615
2.90772
2.87493
2.83513
2.78555
2.72077
2.65108
2.60723
2.57999
2.55694
2.53379
2.51338
2.4908
2.45597
2.42113
2.44393
2.54303
2.73576
2.86922
2.97837
3.00315
2.72526
3.11101
3.22947
3.30609
3.34542
3.34982
3.336
3.34024
3.48508
4.24482
5.37602
5.75175
5.71653
5.58879
5.38379
5.14748
4.8878
4.61543
4.34978
4.10925
3.9009
3.71492
3.53884
3.37534
3.23368
3.10983
2.99049
2.87016
2.75457
2.64642
2.53986
2.43543
2.32023
2.21483
2.15487
2.10752
2.05202
1.99431
1.93346
1.86551
1.81367
1.75425
1.75502
1.87125
2.21706
2.6744
2.9475
2.99521
2.96734
2.89841
2.8104
2.76048
2.70892
2.71659
2.84429
3.19714
3.61405
3.84306
3.89794
3.90681
3.89184
3.83062
3.72101
3.60573
3.50946
3.43467
3.38608
3.34656
3.30589
3.26912
3.22582
3.15461
3.06563
3.00545
2.96992
2.9406
2.91249
2.88172
2.84583
2.80187
2.74272
2.67539
2.63516
2.61358
2.59222
2.56721
2.53943
2.50646
2.45924
2.40073
2.37362
2.37955
2.44843
2.59789
2.76247
2.90961
1.76814
2.41651
2.97978
3.30593
3.2993
3.32429
3.44284
3.89264
4.91573
6.02834
6.43872
6.35212
6.02555
5.69594
5.48446
5.28258
5.04285
4.77211
4.49306
4.23486
4.01008
3.8136
3.62993
3.44851
3.27684
3.12513
3.00339
2.90268
2.80276
2.69331
2.57299
2.45849
2.357
2.26874
2.18441
2.09008
2.01827
1.96718
1.92894
1.88851
1.83454
1.76216
1.70795
1.65365
1.69547
1.92904
2.38049
2.72651
2.87924
2.86659
2.8176
2.83183
2.92371
3.15607
3.55379
3.93495
4.09575
4.08974
4.03048
3.92196
3.84846
3.79171
3.70779
3.61949
3.53505
3.4633
3.41494
3.37597
3.33272
3.28316
3.22417
3.15089
3.06925
3.00884
2.97356
2.94259
2.91236
2.88293
2.85156
2.81861
2.77571
2.71421
2.64954
2.60553
2.57285
2.5428
2.51318
2.48277
2.45085
2.41154
2.37909
2.34326
2.3326
2.36929
2.46326
2.68038
1.42716
1.6439
2.15412
2.90817
3.11244
3.74381
4.5468
5.55963
6.4534
6.56899
6.51901
6.39232
6.18532
5.90185
5.62568
5.36158
5.09339
4.83884
4.59262
4.34098
4.10674
3.90275
3.71441
3.52182
3.33328
3.17454
3.03396
2.9081
2.78998
2.68523
2.59342
2.50282
2.4109
2.30317
2.18566
2.09079
2.02924
1.98502
1.93074
1.85737
1.79705
1.74969
1.6914
1.63742
1.60338
1.60947
1.75353
2.10012
2.52829
2.70848
2.92177
3.33233
3.64819
3.89212
4.12225
4.18157
4.15736
4.09849
4.03119
3.94269
3.83884
3.76242
3.69648
3.64077
3.57075
3.50549
3.45627
3.40883
3.35695
3.29836
3.2323
3.16478
3.09302
3.03385
2.99719
2.96503
2.93145
2.89605
2.86431
2.83601
2.80115
2.74603
2.67476
2.61886
2.57876
2.54263
2.50658
2.47268
2.44545
2.4257
2.40016
2.36351
2.2985
2.26336
2.27485
2.40846
1.40056
1.41256
1.53476
2.15455
3.17788
4.73986
5.83534
6.50868
7.04848
6.88597
6.55421
6.3775
6.25267
6.03637
5.75308
5.4513
5.14937
4.87372
4.63252
4.38462
4.14585
3.91881
3.70789
3.56187
3.4393
3.28649
3.11834
2.96567
2.84107
2.72259
2.6146
2.50539
2.39874
2.31924
2.2503
2.17442
2.09369
2.01639
1.93301
1.86198
1.81363
1.76645
1.70342
1.65162
1.59629
1.55643
1.56267
1.65167
1.96932
2.59477
3.26331
3.92298
4.2285
4.37417
4.40358
4.32118
4.18952
4.06703
4.00971
3.94818
3.8553
3.76278
3.67074
3.59709
3.55698
3.51512
3.4698
3.42224
3.3651
3.29781
3.22813
3.14961
3.06558
3.00677
2.97194
2.94202
2.91475
2.89129
2.86706
2.83759
2.80288
2.7498
2.66959
2.60244
2.57055
2.54094
2.5038
2.47604
2.45935
2.44195
2.41499
2.36996
2.28944
2.23584
2.23265
2.26863
1.40032
1.41386
1.55935
2.12905
3.48543
4.53642
5.81827
6.56355
6.99562
6.92131
6.69466
6.48295
6.34602
6.0841
5.72976
5.37928
5.07272
4.79882
4.57706
4.41462
4.23024
4.008
3.78709
3.58045
3.38717
3.22254
3.06477
2.91561
2.83187
2.77129
2.67772
2.55981
2.44288
2.32912
2.22414
2.13125
2.02283
1.937
1.90893
1.89715
1.86606
1.81775
1.74026
1.63496
1.56776
1.55086
1.55927
1.64537
1.95984
2.58815
3.32505
3.8178
4.21068
4.41712
4.36867
4.31705
4.23478
4.10462
4.0335
3.96698
3.8707
3.77107
3.67935
3.59581
3.54982
3.52214
3.49143
3.44713
3.38671
3.31529
3.23816
3.14802
3.05694
3.00188
2.96984
2.94039
2.914
2.89278
2.87642
2.85681
2.82492
2.77133
2.6813
2.60159
2.56305
2.54314
2.52647
2.50781
2.49026
2.4697
2.439
2.37947
2.28695
2.23112
2.22618
2.27348
1.42091
1.61204
2.24151
2.87016
3.3573
3.63522
4.48297
5.50998
6.28734
6.64005
6.61639
6.52193
6.29635
5.96018
5.62857
5.32105
5.04122
4.78971
4.54858
4.30682
4.07821
3.87576
3.69705
3.52547
3.36306
3.21613
3.08373
2.95888
2.82891
2.69515
2.58009
2.47237
2.37106
2.29519
2.22644
2.13774
2.02538
1.94777
1.89881
1.84922
1.81321
1.77494
1.7199
1.64377
1.57795
1.5898
1.72566
2.08947
2.50792
2.72419
2.97775
3.22949
3.64388
3.97281
4.06473
4.15286
4.17139
4.13206
4.0662
3.97459
3.8634
3.76383
3.69422
3.63387
3.55819
3.48614
3.43615
3.3966
3.36481
3.33179
3.2681
3.16562
3.0666
3.02162
2.99438
2.96858
2.94387
2.91802
2.88429
2.84225
2.79342
2.73492
2.67115
2.61813
2.58124
2.54632
2.50993
2.47948
2.45353
2.42956
2.40499
2.36746
2.3035
2.26272
2.26863
2.3972
1.69839
2.41279
3.01512
3.26555
3.3202
3.32508
3.42392
3.87816
4.87647
6.00454
6.52487
6.462
6.10328
5.7255
5.46102
5.2234
4.9743
4.71176
4.44777
4.20541
4.00397
3.83499
3.67197
3.49988
3.32383
3.15292
3.004
2.8853
2.77082
2.64869
2.53859
2.4508
2.37287
2.28586
2.18505
2.10081
2.05493
2.00292
1.928
1.85067
1.80667
1.77261
1.73147
1.69188
1.72781
1.95436
2.3639
2.74143
2.86931
2.85159
2.81312
2.81365
2.94337
3.25848
3.64682
3.94241
4.13034
4.10914
4.02925
3.91754
3.83696
3.7787
3.71426
3.62654
3.52835
3.44419
3.40293
3.37637
3.34917
3.31175
3.25288
3.14687
3.02827
2.98445
2.96071
2.93771
2.91599
2.89326
2.8678
2.83828
2.79632
2.71945
2.64007
2.59795
2.5706
2.53857
2.5026
2.47236
2.44437
2.41982
2.39577
2.36051
2.33247
2.35891
2.4363
2.65104
2.55346
3.17824
3.3024
3.33934
3.35007
3.33985
3.29679
3.29592
3.44523
4.17375
5.33644
5.82514
5.74406
5.58183
5.34828
5.09712
4.83924
4.58138
4.34164
4.1312
3.94608
3.77439
3.60552
3.43308
3.25747
3.09095
2.94659
2.82411
2.71985
2.63088
2.5419
2.44592
2.34184
2.23524
2.14694
2.08953
2.02931
1.9662
1.9074
1.84409
1.79662
1.76168
1.77257
1.88394
2.22539
2.67753
2.93202
2.98515
2.95829
2.89333
2.81271
2.76864
2.73791
2.77683
2.92058
3.20196
3.60861
3.79731
3.85873
3.86805
3.85242
3.80195
3.72181
3.61394
3.49654
3.42814
3.39539
3.36694
3.33567
3.29532
3.23609
3.14058
3.02935
2.97761
2.95283
2.93041
2.9097
2.88843
2.86558
2.83501
2.77635
2.68104
2.61923
2.59109
2.56644
2.53873
2.50849
2.47819
2.44246
2.42255
2.39881
2.40258
2.45972
2.59642
2.74403
2.88582
3.21966
3.37547
3.37331
3.34173
3.31168
3.28828
3.25885
3.24333
3.18081
3.18706
3.53957
4.41479
5.12562
5.32762
5.21542
4.92399
4.64939
4.41786
4.22015
4.03589
3.85575
3.68053
3.50919
3.33984
3.1769
3.02456
2.88888
2.77219
2.67178
2.57357
2.4718
2.38373
2.31799
2.25019
2.16748
2.08625
2.00698
1.94133
1.88214
1.8467
1.81497
1.86243
2.12916
2.55879
2.96947
3.10436
3.08825
3.02719
2.95916
2.90374
2.84536
2.78742
2.72287
2.66925
2.62319
2.65709
2.85406
3.26496
3.58615
3.77703
3.82491
3.78324
3.69641
3.60583
3.50365
3.43256
3.38186
3.33485
3.29335
3.25008
3.19509
3.12401
3.04774
2.98651
2.94552
2.91995
2.89644
2.87244
2.8475
2.81067
2.7419
2.65868
2.60921
2.57689
2.54751
2.51892
2.49461
2.47263
2.45218
2.43977
2.47026
2.56774
2.75799
2.88216
2.98069
2.99284
3.26295
3.3561
3.36056
3.35111
3.32709
3.28972
3.25532
3.20678
3.10565
2.983
2.8327
2.94649
3.51259
4.30088
4.67314
4.64592
4.47342
4.26765
4.07697
3.89964
3.72542
3.55303
3.38367
3.22271
3.07591
2.93971
2.81305
2.69403
2.59908
2.52802
2.45796
2.37016
2.28353
2.20418
2.12613
2.05176
1.98841
1.94622
1.9057
1.90996
2.0357
2.4547
2.95529
3.21233
3.24545
3.21868
3.14495
3.06153
2.99482
2.93573
2.87761
2.80975
2.73026
2.64354
2.5809
2.54501
2.55565
2.68481
2.992
3.33662
3.59031
3.64474
3.64161
3.60722
3.51893
3.43058
3.35635
3.29448
3.24731
3.20805
3.16244
3.10869
3.05199
2.99322
2.94275
2.90756
2.88288
2.85749
2.82246
2.76809
2.69722
2.63881
2.59936
2.5667
2.53605
2.51215
2.5006
2.493
2.49883
2.55702
2.69857
2.88448
3.00464
3.05151
3.06825
3.03914
3.33215
3.33031
3.32614
3.315
3.2985
3.26559
3.21076
3.12136
2.98573
2.81758
2.66027
2.47656
2.49731
2.79716
3.5067
4.16172
4.24884
4.13026
3.92953
3.73665
3.56
3.39586
3.23835
3.09274
2.96512
2.85422
2.75532
2.66173
2.57358
2.48986
2.41214
2.3237
2.23816
2.16923
2.11948
2.05804
2.01427
1.97623
2.03303
2.30898
2.82878
3.31221
3.43809
3.41814
3.3127
3.19118
3.10674
3.04896
3.00327
2.95137
2.89347
2.82638
2.74834
2.65852
2.58364
2.53399
2.51571
2.50359
2.5497
2.73239
3.05721
3.36917
3.54979
3.56465
3.52534
3.42896
3.33856
3.27391
3.22296
3.18181
3.13888
3.09119
3.04379
2.99866
2.9535
2.90639
2.8633
2.82477
2.77658
2.71531
2.66029
2.62287
2.59361
2.56844
2.54661
2.53604
2.53456
2.56566
2.65722
2.83928
2.99257