/*--------------------------------*- C++ -*----------------------------------*\
  =========                 |
  \\      /  F ield         | OpenFOAM: The Open Source CFD Toolbox
   \\    /   O peration     | Website:  https://openfoam.org
    \\  /    A nd           | Version:  7
     \\/     M anipulation  |
\*---------------------------------------------------------------------------*/
FoamFile
{
    version     2.0;
    format      ascii;
    class       volScalarField;
    location    "2.3";
    object      T;
}
// * * * * * * * * * * * * * * * * * * * * * * * * * * * * * * * * * * * * * //

dimensions      [0 0 0 1 0 0 0];

internalField   nonuniform List<scalar> 
4608
(
1
1
1
1
1
1
1
1
1
1
1
1
1
1
1
1
1
1
1
1
1
1
1
1
1
1
1
1
1
1
1
1
1
1
1
1
1
1
1
1
1
1
1
1
1
1
1
1
1
1
1
1
1
1
1
1
1
1
1
1
1
1
1
1
1
1
1
1
1
1
1
1
1
1
1
1
1
1
1
1
1
1
1
1
1
1
1
1
1
1
1
1
1
1
1
1
1
1
1
1
1
1
1
1
1
1
1
1
1
1
1
1
1
1
1
1
1
1
1
1
1
1
1
1
1
1
1
1
1
1
1
1
1
1
1
1
1
1
1
1
1
1
1
1
1
1
1
1
1
1
1
1
1
1
1
1
1
1
1
1
1
1
1
1
1
1
1
1
1
1
1
1
1
1
1
1
1
1
1
1
1
1
1
1
1
1
1
1
1
1
1
1
1
1
1
1
1
1
1
1
1
1
1
1
1
1
1
1
1
1
1
1
1
1
1
1
1
1
1
1
1
1
1
1
1
1
1
1
1
1
1
1
1
1
1
1
1
1
1
1
1
1
1
1
1
1
1
1
1
1
1
1
1
1
1
1
1
1
1
1
1
1
1
1
1
1
1
1
1
1
1
1
1
1
1
1
1
1
1
1
1
1
1
1
1
1
1
1
1
1
1
1
1
1
1
1
1
1
1
1
1
1
1
1
1
1
1
1
1
1
1
1
1
1
1
1
1
1
1
1
1
1
1
1
1
1
1
1
1
1
1
1
1
1
1
1
1
1
1
1
1
1
1
1
1
1
1
1
1
1
1
1
1
1
1
1
1
1
1
1
1
1
1
1
1
1
1
1
1
1
1
1
1
1
1
1
1
1
1
1
1
1
1
1
1
1
1
1
1
1
1
1
1
1
1
1
1
1
1
1
1
1
1
1
1
1
1
1
1
1
1
1
1
1
1
1
1
1
1
1
1
1
1
1
1
1
1
1
1
1
1
1
1
1
1
1
1
1
1
1
1
1
1
1
1
1
1
1
1
1
1
1
1
1
1
1
1
1
1
1
1
1
1
1
1
1
1
1
1
1
1
1
1
1
1
1
1
1
1
1
1
1
1
1
1
1
1
1
1
1
1
1
1
1
1
1
1
1
1
1
1
1
1
1
1
1
1
1
1
1
1
1
1
1
1
1
1
1
1
1
1
1
1
1
1
1
1
1
1
1
1
1
1
1
1
1
1
1
1
1
1
1
1
1
1
1
1
1
1
1
1
1
1
1
1
1
1
1
1
1
1
1
1
1
1
1
1
1
1
1
1
1
1
1
1
1
1
1
1
1
1
1
1
1
1
1
1
1
1
1
1
1
1
1
1
1
1
1
1
1
1
1
1
1
1
1
1
1
1
1
1
1
1
1
1
1
1
1
1
1
1
1
1
1
1
1
1
1
1
1
1
1
1
1
1
1
1
1
1
1
1
1
1
1
1
1
1
1
1
1
1
1
1
1
1
1
1
1
1
1
1
1
1
1
1
1
1
1
1
1
1
1
1
1
1
1
1
1
1
1
1
1
1
1
1
1
1
1
1
1
1
1
1
1
1
1
1
1
1
1
1
1
1
1
1
1
1
1
1
1
1
1
1
1
1
1
1
1
1
1
1
1
1
1
1
1
1
1
1
1
1
1
1
1
1
1
1
1
1
1
1
1
1
1
1
1
1
1
1
1
1
1
1
1
1
1
1
1
1
1
1
1
1
1
1
1
1
1
1.07895
1.18067
1.28591
1.39433
1.48433
1.57463
1.64015
1.68066
1.69711
1.68078
1.63925
1.58727
1.54038
1.52434
1.51341
1.51392
1.51713
1.52272
1.52941
1.53428
1.53619
1.53635
1.53568
1.53623
1.00067
1.00756
1.028
1.07192
1.14688
1.2299
1.32308
1.40776
1.4821
1.51508
1.5558
1.56354
1.55731
1.55075
1.54642
1.53779
1.53238
1.53166
1.53281
1.53581
1.53826
1.53957
1.53966
1.54015
0.999998
1
1.00003
1.00004
1.00128
1.00778
1.03786
1.11549
1.27283
1.44742
1.573
1.6218
1.62046
1.60824
1.59206
1.56682
1.54979
1.54324
1.54148
1.54252
1.54511
1.54774
1.54777
1.54874
1
1
1
0.999999
0.999995
1.00001
0.999988
1.00059
1.01324
1.11055
1.30858
1.49338
1.60952
1.60912
1.59679
1.59321
1.58736
1.57516
1.56348
1.557
1.55503
1.55586
1.5573
1.55927
1
1
1
1
1
1
0.999999
0.999999
0.999961
1.00055
1.01424
1.13421
1.3449
1.54124
1.59546
1.62374
1.62237
1.61172
1.5884
1.57554
1.56791
1.5637
1.56464
1.56861
1
1
1
1
1
1
1
1
0.999996
0.999997
0.999959
1.0014
1.0252
1.17901
1.39789
1.5702
1.6146
1.60914
1.60298
1.5946
1.58635
1.57734
1.57575
1.57755
1
1
1
1
1
1
1
1
1
1
0.999996
0.999997
0.999979
1.00384
1.061
1.24345
1.45517
1.57477
1.60988
1.60937
1.6039
1.59423
1.5873
1.58411
1
1
1
1
1
1
1
1
1
1
1
1
0.999998
0.999985
1.00032
1.01157
1.12672
1.34191
1.50926
1.57064
1.59262
1.59137
1.58432
1.58143
1
1
1
1
1
1
1
1
1
1
1
1
1
0.999998
0.999998
0.999991
1.00281
1.0426
1.22867
1.44395
1.56442
1.57454
1.57862
1.57889
1
1
1
1
1
1
1
1
1
1
1
1
1
1
1
0.999999
0.999993
1.00034
1.01795
1.13093
1.36207
1.50589
1.57414
1.58472
1
1
1
1
1
1
1
1
1
1
1
1
1
1
1
1
0.999999
0.999998
1.00008
1.00453
1.07868
1.27254
1.48273
1.54283
1
1
1
1
1
1
1
1
1
1
1
1
1
1
1
1
1
1
0.999999
1
1.00212
1.03733
1.20679
1.43784
1
1
1
1
1
1
1
1
1
1
1
1
1
1
1
1
1
1
1
1
0.999999
1.00061
1.02045
1.16163
1
1
1
1
1
1
1
1
1
1
1
1
1
1
1
1
1
1
1
1
1
0.999999
1.00034
1.00994
1
1
1
1
1
1
1
1
1
1
1
1
1
1
1
1
1
1
1
1
1
1
1
0.999996
1
1
1
1
1
1
1
1
1
1
1
1
1
1
1
1
1
1
1
1
1
1
1
0.999996
1
1
1
1
1
1
1
1
1
1
1
1
1
1
1
1
1
1
1
1
1
1
1
0.999998
1
1
1
1
1
1
1
1
1
1
1
1
1
1
1
1
1
1
1
1
1
1
0.999999
1.00001
1
1
1
1
1
1
1
1
1
1
1
1
1
1
1
1
1
1
1
1
1
0.999999
1.00031
1.0097
1
1
1
1
1
1
1
1
1
1
1
1
1
1
1
1
1
1
1
1
0.999999
1.00062
1.02282
1.1513
1
1
1
1
1
1
1
1
1
1
1
1
1
1
1
1
1
1
0.999999
1
1.00219
1.03741
1.22084
1.40563
1
1
1
1
1
1
1
1
1
1
1
1
1
1
1
1
0.999999
0.999998
1.00008
1.0045
1.07665
1.28318
1.4761
1.52504
1
1
1
1
1
1
1
1
1
1
1
1
1
1
1
0.999999
0.999993
1.00033
1.0182
1.12896
1.35919
1.51554
1.57066
1.58033
1
1
1
1
1
1
1
1
1
1
1
1
1
0.999998
0.999998
0.999991
1.0028
1.04265
1.23027
1.4391
1.56634
1.57759
1.58038
1.57756
1
1
1
1
1
1
1
1
1
1
1
1
0.999998
0.999985
1.00032
1.01159
1.12638
1.34259
1.50925
1.56919
1.59298
1.59199
1.5849
1.58056
1
1
1
1
1
1
1
1
1
1
0.999996
0.999997
0.999979
1.00383
1.06111
1.24328
1.45508
1.57531
1.60954
1.60895
1.60387
1.59466
1.58689
1.58434
1
1
1
1
1
1
1
1
0.999996
0.999997
0.999959
1.0014
1.02521
1.179
1.39811
1.56986
1.61469
1.60934
1.60302
1.59445
1.58649
1.57755
1.57573
1.5777
1
1
1
1
1
1
0.999999
0.999999
0.999961
1.00055
1.01424
1.13421
1.34481
1.54147
1.59547
1.62359
1.6223
1.61177
1.58853
1.57543
1.56799
1.56369
1.56464
1.56867
1
1
1
0.999999
0.999995
1.00001
0.999988
1.00059
1.01324
1.11055
1.30857
1.49339
1.60951
1.60915
1.59677
1.59314
1.5873
1.57522
1.56358
1.55691
1.555
1.55584
1.55728
1.55922
0.999998
1
1.00003
1.00004
1.00128
1.00778
1.03785
1.11549
1.27283
1.44742
1.57298
1.6218
1.62047
1.60824
1.59206
1.56682
1.54975
1.54324
1.5415
1.54254
1.5451
1.5477
1.54773
1.54869
1.00067
1.00756
1.02801
1.0719
1.1469
1.2299
1.32307
1.40776
1.4821
1.51508
1.55577
1.56358
1.55732
1.55072
1.54645
1.53781
1.53236
1.53166
1.53281
1.53582
1.53827
1.53956
1.53965
1.54012
1.07895
1.18067
1.28589
1.39435
1.48435
1.57458
1.64017
1.68068
1.6971
1.68077
1.63924
1.58726
1.54036
1.52435
1.51343
1.51393
1.51714
1.52273
1.52943
1.5343
1.5362
1.53635
1.53567
1.53622
1.39369
1.23203
1.11408
1.00097
0.963689
0.985917
1.02246
1.02276
1.0296
1.04821
1.06612
1.07931
1.09974
1.1135
1.11344
1.10935
1.10546
1.10763
1.11171
1.11656
1.11809
1.11599
1.1104
1.12709
1.25399
1.51858
1.75333
1.97741
2.13839
2.18773
2.13754
2.05514
1.99722
1.96866
1.95401
1.93487
1.91227
1.89092
1.87161
1.85306
1.83344
1.81257
1.79187
1.77088
1.74959
1.72849
1.70929
1.69432
1.68295
1.67176
1.65979
1.64696
1.63335
1.61802
1.59874
1.57457
1.55211
1.53902
1.53224
1.52655
1.52099
1.51512
1.50806
1.499
1.4854
1.46386
1.43342
1.41136
1.4054
1.40291
1.40392
1.41469
1.45879
1.55782
1.66959
1.75192
1.80411
1.84886
1.86573
1.85237
1.8418
1.83434
1.82734
1.81888
1.80885
1.79419
1.7647
1.73311
1.72408
1.71964
1.71683
1.71956
1.72141
1.71675
1.71072
1.69443
1.49262
1.40709
1.32984
1.25191
1.15441
1.12318
1.11239
1.08173
1.05973
1.05855
1.05377
1.05324
1.0573
1.06771
1.07235
1.07277
1.07321
1.07838
1.08421
1.09117
1.0948
1.09758
1.12391
1.26881
1.48615
1.55864
1.62479
1.72172
1.86656
1.96731
2.03687
2.03425
2.01389
1.98749
1.96117
1.93767
1.91718
1.8975
1.87872
1.86006
1.84029
1.81957
1.79822
1.77678
1.75593
1.73653
1.71896
1.70317
1.69104
1.67993
1.66794
1.65482
1.64051
1.62439
1.60499
1.58348
1.56402
1.54934
1.54036
1.53429
1.5286
1.52235
1.51458
1.50464
1.49014
1.46899
1.44231
1.42162
1.41615
1.4182
1.43351
1.47797
1.55558
1.61746
1.65134
1.69278
1.7352
1.76061
1.78676
1.80627
1.82699
1.83792
1.83465
1.82427
1.81206
1.79558
1.76997
1.74064
1.72782
1.72283
1.72014
1.72281
1.72363
1.71872
1.71232
1.69639
1.53396
1.49307
1.42687
1.36284
1.28886
1.21024
1.16884
1.13125
1.0815
1.06374
1.05496
1.04136
1.03893
1.04345
1.04681
1.04703
1.04725
1.04909
1.05457
1.06213
1.06873
1.1144
1.28634
1.47678
1.58546
1.59039
1.58741
1.59048
1.62418
1.75435
1.92411
2.02103
2.03338
2.01593
1.97328
1.93483
1.90739
1.88542
1.86473
1.84663
1.82954
1.81271
1.79531
1.77717
1.75851
1.73938
1.71834
1.69402
1.67393
1.66379
1.65436
1.64384
1.63214
1.61884
1.60407
1.5867
1.5657
1.54392
1.52932
1.52087
1.51432
1.508
1.50054
1.49083
1.47794
1.46261
1.44548
1.43302
1.43497
1.45717
1.51428
1.58183
1.6409
1.65269
1.65221
1.64932
1.65676
1.67714
1.7234
1.77688
1.81153
1.83424
1.83472
1.82894
1.81352
1.79502
1.77483
1.75252
1.73566
1.72707
1.72254
1.71872
1.71421
1.70912
1.70399
1.69048
1.55494
1.53756
1.49586
1.44118
1.3874
1.3119
1.24641
1.21311
1.17139
1.13264
1.11127
1.08301
1.05363
1.05349
1.05271
1.0468
1.04397
1.04144
1.04061
1.04459
1.09507
1.29005
1.48296
1.57387
1.58999
1.58478
1.57267
1.55678
1.5388
1.55244
1.64943
1.8419
1.98381
1.98661
1.9767
1.94696
1.91193
1.88143
1.85779
1.84276
1.83141
1.81702
1.80125
1.78474
1.7666
1.74614
1.72377
1.69911
1.67167
1.65651
1.64835
1.63992
1.63115
1.6218
1.61004
1.59319
1.57193
1.54769
1.52985
1.5191
1.51002
1.50065
1.49239
1.48293
1.4721
1.46469
1.45931
1.46666
1.50265
1.56798
1.6233
1.66502
1.67532
1.67213
1.65911
1.6451
1.63313
1.63306
1.64971
1.69563
1.74668
1.79335
1.81055
1.80944
1.80498
1.79503
1.78159
1.76588
1.74966
1.73679
1.72819
1.72194
1.71535
1.70813
1.70229
1.6903
1.56644
1.56129
1.54185
1.50135
1.45286
1.40167
1.33377
1.27447
1.24094
1.20959
1.17942
1.13994
1.08965
1.06585
1.06193
1.0586
1.05353
1.04738
1.05525
1.1278
1.32601
1.505
1.5676
1.58366
1.57963
1.56273
1.54688
1.53273
1.51564
1.5011
1.50533
1.56379
1.73332
1.89384
1.96033
1.95245
1.92353
1.88607
1.85752
1.83793
1.82369
1.80785
1.79032
1.77333
1.75703
1.74116
1.72549
1.70456
1.67835
1.65547
1.64084
1.62984
1.61874
1.60916
1.60191
1.59543
1.58311
1.55981
1.53243
1.51694
1.50871
1.49965
1.49035
1.48003
1.4745
1.47815
1.501
1.55443
1.62147
1.66513
1.68363
1.68884
1.68478
1.67405
1.66052
1.64504
1.63146
1.62823
1.62727
1.63501
1.65968
1.70441
1.7556
1.7857
1.7909
1.78986
1.78562
1.77632
1.76306
1.75035
1.73953
1.72923
1.71828
1.70834
1.70062
1.68562
1.57708
1.57439
1.56764
1.54674
1.50681
1.45942
1.41384
1.36202
1.29557
1.26288
1.24357
1.21838
1.17219
1.113
1.10194
1.10319
1.09844
1.10909
1.19667
1.39203
1.55512
1.60183
1.59447
1.58013
1.55991
1.54095
1.52799
1.51459
1.4968
1.48064
1.47078
1.462
1.48486
1.60361
1.77934
1.89572
1.90424
1.89284
1.8664
1.84107
1.82044
1.80142
1.78416
1.76931
1.75505
1.74147
1.72835
1.71209
1.6876
1.65921
1.63554
1.62256
1.61499
1.60836
1.60071
1.59029
1.57731
1.56022
1.53676
1.51618
1.50368
1.49367
1.48619
1.48367
1.49448
1.5444
1.61983
1.68058
1.70383
1.70895
1.70586
1.69781
1.68597
1.67279
1.66386
1.65419
1.64467
1.6365
1.62902
1.61901
1.61355
1.62214
1.6557
1.70902
1.74433
1.76575
1.77563
1.77442
1.77154
1.76388
1.75018
1.73449
1.72002
1.70836
1.70046
1.68481
1.58401
1.58296
1.5795
1.57102
1.54975
1.51323
1.46632
1.42664
1.38261
1.32674
1.27838
1.26687
1.24624
1.20569
1.16062
1.1389
1.15909
1.27628
1.47982
1.61871
1.64503
1.62885
1.60065
1.5753
1.55264
1.53495
1.52072
1.50423
1.48416
1.46784
1.45376
1.4397
1.42422
1.4282
1.49096
1.6466
1.80431
1.86254
1.85724
1.84557
1.81877
1.79413
1.77554
1.76239
1.74877
1.73463
1.72011
1.70472
1.68725
1.66373
1.63994
1.62328
1.6114
1.60146
1.59264
1.58519
1.57793
1.56701
1.54723
1.51912
1.50132
1.49456
1.49484
1.52357
1.59164
1.6795
1.7263
1.73917
1.73561
1.72325
1.70447
1.69172
1.68233
1.67328
1.6647
1.65635
1.64813
1.63976
1.6304
1.61682
1.60556
1.59457
1.59719
1.61937
1.66731
1.71459
1.75215
1.7662
1.76706
1.76116
1.74928
1.73554
1.72278
1.70997
1.70004
1.68354
1.58243
1.58359
1.58352
1.58141
1.57202
1.5517
1.51873
1.47189
1.43732
1.40035
1.35274
1.30728
1.28211
1.26369
1.23396
1.26139
1.40621
1.5928
1.69704
1.69663
1.67706
1.64572
1.61513
1.58738
1.56047
1.53879
1.51971
1.50056
1.47869
1.46131
1.44358
1.42555
1.40829
1.39677
1.38913
1.41077
1.52591
1.68844
1.78461
1.81497
1.80856
1.78801
1.76783
1.75188
1.73607
1.72027
1.70586
1.69357
1.68087
1.6648
1.64503
1.62231
1.60581
1.59558
1.58705
1.57806
1.567
1.55492
1.54005
1.52144
1.50734
1.51491
1.55879
1.64334
1.71853
1.76591
1.77011
1.76721
1.75357
1.7263
1.70262
1.68823
1.67937
1.67223
1.66477
1.6576
1.65014
1.64162
1.63128
1.61837
1.60218
1.5894
1.58212
1.58285
1.59617
1.63178
1.68221
1.72318
1.74521
1.74508
1.74101
1.73329
1.72429
1.71172
1.69969
1.68208
1.58
1.58178
1.58173
1.58088
1.57878
1.56894
1.55017
1.51891
1.47941
1.44519
1.41409
1.36984
1.32977
1.31922
1.3742
1.5464
1.71282
1.76813
1.7579
1.72728
1.69263
1.66064
1.63107
1.60377
1.57764
1.55415
1.53116
1.50603
1.47973
1.45793
1.43748
1.41509
1.39682
1.3829
1.37302
1.36169
1.36613
1.42496
1.55723
1.70549
1.76791
1.76592
1.75918
1.73926
1.72097
1.70491
1.6903
1.67883
1.67111
1.66334
1.64834
1.62279
1.60101
1.58811
1.57878
1.56872
1.55897
1.55028
1.54087
1.53189
1.5489
1.61131
1.6899
1.75211
1.77793
1.77994
1.77602
1.76479
1.74669
1.72368
1.70345
1.68869
1.67773
1.67017
1.66261
1.65548
1.64918
1.64213
1.63209
1.61724
1.59778
1.58349
1.57498
1.57176
1.57014
1.57626
1.59868
1.63991
1.68196
1.71205
1.72479
1.72362
1.71789
1.70773
1.69637
1.67976
1.58172
1.58044
1.58185
1.58182
1.57891
1.5751
1.56658
1.54823
1.52038
1.48566
1.45139
1.40978
1.41891
1.51914
1.69991
1.82928
1.84515
1.82448
1.78671
1.74757
1.71161
1.6795
1.64887
1.61861
1.58944
1.563
1.53877
1.5137
1.48904
1.46463
1.43995
1.41308
1.3921
1.37478
1.36108
1.34745
1.34115
1.33698
1.35558
1.44871
1.59178
1.69304
1.72284
1.71937
1.70876
1.69495
1.68081
1.67038
1.66055
1.64718
1.63098
1.61277
1.59379
1.57711
1.56613
1.55743
1.55602
1.55381
1.56425
1.60397
1.68268
1.74428
1.77982
1.79584
1.79511
1.78225
1.76632
1.75149
1.7367
1.71997
1.7043
1.6887
1.67562
1.66694
1.65911
1.65225
1.64617
1.6389
1.62867
1.61329
1.5931
1.57745
1.56832
1.56336
1.5596
1.55873
1.55761
1.56729
1.59219
1.63348
1.67328
1.69468
1.69683
1.69584
1.69081
1.67768
1.55895
1.56754
1.57685
1.58071
1.57917
1.57756
1.57372
1.56539
1.54489
1.51985
1.49055
1.52493
1.67954
1.85781
1.92109
1.90885
1.87421
1.83636
1.79854
1.76083
1.72445
1.69047
1.65917
1.62961
1.60072
1.57254
1.54569
1.51972
1.49568
1.47164
1.44679
1.42085
1.39778
1.3764
1.35761
1.34293
1.33009
1.32036
1.31002
1.31213
1.35683
1.47598
1.60058
1.66308
1.6858
1.68471
1.67509
1.66174
1.64782
1.6334
1.61829
1.60048
1.58077
1.56445
1.55455
1.55444
1.56117
1.59996
1.67352
1.75153
1.79937
1.80063
1.79815
1.79337
1.78296
1.77064
1.75525
1.73956
1.72664
1.71544
1.70443
1.68846
1.67189
1.66168
1.654
1.64754
1.64124
1.63365
1.62338
1.60887
1.58925
1.57188
1.56272
1.55713
1.55267
1.54851
1.54575
1.541
1.53919
1.55202
1.58721
1.63131
1.65939
1.67066
1.67951
1.67365
1.5455
1.55306
1.56247
1.57012
1.57474
1.57584
1.57472
1.5711
1.55825
1.5638
1.66262
1.83674
1.97919
2.00633
1.98526
1.93812
1.89055
1.84755
1.80777
1.76957
1.73303
1.69843
1.66604
1.6359
1.60709
1.57896
1.55241
1.52742
1.50375
1.47894
1.45115
1.42335
1.39974
1.37937
1.35922
1.34234
1.32931
1.31888
1.30407
1.29041
1.27796
1.29236
1.37552
1.50512
1.60076
1.64343
1.64932
1.64185
1.62921
1.61754
1.60439
1.58743
1.57107
1.55693
1.55611
1.57294
1.63796
1.73672
1.7977
1.83658
1.83812
1.82905
1.80755
1.78533
1.76819
1.75384
1.74273
1.732
1.72059
1.70981
1.69922
1.68373
1.66582
1.6546
1.64736
1.64133
1.63507
1.62745
1.61749
1.60454
1.58795
1.57034
1.55956
1.5535
1.54863
1.54355
1.5387
1.53304
1.5237
1.51391
1.51993
1.54567
1.59293
1.62394
1.64929
1.66123
1.41983
1.50357
1.53374
1.55826
1.57351
1.5761
1.57605
1.57867
1.61443
1.78384
1.99497
2.04496
2.03838
2.01833
1.98704
1.95154
1.91112
1.86609
1.81932
1.77506
1.73647
1.70271
1.67083
1.63987
1.6107
1.58308
1.55585
1.52877
1.50364
1.48059
1.45741
1.43346
1.40543
1.37838
1.36244
1.35047
1.33678
1.32229
1.30644
1.28758
1.27204
1.25456
1.25582
1.29871
1.4098
1.53605
1.60415
1.61862
1.6134
1.59979
1.58216
1.57359
1.5661
1.5698
1.60418
1.6883
1.78178
1.83282
1.83297
1.83193
1.82846
1.81798
1.79874
1.77694
1.75809
1.74303
1.73267
1.72402
1.71542
1.70746
1.69723
1.68031
1.6601
1.64679
1.6394
1.63353
1.62794
1.6215
1.61309
1.60175
1.58658
1.57055
1.56188
1.55789
1.55372
1.54819
1.54156
1.53283
1.52
1.5055
1.49683
1.49821
1.51647
1.55442
1.59359
1.6313
1.13966
1.34101
1.46968
1.54707
1.55642
1.56537
1.59375
1.69013
1.87451
2.06216
2.12639
2.11327
2.06587
2.01601
1.98476
1.95595
1.92037
1.87792
1.8315
1.78594
1.74535
1.71027
1.67782
1.64541
1.6127
1.58134
1.55458
1.53217
1.51039
1.48664
1.45996
1.43419
1.41095
1.39004
1.36927
1.34533
1.32651
1.31292
1.30272
1.29204
1.27673
1.25602
1.23936
1.22545
1.24271
1.32579
1.46146
1.54907
1.58589
1.58378
1.57442
1.58165
1.60938
1.66542
1.74891
1.82708
1.86352
1.86258
1.84969
1.82683
1.81017
1.79865
1.78436
1.7694
1.755
1.74179
1.73104
1.72145
1.71188
1.7022
1.69015
1.67383
1.65556
1.64225
1.63482
1.62869
1.62283
1.61672
1.60935
1.6008
1.58986
1.57538
1.56122
1.55213
1.54526
1.53872
1.53162
1.52304
1.51395
1.50388
1.49472
1.48471
1.48273
1.49308
1.51806
1.57521
1.00977
1.09561
1.25617
1.45283
1.50175
1.65105
1.81783
1.96556
2.07915
2.11762
2.11652
2.10291
2.07399
2.03175
1.99213
1.9552
1.91734
1.87944
1.8398
1.79747
1.75686
1.72112
1.68762
1.65279
1.61805
1.58751
1.55865
1.53164
1.50579
1.48281
1.46269
1.44279
1.4222
1.39737
1.36934
1.34551
1.32927
1.31723
1.30236
1.28221
1.26495
1.25137
1.23492
1.2195
1.21125
1.2149
1.26834
1.38
1.49952
1.54241
1.59291
1.69013
1.76343
1.80903
1.84637
1.86506
1.86268
1.85471
1.84326
1.82526
1.80305
1.78684
1.77576
1.76809
1.75672
1.74445
1.7337
1.72273
1.71087
1.69867
1.68621
1.67361
1.6589
1.64605
1.63815
1.63166
1.62494
1.6172
1.60951
1.60211
1.5932
1.57964
1.56292
1.55042
1.5421
1.53475
1.52679
1.5181
1.51011
1.50394
1.49691
1.4875
1.47031
1.46458
1.46824
1.50564
1.00017
1.00461
1.04735
1.24681
1.51191
1.83041
2.01722
2.09946
2.16735
2.1527
2.11475
2.09245
2.07597
2.04615
2.00622
1.96353
1.92072
1.87977
1.84145
1.80103
1.76119
1.72219
1.6846
1.6582
1.63664
1.60873
1.57568
1.54327
1.51578
1.49021
1.46703
1.44301
1.41876
1.40105
1.38598
1.36786
1.34697
1.32599
1.30306
1.2836
1.27
1.25632
1.23822
1.22426
1.20932
1.19804
1.20044
1.23258
1.33964
1.51751
1.67016
1.80745
1.87067
1.89895
1.90309
1.89017
1.8673
1.84563
1.83531
1.8228
1.80368
1.78496
1.76769
1.75641
1.75132
1.74416
1.73462
1.72345
1.71004
1.69576
1.68258
1.66818
1.65168
1.63937
1.632
1.62577
1.62003
1.61478
1.60876
1.60116
1.59185
1.5785
1.55957
1.54457
1.53846
1.53277
1.52462
1.51757
1.51236
1.5068
1.49912
1.48762
1.46716
1.45627
1.45645
1.46658
1.00009
1.00453
1.06414
1.25276
1.59734
1.78955
1.98339
2.1117
2.17346
2.16074
2.12782
2.1022
2.0868
2.05417
2.00541
1.95457
1.90879
1.86653
1.83111
1.80485
1.775
1.73775
1.69911
1.66203
1.62684
1.59579
1.5642
1.53205
1.51327
1.50078
1.48134
1.45576
1.42929
1.403
1.3785
1.35552
1.32717
1.30362
1.29643
1.29399
1.28575
1.27175
1.249
1.2187
1.19981
1.19588
1.19904
1.23009
1.33592
1.51044
1.68483
1.7862
1.85897
1.90906
1.90156
1.89076
1.87395
1.85047
1.83857
1.82699
1.80821
1.78834
1.76979
1.75478
1.74874
1.74456
1.73858
1.72879
1.7151
1.69945
1.68391
1.66685
1.64928
1.63845
1.63202
1.62574
1.61976
1.6147
1.61038
1.60505
1.5963
1.58287
1.56243
1.5447
1.53664
1.533
1.52956
1.52471
1.51946
1.51331
1.50484
1.48968
1.46694
1.45455
1.45472
1.46771
1.00735
1.07768
1.29298
1.45462
1.56059
1.61893
1.77768
1.96442
2.09095
2.1233
2.11951
2.11078
2.08601
2.04436
1.99793
1.95132
1.90735
1.86753
1.82936
1.79058
1.75265
1.71717
1.68464
1.65313
1.62287
1.59455
1.56807
1.54182
1.51368
1.48488
1.45963
1.43525
1.41203
1.39455
1.37867
1.35678
1.32753
1.30629
1.29289
1.27955
1.26973
1.25895
1.24304
1.22071
1.20316
1.20906
1.26066
1.37891
1.49399
1.54313
1.6067
1.66432
1.75097
1.82566
1.84791
1.86117
1.86259
1.85591
1.84527
1.83104
1.81159
1.79105
1.77617
1.76502
1.75219
1.74009
1.73089
1.7219
1.71347
1.70464
1.69091
1.67143
1.65242
1.64385
1.63862
1.63319
1.6275
1.62123
1.61303
1.60264
1.59044
1.57588
1.56121
1.54974
1.54205
1.53476
1.52668
1.51921
1.51192
1.50474
1.49754
1.48724
1.47115
1.46419
1.46648
1.50181
1.11218
1.33457
1.4938
1.54105
1.5569
1.56125
1.58666
1.68948
1.88148
2.05406
2.12917
2.12136
2.07605
2.02536
1.98543
1.94664
1.90544
1.863
1.82173
1.78305
1.7484
1.7168
1.68508
1.65165
1.61751
1.58394
1.55394
1.52915
1.50446
1.47732
1.45212
1.43188
1.41422
1.39393
1.36907
1.34747
1.33551
1.32145
1.30048
1.27849
1.26677
1.25833
1.24694
1.23707
1.25188
1.33343
1.4573
1.55332
1.583
1.57927
1.57203
1.57516
1.6101
1.68615
1.77404
1.83162
1.86538
1.86134
1.84696
1.82717
1.81243
1.79956
1.78636
1.76986
1.75256
1.7383
1.73059
1.7236
1.71514
1.70472
1.6913
1.66996
1.64661
1.63843
1.63374
1.62873
1.62362
1.61817
1.61209
1.6048
1.59442
1.57586
1.55645
1.54707
1.54198
1.53592
1.52825
1.5208
1.51325
1.50549
1.49739
1.48654
1.4819
1.49021
1.51129
1.56701
1.36452
1.52474
1.56125
1.56769
1.57177
1.57098
1.56806
1.57017
1.60812
1.76769
1.98399
2.05712
2.04489
2.02004
1.9832
1.94183
1.89919
1.85715
1.81824
1.78243
1.74814
1.71425
1.68004
1.64539
1.6108
1.57807
1.54879
1.52242
1.49826
1.47644
1.45526
1.43316
1.40946
1.38415
1.3614
1.34589
1.3298
1.31252
1.29558
1.27707
1.26417
1.25582
1.26042
1.30216
1.41437
1.53806
1.59879
1.61636
1.61176
1.59909
1.58218
1.57299
1.57064
1.58189
1.62266
1.69251
1.77885
1.81799
1.82877
1.82834
1.82507
1.81518
1.79932
1.77766
1.7553
1.74338
1.73701
1.7298
1.72058
1.70943
1.69531
1.67514
1.65281
1.6427
1.63753
1.63238
1.62733
1.62218
1.61684
1.60958
1.59536
1.57224
1.55664
1.55012
1.54544
1.54045
1.53431
1.52666
1.51682
1.50945
1.501
1.50188
1.51793
1.55391
1.58896
1.62467
1.52933
1.57782
1.58109
1.57754
1.57268
1.56962
1.56652
1.56527
1.5557
1.55967
1.65422
1.84345
1.97705
2.004
1.98423
1.93568
1.88859
1.84852
1.81353
1.77938
1.74403
1.70811
1.67244
1.63762
1.60472
1.57372
1.54477
1.51805
1.49303
1.46777
1.44313
1.42277
1.4074
1.39083
1.37006
1.34857
1.32682
1.30814
1.2912
1.28044
1.27295
1.29094
1.38039
1.50152
1.60879
1.64292
1.64443
1.63583
1.62388
1.61319
1.60127
1.58858
1.57553
1.56477
1.55971
1.57073
1.62261
1.72048
1.7916
1.83132
1.83401
1.82522
1.80692
1.78808
1.76714
1.75396
1.74413
1.73363
1.72312
1.71181
1.69839
1.68256
1.66625
1.65306
1.64419
1.63835
1.63279
1.62697
1.62066
1.61172
1.59515
1.57423
1.56201
1.5546
1.54813
1.54175
1.53633
1.53065
1.52377
1.5179
1.52527
1.55013
1.59743
1.62718
1.64848
1.65773
1.55811
1.58139
1.58351
1.58303
1.58059
1.57548
1.5706
1.56333
1.54527
1.52081
1.49126
1.52775
1.6809
1.84716
1.91304
1.90748
1.87663
1.83902
1.8031
1.76844
1.73304
1.69689
1.66084
1.62663
1.59548
1.56591
1.53678
1.50794
1.48376
1.46545
1.44763
1.42626
1.40429
1.38393
1.36462
1.34502
1.32617
1.3125
1.30062
1.30335
1.34996
1.48079
1.61002
1.6639
1.68358
1.68119
1.67007
1.65541
1.64306
1.63153
1.61971
1.60551
1.58868
1.57014
1.55584
1.55027
1.55443
1.59052
1.67016
1.75266
1.80702
1.80704
1.80527
1.79831
1.78204
1.76471
1.749
1.73594
1.7256
1.71587
1.70428
1.69103
1.67753
1.664
1.65268
1.64475
1.63907
1.63302
1.62457
1.6112
1.59329
1.57823
1.56831
1.56046
1.5533
1.54769
1.54443
1.542
1.54108
1.55505
1.59038
1.63377
1.66312
1.67411
1.68202
1.67833
1.58236
1.58458
1.58459
1.58301
1.58026
1.57472
1.56517
1.54869
1.52218
1.4867
1.45157
1.40947
1.41823
1.51371
1.69358
1.83783
1.84822
1.82573
1.78741
1.74943
1.71353
1.67884
1.64446
1.612
1.58304
1.5572
1.53335
1.50971
1.48711
1.46562
1.44496
1.4229
1.40191
1.38406
1.36936
1.35127
1.33719
1.32554
1.34554
1.43709
1.58641
1.70029
1.73088
1.7285
1.71087
1.68953
1.67422
1.66391
1.65544
1.64513
1.63322
1.61915
1.60247
1.5825
1.56506
1.55388
1.55037
1.54949
1.56287
1.61383
1.69665
1.76297
1.80133
1.80072
1.79271
1.77311
1.75432
1.74076
1.72982
1.72008
1.70933
1.69693
1.68481
1.67391
1.66351
1.65297
1.64316
1.63428
1.6231
1.60774
1.59282
1.58252
1.57466
1.5682
1.5629
1.56078
1.55988
1.56748
1.58973
1.63341
1.66974
1.68932
1.6957
1.69982
1.69747
1.68593
1.57767
1.58127
1.58294
1.58157
1.57767
1.56814
1.55087
1.52055
1.48102
1.44535
1.41303
1.36832
1.32946
1.31805
1.37283
1.55582
1.71993
1.76841
1.75807
1.72733
1.69307
1.65973
1.62705
1.59761
1.57262
1.55025
1.52751
1.50365
1.48023
1.46167
1.44635
1.42888
1.41092
1.39273
1.37625
1.35554
1.35576
1.4058
1.55088
1.68791
1.77022
1.78321
1.77714
1.75716
1.72579
1.70037
1.68493
1.67482
1.66592
1.65574
1.64406
1.63042
1.61365
1.59361
1.57687
1.56469
1.55219
1.54383
1.53658
1.53837
1.56157
1.62722
1.71075
1.76154
1.77354
1.77176
1.76068
1.74653
1.73402
1.72253
1.71134
1.69969
1.68902
1.68007
1.67087
1.65928
1.64534
1.63161
1.61893
1.60695
1.59686
1.58908
1.583
1.5792
1.57732
1.58255
1.60161
1.6361
1.67709
1.70837
1.71206
1.71506
1.714
1.70879
1.70242
1.68879
1.58151
1.58353
1.58411
1.58155
1.57197
1.55162
1.51872
1.47218
1.43737
1.40014
1.35223
1.30635
1.28158
1.26373
1.23415
1.26383
1.40982
1.58664
1.69393
1.69572
1.67728
1.64629
1.61284
1.58227
1.55817
1.53872
1.51945
1.50008
1.48232
1.46989
1.45599
1.43883
1.41712
1.40111
1.38361
1.40149
1.50284
1.66558
1.77914
1.8175
1.8182
1.80525
1.7849
1.75899
1.73186
1.711
1.69706
1.68546
1.67475
1.6638
1.65167
1.63872
1.62385
1.60493
1.5846
1.56705
1.55299
1.54103
1.53119
1.52516
1.51789
1.52629
1.57289
1.65063
1.72306
1.75938
1.75991
1.74988
1.73331
1.72088
1.71044
1.70088
1.69171
1.68303
1.67412
1.66232
1.64417
1.62365
1.61263
1.60706
1.60227
1.59618
1.59373
1.59704
1.61136
1.64468
1.68884
1.72737
1.74085
1.73254
1.72622
1.72189
1.71877
1.71184
1.70473
1.69078
1.58419
1.58302
1.57938
1.57095
1.5496
1.51294
1.46616
1.42645
1.3826
1.32666
1.27786
1.26652
1.24606
1.20581
1.16067
1.1386
1.15878
1.26966
1.47284
1.61755
1.64423
1.62848
1.60024
1.57237
1.5515
1.53655
1.52217
1.50518
1.48918
1.47925
1.46432
1.44866
1.42482
1.42525
1.47812
1.63246
1.77649
1.85549
1.86399
1.85431
1.83446
1.81
1.78363
1.75793
1.73524
1.72014
1.70796
1.69469
1.68104
1.66858
1.65721
1.64548
1.63067
1.61149
1.58996
1.57038
1.55557
1.54359
1.5323
1.52015
1.51046
1.50491
1.50732
1.53359
1.59767
1.67192
1.72365
1.72856
1.72504
1.72041
1.71206
1.70358
1.69468
1.68437
1.67332
1.65862
1.63808
1.61934
1.61058
1.60556
1.60307
1.60267
1.60967
1.6384
1.68714
1.73461
1.7635
1.76965
1.76168
1.74374
1.7318
1.72463
1.71845
1.71109
1.70437
1.69145
1.57728
1.57457
1.56764
1.5466
1.50664
1.45937
1.4137
1.36193
1.29582
1.26273
1.24322
1.21804
1.17192
1.11292
1.10204
1.10303
1.09802
1.10796
1.19108
1.393
1.55148
1.60048
1.59505
1.57948
1.55984
1.5434
1.53089
1.51609
1.49988
1.48891
1.47673
1.46314
1.48384
1.59377
1.7684
1.87692
1.89379
1.88978
1.87293
1.85512
1.83536
1.81082
1.78247
1.75604
1.73866
1.72704
1.71507
1.70177
1.68759
1.6721
1.65584
1.64038
1.62645
1.61309
1.5969
1.57904
1.56025
1.54186
1.52732
1.51717
1.50932
1.50031
1.49704
1.49601
1.50751
1.54416
1.60958
1.66871
1.69588
1.70911
1.71275
1.70776
1.6987
1.6865
1.67272
1.65459
1.63215
1.61578
1.60902
1.6075
1.60949
1.62545
1.66878
1.72355
1.76876
1.78327
1.7807
1.77168
1.75584
1.74514
1.73648
1.7278
1.71987
1.71099
1.70358
1.69042
1.56651
1.56133
1.5418
1.5013
1.45302
1.4016
1.33353
1.27505
1.24086
1.20917
1.17932
1.13985
1.08924
1.06601
1.06212
1.0586
1.05341
1.0474
1.05479
1.12875
1.32613
1.49985
1.57196
1.58646
1.58046
1.5641
1.54927
1.53403
1.51889
1.5039
1.50694
1.55949
1.72808
1.87867
1.95242
1.94566
1.9256
1.89771
1.8737
1.85514
1.83485
1.80918
1.78292
1.76058
1.74378
1.72942
1.71541
1.70125
1.68662
1.6723
1.65689
1.64092
1.62494
1.60967
1.59603
1.58242
1.56517
1.54579
1.52882
1.51773
1.51209
1.50853
1.50307
1.49478
1.48315
1.4798
1.49554
1.54688
1.61413
1.66109
1.68729
1.69347
1.68753
1.67663
1.66369
1.64733
1.63018
1.61625
1.61564
1.6235
1.65067
1.70376
1.75969
1.79486
1.80426
1.80077
1.78687
1.76505
1.74683
1.74016
1.73469
1.72907
1.72192
1.71283
1.70357
1.68743
1.55487
1.53755
1.49588
1.44137
1.38739
1.31154
1.2469
1.21348
1.17065
1.13276
1.11169
1.08268
1.05357
1.05365
1.05285
1.04674
1.04401
1.04152
1.04084
1.04491
1.09676
1.28892
1.48551
1.57982
1.59092
1.58665
1.57468
1.5573
1.53852
1.55183
1.64692
1.83088
1.97879
1.98254
1.97427
1.94815
1.9232
1.90046
1.87626
1.85236
1.82985
1.80601
1.78422
1.76769
1.75373
1.74077
1.72654
1.70973
1.69017
1.66974
1.6515
1.63665
1.6239
1.61167
1.59788
1.58189
1.56552
1.5506
1.53882
1.53007
1.52166
1.50966
1.49639
1.48421
1.46972
1.46323
1.45895
1.46569
1.50249
1.56665
1.62849
1.67118
1.67592
1.67196
1.65918
1.64536
1.63155
1.63134
1.64876
1.69207
1.74237
1.79411
1.81195
1.81121
1.80714
1.79502
1.77542
1.75875
1.7482
1.73961
1.73354
1.72803
1.72164
1.71451
1.70683
1.68748
1.53392
1.49304
1.42693
1.36294
1.28864
1.21037
1.1692
1.13114
1.08115
1.06403
1.05508
1.04112
1.03885
1.04365
1.0469
1.04709
1.04731
1.04926
1.05476
1.06233
1.0689
1.11535
1.28438
1.48069
1.59004
1.59256
1.58868
1.59072
1.6234
1.75263
1.91828
2.01669
2.03472
2.01826
1.97751
1.94136
1.91364
1.89071
1.86961
1.84777
1.82453
1.80314
1.78883
1.77534
1.76004
1.74235
1.72276
1.70358
1.6847
1.66562
1.64928
1.63591
1.62354
1.611
1.59804
1.5851
1.57289
1.55906
1.54123
1.52424
1.51349
1.5043
1.49362
1.48155
1.46895
1.45935
1.45279
1.44804
1.44754
1.46558
1.51646
1.58423
1.63592
1.65112
1.64818
1.64885
1.65983
1.68512
1.73383
1.78622
1.81945
1.83214
1.83037
1.82146
1.80395
1.78503
1.76418
1.748
1.74013
1.73487
1.73071
1.72611
1.72064
1.71329
1.70333
1.68125
1.49259
1.40709
1.32999
1.25178
1.15411
1.12361
1.11246
1.08135
1.05985
1.05858
1.05372
1.05313
1.05722
1.06782
1.07247
1.07286
1.07326
1.07849
1.08428
1.09117
1.0949
1.0977
1.1235
1.26914
1.49263
1.56026
1.62543
1.72192
1.86469
1.96589
2.0302
2.0376
2.01766
1.99185
1.96808
1.94476
1.91665
1.88881
1.8657
1.84644
1.82958
1.81615
1.80275
1.78793
1.77112
1.75154
1.72941
1.70651
1.68659
1.66966
1.65509
1.64251
1.63114
1.62056
1.61064
1.60068
1.58912
1.57336
1.55169
1.52903
1.51216
1.50244
1.49532
1.48691
1.47878
1.47121
1.4639
1.45498
1.4401
1.42768
1.43576
1.47503
1.5402
1.60001
1.63676
1.68798
1.74075
1.77389
1.80549
1.82269
1.83815
1.83673
1.82682
1.81248
1.79672
1.77869
1.7573
1.74543
1.741
1.73768
1.73525
1.73074
1.72443
1.71646
1.70439
1.67763
1.39368
1.23206
1.11415
1.00033
0.963571
0.986659
1.02237
1.02228
1.02957
1.04851
1.0662
1.07926
1.09957
1.11353
1.11352
1.10944
1.10555
1.10774
1.11171
1.1165
1.11815
1.11608
1.11043
1.12694
1.25741
1.52071
1.75305
1.97512
2.13726
2.1874
2.13739
2.05809
2.0027
1.97497
1.95925
1.94058
1.91382
1.88437
1.8591
1.83934
1.82327
1.80911
1.79497
1.77984
1.76342
1.74493
1.72337
1.69906
1.676
1.65766
1.64344
1.63151
1.62136