/*--------------------------------*- C++ -*----------------------------------*\
  =========                 |
  \\      /  F ield         | OpenFOAM: The Open Source CFD Toolbox
   \\    /   O peration     | Website:  https://openfoam.org
    \\  /    A nd           | Version:  7
     \\/     M anipulation  |
\*---------------------------------------------------------------------------*/
FoamFile
{
    version     2.0;
    format      ascii;
    class       volVectorField;
    location    "2.3";
    object      U;
}
// * * * * * * * * * * * * * * * * * * * * * * * * * * * * * * * * * * * * * //

dimensions      [0 1 -1 0 0 0 0];

internalField   nonuniform List<vector> 
4608
(
(3 -9.61871e-17 0)
(3 -9.08609e-17 0)
(3 3.80639e-16 0)
(3 6.21078e-16 0)
(3 1.03978e-15 0)
(3 1.015e-15 0)
(3 7.92336e-16 0)
(3 8.34692e-16 0)
(3 1.11913e-15 0)
(3 1.0407e-15 0)
(3 8.03761e-16 0)
(3 2.23888e-16 0)
(3 2.49586e-16 0)
(3 8.25894e-16 0)
(3 6.919e-16 0)
(3 6.83737e-16 0)
(3 2.37132e-16 0)
(3 -7.07858e-16 0)
(3 -1.41072e-15 0)
(3 -1.62754e-15 0)
(3 2.87027e-16 0)
(3 4.71165e-16 0)
(3 1.20109e-15 0)
(3 2.95301e-16 0)
(3 -1.39057e-16 0)
(3 -3.135e-16 0)
(3 5.41755e-16 0)
(3 1.55467e-15 0)
(3 1.76858e-15 0)
(3 1.00803e-15 0)
(3 2.87645e-16 0)
(3 8.55119e-16 0)
(3 1.07766e-15 0)
(3 1.209e-15 0)
(3 1.22072e-15 0)
(3 4.18247e-16 0)
(3 5.10085e-16 0)
(3 6.84943e-16 0)
(3 4.99164e-16 0)
(3 6.67488e-16 0)
(3 4.10873e-16 0)
(3 -3.05657e-16 0)
(3 -1.37383e-15 0)
(3 -1.415e-15 0)
(3 3.18225e-17 0)
(3 7.12091e-16 0)
(3 1.15392e-15 0)
(3 3.1681e-16 0)
(3 4.4597e-17 0)
(3 1.58542e-16 0)
(3 5.48907e-16 0)
(3 6.19439e-16 0)
(3 4.20595e-16 0)
(3 3.05143e-16 0)
(3 1.84215e-17 0)
(3 -1.76688e-16 0)
(3 3.59997e-17 0)
(3 9.45944e-17 0)
(3 -3.03397e-17 0)
(3 1.68317e-16 0)
(3 -2.15239e-16 0)
(3 -3.28243e-16 0)
(3 -1.17825e-17 0)
(3 5.39893e-16 0)
(3 7.21314e-16 0)
(3 6.44027e-17 0)
(3 -1.88167e-16 0)
(3 -1.09794e-15 0)
(3 -1.90962e-15 0)
(3 -1.67605e-15 0)
(3 1.45769e-16 0)
(3 1.47962e-15 0)
(3 1.38551e-16 0)
(3 1.56829e-17 0)
(3 -4.56262e-16 0)
(3 -3.98425e-16 0)
(3 1.18041e-16 0)
(3 6.68151e-16 0)
(3 2.50758e-16 0)
(3 -8.78022e-16 0)
(3 -7.3078e-16 0)
(3 -3.7701e-16 0)
(3 1.65144e-16 0)
(3 -1.3931e-16 0)
(3 -3.24579e-16 0)
(3 -1.61176e-16 0)
(3 -1.05974e-16 0)
(3 2.33974e-16 0)
(3 8.60593e-17 0)
(3 -1.84613e-16 0)
(3 -3.79583e-16 0)
(3 -8.91697e-16 0)
(3 -1.25234e-15 0)
(3 -1.07071e-15 0)
(3 -1.04589e-15 0)
(3 4.23178e-16 0)
(3 -5.32386e-17 0)
(3 -3.70401e-16 0)
(3 -6.61812e-16 0)
(3 -5.86522e-16 0)
(3 -4.77049e-16 0)
(3 -1.79009e-16 0)
(3 1.689e-16 0)
(3 1.60104e-16 0)
(3 -1.65562e-16 0)
(3 -2.14646e-16 0)
(3 -6.35663e-16 0)
(3 -1.32735e-15 0)
(3 -4.87142e-16 0)
(3 -1.5671e-16 0)
(3 -7.08996e-16 0)
(3 -9.34528e-16 0)
(3 -1.10426e-15 0)
(3 -2.67481e-16 0)
(3 -2.00569e-16 0)
(3 -3.28374e-16 0)
(3 -9.33265e-17 0)
(3 -2.36337e-16 0)
(3 4.21273e-16 0)
(3 1.09304e-15 0)
(3 -1.30234e-16 0)
(3 -8.85802e-17 0)
(3 1.87571e-16 0)
(3 4.14766e-16 0)
(3 3.35693e-16 0)
(3 3.99401e-16 0)
(3 5.6222e-16 0)
(3 4.74896e-16 0)
(3 2.14775e-16 0)
(3 -6.0479e-16 0)
(3 -1.19376e-15 0)
(3 -9.04721e-16 0)
(3 -3.44964e-16 0)
(3 -1.11262e-16 0)
(3 -7.64173e-17 0)
(3 -5.47379e-16 0)
(3 -4.70753e-16 0)
(3 5.28163e-16 0)
(3 3.5618e-16 0)
(3 -1.07669e-16 0)
(3 -1.98015e-16 0)
(3 -4.7979e-16 0)
(3 2.39996e-16 0)
(3 1.02691e-15 0)
(3 1.95851e-16 0)
(3 2.2542e-16 0)
(3 2.78791e-16 0)
(3 4.69562e-16 0)
(3 5.57309e-16 0)
(3 7.32162e-16 0)
(3 7.33913e-16 0)
(3 7.75681e-16 0)
(3 -1.69494e-16 0)
(3 -5.4422e-16 0)
(3 -4.06574e-16 0)
(3 -4.95574e-17 0)
(3 -2.2942e-16 0)
(3 2.61303e-16 0)
(3 8.38345e-16 0)
(3 2.91001e-17 0)
(3 2.09008e-16 0)
(3 1.78658e-16 0)
(3 2.80998e-16 0)
(3 3.84428e-16 0)
(3 -1.23873e-16 0)
(3 3.59654e-16 0)
(3 4.13479e-16 0)
(3 3.26127e-16 0)
(3 1.36812e-16 0)
(3 8.79013e-17 0)
(3 -1.44962e-16 0)
(3 -3.8734e-16 0)
(3 -3.35323e-16 0)
(3 -4.16134e-16 0)
(3 -3.6021e-16 0)
(3 -1.81037e-16 0)
(3 -6.51266e-16 0)
(3 -8.17204e-16 0)
(3 -7.80649e-16 0)
(3 -2.89771e-16 0)
(3 3.90287e-16 0)
(3 5.85708e-16 0)
(3 5.27794e-16 0)
(3 3.94466e-16 0)
(3 4.97935e-16 0)
(3 3.32202e-16 0)
(3 1.5322e-16 0)
(3 4.35107e-16 0)
(3 3.46628e-16 0)
(3 5.37145e-16 0)
(3 8.13386e-16 0)
(3 7.5336e-16 0)
(3 4.17756e-18 0)
(3 -1.38714e-16 0)
(3 -4.6078e-16 0)
(3 -8.79186e-16 0)
(3 -7.08679e-16 0)
(3 -8.05546e-16 0)
(3 -1.00403e-15 0)
(3 -1.00785e-15 0)
(3 -7.8282e-16 0)
(3 -8.05138e-16 0)
(3 -1.66841e-17 0)
(3 -5.86741e-17 0)
(3 -1.63911e-16 0)
(3 -3.19433e-16 0)
(3 1.5672e-16 0)
(3 7.31814e-16 0)
(3 9.36625e-16 0)
(3 3.44174e-16 0)
(3 2.3345e-16 0)
(3 2.53624e-16 0)
(3 5.41049e-16 0)
(3 1.022e-15 0)
(3 1.40659e-15 0)
(3 1.64208e-15 0)
(3 -2.39332e-17 0)
(3 2.91999e-17 0)
(3 -5.99361e-17 0)
(3 -1.75536e-16 0)
(3 -2.70502e-16 0)
(3 -4.89321e-16 0)
(3 -5.09661e-16 0)
(3 -3.41939e-16 0)
(3 2.32941e-16 0)
(3 5.24939e-16 0)
(3 3.75214e-16 0)
(3 3.37518e-16 0)
(3 -3.70327e-16 0)
(3 -3.79004e-16 0)
(3 -1.22728e-16 0)
(3 -1.3879e-16 0)
(3 5.89659e-16 0)
(3 5.97595e-16 0)
(3 1.06558e-15 0)
(3 1.37438e-15 0)
(3 1.74113e-15 0)
(3 2.28707e-15 0)
(3 2.78818e-15 0)
(3 1.65348e-15 0)
(3 -9.2468e-17 0)
(3 1.00313e-16 0)
(3 2.0415e-16 0)
(3 4.31722e-16 0)
(3 8.00861e-16 0)
(3 7.47314e-16 0)
(3 5.47854e-16 0)
(3 4.95954e-16 0)
(3 7.37373e-16 0)
(3 8.34702e-16 0)
(3 5.07503e-16 0)
(3 2.9826e-16 0)
(3 2.75782e-16 0)
(3 -1.67263e-16 0)
(3 7.71124e-18 0)
(3 4.4382e-18 0)
(3 2.13057e-16 0)
(3 1.0141e-15 0)
(3 2.26911e-15 0)
(3 3.83297e-15 0)
(3 4.00265e-15 0)
(3 2.75242e-15 0)
(3 2.04044e-15 0)
(3 1.3339e-15 0)
(3 1.02986e-17 0)
(3 1.37866e-16 0)
(3 3.69042e-16 0)
(3 7.81612e-16 0)
(3 1.12403e-15 0)
(3 1.42778e-15 0)
(3 1.23165e-15 0)
(3 1.09041e-15 0)
(3 8.3743e-16 0)
(3 9.1294e-16 0)
(3 1.02399e-15 0)
(3 6.97594e-16 0)
(3 7.104e-16 0)
(3 9.39889e-16 0)
(3 9.17656e-16 0)
(3 8.32402e-16 0)
(3 6.71888e-16 0)
(3 1.9086e-15 0)
(3 3.86352e-15 0)
(3 3.42158e-15 0)
(3 2.40537e-15 0)
(3 4.15149e-16 0)
(3 -4.65006e-16 0)
(3 -3.72486e-16 0)
(3 -2.90274e-18 0)
(3 4.48384e-20 0)
(3 1.27916e-16 0)
(3 2.64549e-16 0)
(3 4.48088e-16 0)
(3 5.50501e-16 0)
(3 5.33911e-16 0)
(3 8.07729e-17 0)
(3 1.06443e-15 0)
(3 1.33669e-15 0)
(3 8.97769e-16 0)
(3 6.08121e-16 0)
(3 6.96609e-16 0)
(3 7.28201e-16 0)
(3 5.94575e-16 0)
(3 7.5243e-16 0)
(3 1.30778e-15 0)
(3 1.86964e-15 0)
(3 1.92141e-15 0)
(3 3.13977e-16 0)
(3 -6.70479e-16 0)
(3 -1.11481e-15 0)
(3 -1.90176e-15 0)
(3 -1.76788e-15 0)
(3 -8.32391e-18 0)
(3 2.26056e-16 0)
(3 2.09585e-16 0)
(3 -1.85369e-16 0)
(3 -7.90682e-16 0)
(3 -9.26444e-16 0)
(3 -7.69692e-16 0)
(3 -7.84268e-16 0)
(3 4.28656e-16 0)
(3 4.82656e-16 0)
(3 6.20279e-16 0)
(3 4.77502e-16 0)
(3 4.48664e-16 0)
(3 4.61706e-16 0)
(3 7.76208e-16 0)
(3 1.22221e-15 0)
(3 1.27116e-15 0)
(3 1.90945e-16 0)
(3 -7.11211e-16 0)
(3 -6.03497e-16 0)
(3 -8.98181e-16 0)
(3 -1.6177e-15 0)
(3 -2.24719e-15 0)
(3 -2.54521e-15 0)
(3 -1.40632e-16 0)
(3 -1.22813e-16 0)
(3 -2.20774e-16 0)
(3 -5.60339e-16 0)
(3 -1.65457e-15 0)
(3 -1.67016e-15 0)
(3 -1.07171e-15 0)
(3 -5.47566e-16 0)
(3 -1.65555e-16 0)
(3 -3.10765e-16 0)
(3 -4.31772e-17 0)
(3 4.85278e-16 0)
(3 4.22165e-16 0)
(3 7.08162e-16 0)
(3 5.89688e-16 0)
(3 4.78543e-16 0)
(3 -5.25575e-16 0)
(3 -1.13521e-15 0)
(3 -1.07502e-15 0)
(3 -7.84886e-16 0)
(3 -9.27261e-16 0)
(3 -1.19329e-15 0)
(3 -2.3362e-15 0)
(3 -3.36314e-15 0)
(3 -1.59356e-16 0)
(3 -4.24272e-16 0)
(3 -8.25912e-16 0)
(3 -5.67196e-16 0)
(3 -4.03565e-16 0)
(3 -4.00576e-16 0)
(3 -6.38855e-17 0)
(3 2.49834e-16 0)
(3 1.51014e-16 0)
(3 1.26092e-16 0)
(3 1.23652e-16 0)
(3 -2.37713e-17 0)
(3 2.43634e-18 0)
(3 8.73085e-17 0)
(3 2.33826e-17 0)
(3 -4.16829e-16 0)
(3 -6.69833e-16 0)
(3 -8.63807e-16 0)
(3 -1.2164e-15 0)
(3 -1.77493e-15 0)
(3 -1.36339e-15 0)
(3 -1.14203e-15 0)
(3 -1.65524e-15 0)
(3 -2.47258e-15 0)
(3 1.50445e-16 0)
(3 1.76916e-16 0)
(3 1.72456e-16 0)
(3 1.44164e-16 0)
(3 3.32412e-16 0)
(3 1.11709e-16 0)
(3 1.04169e-16 0)
(3 2.47477e-16 0)
(3 -1.40876e-16 0)
(3 -3.64257e-16 0)
(3 -2.61859e-16 0)
(3 -6.87072e-17 0)
(3 4.62725e-16 0)
(3 1.51169e-16 0)
(3 6.27385e-17 0)
(3 -3.27394e-16 0)
(3 -7.4143e-16 0)
(3 -1.55894e-15 0)
(3 -2.30686e-15 0)
(3 -2.34058e-15 0)
(3 -1.63604e-15 0)
(3 -1.13089e-15 0)
(3 -4.59685e-16 0)
(3 4.1798e-16 0)
(3 1.97169e-16 0)
(3 5.26282e-16 0)
(3 9.71364e-16 0)
(3 7.86266e-16 0)
(3 3.5503e-16 0)
(3 2.33426e-16 0)
(3 5.99426e-17 0)
(3 1.3519e-16 0)
(3 1.09055e-17 0)
(3 -2.98541e-16 0)
(3 5.54992e-16 0)
(3 8.3486e-16 0)
(3 1.02319e-15 0)
(3 8.79823e-16 0)
(3 -1.73247e-16 0)
(3 -2.91844e-16 0)
(3 -8.87195e-16 0)
(3 -2.43773e-15 0)
(3 -2.78689e-15 0)
(3 -2.53587e-15 0)
(3 -1.19892e-15 0)
(3 4.77921e-16 0)
(3 8.12779e-16 0)
(3 8.5325e-16 0)
(3 -4.0116e-17 0)
(3 -1.73378e-16 0)
(3 2.72578e-17 0)
(3 1.61487e-16 0)
(3 1.56714e-17 0)
(3 -1.72683e-16 0)
(3 -5.85314e-16 0)
(3 -4.28184e-16 0)
(3 3.50098e-16 0)
(3 4.24768e-16 0)
(3 5.47632e-16 0)
(3 5.48782e-16 0)
(3 3.4511e-16 0)
(3 7.88636e-16 0)
(3 3.35448e-16 0)
(3 -2.07527e-16 0)
(3 -9.1277e-16 0)
(3 -1.74947e-15 0)
(3 -2.12909e-15 0)
(3 -1.93259e-15 0)
(3 -1.75525e-15 0)
(3 -1.55873e-15 0)
(3 -7.20217e-16 0)
(3 -8.52678e-16 0)
(3 -2.67054e-17 0)
(3 -9.25141e-17 0)
(3 -2.63729e-16 0)
(3 -4.00816e-16 0)
(3 -7.53295e-17 0)
(3 -7.59133e-17 0)
(3 9.85956e-17 0)
(3 -3.1055e-16 0)
(3 -6.85098e-16 0)
(3 -4.89014e-16 0)
(3 -4.87351e-16 0)
(3 -3.54395e-16 0)
(3 -3.58958e-16 0)
(3 -3.07703e-16 0)
(3 -4.89027e-16 0)
(3 -5.87504e-16 0)
(3 -4.2108e-16 0)
(3 -2.24187e-16 0)
(3 -5.25521e-17 0)
(3 -4.65397e-16 0)
(3 -6.30502e-16 0)
(3 -6.0294e-16 0)
(3 -2.35296e-16 0)
(3 1.51592e-16 0)
(3 -1.01629e-16 0)
(3 5.84147e-17 0)
(3 1.23933e-16 0)
(3 1.59754e-16 0)
(3 1.35279e-16 0)
(3 1.90069e-16 0)
(3 2.06582e-16 0)
(3 -1.00729e-16 0)
(3 -7.96167e-16 0)
(3 -5.52165e-16 0)
(3 -3.43158e-16 0)
(3 -4.18663e-16 0)
(3 -8.27317e-16 0)
(3 -1.14189e-15 0)
(3 -2.52877e-16 0)
(3 2.54632e-16 0)
(3 8.21544e-16 0)
(3 1.39393e-15 0)
(3 1.41482e-15 0)
(3 1.25556e-15 0)
(3 5.43824e-16 0)
(3 3.81081e-16 0)
(3 4.38698e-16 0)
(3 1.06854e-15 0)
(3 -1.63468e-16 0)
(3 -6.62765e-16 0)
(3 -7.30038e-16 0)
(3 -3.38994e-16 0)
(3 -4.09585e-16 0)
(3 -3.50974e-16 0)
(3 -6.65056e-16 0)
(3 -8.50467e-16 0)
(3 -9.42902e-16 0)
(3 -1.2735e-15 0)
(3 -8.3464e-16 0)
(3 -5.73861e-16 0)
(3 -2.89487e-16 0)
(3 -3.00378e-16 0)
(3 -3.11582e-16 0)
(3 -4.247e-16 0)
(3 5.74824e-17 0)
(3 3.05022e-16 0)
(3 4.77532e-16 0)
(3 8.52143e-16 0)
(3 7.05004e-16 0)
(3 3.44127e-16 0)
(3 -1.99645e-16 0)
(3 -1.83269e-16 0)
(3 -1.01854e-16 0)
(3 -2.4881e-16 0)
(3 -5.12952e-16 0)
(3 -4.41265e-16 0)
(3 -3.07792e-16 0)
(3 9.59465e-17 0)
(3 8.2913e-17 0)
(3 -1.80104e-16 0)
(3 -5.19681e-16 0)
(3 -1.03195e-15 0)
(3 -1.19025e-15 0)
(3 -8.59614e-16 0)
(3 -1.48444e-17 0)
(3 3.23658e-16 0)
(3 -5.99049e-17 0)
(3 -1.87223e-16 0)
(3 5.87353e-17 0)
(3 1.58976e-16 0)
(3 6.247e-16 0)
(3 7.33372e-16 0)
(3 1.29279e-15 0)
(3 1.31069e-15 0)
(3 5.73531e-16 0)
(3 -9.64462e-16 0)
(3 9.43095e-17 0)
(3 6.742e-16 0)
(3 7.19396e-16 0)
(3 3.38763e-16 0)
(3 5.18208e-16 0)
(3 1.014e-15 0)
(3 1.17185e-15 0)
(3 4.39349e-16 0)
(3 -8.09226e-17 0)
(3 2.5792e-16 0)
(3 3.49394e-16 0)
(3 2.63598e-16 0)
(3 -8.60687e-16 0)
(3 -7.25266e-16 0)
(3 -3.96474e-16 0)
(3 7.67229e-17 0)
(3 6.13854e-16 0)
(3 9.46999e-16 0)
(3 5.23992e-16 0)
(3 3.83587e-16 0)
(3 6.98316e-16 0)
(3 5.52838e-16 0)
(3 1.66801e-16 0)
(3 -7.03065e-17 0)
(3 3.62677e-17 0)
(3 2.18936e-16 0)
(3 3.29265e-16 0)
(3 2.72958e-16 0)
(3 4.64764e-16 0)
(3 1.96388e-16 0)
(3 9.2638e-17 0)
(3 -1.54901e-16 0)
(3 -3.0264e-16 0)
(3 -1.5924e-16 0)
(3 -7.30702e-17 0)
(3 -3.23463e-16 0)
(3 -9.86937e-16 0)
(3 -1.71182e-15 0)
(3 -1.56011e-15 0)
(3 -6.51544e-16 0)
(3 1.4484e-16 0)
(3 -6.33259e-16 0)
(3 -1.34257e-15 0)
(3 -1.42881e-15 0)
(3 -2.33051e-15 0)
(3 -2.63049e-15 0)
(3 -1.56465e-15 0)
(3 -5.61017e-16 0)
(3 7.39791e-18 0)
(3 -1.78496e-16 0)
(3 -1.65961e-16 0)
(3 8.69549e-17 0)
(3 5.60843e-17 0)
(3 -7.24534e-16 0)
(3 -9.37457e-16 0)
(3 -9.91003e-16 0)
(3 5.94309e-17 0)
(3 -3.04507e-16 0)
(3 -1.52498e-15 0)
(3 -1.7352e-15 0)
(3 -1.80733e-15 0)
(3 -1.70191e-15 0)
(3 -7.83055e-16 0)
(3 -3.73828e-16 0)
(3 1.34746e-16 0)
(3 -8.4284e-16 0)
(3 -7.85309e-16 0)
(3 -1.15105e-15 0)
(3 -2.40805e-15 0)
(3 -3.14567e-15 0)
(3 -3.35058e-15 0)
(3 -2.64709e-15 0)
(3 1.84527e-16 0)
(3 1.46319e-16 0)
(3 1.1769e-16 0)
(3 6.30437e-17 0)
(3 -9.4764e-18 0)
(3 1.59304e-16 0)
(3 -1.79262e-16 0)
(3 7.36156e-16 0)
(3 9.67501e-16 0)
(3 5.35832e-16 0)
(3 -6.93936e-17 0)
(3 -3.43935e-16 0)
(3 -3.99549e-16 0)
(3 -9.32452e-16 0)
(3 -1.19203e-15 0)
(3 -1.56515e-15 0)
(3 -1.71673e-15 0)
(3 -1.18089e-15 0)
(3 -1.27211e-15 0)
(3 -8.31679e-16 0)
(3 -4.76084e-16 0)
(3 -6.37272e-16 0)
(3 -1.72693e-15 0)
(3 -2.62285e-15 0)
(3 1.957e-17 0)
(3 -1.71872e-16 0)
(3 -1.27028e-16 0)
(3 -1.04135e-16 0)
(3 -4.5577e-17 0)
(3 5.91212e-16 0)
(3 7.89255e-16 0)
(3 1.05865e-15 0)
(3 9.11684e-16 0)
(3 7.84607e-16 0)
(3 1.21633e-15 0)
(3 9.30676e-16 0)
(3 9.13924e-16 0)
(3 4.3482e-18 0)
(3 -1.23349e-15 0)
(3 -1.79546e-15 0)
(3 -1.48698e-15 0)
(3 -1.02707e-15 0)
(3 -2.03379e-15 0)
(3 -1.86045e-15 0)
(3 -4.03119e-16 0)
(3 1.73884e-16 0)
(3 -3.78451e-17 0)
(3 -1.28648e-15 0)
(3 -1.62982e-16 0)
(3 -5.82796e-16 0)
(3 -6.33289e-16 0)
(3 -2.02202e-16 0)
(3 3.52674e-17 0)
(3 -1.01058e-16 0)
(3 -1.6476e-17 0)
(3 -4.872e-17 0)
(3 -2.59762e-16 0)
(3 2.50764e-16 0)
(3 4.94504e-16 0)
(3 4.58233e-16 0)
(3 5.48457e-16 0)
(3 9.86366e-16 0)
(3 1.0055e-15 0)
(3 9.06147e-16 0)
(3 7.06616e-16 0)
(3 1.16407e-15 0)
(3 7.0184e-16 0)
(3 -2.14049e-16 0)
(3 -1.33393e-15 0)
(3 -1.87569e-15 0)
(3 -1.09591e-15 0)
(3 -1.31866e-15 0)
(3 -1.32545e-16 0)
(3 3.94885e-16 0)
(3 3.6143e-16 0)
(3 2.11996e-16 0)
(3 3.52692e-17 0)
(3 -3.26121e-16 0)
(3 -2.72626e-16 0)
(3 -7.2627e-17 0)
(3 6.4032e-16 0)
(3 9.12132e-16 0)
(3 7.57358e-16 0)
(3 5.48579e-16 0)
(3 4.84828e-16 0)
(3 2.24796e-15 0)
(3 2.9693e-15 0)
(3 3.08302e-15 0)
(3 2.59618e-15 0)
(3 2.7466e-15 0)
(3 2.59426e-15 0)
(3 1.27986e-15 0)
(3 -5.23345e-16 0)
(3 -1.32118e-15 0)
(3 -1.23221e-15 0)
(3 -9.36027e-16 0)
(3 -2.71026e-17 0)
(3 4.87993e-16 0)
(3 6.86197e-16 0)
(3 3.27332e-16 0)
(3 3.32225e-16 0)
(3 5.24576e-16 0)
(3 5.08988e-16 0)
(3 7.29561e-17 0)
(3 1.13655e-15 0)
(3 1.78016e-15 0)
(3 1.62819e-15 0)
(3 5.21937e-16 0)
(3 -3.08489e-16 0)
(3 1.73126e-15 0)
(3 1.90228e-15 0)
(3 1.83293e-15 0)
(3 2.29629e-15 0)
(3 2.23382e-15 0)
(3 1.13598e-15 0)
(3 4.16874e-16 0)
(3 4.69064e-16 0)
(3 8.01889e-16 0)
(3 1.56475e-16 0)
(3 4.20965e-17 0)
(3 -1.04832e-16 0)
(3 -2.85188e-18 0)
(3 -2.61394e-17 0)
(3 -1.39589e-16 0)
(3 1.94355e-16 0)
(3 6.00688e-16 0)
(3 1.72156e-16 0)
(3 -6.97502e-16 0)
(3 1.99629e-16 0)
(3 6.48871e-16 0)
(3 5.49751e-16 0)
(3 -3.20606e-17 0)
(3 -1.51784e-16 0)
(3 1.80129e-16 0)
(3 4.83029e-16 0)
(3 6.54214e-16 0)
(3 9.74761e-16 0)
(3 7.25835e-16 0)
(3 2.28243e-16 0)
(3 1.88541e-16 0)
(3 7.18094e-17 0)
(3 3.3492e-16 0)
(3 1.27844e-16 0)
(3 -1.10136e-16 0)
(2.93412 0.00927949 0)
(2.84386 0.0802789 0)
(2.75594 0.147157 0)
(2.67547 0.227242 0)
(2.56525 0.364743 0)
(2.51671 0.434119 0)
(2.41567 0.546294 0)
(2.35301 0.62865 0)
(2.31213 0.723809 0)
(2.25368 0.798614 0)
(2.2476 0.852315 0)
(2.28314 0.885787 0)
(2.32842 0.895435 0)
(2.33617 0.888779 0)
(2.34525 0.885345 0)
(2.34683 0.866565 0)
(2.34649 0.858942 0)
(2.34267 0.851076 0)
(2.34072 0.84715 0)
(2.34473 0.848772 0)
(2.34421 0.849276 0)
(2.34241 0.849233 0)
(2.33816 0.849981 0)
(2.33466 0.850271 0)
(2.99887 0.00106964 0)
(2.98905 0.0127113 0)
(2.9607 0.0511064 0)
(2.90491 0.128603 0)
(2.79753 0.279245 0)
(2.69321 0.455054 0)
(2.51752 0.693727 0)
(2.39825 0.895646 0)
(2.22078 1.06848 0)
(2.16208 1.10753 0)
(2.15041 1.03377 0)
(2.18685 0.994594 0)
(2.2466 0.949429 0)
(2.29877 0.903676 0)
(2.33511 0.853725 0)
(2.35223 0.826249 0)
(2.35464 0.833621 0)
(2.35476 0.838334 0)
(2.35426 0.838869 0)
(2.35338 0.840384 0)
(2.35303 0.84326 0)
(2.34782 0.845516 0)
(2.34269 0.847294 0)
(2.33789 0.849623 0)
(3 -4.6422e-06 0)
(2.99998 -3.23829e-06 0)
(3 8.03041e-05 0)
(2.99994 1.45571e-05 0)
(2.99853 0.00203912 0)
(2.99203 0.0114521 0)
(2.96377 0.0557632 0)
(2.90191 0.170147 0)
(2.77239 0.411012 0)
(2.57593 0.721349 0)
(2.46757 0.840756 0)
(2.33697 0.930057 0)
(2.29101 0.914323 0)
(2.29585 0.90115 0)
(2.31219 0.886469 0)
(2.34796 0.866293 0)
(2.35839 0.864461 0)
(2.35906 0.849354 0)
(2.36075 0.840067 0)
(2.3591 0.839964 0)
(2.3579 0.840319 0)
(2.35441 0.843191 0)
(2.34925 0.845241 0)
(2.34489 0.848617 0)
(3 -1.08204e-07 0)
(3 -7.30619e-08 0)
(3 -3.02801e-07 0)
(3 -1.01097e-06 0)
(3.00001 -9.14253e-06 0)
(2.99999 2.01911e-05 0)
(3.00004 -9.8541e-05 0)
(2.99927 0.00129767 0)
(2.99016 0.0169689 0)
(2.8919 0.174645 0)
(2.78616 0.407353 0)
(2.42321 0.803475 0)
(2.33199 0.891997 0)
(2.28033 0.945854 0)
(2.28706 0.948929 0)
(2.30638 0.92565 0)
(2.33653 0.886421 0)
(2.34903 0.859963 0)
(2.35404 0.844602 0)
(2.35836 0.839647 0)
(2.35895 0.842614 0)
(2.35932 0.847629 0)
(2.35801 0.849836 0)
(2.35276 0.850925 0)
(3 3.14498e-10 0)
(3 -2.16333e-09 0)
(3 -2.62452e-08 0)
(3 -7.70318e-08 0)
(3 -7.56887e-07 0)
(3 -7.741e-07 0)
(3 -2.5255e-06 0)
(3 -1.94101e-06 0)
(3.00004 -8.29056e-05 0)
(2.99925 0.0009844 0)
(2.98777 0.0183889 0)
(2.854 0.185204 0)
(2.66474 0.455365 0)
(2.44807 0.727909 0)
(2.29171 0.917192 0)
(2.28348 0.900701 0)
(2.30818 0.882144 0)
(2.32146 0.876517 0)
(2.33912 0.86915 0)
(2.34995 0.854087 0)
(2.3567 0.847627 0)
(2.35607 0.8501 0)
(2.35589 0.851874 0)
(2.35207 0.8573 0)
(3 7.90719e-12 0)
(3 4.47553e-13 0)
(3 4.78853e-11 0)
(3 -2.69687e-10 0)
(3 9.3699e-10 0)
(3 -6.76448e-08 0)
(3 -7.74287e-08 0)
(3 -2.0202e-07 0)
(3 -6.55986e-06 0)
(3 -6.30786e-06 0)
(3.00003 -6.57235e-05 0)
(2.99831 0.00218651 0)
(2.97434 0.0360084 0)
(2.83132 0.216232 0)
(2.50951 0.600614 0)
(2.41855 0.738579 0)
(2.30277 0.879839 0)
(2.28835 0.894417 0)
(2.30329 0.886079 0)
(2.32593 0.861724 0)
(2.33775 0.845596 0)
(2.34264 0.846092 0)
(2.34653 0.842844 0)
(2.34896 0.841838 0)
(3 -1.64441e-14 0)
(3 5.36458e-13 0)
(3 1.22219e-11 0)
(3 2.2109e-11 0)
(3 3.00478e-11 0)
(3 -8.3612e-11 0)
(3 -5.7412e-10 0)
(3 -1.45471e-09 0)
(3 -2.10737e-08 0)
(3 -4.39801e-07 0)
(3 -7.96132e-06 0)
(3 -4.90273e-06 0)
(3 -2.19908e-05 0)
(2.99562 0.00595477 0)
(2.93219 0.0834576 0)
(2.78777 0.300833 0)
(2.40855 0.736308 0)
(2.35965 0.802294 0)
(2.317 0.846906 0)
(2.3157 0.845263 0)
(2.32221 0.842725 0)
(2.33301 0.840971 0)
(2.33756 0.835494 0)
(2.34276 0.835208 0)
(3 5.8439e-16 0)
(3 -5.27678e-15 0)
(3 9.93269e-14 0)
(3 1.80857e-12 0)
(3 7.1669e-12 0)
(3 7.4245e-12 0)
(3 7.03245e-12 0)
(3 2.65301e-12 0)
(3 1.13971e-10 0)
(3 -5.6218e-10 0)
(3 -3.61063e-08 0)
(3 -5.82857e-07 0)
(3 -1.83972e-06 0)
(3.00002 -2.70205e-05 0)
(2.99961 0.000680951 0)
(2.98878 0.0165615 0)
(2.85328 0.185517 0)
(2.70372 0.433768 0)
(2.36106 0.807033 0)
(2.28045 0.883902 0)
(2.30236 0.854888 0)
(2.30876 0.8496 0)
(2.31278 0.843178 0)
(2.32645 0.839459 0)
(3 1.27072e-15 0)
(3 -2.45063e-15 0)
(3 -3.62657e-15 0)
(3 5.63541e-15 0)
(3 9.11224e-14 0)
(3 9.02053e-13 0)
(3 1.38173e-12 0)
(3 1.43363e-12 0)
(3 1.51207e-11 0)
(3 1.54953e-11 0)
(3 3.38409e-10 0)
(3 -5.30211e-09 0)
(3 -3.91293e-08 0)
(3 -3.68446e-06 0)
(3.00001 -2.59501e-06 0)
(3 -2.38506e-05 0)
(2.9968 0.00533422 0)
(2.96657 0.0559625 0)
(2.72077 0.368379 0)
(2.5732 0.597725 0)
(2.38958 0.78788 0)
(2.29961 0.870845 0)
(2.29219 0.858217 0)
(2.30954 0.843384 0)
(3 4.21369e-16 0)
(3 2.38653e-16 0)
(3 -1.16407e-16 0)
(3 3.05269e-16 0)
(3 1.01501e-15 0)
(3 1.17684e-14 0)
(3 3.54008e-14 0)
(3 1.04418e-13 0)
(3 2.93536e-13 0)
(3 2.20571e-12 0)
(3 3.32015e-11 0)
(3 1.72707e-11 0)
(3 8.93765e-11 0)
(3 -2.6575e-08 0)
(3 -9.01439e-07 0)
(3 -1.60515e-06 0)
(3.00001 -9.99368e-06 0)
(2.99961 0.000604894 0)
(2.97967 0.0302576 0)
(2.90112 0.176347 0)
(2.57686 0.582305 0)
(2.40701 0.786281 0)
(2.35135 0.795128 0)
(2.33893 0.821965 0)
(3 8.44581e-16 0)
(3 2.58859e-16 0)
(3 -3.49976e-16 0)
(3 4.35599e-16 0)
(3 5.16085e-16 0)
(3 -3.06162e-16 0)
(3 -9.06351e-16 0)
(3 -1.35135e-15 0)
(3 -1.23218e-16 0)
(3 1.19131e-14 0)
(3 4.84148e-13 0)
(3 2.78379e-12 0)
(3 1.58743e-11 0)
(3 9.22297e-11 0)
(3 -2.11669e-08 0)
(3 -1.06532e-07 0)
(3 -1.47113e-06 0)
(3 -4.78561e-06 0)
(2.9999 0.00017836 0)
(2.9958 0.00828554 0)
(2.92128 0.113762 0)
(2.6964 0.43162 0)
(2.51301 0.677315 0)
(2.33582 0.846699 0)
(3 -3.59191e-16 0)
(3 -1.18928e-15 0)
(3 -1.09791e-15 0)
(3 -8.49827e-16 0)
(3 -7.77973e-16 0)
(3 -4.88467e-16 0)
(3 -3.58107e-16 0)
(3 -8.54414e-16 0)
(3 -1.83019e-15 0)
(3 -2.63329e-15 0)
(3 -2.38876e-15 0)
(3 2.64213e-14 0)
(3 1.54301e-12 0)
(3 5.76376e-12 0)
(3 9.62344e-11 0)
(3 -2.52531e-09 0)
(3 -1.93747e-08 0)
(3 -1.1066e-06 0)
(3 -2.04346e-06 0)
(2.99999 6.95099e-06 0)
(2.99778 0.00403055 0)
(2.96536 0.0572527 0)
(2.77271 0.345804 0)
(2.59465 0.606661 0)
(3 -1.57544e-15 0)
(3 -7.72552e-16 0)
(3 -4.20976e-16 0)
(3 -1.70978e-15 0)
(3 -1.64491e-15 0)
(3 -1.0302e-15 0)
(3 1.16637e-16 0)
(3 -2.14599e-16 0)
(3 -4.26442e-16 0)
(3 -3.35697e-16 0)
(3 -1.47552e-15 0)
(3 9.8835e-16 0)
(3 1.0497e-15 0)
(3 5.31375e-13 0)
(3 1.25051e-11 0)
(3 3.2913e-11 0)
(3 -6.52374e-11 0)
(3 -3.05281e-08 0)
(3 -5.95039e-07 0)
(3 -5.63395e-07 0)
(3 3.07484e-06 0)
(2.99944 0.00108459 0)
(2.97876 0.0359385 0)
(2.84669 0.261419 0)
(3 -2.75991e-15 0)
(3 -1.47384e-15 0)
(3 1.93269e-16 0)
(3 -7.99074e-16 0)
(3 -8.50774e-16 0)
(3 -7.62882e-16 0)
(3 -3.31299e-16 0)
(3 4.21896e-16 0)
(3 6.0854e-16 0)
(3 9.22459e-16 0)
(3 1.28392e-15 0)
(3 1.5371e-15 0)
(3 1.20622e-15 0)
(3 4.39388e-15 0)
(3 8.04412e-13 0)
(3 8.26585e-12 0)
(3 7.66967e-12 0)
(3 -1.04371e-10 0)
(3 -1.97246e-08 0)
(3 -1.6581e-07 0)
(3 -4.31427e-08 0)
(3 -2.36509e-06 0)
(2.9996 0.00076586 0)
(2.99107 0.0175141 0)
(3 -4.11263e-15 0)
(3 -1.94928e-15 0)
(3 -1.37441e-15 0)
(3 -8.18804e-16 0)
(3 -6.83947e-16 0)
(3 -9.37814e-16 0)
(3 -1.06114e-15 0)
(3 -4.19398e-16 0)
(3 2.03607e-16 0)
(3 4.88495e-16 0)
(3 1.5214e-15 0)
(3 1.63138e-15 0)
(3 7.2382e-16 0)
(3 -9.86445e-16 0)
(3 2.18926e-15 0)
(3 3.18087e-13 0)
(3 1.56961e-12 0)
(3 2.97511e-12 0)
(3 -5.38209e-11 0)
(3 -5.7271e-09 0)
(3 -2.73389e-08 0)
(3 -6.05177e-07 0)
(3 6.45397e-06 0)
(2.99998 2.8356e-05 0)
(3 -2.46265e-15 0)
(3 -2.46149e-15 0)
(3 -2.20452e-15 0)
(3 -1.12001e-15 0)
(3 -1.03246e-15 0)
(3 -1.251e-15 0)
(3 -1.97755e-15 0)
(3 -2.93301e-15 0)
(3 -2.59745e-15 0)
(3 -1.6148e-15 0)
(3 -1.79067e-16 0)
(3 5.50231e-16 0)
(3 -1.9941e-16 0)
(3 -1.06779e-15 0)
(3 -1.19261e-15 0)
(3 8.37676e-16 0)
(3 3.78253e-14 0)
(3 1.53873e-12 0)
(3 1.44862e-12 0)
(3 -5.86271e-13 0)
(3 -3.90692e-09 0)
(3 -1.14097e-07 0)
(3 -4.13705e-08 0)
(3 -5.52069e-06 0)
(3 -9.0788e-16 0)
(3 -1.92339e-15 0)
(3 -2.06841e-15 0)
(3 -1.3536e-15 0)
(3 -7.25082e-16 0)
(3 -6.11946e-16 0)
(3 -1.18826e-15 0)
(3 -1.77113e-15 0)
(3 -2.85283e-15 0)
(3 -3.38611e-15 0)
(3 -2.39279e-15 0)
(3 -1.22918e-15 0)
(3 -6.77508e-16 0)
(3 1.58214e-16 0)
(3 3.18876e-16 0)
(3 -6.73452e-16 0)
(3 -7.56653e-14 0)
(3 -4.18799e-13 0)
(3 -7.04366e-13 0)
(3 1.03885e-10 0)
(3 2.57257e-09 0)
(3 1.49259e-08 0)
(3 1.25413e-06 0)
(3 -2.05893e-06 0)
(3 8.88988e-16 0)
(3 -1.77332e-16 0)
(3 -1.13535e-15 0)
(3 -1.07734e-15 0)
(3 -9.30894e-16 0)
(3 -5.66657e-16 0)
(3 4.47155e-17 0)
(3 1.0058e-16 0)
(3 4.00499e-17 0)
(3 -9.73032e-16 0)
(3 -2.72902e-15 0)
(3 -2.45396e-15 0)
(3 -1.62101e-15 0)
(3 6.82636e-16 0)
(3 -5.24306e-16 0)
(3 -3.68264e-13 0)
(3 -2.07903e-12 0)
(3 -2.20476e-12 0)
(3 1.49084e-10 0)
(3 6.1886e-09 0)
(3 7.25647e-08 0)
(3 1.81616e-07 0)
(3 9.52467e-08 0)
(3 3.51682e-05 0)
(3 -4.12698e-16 0)
(3 -3.89145e-16 0)
(3 9.74104e-17 0)
(3 5.24117e-16 0)
(3 4.73298e-16 0)
(3 1.21771e-16 0)
(3 5.21331e-16 0)
(3 6.73525e-16 0)
(3 5.12855e-16 0)
(3 1.6085e-16 0)
(3 -6.776e-16 0)
(3 -1.20918e-15 0)
(3 -4.24501e-16 0)
(3 -2.79564e-15 0)
(3 -7.33254e-13 0)
(3 -8.05223e-12 0)
(3 -7.50168e-12 0)
(3 3.98162e-11 0)
(3 3.24738e-08 0)
(3 1.06756e-07 0)
(3 2.94228e-07 0)
(3 1.18209e-06 0)
(2.99967 -0.000687161 0)
(2.99139 -0.0164972 0)
(3 -2.99234e-16 0)
(3 6.62473e-17 0)
(3 9.96457e-16 0)
(3 1.30337e-15 0)
(3 1.4095e-15 0)
(3 1.55802e-15 0)
(3 1.10703e-15 0)
(3 1.10562e-15 0)
(3 2.6557e-16 0)
(3 1.91588e-16 0)
(3 9.18841e-16 0)
(3 -1.28515e-15 0)
(3 -7.23632e-16 0)
(3 -5.53483e-13 0)
(3 -1.0648e-11 0)
(3 -2.95267e-11 0)
(3 2.60317e-11 0)
(3 2.59849e-08 0)
(3 5.56627e-07 0)
(3 4.38022e-07 0)
(3 5.57644e-06 0)
(2.99932 -0.00138649 0)
(2.97943 -0.0373319 0)
(2.85467 -0.228771 0)
(3 8.46957e-16 0)
(3 7.53693e-16 0)
(3 4.65694e-16 0)
(3 4.93522e-18 0)
(3 3.78955e-17 0)
(3 4.31862e-16 0)
(3 5.64134e-16 0)
(3 -1.35267e-16 0)
(3 -2.96348e-16 0)
(3 2.77299e-17 0)
(3 -1.49198e-15 0)
(3 -8.77045e-14 0)
(3 -1.65402e-12 0)
(3 -6.44338e-12 0)
(3 -9.09057e-11 0)
(3 2.42638e-09 0)
(3 1.90793e-08 0)
(3 1.17907e-06 0)
(3 1.1324e-06 0)
(2.99999 1.05307e-06 0)
(2.99755 -0.00425863 0)
(2.96861 -0.0621621 0)
(2.79186 -0.319276 0)
(2.51004 -0.692471 0)
(3 2.02506e-16 0)
(3 -2.98501e-16 0)
(3 -1.10844e-15 0)
(3 -1.28573e-15 0)
(3 -1.42656e-15 0)
(3 -1.98951e-15 0)
(3 -1.36144e-15 0)
(3 -2.41786e-15 0)
(3 -2.65931e-15 0)
(3 -7.29823e-15 0)
(3 -5.47906e-13 0)
(3 -2.55538e-12 0)
(3 -1.7179e-11 0)
(3 -9.02555e-11 0)
(3 2.3056e-08 0)
(3 9.61933e-08 0)
(3 1.61265e-06 0)
(3 4.55612e-06 0)
(2.9999 -0.00019029 0)
(2.99608 -0.0075037 0)
(2.91249 -0.126376 0)
(2.76007 -0.38441 0)
(2.45175 -0.728672 0)
(2.32377 -0.902331 0)
(3 -8.95921e-16 0)
(3 -1.13645e-15 0)
(3 -1.5673e-15 0)
(3 -2.1559e-15 0)
(3 -1.43819e-15 0)
(3 -1.06112e-14 0)
(3 -3.33868e-14 0)
(3 -1.07924e-13 0)
(3 -2.59414e-13 0)
(3 -2.31317e-12 0)
(3 -3.25659e-11 0)
(3 -1.94204e-11 0)
(3 -9.64627e-11 0)
(3 2.55253e-08 0)
(3 8.64381e-07 0)
(3 1.64252e-06 0)
(3.00001 1.05503e-05 0)
(2.9996 -0.000624355 0)
(2.97966 -0.0301393 0)
(2.89703 -0.175457 0)
(2.5776 -0.580953 0)
(2.42261 -0.77486 0)
(2.34609 -0.811646 0)
(2.33042 -0.828059 0)
(3 -1.30776e-15 0)
(3 7.23917e-16 0)
(3 -4.54688e-18 0)
(3 -9.43579e-15 0)
(3 -9.294e-14 0)
(3 -9.0547e-13 0)
(3 -1.38438e-12 0)
(3 -1.4378e-12 0)
(3 -1.49378e-11 0)
(3 -1.54643e-11 0)
(3 -3.39524e-10 0)
(3 5.16493e-09 0)
(3 3.92603e-08 0)
(3 3.72159e-06 0)
(3.00001 2.40766e-06 0)
(3 2.64807e-05 0)
(2.9968 -0.00537346 0)
(2.96694 -0.0557514 0)
(2.72164 -0.36837 0)
(2.55962 -0.603648 0)
(2.39702 -0.779925 0)
(2.31093 -0.862749 0)
(2.29709 -0.862114 0)
(2.30302 -0.849168 0)
(3 -7.39192e-16 0)
(3 4.71209e-15 0)
(3 -1.01887e-13 0)
(3 -1.80414e-12 0)
(3 -7.15645e-12 0)
(3 -7.43145e-12 0)
(3 -7.0257e-12 0)
(3 -2.65881e-12 0)
(3 -1.01772e-10 0)
(3 5.04591e-10 0)
(3 3.75998e-08 0)
(3 5.74522e-07 0)
(3 1.89452e-06 0)
(3.00001 2.65401e-05 0)
(2.99961 -0.000676305 0)
(2.98873 -0.0166013 0)
(2.85342 -0.185287 0)
(2.70643 -0.433222 0)
(2.35974 -0.809215 0)
(2.27902 -0.888422 0)
(2.3021 -0.851991 0)
(2.30984 -0.847502 0)
(2.31525 -0.845151 0)
(2.32412 -0.841219 0)
(3 1.38543e-14 0)
(3 -5.28007e-13 0)
(3 -1.20879e-11 0)
(3 -2.2016e-11 0)
(3 -2.99237e-11 0)
(3 7.49119e-11 0)
(3 5.91458e-10 0)
(3 1.44877e-09 0)
(3 2.10448e-08 0)
(3 4.39662e-07 0)
(3 7.96528e-06 0)
(3 4.91394e-06 0)
(3 2.26704e-05 0)
(2.99562 -0.00597123 0)
(2.9322 -0.0833618 0)
(2.78699 -0.301195 0)
(2.40873 -0.735475 0)
(2.36157 -0.801732 0)
(2.3162 -0.847964 0)
(2.31503 -0.846119 0)
(2.32178 -0.842283 0)
(2.33398 -0.839232 0)
(2.33762 -0.837991 0)
(2.34205 -0.835687 0)
(3 -7.93763e-12 0)
(3 -4.21381e-13 0)
(3 -4.73016e-11 0)
(3 2.7306e-10 0)
(3 -9.47309e-10 0)
(3 6.75672e-08 0)
(3 7.74182e-08 0)
(3 2.02063e-07 0)
(3 6.55963e-06 0)
(3 6.30643e-06 0)
(3.00003 6.55213e-05 0)
(2.99831 -0.00218086 0)
(2.97429 -0.0360536 0)
(2.83163 -0.21605 0)
(2.50933 -0.600886 0)
(2.41786 -0.738916 0)
(2.30297 -0.879443 0)
(2.28866 -0.893902 0)
(2.3031 -0.886141 0)
(2.32551 -0.862402 0)
(2.33787 -0.844937 0)
(2.3431 -0.84581 0)
(2.34642 -0.843164 0)
(2.34862 -0.841801 0)
(3 -3.14592e-10 0)
(3 2.15966e-09 0)
(3 2.62585e-08 0)
(3 7.70326e-08 0)
(3 7.5603e-07 0)
(3 7.73328e-07 0)
(3 2.53547e-06 0)
(3 1.94605e-06 0)
(3.00004 8.28983e-05 0)
(2.99925 -0.000984681 0)
(2.98777 -0.0183947 0)
(2.85408 -0.185081 0)
(2.66417 -0.455773 0)
(2.44888 -0.727291 0)
(2.29176 -0.917335 0)
(2.28306 -0.901104 0)
(2.3082 -0.882037 0)
(2.32137 -0.876295 0)
(2.33917 -0.869141 0)
(2.34939 -0.85452 0)
(2.35674 -0.847314 0)
(2.35622 -0.849737 0)
(2.35599 -0.851709 0)
(2.35207 -0.857296 0)
(3 1.08741e-07 0)
(3 7.31872e-08 0)
(3 3.02497e-07 0)
(3 1.00428e-06 0)
(3.00001 9.14191e-06 0)
(2.99999 -2.01863e-05 0)
(3.00004 9.88104e-05 0)
(2.99927 -0.00129824 0)
(2.99016 -0.0169646 0)
(2.89188 -0.174648 0)
(2.78613 -0.407373 0)
(2.42325 -0.803421 0)
(2.33197 -0.892049 0)
(2.2803 -0.945774 0)
(2.28709 -0.948975 0)
(2.30628 -0.925811 0)
(2.33654 -0.88646 0)
(2.34928 -0.859638 0)
(2.35416 -0.844656 0)
(2.35816 -0.839783 0)
(2.35878 -0.842552 0)
(2.3593 -0.847462 0)
(2.35803 -0.84989 0)
(2.35278 -0.851054 0)
(3 4.61945e-06 0)
(2.99998 3.53295e-06 0)
(3 -8.11888e-05 0)
(2.99994 -1.43374e-05 0)
(2.99853 -0.00203875 0)
(2.99203 -0.0114566 0)
(2.96378 -0.0557468 0)
(2.90189 -0.17017 0)
(2.77243 -0.410969 0)
(2.5759 -0.721362 0)
(2.46757 -0.840757 0)
(2.33695 -0.930052 0)
(2.29102 -0.914326 0)
(2.29582 -0.901153 0)
(2.31221 -0.886423 0)
(2.34793 -0.866443 0)
(2.35824 -0.864456 0)
(2.35921 -0.849271 0)
(2.36089 -0.840097 0)
(2.35913 -0.840057 0)
(2.3578 -0.84034 0)
(2.35435 -0.843161 0)
(2.34925 -0.845259 0)
(2.34489 -0.848701 0)
(2.99888 -0.00106791 0)
(2.98905 -0.0127107 0)
(2.96069 -0.0511246 0)
(2.90493 -0.128594 0)
(2.79752 -0.27923 0)
(2.69317 -0.455079 0)
(2.51757 -0.693703 0)
(2.39821 -0.895669 0)
(2.22082 -1.06846 0)
(2.16209 -1.10753 0)
(2.15039 -1.0338 0)
(2.18691 -0.994587 0)
(2.24655 -0.9494 0)
(2.29871 -0.903707 0)
(2.33521 -0.853653 0)
(2.35227 -0.826372 0)
(2.35452 -0.833605 0)
(2.35482 -0.838291 0)
(2.35433 -0.83884 0)
(2.3534 -0.840373 0)
(2.35301 -0.843243 0)
(2.3478 -0.845503 0)
(2.34268 -0.847301 0)
(2.33787 -0.849647 0)
(2.93413 -0.00920915 0)
(2.84387 -0.080292 0)
(2.75588 -0.147308 0)
(2.67558 -0.227063 0)
(2.56521 -0.364808 0)
(2.51665 -0.434167 0)
(2.41572 -0.546248 0)
(2.35299 -0.62864 0)
(2.31215 -0.723813 0)
(2.25369 -0.798626 0)
(2.24758 -0.852313 0)
(2.28314 -0.885788 0)
(2.32841 -0.895476 0)
(2.33618 -0.888714 0)
(2.34527 -0.88532 0)
(2.34688 -0.866599 0)
(2.34648 -0.858957 0)
(2.34266 -0.851061 0)
(2.34076 -0.847109 0)