/*--------------------------------*- C++ -*----------------------------------*\
  =========                 |
  \\      /  F ield         | OpenFOAM: The Open Source CFD Toolbox
   \\    /   O peration     | Website:  https://openfoam.org
    \\  /    A nd           | Version:  7
     \\/     M anipulation  |
\*---------------------------------------------------------------------------*/
FoamFile
{
    version     2.0;
    format      ascii;
    class       volVectorField;
    location    "0.1";
    object      U;
}
// * * * * * * * * * * * * * * * * * * * * * * * * * * * * * * * * * * * * * //

dimensions      [0 1 -1 0 0 0 0];

internalField   nonuniform List<vector> 
18432
(
(3 6.65154e-18 0)
(3 1.37496e-16 0)
(3 -8.67975e-17 0)
(3 -4.68941e-16 0)
(3 -7.63076e-16 0)
(3 -8.68558e-16 0)
(3 -4.4966e-16 0)
(3 6.21567e-16 0)
(3 9.16759e-16 0)
(3 9.07157e-16 0)
(3 -1.97841e-16 0)
(3 -5.6993e-16 0)
(3 -7.46208e-16 0)
(3 -3.84173e-16 0)
(3 4.30332e-17 0)
(3 6.72204e-16 0)
(3 1.03776e-15 0)
(3 1.58245e-15 0)
(3 1.49741e-15 0)
(3 1.02673e-15 0)
(3 6.96981e-16 0)
(3 1.90587e-16 0)
(3 4.12395e-16 0)
(3 6.32716e-16 0)
(3 2.33942e-16 0)
(3 -2.01466e-16 0)
(3 -7.24369e-16 0)
(3 -7.52747e-16 0)
(3 -4.70838e-16 0)
(3 -7.92873e-16 0)
(3 -1.38299e-15 0)
(3 -3.62663e-16 0)
(3 -3.15275e-16 0)
(3 -5.14294e-16 0)
(3 -9.98846e-16 0)
(3 -8.23206e-16 0)
(3 -5.4981e-16 0)
(3 -3.41429e-17 0)
(3 -3.63495e-16 0)
(3 -9.53259e-16 0)
(3 -4.69177e-16 0)
(3 -1.25161e-16 0)
(3 7.25249e-16 0)
(3 8.39738e-16 0)
(3 7.06962e-16 0)
(3 1.49455e-15 0)
(3 1.61814e-15 0)
(3 8.32527e-16 0)
(3 -9.0598e-18 0)
(3 -2.10057e-16 0)
(3 -7.98604e-16 0)
(3 -1.20292e-15 0)
(3 -1.20251e-15 0)
(3 -9.2739e-16 0)
(3 -9.6825e-17 0)
(3 6.9933e-16 0)
(3 1.08296e-15 0)
(3 1.25018e-15 0)
(3 -4.68311e-16 0)
(3 -1.00361e-15 0)
(3 -4.78632e-16 0)
(3 9.63502e-16 0)
(3 2.06214e-15 0)
(3 2.45875e-15 0)
(3 2.37733e-15 0)
(3 2.40118e-15 0)
(3 1.77827e-15 0)
(3 9.1249e-16 0)
(3 1.04669e-15 0)
(3 4.79584e-16 0)
(3 6.07115e-16 0)
(3 2.02216e-16 0)
(3 -8.00747e-17 0)
(3 6.70805e-17 0)
(3 -4.76189e-16 0)
(3 -8.2332e-16 0)
(3 -9.88068e-16 0)
(3 -1.49238e-15 0)
(3 -1.9563e-15 0)
(3 -1.08494e-15 0)
(3 -1.15981e-15 0)
(3 -1.0961e-15 0)
(3 -1.00999e-15 0)
(3 -4.14535e-16 0)
(3 1.17334e-16 0)
(3 7.97331e-16 0)
(3 -8.46295e-17 0)
(3 -1.01537e-15 0)
(3 -1.92614e-16 0)
(3 3.84702e-16 0)
(3 9.21653e-16 0)
(3 9.14644e-16 0)
(3 1.44799e-15 0)
(3 1.81395e-15 0)
(3 2.21785e-15 0)
(3 1.46865e-15 0)
(3 -2.07235e-16 0)
(3 -5.4845e-16 0)
(3 -7.32098e-16 0)
(3 -7.42192e-16 0)
(3 7.37053e-16 0)
(3 1.13621e-15 0)
(3 9.59757e-16 0)
(3 4.87656e-16 0)
(3 4.08522e-16 0)
(3 2.72804e-16 0)
(3 -4.2014e-16 0)
(3 -3.06823e-16 0)
(3 3.60346e-16 0)
(3 6.87637e-16 0)
(3 9.40854e-16 0)
(3 1.08071e-15 0)
(3 2.70693e-15 0)
(3 2.94016e-15 0)
(3 2.20657e-15 0)
(3 1.31436e-15 0)
(3 1.07648e-15 0)
(3 4.21067e-16 0)
(3 -1.46477e-16 0)
(3 -6.62391e-16 0)
(3 -5.52848e-16 0)
(3 -2.10709e-16 0)
(3 -3.40707e-16 0)
(3 -9.42571e-16 0)
(3 -2.08994e-15 0)
(3 -2.52463e-15 0)
(3 -2.37497e-15 0)
(3 -1.86533e-15 0)
(3 -2.02339e-15 0)
(3 -1.77051e-15 0)
(3 -1.1809e-16 0)
(3 -2.2394e-16 0)
(3 3.68531e-17 0)
(3 1.05702e-15 0)
(3 1.79032e-15 0)
(3 2.17917e-15 0)
(3 -2.58232e-17 0)
(3 3.56892e-16 0)
(3 5.99102e-16 0)
(3 6.02675e-16 0)
(3 9.97057e-16 0)
(3 2.78142e-16 0)
(3 -7.28959e-18 0)
(3 3.30508e-16 0)
(3 -1.85326e-16 0)
(3 -2.93555e-16 0)
(3 1.17432e-17 0)
(3 2.75397e-16 0)
(3 1.15238e-15 0)
(3 1.31509e-15 0)
(3 1.14105e-15 0)
(3 4.13643e-16 0)
(3 1.49628e-16 0)
(3 1.17064e-16 0)
(3 -1.2454e-16 0)
(3 2.07008e-16 0)
(3 3.59202e-16 0)
(3 4.42352e-16 0)
(3 2.78534e-16 0)
(3 1.01575e-15 0)
(3 1.25075e-15 0)
(3 1.07592e-15 0)
(3 2.09809e-15 0)
(3 2.73919e-15 0)
(3 1.86164e-15 0)
(3 2.11487e-16 0)
(3 -1.13897e-15 0)
(3 -9.13854e-16 0)
(3 -5.03882e-16 0)
(3 -2.87126e-16 0)
(3 4.23649e-17 0)
(3 -6.69061e-16 0)
(3 -1.43714e-15 0)
(3 -2.38168e-15 0)
(3 -1.95806e-15 0)
(3 -1.76259e-15 0)
(3 -1.45835e-15 0)
(3 -8.42727e-16 0)
(3 -6.8156e-16 0)
(3 -7.31126e-16 0)
(3 -6.88904e-16 0)
(3 -9.56597e-16 0)
(3 1.30456e-16 0)
(3 1.03476e-15 0)
(3 6.57506e-16 0)
(3 -6.52822e-18 0)
(3 -5.00032e-16 0)
(3 -8.37015e-16 0)
(3 -9.36775e-16 0)
(3 -7.87971e-16 0)
(3 -3.989e-16 0)
(3 -6.98848e-16 0)
(3 -7.70236e-18 0)
(3 -2.14597e-16 0)
(3 7.28126e-17 0)
(3 6.40875e-19 0)
(3 -6.29318e-17 0)
(3 1.767e-16 0)
(3 2.26924e-17 0)
(3 -8.72648e-16 0)
(3 -8.18527e-16 0)
(3 4.32012e-16 0)
(3 6.17648e-16 0)
(3 6.53127e-16 0)
(3 2.62647e-16 0)
(3 7.71722e-16 0)
(3 1.09814e-15 0)
(3 8.60535e-16 0)
(3 2.87366e-16 0)
(3 -4.70908e-16 0)
(3 1.48011e-15 0)
(3 2.93899e-15 0)
(3 2.80865e-15 0)
(3 -3.803e-16 0)
(3 -2.32172e-15 0)
(3 -2.66715e-15 0)
(3 -2.42934e-15 0)
(3 -9.50391e-16 0)
(3 -4.8907e-16 0)
(3 -1.63303e-16 0)
(3 -6.6048e-16 0)
(3 -8.25904e-16 0)
(3 -5.16183e-16 0)
(3 -6.45299e-16 0)
(3 -9.79909e-16 0)
(3 -9.18519e-16 0)
(3 -7.4178e-16 0)
(3 -3.92334e-16 0)
(3 -9.60565e-16 0)
(3 -1.44481e-15 0)
(3 -1.39843e-15 0)
(3 -8.07065e-16 0)
(3 -1.3245e-16 0)
(3 -7.2556e-17 0)
(3 -1.86069e-15 0)
(3 -2.09297e-15 0)
(3 -1.91184e-15 0)
(3 -6.99693e-16 0)
(3 9.3255e-16 0)
(3 2.49854e-16 0)
(3 1.40782e-16 0)
(3 9.15235e-17 0)
(3 -7.69225e-17 0)
(3 -2.31073e-16 0)
(3 -1.56225e-16 0)
(3 -1.89282e-16 0)
(3 -1.60405e-16 0)
(3 -2.94898e-16 0)
(3 1.36154e-15 0)
(3 2.67773e-15 0)
(3 3.24275e-15 0)
(3 1.75938e-15 0)
(3 1.06282e-15 0)
(3 1.13219e-15 0)
(3 1.07486e-15 0)
(3 3.03146e-16 0)
(3 9.81363e-17 0)
(3 8.90166e-16 0)
(3 1.53485e-15 0)
(3 1.45184e-15 0)
(3 -3.52284e-16 0)
(3 -1.42938e-15 0)
(3 -2.31864e-15 0)
(3 -2.8123e-15 0)
(3 -2.82128e-15 0)
(3 -2.04313e-15 0)
(3 -2.22371e-15 0)
(3 -1.89633e-15 0)
(3 -1.89416e-15 0)
(3 -1.53802e-15 0)
(3 -1.62096e-15 0)
(3 -1.06943e-15 0)
(3 -1.0485e-15 0)
(3 -1.40774e-15 0)
(3 -1.19832e-15 0)
(3 -5.58363e-16 0)
(3 3.89478e-16 0)
(3 5.77804e-16 0)
(3 3.67937e-16 0)
(3 1.58772e-16 0)
(3 3.09014e-16 0)
(3 4.87208e-16 0)
(3 6.63228e-17 0)
(3 -2.55253e-16 0)
(3 -7.79985e-16 0)
(3 -4.29337e-16 0)
(3 -2.77587e-16 0)
(3 4.77368e-16 0)
(3 2.39514e-16 0)
(3 9.44199e-16 0)
(3 3.94524e-16 0)
(3 2.05992e-16 0)
(3 -2.37501e-16 0)
(3 -1.88142e-16 0)
(3 3.59543e-16 0)
(3 1.90439e-15 0)
(3 2.95184e-15 0)
(3 3.47147e-15 0)
(3 3.61906e-15 0)
(3 4.29342e-15 0)
(3 3.12211e-15 0)
(3 2.18357e-15 0)
(3 2.31461e-15 0)
(3 2.26594e-15 0)
(3 1.81309e-15 0)
(3 1.89775e-15 0)
(3 2.48067e-15 0)
(3 -1.40322e-16 0)
(3 -1.01418e-15 0)
(3 -1.57941e-16 0)
(3 1.179e-15 0)
(3 6.87334e-16 0)
(3 1.63718e-16 0)
(3 -1.18171e-15 0)
(3 -3.19752e-15 0)
(3 -3.81683e-15 0)
(3 -3.81741e-15 0)
(3 -3.25554e-15 0)
(3 -2.79026e-15 0)
(3 -1.29542e-15 0)
(3 2.618e-17 0)
(3 -4.18146e-17 0)
(3 -1.05274e-15 0)
(3 -1.27827e-15 0)
(3 -1.50369e-15 0)
(3 -1.47668e-15 0)
(3 -1.27322e-15 0)
(3 -8.98528e-16 0)
(3 2.70496e-16 0)
(3 4.23941e-16 0)
(3 7.89945e-16 0)
(3 6.76331e-16 0)
(3 2.91977e-16 0)
(3 -5.40136e-16 0)
(3 -1.7351e-15 0)
(3 -1.54253e-15 0)
(3 1.3493e-17 0)
(3 3.4634e-16 0)
(3 3.14408e-16 0)
(3 2.36682e-16 0)
(3 7.31651e-17 0)
(3 1.65269e-17 0)
(3 -2.8681e-16 0)
(3 -3.96366e-16 0)
(3 2.76289e-17 0)
(3 4.10092e-16 0)
(3 5.46753e-16 0)
(3 7.69207e-16 0)
(3 1.94493e-15 0)
(3 2.09489e-15 0)
(3 1.97104e-15 0)
(3 2.10712e-15 0)
(3 1.67495e-15 0)
(3 8.1801e-16 0)
(3 1.7899e-16 0)
(3 -1.20437e-16 0)
(3 2.68452e-16 0)
(3 5.84809e-16 0)
(3 6.55194e-16 0)
(3 3.03293e-16 0)
(3 -1.42412e-16 0)
(3 -9.47249e-16 0)
(3 -1.37252e-15 0)
(3 -1.37727e-15 0)
(3 -1.56122e-15 0)
(3 -2.00236e-15 0)
(3 -1.61652e-15 0)
(3 -6.5393e-16 0)
(3 -9.52626e-17 0)
(3 2.59087e-16 0)
(3 -3.63392e-16 0)
(3 -1.53559e-15 0)
(3 -1.68548e-15 0)
(3 -1.6194e-15 0)
(3 -9.31139e-16 0)
(3 -9.90614e-16 0)
(3 -7.78452e-16 0)
(3 -3.30132e-16 0)
(3 -2.97215e-17 0)
(3 3.48971e-16 0)
(3 2.19467e-16 0)
(3 -9.90775e-18 0)
(3 -4.66739e-16 0)
(3 -1.06398e-15 0)
(3 -2.95902e-16 0)
(3 -5.2589e-16 0)
(3 -4.63625e-16 0)
(3 -4.9061e-16 0)
(3 -2.3923e-16 0)
(3 -5.51973e-17 0)
(3 -3.44973e-16 0)
(3 -7.03384e-16 0)
(3 -1.86068e-16 0)
(3 7.95758e-18 0)
(3 -4.76324e-16 0)
(3 -1.16138e-15 0)
(3 -8.68425e-16 0)
(3 -2.60511e-16 0)
(3 5.14123e-16 0)
(3 1.25181e-15 0)
(3 1.42353e-15 0)
(3 1.07884e-15 0)
(3 7.49042e-16 0)
(3 1.16889e-15 0)
(3 1.5664e-15 0)
(3 6.49581e-16 0)
(3 -3.8214e-16 0)
(3 -1.19301e-15 0)
(3 -1.29675e-15 0)
(3 -7.22438e-16 0)
(3 1.23974e-15 0)
(3 2.54578e-15 0)
(3 2.17499e-15 0)
(3 1.6591e-15 0)
(3 4.46555e-16 0)
(3 -9.82605e-16 0)
(3 -1.19632e-15 0)
(3 -1.37118e-15 0)
(3 -7.84624e-16 0)
(3 -9.86052e-16 0)
(3 -5.46593e-16 0)
(3 3.74145e-16 0)
(3 4.346e-16 0)
(3 1.82038e-16 0)
(3 -1.6482e-16 0)
(3 -1.89654e-16 0)
(3 -1.92667e-16 0)
(3 -2.24349e-16 0)
(3 -5.96741e-16 0)
(3 -6.65067e-16 0)
(3 -5.64005e-16 0)
(3 -8.00328e-17 0)
(3 -9.72207e-17 0)
(3 -7.21315e-17 0)
(3 1.16579e-16 0)
(3 -1.94349e-17 0)
(3 -4.54466e-16 0)
(3 -3.4684e-16 0)
(3 5.10715e-16 0)
(3 7.41677e-16 0)
(3 2.01497e-16 0)
(3 2.14549e-16 0)
(3 3.95495e-16 0)
(3 4.22365e-16 0)
(3 -1.03049e-15 0)
(3 -1.59358e-15 0)
(3 -9.61273e-16 0)
(3 1.67573e-16 0)
(3 1.05697e-15 0)
(3 1.46749e-15 0)
(3 1.7245e-15 0)
(3 1.55529e-15 0)
(3 1.29069e-15 0)
(3 7.0381e-16 0)
(3 4.54613e-16 0)
(3 2.77321e-16 0)
(3 -7.10713e-17 0)
(3 -6.587e-17 0)
(3 8.26263e-16 0)
(3 1.37027e-15 0)
(3 1.83168e-15 0)
(3 2.25213e-15 0)
(3 7.86188e-16 0)
(3 -8.79679e-16 0)
(3 -2.95536e-15 0)
(3 -2.66071e-15 0)
(3 -1.4483e-15 0)
(3 -5.16299e-16 0)
(3 1.10888e-16 0)
(3 3.79658e-16 0)
(3 4.087e-16 0)
(3 3.29068e-16 0)
(3 4.44362e-16 0)
(3 2.10609e-16 0)
(3 -3.04153e-16 0)
(3 -1.18582e-15 0)
(3 -1.34747e-15 0)
(3 -1.45212e-15 0)
(3 -1.73218e-15 0)
(3 -9.67634e-16 0)
(3 1.28626e-16 0)
(3 5.10811e-16 0)
(3 8.18221e-16 0)
(3 1.26364e-15 0)
(3 6.47381e-16 0)
(3 4.51254e-16 0)
(3 5.93908e-16 0)
(3 6.71451e-16 0)
(3 3.7167e-16 0)
(3 4.7331e-16 0)
(3 7.23731e-16 0)
(3 1.36266e-15 0)
(3 9.6013e-16 0)
(3 -7.55751e-16 0)
(3 -1.65735e-15 0)
(3 -1.64384e-15 0)
(3 -9.76678e-16 0)
(3 -5.32246e-16 0)
(3 -5.722e-16 0)
(3 -4.56457e-16 0)
(3 9.98731e-17 0)
(3 1.62094e-15 0)
(3 2.88415e-15 0)
(3 2.62753e-15 0)
(3 1.77389e-15 0)
(3 9.04624e-16 0)
(3 1.15897e-15 0)
(3 1.36349e-15 0)
(3 4.77159e-16 0)
(3 -2.15591e-16 0)
(3 -2.55442e-16 0)
(3 -2.58704e-16 0)
(3 -2.12267e-16 0)
(3 -2.31071e-16 0)
(3 4.34177e-16 0)
(3 1.38045e-15 0)
(3 1.36818e-15 0)
(3 3.27725e-16 0)
(3 -1.69652e-16 0)
(3 -3.61382e-17 0)
(3 -3.93389e-17 0)
(3 -3.38699e-16 0)
(3 -1.06578e-15 0)
(3 -1.20977e-15 0)
(3 -1.13954e-15 0)
(3 -8.01194e-16 0)
(3 -7.02049e-16 0)
(3 -1.32107e-15 0)
(3 -2.06316e-17 0)
(3 -2.06115e-16 0)
(3 -3.4263e-17 0)
(3 6.22955e-16 0)
(3 1.70165e-15 0)
(3 1.29934e-15 0)
(3 1.26506e-15 0)
(3 1.46939e-15 0)
(3 8.75101e-16 0)
(3 7.26789e-16 0)
(3 7.92857e-16 0)
(3 1.46318e-15 0)
(3 1.45182e-15 0)
(3 7.10119e-16 0)
(3 -4.36294e-16 0)
(3 -1.38618e-15 0)
(3 -9.55055e-16 0)
(3 7.13043e-17 0)
(3 -9.44931e-16 0)
(3 -3.91154e-16 0)
(3 9.80605e-17 0)
(3 1.80514e-16 0)
(3 3.55836e-16 0)
(3 4.63996e-16 0)
(3 1.24548e-15 0)
(3 1.34318e-15 0)
(3 6.00702e-16 0)
(3 2.09214e-16 0)
(3 5.53262e-16 0)
(3 8.32017e-16 0)
(3 5.77166e-16 0)
(3 1.02974e-15 0)
(3 1.46908e-15 0)
(3 1.30375e-15 0)
(3 1.07736e-15 0)
(3 1.239e-15 0)
(3 -4.34737e-16 0)
(3 -1.26613e-15 0)
(3 -1.45588e-15 0)
(3 -2.48794e-16 0)
(3 1.53845e-16 0)
(3 3.0525e-16 0)
(3 3.20353e-16 0)
(3 1.54408e-16 0)
(3 1.61468e-16 0)
(3 -1.4942e-16 0)
(3 -2.75136e-16 0)
(3 -8.41296e-16 0)
(3 8.72302e-18 0)
(3 -5.20224e-17 0)
(3 7.79145e-17 0)
(3 1.48383e-17 0)
(3 -9.0935e-18 0)
(3 3.09303e-16 0)
(3 1.10736e-15 0)
(3 1.14187e-15 0)
(3 9.20975e-16 0)
(3 5.81332e-16 0)
(3 1.08149e-15 0)
(3 1.49361e-15 0)
(3 5.84033e-16 0)
(3 1.52771e-16 0)
(3 -4.08209e-16 0)
(3 -2.56454e-16 0)
(3 -1.93907e-17 0)
(3 3.20213e-16 0)
(3 6.34591e-17 0)
(3 4.37476e-16 0)
(3 3.63844e-16 0)
(3 -1.6083e-15 0)
(3 -1.7137e-15 0)
(3 -1.05853e-15 0)
(3 -5.54279e-16 0)
(3 3.18382e-16 0)
(3 3.42804e-16 0)
(3 3.12333e-17 0)
(3 1.30836e-15 0)
(3 1.78527e-15 0)
(3 2.47881e-15 0)
(3 2.5603e-15 0)
(3 1.81845e-15 0)
(3 1.00637e-15 0)
(3 -2.92591e-16 0)
(3 -6.34934e-16 0)
(3 -4.9284e-16 0)
(3 1.43307e-16 0)
(3 5.04979e-16 0)
(3 1.12078e-16 0)
(3 -1.96536e-16 0)
(3 -9.49904e-17 0)
(3 -1.75949e-16 0)
(3 -5.57439e-16 0)
(3 -6.20667e-16 0)
(3 -6.74466e-16 0)
(3 -7.27575e-16 0)
(3 -5.99316e-16 0)
(3 -4.49195e-17 0)
(3 1.82588e-16 0)
(3 2.67678e-16 0)
(3 4.27723e-17 0)
(3 -4.35725e-16 0)
(3 -1.74311e-16 0)
(3 -5.40391e-17 0)
(3 -6.8668e-17 0)
(3 1.78934e-17 0)
(3 -1.60661e-16 0)
(3 -3.28134e-16 0)
(3 -2.68687e-16 0)
(3 -3.87531e-17 0)
(3 -3.43343e-18 0)
(3 2.28146e-16 0)
(3 3.04771e-16 0)
(3 -4.02453e-17 0)
(3 -4.3385e-16 0)
(3 1.32094e-16 0)
(3 5.51971e-16 0)
(3 9.10393e-16 0)
(3 4.47399e-16 0)
(3 2.76852e-16 0)
(3 4.47632e-16 0)
(3 -1.06611e-16 0)
(3 -6.55867e-16 0)
(3 -3.57023e-16 0)
(3 1.49279e-15 0)
(3 2.47588e-15 0)
(3 2.97474e-15 0)
(3 3.85977e-15 0)
(3 3.13562e-15 0)
(3 2.07729e-15 0)
(3 8.55177e-16 0)
(3 -3.05093e-16 0)
(3 -2.4007e-16 0)
(3 1.11146e-15 0)
(3 2.23763e-15 0)
(3 1.83032e-15 0)
(3 1.0798e-15 0)
(3 2.69009e-16 0)
(3 -6.75665e-16 0)
(3 -1.18604e-15 0)
(3 -2.87806e-16 0)
(3 -3.40758e-16 0)
(3 -1.94662e-16 0)
(3 -6.85188e-17 0)
(3 -7.66425e-17 0)
(3 -8.01852e-19 0)
(3 -3.94141e-17 0)
(3 -1.78258e-16 0)
(3 -2.86356e-16 0)
(3 -1.74262e-16 0)
(3 -4.8442e-16 0)
(3 -1.15017e-15 0)
(3 -4.37322e-16 0)
(3 -4.28519e-16 0)
(3 -7.87451e-16 0)
(3 -1.32199e-15 0)
(3 -1.48345e-15 0)
(3 -9.52956e-16 0)
(3 -6.78903e-16 0)
(3 7.74426e-17 0)
(3 -2.89319e-16 0)
(3 -1.16161e-15 0)
(3 -1.62888e-15 0)
(3 1.36829e-15 0)
(3 2.21498e-15 0)
(3 1.52322e-15 0)
(3 4.55078e-16 0)
(3 -1.07694e-16 0)
(3 -9.79616e-17 0)
(3 -2.12367e-16 0)
(3 -6.42495e-16 0)
(3 -1.29963e-15 0)
(3 5.78475e-18 0)
(3 8.22265e-16 0)
(3 1.19222e-15 0)
(3 2.78663e-15 0)
(3 2.45657e-15 0)
(3 2.23239e-15 0)
(3 1.61809e-15 0)
(3 9.83879e-16 0)
(3 6.1876e-16 0)
(3 1.66081e-15 0)
(3 2.59397e-15 0)
(3 2.59201e-15 0)
(3 2.29368e-15 0)
(3 1.88687e-15 0)
(3 6.09523e-16 0)
(3 5.20313e-16 0)
(3 7.07277e-16 0)
(3 6.60142e-16 0)
(3 5.4668e-16 0)
(3 6.36754e-16 0)
(3 5.23387e-16 0)
(3 1.00161e-16 0)
(3 1.56536e-16 0)
(3 -1.88668e-16 0)
(3 -7.10488e-16 0)
(3 -5.53388e-16 0)
(3 -5.01147e-16 0)
(3 -6.29704e-16 0)
(3 -5.88649e-16 0)
(3 -9.45464e-16 0)
(3 -1.42457e-15 0)
(3 -1.74074e-15 0)
(3 -1.10181e-15 0)
(3 -1.00227e-15 0)
(3 -8.76419e-16 0)
(3 -4.71445e-16 0)
(3 3.80792e-16 0)
(3 1.51298e-17 0)
(3 3.1925e-16 0)
(3 9.43442e-16 0)
(3 8.44303e-16 0)
(3 -8.0658e-16 0)
(3 -8.81427e-16 0)
(3 -7.03933e-16 0)
(3 -1.28405e-17 0)
(3 4.70226e-16 0)
(3 7.79953e-16 0)
(3 -1.68314e-17 0)
(3 -1.73047e-15 0)
(3 -2.65626e-15 0)
(3 -2.97042e-15 0)
(3 -2.47301e-15 0)
(3 -2.43714e-16 0)
(3 2.39361e-16 0)
(3 4.73181e-16 0)
(3 3.9981e-16 0)
(3 2.51304e-16 0)
(3 -1.38775e-16 0)
(3 2.3564e-16 0)
(3 8.56553e-16 0)
(3 1.33255e-15 0)
(3 1.30191e-15 0)
(3 1.17558e-15 0)
(3 2.12631e-15 0)
(3 1.67535e-15 0)
(3 9.72384e-16 0)
(3 8.72852e-16 0)
(3 8.1627e-16 0)
(3 9.57199e-16 0)
(3 1.53913e-17 0)
(3 -7.72096e-17 0)
(3 -4.66861e-16 0)
(3 -4.33335e-16 0)
(3 -2.68731e-16 0)
(3 7.08826e-16 0)
(3 1.11503e-15 0)
(3 -6.31212e-16 0)
(3 -1.91759e-15 0)
(3 -2.07428e-15 0)
(3 -2.11036e-15 0)
(3 -2.05862e-15 0)
(3 -2.36013e-15 0)
(3 -1.0732e-15 0)
(3 -6.89587e-16 0)
(3 -9.87415e-16 0)
(3 -9.67608e-16 0)
(3 -1.18575e-15 0)
(3 -2.24051e-15 0)
(3 -2.48349e-15 0)
(3 -1.0383e-15 0)
(3 1.13571e-15 0)
(3 2.47766e-15 0)
(3 1.89575e-15 0)
(3 1.76049e-15 0)
(3 9.62723e-16 0)
(3 -3.38236e-16 0)
(3 -2.01813e-15 0)
(3 -2.75981e-15 0)
(3 -2.78463e-15 0)
(3 -2.84978e-15 0)
(3 -1.6215e-15 0)
(3 -9.79181e-16 0)
(3 -5.57938e-16 0)
(3 2.4684e-16 0)
(3 6.05402e-16 0)
(3 6.14801e-16 0)
(3 3.45487e-16 0)
(3 -8.31866e-18 0)
(3 -4.21832e-16 0)
(3 2.57816e-16 0)
(3 9.69616e-16 0)
(3 1.88502e-15 0)
(3 2.13913e-15 0)
(3 1.80685e-15 0)
(3 1.82848e-15 0)
(3 1.22444e-15 0)
(3 9.48281e-16 0)
(3 5.68349e-17 0)
(3 5.03369e-17 0)
(3 4.15261e-17 0)
(3 1.30929e-16 0)
(3 3.28171e-16 0)
(3 6.0211e-16 0)
(3 4.33604e-16 0)
(3 1.54941e-16 0)
(3 -1.54354e-15 0)
(3 -2.76666e-15 0)
(3 -3.12571e-15 0)
(3 -3.23447e-15 0)
(3 -2.34214e-15 0)
(3 -9.30946e-16 0)
(3 -9.77955e-16 0)
(3 -1.11571e-15 0)
(3 -6.78675e-16 0)
(3 -1.50963e-15 0)
(3 -2.84255e-15 0)
(3 -2.22097e-15 0)
(3 -1.52945e-15 0)
(3 -5.38568e-16 0)
(3 -7.06501e-17 0)
(3 -1.65924e-16 0)
(3 6.23129e-17 0)
(3 -5.19215e-16 0)
(3 -1.21563e-15 0)
(3 -9.27428e-16 0)
(3 -1.17985e-16 0)
(3 1.40049e-17 0)
(3 -3.7926e-16 0)
(3 -8.90319e-16 0)
(3 -7.77044e-16 0)
(3 -3.33972e-16 0)
(3 3.13333e-16 0)
(3 1.02464e-15 0)
(3 1.00909e-15 0)
(3 7.03651e-16 0)
(3 -1.03686e-15 0)
(3 -1.46983e-15 0)
(3 -1.24289e-15 0)
(3 -6.86285e-16 0)
(3 -5.54445e-16 0)
(3 1.91281e-16 0)
(3 1.66032e-15 0)
(3 1.41428e-15 0)
(3 8.19551e-16 0)
(3 4.77676e-16 0)
(3 1.63469e-18 0)
(3 3.97768e-16 0)
(3 7.84241e-16 0)
(3 8.11619e-16 0)
(3 5.96717e-16 0)
(3 -2.1713e-16 0)
(3 -6.08195e-16 0)
(3 -3.26192e-16 0)
(3 -2.75811e-16 0)
(3 -7.82233e-16 0)
(3 -2.26703e-15 0)
(3 -2.05868e-15 0)
(3 -1.88777e-15 0)
(3 -1.82792e-15 0)
(3 -2.00315e-15 0)
(3 -1.86034e-15 0)
(3 -1.75812e-15 0)
(3 -1.73817e-15 0)
(3 -1.33304e-15 0)
(3 -1.44588e-15 0)
(3 -7.02949e-16 0)
(3 -8.60341e-16 0)
(3 -1.69007e-15 0)
(3 -1.37043e-15 0)
(3 -1.61188e-15 0)
(3 -5.96858e-16 0)
(3 5.0513e-16 0)
(3 1.03895e-15 0)
(3 1.46241e-15 0)
(3 1.09897e-15 0)
(3 -3.60124e-16 0)
(3 -1.05975e-15 0)
(3 -1.08824e-15 0)
(3 -6.58346e-16 0)
(3 8.27228e-17 0)
(3 2.14457e-16 0)
(3 -1.74886e-16 0)
(3 -1.02026e-15 0)
(3 -6.84962e-16 0)
(3 -5.68163e-16 0)
(3 -4.63862e-16 0)
(3 -1.19951e-16 0)
(3 8.69122e-17 0)
(3 6.6596e-16 0)
(3 1.23436e-15 0)
(3 1.03627e-15 0)
(3 1.16253e-15 0)
(3 1.39332e-15 0)
(3 1.07488e-16 0)
(3 -2.67469e-18 0)
(3 1.41701e-16 0)
(3 3.43619e-16 0)
(3 5.40041e-17 0)
(3 -7.68538e-16 0)
(3 -1.17921e-15 0)
(3 -3.54982e-16 0)
(3 8.2705e-16 0)
(3 8.72017e-16 0)
(3 3.06605e-16 0)
(3 -7.8887e-16 0)
(3 -1.31276e-15 0)
(3 -9.31397e-16 0)
(3 -9.6566e-16 0)
(3 -1.79511e-15 0)
(3 -2.50727e-15 0)
(3 -2.10798e-15 0)
(3 -1.28667e-15 0)
(3 -5.71606e-16 0)
(3 -1.2175e-15 0)
(3 -2.67779e-15 0)
(3 -2.75664e-15 0)
(3 -1.69006e-15 0)
(3 -1.01988e-15 0)
(3 -5.67762e-16 0)
(3 5.57962e-16 0)
(3 1.18398e-15 0)
(3 1.15764e-15 0)
(3 9.60714e-16 0)
(3 1.83405e-16 0)
(3 -6.63511e-16 0)
(3 -5.47183e-16 0)
(3 8.9333e-17 0)
(3 8.42779e-16 0)
(3 6.67816e-16 0)
(3 3.18272e-17 0)
(3 2.03538e-16 0)
(3 8.68018e-16 0)
(3 1.49128e-15 0)
(3 1.63157e-15 0)
(3 2.21232e-15 0)
(3 2.49161e-15 0)
(3 1.62795e-15 0)
(3 8.24846e-16 0)
(3 1.15156e-15 0)
(3 1.94731e-15 0)
(3 1.39116e-15 0)
(3 -2.22365e-17 0)
(3 -2.17205e-17 0)
(3 -2.2056e-16 0)
(3 -7.34705e-16 0)
(3 -3.95262e-16 0)
(3 -4.38081e-17 0)
(3 1.60054e-16 0)
(3 8.14448e-17 0)
(3 1.73327e-17 0)
(3 -2.86905e-16 0)
(3 -4.36882e-16 0)
(3 -1.4057e-15 0)
(3 -1.04427e-15 0)
(3 3.84703e-16 0)
(3 1.82098e-15 0)
(3 9.83532e-16 0)
(3 1.75118e-16 0)
(3 1.72079e-17 0)
(3 -2.15967e-16 0)
(3 -9.51348e-16 0)
(3 -1.47233e-15 0)
(3 -1.68882e-15 0)
(3 -1.41995e-15 0)
(3 -7.41994e-16 0)
(3 -3.43339e-16 0)
(3 -2.00347e-16 0)
(3 4.80432e-16 0)
(3 8.31799e-16 0)
(3 9.40814e-16 0)
(3 6.20948e-16 0)
(3 2.09934e-15 0)
(3 2.34712e-15 0)
(3 2.10802e-15 0)
(3 1.57797e-15 0)
(3 1.64323e-15 0)
(3 8.87975e-16 0)
(3 6.57243e-16 0)
(3 1.01066e-15 0)
(3 1.01849e-15 0)
(3 2.0536e-15 0)
(3 1.67203e-15 0)
(3 1.05964e-15 0)
(3 4.28065e-16 0)
(3 -2.51686e-16 0)
(3 -7.70101e-17 0)
(3 2.68377e-16 0)
(3 2.68742e-16 0)
(3 -3.37784e-16 0)
(3 -4.47015e-17 0)
(3 1.42914e-17 0)
(3 -1.82912e-17 0)
(3 -1.52667e-16 0)
(3 2.66265e-16 0)
(3 8.37878e-16 0)
(3 6.96294e-16 0)
(3 -3.23214e-16 0)
(3 -7.51756e-16 0)
(3 -7.26501e-16 0)
(3 -4.72205e-16 0)
(3 -1.37007e-15 0)
(3 -3.8777e-16 0)
(3 5.82864e-16 0)
(3 2.46944e-15 0)
(3 3.1503e-15 0)
(3 2.57163e-15 0)
(3 1.13555e-15 0)
(3 1.34279e-15 0)
(3 1.39227e-15 0)
(3 1.86692e-16 0)
(3 3.53534e-16 0)
(3 5.44093e-16 0)
(3 -3.37303e-16 0)
(3 -6.52716e-16 0)
(3 -4.25486e-16 0)
(3 6.25233e-18 0)
(3 6.88963e-16 0)
(3 1.36465e-15 0)
(3 1.0829e-15 0)
(3 2.9705e-15 0)
(3 3.89151e-15 0)
(3 2.38258e-15 0)
(3 4.4149e-16 0)
(3 -3.03966e-16 0)
(3 -7.32132e-16 0)
(3 -4.71512e-16 0)
(3 2.62944e-16 0)
(3 5.38434e-16 0)
(3 1.21901e-16 0)
(3 -4.60709e-17 0)
(3 -2.52259e-16 0)
(3 -6.53155e-16 0)
(3 -6.56827e-16 0)
(3 -4.46937e-16 0)
(3 -6.30625e-16 0)
(3 -8.8739e-16 0)
(3 -6.66898e-16 0)
(3 1.05328e-18 0)
(3 -1.72841e-16 0)
(3 7.44324e-17 0)
(3 2.05086e-16 0)
(3 2.69485e-16 0)
(3 2.28173e-16 0)
(3 -7.23559e-16 0)
(3 -1.32785e-15 0)
(3 -1.37319e-15 0)
(3 -1.21766e-15 0)
(3 -9.20957e-16 0)
(3 2.81076e-16 0)
(3 6.8436e-16 0)
(3 1.22895e-15 0)
(3 1.41909e-15 0)
(3 2.30366e-15 0)
(3 1.28918e-15 0)
(3 2.78958e-16 0)
(3 7.28557e-16 0)
(3 1.52704e-15 0)
(3 1.31131e-15 0)
(3 1.5679e-15 0)
(3 1.74208e-15 0)
(3 3.70189e-16 0)
(3 3.84691e-16 0)
(3 5.41832e-17 0)
(3 -7.64579e-16 0)
(3 -4.8744e-16 0)
(3 2.55061e-16 0)
(3 6.73351e-16 0)
(3 6.19328e-16 0)
(3 8.20894e-16 0)
(3 -7.53317e-18 0)
(3 -8.12954e-16 0)
(3 -1.77182e-15 0)
(3 -1.7082e-15 0)
(3 -5.03961e-16 0)
(3 -4.50624e-16 0)
(3 -3.56447e-16 0)
(3 -7.00555e-16 0)
(3 -1.24897e-15 0)
(3 -1.07162e-15 0)
(3 -7.9276e-16 0)
(3 -5.34069e-16 0)
(3 -6.75549e-16 0)
(3 -1.00841e-15 0)
(3 -1.33176e-15 0)
(3 -1.73461e-15 0)
(3 -2.26421e-16 0)
(3 -7.23056e-16 0)
(3 -6.26434e-16 0)
(3 -2.85803e-16 0)
(3 -2.92904e-16 0)
(3 -6.6665e-16 0)
(3 -6.40109e-16 0)
(3 -8.60184e-16 0)
(3 -9.3593e-16 0)
(3 -4.61584e-16 0)
(3 -4.68464e-16 0)
(3 1.30166e-16 0)
(3 1.45698e-16 0)
(3 3.98121e-16 0)
(3 -1.09332e-16 0)
(3 4.49259e-16 0)
(3 -4.65702e-16 0)
(3 -7.84148e-16 0)
(3 -3.48484e-16 0)
(3 4.46089e-16 0)
(3 1.22984e-15 0)
(3 1.18163e-15 0)
(3 6.93824e-16 0)
(3 1.16139e-15 0)
(3 1.9786e-15 0)
(3 1.46548e-15 0)
(3 -6.41385e-16 0)
(3 -1.42855e-15 0)
(3 -2.30297e-15 0)
(3 -2.11926e-15 0)
(3 -1.36269e-15 0)
(3 -1.00725e-15 0)
(3 -1.01635e-15 0)
(3 -1.49406e-15 0)
(3 -1.60029e-15 0)
(3 -2.63371e-16 0)
(3 4.39913e-16 0)
(3 -2.49042e-16 0)
(3 -2.32148e-16 0)
(3 -3.76562e-16 0)
(3 -1.46822e-15 0)
(3 -1.68854e-15 0)
(3 -1.44652e-15 0)
(3 -6.36504e-16 0)
(3 -1.90071e-16 0)
(3 -5.40609e-16 0)
(3 -6.63831e-16 0)
(3 -1.02331e-15 0)
(3 8.82864e-17 0)
(3 1.44184e-16 0)
(3 -2.34086e-16 0)
(3 -1.31548e-16 0)
(3 -5.53746e-16 0)
(3 -6.92381e-16 0)
(3 -4.34896e-16 0)
(3 -2.84903e-16 0)
(3 -5.07371e-17 0)
(3 2.68997e-16 0)
(3 7.08591e-16 0)
(3 3.95761e-16 0)
(3 5.39152e-16 0)
(3 1.75205e-16 0)
(3 5.77365e-17 0)
(3 3.10032e-16 0)
(3 6.23317e-16 0)
(3 4.78483e-16 0)
(3 6.0105e-16 0)
(3 4.87647e-16 0)
(3 6.58159e-16 0)
(3 9.41305e-16 0)
(3 4.37171e-16 0)
(3 4.11901e-16 0)
(3 6.94319e-16 0)
(3 2.73877e-16 0)
(3 -4.88512e-16 0)
(3 -7.41917e-16 0)
(3 -9.53266e-16 0)
(3 -1.02026e-15 0)
(3 -1.71911e-15 0)
(3 -1.55446e-15 0)
(3 -3.6474e-17 0)
(3 6.06517e-16 0)
(3 1.23045e-15 0)
(3 1.26925e-15 0)
(3 8.50607e-16 0)
(3 2.21945e-16 0)
(3 -4.35042e-16 0)
(3 -2.28401e-16 0)
(3 -2.52172e-16 0)
(3 -4.95336e-16 0)
(3 3.27229e-16 0)
(3 4.64315e-16 0)
(3 3.45653e-16 0)
(3 2.58806e-16 0)
(3 -6.05533e-18 0)
(3 -3.1917e-16 0)
(3 1.87844e-16 0)
(3 6.17812e-16 0)
(3 8.8496e-16 0)
(3 3.84459e-16 0)
(3 -5.25705e-16 0)
(3 -3.95572e-16 0)
(3 1.63849e-17 0)
(3 7.81973e-16 0)
(3 6.42795e-16 0)
(3 2.92211e-16 0)
(3 5.55441e-16 0)
(3 4.78828e-16 0)
(3 8.62274e-16 0)
(3 9.15517e-16 0)
(3 6.2078e-16 0)
(3 1.05142e-15 0)
(3 1.29223e-15 0)
(3 2.14595e-16 0)
(3 2.42303e-16 0)
(3 1.55266e-16 0)
(3 5.77825e-16 0)
(3 7.07731e-16 0)
(3 5.48509e-16 0)
(3 -3.6477e-16 0)
(3 -2.01851e-15 0)
(3 -1.72578e-15 0)
(3 -4.87269e-16 0)
(3 -1.60843e-16 0)
(3 3.98869e-16 0)
(3 3.28848e-16 0)
(3 -1.04487e-15 0)
(3 -1.16747e-15 0)
(3 -7.32167e-16 0)
(3 1.55077e-15 0)
(3 3.02726e-15 0)
(3 2.7807e-15 0)
(3 1.82014e-15 0)
(3 1.00584e-15 0)
(3 -4.72124e-16 0)
(3 -7.59506e-16 0)
(3 -1.74544e-16 0)
(3 -3.2348e-16 0)
(3 -5.52369e-16 0)
(3 -6.39588e-16 0)
(3 -1.11963e-16 0)
(3 -9.31976e-16 0)
(3 -1.09992e-15 0)
(3 -1.12307e-15 0)
(3 7.82679e-18 0)
(3 -7.9868e-17 0)
(3 8.0513e-17 0)
(3 4.14001e-16 0)
(3 3.67275e-16 0)
(3 1.07992e-16 0)
(3 1.1969e-16 0)
(3 6.34118e-16 0)
(3 5.25506e-16 0)
(3 2.88773e-16 0)
(3 2.74562e-16 0)
(3 1.26346e-15 0)
(3 7.98701e-16 0)
(3 2.84416e-16 0)
(3 -3.0227e-16 0)
(3 -1.9037e-16 0)
(3 1.59589e-16 0)
(3 4.94097e-16 0)
(3 -2.94606e-16 0)
(3 -7.01093e-16 0)
(3 -6.83396e-16 0)
(3 2.08688e-16 0)
(3 5.14407e-16 0)
(3 1.79713e-16 0)
(3 -1.33891e-15 0)
(3 -1.40818e-15 0)
(3 -2.61883e-16 0)
(3 1.07956e-15 0)
(3 9.6455e-16 0)
(3 5.56998e-16 0)
(3 1.80251e-16 0)
(3 1.61091e-16 0)
(3 -1.06755e-16 0)
(3 -8.11575e-18 0)
(3 9.22883e-16 0)
(3 2.06686e-15 0)
(3 1.78833e-15 0)
(3 8.40651e-16 0)
(3 4.28209e-16 0)
(3 -1.54513e-15 0)
(3 -2.33986e-16 0)
(3 -6.1187e-16 0)
(3 -1.17436e-15 0)
(3 -1.13218e-15 0)
(3 -5.38301e-16 0)
(3 -2.20198e-16 0)
(3 -1.90021e-16 0)
(3 -1.13964e-16 0)
(3 -8.39971e-17 0)
(3 -2.1172e-16 0)
(3 -3.963e-16 0)
(3 -3.94027e-16 0)
(3 1.4603e-16 0)
(3 1.96588e-16 0)
(3 -5.23238e-17 0)
(3 -6.36947e-16 0)
(3 -1.41168e-16 0)
(3 7.36019e-16 0)
(3 1.52559e-15 0)
(3 1.10775e-15 0)
(3 4.96968e-16 0)
(3 -9.96418e-16 0)
(3 -1.82009e-15 0)
(3 -1.54102e-15 0)
(3 -5.94369e-16 0)
(3 5.56409e-16 0)
(3 4.33067e-16 0)
(3 3.27347e-17 0)
(3 -6.54095e-16 0)
(3 5.95177e-16 0)
(3 1.38396e-15 0)
(3 1.16807e-15 0)
(3 -8.0359e-17 0)
(3 -3.44342e-16 0)
(3 6.24468e-16 0)
(3 1.6557e-15 0)
(3 1.67251e-15 0)
(3 1.64588e-15 0)
(3 1.45217e-15 0)
(3 4.29206e-16 0)
(3 -5.42173e-16 0)
(3 -7.50349e-16 0)
(3 -4.29373e-16 0)
(3 -1.33981e-16 0)
(3 -1.22604e-16 0)
(3 -3.8172e-16 0)
(3 -4.80571e-16 0)
(3 -7.94458e-16 0)
(3 -1.21135e-15 0)
(3 -7.0323e-16 0)
(3 -2.06475e-16 0)
(3 -4.74917e-16 0)
(3 -7.94077e-16 0)
(3 -1.40097e-16 0)
(3 1.78933e-16 0)
(3 2.25932e-16 0)
(3 -3.86323e-16 0)
(3 -6.07273e-16 0)
(3 -5.31667e-16 0)
(3 -2.69143e-16 0)
(3 -1.45335e-16 0)
(3 -2.04448e-16 0)
(3 -2.78547e-16 0)
(3 4.54381e-18 0)
(3 8.58372e-16 0)
(3 1.60882e-15 0)
(3 1.48425e-15 0)
(3 1.15545e-15 0)
(3 7.99275e-16 0)
(3 4.66443e-16 0)
(3 -3.05275e-16 0)
(3 -4.94858e-16 0)
(3 -1.27047e-16 0)
(3 2.74074e-16 0)
(3 1.0927e-15 0)
(3 1.15447e-15 0)
(3 9.822e-16 0)
(3 6.96913e-16 0)
(3 5.03508e-16 0)
(3 1.36152e-17 0)
(3 -8.70266e-16 0)
(3 -1.2238e-15 0)
(3 -1.07742e-15 0)
(3 1.13874e-15 0)
(3 1.95755e-15 0)
(3 2.27299e-15 0)
(3 1.08554e-15 0)
(3 3.83121e-16 0)
(3 -3.69528e-16 0)
(3 -9.7738e-16 0)
(3 -1.41536e-15 0)
(3 -2.48395e-15 0)
(3 -2.13125e-15 0)
(3 -8.6704e-16 0)
(3 -6.14142e-16 0)
(3 5.53768e-16 0)
(3 -3.73742e-16 0)
(3 -5.33861e-16 0)
(3 -2.97375e-16 0)
(3 -2.93495e-16 0)
(3 -1.56156e-15 0)
(3 -1.21224e-15 0)
(3 1.85347e-16 0)
(3 2.5104e-16 0)
(3 -1.72246e-16 0)
(3 -8.16591e-16 0)
(3 -4.70855e-16 0)
(3 6.63379e-17 0)
(3 4.54884e-17 0)
(3 -3.33822e-16 0)
(3 -4.24168e-16 0)
(3 -1.4814e-16 0)
(3 1.09649e-16 0)
(3 4.15788e-16 0)
(3 6.3184e-16 0)
(3 5.11441e-16 0)
(3 3.62417e-16 0)
(3 1.01217e-16 0)
(3 1.21476e-15 0)
(3 1.53758e-15 0)
(3 1.98641e-15 0)
(3 2.29767e-15 0)
(3 1.56654e-15 0)
(3 1.78087e-15 0)
(3 2.81223e-15 0)
(3 2.19984e-15 0)
(3 1.09667e-15 0)
(3 -3.548e-16 0)
(3 -8.49258e-16 0)
(3 -9.52048e-16 0)
(3 4.61132e-16 0)
(3 1.30755e-15 0)
(3 1.13967e-15 0)
(3 9.92657e-16 0)
(3 1.14099e-15 0)
(3 1.21387e-15 0)
(3 1.36012e-16 0)
(3 -1.14387e-15 0)
(3 -1.87387e-15 0)
(3 -2.23228e-15 0)
(3 -1.29402e-15 0)
(3 -6.31883e-16 0)
(3 9.02245e-18 0)
(3 8.16976e-16 0)
(3 7.46958e-16 0)
(3 6.40343e-16 0)
(3 -6.49416e-17 0)
(3 -4.24746e-16 0)
(3 -2.86665e-16 0)
(3 -4.6151e-16 0)
(3 5.5881e-17 0)
(3 7.74878e-17 0)
(3 1.9126e-16 0)
(3 1.43501e-16 0)
(3 -2.5535e-16 0)
(3 -6.84603e-16 0)
(3 -5.9678e-16 0)
(3 -3.78584e-16 0)
(3 -2.49984e-16 0)
(3 -4.60381e-16 0)
(3 -6.55269e-16 0)
(3 -1.04213e-15 0)
(3 -1.3867e-15 0)
(3 -1.15698e-15 0)
(3 -7.30007e-16 0)
(3 1.05412e-16 0)
(3 9.89704e-16 0)
(3 1.22495e-15 0)
(3 1.12884e-15 0)
(3 1.43255e-16 0)
(3 2.32934e-16 0)
(3 7.45767e-16 0)
(3 2.03454e-15 0)
(3 2.7414e-15 0)
(3 3.11646e-15 0)
(3 3.20259e-15 0)
(3 2.72773e-15 0)
(3 2.22933e-15 0)
(3 1.41525e-15 0)
(3 1.08828e-15 0)
(3 8.43816e-16 0)
(3 1.00996e-15 0)
(3 2.05588e-15 0)
(3 2.43317e-15 0)
(3 1.30106e-15 0)
(3 4.05362e-16 0)
(3 -7.07327e-16 0)
(3 -9.11981e-16 0)
(3 -6.19847e-16 0)
(3 3.04165e-16 0)
(3 5.78636e-16 0)
(3 4.74386e-16 0)
(3 8.50642e-16 0)
(3 1.27211e-15 0)
(3 9.82474e-16 0)
(3 6.04733e-16 0)
(3 5.07163e-16 0)
(3 5.73437e-16 0)
(3 -5.99029e-16 0)
(3 -1.33369e-15 0)
(3 -2.5473e-17 0)
(3 -7.63369e-17 0)
(3 -4.37639e-16 0)
(3 -1.14842e-15 0)
(3 -1.03173e-15 0)
(3 -1.02052e-15 0)
(3 -7.85344e-16 0)
(3 -4.16986e-16 0)
(3 -1.35399e-15 0)
(3 -2.04583e-15 0)
(3 -1.60768e-15 0)
(3 -3.84861e-16 0)
(3 1.08146e-15 0)
(3 1.75916e-15 0)
(3 1.78237e-15 0)
(3 1.86992e-15 0)
(3 1.02964e-15 0)
(3 9.04191e-16 0)
(3 1.04737e-15 0)
(3 2.98008e-16 0)
(3 -4.35913e-16 0)
(3 -4.24426e-16 0)
(3 -4.93071e-16 0)
(3 -3.93463e-16 0)
(3 4.49842e-17 0)
(3 1.3924e-17 0)
(3 -2.69979e-16 0)
(3 -2.38629e-16 0)
(3 1.59108e-16 0)
(3 1.44244e-15 0)
(3 1.81247e-15 0)
(3 1.06677e-15 0)
(3 4.08106e-16 0)
(3 -3.96395e-17 0)
(3 -4.45215e-16 0)
(3 -1.32984e-15 0)
(3 -2.51808e-15 0)
(3 -9.75945e-16 0)
(3 -7.1539e-16 0)
(3 -2.29195e-16 0)
(3 1.20461e-15 0)
(3 1.91461e-15 0)
(3 2.77192e-15 0)
(3 1.96807e-15 0)
(3 -1.97439e-16 0)
(3 1.37134e-17 0)
(3 1.40518e-16 0)
(3 3.40475e-16 0)
(3 -5.48403e-17 0)
(3 -1.19238e-16 0)
(3 2.34816e-17 0)
(3 2.11255e-16 0)
(3 1.18343e-16 0)
(3 -4.31137e-16 0)
(3 -5.14198e-16 0)
(3 -4.83522e-16 0)
(3 -8.85407e-16 0)
(3 -1.29882e-15 0)
(3 -8.09708e-16 0)
(3 -5.86837e-16 0)
(3 8.79371e-19 0)
(3 4.06272e-16 0)
(3 9.13612e-16 0)
(3 8.13884e-16 0)
(3 5.19809e-16 0)
(3 8.71519e-16 0)
(3 5.90217e-16 0)
(3 2.23039e-16 0)
(3 -1.12765e-15 0)
(3 -2.67035e-15 0)
(3 -1.93269e-15 0)
(3 -1.07827e-15 0)
(3 -3.2827e-16 0)
(3 9.35145e-16 0)
(3 1.0436e-15 0)
(3 3.51451e-16 0)
(3 3.92757e-16 0)
(3 2.25574e-17 0)
(3 -7.68405e-16 0)
(3 -1.39781e-15 0)
(3 -1.25477e-15 0)
(3 -1.23101e-15 0)
(3 -6.98208e-16 0)
(3 -1.18131e-15 0)
(3 -1.61792e-15 0)
(3 1.60766e-16 0)
(3 9.44089e-16 0)
(3 1.31413e-15 0)
(3 1.59027e-15 0)
(3 1.59121e-15 0)
(3 1.28869e-15 0)
(3 1.32896e-15 0)
(3 1.36179e-15 0)
(3 5.60702e-16 0)
(3 8.07893e-16 0)
(3 1.68215e-15 0)
(3 3.26106e-16 0)
(3 8.3929e-16 0)
(3 1.01276e-15 0)
(3 9.43615e-16 0)
(3 5.23074e-16 0)
(3 8.27551e-16 0)
(3 5.48984e-16 0)
(3 1.34674e-16 0)
(3 -1.59959e-16 0)