/*--------------------------------*- C++ -*----------------------------------*\
  =========                 |
  \\      /  F ield         | OpenFOAM: The Open Source CFD Toolbox
   \\    /   O peration     | Website:  https://openfoam.org
    \\  /    A nd           | Version:  7
     \\/     M anipulation  |
\*---------------------------------------------------------------------------*/
FoamFile
{
    version     2.0;
    format      ascii;
    class       volVectorField;
    location    "3.8";
    object      U;
}
// * * * * * * * * * * * * * * * * * * * * * * * * * * * * * * * * * * * * * //

dimensions      [0 1 -1 0 0 0 0];

internalField   nonuniform List<vector> 
73728
(
(3 2.48383e-18 0)
(3 3.36697e-16 0)
(3 3.79406e-16 0)
(3 -4.3517e-19 0)
(3 2.34293e-16 0)
(3 2.06242e-16 0)
(3 -1.09593e-16 0)
(3 2.5041e-16 0)
(3 8.32469e-16 0)
(3 1.10403e-15 0)
(3 9.88718e-16 0)
(3 9.14647e-16 0)
(3 1.03073e-15 0)
(3 8.99401e-16 0)
(3 2.41225e-16 0)
(3 8.46766e-17 0)
(3 8.96009e-17 0)
(3 -3.55739e-16 0)
(3 -4.036e-16 0)
(3 -2.38986e-16 0)
(3 4.4206e-16 0)
(3 1.3437e-15 0)
(3 1.63404e-15 0)
(3 1.06e-15 0)
(3 1.12711e-16 0)
(3 4.22491e-17 0)
(3 4.14264e-16 0)
(3 7.40515e-16 0)
(3 1.12878e-15 0)
(3 1.09621e-15 0)
(3 1.05369e-15 0)
(3 4.34434e-16 0)
(3 1.10347e-16 0)
(3 9.05539e-17 0)
(3 3.39831e-16 0)
(3 6.81482e-17 0)
(3 -7.43852e-17 0)
(3 -2.88178e-16 0)
(3 -3.84453e-17 0)
(3 -2.42724e-16 0)
(3 -4.4876e-16 0)
(3 -6.77844e-16 0)
(3 -3.28192e-16 0)
(3 1.79493e-16 0)
(3 1.64602e-17 0)
(3 -4.13539e-16 0)
(3 -8.75342e-16 0)
(3 -1.20896e-15 0)
(3 -7.78456e-16 0)
(3 -2.46639e-16 0)
(3 -1.59447e-17 0)
(3 -1.63035e-18 0)
(3 -8.32677e-17 0)
(3 9.44511e-18 0)
(3 9.92199e-17 0)
(3 3.29195e-16 0)
(3 1.37025e-16 0)
(3 -3.41401e-16 0)
(3 -7.90657e-17 0)
(3 -1.97094e-16 0)
(3 -4.33654e-16 0)
(3 1.1449e-16 0)
(3 6.36751e-16 0)
(3 7.55822e-16 0)
(3 -5.95493e-17 0)
(3 -6.29879e-16 0)
(3 -5.53134e-16 0)
(3 1.90476e-16 0)
(3 3.07653e-16 0)
(3 -9.22765e-17 0)
(3 -8.90566e-16 0)
(3 -8.76153e-16 0)
(3 -4.69413e-16 0)
(3 -3.09421e-16 0)
(3 -3.98011e-16 0)
(3 -8.83714e-16 0)
(3 -1.13133e-15 0)
(3 -1.30653e-15 0)
(3 -1.80453e-15 0)
(3 -1.52051e-15 0)
(3 -1.32579e-15 0)
(3 -1.10889e-15 0)
(3 -2.89423e-16 0)
(3 4.32452e-18 0)
(3 4.63331e-16 0)
(3 8.78987e-16 0)
(3 9.87195e-16 0)
(3 7.73548e-16 0)
(3 3.87239e-16 0)
(3 -1.53625e-16 0)
(3 -5.9479e-18 0)
(3 1.24635e-15 0)
(3 1.36152e-15 0)
(3 1.21859e-15 0)
(3 7.96677e-16 0)
(3 8.64389e-16 0)
(3 1.70472e-16 0)
(3 6.31091e-16 0)
(3 1.06351e-15 0)
(3 6.61024e-16 0)
(3 1.11325e-15 0)
(3 1.2095e-15 0)
(3 1.18208e-15 0)
(3 6.93501e-16 0)
(3 5.02648e-16 0)
(3 1.19256e-15 0)
(3 1.31693e-15 0)
(3 1.26988e-15 0)
(3 8.78412e-16 0)
(3 3.2304e-16 0)
(3 -4.49179e-17 0)
(3 -7.60503e-16 0)
(3 -1.09442e-15 0)
(3 -1.00403e-15 0)
(3 -4.89365e-16 0)
(3 1.08931e-16 0)
(3 7.40931e-16 0)
(3 1.99971e-15 0)
(3 2.48827e-15 0)
(3 2.25472e-15 0)
(3 8.64357e-16 0)
(3 4.31026e-16 0)
(3 1.38247e-15 0)
(3 2.31511e-15 0)
(3 2.52109e-15 0)
(3 2.08002e-15 0)
(3 1.50621e-15 0)
(3 2.19096e-15 0)
(3 1.62817e-15 0)
(3 3.50807e-16 0)
(3 -4.28827e-16 0)
(3 -9.86741e-16 0)
(3 -8.2509e-16 0)
(3 -4.59407e-16 0)
(3 -1.61697e-16 0)
(3 -3.40916e-16 0)
(3 -2.27965e-16 0)
(3 -8.60583e-16 0)
(3 -7.89521e-16 0)
(3 -2.20439e-16 0)
(3 -3.02579e-16 0)
(3 -6.2203e-16 0)
(3 -3.50327e-16 0)
(3 -5.12483e-16 0)
(3 -1.39008e-15 0)
(3 -2.14123e-15 0)
(3 -1.88569e-15 0)
(3 -1.89184e-15 0)
(3 -9.62427e-16 0)
(3 1.34004e-16 0)
(3 1.94215e-16 0)
(3 4.60897e-18 0)
(3 -2.85011e-16 0)
(3 -3.54971e-16 0)
(3 4.08488e-16 0)
(3 6.74559e-16 0)
(3 -4.98181e-17 0)
(3 -3.18448e-16 0)
(3 -1.06764e-17 0)
(3 1.06374e-15 0)
(3 -6.39867e-17 0)
(3 -2.05935e-15 0)
(3 -1.14801e-15 0)
(3 3.37313e-16 0)
(3 9.00612e-16 0)
(3 4.90651e-16 0)
(3 1.2529e-16 0)
(3 -2.91287e-16 0)
(3 -1.68892e-15 0)
(3 -9.31123e-16 0)
(3 -1.56438e-15 0)
(3 -2.56987e-15 0)
(3 -2.43447e-15 0)
(3 -2.15262e-15 0)
(3 -1.9604e-15 0)
(3 -1.01818e-15 0)
(3 -6.93794e-16 0)
(3 -7.74112e-16 0)
(3 -8.75555e-17 0)
(3 1.87529e-16 0)
(3 1.57574e-15 0)
(3 3.01019e-15 0)
(3 2.68669e-15 0)
(3 2.25741e-15 0)
(3 7.0748e-16 0)
(3 -6.34503e-17 0)
(3 1.47317e-15 0)
(3 2.23288e-15 0)
(3 2.52711e-15 0)
(3 2.40966e-15 0)
(3 1.66411e-15 0)
(3 2.62861e-15 0)
(3 4.93441e-17 0)
(3 1.97148e-16 0)
(3 2.50673e-16 0)
(3 7.3478e-16 0)
(3 4.27305e-16 0)
(3 5.10425e-16 0)
(3 6.67712e-16 0)
(3 4.0843e-16 0)
(3 4.89342e-16 0)
(3 4.37825e-16 0)
(3 8.14017e-16 0)
(3 1.29827e-15 0)
(3 9.6705e-16 0)
(3 4.94067e-16 0)
(3 1.01856e-16 0)
(3 -4.87507e-16 0)
(3 -7.0611e-16 0)
(3 -5.35027e-16 0)
(3 -2.87726e-16 0)
(3 -1.77446e-16 0)
(3 -3.13353e-16 0)
(3 7.4748e-17 0)
(3 1.3504e-15 0)
(3 2.09999e-15 0)
(3 1.85609e-15 0)
(3 2.40691e-15 0)
(3 2.9957e-15 0)
(3 3.14681e-15 0)
(3 1.71658e-15 0)
(3 1.29032e-15 0)
(3 1.60455e-15 0)
(3 2.41914e-15 0)
(3 1.93165e-15 0)
(3 -1.0525e-16 0)
(3 -1.18334e-15 0)
(3 -1.37231e-15 0)
(3 -1.41521e-15 0)
(3 -9.23222e-16 0)
(3 -8.52167e-16 0)
(3 -4.85485e-16 0)
(3 -5.01331e-16 0)
(3 -5.17845e-16 0)
(3 -4.27236e-16 0)
(3 2.67884e-16 0)
(3 8.07583e-17 0)
(3 -6.7919e-17 0)
(3 1.07434e-15 0)
(3 2.07357e-15 0)
(3 -5.57291e-16 0)
(3 -3.73875e-15 0)
(3 -4.06612e-15 0)
(3 -2.12178e-15 0)
(3 -1.09805e-15 0)
(3 -3.53393e-16 0)
(3 -2.97434e-16 0)
(3 -5.24549e-16 0)
(3 -1.10627e-15 0)
(3 -1.47517e-15 0)
(3 -1.39841e-15 0)
(3 -8.72782e-16 0)
(3 -5.88924e-16 0)
(3 -6.89044e-16 0)
(3 -4.86816e-16 0)
(3 6.58336e-17 0)
(3 -1.50187e-16 0)
(3 -1.02745e-15 0)
(3 -6.01031e-16 0)
(3 4.1936e-16 0)
(3 7.53001e-16 0)
(3 1.51602e-15 0)
(3 1.85956e-15 0)
(3 1.42469e-15 0)
(3 -5.70668e-16 0)
(3 -1.17857e-15 0)
(3 -1.51876e-15 0)
(3 -1.42133e-15 0)
(3 -7.37979e-16 0)
(3 -6.88481e-16 0)
(3 -6.58291e-16 0)
(3 -3.87837e-16 0)
(3 5.19242e-16 0)
(3 5.7689e-16 0)
(3 1.65392e-15 0)
(3 2.11984e-15 0)
(3 1.85588e-15 0)
(3 1.00831e-15 0)
(3 1.62156e-15 0)
(3 1.7624e-15 0)
(3 2.06303e-15 0)
(3 1.81351e-15 0)
(3 1.95007e-15 0)
(3 1.64093e-15 0)
(3 2.42296e-15 0)
(3 4.39311e-15 0)
(3 4.65928e-15 0)
(3 4.59595e-15 0)
(3 -9.84413e-17 0)
(3 -3.2772e-16 0)
(3 -2.82328e-16 0)
(3 9.54633e-17 0)
(3 -5.05095e-18 0)
(3 4.28577e-17 0)
(3 -2.83094e-17 0)
(3 4.12752e-16 0)
(3 5.79037e-17 0)
(3 -2.2253e-16 0)
(3 -1.5019e-16 0)
(3 3.29509e-16 0)
(3 1.19256e-15 0)
(3 4.39282e-16 0)
(3 4.60446e-17 0)
(3 8.56423e-17 0)
(3 1.96984e-16 0)
(3 4.2022e-17 0)
(3 -2.86175e-17 0)
(3 3.88717e-16 0)
(3 2.67089e-16 0)
(3 2.1562e-16 0)
(3 8.3199e-16 0)
(3 1.35251e-15 0)
(3 1.72181e-15 0)
(3 3.09674e-15 0)
(3 3.02228e-15 0)
(3 2.40721e-15 0)
(3 1.7247e-15 0)
(3 1.21162e-15 0)
(3 1.1713e-15 0)
(3 9.32245e-16 0)
(3 5.81527e-16 0)
(3 -2.18424e-16 0)
(3 -5.01576e-16 0)
(3 -1.00419e-17 0)
(3 -5.73607e-16 0)
(3 -1.11165e-15 0)
(3 -1.42544e-15 0)
(3 -8.09166e-16 0)
(3 -5.09018e-16 0)
(3 -5.99753e-16 0)
(3 -4.18878e-16 0)
(3 4.75085e-16 0)
(3 3.99909e-16 0)
(3 4.70388e-16 0)
(3 1.52272e-15 0)
(3 1.88558e-15 0)
(3 1.73493e-15 0)
(3 -7.08198e-17 0)
(3 -1.14614e-15 0)
(3 -3.52017e-16 0)
(3 -4.24943e-16 0)
(3 -2.81106e-16 0)
(3 -4.5796e-16 0)
(3 -1.2774e-15 0)
(3 -1.77696e-15 0)
(3 -1.94013e-15 0)
(3 -2.17951e-15 0)
(3 -1.93435e-15 0)
(3 -1.2165e-15 0)
(3 -3.5293e-16 0)
(3 -4.46489e-16 0)
(3 -1.17687e-15 0)
(3 -2.21154e-15 0)
(3 -1.76458e-15 0)
(3 -9.08416e-17 0)
(3 6.9395e-16 0)
(3 1.14603e-15 0)
(3 1.24569e-15 0)
(3 1.33995e-15 0)
(3 1.57089e-15 0)
(3 -8.99291e-17 0)
(3 -2.50451e-15 0)
(3 -1.45306e-15 0)
(3 -3.09458e-16 0)
(3 -8.20771e-16 0)
(3 -1.03265e-15 0)
(3 -8.30204e-16 0)
(3 -6.93196e-16 0)
(3 2.35947e-16 0)
(3 1.19308e-15 0)
(3 2.15501e-15 0)
(3 2.07374e-15 0)
(3 1.56288e-15 0)
(3 1.60693e-15 0)
(3 1.90155e-15 0)
(3 2.16002e-15 0)
(3 3.08845e-15 0)
(3 2.87271e-15 0)
(3 1.17398e-15 0)
(3 9.34795e-16 0)
(3 1.62795e-15 0)
(3 2.52746e-15 0)
(3 2.74683e-15 0)
(3 3.30836e-15 0)
(3 -1.33892e-16 0)
(3 -1.11507e-16 0)
(3 2.81897e-16 0)
(3 1.55479e-16 0)
(3 6.62413e-16 0)
(3 7.55574e-16 0)
(3 4.21541e-16 0)
(3 4.37745e-17 0)
(3 -2.40344e-16 0)
(3 -2.75306e-16 0)
(3 3.37895e-17 0)
(3 -1.08601e-16 0)
(3 -3.04179e-16 0)
(3 -5.649e-16 0)
(3 -5.30862e-16 0)
(3 -4.6895e-16 0)
(3 -6.17658e-16 0)
(3 -6.44007e-16 0)
(3 -9.65333e-16 0)
(3 -9.93885e-16 0)
(3 -5.18119e-17 0)
(3 8.05018e-16 0)
(3 7.88843e-16 0)
(3 8.44823e-16 0)
(3 7.99944e-16 0)
(3 1.98732e-15 0)
(3 2.09021e-15 0)
(3 1.53424e-15 0)
(3 1.71812e-15 0)
(3 1.69946e-15 0)
(3 8.07123e-16 0)
(3 4.4334e-16 0)
(3 7.0863e-16 0)
(3 -2.45181e-16 0)
(3 3.12584e-16 0)
(3 1.41973e-16 0)
(3 2.79292e-16 0)
(3 2.85325e-16 0)
(3 5.56956e-17 0)
(3 -6.71505e-16 0)
(3 -4.37066e-16 0)
(3 -1.70548e-16 0)
(3 -4.60907e-16 0)
(3 -8.9775e-16 0)
(3 -8.86326e-16 0)
(3 -5.14793e-16 0)
(3 -7.25336e-17 0)
(3 7.59796e-16 0)
(3 1.40482e-15 0)
(3 1.55013e-15 0)
(3 1.78297e-15 0)
(3 2.95595e-17 0)
(3 -5.65795e-16 0)
(3 -9.2685e-16 0)
(3 -1.1607e-15 0)
(3 -1.45068e-15 0)
(3 -1.13136e-15 0)
(3 -1.11234e-15 0)
(3 -1.25414e-15 0)
(3 -1.33305e-15 0)
(3 -2.81673e-16 0)
(3 8.46793e-16 0)
(3 6.65476e-16 0)
(3 -5.45064e-17 0)
(3 -8.87925e-16 0)
(3 -6.9251e-16 0)
(3 3.3422e-16 0)
(3 1.19946e-15 0)
(3 1.30664e-15 0)
(3 6.70886e-16 0)
(3 7.25667e-16 0)
(3 1.48979e-16 0)
(3 -9.13599e-16 0)
(3 -1.87167e-15 0)
(3 -1.72302e-15 0)
(3 -1.71306e-15 0)
(3 -2.04604e-15 0)
(3 -2.36235e-15 0)
(3 -1.84338e-15 0)
(3 -7.9126e-16 0)
(3 3.08283e-17 0)
(3 2.63933e-16 0)
(3 3.38958e-16 0)
(3 -5.75739e-17 0)
(3 -8.65328e-16 0)
(3 1.01679e-15 0)
(3 1.5088e-15 0)
(3 2.35687e-15 0)
(3 2.93832e-15 0)
(3 3.08462e-15 0)
(3 2.58309e-15 0)
(3 2.56066e-15 0)
(3 2.49887e-15 0)
(3 2.43363e-15 0)
(3 2.35643e-15 0)
(3 2.44154e-15 0)
(3 -6.79683e-17 0)
(3 7.48022e-16 0)
(3 6.60101e-16 0)
(3 2.40643e-16 0)
(3 9.86357e-17 0)
(3 -1.33569e-16 0)
(3 -4.35523e-16 0)
(3 -9.43126e-16 0)
(3 -3.93432e-16 0)
(3 2.09163e-16 0)
(3 6.36175e-16 0)
(3 3.12135e-16 0)
(3 -4.54077e-16 0)
(3 2.1321e-16 0)
(3 1.55397e-16 0)
(3 -2.06374e-16 0)
(3 -3.72529e-16 0)
(3 -5.01565e-16 0)
(3 -7.84741e-16 0)
(3 -9.89007e-16 0)
(3 7.45474e-17 0)
(3 1.64235e-16 0)
(3 9.14927e-16 0)
(3 1.50374e-15 0)
(3 1.18877e-15 0)
(3 3.49146e-16 0)
(3 -2.27737e-16 0)
(3 -4.82837e-16 0)
(3 -4.20808e-16 0)
(3 -3.78778e-16 0)
(3 -2.27135e-16 0)
(3 -5.46365e-16 0)
(3 -5.57703e-16 0)
(3 -7.71728e-16 0)
(3 -8.5211e-16 0)
(3 -1.07947e-15 0)
(3 -7.29061e-16 0)
(3 -6.77796e-16 0)
(3 -7.5629e-16 0)
(3 -6.33583e-16 0)
(3 -8.74689e-16 0)
(3 -1.08485e-15 0)
(3 -1.24642e-15 0)
(3 -1.48926e-15 0)
(3 -2.16312e-15 0)
(3 -3.27842e-15 0)
(3 -1.24441e-15 0)
(3 2.41423e-16 0)
(3 1.11231e-15 0)
(3 1.04498e-15 0)
(3 1.20906e-15 0)
(3 2.18285e-16 0)
(3 -5.89421e-16 0)
(3 -2.73326e-16 0)
(3 -4.63296e-16 0)
(3 -7.01923e-16 0)
(3 -1.1396e-15 0)
(3 -1.50088e-15 0)
(3 -1.27103e-15 0)
(3 -1.00574e-15 0)
(3 7.69983e-16 0)
(3 1.36186e-15 0)
(3 1.44509e-15 0)
(3 1.38222e-15 0)
(3 1.50326e-15 0)
(3 1.90139e-15 0)
(3 1.9253e-15 0)
(3 1.88802e-15 0)
(3 7.48218e-16 0)
(3 -2.12193e-16 0)
(3 -4.27061e-16 0)
(3 -3.89358e-16 0)
(3 -2.26413e-16 0)
(3 1.10007e-16 0)
(3 3.97896e-17 0)
(3 -5.75791e-16 0)
(3 -1.64987e-17 0)
(3 5.16089e-16 0)
(3 4.17614e-16 0)
(3 -3.54141e-16 0)
(3 1.11752e-16 0)
(3 4.95663e-16 0)
(3 5.65997e-16 0)
(3 8.31465e-17 0)
(3 -7.6608e-16 0)
(3 -1.77546e-16 0)
(3 4.29044e-16 0)
(3 1.43544e-15 0)
(3 1.98378e-15 0)
(3 3.15288e-15 0)
(3 3.63085e-15 0)
(3 3.51563e-15 0)
(3 3.51971e-15 0)
(3 2.56333e-15 0)
(3 2.37355e-15 0)
(3 2.64763e-15 0)
(3 7.15945e-18 0)
(3 1.58746e-16 0)
(3 -3.78816e-16 0)
(3 -6.46477e-16 0)
(3 -7.65625e-16 0)
(3 -1.22005e-15 0)
(3 -1.10162e-15 0)
(3 -3.85581e-16 0)
(3 1.43357e-16 0)
(3 5.90477e-16 0)
(3 6.74482e-16 0)
(3 5.10074e-16 0)
(3 3.78223e-16 0)
(3 9.29348e-16 0)
(3 8.59867e-16 0)
(3 3.60427e-16 0)
(3 4.42435e-16 0)
(3 9.51984e-16 0)
(3 1.76909e-15 0)
(3 2.37269e-15 0)
(3 2.05719e-15 0)
(3 1.01729e-15 0)
(3 6.65034e-16 0)
(3 5.89406e-16 0)
(3 1.20148e-15 0)
(3 -8.59607e-16 0)
(3 -1.57121e-15 0)
(3 -1.02811e-15 0)
(3 -1.13178e-15 0)
(3 -1.63984e-15 0)
(3 -1.93432e-15 0)
(3 -2.23577e-15 0)
(3 -2.16144e-15 0)
(3 -1.74546e-15 0)
(3 -2.24471e-15 0)
(3 -2.23793e-15 0)
(3 -1.87093e-15 0)
(3 -1.72772e-15 0)
(3 -1.26203e-15 0)
(3 -2.89646e-16 0)
(3 -8.5299e-16 0)
(3 -1.40574e-15 0)
(3 -1.74007e-15 0)
(3 -1.95061e-15 0)
(3 -2.52742e-15 0)
(3 -2.64283e-15 0)
(3 -3.31076e-16 0)
(3 -6.81076e-17 0)
(3 -1.27118e-17 0)
(3 -9.35196e-17 0)
(3 4.48555e-16 0)
(3 6.12242e-16 0)
(3 7.03524e-16 0)
(3 8.0934e-16 0)
(3 5.87791e-16 0)
(3 2.87877e-16 0)
(3 -7.78423e-18 0)
(3 2.0543e-17 0)
(3 -5.52756e-16 0)
(3 -4.84804e-16 0)
(3 -4.38532e-16 0)
(3 2.99675e-16 0)
(3 5.74031e-16 0)
(3 5.72462e-16 0)
(3 7.39256e-16 0)
(3 9.07887e-16 0)
(3 1.32548e-15 0)
(3 1.40199e-15 0)
(3 1.008e-15 0)
(3 1.21214e-15 0)
(3 1.1906e-15 0)
(3 1.99117e-15 0)
(3 2.75222e-15 0)
(3 1.48442e-15 0)
(3 1.10843e-15 0)
(3 1.38514e-15 0)
(3 1.1525e-15 0)
(3 1.16011e-15 0)
(3 1.67568e-15 0)
(3 1.56696e-15 0)
(3 9.77736e-16 0)
(3 1.0349e-15 0)
(3 8.06503e-16 0)
(3 4.20769e-16 0)
(3 -4.65692e-16 0)
(3 6.41651e-16 0)
(3 1.36702e-15 0)
(3 2.36867e-15 0)
(3 2.41386e-15 0)
(3 2.41998e-15 0)
(3 2.90422e-15 0)
(3 3.83979e-15 0)
(3 5.197e-15 0)
(3 5.1883e-15 0)
(3 3.73734e-15 0)
(3 3.50016e-15 0)
(3 1.16109e-16 0)
(3 -5.54363e-16 0)
(3 -1.095e-15 0)
(3 -6.49192e-16 0)
(3 -6.25707e-16 0)
(3 -4.27929e-16 0)
(3 -2.89145e-16 0)
(3 3.35109e-16 0)
(3 5.49659e-16 0)
(3 7.71505e-16 0)
(3 5.52688e-16 0)
(3 5.08328e-16 0)
(3 8.81715e-16 0)
(3 6.117e-16 0)
(3 5.26003e-16 0)
(3 3.01598e-17 0)
(3 7.05886e-17 0)
(3 7.76969e-16 0)
(3 1.2178e-15 0)
(3 1.59032e-15 0)
(3 1.56702e-15 0)
(3 1.65547e-15 0)
(3 3.09199e-16 0)
(3 -3.7289e-16 0)
(3 -4.14237e-16 0)
(3 -1.06199e-15 0)
(3 -9.83529e-16 0)
(3 -8.05947e-16 0)
(3 -7.80538e-16 0)
(3 -6.62881e-16 0)
(3 -6.26034e-16 0)
(3 -1.69621e-15 0)
(3 -2.24153e-15 0)
(3 -1.62516e-15 0)
(3 -1.5333e-15 0)
(3 -1.99931e-15 0)
(3 -1.81345e-15 0)
(3 -1.24477e-15 0)
(3 -2.79439e-16 0)
(3 -2.63666e-16 0)
(3 -5.90618e-16 0)
(3 -1.01574e-15 0)
(3 -1.44744e-15 0)
(3 -2.0415e-15 0)
(3 -1.71444e-15 0)
(3 -1.11923e-15 0)
(3 -1.01602e-15 0)
(3 -1.205e-15 0)
(3 -1.1181e-15 0)
(3 -6.23169e-16 0)
(3 -2.78441e-16 0)
(3 -4.05133e-16 0)
(3 -6.66226e-16 0)
(3 -8.51678e-16 0)
(3 -7.93507e-16 0)
(3 -5.52813e-16 0)
(3 6.37657e-17 0)
(3 9.52826e-16 0)
(3 1.02282e-15 0)
(3 2.60468e-16 0)
(3 5.13517e-17 0)
(3 1.64397e-16 0)
(3 2.27843e-16 0)
(3 6.57492e-17 0)
(3 -1.81282e-16 0)
(3 -3.9183e-16 0)
(3 3.92213e-16 0)
(3 1.06846e-15 0)
(3 1.49559e-15 0)
(3 2.71878e-15 0)
(3 3.52722e-15 0)
(3 2.74491e-15 0)
(3 2.95833e-15 0)
(3 2.45468e-15 0)
(3 2.19462e-15 0)
(3 1.70482e-15 0)
(3 1.32322e-15 0)
(3 1.69293e-15 0)
(3 2.78371e-15 0)
(3 3.07467e-15 0)
(3 1.85665e-15 0)
(3 -1.43478e-16 0)
(3 -8.29683e-16 0)
(3 -1.17822e-15 0)
(3 -1.4257e-15 0)
(3 1.50498e-15 0)
(3 2.98026e-15 0)
(3 2.67152e-15 0)
(3 2.89214e-15 0)
(3 2.67922e-15 0)
(3 2.59564e-15 0)
(3 3.00965e-15 0)
(3 3.61992e-15 0)
(3 3.71441e-15 0)
(3 2.64852e-15 0)
(3 2.21244e-15 0)
(3 1.52755e-16 0)
(3 1.65569e-16 0)
(3 2.0497e-16 0)
(3 3.43722e-16 0)
(3 3.32368e-17 0)
(3 -4.96422e-17 0)
(3 -1.14092e-16 0)
(3 -3.36657e-16 0)
(3 -1.013e-16 0)
(3 6.43278e-16 0)
(3 5.43987e-16 0)
(3 7.7566e-16 0)
(3 7.11757e-16 0)
(3 -6.21968e-17 0)
(3 -1.06364e-15 0)
(3 -1.31249e-15 0)
(3 -1.80085e-15 0)
(3 -2.12541e-15 0)
(3 -1.87438e-15 0)
(3 -1.40449e-15 0)
(3 -6.21954e-16 0)
(3 -1.10514e-16 0)
(3 -3.40784e-16 0)
(3 -6.47641e-16 0)
(3 -8.8446e-16 0)
(3 -7.33545e-16 0)
(3 -3.2706e-16 0)
(3 -4.05028e-16 0)
(3 -7.62889e-16 0)
(3 -5.13889e-16 0)
(3 -6.41097e-16 0)
(3 -1.04208e-15 0)
(3 -1.47526e-15 0)
(3 -1.61777e-15 0)
(3 -1.63658e-15 0)
(3 -1.87966e-15 0)
(3 -1.99288e-15 0)
(3 -7.15512e-16 0)
(3 -6.88363e-16 0)
(3 -1.00071e-15 0)
(3 -1.62818e-15 0)
(3 -2.21318e-15 0)
(3 -2.13457e-15 0)
(3 -1.1961e-15 0)
(3 1.08488e-16 0)
(3 -2.8013e-16 0)
(3 -1.80223e-15 0)
(3 -2.00179e-15 0)
(3 -1.58897e-15 0)
(3 -9.29276e-16 0)
(3 -8.78881e-16 0)
(3 -1.77496e-15 0)
(3 -2.1785e-15 0)
(3 -2.24795e-15 0)
(3 -2.63382e-15 0)
(3 -2.67429e-15 0)
(3 -2.24499e-15 0)
(3 -9.88475e-16 0)
(3 6.29131e-16 0)
(3 1.12112e-15 0)
(3 1.11966e-15 0)
(3 1.11201e-15 0)
(3 6.15572e-16 0)
(3 -2.31315e-16 0)
(3 -7.43606e-16 0)
(3 -6.09518e-16 0)
(3 2.32481e-18 0)
(3 1.1389e-15 0)
(3 1.94526e-15 0)
(3 1.9531e-15 0)
(3 1.81042e-15 0)
(3 1.81032e-15 0)
(3 1.96397e-15 0)
(3 2.23808e-15 0)
(3 1.68441e-15 0)
(3 1.3082e-15 0)
(3 1.55842e-15 0)
(3 2.26517e-15 0)
(3 2.6675e-15 0)
(3 2.53943e-15 0)
(3 2.28647e-15 0)
(3 1.27134e-15 0)
(3 2.75165e-16 0)
(3 -3.6281e-16 0)
(3 -5.1874e-16 0)
(3 4.40524e-16 0)
(3 1.90796e-15 0)
(3 2.33045e-15 0)
(3 2.63845e-15 0)
(3 2.84974e-15 0)
(3 2.52403e-15 0)
(3 2.24238e-15 0)
(3 5.44006e-16 0)
(3 5.00074e-16 0)
(3 8.61264e-16 0)
(3 8.44581e-16 0)
(3 2.45306e-16 0)
(3 1.30906e-16 0)
(3 -8.70184e-18 0)
(3 -4.52795e-16 0)
(3 -3.78326e-16 0)
(3 -3.87033e-16 0)
(3 -8.16136e-16 0)
(3 -6.36454e-16 0)
(3 -1.93261e-16 0)
(3 -2.53895e-16 0)
(3 -2.30316e-16 0)
(3 1.54237e-16 0)
(3 3.57934e-16 0)
(3 -6.44591e-16 0)
(3 -1.44978e-15 0)
(3 -1.74068e-15 0)
(3 -2.30683e-15 0)
(3 -1.27269e-15 0)
(3 -9.9307e-16 0)
(3 -9.7666e-16 0)
(3 -9.73567e-16 0)
(3 -6.59428e-16 0)
(3 -8.06536e-16 0)
(3 -1.02892e-15 0)
(3 -1.32791e-15 0)
(3 -8.59701e-16 0)
(3 -5.49249e-16 0)
(3 -4.41289e-16 0)
(3 -3.65317e-16 0)
(3 -2.04454e-16 0)
(3 -2.71463e-16 0)
(3 -2.54643e-16 0)
(3 -5.31535e-16 0)
(3 -1.50875e-15 0)
(3 -1.71125e-15 0)
(3 -7.61963e-16 0)
(3 -1.34516e-15 0)
(3 -1.73181e-15 0)
(3 -2.06912e-15 0)
(3 -2.00217e-15 0)
(3 -1.4571e-15 0)
(3 -1.44809e-15 0)
(3 -1.32161e-15 0)
(3 -6.82912e-16 0)
(3 -2.59272e-16 0)
(3 -4.4943e-16 0)
(3 -1.4791e-15 0)
(3 -8.51027e-16 0)
(3 -2.39477e-16 0)
(3 -4.05241e-16 0)
(3 -8.60134e-16 0)
(3 -2.26609e-15 0)
(3 -2.6743e-15 0)
(3 -2.41656e-15 0)
(3 -2.11235e-15 0)
(3 -2.0049e-15 0)
(3 -2.11459e-15 0)
(3 -1.67371e-15 0)
(3 -5.58948e-16 0)
(3 2.80532e-17 0)
(3 1.16133e-16 0)
(3 2.21067e-16 0)
(3 3.73642e-16 0)
(3 1.49898e-15 0)
(3 1.96745e-15 0)
(3 1.90196e-15 0)
(3 8.84787e-16 0)
(3 2.66068e-16 0)
(3 2.8852e-16 0)
(3 3.09536e-16 0)
(3 4.43793e-16 0)
(3 6.68199e-16 0)
(3 9.65398e-16 0)
(3 1.15219e-15 0)
(3 1.23373e-15 0)
(3 1.59738e-15 0)
(3 1.85795e-15 0)
(3 2.11224e-15 0)
(3 2.29775e-15 0)
(3 2.88679e-15 0)
(3 3.18396e-15 0)
(3 3.24489e-15 0)
(3 3.07751e-15 0)
(3 3.00131e-15 0)
(3 3.10759e-15 0)
(3 1.91288e-15 0)
(3 9.88495e-16 0)
(3 2.23712e-15 0)
(3 2.56258e-15 0)
(3 2.52869e-15 0)
(3 2.41595e-15 0)
(3 1.24624e-15 0)
(3 -7.0986e-16 0)
(3 -7.04334e-16 0)
(3 1.51174e-19 0)
(3 4.27244e-16 0)
(3 8.55717e-17 0)
(3 -1.61983e-16 0)
(3 -4.28023e-16 0)
(3 -8.71393e-16 0)
(3 -1.08508e-15 0)
(3 -1.02165e-15 0)
(3 -7.05632e-16 0)
(3 -3.22732e-17 0)
(3 -4.61467e-16 0)
(3 -1.16503e-15 0)
(3 -1.48987e-15 0)
(3 -1.37419e-15 0)
(3 -1.02347e-15 0)
(3 -6.66342e-17 0)
(3 2.62048e-16 0)
(3 2.92709e-16 0)
(3 -2.21789e-16 0)
(3 -1.02402e-15 0)
(3 -1.0958e-15 0)
(3 -1.10498e-15 0)
(3 -1.52074e-15 0)
(3 -2.00762e-15 0)
(3 -1.56432e-15 0)
(3 -3.53059e-16 0)
(3 -5.76914e-16 0)
(3 -1.17094e-15 0)
(3 -1.27278e-15 0)
(3 -7.13598e-16 0)
(3 -3.65263e-16 0)
(3 -2.51754e-16 0)
(3 6.31092e-17 0)
(3 -6.51318e-17 0)
(3 -1.47532e-15 0)
(3 -2.42814e-15 0)
(3 -1.42497e-15 0)
(3 -1.33171e-15 0)
(3 -1.40985e-15 0)
(3 -1.70547e-15 0)
(3 -2.2328e-15 0)
(3 -2.53567e-15 0)
(3 -2.93207e-15 0)
(3 -1.8252e-15 0)
(3 -1.51868e-15 0)
(3 -1.30291e-15 0)
(3 -9.93835e-16 0)
(3 -9.09114e-16 0)
(3 -1.34187e-15 0)
(3 -1.46076e-15 0)
(3 -1.10727e-15 0)
(3 -1.57245e-16 0)
(3 -1.04713e-16 0)
(3 -1.41038e-15 0)
(3 -2.34046e-15 0)
(3 -2.21126e-15 0)
(3 -1.82085e-15 0)
(3 -6.55013e-16 0)
(3 -1.58247e-16 0)
(3 -1.48239e-16 0)
(3 -8.19338e-16 0)
(3 -1.15312e-15 0)
(3 -8.93282e-16 0)
(3 -1.21756e-15 0)
(3 -1.4047e-15 0)
(3 -1.43083e-15 0)
(3 1.71717e-16 0)
(3 5.07412e-16 0)
(3 1.10787e-15 0)
(3 1.58903e-17 0)
(3 -6.72004e-16 0)
(3 -2.1822e-16 0)
(3 5.85602e-16 0)
(3 5.19152e-16 0)
(3 3.22266e-16 0)
(3 6.08638e-16 0)
(3 9.57085e-16 0)
(3 1.40555e-15 0)
(3 1.4707e-15 0)
(3 1.6866e-15 0)
(3 2.29074e-15 0)
(3 2.22224e-15 0)
(3 2.06491e-15 0)
(3 1.2514e-15 0)
(3 4.47593e-16 0)
(3 5.79724e-18 0)
(3 3.70275e-17 0)
(3 2.69657e-16 0)
(3 -2.90361e-17 0)
(3 -5.19793e-17 0)
(3 -6.0206e-17 0)
(3 -1.0607e-16 0)
(3 -6.86915e-16 0)
(3 -1.04855e-15 0)
(3 -1.62093e-15 0)
(3 -2.48199e-15 0)
(3 -2.59709e-15 0)
(3 -1.75952e-15 0)
(3 -3.73855e-16 0)
(3 -4.56191e-16 0)
(3 8.76839e-18 0)
(3 2.01587e-16 0)
(3 -2.28608e-16 0)
(3 -1.91892e-16 0)
(3 7.2861e-17 0)
(3 4.12478e-17 0)
(3 2.229e-16 0)
(3 1.54079e-16 0)
(3 1.02225e-17 0)
(3 -4.45166e-16 0)
(3 -7.69436e-16 0)
(3 -8.06205e-17 0)
(3 6.01168e-16 0)
(3 1.22023e-15 0)
(3 1.5557e-15 0)
(3 2.29137e-17 0)
(3 -5.46217e-16 0)
(3 -7.77176e-16 0)
(3 -8.93544e-16 0)
(3 -7.77252e-16 0)
(3 -5.44935e-16 0)
(3 -3.77474e-16 0)
(3 -4.58517e-16 0)
(3 -3.1217e-16 0)
(3 -5.10581e-16 0)
(3 2.80063e-16 0)
(3 4.57074e-16 0)
(3 -2.80356e-16 0)
(3 -5.11278e-16 0)
(3 -1.43445e-15 0)
(3 -1.89e-15 0)
(3 -9.90608e-16 0)
(3 -1.42106e-16 0)
(3 -1.30569e-16 0)
(3 -2.19066e-17 0)
(3 -1.59652e-16 0)
(3 -8.70059e-16 0)
(3 -1.38131e-15 0)
(3 -1.97778e-15 0)
(3 -1.67236e-15 0)
(3 -3.85527e-16 0)
(3 -6.06465e-16 0)
(3 -1.2009e-15 0)
(3 -9.74129e-16 0)
(3 -1.00805e-15 0)
(3 -1.46532e-15 0)
(3 -2.03174e-15 0)
(3 -1.01815e-15 0)
(3 -6.73539e-16 0)
(3 -5.55382e-16 0)
(3 -7.41437e-16 0)
(3 -1.39127e-15 0)
(3 -1.08397e-15 0)
(3 -2.16189e-16 0)
(3 3.39295e-16 0)
(3 2.12667e-16 0)
(3 -2.81538e-16 0)
(3 3.4321e-16 0)
(3 6.65406e-16 0)
(3 2.8503e-16 0)
(3 -9.77203e-16 0)
(3 -2.09441e-15 0)
(3 -1.1028e-15 0)
(3 -8.07084e-16 0)
(3 -8.08569e-16 0)
(3 3.03029e-16 0)
(3 6.60535e-16 0)
(3 1.01901e-15 0)
(3 1.1015e-15 0)
(3 1.08006e-15 0)
(3 7.79321e-16 0)
(3 2.61132e-16 0)
(3 -1.62053e-16 0)
(3 7.05875e-16 0)
(3 1.05474e-15 0)
(3 1.08218e-15 0)
(3 7.71489e-16 0)
(3 1.3562e-15 0)
(3 2.40642e-15 0)
(3 2.30007e-15 0)
(3 9.78869e-16 0)
(3 4.03423e-16 0)
(3 -2.99888e-16 0)
(3 -6.07356e-16 0)
(3 -9.12161e-16 0)
(3 -1.24386e-15 0)
(3 -1.62783e-15 0)
(3 -2.23008e-15 0)
(3 -3.17657e-15 0)
(3 -3.30717e-15 0)
(3 -3.30006e-15 0)
(3 -2.85502e-15 0)
(3 -2.74938e-15 0)
(3 -2.48502e-15 0)
(3 -2.48809e-17 0)
(3 -2.95176e-17 0)
(3 2.41866e-16 0)
(3 5.9984e-16 0)
(3 8.11492e-16 0)
(3 9.34704e-16 0)
(3 6.49325e-16 0)
(3 6.1988e-16 0)
(3 4.86052e-16 0)
(3 3.27673e-16 0)
(3 -2.20089e-17 0)
(3 -8.43535e-16 0)
(3 -1.57487e-15 0)
(3 -6.26026e-16 0)
(3 -6.34998e-16 0)
(3 -1.90116e-16 0)
(3 9.3657e-16 0)
(3 1.6653e-15 0)
(3 1.50658e-15 0)
(3 9.18718e-16 0)
(3 9.57377e-16 0)
(3 6.88201e-16 0)
(3 3.8788e-16 0)
(3 -7.24171e-16 0)
(3 -9.58315e-16 0)
(3 1.87601e-16 0)
(3 1.26679e-15 0)
(3 9.96987e-16 0)
(3 1.22812e-15 0)
(3 1.42164e-16 0)
(3 -4.34805e-16 0)
(3 -2.72575e-16 0)
(3 -4.39953e-16 0)
(3 6.37692e-16 0)
(3 9.13899e-16 0)
(3 1.16772e-15 0)
(3 6.53032e-16 0)
(3 -9.79846e-16 0)
(3 -1.1448e-15 0)
(3 -1.53427e-15 0)
(3 -1.25033e-15 0)
(3 -9.29105e-16 0)
(3 -9.88455e-16 0)
(3 -1.87518e-15 0)
(3 -2.93611e-15 0)
(3 -2.92937e-15 0)
(3 -2.01573e-15 0)
(3 -1.12511e-15 0)
(3 -9.21646e-16 0)
(3 -6.8313e-16 0)
(3 6.16115e-16 0)
(3 8.24039e-16 0)
(3 8.4535e-16 0)
(3 -3.72749e-16 0)
(3 7.37351e-17 0)
(3 1.91641e-16 0)
(3 1.52264e-16 0)
(3 -1.69501e-16 0)
(3 -1.42613e-16 0)
(3 5.65502e-17 0)
(3 -3.50439e-16 0)
(3 -1.36776e-17 0)
(3 -1.68831e-16 0)
(3 -2.83562e-16 0)
(3 -9.89559e-16 0)
(3 -9.37622e-16 0)
(3 -4.05514e-16 0)
(3 1.58759e-16 0)
(3 1.55466e-15 0)
(3 1.96764e-15 0)
(3 1.6203e-15 0)
(3 7.31484e-16 0)
(3 1.36668e-16 0)
(3 -4.97658e-16 0)
(3 -9.23594e-16 0)
(3 -8.09776e-16 0)
(3 7.56165e-17 0)
(3 2.7626e-16 0)
(3 -2.28827e-17 0)
(3 3.73149e-16 0)
(3 2.45276e-15 0)
(3 2.6909e-15 0)
(3 7.8251e-16 0)
(3 1.01197e-16 0)
(3 -6.66471e-17 0)
(3 -2.15986e-16 0)
(3 -1.16005e-15 0)
(3 -1.76083e-15 0)
(3 -1.98777e-15 0)
(3 -3.3032e-15 0)
(3 -3.76753e-15 0)
(3 -3.70645e-15 0)
(3 -2.20779e-15 0)
(3 -3.91962e-16 0)
(3 2.26891e-16 0)
(3 5.23695e-16 0)
(3 2.98327e-16 0)
(3 4.61563e-16 0)
(3 4.64789e-16 0)
(3 4.63663e-16 0)
(3 3.98837e-16 0)
(3 2.20895e-16 0)
(3 3.94184e-17 0)
(3 -1.74721e-16 0)
(3 -6.60989e-16 0)
(3 -6.95279e-16 0)
(3 -6.80103e-16 0)
(3 -1.57386e-15 0)
(3 -2.74357e-15 0)
(3 -2.85441e-15 0)
(3 -1.22598e-15 0)
(3 2.44438e-16 0)
(3 1.49731e-15 0)
(3 2.4387e-15 0)
(3 1.74797e-15 0)
(3 1.66131e-15 0)
(3 2.06202e-15 0)
(3 1.56936e-15 0)
(3 -4.92876e-16 0)
(3 -8.6224e-16 0)
(3 -3.23126e-16 0)
(3 5.02512e-16 0)
(3 1.71635e-15 0)
(3 1.94622e-15 0)
(3 1.70291e-15 0)
(3 1.06909e-15 0)
(3 4.61698e-16 0)
(3 4.27533e-16 0)
(3 4.47642e-16 0)
(3 2.58647e-16 0)
(3 4.99679e-16 0)
(3 1.51847e-15 0)
(3 1.66309e-15 0)
(3 -2.1576e-16 0)
(3 -5.93397e-16 0)
(3 -8.02501e-16 0)
(3 -1.00622e-15 0)
(3 -1.19764e-15 0)
(3 -1.28305e-15 0)
(3 -1.75368e-15 0)
(3 -1.35334e-15 0)
(3 -3.84642e-16 0)
(3 -8.3054e-16 0)
(3 -1.53679e-15 0)
(3 -1.78093e-15 0)
(3 -1.71267e-15 0)
(3 -1.12107e-15 0)
(3 3.05854e-16 0)
(3 8.60894e-16 0)
(3 9.78148e-16 0)
(3 6.24749e-16 0)
(3 -2.95164e-16 0)
(3 -6.39647e-16 0)
(3 -5.99179e-16 0)
(3 3.10444e-16 0)
(3 1.76518e-16 0)
(3 -9.06121e-16 0)
(3 -1.09779e-15 0)
(3 -4.89518e-16 0)
(3 -8.65718e-17 0)
(3 1.24483e-16 0)
(3 6.15179e-16 0)
(3 1.60466e-15 0)
(3 1.36203e-15 0)
(3 1.74358e-15 0)
(3 1.64708e-15 0)
(3 1.78728e-16 0)
(3 -8.61997e-16 0)
(3 -1.56852e-15 0)
(3 -9.88974e-16 0)
(3 -3.07016e-16 0)
(3 -1.26187e-16 0)
(3 -5.65382e-16 0)
(3 -7.93253e-16 0)
(3 2.03579e-16 0)
(3 2.16856e-15 0)
(3 2.80442e-15 0)
(3 2.33668e-15 0)
(3 1.22816e-15 0)
(3 -9.46847e-16 0)
(3 -1.18719e-15 0)
(3 -1.06341e-15 0)
(3 -1.03405e-15 0)
(3 -1.68327e-15 0)
(3 -2.24923e-15 0)
(3 -2.04934e-15 0)
(3 -1.70829e-15 0)
(3 -1.28478e-15 0)
(3 5.03708e-16 0)
(3 2.79353e-16 0)
(3 3.65576e-16 0)
(3 9.68733e-16 0)
(3 -4.52566e-17 0)
(3 -3.97565e-16 0)
(3 -4.81348e-16 0)
(3 -7.2504e-16 0)
(3 -6.89106e-16 0)
(3 -2.69866e-16 0)
(3 -3.03226e-17 0)
(3 -8.02841e-16 0)
(3 2.20517e-16 0)
(3 5.87128e-16 0)
(3 3.79239e-16 0)
(3 -2.21659e-16 0)
(3 5.93229e-17 0)
(3 -3.31735e-16 0)
(3 -2.65628e-16 0)
(3 5.76188e-16 0)
(3 1.52113e-15 0)
(3 1.52839e-15 0)
(3 1.61841e-15 0)
(3 2.16293e-15 0)
(3 2.2895e-15 0)
(3 1.53357e-15 0)
(3 4.89081e-17 0)
(3 -9.61107e-16 0)
(3 -1.23662e-15 0)
(3 4.36705e-18 0)
(3 1.31183e-15 0)
(3 1.92234e-15 0)
(3 1.6098e-15 0)
(3 8.11508e-16 0)
(3 5.68119e-16 0)
(3 8.66854e-16 0)
(3 8.5971e-16 0)
(3 4.94429e-16 0)
(3 6.3528e-16 0)
(3 6.30291e-16 0)
(3 1.30577e-15 0)
(3 1.11626e-15 0)
(3 9.37163e-16 0)
(3 7.12311e-16 0)
(3 6.42769e-16 0)
(3 9.66033e-16 0)
(3 2.81329e-16 0)
(3 -2.13078e-16 0)
(3 -4.9781e-16 0)
(3 -6.34798e-16 0)
(3 -1.87666e-16 0)
(3 5.40594e-18 0)
(3 -6.3656e-16 0)
(3 -1.04486e-15 0)
(3 -1.91401e-15 0)
(3 -4.41847e-16 0)
(3 6.09713e-16 0)
(3 1.00885e-15 0)
(3 1.04354e-15 0)
(3 7.38042e-18 0)
(3 -3.61455e-16 0)
(3 -5.40438e-17 0)
(3 9.90651e-17 0)
(3 -3.59784e-16 0)
(3 -6.20534e-16 0)
(3 -6.98742e-16 0)
(3 6.60614e-17 0)
(3 7.5723e-16 0)
(3 9.82503e-16 0)
(3 1.43077e-15 0)
(3 2.50599e-15 0)
(3 2.84282e-15 0)
(3 2.4911e-15 0)
(3 5.43086e-16 0)
(3 4.74114e-17 0)
(3 -2.62542e-16 0)
(3 -6.41367e-16 0)
(3 5.92268e-16 0)
(3 1.50937e-15 0)
(3 1.87472e-15 0)
(3 3.55167e-16 0)
(3 -5.54558e-16 0)
(3 -1.89276e-16 0)
(3 7.79521e-16 0)
(3 1.01947e-15 0)
(3 -1.21474e-15 0)
(3 -1.54612e-15 0)
(3 -1.32047e-15 0)
(3 -2.12348e-15 0)
(3 -2.5158e-15 0)
(3 -3.14514e-15 0)
(3 -3.05256e-15 0)
(3 -3.2144e-15 0)
(3 -2.72812e-15 0)
(3 -2.20909e-15 0)
(3 -6.68983e-16 0)
(3 -6.5844e-16 0)
(3 -4.5954e-16 0)
(3 -7.40978e-16 0)
(3 -7.10943e-16 0)
(3 -2.40235e-16 0)
(3 -3.41683e-16 0)
(3 -8.68862e-16 0)
(3 -1.37716e-15 0)
(3 -9.84429e-16 0)
(3 -9.5044e-16 0)
(3 -7.16874e-16 0)
(3 -5.95717e-16 0)
(3 -2.93818e-16 0)
(3 -2.10088e-16 0)
(3 -4.02924e-16 0)
(3 2.93109e-16 0)
(3 8.00669e-16 0)
(3 1.18257e-15 0)
(3 8.1282e-16 0)
(3 8.95005e-16 0)
(3 8.38009e-16 0)
(3 1.34663e-15 0)
(3 2.04096e-15 0)
(3 2.89748e-15 0)
(3 1.03445e-15 0)
(3 -1.06961e-15 0)
(3 -9.52358e-16 0)
(3 -8.44394e-16 0)
(3 -1.45088e-15 0)
(3 -9.58955e-16 0)
(3 6.73808e-16 0)
(3 1.26579e-15 0)
(3 4.48612e-16 0)
(3 -6.36864e-17 0)
(3 2.7204e-17 0)
(3 -1.74103e-16 0)
(3 5.57151e-16 0)
(3 1.41863e-15 0)
(3 1.13959e-15 0)
(3 -1.35559e-16 0)
(3 -3.15702e-17 0)
(3 1.45683e-15 0)
(3 2.02534e-15 0)
(3 2.00699e-15 0)
(3 1.76791e-15 0)
(3 1.49869e-15 0)
(3 5.43426e-16 0)
(3 1.00958e-16 0)
(3 -5.12706e-16 0)
(3 -5.18351e-16 0)
(3 -6.99107e-16 0)
(3 -6.19221e-16 0)
(3 -7.02587e-16 0)
(3 -1.46827e-15 0)
(3 -1.89026e-15 0)
(3 -2.0213e-15 0)
(3 -1.41872e-15 0)
(3 -9.98662e-16 0)
(3 -6.0434e-16 0)
(3 1.52865e-16 0)
(3 3.38254e-16 0)
(3 1.01465e-15 0)
(3 1.04429e-15 0)
(3 1.00432e-15 0)
(3 1.41683e-15 0)
(3 1.25413e-15 0)
(3 1.11605e-15 0)
(3 1.77024e-15 0)
(3 2.86431e-15 0)
(3 3.12789e-15 0)
(3 2.9129e-15 0)
(3 3.29061e-15 0)
(3 2.1075e-15 0)
(3 1.62695e-16 0)
(3 9.29349e-17 0)
(3 3.85252e-16 0)
(3 2.56018e-16 0)
(3 1.11822e-15 0)
(3 1.30902e-15 0)
(3 5.98858e-16 0)
(3 1.44098e-16 0)
(3 -6.69811e-17 0)
(3 -1.17198e-15 0)
(3 -1.55396e-15 0)
(3 -1.79809e-15 0)
(3 -1.77179e-15 0)
(3 -1.2605e-15 0)
(3 -1.29194e-16 0)
(3 -1.12459e-15 0)
(3 -3.42822e-15 0)
(3 -4.8142e-15 0)
(3 -5.22354e-15 0)
(3 -4.90199e-15 0)
(3 -4.01644e-15 0)
(3 -1.84641e-15 0)
(3 -1.42254e-15 0)
(3 -2.21405e-15 0)
(3 -1.48893e-15 0)
(3 -1.60099e-15 0)
(3 -2.72824e-15 0)
(3 -5.82025e-17 0)
(3 4.39909e-16 0)
(3 5.53175e-16 0)
(3 1.38471e-16 0)
(3 -3.65239e-16 0)
(3 -3.55639e-16 0)
(3 -3.83329e-18 0)
(3 9.58603e-16 0)
(3 4.77143e-16 0)
(3 -1.85763e-16 0)
(3 -2.66399e-16 0)
(3 -1.05083e-16 0)
(3 -7.03828e-16 0)
(3 -5.88552e-16 0)
(3 -5.88046e-16 0)
(3 3.49758e-18 0)
(3 4.92103e-16 0)
(3 7.14152e-16 0)
(3 9.80069e-16 0)
(3 6.26284e-16 0)
(3 -4.9126e-16 0)
(3 -6.31494e-16 0)
(3 -7.8802e-16 0)
(3 -5.20228e-16 0)
(3 2.78047e-16 0)
(3 -4.2734e-16 0)
(3 -3.52952e-16 0)
(3 -6.37625e-16 0)
(3 -5.80187e-16 0)
(3 -7.71686e-17 0)
(3 5.64622e-16 0)
(3 1.26476e-15 0)
(3 1.27399e-15 0)
(3 8.3848e-17 0)
(3 -4.5208e-16 0)
(3 -8.70613e-16 0)
(3 -6.97669e-16 0)
(3 2.88528e-16 0)
(3 1.01563e-15 0)
(3 1.147e-15 0)
(3 5.50159e-16 0)
(3 -4.42464e-16 0)
(3 -7.76492e-16 0)
(3 -3.32841e-16 0)
(3 1.21573e-16 0)
(3 3.25488e-16 0)
(3 -2.85821e-16 0)
(3 -2.82369e-16 0)
(3 -1.06268e-15 0)
(3 -1.2589e-15 0)
(3 -1.50117e-15 0)
(3 -2.1445e-15 0)
(3 -1.29483e-15 0)
(3 -1.59355e-15 0)
(3 -1.2299e-15 0)
(3 -2.53801e-16 0)
(3 3.25543e-16 0)