/*--------------------------------*- C++ -*----------------------------------*\
  =========                 |
  \\      /  F ield         | OpenFOAM: The Open Source CFD Toolbox
   \\    /   O peration     | Website:  https://openfoam.org
    \\  /    A nd           | Version:  7
     \\/     M anipulation  |
\*---------------------------------------------------------------------------*/
FoamFile
{
    version     2.0;
    format      ascii;
    class       volScalarField;
    location    "0.6";
    object      p;
}
// * * * * * * * * * * * * * * * * * * * * * * * * * * * * * * * * * * * * * //

dimensions      [1 -1 -2 0 0 0 0];

internalField   nonuniform List<scalar> 
18432
(
1
1
1
1
1
1
1
1
1
1
1
1
1
1
1
1
1
1
1
1
1
1
1
1
1
1
1
1
1
1
1
1
1
1
1
1
1
1
1
1
1
1
1
1
1
1
1
1
1
1
1
1
1
1
1
1
1
1
1
1
1
1
1
1
1
1
1
1
1
1
1
1
1
1
1
1
1
1
1
1
1
1
1
1
1
1
1
1
1
1
1
1
1
1
1
1
1
1
1
1
1
1
1
1
1
1
1
1
1
1
1
1
1
1
1
1
1
1
1
1
1
1
1
1
1
1
1
1
1
1
1
1
1
1
1
1
1
1
1
1
1
1
1
1
1
1
1
1
1
1
1
1
1
1
1
1
1
1
1
1
1
1
1
1
1
1
1
1
1
1
1
1
1
1
1
1
1
1
1
1
1
1
1
1
1
1
1
1
1
1
1
1
1
1
1
1
1
1
1
1
1
1
1
1
1
1
1
1
1
1
1
1
1
1
1
1
1
1
1
1
1
1
1
1
1
1
1
1
1
1
1
1
1
1
1
1
1
1
1
1
1
1
1
1
1
1
1
1
1
1
1
1
1
1
1
1
1
1
1
1
1
1
1
1
1
1
1
1
1
1
1
1
1
1
1
1
1
1
1
1
1
1
1
1
1
1
1
1
1
1
1
1
1
1
1
1
1
1
1
1
1
1
1
1
1
1
1
1
1
1
1
1
1
1
1
1
1
1
1
1
1
1
1
1
1
1
1
1
1
1
1
1
1
1
1
1
1
1
1
1
1
1
1
1
1
1
1
1
1
1
1
1
1
1
1
1
1
1
1
1
1
1
1
1
1
1
1
1
1
1
1
1
1
1
1
1
1
1
1
1
1
1
1
1
1
1
1
1
1
1
1
1
1
1
1
1
1
1
1
1
1
1
1
1
1
1
1
1
1
1
1
1
1
1
1
1
1
1
1
1
1
1
1
1
1
1
1
1
1
1
1
1
1
1
1
1
1
1
1
1
1
1
1
1
1
1
1
1
1
1
1
1
1
1
1
1
1
1
1
1
1
1
1
1
1
1
1
1
1
1
1
1
1
1
1
1
1
1
1
1
1
1
1
1
1
1
1
1
1
1
1
1
1
1
1
1
1
1
1
1
1
1
1
1
1
1
1
1
1
1
1
1
1
1
1
1
1
1
1
1
1
1
1
1
1
1
1
1
1
1
1
1
1
1
1
1
1
1
1
1
1
1
1
1
1
1
1
1
1
1
1
1
1
1
1
1
1
1
1
1
1
1
1
1
1
1
1
1
1
1
1
1
1
1
1
1
1
1
1
1
1
1
1
1
1
1
1
1
1
1
1
1
1
1
1
1
1
1
1
1
1
1
1
1
1
1
1
1
1
1
1
1
1
1
1
1
1
1
1
1
1
1
1
1
1
1
1
1
1
1
1
1
1
1
1
1
1
1
1
1
1
1
1
1
1
1
1
1
1
1
1
1
1
1
1
1
1
1
1
1
1
1
1
1
1
1
1
1
1
1
1
1
1
1
1
1
1
1
1
1
1
1
1
1
1
1
1
1
1
1
1
1
1
1
1
1
1
1
1
1
1
1
1
1
1
1
1
1
1
1
1
1
1
1
1
1
1
1
1
1
1
1
1
1
1
1
1
1
1
1
1
1
1
1
1
1
1
1
1
1
1
1
1
1
1
1
1
1
1
1
1
1
1
1
1
1
1
1
1
1
1
1
1
1
1
1
1
1
1
1
1
1
1
1
1
1
1
1
1
1
1
1
1
1
1
1
1
1
1
1
1
1
1
1
1
1
1
1
1
1
1
1
1
1
1
1
1
1
1
1
1
1
1
1
1
1
1
1
1
1
1
1
1
1
1
1
1
1
1
1
1
1
1
1
1
1
1
1
1
1
1
1
1
1
1
1
1
1
1
1
1
1
1
1
1
1
1
1
1
1
1
1
1
1
1
1
1
1
1
1
1
1
1
1
1
1
1
1
1
1
1
1
1
1
1
1
1
1
1
1
1
1
1
1
1
1
1
1
1
1
1
1
1
1
1
1
1
1
1
1
1
1
1
1
1
1
1
1
1
1
1
1
1
1
1
1
1
1
1
1
1
1
1
1
1
1
1
1
1
1
1
1
1
1
1
1
1
1
1
1
1
1
1
1
1
1
1
1
1
1
1
1
1
1
1
1
1
1
1
1
1
1
1
1
1
1
1
1
1
1
1
1
1
1
1
1
1
1
1
1
1
1
1
1
1
1
1
1
1
1
1
1
1
1
1
1
1
1
1
1
1
1
1
1
1
1
1
1
1
1
1
1
1
1
1
1
1
1
1
1
1
1
1
1
1
1
1
1
1
1
1
1
1
1
1
1
1
1
1
1
1
1
1
1
1
1
1
1
1
1
1
1
1
1
1
1
1
1
1
1
1
1
1
1
1
1
1
1
1
1
1
1
1
1
1
1
1
1
1
1
1
1
1
1
1
1
1
1
1
1
1
1
1
1
1
1
1
1
1
1
1
1
1
1
1
1
1
1
1
1
1
1
1
1
1
1
1
1
1
1
1
1
1
1
1
1
1
1
1
1
1
1
1
1
1
1
1
1
1
1
1
1
1
1
1
1
1
1
1
1
1
1
1
1
1
1
1
1
1
1
1
1
1
1
1
1
1
1
1
1
1
1
1
1
1
1
1
1
1
1
1
1
1
1
1
1
1
1
1
1
1
1
1
1
1
1
1
1
1
1
1
1
1
1
1
1
1
1
1
1
1
1
1
1
1
1
1
1
1
1
1
1
1
1
1
1
1
1
1
1
1
1
1
1
1
1
1
1
1
1
1
1
1
1
1
1
1
1
1
1
1
1
1
1
1
1
1
1
1
1
1
1
1
1
1
1
1
1
1
1
1
1
1
1
1
1
1
1
1
1
1
1
1
1
1
1
1
1
1
1
1
1
1
1
1
1
1
1
1
1
1
1
1
1
1
1
1
1
1
1
1
1
1
1
1
1
1
1
1
1
1
1
1
1
1
1
1
1
1
1
1
1
1
1
1
1
1
1
1
1
1
1
1
1
1
1
1
1
1
1
1
1
1
1
1
1
1
1
1
1
1
1
1
1
1
1
1
1
1
1
1
1
1
1
1
1
1
1
1
1
1
1
1
1
1
1
1
1
1
1
1
1
1
1
1
1
1
1
1
1
1
1
1
1
1
1
1
1
1
1
1
1
1
1
1
1
1
1
1
1
1
1
1
1
1
1
1
1
1
1
1
1
1
1
1
1
1
1
1
1
1
1
1
1
1
1
1
1
1
1
1
1
1
1
1
1
1
1
1
1
1
1
1
1
1
1
1
1
1
1
1
1
1
1
1
1
1
1
1
1
1
1
1
1
1
1
1
1
1
1
1
1
1
1
1
1
1
1
1
1
1
1
1
1
1
1
1
1
1
1
1
1
1
1
1
1
1
1
1
1
1
1
1
1
1
1
1
1
1
1
1
1
1
1
1
1
1
1
1
1
1
1
1
1
1
1
1
1
1
1
1
1
1
1
1
1
1
1
1
1
1
1
1
1
1
1
1
1
1
1
1
1
1
1
1
1
1
1
1
1
1
1
1
1
1
1
1
1
1
1
1
1
1
1
1
1
1
1
1
1
1
1
1
1
1
1
1
1
1
1
1
1
1
1
1
1
1
1
1
1
1
1
1
1
1
1
1
1
1
1
1
1
1
1
1
1
1
1
1
1
1
1
1
1
1
1
1
1
1
1
1
1
1
1
1
1
1
1
1
1
1
1
1
1
1
1
1
1
1
1
1
1
1
1
1
1
1
1
1
1
1
1
1
1
1
1
1
1
1
1
1
1
1
1
1
1
1
1
1
1
1
1
1
1
1
1
1
1
1
1
1
1
1
1
1
1
1
1
1
1
1
1
1
1
1
1
1
1
1
1
1
1
1
1
1
1
1
1
1
1
1
1
1
1
1
1
1
1
1
1
1
1
1
1
1
1
1
1
1
1
1
1
1
1
1
1
1
1
1
1
1
1
1
1
1
1
1
1
1
1
1
1
1
1
1
1
1
1
1
1
1
1
1
1
1
1
1
1
1
1
1
1
1
1
1
1
1
1
1
1
1
1
1
1
1
1
1
1
1
1
1
1
1
1
1
1
1
1
1
1
1
1
1
1
1
1
1
1
1
1
1
1
1
1
1
1
1
1
1
1
1
1
1
1
1
1
1
1
1
1
1
1
1
1
1
1
1
1
1
1
1
1
1
1
1
1
1
1
1
1
1
1
1
1
1
1
1
1
1
1
1
1
1
1
1
1
1
1
1
1
1
1
1
1
1
1
1
1
1
1
1
1
1
1
1
1
1
1
1
1
1
1
1
1
1
1
1
1
1
1
1
1
1
1
1
1
1
1
1
1
1
1
1
1
1
1
1
1
1
1
1
1
1
1
1
1
1
1
1
1
1
1
1
1
1
1
1
1
1
1
1
1
1
1
1
1
1
1
1
1
1
1
1
1
1
1
1
1
1
1
1
1
1
1
1
1
1
1
1
1
1
1
1
1
1
1
1
1
1
1
1
1
1
1
1
1
1
1
1
1
1
1
1
1
1
1
1
1
1
1
1
1
1
1
1
1
1
1
1
1
1
1
1
1
1
1
1
1
1
1
1
1
1
1
1
1
1
1
1
1
1
1
1
1
1
1
1
1
1
1
1
1
1
1
1
1
1
1
1
1
1
1
1
1
1
1
1
1
1
1
1
1
1
1
1
1
1
1
1
1
1
1
1
1
1
1
1
1
1
1
1
1
1
1
1
1
1
1
1
1
1
1
1
1
1
1
1
1
1
1
1
1
1
1
1
1
1
1
1
1
1
1
1
1
1
1
1
1
1
1
1
1
1
1
1
1
1
1
1
1
1
1
1
1
1
1
1
1
1
1
1
1
1
1
1
1
1
1
1
1
1
1
1
1
1
1
1
1
1
1
1
1
1
1
1
1
1
1
1
1
1
1
1
1
1
1
1
1
1
1
1
1
1
1
1
1
1
1
1
1
1
1
1
1
1
1
1
1
1
1
1
1
1
1
1
1
1
1
1
1
1
1
1
1
1
1
1
1
1
1
1
1
1
1
1
1
1
1
1
1
1
1
1
1
1
1
1
1
1
1
1
1
1
1
1
1
1
1
1
1
1
1
1
1
1
1
1
1
1
1
1
1
1
1
1
1
1
1
1
1
1
1
1
1
1
1
1
1
1
1
1
1
1
1
1
1
1
1
1
1
1
1
1
1
1
1
1
1
1
1
1
1
1
1
1
1
1
1
1
1
1
1
1
1
1
1
1
1
1
1
1
1
1
1
1
1
1
1
1
1
1
1
1
1
1
1
1
1
1
1
1
1
1
1
1
1
1
1
1
1
1
1
1
1
1
1
1
1
1
1
1
1
1
1
1
1
1
1
1
1
1
1
1
1
1
1
1
1
1
1
1
1
1
1
1
1
1
1
1
1
1
1
1
1
1
1
1
1
1
1
1
1
1
1
1
1
1
1
1
1
1
1
1
1
1
1
1
1
1
1
1
1
1
1
1
1
1
1
1
1
1
1
1
1
1
1
1
1
1
1
1
1
1
1
1
1
1
1
1
1
1
1
1
1
1
1
1
1
1
1
1
1
1
1
1
1
1
1
1
1
1
1
1
1
1
1
1
1
1
1
1
1
1
1
1
1
1
1
1
1
1
1
1
1
1
1
1
1
1
1
1
1
1
1
1
1
1
1
1
1
1
1
1
1
1
1
1
1
1
1
1
1
1
1
1
1
1
1
1
1
1
1
1
1
1
1
1
1
1
1
1
1
1
1
1
1
1
1
1
1
1
1
1
1
1
1
1
1
1
1
1
1
1
1
1
1
1
1
1
1
1
1
1
1
1
1
1
1
1
1
1
1
1
1
1
1
1
1
1
1
1
1
1
1
1
1
1
1
1
1
1
1
1
1
1
1
1
1
1
1
1
1
1
1
1
1
1
1
1
1
1
1
1
1
1
1
1
1
1
1
1
1
1
1
1
1
1
1
1
1
1
1
1
1
1
1
1
1
1
1
1
1
1
1
1
1
1
1
1
1
1
1
1
1
1
1
1
1
1
1
1
1
1
1
1
1
1
1
1
1
1
1
1
1
1
1
1
1
1
1
1
1
1
1
1
1
1
1
1
1
1
1
1
1
1
1
1
1
1
1
1
1
1
1
1
1
1
1
1
1
1
1
1
1
1
1
1
1
1
1
1
1
1
1
1
1
1
1
1
1
1
1
1
1
1
1
1
1
1
1
1
1
1
1
1
1
1
1
1
1
1
1
1
1
1
1
1
1
1
1
1
1
1
1
1
1
1
1
1
1
1
1
1
1
1
1
1
1
1
1
1
1
1
1
1
1
1
1
1
1
1
1
1
1
1
1
1
1
1
1
1
1
1
1
1
1
1
1
1
1
1
1
1
1
1
1
1
1
1
1
1
1
1
1
1
1
1
1
1
1
1
1
1
1
1
1
1
1
1
1
1
1
1
1
1
1
1
1
1
1
1
1
1
1
1
1
1
1
1
1
1
1
1
1
1
1
1
1
1
1
1
1
1
1
1
1
1
1
1
1
1
1
1
1
1
1
1
1
1
1
1
1
1
1
1
1
1
1
1
1
1
1
1
1
1
1
1
1
1
1
1
1
1
1
1
1
1
1
1
1
1
1
1
1
1
1
1
1
1
1
1
1
1
1
1
1
1
1
1
1
1
1
1
1
1
1
1
1
1
1
1
1
1
1
1
1
1
1
1
1
1
1
1
1
1
1
1
1
1
1
1
1
1
1
1
1
1
1
1
1
1
1
1
1
1
1
1
1
1
1
1
1
1
1
1
1
1
1
1
1
1
1
1
1
1
1
1
1
1
1
1
1
1
1
1
1
1
1
1
1
1
1
1.28964
1.76196
2.30509
2.88156
3.59615
4.14754
4.66874
5.12537
5.34079
5.24132
4.91602
4.48505
4.10223
3.79563
3.6546
3.57227
3.55253
3.56795
3.607
3.64888
3.6837
3.70138
3.71447
3.72869
3.74296
3.75457
3.76278
3.76908
3.77739
3.78975
3.79846
3.79925
3.79661
3.78952
3.77976
3.77187
3.76735
3.76476
3.76426
3.76459
3.76559
3.76885
3.76975
3.76993
3.76996
3.76904
3.76781
3.7691
1.00173
1.01453
1.07881
1.19948
1.41028
1.76838
2.21397
2.75294
3.32159
3.72491
3.88341
4.08249
4.05762
3.95823
3.83558
3.78665
3.7433
3.69206
3.67416
3.67063
3.68352
3.70392
3.72255
3.73249
3.73849
3.74527
3.75175
3.75501
3.75896
3.76634
3.77475
3.78032
3.7824
3.78148
3.77753
3.77305
3.77124
3.77193
3.77364
3.77587
3.77842
3.77923
3.77857
3.77664
3.77196
3.76721
3.76585
3.76772
1
0.999976
1.00007
1.00005
1.0013
1.0134
1.06055
1.22406
1.59727
2.37021
3.29375
3.94437
4.30906
4.31886
4.2427
4.11695
3.98681
3.79846
3.68623
3.68148
3.69481
3.71526
3.73663
3.74381
3.74419
3.74116
3.74598
3.74925
3.75216
3.75708
3.76352
3.76727
3.76751
3.76641
3.76453
3.76348
3.76441
3.76727
3.77219
3.77926
3.78587
3.78811
3.78743
3.78506
3.77964
3.77225
3.76939
3.77165
1
1
1
1
0.999998
1
0.99998
1.00011
1.00525
1.07259
1.43734
2.1205
3.21148
3.72953
4.05489
4.0285
3.94535
3.92027
3.85163
3.79841
3.77375
3.74111
3.729
3.72057
3.72166
3.72922
3.74378
3.75741
3.76527
3.77141
3.77428
3.77399
3.77255
3.77036
3.7694
3.76786
3.7669
3.76844
3.77232
3.7777
3.782
3.78302
3.78136
3.77763
3.77166
3.76822
3.7681
3.77079
1
1
1
1
1
1
1
0.999999
1
0.999919
1.00241
1.0375
1.30898
1.9596
2.8952
3.68575
3.88601
4.01873
4.00065
3.93535
3.81186
3.71281
3.68629
3.67865
3.681
3.68831
3.70803
3.73306
3.75729
3.77649
3.78336
3.78374
3.78096
3.77778
3.77765
3.77772
3.77668
3.77706
3.77947
3.7818
3.7824
3.78076
3.77763
3.77215
3.76637
3.76417
3.76396
3.76627
1
1
1
1
1
1
1
1
1
0.999997
0.999997
0.999952
1.00091
1.02976
1.20305
1.8464
2.65828
3.54001
3.85514
3.85162
3.85049
3.79424
3.74024
3.71021
3.69022
3.68617
3.69247
3.70684
3.7262
3.74573
3.76163
3.77172
3.77279
3.77259
3.77198
3.77062
3.76887
3.76947
3.77255
3.77389
3.77316
3.77118
3.76871
3.76628
3.76441
3.76378
3.76355
3.77057
1
1
1
1
1
1
1
1
1
1
1
0.999997
0.999998
0.999969
1.00037
1.02354
1.18096
1.67093
2.52097
3.24092
3.78385
3.86726
3.84137
3.8091
3.7701
3.73381
3.71209
3.70758
3.71084
3.71902
3.73058
3.74729
3.75654
3.76082
3.75967
3.75964
3.76119
3.76647
3.77216
3.77376
3.7735
3.77279
3.77212
3.77177
3.77126
3.77129
3.7714
3.77739
1
1
1
1
1
1
1
1
1
1
1
1
1
0.999998
0.999998
0.999973
1.00045
1.01216
1.15943
1.57257
2.44079
3.09572
3.56177
3.77812
3.80458
3.78846
3.75856
3.74965
3.74411
3.7394
3.73564
3.73354
3.74094
3.7513
3.75819
3.76297
3.76683
3.77334
3.77905
3.77948
3.77863
3.77629
3.77444
3.77374
3.77316
3.77279
3.77374
3.77693
1
1
1
1
1
1
1
1
1
1
1
1
1
1
1
0.999998
0.999998
0.999979
1.0005
1.01036
1.12639
1.56826
2.2894
3.09281
3.41692
3.63182
3.7352
3.76072
3.75632
3.73769
3.73265
3.73488
3.74042
3.75046
3.7618
3.77198
3.78034
3.78593
3.78679
3.78519
3.78268
3.77898
3.77421
3.77162
3.77074
3.77048
3.77182
3.77457
1
1
1
1
1
1
1
1
1
1
1
1
1
1
1
1
1
0.999998
0.999998
0.999985
1.00036
1.01314
1.10077
1.52121
2.19454
3.05633
3.47819
3.59457
3.6734
3.67958
3.70028
3.71214
3.71569
3.72489
3.73975
3.75455
3.76882
3.77665
3.77906
3.77948
3.77852
3.77782
3.7762
3.77415
3.773
3.77329
3.77491
3.77626
1
1
1
1
1
1
1
1
1
1
1
1
1
1
1
1
1
1
1
0.999998
0.999998
0.999988
1.00025
1.01228
1.10366
1.46833
2.2243
2.96296
3.5177
3.66085
3.69431
3.70835
3.70879
3.71318
3.72225
3.73311
3.74601
3.7588
3.76497
3.76656
3.76617
3.76747
3.76765
3.76673
3.76727
3.76879
3.77219
3.77406
1
1
1
1
1
1
1
1
1
1
1
1
1
1
1
1
1
1
1
1
1
0.999999
0.999999
0.999989
1.00038
1.00968
1.12953
1.47882
2.25478
2.96322
3.49059
3.70467
3.73801
3.74949
3.7629
3.76113
3.76129
3.76951
3.77493
3.77488
3.77236
3.76957
3.76676
3.76625
3.76807
3.76946
3.77109
3.77271
1
1
1
1
1
1
1
1
1
1
1
1
1
1
1
1
1
1
1
1
1
1
1
0.999998
0.999999
0.999989
1.00081
1.01119
1.13627
1.55855
2.34511
3.02816
3.43974
3.6661
3.74488
3.75437
3.76664
3.77574
3.77752
3.77821
3.77694
3.77578
3.77766
3.77958
3.78116
3.78151
3.77952
3.77958
1
1
1
1
1
1
1
1
1
1
1
1
1
1
1
1
1
1
1
1
1
1
1
1
1
0.999998
0.999999
0.999992
1.00114
1.01866
1.15344
1.67238
2.47832
3.26549
3.49264
3.60119
3.69219
3.73149
3.73736
3.74125
3.74937
3.76382
3.77571
3.78175
3.78371
3.7822
3.78106
3.77969
1
1
1
1
1
1
1
1
1
1
1
1
1
1
1
1
1
1
1
1
1
1
1
1
1
1
1
0.999999
0.999999
1.00001
1.00155
1.03538
1.21489
1.84469
2.66208
3.40861
3.66053
3.68803
3.70831
3.71032
3.72058
3.7394
3.75614
3.7659
3.77105
3.77515
3.77764
3.77613
1
1
1
1
1
1
1
1
1
1
1
1
1
1
1
1
1
1
1
1
1
1
1
1
1
1
1
1
1
1
0.999997
1.00009
1.00308
1.06347
1.33521
2.10397
2.93279
3.5009
3.73877
3.74519
3.77258
3.78565
3.78496
3.78062
3.77932
3.77863
3.77616
3.77365
1
1
1
1
1
1
1
1
1
1
1
1
1
1
1
1
1
1
1
1
1
1
1
1
1
1
1
1
1
1
1
1
0.999996
1.00041
1.00801
1.12292
1.56161
2.44684
3.14855
3.54519
3.74164
3.78082
3.78267
3.79283
3.79373
3.78948
3.7844
3.77999
1
1
1
1
1
1
1
1
1
1
1
1
1
1
1
1
1
1
1
1
1
1
1
1
1
1
1
1
1
1
1
1
0.999999
0.999999
1
1.0016
1.02427
1.24184
1.90639
2.92058
3.44096
3.57748
3.67158
3.73966
3.7601
3.76574
3.76782
3.76925
1
1
1
1
1
1
1
1
1
1
1
1
1
1
1
1
1
1
1
1
1
1
1
1
1
1
1
1
1
1
1
1
1
1
1
0.999998
1.00007
1.00651
1.08171
1.50681
2.37406
3.26514
3.68159
3.7207
3.74279
3.74572
3.74353
3.7486
1
1
1
1
1
1
1
1
1
1
1
1
1
1
1
1
1
1
1
1
1
1
1
1
1
1
1
1
1
1
1
1
1
1
1
1
1
1.00001
1.00078
1.02623
1.23513
1.95293
2.92005
3.52019
3.77565
3.79496
3.78993
3.78257
1
1
1
1
1
1
1
1
1
1
1
1
1
1
1
1
1
1
1
1
1
1
1
1
1
1
1
1
1
1
1
1
1
1
1
1
1
1
0.999999
1.00016
1.00568
1.10625
1.61003
2.60284
3.28009
3.6026
3.77171
3.77616
1
1
1
1
1
1
1
1
1
1
1
1
1
1
1
1
1
1
1
1
1
1
1
1
1
1
1
1
1
1
1
1
1
1
1
1
1
1
1
0.999999
1.00001
1.00201
1.03714
1.35508
2.17945
3.26063
3.61852
3.68206
1
1
1
1
1
1
1
1
1
1
1
1
1
1
1
1
1
1
1
1
1
1
1
1
1
1
1
1
1
1
1
1
1
1
1
1
1
1
1
1
1
1
1.00029
1.01763
1.17902
1.92986
2.95388
3.63078
1
1
1
1
1
1
1
1
1
1
1
1
1
1
1
1
1
1
1
1
1
1
1
1
1
1
1
1
1
1
1
1
1
1
1
1
1
1
1
1
1
1
1
1.00013
1.00477
1.11995
1.66087
2.83812
1
1
1
1
1
1
1
1
1
1
1
1
1
1
1
1
1
1
1
1
1
1
1
1
1
1
1
1
1
1
1
1
1
1
1
1
1
1
1
1
1
1
1
1
1.00002
1.0031
1.05713
1.47859
1
1
1
1
1
1
1
1
1
1
1
1
1
1
1
1
1
1
1
1
1
1
1
1
1
1
1
1
1
1
1
1
1
1
1
1
1
1
1
1
1
1
1
1
1
1.00001
1.00105
1.02151
1
1
1
1
1
1
1
1
1
1
1
1
1
1
1
1
1
1
1
1
1
1
1
1
1
1
1
1
1
1
1
1
1
1
1
1
1
1
1
1
1
1
1
1
1
1
1.00001
0.999808
1
1
1
1
1
1
1
1
1
1
1
1
1
1
1
1
1
1
1
1
1
1
1
1
1
1
1
1
1
1
1
1
1
1
1
1
1
1
1
1
1
1
1
1
1
1
1
0.999938
1
1
1
1
1
1
1
1
1
1
1
1
1
1
1
1
1
1
1
1
1
1
1
1
1
1
1
1
1
1
1
1
1
1
1
1
1
1
1
1
1
1
1
1
1
1
1
0.999991
1
1
1
1
1
1
1
1
1
1
1
1
1
1
1
1
1
1
1
1
1
1
1
1
1
1
1
1
1
1
1
1
1
1
1
1
1
1
1
1
1
1
1
1
1
1
1
1
1
1
1
1
1
1
1
1
1
1
1
1
1
1
1
1
1
1
1
1
1
1
1
1
1
1
1
1
1
1
1
1
1
1
1
1
1
1
1
1
1
1
1
1
1
1
1
1
1
1
1
1
1
1
1
1
1
1
1
1
1
1
1
1
1
1
1
1
1
1
1
1
1
1
1
1
1
1
1
1
1
1
1
1
1
1
1
1
1
1
1
1
1
1
1
1
1
1
1
1
1
1
1
1
1
1
1
1
1
1
1
1
1
1
1
1
1
1
1
1
1
1
1
1
1
1
1
1
1
1
1
1
1
1
1
1
1
1
1
1
1
1
1
1
1
1
1
1
1
1
1
1
1
1
1
1
1
1
1
1
1
1
1
1
1
1
1
1
1
1
1
1
1
1
1
1
1
1
1
1
1
1
1
1
1
1
1
1
1
1
1
1
1
1
1
1
1
1
1
1
1
1
1
1
1
1
1
1
1
1
1
1
1
1
1
1
1
1
1
1
1
1
1
1
1
1
1
1
1
1
1
1
1
1
1
1
1
1
1
1
1
1
1
1
1
1
1
1
1
1
1
1
1
1
1
1
1
1
1
1
1
1
1
1
1
1
1
1
1
1
1
1
1
1
1
1
1
1
1
1
1
1
1
1
1
1
1
0.999991
1
1
1
1
1
1
1
1
1
1
1
1
1
1
1
1
1
1
1
1
1
1
1
1
1
1
1
1
1
1
1
1
1
1
1
1
1
1
1
1
1
1
1
1
1
1
1
0.999938
1
1
1
1
1
1
1
1
1
1
1
1
1
1
1
1
1
1
1
1
1
1
1
1
1
1
1
1
1
1
1
1
1
1
1
1
1
1
1
1
1
1
1
1
1
1
1.00001
0.999808
1
1
1
1
1
1
1
1
1
1
1
1
1
1
1
1
1
1
1
1
1
1
1
1
1
1
1
1
1
1
1
1
1
1
1
1
1
1
1
1
1
1
1
1
1
1.00001
1.00105
1.02151
1
1
1
1
1
1
1
1
1
1
1
1
1
1
1
1
1
1
1
1
1
1
1
1
1
1
1
1
1
1
1
1
1
1
1
1
1
1
1
1
1
1
1
1
1.00002
1.0031
1.05713
1.47859
1
1
1
1
1
1
1
1
1
1
1
1
1
1
1
1
1
1
1
1
1
1
1
1
1
1
1
1
1
1
1
1
1
1
1
1
1
1
1
1
1
1
1
1.00013
1.00477
1.11995
1.66087
2.83812
1
1
1
1
1
1
1
1
1
1
1
1
1
1
1
1
1
1
1
1
1
1
1
1
1
1
1
1
1
1
1
1
1
1
1
1
1
1
1
1
1
1
1.00029
1.01763
1.17902
1.92986
2.95388
3.63078
1
1
1
1
1
1
1
1
1
1
1
1
1
1
1
1
1
1
1
1
1
1
1
1
1
1
1
1
1
1
1
1
1
1
1
1
1
1
1
0.999999
1.00001
1.00201
1.03714
1.35508
2.17945
3.26062
3.61852
3.68206
1
1
1
1
1
1
1
1
1
1
1
1
1
1
1
1
1
1
1
1
1
1
1
1
1
1
1
1
1
1
1
1
1
1
1
1
1
1
0.999999
1.00016
1.00568
1.10625
1.61003
2.60285
3.28009
3.60259
3.77171
3.77616
1
1
1
1
1
1
1
1
1
1
1
1
1
1
1
1
1
1
1
1
1
1
1
1
1
1
1
1
1
1
1
1
1
1
1
1
1
1.00001
1.00078
1.02623
1.23513
1.95292
2.92005
3.52019
3.77565
3.79496
3.78993
3.78257
1
1
1
1
1
1
1
1
1
1
1
1
1
1
1
1
1
1
1
1
1
1
1
1
1
1
1
1
1
1
1
1
1
1
1
0.999998
1.00007
1.00651
1.08171
1.50681
2.37406
3.26514
3.68159
3.7207
3.74279
3.74573
3.74353
3.7486
1
1
1
1
1
1
1
1
1
1
1
1
1
1
1
1
1
1
1
1
1
1
1
1
1
1
1
1
1
1
1
1
0.999999
0.999999
1
1.0016
1.02427
1.24184
1.90639
2.92058
3.44097
3.57749
3.67158
3.73966
3.7601
3.76574
3.76782
3.76925
1
1
1
1
1
1
1
1
1
1
1
1
1
1
1
1
1
1
1
1
1
1
1
1
1
1
1
1
1
1
1
1
0.999996
1.00041
1.00801
1.12292
1.56161
2.44684
3.14855
3.54519
3.74164
3.78082
3.78267
3.79283
3.79373
3.78948
3.7844
3.77999
1
1
1
1
1
1
1
1
1
1
1
1
1
1
1
1
1
1
1
1
1
1
1
1
1
1
1
1
1
1
0.999997
1.00009
1.00308
1.06347
1.33521
2.10397
2.93279
3.5009
3.73877
3.74519
3.77258
3.78565
3.78496
3.78062
3.77932
3.77864
3.77616
3.77365
1
1
1
1
1
1
1
1
1
1
1
1
1
1
1
1
1
1
1
1
1
1
1
1
1
1
1
0.999999
0.999999
1.00001
1.00155
1.03538
1.21489
1.84469
2.66208
3.4086
3.66054
3.68803
3.70831
3.71032
3.72058
3.7394
3.75614
3.7659
3.77105
3.77515
3.77764
3.77613
1
1
1
1
1
1
1
1
1
1
1
1
1
1
1
1
1
1
1
1
1
1
1
1
1
0.999998
0.999999
0.999992
1.00114
1.01866
1.15344
1.67238
2.47832
3.26549
3.49264
3.60119
3.69219
3.73149
3.73736
3.74125
3.74937
3.76382
3.77571
3.78175
3.78371
3.7822
3.78106
3.77969
1
1
1
1
1
1
1
1
1
1
1
1
1
1
1
1
1
1
1
1
1
1
1
0.999998
0.999999
0.999989
1.00081
1.01119
1.13627
1.55856
2.34511
3.02817
3.43974
3.6661
3.74488
3.75437
3.76664
3.77574
3.77752
3.77821
3.77694
3.77578
3.77766
3.77958
3.78116
3.78151
3.77952
3.77958
1
1
1
1
1
1
1
1
1
1
1
1
1
1
1
1
1
1
1
1
1
0.999999
0.999999
0.999989
1.00038
1.00968
1.12953
1.47882
2.25478
2.96321
3.49059
3.70467
3.73801
3.74949
3.7629
3.76113
3.76129
3.76951
3.77493
3.77488
3.77236
3.76957
3.76676
3.76625
3.76807
3.76946
3.77109
3.77271
1
1
1
1
1
1
1
1
1
1
1
1
1
1
1
1
1
1
1
0.999998
0.999998
0.999988
1.00025
1.01228
1.10366
1.46833
2.2243
2.96296
3.5177
3.66085
3.69431
3.70835
3.70879
3.71318
3.72225
3.73311
3.74601
3.7588
3.76497
3.76656
3.76617
3.76747
3.76765
3.76673
3.76727
3.76879
3.77219
3.77406
1
1
1
1
1
1
1
1
1
1
1
1
1
1
1
1
1
0.999998
0.999998
0.999985
1.00036
1.01314
1.10077
1.52121
2.19454
3.05632
3.4782
3.59457
3.6734
3.67958
3.70028
3.71214
3.71569
3.72489
3.73975
3.75454
3.76882
3.77665
3.77906
3.77948
3.77852
3.77782
3.7762
3.77415
3.773
3.77329
3.77491
3.77626
1
1
1
1
1
1
1
1
1
1
1
1
1
1
1
0.999998
0.999998
0.999979
1.0005
1.01036
1.12639
1.56826
2.28939
3.09281
3.41692
3.63181
3.7352
3.76071
3.75632
3.73769
3.73265
3.73488
3.74042
3.75046
3.7618
3.77198
3.78034
3.78593
3.78679
3.78519
3.78268
3.77898
3.77421
3.77162
3.77074
3.77048
3.77182
3.77457
1
1
1
1
1
1
1
1
1
1
1
1
1
0.999998
0.999998
0.999973
1.00045
1.01216
1.15943
1.57257
2.44079
3.09572
3.56176
3.77812
3.80458
3.78846
3.75856
3.74965
3.74411
3.7394
3.73564
3.73354
3.74094
3.7513
3.75819
3.76297
3.76683
3.77334
3.77905
3.77948
3.77863
3.77629
3.77444
3.77374
3.77316
3.77279
3.77374
3.77693
1
1
1
1
1
1
1
1
1
1
1
0.999997
0.999998
0.999969
1.00037
1.02354
1.18096
1.67092
2.52097
3.24091
3.78385
3.86726
3.84137
3.8091
3.7701
3.73381
3.71209
3.70758
3.71084
3.71902
3.73058
3.74729
3.75654
3.76082
3.75967
3.75964
3.76119
3.76647
3.77216
3.77376
3.7735
3.77279
3.77212
3.77177
3.77126
3.77129
3.7714
3.77739
1
1
1
1
1
1
1
1
1
0.999997
0.999997
0.999952
1.00091
1.02976
1.20305
1.8464
2.65828
3.54001
3.85515
3.85162
3.85049
3.79424
3.74024
3.71021
3.69022
3.68617
3.69247
3.70684
3.7262
3.74573
3.76163
3.77172
3.77279
3.77259
3.77198
3.77062
3.76887
3.76947
3.77255
3.77389
3.77316
3.77118
3.76871
3.76628
3.76441
3.76378
3.76355
3.77057
1
1
1
1
1
1
1
0.999999
1
0.999919
1.00241
1.0375
1.30898
1.9596
2.89519
3.68575
3.88601
4.01873
4.00065
3.93535
3.81186
3.71281
3.68629
3.67864
3.681
3.68831
3.70803
3.73306
3.75729
3.77649
3.78336
3.78374
3.78096
3.77778
3.77765
3.77772
3.77668
3.77706
3.77947
3.7818
3.7824
3.78076
3.77763
3.77215
3.76637
3.76417
3.76396
3.76627
1
1
1
1
0.999998
1
0.99998
1.00011
1.00525
1.07259
1.43734
2.1205
3.21148
3.72953
4.05489
4.0285
3.94535
3.92027
3.85163
3.79841
3.77375
3.74111
3.729
3.72057
3.72166
3.72922
3.74378
3.75741
3.76527
3.77141
3.77428
3.77399
3.77255
3.77036
3.7694
3.76786
3.7669
3.76844
3.77232
3.7777
3.782
3.78302
3.78136
3.77763
3.77166
3.76822
3.7681
3.77079
1
0.999976
1.00007
1.00005
1.0013
1.0134
1.06055
1.22406
1.59728
2.3702
3.29375
3.94437
4.30906
4.31886
4.2427
4.11695
3.98681
3.79846
3.68623
3.68148
3.69481
3.71526
3.73663
3.74381
3.74419
3.74116
3.74598
3.74925
3.75216
3.75708
3.76352
3.76727
3.76751
3.76641
3.76453
3.76348
3.76441
3.76727
3.77219
3.77926
3.78587
3.7881
3.78743
3.78506
3.77964
3.77225
3.76939
3.77165
1.00173
1.01453
1.07881
1.19948
1.41028
1.76838
2.21397
2.75294
3.32159
3.72491
3.88341
4.08249
4.05762
3.95823
3.83558
3.78665
3.7433
3.69206
3.67416
3.67063
3.68352
3.70392
3.72255
3.73249
3.73849
3.74527
3.75175
3.75501
3.75896
3.76634
3.77475
3.78032
3.7824
3.78148
3.77753
3.77305
3.77124
3.77193
3.77364
3.77587
3.77842
3.77923
3.77857
3.77664
3.77196
3.76721
3.76585
3.76772
1.28964
1.76196
2.30509
2.88156
3.59615
4.14754
4.66874
5.12537
5.34079
5.24132
4.91602
4.48505
4.10223
3.79563
3.6546
3.57227
3.55253
3.56795
3.607
3.64888
3.6837
3.70138
3.71447
3.72869
3.74296
3.75457
3.76278
3.76908
3.77739
3.78975
3.79846
3.79925
3.79661
3.78952
3.77976
3.77188
3.76735
3.76476
3.76426
3.76459
3.76559
3.76885
3.76975
3.76993
3.76996
3.76904
3.76781
3.7691
2.66243
1.72131
1.0576
0.835139
0.763891
0.67924
0.668187
0.71569
0.791525
0.83385
0.87147
0.944728
1.01783
1.02889
1.02691
1.04504
1.06427
1.06256
1.06289
1.06783
1.06956
1.06767
1.06509
1.06257
1.0527
1.03669
1.02695
1.02219
1.0189
1.0142
1.00767
1.00214
0.998235
0.9924
0.982478
0.972766
0.96984
0.968849
0.967716
0.965806
0.963121
0.958928
0.954441
0.951834
0.950272
0.94863
0.947408
0.946729
0.94632
0.94552
0.943994
0.940173
0.933779
0.928401
0.92643
0.925495
0.924565
0.922734
0.92079
0.918362
0.92094
0.942017
1.04864
1.34476
1.92595
2.74206
3.54985
4.31573
5.08307
5.77171
6.21036
6.5714
6.7388
6.59405
6.30753
5.96149
5.66695
5.41092
5.2016
5.04212
4.87356
4.66804
4.55672
4.49467
4.42517
4.35268
4.28686
4.22037
4.12075
3.97982
3.821
3.72665
3.69477
3.66832
3.63663
3.59295
3.54209
3.46971
3.35427
3.23302
3.16932
3.13648
3.11047
3.07858
3.0422
2.9986
2.92965
2.83004
2.75125
2.71036
2.68209
2.6505
2.61068
2.55914
2.49552
2.44218
2.40987
2.38292
2.3533
2.31165
2.23882
2.16514
2.13982
2.12637
2.11729
2.10913
2.10003
2.08044
2.0388
2.009
1.99898
1.99061
1.97805
1.96301
1.94728
1.92367
1.87834
1.82848
1.80813
1.7957
1.78299
1.77436
1.76771
1.75981
1.74823
1.72538
1.67916
1.63045
1.61437
1.60674
1.59899
1.58984
1.57932
1.56754
1.55372
1.53769
1.52209
1.51268
1.50758
1.50039
1.48603
1.47091
1.46214
1.4556
1.44846
1.44214
1.43854
1.43524
1.43124
1.42501
1.41754
1.41676
1.42097
1.42834
1.43835
1.45297
1.47022
1.48082
1.48396
1.48087
1.46081
1.44346
1.43875
1.43488
1.42913
1.41937
1.41151
1.42852
1.45516
1.42936
1.40943
1.40061
3.35881
2.78616
2.20006
1.69119
1.48649
1.3052
1.10741
1.05449
1.00818
0.946454
0.910453
0.917732
0.938935
0.946049
0.954083
0.976708
1.00523
1.01051
1.01592
1.03082
1.04888
1.0506
1.04882
1.04823
1.04566
1.03528
1.02728
1.02543
1.0237
1.01974
1.01369
1.0075
1.00241
0.996731
0.988395
0.979466
0.973268
0.969963
0.967351
0.964281
0.960451
0.956447
0.95382
0.952524
0.951235
0.948974
0.947175
0.946005
0.944768
0.943598
0.942085
0.938748
0.934242
0.930688
0.927818
0.924923
0.922529
0.920319
0.920868
0.933395
1.02321
1.2651
1.67642
2.06309
2.42654
2.58715
2.75414
2.98697
3.29184
3.70362
4.09743
4.45428
4.83327
5.03409
5.15289
5.23868
5.35397
5.40388
5.31552
5.19635
5.03526
4.82888
4.68028
4.58025
4.49987
4.41814
4.33082
4.25244
4.15283
4.01968
3.87031
3.77627
3.75003
3.72977
3.68742
3.63337
3.57144
3.49015
3.38456
3.27125
3.19835
3.16485
3.13647
3.10319
3.06568
3.01953
2.94938
2.86225
2.79542
2.75424
2.72184
2.68601
2.64408
2.59697
2.54103
2.48385
2.44292
2.41112
2.37576
2.32799
2.26045
2.19332
2.16895
2.15818
2.14848
2.13736
2.12308
2.09804
2.06074
2.04256
2.03889
2.031
2.01641
1.99708
1.97422
1.94696
1.90995
1.8688
1.84388
1.82804
1.81407
1.80214
1.7927
1.78319
1.77091
1.7514
1.71452
1.66554
1.64281
1.63351
1.6248
1.61535
1.60496
1.59377
1.58098
1.56679
1.55365
1.54368
1.53658
1.52844
1.51561
1.49997
1.48837
1.47989
1.47164
1.46491
1.46112
1.45822
1.45626
1.45351
1.4495
1.44977
1.45434
1.46119
1.46939
1.47915
1.48913
1.49637
1.49714
1.49042
1.47223
1.45277
1.44645
1.44187
1.43492
1.4245
1.41676
1.433
1.46193
1.4414
1.42292
1.41456
3.6613
3.33207
2.88072
2.36709
1.96881
1.68906
1.40239
1.22658
1.14138
1.03551
0.942024
0.938212
0.944641
0.933359
0.93343
0.942567
0.955368
0.967361
0.979732
1.00599
1.0357
1.03905
1.03665
1.03696
1.03591
1.02878
1.02702
1.02877
1.03065
1.02819
1.02172
1.01325
1.00447
0.996292
0.988715
0.982074
0.975963
0.971036
0.967474
0.962768
0.95596
0.953115
0.952004
0.951411
0.95118
0.950465
0.949297
0.948192
0.94661
0.943273
0.939118
0.935654
0.933056
0.930104
0.927165
0.924784
0.92527
0.934817
0.998074
1.19132
1.60773
2.05075
2.45454
2.59931
2.57869
2.56043
2.56767
2.60403
2.62683
2.66712
2.77666
2.98148
3.33243
3.80003
4.30398
4.74942
5.05289
5.1619
5.21684
5.18792
5.08499
4.92662
4.77874
4.66494
4.50669
4.34849
4.24431
4.17811
4.10511
4.01566
3.93162
3.8616
3.78531
3.6954
3.61065
3.54537
3.48552
3.41397
3.33627
3.28381
3.22451
3.13964
3.0762
3.03759
2.99911
2.96005
2.90746
2.85457
2.80671
2.74291
2.68356
2.64982
2.61489
2.57431
2.52287
2.46302
2.40727
2.36882
2.33459
2.29257
2.24288
2.21289
2.18854
2.15021
2.10539
2.08765
2.07569
2.05827
2.039
2.03264
2.02749
2.01309
1.98943
1.97077
1.94816
1.92021
1.89028
1.86159
1.83093
1.80273
1.78443
1.77044
1.75889
1.74919
1.73836
1.72194
1.68941
1.64529
1.62587
1.61589
1.60507
1.5944
1.58486
1.5758
1.56436
1.54794
1.53171
1.52265
1.51693
1.50934
1.49711
1.48192
1.46897
1.459
1.45057
1.44507
1.44164
1.43868
1.43642
1.43296
1.43043
1.43151
1.43581
1.44192
1.45
1.45987
1.46844
1.47679
1.4836
1.48277
1.46966
1.45111
1.44472
1.4408
1.4349
1.42753
1.42436
1.44048
1.45842
1.43462
1.42179
1.41722
3.7498
3.61787
3.32952
2.91076
2.48077
2.14543
1.82273
1.56508
1.43869
1.30245
1.13296
1.09898
1.06091
0.992191
0.964696
0.966404
0.957723
0.943012
0.945432
0.961359
0.98094
0.98717
0.991754
1.00231
1.01605
1.01612
1.0178
1.02455
1.02613
1.02394
1.01834
1.01235
1.0065
1.00069
0.995393
0.991209
0.987081
0.981521
0.974633
0.96607
0.95815
0.955362
0.953553
0.951417
0.950073
0.949354
0.94855
0.947345
0.943964
0.938612
0.935906
0.934777
0.933366
0.930921
0.929036
0.933498
0.987838
1.15524
1.50038
1.98688
2.42772
2.545
2.61503
2.67609
2.68306
2.66328
2.61638
2.55235
2.50017
2.46093
2.44597
2.44158
2.44937
2.51568
2.6918
3.02796
3.46683
3.87724
4.26308
4.55865
4.62411
4.63617
4.57881
4.54519
4.50012
4.43308
4.3516
4.27444
4.18919
4.11861
4.05357
3.97884
3.84681
3.68616
3.55929
3.47711
3.43053
3.39978
3.37238
3.33216
3.26595
3.16113
3.07843
3.0243
2.96666
2.92389
2.90068
2.87314
2.8294
2.75572
2.66881
2.63599
2.6183
2.58415
2.53128
2.46487
2.40078
2.34764
2.31453
2.29628
2.28146
2.2629
2.2315
2.1725
2.09244
2.05893
2.05514
2.05407
2.05316
2.04992
2.04113
2.01792
1.98242
1.96086
1.94693
1.92737
1.90144
1.87019
1.83211
1.79828
1.77676
1.76114
1.74666
1.73376
1.72124
1.70599
1.67993
1.64001
1.61972
1.60938
1.59803
1.58607
1.57664
1.56855
1.55886
1.54439
1.52526
1.51403
1.50904
1.50274
1.48972
1.47256
1.45999
1.44975
1.44068
1.43545
1.43216
1.42904
1.42674
1.42369
1.422
1.42348
1.42778
1.43379
1.44059
1.44912
1.4578
1.46384
1.47215
1.47748
1.47084
1.45392
1.44596
1.44269
1.43887
1.43676
1.43776
1.45217
1.45234
1.43014
1.42349
1.42219
3.76096
3.73044
3.59742
3.30771
2.92256
2.58781
2.2298
1.92872
1.75078
1.57795
1.35802
1.25473
1.1853
1.08725
1.00447
0.998264
0.979568
0.949446
0.949357
0.961295
0.962168
0.957254
0.957379
0.962878
0.979748
0.994529
1.00485
1.01553
1.01722
1.0162
1.01245
1.00757
1.00252
0.999021
0.99665
0.994395
0.991075
0.984805
0.975951
0.966782
0.961283
0.959372
0.957532
0.955063
0.952533
0.950365
0.948601
0.94593
0.939163
0.933623
0.932704
0.932574
0.933063
0.936896
0.962976
1.07263
1.44571
1.94818
2.35303
2.53727
2.65498
2.7195
2.73225
2.71876
2.68675
2.63102
2.55893
2.49373
2.44865
2.41735
2.39251
2.35845
2.32029
2.2992
2.27467
2.25517
2.29786
2.4402
2.70219
3.10148
3.52505
3.94274
4.23705
4.37803
4.45716
4.44346
4.38368
4.30134
4.24934
4.19126
4.10368
3.9528
3.80061
3.67678
3.5583
3.47961
3.44203
3.40477
3.35938
3.32057
3.27294
3.20088
3.11018
3.02016
2.95199
2.90578
2.86771
2.83149
2.79073
2.74098
2.68086
2.62108
2.57589
2.53722
2.49472
2.45111
2.40392
2.34112
2.29274
2.27113
2.25502
2.23641
2.20827
2.15978
2.08768
2.03965
2.02657
2.02253
2.02173
2.02186
2.01782
2.01018
1.99645
1.97035
1.93663
1.90468
1.87633
1.85014
1.82524
1.80174
1.78256
1.76814
1.75313
1.73394
1.71299
1.69111
1.6658
1.64292
1.62984
1.61661
1.59692
1.58204
1.57468
1.56664
1.5561
1.54252
1.52604
1.51413
1.50779
1.50156
1.49286
1.47707
1.46122
1.45165
1.44291
1.43707
1.43411
1.43088
1.42648
1.42228
1.42151
1.42277
1.42673
1.43268
1.44299
1.46234
1.47327
1.47551
1.47372
1.47185
1.46532
1.45677
1.45309
1.45224
1.45176
1.45077
1.4506
1.45707
1.44158
1.42797
1.42633
1.42909
3.76999
3.75675
3.71533
3.56883
3.28132
2.97348
2.63954
2.30266
2.06882
1.866
1.64902
1.50311
1.40037
1.27699
1.16311
1.13654
1.10078
1.03139
1.0086
1.00459
0.985159
0.959359
0.951179
0.952501
0.954456
0.959733
0.972294
0.991104
0.996281
0.995196
0.995858
0.997115
0.996123
0.995199
0.993353
0.991434
0.989041
0.983818
0.974516
0.968483
0.96634
0.965178
0.964265
0.962219
0.959247
0.955687
0.950938
0.944099
0.936595
0.933063
0.932233
0.933459
0.952745
1.03973
1.30178
1.77168
2.2914
2.55636
2.70904
2.76096
2.75886
2.74202
2.707
2.66539
2.61784
2.57274
2.53232
2.47591
2.41627
2.37303
2.34043
2.30773
2.27564
2.24886
2.20903
2.164
2.11462
2.07531
2.06742
2.10559
2.22834
2.46551
2.84176
3.18627
3.46881
3.75098
3.84209
3.88792
3.94832
3.95643
3.94742
3.91767
3.8552
3.75487
3.61711
3.52979
3.48608
3.43523
3.37374
3.33505
3.29252
3.23311
3.13638
3.02375
2.93592
2.88181
2.8471
2.81491
2.78256
2.7475
2.69261
2.61382
2.55686
2.51907
2.48562
2.45142
2.40718
2.33947
2.27789
2.25583
2.24395
2.22752
2.20565
2.1646
2.07822
2.01324
2.0076
2.0078
2.01598
2.02476
2.02635
2.02041
1.9956
1.94862
1.92112
1.90239
1.87854
1.86115
1.84776
1.83453
1.81602
1.7869
1.76189
1.73986
1.71592
1.69234
1.67763
1.67059
1.65807
1.63144
1.59826
1.58989
1.58549
1.57692
1.56741
1.55906
1.54922
1.53966
1.53195
1.52365
1.5118
1.48759
1.46371
1.45436
1.45277
1.45326
1.45298
1.44902
1.44404
1.44238
1.44231
1.44379
1.44743
1.45177
1.45311
1.45393
1.45569
1.45817
1.47062
1.48148
1.47962
1.4671
1.46275
1.4668
1.47373
1.4783
1.48
1.46792
1.43899
1.43237
1.43201
1.43832
3.77909
3.77526
3.7598
3.69544
3.53615
3.30038
2.97448
2.66707
2.41723
2.16597