/*--------------------------------*- C++ -*----------------------------------*\
  =========                 |
  \\      /  F ield         | OpenFOAM: The Open Source CFD Toolbox
   \\    /   O peration     | Website:  https://openfoam.org
    \\  /    A nd           | Version:  7
     \\/     M anipulation  |
\*---------------------------------------------------------------------------*/
FoamFile
{
    version     2.0;
    format      ascii;
    class       volScalarField;
    location    "0.6";
    object      T;
}
// * * * * * * * * * * * * * * * * * * * * * * * * * * * * * * * * * * * * * //

dimensions      [0 0 0 1 0 0 0];

internalField   nonuniform List<scalar> 
18432
(
1
1
1
1
1
1
1
1
1
1
1
1
1
1
1
1
1
1
1
1
1
1
1
1
1
1
1
1
1
1
1
1
1
1
1
1
1
1
1
1
1
1
1
1
1
1
1
1
1
1
1
1
1
1
1
1
1
1
1
1
1
1
1
1
1
1
1
1
1
1
1
1
1
1
1
1
1
1
1
1
1
1
1
1
1
1
1
1
1
1
1
1
1
1
1
1
1
1
1
1
1
1
1
1
1
1
1
1
1
1
1
1
1
1
1
1
1
1
1
1
1
1
1
1
1
1
1
1
1
1
1
1
1
1
1
1
1
1
1
1
1
1
1
1
1
1
1
1
1
1
1
1
1
1
1
1
1
1
1
1
1
1
1
1
1
1
1
1
1
1
1
1
1
1
1
1
1
1
1
1
1
1
1
1
1
1
1
1
1
1
1
1
1
1
1
1
1
1
1
1
1
1
1
1
1
1
1
1
1
1
1
1
1
1
1
1
1
1
1
1
1
1
1
1
1
1
1
1
1
1
1
1
1
1
1
1
1
1
1
1
1
1
1
1
1
1
1
1
1
1
1
1
1
1
1
1
1
1
1
1
1
1
1
1
1
1
1
1
1
1
1
1
1
1
1
1
1
1
1
1
1
1
1
1
1
1
1
1
1
1
1
1
1
1
1
1
1
1
1
1
1
1
1
1
1
1
1
1
1
1
1
1
1
1
1
1
1
1
1
1
1
1
1
1
1
1
1
1
1
1
1
1
1
1
1
1
1
1
1
1
1
1
1
1
1
1
1
1
1
1
1
1
1
1
1
1
1
1
1
1
1
1
1
1
1
1
1
1
1
1
1
1
1
1
1
1
1
1
1
1
1
1
1
1
1
1
1
1
1
1
1
1
1
1
1
1
1
1
1
1
1
1
1
1
1
1
1
1
1
1
1
1
1
1
1
1
1
1
1
1
1
1
1
1
1
1
1
1
1
1
1
1
1
1
1
1
1
1
1
1
1
1
1
1
1
1
1
1
1
1
1
1
1
1
1
1
1
1
1
1
1
1
1
1
1
1
1
1
1
1
1
1
1
1
1
1
1
1
1
1
1
1
1
1
1
1
1
1
1
1
1
1
1
1
1
1
1
1
1
1
1
1
1
1
1
1
1
1
1
1
1
1
1
1
1
1
1
1
1
1
1
1
1
1
1
1
1
1
1
1
1
1
1
1
1
1
1
1
1
1
1
1
1
1
1
1
1
1
1
1
1
1
1
1
1
1
1
1
1
1
1
1
1
1
1
1
1
1
1
1
1
1
1
1
1
1
1
1
1
1
1
1
1
1
1
1
1
1
1
1
1
1
1
1
1
1
1
1
1
1
1
1
1
1
1
1
1
1
1
1
1
1
1
1
1
1
1
1
1
1
1
1
1
1
1
1
1
1
1
1
1
1
1
1
1
1
1
1
1
1
1
1
1
1
1
1
1
1
1
1
1
1
1
1
1
1
1
1
1
1
1
1
1
1
1
1
1
1
1
1
1
1
1
1
1
1
1
1
1
1
1
1
1
1
1
1
1
1
1
1
1
1
1
1
1
1
1
1
1
1
1
1
1
1
1
1
1
1
1
1
1
1
1
1
1
1
1
1
1
1
1
1
1
1
1
1
1
1
1
1
1
1
1
1
1
1
1
1
1
1
1
1
1
1
1
1
1
1
1
1
1
1
1
1
1
1
1
1
1
1
1
1
1
1
1
1
1
1
1
1
1
1
1
1
1
1
1
1
1
1
1
1
1
1
1
1
1
1
1
1
1
1
1
1
1
1
1
1
1
1
1
1
1
1
1
1
1
1
1
1
1
1
1
1
1
1
1
1
1
1
1
1
1
1
1
1
1
1
1
1
1
1
1
1
1
1
1
1
1
1
1
1
1
1
1
1
1
1
1
1
1
1
1
1
1
1
1
1
1
1
1
1
1
1
1
1
1
1
1
1
1
1
1
1
1
1
1
1
1
1
1
1
1
1
1
1
1
1
1
1
1
1
1
1
1
1
1
1
1
1
1
1
1
1
1
1
1
1
1
1
1
1
1
1
1
1
1
1
1
1
1
1
1
1
1
1
1
1
1
1
1
1
1
1
1
1
1
1
1
1
1
1
1
1
1
1
1
1
1
1
1
1
1
1
1
1
1
1
1
1
1
1
1
1
1
1
1
1
1
1
1
1
1
1
1
1
1
1
1
1
1
1
1
1
1
1
1
1
1
1
1
1
1
1
1
1
1
1
1
1
1
1
1
1
1
1
1
1
1
1
1
1
1
1
1
1
1
1
1
1
1
1
1
1
1
1
1
1
1
1
1
1
1
1
1
1
1
1
1
1
1
1
1
1
1
1
1
1
1
1
1
1
1
1
1
1
1
1
1
1
1
1
1
1
1
1
1
1
1
1
1
1
1
1
1
1
1
1
1
1
1
1
1
1
1
1
1
1
1
1
1
1
1
1
1
1
1
1
1
1
1
1
1
1
1
1
1
1
1
1
1
1
1
1
1
1
1
1
1
1
1
1
1
1
1
1
1
1
1
1
1
1
1
1
1
1
1
1
1
1
1
1
1
1
1
1
1
1
1
1
1
1
1
1
1
1
1
1
1
1
1
1
1
1
1
1
1
1
1
1
1
1
1
1
1
1
1
1
1
1
1
1
1
1
1
1
1
1
1
1
1
1
1
1
1
1
1
1
1
1
1
1
1
1
1
1
1
1
1
1
1
1
1
1
1
1
1
1
1
1
1
1
1
1
1
1
1
1
1
1
1
1
1
1
1
1
1
1
1
1
1
1
1
1
1
1
1
1
1
1
1
1
1
1
1
1
1
1
1
1
1
1
1
1
1
1
1
1
1
1
1
1
1
1
1
1
1
1
1
1
1
1
1
1
1
1
1
1
1
1
1
1
1
1
1
1
1
1
1
1
1
1
1
1
1
1
1
1
1
1
1
1
1
1
1
1
1
1
1
1
1
1
1
1
1
1
1
1
1
1
1
1
1
1
1
1
1
1
1
1
1
1
1
1
1
1
1
1
1
1
1
1
1
1
1
1
1
1
1
1
1
1
1
1
1
1
1
1
1
1
1
1
1
1
1
1
1
1
1
1
1
1
1
1
1
1
1
1
1
1
1
1
1
1
1
1
1
1
1
1
1
1
1
1
1
1
1
1
1
1
1
1
1
1
1
1
1
1
1
1
1
1
1
1
1
1
1
1
1
1
1
1
1
1
1
1
1
1
1
1
1
1
1
1
1
1
1
1
1
1
1
1
1
1
1
1
1
1
1
1
1
1
1
1
1
1
1
1
1
1
1
1
1
1
1
1
1
1
1
1
1
1
1
1
1
1
1
1
1
1
1
1
1
1
1
1
1
1
1
1
1
1
1
1
1
1
1
1
1
1
1
1
1
1
1
1
1
1
1
1
1
1
1
1
1
1
1
1
1
1
1
1
1
1
1
1
1
1
1
1
1
1
1
1
1
1
1
1
1
1
1
1
1
1
1
1
1
1
1
1
1
1
1
1
1
1
1
1
1
1
1
1
1
1
1
1
1
1
1
1
1
1
1
1
1
1
1
1
1
1
1
1
1
1
1
1
1
1
1
1
1
1
1
1
1
1
1
1
1
1
1
1
1
1
1
1
1
1
1
1
1
1
1
1
1
1
1
1
1
1
1
1
1
1
1
1
1
1
1
1
1
1
1
1
1
1
1
1
1
1
1
1
1
1
1
1
1
1
1
1
1
1
1
1
1
1
1
1
1
1
1
1
1
1
1
1
1
1
1
1
1
1
1
1
1
1
1
1
1
1
1
1
1
1
1
1
1
1
1
1
1
1
1
1
1
1
1
1
1
1
1
1
1
1
1
1
1
1
1
1
1
1
1
1
1
1
1
1
1
1
1
1
1
1
1
1
1
1
1
1
1
1
1
1
1
1
1
1
1
1
1
1
1
1
1
1
1
1
1
1
1
1
1
1
1
1
1
1
1
1
1
1
1
1
1
1
1
1
1
1
1
1
1
1
1
1
1
1
1
1
1
1
1
1
1
1
1
1
1
1
1
1
1
1
1
1
1
1
1
1
1
1
1
1
1
1
1
1
1
1
1
1
1
1
1
1
1
1
1
1
1
1
1
1
1
1
1
1
1
1
1
1
1
1
1
1
1
1
1
1
1
1
1
1
1
1
1
1
1
1
1
1
1
1
1
1
1
1
1
1
1
1
1
1
1
1
1
1
1
1
1
1
1
1
1
1
1
1
1
1
1
1
1
1
1
1
1
1
1
1
1
1
1
1
1
1
1
1
1
1
1
1
1
1
1
1
1
1
1
1
1
1
1
1
1
1
1
1
1
1
1
1
1
1
1
1
1
1
1
1
1
1
1
1
1
1
1
1
1
1
1
1
1
1
1
1
1
1
1
1
1
1
1
1
1
1
1
1
1
1
1
1
1
1
1
1
1
1
1
1
1
1
1
1
1
1
1
1
1
1
1
1
1
1
1
1
1
1
1
1
1
1
1
1
1
1
1
1
1
1
1
1
1
1
1
1
1
1
1
1
1
1
1
1
1
1
1
1
1
1
1
1
1
1
1
1
1
1
1
1
1
1
1
1
1
1
1
1
1
1
1
1
1
1
1
1
1
1
1
1
1
1
1
1
1
1
1
1
1
1
1
1
1
1
1
1
1
1
1
1
1
1
1
1
1
1
1
1
1
1
1
1
1
1
1
1
1
1
1
1
1
1
1
1
1
1
1
1
1
1
1
1
1
1
1
1
1
1
1
1
1
1
1
1
1
1
1
1
1
1
1
1
1
1
1
1
1
1
1
1
1
1
1
1
1
1
1
1
1
1
1
1
1
1
1
1
1
1
1
1
1
1
1
1
1
1
1
1
1
1
1
1
1
1
1
1
1
1
1
1
1
1
1
1
1
1
1
1
1
1
1
1
1
1
1
1
1
1
1
1
1
1
1
1
1
1
1
1
1
1
1
1
1
1
1
1
1
1
1
1
1
1
1
1
1
1
1
1
1
1
1
1
1
1
1
1
1
1
1
1
1
1
1
1
1
1
1
1
1
1
1
1
1
1
1
1
1
1
1
1
1
1
1
1
1
1
1
1
1
1
1
1
1
1
1
1
1
1
1
1
1
1
1
1
1
1
1
1
1
1
1
1
1
1
1
1
1
1
1
1
1
1
1
1
1
1
1
1
1
1
1
1
1
1
1
1
1
1
1
1
1
1
1
1
1
1
1
1
1
1
1
1
1
1
1
1
1
1
1
1
1
1
1
1
1
1
1
1
1
1
1
1
1
1
1
1
1
1
1
1
1
1
1
1
1
1
1
1
1
1
1
1
1
1
1
1
1
1
1
1
1
1
1
1
1
1
1
1
1
1
1
1
1
1
1
1
1
1
1
1
1
1
1
1
1
1
1
1
1
1
1
1
1
1
1
1
1
1
1
1
1
1
1
1
1
1
1
1
1
1
1
1
1
1
1
1
1
1
1
1
1
1
1
1
1
1
1
1
1
1
1
1
1
1
1
1
1
1
1
1
1
1
1
1
1
1
1
1
1
1
1
1
1
1
1
1
1
1
1
1
1
1
1
1
1
1
1
1
1
1
1
1
1
1
1
1
1
1
1
1
1
1
1
1
1
1
1
1
1
1
1
1
1
1
1
1
1
1
1
1
1
1
1
1
1
1
1
1
1
1
1
1
1
1
1
1
1
1
1
1
1
1
1
1
1
1
1
1
1
1
1
1
1
1
1
1
1
1
1
1
1
1
1
1
1
1
1
1
1
1
1
1
1
1
1
1
1
1
1
1
1
1
1
1
1
1
1
1
1
1
1
1
1
1
1
1
1
1
1
1
1
1
1
1
1
1
1
1
1
1
1
1
1
1
1
1
1
1
1
1
1
1
1
1
1
1
1
1
1
1
1
1
1
1
1
1
1
1
1
1
1
1
1
1
1
1
1
1
1
1
1
1
1
1
1
1
1
1
1
1
1
1
1
1
1
1
1
1
1
1
1
1
1
1
1
1
1
1
1
1
1
1
1
1
1
1
1
1
1
1
1
1
1
1
1
1
1
1
1
1
1
1
1
1
1
1
1
1
1
1
1
1
1
1
1
1
1
1
1
1
1
1
1
1
1
1
1
1
1
1
1
1
1
1
1
1
1
1
1
1
1
1
1
1
1
1
1
1
1
1
1
1
1
1
1
1
1
1
1
1
1
1
1
1
1
1
1
1
1
1
1
1
1
1
1
1
1
1
1
1
1
1
1
1
1
1
1
1
1
1
1
1
1
1
1
1
1
1
1
1
1
1
1
1
1
1
1
1
1
1
1
1
1
1
1
1
1
1
1
1
1
1
1
1
1
1
1
1
1
1
1
1
1
1
1
1
1
1
1
1
1
1
1
1
1
1
1
1
1
1
1
1
1
1
1
1
1
1
1
1
1
1
1
1
1
1
1
1
1
1
1
1
1
1
1
1
1
1
1
1
1
1
1
1
1
1
1
1
1
1
1
1
1
1
1
1
1
1
1
1
1
1
1
1
1
1
1
1
1
1
1
1
1
1
1
1
1
1
1
1
1
1
1
1
1
1
1
1
1
1
1
1
1
1
1
1
1
1
1
1
1
1
1
1
1
1
1
1
1
1
1
1
1
1
1
1
1
1
1
1
1
1
1
1
1
1
1
1
1
1
1
1
1
1
1
1
1
1
1
1
1
1
1
1
1
1
1
1
1
1
1
1
1
1
1
1
1
1
1
1
1
1
1
1
1
1
1
1
1
1
1
1
1
1
1
1
1
1
1
1
1
1
1
1
1
1
1
1
1
1
1
1
1
1
1
1
1
1
1
1
1
1
1
1
1
1
1
1
1
1
1
1
1
1
1
1
1
1
1
1
1
1
1
1
1
1
1
1
1
1
1
1
1.07786
1.182
1.28284
1.37686
1.48022
1.55563
1.6201
1.6709
1.6951
1.6882
1.65853
1.61473
1.57486
1.54084
1.52457
1.51261
1.51258
1.51512
1.52048
1.5258
1.52979
1.53171
1.53343
1.53572
1.53826
1.54028
1.54138
1.54195
1.54285
1.54472
1.54631
1.5466
1.54656
1.54605
1.54493
1.54402
1.54369
1.54365
1.5439
1.54431
1.54465
1.54511
1.54529
1.54543
1.54555
1.54557
1.54556
1.54582
1.00055
1.00486
1.02719
1.06711
1.12895
1.21647
1.2991
1.37927
1.45243
1.50516
1.52737
1.56298
1.56865
1.56287
1.55208
1.54555
1.54027
1.53498
1.53401
1.53338
1.53473
1.53681
1.53888
1.54043
1.54172
1.54302
1.54392
1.54406
1.54435
1.54532
1.54657
1.54748
1.54788
1.54782
1.54734
1.54672
1.54654
1.54671
1.54717
1.54768
1.54804
1.54809
1.54799
1.54775
1.54724
1.54678
1.54667
1.54719
1
0.999992
1.00002
1.00002
1.00046
1.00466
1.02107
1.07531
1.18146
1.34897
1.49728
1.58498
1.62526
1.62313
1.61198
1.59686
1.5819
1.56026
1.54863
1.54764
1.54897
1.55087
1.55271
1.55311
1.55323
1.55303
1.55375
1.55375
1.55358
1.55363
1.55407
1.55456
1.55443
1.55415
1.55364
1.55308
1.55289
1.55299
1.55346
1.55423
1.55479
1.5548
1.55444
1.5538
1.553
1.55212
1.55163
1.55258
1
1
1
1
0.999999
1
0.999992
1.00004
1.0019
1.02779
1.15647
1.33022
1.51358
1.57577
1.61008
1.60605
1.59506
1.5924
1.58495
1.57906
1.57562
1.57104
1.5685
1.56606
1.5655
1.5661
1.56765
1.56888
1.56908
1.56886
1.5684
1.56794
1.56741
1.56673
1.56606
1.56506
1.56409
1.56377
1.56384
1.56414
1.56422
1.56388
1.56298
1.56182
1.56073
1.56008
1.5597
1.56064
1
1
1
1
1
1
1
1
1
0.999968
1.00089
1.01449
1.11425
1.29222
1.4682
1.58121
1.60523
1.61861
1.61551
1.60691
1.59157
1.57898
1.5746
1.57287
1.57232
1.57291
1.57495
1.5771
1.57891
1.58008
1.58036
1.58028
1.57969
1.57878
1.57806
1.57708
1.576
1.57552
1.57551
1.57547
1.57509
1.57416
1.57286
1.57136
1.57017
1.56953
1.56896
1.56972
1
1
1
1
1
1
1
1
1
0.999999
0.999999
0.999981
1.00032
1.01112
1.07632
1.26455
1.42945
1.56223
1.59921
1.59676
1.59711
1.59038
1.58352
1.58069
1.57911
1.57781
1.57773
1.57826
1.57966
1.58168
1.58391
1.58504
1.5848
1.58418
1.5833
1.58244
1.58184
1.58178
1.58188
1.5818
1.58127
1.58033
1.57932
1.57845
1.57782
1.57747
1.57695
1.57795
1
1
1
1
1
1
1
1
1
1
1
0.999999
0.999999
0.999988
1.00012
1.00855
1.06724
1.21537
1.39572
1.51121
1.58595
1.59646
1.5939
1.59154
1.58737
1.58195
1.57802
1.57792
1.57851
1.57984
1.58141
1.58317
1.58393
1.58376
1.58312
1.58298
1.58321
1.58392
1.58439
1.58434
1.58395
1.58336
1.58293
1.58269
1.58247
1.58234
1.58206
1.58269
1
1
1
1
1
1
1
1
1
1
1
1
1
0.999999
0.999999
0.99999
1.00014
1.00431
1.05802
1.18683
1.37482
1.48242
1.55193
1.58154
1.58423
1.5825
1.57985
1.57955
1.57907
1.57862
1.57847
1.57841
1.57953
1.5808
1.58157
1.58231
1.58309
1.58411
1.58475
1.58473
1.58441
1.5838
1.58353
1.58352
1.58349
1.58338
1.58338
1.5836
1
1
1
1
1
1
1
1
1
1
1
1
1
1
1
0.999999
0.999999
0.999993
1.00016
1.00363
1.04535
1.18345
1.34244
1.47579
1.52285
1.55442
1.57018
1.57484
1.57447
1.57293
1.57348
1.57417
1.57515
1.57664
1.57841
1.58016
1.5817
1.58284
1.58313
1.5831
1.58294
1.58263
1.58235
1.58234
1.58245
1.58253
1.58275
1.58289
1
1
1
1
1
1
1
1
1
1
1
1
1
1
1
1
1
0.999999
0.999999
0.999994
1.00011
1.00456
1.03604
1.16753
1.32135
1.46457
1.52688
1.54401
1.55664
1.55962
1.56333
1.56515
1.566
1.56776
1.57038
1.57292
1.5751
1.57652
1.57745
1.57802
1.57847
1.57901
1.57945
1.57978
1.58015
1.58055
1.58121
1.58124
1
1
1
1
1
1
1
1
1
1
1
1
1
1
1
1
1
1
1
1
1
0.999995
1.00008
1.00419
1.0367
1.15012
1.32456
1.45096
1.52876
1.54803
1.55272
1.55665
1.55848
1.56038
1.56211
1.56369
1.56557
1.56771
1.56962
1.57081
1.57167
1.57262
1.57333
1.57394
1.57478
1.57564
1.57701
1.57732
1
1
1
1
1
1
1
1
1
1
1
1
1
1
1
1
1
1
1
1
1
1
1
0.999996
1.00012
1.00328
1.04555
1.15371
1.32716
1.44524
1.52046
1.5493
1.55645
1.5597
1.56139
1.56109
1.56126
1.56292
1.56497
1.56607
1.56671
1.56701
1.56726
1.5679
1.56906
1.5702
1.57179
1.57224
1
1
1
1
1
1
1
1
1
1
1
1
1
1
1
1
1
1
1
1
1
1
1
0.999999
1
0.999996
1.00026
1.00381
1.04699
1.17511
1.34096
1.45295
1.51189
1.5441
1.55495
1.55594
1.55747
1.55951
1.56091
1.56221
1.56282
1.56292
1.56332
1.564
1.56501
1.56612
1.56758
1.56784
1
1
1
1
1
1
1
1
1
1
1
1
1
1
1
1
1
1
1
1
1
1
1
1
1
0.999999
1
0.999997
1.00036
1.00639
1.05244
1.20261
1.36504
1.48699
1.5188
1.53371
1.54528
1.55128
1.55318
1.55479
1.55662
1.55818
1.5591
1.55998
1.56097
1.56185
1.56335
1.56338
1
1
1
1
1
1
1
1
1
1
1
1
1
1
1
1
1
1
1
1
1
1
1
1
1
1
1
1
1
1
1.0005
1.0121
1.07262
1.24229
1.39872
1.50979
1.53983
1.54303
1.54705
1.54894
1.55098
1.55287
1.5543
1.5554
1.55679
1.55845
1.5598
1.55974
1
1
1
1
1
1
1
1
1
1
1
1
1
1
1
1
1
1
1
1
1
1
1
1
1
1
1
1
1
1
0.999999
1.00003
1.00101
1.02169
1.1101
1.29781
1.43965
1.52006
1.55186
1.55295
1.55646
1.55712
1.55668
1.55594
1.55631
1.55728
1.55768
1.55749
1
1
1
1
1
1
1
1
1
1
1
1
1
1
1
1
1
1
1
1
1
1
1
1
1
1
1
1
1
1
1
1
0.999999
1.00012
1.00265
1.04205
1.17389
1.35975
1.47195
1.52692
1.55359
1.5564
1.55578
1.55688
1.55765
1.55808
1.55817
1.55774
1
1
1
1
1
1
1
1
1
1
1
1
1
1
1
1
1
1
1
1
1
1
1
1
1
1
1
1
1
1
1
1
1
1
1
1.0005
1.00822
1.08038
1.2559
1.43826
1.5145
1.53081
1.5422
1.55085
1.55425
1.5556
1.55614
1.55604
1
1
1
1
1
1
1
1
1
1
1
1
1
1
1
1
1
1
1
1
1
1
1
1
1
1
1
1
1
1
1
1
1
1
1
0.999999
1.00002
1.00209
1.02801
1.15748
1.34808
1.49231
1.54594
1.54932
1.5528
1.55375
1.55334
1.55349
1
1
1
1
1
1
1
1
1
1
1
1
1
1
1
1
1
1
1
1
1
1
1
1
1
1
1
1
1
1
1
1
1
1
1
1
1
1
1.00024
1.00867
1.07873
1.26512
1.44105
1.52557
1.55837
1.5602
1.5592
1.55781
1
1
1
1
1
1
1
1
1
1
1
1
1
1
1
1
1
1
1
1
1
1
1
1
1
1
1
1
1
1
1
1
1
1
1
1
1
1
1
1.00005
1.00185
1.03574
1.18601
1.38817
1.49143
1.53641
1.55765
1.5577
1
1
1
1
1
1
1
1
1
1
1
1
1
1
1
1
1
1
1
1
1
1
1
1
1
1
1
1
1
1
1
1
1
1
1
1
1
1
1
1
1
1.00062
1.01252
1.11445
1.30965
1.49125
1.53906
1.5463
1
1
1
1
1
1
1
1
1
1
1
1
1
1
1
1
1
1
1
1
1
1
1
1
1
1
1
1
1
1
1
1
1
1
1
1
1
1
1
1
1
1
1.00008
1.0057
1.05918
1.26012
1.44668
1.54415
1
1
1
1
1
1
1
1
1
1
1
1
1
1
1
1
1
1
1
1
1
1
1
1
1
1
1
1
1
1
1
1
1
1
1
1
1
1
1
1
1
1
1
1.00004
1.00151
1.03991
1.19701
1.42786
1
1
1
1
1
1
1
1
1
1
1
1
1
1
1
1
1
1
1
1
1
1
1
1
1
1
1
1
1
1
1
1
1
1
1
1
1
1
1
1
1
1
1
1
1
1.00095
1.01896
1.14656
1
1
1
1
1
1
1
1
1
1
1
1
1
1
1
1
1
1
1
1
1
1
1
1
1
1
1
1
1
1
1
1
1
1
1
1
1
1
1
1
1
1
1
1
1
1
1.00031
1.00698
1
1
1
1
1
1
1
1
1
1
1
1
1
1
1
1
1
1
1
1
1
1
1
1
1
1
1
1
1
1
1
1
1
1
1
1
1
1
1
1
1
1
1
1
1
1
1
0.999933
1
1
1
1
1
1
1
1
1
1
1
1
1
1
1
1
1
1
1
1
1
1
1
1
1
1
1
1
1
1
1
1
1
1
1
1
1
1
1
1
1
1
1
1
1
1
1
0.999981
1
1
1
1
1
1
1
1
1
1
1
1
1
1
1
1
1
1
1
1
1
1
1
1
1
1
1
1
1
1
1
1
1
1
1
1
1
1
1
1
1
1
1
1
1
1
1
0.999997
1
1
1
1
1
1
1
1
1
1
1
1
1
1
1
1
1
1
1
1
1
1
1
1
1
1
1
1
1
1
1
1
1
1
1
1
1
1
1
1
1
1
1
1
1
1
1
1
1
1
1
1
1
1
1
1
1
1
1
1
1
1
1
1
1
1
1
1
1
1
1
1
1
1
1
1
1
1
1
1
1
1
1
1
1
1
1
1
1
1
1
1
1
1
1
1
1
1
1
1
1
1
1
1
1
1
1
1
1
1
1
1
1
1
1
1
1
1
1
1
1
1
1
1
1
1
1
1
1
1
1
1
1
1
1
1
1
1
1
1
1
1
1
1
1
1
1
1
1
1
1
1
1
1
1
1
1
1
1
1
1
1
1
1
1
1
1
1
1
1
1
1
1
1
1
1
1
1
1
1
1
1
1
1
1
1
1
1
1
1
1
1
1
1
1
1
1
1
1
1
1
1
1
1
1
1
1
1
1
1
1
1
1
1
1
1
1
1
1
1
1
1
1
1
1
1
1
1
1
1
1
1
1
1
1
1
1
1
1
1
1
1
1
1
1
1
1
1
1
1
1
1
1
1
1
1
1
1
1
1
1
1
1
1
1
1
1
1
1
1
1
1
1
1
1
1
1
1
1
1
1
1
1
1
1
1
1
1
1
1
1
1
1
1
1
1
1
1
1
1
1
1
1
1
1
1
1
1
1
1
1
1
1
1
1
1
1
1
1
1
1
1
1
1
1
1
1
1
1
1
1
1
1
1
1
0.999997
1
1
1
1
1
1
1
1
1
1
1
1
1
1
1
1
1
1
1
1
1
1
1
1
1
1
1
1
1
1
1
1
1
1
1
1
1
1
1
1
1
1
1
1
1
1
1
0.999981
1
1
1
1
1
1
1
1
1
1
1
1
1
1
1
1
1
1
1
1
1
1
1
1
1
1
1
1
1
1
1
1
1
1
1
1
1
1
1
1
1
1
1
1
1
1
1
0.999933
1
1
1
1
1
1
1
1
1
1
1
1
1
1
1
1
1
1
1
1
1
1
1
1
1
1
1
1
1
1
1
1
1
1
1
1
1
1
1
1
1
1
1
1
1
1
1.00031
1.00698
1
1
1
1
1
1
1
1
1
1
1
1
1
1
1
1
1
1
1
1
1
1
1
1
1
1
1
1
1
1
1
1
1
1
1
1
1
1
1
1
1
1
1
1
1
1.00095
1.01896
1.14656
1
1
1
1
1
1
1
1
1
1
1
1
1
1
1
1
1
1
1
1
1
1
1
1
1
1
1
1
1
1
1
1
1
1
1
1
1
1
1
1
1
1
1
1.00004
1.00151
1.03991
1.19701
1.42786
1
1
1
1
1
1
1
1
1
1
1
1
1
1
1
1
1
1
1
1
1
1
1
1
1
1
1
1
1
1
1
1
1
1
1
1
1
1
1
1
1
1
1.00008
1.0057
1.05918
1.26012
1.44667
1.54415
1
1
1
1
1
1
1
1
1
1
1
1
1
1
1
1
1
1
1
1
1
1
1
1
1
1
1
1
1
1
1
1
1
1
1
1
1
1
1
1
1
1.00062
1.01252
1.11445
1.30965
1.49125
1.53906
1.5463
1
1
1
1
1
1
1
1
1
1
1
1
1
1
1
1
1
1
1
1
1
1
1
1
1
1
1
1
1
1
1
1
1
1
1
1
1
1
1
1.00005
1.00185
1.03574
1.18601
1.38817
1.49143
1.53641
1.55765
1.5577
1
1
1
1
1
1
1
1
1
1
1
1
1
1
1
1
1
1
1
1
1
1
1
1
1
1
1
1
1
1
1
1
1
1
1
1
1
1
1.00024
1.00867
1.07873
1.26512
1.44105
1.52557
1.55837
1.5602
1.5592
1.55781
1
1
1
1
1
1
1
1
1
1
1
1
1
1
1
1
1
1
1
1
1
1
1
1
1
1
1
1
1
1
1
1
1
1
1
0.999999
1.00002
1.00209
1.02801
1.15748
1.34808
1.49231
1.54594
1.54932
1.5528
1.55375
1.55334
1.55349
1
1
1
1
1
1
1
1
1
1
1
1
1
1
1
1
1
1
1
1
1
1
1
1
1
1
1
1
1
1
1
1
1
1
1
1.0005
1.00822
1.08038
1.2559
1.43826
1.5145
1.53081
1.5422
1.55085
1.55425
1.5556
1.55614
1.55604
1
1
1
1
1
1
1
1
1
1
1
1
1
1
1
1
1
1
1
1
1
1
1
1
1
1
1
1
1
1
1
1
0.999999
1.00012
1.00265
1.04205
1.17389
1.35975
1.47195
1.52692
1.55359
1.5564
1.55578
1.55688
1.55765
1.55808
1.55817
1.55774
1
1
1
1
1
1
1
1
1
1
1
1
1
1
1
1
1
1
1
1
1
1
1
1
1
1
1
1
1
1
0.999999
1.00003
1.00101
1.02169
1.1101
1.29781
1.43965
1.52005
1.55186
1.55295
1.55646
1.55712
1.55668
1.55594
1.55631
1.55728
1.55768
1.55749
1
1
1
1
1
1
1
1
1
1
1
1
1
1
1
1
1
1
1
1
1
1
1
1
1
1
1
1
1
1
1.0005
1.0121
1.07262
1.24229
1.39872
1.50979
1.53983
1.54303
1.54705
1.54894
1.55098
1.55287
1.5543
1.5554
1.55679
1.55845
1.5598
1.55974
1
1
1
1
1
1
1
1
1
1
1
1
1
1
1
1
1
1
1
1
1
1
1
1
1
0.999999
1
0.999997
1.00036
1.00639
1.05244
1.20261
1.36504
1.487
1.5188
1.53371
1.54528
1.55128
1.55318
1.55479
1.55662
1.55818
1.5591
1.55998
1.56097
1.56185
1.56335
1.56338
1
1
1
1
1
1
1
1
1
1
1
1
1
1
1
1
1
1
1
1
1
1
1
0.999999
1
0.999996
1.00026
1.00381
1.04699
1.17511
1.34096
1.45295
1.51189
1.5441
1.55495
1.55594
1.55747
1.55951
1.56091
1.56221
1.56282
1.56292
1.56332
1.564
1.56501
1.56612
1.56758
1.56784
1
1
1
1
1
1
1
1
1
1
1
1
1
1
1
1
1
1
1
1
1
1
1
0.999996
1.00012
1.00328
1.04555
1.15371
1.32716
1.44524
1.52046
1.5493
1.55645
1.5597
1.56139
1.56109
1.56126
1.56292
1.56497
1.56607
1.56671
1.56701
1.56726
1.5679
1.56906
1.5702
1.57179
1.57224
1
1
1
1
1
1
1
1
1
1
1
1
1
1
1
1
1
1
1
1
1
0.999995
1.00008
1.00419
1.0367
1.15012
1.32456
1.45096
1.52876
1.54803
1.55272
1.55665
1.55848
1.56038
1.56211
1.56369
1.56557
1.56771
1.56962
1.57081
1.57167
1.57262
1.57333
1.57394
1.57478
1.57564
1.57701
1.57732
1
1
1
1
1
1
1
1
1
1
1
1
1
1
1
1
1
0.999999
0.999999
0.999994
1.00011
1.00456
1.03604
1.16753
1.32135
1.46457
1.52688
1.54401
1.55664
1.55962
1.56333
1.56515
1.566
1.56776
1.57038
1.57292
1.5751
1.57652
1.57745
1.57802
1.57847
1.57901
1.57945
1.57978
1.58015
1.58055
1.58121
1.58124
1
1
1
1
1
1
1
1
1
1
1
1
1
1
1
0.999999
0.999999
0.999993
1.00016
1.00363
1.04535
1.18345
1.34244
1.47579
1.52285
1.55442
1.57018
1.57484
1.57447
1.57293
1.57348
1.57417
1.57515
1.57664
1.57841
1.58016
1.5817
1.58284
1.58313
1.5831
1.58294
1.58263
1.58235
1.58234
1.58245
1.58253
1.58275
1.58289
1
1
1
1
1
1
1
1
1
1
1
1
1
0.999999
0.999999
0.99999
1.00014
1.00431
1.05802
1.18683
1.37482
1.48242
1.55193
1.58154
1.58423
1.5825
1.57985
1.57955
1.57907
1.57862
1.57847
1.57841
1.57953
1.5808
1.58157
1.58231
1.58309
1.58411
1.58475
1.58473
1.58441
1.5838
1.58353
1.58352
1.58349
1.58338
1.58338
1.5836
1
1
1
1
1
1
1
1
1
1
1
0.999999
0.999999
0.999988
1.00012
1.00854
1.06724
1.21537
1.39572
1.51121
1.58595
1.59646
1.5939
1.59154
1.58737
1.58195
1.57802
1.57792
1.57851
1.57984
1.58141
1.58317
1.58393
1.58376
1.58312
1.58298
1.58321
1.58392
1.58439
1.58434
1.58395
1.58336
1.58293
1.58269
1.58247
1.58234
1.58206
1.58269
1
1
1
1
1
1
1
1
1
0.999999
0.999999
0.999981
1.00032
1.01112
1.07632
1.26455
1.42945
1.56223
1.59921
1.59676
1.59711
1.59038
1.58353
1.58069
1.57911
1.57781
1.57773
1.57826
1.57966
1.58168
1.58391
1.58504
1.5848
1.58418
1.5833
1.58244
1.58184
1.58178
1.58188
1.5818
1.58127
1.58033
1.57932
1.57845
1.57782
1.57747
1.57695
1.57795
1
1
1
1
1
1
1
1
1
0.999968
1.00089
1.01449
1.11425
1.29222
1.4682
1.58122
1.60523
1.61861
1.61551
1.60691
1.59157
1.57898
1.5746
1.57287
1.57232
1.57291
1.57495
1.5771
1.57891
1.58008
1.58036
1.58028
1.57969
1.57878
1.57806
1.57708
1.576
1.57552
1.57551
1.57547
1.57509
1.57416
1.57286
1.57136
1.57017
1.56953
1.56896
1.56972
1
1
1
1
0.999999
1
0.999992
1.00004
1.0019
1.02779
1.15647
1.33022
1.51358
1.57577
1.61008
1.60605
1.59506
1.5924
1.58495
1.57906
1.57562
1.57104
1.5685
1.56606
1.5655
1.5661
1.56765
1.56888
1.56908
1.56886
1.5684
1.56794
1.56741
1.56673
1.56606
1.56506
1.56409
1.56377
1.56384
1.56414
1.56422
1.56388
1.56298
1.56182
1.56073
1.56008
1.5597
1.56064
1
0.999992
1.00002
1.00002
1.00046
1.00466
1.02107
1.07531
1.18146
1.34897
1.49728
1.58498
1.62526
1.62313
1.61198
1.59686
1.5819
1.56026
1.54863
1.54764
1.54897
1.55087
1.55271
1.55311
1.55323
1.55303
1.55375
1.55375
1.55358
1.55363
1.55407
1.55456
1.55443
1.55415
1.55364
1.55308
1.55289
1.55299
1.55346
1.55423
1.55479
1.5548
1.55444
1.5538
1.553
1.55212
1.55163
1.55258
1.00055
1.00486
1.02719
1.06711
1.12895
1.21647
1.2991
1.37927
1.45243
1.50516
1.52737
1.56298
1.56865
1.56287
1.55208
1.54555
1.54027
1.53498
1.53401
1.53338
1.53473
1.53681
1.53888
1.54043
1.54172
1.54302
1.54392
1.54406
1.54435
1.54532
1.54657
1.54748
1.54788
1.54782
1.54734
1.54672
1.54654
1.54671
1.54717
1.54768
1.54804
1.54809
1.54799
1.54775
1.54724
1.54678
1.54667
1.54719
1.07786
1.182
1.28284
1.37686
1.48022
1.55563
1.6201
1.6709
1.6951
1.6882
1.65853
1.61473
1.57486
1.54084
1.52457
1.51261
1.51258
1.51512
1.52048
1.5258
1.52979
1.53171
1.53343
1.53572
1.53826
1.54028
1.54138
1.54195
1.54285
1.54472
1.54631
1.5466
1.54656
1.54605
1.54493
1.54402
1.54369
1.54365
1.5439
1.54431
1.54465
1.54511
1.54529
1.54543
1.54555
1.54557
1.54556
1.54582
1.40326
1.2433
1.08693
1.02127
1.01527
1.00016
0.998404
1.02144
1.05043
1.05828
1.06581
1.08817
1.11237
1.11509
1.11355
1.11721
1.1183
1.1171
1.11743
1.11931
1.11909
1.11801
1.11642
1.11469
1.11092
1.10615
1.10331
1.10139
1.0996
1.0972
1.09432
1.09231
1.09122
1.08952
1.08623
1.08254
1.08104
1.08057
1.08019
1.07959
1.07841
1.07632
1.0744
1.07355
1.07315
1.07271
1.07231
1.07185
1.07136
1.07073
1.06999
1.06873
1.0668
1.065
1.06406
1.06354
1.06309
1.06236
1.06157
1.06081
1.06168
1.06943
1.1089
1.20526
1.3526
1.50213
1.61825
1.71163
1.79276
1.85859
1.90008
1.93743
1.95365
1.94161
1.91598
1.88279
1.85356
1.83
1.80985
1.79243
1.77259
1.74895
1.73693
1.73062
1.72301
1.71545
1.70843
1.70117
1.68941
1.67236
1.65367
1.64296
1.6395
1.63656
1.63202
1.62502
1.61706
1.60708
1.59212
1.57652
1.56817
1.56327
1.55887
1.55363
1.5479
1.54089
1.52943
1.51256
1.49882
1.49096
1.48488
1.47817
1.46995
1.45946
1.44654
1.43519
1.42785
1.42199
1.41608
1.40832
1.39528
1.38251
1.37845
1.37626
1.37436
1.37229
1.36995
1.36596
1.35896
1.35479
1.35371
1.35264
1.35064
1.34775
1.34387
1.33735
1.32582
1.31395
1.30868
1.30527
1.30187
1.29947
1.29775
1.29609
1.294
1.28976
1.28016
1.26878
1.26378
1.26044
1.25628
1.2512
1.24604
1.24143
1.2373
1.23355
1.23035
1.22829
1.22673
1.2242
1.21931
1.21347
1.20908
1.20536
1.20104
1.19788
1.19761
1.19794
1.19843
1.1984
1.19751
1.19733
1.19829
1.19919
1.19985
1.20131
1.20435
1.20772
1.20967
1.20976
1.20683
1.20254
1.20033
1.19786
1.19335
1.18498
1.17192
1.15449
1.13062
1.10122
1.08536
1.08201
1.49969
1.42432
1.33139
1.23081
1.18861
1.14974
1.09811
1.08774
1.07566
1.05727
1.05345
1.0577
1.06713
1.07018
1.07275
1.07885
1.08635
1.08844
1.09086
1.09643
1.10241
1.10291
1.10225
1.10182
1.10088
1.098
1.09597
1.09529
1.0944
1.09266
1.09036
1.08848
1.08723
1.08567
1.08295
1.07972
1.07741
1.07633
1.07566
1.0748
1.0733
1.07138
1.07026
1.06991
1.06964
1.06911
1.06859
1.06805
1.06735
1.06671
1.0661
1.06506
1.0637
1.06252
1.06141
1.06025
1.05924
1.05861
1.05901
1.06388
1.09703
1.17936
1.29003
1.36963
1.43648
1.46448
1.49621
1.53788
1.58425
1.63688
1.68137
1.72042
1.7614
1.78341
1.7964
1.80595
1.8185
1.82771
1.82047
1.81002
1.79417
1.77284
1.7574
1.74693
1.73766
1.72863
1.7187
1.70972
1.69769
1.68103
1.66292
1.65192
1.64898
1.64641
1.64031
1.6323
1.62359
1.61303
1.59897
1.58354
1.57348
1.56831
1.56338
1.55786
1.55207
1.54488
1.5335
1.51852
1.50651
1.49849
1.49147
1.48402
1.47575
1.46631
1.45489
1.44285
1.43386
1.42727
1.42074
1.41243
1.40041
1.38865
1.38462
1.38266
1.38036
1.37772
1.37465
1.37039
1.36462
1.36224
1.36209
1.361
1.35849
1.35495
1.35015
1.34332
1.33362
1.32318
1.31656
1.31222
1.3085
1.3054
1.30309
1.3011
1.29888
1.29533
1.28783
1.27679
1.27042
1.26658
1.26216
1.25703
1.25191
1.24747
1.24366
1.24039
1.23776
1.23555
1.23353
1.23078
1.2263
1.22052
1.21554
1.21125
1.20653
1.2034
1.20317
1.20355
1.20461
1.20532
1.2051
1.20527
1.20647
1.20708
1.20715
1.20755
1.20894
1.21141
1.21233
1.21199
1.20996
1.20562
1.20289
1.20032
1.19561
1.18675
1.17305
1.15452
1.13029
1.10274
1.08837
1.08545
1.53804
1.49687
1.43597
1.35722
1.2889
1.23339
1.16716
1.12411
1.10211
1.07324
1.04712
1.04741
1.04965
1.04642
1.04671
1.05015
1.05471
1.05894
1.06318
1.07153
1.081
1.08246
1.08208
1.08273
1.08321
1.08226
1.08233
1.08333
1.08401
1.08325
1.08143
1.07925
1.07699
1.07467
1.07231
1.07018
1.06831
1.06699
1.06616
1.06491
1.06258
1.06128
1.06096
1.06095
1.06107
1.06102
1.06082
1.06049
1.0599
1.0588
1.05754
1.05651
1.05574
1.05477
1.05377
1.05301
1.0536
1.05755
1.08102
1.14735
1.26345
1.36527
1.44246
1.46187
1.45648
1.45524
1.46042
1.47085
1.47688
1.48529
1.50474
1.53833
1.59291
1.65999
1.72638
1.78016
1.81433
1.82339
1.82766
1.82459
1.81408
1.79697
1.78043
1.76716
1.74869
1.72932
1.71607
1.70779
1.69939
1.68909
1.67868
1.66948
1.65929
1.64662
1.63524
1.62678
1.61902
1.60964
1.5987
1.58979
1.57972
1.56673
1.55748
1.55167
1.54549
1.53862
1.52933
1.51956
1.51019
1.49837
1.48721
1.47975
1.47236
1.46392
1.45341
1.4412
1.42991
1.42207
1.41566
1.40851
1.40012
1.39492
1.39049
1.38293
1.37348
1.36942
1.3671
1.36476
1.36267
1.36241
1.36204
1.35969
1.35527
1.35144
1.34662
1.34006
1.33222
1.32394
1.31543
1.30847
1.30396
1.3004
1.29747
1.29512
1.29284
1.28957
1.28273
1.27263
1.26698
1.26314
1.25848
1.25339
1.24873
1.24484
1.24111
1.23706
1.23338
1.23085
1.22882
1.22608
1.22182
1.21643
1.21134
1.20655
1.20169
1.19922
1.19907
1.19932
1.20004
1.20026
1.20008
1.20041
1.20134
1.20152
1.20154
1.20222
1.20368
1.20626
1.2097
1.2106
1.20974
1.20654
1.20405
1.20166
1.19716
1.18878
1.17397
1.15171
1.12384
1.09789
1.08806
1.08693
1.55579
1.53719
1.49923
1.44148
1.37773
1.32084
1.258
1.2043
1.17641
1.14278
1.09674
1.08738
1.07652
1.0566
1.04966
1.0508
1.04839
1.04464
1.04561
1.05054
1.05643
1.05826
1.05965
1.06293
1.0676
1.06878
1.07
1.07241
1.07295
1.0724
1.07105
1.06976
1.06838
1.06675
1.06517
1.06398
1.06293
1.06155
1.05975
1.0573
1.05482
1.05392
1.0534
1.05284
1.05261
1.05253
1.05239
1.05213
1.05111
1.04957
1.04896
1.04868
1.04831
1.04747
1.0475
1.04923
1.06947
1.12877
1.2299
1.34254
1.42466
1.45312
1.46919
1.48168
1.48247
1.47876
1.47248
1.46581
1.46092
1.45692
1.45562
1.45499
1.45746
1.47216
1.50876
1.57326
1.64413
1.69762
1.74302
1.77565
1.78256
1.78023
1.77181
1.76573
1.75846
1.74906
1.73892
1.72958
1.72037
1.71307
1.70502
1.69418
1.67545
1.65323
1.63683
1.62623
1.61951
1.61427
1.60917
1.60143
1.58992
1.5743
1.56245
1.55411
1.5444
1.53606
1.53039
1.52423
1.51554
1.50253
1.48771
1.48015
1.47508
1.46727
1.45665
1.4442
1.43214
1.4217
1.41492
1.41145
1.4092
1.40619
1.40073
1.38981
1.37349
1.36599
1.3657
1.36606
1.36735
1.36819
1.36781
1.3646
1.35783
1.35232
1.34836
1.3436
1.33731
1.32906
1.31902
1.31043
1.30483
1.30074
1.2971
1.29401
1.2911
1.28758
1.28157
1.27197
1.26609
1.26237
1.25829
1.25385
1.24986
1.24635
1.24267
1.23817
1.23288
1.22923
1.22704
1.22441
1.21998
1.21449
1.20973
1.2048
1.19987
1.19776
1.19757
1.19765
1.19802
1.19794
1.19757
1.19785
1.19837
1.19831
1.19801
1.19851
1.2004
1.20285
1.20708
1.21077
1.21077
1.20873
1.20641
1.20398
1.19986
1.19151
1.17388
1.14549
1.1132
1.093
1.08865
1.08868
1.56602
1.55938
1.5401
1.50078
1.44746
1.39681
1.33565
1.28126
1.24771
1.21094
1.15767
1.13147
1.11297
1.08604
1.06222
1.06049
1.05469
1.04567
1.04589
1.0501
1.05044
1.04874
1.04867
1.05016
1.05517
1.05969
1.06298
1.06625
1.06666
1.06636
1.06541
1.06445
1.06337
1.06245
1.06173
1.06107
1.06023
1.05872
1.05649
1.05387
1.05207
1.05137
1.05074
1.05001
1.04938
1.04896
1.04863
1.04791
1.04579
1.04435
1.04439
1.04446
1.04466
1.04595
1.05531
1.09396
1.21258
1.33935
1.4164
1.44684
1.47042
1.48994
1.4966
1.49526
1.49153
1.48338
1.47196
1.46276
1.45794
1.4556
1.45324
1.44801
1.44082
1.43714
1.43325
1.43379
1.44454
1.47617
1.52704
1.5949
1.65797
1.71345
1.74865
1.76352
1.7696
1.76572
1.75677
1.74617
1.73889
1.73107
1.71943
1.69889
1.67684
1.65965
1.6438
1.63232
1.62566
1.61856
1.61016
1.60333
1.5956
1.5846
1.57024
1.5552
1.54317
1.53428
1.52625
1.51849
1.51043
1.50144
1.49071
1.47966
1.47014
1.46158
1.45267
1.44411
1.43507
1.42339
1.41406
1.40952
1.4065
1.40325
1.39846
1.38976
1.37541
1.3652
1.36301
1.36288
1.36389
1.36616
1.36702
1.36666
1.36415
1.35782
1.34929
1.34183
1.33529
1.3289
1.3223
1.31536
1.30916
1.30439
1.30017
1.29559
1.29068
1.28552
1.27948
1.27356
1.26956
1.26527
1.25937
1.25479
1.252
1.24899
1.24512
1.24021
1.23454
1.23016
1.22734
1.22468
1.22153
1.21676
1.21108
1.20601
1.20158
1.19944
1.19903
1.1988
1.19846
1.19768
1.19733
1.19745
1.19775
1.19779
1.19814
1.20092
1.20397
1.20572
1.20718
1.21012
1.21164
1.21151
1.21037
1.20864
1.20451
1.19352
1.16985
1.13408
1.10203
1.09076
1.08992
1.09072
1.5752
1.57138
1.56363
1.54246
1.50318
1.45917
1.40772
1.35348
1.31335
1.27324
1.22649
1.19522
1.17148
1.14014
1.10935
1.10246
1.09226
1.07177
1.06505
1.06423
1.05866
1.05066
1.04769
1.04805
1.04867
1.0505
1.05479
1.06077
1.06192
1.0615
1.06171
1.06231
1.06197
1.06156
1.06091
1.06032
1.05973
1.05852
1.05623
1.05434
1.05346
1.05299
1.05266
1.052
1.05114
1.05023
1.04895
1.04688
1.04459
1.0436
1.04361
1.04409
1.05112
1.08272
1.16935
1.28987
1.40578
1.46288
1.49124
1.49839
1.50078
1.50052
1.49876
1.49505
1.48935
1.48282
1.47569
1.46647
1.45806
1.45271
1.44878
1.44388
1.43797
1.43244
1.42444
1.41597
1.40711
1.4002
1.39798
1.4062
1.43271
1.48144
1.55083
1.60531
1.64522
1.68248
1.69151
1.69688
1.70288
1.70192
1.69913
1.69352
1.68424
1.6707
1.65223
1.63914
1.63109
1.6216
1.61102
1.60515
1.59867
1.58909
1.5735
1.5548
1.53957
1.52928
1.52201
1.51526
1.50868
1.50208
1.49261
1.47904
1.46802
1.45996
1.45261
1.4454
1.437
1.425
1.414
1.40985
1.40746
1.40428
1.40014
1.39207
1.3749
1.36369
1.36346
1.36377
1.36653
1.37053
1.37205
1.37185
1.36775
1.35745
1.35014
1.34489
1.33881
1.33429
1.33041
1.326
1.31995
1.31143
1.30417
1.29797
1.29183
1.28632
1.28287
1.28092
1.2774
1.27039
1.26124
1.25776
1.25582
1.253
1.2497
1.24608
1.24162
1.23709
1.23352
1.23055
1.2272
1.22125
1.21358
1.20754
1.20558
1.20499
1.20472
1.20379
1.20297
1.20263
1.20255
1.20266
1.20263
1.20225
1.20099
1.20035
1.20078
1.20209
1.20709
1.21396
1.21615
1.21557
1.21423
1.21341
1.20933
1.19559
1.1651
1.12338
1.09669
1.09191
1.09183
1.0937
1.58153
1.57979
1.57621
1.56614
1.544
1.51141
1.46433
1.4184
1.3785
1.33389
1.2859
1.25578
1.22759
1.1949
1.1639
1.14803
1.13035
1.10316
1.08824
1.0814
1.07035
1.05743
1.05403
1.05447
1.05287
1.0526
1.05378
1.05687
1.05644
1.05547
1.05613
1.05826
1.06018
1.06171
1.06215
1.06195
1.06128
1.05977
1.05757
1.05627
1.05561
1.05539
1.05559
1.05521
1.05421
1.05284
1.05064
1.0479
1.04624
1.04599
1.0479
1.06633
1.15503
1.27987
1.37375
1.45305
1.5017
1.51619
1.51425
1.51014
1.50376
1.49862
1.49474
1.49029
1.48792
1.48439
1.47692
1.46273
1.45172
1.44655
1.44111
1.43672