/*--------------------------------*- C++ -*----------------------------------*\
  =========                 |
  \\      /  F ield         | OpenFOAM: The Open Source CFD Toolbox
   \\    /   O peration     | Website:  https://openfoam.org
    \\  /    A nd           | Version:  7
     \\/     M anipulation  |
\*---------------------------------------------------------------------------*/
FoamFile
{
    version     2.0;
    format      ascii;
    class       volVectorField;
    location    "0.6";
    object      U;
}
// * * * * * * * * * * * * * * * * * * * * * * * * * * * * * * * * * * * * * //

dimensions      [0 1 -1 0 0 0 0];

internalField   nonuniform List<vector> 
18432
(
(3 1.01336e-17 0)
(3 1.77496e-17 0)
(3 -7.15978e-17 0)
(3 5.40509e-17 0)
(3 2.30574e-16 0)
(3 -1.80399e-16 0)
(3 -3.59736e-16 0)
(3 -3.02676e-16 0)
(3 -5.26602e-16 0)
(3 -5.10728e-16 0)
(3 -6.38042e-16 0)
(3 -3.39182e-16 0)
(3 -2.15005e-16 0)
(3 1.09945e-17 0)
(3 -3.79268e-16 0)
(3 -2.35262e-16 0)
(3 5.37891e-17 0)
(3 1.47854e-16 0)
(3 1.45422e-16 0)
(3 3.00064e-16 0)
(3 3.25412e-16 0)
(3 4.60042e-16 0)
(3 7.56247e-16 0)
(3 -2.18607e-16 0)
(3 -3.9664e-16 0)
(3 -8.91135e-19 0)
(3 -5.63307e-16 0)
(3 -7.60073e-16 0)
(3 -9.26792e-16 0)
(3 2.37629e-16 0)
(3 7.60589e-16 0)
(3 1.18851e-15 0)
(3 1.59144e-15 0)
(3 1.23078e-15 0)
(3 -3.09549e-18 0)
(3 -6.23966e-16 0)
(3 -7.5657e-16 0)
(3 -1.06915e-15 0)
(3 -1.335e-15 0)
(3 -2.00812e-15 0)
(3 -2.00476e-15 0)
(3 -1.9955e-15 0)
(3 -7.12229e-16 0)
(3 -7.73757e-18 0)
(3 7.84171e-16 0)
(3 1.00217e-15 0)
(3 7.77719e-16 0)
(3 1.96876e-16 0)
(3 9.15219e-17 0)
(3 -2.77053e-16 0)
(3 -1.77746e-16 0)
(3 3.68318e-17 0)
(3 4.42238e-16 0)
(3 1.09232e-16 0)
(3 -3.29632e-16 0)
(3 -3.31899e-16 0)
(3 -2.09446e-16 0)
(3 -3.4531e-17 0)
(3 -1.19999e-16 0)
(3 -4.15583e-16 0)
(3 -4.58832e-16 0)
(3 -9.06002e-17 0)
(3 -1.75028e-16 0)
(3 5.98133e-16 0)
(3 1.47096e-15 0)
(3 1.56557e-15 0)
(3 1.10635e-15 0)
(3 9.7437e-16 0)
(3 8.35159e-16 0)
(3 7.29346e-16 0)
(3 -7.31025e-17 0)
(3 -2.18701e-15 0)
(3 -3.20826e-15 0)
(3 -3.17862e-15 0)
(3 -3.58982e-15 0)
(3 -3.14341e-15 0)
(3 -3.59822e-15 0)
(3 -3.038e-15 0)
(3 -1.8965e-15 0)
(3 -1.1414e-15 0)
(3 -3.42032e-16 0)
(3 -7.72791e-17 0)
(3 -4.87292e-16 0)
(3 -6.17131e-16 0)
(3 -2.71512e-17 0)
(3 -5.43215e-16 0)
(3 -1.93005e-15 0)
(3 -3.42811e-15 0)
(3 -4.25513e-15 0)
(3 -4.32704e-15 0)
(3 -1.51531e-15 0)
(3 -3.35868e-16 0)
(3 1.50767e-15 0)
(3 1.63034e-15 0)
(3 8.45746e-16 0)
(3 9.65895e-16 0)
(3 2.40837e-17 0)
(3 -1.18315e-16 0)
(3 -7.42214e-17 0)
(3 -2.55168e-16 0)
(3 4.41879e-16 0)
(3 5.13356e-16 0)
(3 7.81798e-18 0)
(3 -9.66949e-17 0)
(3 -1.4847e-16 0)
(3 -2.84879e-18 0)
(3 4.30733e-16 0)
(3 -3.21085e-17 0)
(3 -4.82321e-16 0)
(3 -1.42651e-16 0)
(3 1.35188e-15 0)
(3 2.19532e-15 0)
(3 2.47115e-15 0)
(3 2.01322e-15 0)
(3 1.14219e-15 0)
(3 7.91261e-16 0)
(3 8.6555e-16 0)
(3 7.20846e-16 0)
(3 -3.63555e-16 0)
(3 -9.80209e-16 0)
(3 -1.65081e-15 0)
(3 -1.60432e-15 0)
(3 -1.70734e-15 0)
(3 -3.34602e-15 0)
(3 -3.93152e-15 0)
(3 -3.75928e-15 0)
(3 -3.37267e-15 0)
(3 -2.65207e-15 0)
(3 -2.12909e-15 0)
(3 -1.56655e-15 0)
(3 -1.27203e-15 0)
(3 -5.04562e-16 0)
(3 4.96316e-16 0)
(3 6.91619e-16 0)
(3 6.51827e-17 0)
(3 4.36127e-16 0)
(3 1.20859e-15 0)
(3 1.21786e-15 0)
(3 1.39073e-15 0)
(3 1.26251e-15 0)
(3 -1.29332e-15 0)
(3 -1.90312e-15 0)
(3 -1.50823e-15 0)
(3 4.92314e-16 0)
(3 -1.39874e-16 0)
(3 -4.17377e-17 0)
(3 2.12545e-17 0)
(3 -9.2523e-17 0)
(3 -3.87244e-16 0)
(3 1.35364e-16 0)
(3 9.38774e-17 0)
(3 -2.58339e-16 0)
(3 -7.39423e-16 0)
(3 -6.02093e-16 0)
(3 -2.69102e-16 0)
(3 -6.94551e-17 0)
(3 -7.45797e-17 0)
(3 -4.06083e-17 0)
(3 9.24924e-16 0)
(3 1.37138e-15 0)
(3 1.0907e-15 0)
(3 1.02463e-15 0)
(3 7.49883e-16 0)
(3 7.31762e-16 0)
(3 3.02186e-16 0)
(3 -6.02437e-16 0)
(3 -1.02681e-15 0)
(3 -1.40942e-15 0)
(3 -1.28747e-15 0)
(3 -1.51853e-15 0)
(3 -1.70818e-15 0)
(3 -1.90839e-15 0)
(3 -1.68214e-15 0)
(3 -9.42421e-16 0)
(3 -7.11723e-16 0)
(3 -3.32871e-16 0)
(3 6.90944e-16 0)
(3 5.41395e-16 0)
(3 -3.67498e-17 0)
(3 -5.10638e-16 0)
(3 -1.36672e-15 0)
(3 -9.71068e-16 0)
(3 8.65219e-16 0)
(3 1.72279e-15 0)
(3 1.91902e-15 0)
(3 1.31962e-15 0)
(3 4.05419e-16 0)
(3 3.67342e-16 0)
(3 9.11069e-16 0)
(3 1.40103e-15 0)
(3 1.8922e-15 0)
(3 2.51222e-15 0)
(3 2.50388e-16 0)
(3 3.94397e-16 0)
(3 1.17954e-16 0)
(3 3.30285e-17 0)
(3 -2.32181e-16 0)
(3 3.36718e-16 0)
(3 5.84773e-16 0)
(3 3.86058e-16 0)
(3 7.75918e-16 0)
(3 6.02369e-16 0)
(3 1.70866e-16 0)
(3 1.43534e-16 0)
(3 1.11158e-16 0)
(3 -3.16045e-17 0)
(3 -2.00661e-17 0)
(3 2.01505e-16 0)
(3 4.74635e-16 0)
(3 1.25453e-15 0)
(3 1.30415e-15 0)
(3 9.13599e-16 0)
(3 1.61253e-16 0)
(3 -5.34908e-16 0)
(3 -4.51103e-16 0)
(3 -6.12921e-16 0)
(3 -8.86806e-16 0)
(3 -8.83075e-16 0)
(3 -1.11424e-15 0)
(3 -8.51861e-16 0)
(3 -7.64143e-16 0)
(3 -6.99292e-16 0)
(3 -9.78274e-16 0)
(3 -1.37e-15 0)
(3 -1.08133e-15 0)
(3 -6.95463e-16 0)
(3 -3.46681e-16 0)
(3 -3.16377e-16 0)
(3 -7.32119e-16 0)
(3 -6.07382e-16 0)
(3 8.93961e-16 0)
(3 1.20864e-15 0)
(3 8.55246e-16 0)
(3 2.38695e-16 0)
(3 4.86251e-16 0)
(3 1.05606e-15 0)
(3 2.63259e-15 0)
(3 3.32916e-15 0)
(3 3.50568e-15 0)
(3 3.65918e-15 0)
(3 1.19761e-16 0)
(3 -4.45786e-17 0)
(3 -2.54234e-16 0)
(3 -1.98612e-16 0)
(3 -6.89091e-17 0)
(3 -1.26606e-16 0)
(3 3.91139e-16 0)
(3 9.47133e-16 0)
(3 1.52725e-15 0)
(3 1.24971e-15 0)
(3 1.39753e-15 0)
(3 6.15335e-16 0)
(3 3.15869e-18 0)
(3 -8.91104e-16 0)
(3 -7.68616e-16 0)
(3 -5.5692e-17 0)
(3 5.43149e-16 0)
(3 8.38505e-16 0)
(3 1.05535e-15 0)
(3 8.35353e-16 0)
(3 5.06638e-16 0)
(3 6.40597e-16 0)
(3 -1.84842e-16 0)
(3 -8.04662e-17 0)
(3 -7.09831e-16 0)
(3 -8.67153e-16 0)
(3 -1.26949e-15 0)
(3 -1.54077e-15 0)
(3 -1.70413e-15 0)
(3 -2.37336e-15 0)
(3 -2.77548e-15 0)
(3 -2.91454e-15 0)
(3 -3.0162e-15 0)
(3 -1.2141e-15 0)
(3 2.89333e-16 0)
(3 3.63049e-16 0)
(3 2.82248e-16 0)
(3 7.73816e-16 0)
(3 9.56246e-16 0)
(3 2.64663e-17 0)
(3 -7.43157e-16 0)
(3 -1.30249e-15 0)
(3 -5.17832e-16 0)
(3 1.46241e-15 0)
(3 3.31687e-15 0)
(3 3.11857e-15 0)
(3 1.83039e-15 0)
(3 1.55508e-15 0)
(3 -2.1011e-16 0)
(3 -2.29733e-16 0)
(3 1.14133e-16 0)
(3 5.55851e-17 0)
(3 -1.74995e-16 0)
(3 -3.50023e-16 0)
(3 -2.7813e-16 0)
(3 1.33456e-16 0)
(3 3.86561e-16 0)
(3 7.0768e-16 0)
(3 9.71965e-16 0)
(3 7.66921e-16 0)
(3 2.35874e-16 0)
(3 -2.49146e-16 0)
(3 -2.26014e-16 0)
(3 -5.68522e-17 0)
(3 9.03888e-19 0)
(3 -2.64593e-16 0)
(3 3.14659e-16 0)
(3 4.57179e-16 0)
(3 6.42739e-16 0)
(3 1.287e-15 0)
(3 -6.49493e-17 0)
(3 -6.73759e-16 0)
(3 -9.98135e-16 0)
(3 -1.01251e-15 0)
(3 -9.44483e-16 0)
(3 -1.10031e-15 0)
(3 -1.83734e-15 0)
(3 -2.83319e-15 0)
(3 -2.6198e-15 0)
(3 -2.08882e-15 0)
(3 -1.11891e-15 0)
(3 -2.94896e-16 0)
(3 -1.61383e-17 0)
(3 1.55286e-16 0)
(3 -3.16655e-17 0)
(3 2.47352e-17 0)
(3 -1.99422e-16 0)
(3 -2.73408e-16 0)
(3 -1.25548e-15 0)
(3 -2.42659e-15 0)
(3 -3.12107e-15 0)
(3 -9.20701e-16 0)
(3 2.11645e-15 0)
(3 2.76871e-15 0)
(3 2.63418e-15 0)
(3 1.84725e-15 0)
(3 -1.03495e-16 0)
(3 1.37307e-16 0)
(3 3.54742e-16 0)
(3 4.24166e-17 0)
(3 -2.78237e-16 0)
(3 -2.86527e-16 0)
(3 -7.45167e-17 0)
(3 -1.89814e-19 0)
(3 -2.24283e-16 0)
(3 -1.49646e-16 0)
(3 -2.88818e-16 0)
(3 -4.45096e-16 0)
(3 -3.71044e-16 0)
(3 7.07343e-16 0)
(3 1.12818e-15 0)
(3 -3.24531e-16 0)
(3 -2.53861e-16 0)
(3 -2.62331e-16 0)
(3 1.3167e-16 0)
(3 1.58272e-16 0)
(3 -1.86025e-17 0)
(3 3.37716e-17 0)
(3 -1.07397e-15 0)
(3 -1.51525e-15 0)
(3 -1.2339e-15 0)
(3 -8.58458e-16 0)
(3 -7.44312e-16 0)
(3 -1.10633e-15 0)
(3 -1.47502e-15 0)
(3 -2.22766e-15 0)
(3 -2.47594e-15 0)
(3 -2.24058e-15 0)
(3 -1.85625e-15 0)
(3 -1.61049e-15 0)
(3 -2.77289e-15 0)
(3 -2.71063e-15 0)
(3 -2.31469e-15 0)
(3 -2.25351e-15 0)
(3 -2.42732e-15 0)
(3 -2.49126e-15 0)
(3 -1.2562e-15 0)
(3 7.07341e-16 0)
(3 1.17297e-15 0)
(3 7.94732e-16 0)
(3 1.58776e-15 0)
(3 2.34066e-15 0)
(3 4.03633e-15 0)
(3 4.13458e-15 0)
(3 1.14894e-16 0)
(3 -9.88326e-17 0)
(3 -3.44291e-17 0)
(3 -1.51557e-16 0)
(3 -1.39165e-16 0)
(3 5.77446e-17 0)
(3 3.98315e-16 0)
(3 5.4066e-16 0)
(3 -1.88982e-16 0)
(3 -4.36905e-16 0)
(3 -1.04017e-15 0)
(3 -1.17589e-15 0)
(3 -7.16307e-16 0)
(3 1.87802e-16 0)
(3 8.95201e-16 0)
(3 8.86864e-16 0)
(3 -4.52643e-16 0)
(3 -3.2456e-16 0)
(3 -3.68695e-16 0)
(3 -8.59013e-16 0)
(3 -1.37173e-15 0)
(3 -1.11618e-15 0)
(3 -1.2951e-15 0)
(3 -1.24783e-15 0)
(3 -1.11048e-15 0)
(3 -1.26975e-15 0)
(3 -1.39813e-15 0)
(3 -1.2156e-15 0)
(3 -8.87482e-16 0)
(3 -1.09172e-15 0)
(3 -2.15885e-15 0)
(3 -2.85844e-15 0)
(3 -2.82701e-15 0)
(3 -2.8166e-15 0)
(3 -2.80229e-15 0)
(3 -2.87164e-15 0)
(3 -2.81498e-15 0)
(3 -3.06636e-15 0)
(3 -3.13127e-15 0)
(3 -1.63623e-15 0)
(3 5.82209e-16 0)
(3 1.14591e-15 0)
(3 2.54141e-15 0)
(3 2.83786e-15 0)
(3 2.94652e-15 0)
(3 1.72375e-15 0)
(3 1.61478e-15 0)
(3 1.93182e-15 0)
(3 -8.55636e-17 0)
(3 -3.22433e-16 0)
(3 -4.33974e-16 0)
(3 1.92928e-16 0)
(3 4.7231e-16 0)
(3 5.68933e-16 0)
(3 5.3369e-16 0)
(3 2.35283e-16 0)
(3 -2.24041e-16 0)
(3 -4.98387e-16 0)
(3 -4.84123e-16 0)
(3 9.57413e-17 0)
(3 3.25478e-16 0)
(3 6.41265e-16 0)
(3 2.37598e-16 0)
(3 -1.22121e-16 0)
(3 -3.91242e-16 0)
(3 -6.56449e-16 0)
(3 -1.51735e-15 0)
(3 -2.20962e-15 0)
(3 -1.62045e-15 0)
(3 -8.48206e-16 0)
(3 -4.86755e-17 0)
(3 -2.06972e-16 0)
(3 -8.73157e-16 0)
(3 -1.46553e-15 0)
(3 -1.64251e-15 0)
(3 -1.26977e-15 0)
(3 -1.18029e-15 0)
(3 -1.77759e-15 0)
(3 -2.35686e-15 0)
(3 -2.67737e-15 0)
(3 -2.67392e-15 0)
(3 -2.95807e-15 0)
(3 -1.91234e-15 0)
(3 -7.35084e-16 0)
(3 -2.47946e-16 0)
(3 1.67743e-16 0)
(3 -5.5464e-17 0)
(3 1.40846e-15 0)
(3 2.441e-15 0)
(3 2.07303e-15 0)
(3 2.69431e-15 0)
(3 2.3406e-15 0)
(3 2.03783e-15 0)
(3 1.44294e-15 0)
(3 1.43824e-15 0)
(3 -1.91893e-15 0)
(3 -1.61241e-16 0)
(3 8.22203e-17 0)
(3 -1.63538e-16 0)
(3 7.67961e-17 0)
(3 4.40785e-16 0)
(3 3.84623e-16 0)
(3 7.02865e-17 0)
(3 -7.37161e-16 0)
(3 -1.79352e-16 0)
(3 1.50759e-16 0)
(3 2.21464e-16 0)
(3 2.9533e-16 0)
(3 2.62508e-16 0)
(3 4.41394e-16 0)
(3 1.5886e-16 0)
(3 -1.61644e-15 0)
(3 -1.39698e-15 0)
(3 -7.79129e-16 0)
(3 -1.50018e-16 0)
(3 -2.78217e-16 0)
(3 -4.39895e-16 0)
(3 -4.82904e-16 0)
(3 -7.35081e-17 0)
(3 1.49397e-16 0)
(3 -1.88603e-16 0)
(3 -1.24243e-15 0)
(3 -1.26918e-15 0)
(3 -1.44097e-15 0)
(3 -1.79164e-15 0)
(3 -2.1391e-15 0)
(3 -2.27379e-15 0)
(3 -2.82276e-15 0)
(3 -3.16355e-15 0)
(3 -3.57635e-15 0)
(3 -2.08617e-15 0)
(3 -8.14991e-16 0)
(3 1.68486e-15 0)
(3 2.01542e-15 0)
(3 2.82579e-15 0)
(3 3.91686e-15 0)
(3 5.03825e-15 0)
(3 5.3925e-15 0)
(3 4.81163e-15 0)
(3 3.82827e-15 0)
(3 1.04267e-15 0)
(3 -7.36395e-16 0)
(3 -4.25629e-17 0)
(3 -6.18596e-16 0)
(3 4.51349e-16 0)
(3 6.6974e-16 0)
(3 3.52666e-16 0)
(3 -2.08049e-16 0)
(3 -3.03433e-16 0)
(3 -1.20302e-16 0)
(3 -6.10101e-18 0)
(3 6.78294e-17 0)
(3 1.09898e-15 0)
(3 1.34238e-15 0)
(3 1.04798e-15 0)
(3 4.35078e-16 0)
(3 -1.77497e-16 0)
(3 -3.15301e-16 0)
(3 -8.50518e-16 0)
(3 -1.32377e-15 0)
(3 -7.86584e-16 0)
(3 -3.21632e-16 0)
(3 9.864e-16 0)
(3 6.44888e-16 0)
(3 -4.78476e-16 0)
(3 -9.38766e-16 0)
(3 -8.68899e-16 0)
(3 -8.48755e-16 0)
(3 -1.08744e-15 0)
(3 -1.41152e-15 0)
(3 -1.63516e-15 0)
(3 -1.69881e-15 0)
(3 -1.9422e-15 0)
(3 -2.25738e-15 0)
(3 -2.00751e-15 0)
(3 -2.72848e-15 0)
(3 -3.3082e-15 0)
(3 -4.57092e-15 0)
(3 -5.1801e-15 0)
(3 -3.69289e-15 0)
(3 -2.13853e-15 0)
(3 -1.88602e-15 0)
(3 -9.93421e-16 0)
(3 1.0744e-15 0)
(3 4.37188e-15 0)
(3 5.81525e-15 0)
(3 5.82435e-15 0)
(3 4.53558e-15 0)
(3 1.55956e-15 0)
(3 -4.53897e-16 0)
(3 -1.44585e-15 0)
(3 -1.00337e-15 0)
(3 -7.33939e-17 0)
(3 1.40094e-17 0)
(3 1.59211e-16 0)
(3 3.48434e-17 0)
(3 -1.93937e-16 0)
(3 5.26368e-17 0)
(3 5.72087e-16 0)
(3 1.11554e-15 0)
(3 9.85062e-16 0)
(3 9.4817e-16 0)
(3 7.46001e-16 0)
(3 3.77833e-16 0)
(3 -3.36812e-16 0)
(3 -9.27114e-16 0)
(3 -5.53498e-16 0)
(3 3.17785e-16 0)
(3 1.58295e-16 0)
(3 -3.83767e-16 0)
(3 -5.09516e-16 0)
(3 -7.04394e-16 0)
(3 -9.35765e-16 0)
(3 -1.11068e-15 0)
(3 -1.55691e-15 0)
(3 -1.80722e-15 0)
(3 -1.74096e-15 0)
(3 -1.0884e-15 0)
(3 -8.2288e-16 0)
(3 -1.09824e-15 0)
(3 -1.14239e-15 0)
(3 -1.13546e-15 0)
(3 -1.3667e-15 0)
(3 -2.35368e-15 0)
(3 -3.77788e-15 0)
(3 -4.85478e-15 0)
(3 -6.07279e-15 0)
(3 -4.05224e-15 0)
(3 -1.63294e-15 0)
(3 -1.50056e-15 0)
(3 -8.04865e-16 0)
(3 2.26252e-16 0)
(3 1.64595e-15 0)
(3 2.29535e-15 0)
(3 3.05e-15 0)
(3 2.55605e-15 0)
(3 2.21798e-15 0)
(3 1.74124e-15 0)
(3 8.15678e-16 0)
(3 6.45804e-16 0)
(3 -2.07573e-16 0)
(3 -2.81406e-16 0)
(3 2.61915e-17 0)
(3 2.73456e-16 0)
(3 1.55926e-16 0)
(3 -1.27658e-18 0)
(3 -2.90781e-16 0)
(3 -3.34418e-17 0)
(3 6.84152e-17 0)
(3 -2.53134e-17 0)
(3 4.56039e-16 0)
(3 3.46268e-16 0)
(3 -3.35004e-16 0)
(3 -9.24147e-16 0)
(3 -4.35668e-16 0)
(3 6.95571e-16 0)
(3 5.38625e-16 0)
(3 6.21128e-20 0)
(3 -5.48613e-16 0)
(3 -1.11656e-15 0)
(3 -1.47254e-15 0)
(3 -1.8686e-15 0)
(3 -2.25583e-15 0)
(3 -1.92806e-15 0)
(3 -1.20922e-15 0)
(3 -5.09432e-17 0)
(3 -2.30785e-17 0)
(3 -6.82907e-16 0)
(3 -1.05531e-15 0)
(3 -1.06225e-15 0)
(3 -1.43347e-15 0)
(3 -2.39525e-15 0)
(3 -3.81548e-15 0)
(3 -3.92093e-15 0)
(3 -3.42363e-15 0)
(3 -9.84519e-16 0)
(3 -7.23046e-17 0)
(3 -8.59144e-17 0)
(3 -5.12661e-16 0)
(3 -1.47615e-15 0)
(3 -2.15764e-15 0)
(3 -1.98814e-15 0)
(3 9.47095e-16 0)
(3 2.58871e-15 0)
(3 3.71107e-15 0)
(3 3.97184e-15 0)
(3 3.20089e-15 0)
(3 2.18218e-15 0)
(3 1.33594e-17 0)
(3 -3.05562e-16 0)
(3 -5.85457e-16 0)
(3 -4.27175e-16 0)
(3 -4.80974e-17 0)
(3 -1.05709e-16 0)
(3 -2.31064e-16 0)
(3 -2.096e-17 0)
(3 1.28889e-16 0)
(3 9.81492e-17 0)
(3 3.57358e-16 0)
(3 3.25246e-16 0)
(3 2.43691e-17 0)
(3 -9.14104e-17 0)
(3 3.51533e-16 0)
(3 3.07306e-16 0)
(3 1.17319e-16 0)
(3 -6.04476e-16 0)
(3 -1.37684e-15 0)
(3 -1.84204e-15 0)
(3 -2.11319e-15 0)
(3 -1.86608e-15 0)
(3 -1.31348e-15 0)
(3 -6.55494e-16 0)
(3 -5.08921e-16 0)
(3 -2.3431e-16 0)
(3 -1.8563e-16 0)
(3 -4.69695e-16 0)
(3 -1.53337e-15 0)
(3 -2.47443e-15 0)
(3 -2.1514e-15 0)
(3 -2.45833e-15 0)
(3 -2.92119e-15 0)
(3 -1.93537e-15 0)
(3 -3.50941e-16 0)
(3 2.1985e-16 0)
(3 2.4719e-16 0)
(3 -5.13182e-16 0)
(3 -1.45092e-15 0)
(3 -2.84066e-15 0)
(3 -4.378e-15 0)
(3 -5.14021e-15 0)
(3 -4.09869e-15 0)
(3 -2.5099e-15 0)
(3 -4.17703e-16 0)
(3 1.49498e-15 0)
(3 2.06919e-15 0)
(3 1.84199e-15 0)
(3 9.31386e-17 0)
(3 -1.45609e-16 0)
(3 -5.10733e-17 0)
(3 -1.00168e-16 0)
(3 -5.38522e-16 0)
(3 -5.05387e-16 0)
(3 -1.07823e-16 0)
(3 1.27845e-16 0)
(3 -1.83381e-16 0)
(3 -2.91056e-16 0)
(3 -5.48492e-16 0)
(3 -2.81756e-17 0)
(3 3.18614e-16 0)
(3 9.43779e-16 0)
(3 7.98645e-16 0)
(3 2.02233e-16 0)
(3 -1.45357e-15 0)
(3 -2.15211e-15 0)
(3 -2.10387e-15 0)
(3 -1.52873e-15 0)
(3 -1.35368e-15 0)
(3 -7.68918e-16 0)
(3 -9.48414e-16 0)
(3 -1.09811e-15 0)
(3 -1.13761e-15 0)
(3 -1.47495e-15 0)
(3 -1.07451e-15 0)
(3 -9.02147e-16 0)
(3 -1.25332e-15 0)
(3 -2.40573e-15 0)
(3 -2.18732e-15 0)
(3 -2.56334e-15 0)
(3 -2.93808e-15 0)
(3 -1.85534e-15 0)
(3 -6.88338e-16 0)
(3 -4.4644e-16 0)
(3 -1.02092e-15 0)
(3 -1.65186e-15 0)
(3 -1.93952e-15 0)
(3 -2.45503e-15 0)
(3 -2.54882e-15 0)
(3 -2.24128e-15 0)
(3 -1.37533e-15 0)
(3 -3.75929e-16 0)
(3 3.30525e-16 0)
(3 9.48893e-16 0)
(3 2.78318e-15 0)
(3 3.23071e-15 0)
(3 -9.67765e-18 0)
(3 2.80303e-17 0)
(3 2.38578e-16 0)
(3 -6.93802e-17 0)
(3 -5.32425e-16 0)
(3 -9.62078e-16 0)
(3 -7.49655e-16 0)
(3 -9.84184e-16 0)
(3 -1.04939e-15 0)
(3 -8.69551e-16 0)
(3 -6.19354e-16 0)
(3 2.43884e-16 0)
(3 1.08142e-15 0)
(3 1.7938e-15 0)
(3 1.39731e-15 0)
(3 4.82544e-16 0)
(3 -6.21518e-16 0)
(3 -4.59657e-16 0)
(3 -1.13785e-15 0)
(3 -1.107e-15 0)
(3 -9.66879e-16 0)
(3 -1.16966e-15 0)
(3 -1.47534e-15 0)
(3 -1.62123e-15 0)
(3 -1.1735e-15 0)
(3 -9.36281e-16 0)
(3 -1.62769e-15 0)
(3 -1.00238e-15 0)
(3 -1.12658e-16 0)
(3 2.45043e-16 0)
(3 -1.6019e-16 0)
(3 -1.14828e-15 0)
(3 -1.61541e-15 0)
(3 -1.61863e-15 0)
(3 -1.54047e-15 0)
(3 -1.38274e-15 0)
(3 -2.79038e-15 0)
(3 -2.97239e-15 0)
(3 -2.44437e-15 0)
(3 -1.68329e-15 0)
(3 -9.564e-16 0)
(3 -1.36987e-16 0)
(3 1.67034e-15 0)
(3 3.31827e-15 0)
(3 2.41492e-15 0)
(3 -4.89866e-16 0)
(3 1.50738e-16 0)
(3 1.25866e-15 0)
(3 9.24478e-17 0)
(3 5.8078e-17 0)
(3 3.95916e-17 0)
(3 3.09878e-17 0)
(3 3.38783e-16 0)
(3 3.03318e-16 0)
(3 -1.60475e-16 0)
(3 -4.44915e-16 0)
(3 -3.86266e-16 0)
(3 -2.92668e-16 0)
(3 1.13249e-16 0)
(3 1.6289e-16 0)
(3 4.21663e-16 0)
(3 7.35473e-16 0)
(3 -7.36054e-17 0)
(3 -5.44771e-16 0)
(3 -8.45685e-17 0)
(3 -1.53394e-17 0)
(3 9.70576e-17 0)
(3 -1.89353e-17 0)
(3 -3.02843e-16 0)
(3 -1.06821e-15 0)
(3 -7.23725e-16 0)
(3 -3.10401e-16 0)
(3 7.31369e-16 0)
(3 1.41994e-15 0)
(3 1.21374e-15 0)
(3 8.42173e-16 0)
(3 1.19239e-15 0)
(3 1.18549e-15 0)
(3 1.07599e-15 0)
(3 5.40201e-17 0)
(3 1.18248e-16 0)
(3 -8.9962e-16 0)
(3 -2.29583e-15 0)
(3 -3.05179e-15 0)
(3 -2.99229e-15 0)
(3 -2.78008e-15 0)
(3 -2.54934e-15 0)
(3 -1.41182e-15 0)
(3 5.20743e-17 0)
(3 1.8791e-15 0)
(3 2.41826e-15 0)
(3 5.6256e-16 0)
(3 -1.53879e-16 0)
(3 -6.96827e-16 0)
(3 1.02894e-15 0)
(3 2.81029e-15 0)
(3 1.99624e-17 0)
(3 1.72991e-16 0)
(3 3.06488e-16 0)
(3 2.65659e-16 0)
(3 3.22533e-16 0)
(3 8.103e-17 0)
(3 -8.4335e-17 0)
(3 1.62433e-17 0)
(3 9.44244e-17 0)
(3 1.29083e-16 0)
(3 4.37427e-17 0)
(3 -3.6011e-16 0)
(3 -5.61636e-16 0)
(3 -1.2791e-15 0)
(3 -1.51905e-15 0)
(3 -1.45241e-15 0)
(3 -1.04241e-15 0)
(3 -9.13139e-16 0)
(3 -1.67873e-16 0)
(3 -4.34202e-17 0)
(3 -3.27685e-16 0)
(3 -5.61678e-16 0)
(3 2.2961e-16 0)
(3 1.46565e-15 0)
(3 1.67891e-15 0)
(3 1.83052e-15 0)
(3 1.64994e-15 0)
(3 9.3617e-16 0)
(3 5.04775e-16 0)
(3 -1.24884e-17 0)
(3 -5.2788e-16 0)
(3 -1.72885e-16 0)
(3 8.92445e-16 0)
(3 6.03069e-16 0)
(3 -1.4027e-15 0)
(3 -2.46493e-15 0)
(3 -1.90465e-15 0)
(3 -1.1576e-15 0)
(3 -1.29908e-15 0)
(3 -8.64293e-17 0)
(3 2.13104e-15 0)
(3 4.2078e-15 0)
(3 2.3717e-15 0)
(3 -2.61587e-15 0)
(3 -3.41152e-15 0)
(3 -2.87323e-15 0)
(3 1.93716e-15 0)
(3 5.26913e-15 0)
(3 -2.23002e-16 0)
(3 4.15117e-17 0)
(3 5.6937e-17 0)
(3 1.83622e-16 0)
(3 1.62506e-16 0)
(3 1.16739e-16 0)
(3 -2.43578e-17 0)
(3 4.37961e-17 0)
(3 -3.56444e-17 0)
(3 -8.69729e-17 0)
(3 -5.25154e-16 0)
(3 -1.39417e-15 0)
(3 -1.59769e-15 0)
(3 -1.79314e-15 0)
(3 -1.56264e-15 0)
(3 -2.85867e-16 0)
(3 -8.43683e-16 0)
(3 -1.07586e-15 0)
(3 -1.27086e-15 0)
(3 -7.11005e-16 0)
(3 5.28632e-16 0)
(3 1.14382e-15 0)
(3 1.89493e-15 0)
(3 2.00629e-15 0)
(3 1.53647e-15 0)
(3 2.07336e-16 0)
(3 -5.53838e-16 0)
(3 -8.62931e-16 0)
(3 -1.14592e-15 0)
(3 -1.11686e-15 0)
(3 -1.36834e-15 0)
(3 4.49457e-16 0)
(3 1.09912e-15 0)
(3 1.78391e-15 0)
(3 1.45512e-15 0)
(3 4.71307e-16 0)
(3 8.8577e-16 0)
(3 1.85564e-15 0)
(3 2.91711e-15 0)
(3 4.04362e-15 0)
(3 3.95568e-15 0)
(3 1.53563e-15 0)
(3 -1.37367e-15 0)
(3 -3.92824e-15 0)
(3 -4.39151e-15 0)
(3 -3.14018e-15 0)
(3 3.05732e-16 0)
(3 4.00738e-15 0)
(3 3.52917e-17 0)
(3 -4.56089e-17 0)
(3 -1.41953e-16 0)
(3 -3.41774e-16 0)
(3 1.38068e-16 0)
(3 3.49908e-16 0)
(3 -1.30975e-16 0)
(3 -4.67507e-16 0)
(3 -6.92212e-16 0)
(3 -7.1033e-16 0)
(3 -7.18819e-16 0)
(3 -8.10714e-16 0)
(3 -8.5721e-16 0)
(3 -6.88863e-16 0)
(3 -7.38813e-17 0)
(3 6.10912e-16 0)
(3 4.54711e-16 0)
(3 -1.30951e-16 0)
(3 -4.26705e-16 0)
(3 1.33831e-16 0)
(3 3.40252e-16 0)
(3 1.1536e-15 0)
(3 1.63059e-15 0)
(3 8.82206e-16 0)
(3 -4.33436e-16 0)
(3 -1.6825e-15 0)
(3 -1.59923e-15 0)
(3 -1.24488e-15 0)
(3 -6.59694e-16 0)
(3 -4.47884e-16 0)
(3 -5.77133e-16 0)
(3 4.20306e-16 0)
(3 1.1245e-15 0)
(3 2.22525e-15 0)
(3 1.25701e-15 0)
(3 9.84563e-16 0)
(3 1.35154e-15 0)
(3 1.47449e-15 0)
(3 2.22162e-15 0)
(3 1.8076e-15 0)
(3 1.18063e-16 0)
(3 -1.43036e-15 0)
(3 -2.18529e-15 0)
(3 -2.92891e-15 0)
(3 -2.78809e-15 0)
(3 -1.79164e-15 0)
(3 -1.08646e-15 0)
(3 -7.08492e-16 0)
(3 2.05792e-16 0)
(3 -8.07654e-17 0)
(3 -4.45829e-16 0)
(3 -5.00747e-16 0)
(3 -2.25536e-16 0)
(3 -9.80122e-17 0)
(3 -4.00779e-16 0)
(3 -6.73603e-16 0)
(3 -4.48696e-16 0)
(3 -4.98639e-16 0)
(3 -1.76707e-16 0)
(3 1.87786e-16 0)
(3 2.76674e-16 0)
(3 4.81236e-17 0)
(3 3.31972e-16 0)
(3 1.82021e-16 0)
(3 6.95391e-16 0)
(3 5.99394e-16 0)
(3 4.58647e-16 0)
(3 2.6284e-17 0)
(3 -4.51936e-16 0)
(3 -5.81279e-16 0)
(3 -4.98148e-16 0)
(3 -1.04692e-15 0)
(3 -1.20207e-15 0)
(3 -9.72324e-16 0)
(3 -9.67704e-16 0)
(3 -5.44825e-16 0)
(3 -7.66754e-17 0)
(3 2.48021e-16 0)
(3 1.01158e-16 0)
(3 2.9797e-16 0)
(3 5.31657e-16 0)
(3 8.20583e-17 0)
(3 -2.47633e-16 0)
(3 -1.63308e-16 0)
(3 -5.81943e-16 0)
(3 -2.5017e-16 0)
(3 4.2577e-16 0)
(3 6.35426e-16 0)
(3 4.76753e-16 0)
(3 -3.00698e-16 0)
(3 -1.46539e-15 0)
(3 -1.00461e-15 0)
(3 -6.95479e-16 0)
(3 -3.93507e-16 0)
(3 -4.35053e-16 0)
(3 -1.92843e-16 0)
(3 7.44514e-18 0)
(3 -9.19635e-17 0)
(3 3.09928e-17 0)
(3 3.98354e-16 0)
(3 2.18314e-16 0)
(3 -6.64113e-17 0)
(3 -2.91382e-16 0)
(3 -4.71943e-16 0)
(3 -5.03616e-16 0)
(3 -6.18149e-16 0)
(3 -6.74963e-16 0)
(3 -7.67209e-16 0)
(3 -1.18858e-15 0)
(3 -9.21156e-16 0)
(3 -9.20831e-16 0)
(3 -9.71316e-16 0)
(3 -4.93736e-16 0)
(3 -2.79767e-16 0)
(3 -6.92829e-16 0)
(3 -1.50024e-15 0)
(3 -2.52087e-15 0)
(3 -3.14308e-15 0)
(3 -4.50352e-15 0)
(3 -4.01925e-15 0)
(3 -2.27271e-15 0)
(3 -9.71995e-16 0)
(3 -7.02487e-16 0)
(3 -1.18304e-15 0)
(3 -1.33921e-15 0)
(3 -9.05565e-16 0)
(3 -4.85609e-16 0)
(3 -6.99159e-16 0)
(3 -4.09438e-16 0)
(3 -4.58464e-16 0)
(3 -5.47516e-16 0)
(3 -1.0867e-15 0)
(3 -1.46537e-15 0)
(3 -1.41917e-15 0)
(3 -1.5616e-15 0)
(3 -7.8497e-16 0)
(3 -9.50685e-16 0)
(3 -8.50884e-16 0)
(3 -1.27188e-15 0)
(3 -6.06192e-16 0)
(3 -1.25687e-16 0)
(3 -4.37061e-16 0)
(3 -6.20876e-16 0)
(3 -6.52161e-17 0)
(3 -1.01724e-16 0)
(3 -1.51058e-16 0)
(3 -9.05147e-17 0)
(3 2.37369e-16 0)
(3 3.13928e-16 0)
(3 5.30518e-17 0)
(3 -8.38536e-17 0)
(3 -4.1081e-16 0)
(3 -9.6481e-16 0)
(3 -1.28642e-15 0)
(3 -9.57851e-16 0)
(3 -3.22637e-16 0)
(3 -2.3557e-16 0)
(3 -2.33522e-16 0)
(3 -1.41221e-15 0)
(3 -1.6805e-15 0)
(3 -1.76646e-15 0)
(3 -1.51254e-15 0)
(3 -1.26935e-15 0)
(3 -1.34181e-15 0)
(3 -1.23224e-15 0)
(3 -1.65306e-15 0)
(3 -2.58614e-15 0)
(3 -2.8896e-15 0)
(3 -2.72447e-15 0)
(3 -1.90859e-15 0)
(3 -4.2482e-16 0)
(3 -8.07384e-16 0)
(3 -1.28748e-15 0)
(3 -1.15219e-15 0)
(3 -7.52045e-16 0)
(3 -1.69133e-15 0)
(3 -1.96559e-15 0)
(3 -9.11775e-16 0)
(3 -1.02915e-15 0)
(3 -1.15757e-15 0)
(3 -1.64848e-15 0)
(3 -2.29687e-15 0)
(3 -2.10039e-15 0)
(3 -1.2812e-15 0)
(3 -9.6048e-16 0)
(3 -8.11736e-16 0)
(3 -1.30329e-15 0)
(3 -1.77484e-16 0)
(3 1.35365e-15 0)
(3 9.31652e-16 0)
(3 9.22512e-16 0)
(3 1.27575e-17 0)
(3 -8.21789e-17 0)
(3 -2.93179e-17 0)
(3 -1.6303e-17 0)
(3 1.77647e-16 0)
(3 3.07006e-16 0)
(3 1.68162e-16 0)
(3 1.23239e-16 0)
(3 2.43419e-16 0)
(3 1.37618e-16 0)
(3 1.73316e-16 0)
(3 5.44994e-16 0)
(3 8.70864e-16 0)
(3 8.32407e-16 0)
(3 -1.41877e-16 0)
(3 -1.5722e-15 0)
(3 -2.2685e-15 0)
(3 -1.83989e-15 0)
(3 -1.47442e-15 0)
(3 -9.34569e-16 0)
(3 -1.86823e-16 0)
(3 3.32147e-16 0)
(3 4.88149e-16 0)
(3 -4.20092e-17 0)
(3 -1.07967e-15 0)
(3 -1.51449e-15 0)
(3 -1.73086e-15 0)
(3 -1.40535e-15 0)
(3 -8.33937e-16 0)
(3 -5.76641e-16 0)
(3 -2.25289e-16 0)
(3 2.56415e-16 0)
(3 -1.56055e-16 0)
(3 -4.7598e-16 0)
(3 2.11717e-16 0)
(3 2.95133e-16 0)
(3 3.45489e-16 0)
(3 5.53145e-17 0)
(3 -5.3765e-17 0)
(3 1.10678e-15 0)
(3 1.67035e-15 0)
(3 1.93873e-15 0)
(3 1.846e-15 0)
(3 2.56705e-15 0)
(3 3.96697e-15 0)
(3 4.4035e-15 0)
(3 3.77457e-15 0)
(3 2.62625e-15 0)
(3 1.37305e-15 0)
(3 -6.39986e-17 0)
(3 2.66122e-16 0)
(3 4.25919e-16 0)
(3 1.05207e-16 0)
(3 1.45946e-16 0)
(3 4.08568e-16 0)
(3 8.74819e-16 0)
(3 9.83811e-16 0)
(3 8.56106e-17 0)
(3 3.45499e-16 0)
(3 4.14788e-16 0)
(3 3.94604e-16 0)
(3 4.00247e-16 0)
(3 -6.55279e-16 0)
(3 -1.79591e-15 0)
(3 -2.55114e-15 0)
(3 -2.79811e-15 0)
(3 -2.28964e-15 0)
(3 -1.52e-15 0)
(3 -6.0188e-16 0)
(3 5.6859e-16 0)
(3 1.36888e-15 0)
(3 1.05788e-15 0)
(3 1.05033e-15 0)
(3 8.04095e-16 0)
(3 2.43604e-16 0)
(3 -8.00857e-16 0)
(3 -4.77524e-16 0)
(3 8.62869e-19 0)
(3 3.27185e-16 0)
(3 6.39212e-16 0)
(3 1.62305e-15 0)
(3 2.17889e-15 0)
(3 1.14139e-15 0)
(3 4.068e-16 0)
(3 1.68972e-16 0)
(3 8.81069e-16 0)
(3 2.12523e-15 0)
(3 2.63538e-15 0)
(3 1.85789e-15 0)
(3 1.57829e-15 0)
(3 2.02254e-15 0)
(3 4.24667e-15 0)
(3 5.31445e-15 0)
(3 6.01854e-15 0)
(3 6.23496e-15 0)
(3 4.62967e-15 0)
(3 1.04818e-15 0)
(3 1.02913e-16 0)
(3 -1.13539e-16 0)
(3 -1.14143e-16 0)
(3 -5.04569e-17 0)
(3 1.90248e-16 0)
(3 3.53579e-16 0)
(3 9.69134e-16 0)
(3 1.11858e-15 0)
(3 1.10189e-15 0)
(3 1.60046e-15 0)
(3 3.22753e-16 0)
(3 9.22397e-17 0)
(3 4.05415e-16 0)
(3 1.19693e-16 0)
(3 -1.47933e-17 0)
(3 -5.54761e-16 0)
(3 -9.3479e-16 0)
(3 -6.60534e-16 0)
(3 -1.87788e-16 0)
(3 3.60426e-16 0)
(3 9.58748e-16 0)
(3 1.27355e-15 0)
(3 1.15474e-15 0)
(3 1.27483e-15 0)
(3 1.76864e-15 0)
(3 2.15369e-15 0)
(3 1.86512e-15 0)
(3 9.98847e-16 0)
(3 8.77124e-16 0)
(3 1.20709e-15 0)
(3 2.0772e-15 0)
(3 3.36921e-15 0)
(3 3.31225e-15 0)
(3 2.86648e-15 0)
(3 1.52849e-15 0)
(3 1.42727e-15 0)
(3 3.20922e-15 0)
(3 3.46288e-15 0)
(3 3.2022e-15 0)
(3 2.42308e-15 0)
(3 1.03042e-15 0)
(3 -6.59143e-16 0)
(3 -7.75016e-16 0)
(3 5.30808e-16 0)
(3 3.5525e-15 0)
(3 5.44261e-15 0)
(3 4.27852e-15 0)
(3 -1.9546e-15 0)
(3 2.03856e-17 0)
(3 6.92538e-17 0)
(3 -3.52935e-17 0)
(3 1.90994e-16 0)
(3 7.70277e-17 0)
(3 2.07335e-16 0)
(3 3.58174e-16 0)
(3 1.02016e-15 0)
(3 1.98034e-15 0)
(3 2.06865e-15 0)
(3 1.20165e-15 0)
(3 9.10388e-16 0)
(3 4.58387e-16 0)
(3 6.20198e-16 0)
(3 1.025e-15 0)
(3 1.23595e-15 0)
(3 6.19387e-16 0)
(3 7.9229e-16 0)
(3 8.45426e-16 0)
(3 1.09524e-15 0)
(3 5.63614e-16 0)
(3 7.52937e-16 0)
(3 1.02451e-15 0)
(3 1.15077e-15 0)
(3 9.90421e-16 0)
(3 1.20121e-15 0)
(3 1.35371e-15 0)
(3 1.06182e-15 0)
(3 7.74245e-16 0)
(3 8.09954e-16 0)
(3 1.37065e-15 0)
(3 2.82239e-15 0)
(3 2.40718e-15 0)
(3 1.57355e-15 0)
(3 3.18423e-15 0)
(3 4.03787e-15 0)
(3 4.42113e-15 0)
(3 4.32353e-15 0)
(3 3.37464e-15 0)
(3 2.53887e-15 0)
(3 1.55132e-15 0)
(3 4.78698e-16 0)
(3 -1.34809e-15 0)
(3 -1.40584e-15 0)
(3 1.41334e-15 0)
(3 4.2711e-15 0)
(3 3.67154e-15 0)
(3 1.31452e-15 0)
(3 -6.68221e-17 0)
(3 -1.93562e-16 0)
(3 8.12579e-18 0)
(3 1.63665e-17 0)
(3 -8.8488e-17 0)
(3 1.02182e-16 0)
(3 2.37466e-17 0)
(3 1.36989e-16 0)
(3 6.75891e-16 0)
(3 8.63614e-16 0)
(3 1.02154e-15 0)
(3 7.13502e-16 0)
(3 4.64605e-16 0)
(3 5.76555e-16 0)
(3 1.31488e-15 0)
(3 1.13505e-15 0)
(3 1.92469e-16 0)
(3 -2.34032e-16 0)
(3 -7.49628e-17 0)
(3 -4.10312e-17 0)
(3 2.04919e-16 0)
(3 1.09717e-15 0)
(3 2.2442e-15 0)
(3 1.84128e-15 0)
(3 6.88658e-16 0)
(3 -1.31897e-16 0)
(3 -7.7304e-16 0)
(3 -6.11199e-16 0)
(3 -1.0389e-15 0)
(3 -6.11558e-16 0)
(3 3.35146e-16 0)
(3 2.21611e-15 0)
(3 1.63383e-15 0)
(3 3.26368e-16 0)
(3 1.9337e-15 0)
(3 2.88019e-15 0)
(3 3.30517e-15 0)
(3 2.72046e-15 0)
(3 1.73793e-15 0)
(3 1.90492e-15 0)
(3 2.11147e-15 0)
(3 1.77661e-15 0)
(3 1.29651e-15 0)
(3 1.07458e-15 0)
(3 1.58225e-15 0)
(3 2.57741e-15 0)
(3 3.55004e-15 0)
(3 1.39549e-15 0)
(3 1.94747e-17 0)
(3 -2.15807e-16 0)
(3 -9.69895e-17 0)
(3 -6.85561e-17 0)
(3 -1.37704e-16 0)
(3 -5.55026e-16 0)
(3 -3.86957e-16 0)
(3 -1.98513e-16 0)
(3 3.74224e-16 0)
(3 6.29147e-16 0)
(3 8.01895e-17 0)
(3 -1.84556e-16 0)
(3 -3.58477e-16 0)
(3 5.13028e-16 0)
(3 1.41787e-15 0)
(3 1.37534e-15 0)
(3 1.21924e-15 0)
(3 5.95841e-16 0)
(3 4.83488e-16 0)
(3 2.83851e-16 0)
(3 3.5114e-17 0)
(3 6.0929e-17 0)
(3 7.08342e-16 0)
(3 6.33487e-16 0)
(3 3.05465e-16 0)
(3 -6.10212e-16 0)
(3 -1.89908e-15 0)
(3 -2.33708e-15 0)
(3 -2.50877e-15 0)
(3 -2.22779e-15 0)
(3 -1.76683e-15 0)
(3 -6.34862e-16 0)
(3 -1.14875e-16 0)
(3 -1.02482e-15 0)
(3 -7.74123e-16 0)
(3 2.19962e-15 0)
(3 2.68245e-15 0)
(3 1.87043e-15 0)
(3 1.38471e-15 0)
(3 1.65584e-15 0)
(3 2.28953e-15 0)
(3 3.65125e-15 0)
(3 3.43723e-15 0)
(3 2.0217e-15 0)
(3 1.10663e-15 0)
(3 3.86646e-16 0)
(3 1.97772e-15 0)
(3 -6.40191e-16 0)
(3 -6.99518e-17 0)
(3 6.55176e-16 0)
(3 1.52683e-16 0)
(3 6.91163e-17 0)
(3 -7.33177e-17 0)
(3 -2.65847e-16 0)
(3 -2.75778e-16 0)
(3 -1.7862e-16 0)
(3 -3.2754e-16 0)
(3 -7.09191e-17 0)
(3 2.86134e-16 0)
(3 -4.18503e-17 0)
(3 -6.06405e-16 0)
(3 2.34679e-16 0)
(3 6.69983e-16 0)
(3 1.6042e-15 0)
(3 2.14456e-15 0)
(3 1.65803e-15 0)
(3 1.51243e-15 0)
(3 1.67844e-16 0)
(3 3.42082e-16 0)
(3 5.91874e-16 0)
(3 1.93386e-16 0)
(3 1.72524e-16 0)
(3 -5.82889e-17 0)
(3 -9.09339e-16 0)
(3 -1.23137e-15 0)
(3 -1.66938e-15 0)
(3 -1.95743e-15 0)
(3 -2.86116e-15 0)
(3 -3.88719e-15 0)
(3 -2.22816e-15 0)
(3 -1.01747e-15 0)
(3 3.73228e-16 0)
(3 3.91245e-16 0)
(3 3.06631e-16 0)
(3 2.56987e-16 0)
(3 1.02146e-15 0)
(3 1.44081e-15 0)
(3 1.12471e-15 0)
(3 8.99628e-16 0)
(3 2.16521e-15 0)
(3 2.57764e-15 0)
(3 1.82346e-15 0)
(3 -4.60386e-16 0)
(3 -1.68807e-15 0)
(3 -1.38909e-15 0)
(3 -6.38874e-16 0)
(3 -4.4974e-18 0)
(3 1.41571e-16 0)
(3 -1.13628e-16 0)
(3 -3.1141e-16 0)
(3 -3.48575e-17 0)
(3 1.65224e-18 0)
(3 -3.12522e-16 0)
(3 -4.98365e-16 0)
(3 -9.39938e-16 0)
(3 -9.81815e-16 0)
(3 -7.67536e-16 0)
(3 -2.65963e-16 0)
(3 -7.64068e-17 0)
(3 1.1227e-16 0)
(3 3.35915e-16 0)
(3 5.64022e-16 0)
(3 7.76282e-16 0)
(3 1.39391e-15 0)
(3 1.47921e-15 0)
(3 6.44575e-16 0)
(3 8.25653e-16 0)
(3 7.82543e-16 0)
(3 9.40161e-16 0)
(3 9.66942e-16 0)
(3 3.35755e-16 0)
(3 -3.28502e-16 0)
(3 1.86924e-16 0)
(3 5.56104e-16 0)
(3 -1.60402e-16 0)
(3 -1.19162e-15 0)
(3 -1.79021e-15 0)
(3 -6.79757e-16 0)
(3 1.04323e-15 0)
(3 2.12333e-15 0)
(3 1.6836e-15 0)
(3 -6.15847e-17 0)
(3 -4.73668e-16 0)
(3 4.47644e-16 0)
(3 1.87796e-15 0)
(3 1.84105e-15 0)
(3 4.13258e-16 0)
(3 -2.2542e-15 0)
(3 -2.22149e-15 0)
(3 -1.64309e-15 0)
(3 -1.24989e-15 0)
(3 -1.25392e-15 0)
(3 -1.27812e-15 0)
(3 -1.36232e-15 0)
(3 2.96609e-17 0)
(3 -2.35092e-16 0)
(3 -5.64721e-17 0)
(3 -1.78511e-16 0)
(3 -3.35052e-17 0)
(3 -3.22954e-17 0)
(3 -3.00077e-16 0)
(3 1.69416e-16 0)
(3 -6.66937e-17 0)
(3 -5.02583e-16 0)
(3 -6.69274e-16 0)
(3 -8.28533e-17 0)
(3 5.23482e-17 0)
(3 -1.35372e-16 0)
(3 2.83553e-17 0)
(3 4.82664e-16 0)
(3 1.06129e-15 0)
(3 1.96541e-15 0)
(3 1.82214e-15 0)
(3 9.88252e-16 0)
(3 5.32638e-16 0)
(3 3.59088e-16 0)
(3 4.27927e-16 0)
(3 5.15944e-16 0)
(3 7.9361e-16 0)
(3 1.56311e-15 0)
(3 1.96694e-15 0)
(3 2.16787e-15 0)
(3 2.06505e-15 0)
(3 1.76918e-15 0)
(3 1.03273e-15 0)
(3 1.84737e-15 0)
(3 2.34987e-15 0)
(3 2.16321e-15 0)
(3 -1.61577e-16 0)
(3 -1.63498e-15 0)
(3 -1.35751e-15 0)
(3 -4.50785e-16 0)
(3 1.29614e-15 0)
(3 3.67937e-16 0)
(3 -1.24858e-15 0)
(3 -3.0563e-15 0)
(3 -3.67407e-15 0)
(3 -2.84226e-15 0)
(3 -5.06093e-16 0)
(3 -1.86906e-15 0)
(3 -2.95997e-15 0)
(3 -2.41777e-15 0)
(3 8.90732e-17 0)
(3 -1.42424e-16 0)
(3 3.39511e-16 0)
(3 4.3035e-16 0)
(3 -6.03082e-17 0)