/*--------------------------------*- C++ -*----------------------------------*\
  =========                 |
  \\      /  F ield         | OpenFOAM: The Open Source CFD Toolbox
   \\    /   O peration     | Website:  https://openfoam.org
    \\  /    A nd           | Version:  7
     \\/     M anipulation  |
\*---------------------------------------------------------------------------*/
FoamFile
{
    version     2.0;
    format      ascii;
    class       volVectorField;
    location    "0.1";
    object      U;
}
// * * * * * * * * * * * * * * * * * * * * * * * * * * * * * * * * * * * * * //

dimensions      [0 1 -1 0 0 0 0];

internalField   nonuniform List<vector> 
4608
(
(3 1.15877e-16 0)
(3 4.2126e-16 0)
(3 1.47746e-16 0)
(3 -7.96009e-18 0)
(3 -5.97497e-16 0)
(3 -8.65646e-16 0)
(3 -1.09137e-15 0)
(3 -7.72987e-16 0)
(3 -8.28645e-16 0)
(3 -7.50947e-16 0)
(3 -4.16797e-16 0)
(3 2.87486e-16 0)
(3 1.11557e-16 0)
(3 -1.47583e-16 0)
(3 -4.81659e-17 0)
(3 5.29264e-17 0)
(3 1.18343e-16 0)
(3 -2.49463e-16 0)
(3 -6.3199e-16 0)
(3 -1.10195e-15 0)
(3 -1.3386e-15 0)
(3 -1.31324e-15 0)
(3 -1.14664e-15 0)
(3 -8.49636e-16 0)
(3 1.08083e-16 0)
(3 4.30792e-16 0)
(3 1.78516e-16 0)
(3 -2.75246e-16 0)
(3 -1.61181e-15 0)
(3 -1.76272e-15 0)
(3 -1.62306e-15 0)
(3 -9.54458e-16 0)
(3 -1.16276e-15 0)
(3 -1.0617e-15 0)
(3 -6.66944e-16 0)
(3 -1.51213e-16 0)
(3 -3.60071e-17 0)
(3 1.31275e-16 0)
(3 8.126e-16 0)
(3 1.05343e-15 0)
(3 2.04976e-16 0)
(3 -1.72249e-16 0)
(3 -6.33864e-16 0)
(3 -1.02704e-15 0)
(3 -1.57023e-15 0)
(3 -1.33428e-15 0)
(3 -5.38271e-16 0)
(3 -1.40096e-16 0)
(3 -2.03829e-17 0)
(3 1.8636e-16 0)
(3 -1.99166e-16 0)
(3 -4.90992e-16 0)
(3 -1.01621e-15 0)
(3 -1.15879e-15 0)
(3 -6.64366e-16 0)
(3 -4.027e-16 0)
(3 -1.84163e-16 0)
(3 -3.51274e-17 0)
(3 3.10616e-16 0)
(3 3.56037e-16 0)
(3 1.56726e-16 0)
(3 5.71922e-17 0)
(3 1.40681e-16 0)
(3 -7.22679e-17 0)
(3 -9.19513e-17 0)
(3 -1.2071e-16 0)
(3 -1.1915e-16 0)
(3 -1.34668e-16 0)
(3 -1.4314e-16 0)
(3 7.07534e-17 0)
(3 2.10974e-16 0)
(3 4.87828e-16 0)
(3 3.37071e-17 0)
(3 1.2278e-16 0)
(3 -6.7829e-18 0)
(3 7.42783e-17 0)
(3 1.74744e-17 0)
(3 1.33695e-16 0)
(3 1.40287e-16 0)
(3 2.16984e-16 0)
(3 2.47737e-16 0)
(3 2.0488e-17 0)
(3 2.88442e-16 0)
(3 5.62334e-16 0)
(3 3.39402e-16 0)
(3 8.77481e-17 0)
(3 -5.709e-17 0)
(3 -5.02296e-16 0)
(3 -2.91779e-16 0)
(3 -3.52574e-16 0)
(3 -4.8396e-16 0)
(3 -5.09301e-16 0)
(3 -1.62255e-16 0)
(3 6.30723e-17 0)
(3 -1.06721e-16 0)
(3 6.22054e-16 0)
(3 1.85575e-16 0)
(3 4.28771e-16 0)
(3 1.1075e-15 0)
(3 1.02053e-15 0)
(3 1.19069e-15 0)
(3 7.44144e-16 0)
(3 -4.54677e-16 0)
(3 -4.61086e-16 0)
(3 -2.81614e-16 0)
(3 -1.37673e-16 0)
(3 -1.31621e-16 0)
(3 4.37561e-17 0)
(3 1.48867e-16 0)
(3 3.42903e-16 0)
(3 1.51109e-17 0)
(3 1.4107e-16 0)
(3 -7.45118e-16 0)
(3 -1.05806e-15 0)
(3 -9.94388e-16 0)
(3 -7.53246e-16 0)
(3 -4.7123e-16 0)
(3 -1.82433e-16 0)
(3 3.19423e-16 0)
(3 6.2918e-16 0)
(3 1.70779e-17 0)
(3 3.25116e-16 0)
(3 1.04786e-15 0)
(3 1.22809e-15 0)
(3 8.73902e-16 0)
(3 -3.0184e-16 0)
(3 -5.5673e-16 0)
(3 -1.0667e-15 0)
(3 -5.47679e-16 0)
(3 -1.69525e-16 0)
(3 -6.83083e-16 0)
(3 -4.69786e-16 0)
(3 1.83902e-16 0)
(3 2.02558e-16 0)
(3 -1.82212e-16 0)
(3 1.46402e-16 0)
(3 1.56298e-16 0)
(3 -3.40319e-17 0)
(3 1.09904e-16 0)
(3 1.12811e-16 0)
(3 4.88058e-18 0)
(3 5.79251e-16 0)
(3 1.22398e-15 0)
(3 -2.33133e-16 0)
(3 -8.90246e-17 0)
(3 -4.48681e-17 0)
(3 -3.84014e-16 0)
(3 -5.3077e-16 0)
(3 -8.81145e-16 0)
(3 -7.5273e-16 0)
(3 -2.86705e-16 0)
(3 1.71405e-16 0)
(3 3.07834e-17 0)
(3 -2.10145e-16 0)
(3 -5.93632e-16 0)
(3 -6.15789e-16 0)
(3 -5.50843e-16 0)
(3 -9.44978e-16 0)
(3 -1.11989e-15 0)
(3 -5.56937e-16 0)
(3 1.05543e-16 0)
(3 6.87232e-16 0)
(3 8.04827e-16 0)
(3 4.61587e-16 0)
(3 2.17555e-16 0)
(3 7.02386e-16 0)
(3 8.77116e-16 0)
(3 -1.43235e-15 0)
(3 3.79103e-16 0)
(3 1.93021e-16 0)
(3 -7.21705e-16 0)
(3 -1.25668e-15 0)
(3 -1.17893e-15 0)
(3 -9.58691e-16 0)
(3 -4.84443e-16 0)
(3 -1.28892e-16 0)
(3 3.41372e-17 0)
(3 6.19622e-17 0)
(3 2.43839e-16 0)
(3 6.34459e-17 0)
(3 -1.39136e-16 0)
(3 -4.19612e-16 0)
(3 -4.1953e-16 0)
(3 -7.39458e-18 0)
(3 5.01251e-16 0)
(3 9.18582e-16 0)
(3 9.59735e-16 0)
(3 1.01197e-15 0)
(3 1.57769e-15 0)
(3 3.54006e-16 0)
(3 4.59656e-17 0)
(3 -1.62002e-15 0)
(3 -3.43856e-16 0)
(3 -1.03638e-15 0)
(3 -1.09868e-15 0)
(3 -1.15849e-15 0)
(3 -1.38643e-15 0)
(3 -1.08408e-15 0)
(3 -6.18149e-16 0)
(3 -4.45013e-16 0)
(3 -4.6331e-16 0)
(3 -4.33058e-16 0)
(3 9.46632e-18 0)
(3 2.40223e-16 0)
(3 1.86315e-16 0)
(3 4.8149e-16 0)
(3 7.47486e-16 0)
(3 7.49768e-16 0)
(3 6.5581e-16 0)
(3 5.13868e-16 0)
(3 7.75682e-16 0)
(3 1.17959e-15 0)
(3 9.18796e-16 0)
(3 3.25951e-16 0)
(3 -1.15588e-15 0)
(3 -1.291e-15 0)
(3 -2.77465e-16 0)
(3 -4.95505e-16 0)
(3 -5.77753e-16 0)
(3 -3.12281e-16 0)
(3 -1.3093e-16 0)
(3 3.83181e-16 0)
(3 3.52375e-16 0)
(3 3.41953e-16 0)
(3 5.93601e-17 0)
(3 1.54376e-16 0)
(3 2.22606e-16 0)
(3 2.6551e-16 0)
(3 -1.16164e-16 0)
(3 -4.17287e-16 0)
(3 4.84004e-17 0)
(3 -1.70207e-16 0)
(3 -8.78255e-16 0)
(3 -6.50449e-16 0)
(3 1.77944e-16 0)
(3 4.45577e-16 0)
(3 4.08355e-16 0)
(3 -1.34676e-16 0)
(3 -3.52271e-16 0)
(3 -2.61204e-16 0)
(3 1.28154e-16 0)
(3 1.73573e-16 0)
(3 -2.74951e-16 0)
(3 -5.83084e-16 0)
(3 5.84162e-16 0)
(3 1.17825e-15 0)
(3 7.68824e-16 0)
(3 1.59263e-16 0)
(3 1.73811e-16 0)
(3 4.31749e-16 0)
(3 4.17123e-16 0)
(3 3.07684e-16 0)
(3 3.05212e-16 0)
(3 3.119e-16 0)
(3 3.99638e-17 0)
(3 -5.40619e-16 0)
(3 -6.8914e-16 0)
(3 -5.35563e-16 0)
(3 1.10499e-18 0)
(3 4.95799e-16 0)
(3 5.10669e-16 0)
(3 7.33905e-16 0)
(3 9.41044e-16 0)
(3 7.06479e-16 0)
(3 -5.59641e-17 0)
(3 -1.98234e-16 0)
(3 -4.01257e-17 0)
(3 3.50836e-16 0)
(3 7.34032e-16 0)
(3 3.89716e-16 0)
(3 4.9073e-16 0)
(3 -1.22315e-15 0)
(3 -1.79775e-15 0)
(3 -1.28342e-15 0)
(3 -6.85374e-16 0)
(3 1.33052e-17 0)
(3 5.71116e-16 0)
(3 1.11645e-15 0)
(3 4.94682e-16 0)
(3 3.63999e-16 0)
(3 2.86663e-16 0)
(3 -1.96635e-16 0)
(3 -4.15962e-16 0)
(3 -4.87734e-16 0)
(3 -4.44152e-16 0)
(3 1.07186e-16 0)
(3 2.78908e-16 0)
(3 4.35399e-16 0)
(3 -4.18433e-18 0)
(3 1.95516e-16 0)
(3 1.14157e-16 0)
(3 1.05074e-15 0)
(3 1.06974e-15 0)
(3 -1.17488e-16 0)
(3 6.07957e-16 0)
(3 1.33653e-16 0)
(3 -3.03053e-16 0)
(3 -4.50826e-16 0)
(3 -3.38856e-16 0)
(3 1.22648e-17 0)
(3 4.07973e-16 0)
(3 5.42637e-16 0)
(3 1.10402e-15 0)
(3 1.45262e-15 0)
(3 6.57335e-16 0)
(3 -2.23636e-16 0)
(3 -9.10535e-16 0)
(3 -1.02693e-15 0)
(3 -5.44634e-16 0)
(3 -1.37012e-15 0)
(3 -1.28061e-15 0)
(3 -3.34997e-16 0)
(3 2.72816e-18 0)
(3 4.58587e-16 0)
(3 5.32446e-16 0)
(3 6.74846e-16 0)
(3 3.56535e-16 0)
(3 1.66124e-16 0)
(3 6.18289e-17 0)
(3 3.37213e-16 0)
(3 7.93634e-16 0)
(3 6.9407e-16 0)
(3 3.60119e-16 0)
(3 2.96307e-16 0)
(3 3.44771e-16 0)
(3 5.95954e-16 0)
(3 5.6944e-16 0)
(3 4.33914e-16 0)
(3 9.86749e-16 0)
(3 1.65403e-15 0)
(3 9.49207e-16 0)
(3 5.03228e-16 0)
(3 -3.7355e-16 0)
(3 -5.27867e-16 0)
(3 -7.23585e-16 0)
(3 -6.95063e-16 0)
(3 -4.0393e-17 0)
(3 1.6229e-16 0)
(3 8.55107e-16 0)
(3 7.31303e-16 0)
(3 7.73077e-16 0)
(3 6.09324e-16 0)
(3 -1.12001e-15 0)
(3 -1.33383e-15 0)
(3 -4.07522e-16 0)
(3 -2.68377e-17 0)
(3 -5.17578e-16 0)
(3 -9.35352e-16 0)
(3 1.02328e-16 0)
(3 2.64654e-16 0)
(3 1.5639e-16 0)
(3 -2.01394e-16 0)
(3 2.34934e-16 0)
(3 7.19918e-16 0)
(3 6.27241e-16 0)
(3 -1.25222e-16 0)
(3 -2.44116e-16 0)
(3 -4.61562e-17 0)
(3 2.85331e-16 0)
(3 -6.33061e-16 0)
(3 -2.14272e-17 0)
(3 -5.63776e-17 0)
(3 1.22271e-16 0)
(3 -1.09157e-16 0)
(3 3.83419e-16 0)
(3 4.9092e-16 0)
(3 5.63556e-16 0)
(3 3.85769e-16 0)
(3 2.76273e-16 0)
(3 -1.28572e-16 0)
(3 -1.44681e-15 0)
(3 -1.62769e-15 0)
(3 -1.05075e-15 0)
(3 -7.3921e-16 0)
(3 -7.74377e-16 0)
(3 -4.16028e-16 0)
(3 7.59681e-17 0)
(3 6.78236e-17 0)
(3 -4.7479e-16 0)
(3 -1.04813e-15 0)
(3 -8.7965e-16 0)
(3 -4.94418e-16 0)
(3 2.57365e-16 0)
(3 3.97412e-16 0)
(3 6.45076e-17 0)
(3 -3.47078e-16 0)
(3 -3.65578e-16 0)
(3 -3.53934e-16 0)
(3 -4.86025e-16 0)
(3 -6.71505e-17 0)
(3 4.59007e-16 0)
(3 2.54052e-16 0)
(3 -9.41371e-17 0)
(3 1.47132e-17 0)
(3 -1.27997e-15 0)
(3 -1.27116e-15 0)
(3 -6.87671e-16 0)
(3 -4.56107e-16 0)
(3 -7.74517e-16 0)
(3 -8.00539e-16 0)
(3 -8.67171e-16 0)
(3 -2.83922e-16 0)
(3 -1.28154e-16 0)
(3 -6.07077e-16 0)
(3 -2.03746e-16 0)
(3 3.19609e-16 0)
(3 9.17193e-16 0)
(3 1.66582e-15 0)
(3 -5.88109e-17 0)
(3 -1.13118e-16 0)
(3 1.77829e-16 0)
(3 -2.5419e-16 0)
(3 -4.40293e-16 0)
(3 -4.7426e-16 0)
(3 -7.31832e-16 0)
(3 -8.69987e-16 0)
(3 -3.77477e-16 0)
(3 2.22788e-16 0)
(3 2.03541e-17 0)
(3 -3.70613e-16 0)
(3 -3.26083e-16 0)
(3 -2.07777e-16 0)
(3 1.79226e-16 0)
(3 1.32319e-17 0)
(3 -2.20877e-16 0)
(3 -4.3143e-17 0)
(3 2.95779e-16 0)
(3 6.99559e-17 0)
(3 4.74899e-16 0)
(3 1.19541e-15 0)
(3 1.51933e-15 0)
(3 1.32602e-15 0)
(3 -5.10957e-17 0)
(3 -8.05983e-17 0)
(3 -1.9324e-16 0)
(3 -3.28356e-16 0)
(3 -7.67431e-16 0)
(3 -3.39018e-16 0)
(3 -3.03715e-16 0)
(3 -1.96825e-16 0)
(3 -2.13907e-16 0)
(3 -1.61388e-16 0)
(3 4.86206e-17 0)
(3 -3.02126e-17 0)
(3 -3.46841e-16 0)
(3 -3.90216e-16 0)
(3 2.34951e-16 0)
(3 1.01804e-15 0)
(3 9.16918e-16 0)
(3 5.33728e-16 0)
(3 5.79902e-16 0)
(3 4.55214e-16 0)
(3 7.08972e-16 0)
(3 1.34824e-15 0)
(3 1.79872e-15 0)
(3 1.20805e-15 0)
(3 8.67936e-17 0)
(3 1.1581e-16 0)
(3 -4.30927e-16 0)
(3 -2.15786e-16 0)
(3 -3.01319e-16 0)
(3 -2.40118e-16 0)
(3 1.82122e-16 0)
(3 1.07021e-18 0)
(3 -1.84257e-19 0)
(3 2.2112e-16 0)
(3 8.06701e-16 0)
(3 6.14677e-16 0)
(3 3.36783e-16 0)
(3 2.78022e-16 0)
(3 -1.99924e-16 0)
(3 -2.31499e-16 0)
(3 -1.61957e-16 0)
(3 -8.81139e-16 0)
(3 -2.51952e-16 0)
(3 9.57772e-16 0)
(3 1.09808e-15 0)
(3 1.07591e-15 0)
(3 3.12125e-16 0)
(3 -2.87749e-16 0)
(3 1.05696e-16 0)
(3 2.01012e-16 0)
(3 3.31285e-16 0)
(3 5.38109e-16 0)
(3 2.41782e-16 0)
(3 -1.783e-16 0)
(3 -1.96251e-16 0)
(3 -2.12247e-16 0)
(3 3.59827e-17 0)
(3 5.5748e-16 0)
(3 7.34626e-16 0)
(3 8.56999e-16 0)
(3 7.61523e-16 0)
(3 7.67963e-16 0)
(3 2.43797e-16 0)
(3 -6.29097e-16 0)
(3 -9.08939e-16 0)
(3 -9.14479e-16 0)
(3 -7.68915e-16 0)
(3 -1.75392e-16 0)
(3 7.82645e-17 0)
(3 -1.08022e-16 0)
(3 -5.7774e-16 0)
(3 -7.80057e-16 0)
(3 -7.28148e-17 0)
(3 -1.3196e-16 0)
(3 2.86643e-16 0)
(3 2.71199e-16 0)
(3 -1.01501e-16 0)
(3 -2.09686e-16 0)
(3 -3.048e-16 0)
(3 7.74032e-17 0)
(3 3.4313e-16 0)
(3 4.11468e-16 0)
(3 -1.31755e-16 0)
(3 4.97781e-17 0)
(3 3.35539e-16 0)
(3 8.69239e-16 0)
(3 9.91827e-16 0)
(3 4.0353e-16 0)
(3 -1.73e-16 0)
(3 -4.83529e-17 0)
(3 -6.69065e-16 0)
(3 -1.09404e-15 0)
(3 -1.14338e-15 0)
(3 -9.66132e-16 0)
(3 -6.77092e-16 0)
(3 2.96091e-16 0)
(3 -2.00475e-16 0)
(3 1.43408e-16 0)
(3 -3.18157e-16 0)
(3 -3.68939e-16 0)
(3 -6.5807e-17 0)
(3 -1.44823e-16 0)
(3 9.8058e-18 0)
(3 -4.08844e-17 0)
(3 2.15875e-16 0)
(3 2.68877e-16 0)
(3 2.35171e-16 0)
(3 2.23367e-17 0)
(3 -4.61825e-17 0)
(3 1.33043e-16 0)
(3 8.87431e-16 0)
(3 7.25818e-16 0)
(3 3.00834e-16 0)
(3 -3.64494e-16 0)
(3 -4.2809e-16 0)
(3 -5.01657e-16 0)
(3 -9.28891e-16 0)
(3 -9.06995e-16 0)
(3 -3.73206e-16 0)
(3 -1.1797e-16 0)
(3 -4.26685e-17 0)
(3 2.52586e-16 0)
(3 1.25798e-16 0)
(3 3.36652e-16 0)
(3 8.88643e-16 0)
(3 1.13347e-15 0)
(3 1.17736e-15 0)
(3 1.01729e-15 0)
(3 8.62682e-16 0)
(3 5.65509e-16 0)
(3 7.73569e-16 0)
(3 9.12805e-16 0)
(3 5.83118e-16 0)
(3 -9.01814e-17 0)
(3 1.16932e-16 0)
(3 -9.77689e-17 0)
(3 -9.41774e-17 0)
(3 -9.59477e-17 0)
(3 8.20554e-17 0)
(3 -1.29124e-16 0)
(3 -6.05376e-16 0)
(3 -1.45845e-15 0)
(3 -1.35839e-15 0)
(3 -6.13115e-16 0)
(3 9.99642e-17 0)
(3 2.09476e-18 0)
(3 7.63642e-16 0)
(3 8.51652e-16 0)
(3 1.12678e-15 0)
(3 1.85373e-15 0)
(3 1.87693e-15 0)
(3 1.6202e-15 0)
(3 8.19305e-16 0)
(3 2.51241e-16 0)
(3 1.52812e-17 0)
(3 1.33655e-16 0)
(3 3.52898e-16 0)
(3 -1.29167e-15 0)
(3 -2.02508e-15 0)
(3 -1.94912e-15 0)
(3 -1.62194e-16 0)
(3 1.99651e-16 0)
(3 7.44736e-16 0)
(3 9.93078e-16 0)
(3 2.63441e-16 0)
(3 -6.86743e-16 0)
(3 -8.14378e-16 0)
(3 6.79164e-16 0)
(3 1.77174e-16 0)
(3 -2.42103e-16 0)
(3 -2.24865e-16 0)
(3 -3.69613e-16 0)
(3 -3.62947e-16 0)
(3 -2.62636e-16 0)
(3 6.56168e-18 0)
(3 4.25798e-16 0)
(3 -7.50804e-18 0)
(3 -2.07135e-15 0)
(3 -2.31322e-15 0)
(3 -1.57504e-15 0)
(3 -1.22992e-15 0)
(3 -1.65167e-15 0)
(3 -2.29016e-15 0)
(3 -2.4386e-15 0)
(3 -1.85383e-15 0)
(3 1.72395e-16 0)
(3 4.85402e-16 0)
(3 1.58077e-15 0)
(3 1.40178e-15 0)
(3 1.33527e-15 0)
(3 4.63485e-16 0)
(3 4.83161e-16 0)
(3 2.71566e-17 0)
(3 -8.45295e-17 0)
(3 -3.37117e-16 0)
(3 -1.32219e-16 0)
(3 -6.62413e-16 0)
(3 -1.73309e-15 0)
(3 -1.55513e-15 0)
(3 1.58394e-16 0)
(3 5.16187e-16 0)
(3 1.96145e-16 0)
(3 -2.82098e-17 0)
(3 -1.37114e-17 0)
(3 2.82093e-17 0)
(3 3.25606e-16 0)
(3 -1.16737e-16 0)
(3 -1.85568e-16 0)
(3 1.54754e-16 0)
(3 9.92981e-16 0)
(3 5.53085e-16 0)
(3 3.26062e-16 0)
(3 4.04588e-16 0)
(3 3.3324e-16 0)
(3 -2.62173e-16 0)
(3 -8.64138e-16 0)
(3 -2.59185e-17 0)
(3 1.9211e-16 0)
(3 -1.7945e-16 0)
(3 -1.5705e-16 0)
(3 -9.13652e-17 0)
(3 -2.13548e-16 0)
(3 -3.81664e-16 0)
(3 -1.88084e-16 0)
(3 6.708e-16 0)
(3 1.47515e-15 0)
(3 1.5723e-15 0)
(3 1.15138e-15 0)
(3 8.33871e-16 0)
(3 1.20903e-15 0)
(3 1.55906e-15 0)
(3 1.24912e-15 0)
(3 1.11468e-15 0)
(3 1.05304e-15 0)
(3 2.89434e-16 0)
(3 -4.9919e-17 0)
(3 -2.20028e-17 0)
(3 -1.86665e-16 0)
(3 -1.73113e-16 0)
(3 -1.28255e-15 0)
(3 4.27133e-17 0)
(3 2.31111e-16 0)
(3 3.37147e-16 0)
(3 3.86329e-16 0)
(3 5.26684e-16 0)
(3 9.75745e-16 0)
(3 5.12647e-16 0)
(3 -5.99803e-16 0)
(3 -1.80418e-16 0)
(3 7.99526e-16 0)
(3 1.05446e-15 0)
(3 8.75262e-16 0)
(3 2.24599e-16 0)
(3 -9.78433e-17 0)
(3 2.8177e-16 0)
(3 2.9569e-16 0)
(3 -1.69784e-16 0)
(3 -7.56938e-16 0)
(3 -6.24879e-16 0)
(3 -4.98314e-16 0)
(3 -2.2513e-16 0)
(3 3.85002e-17 0)
(3 3.20603e-16 0)
(3 -6.39769e-16 0)
(3 3.72505e-17 0)
(3 7.98694e-17 0)
(3 7.10959e-17 0)
(3 3.85203e-16 0)
(3 3.38153e-16 0)
(3 1.76982e-16 0)
(3 1.15388e-16 0)
(3 2.32985e-16 0)
(3 2.35657e-16 0)
(3 1.34727e-16 0)
(3 1.6508e-16 0)
(3 2.53961e-16 0)
(3 1.78566e-16 0)
(3 5.96168e-17 0)
(3 1.68744e-17 0)
(3 3.01966e-16 0)
(3 1.15313e-16 0)
(3 -3.33904e-17 0)
(3 -1.01897e-15 0)
(3 -1.28005e-15 0)
(3 -1.09628e-15 0)
(3 -5.67456e-16 0)
(3 4.30666e-16 0)
(3 6.90994e-16 0)
(3 -9.07556e-17 0)
(3 -1.55593e-16 0)
(3 -3.71623e-16 0)
(3 -4.87304e-16 0)
(3 9.75596e-17 0)
(3 5.44648e-16 0)
(3 7.18513e-16 0)
(3 1.25039e-15 0)
(3 1.80914e-16 0)
(3 -2.53129e-16 0)
(3 -1.95903e-16 0)
(3 -1.87773e-16 0)
(3 2.73326e-16 0)
(3 9.70542e-16 0)
(3 1.03497e-15 0)
(3 8.69802e-16 0)
(3 6.00774e-16 0)
(3 6.46391e-16 0)
(3 -2.39315e-16 0)
(3 -1.05189e-15 0)
(3 -1.56105e-15 0)
(3 -1.45353e-15 0)
(3 -5.84795e-16 0)
(3 2.89196e-16 0)
(3 -6.27241e-17 0)
(3 -5.12016e-17 0)
(3 5.77481e-17 0)
(3 6.09719e-17 0)
(3 6.26471e-17 0)
(3 6.49453e-16 0)
(3 7.11019e-16 0)
(3 7.44115e-16 0)
(3 -2.57561e-17 0)
(3 -1.18073e-16 0)
(3 -1.47741e-16 0)
(3 -2.05851e-16 0)
(3 -1.91514e-16 0)
(3 1.4543e-16 0)
(3 3.40577e-16 0)
(3 -6.09511e-17 0)
(3 3.27406e-17 0)
(3 5.94705e-17 0)
(3 1.48769e-16 0)
(3 -2.23575e-16 0)
(3 -7.76699e-16 0)
(3 -1.51302e-15 0)
(3 -1.47429e-15 0)
(3 -1.21527e-15 0)
(2.93288 0.0171922 0)
(2.84578 0.0638205 0)
(2.75788 0.141188 0)
(2.66588 0.247308 0)
(2.56985 0.351259 0)
(2.48809 0.441589 0)
(2.44386 0.533227 0)
(2.46957 0.631965 0)
(2.46647 0.691133 0)
(2.47875 0.754154 0)
(2.48855 0.806411 0)
(2.48811 0.847484 0)
(2.4872 0.887959 0)
(2.49808 0.920149 0)
(2.51638 0.944825 0)
(2.53875 0.974889 0)
(2.54468 0.986644 0)
(2.55002 0.992105 0)
(2.55439 0.99817 0)
(2.55584 1.00174 0)
(2.55709 1.00482 0)
(2.55652 1.00383 0)
(2.55645 1.00385 0)
(2.55535 1.00411 0)
(2.99882 0.0011637 0)
(2.99002 0.011668 0)
(2.96128 0.0488969 0)
(2.89997 0.133315 0)
(2.8016 0.27602 0)
(2.67365 0.469809 0)
(2.54917 0.681303 0)
(2.46884 0.862046 0)
(2.42971 0.986297 0)
(2.42019 1.05867 0)
(2.42383 1.09487 0)
(2.42967 1.10832 0)
(2.4392 1.11678 0)
(2.44738 1.12682 0)
(2.45619 1.1419 0)
(2.4685 1.15313 0)
(2.4819 1.15118 0)
(2.48907 1.13645 0)
(2.49404 1.12489 0)
(2.4998 1.11217 0)
(2.50574 1.09961 0)
(2.51921 1.09076 0)
(2.5289 1.07804 0)
(2.54871 1.07031 0)
(3 3.92291e-08 0)
(3.00002 -2.17341e-05 0)
(2.99996 2.62539e-05 0)
(2.99986 0.000163069 0)
(2.99856 0.00204417 0)
(2.99136 0.0127673 0)
(2.96813 0.0517091 0)
(2.92496 0.141054 0)
(2.88179 0.272196 0)
(2.85556 0.408236 0)
(2.84562 0.526655 0)
(2.83787 0.636639 0)
(2.82879 0.722053 0)
(2.8196 0.791218 0)
(2.81143 0.847879 0)
(2.80344 0.8929 0)
(2.79417 0.924076 0)
(2.77768 0.947924 0)
(2.75686 0.968014 0)
(2.73932 0.983091 0)
(2.71281 1.00126 0)
(2.70038 1.01028 0)
(2.674 1.02038 0)
(2.68737 1.03963 0)
(3 -8.65668e-09 0)
(3 -1.21762e-06 0)
(3 -1.10237e-06 0)
(3 -6.78315e-07 0)
(3 -9.39596e-06 0)
(2.99999 2.46265e-05 0)
(3.00001 -3.19655e-05 0)
(2.99952 0.000722785 0)
(2.99725 0.00542578 0)
(2.99117 0.0217996 0)
(2.98142 0.0568068 0)
(2.96848 0.116012 0)
(2.95427 0.196128 0)
(2.94077 0.286182 0)
(2.92978 0.372767 0)
(2.91852 0.449637 0)
(2.90584 0.517976 0)
(2.89081 0.58253 0)
(2.87199 0.645365 0)
(2.85131 0.707871 0)
(2.82751 0.768302 0)
(2.80766 0.821975 0)
(2.77251 0.896645 0)
(2.78693 0.89225 0)
(3 -8.90553e-11 0)
(3 2.11496e-09 0)
(3 -2.51696e-08 0)
(3 -7.0317e-08 0)
(3 -2.29132e-07 0)
(3 -2.31028e-07 0)
(3 -7.94662e-07 0)
(3 -2.81959e-06 0)
(3 4.00797e-06 0)
(2.99999 5.83714e-06 0)
(2.99997 7.69416e-05 0)
(2.99978 0.000410312 0)
(2.99954 0.00121166 0)
(2.99887 0.00325397 0)
(2.99812 0.0063703 0)
(2.99667 0.0115971 0)
(2.99479 0.0188519 0)
(2.99153 0.0309016 0)
(2.98667 0.0492216 0)
(2.97922 0.0766908 0)
(2.96813 0.118413 0)
(2.95596 0.164453 0)
(2.92766 0.275351 0)
(2.9338 0.247466 0)
(3 9.50357e-13 0)
(3 1.23627e-10 0)
(3 -1.16844e-11 0)
(3 1.38035e-10 0)
(3 -6.48011e-10 0)
(3 -1.63086e-08 0)
(3 -2.19276e-08 0)
(3 -1.61357e-07 0)
(3 -1.2198e-07 0)
(3 1.26119e-08 0)
(3 8.35446e-09 0)
(3 -3.57996e-08 0)
(3 2.56605e-07 0)
(3 3.44028e-07 0)
(3 2.3437e-06 0)
(3 3.65517e-06 0)
(3 1.34244e-05 0)
(2.99999 2.23614e-05 0)
(2.99998 8.37135e-05 0)
(2.99992 0.000135366 0)
(2.99983 0.000582547 0)
(2.99962 0.000703577 0)
(2.99854 0.00433515 0)
(2.99959 -0.00446147 0)
(3 3.57707e-13 0)
(3 3.47949e-13 0)
(3 2.77389e-12 0)
(3 2.1803e-12 0)
(3 -3.96682e-12 0)
(3 2.888e-12 0)
(3 -2.24086e-10 0)
(3 -1.80468e-10 0)
(3 -6.47351e-09 0)
(3 -2.03844e-09 0)
(3 -6.83271e-10 0)
(3 -1.09463e-09 0)
(3 -2.73655e-10 0)
(3 -8.17782e-12 0)
(3 3.41363e-11 0)
(3 6.55843e-12 0)
(3 2.22477e-10 0)
(3 -1.34453e-10 0)
(3 3.10019e-09 0)
(3 -5.36533e-09 0)
(3 6.69448e-08 0)
(3 -2.23122e-07 0)
(3 1.83699e-06 0)
(3.00007 -0.000274971 0)
(3 3.41825e-15 0)
(3 -4.36706e-16 0)
(3 8.42188e-16 0)
(3 1.24881e-13 0)
(3 2.18321e-13 0)
(3 1.23757e-12 0)
(3 1.10889e-12 0)
(3 1.21631e-12 0)
(3 -3.81047e-13 0)
(3 -9.78826e-11 0)
(3 -6.76733e-11 0)
(3 -2.47667e-11 0)
(3 -1.25207e-11 0)
(3 -2.83886e-12 0)
(3 -1.39916e-13 0)
(3 -2.86986e-14 0)
(3 -2.30627e-14 0)
(3 -2.43608e-12 0)
(3 -4.91239e-13 0)
(3 -9.99864e-11 0)
(3 -1.08518e-11 0)
(3 -7.06133e-09 0)
(3 -2.56133e-09 0)
(3 -8.99189e-07 0)
(3 -1.51324e-15 0)
(3 -5.25217e-16 0)
(3 2.5351e-17 0)
(3 1.92584e-15 0)
(3 2.95028e-14 0)
(3 5.77773e-14 0)
(3 1.42144e-13 0)
(3 2.50358e-13 0)
(3 1.93507e-13 0)
(3 -2.73201e-13 0)
(3 -4.70836e-13 0)
(3 -1.57448e-13 0)
(3 -9.06181e-14 0)
(3 -7.0162e-14 0)
(3 -2.62339e-14 0)
(3 -5.5841e-16 0)
(3 -6.83918e-16 0)
(3 3.61822e-15 0)
(3 -1.19776e-14 0)
(3 -2.81098e-14 0)
(3 -2.00473e-13 0)
(3 -6.6457e-12 0)
(3 -2.28705e-10 0)
(3 6.84907e-09 0)
(3 -1.10701e-16 0)
(3 3.16841e-16 0)
(3 3.73775e-16 0)
(3 -2.66342e-16 0)
(3 1.5164e-16 0)
(3 1.71752e-15 0)
(3 6.3649e-15 0)
(3 8.14416e-15 0)
(3 2.07157e-14 0)
(3 1.30696e-14 0)
(3 6.16825e-15 0)
(3 4.84091e-15 0)
(3 4.34019e-15 0)
(3 3.15147e-15 0)
(3 1.10843e-15 0)
(3 1.47028e-15 0)
(3 1.45718e-15 0)
(3 2.65277e-15 0)
(3 2.86661e-15 0)
(3 3.31572e-15 0)
(3 1.81018e-16 0)
(3 3.80655e-14 0)
(3 -1.28877e-12 0)
(3 3.37864e-10 0)
(3 -5.59381e-17 0)
(3 5.06619e-16 0)
(3 7.44387e-16 0)
(3 3.56555e-16 0)
(3 1.65831e-16 0)
(3 4.7875e-16 0)
(3 5.01934e-16 0)
(3 2.07527e-16 0)
(3 -4.58425e-16 0)
(3 7.10017e-16 0)
(3 3.91266e-16 0)
(3 2.49678e-16 0)
(3 8.18182e-16 0)
(3 -8.58515e-16 0)
(3 -2.86761e-15 0)
(3 -3.13099e-15 0)
(3 -8.96508e-16 0)
(3 7.17368e-16 0)
(3 1.05919e-15 0)
(3 1.26037e-15 0)
(3 7.73231e-16 0)
(3 2.04937e-15 0)
(3 -3.94959e-16 0)
(3 1.0739e-12 0)
(3 2.89219e-16 0)
(3 -7.16516e-16 0)
(3 -8.23122e-16 0)
(3 -8.34639e-16 0)
(3 8.91387e-17 0)
(3 9.86214e-18 0)
(3 1.19279e-17 0)
(3 4.26483e-16 0)
(3 -1.69887e-16 0)
(3 -1.30393e-16 0)
(3 -3.68821e-16 0)
(3 -1.18944e-15 0)
(3 -2.04646e-15 0)
(3 -2.53002e-15 0)
(3 -3.97483e-15 0)
(3 -3.48907e-15 0)
(3 -1.56253e-15 0)
(3 -1.28838e-15 0)
(3 -3.95549e-16 0)
(3 -7.84066e-16 0)
(3 -1.68539e-15 0)
(3 -1.62211e-15 0)
(3 -1.37431e-15 0)
(3 -2.95389e-15 0)
(3 7.85226e-17 0)
(3 -7.29871e-16 0)
(3 -1.55682e-15 0)
(3 -9.88083e-16 0)
(3 -4.67736e-17 0)
(3 -7.13577e-16 0)
(3 -4.73714e-17 0)
(3 1.77339e-16 0)
(3 1.16737e-16 0)
(3 -6.47686e-16 0)
(3 -3.0999e-16 0)
(3 -2.52697e-16 0)
(3 -7.69019e-16 0)
(3 -4.18461e-16 0)
(3 5.99192e-16 0)
(3 4.264e-16 0)
(3 -4.81773e-16 0)
(3 -9.45871e-16 0)
(3 -8.21307e-16 0)
(3 -8.05416e-16 0)
(3 -1.05248e-15 0)
(3 -9.67535e-16 0)
(3 -8.47055e-16 0)
(3 -6.19901e-16 0)
(3 -5.10072e-16 0)
(3 1.9397e-16 0)
(3 2.94058e-16 0)
(3 1.93736e-16 0)
(3 -6.13477e-17 0)
(3 1.49501e-16 0)
(3 1.01064e-15 0)
(3 1.45305e-15 0)
(3 1.02589e-15 0)
(3 -6.10634e-16 0)
(3 -1.04515e-15 0)
(3 -2.07794e-15 0)
(3 -2.31805e-15 0)
(3 -1.2287e-15 0)
(3 9.12061e-16 0)
(3 9.76134e-16 0)
(3 5.48375e-16 0)
(3 -4.04406e-16 0)
(3 -6.93346e-16 0)
(3 -7.00876e-16 0)
(3 -6.88366e-16 0)
(3 -6.29634e-16 0)
(3 -7.11829e-16 0)
(3 -1.81178e-16 0)
(3 -7.53702e-16 0)
(3 5.19037e-16 0)
(3 8.74885e-16 0)
(3 4.7641e-16 0)
(3 2.46587e-16 0)
(3 4.38476e-16 0)
(3 7.48372e-16 0)
(3 4.10916e-16 0)
(3 -1.3765e-15 0)
(3 -1.01872e-15 0)
(3 1.90058e-16 0)
(3 -1.04328e-15 0)
(3 -1.34285e-15 0)
(3 -6.34121e-16 0)
(3 4.31142e-16 0)
(3 4.22556e-16 0)
(3 -4.81711e-16 0)
(3 -1.39798e-15 0)
(3 -1.47776e-15 0)
(3 -1.50044e-15 0)
(3 -1.2486e-15 0)
(3 -9.03622e-17 0)
(3 1.70591e-16 0)
(3 -2.0912e-16 0)
(3 2.1882e-16 0)
(3 3.13766e-16 0)
(3 4.60316e-16 0)
(3 -3.23266e-16 0)
(3 2.23171e-16 0)
(3 1.87066e-16 0)
(3 -4.3956e-16 0)
(3 -1.17605e-15 0)
(3 -2.05631e-15 0)
(3 -9.16117e-16 0)
(3 1.02092e-16 0)
(3 1.60189e-15 0)
(3 2.42321e-15 0)
(3 1.497e-15 0)
(3 -2.972e-16 0)
(3 -1.31924e-15 0)
(3 -3.11284e-15 0)
(3 -3.61677e-15 0)
(3 -2.88376e-15 0)
(3 -1.79809e-15 0)
(3 -9.1247e-16 0)
(3 -7.03267e-16 0)
(3 -2.57526e-16 0)
(3 -2.95541e-16 0)
(3 1.70923e-15 0)
(3 1.49418e-15 0)
(3 1.32216e-15 0)
(3 3.53556e-16 0)
(3 -3.58382e-16 0)
(3 -4.63638e-16 0)
(3 -6.0592e-16 0)
(3 -1.42336e-16 0)
(3 8.22404e-16 0)
(3 3.81459e-16 0)
(3 -7.87578e-16 0)
(3 -1.52674e-15 0)
(3 -1.49867e-15 0)
(3 -1.48277e-15 0)
(3 -1.5437e-15 0)
(3 -2.00995e-15 0)
(3 -3.17875e-15 0)
(3 -2.38099e-15 0)
(3 -1.43713e-15 0)
(3 -8.07363e-16 0)
(3 -6.78645e-16 0)
(3 -7.33478e-16 0)
(3 -3.99831e-16 0)
(3 1.91948e-16 0)
(3 1.126e-15 0)
(3 5.82537e-16 0)
(3 -9.14101e-17 0)
(3 -4.91147e-17 0)
(3 -4.92312e-16 0)
(3 -1.70321e-15 0)
(3 -1.43603e-15 0)
(3 -7.65513e-16 0)
(3 7.03931e-16 0)
(3 8.95544e-16 0)
(3 -5.37571e-16 0)
(3 -2.39908e-15 0)
(3 -3.63466e-15 0)
(3 -2.17204e-15 0)
(3 -1.44756e-15 0)
(3 -1.66794e-15 0)
(3 -2.11236e-16 0)
(3 1.98631e-15 0)
(3 1.43597e-15 0)
(3 5.41962e-16 0)
(3 2.86174e-16 0)
(3 5.17833e-16 0)
(3 3.80495e-16 0)
(3 6.64374e-16 0)
(3 4.8058e-16 0)
(3 1.61908e-16 0)
(3 -8.49707e-17 0)
(3 -4.92679e-16 0)
(3 -7.84007e-16 0)
(3 -1.25248e-15 0)
(3 -1.54273e-15 0)
(3 -1.00702e-15 0)
(3 8.25905e-16 0)
(3 9.21139e-16 0)
(3 5.49171e-16 0)
(3 -2.61962e-16 0)
(3 -2.31122e-16 0)
(3 3.02906e-16 0)
(3 6.28027e-16 0)
(3 1.48972e-15 0)
(3 4.16209e-15 0)
(3 5.30293e-15 0)
(3 2.24611e-15 0)
(3 1.33528e-15 0)
(3 1.57121e-15 0)
(3 1.47485e-15 0)
(3 9.93879e-16 0)
(3 5.75643e-16 0)
(3 -4.13026e-16 0)
(3 -4.72189e-16 0)
(3 -6.74779e-16 0)
(3 -3.91885e-16 0)
(3 1.9852e-17 0)
(3 2.22655e-16 0)
(3 -4.71464e-16 0)
(3 4.88631e-17 0)
(3 1.29322e-16 0)
(3 -8.69182e-16 0)
(3 -5.6564e-16 0)
(3 -3.59167e-16 0)
(3 6.74281e-16 0)
(3 9.15832e-16 0)
(3 1.80447e-15 0)
(3 3.44487e-15 0)
(3 3.23975e-15 0)
(3 2.45436e-15 0)
(3 2.24872e-15 0)
(3 2.23481e-15 0)
(3 2.09395e-15 0)
(3 1.83071e-15 0)
(3 2.03257e-15 0)
(3 9.66883e-16 0)
(3 -4.65238e-16 0)
(3 -6.76083e-16 0)
(3 -1.04711e-15 0)
(3 -3.81335e-16 0)
(3 9.31861e-16 0)
(3 2.18032e-15 0)
(3 2.42682e-15 0)
(3 8.68626e-16 0)
(3 -4.11845e-16 0)
(3 -6.24842e-17 0)
(3 9.45279e-17 0)
(3 1.0265e-15 0)
(3 2.02326e-15 0)
(3 2.67957e-15 0)
(3 2.55804e-15 0)
(3 2.44673e-15 0)
(3 1.13826e-15 0)
(3 1.1613e-15 0)
(3 1.21468e-15 0)
(3 1.23941e-15 0)
(3 7.50873e-16 0)
(3 -2.93497e-17 0)
(3 3.78139e-16 0)
(3 2.19822e-15 0)
(3 -6.11321e-17 0)
(3 -1.06405e-15 0)
(3 -2.72339e-16 0)
(3 2.51612e-16 0)
(3 9.97616e-16 0)
(3 2.88787e-15 0)
(3 4.29478e-15 0)
(3 2.91662e-15 0)
(3 3.02827e-15 0)
(3 2.52034e-15 0)
(3 2.26456e-15 0)
(3 1.15666e-15 0)
(3 5.15383e-16 0)
(3 8.73794e-16 0)
(3 1.54957e-15 0)
(3 1.87302e-15 0)
(3 1.92239e-15 0)
(3 9.7355e-16 0)
(3 6.4521e-16 0)
(3 4.34546e-16 0)
(3 3.00524e-16 0)
(3 -1.75252e-15 0)
(3 -5.08603e-16 0)
(3 -1.07411e-12 0)
(3 2.51983e-16 0)
(3 4.537e-16 0)
(3 1.53507e-15 0)
(3 2.15648e-15 0)
(3 9.79518e-16 0)
(3 6.93027e-16 0)
(3 -4.65368e-15 0)
(3 -3.82364e-15 0)
(3 -1.5323e-14 0)
(3 -8.78104e-15 0)
(3 -1.42802e-15 0)
(3 -7.55137e-16 0)
(3 -6.96379e-16 0)
(3 -4.74903e-16 0)
(3 2.16458e-16 0)
(3 4.08831e-16 0)
(3 5.53362e-16 0)
(3 -5.36454e-16 0)
(3 -7.10053e-16 0)
(3 -7.43576e-16 0)
(3 4.40461e-15 0)
(3 -3.29339e-14 0)
(3 1.29023e-12 0)
(3 -3.37865e-10 0)
(3 -1.00942e-16 0)
(3 1.15052e-15 0)
(3 9.88539e-16 0)
(3 -1.06943e-15 0)
(3 -2.8648e-14 0)
(3 -6.33182e-14 0)
(3 -1.47556e-13 0)
(3 -2.50298e-13 0)
(3 -1.91296e-13 0)
(3 2.63921e-13 0)
(3 4.73916e-13 0)
(3 1.58965e-13 0)
(3 9.15048e-14 0)
(3 7.30997e-14 0)
(3 2.68753e-14 0)
(3 1.67997e-15 0)
(3 1.63057e-15 0)
(3 -3.16934e-15 0)
(3 1.33095e-14 0)
(3 3.23899e-14 0)
(3 2.01782e-13 0)
(3 6.6483e-12 0)
(3 2.28708e-10 0)
(3 -6.84907e-09 0)
(3 -4.03057e-15 0)
(3 -2.92987e-16 0)
(3 -1.90651e-15 0)
(3 -1.26563e-13 0)
(3 -2.22518e-13 0)
(3 -1.23976e-12 0)
(3 -1.10716e-12 0)
(3 -1.21299e-12 0)
(3 3.87147e-13 0)
(3 9.76724e-11 0)
(3 6.75816e-11 0)
(3 2.47842e-11 0)
(3 1.25694e-11 0)
(3 2.83628e-12 0)
(3 1.35753e-13 0)
(3 2.49956e-14 0)
(3 2.10542e-14 0)
(3 2.43474e-12 0)
(3 4.90068e-13 0)
(3 9.99851e-11 0)
(3 1.08508e-11 0)
(3 7.06133e-09 0)
(3 2.56133e-09 0)
(3 8.99189e-07 0)
(3 -3.57654e-13 0)
(3 -3.46969e-13 0)
(3 -2.77393e-12 0)
(3 -2.18234e-12 0)
(3 3.96749e-12 0)
(3 -2.8814e-12 0)
(3 2.24187e-10 0)
(3 1.80538e-10 0)
(3 6.46936e-09 0)
(3 2.03476e-09 0)
(3 6.80857e-10 0)
(3 1.09386e-09 0)
(3 2.73566e-10 0)
(3 8.23155e-12 0)
(3 -3.41366e-11 0)
(3 -6.55716e-12 0)
(3 -2.22481e-10 0)
(3 1.34451e-10 0)
(3 -3.10019e-09 0)
(3 5.36533e-09 0)
(3 -6.69448e-08 0)
(3 2.23122e-07 0)
(3 -1.83699e-06 0)
(3.00007 0.000274971 0)
(3 -9.51375e-13 0)
(3 -1.23627e-10 0)
(3 1.17058e-11 0)
(3 -1.38119e-10 0)
(3 6.48723e-10 0)
(3 1.62992e-08 0)
(3 2.19462e-08 0)
(3 1.61336e-07 0)
(3 1.21936e-07 0)
(3 -1.26709e-08 0)
(3 -8.37247e-09 0)
(3 3.57903e-08 0)
(3 -2.56605e-07 0)
(3 -3.44028e-07 0)
(3 -2.3437e-06 0)
(3 -3.65517e-06 0)
(3 -1.34244e-05 0)
(2.99999 -2.23614e-05 0)
(2.99998 -8.37135e-05 0)
(2.99992 -0.000135366 0)
(2.99983 -0.000582547 0)
(2.99962 -0.000703577 0)
(2.99854 -0.00433515 0)
(2.99959 0.00446147 0)
(3 8.9055e-11 0)
(3 -2.11484e-09 0)
(3 2.51687e-08 0)
(3 7.03193e-08 0)
(3 2.29135e-07 0)
(3 2.31013e-07 0)
(3 7.94615e-07 0)
(3 2.81952e-06 0)
(3 -4.00796e-06 0)
(2.99999 -5.83719e-06 0)
(2.99997 -7.69411e-05 0)
(2.99978 -0.000410312 0)
(2.99954 -0.00121166 0)
(2.99887 -0.00325397 0)
(2.99812 -0.0063703 0)
(2.99667 -0.0115971 0)
(2.99479 -0.0188519 0)
(2.99153 -0.0309016 0)
(2.98667 -0.0492216 0)
(2.97922 -0.0766908 0)
(2.96813 -0.118413 0)
(2.95596 -0.164453 0)
(2.92766 -0.275351 0)
(2.9338 -0.247466 0)
(3 8.65669e-09 0)
(3 1.21762e-06 0)
(3 1.10237e-06 0)
(3 6.78321e-07 0)
(3 9.396e-06 0)
(2.99999 -2.46265e-05 0)
(3.00001 3.19654e-05 0)
(2.99952 -0.000722785 0)
(2.99725 -0.00542578 0)
(2.99117 -0.0217996 0)
(2.98142 -0.0568068 0)
(2.96848 -0.116012 0)
(2.95427 -0.196128 0)
(2.94077 -0.286182 0)
(2.92978 -0.372767 0)
(2.91852 -0.449637 0)
(2.90584 -0.517976 0)
(2.89081 -0.58253 0)
(2.87199 -0.645365 0)
(2.85131 -0.707871 0)
(2.82751 -0.768302 0)
(2.80766 -0.821975 0)
(2.77251 -0.896645 0)
(2.78693 -0.89225 0)
(3 -3.92295e-08 0)
(3.00002 2.17341e-05 0)
(2.99996 -2.6254e-05 0)
(2.99986 -0.000163069 0)
(2.99856 -0.00204417 0)
(2.99136 -0.0127673 0)
(2.96813 -0.0517091 0)
(2.92496 -0.141054 0)
(2.88179 -0.272196 0)
(2.85556 -0.408236 0)
(2.84562 -0.526655 0)
(2.83787 -0.636639 0)
(2.82879 -0.722053 0)
(2.8196 -0.791218 0)
(2.81143 -0.847879 0)
(2.80344 -0.8929 0)
(2.79417 -0.924076 0)
(2.77768 -0.947924 0)
(2.75686 -0.968014 0)
(2.73932 -0.983091 0)
(2.71281 -1.00126 0)
(2.70038 -1.01028 0)
(2.674 -1.02038 0)
(2.68737 -1.03963 0)
(2.99882 -0.0011637 0)
(2.99002 -0.011668 0)
(2.96128 -0.0488969 0)
(2.89997 -0.133315 0)
(2.8016 -0.27602 0)
(2.67365 -0.469809 0)
(2.54917 -0.681303 0)
(2.46884 -0.862046 0)
(2.42971 -0.986297 0)
(2.42019 -1.05867 0)
(2.42383 -1.09487 0)
(2.42967 -1.10832 0)
(2.4392 -1.11678 0)
(2.44738 -1.12682 0)
(2.45619 -1.1419 0)
(2.4685 -1.15313 0)
(2.4819 -1.15118 0)
(2.48907 -1.13645 0)
(2.49404 -1.12489 0)
(2.4998 -1.11217 0)
(2.50574 -1.09961 0)
(2.51921 -1.09076 0)
(2.5289 -1.07804 0)
(2.54871 -1.07031 0)
(2.93288 -0.0171922 0)
(2.84578 -0.0638205 0)
(2.75788 -0.141188 0)
(2.66588 -0.247308 0)
(2.56985 -0.351259 0)
(2.48809 -0.441589 0)
(2.44386 -0.533227 0)
(2.46957 -0.631965 0)
(2.46647 -0.691133 0)
(2.47875 -0.754154 0)
(2.48855 -0.806411 0)
(2.48811 -0.847484 0)
(2.4872 -0.887959 0)
(2.49808 -0.920149 0)
(2.51638 -0.944825 0)
(2.53875 -0.974889 0)
(2.54468 -0.986644 0)
(2.55002 -0.992105 0)
(2.55439 -0.99817 0)
(2.55584 -1.00174 0)
(2.55709 -1.00482 0)
(2.55652 -1.00383 0)
(2.55645 -1.00385 0)
(2.55535 -1.00411 0)
(2.58318 0.982673 0)
(2.65694 0.782588 0)
(2.72529 0.690253 0)
(2.78138 0.773571 0)
(2.91966 0.633089 0)
(2.97012 0.500968 0)
(3.0711 0.413003 0)
(3.13724 0.319576 0)
(3.18085 0.25038 0)
(3.21822 0.182041 0)
(3.22357 0.108425 0)
(3.20786 0.0701066 0)
(3.16288 0.0637234 0)
(3.11273 0.0563238 0)