/*--------------------------------*- C++ -*----------------------------------*\
  =========                 |
  \\      /  F ield         | OpenFOAM: The Open Source CFD Toolbox
   \\    /   O peration     | Website:  https://openfoam.org
    \\  /    A nd           | Version:  7
     \\/     M anipulation  |
\*---------------------------------------------------------------------------*/
FoamFile
{
    version     2.0;
    format      ascii;
    class       volScalarField;
    location    "2.9";
    object      p;
}
// * * * * * * * * * * * * * * * * * * * * * * * * * * * * * * * * * * * * * //

dimensions      [1 -1 -2 0 0 0 0];

internalField   nonuniform List<scalar> 
18432
(
1
1
1
1
1
1
1
1
1
1
1
1
1
1
1
1
1
1
1
1
1
1
1
1
1
1
1
1
1
1
1
1
1
1
1
1
1
1
1
1
1
1
1
1
1
1
1
1
1
1
1
1
1
1
1
1
1
1
1
1
1
1
1
1
1
1
1
1
1
1
1
1
1
1
1
1
1
1
1
1
1
1
1
1
1
1
1
1
1
1
1
1
1
1
1
1
1
1
1
1
1
1
1
1
1
1
1
1
1
1
1
1
1
1
1
1
1
1
1
1
1
1
1
1
1
1
1
1
1
1
1
1
1
1
1
1
1
1
1
1
1
1
1
1
1
1
1
1
1
1
1
1
1
1
1
1
1
1
1
1
1
1
1
1
1
1
1
1
1
1
1
1
1
1
1
1
1
1
1
1
1
1
1
1
1
1
1
1
1
1
1
1
1
1
1
1
1
1
1
1
1
1
1
1
1
1
1
1
1
1
1
1
1
1
1
1
1
1
1
1
1
1
1
1
1
1
1
1
1
1
1
1
1
1
1
1
1
1
1
1
1
1
1
1
1
1
1
1
1
1
1
1
1
1
1
1
1
1
1
1
1
1
1
1
1
1
1
1
1
1
1
1
1
1
1
1
1
1
1
1
1
1
1
1
1
1
1
1
1
1
1
1
1
1
1
1
1
1
1
1
1
1
1
1
1
1
1
1
1
1
1
1
1
1
1
1
1
1
1
1
1
1
1
1
1
1
1
1
1
1
1
1
1
1
1
1
1
1
1
1
1
1
1
1
1
1
1
1
1
1
1
1
1
1
1
1
1
1
1
1
1
1
1
1
1
1
1
1
1
1
1
1
1
1
1
1
1
1
1
1
1
1
1
1
1
1
1
1
1
1
1
1
1
1
1
1
1
1
1
1
1
1
1
1
1
1
1
1
1
1
1
1
1
1
1
1
1
1
1
1
1
1
1
1
1
1
1
1
1
1
1
1
1
1
1
1
1
1
1
1
1
1
1
1
1
1
1
1
1
1
1
1
1
1
1
1
1
1
1
1
1
1
1
1
1
1
1
1
1
1
1
1
1
1
1
1
1
1
1
1
1
1
1
1
1
1
1
1
1
1
1
1
1
1
1
1
1
1
1
1
1
1
1
1
1
1
1
1
1
1
1
1
1
1
1
1
1
1
1
1
1
1
1
1
1
1
1
1
1
1
1
1
1
1
1
1
1
1
1
1
1
1
1
1
1
1
1
1
1
1
1
1
1
1
1
1
1
1
1
1
1
1
1
1
1
1
1
1
1
1
1
1
1
1
1
1
1
1
1
1
1
1
1
1
1
1
1
1
1
1
1
1
1
1
1
1
1
1
1
1
1
1
1
1
1
1
1
1
1
1
1
1
1
1
1
1
1
1
1
1
1
1
1
1
1
1
1
1
1
1
1
1
1
1
1
1
1
1
1
1
1
1
1
1
1
1
1
1
1
1
1
1
1
1
1
1
1
1
1
1
1
1
1
1
1
1
1
1
1
1
1
1
1
1
1
1
1
1
1
1
1
1
1
1
1
1
1
1
1
1
1
1
1
1
1
1
1
1
1
1
1
1
1
1
1
1
1
1
1
1
1
1
1
1
1
1
1
1
1
1
1
1
1
1
1
1
1
1
1
1
1
1
1
1
1
1
1
1
1
1
1
1
1
1
1
1
1
1
1
1
1
1
1
1
1
1
1
1
1
1
1
1
1
1
1
1
1
1
1
1
1
1
1
1
1
1
1
1
1
1
1
1
1
1
1
1
1
1
1
1
1
1
1
1
1
1
1
1
1
1
1
1
1
1
1
1
1
1
1
1
1
1
1
1
1
1
1
1
1
1
1
1
1
1
1
1
1
1
1
1
1
1
1
1
1
1
1
1
1
1
1
1
1
1
1
1
1
1
1
1
1
1
1
1
1
1
1
1
1
1
1
1
1
1
1
1
1
1
1
1
1
1
1
1
1
1
1
1
1
1
1
1
1
1
1
1
1
1
1
1
1
1
1
1
1
1
1
1
1
1
1
1
1
1
1
1
1
1
1
1
1
1
1
1
1
1
1
1
1
1
1
1
1
1
1
1
1
1
1
1
1
1
1
1
1
1
1
1
1
1
1
1
1
1
1
1
1
1
1
1
1
1
1
1
1
1
1
1
1
1
1
1
1
1
1
1
1
1
1
1
1
1
1
1
1
1
1
1
1
1
1
1
1
1
1
1
1
1
1
1
1
1
1
1
1
1
1
1
1
1
1
1
1
1
1
1
1
1
1
1
1
1
1
1
1
1
1
1
1
1
1
1
1
1
1
1
1
1
1
1
1
1
1
1
1
1
1
1
1
1
1
1
1
1
1
1
1
1
1
1
1
1
1
1
1
1
1
1
1
1
1
1
1
1
1
1
1
1
1
1
1
1
1
1
1
1
1
1
1
1
1
1
1
1
1
1
1
1
1
1
1
1
1
1
1
1
1
1
1
1
1
1
1
1
1
1
1
1
1
1
1
1
1
1
1
1
1
1
1
1
1
1
1
1
1
1
1
1
1
1
1
1
1
1
1
1
1
1
1
1
1
1
1
1
1
1
1
1
1
1
1
1
1
1
1
1
1
1
1
1
1
1
1
1
1
1
1
1
1
1
1
1
1
1
1
1
1
1
1
1
1
1
1
1
1
1
1
1
1
1
1
1
1
1
1
1
1
1
1
1
1
1
1
1
1
1
1
1
1
1
1
1
1
1
1
1
1
1
1
1
1
1
1
1
1
1
1
1
1
1
1
1
1
1
1
1
1
1
1
1
1
1
1
1
1
1
1
1
1
1
1
1
1
1
1
1
1
1
1
1
1
1
1
1
1
1
1
1
1
1
1
1
1
1
1
1
1
1
1
1
1
1
1
1
1
1
1
1
1
1
1
1
1
1
1
1
1
1
1
1
1
1
1
1
1
1
1
1
1
1
1
1
1
1
1
1
1
1
1
1
1
1
1
1
1
1
1
1
1
1
1
1
1
1
1
1
1
1
1
1
1
1
1
1
1
1
1
1
1
1
1
1
1
1
1
1
1
1
1
1
1
1
1
1
1
1
1
1
1
1
1
1
1
1
1
1
1
1
1
1
1
1
1
1
1
1
1
1
1
1
1
1
1
1
1
1
1
1
1
1
1
1
1
1
1
1
1
1
1
1
1
1
1
1
1
1
1
1
1
1
1
1
1
1
1
1
1
1
1
1
1
1
1
1
1
1
1
1
1
1
1
1
1
1
1
1
1
1
1
1
1
1
1
1
1
1
1
1
1
1
1
1
1
1
1
1
1
1
1
1
1
1
1
1
1
1
1
1
1
1
1
1
1
1
1
1
1
1
1
1
1
1
1
1
1
1
1
1
1
1
1
1
1
1
1
1
1
1
1
1
1
1
1
1
1
1
1
1
1
1
1
1
1
1
1
1
1
1
1
1
1
1
1
1
1
1
1
1
1
1
1
1
1
1
1
1
1
1
1
1
1
1
1
1
1
1
1
1
1
1
1
1
1
1
1
1
1
1
1
1
1
1
1
1
1
1
1
1
1
1
1
1
1
1
1
1
1
1
1
1
1
1
1
1
1
1
1
1
1
1
1
1
1
1
1
1
1
1
1
1
1
1
1
1
1
1
1
1
1
1
1
1
1
1
1
1
1
1
1
1
1
1
1
1
1
1
1
1
1
1
1
1
1
1
1
1
1
1
1
1
1
1
1
1
1
1
1
1
1
1
1
1
1
1
1
1
1
1
1
1
1
1
1
1
1
1
1
1
1
1
1
1
1
1
1
1
1
1
1
1
1
1
1
1
1
1
1
1
1
1
1
1
1
1
1
1
1
1
1
1
1
1
1
1
1
1
1
1
1
1
1
1
1
1
1
1
1
1
1
1
1
1
1
1
1
1
1
1
1
1
1
1
1
1
1
1
1
1
1
1
1
1
1
1
1
1
1
1
1
1
1
1
1
1
1
1
1
1
1
1
1
1
1
1
1
1
1
1
1
1
1
1
1
1
1
1
1
1
1
1
1
1
1
1
1
1
1
1
1
1
1
1
1
1
1
1
1
1
1
1
1
1
1
1
1
1
1
1
1
1
1
1
1
1
1
1
1
1
1
1
1
1
1
1
1
1
1
1
1
1
1
1
1
1
1
1
1
1
1
1
1
1
1
1
1
1
1
1
1
1
1
1
1
1
1
1
1
1
1
1
1
1
1
1
1
1
1
1
1
1
1
1
1
1
1
1
1
1
1
1
1
1
1
1
1
1
1
1
1
1
1
1
1
1
1
1
1
1
1
1
1
1
1
1
1
1
1
1
1
1
1
1
1
1
1
1
1
1
1
1
1
1
1
1
1
1
1
1
1
1
1
1
1
1
1
1
1
1
1
1
1
1
1
1
1
1
1
1
1
1
1
1
1
1
1
1
1
1
1
1
1
1
1
1
1
1
1
1
1
1
1
1
1
1
1
1
1
1
1
1
1
1
1
1
1
1
1
1
1
1
1
1
1
1
1
1
1
1
1
1
1
1
1
1
1
1
1
1
1
1
1
1
1
1
1
1
1
1
1
1
1
1
1
1
1
1
1
1
1
1
1
1
1
1
1
1
1
1
1
1
1
1
1
1
1
1
1
1
1
1
1
1
1
1
1
1
1
1
1
1
1
1
1
1
1
1
1
1
1
1
1
1
1
1
1
1
1
1
1
1
1
1
1
1
1
1
1
1
1
1
1
1
1
1
1
1
1
1
1
1
1
1
1
1
1
1
1
1
1
1
1
1
1
1
1
1
1
1
1
1
1
1
1
1
1
1
1
1
1
1
1
1
1
1
1
1
1
1
1
1
1
1
1
1
1
1
1
1
1
1
1
1
1
1
1
1
1
1
1
1
1
1
1
1
1
1
1
1
1
1
1
1
1
1
1
1
1
1
1
1
1
1
1
1
1
1
1
1
1
1
1
1
1
1
1
1
1
1
1
1
1
1
1
1
1
1
1
1
1
1
1
1
1
1
1
1
1
1
1
1
1
1
1
1
1
1
1
1
1
1
1
1
1
1
1
1
1
1
1
1
1
1
1
1
1
1
1
1
1
1
1
1
1
1
1
1
1
1
1
1
1
1
1
1
1
1
1
1
1
1
1
1
1
1
1
1
1
1
1
1
1
1
1
1
1
1
1
1
1
1
1
1
1
1
1
1
1
1
1
1
1
1
1
1
1
1
1
1
1
1
1
1
1
1
1
1
1
1
1
1
1
1
1
1
1
1
1
1
1
1
1
1
1
1
1
1
1
1
1
1
1
1
1
1
1
1
1
1
1
1
1
1
1
1
1
1
1
1
1
1
1
1
1
1
1
1
1
1
1
1
1
1
1
1
1
1
1
1
1
1
1
1
1
1
1
1
1
1
1
1
1
1
1
1
1
1
1
1
1
1
1
1
1
1
1
1
1
1
1
1
1
1
1
1
1
1
1
1
1
1
1
1
1
1
1
1
1
1
1
1
1
1
1
1
1
1
1
1
1
1
1
1
1
1
1
1
1
1
1
1
1
1
1
1
1
1
1
1
1
1
1
1
1
1
1
1
1
1
1
1
1
1
1
1
1
1
1
1
1
1
1
1
1
1
1
1
1
1
1
1
1
1
1
1
1
1
1
1
1
1
1
1
1
1
1
1
1
1
1
1
1
1
1
1
1
1
1
1
1
1
1
1
1
1
1
1
1
1
1
1
1
1
1
1
1
1
1
1
1
1
1
1
1
1
1
1
1
1
1
1
1
1
1
1
1
1
1
1
1
1
1
1
1
1
1
1
1
1
1
1
1
1
1
1
1
1
1
1
1
1
1
1
1
1
1
1
1
1
1
1
1
1
1
1
1
1
1
1
1
1
1
1
1
1
1
1
1
1
1
1
1
1
1
1
1
1
1
1
1
1
1
1
1
1
1
1
1
1
1
1
1
1
1
1
1
1
1
1
1
1
1
1
1
1
1
1
1
1
1
1
1
1
1
1
1
1
1
1
1
1
1
1
1
1
1
1
1
1
1
1
1
1
1
1
1
1
1
1
1
1
1
1
1
1
1
1
1
1
1
1
1
1
1
1
1
1
1
1
1
1
1
1
1
1
1
1
1
1
1
1
1
1
1
1
1
1
1
1
1
1
1
1
1
1
1
1
1
1
1
1
1
1
1
1
1
1
1
1
1
1
1
1
1
1
1
1
1
1
1
1
1
1
1
1
1
1
1
1
1
1
1
1
1
1
1
1
1
1
1
1
1
1
1
1
1
1
1
1
1
1
1
1
1
1
1
1
1
1
1
1
1
1
1
1
1
1
1
1
1
1
1
1
1
1
1
1
1
1
1
1
1
1
1
1
1
1
1
1
1
1
1
1
1
1
1
1
1
1
1
1
1
1
1
1
1
1
1
1
1
1
1
1
1
1
1
1
1
1
1
1
1
1
1
1
1
1
1
1
1
1
1
1
1
1
1
1
1
1
1
1
1
1
1
1
1
1
1
1
1
1
1
1
1
1
1
1
1
1
1
1
1
1
1
1
1
1
1
1
1
1
1
1
1
1
1
1
1
1
1
1
1
1
1
1
1
1
1
1
1
1
1
1
1
1
1
1
1
1
1
1
1
1
1
1
1
1
1
1
1
1
1
1
1
1
1
1
1
1
1
1
1
1
1
1
1
1
1
1
1
1
1
1
1
1
1
1
1
1
1
1
1
1
1
1
1
1
1
1
1
1
1
1
1
1
1
1
1
1
1
1
1
1
1
1
1
1
1
1
1
1
1
1
1
1
1
1
1
1
1
1
1
1
1
1
1
1
1
1
1
1
1
1
1
1
1
1
1
1
1
1
1
1
1
1
1
1
1
1
1
1
1
1
1
1
1
1
1
1
1
1
1
1
1
1
1
1
1
1
1
1
1
1
1.2916
1.74073
2.33639
2.92404
3.50647
4.2032
4.67442
5.07639
5.33506
5.25398
4.95956
4.49117
4.05689
3.76089
3.66224
3.58737
3.56541
3.5937
3.63065
3.66198
3.68946
3.70959
3.72793
3.74764
3.75717
3.7597
3.75957
3.76045
3.76232
3.76077
3.75749
3.75805
3.76498
3.77932
3.79299
3.79652
3.79549
3.79164
3.78379
3.7741
3.76968
3.76936
3.76993
3.77168
3.77323
3.7737
3.77348
3.77004
1.00235
1.01834
1.0635
1.2035
1.41633
1.75666
2.22595
2.75258
3.32938
3.70975
3.92667
4.03971
4.01894
3.94478
3.84919
3.78145
3.7224
3.70945
3.67488
3.66398
3.67357
3.69488
3.71766
3.74309
3.76145
3.7679
3.77111
3.76818
3.76491
3.76451
3.76456
3.76635
3.76946
3.77256
3.77625
3.77795
3.77665
3.77332
3.76905
3.76694
3.76704
3.76783
3.76984
3.7744
3.77848
3.77912
3.7786
3.77683
1
0.999985
0.999999
1.00007
1.00151
1.0126
1.0644
1.2188
1.611
2.33731
3.33996
3.92223
4.28632
4.31807
4.25625
4.12941
3.96908
3.76028
3.65664
3.64639
3.65763
3.67572
3.6971
3.72745
3.75651
3.76922
3.77501
3.77796
3.77742
3.77959
3.78229
3.78426
3.78519
3.78363
3.77959
3.77503
3.76978
3.76457
3.76079
3.75971
3.76006
3.76126
3.76495
3.77203
3.77819
3.77997
3.7799
3.78156
1
1
1
1
0.999999
0.999981
1.00007
1.00009
1.00578
1.07226
1.40576
2.15512
3.09348
3.95749
4.03359
4.01602
3.99596
3.90147
3.80239
3.74328
3.71862
3.6943
3.6803
3.68774
3.704
3.7204
3.7394
3.75294
3.76252
3.76912
3.77523
3.78008
3.7827
3.78265
3.7816
3.7782
3.77324
3.7694
3.76693
3.76583
3.76635
3.76835
3.77212
3.77695
3.78001
3.77902
3.77686
3.77639
1
1
1
1
1
0.999999
1
1
1
0.999932
1.0016
1.04898
1.28086
2.00847
2.8588
3.62841
4.04877
4.06675
4.00339
3.93044
3.83041
3.7442
3.71021
3.69047
3.68466
3.69483
3.70743
3.71939
3.73193
3.74198
3.74922
3.75416
3.76139
3.77015
3.77254
3.77276
3.77278
3.7721
3.77141
3.77151
3.77351
3.77738
3.78203
3.78531
3.78564
3.78347
3.77959
3.77677
1
1
1
1
1
1
1
1
1
0.999997
0.999998
0.999955
1.00071
1.02901
1.23842
1.77536
2.72468
3.36683
3.88857
3.93323
3.92166
3.84801
3.80334
3.77351
3.74687
3.71897
3.70413
3.70328
3.71013
3.73061
3.74888
3.76089
3.77037
3.77515
3.77578
3.77566
3.7757
3.77436
3.77239
3.77176
3.773
3.77633
3.7799
3.78004
3.77735
3.77367
3.76797
3.76577
1
1
1
1
1
1
1
1
1
1
1
0.999997
0.999998
0.999962
1.00066
1.01549
1.19786
1.68307
2.57257
3.23781
3.62661
3.84816
3.84836
3.84086
3.79856
3.76023
3.74163
3.72784
3.72364
3.72957
3.74563
3.76855
3.78297
3.78418
3.7817
3.78017
3.77891
3.77655
3.77234
3.77032
3.76923
3.77175
3.77507
3.77442
3.77171
3.76836
3.76439
3.76456
1
1
1
1
1
1
1
1
1
1
1
1
1
0.999997
0.999998
0.999974
1.00064
1.0143
1.13599
1.62905
2.33599
3.25346
3.52961
3.66049
3.69582
3.7092
3.72795
3.71812
3.71157
3.71802
3.7319
3.74667
3.75935
3.77161
3.77517
3.77394
3.77082
3.76821
3.76716
3.76692
3.76989
3.77633
3.77849
3.77829
3.77713
3.77504
3.77234
3.77229
1
1
1
1
1
1
1
1
1
1
1
1
1
1
1
0.999998
0.999998
0.999982
1.00028
1.0148
1.1072
1.54255
2.29339
3.08716
3.58193
3.64982
3.71171
3.70731
3.69531
3.70008
3.70792
3.71582
3.72488
3.7378
3.74837
3.75553
3.75936
3.7618
3.76497
3.76746
3.77204
3.7769
3.7787
3.78009
3.78045
3.77832
3.77505
3.77418
1
1
1
1
1
1
1
1
1
1
1
1
1
1
1
1
1
0.999999
0.999998
0.999985
1.00023
1.01113
1.12217
1.47754
2.24715
2.95623
3.52681
3.705
3.71959
3.73232
3.73542
3.73012
3.7248
3.72689
3.73481
3.74276
3.74936
3.75579
3.76184
3.76772
3.77408
3.77537
3.7756
3.77743
3.7788
3.77652
3.77381
3.77248
1
1
1
1
1
1
1
1
1
1
1
1
1
1
1
1
1
1
1
0.999998
0.999999
0.999985
1.00044
1.00844
1.1204
1.47765
2.22553
2.9213
3.42082
3.67337
3.75494
3.76279
3.76055
3.75794
3.75253
3.75742
3.76577
3.7719
3.77944
3.78623
3.78895
3.78658
3.78258
3.78018
3.77733
3.77284
3.76953
3.76749
1
1
1
1
1
1
1
1
1
1
1
1
1
1
1
1
1
1
1
1
1
0.999998
0.999998
0.999988
1.00061
1.01034
1.10559
1.52552
2.23601
3.04331
3.38208
3.58151
3.70522
3.73934
3.73328
3.74456
3.76043
3.76852
3.77717
3.78291
3.78498
3.78472
3.78265
3.78185
3.78109
3.77821
3.77551
3.77437
1
1
1
1
1
1
1
1
1
1
1
1
1
1
1
1
1
1
1
1
1
1
1
0.999998
0.999999
0.99999
1.00053
1.01647
1.11489
1.57377
2.29433
3.16511
3.51125
3.60063
3.64818
3.6851
3.71292
3.73115
3.7457
3.75779
3.76676
3.77197
3.77253
3.77057
3.76987
3.76941
3.77065
3.77267
1
1
1
1
1
1
1
1
1
1
1
1
1
1
1
1
1
1
1
1
1
1
1
1
1
0.999999
0.999999
1
1.00067
1.0225
1.15468
1.65383
2.4639
3.2112
3.63761
3.6997
3.72727
3.73757
3.73978
3.74683
3.75525
3.75848
3.7566
3.75809
3.75956
3.76122
3.76467
3.76828
1
1
1
1
1
1
1
1
1
1
1
1
1
1
1
1
1
1
1
1
1
1
1
1
1
1
1
1
0.999998
1.00003
1.00142
1.02996
1.2412
1.81236
2.66775
3.31813
3.66393
3.7759
3.78313
3.78475
3.78295
3.7804
3.77413
3.77192
3.77399
3.77561
3.77691
3.77811
1
1
1
1
1
1
1
1
1
1
1
1
1
1
1
1
1
1
1
1
1
1
1
1
1
1
1
1
1
1
0.999997
1.00008
1.00387
1.05093
1.37677
2.09222
2.95945
3.38948
3.6259
3.75494
3.76148
3.76171
3.77261
3.77996
3.78411
3.78768
3.78839
3.78808
1
1
1
1
1
1
1
1
1
1
1
1
1
1
1
1
1
1
1
1
1
1
1
1
1
1
1
1
1
1
1
1
0.999996
1.00026
1.01146
1.10254
1.58012
2.41007
3.33528
3.56816
3.64617
3.6821
3.71312
3.73882
3.75561
3.76715
3.77557
3.77989
1
1
1
1
1
1
1
1
1
1
1
1
1
1
1
1
1
1
1
1
1
1
1
1
1
1
1
1
1
1
1
1
0.999999
0.999999
1.00001
1.00101
1.03198
1.22313
1.92805
2.82417
3.50289
3.70108
3.73365
3.74895
3.75178
3.75619
3.76593
3.77399
1
1
1
1
1
1
1
1
1
1
1
1
1
1
1
1
1
1
1
1
1
1
1
1
1
1
1
1
1
1
1
1
1
1
1
0.999998
1.00014
1.00459
1.09046
1.47656
2.39084
3.19182
3.6464
3.79131
3.79823
3.79795
3.79676
3.79396
1
1
1
1
1
1
1
1
1
1
1
1
1
1
1
1
1
1
1
1
1
1
1
1
1
1
1
1
1
1
1
1
1
1
1
1
0.999999
1
1.0011
1.02066
1.25604
1.96043
2.98245
3.42498
3.61495
3.75901
3.77166
3.77143
1
1
1
1
1
1
1
1
1
1
1
1
1
1
1
1
1
1
1
1
1
1
1
1
1
1
1
1
1
1
1
1
1
1
1
1
1
1
0.999999
1.0001
1.00811
1.09492
1.60816
2.56953
3.46177
3.64746
3.68925
3.70288
1
1
1
1
1
1
1
1
1
1
1
1
1
1
1
1
1
1
1
1
1
1
1
1
1
1
1
1
1
1
1
1
1
1
1
1
1
1
1
1
1.00002
1.00139
1.04345
1.33984
2.24083
3.1911
3.69491
3.76416
1
1
1
1
1
1
1
1
1
1
1
1
1
1
1
1
1
1
1
1
1
1
1
1
1
1
1
1
1
1
1
1
1
1
1
1
1
1
1
1
1
1
1.00043
1.01453
1.21028
1.9216
2.88284
3.48132
1
1
1
1
1
1
1
1
1
1
1
1
1
1
1
1
1
1
1
1
1
1
1
1
1
1
1
1
1
1
1
1
1
1
1
1
1
1
1
1
1
1
1
1.00009
1.00654
1.09724
1.68936
2.68553
1
1
1
1
1
1
1
1
1
1
1
1
1
1
1
1
1
1
1
1
1
1
1
1
1
1
1
1
1
1
1
1
1
1
1
1
1
1
1
1
1
1
1
1
1.00002
1.00198
1.07428
1.42417
1
1
1
1
1
1
1
1
1
1
1
1
1
1
1
1
1
1
1
1
1
1
1
1
1
1
1
1
1
1
1
1
1
1
1
1
1
1
1
1
1
1
1
1
1
1
1.00167
1.01669
1
1
1
1
1
1
1
1
1
1
1
1
1
1
1
1
1
1
1
1
1
1
1
1
1
1
1
1
1
1
1
1
1
1
1
1
1
1
1
1
1
1
1
1
1
1
1.00001
0.999849
1
1
1
1
1
1
1
1
1
1
1
1
1
1
1
1
1
1
1
1
1
1
1
1
1
1
1
1
1
1
1
1
1
1
1
1
1
1
1
1
1
1
1
1
1
1
1
0.999946
1
1
1
1
1
1
1
1
1
1
1
1
1
1
1
1
1
1
1
1
1
1
1
1
1
1
1
1
1
1
1
1
1
1
1
1
1
1
1
1
1
1
1
1
1
1
1
0.99999
1
1
1
1
1
1
1
1
1
1
1
1
1
1
1
1
1
1
1
1
1
1
1
1
1
1
1
1
1
1
1
1
1
1
1
1
1
1
1
1
1
1
1
1
1
1
1
1
1
1
1
1
1
1
1
1
1
1
1
1
1
1
1
1
1
1
1
1
1
1
1
1
1
1
1
1
1
1
1
1
1
1
1
1
1
1
1
1
1
1
1
1
1
1
1
1
1
1
1
1
1
1
1
1
1
1
1
1
1
1
1
1
1
1
1
1
1
1
1
1
1
1
1
1
1
1
1
1
1
1
1
1
1
1
1
1
1
1
1
1
1
1
1
1
1
1
1
1
1
1
1
1
1
1
1
1
1
1
1
1
1
1
1
1
1
1
1
1
1
1
1
1
1
1
1
1
1
1
1
1
1
1
1
1
1
1
1
1
1
1
1
1
1
1
1
1
1
1
1
1
1
1
1
1
1
1
1
1
1
1
1
1
1
1
1
1
1
1
1
1
1
1
1
1
1
1
1
1
1
1
1
1
1
1
1
1
1
1
1
1
1
1
1
1
1
1
1
1
1
1
1
1
1
1
1
1
1
1
1
1
1
1
1
1
1
1
1
1
1
1
1
1
1
1
1
1
1
1
1
1
1
1
1
1
1
1
1
1
1
1
1
1
1
1
1
1
1
1
1
1
1
1
1
1
1
1
1
1
1
1
1
1
1
1
1
1
1
1
1
1
1
1
1
1
1
1
1
1
1
1
1
1
1
1
1
0.99999
1
1
1
1
1
1
1
1
1
1
1
1
1
1
1
1
1
1
1
1
1
1
1
1
1
1
1
1
1
1
1
1
1
1
1
1
1
1
1
1
1
1
1
1
1
1
1
0.999945
1
1
1
1
1
1
1
1
1
1
1
1
1
1
1
1
1
1
1
1
1
1
1
1
1
1
1
1
1
1
1
1
1
1
1
1
1
1
1
1
1
1
1
1
1
1
1.00001
0.999846
1
1
1
1
1
1
1
1
1
1
1
1
1
1
1
1
1
1
1
1
1
1
1
1
1
1
1
1
1
1
1
1
1
1
1
1
1
1
1
1
1
1
1
1
1
1
1.00167
1.01661
1
1
1
1
1
1
1
1
1
1
1
1
1
1
1
1
1
1
1
1
1
1
1
1
1
1
1
1
1
1
1
1
1
1
1
1
1
1
1
1
1
1
1
1
1.00002
1.00199
1.07414
1.4255
1
1
1
1
1
1
1
1
1
1
1
1
1
1
1
1
1
1
1
1
1
1
1
1
1
1
1
1
1
1
1
1
1
1
1
1
1
1
1
1
1
1
1
1.00009
1.00654
1.09724
1.68888
2.68834
1
1
1
1
1
1
1
1
1
1
1
1
1
1
1
1
1
1
1
1
1
1
1
1
1
1
1
1
1
1
1
1
1
1
1
1
1
1
1
1
1
1
1.00043
1.01453
1.21031
1.92131
2.88359
3.48113
1
1
1
1
1
1
1
1
1
1
1
1
1
1
1
1
1
1
1
1
1
1
1
1
1
1
1
1
1
1
1
1
1
1
1
1
1
1
1
1
1.00002
1.00139
1.04344
1.33992
2.24076
3.19118
3.69521
3.76381
1
1
1
1
1
1
1
1
1
1
1
1
1
1
1
1
1
1
1
1
1
1
1
1
1
1
1
1
1
1
1
1
1
1
1
1
1
1
0.999999
1.0001
1.00811
1.09491
1.60809
2.56982
3.4614
3.6474
3.68938
3.70275
1
1
1
1
1
1
1
1
1
1
1
1
1
1
1
1
1
1
1
1
1
1
1
1
1
1
1
1
1
1
1
1
1
1
1
1
0.999999
1
1.0011
1.02066
1.25606
1.96035
2.98251
3.42514
3.61456
3.75887
3.77187
3.77155
1
1
1
1
1
1
1
1
1
1
1
1
1
1
1
1
1
1
1
1
1
1
1
1
1
1
1
1
1
1
1
1
1
1
1
0.999998
1.00014
1.00459
1.09045
1.47657
2.39087
3.19173
3.64651
3.79132
3.79813
3.7979
3.79681
3.79406
1
1
1
1
1
1
1
1
1
1
1
1
1
1
1
1
1
1
1
1
1
1
1
1
1
1
1
1
1
1
1
1
0.999999
0.999999
1.00001
1.00101
1.03198
1.22313
1.92802
2.82419
3.50291
3.70102
3.73368
3.74894
3.75176
3.75618
3.76594
3.77402
1
1
1
1
1
1
1
1
1
1
1
1
1
1
1
1
1
1
1
1
1
1
1
1
1
1
1
1
1
1
1
1
0.999996
1.00026
1.01146
1.10254
1.58013
2.41005
3.33527
3.5682
3.64619
3.68207
3.71309
3.73883
3.75561
3.76714
3.77557
3.7799
1
1
1
1
1
1
1
1
1
1
1
1
1
1
1
1
1
1
1
1
1
1
1
1
1
1
1
1
1
1
0.999997
1.00008
1.00387
1.05093
1.37677
2.09222
2.95946
3.38946
3.6259
3.75495
3.76148
3.76169
3.77259
3.77997
3.78412
3.78768
3.7884
3.78808
1
1
1
1
1
1
1
1
1
1
1
1
1
1
1
1
1
1
1
1
1
1
1
1
1
1
1
1
0.999998
1.00003
1.00142
1.02996
1.2412
1.81236
2.66774
3.31814
3.66393
3.7759
3.78313
3.78475
3.78295
3.78039
3.77412
3.77192
3.774
3.77562
3.77691
3.77812
1
1
1
1
1
1
1
1
1
1
1
1
1
1
1
1
1
1
1
1
1
1
1
1
1
0.999999
0.999999
1
1.00067
1.0225
1.15468
1.65383
2.4639
3.2112
3.63761
3.6997
3.72726
3.73757
3.73977
3.74683
3.75525
3.75848
3.7566
3.75809
3.75956
3.76123
3.76468
3.76829
1
1
1
1
1
1
1
1
1
1
1
1
1
1
1
1
1
1
1
1
1
1
1
0.999998
0.999999
0.99999
1.00053
1.01647
1.11489
1.57377
2.29433
3.16511
3.51125
3.60063
3.64818
3.6851
3.71292
3.73115
3.7457
3.75779
3.76676
3.77197
3.77253
3.77057
3.76987
3.76942
3.77065
3.77267
1
1
1
1
1
1
1
1
1
1
1
1
1
1
1
1
1
1
1
1
1
0.999998
0.999998
0.999988
1.00061
1.01034
1.10559
1.52552
2.23601
3.04331
3.38208
3.58151
3.70522
3.73934
3.73328
3.74456
3.76043
3.76852
3.77717
3.78291
3.78498
3.78472
3.78265
3.78185
3.78109
3.77821
3.77551
3.77437
1
1
1
1
1
1
1
1
1
1
1
1
1
1
1
1
1
1
1
0.999998
0.999999
0.999985
1.00044
1.00844
1.1204
1.47766
2.22553
2.9213
3.42082
3.67337
3.75494
3.76279
3.76055
3.75794
3.75253
3.75742
3.76577
3.7719
3.77944
3.78623
3.78895
3.78658
3.78258
3.78018
3.77733
3.77284
3.76953
3.76749
1
1
1
1
1
1
1
1
1
1
1
1
1
1
1
1
1
0.999999
0.999998
0.999985
1.00023
1.01113
1.12217
1.47754
2.24715
2.95623
3.52681
3.705
3.7196
3.73232
3.73542
3.73012
3.7248
3.72689
3.73481
3.74276
3.74936
3.75579
3.76184
3.76772
3.77408
3.77537
3.7756
3.77743
3.7788
3.77652
3.77381
3.77248
1
1
1
1
1
1
1
1
1
1
1
1
1
1
1
0.999998
0.999998
0.999982
1.00028
1.0148
1.1072
1.54255
2.29339
3.08716
3.58194
3.64982
3.71171
3.70731
3.69531
3.70008
3.70792
3.71582
3.72488
3.7378
3.74837
3.75553
3.75936
3.7618
3.76497
3.76746
3.77204
3.7769
3.7787
3.78009
3.78045
3.77832
3.77505
3.77418
1
1
1
1
1
1
1
1
1
1
1
1
1
0.999997
0.999998
0.999974
1.00064
1.0143
1.13599
1.62905
2.33599
3.25346
3.52961
3.66049
3.69582
3.7092
3.72795
3.71812
3.71157
3.71802
3.7319
3.74667
3.75935
3.77161
3.77517
3.77394
3.77082
3.76821
3.76716
3.76692
3.76989
3.77633
3.77849
3.77829
3.77713
3.77504
3.77234
3.77229
1
1
1
1
1
1
1
1
1
1
1
0.999997
0.999998
0.999962
1.00066
1.01549
1.19786
1.68307
2.57257
3.23781
3.62661
3.84816
3.84836
3.84086
3.79856
3.76023
3.74163
3.72784
3.72364
3.72957
3.74563
3.76855
3.78297
3.78418
3.7817
3.78017
3.77891
3.77655
3.77234
3.77032
3.76923
3.77175
3.77507
3.77442
3.77171
3.76836
3.76439
3.76456
1
1
1
1
1
1
1
1
1
0.999997
0.999998
0.999955
1.00071
1.02901
1.23842
1.77536
2.72468
3.36683
3.88857
3.93323
3.92166
3.84801
3.80334
3.77351
3.74687
3.71897
3.70413
3.70328
3.71013
3.73061
3.74888
3.76089
3.77037
3.77515
3.77578
3.77566
3.7757
3.77436
3.77239
3.77176
3.773
3.77633
3.7799
3.78004
3.77735
3.77367
3.76797
3.76577
1
1
1
1
1
0.999999
1
1
1
0.999932
1.0016
1.04898
1.28086
2.00847
2.8588
3.6284
4.04877
4.06675
4.00339
3.93044
3.83041
3.7442
3.71021
3.69047
3.68466
3.69483
3.70743
3.71939
3.73193
3.74198
3.74922
3.75416
3.76139
3.77015
3.77254
3.77276
3.77278
3.7721
3.77141
3.77151
3.77351
3.77738
3.78203
3.78531
3.78564
3.78347
3.77959
3.77677
1
1
1
1
0.999999
0.999981
1.00007
1.00009
1.00578
1.07226
1.40576
2.15512
3.09348
3.9575
4.03359
4.01602
3.99596
3.90147
3.80239
3.74328
3.71862
3.6943
3.6803
3.68774
3.704
3.7204
3.7394
3.75294
3.76252
3.76912
3.77523
3.78008
3.7827
3.78265
3.7816
3.7782
3.77324
3.7694
3.76693
3.76583
3.76635
3.76835
3.77212
3.77695
3.78001
3.77902
3.77686
3.77639
1
0.999985
0.999999
1.00007
1.00151
1.0126
1.0644
1.2188
1.611
2.33731
3.33996
3.92223
4.28632
4.31807
4.25625
4.12941
3.96908
3.76028
3.65664
3.64638
3.65763
3.67572
3.6971
3.72745
3.75651
3.76922
3.77501
3.77796
3.77742
3.77959
3.78229
3.78426
3.78519
3.78363
3.77959
3.77503
3.76978
3.76457
3.76079
3.75971
3.76006
3.76126
3.76495
3.77203
3.77819
3.77997
3.7799
3.78156
1.00235
1.01834
1.0635
1.2035
1.41633
1.75666
2.22595
2.75258
3.32938
3.70975
3.92667
4.03971
4.01894
3.94478
3.84919
3.78145
3.7224
3.70945
3.67488
3.66398
3.67357
3.69488
3.71766
3.74309
3.76145
3.7679
3.77111
3.76818
3.76491
3.76451
3.76457
3.76635
3.76946
3.77256
3.77625
3.77795
3.77665
3.77332
3.76905
3.76694
3.76704
3.76783
3.76984
3.7744
3.77848
3.77912
3.7786
3.77683
1.2916
1.74073
2.33639
2.92404
3.50647
4.2032
4.67442
5.07639
5.33506
5.25398
4.95956
4.49117
4.05689
3.76089
3.66224
3.58737
3.56541
3.5937
3.63065
3.66198
3.68946
3.70959
3.72793
3.74764
3.75717
3.7597
3.75957
3.76045
3.76232
3.76077
3.75749
3.75805
3.76498
3.77932
3.79299
3.79652
3.79549
3.79164
3.78379
3.7741
3.76968
3.76936
3.76993
3.77168
3.77323
3.7737
3.77348
3.77004
2.64161
1.73357
1.15849
0.736241
0.668141
0.71523
0.707021
0.713841
0.783915
0.882734
0.923412
0.938243
0.973039
1.01918
1.03357
1.04183
1.06174
1.07613
1.07424
1.0685
1.06654
1.06581
1.05645
1.05265
1.05733
1.06031
1.05807
1.04977
1.03961
1.03714
1.03813
1.03928
1.04123
1.04257
1.04323
1.04365
1.04338
1.04266
1.04312
1.04525
1.04941
1.05113
1.05122
1.05098
1.05006
1.04778
1.04594
1.04601
1.05436
1.22304
1.84134
3.18844
5.20595
7.74212
10.2994
10.3207
9.41731
8.35667
7.91143
7.76946
7.64368
7.51868
7.45531
7.35824
7.21895
7.00482
6.68354
6.47172
6.38912
6.31337
6.22265
6.12393
6.00914
5.8274
5.57839
5.44395
5.38897
5.35885
5.33083
5.27269
5.19415
5.04891
4.83724
4.67135
4.58657
4.52993
4.48146
4.43447
4.37884
4.27345
4.14261
4.08372
4.04434
4.00154
3.95238
3.88969
3.78509
3.63227
3.53544
3.49566
3.46393
3.43389
3.41124
3.38891
3.36032
3.31965
3.23149
3.10509
3.02022
2.97546
2.94255
2.91617
2.89453
2.8736
2.8464
2.80208
2.72911
2.6535
2.61225
2.58702
2.56475
2.54177
2.51253
2.46249
2.39008
2.35025
2.33481
2.32388
2.31369
2.29881
2.27748
2.23663
2.15885
2.07971
2.04371
2.02819
2.01878
2.01097
2.00124
1.9899
1.97638
1.95339
1.91953
1.87636
1.88394
1.98062
2.27263
2.87714
3.7138
4.44169
5.1707
5.66968
5.66575
5.55683
5.32836
5.07546
5.0291
5.01629
5.01904
5.02048
4.98937
4.95328
4.89072
4.74491
4.63307
4.60175
4.58354
4.59589
4.61604
4.59292
4.55918
4.49385
4.36273
4.2672
4.23689
4.21602
4.20375
4.19631
4.1778
4.1539
4.11412
4.03881
3.96779
3.93588
3.91677
3.90133
3.88822
3.87144
3.85462
3.83236
3.79177
3.68199
3.3686
2.72253
2.24548
1.75876
1.39874
1.27553
1.14632
1.01996
1.01106
0.987724
0.924693
0.904518
0.916456
0.941917
0.967884
0.981993
1.00477
1.02584
1.02438
1.02563
1.03041
1.04261
1.04853
1.05588
1.06168
1.06192
1.05835
1.04886
1.04316
1.04312
1.04348
1.04411
1.04625
1.04754
1.04786
1.04768
1.0465
1.04575
1.04576
1.04654
1.04795
1.04856
1.04886
1.04879
1.04781
1.04419
1.04406
1.05628
1.21877
1.95555
2.80286
3.19666
3.88735
4.74993
6.58777
8.11868
8.73298
8.52311
8.20058
7.85491
7.6359
7.52087
7.45498
7.36429
7.22166
7.03635
6.76412
6.49116
6.36629
6.2991
6.23815
6.14447
6.03186
5.88667
5.68914
5.50142
5.39791
5.3432
5.28737
5.21993
5.1333
5.0215
4.88253
4.74518
4.63791
4.55722
4.4954
4.43895
4.36029
4.26284
4.15914
4.08162
4.0353
3.99715
3.95964
3.90654
3.81227
3.66806
3.55891
3.51062
3.47854
3.45129
3.42389
3.39228
3.35706
3.31088
3.23281
3.1175
3.03652
2.99319
2.96096
2.92924
2.89672
2.87193
2.85136
2.81825
2.75288
2.68481
2.64588
2.61778
2.59111
2.56373
2.52955
2.47929
2.41418
2.37676
2.35832
2.34268
2.32948
2.3126
2.28734
2.2428
2.17526
2.1095
2.06911
2.04209
2.02393
2.01209
2.00542
2.00097
1.98856
1.97111
1.95378
1.972
2.10317
2.42787
2.7844
3.08831
3.42489
3.8641
4.32646
4.81148
5.02058
5.18025
5.191
5.12674
5.07385
5.04845
5.05323
5.04324
5.0139
4.97476
4.90538
4.77104
4.65053
4.61214
4.59386
4.58908
4.59299
4.57567
4.5455
4.49451
4.39576
4.29561
4.25299
4.23167
4.21657
4.20611
4.18766
4.1615
4.12084
4.06063
3.99908
3.95706
3.92701
3.904
3.88412
3.8639
3.84081
3.80935
3.76963
3.68156
3.66982
3.33062
2.86271
2.40645
1.95308
1.66254
1.45479
1.21672
1.08696
1.03837
0.966424
0.921041
0.926484
0.942512
0.944902
0.947027
0.959907
0.98039
0.987696
0.993041
1.00675
1.02801
1.03986
1.04712
1.05249
1.05353
1.05225
1.04906
1.04747
1.04805
1.04872
1.05039
1.05183
1.05144
1.05019
1.04722
1.04491
1.04453
1.04461
1.04547
1.04663
1.04763
1.04777
1.04699
1.04439
1.0469
1.07611
1.25372
2.07183
3.06012
3.37219
3.35699
3.39986
3.48997
4.06992
5.83071
7.98785
8.76001
8.53396
7.9763
7.57674
7.47997
7.39064
7.26195
7.11401
6.99055
6.83623
6.59514
6.35073
6.22152
6.13404
6.05597
5.96805
5.8729
5.76932
5.62644
5.45124
5.31258
5.22121
5.12962
5.02839
4.93035
4.85879
4.79692
4.71542
4.62567
4.53399
4.4242
4.31376
4.22202
4.15797
4.09999
4.04218
3.982
3.91749
3.85156
3.7706
3.664
3.57706
3.53695
3.50947
3.48144
3.44936
3.41265
3.36171
3.28306
3.1775
3.08221
3.02627
2.9961
2.96788
2.93948
2.90967
2.8789
2.83821
2.78261
2.71782
2.66754
2.63646
2.6074
2.57244
2.53226
2.48837
2.44308
2.41337
2.38655
2.35049
2.31564
2.29094
2.27178
2.24759
2.20891
2.15855
2.12359
2.09704
2.06995
2.0438
2.02012
1.99353
1.97665
1.97272
1.97985
2.03429
2.21982
2.66422
3.02785
3.19728
3.25186
3.29625
3.40793
3.6265
4.00047
4.46812
4.90102
5.07225
5.12591
5.12139
5.09175
5.04454
5.01655
4.99985
4.95002
4.87513
4.78759
4.70192
4.64087
4.60329
4.57371
4.54923
4.52624
4.49851
4.46006
4.40787
4.34858
4.2889
4.23333
4.18753
4.16257
4.14324
4.11915
4.08444
4.04777
4.02061
3.99178
3.95459
3.91416
3.88451
3.85701
3.8224
3.7754
3.72351
3.65939
3.75349
3.62028
3.31555
2.92748
2.48064
2.12023
1.85741
1.58105
1.37839
1.29391
1.18761
1.05879
1.04636
1.02415
0.97618
0.954387
0.95473
0.947587
0.942321
0.945139
0.959512
0.991605
1.01615
1.02653
1.03426
1.04078
1.04223
1.04226
1.04292
1.04625
1.053
1.0571
1.05735
1.05641
1.05406
1.05041
1.0488
1.04894
1.05041
1.05143
1.05077
1.05017
1.04833
1.04475
1.0481
1.11499
1.4437
2.09842
3.16585
3.52448
3.50701
3.4253
3.38227
3.31196
3.29941
3.61498
5.04703
7.33058
8.10589
7.90715
7.70496
7.54833
7.33635
7.14881
7.04116
6.96919
6.87174
6.6852
6.39122
6.16444
6.06549
5.99599
5.95521
5.90595
5.83212
5.71699
5.51506
5.27216
5.1282
5.04042
4.97133
4.91521
4.87097
4.83236
4.7809
4.68352
4.52446
4.37976
4.28766
4.21976
4.15504
4.08876
4.02275
3.96186
3.89962
3.8258
3.75011
3.68742
3.63208
3.57516
3.50893
3.45533
3.41686
3.3781
3.32169
3.22986
3.12989
3.07098
3.04438
3.0195
2.98714
2.95089
2.9164
2.87858
2.82418
2.75921
2.71243
2.68108
2.65055
2.61802
2.58021
2.5317
2.48175
2.44498
2.41803
2.39004
2.3579
2.32288
2.28617
2.25244
2.22401
2.19777
2.17425
2.15168
2.12472
2.09557
2.06447
2.03195
2.00778
1.99163
2.00347
2.13519
2.44383
2.84901
3.2469
3.35779
3.38948
3.36933
3.32318
3.29507
3.30863
3.38983
3.6285
4.08356
4.55507
4.88929
5.02579
5.08048
5.09151
5.07607
5.01141
4.91929
4.851
4.80491
4.74799
4.68189
4.62247
4.57044
4.5307
4.50174
4.47474
4.44708
4.42058
4.38057
4.32152
4.25732
4.2001
4.15229
4.11848
4.09319
4.07386
4.05824
4.04267
4.02003
3.98405
3.93619
3.88556
3.83716
3.78699
3.73373
3.69269
3.65499
3.76505
3.73248
3.5879
3.32448
2.93032
2.55715
2.27033
1.93954
1.69333
1.55745
1.42336
1.24658
1.17195
1.11328
1.0341
0.970788
0.965756
0.951478
0.939966
0.943893
0.956961
0.970964
0.984391
0.991874
0.997472
1.00771
1.01619
1.02433
1.03148
1.03745
1.0485
1.05352
1.05386
1.05254
1.04984
1.04974
1.05144
1.05496
1.05801
1.05805
1.05668
1.05363
1.04746
1.04774
1.11861
1.66517
2.45982
3.12358
3.52803
3.58113
3.54033
3.44305
3.37764
3.32031
3.20987
3.19417
3.34436
4.35688
6.25912
7.66437
7.81416
7.60681
7.2579
7.0664
7.0018
6.94591
6.82847
6.66007
6.41861
6.16977
6.03039
5.95899
5.91703
5.8732
5.79179
5.6972
5.52614
5.26132
5.08192
5.01251
4.96092
4.92642
4.89096
4.83365
4.75696
4.63592
4.46667
4.34597
4.27908
4.22295
4.16584
4.10358
4.03443
3.95358
3.86887
3.79478
3.73355
3.68418
3.64171
3.59065
3.52774
3.46885
3.40878
3.33949
3.25834
3.18374
3.12932
3.08838
3.05072
3.02246
3.00462
2.98571
2.95022
2.88772
2.80735
2.73951
2.69119
2.65623
2.62951
2.6045
2.57609
2.53668
2.48896
2.45969
2.43751
2.41151
2.3809
2.34017
2.29146
2.2481
2.21383
2.18659
2.16316
2.14043
2.11649
2.09393
2.0724
2.06208
2.04184
2.06887
2.23122
2.67338
3.05218
3.35942
3.48426
3.49634
3.47756
3.40641
3.33738
3.28246
3.24755
3.23641
3.26138
3.40122
3.77821
4.25106
4.76645
5.00158
5.10053
5.06808
4.96747
4.87669
4.83524
4.79684
4.74865
4.70577
4.65911
4.59879
4.52842
4.4841
4.45636
4.42757
4.39181
4.35887
4.33064
4.28816
4.22481
4.15631
4.1127
4.08854
4.06885
4.04929
4.02843
4.00649
3.98163
3.94305
3.87439
3.7977
3.74327
3.71153
3.694
3.66851
3.76435
3.74875
3.69965
3.56435
3.29196
2.94086
2.6467
2.33371
2.04527
1.8571
1.68541
1.49255
1.38277
1.30231
1.19703
1.09709
1.07554
1.04196
0.995936
0.991277
0.992571
0.983578
0.968948
0.966513
0.964989
0.966932
0.976239
0.990468
1.00925
1.02563
1.03911
1.04695
1.04822
1.04748
1.04627
1.04696
1.05126
1.05704
1.05877
1.05869
1.05703
1.052
1.05431
1.12553
1.68838
2.74526
3.25002
3.48618
3.56282
3.50644
3.47586
3.43965
3.38044
3.31064
3.18882
3.11216
3.09402
3.16106
3.74993
5.37636
7.07433
7.31107
7.23919
7.13496
7.03978
6.92594
6.78292
6.63998
6.45131
6.22818
6.04111
5.92177
5.85237
5.80822
5.74666
5.65922
5.51858
5.28301
5.091
5.01165
4.96554
4.92985
4.88087
4.81793
4.72884
4.57594
4.40731
4.32604
4.27898
4.23486
4.18939
4.1356
4.05177
3.92044
3.80922
3.7626
3.73529
3.71478
3.68128
3.63873
3.57816
3.47581
3.36308
3.28139
3.22258
3.17211
3.13582
3.10788
3.08141
3.0495
3.00216
2.95091
2.90408
2.8464
2.78453
2.73353
2.69476
2.66157
2.63257
2.60442
2.56905
2.52732
2.48506
2.44563
2.41285
2.38402
2.35266
2.31682
2.27495
2.23304
2.19912
2.17576
2.1622
2.14763
2.1303
2.11884
2.1082
2.11373
2.18341
2.40732
2.86067
3.30024
3.42743
3.51492
3.52886
3.49885
3.45974
3.40566
3.34835
3.28979
3.24796
3.22303
3.21041
3.21429
3.2816
3.51187
3.94703
4.4879
4.81138
4.89882
4.88758
4.88024
4.86473
4.82761
4.77158
4.71764
4.67268
4.61332
4.52264
4.46219
4.43218
4.40596
4.37771
4.34936
4.32175
4.29167
4.24418
4.16568
4.10915
4.08438
4.0644
4.04828
4.03562
4.01591
3.98396
3.92361
3.83141
3.75914
3.72782
3.71004
3.6995
3.69149
3.76435
3.75542
3.73412
3.67767
3.5196
3.27216
2.99117
2.65908
2.38989
2.17138
1.96428
1.75274
1.61391
1.49744
1.36839
1.25766
1.20649
1.15563
1.06969
1.0342
1.02302
0.998379
0.976391
0.974263
0.96963
0.966693
0.968002
0.974256
0.989318
1.00494
1.01394
1.02115
1.02684
1.03122