/*--------------------------------*- C++ -*----------------------------------*\
  =========                 |
  \\      /  F ield         | OpenFOAM: The Open Source CFD Toolbox
   \\    /   O peration     | Website:  https://openfoam.org
    \\  /    A nd           | Version:  7
     \\/     M anipulation  |
\*---------------------------------------------------------------------------*/
FoamFile
{
    version     2.0;
    format      ascii;
    class       volScalarField;
    location    "2.9";
    object      T;
}
// * * * * * * * * * * * * * * * * * * * * * * * * * * * * * * * * * * * * * //

dimensions      [0 0 0 1 0 0 0];

internalField   nonuniform List<scalar> 
18432
(
1
1
1
1
1
1
1
1
1
1
1
1
1
1
1
1
1
1
1
1
1
1
1
1
1
1
1
1
1
1
1
1
1
1
1
1
1
1
1
1
1
1
1
1
1
1
1
1
1
1
1
1
1
1
1
1
1
1
1
1
1
1
1
1
1
1
1
1
1
1
1
1
1
1
1
1
1
1
1
1
1
1
1
1
1
1
1
1
1
1
1
1
1
1
1
1
1
1
1
1
1
1
1
1
1
1
1
1
1
1
1
1
1
1
1
1
1
1
1
1
1
1
1
1
1
1
1
1
1
1
1
1
1
1
1
1
1
1
1
1
1
1
1
1
1
1
1
1
1
1
1
1
1
1
1
1
1
1
1
1
1
1
1
1
1
1
1
1
1
1
1
1
1
1
1
1
1
1
1
1
1
1
1
1
1
1
1
1
1
1
1
1
1
1
1
1
1
1
1
1
1
1
1
1
1
1
1
1
1
1
1
1
1
1
1
1
1
1
1
1
1
1
1
1
1
1
1
1
1
1
1
1
1
1
1
1
1
1
1
1
1
1
1
1
1
1
1
1
1
1
1
1
1
1
1
1
1
1
1
1
1
1
1
1
1
1
1
1
1
1
1
1
1
1
1
1
1
1
1
1
1
1
1
1
1
1
1
1
1
1
1
1
1
1
1
1
1
1
1
1
1
1
1
1
1
1
1
1
1
1
1
1
1
1
1
1
1
1
1
1
1
1
1
1
1
1
1
1
1
1
1
1
1
1
1
1
1
1
1
1
1
1
1
1
1
1
1
1
1
1
1
1
1
1
1
1
1
1
1
1
1
1
1
1
1
1
1
1
1
1
1
1
1
1
1
1
1
1
1
1
1
1
1
1
1
1
1
1
1
1
1
1
1
1
1
1
1
1
1
1
1
1
1
1
1
1
1
1
1
1
1
1
1
1
1
1
1
1
1
1
1
1
1
1
1
1
1
1
1
1
1
1
1
1
1
1
1
1
1
1
1
1
1
1
1
1
1
1
1
1
1
1
1
1
1
1
1
1
1
1
1
1
1
1
1
1
1
1
1
1
1
1
1
1
1
1
1
1
1
1
1
1
1
1
1
1
1
1
1
1
1
1
1
1
1
1
1
1
1
1
1
1
1
1
1
1
1
1
1
1
1
1
1
1
1
1
1
1
1
1
1
1
1
1
1
1
1
1
1
1
1
1
1
1
1
1
1
1
1
1
1
1
1
1
1
1
1
1
1
1
1
1
1
1
1
1
1
1
1
1
1
1
1
1
1
1
1
1
1
1
1
1
1
1
1
1
1
1
1
1
1
1
1
1
1
1
1
1
1
1
1
1
1
1
1
1
1
1
1
1
1
1
1
1
1
1
1
1
1
1
1
1
1
1
1
1
1
1
1
1
1
1
1
1
1
1
1
1
1
1
1
1
1
1
1
1
1
1
1
1
1
1
1
1
1
1
1
1
1
1
1
1
1
1
1
1
1
1
1
1
1
1
1
1
1
1
1
1
1
1
1
1
1
1
1
1
1
1
1
1
1
1
1
1
1
1
1
1
1
1
1
1
1
1
1
1
1
1
1
1
1
1
1
1
1
1
1
1
1
1
1
1
1
1
1
1
1
1
1
1
1
1
1
1
1
1
1
1
1
1
1
1
1
1
1
1
1
1
1
1
1
1
1
1
1
1
1
1
1
1
1
1
1
1
1
1
1
1
1
1
1
1
1
1
1
1
1
1
1
1
1
1
1
1
1
1
1
1
1
1
1
1
1
1
1
1
1
1
1
1
1
1
1
1
1
1
1
1
1
1
1
1
1
1
1
1
1
1
1
1
1
1
1
1
1
1
1
1
1
1
1
1
1
1
1
1
1
1
1
1
1
1
1
1
1
1
1
1
1
1
1
1
1
1
1
1
1
1
1
1
1
1
1
1
1
1
1
1
1
1
1
1
1
1
1
1
1
1
1
1
1
1
1
1
1
1
1
1
1
1
1
1
1
1
1
1
1
1
1
1
1
1
1
1
1
1
1
1
1
1
1
1
1
1
1
1
1
1
1
1
1
1
1
1
1
1
1
1
1
1
1
1
1
1
1
1
1
1
1
1
1
1
1
1
1
1
1
1
1
1
1
1
1
1
1
1
1
1
1
1
1
1
1
1
1
1
1
1
1
1
1
1
1
1
1
1
1
1
1
1
1
1
1
1
1
1
1
1
1
1
1
1
1
1
1
1
1
1
1
1
1
1
1
1
1
1
1
1
1
1
1
1
1
1
1
1
1
1
1
1
1
1
1
1
1
1
1
1
1
1
1
1
1
1
1
1
1
1
1
1
1
1
1
1
1
1
1
1
1
1
1
1
1
1
1
1
1
1
1
1
1
1
1
1
1
1
1
1
1
1
1
1
1
1
1
1
1
1
1
1
1
1
1
1
1
1
1
1
1
1
1
1
1
1
1
1
1
1
1
1
1
1
1
1
1
1
1
1
1
1
1
1
1
1
1
1
1
1
1
1
1
1
1
1
1
1
1
1
1
1
1
1
1
1
1
1
1
1
1
1
1
1
1
1
1
1
1
1
1
1
1
1
1
1
1
1
1
1
1
1
1
1
1
1
1
1
1
1
1
1
1
1
1
1
1
1
1
1
1
1
1
1
1
1
1
1
1
1
1
1
1
1
1
1
1
1
1
1
1
1
1
1
1
1
1
1
1
1
1
1
1
1
1
1
1
1
1
1
1
1
1
1
1
1
1
1
1
1
1
1
1
1
1
1
1
1
1
1
1
1
1
1
1
1
1
1
1
1
1
1
1
1
1
1
1
1
1
1
1
1
1
1
1
1
1
1
1
1
1
1
1
1
1
1
1
1
1
1
1
1
1
1
1
1
1
1
1
1
1
1
1
1
1
1
1
1
1
1
1
1
1
1
1
1
1
1
1
1
1
1
1
1
1
1
1
1
1
1
1
1
1
1
1
1
1
1
1
1
1
1
1
1
1
1
1
1
1
1
1
1
1
1
1
1
1
1
1
1
1
1
1
1
1
1
1
1
1
1
1
1
1
1
1
1
1
1
1
1
1
1
1
1
1
1
1
1
1
1
1
1
1
1
1
1
1
1
1
1
1
1
1
1
1
1
1
1
1
1
1
1
1
1
1
1
1
1
1
1
1
1
1
1
1
1
1
1
1
1
1
1
1
1
1
1
1
1
1
1
1
1
1
1
1
1
1
1
1
1
1
1
1
1
1
1
1
1
1
1
1
1
1
1
1
1
1
1
1
1
1
1
1
1
1
1
1
1
1
1
1
1
1
1
1
1
1
1
1
1
1
1
1
1
1
1
1
1
1
1
1
1
1
1
1
1
1
1
1
1
1
1
1
1
1
1
1
1
1
1
1
1
1
1
1
1
1
1
1
1
1
1
1
1
1
1
1
1
1
1
1
1
1
1
1
1
1
1
1
1
1
1
1
1
1
1
1
1
1
1
1
1
1
1
1
1
1
1
1
1
1
1
1
1
1
1
1
1
1
1
1
1
1
1
1
1
1
1
1
1
1
1
1
1
1
1
1
1
1
1
1
1
1
1
1
1
1
1
1
1
1
1
1
1
1
1
1
1
1
1
1
1
1
1
1
1
1
1
1
1
1
1
1
1
1
1
1
1
1
1
1
1
1
1
1
1
1
1
1
1
1
1
1
1
1
1
1
1
1
1
1
1
1
1
1
1
1
1
1
1
1
1
1
1
1
1
1
1
1
1
1
1
1
1
1
1
1
1
1
1
1
1
1
1
1
1
1
1
1
1
1
1
1
1
1
1
1
1
1
1
1
1
1
1
1
1
1
1
1
1
1
1
1
1
1
1
1
1
1
1
1
1
1
1
1
1
1
1
1
1
1
1
1
1
1
1
1
1
1
1
1
1
1
1
1
1
1
1
1
1
1
1
1
1
1
1
1
1
1
1
1
1
1
1
1
1
1
1
1
1
1
1
1
1
1
1
1
1
1
1
1
1
1
1
1
1
1
1
1
1
1
1
1
1
1
1
1
1
1
1
1
1
1
1
1
1
1
1
1
1
1
1
1
1
1
1
1
1
1
1
1
1
1
1
1
1
1
1
1
1
1
1
1
1
1
1
1
1
1
1
1
1
1
1
1
1
1
1
1
1
1
1
1
1
1
1
1
1
1
1
1
1
1
1
1
1
1
1
1
1
1
1
1
1
1
1
1
1
1
1
1
1
1
1
1
1
1
1
1
1
1
1
1
1
1
1
1
1
1
1
1
1
1
1
1
1
1
1
1
1
1
1
1
1
1
1
1
1
1
1
1
1
1
1
1
1
1
1
1
1
1
1
1
1
1
1
1
1
1
1
1
1
1
1
1
1
1
1
1
1
1
1
1
1
1
1
1
1
1
1
1
1
1
1
1
1
1
1
1
1
1
1
1
1
1
1
1
1
1
1
1
1
1
1
1
1
1
1
1
1
1
1
1
1
1
1
1
1
1
1
1
1
1
1
1
1
1
1
1
1
1
1
1
1
1
1
1
1
1
1
1
1
1
1
1
1
1
1
1
1
1
1
1
1
1
1
1
1
1
1
1
1
1
1
1
1
1
1
1
1
1
1
1
1
1
1
1
1
1
1
1
1
1
1
1
1
1
1
1
1
1
1
1
1
1
1
1
1
1
1
1
1
1
1
1
1
1
1
1
1
1
1
1
1
1
1
1
1
1
1
1
1
1
1
1
1
1
1
1
1
1
1
1
1
1
1
1
1
1
1
1
1
1
1
1
1
1
1
1
1
1
1
1
1
1
1
1
1
1
1
1
1
1
1
1
1
1
1
1
1
1
1
1
1
1
1
1
1
1
1
1
1
1
1
1
1
1
1
1
1
1
1
1
1
1
1
1
1
1
1
1
1
1
1
1
1
1
1
1
1
1
1
1
1
1
1
1
1
1
1
1
1
1
1
1
1
1
1
1
1
1
1
1
1
1
1
1
1
1
1
1
1
1
1
1
1
1
1
1
1
1
1
1
1
1
1
1
1
1
1
1
1
1
1
1
1
1
1
1
1
1
1
1
1
1
1
1
1
1
1
1
1
1
1
1
1
1
1
1
1
1
1
1
1
1
1
1
1
1
1
1
1
1
1
1
1
1
1
1
1
1
1
1
1
1
1
1
1
1
1
1
1
1
1
1
1
1
1
1
1
1
1
1
1
1
1
1
1
1
1
1
1
1
1
1
1
1
1
1
1
1
1
1
1
1
1
1
1
1
1
1
1
1
1
1
1
1
1
1
1
1
1
1
1
1
1
1
1
1
1
1
1
1
1
1
1
1
1
1
1
1
1
1
1
1
1
1
1
1
1
1
1
1
1
1
1
1
1
1
1
1
1
1
1
1
1
1
1
1
1
1
1
1
1
1
1
1
1
1
1
1
1
1
1
1
1
1
1
1
1
1
1
1
1
1
1
1
1
1
1
1
1
1
1
1
1
1
1
1
1
1
1
1
1
1
1
1
1
1
1
1
1
1
1
1
1
1
1
1
1
1
1
1
1
1
1
1
1
1
1
1
1
1
1
1
1
1
1
1
1
1
1
1
1
1
1
1
1
1
1
1
1
1
1
1
1
1
1
1
1
1
1
1
1
1
1
1
1
1
1
1
1
1
1
1
1
1
1
1
1
1
1
1
1
1
1
1
1
1
1
1
1
1
1
1
1
1
1
1
1
1
1
1
1
1
1
1
1
1
1
1
1
1
1
1
1
1
1
1
1
1
1
1
1
1
1
1
1
1
1
1
1
1
1
1
1
1
1
1
1
1
1
1
1
1
1
1
1
1
1
1
1
1
1
1
1
1
1
1
1
1
1
1
1
1
1
1
1
1
1
1
1
1
1
1
1
1
1
1
1
1
1
1
1
1
1
1
1
1
1
1
1
1
1
1
1
1
1
1
1
1
1
1
1
1
1
1
1
1
1
1
1
1
1
1
1
1
1
1
1
1
1
1
1
1
1
1
1
1
1
1
1
1
1
1
1
1
1
1
1
1
1
1
1
1
1
1
1
1
1
1
1
1
1
1
1
1
1
1
1
1
1
1
1
1
1
1
1
1
1
1
1
1
1
1
1
1
1
1
1
1
1
1
1
1
1
1
1
1
1
1
1
1
1
1
1
1
1
1
1
1
1
1
1
1
1
1
1
1
1
1
1
1
1
1
1
1
1
1
1
1
1
1
1
1
1
1
1
1
1
1
1
1
1
1
1
1
1
1
1
1
1
1
1
1
1
1
1
1
1
1
1
1
1
1
1
1
1
1
1
1
1
1
1
1
1
1
1
1
1
1
1
1
1
1
1
1
1
1
1
1
1
1
1
1
1
1
1
1
1
1
1
1
1
1
1
1
1
1
1
1
1
1
1
1
1
1
1
1
1
1
1
1
1
1
1
1
1
1
1
1
1
1
1
1
1
1
1
1
1
1
1
1
1
1
1
1
1
1
1
1
1
1
1
1
1
1
1
1
1
1
1
1
1
1
1
1
1
1
1
1
1
1
1
1
1
1
1
1
1
1
1
1
1
1
1
1
1
1
1
1
1
1
1
1
1
1
1
1
1
1
1
1
1
1
1
1
1
1
1
1
1
1
1
1
1
1
1
1
1
1
1
1
1
1
1
1
1
1
1
1
1
1
1
1
1
1
1
1
1
1
1
1
1
1
1
1
1
1
1
1
1
1
1
1
1
1
1
1
1
1
1
1
1
1
1
1
1
1
1
1
1
1
1
1
1
1
1
1
1
1
1
1
1
1
1
1
1
1
1
1
1
1
1
1
1
1
1
1
1
1
1
1
1
1
1
1
1
1
1
1
1
1
1
1
1
1
1
1
1
1
1
1
1
1
1
1
1
1
1
1
1
1
1
1
1
1
1
1
1
1
1
1
1
1
1
1
1
1
1
1
1
1
1
1.07829
1.17758
1.28824
1.38417
1.46944
1.56064
1.61972
1.66497
1.69524
1.69046
1.66348
1.61511
1.56929
1.53532
1.5254
1.51712
1.51429
1.51736
1.52193
1.52655
1.5309
1.53389
1.53599
1.53799
1.53914
1.5399
1.54056
1.54148
1.54194
1.54169
1.54129
1.5415
1.5428
1.54504
1.54689
1.54739
1.54734
1.54693
1.546
1.54508
1.5449
1.5451
1.54538
1.54573
1.54596
1.54611
1.54614
1.54601
1.00074
1.00616
1.02185
1.06902
1.13106
1.21223
1.3013
1.37922
1.45384
1.50312
1.53381
1.55391
1.56417
1.56125
1.55442
1.54777
1.53951
1.53682
1.53194
1.53216
1.53393
1.53686
1.53941
1.54202
1.54392
1.54493
1.54583
1.54586
1.54565
1.54549
1.54534
1.54546
1.54596
1.54662
1.54732
1.54762
1.54748
1.54705
1.54649
1.54634
1.54644
1.54672
1.54714
1.5477
1.54811
1.54818
1.54807
1.54851
1
0.999996
0.999998
1.00003
1.00053
1.00436
1.02238
1.07387
1.18456
1.34269
1.50486
1.58006
1.622
1.62175
1.61454
1.60023
1.58119
1.55609
1.54267
1.54241
1.54404
1.54658
1.54909
1.55231
1.5549
1.55586
1.55648
1.55693
1.55685
1.55693
1.55678
1.55634
1.556
1.55559
1.5551
1.55457
1.5538
1.55284
1.55203
1.55167
1.55161
1.55167
1.55202
1.55266
1.55305
1.55302
1.55268
1.55368
1
1
1
1
1
0.999994
1.00002
1.00003
1.00209
1.02762
1.14643
1.33536
1.49502
1.61186
1.60743
1.60232
1.60078
1.59003
1.57803
1.57123
1.56805
1.56459
1.56217
1.5627
1.56378
1.56492
1.56645
1.56762
1.5687
1.56908
1.56902
1.56862
1.56809
1.56765
1.56726
1.56655
1.56549
1.56423
1.56311
1.5624
1.56215
1.56211
1.56218
1.56222
1.56204
1.56137
1.56022
1.561
1
1
1
1
1
1
1
1
1
0.999973
1.00059
1.01874
1.10447
1.30602
1.46225
1.57357
1.62546
1.62464
1.61537
1.60632
1.59402
1.58273
1.57775
1.5744
1.57227
1.57308
1.57404
1.57505
1.57635
1.57704
1.57682
1.57643
1.57662
1.57735
1.57739
1.57706
1.57637
1.57533
1.57424
1.57359
1.57353
1.5736
1.57365
1.57346
1.57274
1.57167
1.57009
1.57059
1
1
1
1
1
1
1
1
1
0.999999
0.999999
0.999982
1.00025
1.01084
1.08908
1.24636
1.43698
1.53432
1.60567
1.60952
1.60778
1.59822
1.59209
1.58768
1.58372
1.58063
1.57927
1.57874
1.57908
1.58062
1.58177
1.58276
1.58396
1.58431
1.58417
1.58371
1.58302
1.58215
1.58134
1.58099
1.58092
1.58092
1.58092
1.58047
1.57939
1.57823
1.57673
1.57715
1
1
1
1
1
1
1
1
1
1
1
0.999999
0.999999
0.999985
1.00022
1.00566
1.0725
1.21932
1.40505
1.51106
1.5645
1.59366
1.59408
1.59377
1.58941
1.58609
1.58398
1.58141
1.57986
1.58022
1.58186
1.5848
1.5871
1.58704
1.58647
1.58584
1.58522
1.58451
1.58391
1.58373
1.58353
1.58363
1.58364
1.58325
1.5824
1.58167
1.58085
1.58111
1
1
1
1
1
1
1
1
1
1
1
1
1
0.999999
0.999999
0.99999
1.00021
1.00512
1.04968
1.20274
1.35565
1.50452
1.54462
1.56375
1.57232
1.57519
1.57693
1.57539
1.57514
1.57609
1.57811
1.58031
1.58227
1.58399
1.58427
1.58398
1.58334
1.58297
1.58298
1.58314
1.58372
1.58437
1.58438
1.58413
1.58374
1.58345
1.58313
1.58316
1
1
1
1
1
1
1
1
1
1
1
1
1
1
1
0.999999
0.999999
0.999993
1.00009
1.0052
1.03864
1.1745
1.34521
1.47677
1.54616
1.55665
1.56635
1.56772
1.56778
1.56915
1.57055
1.5717
1.57303
1.57501
1.57676
1.57794
1.57872
1.57951
1.58045
1.58125
1.5821
1.58271
1.58294
1.58311
1.58321
1.58314
1.58301
1.5829
1
1
1
1
1
1
1
1
1
1
1
1
1
1
1
1
1
1
1
0.999994
1.00007
1.00382
1.04387
1.15547
1.33069
1.4518
1.53325
1.55807
1.56231
1.5662
1.56713
1.56656
1.56639
1.56728
1.56924
1.57089
1.57244
1.57405
1.5755
1.57685
1.57816
1.57875
1.57918
1.57988
1.58056
1.58076
1.58104
1.58089
1
1
1
1
1
1
1
1
1
1
1
1
1
1
1
1
1
1
1
0.999999
1
0.999995
1.00014
1.00289
1.04219
1.1552
1.32194
1.44042
1.51455
1.55085
1.56187
1.56375
1.56458
1.56552
1.56586
1.56697
1.56865
1.57002
1.57134
1.57281
1.57405
1.57457
1.57497
1.57553
1.57597
1.57617
1.5767
1.57652
1
1
1
1
1
1
1
1
1
1
1
1
1
1
1
1
1
1
1
1
1
0.999999
1
0.999996
1.00019
1.00354
1.03666
1.16665
1.32313
1.45707
1.50595
1.53406
1.55085
1.55696
1.55773
1.56062
1.56318
1.56414
1.56509
1.56633
1.56767
1.56884
1.56964
1.57033
1.57096
1.57131
1.57198
1.57214
1
1
1
1
1
1
1
1
1
1
1
1
1
1
1
1
1
1
1
1
1
1
1
0.999999
1
0.999996
1.00016
1.00561
1.03999
1.17791
1.33501
1.4737
1.52014
1.53237
1.54182
1.54976
1.55329
1.55487
1.55626
1.55809
1.56053
1.56267
1.56363
1.5639
1.5642
1.56454
1.56554
1.56636
1
1
1
1
1
1
1
1
1
1
1
1
1
1
1
1
1
1
1
1
1
1
1
1
1
1
1
0.999999
1.00021
1.0076
1.05358
1.19617
1.36324
1.48086
1.53881
1.54761
1.55108
1.55185
1.55179
1.55291
1.55532
1.55721
1.55803
1.55863
1.55861
1.55876
1.55992
1.56118
1
1
1
1
1
1
1
1
1
1
1
1
1
1
1
1
1
1
1
1
1
1
1
1
1
1
1
1
0.999999
1.00001
1.00046
1.01011
1.08241
1.23263
1.39773
1.49473
1.54323
1.55604
1.55586
1.55621
1.55699
1.55811
1.5582
1.55787
1.55756
1.55741
1.55809
1.55916
1
1
1
1
1
1
1
1
1
1
1
1
1
1
1
1
1
1
1
1
1
1
1
1
1
1
1
1
1
1
0.999999
1.00002
1.00128
1.01727
1.1235
1.29216
1.44444
1.50522
1.53556
1.55197
1.55408
1.5553
1.55711
1.55729
1.55712
1.55732
1.55787
1.55868
1
1
1
1
1
1
1
1
1
1
1
1
1
1
1
1
1
1
1
1
1
1
1
1
1
1
1
1
1
1
1
1
0.999999
1.00008
1.00383
1.035
1.17862
1.35503
1.4985
1.52783
1.5392
1.54574
1.54971
1.55204
1.55326
1.55424
1.55576
1.55718
1
1
1
1
1
1
1
1
1
1
1
1
1
1
1
1
1
1
1
1
1
1
1
1
1
1
1
1
1
1
1
1
1
1
1
1.00032
1.01074
1.07459
1.26106
1.42428
1.52376
1.54877
1.55201
1.55318
1.55256
1.55256
1.55424
1.55644
1
1
1
1
1
1
1
1
1
1
1
1
1
1
1
1
1
1
1
1
1
1
1
1
1
1
1
1
1
1
1
1
1
1
1
0.999999
1.00004
1.00149
1.0308
1.14884
1.35236
1.47963
1.54312
1.55941
1.55844
1.55803
1.55849
1.55895
1
1
1
1
1
1
1
1
1
1
1
1
1
1
1
1
1
1
1
1
1
1
1
1
1
1
1
1
1
1
1
1
1
1
1
1
1
1
1.00034
1.00684
1.08528
1.26553
1.44949
1.51195
1.53603
1.55449
1.55672
1.5571
1
1
1
1
1
1
1
1
1
1
1
1
1
1
1
1
1
1
1
1
1
1
1
1
1
1
1
1
1
1
1
1
1
1
1
1
1
1
1
1.00003
1.00263
1.03199
1.18474
1.38404
1.51901
1.54143
1.54746
1.54948
1
1
1
1
1
1
1
1
1
1
1
1
1
1
1
1
1
1
1
1
1
1
1
1
1
1
1
1
1
1
1
1
1
1
1
1
1
1
1
1
1
1.00043
1.01449
1.10874
1.32519
1.48155
1.5499
1.55726
1
1
1
1
1
1
1
1
1
1
1
1
1
1
1
1
1
1
1
1
1
1
1
1
1
1
1
1
1
1
1
1
1
1
1
1
1
1
1
1
1
1
1.00013
1.00469
1.07058
1.25394
1.43357
1.52118
1
1
1
1
1
1
1
1
1
1
1
1
1
1
1
1
1
1
1
1
1
1
1
1
1
1
1
1
1
1
1
1
1
1
1
1
1
1
1
1
1
1
1
1.00003
1.0021
1.03215
1.20385
1.4007
1
1
1
1
1
1
1
1
1
1
1
1
1
1
1
1
1
1
1
1
1
1
1
1
1
1
1
1
1
1
1
1
1
1
1
1
1
1
1
1
1
1
1
1
1.00001
1.00061
1.02461
1.1311
1
1
1
1
1
1
1
1
1
1
1
1
1
1
1
1
1
1
1
1
1
1
1
1
1
1
1
1
1
1
1
1
1
1
1
1
1
1
1
1
1
1
1
1
1
1
1.0005
1.00543
1
1
1
1
1
1
1
1
1
1
1
1
1
1
1
1
1
1
1
1
1
1
1
1
1
1
1
1
1
1
1
1
1
1
1
1
1
1
1
1
1
1
1
1
1
1
1
0.999948
1
1
1
1
1
1
1
1
1
1
1
1
1
1
1
1
1
1
1
1
1
1
1
1
1
1
1
1
1
1
1
1
1
1
1
1
1
1
1
1
1
1
1
1
1
1
1
0.999984
1
1
1
1
1
1
1
1
1
1
1
1
1
1
1
1
1
1
1
1
1
1
1
1
1
1
1
1
1
1
1
1
1
1
1
1
1
1
1
1
1
1
1
1
1
1
1
0.999997
1
1
1
1
1
1
1
1
1
1
1
1
1
1
1
1
1
1
1
1
1
1
1
1
1
1
1
1
1
1
1
1
1
1
1
1
1
1
1
1
1
1
1
1
1
1
1
1
1
1
1
1
1
1
1
1
1
1
1
1
1
1
1
1
1
1
1
1
1
1
1
1
1
1
1
1
1
1
1
1
1
1
1
1
1
1
1
1
1
1
1
1
1
1
1
1
1
1
1
1
1
1
1
1
1
1
1
1
1
1
1
1
1
1
1
1
1
1
1
1
1
1
1
1
1
1
1
1
1
1
1
1
1
1
1
1
1
1
1
1
1
1
1
1
1
1
1
1
1
1
1
1
1
1
1
1
1
1
1
1
1
1
1
1
1
1
1
1
1
1
1
1
1
1
1
1
1
1
1
1
1
1
1
1
1
1
1
1
1
1
1
1
1
1
1
1
1
1
1
1
1
1
1
1
1
1
1
1
1
1
1
1
1
1
1
1
1
1
1
1
1
1
1
1
1
1
1
1
1
1
1
1
1
1
1
1
1
1
1
1
1
1
1
1
1
1
1
1
1
1
1
1
1
1
1
1
1
1
1
1
1
1
1
1
1
1
1
1
1
1
1
1
1
1
1
1
1
1
1
1
1
1
1
1
1
1
1
1
1
1
1
1
1
1
1
1
1
1
1
1
1
1
1
1
1
1
1
1
1
1
1
1
1
1
1
1
1
1
1
1
1
1
1
1
1
1
1
1
1
1
1
1
1
1
1
0.999997
1
1
1
1
1
1
1
1
1
1
1
1
1
1
1
1
1
1
1
1
1
1
1
1
1
1
1
1
1
1
1
1
1
1
1
1
1
1
1
1
1
1
1
1
1
1
1
0.999983
1
1
1
1
1
1
1
1
1
1
1
1
1
1
1
1
1
1
1
1
1
1
1
1
1
1
1
1
1
1
1
1
1
1
1
1
1
1
1
1
1
1
1
1
1
1
1
0.999947
1
1
1
1
1
1
1
1
1
1
1
1
1
1
1
1
1
1
1
1
1
1
1
1
1
1
1
1
1
1
1
1
1
1
1
1
1
1
1
1
1
1
1
1
1
1
1.0005
1.0054
1
1
1
1
1
1
1
1
1
1
1
1
1
1
1
1
1
1
1
1
1
1
1
1
1
1
1
1
1
1
1
1
1
1
1
1
1
1
1
1
1
1
1
1
1.00001
1.00061
1.02457
1.13134
1
1
1
1
1
1
1
1
1
1
1
1
1
1
1
1
1
1
1
1
1
1
1
1
1
1
1
1
1
1
1
1
1
1
1
1
1
1
1
1
1
1
1
1.00003
1.0021
1.03215
1.20377
1.40111
1
1
1
1
1
1
1
1
1
1
1
1
1
1
1
1
1
1
1
1
1
1
1
1
1
1
1
1
1
1
1
1
1
1
1
1
1
1
1
1
1
1
1.00013
1.00469
1.07059
1.25389
1.4337
1.52113
1
1
1
1
1
1
1
1
1
1
1
1
1
1
1
1
1
1
1
1
1
1
1
1
1
1
1
1
1
1
1
1
1
1
1
1
1
1
1
1
1
1.00043
1.01448
1.10876
1.32517
1.48157
1.54992
1.55722
1
1
1
1
1
1
1
1
1
1
1
1
1
1
1
1
1
1
1
1
1
1
1
1
1
1
1
1
1
1
1
1
1
1
1
1
1
1
1
1.00003
1.00263
1.03199
1.18472
1.3841
1.51896
1.54142
1.54747
1.54946
1
1
1
1
1
1
1
1
1
1
1
1
1
1
1
1
1
1
1
1
1
1
1
1
1
1
1
1
1
1
1
1
1
1
1
1
1
1
1.00034
1.00684
1.08528
1.26551
1.4495
1.51197
1.53598
1.55447
1.55674
1.55711
1
1
1
1
1
1
1
1
1
1
1
1
1
1
1
1
1
1
1
1
1
1
1
1
1
1
1
1
1
1
1
1
1
1
1
0.999999
1.00004
1.00149
1.03079
1.14884
1.35237
1.47961
1.54314
1.55941
1.55843
1.55803
1.5585
1.55896
1
1
1
1
1
1
1
1
1
1
1
1
1
1
1
1
1
1
1
1
1
1
1
1
1
1
1
1
1
1
1
1
1
1
1
1.00032
1.01074
1.07459
1.26105
1.42428
1.52376
1.54876
1.55202
1.55318
1.55256
1.55256
1.55424
1.55645
1
1
1
1
1
1
1
1
1
1
1
1
1
1
1
1
1
1
1
1
1
1
1
1
1
1
1
1
1
1
1
1
0.999999
1.00008
1.00383
1.035
1.17862
1.35503
1.4985
1.52783
1.5392
1.54573
1.54971
1.55204
1.55326
1.55424
1.55576
1.55718
1
1
1
1
1
1
1
1
1
1
1
1
1
1
1
1
1
1
1
1
1
1
1
1
1
1
1
1
1
1
0.999999
1.00002
1.00128
1.01727
1.1235
1.29216
1.44445
1.50522
1.53556
1.55197
1.55408
1.55529
1.55711
1.55729
1.55712
1.55732
1.55787
1.55868
1
1
1
1
1
1
1
1
1
1
1
1
1
1
1
1
1
1
1
1
1
1
1
1
1
1
1
1
0.999999
1.00001
1.00046
1.01011
1.08241
1.23263
1.39773
1.49473
1.54323
1.55603
1.55586
1.55621
1.55699
1.55811
1.55819
1.55787
1.55757
1.55741
1.5581
1.55916
1
1
1
1
1
1
1
1
1
1
1
1
1
1
1
1
1
1
1
1
1
1
1
1
1
1
1
0.999999
1.00021
1.0076
1.05358
1.19617
1.36324
1.48085
1.53881
1.54761
1.55108
1.55185
1.55179
1.55291
1.55532
1.55721
1.55802
1.55863
1.55862
1.55876
1.55992
1.56118
1
1
1
1
1
1
1
1
1
1
1
1
1
1
1
1
1
1
1
1
1
1
1
0.999999
1
0.999996
1.00016
1.00561
1.03999
1.17791
1.33501
1.4737
1.52014
1.53237
1.54182
1.54976
1.55329
1.55487
1.55626
1.55809
1.56053
1.56267
1.56363
1.5639
1.5642
1.56454
1.56554
1.56636
1
1
1
1
1
1
1
1
1
1
1
1
1
1
1
1
1
1
1
1
1
0.999999
1
0.999996
1.00019
1.00354
1.03666
1.16665
1.32313
1.45707
1.50595
1.53406
1.55085
1.55696
1.55773
1.56062
1.56318
1.56414
1.56509
1.56633
1.56767
1.56884
1.56964
1.57033
1.57096
1.57131
1.57198
1.57214
1
1
1
1
1
1
1
1
1
1
1
1
1
1
1
1
1
1
1
0.999999
1
0.999995
1.00014
1.00289
1.04219
1.1552
1.32194
1.44042
1.51455
1.55085
1.56187
1.56375
1.56458
1.56552
1.56586
1.56697
1.56865
1.57002
1.57134
1.57281
1.57405
1.57457
1.57497
1.57553
1.57598
1.57617
1.5767
1.57652
1
1
1
1
1
1
1
1
1
1
1
1
1
1
1
1
1
1
1
0.999994
1.00007
1.00382
1.04387
1.15547
1.33069
1.4518
1.53325
1.55807
1.56231
1.5662
1.56713
1.56656
1.56639
1.56728
1.56924
1.57089
1.57244
1.57405
1.5755
1.57685
1.57816
1.57875
1.57918
1.57988
1.58056
1.58076
1.58104
1.58089
1
1
1
1
1
1
1
1
1
1
1
1
1
1
1
0.999999
0.999999
0.999993
1.00009
1.0052
1.03864
1.1745
1.34521
1.47677
1.54616
1.55665
1.56635
1.56772
1.56778
1.56915
1.57055
1.5717
1.57303
1.57501
1.57676
1.57794
1.57872
1.57951
1.58045
1.58125
1.5821
1.58271
1.58294
1.58311
1.58321
1.58314
1.58301
1.5829
1
1
1
1
1
1
1
1
1
1
1
1
1
0.999999
0.999999
0.99999
1.00021
1.00512
1.04968
1.20274
1.35565
1.50452
1.54462
1.56375
1.57232
1.57519
1.57693
1.57539
1.57514
1.57609
1.57811
1.58031
1.58227
1.58399
1.58427
1.58398
1.58334
1.58297
1.58298
1.58314
1.58372
1.58437
1.58438
1.58413
1.58374
1.58345
1.58313
1.58316
1
1
1
1
1
1
1
1
1
1
1
0.999999
0.999999
0.999985
1.00022
1.00566
1.0725
1.21932
1.40505
1.51106
1.5645
1.59366
1.59408
1.59377
1.58941
1.58609
1.58398
1.58141
1.57986
1.58022
1.58186
1.5848
1.5871
1.58704
1.58647
1.58584
1.58522
1.58451
1.58391
1.58373
1.58353
1.58363
1.58364
1.58325
1.5824
1.58167
1.58085
1.58111
1
1
1
1
1
1
1
1
1
0.999999
0.999999
0.999982
1.00025
1.01084
1.08908
1.24636
1.43698
1.53432
1.60567
1.60952
1.60778
1.59822
1.59209
1.58768
1.58372
1.58063
1.57927
1.57874
1.57908
1.58062
1.58177
1.58276
1.58396
1.58431
1.58417
1.58371
1.58302
1.58215
1.58134
1.58099
1.58092
1.58092
1.58092
1.58047
1.57939
1.57823
1.57673
1.57715
1
1
1
1
1
1
1
1
1
0.999973
1.00059
1.01874
1.10447
1.30602
1.46225
1.57357
1.62546
1.62464
1.61537
1.60632
1.59402
1.58273
1.57775
1.5744
1.57227
1.57308
1.57404
1.57505
1.57635
1.57704
1.57682
1.57643
1.57662
1.57735
1.57739
1.57706
1.57637
1.57533
1.57424
1.57359
1.57353
1.5736
1.57365
1.57346
1.57274
1.57167
1.57009
1.57059
1
1
1
1
1
0.999994
1.00002
1.00003
1.00209
1.02762
1.14643
1.33536
1.49501
1.61186
1.60743
1.60232
1.60078
1.59003
1.57803
1.57123
1.56805
1.56459
1.56217
1.5627
1.56378
1.56492
1.56645
1.56762
1.5687
1.56908
1.56902
1.56862
1.56809
1.56765
1.56726
1.56655
1.56549
1.56423
1.56311
1.5624
1.56215
1.56211
1.56218
1.56222
1.56204
1.56137
1.56022
1.561
1
0.999996
0.999998
1.00003
1.00053
1.00436
1.02238
1.07387
1.18456
1.34269
1.50486
1.58006
1.622
1.62175
1.61454
1.60023
1.58119
1.55609
1.54267
1.54241
1.54404
1.54658
1.54909
1.55231
1.5549
1.55586
1.55648
1.55693
1.55685
1.55693
1.55678
1.55634
1.556
1.55559
1.5551
1.55457
1.5538
1.55284
1.55203
1.55167
1.55161
1.55167
1.55202
1.55266
1.55305
1.55302
1.55268
1.55368
1.00074
1.00616
1.02185
1.06902
1.13106
1.21223
1.3013
1.37922
1.45384
1.50312
1.53381
1.55391
1.56417
1.56125
1.55442
1.54777
1.53951
1.53682
1.53194
1.53216
1.53393
1.53686
1.53941
1.54202
1.54392
1.54493
1.54583
1.54586
1.54565
1.54549
1.54534
1.54546
1.54596
1.54662
1.54732
1.54762
1.54748
1.54705
1.54649
1.54634
1.54644
1.54672
1.54714
1.5477
1.54811
1.54818
1.54807
1.54851
1.07829
1.17758
1.28824
1.38417
1.46944
1.56064
1.61972
1.66497
1.69524
1.69046
1.66348
1.61511
1.56929
1.53532
1.5254
1.51712
1.51429
1.51736
1.52193
1.52655
1.5309
1.53389
1.53599
1.53799
1.53914
1.5399
1.54056
1.54148
1.54194
1.54169
1.54129
1.5415
1.5428
1.54504
1.54689
1.54739
1.54734
1.54693
1.546
1.54508
1.5449
1.5451
1.54538
1.54573
1.54596
1.54611
1.54614
1.54601
1.40117
1.24287
1.11929
0.993337
0.976483
1.00583
1.00982
1.01549
1.04682
1.08475
1.08998
1.08853
1.09365
1.10651
1.11338
1.11644
1.12261
1.12317
1.12098
1.11766
1.11747
1.11744
1.11454
1.11248
1.11318
1.11312
1.11201
1.10903
1.10579
1.10484
1.1047
1.10423
1.10427
1.10443
1.10449
1.10447
1.10415
1.10366
1.10367
1.10394
1.10469
1.10488
1.1048
1.10452
1.10391
1.10303
1.10185
1.10191
1.10459
1.16172
1.33494
1.57285
1.80996
2.04129
2.24168
2.24641
2.18429
2.10582
2.07881
2.07187
2.06457
2.05529
2.04981
2.04202
2.03153
2.01499
1.98885
1.97041
1.96308
1.95686
1.94926
1.94044
1.92941
1.91191
1.88831
1.87539
1.87011
1.86727
1.8647
1.85907
1.85133
1.83673
1.81466
1.79726
1.7883
1.78222
1.77702
1.77204
1.76613
1.75446
1.73927
1.73235
1.7273
1.72163
1.715
1.70653
1.69278
1.673
1.66071
1.65575
1.65166
1.64757
1.64429
1.64102
1.63694
1.63139
1.61935
1.60135
1.58896
1.58263
1.57809
1.57442
1.57131
1.56815
1.56394
1.55692
1.54516
1.53274
1.5257
1.52114
1.51701
1.51286
1.50783
1.49931
1.48691
1.48034
1.47791
1.4761
1.47438
1.47175
1.46775
1.45991
1.44496
1.4297
1.42278
1.41983
1.41807
1.41665
1.41483
1.41263
1.4099
1.40503
1.39775
1.38843
1.39012
1.41135
1.47051
1.57621
1.69758
1.78804
1.87052
1.91927
1.92122
1.91104
1.88784
1.86135
1.85609
1.85475
1.85524
1.85567
1.8526
1.84851
1.84141
1.82603
1.81443
1.81109
1.80902
1.81043
1.81287
1.8106
1.80735
1.80038
1.78541
1.77429
1.77087
1.76864
1.76744
1.76681
1.76482
1.76195
1.75682
1.74704
1.73778
1.73312
1.72992
1.7272
1.72508
1.72312
1.72186
1.72034
1.71661
1.70456
1.50099
1.41416
1.33995
1.24921
1.16505
1.13823
1.10724
1.07471
1.07904
1.07656
1.0587
1.05433
1.05819
1.06683
1.07588
1.0809
1.08861
1.09424
1.09335
1.09361
1.09567
1.10055
1.10288
1.10498
1.10595
1.10581
1.10452
1.10171
1.10034
1.10037
1.1002
1.09988
1.1001
1.10049
1.10074
1.10075
1.10039
1.09987
1.09972
1.09975
1.09993
1.09998
1.09998
1.09986
1.09935
1.09785
1.09809
1.1022
1.15522
1.35876
1.52557
1.57221
1.66192
1.76698
1.95581
2.08846
2.13731
2.1253
2.10609
2.08205
2.06791
2.06052
2.0547
2.04649
2.0346
2.01971
1.99749
1.97422
1.96336
1.9576
1.95259
1.94468
1.93448
1.92053
1.90142
1.88324
1.87321
1.86792
1.86247
1.85588
1.84749
1.83642
1.82186
1.80725
1.79566
1.78678
1.78007
1.77383
1.76526
1.75442
1.74233
1.73292
1.72688
1.72168
1.71647
1.70941
1.69742
1.67892
1.66493
1.65899
1.65515
1.65153
1.64749
1.64271
1.63742
1.63094
1.62027
1.60416
1.59244
1.58618
1.58154
1.57684
1.57199
1.56829
1.56514
1.56008
1.54991
1.53874
1.53196
1.52689
1.52197
1.517
1.51119
1.50281
1.49167
1.48556
1.48265
1.47987
1.47738
1.4744
1.46987
1.46161
1.44866
1.43584
1.42802
1.42279
1.41929
1.41708
1.41593
1.41514
1.4127
1.40901
1.4051
1.40888
1.43636
1.49995
1.56114
1.60856
1.65911
1.72034
1.7789
1.8339
1.85582
1.87273
1.87354
1.8672
1.86276
1.86053
1.86107
1.86014
1.85695
1.85239
1.84455
1.83009
1.81737
1.81341
1.81147
1.81102
1.8115
1.80972
1.80669
1.80122
1.78983
1.77813
1.77337
1.77116
1.76949
1.76834
1.76639
1.76348
1.75855
1.75066
1.74238
1.73645
1.73192
1.72831
1.72541
1.72306
1.72094
1.71814
1.71427
1.70465
1.5391
1.49678
1.43388
1.36356
1.28323
1.22747
1.1816
1.12204
1.08853
1.0751
1.05281
1.04134
1.04382
1.04945
1.05083
1.05188
1.05628
1.06279
1.06554
1.06755
1.0721
1.07929
1.08393
1.08641
1.08819
1.0891
1.08911
1.089
1.08895
1.08936
1.08963
1.09017
1.09068
1.09065
1.09056
1.09014
1.08962
1.08945
1.08946
1.08967
1.09002
1.09041
1.09051
1.09034
1.08966
1.09079
1.10085
1.15743
1.36205
1.55193
1.6014
1.59663
1.59994
1.61305
1.69682
1.90488
2.11303
2.16382
2.14405
2.10039
2.07028
2.06533
2.05891
2.04778
2.03408
2.02326
2.01039
1.98983
1.96853
1.95695
1.94935
1.94291
1.93567
1.92707
1.91639
1.90182
1.88463
1.87101
1.86177
1.85251
1.84214
1.83207
1.82492
1.81833
1.80938
1.79912
1.78825
1.77564
1.76301
1.7524
1.74491
1.73763
1.73016
1.72226
1.71389
1.70544
1.69521
1.68151
1.67013
1.66535
1.66214
1.65816
1.65317
1.64771
1.6405
1.62957
1.61481
1.60111
1.59324
1.58896
1.58464
1.5801
1.57547
1.5708
1.56465
1.55624
1.54611
1.53755
1.53176
1.52629
1.52004
1.51317
1.50573
1.49802
1.49306
1.48845
1.48216
1.4761
1.47173
1.46816
1.4637
1.4566
1.44695
1.43978
1.43427
1.42888
1.42388
1.41926
1.41406
1.41087
1.41018
1.41164
1.42311
1.46096
1.54255
1.6019
1.62783
1.63633
1.64387
1.66176
1.69364
1.74385
1.80135
1.84988
1.86693
1.87123
1.87179
1.86885
1.86384
1.86087
1.8593
1.85399
1.84581
1.83573
1.82582
1.81937
1.81568
1.81275
1.81005
1.8074
1.80417
1.79976
1.79366
1.78628
1.77913
1.77276
1.76777
1.76529
1.76333
1.76057
1.75632
1.75168
1.74768
1.74327
1.73777
1.73203
1.72802
1.72475
1.72113
1.71627
1.71057
1.70274
1.55618
1.53774
1.4978
1.44405
1.37611
1.31722
1.26718
1.20732
1.16077
1.13987
1.11164
1.07569
1.07245
1.06613
1.05267
1.04774
1.04795
1.04566
1.04452
1.04556
1.05008
1.06007
1.0675
1.07061
1.0729
1.07499
1.07628
1.07713
1.07795
1.07921
1.08118
1.08293
1.0832
1.08308
1.08262
1.08176
1.08149
1.08167
1.0823
1.08264
1.08251
1.08254
1.08221
1.08162
1.08292
1.10593
1.20928
1.3583
1.54582
1.62015
1.6219
1.61513
1.60861
1.59709
1.59722
1.64762
1.84552
2.08278
2.12973
2.11008
2.09381
2.08232
2.06647
2.05166
2.04086
2.033
2.02392
2.008
1.98269
1.96247
1.95316
1.94662
1.94297
1.93836
1.93097
1.9193
1.89914
1.87478
1.85973
1.85034
1.84285
1.8369
1.83247
1.82828
1.8224
1.81114
1.79267
1.77586
1.76481
1.75655
1.7486
1.74031
1.73214
1.72455
1.71683
1.70767
1.69796
1.6897
1.68223
1.6745
1.66524
1.65759
1.652
1.64653
1.63881
1.62586
1.61125
1.60264
1.59911
1.59574
1.59106
1.58538
1.57973
1.57354
1.56516
1.55513
1.54741
1.54193
1.53642
1.5306
1.52418
1.51592
1.50737
1.5012
1.49674
1.49175
1.48599
1.47996
1.47342
1.46687
1.46131
1.45621
1.45165
1.447
1.44128
1.43532
1.42927
1.4229
1.41825
1.41521
1.41778
1.44542
1.50563
1.574
1.63586
1.6534
1.6607
1.65854
1.65264
1.6506
1.65304
1.66534
1.69956
1.75954
1.81605
1.85198
1.86802
1.87201
1.87359
1.87198
1.86534
1.85633
1.84897
1.84295
1.83579
1.82852
1.8226
1.81744
1.81318
1.80958
1.80587
1.80207
1.79858
1.79347
1.78627
1.77877
1.77275
1.76779
1.76394
1.76072
1.75809
1.75611
1.75398
1.75064
1.74552
1.73889
1.73205
1.72618
1.72052
1.71449
1.70985
1.70482
1.56666
1.56004
1.53932
1.50332
1.44772
1.39257
1.34527
1.28256
1.23319
1.20489
1.1747
1.13001
1.11013
1.09349
1.07034
1.05179
1.05079
1.04654
1.04289
1.04416
1.04848
1.05302
1.05731
1.05945
1.06087
1.06356
1.06584
1.06844
1.07102
1.07307
1.07622
1.07813
1.07849
1.07829
1.07773
1.07775
1.07842
1.07975
1.0809
1.08097
1.08075
1.08014
1.07863
1.07883
1.10231
1.26902
1.44217
1.54233
1.61212
1.63359
1.63159
1.62575
1.61936
1.60968
1.59242
1.59164
1.61724
1.77285
1.99047
2.11429
2.11757
2.1005
2.07194
2.05582
2.04837
2.04143
2.02976
2.01541
1.99489
1.97248
1.95898
1.95133
1.94648
1.94173
1.93406
1.92511
1.90781
1.88021
1.86138
1.85393
1.84839
1.84457
1.84059
1.83409
1.82525
1.81154
1.7923
1.77786
1.76968
1.76273
1.75552
1.74773
1.73911
1.72892
1.71833
1.7092
1.70169
1.69547
1.68979
1.68236
1.67291
1.66431
1.65613
1.64651
1.63471
1.62325
1.61483
1.60914
1.60366
1.59937
1.59672
1.59367
1.588
1.57819
1.56552
1.55427
1.54598
1.54016
1.5358
1.5316
1.52655
1.51927
1.51099
1.5063
1.50259
1.49805
1.49256
1.48524
1.4763
1.46822
1.46157
1.45594
1.45119
1.44669
1.44178
1.43714
1.43269
1.43065
1.42678
1.43261
1.46586
1.54926
1.61154
1.65563
1.67503
1.67925
1.67726
1.66836
1.65932
1.65207
1.64681
1.6457
1.64948
1.67009
1.72293
1.78371
1.84569
1.87153
1.88148
1.87792
1.86673
1.85683
1.85173
1.84705
1.84157
1.83688
1.83214
1.82599
1.81821
1.81251
1.80849
1.80422
1.79924
1.79516
1.79175
1.78681
1.77976
1.77196
1.76671
1.76364
1.76096
1.7582
1.75536
1.75235
1.7488
1.74348
1.73473
1.72539
1.71894
1.71555
1.71395
1.7109
1.57467
1.57062
1.56198
1.54233
1.50461
1.45525
1.40995
1.35708
1.30681
1.27228
1.23636
1.19189
1.16678
1.14698
1.11908
1.09098
1.08503
1.07514
1.061
1.0595
1.06012
1.05789
1.05439
1.05321
1.05217
1.05268
1.05555
1.06007
1.0659
1.0709
1.07466
1.07695
1.07755
1.07738
1.07712
1.07735
1.07853
1.08026
1.08123
1.08132
1.08107
1.07979
1.08058
1.10405
1.26722
1.50225
1.58486
1.61642
1.63414
1.62888
1.62933
1.62939
1.62552
1.61658
1.59701
1.58399
1.58255
1.59377
1.68828
1.90178
2.06618
2.0823
2.07575
2.06525
2.05581
2.04481
2.03149
2.01851
2.0024
1.98306
1.96566
1.95367
1.94606
1.94125
1.93519
1.92669
1.91261
1.88827
1.86757
1.8589
1.85379
1.84982
1.8446
1.83777
1.82776
1.81034
1.79038
1.78044
1.77469
1.76929
1.76372
1.75701
1.74634
1.7294
1.71489
1.70877
1.70537
1.70306
1.69887
1.69303
1.6845
1.67021
1.65449
1.64277
1.63404
1.62633
1.62079
1.61635
1.61191
1.60648
1.59861
1.59051
1.58355
1.57501
1.56543
1.55698
1.55035
1.54469
1.53962
1.53433
1.52748
1.51984
1.5123
1.50525
1.49953
1.49456
1.48906
1.48265
1.4751
1.4673
1.46053
1.45563
1.45274
1.44977
1.44618
1.44373
1.44122
1.44265
1.45725
1.50118
1.58095
1.65245
1.671
1.68372
1.68661
1.6833
1.67903
1.67241
1.66448
1.65575
1.64924
1.64566
1.6441
1.64483
1.65505
1.68869
1.7489
1.81799
1.85522
1.86523
1.8631
1.86017
1.85798
1.8543
1.84859
1.84284
1.83807
1.83163
1.8213
1.81383
1.80967
1.80572
1.8015
1.79753
1.79406
1.79079
1.78559
1.77656
1.76983
1.76668
1.7639
1.76136
1.75918
1.75612
1.75151
1.74366
1.73226
1.72334
1.71999
1.71875
1.71809
1.7169
1.57994
1.57744
1.57321
1.56423
1.542
1.50786
1.46718
1.4155
1.37274
1.33552
1.29614
1.25258
1.22421
1.1981
1.16625
1.13777
1.12498
1.11146
1.08678
1.07613
1.07306
1.06617
1.05998
1.05878
1.05666
1.05559
1.0561
1.05817
1.06319
1.06831
1.07107
1.07317
1.07468
1.07591
1.07732
1.07865
1.08046
1.08204
1.08264
1.08292
1.08257
1.08663
1.12661
1.27848
1.52595
1.61458
1.63598
1.63826
1.63643
1.62756
1.62332
1.6246
1.62513
1.61973
1.60114
1.58141
1.57265
1.56825
1.57168
1.62223
1.79282
1.97302
2.05467
2.06338