/*--------------------------------*- C++ -*----------------------------------*\
  =========                 |
  \\      /  F ield         | OpenFOAM: The Open Source CFD Toolbox
   \\    /   O peration     | Website:  https://openfoam.org
    \\  /    A nd           | Version:  7
     \\/     M anipulation  |
\*---------------------------------------------------------------------------*/
FoamFile
{
    version     2.0;
    format      ascii;
    class       volVectorField;
    location    "2.2";
    object      U;
}
// * * * * * * * * * * * * * * * * * * * * * * * * * * * * * * * * * * * * * //

dimensions      [0 1 -1 0 0 0 0];

internalField   nonuniform List<vector> 
73728
(
(3 -4.44741e-18 0)
(3 -9.53227e-17 0)
(3 9.73749e-17 0)
(3 3.34806e-16 0)
(3 1.561e-16 0)
(3 -1.48171e-16 0)
(3 -4.67831e-17 0)
(3 -4.22044e-16 0)
(3 -3.5997e-16 0)
(3 -1.87254e-16 0)
(3 3.76646e-17 0)
(3 1.40672e-16 0)
(3 4.35276e-16 0)
(3 4.37529e-16 0)
(3 1.94711e-16 0)
(3 1.88786e-16 0)
(3 -2.66296e-16 0)
(3 -7.73994e-16 0)
(3 -7.7422e-16 0)
(3 -7.15836e-16 0)
(3 -5.14666e-16 0)
(3 -4.51133e-16 0)
(3 -2.5038e-16 0)
(3 -5.66209e-16 0)
(3 -8.23933e-16 0)
(3 -8.76365e-16 0)
(3 -4.76474e-16 0)
(3 2.30078e-16 0)
(3 5.90527e-16 0)
(3 1.37933e-15 0)
(3 1.80701e-15 0)
(3 3.93798e-16 0)
(3 1.80453e-16 0)
(3 2.01909e-16 0)
(3 -4.56257e-16 0)
(3 -1.2191e-15 0)
(3 -1.25696e-16 0)
(3 -1.13744e-16 0)
(3 -4.3712e-16 0)
(3 -7.34554e-16 0)
(3 -4.25492e-16 0)
(3 -3.94605e-18 0)
(3 -1.52526e-16 0)
(3 -7.00097e-16 0)
(3 -3.98577e-16 0)
(3 1.34396e-16 0)
(3 1.01854e-15 0)
(3 1.04803e-15 0)
(3 2.26805e-16 0)
(3 -4.06491e-16 0)
(3 -3.28175e-16 0)
(3 1.31238e-17 0)
(3 1.71098e-16 0)
(3 5.03539e-16 0)
(3 1.83172e-15 0)
(3 1.80165e-15 0)
(3 1.04992e-15 0)
(3 3.46279e-16 0)
(3 2.36594e-16 0)
(3 3.47829e-16 0)
(3 3.83478e-16 0)
(3 7.04248e-16 0)
(3 5.5078e-16 0)
(3 3.74995e-16 0)
(3 -4.60039e-16 0)
(3 -4.48105e-16 0)
(3 -5.00279e-16 0)
(3 -2.87331e-16 0)
(3 9.96412e-16 0)
(3 1.10384e-15 0)
(3 1.79811e-15 0)
(3 3.37485e-15 0)
(3 2.68469e-15 0)
(3 1.48128e-15 0)
(3 1.24172e-15 0)
(3 1.01135e-15 0)
(3 1.98263e-16 0)
(3 -2.46918e-16 0)
(3 -7.24417e-16 0)
(3 -7.08244e-16 0)
(3 -6.23079e-16 0)
(3 1.14428e-16 0)
(3 -2.73159e-16 0)
(3 -3.86733e-16 0)
(3 -9.33244e-16 0)
(3 -1.40626e-15 0)
(3 -1.88656e-15 0)
(3 -2.13551e-15 0)
(3 -1.76924e-15 0)
(3 -1.26658e-15 0)
(3 -6.50867e-16 0)
(3 3.29233e-18 0)
(3 6.13242e-16 0)
(3 9.90432e-16 0)
(3 1.21047e-15 0)
(3 1.04631e-15 0)
(3 -7.69276e-17 0)
(3 -1.90545e-16 0)
(3 -5.16307e-16 0)
(3 -7.08706e-16 0)
(3 -5.32665e-16 0)
(3 -1.01101e-16 0)
(3 5.7067e-16 0)
(3 4.3674e-16 0)
(3 4.36921e-16 0)
(3 3.80141e-16 0)
(3 4.93301e-16 0)
(3 8.87543e-17 0)
(3 1.21227e-16 0)
(3 6.68277e-16 0)
(3 3.99538e-16 0)
(3 -3.7155e-16 0)
(3 -9.25627e-16 0)
(3 -1.95542e-15 0)
(3 -1.85843e-15 0)
(3 -1.66773e-15 0)
(3 -1.51257e-15 0)
(3 -1.48295e-15 0)
(3 -1.20596e-15 0)
(3 -1.06261e-15 0)
(3 -3.73302e-16 0)
(3 1.61581e-16 0)
(3 1.12849e-15 0)
(3 2.69243e-15 0)
(3 2.81833e-15 0)
(3 2.4825e-15 0)
(3 2.56977e-15 0)
(3 1.61742e-15 0)
(3 7.50965e-16 0)
(3 1.51206e-16 0)
(3 -4.39863e-16 0)
(3 -1.13739e-15 0)
(3 -7.65931e-16 0)
(3 3.93355e-17 0)
(3 2.23293e-16 0)
(3 -6.26095e-16 0)
(3 -1.02417e-15 0)
(3 -8.11952e-16 0)
(3 -1.11605e-15 0)
(3 -1.72106e-15 0)
(3 -1.79659e-15 0)
(3 -1.18577e-15 0)
(3 1.59372e-16 0)
(3 1.79839e-16 0)
(3 -1.13996e-16 0)
(3 7.39852e-17 0)
(3 6.04976e-16 0)
(3 8.79764e-16 0)
(3 1.05355e-15 0)
(3 9.51607e-16 0)
(3 1.96269e-15 0)
(3 1.86735e-15 0)
(3 1.40424e-15 0)
(3 5.83867e-16 0)
(3 2.51068e-16 0)
(3 -6.04976e-16 0)
(3 -1.3477e-15 0)
(3 -1.79042e-15 0)
(3 -2.32441e-15 0)
(3 -2.18445e-15 0)
(3 -2.46572e-15 0)
(3 -1.94579e-15 0)
(3 -1.7237e-15 0)
(3 -1.18606e-15 0)
(3 -5.88413e-17 0)
(3 1.30827e-15 0)
(3 1.93944e-15 0)
(3 3.15063e-15 0)
(3 2.77665e-15 0)
(3 2.00392e-15 0)
(3 1.77907e-15 0)
(3 2.16848e-15 0)
(3 2.03601e-15 0)
(3 9.76126e-16 0)
(3 -1.39942e-15 0)
(3 -2.14733e-15 0)
(3 -1.75341e-15 0)
(3 -1.88148e-15 0)
(3 -2.34966e-15 0)
(3 -1.89256e-15 0)
(3 -1.51107e-15 0)
(3 -1.60469e-15 0)
(3 -1.5178e-15 0)
(3 -1.32492e-15 0)
(3 -1.33149e-15 0)
(3 -8.54409e-16 0)
(3 -2.75036e-16 0)
(3 9.44773e-17 0)
(3 1.64046e-15 0)
(3 2.76058e-15 0)
(3 3.37735e-15 0)
(3 3.21468e-15 0)
(3 1.54277e-16 0)
(3 -1.05606e-16 0)
(3 -3.2624e-16 0)
(3 -6.72023e-16 0)
(3 -5.11616e-16 0)
(3 -7.56172e-17 0)
(3 2.09544e-16 0)
(3 6.96249e-16 0)
(3 5.08916e-16 0)
(3 3.00185e-16 0)
(3 -1.33149e-18 0)
(3 -3.41136e-16 0)
(3 -3.69389e-16 0)
(3 -8.12455e-16 0)
(3 -1.41111e-15 0)
(3 -1.96035e-15 0)
(3 -1.82172e-15 0)
(3 -2.05917e-15 0)
(3 -2.43196e-15 0)
(3 -2.33008e-15 0)
(3 -2.01409e-15 0)
(3 -2.1791e-15 0)
(3 -2.02956e-15 0)
(3 -2.45807e-15 0)
(3 -2.67411e-15 0)
(3 -2.19899e-15 0)
(3 -2.29179e-15 0)
(3 -7.98704e-16 0)
(3 5.47752e-16 0)
(3 9.83435e-16 0)
(3 1.50398e-15 0)
(3 2.05705e-15 0)
(3 2.19397e-15 0)
(3 2.49548e-16 0)
(3 -5.95742e-16 0)
(3 -3.38957e-16 0)
(3 -6.64536e-16 0)
(3 -1.95759e-16 0)
(3 -5.87454e-16 0)
(3 -9.18362e-16 0)
(3 -1.93973e-15 0)
(3 -2.4098e-15 0)
(3 -1.7192e-15 0)
(3 -1.06991e-15 0)
(3 -1.17712e-15 0)
(3 -9.77784e-16 0)
(3 -6.851e-16 0)
(3 -4.07719e-16 0)
(3 1.52199e-16 0)
(3 9.64437e-16 0)
(3 1.35208e-15 0)
(3 1.71818e-15 0)
(3 1.56649e-15 0)
(3 8.89341e-16 0)
(3 6.6727e-16 0)
(3 -4.60821e-17 0)
(3 -6.17549e-16 0)
(3 -5.38074e-16 0)
(3 -1.53257e-15 0)
(3 -2.98447e-15 0)
(3 -2.80797e-15 0)
(3 -3.04783e-15 0)
(3 -2.94812e-15 0)
(3 -4.06488e-15 0)
(3 -5.42359e-15 0)
(3 -3.56584e-15 0)
(3 -2.49707e-15 0)
(3 -1.56067e-15 0)
(3 -1.16505e-15 0)
(3 2.55797e-16 0)
(3 2.44312e-15 0)
(3 2.48195e-15 0)
(3 2.32571e-15 0)
(3 2.25328e-15 0)
(3 2.42102e-15 0)
(3 3.00744e-15 0)
(3 2.82705e-15 0)
(3 1.21431e-15 0)
(3 -7.97793e-17 0)
(3 -1.03575e-15 0)
(3 -1.52345e-15 0)
(3 -2.81634e-15 0)
(3 -3.23422e-15 0)
(3 -3.15324e-15 0)
(3 -1.85533e-15 0)
(3 -1.37506e-15 0)
(3 -1.01902e-15 0)
(3 -5.45171e-16 0)
(3 -1.73283e-16 0)
(3 -1.03135e-16 0)
(3 -4.54424e-16 0)
(3 -1.24925e-16 0)
(3 6.19835e-16 0)
(3 1.76693e-15 0)
(3 2.20809e-15 0)
(3 2.98962e-15 0)
(3 5.52553e-17 0)
(3 -7.73424e-17 0)
(3 2.46047e-16 0)
(3 4.71966e-16 0)
(3 2.4672e-16 0)
(3 -1.53231e-17 0)
(3 -7.50742e-16 0)
(3 -1.04483e-15 0)
(3 -9.41096e-16 0)
(3 -1.35591e-15 0)
(3 -1.6544e-15 0)
(3 -1.39783e-15 0)
(3 -1.25224e-15 0)
(3 -2.11804e-15 0)
(3 -2.88756e-15 0)
(3 -2.72541e-15 0)
(3 -2.45499e-15 0)
(3 -1.98593e-15 0)
(3 -2.12548e-15 0)
(3 -2.10524e-15 0)
(3 -2.14238e-15 0)
(3 -2.20556e-15 0)
(3 -2.03108e-15 0)
(3 -1.8238e-15 0)
(3 -1.86952e-15 0)
(3 -3.48983e-15 0)
(3 -3.49313e-15 0)
(3 -3.53298e-15 0)
(3 -2.62949e-15 0)
(3 -1.22958e-15 0)
(3 -9.91287e-16 0)
(3 6.85368e-17 0)
(3 2.68891e-16 0)
(3 -8.5664e-16 0)
(3 -2.31735e-15 0)
(3 -2.05493e-15 0)
(3 -2.1755e-15 0)
(3 -2.77585e-15 0)
(3 -3.01818e-15 0)
(3 -2.73775e-15 0)
(3 -1.94739e-15 0)
(3 -1.43913e-15 0)
(3 -6.51561e-16 0)
(3 -7.21913e-16 0)
(3 -1.61442e-16 0)
(3 4.42638e-16 0)
(3 4.98404e-16 0)
(3 6.5888e-16 0)
(3 1.71151e-15 0)
(3 8.36889e-16 0)
(3 7.26742e-16 0)
(3 9.00771e-17 0)
(3 -9.4852e-16 0)
(3 -1.15367e-15 0)
(3 -2.25351e-15 0)
(3 -2.88452e-15 0)
(3 -2.98203e-15 0)
(3 -3.82525e-15 0)
(3 -4.66735e-15 0)
(3 -4.83495e-15 0)
(3 -4.34472e-15 0)
(3 -3.88022e-15 0)
(3 -3.54078e-15 0)
(3 -2.83476e-15 0)
(3 -3.01461e-15 0)
(3 -2.5469e-15 0)
(3 -5.57526e-16 0)
(3 2.62229e-16 0)
(3 2.37365e-16 0)
(3 6.50627e-16 0)
(3 8.89934e-16 0)
(3 1.04697e-15 0)
(3 2.97441e-15 0)
(3 3.37395e-15 0)
(3 3.41705e-15 0)
(3 2.36708e-15 0)
(3 5.71673e-16 0)
(3 8.3547e-16 0)
(3 7.92464e-16 0)
(3 6.24041e-16 0)
(3 -4.32859e-16 0)
(3 -1.1341e-15 0)
(3 -2.21703e-15 0)
(3 -2.56691e-15 0)
(3 -2.30902e-15 0)
(3 -2.33657e-15 0)
(3 -2.27667e-15 0)
(3 -1.7483e-15 0)
(3 -1.25601e-15 0)
(3 -7.51309e-16 0)
(3 -3.78915e-16 0)
(3 -7.38972e-17 0)
(3 1.97499e-17 0)
(3 2.40592e-16 0)
(3 6.20158e-16 0)
(3 5.26199e-16 0)
(3 5.4472e-17 0)
(3 3.324e-16 0)
(3 1.35063e-16 0)
(3 4.22008e-16 0)
(3 -2.81978e-16 0)
(3 -3.77903e-16 0)
(3 -7.90409e-16 0)
(3 -1.03617e-15 0)
(3 -8.25585e-16 0)
(3 -1.79672e-15 0)
(3 -1.33001e-15 0)
(3 -8.5382e-16 0)
(3 -1.04075e-15 0)
(3 -1.37124e-15 0)
(3 -1.47398e-15 0)
(3 -2.06436e-15 0)
(3 -2.41604e-15 0)
(3 -2.32801e-15 0)
(3 -2.44565e-15 0)
(3 -2.4917e-15 0)
(3 -3.02408e-15 0)
(3 -3.38083e-15 0)
(3 -3.24594e-15 0)
(3 -2.21755e-15 0)
(3 -1.99222e-15 0)
(3 -2.03251e-15 0)
(3 -1.83604e-15 0)
(3 -2.04479e-15 0)
(3 -1.40602e-15 0)
(3 -1.05326e-15 0)
(3 -4.43853e-16 0)
(3 2.76924e-16 0)
(3 -4.44788e-16 0)
(3 -1.5225e-15 0)
(3 -2.50326e-15 0)
(3 -3.15074e-15 0)
(3 -3.84209e-15 0)
(3 -3.59626e-15 0)
(3 -3.4648e-15 0)
(3 -2.95967e-15 0)
(3 -2.19865e-15 0)
(3 -1.49366e-15 0)
(3 -1.00593e-15 0)
(3 -3.57026e-16 0)
(3 8.59083e-16 0)
(3 1.79508e-15 0)
(3 2.00621e-15 0)
(3 1.32463e-15 0)
(3 7.42248e-16 0)
(3 4.08051e-16 0)
(3 7.41964e-17 0)
(3 -5.5748e-16 0)
(3 -1.76583e-15 0)
(3 -2.46568e-15 0)
(3 -3.40277e-15 0)
(3 -3.739e-15 0)
(3 -4.64117e-15 0)
(3 -5.25824e-15 0)
(3 -4.98812e-15 0)
(3 -4.63675e-15 0)
(3 -4.63949e-15 0)
(3 -4.31971e-15 0)
(3 -3.13497e-15 0)
(3 -7.58942e-16 0)
(3 1.44171e-15 0)
(3 1.19687e-15 0)
(3 1.5607e-15 0)
(3 1.4994e-15 0)
(3 1.22344e-15 0)
(3 5.22275e-16 0)
(3 -2.3438e-16 0)
(3 -4.75921e-16 0)
(3 1.35824e-16 0)
(3 2.84606e-15 0)
(3 3.00466e-15 0)
(3 1.95751e-15 0)
(3 1.54027e-15 0)
(3 1.47422e-15 0)
(3 3.24067e-16 0)
(3 -1.91954e-16 0)
(3 -1.78267e-16 0)
(3 1.64728e-16 0)
(3 -5.26334e-16 0)
(3 -1.35781e-15 0)
(3 -2.05322e-15 0)
(3 -2.29649e-15 0)
(3 -2.02525e-15 0)
(3 -2.2674e-15 0)
(3 -1.98012e-15 0)
(3 -1.70346e-15 0)
(3 -9.56637e-16 0)
(3 -2.85959e-16 0)
(3 1.67876e-16 0)
(3 7.22533e-16 0)
(3 1.27984e-15 0)
(3 1.45532e-15 0)
(3 1.96448e-17 0)
(3 3.7244e-17 0)
(3 3.72369e-16 0)
(3 5.91659e-17 0)
(3 -7.73869e-16 0)
(3 -1.51229e-15 0)
(3 -1.30252e-15 0)
(3 -1.93861e-15 0)
(3 -1.7193e-15 0)
(3 -1.1767e-15 0)
(3 -5.37105e-16 0)
(3 -4.42908e-16 0)
(3 -4.85406e-16 0)
(3 -9.73587e-16 0)
(3 -1.02552e-15 0)
(3 -1.53034e-15 0)
(3 -1.98682e-15 0)
(3 -2.92999e-15 0)
(3 -2.69344e-15 0)
(3 -2.98725e-15 0)
(3 -3.01386e-15 0)
(3 -3.50005e-15 0)
(3 -3.58724e-15 0)
(3 -3.0005e-15 0)
(3 -2.69886e-15 0)
(3 -2.56447e-15 0)
(3 -2.16168e-15 0)
(3 -1.26556e-15 0)
(3 -1.49629e-16 0)
(3 1.2169e-15 0)
(3 1.70996e-15 0)
(3 1.16482e-15 0)
(3 -2.46179e-16 0)
(3 -1.77527e-15 0)
(3 -1.42924e-15 0)
(3 -1.69723e-15 0)
(3 -2.11364e-15 0)
(3 -2.02881e-15 0)
(3 -1.67828e-15 0)
(3 -1.57438e-15 0)
(3 -1.65311e-15 0)
(3 -1.82058e-15 0)
(3 -1.58739e-15 0)
(3 -9.04615e-16 0)
(3 8.06448e-16 0)
(3 8.94998e-16 0)
(3 1.29772e-15 0)
(3 3.24076e-16 0)
(3 -1.58552e-15 0)
(3 -1.184e-15 0)
(3 -5.35151e-16 0)
(3 -7.36304e-16 0)
(3 -1.30175e-15 0)
(3 -2.37831e-15 0)
(3 -2.50013e-15 0)
(3 -3.57732e-15 0)
(3 -4.51294e-15 0)
(3 -4.80545e-15 0)
(3 -4.99564e-15 0)
(3 -4.43572e-15 0)
(3 -4.30659e-15 0)
(3 -3.84515e-15 0)
(3 -1.56853e-15 0)
(3 5.40588e-16 0)
(3 1.17558e-15 0)
(3 9.5046e-16 0)
(3 1.52277e-15 0)
(3 1.94397e-15 0)
(3 2.50363e-15 0)
(3 2.0991e-15 0)
(3 1.66096e-15 0)
(3 1.44236e-15 0)
(3 7.38181e-16 0)
(3 8.37577e-16 0)
(3 -1.02877e-16 0)
(3 -1.02156e-16 0)
(3 2.81518e-16 0)
(3 4.44369e-16 0)
(3 -6.39486e-17 0)
(3 -3.96124e-17 0)
(3 1.37802e-15 0)
(3 2.32608e-15 0)
(3 2.37306e-15 0)
(3 1.29643e-15 0)
(3 5.43852e-16 0)
(3 7.33384e-16 0)
(3 3.37037e-16 0)
(3 -5.33229e-16 0)
(3 -9.42415e-16 0)
(3 -5.91364e-16 0)
(3 2.11898e-17 0)
(3 5.01562e-16 0)
(3 1.18336e-15 0)
(3 1.34355e-15 0)
(3 1.29647e-15 0)
(3 2.02464e-15 0)
(3 3.52211e-17 0)
(3 -1.1099e-16 0)
(3 3.41149e-17 0)
(3 -2.50041e-16 0)
(3 -6.37333e-16 0)
(3 -1.20531e-15 0)
(3 -1.87644e-15 0)
(3 -2.03705e-15 0)
(3 -3.03204e-15 0)
(3 -2.49441e-15 0)
(3 -2.26475e-15 0)
(3 -1.70055e-15 0)
(3 -9.82946e-16 0)
(3 -2.12588e-16 0)
(3 1.03805e-16 0)
(3 4.13487e-16 0)
(3 -1.11877e-16 0)
(3 -7.09102e-16 0)
(3 -9.52859e-16 0)
(3 -1.29805e-15 0)
(3 -1.60817e-15 0)
(3 -1.46178e-15 0)
(3 -2.12187e-15 0)
(3 -2.37466e-15 0)
(3 -2.30754e-15 0)
(3 -1.8443e-15 0)
(3 -2.01302e-15 0)
(3 -1.36429e-15 0)
(3 -8.00809e-16 0)
(3 -3.24542e-16 0)
(3 -5.57433e-16 0)
(3 -1.10491e-15 0)
(3 -1.4819e-15 0)
(3 -1.31404e-15 0)
(3 -8.09923e-16 0)
(3 -4.45377e-16 0)
(3 -6.76856e-16 0)
(3 -9.34517e-16 0)
(3 -5.8321e-16 0)
(3 -4.27936e-16 0)
(3 -1.06037e-15 0)
(3 -1.79893e-15 0)
(3 -1.79046e-15 0)
(3 -1.58156e-15 0)
(3 -8.33959e-16 0)
(3 -1.06732e-15 0)
(3 -9.91344e-16 0)
(3 -1.11761e-15 0)
(3 -1.69214e-15 0)
(3 -3.15332e-15 0)
(3 -3.34815e-15 0)
(3 -2.37915e-15 0)
(3 -1.59513e-15 0)
(3 -1.73639e-15 0)
(3 -1.98859e-15 0)
(3 -4.08322e-15 0)
(3 -5.77759e-15 0)
(3 -4.611e-15 0)
(3 -5.0866e-15 0)
(3 -4.59553e-15 0)
(3 -4.02576e-15 0)
(3 -4.03183e-15 0)
(3 -3.86972e-15 0)
(3 -3.97739e-15 0)
(3 -1.96079e-15 0)
(3 -3.51968e-16 0)
(3 -1.67893e-16 0)
(3 1.97168e-15 0)
(3 2.72245e-15 0)
(3 2.58089e-15 0)
(3 1.7957e-15 0)
(3 8.38876e-16 0)
(3 -3.64077e-16 0)
(3 -1.93416e-15 0)
(3 -2.35698e-15 0)
(3 -2.07217e-15 0)
(3 -2.08892e-15 0)
(3 -1.37924e-15 0)
(3 -3.91335e-16 0)
(3 9.50222e-16 0)
(3 2.76918e-15 0)
(3 3.90721e-15 0)
(3 4.58417e-15 0)
(3 4.31363e-15 0)
(3 5.06518e-15 0)
(3 5.03849e-15 0)
(3 4.09723e-15 0)
(3 3.01461e-15 0)
(3 2.24454e-15 0)
(3 2.10186e-15 0)
(3 2.36127e-15 0)
(3 2.76828e-15 0)
(3 2.63198e-15 0)
(3 2.27498e-15 0)
(3 2.10461e-15 0)
(3 2.40097e-15 0)
(3 -5.49213e-18 0)
(3 7.68676e-17 0)
(3 1.5418e-17 0)
(3 5.10277e-16 0)
(3 6.41148e-16 0)
(3 5.50939e-16 0)
(3 2.24804e-16 0)
(3 9.87403e-17 0)
(3 -2.51298e-16 0)
(3 -1.03432e-15 0)
(3 -1.16395e-15 0)
(3 -4.90026e-16 0)
(3 -5.21965e-17 0)
(3 9.86601e-16 0)
(3 1.36154e-15 0)
(3 2.2214e-15 0)
(3 1.7654e-15 0)
(3 1.26413e-15 0)
(3 3.64063e-16 0)
(3 3.02181e-16 0)
(3 1.29288e-16 0)
(3 -9.48981e-17 0)
(3 -6.05162e-16 0)
(3 -1.1922e-15 0)
(3 -1.09347e-15 0)
(3 -7.59603e-16 0)
(3 -1.54939e-15 0)
(3 -1.85241e-15 0)
(3 -2.06201e-15 0)
(3 -1.92797e-15 0)
(3 -1.7916e-15 0)
(3 -1.45424e-15 0)
(3 -1.20458e-15 0)
(3 -1.22823e-15 0)
(3 -1.48212e-15 0)
(3 -1.02776e-15 0)
(3 -1.18188e-15 0)
(3 -5.71896e-16 0)
(3 1.82831e-16 0)
(3 3.2487e-16 0)
(3 4.9403e-17 0)
(3 -6.37991e-16 0)
(3 -2.05071e-15 0)
(3 -2.16961e-15 0)
(3 -1.83284e-15 0)
(3 -2.3269e-15 0)
(3 -2.65638e-15 0)
(3 -3.01305e-15 0)
(3 -2.80682e-15 0)
(3 -3.664e-15 0)
(3 -5.01094e-15 0)
(3 -4.80017e-15 0)
(3 -3.19965e-15 0)
(3 -2.5499e-15 0)
(3 -2.3083e-15 0)
(3 -3.36107e-15 0)
(3 -4.13867e-15 0)
(3 -3.74658e-15 0)
(3 -3.18383e-15 0)
(3 -2.36609e-15 0)
(3 -1.1488e-15 0)
(3 -1.05541e-15 0)
(3 -1.94618e-15 0)
(3 -2.04613e-15 0)
(3 -1.39429e-15 0)
(3 7.25795e-17 0)
(3 1.14256e-15 0)
(3 1.30855e-15 0)
(3 9.39384e-16 0)
(3 4.14713e-16 0)
(3 -2.0275e-16 0)
(3 -1.21208e-15 0)
(3 -1.91332e-15 0)
(3 -2.01751e-15 0)
(3 -1.53883e-15 0)
(3 -7.22535e-16 0)
(3 -6.99916e-16 0)
(3 -9.63432e-16 0)
(3 1.14249e-16 0)
(3 1.57308e-15 0)
(3 2.52177e-15 0)
(3 4.47951e-15 0)
(3 5.82979e-15 0)
(3 7.05124e-15 0)
(3 8.02593e-15 0)
(3 8.31953e-15 0)
(3 7.33258e-15 0)
(3 6.73836e-15 0)
(3 5.63787e-15 0)
(3 4.6382e-15 0)
(3 3.83909e-15 0)
(3 3.62919e-15 0)
(3 3.24539e-15 0)
(3 1.77311e-15 0)
(3 1.26761e-15 0)
(3 8.56666e-16 0)
(3 8.03711e-17 0)
(3 1.20312e-16 0)
(3 3.84418e-16 0)
(3 8.05627e-16 0)
(3 1.79764e-15 0)
(3 1.58353e-15 0)
(3 1.19669e-15 0)
(3 8.53339e-16 0)
(3 1.29488e-15 0)
(3 1.02407e-15 0)
(3 1.40679e-15 0)
(3 1.11078e-15 0)
(3 8.93059e-16 0)
(3 8.86195e-16 0)
(3 9.29234e-16 0)
(3 6.13698e-16 0)
(3 9.29622e-16 0)
(3 9.28813e-16 0)
(3 3.20805e-16 0)
(3 8.3895e-17 0)
(3 2.30369e-16 0)
(3 -5.27154e-16 0)
(3 -1.40284e-15 0)
(3 -2.08498e-15 0)
(3 -2.26356e-15 0)
(3 -2.05953e-15 0)
(3 -1.46515e-15 0)
(3 -1.17848e-15 0)
(3 -1.66311e-15 0)
(3 -1.98762e-15 0)
(3 -2.51269e-15 0)
(3 -3.02452e-15 0)
(3 -2.16971e-15 0)
(3 -2.07989e-15 0)
(3 -2.49913e-15 0)
(3 -1.84891e-15 0)
(3 -1.03581e-15 0)
(3 2.04172e-16 0)
(3 6.76711e-16 0)
(3 1.2318e-15 0)
(3 1.05832e-15 0)
(3 -3.29538e-16 0)
(3 -1.82448e-15 0)
(3 -2.11935e-15 0)
(3 -2.36879e-15 0)
(3 -2.80498e-15 0)
(3 -2.88226e-15 0)
(3 -2.88814e-15 0)
(3 -3.06215e-15 0)
(3 -3.50532e-15 0)
(3 -4.59523e-15 0)
(3 -5.34752e-15 0)
(3 -4.78894e-15 0)
(3 -4.10746e-15 0)
(3 -2.19171e-15 0)
(3 -1.21458e-15 0)
(3 1.98842e-16 0)
(3 8.7908e-16 0)
(3 2.17076e-15 0)
(3 2.25584e-15 0)
(3 2.18272e-15 0)
(3 1.63234e-15 0)
(3 1.24863e-15 0)
(3 1.094e-15 0)
(3 6.35726e-16 0)
(3 6.41197e-16 0)
(3 1.08273e-15 0)
(3 1.07374e-15 0)
(3 6.7415e-16 0)
(3 -2.94181e-16 0)
(3 -1.37484e-15 0)
(3 -1.66123e-15 0)
(3 -7.99259e-16 0)
(3 -3.58337e-16 0)
(3 -5.13834e-16 0)
(3 -1.14134e-15 0)
(3 -1.24244e-15 0)
(3 -6.25106e-16 0)
(3 4.97291e-16 0)
(3 1.64999e-15 0)
(3 2.01605e-15 0)
(3 3.76168e-15 0)
(3 4.65855e-15 0)
(3 5.49815e-15 0)
(3 5.96691e-15 0)
(3 6.22937e-15 0)
(3 6.60841e-15 0)
(3 6.7984e-15 0)
(3 6.23191e-15 0)
(3 5.1555e-15 0)
(3 3.70796e-15 0)
(3 2.3604e-15 0)
(3 1.66158e-15 0)
(3 1.27602e-15 0)
(3 5.71499e-16 0)
(3 3.21512e-16 0)
(3 8.95208e-17 0)
(3 2.00527e-16 0)
(3 8.51717e-17 0)
(3 1.36462e-16 0)
(3 6.10233e-16 0)
(3 9.07335e-16 0)
(3 1.37338e-15 0)
(3 1.57611e-15 0)
(3 1.28661e-15 0)
(3 1.97155e-15 0)
(3 2.09658e-15 0)
(3 1.76921e-15 0)
(3 1.33443e-15 0)
(3 8.79295e-16 0)
(3 2.47944e-16 0)
(3 -1.9458e-16 0)
(3 6.14537e-16 0)
(3 1.40494e-15 0)
(3 1.05419e-15 0)
(3 9.84926e-16 0)
(3 1.55382e-15 0)
(3 2.0213e-15 0)
(3 1.86056e-15 0)
(3 1.71703e-15 0)
(3 2.02601e-15 0)
(3 2.14379e-15 0)
(3 1.4871e-15 0)
(3 1.18783e-15 0)
(3 -3.28049e-16 0)
(3 -2.1571e-15 0)
(3 -3.43218e-15 0)
(3 -4.32894e-15 0)
(3 -4.00619e-15 0)
(3 -3.46347e-15 0)
(3 -2.41525e-15 0)
(3 -1.93318e-15 0)
(3 -7.80033e-16 0)
(3 8.24038e-17 0)
(3 1.71278e-17 0)
(3 7.42778e-16 0)
(3 1.75924e-15 0)
(3 9.12685e-16 0)
(3 5.27559e-16 0)
(3 -1.03775e-15 0)
(3 -1.8665e-15 0)
(3 -2.07445e-15 0)
(3 -2.52377e-15 0)
(3 -2.92391e-15 0)
(3 -2.91629e-15 0)
(3 -2.88868e-15 0)
(3 -3.25406e-15 0)
(3 -3.85229e-15 0)
(3 -3.07741e-15 0)
(3 -2.40083e-15 0)
(3 -2.46127e-15 0)
(3 -1.00533e-15 0)
(3 7.56866e-16 0)
(3 2.66086e-15 0)
(3 3.93877e-15 0)
(3 4.96207e-15 0)
(3 4.59199e-15 0)
(3 3.3236e-15 0)
(3 2.22692e-15 0)
(3 2.36436e-15 0)
(3 1.76697e-15 0)
(3 1.21756e-15 0)
(3 2.65021e-16 0)
(3 2.36948e-16 0)
(3 4.57908e-16 0)
(3 5.09464e-16 0)
(3 1.15947e-15 0)
(3 2.00725e-15 0)
(3 2.07647e-15 0)
(3 1.73907e-15 0)
(3 9.64885e-16 0)
(3 5.13054e-16 0)
(3 5.15725e-16 0)
(3 1.11183e-15 0)
(3 1.05093e-15 0)
(3 1.13949e-15 0)
(3 1.00589e-15 0)
(3 1.69621e-15 0)
(3 2.64419e-15 0)
(3 2.85332e-15 0)
(3 2.76217e-15 0)
(3 2.83118e-15 0)
(3 3.4493e-15 0)
(3 4.17557e-15 0)
(3 4.48172e-15 0)
(3 5.03093e-15 0)
(3 4.47922e-15 0)
(3 3.03627e-15 0)
(3 1.33222e-15 0)
(3 -3.5606e-17 0)
(3 -1.01223e-16 0)
(3 1.44904e-16 0)
(3 5.97467e-17 0)
(3 -1.05102e-17 0)
(3 -3.1372e-16 0)
(3 -5.6282e-16 0)
(3 -2.86514e-16 0)
(3 7.13475e-16 0)
(3 1.27155e-15 0)
(3 1.48019e-15 0)
(3 1.90559e-15 0)
(3 2.42907e-15 0)
(3 2.91552e-15 0)
(3 2.70872e-15 0)
(3 2.11477e-15 0)
(3 1.11129e-15 0)
(3 -5.2487e-16 0)
(3 -6.27372e-16 0)
(3 -7.14588e-16 0)
(3 -6.49748e-16 0)
(3 3.9481e-16 0)
(3 1.6717e-15 0)
(3 2.38381e-15 0)
(3 3.04423e-15 0)
(3 3.22813e-15 0)
(3 3.19002e-15 0)
(3 2.51796e-15 0)
(3 2.21542e-15 0)
(3 2.27343e-15 0)
(3 2.08765e-15 0)
(3 1.04962e-15 0)
(3 -5.68404e-16 0)
(3 -2.16132e-15 0)
(3 -2.94301e-15 0)
(3 -4.35025e-15 0)
(3 -4.36815e-15 0)
(3 -2.78815e-15 0)
(3 -1.22612e-15 0)
(3 -3.49663e-16 0)
(3 -1.43711e-16 0)
(3 -2.96788e-16 0)
(3 -8.24394e-16 0)
(3 -6.32713e-16 0)
(3 4.4814e-16 0)
(3 4.8806e-16 0)
(3 -2.80161e-16 0)
(3 -8.74711e-16 0)
(3 -1.49404e-15 0)
(3 -2.29268e-15 0)
(3 -2.87219e-15 0)
(3 -2.1232e-15 0)
(3 6.88684e-16 0)
(3 6.17376e-16 0)
(3 -1.67823e-15 0)
(3 -3.48713e-15 0)
(3 -4.30709e-15 0)
(3 -3.70486e-15 0)
(3 -2.84742e-15 0)
(3 -1.5678e-15 0)
(3 7.84716e-16 0)
(3 3.68687e-15 0)
(3 3.6486e-15 0)
(3 3.30246e-15 0)
(3 2.77042e-15 0)
(3 2.15682e-15 0)
(3 2.2491e-15 0)
(3 2.38048e-15 0)
(3 1.9801e-15 0)
(3 9.88569e-16 0)
(3 2.77652e-19 0)
(3 -8.31579e-17 0)
(3 5.63448e-16 0)
(3 2.01223e-15 0)
(3 3.11074e-15 0)
(3 2.49471e-15 0)
(3 1.30424e-15 0)
(3 9.14597e-16 0)
(3 1.01419e-15 0)
(3 9.72626e-16 0)
(3 9.45342e-16 0)
(3 5.94079e-16 0)
(3 -1.4181e-16 0)
(3 -3.34972e-16 0)
(3 -1.8812e-15 0)
(3 -1.97684e-15 0)
(3 -7.39775e-16 0)
(3 1.7505e-16 0)
(3 6.00092e-16 0)
(3 4.70011e-16 0)
(3 1.19346e-15 0)
(3 1.57113e-15 0)
(3 2.35845e-15 0)
(3 3.06437e-15 0)
(3 1.66698e-15 0)
(3 4.40346e-17 0)
(3 -1.29564e-15 0)
(3 -1.47184e-15 0)
(3 -1.31005e-15 0)
(3 5.57774e-17 0)
(3 2.32849e-16 0)
(3 7.94142e-16 0)
(3 5.45506e-16 0)
(3 2.57968e-16 0)
(3 4.72819e-16 0)
(3 1.17647e-16 0)
(3 3.40114e-16 0)
(3 9.78823e-16 0)
(3 1.29174e-15 0)
(3 8.74738e-16 0)
(3 3.65211e-16 0)
(3 -4.47837e-16 0)
(3 -1.02238e-15 0)
(3 -8.21813e-16 0)
(3 -7.16746e-16 0)
(3 -2.77489e-16 0)
(3 -9.92177e-16 0)
(3 -2.19821e-16 0)
(3 6.57424e-16 0)
(3 1.17027e-15 0)
(3 6.45037e-16 0)
(3 2.55561e-16 0)
(3 1.07676e-16 0)
(3 -5.12375e-16 0)
(3 -1.24786e-15 0)
(3 -3.40087e-16 0)
(3 6.81212e-16 0)
(3 9.06976e-16 0)
(3 5.01357e-16 0)
(3 -1.02083e-16 0)
(3 -7.2641e-16 0)
(3 -1.53081e-15 0)
(3 -1.41929e-15 0)
(3 -1.31046e-15 0)
(3 -1.477e-15 0)
(3 -9.98744e-16 0)
(3 -9.95827e-16 0)
(3 -1.31804e-15 0)
(3 -2.14951e-15 0)
(3 -3.1841e-15 0)
(3 -3.20629e-15 0)
(3 -3.01403e-15 0)
(3 -1.76611e-15 0)
(3 -1.58817e-15 0)
(3 -1.50968e-15 0)
(3 -1.04825e-15 0)
(3 -1.39683e-16 0)
(3 1.20668e-15 0)
(3 8.78658e-16 0)
(3 2.43653e-16 0)
(3 -6.96733e-16 0)
(3 -2.26028e-15 0)
(3 -3.60959e-15 0)
(3 -3.27205e-15 0)
(3 -2.73789e-15 0)
(3 -1.15808e-15 0)
(3 4.18854e-16 0)
(3 1.72397e-15 0)
(3 1.19598e-15 0)
(3 1.86284e-15 0)
(3 3.19999e-15 0)
(3 3.54291e-15 0)
(3 3.43337e-15 0)
(3 3.37349e-15 0)
(3 2.62746e-15 0)
(3 2.06321e-15 0)
(3 1.15069e-15 0)
(3 8.90592e-16 0)
(3 -1.24387e-16 0)
(3 -1.58896e-17 0)
(3 8.54951e-16 0)
(3 1.12699e-15 0)
(3 1.52103e-15 0)
(3 1.40379e-15 0)
(3 1.02066e-15 0)
(3 4.94509e-16 0)
(3 -4.82511e-16 0)
(3 -7.42273e-16 0)
(3 -1.60879e-15 0)
(3 -1.77873e-15 0)
(3 -2.00942e-15 0)
(3 -1.39893e-15 0)
(3 -5.91766e-16 0)
(3 8.68453e-17 0)
(3 8.85894e-17 0)
(3 -3.55662e-16 0)
(3 2.10708e-16 0)
(3 7.69482e-16 0)
(3 1.67438e-15 0)
(3 1.28485e-15 0)
(3 -1.04193e-16 0)
(3 -1.49205e-15 0)
(3 -2.19448e-15 0)
(3 -2.24132e-15 0)
(3 -2.29464e-15 0)
(3 -2.53651e-16 0)
(3 3.32261e-16 0)
(3 2.39047e-16 0)
(3 3.61592e-16 0)
(3 1.11934e-16 0)
(3 -2.13998e-17 0)
(3 -3.68471e-16 0)
(3 -1.24808e-16 0)
(3 -1.67789e-17 0)
(3 2.52713e-16 0)
(3 -7.99085e-16 0)
(3 -1.22067e-15 0)
(3 -2.1559e-15 0)
(3 -2.2353e-15 0)
(3 -1.37022e-15 0)
(3 -4.40965e-16 0)
(3 -1.75562e-16 0)
(3 3.92301e-16 0)
(3 1.33768e-16 0)
(3 -5.5787e-16 0)
(3 -1.37929e-15 0)
(3 -1.54456e-15 0)
(3 -9.07607e-16 0)
(3 -8.67029e-16 0)
(3 -1.20393e-15 0)
(3 -1.93658e-15 0)
(3 -2.59392e-15 0)
(3 -2.86999e-15 0)
(3 -1.51544e-15 0)
(3 -9.82762e-16 0)
(3 -7.28085e-16 0)
(3 -7.19932e-16 0)
(3 -5.86284e-16 0)
(3 3.00897e-16 0)
(3 -2.86097e-16 0)
(3 -1.88111e-15 0)
(3 -2.14804e-15 0)
(3 -1.92162e-15 0)
(3 -2.15673e-15 0)
(3 -3.14383e-15 0)
(3 -3.52271e-15 0)
(3 -4.69188e-15 0)
(3 -4.49587e-15 0)
(3 -4.0227e-15 0)
(3 -3.58204e-15 0)
(3 -2.50745e-15 0)
(3 -1.9982e-15 0)
(3 -3.31378e-16 0)
(3 1.80088e-15 0)
(3 1.56255e-15 0)
(3 6.63568e-16 0)
(3 6.77641e-16 0)
(3 1.71545e-16 0)
(3 -4.0681e-16 0)
(3 -2.37129e-16 0)
(3 7.40508e-17 0)
(3 5.43781e-16 0)
(3 4.06348e-16 0)
(3 -6.38693e-16 0)
(3 -9.37534e-16 0)
(3 1.14673e-15 0)
(3 2.07014e-15 0)
(3 2.51922e-15 0)
(3 2.23005e-15 0)
(3 1.3961e-15 0)
(3 5.65415e-16 0)
(3 3.19021e-16 0)
(3 5.1399e-16 0)
(3 2.80955e-16 0)
(3 3.29139e-16 0)
(3 -1.71628e-16 0)
(3 -8.91649e-16 0)
(3 -5.12727e-16 0)
(3 4.5286e-16 0)
(3 5.63672e-16 0)
(3 3.69455e-16 0)
(3 6.84801e-16 0)
(3 7.55224e-16 0)
(3 5.8998e-16 0)
(3 -8.50864e-17 0)
(3 -3.94365e-16 0)
(3 -1.67582e-16 0)
(3 2.73061e-16 0)
(3 5.32568e-16 0)
(3 4.85663e-16 0)
(3 -9.64281e-17 0)
(3 7.06227e-17 0)
(3 1.04834e-15 0)
(3 1.6625e-15 0)
(3 1.37814e-15 0)
(3 3.70273e-16 0)
(3 -1.75522e-15 0)
(3 -1.8827e-15 0)
(3 -1.66801e-15 0)
(3 -1.37599e-15 0)
(3 -1.39468e-15 0)
(3 -4.42231e-17 0)
(3 -3.1054e-16 0)
(3 -4.43089e-16 0)
(3 -5.64296e-16 0)
(3 -1.02352e-15 0)
(3 -7.41373e-16 0)
(3 -4.08462e-16 0)
(3 -2.65088e-16 0)
(3 -2.81648e-16 0)
(3 -4.03979e-16 0)
(3 -7.19116e-16 0)
(3 -1.08703e-15 0)
(3 -4.64971e-16 0)
(3 7.24361e-16 0)
(3 1.66435e-15 0)
(3 2.32173e-15 0)
(3 2.0199e-15 0)
(3 2.35341e-15 0)
(3 2.14427e-15 0)
(3 1.37016e-15 0)
(3 2.12095e-16 0)
(3 -5.75779e-17 0)
(3 3.94016e-17 0)
(3 1.11005e-16 0)
(3 -3.25438e-16 0)
(3 -8.90194e-16 0)
(3 -2.34972e-15 0)
(3 -3.20286e-15 0)
(3 -3.33329e-15 0)
(3 -2.77559e-15 0)
(3 -1.89898e-15 0)
(3 -1.35711e-15 0)
(3 -5.84894e-16 0)
(3 -7.77609e-16 0)
(3 -1.06041e-15 0)
(3 -1.72732e-15 0)
(3 -2.51833e-15 0)
(3 -2.55185e-15 0)
(3 -2.56736e-15 0)
(3 -3.36528e-15 0)
(3 -3.60538e-15 0)
(3 -4.04113e-15 0)
(3 -3.16486e-15 0)
(3 -2.82186e-15 0)
(3 -2.44446e-15 0)
(3 -1.60556e-15 0)
(3 -4.76593e-17 0)
(3 5.52909e-16 0)
(3 7.38265e-16 0)
(3 9.69452e-16 0)
(3 1.33231e-15 0)
(3 1.0099e-15 0)
(3 7.85775e-16 0)
(3 9.84257e-16 0)
(3 1.54872e-15 0)
(3 8.48513e-16 0)
(3 3.65107e-16 0)
(3 -3.84228e-16 0)
(3 -1.31621e-15 0)
(3 -1.16666e-15 0)
(3 -5.33519e-16 0)
(3 5.93966e-16 0)
(3 7.00279e-16 0)
(3 1.87539e-16 0)
(3 -2.48195e-16 0)
(3 -6.80043e-16 0)
(3 -8.91827e-16 0)
(3 -1.09721e-15 0)
(3 -9.29604e-16 0)
(3 -5.50263e-16 0)
(3 -5.40304e-16 0)
(3 -1.93942e-15 0)
(3 -2.3789e-15 0)
(3 -2.47984e-15 0)
(3 -1.69576e-15 0)
(3 -9.15517e-17 0)
(3 6.01859e-16 0)
(3 1.40559e-15 0)
(3 2.39427e-15 0)
(3 2.08961e-15 0)
(3 1.33448e-15 0)
(3 1.11583e-15 0)
(3 8.85986e-16 0)
(3 8.44868e-17 0)
(3 -7.4848e-16 0)
(3 -9.3323e-16 0)
(3 -9.23593e-17 0)
(3 5.31715e-16 0)
(3 8.69976e-16 0)
(3 2.90748e-16 0)
(3 -7.35393e-16 0)
(3 -1.16328e-15 0)
(3 -8.60791e-16 0)
(3 6.02795e-16 0)
(3 -7.8802e-17 0)
(3 -9.78474e-16 0)
(3 -3.27006e-17 0)
(3 -3.47404e-16 0)
(3 -3.51903e-17 0)
(3 3.26035e-16 0)
(3 3.95269e-16 0)
(3 3.64347e-16 0)
(3 5.70962e-16 0)
(3 5.18647e-16 0)
(3 -3.41161e-16 0)
(3 -8.89487e-16 0)
(3 -1.08875e-15 0)
(3 -5.94858e-16 0)
(3 2.3475e-16 0)
(3 7.90753e-16 0)
(3 1.74479e-15 0)
(3 2.09179e-15 0)
(3 3.00256e-15 0)
(3 2.83901e-15 0)
(3 2.09442e-15 0)
(3 2.16736e-15 0)
(3 1.64917e-15 0)
(3 2.50227e-15 0)
(3 1.67581e-15 0)
(3 1.30132e-15 0)
(3 9.49048e-16 0)
(3 5.29623e-16 0)
(3 6.18466e-17 0)
(3 -4.43732e-16 0)
(3 -6.62349e-16 0)
(3 -4.6753e-16 0)
(3 5.12735e-16 0)
(3 1.40675e-15 0)
(3 1.0949e-15 0)
(3 1.19353e-16 0)
(3 -1.03979e-15 0)
(3 -1.4678e-15 0)
(3 -1.4132e-15 0)
(3 -2.03109e-15 0)
(3 -2.47103e-15 0)
(3 -2.07123e-15 0)
(3 -2.02412e-15 0)
(3 -1.74469e-15 0)
(3 -1.65844e-15 0)
(3 -1.16588e-15 0)
(3 -7.48166e-16 0)
(3 1.9485e-16 0)
(3 1.42365e-15 0)
(3 2.36967e-15 0)
(3 2.3936e-15 0)
(3 2.80228e-15 0)
(3 4.22232e-15 0)
(3 4.55597e-15 0)
(3 4.16227e-15 0)
(3 3.84717e-15 0)
(3 3.77679e-15 0)
(3 2.57219e-15 0)
(3 3.72673e-16 0)
(3 -1.33205e-15 0)
(3 -2.53899e-15 0)
(3 -3.08998e-15 0)
(3 -2.85734e-15 0)
(3 -2.54339e-15 0)
(3 -1.7387e-15 0)
(3 -1.26875e-15 0)
(3 -1.42389e-15 0)
(3 -1.883e-15 0)
(3 -2.45995e-15 0)
(3 -3.31521e-15 0)
(3 -3.37558e-15 0)
(3 -2.73492e-15 0)
(3 -2.20395e-15 0)
(3 -2.00963e-15 0)
(3 -2.67944e-15 0)
(3 -2.64953e-15 0)
(3 -2.24159e-15 0)
(3 -1.58541e-15 0)
(3 1.54108e-16 0)
(3 4.23473e-16 0)
(3 1.25116e-15 0)
(3 1.74478e-15 0)
(3 2.27275e-15 0)
(3 2.53145e-15 0)
(3 1.67511e-15 0)
(3 7.03139e-16 0)
(3 3.44704e-16 0)
(3 4.06001e-16 0)
(3 4.77184e-16 0)
(3 1.48375e-16 0)
(3 7.18279e-17 0)
(3 3.94225e-16 0)
(3 1.21421e-16 0)
(3 3.93131e-16 0)
(3 1.41375e-15 0)
(3 1.12005e-15 0)
(3 5.60628e-16 0)
(3 3.54199e-16 0)
(3 -1.14538e-16 0)
(3 -2.22182e-16 0)
(3 -2.09842e-16 0)
(3 3.25985e-16 0)
(3 1.38907e-15 0)
(3 1.82169e-15 0)
(3 1.78124e-15 0)
(3 1.58238e-15 0)
(3 8.91095e-16 0)
(3 -1.06002e-16 0)
(3 -4.58115e-16 0)
(3 1.67702e-16 0)
(3 3.96998e-16 0)
(3 8.57432e-16 0)
(3 9.41385e-16 0)
(3 1.07794e-15 0)
(3 3.16023e-16 0)
(3 4.31829e-16 0)
(3 7.70062e-16 0)
(3 7.55697e-16 0)
(3 1.30744e-15 0)
(3 1.24e-15 0)
(3 1.25726e-15 0)
(3 1.00132e-15 0)
(3 9.40462e-16 0)
(3 1.28587e-15 0)
(3 1.96392e-15 0)
(3 2.50067e-15 0)
(3 3.06346e-15 0)
(3 2.31171e-15 0)
(3 2.7273e-15 0)
(3 4.42649e-15 0)
(3 4.30374e-15 0)
(3 3.07689e-15 0)
(3 1.46123e-15 0)
(3 1.04355e-15 0)
(3 2.50251e-16 0)
(3 -9.40741e-16 0)
(3 -1.27621e-15 0)
(3 -1.10505e-15 0)
(3 -8.6384e-16 0)
(3 -5.39943e-16 0)
(3 -1.97688e-16 0)
(3 -3.59131e-16 0)
(3 -2.46449e-16 0)
(3 -1.57771e-16 0)
(3 -1.00641e-16 0)
(3 1.45896e-15 0)
(3 3.5301e-15 0)
(3 3.88115e-15 0)
(3 4.38837e-15 0)
(3 6.54941e-15 0)
(3 7.71783e-15 0)
(3 7.56893e-15 0)
(3 5.53683e-15 0)
(3 3.91145e-15 0)
(3 2.19253e-15 0)
(3 -6.05355e-16 0)
(3 -2.63852e-15 0)
(3 -3.17623e-15 0)
(3 -3.94269e-15 0)
(3 -4.14107e-15 0)
(3 -4.66754e-15 0)
(3 -4.73964e-15 0)
(3 -5.58165e-15 0)
(3 -6.20191e-15 0)
(3 -6.55645e-15 0)
(3 -6.77953e-15 0)
(3 -6.00895e-15 0)
(3 -5.07917e-15 0)
(3 -4.32961e-15 0)
(3 -3.47531e-15 0)
(3 -1.99811e-15 0)
(3 -1.04289e-15 0)
(3 1.68612e-16 0)
(3 4.15516e-16 0)
(3 7.32205e-16 0)
(3 1.7006e-15 0)
(3 1.85955e-15 0)
(3 2.40553e-15 0)
(3 1.80295e-15 0)
(3 1.66386e-16 0)
(3 -4.81203e-16 0)
(3 -1.73538e-16 0)
(3 9.86186e-16 0)
(3 1.84867e-15 0)
(3 1.73264e-15 0)
(3 1.44175e-15 0)
(3 2.05356e-16 0)
(3 -2.35932e-16 0)
(3 5.04197e-16 0)
(3 1.53254e-15 0)
(3 1.52825e-15 0)
(3 5.71471e-16 0)
(3 -1.6306e-16 0)
(3 -7.32394e-16 0)
(3 -1.0206e-16 0)
(3 -2.97836e-16 0)
(3 -2.92256e-16 0)
(3 -5.6193e-16 0)
(3 -2.71753e-16 0)
(3 -1.29064e-16 0)
(3 1.2617e-16 0)
(3 3.52298e-16 0)
(3 5.69282e-16 0)
(3 1.24524e-16 0)
(3 -7.01616e-17 0)
(3 8.41231e-16 0)
(3 1.17536e-15 0)
(3 4.71743e-16 0)
(3 -2.44247e-16 0)
(3 1.34159e-16 0)
(3 -8.9368e-16 0)
(3 -4.96199e-16 0)
(3 1.97488e-17 0)
(3 3.96869e-16 0)
(3 5.65156e-16 0)
(3 -2.19222e-16 0)
(3 -6.99846e-17 0)
(3 -1.2245e-16 0)
(3 7.17813e-17 0)
(3 8.14128e-16 0)
(3 1.21612e-15 0)
(3 2.00513e-15 0)
(3 2.88343e-15 0)
(3 2.95977e-15 0)
(3 2.54516e-15 0)
(3 1.90987e-15 0)
(3 9.7356e-16 0)
(3 1.00734e-15 0)
(3 1.56449e-15 0)
(3 2.34678e-15 0)
(3 2.97452e-16 0)
(3 -4.10277e-16 0)
(3 -1.27413e-15 0)
(3 -1.16217e-15 0)
(3 -3.29325e-16 0)
(3 4.76653e-17 0)
(3 5.94387e-17 0)
(3 -1.2654e-16 0)
(3 -9.22774e-16 0)
(3 -1.50735e-15 0)
(3 -1.98659e-15 0)
(3 -2.10689e-15 0)
(3 -1.11382e-15 0)
(3 5.32087e-16 0)
(3 1.72616e-15 0)
(3 2.09148e-15 0)
(3 3.30871e-15 0)
(3 3.71624e-15 0)