/*--------------------------------*- C++ -*----------------------------------*\
  =========                 |
  \\      /  F ield         | OpenFOAM: The Open Source CFD Toolbox
   \\    /   O peration     | Website:  https://openfoam.org
    \\  /    A nd           | Version:  7
     \\/     M anipulation  |
\*---------------------------------------------------------------------------*/
FoamFile
{
    version     2.0;
    format      ascii;
    class       volVectorField;
    location    "3.1";
    object      U;
}
// * * * * * * * * * * * * * * * * * * * * * * * * * * * * * * * * * * * * * //

dimensions      [0 1 -1 0 0 0 0];

internalField   nonuniform List<vector> 
73728
(
(3 1.04596e-17 0)
(3 -6.18112e-17 0)
(3 -2.52563e-16 0)
(3 -2.52687e-16 0)
(3 -1.44198e-16 0)
(3 -4.33979e-16 0)
(3 -3.92227e-16 0)
(3 -3.74135e-16 0)
(3 -2.73567e-16 0)
(3 -4.98248e-16 0)
(3 -2.18294e-16 0)
(3 -7.88347e-17 0)
(3 7.24544e-18 0)
(3 8.74175e-17 0)
(3 2.10669e-17 0)
(3 -1.79549e-16 0)
(3 -3.38559e-16 0)
(3 -6.87513e-16 0)
(3 -4.51825e-16 0)
(3 -3.16778e-16 0)
(3 -5.73163e-16 0)
(3 -6.27975e-16 0)
(3 -4.45913e-16 0)
(3 -3.58683e-16 0)
(3 1.43781e-16 0)
(3 -7.28231e-16 0)
(3 -1.25491e-15 0)
(3 -1.3939e-15 0)
(3 -1.37529e-15 0)
(3 -1.2701e-15 0)
(3 -5.45321e-16 0)
(3 1.11917e-15 0)
(3 1.93367e-15 0)
(3 2.07801e-15 0)
(3 1.20776e-15 0)
(3 3.88853e-16 0)
(3 -1.53353e-16 0)
(3 -4.04101e-16 0)
(3 2.29091e-17 0)
(3 1.72264e-17 0)
(3 4.85926e-16 0)
(3 1.74719e-15 0)
(3 2.4491e-15 0)
(3 9.80434e-16 0)
(3 3.88136e-16 0)
(3 -3.77444e-16 0)
(3 -1.41192e-15 0)
(3 -1.18557e-15 0)
(3 -3.42337e-16 0)
(3 -7.36934e-16 0)
(3 -4.67764e-16 0)
(3 -4.95677e-16 0)
(3 -1.15628e-16 0)
(3 1.60555e-16 0)
(3 1.22875e-16 0)
(3 3.05773e-16 0)
(3 3.34825e-16 0)
(3 -1.21047e-16 0)
(3 -5.27438e-16 0)
(3 -1.04389e-15 0)
(3 -1.2853e-15 0)
(3 -1.27777e-15 0)
(3 -8.31952e-16 0)
(3 4.01554e-16 0)
(3 1.51976e-15 0)
(3 1.32979e-15 0)
(3 8.36416e-16 0)
(3 8.87875e-16 0)
(3 7.14313e-16 0)
(3 6.06798e-16 0)
(3 1.00646e-15 0)
(3 1.52786e-15 0)
(3 8.7675e-16 0)
(3 5.34871e-16 0)
(3 -5.57421e-16 0)
(3 -4.00394e-16 0)
(3 -1.84282e-16 0)
(3 2.44399e-16 0)
(3 2.43246e-16 0)
(3 -6.3573e-16 0)
(3 -5.95986e-16 0)
(3 -1.00282e-16 0)
(3 6.7164e-16 0)
(3 6.60902e-16 0)
(3 6.61388e-16 0)
(3 1.15677e-15 0)
(3 1.40421e-15 0)
(3 9.0878e-16 0)
(3 1.23452e-15 0)
(3 1.66346e-15 0)
(3 1.34476e-15 0)
(3 6.76226e-16 0)
(3 3.44008e-16 0)
(3 5.77032e-16 0)
(3 7.28331e-16 0)
(3 7.23314e-16 0)
(3 9.28961e-19 0)
(3 1.72747e-16 0)
(3 2.81276e-16 0)
(3 3.12964e-16 0)
(3 5.19201e-16 0)
(3 3.90061e-16 0)
(3 8.70843e-17 0)
(3 -3.62309e-16 0)
(3 -4.3396e-16 0)
(3 -5.23745e-16 0)
(3 1.6221e-16 0)
(3 7.70556e-17 0)
(3 6.59399e-17 0)
(3 6.07808e-16 0)
(3 2.80322e-16 0)
(3 -6.70283e-17 0)
(3 -6.32177e-16 0)
(3 -1.13442e-15 0)
(3 -1.18155e-15 0)
(3 -8.23774e-16 0)
(3 -1.49541e-15 0)
(3 -1.81929e-15 0)
(3 -8.99766e-16 0)
(3 -7.91577e-16 0)
(3 -8.53435e-16 0)
(3 -8.64384e-16 0)
(3 -1.5021e-15 0)
(3 -1.44438e-15 0)
(3 -1.39057e-15 0)
(3 -5.01366e-16 0)
(3 6.38e-16 0)
(3 1.80218e-15 0)
(3 2.55307e-15 0)
(3 3.71273e-15 0)
(3 3.51432e-15 0)
(3 1.71708e-15 0)
(3 -2.61765e-16 0)
(3 -8.51369e-16 0)
(3 -4.35743e-16 0)
(3 -3.26416e-16 0)
(3 7.87515e-16 0)
(3 1.82378e-15 0)
(3 2.6892e-15 0)
(3 2.95516e-15 0)
(3 2.14368e-15 0)
(3 8.22924e-16 0)
(3 -3.57461e-16 0)
(3 -2.04756e-16 0)
(3 4.97836e-16 0)
(3 -2.23428e-16 0)
(3 3.71234e-17 0)
(3 2.38053e-16 0)
(3 2.67502e-16 0)
(3 6.17673e-16 0)
(3 -1.68497e-16 0)
(3 -4.52146e-16 0)
(3 -1.03915e-15 0)
(3 -1.40746e-15 0)
(3 -1.93235e-15 0)
(3 -2.17649e-15 0)
(3 -2.56507e-15 0)
(3 -2.34062e-15 0)
(3 -1.41194e-15 0)
(3 1.79654e-15 0)
(3 2.93337e-15 0)
(3 3.23862e-15 0)
(3 2.55877e-15 0)
(3 2.15248e-15 0)
(3 1.07239e-15 0)
(3 7.14219e-16 0)
(3 1.08717e-15 0)
(3 1.33345e-15 0)
(3 9.61874e-16 0)
(3 5.30184e-17 0)
(3 -1.13099e-15 0)
(3 -1.12202e-15 0)
(3 -7.2377e-16 0)
(3 1.80091e-16 0)
(3 7.06006e-16 0)
(3 -1.08437e-15 0)
(3 -1.06104e-15 0)
(3 -4.73668e-16 0)
(3 3.00917e-16 0)
(3 7.00118e-16 0)
(3 2.11018e-15 0)
(3 2.385e-15 0)
(3 2.80472e-15 0)
(3 2.78705e-15 0)
(3 3.48834e-15 0)
(3 3.14313e-15 0)
(3 1.51127e-15 0)
(3 2.523e-16 0)
(3 4.32754e-16 0)
(3 2.2056e-15 0)
(3 1.77612e-15 0)
(3 -6.19049e-16 0)
(3 -1.96302e-16 0)
(3 -2.81962e-17 0)
(3 5.3442e-16 0)
(3 5.89601e-16 0)
(3 9.58801e-16 0)
(3 1.1375e-15 0)
(3 1.00981e-15 0)
(3 4.6931e-16 0)
(3 2.01632e-17 0)
(3 -2.27661e-16 0)
(3 1.30024e-16 0)
(3 3.4144e-16 0)
(3 -8.4732e-17 0)
(3 -3.10868e-16 0)
(3 -4.51697e-16 0)
(3 -5.09408e-16 0)
(3 -7.85269e-16 0)
(3 -1.25263e-15 0)
(3 -1.84805e-15 0)
(3 -2.1736e-15 0)
(3 -2.21228e-15 0)
(3 -1.77241e-15 0)
(3 -6.20973e-16 0)
(3 2.81171e-17 0)
(3 -4.33155e-17 0)
(3 1.76917e-16 0)
(3 1.34734e-16 0)
(3 2.93683e-17 0)
(3 3.25597e-16 0)
(3 1.00353e-15 0)
(3 9.44436e-16 0)
(3 1.19711e-15 0)
(3 1.78739e-15 0)
(3 3.06366e-15 0)
(3 2.85436e-15 0)
(3 1.24997e-15 0)
(3 -2.31673e-17 0)
(3 -1.78206e-16 0)
(3 -9.68764e-17 0)
(3 2.10908e-16 0)
(3 1.68424e-16 0)
(3 6.23317e-16 0)
(3 1.26882e-15 0)
(3 1.55735e-15 0)
(3 1.37086e-15 0)
(3 4.56204e-17 0)
(3 -4.48489e-16 0)
(3 -2.21689e-16 0)
(3 2.10137e-16 0)
(3 8.52541e-16 0)
(3 7.19347e-16 0)
(3 9.23786e-16 0)
(3 9.02216e-16 0)
(3 9.37431e-16 0)
(3 5.19234e-16 0)
(3 -4.05289e-16 0)
(3 -8.54696e-16 0)
(3 -1.79479e-15 0)
(3 -1.54194e-15 0)
(3 -2.18422e-15 0)
(3 -2.44744e-15 0)
(3 -8.12211e-16 0)
(3 -2.48203e-17 0)
(3 8.50164e-16 0)
(3 2.1056e-15 0)
(3 2.36053e-15 0)
(3 1.84277e-15 0)
(3 9.30373e-16 0)
(3 4.07835e-16 0)
(3 1.12815e-15 0)
(3 9.79589e-16 0)
(3 5.74488e-16 0)
(3 -3.31594e-16 0)
(3 -1.32502e-15 0)
(3 -2.26286e-15 0)
(3 -1.80784e-15 0)
(3 -1.21774e-15 0)
(3 -1.28596e-16 0)
(3 5.20597e-16 0)
(3 7.00089e-16 0)
(3 5.31662e-16 0)
(3 -2.59141e-16 0)
(3 -1.86212e-16 0)
(3 4.04968e-16 0)
(3 1.62132e-15 0)
(3 1.63534e-15 0)
(3 1.3758e-15 0)
(3 1.78978e-15 0)
(3 3.74451e-15 0)
(3 3.31855e-15 0)
(3 3.0324e-15 0)
(3 2.37566e-15 0)
(3 1.29476e-15 0)
(3 1.00885e-15 0)
(3 -2.83873e-16 0)
(3 -1.34083e-15 0)
(3 -1.63994e-16 0)
(3 -3.36424e-16 0)
(3 -3.86237e-16 0)
(3 -1.57326e-17 0)
(3 9.98364e-17 0)
(3 3.26159e-16 0)
(3 3.16705e-16 0)
(3 1.05813e-16 0)
(3 -1.5653e-16 0)
(3 -3.97613e-16 0)
(3 -3.99008e-16 0)
(3 -4.6418e-16 0)
(3 -1.16669e-15 0)
(3 -2.22223e-15 0)
(3 -2.17756e-15 0)
(3 -2.20555e-15 0)
(3 -2.45515e-15 0)
(3 -2.55567e-15 0)
(3 -2.53389e-15 0)
(3 -2.13139e-15 0)
(3 -1.81901e-15 0)
(3 -8.00608e-16 0)
(3 -5.465e-16 0)
(3 4.71325e-16 0)
(3 4.76643e-16 0)
(3 3.62521e-16 0)
(3 2.51637e-16 0)
(3 2.69906e-16 0)
(3 3.06602e-16 0)
(3 2.60123e-16 0)
(3 5.18194e-17 0)
(3 2.42864e-16 0)
(3 9.19113e-16 0)
(3 1.01563e-15 0)
(3 1.71248e-16 0)
(3 -3.59943e-16 0)
(3 -3.09007e-16 0)
(3 7.01513e-16 0)
(3 1.62733e-15 0)
(3 1.95919e-15 0)
(3 1.66061e-15 0)
(3 1.46498e-15 0)
(3 1.5468e-15 0)
(3 1.13986e-15 0)
(3 -1.1603e-15 0)
(3 -2.50699e-15 0)
(3 -1.64504e-15 0)
(3 -9.44239e-16 0)
(3 -7.60916e-16 0)
(3 5.04561e-16 0)
(3 9.59202e-16 0)
(3 1.16577e-15 0)
(3 1.15662e-15 0)
(3 4.58148e-16 0)
(3 -6.36736e-16 0)
(3 -1.24448e-15 0)
(3 -1.30993e-15 0)
(3 -1.74533e-15 0)
(3 -1.67485e-15 0)
(3 -1.32271e-15 0)
(3 -7.76561e-16 0)
(3 2.04012e-16 0)
(3 2.68883e-16 0)
(3 6.0792e-16 0)
(3 1.10554e-15 0)
(3 1.38136e-15 0)
(3 1.45604e-15 0)
(3 1.03278e-15 0)
(3 9.89214e-16 0)
(3 5.85446e-16 0)
(3 6.55036e-16 0)
(3 6.28436e-16 0)
(3 2.05123e-16 0)
(3 -3.67604e-16 0)
(3 -1.89e-15 0)
(3 -1.45053e-15 0)
(3 -2.87949e-16 0)
(3 1.15623e-16 0)
(3 2.1009e-16 0)
(3 1.21285e-15 0)
(3 8.33513e-16 0)
(3 -3.1258e-16 0)
(3 2.86283e-16 0)
(3 1.2898e-15 0)
(3 1.69977e-15 0)
(3 1.96615e-15 0)
(3 2.01284e-15 0)
(3 2.09993e-15 0)
(3 2.2945e-15 0)
(3 2.28297e-15 0)
(3 2.5911e-15 0)
(3 3.15519e-15 0)
(3 2.0713e-15 0)
(3 3.25093e-16 0)
(3 -4.25575e-16 0)
(3 -2.98005e-16 0)
(3 -7.55227e-17 0)
(3 -5.8944e-16 0)
(3 -8.08061e-16 0)
(3 -3.4829e-16 0)
(3 -5.14826e-16 0)
(3 -4.63659e-16 0)
(3 -2.31592e-16 0)
(3 2.76895e-17 0)
(3 3.52215e-17 0)
(3 -7.75509e-17 0)
(3 -1.15047e-16 0)
(3 -5.02032e-16 0)
(3 -1.59682e-15 0)
(3 -1.92071e-15 0)
(3 -1.80325e-15 0)
(3 -2.88096e-15 0)
(3 -3.30008e-15 0)
(3 -2.96097e-15 0)
(3 -2.25254e-15 0)
(3 -2.03182e-15 0)
(3 -1.60684e-15 0)
(3 -7.34786e-16 0)
(3 -6.12671e-16 0)
(3 4.92069e-17 0)
(3 8.23524e-16 0)
(3 9.38159e-16 0)
(3 6.79572e-16 0)
(3 7.32629e-16 0)
(3 8.18063e-16 0)
(3 8.47558e-16 0)
(3 1.2301e-15 0)
(3 7.46614e-16 0)
(3 -4.87502e-18 0)
(3 -2.73928e-16 0)
(3 -4.01658e-16 0)
(3 -5.56084e-16 0)
(3 -4.33254e-16 0)
(3 -6.74837e-17 0)
(3 7.72066e-16 0)
(3 1.25099e-15 0)
(3 1.72712e-15 0)
(3 1.79505e-15 0)
(3 1.83712e-15 0)
(3 1.13305e-15 0)
(3 -5.54226e-16 0)
(3 -9.41719e-16 0)
(3 -9.48749e-16 0)
(3 -8.67274e-16 0)
(3 -5.19731e-16 0)
(3 -9.2696e-17 0)
(3 7.98819e-16 0)
(3 7.37138e-16 0)
(3 3.93533e-16 0)
(3 -3.62992e-16 0)
(3 -5.76096e-16 0)
(3 -3.08273e-16 0)
(3 -1.35052e-16 0)
(3 1.51101e-16 0)
(3 3.48649e-16 0)
(3 4.36695e-16 0)
(3 5.30764e-16 0)
(3 9.24022e-16 0)
(3 6.79371e-16 0)
(3 1.00427e-15 0)
(3 7.80172e-16 0)
(3 8.5415e-17 0)
(3 1.30332e-16 0)
(3 3.82916e-16 0)
(3 3.1395e-16 0)
(3 2.07066e-16 0)
(3 3.73365e-16 0)
(3 6.21257e-16 0)
(3 3.77687e-16 0)
(3 3.69841e-16 0)
(3 7.00723e-16 0)
(3 9.57201e-16 0)
(3 6.49773e-16 0)
(3 5.98448e-16 0)
(3 8.56889e-16 0)
(3 5.65575e-16 0)
(3 -1.05684e-16 0)
(3 8.35936e-17 0)
(3 2.71604e-16 0)
(3 6.88607e-16 0)
(3 1.58678e-15 0)
(3 1.87928e-15 0)
(3 1.67068e-15 0)
(3 1.58059e-15 0)
(3 1.32303e-15 0)
(3 1.56513e-15 0)
(3 1.75691e-15 0)
(3 1.87011e-15 0)
(3 2.52639e-15 0)
(3 1.7438e-15 0)
(3 3.83616e-16 0)
(3 4.63761e-17 0)
(3 1.51255e-16 0)
(3 -4.21943e-17 0)
(3 -1.81518e-16 0)
(3 -3.6754e-16 0)
(3 -5.90705e-16 0)
(3 -5.19712e-16 0)
(3 -1.70447e-16 0)
(3 7.94974e-16 0)
(3 9.37838e-16 0)
(3 4.40248e-16 0)
(3 9.21611e-17 0)
(3 -2.45753e-16 0)
(3 -6.75286e-16 0)
(3 -7.43871e-16 0)
(3 -3.57588e-16 0)
(3 -4.75257e-16 0)
(3 -5.48734e-16 0)
(3 -2.8039e-16 0)
(3 1.76528e-16 0)
(3 8.93801e-17 0)
(3 5.82017e-16 0)
(3 7.16802e-16 0)
(3 7.6052e-16 0)
(3 4.00698e-16 0)
(3 8.03653e-17 0)
(3 -1.39972e-16 0)
(3 -9.52234e-17 0)
(3 -5.97916e-17 0)
(3 6.78471e-16 0)
(3 9.06154e-16 0)
(3 4.95331e-16 0)
(3 1.31881e-16 0)
(3 -1.32862e-15 0)
(3 -1.83536e-15 0)
(3 -1.05832e-15 0)
(3 -6.71313e-16 0)
(3 -4.68339e-16 0)
(3 -4.389e-16 0)
(3 1.3168e-16 0)
(3 7.97326e-16 0)
(3 8.95744e-16 0)
(3 8.60294e-16 0)
(3 5.74314e-16 0)
(3 8.67499e-16 0)
(3 7.45077e-16 0)
(3 4.89952e-16 0)
(3 -1.45891e-16 0)
(3 -6.58649e-16 0)
(3 -9.05683e-16 0)
(3 -7.54902e-16 0)
(3 -5.53493e-16 0)
(3 -4.2143e-16 0)
(3 -6.2747e-16 0)
(3 -8.22414e-16 0)
(3 -3.97163e-16 0)
(3 3.23687e-16 0)
(3 4.89108e-16 0)
(3 -5.22703e-18 0)
(3 1.45954e-16 0)
(3 7.10226e-16 0)
(3 5.87986e-16 0)
(3 7.57595e-17 0)
(3 -7.09873e-16 0)
(3 -1.76658e-15 0)
(3 -2.10562e-15 0)
(3 -2.02272e-15 0)
(3 -1.97629e-15 0)
(3 -1.51955e-15 0)
(3 -9.74908e-16 0)
(3 -7.5905e-16 0)
(3 4.69256e-16 0)
(3 2.11811e-15 0)
(3 2.09507e-15 0)
(3 2.03963e-15 0)
(3 2.89046e-15 0)
(3 3.06962e-15 0)
(3 2.18492e-15 0)
(3 1.9131e-15 0)
(3 6.02972e-16 0)
(3 2.27373e-16 0)
(3 -7.89315e-16 0)
(3 -1.66579e-15 0)
(3 -2.42166e-15 0)
(3 -1.97602e-15 0)
(3 -8.49248e-16 0)
(3 -3.98069e-16 0)
(3 -3.61071e-16 0)
(3 -3.91773e-16 0)
(3 -7.85769e-16 0)
(3 -2.48094e-16 0)
(3 3.1389e-16 0)
(3 1.33725e-15 0)
(3 2.9918e-15 0)
(3 2.88465e-15 0)
(3 6.6959e-16 0)
(3 6.63504e-18 0)
(3 2.67733e-17 0)
(3 4.67581e-16 0)
(3 4.01614e-16 0)
(3 8.92453e-17 0)
(3 3.28311e-16 0)
(3 3.34705e-16 0)
(3 2.61888e-16 0)
(3 1.63455e-16 0)
(3 4.77859e-16 0)
(3 7.15937e-16 0)
(3 4.36148e-16 0)
(3 -3.24866e-16 0)
(3 2.07878e-18 0)
(3 -5.61353e-17 0)
(3 4.30275e-17 0)
(3 4.38809e-16 0)
(3 8.03375e-16 0)
(3 4.77675e-16 0)
(3 1.05691e-15 0)
(3 2.16895e-15 0)
(3 2.17229e-15 0)
(3 1.16157e-15 0)
(3 1.16722e-15 0)
(3 8.17986e-16 0)
(3 1.5539e-16 0)
(3 -7.48139e-17 0)
(3 -2.03205e-16 0)
(3 -2.98348e-16 0)
(3 -2.69503e-16 0)
(3 -4.40697e-16 0)
(3 -1.08868e-15 0)
(3 -1.33465e-15 0)
(3 -1.61067e-15 0)
(3 -2.00264e-15 0)
(3 -2.42803e-15 0)
(3 -1.86438e-15 0)
(3 -1.46866e-15 0)
(3 -1.33457e-15 0)
(3 -1.17238e-15 0)
(3 -1.07044e-15 0)
(3 -4.09072e-16 0)
(3 3.72407e-16 0)
(3 1.91514e-16 0)
(3 5.22758e-16 0)
(3 1.17559e-15 0)
(3 1.29192e-15 0)
(3 1.35918e-15 0)
(3 1.09359e-15 0)
(3 9.66518e-17 0)
(3 4.66526e-17 0)
(3 2.82366e-17 0)
(3 -9.7191e-17 0)
(3 -5.68437e-16 0)
(3 -8.55423e-16 0)
(3 -8.16362e-16 0)
(3 -6.46398e-16 0)
(3 -9.41174e-16 0)
(3 -1.46688e-15 0)
(3 -1.19059e-15 0)
(3 3.65612e-17 0)
(3 7.41153e-17 0)
(3 1.4621e-16 0)
(3 -1.23757e-15 0)
(3 -2.40446e-15 0)
(3 -3.4745e-15 0)
(3 -3.55023e-15 0)
(3 -3.0243e-15 0)
(3 -2.22684e-15 0)
(3 -1.65013e-15 0)
(3 -1.53013e-15 0)
(3 -7.43819e-16 0)
(3 4.51972e-16 0)
(3 1.19879e-15 0)
(3 2.01166e-15 0)
(3 1.96739e-15 0)
(3 1.76509e-15 0)
(3 1.57789e-15 0)
(3 1.61831e-15 0)
(3 5.72113e-16 0)
(3 -4.29973e-16 0)
(3 -2.09135e-15 0)
(3 -3.49944e-15 0)
(3 -4.92875e-15 0)
(3 -5.62079e-15 0)
(3 -4.72982e-15 0)
(3 -4.05713e-15 0)
(3 -2.91873e-15 0)
(3 -2.39424e-15 0)
(3 -2.06471e-15 0)
(3 -1.73243e-15 0)
(3 -1.14727e-15 0)
(3 3.27227e-16 0)
(3 2.17973e-15 0)
(3 2.64055e-15 0)
(3 2.2153e-15 0)
(3 1.98208e-15 0)
(3 -7.32781e-17 0)
(3 5.18718e-17 0)
(3 2.82969e-16 0)
(3 4.8052e-16 0)
(3 6.62741e-16 0)
(3 5.04495e-16 0)
(3 1.88137e-16 0)
(3 6.66506e-18 0)
(3 6.09341e-16 0)
(3 1.38822e-15 0)
(3 1.88136e-15 0)
(3 1.0119e-15 0)
(3 6.03377e-16 0)
(3 7.02828e-16 0)
(3 7.07938e-16 0)
(3 5.82726e-16 0)
(3 6.66616e-16 0)
(3 7.61496e-16 0)
(3 8.46578e-16 0)
(3 5.12472e-16 0)
(3 3.26886e-16 0)
(3 6.22073e-16 0)
(3 9.23769e-16 0)
(3 1.19769e-15 0)
(3 8.57728e-16 0)
(3 4.05703e-16 0)
(3 2.44646e-16 0)
(3 -5.30371e-17 0)
(3 -1.05347e-15 0)
(3 -1.40889e-15 0)
(3 -1.23421e-15 0)
(3 -8.14823e-16 0)
(3 -6.9609e-17 0)
(3 2.44146e-16 0)
(3 -9.26833e-16 0)
(3 -1.69428e-15 0)
(3 -1.75131e-15 0)
(3 -1.35335e-15 0)
(3 -1.48605e-15 0)
(3 -2.11225e-15 0)
(3 -3.47083e-16 0)
(3 4.14005e-16 0)
(3 5.8503e-16 0)
(3 5.3009e-16 0)
(3 9.60231e-16 0)
(3 1.38782e-15 0)
(3 2.27949e-15 0)
(3 2.60685e-15 0)
(3 2.0266e-15 0)
(3 8.31989e-16 0)
(3 2.95095e-16 0)
(3 -3.13673e-16 0)
(3 -1.23043e-15 0)
(3 -1.75691e-15 0)
(3 -1.61794e-15 0)
(3 -1.71715e-15 0)
(3 -1.54865e-15 0)
(3 -1.15839e-15 0)
(3 -6.49996e-16 0)
(3 -7.14353e-16 0)
(3 -1.38327e-15 0)
(3 -1.77228e-15 0)
(3 -1.11872e-15 0)
(3 -1.66313e-15 0)
(3 -2.11996e-15 0)
(3 -2.06198e-15 0)
(3 -3.17141e-15 0)
(3 -3.10476e-15 0)
(3 -1.99398e-15 0)
(3 -3.21938e-17 0)
(3 9.05569e-17 0)
(3 5.12583e-16 0)
(3 1.35875e-15 0)
(3 1.81329e-15 0)
(3 1.77994e-15 0)
(3 1.05987e-15 0)
(3 7.55173e-16 0)
(3 5.33465e-16 0)
(3 8.3987e-17 0)
(3 -6.63425e-16 0)
(3 -1.52807e-15 0)
(3 -2.20944e-15 0)
(3 -4.26181e-15 0)
(3 -6.9508e-15 0)
(3 -6.49652e-15 0)
(3 -5.47635e-15 0)
(3 -3.03797e-15 0)
(3 -2.95873e-15 0)
(3 -1.44821e-15 0)
(3 -1.38597e-15 0)
(3 -6.04184e-16 0)
(3 6.38773e-16 0)
(3 1.46853e-15 0)
(3 2.92223e-15 0)
(3 2.63955e-15 0)
(3 2.2428e-15 0)
(3 1.02302e-16 0)
(3 4.47384e-18 0)
(3 -9.22827e-17 0)
(3 -4.69308e-17 0)
(3 -2.08369e-16 0)
(3 -1.63079e-16 0)
(3 -2.40336e-16 0)
(3 -9.81382e-17 0)
(3 -3.67946e-17 0)
(3 -4.91284e-17 0)
(3 8.25907e-16 0)
(3 1.12532e-15 0)
(3 6.85949e-16 0)
(3 1.14717e-15 0)
(3 1.58636e-15 0)
(3 8.38468e-16 0)
(3 4.67662e-17 0)
(3 -5.38152e-17 0)
(3 2.29976e-17 0)
(3 -5.51303e-17 0)
(3 -6.21039e-17 0)
(3 -9.32283e-17 0)
(3 1.88791e-16 0)
(3 4.51661e-16 0)
(3 -1.38743e-17 0)
(3 -7.80761e-17 0)
(3 -2.03385e-16 0)
(3 -3.08621e-16 0)
(3 -9.41261e-16 0)
(3 -1.43357e-15 0)
(3 -1.26161e-15 0)
(3 -7.94874e-16 0)
(3 -3.17905e-16 0)
(3 -4.41314e-16 0)
(3 -3.79036e-17 0)
(3 1.94284e-16 0)
(3 2.23365e-16 0)
(3 2.69767e-17 0)
(3 -6.12797e-16 0)
(3 -1.37628e-15 0)
(3 -1.4595e-15 0)
(3 -7.61448e-16 0)
(3 -1.34957e-16 0)
(3 -1.82346e-16 0)
(3 2.45014e-16 0)
(3 9.47974e-16 0)
(3 1.67912e-15 0)
(3 2.28437e-15 0)
(3 1.30278e-15 0)
(3 1.10594e-15 0)
(3 8.03815e-16 0)
(3 9.26404e-17 0)
(3 -9.84516e-16 0)
(3 -1.39771e-15 0)
(3 -1.31431e-15 0)
(3 -1.16081e-15 0)
(3 -7.42621e-16 0)
(3 -5.67955e-16 0)
(3 -1.5587e-15 0)
(3 -2.81358e-15 0)
(3 -2.85394e-15 0)
(3 -3.02761e-15 0)
(3 -2.91145e-15 0)
(3 -2.20229e-15 0)
(3 -1.31915e-15 0)
(3 -6.70053e-16 0)
(3 -1.12104e-15 0)
(3 -2.25272e-15 0)
(3 -2.17256e-15 0)
(3 -5.327e-16 0)
(3 -8.74674e-17 0)
(3 3.72961e-16 0)
(3 1.17974e-15 0)
(3 2.21809e-15 0)
(3 3.02544e-15 0)
(3 2.98814e-15 0)
(3 2.77742e-15 0)
(3 8.38391e-16 0)
(3 -6.6614e-16 0)
(3 -1.26865e-15 0)
(3 -2.33524e-15 0)
(3 -2.58348e-15 0)
(3 -2.73676e-15 0)
(3 -2.89585e-15 0)
(3 -2.38576e-15 0)
(3 -1.58703e-15 0)
(3 -1.6693e-15 0)
(3 -1.21655e-15 0)
(3 -9.86001e-16 0)
(3 -8.66914e-16 0)
(3 -4.00448e-16 0)
(3 1.09042e-16 0)
(3 3.44887e-16 0)
(3 1.20431e-15 0)
(3 1.61248e-15 0)
(3 1.2281e-15 0)
(3 -5.17042e-17 0)
(3 -1.97557e-16 0)
(3 -3.60621e-16 0)
(3 -4.60365e-16 0)
(3 -4.10618e-16 0)
(3 -1.22676e-16 0)
(3 2.16711e-16 0)
(3 5.44029e-16 0)
(3 3.50742e-16 0)
(3 -3.63519e-16 0)
(3 -5.25148e-16 0)
(3 5.7173e-16 0)
(3 8.34852e-16 0)
(3 7.35618e-16 0)
(3 4.69514e-16 0)
(3 6.43603e-16 0)
(3 7.64676e-16 0)
(3 5.31536e-16 0)
(3 -3.851e-16 0)
(3 -2.57593e-16 0)
(3 1.93346e-16 0)
(3 4.80795e-16 0)
(3 -1.55579e-16 0)
(3 -2.17037e-16 0)
(3 -1.97963e-16 0)
(3 2.98464e-16 0)
(3 4.48413e-17 0)
(3 -5.19386e-16 0)
(3 -1.07693e-15 0)
(3 -1.72916e-15 0)
(3 -1.34985e-15 0)
(3 -9.44681e-16 0)
(3 -1.06274e-15 0)
(3 -9.83692e-16 0)
(3 -3.02061e-16 0)
(3 3.20542e-16 0)
(3 3.89098e-16 0)
(3 -3.1564e-16 0)
(3 -1.23482e-15 0)
(3 -1.14096e-15 0)
(3 -1.04652e-15 0)
(3 -1.14936e-15 0)
(3 -3.41524e-16 0)
(3 4.30046e-16 0)
(3 1.09763e-15 0)
(3 1.46041e-15 0)
(3 1.1916e-15 0)
(3 1.06192e-15 0)
(3 2.03247e-15 0)
(3 2.40096e-15 0)
(3 1.97517e-15 0)
(3 1.23708e-15 0)
(3 1.7211e-16 0)
(3 -8.06401e-18 0)
(3 -4.03806e-16 0)
(3 -3.26782e-16 0)
(3 -8.19697e-17 0)
(3 -2.8947e-16 0)
(3 -1.31823e-15 0)
(3 -1.16839e-15 0)
(3 -9.42495e-16 0)
(3 -1.17912e-15 0)
(3 -2.42794e-15 0)
(3 -3.1896e-15 0)
(3 -2.15994e-15 0)
(3 -7.60258e-16 0)
(3 -6.95294e-16 0)
(3 -1.47892e-15 0)
(3 -2.3203e-15 0)
(3 -1.53544e-15 0)
(3 -1.22389e-15 0)
(3 2.7008e-16 0)
(3 8.21819e-16 0)
(3 8.21552e-16 0)
(3 1.56433e-15 0)
(3 1.98686e-15 0)
(3 1.90952e-15 0)
(3 1.02803e-15 0)
(3 1.21808e-16 0)
(3 -6.29366e-16 0)
(3 -8.44533e-16 0)
(3 -1.19839e-15 0)
(3 -7.01784e-16 0)
(3 -1.65062e-16 0)
(3 4.60627e-16 0)
(3 3.87034e-16 0)
(3 -4.08969e-16 0)
(3 -2.08771e-16 0)
(3 -2.53131e-16 0)
(3 4.69767e-16 0)
(3 6.48666e-17 0)
(3 1.89774e-16 0)
(3 5.63741e-18 0)
(3 -5.34036e-17 0)
(3 -2.47426e-17 0)
(3 1.05852e-15 0)
(3 1.01688e-16 0)
(3 1.76456e-16 0)
(3 1.72044e-16 0)
(3 3.96501e-17 0)
(3 -2.38252e-16 0)
(3 8.16254e-17 0)
(3 6.25418e-16 0)
(3 9.22631e-16 0)
(3 1.03222e-15 0)
(3 6.10401e-16 0)
(3 2.73284e-16 0)
(3 2.92639e-16 0)
(3 3.39241e-16 0)
(3 1.94012e-16 0)
(3 -2.31209e-16 0)
(3 1.22372e-16 0)
(3 3.01439e-16 0)
(3 3.27598e-16 0)
(3 -2.5297e-18 0)
(3 -3.039e-16 0)
(3 -2.32806e-16 0)
(3 1.45362e-16 0)
(3 2.45781e-17 0)
(3 6.76075e-17 0)
(3 1.04814e-16 0)
(3 1.50458e-16 0)
(3 -5.12981e-17 0)
(3 2.48044e-17 0)
(3 -4.54042e-16 0)
(3 -6.15672e-16 0)
(3 -1.69247e-16 0)
(3 1.25161e-16 0)
(3 -2.53152e-16 0)
(3 -5.13449e-16 0)
(3 -1.22228e-16 0)
(3 -2.62362e-16 0)
(3 -4.94521e-16 0)
(3 -7.57354e-16 0)
(3 -7.33542e-16 0)
(3 -4.2996e-16 0)
(3 -1.06517e-16 0)
(3 -2.05217e-16 0)
(3 1.80218e-16 0)
(3 9.20039e-16 0)
(3 1.36531e-15 0)
(3 1.06138e-15 0)
(3 -4.13151e-17 0)
(3 7.40976e-16 0)
(3 1.78666e-15 0)
(3 1.37631e-15 0)
(3 8.38266e-17 0)
(3 -3.26021e-16 0)
(3 -4.07444e-16 0)
(3 -3.04526e-16 0)
(3 -9.47926e-16 0)
(3 -1.51659e-15 0)
(3 -2.19792e-15 0)
(3 -2.24815e-15 0)
(3 -1.66446e-15 0)
(3 -1.58643e-15 0)
(3 -1.4352e-15 0)
(3 -9.1822e-16 0)
(3 -7.46718e-16 0)
(3 -8.23025e-16 0)
(3 -4.09941e-16 0)
(3 -3.69285e-16 0)
(3 -2.79012e-16 0)
(3 -4.19414e-16 0)
(3 -1.38138e-15 0)
(3 -1.64775e-15 0)
(3 2.32844e-16 0)
(3 1.17647e-15 0)
(3 1.1717e-15 0)
(3 4.34792e-16 0)
(3 8.61098e-17 0)
(3 2.59866e-16 0)
(3 3.33752e-16 0)
(3 4.76469e-16 0)
(3 1.25964e-15 0)
(3 1.75244e-15 0)
(3 1.46245e-15 0)
(3 8.87369e-16 0)
(3 9.39384e-16 0)
(3 1.55748e-15 0)
(3 1.77196e-15 0)
(3 1.39651e-15 0)
(3 4.74871e-16 0)
(3 -3.52828e-16 0)
(3 8.45333e-17 0)
(3 -4.5454e-16 0)
(3 -1.06098e-15 0)
(3 -1.58764e-15 0)
(3 -1.57883e-15 0)
(3 -1.60472e-15 0)
(3 -6.83448e-16 0)
(3 1.70731e-16 0)
(3 7.13867e-17 0)
(3 5.85157e-16 0)
(3 3.52017e-16 0)
(3 -4.27111e-16 0)
(3 -4.13205e-16 0)
(3 -5.87496e-16 0)
(3 -1.00107e-15 0)
(3 -1.21252e-15 0)
(3 -1.26098e-15 0)
(3 -5.44995e-16 0)
(3 -4.83169e-16 0)
(3 -7.20244e-16 0)
(3 -4.34714e-16 0)
(3 -1.8497e-16 0)
(3 1.7571e-16 0)
(3 -2.74494e-17 0)
(3 1.88126e-16 0)
(3 7.90618e-16 0)
(3 1.16624e-15 0)
(3 9.37113e-16 0)
(3 1.53084e-16 0)
(3 -6.56925e-16 0)
(3 -9.79202e-16 0)
(3 -9.58249e-16 0)
(3 -5.96442e-16 0)
(3 -5.88925e-16 0)
(3 -3.19209e-16 0)
(3 1.11154e-17 0)
(3 3.13737e-17 0)
(3 -2.79771e-17 0)
(3 -6.8827e-16 0)
(3 -4.02581e-18 0)
(3 -1.45867e-16 0)
(3 -1.78614e-16 0)
(3 -6.40987e-16 0)
(3 -8.24975e-16 0)
(3 -6.78549e-16 0)
(3 4.55901e-17 0)
(3 3.8962e-16 0)
(3 4.34032e-17 0)
(3 -6.3807e-17 0)
(3 4.75268e-16 0)
(3 8.7825e-16 0)
(3 1.0585e-15 0)
(3 8.17833e-16 0)
(3 -1.31507e-16 0)
(3 -3.60368e-16 0)
(3 3.71142e-16 0)
(3 8.24521e-16 0)
(3 -8.48082e-16 0)
(3 -1.52232e-15 0)
(3 -7.90729e-16 0)
(3 -4.15402e-16 0)
(3 -8.09317e-16 0)
(3 -8.23295e-16 0)
(3 -7.49851e-16 0)
(3 -1.91215e-15 0)
(3 -2.565e-15 0)
(3 -2.835e-15 0)
(3 -1.93045e-15 0)
(3 -1.29553e-15 0)
(3 -5.00754e-16 0)
(3 1.28579e-15 0)
(3 2.79033e-15 0)
(3 1.40318e-15 0)
(3 4.87202e-16 0)
(3 3.34021e-16 0)
(3 1.54369e-16 0)
(3 -3.18e-16 0)
(3 -1.22551e-16 0)
(3 1.07275e-15 0)
(3 1.2251e-15 0)
(3 5.27883e-16 0)
(3 1.42308e-16 0)
(3 1.62967e-16 0)
(3 5.34375e-16 0)
(3 7.55537e-16 0)
(3 1.19101e-15 0)
(3 1.72923e-15 0)
(3 2.2201e-15 0)
(3 2.04917e-15 0)
(3 2.20181e-15 0)
(3 3.0259e-15 0)
(3 2.88582e-15 0)
(3 2.99052e-15 0)
(3 1.99695e-15 0)
(3 2.06606e-16 0)
(3 -5.11307e-16 0)
(3 -9.5778e-16 0)
(3 -1.52176e-15 0)
(3 -2.42185e-15 0)
(3 -3.83735e-15 0)
(3 -4.04897e-15 0)
(3 -2.10062e-15 0)
(3 1.48038e-17 0)
(3 4.57169e-16 0)
(3 2.11139e-17 0)
(3 -9.96614e-18 0)
(3 -2.41718e-17 0)
(3 -1.79591e-16 0)
(3 -8.60991e-17 0)
(3 -7.22528e-16 0)
(3 -1.40942e-15 0)
(3 -1.51008e-15 0)
(3 -1.75722e-15 0)
(3 -2.29209e-15 0)
(3 -2.04038e-15 0)
(3 -1.53234e-15 0)
(3 -1.27769e-15 0)
(3 -4.68892e-16 0)
(3 -4.639e-18 0)
(3 4.795e-17 0)
(3 2.15445e-16 0)
(3 5.23068e-16 0)
(3 6.16875e-16 0)
(3 6.10403e-16 0)
(3 3.7264e-16 0)
(3 -1.7333e-16 0)
(3 1.41264e-17 0)
(3 -7.78263e-17 0)
(3 -4.64214e-16 0)
(3 -7.4671e-16 0)
(3 -2.94288e-16 0)
(3 -1.01166e-16 0)
(3 3.18341e-16 0)
(3 7.36122e-16 0)
(3 9.82035e-16 0)
(3 4.99557e-16 0)
(3 1.85072e-16 0)
(3 2.34755e-16 0)
(3 -4.89092e-16 0)
(3 -9.19905e-16 0)
(3 -9.4732e-16 0)
(3 -4.39813e-16 0)
(3 2.39402e-16 0)
(3 3.21678e-16 0)
(3 1.59636e-17 0)
(3 3.43191e-16 0)
(3 7.48257e-16 0)
(3 3.36463e-16 0)
(3 -1.18462e-16 0)
(3 -2.52669e-16 0)
(3 -7.11891e-16 0)
(3 -1.15057e-15 0)
(3 -8.36384e-16 0)
(3 3.01404e-16 0)
(3 -6.63924e-17 0)
(3 -5.01249e-16 0)
(3 -3.11701e-16 0)
(3 -8.74273e-16 0)
(3 -1.06035e-15 0)
(3 -1.08532e-15 0)
(3 -1.1502e-15 0)
(3 -6.69055e-16 0)
(3 -3.08536e-16 0)
(3 -2.53301e-16 0)
(3 -5.10648e-16 0)
(3 -1.15019e-17 0)
(3 5.96046e-16 0)
(3 1.13996e-15 0)
(3 1.70863e-15 0)
(3 1.47289e-15 0)
(3 5.17212e-16 0)
(3 5.15441e-16 0)
(3 1.25787e-15 0)
(3 7.88823e-16 0)
(3 5.09674e-16 0)
(3 7.18717e-16 0)
(3 7.90087e-16 0)
(3 5.90843e-16 0)
(3 6.28665e-16 0)
(3 8.54947e-16 0)
(3 9.82872e-16 0)
(3 7.80493e-16 0)
(3 1.14027e-15 0)
(3 1.69213e-15 0)
(3 2.35447e-15 0)
(3 2.8961e-15 0)
(3 2.7482e-15 0)
(3 2.974e-15 0)
(3 2.60616e-15 0)
(3 1.60423e-15 0)
(3 1.16582e-15 0)
(3 7.89784e-16 0)
(3 -9.64127e-16 0)
(3 -1.72985e-15 0)
(3 -1.7682e-15 0)
(3 -7.79943e-16 0)
(3 -9.46584e-17 0)
(3 1.25014e-15 0)
(3 1.89831e-15 0)
(3 2.92779e-15 0)
(3 -1.43041e-16 0)
(3 -8.11578e-16 0)
(3 -5.63249e-16 0)
(3 3.99505e-16 0)
(3 3.20705e-16 0)
(3 3.73e-16 0)
(3 6.76092e-16 0)
(3 7.19469e-17 0)
(3 -4.47059e-16 0)
(3 -1.10743e-15 0)
(3 -1.08349e-15 0)
(3 -1.01037e-15 0)
(3 -1.16304e-15 0)
(3 -1.10882e-15 0)
(3 -9.36529e-16 0)
(3 -4.04822e-16 0)
(3 -4.12172e-16 0)
(3 -4.03997e-16 0)
(3 -2.28437e-16 0)
(3 1.28228e-16 0)
(3 -9.42028e-17 0)
(3 -5.13703e-16 0)
(3 -4.65689e-16 0)
(3 -7.87292e-16 0)
(3 -1.11207e-15 0)
(3 -1.34656e-15 0)
(3 -1.4889e-15 0)
(3 -1.95099e-16 0)
(3 1.53634e-16 0)
(3 7.48469e-16 0)
(3 1.25568e-15 0)
(3 1.44006e-15 0)
(3 8.77857e-16 0)
(3 4.64879e-16 0)
(3 -2.68954e-16 0)
(3 -1.44828e-15 0)
(3 -1.6783e-15 0)
(3 -1.03371e-15 0)
(3 -6.43153e-16 0)
(3 -2.39178e-16 0)
(3 -2.12626e-16 0)
(3 2.06131e-16 0)
(3 -1.20846e-16 0)
(3 -1.38378e-15 0)
(3 -1.19328e-15 0)
(3 -9.67629e-16 0)
(3 -3.61877e-16 0)
(3 2.01452e-16 0)
(3 4.6266e-16 0)
(3 1.02334e-15 0)
(3 1.373e-15 0)
(3 -1.03071e-15 0)
(3 -1.53903e-15 0)
(3 -1.38715e-15 0)
(3 -1.55713e-15 0)
(3 -1.58659e-15 0)
(3 -1.20232e-15 0)
(3 -5.39829e-17 0)
(3 3.57155e-16 0)
(3 2.44194e-16 0)
(3 -7.66038e-16 0)
(3 -7.25406e-16 0)
(3 -7.10538e-16 0)
(3 2.62588e-16 0)
(3 5.95119e-16 0)
(3 8.59407e-16 0)
(3 1.10554e-15 0)
(3 1.2263e-15 0)
(3 1.99464e-15 0)
(3 2.04563e-15 0)
(3 1.85747e-15 0)
(3 1.12399e-15 0)
(3 1.06086e-15 0)
(3 1.12729e-15 0)
(3 1.21992e-15 0)
(3 1.22338e-15 0)
(3 9.81912e-16 0)
(3 1.44405e-15 0)
(3 2.2436e-15 0)
(3 2.5173e-15 0)
(3 2.06669e-15 0)
(3 1.55158e-15 0)
(3 6.6664e-16 0)
(3 8.20453e-16 0)
(3 6.51274e-16 0)
(3 9.29911e-16 0)
(3 1.41498e-15 0)
(3 7.03889e-16 0)
(3 -1.28699e-15 0)
(3 -1.77808e-15 0)
(3 -1.00924e-15 0)
(3 6.74023e-17 0)
(3 1.05694e-15 0)
(3 1.90228e-15 0)
(3 2.42195e-15 0)
(3 3.50137e-15 0)
(3 -7.19735e-18 0)
(3 2.05192e-17 0)
(3 -4.25439e-17 0)
(3 1.0973e-16 0)
(3 2.73377e-17 0)
(3 -1.22436e-16 0)
(3 2.57674e-16 0)
(3 1.55367e-16 0)
(3 3.35342e-17 0)
(3 -5.48181e-17 0)
(3 -4.0951e-16 0)
(3 -8.06384e-16 0)
(3 -1.26472e-15 0)
(3 -9.23916e-16 0)
(3 -9.73065e-16 0)
(3 -5.4832e-16 0)
(3 -4.00162e-17 0)
(3 2.00596e-16 0)
(3 5.25971e-16 0)
(3 6.34705e-16 0)
(3 7.03961e-16 0)
(3 3.10188e-16 0)
(3 -6.88949e-16 0)
(3 -8.73576e-16 0)
(3 -6.21808e-16 0)
(3 -1.09616e-15 0)
(3 -1.37521e-15 0)
(3 -9.63906e-16 0)
(3 -6.80036e-16 0)
(3 -8.41875e-17 0)
(3 5.62498e-16 0)
(3 6.94375e-16 0)
(3 4.8635e-16 0)
(3 8.26717e-17 0)
(3 -6.96695e-16 0)
(3 -9.76482e-16 0)
(3 -6.10261e-16 0)
(3 -2.60017e-16 0)
(3 -7.64536e-16 0)
(3 -6.34028e-16 0)
(3 -6.72408e-16 0)
(3 -1.8728e-15 0)
(3 -2.24247e-15 0)
(3 -1.64408e-15 0)
(3 -7.43644e-16 0)
(3 -3.91315e-16 0)
(3 2.24754e-16 0)
(3 5.01971e-16 0)
(3 1.00174e-15 0)
(3 9.84554e-16 0)
(3 3.00148e-16 0)
(3 -2.54047e-17 0)
(3 -4.65613e-16 0)
(3 -4.88672e-16 0)
(3 -6.90264e-16 0)
(3 -5.54727e-16 0)
(3 4.63946e-17 0)
(3 2.27136e-16 0)
(3 -2.45707e-16 0)
(3 -6.66866e-16 0)
(3 -9.2513e-16 0)
(3 -8.90487e-16 0)
(3 9.8216e-17 0)
(3 3.69463e-16 0)
(3 1.71901e-16 0)
(3 2.89145e-16 0)
(3 1.38465e-15 0)
(3 1.60804e-15 0)
(3 1.68142e-15 0)
(3 2.18756e-15 0)
(3 2.40501e-15 0)
(3 1.9395e-15 0)
(3 1.48713e-15 0)
(3 2.19033e-15 0)
(3 1.99018e-15 0)
(3 1.04714e-15 0)
(3 1.87584e-15 0)
(3 3.16722e-15 0)
(3 3.51886e-15 0)
(3 3.31989e-15 0)
(3 1.9567e-15 0)
(3 6.8549e-16 0)
(3 1.46152e-16 0)
(3 2.13496e-16 0)
(3 4.5468e-16 0)
(3 1.10231e-15 0)
(3 1.35782e-15 0)
(3 1.16153e-15 0)
(3 1.0587e-15 0)
(3 1.05018e-15 0)
(3 1.29826e-15 0)
(3 1.44468e-15 0)
(3 1.81018e-15 0)
(3 2.07494e-15 0)
(3 2.52824e-15 0)
(3 2.12919e-15 0)
(3 4.80916e-17 0)
(3 2.33637e-16 0)
(3 2.12868e-16 0)
(3 2.21825e-17 0)
(3 -8.0751e-17 0)
(3 -1.35665e-16 0)
(3 -5.04706e-17 0)
(3 8.91911e-18 0)
(3 -6.70329e-18 0)
(3 8.49778e-17 0)
(3 -7.20586e-16 0)
(3 -1.0194e-15 0)
(3 -4.43158e-16 0)
(3 1.10242e-16 0)
(3 2.28264e-17 0)
(3 1.17535e-16 0)
(3 4.04818e-16 0)
(3 -8.49269e-17 0)
(3 -3.82921e-16 0)
(3 -1.89685e-16 0)
(3 4.04042e-16 0)
(3 3.03719e-16 0)
(3 1.35267e-16 0)
(3 1.73414e-16 0)
(3 2.62046e-16 0)
(3 3.40772e-16 0)
(3 -2.14963e-16 0)
(3 -8.20602e-16 0)
(3 -6.36982e-16 0)
(3 -7.31364e-16 0)
(3 -3.37876e-16 0)
(3 1.62187e-16 0)
(3 6.36267e-16 0)
(3 3.71072e-16 0)
(3 2.32672e-16 0)
(3 7.03523e-16 0)
(3 -5.12854e-16 0)
(3 -5.57667e-16 0)
(3 -3.18156e-16 0)
(3 -1.16755e-15 0)
(3 -1.36751e-15 0)
(3 -2.04863e-15 0)
(3 -2.09237e-15 0)
(3 -1.94712e-15 0)
(3 -1.74838e-15 0)
(3 -9.06957e-16 0)
(3 6.46591e-17 0)
(3 -8.90831e-17 0)
(3 -7.58593e-16 0)
(3 -1.30131e-15 0)
(3 -8.08973e-16 0)
(3 -2.86029e-16 0)
(3 -6.42739e-18 0)
(3 7.16659e-16 0)
(3 1.01989e-15 0)
(3 1.29432e-15 0)
(3 1.06382e-15 0)
(3 8.63628e-16 0)
(3 4.59569e-16 0)
(3 -3.52041e-16 0)
(3 -3.11027e-16 0)
(3 -2.17807e-16 0)
(3 1.77237e-16 0)
(3 1.48295e-16 0)
(3 1.86649e-16 0)
(3 8.25953e-16 0)
(3 1.27284e-15 0)
(3 1.44282e-15 0)
(3 1.70472e-15 0)
(3 9.66931e-16 0)
(3 4.96898e-16 0)
(3 9.47783e-16 0)
(3 1.48874e-15 0)
(3 1.20318e-15 0)
(3 1.02414e-15 0)
(3 1.24933e-15 0)
(3 2.07419e-15 0)
(3 2.69471e-15 0)
(3 2.65779e-15 0)
(3 3.02414e-15 0)
(3 2.7881e-15 0)
(3 2.60362e-15 0)
(3 1.53828e-15 0)
(3 7.11828e-16 0)
(3 2.89109e-16 0)
(3 6.80448e-16 0)
(3 1.08284e-15 0)
(3 1.09219e-15 0)
(3 1.60153e-15 0)
(3 1.6072e-15 0)
(3 1.76793e-15 0)
(3 2.06221e-15 0)
(3 2.12795e-15 0)
(3 2.55174e-15 0)
(3 3.10834e-15 0)
(3 2.92796e-15 0)
(3 -7.99932e-17 0)
(3 -6.35072e-16 0)
(3 -2.95189e-16 0)
(3 1.85106e-16 0)
(3 7.39487e-16 0)
(3 1.32566e-15 0)
(3 8.93874e-16 0)
(3 6.44172e-16 0)
(3 7.53094e-16 0)
(3 9.17714e-16 0)
(3 6.31544e-16 0)
(3 4.26816e-16 0)
(3 -3.49602e-17 0)
(3 -1.81905e-16 0)
(3 4.12694e-17 0)
(3 -3.63612e-16 0)
(3 -8.43777e-16 0)
(3 -4.49843e-16 0)
(3 -3.24386e-16 0)
(3 -4.70278e-16 0)
(3 -6.56525e-16 0)
(3 2.09739e-17 0)
(3 7.68135e-16 0)
(3 9.94689e-16 0)
(3 9.06142e-16 0)
(3 2.89154e-16 0)
(3 -6.4487e-16 0)
(3 -1.09287e-15 0)
(3 -1.47725e-15 0)
(3 -1.47064e-15 0)
(3 -1.41985e-15 0)
(3 -1.40326e-15 0)
(3 -1.34275e-16 0)
(3 2.69056e-17 0)
(3 4.25901e-16 0)
(3 8.82226e-16 0)
(3 4.305e-16 0)
(3 1.70635e-16 0)
(3 -4.32506e-16 0)
(3 -1.28944e-15 0)
(3 -9.29657e-16 0)
(3 -1.05425e-15 0)
(3 -1.76118e-15 0)
(3 -1.62918e-15 0)
(3 -1.19309e-15 0)
(3 -7.42047e-16 0)
(3 3.16771e-16 0)
(3 7.20383e-16 0)
(3 -5.83706e-16 0)
(3 -2.43741e-15 0)
(3 -1.65309e-15 0)
(3 -8.70818e-16 0)
(3 -4.53007e-16 0)
(3 -4.33831e-16 0)
(3 6.33487e-16 0)
(3 9.04472e-16 0)
(3 1.04002e-15 0)
(3 8.20929e-16 0)
(3 7.75013e-16 0)