/*--------------------------------*- C++ -*----------------------------------*\
  =========                 |
  \\      /  F ield         | OpenFOAM: The Open Source CFD Toolbox
   \\    /   O peration     | Website:  https://openfoam.org
    \\  /    A nd           | Version:  7
     \\/     M anipulation  |
\*---------------------------------------------------------------------------*/
FoamFile
{
    version     2.0;
    format      ascii;
    class       volScalarField;
    location    "2.6";
    object      p;
}
// * * * * * * * * * * * * * * * * * * * * * * * * * * * * * * * * * * * * * //

dimensions      [1 -1 -2 0 0 0 0];

internalField   nonuniform List<scalar> 
4608
(
1
1
1
1
1
1
1
1
1
1
1
1
1
1
1
1
1
1
1
1
1
1
1
1
1
1
1
1
1
1
1
1
1
1
1
1
1
1
1
1
1
1
1
1
1
1
1
1
1
1
1
1
1
1
1
1
1
1
1
1
1
1
1
1
1
1
1
1
1
1
1
1
1
1
1
1
1
1
1
1
1
1
1
1
1
1
1
1
1
1
1
1
1
1
1
1
1
1
1
1
1
1
1
1
1
1
1
1
1
1
1
1
1
1
1
1
1
1
1
1
1
1
1
1
1
1
1
1
1
1
1
1
1
1
1
1
1
1
1
1
1
1
1
1
1
1
1
1
1
1
1
1
1
1
1
1
1
1
1
1
1
1
1
1
1
1
1
1
1
1
1
1
1
1
1
1
1
1
1
1
1
1
1
1
1
1
1
1
1
1
1
1
1
1
1
1
1
1
1
1
1
1
1
1
1
1
1
1
1
1
1
1
1
1
1
1
1
1
1
1
1
1
1
1
1
1
1
1
1
1
1
1
1
1
1
1
1
1
1
1
1
1
1
1
1
1
1
1
1
1
1
1
1
1
1
1
1
1
1
1
1
1
1
1
1
1
1
1
1
1
1
1
1
1
1
1
1
1
1
1
1
1
1
1
1
1
1
1
1
1
1
1
1
1
1
1
1
1
1
1
1
1
1
1
1
1
1
1
1
1
1
1
1
1
1
1
1
1
1
1
1
1
1
1
1
1
1
1
1
1
1
1
1
1
1
1
1
1
1
1
1
1
1
1
1
1
1
1
1
1
1
1
1
1
1
1
1
1
1
1
1
1
1
1
1
1
1
1
1
1
1
1
1
1
1
1
1
1
1
1
1
1
1
1
1
1
1
1
1
1
1
1
1
1
1
1
1
1
1
1
1
1
1
1
1
1
1
1
1
1
1
1
1
1
1
1
1
1
1
1
1
1
1
1
1
1
1
1
1
1
1
1
1
1
1
1
1
1
1
1
1
1
1
1
1
1
1
1
1
1
1
1
1
1
1
1
1
1
1
1
1
1
1
1
1
1
1
1
1
1
1
1
1
1
1
1
1
1
1
1
1
1
1
1
1
1
1
1
1
1
1
1
1
1
1
1
1
1
1
1
1
1
1
1
1
1
1
1
1
1
1
1
1
1
1
1
1
1
1
1
1
1
1
1
1
1
1
1
1
1
1
1
1
1
1
1
1
1
1
1
1
1
1
1
1
1
1
1
1
1
1
1
1
1
1
1
1
1
1
1
1
1
1
1
1
1
1
1
1
1
1
1
1
1
1
1
1
1
1
1
1
1
1
1
1
1
1
1
1
1
1
1
1
1
1
1
1
1
1
1
1
1
1
1
1
1
1
1
1
1
1
1
1
1
1
1
1
1
1
1
1
1
1
1
1
1
1
1
1
1
1
1
1
1
1
1
1
1
1
1
1
1
1
1
1
1
1
1
1
1
1
1
1
1
1
1
1
1
1
1
1
1
1
1
1
1
1
1
1
1
1
1
1
1
1
1
1
1
1
1
1
1
1
1
1
1
1
1
1
1
1
1
1
1
1
1
1
1
1
1
1
1
1
1
1
1
1
1
1
1
1
1
1
1
1
1
1
1
1
1
1
1
1
1
1
1
1
1
1
1
1
1
1
1
1
1
1
1
1
1
1
1
1
1
1
1
1
1
1
1
1
1
1
1
1
1
1
1
1
1
1
1
1
1
1
1
1
1
1.29238
1.7542
2.34382
2.97382
3.62983
4.32521
4.80222
5.30327
5.37832
5.17683
4.7052
4.20287
3.81244
3.66048
3.56608
3.57474
3.61744
3.66348
3.69443
3.70276
3.71332
3.73012
3.75481
3.77354
1.00295
1.02062
1.07839
1.22268
1.46497
1.86007
2.36532
3.00016
3.56149
3.85845
4.02688
4.01722
3.98385
3.87585
3.7605
3.71203
3.70709
3.69211
3.69257
3.70061
3.7154
3.73007
3.74337
3.76248
1
0.999993
0.999971
1.00027
1.00343
1.02394
1.1102
1.35957
1.99359
3.00092
3.84069
4.28298
4.37187
4.28602
4.11912
3.84878
3.71043
3.69785
3.69474
3.70883
3.72431
3.73263
3.7378
3.75613
1
1
0.999997
0.999997
0.999986
1.00004
0.999969
1.00155
1.03705
1.2869
2.05993
3.06843
4.01969
4.12156
4.08652
4.01359
3.87644
3.7809
3.76333
3.73785
3.72504
3.7287
3.73465
3.75339
1
1
1
1
0.999999
0.999999
0.999997
0.999993
0.999901
1.00113
1.044
1.3548
2.23328
3.26291
3.92671
4.12761
4.07694
3.95223
3.8216
3.75602
3.71744
3.69975
3.71046
3.72905
1
1
1
1
1
1
1
0.999999
0.999989
0.999991
0.999902
1.00325
1.06689
1.54727
2.48963
3.58189
3.88296
3.87462
3.83647
3.76998
3.70404
3.69557
3.69657
3.70686
1
1
1
1
1
1
1
1
1
0.999999
0.999989
0.999989
0.999959
1.01343
1.14617
1.81198
2.85167
3.73889
3.92673
3.88077
3.79034
3.76251
3.74265
3.72191
1
1
1
1
1
1
1
1
1
1
1
0.999999
0.999994
0.999963
1.00068
1.04067
1.33809
2.29037
3.23911
3.78997
3.85243
3.83769
3.80135
3.75584
1
1
1
1
1
1
1
1
1
1
1
1
1
0.999996
0.999992
1.00003
1.00621
1.14224
1.75641
2.91857
3.45611
3.66731
3.77027
3.76339
1
1
1
1
1
1
1
1
1
1
1
1
1
1
0.999999
0.999999
0.999984
1.00171
1.04452
1.4184
2.34779
3.35681
3.76086
3.76065
1
1
1
1
1
1
1
1
1
1
1
1
1
1
1
1
0.999998
0.99999
1.00017
1.01522
1.22332
1.99921
3.04938
3.54775
1
1
1
1
1
1
1
1
1
1
1
1
1
1
1
1
1
0.999998
0.999997
1.00002
1.00585
1.10372
1.74694
2.77885
1
1
1
1
1
1
1
1
1
1
1
1
1
1
1
1
1
1
0.999999
0.999999
0.999998
1.00178
1.07054
1.51312
1
1
1
1
1
1
1
1
1
1
1
1
1
1
1
1
1
1
1
1
0.999999
0.999999
1.00133
1.02728
1
1
1
1
1
1
1
1
1
1
1
1
1
1
1
1
1
1
1
1
1
0.999999
1.00001
0.999974
1
1
1
1
1
1
1
1
1
1
1
1
1
1
1
1
1
1
1
1
1
1
1
0.999984
1
1
1
1
1
1
1
1
1
1
1
1
1
1
1
1
1
1
1
1
1
1
0.999999
0.999996
1
1
1
1
1
1
1
1
1
1
1
1
1
1
1
1
1
1
1
1
1
0.999999
0.999998
1.0001
1
1
1
1
1
1
1
1
1
1
1
1
1
1
1
1
1
1
1
1
0.999999
0.999999
1.00116
1.02958
1
1
1
1
1
1
1
1
1
1
1
1
1
1
1
1
1
1
0.999999
0.999999
0.999998
1.00176
1.07015
1.47134
1
1
1
1
1
1
1
1
1
1
1
1
1
1
1
1
1
0.999998
0.999997
1.00002
1.00582
1.1078
1.72523
2.75282
1
1
1
1
1
1
1
1
1
1
1
1
1
1
1
1
0.999998
0.99999
1.00016
1.01528
1.22748
2.01979
2.97827
3.5906
1
1
1
1
1
1
1
1
1
1
1
1
1
1
0.999999
0.999999
0.999984
1.00171
1.04437
1.41574
2.36531
3.35392
3.74113
3.76198
1
1
1
1
1
1
1
1
1
1
1
1
1
0.999996
0.999992
1.00003
1.00617
1.14309
1.75131
2.92384
3.46642
3.66073
3.75424
3.76075
1
1
1
1
1
1
1
1
1
1
1
0.999999
0.999994
0.999963
1.00068
1.04076
1.33824
2.29129
3.23206
3.79493
3.85618
3.83416
3.797
3.76152
1
1
1
1
1
1
1
1
1
0.999999
0.999989
0.999989
0.999959
1.01343
1.14607
1.81167
2.85378
3.73702
3.9265
3.88071
3.79166
3.76166
3.74271
3.72345
1
1
1
1
1
1
1
0.999999
0.999989
0.999991
0.999902
1.00326
1.06689
1.5473
2.48896
3.58207
3.88407
3.87502
3.83623
3.7709
3.70499
3.69622
3.69646
3.70766
1
1
1
1
0.999999
0.999999
0.999997
0.999993
0.999901
1.00113
1.04397
1.35484
2.23352
3.26284
3.92623
4.1277
4.07718
3.9525
3.82089
3.75569
3.71772
3.69933
3.71013
3.72883
1
1
0.999997
0.999997
0.999986
1.00004
0.999969
1.00155
1.03703
1.28699
2.05978
3.06855
4.01962
4.1214
4.0863
4.01341
3.87734
3.78042
3.76317
3.73787
3.72526
3.72853
3.73417
3.75304
1
0.999993
0.999971
1.00027
1.00343
1.02393
1.11022
1.35958
1.99355
3.00097
3.84081
4.28292
4.3718
4.28617
4.11918
3.84848
3.71133
3.69721
3.69469
3.70888
3.72441
3.7326
3.73774
3.75614
1.00294
1.02064
1.07836
1.22273
1.46502
1.85992
2.3655
2.99999
3.56144
3.85857
4.02712
4.01676
3.9836
3.87639
3.76045
3.71222
3.7073
3.69195
3.69254
3.70068
3.71559
3.73005
3.7433
3.76252
1.29239
1.75416
2.34386
2.97389
3.62941
4.32573
4.80253
5.30279
5.37808
5.17695
4.70552
4.20244
3.81281
3.66073
3.56595
3.57469
3.6174
3.66322
3.69418
3.70281
3.71346
3.73002
3.75465
3.77378
2.66005
1.70243
1.15262
0.846955
0.650783
0.632707
0.682103
0.785344
0.814008
0.847527
0.906176
0.944645
0.958853
0.984615
1.0423
1.07313
1.07289
1.06311
1.04682
1.04619
1.04246
1.03714
1.04797
1.12844
1.62188
2.9225
4.64565
6.80667
8.76991
9.18833
8.5667
7.58936
6.90256
6.58779
6.36893
6.13519
5.87023
5.62718
5.42561
5.22585
5.01763
4.80904
4.61128
4.43953
4.30135
4.18375
4.06568
3.93315
3.79063
3.65242
3.52206
3.40055
3.2911
3.18863
3.08739
2.98397
2.89298
2.82262
2.76578
2.71424
2.65856
2.59345
2.50488
2.37965
2.26635
2.19575
2.15682
2.12834
2.09456
2.07555
2.05594
2.09577
2.29594
2.72244
3.31566
3.96659
4.48781
4.97648
5.27865
5.3517
5.30587
5.19486
4.9889
4.74943
4.4554
4.22767
4.16943
4.13538
4.136
4.16972
4.14981
4.10852
4.0544
3.93338
3.73157
3.58373
3.37189
2.73694
2.16647
1.81365
1.47009
1.17988
1.13143
1.09191
1.01339
0.957812
0.925435
0.904989
0.905043
0.917183
0.953092
0.987823
1.004
1.00758
1.00668
1.01561
1.0167
1.02546
1.1045
1.59085
2.67965
3.08214
3.53411
4.30308
5.59659
6.68767
7.45355
7.41617
7.09725
6.74059
6.43598
6.15717
5.90585
5.70769
5.51872
5.30912
5.07582
4.85751
4.67766
4.52727
4.38445
4.25634
4.13464
3.99528
3.83697
3.68437
3.55331
3.44581
3.35391
3.26361
3.15985
3.04888
2.94731
2.87038
2.80861
2.75337
2.69657
2.63069
2.54104
2.41948
2.31324
2.24543
2.2
2.1724
2.13171
2.14163
2.21332
2.43521
2.82723
3.12556
3.34771
3.63059
3.91857
4.19342
4.54771
4.85455
5.03854
5.038
4.92594
4.74315
4.50095
4.2866
4.20627
4.16469
4.15606
4.19561
4.17926
4.13593
4.07953
3.96576
3.77402
3.61582
3.65884
3.35358
2.84626
2.37312
2.02608
1.66157
1.36782
1.24502
1.14061
1.00892
0.938368
0.930417
0.918815
0.917827
0.923545
0.937678
0.964657
0.97874
0.985018
0.996503
1.02181
1.16102
1.72356
2.64583
3.32472
3.35557
3.33119
3.34669
3.59106
4.59018
6.13867
7.10656
7.21906
6.96864
6.47182
6.08441
5.84383
5.63815
5.43328
5.21855
5.01344
4.8315
4.66405
4.4873
4.30112
4.12423
3.99122
3.88024
3.75622
3.63387
3.53639
3.45185
3.35747
3.23685
3.1049
2.97732
2.86927
2.79227
2.73339
2.67639
2.61638
2.5551
2.48539
2.408
2.32492
2.23287
2.16966
2.15761
2.17099
2.2858
2.59974
3.01909
3.3239
3.40907
3.40547
3.38047
3.4222
3.5791
3.99052
4.42571
4.75207
4.90877
4.89951
4.7929
4.55729
4.34332
4.25225
4.20882
4.17817
4.15226
4.1123
4.0741
4.02309
3.91904
3.7512
3.59754
3.73986
3.63084
3.33981
2.8872
2.52802
2.19714
1.76569
1.53756
1.45245
1.29856
1.11887
1.08153
1.06604
1.01191
0.949573
0.948109
0.952774
0.946481
0.949392
0.965265
1.12986
1.81144
2.74184
3.26181
3.32743
3.30305
3.22068
3.08678
2.97923
3.07943
3.7085
5.13426
6.45219
6.51863
6.42841
6.16269
5.89044
5.61394
5.3549
5.15449
4.98733
4.82807
4.6673
4.49021
4.29353
4.08988
3.90831
3.80739
3.73542
3.65994
3.58412
3.50367
3.39154
3.25341
3.10472
2.95697
2.84588
2.76969
2.71299
2.6562
2.59096
2.52337
2.46216
2.40727
2.34626
2.26644
2.20251
2.23825
2.42117
2.82794
3.24308
3.51723
3.5692
3.55047
3.48466
3.39456
3.2916
3.26295
3.35813
3.6421
4.01777
4.4067
4.62822
4.63928
4.57544
4.46626
4.37582
4.29283
4.21856
4.15562
4.1084
4.067
4.00615
3.88573
3.7295
3.59794
3.74698
3.72584
3.59874
3.3098
2.92926
2.62831
2.28741
1.86794
1.68995
1.59201
1.43146
1.23286
1.18055
1.11969
1.0172
0.968069
0.964959
0.951942
0.967376
1.16841
1.94842
2.8099
3.21911
3.28902
3.22701
3.10969
2.99972
2.87856
2.80895
2.75293
2.77912
3.09332
4.20608
5.46362
6.15803
6.12385
5.84301
5.47729
5.20073
5.03964
4.92592
4.83087
4.71958
4.5581
4.35263
4.11125
3.87133
3.72962
3.63884
3.55902
3.49054
3.42496
3.36179
3.27634
3.14006
2.99001
2.85106
2.73326
2.66393
2.62191
2.58634
2.53861
2.48808
2.43271
2.3966
2.37114
2.44351
2.7158
3.0977
3.47876
3.65829
3.67462
3.62871
3.54683
3.46331
3.36608
3.26959
3.21493
3.14213
3.16407
3.31563
3.65131
4.10847
4.36985
4.49683
4.52535
4.48616
4.36734
4.22695
4.13149
4.06763
4.01103
3.93629
3.82289
3.72531
3.62708
3.72768
3.72334
3.69155
3.55739
3.2869
2.94142
2.6598
2.35356
2.01984
1.83355
1.69364
1.51545
1.39842
1.31537
1.1876
1.07911
1.06331
1.10321
1.39252
2.21617
3.10624
3.36576
3.32912
3.22754
3.08726
2.96001
2.85223
2.74862
2.68585
2.63644
2.57692
2.51751
2.64248
3.30265
4.51729
5.53021
5.52829
5.39716
5.24665
5.07905
4.92872
4.78189
4.63993
4.49827
4.33936
4.11017
3.84321
3.69081
3.60605
3.53224
3.46549
3.40117
3.32221
3.22278
3.11296
2.98043
2.8159
2.70583
2.64055
2.58117
2.52396
2.4724
2.45778
2.46125
2.52327
2.71387
3.11927
3.48558
3.69039
3.79524
3.80586
3.74383
3.64439
3.54981
3.46941
3.40568
3.33577
3.23815
3.13244
3.05939
3.05747
3.13392
3.39362
3.81708
4.17025
4.37412
4.40563
4.39018
4.29592
4.16591
4.04981
3.952
3.85784
3.77622
3.74247
3.66936
3.72417
3.72829
3.70992
3.66918
3.52662
3.27833
2.96767
2.66023
2.38295
2.17344
1.98474
1.74356
1.57799
1.5042
1.41509
1.2675
1.29417
1.69204
2.68636
3.54071
3.67359
3.54006
3.339
3.1681
3.03435
2.91321
2.7972
2.69524
2.62374
2.56823
2.48873
2.4238
2.32971
2.34543
2.62505
3.52325
4.62545
5.06996
5.19593
5.08725
4.88575
4.72423
4.59468
4.47495
4.32519
4.10567
3.86673
3.68982
3.57773
3.49668
3.42228
3.34855
3.27326
3.20301
3.12363
2.99458
2.80668
2.67371
2.60841
2.55888
2.51384
2.49298
2.51332
2.67765
3.06584
3.56196
3.90577
3.89836
3.87794
3.85451
3.79297
3.7181
3.64378
3.5727
3.49214
3.40742
3.32147
3.22515
3.12204
3.04918
3.01789
3.00251
3.03585
3.22288
3.58459
3.94812
4.21922
4.33439
4.30514
4.19396
4.03869
3.9215
3.84527
3.79284
3.74696
3.66282
3.73308
3.73389
3.72872
3.71048
3.65319
3.50204
3.27224
3.00951
2.67128
2.4293
2.27634
2.09862
1.8176
1.66261
1.60186
1.71313
2.30298
3.43284
4.1792
4.15012
3.9413
3.68272
3.44884
3.25716
3.09428
2.95101
2.81307
2.6986
2.60944
2.53596
2.44525
2.36981
2.27918
2.20692
2.13788
2.22471
2.75976
3.72504
4.56891
4.74248
4.74328
4.64083
4.5027
4.36693
4.22828
4.0693
3.87927
3.69674
3.55359
3.45189
3.37808
3.30743
3.23416
3.15514
3.06472
2.94978
2.79756
2.66922
2.59636
2.56868
2.55647
2.61344
2.91954
3.46611
3.98631
4.20731
4.18192
4.07282
3.95414
3.85832
3.77967
3.71123
3.65511
3.59513
3.51784
3.42779
3.32971
3.22374
3.13059
3.05954
3.01565
2.98004
2.96682
2.97748
3.0742
3.30441
3.61033
3.93233
4.09237
4.07136
3.98168
3.92235
3.86992
3.82276
3.77476
3.68628
3.7305
3.7232
3.721
3.71717
3.70676
3.63582
3.47926
3.2679
3.0334
2.73432
2.48103
2.31509
2.10935
1.99208
2.22795
3.1153
4.34342
4.81778
4.70758
4.41107
4.1092
3.86593
3.64763
3.43799
3.23639
3.05177
2.88409
2.74515
2.63974
2.54113
2.44109
2.35339
2.2637
2.16411
2.08492
2.00763
2.01446
2.2341
2.92573
3.91627
4.41737
4.50549
4.4337
4.27299
4.11686
3.96583
3.83328
3.69319
3.5454
3.40711
3.32382
3.25898
3.18806
3.10655
3.01701
2.91123
2.7922
2.68581
2.6152
2.6212
2.78209
3.21339
3.87138
4.30158
4.36305
4.32918
4.20074
4.07155
3.97535
3.88464
3.80394
3.73786
3.67929
3.61309
3.53451
3.44165
3.33237
3.21644
3.13464
3.07896
3.03264
2.99323
2.95485
2.93681
2.91241
2.93558
3.02837
3.25568
3.58938
3.80865
3.86974
3.91471
3.89816
3.86076
3.82092
3.72379
3.73329
3.71635
3.70699
3.70118
3.70186
3.68541
3.60994
3.4546
3.2558
2.99642
2.75921
2.4925
2.52846
3.04243
4.28398
5.43135
5.60851
5.39361
5.01408
4.65114
4.34192
4.08129
3.84513
3.61868
3.40268
3.19581
2.99819
2.82265
2.68672
2.55904
2.43968
2.34494
2.27061
2.18103
2.09145
1.9961
1.93378
1.86832
1.92936
2.3582
3.16862
3.92396
4.18802
4.17043
4.06813
3.94235
3.81316
3.68012
3.53685
3.38806
3.27947
3.20998
3.13602
3.0483
2.96538
2.87502
2.80277
2.7129
2.75546
3.03949
3.61576
4.20233
4.58735
4.6192
4.55602
4.38687
4.19427
4.06226
3.96163
3.88316
3.81678
3.75805
3.69802
3.62927
3.54939
3.453
3.33868
3.22699
3.14636
3.09266
3.04903
3.00884
2.96529
2.92687
2.88486
2.85035
2.80535
2.83424
2.99232
3.313
3.57353
3.75288
3.87632
3.89029
3.86232
3.7652
3.78594
3.80527
3.77338
3.73732
3.72208
3.71583
3.68364
3.60322
3.43217
3.23203
2.99782
3.1828
4.22788
5.7335
6.41672
6.33568
5.99023
5.58813
5.2114
4.87382
4.56913
4.28573
4.02149
3.77697
3.55505
3.34352
3.13833
2.94882
2.78541
2.62588
2.47334
2.34724
2.24563
2.16296
2.09405
2.02258
1.93067
1.84598
1.76263
1.75955
1.94413
2.51822
3.29721
3.79996
3.94644
3.92493
3.82789
3.69357
3.53748
3.37829
3.24454
3.15169
3.07182
2.98663
2.92116
2.86782
2.87559
3.01988
3.48579
4.12901
4.5421
4.68511
4.6879
4.62903
4.52258
4.39096
4.24016
4.09691
3.97502
3.88233
3.80751
3.75007
3.70021
3.64177
3.56669
3.47176
3.35985
3.2519
3.16385
3.10032
3.05623
3.01988
2.98
2.93492
2.88288
2.82663
2.78065
2.72822
2.72484
2.83431
3.1087
3.41632
3.70004
3.83166
3.84534
3.7888
3.55898
3.71896
3.70198
3.70488
3.72854
3.73641
3.72768
3.68602
3.54834
3.55891
4.13622
5.70237
7.27077
7.67137
7.42971
6.82399
6.2561
5.79443
5.40425
5.05305
4.73212
4.44044
4.17338
3.92687
3.69861
3.47683
3.25716
3.04579
2.85239
2.68007
2.53796
2.41833
2.30173
2.19591
2.09397
1.99704
1.91692
1.84412
1.74909
1.6927
1.66581
1.71681
2.05691
2.77293
3.38025
3.66613
3.67773
3.60185
3.49302
3.36345
3.20453
3.06761
3.00511
2.96596
2.94368
3.04671
3.4281
4.0687
4.6442
4.99679
4.98508
4.89209
4.711
4.56133
4.46191
4.37327
4.27
4.13919
4.00066
3.89272
3.80803
3.73782
3.68301
3.62916
3.56598
3.48671
3.39169
3.29657
3.20948
3.13345
3.07125
3.01934
2.97128
2.92004
2.8702
2.81897
2.76984
2.72699
2.66928
2.64451
2.71735
2.9292
3.24297
3.55452
3.71553
3.69848
2.5363
3.26066
3.71077
3.80413
3.78801
3.74106
3.69199
3.70211
4.00238
5.38723
7.53296
8.43721
8.40784
8.15444
7.69499
7.1377
6.56487
6.0464
5.59798
5.20249
4.84818
4.54127
4.27834
4.03768
3.80342
3.57014
3.3396
3.11957
2.91172
2.71712
2.56528
2.46644
2.375
2.26898
2.15869
2.05336
1.94706
1.83764
1.7611
1.70126
1.6333
1.57376
1.58614
1.76653
2.27834
2.93889
3.38883
3.47253
3.43402
3.33267
3.1562
3.02786
2.99627
3.04515
3.31546
3.92525
4.68069
5.09317
5.09334
5.05683
4.98657
4.87079
4.72415
4.56068
4.43852
4.35422
4.26873
4.16172
4.03499
3.90948
3.80826
3.7332
3.67213
3.6133
3.54957
3.47869
3.40336
3.32705
3.24676
3.16506
3.09204
3.02837
2.97117
2.91283
2.85475
2.80165
2.75664
2.71866
2.67682
2.6115
2.58089
2.61169
2.75984
3.02127
3.36112
3.52376
1.39298
2.16262
3.28117
3.66144
3.65509
3.6858
3.84362
4.64121
6.58912
8.79239
9.85068
9.73736
9.04031
8.32101
7.83226
7.37114
6.85104
6.30724
5.80199
5.36331
4.97727
4.62228
4.31705
4.07086
3.86028
3.65051
3.42518
3.19149
2.97084
2.79224
2.65321
2.51138
2.36027
2.2323
2.14846
2.07924
1.99321
1.88936
1.78167
1.66761
1.5753
1.51259
1.49471
1.48255
1.55963
1.88009
2.49886
3.01238
3.24142
3.2177
3.12344
3.1168
3.31474
3.80315
4.49934
5.18343
5.54941
5.52632
5.33623
5.08606
4.91685
4.81423
4.70788
4.58079
4.45107
4.34555
4.25937
4.17263
4.0756
3.95096
3.8157
3.72166
3.65624
3.59364
3.53056
3.47065
3.4151
3.35931
3.28581
3.18768
3.08992
3.01294
2.9529
2.89987
2.85347
2.8128
2.77176
2.72743
2.67415
2.60431
2.54532
2.5102
2.52124
2.59768
2.78557
3.14337
1.02798
1.20914
2.05613
2.92335
3.54905
4.56811
5.69469
7.83815
9.26138
9.76564
9.88418
9.75148
9.31183
8.67715
8.09626
7.55661
7.01046
6.46746
5.96983
5.53829
5.14924
4.76523
4.41156
4.11535
3.85788
3.62966
3.42084
3.24258
3.06693
2.89484
2.72608
2.54834
2.39938
2.28252
2.17566
2.06894
1.96243
1.86038
1.76815
1.67493
1.58353
1.52719
1.48648
1.4549
1.42719
1.44191
1.6124
2.06174
2.62559
3.02622
3.2552
3.76125
4.54847
5.15572
5.50722
5.61185
5.58495
5.51424
5.35056
5.14814
4.96142
4.80855
4.68863
4.60923
4.51533
4.40821
4.30543
4.2039
4.10026
3.98927
3.85948
3.7393
3.66092
3.59398
3.52699
3.46799
3.4248
3.38616
3.33262
3.23989
3.11879
3.0287
2.97321
2.93309
2.89903
2.86569
2.82694
2.78017
2.71652
2.63588
2.54425
2.48204
2.44069
2.43392
2.46439
2.71329
1.00043
1.0084
1.19781
1.84893
3.74959
6.29669
7.97249
9.95467
10.9306
10.3948
9.95767
9.70961
9.44188
9.00868
8.32842
7.6177
7.01618
6.50277
6.04903
5.60815
5.1962
4.89678
4.61229
4.29106
3.98617
3.72817
3.49599
3.28347
3.07817
2.86028
2.7086
2.63072
2.53048
2.40202
2.2513
2.11953
2.00967
1.8993
1.77605
1.69003
1.64138
1.58852
1.53683
1.48877
1.41777
1.36565
1.36904
1.44424
1.78122
2.78109
3.81932
4.79717
5.64469
6.0833
6.06555
5.9232
5.6299
5.39474
5.25133
5.1403
5.00527
4.83446
4.68345
4.56371
4.45591
4.34927
4.27418
4.21323
4.13614
4.01713
3.83949
3.68151
3.6124
3.57644
3.55498
3.52647
3.48841
3.43991
3.35934
3.22153
3.07317
2.98353
2.93435
2.89688
2.86249
2.83005
2.79362
2.75077
2.71009
2.66475
2.5836
2.48871
2.41703
2.38397
2.3865
2.47795
1.00042
1.02128
1.16986
2.04894
3.6094
5.80172
8.4306
9.93132
10.8919
10.6517
10.0997
9.6683
9.30177
8.77747
8.11348
7.45106
6.94245
6.5702
6.19305
5.75821
5.31302
4.88473
4.50032
4.17585
3.87351
3.64702
3.52344
3.376
3.17388
2.95326
2.74907
2.5701
2.42533
2.29936
2.1724
2.05576
2.00143
1.94951
1.85115
1.73132
1.61411
1.53358
1.4699
1.42532
1.38388
1.34589
1.35616
1.45184
1.88053
2.69533
3.94097
5.00344
5.56877
6.06292
6.08223
5.84046
5.4967
5.30831
5.21811
5.14086
5.02284
4.86881
4.71218
4.56613
4.43936
4.34832
4.2745
4.18726
4.09253
3.98191
3.82428
3.68245
3.61833
3.58039
3.54429
3.50325
3.4667
3.42557
3.35196
3.2182
3.06732
2.97943
2.93385
2.89764
2.86315
2.82951
2.79269
2.75253
2.70398
2.63235
2.54858
2.46924
2.40636
2.38183
2.38431
2.50641
1.02302
1.29832
2.02283
3.13709
3.41073
4.12662
6.02397
7.77308
9.50736
10.0523
10.041
9.7528
9.21222
8.51118
7.91752
7.419
6.93573
6.43944
5.9659
5.54849
5.18315
4.82284
4.47978
4.17415
3.91199
3.67099
3.42422
3.20254
3.01236
2.84123
2.68254
2.52897
2.38657
2.25301
2.14852
2.07487
1.98112
1.86914
1.78712
1.70063
1.61218
1.53793
1.46797
1.42509
1.3995
1.41914
1.57368
1.99278
2.65149
2.8904
3.33804
4.01826
4.52178
5.21586
5.48069
5.51206
5.50193
5.43514
5.31671
5.1817
5.00781
4.87265
4.74552
4.60988
4.48377
4.37183
4.26643
4.17103
4.08433
3.98637
3.85906
3.74633
3.67447
3.61897
3.56843
3.52424
3.48765
3.44607
3.3717
3.24332
3.09756
3.01429
2.97131
2.93598
2.90038
2.86376
2.82161
2.76681
2.69737
2.61798
2.53965
2.46614
2.41739
2.42221
2.47114
2.77541
1.38482
2.32141
3.1595
3.66432
3.68243
3.69171
3.91575
4.67225
6.53388
8.82093
9.91018
9.69887
8.91123
8.1843
7.71196
7.30503
6.84525
6.34246
5.86807
5.44424
5.05297
4.69332
4.37224
4.08457
3.82711
3.58607
3.34589
3.12755
2.94583
2.79705
2.66737
2.53664
2.38765
2.25239
2.15551
2.06117
1.94284
1.81886
1.76301
1.72416
1.67496
1.6029
1.53348
1.49921
1.56506
1.8938
2.41013
2.94715
3.24057
3.21288
3.18426
3.20162
3.33873
3.77233
4.49652
5.11234
5.45323
5.49583
5.38109
5.15307
4.95337
4.84098
4.7286
4.5824
4.44809
4.34424
4.25204
4.16648
4.06995
3.94851
3.8153
3.71212
3.63974
3.5833
3.53533
3.4897
3.44261
3.38811
3.31681
3.20919
3.07359
2.97304
2.9267
2.8935
2.85913
2.82209
2.79347
2.76399
2.71817
2.64221
2.54102
2.48544
2.48783
2.5711
2.78504
3.21728
2.64973
3.37689
3.59728
3.75667
3.77097
3.71568
3.69608
3.71425
3.98731
5.33603
7.6044
8.44167
8.31613
8.06297
7.62239
7.14949
6.63881
6.14681
5.6938
5.27665
4.89659
4.55674
4.25631
3.98749
3.7369
3.49771
3.28022
3.09327
2.92364
2.75747
2.60129
2.48293
2.39597
2.29289
2.15682
2.01096
1.88662
1.80678
1.7466
1.67478
1.62648
1.58744
1.61047
1.79307
2.33598
2.95712
3.30373
3.44563
3.41931
3.34752
3.21626
3.11155
3.01456
3.03604
3.28343
3.88139
4.56457
5.09399
5.16228
5.11377
5.02403
4.88383
4.71003
4.53169
4.40881
4.33155
4.25712
4.17385
4.06789
3.94121
3.81816
3.72455
3.6541
3.59583
3.54213
3.4873
3.42805
3.36215
3.28783
3.20062
3.09056
2.97429
2.9168
2.88301
2.85129
2.81792
2.78277
2.73969
2.69218
2.63822
2.56224
2.57487
2.70736
2.96396
3.29669
3.56115
3.67187
3.72204
3.66158
3.64883
3.67317
3.70227
3.71123
3.67222
3.55316
3.57416
4.19319
5.7254
7.22975
7.66887
7.45003
6.88019
6.32391
5.86545
5.46407
5.08944
4.73859
4.41454
4.11954
3.85311
3.6143
3.40105
3.21029
3.03632
2.88219
2.74548
2.61469
2.48323
2.34004
2.19858
2.07533
1.98303
1.90129
1.81185
1.73289
1.68891
1.65898
1.73196
2.12222
2.83723
3.5079
3.64041
3.65503
3.59352
3.47093
3.36007
3.24952
3.13043
3.01633
2.95494
2.92886
3.00969
3.37803
4.05025
4.72964
5.05977
5.04128
4.89774
4.66357
4.47683
4.3902
4.32784
4.25702
4.17185
4.06478
3.94524
3.82634
3.72505
3.65196
3.59222
3.5353
3.47692
3.41275
3.34109
3.26556
3.18492
3.08963
2.98835
2.91704
2.87052
2.83304
2.79535
2.7642
2.73518
2.71129
2.69318
2.72573
2.88142
3.15221
3.40066
3.60643
3.68116
3.82416
3.8198
3.77493
3.71726
3.70396
3.70702
3.68555
3.60836
3.43712
3.23121
3.00536
3.1946
4.22807
5.72211
6.47302
6.39122
6.02919
5.62554
5.24685
4.88847
4.54931
4.23337
3.94967
3.70115
3.48831
3.30197
3.13752
2.98514
2.83857
2.68664
2.53372
2.39131
2.26964
2.16885
2.07821
1.9811
1.88468
1.81482
1.74827
1.75861
1.97031
2.61172
3.38854
3.87023
3.96115
3.9134
3.79492
3.65589
3.53059
3.40338
3.28378
3.18181
3.10036
2.98937
2.89544
2.83563
2.85279
3.02509
3.53669
4.24398
4.66894
4.6697
4.5946
4.53067
4.44877
4.34482
4.24059
4.14864
4.05291
3.95052
3.83988
3.72915
3.63997
3.57104
3.50912
3.44748
3.38226
3.31372
3.24601
3.17641
3.09545
3.00305
2.91099
2.84373
2.80263
2.77435
2.76294
2.76474
2.81753
2.94016
3.16021
3.4296
3.56729
3.62754
3.69085
3.66306
3.7551
3.74127
3.71737
3.69985
3.69166
3.67916
3.60933
3.45803
3.25685
2.99257
2.76012
2.49639
2.53359
3.05191
4.31326
5.45408
5.59032
5.38078
5.0033
4.63193
4.30822
4.03564
3.80224
3.59214
3.39652
3.208
3.03644
2.88573
2.74743
2.61224
2.48312
2.3587
2.26001
2.15113
2.04963
1.95935
1.88917
1.84335
1.92328
2.37711
3.28262
4.02842
4.20186
4.14688
4.00746
3.8829
3.77508
3.67821
3.58254
3.46964
3.3605
3.24579
3.11295
2.98639
2.88962
2.82016
2.78021
2.75035
2.8156
3.14598
3.70119
4.25317
4.50732
4.52377
4.44875
4.32038
4.22064
4.14321
4.06384
3.97341
3.86441
3.73445
3.60543
3.52059
3.46351
3.40933
3.35203
3.29342
3.23664
3.17984
3.11335
3.01915
2.89792
2.81806
2.78531
2.78504
2.80128
2.91778
3.18373
3.50439
3.75114
3.85373
3.81774
3.7188
3.66901
3.62414
3.74094
3.73372
3.72277
3.71457
3.70242
3.63361
3.47759
3.26487
3.02916
2.72743
2.48301
2.32151
2.11203
1.99398
2.23204
3.10776
4.30277
4.79472
4.68114
4.38024
4.07892
3.83281
3.62453
3.43571
3.25204
3.07471
2.91747
2.80253
2.69601
2.59187
2.47126
2.33132
2.22248
2.12694
2.0433
1.96825
1.97971
2.25336
3.00904
4.01811
4.59594
4.55241
4.40968
4.19784
4.02219
3.89371
3.79475
3.71045
3.63154
3.53874
3.43177
3.2978
3.14529
3.00264
2.90243
2.8277
2.76914
2.72044
2.69172
2.70697
2.84893
3.25119
3.80471
4.16961
4.20904
4.22564
4.22457
4.16991
4.0904
3.99761
3.87998
3.73679
3.58365
3.47791
3.42425
3.37921
3.33207
3.28447
3.23584
3.18256
3.12046
3.0309
2.89763
2.82291
2.8161
2.84181
3.00896
3.37118
3.75286
4.01908
4.07546
4.05551
3.92961
3.74771
3.66285
3.5896
3.74035
3.73637
3.72779
3.70755
3.65236
3.5022
3.27118
3.00708
2.66754
2.42892
2.27597
2.09772
1.81522
1.66816
1.6052
1.70917
2.27308
3.40838
4.16924
4.13353
3.92123
3.66724
3.44402
3.27024
3.11913
2.98124
2.85048
2.75402
2.65179
2.55172
2.44019
2.32676
2.21995
2.14625
2.08696
2.18817
2.71768
3.84701
4.73074
4.94739
4.87363
4.64108
4.40851
4.21503
4.06334
3.94199
3.84519
3.7596
3.67568
3.58411
3.47629
3.33245
3.16404
3.02108
2.92653
2.85024
2.78461
2.73152
2.67726
2.65029
2.61994
2.66514
2.8596
3.30795
3.75677
4.03069
4.17665
4.1872
4.12914
4.02519
3.89795
3.75943
3.59399
3.45507
3.38779
3.34512
3.30742
3.2746
3.2418
3.19667
3.1365
3.05028
2.91797
2.87842
2.93003
3.13921
3.52136
3.91784
4.13501
4.16584
4.14535
4.05743
3.91645
3.77153
3.68092
3.58339
3.72129
3.72588
3.70796
3.66932
3.52742
3.27833
2.96631
2.66039
2.38269
2.17222
1.98056
1.74047
1.58183
1.50893
1.4149
1.26559
1.29076
1.68536
2.70769
3.52533
3.6645
3.55531
3.36105
3.19014
3.05315
2.92648
2.80659
2.7237
2.65562
2.56702
2.46303
2.36338
2.26096
2.27501
2.58106
3.5025
4.60969
5.33885
5.35241
5.1779
4.86207
4.59254
4.39401
4.24109
4.11679
3.99166
3.8869
3.80407
3.72004
3.61646
3.49987
3.35303
3.17618
3.03555
2.9495
2.88471
2.81806
2.7566
2.70329
2.65333
2.59863
2.53192
2.4895
2.56918
2.89851
3.37844
3.80544
3.98822
4.0156
3.98415
3.90787
3.7844
3.60423
3.4444
3.36931
3.32247
3.27978
3.2385
3.19686
3.15562
3.12749
3.06793
3.04717
3.14354
3.40525
3.7623
4.05107
4.22869
4.26323
4.21384
4.12122
4.01048
3.91458
3.82818
3.73813
3.59665
3.72812
3.72278
3.69152
3.55786
3.2866
2.94201
2.66101
2.35312
2.01792
1.83191
1.69244
1.51654
1.40049
1.31497
1.18289
1.0795
1.0664
1.10737
1.4063
2.24672
3.05504
3.39665
3.36757
3.2485
3.0953
2.95695
2.8351
2.74505
2.69934
2.63004
2.54759
2.4735
2.5852
3.20417
4.50177
5.43862
5.65702
5.59143
5.38368
5.11185
4.84603
4.64066
4.46666
4.31754
4.18502
4.059
3.93572
3.82727
3.74792
3.67557
3.55966
3.39396
3.1942
3.03767
2.95717
2.91419
2.86989
2.81362
2.75204
2.68661
2.60635
2.50176
2.42541
2.36625
2.3958
2.60572
3.06901
3.537
3.82965
3.90623
3.89345
3.81038
3.62576
3.44742
3.35559
3.29673
3.24299
3.20604
3.17273
3.16246
3.17052
3.25462
3.46291
3.80843
4.10618
4.29429
4.3046
4.27701
4.21974
4.15254
4.08012
4.01809
3.95893
3.88629
3.79157
3.61034
3.74673
3.72581
3.59885
3.30985
2.92993
2.62941
2.28651
1.8655
1.68987
1.5925
1.43052
1.23331
1.18057
1.11773
1.01448
0.96879
0.966259
0.953558
0.969809
1.1858
1.93067
2.80078
3.31957
3.30913
3.2199
3.0833
2.94663
2.83942
2.80873
2.75053
2.77268
3.09134
4.16624
5.42433
6.19925
6.17926
5.99869
5.62669
5.30166
5.032
4.86601
4.72069
4.5543
4.38479
4.2345
4.09959
3.99159
3.91035
3.79407
3.64017
3.49061
3.35602
3.22843
3.1088
2.99881
2.92342
2.88347
2.86375
2.82358
2.75192
2.6462
2.52189
2.42028
2.35189
2.31135
2.30572
2.42886
2.77727
3.22647
3.58968
3.72032
3.70067
3.61054
3.47373
3.36612
3.27987
3.22007
3.20765
3.20506
3.25788
3.46838
3.80899
4.17909
4.45301
4.56181
4.54329
4.44214
4.2797
4.15942
4.09355
4.04006
3.98401
3.93119
3.88426
3.81852
3.64004
3.73985
3.63108
3.33973
2.88723
2.52916
2.19714
1.76318
1.53595
1.4526
1.29995
1.11854
1.08197
1.06649
1.01093
0.949166
0.948263
0.953586
0.947728
0.950486
0.966663
1.14083
1.75677
2.81003
3.3065
3.30651
3.26296
3.16119
3.04428
2.96397
3.06535
3.69622
5.18642
6.47161
6.56693
6.47319
6.22401
5.91583
5.60122
5.31498
5.07198
4.9117
4.78285
4.65204
4.51617
4.37616
4.23217
4.07854
3.90609
3.74377
3.59601
3.46433
3.35028
3.25893
3.17509
3.08969
3.01552
2.94525
2.86367
2.77891
2.68787
2.58893
2.49718
2.42319
2.36707
2.31498
2.25933
2.24745
2.30377
2.53278
2.91815
3.31021
3.48919
3.52676
3.49644
3.40046
3.31124
3.2514
3.26303
3.36996
3.6756
4.1112
4.47902
4.63758
4.66316
4.64404
4.57459
4.44205
4.2793
4.14856
4.07109
4.03628
4.00234
3.95613
3.88803
3.80023
3.65483
3.65917
3.35379
2.84607
2.3737
2.02671
1.65989
1.36606
1.24437
1.14141
1.00905
0.937001
0.931175
0.920102
0.918541
0.92371
0.937318
0.965051
0.979508
0.985549
0.997069
1.02333
1.14979
1.72173
2.72687
3.31349
3.32752
3.30763
3.32548
3.55688
4.56048
6.17998
7.20095
7.25865
6.98919
6.44846
6.06248
5.80936
5.59612
5.37267
5.16196
5.00148
4.84369
4.67287
4.49723
4.3319
4.18427
4.03999
3.88506
3.72698
3.58911
3.47906
3.39275
3.31748
3.23825
3.14117
3.0189
2.90542
2.82374
2.74979
2.66749
2.5846
2.51717
2.45951
2.40462
2.35006
2.28259
2.22466
2.15526
2.15799
2.25461
2.54824
2.93404
3.28977
3.41223
3.39791
3.38481
3.45289
3.62457
3.93745
4.3784
4.67816
4.83459
4.83844
4.79441
4.67147
4.52722
4.39694
4.27961
4.18331
4.08065
4.0018
3.9575
3.91645
3.8572
3.78258
3.67603
3.37213
2.73756
2.1665
1.81291
1.46971
1.17909
1.13151
1.09295
1.01425
0.957173
0.924205
0.904908
0.905553
0.918261
0.953821
0.987753
1.00292
1.00648
1.006
1.01588
1.01726
1.02605
1.10691
1.65016
2.66663
3.06285
3.54748
4.28905
5.54008
6.72054
7.5671
7.49262
7.12856
6.7266
6.37748
6.04215
5.8101
5.6667
5.50949
5.34266
5.16569
4.96601
4.75635
4.55785
4.37362
4.19825
4.03887
3.89754
3.77067
3.66757
3.58756
3.51327
3.43737
3.34893
3.23127
3.07906
2.92267
2.8047
2.73369
2.68169
2.63319
2.59129
2.5476
2.49877
2.44248
2.36424
2.25376
2.1381
2.05076
2.05169
2.11112
2.32461
2.70551
3.14598
3.40766
3.73406
4.1552
4.40668
4.59223
4.74481
4.86604
4.87919
4.82131
4.72204
4.6057
4.48481
4.38832
4.32011
4.23574
4.12134
4.01051
3.93007
3.87519
3.84002
3.81624
3.74484
2.6602
1.70249
1.1518
0.847571
0.651286
0.633164
0.681933
0.786489
0.814847
0.847686
0.90377
0.94174
0.958269
0.987221
1.04611
1.07257
1.0719