/*--------------------------------*- C++ -*----------------------------------*\
  =========                 |
  \\      /  F ield         | OpenFOAM: The Open Source CFD Toolbox
   \\    /   O peration     | Website:  https://openfoam.org
    \\  /    A nd           | Version:  7
     \\/     M anipulation  |
\*---------------------------------------------------------------------------*/
FoamFile
{
    version     2.0;
    format      ascii;
    class       volScalarField;
    location    "2.6";
    object      rho;
}
// * * * * * * * * * * * * * * * * * * * * * * * * * * * * * * * * * * * * * //

dimensions      [1 -3 0 0 0 0 0];

internalField   nonuniform List<scalar> 
4608
(
1.40001
1.40001
1.40001
1.40001
1.40001
1.40001
1.40001
1.40001
1.40001
1.40001
1.40001
1.40001
1.40001
1.40001
1.40001
1.40001
1.40001
1.40001
1.40001
1.40001
1.40001
1.40001
1.40001
1.40001
1.40001
1.40001
1.40001
1.40001
1.40001
1.40001
1.40001
1.40001
1.40001
1.40001
1.40001
1.40001
1.40001
1.40001
1.40001
1.40001
1.40001
1.40001
1.40001
1.40001
1.40001
1.40001
1.40001
1.40001
1.40001
1.40001
1.40001
1.40001
1.40001
1.40001
1.40001
1.40001
1.40001
1.40001
1.40001
1.40001
1.40001
1.40001
1.40001
1.40001
1.40001
1.40001
1.40001
1.40001
1.40001
1.40001
1.40001
1.40001
1.40001
1.40001
1.40001
1.40001
1.40001
1.40001
1.40001
1.40001
1.40001
1.40001
1.40001
1.40001
1.40001
1.40001
1.40001
1.40001
1.40001
1.40001
1.40001
1.40001
1.40001
1.40001
1.40001
1.40001
1.40001
1.40001
1.40001
1.40001
1.40001
1.40001
1.40001
1.40001
1.40001
1.40001
1.40001
1.40001
1.40001
1.40001
1.40001
1.40001
1.40001
1.40001
1.40001
1.40001
1.40001
1.40001
1.40001
1.40001
1.40001
1.40001
1.40001
1.40001
1.40001
1.40001
1.40001
1.40001
1.40001
1.40001
1.40001
1.40001
1.40001
1.40001
1.40001
1.40001
1.40001
1.40001
1.40001
1.40001
1.40001
1.40001
1.40001
1.40001
1.40001
1.40001
1.40001
1.40001
1.40001
1.40001
1.40001
1.40001
1.40001
1.40001
1.40001
1.40001
1.40001
1.40001
1.40001
1.40001
1.40001
1.40001
1.40001
1.40001
1.40001
1.40001
1.40001
1.40001
1.40001
1.40001
1.40001
1.40001
1.40001
1.40001
1.40001
1.40001
1.40001
1.40001
1.40001
1.40001
1.40001
1.40001
1.40001
1.40001
1.40001
1.40001
1.40001
1.40001
1.40001
1.40001
1.40001
1.40001
1.40001
1.40001
1.40001
1.40001
1.40001
1.40001
1.40001
1.40001
1.40001
1.40001
1.40001
1.40001
1.40001
1.40001
1.40001
1.40001
1.40001
1.40001
1.40001
1.40001
1.40001
1.40001
1.40001
1.40001
1.40001
1.40001
1.40001
1.40001
1.40001
1.40001
1.40001
1.40001
1.40001
1.40001
1.40001
1.40001
1.40001
1.40001
1.40001
1.40001
1.40001
1.40001
1.40001
1.40001
1.40001
1.40001
1.40001
1.40001
1.40001
1.40001
1.40001
1.40001
1.40001
1.40001
1.40001
1.40001
1.40001
1.40001
1.40001
1.40001
1.40001
1.40001
1.40001
1.40001
1.40001
1.40001
1.40001
1.40001
1.40001
1.40001
1.40001
1.40001
1.40001
1.40001
1.40001
1.40001
1.40001
1.40001
1.40001
1.40001
1.40001
1.40001
1.40001
1.40001
1.40001
1.40001
1.40001
1.40001
1.40001
1.40001
1.40001
1.40001
1.40001
1.40001
1.40001
1.40001
1.40001
1.40001
1.40001
1.40001
1.40001
1.40001
1.40001
1.40001
1.40001
1.40001
1.40001
1.40001
1.40001
1.40001
1.40001
1.40001
1.40001
1.40001
1.40001
1.40001
1.40001
1.40001
1.40001
1.40001
1.40001
1.40001
1.40001
1.40001
1.40001
1.40001
1.40001
1.40001
1.40001
1.40001
1.40001
1.40001
1.40001
1.40001
1.40001
1.40001
1.40001
1.40001
1.40001
1.40001
1.40001
1.40001
1.40001
1.40001
1.40001
1.40001
1.40001
1.40001
1.40001
1.40001
1.40001
1.40001
1.40001
1.40001
1.40001
1.40001
1.40001
1.40001
1.40001
1.40001
1.40001
1.40001
1.40001
1.40001
1.40001
1.40001
1.40001
1.40001
1.40001
1.40001
1.40001
1.40001
1.40001
1.40001
1.40001
1.40001
1.40001
1.40001
1.40001
1.40001
1.40001
1.40001
1.40001
1.40001
1.40001
1.40001
1.40001
1.40001
1.40001
1.40001
1.40001
1.40001
1.40001
1.40001
1.40001
1.40001
1.40001
1.40001
1.40001
1.40001
1.40001
1.40001
1.40001
1.40001
1.40001
1.40001
1.40001
1.40001
1.40001
1.40001
1.40001
1.40001
1.40001
1.40001
1.40001
1.40001
1.40001
1.40001
1.40001
1.40001
1.40001
1.40001
1.40001
1.40001
1.40001
1.40001
1.40001
1.40001
1.40001
1.40001
1.40001
1.40001
1.40001
1.40001
1.40001
1.40001
1.40001
1.40001
1.40001
1.40001
1.40001
1.40001
1.40001
1.40001
1.40001
1.40001
1.40001
1.40001
1.40001
1.40001
1.40001
1.40001
1.40001
1.40001
1.40001
1.40001
1.40001
1.40001
1.40001
1.40001
1.40001
1.40001
1.40001
1.40001
1.40001
1.40001
1.40001
1.40001
1.40001
1.40001
1.40001
1.40001
1.40001
1.40001
1.40001
1.40001
1.40001
1.40001
1.40001
1.40001
1.40001
1.40001
1.40001
1.40001
1.40001
1.40001
1.40001
1.40001
1.40001
1.40001
1.40001
1.40001
1.40001
1.40001
1.40001
1.40001
1.40001
1.40001
1.40001
1.40001
1.40001
1.40001
1.40001
1.40001
1.40001
1.40001
1.40001
1.40001
1.40001
1.40001
1.40001
1.40001
1.40001
1.40001
1.40001
1.40001
1.40001
1.40001
1.40001
1.40001
1.40001
1.40001
1.40001
1.40001
1.40001
1.40001
1.40001
1.40001
1.40001
1.40001
1.40001
1.40001
1.40001
1.40001
1.40001
1.40001
1.40001
1.40001
1.40001
1.40001
1.40001
1.40001
1.40001
1.40001
1.40001
1.40001
1.40001
1.40001
1.40001
1.40001
1.40001
1.40001
1.40001
1.40001
1.40001
1.40001
1.40001
1.40001
1.40001
1.40001
1.40001
1.40001
1.40001
1.40001
1.40001
1.40001
1.40001
1.40001
1.40001
1.40001
1.40001
1.40001
1.40001
1.40001
1.40001
1.40001
1.40001
1.40001
1.40001
1.40001
1.40001
1.40001
1.40001
1.40001
1.40001
1.40001
1.40001
1.40001
1.40001
1.40001
1.40001
1.40001
1.40001
1.40001
1.40001
1.40001
1.40001
1.40001
1.40001
1.40001
1.40001
1.40001
1.40001
1.40001
1.40001
1.40001
1.40001
1.40001
1.40001
1.40001
1.40001
1.40001
1.40001
1.40001
1.40001
1.40001
1.40001
1.40001
1.40001
1.40001
1.40001
1.40001
1.40001
1.40001
1.40001
1.40001
1.40001
1.40001
1.40001
1.40001
1.40001
1.40001
1.40001
1.40001
1.40001
1.40001
1.40001
1.40001
1.40001
1.40001
1.40001
1.40001
1.40001
1.40001
1.40001
1.40001
1.40001
1.40001
1.40001
1.40001
1.40001
1.40001
1.40001
1.40001
1.40001
1.40001
1.40001
1.40001
1.40001
1.40001
1.40001
1.40001
1.40001
1.40001
1.40001
1.40001
1.40001
1.40001
1.40001
1.40001
1.40001
1.40001
1.40001
1.40001
1.40001
1.40001
1.40001
1.40001
1.40001
1.40001
1.40001
1.40001
1.40001
1.40001
1.40001
1.40001
1.40001
1.40001
1.40001
1.40001
1.40001
1.40001
1.40001
1.40001
1.40001
1.40001
1.40001
1.40001
1.40001
1.40001
1.40001
1.40001
1.40001
1.40001
1.40001
1.40001
1.40001
1.40001
1.40001
1.40001
1.40001
1.40001
1.40001
1.40001
1.40001
1.40001
1.40001
1.40001
1.40001
1.40001
1.40001
1.40001
1.40001
1.40001
1.40001
1.40001
1.40001
1.40001
1.40001
1.40001
1.40001
1.40001
1.40001
1.40001
1.40001
1.40001
1.40001
1.40001
1.40001
1.40001
1.40001
1.40001
1.40001
1.40001
1.40001
1.40001
1.40001
1.40001
1.40001
1.40001
1.40001
1.40001
1.40001
1.40001
1.40001
1.40001
1.40001
1.40001
1.40001
1.40001
1.40001
1.40001
1.40001
1.40001
1.40001
1.40001
1.40001
1.40001
1.40001
1.40001
1.40001
1.40001
1.40001
1.40001
1.40001
1.40001
1.67762
2.08067
2.54453
2.99216
3.41944
3.84443
4.1142
4.4163
4.43071
4.30545
4.02347
3.71161
3.46387
3.36457
3.29939
3.30422
3.33178
3.36173
3.38132
3.38629
3.3933
3.40461
3.42041
3.43027
1.40282
1.41908
1.47022
1.5932
1.79396
2.11289
2.50614
2.98252
3.36863
3.54984
3.6439
3.60044
3.57045
3.49395
3.41744
3.3843
3.38101
3.37155
3.37262
3.37823
3.38844
3.39843
3.40696
3.41804
1.40001
1.4
1.39998
1.40025
1.40314
1.4218
1.49781
1.70654
2.19607
2.89133
3.42992
3.70013
3.77643
3.72435
3.6198
3.44875
3.35874
3.35137
3.35355
3.36504
3.37744
3.38332
3.38647
3.39765
1.40001
1.4
1.4
1.4
1.39999
1.40004
1.39998
1.40139
1.43233
1.62862
2.19693
2.8922
3.48726
3.57583
3.5575
3.51482
3.42917
3.36742
3.36211
3.35355
3.3498
3.35267
3.35662
3.36836
1.40001
1.40001
1.4
1.4
1.4
1.4
1.4
1.4
1.39992
1.40101
1.43762
1.68344
2.31543
2.99604
3.40602
3.54576
3.51808
3.44404
3.36792
3.33414
3.31271
3.30318
3.31058
3.3217
1.40001
1.40001
1.40001
1.40001
1.40001
1.4
1.4
1.4
1.39999
1.4
1.39992
1.40298
1.45711
1.82721
2.48873
3.19669
3.39141
3.38867
3.36713
3.32652
3.28304
3.27796
3.28063
3.28744
1.40001
1.40001
1.40001
1.40001
1.40001
1.40001
1.40001
1.40001
1.40001
1.4
1.4
1.39999
1.39998
1.41213
1.52316
2.0288
2.74309
3.29959
3.41736
3.38845
3.33097
3.3132
3.30154
3.28949
1.40001
1.40001
1.40001
1.40001
1.40001
1.40001
1.40001
1.40001
1.40001
1.40001
1.40001
1.4
1.4
1.39997
1.40066
1.43643
1.6778
2.37437
2.99987
3.34004
3.37535
3.36524
3.34112
3.31143
1.40001
1.40001
1.40001
1.40001
1.40001
1.40001
1.40001
1.40001
1.40001
1.40001
1.40001
1.40001
1.4
1.4
1.4
1.40005
1.40575
1.52319
1.99744
2.80698
3.14773
3.27233
3.32927
3.32533
1.40001
1.40001
1.40001
1.40001
1.40001
1.40001
1.40001
1.40001
1.40001
1.40001
1.40001
1.40001
1.40001
1.4
1.4
1.4
1.39999
1.40165
1.44008
1.74771
2.43227
3.09661
3.34056
3.33479
1.40001
1.40001
1.40001
1.40001
1.40001
1.40001
1.40001
1.40001
1.40001
1.40001
1.40001
1.40001
1.40001
1.40001
1.40001
1.4
1.4
1.4
1.40018
1.41416
1.59205
2.19331
2.90701
3.22438
1.40001
1.40001
1.40001
1.40001
1.40001
1.40001
1.40001
1.40001
1.40001
1.40001
1.40001
1.40001
1.40001
1.40001
1.40001
1.40001
1.4
1.4
1.4
1.40002
1.40556
1.49286
2.00381
2.74438
1.40001
1.40001
1.40001
1.40001
1.40001
1.40001
1.40001
1.40001
1.40001
1.40001
1.40001
1.40001
1.40001
1.40001
1.40001
1.40001
1.40001
1.4
1.4
1.4
1.4
1.40173
1.46403
1.83565
1.40001
1.40001
1.40001
1.40001
1.40001
1.40001
1.40001
1.40001
1.40001
1.40001
1.40001
1.40001
1.40001
1.40001
1.40001
1.40001
1.40001
1.40001
1.40001
1.4
1.4
1.4
1.40131
1.42559
1.40001
1.40001
1.40001
1.40001
1.40001
1.40001
1.40001
1.40001
1.40001
1.40001
1.40001
1.40001
1.40001
1.40001
1.40001
1.40001
1.40001
1.40001
1.40001
1.40001
1.4
1.4
1.40001
1.39999
1.40001
1.40001
1.40001
1.40001
1.40001
1.40001
1.40001
1.40001
1.40001
1.40001
1.40001
1.40001
1.40001
1.40001
1.40001
1.40001
1.40001
1.40001
1.40001
1.40001
1.40001
1.4
1.4
1.39999
1.40001
1.40001
1.40001
1.40001
1.40001
1.40001
1.40001
1.40001
1.40001
1.40001
1.40001
1.40001
1.40001
1.40001
1.40001
1.40001
1.40001
1.40001
1.40001
1.40001
1.40001
1.4
1.4
1.4
1.40001
1.40001
1.40001
1.40001
1.40001
1.40001
1.40001
1.40001
1.40001
1.40001
1.40001
1.40001
1.40001
1.40001
1.40001
1.40001
1.40001
1.40001
1.40001
1.40001
1.4
1.4
1.4
1.40011
1.40001
1.40001
1.40001
1.40001
1.40001
1.40001
1.40001
1.40001
1.40001
1.40001
1.40001
1.40001
1.40001
1.40001
1.40001
1.40001
1.40001
1.40001
1.40001
1.4
1.4
1.4
1.40115
1.42782
1.40001
1.40001
1.40001
1.40001
1.40001
1.40001
1.40001
1.40001
1.40001
1.40001
1.40001
1.40001
1.40001
1.40001
1.40001
1.40001
1.40001
1.4
1.4
1.4
1.4
1.40171
1.46402
1.80034
1.40001
1.40001
1.40001
1.40001
1.40001
1.40001
1.40001
1.40001
1.40001
1.40001
1.40001
1.40001
1.40001
1.40001
1.40001
1.40001
1.4
1.4
1.4
1.40003
1.40551
1.49657
1.98856
2.72702
1.40001
1.40001
1.40001
1.40001
1.40001
1.40001
1.40001
1.40001
1.40001
1.40001
1.40001
1.40001
1.40001
1.40001
1.40001
1.4
1.4
1.4
1.40017
1.41423
1.59491
2.20946
2.86457
3.25081
1.40001
1.40001
1.40001
1.40001
1.40001
1.40001
1.40001
1.40001
1.40001
1.40001
1.40001
1.40001
1.40001
1.4
1.4
1.4
1.39999
1.40166
1.43998
1.74537
2.44287
3.09518
3.33328
3.33196
1.40001
1.40001
1.40001
1.40001
1.40001
1.40001
1.40001
1.40001
1.40001
1.40001
1.40001
1.40001
1.4
1.4
1.4
1.40005
1.40571
1.52396
1.99385
2.8096
3.15298
3.2687
3.3192
3.32318
1.40001
1.40001
1.40001
1.40001
1.40001
1.40001
1.40001
1.40001
1.40001
1.40001
1.40001
1.4
1.4
1.39997
1.40066
1.43652
1.67785
2.37531
2.99554
3.34276
3.37764
3.36303
3.33827
3.31502
1.40001
1.40001
1.40001
1.40001
1.40001
1.40001
1.40001
1.40001
1.40001
1.4
1.39999
1.39999
1.39998
1.41214
1.52309
2.02852
2.74422
3.29892
3.41712
3.38819
3.33173
3.31264
3.30157
3.29021
1.40001
1.40001
1.40001
1.40001
1.40001
1.4
1.4
1.4
1.39999
1.4
1.39992
1.40298
1.4571
1.82724
2.48831
3.19662
3.39213
3.3889
3.36693
3.327
3.2836
3.27831
3.28059
3.28799
1.40001
1.40001
1.4
1.4
1.4
1.4
1.4
1.4
1.39992
1.40102
1.43759
1.68346
2.31557
2.99605
3.40567
3.54577
3.51821
3.44419
3.36749
3.33402
3.31292
3.30293
3.3104
3.32163
1.40001
1.4
1.4
1.4
1.39999
1.40004
1.39998
1.40139
1.43231
1.62869
2.19682
2.89227
3.48723
3.57577
3.55739
3.5147
3.42972
3.36704
3.36206
3.35369
3.34998
3.35258
3.35633
3.36818
1.40001
1.4
1.39998
1.40025
1.40314
1.42178
1.49783
1.70655
2.19604
2.89139
3.43
3.70004
3.77638
3.72447
3.61987
3.44858
3.35937
3.35086
3.35353
3.36512
3.37753
3.3833
3.38644
3.39767
1.40282
1.41909
1.4702
1.59324
1.79399
2.11278
2.50627
2.98239
3.3686
3.54994
3.64404
3.60015
3.57027
3.49429
3.41741
3.38445
3.38117
3.37142
3.37258
3.37826
3.38857
3.39843
3.40693
3.41808
1.67763
2.08064
2.54457
2.99222
3.41916
3.84474
4.11436
4.41603
4.43058
4.30554
4.02368
3.71131
3.46408
3.36474
3.29932
3.3042
3.33178
3.36156
3.38114
3.3863
3.39338
3.40454
3.42031
3.43043
2.66373
1.93376
1.45325
1.15019
0.941393
0.919446
0.960099
1.0516
1.08469
1.12257
1.18299
1.22136
1.2342
1.25659
1.31173
1.34533
1.34554
1.33689
1.32115
1.32113
1.31961
1.31852
1.3291
1.39886
1.77215
2.64586
3.67821
4.82897
5.76968
5.91518
5.62526
5.16299
4.83048
4.67251
4.55966
4.43775
4.29908
4.17086
4.0631
3.95497
3.84131
3.72681
3.61747
3.52141
3.44245
3.37341
3.30327
3.22488
3.14113
3.05995
2.98261
2.90885
2.84106
2.77721
2.7138
2.64856
2.59062
2.54524
2.50808
2.47415
2.43756
2.39489
2.33659
2.25297
2.17605
2.1273
2.09988
2.07951
2.05532
2.04197
2.02853
2.05614
2.19138
2.46938
2.83987
3.22715
3.52343
3.78909
3.94513
3.98574
3.96247
3.9047
3.79422
3.6617
3.49641
3.36803
3.33456
3.31429
3.31396
3.33239
3.32099
3.29806
3.26862
3.20036
3.08131
2.99348
3.15553
2.71634
2.29888
2.02234
1.74395
1.50138
1.44172
1.39462
1.31997
1.26612
1.23428
1.20761
1.20565
1.21495
1.2498
1.28558
1.30003
1.30146
1.29917
1.30614
1.30877
1.31771
1.38659
1.76399
2.49727
2.76428
3.04504
3.49439
4.20611
4.76329
5.12128
5.09788
4.93262
4.74936
4.592
4.44705
4.31552
4.21176
4.11166
3.99931
3.87253
3.75278
3.65355
3.56999
3.48935
3.41473
3.34253
3.2602
3.16711
3.07744
3.00002
2.9353
2.8788
2.82295
2.75867
2.68926
2.62508
2.5758
2.53561
2.49932
2.46206
2.41909
2.36041
2.27964
2.20778
2.16106
2.12924
2.10954
2.08078
2.08765
2.13695
2.28549
2.53807
2.72504
2.86233
3.0299
3.19564
3.35304
3.55001
3.71952
3.82122
3.82099
3.75891
3.65612
3.52019
3.39986
3.35419
3.32965
3.32403
3.34577
3.33685
3.31324
3.28256
3.21809
3.10491
3.01098
3.33729
3.13769
2.79201
2.45233
2.19437
1.90779
1.65682
1.54722
1.45422
1.33194
1.26355
1.25316
1.23994
1.2381
1.24308
1.25676
1.28311
1.29529
1.30005
1.30984
1.33222
1.45134
1.88477
2.5085
2.92781
2.95305
2.93836
2.94667
3.08687
3.64049
4.4463
4.9285
4.97906
4.85487
4.60477
4.40553
4.2794
4.17131
4.06235
3.94662
3.83458
3.73498
3.64329
3.545
3.43902
3.33638
3.2578
3.19158
3.11777
3.04503
2.98687
2.93631
2.87964
2.80566
2.7232
2.64277
2.57423
2.52459
2.48592
2.44809
2.40836
2.36823
2.32264
2.27155
2.21561
2.15248
2.10836
2.09865
2.1076
2.18479
2.39058
2.65446
2.84241
2.8958
2.89369
2.87625
2.8992
2.98978
3.22694
3.47215
3.65682
3.74366
3.73822
3.67875
3.54694
3.42765
3.37656
3.35192
3.33373
3.31832
3.29566
3.27471
3.24667
3.18737
3.08836
2.99791
3.36447
3.30105
3.11712
2.81442
2.56347
2.32169
1.98638
1.80101
1.73161
1.59975
1.43765
1.40318
1.38889
1.33736
1.27512
1.27317
1.27816
1.27217
1.27469
1.28867
1.43007
1.95089
2.57847
2.89459
2.93593
2.91996
2.86678
2.77993
2.70489
2.76283
3.12499
3.90521
4.56948
4.61855
4.57447
4.43945
4.29897
4.15187
4.01145
3.9023
3.81222
3.72628
3.63861
3.54007
3.42823
3.31122
3.20601
3.14684
3.10426
3.05922
3.01358
2.96533
2.89789
2.81323
2.72061
2.62736
2.55654
2.50722
2.46999
2.43257
2.38971
2.34556
2.3056
2.26984
2.22927
2.17532
2.12953
2.15272
2.27349
2.53523
2.79127
2.95405
2.98649
2.97537
2.93542
2.87976
2.81491
2.79411
2.85112
3.01901
3.23788
3.45947
3.58277
3.58847
3.55201
3.49002
3.43939
3.39378
3.35251
3.3164
3.28864
3.26465
3.23026
3.16193
3.071
2.99534
3.34345
3.3363
3.26418
3.08456
2.83442
2.62797
2.38106
2.06202
1.92307
1.84392
1.70609
1.53073
1.48572
1.43333
1.33918
1.29101
1.28788
1.27638
1.29015
1.45834
2.04616
2.61451
2.86474
2.90651
2.86672
2.79103
2.71927
2.63903
2.59102
2.55182
2.56768
2.75782
3.38963
4.0649
4.41998
4.40439
4.2619
4.06951
3.9196
3.83232
3.77258
3.72221
3.66143
3.5719
3.45676
3.31868
3.17948
3.09717
3.04401
2.99647
2.95523
2.91548
2.87678
2.82421
2.74017
2.64605
2.55716
2.4809
2.4358
2.40858
2.38577
2.35457
2.32135
2.285
2.26193
2.24355
2.28969
2.46269
2.70036
2.93008
3.03488
3.04368
3.01658
2.96784
2.91726
2.85687
2.796
2.76169
2.71731
2.73119
2.82329
3.0228
3.28678
3.43245
3.50083
3.51645
3.49498
3.4294
3.35203
3.29819
3.26074
3.2276
3.18471
3.12021
3.06427
3.00769
3.30893
3.3137
3.30085
3.22379
3.05557
2.82943
2.63837
2.42023
2.17128
2.02743
1.91669
1.7688
1.66847
1.59929
1.4903
1.39193
1.37748
1.41217
1.64454
2.23665
2.80531
2.95026
2.92571
2.8606
2.7716
2.69034
2.62019
2.5516
2.50986
2.47688
2.43701
2.39804
2.47755
2.87414
3.55482
4.08976
4.08944
4.02091
3.94083
3.85136
3.77098
3.69214
3.61482
3.53636
3.44679
3.31479
3.15845
3.06856
3.01855
2.97512
2.93584
2.89771
2.85013
2.78908
2.72026
2.63659
2.53133
2.46046
2.41843
2.37999
2.34292
2.30931
2.30028
2.30258
2.34284
2.46254
2.71231
2.93092
3.05071
3.11102
3.11747
3.08106
3.02234
2.96571
2.91711
2.8776
2.83378
2.77358
2.70905
2.66591
2.66533
2.71246
2.86891
3.11595
3.31383
3.42757
3.44714
3.4388
3.38708
3.31436
3.24777
3.19147
3.13735
3.0906
3.07151
3.02876
3.29422
3.30184
3.29512
3.27491
3.19064
3.03524
2.83234
2.62402
2.42817
2.27383
2.13216
1.94596
1.81282
1.75389
1.68104
1.55364
1.57057
1.85983
2.53193
3.06673
3.13735
3.0543
2.92776
2.82047
2.73641
2.65956
2.58454
2.51868
2.473
2.43667
2.38387
2.34085
2.27838
2.2885
2.46322
2.99785
3.6166
3.85313
3.91707
3.85765
3.74726
3.65944
3.58887
3.52294
3.43854
3.31221
3.17167
3.06546
2.99836
2.95093
2.90758
2.86401
2.81834
2.77455
2.72438
2.64267
2.52268
2.43734
2.39526
2.36324
2.33336
2.32126
2.3348
2.44009
2.67952
2.97438
3.1725
3.1671
3.15574
3.14275
3.10761
3.06439
3.02027
2.97737
2.92868
2.87721
2.82455
2.76541
2.70265
2.6589
2.64148
2.63277
2.65298
2.76587
2.97887
3.18713
3.33827
3.40683
3.39179
3.33021
3.24194
3.17449
3.13034
3.1
3.07331
3.02337
3.29797
3.30074
3.29928
3.29043
3.25738
3.16403
3.01749
2.84507
2.61547
2.44685
2.33881
2.20874
1.9932
1.87445
1.82825
1.90774
2.3039
3.00481
3.4383
3.42198
3.29916
3.14415
3.00083
2.88189
2.77972
2.68903
2.60106
2.52712
2.46867
2.4212
2.3619
2.31232
2.25086
2.20104
2.15333
2.21097
2.54783
3.1223
3.59852
3.6847
3.67903
3.62117
3.54316
3.4661
3.38658
3.2943
3.18203
3.07179
2.98525
2.92501
2.8819
2.83965
2.7944
2.74464
2.68727
2.61378
2.51589
2.43317
2.38588
2.36857
2.36107
2.39774
2.58964
2.91677
3.2187
3.34242
3.32813
3.26704
3.2003
3.14545
3.09988
3.06017
3.02716
2.99147
2.94485
2.8901
2.83053
2.76663
2.71089
2.66851
2.64247
2.62061
2.61282
2.61901
2.67746
2.81528
2.99424
3.18143
3.27706
3.26584
3.21382
3.17851
3.14792
3.12017
3.0919
3.03887
3.30263
3.29665
3.29536
3.29222
3.28485
3.23919
3.13914
3.00301
2.84951
2.64848
2.4746
2.35797
2.20946
2.11941
2.27441
2.82409
3.53768
3.80482
3.74425
3.57708
3.40369
3.26171
3.13189
3.00463
2.87972
2.76343
2.65653
2.56688
2.49829
2.43441
2.3684
2.309
2.24704
2.17723
2.12188
2.06844
2.07201
2.21672
2.65656
3.24047
3.52655
3.56449
3.521
3.42484
3.3318
3.24178
3.16198
3.07753
2.98795
2.90373
2.85326
2.81348
2.76907
2.71717
2.65937
2.59069
2.51356
2.44465
2.39898
2.40267
2.50418
2.76837
3.15314
3.39239
3.43297
3.41397
3.34222
3.27024
3.21599
3.16384
3.11744
3.07939
3.04525
3.00606
2.95885
2.90271
2.83681
2.7674
2.71901
2.6862
2.65846
2.63407
2.60977
2.59854
2.58329
2.59751
2.6544
2.79257
2.99385
3.12498
3.15896
3.18166
3.17089
3.14841
3.12536
3.06689
3.31514
3.3006
3.29177
3.2845
3.28232
3.27082
3.22165
3.12178
2.99306
2.82172
2.66172
2.47708
2.49755
2.81015
3.53786
4.15168
4.2473
4.13298
3.92689
3.7259
3.55161
3.40245
3.26475
3.12969
2.99765
2.86819
2.74206
2.62859
2.54063
2.45666
2.37669
2.31252
2.26131
2.19849
2.13475
2.06461
2.01909
1.97204
2.01459
2.29998
2.81191
3.26198
3.40592
3.38515
3.31912
3.24105
3.16243
3.08252
2.99559
2.90321
2.83456
2.79025
2.74297
2.68601
2.63216
2.57271
2.52478
2.46503
2.49099
2.66588
3.0088
3.3459
3.56095
3.5806
3.54545
3.45239
3.34585
3.27147
3.21447
3.17024
3.13244
3.09871
3.06394
3.02327
2.9753
2.91752
2.84943
2.78305
2.73492
2.70261
2.67629
2.65172
2.6241
2.59941
2.57246
2.55109
2.52377
2.54267
2.64241
2.84094
2.99824
3.10183
3.16786
3.17471
3.15835
3.09964
3.36366
3.36493
3.34234
3.31434
3.30043
3.29595
3.27516
3.22248
3.11034
2.97858
2.81985
2.92665
3.52113
4.33343
4.69042
4.6499
4.47109
4.2594
4.05674
3.87122
3.70065
3.53934
3.38652
3.24239
3.10834
2.97684
2.84593
2.72294
2.61637
2.51144
2.40954
2.32292
2.25139
2.19243
2.14267
2.08998
2.02263
1.9598
1.89866
1.8951
2.02323
2.40952
2.89829
3.19593
3.26629
3.24968
3.18759
3.10555
3.0102
2.91075
2.82486
2.76418
2.712
2.65672
2.6128
2.57587
2.57792
2.66256
2.93996
3.31355
3.54474
3.63063
3.63302
3.60071
3.54066
3.46753
3.3836
3.30296
3.23408
3.18155
3.13859
3.10509
3.07556
3.04073
2.99597
2.93958
2.87334
2.80929
2.75649
2.71773
2.69014
2.6669
2.64123
2.6123
2.57924
2.54363
2.51432
2.4829
2.48287
2.55382
2.72728
2.91523
3.08114
3.15512
3.16082
3.12559
3.24453
3.3239
3.30656
3.30381
3.31467
3.3184
3.31319
3.28497
3.19092
3.19164
3.50984
4.35692
5.14334
5.34917
5.23295
4.92969
4.63953
4.39857
4.18939
3.9956
3.8144
3.64723
3.4931
3.34937
3.21328
3.07639
2.93635
2.79833
2.67022
2.5555
2.46095
2.38047
2.29985
2.22368
2.14783
2.07576
2.01657
1.96261
1.89093
1.84831
1.82677
1.86296
2.09986
2.57361
2.95055
3.11788
3.11437
3.06584
2.99778
2.91621
2.81342
2.72428
2.68212
2.65755
2.63594
2.69616
2.92189
3.29172
3.61752
3.8158
3.81068
3.76087
3.66105
3.57719
3.52181
3.47241
3.41521
3.34254
3.26415
3.20189
3.15253
3.1109
3.07742
3.04455
3.00686
2.9603
2.90458
2.84827
2.79612
2.74983
2.71058
2.6765
2.64481
2.61167
2.57987
2.54704
2.51547
2.48873
2.45392
2.43987
2.48726
2.62261
2.81725
3.00432
3.09941
3.08648
2.58615
3.05656
3.33185
3.37813
3.3666
3.33293
3.29537
3.29919
3.47093
4.22872
5.3223
5.77155
5.75778
5.6336
5.40634
5.12646
4.83403
4.56428
4.32387
4.10389
3.90073
3.72227
3.56976
3.43024
3.29172
3.14836
3.00144
2.85746
2.71899
2.58804
2.48527
2.41843
2.3555
2.28008
2.19951
2.12178
2.04262
1.96062
1.90253
1.85601
1.80305
1.75558
1.7641
1.89405
2.24986
2.67954
2.95584
3.00189
2.97703
2.91159
2.79696
2.71394
2.68826
2.71605
2.87785
3.23517
3.65752
3.88637
3.89044
3.87415
3.83625
3.76986
3.68664
3.59349
3.52415
3.47758
3.43074
3.37116
3.2989
3.22554
3.16513
3.1196
3.08255
3.04698
3.00871
2.96676
2.92253
2.87739
2.82894
2.77881
2.7332
2.69216
2.65458
2.61598
2.57756
2.54312
2.51484
2.49105
2.46469
2.42346
2.40305
2.42296
2.51849
2.68362
2.89466
2.99077
1.7332
2.31939
3.06805
3.30045
3.29505
3.31204
3.40075
3.86025
4.89964
5.97711
6.48215
6.43308
6.10339
5.75164
5.50637
5.27346
5.00926
4.72721
4.45741
4.21425
3.99301
3.78513
3.60491
3.45989
3.33471
3.20613
3.0636
2.91211
2.7658
2.64515
2.54993
2.45198
2.34642
2.25558
2.19481
2.14339
2.07909
2.00125
1.91954
1.83101
1.7583
1.70779
1.69273
1.6813
1.73943
1.972
2.39341
2.72497
2.86743
2.85176
2.78908
2.78029
2.89493
3.1809
3.58088
3.95948
4.15445
4.1413
4.03792
3.9033
3.811
3.75475
3.69334
3.61961
3.54512
3.4861
3.43881
3.39018
3.33431
3.26083
3.17889
3.12103
3.08167
3.04462
3.00698
2.97086
2.93739
2.90422
2.85962
2.79855
2.73666
2.68719
2.64783
2.61273
2.58231
2.55641
2.53094
2.50324
2.46866
2.42208
2.38255
2.35811
2.36503
2.4146
2.53646
2.76099
1.42607
1.58414
2.2425
2.83184
3.24202
3.8307
4.47838
5.61148
6.25662
6.47366
6.53611
6.47444
6.26646
5.95646
5.66509
5.39122
5.11096
4.82721
4.56071
4.32251
4.10244
3.88061
3.67204
3.49451
3.33794
3.19696
3.06445
2.94825
2.83184
2.71645
2.60218
2.47948
2.37497
2.29211
2.21517
2.1369
2.0576
1.98034
1.90944
1.83678
1.76417
1.71856
1.68527
1.65945
1.63688
1.64783
1.77398
2.09325
2.47348
2.73383
2.87601
3.18563
3.63
3.95222
4.14587
4.20532
4.18976
4.14842
4.05748
3.94735
3.84476
3.76012
3.69176
3.64478
3.58997
3.52919
3.47232
3.41633
3.35691
3.29042
3.21137
3.13809
3.09065
3.05051
3.01038
2.97463
2.94802
2.92407
2.89091
2.83302
2.75628
2.69834
2.66198
2.63567
2.61401
2.59343
2.56963
2.54049
2.49949
2.44566
2.38348
2.34069
2.31239
2.30655
2.32682
2.48924
1.40043
1.40789
1.57854
2.08238
3.35944
4.77731
5.65626
6.63418
7.03553
6.78415
6.5808
6.46388
6.33886
6.12923
5.79256
5.43518
5.12549
4.85463
4.60878
4.36479
4.13269
3.96102
3.79464
3.60274
3.41797
3.26004
3.11368
2.97543
2.8396
2.69388
2.59116
2.53677
2.46648
2.37626
2.26892
2.17364
2.09277
2.00967
1.91543
1.84839
1.80905
1.76626
1.72467
1.68611
1.62811
1.5861
1.58773
1.64369
1.89179
2.57268
3.21546
3.7821
4.22879
4.44814
4.4416
4.37
4.21415
4.08634
4.00899
3.9488
3.87555
3.77998
3.69336
3.62332
3.56012
3.49871
3.45742
3.42495
3.38083
3.30908
3.20167
3.10629
3.06399
3.04193
3.029
3.01182
2.9883
2.95766
2.90746
2.82197
2.72859
2.6707
2.63804
2.61308
2.59059
2.57011
2.54779
2.5215
2.49588
2.46595
2.41077
2.3457
2.29633
2.27292
2.27449
2.33642
1.40042
1.42013
1.54755
2.24127
3.28146
4.56433
5.85935
6.56448
7.031
6.92165
6.65567
6.44198
6.26489
6.01233
5.68656
5.35343
5.0911
4.89324
4.68718
4.44694
4.1979
3.95323
3.72804
3.53353
3.3495
3.20997
3.13131
3.03497
2.90201
2.7559
2.61882
2.49563
2.39411
2.30431
2.21256
2.12715
2.08641
2.04673
1.972
1.88034
1.78823
1.7235
1.67171
1.63512
1.60068
1.5686
1.5766
1.65181
1.97085
2.52682
3.29143
3.87806
4.18043
4.44444
4.45494
4.32577
4.14024
4.03771
3.99059
3.94958
3.8857
3.79966
3.70986
3.62548
3.55203
3.4995
3.45789
3.40851
3.35318
3.28648
3.19089
3.10514
3.06644
3.04379
3.02225
2.9973
2.97448
2.94862
2.903
2.82022
2.72543
2.66861
2.63798
2.61338
2.59043
2.56904
2.5466
2.52226
2.49166
2.44456
2.38759
2.3326
2.28881
2.27106
2.27261
2.35438
1.42139
1.65738
2.21238
2.97902
3.15392
3.59437
4.62226
5.50173
6.39336
6.64449
6.62263
6.47057
6.20258
5.86561
5.57882
5.33004
5.08019
4.81518
4.55612
4.32487
4.12025
3.91429
3.71376
3.53142
3.37192
3.22281
3.06641
2.92239
2.7964
2.68149
2.57351
2.46725
2.36713
2.27149
2.19536
2.14118
2.07151
1.98706
1.92419
1.85685
1.78681
1.72722
1.67062
1.63531
1.61333
1.62763
1.7426
2.04738
2.49513
2.65093
2.92818
3.32143
3.60833
4.00061
4.14181
4.15074
4.13979
4.10151
4.03785
3.96733
3.8731
3.79639
3.72395
3.64631
3.57419
3.51019
3.44953
3.39424
3.34389
3.28603
3.20922
3.14093
3.09804
3.06547
3.03582
3.00947
2.98719
2.96147
2.9153
2.83526
2.74374
2.69057
2.66184
2.63763
2.61378
2.59053
2.56461
2.53045
2.48629
2.43456
2.38111
2.33008
2.29527
2.29804
2.33046
2.5277
1.72651
2.41912
2.99058
3.31413
3.31031
3.31087
3.4363
3.867
4.88115
6.0226
6.51205
6.4083
6.02843
5.67929
5.45247
5.25027
5.01172
4.74302
4.48611
4.25457
4.0373
3.8325
3.64472
3.47226
3.31406
3.16277
3.00971
2.86913
2.75012
2.65026
2.56167
2.47135
2.36619
2.26976
2.2001
2.13101
2.04292
1.94962
1.90632
1.87472
1.83516
1.7777
1.72288
1.69429
1.74275
1.97771
2.33328
2.68666
2.86804
2.84807
2.8277
2.8325
2.91007
3.16747
3.58356
3.91774
4.09648
4.12346
4.06195
3.94078
3.83364
3.77082
3.70596
3.62156
3.54466
3.48561
3.43312
3.38482
3.3303
3.25995
3.18042
3.11796
3.07435
3.04077
3.0124
2.9851
2.95641
2.92286
2.87898
2.81234
2.727
2.66208
2.63123
2.60868
2.58559
2.56182
2.54466
2.52697
2.49813
2.44902
2.38105
2.34099
2.34181
2.39588
2.53492
2.80528
2.65117
3.11654
3.25844
3.35964
3.35799
3.31641
3.29708
3.30566
3.46379
4.20999
5.3509
5.76699
5.70852
5.58964
5.37656
5.1392
4.87386
4.61269
4.36974
4.14348
3.93314
3.73976
3.56335
3.40085
3.24602
3.09624
2.95904
2.84032
2.73079
2.61998
2.51311
2.43078
2.36892
2.29597
2.19883
2.09241
1.99962
1.93899
1.89222
1.83534
1.79646
1.76504
1.78233
1.91332
2.28467
2.68807
2.90694
2.98924
2.97015
2.92109
2.83349
2.76606
2.70117
2.71157
2.85894
3.20859
3.59309
3.88572
3.93013
3.90379
3.85557
3.77946
3.68241
3.57918
3.508
3.46433
3.42332
3.37806
3.31965
3.24725
3.17474
3.11836
3.07548
3.04019
3.008
2.97519
2.9394
2.8994
2.85453
2.80163
2.7328
2.65777
2.61982
2.59736
2.57663
2.5553
2.53354
2.50753
2.47834
2.44359
2.39102
2.39795
2.48326
2.64638
2.85269
3.01109
3.30381
3.3225
3.27939
3.27063
3.28404
3.29707
3.30183
3.27555
3.194
3.2019
3.54222
4.36774
5.12451
5.34974
5.245
4.95984
4.67376
4.43283
4.21913
4.01653
3.82231
3.63755
3.46395
3.30284
3.15594
3.02371
2.90485
2.79519
2.69556
2.60451
2.51542
2.42441
2.32434
2.22408
2.13505
2.06812
2.00775
1.93977
1.87751
1.84309
1.8192
1.87208
2.14585
2.61506
3.02259
3.10465
3.10503
3.0656
2.98714
2.91524
2.84182
2.76346
2.68783
2.65039
2.62702
2.67429
2.89399
3.28304
3.66312
3.8497
3.84213
3.76595
3.6377
3.53188
3.48199
3.44654
3.40764
3.36143
3.30253
3.23518
3.16615
3.10561
3.06103
3.02498
2.99126
2.95703
2.9191
2.87629
2.83082
2.78179
2.72278
2.65878
2.61265
2.58234
2.5582
2.53388
2.51496
2.49873
2.48686
2.47353
2.49278
2.59073
2.75977
2.90923
3.02829
3.07163
3.38236
3.37542
3.34227
3.301
3.28975
3.29108
3.27653
3.22569
3.11344
2.97811
2.82493
2.93405
3.52321
4.3274
4.71529
4.67513
4.48975
4.27879
4.07652
3.88102
3.6916
3.5103
3.34309
3.1934
3.06345
2.94883
2.84697
2.75091
2.65617
2.55537
2.45126
2.35208
2.26672
2.1956
2.1315
2.06158
1.99039
1.93712
1.88553
1.89176
2.03959
2.47048
2.95232
3.23382
3.27373
3.24409
3.17144
3.08613
3.00755
2.92628
2.84899
2.78243
2.72909
2.65846
2.59751
2.55464
2.56361
2.66686
2.97003
3.37557
3.62087
3.62342
3.5819
3.5466
3.50071
3.44179
3.38273
3.33193
3.2796
3.22273
3.15919
3.09392
3.04086
2.99982
2.9629
2.92616
2.8874
2.84678
2.80661
2.7649
2.71556
2.65805
2.59946
2.55577
2.52891
2.51112
2.50665
2.51142
2.54683
2.62338
2.75854
2.9223
3.00318
3.03242
3.06503
3.05064
3.32654
3.31619
3.29827
3.28315
3.27592
3.26667
3.22126
3.12401
2.99353
2.81884
2.66225
2.47992
2.50132
2.81653
3.54966
4.16222
4.23981
4.12801
3.92206
3.71534
3.53173
3.37434
3.23711
3.1114
2.99264
2.87655
2.76926
2.67314
2.58333
2.49331
2.40538
2.31939
2.25158
2.1761
2.10468
2.0391
1.98893
1.95287
2.00717
2.30764
2.8787
3.32769
3.40773
3.37024
3.28221
3.20616
3.1415
3.08259
3.02361
2.95285
2.88377
2.81127
2.72775
2.64737
2.5849
2.53858
2.51095
2.48858
2.52872
2.73047
3.0601
3.37722
3.51548
3.52808
3.48616
3.41486
3.35879
3.31602
3.27281
3.22296
3.16121
3.08561
3.00962
2.95907
2.9245
2.89147
2.85713
2.82278
2.7897
2.75632
2.71633
2.65827
2.58139
2.5301
2.5088
2.51056
2.52225
2.59791
2.76387
2.9571
3.10429
3.16155
3.13735