/*--------------------------------*- C++ -*----------------------------------*\
  =========                 |
  \\      /  F ield         | OpenFOAM: The Open Source CFD Toolbox
   \\    /   O peration     | Website:  https://openfoam.org
    \\  /    A nd           | Version:  7
     \\/     M anipulation  |
\*---------------------------------------------------------------------------*/
FoamFile
{
    version     2.0;
    format      ascii;
    class       volScalarField;
    location    "2.6";
    object      T;
}
// * * * * * * * * * * * * * * * * * * * * * * * * * * * * * * * * * * * * * //

dimensions      [0 0 0 1 0 0 0];

internalField   nonuniform List<scalar> 
4608
(
1
1
1
1
1
1
1
1
1
1
1
1
1
1
1
1
1
1
1
1
1
1
1
1
1
1
1
1
1
1
1
1
1
1
1
1
1
1
1
1
1
1
1
1
1
1
1
1
1
1
1
1
1
1
1
1
1
1
1
1
1
1
1
1
1
1
1
1
1
1
1
1
1
1
1
1
1
1
1
1
1
1
1
1
1
1
1
1
1
1
1
1
1
1
1
1
1
1
1
1
1
1
1
1
1
1
1
1
1
1
1
1
1
1
1
1
1
1
1
1
1
1
1
1
1
1
1
1
1
1
1
1
1
1
1
1
1
1
1
1
1
1
1
1
1
1
1
1
1
1
1
1
1
1
1
1
1
1
1
1
1
1
1
1
1
1
1
1
1
1
1
1
1
1
1
1
1
1
1
1
1
1
1
1
1
1
1
1
1
1
1
1
1
1
1
1
1
1
1
1
1
1
1
1
1
1
1
1
1
1
1
1
1
1
1
1
1
1
1
1
1
1
1
1
1
1
1
1
1
1
1
1
1
1
1
1
1
1
1
1
1
1
1
1
1
1
1
1
1
1
1
1
1
1
1
1
1
1
1
1
1
1
1
1
1
1
1
1
1
1
1
1
1
1
1
1
1
1
1
1
1
1
1
1
1
1
1
1
1
1
1
1
1
1
1
1
1
1
1
1
1
1
1
1
1
1
1
1
1
1
1
1
1
1
1
1
1
1
1
1
1
1
1
1
1
1
1
1
1
1
1
1
1
1
1
1
1
1
1
1
1
1
1
1
1
1
1
1
1
1
1
1
1
1
1
1
1
1
1
1
1
1
1
1
1
1
1
1
1
1
1
1
1
1
1
1
1
1
1
1
1
1
1
1
1
1
1
1
1
1
1
1
1
1
1
1
1
1
1
1
1
1
1
1
1
1
1
1
1
1
1
1
1
1
1
1
1
1
1
1
1
1
1
1
1
1
1
1
1
1
1
1
1
1
1
1
1
1
1
1
1
1
1
1
1
1
1
1
1
1
1
1
1
1
1
1
1
1
1
1
1
1
1
1
1
1
1
1
1
1
1
1
1
1
1
1
1
1
1
1
1
1
1
1
1
1
1
1
1
1
1
1
1
1
1
1
1
1
1
1
1
1
1
1
1
1
1
1
1
1
1
1
1
1
1
1
1
1
1
1
1
1
1
1
1
1
1
1
1
1
1
1
1
1
1
1
1
1
1
1
1
1
1
1
1
1
1
1
1
1
1
1
1
1
1
1
1
1
1
1
1
1
1
1
1
1
1
1
1
1
1
1
1
1
1
1
1
1
1
1
1
1
1
1
1
1
1
1
1
1
1
1
1
1
1
1
1
1
1
1
1
1
1
1
1
1
1
1
1
1
1
1
1
1
1
1
1
1
1
1
1
1
1
1
1
1
1
1
1
1
1
1
1
1
1
1
1
1
1
1
1
1
1
1
1
1
1
1
1
1
1
1
1
1
1
1
1
1
1
1
1
1
1
1
1
1
1
1
1
1
1
1
1
1
1
1
1
1
1
1
1
1
1
1
1
1
1
1
1
1
1
1
1
1
1
1
1
1
1
1
1
1
1
1
1
1
1
1
1
1
1
1
1
1
1
1
1
1
1
1
1
1
1
1
1
1
1
1
1
1
1
1
1
1
1
1
1
1
1
1
1
1
1
1
1
1
1
1
1
1
1
1
1
1
1
1
1
1
1
1
1
1
1
1
1
1
1
1
1.07851
1.18033
1.28957
1.39142
1.48615
1.57509
1.63413
1.68118
1.69943
1.68335
1.63722
1.58531
1.54089
1.52313
1.51317
1.51463
1.52004
1.52567
1.52964
1.53084
1.53204
1.53386
1.53688
1.5401
1.00093
1.0069
1.02689
1.07442
1.14326
1.23249
1.32133
1.40829
1.48016
1.52172
1.54715
1.56207
1.5621
1.55303
1.54055
1.53558
1.53503
1.53312
1.53282
1.53361
1.53509
1.53662
1.53824
1.54108
1
0.999998
0.999991
1.0001
1.00119
1.00825
1.0377
1.11536
1.27092
1.45307
1.56767
1.62054
1.62075
1.61114
1.59312
1.5624
1.5466
1.54474
1.54244
1.54304
1.54379
1.54455
1.54525
1.54772
1
1
0.999999
0.999999
0.999995
1.00001
0.999986
1.00056
1.01365
1.10626
1.3127
1.48531
1.61376
1.61367
1.6082
1.59867
1.58261
1.57191
1.56708
1.56044
1.55683
1.55703
1.55767
1.56003
1
1
1
1
1
1
0.999999
0.999998
0.999963
1.00041
1.01669
1.1267
1.35034
1.52471
1.61403
1.62974
1.6224
1.60659
1.5886
1.57715
1.57105
1.56809
1.56911
1.57169
1
1
1
1
1
1
1
1
0.999997
0.999997
0.99996
1.00113
1.02508
1.18552
1.40051
1.56871
1.60292
1.60077
1.59515
1.58664
1.57954
1.57836
1.57751
1.57862
1
1
1
1
1
1
1
1
1
1
0.999996
0.999997
0.999977
1.00472
1.05349
1.25039
1.45542
1.5864
1.60868
1.60342
1.59308
1.58986
1.58705
1.58404
1
1
1
1
1
1
1
1
1
1
1
1
0.999998
0.999986
1.00021
1.01428
1.11655
1.35047
1.51166
1.58859
1.59788
1.59656
1.59285
1.58789
1
1
1
1
1
1
1
1
1
1
1
1
1
0.999999
0.999997
1
1.0021
1.04986
1.23106
1.45566
1.53716
1.56899
1.58545
1.58444
1
1
1
1
1
1
1
1
1
1
1
1
1
1
1
1
0.999994
1.00053
1.01546
1.13622
1.35138
1.51765
1.57615
1.57879
1
1
1
1
1
1
1
1
1
1
1
1
1
1
1
1
0.999999
0.999997
1.00004
1.00505
1.07575
1.2761
1.46857
1.54041
1
1
1
1
1
1
1
1
1
1
1
1
1
1
1
1
1
0.999999
0.999999
1
1.00187
1.03508
1.22054
1.41759
1
1
1
1
1
1
1
1
1
1
1
1
1
1
1
1
1
1
1
1
0.999999
1.00055
1.02372
1.15402
1
1
1
1
1
1
1
1
1
1
1
1
1
1
1
1
1
1
1
1
1
0.999999
1.00039
1.00884
1
1
1
1
1
1
1
1
1
1
1
1
1
1
1
1
1
1
1
1
1
1
1
0.999987
1
1
1
1
1
1
1
1
1
1
1
1
1
1
1
1
1
1
1
1
1
1
1
0.999995
1
1
1
1
1
1
1
1
1
1
1
1
1
1
1
1
1
1
1
1
1
1
1
0.999999
1
1
1
1
1
1
1
1
1
1
1
1
1
1
1
1
1
1
1
1
1
1
1
1.00002
1
1
1
1
1
1
1
1
1
1
1
1
1
1
1
1
1
1
1
1
1
0.999999
1.00034
1.00952
1
1
1
1
1
1
1
1
1
1
1
1
1
1
1
1
1
1
1
1
0.999999
1.00055
1.02336
1.14416
1
1
1
1
1
1
1
1
1
1
1
1
1
1
1
1
1
0.999999
0.999999
1
1.00188
1.03632
1.21462
1.41325
1
1
1
1
1
1
1
1
1
1
1
1
1
1
1
1
0.999999
0.999997
1.00004
1.00507
1.07748
1.27982
1.45557
1.54634
1
1
1
1
1
1
1
1
1
1
1
1
1
1
1
1
0.999994
1.00053
1.01538
1.1356
1.35555
1.51704
1.5713
1.58069
1
1
1
1
1
1
1
1
1
1
1
1
1
0.999999
0.999997
1
1.00209
1.05011
1.2297
1.45693
1.53918
1.56791
1.5835
1.58435
1
1
1
1
1
1
1
1
1
1
1
1
0.999998
0.999986
1.00021
1.01431
1.11664
1.35049
1.51055
1.58938
1.59836
1.59613
1.59239
1.58857
1
1
1
1
1
1
1
1
1
1
0.999996
0.999997
0.999977
1.00472
1.05345
1.25034
1.4559
1.58592
1.6087
1.60351
1.59327
1.58977
1.58707
1.58435
1
1
1
1
1
1
1
1
0.999997
0.999997
0.99996
1.00113
1.02508
1.18552
1.40037
1.56882
1.60304
1.60083
1.59514
1.58679
1.57967
1.57847
1.57748
1.5787
1
1
1
1
1
1
0.999999
0.999998
0.999963
1.00041
1.01667
1.12671
1.35039
1.52467
1.614
1.62977
1.62244
1.60662
1.5885
1.57707
1.57107
1.56803
1.56905
1.57163
1
1
0.999999
0.999999
0.999995
1.00001
0.999986
1.00056
1.01364
1.10628
1.31267
1.48533
1.61374
1.61363
1.60816
1.59866
1.58272
1.57189
1.56703
1.56038
1.55684
1.557
1.55761
1.55998
1
0.999998
0.999991
1.0001
1.00119
1.00824
1.03771
1.11536
1.27091
1.45306
1.56768
1.62055
1.62074
1.61115
1.59312
1.56235
1.54668
1.54471
1.54243
1.54302
1.54379
1.54454
1.54524
1.54771
1.00093
1.00691
1.02688
1.07443
1.14328
1.23245
1.32137
1.40827
1.48015
1.52172
1.54718
1.56202
1.56208
1.5531
1.54054
1.53559
1.53504
1.53311
1.53282
1.53362
1.53512
1.53662
1.53823
1.54108
1.07851
1.18032
1.28958
1.39143
1.48609
1.57515
1.63417
1.68113
1.6994
1.68336
1.63725
1.58527
1.54094
1.52316
1.51314
1.51461
1.52003
1.52564
1.52962
1.53086
1.53206
1.53385
1.53686
1.54013
1.39807
1.23253
1.11039
1.03091
0.96782
0.963399
0.994635
1.04554
1.05064
1.05698
1.07241
1.08282
1.08767
1.09699
1.11244
1.11674
1.11632
1.1133
1.1093
1.10865
1.10597
1.10124
1.10388
1.12936
1.28129
1.54638
1.76823
1.97338
2.12801
2.17469
2.13207
2.05794
2.00055
1.97388
1.95553
1.93551
1.91165
1.88884
1.86948
1.84988
1.82873
1.80655
1.78462
1.76502
1.74931
1.7363
1.72313
1.70748
1.68949
1.67108
1.65322
1.63666
1.62177
1.60741
1.59273
1.5773
1.56341
1.55258
1.54385
1.53586
1.52694
1.51608
1.50084
1.47872
1.4581
1.44506
1.43796
1.43288
1.42674
1.42303
1.41892
1.42698
1.46681
1.54348
1.63456
1.72079
1.78319
1.83873
1.87323
1.87981
1.87465
1.86258
1.84082
1.81589
1.784
1.75733
1.75053
1.74684
1.74728
1.75178
1.7494
1.74404
1.73657
1.72067
1.69545
1.67606
1.496
1.41062
1.31937
1.25554
1.18016
1.10021
1.09869
1.09613
1.07483
1.05909
1.04969
1.04917
1.05094
1.05688
1.06764
1.07575
1.08122
1.08388
1.08481
1.0886
1.08757
1.08951
1.11518
1.26259
1.50225
1.56099
1.62486
1.724
1.86283
1.96561
2.03758
2.03667
2.01438
1.98697
1.96219
1.93838
1.91593
1.89726
1.87911
1.85852
1.83502
1.81213
1.79243
1.77541
1.75914
1.74506
1.73177
1.71566
1.69611
1.67611
1.6582
1.64349
1.63106
1.61854
1.6036
1.58722
1.57186
1.56012
1.55074
1.54231
1.53335
1.52247
1.50714
1.48588
1.46688
1.45467
1.44653
1.44172
1.43428
1.4362
1.45003
1.49172
1.55951
1.60577
1.63741
1.67756
1.71672
1.75089
1.79347
1.82722
1.846
1.84592
1.83466
1.81625
1.79006
1.76515
1.75566
1.75111
1.75044
1.75561
1.75345
1.74763
1.73991
1.72527
1.7017
1.68124
1.5349
1.49633
1.4272
1.35479
1.29263
1.21932
1.1558
1.12656
1.09808
1.06048
1.0397
1.03944
1.03743
1.03785
1.04013
1.04455
1.05254
1.05787
1.06075
1.0651
1.0738
1.11995
1.28026
1.47665
1.5898
1.59083
1.58717
1.59006
1.62867
1.76522
1.93288
2.01871
2.02985
2.00956
1.96765
1.93353
1.91181
1.89232
1.87247
1.8512
1.83041
1.81102
1.79225
1.77214
1.75096
1.7306
1.71518
1.70209
1.68669
1.67074
1.65758
1.64581
1.63232
1.61517
1.59624
1.57723
1.56047
1.54845
1.53937
1.53057
1.52093
1.51048
1.4981
1.4841
1.46908
1.45229
1.44071
1.43934
1.44211
1.46473
1.5225
1.59232
1.63715
1.64815
1.64761
1.64544
1.65256
1.67596
1.73128
1.78449
1.81932
1.83572
1.83492
1.82401
1.7988
1.77401
1.76309
1.75791
1.75463
1.75185
1.74692
1.74176
1.73481
1.72138
1.70048
1.68003
1.55621
1.53987
1.50002
1.43621
1.38065
1.3249
1.24446
1.19522
1.17431
1.13642
1.08958
1.07909
1.07457
1.05931
1.04257
1.04256
1.0436
1.04159
1.04273
1.04866
1.10611
1.29993
1.48871
1.57761
1.58669
1.58368
1.57284
1.55454
1.542
1.56044
1.66142
1.84061
1.97683
1.97597
1.9674
1.94344
1.91828
1.89301
1.86887
1.84925
1.83156
1.81396
1.79581
1.77576
1.75337
1.72922
1.70668
1.69388
1.68465
1.67492
1.66506
1.65417
1.63849
1.61906
1.59766
1.57564
1.55845
1.54656
1.53774
1.52871
1.51791
1.50614
1.49507
1.48477
1.47347
1.45865
1.44799
1.45563
1.49095
1.56164
1.62662
1.66691
1.67317
1.67061
1.66196
1.65027
1.63709
1.63492
1.64896
1.68895
1.73722
1.78333
1.80853
1.80997
1.80338
1.79162
1.78118
1.77088
1.76167
1.75428
1.74899
1.74408
1.73628
1.72048
1.7002
1.68166
1.56897
1.56347
1.5435
1.50223
1.44685
1.40019
1.34494
1.26823
1.23029
1.20874
1.17465
1.12757
1.11244
1.09365
1.0634
1.0498
1.04897
1.04414
1.04975
1.12167
1.33313
1.50463
1.57319
1.58426
1.57596
1.55985
1.5444
1.52707
1.51776
1.51034
1.51529
1.57032
1.73722
1.88174
1.95052
1.94656
1.91939
1.88432
1.8576
1.84105
1.82801
1.81699
1.8046
1.78654
1.76284
1.73435
1.70464
1.68589
1.67358
1.66284
1.6536
1.64466
1.63604
1.62413
1.60432
1.58199
1.56091
1.54242
1.53112
1.524
1.5177
1.50943
1.50056
1.49051
1.48336
1.47962
1.49406
1.54389
1.60601
1.66217
1.68759
1.69022
1.6841
1.67313
1.66206
1.64954
1.63714
1.62977
1.61888
1.6219
1.64415
1.6911
1.75001
1.78234
1.79831
1.80168
1.79705
1.78291
1.76542
1.75373
1.74645
1.73983
1.7304
1.71529
1.70202
1.68831
1.57718
1.57308
1.56571
1.54488
1.50599
1.45542
1.41138
1.36144
1.30236
1.26612
1.23708
1.19948
1.17341
1.15146
1.11565
1.08537
1.08069
1.09371
1.18546
1.38719
1.55019
1.59718
1.59304
1.57959
1.55945
1.54033
1.52399
1.5081
1.49817
1.49019
1.48038
1.46975
1.4932
1.60873
1.77906
1.8931
1.89259
1.87919
1.8639
1.84628
1.82983
1.81322
1.79703
1.78081
1.76255
1.73593
1.70353
1.6839
1.67249
1.66217
1.65258
1.64325
1.63189
1.6177
1.60211
1.58258
1.55739
1.53962
1.52859
1.51835
1.50819
1.49887
1.49586
1.49647
1.50782
1.54289
1.61006
1.66495
1.69356
1.70791
1.70915
1.70116
1.68815
1.67574
1.66507
1.65693
1.64801
1.6345
1.61881
1.60664
1.60599
1.61754
1.65606
1.71502
1.76182
1.78663
1.78928
1.78733
1.77566
1.75971
1.74574
1.73363
1.72152
1.71058
1.70584
1.69612
1.58273
1.58082
1.57624
1.56855
1.54743
1.51213
1.4669
1.41933
1.37393
1.33819
1.3032
1.25439
1.21865
1.20069
1.17852
1.14217
1.15362
1.2737
1.4854
1.61638
1.63929
1.62266
1.59665
1.57256
1.55244
1.53353
1.5152
1.49815
1.48534
1.47559
1.46159
1.44962
1.43154
1.43483
1.49198
1.64537
1.79053
1.84213
1.85708
1.84625
1.82535
1.80737
1.79237
1.77833
1.76101
1.73539
1.70681
1.68516
1.67053
1.65893
1.64783
1.63686
1.62599
1.6162
1.60517
1.58644
1.55761
1.53577
1.52459
1.5159
1.50829
1.50357
1.50705
1.53631
1.60185
1.67657
1.72359
1.72325
1.7204
1.71707
1.70877
1.69866
1.68903
1.67994
1.66936
1.658
1.64631
1.63275
1.61725
1.60551
1.59951
1.59662
1.60205
1.63133
1.68468
1.73428
1.76946
1.78118
1.777
1.76312
1.74408
1.72945
1.71975
1.7129
1.70687
1.69611
1.58471
1.58373
1.58223
1.57873
1.57012
1.54957
1.5182
1.48092
1.42988
1.38996
1.36261
1.3302
1.27667
1.24178
1.22664
1.2572
1.39945
1.59944
1.70168
1.6979
1.6725
1.63982
1.60902
1.58231
1.55843
1.5364
1.51412
1.495
1.47984
1.46636
1.44941
1.43481
1.41762
1.40374
1.38996
1.4087
1.51646
1.67027
1.77754
1.80191
1.80499
1.79422
1.77915
1.76386
1.74796
1.72936
1.70677
1.68483
1.66654
1.65219
1.64104
1.63063
1.62032
1.60939
1.59665
1.57997
1.55674
1.53582
1.52351
1.51829
1.51587
1.52595
1.57835
1.66368
1.73388
1.76227
1.75916
1.7453
1.72978
1.7173
1.70702
1.69786
1.69042
1.68252
1.67241
1.66047
1.6469
1.63132
1.61675
1.60516
1.59772
1.59202
1.58968
1.59163
1.60745
1.64324
1.68807
1.73044
1.74831
1.74532
1.7345
1.72764
1.72111
1.71525
1.7092
1.69827
1.58138
1.58115
1.58083
1.58072
1.57982
1.57143
1.55169
1.5235
1.49036
1.44538
1.40364
1.37454
1.33657
1.31589
1.37141
1.54437
1.71887
1.77273
1.7602
1.72641
1.69019
1.65935
1.63055
1.60193
1.57341
1.54608
1.51993
1.49724
1.47928
1.46138
1.44298
1.42692
1.41039
1.39157
1.37562
1.35885
1.36112
1.41098
1.54186
1.69197
1.75365
1.7696
1.76291
1.74671
1.72988
1.7127
1.69723
1.68008
1.6612
1.6427
1.6309
1.62169
1.61184
1.60063
1.58828
1.57323
1.5552
1.53811
1.52619
1.52734
1.55537
1.62506
1.7189
1.77522
1.77931
1.77531
1.75963
1.74305
1.73058
1.71896
1.7083
1.69937
1.69149
1.68272
1.67238
1.65994
1.64457
1.62717
1.61401
1.6047
1.59706
1.5909
1.58512
1.58225
1.57837
1.58222
1.59725
1.63218
1.67849
1.70629
1.71501
1.72257
1.72111
1.71677
1.71158
1.69987
1.57659
1.57635
1.5766
1.57761
1.57895
1.57746
1.56874
1.54927
1.5229
1.48668
1.45128
1.40872
1.41733
1.51573
1.69526
1.83153
1.84869
1.82703
1.78761
1.74766
1.71154
1.67933
1.64888
1.61875
1.58917
1.55992
1.53078
1.50336
1.48051
1.45835
1.43711
1.41963
1.40576
1.38888
1.3716
1.35355
1.34085
1.32637
1.34078
1.43544
1.5776
1.68412
1.72149
1.72478
1.71593
1.70294
1.68808
1.67142
1.65297
1.63381
1.61975
1.6106
1.60062
1.58884
1.57724
1.56452
1.55415
1.54078
1.54865
1.59621
1.68243
1.75835
1.80354
1.80609
1.79905
1.77895
1.75501
1.73842
1.72542
1.71484
1.70586
1.6979
1.68973
1.68063
1.67014
1.65696
1.64039
1.62333
1.61062
1.60206
1.59499
1.58855
1.58204
1.57637
1.57002
1.56424
1.5562
1.56054
1.58539
1.63264
1.66863
1.69386
1.7131
1.71557
1.71206
1.70062
1.57576
1.58321
1.58055
1.57868
1.57886
1.57835
1.57462
1.56542
1.54487
1.51913
1.48837
1.52254
1.68101
1.85233
1.91527
1.90756
1.87568
1.83674
1.79849
1.76259
1.72856
1.69524
1.6625
1.63083
1.60121
1.57245
1.54385
1.51614
1.49045
1.4638
1.43708
1.41466
1.39642
1.38119
1.36824
1.35486
1.33635
1.31869
1.2997
1.29986
1.34527
1.46316
1.5927
1.6646
1.69153
1.69091
1.68123
1.66509
1.64523
1.62488
1.608
1.59627
1.58575
1.57386
1.56523
1.55868
1.56167
1.58789
1.65993
1.74455
1.79392
1.80663
1.80651
1.79983
1.78826
1.77284
1.75442
1.73653
1.72075
1.70838
1.69839
1.69081
1.68435
1.67674
1.6667
1.65346
1.63705
1.62058
1.6069
1.59709
1.59052
1.5853
1.57957
1.5729
1.56482
1.55576
1.5483
1.53833
1.53644
1.55377
1.5958
1.64065
1.68122
1.70021
1.70319
1.69707
1.53569
1.5664
1.56743
1.56996
1.57481
1.57636
1.57515
1.57092
1.55682
1.56111
1.64985
1.83234
1.97909
2.00778
1.98772
1.93798
1.88782
1.84429
1.80598
1.77052
1.73684
1.70448
1.67265
1.6414
1.61146
1.58224
1.55296
1.52381
1.49552
1.46825
1.44381
1.42227
1.40115
1.38252
1.3649
1.34691
1.33082
1.31548
1.29499
1.28214
1.27665
1.29017
1.37136
1.50843
1.60389
1.64618
1.65325
1.64478
1.63129
1.61471
1.59463
1.57644
1.5686
1.56248
1.56345
1.58203
1.64255
1.73046
1.79734
1.83331
1.83147
1.82111
1.80151
1.78517
1.77372
1.76321
1.75041
1.73368
1.7159
1.70207
1.69111
1.68214
1.67551
1.66883
1.66033
1.64896
1.63479
1.62036
1.60697
1.59532
1.58629
1.57934
1.57282
1.56531
1.55756
1.54948
1.54157
1.53404
1.52287
1.51743
1.52952
1.56367
1.61156
1.6564
1.6783
1.6776
1.37302
1.49349
1.55922
1.57655
1.57525
1.57144
1.56851
1.57098
1.61437
1.78355
1.98151
2.04662
2.04437
2.02646
1.99266
1.94926
1.90128
1.85462
1.81254
1.77479
1.74005
1.70805
1.6779
1.64792
1.61764
1.58756
1.55774
1.52842
1.49924
1.46983
1.44508
1.4278
1.41159
1.39319
1.37402
1.35486
1.33451
1.3122
1.29593
1.28327
1.26819
1.25501
1.25878
1.30575
1.41773
1.53551
1.60509
1.6195
1.61491
1.60248
1.57983
1.56195
1.56041
1.56964
1.61289
1.69863
1.79165
1.83474
1.83288
1.82739
1.8198
1.80885
1.794
1.77682
1.76325
1.75293
1.74197
1.72832
1.71239
1.69686
1.68447
1.67537
1.66778
1.66021
1.65168
1.64159
1.63034
1.61879
1.60678
1.59461
1.58381
1.57485
1.56697
1.55887
1.55056
1.54232
1.53461
1.52792
1.5205
1.50863
1.50361
1.50905
1.53417
1.57615
1.62561
1.6495
1.12519
1.30538
1.49726
1.55313
1.55298
1.55799
1.58232
1.68324
1.88275
2.05942
2.12754
2.1191
2.07368
2.02541
1.99137
1.9569
1.91475
1.86795
1.82232
1.78173
1.7451
1.70964
1.67657
1.64723
1.62065
1.59405
1.56524
1.53432
1.50379
1.47786
1.45671
1.43392
1.40827
1.38555
1.37044
1.35811
1.34218
1.32173
1.29945
1.27507
1.2543
1.23998
1.23623
1.2345
1.25529
1.33475
1.46169
1.54767
1.5826
1.57965
1.56784
1.56945
1.60303
1.67388
1.75909
1.83277
1.87009
1.86822
1.85015
1.82423
1.80625
1.79505
1.78458
1.77177
1.75777
1.74516
1.73407
1.72313
1.71125
1.69631
1.68046
1.66943
1.66103
1.65246
1.64378
1.63553
1.62769
1.61939
1.60866
1.59467
1.58072
1.56972
1.56131
1.55387
1.54701
1.54042
1.53322
1.52539
1.51654
1.50533
1.49565
1.49031
1.49247
1.50615
1.5375
1.5939
1.00919
1.0686
1.28365
1.44525
1.53259
1.66951
1.78024
1.95554
2.07236
2.11194
2.11715
2.10862
2.08038
2.03947
2.00082
1.96232
1.92032
1.87572
1.83256
1.79378
1.75723
1.71915
1.68196
1.64873
1.61808
1.58949
1.56282
1.53977
1.51623
1.49195
1.46666
1.43889
1.4144
1.39415
1.37503
1.35549
1.33525
1.3152
1.29641
1.27664
1.25665
1.24411
1.23486
1.22744
1.22066
1.22505
1.27249
1.37893
1.4861
1.54974
1.58459
1.65298
1.75424
1.82632
1.85972
1.86826
1.86621
1.86094
1.84617
1.82589
1.80662
1.79037
1.77804
1.77046
1.76088
1.74871
1.73591
1.72275
1.71002
1.69735
1.68255
1.66822
1.65833
1.64943
1.64026
1.6322
1.62642
1.62125
1.61391
1.60107
1.58414
1.57141
1.56369
1.55799
1.55266
1.54698
1.54019
1.53209
1.52157
1.5089
1.49443
1.48455
1.47768
1.47732
1.48278
1.52601
1.00013
1.00275
1.06234
1.24306
1.5626
1.84526
1.9733
2.10073
2.17509
2.14511
2.1184
2.10299
2.08534
2.05771
2.0129
1.96218
1.91644
1.8753
1.83751
1.79881
1.76029
1.73074
1.70167
1.66748
1.63274
1.60104
1.5719
1.54495
1.51763
1.48649
1.46346
1.45186
1.43633
1.41519
1.38913
1.36516
1.34441
1.32312
1.29813
1.28006
1.27025
1.25912
1.24753
1.23615
1.21914
1.20542
1.20717
1.23013
1.31818
1.51342
1.66293
1.77575
1.86876
1.91465
1.91188
1.8976
1.87034
1.84827
1.83385
1.82244
1.8081
1.79056
1.77531
1.76336
1.75227
1.74035
1.73073
1.72223
1.71278
1.69957
1.67891
1.65926
1.65059
1.64601
1.64312
1.63923
1.63431
1.62828
1.61759
1.59823
1.5768
1.56399
1.55725
1.55206
1.54694
1.5416
1.53509
1.5273
1.52016
1.51288
1.50037
1.48536
1.47359
1.46841
1.46895
1.48481
1.00013
1.00681
1.05832
1.27987
1.53992
1.77954
2.01437
2.11805
2.16878
2.15446
2.12445
2.10117
2.07865
2.04388
1.9975
1.94857
1.90911
1.8798
1.84979
1.81283
1.7719
1.72989
1.69002
1.6545
1.61903
1.59062
1.57533
1.55732
1.53116
1.50027
1.46964
1.44178
1.41826
1.39699
1.3746
1.35302
1.34298
1.33351
1.31421
1.28905
1.26368
1.24574
1.23099
1.22037
1.21039
1.20123
1.20425
1.23052
1.33585
1.49337
1.67628
1.80627
1.86496
1.90983
1.9114
1.89022
1.85869
1.84057
1.83065
1.82228
1.80971
1.79394
1.77826
1.76324
1.74974
1.73958
1.73063
1.71987
1.70869
1.69625
1.67791
1.6603
1.65197
1.64682
1.64183
1.63633
1.63168
1.62646
1.61652
1.59757
1.57563
1.56306
1.55703
1.55229
1.5474
1.54195
1.53529
1.52782
1.5193
1.50756
1.49441
1.48201
1.47191
1.46829
1.46882
1.49041
1.00762
1.0967
1.28005
1.47429
1.514
1.60732
1.82456
1.97799
2.0819
2.11804
2.12265
2.11016
2.07932
2.03145
1.9869
1.9487
1.91136
1.87226
1.8332
1.79611
1.76117
1.72496
1.68878
1.65481
1.62424
1.5947
1.56337
1.53421
1.50812
1.48341
1.45932
1.43503
1.4115
1.38862
1.37013
1.35665
1.33892
1.31693
1.30028
1.28222
1.26318
1.24658
1.23019
1.22003
1.21445
1.22068
1.26429
1.36267
1.48774
1.52648
1.59597
1.69372
1.75442
1.82528
1.85257
1.85916
1.86066
1.85523
1.84341
1.82854
1.81017
1.7969
1.78406
1.76997
1.75629
1.74366
1.73155
1.7204
1.71001
1.69838
1.68349
1.66985
1.66049
1.65279
1.64562
1.63948
1.63456
1.62909
1.61918
1.6015
1.58054
1.56845
1.56277
1.55836
1.55352
1.54767
1.5403
1.53077
1.51886
1.50548
1.49322
1.48176
1.47449
1.47565
1.48452
1.5372
1.12293
1.34346
1.47908
1.54794
1.55738
1.56105
1.59534
1.69154
1.87404
2.0505
2.13056
2.11889
2.06949
2.01752
1.98017
1.94791
1.9122
1.87211
1.83128
1.79148
1.75221
1.71446
1.67946
1.64689
1.61674
1.58738
1.55638
1.5261
1.49964
1.47755
1.45777
1.43699
1.4127
1.38929
1.37163
1.35412
1.33142
1.30611
1.29476
1.28756
1.27779
1.26234
1.2461
1.23881
1.25726
1.3406
1.44611
1.53574
1.58185
1.57933
1.57654
1.58245
1.60623
1.66735
1.75667
1.82689
1.86368
1.86596
1.85466
1.83069
1.80892
1.79733
1.78633
1.77145
1.75683
1.74488
1.73396
1.72331
1.71095
1.69571
1.67947
1.66679
1.65747
1.64979
1.64304
1.63666
1.63024
1.62285
1.61292
1.59756
1.57794
1.56354
1.55721
1.55286
1.54812
1.54224
1.53689
1.53132
1.52332
1.51044
1.49407
1.48639
1.4873
1.5024
1.53814
1.60561
1.39925
1.51696
1.54559
1.56545
1.57218
1.56855
1.56943
1.57305
1.6116
1.77446
1.98961
2.04931
2.03952
2.01949
1.9848
1.94764
1.90698
1.86563
1.82421
1.78288
1.74294
1.70585
1.67226
1.64151
1.61172
1.58153
1.55197
1.52468
1.49887
1.47347
1.44913
1.43004
1.41599
1.39813
1.37325
1.34551
1.32089
1.30455
1.29227
1.27753
1.26754
1.25914
1.26501
1.31201
1.43145
1.54013
1.5911
1.61375
1.61172
1.60439
1.58913
1.57487
1.56244
1.56753
1.60788
1.69357
1.77853
1.83534
1.83893
1.83394
1.82429
1.80909
1.7907
1.77258
1.75951
1.75047
1.741
1.72981
1.71556
1.6992
1.68374
1.67216
1.6634
1.65588
1.6486
1.64098
1.63274
1.62345
1.61252
1.59938
1.58329
1.56674
1.55871
1.55397
1.54924
1.54389
1.53772
1.52962
1.5208
1.51152
1.50025
1.50329
1.52635
1.56802
1.61791
1.65576
1.55597
1.56836
1.56316
1.56189
1.56589
1.57206
1.57359
1.56954
1.55743
1.56277
1.65729
1.83518
1.97515
2.00691
1.98858
1.94206
1.8943
1.85246
1.8131
1.77398
1.73561
1.69905
1.66497
1.63325
1.60334
1.57471
1.54721
1.52078
1.49693
1.47578
1.45525
1.43397
1.40946
1.38395
1.36085
1.3424
1.32577
1.30768
1.29217
1.28289
1.2767
1.29522
1.38459
1.51895
1.62479
1.6416
1.64799
1.6411
1.62675
1.61363
1.60086
1.58592
1.57111
1.56088
1.56086
1.57559
1.63416
1.72718
1.80762
1.84007
1.83695
1.82075
1.79482
1.77457
1.76517
1.75799
1.74897
1.73754
1.72314
1.70728
1.69193
1.67925
1.67028
1.66253
1.65463
1.64615
1.63676
1.62624
1.61501
1.60289
1.58863
1.57354
1.56311
1.55624
1.55041
1.54447
1.53875
1.53248
1.52635
1.52432
1.53084
1.55709
1.59909
1.63649
1.66728
1.67782
1.58287
1.58432
1.58124
1.57655
1.57628
1.57694
1.57477
1.56609
1.54555
1.51899
1.48942
1.52433
1.68009
1.85122
1.92189
1.9139
1.88004
1.84066
1.80193
1.76342
1.72528
1.68838
1.65402
1.62261
1.59417
1.56766
1.54288
1.51921
1.49614
1.47193
1.4471
1.42335
1.40181
1.38295
1.365
1.34535
1.32565
1.31161
1.29809
1.30147
1.35245
1.48004
1.60686
1.67553
1.69398
1.68885
1.67523
1.65848
1.64348
1.62826
1.61366
1.60096
1.59046
1.57427
1.56058
1.554
1.55793
1.58806
1.66712
1.76018
1.80524
1.80427
1.79582
1.78846
1.77916
1.76733
1.75504
1.74317
1.73012
1.71617
1.70165
1.68745
1.67584
1.66659
1.6581
1.64943
1.63995
1.62964
1.61919
1.60837
1.59586
1.58172
1.56779
1.55774
1.55154
1.54676
1.54315
1.54122
1.54881
1.56906
1.60386
1.64304
1.66298
1.67476
1.68586
1.68106
1.58037
1.57947
1.5779
1.57769
1.57768
1.57679
1.56866
1.54969
1.52315
1.48629
1.45147
1.40931
1.41807
1.517
1.70117
1.83453
1.84595
1.82488
1.78596
1.74539
1.70781
1.67438
1.64442
1.61632
1.58894
1.56132
1.53508
1.51134
1.48894
1.46678
1.44525
1.42373
1.40525
1.38394
1.36339
1.34525
1.32978
1.3215
1.34149
1.44215
1.59645
1.69481
1.72626
1.72262
1.70936
1.69551
1.68236
1.67051
1.6588
1.64503
1.63145
1.6164
1.59771
1.57929
1.56504
1.55529
1.55013
1.54727
1.55884
1.61305
1.69331
1.76312
1.795
1.79511
1.78657
1.77124
1.75924
1.74924
1.73838
1.72599
1.71143
1.6944
1.67716
1.66567
1.65804
1.65074
1.64251
1.63343
1.6243
1.61512
1.60463
1.59007
1.57167
1.55934
1.55431
1.55307
1.55488
1.57238
1.61268
1.65911
1.69173
1.70652
1.70362
1.69441
1.68907
1.68173
1.58272
1.58229
1.58104
1.5804
1.57925
1.57107
1.55131
1.52293
1.4897
1.44437
1.40403
1.37574
1.33724
1.31629
1.37272
1.54317
1.71009
1.76854
1.7567
1.72365
1.68801
1.65667
1.62856
1.60197
1.57524
1.54856
1.52404
1.50549
1.48831
1.47072
1.44948
1.42437
1.40349
1.38387
1.36567
1.34987
1.35316
1.41574
1.5594
1.70937
1.77603
1.77173
1.75929
1.73881
1.71982
1.70498
1.69284
1.68196
1.67162
1.65981
1.64633
1.62871
1.60705
1.58565
1.57037
1.55922
1.55086
1.54413
1.53987
1.5425
1.56648
1.63102
1.71108
1.75687
1.76259
1.76409
1.76301
1.75613
1.74606
1.73396
1.71819
1.69902
1.67874
1.6647
1.65748
1.65115
1.64417
1.63694
1.62945
1.62103
1.61109
1.59679
1.5764
1.56422
1.56285
1.5671
1.59357
1.64782
1.70058
1.73406
1.74099
1.73876
1.7247
1.70377
1.69316
1.68219
1.58603
1.58421
1.58201
1.57828
1.57003
1.5496
1.51803
1.48054
1.42926
1.38987
1.36256
1.33016
1.2763
1.24302
1.22734
1.25599
1.3916
1.59374
1.70099
1.69729
1.672
1.63938
1.6088
1.58353
1.56094
1.54009
1.51989
1.50432
1.48773
1.47051
1.45003
1.42749
1.4058
1.39017
1.37856
1.40166
1.5084
1.68902
1.80247
1.82635
1.81767
1.79195
1.76683
1.74624
1.72966
1.71556
1.70368
1.69242
1.68099
1.66886
1.65498
1.63599
1.61209
1.59029
1.57531
1.56341
1.55369
1.54594
1.53784
1.53339
1.52755
1.53526
1.56941
1.64038
1.70416
1.74191
1.75913
1.75988
1.75254
1.7393
1.72271
1.70418
1.68212
1.66372
1.6547
1.64862
1.643
1.63818
1.63324
1.62635
1.61688
1.60299
1.58237
1.57653
1.58497
1.61786
1.67389
1.72848
1.75525
1.75753
1.7547
1.74391
1.7274
1.7104
1.69889
1.68458
1.58225
1.58042
1.57594
1.5686
1.54761
1.5122
1.46673
1.41937
1.37391
1.338
1.30237
1.25374
1.21955
1.20186
1.17857
1.14165
1.15232
1.27068
1.48872
1.61656
1.63932
1.62535
1.59926
1.57468
1.5543
1.53542
1.51754
1.50451
1.49192
1.47564
1.4564
1.43749
1.41731
1.42038
1.48399
1.64205
1.78919
1.87322
1.87477
1.85639
1.82165
1.79135
1.76945
1.75254
1.7385
1.72352
1.71018
1.69926
1.68806
1.67415
1.65852
1.6386
1.61344
1.59202
1.57847
1.56827
1.55795
1.54866
1.54067
1.53278
1.52328
1.51088
1.50351
1.51846
1.57582
1.65063
1.7115
1.73496
1.73761
1.73364
1.7239
1.70774
1.68384
1.66195
1.65181
1.64567
1.63997
1.63411
1.62776
1.62129
1.61676
1.60757
1.60509
1.6204
1.65948
1.70935
1.74749
1.77001
1.77233
1.76612
1.75414
1.74011
1.72864
1.71858
1.70753
1.68772
1.57717
1.57293
1.56569
1.54499
1.50604
1.45558
1.41159
1.3614
1.30202
1.26576
1.23679
1.19975
1.17396
1.15139
1.11435
1.08551
1.0816
1.09485
1.18922
1.39385
1.54401
1.60129
1.59781
1.58161
1.55986
1.54003
1.52236
1.50875
1.50129
1.48913
1.47412
1.46048
1.48266
1.59534
1.7784
1.88374
1.90454
1.89857
1.87862
1.85025
1.82104
1.79749
1.77762
1.76071
1.74566
1.73087
1.71563
1.70169
1.69141
1.68179
1.66592
1.64262
1.61382
1.59049
1.57823
1.57158
1.56473
1.55611
1.54665
1.5362
1.52279
1.50478
1.49103
1.4799
1.48574
1.52447
1.60242
1.67244
1.71179
1.72217
1.72066
1.70997
1.68566
1.66119
1.64855
1.64079
1.6338
1.62906
1.62468
1.62278
1.62402
1.63693
1.66778
1.71563
1.75321
1.77825
1.77803
1.77463
1.76776
1.75925
1.74967
1.74122
1.73371
1.72475
1.71342
1.68943
1.56892
1.56347
1.54352
1.50225
1.44698
1.4004
1.34481
1.26775
1.23029
1.20887
1.17443
1.12767
1.1124
1.09304
1.06258
1.05007
1.04942
1.04465
1.05056
1.12694
1.3308
1.50388
1.58818
1.58676
1.57472
1.55637
1.53782
1.52282
1.51858
1.5093
1.51292
1.56851
1.73315
1.8816
1.95511
1.95208
1.93439
1.89914
1.86808
1.84067
1.8219
1.80451
1.78469
1.76508
1.74809
1.73269
1.72028
1.71088
1.69617
1.67542
1.65437
1.63508
1.61642
1.59885
1.5824
1.57107
1.56545
1.56297
1.5571
1.54579
1.52833
1.507
1.48894
1.476
1.46844
1.46776
1.49161
1.55382
1.62502
1.67735
1.69566
1.69332
1.68141
1.66274
1.64786
1.63614
1.62833
1.62817
1.62864
1.63665
1.66708
1.71383
1.76136
1.79395
1.80571
1.8034
1.79188
1.7732
1.75876
1.75059
1.7434
1.7356
1.72866
1.7229
1.71513
1.69188
1.55621
1.53991
1.50002
1.43621
1.38082
1.32491
1.24396
1.19484
1.17431
1.13674
1.08954
1.07919
1.07461
1.0589
1.04241
1.0426
1.04387
1.04196
1.04304
1.04907
1.10968
1.28691
1.50316
1.58431
1.58395
1.57813
1.56527
1.5501
1.54006
1.55761
1.65761
1.8452
1.98149
1.9808
1.97195
1.94949
1.92129
1.89215
1.86518
1.84093
1.82336
1.80855
1.79335
1.77799
1.76259
1.74658
1.72867
1.70773
1.68702
1.66725
1.64885
1.63237
1.61907
1.60699
1.59473
1.5841
1.57391
1.56168
1.54853
1.53395
1.51759
1.50156
1.48803
1.4777
1.46837
1.45807
1.45641
1.46749
1.51048
1.57664
1.63731
1.66155
1.66721
1.6631
1.65003
1.63779
1.63154
1.63409
1.65056
1.69356
1.74976
1.79368
1.81194
1.81311
1.81076
1.80297
1.78825
1.76974
1.75441
1.74478
1.74031
1.73569
1.72938
1.72057
1.70965
1.69078
1.53494
1.49636
1.42718
1.35487
1.29273
1.21896
1.15538
1.12639
1.09823
1.06049
1.03929
1.03968
1.03774
1.03806
1.04009
1.04438
1.05273
1.05817
1.06096
1.06526
1.07422
1.11602
1.27974
1.49296
1.58672
1.58765
1.58494
1.58829
1.62446
1.76103
1.93515
2.02771
2.0335
2.01123
1.9658
1.93115
1.90768
1.8879
1.86654
1.84549
1.82885
1.81206
1.79368
1.77447
1.75608
1.73937
1.7222
1.70284
1.68257
1.66429
1.64911
1.63674
1.62606
1.61497
1.60133
1.58381
1.56687
1.55426
1.54266
1.52937
1.51551
1.50375
1.49336
1.48354
1.47388
1.46193
1.45139
1.43882
1.43987
1.45996
1.51549
1.57933
1.63175
1.64937
1.64732
1.64623
1.65712
1.68182
1.72337
1.77784
1.81258
1.82928
1.82977
1.82485
1.81127
1.79529
1.78035
1.76666
1.75542
1.74288
1.73312
1.72743
1.72191
1.71398
1.70419
1.69065
1.49603
1.41072
1.3194
1.25533
1.17988
1.10003
1.09883
1.09651
1.0751
1.05874
1.04929
1.04915
1.05114
1.05733
1.06773
1.07553
1.08089
1.08363
1.08473
1.08876
1.08767
1.08956
1.11579
1.28038
1.50034
1.55801
1.62633
1.72262
1.85802
1.96751
2.04579
2.04269
2.01758
1.98649
1.95681
1.92677
1.90613
1.89306
1.87817
1.86197
1.84413
1.82344
1.80142
1.77994
1.75934
1.73926
1.72067
1.70359
1.68745
1.6737
1.66274
1.65254
1.64207
1.62987
1.61355
1.59193
1.56876
1.55079
1.53981
1.53144
1.52312
1.51577
1.50815
1.49963
1.48985
1.47622
1.45653
1.43516
1.41868
1.41907
1.43136
1.473
1.53993
1.60912
1.64709
1.69226
1.74647
1.77579
1.79679
1.81461
1.82923
1.83111
1.82509
1.81441
1.80171
1.78811
1.77735
1.7695
1.75931
1.74543
1.73177
1.72192
1.71508
1.71056
1.70726
1.69835
1.39809
1.23257
1.1102
1.03097
0.967866
0.963625
0.994736
1.0464
1.05101
1.05682
1.0714
1.08189
1.08766
1.09808
1.11327
1.11641
1.11596
1.1129
1.10896
1.10869
1.10604
1.10161
1.10456
1.13434
1.28205
1.53245
1.7613
1.9714
2.13212
2.17947
2.13948
2.0642
2.00417
1.97255
1.94833
1.92378
1.90132
1.88414
1.86995
1.85528
1.83772
1.81655
1.79406
1.77293
1.75305
1.73257
1.71188
1.69216