/*--------------------------------*- C++ -*----------------------------------*\
  =========                 |
  \\      /  F ield         | OpenFOAM: The Open Source CFD Toolbox
   \\    /   O peration     | Website:  https://openfoam.org
    \\  /    A nd           | Version:  7
     \\/     M anipulation  |
\*---------------------------------------------------------------------------*/
FoamFile
{
    version     2.0;
    format      ascii;
    class       volVectorField;
    location    "2.6";
    object      U;
}
// * * * * * * * * * * * * * * * * * * * * * * * * * * * * * * * * * * * * * //

dimensions      [0 1 -1 0 0 0 0];

internalField   nonuniform List<vector> 
4608
(
(3 -5.13018e-17 0)
(3 -2.03788e-16 0)
(3 1.48513e-16 0)
(3 2.44426e-16 0)
(3 1.68884e-16 0)
(3 3.38591e-16 0)
(3 1.00931e-15 0)
(3 5.4277e-16 0)
(3 1.91486e-16 0)
(3 -1.99928e-16 0)
(3 -4.76454e-16 0)
(3 -6.36375e-16 0)
(3 -3.69802e-16 0)
(3 3.70871e-16 0)
(3 1.19469e-15 0)
(3 7.56114e-16 0)
(3 1.43324e-16 0)
(3 -2.59249e-16 0)
(3 -5.52388e-16 0)
(3 5.82358e-16 0)
(3 1.02054e-15 0)
(3 7.89085e-16 0)
(3 9.82647e-16 0)
(3 7.33084e-16 0)
(3 1.86765e-18 0)
(3 -1.36491e-16 0)
(3 -1.23774e-16 0)
(3 -1.81401e-16 0)
(3 -2.68515e-16 0)
(3 -2.14043e-16 0)
(3 9.86504e-16 0)
(3 1.26828e-15 0)
(3 7.9619e-16 0)
(3 -7.46209e-17 0)
(3 -3.14795e-16 0)
(3 -2.75997e-16 0)
(3 -1.82097e-16 0)
(3 3.44648e-16 0)
(3 9.01166e-16 0)
(3 7.08347e-16 0)
(3 3.06931e-16 0)
(3 -3.54773e-17 0)
(3 3.41731e-16 0)
(3 1.16071e-15 0)
(3 1.37141e-15 0)
(3 1.5065e-15 0)
(3 1.85334e-15 0)
(3 7.95332e-16 0)
(3 -3.41152e-17 0)
(3 5.60959e-16 0)
(3 8.33524e-16 0)
(3 1.71196e-16 0)
(3 -7.20147e-17 0)
(3 -3.47906e-16 0)
(3 -2.21414e-16 0)
(3 -4.28542e-16 0)
(3 2.79431e-16 0)
(3 6.8195e-16 0)
(3 1.42181e-15 0)
(3 1.65661e-15 0)
(3 1.54573e-15 0)
(3 1.87072e-15 0)
(3 8.574e-16 0)
(3 -4.40515e-16 0)
(3 -1.09394e-16 0)
(3 1.86138e-16 0)
(3 1.2476e-15 0)
(3 1.75607e-15 0)
(3 1.8435e-15 0)
(3 2.25087e-15 0)
(3 1.80995e-15 0)
(3 -1.72107e-16 0)
(3 -8.16032e-17 0)
(3 6.58723e-16 0)
(3 1.06643e-15 0)
(3 3.73811e-16 0)
(3 -2.07613e-16 0)
(3 -5.9826e-16 0)
(3 -1.27096e-15 0)
(3 -1.60501e-15 0)
(3 -5.80552e-16 0)
(3 1.1248e-15 0)
(3 1.4175e-15 0)
(3 1.22434e-15 0)
(3 1.26366e-15 0)
(3 2.25235e-15 0)
(3 2.41804e-15 0)
(3 9.72939e-16 0)
(3 6.3742e-16 0)
(3 3.19492e-16 0)
(3 5.99589e-16 0)
(3 8.98411e-16 0)
(3 1.10728e-15 0)
(3 6.59648e-16 0)
(3 1.75199e-16 0)
(3 -4.35893e-18 0)
(3 6.38784e-17 0)
(3 -3.07711e-16 0)
(3 -1.61365e-16 0)
(3 3.26742e-16 0)
(3 -1.78199e-16 0)
(3 -2.80928e-16 0)
(3 -1.63863e-16 0)
(3 4.74182e-17 0)
(3 2.28935e-16 0)
(3 1.87956e-16 0)
(3 -6.19096e-16 0)
(3 -1.37219e-16 0)
(3 7.26413e-16 0)
(3 1.16086e-15 0)
(3 1.0607e-15 0)
(3 9.71267e-16 0)
(3 7.57642e-17 0)
(3 -1.17904e-16 0)
(3 9.94333e-17 0)
(3 1.18774e-15 0)
(3 1.64512e-15 0)
(3 1.01433e-15 0)
(3 1.45417e-15 0)
(3 1.93156e-15 0)
(3 7.01209e-17 0)
(3 -6.94523e-16 0)
(3 -1.08485e-15 0)
(3 -7.2304e-16 0)
(3 -2.14659e-16 0)
(3 2.82371e-16 0)
(3 4.05741e-16 0)
(3 8.38264e-16 0)
(3 5.41335e-16 0)
(3 -5.9991e-16 0)
(3 -1.53084e-15 0)
(3 -7.09006e-16 0)
(3 -3.01231e-16 0)
(3 -5.80721e-16 0)
(3 -8.89937e-16 0)
(3 4.38331e-16 0)
(3 1.06259e-15 0)
(3 1.48237e-15 0)
(3 2.0823e-15 0)
(3 2.88507e-15 0)
(3 1.89903e-15 0)
(3 1.39858e-15 0)
(3 1.41758e-15 0)
(3 2.33346e-15 0)
(3 1.31678e-16 0)
(3 -1.69341e-17 0)
(3 -6.86628e-16 0)
(3 -1.01276e-15 0)
(3 -3.14533e-16 0)
(3 3.69718e-16 0)
(3 7.50929e-16 0)
(3 5.03508e-16 0)
(3 5.68596e-16 0)
(3 6.43558e-16 0)
(3 1.52961e-16 0)
(3 3.14384e-17 0)
(3 3.91658e-16 0)
(3 3.85119e-16 0)
(3 9.50897e-16 0)
(3 1.26443e-15 0)
(3 1.51961e-15 0)
(3 1.80166e-15 0)
(3 1.6089e-15 0)
(3 9.52899e-16 0)
(3 3.81592e-16 0)
(3 7.01369e-16 0)
(3 3.46773e-16 0)
(3 2.06222e-16 0)
(3 -1.14818e-17 0)
(3 -1.2112e-19 0)
(3 2.44015e-16 0)
(3 7.19627e-16 0)
(3 7.51736e-16 0)
(3 6.45806e-16 0)
(3 6.4761e-16 0)
(3 3.72563e-16 0)
(3 7.04444e-16 0)
(3 1.71564e-15 0)
(3 2.47235e-15 0)
(3 2.3669e-15 0)
(3 2.53373e-15 0)
(3 2.46557e-15 0)
(3 2.2555e-15 0)
(3 1.45345e-15 0)
(3 1.08981e-15 0)
(3 5.6223e-17 0)
(3 3.21197e-16 0)
(3 1.045e-16 0)
(3 2.17362e-16 0)
(3 5.14934e-16 0)
(3 9.70228e-16 0)
(3 -6.02188e-16 0)
(3 7.24079e-17 0)
(3 1.22895e-16 0)
(3 5.19159e-16 0)
(3 1.30477e-15 0)
(3 9.26566e-16 0)
(3 2.00281e-16 0)
(3 3.13513e-17 0)
(3 1.63631e-16 0)
(3 5.53419e-16 0)
(3 8.24471e-16 0)
(3 1.29314e-15 0)
(3 1.38456e-15 0)
(3 1.2173e-15 0)
(3 8.12381e-16 0)
(3 -1.50424e-16 0)
(3 -5.33466e-16 0)
(3 -7.41388e-16 0)
(3 -7.52588e-16 0)
(3 -9.20136e-16 0)
(3 -8.65232e-16 0)
(3 4.1035e-17 0)
(3 3.30465e-16 0)
(3 7.92831e-16 0)
(3 -9.88568e-17 0)
(3 3.12376e-16 0)
(3 8.69144e-16 0)
(3 7.32904e-16 0)
(3 3.30872e-16 0)
(3 -4.14044e-16 0)
(3 -4.83504e-16 0)
(3 -1.96401e-16 0)
(3 2.37932e-16 0)
(3 6.52968e-16 0)
(3 5.53953e-16 0)
(3 1.73773e-16 0)
(3 -3.17388e-16 0)
(3 -7.6364e-16 0)
(3 -1.01486e-15 0)
(3 -8.85749e-16 0)
(3 -9.016e-16 0)
(3 -1.0937e-15 0)
(3 -1.03468e-15 0)
(3 -1.10506e-15 0)
(3 -1.41166e-15 0)
(3 -6.57757e-16 0)
(3 9.01651e-16 0)
(3 1.42717e-15 0)
(3 1.21404e-15 0)
(3 -3.5718e-16 0)
(3 -3.18649e-16 0)
(3 -2.01775e-16 0)
(3 -5.14919e-16 0)
(3 -8.88643e-16 0)
(3 -9.65977e-16 0)
(3 -7.47513e-16 0)
(3 8.38702e-17 0)
(3 3.48266e-16 0)
(3 6.50929e-16 0)
(3 9.73259e-16 0)
(3 9.95716e-16 0)
(3 2.67385e-16 0)
(3 -4.02453e-16 0)
(3 -1.13195e-15 0)
(3 -1.38597e-15 0)
(3 -8.93542e-16 0)
(3 -2.4412e-16 0)
(3 -3.25632e-16 0)
(3 -6.40151e-16 0)
(3 -1.99899e-16 0)
(3 5.38875e-17 0)
(3 6.19962e-16 0)
(3 1.36387e-15 0)
(3 -1.5799e-16 0)
(3 -3.2054e-16 0)
(3 -6.17071e-16 0)
(3 -7.22464e-16 0)
(3 -2.74247e-16 0)
(3 -5.24903e-16 0)
(3 -1.01517e-15 0)
(3 -9.92744e-16 0)
(3 -8.54187e-16 0)
(3 -5.70421e-17 0)
(3 7.05633e-16 0)
(3 1.03053e-15 0)
(3 1.97129e-16 0)
(3 -6.25188e-16 0)
(3 -1.1787e-15 0)
(3 -1.16492e-15 0)
(3 -4.31859e-16 0)
(3 -1.61076e-16 0)
(3 -8.76743e-16 0)
(3 -1.04928e-15 0)
(3 1.80914e-16 0)
(3 -2.43792e-16 0)
(3 -1.10727e-15 0)
(3 -1.55189e-15 0)
(3 4.85229e-17 0)
(3 -1.16737e-16 0)
(3 1.92762e-17 0)
(3 2.85499e-16 0)
(3 2.33522e-16 0)
(3 3.51645e-17 0)
(3 -2.5254e-16 0)
(3 -5.91814e-16 0)
(3 -6.23178e-16 0)
(3 -7.43722e-16 0)
(3 -7.38971e-16 0)
(3 -6.29863e-16 0)
(3 -5.88625e-17 0)
(3 6.32258e-18 0)
(3 -1.34674e-16 0)
(3 -2.01633e-16 0)
(3 2.47326e-16 0)
(3 3.66078e-16 0)
(3 -1.59736e-15 0)
(3 -1.48837e-15 0)
(3 -8.20614e-16 0)
(3 -1.65199e-15 0)
(3 -1.9984e-15 0)
(3 -2.48697e-15 0)
(3 9.08363e-18 0)
(3 2.07447e-16 0)
(3 5.71585e-16 0)
(3 9.01772e-16 0)
(3 4.08236e-16 0)
(3 4.80199e-17 0)
(3 8.72667e-17 0)
(3 1.76256e-17 0)
(3 8.66834e-17 0)
(3 -1.31945e-16 0)
(3 -4.59836e-16 0)
(3 3.07549e-17 0)
(3 3.2102e-16 0)
(3 6.99338e-16 0)
(3 4.32247e-16 0)
(3 3.13836e-16 0)
(3 3.38386e-17 0)
(3 -5.30233e-16 0)
(3 -6.19413e-16 0)
(3 -8.37604e-16 0)
(3 -9.54313e-16 0)
(3 -1.01589e-15 0)
(3 -1.12244e-15 0)
(3 -1.35334e-15 0)
(3 -8.66585e-17 0)
(3 1.0453e-16 0)
(3 -1.41191e-16 0)
(3 -4.08493e-16 0)
(3 -1.97015e-17 0)
(3 -1.14453e-16 0)
(3 -9.77795e-17 0)
(3 -2.1711e-16 0)
(3 -3.10227e-16 0)
(3 1.18377e-16 0)
(3 -1.69859e-16 0)
(3 -4.97293e-16 0)
(3 -3.33564e-16 0)
(3 1.31235e-16 0)
(3 3.48105e-16 0)
(3 4.8016e-16 0)
(3 -3.62511e-17 0)
(3 -5.74119e-16 0)
(3 -2.80461e-16 0)
(3 -6.93565e-16 0)
(3 -1.37535e-15 0)
(3 -1.14015e-15 0)
(3 2.82611e-17 0)
(3 2.08128e-16 0)
(3 6.85686e-17 0)
(3 -6.31435e-16 0)
(3 -1.04924e-15 0)
(3 -1.45839e-15 0)
(3 -3.75454e-16 0)
(3 6.2984e-16 0)
(3 9.14746e-16 0)
(3 7.19765e-16 0)
(3 -1.86878e-16 0)
(3 -1.02119e-15 0)
(3 -1.18925e-15 0)
(3 -1.23041e-15 0)
(3 -4.76937e-16 0)
(3 -1.29691e-16 0)
(3 6.11272e-16 0)
(3 6.26668e-16 0)
(3 5.14806e-16 0)
(3 5.26021e-16 0)
(3 5.75003e-16 0)
(3 2.37195e-16 0)
(3 -3.1117e-16 0)
(3 -7.59598e-16 0)
(3 -7.763e-16 0)
(3 9.87571e-17 0)
(3 1.08682e-16 0)
(3 1.11097e-16 0)
(3 1.72459e-16 0)
(3 1.37669e-17 0)
(3 -3.63554e-16 0)
(3 2.30876e-16 0)
(3 5.15771e-16 0)
(3 2.00623e-16 0)
(3 -1.4822e-16 0)
(3 -9.52205e-16 0)
(3 -1.07725e-15 0)
(3 2.22867e-16 0)
(3 1.12018e-15 0)
(3 1.52196e-15 0)
(3 1.25411e-15 0)
(3 9.38962e-16 0)
(3 9.35901e-16 0)
(3 1.39622e-15 0)
(3 1.51826e-15 0)
(3 1.75873e-15 0)
(3 2.11506e-15 0)
(3 5.76435e-16 0)
(3 -1.0607e-15 0)
(3 -1.06783e-15 0)
(3 -7.28316e-17 0)
(3 5.50598e-16 0)
(3 5.1147e-16 0)
(3 1.94371e-16 0)
(3 -2.84423e-16 0)
(3 -7.26887e-16 0)
(3 -1.2585e-15 0)
(3 -1.27865e-15 0)
(3 -8.33098e-16 0)
(3 -3.88516e-16 0)
(3 -4.15627e-16 0)
(3 -7.9002e-17 0)
(3 1.32223e-16 0)
(3 8.64848e-16 0)
(3 6.57748e-16 0)
(3 8.64415e-16 0)
(3 1.03652e-15 0)
(3 8.55465e-16 0)
(3 4.17759e-16 0)
(3 5.78531e-16 0)
(3 1.58297e-16 0)
(3 1.67246e-16 0)
(3 1.82524e-16 0)
(3 -1.52599e-16 0)
(3 -9.96863e-17 0)
(3 -2.26693e-16 0)
(3 3.90617e-16 0)
(3 4.29656e-16 0)
(3 2.73029e-16 0)
(3 2.55085e-16 0)
(3 2.53293e-16 0)
(3 3.07928e-16 0)
(3 2.66402e-16 0)
(3 4.41717e-16 0)
(3 1.04028e-15 0)
(3 3.98215e-16 0)
(3 -1.17248e-15 0)
(3 -5.98574e-16 0)
(3 -3.35257e-16 0)
(3 -1.58158e-16 0)
(3 -5.9034e-16 0)
(3 -8.87992e-16 0)
(3 -3.09789e-16 0)
(3 1.07757e-16 0)
(3 1.22949e-17 0)
(3 3.41506e-16 0)
(3 -7.71264e-17 0)
(3 -6.97025e-16 0)
(3 -2.19783e-17 0)
(3 -3.43444e-16 0)
(3 -3.10095e-16 0)
(3 2.05187e-16 0)
(3 5.93945e-16 0)
(3 7.27831e-16 0)
(3 1.08416e-15 0)
(3 8.89125e-16 0)
(3 8.11757e-16 0)
(3 8.09812e-16 0)
(3 7.22976e-16 0)
(3 2.27513e-16 0)
(3 -5.50552e-16 0)
(3 -1.0385e-15 0)
(3 -8.20856e-16 0)
(3 -1.09741e-15 0)
(3 -1.49783e-15 0)
(3 -1.15214e-15 0)
(3 8.54983e-17 0)
(3 3.17924e-16 0)
(3 1.82284e-17 0)
(3 8.83317e-17 0)
(3 -8.03934e-16 0)
(3 -8.88168e-16 0)
(3 1.20798e-16 0)
(3 -7.10349e-17 0)
(3 -7.23414e-16 0)
(3 -9.35748e-16 0)
(3 -5.99711e-16 0)
(3 -2.34039e-16 0)
(3 -2.96713e-18 0)
(3 -1.39362e-16 0)
(3 2.04476e-16 0)
(3 6.89457e-16 0)
(3 3.00964e-16 0)
(3 -4.89418e-16 0)
(3 -1.11727e-15 0)
(3 -1.21684e-15 0)
(3 -9.3935e-16 0)
(3 -8.97398e-16 0)
(3 -1.02926e-15 0)
(3 -6.53964e-16 0)
(3 -4.59888e-16 0)
(3 -4.8047e-16 0)
(3 -4.63522e-16 0)
(3 -5.38995e-16 0)
(3 -4.11425e-16 0)
(3 -4.5574e-16 0)
(3 3.40337e-17 0)
(3 -9.13416e-17 0)
(3 -4.85735e-16 0)
(3 -3.16445e-16 0)
(3 2.00377e-16 0)
(3 2.48445e-16 0)
(3 4.73873e-16 0)
(3 2.84425e-16 0)
(3 2.95653e-16 0)
(3 2.52977e-16 0)
(3 -3.52349e-18 0)
(3 -1.41908e-16 0)
(3 -6.29779e-16 0)
(3 -8.40459e-16 0)
(3 -9.49943e-16 0)
(3 -7.01831e-16 0)
(3 -9.58063e-16 0)
(3 -9.27188e-16 0)
(3 -1.27816e-15 0)
(3 -1.47381e-15 0)
(3 -9.89726e-16 0)
(3 -4.9261e-16 0)
(3 1.72404e-16 0)
(3 -2.49634e-17 0)
(3 1.68298e-17 0)
(3 -1.18341e-16 0)
(3 -3.69469e-16 0)
(3 8.34616e-16 0)
(3 9.56095e-16 0)
(3 3.10928e-16 0)
(3 2.91318e-17 0)
(3 4.50249e-17 0)
(3 3.99401e-17 0)
(3 2.6398e-16 0)
(3 -9.20003e-17 0)
(3 6.95158e-16 0)
(3 1.04358e-15 0)
(3 9.08214e-16 0)
(3 1.20604e-16 0)
(3 -3.79425e-17 0)
(3 -5.07296e-17 0)
(3 -2.13e-16 0)
(3 -8.25617e-16 0)
(3 -1.3169e-15 0)
(3 -1.35309e-15 0)
(3 -1.36441e-15 0)
(3 -7.81504e-16 0)
(3 1.61421e-16 0)
(3 9.45562e-17 0)
(3 2.11583e-16 0)
(3 7.59253e-16 0)
(3 2.46579e-16 0)
(3 -3.70684e-16 0)
(3 -8.13426e-16 0)
(3 -1.04018e-15 0)
(3 -1.29055e-15 0)
(3 -8.44295e-16 0)
(3 -4.56067e-16 0)
(3 6.9058e-17 0)
(3 1.60752e-16 0)
(3 -5.76863e-17 0)
(3 -7.75552e-16 0)
(3 -9.11297e-16 0)
(3 -7.03274e-16 0)
(3 -6.04894e-16 0)
(3 -8.42868e-16 0)
(3 -8.85884e-16 0)
(3 -1.04911e-15 0)
(3 -1.14764e-15 0)
(3 -1.20412e-15 0)
(3 -7.27869e-16 0)
(3 2.76034e-16 0)
(3 2.77531e-16 0)
(3 1.34783e-16 0)
(3 1.17045e-16 0)
(3 -2.42138e-16 0)
(3 -9.75957e-17 0)
(3 1.12785e-16 0)
(3 3.36844e-16 0)
(3 4.88801e-16 0)
(3 6.8759e-16 0)
(3 4.57715e-16 0)
(3 3.04675e-16 0)
(3 -3.7467e-16 0)
(3 -8.8548e-16 0)
(3 -9.9504e-16 0)
(3 -3.72872e-16 0)
(3 -6.18988e-16 0)
(3 -5.9378e-16 0)
(3 -8.6196e-16 0)
(3 -9.56087e-16 0)
(3 -8.71931e-16 0)
(3 -6.72583e-16 0)
(3 -3.04596e-17 0)
(3 3.69705e-16 0)
(3 4.02454e-16 0)
(3 7.90653e-17 0)
(3 -4.51199e-17 0)
(3 7.47339e-18 0)
(3 5.08952e-16 0)
(3 9.35087e-16 0)
(3 9.79904e-16 0)
(3 9.26798e-16 0)
(3 1.39167e-15 0)
(3 1.03933e-15 0)
(3 5.50642e-16 0)
(3 -1.3094e-16 0)
(3 -9.73766e-16 0)
(3 -1.0394e-15 0)
(3 -6.11129e-16 0)
(3 9.58081e-17 0)
(3 1.03722e-16 0)
(3 6.15852e-16 0)
(3 7.85864e-17 0)
(3 -2.95875e-16 0)
(3 -2.88894e-16 0)
(3 4.11643e-17 0)
(3 3.58114e-16 0)
(3 8.92276e-16 0)
(3 9.69297e-16 0)
(3 -1.01115e-16 0)
(3 -1.29612e-16 0)
(3 -2.08609e-16 0)
(3 -3.85729e-17 0)
(3 -8.53846e-18 0)
(3 -1.00177e-16 0)
(3 -2.55622e-16 0)
(3 -5.53571e-16 0)
(3 -1.19616e-15 0)
(3 -1.20482e-15 0)
(3 -1.15685e-15 0)
(3 -6.5322e-16 0)
(3 -9.01777e-16 0)
(3 -6.53818e-16 0)
(3 -9.09489e-16 0)
(3 -5.84452e-16 0)
(3 -1.55537e-16 0)
(3 -3.05282e-16 0)
(3 -2.36064e-16 0)
(3 -2.62402e-16 0)
(3 2.30434e-16 0)
(3 6.6686e-16 0)
(3 5.1397e-16 0)
(3 1.83359e-17 0)
(3 -1.99942e-16 0)
(3 -2.2972e-17 0)
(3 -2.26275e-16 0)
(3 -6.03142e-16 0)
(3 -9.15914e-16 0)
(3 -8.73271e-16 0)
(3 -8.76237e-16 0)
(3 -7.82292e-16 0)
(3 -6.11316e-16 0)
(3 -5.96343e-16 0)
(3 -5.84873e-16 0)
(3 -5.70171e-16 0)
(3 -4.19009e-16 0)
(3 -2.72377e-16 0)
(3 -3.22896e-16 0)
(3 -1.75563e-16 0)
(3 -5.36635e-16 0)
(3 -2.23335e-16 0)
(3 -4.05442e-17 0)
(3 2.923e-16 0)
(3 -4.82409e-17 0)
(3 -3.41831e-16 0)
(3 -7.67244e-16 0)
(3 -1.88352e-15 0)
(3 -5.67502e-17 0)
(3 1.70038e-16 0)
(3 3.24889e-16 0)
(3 -5.58153e-17 0)
(3 -2.06267e-16 0)
(3 -3.37061e-16 0)
(3 -6.30392e-16 0)
(3 -3.61023e-16 0)
(3 -2.63374e-16 0)
(3 -2.47953e-16 0)
(3 -3.58937e-16 0)
(3 -7.65677e-16 0)
(3 -3.05944e-16 0)
(3 2.855e-18 0)
(3 9.42714e-16 0)
(3 1.35825e-15 0)
(3 1.4166e-15 0)
(3 1.64253e-15 0)
(3 1.46366e-15 0)
(3 1.55071e-15 0)
(3 1.08208e-16 0)
(3 -1.1708e-15 0)
(3 -1.77998e-15 0)
(3 -1.56573e-15 0)
(3 -1.48152e-16 0)
(3 -4.53683e-16 0)
(3 -6.60345e-17 0)
(3 3.46812e-16 0)
(3 8.0691e-16 0)
(3 3.83898e-16 0)
(3 3.57948e-16 0)
(3 4.05895e-16 0)
(3 -4.89519e-16 0)
(3 -8.457e-16 0)
(3 -7.42885e-16 0)
(3 -7.46596e-16 0)
(3 -5.6063e-16 0)
(3 2.83483e-16 0)
(3 1.69328e-15 0)
(3 1.83385e-15 0)
(3 2.43446e-15 0)
(3 2.36802e-15 0)
(3 1.81279e-15 0)
(3 8.13564e-16 0)
(3 5.59452e-17 0)
(3 -1.64945e-16 0)
(3 -1.72393e-15 0)
(3 -1.29366e-15 0)
(3 2.05345e-16 0)
(3 2.60221e-17 0)
(3 1.30973e-16 0)
(3 7.34522e-16 0)
(3 6.08316e-16 0)
(3 4.47689e-16 0)
(3 5.35364e-16 0)
(3 4.28424e-16 0)
(3 -4.1102e-16 0)
(3 -1.02833e-15 0)
(3 -1.57213e-15 0)
(3 -1.37618e-15 0)
(3 -4.0779e-16 0)
(3 1.01723e-15 0)
(3 1.46559e-15 0)
(3 2.77846e-15 0)
(3 2.19189e-15 0)
(3 -6.78152e-16 0)
(3 -1.05242e-15 0)
(3 -8.09649e-16 0)
(3 -6.03952e-16 0)
(3 -1.13958e-15 0)
(3 -2.25179e-15 0)
(3 -9.13499e-16 0)
(3 2.87792e-16 0)
(3 4.06537e-16 0)
(3 2.11743e-16 0)
(3 2.99005e-16 0)
(3 2.45185e-16 0)
(3 2.65775e-17 0)
(3 -2.21083e-16 0)
(3 -3.51625e-16 0)
(3 -3.33014e-16 0)
(3 -4.53657e-16 0)
(3 -1.09733e-15 0)
(3 -1.13421e-15 0)
(3 -3.15056e-17 0)
(3 4.67239e-16 0)
(3 1.12463e-15 0)
(3 2.87667e-15 0)
(3 1.45642e-15 0)
(3 -1.28025e-15 0)
(3 -1.63356e-15 0)
(3 -1.51297e-15 0)
(3 -1.40504e-15 0)
(3 -1.47117e-15 0)
(3 -1.59495e-15 0)
(3 -1.53923e-15 0)
(2.93225 0.0260291 0)
(2.84645 0.0688002 0)
(2.76064 0.132112 0)
(2.66143 0.250338 0)
(2.5816 0.342392 0)
(2.50477 0.440812 0)
(2.41693 0.549417 0)
(2.35252 0.628164 0)
(2.31243 0.723496 0)
(2.25825 0.794762 0)
(2.24814 0.855845 0)
(2.28426 0.884264 0)
(2.32833 0.895933 0)
(2.33587 0.89076 0)
(2.34378 0.879124 0)
(2.34543 0.869808 0)
(2.34613 0.855841 0)
(2.34839 0.849027 0)
(2.34788 0.849349 0)
(2.34266 0.850227 0)
(2.33824 0.850744 0)
(2.33502 0.850356 0)
(2.33608 0.849525 0)
(2.33833 0.849256 0)
(2.99855 0.0014828 0)
(2.98978 0.0125313 0)
(2.96281 0.0473965 0)
(2.89989 0.132626 0)
(2.80556 0.272913 0)
(2.68435 0.459571 0)
(2.52043 0.692067 0)
(2.39968 0.893897 0)
(2.21659 1.0771 0)
(2.17056 1.09485 0)
(2.13442 1.04158 0)
(2.19064 1.00261 0)
(2.25708 0.948103 0)
(2.29517 0.899937 0)
(2.32902 0.860305 0)
(2.34802 0.837922 0)
(2.35363 0.830236 0)
(2.3605 0.832741 0)
(2.35846 0.838576 0)
(2.35275 0.846469 0)
(2.34594 0.850273 0)
(2.33981 0.852404 0)
(2.338 0.852645 0)
(2.33921 0.850719 0)
(3 5.38343e-07 0)
(3.00001 8.25936e-06 0)
(3.00003 -6.09388e-05 0)
(2.99985 0.00013502 0)
(2.99864 0.00187039 0)
(2.99142 0.0122275 0)
(2.96406 0.056222 0)
(2.90584 0.164613 0)
(2.75409 0.428412 0)
(2.61031 0.692277 0)
(2.43994 0.849449 0)
(2.33757 0.934938 0)
(2.28967 0.913718 0)
(2.30254 0.895056 0)
(2.3147 0.889693 0)
(2.33823 0.880795 0)
(2.35225 0.8559 0)
(2.36242 0.841634 0)
(2.36389 0.842487 0)
(2.36099 0.844448 0)
(2.35404 0.847275 0)
(2.34782 0.850666 0)
(2.34559 0.851744 0)
(2.34398 0.850584 0)
(3 -1.06328e-10 0)
(3 -2.11191e-07 0)
(3 -1.69879e-06 0)
(3 -1.59539e-06 0)
(3.00001 -8.90361e-06 0)
(2.99999 2.29877e-05 0)
(3 3.49385e-06 0)
(2.99944 0.000845583 0)
(2.98744 0.020696 0)
(2.91262 0.150442 0)
(2.74204 0.432427 0)
(2.42207 0.807952 0)
(2.35746 0.871557 0)
(2.29549 0.941358 0)
(2.29333 0.94158 0)
(2.30529 0.921339 0)
(2.32508 0.887243 0)
(2.34524 0.855031 0)
(2.36015 0.839711 0)
(2.36385 0.835444 0)
(2.36301 0.838039 0)
(2.36098 0.84107 0)
(2.35692 0.845128 0)
(2.35243 0.848261 0)
(3 -3.5812e-11 0)
(3 -1.15234e-09 0)
(3 -2.18752e-08 0)
(3 -1.20537e-07 0)
(3 -7.63348e-07 0)
(3 -7.22082e-07 0)
(3 -2.32609e-06 0)
(3 -4.20028e-06 0)
(3.00004 -8.98565e-05 0)
(2.99939 0.00081293 0)
(2.98457 0.0206491 0)
(2.86165 0.178055 0)
(2.70584 0.433099 0)
(2.36316 0.816471 0)
(2.31864 0.873745 0)
(2.30461 0.886395 0)
(2.30833 0.881833 0)
(2.313 0.87695 0)
(2.33506 0.863708 0)
(2.35369 0.850711 0)
(2.36034 0.847955 0)
(2.36111 0.843079 0)
(2.35993 0.843039 0)
(2.35433 0.850083 0)
(3 -1.14026e-12 0)
(3 3.22125e-11 0)
(3 2.96884e-10 0)
(3 -1.1817e-09 0)
(3 -2.24281e-09 0)
(3 -4.19104e-08 0)
(3 -5.91942e-08 0)
(3 -3.04255e-07 0)
(3 -6.20181e-06 0)
(3 -5.83244e-06 0)
(3.00003 -7.29196e-05 0)
(2.99858 0.00205859 0)
(2.97819 0.0305181 0)
(2.78603 0.261046 0)
(2.59322 0.524943 0)
(2.39913 0.774181 0)
(2.26433 0.919775 0)
(2.27144 0.908724 0)
(2.3002 0.879841 0)
(2.31805 0.86669 0)
(2.33601 0.859693 0)
(2.34528 0.851702 0)
(2.35178 0.84287 0)
(2.35162 0.84191 0)
(3 9.3889e-16 0)
(3 3.0601e-13 0)
(3 2.80853e-11 0)
(3 2.52385e-11 0)
(3 2.99941e-11 0)
(3 -4.74424e-11 0)
(3 -5.68396e-10 0)
(3 -4.61187e-10 0)
(3 -2.44384e-08 0)
(3 -3.37709e-07 0)
(3 -6.83141e-06 0)
(3.00001 -4.49538e-06 0)
(3.00001 -4.77466e-05 0)
(2.99434 0.00795095 0)
(2.95254 0.065114 0)
(2.7163 0.361733 0)
(2.46757 0.673335 0)
(2.40218 0.771457 0)
(2.32524 0.842033 0)
(2.30344 0.857987 0)
(2.31191 0.855012 0)
(2.32729 0.846589 0)
(2.33726 0.837845 0)
(2.34194 0.841083 0)
(3 -7.98057e-16 0)
(3 2.3385e-15 0)
(3 6.87867e-14 0)
(3 1.98222e-12 0)
(3 5.4943e-12 0)
(3 4.88927e-12 0)
(3 2.58365e-12 0)
(3 2.4931e-12 0)
(3 1.51848e-10 0)
(3 -7.2945e-10 0)
(3 -2.48086e-08 0)
(3 -6.19839e-07 0)
(3 -3.03941e-06 0)
(3.00001 -2.23613e-05 0)
(2.99974 0.000407524 0)
(2.98346 0.0222803 0)
(2.88939 0.147881 0)
(2.63226 0.501909 0)
(2.35767 0.82198 0)
(2.33734 0.81942 0)
(2.31141 0.839464 0)
(2.31024 0.840386 0)
(2.32263 0.837885 0)
(2.33469 0.838478 0)
(3 1.07008e-17 0)
(3 6.37918e-16 0)
(3 7.17407e-16 0)
(3 6.00262e-15 0)
(3 5.48879e-14 0)
(3 4.81203e-13 0)
(3 6.3484e-13 0)
(3 1.11101e-12 0)
(3 8.83208e-12 0)
(3 1.48287e-11 0)
(3 9.06511e-11 0)
(3 -1.68461e-08 0)
(3 -3.43616e-08 0)
(3 -2.97084e-06 0)
(3 -4.8996e-06 0)
(2.99999 1.86569e-05 0)
(2.99793 0.00359748 0)
(2.94611 0.0744742 0)
(2.75824 0.326517 0)
(2.55362 0.610615 0)
(2.31647 0.88275 0)
(2.2807 0.867906 0)
(2.3106 0.845875 0)
(2.32095 0.844618 0)
(3 1.54e-15 0)
(3 1.29486e-15 0)
(3 1.48533e-15 0)
(3 2.20264e-15 0)
(3 2.32699e-15 0)
(3 3.85296e-15 0)
(3 1.55312e-14 0)
(3 9.51462e-14 0)
(3 2.17752e-13 0)
(3 2.96831e-12 0)
(3 6.05403e-12 0)
(3 5.72807e-11 0)
(3 -1.18698e-10 0)
(3 -2.50664e-08 0)
(3 -9.04298e-07 0)
(3 -7.85336e-07 0)
(3 -1.03005e-05 0)
(2.99937 0.000960705 0)
(2.98443 0.0264038 0)
(2.88017 0.183776 0)
(2.57002 0.585368 0)
(2.46075 0.710137 0)
(2.36071 0.814287 0)
(2.33047 0.854056 0)
(3 1.15679e-15 0)
(3 6.70358e-16 0)
(3 1.05106e-15 0)
(3 1.22575e-15 0)
(3 1.43288e-15 0)
(3 1.96768e-15 0)
(3 2.26835e-15 0)
(3 4.59662e-15 0)
(3 5.3354e-15 0)
(3 3.01464e-14 0)
(3 2.87522e-13 0)
(3 1.4237e-11 0)
(3 1.6452e-11 0)
(3 1.49055e-10 0)
(3 -1.41137e-08 0)
(3 -9.50245e-08 0)
(3 -1.41788e-06 0)
(3 -6.17294e-06 0)
(2.99994 0.000107057 0)
(2.99496 0.00854473 0)
(2.91779 0.119728 0)
(2.76064 0.387334 0)
(2.4285 0.770754 0)
(2.3546 0.852229 0)
(3 -1.17665e-15 0)
(3 -2.11546e-16 0)
(3 4.79253e-16 0)
(3 7.66215e-16 0)
(3 1.93702e-15 0)
(3 3.0419e-15 0)
(3 2.87346e-15 0)
(3 1.97093e-15 0)
(3 2.36336e-15 0)
(3 2.44569e-15 0)
(3 4.86441e-15 0)
(3 4.74009e-13 0)
(3 3.33446e-12 0)
(3 1.87588e-11 0)
(3 9.47604e-11 0)
(3 -1.84421e-09 0)
(3 -2.42509e-08 0)
(3 -1.74796e-06 0)
(3 -1.33754e-06 0)
(3 -3.16862e-06 0)
(2.99799 0.00381812 0)
(2.96964 0.0561451 0)
(2.78597 0.320442 0)
(2.50357 0.673204 0)
(3 -1.3307e-15 0)
(3 4.74137e-16 0)
(3 7.74057e-16 0)
(3 1.1025e-15 0)
(3 1.55947e-15 0)
(3 1.8104e-15 0)
(3 1.3261e-15 0)
(3 1.01247e-15 0)
(3 1.82309e-15 0)
(3 2.36238e-15 0)
(3 4.4856e-16 0)
(3 -1.39876e-15 0)
(3 5.0978e-14 0)
(3 1.20219e-12 0)
(3 1.80864e-11 0)
(3 1.97911e-11 0)
(3 -7.25399e-11 0)
(3 -3.56506e-08 0)
(3 -4.95601e-07 0)
(3 -4.13438e-07 0)
(3 -3.26404e-06 0)
(2.99944 0.00105764 0)
(2.97464 0.0457367 0)
(2.88865 0.195825 0)
(3 -1.36056e-15 0)
(3 -1.23076e-15 0)
(3 -9.48628e-16 0)
(3 -3.49997e-17 0)
(3 3.45959e-16 0)
(3 -7.06017e-17 0)
(3 3.30706e-16 0)
(3 -5.77648e-17 0)
(3 3.62617e-16 0)
(3 1.13164e-15 0)
(3 -1.66178e-15 0)
(3 -2.11329e-15 0)
(3 -1.59022e-15 0)
(3 2.19097e-15 0)
(3 5.15377e-13 0)
(3 4.13835e-12 0)
(3 2.46764e-12 0)
(3 7.71306e-11 0)
(3 -1.95834e-08 0)
(3 -7.7376e-08 0)
(3 -6.7558e-07 0)
(3 -1.96471e-06 0)
(2.99953 0.00102835 0)
(2.99569 0.0127483 0)
(3 1.0387e-16 0)
(3 -1.12468e-16 0)
(3 -9.64068e-16 0)
(3 -4.30999e-16 0)
(3 -2.79947e-16 0)
(3 -4.57371e-16 0)
(3 -7.08721e-16 0)
(3 -1.22039e-15 0)
(3 -8.83536e-16 0)
(3 1.21666e-16 0)
(3 -8.75472e-16 0)
(3 -1.75269e-15 0)
(3 -1.12033e-15 0)
(3 -6.61326e-16 0)
(3 2.63299e-15 0)
(3 7.8076e-14 0)
(3 1.91755e-12 0)
(3 1.57841e-11 0)
(3 -4.50579e-11 0)
(3 -3.90884e-09 0)
(3 -1.01927e-07 0)
(3 -3.88508e-07 0)
(3 6.08885e-06 0)
(3.00002 -8.28849e-05 0)
(3 5.87886e-16 0)
(3 -6.43803e-16 0)
(3 -7.65153e-16 0)
(3 -1.03821e-15 0)
(3 -9.42713e-16 0)
(3 -7.30396e-16 0)
(3 -1.19497e-15 0)
(3 -1.03599e-15 0)
(3 -1.58526e-15 0)
(3 -1.42946e-15 0)
(3 -4.37363e-16 0)
(3 4.2259e-16 0)
(3 1.43868e-15 0)
(3 2.5587e-15 0)
(3 -2.38646e-16 0)
(3 1.35959e-15 0)
(3 6.08031e-14 0)
(3 2.60071e-12 0)
(3 1.2168e-12 0)
(3 -3.78124e-11 0)
(3 -5.53563e-09 0)
(3 -5.21928e-09 0)
(3 -2.43843e-07 0)
(3 -9.08537e-06 0)
(3 -1.5171e-15 0)
(3 -1.78278e-15 0)
(3 -1.36911e-15 0)
(3 -1.82952e-15 0)
(3 -1.81051e-15 0)
(3 -1.3665e-15 0)
(3 -8.48274e-16 0)
(3 -8.74469e-16 0)
(3 -1.38382e-15 0)
(3 -1.25537e-15 0)
(3 -1.2032e-16 0)
(3 1.25883e-15 0)
(3 2.44565e-15 0)
(3 3.25108e-15 0)
(3 2.85465e-15 0)
(3 -1.58234e-15 0)
(3 -5.05397e-14 0)
(3 -2.72574e-12 0)
(3 -2.59889e-12 0)
(3 1.30159e-10 0)
(3 5.03149e-10 0)
(3 1.94548e-07 0)
(3 1.71663e-07 0)
(3 2.12102e-07 0)
(3 -2.75401e-16 0)
(3 4.7704e-17 0)
(3 -7.82744e-16 0)
(3 -1.40086e-15 0)
(3 -1.78077e-15 0)
(3 -1.51079e-15 0)
(3 -8.03986e-16 0)
(3 -1.0604e-15 0)
(3 -1.05228e-15 0)
(3 -1.09183e-16 0)
(3 1.18969e-15 0)
(3 2.18803e-15 0)
(3 2.99346e-15 0)
(3 3.4845e-15 0)
(3 6.82383e-16 0)
(3 -9.3907e-14 0)
(3 -1.25963e-12 0)
(3 -6.71759e-12 0)
(3 3.25218e-11 0)
(3 1.23998e-08 0)
(3 3.00593e-08 0)
(3 3.93048e-07 0)
(3 6.07485e-06 0)
(2.99996 -0.000103441 0)
(3 -7.0522e-16 0)
(3 -5.94389e-16 0)
(3 -1.17133e-15 0)
(3 -1.01742e-15 0)
(3 -1.65965e-15 0)
(3 -1.89416e-15 0)
(3 -1.78744e-15 0)
(3 -2.15735e-15 0)
(3 -1.61852e-15 0)
(3 -1.93388e-16 0)
(3 1.9751e-16 0)
(3 7.22718e-16 0)
(3 5.8365e-16 0)
(3 -1.82549e-15 0)
(3 -5.32748e-13 0)
(3 -4.47663e-12 0)
(3 -4.47152e-12 0)
(3 -1.91603e-11 0)
(3 2.23578e-08 0)
(3 1.27834e-07 0)
(3 3.41257e-07 0)
(3 1.13911e-06 0)
(2.99966 -0.000688828 0)
(2.98965 -0.0195179 0)
(3 -1.43356e-15 0)
(3 -2.08941e-15 0)
(3 -2.1958e-15 0)
(3 -1.86355e-15 0)
(3 -1.91017e-15 0)
(3 -2.26815e-15 0)
(3 -2.76159e-15 0)
(3 -2.1429e-15 0)
(3 -1.48997e-15 0)
(3 -9.69178e-16 0)
(3 -9.42675e-16 0)
(3 -2.09542e-15 0)
(3 -5.58606e-14 0)
(3 -9.81155e-13 0)
(3 -1.81388e-11 0)
(3 -1.73141e-11 0)
(3 2.44481e-11 0)
(3 3.70432e-08 0)
(3 4.96014e-07 0)
(3 4.64566e-07 0)
(3 3.03513e-06 0)
(2.9994 -0.00124054 0)
(2.97859 -0.0344542 0)
(2.83721 -0.251802 0)
(3 -1.44366e-15 0)
(3 -1.40897e-15 0)
(3 -1.17337e-15 0)
(3 -9.90909e-16 0)
(3 -1.06244e-15 0)
(3 -1.31774e-15 0)
(3 -1.18538e-15 0)
(3 -1.04344e-15 0)
(3 -1.2791e-15 0)
(3 -2.68196e-15 0)
(3 -5.51279e-15 0)
(3 -5.08323e-13 0)
(3 -3.41203e-12 0)
(3 -1.73081e-11 0)
(3 -9.27935e-11 0)
(3 1.81542e-09 0)
(3 2.66019e-08 0)
(3 1.40652e-06 0)
(3 1.59761e-06 0)
(3 4.34769e-06 0)
(2.99795 -0.00421338 0)
(2.97348 -0.0502009 0)
(2.75591 -0.353533 0)
(2.54839 -0.628135 0)
(3 -9.61729e-16 0)
(3 -1.40704e-15 0)
(3 -1.05959e-16 0)
(3 1.82756e-16 0)
(3 1.22295e-16 0)
(3 -4.39506e-16 0)
(3 -1.58278e-15 0)
(3 -4.56903e-15 0)
(3 -6.50133e-15 0)
(3 -2.86765e-14 0)
(3 -2.92221e-13 0)
(3 -1.47253e-11 0)
(3 -1.64555e-11 0)
(3 -1.2468e-10 0)
(3 1.56229e-08 0)
(3 9.59364e-08 0)
(3 1.58833e-06 0)
(3 5.164e-06 0)
(2.99995 -8.80167e-05 0)
(2.99467 -0.00911603 0)
(2.91884 -0.117804 0)
(2.75828 -0.394894 0)
(2.41453 -0.792539 0)
(2.37155 -0.822554 0)
(3 9.04393e-16 0)
(3 3.26886e-16 0)
(3 -7.67735e-16 0)
(3 -1.68185e-15 0)
(3 -8.65235e-16 0)
(3 -2.61158e-15 0)
(3 -1.20208e-14 0)
(3 -9.07506e-14 0)
(3 -2.03538e-13 0)
(3 -3.07733e-12 0)
(3 -5.62366e-12 0)
(3 -6.78148e-11 0)
(3 1.97161e-10 0)
(3 2.34678e-08 0)
(3 9.24609e-07 0)
(3 8.15874e-07 0)
(3 9.97766e-06 0)
(2.99937 -0.000958624 0)
(2.98434 -0.0261871 0)
(2.88102 -0.184116 0)
(2.57012 -0.585651 0)
(2.46155 -0.717852 0)
(2.35434 -0.811895 0)
(2.32988 -0.848876 0)
(3 6.09311e-16 0)
(3 1.22813e-17 0)
(3 -6.91638e-16 0)
(3 -5.82194e-15 0)
(3 -5.28064e-14 0)
(3 -4.72595e-13 0)
(3 -6.11784e-13 0)
(3 -1.08296e-12 0)
(3 -8.79865e-12 0)
(3 -1.48022e-11 0)
(3 -9.2825e-11 0)
(3 1.61454e-08 0)
(3 3.82509e-08 0)
(3 2.81319e-06 0)
(3 4.95302e-06 0)
(2.99999 -1.90184e-05 0)
(2.99795 -0.00362704 0)
(2.94648 -0.0736877 0)
(2.75406 -0.330451 0)
(2.56139 -0.606037 0)
(2.31875 -0.879819 0)
(2.27951 -0.875158 0)
(2.30235 -0.847834 0)
(2.32147 -0.840447 0)
(3 6.05945e-16 0)
(3 -2.97727e-15 0)
(3 -6.96401e-14 0)
(3 -1.98514e-12 0)
(3 -5.48698e-12 0)
(3 -4.88326e-12 0)
(3 -2.52843e-12 0)
(3 -2.4262e-12 0)
(3 -1.52547e-10 0)
(3 7.27788e-10 0)
(3 2.52706e-08 0)
(3 6.14471e-07 0)
(3 3.07207e-06 0)
(3.00001 2.18178e-05 0)
(2.99974 -0.000399499 0)
(2.98333 -0.0225271 0)
(2.89074 -0.14669 0)
(2.63057 -0.504629 0)
(2.35733 -0.822269 0)
(2.33986 -0.818373 0)
(2.31375 -0.8385 0)
(2.30866 -0.841843 0)
(2.3197 -0.839593 0)
(2.33392 -0.834808 0)
(3 -8.02462e-16 0)
(3 -3.02079e-13 0)
(3 -2.82323e-11 0)
(3 -2.52127e-11 0)
(3 -2.99239e-11 0)
(3 4.68092e-11 0)
(3 5.68815e-10 0)
(3 4.46075e-10 0)
(3 2.45039e-08 0)
(3 3.37712e-07 0)
(3 6.85147e-06 0)
(3.00001 4.50973e-06 0)
(3.00001 4.79632e-05 0)
(2.99434 -0.00796212 0)
(2.95267 -0.0649358 0)
(2.71579 -0.362308 0)
(2.46822 -0.672546 0)
(2.40243 -0.772795 0)
(2.32454 -0.841972 0)
(2.30364 -0.857396 0)
(2.31234 -0.854829 0)
(2.32744 -0.847079 0)
(2.33707 -0.838508 0)
(2.34147 -0.839667 0)
(3 1.1328e-12 0)
(3 -3.14584e-11 0)
(3 -2.9668e-10 0)
(3 1.16073e-09 0)
(3 2.25542e-09 0)
(3 4.20294e-08 0)
(3 5.9158e-08 0)
(3 3.03614e-07 0)
(3 6.19884e-06 0)
(3 5.83025e-06 0)
(3.00003 7.30614e-05 0)
(2.99858 -0.00206056 0)
(2.9782 -0.0305224 0)
(2.78607 -0.261017 0)
(2.59299 -0.52504 0)
(2.39956 -0.773916 0)
(2.2643 -0.919456 0)
(2.27138 -0.908833 0)
(2.29992 -0.880264 0)
(2.31799 -0.86644 0)
(2.33597 -0.859383 0)
(2.34547 -0.851996 0)
(2.3514 -0.842944 0)
(2.35151 -0.84166 0)
(3 3.53129e-11 0)
(3 1.16635e-09 0)
(3 2.13274e-08 0)
(3 1.19965e-07 0)
(3 7.63728e-07 0)
(3 7.2257e-07 0)
(3 2.31672e-06 0)
(3 4.1872e-06 0)
(3.00004 8.96718e-05 0)
(2.99939 -0.000813014 0)
(2.98458 -0.0206386 0)
(2.8616 -0.178098 0)
(2.70598 -0.43306 0)
(2.36309 -0.816505 0)
(2.31855 -0.873737 0)
(2.30464 -0.886373 0)
(2.30841 -0.881821 0)
(2.31277 -0.877174 0)
(2.335 -0.863799 0)
(2.3536 -0.850551 0)
(2.3605 -0.847376 0)
(2.3611 -0.843275 0)
(2.35971 -0.843378 0)
(2.3541 -0.850371 0)
(3 1.044e-10 0)
(3 2.09557e-07 0)
(3 1.69848e-06 0)
(3 1.59525e-06 0)
(3.00001 8.9046e-06 0)
(2.99999 -2.29705e-05 0)
(3 -3.1172e-06 0)
(2.99944 -0.000847955 0)
(2.98746 -0.0206708 0)
(2.9125 -0.150569 0)
(2.74224 -0.432236 0)
(2.42205 -0.807877 0)
(2.35738 -0.871696 0)
(2.29535 -0.941423 0)
(2.2933 -0.94158 0)
(2.30523 -0.92134 0)
(2.32559 -0.887008 0)
(2.34478 -0.855393 0)
(2.36005 -0.839797 0)
(2.36379 -0.835289 0)
(2.36316 -0.837826 0)
(2.36103 -0.841185 0)
(2.3569 -0.845386 0)
(2.35233 -0.848304 0)
(3 -5.37826e-07 0)
(3.00001 -8.25974e-06 0)
(3.00003 6.09494e-05 0)
(2.99985 -0.00013477 0)
(2.99864 -0.00187196 0)
(2.99142 -0.0122183 0)
(2.96405 -0.0562264 0)
(2.90581 -0.164655 0)
(2.7542 -0.428279 0)
(2.6102 -0.692362 0)
(2.43997 -0.849463 0)
(2.33758 -0.934932 0)
(2.28968 -0.913692 0)
(2.30249 -0.895097 0)
(2.31468 -0.889684 0)
(2.33818 -0.880789 0)
(2.35249 -0.855686 0)
(2.36254 -0.841768 0)
(2.36374 -0.842544 0)
(2.36085 -0.84437 0)
(2.35406 -0.847196 0)
(2.34786 -0.850723 0)
(2.34561 -0.851823 0)
(2.34393 -0.850552 0)
(2.99855 -0.00148116 0)
(2.98978 -0.0125361 0)
(2.96282 -0.0473985 0)
(2.8999 -0.132607 0)
(2.8055 -0.272981 0)
(2.68445 -0.459515 0)
(2.52039 -0.692078 0)
(2.3996 -0.89391 0)
(2.21662 -1.07707 0)
(2.17064 -1.09483 0)
(2.13449 -1.04163 0)
(2.19041 -1.00259 0)
(2.25722 -0.9481 0)
(2.2952 -0.899922 0)
(2.32897 -0.860306 0)
(2.34809 -0.837853 0)
(2.35361 -0.830105 0)
(2.36059 -0.832733 0)
(2.35839 -0.838596 0)
(2.35273 -0.846459 0)
(2.34598 -0.850205 0)
(2.33983 -0.852413 0)
(2.33794 -0.85271 0)
(2.33916 -0.850741 0)
(2.93226 -0.0259594 0)
(2.84641 -0.0689406 0)
(2.76071 -0.131966 0)
(2.66142 -0.250413 0)
(2.58149 -0.342518 0)
(2.50494 -0.440648 0)
(2.41687 -0.549453 0)
(2.35252 -0.628175 0)
(2.3124 -0.723533 0)
(2.25824 -0.794757 0)
(2.24816 -0.855794 0)
(2.2842 -0.884354 0)
(2.32839 -0.895761 0)
(2.33593 -0.890819 0)
(2.34378 -0.879191 0)
(2.34542 -0.869811 0)
(2.3461 -0.855798 0)
(2.34838 -0.849014 0)