/*--------------------------------*- C++ -*----------------------------------*\
  =========                 |
  \\      /  F ield         | OpenFOAM: The Open Source CFD Toolbox
   \\    /   O peration     | Website:  https://openfoam.org
    \\  /    A nd           | Version:  7
     \\/     M anipulation  |
\*---------------------------------------------------------------------------*/
FoamFile
{
    version     2.0;
    format      ascii;
    class       volVectorField;
    location    "3.5";
    object      U;
}
// * * * * * * * * * * * * * * * * * * * * * * * * * * * * * * * * * * * * * //

dimensions      [0 1 -1 0 0 0 0];

internalField   nonuniform List<vector> 
73728
(
(3 1.4126e-17 0)
(3 2.90326e-17 0)
(3 -4.82884e-17 0)
(3 -4.46304e-17 0)
(3 8.88722e-18 0)
(3 1.57189e-16 0)
(3 -3.86169e-17 0)
(3 3.63533e-16 0)
(3 9.69518e-16 0)
(3 8.98616e-16 0)
(3 4.4756e-16 0)
(3 3.22364e-16 0)
(3 4.27248e-16 0)
(3 5.4611e-16 0)
(3 4.446e-16 0)
(3 4.30613e-16 0)
(3 5.3953e-16 0)
(3 9.74926e-17 0)
(3 5.52658e-16 0)
(3 1.15014e-15 0)
(3 7.33285e-16 0)
(3 -3.48206e-17 0)
(3 -3.07998e-17 0)
(3 1.33264e-16 0)
(3 1.10488e-16 0)
(3 -9.44519e-17 0)
(3 7.33855e-17 0)
(3 -3.56827e-17 0)
(3 2.21663e-17 0)
(3 -1.84243e-16 0)
(3 -1.73318e-17 0)
(3 -3.10204e-16 0)
(3 -4.51861e-16 0)
(3 -6.53642e-16 0)
(3 -5.19861e-16 0)
(3 -4.09581e-16 0)
(3 5.12053e-17 0)
(3 1.5189e-17 0)
(3 -4.04422e-16 0)
(3 -1.49876e-16 0)
(3 2.94222e-16 0)
(3 2.13175e-16 0)
(3 1.45891e-16 0)
(3 -4.30765e-16 0)
(3 -5.82448e-16 0)
(3 -7.08664e-16 0)
(3 -7.63337e-16 0)
(3 -7.43138e-16 0)
(3 -3.58076e-16 0)
(3 -2.44096e-16 0)
(3 -1.8793e-16 0)
(3 3.41401e-16 0)
(3 1.27984e-15 0)
(3 1.53146e-15 0)
(3 4.85467e-16 0)
(3 -1.38111e-15 0)
(3 -2.08323e-15 0)
(3 -2.33595e-15 0)
(3 -1.4985e-15 0)
(3 -6.28809e-16 0)
(3 1.1624e-16 0)
(3 1.61906e-16 0)
(3 -5.2889e-16 0)
(3 -1.59284e-15 0)
(3 -1.54079e-15 0)
(3 2.54289e-16 0)
(3 3.94099e-16 0)
(3 5.62822e-16 0)
(3 3.90003e-16 0)
(3 6.67852e-16 0)
(3 4.88687e-16 0)
(3 2.12495e-16 0)
(3 -3.60143e-17 0)
(3 -7.44251e-16 0)
(3 -4.8994e-16 0)
(3 3.04699e-16 0)
(3 8.6264e-16 0)
(3 1.17975e-15 0)
(3 1.34627e-15 0)
(3 1.0357e-15 0)
(3 8.16869e-17 0)
(3 -4.5722e-16 0)
(3 -1.4838e-15 0)
(3 -1.51641e-15 0)
(3 -1.12878e-15 0)
(3 -1.85871e-16 0)
(3 8.97709e-16 0)
(3 3.99213e-16 0)
(3 -5.31072e-16 0)
(3 -4.878e-16 0)
(3 -2.43039e-16 0)
(3 -1.29683e-16 0)
(3 -1.48854e-16 0)
(3 1.28452e-16 0)
(3 6.14514e-17 0)
(3 -2.24873e-16 0)
(3 7.87174e-17 0)
(3 2.63254e-16 0)
(3 -3.52522e-16 0)
(3 -5.18856e-16 0)
(3 -1.5977e-16 0)
(3 3.29611e-16 0)
(3 7.27448e-16 0)
(3 8.32942e-16 0)
(3 1.25859e-15 0)
(3 1.28689e-15 0)
(3 1.13162e-15 0)
(3 9.57323e-16 0)
(3 1.3227e-15 0)
(3 1.37286e-15 0)
(3 1.15236e-15 0)
(3 9.133e-16 0)
(3 7.76438e-16 0)
(3 1.09007e-16 0)
(3 -9.12127e-17 0)
(3 7.60881e-16 0)
(3 1.02948e-15 0)
(3 1.03733e-15 0)
(3 7.83366e-16 0)
(3 1.09595e-15 0)
(3 1.25702e-15 0)
(3 1.30262e-16 0)
(3 -2.41924e-16 0)
(3 -9.20541e-16 0)
(3 -1.18012e-15 0)
(3 -9.89086e-16 0)
(3 1.13369e-16 0)
(3 -8.31204e-16 0)
(3 -9.08709e-16 0)
(3 -1.09796e-15 0)
(3 -1.6459e-16 0)
(3 7.96597e-16 0)
(3 8.11729e-16 0)
(3 5.70924e-16 0)
(3 3.49921e-16 0)
(3 3.38926e-16 0)
(3 3.76102e-16 0)
(3 4.34386e-16 0)
(3 4.00173e-16 0)
(3 9.20747e-18 0)
(3 5.28777e-17 0)
(3 -1.01627e-16 0)
(3 -1.55411e-15 0)
(3 -2.71073e-15 0)
(3 -1.75454e-15 0)
(3 -7.405e-16 0)
(3 1.30955e-16 0)
(3 6.9743e-16 0)
(3 1.26942e-15 0)
(3 1.81231e-15 0)
(3 1.64132e-15 0)
(3 -6.52044e-16 0)
(3 -2.44275e-15 0)
(3 -2.66733e-15 0)
(3 -1.83088e-15 0)
(3 6.93101e-16 0)
(3 1.14885e-15 0)
(3 8.94066e-16 0)
(3 -5.32015e-16 0)
(3 -1.84663e-15 0)
(3 -1.17568e-15 0)
(3 9.26125e-16 0)
(3 -1.06136e-16 0)
(3 -7.15297e-16 0)
(3 -1.23038e-15 0)
(3 -3.625e-16 0)
(3 -5.24623e-16 0)
(3 -3.29302e-16 0)
(3 -3.88974e-16 0)
(3 -7.3486e-16 0)
(3 -8.60929e-16 0)
(3 -5.04533e-16 0)
(3 5.58749e-16 0)
(3 1.77403e-15 0)
(3 1.594e-15 0)
(3 5.01592e-16 0)
(3 -1.91397e-15 0)
(3 -2.5789e-15 0)
(3 -2.87789e-15 0)
(3 -1.57985e-15 0)
(3 -1.04895e-16 0)
(3 6.00069e-16 0)
(3 2.01805e-15 0)
(3 2.2779e-15 0)
(3 6.96274e-16 0)
(3 5.64587e-16 0)
(3 6.04764e-16 0)
(3 4.20538e-16 0)
(3 2.81508e-16 0)
(3 -8.30043e-16 0)
(3 -8.24927e-16 0)
(3 -7.20721e-16 0)
(3 -1.0094e-16 0)
(3 -2.527e-17 0)
(3 -3.95583e-16 0)
(3 -4.87545e-16 0)
(3 -2.41873e-16 0)
(3 1.58154e-16 0)
(3 3.20781e-16 0)
(3 2.07779e-16 0)
(3 4.53846e-16 0)
(3 8.72012e-16 0)
(3 1.51108e-15 0)
(3 1.46807e-15 0)
(3 1.67014e-15 0)
(3 1.39598e-15 0)
(3 1.32239e-15 0)
(3 3.52939e-16 0)
(3 4.02664e-16 0)
(3 2.80977e-16 0)
(3 -4.14226e-16 0)
(3 -5.5259e-16 0)
(3 -2.84774e-16 0)
(3 1.24998e-15 0)
(3 1.68658e-15 0)
(3 2.15091e-15 0)
(3 1.45213e-15 0)
(3 9.99578e-16 0)
(3 6.50076e-16 0)
(3 -1.10476e-15 0)
(3 -2.31498e-15 0)
(3 -2.26877e-15 0)
(3 -1.74551e-15 0)
(3 -7.99055e-16 0)
(3 -7.1832e-16 0)
(3 -8.60865e-16 0)
(3 3.38396e-16 0)
(3 3.54505e-15 0)
(3 3.8655e-15 0)
(3 3.3273e-15 0)
(3 1.8828e-15 0)
(3 1.27006e-15 0)
(3 9.74509e-17 0)
(3 -4.2492e-16 0)
(3 2.57399e-17 0)
(3 9.52381e-16 0)
(3 7.05565e-16 0)
(3 2.11921e-16 0)
(3 -2.15146e-15 0)
(3 -2.71516e-15 0)
(3 -2.36628e-15 0)
(3 -1.49039e-15 0)
(3 -4.74807e-16 0)
(3 9.28098e-16 0)
(3 1.97707e-15 0)
(3 2.18693e-15 0)
(3 2.051e-15 0)
(3 1.07821e-15 0)
(3 -4.86358e-16 0)
(3 -2.25826e-15 0)
(3 -2.59454e-15 0)
(3 -1.93751e-15 0)
(3 -7.65879e-16 0)
(3 -1.44318e-15 0)
(3 -1.53604e-15 0)
(3 -1.42887e-15 0)
(3 -1.88736e-15 0)
(3 -1.64318e-15 0)
(3 -1.91058e-15 0)
(3 -3.23646e-15 0)
(3 -3.10857e-15 0)
(3 -1.97243e-15 0)
(3 -1.119e-15 0)
(3 -1.12527e-15 0)
(3 -1.08489e-15 0)
(3 -2.57217e-16 0)
(3 -3.23567e-17 0)
(3 -2.71994e-16 0)
(3 -7.16064e-16 0)
(3 2.24686e-16 0)
(3 4.81122e-16 0)
(3 2.40997e-16 0)
(3 1.62868e-17 0)
(3 1.24785e-16 0)
(3 -2.41539e-16 0)
(3 4.08132e-16 0)
(3 5.41164e-16 0)
(3 1.24851e-15 0)
(3 1.12746e-15 0)
(3 1.73666e-16 0)
(3 1.01997e-16 0)
(3 -2.56846e-16 0)
(3 -2.55808e-16 0)
(3 2.47775e-16 0)
(3 3.85249e-16 0)
(3 -7.25681e-16 0)
(3 -1.30002e-15 0)
(3 -9.28697e-16 0)
(3 -6.5689e-17 0)
(3 -1.85894e-16 0)
(3 3.98033e-16 0)
(3 6.84167e-16 0)
(3 6.43153e-16 0)
(3 5.35958e-16 0)
(3 2.54485e-16 0)
(3 1.8906e-16 0)
(3 3.90315e-16 0)
(3 4.11806e-16 0)
(3 7.83333e-16 0)
(3 8.32952e-16 0)
(3 1.32486e-16 0)
(3 1.82288e-16 0)
(3 6.60904e-16 0)
(3 2.58342e-16 0)
(3 2.11585e-16 0)
(3 4.86452e-16 0)
(3 5.82745e-16 0)
(3 1.55366e-16 0)
(3 7.36857e-17 0)
(3 -1.68934e-16 0)
(3 -2.84097e-16 0)
(3 -3.43104e-16 0)
(3 3.59039e-16 0)
(3 3.58886e-16 0)
(3 -5.6567e-17 0)
(3 -8.16524e-16 0)
(3 -1.48769e-15 0)
(3 -1.57779e-15 0)
(3 -1.42684e-15 0)
(3 -8.54994e-16 0)
(3 -6.49445e-16 0)
(3 -1.22426e-16 0)
(3 1.51525e-15 0)
(3 2.27369e-15 0)
(3 2.89876e-15 0)
(3 2.32209e-15 0)
(3 2.05895e-15 0)
(3 1.42052e-15 0)
(3 7.72889e-16 0)
(3 5.0587e-16 0)
(3 7.63462e-16 0)
(3 9.43992e-16 0)
(3 -4.58057e-16 0)
(3 -2.43313e-15 0)
(3 -2.19319e-15 0)
(3 -1.92406e-15 0)
(3 -2.08152e-15 0)
(3 -1.37792e-15 0)
(3 -1.74801e-16 0)
(3 9.51206e-16 0)
(3 2.203e-15 0)
(3 2.32629e-15 0)
(3 1.162e-15 0)
(3 5.97788e-16 0)
(3 4.24906e-16 0)
(3 -3.82318e-16 0)
(3 -1.17892e-15 0)
(3 -1.3303e-15 0)
(3 -8.50987e-16 0)
(3 -1.34229e-15 0)
(3 -1.48675e-15 0)
(3 -1.44338e-15 0)
(3 -2.51915e-15 0)
(3 -4.4198e-15 0)
(3 -4.01276e-15 0)
(3 -3.38196e-15 0)
(3 -3.22488e-15 0)
(3 -2.53534e-15 0)
(3 -1.76336e-15 0)
(3 -1.79072e-15 0)
(3 -3.01075e-15 0)
(3 -2.6617e-15 0)
(3 -1.74591e-15 0)
(3 -1.25484e-15 0)
(3 -2.33759e-15 0)
(3 -3.10528e-15 0)
(3 -1.76389e-15 0)
(3 -7.54109e-16 0)
(3 4.39441e-16 0)
(3 1.32886e-15 0)
(3 2.08217e-15 0)
(3 1.22012e-15 0)
(3 4.82895e-16 0)
(3 3.22103e-16 0)
(3 -3.33805e-16 0)
(3 -1.37287e-15 0)
(3 -1.59393e-15 0)
(3 -1.90025e-15 0)
(3 -1.92608e-15 0)
(3 -1.4598e-15 0)
(3 -8.46403e-16 0)
(3 -5.81547e-17 0)
(3 -7.92462e-17 0)
(3 1.79464e-15 0)
(3 1.16459e-16 0)
(3 7.2763e-16 0)
(3 7.51759e-16 0)
(3 8.55738e-16 0)
(3 6.94167e-16 0)
(3 1.29255e-15 0)
(3 1.21702e-15 0)
(3 9.05431e-16 0)
(3 3.84e-16 0)
(3 1.18015e-16 0)
(3 2.74393e-16 0)
(3 6.04419e-16 0)
(3 3.53625e-16 0)
(3 5.403e-16 0)
(3 6.66436e-16 0)
(3 9.74884e-16 0)
(3 8.97954e-16 0)
(3 1.02543e-15 0)
(3 1.10542e-15 0)
(3 2.07621e-16 0)
(3 -3.78436e-16 0)
(3 -1.14422e-15 0)
(3 -1.21778e-15 0)
(3 -4.03308e-16 0)
(3 2.40925e-16 0)
(3 -4.05739e-16 0)
(3 -9.03958e-16 0)
(3 -1.05438e-15 0)
(3 -1.20138e-15 0)
(3 -9.36478e-16 0)
(3 -9.10255e-16 0)
(3 -7.99838e-16 0)
(3 -9.30465e-16 0)
(3 -6.33649e-16 0)
(3 -1.06903e-16 0)
(3 -6.51983e-17 0)
(3 1.82012e-16 0)
(3 -5.50105e-16 0)
(3 -2.02199e-16 0)
(3 7.57965e-17 0)
(3 4.27346e-16 0)
(3 1.55287e-15 0)
(3 -4.8417e-18 0)
(3 -7.14714e-16 0)
(3 -5.65252e-16 0)
(3 -3.38237e-16 0)
(3 -7.82145e-16 0)
(3 -8.43102e-16 0)
(3 -3.4167e-17 0)
(3 -3.38335e-17 0)
(3 -7.08679e-17 0)
(3 -3.9925e-16 0)
(3 -1.84172e-16 0)
(3 -4.44182e-18 0)
(3 -6.22195e-17 0)
(3 2.11525e-16 0)
(3 7.36054e-16 0)
(3 1.64533e-18 0)
(3 1.80609e-16 0)
(3 5.76856e-16 0)
(3 6.20622e-16 0)
(3 6.44833e-16 0)
(3 -2.86108e-16 0)
(3 -1.61508e-15 0)
(3 -3.49932e-15 0)
(3 -3.82353e-15 0)
(3 -3.55342e-15 0)
(3 -2.08614e-15 0)
(3 -1.75596e-15 0)
(3 -2.07484e-15 0)
(3 -2.18844e-15 0)
(3 -1.63614e-15 0)
(3 -1.15005e-15 0)
(3 -1.52195e-15 0)
(3 -2.25438e-15 0)
(3 -2.79095e-15 0)
(3 -3.58447e-15 0)
(3 -3.54414e-15 0)
(3 -2.45725e-15 0)
(3 -1.84894e-15 0)
(3 -2.48479e-16 0)
(3 1.82813e-15 0)
(3 3.57734e-15 0)
(3 2.91418e-15 0)
(3 1.37042e-15 0)
(3 -1.17581e-15 0)
(3 -1.61215e-15 0)
(3 -1.1469e-15 0)
(3 -1.43823e-15 0)
(3 -1.93549e-15 0)
(3 -1.65321e-15 0)
(3 -1.35997e-15 0)
(3 -1.22572e-15 0)
(3 -1.52101e-16 0)
(3 8.90929e-16 0)
(3 1.70459e-15 0)
(3 -6.82217e-17 0)
(3 6.0261e-16 0)
(3 6.6063e-16 0)
(3 6.08851e-16 0)
(3 7.81849e-16 0)
(3 5.2974e-16 0)
(3 3.96014e-16 0)
(3 -8.00026e-17 0)
(3 3.69343e-17 0)
(3 4.93107e-16 0)
(3 1.11981e-15 0)
(3 1.98661e-15 0)
(3 2.1263e-15 0)
(3 1.61913e-15 0)
(3 1.49296e-15 0)
(3 2.29528e-15 0)
(3 2.94457e-15 0)
(3 1.87597e-15 0)
(3 -8.49312e-16 0)
(3 -9.12375e-16 0)
(3 -8.02853e-16 0)
(3 -7.13058e-16 0)
(3 -1.18259e-15 0)
(3 -1.33762e-15 0)
(3 -1.57872e-15 0)
(3 -1.75254e-15 0)
(3 -1.18733e-15 0)
(3 -8.10477e-16 0)
(3 -4.12506e-16 0)
(3 -2.2838e-16 0)
(3 -7.54222e-16 0)
(3 -2.87212e-16 0)
(3 3.35907e-16 0)
(3 -1.01734e-16 0)
(3 -2.35824e-16 0)
(3 -1.43308e-15 0)
(3 -1.67512e-15 0)
(3 -1.24521e-15 0)
(3 -6.65123e-16 0)
(3 -7.35472e-17 0)
(3 2.54204e-16 0)
(3 2.95001e-16 0)
(3 1.17016e-16 0)
(3 -4.44555e-16 0)
(3 -3.11602e-16 0)
(3 1.51499e-16 0)
(3 -1.77894e-16 0)
(3 -2.44372e-16 0)
(3 -3.37199e-17 0)
(3 -3.9871e-16 0)
(3 -8.77887e-16 0)
(3 -8.22139e-16 0)
(3 -4.07044e-16 0)
(3 3.27958e-16 0)
(3 1.74551e-15 0)
(3 1.84953e-15 0)
(3 1.52919e-15 0)
(3 9.31959e-16 0)
(3 1.1063e-15 0)
(3 1.713e-15 0)
(3 1.00086e-15 0)
(3 -5.51234e-16 0)
(3 -1.94397e-15 0)
(3 -2.95716e-15 0)
(3 -2.99917e-15 0)
(3 -2.19895e-15 0)
(3 -1.60292e-15 0)
(3 -1.45094e-15 0)
(3 -1.63869e-15 0)
(3 -1.49115e-15 0)
(3 -1.51756e-15 0)
(3 -1.11039e-15 0)
(3 -4.20402e-16 0)
(3 -4.48344e-16 0)
(3 -9.15195e-16 0)
(3 -1.74877e-15 0)
(3 -2.11752e-15 0)
(3 -2.55364e-15 0)
(3 -2.5865e-15 0)
(3 -1.74749e-15 0)
(3 -1.48652e-15 0)
(3 -9.04354e-16 0)
(3 -4.73106e-17 0)
(3 -1.73281e-16 0)
(3 -1.02307e-15 0)
(3 -1.82769e-15 0)
(3 -2.52667e-15 0)
(3 -2.39165e-15 0)
(3 -1.51472e-15 0)
(3 -1.9838e-16 0)
(3 7.03711e-17 0)
(3 -8.02364e-17 0)
(3 -1.37705e-17 0)
(3 5.27374e-17 0)
(3 7.42361e-17 0)
(3 7.8543e-16 0)
(3 2.33648e-16 0)
(3 9.61797e-17 0)
(3 -1.57973e-16 0)
(3 2.50691e-16 0)
(3 5.50134e-16 0)
(3 1.45667e-16 0)
(3 -4.24109e-16 0)
(3 -4.582e-16 0)
(3 1.61628e-16 0)
(3 2.33025e-16 0)
(3 4.39038e-16 0)
(3 3.31898e-16 0)
(3 2.3863e-16 0)
(3 1.2441e-16 0)
(3 7.91069e-16 0)
(3 1.41877e-15 0)
(3 1.50384e-15 0)
(3 1.37487e-16 0)
(3 -4.95696e-16 0)
(3 -6.40636e-16 0)
(3 -8.92778e-17 0)
(3 -4.14948e-16 0)
(3 -1.82692e-15 0)
(3 -3.79317e-15 0)
(3 -4.06231e-15 0)
(3 -3.01066e-15 0)
(3 -1.8567e-15 0)
(3 -1.20385e-15 0)
(3 -9.36566e-16 0)
(3 -1.48821e-15 0)
(3 -1.19989e-15 0)
(3 -5.9991e-16 0)
(3 -4.87735e-16 0)
(3 -3.60543e-16 0)
(3 -8.80238e-16 0)
(3 -1.33706e-15 0)
(3 -1.16276e-15 0)
(3 -2.99305e-16 0)
(3 -1.01652e-16 0)
(3 1.7318e-17 0)
(3 -4.00724e-16 0)
(3 -1.27969e-15 0)
(3 -1.30345e-15 0)
(3 -1.47414e-15 0)
(3 -1.43991e-15 0)
(3 -9.82373e-16 0)
(3 -8.07949e-16 0)
(3 -5.25268e-16 0)
(3 -1.03034e-15 0)
(3 -1.14341e-15 0)
(3 -1.20162e-15 0)
(3 -8.5762e-16 0)
(3 -3.96285e-16 0)
(3 -4.06003e-17 0)
(3 7.96567e-16 0)
(3 1.795e-15 0)
(3 1.9198e-15 0)
(3 1.95868e-15 0)
(3 1.63343e-15 0)
(3 2.08225e-15 0)
(3 -2.21721e-16 0)
(3 -1.6345e-15 0)
(3 -2.00234e-15 0)
(3 -2.44825e-15 0)
(3 -2.32702e-15 0)
(3 -2.0489e-15 0)
(3 -2.50191e-15 0)
(3 -2.58646e-15 0)
(3 -1.84121e-15 0)
(3 -1.52089e-15 0)
(3 -1.28265e-15 0)
(3 -1.03443e-15 0)
(3 -1.20381e-15 0)
(3 -1.24589e-15 0)
(3 -9.14139e-16 0)
(3 -6.34608e-16 0)
(3 -5.27272e-16 0)
(3 -9.62845e-16 0)
(3 -1.78039e-15 0)
(3 -1.63484e-15 0)
(3 -1.2391e-15 0)
(3 -1.00039e-15 0)
(3 -7.05437e-16 0)
(3 -6.54275e-16 0)
(3 -5.713e-16 0)
(3 1.74881e-16 0)
(3 -2.49155e-17 0)
(3 -5.72014e-16 0)
(3 -6.47771e-16 0)
(3 -3.22771e-16 0)
(3 5.19393e-16 0)
(3 3.62013e-16 0)
(3 1.37093e-16 0)
(3 5.88544e-18 0)
(3 7.65107e-16 0)
(3 8.23504e-16 0)
(3 2.63327e-16 0)
(3 -3.3877e-16 0)
(3 -5.60762e-16 0)
(3 -7.45441e-16 0)
(3 -3.46718e-16 0)
(3 -5.88941e-17 0)
(3 -3.95368e-16 0)
(3 -2.40816e-16 0)
(3 -4.85177e-16 0)
(3 -1.01068e-15 0)
(3 -1.85872e-15 0)
(3 -2.80946e-15 0)
(3 -2.90482e-15 0)
(3 -2.28331e-15 0)
(3 -1.64954e-15 0)
(3 -1.14922e-15 0)
(3 -1.88591e-15 0)
(3 -2.48191e-15 0)
(3 -1.91074e-15 0)
(3 -1.25938e-15 0)
(3 -1.14807e-15 0)
(3 -1.50777e-15 0)
(3 -2.17719e-15 0)
(3 -2.25604e-15 0)
(3 -2.13195e-15 0)
(3 -1.83883e-15 0)
(3 -5.17895e-16 0)
(3 5.1025e-16 0)
(3 2.19851e-17 0)
(3 -4.10844e-16 0)
(3 3.31572e-16 0)
(3 5.81705e-16 0)
(3 -1.03845e-17 0)
(3 -3.25972e-16 0)
(3 -6.23551e-16 0)
(3 -5.87487e-16 0)
(3 -5.39957e-16 0)
(3 -5.30739e-16 0)
(3 -4.60434e-16 0)
(3 -7.55458e-16 0)
(3 -8.19691e-16 0)
(3 -1.4972e-15 0)
(3 -2.82631e-15 0)
(3 -2.69108e-15 0)
(3 -1.83368e-15 0)
(3 -1.45176e-15 0)
(3 1.39059e-16 0)
(3 5.04702e-16 0)
(3 5.4346e-16 0)
(3 2.84934e-16 0)
(3 -2.35894e-18 0)
(3 -7.88656e-17 0)
(3 -4.2645e-16 0)
(3 -2.29123e-16 0)
(3 7.36202e-16 0)
(3 1.90044e-15 0)
(3 1.20026e-15 0)
(3 1.23824e-15 0)
(3 9.25725e-16 0)
(3 4.13064e-16 0)
(3 3.80456e-16 0)
(3 4.29291e-16 0)
(3 -7.97061e-16 0)
(3 -8.30124e-16 0)
(3 -1.12652e-15 0)
(3 -2.74051e-15 0)
(3 -2.98346e-15 0)
(3 -2.38481e-15 0)
(3 -6.60697e-16 0)
(3 -2.56091e-16 0)
(3 -1.58006e-16 0)
(3 -8.92012e-16 0)
(3 -1.56056e-15 0)
(3 -1.72857e-15 0)
(3 -1.33133e-15 0)
(3 -1.72107e-16 0)
(3 2.94243e-16 0)
(3 6.92932e-16 0)
(3 -8.07762e-16 0)
(3 -2.26738e-15 0)
(3 -2.31505e-15 0)
(3 -1.40823e-15 0)
(3 -4.5056e-16 0)
(3 -3.02108e-16 0)
(3 4.88848e-16 0)
(3 1.60874e-15 0)
(3 2.20716e-15 0)
(3 1.95481e-15 0)
(3 1.70629e-15 0)
(3 1.27849e-15 0)
(3 -3.00657e-17 0)
(3 -8.95292e-16 0)
(3 -5.43024e-16 0)
(3 1.35416e-16 0)
(3 1.31864e-15 0)
(3 1.49273e-15 0)
(3 -1.6537e-16 0)
(3 -3.3296e-16 0)
(3 -3.05412e-16 0)
(3 -3.41374e-16 0)
(3 -6.10356e-16 0)
(3 -8.19921e-16 0)
(3 -5.89109e-16 0)
(3 -2.8394e-16 0)
(3 -2.41494e-16 0)
(3 -3.35282e-16 0)
(3 -4.32542e-16 0)
(3 -2.9492e-16 0)
(3 -3.79062e-16 0)
(3 -4.41585e-16 0)
(3 -2.31254e-16 0)
(3 -6.92666e-16 0)
(3 -7.41045e-16 0)
(3 -4.74426e-16 0)
(3 -7.05512e-16 0)
(3 -8.53981e-16 0)
(3 -5.47823e-17 0)
(3 -1.79277e-16 0)
(3 -1.04477e-15 0)
(3 -1.27471e-15 0)
(3 -7.95986e-16 0)
(3 -1.21713e-16 0)
(3 2.94748e-16 0)
(3 3.39775e-16 0)
(3 9.15445e-16 0)
(3 1.17881e-15 0)
(3 1.17059e-15 0)
(3 8.55955e-16 0)
(3 1.69629e-15 0)
(3 2.15828e-15 0)
(3 1.98676e-15 0)
(3 7.16704e-16 0)
(3 -4.46256e-16 0)
(3 -1.07551e-15 0)
(3 -1.60875e-15 0)
(3 -1.65127e-15 0)
(3 -1.4362e-15 0)
(3 -1.43995e-15 0)
(3 -1.64911e-15 0)
(3 -1.0985e-15 0)
(3 -7.42852e-16 0)
(3 3.92013e-17 0)
(3 1.7182e-15 0)
(3 1.98913e-15 0)
(3 1.58144e-15 0)
(3 9.8098e-16 0)
(3 9.22989e-16 0)
(3 5.49822e-16 0)
(3 1.02833e-15 0)
(3 1.25385e-15 0)
(3 1.81333e-15 0)
(3 1.09706e-15 0)
(3 -6.79242e-16 0)
(3 6.10399e-16 0)
(3 1.09223e-15 0)
(3 1.85872e-16 0)
(3 8.22338e-16 0)
(3 1.9765e-17 0)
(3 -6.61304e-16 0)
(3 -1.09208e-15 0)
(3 -2.283e-15 0)
(3 -2.69077e-15 0)
(3 -2.15262e-15 0)
(3 -1.18701e-15 0)
(3 -5.33762e-16 0)
(3 1.16079e-16 0)
(3 5.16209e-16 0)
(3 -4.60882e-16 0)
(3 -6.44275e-16 0)
(3 -5.34708e-16 0)
(3 -6.04261e-16 0)
(3 -3.85555e-16 0)
(3 -1.23765e-16 0)
(3 3.26571e-16 0)
(3 2.37254e-16 0)
(3 -6.71114e-16 0)
(3 -1.32298e-15 0)
(3 -1.39605e-15 0)
(3 -1.23819e-15 0)
(3 -1.60676e-16 0)
(3 3.39934e-16 0)
(3 2.54119e-17 0)
(3 4.45373e-16 0)
(3 8.00986e-16 0)
(3 5.38238e-16 0)
(3 -6.40914e-16 0)
(3 -1.34167e-15 0)
(3 -2.43284e-15 0)
(3 -1.78711e-15 0)
(3 2.10723e-16 0)
(3 8.63772e-16 0)
(3 1.62793e-15 0)
(3 -1.59638e-16 0)
(3 -3.79529e-17 0)
(3 -1.00462e-17 0)
(3 -3.91677e-17 0)
(3 -5.90768e-16 0)
(3 -5.9399e-16 0)
(3 -2.51452e-16 0)
(3 3.88631e-16 0)
(3 8.79251e-16 0)
(3 1.25165e-15 0)
(3 1.84556e-15 0)
(3 2.57062e-15 0)
(3 2.71535e-15 0)
(3 1.9934e-15 0)
(3 1.15133e-15 0)
(3 4.5379e-16 0)
(3 3.28701e-16 0)
(3 2.32833e-18 0)
(3 -3.49064e-16 0)
(3 -6.35776e-16 0)
(3 -5.91435e-16 0)
(3 -6.30593e-16 0)
(3 -1.71256e-15 0)
(3 -2.34975e-15 0)
(3 -1.04361e-15 0)
(3 5.69647e-16 0)
(3 2.68843e-16 0)
(3 -4.59457e-16 0)
(3 -3.76028e-16 0)
(3 -4.44604e-16 0)
(3 -8.02319e-16 0)
(3 -4.86534e-16 0)
(3 7.13353e-16 0)
(3 8.77223e-16 0)
(3 1.16159e-15 0)
(3 3.45617e-16 0)
(3 -2.27211e-16 0)
(3 -1.812e-16 0)
(3 -9.32155e-16 0)
(3 -1.08062e-15 0)
(3 -1.44931e-15 0)
(3 -1.16843e-15 0)
(3 -5.63478e-18 0)
(3 1.69288e-15 0)
(3 1.62569e-15 0)
(3 2.60363e-15 0)
(3 2.19749e-15 0)
(3 1.22034e-15 0)
(3 6.70371e-16 0)
(3 1.03912e-15 0)
(3 1.34687e-15 0)
(3 1.20578e-15 0)
(3 1.06871e-15 0)
(3 8.61578e-16 0)
(3 1.36129e-15 0)
(3 1.02814e-15 0)
(3 -1.48471e-16 0)
(3 -8.54011e-16 0)
(3 -9.5097e-16 0)
(3 -1.36046e-15 0)
(3 -1.35106e-15 0)
(3 -1.72629e-15 0)
(3 -1.26881e-15 0)
(3 -2.01109e-15 0)
(3 -2.41976e-15 0)
(3 -1.81158e-15 0)
(3 -1.09838e-15 0)
(3 -4.01864e-16 0)
(3 7.21397e-17 0)
(3 5.43871e-16 0)
(3 7.92005e-16 0)
(3 7.07145e-16 0)
(3 3.15027e-17 0)
(3 1.29321e-16 0)
(3 -3.83434e-16 0)
(3 -1.15424e-15 0)
(3 -1.46468e-15 0)
(3 -1.70825e-15 0)
(3 -9.10749e-16 0)
(3 -5.24733e-16 0)
(3 -2.72913e-16 0)
(3 -1.15098e-15 0)
(3 -1.1962e-15 0)
(3 -1.10319e-16 0)
(3 -5.49471e-16 0)
(3 -3.00277e-16 0)
(3 -3.27102e-16 0)
(3 -1.29989e-15 0)
(3 -1.68656e-15 0)
(3 -1.87876e-15 0)
(3 -1.83218e-15 0)
(3 -1.47449e-15 0)
(3 -1.14989e-15 0)
(3 -2.72214e-16 0)
(3 2.0876e-16 0)
(3 -1.17428e-16 0)
(3 -1.81131e-16 0)
(3 -1.24651e-18 0)
(3 -7.61455e-18 0)
(3 -2.867e-17 0)
(3 -5.63862e-16 0)
(3 -2.26225e-16 0)
(3 7.72485e-17 0)
(3 4.71387e-16 0)
(3 7.71603e-16 0)
(3 1.33195e-15 0)
(3 1.35285e-15 0)
(3 9.20933e-16 0)
(3 1.59854e-15 0)
(3 1.9027e-15 0)
(3 4.16533e-16 0)
(3 2.43747e-16 0)
(3 1.98061e-16 0)
(3 -2.95527e-16 0)
(3 -6.47917e-16 0)
(3 -4.91764e-16 0)
(3 -7.26197e-17 0)
(3 -1.25738e-16 0)
(3 -5.10994e-16 0)
(3 -8.20041e-16 0)
(3 -1.01852e-15 0)
(3 -9.17483e-16 0)
(3 -2.04092e-16 0)
(3 -1.52144e-16 0)
(3 -5.60758e-17 0)
(3 -4.33604e-16 0)
(3 -6.65118e-16 0)
(3 -3.35894e-17 0)
(3 8.18019e-16 0)
(3 8.09298e-16 0)
(3 1.13275e-15 0)
(3 1.56791e-16 0)
(3 -5.02863e-16 0)
(3 -6.94202e-16 0)
(3 -2.23777e-16 0)
(3 3.47929e-17 0)
(3 -1.56758e-16 0)
(3 5.1767e-16 0)
(3 2.50539e-15 0)
(3 3.186e-15 0)
(3 3.14045e-15 0)
(3 2.24491e-15 0)
(3 4.31712e-16 0)
(3 -4.09075e-16 0)
(3 5.11608e-17 0)
(3 8.17761e-16 0)
(3 1.42369e-15 0)
(3 1.52725e-15 0)
(3 7.23137e-16 0)
(3 -5.9709e-16 0)
(3 -7.48886e-16 0)
(3 -4.05334e-16 0)
(3 -1.41974e-15 0)
(3 -1.89143e-15 0)
(3 -2.09133e-15 0)
(3 -2.39004e-15 0)
(3 -3.20182e-15 0)
(3 -2.84839e-15 0)
(3 -1.21848e-15 0)
(3 -4.81206e-16 0)
(3 -2.427e-16 0)
(3 -3.45576e-16 0)
(3 -1.94685e-16 0)
(3 2.8551e-16 0)
(3 2.96019e-16 0)
(3 6.67469e-16 0)
(3 5.80374e-16 0)
(3 4.00175e-16 0)
(3 -6.74679e-18 0)
(3 -3.0322e-16 0)
(3 -8.22447e-16 0)
(3 -1.7914e-15 0)
(3 -2.20784e-15 0)
(3 -2.27678e-15 0)
(3 -2.9953e-15 0)
(3 -2.16578e-15 0)
(3 -1.53498e-15 0)
(3 -1.67195e-15 0)
(3 -1.86276e-15 0)
(3 -1.72742e-15 0)
(3 -1.57189e-15 0)
(3 -1.41408e-15 0)
(3 -1.47644e-15 0)
(3 -1.99854e-15 0)
(3 -1.74435e-15 0)
(3 -6.6777e-16 0)
(3 -2.63079e-16 0)
(3 1.24358e-16 0)
(3 -4.67904e-16 0)
(3 -1.60499e-15 0)
(3 -2.00423e-15 0)
(3 -1.80995e-15 0)
(3 1.01536e-16 0)
(3 3.86898e-16 0)
(3 1.99759e-16 0)
(3 1.12501e-19 0)
(3 -6.94071e-17 0)
(3 1.89899e-16 0)
(3 3.72121e-16 0)
(3 3.29097e-16 0)
(3 3.85778e-16 0)
(3 5.30523e-16 0)
(3 7.02922e-16 0)
(3 6.51275e-16 0)
(3 9.64339e-16 0)
(3 9.35805e-16 0)
(3 7.0449e-16 0)
(3 7.00665e-16 0)
(3 1.10542e-15 0)
(3 1.07611e-15 0)
(3 5.31309e-17 0)
(3 -6.02082e-16 0)
(3 -4.68035e-16 0)
(3 2.18703e-16 0)
(3 1.08696e-15 0)
(3 1.62064e-15 0)
(3 -1.07166e-16 0)
(3 -3.79767e-16 0)
(3 3.22848e-16 0)
(3 5.86787e-16 0)
(3 2.16998e-16 0)
(3 3.75476e-16 0)
(3 1.054e-15 0)
(3 1.87402e-15 0)
(3 2.12739e-15 0)
(3 1.5842e-15 0)
(3 7.8178e-16 0)
(3 1.8399e-16 0)
(3 -1.09741e-15 0)
(3 -7.62353e-16 0)
(3 1.35848e-16 0)
(3 9.81468e-16 0)
(3 1.5739e-15 0)
(3 1.67862e-15 0)
(3 2.24642e-15 0)
(3 2.70924e-15 0)
(3 2.6613e-15 0)
(3 2.70419e-15 0)
(3 6.01679e-16 0)
(3 -4.63653e-16 0)
(3 -4.54566e-16 0)
(3 -1.42267e-16 0)
(3 6.53617e-16 0)
(3 2.16038e-16 0)
(3 2.5578e-16 0)
(3 -9.16817e-17 0)
(3 -1.67711e-15 0)
(3 -2.37494e-15 0)
(3 -1.24476e-15 0)
(3 -1.95272e-16 0)
(3 -2.3738e-16 0)
(3 -6.94305e-16 0)
(3 -8.01629e-16 0)
(3 2.63306e-16 0)
(3 1.8525e-16 0)
(3 -9.60073e-21 0)
(3 -5.39167e-16 0)
(3 1.15751e-16 0)
(3 3.72128e-16 0)
(3 -6.90574e-16 0)
(3 -6.94925e-16 0)
(3 -7.59065e-17 0)
(3 9.98283e-16 0)
(3 2.59691e-16 0)
(3 -1.66813e-17 0)
(3 -6.87874e-16 0)
(3 -8.67727e-16 0)
(3 -1.00587e-15 0)
(3 -1.70239e-15 0)
(3 -2.44724e-15 0)
(3 -2.63852e-15 0)
(3 -1.93415e-15 0)
(3 -1.64622e-15 0)
(3 -1.40877e-15 0)
(3 -1.4324e-15 0)
(3 -2.38098e-15 0)
(3 -2.22314e-15 0)
(3 -1.79158e-15 0)
(3 -7.98557e-16 0)
(3 1.21311e-16 0)
(3 -3.31078e-16 0)
(3 -4.5782e-17 0)
(3 1.07453e-15 0)
(3 1.93191e-15 0)
(3 8.42648e-16 0)
(3 -5.82976e-16 0)
(3 -2.05402e-15 0)
(3 -1.82405e-15 0)
(3 1.3869e-16 0)
(3 1.98843e-16 0)
(3 -1.27345e-16 0)
(3 -4.42238e-17 0)
(3 9.15069e-17 0)
(3 2.70278e-16 0)
(3 5.75298e-16 0)
(3 2.73603e-16 0)
(3 4.66998e-16 0)
(3 7.84213e-16 0)
(3 6.71743e-16 0)
(3 6.68628e-16 0)
(3 1.69939e-16 0)
(3 9.30369e-17 0)
(3 1.18918e-16 0)
(3 1.36606e-16 0)
(3 -3.03826e-16 0)
(3 -6.2351e-16 0)
(3 -1.25267e-15 0)
(3 -1.26645e-15 0)
(3 -1.05016e-15 0)
(3 7.89911e-16 0)
(3 2.33024e-15 0)
(3 2.14379e-15 0)
(3 1.99486e-15 0)
(3 1.32203e-15 0)
(3 1.28962e-15 0)
(3 1.92988e-15 0)
(3 2.10425e-15 0)
(3 1.71772e-15 0)
(3 1.68066e-15 0)
(3 1.39499e-15 0)
(3 5.34322e-16 0)
(3 7.86131e-16 0)
(3 7.56174e-16 0)
(3 5.28054e-16 0)
(3 -1.2387e-16 0)
(3 -6.40105e-16 0)
(3 -2.66295e-16 0)
(3 6.60681e-16 0)
(3 1.07997e-15 0)
(3 1.35936e-15 0)
(3 2.69654e-16 0)
(3 1.35719e-16 0)
(3 -1.88152e-18 0)
(3 9.6061e-16 0)
(3 8.56409e-17 0)
(3 -7.97117e-16 0)
(3 -1.04867e-15 0)
(3 -9.45353e-16 0)
(3 -2.32695e-16 0)
(3 -9.13927e-16 0)
(3 -1.14418e-15 0)
(3 -1.14459e-15 0)
(3 -1.42595e-15 0)
(3 -1.36181e-15 0)
(3 -6.20125e-16 0)
(3 -6.65228e-16 0)
(3 -1.00445e-15 0)
(3 -1.19321e-15 0)
(3 -3.38529e-16 0)
(3 7.04709e-16 0)
(3 -3.16382e-16 0)
(3 -1.11312e-15 0)
(3 -1.51711e-15 0)
(3 8.85537e-16 0)
(3 1.27779e-15 0)
(3 6.76417e-16 0)
(3 7.1167e-16 0)
(3 9.53803e-16 0)
(3 1.70367e-15 0)
(3 -3.31038e-16 0)
(3 -1.05048e-15 0)
(3 -2.05779e-15 0)
(3 -2.17534e-15 0)
(3 -2.07785e-15 0)
(3 -2.33991e-15 0)
(3 -2.6257e-15 0)
(3 -2.21945e-15 0)
(3 -1.78855e-15 0)
(3 -1.39737e-15 0)
(3 -7.20824e-16 0)
(3 -2.20522e-15 0)
(3 -2.17601e-15 0)
(3 -1.7696e-15 0)
(3 -1.32542e-15 0)
(3 -1.05186e-15 0)
(3 -8.06439e-16 0)
(3 -1.28328e-15 0)
(3 -1.81121e-15 0)
(3 -1.40241e-15 0)
(3 -7.89986e-17 0)
(3 -3.01983e-16 0)
(3 -8.27961e-16 0)
(3 -1.55763e-15 0)
(3 -2.63952e-15 0)
(3 -1.02807e-16 0)
(3 -4.24619e-17 0)
(3 1.79286e-16 0)
(3 3.11387e-16 0)
(3 5.06712e-16 0)
(3 8.28249e-16 0)
(3 1.21215e-15 0)
(3 1.31599e-15 0)
(3 5.63064e-16 0)
(3 -9.2267e-17 0)
(3 -1.02517e-15 0)
(3 -7.0449e-16 0)
(3 -2.70107e-16 0)
(3 7.58011e-17 0)
(3 -2.13818e-16 0)
(3 -9.75638e-16 0)
(3 -1.34294e-15 0)
(3 -1.47871e-15 0)
(3 -1.08389e-15 0)
(3 -5.42597e-16 0)
(3 2.82601e-16 0)
(3 9.32185e-16 0)
(3 1.30638e-15 0)
(3 1.78348e-15 0)
(3 2.20868e-15 0)
(3 1.83562e-15 0)
(3 9.95243e-16 0)
(3 1.39865e-15 0)
(3 1.90352e-15 0)
(3 1.88419e-15 0)
(3 1.5741e-15 0)
(3 3.67543e-16 0)
(3 5.18e-16 0)
(3 7.53542e-16 0)
(3 6.28623e-16 0)
(3 5.10369e-16 0)
(3 -2.03306e-16 0)
(3 -9.23859e-16 0)
(3 -8.52267e-16 0)
(3 -2.74566e-16 0)
(3 -3.68117e-17 0)
(3 7.27658e-17 0)
(3 -4.1653e-16 0)
(3 -2.15518e-15 0)
(3 -2.44966e-15 0)
(3 -3.68808e-15 0)
(3 -1.53144e-15 0)
(3 -7.16612e-16 0)
(3 -1.45161e-16 0)
(3 1.03071e-16 0)
(3 -3.3891e-16 0)
(3 -9.65698e-16 0)
(3 -1.03803e-15 0)
(3 -5.73814e-16 0)
(3 -6.12137e-17 0)
(3 1.03337e-15 0)
(3 1.11876e-15 0)
(3 1.25388e-15 0)
(3 1.22605e-15 0)
(3 8.30444e-16 0)
(3 5.38031e-16 0)
(3 3.84393e-17 0)
(3 1.19279e-16 0)
(3 3.7569e-16 0)
(3 8.47449e-16 0)
(3 7.38807e-16 0)
(3 9.10046e-16 0)
(3 2.22117e-15 0)
(3 2.48566e-15 0)
(3 1.58414e-15 0)
(3 1.75958e-17 0)
(3 -1.37138e-15 0)
(3 -1.50369e-15 0)
(3 -1.47058e-15 0)
(3 -1.75133e-15 0)
(3 -2.38634e-15 0)
(3 -1.71912e-15 0)
(3 -1.29502e-15 0)
(3 -1.24765e-15 0)
(3 -1.42273e-15 0)
(3 -1.87116e-15 0)
(3 -1.77207e-15 0)
(3 -2.72478e-15 0)
(3 -2.47725e-15 0)
(3 -1.57672e-15 0)
(3 -1.55002e-15 0)
(3 -2.03658e-15 0)
(3 -2.21887e-15 0)
(3 -1.99788e-15 0)
(3 -2.24969e-15 0)
(3 -1.85208e-15 0)
(3 -9.63543e-16 0)
(3 -1.10666e-15 0)
(3 -1.14521e-15 0)
(3 -9.31803e-16 0)
(3 -1.89162e-15 0)
(3 -1.45641e-16 0)
(3 -5.31476e-16 0)
(3 -1.61562e-16 0)
(3 -4.65736e-16 0)
(3 -2.75586e-16 0)
(3 2.46447e-17 0)
(3 6.54841e-16 0)
(3 1.30977e-15 0)
(3 1.25444e-15 0)
(3 -4.7257e-16 0)
(3 -8.84298e-16 0)
(3 -1.10477e-15 0)
(3 -9.19208e-16 0)
(3 -9.48289e-16 0)
(3 -1.00323e-15 0)
(3 -1.03108e-15 0)
(3 -1.04506e-15 0)
(3 -3.33355e-16 0)
(3 -4.87758e-17 0)
(3 -3.54344e-16 0)
(3 -6.2208e-16 0)
(3 -5.139e-16 0)
(3 -2.65166e-16 0)
(3 -5.01081e-17 0)
(3 1.99301e-16 0)
(3 4.96635e-16 0)
(3 3.98028e-16 0)
(3 5.49074e-16 0)
(3 2.25818e-16 0)
(3 -3.83868e-16 0)
(3 -1.04416e-15 0)
(3 -4.68402e-16 0)
(3 1.23401e-15 0)
(3 8.94936e-16 0)
(3 4.45534e-16 0)
(3 7.41229e-16 0)
(3 6.16228e-16 0)
(3 7.84424e-16 0)
(3 7.15934e-16 0)
(3 -7.2268e-16 0)
(3 -1.40842e-15 0)
(3 -1.58657e-15 0)
(3 -2.22932e-15 0)
(3 -2.91489e-15 0)
(3 -2.96928e-15 0)
(3 -3.6192e-15 0)
(3 -3.37112e-15 0)
(3 -1.92465e-15 0)
(3 -1.04544e-16 0)
(3 -7.30487e-16 0)
(3 -1.96908e-15 0)
(3 -1.31594e-15 0)
(3 -8.25065e-16 0)
(3 -2.93096e-16 0)
(3 1.02282e-18 0)
(3 4.16231e-16 0)
(3 1.17891e-15 0)
(3 1.80181e-15 0)
(3 1.34833e-15 0)
(3 7.48845e-16 0)
(3 7.97675e-17 0)
(3 -7.7017e-16 0)
(3 -2.15976e-16 0)
(3 1.45407e-15 0)
(3 1.19219e-15 0)
(3 7.52541e-16 0)
(3 7.81395e-16 0)
(3 2.76632e-15 0)
(3 3.9654e-15 0)
(3 2.96037e-15 0)
(3 1.00333e-15 0)
(3 -4.22218e-16 0)
(3 -2.2256e-16 0)
(3 -5.30586e-17 0)
(3 -7.30363e-16 0)
(3 -8.21776e-16 0)
(3 -4.06846e-16 0)
(3 -2.48827e-16 0)
(3 -2.48336e-16 0)
(3 -1.50006e-15 0)
(3 -2.94028e-15 0)
(3 -3.29767e-15 0)
(3 -2.8883e-15 0)
(3 -2.0036e-15 0)
(3 -1.25654e-15 0)
(3 -1.1161e-15 0)
(3 -8.60164e-16 0)
(3 -1.49346e-15 0)
(3 -1.02363e-15 0)
(3 -7.29951e-16 0)
(3 -8.84044e-16 0)
(3 -1.38644e-15 0)
(3 -1.26442e-15 0)
(3 -7.17802e-16 0)
(3 -7.06034e-16 0)
(3 -1.43926e-15 0)
(3 -1.41624e-16 0)
(3 -6.83289e-16 0)
(3 -8.30662e-16 0)
(3 -7.27542e-16 0)
(3 -7.04412e-16 0)
(3 -1.0599e-15 0)
(3 -8.75616e-16 0)
(3 -4.85979e-16 0)
(3 -7.01183e-16 0)
(3 -7.76494e-16 0)
(3 -4.94203e-16 0)
(3 -1.27989e-15 0)
(3 -2.10625e-15 0)
(3 -2.07762e-15 0)
(3 -1.45263e-15 0)
(3 -6.55317e-16 0)
(3 -1.12893e-15 0)
(3 -1.18195e-15 0)
(3 -1.1788e-15 0)
(3 -1.31478e-15 0)
(3 -1.07071e-15 0)
(3 -9.32428e-16 0)
(3 -9.43244e-16 0)
(3 -9.40968e-16 0)
(3 -1.0631e-15 0)
(3 -8.47105e-16 0)
(3 -8.50698e-16 0)
(3 -1.09597e-15 0)
(3 -2.29915e-15 0)
(3 -2.75358e-15 0)
(3 -2.25969e-15 0)
(3 -1.18345e-16 0)
(3 3.63796e-16 0)
(3 1.23716e-16 0)
(3 -1.49063e-16 0)
(3 3.59171e-17 0)
(3 3.99486e-16 0)
(3 1.16482e-15 0)
(3 1.09604e-15 0)
(3 1.06957e-17 0)
(3 -8.05379e-16 0)
(3 -7.41413e-16 0)
(3 -8.57622e-16 0)
(3 -1.03083e-15 0)
(3 -1.83006e-15 0)
(3 -2.70615e-15 0)
(3 -2.8276e-15 0)
(3 -2.36635e-15 0)
(3 -1.64671e-15 0)
(3 -2.33284e-15 0)
(3 -1.6839e-15 0)
(3 -1.33802e-15 0)
(3 -1.34437e-15 0)
(3 -1.36068e-15 0)
(3 -1.29665e-15 0)
(3 -7.42243e-16 0)
(3 -1.07187e-16 0)
(3 3.04273e-17 0)
(3 1.50815e-16 0)
(3 4.6961e-16 0)
(3 2.31067e-16 0)
(3 1.05966e-16 0)
(3 1.09858e-15 0)
(3 1.75244e-15 0)
(3 1.18238e-15 0)
(3 1.34492e-15 0)
(3 7.90036e-16 0)
(3 5.30689e-16 0)
(3 2.98539e-17 0)
(3 3.16909e-16 0)
(3 5.01711e-16 0)
(3 1.28536e-15 0)
(3 2.03616e-15 0)
(3 1.92174e-15 0)
(3 1.57251e-15 0)
(3 1.32218e-15 0)
(3 1.41213e-15 0)
(3 5.32932e-16 0)
(3 -4.02903e-16 0)
(3 -2.18543e-15 0)
(3 -2.9153e-15 0)
(3 -3.11156e-15 0)
(3 -2.41593e-15 0)
(3 -2.35422e-15 0)
(3 -1.67994e-15 0)
(3 -6.00775e-16 0)
(3 -4.10122e-16 0)
(3 -8.45333e-16 0)
(3 -9.00338e-16 0)
(3 -1.07695e-15 0)
(3 -1.365e-15 0)
(3 -1.93367e-15 0)
(3 -1.64176e-15 0)
(3 -1.24944e-15 0)
(3 -7.19608e-16 0)
(3 -5.53399e-16 0)
(3 -3.37497e-17 0)
(3 1.92851e-17 0)
(3 -1.79902e-16 0)
(3 8.8184e-17 0)
(3 1.56804e-16 0)
(3 -4.12473e-16 0)
(3 -1.37268e-15 0)
(3 -2.3836e-15 0)
(3 -2.78682e-15 0)
(3 -2.36258e-15 0)
(3 -2.36358e-15 0)
(3 -1.32761e-15 0)
(3 -6.90348e-16 0)
(3 -6.02256e-16 0)
(3 -4.73338e-16 0)
(3 -6.70434e-16 0)
(3 -7.79537e-16 0)
(3 -1.02354e-15 0)
(3 -8.30464e-16 0)
(3 -4.10219e-16 0)
(3 1.12432e-16 0)
(3 8.42521e-18 0)
(3 -9.68248e-16 0)
(3 -1.25921e-15 0)
(3 -1.28976e-15 0)
(3 -1.12148e-15 0)
(3 -1.06885e-15 0)
(3 -2.0861e-15 0)
(3 -2.88974e-15 0)
(3 -3.35956e-15 0)
(3 -3.20127e-15 0)
(3 -3.20186e-15 0)
(3 -2.75619e-15 0)
(3 -2.71191e-15 0)
(3 -2.22728e-15 0)
(3 -9.60862e-16 0)
(3 -4.19308e-16 0)
(3 2.49201e-16 0)
(3 -9.34172e-17 0)
(3 1.99084e-16 0)
(3 7.32921e-16 0)
(3 1.2079e-16 0)
(3 7.97007e-17 0)
(3 -2.63207e-16 0)
(3 -1.99877e-15 0)
(3 -1.91958e-15 0)
(3 -1.80803e-15 0)
(3 -2.21549e-15 0)
(3 -3.32502e-15 0)
(3 -3.57601e-15 0)