/*--------------------------------*- C++ -*----------------------------------*\
  =========                 |
  \\      /  F ield         | OpenFOAM: The Open Source CFD Toolbox
   \\    /   O peration     | Website:  https://openfoam.org
    \\  /    A nd           | Version:  7
     \\/     M anipulation  |
\*---------------------------------------------------------------------------*/
FoamFile
{
    version     2.0;
    format      ascii;
    class       volVectorField;
    location    "3.5";
    object      U;
}
// * * * * * * * * * * * * * * * * * * * * * * * * * * * * * * * * * * * * * //

dimensions      [0 1 -1 0 0 0 0];

internalField   nonuniform List<vector> 
73728
(
(3 8.64047e-17 0)
(3 -5.93856e-17 0)
(3 2.3654e-16 0)
(3 5.2008e-16 0)
(3 6.12014e-16 0)
(3 7.99509e-16 0)
(3 9.1721e-16 0)
(3 6.65812e-16 0)
(3 -2.98427e-17 0)
(3 -1.07924e-16 0)
(3 -2.075e-16 0)
(3 -4.82498e-16 0)
(3 -8.35821e-16 0)
(3 -9.49498e-16 0)
(3 -5.39065e-16 0)
(3 -3.37829e-16 0)
(3 3.21513e-16 0)
(3 5.59448e-16 0)
(3 3.29017e-16 0)
(3 3.30768e-17 0)
(3 -2.25537e-16 0)
(3 6.61975e-16 0)
(3 6.12554e-16 0)
(3 2.65159e-16 0)
(3 -4.44284e-16 0)
(3 -1.2957e-15 0)
(3 -1.22925e-15 0)
(3 -8.47133e-18 0)
(3 1.21567e-15 0)
(3 3.60194e-16 0)
(3 3.90968e-17 0)
(3 2.64584e-16 0)
(3 5.1695e-16 0)
(3 3.7201e-16 0)
(3 -3.05601e-16 0)
(3 -4.6047e-16 0)
(3 -4.67258e-16 0)
(3 -4.61445e-16 0)
(3 -9.40301e-17 0)
(3 1.21855e-16 0)
(3 3.12731e-16 0)
(3 6.17725e-16 0)
(3 3.85529e-16 0)
(3 5.38119e-16 0)
(3 3.57717e-16 0)
(3 -3.48189e-16 0)
(3 -9.03401e-16 0)
(3 -1.30916e-15 0)
(3 -1.0039e-15 0)
(3 -7.15586e-16 0)
(3 -2.08669e-16 0)
(3 -7.98633e-17 0)
(3 -8.38601e-16 0)
(3 -9.17159e-16 0)
(3 -3.9293e-16 0)
(3 -2.82625e-16 0)
(3 -7.06614e-16 0)
(3 -1.49587e-15 0)
(3 -1.39063e-15 0)
(3 -1.63899e-15 0)
(3 3.9509e-17 0)
(3 5.00214e-16 0)
(3 1.05435e-15 0)
(3 1.1439e-15 0)
(3 7.61376e-16 0)
(3 1.86118e-16 0)
(3 2.35926e-16 0)
(3 8.20777e-17 0)
(3 1.2383e-17 0)
(3 -5.12595e-16 0)
(3 -8.3599e-16 0)
(3 3.71728e-16 0)
(3 -7.67297e-16 0)
(1.37931 0.00270533 0)
(0.642543 0.00296463 0)
(0.59383 0.0052018 0)
(0.582215 0.00428507 0)
(0.562302 0.00461884 0)
(0.539527 0.00491075 0)
(0.522331 0.0049181 0)
(0.514099 0.0049169 0)
(0.511761 0.00491964 0)
(0.513701 0.00484524 0)
(0.519466 0.0047583 0)
(0.522811 0.00467184 0)
(0.520889 0.00465907 0)
(0.515041 0.00482751 0)
(0.501756 0.0052555 0)
(0.480183 0.00595685 0)
(0.452073 0.00696171 0)
(0.427158 0.00795787 0)
(0.409715 0.00942102 0)
(0.395422 0.0123374 0)
(0.380111 0.0149989 0)
(0.360323 0.0281174 0)
(0.312079 0.0384979 0)
(3 7.48522e-17 0)
(3 -3.89341e-17 0)
(3 4.66598e-16 0)
(3 1.62135e-15 0)
(3 2.10053e-15 0)
(3 1.9825e-15 0)
(3 1.67364e-15 0)
(3 1.65484e-15 0)
(3 2.98836e-16 0)
(3 6.0613e-17 0)
(3 -7.66304e-17 0)
(3 -4.43285e-16 0)
(3 -1.32605e-15 0)
(3 -1.5995e-15 0)
(3 -4.55381e-16 0)
(3 3.96213e-16 0)
(3 1.42928e-15 0)
(3 1.51244e-15 0)
(3 1.23338e-15 0)
(3 8.70575e-16 0)
(3 3.14332e-16 0)
(3 3.35965e-16 0)
(3 4.01864e-16 0)
(3 -3.01817e-16 0)
(3 -1.1678e-15 0)
(3 -1.5279e-15 0)
(3 -1.08972e-15 0)
(3 8.91604e-16 0)
(3 1.02864e-15 0)
(3 4.90993e-16 0)
(3 2.60411e-16 0)
(3 3.46686e-16 0)
(3 6.02756e-16 0)
(3 3.81335e-16 0)
(3 -3.05368e-16 0)
(3 -9.47816e-16 0)
(3 -5.25554e-16 0)
(3 -6.36035e-16 0)
(3 -5.92208e-16 0)
(3 -6.74003e-16 0)
(3 -4.74018e-16 0)
(3 4.23618e-16 0)
(3 -1.76749e-16 0)
(3 6.52611e-18 0)
(3 3.62327e-16 0)
(3 2.06778e-16 0)
(3 -8.33749e-16 0)
(3 -1.62665e-15 0)
(3 -2.13174e-15 0)
(3 -4.97153e-16 0)
(3 -2.47501e-16 0)
(3 -3.84265e-16 0)
(3 -9.61956e-16 0)
(3 -8.67414e-16 0)
(3 -2.9044e-16 0)
(3 -6.42685e-16 0)
(3 -1.45168e-15 0)
(3 -2.07268e-15 0)
(3 -1.78774e-15 0)
(3 -1.6865e-15 0)
(3 3.31481e-16 0)
(3 1.4424e-15 0)
(3 1.99936e-15 0)
(3 1.36708e-15 0)
(3 1.4222e-15 0)
(3 8.711e-16 0)
(3 1.18173e-15 0)
(3 1.15523e-15 0)
(3 1.16553e-15 0)
(3 1.23342e-16 0)
(3 -5.29468e-16 0)
(3 -3.52675e-16 0)
(3 -1.81913e-15 0)
(1.38561 0.0128121 0)
(0.641738 0.0124718 0)
(0.590897 0.0164057 0)
(0.579011 0.0124913 0)
(0.558842 0.0131056 0)
(0.536273 0.0138792 0)
(0.52017 0.0139453 0)
(0.512743 0.0140591 0)
(0.510988 0.0141211 0)
(0.513437 0.0140566 0)
(0.519358 0.0140719 0)
(0.522414 0.0141074 0)
(0.520366 0.0142342 0)
(0.514551 0.0149692 0)
(0.501505 0.0165121 0)
(0.480372 0.0187388 0)
(0.452695 0.02177 0)
(0.428159 0.0249625 0)
(0.411086 0.0293355 0)
(0.399947 0.0362802 0)
(0.388046 0.0457269 0)
(0.381117 0.0648226 0)
(0.356189 0.0840791 0)
(3 -1.04536e-16 0)
(3 4.24617e-17 0)
(3 9.17954e-16 0)
(3 1.07851e-15 0)
(3 9.097e-16 0)
(3 4.21403e-16 0)
(3 2.15996e-16 0)
(3 6.0908e-16 0)
(3 5.16568e-16 0)
(3 6.21994e-16 0)
(3 1.03808e-15 0)
(3 9.6048e-17 0)
(3 -1.86991e-15 0)
(3 -2.90994e-15 0)
(3 -2.03653e-15 0)
(3 -1.06894e-16 0)
(3 2.57886e-16 0)
(3 8.0047e-16 0)
(3 1.11975e-15 0)
(3 9.40086e-16 0)
(3 7.38522e-16 0)
(3 4.13864e-16 0)
(3 2.17686e-16 0)
(3 -7.08808e-17 0)
(3 -7.80694e-16 0)
(3 -1.81874e-15 0)
(3 -3.82436e-16 0)
(3 2.41934e-16 0)
(3 2.37833e-16 0)
(3 4.30726e-16 0)
(3 7.17699e-16 0)
(3 9.84833e-16 0)
(3 7.97229e-16 0)
(3 6.72021e-16 0)
(3 5.46877e-16 0)
(3 3.67126e-16 0)
(3 1.42421e-16 0)
(3 2.51015e-16 0)
(3 -4.07192e-17 0)
(3 -4.98994e-16 0)
(3 -6.3567e-16 0)
(3 7.05101e-16 0)
(3 1.09148e-15 0)
(3 3.23296e-16 0)
(3 6.26137e-16 0)
(3 1.26318e-15 0)
(3 7.58079e-16 0)
(3 7.05879e-16 0)
(3 5.88052e-16 0)
(3 -2.51696e-16 0)
(3 -1.42081e-15 0)
(3 -1.34329e-15 0)
(3 -1.04735e-15 0)
(3 -7.31297e-16 0)
(3 -1.03261e-15 0)
(3 -8.91348e-16 0)
(3 -8.84114e-16 0)
(3 -1.44964e-15 0)
(3 -1.81491e-15 0)
(3 -6.32028e-16 0)
(3 3.31506e-16 0)
(3 1.95821e-16 0)
(3 4.94709e-16 0)
(3 1.07474e-15 0)
(3 1.95446e-15 0)
(3 2.62683e-15 0)
(3 2.16776e-15 0)
(3 1.0854e-15 0)
(3 7.45159e-16 0)
(3 6.78785e-16 0)
(3 9.7637e-16 0)
(3 9.45461e-16 0)
(3 5.37151e-16 0)
(1.40303 0.0221312 0)
(0.644039 0.0216117 0)
(0.590845 0.0275858 0)
(0.579125 0.0214359 0)
(0.558273 0.0220556 0)
(0.535614 0.0229556 0)
(0.520686 0.0230954 0)
(0.514145 0.023295 0)
(0.512989 0.023355 0)
(0.516001 0.0232816 0)
(0.521992 0.023368 0)
(0.524519 0.0233763 0)
(0.522344 0.0235326 0)
(0.516494 0.0245964 0)
(0.503945 0.0268217 0)
(0.483485 0.0301482 0)
(0.45645 0.0348323 0)
(0.433207 0.0404719 0)
(0.417638 0.0474473 0)
(0.410891 0.0567591 0)
(0.404615 0.0690024 0)
(0.405067 0.0870364 0)
(0.396648 0.108899 0)
(3 -5.21003e-17 0)
(3 9.38025e-17 0)
(3 -3.40836e-17 0)
(3 -1.72231e-16 0)
(3 -3.34568e-16 0)
(3 -6.61022e-17 0)
(3 -1.57246e-16 0)
(3 -3.1863e-16 0)
(3 -4.35276e-17 0)
(3 7.02751e-17 0)
(3 -1.09862e-17 0)
(3 -5.20403e-16 0)
(3 -1.30483e-15 0)
(3 -2.21079e-15 0)
(3 -2.00756e-15 0)
(3 -1.88053e-15 0)
(3 -1.56814e-15 0)
(3 -1.20087e-15 0)
(3 -9.80662e-16 0)
(3 -7.62534e-16 0)
(3 1.24469e-16 0)
(3 7.57242e-16 0)
(3 1.12837e-15 0)
(3 4.23402e-16 0)
(3 -2.67009e-17 0)
(3 -2.39037e-16 0)
(3 2.55031e-17 0)
(3 -1.86658e-16 0)
(3 -1.64404e-16 0)
(3 3.48447e-16 0)
(3 4.95751e-16 0)
(3 1.15537e-15 0)
(3 1.24011e-15 0)
(3 7.77066e-16 0)
(3 1.12769e-15 0)
(3 1.404e-15 0)
(3 1.30978e-15 0)
(3 1.36308e-15 0)
(3 8.58281e-16 0)
(3 -1.31562e-16 0)
(3 -1.26817e-16 0)
(3 2.92904e-16 0)
(3 6.07142e-16 0)
(3 5.41173e-16 0)
(3 9.58267e-16 0)
(3 1.33619e-15 0)
(3 2.98293e-15 0)
(3 3.47888e-15 0)
(3 3.48468e-15 0)
(3 1.29255e-15 0)
(3 -1.20975e-15 0)
(3 -1.30321e-15 0)
(3 -9.80899e-16 0)
(3 -7.67806e-16 0)
(3 -2.3823e-16 0)
(3 2.09964e-16 0)
(3 -7.89107e-16 0)
(3 -1.8763e-15 0)
(3 -2.36228e-15 0)
(3 -2.37175e-15 0)
(3 -2.43799e-15 0)
(3 -8.94209e-16 0)
(3 -3.59341e-16 0)
(3 -3.86757e-17 0)
(3 7.17883e-16 0)
(3 1.31365e-15 0)
(3 4.29105e-16 0)
(3 -3.11558e-16 0)
(3 -2.31153e-16 0)
(3 6.02939e-16 0)
(3 1.91371e-15 0)
(3 2.61746e-15 0)
(3 2.43233e-15 0)
(1.42784 0.0303318 0)
(0.646689 0.0305259 0)
(0.59013 0.0384143 0)
(0.579058 0.0302797 0)
(0.557728 0.0306982 0)
(0.535555 0.0315091 0)
(0.522636 0.0316651 0)
(0.517492 0.0318958 0)
(0.517145 0.0318975 0)
(0.52097 0.0318923 0)
(0.526818 0.0322598 0)
(0.528308 0.0324112 0)
(0.525837 0.0326286 0)
(0.519547 0.0338272 0)
(0.507689 0.0363042 0)
(0.488019 0.0401778 0)
(0.461908 0.0459343 0)
(0.441098 0.0537151 0)
(0.427847 0.0628283 0)
(0.42428 0.0733174 0)
(0.423567 0.0863213 0)
(0.427527 0.102382 0)
(0.426906 0.121783 0)
(3 -5.92666e-17 0)
(3 -1.95259e-16 0)
(3 -7.44832e-16 0)
(3 -4.68688e-16 0)
(3 -6.60453e-17 0)
(3 2.95965e-16 0)
(3 4.5159e-16 0)
(3 -7.11905e-17 0)
(3 -5.19614e-16 0)
(3 -9.67063e-16 0)
(3 -1.00541e-15 0)
(3 -8.29732e-16 0)
(3 -3.35501e-16 0)
(3 4.4141e-17 0)
(3 -1.20067e-15 0)
(3 -2.7901e-15 0)
(3 -2.6825e-15 0)
(3 -2.54724e-15 0)
(3 -2.2365e-15 0)
(3 -1.44473e-15 0)
(3 -1.0441e-15 0)
(3 -9.95065e-16 0)
(3 -5.11195e-16 0)
(3 1.96522e-16 0)
(3 7.68952e-16 0)
(3 1.20532e-15 0)
(3 -1.33519e-16 0)
(3 -1.10667e-15 0)
(3 -7.49283e-16 0)
(3 -2.13782e-16 0)
(3 3.85958e-16 0)
(3 1.08218e-15 0)
(3 2.05642e-15 0)
(3 1.72702e-15 0)
(3 1.26432e-15 0)
(3 3.18138e-16 0)
(3 3.08767e-16 0)
(3 4.73445e-16 0)
(3 3.26055e-16 0)
(3 -3.03104e-16 0)
(3 -5.10178e-16 0)
(3 -9.93371e-16 0)
(3 -5.11767e-16 0)
(3 1.38156e-15 0)
(3 1.7152e-15 0)
(3 1.92764e-15 0)
(3 2.35581e-15 0)
(3 2.60842e-15 0)
(3 2.09538e-15 0)
(3 4.36535e-16 0)
(3 -8.36913e-16 0)
(3 -1.58566e-15 0)
(3 -1.97234e-15 0)
(3 -1.54137e-15 0)
(3 -6.87181e-16 0)
(3 -7.63972e-16 0)
(3 -2.14733e-15 0)
(3 -2.86873e-15 0)
(3 -3.36849e-15 0)
(3 -3.80744e-15 0)
(3 -3.85059e-15 0)
(3 -1.82776e-15 0)
(3 -3.38339e-16 0)
(3 -1.65504e-16 0)
(3 -6.97666e-17 0)
(3 4.70984e-16 0)
(3 -7.68824e-16 0)
(3 -1.30307e-15 0)
(3 -1.0826e-15 0)
(3 -5.03669e-16 0)
(3 1.21794e-16 0)
(3 5.54203e-16 0)
(3 7.47493e-16 0)
(1.45993 0.0385273 0)
(0.649517 0.0398358 0)
(0.588592 0.0485474 0)
(0.57784 0.03864 0)
(0.555782 0.0386299 0)
(0.534576 0.039471 0)
(0.524054 0.0399659 0)
(0.520602 0.0402983 0)
(0.521405 0.0403302 0)
(0.526529 0.0405686 0)
(0.53218 0.0412104 0)
(0.532456 0.0414486 0)
(0.529567 0.0416866 0)
(0.522656 0.0427464 0)
(0.511362 0.0450357 0)
(0.492482 0.0487997 0)
(0.467928 0.0548987 0)
(0.450644 0.0641095 0)
(0.439976 0.0749334 0)
(0.437988 0.0868026 0)
(0.441602 0.0996322 0)
(0.44789 0.114426 0)
(0.449986 0.131899 0)
(3 1.39585e-17 0)
(3 -1.96777e-16 0)
(3 -1.45273e-16 0)
(3 -2.29827e-17 0)
(3 -4.6236e-16 0)
(3 -5.68658e-16 0)
(3 -4.20911e-16 0)
(3 -4.85879e-16 0)
(3 -1.36491e-15 0)
(3 -1.54961e-15 0)
(3 -1.18368e-15 0)
(3 -6.64168e-16 0)
(3 -3.27215e-16 0)
(3 7.51496e-16 0)
(3 1.01144e-16 0)
(3 -1.67612e-15 0)
(3 -2.21862e-15 0)
(3 -2.23034e-15 0)
(3 -1.33796e-15 0)
(3 -4.4066e-16 0)
(3 -1.16448e-15 0)
(3 -1.452e-15 0)
(3 -1.75182e-15 0)
(3 -6.51175e-16 0)
(3 -3.31565e-16 0)
(3 -8.86569e-16 0)
(3 -1.20726e-15 0)
(3 -1.58512e-15 0)
(3 -1.56343e-15 0)
(3 -1.43829e-15 0)
(3 -1.07606e-15 0)
(3 -2.3967e-16 0)
(3 8.3811e-16 0)
(3 6.98518e-16 0)
(3 -7.88039e-16 0)
(3 -1.47612e-15 0)
(3 -1.33768e-15 0)
(3 -1.05372e-15 0)
(3 -2.7849e-16 0)
(3 -4.97112e-16 0)
(3 -8.93982e-16 0)
(3 -1.48458e-16 0)
(3 7.65743e-16 0)
(3 1.26931e-15 0)
(3 1.84075e-15 0)
(3 1.46833e-15 0)
(3 1.31417e-15 0)
(3 4.15142e-16 0)
(3 -1.4081e-15 0)
(3 -2.07143e-15 0)
(3 -1.26983e-15 0)
(3 -8.74736e-16 0)
(3 -4.31979e-16 0)
(3 -8.56074e-16 0)
(3 -2.54487e-15 0)
(3 -3.02893e-15 0)
(3 -3.33013e-15 0)
(3 -3.17383e-15 0)
(3 -3.30422e-15 0)
(3 -2.68771e-15 0)
(3 -1.6395e-15 0)
(3 -9.28658e-17 0)
(3 -2.77567e-16 0)
(3 1.11497e-15 0)
(3 6.53562e-16 0)
(3 3.43091e-16 0)
(3 -2.40576e-16 0)
(3 -1.80097e-17 0)
(3 7.23028e-17 0)
(3 1.35989e-16 0)
(3 -8.19639e-17 0)
(3 -6.72927e-16 0)
(3 -2.01852e-16 0)
(1.50043 0.0465973 0)
(0.653074 0.0495783 0)
(0.586802 0.0579762 0)
(0.575721 0.0464443 0)
(0.553126 0.0459319 0)
(0.534011 0.046866 0)
(0.52579 0.0477677 0)
(0.524084 0.048042 0)
(0.526469 0.0481856 0)
(0.533195 0.048759 0)
(0.538442 0.0496875 0)
(0.537489 0.0500212 0)
(0.533857 0.0503597 0)
(0.526115 0.0512343 0)
(0.514855 0.0530654 0)
(0.496388 0.0562247 0)
(0.473996 0.0620914 0)
(0.460816 0.0717586 0)
(0.452967 0.0834105 0)
(0.452233 0.096385 0)
(0.458319 0.109557 0)
(0.466434 0.123852 0)
(0.469751 0.139638 0)
(3 6.97881e-17 0)
(3 -4.62369e-18 0)
(3 -3.47925e-17 0)
(3 -3.1932e-16 0)
(3 -6.1498e-16 0)
(3 -7.9983e-16 0)
(3 -1.15686e-15 0)
(3 -1.65263e-15 0)
(3 -8.38649e-16 0)
(3 -5.47768e-17 0)
(3 3.00666e-16 0)
(3 1.14451e-17 0)
(3 1.63913e-16 0)
(3 8.73203e-16 0)
(3 7.75589e-16 0)
(3 -5.92306e-18 0)
(3 9.04972e-17 0)
(3 3.82729e-16 0)
(3 -2.58706e-16 0)
(3 -1.59796e-15 0)
(3 -1.53047e-15 0)
(3 -8.10885e-16 0)
(3 -6.74714e-16 0)
(3 -8.85503e-16 0)
(3 -1.41389e-15 0)
(3 -1.5418e-15 0)
(3 -7.64186e-16 0)
(3 -8.50504e-16 0)
(3 -1.4536e-15 0)
(3 -1.40274e-15 0)
(3 -1.06492e-15 0)
(3 -8.98823e-16 0)
(3 -8.54839e-16 0)
(3 -5.6995e-16 0)
(3 -6.33035e-16 0)
(3 -1.05645e-15 0)
(3 -1.23723e-15 0)
(3 -1.03436e-15 0)
(3 -5.52455e-16 0)
(3 -2.77585e-17 0)
(3 3.36826e-16 0)
(3 4.69291e-16 0)
(3 7.68892e-16 0)
(3 1.11842e-15 0)
(3 1.4822e-15 0)
(3 1.30317e-15 0)
(3 4.95674e-16 0)
(3 -4.00963e-16 0)
(3 -8.57952e-16 0)
(3 -7.25523e-16 0)
(3 -7.70321e-17 0)
(3 1.75719e-16 0)
(3 5.80508e-16 0)
(3 -1.82186e-19 0)
(3 -3.01309e-15 0)
(3 -3.24806e-15 0)
(3 -2.77701e-15 0)
(3 -2.2594e-15 0)
(3 -1.66074e-15 0)
(3 -8.04996e-16 0)
(3 -1.34394e-16 0)
(3 4.70713e-16 0)
(3 -1.5453e-17 0)
(3 -7.96871e-18 0)
(3 5.16111e-16 0)
(3 7.16728e-16 0)
(3 -2.54055e-16 0)
(3 -6.263e-16 0)
(3 -5.86396e-16 0)
(3 -1.10295e-15 0)
(3 -1.85347e-15 0)
(3 -2.36545e-15 0)
(3 -1.65951e-15 0)
(1.54955 0.0543981 0)
(0.657496 0.0597312 0)
(0.584629 0.0665611 0)
(0.572984 0.0535655 0)
(0.55021 0.0526169 0)
(0.534418 0.0537951 0)
(0.528038 0.055147 0)
(0.527969 0.0553239 0)
(0.53228 0.0556751 0)
(0.540636 0.0566077 0)
(0.545164 0.0576578 0)
(0.543209 0.0580299 0)
(0.538404 0.0585844 0)
(0.529707 0.059328 0)
(0.517755 0.0606117 0)
(0.499263 0.0629561 0)
(0.479636 0.0682977 0)
(0.47051 0.0776049 0)
(0.465626 0.0891407 0)
(0.466669 0.102271 0)
(0.474257 0.11597 0)
(0.483687 0.130152 0)
(0.487504 0.144751 0)
(3 -1.14223e-16 0)
(3 4.71707e-17 0)
(3 2.63189e-16 0)
(3 3.63831e-16 0)
(3 4.60868e-16 0)
(3 9.18401e-17 0)
(3 -1.72134e-16 0)
(3 -3.05416e-16 0)
(3 -6.07875e-16 0)
(3 -2.89784e-16 0)
(3 -2.29332e-16 0)
(3 1.98712e-16 0)
(3 4.48994e-16 0)
(3 7.47559e-16 0)
(3 7.44751e-16 0)
(3 9.7125e-16 0)
(3 1.23707e-15 0)
(3 1.23727e-15 0)
(3 1.13139e-16 0)
(3 -2.24849e-16 0)
(3 -1.21549e-15 0)
(3 -1.97036e-15 0)
(3 -7.45748e-16 0)
(3 -5.81575e-16 0)
(3 -6.6294e-16 0)
(3 -4.99448e-16 0)
(3 4.90597e-17 0)
(3 3.45618e-17 0)
(3 -4.56176e-16 0)
(3 -6.17604e-16 0)
(3 -6.19463e-16 0)
(3 -1.61752e-15 0)
(3 -1.44186e-15 0)
(3 -3.71927e-16 0)
(3 -6.73281e-17 0)
(3 -7.85429e-16 0)
(3 -8.58748e-16 0)
(3 -4.10764e-16 0)
(3 5.03454e-16 0)
(3 1.07274e-15 0)
(3 1.78289e-15 0)
(3 1.59428e-15 0)
(3 1.27801e-15 0)
(3 1.46031e-15 0)
(3 8.23966e-16 0)
(3 4.72548e-16 0)
(3 -7.96483e-16 0)
(3 -8.87962e-16 0)
(3 2.03803e-16 0)
(3 7.6533e-16 0)
(3 2.24733e-16 0)
(3 -4.29179e-16 0)
(3 -7.28e-16 0)
(3 -5.72156e-16 0)
(3 -9.14544e-16 0)
(3 -7.62706e-16 0)
(3 -1.79068e-16 0)
(3 -2.09617e-16 0)
(3 -2.98003e-16 0)
(3 3.96619e-16 0)
(3 5.96971e-16 0)
(3 1.56894e-16 0)
(3 -8.51071e-17 0)
(3 -1.38905e-15 0)
(3 -8.61336e-16 0)
(3 -5.35957e-16 0)
(3 -6.42836e-16 0)
(3 -8.0295e-16 0)
(3 -1.23469e-15 0)
(3 -1.79427e-15 0)
(3 -2.13129e-15 0)
(3 -1.34737e-15 0)
(3 -1.44309e-15 0)
(1.60753 0.0618739 0)
(0.662617 0.0701743 0)
(0.581855 0.074192 0)
(0.569623 0.0599192 0)
(0.547617 0.0586936 0)
(0.5357 0.0603487 0)
(0.531191 0.0619967 0)
(0.532457 0.0621606 0)
(0.538897 0.0628244 0)
(0.548497 0.0641753 0)
(0.551977 0.0650476 0)
(0.549413 0.0653808 0)
(0.5434 0.0660498 0)
(0.533659 0.0667591 0)
(0.520333 0.0676202 0)
(0.501399 0.0691692 0)
(0.485033 0.0740587 0)
(0.479296 0.0826232 0)
(0.477261 0.0935433 0)
(0.480263 0.106431 0)
(0.489443 0.119816 0)
(0.499654 0.133705 0)
(0.503332 0.14709 0)
(3 -4.29308e-17 0)
(3 2.23172e-16 0)
(3 5.36848e-16 0)
(3 7.69763e-16 0)
(3 7.65877e-16 0)
(3 8.26294e-16 0)
(3 9.91801e-16 0)
(3 8.15987e-16 0)
(3 2.80584e-17 0)
(3 -8.16795e-17 0)
(3 -2.75682e-16 0)
(3 1.77305e-16 0)
(3 3.5408e-16 0)
(3 5.62515e-16 0)
(3 4.05789e-16 0)
(3 2.52829e-16 0)
(3 -3.66661e-16 0)
(3 -1.05275e-15 0)
(3 -6.87235e-16 0)
(3 4.24803e-17 0)
(3 -2.12526e-16 0)
(3 -1.20341e-15 0)
(3 -2.69717e-16 0)
(3 5.05794e-16 0)
(3 7.37887e-16 0)
(3 6.89037e-16 0)
(3 9.96305e-16 0)
(3 1.0236e-15 0)
(3 7.95049e-16 0)
(3 7.70733e-16 0)
(3 3.74154e-16 0)
(3 -8.95748e-16 0)
(3 -1.24547e-15 0)
(3 -1.10218e-15 0)
(3 -1.10147e-15 0)
(3 -1.14139e-15 0)
(3 -7.37609e-16 0)
(3 4.4584e-16 0)
(3 1.49569e-15 0)
(3 1.711e-15 0)
(3 2.02524e-15 0)
(3 2.11378e-15 0)
(3 1.44751e-15 0)
(3 2.66261e-16 0)
(3 -7.56787e-16 0)
(3 -1.2709e-15 0)
(3 -1.64886e-15 0)
(3 -3.66443e-16 0)
(3 4.0772e-16 0)
(3 7.73981e-16 0)
(3 1.98147e-16 0)
(3 -4.92457e-16 0)
(3 -1.68217e-15 0)
(3 -1.83702e-15 0)
(3 -3.84646e-16 0)
(3 -3.73437e-16 0)
(3 -5.23944e-16 0)
(3 5.65426e-17 0)
(3 -1.73502e-16 0)
(3 -1.82401e-16 0)
(3 2.31644e-16 0)
(3 9.2146e-16 0)
(3 -2.79482e-16 0)
(3 -1.93337e-15 0)
(3 -2.68441e-15 0)
(3 -3.387e-15 0)
(3 -2.42565e-15 0)
(3 -1.44036e-15 0)
(3 -1.54401e-15 0)
(3 -1.88431e-15 0)
(3 -9.37778e-16 0)
(3 -8.33738e-16 0)
(3 -1.35593e-15 0)
(1.67499 0.0689879 0)
(0.668263 0.0807763 0)
(0.578207 0.0806917 0)
(0.565573 0.0654267 0)
(0.545925 0.064204 0)
(0.537944 0.0665371 0)
(0.535108 0.068252 0)
(0.537741 0.0686416 0)
(0.546358 0.0698981 0)
(0.556221 0.0715668 0)
(0.558354 0.0719723 0)
(0.55553 0.0721022 0)
(0.548632 0.0726451 0)
(0.537954 0.0732513 0)
(0.522784 0.0737683 0)
(0.503333 0.0747853 0)
(0.49044 0.0796403 0)
(0.487349 0.0873299 0)
(0.487585 0.0976643 0)
(0.492837 0.109801 0)
(0.503321 0.123105 0)
(0.513952 0.136006 0)
(0.517109 0.148073 0)
(3 9.96428e-17 0)
(3 -9.13337e-19 0)
(3 -8.39378e-17 0)
(3 -7.73941e-17 0)
(3 4.24398e-16 0)
(3 7.21743e-16 0)
(3 7.67241e-16 0)
(3 8.18054e-16 0)
(3 9.12567e-16 0)
(3 4.63493e-16 0)
(3 4.47044e-16 0)
(3 3.10239e-16 0)
(3 1.43231e-16 0)
(3 -6.97628e-16 0)
(3 -5.6934e-16 0)
(3 6.51719e-18 0)
(3 -1.64487e-15 0)
(3 -1.59766e-15 0)
(3 -1.0251e-15 0)
(3 -3.34127e-16 0)
(3 6.69983e-16 0)
(3 9.69395e-16 0)
(3 1.08e-15 0)
(3 1.09407e-15 0)
(3 1.00118e-15 0)
(3 9.01986e-16 0)
(3 1.78685e-15 0)
(3 2.77616e-15 0)
(3 2.84852e-15 0)
(3 2.78011e-15 0)
(3 2.68355e-15 0)
(3 1.70692e-15 0)
(3 -1.8948e-16 0)
(3 -7.79901e-16 0)
(3 -4.79454e-16 0)
(3 2.12251e-16 0)
(3 4.47267e-16 0)
(3 3.50195e-16 0)
(3 9.97891e-17 0)
(3 1.14274e-15 0)
(3 1.26865e-15 0)
(3 1.21732e-15 0)
(3 8.21526e-16 0)
(3 2.56349e-16 0)
(3 -4.57197e-16 0)
(3 -7.48431e-16 0)
(3 -1.1232e-15 0)
(3 -6.08222e-16 0)
(3 -4.75352e-17 0)
(3 2.15675e-17 0)
(3 5.96745e-17 0)
(3 2.5663e-16 0)
(3 1.07661e-16 0)
(3 1.4326e-17 0)
(3 3.06566e-16 0)
(3 2.22396e-16 0)
(3 -1.27435e-16 0)
(3 8.1733e-17 0)
(3 5.94177e-16 0)
(3 6.44853e-16 0)
(3 1.01725e-15 0)
(3 1.24328e-15 0)
(3 -6.86479e-16 0)
(3 -2.36721e-15 0)
(3 -2.94927e-15 0)
(3 -3.05035e-15 0)
(3 -2.3925e-15 0)
(3 -2.1248e-15 0)
(3 -2.01519e-15 0)
(3 -1.97527e-15 0)
(3 -2.49763e-15 0)
(3 -2.57819e-15 0)
(3 -2.40172e-15 0)
(1.75294 0.0755696 0)
(0.67428 0.0912758 0)
(0.573627 0.0858552 0)
(0.561022 0.0701677 0)
(0.545872 0.0693591 0)
(0.541003 0.0722865 0)
(0.539698 0.073931 0)
(0.54422 0.0748778 0)
(0.554568 0.0769919 0)
(0.563209 0.0787383 0)
(0.563951 0.078624 0)
(0.560999 0.0784132 0)
(0.553734 0.0784747 0)
(0.542199 0.0786349 0)
(0.525104 0.078573 0)
(0.505979 0.0794564 0)
(0.496587 0.0844453 0)
(0.495082 0.0917509 0)
(0.49721 0.101711 0)
(0.504326 0.113801 0)
(0.515891 0.126546 0)
(0.526064 0.138896 0)
(0.528889 0.149521 0)
(3 6.1513e-17 0)
(3 4.58201e-18 0)
(3 -5.47409e-17 0)
(3 -1.97451e-16 0)
(3 -6.98261e-17 0)
(3 -3.01151e-16 0)
(3 -2.78724e-16 0)
(3 4.70526e-17 0)
(3 -8.42777e-18 0)
(3 -1.8819e-16 0)
(3 -7.34399e-16 0)
(3 -2.89584e-16 0)
(3 8.89344e-17 0)
(3 3.37749e-17 0)
(3 8.63272e-17 0)
(3 -1.30351e-16 0)
(3 -4.20304e-16 0)
(3 2.23957e-16 0)
(3 2.30689e-17 0)
(3 -3.21161e-16 0)
(3 3.935e-16 0)
(3 5.51396e-16 0)
(3 4.21174e-16 0)
(3 3.59061e-16 0)
(3 9.79957e-16 0)
(3 1.26396e-15 0)
(3 1.43003e-15 0)
(3 1.89642e-15 0)
(3 1.92522e-15 0)
(3 1.18246e-15 0)
(3 7.39205e-16 0)
(3 3.24378e-16 0)
(3 -5.8265e-18 0)
(3 -1.23967e-16 0)
(3 5.11276e-16 0)
(3 2.00137e-15 0)
(3 1.49795e-15 0)
(3 2.95969e-16 0)
(3 -2.60102e-16 0)
(3 1.55838e-16 0)
(3 3.41474e-16 0)
(3 8.55444e-16 0)
(3 1.38192e-15 0)
(3 1.4186e-15 0)
(3 7.48141e-16 0)
(3 2.74172e-16 0)
(3 5.6643e-16 0)
(3 -1.28977e-17 0)
(3 -7.00478e-16 0)
(3 -9.48248e-16 0)
(3 -3.91331e-16 0)
(3 9.27946e-16 0)
(3 1.06325e-15 0)
(3 1.03701e-15 0)
(3 7.02245e-16 0)
(3 8.0357e-16 0)
(3 8.47926e-16 0)
(3 6.2274e-16 0)
(3 8.83606e-16 0)
(3 9.3286e-16 0)
(3 7.76978e-16 0)
(3 1.02551e-15 0)
(3 -6.77797e-16 0)
(3 -1.61308e-15 0)
(3 -1.83618e-15 0)
(3 -1.0535e-15 0)
(3 -5.14174e-16 0)
(3 -1.05342e-15 0)
(3 -9.69635e-16 0)
(3 -1.13548e-15 0)
(3 -1.70044e-15 0)
(3 -1.90853e-15 0)
(3 -1.48325e-15 0)
(1.84261 0.0812883 0)
(0.680484 0.101234 0)
(0.568283 0.0895839 0)
(0.556715 0.0744422 0)
(0.547356 0.0745175 0)
(0.544707 0.0774524 0)
(0.54515 0.0792916 0)
(0.552107 0.0810038 0)
(0.563181 0.084036 0)
(0.569068 0.0855054 0)
(0.568757 0.0851107 0)
(0.565454 0.0844222 0)
(0.558237 0.0837978 0)
(0.545512 0.0830338 0)
(0.527034 0.0820024 0)
(0.510074 0.0830183 0)
(0.503779 0.088241 0)
(0.503191 0.0953915 0)
(0.506879 0.105353 0)
(0.515424 0.117513 0)
(0.527324 0.130293 0)
(0.536424 0.142049 0)
(0.538823 0.15203 0)
(3 8.62757e-17 0)
(3 3.61706e-17 0)
(3 2.70945e-17 0)
(3 -1.75294e-16 0)
(3 -5.08193e-16 0)
(3 -5.42016e-17 0)
(3 2.64913e-16 0)
(3 3.69336e-16 0)
(3 -2.90728e-16 0)
(3 -4.89366e-16 0)
(3 -1.01385e-15 0)
(3 -3.91898e-16 0)
(3 4.55083e-16 0)
(3 7.38036e-16 0)
(3 1.24213e-15 0)
(3 8.25806e-16 0)
(3 5.39652e-16 0)
(3 6.21805e-16 0)
(3 -4.81782e-17 0)
(3 -3.11059e-16 0)
(3 2.82688e-16 0)
(3 3.20076e-16 0)
(3 1.03004e-16 0)
(3 -1.53563e-17 0)
(3 1.12211e-15 0)
(3 1.32817e-15 0)
(3 3.57576e-16 0)
(3 4.11698e-17 0)
(3 2.95307e-16 0)
(3 -1.20955e-16 0)
(3 -3.87314e-16 0)
(3 -2.5439e-17 0)
(3 4.61385e-16 0)
(3 7.85661e-16 0)
(3 2.00603e-15 0)
(3 2.47394e-15 0)
(3 1.064e-15 0)
(3 7.58313e-16 0)
(3 5.45162e-16 0)
(3 6.65728e-16 0)
(3 8.06169e-16 0)
(3 1.22784e-15 0)
(3 1.3819e-15 0)
(3 1.98405e-15 0)
(3 2.26093e-15 0)
(3 2.05992e-15 0)
(3 2.22991e-15 0)
(3 1.28323e-15 0)
(3 -4.62504e-16 0)
(3 -1.14129e-15 0)
(3 -1.1794e-15 0)
(3 -9.74849e-16 0)
(3 -9.00264e-16 0)
(3 -7.74535e-16 0)
(3 -1.04357e-15 0)
(3 -9.64601e-16 0)
(3 -1.03615e-16 0)
(3 -1.84455e-16 0)
(3 -5.65968e-16 0)
(3 -6.78773e-16 0)
(3 -1.20218e-15 0)
(3 -9.53592e-16 0)
(3 -8.25623e-16 0)
(3 -8.28623e-16 0)
(3 -2.13758e-16 0)
(3 7.06436e-16 0)
(3 5.84887e-16 0)
(3 1.4745e-16 0)
(3 -8.29368e-16 0)
(3 -1.06781e-15 0)
(3 -2.87446e-16 0)
(3 1.73412e-16 0)
(3 1.21693e-15 0)
(1.94537 0.0856035 0)
(0.687116 0.110103 0)
(0.562498 0.0919982 0)
(0.553738 0.0786787 0)
(0.549747 0.0795195 0)
(0.54879 0.0822726 0)
(0.551714 0.0844437 0)
(0.561598 0.0872146 0)
(0.571392 0.090689 0)
(0.573994 0.0916504 0)
(0.572649 0.0912657 0)
(0.569144 0.0901406 0)
(0.56128 0.0887363 0)
(0.54722 0.0866386 0)
(0.528555 0.0845922 0)
(0.515827 0.0859724 0)
(0.511674 0.0910164 0)
(0.512268 0.0979957 0)
(0.517212 0.107963 0)
(0.526707 0.120469 0)
(0.538189 0.133347 0)
(0.545569 0.144884 0)
(0.54742 0.15443 0)
(3 -3.50437e-17 0)
(3 -1.15277e-16 0)
(3 -2.92315e-16 0)
(3 -2.6444e-16 0)
(3 -1.44354e-16 0)
(3 1.65298e-16 0)
(3 7.10192e-16 0)
(3 9.94474e-16 0)
(3 6.95502e-16 0)
(3 -1.3889e-17 0)
(3 9.84264e-17 0)
(3 -6.04106e-16 0)
(3 -6.29157e-16 0)
(3 -5.0837e-16 0)
(3 4.03003e-16 0)
(3 1.24209e-15 0)
(3 1.375e-15 0)
(3 1.17174e-15 0)
(3 6.36371e-16 0)
(3 5.86834e-16 0)
(3 6.35344e-16 0)
(3 7.45031e-16 0)
(3 9.97429e-16 0)
(3 5.79863e-16 0)
(3 -8.4178e-17 0)
(3 4.47289e-16 0)
(3 7.86973e-16 0)
(3 1.18611e-15 0)
(3 1.35581e-15 0)
(3 1.00201e-15 0)
(3 1.16763e-15 0)
(3 2.11571e-15 0)
(3 1.98428e-15 0)
(3 1.87629e-15 0)
(3 1.63179e-15 0)
(3 1.5541e-15 0)
(3 1.67654e-15 0)
(3 1.73207e-15 0)
(3 1.44857e-15 0)
(3 1.48031e-15 0)
(3 1.67925e-15 0)
(3 1.09857e-15 0)
(3 1.02557e-15 0)
(3 1.73219e-15 0)
(3 2.58597e-15 0)
(3 2.99908e-15 0)
(3 2.21677e-15 0)
(3 1.00311e-15 0)
(3 8.86924e-16 0)
(3 2.00719e-16 0)
(3 -1.00143e-15 0)
(3 -1.44917e-15 0)
(3 -1.28891e-15 0)
(3 -6.92795e-16 0)
(3 -1.07483e-15 0)
(3 -1.85682e-15 0)
(3 -2.00521e-15 0)
(3 -1.94357e-15 0)
(3 -2.31125e-15 0)
(3 -2.68676e-15 0)
(3 -2.64628e-15 0)
(3 -1.98764e-15 0)
(3 -1.62095e-16 0)
(3 4.2272e-16 0)
(3 -6.91044e-18 0)
(3 5.80749e-16 0)
(3 5.56266e-16 0)
(3 3.70365e-16 0)
(3 -7.43796e-17 0)
(3 6.56513e-17 0)
(3 7.5844e-16 0)
(3 1.53389e-15 0)
(3 -6.20879e-16 0)
(2.06244 0.0878392 0)
(0.695046 0.117469 0)
(0.557049 0.0935562 0)
(0.552973 0.0830102 0)
(0.55188 0.0842238 0)
(0.55334 0.0870881 0)
(0.560063 0.0898662 0)
(0.571981 0.0935472 0)
(0.578316 0.0964142 0)
(0.578293 0.0970504 0)
(0.576084 0.0967514 0)
(0.571661 0.0954424 0)
(0.562512 0.0931394 0)
(0.547144 0.0896444 0)
(0.530322 0.0871785 0)
(0.522337 0.0890162 0)
(0.520242 0.0934425 0)
(0.522058 0.10009 0)
(0.528363 0.109754 0)
(0.538534 0.122129 0)
(0.548655 0.13492 0)
(0.554005 0.145962 0)
(0.55506 0.155324 0)
(3 -1.42016e-16 0)
(3 -2.26558e-16 0)
(3 -4.15488e-17 0)
(3 1.77646e-17 0)
(3 -3.67109e-16 0)
(3 -6.80281e-16 0)
(3 -1.45002e-16 0)
(3 9.47366e-17 0)
(3 4.01678e-16 0)
(3 3.58448e-16 0)
(3 3.33043e-16 0)
(3 3.93351e-16 0)
(3 -2.99527e-16 0)
(3 -3.06176e-16 0)
(3 -4.56116e-16 0)
(3 1.80057e-17 0)
(3 3.09992e-16 0)
(3 3.87679e-16 0)
(3 9.02886e-16 0)
(3 9.34642e-16 0)
(3 9.65527e-16 0)
(3 1.10654e-15 0)
(3 1.08877e-15 0)
(3 1.22119e-15 0)
(3 3.80691e-16 0)
(3 -1.06623e-15 0)
(3 -1.12562e-15 0)
(3 -6.11068e-16 0)
(3 6.71731e-16 0)
(3 1.71156e-15 0)
(3 1.70348e-15 0)
(3 1.57693e-15 0)
(3 1.35787e-15 0)
(3 1.55062e-15 0)
(3 1.64908e-15 0)
(3 1.43543e-15 0)
(3 2.24625e-15 0)
(3 2.35779e-15 0)
(3 2.34997e-15 0)
(3 2.3842e-15 0)
(3 1.95246e-15 0)
(3 1.68804e-15 0)
(3 2.02566e-15 0)
(3 1.89683e-15 0)
(3 2.06553e-15 0)
(3 2.13132e-15 0)
(3 1.07485e-15 0)
(3 2.65102e-16 0)
(3 3.9214e-16 0)
(3 7.39872e-16 0)
(3 -7.536e-17 0)
(3 -9.73116e-16 0)
(3 -1.05757e-15 0)
(3 -1.02426e-15 0)
(3 -1.55755e-15 0)
(3 -1.78166e-15 0)
(3 -1.88778e-15 0)
(3 -1.83158e-15 0)
(3 -1.68651e-15 0)
(3 -2.03138e-15 0)
(3 -2.21306e-15 0)
(3 -1.87557e-15 0)
(3 -8.08032e-16 0)
(3 2.06154e-16 0)
(3 -1.04774e-17 0)
(3 -1.73697e-16 0)
(3 -3.79267e-16 0)
(3 1.3905e-16 0)
(3 5.06209e-16 0)
(3 8.62183e-16 0)
(3 7.67689e-16 0)
(3 6.19108e-16 0)
(3 2.04225e-16 0)
(2.19373 0.0873063 0)
(0.705439 0.122855 0)
(0.552944 0.0946035 0)
(0.553564 0.087229 0)
(0.553928 0.0887344 0)
(0.559234 0.0923405 0)
(0.570167 0.09603 0)
(0.581341 0.0995272 0)
(0.583815 0.101067 0)
(0.582224 0.101597 0)
(0.578995 0.10138 0)
(0.572951 0.0998948 0)
(0.561722 0.0965961 0)
(0.545806 0.0923134 0)
(0.53319 0.0903633 0)
(0.529086 0.0926333 0)
(0.528907 0.0964414 0)
(0.532217 0.102474 0)
(0.540143 0.111376 0)
(0.550554 0.123069 0)
(0.558413 0.134811 0)
(0.561681 0.14494 0)
(0.561904 0.154073 0)
(3 -2.6595e-17 0)
(3 4.86808e-17 0)
(3 -8.56404e-17 0)
(3 -1.6694e-16 0)
(3 -9.9646e-17 0)
(3 -2.71453e-16 0)
(3 -9.19779e-16 0)
(3 -1.36496e-15 0)
(3 -8.70683e-16 0)
(3 -4.76593e-16 0)
(3 -4.66491e-16 0)
(3 2.43465e-16 0)
(3 7.74997e-16 0)
(3 6.73171e-16 0)
(3 -3.41611e-17 0)
(3 -1.01591e-15 0)
(3 -5.20737e-16 0)
(3 -8.0178e-16 0)
(3 -9.49077e-16 0)
(3 -6.11991e-16 0)
(3 5.78037e-16 0)
(3 1.05736e-15 0)
(3 1.40075e-15 0)
(3 1.29306e-15 0)
(3 -4.57853e-16 0)
(3 -1.29086e-15 0)
(3 -2.71891e-15 0)
(3 -1.33424e-15 0)
(3 -3.79968e-16 0)
(3 1.06258e-15 0)
(3 7.08431e-16 0)
(3 1.15431e-16 0)
(3 -9.32308e-17 0)
(3 3.41806e-16 0)
(3 6.56621e-16 0)
(3 9.45703e-16 0)
(3 1.36261e-15 0)
(3 1.78002e-15 0)
(3 2.7258e-15 0)
(3 2.65939e-15 0)
(3 2.47844e-15 0)
(3 1.9815e-15 0)
(3 1.40862e-15 0)
(3 1.25646e-15 0)
(3 1.30509e-15 0)
(3 3.94316e-16 0)
(3 1.14093e-16 0)
(3 7.09159e-16 0)
(3 9.64034e-16 0)
(3 -1.48602e-15 0)
(3 -2.11464e-15 0)
(3 -2.4024e-15 0)
(3 -2.8512e-15 0)
(3 -2.97423e-15 0)
(3 -2.65475e-15 0)
(3 -2.6856e-15 0)
(3 -1.92216e-15 0)
(3 -8.23989e-16 0)
(3 -3.4396e-16 0)
(3 -9.60299e-16 0)
(3 -6.79167e-16 0)
(3 -6.90293e-16 0)
(3 -7.38255e-16 0)
(3 3.10186e-16 0)
(3 1.14044e-15 0)
(3 6.66173e-16 0)
(3 7.71967e-16 0)
(3 4.91216e-16 0)
(3 9.71163e-16 0)
(3 1.43181e-15 0)
(3 1.50724e-15 0)
(3 5.74331e-16 0)
(3 -6.74813e-16 0)
(2.33524 0.0829642 0)
(0.720475 0.126169 0)
(0.550791 0.0962143 0)
(0.554894 0.0907123 0)
(0.557324 0.0934816 0)
(0.567276 0.0987867 0)
(0.580507 0.102729 0)
(0.588074 0.104595 0)
(0.588197 0.104855 0)
(0.585608 0.105295 0)
(0.581199 0.104803 0)
(0.572732 0.10276 0)
(0.559346 0.0987424 0)
(0.544813 0.0948697 0)
(0.537356 0.0944819 0)
(0.535952 0.0965926 0)
(0.537326 0.100086 0)
(0.542569 0.105611 0)
(0.552165 0.113997 0)
(0.561869 0.124316 0)
(0.566925 0.133999 0)
(0.568508 0.142652 0)
(0.567906 0.151116 0)
(3 1.35215e-16 0)
(3 1.06387e-16 0)
(3 -4.16021e-16 0)
(3 -6.06902e-16 0)
(3 -3.78107e-16 0)
(3 3.99416e-17 0)
(3 -1.0728e-16 0)
(3 -1.89363e-16 0)
(3 -6.58137e-17 0)
(3 5.14032e-16 0)
(3 1.15569e-15 0)
(3 1.37482e-15 0)
(3 1.6798e-15 0)
(3 1.2059e-15 0)
(3 3.72377e-16 0)
(3 -9.63426e-17 0)
(3 -2.45353e-16 0)
(3 -5.90177e-16 0)
(3 -6.47252e-16 0)
(3 -3.38341e-16 0)
(3 3.53687e-16 0)
(3 4.32756e-16 0)
(3 5.37896e-16 0)
(3 -5.20375e-16 0)
(3 -8.07141e-16 0)
(3 -1.67024e-16 0)
(3 1.04623e-17 0)
(3 2.06488e-16 0)
(3 1.20039e-16 0)
(3 5.1668e-16 0)
(3 1.42478e-15 0)
(3 1.082e-15 0)
(3 8.43055e-16 0)
(3 -3.18402e-16 0)
(3 -1.36249e-16 0)
(3 4.13597e-16 0)
(3 9.18357e-16 0)
(3 1.50058e-15 0)
(3 2.45169e-15 0)
(3 2.33327e-15 0)
(3 1.80878e-15 0)
(3 1.35704e-15 0)
(3 9.6592e-16 0)
(3 5.16925e-16 0)
(3 6.43756e-17 0)
(3 5.66859e-17 0)
(3 4.08969e-16 0)
(3 9.25753e-16 0)
(3 3.96286e-16 0)
(3 -7.96713e-16 0)
(3 -1.63449e-15 0)
(3 -1.73538e-15 0)
(3 -1.75734e-15 0)
(3 -1.85153e-15 0)
(3 -1.08817e-15 0)
(3 -6.11066e-16 0)
(3 -4.00589e-16 0)
(3 3.46293e-16 0)
(3 1.47446e-15 0)
(3 1.0011e-15 0)
(3 6.84114e-16 0)
(3 9.11782e-16 0)
(3 6.7713e-16 0)
(3 7.37114e-16 0)
(3 1.08115e-15 0)
(3 -1.46982e-16 0)
(3 -6.91387e-16 0)
(3 -5.5975e-16 0)
(3 -6.0232e-17 0)
(3 1.30883e-15 0)
(3 1.25117e-15 0)
(3 1.32606e-15 0)
(3 4.33668e-16 0)
(2.48074 0.074647 0)
(0.742652 0.127294 0)