/*--------------------------------*- C++ -*----------------------------------*\
  =========                 |
  \\      /  F ield         | OpenFOAM: The Open Source CFD Toolbox
   \\    /   O peration     | Website:  https://openfoam.org
    \\  /    A nd           | Version:  7
     \\/     M anipulation  |
\*---------------------------------------------------------------------------*/
FoamFile
{
    version     2.0;
    format      ascii;
    class       volVectorField;
    location    "2.2";
    object      U;
}
// * * * * * * * * * * * * * * * * * * * * * * * * * * * * * * * * * * * * * //

dimensions      [0 1 -1 0 0 0 0];

internalField   nonuniform List<vector> 
73728
(
(3 -1.03665e-16 0)
(3 -3.7952e-16 0)
(3 -2.99691e-16 0)
(3 -6.70133e-18 0)
(3 5.24214e-17 0)
(3 1.72531e-16 0)
(3 -2.56498e-17 0)
(3 6.48619e-17 0)
(3 5.67085e-16 0)
(3 -4.29203e-18 0)
(3 -3.6455e-16 0)
(3 1.81103e-16 0)
(3 5.01532e-16 0)
(3 6.82827e-16 0)
(3 5.08005e-16 0)
(3 6.54435e-16 0)
(3 6.6772e-16 0)
(3 5.50046e-16 0)
(3 -9.69408e-17 0)
(3 -6.51701e-16 0)
(3 -6.89565e-16 0)
(3 -4.71775e-16 0)
(3 -4.22591e-16 0)
(3 2.39131e-16 0)
(3 8.84324e-16 0)
(3 1.43307e-15 0)
(3 9.2393e-16 0)
(3 3.18772e-16 0)
(3 3.05616e-17 0)
(3 4.75484e-18 0)
(3 1.44207e-16 0)
(3 -1.30614e-16 0)
(3 -4.1029e-16 0)
(3 -4.56864e-16 0)
(3 -5.0432e-16 0)
(3 -1.57316e-16 0)
(3 -8.72929e-17 0)
(3 -1.79036e-16 0)
(3 -2.04696e-16 0)
(3 -1.92588e-16 0)
(3 -2.4194e-16 0)
(3 8.39622e-17 0)
(3 1.92246e-16 0)
(3 -2.40125e-16 0)
(3 -6.52341e-16 0)
(3 -1.3868e-15 0)
(3 -8.27728e-16 0)
(3 -4.63467e-16 0)
(3 -8.6641e-16 0)
(3 -1.21899e-15 0)
(3 -1.51513e-15 0)
(3 -1.67864e-15 0)
(3 -1.6759e-15 0)
(3 -1.202e-15 0)
(3 -6.9854e-16 0)
(3 -3.96472e-16 0)
(3 -6.2661e-16 0)
(3 -9.86294e-16 0)
(3 -6.96085e-16 0)
(3 -2.35193e-16 0)
(3 -3.27849e-16 0)
(3 -2.73026e-16 0)
(3 -2.36294e-16 0)
(3 -7.12497e-16 0)
(3 -3.89003e-17 0)
(3 2.83729e-16 0)
(3 9.99314e-17 0)
(3 -5.95021e-16 0)
(3 -1.12667e-15 0)
(3 -1.01977e-15 0)
(3 -6.05657e-16 0)
(3 -5.43379e-16 0)
(3 -5.95258e-16 0)
(3 -3.99935e-16 0)
(3 -2.70727e-16 0)
(3 -2.36339e-16 0)
(3 -4.7828e-16 0)
(3 -4.90398e-16 0)
(3 -8.15477e-16 0)
(3 -7.32264e-16 0)
(3 -1.90539e-16 0)
(3 4.22354e-16 0)
(3 8.42894e-16 0)
(3 6.86234e-16 0)
(3 4.17653e-16 0)
(3 3.52545e-16 0)
(3 3.96781e-16 0)
(3 4.94702e-16 0)
(3 6.79747e-16 0)
(3 9.88496e-17 0)
(3 -7.95365e-16 0)
(3 -9.03591e-16 0)
(3 -4.46358e-16 0)
(3 -2.48531e-16 0)
(3 -6.62529e-17 0)
(3 4.10898e-16 0)
(3 -2.93131e-17 0)
(3 -4.57741e-16 0)
(3 -2.18701e-16 0)
(3 2.73811e-16 0)
(3 3.99175e-16 0)
(3 1.92982e-16 0)
(3 -3.68872e-16 0)
(3 -1.15367e-15 0)
(3 -7.13925e-16 0)
(3 -8.47035e-16 0)
(3 -1.01022e-15 0)
(3 -5.02314e-16 0)
(3 2.93857e-16 0)
(3 1.55923e-15 0)
(3 1.78905e-15 0)
(3 9.67083e-16 0)
(3 8.28835e-16 0)
(3 4.10607e-16 0)
(3 5.11497e-18 0)
(3 -6.77956e-17 0)
(3 1.75567e-16 0)
(3 2.96119e-16 0)
(3 2.24521e-16 0)
(3 5.1532e-16 0)
(3 7.69611e-16 0)
(3 1.31024e-15 0)
(3 1.49245e-15 0)
(3 1.339e-15 0)
(3 6.40529e-16 0)
(3 2.58065e-16 0)
(3 3.02037e-16 0)
(3 5.63356e-17 0)
(3 -5.26824e-16 0)
(3 -5.98203e-16 0)
(3 -7.29257e-16 0)
(3 -6.44966e-16 0)
(3 -8.67531e-16 0)
(3 -8.76325e-16 0)
(3 -6.9133e-16 0)
(3 -7.44507e-16 0)
(3 -1.39723e-16 0)
(3 -4.6709e-16 0)
(3 -6.16191e-16 0)
(3 -1.17439e-15 0)
(3 -2.25623e-15 0)
(3 -3.40836e-15 0)
(3 -1.12329e-15 0)
(3 -1.42283e-17 0)
(3 -1.97151e-16 0)
(3 -5.70902e-16 0)
(3 -1.03538e-15 0)
(3 -1.41178e-15 0)
(3 -1.98695e-15 0)
(3 -1.53481e-15 0)
(3 -8.00888e-16 0)
(3 -5.51323e-16 0)
(3 -1.32357e-15 0)
(3 -1.49308e-15 0)
(3 -1.30672e-15 0)
(3 -1.04888e-15 0)
(3 -1.03523e-15 0)
(3 -9.77064e-16 0)
(3 -8.11622e-16 0)
(3 -7.11239e-16 0)
(3 1.40329e-15 0)
(3 1.58138e-15 0)
(3 1.33764e-15 0)
(3 4.78539e-16 0)
(3 -8.07346e-16 0)
(3 -1.21022e-15 0)
(3 -1.23897e-15 0)
(3 -1.67494e-15 0)
(3 -1.2343e-15 0)
(3 -8.71934e-16 0)
(3 -2.19051e-16 0)
(3 -7.84891e-17 0)
(3 -6.44987e-16 0)
(3 -1.0924e-15 0)
(3 -9.05027e-16 0)
(3 -2.40031e-16 0)
(3 1.00511e-15 0)
(3 1.56563e-15 0)
(3 1.95908e-15 0)
(3 1.7474e-15 0)
(3 1.17102e-15 0)
(3 -2.78684e-17 0)
(3 -2.29094e-16 0)
(3 4.35937e-16 0)
(3 6.06882e-16 0)
(3 2.00862e-16 0)
(3 -1.5875e-15 0)
(3 -1.84174e-15 0)
(3 -7.37173e-16 0)
(3 -1.70701e-16 0)
(3 2.42213e-16 0)
(3 2.40119e-16 0)
(3 2.43404e-17 0)
(3 1.97395e-16 0)
(3 9.19774e-16 0)
(3 1.48684e-15 0)
(3 1.53676e-15 0)
(3 1.43571e-15 0)
(3 -9.5469e-17 0)
(3 -1.27505e-15 0)
(3 -1.3448e-15 0)
(3 -1.40987e-15 0)
(3 -8.29297e-16 0)
(3 -3.65318e-16 0)
(3 8.34725e-17 0)
(3 8.70782e-16 0)
(3 1.68518e-15 0)
(3 1.49206e-15 0)
(3 1.08939e-15 0)
(3 1.22421e-15 0)
(3 1.23956e-15 0)
(3 1.14015e-15 0)
(3 6.09492e-16 0)
(3 2.16036e-16 0)
(3 2.09926e-16 0)
(3 1.27766e-16 0)
(3 2.77348e-17 0)
(3 2.40019e-16 0)
(3 4.13426e-16 0)
(3 3.67459e-16 0)
(3 2.40704e-16 0)
(3 -3.34966e-16 0)
(3 -1.02875e-15 0)
(3 -6.89238e-16 0)
(3 -4.59121e-16 0)
(3 -2.79616e-16 0)
(3 -3.40046e-16 0)
(3 -7.50053e-16 0)
(3 -7.74796e-16 0)
(3 -8.59985e-16 0)
(3 -7.74007e-16 0)
(3 -5.58519e-16 0)
(3 -6.68278e-16 0)
(3 -7.54321e-16 0)
(3 -1.40917e-15 0)
(3 -2.11487e-15 0)
(3 -2.98593e-15 0)
(3 -2.92243e-15 0)
(3 -1.33209e-15 0)
(3 -6.47471e-16 0)
(3 -6.41483e-16 0)
(3 -7.45571e-16 0)
(3 -1.28118e-15 0)
(3 -1.52126e-15 0)
(3 -1.74516e-15 0)
(3 -1.94095e-15 0)
(3 -1.78935e-15 0)
(3 -1.34322e-15 0)
(3 -1.62679e-15 0)
(3 -6.85565e-16 0)
(3 -2.49683e-16 0)
(3 -3.45294e-16 0)
(3 -2.67366e-16 0)
(3 -9.77946e-17 0)
(3 1.14861e-16 0)
(3 1.28133e-15 0)
(3 1.24246e-15 0)
(3 1.24391e-15 0)
(3 1.81926e-15 0)
(3 2.18535e-15 0)
(3 1.31075e-15 0)
(3 6.52732e-16 0)
(3 -9.624e-16 0)
(3 -2.29509e-15 0)
(3 -1.94661e-15 0)
(3 -1.18694e-15 0)
(3 -1.6466e-16 0)
(3 1.42305e-16 0)
(3 1.15301e-16 0)
(3 -2.0233e-16 0)
(3 -3.38283e-16 0)
(3 1.12212e-15 0)
(3 2.17573e-15 0)
(3 2.17643e-15 0)
(3 1.93785e-15 0)
(3 1.52634e-15 0)
(3 1.42492e-15 0)
(3 1.43881e-15 0)
(3 1.32191e-15 0)
(3 1.39661e-15 0)
(3 6.06373e-16 0)
(3 -9.43708e-17 0)
(3 -5.21728e-16 0)
(3 1.33762e-16 0)
(3 -1.04732e-16 0)
(3 2.33498e-16 0)
(3 1.86964e-16 0)
(3 -9.4894e-17 0)
(3 1.25675e-18 0)
(3 5.35929e-16 0)
(3 7.31866e-16 0)
(3 1.1272e-15 0)
(3 1.35412e-15 0)
(3 1.14319e-15 0)
(3 5.55295e-16 0)
(3 -3.78812e-16 0)
(3 -4.07458e-16 0)
(3 -4.51432e-17 0)
(3 2.57923e-16 0)
(3 3.34021e-16 0)
(3 5.63516e-16 0)
(3 4.14091e-16 0)
(3 7.40885e-16 0)
(3 1.05453e-15 0)
(3 1.06135e-15 0)
(3 1.75768e-15 0)
(3 1.8588e-15 0)
(3 1.4257e-15 0)
(3 -5.43521e-16 0)
(3 -1.15836e-15 0)
(3 -9.27391e-16 0)
(3 -5.07884e-16 0)
(3 1.74956e-16 0)
(3 1.05955e-16 0)
(3 -1.03486e-16 0)
(3 -7.23376e-16 0)
(3 -1.24753e-15 0)
(3 -1.4634e-15 0)
(3 -1.72789e-15 0)
(3 -1.40577e-15 0)
(3 -9.68717e-16 0)
(3 -7.40031e-16 0)
(3 -7.12832e-16 0)
(3 -9.43026e-16 0)
(3 -6.18171e-16 0)
(3 -5.64379e-16 0)
(3 -8.54766e-16 0)
(3 -1.14996e-15 0)
(3 -1.56542e-15 0)
(3 -1.15811e-15 0)
(3 -1.20629e-15 0)
(3 -2.38554e-15 0)
(3 -2.98433e-15 0)
(3 -2.01559e-15 0)
(3 -1.28595e-15 0)
(3 -1.30012e-15 0)
(3 -1.73135e-15 0)
(3 -1.92538e-15 0)
(3 -2.04433e-15 0)
(3 -1.23752e-15 0)
(3 -2.95337e-16 0)
(3 -5.71956e-16 0)
(3 -1.45411e-15 0)
(3 -1.02832e-15 0)
(3 -6.0401e-16 0)
(3 6.43253e-17 0)
(3 5.28801e-16 0)
(3 3.504e-16 0)
(3 2.61029e-16 0)
(3 1.88135e-16 0)
(3 3.94464e-16 0)
(3 9.10636e-16 0)
(3 5.04423e-16 0)
(3 2.60336e-16 0)
(3 1.14102e-15 0)
(3 1.55165e-15 0)
(3 2.18869e-15 0)
(3 1.2955e-15 0)
(3 7.9326e-16 0)
(3 -8.48429e-16 0)
(3 -1.20181e-15 0)
(3 -5.18269e-16 0)
(3 -4.35814e-16 0)
(3 -3.95501e-16 0)
(3 -2.32225e-16 0)
(3 -2.56826e-16 0)
(3 -3.18846e-16 0)
(3 2.7552e-17 0)
(3 5.41548e-16 0)
(3 9.5897e-16 0)
(3 9.07762e-16 0)
(3 4.66967e-16 0)
(3 8.42942e-16 0)
(3 1.72533e-15 0)
(3 1.58199e-15 0)
(3 9.90394e-16 0)
(3 5.51161e-16 0)
(3 -3.5699e-16 0)
(3 3.96374e-16 0)
(3 2.62702e-16 0)
(3 -4.10639e-16 0)
(3 1.45357e-16 0)
(3 -5.06199e-17 0)
(3 2.92079e-16 0)
(3 9.97952e-17 0)
(3 1.54017e-16 0)
(3 -5.52321e-17 0)
(3 -1.5607e-17 0)
(3 2.48371e-16 0)
(3 3.36773e-16 0)
(3 8.49168e-16 0)
(3 7.44793e-16 0)
(3 2.91542e-16 0)
(3 3.01712e-16 0)
(3 -1.89658e-16 0)
(3 -8.32382e-17 0)
(3 2.60762e-16 0)
(3 4.36083e-16 0)
(3 5.83508e-16 0)
(3 4.43597e-16 0)
(3 1.36502e-15 0)
(3 1.24592e-15 0)
(3 1.14208e-15 0)
(3 5.88118e-16 0)
(3 -5.13762e-16 0)
(3 -1.68346e-15 0)
(3 -2.19875e-15 0)
(3 -1.66462e-15 0)
(3 -1.22947e-15 0)
(3 -1.16486e-15 0)
(3 -1.12868e-15 0)
(3 -1.04335e-15 0)
(3 -1.36137e-15 0)
(3 -1.2904e-15 0)
(3 -7.1616e-16 0)
(3 -5.16693e-16 0)
(3 -2.96434e-16 0)
(3 -4.57623e-16 0)
(3 -4.01219e-16 0)
(3 -3.42597e-16 0)
(3 -7.41305e-16 0)
(3 -1.06617e-15 0)
(3 -7.03225e-16 0)
(3 -4.86334e-16 0)
(3 -4.27975e-16 0)
(3 -7.23498e-16 0)
(3 -1.0321e-15 0)
(3 -2.29286e-15 0)
(3 -2.29767e-15 0)
(3 -1.1424e-15 0)
(3 -1.40061e-15 0)
(3 -1.87361e-15 0)
(3 -1.24774e-15 0)
(3 -1.09383e-15 0)
(3 -1.14798e-15 0)
(3 -8.32552e-16 0)
(3 2.13531e-16 0)
(3 8.70159e-16 0)
(3 -7.89269e-17 0)
(3 -2.28491e-16 0)
(3 1.89671e-15 0)
(3 1.44343e-15 0)
(3 1.0712e-15 0)
(3 1.20598e-15 0)
(3 1.5266e-16 0)
(3 -6.73407e-16 0)
(3 -9.82913e-16 0)
(3 -1.32019e-15 0)
(3 -1.23083e-15 0)
(3 -7.98971e-16 0)
(3 -8.22257e-16 0)
(3 -1.03144e-15 0)
(3 -8.17101e-16 0)
(3 -4.02416e-16 0)
(3 3.71645e-16 0)
(3 1.00325e-15 0)
(3 1.66802e-15 0)
(3 1.65725e-15 0)
(3 1.05179e-15 0)
(3 7.5417e-16 0)
(3 6.2547e-16 0)
(3 6.33305e-16 0)
(3 1.08227e-15 0)
(3 9.37764e-16 0)
(3 8.11578e-16 0)
(3 5.28662e-16 0)
(3 4.81328e-16 0)
(3 1.21992e-15 0)
(3 1.59226e-15 0)
(3 1.60922e-15 0)
(3 1.36898e-15 0)
(3 1.18226e-15 0)
(3 1.23692e-15 0)
(3 1.33666e-15 0)
(3 1.79599e-15 0)
(3 6.7149e-16 0)
(3 -5.33651e-17 0)
(3 5.27645e-17 0)
(3 4.50317e-16 0)
(3 5.85104e-16 0)
(3 1.06917e-16 0)
(3 -4.63591e-16 0)
(3 -2.00752e-16 0)
(3 -1.21932e-16 0)
(3 4.4334e-17 0)
(3 1.84841e-16 0)
(3 4.61931e-16 0)
(3 8.18587e-16 0)
(3 8.07677e-16 0)
(3 5.74454e-16 0)
(3 4.5693e-16 0)
(3 6.54729e-16 0)
(3 5.01392e-16 0)
(3 6.27036e-16 0)
(3 6.44725e-16 0)
(3 6.14439e-16 0)
(3 5.7532e-16 0)
(3 6.16211e-16 0)
(3 5.77411e-16 0)
(3 5.10057e-16 0)
(3 5.82712e-16 0)
(3 -7.35216e-17 0)
(3 -1.30253e-15 0)
(3 -1.76751e-15 0)
(3 -1.86446e-15 0)
(3 -9.82811e-16 0)
(3 -4.97173e-16 0)
(3 -1.26904e-16 0)
(3 -8.19308e-17 0)
(3 -4.53891e-16 0)
(3 -2.3688e-16 0)
(3 -1.52281e-16 0)
(3 2.40694e-16 0)
(3 3.53536e-16 0)
(3 4.20391e-16 0)
(3 8.67003e-16 0)
(3 1.11956e-15 0)
(3 1.2477e-15 0)
(3 1.15559e-15 0)
(3 8.31815e-16 0)
(3 1.02171e-16 0)
(3 -5.01948e-16 0)
(3 -7.06564e-16 0)
(3 -1.4516e-15 0)
(3 -2.07527e-15 0)
(3 -2.15702e-15 0)
(3 -2.1205e-15 0)
(3 -1.99845e-15 0)
(3 -1.1312e-15 0)
(3 -6.97084e-16 0)
(3 -3.2803e-16 0)
(3 -2.86643e-16 0)
(3 2.48639e-16 0)
(3 8.08761e-16 0)
(3 9.26105e-16 0)
(3 1.29525e-15 0)
(3 1.68722e-15 0)
(3 1.37761e-15 0)
(3 1.02144e-15 0)
(3 6.84354e-16 0)
(3 1.12389e-16 0)
(3 -3.09356e-16 0)
(3 -6.98827e-16 0)
(3 -9.07585e-16 0)
(3 -6.17083e-16 0)
(3 -2.73652e-16 0)
(3 -7.31384e-16 0)
(3 -1.76928e-15 0)
(3 -2.21027e-15 0)
(3 -1.94302e-15 0)
(3 -2.8644e-16 0)
(3 2.69486e-15 0)
(3 3.62183e-15 0)
(3 3.57912e-15 0)
(3 3.39058e-15 0)
(3 2.72472e-15 0)
(3 2.70248e-15 0)
(3 2.88279e-15 0)
(3 3.01247e-15 0)
(3 2.32447e-15 0)
(3 1.71527e-15 0)
(3 1.23938e-15 0)
(3 1.30467e-15 0)
(3 1.66926e-15 0)
(3 2.13813e-15 0)
(3 2.61604e-15 0)
(3 1.97026e-15 0)
(3 7.34432e-16 0)
(3 4.09762e-16 0)
(3 1.04593e-15 0)
(3 1.36177e-15 0)
(3 1.41509e-15 0)
(3 9.8523e-16 0)
(3 4.51982e-16 0)
(3 7.21004e-16 0)
(3 7.9957e-16 0)
(3 6.89636e-17 0)
(3 1.57319e-16 0)
(3 3.78756e-17 0)
(3 -4.68505e-16 0)
(3 -1.06688e-16 0)
(3 -6.46684e-17 0)
(3 1.01038e-16 0)
(3 4.98232e-16 0)
(3 8.07399e-16 0)
(3 6.9075e-16 0)
(3 1.06647e-15 0)
(3 6.52559e-16 0)
(3 -1.54115e-16 0)
(3 1.05362e-16 0)
(3 1.70837e-16 0)
(3 4.11871e-16 0)
(3 2.93534e-16 0)
(3 4.39015e-16 0)
(3 3.83241e-16 0)
(3 4.59645e-16 0)
(3 8.46912e-16 0)
(3 1.11783e-15 0)
(3 8.08173e-16 0)
(3 -1.20067e-16 0)
(3 -3.67922e-16 0)
(3 -5.44961e-16 0)
(3 -4.02169e-16 0)
(3 -1.16429e-16 0)
(3 -1.25183e-16 0)
(3 -5.49142e-16 0)
(3 -1.33264e-15 0)
(3 -1.46198e-15 0)
(3 -1.71819e-15 0)
(3 -2.97291e-16 0)
(3 7.87911e-17 0)
(3 1.08128e-15 0)
(3 9.6192e-16 0)
(3 9.06534e-16 0)
(3 9.25142e-16 0)
(3 6.16961e-16 0)
(3 3.43049e-16 0)
(3 -1.72468e-16 0)
(3 -3.19201e-16 0)
(3 -1.34756e-15 0)
(3 -3.29313e-15 0)
(3 -3.50023e-15 0)
(3 -3.98786e-15 0)
(3 -2.1374e-15 0)
(3 -1.15811e-15 0)
(3 1.29423e-16 0)
(3 7.77969e-16 0)
(3 5.32119e-16 0)
(3 7.95558e-16 0)
(3 1.33005e-15 0)
(3 2.71519e-15 0)
(3 2.63873e-15 0)
(3 1.11726e-15 0)
(3 8.88856e-17 0)
(3 -5.71998e-16 0)
(3 -7.55506e-16 0)
(3 -7.56294e-16 0)
(3 -6.31729e-16 0)
(3 -3.80141e-16 0)
(3 1.09711e-16 0)
(3 3.93473e-16 0)
(3 -2.17531e-16 0)
(3 -2.15465e-16 0)
(3 -5.96733e-16 0)
(3 -9.77446e-16 0)
(3 -7.17976e-16 0)
(3 6.21233e-16 0)
(3 6.64793e-16 0)
(3 3.61192e-16 0)
(3 8.08355e-16 0)
(3 2.09243e-15 0)
(3 2.55127e-15 0)
(3 2.9111e-15 0)
(3 3.39736e-15 0)
(3 3.12117e-15 0)
(3 2.87847e-15 0)
(3 1.95454e-15 0)
(3 1.78862e-15 0)
(3 1.42065e-15 0)
(3 1.31661e-15 0)
(3 1.29743e-15 0)
(3 1.23824e-15 0)
(3 4.19989e-16 0)
(3 -3.84175e-16 0)
(3 -9.01353e-16 0)
(3 2.76325e-16 0)
(3 4.55804e-16 0)
(3 9.23548e-16 0)
(3 2.35584e-15 0)
(3 1.96395e-15 0)
(3 8.63419e-16 0)
(3 4.21216e-16 0)
(3 3.67807e-17 0)
(3 6.3627e-16 0)
(3 4.73987e-16 0)
(3 -1.57246e-16 0)
(3 -8.39795e-16 0)
(3 -9.87461e-16 0)
(3 -4.16782e-16 0)
(3 1.34107e-16 0)
(3 3.2397e-16 0)
(3 4.6845e-16 0)
(3 7.76772e-16 0)
(3 2.46222e-16 0)
(3 -2.00202e-16 0)
(3 -2.63857e-16 0)
(3 -2.00918e-16 0)
(3 4.54582e-16 0)
(3 6.69325e-16 0)
(3 6.89581e-16 0)
(3 6.23775e-16 0)
(3 3.26659e-16 0)
(3 6.73872e-16 0)
(3 1.37125e-15 0)
(3 1.41492e-15 0)
(3 8.28834e-16 0)
(3 -6.98383e-16 0)
(3 -1.00232e-15 0)
(3 -4.04109e-16 0)
(3 1.3229e-16 0)
(3 1.90489e-16 0)
(3 1.01644e-16 0)
(3 -9.92782e-17 0)
(3 -1.22071e-15 0)
(3 -1.49238e-15 0)
(3 -1.24503e-15 0)
(3 1.63307e-16 0)
(3 2.77754e-16 0)
(3 -2.87199e-16 0)
(3 -4.1018e-16 0)
(3 -7.22642e-17 0)
(3 3.94541e-16 0)
(3 6.11919e-16 0)
(3 9.70012e-16 0)
(3 3.11683e-16 0)
(3 -1.52996e-15 0)
(3 -2.39962e-15 0)
(3 -3.32462e-15 0)
(3 -3.31187e-15 0)
(3 -2.24315e-15 0)
(3 -1.26251e-15 0)
(3 -6.33168e-16 0)
(3 -7.2812e-16 0)
(3 -5.46417e-16 0)
(3 1.21656e-15 0)
(3 2.07991e-15 0)
(3 2.62093e-15 0)
(3 2.39188e-15 0)
(3 1.87324e-15 0)
(3 1.16116e-15 0)
(3 3.62859e-16 0)
(3 -5.23624e-16 0)
(3 -1.11348e-15 0)
(3 -8.68347e-16 0)
(3 -9.03906e-16 0)
(3 -9.27641e-17 0)
(3 -6.53696e-17 0)
(3 -3.70576e-16 0)
(3 -1.1086e-15 0)
(3 -1.91368e-15 0)
(3 -2.14114e-15 0)
(3 -1.15029e-15 0)
(3 -9.19611e-16 0)
(3 -8.23511e-16 0)
(3 -9.80702e-16 0)
(3 -6.54859e-16 0)
(3 1.29115e-15 0)
(3 2.39074e-15 0)
(3 3.01869e-15 0)
(3 3.0842e-15 0)
(3 2.58426e-15 0)
(3 2.94041e-15 0)
(3 2.94821e-15 0)
(3 2.52206e-15 0)
(3 2.06661e-15 0)
(3 1.19609e-15 0)
(3 4.92022e-16 0)
(3 -4.4699e-16 0)
(3 -1.7504e-16 0)
(3 2.81602e-16 0)
(3 4.95898e-16 0)
(3 7.02061e-16 0)
(3 7.31583e-16 0)
(3 1.59115e-15 0)
(3 1.96491e-15 0)
(3 1.30617e-15 0)
(3 1.11594e-15 0)
(3 1.62177e-15 0)
(3 -1.36187e-16 0)
(3 -9.09858e-17 0)
(3 1.80266e-16 0)
(3 1.59761e-16 0)
(3 -6.01438e-16 0)
(3 -6.43837e-16 0)
(3 -5.32876e-16 0)
(3 -3.99439e-16 0)
(3 1.41739e-18 0)
(3 2.57776e-16 0)
(3 1.29249e-15 0)
(3 1.84342e-15 0)
(3 1.54308e-15 0)
(3 6.72158e-16 0)
(3 3.0195e-16 0)
(3 4.56977e-16 0)
(3 2.99719e-16 0)
(3 -2.51101e-16 0)
(3 -6.0859e-16 0)
(3 -2.81616e-16 0)
(3 1.98801e-16 0)
(3 1.09795e-15 0)
(3 6.96167e-16 0)
(3 3.83732e-16 0)
(3 3.9745e-16 0)
(3 4.42814e-17 0)
(3 1.50341e-16 0)
(3 3.97202e-16 0)
(3 1.26452e-16 0)
(3 -2.71658e-17 0)
(3 -2.56151e-17 0)
(3 -4.01888e-16 0)
(3 -5.63423e-16 0)
(3 -1.67539e-15 0)
(3 -1.74601e-15 0)
(3 -1.38877e-15 0)
(3 -1.22353e-16 0)
(3 9.37756e-17 0)
(3 2.3496e-16 0)
(3 2.73801e-16 0)
(3 2.16853e-16 0)
(3 5.71759e-16 0)
(3 -1.42463e-15 0)
(3 -1.72186e-15 0)
(3 -2.06388e-15 0)
(3 -2.33976e-15 0)
(3 -2.39197e-15 0)
(3 -1.82087e-15 0)
(3 -1.65619e-15 0)
(3 -1.71282e-15 0)
(3 -1.01885e-15 0)
(3 -5.64002e-16 0)
(3 -1.85543e-16 0)
(3 4.96816e-16 0)
(3 7.52531e-16 0)
(3 6.2177e-16 0)
(3 6.74964e-16 0)
(3 7.62817e-16 0)
(3 5.69348e-16 0)
(3 -1.33733e-16 0)
(3 -2.51172e-16 0)
(3 -6.31694e-16 0)
(3 -7.845e-16 0)
(3 -2.02557e-16 0)
(3 8.90418e-17 0)
(3 2.0191e-16 0)
(3 -7.78685e-17 0)
(3 -5.22566e-16 0)
(3 -4.0209e-16 0)
(3 -8.63175e-16 0)
(3 -1.13714e-15 0)
(3 -1.04539e-15 0)
(3 -6.66072e-16 0)
(3 -3.76391e-17 0)
(3 6.49485e-16 0)
(3 1.2874e-15 0)
(3 1.72835e-15 0)
(3 1.85874e-15 0)
(3 2.19019e-15 0)
(3 2.00297e-15 0)
(3 1.53347e-15 0)
(3 1.12468e-15 0)
(3 9.74004e-16 0)
(3 4.20292e-16 0)
(3 2.85059e-16 0)
(3 3.00035e-16 0)
(3 8.16764e-17 0)
(3 5.44967e-16 0)
(3 9.23646e-16 0)
(3 7.84748e-16 0)
(3 6.74843e-16 0)
(3 6.16685e-16 0)
(3 -1.78461e-15 0)
(3 -1.90241e-15 0)
(3 1.0948e-15 0)
(3 3.75327e-15 0)
(3 -7.40842e-17 0)
(3 -4.24728e-16 0)
(3 -9.85696e-18 0)
(3 2.87871e-16 0)
(3 2.48651e-16 0)
(3 5.10421e-17 0)
(3 -3.94062e-16 0)
(3 -1.71284e-16 0)
(3 -2.32727e-16 0)
(3 2.60578e-16 0)
(3 8.88939e-16 0)
(3 1.46476e-15 0)
(3 1.82863e-15 0)
(3 1.62425e-15 0)
(3 1.35464e-15 0)
(3 -7.07372e-16 0)
(3 -9.82803e-16 0)
(3 -1.21036e-15 0)
(3 -8.6784e-16 0)
(3 -3.5625e-16 0)
(3 4.76655e-16 0)
(3 4.39846e-16 0)
(3 6.31678e-16 0)
(3 1.07429e-15 0)
(3 9.05292e-16 0)
(3 -2.27823e-16 0)
(3 -2.2767e-16 0)
(3 2.30816e-16 0)
(3 4.32848e-16 0)
(3 -1.13883e-16 0)
(3 -4.89415e-16 0)
(3 8.82483e-17 0)
(3 3.75331e-16 0)
(3 3.38671e-16 0)
(3 -3.65455e-16 0)
(3 -6.93852e-16 0)
(3 -3.73868e-16 0)
(3 1.39446e-16 0)
(3 5.92373e-16 0)
(3 1.30091e-15 0)
(3 1.34395e-15 0)
(3 -6.43781e-16 0)
(3 -1.29121e-15 0)
(3 -8.69837e-16 0)
(3 -1.60886e-15 0)
(3 -1.96965e-15 0)
(3 -2.5508e-15 0)
(3 -2.75017e-15 0)
(3 -2.3271e-15 0)
(3 -2.16395e-15 0)
(3 -1.7723e-15 0)
(3 -1.49714e-15 0)
(3 -6.65248e-16 0)
(3 -2.84502e-16 0)
(3 -2.38267e-16 0)
(3 -7.07051e-16 0)
(3 -5.25662e-16 0)
(3 -1.0166e-16 0)
(3 1.57094e-16 0)
(3 1.75214e-16 0)
(3 1.87006e-16 0)
(3 -3.58928e-16 0)
(3 -2.46603e-16 0)
(3 -3.22681e-16 0)
(3 -7.68667e-16 0)
(3 -7.25619e-16 0)
(3 -3.85532e-16 0)
(3 -3.32589e-16 0)
(3 -4.88021e-16 0)
(3 -6.72978e-16 0)
(3 -7.35696e-16 0)
(3 -8.3996e-16 0)
(3 -8.35893e-16 0)
(3 -8.48187e-16 0)
(3 -9.62784e-16 0)
(3 -8.47981e-16 0)
(3 -5.85665e-16 0)
(3 -3.71287e-16 0)
(3 -5.76574e-17 0)
(3 -1.78576e-17 0)
(3 -3.71372e-16 0)
(3 -3.25318e-16 0)
(3 -2.20416e-16 0)
(3 -2.35601e-16 0)
(3 -1.41164e-17 0)
(3 4.60084e-16 0)
(3 5.69794e-16 0)
(3 5.18301e-16 0)
(3 5.01121e-16 0)
(3 3.36883e-16 0)
(3 4.01498e-16 0)
(3 -5.92943e-16 0)
(3 -3.38482e-15 0)
(3 -2.54352e-15 0)
(3 1.08975e-15 0)
(3 2.62005e-15 0)
(3 1.30716e-16 0)
(3 -7.73922e-17 0)
(3 -2.24801e-16 0)
(3 -4.95939e-16 0)
(3 -4.62418e-16 0)
(3 -2.23575e-16 0)
(3 -1.57518e-16 0)
(3 -1.40929e-16 0)
(3 6.57039e-17 0)
(3 5.57783e-16 0)
(3 6.33957e-16 0)
(3 1.44324e-15 0)
(3 1.85729e-15 0)
(3 1.81168e-15 0)
(3 1.37835e-15 0)
(3 4.64688e-16 0)
(3 -4.3843e-16 0)
(3 -4.52912e-16 0)
(3 4.96408e-16 0)
(3 6.55179e-16 0)
(3 8.42815e-16 0)
(3 1.17193e-15 0)
(3 8.2935e-16 0)
(3 4.32298e-16 0)
(3 6.20406e-17 0)
(3 4.64705e-16 0)
(3 5.43182e-16 0)
(3 1.56054e-16 0)
(3 3.53068e-17 0)
(3 6.13619e-18 0)
(3 -3.45565e-18 0)
(3 4.41889e-16 0)
(3 1.02355e-15 0)
(3 1.49962e-15 0)
(3 1.27543e-15 0)
(3 4.97725e-16 0)
(3 -3.46965e-16 0)
(3 -4.17651e-16 0)
(3 4.42118e-16 0)
(3 8.5875e-16 0)
(3 1.44187e-15 0)
(3 9.81434e-16 0)
(3 9.84819e-16 0)
(3 1.85001e-15 0)
(3 3.48133e-16 0)
(3 -9.94962e-16 0)
(3 -2.1669e-15 0)
(3 -2.82025e-15 0)
(3 -2.75348e-15 0)
(3 -2.9269e-15 0)
(3 -2.63763e-15 0)
(3 -1.8847e-15 0)
(3 -9.42495e-16 0)
(3 -5.09694e-16 0)
(3 -6.48477e-16 0)
(3 -2.62628e-16 0)
(3 -3.95589e-16 0)
(3 2.04232e-16 0)
(3 6.05997e-16 0)
(3 6.29591e-16 0)
(3 5.53477e-16 0)
(3 2.3716e-16 0)
(3 -8.33829e-17 0)
(3 -6.75707e-16 0)
(3 -8.48517e-16 0)
(3 -5.5712e-16 0)
(3 -1.10869e-16 0)
(3 3.23073e-16 0)
(3 6.16716e-16 0)
(3 6.20428e-16 0)
(3 2.84488e-16 0)
(3 -6.19106e-17 0)
(3 -4.5155e-16 0)
(3 -1.03474e-15 0)
(3 -1.50146e-15 0)
(3 -1.96889e-15 0)
(3 -1.81535e-15 0)
(3 -1.68183e-15 0)
(3 -1.91543e-15 0)
(3 -1.61857e-15 0)
(3 -1.02233e-15 0)
(3 -1.04034e-15 0)
(3 -7.28397e-16 0)
(3 -8.55451e-16 0)
(3 -1.31593e-15 0)
(3 -9.84978e-16 0)
(3 -5.88646e-16 0)
(3 -4.72021e-16 0)
(3 -9.38292e-16 0)
(3 -9.51072e-16 0)
(3 -1.04808e-15 0)
(3 -1.4216e-15 0)
(3 -3.50583e-15 0)
(3 -3.23721e-15 0)
(3 -2.24973e-16 0)
(3 5.90878e-16 0)
(3 5.29179e-18 0)
(3 -9.13655e-17 0)
(3 -2.74559e-16 0)
(3 -2.74757e-16 0)
(3 -1.32079e-16 0)
(3 -1.03224e-16 0)
(3 4.78455e-16 0)
(3 6.65674e-16 0)
(3 8.19788e-16 0)
(3 8.53224e-16 0)
(3 1.32908e-15 0)
(3 1.40501e-15 0)
(3 6.63374e-16 0)
(3 4.9681e-16 0)
(3 2.72159e-16 0)
(3 2.26342e-16 0)
(3 -4.6583e-16 0)
(3 -2.35454e-16 0)
(3 7.61176e-18 0)
(3 1.71311e-16 0)
(3 3.03524e-16 0)
(3 7.00898e-16 0)
(3 1.26286e-15 0)
(3 1.65381e-15 0)
(3 1.55774e-15 0)
(3 1.54399e-15 0)
(3 1.01177e-15 0)
(3 1.7948e-17 0)
(3 -6.87323e-16 0)
(3 -4.17204e-16 0)
(3 3.32661e-16 0)
(3 6.37038e-17 0)
(3 3.53965e-16 0)
(3 6.1119e-16 0)
(3 1.09576e-15 0)
(3 1.31851e-15 0)
(3 1.28947e-15 0)
(3 1.11545e-15 0)
(3 1.45354e-16 0)
(3 -5.0893e-16 0)
(3 -3.0905e-16 0)
(3 9.25745e-16 0)
(3 1.39987e-15 0)
(3 1.3499e-15 0)
(3 5.64657e-16 0)
(3 -6.3176e-16 0)
(3 -3.64829e-17 0)
(3 2.47555e-16 0)
(3 -4.3715e-16 0)
(3 -8.80119e-16 0)
(3 -1.10455e-15 0)
(3 6.09305e-16 0)
(3 7.42204e-16 0)
(3 5.39463e-16 0)
(3 7.79373e-16 0)
(3 5.30413e-16 0)
(3 -1.91364e-16 0)
(3 -9.15206e-17 0)
(3 -1.29378e-16 0)
(3 -5.14782e-16 0)
(3 -2.44174e-16 0)
(3 3.28892e-16 0)
(3 -1.25555e-15 0)
(3 -2.41259e-15 0)
(3 -2.40897e-15 0)
(3 -1.06568e-15 0)
(3 -5.42728e-16 0)
(3 5.18663e-16 0)
(3 9.22452e-16 0)
(3 1.01711e-16 0)
(3 -5.97143e-16 0)
(3 -1.07945e-15 0)
(3 -1.39848e-15 0)
(3 -1.21744e-15 0)
(3 -1.15383e-15 0)
(3 -1.3176e-15 0)
(3 -1.17787e-15 0)
(3 -1.30697e-16 0)
(3 -1.31932e-16 0)
(3 -1.96174e-15 0)
(3 -2.04125e-15 0)
(3 -1.94946e-15 0)
(3 -1.72955e-15 0)
(3 -1.77552e-15 0)
(3 -2.60905e-15 0)
(3 -2.96431e-15 0)
(3 -2.69828e-15 0)
(3 -2.02774e-15 0)
(3 -1.72894e-15 0)
(3 -1.44717e-15 0)
(3 -9.96903e-16 0)
(3 -3.10136e-15 0)
(3 -4.27069e-15 0)
(3 -3.4582e-15 0)
(3 -1.74368e-15 0)
(3 -1.37848e-16 0)
(3 8.1895e-18 0)
(3 -6.4774e-17 0)
(3 -2.95334e-16 0)
(3 -1.25067e-16 0)
(3 -2.55305e-16 0)
(3 -3.98434e-16 0)
(3 -1.74474e-16 0)
(3 3.22187e-16 0)
(3 4.28027e-16 0)
(3 1.59909e-16 0)
(3 -4.29037e-16 0)
(3 -1.0259e-15 0)
(3 -1.84688e-15 0)
(3 -1.83478e-15 0)
(3 -1.77375e-15 0)
(3 -1.87568e-15 0)
(3 -2.0823e-15 0)
(3 -9.45123e-16 0)
(3 -8.52303e-16 0)
(3 -4.65187e-16 0)
(3 -3.12098e-16 0)
(3 -2.82957e-17 0)
(3 7.81107e-16 0)
(3 9.64726e-16 0)
(3 1.71696e-15 0)
(3 1.86626e-15 0)
(3 1.21218e-15 0)
(3 2.16321e-16 0)
(3 -1.18333e-16 0)
(3 9.22618e-17 0)
(3 5.70196e-16 0)
(3 3.21172e-16 0)
(3 4.50192e-16 0)
(3 3.69777e-16 0)
(3 1.0012e-15 0)
(3 1.39922e-15 0)
(3 1.61664e-15 0)
(3 1.07254e-15 0)
(3 -5.06779e-16 0)
(3 -1.49443e-15 0)
(3 -1.90296e-15 0)
(3 -1.61755e-15 0)
(3 -3.93687e-17 0)
(3 9.0758e-17 0)
(3 6.4896e-16 0)
(3 2.06078e-16 0)
(3 6.74837e-16 0)
(3 8.26166e-16 0)
(3 1.46742e-15 0)
(3 1.92806e-15 0)
(3 1.7297e-15 0)
(3 1.38949e-15 0)
(3 1.41018e-15 0)
(3 1.63481e-15 0)
(3 1.72715e-15 0)
(3 9.86151e-16 0)
(3 1.26541e-15 0)
(3 1.45742e-15 0)
(3 2.47535e-16 0)
(3 -9.61309e-16 0)
(3 -1.15749e-15 0)
(3 -8.74754e-16 0)
(3 -1.60768e-15 0)
(3 -2.86533e-15 0)
(3 -2.78897e-15 0)
(3 -2.43849e-15 0)
(3 -2.01462e-15 0)
(3 -1.19371e-15 0)
(3 -1.22815e-15 0)
(3 -1.32684e-15 0)
(3 -1.77363e-15 0)
(3 -1.71348e-15 0)
(3 -1.63846e-15 0)
(3 -1.95929e-15 0)
(3 -1.77944e-15 0)
(3 -9.57562e-16 0)
(3 -1.64989e-16 0)
(3 2.79585e-16 0)
(3 -4.92184e-16 0)
(3 -1.90672e-15 0)
(3 -2.4515e-15 0)
(3 -2.25399e-15 0)
(3 -2.35121e-15 0)
(3 -2.6869e-15 0)
(3 -2.85103e-15 0)
(3 -2.99122e-15 0)
(3 -2.92995e-15 0)
(3 -2.77507e-15 0)
(3 -2.68701e-15 0)
(3 -2.0463e-15 0)
(3 -2.07531e-15 0)
(3 -3.4247e-15 0)
(3 -3.60265e-15 0)
(3 -2.46721e-15 0)
(3 -1.23858e-15 0)
(3 -1.30417e-15 0)
(3 4.51195e-17 0)
(3 1.4647e-17 0)
(3 -4.52724e-16 0)
(3 -4.456e-16 0)
(3 -5.71593e-16 0)
(3 -3.33626e-16 0)
(3 1.15683e-16 0)
(3 2.96323e-16 0)
(3 2.77325e-16 0)
(3 2.80226e-17 0)
(3 -4.37375e-16 0)
(3 -1.08082e-15 0)
(3 -1.5316e-15 0)
(3 -9.87037e-16 0)
(3 -4.81006e-16 0)
(3 -2.33111e-16 0)
(3 -1.53999e-16 0)
(3 -6.16062e-16 0)
(3 -6.71563e-16 0)
(3 -8.4917e-16 0)
(3 -7.77918e-16 0)
(3 -6.41346e-16 0)
(3 -1.38349e-16 0)
(3 2.80811e-16 0)
(3 1.43471e-15 0)
(3 2.22913e-15 0)
(3 1.78724e-15 0)
(3 1.12952e-15 0)
(3 1.25366e-15 0)
(3 1.38695e-15 0)
(3 1.40921e-15 0)
(3 1.22801e-15 0)
(3 1.33138e-15 0)
(3 1.42643e-15 0)
(3 1.21939e-15 0)
(3 9.50435e-16 0)
(3 7.04119e-16 0)
(3 2.33489e-16 0)
(3 -9.93833e-17 0)
(3 -6.32428e-16 0)
(3 -1.20357e-15 0)
(3 -1.71321e-15 0)
(3 -1.21042e-15 0)
(3 -3.44814e-16 0)
(3 8.0184e-16 0)
(3 9.58654e-16 0)
(3 7.94052e-16 0)
(3 3.71589e-16 0)
(3 4.02447e-16 0)
(3 1.26987e-15 0)
(3 1.61833e-15 0)
(3 1.25154e-15 0)
(3 1.27974e-15 0)
(3 1.57938e-15 0)
(3 1.7846e-15 0)
(3 2.36398e-15 0)
(3 3.18621e-15 0)
(3 2.7561e-15 0)
(3 9.29054e-16 0)
(3 -5.51107e-16 0)
(3 -1.40767e-15 0)
(3 -1.09877e-15 0)
(3 -8.23799e-16 0)
(3 -6.55753e-16 0)
(3 -1.07724e-15 0)
(3 -1.65392e-15 0)
(3 -1.89101e-15 0)
(3 -1.89303e-15 0)
(3 -1.51298e-15 0)
(3 -1.62114e-15 0)
(3 -2.18622e-15 0)
(3 -2.35619e-15 0)
(3 -2.00768e-15 0)
(3 -1.99963e-15 0)
(3 -1.81173e-15 0)
(3 -1.25e-15 0)
(3 -6.97493e-16 0)
(3 -9.02888e-16 0)
(3 -1.84715e-15 0)
(3 -2.38863e-15 0)
(3 -2.70322e-15 0)
(3 -2.04974e-15 0)
(3 -2.38317e-15 0)
(3 -2.27924e-15 0)
(3 -2.59879e-15 0)
(3 -2.47986e-15 0)
(3 -2.25466e-15 0)
(3 -2.67832e-15 0)
(3 -3.48889e-15 0)
(3 -3.21268e-15 0)
(3 -3.61721e-15 0)
(3 -4.23733e-15 0)
(3 -3.56048e-15 0)
(3 -3.09132e-15 0)
(3 -2.6105e-15 0)
(3 -4.05329e-15 0)
(3 -6.5839e-17 0)
(3 -3.86805e-16 0)
(3 -1.69878e-16 0)
(3 9.25369e-18 0)
(3 6.8918e-17 0)
(3 -1.6487e-16 0)
(3 -1.76766e-16 0)
(3 -1.72586e-16 0)
(3 2.11125e-16 0)
(3 1.01722e-16 0)
(3 -1.63016e-16 0)
(3 -6.49767e-16 0)
(3 -6.42543e-16 0)
(3 -7.92955e-16 0)
(3 -6.97412e-16 0)
(3 -2.37418e-16 0)
(3 1.15644e-16 0)
(3 -1.90123e-16 0)
(3 -4.30023e-16 0)
(3 -7.54849e-16 0)
(3 -6.73822e-16 0)
(3 -6.12731e-16 0)
(3 -7.53589e-16 0)
(3 -4.21575e-16 0)
(3 3.93168e-16 0)
(3 9.29085e-16 0)
(3 1.58199e-15 0)
(3 1.89756e-15 0)
(3 2.51134e-15 0)
(3 2.87842e-15 0)
(3 2.16146e-15 0)
(3 1.81947e-15 0)
(3 1.40176e-15 0)
(3 1.27396e-15 0)
(3 1.31825e-15 0)
(3 1.18933e-15 0)
(3 1.3056e-15 0)
(3 8.9102e-16 0)
(3 2.78808e-16 0)
(3 -4.01624e-16 0)
(3 -6.00556e-16 0)
(3 -7.23243e-16 0)
(3 -6.29047e-16 0)
(3 -6.96849e-16 0)
(3 -9.45251e-16 0)
(3 -5.96211e-16 0)
(3 -3.97324e-16 0)
(3 -4.64888e-16 0)
(3 -6.86884e-16 0)
(3 -2.43032e-16 0)
(3 1.66458e-16 0)
(3 8.35771e-16 0)
(3 1.12081e-15 0)
(3 1.07345e-15 0)
(3 1.26512e-15 0)
(3 1.96713e-15 0)
(3 1.64127e-15 0)
(3 1.0744e-15 0)
(3 1.08477e-15 0)
(3 1.58071e-15 0)
(3 2.1596e-16 0)
(3 -8.53614e-17 0)
(3 1.14782e-16 0)
(3 9.18034e-16 0)
(3 8.99377e-16 0)
(3 -2.11525e-17 0)
(3 -8.23914e-16 0)
(3 -6.76119e-16 0)
(3 -6.84664e-16 0)
(3 -1.11554e-15 0)
(3 -1.99757e-15 0)
(3 -2.64414e-15 0)
(3 -1.95501e-15 0)
(3 -1.51827e-15 0)
(3 -1.57469e-15 0)
(3 -1.4955e-15 0)
(3 -1.45432e-15 0)
(3 -2.39864e-15 0)
(3 -2.65145e-15 0)
(3 -1.93881e-15 0)
(3 -2.16394e-15 0)
(3 -2.3083e-15 0)
(3 -3.12538e-15 0)
(3 -2.7218e-15 0)
(3 -2.61127e-15 0)
(3 -2.80153e-15 0)
(3 -2.53727e-15 0)
(3 -2.11457e-15 0)
(3 -2.70944e-15 0)
(3 -3.77492e-15 0)
(3 -4.3718e-15 0)
(3 -4.76315e-15 0)
(3 -4.6781e-15 0)
(3 -4.04559e-15 0)
(3 -3.95913e-15 0)
(3 -5.03935e-15 0)
(3 4.20917e-17 0)
(3 -1.79971e-17 0)
(3 -1.08185e-16 0)
(3 -5.83059e-16 0)
(3 -4.91634e-16 0)
(3 -3.27758e-16 0)
(3 -9.62471e-16 0)
(3 -8.80933e-16 0)
(3 -3.67649e-16 0)
(3 1.16433e-16 0)
(3 -2.11806e-16 0)
(3 -2.87066e-16 0)
(3 4.67632e-16 0)
(3 4.70452e-16 0)
(3 3.23197e-16 0)
(3 2.39854e-16 0)
(3 -4.60978e-18 0)
(3 -2.5734e-17 0)
(3 -2.08597e-16 0)
(3 -9.38939e-17 0)
(3 9.67982e-17 0)
(3 -1.07065e-16 0)
(3 -7.50699e-16 0)
(3 -7.14046e-16 0)
(3 -1.19641e-15 0)
(3 -1.02835e-15 0)
(3 2.81969e-16 0)
(3 1.61352e-15 0)
(3 2.03589e-15 0)
(3 2.04139e-15 0)
(3 2.06918e-15 0)
(3 2.30167e-15 0)
(3 2.14784e-15 0)
(3 1.95896e-15 0)
(3 1.38079e-15 0)
(3 9.31667e-16 0)
(3 1.93279e-15 0)
(3 1.63659e-15 0)
(3 1.16479e-15 0)
(3 1.79351e-16 0)
(3 -5.14652e-16 0)
(3 -8.43541e-16 0)
(3 -9.02808e-16 0)
(3 -1.14573e-15 0)
(3 -1.31966e-15 0)
(3 -2.04038e-15 0)
(3 -2.39463e-15 0)
(3 -2.33953e-15 0)
(3 -2.02624e-15 0)
(3 -2.26632e-15 0)
(3 -1.60099e-15 0)
(3 -3.67391e-16 0)
(3 3.8579e-17 0)
(3 1.60178e-16 0)
(3 1.01171e-15 0)
(3 7.42292e-16 0)
(3 2.19862e-16 0)
(3 1.74557e-16 0)
(3 8.31715e-16 0)
(3 1.49766e-15 0)
(3 1.16801e-15 0)
(3 -2.30615e-18 0)
(3 -6.35547e-16 0)
(3 -3.47577e-16 0)
(3 -2.49387e-16 0)
(3 -4.79955e-16 0)
(3 -4.51954e-16 0)
(3 -4.93781e-16 0)
(3 -3.42714e-16 0)
(3 -8.05794e-16 0)
(3 -8.74812e-16 0)
(3 -6.79431e-16 0)
(3 -5.94077e-16 0)
(3 -1.5102e-15 0)
(3 -1.95203e-15 0)
(3 -1.88401e-15 0)
(3 -1.88387e-15 0)
(3 -1.82622e-15 0)
(3 -1.56436e-15 0)
(3 -1.14885e-15 0)
(3 -1.25916e-15 0)
(3 -1.73653e-15 0)
(3 -2.0685e-15 0)
(3 -2.2233e-15 0)
(3 -2.21343e-15 0)
(3 -1.74561e-15 0)
(3 -1.79502e-15 0)
(3 -1.84036e-15 0)
(3 -2.46309e-15 0)
(3 -2.70354e-15 0)
(3 -3.47056e-15 0)
(3 -3.60971e-15 0)
(3 -3.36696e-15 0)
(3 -3.02881e-15 0)
(3 -3.04112e-15 0)
(3 -3.70477e-15 0)
(3 1.0714e-16 0)
(3 4.15104e-16 0)
(3 2.18915e-16 0)
(3 -1.89091e-16 0)
(3 -7.32137e-17 0)
(3 1.23383e-16 0)
(3 -1.88049e-16 0)
(3 -5.27885e-16 0)
(3 -8.62922e-16 0)
(3 -6.09562e-16 0)
(3 2.69708e-16 0)
(3 1.63814e-16 0)
(3 -2.27737e-17 0)
(3 5.52382e-17 0)
(3 3.54115e-17 0)
(3 2.55317e-16 0)
(3 -7.32132e-17 0)
(3 -4.69416e-17 0)
(3 -1.08134e-15 0)
(3 -9.54645e-16 0)
(3 -1.14095e-15 0)
(3 -1.56297e-15 0)
(3 -1.28717e-15 0)
(3 -4.94376e-16 0)
(3 -6.51199e-18 0)
(3 -4.64141e-17 0)
(3 -4.07183e-16 0)
(3 -3.98741e-16 0)
(3 1.15277e-16 0)
(3 3.9559e-16 0)
(3 8.79019e-16 0)
(3 1.12525e-15 0)
(3 1.78613e-15 0)
(3 1.46967e-15 0)
(3 1.1178e-15 0)
(3 8.25664e-16 0)
(3 1.16069e-15 0)
(3 1.35216e-15 0)
(3 9.75142e-16 0)
(3 6.20453e-16 0)
(3 2.49463e-16 0)
(3 -5.71112e-16 0)
(3 -1.05678e-15 0)
(3 -1.50421e-15 0)
(3 -1.87066e-15 0)
(3 -1.99201e-15 0)
(3 -2.22587e-15 0)
(3 -2.08064e-15 0)
(3 -1.66401e-15 0)
(3 -8.32885e-16 0)
(3 -7.67006e-16 0)
(3 -6.7031e-16 0)
(3 -2.84544e-16 0)