/*--------------------------------*- C++ -*----------------------------------*\
  =========                 |
  \\      /  F ield         | OpenFOAM: The Open Source CFD Toolbox
   \\    /   O peration     | Website:  https://openfoam.org
    \\  /    A nd           | Version:  7
     \\/     M anipulation  |
\*---------------------------------------------------------------------------*/
FoamFile
{
    version     2.0;
    format      ascii;
    class       volVectorField;
    location    "0.6";
    object      U;
}
// * * * * * * * * * * * * * * * * * * * * * * * * * * * * * * * * * * * * * //

dimensions      [0 1 -1 0 0 0 0];

internalField   nonuniform List<vector> 
73728
(
(3 1.16616e-17 0)
(3 -5.85716e-17 0)
(3 -2.81254e-17 0)
(3 2.1065e-16 0)
(3 2.95873e-16 0)
(3 2.62819e-16 0)
(3 7.09595e-17 0)
(3 -8.05315e-17 0)
(3 5.69619e-16 0)
(3 6.47134e-16 0)
(3 6.40588e-16 0)
(3 6.41769e-16 0)
(3 1.04934e-15 0)
(3 1.06185e-15 0)
(3 8.58452e-16 0)
(3 3.64404e-16 0)
(3 -1.65869e-15 0)
(3 -3.23838e-15 0)
(3 -4.0976e-15 0)
(3 -3.44683e-15 0)
(3 -2.55752e-15 0)
(3 -2.02675e-15 0)
(3 -1.77142e-15 0)
(3 -1.66666e-15 0)
(3 -1.85842e-15 0)
(3 -2.47251e-15 0)
(3 -1.97897e-15 0)
(3 -9.75849e-16 0)
(3 -4.73374e-17 0)
(3 3.45295e-16 0)
(3 -6.7781e-16 0)
(3 -1.01424e-15 0)
(3 -1.00056e-15 0)
(3 -8.74917e-16 0)
(3 -1.10988e-16 0)
(3 -3.15633e-16 0)
(3 -1.88904e-15 0)
(3 -2.71545e-15 0)
(3 -4.45482e-15 0)
(3 -4.4443e-15 0)
(3 -4.59539e-15 0)
(3 -4.4414e-15 0)
(3 -4.11859e-15 0)
(3 -3.26919e-15 0)
(3 -1.89927e-15 0)
(3 -1.32638e-15 0)
(3 -1.23909e-15 0)
(3 -1.74127e-15 0)
(3 -1.37147e-15 0)
(3 -8.52171e-16 0)
(3 -2.73893e-16 0)
(3 2.00646e-16 0)
(3 3.78377e-16 0)
(3 4.70618e-16 0)
(3 8.19303e-16 0)
(3 1.33748e-15 0)
(3 1.82471e-15 0)
(3 1.58935e-15 0)
(3 1.68498e-15 0)
(3 7.21495e-16 0)
(3 -3.17032e-16 0)
(3 2.6048e-16 0)
(3 4.22654e-16 0)
(3 7.34926e-16 0)
(3 1.11284e-15 0)
(3 5.57583e-16 0)
(3 3.57218e-16 0)
(3 6.68476e-16 0)
(3 1.10968e-15 0)
(3 1.08468e-15 0)
(3 8.35204e-16 0)
(3 -2.65571e-16 0)
(3 2.2699e-16 0)
(3 3.56917e-16 0)
(3 -1.57486e-16 0)
(3 -1.35547e-15 0)
(3 -2.38859e-15 0)
(3 -3.00995e-15 0)
(3 -4.83155e-15 0)
(3 -1.75145e-15 0)
(3 -3.91089e-16 0)
(3 1.41236e-15 0)
(3 2.03454e-15 0)
(3 1.93931e-15 0)
(3 1.34903e-15 0)
(3 9.66861e-16 0)
(3 3.65084e-16 0)
(3 2.34917e-16 0)
(3 1.68796e-16 0)
(3 -2.12884e-16 0)
(3 -6.1695e-16 0)
(3 -1.27638e-15 0)
(3 -1.4789e-15 0)
(3 -7.28829e-16 0)
(3 -6.83134e-16 0)
(3 -2.90925e-16 0)
(3 -7.03736e-17 0)
(3 -1.70296e-16 0)
(3 -2.16882e-16 0)
(3 3.27311e-16 0)
(3 2.52719e-16 0)
(3 1.06934e-16 0)
(3 2.08747e-16 0)
(3 2.90649e-16 0)
(3 3.45696e-16 0)
(3 5.86906e-16 0)
(3 2.49435e-16 0)
(3 3.49078e-16 0)
(3 1.48769e-16 0)
(3 -9.40611e-17 0)
(3 -4.35689e-16 0)
(3 -1.24471e-15 0)
(3 -1.53529e-15 0)
(3 -3.32831e-15 0)
(3 -4.09206e-15 0)
(3 -4.63867e-15 0)
(3 -3.12604e-15 0)
(3 -1.49505e-15 0)
(3 -1.29115e-15 0)
(3 -2.20257e-15 0)
(3 -3.27261e-15 0)
(3 -3.63649e-15 0)
(3 -2.66084e-15 0)
(3 -2.45889e-15 0)
(3 -3.09511e-15 0)
(3 -3.42176e-15 0)
(3 -3.73641e-15 0)
(3 -4.07949e-15 0)
(3 -4.69741e-15 0)
(3 -4.58187e-15 0)
(3 -3.24205e-15 0)
(3 -8.57352e-16 0)
(3 -9.45519e-16 0)
(3 -4.18162e-15 0)
(3 -5.04886e-15 0)
(3 -4.99577e-15 0)
(3 -5.12715e-15 0)
(3 -4.76808e-15 0)
(3 -3.95765e-15 0)
(3 -1.74962e-15 0)
(3 -1.18467e-15 0)
(3 -1.41899e-15 0)
(3 -8.85935e-16 0)
(3 -1.16933e-15 0)
(3 -4.19528e-16 0)
(3 -1.53261e-16 0)
(3 -4.37061e-16 0)
(3 2.22305e-16 0)
(3 5.96831e-16 0)
(3 8.79727e-16 0)
(3 6.80652e-16 0)
(3 7.90729e-16 0)
(3 1.90985e-15 0)
(3 2.49938e-15 0)
(3 2.53081e-15 0)
(3 1.13666e-15 0)
(3 2.00782e-16 0)
(3 6.22449e-16 0)
(3 8.86981e-16 0)
(3 1.57139e-15 0)
(3 1.53418e-15 0)
(3 1.35099e-15 0)
(3 1.31056e-15 0)
(3 1.90642e-15 0)
(3 2.86502e-15 0)
(3 3.07252e-15 0)
(3 3.92597e-15 0)
(3 3.60675e-15 0)
(3 6.31266e-16 0)
(3 -3.85598e-16 0)
(3 -2.0488e-15 0)
(3 -5.32653e-15 0)
(3 -7.86526e-15 0)
(3 -8.96681e-15 0)
(3 -8.95417e-15 0)
(3 -7.59253e-15 0)
(3 -3.70011e-15 0)
(3 1.16398e-15 0)
(3 3.42889e-15 0)
(3 3.63146e-15 0)
(3 2.78738e-15 0)
(3 2.48775e-15 0)
(3 1.742e-15 0)
(3 9.38369e-16 0)
(3 4.51453e-16 0)
(3 8.69893e-17 0)
(3 -1.27805e-15 0)
(3 -1.04205e-15 0)
(3 -9.86552e-16 0)
(3 -2.01637e-15 0)
(3 -1.8875e-15 0)
(3 -1.27649e-15 0)
(3 -6.43194e-17 0)
(3 5.78485e-17 0)
(3 9.39124e-17 0)
(3 -1.67105e-16 0)
(3 -2.59255e-16 0)
(3 -1.6422e-16 0)
(3 -3.31352e-18 0)
(3 -2.05745e-16 0)
(3 -5.91476e-16 0)
(3 -8.98944e-16 0)
(3 -1.11358e-15 0)
(3 -1.30009e-15 0)
(3 -1.70177e-15 0)
(3 -2.00198e-15 0)
(3 -2.00351e-15 0)
(3 -9.58966e-16 0)
(3 3.18381e-16 0)
(3 3.41163e-16 0)
(3 3.85369e-16 0)
(3 4.14374e-16 0)
(3 3.28172e-16 0)
(3 -1.27372e-15 0)
(3 -1.73708e-15 0)
(3 -2.63518e-15 0)
(3 -2.98641e-15 0)
(3 -1.54515e-15 0)
(3 -1.60213e-15 0)
(3 -1.90141e-15 0)
(3 -2.82563e-15 0)
(3 -2.77087e-15 0)
(3 -1.88929e-15 0)
(3 -2.29278e-15 0)
(3 -2.47771e-15 0)
(3 -2.9595e-15 0)
(3 -2.17207e-15 0)
(3 -3.77009e-16 0)
(3 3.02823e-16 0)
(3 2.55492e-16 0)
(3 3.31114e-16 0)
(3 2.19517e-16 0)
(3 2.02505e-17 0)
(3 -3.70115e-17 0)
(3 9.18345e-16 0)
(3 9.32038e-16 0)
(3 4.20357e-16 0)
(3 2.81053e-17 0)
(3 2.55268e-16 0)
(3 9.55775e-16 0)
(3 -8.71767e-16 0)
(3 -1.64895e-15 0)
(3 -2.32941e-15 0)
(3 -1.98333e-15 0)
(3 7.44846e-16 0)
(3 1.72682e-15 0)
(3 1.6804e-15 0)
(3 1.82632e-15 0)
(3 1.21145e-15 0)
(3 8.51917e-16 0)
(3 5.51721e-16 0)
(3 1.67001e-16 0)
(3 7.46836e-16 0)
(3 8.08056e-16 0)
(3 1.66576e-16 0)
(3 1.6029e-17 0)
(3 2.72102e-16 0)
(3 6.25961e-16 0)
(3 1.5205e-15 0)
(3 2.73013e-15 0)
(3 3.74722e-15 0)
(3 4.84055e-15 0)
(3 5.31599e-15 0)
(3 5.57112e-15 0)
(3 4.3673e-15 0)
(3 7.43608e-16 0)
(3 -2.05708e-15 0)
(3 -3.58934e-15 0)
(3 -4.72372e-15 0)
(3 -6.75022e-15 0)
(3 -6.76888e-15 0)
(3 -5.90417e-15 0)
(3 -3.35843e-15 0)
(3 -2.52224e-15 0)
(3 -1.20654e-15 0)
(3 1.6313e-15 0)
(3 2.19473e-15 0)
(3 1.62821e-15 0)
(3 1.15251e-15 0)
(3 2.18859e-16 0)
(3 1.56657e-16 0)
(3 -5.76509e-16 0)
(3 -7.96009e-16 0)
(3 -1.59689e-15 0)
(3 -2.75354e-15 0)
(3 -3.74795e-15 0)
(3 -3.72038e-15 0)
(3 -3.46192e-15 0)
(3 -8.53402e-17 0)
(3 -4.34654e-17 0)
(3 -9.56082e-17 0)
(3 -4.08893e-16 0)
(3 -5.54183e-16 0)
(3 -5.22768e-16 0)
(3 -5.10443e-16 0)
(3 -3.53359e-16 0)
(3 -3.89669e-16 0)
(3 -1.27075e-15 0)
(3 -1.25412e-15 0)
(3 -1.0005e-15 0)
(3 -5.40686e-16 0)
(3 -2.69617e-16 0)
(3 1.22872e-15 0)
(3 2.1078e-15 0)
(3 1.47609e-15 0)
(3 1.40936e-15 0)
(3 1.41192e-15 0)
(3 1.2215e-15 0)
(3 9.46864e-16 0)
(3 -1.07815e-15 0)
(3 -1.965e-15 0)
(3 -1.13584e-15 0)
(3 -7.84313e-16 0)
(3 4.06368e-16 0)
(3 4.04933e-16 0)
(3 9.69687e-16 0)
(3 1.78251e-15 0)
(3 2.36435e-15 0)
(3 2.73407e-15 0)
(3 2.92919e-15 0)
(3 2.93048e-15 0)
(3 2.53454e-15 0)
(3 1.54982e-15 0)
(3 1.14835e-15 0)
(3 2.42321e-15 0)
(3 5.48115e-15 0)
(3 5.94027e-15 0)
(3 4.38249e-15 0)
(3 4.21937e-15 0)
(3 3.97514e-15 0)
(3 1.98388e-15 0)
(3 6.58578e-16 0)
(3 2.27637e-16 0)
(3 -7.30985e-16 0)
(3 -1.16168e-15 0)
(3 -1.25384e-16 0)
(3 -4.14773e-16 0)
(3 -6.47599e-17 0)
(3 -3.88976e-16 0)
(3 -1.60069e-15 0)
(3 -1.13446e-15 0)
(3 6.88507e-16 0)
(3 1.5544e-15 0)
(3 1.86785e-15 0)
(3 1.73245e-15 0)
(3 1.00655e-15 0)
(3 -3.13096e-16 0)
(3 -6.44366e-16 0)
(3 -6.27927e-16 0)
(3 -6.89695e-16 0)
(3 -9.52367e-16 0)
(3 -1.92908e-15 0)
(3 -1.95948e-15 0)
(3 -8.5117e-16 0)
(3 1.7926e-15 0)
(3 3.44112e-15 0)
(3 3.19295e-15 0)
(3 2.91551e-15 0)
(3 3.09286e-15 0)
(3 2.89522e-15 0)
(3 3.07348e-15 0)
(3 1.22767e-15 0)
(3 -2.0917e-15 0)
(3 -2.1436e-15 0)
(3 -1.97259e-15 0)
(3 -2.10049e-15 0)
(3 -2.05063e-15 0)
(3 -1.48519e-15 0)
(3 -9.36745e-16 0)
(3 -9.23782e-16 0)
(3 -1.27811e-15 0)
(3 -1.15689e-15 0)
(3 -1.62874e-15 0)
(3 -2.6942e-15 0)
(3 -2.90682e-15 0)
(3 -3.56253e-15 0)
(3 -3.87878e-15 0)
(3 -3.8264e-15 0)
(3 -3.62496e-15 0)
(3 -3.99306e-15 0)
(3 -4.84406e-15 0)
(3 -4.85456e-15 0)
(3 -4.5296e-15 0)
(3 -4.23882e-15 0)
(3 -3.72884e-16 0)
(3 -5.44503e-16 0)
(3 -1.00802e-15 0)
(3 -7.9118e-16 0)
(3 -6.34528e-16 0)
(3 -7.30938e-16 0)
(3 -6.36776e-16 0)
(3 -4.30216e-17 0)
(3 2.63165e-16 0)
(3 2.69282e-17 0)
(3 6.21064e-16 0)
(3 6.10643e-16 0)
(3 3.54222e-16 0)
(3 6.61216e-16 0)
(3 2.78397e-15 0)
(3 3.2397e-15 0)
(3 2.11233e-15 0)
(3 1.72262e-15 0)
(3 1.82438e-15 0)
(3 3.06876e-15 0)
(3 3.76419e-15 0)
(3 3.34005e-15 0)
(3 2.97999e-15 0)
(3 3.13661e-15 0)
(3 3.16059e-15 0)
(3 2.86846e-15 0)
(3 2.34214e-15 0)
(3 2.10212e-15 0)
(3 2.60815e-15 0)
(3 3.83807e-15 0)
(3 4.94459e-15 0)
(3 5.88956e-15 0)
(3 5.0517e-15 0)
(3 2.95301e-15 0)
(3 2.19294e-15 0)
(3 1.33127e-15 0)
(3 1.26107e-15 0)
(3 2.24834e-15 0)
(3 1.63757e-15 0)
(3 -6.88909e-18 0)
(3 6.11121e-17 0)
(3 6.34483e-16 0)
(3 -7.15403e-17 0)
(3 -2.02844e-15 0)
(3 -2.12786e-15 0)
(3 -2.80204e-15 0)
(3 -2.78713e-15 0)
(3 -4.5118e-16 0)
(3 1.1284e-16 0)
(3 -9.54886e-17 0)
(3 -4.29297e-16 0)
(3 -1.60081e-15 0)
(3 -2.07856e-15 0)
(3 -4.6999e-17 0)
(3 6.67695e-16 0)
(3 6.61811e-16 0)
(3 3.58958e-16 0)
(3 -1.38717e-15 0)
(3 -2.09194e-15 0)
(3 -2.29043e-15 0)
(3 -2.33554e-15 0)
(3 -1.9944e-15 0)
(3 -9.24588e-16 0)
(3 -5.67326e-16 0)
(3 -1.63803e-15 0)
(3 1.45756e-16 0)
(3 4.43125e-15 0)
(3 4.44945e-15 0)
(3 3.33412e-15 0)
(3 1.43674e-15 0)
(3 2.48315e-15 0)
(3 2.78693e-15 0)
(3 1.55904e-15 0)
(3 6.89231e-17 0)
(3 -4.17005e-16 0)
(3 -6.19783e-16 0)
(3 -5.03479e-16 0)
(3 -4.47036e-16 0)
(3 -3.91505e-16 0)
(3 5.4823e-16 0)
(3 1.42361e-15 0)
(3 1.11636e-15 0)
(3 -1.95212e-15 0)
(3 -3.22663e-15 0)
(3 -4.25125e-15 0)
(3 -6.30613e-15 0)
(3 -7.62777e-15 0)
(3 -7.9049e-15 0)
(3 -8.27979e-15 0)
(3 -7.69038e-15 0)
(3 -7.40438e-15 0)
(3 -7.3034e-15 0)
(3 -7.04822e-15 0)
(3 -5.93813e-15 0)
(3 -5.40045e-15 0)
(3 -5.00176e-15 0)
(3 -1.03026e-16 0)
(3 -1.78473e-16 0)
(3 -2.9201e-16 0)
(3 -5.11032e-16 0)
(3 -1.97975e-16 0)
(3 -2.31647e-16 0)
(3 -7.36612e-16 0)
(3 -1.14363e-15 0)
(3 -5.03973e-16 0)
(3 2.31593e-16 0)
(3 1.97839e-15 0)
(3 1.95722e-15 0)
(3 1.52201e-15 0)
(3 5.88094e-16 0)
(3 9.163e-16 0)
(3 1.30852e-15 0)
(3 1.62095e-15 0)
(3 1.33821e-15 0)
(3 1.96876e-15 0)
(3 2.69366e-15 0)
(3 3.04239e-15 0)
(3 5.57576e-15 0)
(3 6.79661e-15 0)
(3 6.45643e-15 0)
(3 6.53243e-15 0)
(3 5.66788e-15 0)
(3 4.57009e-15 0)
(3 4.19672e-15 0)
(3 3.8534e-15 0)
(3 4.17549e-15 0)
(3 5.76403e-15 0)
(3 6.61488e-15 0)
(3 4.58024e-15 0)
(3 3.40031e-15 0)
(3 2.69053e-15 0)
(3 -1.06869e-15 0)
(3 -3.11441e-15 0)
(3 -3.97111e-15 0)
(3 -4.22491e-15 0)
(3 -5.35315e-15 0)
(3 -5.74542e-15 0)
(3 -3.56097e-15 0)
(3 -2.72502e-15 0)
(3 -3.15277e-15 0)
(3 -2.39133e-15 0)
(3 -2.31231e-15 0)
(3 -8.80095e-16 0)
(3 1.96285e-15 0)
(3 3.92244e-15 0)
(3 -6.31998e-16 0)
(3 -2.63555e-15 0)
(3 -3.51756e-15 0)
(3 -2.94442e-15 0)
(3 -1.52227e-15 0)
(3 -1.49092e-15 0)
(3 -1.78753e-15 0)
(3 -2.31481e-15 0)
(3 -2.54915e-15 0)
(3 -2.02042e-15 0)
(3 -1.00257e-15 0)
(3 -6.4567e-16 0)
(3 -4.73131e-16 0)
(3 -1.86146e-16 0)
(3 1.25794e-15 0)
(3 1.43541e-15 0)
(3 2.55612e-15 0)
(3 3.50787e-15 0)
(3 2.80959e-15 0)
(3 1.20574e-15 0)
(3 1.07112e-16 0)
(3 5.48546e-16 0)
(3 2.98816e-15 0)
(3 1.87047e-15 0)
(3 8.17602e-16 0)
(3 7.95163e-16 0)
(3 2.90376e-16 0)
(3 4.72841e-16 0)
(3 1.2303e-15 0)
(3 1.49815e-15 0)
(3 1.18972e-15 0)
(3 1.0409e-15 0)
(3 -1.16278e-16 0)
(3 -1.75073e-15 0)
(3 -2.00844e-15 0)
(3 -3.69682e-15 0)
(3 -5.95199e-15 0)
(3 -6.4453e-15 0)
(3 -5.16473e-15 0)
(3 -5.40563e-15 0)
(3 -6.34225e-15 0)
(3 -8.78831e-15 0)
(3 -1.08397e-14 0)
(3 -1.09288e-14 0)
(3 -8.30437e-15 0)
(3 -5.56765e-15 0)
(3 -4.95606e-15 0)
(3 8.76555e-17 0)
(3 -2.51968e-16 0)
(3 3.61619e-17 0)
(3 2.85994e-16 0)
(3 3.5822e-16 0)
(3 4.43185e-16 0)
(3 8.08758e-17 0)
(3 -5.61935e-16 0)
(3 3.37233e-18 0)
(3 1.05952e-15 0)
(3 1.19002e-15 0)
(3 1.69906e-15 0)
(3 2.07675e-15 0)
(3 1.73911e-15 0)
(3 1.90067e-16 0)
(3 -8.6025e-16 0)
(3 -5.87776e-16 0)
(3 -2.70399e-17 0)
(3 -2.17191e-16 0)
(3 -1.47408e-15 0)
(3 -1.78139e-15 0)
(3 3.67631e-16 0)
(3 2.39229e-15 0)
(3 2.40724e-15 0)
(3 1.31728e-15 0)
(3 1.38214e-15 0)
(3 1.86348e-15 0)
(3 2.33699e-15 0)
(3 1.99914e-15 0)
(3 2.09044e-15 0)
(3 2.07395e-15 0)
(3 1.97699e-15 0)
(3 3.32419e-15 0)
(3 4.33098e-15 0)
(3 4.14315e-15 0)
(3 7.76225e-16 0)
(3 -3.84896e-15 0)
(3 -5.98344e-15 0)
(3 -5.52869e-15 0)
(3 -3.47199e-15 0)
(3 -2.36866e-15 0)
(3 -8.82471e-16 0)
(3 3.98054e-17 0)
(3 2.80267e-16 0)
(3 1.47579e-15 0)
(3 1.66895e-15 0)
(3 1.316e-15 0)
(3 1.7463e-15 0)
(3 4.50883e-15 0)
(3 1.24872e-15 0)
(3 -1.24527e-15 0)
(3 2.5977e-17 0)
(3 -1.90081e-15 0)
(3 -3.05482e-15 0)
(3 -3.61033e-15 0)
(3 -3.97257e-15 0)
(3 -4.01598e-15 0)
(3 -3.36807e-15 0)
(3 -2.2749e-15 0)
(3 -5.31824e-16 0)
(3 -1.82387e-17 0)
(3 -7.7228e-17 0)
(3 -5.96037e-17 0)
(3 -1.7347e-16 0)
(3 1.39718e-15 0)
(3 1.8179e-15 0)
(3 1.68658e-15 0)
(3 1.35779e-15 0)
(3 -5.33641e-16 0)
(3 -1.58744e-15 0)
(3 -1.52077e-15 0)
(3 -6.46941e-16 0)
(3 -2.46454e-16 0)
(3 -9.58437e-16 0)
(3 -1.16487e-15 0)
(3 -6.73073e-16 0)
(3 1.13056e-16 0)
(3 -5.43109e-16 0)
(3 -3.34829e-15 0)
(3 -2.4e-15 0)
(3 -5.97845e-16 0)
(3 -7.58166e-17 0)
(3 -3.00981e-16 0)
(3 -1.36249e-15 0)
(3 -2.19357e-15 0)
(3 -2.46335e-15 0)
(3 -3.22678e-15 0)
(3 -5.02865e-15 0)
(3 -5.1138e-15 0)
(3 -5.15837e-15 0)
(3 -5.3087e-15 0)
(3 -5.10757e-15 0)
(3 -5.38583e-15 0)
(3 -5.57155e-15 0)
(3 -5.13108e-15 0)
(3 -5.47741e-15 0)
(3 3.59116e-16 0)
(3 3.68468e-16 0)
(3 2.99428e-16 0)
(3 -1.67395e-16 0)
(3 1.39029e-16 0)
(3 5.59374e-16 0)
(3 6.90402e-16 0)
(3 8.29317e-16 0)
(3 1.19165e-15 0)
(3 5.97897e-16 0)
(3 4.11276e-16 0)
(3 -3.38166e-17 0)
(3 1.74652e-16 0)
(3 1.51722e-16 0)
(3 -7.16939e-16 0)
(3 -1.28344e-15 0)
(3 -1.27775e-15 0)
(3 -1.17512e-15 0)
(3 -1.50795e-15 0)
(3 -2.45179e-15 0)
(3 -3.26886e-15 0)
(3 -3.49201e-15 0)
(3 -1.7085e-15 0)
(3 -1.55428e-15 0)
(3 -1.77817e-15 0)
(3 2.75982e-17 0)
(3 1.28554e-15 0)
(3 1.52689e-15 0)
(3 4.52901e-16 0)
(3 -8.66868e-17 0)
(3 -1.33393e-16 0)
(3 -1.49616e-17 0)
(3 1.21088e-15 0)
(3 4.77529e-15 0)
(3 6.44229e-15 0)
(3 5.93398e-15 0)
(3 1.53357e-15 0)
(3 -3.1604e-16 0)
(3 1.05081e-16 0)
(3 1.08047e-15 0)
(3 2.1274e-15 0)
(3 3.81563e-15 0)
(3 5.88758e-15 0)
(3 6.49882e-15 0)
(3 5.74127e-15 0)
(3 4.52903e-15 0)
(3 2.463e-15 0)
(3 1.85285e-15 0)
(3 2.51498e-15 0)
(3 2.54772e-15 0)
(3 2.49247e-15 0)
(3 2.24643e-15 0)
(3 1.03197e-15 0)
(3 -2.49147e-15 0)
(3 -5.18591e-15 0)
(3 -6.20222e-15 0)
(3 -5.58383e-15 0)
(3 -4.8447e-15 0)
(3 -4.06127e-15 0)
(3 -2.68286e-15 0)
(3 -1.67478e-15 0)
(3 -1.45265e-15 0)
(3 -4.76649e-16 0)
(3 4.77663e-16 0)
(3 6.33671e-16 0)
(3 1.29568e-16 0)
(3 -5.9527e-16 0)
(3 -1.26476e-15 0)
(3 -1.47482e-15 0)
(3 -1.85419e-15 0)
(3 -2.02704e-15 0)
(3 -2.31379e-15 0)
(3 -2.33802e-15 0)
(3 -2.22035e-15 0)
(3 -2.44696e-15 0)
(3 -3.02692e-15 0)
(3 -4.73078e-15 0)
(3 -5.2316e-15 0)
(3 -2.50789e-15 0)
(3 -1.78696e-15 0)
(3 -1.61257e-15 0)
(3 -1.40363e-15 0)
(3 -1.14647e-15 0)
(3 -1.148e-15 0)
(3 -1.12367e-15 0)
(3 -1.05724e-15 0)
(3 -2.24837e-15 0)
(3 -4.41242e-15 0)
(3 -6.35094e-15 0)
(3 -6.44071e-15 0)
(3 -5.41606e-15 0)
(3 -4.07197e-15 0)
(3 -2.73797e-15 0)
(3 -2.79556e-15 0)
(3 -4.93826e-15 0)
(3 -5.77672e-15 0)
(3 1.91797e-16 0)
(3 7.29006e-16 0)
(3 5.9115e-16 0)
(3 5.64883e-17 0)
(3 -1.33067e-16 0)
(3 -1.839e-16 0)
(3 -7.02193e-17 0)
(3 5.7598e-16 0)
(3 7.09224e-16 0)
(3 5.10445e-16 0)
(3 3.22293e-16 0)
(3 -5.54332e-19 0)
(3 -4.40387e-16 0)
(3 -7.05857e-16 0)
(3 -7.10721e-16 0)
(3 -1.45645e-15 0)
(3 -2.76793e-15 0)
(3 -2.56589e-15 0)
(3 -2.08407e-15 0)
(3 -1.37167e-15 0)
(3 -3.31883e-16 0)
(3 -1.05646e-15 0)
(3 -2.15991e-15 0)
(3 -2.59059e-15 0)
(3 -2.68483e-15 0)
(3 -1.09253e-15 0)
(3 2.36247e-16 0)
(3 1.41219e-16 0)
(3 2.05418e-17 0)
(3 -5.28533e-17 0)
(3 2.47366e-16 0)
(3 6.82337e-17 0)
(3 -7.10049e-17 0)
(3 3.22348e-15 0)
(3 5.73329e-15 0)
(3 8.1007e-15 0)
(3 9.82259e-15 0)
(3 7.60892e-15 0)
(3 6.3761e-15 0)
(3 5.34074e-15 0)
(3 5.7787e-15 0)
(3 7.10097e-15 0)
(3 8.11027e-15 0)
(3 7.85016e-15 0)
(3 6.12209e-15 0)
(3 3.80323e-15 0)
(3 2.1681e-15 0)
(3 8.49046e-16 0)
(3 3.67039e-16 0)
(3 2.17701e-15 0)
(3 6.08281e-15 0)
(3 5.59754e-15 0)
(3 2.05988e-15 0)
(3 3.96982e-16 0)
(3 -5.38662e-16 0)
(3 -2.21305e-15 0)
(3 -4.35069e-15 0)
(3 -4.06705e-15 0)
(3 -3.36625e-15 0)
(3 -1.90758e-15 0)
(3 -1.66797e-15 0)
(3 -1.80483e-15 0)
(3 1.78346e-16 0)
(3 2.50017e-15 0)
(3 2.22162e-16 0)
(3 -4.44261e-16 0)
(3 -1.42669e-15 0)
(3 -1.51898e-15 0)
(3 -1.35848e-15 0)
(3 -1.68778e-15 0)
(3 -1.43805e-15 0)
(3 -1.80314e-15 0)
(3 -2.12989e-15 0)
(3 -1.30334e-15 0)
(3 -7.7616e-16 0)
(3 -1.32967e-15 0)
(3 -2.22163e-15 0)
(3 -1.52122e-15 0)
(3 2.97704e-16 0)
(3 4.68346e-17 0)
(3 -1.83675e-15 0)
(3 -2.62218e-15 0)
(3 -2.25477e-15 0)
(3 -1.00569e-15 0)
(3 5.74428e-16 0)
(3 1.99344e-15 0)
(3 2.82269e-15 0)
(3 2.04321e-15 0)
(3 -3.17238e-15 0)
(3 -5.55076e-15 0)
(3 -5.28527e-15 0)
(3 -3.92971e-15 0)
(3 -3.10366e-15 0)
(3 -2.97284e-15 0)
(3 -3.56078e-15 0)
(3 -5.23042e-15 0)
(3 -4.06952e-17 0)
(3 7.41966e-17 0)
(3 1.05032e-16 0)
(3 2.67826e-16 0)
(3 1.51658e-16 0)
(3 -5.47341e-16 0)
(3 -5.89354e-16 0)
(3 2.07591e-16 0)
(3 2.09476e-16 0)
(3 5.36438e-16 0)
(3 3.40169e-16 0)
(3 -5.46339e-17 0)
(3 -6.3038e-16 0)
(3 -4.63088e-16 0)
(3 -5.25871e-16 0)
(3 -1.95313e-15 0)
(3 -3.12849e-15 0)
(3 -3.23644e-15 0)
(3 -1.16815e-15 0)
(3 1.43448e-15 0)
(3 2.93034e-15 0)
(3 6.75406e-16 0)
(3 -6.30856e-16 0)
(3 -9.40539e-16 0)
(3 -5.59868e-16 0)
(3 -6.69162e-16 0)
(3 -3.56712e-16 0)
(3 -1.23322e-16 0)
(3 2.03728e-16 0)
(3 3.35865e-16 0)
(3 5.64028e-16 0)
(3 -4.69667e-16 0)
(3 -6.41329e-17 0)
(3 1.30576e-15 0)
(3 2.79703e-15 0)
(3 5.93789e-15 0)
(3 9.14537e-15 0)
(3 9.76284e-15 0)
(3 8.06725e-15 0)
(3 5.08161e-15 0)
(3 3.23127e-15 0)
(3 3.29372e-15 0)
(3 3.25925e-15 0)
(3 3.29051e-15 0)
(3 1.94589e-15 0)
(3 7.50963e-16 0)
(3 1.29499e-16 0)
(3 -6.14147e-16 0)
(3 5.79717e-18 0)
(3 2.00116e-15 0)
(3 4.48663e-15 0)
(3 2.48252e-15 0)
(3 5.02473e-16 0)
(3 -1.36328e-16 0)
(3 -2.87356e-17 0)
(3 -5.70204e-16 0)
(3 -1.45462e-15 0)
(3 -1.84043e-15 0)
(3 -1.41144e-15 0)
(3 -1.01391e-15 0)
(3 -1.43841e-15 0)
(3 -1.80568e-15 0)
(3 -6.27204e-16 0)
(3 1.23079e-15 0)
(3 1.22682e-15 0)
(3 8.7582e-16 0)
(3 9.58805e-16 0)
(3 1.05252e-15 0)
(3 9.05231e-16 0)
(3 1.56495e-15 0)
(3 8.95235e-16 0)
(3 8.44897e-16 0)
(3 -2.38441e-16 0)
(3 -8.27137e-16 0)
(3 -1.67345e-16 0)
(3 3.44524e-16 0)
(3 1.55093e-15 0)
(3 2.92265e-15 0)
(3 2.61055e-15 0)
(3 1.67415e-15 0)
(3 5.17033e-16 0)
(3 -6.87615e-16 0)
(3 -1.21602e-15 0)
(3 -1.40765e-15 0)
(3 5.21114e-16 0)
(3 2.54964e-15 0)
(3 3.54381e-15 0)
(3 2.30905e-15 0)
(3 2.19997e-16 0)
(3 -1.01042e-15 0)
(3 -2.99063e-15 0)
(3 -3.31566e-15 0)
(3 -4.79818e-15 0)
(3 -4.19064e-15 0)
(3 -3.37325e-15 0)
(3 -4.42402e-15 0)
(3 1.45486e-16 0)
(3 1.13917e-16 0)
(3 3.41243e-16 0)
(3 2.75316e-16 0)
(3 -1.20288e-16 0)
(3 5.43818e-16 0)
(3 8.2352e-16 0)
(3 4.81903e-16 0)
(3 -3.30161e-16 0)
(3 -2.6893e-16 0)
(3 -7.96753e-16 0)
(3 -8.91812e-16 0)
(3 -8.69742e-16 0)
(3 -9.38482e-16 0)
(3 -7.08152e-16 0)
(3 -1.14039e-15 0)
(3 -1.21893e-15 0)
(3 -1.00545e-15 0)
(3 -4.89048e-16 0)
(3 8.95541e-17 0)
(3 -3.46627e-16 0)
(3 -1.57497e-15 0)
(3 -1.92203e-15 0)
(3 -2.06587e-15 0)
(3 -1.54325e-15 0)
(3 -1.57833e-15 0)
(3 -9.76582e-16 0)
(3 -7.8679e-16 0)
(3 -8.13306e-16 0)
(3 -5.60913e-16 0)
(3 -6.80666e-16 0)
(3 -4.47979e-16 0)
(3 2.11594e-16 0)
(3 8.93574e-16 0)
(3 1.66237e-15 0)
(3 2.8357e-15 0)
(3 4.10846e-15 0)
(3 4.12619e-15 0)
(3 3.82825e-15 0)
(3 3.23504e-15 0)
(3 2.18332e-15 0)
(3 2.73698e-15 0)
(3 2.42915e-15 0)
(3 1.99855e-15 0)
(3 1.05641e-15 0)
(3 1.77446e-16 0)
(3 1.57629e-16 0)
(3 1.73116e-16 0)
(3 6.06208e-16 0)
(3 1.51238e-15 0)
(3 1.73707e-15 0)
(3 2.25374e-16 0)
(3 3.94522e-18 0)
(3 2.03071e-16 0)
(3 1.08808e-15 0)
(3 2.48829e-15 0)
(3 3.09859e-15 0)
(3 2.73131e-15 0)
(3 1.75225e-15 0)
(3 3.52686e-16 0)
(3 1.11558e-18 0)
(3 2.81592e-16 0)
(3 -1.30658e-16 0)
(3 -6.85178e-16 0)
(3 -1.12611e-15 0)
(3 -6.25007e-16 0)
(3 9.10867e-16 0)
(3 1.8316e-15 0)
(3 2.73917e-15 0)
(3 3.82488e-15 0)
(3 3.00283e-15 0)
(3 2.13082e-15 0)
(3 1.62506e-15 0)
(3 1.08939e-15 0)
(3 1.56983e-15 0)
(3 2.56335e-15 0)
(3 2.40131e-15 0)
(3 2.34095e-15 0)
(3 1.63626e-15 0)
(3 1.07446e-15 0)
(3 -4.47174e-16 0)
(3 -5.70278e-16 0)
(3 -1.54971e-15 0)
(3 -2.82022e-15 0)
(3 -2.46045e-15 0)
(3 -2.27986e-15 0)
(3 -2.45037e-15 0)
(3 -2.49681e-15 0)
(3 -1.33454e-15 0)
(3 4.82445e-16 0)
(3 -9.16643e-16 0)
(3 -2.44256e-15 0)
(3 -4.37908e-15 0)
(3 -5.76994e-15 0)
(3 -2.98692e-15 0)
(3 -1.46213e-15 0)
(3 -1.49953e-16 0)
(3 -1.14386e-16 0)
(3 -1.57901e-16 0)
(3 -9.88575e-18 0)
(3 -1.97433e-17 0)
(3 3.22513e-16 0)
(3 2.27434e-16 0)
(3 -6.66553e-16 0)
(3 -1.02638e-15 0)
(3 -1.84176e-15 0)
(3 -2.34717e-15 0)
(3 -1.76527e-15 0)
(3 -1.33606e-15 0)
(3 -1.32241e-15 0)
(3 -5.92294e-16 0)
(3 1.45177e-16 0)
(3 4.06185e-16 0)
(3 1.5971e-16 0)
(3 -1.66577e-15 0)
(3 -4.6567e-15 0)
(3 -6.10093e-15 0)
(3 -5.6729e-15 0)
(3 -5.31997e-15 0)
(3 -4.76411e-15 0)
(3 -4.22868e-15 0)
(3 -3.20669e-15 0)
(3 -1.73671e-15 0)
(3 -1.07757e-15 0)
(3 -6.20696e-16 0)
(3 -7.73417e-16 0)
(3 -1.25832e-15 0)
(3 -5.53036e-16 0)
(3 8.14271e-16 0)
(3 1.15313e-15 0)
(3 1.46441e-15 0)
(3 2.38415e-15 0)
(3 4.44599e-15 0)
(3 4.41701e-15 0)
(3 4.30494e-15 0)
(3 5.08482e-15 0)
(3 4.80037e-15 0)
(3 4.83834e-15 0)
(3 3.89727e-15 0)
(3 2.72514e-15 0)
(3 2.1682e-15 0)
(3 2.24821e-15 0)
(3 1.3953e-15 0)
(3 2.54449e-16 0)
(3 -3.20975e-16 0)
(3 -1.78553e-15 0)
(3 -2.62708e-15 0)
(3 1.06705e-16 0)
(3 2.88123e-15 0)
(3 3.97938e-15 0)
(3 4.41339e-15 0)
(3 4.66304e-15 0)
(3 5.36576e-15 0)
(3 5.05792e-15 0)
(3 3.80301e-15 0)
(3 2.29597e-15 0)
(3 1.10353e-15 0)
(3 1.09074e-15 0)
(3 8.292e-16 0)
(3 -1.06356e-15 0)
(3 -1.89839e-15 0)
(3 -1.956e-15 0)
(3 -3.6112e-16 0)
(3 2.24037e-16 0)
(3 1.83107e-15 0)
(3 2.15857e-15 0)
(3 2.21732e-15 0)
(3 1.04844e-15 0)
(3 1.40819e-15 0)
(3 1.35577e-15 0)
(3 2.17556e-15 0)
(3 3.35029e-15 0)
(3 3.72684e-15 0)
(3 3.35035e-15 0)
(3 1.97661e-15 0)
(3 3.90753e-16 0)
(3 -1.98508e-15 0)
(3 -3.48586e-15 0)
(3 -4.06855e-15 0)
(3 -5.3767e-15 0)
(3 -6.57403e-15 0)
(3 -7.14306e-15 0)
(3 -6.97259e-15 0)
(3 -6.32377e-15 0)
(3 -4.70515e-15 0)
(3 -2.96684e-15 0)
(3 -2.25397e-15 0)
(3 -1.68616e-15 0)
(3 -2.34703e-15 0)
(3 -3.40523e-15 0)
(3 -1.75696e-15 0)
(3 6.02101e-16 0)
(3 -6.0219e-17 0)
(3 -5.81735e-17 0)
(3 -6.99084e-17 0)
(3 -4.98874e-17 0)
(3 3.49111e-17 0)
(3 -3.74246e-16 0)
(3 -4.79118e-16 0)
(3 -4.28762e-16 0)
(3 -6.69633e-16 0)
(3 -8.73428e-16 0)
(3 -1.51856e-15 0)
(3 -1.69617e-15 0)
(3 -1.27321e-15 0)
(3 -8.03799e-16 0)
(3 -3.28689e-16 0)
(3 2.8931e-16 0)
(3 4.23213e-16 0)
(3 -4.45266e-16 0)
(3 -1.48203e-15 0)
(3 -5.13515e-15 0)
(3 -6.54953e-15 0)
(3 -7.52825e-15 0)
(3 -7.78652e-15 0)
(3 -6.11594e-15 0)
(3 -4.33778e-15 0)
(3 -3.02218e-15 0)
(3 -1.91364e-15 0)
(3 -1.26147e-15 0)
(3 -9.90251e-16 0)
(3 -1.04362e-15 0)
(3 -1.88585e-15 0)
(3 -3.11361e-16 0)
(3 3.15322e-16 0)
(3 1.12319e-15 0)
(3 1.26421e-15 0)
(3 2.38214e-15 0)
(3 4.29406e-15 0)
(3 6.00432e-15 0)
(3 7.19826e-15 0)
(3 8.28655e-15 0)
(3 7.95657e-15 0)
(3 6.45882e-15 0)
(3 5.0581e-15 0)
(3 4.0502e-15 0)
(3 4.81067e-15 0)
(3 5.91574e-15 0)
(3 5.75762e-15 0)
(3 3.50898e-15 0)
(3 9.1815e-16 0)
(3 -1.30987e-15 0)
(3 -1.70724e-15 0)
(3 -1.57422e-15 0)
(3 -1.27093e-15 0)
(3 3.97078e-16 0)
(3 1.08994e-15 0)
(3 9.65765e-16 0)
(3 1.07899e-15 0)
(3 5.30437e-16 0)
(3 5.04313e-17 0)
(3 -7.06886e-16 0)
(3 -2.06977e-16 0)
(3 5.10317e-16 0)
(3 7.81804e-16 0)
(3 3.09352e-16 0)
(3 -4.33081e-16 0)
(3 -8.74702e-16 0)
(3 -1.76956e-15 0)
(3 -1.43922e-15 0)
(3 1.37631e-15 0)
(3 2.80345e-15 0)
(3 2.54501e-15 0)
(3 1.8043e-15 0)
(3 1.43713e-15 0)
(3 2.69035e-15 0)
(3 3.53769e-15 0)
(3 4.79611e-15 0)
(3 4.85689e-15 0)
(3 4.35607e-15 0)
(3 2.70572e-15 0)
(3 -1.06396e-15 0)
(3 -4.27857e-15 0)
(3 -5.06965e-15 0)
(3 -6.59254e-15 0)
(3 -6.74674e-15 0)
(3 -6.25035e-15 0)
(3 -5.7422e-15 0)
(3 -5.00891e-15 0)
(3 -4.96954e-15 0)
(3 -3.95192e-15 0)
(3 -2.61315e-15 0)
(3 -2.2606e-15 0)
(3 -2.07423e-15 0)
(3 -1.59267e-15 0)
(3 -7.60113e-16 0)
(3 -6.02529e-16 0)
(3 -3.29642e-16 0)
(3 -1.56757e-16 0)
(3 -4.62157e-16 0)
(3 -2.13833e-16 0)
(3 4.9213e-17 0)
(3 4.06345e-16 0)
(3 1.59967e-16 0)
(3 -6.48767e-17 0)
(3 8.42463e-17 0)
(3 1.23515e-16 0)
(3 -5.5261e-16 0)
(3 -9.25099e-16 0)
(3 -8.85725e-16 0)
(3 -4.89733e-16 0)
(3 -4.00138e-16 0)
(3 -6.13392e-16 0)
(3 -6.86984e-16 0)
(3 -9.59824e-16 0)
(3 -9.95307e-16 0)
(3 -2.09341e-15 0)
(3 -3.64451e-15 0)
(3 -3.60768e-15 0)
(3 -3.40904e-15 0)
(3 -2.8606e-15 0)
(3 -2.60581e-15 0)
(3 -1.94054e-15 0)
(3 -9.43125e-16 0)
(3 -8.53555e-16 0)
(3 -7.89477e-16 0)
(3 -6.82815e-16 0)
(3 -2.30167e-16 0)
(3 -5.74307e-16 0)
(3 -6.1549e-16 0)
(3 -2.62792e-16 0)
(3 6.02565e-18 0)
(3 -3.63772e-16 0)
(3 1.22356e-16 0)
(3 2.76318e-15 0)
(3 3.597e-15 0)
(3 4.74705e-15 0)
(3 6.33195e-15 0)
(3 5.66536e-15 0)
(3 2.53415e-15 0)
(3 2.24431e-15 0)
(3 2.87281e-15 0)
(3 5.06285e-15 0)
(3 5.40548e-15 0)
(3 7.28728e-15 0)
(3 7.85033e-15 0)
(3 6.94045e-15 0)
(3 4.51712e-15 0)
(3 2.36104e-15 0)
(3 1.08506e-15 0)
(3 3.58821e-16 0)
(3 2.81989e-16 0)
(3 -3.84673e-16 0)
(3 -3.2497e-16 0)
(3 -3.40773e-16 0)
(3 -1.91616e-16 0)
(3 8.8865e-18 0)
(3 -6.76261e-17 0)
(3 1.87108e-16 0)
(3 4.34793e-16 0)
(3 4.92933e-16 0)
(3 9.80669e-17 0)
(3 1.59901e-17 0)
(3 9.58829e-16 0)
(3 1.05531e-15 0)
(3 3.63308e-15 0)
(3 4.17665e-15 0)
(3 5.35893e-15 0)
(3 5.34057e-15 0)
(3 4.76743e-15 0)
(3 3.50228e-15 0)
(3 3.8282e-15 0)
(3 4.3649e-15 0)
(3 4.21643e-15 0)
(3 3.35102e-15 0)
(3 2.24454e-15 0)
(3 1.36663e-15 0)
(3 -1.00904e-15 0)
(3 -3.0541e-15 0)
(3 -3.22648e-15 0)
(3 -2.0233e-15 0)
(3 -1.07695e-15 0)
(3 -5.88159e-16 0)
(3 -3.72834e-16 0)
(3 4.06938e-16 0)
(3 1.27817e-15 0)
(3 1.00317e-15 0)
(3 4.73027e-16 0)
(3 4.49076e-16 0)
(3 2.14633e-16 0)
(3 8.67966e-16 0)
(3 1.62557e-15 0)
(3 9.13747e-16 0)
(3 9.83975e-16 0)
(3 -3.43812e-16 0)
(3 -3.7407e-16 0)
(3 -3.57225e-16 0)
(3 -2.93884e-16 0)
(3 1.12309e-16 0)
(3 3.8152e-16 0)
(3 2.54453e-16 0)
(3 -1.55542e-16 0)
(3 -3.58645e-16 0)
(3 -9.11568e-16 0)
(3 -1.29216e-15 0)
(3 -9.19837e-16 0)
(3 -7.63046e-16 0)
(3 -8.51951e-16 0)
(3 -1.23188e-15 0)
(3 -1.2949e-15 0)
(3 -1.34105e-15 0)
(3 -1.04343e-15 0)
(3 -8.23848e-16 0)
(3 -5.73071e-16 0)
(3 -7.92694e-16 0)
(3 -1.51385e-15 0)
(3 -2.36547e-15 0)
(3 -2.42343e-15 0)
(3 -1.92163e-15 0)
(3 -1.46486e-15 0)
(3 -1.65042e-15 0)
(3 -1.2948e-15 0)
(3 -3.38217e-16 0)
(3 3.14659e-16 0)
(3 5.7076e-16 0)
(3 2.0425e-16 0)
(3 -4.83345e-16 0)
(3 -1.08054e-15 0)
(3 -7.75363e-16 0)
(3 -7.46155e-16 0)
(3 -6.44104e-16 0)
(3 -7.80478e-16 0)
(3 8.34767e-16 0)
(3 3.08786e-16 0)
(3 -1.24155e-15 0)
(3 -3.63178e-15 0)
(3 -4.87122e-15 0)
(3 -9.70313e-16 0)
(3 5.28565e-17 0)
(3 1.19316e-15 0)
(3 2.76773e-15 0)
(3 4.67775e-15 0)
(3 5.19195e-15 0)
(3 4.40656e-15 0)
(3 1.98689e-15 0)
(3 3.33578e-17 0)
(3 -1.91163e-15 0)
(3 -2.50588e-15 0)
(3 -3.18805e-15 0)
(3 -3.20764e-15 0)
(3 -2.74006e-15 0)
(3 -1.15086e-15 0)
(3 2.6141e-16 0)
(3 4.55518e-16 0)
(3 1.83668e-16 0)
(3 -2.27165e-17 0)
(3 -1.29507e-15 0)
(3 -2.59121e-15 0)
(3 -1.87727e-15 0)
(3 2.04651e-15 0)
(3 4.29448e-15 0)
(3 4.73101e-15 0)
(3 5.26769e-15 0)
(3 4.14295e-15 0)
(3 3.2675e-15 0)
(3 2.75222e-15 0)
(3 2.31119e-15 0)
(3 1.44389e-15 0)
(3 1.60832e-15 0)
(3 1.44241e-15 0)
(3 1.27674e-15 0)
(3 8.29363e-16 0)
(3 6.42955e-16 0)
(3 1.74506e-15 0)
(3 3.04944e-15 0)
(3 3.49013e-15 0)
(3 3.57648e-15 0)
(3 3.2837e-15 0)
(3 3.24679e-15 0)
(3 2.99124e-15 0)
(3 3.19825e-15 0)
(3 3.87459e-15 0)
(3 4.44374e-15 0)
(3 3.60693e-15 0)
(3 2.23345e-15 0)
(3 1.56882e-15 0)
(3 1.24937e-15 0)
(3 2.28534e-15 0)
(3 3.22947e-15 0)
(3 3.15989e-15 0)
(3 2.65598e-16 0)
(3 9.73506e-16 0)
(3 7.3092e-16 0)
(3 7.09488e-16 0)
(3 2.86866e-16 0)
(3 6.56558e-17 0)
(3 -1.5598e-16 0)
(3 -6.55529e-16 0)
(3 -1.21446e-15 0)
(3 -6.84438e-16 0)
(3 -3.51948e-16 0)
(3 -1.03078e-15 0)
(3 -1.39169e-15 0)
(3 -1.48657e-15 0)
(3 -1.25095e-15 0)
(3 -9.25095e-16 0)
(3 -7.59529e-16 0)
(3 -5.05111e-16 0)
(3 -2.28912e-16 0)
(3 1.18198e-16 0)
(3 5.80692e-16 0)
(3 6.6678e-16 0)
(3 -9.35131e-16 0)
(3 -1.83634e-15 0)
(3 -2.76082e-15 0)
(3 -2.56938e-15 0)
(3 -1.08744e-15 0)
(3 -5.48202e-16 0)
(3 -3.61308e-16 0)
(3 3.84343e-17 0)
(3 1.27291e-15 0)
(3 1.07705e-15 0)
(3 5.56119e-16 0)
(3 1.04343e-16 0)
(3 -5.33263e-16 0)
(3 -7.75251e-16 0)
(3 -3.08015e-15 0)
(3 -3.77221e-15 0)
(3 -3.0593e-15 0)
(3 -3.66558e-15 0)
(3 -3.88691e-15 0)
(3 -4.78113e-15 0)
(3 -5.21604e-15 0)
(3 -4.12706e-15 0)
(3 -2.91797e-15 0)
(3 -1.45559e-15 0)
(3 -2.5858e-15 0)
(3 -1.07812e-15 0)
(3 1.40283e-15 0)
(3 1.55232e-15 0)
(3 1.34821e-15 0)
(3 1.43669e-15 0)
(3 1.57354e-15 0)
(3 8.87297e-16 0)
(3 -7.93106e-16 0)
(3 -3.88632e-15 0)
(3 -2.79782e-15 0)
(3 -1.32681e-15 0)
(3 -8.33221e-16 0)
(3 -4.46864e-16 0)
(3 -2.72262e-16 0)
(3 -5.23111e-16 0)
(3 -1.20505e-15 0)
(3 -1.77249e-15 0)
(3 -1.39807e-15 0)
(3 -7.8368e-16 0)
(3 -1.65827e-16 0)
(3 4.54064e-16 0)
(3 9.13053e-16 0)
(3 5.07834e-16 0)
(3 -3.61814e-18 0)
(3 -1.39481e-15 0)
(3 -2.15813e-15 0)
(3 -2.48067e-15 0)
(3 -1.68862e-15 0)
(3 -1.19842e-15 0)
(3 -1.97167e-16 0)
(3 1.65878e-16 0)
(3 8.15051e-16 0)
(3 3.0766e-15 0)
(3 6.00233e-15 0)
(3 5.74472e-15 0)
(3 4.69204e-15 0)
(3 3.91708e-15 0)
(3 3.37504e-15 0)
(3 2.6458e-15 0)
(3 2.66729e-15 0)
(3 3.11222e-15 0)
(3 5.13258e-15 0)
(3 5.66089e-15 0)
(3 4.98438e-15 0)
(3 2.64325e-15 0)
(3 1.82292e-15 0)
(3 1.52666e-15 0)
(3 2.99399e-15 0)
(3 3.00668e-15 0)
(3 1.75152e-16 0)
(3 4.17214e-16 0)
(3 2.74588e-16 0)
(3 1.57206e-18 0)
(3 -1.66095e-16 0)
(3 -2.40679e-16 0)
(3 -7.49277e-16 0)
(3 -4.85401e-16 0)
(3 5.49727e-17 0)
(3 3.62983e-16 0)
(3 1.20015e-15 0)
(3 3.9634e-16 0)
(3 8.51707e-17 0)
(3 2.78597e-17 0)
(3 1.51161e-16 0)
(3 -2.64436e-16 0)
(3 -3.34058e-16 0)
(3 -9.80884e-17 0)
(3 1.63549e-16 0)
(3 3.9238e-16 0)
(3 1.35845e-15 0)
(3 3.40609e-15 0)
(3 4.45229e-15 0)
(3 3.46491e-15 0)
(3 1.46601e-15 0)
(3 5.47692e-16 0)
(3 -2.64101e-16 0)
(3 -3.25161e-16 0)
(3 1.2101e-16 0)
(3 -3.46845e-16 0)
(3 -5.10904e-16 0)
(3 -5.79324e-16 0)
(3 4.7593e-16 0)
(3 7.04196e-16 0)
(3 3.21349e-16 0)
(3 -8.78909e-16 0)
(3 -2.37179e-15 0)
(3 -3.4492e-15 0)
(3 -6.06266e-15 0)
(3 -7.57604e-15 0)
(3 -6.99425e-15 0)
(3 -5.93281e-15 0)
(3 -4.28105e-15 0)
(3 -3.05073e-15 0)
(3 -3.0261e-15 0)
(3 -2.77826e-15 0)
(3 -3.2283e-15 0)
(3 -1.79529e-15 0)
(3 -1.32933e-15 0)
(3 9.46961e-16 0)
(3 2.5365e-15 0)
(3 2.55514e-15 0)
(3 1.26076e-15 0)
(3 1.18185e-15 0)