/*--------------------------------*- C++ -*----------------------------------*\
  =========                 |
  \\      /  F ield         | OpenFOAM: The Open Source CFD Toolbox
   \\    /   O peration     | Website:  https://openfoam.org
    \\  /    A nd           | Version:  7
     \\/     M anipulation  |
\*---------------------------------------------------------------------------*/
FoamFile
{
    version     2.0;
    format      ascii;
    class       volScalarField;
    location    "3.8";
    object      p;
}
// * * * * * * * * * * * * * * * * * * * * * * * * * * * * * * * * * * * * * //

dimensions      [1 -1 -2 0 0 0 0];

internalField   nonuniform List<scalar> 
73728
(
1
1
1
1
1
1
1
1
1
1
1
1
1
1
1
1
1
1
1
1
1
1
1
1
1
1
1
1
1
1
1
1
1
1
1
1
1
1
1
1
1
1
1
1
1
1
1
1
1
1
1
1
1
1
1
1
1
1
1
1
1
1
1
1
3.97632
11.0474
11.6997
11.5684
11.476
11.4127
11.4206
11.4641
11.5333
11.647
11.7709
11.8452
11.8997
11.9369
11.9504
11.9368
11.8986
11.8273
11.743
11.6986
11.7003
11.7587
11.8442
11.9464
12.0491
12.1617
12.2662
12.3468
12.387
12.3835
12.3215
12.1462
1
1
1
1
1
1
1
1
1
1
1
1
1
1
1
1
1
1
1
1
1
1
1
1
1
1
1
1
1
1
1
1
1
1
1
1
1
1
1
1
1
1
1
1
1
1
1
1
1
1
1
1
1
1
1
1
1
1
1
1
1
1
1
1
3.95987
11.0345
11.6949
11.5632
11.4706
11.4105
11.4228
11.4667
11.537
11.6511
11.7733
11.8461
11.9001
11.9364
11.9486
11.9339
11.8941
11.8213
11.7368
11.6935
11.6971
11.7575
11.8433
11.9469
12.0484
12.1537
12.2498
12.3269
12.3681
12.3474
12.292
12.1529
1
1
1
1
1
1
1
1
1
1
1
1
1
1
1
1
1
1
1
1
1
1
1
1
1
1
1
1
1
1
1
1
1
1
1
1
1
1
1
1
1
1
1
1
1
1
1
1
1
1
1
1
1
1
1
1
1
1
1
1
1
1
1
1
3.92343
11.0175
11.6907
11.5549
11.4623
11.4072
11.4245
11.4693
11.5416
11.6571
11.7769
11.8471
11.9003
11.9353
11.9455
11.9291
11.8868
11.8115
11.7266
11.685
11.6916
11.7545
11.8405
11.9445
12.0438
12.1392
12.2241
12.2933
12.3323
12.3099
12.2592
12.1125
1
1
1
1
1
1
1
1
1
1
1
1
1
1
1
1
1
1
1
1
1
1
1
1
1
1
1
1
1
1
1
1
1
1
1
1
1
1
1
1
1
1
1
1
1
1
1
1
1
1
1
1
1
1
1
1
1
1
1
1
1
1
1
1
3.87159
10.9938
11.6839
11.5427
11.4507
11.4034
11.4263
11.4724
11.5479
11.6664
11.7827
11.849
11.9005
11.9329
11.9404
11.9218
11.876
11.7968
11.7113
11.6727
11.684
11.7501
11.8384
11.9411
12.0366
12.1211
12.1932
12.2491
12.2814
12.261
12.2058
12.0691
1
1
1
1
1
1
1
1
1
1
1
1
1
1
1
1
1
1
1
1
1
1
1
1
1
1
1
1
1
1
1
1
1
1
1
1
1
1
1
1
1
1
1
1
1
1
1
1
1
1
1
1
1
1
1
1
1
1
1
1
1
1
1
1
3.80407
10.9599
11.674
11.5269
11.4369
11.3997
11.4282
11.476
11.5567
11.6792
11.7904
11.8514
11.8998
11.9291
11.9335
11.9125
11.8624
11.778
11.6916
11.6566
11.6749
11.7448
11.8364
11.9382
12.0291
12.1017
12.1595
12.1995
12.2209
12.2034
12.1421
12.0099
1
1
1
1
1
1
1
1
1
1
1
1
1
1
1
1
1
1
1
1
1
1
1
1
1
1
1
1
1
1
1
1
1
1
1
1
1
1
1
1
1
1
1
1
1
1
1
1
1
1
1
1
1
1
1
1
1
1
1
1
1
1
1
1
3.72077
10.9145
11.6592
11.507
11.4215
11.3969
11.4308
11.4818
11.57
11.6961
11.7988
11.8536
11.8976
11.9232
11.9249
11.9014
11.8462
11.7557
11.6684
11.6381
11.6647
11.738
11.8338
11.9368
12.0237
12.085
12.1269
12.1506
12.1587
12.139
12.0681
11.9378
1
1
1
1
1
1
1
1
1
1
1
1
1
1
1
1
1
1
1
1
1
1
1
1
1
1
1
1
1
1
1
1
1
1
1
1
1
1
1
1
1
1
1
1
1
1
1
1
1
1
1
1
1
1
1
1
1
1
1
1
1
1
1
1
3.62279
10.8562
11.6391
11.4831
11.406
11.3955
11.4342
11.4906
11.5886
11.7158
11.8067
11.8547
11.8933
11.9151
11.9145
11.8884
11.8275
11.7304
11.6433
11.6193
11.653
11.7287
11.8296
11.9358
12.0201
12.0723
12.1
12.1091
12.103
12.0732
11.9911
11.8616
1
1
1
1
1
1
1
1
1
1
1
1
1
1
1
1
1
1
1
1
1
1
1
1
1
1
1
1
1
1
1
1
1
1
1
1
1
1
1
1
1
1
1
1
1
1
1
1
1
1
1
1
1
1
1
1
1
1
1
1
1
1
1
1
3.51098
10.784
11.6134
11.4568
11.3919
11.3963
11.4386
11.5036
11.6124
11.7372
11.8138
11.8548
11.8869
11.9043
11.9016
11.8726
11.8057
11.7029
11.6183
11.6025
11.6403
11.7171
11.8234
11.9339
12.0161
12.0615
12.0799
12.0781
12.0594
12.0151
11.9211
11.7926
1
1
1
1
1
1
1
1
1
1
1
1
1
1
1
1
1
1
1
1
1
1
1
1
1
1
1
1
1
1
1
1
1
1
1
1
1
1
1
1
1
1
1
1
1
1
1
1
1
1
1
1
1
1
1
1
1
1
1
1
1
1
1
1
3.38553
10.6956
11.5819
11.4307
11.3817
11.3992
11.4448
11.5206
11.6407
11.7587
11.8204
11.8542
11.8785
11.8907
11.8855
11.8526
11.7796
11.6738
11.5959
11.5891
11.628
11.7041
11.8153
11.9291
12.0088
12.0495
12.0631
12.055
12.0278
11.9695
11.8645
11.7385
1
1
1
1
1
1
1
1
1
1
1
1
1
1
1
1
1
1
1
1
1
1
1
1
1
1
1
1
1
1
1
1
1
1
1
1
1
1
1
1
1
1
1
1
1
1
1
1
1
1
1
1
1
1
1
1
1
1
1
1
1
1
1
1
3.24673
10.5886
11.5447
11.4072
11.3776
11.4035
11.4534
11.5427
11.6729
11.7785
11.8267
11.8533
11.8689
11.8743
11.865
11.8267
11.7477
11.6437
11.5781
11.5803
11.6186
11.6941
11.8072
11.9203
11.9953
12.0331
12.0452
12.035
12.0028
11.9339
11.8201
11.7017
1
1
1
1
1
1
1
1
1
1
1
1
1
1
1
1
1
1
1
1
1
1
1
1
1
1
1
1
1
1
1
1
1
1
1
1
1
1
1
1
1
1
1
1
1
1
1
1
1
1
1
1
1
1
1
1
1
1
1
1
1
1
1
1
3.09494
10.46
11.5029
11.3893
11.3795
11.409
11.4655
11.5715
11.7064
11.7952
11.833
11.8524
11.8587
11.8559
11.8391
11.7933
11.7089
11.613
11.5663
11.576
11.6142
11.6902
11.8027
11.9085
11.9749
12.0091
12.021
12.0119
11.9776
11.9008
11.7814
11.678
1
1
1
1
1
1
1
1
1
1
1
1
1
1
1
1
1
1
1
1
1
1
1
1
1
1
1
1
1
1
1
1
1
1
1
1
1
1
1
1
1
1
1
1
1
1
1
1
1
1
1
1
1
1
1
1
1
1
1
1
1
1
1
1
2.93039
10.3081
11.4606
11.3782
11.3849
11.4161
11.4835
11.6073
11.7375
11.808
11.8387
11.8514
11.8483
11.8354
11.8078
11.7518
11.6631
11.5832
11.5589
11.5753
11.6167
11.6949
11.8044
11.8973
11.9504
11.9779
11.9879
11.98
11.9439
11.861
11.7412
11.6599
1
1
1
1
1
1
1
1
1
1
1
1
1
1
1
1
1
1
1
1
1
1
1
1
1
1
1
1
1
1
1
1
1
1
1
1
1
1
1
1
1
1
1
1
1
1
1
1
1
1
1
1
1
1
1
1
1
1
1
1
1
1
1
1
2.75506
10.1309
11.421
11.3743
11.3927
11.4268
11.5111
11.6485
11.762
11.8168
11.8431
11.8493
11.8378
11.8133
11.7722
11.7027
11.6129
11.5554
11.5525
11.5776
11.6269
11.7098
11.8146
11.8903
11.9273
11.9449
11.9492
11.9379
11.8961
11.8054
11.6934
11.6391
1
1
1
1
1
1
1
1
1
1
1
1
1
1
1
1
1
1
1
1
1
1
1
1
1
1
1
1
1
1
1
1
1
1
1
1
1
1
1
1
1
1
1
1
1
1
1
1
1
1
1
1
1
1
1
1
1
1
1
1
1
1
1
1
2.57014
9.92688
11.3883
11.3767
11.4011
11.4456
11.5505
11.6902
11.778
11.8215
11.8452
11.8453
11.8261
11.7898
11.7334
11.6481
11.5635
11.531
11.5449
11.5811
11.642
11.7328
11.8315
11.8886
11.9101
11.9169
11.9121
11.8918
11.8384
11.7359
11.638
11.6076
1
1
1
1
1
1
1
1
1
1
1
1
1
1
1
1
1
1
1
1
1
1
1
1
1
1
1
1
1
1
1
1
1
1
1
1
1
1
1
1
1
1
1
1
1
1
1
1
1
1
1
1
1
1
1
1
1
1
1
1
1
1
1
1
2.3786
9.69496
11.3663
11.3804
11.4134
11.4774
11.6006
11.726
11.7866
11.8224
11.8429
11.8381
11.812
11.7648
11.6923
11.5931
11.5207
11.5113
11.5362
11.5839
11.6591
11.7597
11.8499
11.8898
11.9003
11.8973
11.882
11.8487
11.7796
11.6642
11.5833
11.5666
1
1
1
1
1
1
1
1
1
1
1
1
1
1
1
1
1
1
1
1
1
1
1
1
1
1
1
1
1
1
1
1
1
1
1
1
1
1
1
1
1
1
1
1
1
1
1
1
1
1
1
1
1
1
1
1
1
1
1
1
1
1
1
1
2.18511
9.43675
11.3542
11.3855
11.4345
11.5243
11.655
11.7519
11.7908
11.8197
11.8347
11.8257
11.7939
11.7364
11.6489
11.5441
11.491
11.4968
11.5285
11.586
11.6769
11.7854
11.8632
11.8915
11.8954
11.8854
11.8603
11.8124
11.7249
11.6016
11.5396
11.5287
1
1
1
1
1
1
1
1
1
1
1
1
1
1
1
1
1
1
1
1
1
1
1
1
1
1
1
1
1
1
1
1
1
1
1
1
1
1
1
1
1
1
1
1
1
1
1
1
1
1
1
1
1
1
1
1
1
1
1
1
1
1
1
1
1.99372
9.15584
11.3494
11.3965
11.4698
11.583
11.7054
11.7686
11.7929
11.8137
11.8203
11.8066
11.7686
11.7017
11.6034
11.5063
11.4771
11.4889
11.5238
11.5911
11.6959
11.8045
11.8673
11.8893
11.891
11.8773
11.8444
11.7814
11.6744
11.5549
11.5118
11.5043
1
1
1
1
1
1
1
1
1
1
1
1
1
1
1
1
1
1
1
1
1
1
1
1
1
1
1
1
1
1
1
1
1
1
1
1
1
1
1
1
1
1
1
1
1
1
1
1
1
1
1
1
1
1
1
1
1
1
1
1
1
1
1
1
1.80872
8.85333
11.352
11.421
11.5202
11.6447
11.7445
11.78
11.7943
11.8054
11.8006
11.7787
11.7335
11.6585
11.558
11.4837
11.4743
11.4878
11.5272
11.6052
11.7181
11.8141
11.8604
11.8782
11.8805
11.8652
11.8251
11.7454
11.6258
11.5266
11.4983
11.4936
1
1
1
1
1
1
1
1
1
1
1
1
1
1
1
1
1
1
1
1
1
1
1
1
1
1
1
1
1
1
1
1
1
1
1
1
1
1
1
1
1
1
1
1
1
1
1
1
1
1
1
1
1
1
1
1
1
1
1
1
1
1
1
1
1.63526
8.53375
11.3636
11.4641
11.5804
11.6992
11.7697
11.7898
11.7965
11.7941
11.7753
11.7426
11.6888
11.6063
11.5172
11.4756
11.4775
11.4959
11.5444
11.6337
11.7439
11.8154
11.8447
11.8584
11.8598
11.8421
11.793
11.7
11.5812
11.5129
11.4943
11.4929
1
1
1
1
1
1
1
1
1
1
1
1
1
1
1
1
1
1
1
1
1
1
1
1
1
1
1
1
1
1
1
1
1
1
1
1
1
1
1
1
1
1
1
1
1
1
1
1
1
1
1
1
1
1
1
1
1
1
1
1
1
1
1
1
1.47696
8.20717
11.3886
11.5216
11.6399
11.7405
11.7833
11.7985
11.7974
11.7792
11.7467
11.7022
11.6357
11.5482
11.4844
11.474
11.4852
11.515
11.5773
11.6766
11.7715
11.8135
11.8277
11.8344
11.831
11.8071
11.7477
11.6423
11.5418
11.5033
11.4934
11.4993
1
1
1
1
1
1
1
1
1
1
1
1
1
1
1
1
1
1
1
1
1
1
1
1
1
1
1
1
1
1
1
1
1
1
1
1
1
1
1
1
1
1
1
1
1
1
1
1
1
1
1
1
1
1
1
1
1
1
1
1
1
1
1
1
1.33571
7.88116
11.4284
11.5871
11.691
11.7666
11.7902
11.8033
11.7929
11.7617
11.7175
11.6589
11.5764
11.4944
11.4638
11.4723
11.4958
11.5424
11.6235
11.7281
11.7964
11.8136
11.8159
11.8122
11.7981
11.7616
11.686
11.5732
11.5074
11.4891
11.4886
11.506
1
1
1
1
1
1
1
1
1
1
1
1
1
1
1
1
1
1
1
1
1
1
1
1
1
1
1
1
1
1
1
1
1
1
1
1
1
1
1
1
1
1
1
1
1
1
1
1
1
1
1
1
1
1
1
1
1
1
1
1
1
1
1
1
1.21259
7.56222
11.4801
11.6503
11.7307
11.7794
11.7931
11.801
11.7801
11.7412
11.6876
11.6129
11.5179
11.4574
11.4527
11.4705
11.5077
11.576
11.6778
11.7759
11.8146
11.8169
11.8101
11.7947
11.7649
11.7095
11.612
11.509
11.4756
11.4682
11.4784
11.5087
1
1
1
1
1
1
1
1
1
1
1
1
1
1
1
1
1
1
1
1
1
1
1
1
1
1
1
1
1
1
1
1
1
1
1
1
1
1
1
1
1
1
1
1
1
1
1
1
1
1
1
1
1
1
1
1
1
1
1
1
1
1
1
1
1.1075
7.25482
11.5334
11.7002
11.7602
11.7852
11.7889
11.7877
11.7592
11.7163
11.654
11.5637
11.4718
11.4409
11.4468
11.471
11.5238
11.6168
11.7309
11.8065
11.8248
11.8207
11.8068
11.7801
11.7338
11.655
11.5402
11.4657
11.4488
11.4482
11.4681
11.5099
1
1
1
1
1
1
1
1
1
1
1
1
1
1
1
1
1
1
1
1
1
1
1
1
1
1
1
1
1
1
1
1
1
1
1
1
1
1
1
1
1
1
1
1
1
1
1
1
1
1
1
1
1
1
1
1
1
1
1
1
1
1
1
1
1.02547
6.95651
11.5707
11.7347
11.7799
11.7893
11.7794
11.7657
11.731
11.6846
11.6116
11.514
11.4482
11.4384
11.4472
11.4799
11.5521
11.6657
11.7714
11.8178
11.8267
11.8197
11.7999
11.7633
11.7014
11.5992
11.4877
11.4454
11.4338
11.4373
11.4642
11.5164
1
1
1
1
1
1
1
1
1
1
1
1
1
1
1
1
1
1
1
1
1
1
1
1
1
1
1
1
1
1
1
1
1
1
1
1
1
1
1
1
1
1
1
1
1
1
1
1
1
1
1
1
1
1
1
1
1
1
1
1
1
1
1
1
1.00005
6.64245
11.578
11.7647
11.7926
11.7894
11.7632
11.7374
11.6975
11.6428
11.5576
11.4727
11.4441
11.4431
11.4589
11.5067
11.6005
11.7185
11.7928
11.816
11.8198
11.8102
11.7858
11.7409
11.6599
11.5436
11.4637
11.4396
11.4307
11.4384
11.474
11.537
1
1
1
1
1
1
1
1
1
1
1
1
1
1
1
1
1
1
1
1
1
1
1
1
1
1
1
1
1
1
1
1
1
1
1
1
1
1
1
1
1
1
1
1
1
1
1
1
1
1
1
1
1
1
1
1
1
1
1
1
1
1
1
1
1
6.32508
11.5668
11.7959
11.7994
11.784
11.7429
11.7079
11.6594
11.5885
11.4992
11.4504
11.4476
11.4559
11.4864
11.5572
11.6687
11.7653
11.7995
11.8071
11.8049
11.7915
11.7619
11.7034
11.603
11.4971
11.4563
11.4411
11.4371
11.4537
11.503
11.5753
1
1
1
1
1
1
1
1
1
1
1
1
1
1
1
1
1
1
1
1
1
1
1
1
1
1
1
1
1
1
1
1
1
1
1
1
1
1
1
1
1
1
1
1
1
1
1
1
1
1
1
1
1
1
1
1
1
1
1
1
1
1
1
1
1
6.00972
11.5579
11.8182
11.7983
11.7719
11.7228
11.6796
11.6154
11.5257
11.4546
11.4441
11.4518
11.4751
11.53
11.6296
11.742
11.796
11.8016
11.7971
11.786
11.7645
11.7229
11.6441
11.5344
11.4698
11.451
11.4439
11.4504
11.4818
11.5477
11.6241
1
1
1
1
1
1
1
1
1
1
1
1
1
1
1
1
1
1
1
1
1
1
1
1
1
1
1
1
1
1
1
1
1
1
1
1
1
1
1
1
1
1
1
1
1
1
1
1
1
1
1
1
1
1
1
1
1
1
1
1
1
1
1
1
1
5.69955
11.5565
11.8168
11.7822
11.7547
11.7048
11.6499
11.5645
11.4712
11.4366
11.4409
11.4582
11.5032
11.5906
11.7117
11.7959
11.8115
11.8037
11.7896
11.7674
11.7315
11.6685
11.5673
11.4755
11.4495
11.4411
11.4441
11.466
11.5184
11.5994
11.6695
1
1
1
1
1
1
1
1
1
1
1
1
1
1
1
1
1
1
1
1
1
1
1
1
1
1
1
1
1
1
1
1
1
1
1
1
1
1
1
1
1
1
1
1
1
1
1
1
1
1
1
1
1
1
1
1
1
1
1
1
1
1
1
1
1
5.39881
11.5459
11.8056
11.7538
11.7359
11.6844
11.612
11.5119
11.4435
11.4338
11.4413
11.4733
11.5473
11.6655
11.7792
11.8206
11.8185
11.8056
11.7839
11.75
11.6943
11.6035
11.4932
11.4404
11.4283
11.4278
11.4436
11.4855
11.5608
11.6471
11.6991
1
1
1
1
1
1
1
1
1
1
1
1
1
1
1
1
1
1
1
1
1
1
1
1
1
1
1
1
1
1
1
1
1
1
1
1
1
1
1
1
1
1
1
1
1
1
1
1
1
1
1
1
1
1
1
1
1
1
1
1
1
1
1
1
1
5.10693
11.5131
11.7845
11.728
11.7153
11.6539
11.5627
11.4722
11.441
11.4378
11.4543
11.5083
11.6126
11.7398
11.8136
11.8268
11.8206
11.8046
11.7766
11.7291
11.6491
11.5364
11.4469
11.421
11.412
11.4186
11.4487
11.5133
11.6058
11.6795
11.7103
1
1
1
1
1
1
1
1
1
1
1
1
1
1
1
1
1
1
1
1
1
1
1
1
1
1
1
1
1
1
1
1
1
1
1
1
1
1
1
1
1
1
1
1
1
1
1
1
1
1
1
1
1
1
1
1
1
1
1
1
1
1
1
1
1
4.82223
11.4547
11.7651
11.7058
11.6871
11.6078
11.5104
11.4571
11.4471
11.453
11.4878
11.5698
11.6924
11.792
11.8222
11.8244
11.8161
11.7968
11.7606
11.6958
11.5922
11.4817
11.4311
11.4119
11.406
11.4211
11.469
11.5548
11.6464
11.6939
11.7035
1
1
1
1
1
1
1
1
1
1
1
1
1
1
1
1
1
1
1
1
1
1
1
1
1
1
1
1
1
1
1
1
1
1
1
1
1
1
1
1
1
1
1
1
1
1
1
1
1
1
1
1
1
1
1
1
1
1
1
1
1
1
1
1
1
4.54368
11.3718
11.7514
11.6859
11.6478
11.5499
11.4736
11.4572
11.4582
11.4817
11.544
11.6538
11.7671
11.8166
11.8217
11.8162
11.803
11.7772
11.7283
11.6427
11.529
11.4528
11.4268
11.4117
11.4132
11.4431
11.5133
11.6081
11.6749
11.6931
11.6824
1
1
1
1
1
1
1
1
1
1
1
1
1
1
1
1
1
1
1
1
1
1
1
1
1
1
1
1
1
1
1
1
1
1
1
1
1
1
1
1
1
1
1
1
1
1
1
1
1
1
1
1
1
1
1
1
1
1
1
1
1
1
1
1
1
4.2688
11.2652
11.7472
11.6646
11.5943
11.4978
11.4602
11.4594
11.4765
11.5252
11.621
11.7435
11.817
11.8289
11.8203
11.8058
11.783
11.744
11.6755
11.5717
11.4771
11.4423
11.4245
11.4187
11.4356
11.4893
11.5792
11.6592
11.6905
11.6831
11.6565
1
1
1
1
1
1
1
1
1
1
1
1
1
1
1
1
1
1
1
1
1
1
1
1
1
1
1
1
1
1
1
1
1
1
1
1
1
1
1
1
1
1
1
1
1
1
1
1
1
1
1
1
1
1
1
1
1
1
1
1
1
1
1
1
1
4.00285
11.1404
11.7449
11.6312
11.5369
11.4703
11.4587
11.4661
11.5046
11.586
11.7094
11.8134
11.8442
11.8382
11.8209
11.7964
11.7588
11.6982
11.6051
11.5006
11.4484
11.4311
11.4229
11.4323
11.4737
11.556
11.6475
11.6947
11.6954
11.6707
11.6345
1
1
1
1
1
1
1
1
1
1
1
1
1
1
1
1
1
1
1
1
1
1
1
1
1
1
1
1
1
1
1
1
1
1
1
1
1
1
1
1
1
1
1
1
1
1
1
1
1
1
1
1
1
1
1
1
1
1
1
1
1
1
1
1
1
3.75115
11.0015
11.7256
11.5877
11.4963
11.4658
11.4623
11.4843
11.549
11.6627
11.7895
11.8524
11.8588
11.8449
11.8217
11.7855
11.7285
11.6411
11.5313
11.4535
11.4297
11.419
11.4235
11.4555
11.5287
11.6287
11.6963
11.7104
11.693
11.6597
11.6174
1
1
1
1
1
1
1
1
1
1
1
1
1
1
1
1
1
1
1
1
1
1
1
1
1
1
1
1
1
1
1
1
1
1
1
1
1
1
1
1
1
1
1
1
1
1
1
1
1
1
1
1
1
1
1
1
1
1
1
1
1
1
1
1
1
3.5129
10.8485
11.6844
11.546
11.4818
11.4708
11.476
11.5194
11.6146
11.7454
11.8429
11.8699
11.8649
11.8471
11.8168
11.7667
11.6869
11.5765
11.4755
11.4323
11.4145
11.412
11.4338
11.4949
11.596
11.6857
11.7185
11.7122
11.6859
11.6482
11.6002
1
1
1
1
1
1
1
1
1
1
1
1
1
1
1
1
1
1
1
1
1
1
1
1
1
1
1
1
1
1
1
1
1
1
1
1
1
1
1
1
1
1
1
1
1
1
1
1
1
1
1
1
1
1
1
1
1
1
1
1
1
1
1
1
1
3.28646
10.68
11.6316
11.5172
11.4848
11.4819
11.5029
11.5756
11.6967
11.8172
11.8709
11.8756
11.8637
11.8407
11.8005
11.7328
11.6306
11.5159
11.448
11.422
11.4084
11.4184
11.4636
11.555
11.6609
11.7168
11.7225
11.7048
11.6729
11.631
11.5743
1
1
1
1
1
1
1
1
1
1
1
1
1
1
1
1
1
1
1
1
1
1
1
1
1
1
1
1
1
1
1
1
1
1
1
1
1
1
1
1
1
1
1
1
1
1
1
1
1
1
1
1
1
1
1
1
1
1
1
1
1
1
1
1
1
3.07203
10.4961
11.5825
11.5064
11.4919
11.4991
11.5469
11.6508
11.781
11.8667
11.8854
11.8757
11.8558
11.8234
11.7683
11.6801
11.5646
11.4738
11.4379
11.4173
11.416
11.4455
11.5206
11.6298
11.7085
11.7276
11.716
11.6894
11.6521
11.602
11.5301
1
1
1
1
1
1
1
1
1
1
1
1
1
1
1
1
1
1
1
1
1
1
1
1
1
1
1
1
1
1
1
1
1
1
1
1
1
1
1
1
1
1
1
1
1
1
1
1
1
1
1
1
1
1
1
1
1
1
1
1
1
1
1
1
1
2.87034
10.3032
11.5481
11.5063
11.4984
11.5267
11.6072
11.7334
11.8509
11.898
11.8938
11.8729
11.8427
11.7953
11.72
11.612
11.5044
11.4527
11.4303
11.4214
11.4392
11.498
11.6013
11.6989
11.7358
11.7289
11.7041
11.6693
11.6234
11.5572
11.4629
1
1
1
1
1
1
1
1
1
1
1
1
1
1
1
1
1
1
1
1
1
1
1
1
1
1
1
1
1
1
1
1
1
1
1
1
1
1
1
1
1
1
1
1
1
1
1
1
1
1
1
1
1
1
1
1
1
1
1
1
1
1
1
1
1
2.6826
10.1072
11.5315
11.5072
11.5134
11.5673
11.6764
11.81
11.8994
11.9163
11.8986
11.8688
11.825
11.758
11.659
11.5418
11.4648
11.4388
11.4249
11.4345
11.4796
11.5728
11.6845
11.7464
11.749
11.7263
11.6919
11.6481
11.5868
11.4948
11.3824
1
1
1
1
1
1
1
1
1
1
1
1
1
1
1
1
1
1
1
1
1
1
1
1
1
1
1
1
1
1
1
1
1
1
1
1
1
1
1
1
1
1
1
1
1
1
1
1
1
1
1
1
1
1
1
1
1
1
1
1
1
1
1
1
1
2.51091
9.91328
11.529
11.5109
11.5402
11.6187
11.7459
11.871
11.9291
11.9253
11.8996
11.8607
11.8014
11.712
11.5928
11.4874
11.4441
11.4253
11.4262
11.4588
11.5382
11.6564
11.7465
11.7695
11.7539
11.7214
11.679
11.6224
11.5379
11.4199
11.3144
1
1
1
1
1
1
1
1
1
1
1
1
1
1
1
1
1
1
1
1
1
1
1
1
1
1
1
1
1
1
1
1
1
1
1
1
1
1
1
1
1
1
1
1
1
1
1
1
1
1
1
1
1
1
1
1
1
1
1
1
1
1
1
1
1
2.35641
9.72536
11.5346
11.5235
11.5758
11.6748
11.8098
11.9144
11.9433
11.9275
11.8952
11.8457
11.7691
11.6577
11.5327
11.4571
11.4309
11.4191
11.4377
11.4992
11.6108
11.7269
11.7786
11.7764
11.7502
11.7109
11.6588
11.5837
11.4719
11.3492
11.2756
1
1
1
1
1
1
1
1
1
1
1
1
1
1
1
1
1
1
1
1
1
1
1
1
1
1
1
1
1
1
1
1
1
1
1
1
1
1
1
1
1
1
1
1
1
1
1
1
1
1
1
1
1
1
1
1
1
1
1
1
1
1
1
1
1
2.21953
9.5465
11.5448
11.5449
11.6172
11.7311
11.8632
11.9429
11.9485
11.9242
11.8839
11.8212
11.7256
11.598
11.4883
11.4436
11.4219
11.4245
11.4648
11.558
11.6856
11.7706
11.7876
11.7707
11.7366
11.6899
11.6235
11.5234
11.3954
11.3021
11.2527
1
1
1
1
1
1
1
1
1
1
1
1
1
1
1
1
1
1
1
1
1
1
1
1
1
1
1
1
1
1
1
1
1
1
1
1
1
1
1
1
1
1
1
1
1
1
1
1
1
1
1
1
1
1
1
1
1
1
1
1
1
1
1
1
1
2.10031
9.37966
11.5575
11.5713
11.6604
11.7834
11.9048
11.9604
11.9494
11.9165
11.8652
11.7863
11.671
11.5402
11.4614
11.4342
11.4214
11.442
11.5105
11.631
11.7463
11.7898
11.7827
11.7543
11.7131
11.6549
11.5667
11.4431
11.3299
11.2738
11.2348
1
1
1
1
1
1
1
1
1
1
1
1
1
1
1
1
1
1
1
1
1
1
1
1
1
1
1
1
1
1
1
1
1
1
1
1
1
1
1
1
1
1
1
1
1
1
1
1
1
1
1
1
1
1
1
1
1
1
1
1
1
1
1
1
1
1.9982
9.2271
11.5705
11.5992
11.7013
11.8284
11.9356
11.9703
11.9469
11.9051
11.8402
11.7422
11.61
11.4924
11.4449
11.4244
11.4284
11.4723
11.5726
11.7046
11.7853
11.7936
11.7702
11.7328
11.681
11.6039
11.489
11.3618
11.288
11.2479
11.2226
1
1
1
1
1
1
1
1
1
1
1
1
1
1
1
1
1
1
1
1
1
1
1
1
1
1
1
1
1
1
1
1
1
1
1
1
1
1
1
1
1
1
1
1
1
1
1
1
1
1
1
1
1
1
1
1
1
1
1
1
1
1
1
1
1
1.91176
9.08974
11.5823
11.6257
11.7367
11.8635
11.9562
11.9746
11.9421
11.8909
11.8108
11.6919
11.5512
11.4586
11.4297
11.4182
11.441
11.5141
11.6425
11.7633
11.8045
11.7904
11.7562
11.7087
11.6405
11.5369
11.403
11.3028
11.2563
11.226
11.219
1
1
1
1
1
1
1
1
1
1
1
1
1
1
1
1
1
1
1
1
1
1
1
1
1
1
1
1
1
1
1
1
1
1
1
1
1
1
1
1
1
1
1
1
1
1
1
1
1
1
1
1
1
1
1
1
1
1
1
1
1
1
1
1
1
1.83846
8.96715
11.5923
11.6485
11.7647
11.8881
11.9684
11.9739
11.9351
11.8746
11.7782
11.6402
11.5027
11.4373
11.4144
11.4166
11.4602
11.5639
11.7073
11.8002
11.8108
11.7837
11.7411
11.6806
11.5892
11.4583
11.3314
11.2673
11.2298
11.2137
11.2267
1
1
1
1
1
1
1
1
1
1
1
1
1
1
1
1
1
1
1
1
1
1
1
1
1
1
1
1
1
1
1
1
1
1
1
1
1
1
1
1
1
1
1
1
1
1
1
1
1
1
1
1
1
1
1
1
1
1
1
1
1
1
1
1
1
1.77511
8.85712
11.6005
11.6672
11.7855
11.9033
11.9736
11.9691
11.9259
11.8564
11.7436
11.5922
11.4687
11.4236
11.4048
11.4203
11.4865
11.6162
11.7567
11.818
11.8086
11.7738
11.7221
11.6441
11.5248
11.3808
11.2869
11.2421
11.2135
11.216
11.2491
1
1
1
1
1
1
1
1
1
1
1
1
1
1
1
1
1
1
1
1
1
1
1
1
1
1
1
1
1
1
1
1
1
1
1
1
1
1
1
1
1
1
1
1
1
1
1
1
1
1
1
1
1
1
1
1
1
1
1
1
1
1
1
1
1
1.71856
8.75588
11.6064
11.682
11.8005
11.9129
11.9738
11.9618
11.9151
11.8362
11.7079
11.5517
11.4483
11.4148
11.4024
11.4307
11.5184
11.665
11.7888
11.8219
11.8002
11.7593
11.6962
11.5954
11.4507
11.3207
11.2602
11.224
11.2108
11.2327
11.29
1
1
1
1
1
1
1
1
1
1
1
1
1
1
1
1
1
1
1
1
1
1
1
1
1
1
1
1
1
1
1
1
1
1
1
1
1
1
1
1
1
1
1
1
1
1
1
1
1
1
1
1
1
1
1
1
1
1
1
1
1
1
1
1
1
1.66624
8.65971
11.6103
11.6943
11.8124
11.9198
11.9717
11.9536
11.9035
11.8147
11.6733
11.5205
11.4376
11.4091
11.4058
11.4467
11.5528
11.7055
11.8071
11.8176
11.7882
11.7405
11.6621
11.5347
11.3793
11.2825
11.2394
11.2134
11.2194
11.2633
11.3479
1
1
1
1
1
1
1
1
1
1
1
1
1
1
1
1
1
1
1
1
1
1
1
1
1
1
1
1
1
1
1
1
1
1
1
1
1
1
1
1
1
1
1
1
1
1
1
1
1
1
1
1
1
1
1
1
1
1
1
1
1
1
1
1
1
1.6165
8.56593
11.6127
11.7053
11.8231
11.9256
11.9691
11.9457
11.8917
11.7928
11.642
11.4981
11.432
11.4063
11.4118
11.4652
11.5858
11.7364
11.8163
11.8104
11.7755
11.7188
11.6207
11.4687
11.3235
11.2575
11.2216
11.2108
11.2357
11.3059
11.4155
1
1
1
1
1
1
1
1
1
1
1
1
1
1
1
1
1
1
1
1
1
1
1
1
1
1
1
1
1
1
1
1
1
1
1
1
1
1
1
1
1
1
1
1
1
1
1
1
1
1
1
1
1
1
1
1
1
1
1
1
1
1
1
1
1
1.56852
8.47329
11.6144
11.7159
11.8337
11.9316
11.9665
11.9386
11.8801
11.7716
11.6159
11.4827
11.4281
11.4055
11.4185
11.4829
11.6141
11.7586
11.8199
11.8034
11.7641
11.6962
11.5755
11.408
11.2863
11.2382
11.209
11.2142
11.2587
11.3557
11.4821
1
1
1
1
1
1
1
1
1
1
1
1
1
1
1
1
1
1
1
1
1
1
1
1
1
1
1
1
1
1
1
1
1
1
1
1
1
1
1
1
1
1
1
1
1
1
1
1
1
1
1
1
1
1
1
1
1
1
1
1
1
1
1
1
1
1.52238
8.382
11.6166
11.7269
11.8453
11.938
11.9633
11.9316
11.8684
11.7523
11.5952
11.4722
11.4249
11.406
11.425
11.4981
11.6361
11.7735
11.8203
11.7974
11.7532
11.6732
11.5312
11.3606
11.2638
11.2233
11.203
11.2222
11.2869
11.4075
11.5385
1
1
1
1
1
1
1
1
1
1
1
1
1
1
1
1
1
1
1
1
1
1
1
1
1
1
1
1
1
1
1
1
1
1
1
1
1
1
1
1
1
1
1
1
1
1
1
1
1
1
1
1
1
1
1
1
1
1
1
1
1
1
1
1
1
1.47869
8.29343
11.6203
11.7388
11.858
11.9444
11.9587
11.9242
11.8564
11.7352
11.5792
11.4651
11.4225
11.4075
11.4313
11.5109
11.6526
11.7822
11.8184
11.7912
11.7422
11.6502
11.492
11.3282
11.2509
11.2136
11.203
11.2346
11.3186
11.4562
11.5802
1
1
1
1
1
1
1
1
1
1
1
1
1
1
1
1
1
1
1
1
1
1
1
1
1
1
1
1
1
1
1
1
1
1
1
1
1
1
1
1
1
1
1
1
1
1
1
1
1
1
1
1
1
1
1
1
1
1
1
1
1
1
1
1
1
1.43829
8.20937
11.6258
11.7515
11.8712
11.9498
11.9522
11.9162
11.8446
11.7207
11.5668
11.4604
11.4211
11.4096
11.4371
11.5214
11.6645
11.7861
11.8149
11.7843
11.7304
11.6276
11.4599
11.3077
11.2437
11.2089
11.2075
11.2506
11.3514
11.4987
11.6073
1
1
1
1
1
1
1
1
1
1
1
1
1
1
1
1
1
1
1
1
1
1
1
1
1
1
1
1
1
1
1
1
1
1
1
1
1
1
1
1
1
1
1
1
1
1
1
1
1
1
1
1
1
1
1
1
1
1
1
1
1
1
1
1
1
1.40186
8.13147
11.6332
11.7647
11.8837
11.9531
11.9452
11.908
11.8341
11.7087
11.5568
11.4568
11.4202
11.4117
11.4422
11.5304
11.6735
11.7872
11.8107
11.7766
11.7177
11.6063
11.4353
11.2958
11.2401
11.2084
11.2148
11.2683
11.3826
11.533
11.6236
1
1
1
1
1
1
1
1
1
1
1
1
1
1
1
1
1
1
1
1
1
1
1
1
1
1
1
1
1
1
1
1
1
1
1
1
1
1
1
1
1
1
1
1
1
1
1
1
1
1
1
1
1
1
1
1
1
1
1
1
1
1
1
1
1
1.36977
8.06108
11.6421
11.7776
11.8946
11.9545
11.9387
11.9014
11.8257
11.6987
11.548
11.4533
11.4191
11.4132
11.4466
11.5381
11.6806
11.7873
11.8064
11.7687
11.7049
11.5874
11.4178
11.2894
11.2392
11.2107
11.2233
11.2856
11.4094
11.5582
11.6323
1
1
1
1
1
1
1
1
1
1
1
1
1
1
1
1
1
1
1
1
1
1
1
1
1
1
1
1
1
1
1
1
1
1
1
1
1
1
1
1
1
1
1
1
1
1
1
1
1
1
1
1
1
1
1
1
1
1
1
1
1
1
1
1
1
1.34207
7.99899
11.6518
11.7895
11.9022
11.9548
11.9341
11.8976
11.82
11.6905
11.5399
11.4494
11.4172
11.4134
11.4494
11.5441
11.6859
11.7871
11.8025
11.7611
11.6932
11.5722
11.4066
11.2874
11.2406
11.2148
11.2321
11.3006
11.4303
11.5744
11.6349
1
1
1
1
1
1
1
1
1
1
1
1
1
1
1
1
1
1
1
1
1
1
1
1
1
1
1
1
1
1
1
1
1
1
1
1
1
1
1
1
1
1
1
1
1
1
1
1
1
1
1
1
1
1
1
1
1
1
1
1
1
1
1
1
1
1.3186
7.94552
11.6617
11.7992
11.9065
11.9549
11.9315
11.8963
11.8166
11.6842
11.5323
11.4449
11.4145
11.4124
11.4508
11.5483
11.6896
11.7864
11.7992
11.7543
11.6835
11.5615
11.4008
11.2894
11.2446
11.2203
11.2402
11.3124
11.445
11.583
11.6317
1
1
1
1
1
1
1
1
1
1
1
1
1
1
1
1
1
1
1
1
1
1
1
1
1
1
1
1
1
1
1
1
1
1
1
1
1
1
1
1
1
1
1
1
1
1
1
1
1
1
1
1
1
1
1
1
1
1
1
1
1
1
1
1
1
1.29903
7.90071
11.6715
11.8073
11.9091
11.9552
11.9306
11.8962
11.8147
11.6792
11.5248
11.4405
11.4118
11.4108
11.4515
11.5514
11.6918
11.7852
11.796
11.7485
11.6761
11.5551
11.4002
11.2946
11.2507
11.2268
11.2475
11.321
11.4543
11.5857
11.624
1
1
1
1
1
1
1
1
1
1
1
1
1
1
1
1
1
1
1
1
1
1
1
1
1
1
1
1
1
1
1
1
1
1
1
1
1
1
1
1
1
1
1
1
1
1
1
1
1
1
1
1
1
1
1
1
1
1
1
1
1
1
1
1
1
1.28289
7.86402
11.6816
11.8147
11.9111
11.9555
11.9308
11.8967
11.8135
11.6745
11.5174
11.4371
11.4096
11.4093
11.4521
11.5541
11.6932
11.7837
11.7927
11.7435
11.6706
11.552
11.4032
11.3015
11.2576
11.2334
11.2536
11.3269
11.4596
11.5849
11.615
1
1
1
1
1
1
1
1
1
1
1
1
1
1
1
1
1
1
1
1
1
1
1
1
1
1
1
1
1
1
1
1
1
1
1
1
1
1
1
1
1
1
1
1
1
1
1
1
1
1
1
1
1
1
1
1
1
1
1
1
1
1
1
1
1
1.27003
7.83559
11.6915
11.8215
11.9126
11.9561
11.9316
11.8977
11.8125
11.6695
11.5101
11.4349
11.4084
11.4085
11.4528
11.5565
11.694
11.7819
11.7894
11.7394
11.667
11.5518
11.4083
11.3083
11.2644
11.2394
11.2585
11.3309
11.4623
11.5829
11.6072
1
1
1
1
1
1
1
1
1
1
1
1
1
1
1
1
1
1
1
1
1
1
1
1
1
1
1
1
1
1
1
1
1
1
1
1
1
1
1
1
1
1
1
1
1
1
1
1
1
1
1
1
1
1
1
1
1
1
1
1
1
1
1
1
1
1.26125
7.81659
11.6992
11.8265
11.9133
11.9566
11.9325
11.8982
11.8111
11.6648
11.5044
11.4334
11.4081
11.4085
11.4536
11.5583
11.6946
11.7804
11.7867
11.7362
11.6646
11.5525
11.4126
11.3138
11.2696
11.2438
11.262
11.3334
11.4638
11.5814
11.6023
1
1
1
1
1
1
1
1
1
1
1
1
1
1
1
1
1
1
1
1
1
1
1
1
1
1
1
1
1
1
1
1
1
1
1
1
1
1
1
1
1
1
1
1
1
1
1
1
1
1
1
1
1
1
1
1
1
1
1
1
1
1
1
1
1
1.25755
7.8084
11.7029
11.8291
11.9136
11.9575
11.9335
11.8984
11.8096
11.6614
11.5011
11.4325
11.4082
11.4089
11.4545
11.5597
11.6951
11.7794
11.785
11.7343
11.6633
11.5531
11.4152
11.3171
11.2725
11.2461
11.2636
11.3346
11.4642
11.5799
11.5993
1
1
1
1
1
1
1
1
1
1
1
1
1
1
1
1
1
1
1
1
1
1
1
1
1
1
1
1
1
1
1
1
1
1
1
1
1
1
1
1
1
1
1
1
1
1
1
1
1
1
1
1
1
1
1
1
1
1
1
1
1
1
1
1
1
1.25752
7.80835
11.7029
11.8291
11.9136
11.9575
11.9335
11.8984
11.8096
11.6614
11.5011
11.4324
11.4082
11.4089
11.4545
11.5596
11.6951
11.7794
11.785
11.7343
11.6633
11.5531
11.4152
11.3171
11.2725
11.2461
11.2636
11.3346
11.4642
11.5799
11.5993
1
1
1
1
1
1
1
1
1
1
1
1
1
1
1
1
1
1
1
1
1
1
1
1
1
1
1
1
1
1
1
1
1
1
1
1
1
1
1
1
1
1
1
1
1
1
1
1
1
1
1
1
1
1
1
1
1
1
1
1
1
1
1
1
1
1.2612
7.81646
11.6992
11.8265
11.9134
11.9567
11.9326
11.8982
11.8112
11.6648
11.5043
11.4334
11.4081
11.4084
11.4536
11.5583
11.6946
11.7804
11.7867
11.7362
11.6646
11.5525
11.4126
11.3138
11.2696
11.2439
11.262
11.3335
11.4639
11.5814
11.6023
1
1
1
1
1
1
1
1
1
1
1
1
1
1
1
1
1
1
1
1
1
1
1
1
1
1
1
1
1
1
1
1
1
1
1
1
1
1
1
1
1
1
1
1
1
1
1
1
1
1
1
1
1
1
1
1
1
1
1
1
1
1
1
1
1
1.26994
7.83539
11.6916
11.8216
11.9127
11.9561
11.9317
11.8977
11.8125
11.6695
11.5101
11.4349
11.4084
11.4085
11.4528
11.5565
11.6941
11.782
11.7894
11.7394
11.667
11.5518
11.4082
11.3083
11.2644
11.2395
11.2586
11.331
11.4624
11.5829
11.6072
1
1
1
1
1
1
1
1
1
1
1
1
1
1
1
1
1
1
1
1
1
1
1
1
1
1
1
1
1
1
1
1
1
1
1
1
1
1
1
1
1
1
1
1
1
1
1
1
1
1
1
1
1
1
1
1
1
1
1
1
1
1
1
1
1
1.28277
7.86376
11.6817
11.8149
11.9112
11.9556
11.9309
11.8968
11.8135
11.6744
11.5174
11.4371
11.4095
11.4093
11.4521
11.5541
11.6933
11.7837
11.7927
11.7435
11.6706
11.5519
11.4031
11.3014
11.2577
11.2334
11.2537
11.327
11.4597
11.5851
11.6151
1
1
1
1
1
1
1
1
1
1
1
1
1
1
1
1
1
1
1
1
1
1
1
1
1
1
1
1
1
1
1
1
1
1
1
1
1
1
1
1
1
1
1
1
1
1
1
1
1
1
1
1
1
1
1
1
1
1
1
1
1
1
1
1
1
1.29889
7.90042
11.6716
11.8074
11.9092
11.9552
11.9307
11.8962
11.8147
11.6791
11.5248
11.4405
11.4117
11.4108
11.4515
11.5515
11.6919
11.7853
11.796
11.7485
11.6761
11.555
11.4001
11.2946
11.2507
11.2269
11.2476
11.3211
11.4546
11.5859
11.6241
1
1
1
1
1
1
1
1
1
1
1
1
1
1
1
1
1
1
1
1
1
1
1
1
1
1
1
1
1
1
1
1
1
1
1
1
1
1
1
1
1
1
1
1
1
1
1
1
1
1
1
1
1
1
1
1
1
1
1
1
1
1
1
1
1
1.31844
7.9452
11.6619
11.7994
11.9066
11.955
11.9315
11.8963
11.8166
11.6841
11.5322
11.4449
11.4145
11.4124
11.4508
11.5484
11.6897
11.7865
11.7992
11.7543
11.6835
11.5614
11.4007
11.2893
11.2446
11.2204
11.2403
11.3126
11.4453
11.5833
11.6318
1
1
1
1
1
1
1
1
1
1
1
1
1
1
1
1
1
1
1
1
1
1
1
1
1
1
1
1
1
1
1
1
1
1
1
1
1
1
1
1
1
1
1
1
1
1
1
1
1
1
1
1
1
1
1
1
1
1
1
1
1
1
1
1
1
1.3419
7.99865
11.652
11.7897
11.9024
11.9549
11.9341
11.8976
11.82
11.6903
11.5398
11.4493
11.4171
11.4134
11.4495
11.5442
11.6861
11.7872
11.8025
11.7611
11.6932
11.5721
11.4064
11.2873
11.2406
11.2149
11.2322
11.3009
11.4307
11.5748
11.6351
1
1
1
1
1
1
1
1
1
1
1
1
1
1
1
1
1
1
1
1
1
1
1
1
1
1
1
1
1
1
1
1
1
1
1
1
1
1
1
1
1
1
1
1
1
1
1
1
1
1
1
1
1
1
1
1
1
1
1
1
1
1
1
1
1
1.36958
8.06071
11.6423
11.7779
11.8948
11.9547
11.9388
11.9014
11.8257
11.6985
11.5479
11.4533
11.419
11.4132
11.4466
11.5383
11.6808
11.7875
11.8063
11.7687
11.7049
11.5872
11.4176
11.2894
11.2392
11.2107
11.2235
11.286
11.4099
11.5587
11.6326
1
1
1
1
1
1
1
1
1
1
1
1
1
1
1
1
1
1
1
1
1
1
1
1
1
1
1
1
1
1
1
1
1
1
1
1
1
1
1
1
1
1
1
1
1
1
1
1
1
1
1
1
1
1
1
1
1
1
1
1
1
1
1
1
1
1.40165
8.13106
11.6335
11.7649
11.8839
11.9533
11.9452
11.908
11.834
11.7085
11.5566
11.4567
11.4202
11.4117
11.4423
11.5306
11.6738
11.7874
11.8107
11.7766
11.7176
11.6061
11.4351
11.2957
11.2401
11.2085
11.215
11.2687
11.3831
11.5336
11.624
1
1
1
1
1
1
1
1
1
1
1
1
1
1
1
1
1
1
1
1
1
1
1
1
1
1
1
1
1
1
1
1
1
1
1
1
1
1
1
1
1
1
1
1
1
1
1
1
1
1
1
1
1
1
1
1
1
1
1
1
1
1
1
1
1
1.43805
8.20891
11.6261
11.7518
11.8714
11.95
11.9523
11.9162
11.8445
11.7204
11.5665
11.4603
11.4211
11.4096
11.4372
11.5217
11.6649
11.7863
11.8149
11.7842
11.7303
11.6273
11.4596
11.3076
11.2437
11.209
11.2077
11.2509
11.352
11.4993
11.6077
1
1
1
1
1
1
1
1
1
1
1
1
1
1
1
1
1
1
1
1
1
1
1
1
1
1
1
1
1
1
1
1
1
1
1
1
1
1
1
1
1
1
1
1
1
1
1
1
1
1
1
1
1
1
1
1
1
1
1
1
1
1
1
1
1
1.47842
8.29292
11.6205
11.7391
11.8582
11.9446
11.9588
11.9242
11.8563
11.735
11.5789
11.465
11.4225
11.4076
11.4314
11.5112
11.653
11.7824
11.8185
11.7911
11.7421
11.6499
11.4916
11.328
11.2509
11.2136
11.2032
11.2349
11.3191
11.4568
11.5807
1
1
1
1
1
1
1
1
1
1
1
1
1
1
1
1
1
1
1
1
1
1
1
1
1
1
1
1
1
1
1
1
1
1
1
1
1
1
1
1
1
1
1
1
1
1
1
1
1
1
1
1
1
1
1
1
1
1
1
1
1
1
1
1
1
1.52206
8.38143
11.6169
11.7272
11.8455
11.9382
11.9635
11.9316
11.8683
11.752
11.5948
11.472
11.4249
11.4061
11.4252
11.4985
11.6366
11.7739
11.8204
11.7974
11.7531
11.673
11.5308
11.3603
11.2638
11.2233
11.2031
11.2225
11.2874
11.4081
11.5391
1
1
1
1
1
1
1
1
1
1
1
1
1
1
1
1
1
1
1
1
1
1
1
1
1
1
1
1
1
1
1
1
1
1
1
1
1
1
1
1
1
1
1
1
1
1
1
1
1
1
1
1
1
1
1
1
1
1
1
1
1
1
1
1
1
1.56816
8.47265
11.6147
11.7162
11.834
11.9318
11.9666
11.9386
11.88
11.7714
11.6155
11.4825
11.4281
11.4055
11.4187
11.4833
11.6146
11.7591
11.82
11.8034
11.764
11.6959
11.5751
11.4076
11.2862
11.2382
11.2091
11.2145
11.2591
11.3563
11.4827
1
1
1
1
1
1
1
1
1
1
1
1
1
1
1
1
1
1
1
1
1
1
1
1
1
1
1
1
1
1
1
1
1
1
1
1
1
1
1
1
1
1
1
1
1
1
1
1
1
1
1
1
1
1
1
1
1
1
1
1
1
1
1
1
1
1.61607
8.56518
11.613
11.7056
11.8234
11.9258
11.9692
11.9457
11.8916
11.7925
11.6417
11.4979
11.432
11.4064
11.412
11.4656
11.5864
11.7369
11.8165
11.8104
11.7755