/*--------------------------------*- C++ -*----------------------------------*\
  =========                 |
  \\      /  F ield         | OpenFOAM: The Open Source CFD Toolbox
   \\    /   O peration     | Website:  https://openfoam.org
    \\  /    A nd           | Version:  7
     \\/     M anipulation  |
\*---------------------------------------------------------------------------*/
FoamFile
{
    version     2.0;
    format      ascii;
    class       volScalarField;
    location    "3.8";
    object      rho;
}
// * * * * * * * * * * * * * * * * * * * * * * * * * * * * * * * * * * * * * //

dimensions      [1 -3 0 0 0 0 0];

internalField   nonuniform List<scalar> 
73728
(
1.40001
1.40001
1.40001
1.40001
1.40001
1.40001
1.40001
1.40001
1.40001
1.40001
1.40001
1.40001
1.40001
1.40001
1.40001
1.40001
1.40001
1.40001
1.40001
1.40001
1.40001
1.40001
1.40001
1.40001
1.40001
1.40001
1.40001
1.40001
1.40001
1.40001
1.40001
1.40001
1.40001
1.40001
1.40001
1.40001
1.40001
1.40001
1.40001
1.40001
1.40001
1.40001
1.40001
1.40001
1.40001
1.40001
1.40001
1.40001
1.40001
1.40001
1.40001
1.40001
1.40001
1.40001
1.40001
1.40001
1.40001
1.40001
1.40001
1.40001
1.40001
1.40001
1.40001
1.40001
2.79695
5.39129
5.66758
5.61842
5.5729
5.54458
5.54852
5.56754
5.59302
5.62935
5.66875
5.69303
5.71143
5.72383
5.72769
5.7219
5.70719
5.68173
5.65205
5.63607
5.63587
5.6547
5.68295
5.71675
5.75057
5.7874
5.82082
5.84559
5.85693
5.85304
5.82454
5.7559
1.40001
1.40001
1.40001
1.40001
1.40001
1.40001
1.40001
1.40001
1.40001
1.40001
1.40001
1.40001
1.40001
1.40001
1.40001
1.40001
1.40001
1.40001
1.40001
1.40001
1.40001
1.40001
1.40001
1.40001
1.40001
1.40001
1.40001
1.40001
1.40001
1.40001
1.40001
1.40001
1.40001
1.40001
1.40001
1.40001
1.40001
1.40001
1.40001
1.40001
1.40001
1.40001
1.40001
1.40001
1.40001
1.40001
1.40001
1.40001
1.40001
1.40001
1.40001
1.40001
1.40001
1.40001
1.40001
1.40001
1.40001
1.40001
1.40001
1.40001
1.40001
1.40001
1.40001
1.40001
2.78952
5.38713
5.66596
5.61652
5.57091
5.54379
5.54924
5.56849
5.5943
5.63074
5.66957
5.69333
5.71158
5.72368
5.72708
5.72088
5.70566
5.67969
5.64994
5.63432
5.63475
5.65429
5.68263
5.71691
5.75032
5.78468
5.81532
5.83886
5.85051
5.84093
5.81558
5.76027
1.40001
1.40001
1.40001
1.40001
1.40001
1.40001
1.40001
1.40001
1.40001
1.40001
1.40001
1.40001
1.40001
1.40001
1.40001
1.40001
1.40001
1.40001
1.40001
1.40001
1.40001
1.40001
1.40001
1.40001
1.40001
1.40001
1.40001
1.40001
1.40001
1.40001
1.40001
1.40001
1.40001
1.40001
1.40001
1.40001
1.40001
1.40001
1.40001
1.40001
1.40001
1.40001
1.40001
1.40001
1.40001
1.40001
1.40001
1.40001
1.40001
1.40001
1.40001
1.40001
1.40001
1.40001
1.40001
1.40001
1.40001
1.40001
1.40001
1.40001
1.40001
1.40001
1.40001
1.40001
2.77364
5.38271
5.66491
5.61365
5.5678
5.54249
5.54974
5.56949
5.59594
5.63277
5.67077
5.69367
5.71166
5.7233
5.72606
5.71926
5.70319
5.67633
5.64644
5.6314
5.63286
5.65327
5.68169
5.7161
5.74874
5.77979
5.80677
5.82765
5.83837
5.82829
5.80576
5.74956
1.40001
1.40001
1.40001
1.40001
1.40001
1.40001
1.40001
1.40001
1.40001
1.40001
1.40001
1.40001
1.40001
1.40001
1.40001
1.40001
1.40001
1.40001
1.40001
1.40001
1.40001
1.40001
1.40001
1.40001
1.40001
1.40001
1.40001
1.40001
1.40001
1.40001
1.40001
1.40001
1.40001
1.40001
1.40001
1.40001
1.40001
1.40001
1.40001
1.40001
1.40001
1.40001
1.40001
1.40001
1.40001
1.40001
1.40001
1.40001
1.40001
1.40001
1.40001
1.40001
1.40001
1.40001
1.40001
1.40001
1.40001
1.40001
1.40001
1.40001
1.40001
1.40001
1.40001
1.40001
2.75091
5.37705
5.66328
5.60949
5.5635
5.54099
5.55033
5.57073
5.59824
5.63592
5.67273
5.69431
5.71171
5.72252
5.72437
5.71677
5.69951
5.67134
5.64122
5.62721
5.63024
5.65179
5.68099
5.71495
5.74628
5.77367
5.79647
5.81293
5.82132
5.81188
5.78886
5.73781
1.40001
1.40001
1.40001
1.40001
1.40001
1.40001
1.40001
1.40001
1.40001
1.40001
1.40001
1.40001
1.40001
1.40001
1.40001
1.40001
1.40001
1.40001
1.40001
1.40001
1.40001
1.40001
1.40001
1.40001
1.40001
1.40001
1.40001
1.40001
1.40001
1.40001
1.40001
1.40001
1.40001
1.40001
1.40001
1.40001
1.40001
1.40001
1.40001
1.40001
1.40001
1.40001
1.40001
1.40001
1.40001
1.40001
1.40001
1.40001
1.40001
1.40001
1.40001
1.40001
1.40001
1.40001
1.40001
1.40001
1.40001
1.40001
1.40001
1.40001
1.40001
1.40001
1.40001
1.40001
2.72111
5.3686
5.66075
5.60405
5.55834
5.53953
5.55106
5.57232
5.60145
5.6403
5.67531
5.69515
5.71153
5.72128
5.72213
5.71364
5.69491
5.66496
5.63451
5.62173
5.62717
5.65002
5.68036
5.71401
5.74372
5.76711
5.78517
5.79646
5.80123
5.79266
5.76804
5.71948
1.40001
1.40001
1.40001
1.40001
1.40001
1.40001
1.40001
1.40001
1.40001
1.40001
1.40001
1.40001
1.40001
1.40001
1.40001
1.40001
1.40001
1.40001
1.40001
1.40001
1.40001
1.40001
1.40001
1.40001
1.40001
1.40001
1.40001
1.40001
1.40001
1.40001
1.40001
1.40001
1.40001
1.40001
1.40001
1.40001
1.40001
1.40001
1.40001
1.40001
1.40001
1.40001
1.40001
1.40001
1.40001
1.40001
1.40001
1.40001
1.40001
1.40001
1.40001
1.40001
1.40001
1.40001
1.40001
1.40001
1.40001
1.40001
1.40001
1.40001
1.40001
1.40001
1.40001
1.40001
2.68427
5.35697
5.65653
5.5969
5.55251
5.53839
5.5522
5.57478
5.60623
5.64603
5.67819
5.69595
5.71084
5.7194
5.71933
5.70992
5.68949
5.65741
5.62665
5.61546
5.62372
5.64773
5.67957
5.7136
5.74192
5.76147
5.77425
5.78031
5.78066
5.77107
5.74354
5.69599
1.40001
1.40001
1.40001
1.40001
1.40001
1.40001
1.40001
1.40001
1.40001
1.40001
1.40001
1.40001
1.40001
1.40001
1.40001
1.40001
1.40001
1.40001
1.40001
1.40001
1.40001
1.40001
1.40001
1.40001
1.40001
1.40001
1.40001
1.40001
1.40001
1.40001
1.40001
1.40001
1.40001
1.40001
1.40001
1.40001
1.40001
1.40001
1.40001
1.40001
1.40001
1.40001
1.40001
1.40001
1.40001
1.40001
1.40001
1.40001
1.40001
1.40001
1.40001
1.40001
1.40001
1.40001
1.40001
1.40001
1.40001
1.40001
1.40001
1.40001
1.40001
1.40001
1.40001
1.40001
2.6408
5.3418
5.65049
5.58816
5.54649
5.53781
5.55382
5.5784
5.61279
5.65274
5.68093
5.69644
5.70953
5.71679
5.71594
5.70557
5.68322
5.64889
5.61816
5.60916
5.61977
5.64461
5.67822
5.71339
5.74076
5.7572
5.76523
5.7666
5.76221
5.749
5.71804
5.67075
1.40001
1.40001
1.40001
1.40001
1.40001
1.40001
1.40001
1.40001
1.40001
1.40001
1.40001
1.40001
1.40001
1.40001
1.40001
1.40001
1.40001
1.40001
1.40001
1.40001
1.40001
1.40001
1.40001
1.40001
1.40001
1.40001
1.40001
1.40001
1.40001
1.40001
1.40001
1.40001
1.40001
1.40001
1.40001
1.40001
1.40001
1.40001
1.40001
1.40001
1.40001
1.40001
1.40001
1.40001
1.40001
1.40001
1.40001
1.40001
1.40001
1.40001
1.40001
1.40001
1.40001
1.40001
1.40001
1.40001
1.40001
1.40001
1.40001
1.40001
1.40001
1.40001
1.40001
1.40001
2.59098
5.32286
5.64258
5.57825
5.54084
5.53794
5.55595
5.58352
5.6211
5.66003
5.68342
5.69661
5.7075
5.71327
5.7117
5.70029
5.67591
5.63961
5.60976
5.60358
5.61549
5.64073
5.67622
5.71287
5.73952
5.75354
5.75858
5.75645
5.74761
5.72969
5.69483
5.64788
1.40001
1.40001
1.40001
1.40001
1.40001
1.40001
1.40001
1.40001
1.40001
1.40001
1.40001
1.40001
1.40001
1.40001
1.40001
1.40001
1.40001
1.40001
1.40001
1.40001
1.40001
1.40001
1.40001
1.40001
1.40001
1.40001
1.40001
1.40001
1.40001
1.40001
1.40001
1.40001
1.40001
1.40001
1.40001
1.40001
1.40001
1.40001
1.40001
1.40001
1.40001
1.40001
1.40001
1.40001
1.40001
1.40001
1.40001
1.40001
1.40001
1.40001
1.40001
1.40001
1.40001
1.40001
1.40001
1.40001
1.40001
1.40001
1.40001
1.40001
1.40001
1.40001
1.40001
1.40001
2.53486
5.29964
5.63283
5.56803
5.53638
5.53878
5.55887
5.59
5.63091
5.66734
5.68575
5.69658
5.70486
5.70882
5.70634
5.69361
5.66714
5.6298
5.60224
5.59921
5.61136
5.6364
5.67357
5.7114
5.73717
5.74956
5.75299
5.74885
5.7371
5.71465
5.67609
5.63
1.40001
1.40001
1.40001
1.40001
1.40001
1.40001
1.40001
1.40001
1.40001
1.40001
1.40001
1.40001
1.40001
1.40001
1.40001
1.40001
1.40001
1.40001
1.40001
1.40001
1.40001
1.40001
1.40001
1.40001
1.40001
1.40001
1.40001
1.40001
1.40001
1.40001
1.40001
1.40001
1.40001
1.40001
1.40001
1.40001
1.40001
1.40001
1.40001
1.40001
1.40001
1.40001
1.40001
1.40001
1.40001
1.40001
1.40001
1.40001
1.40001
1.40001
1.40001
1.40001
1.40001
1.40001
1.40001
1.40001
1.40001
1.40001
1.40001
1.40001
1.40001
1.40001
1.40001
1.40001
2.4725
5.27145
5.62138
5.55821
5.53383
5.54032
5.5626
5.59821
5.64191
5.67407
5.68803
5.6965
5.70181
5.70345
5.69948
5.68486
5.65637
5.61965
5.59637
5.59639
5.60831
5.63309
5.67093
5.70858
5.73279
5.74416
5.74703
5.74221
5.72886
5.70293
5.66146
5.61799
1.40001
1.40001
1.40001
1.40001
1.40001
1.40001
1.40001
1.40001
1.40001
1.40001
1.40001
1.40001
1.40001
1.40001
1.40001
1.40001
1.40001
1.40001
1.40001
1.40001
1.40001
1.40001
1.40001
1.40001
1.40001
1.40001
1.40001
1.40001
1.40001
1.40001
1.40001
1.40001
1.40001
1.40001
1.40001
1.40001
1.40001
1.40001
1.40001
1.40001
1.40001
1.40001
1.40001
1.40001
1.40001
1.40001
1.40001
1.40001
1.40001
1.40001
1.40001
1.40001
1.40001
1.40001
1.40001
1.40001
1.40001
1.40001
1.40001
1.40001
1.40001
1.40001
1.40001
1.40001
2.404
5.23739
5.60862
5.54972
5.53311
5.54243
5.56762
5.60862
5.65331
5.67971
5.69031
5.69641
5.69857
5.69742
5.69077
5.67354
5.6432
5.60934
5.59252
5.59508
5.60695
5.63192
5.66954
5.7047
5.72605
5.7362
5.73892
5.7345
5.72049
5.69203
5.64868
5.61038
1.40001
1.40001
1.40001
1.40001
1.40001
1.40001
1.40001
1.40001
1.40001
1.40001
1.40001
1.40001
1.40001
1.40001
1.40001
1.40001
1.40001
1.40001
1.40001
1.40001
1.40001
1.40001
1.40001
1.40001
1.40001
1.40001
1.40001
1.40001
1.40001
1.40001
1.40001
1.40001
1.40001
1.40001
1.40001
1.40001
1.40001
1.40001
1.40001
1.40001
1.40001
1.40001
1.40001
1.40001
1.40001
1.40001
1.40001
1.40001
1.40001
1.40001
1.40001
1.40001
1.40001
1.40001
1.40001
1.40001
1.40001
1.40001
1.40001
1.40001
1.40001
1.40001
1.40001
1.40001
2.32931
5.1966
5.59539
5.54335
5.53387
5.54528
5.57483
5.62135
5.6638
5.68402
5.69238
5.69635
5.6953
5.69068
5.68022
5.65942
5.6276
5.59928
5.59026
5.59501
5.60803
5.63372
5.67027
5.70101
5.71788
5.7258
5.72788
5.72375
5.7092
5.67878
5.63533
5.60465
1.40001
1.40001
1.40001
1.40001
1.40001
1.40001
1.40001
1.40001
1.40001
1.40001
1.40001
1.40001
1.40001
1.40001
1.40001
1.40001
1.40001
1.40001
1.40001
1.40001
1.40001
1.40001
1.40001
1.40001
1.40001
1.40001
1.40001
1.40001
1.40001
1.40001
1.40001
1.40001
1.40001
1.40001
1.40001
1.40001
1.40001
1.40001
1.40001
1.40001
1.40001
1.40001
1.40001
1.40001
1.40001
1.40001
1.40001
1.40001
1.40001
1.40001
1.40001
1.40001
1.40001
1.40001
1.40001
1.40001
1.40001
1.40001
1.40001
1.40001
1.40001
1.40001
1.40001
1.40001
2.24941
5.14815
5.58265
5.53945
5.53566
5.54956
5.58544
5.63577
5.67197
5.68698
5.69404
5.69589
5.692
5.68339
5.66817
5.64262
5.61048
5.58993
5.58833
5.59595
5.61177
5.63905
5.6739
5.69875
5.71015
5.71481
5.71493
5.70948
5.69311
5.66004
5.61924
5.59793
1.40001
1.40001
1.40001
1.40001
1.40001
1.40001
1.40001
1.40001
1.40001
1.40001
1.40001
1.40001
1.40001
1.40001
1.40001
1.40001
1.40001
1.40001
1.40001
1.40001
1.40001
1.40001
1.40001
1.40001
1.40001
1.40001
1.40001
1.40001
1.40001
1.40001
1.40001
1.40001
1.40001
1.40001
1.40001
1.40001
1.40001
1.40001
1.40001
1.40001
1.40001
1.40001
1.40001
1.40001
1.40001
1.40001
1.40001
1.40001
1.40001
1.40001
1.40001
1.40001
1.40001
1.40001
1.40001
1.40001
1.40001
1.40001
1.40001
1.40001
1.40001
1.40001
1.40001
1.40001
2.16469
5.09114
5.57168
5.53778
5.53777
5.55693
5.60019
5.65016
5.67717
5.68854
5.69491
5.6948
5.68834
5.67567
5.65497
5.62391
5.59364
5.58176
5.58587
5.5974
5.61721
5.64713
5.67979
5.69828
5.70448
5.70555
5.70251
5.69375
5.67367
5.6365
5.60048
5.58746
1.40001
1.40001
1.40001
1.40001
1.40001
1.40001
1.40001
1.40001
1.40001
1.40001
1.40001
1.40001
1.40001
1.40001
1.40001
1.40001
1.40001
1.40001
1.40001
1.40001
1.40001
1.40001
1.40001
1.40001
1.40001
1.40001
1.40001
1.40001
1.40001
1.40001
1.40001
1.40001
1.40001
1.40001
1.40001
1.40001
1.40001
1.40001
1.40001
1.40001
1.40001
1.40001
1.40001
1.40001
1.40001
1.40001
1.40001
1.40001
1.40001
1.40001
1.40001
1.40001
1.40001
1.40001
1.40001
1.40001
1.40001
1.40001
1.40001
1.40001
1.40001
1.40001
1.40001
1.40001
2.07639
5.02459
5.56362
5.5367
5.54148
5.5691
5.61844
5.66235
5.67983
5.6888
5.69428
5.6926
5.68393
5.6674
5.64095
5.60504
5.57904
5.57523
5.58305
5.59855
5.62334
5.65656
5.68619
5.69873
5.70134
5.69916
5.69224
5.67921
5.65385
5.61211
5.58188
5.57367
1.40001
1.40001
1.40001
1.40001
1.40001
1.40001
1.40001
1.40001
1.40001
1.40001
1.40001
1.40001
1.40001
1.40001
1.40001
1.40001
1.40001
1.40001
1.40001
1.40001
1.40001
1.40001
1.40001
1.40001
1.40001
1.40001
1.40001
1.40001
1.40001
1.40001
1.40001
1.40001
1.40001
1.40001
1.40001
1.40001
1.40001
1.40001
1.40001
1.40001
1.40001
1.40001
1.40001
1.40001
1.40001
1.40001
1.40001
1.40001
1.40001
1.40001
1.40001
1.40001
1.40001
1.40001
1.40001
1.40001
1.40001
1.40001
1.40001
1.40001
1.40001
1.40001
1.40001
1.40001
1.98631
4.94821
5.5579
5.53616
5.54861
5.58675
5.63799
5.67102
5.68093
5.68774
5.69162
5.68863
5.67815
5.65792
5.62609
5.58826
5.56902
5.57044
5.58055
5.5995
5.62966
5.66557
5.6909
5.69942
5.69987
5.69523
5.68495
5.66703
5.63538
5.59083
5.56705
5.56089
1.40001
1.40001
1.40001
1.40001
1.40001
1.40001
1.40001
1.40001
1.40001
1.40001
1.40001
1.40001
1.40001
1.40001
1.40001
1.40001
1.40001
1.40001
1.40001
1.40001
1.40001
1.40001
1.40001
1.40001
1.40001
1.40001
1.40001
1.40001
1.40001
1.40001
1.40001
1.40001
1.40001
1.40001
1.40001
1.40001
1.40001
1.40001
1.40001
1.40001
1.40001
1.40001
1.40001
1.40001
1.40001
1.40001
1.40001
1.40001
1.40001
1.40001
1.40001
1.40001
1.40001
1.40001
1.40001
1.40001
1.40001
1.40001
1.40001
1.40001
1.40001
1.40001
1.40001
1.40001
1.89617
4.86229
5.55326
5.53774
5.5612
5.60862
5.65584
5.67646
5.68133
5.68552
5.68682
5.68237
5.66995
5.64622
5.61047
5.57537
5.56447
5.56789
5.57913
5.60143
5.63636
5.67232
5.69246
5.69884
5.69855
5.69257
5.67967
5.65666
5.61829
5.57495
5.55773
5.55274
1.40001
1.40001
1.40001
1.40001
1.40001
1.40001
1.40001
1.40001
1.40001
1.40001
1.40001
1.40001
1.40001
1.40001
1.40001
1.40001
1.40001
1.40001
1.40001
1.40001
1.40001
1.40001
1.40001
1.40001
1.40001
1.40001
1.40001
1.40001
1.40001
1.40001
1.40001
1.40001
1.40001
1.40001
1.40001
1.40001
1.40001
1.40001
1.40001
1.40001
1.40001
1.40001
1.40001
1.40001
1.40001
1.40001
1.40001
1.40001
1.40001
1.40001
1.40001
1.40001
1.40001
1.40001
1.40001
1.40001
1.40001
1.40001
1.40001
1.40001
1.40001
1.40001
1.40001
1.40001
1.80788
4.76603
5.54939
5.54434
5.57978
5.6314
5.66958
5.68003
5.68149
5.68252
5.6801
5.67315
5.65832
5.63144
5.59483
5.56776
5.56378
5.56771
5.58049
5.60646
5.64411
5.67575
5.69031
5.69526
5.69505
5.68854
5.67321
5.6445
5.60178
5.56536
5.55332
5.54917
1.40001
1.40001
1.40001
1.40001
1.40001
1.40001
1.40001
1.40001
1.40001
1.40001
1.40001
1.40001
1.40001
1.40001
1.40001
1.40001
1.40001
1.40001
1.40001
1.40001
1.40001
1.40001
1.40001
1.40001
1.40001
1.40001
1.40001
1.40001
1.40001
1.40001
1.40001
1.40001
1.40001
1.40001
1.40001
1.40001
1.40001
1.40001
1.40001
1.40001
1.40001
1.40001
1.40001
1.40001
1.40001
1.40001
1.40001
1.40001
1.40001
1.40001
1.40001
1.40001
1.40001
1.40001
1.40001
1.40001
1.40001
1.40001
1.40001
1.40001
1.40001
1.40001
1.40001
1.40001
1.72364
4.65983
5.54696
5.55792
5.60224
5.65142
5.6783
5.683
5.68196
5.67847
5.67127
5.66131
5.64329
5.61342
5.58079
5.56521
5.56517
5.57074
5.58665
5.61636
5.65307
5.67633
5.68517
5.68868
5.68813
5.6807
5.66237
5.62912
5.58653
5.56078
5.55216
5.54891
1.40001
1.40001
1.40001
1.40001
1.40001
1.40001
1.40001
1.40001
1.40001
1.40001
1.40001
1.40001
1.40001
1.40001
1.40001
1.40001
1.40001
1.40001
1.40001
1.40001
1.40001
1.40001
1.40001
1.40001
1.40001
1.40001
1.40001
1.40001
1.40001
1.40001
1.40001
1.40001
1.40001
1.40001
1.40001
1.40001
1.40001
1.40001
1.40001
1.40001
1.40001
1.40001
1.40001
1.40001
1.40001
1.40001
1.40001
1.40001
1.40001
1.40001
1.40001
1.40001
1.40001
1.40001
1.40001
1.40001
1.40001
1.40001
1.40001
1.40001
1.40001
1.40001
1.40001
1.40001
1.64508
4.54675
5.54812
5.57677
5.62425
5.66657
5.68294
5.68559
5.68182
5.67294
5.66163
5.64795
5.62516
5.59326
5.56955
5.56495
5.56799
5.57763
5.5982
5.63118
5.66262
5.67589
5.67954
5.68071
5.67842
5.66875
5.647
5.6094
5.57298
5.55762
5.552
5.55084
1.40001
1.40001
1.40001
1.40001
1.40001
1.40001
1.40001
1.40001
1.40001
1.40001
1.40001
1.40001
1.40001
1.40001
1.40001
1.40001
1.40001
1.40001
1.40001
1.40001
1.40001
1.40001
1.40001
1.40001
1.40001
1.40001
1.40001
1.40001
1.40001
1.40001
1.40001
1.40001
1.40001
1.40001
1.40001
1.40001
1.40001
1.40001
1.40001
1.40001
1.40001
1.40001
1.40001
1.40001
1.40001
1.40001
1.40001
1.40001
1.40001
1.40001
1.40001
1.40001
1.40001
1.40001
1.40001
1.40001
1.40001
1.40001
1.40001
1.40001
1.40001
1.40001
1.40001
1.40001
1.57318
4.42933
5.55368
5.59875
5.64309
5.67629
5.68528
5.68677
5.67964
5.6664
5.65197
5.63351
5.60472
5.57456
5.56253
5.56448
5.57186
5.58742
5.61431
5.6489
5.67117
5.67606
5.67576
5.67329
5.66717
5.65335
5.62603
5.58569
5.56114
5.55287
5.55027
5.55268
1.40001
1.40001
1.40001
1.40001
1.40001
1.40001
1.40001
1.40001
1.40001
1.40001
1.40001
1.40001
1.40001
1.40001
1.40001
1.40001
1.40001
1.40001
1.40001
1.40001
1.40001
1.40001
1.40001
1.40001
1.40001
1.40001
1.40001
1.40001
1.40001
1.40001
1.40001
1.40001
1.40001
1.40001
1.40001
1.40001
1.40001
1.40001
1.40001
1.40001
1.40001
1.40001
1.40001
1.40001
1.40001
1.40001
1.40001
1.40001
1.40001
1.40001
1.40001
1.40001
1.40001
1.40001
1.40001
1.40001
1.40001
1.40001
1.40001
1.40001
1.40001
1.40001
1.40001
1.40001
1.50871
4.31066
5.56293
5.62025
5.65768
5.68133
5.68615
5.68531
5.67435
5.65903
5.6422
5.618
5.58434
5.56167
5.55887
5.56384
5.57625
5.59932
5.63315
5.66532
5.67748
5.67741
5.6739
5.66734
5.65596
5.63571
5.60072
5.56355
5.55024
5.5458
5.5463
5.55315
1.40001
1.40001
1.40001
1.40001
1.40001
1.40001
1.40001
1.40001
1.40001
1.40001
1.40001
1.40001
1.40001
1.40001
1.40001
1.40001
1.40001
1.40001
1.40001
1.40001
1.40001
1.40001
1.40001
1.40001
1.40001
1.40001
1.40001
1.40001
1.40001
1.40001
1.40001
1.40001
1.40001
1.40001
1.40001
1.40001
1.40001
1.40001
1.40001
1.40001
1.40001
1.40001
1.40001
1.40001
1.40001
1.40001
1.40001
1.40001
1.40001
1.40001
1.40001
1.40001
1.40001
1.40001
1.40001
1.40001
1.40001
1.40001
1.40001
1.40001
1.40001
1.40001
1.40001
1.40001
1.45269
4.19422
5.57239
5.63744
5.66847
5.68393
5.68442
5.67979
5.66611
5.65045
5.63119
5.60123
5.56823
5.5559
5.55675
5.56407
5.58211
5.61364
5.65154
5.67591
5.68106
5.67888
5.67279
5.66243
5.64549
5.61717
5.57611
5.54864
5.54108
5.53875
5.54225
5.55306
1.40001
1.40001
1.40001
1.40001
1.40001
1.40001
1.40001
1.40001
1.40001
1.40001
1.40001
1.40001
1.40001
1.40001
1.40001
1.40001
1.40001
1.40001
1.40001
1.40001
1.40001
1.40001
1.40001
1.40001
1.40001
1.40001
1.40001
1.40001
1.40001
1.40001
1.40001
1.40001
1.40001
1.40001
1.40001
1.40001
1.40001
1.40001
1.40001
1.40001
1.40001
1.40001
1.40001
1.40001
1.40001
1.40001
1.40001
1.40001
1.40001
1.40001
1.40001
1.40001
1.40001
1.40001
1.40001
1.40001
1.40001
1.40001
1.40001
1.40001
1.40001
1.40001
1.40001
1.40001
1.41099
4.08004
5.57596
5.64932
5.67604
5.68582
5.68083
5.67105
5.65541
5.63974
5.61714
5.58405
5.55991
5.55503
5.55665
5.56724
5.59217
5.63068
5.66557
5.67992
5.68187
5.67858
5.67048
5.6568
5.63452
5.59813
5.55811
5.54174
5.53598
5.53469
5.54037
5.55464
1.40001
1.40001
1.40001
1.40001
1.40001
1.40001
1.40001
1.40001
1.40001
1.40001
1.40001
1.40001
1.40001
1.40001
1.40001
1.40001
1.40001
1.40001
1.40001
1.40001
1.40001
1.40001
1.40001
1.40001
1.40001
1.40001
1.40001
1.40001
1.40001
1.40001
1.40001
1.40001
1.40001
1.40001
1.40001
1.40001
1.40001
1.40001
1.40001
1.40001
1.40001
1.40001
1.40001
1.40001
1.40001
1.40001
1.40001
1.40001
1.40001
1.40001
1.40001
1.40001
1.40001
1.40001
1.40001
1.40001
1.40001
1.40001
1.40001
1.40001
1.40001
1.40001
1.40001
1.40001
1.40003
3.94975
5.56922
5.6596
5.68162
5.68616
5.6746
5.65988
5.64306
5.62576
5.59893
5.5696
5.55834
5.55649
5.56044
5.57667
5.60909
5.64895
5.67299
5.67948
5.67969
5.67535
5.6657
5.64926
5.62037
5.57908
5.5499
5.53986
5.53488
5.53462
5.54307
5.56096
1.40001
1.40001
1.40001
1.40001
1.40001
1.40001
1.40001
1.40001
1.40001
1.40001
1.40001
1.40001
1.40001
1.40001
1.40001
1.40001
1.40001
1.40001
1.40001
1.40001
1.40001
1.40001
1.40001
1.40001
1.40001
1.40001
1.40001
1.40001
1.40001
1.40001
1.40001
1.40001
1.40001
1.40001
1.40001
1.40001
1.40001
1.40001
1.40001
1.40001
1.40001
1.40001
1.40001
1.40001
1.40001
1.40001
1.40001
1.40001
1.40001
1.40001
1.40001
1.40001
1.40001
1.40001
1.40001
1.40001
1.40001
1.40001
1.40001
1.40001
1.40001
1.40001
1.40001
1.40001
1.40001
3.81287
5.55719
5.67073
5.6855
5.68453
5.66626
5.64819
5.62942
5.60765
5.57893
5.56166
5.55946
5.56045
5.56988
5.59432
5.63268
5.66503
5.67534
5.67661
5.67474
5.66894
5.65765
5.63651
5.60087
5.56308
5.54745
5.54054
5.53692
5.53921
5.55234
5.57324
1.40001
1.40001
1.40001
1.40001
1.40001
1.40001
1.40001
1.40001
1.40001
1.40001
1.40001
1.40001
1.40001
1.40001
1.40001
1.40001
1.40001
1.40001
1.40001
1.40001
1.40001
1.40001
1.40001
1.40001
1.40001
1.40001
1.40001
1.40001
1.40001
1.40001
1.40001
1.40001
1.40001
1.40001
1.40001
1.40001
1.40001
1.40001
1.40001
1.40001
1.40001
1.40001
1.40001
1.40001
1.40001
1.40001
1.40001
1.40001
1.40001
1.40001
1.40001
1.40001
1.40001
1.40001
1.40001
1.40001
1.40001
1.40001
1.40001
1.40001
1.40001
1.40001
1.40001
1.40001
1.40001
3.67697
5.5474
5.67919
5.68718
5.68008
5.65757
5.63702
5.61418
5.5866
5.56353
5.55929
5.56043
5.56668
5.58501
5.61947
5.65789
5.67549
5.67622
5.67329
5.6682
5.65975
5.6445
5.61627
5.57729
5.55368
5.54576
5.54157
5.54105
5.54823
5.56697
5.58899
1.40001
1.40001
1.40001
1.40001
1.40001
1.40001
1.40001
1.40001
1.40001
1.40001
1.40001
1.40001
1.40001
1.40001
1.40001
1.40001
1.40001
1.40001
1.40001
1.40001
1.40001
1.40001
1.40001
1.40001
1.40001
1.40001
1.40001
1.40001
1.40001
1.40001
1.40001
1.40001
1.40001
1.40001
1.40001
1.40001
1.40001
1.40001
1.40001
1.40001
1.40001
1.40001
1.40001
1.40001
1.40001
1.40001
1.40001
1.40001
1.40001
1.40001
1.40001
1.40001
1.40001
1.40001
1.40001
1.40001
1.40001
1.40001
1.40001
1.40001
1.40001
1.40001
1.40001
1.40001
1.40001
3.54292
5.54168
5.68047
5.68378
5.67315
5.64955
5.62539
5.59689
5.56823
5.55716
5.55794
5.56204
5.576
5.606
5.64785
5.67631
5.6808
5.67696
5.67053
5.66181
5.64867
5.62604
5.58992
5.55698
5.54675
5.54251
5.54143
5.54583
5.56016
5.58384
5.60341
1.40001
1.40001
1.40001
1.40001
1.40001
1.40001
1.40001
1.40001
1.40001
1.40001
1.40001
1.40001
1.40001
1.40001
1.40001
1.40001
1.40001
1.40001
1.40001
1.40001
1.40001
1.40001
1.40001
1.40001
1.40001
1.40001
1.40001
1.40001
1.40001
1.40001
1.40001
1.40001
1.40001
1.40001
1.40001
1.40001
1.40001
1.40001
1.40001
1.40001
1.40001
1.40001
1.40001
1.40001
1.40001
1.40001
1.40001
1.40001
1.40001
1.40001
1.40001
1.40001
1.40001
1.40001
1.40001
1.40001
1.40001
1.40001
1.40001
1.40001
1.40001
1.40001
1.40001
1.40001
1.40001
3.41192
5.5341
5.67974
5.67566
5.66546
5.64061
5.61126
5.57919
5.55894
5.55602
5.55761
5.56656
5.59093
5.63189
5.67104
5.68466
5.6832
5.6773
5.66844
5.65595
5.6361
5.60386
5.56447
5.54489
5.53956
5.53789
5.54074
5.55193
5.57394
5.59913
5.61241
1.40001
1.40001
1.40001
1.40001
1.40001
1.40001
1.40001
1.40001
1.40001
1.40001
1.40001
1.40001
1.40001
1.40001
1.40001
1.40001
1.40001
1.40001
1.40001
1.40001
1.40001
1.40001
1.40001
1.40001
1.40001
1.40001
1.40001
1.40001
1.40001
1.40001
1.40001
1.40001
1.40001
1.40001
1.40001
1.40001
1.40001
1.40001
1.40001
1.40001
1.40001
1.40001
1.40001
1.40001
1.40001
1.40001
1.40001
1.40001
1.40001
1.40001
1.40001
1.40001
1.40001
1.40001
1.40001
1.40001
1.40001
1.40001
1.40001
1.40001
1.40001
1.40001
1.40001
1.40001
1.40001
3.28391
5.52075
5.67677
5.66772
5.65682
5.62794
5.59369
5.56601
5.5581
5.55712
5.56146
5.57797
5.6132
5.65745
5.68277
5.68668
5.68368
5.67664
5.66578
5.64885
5.62073
5.58087
5.54862
5.53834
5.53397
5.53443
5.54192
5.5608
5.58844
5.60899
5.61519
1.40001
1.40001
1.40001
1.40001
1.40001
1.40001
1.40001
1.40001
1.40001
1.40001
1.40001
1.40001
1.40001
1.40001
1.40001
1.40001
1.40001
1.40001
1.40001
1.40001
1.40001
1.40001
1.40001
1.40001
1.40001
1.40001
1.40001
1.40001
1.40001
1.40001
1.40001
1.40001
1.40001
1.40001
1.40001
1.40001
1.40001
1.40001
1.40001
1.40001
1.40001
1.40001
1.40001
1.40001
1.40001
1.40001
1.40001
1.40001
1.40001
1.40001
1.40001
1.40001
1.40001
1.40001
1.40001
1.40001
1.40001
1.40001
1.40001
1.40001
1.40001
1.40001
1.40001
1.40001
1.40001
3.1587
5.50117
5.67494
5.66014
5.64506
5.60992
5.5756
5.56115
5.56003
5.56211
5.57228
5.59852
5.6405
5.67522
5.68558
5.68572
5.68171
5.67356
5.66021
5.63748
5.60124
5.56208
5.54328
5.53534
5.53189
5.5348
5.54824
5.57416
5.60119
5.61278
5.6119
1.40001
1.40001
1.40001
1.40001
1.40001
1.40001
1.40001
1.40001
1.40001
1.40001
1.40001
1.40001
1.40001
1.40001
1.40001
1.40001
1.40001
1.40001
1.40001
1.40001
1.40001
1.40001
1.40001
1.40001
1.40001
1.40001
1.40001
1.40001
1.40001
1.40001
1.40001
1.40001
1.40001
1.40001
1.40001
1.40001
1.40001
1.40001
1.40001
1.40001
1.40001
1.40001
1.40001
1.40001
1.40001
1.40001
1.40001
1.40001
1.40001
1.40001
1.40001
1.40001
1.40001
1.40001
1.40001
1.40001
1.40001
1.40001
1.40001
1.40001
1.40001
1.40001
1.40001
1.40001
1.40001
3.03644
5.47626
5.67421
5.65245
5.6291
5.58819
5.56319
5.56123
5.56365
5.57174
5.59073
5.62687
5.666
5.68345
5.68512
5.68257
5.67668
5.66652
5.64907
5.61926
5.57948
5.55218
5.54197
5.53539
5.53422
5.5417
5.56268
5.59134
5.60965
5.61143
5.60339
1.40001
1.40001
1.40001
1.40001
1.40001
1.40001
1.40001
1.40001
1.40001
1.40001
1.40001
1.40001
1.40001
1.40001
1.40001
1.40001
1.40001
1.40001
1.40001
1.40001
1.40001
1.40001
1.40001
1.40001
1.40001
1.40001
1.40001
1.40001
1.40001
1.40001
1.40001
1.40001
1.40001
1.40001
1.40001
1.40001
1.40001
1.40001
1.40001
1.40001
1.40001
1.40001
1.40001
1.40001
1.40001
1.40001
1.40001
1.40001
1.40001
1.40001
1.40001
1.40001
1.40001
1.40001
1.40001
1.40001
1.40001
1.40001
1.40001
1.40001
1.40001
1.40001
1.40001
1.40001
1.40001
2.91699
5.44676
5.67411
5.6437
5.60811
5.56917
5.55873
5.56193
5.57004
5.58611
5.61625
5.65727
5.68289
5.68734
5.68432
5.67845
5.66931
5.65486
5.63084
5.59477
5.5615
5.54853
5.5413
5.53785
5.54137
5.55697
5.58441
5.60754
5.61372
5.6069
5.59299
1.40001
1.40001
1.40001
1.40001
1.40001
1.40001
1.40001
1.40001
1.40001
1.40001
1.40001
1.40001
1.40001
1.40001
1.40001
1.40001
1.40001
1.40001
1.40001
1.40001
1.40001
1.40001
1.40001
1.40001
1.40001
1.40001
1.40001
1.40001
1.40001
1.40001
1.40001
1.40001
1.40001
1.40001
1.40001
1.40001
1.40001
1.40001
1.40001
1.40001
1.40001
1.40001
1.40001
1.40001
1.40001
1.40001
1.40001
1.40001
1.40001
1.40001
1.40001
1.40001
1.40001
1.40001
1.40001
1.40001
1.40001
1.40001
1.40001
1.40001
1.40001
1.40001
1.40001
1.40001
1.40001
2.80128
5.41311
5.67353
5.63045
5.58576
5.55918
5.55807
5.56437
5.57984
5.60604
5.64574
5.68088
5.69186
5.69015
5.68411
5.67466
5.66046
5.63886
5.60654
5.57016
5.55149
5.54467
5.54076
5.54224
5.55395
5.57915
5.60661
5.61836
5.61438
5.6011
5.584
1.40001
1.40001
1.40001
1.40001
1.40001
1.40001
1.40001
1.40001
1.40001
1.40001
1.40001
1.40001
1.40001
1.40001
1.40001
1.40001
1.40001
1.40001
1.40001
1.40001
1.40001
1.40001
1.40001
1.40001
1.40001
1.40001
1.40001
1.40001
1.40001
1.40001
1.40001
1.40001
1.40001
1.40001
1.40001
1.40001
1.40001
1.40001
1.40001
1.40001
1.40001
1.40001
1.40001
1.40001
1.40001
1.40001
1.40001
1.40001
1.40001
1.40001
1.40001
1.40001
1.40001
1.40001
1.40001
1.40001
1.40001
1.40001
1.40001
1.40001
1.40001
1.40001
1.40001
1.40001
1.40001
2.69052
5.37592
5.6671
5.61312
5.56935
5.55701
5.55909
5.57096
5.59492
5.63128
5.67247
5.69382
5.69641
5.69209
5.68385
5.67026
5.6495
5.61896
5.58101
5.55376
5.54494
5.54041
5.54076
5.54965
5.57224
5.60306
5.62196
5.6225
5.61206
5.5957
5.57701
1.40001
1.40001
1.40001
1.40001
1.40001
1.40001
1.40001
1.40001
1.40001
1.40001
1.40001
1.40001
1.40001
1.40001
1.40001
1.40001
1.40001
1.40001
1.40001
1.40001
1.40001
1.40001
1.40001
1.40001
1.40001
1.40001
1.40001
1.40001
1.40001
1.40001
1.40001
1.40001
1.40001
1.40001
1.40001
1.40001
1.40001
1.40001
1.40001
1.40001
1.40001
1.40001
1.40001
1.40001
1.40001
1.40001
1.40001
1.40001
1.40001
1.40001
1.40001
1.40001
1.40001
1.40001
1.40001
1.40001
1.40001
1.40001
1.40001
1.40001
1.40001
1.40001
1.40001
1.40001
1.40001
2.58454
5.3351
5.65304
5.59569
5.56209
5.5578
5.56385
5.58356
5.61672
5.65847
5.69013
5.69933
5.69807
5.69245
5.68155
5.66306
5.6347
5.59648
5.56157
5.5463
5.53956
5.53786
5.54371
5.5626
5.59449
5.62132
5.62817
5.62183
5.60787
5.59027
5.57039
1.40001
1.40001
1.40001
1.40001
1.40001
1.40001
1.40001
1.40001
1.40001
1.40001
1.40001
1.40001
1.40001
1.40001
1.40001
1.40001
1.40001
1.40001
1.40001
1.40001
1.40001
1.40001
1.40001
1.40001
1.40001
1.40001
1.40001
1.40001
1.40001
1.40001
1.40001
1.40001
1.40001
1.40001
1.40001
1.40001
1.40001
1.40001
1.40001
1.40001
1.40001
1.40001
1.40001
1.40001
1.40001
1.40001
1.40001
1.40001
1.40001
1.40001
1.40001
1.40001
1.40001
1.40001
1.40001
1.40001
1.40001
1.40001
1.40001
1.40001
1.40001
1.40001
1.40001
1.40001
1.40001
2.48302
5.28974
5.63489
5.5821
5.56064
5.5606
5.57341
5.60319
5.64379
5.68198
5.69906
5.70075
5.69731
5.68979
5.6752
5.65072
5.61489
5.57534
5.5519
5.54261
5.53725
5.53962
5.55332
5.58245
5.6155
5.63046
5.62822
5.61744
5.60175
5.58325
5.56123
1.40001
1.40001
1.40001
1.40001
1.40001
1.40001
1.40001
1.40001
1.40001
1.40001
1.40001
1.40001
1.40001
1.40001
1.40001
1.40001
1.40001
1.40001
1.40001
1.40001
1.40001
1.40001
1.40001
1.40001
1.40001
1.40001
1.40001
1.40001
1.40001
1.40001
1.40001
1.40001
1.40001
1.40001
1.40001
1.40001
1.40001
1.40001
1.40001
1.40001
1.40001
1.40001
1.40001
1.40001
1.40001
1.40001
1.40001
1.40001
1.40001
1.40001
1.40001
1.40001
1.40001
1.40001
1.40001
1.40001
1.40001
1.40001
1.40001
1.40001
1.40001
1.40001
1.40001
1.40001
1.40001
2.38631
5.23926
5.61748
5.57422
5.56075
5.56575
5.58897
5.62865
5.67131
5.69794
5.70338
5.70021
5.6942
5.68328
5.66342
5.63194
5.59178
5.56059
5.54816
5.54078
5.53965
5.54829
5.57216
5.60696
5.63027
5.63262
5.62431
5.61032
5.59312
5.57267
5.54617
1.40001
1.40001
1.40001
1.40001
1.40001
1.40001
1.40001
1.40001
1.40001
1.40001
1.40001
1.40001
1.40001
1.40001
1.40001
1.40001
1.40001
1.40001
1.40001
1.40001
1.40001
1.40001
1.40001
1.40001
1.40001
1.40001
1.40001
1.40001
1.40001
1.40001
1.40001
1.40001
1.40001