/*--------------------------------*- C++ -*----------------------------------*\
  =========                 |
  \\      /  F ield         | OpenFOAM: The Open Source CFD Toolbox
   \\    /   O peration     | Website:  https://openfoam.org
    \\  /    A nd           | Version:  7
     \\/     M anipulation  |
\*---------------------------------------------------------------------------*/
FoamFile
{
    version     2.0;
    format      ascii;
    class       volScalarField;
    location    "3.8";
    object      T;
}
// * * * * * * * * * * * * * * * * * * * * * * * * * * * * * * * * * * * * * //

dimensions      [0 0 0 1 0 0 0];

internalField   nonuniform List<scalar> 
73728
(
1
1
1
1
1
1
1
1
1
1
1
1
1
1
1
1
1
1
1
1
1
1
1
1
1
1
1
1
1
1
1
1
1
1
1
1
1
1
1
1
1
1
1
1
1
1
1
1
1
1
1
1
1
1
1
1
1
1
1
1
1
1
1
1
1.99033
2.86877
2.89007
2.88262
2.88296
2.88171
2.88166
2.88274
2.88694
2.89659
2.90705
2.91292
2.91688
2.91967
2.92101
2.92065
2.91878
2.91431
2.90872
2.90594
2.90648
2.91125
2.91785
2.92561
2.93342
2.94199
2.95023
2.95702
2.96092
2.96205
2.96164
2.95433
1
1
1
1
1
1
1
1
1
1
1
1
1
1
1
1
1
1
1
1
1
1
1
1
1
1
1
1
1
1
1
1
1
1
1
1
1
1
1
1
1
1
1
1
1
1
1
1
1
1
1
1
1
1
1
1
1
1
1
1
1
1
1
1
1.98738
2.86764
2.8897
2.8823
2.88264
2.88157
2.88184
2.88291
2.88719
2.89689
2.90723
2.91299
2.91692
2.91964
2.92087
2.92045
2.91847
2.91388
2.90829
2.90558
2.90625
2.91116
2.91779
2.92565
2.93337
2.94143
2.94907
2.95567
2.95965
2.95952
2.95911
2.95371
1
1
1
1
1
1
1
1
1
1
1
1
1
1
1
1
1
1
1
1
1
1
1
1
1
1
1
1
1
1
1
1
1
1
1
1
1
1
1
1
1
1
1
1
1
1
1
1
1
1
1
1
1
1
1
1
1
1
1
1
1
1
1
1
1.98036
2.86556
2.88921
2.88171
2.88216
2.88139
2.88199
2.88305
2.8875
2.89734
2.9075
2.91307
2.91694
2.91955
2.92065
2.92011
2.91795
2.91318
2.90755
2.90496
2.90586
2.91094
2.91758
2.92548
2.93306
2.94041
2.94722
2.95328
2.95721
2.95695
2.95619
2.94937
1
1
1
1
1
1
1
1
1
1
1
1
1
1
1
1
1
1
1
1
1
1
1
1
1
1
1
1
1
1
1
1
1
1
1
1
1
1
1
1
1
1
1
1
1
1
1
1
1
1
1
1
1
1
1
1
1
1
1
1
1
1
1
1
1.97035
2.86242
2.88836
2.88079
2.88146
2.88121
2.88214
2.88317
2.8879
2.89802
2.90793
2.91321
2.91694
2.91937
2.92025
2.91958
2.91717
2.91212
2.90645
2.90408
2.90531
2.91062
2.91741
2.92523
2.93256
2.93913
2.945
2.95011
2.95363
2.95352
2.95191
2.94482
1
1
1
1
1
1
1
1
1
1
1
1
1
1
1
1
1
1
1
1
1
1
1
1
1
1
1
1
1
1
1
1
1
1
1
1
1
1
1
1
1
1
1
1
1
1
1
1
1
1
1
1
1
1
1
1
1
1
1
1
1
1
1
1
1.95718
2.85808
2.8872
2.87967
2.88066
2.88104
2.88224
2.88326
2.88844
2.89896
2.90849
2.91337
2.91687
2.91906
2.91972
2.9189
2.91618
2.91075
2.905
2.90289
2.90465
2.91022
2.91724
2.92501
2.93203
2.93776
2.94258
2.9465
2.94926
2.9494
2.9471
2.93975
1
1
1
1
1
1
1
1
1
1
1
1
1
1
1
1
1
1
1
1
1
1
1
1
1
1
1
1
1
1
1
1
1
1
1
1
1
1
1
1
1
1
1
1
1
1
1
1
1
1
1
1
1
1
1
1
1
1
1
1
1
1
1
1
1.9406
2.85242
2.88568
2.87834
2.87982
2.88092
2.8823
2.88344
2.8893
2.90019
2.90909
2.91349
2.91667
2.91859
2.91903
2.91808
2.91498
2.90911
2.90329
2.90152
2.90389
2.90971
2.91702
2.92487
2.93163
2.93658
2.94026
2.94291
2.94468
2.94479
2.94163
2.93416
1
1
1
1
1
1
1
1
1
1
1
1
1
1
1
1
1
1
1
1
1
1
1
1
1
1
1
1
1
1
1
1
1
1
1
1
1
1
1
1
1
1
1
1
1
1
1
1
1
1
1
1
1
1
1
1
1
1
1
1
1
1
1
1
1.9206
2.84525
2.88378
2.87688
2.87902
2.88089
2.88232
2.88377
2.89055
2.90162
2.90964
2.91352
2.9163
2.91794
2.91822
2.91711
2.91359
2.90724
2.90142
2.9001
2.90302
2.909
2.91667
2.92475
2.93135
2.93569
2.93832
2.93982
2.94059
2.94007
2.9359
2.9284
1
1
1
1
1
1
1
1
1
1
1
1
1
1
1
1
1
1
1
1
1
1
1
1
1
1
1
1
1
1
1
1
1
1
1
1
1
1
1
1
1
1
1
1
1
1
1
1
1
1
1
1
1
1
1
1
1
1
1
1
1
1
1
1
1.89711
2.83637
2.88144
2.87538
2.8784
2.88101
2.88232
2.88439
2.8922
2.90319
2.91012
2.91345
2.91576
2.91708
2.91722
2.91593
2.91197
2.90519
2.89954
2.89879
2.90206
2.90813
2.91617
2.92453
2.93102
2.93492
2.93683
2.93746
2.93743
2.93579
2.93065
2.92318
1
1
1
1
1
1
1
1
1
1
1
1
1
1
1
1
1
1
1
1
1
1
1
1
1
1
1
1
1
1
1
1
1
1
1
1
1
1
1
1
1
1
1
1
1
1
1
1
1
1
1
1
1
1
1
1
1
1
1
1
1
1
1
1
1.86983
2.82546
2.8786
2.87409
2.87812
2.8813
2.88239
2.8853
2.89422
2.90476
2.91054
2.91331
2.91506
2.91601
2.916
2.91445
2.91003
2.90302
2.89782
2.89771
2.90112
2.90714
2.91553
2.92411
2.93042
2.93403
2.93558
2.93573
2.93511
2.93235
2.92636
2.919
1
1
1
1
1
1
1
1
1
1
1
1
1
1
1
1
1
1
1
1
1
1
1
1
1
1
1
1
1
1
1
1
1
1
1
1
1
1
1
1
1
1
1
1
1
1
1
1
1
1
1
1
1
1
1
1
1
1
1
1
1
1
1
1
1.83839
2.81215
2.8752
2.87325
2.87842
2.88161
2.88261
2.88661
2.89654
2.90621
2.91093
2.91315
2.91426
2.91473
2.91448
2.91255
2.90767
2.90075
2.89642
2.89697
2.90037
2.90635
2.91488
2.92341
2.92938
2.93279
2.93427
2.93425
2.93322
2.92963
2.92296
2.91608
1
1
1
1
1
1
1
1
1
1
1
1
1
1
1
1
1
1
1
1
1
1
1
1
1
1
1
1
1
1
1
1
1
1
1
1
1
1
1
1
1
1
1
1
1
1
1
1
1
1
1
1
1
1
1
1
1
1
1
1
1
1
1
1
1.80239
2.79605
2.8713
2.87312
2.87927
2.88189
2.88305
2.88844
2.89901
2.90743
2.91132
2.91296
2.9134
2.9133
2.91257
2.91012
2.90482
2.89844
2.89544
2.89656
2.89996
2.906
2.9145
2.9225
2.92784
2.931
2.9325
2.93255
2.93133
2.92711
2.91997
2.91411
1
1
1
1
1
1
1
1
1
1
1
1
1
1
1
1
1
1
1
1
1
1
1
1
1
1
1
1
1
1
1
1
1
1
1
1
1
1
1
1
1
1
1
1
1
1
1
1
1
1
1
1
1
1
1
1
1
1
1
1
1
1
1
1
1.76127
2.77708
2.86751
2.87362
2.88025
2.8822
2.88385
2.89082
2.90133
2.90836
2.91165
2.91276
2.91253
2.91171
2.91027
2.90712
2.90148
2.89617
2.89478
2.89642
2.90004
2.90624
2.91455
2.92163
2.92602
2.92869
2.93008
2.93025
2.92886
2.92413
2.9169
2.91256
1
1
1
1
1
1
1
1
1
1
1
1
1
1
1
1
1
1
1
1
1
1
1
1
1
1
1
1
1
1
1
1
1
1
1
1
1
1
1
1
1
1
1
1
1
1
1
1
1
1
1
1
1
1
1
1
1
1
1
1
1
1
1
1
1.71471
2.75503
2.86412
2.87468
2.88129
2.88268
2.88528
2.89366
2.90321
2.90902
2.91189
2.91246
2.91162
2.90999
2.90767
2.90358
2.89782
2.89406
2.89416
2.89649
2.90064
2.9072
2.91519
2.92108
2.92431
2.92624
2.92722
2.92727
2.9254
2.92005
2.91334
2.91085
1
1
1
1
1
1
1
1
1
1
1
1
1
1
1
1
1
1
1
1
1
1
1
1
1
1
1
1
1
1
1
1
1
1
1
1
1
1
1
1
1
1
1
1
1
1
1
1
1
1
1
1
1
1
1
1
1
1
1
1
1
1
1
1
1.66222
2.72978
2.86155
2.87614
2.88231
2.88359
2.88755
2.89662
2.90449
2.90938
2.91196
2.91204
2.91062
2.90817
2.90484
2.89965
2.89418
2.89218
2.89352
2.89664
2.9016
2.90873
2.91633
2.9209
2.92301
2.92412
2.9245
2.92401
2.92119
2.91499
2.90927
2.90842
1
1
1
1
1
1
1
1
1
1
1
1
1
1
1
1
1
1
1
1
1
1
1
1
1
1
1
1
1
1
1
1
1
1
1
1
1
1
1
1
1
1
1
1
1
1
1
1
1
1
1
1
1
1
1
1
1
1
1
1
1
1
1
1
1.60378
2.70131
2.86018
2.87763
2.88349
2.88527
2.89063
2.89923
2.90526
2.90949
2.91172
2.9114
2.90941
2.90623
2.90186
2.89568
2.891
2.89062
2.89283
2.89673
2.9027
2.91054
2.91757
2.92095
2.92221
2.92258
2.92237
2.92087
2.91685
2.90977
2.90524
2.90531
1
1
1
1
1
1
1
1
1
1
1
1
1
1
1
1
1
1
1
1
1
1
1
1
1
1
1
1
1
1
1
1
1
1
1
1
1
1
1
1
1
1
1
1
1
1
1
1
1
1
1
1
1
1
1
1
1
1
1
1
1
1
1
1
1.54012
2.66995
2.86007
2.87921
2.88511
2.88791
2.89413
2.90119
2.90571
2.90935
2.91106
2.91038
2.9079
2.90406
2.89873
2.8921
2.88875
2.88945
2.89218
2.89678
2.90386
2.91226
2.91845
2.92102
2.92174
2.92167
2.92079
2.91818
2.91282
2.90517
2.90198
2.90245
1
1
1
1
1
1
1
1
1
1
1
1
1
1
1
1
1
1
1
1
1
1
1
1
1
1
1
1
1
1
1
1
1
1
1
1
1
1
1
1
1
1
1
1
1
1
1
1
1
1
1
1
1
1
1
1
1
1
1
1
1
1
1
1
1.47203
2.63625
2.86125
2.88116
2.88746
2.89131
2.89746
2.90254
2.90603
2.909
2.90997
2.90887
2.90587
2.90149
2.89545
2.88929
2.88761
2.8888
2.89175
2.89704
2.90513
2.91351
2.91865
2.92079
2.92135
2.92106
2.91959
2.91587
2.90911
2.90171
2.89985
2.90057
1
1
1
1
1
1
1
1
1
1
1
1
1
1
1
1
1
1
1
1
1
1
1
1
1
1
1
1
1
1
1
1
1
1
1
1
1
1
1
1
1
1
1
1
1
1
1
1
1
1
1
1
1
1
1
1
1
1
1
1
1
1
1
1
1.40066
2.60064
2.86388
2.88392
2.8905
2.89495
2.9001
2.90352
2.9063
2.90849
2.90856
2.90671
2.90315
2.89837
2.89219
2.88755
2.88725
2.88863
2.89189
2.89798
2.90664
2.91411
2.91805
2.9199
2.92055
2.92015
2.91814
2.91321
2.90555
2.89959
2.89876
2.89973
1
1
1
1
1
1
1
1
1
1
1
1
1
1
1
1
1
1
1
1
1
1
1
1
1
1
1
1
1
1
1
1
1
1
1
1
1
1
1
1
1
1
1
1
1
1
1
1
1
1
1
1
1
1
1
1
1
1
1
1
1
1
1
1
1.32822
2.56389
2.86808
2.88773
2.89396
2.89821
2.90186
2.9044
2.9066
2.9078
2.90683
2.90388
2.8998
2.89465
2.88923
2.88684
2.88734
2.88909
2.893
2.89996
2.90842
2.91413
2.91684
2.91839
2.91902
2.91849
2.91579
2.90989
2.9023
2.89853
2.89835
2.89969
1
1
1
1
1
1
1
1
1
1
1
1
1
1
1
1
1
1
1
1
1
1
1
1
1
1
1
1
1
1
1
1
1
1
1
1
1
1
1
1
1
1
1
1
1
1
1
1
1
1
1
1
1
1
1
1
1
1
1
1
1
1
1
1
1.25693
2.5271
2.87379
2.89239
2.89743
2.90066
2.90283
2.90523
2.90689
2.90696
2.90473
2.90072
2.89593
2.89054
2.88682
2.88658
2.88782
2.89031
2.89526
2.903
2.91034
2.91391
2.91552
2.91658
2.9169
2.91599
2.91249
2.9057
2.89945
2.89777
2.89819
2.9003
1
1
1
1
1
1
1
1
1
1
1
1
1
1
1
1
1
1
1
1
1
1
1
1
1
1
1
1
1
1
1
1
1
1
1
1
1
1
1
1
1
1
1
1
1
1
1
1
1
1
1
1
1
1
1
1
1
1
1
1
1
1
1
1
1.18867
2.49105
2.88094
2.89744
2.90044
2.90212
2.90335
2.90581
2.9069
2.90598
2.90244
2.89739
2.89168
2.88672
2.88526
2.88639
2.88848
2.8921
2.89848
2.90666
2.91209
2.91384
2.91455
2.91491
2.91457
2.91267
2.908
2.90073
2.89695
2.89665
2.89789
2.90103
1
1
1
1
1
1
1
1
1
1
1
1
1
1
1
1
1
1
1
1
1
1
1
1
1
1
1
1
1
1
1
1
1
1
1
1
1
1
1
1
1
1
1
1
1
1
1
1
1
1
1
1
1
1
1
1
1
1
1
1
1
1
1
1
1.12522
2.45604
2.88917
2.90209
2.90278
2.90271
2.90362
2.90599
2.90645
2.90469
2.90006
2.89392
2.88756
2.88409
2.88437
2.88628
2.88919
2.89435
2.90228
2.91004
2.91336
2.91395
2.91407
2.91366
2.91213
2.90884
2.90263
2.89611
2.89463
2.89509
2.89739
2.90146
1
1
1
1
1
1
1
1
1
1
1
1
1
1
1
1
1
1
1
1
1
1
1
1
1
1
1
1
1
1
1
1
1
1
1
1
1
1
1
1
1
1
1
1
1
1
1
1
1
1
1
1
1
1
1
1
1
1
1
1
1
1
1
1
1.06734
2.42162
2.89765
2.90564
2.90455
2.90279
2.90347
2.90554
2.9055
2.90293
2.89737
2.89029
2.88431
2.88293
2.88398
2.88628
2.8902
2.89714
2.90598
2.91216
2.91403
2.91413
2.91384
2.91256
2.90982
2.90485
2.89741
2.89296
2.89264
2.89371
2.89691
2.90181
1
1
1
1
1
1
1
1
1
1
1
1
1
1
1
1
1
1
1
1
1
1
1
1
1
1
1
1
1
1
1
1
1
1
1
1
1
1
1
1
1
1
1
1
1
1
1
1
1
1
1
1
1
1
1
1
1
1
1
1
1
1
1
1
1.01749
2.38702
2.90515
2.90808
2.90553
2.90286
2.90297
2.90459
2.90402
2.90057
2.89406
2.88672
2.8827
2.88276
2.88413
2.88687
2.89209
2.90054
2.9088
2.91289
2.91409
2.91403
2.91333
2.9113
2.90744
2.90078
2.89358
2.89145
2.89152
2.89306
2.8969
2.90261
1
1
1
1
1
1
1
1
1
1
1
1
1
1
1
1
1
1
1
1
1
1
1
1
1
1
1
1
1
1
1
1
1
1
1
1
1
1
1
1
1
1
1
1
1
1
1
1
1
1
1
1
1
1
1
1
1
1
1
1
1
1
1
1
1.00004
2.35444
2.9105
2.91022
2.9058
2.9027
2.90216
2.90333
2.90206
2.89737
2.88996
2.88383
2.88248
2.8832
2.88511
2.88871
2.89544
2.90426
2.91028
2.91267
2.91349
2.91336
2.91229
2.90965
2.90441
2.89674
2.89179
2.89095
2.89131
2.89339
2.89797
2.90451
1
1
1
1
1
1
1
1
1
1
1
1
1
1
1
1
1
1
1
1
1
1
1
1
1
1
1
1
1
1
1
1
1
1
1
1
1
1
1
1
1
1
1
1
1
1
1
1
1
1
1
1
1
1
1
1
1
1
1
1
1
1
1
1
1
2.32244
2.91398
2.9122
2.90551
2.90219
2.9014
2.90201
2.89962
2.89318
2.88567
2.88234
2.88278
2.88436
2.88713
2.89223
2.90025
2.90757
2.91072
2.91195
2.91237
2.91205
2.91052
2.9069
2.9003
2.89336
2.89121
2.89098
2.89186
2.89486
2.90045
2.90772
1
1
1
1
1
1
1
1
1
1
1
1
1
1
1
1
1
1
1
1
1
1
1
1
1
1
1
1
1
1
1
1
1
1
1
1
1
1
1
1
1
1
1
1
1
1
1
1
1
1
1
1
1
1
1
1
1
1
1
1
1
1
1
1
1
2.2882
2.91687
2.91337
2.90438
2.9015
2.90089
2.90074
2.89652
2.88835
2.88244
2.88198
2.88332
2.88597
2.89026
2.89733
2.90548
2.90977
2.9108
2.91119
2.91107
2.91007
2.90764
2.90261
2.89536
2.89137
2.89076
2.89114
2.89305
2.89725
2.90407
2.91176
1
1
1
1
1
1
1
1
1
1
1
1
1
1
1
1
1
1
1
1
1
1
1
1
1
1
1
1
1
1
1
1
1
1
1
1
1
1
1
1
1
1
1
1
1
1
1
1
1
1
1
1
1
1
1
1
1
1
1
1
1
1
1
1
1
2.25221
2.91953
2.91235
2.90214
2.90078
2.90054
2.89933
2.89275
2.88417
2.8812
2.88188
2.88412
2.88818
2.89457
2.90313
2.90935
2.91089
2.91094
2.91074
2.90974
2.90761
2.90365
2.89705
2.89111
2.88987
2.88995
2.89128
2.89452
2.90024
2.90826
2.9156
1
1
1
1
1
1
1
1
1
1
1
1
1
1
1
1
1
1
1
1
1
1
1
1
1
1
1
1
1
1
1
1
1
1
1
1
1
1
1
1
1
1
1
1
1
1
1
1
1
1
1
1
1
1
1
1
1
1
1
1
1
1
1
1
1
2.21528
2.92085
2.90997
2.89928
2.90008
2.90007
2.89719
2.88872
2.88203
2.8811
2.88215
2.88556
2.89152
2.89988
2.90792
2.91114
2.91138
2.91122
2.91043
2.90846
2.90486
2.89889
2.89165
2.88854
2.88827
2.88901
2.89152
2.89624
2.90372
2.91223
2.91831
1
1
1
1
1
1
1
1
1
1
1
1
1
1
1
1
1
1
1
1
1
1
1
1
1
1
1
1
1
1
1
1
1
1
1
1
1
1
1
1
1
1
1
1
1
1
1
1
1
1
1
1
1
1
1
1
1
1
1
1
1
1
1
1
1
2.1772
2.9196
2.9063
2.89699
2.89941
2.89901
2.89395
2.88558
2.88183
2.88152
2.88343
2.88846
2.89632
2.90517
2.91039
2.91164
2.91164
2.91132
2.90998
2.90693
2.90154
2.89399
2.88824
2.88706
2.88704
2.88849
2.89218
2.89864
2.90747
2.91519
2.91967
1
1
1
1
1
1
1
1
1
1
1
1
1
1
1
1
1
1
1
1
1
1
1
1
1
1
1
1
1
1
1
1
1
1
1
1
1
1
1
1
1
1
1
1
1
1
1
1
1
1
1
1
1
1
1
1
1
1
1
1
1
1
1
1
1
2.13732
2.91513
2.90245
2.89535
2.89847
2.89683
2.8902
2.88429
2.88236
2.88277
2.88625
2.89323
2.90212
2.90893
2.91108
2.91155
2.91154
2.91097
2.90889
2.90452
2.89741
2.89
2.88702
2.88631
2.88661
2.88893
2.89401
2.9021
2.911
2.91683
2.91968
1
1
1
1
1
1
1
1
1
1
1
1
1
1
1
1
1
1
1
1
1
1
1
1
1
1
1
1
1
1
1
1
1
1
1
1
1
1
1
1
1
1
1
1
1
1
1
1
1
1
1
1
1
1
1
1
1
1
1
1
1
1
1
1
1
2.09494
2.9072
2.89943
2.89438
2.89691
2.89357
2.88739
2.88427
2.88327
2.885
2.89079
2.89955
2.90751
2.91079
2.91117
2.91114
2.9109
2.90974
2.90663
2.90071
2.89287
2.88788
2.88663
2.88624
2.88724
2.89088
2.89764
2.90652
2.91371
2.91733
2.91884
1
1
1
1
1
1
1
1
1
1
1
1
1
1
1
1
1
1
1
1
1
1
1
1
1
1
1
1
1
1
1
1
1
1
1
1
1
1
1
1
1
1
1
1
1
1
1
1
1
1
1
1
1
1
1
1
1
1
1
1
1
1
1
1
1
2.04881
2.89553
2.89846
2.89358
2.8944
2.89038
2.88632
2.88447
2.88456
2.88848
2.89686
2.90617
2.91116
2.91182
2.91125
2.91068
2.90976
2.90753
2.90289
2.89563
2.88915
2.88711
2.8864
2.88671
2.88915
2.89458
2.9029
2.91088
2.91548
2.91719
2.91778
1
1
1
1
1
1
1
1
1
1
1
1
1
1
1
1
1
1
1
1
1
1
1
1
1
1
1
1
1
1
1
1
1
1
1
1
1
1
1
1
1
1
1
1
1
1
1
1
1
1
1
1
1
1
1
1
1
1
1
1
1
1
1
1
1
2.00052
2.88127
2.8982
2.89208
2.8916
2.88865
2.8863
2.8849
2.88654
2.89338
2.90365
2.91131
2.91326
2.91267
2.91151
2.91031
2.90832
2.90441
2.8979
2.89056
2.88712
2.88629
2.88627
2.88788
2.89223
2.89981
2.90846
2.91414
2.91637
2.91713
2.91697
1
1
1
1
1
1
1
1
1
1
1
1
1
1
1
1
1
1
1
1
1
1
1
1
1
1
1
1
1
1
1
1
1
1
1
1
1
1
1
1
1
1
1
1
1
1
1
1
1
1
1
1
1
1
1
1
1
1
1
1
1
1
1
1
1
1.9519
2.86502
2.8967
2.89016
2.88991
2.88863
2.88668
2.88606
2.88987
2.8995
2.90973
2.91428
2.91453
2.91332
2.91183
2.90989
2.90644
2.90046
2.89266
2.88721
2.88582
2.88545
2.88643
2.88986
2.89654
2.90559
2.91266
2.91588
2.91698
2.91717
2.91634
1
1
1
1
1
1
1
1
1
1
1
1
1
1
1
1
1
1
1
1
1
1
1
1
1
1
1
1
1
1
1
1
1
1
1
1
1
1
1
1
1
1
1
1
1
1
1
1
1
1
1
1
1
1
1
1
1
1
1
1
1
1
1
1
1
1.90288
2.84681
2.89369
2.88874
2.89003
2.88948
2.88764
2.88833
2.89501
2.90602
2.91385
2.91577
2.91517
2.91367
2.91182
2.90893
2.90374
2.89595
2.8887
2.88576
2.88477
2.88502
2.88748
2.89306
2.90187
2.91036
2.91498
2.9167
2.91739
2.91712
2.91547
1
1
1
1
1
1
1
1
1
1
1
1
1
1
1
1
1
1
1
1
1
1
1
1
1
1
1
1
1
1
1
1
1
1
1
1
1
1
1
1
1
1
1
1
1
1
1
1
1
1
1
1
1
1
1
1
1
1
1
1
1
1
1
1
1
1.85301
2.82661
2.8899
2.88855
2.89154
2.89082
2.88945
2.89227
2.9015
2.91168
2.91614
2.91645
2.91528
2.91348
2.91104
2.90689
2.89994
2.89171
2.8868
2.88509
2.88443
2.88571
2.89
2.89785
2.9072
2.91336
2.91594
2.91712
2.91733
2.91648
2.91376
1
1
1
1
1
1
1
1
1
1
1
1
1
1
1
1
1
1
1
1
1
1
1
1
1
1
1
1
1
1
1
1
1
1
1
1
1
1
1
1
1
1
1
1
1
1
1
1
1
1
1
1
1
1
1
1
1
1
1
1
1
1
1
1
1
1.80231
2.80471
2.88661
2.88991
2.89328
2.89248
2.89243
2.89788
2.90823
2.9157
2.91749
2.91674
2.91493
2.91253
2.90915
2.90348
2.89541
2.88879
2.88619
2.88485
2.88511
2.88805
2.89456
2.90385
2.91141
2.91492
2.91635
2.91698
2.91661
2.91474
2.91051
1
1
1
1
1
1
1
1
1
1
1
1
1
1
1
1
1
1
1
1
1
1
1
1
1
1
1
1
1
1
1
1
1
1
1
1
1
1
1
1
1
1
1
1
1
1
1
1
1
1
1
1
1
1
1
1
1
1
1
1
1
1
1
1
1
1.75111
2.78199
2.88488
2.89189
2.89474
2.89478
2.89665
2.9043
2.91394
2.91841
2.91845
2.91683
2.91417
2.91085
2.90612
2.89893
2.89125
2.88741
2.88578
2.8853
2.88708
2.89226
2.90095
2.90962
2.91425
2.91582
2.91655
2.91644
2.91512
2.91163
2.90541
1
1
1
1
1
1
1
1
1
1
1
1
1
1
1
1
1
1
1
1
1
1
1
1
1
1
1
1
1
1
1
1
1
1
1
1
1
1
1
1
1
1
1
1
1
1
1
1
1
1
1
1
1
1
1
1
1
1
1
1
1
1
1
1
1
1.70002
2.75904
2.88481
2.89381
2.89685
2.8979
2.9017
2.91043
2.9181
2.9202
2.91926
2.91677
2.91311
2.90855
2.90217
2.89415
2.88856
2.88657
2.88556
2.88648
2.8904
2.89819
2.9077
2.91393
2.916
2.91672
2.91669
2.91568
2.91281
2.90705
2.89914
1
1
1
1
1
1
1
1
1
1
1
1
1
1
1
1
1
1
1
1
1
1
1
1
1
1
1
1
1
1
1
1
1
1
1
1
1
1
1
1
1
1
1
1
1
1
1
1
1
1
1
1
1
1
1
1
1
1
1
1
1
1
1
1
1
1.65012
2.73641
2.88615
2.89593
2.89987
2.9017
2.90699
2.91558
2.92093
2.92136
2.9198
2.91638
2.91167
2.90567
2.89778
2.89044
2.88723
2.88577
2.88588
2.8886
2.89516
2.90491
2.91304
2.91651
2.91731
2.91744
2.91673
2.91439
2.90939
2.90133
2.89359
1
1
1
1
1
1
1
1
1
1
1
1
1
1
1
1
1
1
1
1
1
1
1
1
1
1
1
1
1
1
1
1
1
1
1
1
1
1
1
1
1
1
1
1
1
1
1
1
1
1
1
1
1
1
1
1
1
1
1
1
1
1
1
1
1
1.60233
2.71461
2.88845
2.89873
2.90341
2.906
2.91213
2.91953
2.92266
2.92221
2.9199
2.91552
2.90967
2.90219
2.89376
2.88843
2.88646
2.88554
2.88702
2.89202
2.90108
2.91086
2.91631
2.91783
2.91817
2.91779
2.91604
2.91192
2.9045
2.8957
2.89
1
1
1
1
1
1
1
1
1
1
1
1
1
1
1
1
1
1
1
1
1
1
1
1
1
1
1
1
1
1
1
1
1
1
1
1
1
1
1
1
1
1
1
1
1
1
1
1
1
1
1
1
1
1
1
1
1
1
1
1
1
1
1
1
1
1.55745
2.69405
2.89138
2.90214
2.90731
2.91049
2.91675
2.92251
2.92376
2.92273
2.9195
2.91403
2.90694
2.89831
2.89082
2.88763
2.88599
2.88619
2.88941
2.89692
2.90731
2.91498
2.91785
2.91849
2.91843
2.91726
2.914
2.90763
2.8986
2.8916
2.88744
1
1
1
1
1
1
1
1
1
1
1
1
1
1
1
1
1
1
1
1
1
1
1
1
1
1
1
1
1
1
1
1
1
1
1
1
1
1
1
1
1
1
1
1
1
1
1
1
1
1
1
1
1
1
1
1
1
1
1
1
1
1
1
1
1
1.51622
2.6751
2.8947
2.9059
2.91137
2.9149
2.92068
2.92477
2.9247
2.92289
2.91855
2.91189
2.90348
2.89453
2.8891
2.88714
2.88618
2.8878
2.89328
2.90298
2.91265
2.91738
2.91847
2.91865
2.91794
2.91544
2.91016
2.90165
2.8933
2.88873
2.8851
1
1
1
1
1
1
1
1
1
1
1
1
1
1
1
1
1
1
1
1
1
1
1
1
1
1
1
1
1
1
1
1
1
1
1
1
1
1
1
1
1
1
1
1
1
1
1
1
1
1
1
1
1
1
1
1
1
1
1
1
1
1
1
1
1
1.47921
2.65802
2.89817
2.90974
2.9153
2.91898
2.92395
2.92652
2.92551
2.9228
2.91724
2.90919
2.89958
2.89144
2.88815
2.88666
2.88697
2.89043
2.89846
2.90922
2.91651
2.91861
2.9189
2.91845
2.91652
2.91222
2.90456
2.89534
2.88954
2.88589
2.88311
1
1
1
1
1
1
1
1
1
1
1
1
1
1
1
1
1
1
1
1
1
1
1
1
1
1
1
1
1
1
1
1
1
1
1
1
1
1
1
1
1
1
1
1
1
1
1
1
1
1
1
1
1
1
1
1
1
1
1
1
1
1
1
1
1
1.4466
2.64287
2.90158
2.91339
2.91888
2.92252
2.92662
2.92794
2.92621
2.92257
2.9157
2.90611
2.89583
2.88933
2.88731
2.88647
2.88824
2.89404
2.90435
2.91447
2.91898
2.91953
2.91931
2.91782
2.91426
2.90762
2.89811
2.89046
2.88638
2.88327
2.88181
1
1
1
1
1
1
1
1
1
1
1
1
1
1
1
1
1
1
1
1
1
1
1
1
1
1
1
1
1
1
1
1
1
1
1
1
1
1
1
1
1
1
1
1
1
1
1
1
1
1
1
1
1
1
1
1
1
1
1
1
1
1
1
1
1
1.41799
2.62946
2.9047
2.91669
2.922
2.92545
2.92877
2.92912
2.92683
2.92227
2.91401
2.90296
2.89282
2.88815
2.88652
2.8867
2.89013
2.89837
2.91
2.91825
2.92047
2.92046
2.91952
2.91666
2.91102
2.90192
2.89247
2.88715
2.88349
2.88135
2.88122
1
1
1
1
1
1
1
1
1
1
1
1
1
1
1
1
1
1
1
1
1
1
1
1
1
1
1
1
1
1
1
1
1
1
1
1
1
1
1
1
1
1
1
1
1
1
1
1
1
1
1
1
1
1
1
1
1
1
1
1
1
1
1
1
1
1.3925
2.61737
2.90737
2.91955
2.92465
2.92782
2.93054
2.93014
2.92739
2.92191
2.91223
2.90013
2.89089
2.88758
2.8862
2.88743
2.89269
2.90305
2.91465
2.92067
2.92148
2.92115
2.91923
2.91467
2.90656
2.89605
2.88862
2.88446
2.88134
2.88054
2.88145
1
1
1
1
1
1
1
1
1
1
1
1
1
1
1
1
1
1
1
1
1
1
1
1
1
1
1
1
1
1
1
1
1
1
1
1
1
1
1
1
1
1
1
1
1
1
1
1
1
1
1
1
1
1
1
1
1
1
1
1
1
1
1
1
1
1.36908
2.60604
2.90947
2.92193
2.92687
2.92984
2.93208
2.93109
2.92792
2.92146
2.91044
2.8979
2.88999
2.88743
2.88652
2.88881
2.89584
2.90762
2.91811
2.92208
2.9222
2.92136
2.91816
2.91152
2.90114
2.89121
2.88595
2.88225
2.88018
2.88049
2.88321
1
1
1
1
1
1
1
1
1
1
1
1
1
1
1
1
1
1
1
1
1
1
1
1
1
1
1
1
1
1
1
1
1
1
1
1
1
1
1
1
1
1
1
1
1
1
1
1
1
1
1
1
1
1
1
1
1
1
1
1
1
1
1
1
1
1.34681
2.59498
2.91094
2.92387
2.92877
2.93172
2.93354
2.93205
2.92846
2.92098
2.90879
2.89638
2.88985
2.88763
2.88744
2.8908
2.89936
2.91175
2.92064
2.92288
2.92267
2.92099
2.91619
2.90723
2.89564
2.8878
2.8836
2.88054
2.87982
2.8814
2.88647
1
1
1
1
1
1
1
1
1
1
1
1
1
1
1
1
1
1
1
1
1
1
1
1
1
1
1
1
1
1
1
1
1
1
1
1
1
1
1
1
1
1
1
1
1
1
1
1
1
1
1
1
1
1
1
1
1
1
1
1
1
1
1
1
1
1.32506
2.58385
2.91183
2.9254
2.93047
2.93352
2.93498
2.93308
2.92905
2.92053
2.90745
2.89558
2.89021
2.88822
2.88874
2.89318
2.90297
2.91528
2.92253
2.9235
2.9229
2.92008
2.9134
2.90226
2.89104
2.8852
2.88142
2.87943
2.87981
2.88345
2.89056
1
1
1
1
1
1
1
1
1
1
1
1
1
1
1
1
1
1
1
1
1
1
1
1
1
1
1
1
1
1
1
1
1
1
1
1
1
1
1
1
1
1
1
1
1
1
1
1
1
1
1
1
1
1
1
1
1
1
1
1
1
1
1
1
1
1.30355
2.57256
2.91226
2.92662
2.93201
2.93524
2.93636
2.93413
2.92966
2.9202
2.90658
2.89541
2.89089
2.88916
2.89032
2.89572
2.9064
2.91823
2.92403
2.92414
2.92292
2.91877
2.91004
2.8974
2.8876
2.88291
2.87956
2.87875
2.88032
2.88624
2.89466
1
1
1
1
1
1
1
1
1
1
1
1
1
1
1
1
1
1
1
1
1
1
1
1
1
1
1
1
1
1
1
1
1
1
1
1
1
1
1
1
1
1
1
1
1
1
1
1
1
1
1
1
1
1
1
1
1
1
1
1
1
1
1
1
1
1.28238
2.56123
2.91241
2.92761
2.93342
2.93678
2.9375
2.93506
2.93022
2.92006
2.90623
2.89577
2.89183
2.89044
2.89213
2.89831
2.9095
2.92069
2.92525
2.92474
2.92267
2.91713
2.90646
2.89327
2.88508
2.8809
2.87818
2.87828
2.88143
2.88929
2.89811
1
1
1
1
1
1
1
1
1
1
1
1
1
1
1
1
1
1
1
1
1
1
1
1
1
1
1
1
1
1
1
1
1
1
1
1
1
1
1
1
1
1
1
1
1
1
1
1
1
1
1
1
1
1
1
1
1
1
1
1
1
1
1
1
1
1.2619
2.55015
2.91248
2.92843
2.93465
2.93799
2.9382
2.93574
2.9307
2.92013
2.90636
2.89662
2.89307
2.89202
2.89416
2.90088
2.91227
2.92268
2.92623
2.9251
2.92211
2.91519
2.903
2.89005
2.88316
2.87922
2.87725
2.87813
2.88295
2.89222
2.90059
1
1
1
1
1
1
1
1
1
1
1
1
1
1
1
1
1
1
1
1
1
1
1
1
1
1
1
1
1
1
1
1
1
1
1
1
1
1
1
1
1
1
1
1
1
1
1
1
1
1
1
1
1
1
1
1
1
1
1
1
1
1
1
1
1
1.2426
2.5397
2.91265
2.92905
2.93554
2.93871
2.93838
2.93616
2.93112
2.92044
2.90693
2.89785
2.8946
2.89385
2.89633
2.90339
2.91472
2.92427
2.92693
2.92515
2.92118
2.91303
2.89987
2.88759
2.88161
2.87789
2.87666
2.87835
2.88469
2.89478
2.9021
1
1
1
1
1
1
1
1
1
1
1
1
1
1
1
1
1
1
1
1
1
1
1
1
1
1
1
1
1
1
1
1
1
1
1
1
1
1
1
1
1
1
1
1
1
1
1
1
1
1
1
1
1
1
1
1
1
1
1
1
1
1
1
1
1
1.22488
2.53023
2.91309
2.92942
2.93596
2.93885
2.93811
2.93636
2.93157
2.92101
2.90783
2.89936
2.89639
2.89589
2.89861
2.90583
2.91689
2.92551
2.92739
2.92488
2.91995
2.9108
2.89719
2.8857
2.88033
2.87687
2.8763
2.87886
2.8864
2.89681
2.90292
1
1
1
1
1
1
1
1
1
1
1
1
1
1
1
1
1
1
1
1
1
1
1
1
1
1
1
1
1
1
1
1
1
1
1
1
1
1
1
1
1
1
1
1
1
1
1
1
1
1
1
1
1
1
1
1
1
1
1
1
1
1
1
1
1
1.20904
2.52198
2.91385
2.92953
2.93589
2.93842
2.93749
2.93642
2.93207
2.92175
2.90893
2.90106
2.89838
2.8981
2.90097
2.90819
2.9188
2.92649
2.92763
2.92432
2.91854
2.90867
2.89499
2.88424
2.87928
2.87611
2.87607
2.87946
2.88787
2.89824
2.90326
1
1
1
1
1
1
1
1
1
1
1
1
1
1
1
1
1
1
1
1
1
1
1
1
1
1
1
1
1
1
1
1
1
1
1
1
1
1
1
1
1
1
1
1
1
1
1
1
1
1
1
1
1
1
1
1
1
1
1
1
1
1
1
1
1
1.19519
2.51501
2.91489
2.92935
2.93524
2.93755
2.93669
2.93643
2.93264
2.9226
2.91015
2.90289
2.9005
2.90039
2.90335
2.9104
2.92045
2.92724
2.92772
2.92356
2.91709
2.90676
2.89325
2.88314
2.87848
2.87559
2.87595
2.87999
2.88897
2.89908
2.90322
1
1
1
1
1
1
1
1
1
1
1
1
1
1
1
1
1
1
1
1
1
1
1
1
1
1
1
1
1
1
1
1
1
1
1
1
1
1
1
1
1
1
1
1
1
1
1
1
1
1
1
1
1
1
1
1
1
1
1
1
1
1
1
1
1
1.18332
2.50928
2.91613
2.92891
2.93413
2.93641
2.93581
2.9364
2.93318
2.92348
2.91142
2.90477
2.90271
2.90274
2.90568
2.91244
2.92183
2.92778
2.92768
2.9227
2.9157
2.90517
2.89197
2.88242
2.87797
2.87529
2.87592
2.88037
2.88967
2.89943
2.9028
1
1
1
1
1
1
1
1
1
1
1
1
1
1
1
1
1
1
1
1
1
1
1
1
1
1
1
1
1
1
1
1
1
1
1
1
1
1
1
1
1
1
1
1
1
1
1
1
1
1
1
1
1
1
1
1
1
1
1
1
1
1
1
1
1
1.17334
2.50461
2.91744
2.92846
2.93285
2.93517
2.93493
2.93622
2.93352
2.92427
2.91263
2.90666
2.90494
2.90507
2.90791
2.91425
2.92292
2.9281
2.92747
2.92182
2.91448
2.90395
2.89116
2.88209
2.87777
2.87518
2.87594
2.88061
2.89006
2.89941
2.9021
1
1
1
1
1
1
1
1
1
1
1
1
1
1
1
1
1
1
1
1
1
1
1
1
1
1
1
1
1
1
1
1
1
1
1
1
1
1
1
1
1
1
1
1
1
1
1
1
1
1
1
1
1
1
1
1
1
1
1
1
1
1
1
1
1
1.16503
2.50082
2.91875
2.92818
2.93169
2.93397
2.93406
2.93588
2.93362
2.92482
2.91364
2.90845
2.90701
2.90719
2.90987
2.91576
2.92373
2.92824
2.92715
2.92101
2.9135
2.90311
2.89077
2.88201
2.87776
2.87521
2.87602
2.88076
2.89022
2.89918
2.90133
1
1
1
1
1
1
1
1
1
1
1
1
1
1
1
1
1
1
1
1
1
1
1
1
1
1
1
1
1
1
1
1
1
1
1
1
1
1
1
1
1
1
1
1
1
1
1
1
1
1
1
1
1
1
1
1
1
1
1
1
1
1
1
1
1
1.15838
2.49783
2.91994
2.92811
2.93081
2.93299
2.93334
2.93549
2.93353
2.92504
2.91428
2.90986
2.90865
2.90881
2.91131
2.91683
2.92424
2.92825
2.9268
2.92035
2.9128
2.90266
2.89071
2.88211
2.87789
2.87534
2.87613
2.88087
2.89027
2.89892
2.90069
1
1
1
1
1
1
1
1
1
1
1
1
1
1
1
1
1
1
1
1
1
1
1
1
1
1
1
1
1
1
1
1
1
1
1
1
1
1
1
1
1
1
1
1
1
1
1
1
1
1
1
1
1
1
1
1
1
1
1
1
1
1
1
1
1
1.15381
2.49585
2.92082
2.92817
2.93031
2.93243
2.93289
2.93516
2.93332
2.92498
2.9145
2.91064
2.90959
2.90973
2.9121
2.91741
2.9245
2.92818
2.92652
2.9199
2.91238
2.90246
2.89078
2.8823
2.8781
2.87552
2.87627
2.88096
2.89031
2.89875
2.9003
1
1
1
1
1
1
1
1
1
1
1
1
1
1
1
1
1
1
1
1
1
1
1
1
1
1
1
1
1
1
1
1
1
1
1
1
1
1
1
1
1
1
1
1
1
1
1
1
1
1
1
1
1
1
1
1
1
1
1
1
1
1
1
1
1
1.15192
2.49512
2.92125
2.92825
2.93015
2.93229
2.93278
2.93504
2.93316
2.92481
2.91447
2.91085
2.90989
2.91004
2.91238
2.91764
2.9246
2.92812
2.92636
2.91969
2.91221
2.90242
2.8909
2.88248
2.87826
2.87564
2.87636
2.88103
2.89031
2.89863
2.90007
1
1
1
1
1
1
1
1
1
1
1
1
1
1
1
1
1
1
1
1
1
1
1
1
1
1
1
1
1
1
1
1
1
1
1
1
1
1
1
1
1
1
1
1
1
1
1
1
1
1
1
1
1
1
1
1
1
1
1
1
1
1
1
1
1
1.15191
2.49512
2.92125
2.92825
2.93015
2.93229
2.93279
2.93505
2.93317
2.92482
2.91447
2.91085
2.90989
2.91004
2.91237
2.91764
2.9246
2.92811
2.92636
2.91969
2.91221
2.90242
2.8909
2.88248
2.87827
2.87565
2.87636
2.88103
2.89031
2.89863
2.90007
1
1
1
1
1
1
1
1
1
1
1
1
1
1
1
1
1
1
1
1
1
1
1
1
1
1
1
1
1
1
1
1
1
1
1
1
1
1
1
1
1
1
1
1
1
1
1
1
1
1
1
1
1
1
1
1
1
1
1
1
1
1
1
1
1
1.15378
2.49584
2.92082
2.92817
2.93032
2.93244
2.9329
2.93518
2.93334
2.92499
2.91451
2.91064
2.90959
2.90973
2.91209
2.91741
2.9245
2.92818
2.92651
2.9199
2.91239
2.90246
2.89078
2.88231
2.8781
2.87553
2.87628
2.88097
2.89031
2.89875
2.90029
1
1
1
1
1
1
1
1
1
1
1
1
1
1
1
1
1
1
1
1
1
1
1
1
1
1
1
1
1
1
1
1
1
1
1
1
1
1
1
1
1
1
1
1
1
1
1
1
1
1
1
1
1
1
1
1
1
1
1
1
1
1
1
1
1
1.15833
2.49781
2.91994
2.92812
2.93081
2.933
2.93335
2.93551
2.93354
2.92505
2.91428
2.90986
2.90864
2.90881
2.9113
2.91682
2.92424
2.92825
2.9268
2.92035
2.91281
2.90267
2.89072
2.88212
2.87791
2.87536
2.87615
2.88088
2.89028
2.89892
2.90068
1
1
1
1
1
1
1
1
1
1
1
1
1
1
1
1
1
1
1
1
1
1
1
1
1
1
1
1
1
1
1
1
1
1
1
1
1
1
1
1
1
1
1
1
1
1
1
1
1
1
1
1
1
1
1
1
1
1
1
1
1
1
1
1
1
1.16497
2.50079
2.91876
2.92818
2.93169
2.93398
2.93408
2.9359
2.93364
2.92483
2.91364
2.90845
2.90701
2.90718
2.90986
2.91575
2.92372
2.92824
2.92715
2.92101
2.91351
2.90312
2.89078
2.88203
2.87778
2.87523
2.87603
2.88077
2.89023
2.89918
2.90132
1
1
1
1
1
1
1
1
1
1
1
1
1
1
1
1
1
1
1
1
1
1
1
1
1
1
1
1
1
1
1
1
1
1
1
1
1
1
1
1
1
1
1
1
1
1
1
1
1
1
1
1
1
1
1
1
1
1
1
1
1
1
1
1
1
1.17326
2.50458
2.91746
2.92846
2.93286
2.93518
2.93495
2.93624
2.93353
2.92428
2.91263
2.90666
2.90493
2.90506
2.9079
2.91424
2.92292
2.9281
2.92747
2.92183
2.9145
2.90396
2.89118
2.88211
2.87779
2.8752
2.87596
2.88062
2.89007
2.89941
2.90208
1
1
1
1
1
1
1
1
1
1
1
1
1
1
1
1
1
1
1
1
1
1
1
1
1
1
1
1
1
1
1
1
1
1
1
1
1
1
1
1
1
1
1
1
1
1
1
1
1
1
1
1
1
1
1
1
1
1
1
1
1
1
1
1
1
1.18324
2.50924
2.91615
2.92893
2.93414
2.93643
2.93583
2.93642
2.93319
2.92348
2.91141
2.90477
2.9027
2.90273
2.90567
2.91243
2.92183
2.92778
2.92768
2.9227
2.91572
2.90518
2.89198
2.88244
2.87799
2.87531
2.87594
2.88038
2.88969
2.89944
2.90278
1
1
1
1
1
1
1
1
1
1
1
1
1
1
1
1
1
1
1
1
1
1
1
1
1
1
1
1
1
1
1
1
1
1
1
1
1
1
1
1
1
1
1
1
1
1
1
1
1
1
1
1
1
1
1
1
1
1
1
1
1
1
1
1
1
1.1951
2.51498
2.91492
2.92937
2.93526
2.93756
2.9367
2.93645
2.93265
2.92259
2.91014
2.90288
2.90049
2.90038
2.90334
2.9104
2.92046
2.92725
2.92772
2.92357
2.9171
2.90677
2.89326
2.88316
2.87849
2.87561
2.87597
2.88
2.88898
2.89909
2.90321
1
1
1
1
1
1
1
1
1
1
1
1
1
1
1
1
1
1
1
1
1
1
1
1
1
1
1
1
1
1
1
1
1
1
1
1
1
1
1
1
1
1
1
1
1
1
1
1
1
1
1
1
1
1
1
1
1
1
1
1
1
1
1
1
1
1.20895
2.52195
2.91388
2.92955
2.93591
2.93844
2.93751
2.93644
2.93208
2.92174
2.90891
2.90105
2.89836
2.89809
2.90096
2.90819
2.91882
2.9265
2.92764
2.92433
2.91856
2.90868
2.89499
2.88426
2.87929
2.87613
2.87608
2.87947
2.88789
2.89825
2.90325
1
1
1
1
1
1
1
1
1
1
1
1
1
1
1
1
1
1
1
1
1
1
1
1
1
1
1
1
1
1
1
1
1
1
1
1
1
1
1
1
1
1
1
1
1
1
1
1
1
1
1
1
1
1
1
1
1
1
1
1
1
1
1
1
1
1.22478
2.5302
2.91312
2.92945
2.93599
2.93887
2.93813
2.93637
2.93157
2.921
2.90781
2.89934
2.89638
2.89589
2.89861
2.90584
2.91691
2.92553
2.9274
2.92489
2.91997
2.91081
2.89719
2.88571
2.88034
2.87688
2.87631
2.87887
2.88642
2.89683
2.90292
1
1
1
1
1
1
1
1
1
1
1
1
1
1
1
1
1
1
1
1
1
1
1
1
1
1
1
1
1
1
1
1
1
1
1
1
1
1
1
1
1
1
1
1
1
1
1
1
1
1
1
1
1
1
1
1
1
1
1
1
1
1
1
1
1
1.24248
2.53966
2.91269
2.92908
2.93556
2.93873
2.9384
2.93617
2.93112
2.92042
2.90691
2.89784
2.89459
2.89385
2.89634
2.90341
2.91475
2.9243
2.92694
2.92516
2.92119
2.91303
2.89986
2.88758
2.88162
2.8779
2.87667
2.87837
2.88471
2.89481
2.90211
1
1
1
1
1
1
1
1
1
1
1
1
1
1
1
1
1
1
1
1
1
1
1
1
1
1
1
1
1
1
1
1
1
1
1
1
1
1
1
1
1
1
1
1
1
1
1
1
1
1
1
1
1
1
1
1
1
1
1
1
1
1
1
1
1
1.26177
2.5501
2.91252
2.92847
2.93467
2.93802
2.93822
2.93574
2.93069
2.9201
2.90633
2.89661
2.89307
2.89202
2.89417
2.90091
2.91232
2.92272
2.92624
2.92511
2.92212
2.91518
2.90298
2.89004
2.88316
2.87922
2.87726
2.87814
2.88297
2.89225
2.9006
1
1
1
1
1
1
1
1
1
1
1
1
1
1
1
1
1
1
1
1
1
1
1
1
1
1
1
1
1
1
1
1
1
1
1
1
1
1
1
1
1
1
1
1
1
1
1
1
1
1
1
1
1
1
1
1
1
1
1
1
1
1
1
1
1
1.28223
2.56117
2.91246
2.92765
2.93345
2.93681
2.93751
2.93506
2.93021
2.92004
2.9062
2.89576
2.89183
2.89045
2.89216
2.89834
2.90955
2.92073
2.92527
2.92475
2.92268
2.91712
2.90644
2.89325
2.88508
2.88089
2.87819
2.87829
2.88145
2.88932
2.89814
1
1
1
1
1
1
1
1
1
1
1
1
1
1
1
1
1
1
1
1
1
1
1
1
1
1
1
1
1
1
1
1
1
1
1
1
1
1
1
1
1
1
1
1
1
1
1
1
1
1
1
1
1
1
1
1
1
1
1
1
1
1
1
1
1
1.30339
2.5725
2.91231
2.92666
2.93204
2.93526
2.93637
2.93413
2.92964
2.92018
2.90655
2.89539
2.89089
2.88918
2.89035
2.89577
2.90645
2.91828
2.92405
2.92416
2.92293
2.91876
2.91001
2.89736
2.88759
2.88291
2.87956
2.87876
2.88033
2.88627
2.89469
1
1
1
1
1
1
1
1
1
1
1
1
1
1
1
1
1
1
1
1
1
1
1
1
1
1
1
1
1
1
1
1
1
1
1
1
1
1
1
1
1
1
1
1
1
1
1
1
1
1
1
1
1
1
1
1
1
1
1
1
1
1
1
1
1
1.32487
2.58378
2.91189
2.92544
2.9305
2.93354
2.93499
2.93308
2.92903
2.9205
2.90742
2.89556
2.89022
2.88824
2.88877
2.89322
2.90303
2.91533
2.92256
2.92351
2.9229
2.92007
2.91337
2.90222
2.89101
2.88519