/*--------------------------------*- C++ -*----------------------------------*\
  =========                 |
  \\      /  F ield         | OpenFOAM: The Open Source CFD Toolbox
   \\    /   O peration     | Website:  https://openfoam.org
    \\  /    A nd           | Version:  7
     \\/     M anipulation  |
\*---------------------------------------------------------------------------*/
FoamFile
{
    version     2.0;
    format      ascii;
    class       volVectorField;
    location    "1.5";
    object      U;
}
// * * * * * * * * * * * * * * * * * * * * * * * * * * * * * * * * * * * * * //

dimensions      [0 1 -1 0 0 0 0];

internalField   nonuniform List<vector> 
73728
(
(3 -2.85237e-17 0)
(3 3.10779e-17 0)
(3 4.19396e-16 0)
(3 4.97321e-16 0)
(3 4.02882e-16 0)
(3 3.42384e-16 0)
(3 4.19695e-16 0)
(3 5.62076e-16 0)
(3 5.53463e-17 0)
(3 -4.61122e-16 0)
(3 -6.75596e-16 0)
(3 -7.74228e-16 0)
(3 -8.9795e-16 0)
(3 -6.57943e-16 0)
(3 -8.28533e-16 0)
(3 -2.68664e-16 0)
(3 -4.22792e-16 0)
(3 -1.0268e-15 0)
(3 -1.92386e-15 0)
(3 -2.27478e-15 0)
(3 -1.95623e-15 0)
(3 -8.96545e-16 0)
(3 1.39283e-15 0)
(3 1.63076e-15 0)
(3 3.3173e-16 0)
(3 -1.57085e-16 0)
(3 -3.22988e-16 0)
(3 -8.29144e-17 0)
(3 9.39535e-17 0)
(3 6.71683e-17 0)
(3 1.36717e-16 0)
(3 6.25532e-16 0)
(3 9.96038e-16 0)
(3 7.1955e-16 0)
(3 7.20473e-16 0)
(3 8.72534e-16 0)
(3 1.23161e-15 0)
(3 1.17735e-15 0)
(3 9.50278e-16 0)
(3 1.17349e-15 0)
(3 1.54877e-15 0)
(3 1.82886e-15 0)
(3 1.89396e-15 0)
(3 7.98654e-16 0)
(3 3.14683e-16 0)
(3 -5.18674e-16 0)
(3 -1.71713e-15 0)
(3 -3.0299e-15 0)
(3 -2.76468e-15 0)
(3 -1.1679e-15 0)
(3 -5.47872e-16 0)
(3 -3.38992e-16 0)
(3 -4.3081e-16 0)
(3 -6.8222e-16 0)
(3 -1.19588e-15 0)
(3 -1.52089e-15 0)
(3 -1.67974e-15 0)
(3 -6.58908e-16 0)
(3 8.26464e-16 0)
(3 1.95492e-15 0)
(3 2.9145e-15 0)
(3 1.98029e-15 0)
(3 5.95923e-16 0)
(3 -7.56591e-16 0)
(3 -8.18175e-16 0)
(3 -4.54124e-16 0)
(3 2.49096e-16 0)
(3 1.49131e-15 0)
(3 1.22514e-15 0)
(3 7.81819e-16 0)
(3 2.03054e-16 0)
(3 -1.19063e-15 0)
(3 -1.7604e-15 0)
(3 -1.31759e-15 0)
(3 -6.84383e-16 0)
(3 -1.92897e-15 0)
(3 -2.38091e-15 0)
(3 -2.00449e-15 0)
(3 -1.59718e-15 0)
(3 -1.5449e-15 0)
(3 -1.55604e-15 0)
(3 -5.92813e-16 0)
(3 1.17443e-15 0)
(3 1.28356e-15 0)
(3 1.39313e-15 0)
(3 1.2331e-15 0)
(3 2.38178e-16 0)
(3 -3.62892e-16 0)
(3 -3.60774e-16 0)
(3 5.12055e-16 0)
(3 1.98248e-15 0)
(3 2.4049e-15 0)
(3 1.42883e-15 0)
(3 1.10479e-15 0)
(3 1.16533e-15 0)
(3 1.43454e-15 0)
(3 -9.19753e-17 0)
(3 -9.97307e-18 0)
(3 3.20345e-16 0)
(3 -3.71638e-16 0)
(3 -8.72535e-17 0)
(3 7.77685e-16 0)
(3 1.51266e-15 0)
(3 1.22524e-15 0)
(3 7.7399e-16 0)
(3 2.5675e-16 0)
(3 5.39085e-17 0)
(3 -6.57611e-16 0)
(3 -1.45577e-15 0)
(3 -1.51063e-15 0)
(3 -1.60482e-15 0)
(3 -1.40683e-15 0)
(3 -1.28978e-15 0)
(3 -2.05774e-15 0)
(3 -2.38811e-15 0)
(3 -2.64884e-15 0)
(3 -2.12952e-15 0)
(3 -1.13986e-15 0)
(3 1.23778e-15 0)
(3 1.73927e-15 0)
(3 1.1736e-15 0)
(3 7.96594e-16 0)
(3 2.73778e-16 0)
(3 2.69755e-16 0)
(3 -1.76166e-16 0)
(3 -9.81482e-16 0)
(3 -1.26772e-16 0)
(3 1.4549e-15 0)
(3 1.72606e-15 0)
(3 1.07213e-15 0)
(3 5.02123e-16 0)
(3 -8.40547e-17 0)
(3 -2.81395e-16 0)
(3 -2.38649e-17 0)
(3 1.90188e-16 0)
(3 1.03517e-15 0)
(3 1.50385e-15 0)
(3 1.92071e-15 0)
(3 1.79117e-15 0)
(3 9.15297e-16 0)
(3 -1.19376e-17 0)
(3 -1.68536e-15 0)
(3 -4.22553e-15 0)
(3 -4.39767e-15 0)
(3 -4.20396e-15 0)
(3 -2.54732e-15 0)
(3 -3.09924e-16 0)
(3 -2.61072e-17 0)
(3 2.56018e-16 0)
(3 1.11946e-16 0)
(3 -2.88442e-16 0)
(3 -1.4612e-15 0)
(3 -1.74374e-15 0)
(3 -1.87794e-15 0)
(3 -2.33468e-16 0)
(3 1.50471e-15 0)
(3 1.70999e-15 0)
(3 9.60296e-16 0)
(3 4.32328e-16 0)
(3 2.29196e-16 0)
(3 5.19745e-16 0)
(3 5.46109e-16 0)
(3 1.17148e-15 0)
(3 2.30801e-15 0)
(3 1.61145e-15 0)
(3 6.73262e-16 0)
(3 -1.51551e-15 0)
(3 -3.38007e-15 0)
(3 -4.10617e-15 0)
(3 -3.7112e-15 0)
(3 -2.94591e-15 0)
(3 -4.03117e-15 0)
(3 -5.70753e-15 0)
(3 -6.22269e-15 0)
(3 -4.40896e-15 0)
(3 -2.78234e-15 0)
(3 -2.77064e-15 0)
(3 -1.39695e-15 0)
(3 1.40925e-15 0)
(3 1.80015e-15 0)
(3 1.98602e-15 0)
(3 1.70881e-15 0)
(3 1.34427e-15 0)
(3 4.86826e-16 0)
(3 1.161e-16 0)
(3 1.89932e-15 0)
(3 4.66663e-15 0)
(3 4.84353e-15 0)
(3 3.43415e-15 0)
(3 2.61311e-15 0)
(3 1.36999e-15 0)
(3 1.54421e-15 0)
(3 -2.24925e-16 0)
(3 -5.44433e-17 0)
(3 -2.44982e-16 0)
(3 -6.2688e-16 0)
(3 -1.44452e-16 0)
(3 3.00575e-16 0)
(3 9.61928e-16 0)
(3 1.07244e-15 0)
(3 1.55624e-15 0)
(3 1.60933e-15 0)
(3 1.4282e-15 0)
(3 7.93461e-16 0)
(3 5.21435e-16 0)
(3 -1.14952e-15 0)
(3 -1.44121e-15 0)
(3 -2.55924e-15 0)
(3 -2.77273e-15 0)
(3 -3.00417e-15 0)
(3 -1.86015e-15 0)
(3 -1.19548e-15 0)
(3 -3.68221e-17 0)
(3 6.76957e-16 0)
(3 1.1756e-15 0)
(3 1.55666e-15 0)
(3 1.76496e-15 0)
(3 1.67729e-15 0)
(3 1.59955e-15 0)
(3 9.22752e-16 0)
(3 -2.61814e-16 0)
(3 -6.05602e-16 0)
(3 2.61044e-16 0)
(3 6.54608e-16 0)
(3 1.27606e-15 0)
(3 9.08637e-16 0)
(3 4.51577e-16 0)
(3 -2.36633e-16 0)
(3 -8.84233e-16 0)
(3 -1.04445e-15 0)
(3 -4.33968e-16 0)
(3 1.8012e-16 0)
(3 1.36847e-16 0)
(3 -1.82742e-16 0)
(3 -6.38777e-16 0)
(3 -1.15117e-15 0)
(3 -1.8332e-15 0)
(3 -3.03932e-15 0)
(3 -3.70668e-15 0)
(3 -3.94393e-15 0)
(3 -3.49837e-15 0)
(3 -3.3693e-15 0)
(3 -3.42105e-15 0)
(3 -2.5042e-15 0)
(3 -1.62964e-15 0)
(3 -1.33471e-15 0)
(3 -1.03914e-15 0)
(3 -1.61405e-15 0)
(3 -2.57676e-15 0)
(3 -2.94571e-15 0)
(3 -2.85676e-15 0)
(3 -2.68954e-15 0)
(3 -9.51086e-16 0)
(3 -6.22143e-16 0)
(3 5.60999e-16 0)
(3 2.53203e-15 0)
(3 3.61707e-15 0)
(3 3.1665e-15 0)
(3 3.00136e-15 0)
(3 2.62259e-15 0)
(3 1.7843e-15 0)
(3 1.63417e-15 0)
(3 3.15373e-16 0)
(3 -8.43594e-16 0)
(3 -1.88463e-15 0)
(3 -3.197e-15 0)
(3 -4.64538e-15 0)
(3 -6.60804e-15 0)
(3 -7.7575e-15 0)
(3 -7.54646e-15 0)
(3 -6.97463e-15 0)
(3 -3.90986e-15 0)
(3 -2.7694e-15 0)
(3 -2.5515e-15 0)
(3 7.92792e-17 0)
(3 5.60529e-16 0)
(3 4.22888e-16 0)
(3 7.9181e-16 0)
(3 1.6354e-15 0)
(3 2.41321e-15 0)
(3 3.41108e-15 0)
(3 3.77315e-15 0)
(3 3.3075e-15 0)
(3 3.11334e-15 0)
(3 3.00038e-15 0)
(3 2.36282e-15 0)
(3 7.78556e-16 0)
(3 6.55064e-16 0)
(3 1.36513e-16 0)
(3 -1.67629e-16 0)
(3 -6.75411e-18 0)
(3 -1.55793e-17 0)
(3 -2.25778e-16 0)
(3 -7.76737e-16 0)
(3 -5.25027e-16 0)
(3 -5.46931e-17 0)
(3 2.35634e-16 0)
(3 4.79914e-16 0)
(3 1.87434e-16 0)
(3 3.41681e-16 0)
(3 1.74285e-16 0)
(3 -3.06297e-16 0)
(3 -4.34782e-16 0)
(3 -6.19631e-17 0)
(3 -5.0782e-16 0)
(3 -8.69092e-17 0)
(3 4.89813e-16 0)
(3 9.34399e-16 0)
(3 1.55033e-15 0)
(3 1.70685e-15 0)
(3 1.95656e-15 0)
(3 1.38437e-15 0)
(3 9.41389e-16 0)
(3 2.78116e-16 0)
(3 4.40337e-16 0)
(3 2.16901e-16 0)
(3 -3.45251e-16 0)
(3 1.03649e-16 0)
(3 6.27845e-16 0)
(3 9.53341e-16 0)
(3 1.15671e-15 0)
(3 1.00025e-15 0)
(3 9.72076e-16 0)
(3 7.68014e-16 0)
(3 1.83979e-16 0)
(3 -1.42503e-16 0)
(3 -3.27177e-17 0)
(3 1.36361e-16 0)
(3 9.8992e-16 0)
(3 1.10779e-16 0)
(3 -1.64471e-15 0)
(3 -1.81738e-15 0)
(3 -2.78576e-15 0)
(3 -2.97319e-15 0)
(3 -2.29144e-15 0)
(3 -2.26037e-15 0)
(3 -1.95411e-15 0)
(3 -2.28701e-15 0)
(3 -2.28581e-15 0)
(3 -2.23931e-15 0)
(3 -2.47135e-15 0)
(3 -1.83382e-15 0)
(3 -1.04669e-15 0)
(3 -9.64434e-16 0)
(3 -1.75113e-15 0)
(3 -2.44086e-15 0)
(3 -2.61484e-15 0)
(3 -1.53348e-15 0)
(3 8.58774e-16 0)
(3 1.70548e-15 0)
(3 1.64165e-15 0)
(3 2.02264e-15 0)
(3 2.87807e-15 0)
(3 2.71378e-15 0)
(3 2.5754e-15 0)
(3 2.84742e-15 0)
(3 3.28904e-15 0)
(3 1.87551e-15 0)
(3 1.56106e-15 0)
(3 -1.24931e-15 0)
(3 -4.23043e-15 0)
(3 -5.24838e-15 0)
(3 -5.20829e-15 0)
(3 -5.40355e-15 0)
(3 -5.84166e-15 0)
(3 -6.4115e-15 0)
(3 -6.31607e-15 0)
(3 -4.66673e-15 0)
(3 -2.98194e-15 0)
(3 -1.18527e-15 0)
(3 -1.64823e-15 0)
(3 -2.06131e-15 0)
(3 -2.20971e-15 0)
(3 -1.75874e-15 0)
(3 -2.42222e-16 0)
(3 2.25438e-15 0)
(3 3.24325e-15 0)
(3 3.47709e-15 0)
(3 2.85032e-15 0)
(3 1.35864e-15 0)
(3 1.38006e-15 0)
(3 1.28189e-15 0)
(3 6.59282e-16 0)
(3 1.40279e-17 0)
(3 3.34053e-17 0)
(3 -2.96594e-16 0)
(3 -9.24295e-16 0)
(3 -1.31149e-15 0)
(3 -1.83791e-15 0)
(3 -1.4192e-15 0)
(3 -1.06428e-15 0)
(3 -9.27824e-16 0)
(3 -5.75793e-16 0)
(3 -3.40103e-16 0)
(3 -6.28784e-16 0)
(3 -9.50125e-16 0)
(3 -1.2454e-15 0)
(3 -9.86014e-16 0)
(3 -4.38703e-16 0)
(3 5.65979e-16 0)
(3 1.83945e-15 0)
(3 2.1863e-15 0)
(3 2.97152e-15 0)
(3 2.75092e-15 0)
(3 2.24562e-15 0)
(3 1.99721e-15 0)
(3 1.04868e-15 0)
(3 1.05984e-15 0)
(3 1.62613e-16 0)
(3 -6.36086e-16 0)
(3 -6.98434e-16 0)
(3 -6.69433e-16 0)
(3 -6.56641e-16 0)
(3 -1.27296e-15 0)
(3 -2.10211e-15 0)
(3 -1.4656e-15 0)
(3 -7.69819e-16 0)
(3 -1.26077e-16 0)
(3 -5.65045e-17 0)
(3 -8.51456e-16 0)
(3 -1.39834e-15 0)
(3 -8.93692e-16 0)
(3 -4.28173e-16 0)
(3 -5.46022e-16 0)
(3 -1.89469e-15 0)
(3 -3.10677e-15 0)
(3 -3.60015e-15 0)
(3 -3.19201e-15 0)
(3 -2.32501e-15 0)
(3 -2.1414e-15 0)
(3 -1.17788e-15 0)
(3 -6.07492e-16 0)
(3 -3.141e-16 0)
(3 -2.83318e-17 0)
(3 7.11869e-17 0)
(3 -1.06308e-15 0)
(3 -1.23013e-15 0)
(3 -1.27089e-15 0)
(3 -1.08242e-15 0)
(3 -8.49843e-16 0)
(3 -6.95667e-16 0)
(3 -1.55349e-15 0)
(3 -1.87324e-15 0)
(3 -2.09369e-15 0)
(3 -1.15144e-15 0)
(3 -7.71463e-16 0)
(3 -2.36783e-16 0)
(3 -7.70981e-16 0)
(3 -4.8011e-17 0)
(3 1.236e-15 0)
(3 2.62908e-15 0)
(3 4.20498e-15 0)
(3 4.79577e-15 0)
(3 3.34221e-15 0)
(3 1.55329e-15 0)
(3 -2.2666e-15 0)
(3 -5.43483e-15 0)
(3 -5.67093e-15 0)
(3 -4.48608e-15 0)
(3 -3.95623e-15 0)
(3 -3.78662e-15 0)
(3 -3.96702e-15 0)
(3 -4.17219e-15 0)
(3 -2.43406e-15 0)
(3 5.01889e-16 0)
(3 5.95092e-16 0)
(3 -2.10332e-16 0)
(3 -4.39899e-16 0)
(3 -2.56521e-16 0)
(3 -2.1459e-19 0)
(3 8.75946e-16 0)
(3 1.66908e-15 0)
(3 1.76375e-15 0)
(3 1.6281e-15 0)
(3 1.77301e-15 0)
(3 1.31211e-15 0)
(3 5.23002e-16 0)
(3 2.95179e-16 0)
(3 -4.71707e-16 0)
(3 -9.04777e-16 0)
(3 -4.37805e-16 0)
(3 -2.0051e-16 0)
(3 -8.82609e-16 0)
(3 -1.01524e-15 0)
(3 -6.83583e-16 0)
(3 -9.49509e-16 0)
(3 -1.6125e-15 0)
(3 -1.74299e-15 0)
(3 -1.76445e-15 0)
(3 -1.71841e-15 0)
(3 -1.3888e-15 0)
(3 -1.2615e-15 0)
(3 -1.22575e-15 0)
(3 -8.20101e-16 0)
(3 6.99526e-17 0)
(3 -1.65445e-17 0)
(3 3.48579e-16 0)
(3 1.169e-15 0)
(3 1.3604e-15 0)
(3 1.69258e-15 0)
(3 1.5787e-15 0)
(3 1.18279e-15 0)
(3 7.88625e-16 0)
(3 1.02338e-16 0)
(3 -1.61816e-16 0)
(3 5.32344e-16 0)
(3 1.1127e-15 0)
(3 9.91596e-16 0)
(3 2.17535e-16 0)
(3 -1.3051e-15 0)
(3 -1.66072e-15 0)
(3 -1.9982e-15 0)
(3 -1.65163e-15 0)
(3 -6.85815e-16 0)
(3 -8.06268e-16 0)
(3 -1.1826e-15 0)
(3 -1.20175e-15 0)
(3 -1.49613e-15 0)
(3 -1.7776e-15 0)
(3 -2.71801e-15 0)
(3 -4.81614e-15 0)
(3 -5.60658e-15 0)
(3 -5.32524e-15 0)
(3 -3.8028e-15 0)
(3 -2.18202e-15 0)
(3 6.93359e-16 0)
(3 9.66667e-16 0)
(3 9.38022e-16 0)
(3 4.76013e-16 0)
(3 1.68066e-17 0)
(3 -5.06155e-17 0)
(3 2.32768e-16 0)
(3 -2.09289e-16 0)
(3 -5.00358e-16 0)
(3 -8.0275e-16 0)
(3 -7.42332e-16 0)
(3 5.67162e-16 0)
(3 7.65212e-16 0)
(3 -2.64641e-16 0)
(3 -1.51346e-15 0)
(3 -2.48582e-15 0)
(3 -2.46377e-15 0)
(3 -6.0247e-16 0)
(3 -1.96749e-16 0)
(3 3.38929e-16 0)
(3 9.74537e-16 0)
(3 1.45656e-15 0)
(3 6.22787e-16 0)
(3 6.1665e-16 0)
(3 -1.27158e-15 0)
(3 -2.14912e-15 0)
(3 -2.94855e-15 0)
(3 -2.83414e-15 0)
(3 -2.74979e-15 0)
(3 -5.19201e-15 0)
(3 -5.39894e-15 0)
(3 -3.05004e-15 0)
(3 -3.56169e-16 0)
(3 1.13084e-15 0)
(3 2.11221e-15 0)
(3 1.75722e-15 0)
(3 1.39914e-15 0)
(3 1.2505e-15 0)
(3 1.5071e-15 0)
(3 1.93727e-15 0)
(3 2.08166e-15 0)
(3 1.01418e-15 0)
(3 8.27083e-16 0)
(3 1.05592e-15 0)
(3 4.61975e-16 0)
(3 -3.9001e-17 0)
(3 -1.21413e-16 0)
(3 -5.47126e-16 0)
(3 -5.97602e-16 0)
(3 -1.25562e-15 0)
(3 -1.74324e-15 0)
(3 1.71638e-17 0)
(3 1.17735e-16 0)
(3 2.86916e-16 0)
(3 5.69317e-17 0)
(3 -1.94931e-16 0)
(3 -8.05037e-16 0)
(3 -1.51529e-15 0)
(3 -1.69095e-15 0)
(3 -2.50236e-15 0)
(3 -2.89468e-15 0)
(3 -2.16243e-15 0)
(3 -1.526e-15 0)
(3 -1.06119e-15 0)
(3 4.97664e-16 0)
(3 5.67274e-16 0)
(3 6.48231e-16 0)
(3 1.10829e-16 0)
(3 -3.17862e-16 0)
(3 -1.20867e-15 0)
(3 -1.17165e-15 0)
(3 -5.27748e-16 0)
(3 -8.17739e-16 0)
(3 -2.64985e-16 0)
(3 -4.82873e-17 0)
(3 2.17459e-16 0)
(3 9.18459e-16 0)
(3 8.34006e-16 0)
(3 5.62097e-17 0)
(3 -7.46637e-16 0)
(3 -1.42302e-15 0)
(3 -1.40612e-15 0)
(3 -1.38781e-15 0)
(3 -1.25619e-15 0)
(3 -1.50364e-15 0)
(3 -1.21621e-15 0)
(3 -6.92159e-16 0)
(3 -1.27274e-15 0)
(3 -3.60699e-15 0)
(3 -4.59493e-15 0)
(3 -4.65634e-15 0)
(3 -4.68988e-15 0)
(3 -4.95895e-15 0)
(3 -4.11081e-15 0)
(3 -1.55447e-15 0)
(3 1.0139e-15 0)
(3 2.2191e-15 0)
(3 2.06635e-15 0)
(3 2.02736e-15 0)
(3 1.7297e-15 0)
(3 1.38206e-15 0)
(3 1.88544e-15 0)
(3 3.17345e-15 0)
(3 3.03053e-15 0)
(3 2.60939e-15 0)
(3 3.02229e-15 0)
(3 2.97114e-15 0)
(3 2.62805e-15 0)
(3 2.36812e-15 0)
(3 1.02277e-15 0)
(3 -1.55289e-15 0)
(3 -3.52618e-15 0)
(3 -2.94238e-15 0)
(3 -4.35839e-16 0)
(3 4.91781e-16 0)
(3 2.39183e-16 0)
(3 -2.7673e-16 0)
(3 -1.28443e-15 0)
(3 -3.94207e-15 0)
(3 -4.69908e-15 0)
(3 -4.7052e-15 0)
(3 -3.56729e-15 0)
(3 -1.71923e-15 0)
(3 5.92957e-16 0)
(3 1.25896e-15 0)
(3 -1.27054e-15 0)
(3 -1.28066e-15 0)
(3 -1.22217e-15 0)
(3 4.71626e-16 0)
(3 2.48277e-15 0)
(3 3.26456e-15 0)
(3 2.63977e-15 0)
(3 1.96305e-15 0)
(3 2.67612e-15 0)
(3 2.73964e-15 0)
(3 3.47012e-15 0)
(3 3.71129e-15 0)
(3 3.4893e-15 0)
(3 3.28547e-15 0)
(3 2.27163e-15 0)
(3 7.35527e-16 0)
(3 -1.68054e-15 0)
(3 -1.5474e-15 0)
(3 3.11625e-16 0)
(3 6.52843e-16 0)
(3 2.59762e-16 0)
(3 -1.34402e-15 0)
(3 2.14204e-16 0)
(3 2.21325e-16 0)
(3 -3.57442e-17 0)
(3 4.65134e-16 0)
(3 1.29526e-16 0)
(3 -4.21142e-16 0)
(3 -2.7177e-16 0)
(3 -3.82786e-16 0)
(3 1.4897e-16 0)
(3 -1.01365e-16 0)
(3 -9.77357e-16 0)
(3 -6.94674e-16 0)
(3 3.45063e-16 0)
(3 7.24772e-16 0)
(3 4.70712e-16 0)
(3 4.69847e-16 0)
(3 -5.66993e-16 0)
(3 -9.93023e-16 0)
(3 -1.40856e-15 0)
(3 -2.36427e-15 0)
(3 -2.7388e-15 0)
(3 -2.51457e-15 0)
(3 -1.83004e-15 0)
(3 -8.00962e-16 0)
(3 -3.74187e-16 0)
(3 -9.34157e-16 0)
(3 -1.68783e-15 0)
(3 -1.74707e-15 0)
(3 -4.63948e-16 0)
(3 -4.29216e-16 0)
(3 -7.20204e-16 0)
(3 -1.04795e-15 0)
(3 -1.23468e-15 0)
(3 -1.70976e-15 0)
(3 -1.46707e-15 0)
(3 -1.52434e-15 0)
(3 -2.33152e-15 0)
(3 -2.58227e-15 0)
(3 -3.2661e-15 0)
(3 -4.0209e-15 0)
(3 -3.8961e-15 0)
(3 -3.42482e-15 0)
(3 -2.2343e-15 0)
(3 -1.63391e-15 0)
(3 -1.20686e-15 0)
(3 6.56837e-17 0)
(3 1.30418e-15 0)
(3 2.63585e-15 0)
(3 3.11294e-15 0)
(3 3.34822e-15 0)
(3 3.22616e-15 0)
(3 3.32859e-15 0)
(3 5.25415e-15 0)
(3 5.75041e-15 0)
(3 5.33894e-15 0)
(3 4.81284e-15 0)
(3 3.86068e-15 0)
(3 2.84732e-15 0)
(3 1.59833e-15 0)
(3 3.21426e-16 0)
(3 -4.74666e-16 0)
(3 -1.07647e-15 0)
(3 -1.42252e-15 0)
(3 -1.04998e-15 0)
(3 -1.19265e-15 0)
(3 -2.64503e-15 0)
(3 -4.57255e-15 0)
(3 -4.47277e-15 0)
(3 -4.71554e-15 0)
(3 -4.79781e-15 0)
(3 -4.52746e-15 0)
(3 -2.96062e-15 0)
(3 -8.14834e-16 0)
(3 8.59612e-16 0)
(3 1.5279e-15 0)
(3 1.13134e-15 0)
(3 9.52321e-16 0)
(3 1.18237e-15 0)
(3 6.40919e-16 0)
(3 1.18184e-15 0)
(3 2.06132e-15 0)
(3 2.30662e-15 0)
(3 2.98577e-15 0)
(3 3.99355e-15 0)
(3 4.23391e-15 0)
(3 5.60492e-15 0)
(3 6.13779e-15 0)
(3 5.33291e-15 0)
(3 2.61028e-15 0)
(3 6.2348e-16 0)
(3 -8.37735e-16 0)
(3 -6.59405e-16 0)
(3 2.44877e-16 0)
(3 4.45904e-16 0)
(3 9.0884e-17 0)
(3 -1.2235e-15 0)
(3 -1.81459e-16 0)
(3 -1.47537e-16 0)
(3 -1.24194e-16 0)
(3 2.87986e-16 0)
(3 2.38695e-16 0)
(3 3.0448e-16 0)
(3 4.744e-16 0)
(3 3.65793e-16 0)
(3 9.27717e-16 0)
(3 1.0963e-15 0)
(3 1.63552e-15 0)
(3 1.76987e-15 0)
(3 1.39565e-15 0)
(3 8.19985e-16 0)
(3 7.27594e-16 0)
(3 3.60897e-16 0)
(3 -1.83829e-17 0)
(3 -9.14207e-17 0)
(3 -5.30894e-16 0)
(3 -1.44495e-15 0)
(3 -2.71898e-15 0)
(3 -3.11837e-15 0)
(3 -3.04605e-15 0)
(3 -2.26857e-15 0)
(3 -2.38996e-15 0)
(3 -2.03245e-15 0)
(3 -2.15734e-15 0)
(3 -1.75631e-15 0)
(3 -1.10936e-15 0)
(3 -2.27035e-16 0)
(3 1.2367e-16 0)
(3 -5.2058e-16 0)
(3 -8.66582e-16 0)
(3 -6.89484e-16 0)
(3 -1.29532e-15 0)
(3 -1.4336e-15 0)
(3 -8.22135e-16 0)
(3 -2.4425e-16 0)
(3 -7.55829e-16 0)
(3 -1.21796e-15 0)
(3 -3.65189e-16 0)
(3 8.98354e-16 0)
(3 1.35962e-15 0)
(3 2.5518e-16 0)
(3 -3.28326e-16 0)
(3 6.01034e-17 0)
(3 4.43284e-16 0)
(3 1.259e-15 0)
(3 1.90961e-15 0)
(3 1.88777e-15 0)
(3 3.55457e-16 0)
(3 4.93997e-16 0)
(3 7.66674e-16 0)
(3 3.26892e-15 0)
(3 3.81232e-15 0)
(3 2.68879e-15 0)
(3 2.19116e-15 0)
(3 1.41779e-15 0)
(3 1.79156e-15 0)
(3 2.02712e-15 0)
(3 6.17761e-16 0)
(3 -6.63942e-16 0)
(3 -2.19729e-15 0)
(3 -2.63181e-15 0)
(3 -2.3708e-15 0)
(3 -2.76259e-15 0)
(3 -3.51885e-15 0)
(3 -3.86492e-15 0)
(3 -4.08995e-15 0)
(3 -4.28182e-15 0)
(3 -3.52967e-15 0)
(3 -2.64803e-16 0)
(3 1.01248e-15 0)
(3 1.48049e-15 0)
(3 1.65905e-15 0)
(3 1.08572e-15 0)
(3 8.73267e-16 0)
(3 1.1825e-16 0)
(3 -2.70141e-16 0)
(3 -9.35209e-16 0)
(3 -6.68457e-16 0)
(3 5.47496e-16 0)
(3 1.78143e-15 0)
(3 2.39832e-15 0)
(3 2.86407e-15 0)
(3 4.54704e-15 0)
(3 4.9321e-15 0)
(3 3.75877e-15 0)
(3 2.30146e-15 0)
(3 1.83899e-15 0)
(3 2.61851e-15 0)
(3 1.57792e-15 0)
(3 -6.04607e-16 0)
(3 -1.21287e-15 0)
(3 -1.24325e-15 0)
(3 -1.69541e-15 0)
(3 -1.78328e-16 0)
(3 -3.26142e-16 0)
(3 -1.52582e-16 0)
(3 -4.59427e-16 0)
(3 5.04583e-17 0)
(3 1.0217e-15 0)
(3 1.32222e-15 0)
(3 1.35942e-15 0)
(3 1.3769e-15 0)
(3 1.74885e-15 0)
(3 2.14774e-15 0)
(3 2.13938e-15 0)
(3 1.53005e-15 0)
(3 1.21636e-15 0)
(3 1.13877e-15 0)
(3 8.28663e-16 0)
(3 9.09471e-16 0)
(3 5.62272e-16 0)
(3 4.29884e-17 0)
(3 -1.31613e-16 0)
(3 -5.19757e-16 0)
(3 -8.52814e-16 0)
(3 -1.45596e-15 0)
(3 -1.50919e-15 0)
(3 -1.447e-15 0)
(3 -1.53387e-15 0)
(3 -9.11505e-16 0)
(3 -8.3157e-16 0)
(3 -1.04733e-15 0)
(3 -7.42616e-16 0)
(3 -5.43027e-16 0)
(3 -5.57983e-16 0)
(3 -2.05144e-16 0)
(3 -2.49279e-16 0)
(3 -1.07902e-15 0)
(3 -1.67736e-15 0)
(3 -1.08701e-15 0)
(3 -5.64647e-16 0)
(3 -1.39736e-15 0)
(3 1.19804e-16 0)
(3 9.16571e-16 0)
(3 1.74332e-15 0)
(3 1.99922e-15 0)
(3 1.9748e-15 0)
(3 1.23634e-15 0)
(3 -2.19417e-17 0)
(3 -5.04366e-16 0)
(3 3.47462e-16 0)
(3 7.37289e-16 0)
(3 1.62989e-16 0)
(3 -2.98694e-16 0)
(3 -1.11662e-15 0)
(3 -1.67196e-15 0)
(3 -1.28429e-15 0)
(3 -1.28755e-15 0)
(3 -1.08057e-15 0)
(3 -1.35282e-15 0)
(3 -9.29519e-16 0)
(3 -8.07277e-16 0)
(3 -5.00248e-16 0)
(3 -9.90704e-16 0)
(3 -1.74446e-15 0)
(3 -2.82008e-15 0)
(3 -3.56443e-15 0)
(3 -3.45157e-15 0)
(3 -3.01686e-15 0)
(3 -2.90101e-15 0)
(3 -4.04563e-15 0)
(3 -4.00825e-15 0)
(3 -3.17421e-15 0)
(3 -1.06458e-15 0)
(3 -3.22129e-16 0)
(3 1.06226e-15 0)
(3 1.26055e-15 0)
(3 6.57912e-16 0)
(3 6.81588e-16 0)
(3 7.59497e-16 0)
(3 9.52327e-16 0)
(3 1.54148e-15 0)
(3 1.19667e-15 0)
(3 1.96593e-15 0)
(3 2.23492e-15 0)
(3 2.94514e-15 0)
(3 3.12418e-15 0)
(3 3.22564e-15 0)
(3 3.18631e-15 0)
(3 2.65779e-15 0)
(3 1.36165e-15 0)
(3 9.0037e-16 0)
(3 1.08843e-15 0)
(3 1.98733e-15 0)
(3 1.23055e-15 0)
(3 1.22388e-16 0)
(3 -1.31767e-15 0)
(3 -1.02515e-15 0)
(3 -4.16228e-16 0)
(3 1.31976e-16 0)
(3 4.95092e-16 0)
(3 3.96531e-16 0)
(3 2.55775e-16 0)
(3 6.85567e-16 0)
(3 7.4959e-16 0)
(3 1.37387e-15 0)
(3 1.37184e-15 0)
(3 1.26155e-15 0)
(3 1.0507e-15 0)
(3 2.46063e-16 0)
(3 1.86726e-16 0)
(3 2.3983e-16 0)
(3 4.49187e-16 0)
(3 2.93725e-16 0)
(3 1.79185e-16 0)
(3 -1.75881e-16 0)
(3 -8.39348e-16 0)
(3 -8.96282e-16 0)
(3 -7.38938e-16 0)
(3 -3.88645e-17 0)
(3 2.63415e-16 0)
(3 2.78786e-16 0)
(3 2.3766e-16 0)
(3 3.36039e-16 0)
(3 6.05856e-17 0)
(3 -1.76335e-16 0)
(3 5.05031e-18 0)
(3 -2.98655e-16 0)
(3 -7.00824e-16 0)
(3 -6.23444e-16 0)
(3 -5.47419e-16 0)
(3 -3.86684e-16 0)
(3 -3.32358e-16 0)
(3 -3.26347e-16 0)
(3 -4.88785e-16 0)
(3 -3.76749e-16 0)
(3 1.60252e-16 0)
(3 4.61616e-16 0)
(3 6.02128e-16 0)
(3 1.34719e-16 0)
(3 9.62771e-16 0)
(3 1.66178e-15 0)
(3 2.07631e-15 0)
(3 1.73456e-15 0)
(3 4.71189e-16 0)
(3 8.78687e-17 0)
(3 -6.36101e-16 0)
(3 -8.98318e-16 0)
(3 -7.61914e-16 0)
(3 -8.75356e-16 0)
(3 -9.98075e-16 0)
(3 -1.27813e-15 0)
(3 -2.79931e-15 0)
(3 -4.066e-15 0)
(3 -5.3032e-15 0)
(3 -5.06489e-15 0)
(3 -4.63546e-15 0)
(3 -4.33957e-15 0)
(3 -4.07688e-15 0)
(3 -4.21838e-15 0)
(3 -4.12744e-15 0)
(3 -4.34378e-15 0)
(3 -3.82415e-15 0)
(3 -3.65364e-15 0)
(3 -3.71696e-15 0)
(3 -1.99689e-15 0)
(3 -1.04102e-15 0)
(3 -1.39385e-17 0)
(3 5.18261e-17 0)
(3 -2.65992e-16 0)
(3 -1.69657e-16 0)
(3 5.68605e-16 0)
(3 1.14474e-15 0)
(3 1.2306e-15 0)
(3 1.12554e-15 0)
(3 1.36688e-15 0)
(3 2.29663e-15 0)
(3 2.5894e-15 0)
(3 1.91371e-15 0)
(3 9.68158e-16 0)
(3 6.73895e-16 0)
(3 5.33113e-16 0)
(3 1.09303e-15 0)
(3 1.33673e-15 0)
(3 9.79294e-16 0)
(3 1.15017e-15 0)
(3 1.18143e-15 0)
(3 1.43269e-15 0)
(3 1.71742e-15 0)
(3 1.67096e-15 0)
(3 1.81445e-15 0)
(3 1.64511e-15 0)
(3 1.50022e-15 0)
(3 2.01321e-15 0)
(3 1.80454e-15 0)
(3 -4.95565e-17 0)
(3 -6.81047e-17 0)
(3 -6.95963e-17 0)
(3 4.85316e-16 0)
(3 1.64672e-16 0)
(3 1.68855e-16 0)
(3 -1.0205e-16 0)
(3 -2.46746e-16 0)
(3 -2.64116e-16 0)
(3 -1.22739e-16 0)
(3 -5.45764e-16 0)
(3 -1.0252e-15 0)
(3 -9.95573e-16 0)
(3 -6.97347e-16 0)
(3 -8.72975e-16 0)
(3 -1.93087e-16 0)
(3 -3.85833e-16 0)
(3 -7.84518e-16 0)
(3 -1.16181e-15 0)
(3 -1.29577e-15 0)
(3 -3.82657e-16 0)
(3 1.90596e-16 0)
(3 1.71294e-16 0)
(3 8.93166e-16 0)
(3 1.38664e-15 0)
(3 1.50587e-15 0)
(3 9.57025e-16 0)
(3 2.71915e-16 0)
(3 -1.52382e-16 0)
(3 -2.72095e-16 0)
(3 -1.62274e-16 0)
(3 -3.92351e-16 0)
(3 -8.83756e-16 0)
(3 -6.51858e-16 0)
(3 1.31106e-16 0)
(3 8.64425e-16 0)
(3 1.53529e-15 0)
(3 1.6315e-15 0)
(3 3.3648e-15 0)
(3 2.57246e-15 0)
(3 2.57315e-15 0)
(3 1.77149e-15 0)
(3 1.32271e-15 0)
(3 1.26751e-15 0)
(3 1.00605e-15 0)
(3 2.20807e-16 0)
(3 -7.86421e-16 0)
(3 -1.73173e-15 0)
(3 -2.6365e-15 0)
(3 -1.72459e-15 0)
(3 -1.95632e-15 0)
(3 -2.10219e-15 0)
(3 -1.857e-15 0)
(3 -2.6014e-15 0)
(3 -3.87396e-15 0)
(3 -3.90559e-15 0)
(3 -3.46339e-15 0)
(3 -3.45141e-15 0)
(3 -2.49841e-15 0)
(3 -2.64119e-15 0)
(3 -2.37158e-15 0)
(3 -2.47601e-15 0)
(3 -1.99765e-15 0)
(3 -1.38189e-15 0)
(3 -9.5724e-16 0)
(3 -1.0171e-15 0)
(3 1.97301e-17 0)
(3 3.05272e-15 0)
(3 4.01148e-15 0)
(3 2.77079e-15 0)
(3 1.57616e-15 0)
(3 2.01964e-15 0)
(3 1.82821e-15 0)
(3 2.68272e-15 0)
(3 3.85356e-15 0)
(3 3.20559e-15 0)
(3 2.00229e-15 0)
(3 1.60611e-15 0)
(3 1.10558e-15 0)
(3 1.02456e-15 0)
(3 2.39875e-17 0)
(3 -9.86176e-16 0)
(3 -2.45227e-15 0)
(3 -2.36138e-15 0)
(3 -2.31477e-15 0)
(3 -2.60495e-15 0)
(3 -2.14032e-15 0)
(3 -9.05831e-16 0)
(3 1.55196e-15 0)
(3 2.28531e-15 0)
(3 2.77758e-15 0)
(3 3.73899e-15 0)
(3 4.85808e-15 0)
(3 5.33539e-15 0)
(3 4.74984e-15 0)
(3 3.85696e-15 0)
(3 5.16947e-18 0)
(3 -4.69406e-17 0)
(3 4.30297e-18 0)
(3 8.17051e-17 0)
(3 2.16482e-17 0)
(3 -3.34257e-18 0)
(3 -1.8188e-16 0)
(3 -4.16733e-16 0)
(3 -7.9324e-16 0)
(3 -9.33045e-16 0)
(3 -9.25485e-16 0)
(3 -1.15145e-15 0)
(3 -7.02292e-16 0)
(3 -8.6596e-16 0)
(3 -6.38903e-16 0)
(3 -4.06962e-17 0)
(3 4.23336e-16 0)
(3 8.31694e-16 0)
(3 9.55372e-16 0)
(3 1.32911e-15 0)
(3 1.2992e-15 0)
(3 1.03763e-15 0)
(3 8.13849e-16 0)
(3 4.69206e-16 0)
(3 2.2861e-16 0)
(3 -6.06362e-16 0)
(3 -8.75475e-16 0)
(3 -5.37593e-16 0)
(3 6.5444e-16 0)
(3 6.72485e-16 0)
(3 -1.0812e-16 0)
(3 -2.32387e-16 0)
(3 2.16433e-17 0)
(3 3.12935e-16 0)
(3 6.67927e-16 0)
(3 7.76317e-16 0)
(3 1.37312e-15 0)
(3 2.08708e-15 0)
(3 2.45388e-15 0)
(3 2.86321e-15 0)
(3 3.46845e-15 0)
(3 2.80188e-15 0)
(3 -7.76079e-16 0)
(3 -1.68128e-15 0)
(3 -1.33391e-15 0)
(3 -9.18415e-16 0)
(3 -1.78754e-15 0)
(3 -3.01589e-15 0)
(3 -3.13175e-15 0)
(3 -3.21659e-15 0)
(3 -3.2067e-15 0)
(3 -3.8457e-15 0)
(3 -3.87629e-15 0)
(3 -3.6541e-15 0)
(3 -3.40316e-15 0)
(3 -2.98063e-15 0)
(3 -2.69147e-15 0)
(3 -2.81386e-15 0)
(3 -2.84468e-15 0)
(3 -2.46036e-15 0)
(3 -5.53657e-16 0)
(3 3.81784e-16 0)
(3 1.94741e-15 0)
(3 1.65222e-15 0)
(3 2.40129e-15 0)
(3 3.37632e-15 0)
(3 4.01774e-15 0)
(3 4.89588e-15 0)
(3 5.59279e-15 0)
(3 5.72825e-15 0)
(3 4.96566e-15 0)
(3 3.70091e-15 0)
(3 2.76466e-15 0)
(3 1.93656e-15 0)
(3 2.34833e-15 0)
(3 2.81019e-15 0)
(3 1.97288e-15 0)
(3 7.67262e-16 0)
(3 -1.24283e-15 0)
(3 -1.37618e-15 0)
(3 -1.30024e-15 0)
(3 -1.22092e-15 0)
(3 -1.43335e-15 0)
(3 -1.33636e-15 0)
(3 -2.03031e-15 0)
(3 -2.8953e-15 0)
(3 -2.87271e-15 0)
(3 -1.8348e-15 0)
(3 -4.41166e-16 0)
(3 2.07335e-15 0)
(3 3.99075e-15 0)
(3 4.24279e-15 0)
(3 4.61189e-15 0)
(3 4.50455e-15 0)
(3 4.97414e-15 0)
(3 5.42304e-15 0)
(3 2.35664e-16 0)
(3 3.24473e-16 0)
(3 4.98897e-16 0)
(3 1.67022e-16 0)
(3 -3.34332e-16 0)
(3 -1.33124e-15 0)
(3 -1.29327e-15 0)
(3 -1.38765e-15 0)
(3 -1.64497e-15 0)
(3 -1.86361e-15 0)
(3 -1.92895e-15 0)
(3 -1.18936e-15 0)
(3 -1.0097e-15 0)
(3 -1.34018e-15 0)
(3 -1.30606e-15 0)
(3 -1.71105e-15 0)
(3 -1.05584e-15 0)
(3 -5.71858e-16 0)
(3 4.95042e-16 0)
(3 1.20764e-15 0)
(3 1.26844e-15 0)
(3 8.90427e-16 0)
(3 3.64432e-16 0)
(3 -5.24008e-16 0)
(3 -7.0765e-16 0)
(3 -1.3657e-15 0)
(3 -1.87722e-15 0)
(3 -1.04802e-15 0)
(3 2.14954e-16 0)
(3 1.21205e-15 0)
(3 1.1858e-15 0)
(3 1.14983e-15 0)
(3 7.84447e-16 0)
(3 -2.93073e-16 0)
(3 -1.21389e-15 0)
(3 -5.59618e-16 0)
(3 -2.31077e-16 0)
(3 3.88469e-16 0)
(3 3.45873e-16 0)
(3 1.33562e-15 0)
(3 1.98033e-15 0)
(3 9.81796e-16 0)
(3 -4.71324e-16 0)
(3 -9.43904e-16 0)
(3 -6.99298e-17 0)
(3 5.55284e-16 0)
(3 6.14439e-16 0)
(3 -6.70561e-17 0)
(3 -1.06144e-15 0)
(3 -2.31095e-15 0)
(3 -2.55902e-15 0)
(3 -3.27268e-15 0)
(3 -4.82702e-15 0)
(3 -4.72183e-15 0)
(3 -3.31469e-15 0)
(3 -2.55528e-15 0)
(3 -2.62638e-15 0)
(3 -2.3615e-15 0)
(3 -1.62017e-15 0)
(3 -6.85136e-16 0)
(3 -2.49072e-17 0)
(3 9.28024e-16 0)
(3 1.41655e-15 0)
(3 1.74648e-15 0)
(3 2.07517e-15 0)
(3 3.04878e-15 0)
(3 4.40797e-15 0)
(3 4.50655e-15 0)
(3 3.79838e-15 0)
(3 3.97307e-15 0)
(3 4.55786e-15 0)
(3 3.44465e-15 0)
(3 1.76223e-15 0)
(3 -4.24327e-16 0)
(3 -1.27744e-15 0)
(3 -1.36158e-15 0)
(3 -1.52589e-15 0)
(3 -1.86879e-15 0)
(3 -2.47516e-15 0)
(3 -2.56614e-15 0)
(3 -1.39216e-15 0)
(3 -7.62118e-16 0)
(3 7.04013e-17 0)
(3 3.49326e-16 0)
(3 2.92821e-16 0)
(3 -6.0519e-16 0)
(3 -1.43762e-15 0)
(3 -1.26799e-15 0)
(3 -5.35479e-16 0)
(3 2.81719e-16 0)
(3 1.14256e-15 0)
(3 2.34284e-15 0)
(3 2.52795e-15 0)
(3 3.6003e-15 0)
(3 4.63414e-15 0)
(3 5.27213e-15 0)
(3 1.24424e-17 0)
(3 2.39456e-16 0)
(3 6.8409e-16 0)
(3 4.9156e-16 0)
(3 8.52867e-17 0)
(3 -4.27162e-16 0)
(3 -1.46349e-15 0)
(3 -1.43454e-15 0)
(3 -1.19286e-15 0)
(3 -1.38606e-15 0)
(3 -1.31748e-15 0)
(3 -1.01619e-15 0)
(3 -1.3904e-15 0)
(3 -1.58377e-15 0)
(3 -1.94491e-15 0)
(3 -2.16069e-15 0)
(3 -1.6532e-15 0)
(3 -1.33823e-15 0)
(3 -3.34278e-16 0)
(3 -2.22215e-16 0)
(3 -2.91984e-16 0)
(3 -5.58433e-17 0)
(3 -4.76013e-16 0)
(3 -1.01904e-15 0)
(3 -6.49017e-16 0)
(3 -5.58113e-20 0)
(3 2.90572e-16 0)
(3 4.89226e-16 0)
(3 1.9236e-16 0)
(3 -4.01758e-17 0)
(3 -1.25287e-16 0)
(3 1.5177e-16 0)
(3 -4.03854e-16 0)
(3 -1.43056e-15 0)
(3 -2.00285e-15 0)
(3 -1.38052e-15 0)
(3 -2.57539e-16 0)
(3 -1.59156e-16 0)
(3 1.53284e-16 0)
(3 3.18349e-16 0)
(3 5.30984e-16 0)
(3 4.25186e-16 0)
(3 1.6039e-15 0)
(3 2.36732e-15 0)
(3 1.33143e-15 0)
(3 5.891e-16 0)
(3 3.97397e-16 0)
(3 3.65319e-16 0)
(3 3.41189e-17 0)
(3 -1.52845e-15 0)
(3 -1.69443e-15 0)
(3 -1.54436e-15 0)
(3 -2.69046e-15 0)
(3 -3.69473e-15 0)
(3 -3.99685e-15 0)
(3 -3.35058e-15 0)
(3 -2.83249e-15 0)
(3 -6.66944e-16 0)
(3 7.68491e-16 0)
(3 1.59287e-15 0)
(3 2.03617e-15 0)
(3 2.24478e-15 0)
(3 1.93595e-15 0)
(3 2.57744e-15 0)
(3 3.12954e-15 0)
(3 3.95851e-15 0)
(3 4.75993e-15 0)
(3 4.81657e-15 0)
(3 3.93459e-15 0)
(3 2.63109e-15 0)
(3 2.09668e-15 0)
(3 1.65298e-15 0)
(3 8.44727e-16 0)
(3 -2.47916e-16 0)
(3 -9.95638e-16 0)
(3 -2.33478e-15 0)
(3 -2.36789e-15 0)
(3 -1.04819e-15 0)
(3 -8.13242e-19 0)
(3 3.15247e-16 0)
(3 3.88774e-16 0)
(3 7.34755e-16 0)
(3 1.34105e-15 0)
(3 8.9274e-16 0)
(3 9.82726e-16 0)
(3 4.06001e-16 0)
(3 4.04955e-16 0)
(3 8.25521e-16 0)
(3 2.97543e-16 0)
(3 2.67824e-16 0)
(3 8.73806e-16 0)
(3 2.05139e-15 0)
(3 3.41208e-15 0)
(3 4.40346e-15 0)
(3 4.83116e-15 0)
(3 3.79775e-15 0)
(3 5.70058e-17 0)
(3 4.57974e-16 0)
(3 5.45553e-16 0)
(3 1.07235e-15 0)
(3 1.24461e-15 0)
(3 1.67122e-15 0)
(3 1.31175e-15 0)
(3 9.62417e-16 0)
(3 1.0175e-15 0)
(3 6.6143e-16 0)
(3 4.32708e-16 0)
(3 -1.06019e-15 0)
(3 -1.83006e-15 0)
(3 -1.69767e-15 0)
(3 -1.54449e-15 0)
(3 -5.89346e-16 0)
(3 -6.16934e-16 0)
(3 -7.93054e-16 0)
(3 -7.25679e-16 0)
(3 -6.13643e-16 0)
(3 -7.23998e-16 0)
(3 -5.77761e-16 0)
(3 -4.76232e-16 0)
(3 -4.52284e-16 0)
(3 -7.35851e-16 0)
(3 -3.42292e-16 0)
(3 5.2536e-16 0)
(3 6.1068e-16 0)
(3 5.71557e-16 0)
(3 -9.59232e-17 0)
(3 -1.25747e-16 0)
(3 -8.48071e-17 0)
(3 -1.83481e-16 0)
(3 -4.1718e-16 0)
(3 -3.71578e-16 0)
(3 -1.75315e-16 0)
(3 -3.63695e-16 0)
(3 -6.03673e-16 0)
(3 5.68642e-16 0)
(3 -3.19564e-16 0)
(3 4.12204e-16 0)
(3 9.13665e-16 0)
(3 1.40941e-15 0)
(3 1.06137e-15 0)
(3 8.18928e-16 0)
(3 3.08708e-16 0)
(3 2.12352e-16 0)
(3 2.13011e-16 0)
(3 6.74048e-16 0)
(3 6.94052e-16 0)
(3 6.77604e-16 0)
(3 9.8778e-16 0)
(3 6.15317e-16 0)
(3 -2.73929e-16 0)
(3 -1.37909e-15 0)
(3 -1.96317e-15 0)
(3 -8.20015e-16 0)
(3 7.18842e-16 0)
(3 6.9605e-16 0)
(3 5.5861e-16 0)
(3 1.09528e-15 0)
(3 1.03233e-15 0)
(3 1.47493e-15 0)
(3 2.54043e-15 0)
(3 3.29047e-15 0)
(3 4.31944e-15 0)
(3 5.14163e-15 0)
(3 4.65371e-15 0)
(3 3.57945e-15 0)
(3 3.53112e-15 0)
(3 2.16497e-15 0)
(3 1.35801e-15 0)
(3 7.88723e-16 0)
(3 2.81308e-16 0)
(3 -7.79393e-16 0)
(3 -4.24146e-16 0)
(3 -1.71702e-17 0)
(3 8.82008e-16 0)
(3 1.54054e-15 0)
(3 1.9872e-15 0)
(3 1.58326e-15 0)
(3 9.8799e-16 0)
(3 3.61468e-16 0)
(3 -1.22376e-16 0)
(3 6.52666e-17 0)
(3 1.09629e-15 0)
(3 2.19912e-15 0)
(3 2.94953e-15 0)
(3 3.24198e-15 0)
(3 3.00233e-15 0)
(3 2.67107e-15 0)
(3 2.12241e-15 0)
(3 2.4612e-15 0)
(3 2.20866e-15 0)
(3 1.92255e-15 0)
(3 1.78344e-15 0)
(3 9.05507e-17 0)
(3 -1.47359e-16 0)
(3 -1.26732e-16 0)
(3 3.77046e-16 0)
(3 2.51907e-16 0)
(3 4.3372e-16 0)
(3 7.64192e-16 0)
(3 6.6529e-16 0)
(3 6.68597e-16 0)
(3 1.40659e-15 0)
(3 1.51286e-15 0)
(3 7.56964e-16 0)
(3 2.6347e-16 0)
(3 -3.08497e-17 0)
(3 -3.35789e-17 0)
(3 -5.15901e-16 0)
(3 -1.17056e-15 0)
(3 -1.23956e-15 0)
(3 -1.11786e-15 0)
(3 -7.10642e-16 0)
(3 -1.09912e-15 0)
(3 -1.94369e-15 0)
(3 -1.71319e-15 0)
(3 -9.77159e-16 0)
(3 -1.53531e-15 0)
(3 -1.67476e-15 0)
(3 -9.17639e-16 0)
(3 -1.06761e-15 0)
(3 -1.52555e-15 0)
(3 -1.69297e-15 0)
(3 -1.37025e-15 0)
(3 -6.48243e-16 0)
(3 5.46206e-16 0)
(3 6.70273e-16 0)
(3 8.21138e-16 0)
(3 2.79228e-16 0)
(3 -3.13485e-16 0)
(3 -1.14159e-15 0)
(3 -2.27631e-15 0)
(3 -2.48335e-15 0)
(3 -1.19908e-15 0)
(3 4.20848e-16 0)
(3 9.59291e-16 0)
(3 8.03407e-16 0)
(3 1.214e-15 0)
(3 1.07784e-15 0)
(3 5.02295e-16 0)
(3 1.65312e-16 0)
(3 6.1366e-16 0)
(3 1.48611e-15 0)
(3 2.19866e-15 0)
(3 2.37137e-15 0)
(3 3.07396e-15 0)
(3 2.71707e-15 0)
(3 1.8108e-15 0)
(3 1.49279e-15 0)
(3 8.77376e-16 0)