/*--------------------------------*- C++ -*----------------------------------*\
  =========                 |
  \\      /  F ield         | OpenFOAM: The Open Source CFD Toolbox
   \\    /   O peration     | Website:  https://openfoam.org
    \\  /    A nd           | Version:  7
     \\/     M anipulation  |
\*---------------------------------------------------------------------------*/
FoamFile
{
    version     2.0;
    format      ascii;
    class       volScalarField;
    location    "3.8";
    object      p;
}
// * * * * * * * * * * * * * * * * * * * * * * * * * * * * * * * * * * * * * //

dimensions      [1 -1 -2 0 0 0 0];

internalField   nonuniform List<scalar> 
18432
(
1
1
1
1
1
1
1
1
1
1
1
1
1
1
1
1
1
1
1
1
1
1
1
1
1
1
1
1
1
1
1
1
1
1
1
1
1
1
1
1
1
1
1
1
1
1
1
1
1
1
1
1
1
1
1
1
1
1
1
1
1
1
1
1
1
1
1
1
1
1
1
1
1
1
1
1
1
1
1
1
1
1
1
1
1
1
1
1
1
1
1
1
1
1
1
1
1
1
1
1
1
1
1
1
1
1
1
1
1
1
1
1
1
1
1
1
1
1
1
1
1
1
1
1
1
1
1
1
1
1
1
1
1
1
1
1
1
1
1
1
1
1
1
1
1
1
1
1
1
1
1
1
1
1
1
1
1
1
1
1
1
1
1
1
1
1
1
1
1
1
1
1
1
1
1
1
1
1
1
1
1
1
1
1
1
1
1
1
1
1
1
1
1
1
1
1
1
1
1
1
1
1
1
1
1
1
1
1
1
1
1
1
1
1
1
1
1
1
1
1
1
1
1
1
1
1
1
1
1
1
1
1
1
1
1
1
1
1
1
1
1
1
1
1
1
1
1
1
1
1
1
1
1
1
1
1
1
1
1
1
1
1
1
1
1
1
1
1
1
1
1
1
1
1
1
1
1
1
1
1
1
1
1
1
1
1
1
1
1
1
1
1
1
1
1
1
1
1
1
1
1
1
1
1
1
1
1
1
1
1
1
1
1
1
1
1
1
1
1
1
1
1
1
1
1
1
1
1
1
1
1
1
1
1
1
1
1
1
1
1
1
1
1
1
1
1
1
1
1
1
1
1
1
1
1
1
1
1
1
1
1
1
1
1
1
1
1
1
1
1
1
1
1
1
1
1
1
1
1
1
1
1
1
1
1
1
1
1
1
1
1
1
1
1
1
1
1
1
1
1
1
1
1
1
1
1
1
1
1
1
1
1
1
1
1
1
1
1
1
1
1
1
1
1
1
1
1
1
1
1
1
1
1
1
1
1
1
1
1
1
1
1
1
1
1
1
1
1
1
1
1
1
1
1
1
1
1
1
1
1
1
1
1
1
1
1
1
1
1
1
1
1
1
1
1
1
1
1
1
1
1
1
1
1
1
1
1
1
1
1
1
1
1
1
1
1
1
1
1
1
1
1
1
1
1
1
1
1
1
1
1
1
1
1
1
1
1
1
1
1
1
1
1
1
1
1
1
1
1
1
1
1
1
1
1
1
1
1
1
1
1
1
1
1
1
1
1
1
1
1
1
1
1
1
1
1
1
1
1
1
1
1
1
1
1
1
1
1
1
1
1
1
1
1
1
1
1
1
1
1
1
1
1
1
1
1
1
1
1
1
1
1
1
1
1
1
1
1
1
1
1
1
1
1
1
1
1
1
1
1
1
1
1
1
1
1
1
1
1
1
1
1
1
1
1
1
1
1
1
1
1
1
1
1
1
1
1
1
1
1
1
1
1
1
1
1
1
1
1
1
1
1
1
1
1
1
1
1
1
1
1
1
1
1
1
1
1
1
1
1
1
1
1
1
1
1
1
1
1
1
1
1
1
1
1
1
1
1
1
1
1
1
1
1
1
1
1
1
1
1
1
1
1
1
1
1
1
1
1
1
1
1
1
1
1
1
1
1
1
1
1
1
1
1
1
1
1
1
1
1
1
1
1
1
1
1
1
1
1
1
1
1
1
1
1
1
1
1
1
1
1
1
1
1
1
1
1
1
1
1
1
1
1
1
1
1
1
1
1
1
1
1
1
1
1
1
1
1
1
1
1
1
1
1
1
1
1
1
1
1
1
1
1
1
1
1
1
1
1
1
1
1
1
1
1
1
1
1
1
1
1
1
1
1
1
1
1
1
1
1
1
1
1
1
1
1
1
1
1
1
1
1
1
1
1
1
1
1
1
1
1
1
1
1
1
1
1
1
1
1
1
1
1
1
1
1
1
1
1
1
1
1
1
1
1
1
1
1
1
1
1
1
1
1
1
1
1
1
1
1
1
1
1
1
1
1
1
1
1
1
1
1
1
1
1
1
1
1
1
1
1
1
1
1
1
1
1
1
1
1
1
1
1
1
1
1
1
1
1
1
1
1
1
1
1
1
1
1
1
1
1
1
1
1
1
1
1
1
1
1
1
1
1
1
1
1
1
1
1
1
1
1
1
1
1
1
1
1
1
1
1
1
1
1
1
1
1
1
1
1
1
1
1
1
1
1
1
1
1
1
1
1
1
1
1
1
1
1
1
1
1
1
1
1
1
1
1
1
1
1
1
1
1
1
1
1
1
1
1
1
1
1
1
1
1
1
1
1
1
1
1
1
1
1
1
1
1
1
1
1
1
1
1
1
1
1
1
1
1
1
1
1
1
1
1
1
1
1
1
1
1
1
1
1
1
1
1
1
1
1
1
1
1
1
1
1
1
1
1
1
1
1
1
1
1
1
1
1
1
1
1
1
1
1
1
1
1
1
1
1
1
1
1
1
1
1
1
1
1
1
1
1
1
1
1
1
1
1
1
1
1
1
1
1
1
1
1
1
1
1
1
1
1
1
1
1
1
1
1
1
1
1
1
1
1
1
1
1
1
1
1
1
1
1
1
1
1
1
1
1
1
1
1
1
1
1
1
1
1
1
1
1
1
1
1
1
1
1
1
1
1
1
1
1
1
1
1
1
1
1
1
1
1
1
1
1
1
1
1
1
1
1
1
1
1
1
1
1
1
1
1
1
1
1
1
1
1
1
1
1
1
1
1
1
1
1
1
1
1
1
1
1
1
1
1
1
1
1
1
1
1
1
1
1
1
1
1
1
1
1
1
1
1
1
1
1
1
1
1
1
1
1
1
1
1
1
1
1
1
1
1
1
1
1
1
1
1
1
1
1
1
1
1
1
1
1
1
1
1
1
1
1
1
1
1
1
1
1
1
1
1
1
1
1
1
1
1
1
1
1
1
1
1
1
1
1
1
1
1
1
1
1
1
1
1
1
1
1
1
1
1
1
1
1
1
1
1
1
1
1
1
1
1
1
1
1
1
1
1
1
1
1
1
1
1
1
1
1
1
1
1
1
1
1
1
1
1
1
1
1
1
1
1
1
1
1
1
1
1
1
1
1
1
1
1
1
1
1
1
1
1
1
1
1
1
1
1
1
1
1
1
1
1
1
1
1
1
1
1
1
1
1
1
1
1
1
1
1
1
1
1
1
1
1
1
1
1
1
1
1
1
1
1
1
1
1
1
1
1
1
1
1
1
1
1
1
1
1
1
1
1
1
1
1
1
1
1
1
1
1
1
1
1
1
1
1
1
1
1
1
1
1
1
1
1
1
1
1
1
1
1
1
1
1
1
1
1
1
1
1
1
1
1
1
1
1
1
1
1
1
1
1
1
1
1
1
1
1
1
1
1
1
1
1
1
1
1
1
1
1
1
1
1
1
1
1
1
1
1
1
1
1
1
1
1
1
1
1
1
1
1
1
1
1
1
1
1
1
1
1
1
1
1
1
1
1
1
1
1
1
1
1
1
1
1
1
1
1
1
1
1
1
1
1
1
1
1
1
1
1
1
1
1
1
1
1
1
1
1
1
1
1
1
1
1
1
1
1
1
1
1
1
1
1
1
1
1
1
1
1
1
1
1
1
1
1
1
1
1
1
1
1
1
1
1
1
1
1
1
1
1
1
1
1
1
1
1
1
1
1
1
1
1
1
1
1
1
1
1
1
1
1
1
1
1
1
1
1
1
1
1
1
1
1
1
1
1
1
1
1
1
1
1
1
1
1
1
1
1
1
1
1
1
1
1
1
1
1
1
1
1
1
1
1
1
1
1
1
1
1
1
1
1
1
1
1
1
1
1
1
1
1
1
1
1
1
1
1
1
1
1
1
1
1
1
1
1
1
1
1
1
1
1
1
1
1
1
1
1
1
1
1
1
1
1
1
1
1
1
1
1
1
1
1
1
1
1
1
1
1
1
1
1
1
1
1
1
1
1
1
1
1
1
1
1
1
1
1
1
1
1
1
1
1
1
1
1
1
1
1
1
1
1
1
1
1
1
1
1
1
1
1
1
1
1
1
1
1
1
1
1
1
1
1
1
1
1
1
1
1
1
1
1
1
1
1
1
1
1
1
1
1
1
1
1
1
1
1
1
1
1
1
1
1
1
1
1
1
1
1
1
1
1
1
1
1
1
1
1
1
1
1
1
1
1
1
1
1
1
1
1
1
1
1
1
1
1
1
1
1
1
1
1
1
1
1
1
1
1
1
1
1
1
1
1
1
1
1
1
1
1
1
1
1
1
1
1
1
1
1
1
1
1
1
1
1
1
1
1
1
1
1
1
1
1
1
1
1
1
1
1
1
1
1
1
1
1
1
1
1
1
1
1
1
1
1
1
1
1
1
1
1
1
1
1
1
1
1
1
1
1
1
1
1
1
1
1
1
1
1
1
1
1
1
1
1
1
1
1
1
1
1
1
1
1
1
1
1
1
1
1
1
1
1
1
1
1
1
1
1
1
1
1
1
1
1
1
1
1
1
1
1
1
1
1
1
1
1
1
1
1
1
1
1
1
1
1
1
1
1
1
1
1
1
1
1
1
1
1
1
1
1
1
1
1
1
1
1
1
1
1
1
1
1
1
1
1
1
1
1
1
1
1
1
1
1
1
1
1
1
1
1
1
1
1
1
1
1
1
1
1
1
1
1
1
1
1
1
1
1
1
1
1
1
1
1
1
1
1
1
1
1
1
1
1
1
1
1
1
1
1
1
1
1
1
1
1
1
1
1
1
1
1
1
1
1
1
1
1
1
1
1
1
1
1
1
1
1
1
1
1
1
1
1
1
1
1
1
1
1
1
1
1
1
1
1
1
1
1
1
1
1
1
1
1
1
1
1
1
1
1
1
1
1
1
1
1
1
1
1
1
1
1
1
1
1
1
1
1
1
1
1
1
1
1
1
1
1
1
1
1
1
1
1
1
1
1
1
1
1
1
1
1
1
1
1
1
1
1
1
1
1
1
1
1
1
1
1
1
1
1
1
1
1
1
1
1
1
1
1
1
1
1
1
1
1
1
1
1
1
1
1
1
1
1
1
1
1
1
1
1
1
1
1
1
1
1
1
1
1
1
1
1
1
1
1
1
1
1
1
1
1
1
1
1
1
1
1
1
1
1
1
1
1
1
1
1
1
1
1
1
1
1
1
1
1
1
1
1
1
1
1
1
1
1
1
1
1
1
1
1
1
1
1
1
1
1
1
1
1
1
1
1
1
1
1
1
1
1
1
1
1
1
1
1
1
1
1
1
1
1
1
1
1
1
1
1
1
1
1
1
1
1
1
1
1
1
1
1
1
1
1
1
1
1
1
1
1
1
1
1
1
1
1
1
1
1
1
1
1
1
1
1
1
1
1
1
1
1
1
1
1
1
1
1
1
1
1
1
1
1
1
1
1
1
1
1
1
1
1
1
1
1
1
1
1
1
1
1
1
1
1
1
1
1
1
1
1
1
1
1
1
1
1
1
1
1
1
1
1
1
1
1
1
1
1
1
1
1
1
1
1
1
1
1
1
1
1
1
1
1
1
1
1
1
1
1
1
1
1
1
1
1
1
1
1
1
1
1
1
1
1
1
1
1
1
1
1
1
1
1
1
1
1
1
1
1
1
1
1
1
1
1
1
1
1
1
1
1
1
1
1
1
1
1
1
1
1
1
1
1
1
1
1
1
1
1
1
1
1
1
1
1
1
1
1
1
1
1
1
1
1
1
1
1
1
1
1
1
1
1
1
1
1
1
1
1
1
1
1
1
1
1
1
1
1
1
1
1
1
1
1
1
1
1
1
1
1
1
1
1
1
1
1
1
1
1
1
1
1
1
1
1
1
1
1
1
1
1
1
1
1
1
1
1
1
1
1
1
1
1
1
1
1
1
1
1
1
1
1
1
1
1
1
1
1
1
1
1
1
1
1
1
1
1
1
1
1
1
1
1
1
1
1
1
1
1
1
1
1
1
1
1
1
1
1
1
1
1
1
1
1
1
1
1
1
1
1
1
1
1
1
1
1
1
1
1
1
1
1
1
1
1
1
1
1
1
1
1
1
1
1
1
1
1
1
1
1
1
1
1
1
1
1
1
1
1
1
1
1
1
1
1
1
1
1
1
1
1
1
1
1
1
1
1
1
1
1
1
1
1
1
1
1
1
1
1
1
1
1
1
1
1
1
1
1
1
1
1
1
1
1
1
1
1
1
1
1
1
1
1
1
1
1
1
1
1
1
1
1
1
1
1
1
1
1
1
1
1
1
1
1
1
1
1
1
1
1
1
1
1
1
1
1
1
1
1
1
1
1
1
1
1
1
1
1
1
1
1
1
1
1
1
1
1
1
1
1
1
1
1
1
1
1
1
1
1
1
1
1
1
1
1
1
1
1
1
1
1
1
1
1
1
1
1
1
1
1
1
1
1
1
1
1
1
1
1
1
1
1
1
1
1
1
1
1
1
1
1
1
1
1
1
1
1
1
1
1
1
1
1
1
1
1
1
1
1
1
1
1
1
1
1
1
1
1
1
1
1
1
1
1
1
1
1
1
1
1
1
1
1
1
1
1
1
1
1
1
1
1
1
1
1
1
1
1
1
1
1
1
1
1
1
1
1
1
1
1
1
1
1
1
1
1
1
1
1
1
1
1
1
1
1
1
1
1
1
1
1
1
1
1
1
1
1
1
1
1
1
1
1
1
1
1
1
1
1
1
1
1
1
1
1
1
1
1
1
1
1
1
1
1
1
1
1
1
1
1
1
1
1
1
1
1
1
1
1
1
1
1
1
1
1
1
1
1
1
1
1
1
1
1
1
1
1
1
1
1
1
1
1
1
1
1
1
1
1
1
1
1
1
1
1
1
1
1
1
1
1
1
1
1
1
1
1
1
1
1
1
1
1
1
1
1
1
1
1
1
1
1
1
1
1.29369
1.73955
2.31381
2.95593
3.51126
4.17569
4.70371
5.06917
5.33124
5.24565
4.95215
4.49766
4.07514
3.75482
3.65225
3.58167
3.56086
3.58894
3.62976
3.6693
3.69437
3.71247
3.72709
3.7426
3.76312
3.77426
3.7768
3.77632
3.76931
3.76363
3.7589
3.7546
3.75374
3.75646
3.76445
3.77949
3.79092
3.79204
3.79079
3.78675
3.77755
3.77102
3.77053
3.77087
3.77277
3.77625
3.77759
3.77655
1.00177
1.02147
1.06543
1.1943
1.42373
1.75001
2.22984
2.74047
3.345
3.72589
3.91894
4.05574
4.01537
3.93399
3.8372
3.78127
3.72198
3.70336
3.67299
3.66117
3.67172
3.69233
3.71341
3.73274
3.7551
3.77099
3.77633
3.77875
3.77666
3.77245
3.76944
3.76895
3.77009
3.77221
3.7748
3.77706
3.77821
3.77694
3.774
3.76957
3.76568
3.76512
3.76585
3.76749
3.77152
3.77687
3.77873
3.7793
1
0.999996
1.00001
0.999986
1.00158
1.01225
1.06438
1.22048
1.60623
2.36228
3.30044
3.95941
4.27049
4.30958
4.24647
4.12867
3.97231
3.7851
3.67699
3.64168
3.64696
3.66518
3.68252
3.70293
3.72607
3.74706
3.76179
3.77303
3.77999
3.78207
3.78419
3.78555
3.78569
3.78721
3.7882
3.78706
3.78294
3.77691
3.77075
3.76504
3.76162
3.76101
3.76122
3.76248
3.76673
3.77283
3.77573
3.77854
1
1
1
0.999999
1
0.99998
1.00005
1.00014
1.00522
1.07974
1.39253
2.17909
3.03228
3.93519
4.09496
4.02579
3.99008
3.95115
3.84012
3.74471
3.71074
3.69573
3.67351
3.6768
3.69626
3.71477
3.73178
3.74821
3.75648
3.76274
3.76856
3.77297
3.77585
3.78008
3.78224
3.78169
3.7792
3.77518
3.77086
3.76745
3.76615
3.76614
3.76683
3.76865
3.77267
3.77679
3.77674
3.77859
1
1
1
1
1
0.999999
1
0.999999
1
0.999938
1.00139
1.04823
1.28684
1.97983
2.91466
3.54739
4.04904
4.08973
4.05122
3.94492
3.84644
3.76522
3.71709
3.70227
3.70305
3.71607
3.72829
3.73938
3.74484
3.75056
3.75245
3.7541
3.75534
3.75979
3.76783
3.77016
3.76993
3.76964
3.76852
3.76747
3.7676
3.76921
3.77219
3.77642
3.78124
3.78386
3.78225
3.78302
1
1
1
1
1
1
1
1
1
0.999997
0.999998
0.999951
1.00082
1.02507
1.2559
1.77294
2.74849
3.35805
3.78055
3.91162
3.90629
3.87066
3.8105
3.77502
3.76133
3.74273
3.72462
3.71968
3.72421
3.73534
3.74903
3.75837
3.76529
3.7716
3.77581
3.77625
3.77612
3.77602
3.77466
3.77304
3.77267
3.77353
3.77587
3.78007
3.78302
3.78223
3.77769
3.77542
1
1
1
1
1
1
1
1
1
1
1
0.999997
0.999997
0.999962
1.00085
1.01611
1.1776
1.70904
2.53043
3.31538
3.60079
3.77215
3.82024
3.81573
3.77678
3.72462
3.71832
3.72061
3.72007
3.7236
3.73618
3.75575
3.77674
3.78819
3.788
3.78498
3.78307
3.782
3.78
3.77627
3.77437
3.77327
3.77451
3.77827
3.77878
3.77631
3.77003
3.7665
1
1
1
1
1
1
1
1
1
1
1
1
1
0.999997
0.999998
0.999976
1.00045
1.01718
1.13093
1.62742
2.34687
3.23504
3.59623
3.68063
3.74584
3.70358
3.68999
3.69952
3.70015
3.70269
3.712
3.7311
3.75228
3.76781
3.77669
3.77721
3.77654
3.77352
3.77004
3.76863
3.76764
3.76785
3.77255
3.77663
3.77769
3.77707
3.77403
3.77139
1
1
1
1
1
1
1
1
1
1
1
1
1
1
1
0.999998
0.999998
0.999982
1.00025
1.01456
1.11806
1.51413
2.29674
3.03326
3.59349
3.71202
3.72606
3.73368
3.72113
3.70679
3.70634
3.71299
3.72588
3.73783
3.74992
3.7578
3.76088
3.76185
3.76192
3.76373
3.76527
3.76721
3.77242
3.77642
3.77842
3.77887
3.7771
3.77447
1
1
1
1
1
1
1
1
1
1
1
1
1
1
1
1
1
0.999998
0.999998
0.999984
1.0003
1.00881
1.12895
1.48065
2.25537
2.93951
3.47369
3.71141
3.75851
3.74331
3.74865
3.75232
3.75021
3.74933
3.75222
3.75886
3.76227
3.76266
3.76273
3.76392
3.76665
3.77174
3.77482
3.77541
3.77681
3.77782
3.7762
3.7728
1
1
1
1
1
1
1
1
1
1
1
1
1
1
1
1
1
1
1
0.999998
0.999998
0.999985
1.00054
1.00897
1.10959
1.50465
2.21554
2.96765
3.36759
3.61886
3.72841
3.75562
3.7525
3.7573
3.75638
3.75497
3.76195
3.76786
3.77394
3.7788
3.78452
3.78794
3.78714
3.78496
3.78338
3.78098
3.77696
3.77335
1
1
1
1
1
1
1
1
1
1
1
1
1
1
1
1
1
1
1
1
1
0.999998
0.999998
0.999988
1.00047
1.01273
1.0991
1.52123
2.20384
3.09074
3.43007
3.56505
3.64735
3.70204
3.71573
3.72376
3.73505
3.75033
3.76481
3.77558
3.77933
3.78124
3.78127
3.78045
3.78084
3.78163
3.78021
3.77805
1
1
1
1
1
1
1
1
1
1
1
1
1
1
1
1
1
1
1
1
1
1
1
0.999998
0.999999
0.999992
1.00041
1.01676
1.11764
1.55767
2.32491
3.10613
3.5818
3.65145
3.69002
3.70417
3.70935
3.72333
3.7402
3.75339
3.76161
3.76718
3.77094
3.77098
3.77005
3.77058
3.76955
3.76951
1
1
1
1
1
1
1
1
1
1
1
1
1
1
1
1
1
1
1
1
1
1
1
1
1
0.999999
0.999998
1
1.00072
1.01942
1.17357
1.64027
2.47397
3.18281
3.61008
3.74414
3.74504
3.77175
3.77755
3.77377
3.77172
3.77272
3.77267
3.77078
3.76756
3.76389
3.76284
3.7641
1
1
1
1
1
1
1
1
1
1
1
1
1
1
1
1
1
1
1
1
1
1
1
1
1
1
1
1
0.999998
1.00002
1.00179
1.02676
1.25121
1.81395
2.69121
3.25849
3.60356
3.75237
3.77568
3.7832
3.789
3.78645
3.78358
3.77955
3.77555
3.77429
3.77406
3.77501
1
1
1
1
1
1
1
1
1
1
1
1
1
1
1
1
1
1
1
1
1
1
1
1
1
1
1
1
1
1
0.999997
1.00005
1.00464
1.04806
1.36655
2.07242
3.03225
3.42306
3.5693
3.68575
3.74713
3.75295
3.75565
3.75981
3.76869
3.77485
3.77872
3.78113
1
1
1
1
1
1
1
1
1
1
1
1
1
1
1
1
1
1
1
1
1
1
1
1
1
1
1
1
1
1
1
1
0.999997
1.0002
1.01183
1.10479
1.57897
2.40989
3.28114
3.65249
3.69537
3.71518
3.71634
3.72337
3.74069
3.75658
3.76565
3.77165
1
1
1
1
1
1
1
1
1
1
1
1
1
1
1
1
1
1
1
1
1
1
1
1
1
1
1
1
1
1
1
1
1
0.999999
1.00001
1.00098
1.03057
1.23044
1.92161
2.83366
3.4859
3.74151
3.7485
3.77682
3.78444
3.78281
3.77683
3.77656
1
1
1
1
1
1
1
1
1
1
1
1
1
1
1
1
1
1
1
1
1
1
1
1
1
1
1
1
1
1
1
1
1
1
1
0.999998
1.00015
1.0046
1.08876
1.49751
2.40676
3.14383
3.5697
3.76454
3.79064
3.7909
3.7916
3.79137
1
1
1
1
1
1
1
1
1
1
1
1
1
1
1
1
1
1
1
1
1
1
1
1
1
1
1
1
1
1
1
1
1
1
1
1
1
1
1.00114
1.02159
1.23863
1.9435
3.00247
3.49699
3.62218
3.69029
3.73914
3.75868
1
1
1
1
1
1
1
1
1
1
1
1
1
1
1
1
1
1
1
1
1
1
1
1
1
1
1
1
1
1
1
1
1
1
1
1
1
1
0.999999
1.00008
1.00754
1.09991
1.60801
2.56264
3.41485
3.69493
3.74204
3.75198
1
1
1
1
1
1
1
1
1
1
1
1
1
1
1
1
1
1
1
1
1
1
1
1
1
1
1
1
1
1
1
1
1
1
1
1
1
1
1
1
1.00002
1.00142
1.04368
1.34042
2.22891
3.1611
3.66572
3.79655
1
1
1
1
1
1
1
1
1
1
1
1
1
1
1
1
1
1
1
1
1
1
1
1
1
1
1
1
1
1
1
1
1
1
1
1
1
1
1
1
1
1
1.00047
1.01316
1.21766
1.92575
3.0088
3.40358
1
1
1
1
1
1
1
1
1
1
1
1
1
1
1
1
1
1
1
1
1
1
1
1
1
1
1
1
1
1
1
1
1
1
1
1
1
1
1
1
1
1
0.999999
1.00007
1.00798
1.09633
1.69979
2.64628
1
1
1
1
1
1
1
1
1
1
1
1
1
1
1
1
1
1
1
1
1
1
1
1
1
1
1
1
1
1
1
1
1
1
1
1
1
1
1
1
1
1
1
1
1.00003
1.00179
1.07075
1.43688
1
1
1
1
1
1
1
1
1
1
1
1
1
1
1
1
1
1
1
1
1
1
1
1
1
1
1
1
1
1
1
1
1
1
1
1
1
1
1
1
1
1
1
1
1
1
1.00173
1.01893
1
1
1
1
1
1
1
1
1
1
1
1
1
1
1
1
1
1
1
1
1
1
1
1
1
1
1
1
1
1
1
1
1
1
1
1
1
1
1
1
1
1
1
1
1
1
1.00002
0.999838
1
1
1
1
1
1
1
1
1
1
1
1
1
1
1
1
1
1
1
1
1
1
1
1
1
1
1
1
1
1
1
1
1
1
1
1
1
1
1
1
1
1
1
1
1
1
1
0.999942
1
1
1
1
1
1
1
1
1
1
1
1
1
1
1
1
1
1
1
1
1
1
1
1
1
1
1
1
1
1
1
1
1
1
1
1
1
1
1
1
1
1
1
1
1
1
1
0.999991
1
1
1
1
1
1
1
1
1
1
1
1
1
1
1
1
1
1
1
1
1
1
1
1
1
1
1
1
1
1
1
1
1
1
1
1
1
1
1
1
1
1
1
1
1
1
1
1
1
1
1
1
1
1
1
1
1
1
1
1
1
1
1
1
1
1
1
1
1
1
1
1
1
1
1
1
1
1
1
1
1
1
1
1
1
1
1
1
1
1
1
1
1
1
1
1
1
1
1
1
1
1
1
1
1
1
1
1
1
1
1
1
1
1
1
1
1
1
1
1
1
1
1
1
1
1
1
1
1
1
1
1
1
1
1
1
1
1
1
1
1
1
1
1
1
1
1
1
1
1
1
1
1
1
1
1
1
1
1
1
1
1
1
1
1
1
1
1
1
1
1
1
1
1
1
1
1
1
1
1
1
1
1
1
1
1
1
1
1
1
1
1
1
1
1
1
1
1
1
1
1
1
1
1
1
1
1
1
1
1
1
1
1
1
1
1
1
1
1
1
1
1
1
1
1
1
1
1
1
1
1
1
1
1
1
1
1
1
1
1
1
1
1
1
1
1
1
1
1
1
1
1
1
1
1
1
1
1
1
1
1
1
1
1
1
1
1
1
1
1
1
1
1
1
1
1
1
1
1
1
1
1
1
1
1
1
1
1
1
1
1
1
1
1
1
1
1
1
1
1
1
1
1
1
1
1
1
1
1
1
1
1
1
1
1
1
1
1
1
1
1
1
1
1
1
1
1
1
1
1
1
1
1
1
1
0.999991
1
1
1
1
1
1
1
1
1
1
1
1
1
1
1
1
1
1
1
1
1
1
1
1
1
1
1
1
1
1
1
1
1
1
1
1
1
1
1
1
1
1
1
1
1
1
1
0.999942
1
1
1
1
1
1
1
1
1
1
1
1
1
1
1
1
1
1
1
1
1
1
1
1
1
1
1
1
1
1
1
1
1
1
1
1
1
1
1
1
1
1
1
1
1
1
1.00002
0.99984
1
1
1
1
1
1
1
1
1
1
1
1
1
1
1
1
1
1
1
1
1
1
1
1
1
1
1
1
1
1
1
1
1
1
1
1
1
1
1
1
1
1
1
1
1
1
1.00171
1.01913
1
1
1
1
1
1
1
1
1
1
1
1
1
1
1
1
1
1
1
1
1
1
1
1
1
1
1
1
1
1
1
1
1
1
1
1
1
1
1
1
1
1
1
1
1.00003
1.00179
1.07074
1.43581
1
1
1
1
1
1
1
1
1
1
1
1
1
1
1
1
1
1
1
1
1
1
1
1
1
1
1
1
1
1
1
1
1
1
1
1
1
1
1
1
1
1
0.999999
1.00007
1.00797
1.09638
1.69989
2.64367
1
1
1
1
1
1
1
1
1
1
1
1
1
1
1
1
1
1
1
1
1
1
1
1
1
1
1
1
1
1
1
1
1
1
1
1
1
1
1
1
1
1
1.00047
1.01316
1.21765
1.92627
3.00724
3.40364
1
1
1
1
1
1
1
1
1
1
1
1
1
1
1
1
1
1
1
1
1
1
1
1
1
1
1
1
1
1
1
1
1
1
1
1
1
1
1
1
1.00002
1.00142
1.04368
1.34036
2.22915
3.16112
3.66514
3.79692
1
1
1
1
1
1
1
1
1
1
1
1
1
1
1
1
1
1
1
1
1
1
1
1
1
1
1
1
1
1
1
1
1
1
1
1
1
1
0.999999
1.00008
1.00753
1.09993
1.60798
2.56251
3.41504
3.6949
3.74196
3.75198
1
1
1
1
1
1
1
1
1
1
1
1
1
1
1
1
1
1
1
1
1
1
1
1
1
1
1
1
1
1
1
1
1
1
1
1
1
1
1.00114
1.02159
1.23862
1.94355
3.00242
3.49702
3.62222
3.69033
3.73907
3.75864
1
1
1
1
1
1
1
1
1
1
1
1
1
1
1
1
1
1
1
1
1
1
1
1
1
1
1
1
1
1
1
1
1
1
1
0.999998
1.00015
1.0046
1.08876
1.4975
2.40676
3.14379
3.56973
3.76455
3.79064
3.79092
3.79159
3.79135
1
1
1
1
1
1
1
1
1
1
1
1
1
1
1
1
1
1
1
1
1
1
1
1
1
1
1
1
1
1
1
1
1
0.999999
1.00001
1.00098
1.03057
1.23045
1.9216
2.83365
3.48592
3.74149
3.74854
3.77683
3.78443
3.78279
3.77683
3.77656
1
1
1
1
1
1
1
1
1
1
1
1
1
1
1
1
1
1
1
1
1
1
1
1
1
1
1
1
1
1
1
1
0.999997
1.0002
1.01183
1.10479
1.57897
2.4099
3.28112
3.6525
3.69538
3.71517
3.71635
3.72337
3.74067
3.75658
3.76566
3.77166
1
1
1
1
1
1
1
1
1
1
1
1
1
1
1
1
1
1
1
1
1
1
1
1
1
1
1
1
1
1
0.999997
1.00005
1.00464
1.04806
1.36655
2.07242
3.03225
3.42306
3.5693
3.68575
3.74713
3.75294
3.75565
3.75981
3.76869
3.77485
3.77873
3.78114
1
1
1
1
1
1
1
1
1
1
1
1
1
1
1
1
1
1
1
1
1
1
1
1
1
1
1
1
0.999998
1.00002
1.00179
1.02676
1.25121
1.81395
2.69121
3.25849
3.60356
3.75237
3.77568
3.7832
3.789
3.78644
3.78358
3.77955
3.77555
3.77429
3.77406
3.77501
1
1
1
1
1
1
1
1
1
1
1
1
1
1
1
1
1
1
1
1
1
1
1
1
1
0.999999
0.999998
1
1.00072
1.01942
1.17357
1.64028
2.47397
3.18281
3.61008
3.74414
3.74504
3.77175
3.77755
3.77377
3.77172
3.77272
3.77267
3.77078
3.76756
3.76389
3.76284
3.76411
1
1
1
1
1
1
1
1
1
1
1
1
1
1
1
1
1
1
1
1
1
1
1
0.999998
0.999999
0.999992
1.00041
1.01676
1.11764
1.55767
2.32491
3.10613
3.5818
3.65145
3.69002
3.70417
3.70935
3.72333
3.7402
3.75339
3.76161
3.76718
3.77094
3.77098
3.77005
3.77058
3.76955
3.76952
1
1
1
1
1
1
1
1
1
1
1
1
1
1
1
1
1
1
1
1
1
0.999998
0.999998
0.999988
1.00047
1.01273
1.0991
1.52123
2.20384
3.09074
3.43007
3.56505
3.64735
3.70203
3.71573
3.72376
3.73505
3.75033
3.76481
3.77558
3.77933
3.78124
3.78127
3.78045
3.78084
3.78163
3.78021
3.77805
1
1
1
1
1
1
1
1
1
1
1
1
1
1
1
1
1
1
1
0.999998
0.999998
0.999985
1.00054
1.00897
1.10959
1.50465
2.21554
2.96766
3.36759
3.61886
3.72841
3.75562
3.7525
3.7573
3.75638
3.75497
3.76195
3.76786
3.77394
3.7788
3.78452
3.78794
3.78714
3.78496
3.78338
3.78098
3.77696
3.77335
1
1
1
1
1
1
1
1
1
1
1
1
1
1
1
1
1
0.999998
0.999998
0.999984
1.0003
1.00881
1.12895
1.48065
2.25537
2.93951
3.47369
3.71141
3.75852
3.74331
3.74865
3.75232
3.75021
3.74933
3.75222
3.75886
3.76227
3.76266
3.76273
3.76392
3.76665
3.77174
3.77482
3.77541
3.77681
3.77783
3.7762
3.7728
1
1
1
1
1
1
1
1
1
1
1
1
1
1
1
0.999998
0.999998
0.999982
1.00025
1.01456
1.11807
1.51413
2.29674
3.03326
3.59349
3.71202
3.72606
3.73368
3.72113
3.70679
3.70634
3.71299
3.72588
3.73783
3.74992
3.7578
3.76088
3.76185
3.76192
3.76373
3.76527
3.76721
3.77242
3.77642
3.77842
3.77887
3.7771
3.77447
1
1
1
1
1
1
1
1
1
1
1
1
1
0.999997
0.999998
0.999976
1.00045
1.01718
1.13093
1.62742
2.34688
3.23504
3.59624
3.68063
3.74584
3.70358
3.68999
3.69952
3.70015
3.70269
3.712
3.7311
3.75228
3.76781
3.77669
3.77721
3.77654
3.77352
3.77004
3.76863
3.76764
3.76785
3.77255
3.77663
3.77769
3.77707
3.77403
3.77139
1
1
1
1
1
1
1
1
1
1
1
0.999997
0.999997
0.999962
1.00085
1.01611
1.1776
1.70904
2.53043
3.31538
3.60079
3.77214
3.82024
3.81573
3.77678
3.72462
3.71832
3.72061
3.72007
3.7236
3.73618
3.75575
3.77674
3.78819
3.788
3.78498
3.78307
3.782
3.78
3.77627
3.77437
3.77327
3.77451
3.77827
3.77878
3.77631
3.77003
3.7665
1
1
1
1
1
1
1
1
1
0.999997
0.999998
0.999951
1.00082
1.02507
1.2559
1.77294
2.74849
3.35805
3.78055
3.91162
3.90629
3.87066
3.81051
3.77502
3.76133
3.74273
3.72462
3.71968
3.72422
3.73534
3.74903
3.75837
3.76529
3.7716
3.77581
3.77625
3.77612
3.77602
3.77466
3.77304
3.77267
3.77353
3.77587
3.78007
3.78302
3.78223
3.77769
3.77542
1
1
1
1
1
0.999999
1
0.999999
1
0.999938
1.00139
1.04823
1.28684
1.97983
2.91466
3.54738
4.04904
4.08973
4.05122
3.94492
3.84644
3.76522
3.71709
3.70227
3.70305
3.71607
3.72829
3.73938
3.74484
3.75056
3.75245
3.7541
3.75534
3.75979
3.76783
3.77016
3.76993
3.76964
3.76852
3.76747
3.7676
3.76921
3.77219
3.77642
3.78124
3.78386
3.78225
3.78302
1
1
1
0.999999
1
0.99998
1.00005
1.00014
1.00522
1.07974
1.39253
2.17909
3.03228
3.93519
4.09496
4.02579
3.99008
3.95115
3.84012
3.74471
3.71074
3.69573
3.67351
3.6768
3.69626
3.71477
3.73178
3.74821
3.75648
3.76274
3.76856
3.77297
3.77585
3.78008
3.78224
3.78169
3.7792
3.77518
3.77086
3.76745
3.76615
3.76614
3.76683
3.76865
3.77267
3.77679
3.77674
3.77859
1
0.999996
1.00001
0.999986
1.00158
1.01225
1.06438
1.22048
1.60623
2.36228
3.30043
3.95941
4.27049
4.30958
4.24647
4.12867
3.97231
3.7851
3.67699
3.64168
3.64696
3.66518
3.68252
3.70293
3.72607
3.74705
3.76179
3.77303
3.77999
3.78207
3.78419
3.78555
3.78569
3.78721
3.7882
3.78706
3.78294
3.77691
3.77075
3.76504
3.76162
3.76101
3.76122
3.76248
3.76673
3.77283
3.77573
3.77854
1.00177
1.02147
1.06543
1.1943
1.42373
1.75001
2.22984
2.74047
3.345
3.72589
3.91894
4.05574
4.01537
3.93399
3.8372
3.78127
3.72198
3.70336
3.67299
3.66117
3.67172
3.69233
3.71341
3.73274
3.7551
3.77099
3.77633
3.77875
3.77666
3.77245
3.76944
3.76895
3.77009
3.77221
3.7748
3.77706
3.77821
3.77694
3.774
3.76957
3.76568
3.76512
3.76585
3.76749
3.77152
3.77687
3.77873
3.7793
1.29369
1.73955
2.31381
2.95593
3.51126
4.17569
4.70371
5.06917
5.33124
5.24565
4.95216
4.49766
4.07514
3.75482
3.65225
3.58167
3.56086
3.58894
3.62976
3.6693
3.69437
3.71247
3.72709
3.7426
3.76312
3.77426
3.7768
3.77632
3.76931
3.76363
3.7589
3.7546
3.75374
3.75646
3.76445
3.77949
3.79092
3.79204
3.79079
3.78675
3.77755
3.77102
3.77053
3.77087
3.77277
3.77625
3.77759
3.77655
2.67208
1.68162
1.09472
0.888789
0.724862
0.63828
0.659951
0.726824
0.782651
0.819916
0.884192
0.988123
1.0257
1.02058
1.02617
1.05067
1.05365
1.05428
1.06401
1.0717
1.07103
1.06681
1.06529
1.06553
1.05631
1.04698
1.04667
1.04833
1.04824
1.04654
1.04427
1.04213
1.03828
1.03559
1.03567
1.03715
1.04182
1.04843
1.05038
1.05063
1.05045
1.0484
1.04681
1.04759
1.04889
1.04965
1.04954
1.04989
1.06135
1.23656
1.7915
3.20702
5.31634
7.88774
10.3559
10.181
9.28068
8.2789
8.02465
7.93318
7.74683
7.52584
7.33567
7.22173
7.12999
7.01464
6.88127
6.72987
6.51629
6.23685
6.0238
5.91651
5.84284
5.80033
5.75633
5.68229
5.55512
5.31686
5.12546
5.05629
5.00633
4.97657
4.93813
4.87776
4.78639
4.59654
4.35582
4.25713
4.21757
4.19617
4.2214
4.21642
4.17388
4.11128
3.96346
3.75417
3.65414
3.61631
3.58657
3.56396
3.53851
3.50317
3.44716
3.34995
3.25216
3.20854
3.18072
3.15278
3.12176
3.07853
3.00233
2.89856
2.83746
2.8121
2.79372
2.77916
2.76802
2.74922
2.71527
2.63491
2.51161
2.45679
2.43848
2.42236
2.40893
2.39827
2.38356
2.36522
2.33797
2.2862
2.21409
2.16764
2.14616
2.13058
2.11678
2.09842
2.06908
2.03025
2.00344
1.98635
1.96872
1.94835
1.91912
1.87623
1.88061
1.96986
2.29713
2.92858
3.75084
4.49354
5.17782
5.63502
5.6773
5.54969
5.35504
5.20312
5.15193
5.10428
5.05654
4.99687
4.92012
4.84241
4.79852
4.7759
4.74478
4.70094
4.63811
4.55726
4.5076
4.48024
4.4555
4.43696
4.4223
4.40197
4.37666
4.34284
4.28977
4.21195
4.13076
4.06605
4.01622
3.97985
3.95638
3.94107
3.93171
3.92082
3.90378
3.87501
3.81737
3.74678
3.71784
3.68197
3.37937
2.79126
2.12772
1.74335
1.51918
1.24317
1.10694
1.06336
0.994166
0.935852
0.930556
0.94442
0.94009
0.939909
0.95076
0.979097
0.995797
1.00469
1.02147
1.042
1.04482
1.04574
1.04942
1.05261
1.05004
1.04694
1.04703
1.05
1.05214
1.05072
1.04906
1.04763
1.04426
1.04236
1.0418
1.0423
1.04554
1.04887
1.04942
1.04952
1.04925
1.04775
1.04642
1.04667
1.04697
1.04669
1.04726
1.05897
1.24369
1.96069
2.73342
3.19523
3.9685
4.8542
6.72489
8.08562
8.58701
8.3821
8.1896
7.98325
7.76433
7.57559
7.41214
7.22709
7.05295
6.93536
6.823
6.6942
6.52574
6.31619
6.12468
5.9773
5.87734
5.79972
5.72511
5.64024
5.52948
5.36026
5.17414
5.06783
5.00792
4.95415
4.90461
4.84563
4.76538
4.63037
4.43651
4.3017
4.2498
4.21764
4.18995
4.1728
4.13492
4.0726
3.9609
3.79636
3.68025
3.62556
3.59161
3.56221
3.53408
3.50693
3.46628
3.38942
3.29427
3.23941
3.20686
3.17662
3.14274
3.096
3.01797
2.91798
2.85502
2.82114
2.79868
2.78014
2.761
2.73931
2.70954
2.65152
2.55175
2.47143
2.44394
2.43271
2.42561
2.41471
2.39934
2.38016
2.35084
2.298
2.2313
2.18838
2.16793
2.15174
2.13677
2.11842
2.09112
2.05362
2.02243
2.00249
1.98691
1.96992
1.95105
1.97529
2.09096
2.39964
2.79581
3.12492
3.45923
3.937
4.38035
4.76182
4.97152
5.15888
5.23079
5.2
5.17723
5.14138
5.08085
5.02414
4.96346
4.88625
4.81857
4.78356
4.74967
4.70399
4.64143
4.57301
4.52386
4.49498
4.47512
4.45573
4.42871
4.40091
4.3714
4.33274
4.27476
4.2015
4.13213
4.07743
4.03207
3.9968
3.96903
3.94676
3.93098
3.9179
3.90486
3.88277
3.83305
3.76585
3.7359
3.69842
3.6632
3.34515
2.86469
2.35399
1.99811
1.65878
1.38754
1.26326
1.14572
0.995271
0.962574
0.961578
0.939069
0.927242
0.933512
0.943928
0.951876
0.963911
0.983934
1.01722
1.02893
1.03077
1.03486
1.04175
1.04316
1.04346
1.04745
1.05519
1.05871
1.05841
1.05637
1.05092
1.04511
1.04373
1.04356
1.04474
1.04712
1.04741
1.04743
1.04718
1.04594
1.04543
1.04567
1.04653
1.04733
1.05033
1.07172
1.25626
2.12608
2.91312
3.29114
3.39419
3.47511
3.57157
4.15521
5.94556
7.90947
8.55619
8.36546
8.00691
7.75035
7.64818
7.49847
7.26708
7.01084
6.82048
6.69988
6.56822
6.43874
6.34513
6.23399
6.09533
5.94861
5.81427
5.69623
5.57764
5.4529
5.33394
5.21769
5.10364
5.008
4.9397
4.87195
4.79218
4.69867
4.59597
4.49737
4.38994
4.28757
4.22926
4.18637
4.1352
4.07011
3.99102
3.9011
3.81466
3.73244
3.64903
3.59621
3.56518
3.5337
3.4927
3.4377
3.36657
3.28976
3.21981
3.16628
3.12588
3.08876
3.0469
2.9915
2.9187
2.85719
2.83006
2.81236
2.79278
2.76617
2.73138
2.6823
2.6218
2.56265
2.51347
2.4719
2.43015
2.39278
2.37038
2.35418
2.33745
2.31185
2.26904
2.22964
2.20604
2.17884
2.13996
2.10535
2.08055
2.05536
2.02485
1.99904
1.98206
1.97851
1.9842
2.03705
2.24314
2.60932
2.96865
3.18422
3.28542
3.34912
3.45309
3.65133
3.97696
4.42665
4.88091
5.11929
5.18083
5.19434
5.1652
5.10732
5.06656
5.0145
4.92313
4.80083
4.71918
4.69306
4.66044
4.61135
4.57324
4.54897
4.51962
4.47706
4.43171
4.40222
4.37654
4.34822
4.30971
4.24918
4.17408
4.11368
4.07307
4.04525
4.01793
3.98897
3.96064
3.93561
3.91355
3.88952
3.85815
3.81315
3.76416
3.72961
3.6829
3.75575
3.62287
3.32948
2.89525
2.49524
2.13676
1.79635
1.60585
1.45308
1.24312
1.16026
1.11943
1.0406
0.978356
0.979551
0.970717
0.949578
0.944343
0.951828
0.963453
0.972049
0.98048
0.992305
1.01306
1.02562
1.03342
1.04489
1.05167
1.05291
1.05375
1.0527
1.0484
1.04679
1.04719
1.05059
1.05598
1.05689
1.05569
1.05347
1.04976
1.04609
1.04541
1.04522
1.04628
1.05301
1.11286
1.36324
2.16052
3.22164
3.33775
3.39312
3.42676
3.4549
3.39353
3.36419
3.68045
5.04755
7.18923
7.7227
7.79737
7.86003
7.77832
7.58004
7.31877
7.05423
6.79485
6.61147
6.49327
6.39875
6.32092
6.25414
6.1695
6.0324
5.83882
5.66063
5.51782
5.40879
5.339
5.27276
5.17827
5.05417
4.9221
4.817
4.72452
4.65486
4.60857
4.56049
4.47981
4.37546
4.2585
4.15531
4.07153
3.98848
3.92272
3.88136
3.84857
3.79634
3.72023
3.63473
3.55626
3.50365
3.45955
3.41761
3.37386
3.31545
3.24325
3.17212
3.11392
3.06635
3.02059
2.9758
2.93358
2.89401
2.84835
2.79612
2.76456
2.7391
2.70117
2.64718
2.60102
2.5747
2.54724
2.50491
2.44577
2.39545
2.3674
2.34046
2.30927
2.28476
2.27001
2.25598
2.23645
2.20346
2.15361
2.10204
2.06402
2.03983
2.02047
2.00464
1.99524
2.01309
2.1258
2.44668
2.87827
3.13638
3.27525
3.3512
3.38255
3.37077
3.34692
3.3416
3.40313
3.61485
4.01947
4.55539
4.86236
4.99918
5.09326
5.15278
5.14423
5.08141
4.96621
4.82647
4.70459
4.6576
4.6367
4.61902
4.60285
4.58
4.54706
4.4969
4.44261
4.39857
4.3646
4.32944
4.27909
4.20529
4.14158
4.11102
4.08989
4.06758
4.03991
4.01012
3.98002
3.95209
3.92132
3.87896
3.83702
3.80331
3.77216
3.74002
3.68706
3.77185
3.73857
3.59828
3.29451
2.94675
2.58346
2.20631
1.9614
1.77227
1.522
1.36824
1.27888
1.17674
1.05877
1.03515
1.01085
0.964796
0.950056
0.957424
0.958817
0.954123
0.955461
0.962339
0.977042
0.997206
1.01631
1.03406
1.04152
1.04366
1.04646
1.04622
1.0422
1.04126
1.04572
1.05537
1.05939
1.05933
1.05818
1.05518
1.0506
1.0483
1.04809
1.04866
1.05385
1.15223
1.64141
2.35686
3.23233
3.52246
3.47363
3.41159
3.40549
3.41043
3.38642
3.29852
3.25344
3.38139
4.31893
6.09807
7.29143
7.78116
7.78637
7.59418
7.36277
7.13575
6.84813
6.56766
6.43718
6.35003
6.29558
6.22288
6.12537
6.00724
5.82499
5.61424
5.48321
5.40484
5.33181
5.25367
5.17166
5.06078
4.89878
4.76574
4.69454
4.63595
4.58181
4.53111
4.48866
4.42667
4.29376
4.11295
3.9997
3.94272
3.89978
3.85993
3.81952
3.78591
3.75461
3.69198
3.58182
3.48642
3.42975
3.38399
3.33924
3.29322
3.23415
3.15781
3.09606
3.05501
3.01803
2.97924
2.94366
2.90941
2.86706
2.82145
2.76138
2.70334
2.65741
2.62152
2.59312
2.56887
2.54477
2.51817
2.48233
2.42834
2.35929
2.31022
2.28034
2.2604
2.24517
2.23198
2.2164
2.19374
2.15979
2.1117
2.06954
2.03739
2.02601
2.02266
2.06984
2.25561
2.61991
3.10118
3.31997
3.38623
3.41243
3.40215
3.37928
3.35918
3.3229
3.28343
3.24825
3.26323
3.37243
3.68993
4.25931
4.70006
4.99582
5.13253
5.12062
5.05335
4.9528
4.83762
4.7214
4.65821
4.62811
4.60165
4.58124
4.56191
4.53827
4.51263
4.4732
4.41758
4.35675
4.29385
4.22147
4.16167
4.13356
4.11567
4.10321
4.08592
4.05933
4.03132
4.00043
3.96349
3.91293
3.85777
3.81312
3.77791
3.74724
3.72157
3.67721
3.77346
3.75724
3.71397
3.54991
3.29263
2.9878
2.61425
2.31492
2.08754
1.84151
1.65085
1.52552
1.39832
1.24814
1.19316
1.14877
1.07514
1.02954
1.02349
0.999165
0.971228
0.963898
0.966041
0.965257
0.968292
0.982177
1.00147
1.0086
1.01379
1.02104
1.02956
1.03147
1.03362
1.04244
1.05398
1.0569
1.05727
1.05705
1.05435
1.05088
1.0502
1.05132
1.05821
1.14852
1.81549
2.70941
3.27732
3.55509
3.55796
3.50181
3.41933
3.35089
3.32879
3.33568
3.29084
3.22481
3.1628
3.19886
3.69978
5.20259
6.67761
7.30566
7.44634
7.36882
7.20589
6.90842
6.57761
6.39754
6.31755
6.25902
6.19627
6.09759
5.98443
5.81873
5.59819
5.46068
5.38698
5.31825
5.24947
5.17453
5.07206
4.9152
4.74664
4.66039
4.60877
4.56566
4.52923
4.48026
4.40963
4.28643
4.09553
3.96722
3.91803
3.88061
3.84954
3.83065
3.80364
3.7613
3.6865
3.56416
3.45397
3.39814
3.35924
3.32449
3.28887
3.23691
3.14846
3.07151
3.0391
3.01789
3.0051
2.98706
2.95687
2.91233
2.82822
2.71772
2.64926
2.62164
2.60505
2.5973
2.59367
2.57952
2.5587
2.52675
2.45343
2.3372
2.27791
2.26154
2.24891
2.23728
2.22691
2.21503
2.20313
2.18224
2.13679
2.08621
2.04695
2.05374
2.14974
2.46914
2.86231
3.27515
3.50119
3.50061
3.45908
3.42601
3.38763
3.36056
3.33872
3.31233
3.27662
3.23426
3.21669
3.21488
3.25717
3.48907
3.94924
4.4689
4.80813
4.95311
4.97318
4.94371
4.86074
4.75009
4.67046
4.63286
4.6075
4.58541
4.56485
4.54039
4.50945
4.46834
4.41294
4.33366
4.24002
4.17734
4.1496
4.13015
4.11656
4.12132
4.12064
4.09844
4.07395
4.0357
3.96845
3.89116
3.83425
3.79509
3.76372
3.7357
3.71168
3.66939
3.7639
3.75852
3.73416
3.66948
3.52671
3.28354
2.9616
2.67746
2.4145
2.13444
1.93931
1.77964
1.62997
1.47487
1.3812
1.30149
1.19728
1.11858
1.08797
1.04794
0.992958
0.978544
0.9802
0.97214
0.970929
0.979057
0.982587
0.981005
0.981553
0.985362
0.994943
1.00828
1.02114