/*--------------------------------*- C++ -*----------------------------------*\
  =========                 |
  \\      /  F ield         | OpenFOAM: The Open Source CFD Toolbox
   \\    /   O peration     | Website:  https://openfoam.org
    \\  /    A nd           | Version:  7
     \\/     M anipulation  |
\*---------------------------------------------------------------------------*/
FoamFile
{
    version     2.0;
    format      ascii;
    class       volScalarField;
    location    "3.8";
    object      T;
}
// * * * * * * * * * * * * * * * * * * * * * * * * * * * * * * * * * * * * * //

dimensions      [0 0 0 1 0 0 0];

internalField   nonuniform List<scalar> 
18432
(
1
1
1
1
1
1
1
1
1
1
1
1
1
1
1
1
1
1
1
1
1
1
1
1
1
1
1
1
1
1
1
1
1
1
1
1
1
1
1
1
1
1
1
1
1
1
1
1
1
1
1
1
1
1
1
1
1
1
1
1
1
1
1
1
1
1
1
1
1
1
1
1
1
1
1
1
1
1
1
1
1
1
1
1
1
1
1
1
1
1
1
1
1
1
1
1
1
1
1
1
1
1
1
1
1
1
1
1
1
1
1
1
1
1
1
1
1
1
1
1
1
1
1
1
1
1
1
1
1
1
1
1
1
1
1
1
1
1
1
1
1
1
1
1
1
1
1
1
1
1
1
1
1
1
1
1
1
1
1
1
1
1
1
1
1
1
1
1
1
1
1
1
1
1
1
1
1
1
1
1
1
1
1
1
1
1
1
1
1
1
1
1
1
1
1
1
1
1
1
1
1
1
1
1
1
1
1
1
1
1
1
1
1
1
1
1
1
1
1
1
1
1
1
1
1
1
1
1
1
1
1
1
1
1
1
1
1
1
1
1
1
1
1
1
1
1
1
1
1
1
1
1
1
1
1
1
1
1
1
1
1
1
1
1
1
1
1
1
1
1
1
1
1
1
1
1
1
1
1
1
1
1
1
1
1
1
1
1
1
1
1
1
1
1
1
1
1
1
1
1
1
1
1
1
1
1
1
1
1
1
1
1
1
1
1
1
1
1
1
1
1
1
1
1
1
1
1
1
1
1
1
1
1
1
1
1
1
1
1
1
1
1
1
1
1
1
1
1
1
1
1
1
1
1
1
1
1
1
1
1
1
1
1
1
1
1
1
1
1
1
1
1
1
1
1
1
1
1
1
1
1
1
1
1
1
1
1
1
1
1
1
1
1
1
1
1
1
1
1
1
1
1
1
1
1
1
1
1
1
1
1
1
1
1
1
1
1
1
1
1
1
1
1
1
1
1
1
1
1
1
1
1
1
1
1
1
1
1
1
1
1
1
1
1
1
1
1
1
1
1
1
1
1
1
1
1
1
1
1
1
1
1
1
1
1
1
1
1
1
1
1
1
1
1
1
1
1
1
1
1
1
1
1
1
1
1
1
1
1
1
1
1
1
1
1
1
1
1
1
1
1
1
1
1
1
1
1
1
1
1
1
1
1
1
1
1
1
1
1
1
1
1
1
1
1
1
1
1
1
1
1
1
1
1
1
1
1
1
1
1
1
1
1
1
1
1
1
1
1
1
1
1
1
1
1
1
1
1
1
1
1
1
1
1
1
1
1
1
1
1
1
1
1
1
1
1
1
1
1
1
1
1
1
1
1
1
1
1
1
1
1
1
1
1
1
1
1
1
1
1
1
1
1
1
1
1
1
1
1
1
1
1
1
1
1
1
1
1
1
1
1
1
1
1
1
1
1
1
1
1
1
1
1
1
1
1
1
1
1
1
1
1
1
1
1
1
1
1
1
1
1
1
1
1
1
1
1
1
1
1
1
1
1
1
1
1
1
1
1
1
1
1
1
1
1
1
1
1
1
1
1
1
1
1
1
1
1
1
1
1
1
1
1
1
1
1
1
1
1
1
1
1
1
1
1
1
1
1
1
1
1
1
1
1
1
1
1
1
1
1
1
1
1
1
1
1
1
1
1
1
1
1
1
1
1
1
1
1
1
1
1
1
1
1
1
1
1
1
1
1
1
1
1
1
1
1
1
1
1
1
1
1
1
1
1
1
1
1
1
1
1
1
1
1
1
1
1
1
1
1
1
1
1
1
1
1
1
1
1
1
1
1
1
1
1
1
1
1
1
1
1
1
1
1
1
1
1
1
1
1
1
1
1
1
1
1
1
1
1
1
1
1
1
1
1
1
1
1
1
1
1
1
1
1
1
1
1
1
1
1
1
1
1
1
1
1
1
1
1
1
1
1
1
1
1
1
1
1
1
1
1
1
1
1
1
1
1
1
1
1
1
1
1
1
1
1
1
1
1
1
1
1
1
1
1
1
1
1
1
1
1
1
1
1
1
1
1
1
1
1
1
1
1
1
1
1
1
1
1
1
1
1
1
1
1
1
1
1
1
1
1
1
1
1
1
1
1
1
1
1
1
1
1
1
1
1
1
1
1
1
1
1
1
1
1
1
1
1
1
1
1
1
1
1
1
1
1
1
1
1
1
1
1
1
1
1
1
1
1
1
1
1
1
1
1
1
1
1
1
1
1
1
1
1
1
1
1
1
1
1
1
1
1
1
1
1
1
1
1
1
1
1
1
1
1
1
1
1
1
1
1
1
1
1
1
1
1
1
1
1
1
1
1
1
1
1
1
1
1
1
1
1
1
1
1
1
1
1
1
1
1
1
1
1
1
1
1
1
1
1
1
1
1
1
1
1
1
1
1
1
1
1
1
1
1
1
1
1
1
1
1
1
1
1
1
1
1
1
1
1
1
1
1
1
1
1
1
1
1
1
1
1
1
1
1
1
1
1
1
1
1
1
1
1
1
1
1
1
1
1
1
1
1
1
1
1
1
1
1
1
1
1
1
1
1
1
1
1
1
1
1
1
1
1
1
1
1
1
1
1
1
1
1
1
1
1
1
1
1
1
1
1
1
1
1
1
1
1
1
1
1
1
1
1
1
1
1
1
1
1
1
1
1
1
1
1
1
1
1
1
1
1
1
1
1
1
1
1
1
1
1
1
1
1
1
1
1
1
1
1
1
1
1
1
1
1
1
1
1
1
1
1
1
1
1
1
1
1
1
1
1
1
1
1
1
1
1
1
1
1
1
1
1
1
1
1
1
1
1
1
1
1
1
1
1
1
1
1
1
1
1
1
1
1
1
1
1
1
1
1
1
1
1
1
1
1
1
1
1
1
1
1
1
1
1
1
1
1
1
1
1
1
1
1
1
1
1
1
1
1
1
1
1
1
1
1
1
1
1
1
1
1
1
1
1
1
1
1
1
1
1
1
1
1
1
1
1
1
1
1
1
1
1
1
1
1
1
1
1
1
1
1
1
1
1
1
1
1
1
1
1
1
1
1
1
1
1
1
1
1
1
1
1
1
1
1
1
1
1
1
1
1
1
1
1
1
1
1
1
1
1
1
1
1
1
1
1
1
1
1
1
1
1
1
1
1
1
1
1
1
1
1
1
1
1
1
1
1
1
1
1
1
1
1
1
1
1
1
1
1
1
1
1
1
1
1
1
1
1
1
1
1
1
1
1
1
1
1
1
1
1
1
1
1
1
1
1
1
1
1
1
1
1
1
1
1
1
1
1
1
1
1
1
1
1
1
1
1
1
1
1
1
1
1
1
1
1
1
1
1
1
1
1
1
1
1
1
1
1
1
1
1
1
1
1
1
1
1
1
1
1
1
1
1
1
1
1
1
1
1
1
1
1
1
1
1
1
1
1
1
1
1
1
1
1
1
1
1
1
1
1
1
1
1
1
1
1
1
1
1
1
1
1
1
1
1
1
1
1
1
1
1
1
1
1
1
1
1
1
1
1
1
1
1
1
1
1
1
1
1
1
1
1
1
1
1
1
1
1
1
1
1
1
1
1
1
1
1
1
1
1
1
1
1
1
1
1
1
1
1
1
1
1
1
1
1
1
1
1
1
1
1
1
1
1
1
1
1
1
1
1
1
1
1
1
1
1
1
1
1
1
1
1
1
1
1
1
1
1
1
1
1
1
1
1
1
1
1
1
1
1
1
1
1
1
1
1
1
1
1
1
1
1
1
1
1
1
1
1
1
1
1
1
1
1
1
1
1
1
1
1
1
1
1
1
1
1
1
1
1
1
1
1
1
1
1
1
1
1
1
1
1
1
1
1
1
1
1
1
1
1
1
1
1
1
1
1
1
1
1
1
1
1
1
1
1
1
1
1
1
1
1
1
1
1
1
1
1
1
1
1
1
1
1
1
1
1
1
1
1
1
1
1
1
1
1
1
1
1
1
1
1
1
1
1
1
1
1
1
1
1
1
1
1
1
1
1
1
1
1
1
1
1
1
1
1
1
1
1
1
1
1
1
1
1
1
1
1
1
1
1
1
1
1
1
1
1
1
1
1
1
1
1
1
1
1
1
1
1
1
1
1
1
1
1
1
1
1
1
1
1
1
1
1
1
1
1
1
1
1
1
1
1
1
1
1
1
1
1
1
1
1
1
1
1
1
1
1
1
1
1
1
1
1
1
1
1
1
1
1
1
1
1
1
1
1
1
1
1
1
1
1
1
1
1
1
1
1
1
1
1
1
1
1
1
1
1
1
1
1
1
1
1
1
1
1
1
1
1
1
1
1
1
1
1
1
1
1
1
1
1
1
1
1
1
1
1
1
1
1
1
1
1
1
1
1
1
1
1
1
1
1
1
1
1
1
1
1
1
1
1
1
1
1
1
1
1
1
1
1
1
1
1
1
1
1
1
1
1
1
1
1
1
1
1
1
1
1
1
1
1
1
1
1
1
1
1
1
1
1
1
1
1
1
1
1
1
1
1
1
1
1
1
1
1
1
1
1
1
1
1
1
1
1
1
1
1
1
1
1
1
1
1
1
1
1
1
1
1
1
1
1
1
1
1
1
1
1
1
1
1
1
1
1
1
1
1
1
1
1
1
1
1
1
1
1
1
1
1
1
1
1
1
1
1
1
1
1
1
1
1
1
1
1
1
1
1
1
1
1
1
1
1
1
1
1
1
1
1
1
1
1
1
1
1
1
1
1
1
1
1
1
1
1
1
1
1
1
1
1
1
1
1
1
1
1
1
1
1
1
1
1
1
1
1
1
1
1
1
1
1
1
1
1
1
1
1
1
1
1
1
1
1
1
1
1
1
1
1
1
1
1
1
1
1
1
1
1
1
1
1
1
1
1
1
1
1
1
1
1
1
1
1
1
1
1
1
1
1
1
1
1
1
1
1
1
1
1
1
1
1
1
1
1
1
1
1
1
1
1
1
1
1
1
1
1
1
1
1
1
1
1
1
1
1
1
1
1
1
1
1
1
1
1
1
1
1
1
1
1
1
1
1
1
1
1
1
1
1
1
1
1
1
1
1
1
1
1
1
1
1
1
1
1
1
1
1
1
1
1
1
1
1
1
1
1
1
1
1
1
1
1
1
1
1
1
1
1
1
1
1
1
1
1
1
1
1
1
1
1
1
1
1
1
1
1
1
1
1
1
1
1
1
1
1
1
1
1
1
1
1
1
1
1
1
1
1
1
1
1
1
1
1
1
1
1
1
1
1
1
1
1
1
1
1
1
1
1
1
1
1
1
1
1
1
1
1
1
1
1
1
1
1
1
1
1
1
1
1
1
1
1
1
1
1
1
1
1
1
1
1
1
1
1
1
1
1
1
1
1
1
1
1
1
1
1
1
1
1
1
1
1
1
1
1
1
1
1
1
1
1
1
1
1
1
1
1
1
1
1
1
1
1
1
1
1
1
1
1
1
1
1
1
1
1
1
1
1
1
1
1
1
1
1
1
1
1
1
1
1
1
1
1
1
1
1
1
1
1
1
1
1
1
1
1
1
1
1
1
1
1
1
1
1
1
1
1
1
1
1
1
1
1
1
1
1
1
1
1
1
1
1
1
1
1
1
1
1
1
1
1
1
1
1
1
1
1
1
1
1
1
1
1
1
1
1
1
1
1
1
1
1
1
1
1
1
1
1
1
1
1
1
1
1
1
1
1
1
1
1
1
1
1
1
1
1
1
1
1
1
1
1
1
1
1
1
1
1
1
1
1
1
1
1
1
1
1
1
1
1
1
1
1
1
1
1
1
1
1
1
1
1
1
1
1
1
1
1
1
1
1
1
1
1
1
1
1
1
1
1
1
1
1
1
1
1
1
1
1
1
1
1
1
1
1
1
1
1
1
1
1
1
1
1
1
1
1
1
1
1
1
1
1
1
1
1
1
1
1
1
1
1
1
1
1
1
1
1
1
1
1
1
1
1
1
1
1
1
1
1
1
1
1
1
1
1
1
1
1
1
1
1
1
1
1
1
1
1
1
1
1
1
1
1
1
1
1
1
1
1
1
1
1
1
1
1
1
1
1
1
1
1
1
1
1
1
1
1
1
1
1
1
1
1
1
1
1
1
1
1
1
1
1
1
1
1
1
1
1
1
1
1
1
1
1
1
1
1
1
1
1
1
1
1
1
1
1
1
1
1
1
1
1
1
1
1
1
1
1
1
1
1
1
1
1
1
1
1
1
1
1
1
1
1
1
1
1
1
1
1
1
1
1
1
1
1
1
1
1
1
1
1
1
1
1
1
1
1
1
1
1
1
1
1
1
1
1
1
1
1
1
1
1
1
1
1
1
1
1
1
1
1
1
1
1
1
1
1
1
1
1
1
1
1
1
1
1
1
1
1
1
1
1
1
1
1
1
1
1
1
1
1
1
1
1
1
1
1
1
1
1
1
1
1
1
1
1
1
1
1
1
1
1
1
1
1
1
1
1
1
1
1
1
1
1
1
1
1
1
1
1
1
1
1
1
1
1
1
1
1
1
1
1
1
1
1
1
1
1
1
1
1
1
1
1
1
1
1
1
1
1
1
1
1
1
1
1
1
1
1
1
1
1
1
1
1
1
1
1
1
1
1
1
1
1
1
1
1
1
1
1
1
1
1
1
1
1
1
1
1
1
1
1
1
1
1
1
1
1
1
1
1
1
1
1
1
1
1
1
1
1
1
1
1
1
1
1
1
1
1
1
1
1
1
1
1
1
1
1
1
1
1
1
1
1
1
1
1
1
1
1
1
1
1
1
1
1
1
1
1
1
1
1
1
1
1
1
1
1
1
1
1
1
1
1
1
1
1
1
1
1
1
1
1
1
1
1
1
1
1
1
1
1
1
1
1
1
1
1
1
1
1
1
1
1
1
1
1
1
1
1
1
1
1
1
1
1
1
1
1
1
1
1
1
1
1
1
1
1
1
1
1
1.07881
1.17709
1.28428
1.3888
1.47077
1.5579
1.62274
1.66391
1.69403
1.68934
1.66329
1.61631
1.57132
1.53441
1.52348
1.51655
1.51436
1.51741
1.52192
1.52692
1.53084
1.534
1.53623
1.53801
1.54005
1.54145
1.5423
1.54289
1.54269
1.54229
1.54172
1.54121
1.54122
1.54192
1.54346
1.54561
1.54705
1.5472
1.54709
1.54663
1.54566
1.54524
1.54536
1.54559
1.54598
1.54647
1.5467
1.54673
1.00056
1.00722
1.02247
1.06593
1.13378
1.21082
1.30156
1.37733
1.45558
1.50481
1.53362
1.55745
1.56269
1.5593
1.55234
1.54784
1.54047
1.53699
1.53176
1.53151
1.53327
1.53638
1.53917
1.54131
1.54352
1.54516
1.54608
1.54691
1.54692
1.54667
1.5462
1.54601
1.54607
1.54641
1.54699
1.54751
1.5477
1.54755
1.54717
1.54661
1.54626
1.54629
1.54653
1.54689
1.54742
1.54799
1.54813
1.54867
1
1
1
0.999996
1.00055
1.00424
1.02235
1.07438
1.18304
1.34749
1.50072
1.58518
1.62017
1.61969
1.61236
1.59966
1.58201
1.56012
1.54526
1.54131
1.54206
1.54471
1.54721
1.5496
1.55184
1.55355
1.55481
1.556
1.55688
1.5571
1.55714
1.55691
1.55634
1.55605
1.55596
1.55572
1.55517
1.55431
1.55325
1.55224
1.55167
1.55151
1.55149
1.55156
1.55187
1.55229
1.55225
1.55323
1
1
1
1
1
0.999994
1.00001
1.00005
1.00189
1.0304
1.14347
1.34074
1.48214
1.61049
1.61557
1.60306
1.60041
1.59676
1.58334
1.57105
1.56635
1.56422
1.56094
1.56112
1.56292
1.5644
1.56556
1.5668
1.56749
1.56812
1.56833
1.56812
1.56752
1.56719
1.56699
1.5667
1.56613
1.56518
1.56388
1.56263
1.56194
1.56163
1.56144
1.5613
1.56126
1.56121
1.56042
1.56126
1
1
1
1
1
1
1
1
1
0.999975
1.00052
1.01848
1.10545
1.29945
1.47428
1.56196
1.62625
1.6268
1.62145
1.60781
1.59579
1.58543
1.5787
1.57612
1.57484
1.57567
1.57653
1.5773
1.57769
1.57811
1.57765
1.57683
1.57591
1.57584
1.5764
1.57647
1.57611
1.57538
1.57427
1.57314
1.57255
1.57242
1.57238
1.57237
1.5723
1.57195
1.57054
1.57113
1
1
1
1
1
1
1
1
1
0.999999
0.999999
0.99998
1.00028
1.00941
1.09541
1.24748
1.43984
1.53049
1.58962
1.60658
1.60603
1.60182
1.59394
1.58859
1.58591
1.58299
1.58114
1.58038
1.58071
1.58159
1.58233
1.58249
1.58289
1.58356
1.58392
1.58378
1.58334
1.58265
1.58175
1.58097
1.58065
1.58052
1.58043
1.58045
1.58027
1.57957
1.57785
1.57807
1
1
1
1
1
1
1
1
1
1
1
0.999999
0.999999
0.999985
1.00029
1.00592
1.06508
1.22557
1.39531
1.52215
1.56133
1.58464
1.59077
1.59039
1.58617
1.58076
1.58094
1.58111
1.58005
1.58005
1.58101
1.58294
1.58586
1.58745
1.58735
1.5867
1.58599
1.58543
1.58479
1.58418
1.58396
1.5837
1.58366
1.58371
1.58349
1.58276
1.58135
1.58128
1
1
1
1
1
1
1
1
1
1
1
1
1
0.999999
0.999999
0.999991
1.00015
1.00613
1.0479
1.20147
1.35959
1.50171
1.55459
1.56602
1.57809
1.57433
1.57319
1.57425
1.57414
1.57436
1.57545
1.57802
1.5811
1.58346
1.58464
1.5846
1.58433
1.5837
1.58322
1.58321
1.58323
1.58333
1.58384
1.58402
1.58395
1.58368
1.5831
1.58297
1
1
1
1
1
1
1
1
1
1
1
1
1
1
1
0.999999
0.999999
0.999993
1.00008
1.00509
1.04274
1.16639
1.34462
1.46978
1.54908
1.56533
1.56841
1.57113
1.57008
1.56931
1.56973
1.5714
1.57344
1.57515
1.57698
1.57838
1.57901
1.57939
1.57979
1.58052
1.58117
1.58177
1.58247
1.58287
1.58309
1.58317
1.58304
1.58286
1
1
1
1
1
1
1
1
1
1
1
1
1
1
1
1
1
1
1
0.999994
1.00009
1.00303
1.04596
1.1574
1.33151
1.44757
1.52649
1.55814
1.56669
1.56692
1.56931
1.5702
1.5699
1.57006
1.57095
1.57267
1.57386
1.57464
1.57544
1.57629
1.57727
1.57842
1.5792
1.57964
1.58027
1.58081
1.58116
1.58094
1
1
1
1
1
1
1
1
1
1
1
1
1
1
1
1
1
1
1
0.999999
1
0.999995
1.00017
1.00309
1.03836
1.16248
1.32065
1.44719
1.50584
1.54312
1.55931
1.56339
1.56341
1.56489
1.56603
1.56674
1.56829
1.56976
1.57109
1.57216
1.57352
1.57477
1.57544
1.57602
1.57666
1.57707
1.57751
1.57725
1
1
1
1
1
1
1
1
1
1
1
1
1
1
1
1
1
1
1
1
1
0.999999
1
0.999996
1.00015
1.00435
1.03469
1.1648
1.31806
1.46346
1.51271
1.53179
1.54401
1.55236
1.55538
1.55733
1.55995
1.56248
1.56424
1.5656
1.56685
1.56813
1.56927
1.57017
1.57104
1.57184
1.57268
1.57254
1
1
1
1
1
1
1
1
1
1
1
1
1
1
1
1
1
1
1
1
1
1
1
1
1
0.999997
1.00013
1.00566
1.04101
1.17241
1.34033
1.468
1.53148
1.53963
1.54542
1.54975
1.55237
1.5547
1.55638
1.55775
1.55921
1.5612
1.56306
1.56399
1.56453
1.56505
1.56562
1.56578
1
1
1
1
1
1
1
1
1
1
1
1
1
1
1
1
1
1
1
1
1
1
1
1
1
1
1
1
1.00023
1.00654
1.06035
1.19304
1.36531
1.47535
1.53413
1.55291
1.55412
1.55765
1.55752
1.55658
1.55658
1.55782
1.55928
1.56018
1.56013
1.55974
1.55981
1.56017
1
1
1
1
1
1
1
1
1
1
1
1
1
1
1
1
1
1
1
1
1
1
1
1
1
1
1
1
0.999999
1
1.00058
1.00907
1.08527
1.23379
1.40115
1.48603
1.5343
1.55435
1.55562
1.55588
1.55701
1.5578
1.55895
1.55928
1.55881
1.55813
1.558
1.55826
1
1
1
1
1
1
1
1
1
1
1
1
1
1
1
1
1
1
1
1
1
1
1
1
1
1
1
1
1
1
0.999999
1.00001
1.00153
1.01645
1.1196
1.29021
1.45372
1.51015
1.529
1.5432
1.55145
1.55352
1.55489
1.55591
1.55639
1.55632
1.55652
1.55718
1
1
1
1
1
1
1
1
1
1
1
1
1
1
1
1
1
1
1
1
1
1
1
1
1
1
1
1
1
1
1
1
0.999999
1.00006
1.0039
1.03604
1.17748
1.35513
1.49373
1.53988
1.5444
1.54851
1.5498
1.55084
1.55222
1.55334
1.55422
1.5554
1
1
1
1
1
1
1
1
1
1
1
1
1
1
1
1
1
1
1
1
1
1
1
1
1
1
1
1
1
1
1
1
1
1
1
1.00031
1.01022
1.07762
1.25946
1.42599
1.51956
1.55341
1.55417
1.55727
1.55722
1.5564
1.55535
1.55576
1
1
1
1
1
1
1
1
1
1
1
1
1
1
1
1
1
1
1
1
1
1
1
1
1
1
1
1
1
1
1
1
1
1
1
0.999999
1.00004
1.0015
1.03011
1.15681
1.35311
1.4719
1.53174
1.55746
1.55833
1.5574
1.55732
1.55778
1
1
1
1
1
1
1
1
1
1
1
1
1
1
1
1
1
1
1
1
1
1
1
1
1
1
1
1
1
1
1
1
1
1
1
1
1
1
1.00035
1.00726
1.07897
1.26285
1.45196
1.52313
1.53766
1.54537
1.55157
1.55486
1
1
1
1
1
1
1
1
1
1
1
1
1
1
1
1
1
1
1
1
1
1
1
1
1
1
1
1
1
1
1
1
1
1
1
1
1
1
1
1.00002
1.00241
1.03386
1.18379
1.38211
1.51409
1.5478
1.55322
1.55519
1
1
1
1
1
1
1
1
1
1
1
1
1
1
1
1
1
1
1
1
1
1
1
1
1
1
1
1
1
1
1
1
1
1
1
1
1
1
1
1
1
1.00044
1.0145
1.10956
1.32357
1.47778
1.54602
1.56124
1
1
1
1
1
1
1
1
1
1
1
1
1
1
1
1
1
1
1
1
1
1
1
1
1
1
1
1
1
1
1
1
1
1
1
1
1
1
1
1
1
1
1.00014
1.00429
1.07268
1.25751
1.45371
1.50854
1
1
1
1
1
1
1
1
1
1
1
1
1
1
1
1
1
1
1
1
1
1
1
1
1
1
1
1
1
1
1
1
1
1
1
1
1
1
1
1
1
1
1
1.00002
1.00254
1.03232
1.20658
1.39219
1
1
1
1
1
1
1
1
1
1
1
1
1
1
1
1
1
1
1
1
1
1
1
1
1
1
1
1
1
1
1
1
1
1
1
1
1
1
1
1
1
1
1
1
1.00001
1.00055
1.02333
1.13498
1
1
1
1
1
1
1
1
1
1
1
1
1
1
1
1
1
1
1
1
1
1
1
1
1
1
1
1
1
1
1
1
1
1
1
1
1
1
1
1
1
1
1
1
1
1
1.00051
1.00612
1
1
1
1
1
1
1
1
1
1
1
1
1
1
1
1
1
1
1
1
1
1
1
1
1
1
1
1
1
1
1
1
1
1
1
1
1
1
1
1
1
1
1
1
1
1
1.00001
0.999944
1
1
1
1
1
1
1
1
1
1
1
1
1
1
1
1
1
1
1
1
1
1
1
1
1
1
1
1
1
1
1
1
1
1
1
1
1
1
1
1
1
1
1
1
1
1
1
0.999982
1
1
1
1
1
1
1
1
1
1
1
1
1
1
1
1
1
1
1
1
1
1
1
1
1
1
1
1
1
1
1
1
1
1
1
1
1
1
1
1
1
1
1
1
1
1
1
0.999998
1
1
1
1
1
1
1
1
1
1
1
1
1
1
1
1
1
1
1
1
1
1
1
1
1
1
1
1
1
1
1
1
1
1
1
1
1
1
1
1
1
1
1
1
1
1
1
1
1
1
1
1
1
1
1
1
1
1
1
1
1
1
1
1
1
1
1
1
1
1
1
1
1
1
1
1
1
1
1
1
1
1
1
1
1
1
1
1
1
1
1
1
1
1
1
1
1
1
1
1
1
1
1
1
1
1
1
1
1
1
1
1
1
1
1
1
1
1
1
1
1
1
1
1
1
1
1
1
1
1
1
1
1
1
1
1
1
1
1
1
1
1
1
1
1
1
1
1
1
1
1
1
1
1
1
1
1
1
1
1
1
1
1
1
1
1
1
1
1
1
1
1
1
1
1
1
1
1
1
1
1
1
1
1
1
1
1
1
1
1
1
1
1
1
1
1
1
1
1
1
1
1
1
1
1
1
1
1
1
1
1
1
1
1
1
1
1
1
1
1
1
1
1
1
1
1
1
1
1
1
1
1
1
1
1
1
1
1
1
1
1
1
1
1
1
1
1
1
1
1
1
1
1
1
1
1
1
1
1
1
1
1
1
1
1
1
1
1
1
1
1
1
1
1
1
1
1
1
1
1
1
1
1
1
1
1
1
1
1
1
1
1
1
1
1
1
1
1
1
1
1
1
1
1
1
1
1
1
1
1
1
1
1
1
1
1
1
1
1
1
1
1
1
1
1
1
1
1
1
1
1
1
1
1
1
0.999997
1
1
1
1
1
1
1
1
1
1
1
1
1
1
1
1
1
1
1
1
1
1
1
1
1
1
1
1
1
1
1
1
1
1
1
1
1
1
1
1
1
1
1
1
1
1
1
0.999982
1
1
1
1
1
1
1
1
1
1
1
1
1
1
1
1
1
1
1
1
1
1
1
1
1
1
1
1
1
1
1
1
1
1
1
1
1
1
1
1
1
1
1
1
1
1
1.00001
0.999945
1
1
1
1
1
1
1
1
1
1
1
1
1
1
1
1
1
1
1
1
1
1
1
1
1
1
1
1
1
1
1
1
1
1
1
1
1
1
1
1
1
1
1
1
1
1
1.00051
1.00618
1
1
1
1
1
1
1
1
1
1
1
1
1
1
1
1
1
1
1
1
1
1
1
1
1
1
1
1
1
1
1
1
1
1
1
1
1
1
1
1
1
1
1
1
1.00001
1.00055
1.02332
1.13473
1
1
1
1
1
1
1
1
1
1
1
1
1
1
1
1
1
1
1
1
1
1
1
1
1
1
1
1
1
1
1
1
1
1
1
1
1
1
1
1
1
1
1
1.00002
1.00254
1.03234
1.20658
1.39176
1
1
1
1
1
1
1
1
1
1
1
1
1
1
1
1
1
1
1
1
1
1
1
1
1
1
1
1
1
1
1
1
1
1
1
1
1
1
1
1
1
1
1.00014
1.00429
1.07268
1.25762
1.45345
1.50854
1
1
1
1
1
1
1
1
1
1
1
1
1
1
1
1
1
1
1
1
1
1
1
1
1
1
1
1
1
1
1
1
1
1
1
1
1
1
1
1
1
1.00044
1.0145
1.10955
1.32362
1.47779
1.54594
1.56128
1
1
1
1
1
1
1
1
1
1
1
1
1
1
1
1
1
1
1
1
1
1
1
1
1
1
1
1
1
1
1
1
1
1
1
1
1
1
1
1.00002
1.00241
1.03387
1.18378
1.38208
1.51412
1.5478
1.55321
1.55519
1
1
1
1
1
1
1
1
1
1
1
1
1
1
1
1
1
1
1
1
1
1
1
1
1
1
1
1
1
1
1
1
1
1
1
1
1
1
1.00035
1.00726
1.07896
1.26286
1.45195
1.52313
1.53767
1.54538
1.55156
1.55485
1
1
1
1
1
1
1
1
1
1
1
1
1
1
1
1
1
1
1
1
1
1
1
1
1
1
1
1
1
1
1
1
1
1
1
0.999999
1.00004
1.0015
1.03011
1.1568
1.35311
1.4719
1.53174
1.55747
1.55833
1.55741
1.55732
1.55778
1
1
1
1
1
1
1
1
1
1
1
1
1
1
1
1
1
1
1
1
1
1
1
1
1
1
1
1
1
1
1
1
1
1
1
1.00031
1.01022
1.07762
1.25945
1.42599
1.51956
1.55341
1.55418
1.55727
1.55722
1.5564
1.55535
1.55576
1
1
1
1
1
1
1
1
1
1
1
1
1
1
1
1
1
1
1
1
1
1
1
1
1
1
1
1
1
1
1
1
0.999999
1.00006
1.0039
1.03604
1.17748
1.35513
1.49373
1.53988
1.5444
1.5485
1.5498
1.55084
1.55222
1.55334
1.55422
1.5554
1
1
1
1
1
1
1
1
1
1
1
1
1
1
1
1
1
1
1
1
1
1
1
1
1
1
1
1
1
1
0.999999
1.00001
1.00153
1.01645
1.1196
1.29021
1.45372
1.51015
1.529
1.5432
1.55145
1.55351
1.55488
1.55591
1.55639
1.55632
1.55652
1.55718
1
1
1
1
1
1
1
1
1
1
1
1
1
1
1
1
1
1
1
1
1
1
1
1
1
1
1
1
0.999999
1
1.00058
1.00907
1.08527
1.23379
1.40115
1.48603
1.5343
1.55435
1.55562
1.55588
1.55701
1.5578
1.55895
1.55928
1.55881
1.55813
1.55801
1.55826
1
1
1
1
1
1
1
1
1
1
1
1
1
1
1
1
1
1
1
1
1
1
1
1
1
1
1
1
1.00023
1.00654
1.06035
1.19304
1.36531
1.47535
1.53413
1.55291
1.55412
1.55765
1.55752
1.55658
1.55658
1.55782
1.55928
1.56018
1.56013
1.55974
1.55981
1.56017
1
1
1
1
1
1
1
1
1
1
1
1
1
1
1
1
1
1
1
1
1
1
1
1
1
0.999997
1.00013
1.00566
1.04101
1.17241
1.34033
1.468
1.53148
1.53963
1.54542
1.54975
1.55237
1.5547
1.55638
1.55775
1.55921
1.5612
1.56306
1.56399
1.56453
1.56505
1.56562
1.56579
1
1
1
1
1
1
1
1
1
1
1
1
1
1
1
1
1
1
1
1
1
0.999999
1
0.999996
1.00015
1.00435
1.03469
1.1648
1.31806
1.46346
1.51271
1.53179
1.54401
1.55236
1.55538
1.55733
1.55995
1.56248
1.56424
1.5656
1.56685
1.56813
1.56927
1.57017
1.57104
1.57184
1.57268
1.57254
1
1
1
1
1
1
1
1
1
1
1
1
1
1
1
1
1
1
1
0.999999
1
0.999995
1.00017
1.00309
1.03836
1.16248
1.32065
1.44719
1.50584
1.54312
1.55931
1.56339
1.56341
1.56489
1.56603
1.56674
1.56829
1.56976
1.57109
1.57216
1.57352
1.57477
1.57544
1.57602
1.57666
1.57707
1.57751
1.57725
1
1
1
1
1
1
1
1
1
1
1
1
1
1
1
1
1
1
1
0.999994
1.00009
1.00303
1.04596
1.1574
1.33151
1.44757
1.52649
1.55814
1.56669
1.56692
1.56931
1.5702
1.5699
1.57006
1.57095
1.57267
1.57386
1.57464
1.57544
1.57629
1.57727
1.57842
1.5792
1.57964
1.58027
1.58081
1.58116
1.58094
1
1
1
1
1
1
1
1
1
1
1
1
1
1
1
0.999999
0.999999
0.999993
1.00008
1.00509
1.04274
1.16639
1.34462
1.46978
1.54908
1.56533
1.56841
1.57113
1.57008
1.56931
1.56973
1.5714
1.57344
1.57515
1.57698
1.57838
1.57901
1.57939
1.57979
1.58052
1.58117
1.58177
1.58247
1.58287
1.58309
1.58317
1.58304
1.58286
1
1
1
1
1
1
1
1
1
1
1
1
1
0.999999
0.999999
0.999991
1.00015
1.00613
1.0479
1.20147
1.35959
1.50171
1.55459
1.56602
1.57809
1.57433
1.57319
1.57425
1.57414
1.57436
1.57545
1.57802
1.5811
1.58346
1.58464
1.5846
1.58433
1.5837
1.58322
1.58321
1.58323
1.58333
1.58384
1.58402
1.58395
1.58368
1.5831
1.58297
1
1
1
1
1
1
1
1
1
1
1
0.999999
0.999999
0.999985
1.00029
1.00592
1.06508
1.22557
1.39531
1.52215
1.56133
1.58464
1.59077
1.59038
1.58617
1.58076
1.58094
1.58111
1.58005
1.58005
1.58101
1.58294
1.58586
1.58745
1.58735
1.5867
1.58599
1.58543
1.58479
1.58418
1.58396
1.5837
1.58366
1.58371
1.58349
1.58276
1.58135
1.58128
1
1
1
1
1
1
1
1
1
0.999999
0.999999
0.99998
1.00028
1.00941
1.09541
1.24748
1.43984
1.53049
1.58962
1.60658
1.60603
1.60182
1.59394
1.58859
1.58591
1.58299
1.58114
1.58038
1.58071
1.58159
1.58233
1.58249
1.58289
1.58356
1.58392
1.58378
1.58334
1.58265
1.58175
1.58097
1.58065
1.58052
1.58043
1.58045
1.58027
1.57957
1.57785
1.57807
1
1
1
1
1
1
1
1
1
0.999975
1.00052
1.01848
1.10545
1.29945
1.47428
1.56196
1.62625
1.6268
1.62145
1.60781
1.59579
1.58543
1.5787
1.57612
1.57484
1.57567
1.57653
1.5773
1.57769
1.57811
1.57765
1.57683
1.57591
1.57584
1.5764
1.57647
1.57611
1.57538
1.57427
1.57314
1.57255
1.57242
1.57238
1.57237
1.5723
1.57195
1.57054
1.57113
1
1
1
1
1
0.999994
1.00001
1.00005
1.00189
1.0304
1.14347
1.34074
1.48214
1.61049
1.61557
1.60306
1.60041
1.59676
1.58334
1.57105
1.56635
1.56422
1.56094
1.56112
1.56292
1.5644
1.56556
1.5668
1.56749
1.56812
1.56833
1.56812
1.56752
1.56719
1.56699
1.5667
1.56613
1.56518
1.56388
1.56263
1.56194
1.56163
1.56144
1.5613
1.56126
1.56121
1.56042
1.56126
1
1
1
0.999996
1.00055
1.00424
1.02235
1.07438
1.18304
1.34749
1.50072
1.58518
1.62017
1.61969
1.61236
1.59966
1.58201
1.56012
1.54526
1.54131
1.54206
1.54471
1.54721
1.5496
1.55184
1.55355
1.55481
1.556
1.55688
1.5571
1.55714
1.55691
1.55634
1.55605
1.55596
1.55572
1.55517
1.55431
1.55325
1.55224
1.55167
1.55151
1.55149
1.55156
1.55187
1.55229
1.55225
1.55323
1.00056
1.00722
1.02247
1.06593
1.13378
1.21082
1.30156
1.37733
1.45558
1.50481
1.53362
1.55745
1.56269
1.5593
1.55234
1.54784
1.54047
1.53699
1.53176
1.53151
1.53327
1.53638
1.53917
1.54131
1.54352
1.54516
1.54608
1.54691
1.54692
1.54667
1.5462
1.54601
1.54607
1.54641
1.54699
1.54751
1.5477
1.54755
1.54717
1.54661
1.54626
1.54629
1.54653
1.54689
1.54742
1.54799
1.54813
1.54867
1.07881
1.17709
1.28428
1.3888
1.47077
1.5579
1.62274
1.66391
1.69403
1.68934
1.66329
1.61631
1.57132
1.53441
1.52348
1.51655
1.51436
1.51741
1.52192
1.52692
1.53084
1.534
1.53623
1.53801
1.54005
1.54145
1.5423
1.54289
1.54269
1.54229
1.54172
1.54121
1.54122
1.54192
1.54346
1.54561
1.54705
1.5472
1.54709
1.54663
1.54566
1.54524
1.54536
1.54559
1.54598
1.54647
1.5467
1.54674
1.40496
1.23615
1.09515
1.04402
1.00428
0.982546
0.995438
1.02723
1.04239
1.0501
1.07069
1.10641
1.11627
1.1132
1.11322
1.11602
1.11498
1.11522
1.11985
1.12131
1.1205
1.11767
1.11556
1.11502
1.11227
1.10947
1.1091
1.10906
1.10864
1.10748
1.10623
1.10535
1.10395
1.10255
1.10231
1.10236
1.10322
1.10507
1.1055
1.10545
1.10519
1.10413
1.10342
1.10348
1.10346
1.10342
1.10315
1.10327
1.10691
1.16671
1.32108
1.57585
1.82709
2.06146
2.24964
2.23913
2.17453
2.10218
2.09061
2.08529
2.07038
2.05174
2.03743
2.03018
2.02365
2.01434
2.00297
1.99027
1.97248
1.94884
1.93029
1.92044
1.91339
1.9094
1.90553
1.89948
1.88875
1.86619
1.84709
1.83977
1.83408
1.83035
1.82588
1.81946
1.80973
1.78876
1.76147
1.75
1.74539
1.74306
1.74615
1.74577
1.74113
1.73398
1.7162
1.68984
1.67704
1.67233
1.6687
1.66597
1.66279
1.65838
1.65097
1.63733
1.62317
1.61673
1.61262
1.60858
1.60408
1.59764
1.586
1.57001
1.56068
1.55685
1.55396
1.55175
1.55015
1.54755
1.54289
1.53053
1.51002
1.50051
1.49728
1.49436
1.49178
1.48968
1.48696
1.4837
1.47887
1.46951
1.4562
1.44769
1.44387
1.44115
1.43874
1.43536
1.42954
1.42139
1.41549
1.41162
1.40768
1.40308
1.39654
1.38775
1.38898
1.40882
1.47581
1.58648
1.70494
1.79493
1.86931
1.91635
1.92177
1.90873
1.88816
1.87285
1.86813
1.86389
1.85945
1.85359
1.84607
1.83847
1.83413
1.83159
1.82808
1.82364
1.81764
1.80945
1.80402
1.80034
1.79633
1.7928
1.7903
1.78802
1.78584
1.78281
1.77709
1.76758
1.757
1.74837
1.74187
1.73737
1.73505
1.73424
1.73427
1.73421
1.73347
1.7307
1.72295
1.71246
1.70762
1.70137
1.50255
1.42498
1.31712
1.24287
1.19819
1.13305
1.09856
1.08918
1.06814
1.05819
1.06004
1.06797
1.06812
1.06855
1.0715
1.07837
1.08331
1.08703
1.09369
1.10083
1.10156
1.10144
1.10185
1.1026
1.10205
1.1017
1.10188
1.10267
1.10297
1.10227
1.10157
1.10121
1.10024
1.09934
1.09883
1.0988
1.09945
1.10051
1.10078
1.10079
1.10055
1.09972
1.0991
1.09909
1.09901
1.09869
1.09912
1.10309
1.16281
1.36278
1.50887
1.56604
1.67134
1.78217
1.97376
2.0896
2.12572
2.11418
2.10522
2.0931
2.07674
2.06113
2.04807
2.0339
2.02037
2.01063
2.00138
1.99088
1.97683
1.95889
1.94178
1.92839
1.91904
1.91177
1.90511
1.89784
1.88818
1.87223
1.85356
1.84233
1.83567
1.82949
1.82392
1.81756
1.8091
1.79431
1.77226
1.75667
1.75072
1.74712
1.74399
1.74207
1.73773
1.7304
1.71696
1.69622
1.68132
1.6744
1.67027
1.66666
1.66298
1.65945
1.65421
1.64373
1.63006
1.62193
1.61691
1.61238
1.60747
1.6007
1.58914
1.57386
1.5642
1.55908
1.55563
1.55263
1.54959
1.54635
1.5421
1.5333
1.51706
1.50335
1.49856
1.49645
1.49488
1.49261
1.48985
1.4866
1.48154
1.47212
1.45975
1.45184
1.44827
1.44546
1.44273
1.43937
1.43398
1.42622
1.41957
1.41518
1.41166
1.40771
1.40355
1.40881
1.4333
1.49351
1.56376
1.61712
1.66663
1.73012
1.78309
1.82579
1.84888
1.86939
1.87541
1.8735
1.87264
1.86996
1.86407
1.85831
1.85221
1.84442
1.83734
1.83324
1.82959
1.82522
1.81924
1.8121
1.8066
1.80269
1.79926
1.79556
1.79149
1.78848
1.78599
1.7826
1.77647
1.7676
1.75851
1.75099
1.74481
1.74029
1.73726
1.73541
1.7347
1.73434
1.73383
1.73187
1.72541
1.71552
1.71044
1.70387
1.53829
1.49857
1.4335
1.35591
1.29442
1.22513
1.16323
1.13393
1.10415
1.06284
1.05389
1.05441
1.04783
1.04451
1.04652
1.05038
1.0535
1.05787
1.06472
1.07534
1.07902
1.07983
1.08125
1.08372
1.08546
1.08657
1.08851
1.09102
1.09223
1.0922
1.09181
1.09057
1.08902
1.08869
1.08866
1.08903
1.0898
1.09007
1.09031
1.09044
1.09011
1.0897
1.08972
1.08991
1.09046
1.092
1.09943
1.15837
1.37583
1.53545
1.59061
1.59704
1.60668
1.62236
1.70889
1.92454
2.10658
2.14454
2.12886
2.10262
2.08545
2.07787
2.06561
2.04585
2.02489
2.0097
1.99988
1.98893
1.97806
1.96988
1.95965
1.94656
1.93257
1.91979
1.90885
1.89789
1.88607
1.87476
1.8627
1.85033
1.83983
1.83223
1.82478
1.81613
1.80609
1.79522
1.78381
1.77117
1.75939
1.75255
1.74758
1.74152
1.73371
1.72415
1.71296
1.70174
1.69067
1.67983
1.67299
1.66898
1.66478
1.65942
1.65224
1.64244
1.63113
1.6209
1.61324
1.60748
1.60214
1.59584
1.58723
1.5759
1.56631
1.56216
1.55933
1.55587
1.55171
1.54653
1.53897
1.52942
1.51967
1.51131
1.50413
1.4966
1.4897
1.4855
1.48259
1.47973
1.47537
1.46782
1.46053
1.45597
1.45076
1.44367
1.43738
1.43263
1.42759
1.42134
1.41568
1.41181
1.41022
1.41124
1.4224
1.46508
1.53259
1.59087
1.62647
1.64397
1.65322
1.66745
1.69462
1.73759
1.79377
1.84683
1.87133
1.8765
1.8789
1.87596
1.87038
1.86643
1.86121
1.85149
1.83806
1.82951
1.82676
1.82323
1.81835
1.81466
1.81171
1.8075
1.80115
1.79451
1.79048
1.78791
1.78581
1.7827
1.77657
1.76747
1.75937
1.75352
1.74918
1.74522
1.74169
1.73889
1.7369
1.73529
1.73319
1.72983
1.724
1.71662
1.71069
1.70292
1.55622
1.53786
1.49938
1.44001
1.38
1.31785
1.25266
1.2151
1.18027
1.12665
1.10409
1.09293
1.07069
1.05278
1.05375
1.05167
1.04586
1.04506
1.04761
1.05107
1.05357
1.05613
1.05985
1.06633
1.07102
1.07413
1.0777
1.07965
1.08046
1.08121
1.08115
1.08034
1.08002
1.08027
1.08164
1.08349
1.08381
1.08354
1.08307
1.08222
1.08132
1.08125
1.08133
1.08195
1.08445
1.10492
1.18342
1.36745
1.55618
1.59875
1.61295
1.61245
1.61347
1.60277
1.60426
1.65944
1.85023
2.06296
2.09728
2.09979
2.10667
2.10175
2.08666
2.06369
2.04073
2.01972
2.00428
1.9937
1.98509
1.97783
1.9716
1.96335
1.95017
1.93161
1.91436
1.90049
1.88976
1.88266
1.87546
1.865
1.85133
1.8368
1.82489
1.8146
1.80697
1.80224
1.79722
1.78819
1.77597
1.76193
1.74951
1.73939
1.72922
1.72093
1.7154
1.71089
1.7035
1.69319
1.68173
1.67117
1.66421
1.65844
1.65262
1.64628
1.63792
1.62784
1.61821
1.61012
1.60305
1.59583
1.58839
1.58142
1.57489
1.56732
1.55879
1.5537
1.5501
1.54463
1.53616
1.5285
1.52389
1.519
1.51151
1.50093
1.49191
1.48679
1.48176
1.47602
1.47166
1.46912
1.46677
1.46321
1.45689
1.44759
1.438
1.43059
1.42606
1.42208
1.4185
1.4154
1.41876
1.44151
1.50382
1.57967
1.61969
1.64055
1.65477
1.66132
1.6596
1.65593
1.65609
1.66522
1.69581
1.75061
1.81579
1.84941
1.86424
1.87283
1.87979
1.87924
1.87316
1.86115
1.84574
1.83244
1.82717
1.82474
1.82299
1.82153
1.81869
1.81412
1.80727
1.8001
1.79463
1.79106
1.78799
1.7836
1.77585
1.76806
1.76366
1.76009
1.75609
1.75159
1.74757
1.7443
1.7417
1.73883
1.73435
1.7293
1.72455
1.71956
1.71421
1.70605
1.56722
1.56054
1.54055
1.49977
1.45126
1.39501
1.33185
1.28926
1.25242
1.19628
1.15975
1.13757
1.11101
1.07811
1.0717
1.06423
1.0497
1.04592
1.04852
1.04912
1.0478
1.04816
1.05018
1.0547
1.06099
1.06676
1.07171
1.07351
1.07404
1.07513
1.07538
1.07477
1.07471
1.07633
1.07944
1.08074
1.08076
1.08055
1.07985
1.07873
1.07829
1.07846
1.0789
1.08076
1.11378
1.26386
1.41521
1.54949
1.61478
1.62101
1.62178
1.62064
1.61871
1.61299
1.59912
1.59999
1.62502
1.76919
1.97076
2.08047
2.11581
2.11506
2.09811
2.07879
2.05975
2.03473
2.01006
1.99804
1.98964
1.98416
1.97703
1.96788
1.95668
1.93908
1.91822
1.90497
1.89705
1.88938
1.88093
1.87174
1.85911
1.84089
1.82562
1.81725
1.81068
1.80477
1.79957
1.79506
1.78781
1.77211
1.75045
1.73622
1.72871
1.72288
1.71745
1.71208
1.70742
1.70266
1.69399
1.67935
1.66659
1.6586
1.65185
1.64547
1.63941
1.63128
1.62021
1.61111
1.60488
1.59943
1.59377
1.588
1.58179
1.57408
1.56624
1.557
1.54814
1.54096
1.53521
1.53049
1.52624
1.52177
1.51659
1.50983
1.5
1.48747
1.47821
1.4726
1.46886
1.46608
1.46393
1.46149
1.45771
1.4514
1.44193
1.43349
1.42735
1.42462
1.42331
1.43291
1.47001
1.53595
1.61551
1.65084
1.66128
1.66649
1.66572
1.66336
1.66096
1.65619
1.65101
1.64659
1.64901
1.66558
1.71119
1.7853
1.83763
1.87176
1.88443
1.88269
1.87534
1.86504
1.85239
1.83858
1.83155
1.82853
1.82548
1.82288
1.82048
1.81748
1.814
1.80887
1.80215
1.79542
1.78905
1.78171
1.77508
1.77173
1.76917
1.76676
1.76319
1.75837
1.75417
1.75049
1.74641
1.74087
1.7346
1.72899
1.72404
1.71941
1.71538
1.70846
1.57551
1.5715
1.56367
1.54056
1.50514
1.46089
1.40431
1.35676
1.31561
1.26619
1.2276
1.20111
1.17115
1.13239
1.1184
1.106
1.08448
1.0707
1.06927
1.06251
1.05431
1.05188
1.05248
1.05233
1.05335
1.05782
1.06379
1.06555
1.06684
1.06891
1.07168
1.07262
1.07343
1.07613
1.07932
1.08015
1.08039
1.08039
1.07976
1.07885
1.07877
1.07921
1.08148
1.11079
1.30528
1.49945
1.58096
1.62111
1.63033
1.62937
1.62719
1.62107
1.61664
1.61577
1.60654
1.59719
1.59256
1.60061
1.68378
1.88115
2.03033
2.0801
2.08975
2.08408
2.07049
2.04435
2.01488
1.99902
1.99196
1.98647
1.98034
1.97064
1.95931
1.94296
1.92134
1.90747
1.89978
1.89261
1.88526
1.87702
1.86549
1.84772
1.82866
1.8186
1.81248
1.80756
1.80348
1.7978
1.7898
1.77564
1.75244
1.73606
1.72943
1.72418
1.71967
1.7169
1.71318
1.70736
1.6974
1.68124
1.66624
1.65828
1.65277
1.64794
1.64298
1.63535
1.62199
1.6103
1.60562
1.60272
1.60103
1.59815
1.59275
1.58493
1.57116
1.55361
1.54237
1.53775
1.53491
1.53345
1.53258
1.52972
1.52559
1.51962
1.50653
1.48561
1.47451
1.47133
1.46893
1.4668
1.46503
1.46314
1.46153
1.45808
1.44948
1.43931
1.43075
1.43205
1.4517
1.5138
1.58098
1.64357
1.67885
1.68053
1.67647
1.67274
1.66708
1.66306
1.66025
1.6572
1.65308
1.64796
1.64496
1.6452
1.6517
1.6863
1.74988
1.81641
1.85523
1.86904
1.87057
1.8678
1.85938
1.84675
1.83707
1.83253
1.82947
1.82683
1.82431
1.82107
1.8168
1.81169
1.80546
1.79684
1.78662
1.77975
1.77679
1.7744
1.77217
1.77209
1.77093
1.7665
1.76256
1.75773
1.75008
1.74127
1.73457
1.72974
1.72557
1.72145
1.71759
1.71074
1.57985
1.57787
1.57325
1.56324
1.54312
1.50903
1.46292
1.42037
1.37697
1.32621
1.29087
1.25984
1.22744
1.19156
1.17022
1.15049
1.12233
1.09999
1.09175
1.0806
1.06456
1.06007
1.06053
1.05791
1.05753
1.06012
1.06101
1.06041
1.06057
1.0618
1.06499
1.06932
1.0733
1.07804
1.08121
1.08146
1.0818
1.08202
1.08161
1.08067
1.08073
1.08503
1.12029
1.28922
1.54143
1.61118
1.63525
1.64577
1.6373
1.62621
1.62741
1.6245
1.61539
1.61009
1.60586
1.59565
1.58624
1.57757
1.57199
1.6117
1.7723
1.94363
2.05236
2.07518
2.07003
2.04609
2.01811
1.99943
1.99116
1.9841
1.97665
1.967
1.95644
1.94234