/*--------------------------------*- C++ -*----------------------------------*\
  =========                 |
  \\      /  F ield         | OpenFOAM: The Open Source CFD Toolbox
   \\    /   O peration     | Website:  https://openfoam.org
    \\  /    A nd           | Version:  7
     \\/     M anipulation  |
\*---------------------------------------------------------------------------*/
FoamFile
{
    version     2.0;
    format      ascii;
    class       volVectorField;
    location    "3.8";
    object      U;
}
// * * * * * * * * * * * * * * * * * * * * * * * * * * * * * * * * * * * * * //

dimensions      [0 1 -1 0 0 0 0];

internalField   nonuniform List<vector> 
18432
(
(3 1.19214e-17 0)
(3 -1.59829e-16 0)
(3 -5.39109e-17 0)
(3 -1.06122e-16 0)
(3 4.18844e-19 0)
(3 8.85274e-18 0)
(3 2.69909e-16 0)
(3 8.97396e-16 0)
(3 1.25741e-15 0)
(3 2.49166e-16 0)
(3 -2.80013e-16 0)
(3 -6.6824e-16 0)
(3 -6.24674e-16 0)
(3 -4.52154e-16 0)
(3 -2.87269e-16 0)
(3 -7.58025e-16 0)
(3 -1.83489e-16 0)
(3 1.63554e-16 0)
(3 2.46223e-16 0)
(3 1.89686e-16 0)
(3 1.70667e-16 0)
(3 -2.96844e-16 0)
(3 -1.17614e-15 0)
(3 -1.10218e-15 0)
(3 -4.63434e-16 0)
(3 -4.02832e-16 0)
(3 -7.7052e-16 0)
(3 -1.08281e-15 0)
(3 -1.05324e-15 0)
(3 -9.28894e-16 0)
(3 -5.4938e-16 0)
(3 -6.81633e-16 0)
(3 -1.23854e-15 0)
(3 -1.20292e-15 0)
(3 -1.78621e-15 0)
(3 -1.92591e-15 0)
(3 -2.27009e-15 0)
(3 -2.20776e-15 0)
(3 -2.13609e-15 0)
(3 -2.45924e-15 0)
(3 -2.33705e-15 0)
(3 -2.33801e-15 0)
(3 -2.11533e-15 0)
(3 -9.35044e-16 0)
(3 8.01556e-16 0)
(3 8.50894e-16 0)
(3 6.15527e-16 0)
(3 4.15874e-16 0)
(3 -4.87674e-17 0)
(3 -1.75948e-16 0)
(3 3.2123e-17 0)
(3 1.92189e-16 0)
(3 5.04954e-16 0)
(3 7.23228e-16 0)
(3 1.36365e-15 0)
(3 2.3011e-15 0)
(3 2.26456e-15 0)
(3 1.61125e-15 0)
(3 -4.92663e-16 0)
(3 -1.0635e-15 0)
(3 -1.31534e-15 0)
(3 -1.19906e-15 0)
(3 -1.92203e-15 0)
(3 -2.50309e-15 0)
(3 -1.32339e-15 0)
(3 -1.30847e-16 0)
(3 5.79895e-16 0)
(3 5.6964e-16 0)
(3 3.55377e-16 0)
(3 -7.72133e-16 0)
(3 -1.14312e-15 0)
(3 -1.21897e-15 0)
(3 -8.69015e-16 0)
(3 -4.57415e-16 0)
(3 -7.15412e-16 0)
(3 -1.7283e-15 0)
(3 -2.27321e-15 0)
(3 -1.44805e-15 0)
(3 -1.16316e-16 0)
(3 -8.65178e-19 0)
(3 -1.76024e-15 0)
(3 -2.21219e-15 0)
(3 -2.58587e-15 0)
(3 -4.14841e-15 0)
(3 -4.02285e-15 0)
(3 -3.71448e-15 0)
(3 -3.32331e-15 0)
(3 -2.5996e-15 0)
(3 -3.34589e-15 0)
(3 -4.15457e-15 0)
(3 -3.35002e-15 0)
(3 -2.29277e-15 0)
(3 -5.76981e-17 0)
(3 2.05583e-16 0)
(3 5.9224e-16 0)
(3 5.76284e-16 0)
(3 8.70864e-17 0)
(3 8.81134e-17 0)
(3 -1.95037e-17 0)
(3 2.96e-16 0)
(3 5.90191e-16 0)
(3 9.3894e-16 0)
(3 1.14231e-15 0)
(3 1.27949e-15 0)
(3 1.13282e-15 0)
(3 1.41003e-15 0)
(3 1.47969e-15 0)
(3 5.19903e-16 0)
(3 -1.44293e-15 0)
(3 -2.22839e-15 0)
(3 -2.56875e-15 0)
(3 -2.0005e-15 0)
(3 -1.74633e-15 0)
(3 -7.65045e-16 0)
(3 2.07077e-16 0)
(3 4.54557e-16 0)
(3 6.17169e-16 0)
(3 2.47104e-16 0)
(3 3.32429e-16 0)
(3 -3.95499e-16 0)
(3 -5.90988e-16 0)
(3 -6.80212e-16 0)
(3 -9.00489e-16 0)
(3 -7.45558e-16 0)
(3 -3.74126e-16 0)
(3 -3.44248e-16 0)
(3 -1.78445e-16 0)
(3 1.92027e-16 0)
(3 -1.07773e-15 0)
(3 -2.66202e-15 0)
(3 -3.16498e-15 0)
(3 -3.26896e-15 0)
(3 -2.81007e-15 0)
(3 -2.31581e-15 0)
(3 -2.32525e-15 0)
(3 -2.56342e-15 0)
(3 -3.1627e-15 0)
(3 -2.98804e-15 0)
(3 -2.96092e-15 0)
(3 -4.00228e-15 0)
(3 -3.44395e-15 0)
(3 -1.57809e-15 0)
(3 -6.339e-16 0)
(3 8.14973e-17 0)
(3 -9.4444e-19 0)
(3 -3.41967e-16 0)
(3 -5.75483e-16 0)
(3 -7.61915e-16 0)
(3 -7.09255e-16 0)
(3 -2.09971e-16 0)
(3 -2.18101e-16 0)
(3 -2.64057e-16 0)
(3 -6.1492e-18 0)
(3 1.62458e-16 0)
(3 5.09289e-16 0)
(3 3.85652e-16 0)
(3 -1.3238e-15 0)
(3 -1.91716e-15 0)
(3 -9.54495e-16 0)
(3 -7.20818e-16 0)
(3 1.02077e-16 0)
(3 1.80501e-16 0)
(3 -1.21992e-16 0)
(3 8.35879e-17 0)
(3 -2.13509e-16 0)
(3 -2.90417e-16 0)
(3 -7.08373e-16 0)
(3 -9.45613e-16 0)
(3 -9.48642e-16 0)
(3 -8.45843e-16 0)
(3 -8.32465e-16 0)
(3 -2.66231e-16 0)
(3 1.57697e-15 0)
(3 9.95485e-16 0)
(3 7.26874e-17 0)
(3 -1.2854e-15 0)
(3 -1.35234e-15 0)
(3 -1.45755e-15 0)
(3 -1.59293e-15 0)
(3 -1.72107e-15 0)
(3 -1.78988e-15 0)
(3 -1.9855e-15 0)
(3 -2.0046e-15 0)
(3 -2.64315e-15 0)
(3 -2.5192e-15 0)
(3 -2.62872e-15 0)
(3 -3.67305e-15 0)
(3 -4.03766e-15 0)
(3 -4.03763e-15 0)
(3 -2.71705e-15 0)
(3 -1.39463e-15 0)
(3 1.56013e-16 0)
(3 -2.0772e-16 0)
(3 -1.77173e-16 0)
(3 -1.9699e-16 0)
(3 -5.25017e-16 0)
(3 -4.80224e-16 0)
(3 -2.94843e-16 0)
(3 -4.7875e-16 0)
(3 -1.14421e-15 0)
(3 -1.46985e-15 0)
(3 -2.28475e-15 0)
(3 -2.46499e-15 0)
(3 -2.19101e-15 0)
(3 -1.58521e-15 0)
(3 -1.29999e-15 0)
(3 -4.96954e-16 0)
(3 -1.91907e-16 0)
(3 7.13931e-16 0)
(3 1.44156e-15 0)
(3 2.13988e-16 0)
(3 -5.02154e-16 0)
(3 -1.42436e-15 0)
(3 -1.45359e-15 0)
(3 -2.50557e-15 0)
(3 -2.56244e-15 0)
(3 -2.51472e-15 0)
(3 -1.5652e-15 0)
(3 -8.31416e-16 0)
(3 -3.82484e-16 0)
(3 1.87124e-16 0)
(3 6.74195e-16 0)
(3 -1.85357e-15 0)
(3 -2.5475e-15 0)
(3 -2.99438e-15 0)
(3 -2.47496e-15 0)
(3 -1.5578e-15 0)
(3 -1.16149e-15 0)
(3 -1.39053e-15 0)
(3 -1.55668e-15 0)
(3 -1.42178e-15 0)
(3 -1.5037e-15 0)
(3 -1.49494e-15 0)
(3 -2.33122e-15 0)
(3 -2.84296e-15 0)
(3 -2.54236e-15 0)
(3 -2.28309e-15 0)
(3 -1.95105e-15 0)
(3 -1.30899e-15 0)
(3 -2.65424e-16 0)
(3 6.39112e-19 0)
(3 2.77865e-17 0)
(3 3.75045e-17 0)
(3 9.46603e-17 0)
(3 1.09615e-16 0)
(3 -1.79142e-16 0)
(3 -4.89489e-16 0)
(3 -5.75542e-16 0)
(3 -7.36508e-16 0)
(3 -1.7701e-15 0)
(3 -2.48745e-15 0)
(3 -1.49019e-15 0)
(3 2.30359e-16 0)
(3 9.84369e-16 0)
(3 5.92534e-16 0)
(3 5.47324e-16 0)
(3 1.39578e-15 0)
(3 1.17343e-15 0)
(3 -9.01367e-16 0)
(3 -1.32038e-15 0)
(3 -9.07937e-16 0)
(3 -1.24184e-15 0)
(3 -1.13021e-15 0)
(3 -1.74132e-15 0)
(3 -2.11812e-15 0)
(3 -1.83602e-15 0)
(3 -1.66495e-15 0)
(3 -1.96694e-15 0)
(3 -2.546e-15 0)
(3 -2.14878e-15 0)
(3 -1.58963e-15 0)
(3 -1.63889e-15 0)
(3 -2.53103e-15 0)
(3 -3.13932e-15 0)
(3 -2.88335e-15 0)
(3 -1.7158e-15 0)
(3 -1.68592e-15 0)
(3 -1.47981e-15 0)
(3 -8.99439e-16 0)
(3 -7.91347e-16 0)
(3 -1.13757e-15 0)
(3 -1.32503e-15 0)
(3 -1.44957e-15 0)
(3 -1.54024e-15 0)
(3 -1.70545e-15 0)
(3 -2.1131e-15 0)
(3 -2.28113e-15 0)
(3 -1.47587e-15 0)
(3 9.70994e-17 0)
(3 -5.41019e-17 0)
(3 -6.20616e-16 0)
(3 -5.76502e-16 0)
(3 -5.37002e-16 0)
(3 -5.9577e-16 0)
(3 -3.6932e-17 0)
(3 6.27252e-16 0)
(3 1.59928e-15 0)
(3 9.50782e-16 0)
(3 -2.44863e-16 0)
(3 3.7659e-16 0)
(3 1.51316e-15 0)
(3 1.58748e-15 0)
(3 1.82766e-15 0)
(3 1.94781e-15 0)
(3 1.34973e-15 0)
(3 3.69033e-16 0)
(3 -1.01383e-16 0)
(3 4.34014e-16 0)
(3 9.55534e-16 0)
(3 6.31697e-16 0)
(3 8.50245e-16 0)
(3 -6.27019e-16 0)
(3 -8.61274e-16 0)
(3 -7.13765e-16 0)
(3 -7.18892e-16 0)
(3 -6.64605e-16 0)
(3 -1.25669e-15 0)
(3 -1.47098e-15 0)
(3 -2.26212e-17 0)
(3 -1.01729e-17 0)
(3 -6.11223e-16 0)
(3 -7.74539e-16 0)
(3 -1.47236e-15 0)
(3 -1.6713e-15 0)
(3 -1.73675e-15 0)
(3 -2.02082e-15 0)
(3 -1.75871e-15 0)
(3 -7.44582e-16 0)
(3 -4.3138e-16 0)
(3 -1.00676e-15 0)
(3 -1.8637e-15 0)
(3 -2.28392e-15 0)
(3 -2.89643e-15 0)
(3 -2.98935e-15 0)
(3 -1.79218e-15 0)
(3 -1.22041e-15 0)
(3 1.42513e-16 0)
(3 1.37016e-16 0)
(3 5.03455e-17 0)
(3 2.63039e-17 0)
(3 -1.66394e-16 0)
(3 1.55392e-17 0)
(3 3.25575e-16 0)
(3 8.67805e-16 0)
(3 1.62805e-15 0)
(3 2.42262e-15 0)
(3 1.71345e-15 0)
(3 1.70823e-15 0)
(3 3.75309e-15 0)
(3 3.97315e-15 0)
(3 3.79502e-15 0)
(3 2.8199e-15 0)
(3 6.21483e-16 0)
(3 3.49777e-16 0)
(3 7.65882e-16 0)
(3 1.11233e-15 0)
(3 2.08576e-15 0)
(3 1.85578e-15 0)
(3 1.43825e-15 0)
(3 2.05233e-16 0)
(3 9.1089e-17 0)
(3 9.0395e-16 0)
(3 7.37357e-16 0)
(3 2.54072e-16 0)
(3 7.64332e-16 0)
(3 2.36192e-16 0)
(3 -1.07594e-15 0)
(3 -2.31671e-15 0)
(3 -1.54856e-15 0)
(3 -1.28309e-16 0)
(3 7.72166e-17 0)
(3 -1.20452e-16 0)
(3 -2.21981e-16 0)
(3 -4.88466e-16 0)
(3 -1.03424e-15 0)
(3 -1.84701e-15 0)
(3 -2.45998e-15 0)
(3 -2.07391e-15 0)
(3 -1.65156e-15 0)
(3 -1.86214e-15 0)
(3 -1.42402e-15 0)
(3 -1.11207e-16 0)
(3 -1.34107e-17 0)
(3 -3.88916e-16 0)
(3 4.21018e-17 0)
(3 -2.95068e-17 0)
(3 1.77612e-16 0)
(3 4.10922e-16 0)
(3 4.72771e-16 0)
(3 8.82418e-16 0)
(3 8.80579e-16 0)
(3 7.619e-16 0)
(3 1.39486e-15 0)
(3 2.06399e-15 0)
(3 2.48568e-15 0)
(3 2.81438e-15 0)
(3 3.18445e-15 0)
(3 3.93984e-15 0)
(3 3.86626e-15 0)
(3 2.80203e-15 0)
(3 2.08088e-15 0)
(3 1.93673e-15 0)
(3 -2.08401e-16 0)
(3 -1.11572e-15 0)
(3 -7.10801e-16 0)
(3 -3.63455e-16 0)
(3 4.45327e-16 0)
(3 9.82795e-16 0)
(3 -3.36556e-16 0)
(3 -2.67323e-16 0)
(3 -2.03581e-16 0)
(3 3.62825e-17 0)
(3 7.13073e-16 0)
(3 5.76734e-16 0)
(3 -1.97644e-16 0)
(3 -3.51376e-16 0)
(3 -2.01533e-16 0)
(3 2.12926e-16 0)
(3 9.86753e-16 0)
(3 1.60107e-15 0)
(3 1.4953e-15 0)
(3 1.31511e-15 0)
(3 1.82906e-15 0)
(3 4.31674e-16 0)
(3 -7.72293e-16 0)
(3 -1.03922e-15 0)
(3 -1.12865e-15 0)
(3 -1.29558e-15 0)
(3 -1.33191e-15 0)
(3 -1.27013e-15 0)
(3 -1.43206e-15 0)
(3 -1.29993e-15 0)
(3 -2.86443e-17 0)
(3 2.12198e-16 0)
(3 2.60277e-16 0)
(3 -2.65891e-18 0)
(3 5.04061e-16 0)
(3 4.4893e-16 0)
(3 4.11172e-16 0)
(3 -1.86496e-16 0)
(3 1.10825e-16 0)
(3 1.07679e-15 0)
(3 1.93405e-15 0)
(3 2.04272e-15 0)
(3 1.24548e-15 0)
(3 1.27095e-15 0)
(3 1.52927e-15 0)
(3 1.68979e-15 0)
(3 2.03585e-15 0)
(3 1.61531e-15 0)
(3 9.3057e-16 0)
(3 -5.3839e-16 0)
(3 -2.17816e-15 0)
(3 -2.35546e-15 0)
(3 -2.00503e-15 0)
(3 -1.43014e-15 0)
(3 -1.5162e-15 0)
(3 -9.28948e-16 0)
(3 -5.4751e-16 0)
(3 3.60097e-16 0)
(3 3.54183e-16 0)
(3 5.40914e-16 0)
(3 9.87385e-16 0)
(3 2.09311e-15 0)
(3 2.4034e-15 0)
(3 1.81347e-15 0)
(3 1.46494e-15 0)
(3 1.16587e-15 0)
(3 8.57297e-16 0)
(3 1.25191e-15 0)
(3 2.12093e-15 0)
(3 2.07102e-15 0)
(3 1.27288e-15 0)
(3 -1.70223e-16 0)
(3 -1.03775e-15 0)
(3 -1.08511e-15 0)
(3 -1.49816e-15 0)
(3 -1.83057e-15 0)
(3 -2.52337e-15 0)
(3 -2.43081e-15 0)
(3 3.13954e-16 0)
(3 4.72134e-16 0)
(3 4.50904e-16 0)
(3 4.92019e-16 0)
(3 2.12464e-16 0)
(3 -7.31054e-16 0)
(3 -7.97584e-16 0)
(3 -5.85657e-16 0)
(3 -9.75198e-16 0)
(3 -9.44893e-16 0)
(3 -3.13105e-16 0)
(3 6.71264e-16 0)
(3 6.60622e-16 0)
(3 -5.99413e-17 0)
(3 -4.17777e-16 0)
(3 2.41945e-17 0)
(3 5.69748e-16 0)
(3 1.08998e-15 0)
(3 1.4771e-15 0)
(3 8.22455e-16 0)
(3 -2.05161e-16 0)
(3 -2.03775e-15 0)
(3 -3.12932e-15 0)
(3 -2.93875e-15 0)
(3 -2.0747e-15 0)
(3 -1.02392e-15 0)
(3 2.48125e-16 0)
(3 2.3583e-16 0)
(3 -1.67124e-16 0)
(3 1.33639e-16 0)
(3 6.93416e-16 0)
(3 7.87484e-16 0)
(3 1.07651e-15 0)
(3 1.66432e-15 0)
(3 1.58871e-15 0)
(3 1.47869e-15 0)
(3 1.45289e-15 0)
(3 1.5104e-15 0)
(3 3.67467e-16 0)
(3 2.39306e-16 0)
(3 5.96559e-16 0)
(3 5.89809e-16 0)
(3 4.08627e-16 0)
(3 3.66837e-16 0)
(3 7.46395e-17 0)
(3 -6.78539e-16 0)
(3 -1.11786e-15 0)
(3 -1.78062e-15 0)
(3 6.79645e-18 0)
(3 -1.25067e-16 0)
(3 -1.99697e-16 0)
(3 1.73706e-16 0)
(3 1.51861e-16 0)
(3 -1.48319e-16 0)
(3 -1.93174e-16 0)
(3 -6.7504e-17 0)
(3 -7.41472e-17 0)
(3 -1.04417e-16 0)
(3 -6.49951e-16 0)
(3 1.37098e-16 0)
(3 1.08098e-15 0)
(3 7.675e-16 0)
(3 -2.8431e-16 0)
(3 6.76651e-16 0)
(3 2.99091e-16 0)
(3 9.42978e-16 0)
(3 4.62901e-16 0)
(3 4.86172e-16 0)
(3 3.67687e-16 0)
(3 7.24215e-17 0)
(3 -2.40573e-16 0)
(3 -2.34283e-16 0)
(3 1.27661e-16 0)
(3 -4.45563e-16 0)
(3 -3.92551e-16 0)
(3 -6.98628e-16 0)
(3 -1.46733e-15 0)
(3 -1.46459e-15 0)
(3 -5.32305e-16 0)
(3 -1.56564e-15 0)
(3 -1.5831e-15 0)
(3 -8.21588e-16 0)
(3 -6.04897e-16 0)
(3 -5.00213e-16 0)
(3 -3.86638e-16 0)
(3 -7.04516e-16 0)
(3 -1.73759e-15 0)
(3 -1.93458e-15 0)
(3 -1.22211e-15 0)
(3 -8.00039e-16 0)
(3 1.60777e-16 0)
(3 5.64976e-16 0)
(3 4.40873e-16 0)
(3 5.33226e-16 0)
(3 -1.10683e-16 0)
(3 -1.30266e-15 0)
(3 -2.9666e-16 0)
(3 -2.51289e-16 0)
(3 -2.03094e-16 0)
(3 -3.26691e-17 0)
(3 -2.82568e-17 0)
(3 -1.3584e-16 0)
(3 -2.7371e-16 0)
(3 -3.76856e-16 0)
(3 -3.97155e-16 0)
(3 2.27628e-16 0)
(3 6.85562e-16 0)
(3 8.90894e-16 0)
(3 7.5031e-16 0)
(3 4.85963e-16 0)
(3 4.73875e-16 0)
(3 1.57381e-15 0)
(3 1.22163e-15 0)
(3 2.83973e-16 0)
(3 -6.56445e-17 0)
(3 3.40901e-16 0)
(3 1.51535e-15 0)
(3 2.69794e-15 0)
(3 3.45617e-15 0)
(3 3.21042e-15 0)
(3 3.09851e-15 0)
(3 1.24151e-15 0)
(3 -5.94035e-16 0)
(3 -1.06384e-15 0)
(3 -1.4306e-15 0)
(3 -3.14471e-15 0)
(3 -3.95849e-15 0)
(3 -3.60827e-15 0)
(3 -3.02815e-15 0)
(3 -2.93671e-15 0)
(3 -2.21654e-15 0)
(3 -1.63417e-15 0)
(3 -1.40978e-15 0)
(3 -1.33476e-15 0)
(3 -1.26644e-15 0)
(3 -1.54385e-15 0)
(3 -1.53956e-15 0)
(3 -4.2292e-16 0)
(3 -9.98616e-17 0)
(3 1.33637e-16 0)
(3 -3.00471e-16 0)
(3 1.10562e-15 0)
(3 9.34715e-16 0)
(3 1.65064e-17 0)
(3 -1.38672e-16 0)
(3 -2.07597e-16 0)
(3 -3.0855e-16 0)
(3 -7.36512e-16 0)
(3 -8.61146e-16 0)
(3 -3.78376e-16 0)
(3 -2.08252e-16 0)
(3 -2.3535e-16 0)
(3 -2.53853e-16 0)
(3 -3.27303e-16 0)
(3 1.75514e-16 0)
(3 8.52715e-16 0)
(3 5.27471e-16 0)
(3 7.04482e-18 0)
(3 -5.77189e-16 0)
(3 -1.18298e-15 0)
(3 -1.14426e-15 0)
(3 -1.34828e-15 0)
(3 -1.13633e-15 0)
(3 5.09112e-16 0)
(3 1.38219e-15 0)
(3 2.71851e-15 0)
(3 2.94394e-15 0)
(3 2.68786e-15 0)
(3 2.48774e-15 0)
(3 2.26236e-15 0)
(3 6.36451e-16 0)
(3 -4.19181e-16 0)
(3 -7.40556e-16 0)
(3 -1.63225e-15 0)
(3 -1.7128e-15 0)
(3 -1.81954e-15 0)
(3 -1.62299e-15 0)
(3 -2.16524e-15 0)
(3 -1.03385e-15 0)
(3 -8.92771e-16 0)
(3 -5.82583e-16 0)
(3 3.80337e-16 0)
(3 2.46973e-16 0)
(3 -1.02234e-16 0)
(3 -2.20336e-16 0)
(3 2.40448e-16 0)
(3 4.94279e-17 0)
(3 1.13455e-16 0)
(3 4.23725e-16 0)
(3 9.62345e-16 0)
(3 1.38583e-15 0)
(3 1.52904e-15 0)
(3 2.60023e-17 0)
(3 -2.66609e-17 0)
(3 -5.61192e-17 0)
(3 1.99126e-16 0)
(3 4.01001e-16 0)
(3 7.98816e-16 0)
(3 1.61457e-15 0)
(3 1.44713e-15 0)
(3 1.42394e-15 0)
(3 9.28828e-16 0)
(3 -5.67591e-17 0)
(3 -5.59048e-16 0)
(3 -1.63748e-16 0)
(3 1.45882e-16 0)
(3 -1.67895e-15 0)
(3 -3.0557e-15 0)
(3 -3.2355e-15 0)
(3 -2.90861e-15 0)
(3 -2.08065e-15 0)
(3 -8.96353e-16 0)
(3 -2.22119e-16 0)
(3 3.35929e-16 0)
(3 4.21076e-16 0)
(3 5.16861e-16 0)
(3 6.18824e-16 0)
(3 5.67992e-16 0)
(3 5.35957e-16 0)
(3 -2.75415e-16 0)
(3 -9.48562e-16 0)
(3 -7.58171e-16 0)
(3 -2.54962e-16 0)
(3 1.40374e-16 0)
(3 1.34177e-16 0)
(3 2.90691e-16 0)
(3 -3.90523e-16 0)
(3 -4.20876e-16 0)
(3 -7.51774e-16 0)
(3 -8.9456e-16 0)
(3 -5.72754e-16 0)
(3 7.82813e-16 0)
(3 1.50549e-15 0)
(3 1.92048e-15 0)
(3 3.12199e-16 0)
(3 -9.37337e-16 0)
(3 -9.97219e-17 0)
(3 1.32909e-15 0)
(3 2.23116e-15 0)
(3 2.39497e-15 0)
(3 3.01243e-17 0)
(3 1.21272e-16 0)
(3 5.17929e-16 0)
(3 7.54471e-16 0)
(3 7.32166e-16 0)
(3 5.71757e-16 0)
(3 8.18459e-16 0)
(3 1.15508e-15 0)
(3 1.38391e-15 0)
(3 1.52422e-15 0)
(3 3.57316e-16 0)
(3 -1.16386e-15 0)
(3 -1.33445e-15 0)
(3 -1.43394e-15 0)
(3 -1.34718e-15 0)
(3 -1.70088e-15 0)
(3 -1.81562e-15 0)
(3 -2.02667e-15 0)
(3 -2.36994e-15 0)
(3 -2.23724e-15 0)
(3 -1.44236e-15 0)
(3 -1.16752e-15 0)
(3 4.11664e-16 0)
(3 1.43222e-15 0)
(3 1.19534e-15 0)
(3 3.19831e-16 0)
(3 -3.71341e-16 0)
(3 -1.15825e-15 0)
(3 -1.25689e-15 0)
(3 -7.27032e-16 0)
(3 -3.11437e-16 0)
(3 4.92567e-17 0)
(3 -1.78571e-16 0)
(3 3.66342e-16 0)
(3 9.60589e-16 0)
(3 9.57335e-16 0)
(3 8.67278e-16 0)
(3 3.43799e-16 0)
(3 3.06424e-16 0)
(3 9.46208e-16 0)
(3 1.88942e-15 0)
(3 2.03492e-15 0)
(3 1.71374e-15 0)
(3 1.59937e-16 0)
(3 -2.6829e-16 0)
(3 7.54735e-16 0)
(3 2.07793e-15 0)
(3 2.3619e-15 0)
(3 -7.81929e-17 0)
(3 2.92548e-16 0)
(3 4.53522e-16 0)
(3 1.49329e-16 0)
(3 -1.77554e-16 0)
(3 -4.31078e-16 0)
(3 -8.31843e-16 0)
(3 -6.6659e-16 0)
(3 -1.49246e-16 0)
(3 -4.26795e-17 0)
(3 -5.041e-16 0)
(3 -7.35647e-16 0)
(3 -1.29446e-15 0)
(3 -1.06379e-15 0)
(3 -4.70817e-16 0)
(3 -3.12225e-16 0)
(3 -4.38565e-16 0)
(3 -8.2976e-16 0)
(3 -1.19037e-15 0)
(3 -5.33942e-16 0)
(3 -3.50625e-16 0)
(3 6.38353e-16 0)
(3 1.10438e-15 0)
(3 2.09081e-15 0)
(3 2.23176e-15 0)
(3 -7.91755e-16 0)
(3 -1.96453e-15 0)
(3 -1.56226e-15 0)
(3 -1.04402e-15 0)
(3 -6.35606e-16 0)
(3 -1.19226e-15 0)
(3 -1.76003e-15 0)
(3 -1.64622e-15 0)
(3 -4.71217e-16 0)
(3 1.11243e-15 0)
(3 1.72126e-15 0)
(3 2.97674e-15 0)
(3 3.53874e-15 0)
(3 3.49599e-15 0)
(3 2.72633e-15 0)
(3 2.02047e-15 0)
(3 1.02698e-15 0)
(3 7.61109e-16 0)
(3 1.15112e-15 0)
(3 9.62801e-16 0)
(3 6.67517e-16 0)
(3 6.11745e-16 0)
(3 2.62383e-15 0)
(3 1.85514e-16 0)
(3 7.58058e-17 0)
(3 -6.81439e-18 0)
(3 -1.35602e-16 0)
(3 -4.10376e-16 0)
(3 -4.65982e-16 0)
(3 -1.21132e-15 0)
(3 -2.01578e-15 0)
(3 -1.70708e-15 0)
(3 -6.50499e-16 0)
(3 -8.44256e-16 0)
(3 -3.52066e-16 0)
(3 -4.24121e-16 0)
(3 -2.27255e-16 0)
(3 -5.63029e-16 0)
(3 -9.42897e-17 0)
(3 6.18765e-16 0)
(3 -4.49924e-16 0)
(3 -4.9682e-16 0)
(3 -2.02301e-16 0)
(3 -2.69505e-16 0)
(3 1.26091e-17 0)
(3 3.11264e-17 0)
(3 4.02517e-16 0)
(3 3.00124e-16 0)
(3 -1.58762e-15 0)
(3 -1.49181e-15 0)
(3 -9.38247e-17 0)
(3 1.31534e-16 0)
(3 -3.30681e-16 0)
(3 -1.41078e-15 0)
(3 -3.09149e-15 0)
(3 -2.77896e-15 0)
(3 -1.45683e-15 0)
(3 -9.11036e-16 0)
(3 -4.25493e-16 0)
(3 4.76841e-16 0)
(3 1.82809e-15 0)
(3 3.51707e-15 0)
(3 3.9118e-15 0)
(3 3.58214e-15 0)
(3 2.06871e-15 0)
(3 9.12558e-16 0)
(3 8.62568e-16 0)
(3 1.39629e-15 0)
(3 1.2023e-15 0)
(3 1.54295e-15 0)
(3 2.49939e-15 0)
(3 1.50452e-17 0)
(3 -4.07296e-17 0)
(3 2.25235e-18 0)
(3 2.59874e-16 0)
(3 -9.24312e-17 0)
(3 -3.38883e-16 0)
(3 -5.85772e-16 0)
(3 -6.63086e-16 0)
(3 -8.44694e-16 0)
(3 -7.14279e-16 0)
(3 -8.17852e-16 0)
(3 -7.7893e-16 0)
(3 -5.82399e-16 0)
(3 -1.79408e-16 0)
(3 3.06247e-19 0)
(3 7.52627e-16 0)
(3 7.91063e-16 0)
(3 -6.45533e-16 0)
(3 -8.55466e-16 0)
(3 -1.08432e-15 0)
(3 1.95523e-16 0)
(3 3.48358e-16 0)
(3 4.22782e-16 0)
(3 4.9999e-17 0)
(3 -6.23795e-16 0)
(3 -4.24837e-16 0)
(3 2.47762e-16 0)
(3 4.04982e-16 0)
(3 3.52189e-16 0)
(3 -4.20399e-16 0)
(3 -1.72025e-15 0)
(3 -1.70499e-15 0)
(3 -1.48559e-15 0)
(3 -8.9331e-16 0)
(3 -1.35258e-15 0)
(3 -1.97671e-15 0)
(3 -1.55532e-15 0)
(3 7.17834e-17 0)
(3 1.53397e-15 0)
(3 2.79323e-15 0)
(3 2.44401e-15 0)
(3 1.54927e-15 0)
(3 6.60489e-16 0)
(3 5.28299e-16 0)
(3 8.34065e-16 0)
(3 1.09768e-15 0)
(3 1.11223e-15 0)
(3 5.66592e-16 0)
(3 -1.55973e-16 0)
(3 1.53802e-16 0)
(3 3.49385e-17 0)
(3 -1.10891e-16 0)
(3 1.12088e-16 0)
(3 8.55414e-17 0)
(3 2.31941e-16 0)
(3 8.64884e-16 0)
(3 1.28716e-17 0)
(3 -1.66802e-16 0)
(3 -5.89483e-16 0)
(3 -9.9671e-16 0)
(3 -3.31533e-16 0)
(3 -1.02707e-16 0)
(3 -1.2525e-15 0)
(3 -7.57687e-16 0)
(3 -5.62335e-16 0)
(3 -3.59495e-16 0)
(3 -3.00565e-17 0)
(3 2.76381e-16 0)
(3 9.94373e-16 0)
(3 1.81687e-15 0)
(3 9.00382e-16 0)
(3 -1.14843e-15 0)
(3 3.85842e-17 0)
(3 8.78682e-16 0)
(3 1.61735e-15 0)
(3 1.15293e-15 0)
(3 3.2003e-16 0)
(3 -9.79333e-16 0)
(3 -1.50623e-15 0)
(3 1.01122e-16 0)
(3 1.58176e-16 0)
(3 -4.04656e-16 0)
(3 -4.74115e-16 0)
(3 -9.7036e-16 0)
(3 -7.70856e-16 0)
(3 -5.88789e-16 0)
(3 4.53752e-17 0)
(3 1.19873e-15 0)
(3 6.21041e-16 0)
(3 2.71689e-16 0)
(3 5.2063e-17 0)
(3 3.18895e-16 0)
(3 2.91293e-16 0)
(3 7.46422e-17 0)
(3 -4.47118e-16 0)
(3 -1.30118e-15 0)
(3 2.02093e-17 0)
(3 -2.36528e-16 0)
(3 -3.37156e-16 0)
(3 -4.21591e-16 0)
(3 9.70074e-17 0)
(3 -5.25521e-17 0)
(3 -1.60874e-16 0)
(3 -1.20432e-16 0)
(3 -8.11334e-16 0)
(3 -6.56205e-16 0)
(3 -4.0085e-17 0)
(3 -7.51407e-16 0)
(3 -1.35157e-15 0)
(3 -1.6252e-15 0)
(3 -8.27904e-16 0)
(3 -1.03876e-15 0)
(3 -5.12025e-16 0)
(3 5.84224e-16 0)
(3 4.58142e-16 0)
(3 -3.06811e-16 0)
(3 -1.17026e-15 0)
(3 -1.09009e-15 0)
(3 -1.09525e-15 0)
(3 -1.155e-15 0)
(3 5.40406e-17 0)
(3 1.36284e-15 0)
(3 1.85667e-15 0)
(3 1.13504e-15 0)
(3 -2.31604e-17 0)
(3 1.2395e-16 0)
(3 6.88487e-16 0)
(3 -6.42192e-16 0)
(3 -1.41078e-15 0)
(3 -1.43379e-15 0)
(3 -1.49345e-15 0)
(3 -1.68064e-15 0)
(3 -1.51898e-15 0)
(3 -1.38238e-15 0)
(3 -9.00104e-16 0)
(3 -6.38464e-16 0)
(3 -2.09685e-16 0)
(3 6.00928e-16 0)
(3 1.05253e-15 0)
(3 1.25747e-15 0)
(3 5.29577e-16 0)
(3 -5.74779e-17 0)
(3 3.10706e-17 0)
(3 2.15593e-16 0)
(3 1.7092e-16 0)
(3 3.09519e-17 0)
(3 8.31059e-18 0)
(3 1.23667e-16 0)
(3 2.3471e-16 0)
(3 4.90336e-16 0)
(3 4.99353e-16 0)
(3 4.30372e-17 0)
(3 -8.14364e-16 0)
(3 -1.23713e-15 0)
(3 -1.41984e-15 0)
(3 -1.11591e-15 0)
(3 -1.76958e-15 0)
(3 -1.52449e-15 0)
(3 -1.75584e-16 0)
(3 -3.87211e-16 0)
(3 2.62343e-16 0)
(3 9.0074e-17 0)
(3 -2.21119e-16 0)
(3 -7.19343e-16 0)
(3 -6.50127e-16 0)
(3 -7.55659e-16 0)
(3 -5.8597e-16 0)
(3 1.33261e-16 0)
(3 -1.51688e-17 0)
(3 9.27546e-16 0)
(3 1.24992e-15 0)
(3 8.5725e-16 0)
(3 9.05806e-16 0)
(3 8.75881e-16 0)
(3 7.9756e-16 0)
(3 3.75492e-16 0)
(3 2.64802e-16 0)
(3 -4.7081e-16 0)
(3 -9.07579e-16 0)
(3 -1.01819e-15 0)
(3 -8.55638e-16 0)
(3 -4.02729e-16 0)
(3 -5.10074e-16 0)
(3 -6.93092e-16 0)
(3 1.26238e-16 0)
(3 7.41016e-16 0)
(3 1.76245e-15 0)
(3 1.53724e-15 0)
(3 2.14009e-15 0)
(3 2.32009e-15 0)
(3 2.08256e-15 0)
(3 1.2895e-15 0)
(3 -1.17439e-17 0)
(3 -2.39871e-16 0)
(3 -9.72857e-17 0)
(3 -1.52861e-16 0)
(3 -1.6177e-16 0)
(3 9.65791e-17 0)
(3 5.59246e-16 0)
(3 6.10472e-16 0)
(3 3.23981e-16 0)
(3 -6.40815e-17 0)
(3 -8.18246e-16 0)
(3 -5.72983e-16 0)
(3 -7.37585e-16 0)
(3 -9.01034e-16 0)
(3 -1.42922e-15 0)
(3 -9.40906e-16 0)
(3 -6.55687e-16 0)
(3 -1.36088e-15 0)
(3 -1.07257e-15 0)
(3 -3.27261e-16 0)
(3 9.30347e-17 0)
(3 -4.11505e-16 0)
(3 -2.8478e-16 0)
(3 4.67106e-17 0)
(3 -5.28345e-16 0)
(3 -6.42948e-16 0)
(3 -5.07218e-17 0)
(3 3.57415e-16 0)
(3 9.81491e-16 0)
(3 1.12949e-15 0)
(3 1.41056e-15 0)
(3 1.63798e-15 0)
(3 1.7104e-15 0)
(3 1.41825e-15 0)
(3 1.40069e-15 0)
(3 2.07738e-15 0)
(3 1.98374e-15 0)
(3 1.81691e-15 0)
(3 1.03769e-15 0)
(3 8.65522e-16 0)
(3 1.44505e-15 0)
(3 1.56362e-15 0)
(3 2.0497e-15 0)
(3 2.34184e-15 0)
(3 2.00388e-15 0)
(3 1.6004e-15 0)
(3 4.9497e-16 0)
(3 2.39298e-16 0)
(3 -3.53311e-17 0)
(3 -1.06236e-16 0)
(3 -1.00873e-16 0)
(3 -1.50625e-16 0)
(3 -5.81274e-16 0)
(3 -8.23783e-16 0)
(3 -9.18161e-16 0)
(3 -1.78946e-17 0)
(3 6.15566e-16 0)
(3 8.78009e-16 0)
(3 4.19177e-16 0)
(3 -2.94653e-16 0)
(3 -4.31499e-16 0)
(3 -7.89567e-16 0)
(3 -1.36503e-15 0)
(3 -2.17179e-15 0)
(3 -2.64717e-15 0)
(3 -1.50388e-15 0)
(3 -9.24687e-16 0)
(3 -9.35841e-16 0)
(3 -1.50453e-15 0)
(3 -1.72023e-15 0)
(3 -1.16008e-15 0)
(3 -8.05814e-16 0)
(3 -1.19925e-15 0)
(3 -1.62889e-15 0)
(3 -1.51184e-15 0)
(3 -4.74884e-16 0)
(3 4.41342e-16 0)
(3 1.44479e-15 0)
(3 2.04625e-15 0)
(3 2.42542e-15 0)
(3 2.19369e-15 0)
(3 2.73221e-15 0)
(3 3.00271e-15 0)
(3 2.64012e-15 0)
(3 1.97629e-15 0)
(3 1.36247e-15 0)
(3 1.25736e-15 0)
(3 1.1692e-15 0)
(3 8.28003e-16 0)
(3 6.57175e-16 0)
(3 6.51732e-16 0)
(3 1.28635e-15 0)
(3 9.65654e-16 0)
(3 -5.13459e-16 0)
(3 -1.78528e-15 0)
(3 -1.97133e-15 0)
(3 2.1674e-17 0)
(3 2.37479e-16 0)
(3 8.0887e-17 0)
(3 2.80754e-17 0)
(3 -3.19212e-16 0)
(3 1.02742e-17 0)
(3 1.91009e-16 0)
(3 3.06757e-16 0)
(3 6.76898e-16 0)
(3 1.23568e-15 0)
(3 1.49948e-15 0)
(3 1.31003e-15 0)
(3 1.4468e-15 0)
(3 1.2373e-15 0)
(3 3.14312e-16 0)
(3 -1.13763e-15 0)
(3 -1.70174e-15 0)
(3 -1.16952e-15 0)
(3 -5.11614e-16 0)
(3 -2.2534e-16 0)
(3 -5.96183e-16 0)
(3 -4.22612e-16 0)
(3 -2.4858e-16 0)
(3 -7.59642e-16 0)
(3 -9.41466e-16 0)
(3 -1.10203e-15 0)
(3 -1.85176e-15 0)
(3 -8.08126e-16 0)
(3 8.1705e-16 0)
(3 1.92392e-15 0)
(3 2.76513e-15 0)
(3 2.3364e-15 0)
(3 1.27892e-15 0)
(3 1.36991e-15 0)
(3 1.72346e-15 0)
(3 1.25377e-15 0)
(3 1.38496e-15 0)
(3 6.93979e-16 0)
(3 2.81709e-16 0)
(3 -2.44445e-16 0)
(3 -1.55788e-15 0)
(3 -1.6983e-15 0)
(3 -1.11321e-15 0)
(3 -6.93406e-16 0)
(3 -1.27592e-15 0)
(3 -1.89383e-15 0)
(3 -1.90871e-15 0)
(3 -2.07523e-15 0)
(3 -1.73866e-16 0)
(3 -1.6544e-16 0)
(3 -3.34248e-16 0)
(3 -1.63963e-16 0)
(3 2.05447e-16 0)
(3 -4.69147e-17 0)
(3 3.42749e-16 0)
(3 5.63937e-16 0)
(3 1.37606e-15 0)
(3 1.70491e-15 0)
(3 1.58349e-15 0)
(3 1.30455e-15 0)
(3 1.38436e-15 0)
(3 1.23249e-15 0)
(3 1.49817e-15 0)
(3 1.51956e-15 0)
(3 1.48019e-15 0)
(3 1.24999e-15 0)
(3 1.00986e-15 0)
(3 2.10842e-15 0)
(3 2.58535e-15 0)
(3 1.93256e-15 0)
(3 1.3227e-15 0)
(3 1.91333e-16 0)
(3 2.08304e-16 0)
(3 2.13863e-16 0)
(3 -7.2085e-16 0)
(3 -1.37306e-15 0)
(3 -8.53428e-16 0)
(3 -5.60183e-16 0)
(3 -8.47671e-17 0)
(3 -5.03596e-16 0)
(3 -2.7901e-16 0)
(3 -1.95192e-16 0)
(3 -2.99055e-16 0)
(3 3.5064e-17 0)
(3 8.40889e-16 0)
(3 3.20398e-16 0)
(3 -1.22992e-16 0)
(3 -4.18592e-16 0)
(3 -1.04668e-15 0)
(3 -1.54329e-15 0)
(3 -1.71777e-15 0)
(3 -1.97538e-15 0)
(3 -1.98185e-15 0)
(3 -2.07631e-15 0)
(3 -8.485e-16 0)
(3 1.8164e-16 0)
(3 -6.54324e-17 0)
(3 3.10046e-16 0)
(3 2.88801e-16 0)
(3 9.82817e-17 0)
(3 9.17923e-18 0)
(3 -3.11672e-16 0)
(3 -3.27025e-16 0)
(3 1.11213e-16 0)
(3 5.54585e-16 0)
(3 9.5732e-16 0)
(3 8.19929e-16 0)
(3 4.75288e-16 0)
(3 1.03927e-15 0)
(3 1.37086e-15 0)
(3 1.69741e-15 0)
(3 2.71314e-15 0)
(3 3.62819e-15 0)
(3 3.59349e-15 0)
(3 3.23881e-15 0)
(3 2.08659e-15 0)
(3 1.58385e-15 0)
(3 1.47003e-15 0)
(3 1.15042e-15 0)
(3 1.28455e-15 0)
(3 1.45004e-15 0)
(3 1.65164e-16 0)
(3 -5.2474e-16 0)
(3 -5.34277e-16 0)
(3 -1.54573e-15 0)
(3 -2.08198e-15 0)
(3 -1.99779e-15 0)
(3 -1.0166e-15 0)
(3 2.9114e-16 0)
(3 2.18547e-16 0)
(3 -5.53133e-16 0)
(3 -5.01224e-16 0)
(3 -4.89302e-16 0)
(3 -7.44826e-16 0)
(3 -8.2455e-16 0)
(3 -4.62703e-16 0)
(3 1.3618e-16 0)
(3 7.54465e-16 0)
(3 1.02634e-15 0)
(3 8.26728e-16 0)
(3 6.72653e-16 0)
(3 8.90907e-16 0)
(3 1.10006e-15 0)
(3 1.87052e-15 0)
(3 6.41194e-17 0)
(3 2.98494e-16 0)
(3 3.73982e-16 0)
(3 1.34881e-16 0)
(3 -8.61691e-17 0)
(3 1.19013e-16 0)
(3 6.47777e-17 0)
(3 3.00733e-16 0)
(3 4.81994e-16 0)
(3 2.55803e-16 0)
(3 -2.49102e-16 0)
(3 1.85866e-16 0)
(3 6.94299e-16 0)
(3 1.15891e-15 0)
(3 1.62878e-15 0)
(3 2.62548e-15 0)
(3 2.43948e-15 0)
(3 2.50685e-15 0)
(3 1.57647e-15 0)
(3 4.45633e-16 0)
(3 -1.81875e-17 0)
(3 -3.27011e-17 0)
(3 3.34116e-16 0)
(3 8.89693e-16 0)
(3 8.76424e-16 0)
(3 5.79347e-17 0)
(3 -9.12477e-16 0)
(3 -1.01314e-15 0)
(3 -8.77401e-16 0)
(3 -2.88165e-16 0)
(3 -8.42309e-16 0)
(3 -2.50013e-17 0)
(3 4.64632e-16 0)
(3 1.31628e-15 0)
(3 1.09892e-15 0)
(3 2.55421e-16 0)
(3 -8.72624e-16 0)
(3 -1.42332e-15 0)
(3 -1.3149e-15 0)
(3 -6.25641e-16 0)
(3 1.13192e-15 0)
(3 3.32566e-15 0)
(3 3.66339e-15 0)
(3 3.42486e-15 0)
(3 3.40717e-15 0)
(3 3.8535e-15 0)
(3 3.71265e-15 0)
(3 2.76257e-15 0)
(3 3.82649e-17 0)
(3 -4.22582e-16 0)
(3 -4.9549e-16 0)
(3 -2.69535e-16 0)
(3 6.92633e-17 0)
(3 3.30913e-16 0)
(3 8.16977e-16 0)
(3 6.93148e-16 0)
(3 4.23325e-16 0)
(3 6.56827e-17 0)
(3 -1.38306e-16 0)
(3 -5.38152e-16 0)
(3 -8.77067e-16 0)
(3 -7.65538e-16 0)
(3 8.87367e-16 0)
(3 1.97291e-15 0)
(3 1.05787e-15 0)
(3 5.07083e-16 0)
(3 -3.88497e-16 0)
(3 -4.96108e-16 0)
(3 -9.21559e-16 0)
(3 -9.80324e-16 0)
(3 -5.2282e-16 0)
(3 -1.26216e-16 0)
(3 7.09881e-17 0)
(3 -3.94845e-16 0)
(3 -6.23691e-16 0)
(3 -6.68316e-16 0)
(3 2.61138e-16 0)
(3 6.96081e-16 0)
(3 1.93654e-16 0)
(3 5.77598e-16 0)
(3 6.55187e-16 0)
(3 5.86938e-16 0)
(3 5.56401e-16 0)
(3 2.70451e-16 0)
(3 8.37235e-17 0)
(3 -8.39103e-16 0)
(3 -1.11854e-15 0)
(3 -8.89498e-16 0)
(3 5.1333e-16 0)
(3 1.86653e-15 0)
(3 2.36031e-15 0)
(3 2.25905e-15 0)
(3 2.53011e-15 0)
(3 2.68247e-15 0)
(3 2.59e-15 0)
(3 2.28869e-15 0)
(3 1.86705e-18 0)
(3 -3.17551e-16 0)
(3 -2.14494e-16 0)
(3 -8.44947e-17 0)
(3 7.63716e-17 0)
(3 6.80453e-16 0)
(3 6.51322e-16 0)
(3 1.69154e-17 0)
(3 -4.10642e-16 0)
(3 -2.09267e-16 0)
(3 2.46098e-16 0)
(3 -5.68218e-16 0)
(3 -7.76977e-16 0)
(3 -7.88562e-16 0)
(3 -3.09907e-16 0)
(3 4.37795e-16 0)
(3 4.78525e-16 0)
(3 4.06943e-16 0)
(3 -1.29667e-16 0)
(3 -6.39615e-16 0)
(3 -1.3785e-15 0)
(3 -1.91386e-15 0)
(3 -1.64403e-15 0)
(3 -9.2338e-16 0)
(3 -2.1497e-16 0)
(3 -3.11805e-16 0)
(3 3.32937e-16 0)
(3 1.01099e-15 0)
(3 9.83638e-16 0)
(3 8.82056e-16 0)
(3 1.32708e-15 0)
(3 9.3707e-16 0)
(3 1.01167e-15 0)
(3 9.74192e-16 0)
(3 1.11814e-15 0)
(3 1.12803e-15 0)
(3 4.98096e-16 0)
(3 -1.4058e-16 0)
(3 -3.34264e-16 0)
(3 -1.67835e-16 0)
(3 1.65622e-16 0)
(3 6.60963e-17 0)
(3 -3.79955e-16 0)
(3 -4.07461e-16 0)
(3 -8.16784e-16 0)
(3 -1.213e-15 0)
(3 -7.04626e-16 0)
(3 7.24209e-17 0)
(3 1.98431e-16 0)
(3 4.42718e-16 0)
(3 4.64392e-16 0)
(3 5.19992e-16 0)
(3 5.49984e-16 0)
(3 1.33939e-16 0)
(3 -5.16333e-16 0)
(3 -9.40858e-16 0)
(3 -1.32098e-15 0)
(3 -1.08295e-15 0)
(3 -5.79496e-16 0)
(3 -2.26098e-16 0)
(3 -5.20517e-16 0)
(3 -9.23747e-16 0)
(3 -9.85598e-16 0)
(3 -1.60958e-15 0)
(3 -1.14006e-15 0)
(3 7.94087e-16 0)
(3 6.89609e-16 0)
(3 2.62571e-16 0)
(3 -5.70379e-16 0)
(3 -1.77168e-15 0)
(3 -2.29139e-15 0)
(3 -1.48691e-15 0)
(3 -3.15562e-17 0)
(3 9.38764e-16 0)
(3 1.13549e-15 0)
(3 8.67324e-16 0)
(3 6.66592e-16 0)
(3 1.51847e-16 0)
(3 -1.5924e-16 0)
(3 -1.5512e-16 0)
(3 8.00541e-17 0)
(3 1.13279e-15 0)
(3 1.46909e-15 0)
(3 1.06087e-15 0)
(3 5.745e-16 0)
(3 3.75059e-16 0)
(3 3.3042e-16 0)
(3 4.09982e-16 0)
(3 -5.67261e-16 0)
(3 -1.4202e-15 0)
(3 -2.45738e-15 0)
(3 -1.98072e-15 0)
(3 -1.78719e-15 0)
(3 -1.94064e-15 0)
(3 -2.34733e-15 0)
(3 -8.72284e-16 0)
(3 -9.34975e-18 0)
(3 3.56281e-16 0)
(3 7.17048e-16 0)
(3 9.54904e-16 0)
(3 4.59301e-16 0)
(3 -4.72269e-16 0)
(3 -9.47823e-16 0)
(3 -1.21007e-15 0)
(3 -1.14172e-15 0)
(3 -1.44543e-15 0)
(3 -8.96069e-16 0)
(3 -3.0042e-17 0)
(3 -3.26127e-16 0)
(3 -8.28479e-17 0)
(3 -2.48602e-16 0)
(3 -8.6457e-16 0)
(3 -2.08728e-16 0)
(3 1.45167e-15 0)
(3 2.0124e-15 0)
(3 1.68819e-15 0)
(3 1.2583e-16 0)
(3 -1.19688e-15 0)
(3 -1.7135e-15 0)
(3 -5.73188e-16 0)
(3 7.7608e-16 0)
(3 1.15696e-15 0)
(3 1.00028e-15 0)
(3 1.21904e-15 0)
(3 1.04728e-15 0)
(3 5.20636e-16 0)
(3 -2.33044e-16 0)
(3 -9.19491e-16 0)
(3 -7.27012e-16 0)
(3 -1.75111e-16 0)
(3 2.44772e-16 0)
(3 3.03194e-16 0)
(3 9.03016e-16 0)
(3 1.02786e-15 0)
(3 1.26761e-15 0)
(3 1.05809e-15 0)
(3 -1.35482e-16 0)
(3 -1.08126e-15 0)
(3 -1.30677e-15 0)
(3 -1.29033e-15 0)
(3 -8.0535e-16 0)
(3 -5.96037e-16 0)
(3 -2.07282e-16 0)
(3 3.3907e-16 0)
(3 -4.97623e-16 0)
(3 4.83752e-16 0)
(3 1.07066e-15 0)
(3 5.34966e-16 0)
(3 -1.74955e-16 0)
(3 -3.43988e-16 0)
(3 -1.16365e-16 0)
(3 1.34138e-16 0)
(3 -5.50228e-16 0)
(3 -7.84487e-16 0)
(3 -4.01836e-16 0)
(3 -1.35981e-15 0)
(3 -8.62014e-16 0)
(3 -9.37586e-17 0)
(3 -8.78792e-17 0)
(3 9.97469e-16 0)
(3 1.53941e-15 0)
(3 2.1149e-15 0)
(3 2.66369e-15 0)
(3 1.01263e-15 0)
(3 5.39798e-16 0)
(3 2.64134e-16 0)
(3 -1.60693e-16 0)
(3 -5.54795e-16 0)
(3 -3.3229e-16 0)
(3 2.2015e-16 0)
(3 5.72812e-16 0)
(3 1.28061e-15 0)
(3 1.09457e-15 0)
(3 4.30389e-16 0)
(3 -1.5489e-16 0)
(3 -9.58699e-16 0)
(3 -1.34623e-15 0)
(3 -1.15962e-15 0)
(3 -4.12162e-16 0)
(3 8.2725e-16 0)
(3 1.70724e-15 0)
(3 2.33201e-15 0)
(3 2.12986e-15 0)
(3 2.2085e-15 0)
(3 2.25634e-15 0)
(3 1.5819e-15 0)
(3 3.09711e-16 0)
(3 -5.21584e-16 0)
(3 -1.74847e-16 0)
(3 -1.04991e-16 0)
(3 6.57651e-16 0)
(3 1.31007e-15 0)
(3 -1.94953e-19 0)
(3 -4.00225e-17 0)
(3 -1.20079e-16 0)
(3 -1.83167e-16 0)
(3 -7.83251e-17 0)
(3 1.65141e-16 0)