/*--------------------------------*- C++ -*----------------------------------*\
  =========                 |
  \\      /  F ield         | OpenFOAM: The Open Source CFD Toolbox
   \\    /   O peration     | Website:  https://openfoam.org
    \\  /    A nd           | Version:  7
     \\/     M anipulation  |
\*---------------------------------------------------------------------------*/
FoamFile
{
    version     2.0;
    format      ascii;
    class       volVectorField;
    location    "1";
    object      U;
}
// * * * * * * * * * * * * * * * * * * * * * * * * * * * * * * * * * * * * * //

dimensions      [0 1 -1 0 0 0 0];

internalField   nonuniform List<vector> 
73728
(
(3 -1.58874e-17 0)
(3 -3.50503e-18 0)
(3 -9.51134e-18 0)
(3 4.60343e-17 0)
(3 6.83735e-17 0)
(3 1.82038e-16 0)
(3 1.1125e-16 0)
(3 1.1942e-16 0)
(3 -2.0759e-16 0)
(3 -2.7265e-16 0)
(3 -5.7148e-16 0)
(3 -9.78331e-16 0)
(3 -1.13546e-15 0)
(3 -7.55929e-16 0)
(3 -9.17306e-16 0)
(3 -3.50303e-16 0)
(3 -3.88681e-16 0)
(3 -1.75143e-16 0)
(3 6.30396e-17 0)
(3 8.69137e-16 0)
(3 2.01352e-15 0)
(3 4.66574e-16 0)
(3 1.92932e-16 0)
(3 1.70914e-16 0)
(3 -1.35485e-16 0)
(3 -2.6767e-16 0)
(3 -4.84654e-16 0)
(3 -2.80543e-16 0)
(3 -4.30287e-16 0)
(3 -2.36795e-16 0)
(3 9.59848e-17 0)
(3 2.9545e-17 0)
(3 -6.89594e-16 0)
(3 -1.19192e-15 0)
(3 -1.27467e-15 0)
(3 -1.22412e-16 0)
(3 6.46017e-16 0)
(3 7.29059e-16 0)
(3 1.14997e-15 0)
(3 9.33099e-16 0)
(3 3.03459e-16 0)
(3 -1.05999e-16 0)
(3 -2.81291e-16 0)
(3 -1.77034e-16 0)
(3 9.22053e-16 0)
(3 1.43672e-15 0)
(3 1.10615e-15 0)
(3 3.9804e-16 0)
(3 1.82205e-16 0)
(3 -2.25722e-16 0)
(3 -5.87035e-17 0)
(3 7.40897e-16 0)
(3 5.77745e-16 0)
(3 4.38327e-16 0)
(3 5.71928e-16 0)
(3 -9.2402e-16 0)
(3 -3.17996e-15 0)
(3 -2.93889e-15 0)
(3 -2.45597e-15 0)
(3 -1.95561e-15 0)
(3 -9.93885e-16 0)
(3 -9.57914e-16 0)
(3 -1.18012e-15 0)
(3 -1.57817e-16 0)
(3 2.19264e-16 0)
(3 7.71815e-16 0)
(3 8.33893e-16 0)
(3 8.68131e-16 0)
(3 1.00817e-15 0)
(3 1.25709e-15 0)
(3 1.33575e-15 0)
(3 1.22978e-15 0)
(3 8.16233e-16 0)
(3 5.9627e-16 0)
(3 4.7673e-16 0)
(3 2.83639e-16 0)
(3 2.69754e-16 0)
(3 4.35697e-16 0)
(3 3.31212e-16 0)
(3 -1.75504e-17 0)
(3 2.35066e-17 0)
(3 7.45392e-17 0)
(3 3.37409e-16 0)
(3 3.86071e-16 0)
(3 6.83812e-17 0)
(3 -1.0781e-15 0)
(3 -1.55868e-15 0)
(3 -2.10215e-15 0)
(3 -2.15563e-15 0)
(3 -2.29062e-15 0)
(3 -9.02118e-16 0)
(3 -5.11237e-17 0)
(3 2.70575e-16 0)
(3 9.52767e-16 0)
(3 1.43608e-15 0)
(3 1.6307e-15 0)
(3 3.37419e-17 0)
(3 5.42525e-16 0)
(3 -8.33676e-18 0)
(3 -2.70848e-16 0)
(3 -1.12917e-16 0)
(3 2.48523e-17 0)
(3 -6.42616e-17 0)
(3 -2.46552e-16 0)
(3 -9.65e-16 0)
(3 -1.3179e-15 0)
(3 -1.84176e-15 0)
(3 -1.56983e-15 0)
(3 -1.11799e-15 0)
(3 5.93392e-16 0)
(3 3.65601e-16 0)
(3 1.14374e-16 0)
(3 -5.36959e-16 0)
(3 -6.92191e-16 0)
(3 -1.35898e-16 0)
(3 9.19683e-16 0)
(3 1.58787e-15 0)
(3 7.04267e-16 0)
(3 3.5586e-16 0)
(3 5.92025e-16 0)
(3 5.11771e-16 0)
(3 2.81221e-16 0)
(3 6.5513e-16 0)
(3 1.10461e-15 0)
(3 5.28233e-16 0)
(3 4.73335e-16 0)
(3 5.3448e-16 0)
(3 -1.65816e-16 0)
(3 -1.26342e-15 0)
(3 -1.81032e-15 0)
(3 -1.36495e-15 0)
(3 -2.889e-16 0)
(3 1.94418e-15 0)
(3 2.56721e-15 0)
(3 3.62047e-15 0)
(3 3.03605e-15 0)
(3 1.0592e-15 0)
(3 4.22576e-16 0)
(3 2.81339e-16 0)
(3 4.66825e-17 0)
(3 3.27122e-16 0)
(3 4.27917e-16 0)
(3 4.14854e-16 0)
(3 -2.33056e-16 0)
(3 -1.46709e-16 0)
(3 -2.55582e-16 0)
(3 5.64039e-17 0)
(3 6.181e-16 0)
(3 -2.87346e-18 0)
(3 -4.6359e-16 0)
(3 -3.93288e-16 0)
(3 -2.01847e-15 0)
(3 -4.34658e-15 0)
(3 -5.34831e-15 0)
(3 -5.05933e-15 0)
(3 -3.67008e-15 0)
(3 -2.71531e-15 0)
(3 -2.40351e-15 0)
(3 -2.29082e-15 0)
(3 -8.94873e-16 0)
(3 -7.25807e-16 0)
(3 -1.85033e-16 0)
(3 -1.64363e-16 0)
(3 1.13393e-16 0)
(3 1.45578e-15 0)
(3 2.18204e-15 0)
(3 3.34593e-15 0)
(3 4.02907e-15 0)
(3 2.68876e-15 0)
(3 1.89279e-15 0)
(3 1.08196e-15 0)
(3 2.44062e-16 0)
(3 8.17221e-17 0)
(3 2.67876e-16 0)
(3 -2.70915e-17 0)
(3 1.4446e-16 0)
(3 -2.16716e-18 0)
(3 -2.57157e-16 0)
(3 -1.48681e-17 0)
(3 4.40428e-16 0)
(3 -2.31197e-16 0)
(3 -1.4167e-15 0)
(3 -1.7685e-15 0)
(3 -2.97257e-15 0)
(3 -2.76268e-15 0)
(3 -2.39317e-15 0)
(3 -2.18181e-15 0)
(3 -1.69302e-15 0)
(3 -5.61731e-16 0)
(3 1.43006e-15 0)
(3 3.72893e-15 0)
(3 4.59876e-15 0)
(3 2.80898e-16 0)
(3 5.24097e-16 0)
(3 2.90817e-16 0)
(3 -2.62794e-16 0)
(3 5.57811e-18 0)
(3 2.20097e-16 0)
(3 1.4379e-16 0)
(3 -2.37614e-16 0)
(3 -1.32766e-15 0)
(3 -2.61249e-15 0)
(3 -2.64406e-15 0)
(3 -1.93546e-15 0)
(3 -1.23009e-15 0)
(3 -8.84952e-16 0)
(3 -7.17811e-16 0)
(3 -1.25115e-15 0)
(3 -2.30523e-15 0)
(3 -1.30151e-15 0)
(3 3.2722e-16 0)
(3 1.13595e-15 0)
(3 7.6048e-16 0)
(3 7.24425e-16 0)
(3 1.49195e-15 0)
(3 1.65982e-15 0)
(3 1.60378e-15 0)
(3 1.57748e-15 0)
(3 1.63319e-15 0)
(3 1.49863e-15 0)
(3 1.0916e-15 0)
(3 9.76165e-16 0)
(3 6.88231e-16 0)
(3 3.26789e-16 0)
(3 -3.30004e-16 0)
(3 -9.99587e-16 0)
(3 -1.13276e-15 0)
(3 -2.35461e-15 0)
(3 -2.54953e-15 0)
(3 -2.43943e-15 0)
(3 -1.36551e-15 0)
(3 -1.05619e-15 0)
(3 -1.0658e-15 0)
(3 -1.05161e-15 0)
(3 -3.96832e-16 0)
(3 -5.18265e-16 0)
(3 -5.08245e-16 0)
(3 -4.51177e-16 0)
(3 -8.15611e-16 0)
(3 -5.31499e-16 0)
(3 -1.3189e-16 0)
(3 8.32951e-16 0)
(3 1.58596e-15 0)
(3 2.38038e-15 0)
(3 1.3081e-15 0)
(3 9.52568e-16 0)
(3 -2.88789e-16 0)
(3 -1.26739e-15 0)
(3 -2.63794e-15 0)
(3 -6.3534e-15 0)
(3 -6.50095e-15 0)
(3 -5.79175e-15 0)
(3 -5.4289e-15 0)
(3 -5.42759e-15 0)
(3 -3.96209e-15 0)
(3 -3.56282e-15 0)
(3 -3.72708e-15 0)
(3 -1.61581e-15 0)
(3 1.68028e-15 0)
(3 4.27281e-15 0)
(3 4.78962e-15 0)
(3 4.29435e-15 0)
(3 4.26558e-15 0)
(3 5.66192e-15 0)
(3 4.2343e-15 0)
(3 3.61522e-15 0)
(3 2.48931e-15 0)
(3 1.6895e-15 0)
(3 6.06619e-16 0)
(3 -2.35677e-16 0)
(3 -7.49972e-16 0)
(3 -3.72537e-17 0)
(3 -2.92795e-16 0)
(3 -8.02535e-16 0)
(3 -3.2027e-16 0)
(3 -3.82342e-16 0)
(3 -1.69748e-15 0)
(3 -2.19658e-15 0)
(3 -2.58667e-15 0)
(3 -2.81533e-15 0)
(3 -2.72462e-15 0)
(3 -2.62862e-15 0)
(3 -1.68738e-15 0)
(3 -3.94202e-16 0)
(3 1.18243e-15 0)
(3 1.96086e-15 0)
(3 4.06076e-15 0)
(3 5.72678e-15 0)
(3 4.36213e-17 0)
(3 3.11939e-16 0)
(3 5.29088e-16 0)
(3 4.02471e-16 0)
(3 8.97291e-16 0)
(3 6.32956e-16 0)
(3 2.22844e-17 0)
(3 -6.48566e-16 0)
(3 -1.21603e-15 0)
(3 -2.02805e-15 0)
(3 -1.6468e-15 0)
(3 -1.00298e-15 0)
(3 -5.29886e-16 0)
(3 -3.64679e-16 0)
(3 -5.6593e-16 0)
(3 -9.78148e-16 0)
(3 -1.02234e-15 0)
(3 4.1929e-16 0)
(3 1.06056e-15 0)
(3 1.07392e-15 0)
(3 7.92882e-16 0)
(3 9.52779e-16 0)
(3 1.96852e-15 0)
(3 1.67968e-15 0)
(3 1.48509e-15 0)
(3 1.0777e-15 0)
(3 5.67129e-16 0)
(3 2.08998e-16 0)
(3 3.00374e-16 0)
(3 4.9469e-16 0)
(3 6.81234e-16 0)
(3 8.55029e-16 0)
(3 1.16239e-15 0)
(3 1.67835e-15 0)
(3 1.1466e-15 0)
(3 -3.20126e-16 0)
(3 -1.4931e-15 0)
(3 -1.64645e-15 0)
(3 -1.94787e-15 0)
(3 -2.14045e-15 0)
(3 -2.00733e-15 0)
(3 -1.41177e-15 0)
(3 -9.25703e-16 0)
(3 -4.86199e-16 0)
(3 1.52281e-16 0)
(3 1.1338e-15 0)
(3 7.95751e-16 0)
(3 7.05534e-16 0)
(3 1.15347e-15 0)
(3 1.72315e-15 0)
(3 2.27287e-15 0)
(3 2.5427e-15 0)
(3 1.14037e-15 0)
(3 4.83341e-16 0)
(3 -5.33181e-16 0)
(3 -1.55744e-15 0)
(3 -2.60692e-15 0)
(3 -3.90888e-15 0)
(3 -5.24945e-15 0)
(3 -5.34049e-15 0)
(3 -5.68983e-15 0)
(3 -6.26222e-15 0)
(3 -6.21877e-15 0)
(3 -4.08871e-15 0)
(3 -1.32967e-15 0)
(3 2.56456e-15 0)
(3 5.25213e-15 0)
(3 5.44846e-15 0)
(3 4.89046e-15 0)
(3 4.67972e-15 0)
(3 4.10414e-15 0)
(3 3.02963e-15 0)
(3 3.57253e-15 0)
(3 3.58171e-15 0)
(3 3.87583e-15 0)
(3 3.5277e-15 0)
(3 2.31717e-15 0)
(3 8.35834e-16 0)
(3 -3.16338e-16 0)
(3 -5.7998e-16 0)
(3 -8.76639e-16 0)
(3 -1.14381e-15 0)
(3 -1.51941e-15 0)
(3 -1.87575e-15 0)
(3 -2.91877e-15 0)
(3 -2.89806e-15 0)
(3 -2.40033e-15 0)
(3 -2.60811e-15 0)
(3 -1.84376e-15 0)
(3 -1.81718e-15 0)
(3 -1.45347e-15 0)
(3 1.32085e-15 0)
(3 2.60383e-15 0)
(3 3.97831e-15 0)
(3 3.91763e-15 0)
(3 3.43194e-15 0)
(3 1.6738e-16 0)
(3 2.74679e-16 0)
(3 7.14498e-16 0)
(3 1.01392e-15 0)
(3 8.04869e-16 0)
(3 6.91921e-16 0)
(3 4.50879e-16 0)
(3 1.70265e-16 0)
(3 2.78559e-18 0)
(3 3.69212e-16 0)
(3 7.79539e-16 0)
(3 9.84507e-16 0)
(3 1.03309e-15 0)
(3 6.03264e-16 0)
(3 1.15624e-15 0)
(3 1.1185e-15 0)
(3 1.75309e-15 0)
(3 1.83174e-15 0)
(3 1.71279e-15 0)
(3 1.54085e-15 0)
(3 1.54919e-15 0)
(3 4.78988e-16 0)
(3 -5.204e-16 0)
(3 -3.10578e-17 0)
(3 9.01119e-16 0)
(3 6.8031e-16 0)
(3 5.16355e-17 0)
(3 1.96937e-17 0)
(3 5.35193e-16 0)
(3 7.98469e-16 0)
(3 2.01218e-15 0)
(3 2.50733e-15 0)
(3 3.05586e-15 0)
(3 2.91329e-15 0)
(3 1.50774e-15 0)
(3 -2.82734e-16 0)
(3 -3.15792e-16 0)
(3 -1.12703e-16 0)
(3 -6.27833e-16 0)
(3 -2.05892e-15 0)
(3 -1.30136e-15 0)
(3 6.32938e-16 0)
(3 6.02195e-16 0)
(3 5.17316e-16 0)
(3 8.26661e-16 0)
(3 1.32431e-15 0)
(3 2.16507e-15 0)
(3 2.38045e-15 0)
(3 2.73848e-15 0)
(3 2.46155e-15 0)
(3 2.32802e-15 0)
(3 1.87308e-15 0)
(3 1.19813e-15 0)
(3 1.06013e-15 0)
(3 6.19035e-16 0)
(3 -1.75361e-16 0)
(3 -3.5428e-16 0)
(3 -4.38014e-16 0)
(3 -2.50789e-15 0)
(3 -3.23141e-15 0)
(3 -4.36001e-15 0)
(3 -5.26705e-15 0)
(3 -6.39168e-15 0)
(3 -3.58635e-15 0)
(3 1.00057e-15 0)
(3 3.3809e-15 0)
(3 3.67313e-15 0)
(3 3.37067e-15 0)
(3 2.35802e-15 0)
(3 3.4303e-15 0)
(3 2.10417e-15 0)
(3 1.65996e-15 0)
(3 1.22772e-15 0)
(3 1.88543e-15 0)
(3 3.418e-15 0)
(3 3.88773e-15 0)
(3 2.35742e-15 0)
(3 6.66256e-16 0)
(3 -3.98067e-16 0)
(3 -1.116e-15 0)
(3 -2.23118e-15 0)
(3 -2.85796e-15 0)
(3 -2.43249e-15 0)
(3 -1.30761e-15 0)
(3 -1.32406e-15 0)
(3 -1.63513e-15 0)
(3 -8.3289e-16 0)
(3 1.21294e-16 0)
(3 6.87622e-16 0)
(3 6.14654e-16 0)
(3 7.63724e-16 0)
(3 1.01218e-15 0)
(3 8.57107e-16 0)
(3 1.40419e-15 0)
(3 2.12771e-15 0)
(3 1.47828e-15 0)
(3 1.03873e-16 0)
(3 3.68942e-17 0)
(3 1.96469e-16 0)
(3 7.60256e-16 0)
(3 9.16672e-16 0)
(3 1.06718e-15 0)
(3 1.42476e-15 0)
(3 9.82575e-16 0)
(3 7.33362e-16 0)
(3 9.81515e-16 0)
(3 7.65753e-16 0)
(3 5.66848e-16 0)
(3 -5.67726e-17 0)
(3 -3.3387e-16 0)
(3 5.06122e-16 0)
(3 9.81985e-16 0)
(3 9.93946e-16 0)
(3 8.6221e-16 0)
(3 1.18707e-15 0)
(3 1.51347e-15 0)
(3 1.70781e-15 0)
(3 1.54598e-15 0)
(3 6.73334e-16 0)
(3 5.49536e-16 0)
(3 6.22663e-16 0)
(3 7.51468e-16 0)
(3 4.6267e-16 0)
(3 -1.39033e-16 0)
(3 4.8663e-16 0)
(3 1.49603e-15 0)
(3 2.93421e-15 0)
(3 3.77704e-15 0)
(3 3.44307e-15 0)
(3 2.84676e-15 0)
(3 1.30148e-15 0)
(3 6.54809e-16 0)
(3 6.69438e-16 0)
(3 -2.55226e-16 0)
(3 -8.47618e-16 0)
(3 -2.29073e-15 0)
(3 -1.4223e-15 0)
(3 1.06174e-15 0)
(3 1.64906e-15 0)
(3 1.80727e-15 0)
(3 2.18829e-15 0)
(3 2.60895e-15 0)
(3 3.48709e-15 0)
(3 4.2901e-15 0)
(3 3.77011e-15 0)
(3 2.05082e-15 0)
(3 4.62185e-18 0)
(3 -3.21176e-16 0)
(3 5.37116e-16 0)
(3 1.36299e-15 0)
(3 2.05248e-15 0)
(3 2.80692e-15 0)
(3 4.22399e-15 0)
(3 3.94974e-15 0)
(3 -5.17981e-16 0)
(3 -2.81179e-15 0)
(3 -3.77358e-15 0)
(3 -4.11955e-15 0)
(3 -4.22686e-15 0)
(3 -2.07429e-15 0)
(3 2.31572e-16 0)
(3 2.2871e-15 0)
(3 2.51244e-15 0)
(3 1.99286e-15 0)
(3 3.34882e-15 0)
(3 3.99931e-15 0)
(3 2.83982e-15 0)
(3 2.68122e-15 0)
(3 2.50569e-15 0)
(3 2.11879e-15 0)
(3 2.09371e-15 0)
(3 1.36697e-15 0)
(3 5.9245e-16 0)
(3 -4.8931e-16 0)
(3 -1.10935e-15 0)
(3 -1.80601e-15 0)
(3 -2.36464e-15 0)
(3 -2.55059e-15 0)
(3 -1.57166e-15 0)
(3 -3.82666e-16 0)
(3 7.71457e-17 0)
(3 1.89228e-16 0)
(3 5.25737e-16 0)
(3 2.31436e-15 0)
(3 4.13376e-15 0)
(3 3.4806e-15 0)
(3 2.9319e-15 0)
(3 2.13361e-15 0)
(3 8.17534e-17 0)
(3 3.48883e-16 0)
(3 1.47881e-15 0)
(3 3.07071e-15 0)
(3 2.84336e-18 0)
(3 1.3792e-16 0)
(3 -4.09064e-16 0)
(3 -1.12496e-15 0)
(3 -4.77531e-16 0)
(3 1.64951e-17 0)
(3 1.5114e-16 0)
(3 9.36478e-17 0)
(3 4.19342e-16 0)
(3 1.03729e-15 0)
(3 8.095e-16 0)
(3 -4.64292e-16 0)
(3 -6.87394e-16 0)
(3 -2.78269e-16 0)
(3 3.52217e-16 0)
(3 6.78247e-16 0)
(3 4.6543e-16 0)
(3 3.67253e-16 0)
(3 7.52899e-16 0)
(3 1.30328e-15 0)
(3 1.64256e-15 0)
(3 1.80327e-15 0)
(3 1.34173e-15 0)
(3 4.20175e-16 0)
(3 -2.8111e-16 0)
(3 2.34199e-16 0)
(3 8.08409e-16 0)
(3 -1.17594e-16 0)
(3 4.79562e-16 0)
(3 1.47776e-15 0)
(3 2.15555e-15 0)
(3 3.01925e-15 0)
(3 2.02462e-15 0)
(3 1.42083e-15 0)
(3 1.0188e-15 0)
(3 1.20812e-15 0)
(3 1.08861e-15 0)
(3 6.85833e-16 0)
(3 7.53075e-16 0)
(3 7.07528e-16 0)
(3 9.5821e-16 0)
(3 2.48798e-15 0)
(3 2.59166e-15 0)
(3 2.58852e-15 0)
(3 2.35427e-15 0)
(3 2.53441e-15 0)
(3 4.27193e-15 0)
(3 4.95453e-15 0)
(3 2.96401e-15 0)
(3 1.34631e-15 0)
(3 -6.51659e-16 0)
(3 -1.25668e-15 0)
(3 7.3875e-16 0)
(3 2.20492e-15 0)
(3 2.87345e-15 0)
(3 4.13032e-15 0)
(3 5.53437e-15 0)
(3 4.3944e-15 0)
(3 3.28811e-15 0)
(3 -9.43399e-16 0)
(3 -4.11302e-15 0)
(3 -2.18269e-15 0)
(3 -8.20225e-16 0)
(3 -7.38893e-16 0)
(3 -9.34739e-17 0)
(3 1.48221e-15 0)
(3 1.0525e-15 0)
(3 7.59545e-16 0)
(3 1.28167e-15 0)
(3 1.05453e-15 0)
(3 2.32754e-15 0)
(3 1.79564e-15 0)
(3 2.08445e-15 0)
(3 1.5902e-15 0)
(3 6.94194e-17 0)
(3 -1.92741e-15 0)
(3 -2.26422e-15 0)
(3 -2.31457e-15 0)
(3 -2.05971e-15 0)
(3 -2.32245e-15 0)
(3 -2.3011e-15 0)
(3 -1.97806e-15 0)
(3 -1.31712e-15 0)
(3 7.0835e-16 0)
(3 9.22734e-16 0)
(3 1.31704e-16 0)
(3 3.08748e-16 0)
(3 1.52615e-15 0)
(3 3.82321e-15 0)
(3 5.51802e-15 0)
(3 5.34317e-15 0)
(3 4.02165e-15 0)
(3 1.18285e-16 0)
(3 6.99973e-17 0)
(3 2.50335e-15 0)
(3 3.40109e-15 0)
(3 -1.08502e-16 0)
(3 -1.80113e-16 0)
(3 -1.08339e-15 0)
(3 -1.45473e-15 0)
(3 -1.4885e-15 0)
(3 -1.62217e-15 0)
(3 -7.63015e-16 0)
(3 5.36456e-17 0)
(3 6.42468e-16 0)
(3 9.90491e-16 0)
(3 1.55512e-15 0)
(3 9.81342e-16 0)
(3 9.59493e-16 0)
(3 1.00444e-15 0)
(3 9.53349e-16 0)
(3 1.46655e-15 0)
(3 9.75955e-16 0)
(3 2.15146e-16 0)
(3 2.9226e-16 0)
(3 1.30665e-15 0)
(3 1.38813e-15 0)
(3 1.01248e-15 0)
(3 4.10963e-16 0)
(3 -3.44968e-16 0)
(3 -4.49598e-16 0)
(3 3.66711e-16 0)
(3 1.41684e-15 0)
(3 1.50849e-15 0)
(3 1.38183e-15 0)
(3 1.45034e-15 0)
(3 1.44346e-15 0)
(3 1.3879e-15 0)
(3 1.38161e-15 0)
(3 1.34843e-15 0)
(3 1.26327e-15 0)
(3 7.46444e-16 0)
(3 -4.62629e-16 0)
(3 -4.90197e-17 0)
(3 4.78658e-16 0)
(3 9.5241e-16 0)
(3 3.02526e-15 0)
(3 3.83368e-15 0)
(3 4.28569e-15 0)
(3 3.61478e-15 0)
(3 3.01828e-15 0)
(3 3.01779e-15 0)
(3 3.74994e-15 0)
(3 3.20881e-15 0)
(3 1.57069e-15 0)
(3 4.86107e-16 0)
(3 7.39057e-16 0)
(3 8.14593e-16 0)
(3 1.61156e-15 0)
(3 1.99799e-15 0)
(3 2.22487e-15 0)
(3 2.49351e-15 0)
(3 2.65246e-15 0)
(3 1.86744e-15 0)
(3 1.8688e-15 0)
(3 -5.96315e-16 0)
(3 -1.95514e-15 0)
(3 1.17962e-15 0)
(3 1.27651e-15 0)
(3 -6.98759e-16 0)
(3 -1.43587e-15 0)
(3 9.57136e-18 0)
(3 -5.36327e-16 0)
(3 -7.70789e-16 0)
(3 -1.65039e-15 0)
(3 -2.11851e-15 0)
(3 -1.92333e-16 0)
(3 -2.88104e-16 0)
(3 -1.34947e-15 0)
(3 -2.7087e-15 0)
(3 -4.88121e-15 0)
(3 -5.12046e-15 0)
(3 -4.87898e-15 0)
(3 -3.91766e-15 0)
(3 -2.9172e-15 0)
(3 -2.62732e-15 0)
(3 -2.74763e-15 0)
(3 -2.6246e-15 0)
(3 -1.59273e-15 0)
(3 4.59913e-16 0)
(3 4.21273e-16 0)
(3 -2.2443e-16 0)
(3 4.56424e-16 0)
(3 1.54044e-15 0)
(3 2.74464e-15 0)
(3 5.40179e-15 0)
(3 6.70442e-15 0)
(3 6.64479e-15 0)
(3 4.54826e-15 0)
(3 3.25555e-15 0)
(3 3.91085e-15 0)
(3 5.38792e-15 0)
(3 -2.83995e-16 0)
(3 -6.31044e-16 0)
(3 -4.92424e-16 0)
(3 -3.14377e-17 0)
(3 -7.65489e-16 0)
(3 -1.1626e-15 0)
(3 -1.21281e-15 0)
(3 -6.87274e-16 0)
(3 -3.62108e-16 0)
(3 -6.41571e-16 0)
(3 -9.78924e-16 0)
(3 7.75799e-16 0)
(3 1.77771e-15 0)
(3 1.51472e-15 0)
(3 1.06256e-15 0)
(3 1.24359e-15 0)
(3 1.1633e-15 0)
(3 -6.33268e-17 0)
(3 2.9669e-16 0)
(3 1.0279e-15 0)
(3 1.08472e-15 0)
(3 1.07534e-15 0)
(3 9.63809e-16 0)
(3 1.03888e-15 0)
(3 1.03103e-15 0)
(3 1.32134e-15 0)
(3 2.19358e-15 0)
(3 2.84389e-15 0)
(3 2.15592e-15 0)
(3 1.11284e-15 0)
(3 6.04293e-16 0)
(3 5.7085e-16 0)
(3 5.74646e-16 0)
(3 9.27718e-16 0)
(3 1.55596e-15 0)
(3 9.03464e-16 0)
(3 5.32788e-17 0)
(3 -1.20072e-15 0)
(3 -1.43123e-15 0)
(3 -1.23566e-16 0)
(3 3.00199e-15 0)
(3 5.28605e-15 0)
(3 5.3862e-15 0)
(3 5.27832e-15 0)
(3 4.21099e-15 0)
(3 3.05197e-15 0)
(3 2.26916e-15 0)
(3 1.39765e-15 0)
(3 2.60405e-15 0)
(3 2.25305e-15 0)
(3 2.18714e-15 0)
(3 2.08412e-15 0)
(3 1.53339e-15 0)
(3 1.38386e-15 0)
(3 1.44231e-15 0)
(3 1.1951e-15 0)
(3 7.45098e-16 0)
(3 7.99061e-16 0)
(3 6.83448e-16 0)
(3 5.2474e-16 0)
(3 -4.95846e-17 0)
(3 -2.1054e-16 0)
(3 8.74159e-16 0)
(3 9.58096e-16 0)
(3 -2.53875e-15 0)
(3 -3.60064e-15 0)
(3 -4.84562e-15 0)
(3 -4.60359e-15 0)
(3 -3.73107e-15 0)
(3 -2.30966e-15 0)
(3 -1.15214e-15 0)
(3 -2.41117e-15 0)
(3 -3.54432e-15 0)
(3 -6.28142e-15 0)
(3 -7.85964e-15 0)
(3 -7.60088e-15 0)
(3 -5.28451e-15 0)
(3 -3.90404e-15 0)
(3 -3.39884e-15 0)
(3 -3.06939e-15 0)
(3 -2.07081e-15 0)
(3 -2.42857e-15 0)
(3 -1.33652e-15 0)
(3 3.05712e-16 0)
(3 7.97946e-16 0)
(3 2.24702e-15 0)
(3 2.32795e-15 0)
(3 3.85532e-15 0)
(3 5.14993e-15 0)
(3 5.83718e-15 0)
(3 4.49743e-15 0)
(3 3.55604e-15 0)
(3 3.61657e-15 0)
(3 4.31342e-15 0)
(3 5.48489e-15 0)
(3 6.62087e-15 0)
(3 4.75097e-17 0)
(3 -2.58864e-16 0)
(3 -8.07261e-17 0)
(3 1.04992e-16 0)
(3 -2.33086e-16 0)
(3 -4.17635e-16 0)
(3 -3.67244e-16 0)
(3 -3.77113e-16 0)
(3 -8.33805e-16 0)
(3 -9.93329e-16 0)
(3 -1.33953e-15 0)
(3 -9.13805e-16 0)
(3 3.6334e-16 0)
(3 1.31531e-15 0)
(3 1.45212e-15 0)
(3 6.20872e-16 0)
(3 8.15053e-16 0)
(3 9.60917e-16 0)
(3 5.69879e-16 0)
(3 4.2125e-16 0)
(3 3.07159e-16 0)
(3 7.30801e-16 0)
(3 1.37482e-15 0)
(3 7.47873e-16 0)
(3 2.92177e-16 0)
(3 1.73912e-16 0)
(3 4.50844e-16 0)
(3 1.8745e-15 0)
(3 2.32937e-15 0)
(3 1.13749e-15 0)
(3 2.55702e-17 0)
(3 -3.33943e-16 0)
(3 -8.70278e-16 0)
(3 -9.36078e-16 0)
(3 -8.00137e-16 0)
(3 4.63067e-17 0)
(3 -4.46374e-16 0)
(3 -1.60032e-15 0)
(3 -6.12673e-16 0)
(3 7.16789e-16 0)
(3 1.49932e-15 0)
(3 3.04255e-15 0)
(3 4.21249e-15 0)
(3 4.56954e-15 0)
(3 4.07157e-15 0)
(3 2.98869e-15 0)
(3 1.04682e-15 0)
(3 9.35685e-16 0)
(3 1.90826e-15 0)
(3 2.67387e-15 0)
(3 2.26216e-15 0)
(3 1.91367e-15 0)
(3 1.31853e-15 0)
(3 9.87852e-16 0)
(3 1.36934e-15 0)
(3 9.67413e-16 0)
(3 2.87942e-16 0)
(3 8.38103e-16 0)
(3 9.09092e-16 0)
(3 2.6582e-15 0)
(3 8.19825e-16 0)
(3 -7.87835e-16 0)
(3 2.05811e-15 0)
(3 3.14624e-15 0)
(3 -1.59538e-15 0)
(3 -3.60414e-15 0)
(3 -4.25637e-15 0)
(3 -4.52822e-15 0)
(3 -3.64347e-15 0)
(3 -3.17098e-15 0)
(3 -2.66108e-15 0)
(3 -3.86788e-15 0)
(3 -4.67334e-15 0)
(3 -6.13947e-15 0)
(3 -6.20959e-15 0)
(3 -6.32848e-15 0)
(3 -4.37963e-15 0)
(3 -3.64216e-15 0)
(3 -3.24853e-15 0)
(3 -3.70061e-15 0)
(3 -1.0352e-15 0)
(3 2.31745e-16 0)
(3 1.5116e-15 0)
(3 1.01249e-15 0)
(3 1.90624e-16 0)
(3 4.778e-16 0)
(3 1.3987e-15 0)
(3 2.84051e-15 0)
(3 3.47575e-15 0)
(3 4.59445e-15 0)
(3 5.1694e-15 0)
(3 3.29581e-15 0)
(3 3.50272e-15 0)
(3 4.3735e-15 0)
(3 5.07096e-15 0)
(3 6.15214e-15 0)
(3 -5.67196e-17 0)
(3 1.44215e-16 0)
(3 3.55612e-16 0)
(3 4.77563e-16 0)
(3 4.59666e-16 0)
(3 -1.2338e-16 0)
(3 -1.23625e-16 0)
(3 -2.36579e-16 0)
(3 -7.57967e-17 0)
(3 -7.38669e-17 0)
(3 -7.69201e-17 0)
(3 -2.69329e-16 0)
(3 -2.28859e-16 0)
(3 4.16144e-16 0)
(3 1.02622e-15 0)
(3 1.11192e-15 0)
(3 1.54875e-15 0)
(3 1.72194e-15 0)
(3 -2.16222e-16 0)
(3 -9.45951e-16 0)
(3 -6.59054e-16 0)
(3 -2.95392e-16 0)
(3 2.44919e-16 0)
(3 3.31604e-16 0)
(3 4.61786e-16 0)
(3 -5.52078e-16 0)
(3 -7.88218e-16 0)
(3 -6.96053e-16 0)
(3 3.23148e-16 0)
(3 4.33978e-16 0)
(3 -6.14934e-16 0)
(3 -1.52271e-15 0)
(3 -1.46808e-15 0)
(3 -1.53774e-15 0)
(3 -1.7659e-15 0)
(3 -1.56047e-15 0)
(3 -1.47965e-15 0)
(3 -3.95497e-16 0)
(3 9.06344e-16 0)
(3 1.0211e-15 0)
(3 1.12186e-15 0)
(3 1.06721e-15 0)
(3 1.45639e-15 0)
(3 2.88596e-15 0)
(3 3.19864e-15 0)
(3 2.46586e-15 0)
(3 1.58718e-15 0)
(3 2.25479e-15 0)
(3 1.72289e-15 0)
(3 1.72769e-15 0)
(3 5.06155e-16 0)
(3 2.91007e-16 0)
(3 1.26314e-15 0)
(3 2.47551e-15 0)
(3 2.88065e-15 0)
(3 2.59335e-15 0)
(3 1.63213e-15 0)
(3 1.33991e-15 0)
(3 1.43294e-15 0)
(3 2.16595e-15 0)
(3 1.61298e-15 0)
(3 2.62038e-15 0)
(3 5.27356e-15 0)
(3 4.03424e-15 0)
(3 1.48084e-15 0)
(3 -7.71143e-16 0)
(3 -1.53543e-15 0)
(3 -1.83388e-15 0)
(3 -2.8897e-15 0)
(3 -3.4405e-15 0)
(3 -4.75093e-15 0)
(3 -3.55887e-15 0)
(3 -2.78796e-15 0)
(3 -1.84399e-15 0)
(3 -1.38932e-15 0)
(3 -2.05648e-15 0)
(3 -3.44898e-15 0)
(3 -3.81944e-15 0)
(3 -4.4255e-15 0)
(3 -3.5324e-15 0)
(3 -2.32826e-15 0)
(3 -1.5313e-15 0)
(3 -1.25057e-15 0)
(3 -6.10989e-16 0)
(3 -3.73482e-16 0)
(3 1.17653e-16 0)
(3 8.22078e-16 0)
(3 4.96146e-16 0)
(3 -8.80566e-16 0)
(3 -1.45325e-15 0)
(3 -8.02814e-16 0)
(3 2.92023e-15 0)
(3 6.58998e-15 0)
(3 6.45917e-15 0)
(3 6.09561e-15 0)
(3 4.53255e-15 0)
(3 1.68087e-17 0)
(3 2.39618e-16 0)
(3 5.58501e-16 0)
(3 1.04333e-15 0)
(3 1.80233e-15 0)
(3 1.81184e-15 0)
(3 7.1539e-16 0)
(3 1.62013e-16 0)
(3 -2.54916e-16 0)
(3 -1.43217e-16 0)
(3 -2.75551e-17 0)
(3 -1.1041e-17 0)
(3 -4.98443e-16 0)
(3 -9.28248e-16 0)
(3 -6.91443e-16 0)
(3 3.8641e-16 0)
(3 9.22869e-16 0)
(3 8.39617e-16 0)
(3 3.6801e-16 0)
(3 1.92529e-16 0)
(3 -1.50113e-16 0)
(3 -4.47815e-16 0)
(3 -8.10155e-16 0)
(3 1.00843e-16 0)
(3 2.8372e-16 0)
(3 -1.37238e-17 0)
(3 2.67349e-16 0)
(3 7.62986e-18 0)
(3 -5.9055e-17 0)
(3 -2.0973e-16 0)
(3 -1.16593e-15 0)
(3 -1.86339e-15 0)
(3 -1.72026e-15 0)
(3 -1.14258e-15 0)
(3 -1.28951e-15 0)
(3 -1.48385e-15 0)
(3 -5.30109e-16 0)
(3 4.12109e-16 0)
(3 1.11601e-15 0)
(3 1.21575e-15 0)
(3 8.17112e-16 0)
(3 1.37714e-16 0)
(3 7.35145e-16 0)
(3 1.86558e-15 0)
(3 2.89655e-15 0)
(3 3.42151e-15 0)
(3 3.46095e-15 0)
(3 3.6959e-15 0)
(3 3.07121e-15 0)
(3 1.89491e-15 0)
(3 1.4257e-15 0)
(3 1.9825e-15 0)
(3 3.06236e-15 0)
(3 3.60382e-15 0)
(3 2.91762e-15 0)
(3 2.49247e-15 0)
(3 1.98527e-15 0)
(3 1.70151e-15 0)
(3 1.75258e-15 0)
(3 7.03451e-16 0)
(3 1.78372e-15 0)
(3 4.64558e-15 0)
(3 7.07165e-15 0)
(3 5.7392e-15 0)
(3 3.3489e-15 0)
(3 1.99897e-15 0)
(3 5.91801e-16 0)
(3 -6.86574e-16 0)
(3 -4.14159e-15 0)
(3 -4.76101e-15 0)
(3 -5.56402e-15 0)
(3 -3.84316e-15 0)
(3 -1.46277e-15 0)
(3 7.23446e-16 0)
(3 1.9957e-15 0)
(3 1.34197e-15 0)
(3 -1.63834e-15 0)
(3 -2.81595e-15 0)
(3 -3.65381e-15 0)
(3 -3.35577e-15 0)
(3 -2.51933e-15 0)
(3 -2.02655e-15 0)
(3 -2.44575e-15 0)
(3 -1.98897e-15 0)
(3 -1.07218e-15 0)
(3 -7.95828e-16 0)
(3 -9.08761e-16 0)
(3 -1.40644e-15 0)
(3 -3.61e-15 0)
(3 -4.18898e-15 0)
(3 -3.26575e-15 0)
(3 -1.37941e-15 0)
(3 -3.4946e-16 0)
(3 2.10137e-15 0)
(3 2.25566e-15 0)
(3 3.37946e-15 0)
(3 2.3206e-17 0)
(3 2.96401e-18 0)
(3 6.05927e-17 0)
(3 1.72095e-16 0)
(3 6.54453e-16 0)
(3 1.1482e-15 0)
(3 9.62314e-16 0)
(3 8.1759e-16 0)
(3 3.06587e-16 0)
(3 -4.37242e-16 0)
(3 -4.94559e-16 0)
(3 -9.29252e-16 0)
(3 -1.15884e-15 0)
(3 -1.27665e-15 0)
(3 -9.7523e-16 0)
(3 -1.10489e-15 0)
(3 -7.42962e-16 0)
(3 -4.78156e-16 0)
(3 -8.80271e-17 0)
(3 3.71996e-16 0)
(3 -2.53139e-17 0)
(3 -3.82903e-16 0)
(3 -3.84474e-17 0)
(3 8.13606e-16 0)
(3 6.12734e-16 0)
(3 9.4581e-16 0)
(3 6.79859e-16 0)
(3 6.47329e-16 0)
(3 -2.89782e-16 0)
(3 -7.16245e-16 0)
(3 -1.72864e-15 0)
(3 -1.59154e-15 0)
(3 -2.19521e-15 0)
(3 -2.3405e-15 0)
(3 -1.62731e-15 0)
(3 -6.55071e-16 0)
(3 -1.13577e-15 0)
(3 -9.84486e-16 0)
(3 -1.4124e-15 0)
(3 -1.96517e-15 0)
(3 -1.03319e-15 0)
(3 7.53478e-16 0)
(3 1.48653e-15 0)
(3 2.4205e-15 0)
(3 3.01171e-15 0)
(3 2.87779e-15 0)
(3 2.82787e-15 0)
(3 2.46293e-15 0)
(3 2.04494e-15 0)
(3 2.29579e-15 0)
(3 3.71811e-15 0)
(3 3.9693e-15 0)
(3 3.9655e-15 0)
(3 2.62682e-15 0)
(3 4.37196e-16 0)
(3 5.95495e-16 0)
(3 1.57926e-15 0)
(3 2.10639e-15 0)
(3 2.75968e-15 0)
(3 1.92076e-15 0)
(3 2.76873e-15 0)
(3 4.82284e-15 0)
(3 5.42134e-15 0)
(3 2.75106e-15 0)
(3 2.36654e-15 0)
(3 2.58966e-15 0)
(3 1.77313e-15 0)
(3 5.77301e-16 0)
(3 -4.07283e-15 0)
(3 -5.94555e-15 0)
(3 -5.31772e-15 0)
(3 -3.73763e-15 0)
(3 -2.25563e-15 0)
(3 -7.14055e-16 0)
(3 6.72099e-16 0)
(3 5.41795e-16 0)
(3 2.29841e-16 0)
(3 -1.38239e-15 0)
(3 -2.44472e-15 0)
(3 -2.6944e-15 0)
(3 -2.23789e-15 0)
(3 -1.55618e-15 0)
(3 -1.65358e-15 0)
(3 -2.00612e-15 0)
(3 -3.83863e-15 0)
(3 -4.58945e-15 0)
(3 -4.84569e-15 0)
(3 -4.15706e-15 0)
(3 -3.93464e-15 0)
(3 -4.07923e-15 0)
(3 -2.84114e-15 0)
(3 -2.06028e-15 0)
(3 -1.85621e-15 0)
(3 8.57665e-16 0)
(3 2.08871e-15 0)
(3 3.05538e-15 0)
(3 -5.11684e-17 0)
(3 -1.36301e-16 0)
(3 -5.42733e-16 0)
(3 -9.57217e-16 0)
(3 -9.87244e-16 0)
(3 -9.55034e-16 0)
(3 -8.02649e-16 0)
(3 -3.03252e-16 0)
(3 2.09434e-16 0)
(3 -1.17079e-16 0)
(3 1.41664e-16 0)
(3 1.47037e-16 0)
(3 -2.39625e-16 0)
(3 -5.47484e-16 0)
(3 -7.58143e-16 0)
(3 -8.42855e-16 0)
(3 -8.16155e-16 0)
(3 -8.38213e-16 0)
(3 -8.02291e-16 0)
(3 -1.24732e-15 0)
(3 -7.0255e-16 0)
(3 4.51898e-16 0)
(3 2.20215e-15 0)
(3 2.44775e-15 0)
(3 2.59255e-15 0)
(3 2.79603e-15 0)
(3 1.30397e-15 0)
(3 5.96521e-16 0)
(3 -3.27855e-16 0)
(3 -9.4291e-16 0)
(3 -7.07586e-16 0)
(3 -1.23255e-15 0)
(3 -1.61548e-15 0)
(3 -2.27347e-15 0)
(3 -1.51826e-15 0)
(3 -1.2631e-15 0)
(3 -1.43407e-15 0)
(3 -1.39211e-15 0)
(3 -1.52143e-15 0)
(3 -1.11287e-15 0)
(3 -1.92817e-16 0)
(3 1.44109e-15 0)
(3 8.17457e-16 0)
(3 8.64026e-16 0)
(3 1.33441e-15 0)
(3 2.3058e-15 0)
(3 2.62639e-15 0)
(3 1.87707e-15 0)
(3 1.11649e-15 0)
(3 2.27372e-15 0)
(3 4.26707e-15 0)
(3 4.25606e-15 0)
(3 3.71506e-15 0)
(3 2.55959e-15 0)
(3 8.81351e-16 0)
(3 8.01535e-16 0)
(3 1.75926e-15 0)
(3 2.68389e-15 0)
(3 2.6917e-15 0)
(3 3.20211e-15 0)
(3 4.74302e-15 0)
(3 4.9385e-15 0)
(3 1.33806e-15 0)
(3 -4.31024e-16 0)
(3 -2.12611e-15 0)
(3 -3.36996e-15 0)
(3 -3.42699e-15 0)
(3 -3.8137e-15 0)
(3 -5.32586e-15 0)
(3 -7.95913e-15 0)
(3 -7.71032e-15 0)
(3 -4.98366e-15 0)
(3 -1.5381e-15 0)
(3 3.73945e-16 0)
(3 3.28571e-16 0)
(3 2.98803e-16 0)
(3 -2.78377e-16 0)
(3 -9.58987e-16 0)
(3 -1.20214e-15 0)
(3 -1.18999e-15 0)
(3 -1.12513e-15 0)
(3 -9.61571e-16 0)
(3 3.26067e-16 0)
(3 6.39325e-16 0)
(3 -1.35234e-15 0)
(3 -2.10967e-15 0)
(3 -2.12152e-15 0)
(3 -1.9588e-15 0)
(3 -2.24837e-15 0)
(3 -2.62818e-15 0)
(3 -2.13483e-15 0)
(3 -1.7353e-15 0)
(3 -5.56727e-16 0)
(3 1.17144e-15 0)
(3 2.99734e-15 0)
(3 3.96809e-15 0)
(3 -3.42203e-17 0)
(3 1.96276e-17 0)
(3 -2.0251e-16 0)
(3 -3.35629e-16 0)
(3 -5.63414e-16 0)
(3 -8.54331e-16 0)
(3 -6.47457e-16 0)
(3 -9.6503e-16 0)
(3 -1.29832e-15 0)
(3 -8.04692e-16 0)
(3 6.53226e-16 0)
(3 1.66912e-15 0)
(3 1.11525e-15 0)
(3 6.6857e-16 0)
(3 3.08792e-16 0)
(3 -9.31144e-17 0)
(3 -1.99636e-16 0)
(3 -6.02856e-16 0)
(3 -1.12489e-15 0)
(3 -1.54138e-15 0)
(3 -3.52156e-16 0)
(3 1.22298e-15 0)
(3 1.2428e-15 0)
(3 9.76233e-16 0)
(3 1.77614e-15 0)
(3 1.8722e-15 0)
(3 1.64642e-15 0)
(3 7.0785e-16 0)
(3 4.5342e-16 0)
(3 -3.54953e-16 0)
(3 -5.13854e-16 0)
(3 -5.98549e-16 0)
(3 -8.26455e-16 0)
(3 -9.49869e-16 0)
(3 -1.1378e-15 0)
(3 -1.20909e-15 0)
(3 -6.99402e-16 0)
(3 -7.97846e-16 0)
(3 -4.09811e-16 0)
(3 3.63777e-16 0)
(3 1.94018e-15 0)
(3 1.61489e-15 0)
(3 -9.54629e-17 0)
(3 -8.55745e-16 0)
(3 -1.02351e-15 0)
(3 8.15511e-16 0)
(3 2.47839e-15 0)
(3 1.86642e-15 0)
(3 8.15564e-16 0)
(3 2.01274e-15 0)
(3 3.93469e-15 0)
(3 3.8753e-15 0)
(3 2.28101e-15 0)
(3 1.51246e-15 0)
(3 4.1271e-16 0)
(3 5.84922e-17 0)
(3 1.57131e-15 0)
(3 2.68057e-15 0)
(3 2.86835e-15 0)
(3 3.68408e-15 0)
(3 4.12221e-15 0)
(3 3.9803e-15 0)
(3 3.39086e-15 0)
(3 2.16478e-15 0)
(3 6.09554e-16 0)
(3 -2.87245e-15 0)
(3 -3.82053e-15 0)
(3 -4.59705e-15 0)
(3 -4.62743e-15 0)
(3 -6.54543e-15 0)
(3 -7.82782e-15 0)
(3 -5.11587e-15 0)
(3 -2.3051e-15 0)
(3 -1.70203e-15 0)
(3 -1.18941e-15 0)
(3 -6.70821e-16 0)
(3 -8.87732e-16 0)
(3 -7.29644e-16 0)
(3 -4.32158e-16 0)
(3 6.50628e-17 0)
(3 5.09296e-16 0)
(3 9.00725e-16 0)
(3 2.0498e-15 0)
(3 1.49029e-15 0)
(3 1.60465e-16 0)
(3 5.25619e-17 0)
(3 -1.0831e-15 0)
(3 -1.74427e-15 0)
(3 -2.57869e-15 0)
(3 -2.27355e-15 0)
(3 -1.39469e-15 0)
(3 -6.83133e-16 0)
(3 1.53932e-16 0)
(3 1.05202e-15 0)
(3 3.58548e-15 0)
(3 6.03358e-15 0)
(3 -1.5298e-16 0)
(3 -2.92905e-16 0)
(3 1.54358e-17 0)
(3 1.09322e-16 0)
(3 1.08628e-16 0)
(3 1.41026e-16 0)
(3 4.77063e-16 0)
(3 4.56898e-16 0)
(3 -1.32228e-16 0)
(3 -1.60168e-16 0)
(3 6.3988e-16 0)
(3 1.2982e-15 0)
(3 8.69833e-16 0)
(3 1.16927e-15 0)
(3 9.2373e-16 0)
(3 7.12337e-16 0)
(3 2.2517e-16 0)
(3 2.10831e-16 0)
(3 1.21692e-16 0)
(3 -5.74021e-16 0)
(3 -7.28997e-16 0)
(3 -4.00361e-16 0)
(3 -9.34638e-16 0)
(3 -6.23495e-16 0)
(3 -2.1027e-16 0)
(3 -2.57444e-16 0)
(3 -7.81872e-17 0)
(3 4.10491e-16 0)
(3 7.88153e-16 0)
(3 1.01648e-15 0)
(3 1.39118e-16 0)
(3 -7.50671e-16 0)
(3 -2.9416e-16 0)
(3 1.97478e-16 0)
(3 4.36619e-16 0)
(3 2.87452e-16 0)
(3 -4.2898e-16 0)
(3 -5.79185e-16 0)
(3 -5.86846e-16 0)
(3 -3.43481e-16 0)
(3 7.58164e-16 0)
(3 8.62212e-16 0)
(3 -4.72038e-16 0)
(3 -1.28992e-15 0)
(3 -1.65195e-15 0)
(3 -4.69358e-16 0)
(3 2.62664e-16 0)
(3 3.19338e-17 0)
(3 5.52542e-16 0)
(3 1.70671e-15 0)
(3 3.85912e-15 0)
(3 3.71478e-15 0)
(3 2.50423e-15 0)
(3 7.87957e-16 0)
(3 9.63418e-16 0)
(3 1.31912e-15 0)
(3 1.92807e-15 0)
(3 1.8118e-15 0)
(3 2.96033e-15 0)
(3 3.49501e-15 0)
(3 2.4982e-15 0)
(3 7.00185e-16 0)
(3 3.17617e-16 0)
(3 -1.08986e-15 0)
(3 -1.69635e-15 0)
(3 -2.88817e-15 0)
(3 -4.87952e-15 0)
(3 -5.37023e-15 0)
(3 -4.64046e-15 0)
(3 -4.53307e-15 0)
(3 -5.04939e-15 0)
(3 -4.33887e-15 0)
(3 -2.9004e-15 0)
(3 -2.12453e-15 0)
(3 -7.46797e-16 0)
(3 -2.3197e-16 0)
(3 3.91538e-16 0)
(3 8.48182e-16 0)
(3 1.2068e-15 0)
(3 1.66515e-15 0)
(3 2.39186e-15 0)
(3 2.19426e-15 0)
(3 2.01792e-15 0)
(3 1.28128e-15 0)
(3 1.50452e-15 0)
(3 8.02928e-16 0)
(3 -5.28861e-16 0)
(3 -2.24195e-15 0)
(3 -3.12677e-15 0)
(3 -3.18565e-15 0)
(3 -2.57711e-15 0)
(3 -2.07713e-15 0)
(3 -1.61079e-15 0)
(3 3.15649e-16 0)
(3 3.02549e-15 0)
(3 4.91936e-15 0)
(3 7.29264e-17 0)
(3 -3.16474e-16 0)
(3 -3.6717e-16 0)
(3 -1.84967e-16 0)
(3 4.66389e-17 0)
(3 3.31363e-16 0)
(3 8.3815e-16 0)
(3 1.25442e-15 0)
(3 7.92215e-16 0)
(3 4.40816e-16 0)
(3 1.2243e-16 0)
(3 2.1953e-16 0)
(3 4.38717e-16 0)
(3 2.0955e-16 0)
(3 4.17047e-16 0)
(3 1.21007e-17 0)
(3 -2.72342e-16 0)
(3 -4.62307e-16 0)
(3 -5.21122e-16 0)
(3 -4.24358e-16 0)
(3 -3.60128e-16 0)
(3 -6.38187e-17 0)
(3 4.5774e-17 0)
(3 -8.43683e-17 0)
(3 7.87936e-17 0)
(3 1.12105e-16 0)
(3 4.80854e-16 0)
(3 9.52938e-16 0)
(3 8.79331e-16 0)
(3 3.44149e-16 0)
(3 -3.13956e-16 0)
(3 -9.22404e-16 0)
(3 -9.25847e-17 0)
(3 7.50527e-16 0)
(3 1.47106e-15 0)
(3 1.68694e-15 0)
(3 9.35221e-16 0)
(3 2.12577e-16 0)
(3 -3.81623e-17 0)
(3 2.86604e-16 0)
(3 8.53305e-16 0)
(3 -1.77619e-16 0)
(3 -6.94231e-16 0)
(3 -9.53605e-16 0)
(3 -7.97884e-16 0)
(3 -9.68941e-16 0)
(3 -7.40883e-16 0)
(3 -4.59471e-16 0)
(3 1.36361e-16 0)
(3 1.8541e-15 0)
(3 4.28058e-15 0)
(3 3.13348e-15 0)
(3 2.36404e-15 0)
(3 2.3345e-15 0)
(3 2.22518e-15 0)
(3 2.15395e-15 0)
(3 1.56399e-15 0)
(3 1.41819e-15 0)
(3 1.91411e-15 0)
(3 2.52899e-15 0)
(3 1.13314e-15 0)
(3 -1.64353e-15 0)
(3 -2.90127e-15 0)
(3 -4.00676e-15 0)
(3 -4.47496e-15 0)
(3 -4.62283e-15 0)