/*--------------------------------*- C++ -*----------------------------------*\
  =========                 |
  \\      /  F ield         | OpenFOAM: The Open Source CFD Toolbox
   \\    /   O peration     | Website:  https://openfoam.org
    \\  /    A nd           | Version:  7
     \\/     M anipulation  |
\*---------------------------------------------------------------------------*/
FoamFile
{
    version     2.0;
    format      ascii;
    class       volVectorField;
    location    "1.2";
    object      U;
}
// * * * * * * * * * * * * * * * * * * * * * * * * * * * * * * * * * * * * * //

dimensions      [0 1 -1 0 0 0 0];

internalField   nonuniform List<vector> 
73728
(
(3 -1.42592e-17 0)
(3 2.19363e-17 0)
(3 -1.6355e-17 0)
(3 -8.36602e-17 0)
(3 -2.82062e-16 0)
(3 -9.82788e-17 0)
(3 1.28147e-16 0)
(3 -8.35346e-17 0)
(3 4.34487e-17 0)
(3 -5.22912e-17 0)
(3 -3.64969e-16 0)
(3 -5.11453e-16 0)
(3 -3.95925e-16 0)
(3 -4.11893e-16 0)
(3 -4.63729e-16 0)
(3 -8.68013e-16 0)
(3 -6.38459e-16 0)
(3 2.65294e-17 0)
(3 -3.62767e-16 0)
(3 -9.61012e-16 0)
(3 -1.26078e-15 0)
(3 -2.02534e-15 0)
(3 -1.99648e-15 0)
(3 -1.32858e-15 0)
(3 -1.0675e-15 0)
(3 -9.28269e-16 0)
(3 -1.08331e-15 0)
(3 -1.43011e-15 0)
(3 -6.2005e-16 0)
(3 -2.72947e-16 0)
(3 1.10402e-16 0)
(3 1.65249e-16 0)
(3 -8.99486e-17 0)
(3 -1.85285e-16 0)
(3 -2.43105e-16 0)
(3 -6.54091e-17 0)
(3 -7.29803e-17 0)
(3 -2.79308e-16 0)
(3 -5.78282e-16 0)
(3 -5.72107e-16 0)
(3 -1.10268e-16 0)
(3 2.09627e-16 0)
(3 3.09107e-16 0)
(3 2.57578e-16 0)
(3 -5.54063e-16 0)
(3 -6.16412e-16 0)
(3 -5.68188e-16 0)
(3 -4.34448e-16 0)
(3 -3.93558e-16 0)
(3 -6.98261e-16 0)
(3 -8.76273e-16 0)
(3 -4.39194e-16 0)
(3 -1.6261e-15 0)
(3 -1.69027e-15 0)
(3 -1.62214e-15 0)
(3 -1.97365e-15 0)
(3 -1.56165e-15 0)
(3 -7.81855e-16 0)
(3 -5.44046e-16 0)
(3 -6.14616e-16 0)
(3 -8.80793e-16 0)
(3 -7.39326e-16 0)
(3 6.72003e-17 0)
(3 1.45759e-16 0)
(3 3.10474e-17 0)
(3 -9.20152e-16 0)
(3 -7.80342e-16 0)
(3 -8.77731e-16 0)
(3 -8.27016e-16 0)
(3 -7.01737e-16 0)
(3 -1.03347e-15 0)
(3 -1.52965e-15 0)
(3 -9.15958e-16 0)
(3 -1.59226e-15 0)
(3 -2.34918e-15 0)
(3 -7.63297e-16 0)
(3 -6.16942e-16 0)
(3 -7.71739e-16 0)
(3 -6.93918e-16 0)
(3 -8.34179e-16 0)
(3 -1.07501e-15 0)
(3 -1.18814e-15 0)
(3 -1.12189e-15 0)
(3 -9.23867e-16 0)
(3 -8.02346e-16 0)
(3 -2.67479e-16 0)
(3 6.0676e-16 0)
(3 8.53378e-16 0)
(3 2.35331e-16 0)
(3 2.78603e-16 0)
(3 3.38859e-16 0)
(3 1.14056e-15 0)
(3 1.41234e-15 0)
(3 1.23548e-15 0)
(3 4.80134e-16 0)
(3 -7.57097e-16 0)
(3 -6.4384e-18 0)
(3 2.31321e-16 0)
(3 5.55166e-17 0)
(3 2.04638e-17 0)
(3 -1.81059e-16 0)
(3 2.30262e-16 0)
(3 7.54805e-20 0)
(3 -2.77632e-16 0)
(3 -7.60314e-16 0)
(3 -1.16134e-15 0)
(3 -1.31661e-15 0)
(3 -9.94165e-16 0)
(3 -1.22843e-15 0)
(3 -1.43729e-15 0)
(3 -1.46973e-15 0)
(3 -1.36107e-15 0)
(3 -1.11118e-15 0)
(3 -6.84015e-17 0)
(3 -2.97006e-16 0)
(3 -7.68375e-16 0)
(3 -1.15973e-15 0)
(3 -1.38607e-15 0)
(3 -1.1078e-15 0)
(3 3.04709e-16 0)
(3 5.4029e-16 0)
(3 7.08612e-16 0)
(3 5.25733e-17 0)
(3 -5.40888e-16 0)
(3 -3.07273e-16 0)
(3 5.33074e-16 0)
(3 7.16556e-16 0)
(3 3.78718e-16 0)
(3 -8.55486e-16 0)
(3 -1.1157e-15 0)
(3 -1.38516e-15 0)
(3 -1.15134e-15 0)
(3 -6.96238e-16 0)
(3 -7.34799e-16 0)
(3 -7.67749e-16 0)
(3 -9.34863e-16 0)
(3 -8.30272e-16 0)
(3 -8.60692e-16 0)
(3 -4.30097e-16 0)
(3 -1.96586e-16 0)
(3 -1.20982e-16 0)
(3 3.56086e-16 0)
(3 -1.56135e-16 0)
(3 1.81021e-16 0)
(3 6.92121e-17 0)
(3 -7.61789e-16 0)
(3 -1.40185e-15 0)
(3 -9.34723e-16 0)
(3 -1.53363e-15 0)
(3 -1.75359e-15 0)
(3 -2.25101e-15 0)
(3 -2.23452e-15 0)
(3 -1.82891e-15 0)
(3 -4.56831e-16 0)
(3 -1.21705e-15 0)
(3 -2.3867e-15 0)
(3 -2.4135e-15 0)
(3 -2.0722e-15 0)
(3 -4.68148e-16 0)
(3 -5.12641e-17 0)
(3 -7.64098e-16 0)
(3 -1.7208e-15 0)
(3 -1.71345e-15 0)
(3 -1.82942e-15 0)
(3 -1.67035e-15 0)
(3 -1.38082e-15 0)
(3 -1.60326e-15 0)
(3 -2.09629e-15 0)
(3 -3.05364e-15 0)
(3 -3.3605e-15 0)
(3 -3.12111e-15 0)
(3 -1.30287e-15 0)
(3 -1.1895e-16 0)
(3 6.1733e-16 0)
(3 4.23112e-16 0)
(3 1.9042e-17 0)
(3 -9.73121e-17 0)
(3 -7.26762e-16 0)
(3 -7.7028e-16 0)
(3 -4.23154e-16 0)
(3 2.6387e-17 0)
(3 5.04268e-16 0)
(3 1.56389e-15 0)
(3 1.74568e-15 0)
(3 1.59041e-15 0)
(3 1.57581e-15 0)
(3 2.43916e-15 0)
(3 2.87941e-15 0)
(3 2.64813e-15 0)
(3 8.09207e-16 0)
(3 -7.14934e-16 0)
(3 -3.24891e-15 0)
(3 5.50526e-18 0)
(3 1.4859e-16 0)
(3 6.21294e-17 0)
(3 -1.04344e-16 0)
(3 -1.81554e-16 0)
(3 -9.02168e-17 0)
(3 -2.14991e-16 0)
(3 -4.59275e-16 0)
(3 -1.0967e-15 0)
(3 -1.40945e-15 0)
(3 -1.39487e-15 0)
(3 -1.29595e-15 0)
(3 -1.44514e-15 0)
(3 -1.51706e-15 0)
(3 -1.64032e-15 0)
(3 -1.17987e-15 0)
(3 -1.28271e-15 0)
(3 -1.76986e-15 0)
(3 -1.42545e-15 0)
(3 -1.1061e-15 0)
(3 -8.02805e-16 0)
(3 -3.53787e-16 0)
(3 4.12792e-16 0)
(3 5.64879e-16 0)
(3 1.0441e-15 0)
(3 8.78941e-16 0)
(3 -1.34067e-16 0)
(3 -6.04467e-16 0)
(3 -6.2251e-16 0)
(3 -3.42121e-16 0)
(3 7.11463e-17 0)
(3 -1.07164e-16 0)
(3 -2.88992e-16 0)
(3 -8.43124e-16 0)
(3 -1.26182e-15 0)
(3 -1.1669e-15 0)
(3 -7.25822e-16 0)
(3 -3.87618e-16 0)
(3 -1.89323e-16 0)
(3 -5.74982e-16 0)
(3 -6.65403e-16 0)
(3 -4.46209e-16 0)
(3 -1.62313e-16 0)
(3 -2.68186e-16 0)
(3 3.40105e-16 0)
(3 1.45732e-15 0)
(3 1.35057e-15 0)
(3 1.53909e-15 0)
(3 1.54734e-15 0)
(3 1.17783e-15 0)
(3 7.31567e-16 0)
(3 6.72631e-16 0)
(3 6.4296e-16 0)
(3 -2.15176e-16 0)
(3 -6.34953e-16 0)
(3 -1.50485e-15 0)
(3 -2.77137e-15 0)
(3 -3.17723e-15 0)
(3 -3.67673e-15 0)
(3 -4.40348e-15 0)
(3 -2.76704e-15 0)
(3 -2.56439e-15 0)
(3 -1.83763e-15 0)
(3 1.39414e-16 0)
(3 7.34732e-16 0)
(3 7.97957e-16 0)
(3 -8.32787e-17 0)
(3 6.02645e-16 0)
(3 1.19889e-15 0)
(3 5.9644e-16 0)
(3 -7.22961e-17 0)
(3 -1.27074e-15 0)
(3 -1.67389e-15 0)
(3 -1.89292e-15 0)
(3 -1.75321e-15 0)
(3 -1.57772e-15 0)
(3 -4.32211e-16 0)
(3 1.86748e-15 0)
(3 2.20553e-15 0)
(3 1.63542e-15 0)
(3 1.07719e-15 0)
(3 3.30579e-16 0)
(3 -4.43784e-16 0)
(3 1.20731e-16 0)
(3 3.42467e-16 0)
(3 1.72396e-15 0)
(3 2.51833e-15 0)
(3 2.34869e-15 0)
(3 2.72054e-15 0)
(3 3.47227e-15 0)
(3 3.34557e-15 0)
(3 2.45473e-15 0)
(3 -2.17938e-16 0)
(3 -1.76174e-15 0)
(3 -1.98481e-15 0)
(3 -2.24925e-15 0)
(3 1.08171e-16 0)
(3 2.18596e-16 0)
(3 3.37714e-16 0)
(3 1.37751e-16 0)
(3 -1.01961e-16 0)
(3 -3.75919e-16 0)
(3 -2.81287e-16 0)
(3 -3.43164e-16 0)
(3 -3.90122e-17 0)
(3 6.7635e-17 0)
(3 -5.36583e-16 0)
(3 -8.91453e-16 0)
(3 -3.67805e-16 0)
(3 -5.13151e-16 0)
(3 -8.1513e-16 0)
(3 -1.22124e-15 0)
(3 -1.62636e-15 0)
(3 -2.62528e-15 0)
(3 -2.93703e-15 0)
(3 -2.80025e-15 0)
(3 -1.97715e-15 0)
(3 -5.30846e-16 0)
(3 2.45931e-17 0)
(3 6.8482e-17 0)
(3 4.90321e-16 0)
(3 3.55338e-16 0)
(3 1.17293e-16 0)
(3 1.01973e-17 0)
(3 2.47356e-16 0)
(3 4.7267e-17 0)
(3 -2.52397e-16 0)
(3 -9.92362e-17 0)
(3 1.80824e-16 0)
(3 2.00456e-16 0)
(3 5.28862e-16 0)
(3 8.50877e-16 0)
(3 7.23743e-16 0)
(3 5.12524e-16 0)
(3 1.50043e-16 0)
(3 4.90902e-16 0)
(3 4.67747e-16 0)
(3 8.28753e-16 0)
(3 6.49921e-16 0)
(3 3.72739e-16 0)
(3 9.82495e-16 0)
(3 1.6579e-15 0)
(3 2.4549e-15 0)
(3 2.34083e-15 0)
(3 1.99177e-15 0)
(3 1.59543e-15 0)
(3 1.02093e-15 0)
(3 3.2673e-16 0)
(3 2.79764e-17 0)
(3 -2.49677e-16 0)
(3 -4.45313e-16 0)
(3 -8.7115e-16 0)
(3 -2.15106e-15 0)
(3 -2.5467e-15 0)
(3 -1.65082e-15 0)
(3 -6.597e-16 0)
(3 4.19254e-16 0)
(3 1.59203e-15 0)
(3 2.15721e-15 0)
(3 2.49507e-15 0)
(3 3.0763e-15 0)
(3 2.53814e-15 0)
(3 2.03685e-15 0)
(3 3.41277e-15 0)
(3 3.87143e-15 0)
(3 3.04591e-15 0)
(3 2.05445e-15 0)
(3 1.0762e-15 0)
(3 5.44507e-16 0)
(3 -2.17019e-16 0)
(3 -2.27298e-16 0)
(3 -6.16175e-16 0)
(3 3.37721e-16 0)
(3 1.24831e-15 0)
(3 1.84814e-15 0)
(3 1.19383e-15 0)
(3 1.69781e-16 0)
(3 1.89898e-16 0)
(3 3.40022e-16 0)
(3 9.32717e-16 0)
(3 4.29232e-17 0)
(3 -1.63995e-16 0)
(3 3.58086e-16 0)
(3 7.41828e-16 0)
(3 9.39454e-16 0)
(3 8.53125e-16 0)
(3 5.02447e-17 0)
(3 -1.59818e-15 0)
(3 -3.18109e-15 0)
(3 -3.78727e-15 0)
(3 -2.84326e-15 0)
(3 -1.65091e-15 0)
(3 1.73229e-16 0)
(3 4.29585e-16 0)
(3 1.84054e-16 0)
(3 2.561e-16 0)
(3 3.81929e-16 0)
(3 -4.51017e-17 0)
(3 -3.08685e-16 0)
(3 -3.32877e-16 0)
(3 -2.47573e-16 0)
(3 4.26705e-16 0)
(3 1.07629e-16 0)
(3 -4.52932e-16 0)
(3 3.03951e-16 0)
(3 -6.94459e-16 0)
(3 -1.1999e-15 0)
(3 -1.92751e-15 0)
(3 -2.18894e-15 0)
(3 -1.7173e-15 0)
(3 -2.09147e-15 0)
(3 -2.10933e-15 0)
(3 -1.39321e-15 0)
(3 -6.22639e-16 0)
(3 -3.94603e-16 0)
(3 -1.76226e-16 0)
(3 -3.58714e-16 0)
(3 -3.27679e-16 0)
(3 3.27562e-17 0)
(3 -7.86332e-17 0)
(3 1.36279e-16 0)
(3 2.80541e-16 0)
(3 -2.39652e-16 0)
(3 -3.27933e-16 0)
(3 -4.40819e-16 0)
(3 -2.29159e-16 0)
(3 -3.23916e-17 0)
(3 -5.8102e-17 0)
(3 -1.66846e-17 0)
(3 -8.52965e-17 0)
(3 4.26242e-17 0)
(3 -8.03225e-17 0)
(3 2.4639e-16 0)
(3 6.69373e-16 0)
(3 6.69309e-16 0)
(3 7.43579e-16 0)
(3 8.89494e-16 0)
(3 1.19457e-15 0)
(3 1.39997e-15 0)
(3 8.38726e-16 0)
(3 -8.38412e-17 0)
(3 -6.65406e-16 0)
(3 -1.09274e-15 0)
(3 -1.38209e-15 0)
(3 -5.95758e-16 0)
(3 -4.19576e-16 0)
(3 -7.07985e-16 0)
(3 -6.68419e-16 0)
(3 -8.42876e-16 0)
(3 -7.18631e-16 0)
(3 4.32528e-16 0)
(3 1.20133e-15 0)
(3 1.33735e-15 0)
(3 1.40769e-15 0)
(3 1.38862e-15 0)
(3 1.40795e-15 0)
(3 1.89034e-15 0)
(3 1.96706e-15 0)
(3 2.62393e-15 0)
(3 2.13617e-15 0)
(3 2.14346e-15 0)
(3 2.13328e-15 0)
(3 1.9771e-15 0)
(3 1.9546e-15 0)
(3 2.36617e-15 0)
(3 2.23555e-15 0)
(3 1.35764e-15 0)
(3 2.39183e-16 0)
(3 -1.28172e-15 0)
(3 -1.15978e-15 0)
(3 -5.76728e-16 0)
(3 -5.43213e-16 0)
(3 -7.62962e-16 0)
(3 -9.25244e-16 0)
(3 -3.50467e-16 0)
(3 1.39519e-16 0)
(3 -3.14957e-16 0)
(3 -1.3958e-15 0)
(3 -1.64054e-15 0)
(3 -1.77492e-15 0)
(3 -1.8853e-15 0)
(3 -2.55997e-15 0)
(3 -2.3451e-15 0)
(3 -2.44216e-15 0)
(3 -2.19436e-15 0)
(3 -2.02198e-15 0)
(3 -2.73529e-15 0)
(3 -2.2966e-15 0)
(3 -1.03703e-16 0)
(3 -1.31859e-16 0)
(3 -5.03166e-16 0)
(3 -3.56249e-16 0)
(3 -2.00991e-16 0)
(3 -1.90537e-16 0)
(3 -3.88129e-16 0)
(3 -2.43218e-16 0)
(3 -8.35913e-16 0)
(3 -7.20364e-16 0)
(3 -7.28777e-16 0)
(3 -4.013e-16 0)
(3 -2.58063e-16 0)
(3 -8.04262e-16 0)
(3 -1.05107e-15 0)
(3 -2.00509e-15 0)
(3 -2.42379e-15 0)
(3 -1.77509e-15 0)
(3 -7.22656e-17 0)
(3 6.45267e-16 0)
(3 2.40306e-16 0)
(3 -1.38011e-15 0)
(3 -1.92061e-15 0)
(3 -2.14305e-15 0)
(3 -1.72774e-15 0)
(3 -1.41902e-15 0)
(3 -1.30442e-15 0)
(3 -8.74344e-16 0)
(3 -1.10085e-15 0)
(3 -3.66758e-16 0)
(3 -1.36843e-16 0)
(3 -1.77219e-16 0)
(3 -1.35998e-16 0)
(3 -1.8689e-16 0)
(3 -2.35824e-16 0)
(3 -2.19609e-16 0)
(3 -2.13275e-16 0)
(3 -2.48177e-16 0)
(3 -1.43543e-16 0)
(3 -1.33866e-16 0)
(3 1.12278e-16 0)
(3 4.04994e-16 0)
(3 3.83128e-16 0)
(3 1.72824e-16 0)
(3 2.45459e-16 0)
(3 5.55989e-16 0)
(3 9.64614e-16 0)
(3 -1.18818e-15 0)
(3 -2.74451e-15 0)
(3 -2.34665e-15 0)
(3 -1.64784e-15 0)
(3 -8.78909e-16 0)
(3 -1.12547e-16 0)
(3 -1.58139e-16 0)
(3 -3.47903e-16 0)
(3 -4.81609e-16 0)
(3 -3.54878e-16 0)
(3 -2.63771e-16 0)
(3 -1.32006e-16 0)
(3 1.69552e-16 0)
(3 3.83477e-16 0)
(3 4.17414e-16 0)
(3 4.61685e-16 0)
(3 5.48423e-16 0)
(3 3.14814e-16 0)
(3 5.93447e-16 0)
(3 4.94047e-16 0)
(3 1.2089e-16 0)
(3 4.51177e-16 0)
(3 8.43534e-16 0)
(3 1.00873e-15 0)
(3 1.15333e-15 0)
(3 7.07912e-16 0)
(3 4.38696e-16 0)
(3 1.1108e-15 0)
(3 5.43338e-16 0)
(3 -5.6043e-17 0)
(3 -6.73111e-16 0)
(3 -1.17788e-15 0)
(3 -1.16914e-15 0)
(3 -1.19557e-15 0)
(3 -1.51819e-15 0)
(3 -1.92074e-15 0)
(3 -2.44055e-15 0)
(3 -2.57716e-15 0)
(3 -3.24696e-15 0)
(3 -3.27888e-15 0)
(3 -2.90614e-15 0)
(3 -2.72819e-15 0)
(3 -2.61113e-15 0)
(3 -2.23238e-15 0)
(3 -1.95721e-15 0)
(3 -8.12106e-16 0)
(3 -2.84338e-16 0)
(3 -1.51889e-15 0)
(3 -2.17335e-15 0)
(3 2.78544e-17 0)
(3 -5.63912e-17 0)
(3 5.84652e-17 0)
(3 -5.0903e-17 0)
(3 -6.36973e-17 0)
(3 -2.55275e-16 0)
(3 -9.91815e-16 0)
(3 -9.51394e-16 0)
(3 -3.74144e-16 0)
(3 -2.67265e-16 0)
(3 2.72275e-16 0)
(3 8.53478e-16 0)
(3 5.26031e-16 0)
(3 2.34403e-16 0)
(3 6.01484e-17 0)
(3 -1.49514e-16 0)
(3 -1.05793e-15 0)
(3 -1.58337e-15 0)
(3 -1.14501e-15 0)
(3 -3.2485e-16 0)
(3 3.86176e-16 0)
(3 3.56683e-17 0)
(3 -1.27356e-16 0)
(3 -1.63398e-16 0)
(3 -9.0445e-16 0)
(3 -1.37851e-15 0)
(3 -2.0625e-15 0)
(3 -2.01283e-15 0)
(3 -1.61426e-15 0)
(3 -8.31797e-16 0)
(3 -3.44786e-16 0)
(3 -2.66383e-16 0)
(3 -1.61304e-16 0)
(3 -4.49247e-16 0)
(3 -5.25422e-16 0)
(3 -4.74857e-16 0)
(3 -7.90206e-16 0)
(3 -8.88299e-16 0)
(3 -8.78699e-16 0)
(3 1.66341e-16 0)
(3 2.06011e-16 0)
(3 2.60212e-16 0)
(3 5.52234e-16 0)
(3 9.20872e-16 0)
(3 3.98038e-16 0)
(3 -4.2886e-16 0)
(3 -1.15212e-15 0)
(3 -1.32715e-15 0)
(3 -1.37097e-15 0)
(3 -9.09234e-16 0)
(3 1.8216e-16 0)
(3 -1.30248e-16 0)
(3 -7.19168e-16 0)
(3 -1.13343e-15 0)
(3 -7.57527e-16 0)
(3 -4.33244e-16 0)
(3 -2.4458e-16 0)
(3 1.27828e-16 0)
(3 8.36896e-18 0)
(3 -3.69528e-16 0)
(3 -8.17811e-16 0)
(3 -3.32329e-16 0)
(3 4.17509e-16 0)
(3 3.68985e-16 0)
(3 -1.20068e-16 0)
(3 -2.78364e-16 0)
(3 -4.26239e-16 0)
(3 2.09493e-16 0)
(3 3.76388e-16 0)
(3 5.79619e-16 0)
(3 5.37555e-16 0)
(3 6.58045e-16 0)
(3 1.23203e-16 0)
(3 1.01579e-17 0)
(3 4.73191e-16 0)
(3 3.58876e-16 0)
(3 -6.60114e-17 0)
(3 -7.00282e-16 0)
(3 -1.40074e-15 0)
(3 -1.78032e-15 0)
(3 -2.09066e-15 0)
(3 -2.48352e-15 0)
(3 -3.11819e-15 0)
(3 -3.63473e-15 0)
(3 -3.91721e-15 0)
(3 -3.64294e-15 0)
(3 -1.70319e-15 0)
(3 -1.99457e-16 0)
(3 -2.82311e-16 0)
(3 -9.92369e-17 0)
(3 -9.28262e-18 0)
(3 1.84605e-16 0)
(3 -3.34812e-16 0)
(3 -7.14391e-16 0)
(3 -1.07639e-15 0)
(3 -1.21981e-15 0)
(3 -3.82668e-17 0)
(3 -5.49169e-17 0)
(3 3.47567e-16 0)
(3 4.96415e-16 0)
(3 3.66462e-16 0)
(3 1.78833e-16 0)
(3 3.14264e-16 0)
(3 4.19142e-16 0)
(3 1.74307e-15 0)
(3 2.29975e-15 0)
(3 2.60486e-15 0)
(3 1.93443e-15 0)
(3 7.81717e-16 0)
(3 5.83602e-16 0)
(3 4.79355e-16 0)
(3 1.67157e-15 0)
(3 1.74741e-15 0)
(3 1.97458e-15 0)
(3 1.70129e-15 0)
(3 1.73882e-15 0)
(3 1.41015e-15 0)
(3 1.60042e-15 0)
(3 1.10486e-15 0)
(3 8.66339e-16 0)
(3 6.07229e-16 0)
(3 -4.70119e-17 0)
(3 -6.49177e-16 0)
(3 -7.95473e-16 0)
(3 -3.29283e-16 0)
(3 -4.88903e-16 0)
(3 -4.38379e-16 0)
(3 -6.56603e-16 0)
(3 -1.20611e-15 0)
(3 -1.323e-15 0)
(3 -1.03514e-15 0)
(3 -1.0381e-15 0)
(3 -1.54054e-15 0)
(3 -1.11619e-15 0)
(3 -8.29442e-16 0)
(3 -6.9514e-16 0)
(3 -2.55534e-16 0)
(3 -1.41808e-16 0)
(3 5.55088e-16 0)
(3 8.14497e-16 0)
(3 -7.47945e-16 0)
(3 -1.80303e-15 0)
(3 -1.69534e-15 0)
(3 -3.575e-16 0)
(3 1.33115e-15 0)
(3 1.6084e-15 0)
(3 2.61263e-15 0)
(3 2.41904e-15 0)
(3 2.00759e-15 0)
(3 2.06299e-15 0)
(3 1.75807e-15 0)
(3 7.8987e-16 0)
(3 -3.25446e-16 0)
(3 -1.00775e-15 0)
(3 -1.1393e-15 0)
(3 -1.1091e-15 0)
(3 -1.15235e-15 0)
(3 -1.32705e-15 0)
(3 -1.2051e-15 0)
(3 -9.89791e-16 0)
(3 -8.35567e-16 0)
(3 -9.62884e-16 0)
(3 -8.65212e-16 0)
(3 -5.78799e-16 0)
(3 -3.37814e-16 0)
(3 -3.5544e-16 0)
(3 -1.93488e-16 0)
(3 -4.1301e-16 0)
(3 9.28855e-17 0)
(3 1.35746e-17 0)
(3 -4.32237e-18 0)
(3 5.19784e-16 0)
(3 7.41311e-16 0)
(3 6.25517e-16 0)
(3 -4.13916e-16 0)
(3 -1.01488e-15 0)
(3 -1.19029e-15 0)
(3 -1.00019e-15 0)
(3 -1.5292e-15 0)
(3 -1.81008e-15 0)
(3 -2.27872e-15 0)
(3 -2.37584e-15 0)
(3 -1.86612e-15 0)
(3 -1.71399e-15 0)
(3 -9.86767e-16 0)
(3 3.06294e-16 0)
(3 3.95713e-16 0)
(3 4.67201e-16 0)
(3 -1.59823e-16 0)
(3 -6.94853e-16 0)
(3 -2.88673e-16 0)
(3 -1.10146e-16 0)
(3 -1.58274e-16 0)
(3 -3.7199e-16 0)
(3 -4.22502e-16 0)
(3 -2.27833e-16 0)
(3 2.55395e-16 0)
(3 4.96446e-16 0)
(3 1.17433e-15 0)
(3 1.34821e-15 0)
(3 1.46517e-15 0)
(3 1.74039e-15 0)
(3 6.28357e-16 0)
(3 2.12466e-16 0)
(3 1.63806e-16 0)
(3 3.17721e-16 0)
(3 7.0546e-16 0)
(3 1.11335e-15 0)
(3 1.8704e-15 0)
(3 3.05599e-15 0)
(3 3.5026e-15 0)
(3 3.15189e-15 0)
(3 2.25507e-15 0)
(3 1.20451e-15 0)
(3 6.83179e-16 0)
(3 1.80034e-16 0)
(3 2.15239e-16 0)
(3 6.63392e-17 0)
(3 5.75053e-16 0)
(3 1.41487e-15 0)
(3 1.48315e-15 0)
(3 -5.59511e-17 0)
(3 -9.79598e-16 0)
(3 -1.13101e-15 0)
(3 -1.21675e-15 0)
(3 -8.00889e-16 0)
(3 -3.05354e-16 0)
(3 -3.47744e-16 0)
(3 -1.5249e-15 0)
(3 -1.44097e-15 0)
(3 -1.0446e-15 0)
(3 -5.40697e-16 0)
(3 1.88857e-16 0)
(3 3.25347e-17 0)
(3 -1.44692e-16 0)
(3 -8.07552e-16 0)
(3 -1.68311e-15 0)
(3 -1.51134e-15 0)
(3 -5.02943e-16 0)
(3 4.11948e-17 0)
(3 5.9505e-16 0)
(3 1.06614e-15 0)
(3 1.62907e-15 0)
(3 2.20326e-15 0)
(3 3.44107e-15 0)
(3 4.72395e-15 0)
(3 4.9428e-15 0)
(3 1.94152e-15 0)
(3 -1.78951e-16 0)
(3 -4.11471e-16 0)
(3 -7.86588e-17 0)
(3 3.02961e-16 0)
(3 4.35589e-16 0)
(3 -2.99093e-17 0)
(3 -4.59059e-16 0)
(3 -9.78536e-16 0)
(3 -1.64078e-15 0)
(3 -2.09113e-15 0)
(3 -2.36906e-15 0)
(3 -2.24436e-15 0)
(3 -1.7224e-15 0)
(3 -1.3777e-15 0)
(3 -8.10803e-16 0)
(3 3.58602e-17 0)
(3 -1.58178e-16 0)
(3 -1.83688e-15 0)
(3 -1.54807e-15 0)
(3 -1.5458e-15 0)
(3 -7.83723e-16 0)
(3 -6.03047e-16 0)
(3 -6.85267e-16 0)
(3 -6.32084e-16 0)
(3 -4.71422e-16 0)
(3 -8.7802e-16 0)
(3 -1.17787e-15 0)
(3 -9.90945e-16 0)
(3 -1.22126e-15 0)
(3 -1.58545e-15 0)
(3 -2.05963e-15 0)
(3 -1.19308e-15 0)
(3 -1.9623e-16 0)
(3 2.07096e-16 0)
(3 -9.27225e-17 0)
(3 -8.85843e-16 0)
(3 -5.48799e-16 0)
(3 -1.97315e-16 0)
(3 1.49889e-15 0)
(3 2.53184e-15 0)
(3 2.76785e-16 0)
(3 2.17515e-16 0)
(3 -1.73262e-16 0)
(3 -1.7045e-16 0)
(3 -9.40262e-17 0)
(3 1.61768e-16 0)
(3 8.5623e-17 0)
(3 1.96224e-17 0)
(3 -1.56811e-16 0)
(3 -3.76956e-16 0)
(3 -3.89779e-16 0)
(3 -3.70808e-16 0)
(3 1.00375e-18 0)
(3 4.07374e-16 0)
(3 1.00231e-15 0)
(3 4.18308e-16 0)
(3 5.91265e-16 0)
(3 7.86472e-16 0)
(3 5.77006e-16 0)
(3 2.37071e-16 0)
(3 3.73665e-16 0)
(3 -6.48334e-16 0)
(3 -9.92283e-16 0)
(3 -1.2924e-15 0)
(3 -5.68152e-16 0)
(3 7.3641e-16 0)
(3 1.53199e-15 0)
(3 9.42066e-16 0)
(3 2.34256e-16 0)
(3 -9.12961e-16 0)
(3 -1.85612e-15 0)
(3 -1.44099e-15 0)
(3 -6.27851e-16 0)
(3 -6.52034e-16 0)
(3 -1.2689e-15 0)
(3 -1.54555e-15 0)
(3 -1.30585e-15 0)
(3 -1.17823e-15 0)
(3 -1.02441e-15 0)
(3 -1.26169e-16 0)
(3 -2.28739e-16 0)
(3 -4.72994e-16 0)
(3 -7.61393e-16 0)
(3 -1.18468e-15 0)
(3 -8.50925e-16 0)
(3 -3.5908e-16 0)
(3 -4.03313e-16 0)
(3 -3.30206e-16 0)
(3 -1.84735e-16 0)
(3 8.36876e-16 0)
(3 1.15882e-15 0)
(3 1.6493e-15 0)
(3 2.74344e-15 0)
(3 4.40619e-15 0)
(3 3.29504e-15 0)
(3 1.96841e-15 0)
(3 1.56884e-15 0)
(3 1.31037e-15 0)
(3 5.39257e-16 0)
(3 1.61703e-16 0)
(3 1.21428e-16 0)
(3 2.81966e-16 0)
(3 -1.68884e-16 0)
(3 -1.41146e-15 0)
(3 -1.87335e-15 0)
(3 -2.27284e-15 0)
(3 -2.86536e-15 0)
(3 -3.6023e-15 0)
(3 -3.38377e-15 0)
(3 -2.81978e-15 0)
(3 -1.75202e-15 0)
(3 -1.514e-15 0)
(3 -2.21093e-15 0)
(3 -2.65953e-15 0)
(3 -2.69329e-15 0)
(3 -3.04896e-15 0)
(3 -3.04716e-15 0)
(3 -2.80463e-15 0)
(3 -2.33356e-15 0)
(3 -1.67079e-15 0)
(3 -1.06415e-15 0)
(3 -1.29291e-15 0)
(3 -1.63972e-15 0)
(3 -1.90569e-15 0)
(3 -2.06453e-15 0)
(3 -1.00991e-15 0)
(3 -7.45784e-16 0)
(3 -5.33491e-16 0)
(3 -4.8019e-16 0)
(3 -6.7239e-16 0)
(3 -1.04804e-15 0)
(3 -1.2616e-15 0)
(3 6.45481e-16 0)
(3 1.6367e-15 0)
(3 1.21644e-15 0)
(3 2.7152e-15 0)
(3 -1.66938e-16 0)
(3 -7.22097e-17 0)
(3 -2.02763e-16 0)
(3 -3.05426e-16 0)
(3 -4.43225e-16 0)
(3 3.98868e-17 0)
(3 6.6604e-17 0)
(3 5.98006e-17 0)
(3 -2.64459e-16 0)
(3 -4.59866e-16 0)
(3 -5.77351e-16 0)
(3 -3.77694e-16 0)
(3 -5.84481e-17 0)
(3 2.70547e-16 0)
(3 7.64253e-16 0)
(3 8.39838e-16 0)
(3 7.26737e-16 0)
(3 3.8572e-16 0)
(3 -4.47302e-17 0)
(3 -2.93067e-16 0)
(3 -6.86451e-16 0)
(3 -5.47969e-16 0)
(3 -4.64868e-16 0)
(3 -9.79708e-16 0)
(3 -2.27277e-16 0)
(3 7.99826e-16 0)
(3 6.79399e-16 0)
(3 -5.88568e-16 0)
(3 -1.33341e-15 0)
(3 -1.73578e-15 0)
(3 -1.01639e-15 0)
(3 -9.66755e-16 0)
(3 -8.88646e-16 0)
(3 -1.02155e-15 0)
(3 -1.40418e-15 0)
(3 -1.6031e-15 0)
(3 -1.66666e-15 0)
(3 -1.74091e-15 0)
(3 -7.7729e-16 0)
(3 5.74113e-16 0)
(3 3.47081e-16 0)
(3 1.1318e-16 0)
(3 -6.70222e-17 0)
(3 9.20094e-17 0)
(3 8.98016e-16 0)
(3 1.61333e-15 0)
(3 1.36133e-15 0)
(3 1.12373e-15 0)
(3 2.60502e-16 0)
(3 2.78441e-16 0)
(3 1.60109e-15 0)
(3 2.35042e-15 0)
(3 1.77694e-15 0)
(3 1.51407e-15 0)
(3 1.15293e-15 0)
(3 1.32617e-15 0)
(3 2.46549e-15 0)
(3 1.19547e-15 0)
(3 3.88835e-16 0)
(3 8.30295e-17 0)
(3 -5.65533e-16 0)
(3 -1.50009e-15 0)
(3 -1.83232e-15 0)
(3 -1.80112e-15 0)
(3 -1.24683e-15 0)
(3 -7.92644e-16 0)
(3 -8.86576e-16 0)
(3 -1.22246e-15 0)
(3 -1.97125e-15 0)
(3 -1.90849e-15 0)
(3 -1.80754e-15 0)
(3 -2.40997e-15 0)
(3 -2.14274e-15 0)
(3 -1.64797e-15 0)
(3 -2.18849e-15 0)
(3 -3.37743e-15 0)
(3 -3.98192e-15 0)
(3 -3.0077e-15 0)
(3 -1.88472e-15 0)
(3 -1.4597e-15 0)
(3 -1.60239e-15 0)
(3 -7.56522e-16 0)
(3 -8.5508e-16 0)
(3 -1.5713e-15 0)
(3 -2.15734e-15 0)
(3 -1.23313e-15 0)
(3 -5.46824e-16 0)
(3 -5.86373e-16 0)
(3 -9.14078e-16 0)
(3 -1.16806e-15 0)
(3 -1.38075e-15 0)
(3 -6.81075e-16 0)
(3 -4.85645e-16 0)
(3 -9.02457e-16 0)
(3 -1.4791e-15 0)
(3 -8.63313e-16 0)
(3 -5.10345e-17 0)
(3 -2.26933e-16 0)
(3 -1.4796e-16 0)
(3 -3.65348e-16 0)
(3 -6.44209e-16 0)
(3 9.40985e-17 0)
(3 4.11151e-16 0)
(3 5.70371e-16 0)
(3 2.11918e-16 0)
(3 -1.72012e-16 0)
(3 -4.25392e-16 0)
(3 -5.44455e-16 0)
(3 -5.25888e-16 0)
(3 -2.63472e-16 0)
(3 -7.25572e-17 0)
(3 1.96826e-16 0)
(3 3.78046e-16 0)
(3 3.77124e-16 0)
(3 -2.84767e-17 0)
(3 1.88458e-17 0)
(3 -1.80634e-16 0)
(3 1.58384e-16 0)
(3 9.59223e-16 0)
(3 1.38292e-15 0)
(3 1.62494e-16 0)
(3 -2.62677e-16 0)
(3 -1.42994e-15 0)
(3 -2.25174e-15 0)
(3 -2.73862e-15 0)
(3 -2.21468e-15 0)
(3 -1.13166e-15 0)
(3 -1.18805e-15 0)
(3 -1.98848e-15 0)
(3 -2.4536e-15 0)
(3 -2.42221e-15 0)
(3 -1.41978e-15 0)
(3 -1.37062e-15 0)
(3 -1.88002e-15 0)
(3 -2.97028e-16 0)
(3 2.04421e-16 0)
(3 7.75564e-16 0)
(3 1.53669e-15 0)
(3 1.67161e-15 0)
(3 1.36803e-15 0)
(3 9.1915e-16 0)
(3 1.10752e-15 0)
(3 6.15872e-16 0)
(3 1.4663e-16 0)
(3 -1.60068e-16 0)
(3 -1.1743e-16 0)
(3 5.29431e-16 0)
(3 1.08179e-15 0)
(3 4.97055e-16 0)
(3 2.73779e-16 0)
(3 1.00175e-15 0)
(3 1.97156e-15 0)
(3 3.30753e-15 0)
(3 2.25651e-15 0)
(3 1.84539e-15 0)
(3 9.13011e-16 0)
(3 -1.30192e-15 0)
(3 -3.0897e-15 0)
(3 -3.35581e-15 0)
(3 -2.00472e-15 0)
(3 -1.61426e-15 0)
(3 -7.18067e-16 0)
(3 -3.94586e-17 0)
(3 1.10834e-15 0)
(3 5.14997e-16 0)
(3 -2.14285e-16 0)
(3 -9.28368e-16 0)
(3 -1.81598e-15 0)
(3 -1.7198e-15 0)
(3 -1.9794e-15 0)
(3 -2.91501e-15 0)
(3 -2.64867e-15 0)
(3 -2.2772e-15 0)
(3 -2.45789e-15 0)
(3 -1.55633e-15 0)
(3 -1.90576e-15 0)
(3 -2.15006e-15 0)
(3 -1.68198e-15 0)
(3 -1.11661e-15 0)
(3 -9.47522e-16 0)
(3 -4.41968e-16 0)
(3 -2.10458e-17 0)
(3 9.55792e-17 0)
(3 1.53244e-16 0)
(3 5.92199e-17 0)
(3 -3.1899e-16 0)
(3 -3.58922e-16 0)
(3 -8.39204e-16 0)
(3 -1.93201e-15 0)
(3 -2.54866e-15 0)
(3 -2.63237e-15 0)
(3 -3.33526e-15 0)
(3 1.09565e-17 0)
(3 -1.4047e-17 0)
(3 2.0973e-16 0)
(3 4.66711e-16 0)
(3 4.7116e-16 0)
(3 1.21255e-16 0)
(3 -8.82083e-17 0)
(3 -1.02498e-17 0)
(3 1.58308e-16 0)
(3 2.76826e-16 0)
(3 4.94335e-16 0)
(3 2.2156e-16 0)
(3 -1.45847e-16 0)
(3 8.94888e-17 0)
(3 -5.49416e-17 0)
(3 -2.66096e-17 0)
(3 2.85169e-16 0)
(3 4.51582e-16 0)
(3 6.01441e-17 0)
(3 -4.64569e-16 0)
(3 -5.53422e-16 0)
(3 -4.6259e-16 0)
(3 -2.4572e-16 0)
(3 5.43575e-16 0)
(3 2.95294e-16 0)
(3 -3.31411e-16 0)
(3 -1.00604e-15 0)
(3 -1.41604e-15 0)
(3 -1.64261e-15 0)
(3 -1.79141e-15 0)
(3 -1.78234e-15 0)
(3 -1.70965e-15 0)
(3 -1.72586e-15 0)
(3 -1.65145e-15 0)
(3 -1.96172e-15 0)
(3 -1.1928e-15 0)
(3 -8.26405e-16 0)
(3 -1.37812e-15 0)
(3 -2.05457e-15 0)
(3 -1.52498e-15 0)
(3 -7.65074e-16 0)
(3 7.52626e-16 0)
(3 1.03606e-15 0)
(3 1.25339e-15 0)
(3 8.2484e-16 0)
(3 2.26141e-16 0)
(3 1.35315e-16 0)
(3 1.46694e-16 0)
(3 1.32867e-16 0)
(3 2.00508e-18 0)
(3 -3.28495e-16 0)
(3 -6.72652e-16 0)
(3 -1.55577e-15 0)
(3 -1.92873e-15 0)
(3 6.53271e-16 0)
(3 2.6689e-15 0)
(3 3.53122e-15 0)
(3 2.65585e-15 0)
(3 1.22024e-15 0)
(3 -2.99079e-16 0)
(3 -1.70102e-15 0)
(3 -1.9848e-15 0)
(3 -1.53695e-15 0)
(3 -6.12834e-16 0)
(3 -5.02333e-16 0)
(3 -1.32784e-16 0)
(3 3.97844e-16 0)
(3 6.65773e-16 0)
(3 1.27938e-15 0)
(3 1.47538e-15 0)
(3 1.0792e-15 0)
(3 -3.13297e-16 0)
(3 -1.2953e-15 0)
(3 -2.56163e-15 0)
(3 -2.62951e-15 0)
(3 -1.63787e-15 0)
(3 -4.09714e-16 0)
(3 -1.17805e-15 0)
(3 -9.17272e-16 0)
(3 -3.23156e-16 0)
(3 -3.15181e-16 0)
(3 -7.03084e-16 0)
(3 -3.37449e-17 0)
(3 3.28991e-16 0)
(3 4.3026e-16 0)
(3 5.26721e-16 0)
(3 3.4611e-16 0)
(3 -4.71328e-17 0)
(3 3.13396e-16 0)
(3 8.74751e-16 0)
(3 6.73258e-16 0)
(3 3.71618e-16 0)
(3 1.27344e-16 0)
(3 -7.67642e-16 0)
(3 -1.75987e-15 0)
(3 -1.95435e-15 0)
(3 -9.9259e-17 0)
(3 7.81755e-17 0)
(3 3.10568e-16 0)
(3 6.02336e-16 0)
(3 3.78979e-16 0)
(3 -1.33302e-16 0)
(3 -6.18705e-16 0)
(3 -8.44841e-16 0)
(3 -8.20718e-16 0)
(3 -4.04505e-16 0)
(3 -8.84545e-17 0)
(3 1.04491e-16 0)
(3 3.75658e-16 0)
(3 3.24172e-16 0)
(3 2.50991e-16 0)
(3 -2.09235e-16 0)
(3 -5.55249e-16 0)
(3 -5.2071e-16 0)
(3 -2.60719e-16 0)
(3 -5.53241e-16 0)
(3 -7.92492e-16 0)
(3 -7.42546e-16 0)
(3 -1.15604e-15 0)
(3 -1.26794e-15 0)
(3 -1.37851e-15 0)
(3 -2.17025e-15 0)
(3 -2.32229e-15 0)
(3 -1.05313e-15 0)
(3 1.47179e-16 0)
(3 -5.66575e-17 0)
(3 -4.55448e-16 0)
(3 -5.37237e-16 0)
(3 -3.65492e-16 0)
(3 4.88021e-18 0)
(3 1.07044e-16 0)
(3 -1.95714e-16 0)
(3 -9.98094e-16 0)
(3 -1.29996e-15 0)
(3 -1.47674e-15 0)
(3 -1.36385e-15 0)
(3 -1.37802e-15 0)
(3 -8.56852e-16 0)
(3 -1.53966e-16 0)
(3 1.01687e-15 0)
(3 1.40364e-15 0)
(3 9.24531e-16 0)
(3 5.61978e-16 0)
(3 6.84911e-16 0)
(3 7.98649e-16 0)
(3 5.21753e-16 0)
(3 1.6138e-16 0)
(3 -5.00889e-16 0)
(3 -1.82572e-15 0)
(3 -2.50046e-15 0)
(3 -2.20785e-15 0)
(3 7.89148e-17 0)
(3 4.9074e-16 0)
(3 1.889e-15 0)
(3 2.33307e-15 0)
(3 2.10778e-15 0)
(3 2.13115e-15 0)
(3 2.31281e-15 0)
(3 2.26592e-15 0)
(3 2.06461e-15 0)
(3 1.90835e-15 0)
(3 1.94873e-15 0)
(3 1.89643e-15 0)
(3 1.38735e-15 0)
(3 1.37863e-15 0)
(3 6.79358e-16 0)
(3 -3.65605e-16 0)
(3 -2.14676e-16 0)
(3 -1.305e-15 0)
(3 -1.47058e-15 0)
(3 -9.06873e-16 0)
(3 -3.31953e-16 0)
(3 1.47216e-16 0)
(3 4.22293e-16 0)
(3 7.88991e-16 0)
(3 1.18517e-15 0)
(3 1.64151e-15 0)
(3 1.76544e-15 0)
(3 1.95524e-15 0)
(3 2.37308e-15 0)
(3 2.55689e-15 0)
(3 2.02298e-15 0)
(3 2.00832e-15 0)
(3 1.48896e-15 0)
(3 1.06063e-15 0)
(3 1.24524e-15 0)
(3 2.9456e-16 0)
(3 -1.90044e-16 0)
(3 -1.1386e-15 0)
(3 -1.79807e-15 0)
(3 -2.91877e-15 0)
(3 -1.85121e-15 0)
(3 1.40264e-17 0)
(3 2.91335e-17 0)
(3 9.74533e-17 0)
(3 -2.74135e-16 0)
(3 -4.49446e-16 0)
(3 -5.46609e-16 0)
(3 -2.25103e-16 0)
(3 9.27538e-17 0)
(3 -1.61212e-18 0)
(3 -2.66777e-16 0)
(3 -6.50119e-16 0)
(3 -1.90311e-17 0)
(3 2.51684e-16 0)
(3 4.8744e-17 0)
(3 -5.23241e-17 0)
(3 -3.179e-16 0)
(3 -6.33475e-16 0)
(3 -1.03589e-15 0)
(3 -7.61956e-16 0)
(3 2.17613e-17 0)
(3 5.20702e-17 0)
(3 -2.54884e-16 0)
(3 -1.19478e-15 0)
(3 -2.87089e-15 0)
(3 -3.15016e-15 0)
(3 -1.97998e-15 0)
(3 3.69643e-16 0)
(3 1.02808e-15 0)
(3 1.30091e-15 0)
(3 9.36047e-16 0)
(3 7.08631e-16 0)
(3 6.88298e-16 0)
(3 4.88895e-16 0)
(3 1.24985e-16 0)
(3 2.64578e-16 0)
(3 1.0256e-16 0)
(3 5.80747e-16 0)
(3 1.1144e-15 0)
(3 1.18429e-15 0)
(3 3.9499e-16 0)
(3 -3.19137e-16 0)
(3 -1.02241e-15 0)
(3 -3.31057e-16 0)
(3 1.15235e-16 0)
(3 3.73086e-16 0)
(3 6.98912e-16 0)
(3 2.26716e-16 0)
(3 -1.07995e-16 0)
(3 -4.42251e-17 0)
(3 2.80738e-16 0)
(3 1.84652e-16 0)
(3 -2.58588e-16 0)
(3 -1.13021e-15 0)
(3 -2.62424e-15 0)
(3 -3.21361e-15 0)
(3 -2.72389e-15 0)
(3 -1.60994e-15 0)
(3 4.88994e-16 0)
(3 2.39858e-15 0)
(3 2.35261e-15 0)
(3 3.07087e-15 0)
(3 3.64374e-15 0)
(3 3.208e-15 0)
(3 2.0821e-15 0)
(3 3.12248e-16 0)
(3 -3.4384e-16 0)
(3 -4.88846e-16 0)
(3 8.03659e-17 0)
(3 -1.64661e-16 0)
(3 -8.96478e-16 0)
(3 -1.342e-15 0)
(3 -7.91227e-16 0)
(3 -4.78027e-16 0)
(3 -4.43356e-16 0)
(3 -2.90392e-16 0)
(3 -5.18253e-17 0)
(3 2.74401e-16 0)
(3 1.01077e-15 0)
(3 1.06093e-15 0)
(3 1.54427e-15 0)
(3 2.26132e-15 0)
(3 2.45745e-15 0)
(3 2.28492e-15 0)
(3 2.8219e-15 0)
(3 3.30995e-15 0)
(3 2.19433e-15 0)
(3 1.31486e-15 0)
(3 1.14992e-15 0)
(3 -2.21746e-16 0)
(3 -1.27282e-15 0)
(3 -1.56884e-15 0)
(3 -2.18833e-15 0)
(3 -2.15856e-15 0)
(3 -1.86031e-15 0)
(3 -2.07917e-15 0)
(3 -1.9119e-15 0)
(3 -1.03423e-17 0)
(3 -3.49762e-16 0)
(3 -2.34571e-16 0)
(3 -1.9177e-16 0)
(3 1.36501e-16 0)
(3 2.70656e-16 0)
(3 5.72033e-16 0)
(3 6.70721e-16 0)
(3 8.60007e-16 0)
(3 7.03088e-16 0)
(3 3.50259e-16 0)
(3 -2.73944e-17 0)
(3 -1.97342e-16 0)
(3 9.03089e-17 0)
(3 1.61785e-16 0)
(3 3.3462e-16 0)
(3 2.33564e-16 0)
(3 -1.60075e-16 0)
(3 1.65953e-16 0)
(3 3.42213e-16 0)
(3 3.05979e-16 0)
(3 -4.00204e-16 0)
(3 -2.00414e-15 0)
(3 -3.33952e-15 0)
(3 -2.08142e-15 0)
(3 -1.25514e-15 0)
(3 -9.57143e-16 0)
(3 -2.6925e-16 0)
(3 -3.47658e-16 0)
(3 1.06238e-16 0)
(3 5.07874e-16 0)
(3 6.44509e-16 0)
(3 1.10536e-15 0)
(3 8.97215e-16 0)
(3 5.35732e-16 0)
(3 5.504e-16 0)
(3 1.1375e-15 0)
(3 2.00574e-15 0)
(3 3.03689e-15 0)
(3 8.83543e-16 0)
(3 2.84385e-17 0)
(3 1.31434e-16 0)
(3 -7.70265e-17 0)
(3 -6.12147e-16 0)
(3 -1.5533e-15 0)
(3 -1.02432e-15 0)
(3 5.35075e-17 0)
(3 -4.23057e-17 0)
(3 -1.1819e-15 0)
(3 -2.15898e-15 0)
(3 -3.38702e-15 0)
(3 -3.52014e-15 0)
(3 -1.46501e-15 0)
(3 -1.16553e-15 0)
(3 -1.86791e-15 0)
(3 -1.70734e-15 0)
(3 -5.11677e-16 0)
(3 1.68805e-16 0)
(3 1.80071e-15 0)
(3 2.38562e-15 0)
(3 2.83187e-15 0)
(3 2.9374e-15 0)
(3 2.87266e-15 0)
(3 2.85592e-15 0)
(3 1.40946e-15 0)
(3 7.11291e-17 0)
(3 -3.59567e-16 0)
(3 -9.73352e-17 0)
(3 -1.5465e-16 0)
(3 8.27307e-17 0)
(3 1.78828e-16 0)
(3 2.13814e-16 0)
(3 5.42386e-16 0)
(3 6.65692e-16 0)
(3 2.27759e-16 0)
(3 1.61936e-16 0)
(3 -5.68111e-17 0)
(3 6.10991e-16 0)
(3 1.24344e-15 0)
(3 1.5295e-15 0)
(3 2.17986e-15 0)
(3 2.01198e-15 0)
(3 1.94476e-15 0)
(3 1.13008e-15 0)
(3 1.45663e-15 0)
(3 2.22711e-15 0)
(3 2.09488e-15 0)
(3 1.65967e-15 0)
(3 -5.59714e-16 0)
(3 -2.4217e-15 0)
(3 -2.64233e-15 0)
(3 -2.45525e-15 0)
(3 -2.28398e-15 0)
(3 -1.61135e-15 0)
(3 -1.06378e-15 0)
(3 -1.73348e-15 0)
(3 1.73188e-18 0)
(3 -1.97447e-17 0)
(3 2.63618e-16 0)
(3 3.0817e-16 0)
(3 4.86783e-16 0)
(3 5.27789e-16 0)
(3 4.47521e-16 0)
(3 2.17199e-16 0)
(3 3.28462e-16 0)
(3 6.21421e-16 0)
(3 4.85596e-16 0)
(3 1.41326e-16 0)
(3 -3.46176e-16 0)
(3 -1.48091e-16 0)
(3 5.48532e-16 0)
(3 6.74318e-16 0)
(3 7.42623e-16 0)
(3 9.91811e-16 0)
(3 4.50421e-16 0)
(3 -1.9733e-16 0)
(3 -8.31379e-16 0)
(3 -1.88274e-15 0)
(3 -1.4437e-15 0)
(3 -5.60227e-16 0)
(3 2.30578e-17 0)
(3 -2.238e-16 0)
(3 -5.61464e-16 0)
(3 -5.28457e-16 0)
(3 -5.7989e-16 0)
(3 -1.83955e-16 0)
(3 4.35592e-16 0)
(3 3.60493e-16 0)
(3 3.73287e-16 0)
(3 2.64999e-16 0)
(3 7.90196e-17 0)
(3 1.24875e-16 0)
(3 2.93872e-16 0)
(3 9.62381e-16 0)
(3 1.63808e-15 0)
(3 1.24934e-15 0)
(3 8.81944e-16 0)
(3 5.53665e-16 0)
(3 5.12576e-16 0)
(3 3.36432e-16 0)
(3 -5.33381e-16 0)
(3 -1.92667e-15 0)
(3 -1.33258e-15 0)
(3 -7.32361e-16 0)
(3 -1.27774e-15 0)
(3 -2.17094e-15 0)