/*--------------------------------*- C++ -*----------------------------------*\
  =========                 |
  \\      /  F ield         | OpenFOAM: The Open Source CFD Toolbox
   \\    /   O peration     | Website:  https://openfoam.org
    \\  /    A nd           | Version:  7
     \\/     M anipulation  |
\*---------------------------------------------------------------------------*/
FoamFile
{
    version     2.0;
    format      ascii;
    class       volVectorField;
    location    "4";
    object      U;
}
// * * * * * * * * * * * * * * * * * * * * * * * * * * * * * * * * * * * * * //

dimensions      [0 1 -1 0 0 0 0];

internalField   nonuniform List<vector> 
73728
(
(3 4.95121e-17 0)
(3 2.46756e-16 0)
(3 2.85614e-16 0)
(3 4.6421e-16 0)
(3 1.04248e-15 0)
(3 8.48593e-16 0)
(3 4.41246e-16 0)
(3 4.75053e-16 0)
(3 -3.28968e-16 0)
(3 -6.00602e-16 0)
(3 -4.21757e-16 0)
(3 -8.66217e-16 0)
(3 -1.21506e-15 0)
(3 -1.54671e-15 0)
(3 -1.53021e-15 0)
(3 -1.18374e-15 0)
(3 -1.4244e-15 0)
(3 -1.52221e-15 0)
(3 -1.79486e-15 0)
(3 -2.01844e-15 0)
(3 -1.77344e-15 0)
(3 -1.1137e-15 0)
(3 4.70495e-16 0)
(3 1.75409e-15 0)
(3 1.70358e-15 0)
(3 1.57582e-15 0)
(3 1.37807e-15 0)
(3 1.108e-15 0)
(3 4.44991e-16 0)
(3 -7.87629e-17 0)
(3 -1.81736e-17 0)
(3 -5.9015e-16 0)
(3 -1.777e-15 0)
(3 -1.38118e-15 0)
(3 -1.31401e-15 0)
(3 -1.97649e-15 0)
(3 -1.76336e-15 0)
(3 -1.56931e-15 0)
(3 -1.27481e-15 0)
(3 -9.11282e-16 0)
(3 -8.89315e-16 0)
(3 -1.02376e-15 0)
(3 -1.95234e-15 0)
(3 -2.70098e-15 0)
(3 -2.29357e-15 0)
(3 -1.43456e-15 0)
(3 -9.305e-16 0)
(3 -2.27751e-16 0)
(3 9.32512e-16 0)
(3 1.84672e-15 0)
(3 1.45087e-15 0)
(3 9.1244e-16 0)
(3 5.32364e-16 0)
(3 2.50813e-16 0)
(3 -5.64472e-17 0)
(3 -3.45749e-16 0)
(3 -3.38176e-16 0)
(3 -1.08545e-16 0)
(3 1.19717e-16 0)
(3 -1.60454e-16 0)
(3 -4.30182e-16 0)
(3 1.03088e-16 0)
(3 1.58063e-16 0)
(3 -3.26742e-16 0)
(3 -5.38584e-16 0)
(3 -9.04522e-16 0)
(3 -8.29122e-16 0)
(3 -1.12823e-16 0)
(3 2.61547e-16 0)
(3 4.11182e-16 0)
(3 7.02115e-16 0)
(3 8.46959e-16 0)
(3 5.19124e-16 0)
(3 7.95906e-16 0)
(3 1.58852e-15 0)
(3 1.34825e-15 0)
(3 6.34905e-16 0)
(3 -6.69754e-16 0)
(3 -1.68031e-15 0)
(3 -7.36882e-16 0)
(3 2.47288e-16 0)
(3 4.25638e-16 0)
(3 1.00457e-15 0)
(3 1.14419e-15 0)
(3 9.95851e-16 0)
(3 8.00235e-16 0)
(3 1.98875e-16 0)
(3 1.29751e-16 0)
(3 9.08138e-17 0)
(3 -2.79068e-16 0)
(3 -4.69396e-16 0)
(3 -2.49463e-16 0)
(3 -8.34279e-16 0)
(3 -1.8e-16 0)
(3 5.6037e-16 0)
(3 4.81469e-16 0)
(3 -2.8211e-16 0)
(3 -2.29065e-16 0)
(3 2.20314e-16 0)
(3 4.62496e-16 0)
(3 1.94342e-15 0)
(3 1.97215e-15 0)
(3 1.48434e-15 0)
(3 1.46236e-15 0)
(3 8.47502e-16 0)
(3 -4.94602e-17 0)
(3 -5.98395e-16 0)
(3 -1.90046e-15 0)
(3 -2.65201e-15 0)
(3 -1.42851e-15 0)
(3 -1.28276e-15 0)
(3 -9.2617e-16 0)
(3 -1.00701e-15 0)
(3 -1.45245e-15 0)
(3 -1.63876e-15 0)
(3 -2.02972e-15 0)
(3 -1.96148e-15 0)
(3 -1.25212e-15 0)
(3 8.37481e-16 0)
(3 2.33025e-15 0)
(3 2.32411e-15 0)
(3 2.28769e-15 0)
(3 2.1954e-15 0)
(3 2.18674e-15 0)
(3 1.55594e-15 0)
(3 7.21514e-16 0)
(3 4.32398e-16 0)
(3 4.9895e-16 0)
(3 2.97034e-17 0)
(3 -7.31586e-16 0)
(3 -1.30958e-15 0)
(3 -2.57755e-15 0)
(3 -2.71655e-15 0)
(3 -1.31155e-15 0)
(3 -1.26393e-15 0)
(3 -1.30525e-15 0)
(3 -1.34988e-15 0)
(3 -1.54993e-15 0)
(3 -1.92292e-15 0)
(3 -1.52934e-15 0)
(3 -1.07401e-15 0)
(3 -1.29294e-16 0)
(3 2.80279e-16 0)
(3 9.01353e-16 0)
(3 1.93969e-15 0)
(3 2.91721e-15 0)
(3 2.44486e-15 0)
(3 1.07205e-15 0)
(3 7.09541e-16 0)
(3 9.96474e-16 0)
(3 7.90576e-16 0)
(3 -4.16348e-16 0)
(3 -5.3771e-16 0)
(3 -4.16254e-16 0)
(3 -1.92739e-16 0)
(3 3.55032e-17 0)
(3 2.63208e-16 0)
(3 1.03924e-15 0)
(3 1.17253e-15 0)
(3 -2.07502e-16 0)
(3 -6.75373e-16 0)
(3 -1.27297e-15 0)
(3 -1.30578e-15 0)
(3 -1.00483e-15 0)
(3 -4.56077e-16 0)
(3 1.88995e-16 0)
(3 8.9686e-16 0)
(3 1.27268e-15 0)
(3 9.86909e-16 0)
(3 1.12211e-15 0)
(3 1.87133e-15 0)
(3 2.70125e-15 0)
(3 9.93147e-16 0)
(3 -2.06801e-15 0)
(3 -3.38455e-15 0)
(3 -1.09351e-15 0)
(3 8.64006e-16 0)
(3 8.93416e-16 0)
(3 2.33953e-15 0)
(3 2.59517e-15 0)
(3 1.95256e-15 0)
(3 1.21863e-15 0)
(3 2.24484e-17 0)
(3 -1.78803e-15 0)
(3 -2.47402e-15 0)
(3 -2.36835e-15 0)
(3 -2.17628e-15 0)
(3 -1.97125e-15 0)
(3 -1.73094e-15 0)
(3 -3.77064e-16 0)
(3 1.31251e-15 0)
(3 6.37738e-16 0)
(3 -2.48216e-17 0)
(3 -3.42056e-16 0)
(3 9.08224e-17 0)
(3 5.13928e-16 0)
(3 9.02704e-16 0)
(3 1.23203e-15 0)
(3 1.52462e-15 0)
(3 2.06863e-15 0)
(3 2.47188e-15 0)
(3 2.48492e-15 0)
(3 6.05914e-16 0)
(3 -1.29327e-15 0)
(3 -1.32572e-15 0)
(3 4.3595e-16 0)
(3 1.19824e-15 0)
(3 1.22219e-15 0)
(3 7.70922e-16 0)
(3 4.10955e-16 0)
(3 -8.06035e-16 0)
(3 -1.10199e-15 0)
(3 -9.7925e-16 0)
(3 -2.41261e-16 0)
(3 4.09249e-16 0)
(3 8.60671e-16 0)
(3 9.14577e-16 0)
(3 8.86303e-16 0)
(3 2.30496e-16 0)
(3 2.45092e-16 0)
(3 9.94446e-16 0)
(3 1.59714e-15 0)
(3 2.05604e-15 0)
(3 2.24265e-15 0)
(3 2.06138e-15 0)
(3 1.2258e-15 0)
(3 -2.29588e-16 0)
(3 -1.72512e-15 0)
(3 -2.58675e-15 0)
(3 -2.44329e-15 0)
(3 -2.24023e-15 0)
(3 -2.23663e-15 0)
(3 -2.70112e-15 0)
(3 -2.89908e-15 0)
(3 -2.15334e-15 0)
(3 -1.58743e-15 0)
(3 -7.74809e-16 0)
(3 4.50827e-16 0)
(3 1.51274e-15 0)
(3 2.02047e-15 0)
(3 1.86882e-15 0)
(3 1.64806e-15 0)
(3 1.07421e-15 0)
(3 3.28637e-16 0)
(3 -3.34804e-17 0)
(3 3.05075e-16 0)
(3 6.76302e-16 0)
(3 3.95723e-16 0)
(3 3.62623e-17 0)
(3 -6.73535e-16 0)
(3 -5.39235e-16 0)
(3 -4.41198e-16 0)
(3 5.70355e-16 0)
(3 1.33758e-15 0)
(3 8.72495e-16 0)
(3 1.67726e-16 0)
(3 7.9871e-16 0)
(3 9.40456e-16 0)
(3 6.19097e-16 0)
(3 -1.69733e-17 0)
(3 -1.44775e-16 0)
(3 8.55772e-17 0)
(3 1.63925e-16 0)
(3 1.46327e-16 0)
(3 1.78688e-16 0)
(3 3.97828e-16 0)
(3 2.95774e-16 0)
(3 1.06073e-15 0)
(3 1.09828e-15 0)
(3 1.92106e-16 0)
(3 7.71202e-16 0)
(3 1.18365e-15 0)
(3 1.86786e-15 0)
(3 2.95774e-15 0)
(3 2.92617e-15 0)
(3 2.63518e-15 0)
(3 2.59779e-15 0)
(3 1.38233e-15 0)
(3 -8.2393e-16 0)
(3 -2.03687e-15 0)
(3 -3.28169e-15 0)
(3 -2.67708e-15 0)
(3 -1.9981e-15 0)
(3 -1.83419e-15 0)
(3 -3.21072e-16 0)
(3 -1.34772e-16 0)
(3 1.76655e-16 0)
(3 -9.6038e-16 0)
(3 1.33797e-17 0)
(3 6.98571e-17 0)
(3 -8.56701e-17 0)
(3 -1.06115e-16 0)
(3 9.96139e-17 0)
(3 3.74646e-16 0)
(3 8.94472e-16 0)
(3 1.12334e-15 0)
(3 1.26795e-15 0)
(3 1.76157e-15 0)
(3 1.95939e-15 0)
(3 1.86177e-15 0)
(3 1.62336e-15 0)
(3 1.56605e-15 0)
(3 2.13207e-15 0)
(3 2.93332e-15 0)
(3 2.62393e-15 0)
(3 2.4711e-15 0)
(3 1.96378e-15 0)
(3 1.5873e-15 0)
(3 1.17704e-15 0)
(3 6.88104e-17 0)
(3 2.94965e-17 0)
(3 -1.53415e-16 0)
(3 -1.02285e-16 0)
(3 1.17994e-16 0)
(3 2.64462e-16 0)
(3 4.20414e-16 0)
(3 7.29229e-16 0)
(3 4.94848e-16 0)
(3 3.88714e-16 0)
(3 1.13832e-15 0)
(3 1.26124e-15 0)
(3 5.09619e-16 0)
(3 -1.1176e-15 0)
(3 -1.69431e-15 0)
(3 -1.41845e-15 0)
(3 -6.811e-16 0)
(3 -4.71176e-16 0)
(3 1.22154e-16 0)
(3 4.40588e-16 0)
(3 9.96315e-16 0)
(3 4.58302e-16 0)
(3 -4.23462e-16 0)
(3 -8.67269e-16 0)
(3 -1.62949e-15 0)
(3 -1.71185e-15 0)
(3 -7.11383e-16 0)
(3 7.55003e-16 0)
(3 1.33537e-15 0)
(3 9.39082e-16 0)
(3 9.59525e-16 0)
(3 4.47665e-16 0)
(3 4.0994e-16 0)
(3 3.89016e-16 0)
(3 6.54925e-16 0)
(3 7.95708e-16 0)
(3 7.15916e-16 0)
(3 7.32681e-16 0)
(3 6.68491e-16 0)
(3 9.90339e-16 0)
(3 9.61227e-16 0)
(3 1.23189e-15 0)
(3 1.59451e-15 0)
(3 1.41112e-15 0)
(3 9.31467e-16 0)
(3 1.02511e-15 0)
(3 2.50189e-16 0)
(3 -2.14187e-16 0)
(3 -1.63186e-16 0)
(3 4.51751e-17 0)
(3 1.08855e-16 0)
(3 -2.56333e-16 0)
(3 -6.84738e-16 0)
(3 -1.3085e-15 0)
(3 -1.12498e-15 0)
(3 -7.13189e-16 0)
(3 5.10882e-16 0)
(3 2.26909e-15 0)
(3 3.22167e-15 0)
(3 3.6022e-15 0)
(3 3.4646e-15 0)
(3 3.08529e-15 0)
(3 2.93391e-15 0)
(3 2.7773e-15 0)
(3 2.26733e-15 0)
(3 9.1092e-16 0)
(3 -6.64623e-16 0)
(3 -1.78097e-15 0)
(3 -2.1936e-15 0)
(3 -1.51991e-15 0)
(3 -3.27944e-16 0)
(3 5.04838e-16 0)
(3 3.50819e-16 0)
(3 -5.43054e-16 0)
(3 -8.61954e-16 0)
(3 -1.12424e-16 0)
(3 -8.64431e-17 0)
(3 6.45615e-17 0)
(3 -2.39454e-16 0)
(3 1.56038e-16 0)
(3 2.41319e-16 0)
(3 2.00634e-16 0)
(3 9.66496e-17 0)
(3 1.0247e-15 0)
(3 1.6376e-15 0)
(3 2.08318e-15 0)
(3 1.35587e-15 0)
(3 2.44988e-16 0)
(3 -9.2392e-17 0)
(3 -9.43009e-17 0)
(3 9.67478e-16 0)
(3 1.58836e-15 0)
(3 1.55521e-15 0)
(3 1.60294e-15 0)
(3 6.24153e-16 0)
(3 4.38368e-16 0)
(3 4.83648e-17 0)
(3 -8.73e-16 0)
(3 -1.14832e-15 0)
(3 -8.90282e-17 0)
(3 1.90423e-15 0)
(3 2.81409e-15 0)
(3 2.56981e-15 0)
(3 1.9491e-15 0)
(3 1.32051e-15 0)
(3 1.37964e-15 0)
(3 2.27562e-15 0)
(3 2.13298e-15 0)
(3 7.61283e-16 0)
(3 1.11945e-16 0)
(3 1.08615e-16 0)
(3 1.0695e-15 0)
(3 1.71324e-15 0)
(3 1.41414e-15 0)
(3 1.50677e-15 0)
(3 1.72032e-15 0)
(3 1.81597e-15 0)
(3 1.61322e-15 0)
(3 1.06651e-15 0)
(3 -2.53103e-16 0)
(3 -6.86107e-16 0)
(3 -1.17119e-15 0)
(3 -1.35208e-15 0)
(3 -1.36196e-15 0)
(3 8.25266e-18 0)
(3 1.64599e-15 0)
(3 2.73145e-15 0)
(3 2.88228e-15 0)
(3 2.23826e-15 0)
(3 1.72031e-15 0)
(3 1.38958e-15 0)
(3 1.75453e-15 0)
(3 2.09008e-15 0)
(3 1.0124e-15 0)
(3 5.77348e-16 0)
(3 5.9763e-16 0)
(3 9.40494e-16 0)
(3 1.53097e-15 0)
(3 1.43284e-15 0)
(3 1.55489e-15 0)
(3 1.36388e-15 0)
(3 1.18337e-15 0)
(3 5.0912e-16 0)
(3 2.43798e-16 0)
(3 1.16812e-16 0)
(3 5.23708e-16 0)
(3 4.42932e-16 0)
(3 6.04424e-16 0)
(3 -3.41721e-16 0)
(3 -7.31757e-16 0)
(3 -6.57765e-16 0)
(3 -1.34668e-16 0)
(3 6.60103e-16 0)
(3 2.01547e-15 0)
(3 2.2971e-15 0)
(3 1.75691e-15 0)
(3 1.65905e-15 0)
(3 1.9879e-15 0)
(3 2.0817e-15 0)
(3 2.55544e-15 0)
(3 2.62782e-15 0)
(3 1.98425e-15 0)
(3 1.87246e-17 0)
(3 -1.06166e-15 0)
(3 -1.32076e-15 0)
(3 -1.22586e-15 0)
(3 -7.58952e-16 0)
(3 -6.8162e-16 0)
(3 -9.53236e-16 0)
(3 -1.50058e-15 0)
(3 -1.65914e-15 0)
(3 1.17765e-16 0)
(3 2.33849e-16 0)
(3 4.65337e-16 0)
(3 2.09265e-16 0)
(3 -2.21208e-16 0)
(3 -7.5821e-17 0)
(3 1.82061e-16 0)
(3 3.65686e-16 0)
(3 4.86219e-16 0)
(3 9.37857e-16 0)
(3 1.94095e-15 0)
(3 1.65639e-16 0)
(3 -5.57359e-16 0)
(3 -5.87295e-16 0)
(3 -2.84385e-16 0)
(3 -1.05337e-17 0)
(3 7.31121e-16 0)
(3 2.34896e-15 0)
(3 2.41779e-15 0)
(3 1.31014e-15 0)
(3 2.31114e-16 0)
(3 3.52297e-16 0)
(3 -2.49109e-16 0)
(3 1.40804e-17 0)
(3 1.33085e-15 0)
(3 2.41126e-15 0)
(3 3.5823e-15 0)
(3 2.86984e-15 0)
(3 1.43568e-15 0)
(3 7.97376e-16 0)
(3 7.06651e-16 0)
(3 6.64818e-16 0)
(3 3.96611e-16 0)
(3 1.7342e-15 0)
(3 2.11368e-15 0)
(3 2.64446e-15 0)
(3 2.77784e-15 0)
(3 2.11608e-15 0)
(3 1.58926e-15 0)
(3 1.614e-15 0)
(3 1.55019e-15 0)
(3 1.25122e-15 0)
(3 1.40785e-15 0)
(3 1.06572e-15 0)
(3 1.38076e-15 0)
(3 1.80101e-15 0)
(3 1.72629e-15 0)
(3 5.86469e-16 0)
(3 -1.14771e-15 0)
(3 -9.20058e-16 0)
(3 1.93754e-15 0)
(3 3.75089e-15 0)
(3 4.20115e-15 0)
(3 3.02496e-15 0)
(3 2.1507e-15 0)
(3 1.96112e-15 0)
(3 2.00352e-15 0)
(3 2.28423e-15 0)
(3 1.93771e-15 0)
(3 7.56416e-16 0)
(3 4.91888e-16 0)
(3 1.39987e-15 0)
(3 2.37076e-15 0)
(3 2.41549e-15 0)
(3 2.15483e-15 0)
(3 2.21798e-15 0)
(3 2.18832e-15 0)
(3 2.36077e-15 0)
(3 2.39167e-15 0)
(3 1.64231e-15 0)
(3 1.07127e-15 0)
(3 8.63623e-16 0)
(3 1.57265e-15 0)
(3 1.54574e-15 0)
(3 1.24646e-15 0)
(3 1.0028e-15 0)
(3 3.30135e-16 0)
(3 4.96917e-16 0)
(3 3.71962e-16 0)
(3 -1.34343e-16 0)
(3 1.81528e-16 0)
(3 9.82149e-16 0)
(3 1.24353e-15 0)
(3 1.19383e-15 0)
(3 1.72641e-15 0)
(3 2.56504e-15 0)
(3 2.32016e-15 0)
(3 1.38888e-15 0)
(3 5.62525e-16 0)
(3 1.6608e-16 0)
(3 1.8276e-16 0)
(3 7.75945e-17 0)
(3 3.18663e-17 0)
(3 -2.10562e-16 0)
(3 -9.61188e-16 0)
(3 -1.64874e-15 0)
(3 -6.36321e-20 0)
(3 1.23111e-16 0)
(3 4.36298e-16 0)
(3 4.80827e-16 0)
(3 -4.27345e-16 0)
(3 -1.08922e-15 0)
(3 -7.66538e-16 0)
(3 -3.95589e-16 0)
(3 -8.32002e-16 0)
(3 -1.31632e-15 0)
(3 -6.66914e-16 0)
(3 -9.0712e-17 0)
(3 -6.48319e-16 0)
(3 -8.71718e-16 0)
(3 -8.8693e-16 0)
(3 -1.59983e-15 0)
(3 -1.909e-15 0)
(3 -6.57374e-16 0)
(3 1.53302e-16 0)
(3 3.64126e-19 0)
(3 -8.59611e-16 0)
(3 8.74076e-16 0)
(3 1.43019e-15 0)
(3 2.22374e-15 0)
(3 1.79315e-15 0)
(3 1.50626e-15 0)
(3 1.54491e-15 0)
(3 1.43703e-15 0)
(3 1.76227e-15 0)
(3 1.10624e-15 0)
(3 -5.14616e-16 0)
(3 -1.28661e-15 0)
(3 -8.98321e-16 0)
(3 1.32114e-15 0)
(3 2.13048e-15 0)
(3 3.13269e-15 0)
(3 3.1349e-15 0)
(3 2.08204e-15 0)
(3 1.4313e-15 0)
(3 6.23284e-16 0)
(3 6.75912e-16 0)
(3 8.14545e-16 0)
(3 8.3395e-16 0)
(3 1.42871e-15 0)
(3 1.86662e-15 0)
(3 2.06881e-15 0)
(3 2.23955e-15 0)
(3 2.08683e-15 0)
(3 1.62997e-15 0)
(3 1.35961e-15 0)
(3 1.7029e-15 0)
(3 3.00602e-15 0)
(3 3.43989e-15 0)
(3 3.2317e-15 0)
(3 3.187e-15 0)
(3 3.2628e-15 0)
(3 3.58049e-15 0)
(3 3.58998e-15 0)
(3 3.67525e-15 0)
(3 3.31766e-15 0)
(3 2.37049e-15 0)
(3 2.38202e-15 0)
(3 2.73658e-15 0)
(3 2.06987e-15 0)
(3 1.85632e-15 0)
(3 1.29143e-15 0)
(3 6.61192e-16 0)
(3 8.71815e-16 0)
(3 1.3957e-15 0)
(3 2.03319e-15 0)
(3 1.55299e-15 0)
(3 1.66977e-15 0)
(3 2.26904e-15 0)
(3 2.46945e-15 0)
(3 1.51872e-15 0)
(3 4.05535e-16 0)
(3 -6.78044e-16 0)
(3 -1.39085e-15 0)
(3 -1.36159e-15 0)
(3 -9.08951e-16 0)
(3 6.67369e-16 0)
(3 1.21449e-15 0)
(3 2.23884e-15 0)
(3 2.92216e-15 0)
(3 2.52868e-15 0)
(3 3.07054e-15 0)
(3 2.98357e-15 0)
(3 2.82043e-15 0)
(3 2.13453e-15 0)
(3 6.6663e-16 0)
(3 4.37542e-17 0)
(3 -4.09709e-16 0)
(3 -5.33765e-16 0)
(3 -8.48191e-16 0)
(3 -1.01937e-15 0)
(3 -8.9853e-16 0)
(3 -2.09871e-16 0)
(3 -6.21394e-16 0)
(3 -1.31864e-16 0)
(3 8.44865e-17 0)
(3 4.96461e-16 0)
(3 -1.36657e-16 0)
(3 -8.61406e-16 0)
(3 -1.16033e-15 0)
(3 -2.07974e-15 0)
(3 -2.84959e-15 0)
(3 -3.04243e-15 0)
(3 -1.91244e-15 0)
(3 -5.05043e-16 0)
(3 -1.27659e-15 0)
(3 -1.48144e-15 0)
(3 -1.33097e-15 0)
(3 -1.68005e-15 0)
(3 -2.59863e-15 0)
(3 -1.74509e-15 0)
(3 -1.39383e-15 0)
(3 -6.93926e-16 0)
(3 1.03178e-15 0)
(3 1.41062e-15 0)
(3 1.0391e-15 0)
(3 3.19939e-16 0)
(3 -6.52078e-16 0)
(3 -8.11766e-16 0)
(3 1.06078e-16 0)
(3 1.29077e-15 0)
(3 1.62294e-15 0)
(3 1.14046e-15 0)
(3 5.81435e-16 0)
(3 2.56224e-16 0)
(3 7.45087e-16 0)
(3 1.65062e-15 0)
(3 2.25876e-15 0)
(3 2.2521e-15 0)
(3 1.80121e-15 0)
(3 1.32833e-15 0)
(3 6.17942e-16 0)
(3 1.26801e-15 0)
(3 1.01271e-15 0)
(3 5.00353e-16 0)
(3 6.71986e-16 0)
(3 9.08101e-16 0)
(3 2.69917e-16 0)
(3 8.99585e-16 0)
(3 1.93663e-15 0)
(3 2.16682e-15 0)
(3 1.82239e-15 0)
(3 1.55971e-15 0)
(3 1.50727e-15 0)
(3 1.22999e-15 0)
(3 3.20865e-15 0)
(3 4.29345e-15 0)
(3 4.26842e-15 0)
(3 4.08666e-15 0)
(3 3.97632e-15 0)
(3 4.41001e-15 0)
(3 4.83056e-15 0)
(3 3.52779e-15 0)
(3 2.36635e-15 0)
(3 1.94824e-15 0)
(3 6.8139e-16 0)
(3 -8.00745e-17 0)
(3 1.01051e-16 0)
(3 2.69618e-16 0)
(3 3.51423e-16 0)
(3 9.14163e-16 0)
(3 1.16336e-15 0)
(3 1.44872e-15 0)
(3 1.86972e-15 0)
(3 2.01674e-15 0)
(3 2.22638e-15 0)
(3 1.31841e-15 0)
(3 -3.25172e-16 0)
(3 -6.78431e-16 0)
(3 -4.86936e-16 0)
(3 -2.01713e-16 0)
(3 1.1023e-15 0)
(3 1.65043e-15 0)
(3 1.88064e-15 0)
(3 2.34191e-15 0)
(3 4.54521e-15 0)
(3 4.08066e-15 0)
(3 4.0168e-15 0)
(3 4.13405e-15 0)
(3 4.37829e-15 0)
(3 3.69222e-15 0)
(3 1.82889e-15 0)
(3 -2.97869e-16 0)
(3 -1.17037e-15 0)
(3 -1.69107e-15 0)
(3 -1.67945e-15 0)
(3 -1.37876e-15 0)
(3 -8.65404e-16 0)
(3 8.70876e-17 0)
(3 -4.33703e-16 0)
(3 -8.65984e-16 0)
(3 -7.06684e-16 0)
(3 1.45012e-16 0)
(3 4.17719e-16 0)
(3 2.89422e-16 0)
(3 -3.19373e-16 0)
(3 -1.22393e-15 0)
(3 -2.20303e-15 0)
(3 -2.44809e-15 0)
(3 -2.39499e-15 0)
(3 -2.15069e-15 0)
(3 -2.6235e-15 0)
(3 -2.98639e-15 0)
(3 -3.51438e-15 0)
(3 -3.5477e-15 0)
(3 -3.4535e-15 0)
(3 -2.32859e-15 0)
(3 -1.56683e-15 0)
(3 -1.15262e-15 0)
(3 -9.49387e-16 0)
(3 -9.36222e-16 0)
(3 -2.39489e-15 0)
(3 -2.16669e-15 0)
(3 -2.30859e-15 0)
(3 -2.52121e-15 0)
(3 -1.92602e-15 0)
(3 -1.14749e-15 0)
(3 -7.36996e-16 0)
(3 -9.4316e-17 0)
(3 1.9489e-16 0)
(3 6.31989e-17 0)
(3 3.73521e-16 0)
(3 6.22096e-16 0)
(3 8.59288e-16 0)
(3 1.06893e-15 0)
(3 9.88972e-16 0)
(3 9.13451e-16 0)
(3 1.14153e-15 0)
(3 2.14835e-15 0)
(3 1.8265e-15 0)
(3 1.67044e-15 0)
(3 1.23722e-15 0)
(3 5.72974e-16 0)
(3 5.64484e-16 0)
(3 8.80599e-16 0)
(3 1.3034e-15 0)
(3 1.60281e-15 0)
(3 1.98386e-15 0)
(3 1.82286e-15 0)
(3 9.12308e-16 0)
(3 1.05108e-15 0)
(3 1.53153e-15 0)
(3 2.39438e-15 0)
(3 2.43479e-15 0)
(3 1.84665e-15 0)
(3 1.86166e-15 0)
(3 2.46846e-15 0)
(3 3.17602e-15 0)
(3 2.78409e-15 0)
(3 1.98817e-15 0)
(3 1.26492e-15 0)
(3 -3.29284e-16 0)
(3 -1.08396e-15 0)
(3 -1.04923e-15 0)
(3 1.95844e-17 0)
(3 5.80849e-16 0)
(3 4.51527e-16 0)
(3 7.5032e-16 0)
(3 2.13408e-15 0)
(3 3.0074e-15 0)
(3 2.86841e-15 0)
(3 3.07309e-15 0)
(3 2.45268e-15 0)
(3 1.10224e-15 0)
(3 1.84378e-16 0)
(3 9.40124e-18 0)
(3 1.25171e-15 0)
(3 2.43704e-15 0)
(3 2.23572e-15 0)
(3 2.54533e-15 0)
(3 3.7988e-15 0)
(3 4.79864e-15 0)
(3 4.69187e-15 0)
(3 4.44318e-15 0)
(3 4.46002e-15 0)
(3 4.63845e-15 0)
(3 4.00643e-15 0)
(3 2.03486e-15 0)
(3 -1.78503e-16 0)
(3 -1.00056e-15 0)
(3 -1.51029e-15 0)
(3 -1.54233e-15 0)
(3 -1.42607e-15 0)
(3 -1.76031e-16 0)
(3 9.10828e-18 0)
(3 -2.37397e-16 0)
(3 -5.51299e-16 0)
(3 -3.9912e-16 0)
(3 -4.04848e-16 0)
(3 -3.4343e-16 0)
(3 -3.02393e-16 0)
(3 -4.39023e-16 0)
(3 -8.46024e-16 0)
(3 -1.2809e-15 0)
(3 -1.48092e-15 0)
(3 -1.9839e-15 0)
(3 -2.31122e-15 0)
(3 -2.01947e-15 0)
(3 -1.98224e-15 0)
(3 -3.19135e-15 0)
(3 -3.67918e-15 0)
(3 -3.46592e-15 0)
(3 -2.92691e-15 0)
(3 -1.73279e-15 0)
(3 -1.1078e-15 0)
(3 -1.08882e-15 0)
(3 -1.25774e-15 0)
(3 -1.09078e-15 0)
(3 -1.06765e-15 0)
(3 -1.44759e-15 0)
(3 -1.72648e-15 0)
(3 -1.59872e-15 0)
(3 -1.32141e-15 0)
(3 -9.22588e-16 0)
(3 -7.49783e-17 0)
(3 5.36416e-16 0)
(3 3.6979e-16 0)
(3 -2.62394e-16 0)
(3 -1.88361e-16 0)
(3 2.36022e-16 0)
(3 1.62862e-16 0)
(3 5.3236e-16 0)
(3 6.66811e-16 0)
(3 1.0574e-15 0)
(3 1.1634e-15 0)
(3 1.2227e-15 0)
(3 1.6715e-15 0)
(3 1.31578e-15 0)
(3 7.50606e-16 0)
(3 9.24612e-16 0)
(3 3.69591e-16 0)
(3 -1.91267e-16 0)
(3 -1.73487e-16 0)
(3 6.45057e-17 0)
(3 -9.92173e-16 0)
(3 -1.61728e-15 0)
(3 -1.2328e-15 0)
(3 -1.2676e-15 0)
(3 -6.32449e-16 0)
(3 -7.73109e-17 0)
(3 -7.4128e-17 0)
(3 7.91291e-16 0)
(3 1.82205e-15 0)
(3 1.5395e-15 0)
(3 1.02866e-15 0)
(3 6.57876e-16 0)
(3 6.1738e-18 0)
(3 -6.72223e-16 0)
(3 -2.07074e-15 0)
(3 -2.16302e-15 0)
(3 -2.39368e-15 0)
(3 -1.35719e-15 0)
(3 -7.58994e-16 0)
(3 4.66992e-16 0)
(3 1.93265e-15 0)
(3 1.91491e-15 0)
(3 1.75945e-15 0)
(3 1.68041e-15 0)
(3 1.70956e-15 0)
(3 1.5975e-15 0)
(3 1.16113e-15 0)
(3 1.3156e-15 0)
(3 2.32492e-15 0)
(3 3.18521e-15 0)
(3 3.21362e-15 0)
(3 3.40571e-15 0)
(3 4.49972e-15 0)
(3 3.88822e-15 0)
(3 2.38809e-15 0)
(3 3.39186e-15 0)
(3 3.45582e-15 0)
(3 3.07405e-15 0)
(3 2.43677e-15 0)
(3 1.9085e-15 0)
(3 9.50026e-16 0)
(3 -2.69246e-17 0)
(3 4.60403e-17 0)
(3 -1.34724e-16 0)
(3 -2.01028e-17 0)
(3 1.53749e-16 0)
(3 -4.13664e-16 0)
(3 1.40674e-16 0)
(3 4.34814e-16 0)
(3 1.82322e-16 0)
(3 -7.20521e-16 0)
(3 -1.05883e-15 0)
(3 -1.29075e-15 0)
(3 -1.26258e-15 0)
(3 -9.23327e-16 0)
(3 -5.35093e-16 0)
(3 -5.70087e-16 0)
(3 -1.26266e-15 0)
(3 -1.73582e-15 0)
(3 -1.4323e-15 0)
(3 -1.33278e-15 0)
(3 -1.53189e-15 0)
(3 -1.10688e-15 0)
(3 -8.03744e-16 0)
(3 -9.64965e-16 0)
(3 -7.77553e-16 0)
(3 -5.13738e-16 0)
(3 -4.3334e-16 0)
(3 -5.63611e-16 0)
(3 -5.64166e-16 0)
(3 -4.59716e-16 0)
(3 -7.27874e-18 0)
(3 4.39986e-16 0)
(3 -4.34577e-16 0)
(3 -7.05312e-16 0)
(3 -1.63093e-16 0)
(3 7.70884e-16 0)
(3 1.53774e-15 0)
(3 1.75493e-15 0)
(3 2.25093e-15 0)
(3 1.99639e-15 0)
(3 1.20779e-15 0)
(3 5.75028e-17 0)
(3 -5.51557e-16 0)
(3 -4.05485e-16 0)
(3 -6.10702e-17 0)
(3 -1.80341e-16 0)
(3 4.89309e-16 0)
(3 1.24453e-15 0)
(3 1.41684e-15 0)
(3 1.47126e-15 0)
(3 1.06162e-15 0)
(3 8.63596e-16 0)
(3 -6.52833e-16 0)
(3 -1.52113e-15 0)
(3 -2.54e-15 0)
(3 -2.80164e-15 0)
(3 -2.25855e-15 0)
(3 -2.15254e-15 0)
(3 -1.6005e-15 0)
(3 -1.4173e-15 0)
(3 -8.39468e-16 0)
(3 -3.4288e-16 0)
(3 2.25133e-17 0)
(3 3.149e-16 0)
(3 5.01614e-16 0)
(3 5.01138e-16 0)
(3 4.59999e-16 0)
(3 3.88732e-16 0)
(3 1.66042e-16 0)
(3 -3.8137e-16 0)
(3 -1.24257e-15 0)
(3 -1.76261e-15 0)
(3 -1.8646e-15 0)
(3 -8.92209e-17 0)
(3 5.20128e-16 0)
(3 -7.54292e-18 0)
(3 -1.04639e-15 0)
(3 -1.57587e-15 0)
(3 -7.46102e-16 0)
(3 9.75626e-16 0)
(3 2.63571e-15 0)
(3 3.13911e-15 0)
(3 3.51582e-15 0)
(3 3.83909e-15 0)
(3 3.64047e-15 0)
(3 3.33188e-15 0)
(3 3.85507e-15 0)
(3 3.92307e-15 0)
(3 3.50978e-15 0)
(3 3.71802e-15 0)
(3 4.87484e-15 0)
(3 5.42331e-15 0)
(3 3.9172e-15 0)
(3 2.13283e-15 0)
(3 2.12958e-15 0)
(3 2.57457e-15 0)
(3 1.41045e-15 0)
(3 1.27262e-15 0)
(3 1.68446e-15 0)
(3 1.49509e-15 0)
(3 3.61812e-17 0)
(3 -9.8551e-17 0)
(3 1.11103e-15 0)
(3 1.42208e-15 0)
(3 1.23019e-15 0)
(3 7.05057e-16 0)
(3 1.01799e-16 0)
(3 6.68109e-17 0)
(3 2.80039e-16 0)
(3 9.05854e-16 0)
(3 8.61868e-16 0)
(3 2.75881e-16 0)
(3 1.24197e-16 0)
(3 5.55295e-17 0)
(3 -2.65324e-16 0)
(3 -1.10333e-16 0)
(3 2.58155e-16 0)
(3 -2.67306e-16 0)
(3 -1.32535e-15 0)
(3 -1.90321e-15 0)
(3 -1.45833e-15 0)
(3 -7.36779e-16 0)
(3 -3.69687e-16 0)
(3 -8.7579e-16 0)
(3 -1.1149e-15 0)
(3 -4.08311e-16 0)
(3 3.4148e-16 0)
(3 3.84246e-16 0)
(3 1.88549e-16 0)
(3 3.62665e-16 0)
(3 1.29755e-15 0)
(3 1.19882e-15 0)
(3 1.0497e-15 0)
(3 1.93091e-15 0)
(3 2.18831e-15 0)
(3 1.41048e-15 0)
(3 7.71408e-16 0)
(3 1.18932e-16 0)
(3 -3.92354e-16 0)
(3 -7.24755e-16 0)
(3 -8.51756e-16 0)
(3 -6.19854e-16 0)
(3 2.01011e-16 0)
(3 -7.94527e-17 0)
(3 2.1996e-16 0)
(3 2.40403e-16 0)
(3 9.10109e-17 0)
(3 3.20055e-16 0)
(3 2.85611e-16 0)
(3 4.23254e-16 0)
(3 -1.1166e-15 0)
(3 -1.9663e-15 0)
(3 -1.68069e-15 0)
(3 -1.64493e-15 0)
(3 -1.57437e-15 0)
(3 -1.09294e-15 0)
(3 1.8692e-16 0)
(3 8.83927e-16 0)
(3 6.40456e-16 0)
(3 7.10108e-16 0)
(3 1.34583e-15 0)
(3 1.53612e-15 0)
(3 3.25738e-16 0)
(3 -3.99989e-18 0)
(3 -2.95579e-16 0)
(3 -8.38447e-16 0)
(3 -1.57515e-15 0)
(3 -1.35071e-15 0)
(3 -1.1597e-15 0)
(3 -1.32021e-15 0)
(3 -1.22344e-15 0)
(3 -6.27891e-16 0)
(3 -9.00479e-17 0)
(3 1.39819e-15 0)
(3 2.56944e-15 0)
(3 2.68637e-15 0)
(3 3.12184e-15 0)
(3 3.58879e-15 0)
(3 3.26504e-15 0)
(3 2.87854e-15 0)
(3 3.19587e-15 0)
(3 3.71988e-15 0)
(3 4.22929e-15 0)
(3 3.48859e-15 0)
(3 3.46753e-15 0)
(3 4.50623e-15 0)
(3 4.15308e-15 0)
(3 3.44006e-15 0)
(3 2.59017e-15 0)
(3 1.03232e-15 0)
(3 8.72819e-16 0)
(3 1.34229e-15 0)
(3 2.1305e-15 0)
(3 1.35546e-15 0)
(3 1.31574e-15 0)
(3 6.32961e-17 0)
(3 -8.08227e-16 0)
(3 9.95503e-17 0)
(3 5.26487e-17 0)
(3 1.86816e-16 0)
(3 1.15827e-15 0)
(3 1.30551e-15 0)
(3 9.89583e-16 0)
(3 1.07318e-15 0)
(3 1.42373e-15 0)
(3 1.36375e-15 0)
(3 1.06442e-15 0)
(3 1.14683e-15 0)
(3 1.86489e-15 0)
(3 1.82605e-15 0)
(3 1.24968e-15 0)
(3 2.45842e-16 0)
(3 -1.37232e-17 0)
(3 -1.15565e-15 0)
(3 -1.62115e-15 0)
(3 -1.92788e-15 0)
(3 -1.69052e-15 0)
(3 -1.31563e-15 0)
(3 -4.05986e-16 0)
(3 -4.67491e-17 0)
(3 -3.64178e-17 0)
(3 -5.63328e-16 0)
(3 -8.33449e-16 0)
(3 -1.51715e-16 0)
(3 7.16971e-16 0)
(3 8.54432e-16 0)
(3 1.45278e-15 0)
(3 1.32991e-15 0)
(3 7.16528e-16 0)
(3 -2.68636e-16 0)
(3 -1.28386e-15 0)
(3 -1.44833e-15 0)
(3 -8.17961e-16 0)
(3 -3.04893e-16 0)
(3 3.04816e-16 0)
(3 7.04168e-16 0)
(3 5.36708e-16 0)
(3 6.20063e-16 0)
(3 4.42191e-16 0)
(3 -3.70839e-17 0)
(3 -3.4479e-16 0)
(3 -6.92513e-16 0)
(3 -6.48057e-16 0)
(3 1.56539e-17 0)
(3 5.25017e-16 0)
(3 9.36061e-16 0)
(3 1.72392e-16 0)
(3 -1.05439e-15 0)
(3 -1.21504e-15 0)
(3 -9.49466e-16 0)
(3 -9.30442e-16 0)
(3 -6.23019e-16 0)
(3 -5.97289e-16 0)
(3 -7.11028e-16 0)
(3 1.23218e-17 0)
(3 4.87016e-16 0)
(3 1.25837e-15 0)
(3 1.67619e-15 0)
(3 8.11989e-17 0)
(3 -4.2283e-16 0)
(3 -3.05902e-16 0)
(3 -1.02408e-15 0)
(3 -1.94855e-15 0)
(3 -1.95235e-15 0)
(3 -1.47955e-15 0)
(3 -2.19723e-15 0)
(3 -1.78997e-15 0)
(3 -1.14759e-15 0)
(3 1.16685e-16 0)
(3 8.79034e-16 0)
(3 4.3051e-16 0)
(3 1.51016e-16 0)
(3 6.0825e-16 0)
(3 1.12658e-15 0)
(3 4.86161e-16 0)
(3 -2.51023e-16 0)
(3 1.2176e-15 0)
(3 1.71472e-15 0)
(3 1.51393e-15 0)
(3 1.21234e-15 0)
(3 1.44837e-15 0)
(3 1.16044e-15 0)
(3 -9.88963e-17 0)
(3 -1.43692e-15 0)
(3 -8.63726e-16 0)
(3 -3.5016e-16 0)
(3 1.0411e-16 0)
(3 9.32595e-16 0)
(3 1.49018e-15 0)
(3 9.87668e-16 0)
(3 5.02445e-16 0)
(3 7.15639e-16 0)
(3 5.53368e-16 0)
(3 6.91131e-17 0)
(3 -1.86716e-16 0)
(3 -6.51506e-16 0)
(3 -8.31807e-16 0)
(3 -1.23291e-17 0)
(3 5.38636e-16 0)
(3 6.27321e-16 0)
(3 2.93417e-16 0)
(3 2.84817e-16 0)
(3 7.31695e-16 0)
(3 1.46093e-15 0)
(3 1.46732e-15 0)
(3 8.10374e-16 0)
(3 3.73423e-16 0)
(3 -6.52521e-16 0)
(3 -1.86299e-15 0)
(3 -1.4598e-15 0)
(3 -1.2874e-15 0)
(3 -9.38894e-16 0)
(3 -1.15254e-15 0)
(3 -6.53349e-16 0)
(3 -2.93741e-16 0)
(3 9.22493e-16 0)
(3 1.32054e-15 0)
(3 6.98452e-16 0)
(3 5.7441e-16 0)
(3 8.75733e-16 0)
(3 1.23795e-15 0)
(3 1.06839e-15 0)
(3 6.02926e-16 0)
(3 4.56128e-16 0)
(3 -7.39437e-16 0)
(3 -1.45036e-15 0)
(3 -2.39225e-15 0)
(3 -2.29794e-15 0)
(3 -2.07216e-15 0)
(3 -1.49264e-15 0)
(3 -4.58614e-16 0)
(3 2.97895e-16 0)
(3 5.2439e-16 0)
(3 -2.39648e-16 0)
(3 -7.22186e-16 0)
(3 -5.17892e-16 0)
(3 -4.82071e-16 0)
(3 -1.07737e-15 0)
(3 -1.1382e-15 0)
(3 -1.17865e-15 0)
(3 -1.12438e-16 0)
(3 2.20932e-16 0)
(3 4.21481e-16 0)
(3 2.99155e-16 0)
(3 4.91246e-16 0)
(3 1.20555e-15 0)
(3 1.27403e-15 0)
(3 1.39223e-15 0)
(3 7.11862e-16 0)
(3 -1.60381e-16 0)
(3 -1.56979e-16 0)
(3 2.74613e-16 0)
(3 7.73648e-16 0)
(3 7.00605e-16 0)
(3 1.43826e-16 0)
(3 -1.23761e-16 0)
(3 4.63335e-16 0)
(3 -4.70282e-16 0)
(3 -6.14535e-16 0)
(3 -1.69405e-15 0)
(3 -2.16538e-15 0)
(3 -3.05797e-15 0)
(3 -2.26335e-15 0)
(3 -5.42258e-16 0)
(3 -3.71163e-16 0)
(3 -1.23534e-15 0)
(3 -1.27429e-15 0)
(3 -2.9761e-16 0)
(3 -9.66192e-16 0)
(3 -2.55851e-16 0)
(3 -3.82535e-16 0)
(3 -5.73863e-16 0)
(3 -8.77261e-16 0)
(3 -1.30114e-15 0)
(3 -1.6163e-15 0)
(3 -3.14645e-16 0)
(3 -1.27304e-17 0)
(3 -8.71568e-16 0)
(3 -3.18267e-15 0)
(3 -3.54597e-15 0)
(3 -1.06507e-15 0)
(3 4.23675e-16 0)
(3 1.49504e-15 0)
(3 1.99882e-15 0)
(3 1.79118e-15 0)
(3 1.69914e-15 0)
(3 2.02225e-15 0)
(3 2.32781e-15 0)
(3 2.8282e-15 0)
(3 1.18493e-16 0)
(3 2.93028e-16 0)
(3 -3.41046e-17 0)
(3 -5.98103e-16 0)
(3 -4.7686e-16 0)
(3 2.54363e-16 0)
(3 5.64087e-16 0)
(3 3.25348e-16 0)
(3 -7.2487e-18 0)
(3 3.03561e-16 0)
(3 7.32059e-16 0)
(3 4.63726e-16 0)
(3 5.58658e-16 0)
(3 5.05551e-16 0)
(3 2.65153e-16 0)
(3 4.22658e-16 0)
(3 5.93051e-16 0)
(3 4.49245e-16 0)
(3 3.3123e-16 0)
(3 1.79247e-16 0)
(3 3.87748e-16 0)
(3 3.88028e-16 0)
(3 1.10706e-15 0)
(3 1.67037e-15 0)
(3 1.61368e-15 0)
(3 1.99538e-15 0)
(3 2.42348e-15 0)
(3 2.00477e-15 0)
(3 1.48749e-15 0)
(3 7.54583e-16 0)
(3 -5.27837e-16 0)
(3 -1.84335e-15 0)
(3 -2.63994e-15 0)
(3 -2.35837e-15 0)
(3 -1.31688e-15 0)
(3 -7.70673e-16 0)
(3 -9.57913e-16 0)
(3 -8.02857e-16 0)
(3 -4.34882e-16 0)
(3 -1.4874e-16 0)
(3 -2.87472e-16 0)
(3 -8.24199e-16 0)
(3 -1.36311e-15 0)
(3 -1.13304e-15 0)
(3 -9.63424e-16 0)
(3 -1.37353e-15 0)
(3 -1.66737e-15 0)
(3 -1.40134e-15 0)
(3 -7.61033e-16 0)
(3 2.71809e-16 0)
(3 8.05662e-16 0)
(3 1.00164e-15 0)
(3 1.48833e-15 0)
(3 1.67852e-15 0)
(3 1.73374e-15 0)
(3 1.77928e-15 0)
(3 1.39043e-15 0)
(3 9.43593e-16 0)
(3 5.91607e-16 0)
(3 -3.11351e-16 0)
(3 -1.334e-15 0)
(3 7.21262e-16 0)
(3 8.25631e-16 0)
(3 7.31844e-16 0)
(3 6.50907e-16 0)
(3 7.5821e-16 0)
(3 -8.52592e-16 0)
(3 -2.67632e-15 0)
(3 -3.09971e-15 0)
(3 -2.73538e-15 0)
(3 -2.57682e-15 0)
(3 -2.21237e-15 0)
(3 -2.18259e-15 0)
(3 -8.25177e-16 0)
(3 2.30494e-16 0)
(3 1.19771e-15 0)
(3 1.64152e-15 0)
(3 5.3917e-16 0)
(3 -1.39047e-16 0)
(3 -1.70352e-15 0)
(3 -2.25516e-15 0)
(3 -1.93982e-15 0)
(3 -8.41375e-16 0)
(3 1.31166e-15 0)
(3 4.40318e-16 0)
(3 -1.9881e-15 0)
(3 -1.63477e-15 0)
(3 8.07491e-16 0)
(3 2.21199e-15 0)
(3 2.54749e-15 0)
(3 1.98395e-15 0)
(3 1.89408e-15 0)
(3 1.53228e-15 0)
(3 1.42147e-15 0)
(3 1.15772e-15 0)
(3 6.69295e-16 0)
(3 -2.53165e-17 0)
(3 1.26911e-17 0)
(3 2.82334e-16 0)
(3 4.77241e-16 0)
(3 3.16739e-16 0)
(3 3.18251e-16 0)
(3 2.88545e-16 0)
(3 4.51961e-16 0)
(3 8.00006e-16 0)
(3 8.75053e-16 0)
(3 7.36228e-16 0)
(3 6.619e-16 0)
(3 1.28664e-15 0)
(3 2.2549e-15 0)
(3 2.9335e-15 0)
(3 2.89774e-15 0)
(3 2.68854e-15 0)
(3 2.57685e-15 0)
(3 2.40154e-15 0)
(3 2.50006e-15 0)
(3 2.09538e-15 0)
(3 1.26011e-15 0)
(3 8.46484e-16 0)
(3 9.66217e-16 0)
(3 7.75588e-16 0)
(3 5.27156e-16 0)
(3 9.90779e-16 0)
(3 8.22888e-16 0)
(3 3.42588e-16 0)
(3 -1.83704e-16 0)
(3 -2.95565e-16 0)
(3 -1.04718e-15 0)
(3 -1.08227e-15 0)
(3 -6.69289e-16 0)
(3 5.64213e-18 0)
(3 2.90328e-16 0)
(3 3.24752e-16 0)
(3 6.07865e-16 0)
(3 4.3789e-16 0)
(3 4.44631e-16 0)
(3 3.63423e-16 0)
(3 -1.32029e-16 0)
(3 -6.98357e-16 0)
(3 -1.14667e-15 0)
(3 -9.80646e-16 0)
(3 -7.96996e-16 0)
(3 -6.76177e-16 0)
(3 -1.2582e-15 0)
(3 -1.03682e-15 0)
(3 -2.68646e-16 0)
(3 1.75435e-15 0)
(3 3.05378e-15 0)
(3 2.0969e-15 0)
(3 1.60661e-15 0)
(3 1.86277e-15 0)
(3 2.48312e-15 0)
(3 2.59475e-15 0)
(3 2.2912e-15 0)
(3 1.00334e-15 0)
(3 -9.9086e-16 0)
(3 -1.71675e-15 0)
(3 -9.30415e-16 0)
(3 1.52057e-15 0)
(3 1.61292e-15 0)
(3 1.02227e-15 0)
(3 -3.37179e-17 0)
(3 -3.07155e-16 0)
(3 -6.34153e-16 0)
(3 -1.40999e-15 0)
(3 -2.1106e-15 0)
(3 -3.03921e-15 0)
(3 -2.64303e-15 0)
(3 -2.01719e-15 0)
(3 -1.79666e-15 0)
(3 -1.53279e-15 0)
(3 -1.73394e-18 0)
(3 -8.8901e-16 0)
(3 -5.28368e-16 0)
(3 -8.43499e-16 0)
(3 -1.51722e-15 0)
(3 -2.14431e-15 0)
(3 -1.94358e-15 0)
(3 -1.11489e-15 0)
(3 6.11903e-16 0)
(3 -4.47846e-16 0)
(3 -2.90955e-15 0)
(3 -1.0945e-16 0)
(3 1.19945e-15 0)
(3 1.66686e-15 0)
(3 1.31121e-15 0)
(3 1.07302e-15 0)
(3 9.26491e-16 0)
(3 8.34942e-16 0)
(3 8.1902e-16 0)
(3 -2.84634e-16 0)
(3 -1.31782e-15 0)
(3 -2.48387e-16 0)
(3 -2.56624e-16 0)
(3 3.72522e-17 0)
(3 4.64966e-16 0)
(3 1.09422e-15 0)
(3 9.83437e-16 0)
(3 6.01605e-16 0)
(3 6.45079e-16 0)
(3 3.34829e-16 0)
(3 4.1429e-16 0)
(3 -1.10822e-16 0)
(3 -3.76586e-16 0)
(3 1.24764e-15 0)
(3 1.73655e-15 0)
(3 2.17324e-15 0)
(3 1.97685e-15 0)
(3 1.98627e-15 0)
(3 2.25661e-15 0)
(3 2.32428e-15 0)
(3 2.79e-15 0)
(3 2.0228e-15 0)
(3 1.39082e-15 0)
(3 1.53614e-16 0)
(3 4.84465e-17 0)
(3 3.5365e-16 0)
(3 5.94736e-17 0)
(3 -3.44462e-16 0)
(3 -3.56204e-16 0)
(3 -2.40051e-16 0)
(3 -2.0476e-16 0)
(3 -3.49717e-16 0)
(3 -9.57997e-16 0)
(3 -5.67188e-16 0)
(3 6.73244e-16 0)
(3 3.67935e-16 0)
(3 -1.02071e-16 0)
(3 2.84158e-16 0)
(3 8.84918e-16 0)
(3 1.32438e-15 0)
(3 1.37524e-15 0)
(3 9.36321e-16 0)
(3 7.03647e-16 0)
(3 2.28796e-16 0)
(3 5.88393e-18 0)
(3 -7.3866e-16 0)
(3 -7.40729e-16 0)
(3 -1.014e-15 0)
(3 -1.49885e-15 0)
(3 -1.76314e-15 0)
(3 -6.97882e-16 0)
(3 1.58946e-15 0)
(3 3.83388e-15 0)
(3 3.81495e-15 0)
(3 3.3724e-15 0)
(3 4.17281e-15 0)
(3 4.39006e-15 0)
(3 4.53671e-15 0)
(3 4.45125e-15 0)
(3 3.62697e-15 0)
(3 1.23952e-15 0)
(3 -4.56508e-16 0)
(3 -1.01693e-15 0)
(3 -2.52913e-16 0)
(3 7.37084e-16 0)
(3 1.29207e-16 0)
(3 -7.76658e-16 0)
(3 -1.48753e-15 0)