/*--------------------------------*- C++ -*----------------------------------*\
  =========                 |
  \\      /  F ield         | OpenFOAM: The Open Source CFD Toolbox
   \\    /   O peration     | Website:  https://openfoam.org
    \\  /    A nd           | Version:  7
     \\/     M anipulation  |
\*---------------------------------------------------------------------------*/
FoamFile
{
    version     2.0;
    format      ascii;
    class       volScalarField;
    location    "3.7";
    object      p;
}
// * * * * * * * * * * * * * * * * * * * * * * * * * * * * * * * * * * * * * //

dimensions      [1 -1 -2 0 0 0 0];

internalField   nonuniform List<scalar> 
73728
(
1
1
1
1
1
1
1
1
1
1
1
1
1
1
1
1
1
1
1
1
1
1
1
1
1
1
1
1
1
1
1
1
1
1
1
1
1
1
1
1
1
1
1
1
1
1
1
1
1
1
1
1
1
1
1
1
1
1
1
1
1
1
1
1
1
1
1
5.38668
11.5405
11.8535
11.8122
11.7887
11.722
11.6246
11.5482
11.5383
11.5842
11.6523
11.761
11.8953
11.9881
12.0599
12.1089
12.1229
12.0981
12.0387
11.9477
11.8757
11.8623
11.9035
11.9932
12.1034
12.2206
12.358
12.4749
12.5112
1
1
1
1
1
1
1
1
1
1
1
1
1
1
1
1
1
1
1
1
1
1
1
1
1
1
1
1
1
1
1
1
1
1
1
1
1
1
1
1
1
1
1
1
1
1
1
1
1
1
1
1
1
1
1
1
1
1
1
1
1
1
1
1
1
1
1
5.36644
11.5366
11.8482
11.8081
11.7873
11.7185
11.6196
11.5451
11.5386
11.5858
11.6547
11.7644
11.897
11.9872
12.0578
12.1055
12.1183
12.0927
12.0313
11.9379
11.8644
11.8502
11.8924
11.9899
12.1016
12.2142
12.3235
12.4192
12.4711
1
1
1
1
1
1
1
1
1
1
1
1
1
1
1
1
1
1
1
1
1
1
1
1
1
1
1
1
1
1
1
1
1
1
1
1
1
1
1
1
1
1
1
1
1
1
1
1
1
1
1
1
1
1
1
1
1
1
1
1
1
1
1
1
1
1
1
5.32336
11.534
11.8415
11.801
11.7835
11.7114
11.6107
11.5396
11.5381
11.5874
11.6576
11.7687
11.8988
11.9852
12.0539
12.0998
12.1113
12.0841
12.0195
11.9225
11.8462
11.8299
11.876
11.9824
12.0932
12.2
12.2918
12.3638
12.3937
1
1
1
1
1
1
1
1
1
1
1
1
1
1
1
1
1
1
1
1
1
1
1
1
1
1
1
1
1
1
1
1
1
1
1
1
1
1
1
1
1
1
1
1
1
1
1
1
1
1
1
1
1
1
1
1
1
1
1
1
1
1
1
1
1
1
1
5.26067
11.5283
11.8341
11.7936
11.7775
11.7003
11.5972
11.5317
11.5375
11.5893
11.6621
11.7754
11.9018
11.9827
12.0475
12.0904
12.1002
12.0712
12.003
11.9016
11.8205
11.8027
11.8552
11.9682
12.0812
12.1861
12.2671
12.32
12.3371
1
1
1
1
1
1
1
1
1
1
1
1
1
1
1
1
1
1
1
1
1
1
1
1
1
1
1
1
1
1
1
1
1
1
1
1
1
1
1
1
1
1
1
1
1
1
1
1
1
1
1
1
1
1
1
1
1
1
1
1
1
1
1
1
1
1
1
5.17921
11.5167
11.8269
11.7858
11.7687
11.6843
11.5793
11.522
11.5369
11.591
11.6684
11.7847
11.9063
11.9799
12.0388
12.0776
12.0857
12.055
11.9831
11.8762
11.7903
11.7734
11.8301
11.9442
12.0631
12.17
12.2462
12.2904
12.2999
1
1
1
1
1
1
1
1
1
1
1
1
1
1
1
1
1
1
1
1
1
1
1
1
1
1
1
1
1
1
1
1
1
1
1
1
1
1
1
1
1
1
1
1
1
1
1
1
1
1
1
1
1
1
1
1
1
1
1
1
1
1
1
1
1
1
1
5.07827
11.4991
11.8201
11.7766
11.7556
11.6626
11.558
11.5122
11.5367
11.5936
11.6775
11.7977
11.9119
11.9765
12.0275
12.0613
12.0675
12.0356
11.96
11.8478
11.7592
11.7463
11.8029
11.9125
12.0368
12.1473
12.2223
12.2629
12.2706
1
1
1
1
1
1
1
1
1
1
1
1
1
1
1
1
1
1
1
1
1
1
1
1
1
1
1
1
1
1
1
1
1
1
1
1
1
1
1
1
1
1
1
1
1
1
1
1
1
1
1
1
1
1
1
1
1
1
1
1
1
1
1
1
1
1
1
4.95864
11.4739
11.8129
11.7654
11.7379
11.6358
11.5348
11.5032
11.5364
11.5971
11.6898
11.8143
11.9183
11.9725
12.0141
12.0413
12.0451
12.0124
11.9332
11.8177
11.7315
11.7244
11.7772
11.879
12.0039
12.1151
12.1885
12.2276
12.2371
1
1
1
1
1
1
1
1
1
1
1
1
1
1
1
1
1
1
1
1
1
1
1
1
1
1
1
1
1
1
1
1
1
1
1
1
1
1
1
1
1
1
1
1
1
1
1
1
1
1
1
1
1
1
1
1
1
1
1
1
1
1
1
1
1
1
1
4.82165
11.4387
11.8049
11.7516
11.7148
11.6046
11.5116
11.4959
11.5361
11.6022
11.7062
11.8337
11.9249
11.9687
11.9995
12.0181
12.018
11.9835
11.9007
11.786
11.7099
11.7098
11.7582
11.8516
11.9713
12.077
12.1442
12.1795
12.1888
1
1
1
1
1
1
1
1
1
1
1
1
1
1
1
1
1
1
1
1
1
1
1
1
1
1
1
1
1
1
1
1
1
1
1
1
1
1
1
1
1
1
1
1
1
1
1
1
1
1
1
1
1
1
1
1
1
1
1
1
1
1
1
1
1
1
1
4.66839
11.3915
11.7966
11.7342
11.6851
11.5706
11.4909
11.4914
11.5358
11.6098
11.7265
11.8539
11.931
11.9656
11.9851
11.9931
11.9863
11.947
11.8603
11.7527
11.6935
11.701
11.7485
11.8364
11.9471
12.0415
12.0972
12.1244
12.1275
1
1
1
1
1
1
1
1
1
1
1
1
1
1
1
1
1
1
1
1
1
1
1
1
1
1
1
1
1
1
1
1
1
1
1
1
1
1
1
1
1
1
1
1
1
1
1
1
1
1
1
1
1
1
1
1
1
1
1
1
1
1
1
1
1
1
1
4.49925
11.3307
11.7884
11.7113
11.648
11.5355
11.4759
11.49
11.5364
11.6212
11.7502
11.8725
11.9359
11.9632
11.9718
11.9686
11.9511
11.9019
11.81
11.7166
11.6797
11.6957
11.7465
11.8331
11.9352
12.0153
12.0577
12.0736
12.0666
1
1
1
1
1
1
1
1
1
1
1
1
1
1
1
1
1
1
1
1
1
1
1
1
1
1
1
1
1
1
1
1
1
1
1
1
1
1
1
1
1
1
1
1
1
1
1
1
1
1
1
1
1
1
1
1
1
1
1
1
1
1
1
1
1
1
1
4.31612
11.2562
11.7772
11.6809
11.6044
11.5032
11.4684
11.4906
11.5409
11.6378
11.7757
11.8865
11.9383
11.961
11.9596
11.9455
11.9142
11.8499
11.7513
11.6776
11.6638
11.6909
11.7494
11.8388
11.9341
11.9998
12.0304
12.0351
12.0175
1
1
1
1
1
1
1
1
1
1
1
1
1
1
1
1
1
1
1
1
1
1
1
1
1
1
1
1
1
1
1
1
1
1
1
1
1
1
1
1
1
1
1
1
1
1
1
1
1
1
1
1
1
1
1
1
1
1
1
1
1
1
1
1
1
1
1
4.12128
11.1663
11.7589
11.6425
11.557
11.4772
11.4684
11.4936
11.5518
11.6615
11.8005
11.894
11.9375
11.9563
11.9481
11.9237
11.8772
11.794
11.6899
11.6374
11.643
11.6828
11.7529
11.849
11.9388
11.9928
12.0142
12.0092
11.9828
1
1
1
1
1
1
1
1
1
1
1
1
1
1
1
1
1
1
1
1
1
1
1
1
1
1
1
1
1
1
1
1
1
1
1
1
1
1
1
1
1
1
1
1
1
1
1
1
1
1
1
1
1
1
1
1
1
1
1
1
1
1
1
1
1
1
1
3.91592
11.0586
11.7311
11.5962
11.5107
11.4609
11.4718
11.5025
11.5721
11.6929
11.8216
11.8947
11.9316
11.9471
11.9348
11.9018
11.8397
11.7369
11.634
11.6022
11.6189
11.6685
11.7516
11.8562
11.9423
11.9887
12.005
11.9931
11.9591
1
1
1
1
1
1
1
1
1
1
1
1
1
1
1
1
1
1
1
1
1
1
1
1
1
1
1
1
1
1
1
1
1
1
1
1
1
1
1
1
1
1
1
1
1
1
1
1
1
1
1
1
1
1
1
1
1
1
1
1
1
1
1
1
1
1
1
3.70067
10.9301
11.6922
11.5442
11.471
11.4546
11.4775
11.5188
11.6038
11.731
11.8367
11.8895
11.9195
11.9313
11.917
11.877
11.7994
11.6817
11.5908
11.576
11.5981
11.6534
11.7463
11.8557
11.9361
11.978
11.9932
11.9789
11.9393
1
1
1
1
1
1
1
1
1
1
1
1
1
1
1
1
1
1
1
1
1
1
1
1
1
1
1
1
1
1
1
1
1
1
1
1
1
1
1
1
1
1
1
1
1
1
1
1
1
1
1
1
1
1
1
1
1
1
1
1
1
1
1
1
1
1
1
3.47565
10.7769
11.6415
11.4931
11.4427
11.4536
11.486
11.5435
11.6477
11.7714
11.8455
11.8804
11.9018
11.9083
11.8921
11.8447
11.7523
11.6312
11.564
11.5602
11.5855
11.6454
11.7432
11.8482
11.9175
11.954
11.9681
11.953
11.9096
1
1
1
1
1
1
1
1
1
1
1
1
1
1
1
1
1
1
1
1
1
1
1
1
1
1
1
1
1
1
1
1
1
1
1
1
1
1
1
1
1
1
1
1
1
1
1
1
1
1
1
1
1
1
1
1
1
1
1
1
1
1
1
1
1
1
1
3.24027
10.5943
11.5798
11.4517
11.4295
11.4547
11.4982
11.5788
11.7011
11.8064
11.85
11.8698
11.8809
11.8794
11.8576
11.7984
11.6952
11.5886
11.5505
11.5537
11.5834
11.6498
11.7495
11.841
11.8934
11.9205
11.9287
11.9107
11.8629
1
1
1
1
1
1
1
1
1
1
1
1
1
1
1
1
1
1
1
1
1
1
1
1
1
1
1
1
1
1
1
1
1
1
1
1
1
1
1
1
1
1
1
1
1
1
1
1
1
1
1
1
1
1
1
1
1
1
1
1
1
1
1
1
1
1
1
2.99577
10.3772
11.5139
11.4266
11.4275
11.4573
11.5174
11.6271
11.7547
11.8299
11.8524
11.86
11.8592
11.8469
11.8109
11.7368
11.6309
11.5557
11.5423
11.5544
11.5935
11.6701
11.7683
11.8403
11.8741
11.888
11.8848
11.8593
11.8024
1
1
1
1
1
1
1
1
1
1
1
1
1
1
1
1
1
1
1
1
1
1
1
1
1
1
1
1
1
1
1
1
1
1
1
1
1
1
1
1
1
1
1
1
1
1
1
1
1
1
1
1
1
1
1
1
1
1
1
1
1
1
1
1
1
1
1
2.74331
10.1207
11.4557
11.4173
11.4291
11.4647
11.551
11.6851
11.7954
11.8412
11.8537
11.8511
11.8384
11.8103
11.756
11.6656
11.5676
11.5301
11.5337
11.5591
11.6143
11.7032
11.7943
11.8456
11.8649
11.8648
11.8475
11.8096
11.736
1
1
1
1
1
1
1
1
1
1
1
1
1
1
1
1
1
1
1
1
1
1
1
1
1
1
1
1
1
1
1
1
1
1
1
1
1
1
1
1
1
1
1
1
1
1
1
1
1
1
1
1
1
1
1
1
1
1
1
1
1
1
1
1
1
1
1
2.48474
9.82553
11.4154
11.4173
11.4354
11.4876
11.6042
11.7405
11.8165
11.8447
11.8518
11.8415
11.8162
11.7705
11.6968
11.5926
11.5179
11.5076
11.5235
11.5647
11.6393
11.7394
11.8185
11.8538
11.8622
11.85
11.8205
11.7663
11.671
1
1
1
1
1
1
1
1
1
1
1
1
1
1
1
1
1
1
1
1
1
1
1
1
1
1
1
1
1
1
1
1
1
1
1
1
1
1
1
1
1
1
1
1
1
1
1
1
1
1
1
1
1
1
1
1
1
1
1
1
1
1
1
1
1
1
1
2.22676
9.4947
11.3943
11.4199
11.4548
11.5355
11.6706
11.7793
11.8221
11.8427
11.8441
11.8266
11.7884
11.727
11.6349
11.5299
11.487
11.4895
11.5148
11.5709
11.6645
11.7685
11.8328
11.8586
11.8585
11.8368
11.7965
11.7252
11.611
1
1
1
1
1
1
1
1
1
1
1
1
1
1
1
1
1
1
1
1
1
1
1
1
1
1
1
1
1
1
1
1
1
1
1
1
1
1
1
1
1
1
1
1
1
1
1
1
1
1
1
1
1
1
1
1
1
1
1
1
1
1
1
1
1
1
1
1.97699
9.13113
11.3853
11.433
11.4972
11.6058
11.7328
11.7985
11.8207
11.8342
11.8277
11.7999
11.7516
11.6767
11.573
11.4885
11.4711
11.4794
11.5126
11.5836
11.6899
11.7852
11.834
11.8523
11.845
11.8163
11.7658
11.68
11.5557
1
1
1
1
1
1
1
1
1
1
1
1
1
1
1
1
1
1
1
1
1
1
1
1
1
1
1
1
1
1
1
1
1
1
1
1
1
1
1
1
1
1
1
1
1
1
1
1
1
1
1
1
1
1
1
1
1
1
1
1
1
1
1
1
1
1
1
1.74343
8.74037
11.3907
11.4685
11.5643
11.6828
11.7762
11.8061
11.8171
11.8192
11.7988
11.7621
11.7043
11.6166
11.517
11.4688
11.4648
11.4795
11.524
11.6104
11.717
11.7904
11.8234
11.8321
11.8179
11.7838
11.7235
11.6231
11.5051
1
1
1
1
1
1
1
1
1
1
1
1
1
1
1
1
1
1
1
1
1
1
1
1
1
1
1
1
1
1
1
1
1
1
1
1
1
1
1
1
1
1
1
1
1
1
1
1
1
1
1
1
1
1
1
1
1
1
1
1
1
1
1
1
1
1
1
1.53484
8.33548
11.4125
11.5298
11.6417
11.7474
11.7977
11.8108
11.812
11.7956
11.7632
11.7159
11.6446
11.5487
11.4765
11.4614
11.4662
11.4923
11.5547
11.6534
11.7445
11.7902
11.8063
11.8023
11.7799
11.7379
11.663
11.5505
11.4602
1
1
1
1
1
1
1
1
1
1
1
1
1
1
1
1
1
1
1
1
1
1
1
1
1
1
1
1
1
1
1
1
1
1
1
1
1
1
1
1
1
1
1
1
1
1
1
1
1
1
1
1
1
1
1
1
1
1
1
1
1
1
1
1
1
1
1
1.35538
7.93424
11.4537
11.6056
11.7109
11.7882
11.8064
11.8134
11.7996
11.7679
11.7235
11.6622
11.5747
11.486
11.4548
11.4557
11.4732
11.5186
11.603
11.704
11.768
11.7905
11.7888
11.7695
11.7358
11.679
11.5831
11.4724
11.4193
1
1
1
1
1
1
1
1
1
1
1
1
1
1
1
1
1
1
1
1
1
1
1
1
1
1
1
1
1
1
1
1
1
1
1
1
1
1
1
1
1
1
1
1
1
1
1
1
1
1
1
1
1
1
1
1
1
1
1
1
1
1
1
1
1
1
1
1.20552
7.54884
11.5109
11.6792
11.7617
11.8064
11.8088
11.8073
11.7795
11.7371
11.6807
11.6018
11.5051
11.4473
11.4407
11.452
11.4858
11.5563
11.66
11.747
11.7843
11.7888
11.7713
11.739
11.6903
11.6117
11.4971
11.4105
11.3801
1
1
1
1
1
1
1
1
1
1
1
1
1
1
1
1
1
1
1
1
1
1
1
1
1
1
1
1
1
1
1
1
1
1
1
1
1
1
1
1
1
1
1
1
1
1
1
1
1
1
1
1
1
1
1
1
1
1
1
1
1
1
1
1
1
1
1
1.08416
7.18611
11.5678
11.7337
11.7932
11.8114
11.8031
11.7905
11.7519
11.7015
11.6322
11.5375
11.453
11.4304
11.432
11.4536
11.5081
11.6047
11.7116
11.7711
11.7886
11.7795
11.7517
11.7095
11.644
11.5416
11.4277
11.3744
11.3498
1
1
1
1
1
1
1
1
1
1
1
1
1
1
1
1
1
1
1
1
1
1
1
1
1
1
1
1
1
1
1
1
1
1
1
1
1
1
1
1
1
1
1
1
1
1
1
1
1
1
1
1
1
1
1
1
1
1
1
1
1
1
1
1
1
1
1
1.00498
6.83381
11.5962
11.77
11.8081
11.8101
11.7889
11.7627
11.7165
11.6584
11.5739
11.4783
11.4303
11.4233
11.432
11.4684
11.548
11.6601
11.7439
11.7762
11.7786
11.7604
11.727
11.675
11.59
11.473
11.3885
11.355
11.3347
1
1
1
1
1
1
1
1
1
1
1
1
1
1
1
1
1
1
1
1
1
1
1
1
1
1
1
1
1
1
1
1
1
1
1
1
1
1
1
1
1
1
1
1
1
1
1
1
1
1
1
1
1
1
1
1
1
1
1
1
1
1
1
1
1
1
1
1
6.46123
11.5932
11.8026
11.8115
11.7992
11.7636
11.7265
11.6746
11.6036
11.5081
11.4389
11.4247
11.424
11.4457
11.5057
11.6089
11.7096
11.7561
11.7664
11.7565
11.732
11.6927
11.6269
11.5223
11.4162
11.369
11.3434
11.3348
1
1
1
1
1
1
1
1
1
1
1
1
1
1
1
1
1
1
1
1
1
1
1
1
1
1
1
1
1
1
1
1
1
1
1
1
1
1
1
1
1
1
1
1
1
1
1
1
1
1
1
1
1
1
1
1
1
1
1
1
1
1
1
1
1
1
1
1
6.09522
11.5811
11.83
11.8039
11.7799
11.7326
11.6879
11.6249
11.5359
11.4514
11.4255
11.4221
11.4344
11.4789
11.5691
11.6777
11.7403
11.7548
11.7469
11.7267
11.6947
11.644
11.5583
11.4469
11.3792
11.3516
11.3382
11.3461
1
1
1
1
1
1
1
1
1
1
1
1
1
1
1
1
1
1
1
1
1
1
1
1
1
1
1
1
1
1
1
1
1
1
1
1
1
1
1
1
1
1
1
1
1
1
1
1
1
1
1
1
1
1
1
1
1
1
1
1
1
1
1
1
1
1
1
1
5.73461
11.5776
11.8274
11.7845
11.7534
11.7018
11.6465
11.5641
11.4691
11.4231
11.4187
11.4246
11.4578
11.535
11.647
11.7286
11.7522
11.7454
11.7247
11.6939
11.65
11.5792
11.4743
11.385
11.352
11.3334
11.3378
11.3644
1
1
1
1
1
1
1
1
1
1
1
1
1
1
1
1
1
1
1
1
1
1
1
1
1
1
1
1
1
1
1
1
1
1
1
1
1
1
1
1
1
1
1
1
1
1
1
1
1
1
1
1
1
1
1
1
1
1
1
1
1
1
1
1
1
1
1
1
5.38358
11.5618
11.8118
11.7515
11.7259
11.6696
11.5958
11.4973
11.4269
11.4144
11.4148
11.4378
11.5014
11.61
11.7112
11.7507
11.7506
11.732
11.702
11.6605
11.598
11.5019
11.3971
11.3479
11.3258
11.3209
11.3434
11.3901
1
1
1
1
1
1
1
1
1
1
1
1
1
1
1
1
1
1
1
1
1
1
1
1
1
1
1
1
1
1
1
1
1
1
1
1
1
1
1
1
1
1
1
1
1
1
1
1
1
1
1
1
1
1
1
1
1
1
1
1
1
1
1
1
1
1
1
1
5.04055
11.5129
11.7842
11.721
11.6977
11.6279
11.533
11.4446
11.4145
11.4099
11.4229
11.4721
11.5698
11.6839
11.7432
11.7521
11.7401
11.7153
11.6772
11.6214
11.535
11.4243
11.3514
11.3241
11.3093
11.3195
11.3604
11.4282
1
1
1
1
1
1
1
1
1
1
1
1
1
1
1
1
1
1
1
1
1
1
1
1
1
1
1
1
1
1
1
1
1
1
1
1
1
1
1
1
1
1
1
1
1
1
1
1
1
1
1
1
1
1
1
1
1
1
1
1
1
1
1
1
1
1
1
1
4.70409
11.4243
11.7577
11.6933
11.6615
11.5698
11.4712
11.4219
11.4102
11.4164
11.4522
11.5352
11.6515
11.7308
11.7493
11.743
11.7242
11.692
11.6437
11.5683
11.4609
11.3675
11.3304
11.3088
11.3083
11.3354
11.3974
11.4823
1
1
1
1
1
1
1
1
1
1
1
1
1
1
1
1
1
1
1
1
1
1
1
1
1
1
1
1
1
1
1
1
1
1
1
1
1
1
1
1
1
1
1
1
1
1
1
1
1
1
1
1
1
1
1
1
1
1
1
1
1
1
1
1
1
1
1
1
4.37122
11.2975
11.7383
11.6668
11.6085
11.5022
11.4339
11.4148
11.4141
11.4403
11.5092
11.6206
11.7172
11.7481
11.7441
11.7281
11.7011
11.6591
11.5943
11.4963
11.3911
11.3393
11.3154
11.3072
11.3246
11.3734
11.4582
11.5455
1
1
1
1
1
1
1
1
1
1
1
1
1
1
1
1
1
1
1
1
1
1
1
1
1
1
1
1
1
1
1
1
1
1
1
1
1
1
1
1
1
1
1
1
1
1
1
1
1
1
1
1
1
1
1
1
1
1
1
1
1
1
1
1
1
1
1
1
4.04324
11.1405
11.7243
11.6282
11.5382
11.4512
11.4214
11.4134
11.4315
11.4877
11.5907
11.7003
11.7497
11.7499
11.7345
11.7093
11.671
11.6136
11.5254
11.4165
11.3469
11.3208
11.3079
11.3189
11.3592
11.435
11.5324
11.5985
1
1
1
1
1
1
1
1
1
1
1
1
1
1
1
1
1
1
1
1
1
1
1
1
1
1
1
1
1
1
1
1
1
1
1
1
1
1
1
1
1
1
1
1
1
1
1
1
1
1
1
1
1
1
1
1
1
1
1
1
1
1
1
1
1
1
1
1
3.72827
10.9564
11.699
11.5713
11.4742
11.4319
11.4175
11.424
11.4684
11.5601
11.6767
11.7478
11.7585
11.7462
11.7222
11.686
11.6331
11.5528
11.4446
11.357
11.3235
11.3059
11.3114
11.3448
11.4132
11.5109
11.5965
11.6275
1
1
1
1
1
1
1
1
1
1
1
1
1
1
1
1
1
1
1
1
1
1
1
1
1
1
1
1
1
1
1
1
1
1
1
1
1
1
1
1
1
1
1
1
1
1
1
1
1
1
1
1
1
1
1
1
1
1
1
1
1
1
1
1
1
1
1
1
3.42611
10.7468
11.6465
11.5103
11.4423
11.4253
11.4226
11.4529
11.5313
11.647
11.738
11.7647
11.7583
11.7376
11.7046
11.6561
11.583
11.4789
11.3767
11.329
11.3063
11.304
11.3293
11.3891
11.4837
11.5813
11.6318
11.6365
1
1
1
1
1
1
1
1
1
1
1
1
1
1
1
1
1
1
1
1
1
1
1
1
1
1
1
1
1
1
1
1
1
1
1
1
1
1
1
1
1
1
1
1
1
1
1
1
1
1
1
1
1
1
1
1
1
1
1
1
1
1
1
1
1
1
1
1
3.13295
10.5081
11.5758
11.4652
11.4348
11.4272
11.4426
11.5068
11.616
11.7215
11.7671
11.768
11.7516
11.7223
11.6789
11.6135
11.5171
11.407
11.3415
11.3145
11.3031
11.3186
11.3673
11.4548
11.5584
11.6261
11.6427
11.6274
1
1
1
1
1
1
1
1
1
1
1
1
1
1
1
1
1
1
1
1
1
1
1
1
1
1
1
1
1
1
1
1
1
1
1
1
1
1
1
1
1
1
1
1
1
1
1
1
1
1
1
1
1
1
1
1
1
1
1
1
1
1
1
1
1
1
1
1
2.84785
10.236
11.5095
11.4456
11.4313
11.4386
11.4865
11.5859
11.7002
11.7664
11.7773
11.7652
11.7387
11.6995
11.641
11.5536
11.4425
11.3598
11.3274
11.3099
11.3162
11.3537
11.4309
11.5348
11.6165
11.645
11.6362
11.6056
1
1
1
1
1
1
1
1
1
1
1
1
1
1
1
1
1
1
1
1
1
1
1
1
1
1
1
1
1
1
1
1
1
1
1
1
1
1
1
1
1
1
1
1
1
1
1
1
1
1
1
1
1
1
1
1
1
1
1
1
1
1
1
1
1
1
1
1
2.57115
9.9339
11.4648
11.4381
11.4355
11.4704
11.5557
11.6733
11.7598
11.7866
11.7807
11.7569
11.7205
11.6671
11.5877
11.4798
11.3818
11.3392
11.3187
11.3183
11.3467
11.4133
11.5145
11.6079
11.6488
11.6473
11.6184
11.5802
1
1
1
1
1
1
1
1
1
1
1
1
1
1
1
1
1
1
1
1
1
1
1
1
1
1
1
1
1
1
1
1
1
1
1
1
1
1
1
1
1
1
1
1
1
1
1
1
1
1
1
1
1
1
1
1
1
1
1
1
1
1
1
1
1
1
1
1
2.30764
9.60883
11.4411
11.4369
11.4595
11.5266
11.6391
11.745
11.7916
11.7954
11.7774
11.7441
11.6952
11.6227
11.5202
11.4106
11.3505
11.3262
11.3197
11.3406
11.3975
11.494
11.5978
11.6543
11.6619
11.6384
11.6001
11.5505
1
1
1
1
1
1
1
1
1
1
1
1
1
1
1
1
1
1
1
1
1
1
1
1
1
1
1
1
1
1
1
1
1
1
1
1
1
1
1
1
1
1
1
1
1
1
1
1
1
1
1
1
1
1
1
1
1
1
1
1
1
1
1
1
1
1
1
1
2.06193
9.26828
11.435
11.4522
11.5058
11.6019
11.7184
11.7911
11.8057
11.7961
11.7678
11.7244
11.6595
11.5648
11.4495
11.3677
11.3362
11.3216
11.3341
11.3808
11.4699
11.5808
11.6563
11.6763
11.6609
11.6253
11.5781
11.5118
1
1
1
1
1
1
1
1
1
1
1
1
1
1
1
1
1
1
1
1
1
1
1
1
1
1
1
1
1
1
1
1
1
1
1
1
1
1
1
1
1
1
1
1
1
1
1
1
1
1
1
1
1
1
1
1
1
1
1
1
1
1
1
1
1
1
1
1
1.838
8.91856
11.4449
11.4899
11.5731
11.6841
11.7795
11.8153
11.81
11.7896
11.7515
11.6947
11.6106
11.4975
11.3961
11.3512
11.3292
11.3311
11.3661
11.4442
11.5565
11.6509
11.6866
11.681
11.6497
11.607
11.5444
11.4564
1
1
1
1
1
1
1
1
1
1
1
1
1
1
1
1
1
1
1
1
1
1
1
1
1
1
1
1
1
1
1
1
1
1
1
1
1
1
1
1
1
1
1
1
1
1
1
1
1
1
1
1
1
1
1
1
1
1
1
1
1
1
1
1
1
1
1
1
1.64058
8.56788
11.4677
11.5499
11.6526
11.7571
11.8195
11.8267
11.8083
11.777
11.7268
11.6534
11.5493
11.4354
11.3705
11.3435
11.3348
11.3576
11.4217
11.5287
11.6384
11.6927
11.6973
11.6715
11.6322
11.5756
11.4907
11.3819
1
1
1
1
1
1
1
1
1
1
1
1
1
1
1
1
1
1
1
1
1
1
1
1
1
1
1
1
1
1
1
1
1
1
1
1
1
1
1
1
1
1
1
1
1
1
1
1
1
1
1
1
1
1
1
1
1
1
1
1
1
1
1
1
1
1
1
1
1.47213
8.231
11.5047
11.6217
11.7285
11.8129
11.8417
11.8303
11.8036
11.7589
11.6937
11.6011
11.4847
11.3954
11.361
11.3437
11.355
11.4042
11.5007
11.6191
11.6954
11.7122
11.6927
11.6553
11.6033
11.526
11.4161
11.304
1
1
1
1
1
1
1
1
1
1
1
1
1
1
1
1
1
1
1
1
1
1
1
1
1
1
1
1
1
1
1
1
1
1
1
1
1
1
1
1
1
1
1
1
1
1
1
1
1
1
1
1
1
1
1
1
1
1
1
1
1
1
1
1
1
1
1
1
1.33181
7.91693
11.5528
11.6944
11.79
11.8512
11.8509
11.8309
11.7939
11.7356
11.6532
11.5426
11.4329
11.3798
11.3561
11.356
11.3908
11.4725
11.5921
11.6916
11.7261
11.7149
11.6797
11.6311
11.5599
11.4571
11.3351
11.2507
1
1
1
1
1
1
1
1
1
1
1
1
1
1
1
1
1
1
1
1
1
1
1
1
1
1
1
1
1
1
1
1
1
1
1
1
1
1
1
1
1
1
1
1
1
1
1
1
1
1
1
1
1
1
1
1
1
1
1
1
1
1
1
1
1
1
1
1
1.21738
7.62969
11.606
11.7591
11.8358
11.8731
11.8533
11.8283
11.7789
11.7065
11.6066
11.4881
11.4059
11.3741
11.3611
11.3813
11.445
11.5567
11.6757
11.7348
11.7363
11.7054
11.6605
11.5946
11.4991
11.3768
11.2744
11.2248
1
1
1
1
1
1
1
1
1
1
1
1
1
1
1
1
1
1
1
1
1
1
1
1
1
1
1
1
1
1
1
1
1
1
1
1
1
1
1
1
1
1
1
1
1
1
1
1
1
1
1
1
1
1
1
1
1
1
1
1
1
1
1
1
1
1
1
1
1.12573
7.3689
11.6561
11.8109
11.8686
11.8813
11.8529
11.8208
11.7579
11.6713
11.5572
11.4496
11.3991
11.3747
11.3794
11.4229
11.5177
11.6445
11.7331
11.7533
11.7305
11.6894
11.6297
11.5417
11.4229
11.3065
11.2444
11.2082
1
1
1
1
1
1
1
1
1
1
1
1
1
1
1
1
1
1
1
1
1
1
1
1
1
1
1
1
1
1
1
1
1
1
1
1
1
1
1
1
1
1
1
1
1
1
1
1
1
1
1
1
1
1
1
1
1
1
1
1
1
1
1
1
1
1
1
1
1.05487
7.12958
11.6953
11.8513
11.8915
11.8841
11.8507
11.8053
11.7308
11.6301
11.5116
11.4323
11.3991
11.387
11.4111
11.483
11.6029
11.7179
11.7645
11.754
11.7168
11.6635
11.584
11.4715
11.3464
11.2652
11.2268
11.2011
1
1
1
1
1
1
1
1
1
1
1
1
1
1
1
1
1
1
1
1
1
1
1
1
1
1
1
1
1
1
1
1
1
1
1
1
1
1
1
1
1
1
1
1
1
1
1
1
1
1
1
1
1
1
1
1
1
1
1
1
1
1
1
1
1
1
1
1
1.00926
6.90234
11.7202
11.8862
11.9056
11.8869
11.8438
11.7846
11.6983
11.5847
11.4783
11.4286
11.4039
11.4103
11.458
11.5595
11.6886
11.7675
11.7766
11.745
11.6972
11.6259
11.5224
11.3937
11.292
11.2446
11.2148
11.2072
1
1
1
1
1
1
1
1
1
1
1
1
1
1
1
1
1
1
1
1
1
1
1
1
1
1
1
1
1
1
1
1
1
1
1
1
1
1
1
1
1
1
1
1
1
1
1
1
1
1
1
1
1
1
1
1
1
1
1
1
1
1
1
1
1
1
1
1
1
6.67666
11.7359
11.9198
11.9132
11.8879
11.8331
11.7611
11.6604
11.5414
11.4614
11.4278
11.4168
11.4432
11.52
11.6457
11.7578
11.796
11.7762
11.7329
11.6694
11.5753
11.449
11.3285
11.2653
11.2299
11.2131
11.2294
1
1
1
1
1
1
1
1
1
1
1
1
1
1
1
1
1
1
1
1
1
1
1
1
1
1
1
1
1
1
1
1
1
1
1
1
1
1
1
1
1
1
1
1
1
1
1
1
1
1
1
1
1
1
1
1
1
1
1
1
1
1
1
1
1
1
1
1
1
6.46771
11.745
11.9508
11.9175
11.8858
11.8192
11.7341
11.6195
11.5091
11.4553
11.43
11.4373
11.488
11.5951
11.7281
11.8045
11.8073
11.7698
11.7146
11.6306
11.5107
11.3772
11.2912
11.2497
11.2223
11.2273
11.2722
1
1
1
1
1
1
1
1
1
1
1
1
1
1
1
1
1
1
1
1
1
1
1
1
1
1
1
1
1
1
1
1
1
1
1
1
1
1
1
1
1
1
1
1
1
1
1
1
1
1
1
1
1
1
1
1
1
1
1
1
1
1
1
1
1
1
1
1
1
6.27287
11.7598
11.975
11.9196
11.88
11.8025
11.7034
11.581
11.4917
11.4534
11.4407
11.4675
11.5471
11.6779
11.793
11.8303
11.806
11.7583
11.6855
11.5761
11.4372
11.3247
11.2721
11.2387
11.2292
11.261
11.34
1
1
1
1
1
1
1
1
1
1
1
1
1
1
1
1
1
1
1
1
1
1
1
1
1
1
1
1
1
1
1
1
1
1
1
1
1
1
1
1
1
1
1
1
1
1
1
1
1
1
1
1
1
1
1
1
1
1
1
1
1
1
1
1
1
1
1
1
1
6.09279
11.7813
11.9907
11.9175
11.8706
11.7831
11.6697
11.551
11.4865
11.4568
11.4615
11.5113
11.62
11.7574
11.8372
11.8387
11.7977
11.7367
11.6411
11.5061
11.37
11.2958
11.2575
11.2369
11.2529
11.3186
11.4294
1
1
1
1
1
1
1
1
1
1
1
1
1
1
1
1
1
1
1
1
1
1
1
1
1
1
1
1
1
1
1
1
1
1
1
1
1
1
1
1
1
1
1
1
1
1
1
1
1
1
1
1
1
1
1
1
1
1
1
1
1
1
1
1
1
1
1
1
1
5.9284
11.8019
12.0026
11.914
11.8603
11.7605
11.6356
11.533
11.4872
11.4687
11.4924
11.5695
11.7017
11.8224
11.8629
11.8362
11.7839
11.7033
11.5807
11.4313
11.3239
11.2773
11.2475
11.2492
11.2953
11.3992
11.5247
1
1
1
1
1
1
1
1
1
1
1
1
1
1
1
1
1
1
1
1
1
1
1
1
1
1
1
1
1
1
1
1
1
1
1
1
1
1
1
1
1
1
1
1
1
1
1
1
1
1
1
1
1
1
1
1
1
1
1
1
1
1
1
1
1
1
1
1
1
5.77744
11.8189
12.0158
11.9135
11.8499
11.7353
11.6066
11.5269
11.4906
11.488
11.5333
11.6384
11.7806
11.8696
11.8745
11.8296
11.7637
11.659
11.5112
11.3694
11.2984
11.2627
11.2487
11.2761
11.3579
11.4924
11.6045
1
1
1
1
1
1
1
1
1
1
1
1
1
1
1
1
1
1
1
1
1
1
1
1
1
1
1
1
1
1
1
1
1
1
1
1
1
1
1
1
1
1
1
1
1
1
1
1
1
1
1
1
1
1
1
1
1
1
1
1
1
1
1
1
1
1
1
1
1
5.63804
11.8331
12.0319
11.917
11.84
11.7105
11.588
11.5274
11.498
11.5127
11.5816
11.711
11.845
11.8999
11.8768
11.822
11.738
11.607
11.4454
11.3315
11.2843
11.2556
11.2632
11.3195
11.4365
11.5809
11.6575
1
1
1
1
1
1
1
1
1
1
1
1
1
1
1
1
1
1
1
1
1
1
1
1
1
1
1
1
1
1
1
1
1
1
1
1
1
1
1
1
1
1
1
1
1
1
1
1
1
1
1
1
1
1
1
1
1
1
1
1
1
1
1
1
1
1
1
1
1
5.50982
11.8456
12.0513
11.9235
11.83
11.6897
11.5806
11.5304
11.51
11.542
11.6345
11.779
11.8916
11.9152
11.875
11.811
11.707
11.5522
11.3957
11.3145
11.2769
11.2617
11.291
11.3778
11.5205
11.6489
11.6864
1
1
1
1
1
1
1
1
1
1
1
1
1
1
1
1
1
1
1
1
1
1
1
1
1
1
1
1
1
1
1
1
1
1
1
1
1
1
1
1
1
1
1
1
1
1
1
1
1
1
1
1
1
1
1
1
1
1
1
1
1
1
1
1
1
1
1
1
1
5.39466
11.8559
12.0734
11.9301
11.8194
11.6754
11.5823
11.5351
11.5265
11.5757
11.6885
11.8354
11.9229
11.9205
11.871
11.7956
11.6708
11.5014
11.3657
11.3094
11.2773
11.2793
11.3305
11.4452
11.5964
11.6937
11.6967
1
1
1
1
1
1
1
1
1
1
1
1
1
1
1
1
1
1
1
1
1
1
1
1
1
1
1
1
1
1
1
1
1
1
1
1
1
1
1
1
1
1
1
1
1
1
1
1
1
1
1
1
1
1
1
1
1
1
1
1
1
1
1
1
1
1
1
1
1
5.29581
11.8628
12.0962
11.934
11.8091
11.668
11.5892
11.5436
11.5473
11.6122
11.7402
11.8793
11.9424
11.9206
11.8649
11.776
11.6323
11.4597
11.3508
11.3091
11.2852
11.3035
11.3765
11.5126
11.6552
11.7181
11.6961
1
1
1
1
1
1
1
1
1
1
1
1
1
1
1
1
1
1
1
1
1
1
1
1
1
1
1
1
1
1
1
1
1
1
1
1
1
1
1
1
1
1
1
1
1
1
1
1
1
1
1
1
1
1
1
1
1
1
1
1
1
1
1
1
1
1
1
1
1
5.21552
11.8658
12.1146
11.9347
11.8005
11.6669
11.5977
11.555
11.5698
11.6483
11.7863
11.9126
11.9547
11.9196
11.8573
11.7547
11.5955
11.4288
11.3437
11.3085
11.2964
11.3287
11.4219
11.5713
11.6959
11.7281
11.6907
1
1
1
1
1
1
1
1
1
1
1
1
1
1
1
1
1
1
1
1
1
1
1
1
1
1
1
1
1
1
1
1
1
1
1
1
1
1
1
1
1
1
1
1
1
1
1
1
1
1
1
1
1
1
1
1
1
1
1
1
1
1
1
1
1
1
1
1
1
5.15333
11.866
12.1272
11.9329
11.7943
11.6702
11.6068
11.5687
11.5928
11.6819
11.8235
11.9365
11.9627
11.9186
11.8499
11.7349
11.5645
11.4074
11.3397
11.3088
11.3074
11.3523
11.4609
11.6146
11.72
11.7303
11.6837
1
1
1
1
1
1
1
1
1
1
1
1
1
1
1
1
1
1
1
1
1
1
1
1
1
1
1
1
1
1
1
1
1
1
1
1
1
1
1
1
1
1
1
1
1
1
1
1
1
1
1
1
1
1
1
1
1
1
1
1
1
1
1
1
1
1
1
1
1
5.11085
11.8616
12.134
11.9302
11.7893
11.6733
11.6135
11.5804
11.6114
11.7077
11.8495
11.9525
11.9683
11.9188
11.845
11.7202
11.5427
11.3943
11.3368
11.3089
11.3145
11.3689
11.4877
11.6411
11.7329
11.7297
11.6783
1
1
1
1
1
1
1
1
1
1
1
1
1
1
1
1
1
1
1
1
1
1
1
1
1
1
1
1
1
1
1
1
1
1
1
1
1
1
1
1
1
1
1
1
1
1
1
1
1
1
1
1
1
1
1
1
1
1
1
1
1
1
1
1
1
1
1
1
1
5.09488
11.8568
12.1345
11.9267
11.785
11.6749
11.6165
11.5868
11.6226
11.7239
11.8652
11.9614
11.9718
11.9193
11.8419
11.7114
11.5301
11.3875
11.3354
11.3089
11.3186
11.3786
11.5028
11.6548
11.738
11.7274
11.6736
1
1
1
1
1
1
1
1
1
1
1
1
1
1
1
1
1
1
1
1
1
1
1
1
1
1
1
1
1
1
1
1
1
1
1
1
1
1
1
1
1
1
1
1
1
1
1
1
1
1
1
1
1
1
1
1
1
1
1
1
1
1
1
1
1
1
1
1
1
5.09476
11.8567
12.1345
11.9267
11.785
11.6749
11.6165
11.5868
11.6227
11.7239
11.8652
11.9614
11.9718
11.9192
11.8419
11.7113
11.53
11.3875
11.3354
11.3089
11.3187
11.3787
11.5029
11.6548
11.738
11.7274
11.6736
1
1
1
1
1
1
1
1
1
1
1
1
1
1
1
1
1
1
1
1
1
1
1
1
1
1
1
1
1
1
1
1
1
1
1
1
1
1
1
1
1
1
1
1
1
1
1
1
1
1
1
1
1
1
1
1
1
1
1
1
1
1
1
1
1
1
1
1
1
5.11048
11.8614
12.1339
11.9302
11.7893
11.6733
11.6136
11.5805
11.6115
11.7078
11.8496
11.9526
11.9683
11.9188
11.845
11.7202
11.5426
11.3943
11.3369
11.309
11.3146
11.369
11.4879
11.6413
11.733
11.7297
11.6784
1
1
1
1
1
1
1
1
1
1
1
1
1
1
1
1
1
1
1
1
1
1
1
1
1
1
1
1
1
1
1
1
1
1
1
1
1
1
1
1
1
1
1
1
1
1
1
1
1
1
1
1
1
1
1
1
1
1
1
1
1
1
1
1
1
1
1
1
1
5.15275
11.8657
12.1271
11.9328
11.7942
11.6701
11.6068
11.5687
11.5929
11.682
11.8236
11.9366
11.9627
11.9186
11.8499
11.7348
11.5645
11.4075
11.3398
11.309
11.3075
11.3525
11.4612
11.6148
11.7202
11.7304
11.6837
1
1
1
1
1
1
1
1
1
1
1
1
1
1
1
1
1
1
1
1
1
1
1
1
1
1
1
1
1
1
1
1
1
1
1
1
1
1
1
1
1
1
1
1
1
1
1
1
1
1
1
1
1
1
1
1
1
1
1
1
1
1
1
1
1
1
1
1
1
5.21477
11.8656
12.1145
11.9346
11.8004
11.6668
11.5977
11.555
11.5699
11.6485
11.7865
11.9127
11.9548
11.9196
11.8573
11.7547
11.5954
11.4287
11.3438
11.3086
11.2966
11.3289
11.4222
11.5717
11.6962
11.7282
11.6908
1
1
1
1
1
1
1
1
1
1
1
1
1
1
1
1
1
1
1
1
1
1
1
1
1
1
1
1
1
1
1
1
1
1
1
1
1
1
1
1
1
1
1
1
1
1
1
1
1
1
1
1
1
1
1
1
1
1
1
1
1
1
1
1
1
1
1
1
1
5.29492
11.8625
12.096
11.9338
11.8089
11.6678
11.5891
11.5436
11.5474
11.6123
11.7405
11.8795
11.9426
11.9206
11.8649
11.7759
11.6321
11.4596
11.3508
11.3091
11.2854
11.3037
11.3769
11.5131
11.6557
11.7184
11.6963
1
1
1
1
1
1
1
1
1
1
1
1
1
1
1
1
1
1
1
1
1
1
1
1
1
1
1
1
1
1
1
1
1
1
1
1
1
1
1
1
1
1
1
1
1
1
1
1
1
1
1
1
1
1
1
1
1
1
1
1
1
1
1
1
1
1
1
1
1
5.39367
11.8556
12.0733
11.9299
11.8192
11.6752
11.5822
11.5351
11.5265
11.5758
11.6887
11.8356
11.923
11.9205
11.871
11.7955
11.6706
11.5012
11.3656
11.3095
11.2774
11.2795
11.3309
11.4458
11.597
11.6941
11.6969
1
1
1
1
1
1
1
1
1
1
1
1
1
1
1
1
1
1
1
1
1
1
1
1
1
1
1
1
1
1
1
1
1
1
1
1
1
1
1
1
1
1
1
1
1
1
1
1
1
1
1
1
1
1
1
1
1
1
1
1
1
1
1
1
1
1
1
1
1
5.50872
11.8454
12.0511
11.9232
11.8297
11.6894
11.5804
11.5303
11.5101
11.5421
11.6348
11.7793
11.8918
11.9153
11.875
11.8109
11.7068
11.5519
11.3955
11.3145
11.277
11.2618
11.2913
11.3784
11.5212
11.6495
11.6866
1
1
1
1
1
1
1
1
1
1
1
1
1
1
1
1
1
1
1
1
1
1
1
1
1
1
1
1
1
1
1
1
1
1
1
1
1
1
1
1
1
1
1
1
1
1
1
1
1
1
1
1
1
1
1
1
1
1
1
1
1
1
1
1
1
1
1
1
1
5.63685
11.8329
12.0317
11.9168
11.8397
11.7102
11.5878
11.5273
11.498
11.5128
11.5818
11.7114
11.8452
11.9001
11.8768
11.8219
11.7378
11.6066
11.4451
11.3314
11.2843
11.2557
11.2635
11.32
11.4373
11.5817
11.658
1
1
1
1
1
1
1
1
1
1
1
1
1
1
1
1
1
1
1
1
1
1
1
1
1
1
1
1
1
1
1
1
1
1
1
1
1
1
1
1
1
1
1
1
1
1
1
1
1
1
1
1
1
1
1
1
1
1
1
1
1
1
1
1
1
1
1
1
1
5.77616
11.8188
12.0157
11.9133
11.8497
11.735
11.6063
11.5268
11.4905
11.488
11.5334
11.6387
11.781
11.8698
11.8745
11.8296
11.7637
11.6587
11.5107
11.3692
11.2984
11.2627
11.2488
11.2765
11.3586
11.4933
11.6051
1
1
1
1
1
1
1
1
1
1
1
1
1
1
1
1
1
1
1
1
1
1
1
1
1
1
1
1
1
1
1
1
1
1
1
1
1
1
1
1
1
1
1
1
1
1
1
1
1
1
1
1
1
1
1
1
1
1
1
1
1
1
1
1
1
1
1
1
1
5.92702
11.8019
12.0024
11.9138
11.8601
11.7601
11.6352
11.5327
11.487
11.4687
11.4925
11.5698
11.7021
11.8227
11.8631
11.8362
11.7838
11.7031
11.5803
11.4309
11.3237
11.2773
11.2476
11.2495
11.2958
11.4001
11.5255
1
1
1
1
1
1
1
1
1
1
1
1
1
1
1
1
1
1
1
1
1
1
1
1
1
1
1
1
1
1
1
1
1
1
1
1
1
1
1
1
1
1
1
1
1
1
1
1
1
1
1
1
1
1
1
1
1
1
1
1
1
1
1
1
1
1
1
1
1
6.09129
11.7814
11.9906
11.9173
11.8704
11.7827
11.6692
11.5506
11.4863
11.4567
11.4615
11.5116
11.6205
11.7579
11.8375
11.8388
11.7976
11.7366
11.6407
11.5056
11.3696
11.2957
11.2575
11.237
11.2532
11.3193
11.4303
1
1
1
1
1
1
1
1
1
1
1
1
1
1
1
1
1
1
1
1
1
1
1
1
1
1
1
1
1
1
1
1
1
1
1
1
1
1
1
1
1
1
1
1
1
1
1
1
1
1
1
1
1
1
1
1
1
1
1
1
1
1
1
1
1
1
1
1
1
6.27127
11.7599
11.975
11.9195
11.8798
11.8022
11.7029
11.5805
11.4914
11.4533
11.4406
11.4676
11.5475
11.6785
11.7935
11.8304
11.806
11.7583
11.6853
11.5756
11.4366
11.3243
11.272
11.2386
11.2293
11.2614
11.3408
1
1
1
1
1
1
1
1
1
1
1
1
1
1
1
1
1
1
1
1
1
1
1
1
1
1
1
1
1
1
1
1
1
1
1
1
1
1
1
1
1
1
1
1
1
1
1
1
1
1
1
1
1
1
1
1
1
1
1
1
1
1
1
1
1
1
1
1
1
6.46606
11.745
11.9509
11.9175
11.8857
11.8189
11.7337
11.6189
11.5086
11.4551
11.4299
11.4374
11.4884
11.5958
11.7288
11.8048
11.8073
11.7697
11.7144
11.6301
11.51
11.3765
11.2909
11.2496
11.2223
11.2276
11.2728
1
1
1
1
1
1
1
1
1
1
1
1
1
1
1
1
1
1
1
1
1
1
1
1
1
1
1
1
1
1
1
1
1
1
1
1
1
1
1
1
1
1
1
1
1
1
1
1
1
1
1
1
1
1
1
1
1
1
1
1
1
1
1
1
1
1
1
1
1
6.67493
11.7359
11.92
11.9132
11.8878
11.8329
11.7607
11.6598
11.5408
11.4611
11.4276
11.4167
11.4434
11.5206
11.6465
11.7584
11.7961
11.7761
11.7327
11.6691
11.5747
11.4482
11.328
11.2652
11.2299
11.2132
11.2297
1
1
1
1
1
1
1
1
1
1
1
1
1
1
1
1
1
1
1
1
1
1
1
1
1
1
1
1
1
1
1
1
1
1
1
1
1
1
1
1
1
1
1
1
1
1
1
1
1
1
1
1
1
1
1
1
1
1
1
1
1
1
1
1
1
1
1
1
1.00902
6.90054
11.7204
11.8865
11.9057
11.8869
11.8436
11.7843
11.6978
11.584
11.4778
11.4283
11.4038
11.4104
11.4584
11.5603
11.6894
11.7678
11.7766
11.7448
11.6969
11.6254
11.5216
11.3929
11.2917
11.2444
11.2147
11.2074
1
1
1
1
1
1
1
1
1
1
1
1
1
1
1
1
1
1
1
1
1
1
1
1
1
1
1
1
1
1
1
1
1
1
1
1
1
1
1
1
1
1
1
1
1
1
1
1
1
1
1
1
1
1
1
1
1
1
1
1
1
1
1
1
1
1
1
1
1.05439
7.12773
11.6956
11.8517
11.8918
11.8842
11.8507
11.8051
11.7303
11.6294
11.5109
11.4319
11.3989
11.387
11.4114
11.4836
11.6038
11.7185
11.7647
11.7539
11.7166
11.6631
11.5834
11.4707
11.3457
11.265
11.2266
11.2011
1
1
1
1
1
1
1
1
1
1
1
1
1
1
1
1
1
1
1
1
1
1
1
1
1
1
1
1
1
1
1
1
1
1
1
1
1
1
1
1
1
1
1
1
1
1
1
1
1
1
1
1
1
1
1
1
1
1
1
1
1
1
1
1
1
1
1
1
1.12503
7.36686
11.6567
11.8115
11.8689
11.8814
11.853
11.8206
11.7575
11.6707
11.5565
11.449
11.3989
11.3746
11.3795
11.4234
11.5185
11.6453
11.7335
11.7533
11.7303
11.6891
11.6292
11.5409
11.422
11.3059
11.2442
11.2081
1
1
1
1
1
1
1
1
1
1
1
1
1
1
1
1
1
1
1
1
1
1
1
1
1
1
1
1
1
1
1
1
1
1
1
1
1
1
1
1
1
1
1
1
1
1
1
1
1
1
1
1
1
1
1
1
1
1
1
1
1
1
1
1
1
1
1
1
1.21646
7.62738
11.6068
11.7598
11.8363
11.8733
11.8534
11.8282
11.7786
11.7061
11.6059
11.4874
11.4055
11.374
11.3612
11.3816
11.4457
11.5577
11.6764
11.735
11.7362
11.7051
11.6601
11.594
11.4982
11.3759
11.274
11.2246
1
1
1
1
1
1
1
1
1
1
1
1
1
1
1
1
1
1
1
1
1
1
1
1
1
1
1
1
1
1
1
1
1
1
1
1