/*--------------------------------*- C++ -*----------------------------------*\
  =========                 |
  \\      /  F ield         | OpenFOAM: The Open Source CFD Toolbox
   \\    /   O peration     | Website:  https://openfoam.org
    \\  /    A nd           | Version:  7
     \\/     M anipulation  |
\*---------------------------------------------------------------------------*/
FoamFile
{
    version     2.0;
    format      ascii;
    class       volScalarField;
    location    "3.7";
    object      T;
}
// * * * * * * * * * * * * * * * * * * * * * * * * * * * * * * * * * * * * * //

dimensions      [0 0 0 1 0 0 0];

internalField   nonuniform List<scalar> 
73728
(
1
1
1
1
1
1
1
1
1
1
1
1
1
1
1
1
1
1
1
1
1
1
1
1
1
1
1
1
1
1
1
1
1
1
1
1
1
1
1
1
1
1
1
1
1
1
1
1
1
1
1
1
1
1
1
1
1
1
1
1
1
1
1
1
1
1
1
2.21615
2.92331
2.91399
2.90674
2.90846
2.90795
2.90246
2.89577
2.89425
2.89754
2.90363
2.91253
2.92243
2.92917
2.93472
2.93896
2.94079
2.94016
2.93747
2.93249
2.92873
2.92904
2.93395
2.94248
2.95279
2.96417
2.97745
2.98927
2.99539
1
1
1
1
1
1
1
1
1
1
1
1
1
1
1
1
1
1
1
1
1
1
1
1
1
1
1
1
1
1
1
1
1
1
1
1
1
1
1
1
1
1
1
1
1
1
1
1
1
1
1
1
1
1
1
1
1
1
1
1
1
1
1
1
1
1
1
2.21366
2.92309
2.91353
2.90645
2.90841
2.90775
2.90211
2.89554
2.89428
2.89765
2.90382
2.91277
2.92255
2.92911
2.93458
2.93872
2.94047
2.93979
2.93694
2.9318
2.92794
2.9282
2.93315
2.94223
2.95265
2.9637
2.97488
2.98498
2.99172
1
1
1
1
1
1
1
1
1
1
1
1
1
1
1
1
1
1
1
1
1
1
1
1
1
1
1
1
1
1
1
1
1
1
1
1
1
1
1
1
1
1
1
1
1
1
1
1
1
1
1
1
1
1
1
1
1
1
1
1
1
1
1
1
1
1
1
2.20793
2.92285
2.91279
2.90584
2.9082
2.90734
2.90151
2.89514
2.89424
2.89775
2.90405
2.9131
2.92269
2.92897
2.93431
2.93833
2.93999
2.93921
2.93612
2.9307
2.92664
2.92677
2.93197
2.94166
2.95198
2.96258
2.97241
2.98048
2.98497
1
1
1
1
1
1
1
1
1
1
1
1
1
1
1
1
1
1
1
1
1
1
1
1
1
1
1
1
1
1
1
1
1
1
1
1
1
1
1
1
1
1
1
1
1
1
1
1
1
1
1
1
1
1
1
1
1
1
1
1
1
1
1
1
1
1
1
2.19954
2.9223
2.91175
2.90509
2.90781
2.9067
2.90058
2.89454
2.89416
2.89786
2.90439
2.91361
2.92291
2.92881
2.93387
2.93768
2.93923
2.93832
2.93495
2.92918
2.9248
2.92482
2.93047
2.94057
2.95095
2.96134
2.97034
2.9769
2.9802
1
1
1
1
1
1
1
1
1
1
1
1
1
1
1
1
1
1
1
1
1
1
1
1
1
1
1
1
1
1
1
1
1
1
1
1
1
1
1
1
1
1
1
1
1
1
1
1
1
1
1
1
1
1
1
1
1
1
1
1
1
1
1
1
1
1
1
2.18857
2.92132
2.9105
2.90424
2.90723
2.90573
2.89931
2.89379
2.89402
2.89795
2.90487
2.91429
2.92324
2.92862
2.93326
2.93678
2.93823
2.93722
2.93353
2.92734
2.92259
2.92271
2.92869
2.93882
2.94946
2.95985
2.96847
2.97434
2.97698
1
1
1
1
1
1
1
1
1
1
1
1
1
1
1
1
1
1
1
1
1
1
1
1
1
1
1
1
1
1
1
1
1
1
1
1
1
1
1
1
1
1
1
1
1
1
1
1
1
1
1
1
1
1
1
1
1
1
1
1
1
1
1
1
1
1
1
2.17462
2.91982
2.90912
2.9033
2.9064
2.90437
2.89774
2.89298
2.89385
2.89808
2.90555
2.91524
2.92364
2.92838
2.93247
2.93564
2.93697
2.93589
2.93188
2.92527
2.92031
2.92072
2.92679
2.93656
2.94745
2.95791
2.96631
2.97186
2.97433
1
1
1
1
1
1
1
1
1
1
1
1
1
1
1
1
1
1
1
1
1
1
1
1
1
1
1
1
1
1
1
1
1
1
1
1
1
1
1
1
1
1
1
1
1
1
1
1
1
1
1
1
1
1
1
1
1
1
1
1
1
1
1
1
1
1
1
2.15757
2.91756
2.90758
2.90227
2.9053
2.90265
2.89598
2.89222
2.89364
2.89826
2.90646
2.91643
2.92409
2.92811
2.93153
2.93423
2.93541
2.9343
2.92995
2.92306
2.91825
2.9191
2.925
2.93423
2.94508
2.95541
2.96346
2.96879
2.97137
1
1
1
1
1
1
1
1
1
1
1
1
1
1
1
1
1
1
1
1
1
1
1
1
1
1
1
1
1
1
1
1
1
1
1
1
1
1
1
1
1
1
1
1
1
1
1
1
1
1
1
1
1
1
1
1
1
1
1
1
1
1
1
1
1
1
1
2.13734
2.91422
2.90592
2.90113
2.90387
2.90057
2.89416
2.89158
2.8934
2.89857
2.90767
2.91781
2.92454
2.92784
2.93049
2.93258
2.93352
2.9323
2.92761
2.92073
2.91662
2.91802
2.92368
2.93238
2.94284
2.95262
2.95996
2.96483
2.96734
1
1
1
1
1
1
1
1
1
1
1
1
1
1
1
1
1
1
1
1
1
1
1
1
1
1
1
1
1
1
1
1
1
1
1
1
1
1
1
1
1
1
1
1
1
1
1
1
1
1
1
1
1
1
1
1
1
1
1
1
1
1
1
1
1
1
1
2.11373
2.90948
2.90431
2.89985
2.90203
2.89823
2.89246
2.89114
2.89313
2.89908
2.90916
2.91922
2.92496
2.92762
2.92945
2.93079
2.93132
2.92976
2.92469
2.91826
2.91536
2.91739
2.92302
2.93138
2.94125
2.95013
2.95641
2.96045
2.96245
1
1
1
1
1
1
1
1
1
1
1
1
1
1
1
1
1
1
1
1
1
1
1
1
1
1
1
1
1
1
1
1
1
1
1
1
1
1
1
1
1
1
1
1
1
1
1
1
1
1
1
1
1
1
1
1
1
1
1
1
1
1
1
1
1
1
1
2.08626
2.90302
2.90307
2.89823
2.89973
2.8958
2.89116
2.89082
2.89295
2.89991
2.9109
2.92051
2.92528
2.92745
2.92847
2.92902
2.92891
2.92655
2.92108
2.91559
2.91426
2.91706
2.92291
2.93123
2.9406
2.94839
2.95348
2.95644
2.95769
1
1
1
1
1
1
1
1
1
1
1
1
1
1
1
1
1
1
1
1
1
1
1
1
1
1
1
1
1
1
1
1
1
1
1
1
1
1
1
1
1
1
1
1
1
1
1
1
1
1
1
1
1
1
1
1
1
1
1
1
1
1
1
1
1
1
1
2.05503
2.89481
2.90183
2.89605
2.89701
2.89351
2.89044
2.89054
2.89306
2.90116
2.91276
2.92146
2.92543
2.92727
2.92755
2.92744
2.92634
2.92283
2.91689
2.91273
2.913
2.91686
2.92318
2.93175
2.94075
2.9475
2.95151
2.95338
2.95388
1
1
1
1
1
1
1
1
1
1
1
1
1
1
1
1
1
1
1
1
1
1
1
1
1
1
1
1
1
1
1
1
1
1
1
1
1
1
1
1
1
1
1
1
1
1
1
1
1
1
1
1
1
1
1
1
1
1
1
1
1
1
1
1
1
1
1
2.02025
2.88466
2.90001
2.89343
2.89404
2.89162
2.89029
2.89035
2.89367
2.90297
2.91457
2.92194
2.92532
2.9269
2.92673
2.92593
2.92372
2.91882
2.91246
2.9098
2.91151
2.91641
2.9235
2.93261
2.94129
2.94723
2.95041
2.95137
2.95117
1
1
1
1
1
1
1
1
1
1
1
1
1
1
1
1
1
1
1
1
1
1
1
1
1
1
1
1
1
1
1
1
1
1
1
1
1
1
1
1
1
1
1
1
1
1
1
1
1
1
1
1
1
1
1
1
1
1
1
1
1
1
1
1
1
1
1
1.98175
2.87219
2.89739
2.89037
2.89116
2.89042
2.89035
2.89053
2.89504
2.90537
2.9161
2.92194
2.92483
2.9262
2.92578
2.9244
2.92106
2.91473
2.90839
2.90721
2.90991
2.91555
2.92355
2.93326
2.94173
2.94717
2.94987
2.95018
2.94927
1
1
1
1
1
1
1
1
1
1
1
1
1
1
1
1
1
1
1
1
1
1
1
1
1
1
1
1
1
1
1
1
1
1
1
1
1
1
1
1
1
1
1
1
1
1
1
1
1
1
1
1
1
1
1
1
1
1
1
1
1
1
1
1
1
1
1
1.93918
2.85695
2.8938
2.88705
2.88882
2.89002
2.89042
2.89125
2.8973
2.90826
2.9172
2.92151
2.92391
2.92503
2.92453
2.92268
2.91819
2.91077
2.90525
2.90526
2.90861
2.9147
2.92342
2.93343
2.9415
2.94661
2.94922
2.94924
2.94766
1
1
1
1
1
1
1
1
1
1
1
1
1
1
1
1
1
1
1
1
1
1
1
1
1
1
1
1
1
1
1
1
1
1
1
1
1
1
1
1
1
1
1
1
1
1
1
1
1
1
1
1
1
1
1
1
1
1
1
1
1
1
1
1
1
1
1
1.89194
2.83837
2.88911
2.88408
2.88744
2.89006
2.89055
2.89258
2.9005
2.91131
2.91785
2.92081
2.92258
2.92334
2.92278
2.92044
2.91484
2.90713
2.90329
2.90414
2.90791
2.91436
2.9235
2.93322
2.94041
2.94508
2.94761
2.94753
2.94537
1
1
1
1
1
1
1
1
1
1
1
1
1
1
1
1
1
1
1
1
1
1
1
1
1
1
1
1
1
1
1
1
1
1
1
1
1
1
1
1
1
1
1
1
1
1
1
1
1
1
1
1
1
1
1
1
1
1
1
1
1
1
1
1
1
1
1
1.8391
2.81577
2.88332
2.88226
2.88729
2.89013
2.89086
2.89474
2.90444
2.91397
2.91817
2.92
2.92101
2.92121
2.92039
2.91719
2.91077
2.90405
2.9023
2.90378
2.90801
2.91499
2.92434
2.93312
2.93901
2.94286
2.94492
2.94469
2.94184
1
1
1
1
1
1
1
1
1
1
1
1
1
1
1
1
1
1
1
1
1
1
1
1
1
1
1
1
1
1
1
1
1
1
1
1
1
1
1
1
1
1
1
1
1
1
1
1
1
1
1
1
1
1
1
1
1
1
1
1
1
1
1
1
1
1
1
1.77977
2.78867
2.87717
2.88205
2.88792
2.89005
2.89159
2.89792
2.90845
2.91578
2.91833
2.91921
2.91936
2.91888
2.91708
2.91283
2.90622
2.90168
2.90169
2.9041
2.90904
2.91684
2.92616
2.93352
2.93796
2.9407
2.94191
2.94117
2.93719
1
1
1
1
1
1
1
1
1
1
1
1
1
1
1
1
1
1
1
1
1
1
1
1
1
1
1
1
1
1
1
1
1
1
1
1
1
1
1
1
1
1
1
1
1
1
1
1
1
1
1
1
1
1
1
1
1
1
1
1
1
1
1
1
1
1
1
1.71297
2.7569
2.87205
2.88296
2.88851
2.89013
2.89327
2.90194
2.91156
2.91669
2.9184
2.91848
2.91782
2.91619
2.91317
2.9078
2.90171
2.89987
2.90118
2.9048
2.91086
2.91962
2.92855
2.93438
2.93761
2.93919
2.93944
2.9376
2.93195
1
1
1
1
1
1
1
1
1
1
1
1
1
1
1
1
1
1
1
1
1
1
1
1
1
1
1
1
1
1
1
1
1
1
1
1
1
1
1
1
1
1
1
1
1
1
1
1
1
1
1
1
1
1
1
1
1
1
1
1
1
1
1
1
1
1
1
1.63794
2.72053
2.86884
2.8844
2.88926
2.8911
2.89638
2.9059
2.91327
2.917
2.91823
2.91777
2.91611
2.91326
2.90896
2.90263
2.89815
2.89824
2.90078
2.90556
2.91305
2.92269
2.93085
2.93546
2.93767
2.93836
2.9377
2.93422
2.92669
1
1
1
1
1
1
1
1
1
1
1
1
1
1
1
1
1
1
1
1
1
1
1
1
1
1
1
1
1
1
1
1
1
1
1
1
1
1
1
1
1
1
1
1
1
1
1
1
1
1
1
1
1
1
1
1
1
1
1
1
1
1
1
1
1
1
1
1.55525
2.68001
2.86771
2.8859
2.89075
2.89359
2.90058
2.90879
2.91386
2.91694
2.91765
2.91667
2.91396
2.91007
2.90456
2.89815
2.89595
2.89706
2.90051
2.90645
2.91537
2.92531
2.93239
2.93621
2.93769
2.93771
2.93599
2.93083
2.92168
1
1
1
1
1
1
1
1
1
1
1
1
1
1
1
1
1
1
1
1
1
1
1
1
1
1
1
1
1
1
1
1
1
1
1
1
1
1
1
1
1
1
1
1
1
1
1
1
1
1
1
1
1
1
1
1
1
1
1
1
1
1
1
1
1
1
1
1.46657
2.63613
2.86851
2.88803
2.89346
2.89756
2.90466
2.91031
2.9139
2.91643
2.91653
2.91466
2.91113
2.90644
2.90018
2.89517
2.89482
2.89657
2.90074
2.90789
2.91781
2.9271
2.93296
2.93617
2.93707
2.93653
2.93359
2.927
2.91692
1
1
1
1
1
1
1
1
1
1
1
1
1
1
1
1
1
1
1
1
1
1
1
1
1
1
1
1
1
1
1
1
1
1
1
1
1
1
1
1
1
1
1
1
1
1
1
1
1
1
1
1
1
1
1
1
1
1
1
1
1
1
1
1
1
1
1
1.37458
2.59011
2.87184
2.89143
2.89733
2.90206
2.90756
2.91101
2.91375
2.91544
2.91461
2.91174
2.90757
2.90216
2.89622
2.89376
2.8944
2.89692
2.90205
2.91044
2.92045
2.92811
2.93271
2.93511
2.93553
2.93435
2.93017
2.92219
2.91239
1
1
1
1
1
1
1
1
1
1
1
1
1
1
1
1
1
1
1
1
1
1
1
1
1
1
1
1
1
1
1
1
1
1
1
1
1
1
1
1
1
1
1
1
1
1
1
1
1
1
1
1
1
1
1
1
1
1
1
1
1
1
1
1
1
1
1
1.28395
2.54375
2.8775
2.8963
2.90174
2.90587
2.909
2.91144
2.91355
2.91395
2.91205
2.90813
2.90319
2.89738
2.89335
2.89321
2.8947
2.89825
2.90477
2.91423
2.9232
2.92876
2.93193
2.93334
2.93323
2.93099
2.92526
2.91612
2.90818
1
1
1
1
1
1
1
1
1
1
1
1
1
1
1
1
1
1
1
1
1
1
1
1
1
1
1
1
1
1
1
1
1
1
1
1
1
1
1
1
1
1
1
1
1
1
1
1
1
1
1
1
1
1
1
1
1
1
1
1
1
1
1
1
1
1
1
1.19867
2.4989
2.88522
2.90197
2.90571
2.90818
2.90953
2.91169
2.91297
2.91226
2.90895
2.90398
2.89816
2.89297
2.89179
2.89286
2.89556
2.90053
2.90882
2.91863
2.92569
2.92939
2.93105
2.93146
2.93033
2.92643
2.91881
2.90955
2.90422
1
1
1
1
1
1
1
1
1
1
1
1
1
1
1
1
1
1
1
1
1
1
1
1
1
1
1
1
1
1
1
1
1
1
1
1
1
1
1
1
1
1
1
1
1
1
1
1
1
1
1
1
1
1
1
1
1
1
1
1
1
1
1
1
1
1
1
1.12156
2.45633
2.89448
2.90722
2.90859
2.90901
2.90956
2.91153
2.91198
2.91015
2.9055
2.89939
2.89322
2.89024
2.89076
2.89287
2.8968
2.9037
2.9136
2.92254
2.92757
2.92973
2.93035
2.92975
2.92701
2.92107
2.9118
2.90408
2.90037
1
1
1
1
1
1
1
1
1
1
1
1
1
1
1
1
1
1
1
1
1
1
1
1
1
1
1
1
1
1
1
1
1
1
1
1
1
1
1
1
1
1
1
1
1
1
1
1
1
1
1
1
1
1
1
1
1
1
1
1
1
1
1
1
1
1
1
1.05377
2.41528
2.90387
2.91092
2.9103
2.90892
2.90907
2.91084
2.9105
2.90745
2.90158
2.8946
2.88952
2.88905
2.89027
2.89331
2.89878
2.90777
2.91807
2.92503
2.92846
2.92966
2.92957
2.92787
2.92337
2.91535
2.90587
2.90046
2.89715
1
1
1
1
1
1
1
1
1
1
1
1
1
1
1
1
1
1
1
1
1
1
1
1
1
1
1
1
1
1
1
1
1
1
1
1
1
1
1
1
1
1
1
1
1
1
1
1
1
1
1
1
1
1
1
1
1
1
1
1
1
1
1
1
1
1
1
1.00352
2.37507
2.91146
2.91334
2.91077
2.90834
2.90818
2.9095
2.90836
2.90403
2.89696
2.89027
2.88792
2.88855
2.89058
2.89473
2.90212
2.91246
2.92122
2.92608
2.92835
2.929
2.92831
2.92536
2.919
2.90959
2.90207
2.89809
2.89512
1
1
1
1
1
1
1
1
1
1
1
1
1
1
1
1
1
1
1
1
1
1
1
1
1
1
1
1
1
1
1
1
1
1
1
1
1
1
1
1
1
1
1
1
1
1
1
1
1
1
1
1
1
1
1
1
1
1
1
1
1
1
1
1
1
1
1
1
2.33781
2.91648
2.91555
2.91009
2.90712
2.90688
2.90763
2.90554
2.89962
2.89189
2.88742
2.88748
2.88879
2.89197
2.89779
2.90709
2.91684
2.92286
2.92599
2.9275
2.9276
2.9261
2.92161
2.91345
2.90458
2.89968
2.89633
2.89427
1
1
1
1
1
1
1
1
1
1
1
1
1
1
1
1
1
1
1
1
1
1
1
1
1
1
1
1
1
1
1
1
1
1
1
1
1
1
1
1
1
1
1
1
1
1
1
1
1
1
1
1
1
1
1
1
1
1
1
1
1
1
1
1
1
1
1
1
2.299
2.91995
2.91716
2.90819
2.90561
2.90549
2.90555
2.90188
2.89417
2.88757
2.88642
2.88735
2.88992
2.89472
2.90278
2.91278
2.91991
2.92342
2.9253
2.92604
2.92542
2.92253
2.91615
2.90719
2.90093
2.89745
2.89504
2.89414
1
1
1
1
1
1
1
1
1
1
1
1
1
1
1
1
1
1
1
1
1
1
1
1
1
1
1
1
1
1
1
1
1
1
1
1
1
1
1
1
1
1
1
1
1
1
1
1
1
1
1
1
1
1
1
1
1
1
1
1
1
1
1
1
1
1
1
1
2.25759
2.92294
2.91599
2.90532
2.90413
2.90419
2.90318
2.89711
2.88881
2.8854
2.88585
2.88779
2.89204
2.89911
2.90894
2.91725
2.92151
2.92346
2.92448
2.9243
2.92239
2.91752
2.90938
2.90178
2.89797
2.89516
2.8941
2.89437
1
1
1
1
1
1
1
1
1
1
1
1
1
1
1
1
1
1
1
1
1
1
1
1
1
1
1
1
1
1
1
1
1
1
1
1
1
1
1
1
1
1
1
1
1
1
1
1
1
1
1
1
1
1
1
1
1
1
1
1
1
1
1
1
1
1
1
1
2.21447
2.92397
2.91286
2.90193
2.9028
2.90285
2.89991
2.89171
2.88535
2.88466
2.88564
2.88921
2.89559
2.90493
2.91426
2.91961
2.92205
2.92339
2.92356
2.92232
2.91849
2.91137
2.90294
2.8981
2.8951
2.89334
2.89341
2.89529
1
1
1
1
1
1
1
1
1
1
1
1
1
1
1
1
1
1
1
1
1
1
1
1
1
1
1
1
1
1
1
1
1
1
1
1
1
1
1
1
1
1
1
1
1
1
1
1
1
1
1
1
1
1
1
1
1
1
1
1
1
1
1
1
1
1
1
1
2.169
2.92107
2.90808
2.89932
2.90165
2.90094
2.8954
2.88731
2.88418
2.88422
2.88655
2.89222
2.90096
2.91081
2.91729
2.92037
2.92224
2.92303
2.92242
2.91958
2.91351
2.90497
2.89865
2.89535
2.89292
2.89227
2.89348
2.89736
1
1
1
1
1
1
1
1
1
1
1
1
1
1
1
1
1
1
1
1
1
1
1
1
1
1
1
1
1
1
1
1
1
1
1
1
1
1
1
1
1
1
1
1
1
1
1
1
1
1
1
1
1
1
1
1
1
1
1
1
1
1
1
1
1
1
1
1
2.12019
2.91311
2.90333
2.89748
2.90017
2.89774
2.89062
2.88518
2.88371
2.88469
2.88917
2.89734
2.90737
2.91487
2.91843
2.92057
2.92206
2.92211
2.92038
2.91551
2.90749
2.89993
2.8961
2.89323
2.89187
2.89215
2.89526
2.90076
1
1
1
1
1
1
1
1
1
1
1
1
1
1
1
1
1
1
1
1
1
1
1
1
1
1
1
1
1
1
1
1
1
1
1
1
1
1
1
1
1
1
1
1
1
1
1
1
1
1
1
1
1
1
1
1
1
1
1
1
1
1
1
1
1
1
1
1
2.06631
2.89972
2.90044
2.89613
2.89756
2.89345
2.88746
2.88437
2.88388
2.88659
2.89393
2.90412
2.91273
2.91685
2.91881
2.92051
2.92124
2.92041
2.91684
2.90979
2.90158
2.89686
2.89396
2.89209
2.89181
2.8937
2.89903
2.90485
1
1
1
1
1
1
1
1
1
1
1
1
1
1
1
1
1
1
1
1
1
1
1
1
1
1
1
1
1
1
1
1
1
1
1
1
1
1
1
1
1
1
1
1
1
1
1
1
1
1
1
1
1
1
1
1
1
1
1
1
1
1
1
1
1
1
1
1
2.00744
2.88203
2.89904
2.89394
2.8937
2.88983
2.88622
2.88406
2.88493
2.8905
2.9006
2.91055
2.9158
2.91765
2.9191
2.92011
2.91987
2.91745
2.91155
2.90328
2.89741
2.89445
2.89234
2.89176
2.89292
2.89735
2.90382
2.90819
1
1
1
1
1
1
1
1
1
1
1
1
1
1
1
1
1
1
1
1
1
1
1
1
1
1
1
1
1
1
1
1
1
1
1
1
1
1
1
1
1
1
1
1
1
1
1
1
1
1
1
1
1
1
1
1
1
1
1
1
1
1
1
1
1
1
1
1
1.94616
2.86075
2.89661
2.8907
2.89023
2.88839
2.88571
2.88456
2.88756
2.89651
2.90764
2.91471
2.91712
2.91829
2.91922
2.91933
2.91777
2.913
2.90513
2.89809
2.89468
2.89232
2.89151
2.89216
2.8958
2.90214
2.90785
2.90985
1
1
1
1
1
1
1
1
1
1
1
1
1
1
1
1
1
1
1
1
1
1
1
1
1
1
1
1
1
1
1
1
1
1
1
1
1
1
1
1
1
1
1
1
1
1
1
1
1
1
1
1
1
1
1
1
1
1
1
1
1
1
1
1
1
1
1
1
1.88246
2.83581
2.8921
2.88761
2.88884
2.88795
2.88576
2.88621
2.89251
2.90378
2.91294
2.9167
2.91789
2.91867
2.91893
2.91799
2.91438
2.90729
2.89943
2.89509
2.89244
2.89116
2.89138
2.89413
2.90008
2.90653
2.90985
2.91014
1
1
1
1
1
1
1
1
1
1
1
1
1
1
1
1
1
1
1
1
1
1
1
1
1
1
1
1
1
1
1
1
1
1
1
1
1
1
1
1
1
1
1
1
1
1
1
1
1
1
1
1
1
1
1
1
1
1
1
1
1
1
1
1
1
1
1
1
1.81494
2.8067
2.88604
2.88612
2.88924
2.88811
2.88677
2.88981
2.89945
2.91024
2.91596
2.9177
2.91842
2.91861
2.91801
2.91542
2.90952
2.90146
2.896
2.89308
2.89118
2.89094
2.89271
2.89795
2.9047
2.90911
2.91017
2.9091
1
1
1
1
1
1
1
1
1
1
1
1
1
1
1
1
1
1
1
1
1
1
1
1
1
1
1
1
1
1
1
1
1
1
1
1
1
1
1
1
1
1
1
1
1
1
1
1
1
1
1
1
1
1
1
1
1
1
1
1
1
1
1
1
1
1
1
1
1.74256
2.77341
2.88056
2.88663
2.88967
2.88884
2.88936
2.89575
2.9066
2.91456
2.91756
2.9185
2.91856
2.91796
2.91597
2.91131
2.90374
2.89725
2.89402
2.89175
2.89097
2.89196
2.89626
2.90291
2.90817
2.90992
2.90924
2.9072
1
1
1
1
1
1
1
1
1
1
1
1
1
1
1
1
1
1
1
1
1
1
1
1
1
1
1
1
1
1
1
1
1
1
1
1
1
1
1
1
1
1
1
1
1
1
1
1
1
1
1
1
1
1
1
1
1
1
1
1
1
1
1
1
1
1
1
1
1.66495
2.73663
2.87724
2.88775
2.89039
2.89085
2.89395
2.90272
2.91206
2.91708
2.91879
2.919
2.91831
2.91642
2.9126
2.90589
2.8987
2.89485
2.89242
2.89126
2.8917
2.89509
2.90144
2.9074
2.90985
2.9096
2.90752
2.90513
1
1
1
1
1
1
1
1
1
1
1
1
1
1
1
1
1
1
1
1
1
1
1
1
1
1
1
1
1
1
1
1
1
1
1
1
1
1
1
1
1
1
1
1
1
1
1
1
1
1
1
1
1
1
1
1
1
1
1
1
1
1
1
1
1
1
1
1
1.58325
2.69715
2.87594
2.88918
2.89259
2.89437
2.8999
2.90883
2.91554
2.91873
2.91973
2.91923
2.91734
2.91383
2.90794
2.90049
2.89564
2.89298
2.89146
2.8915
2.89405
2.89998
2.90661
2.91002
2.91029
2.90844
2.9059
2.90277
1
1
1
1
1
1
1
1
1
1
1
1
1
1
1
1
1
1
1
1
1
1
1
1
1
1
1
1
1
1
1
1
1
1
1
1
1
1
1
1
1
1
1
1
1
1
1
1
1
1
1
1
1
1
1
1
1
1
1
1
1
1
1
1
1
1
1
1
1.49899
2.65603
2.87668
2.8917
2.89609
2.89928
2.90598
2.91326
2.91764
2.92006
2.92026
2.91883
2.91544
2.91006
2.90273
2.89677
2.89372
2.89167
2.89128
2.89294
2.89824
2.90536
2.91005
2.91105
2.90971
2.90714
2.90409
2.89978
1
1
1
1
1
1
1
1
1
1
1
1
1
1
1
1
1
1
1
1
1
1
1
1
1
1
1
1
1
1
1
1
1
1
1
1
1
1
1
1
1
1
1
1
1
1
1
1
1
1
1
1
1
1
1
1
1
1
1
1
1
1
1
1
1
1
1
1
1.41418
2.6144
2.87965
2.89557
2.90068
2.9049
2.91108
2.91619
2.91919
2.92098
2.92035
2.91745
2.91238
2.90535
2.89848
2.8948
2.89233
2.89127
2.89207
2.89634
2.90355
2.90956
2.91157
2.91089
2.90843
2.90557
2.90146
2.89558
1
1
1
1
1
1
1
1
1
1
1
1
1
1
1
1
1
1
1
1
1
1
1
1
1
1
1
1
1
1
1
1
1
1
1
1
1
1
1
1
1
1
1
1
1
1
1
1
1
1
1
1
1
1
1
1
1
1
1
1
1
1
1
1
1
1
1
1
1.33214
2.5736
2.88447
2.90064
2.90588
2.91022
2.91487
2.91815
2.92065
2.92146
2.91967
2.91499
2.90821
2.90072
2.89604
2.89344
2.89173
2.8918
2.89473
2.90144
2.90853
2.9118
2.91182
2.90965
2.90687
2.90311
2.89742
2.89
1
1
1
1
1
1
1
1
1
1
1
1
1
1
1
1
1
1
1
1
1
1
1
1
1
1
1
1
1
1
1
1
1
1
1
1
1
1
1
1
1
1
1
1
1
1
1
1
1
1
1
1
1
1
1
1
1
1
1
1
1
1
1
1
1
1
1
1
1.2561
2.53525
2.8907
2.90639
2.91105
2.91457
2.91751
2.91974
2.92197
2.92163
2.91806
2.9115
2.90357
2.89745
2.89462
2.89256
2.89202
2.8937
2.89935
2.90701
2.9118
2.91261
2.91091
2.9081
2.90458
2.89937
2.89185
2.88417
1
1
1
1
1
1
1
1
1
1
1
1
1
1
1
1
1
1
1
1
1
1
1
1
1
1
1
1
1
1
1
1
1
1
1
1
1
1
1
1
1
1
1
1
1
1
1
1
1
1
1
1
1
1
1
1
1
1
1
1
1
1
1
1
1
1
1
1
1.18796
2.50018
2.89801
2.91212
2.91549
2.9179
2.91917
2.92143
2.92294
2.92129
2.91562
2.90737
2.89962
2.89573
2.89351
2.89244
2.89317
2.8974
2.90496
2.91134
2.91331
2.91223
2.90946
2.90608
2.90125
2.89422
2.88581
2.88011
1
1
1
1
1
1
1
1
1
1
1
1
1
1
1
1
1
1
1
1
1
1
1
1
1
1
1
1
1
1
1
1
1
1
1
1
1
1
1
1
1
1
1
1
1
1
1
1
1
1
1
1
1
1
1
1
1
1
1
1
1
1
1
1
1
1
1
1
1.12878
2.46842
2.90583
2.91726
2.91902
2.9202
2.92053
2.92304
2.9235
2.92019
2.91245
2.90333
2.89728
2.89468
2.89297
2.89303
2.89574
2.90242
2.91005
2.91366
2.91347
2.91092
2.90771
2.90322
2.89668
2.88823
2.88122
2.87805
1
1
1
1
1
1
1
1
1
1
1
1
1
1
1
1
1
1
1
1
1
1
1
1
1
1
1
1
1
1
1
1
1
1
1
1
1
1
1
1
1
1
1
1
1
1
1
1
1
1
1
1
1
1
1
1
1
1
1
1
1
1
1
1
1
1
1
1
1.07842
2.43927
2.91352
2.92155
2.92184
2.92159
2.92186
2.92436
2.92358
2.91819
2.9088
2.90026
2.89625
2.89397
2.89328
2.89466
2.89983
2.90779
2.91337
2.91438
2.91243
2.90933
2.90521
2.89918
2.89098
2.88294
2.87886
2.87667
1
1
1
1
1
1
1
1
1
1
1
1
1
1
1
1
1
1
1
1
1
1
1
1
1
1
1
1
1
1
1
1
1
1
1
1
1
1
1
1
1
1
1
1
1
1
1
1
1
1
1
1
1
1
1
1
1
1
1
1
1
1
1
1
1
1
1
1
1.03644
2.41201
2.92053
2.92518
2.92416
2.92262
2.92326
2.92499
2.92285
2.91535
2.90519
2.89856
2.89564
2.89396
2.8944
2.89777
2.90497
2.91222
2.91493
2.91387
2.91091
2.90715
2.90168
2.89391
2.88524
2.87975
2.8774
2.87599
1
1
1
1
1
1
1
1
1
1
1
1
1
1
1
1
1
1
1
1
1
1
1
1
1
1
1
1
1
1
1
1
1
1
1
1
1
1
1
1
1
1
1
1
1
1
1
1
1
1
1
1
1
1
1
1
1
1
1
1
1
1
1
1
1
1
1
1
1.00661
2.38691
2.92664
2.92861
2.92589
2.92379
2.92441
2.92504
2.92122
2.91179
2.90228
2.8977
2.89523
2.89474
2.89654
2.90224
2.91024
2.91505
2.91528
2.91262
2.90913
2.90419
2.89703
2.88808
2.8811
2.87808
2.87634
2.87622
1
1
1
1
1
1
1
1
1
1
1
1
1
1
1
1
1
1
1
1
1
1
1
1
1
1
1
1
1
1
1
1
1
1
1
1
1
1
1
1
1
1
1
1
1
1
1
1
1
1
1
1
1
1
1
1
1
1
1
1
1
1
1
1
1
1
1
1
1
2.36491
2.93201
2.93218
2.92706
2.92497
2.92527
2.92467
2.9186
2.90805
2.90041
2.89699
2.89534
2.89604
2.89994
2.90752
2.91445
2.91649
2.9147
2.91134
2.90688
2.90034
2.89154
2.88317
2.87898
2.87682
2.87603
2.87771
1
1
1
1
1
1
1
1
1
1
1
1
1
1
1
1
1
1
1
1
1
1
1
1
1
1
1
1
1
1
1
1
1
1
1
1
1
1
1
1
1
1
1
1
1
1
1
1
1
1
1
1
1
1
1
1
1
1
1
1
1
1
1
1
1
1
1
1
1
2.34477
2.93669
2.93577
2.92783
2.92612
2.92577
2.92355
2.91525
2.90489
2.89922
2.89639
2.89599
2.89816
2.90441
2.91262
2.91713
2.91686
2.91373
2.90974
2.90387
2.89549
2.88617
2.8803
2.87769
2.8761
2.87688
2.88079
1
1
1
1
1
1
1
1
1
1
1
1
1
1
1
1
1
1
1
1
1
1
1
1
1
1
1
1
1
1
1
1
1
1
1
1
1
1
1
1
1
1
1
1
1
1
1
1
1
1
1
1
1
1
1
1
1
1
1
1
1
1
1
1
1
1
1
1
1
2.32522
2.94154
2.939
2.92844
2.92697
2.92589
2.92168
2.91174
2.90272
2.89829
2.89632
2.89711
2.90146
2.90953
2.91656
2.91846
2.91628
2.91259
2.90745
2.89978
2.89002
2.88221
2.87877
2.87672
2.87643
2.8793
2.88562
1
1
1
1
1
1
1
1
1
1
1
1
1
1
1
1
1
1
1
1
1
1
1
1
1
1
1
1
1
1
1
1
1
1
1
1
1
1
1
1
1
1
1
1
1
1
1
1
1
1
1
1
1
1
1
1
1
1
1
1
1
1
1
1
1
1
1
1
1
2.30661
2.94669
2.94156
2.92888
2.92747
2.9255
2.91914
2.90862
2.90137
2.89765
2.89693
2.89919
2.90585
2.91445
2.91912
2.91869
2.91525
2.91084
2.9041
2.89458
2.88502
2.87998
2.87757
2.87647
2.87807
2.88346
2.89198
1
1
1
1
1
1
1
1
1
1
1
1
1
1
1
1
1
1
1
1
1
1
1
1
1
1
1
1
1
1
1
1
1
1
1
1
1
1
1
1
1
1
1
1
1
1
1
1
1
1
1
1
1
1
1
1
1
1
1
1
1
1
1
1
1
1
1
1
1
2.28935
2.95159
2.94373
2.92938
2.9277
2.9244
2.91619
2.9063
2.90048
2.89757
2.89807
2.90244
2.91093
2.91842
2.92048
2.91806
2.91402
2.90831
2.89964
2.88905
2.88156
2.87853
2.87674
2.87723
2.88117
2.88922
2.89873
1
1
1
1
1
1
1
1
1
1
1
1
1
1
1
1
1
1
1
1
1
1
1
1
1
1
1
1
1
1
1
1
1
1
1
1
1
1
1
1
1
1
1
1
1
1
1
1
1
1
1
1
1
1
1
1
1
1
1
1
1
1
1
1
1
1
1
1
1
2.27323
2.95599
2.9457
2.93007
2.92768
2.92277
2.91341
2.90484
2.89979
2.89807
2.89991
2.90658
2.91583
2.92118
2.92095
2.91721
2.91244
2.90505
2.89454
2.88448
2.87962
2.87736
2.87672
2.87919
2.88568
2.89585
2.90436
1
1
1
1
1
1
1
1
1
1
1
1
1
1
1
1
1
1
1
1
1
1
1
1
1
1
1
1
1
1
1
1
1
1
1
1
1
1
1
1
1
1
1
1
1
1
1
1
1
1
1
1
1
1
1
1
1
1
1
1
1
1
1
1
1
1
1
1
1
2.25803
2.95985
2.94745
2.93087
2.92749
2.92099
2.9113
2.90392
2.89939
2.8989
2.90244
2.91109
2.91978
2.92284
2.92069
2.91645
2.91053
2.90126
2.88973
2.88166
2.87853
2.87678
2.8777
2.88235
2.8913
2.90212
2.90804
1
1
1
1
1
1
1
1
1
1
1
1
1
1
1
1
1
1
1
1
1
1
1
1
1
1
1
1
1
1
1
1
1
1
1
1
1
1
1
1
1
1
1
1
1
1
1
1
1
1
1
1
1
1
1
1
1
1
1
1
1
1
1
1
1
1
1
1
1
2.24367
2.96316
2.94905
2.93173
2.92718
2.91934
2.90997
2.90323
2.89939
2.89999
2.90551
2.91533
2.92252
2.92354
2.92017
2.91551
2.90827
2.8973
2.8861
2.88041
2.87795
2.87717
2.87975
2.88656
2.89726
2.90688
2.90997
1
1
1
1
1
1
1
1
1
1
1
1
1
1
1
1
1
1
1
1
1
1
1
1
1
1
1
1
1
1
1
1
1
1
1
1
1
1
1
1
1
1
1
1
1
1
1
1
1
1
1
1
1
1
1
1
1
1
1
1
1
1
1
1
1
1
1
1
1
2.23044
2.9659
2.9506
2.9325
2.92671
2.918
2.90926
2.9027
2.8998
2.90151
2.9088
2.9188
2.92423
2.92353
2.91957
2.9143
2.90565
2.89363
2.88393
2.88005
2.87797
2.87843
2.88266
2.89138
2.90263
2.90997
2.91055
1
1
1
1
1
1
1
1
1
1
1
1
1
1
1
1
1
1
1
1
1
1
1
1
1
1
1
1
1
1
1
1
1
1
1
1
1
1
1
1
1
1
1
1
1
1
1
1
1
1
1
1
1
1
1
1
1
1
1
1
1
1
1
1
1
1
1
1
1
2.21886
2.96801
2.95212
2.933
2.92611
2.91705
2.90894
2.90249
2.90059
2.90342
2.91206
2.92148
2.9252
2.92314
2.91891
2.91282
2.90286
2.89062
2.88286
2.88004
2.87857
2.88024
2.886
2.89618
2.90675
2.91159
2.91045
1
1
1
1
1
1
1
1
1
1
1
1
1
1
1
1
1
1
1
1
1
1
1
1
1
1
1
1
1
1
1
1
1
1
1
1
1
1
1
1
1
1
1
1
1
1
1
1
1
1
1
1
1
1
1
1
1
1
1
1
1
1
1
1
1
1
1
1
1
2.20932
2.96947
2.95336
2.93322
2.9255
2.91647
2.90881
2.90261
2.90158
2.90549
2.91501
2.92347
2.92575
2.92274
2.91819
2.91123
2.90021
2.88838
2.88238
2.88003
2.87941
2.88214
2.88928
2.90035
2.90957
2.91221
2.91002
1
1
1
1
1
1
1
1
1
1
1
1
1
1
1
1
1
1
1
1
1
1
1
1
1
1
1
1
1
1
1
1
1
1
1
1
1
1
1
1
1
1
1
1
1
1
1
1
1
1
1
1
1
1
1
1
1
1
1
1
1
1
1
1
1
1
1
1
1
2.20168
2.97038
2.95425
2.93325
2.925
2.91623
2.90889
2.90307
2.90273
2.90758
2.91742
2.9249
2.9261
2.92244
2.91754
2.90977
2.89796
2.88683
2.88211
2.88008
2.88022
2.88391
2.89211
2.90343
2.91124
2.91228
2.90949
1
1
1
1
1
1
1
1
1
1
1
1
1
1
1
1
1
1
1
1
1
1
1
1
1
1
1
1
1
1
1
1
1
1
1
1
1
1
1
1
1
1
1
1
1
1
1
1
1
1
1
1
1
1
1
1
1
1
1
1
1
1
1
1
1
1
1
1
1
2.19643
2.97083
2.95484
2.93326
2.92463
2.91613
2.90902
2.90363
2.90376
2.90928
2.91915
2.92587
2.92638
2.92232
2.91713
2.9087
2.89637
2.88587
2.8819
2.8801
2.88078
2.88514
2.89404
2.90531
2.91213
2.9122
2.9091
1
1
1
1
1
1
1
1
1
1
1
1
1
1
1
1
1
1
1
1
1
1
1
1
1
1
1
1
1
1
1
1
1
1
1
1
1
1
1
1
1
1
1
1
1
1
1
1
1
1
1
1
1
1
1
1
1
1
1
1
1
1
1
1
1
1
1
1
1
2.19478
2.97098
2.95499
2.93314
2.92433
2.91613
2.90913
2.90401
2.90445
2.91039
2.92023
2.92645
2.92659
2.92231
2.91689
2.90805
2.89546
2.88538
2.8818
2.8801
2.88109
2.88585
2.89513
2.90628
2.91247
2.91203
2.90875
1
1
1
1
1
1
1
1
1
1
1
1
1
1
1
1
1
1
1
1
1
1
1
1
1
1
1
1
1
1
1
1
1
1
1
1
1
1
1
1
1
1
1
1
1
1
1
1
1
1
1
1
1
1
1
1
1
1
1
1
1
1
1
1
1
1
1
1
1
2.19476
2.97097
2.95499
2.93314
2.92433
2.91613
2.90913
2.90401
2.90445
2.9104
2.92024
2.92645
2.92659
2.92231
2.91688
2.90805
2.89545
2.88537
2.8818
2.8801
2.88109
2.88585
2.89513
2.90628
2.91248
2.91204
2.90876
1
1
1
1
1
1
1
1
1
1
1
1
1
1
1
1
1
1
1
1
1
1
1
1
1
1
1
1
1
1
1
1
1
1
1
1
1
1
1
1
1
1
1
1
1
1
1
1
1
1
1
1
1
1
1
1
1
1
1
1
1
1
1
1
1
1
1
1
1
2.19637
2.97081
2.95482
2.93326
2.92463
2.91614
2.90903
2.90364
2.90377
2.9093
2.91917
2.92588
2.92638
2.92232
2.91712
2.90868
2.89636
2.88586
2.8819
2.8801
2.88078
2.88514
2.89405
2.90532
2.91214
2.9122
2.9091
1
1
1
1
1
1
1
1
1
1
1
1
1
1
1
1
1
1
1
1
1
1
1
1
1
1
1
1
1
1
1
1
1
1
1
1
1
1
1
1
1
1
1
1
1
1
1
1
1
1
1
1
1
1
1
1
1
1
1
1
1
1
1
1
1
1
1
1
1
2.20159
2.97035
2.95423
2.93324
2.925
2.91623
2.9089
2.90309
2.90276
2.90761
2.91745
2.92491
2.92611
2.92244
2.91753
2.90974
2.89794
2.88681
2.8821
2.88008
2.88022
2.88392
2.89212
2.90345
2.91125
2.91229
2.9095
1
1
1
1
1
1
1
1
1
1
1
1
1
1
1
1
1
1
1
1
1
1
1
1
1
1
1
1
1
1
1
1
1
1
1
1
1
1
1
1
1
1
1
1
1
1
1
1
1
1
1
1
1
1
1
1
1
1
1
1
1
1
1
1
1
1
1
1
1
2.20921
2.96944
2.95333
2.9332
2.92549
2.91647
2.90882
2.90263
2.9016
2.90553
2.91504
2.92349
2.92576
2.92274
2.91817
2.9112
2.90017
2.88835
2.88236
2.88002
2.87941
2.88215
2.88931
2.90038
2.9096
2.91222
2.91003
1
1
1
1
1
1
1
1
1
1
1
1
1
1
1
1
1
1
1
1
1
1
1
1
1
1
1
1
1
1
1
1
1
1
1
1
1
1
1
1
1
1
1
1
1
1
1
1
1
1
1
1
1
1
1
1
1
1
1
1
1
1
1
1
1
1
1
1
1
2.21873
2.96798
2.95209
2.93298
2.9261
2.91705
2.90895
2.90251
2.90062
2.90345
2.9121
2.9215
2.92521
2.92314
2.91889
2.91278
2.90282
2.89058
2.88284
2.88002
2.87856
2.88025
2.88602
2.89622
2.90679
2.91162
2.91047
1
1
1
1
1
1
1
1
1
1
1
1
1
1
1
1
1
1
1
1
1
1
1
1
1
1
1
1
1
1
1
1
1
1
1
1
1
1
1
1
1
1
1
1
1
1
1
1
1
1
1
1
1
1
1
1
1
1
1
1
1
1
1
1
1
1
1
1
1
2.2303
2.96587
2.95056
2.93247
2.9267
2.918
2.90927
2.90272
2.89984
2.90155
2.90884
2.91883
2.92424
2.92353
2.91955
2.91426
2.9056
2.89358
2.88389
2.88003
2.87796
2.87843
2.88268
2.89142
2.90268
2.91001
2.91057
1
1
1
1
1
1
1
1
1
1
1
1
1
1
1
1
1
1
1
1
1
1
1
1
1
1
1
1
1
1
1
1
1
1
1
1
1
1
1
1
1
1
1
1
1
1
1
1
1
1
1
1
1
1
1
1
1
1
1
1
1
1
1
1
1
1
1
1
1
2.24352
2.96313
2.94901
2.9317
2.92717
2.91933
2.90998
2.90325
2.89941
2.90002
2.90555
2.91535
2.92253
2.92353
2.92015
2.91547
2.90822
2.89725
2.88606
2.88038
2.87794
2.87716
2.87976
2.8866
2.89732
2.90693
2.91
1
1
1
1
1
1
1
1
1
1
1
1
1
1
1
1
1
1
1
1
1
1
1
1
1
1
1
1
1
1
1
1
1
1
1
1
1
1
1
1
1
1
1
1
1
1
1
1
1
1
1
1
1
1
1
1
1
1
1
1
1
1
1
1
1
1
1
1
1
2.25788
2.95983
2.94742
2.93085
2.92748
2.92098
2.91131
2.90393
2.89941
2.89892
2.90247
2.91112
2.91979
2.92284
2.92067
2.91642
2.91048
2.90121
2.88967
2.88163
2.87851
2.87677
2.87771
2.88239
2.89136
2.90219
2.90808
1
1
1
1
1
1
1
1
1
1
1
1
1
1
1
1
1
1
1
1
1
1
1
1
1
1
1
1
1
1
1
1
1
1
1
1
1
1
1
1
1
1
1
1
1
1
1
1
1
1
1
1
1
1
1
1
1
1
1
1
1
1
1
1
1
1
1
1
1
2.27307
2.95598
2.94567
2.93005
2.92768
2.92277
2.91341
2.90485
2.8998
2.89809
2.89993
2.90661
2.91585
2.92118
2.92093
2.91718
2.91241
2.905
2.89448
2.88443
2.87959
2.87735
2.87672
2.87921
2.88573
2.89593
2.90442
1
1
1
1
1
1
1
1
1
1
1
1
1
1
1
1
1
1
1
1
1
1
1
1
1
1
1
1
1
1
1
1
1
1
1
1
1
1
1
1
1
1
1
1
1
1
1
1
1
1
1
1
1
1
1
1
1
1
1
1
1
1
1
1
1
1
1
1
1
2.28919
2.95159
2.94371
2.92937
2.9277
2.9244
2.91618
2.9063
2.90049
2.89758
2.89808
2.90247
2.91095
2.91843
2.92047
2.91804
2.91399
2.90827
2.89958
2.88899
2.88152
2.87851
2.87673
2.87724
2.88121
2.88929
2.8988
1
1
1
1
1
1
1
1
1
1
1
1
1
1
1
1
1
1
1
1
1
1
1
1
1
1
1
1
1
1
1
1
1
1
1
1
1
1
1
1
1
1
1
1
1
1
1
1
1
1
1
1
1
1
1
1
1
1
1
1
1
1
1
1
1
1
1
1
1
2.30643
2.94671
2.94156
2.92887
2.92747
2.9255
2.91912
2.9086
2.90137
2.89765
2.89693
2.8992
2.90588
2.91447
2.91912
2.91867
2.91522
2.9108
2.90405
2.89452
2.88496
2.87995
2.87755
2.87646
2.87809
2.88351
2.89205
1
1
1
1
1
1
1
1
1
1
1
1
1
1
1
1
1
1
1
1
1
1
1
1
1
1
1
1
1
1
1
1
1
1
1
1
1
1
1
1
1
1
1
1
1
1
1
1
1
1
1
1
1
1
1
1
1
1
1
1
1
1
1
1
1
1
1
1
1
2.32504
2.94157
2.93901
2.92844
2.92698
2.92589
2.92166
2.91171
2.9027
2.89828
2.89632
2.89712
2.90148
2.90956
2.91658
2.91845
2.91625
2.91256
2.90741
2.89972
2.88996
2.88216
2.87875
2.87671
2.87643
2.87933
2.88568
1
1
1
1
1
1
1
1
1
1
1
1
1
1
1
1
1
1
1
1
1
1
1
1
1
1
1
1
1
1
1
1
1
1
1
1
1
1
1
1
1
1
1
1
1
1
1
1
1
1
1
1
1
1
1
1
1
1
1
1
1
1
1
1
1
1
1
1
1
2.3446
2.93672
2.9358
2.92783
2.92613
2.92577
2.92353
2.91521
2.90486
2.8992
2.89638
2.89599
2.89818
2.90445
2.91265
2.91713
2.91684
2.9137
2.9097
2.90382
2.89542
2.8861
2.88026
2.87766
2.87609
2.8769
2.88083
1
1
1
1
1
1
1
1
1
1
1
1
1
1
1
1
1
1
1
1
1
1
1
1
1
1
1
1
1
1
1
1
1
1
1
1
1
1
1
1
1
1
1
1
1
1
1
1
1
1
1
1
1
1
1
1
1
1
1
1
1
1
1
1
1
1
1
1
1
2.36475
2.93205
2.93221
2.92707
2.92497
2.92527
2.92465
2.91855
2.908
2.90038
2.89697
2.89533
2.89604
2.89997
2.90757
2.91447
2.91649
2.91467
2.9113
2.90683
2.90027
2.89146
2.88312
2.87896
2.87681
2.87603
2.87774
1
1
1
1
1
1
1
1
1
1
1
1
1
1
1
1
1
1
1
1
1
1
1
1
1
1
1
1
1
1
1
1
1
1
1
1
1
1
1
1
1
1
1
1
1
1
1
1
1
1
1
1
1
1
1
1
1
1
1
1
1
1
1
1
1
1
1
1
1.00644
2.38673
2.92671
2.92865
2.92591
2.9238
2.92441
2.92503
2.92118
2.91172
2.90223
2.89768
2.89521
2.89474
2.89656
2.90228
2.91028
2.91506
2.91526
2.91258
2.90909
2.90413
2.89695
2.88801
2.88105
2.87805
2.87633
2.87623
1
1
1
1
1
1
1
1
1
1
1
1
1
1
1
1
1
1
1
1
1
1
1
1
1
1
1
1
1
1
1
1
1
1
1
1
1
1
1
1
1
1
1
1
1
1
1
1
1
1
1
1
1
1
1
1
1
1
1
1
1
1
1
1
1
1
1
1
1.03614
2.41181
2.92061
2.92522
2.92419
2.92263
2.92327
2.92497
2.92281
2.91528
2.90513
2.89853
2.89561
2.89395
2.8944
2.89781
2.90502
2.91225
2.91493
2.91384
2.91087
2.9071
2.90162
2.89383
2.88516
2.87972
2.87737
2.87598
1
1
1
1
1
1
1
1
1
1
1
1
1
1
1
1
1
1
1
1
1
1
1
1
1
1
1
1
1
1
1
1
1
1
1
1
1
1
1
1
1
1
1
1
1
1
1
1
1
1
1
1
1
1
1
1
1
1
1
1
1
1
1
1
1
1
1
1
1.07802
2.43906
2.91362
2.92161
2.92187
2.9216
2.92187
2.92435
2.92355
2.91813
2.90873
2.90021
2.89622
2.89395
2.89328
2.89468
2.89988
2.90784
2.91338
2.91436
2.91239
2.90929
2.90515
2.89911
2.89089
2.88288
2.87883
2.87665
1
1
1
1
1
1
1
1
1
1
1
1
1
1
1
1
1
1
1
1
1
1
1
1
1
1
1
1
1
1
1
1
1
1
1
1
1
1
1
1
1
1
1
1
1
1
1
1
1
1
1
1
1
1
1
1
1
1
1
1
1
1
1
1
1
1
1
1
1.1283
2.46819
2.90595
2.91733
2.91906
2.92022
2.92054
2.92304
2.92348
2.92014
2.91238
2.90326
2.89725
2.89466
2.89296
2.89304
2.89577
2.90248
2.91008
2.91366
2.91345
2.91088
2.90765
2.90315
2.89659
2.88815
2.88117
2.87802
1
1
1
1
1
1
1
1
1
1
1
1
1
1
1
1
1
1
1
1
1
1
1
1
1
1
1
1
1