/*--------------------------------*- C++ -*----------------------------------*\
  =========                 |
  \\      /  F ield         | OpenFOAM: The Open Source CFD Toolbox
   \\    /   O peration     | Website:  https://openfoam.org
    \\  /    A nd           | Version:  7
     \\/     M anipulation  |
\*---------------------------------------------------------------------------*/
FoamFile
{
    version     2.0;
    format      ascii;
    class       volVectorField;
    location    "3.7";
    object      U;
}
// * * * * * * * * * * * * * * * * * * * * * * * * * * * * * * * * * * * * * //

dimensions      [0 1 -1 0 0 0 0];

internalField   nonuniform List<vector> 
73728
(
(3 5.38766e-18 0)
(3 -1.96005e-16 0)
(3 -1.45084e-16 0)
(3 -2.75645e-16 0)
(3 -3.03047e-17 0)
(3 2.18196e-16 0)
(3 4.54581e-16 0)
(3 1.01308e-15 0)
(3 1.57618e-15 0)
(3 1.84441e-15 0)
(3 6.89025e-16 0)
(3 3.22907e-16 0)
(3 2.9165e-16 0)
(3 5.26046e-16 0)
(3 1.31047e-16 0)
(3 -4.76539e-16 0)
(3 -6.79098e-16 0)
(3 -1.33468e-15 0)
(3 -1.83354e-15 0)
(3 -1.80287e-15 0)
(3 -1.78968e-15 0)
(3 -1.3913e-15 0)
(3 -7.83116e-16 0)
(3 -4.37948e-16 0)
(3 -8.03497e-16 0)
(3 -7.82179e-16 0)
(3 -1.52277e-16 0)
(3 9.27828e-16 0)
(3 1.72223e-15 0)
(3 1.85076e-15 0)
(3 1.89809e-15 0)
(3 1.8541e-15 0)
(3 1.19443e-15 0)
(3 2.37612e-16 0)
(3 -1.18251e-15 0)
(3 -1.44733e-15 0)
(3 -1.7201e-15 0)
(3 -1.24637e-15 0)
(3 -1.06011e-15 0)
(3 -1.03856e-15 0)
(3 -8.74907e-16 0)
(3 1.00044e-16 0)
(3 3.03787e-16 0)
(3 2.42058e-16 0)
(3 -2.73509e-16 0)
(3 -4.50185e-16 0)
(3 -1.0019e-16 0)
(3 9.42147e-17 0)
(3 9.99209e-16 0)
(3 1.78087e-15 0)
(3 7.57306e-16 0)
(3 2.82634e-16 0)
(3 -1.02784e-15 0)
(3 -1.49037e-15 0)
(3 -1.0114e-15 0)
(3 -9.47201e-16 0)
(3 -7.00811e-16 0)
(3 -4.63162e-16 0)
(3 -7.11896e-16 0)
(3 -9.48985e-16 0)
(3 -7.231e-16 0)
(3 -3.63511e-16 0)
(3 -1.06008e-15 0)
(3 -1.62516e-15 0)
(3 -1.41187e-15 0)
(3 -1.59897e-15 0)
(3 -1.53302e-15 0)
(1.34017 0.0017078 0)
(0.653174 0.00121949 0)
(0.621332 0.00472918 0)
(0.613813 0.00261405 0)
(0.603592 0.00267004 0)
(0.590081 0.00290119 0)
(0.572171 0.00293198 0)
(0.556061 0.00284321 0)
(0.547757 0.00287265 0)
(0.544495 0.00300884 0)
(0.544988 0.00319338 0)
(0.549152 0.00346503 0)
(0.554253 0.00376628 0)
(0.554508 0.0040437 0)
(0.551304 0.00426462 0)
(0.546192 0.00454764 0)
(0.537155 0.00480679 0)
(0.525431 0.00507782 0)
(0.509099 0.00537 0)
(0.487457 0.00572679 0)
(0.464981 0.00614541 0)
(0.447474 0.00685982 0)
(0.4338 0.00765468 0)
(0.425542 0.00893975 0)
(0.418994 0.0103904 0)
(0.409286 0.0132184 0)
(0.392396 0.015179 0)
(0.369218 0.027782 0)
(0.316514 0.0372395 0)
(3 -4.76196e-17 0)
(3 -2.56515e-16 0)
(3 -3.13347e-16 0)
(3 -7.87883e-16 0)
(3 -6.58791e-16 0)
(3 2.07853e-16 0)
(3 4.65605e-16 0)
(3 1.10542e-15 0)
(3 2.51045e-15 0)
(3 2.58616e-15 0)
(3 1.84194e-15 0)
(3 1.17277e-15 0)
(3 6.90319e-16 0)
(3 6.74592e-16 0)
(3 6.94995e-16 0)
(3 -5.33571e-16 0)
(3 -1.33357e-15 0)
(3 -1.77489e-15 0)
(3 -1.93505e-15 0)
(3 -2.04471e-15 0)
(3 -1.65817e-15 0)
(3 -9.21725e-16 0)
(3 1.87747e-16 0)
(3 4.75519e-16 0)
(3 8.45275e-17 0)
(3 -1.921e-16 0)
(3 -2.38919e-17 0)
(3 9.72195e-16 0)
(3 1.42042e-15 0)
(3 1.65637e-15 0)
(3 2.1579e-15 0)
(3 1.79813e-15 0)
(3 1.46582e-15 0)
(3 9.01275e-16 0)
(3 -2.66478e-16 0)
(3 -9.6317e-16 0)
(3 -1.50634e-15 0)
(3 -8.85852e-16 0)
(3 1.90654e-16 0)
(3 2.63264e-16 0)
(3 4.10043e-17 0)
(3 4.19776e-16 0)
(3 5.36752e-16 0)
(3 4.56848e-16 0)
(3 -5.27129e-16 0)
(3 -8.49345e-16 0)
(3 -1.2049e-15 0)
(3 -8.99006e-16 0)
(3 -7.96897e-18 0)
(3 1.06731e-15 0)
(3 9.65408e-16 0)
(3 -1.92351e-16 0)
(3 -2.8656e-15 0)
(3 -4.17141e-15 0)
(3 -2.60753e-15 0)
(3 -1.17886e-15 0)
(3 -3.63809e-16 0)
(3 -5.80563e-16 0)
(3 -1.14812e-15 0)
(3 2.02005e-16 0)
(3 1.02114e-15 0)
(3 1.47707e-15 0)
(3 1.14026e-15 0)
(3 1.28716e-15 0)
(3 -5.55926e-16 0)
(3 -1.38505e-15 0)
(3 -2.62888e-15 0)
(1.34429 0.00833868 0)
(0.652507 0.00624031 0)
(0.619146 0.0135518 0)
(0.61229 0.00809378 0)
(0.601714 0.00765096 0)
(0.588192 0.00826353 0)
(0.570368 0.00845921 0)
(0.554798 0.00830144 0)
(0.546817 0.00841459 0)
(0.543771 0.0087778 0)
(0.544387 0.00932826 0)
(0.548707 0.0101916 0)
(0.553772 0.0112436 0)
(0.553896 0.0122186 0)
(0.550637 0.013013 0)
(0.545312 0.0139691 0)
(0.536113 0.0147838 0)
(0.524364 0.0156075 0)
(0.508185 0.0165217 0)
(0.486979 0.0176435 0)
(0.464932 0.0191939 0)
(0.447826 0.0212907 0)
(0.434364 0.0239258 0)
(0.42677 0.0274988 0)
(0.42034 0.0316474 0)
(0.412954 0.0393907 0)
(0.39791 0.0469372 0)
(0.386502 0.0668596 0)
(0.355799 0.0811627 0)
(3 5.68201e-17 0)
(3 -3.48572e-17 0)
(3 9.75014e-17 0)
(3 -1.06569e-16 0)
(3 -2.49545e-16 0)
(3 -3.67923e-16 0)
(3 -3.40062e-16 0)
(3 1.05813e-16 0)
(3 1.10027e-15 0)
(3 1.29421e-15 0)
(3 2.0242e-15 0)
(3 2.68232e-15 0)
(3 1.61993e-15 0)
(3 1.13089e-16 0)
(3 -2.25633e-16 0)
(3 -1.34201e-15 0)
(3 -1.47729e-15 0)
(3 -1.43891e-15 0)
(3 -1.61648e-15 0)
(3 -2.39454e-15 0)
(3 -1.54129e-15 0)
(3 -7.03358e-16 0)
(3 -2.16047e-16 0)
(3 -2.74753e-16 0)
(3 2.18239e-16 0)
(3 2.5502e-16 0)
(3 2.96653e-16 0)
(3 6.30051e-16 0)
(3 1.57832e-15 0)
(3 2.03515e-15 0)
(3 1.17065e-15 0)
(3 1.04513e-15 0)
(3 9.53395e-16 0)
(3 1.13743e-15 0)
(3 1.12536e-15 0)
(3 -4.43696e-16 0)
(3 -9.94098e-16 0)
(3 -1.41259e-16 0)
(3 1.13864e-15 0)
(3 1.16006e-15 0)
(3 6.15733e-16 0)
(3 -1.31191e-16 0)
(3 -4.69739e-16 0)
(3 -3.22547e-16 0)
(3 -5.23216e-16 0)
(3 -6.90582e-16 0)
(3 -1.46644e-15 0)
(3 -1.7047e-15 0)
(3 -2.28168e-15 0)
(3 -1.48773e-15 0)
(3 -1.2195e-15 0)
(3 -1.63625e-15 0)
(3 -1.9683e-15 0)
(3 -1.69962e-15 0)
(3 -1.38389e-15 0)
(3 -5.82541e-16 0)
(3 -9.64019e-17 0)
(3 -1.14922e-15 0)
(3 -1.70843e-15 0)
(3 -6.33489e-16 0)
(3 -3.88981e-16 0)
(3 -5.95103e-16 0)
(3 -6.82371e-16 0)
(3 -8.656e-16 0)
(3 -1.26992e-15 0)
(3 -1.60362e-15 0)
(3 -4.39372e-15 0)
(1.35569 0.0145448 0)
(0.653897 0.0115681 0)
(0.618959 0.0212554 0)
(0.612941 0.0142369 0)
(0.601717 0.0131224 0)
(0.587886 0.0137917 0)
(0.569897 0.0140049 0)
(0.554884 0.0138375 0)
(0.547228 0.0141215 0)
(0.544458 0.0147485 0)
(0.545293 0.0156942 0)
(0.549956 0.0171128 0)
(0.555104 0.0187914 0)
(0.555132 0.0203672 0)
(0.5518 0.0216718 0)
(0.546235 0.0231766 0)
(0.536921 0.024448 0)
(0.525277 0.02575 0)
(0.509425 0.0271604 0)
(0.488856 0.028896 0)
(0.467576 0.0312913 0)
(0.451399 0.0346392 0)
(0.438649 0.0392176 0)
(0.432846 0.0450686 0)
(0.427336 0.0517601 0)
(0.423567 0.0619271 0)
(0.412679 0.0716911 0)
(0.407654 0.090428 0)
(0.3916 0.107178 0)
(3 7.12557e-17 0)
(3 4.9647e-17 0)
(3 -2.19342e-17 0)
(3 1.81774e-16 0)
(3 -5.8131e-17 0)
(3 -3.04568e-16 0)
(3 -1.96925e-16 0)
(3 -8.41956e-17 0)
(3 1.68506e-16 0)
(3 1.65118e-16 0)
(3 1.2031e-15 0)
(3 1.84769e-15 0)
(3 2.28796e-15 0)
(3 2.33213e-15 0)
(3 9.92942e-16 0)
(3 9.16412e-16 0)
(3 7.82491e-16 0)
(3 3.07589e-16 0)
(3 -1.01611e-15 0)
(3 -1.41218e-15 0)
(3 -1.16792e-15 0)
(3 -1.00302e-15 0)
(3 -5.12056e-16 0)
(3 -2.93771e-16 0)
(3 3.81005e-16 0)
(3 4.83942e-16 0)
(3 6.29047e-16 0)
(3 1.05865e-15 0)
(3 1.72131e-15 0)
(3 1.77487e-15 0)
(3 4.50673e-16 0)
(3 5.57131e-16 0)
(3 4.76057e-16 0)
(3 1.36916e-15 0)
(3 1.36213e-15 0)
(3 -4.87127e-17 0)
(3 -1.71595e-16 0)
(3 1.96315e-16 0)
(3 5.95285e-16 0)
(3 7.03734e-17 0)
(3 -1.7872e-16 0)
(3 -1.21069e-15 0)
(3 -2.04818e-15 0)
(3 -1.79396e-15 0)
(3 -1.17582e-15 0)
(3 -1.49323e-15 0)
(3 -1.76288e-15 0)
(3 -6.74832e-16 0)
(3 -4.3437e-16 0)
(3 -1.38573e-15 0)
(3 -1.90694e-15 0)
(3 -1.48457e-15 0)
(3 -1.10005e-15 0)
(3 -9.101e-16 0)
(3 -7.16541e-16 0)
(3 -2.64633e-16 0)
(3 -4.22866e-16 0)
(3 -2.24025e-16 0)
(3 7.69898e-16 0)
(3 2.46979e-16 0)
(3 -1.23565e-15 0)
(3 -2.16703e-15 0)
(3 -2.6585e-15 0)
(3 -2.76353e-15 0)
(3 -2.67818e-15 0)
(3 -2.41142e-15 0)
(3 -2.60815e-15 0)
(1.3722 0.020118 0)
(0.655706 0.0170024 0)
(0.618464 0.0280919 0)
(0.61336 0.0204752 0)
(0.601836 0.0186608 0)
(0.587791 0.0192205 0)
(0.569786 0.0193894 0)
(0.555767 0.0192036 0)
(0.548663 0.019667 0)
(0.546293 0.020491 0)
(0.547526 0.0218264 0)
(0.552701 0.0237624 0)
(0.557949 0.0260318 0)
(0.557917 0.0281821 0)
(0.554374 0.0300602 0)
(0.548498 0.0320653 0)
(0.539047 0.0337574 0)
(0.527503 0.0354723 0)
(0.511985 0.0372564 0)
(0.492164 0.0394164 0)
(0.471934 0.0423908 0)
(0.457316 0.046677 0)
(0.446096 0.0528958 0)
(0.442072 0.0604343 0)
(0.437811 0.0691807 0)
(0.436971 0.0801867 0)
(0.430272 0.0911335 0)
(0.427579 0.107006 0)
(0.418481 0.121883 0)
(3 8.4796e-18 0)
(3 2.03861e-17 0)
(3 1.55006e-17 0)
(3 -4.17983e-16 0)
(3 -5.05547e-16 0)
(3 1.38922e-16 0)
(3 2.71237e-16 0)
(3 2.0372e-16 0)
(3 5.02426e-16 0)
(3 1.08055e-15 0)
(3 8.1003e-16 0)
(3 8.5435e-16 0)
(3 1.52191e-15 0)
(3 1.68835e-15 0)
(3 7.87823e-16 0)
(3 8.75898e-16 0)
(3 9.91275e-16 0)
(3 6.77556e-16 0)
(3 5.51228e-16 0)
(3 -1.18054e-16 0)
(3 -1.01691e-15 0)
(3 -1.06242e-15 0)
(3 -6.57343e-16 0)
(3 -2.96377e-16 0)
(3 -7.39425e-17 0)
(3 -1.15178e-16 0)
(3 -2.0914e-16 0)
(3 2.42927e-16 0)
(3 -3.43224e-16 0)
(3 -5.03032e-16 0)
(3 -2.01476e-16 0)
(3 -3.02373e-16 0)
(3 -3.64447e-16 0)
(3 2.07601e-16 0)
(3 2.63656e-16 0)
(3 2.10027e-16 0)
(3 4.24993e-16 0)
(3 1.91912e-16 0)
(3 2.41005e-16 0)
(3 -9.19609e-16 0)
(3 -1.27954e-15 0)
(3 -1.38356e-15 0)
(3 -1.52556e-15 0)
(3 -2.26402e-15 0)
(3 -2.37508e-15 0)
(3 -2.38294e-15 0)
(3 -1.93237e-15 0)
(3 -1.58816e-15 0)
(3 -1.32131e-15 0)
(3 -1.52865e-15 0)
(3 -2.03206e-15 0)
(3 -2.52451e-15 0)
(3 -3.22089e-15 0)
(3 -3.50033e-15 0)
(3 -3.02521e-15 0)
(3 -1.84813e-15 0)
(3 -1.2136e-15 0)
(3 -1.06983e-15 0)
(3 -5.24547e-16 0)
(3 -6.26997e-16 0)
(3 -1.42013e-15 0)
(3 -2.61152e-15 0)
(3 -3.15932e-15 0)
(3 -2.94282e-15 0)
(3 -3.14383e-15 0)
(3 -3.30227e-15 0)
(3 -4.11348e-15 0)
(1.39367 0.0257604 0)
(0.657752 0.022747 0)
(0.617575 0.0344406 0)
(0.61322 0.0264915 0)
(0.601384 0.0240819 0)
(0.586939 0.0243978 0)
(0.568976 0.0245406 0)
(0.556307 0.0244999 0)
(0.549923 0.0252376 0)
(0.548033 0.0262363 0)
(0.549838 0.028018 0)
(0.555669 0.0304545 0)
(0.561019 0.0332084 0)
(0.560844 0.0357896 0)
(0.55711 0.0381375 0)
(0.55093 0.0405558 0)
(0.541346 0.0426411 0)
(0.529855 0.0447459 0)
(0.514622 0.046813 0)
(0.495541 0.0491883 0)
(0.476681 0.0524888 0)
(0.46424 0.0574889 0)
(0.455375 0.0647003 0)
(0.452821 0.0733397 0)
(0.450268 0.0835729 0)
(0.451027 0.0950409 0)
(0.44759 0.106631 0)
(0.445454 0.120375 0)
(0.439107 0.13375 0)
(3 1.47452e-18 0)
(3 9.3252e-17 0)
(3 2.59805e-16 0)
(3 2.02778e-16 0)
(3 -3.3997e-16 0)
(3 -2.28623e-16 0)
(3 -4.21412e-16 0)
(3 -5.55926e-16 0)
(3 -4.52948e-16 0)
(3 -6.1987e-17 0)
(3 -1.46148e-16 0)
(3 -2.14993e-16 0)
(3 -1.52943e-16 0)
(3 -6.56997e-16 0)
(3 -3.37944e-16 0)
(3 -1.49135e-16 0)
(3 3.23346e-16 0)
(3 2.58715e-16 0)
(3 1.34871e-16 0)
(3 -5.15506e-17 0)
(3 7.2479e-17 0)
(3 8.2192e-17 0)
(3 -9.56784e-17 0)
(3 -7.72868e-16 0)
(3 -1.00185e-15 0)
(3 -6.37128e-16 0)
(3 9.58183e-17 0)
(3 -4.7818e-16 0)
(3 -1.28561e-15 0)
(3 -4.15628e-16 0)
(3 -4.2563e-17 0)
(3 -3.50917e-16 0)
(3 -5.74117e-16 0)
(3 -1.04204e-15 0)
(3 -1.24695e-15 0)
(3 -8.76654e-16 0)
(3 -5.90531e-16 0)
(3 -3.93137e-16 0)
(3 -1.05848e-15 0)
(3 -6.84091e-16 0)
(3 -3.42125e-16 0)
(3 2.31647e-16 0)
(3 -1.19912e-16 0)
(3 -4.22024e-16 0)
(3 -4.44909e-16 0)
(3 -3.79989e-16 0)
(3 -5.93329e-16 0)
(3 -9.05832e-16 0)
(3 -1.20907e-15 0)
(3 -1.45513e-15 0)
(3 -1.54543e-15 0)
(3 -1.81968e-15 0)
(3 -2.11556e-15 0)
(3 -2.39852e-15 0)
(3 -2.49968e-15 0)
(3 -1.90011e-15 0)
(3 -1.3671e-15 0)
(3 -3.14805e-16 0)
(3 -2.12473e-16 0)
(3 -6.66482e-16 0)
(3 -1.87509e-15 0)
(3 -2.37775e-15 0)
(3 -2.47623e-15 0)
(3 -3.0064e-15 0)
(3 -4.41235e-15 0)
(3 -4.62533e-15 0)
(3 -5.09672e-15 0)
(1.42087 0.0314044 0)
(0.66047 0.0286829 0)
(0.616577 0.040588 0)
(0.61282 0.0321762 0)
(0.600585 0.0293107 0)
(0.585654 0.0293397 0)
(0.568079 0.0294655 0)
(0.557095 0.0296103 0)
(0.551573 0.0305856 0)
(0.550165 0.0318422 0)
(0.552633 0.0340994 0)
(0.559121 0.0370845 0)
(0.564366 0.0402465 0)
(0.563991 0.0430301 0)
(0.560195 0.0456805 0)
(0.553737 0.0484659 0)
(0.544051 0.0509464 0)
(0.532463 0.0534394 0)
(0.517352 0.0557042 0)
(0.498895 0.0580816 0)
(0.481686 0.0615087 0)
(0.471806 0.0669533 0)
(0.465607 0.0744784 0)
(0.464452 0.0836489 0)
(0.463901 0.0947742 0)
(0.465182 0.10685 0)
(0.463733 0.11894 0)
(0.461813 0.131607 0)
(0.45673 0.143478 0)
(3 1.98279e-16 0)
(3 3.16237e-16 0)
(3 9.05698e-17 0)
(3 1.22621e-16 0)
(3 -2.34794e-16 0)
(3 -8.82142e-16 0)
(3 -1.29842e-15 0)
(3 -1.20427e-15 0)
(3 -1.14578e-15 0)
(3 -1.15373e-15 0)
(3 -1.29065e-15 0)
(3 -1.63399e-15 0)
(3 -1.76285e-15 0)
(3 -1.14733e-15 0)
(3 4.03487e-16 0)
(3 1.2057e-15 0)
(3 2.25321e-16 0)
(3 -2.49682e-17 0)
(3 -2.46035e-17 0)
(3 5.63127e-16 0)
(3 1.53391e-15 0)
(3 9.22874e-16 0)
(3 1.46135e-16 0)
(3 -6.37439e-16 0)
(3 -8.45477e-16 0)
(3 -1.23303e-15 0)
(3 -1.30058e-15 0)
(3 -1.44991e-15 0)
(3 -4.16851e-16 0)
(3 -7.87828e-16 0)
(3 -8.29146e-16 0)
(3 -8.56054e-16 0)
(3 -9.36992e-16 0)
(3 -1.36489e-15 0)
(3 -1.80499e-15 0)
(3 -1.84332e-15 0)
(3 -1.56615e-15 0)
(3 -7.1333e-16 0)
(3 -8.15731e-16 0)
(3 -1.08329e-15 0)
(3 -7.82556e-16 0)
(3 4.81767e-16 0)
(3 1.73892e-15 0)
(3 2.13884e-15 0)
(3 1.73493e-15 0)
(3 1.20323e-15 0)
(3 8.19905e-16 0)
(3 2.79641e-16 0)
(3 -2.58758e-17 0)
(3 -1.93259e-16 0)
(3 -1.78121e-16 0)
(3 -5.42911e-18 0)
(3 -1.12269e-16 0)
(3 -7.99826e-16 0)
(3 -7.50076e-16 0)
(3 -4.97578e-16 0)
(3 2.0306e-16 0)
(3 5.65026e-16 0)
(3 2.65588e-16 0)
(3 -7.38949e-16 0)
(3 -1.32592e-15 0)
(3 -1.73505e-15 0)
(3 -1.77808e-15 0)
(3 -2.23813e-15 0)
(3 -3.2684e-15 0)
(3 -3.87144e-15 0)
(3 -2.63397e-15 0)
(1.45398 0.0368676 0)
(0.663852 0.0348001 0)
(0.615529 0.0465934 0)
(0.612303 0.0374637 0)
(0.599502 0.0342476 0)
(0.58402 0.0339851 0)
(0.567318 0.0341585 0)
(0.558211 0.0345724 0)
(0.553627 0.0357815 0)
(0.552728 0.0373829 0)
(0.556015 0.0401789 0)
(0.563073 0.0436995 0)
(0.567905 0.0471113 0)
(0.567269 0.0498896 0)
(0.563495 0.0527042 0)
(0.556849 0.0557627 0)
(0.547122 0.0586012 0)
(0.535253 0.0614589 0)
(0.519981 0.063902 0)
(0.501946 0.0662254 0)
(0.486707 0.0697926 0)
(0.479385 0.0754126 0)
(0.47581 0.0827528 0)
(0.4762 0.0920157 0)
(0.477688 0.103467 0)
(0.479358 0.11588 0)
(0.478827 0.128092 0)
(0.477249 0.140167 0)
(0.472696 0.151102 0)
(3 1.21034e-16 0)
(3 -1.65445e-16 0)
(3 -4.79617e-16 0)
(3 -5.48825e-16 0)
(3 -5.87796e-16 0)
(3 -1.48147e-15 0)
(3 -1.53244e-15 0)
(3 -1.52099e-15 0)
(3 -1.23949e-15 0)
(3 -1.14582e-15 0)
(3 -1.69845e-15 0)
(3 -1.79219e-15 0)
(3 -2.10031e-15 0)
(3 -1.58148e-15 0)
(3 -6.70966e-16 0)
(3 9.31654e-17 0)
(3 5.47841e-16 0)
(3 1.18534e-15 0)
(3 2.17697e-15 0)
(3 2.595e-15 0)
(3 1.72617e-15 0)
(3 1.12305e-15 0)
(3 1.07829e-15 0)
(3 8.14124e-16 0)
(3 3.06561e-16 0)
(3 -1.09083e-16 0)
(3 -6.48529e-16 0)
(3 -9.62926e-16 0)
(3 -1.0584e-15 0)
(3 -1.84235e-15 0)
(3 -1.53044e-15 0)
(3 -1.59269e-15 0)
(3 -1.45628e-15 0)
(3 -1.42056e-15 0)
(3 -1.26785e-15 0)
(3 -1.46439e-15 0)
(3 -1.15609e-15 0)
(3 -1.35844e-15 0)
(3 -2.14182e-15 0)
(3 -2.22407e-15 0)
(3 -9.3102e-16 0)
(3 8.35881e-16 0)
(3 8.51096e-16 0)
(3 8.50294e-16 0)
(3 9.87678e-16 0)
(3 1.29681e-15 0)
(3 2.02874e-15 0)
(3 1.67786e-15 0)
(3 9.51648e-16 0)
(3 1.11606e-15 0)
(3 1.30597e-15 0)
(3 9.864e-16 0)
(3 4.12349e-16 0)
(3 6.45703e-16 0)
(3 1.28339e-15 0)
(3 1.46382e-15 0)
(3 2.44468e-16 0)
(3 -7.87517e-16 0)
(3 -6.5636e-16 0)
(3 -8.39103e-16 0)
(3 -1.54309e-15 0)
(3 -2.37111e-15 0)
(3 -2.61454e-15 0)
(3 -1.39074e-15 0)
(3 -1.18011e-15 0)
(3 -1.43705e-15 0)
(3 -2.50074e-15 0)
(1.49299 0.0420805 0)
(0.667831 0.0410285 0)
(0.614425 0.0524343 0)
(0.611639 0.0422949 0)
(0.598047 0.0388549 0)
(0.582031 0.0383176 0)
(0.566908 0.0386284 0)
(0.55971 0.0393466 0)
(0.556173 0.0407424 0)
(0.555931 0.0428044 0)
(0.560177 0.0461988 0)
(0.567507 0.0502438 0)
(0.571542 0.0537663 0)
(0.570614 0.0564025 0)
(0.566934 0.0592426 0)
(0.560284 0.0624072 0)
(0.550667 0.0654908 0)
(0.538401 0.068628 0)
(0.522695 0.0712636 0)
(0.504996 0.0736214 0)
(0.491944 0.0774794 0)
(0.486819 0.0831399 0)
(0.485427 0.0901928 0)
(0.487612 0.0991806 0)
(0.490957 0.110458 0)
(0.493288 0.122648 0)
(0.493096 0.134465 0)
(0.491843 0.145951 0)
(0.487621 0.156012 0)
(3 -2.27815e-16 0)
(3 -6.90816e-17 0)
(3 2.95232e-17 0)
(3 3.47314e-17 0)
(3 3.35113e-17 0)
(3 -1.31082e-16 0)
(3 -5.96072e-16 0)
(3 -1.52908e-15 0)
(3 -6.72841e-16 0)
(3 -2.10236e-16 0)
(3 -4.52602e-16 0)
(3 -5.68417e-16 0)
(3 -9.56199e-16 0)
(3 -7.00936e-16 0)
(3 -8.06263e-17 0)
(3 8.04608e-17 0)
(3 1.56824e-15 0)
(3 1.98492e-15 0)
(3 2.03994e-15 0)
(3 1.90708e-15 0)
(3 4.83586e-16 0)
(3 1.82913e-16 0)
(3 4.10618e-16 0)
(3 1.03124e-15 0)
(3 1.05778e-15 0)
(3 1.00111e-15 0)
(3 -2.7496e-16 0)
(3 -5.41729e-16 0)
(3 -1.26467e-15 0)
(3 -1.23997e-15 0)
(3 -1.18706e-15 0)
(3 -1.2023e-15 0)
(3 -8.79174e-16 0)
(3 -2.63313e-16 0)
(3 3.05178e-16 0)
(3 -3.8153e-16 0)
(3 -1.68007e-15 0)
(3 -2.88972e-15 0)
(3 -2.85345e-15 0)
(3 -2.47712e-15 0)
(3 -8.18797e-16 0)
(3 -3.90353e-16 0)
(3 -4.7058e-16 0)
(3 -3.19232e-16 0)
(3 3.60972e-16 0)
(3 1.02984e-15 0)
(3 1.61642e-15 0)
(3 1.60091e-15 0)
(3 1.25169e-15 0)
(3 1.36722e-15 0)
(3 1.22572e-15 0)
(3 8.51885e-16 0)
(3 1.05809e-15 0)
(3 1.8678e-15 0)
(3 2.37162e-15 0)
(3 1.55935e-15 0)
(3 6.81346e-16 0)
(3 -3.10037e-16 0)
(3 -5.64185e-16 0)
(3 -7.99092e-16 0)
(3 -1.56382e-15 0)
(3 -2.78077e-15 0)
(3 -2.58496e-15 0)
(3 -2.01243e-15 0)
(3 -1.77763e-15 0)
(3 -1.78525e-15 0)
(3 -3.02816e-15 0)
(1.53798 0.0470444 0)
(0.672311 0.0473659 0)
(0.613274 0.0580674 0)
(0.610712 0.0466021 0)
(0.5961 0.043063 0)
(0.579728 0.0423124 0)
(0.566991 0.0429004 0)
(0.56156 0.0439767 0)
(0.559165 0.0454611 0)
(0.559817 0.0481057 0)
(0.565114 0.0521517 0)
(0.572237 0.0566619 0)
(0.575125 0.0601814 0)
(0.573883 0.0626223 0)
(0.57025 0.0653857 0)
(0.563854 0.068451 0)
(0.554483 0.0715814 0)
(0.541777 0.0748404 0)
(0.525413 0.0776847 0)
(0.508218 0.0803109 0)
(0.497506 0.0846343 0)
(0.49407 0.0903516 0)
(0.494376 0.0973506 0)
(0.498338 0.105944 0)
(0.503253 0.116797 0)
(0.506291 0.128336 0)
(0.506281 0.139261 0)
(0.505312 0.149787 0)
(0.501372 0.158583 0)
(3 1.56165e-16 0)
(3 4.64105e-16 0)
(3 6.57946e-16 0)
(3 3.80057e-16 0)
(3 2.41653e-16 0)
(3 1.23498e-15 0)
(3 1.20186e-15 0)
(3 4.832e-16 0)
(3 1.54774e-16 0)
(3 3.30693e-17 0)
(3 -1.12598e-16 0)
(3 -3.91058e-16 0)
(3 -4.66745e-16 0)
(3 -9.89582e-16 0)
(3 -9.81643e-16 0)
(3 -5.47656e-16 0)
(3 2.53047e-16 0)
(3 -3.49736e-17 0)
(3 -2.45206e-16 0)
(3 -2.52719e-16 0)
(3 -8.38338e-16 0)
(3 -1.01469e-15 0)
(3 -6.064e-16 0)
(3 3.54546e-16 0)
(3 7.16546e-16 0)
(3 3.98993e-16 0)
(3 -4.78661e-16 0)
(3 -5.16247e-16 0)
(3 -2.76609e-16 0)
(3 3.62865e-16 0)
(3 3.93599e-16 0)
(3 3.60062e-16 0)
(3 1.55384e-16 0)
(3 3.28759e-16 0)
(3 6.18256e-16 0)
(3 -2.61803e-16 0)
(3 -2.57804e-15 0)
(3 -2.22896e-15 0)
(3 -1.15545e-15 0)
(3 -1.00591e-15 0)
(3 -1.02583e-15 0)
(3 -1.16407e-15 0)
(3 -9.65532e-16 0)
(3 -4.8329e-16 0)
(3 -6.37183e-17 0)
(3 3.41152e-16 0)
(3 2.65412e-16 0)
(3 6.75501e-16 0)
(3 7.98604e-16 0)
(3 3.45292e-16 0)
(3 3.10077e-16 0)
(3 5.64637e-16 0)
(3 1.0331e-15 0)
(3 1.94485e-15 0)
(3 1.82992e-15 0)
(3 1.2154e-15 0)
(3 4.99388e-16 0)
(3 4.97318e-16 0)
(3 -1.90968e-16 0)
(3 -5.40394e-16 0)
(3 -6.32831e-16 0)
(3 -7.16226e-16 0)
(3 -1.27531e-15 0)
(3 -1.75858e-15 0)
(3 -2.5195e-15 0)
(3 -3.05428e-15 0)
(3 -2.51688e-15 0)
(1.58922 0.0517111 0)
(0.677165 0.0538588 0)
(0.612214 0.0633829 0)
(0.609302 0.0503359 0)
(0.59358 0.0467586 0)
(0.577398 0.0459758 0)
(0.567526 0.0470467 0)
(0.563806 0.0484198 0)
(0.562507 0.050031 0)
(0.564462 0.0532578 0)
(0.57078 0.057993 0)
(0.577075 0.0628536 0)
(0.578596 0.0662966 0)
(0.576962 0.0685789 0)
(0.573256 0.0712178 0)
(0.5673 0.0740107 0)
(0.55825 0.0769452 0)
(0.54521 0.0800405 0)
(0.528282 0.0829396 0)
(0.512126 0.0860738 0)
(0.503601 0.0910387 0)
(0.501347 0.0970029 0)
(0.503111 0.104187 0)
(0.508377 0.112952 0)
(0.514466 0.12314 0)
(0.517978 0.13382 0)
(0.518063 0.143695 0)
(0.51739 0.153044 0)
(0.5136 0.160215 0)
(3 1.43922e-16 0)
(3 -9.54898e-17 0)
(3 -1.33086e-16 0)
(3 -3.03398e-16 0)
(3 1.04461e-16 0)
(3 4.34744e-16 0)
(3 1.06511e-15 0)
(3 1.14062e-15 0)
(3 4.76624e-16 0)
(3 -5.99147e-17 0)
(3 -3.392e-16 0)
(3 -5.95353e-16 0)
(3 -7.43817e-16 0)
(3 -1.26047e-15 0)
(3 -1.77466e-15 0)
(3 -2.07387e-15 0)
(3 -1.51996e-15 0)
(3 -1.27748e-15 0)
(3 -9.97528e-16 0)
(3 -3.75753e-16 0)
(3 -4.60808e-16 0)
(3 -4.10342e-16 0)
(3 -4.39304e-17 0)
(3 1.32604e-16 0)
(3 4.89412e-16 0)
(3 1.15295e-15 0)
(3 1.27568e-15 0)
(3 6.67889e-16 0)
(3 7.35303e-16 0)
(3 1.76307e-15 0)
(3 2.19004e-15 0)
(3 7.92832e-16 0)
(3 1.49039e-16 0)
(3 -1.46593e-16 0)
(3 4.39482e-17 0)
(3 -9.06752e-17 0)
(3 -2.98616e-16 0)
(3 3.95113e-16 0)
(3 9.34368e-16 0)
(3 4.43647e-16 0)
(3 -2.28557e-16 0)
(3 -1.31824e-15 0)
(3 -6.02885e-16 0)
(3 1.57612e-16 0)
(3 2.17416e-16 0)
(3 2.24032e-16 0)
(3 9.42911e-17 0)
(3 -1.0983e-16 0)
(3 -3.56669e-16 0)
(3 -4.2818e-16 0)
(3 9.23093e-16 0)
(3 2.87901e-15 0)
(3 3.0639e-15 0)
(3 3.3467e-15 0)
(3 3.2367e-15 0)
(3 2.06764e-15 0)
(3 1.02239e-15 0)
(3 4.57315e-16 0)
(3 -1.52977e-16 0)
(3 -6.81799e-16 0)
(3 -1.30945e-15 0)
(3 -4.44707e-16 0)
(3 -1.37747e-16 0)
(3 -1.16929e-15 0)
(3 -2.19906e-15 0)
(3 -2.25222e-15 0)
(3 -2.18413e-15 0)
(1.64671 0.056042 0)
(0.682605 0.0605592 0)
(0.611056 0.0681254 0)
(0.607242 0.0535207 0)
(0.590597 0.0499086 0)
(0.575485 0.0494222 0)
(0.568529 0.0511957 0)
(0.566309 0.0526177 0)
(0.566273 0.0545426 0)
(0.569933 0.0583008 0)
(0.577038 0.0636754 0)
(0.581873 0.0686901 0)
(0.582036 0.071989 0)
(0.579742 0.0742608 0)
(0.576027 0.076763 0)
(0.570338 0.0792048 0)
(0.561569 0.0817205 0)
(0.548285 0.0843157 0)
(0.531155 0.0870132 0)
(0.516968 0.0908809 0)
(0.51025 0.0965518 0)
(0.508987 0.102911 0)
(0.511771 0.110588 0)
(0.518175 0.119491 0)
(0.524715 0.129654 0)
(0.528341 0.139503 0)
(0.528391 0.148396 0)
(0.528009 0.156636 0)
(0.52423 0.162369 0)
(3 -2.82846e-16 0)
(3 -2.5144e-16 0)
(3 -2.04116e-16 0)
(3 1.9569e-16 0)
(3 1.35543e-16 0)
(3 -1.55054e-16 0)
(3 7.95732e-16 0)
(3 1.97991e-15 0)
(3 1.74052e-15 0)
(3 9.64154e-16 0)
(3 8.52847e-16 0)
(3 9.50413e-16 0)
(3 8.12922e-16 0)
(3 -9.95352e-18 0)
(3 -9.26807e-16 0)
(3 -9.40163e-16 0)
(3 -6.57087e-16 0)
(3 -4.11563e-16 0)
(3 -2.60526e-16 0)
(3 -2.05976e-16 0)
(3 5.30791e-16 0)
(3 1.29259e-15 0)
(3 4.49655e-16 0)
(3 2.05636e-16 0)
(3 3.98344e-16 0)
(3 1.78893e-15 0)
(3 2.18391e-15 0)
(3 1.53456e-15 0)
(3 9.65826e-16 0)
(3 5.46229e-16 0)
(3 -1.76188e-16 0)
(3 -1.26451e-15 0)
(3 -7.95519e-16 0)
(3 -9.69086e-17 0)
(3 9.12948e-16 0)
(3 1.36545e-15 0)
(3 1.51991e-15 0)
(3 4.25532e-16 0)
(3 -3.54293e-17 0)
(3 2.93659e-16 0)
(3 2.67142e-17 0)
(3 -1.9175e-16 0)
(3 2.5535e-16 0)
(3 1.13306e-15 0)
(3 9.89927e-16 0)
(3 2.30838e-16 0)
(3 -3.23498e-16 0)
(3 -1.22861e-16 0)
(3 4.85163e-16 0)
(3 1.18059e-16 0)
(3 4.25002e-16 0)
(3 1.07245e-15 0)
(3 1.17235e-15 0)
(3 1.7286e-15 0)
(3 1.91813e-15 0)
(3 1.88603e-15 0)
(3 1.9512e-15 0)
(3 9.21224e-16 0)
(3 -8.85377e-16 0)
(3 -9.2372e-16 0)
(3 -1.11246e-15 0)
(3 -6.32529e-16 0)
(3 -4.86815e-16 0)
(3 -7.08171e-16 0)
(3 -1.08927e-15 0)
(3 -2.12836e-16 0)
(3 -4.9274e-16 0)
(1.71041 0.0600156 0)
(0.688822 0.0674259 0)
(0.609499 0.0720775 0)
(0.604538 0.0561677 0)
(0.587381 0.0525764 0)
(0.574568 0.0527956 0)
(0.569892 0.0553244 0)
(0.569007 0.0566751 0)
(0.57055 0.0590066 0)
(0.5762 0.0633099 0)
(0.583596 0.0691514 0)
(0.586526 0.0740279 0)
(0.585475 0.0772205 0)
(0.582407 0.0796013 0)
(0.578507 0.0819942 0)
(0.572844 0.0840934 0)
(0.564123 0.0860589 0)
(0.550566 0.0879178 0)
(0.533927 0.0902544 0)
(0.522788 0.0946448 0)
(0.5177 0.100795 0)
(0.517181 0.107965 0)
(0.520832 0.116374 0)
(0.527859 0.125854 0)
(0.534362 0.135942 0)
(0.537602 0.145267 0)
(0.537619 0.153365 0)
(0.537273 0.160611 0)
(0.53365 0.165261 0)
(3 4.42758e-17 0)
(3 -3.34671e-17 0)
(3 -1.85865e-16 0)
(3 -2.96335e-16 0)
(3 -4.44273e-16 0)
(3 -3.14435e-16 0)
(3 3.15465e-16 0)
(3 9.55489e-16 0)
(3 9.14297e-16 0)
(3 6.12883e-16 0)
(3 5.63613e-16 0)
(3 3.5711e-16 0)
(3 1.36525e-16 0)
(3 6.27461e-17 0)
(3 -1.12316e-16 0)
(3 -4.45063e-16 0)
(3 -7.44081e-16 0)
(3 -3.8664e-16 0)
(3 9.53591e-18 0)
(3 1.71469e-16 0)
(3 1.00936e-15 0)
(3 9.56526e-16 0)
(3 6.95445e-16 0)
(3 8.51436e-16 0)
(3 6.7255e-16 0)
(3 7.5844e-16 0)
(3 8.33349e-16 0)
(3 1.12226e-15 0)
(3 1.58165e-15 0)
(3 7.95711e-16 0)
(3 -2.65902e-16 0)
(3 -4.35772e-16 0)
(3 -6.49857e-16 0)
(3 6.65514e-17 0)
(3 1.08086e-15 0)
(3 1.49724e-15 0)
(3 1.39322e-15 0)
(3 6.11776e-16 0)
(3 4.5773e-16 0)
(3 -3.13194e-16 0)
(3 -3.72325e-16 0)
(3 6.55589e-16 0)
(3 1.54756e-17 0)
(3 -2.48915e-16 0)
(3 -3.74622e-16 0)
(3 -4.47402e-16 0)
(3 2.0847e-16 0)
(3 7.76835e-16 0)
(3 9.5123e-16 0)
(3 2.72762e-16 0)
(3 -1.59821e-16 0)
(3 -5.14238e-16 0)
(3 3.98457e-16 0)
(3 6.85088e-16 0)
(3 6.79569e-16 0)
(3 1.21365e-15 0)
(3 2.7e-15 0)
(3 2.48847e-15 0)
(3 1.37721e-15 0)
(3 7.26147e-16 0)
(3 6.75605e-16 0)
(3 4.5985e-16 0)
(3 -4.96744e-16 0)
(3 -1.01256e-15 0)
(3 -9.90416e-16 0)
(3 -4.71097e-16 0)
(3 9.13932e-16 0)
(1.78041 0.0635632 0)
(0.695745 0.074308 0)
(0.6074 0.0750967 0)
(0.601218 0.0582825 0)
(0.584389 0.054894 0)
(0.574845 0.056176 0)
(0.571577 0.059263 0)
(0.571968 0.0608397 0)
(0.57545 0.0635535 0)
(0.58306 0.0683928 0)
(0.590006 0.0743594 0)
(0.590973 0.0788019 0)
(0.588952 0.0819096 0)
(0.585122 0.0844585 0)
(0.580765 0.0868162 0)
(0.574819 0.0886597 0)
(0.565764 0.0900472 0)
(0.551832 0.0910682 0)
(0.53669 0.0930957 0)
(0.529 0.0978107 0)
(0.525597 0.104138 0)
(0.526146 0.111773 0)
(0.530543 0.120958 0)
(0.537883 0.131233 0)
(0.543646 0.141519 0)
(0.546226 0.150577 0)
(0.546011 0.158222 0)
(0.545532 0.164726 0)
(0.542139 0.168628 0)
(3 2.39238e-16 0)
(3 2.87363e-16 0)
(3 1.76056e-16 0)
(3 -1.59219e-16 0)
(3 -6.39754e-17 0)
(3 -5.80419e-16 0)
(3 -1.4159e-15 0)
(3 -1.20322e-15 0)
(3 -3.21643e-16 0)
(3 -1.6997e-16 0)
(3 -3.6609e-17 0)
(3 -4.8324e-17 0)
(3 -5.63444e-18 0)
(3 8.94581e-16 0)
(3 1.28259e-15 0)
(3 6.19843e-16 0)
(3 -1.0079e-16 0)
(3 -2.83666e-17 0)
(3 -8.22251e-17 0)
(3 4.54626e-16 0)
(3 -2.53972e-17 0)
(3 -2.51889e-16 0)
(3 3.58901e-16 0)
(3 1.17761e-15 0)
(3 1.55397e-15 0)
(3 7.43422e-16 0)
(3 5.81891e-16 0)
(3 6.79807e-16 0)
(3 8.47191e-16 0)
(3 1.12331e-15 0)
(3 1.75133e-16 0)
(3 2.51642e-17 0)
(3 -2.69833e-16 0)
(3 -1.41179e-18 0)
(3 -4.6558e-16 0)
(3 -1.70124e-15 0)
(3 -7.43075e-16 0)
(3 -1.06601e-16 0)
(3 4.88347e-16 0)
(3 1.33306e-15 0)
(3 1.58012e-15 0)
(3 1.32563e-15 0)
(3 -6.62303e-16 0)
(3 -1.23425e-15 0)
(3 -9.26389e-16 0)
(3 2.42287e-16 0)
(3 1.79715e-15 0)
(3 1.52829e-15 0)
(3 1.21096e-15 0)
(3 8.98595e-16 0)
(3 7.28832e-16 0)
(3 5.82496e-16 0)
(3 7.53833e-16 0)
(3 2.93102e-16 0)
(3 -3.23805e-16 0)
(3 3.22868e-17 0)
(3 1.65265e-15 0)
(3 2.20883e-15 0)
(3 1.82032e-15 0)
(3 1.91455e-15 0)
(3 1.5665e-15 0)
(3 9.15359e-16 0)
(3 9.96966e-17 0)
(3 5.2621e-17 0)
(3 1.87198e-16 0)
(3 3.59343e-17 0)
(3 -7.13852e-16 0)
(1.85695 0.0665762 0)
(0.703271 0.0809892 0)
(0.604602 0.0771102 0)
(0.597416 0.0599121 0)
(0.582402 0.0570976 0)
(0.576016 0.0595547 0)
(0.573743 0.0631171 0)
(0.57541 0.0651 0)
(0.58105 0.0683189 0)
(0.590132 0.0736258 0)
(0.595752 0.0792258 0)
(0.595179 0.0829958 0)
(0.592452 0.0859813 0)
(0.587958 0.088683 0)
(0.582961 0.0910776 0)
(0.576357 0.0927787 0)
(0.566446 0.0936305 0)
(0.552166 0.0939248 0)
(0.539716 0.096008 0)
(0.535092 0.100785 0)
(0.533509 0.106964 0)
(0.535366 0.114764 0)
(0.540881 0.12452 0)
(0.548307 0.135367 0)
(0.552943 0.145806 0)
(0.554708 0.154711 0)
(0.554109 0.162135 0)
(0.553198 0.168122 0)
(0.549834 0.171722 0)
(3 -8.79797e-17 0)
(3 8.22884e-17 0)
(3 2.52133e-16 0)
(3 1.63467e-16 0)
(3 -1.74481e-17 0)
(3 -2.25609e-16 0)
(3 -2.59695e-16 0)
(3 -2.3798e-16 0)
(3 2.3695e-17 0)
(3 1.33472e-16 0)
(3 4.80395e-17 0)
(3 5.85497e-17 0)
(3 2.23573e-17 0)
(3 2.37715e-16 0)
(3 4.52905e-16 0)
(3 7.28513e-16 0)
(3 1.09128e-15 0)
(3 8.81415e-16 0)
(3 3.1744e-16 0)
(3 -1.66119e-16 0)
(3 -3.0739e-16 0)
(3 -4.75024e-16 0)
(3 -2.33865e-16 0)
(3 7.1454e-16 0)
(3 1.51387e-15 0)
(3 1.2433e-15 0)
(3 1.31576e-15 0)
(3 1.12546e-15 0)
(3 1.34003e-15 0)
(3 1.57648e-15 0)
(3 9.24065e-16 0)
(3 3.69865e-16 0)
(3 1.18687e-17 0)
(3 6.15105e-16 0)
(3 1.71736e-16 0)
(3 -1.21261e-15 0)
(3 -1.31939e-15 0)
(3 -6.51591e-16 0)
(3 -6.17212e-17 0)
(3 2.12448e-15 0)
(3 1.70601e-15 0)
(3 5.47846e-16 0)
(3 5.78438e-17 0)
(3 -2.19169e-16 0)
(3 2.68391e-16 0)
(3 6.33077e-16 0)
(3 7.52297e-16 0)
(3 5.5083e-16 0)
(3 3.74399e-16 0)
(3 1.26772e-15 0)
(3 1.60097e-15 0)
(3 1.7324e-15 0)
(3 3.06243e-16 0)
(3 -4.00873e-16 0)
(3 -1.35725e-15 0)
(3 -1.67961e-15 0)
(3 -1.11524e-16 0)
(3 8.99551e-16 0)
(3 7.98123e-16 0)
(3 1.34084e-15 0)
(3 2.41883e-15 0)
(3 2.19602e-15 0)
(3 1.14681e-15 0)
(3 9.73954e-16 0)
(3 1.72981e-15 0)
(3 1.67152e-15 0)
(3 1.29124e-16 0)
(1.9403 0.0689099 0)
(0.711289 0.0872078 0)
(0.600993 0.0780772 0)
(0.593447 0.0612359 0)
(0.582153 0.0594572 0)
(0.577774 0.0628109 0)
(0.576492 0.0669219 0)
(0.579616 0.0694554 0)
(0.587448 0.0734278 0)
(0.596824 0.078955 0)
(0.600456 0.0836904 0)
(0.599022 0.0866989 0)
(0.595844 0.0894611 0)
(0.590917 0.0921678 0)
(0.585214 0.094587 0)
(0.577526 0.0961841 0)
(0.566227 0.0965709 0)
(0.552138 0.0965889 0)
(0.543194 0.0992003 0)
(0.540902 0.103848 0)
(0.540967 0.10995 0)
(0.544416 0.117859 0)
(0.551353 0.127549 0)
(0.558699 0.138358 0)
(0.562259 0.148344 0)
(0.563272 0.156957 0)
(0.562298 0.16424 0)
(0.560671 0.16983 0)
(0.557019 0.173329 0)
(3 -2.00094e-16 0)
(3 -5.98548e-16 0)
(3 -5.37957e-16 0)
(3 -4.82182e-16 0)
(3 -3.53943e-16 0)
(3 4.30936e-18 0)
(3 3.74579e-17 0)
(3 1.18379e-16 0)
(3 -2.66546e-16 0)
(3 -5.14101e-16 0)
(3 -4.34872e-16 0)
(3 -8.79631e-16 0)
(3 -6.42528e-16 0)
(3 -4.08631e-16 0)
(3 -5.27972e-16 0)
(3 -4.35339e-16 0)
(3 -9.00836e-17 0)
(3 -2.80479e-16 0)
(3 -4.07297e-16 0)
(3 -4.12757e-16 0)
(3 -5.51091e-17 0)
(3 2.74965e-16 0)
(3 -5.87769e-17 0)
(3 8.39239e-17 0)
(3 8.89868e-16 0)
(3 1.12348e-15 0)
(3 1.37886e-15 0)
(3 1.43464e-15 0)
(3 1.25575e-15 0)
(3 9.15873e-16 0)
(3 1.3952e-15 0)
(3 1.22068e-15 0)
(3 1.02567e-15 0)
(3 3.31028e-16 0)
(3 4.08743e-16 0)
(3 9.44825e-16 0)
(3 7.23749e-16 0)
(3 3.05882e-16 0)
(3 -6.85561e-17 0)
(3 -4.57098e-16 0)
(3 -1.71724e-16 0)
(3 1.28909e-15 0)
(3 1.49362e-15 0)
(3 1.20806e-15 0)
(3 4.42914e-16 0)
(3 -6.68108e-17 0)
(3 8.19971e-17 0)
(3 4.65028e-16 0)
(3 7.79278e-16 0)
(3 1.10767e-15 0)
(3 1.15291e-15 0)