/*--------------------------------*- C++ -*----------------------------------*\
  =========                 |
  \\      /  F ield         | OpenFOAM: The Open Source CFD Toolbox
   \\    /   O peration     | Website:  https://openfoam.org
    \\  /    A nd           | Version:  7
     \\/     M anipulation  |
\*---------------------------------------------------------------------------*/
FoamFile
{
    version     2.0;
    format      ascii;
    class       volVectorField;
    location    "1.5";
    object      U;
}
// * * * * * * * * * * * * * * * * * * * * * * * * * * * * * * * * * * * * * //

dimensions      [0 1 -1 0 0 0 0];

internalField   nonuniform List<vector> 
73728
(
(3 -3.61475e-18 0)
(3 -9.99712e-18 0)
(3 8.48212e-18 0)
(3 -2.68897e-17 0)
(3 3.45962e-16 0)
(3 4.33945e-16 0)
(3 7.70363e-16 0)
(3 5.51586e-16 0)
(3 5.40932e-17 0)
(3 -3.32596e-16 0)
(3 -3.61421e-16 0)
(3 -1.7083e-16 0)
(3 -8.72352e-17 0)
(3 1.20331e-16 0)
(3 -2.26002e-16 0)
(3 -4.24493e-16 0)
(3 -5.0008e-16 0)
(3 -4.24087e-16 0)
(3 -3.34382e-16 0)
(3 -5.77811e-16 0)
(3 -9.02416e-16 0)
(3 -6.98326e-16 0)
(3 -7.69259e-17 0)
(3 -2.49937e-16 0)
(3 -4.21736e-16 0)
(3 -2.25734e-16 0)
(3 -6.14445e-17 0)
(3 -4.86299e-16 0)
(3 7.03413e-16 0)
(3 1.08955e-15 0)
(3 9.79701e-16 0)
(3 -9.37665e-17 0)
(3 -7.93041e-17 0)
(3 -3.62622e-17 0)
(3 8.68738e-17 0)
(3 2.46829e-16 0)
(3 3.52799e-16 0)
(3 3.70005e-16 0)
(3 -3.79585e-16 0)
(3 2.04353e-17 0)
(3 3.93571e-16 0)
(3 -1.70026e-16 0)
(3 -8.75979e-16 0)
(3 -9.38152e-16 0)
(3 -6.10834e-16 0)
(3 4.62228e-16 0)
(3 9.68165e-16 0)
(3 1.11255e-15 0)
(3 5.50252e-16 0)
(3 3.23609e-16 0)
(3 -4.43398e-16 0)
(3 -1.54622e-15 0)
(3 -1.61546e-15 0)
(3 -1.98476e-15 0)
(3 -2.09759e-15 0)
(3 -1.43078e-15 0)
(3 -8.44922e-16 0)
(3 -5.29936e-16 0)
(3 -9.62728e-16 0)
(3 -8.31054e-16 0)
(3 -2.2138e-17 0)
(3 1.08798e-15 0)
(3 1.67452e-15 0)
(3 1.41245e-15 0)
(3 5.41982e-16 0)
(3 -4.72647e-18 0)
(3 -3.58111e-16 0)
(3 -3.41959e-16 0)
(3 -9.51201e-16 0)
(3 -1.81586e-15 0)
(3 -8.77354e-16 0)
(3 -1.95544e-16 0)
(3 1.01117e-17 0)
(3 -3.53953e-16 0)
(3 -1.25989e-15 0)
(3 -1.66808e-15 0)
(3 -7.58868e-16 0)
(3 -6.33361e-16 0)
(3 -9.78276e-17 0)
(3 8.441e-16 0)
(3 1.26677e-15 0)
(3 1.60781e-15 0)
(3 1.56052e-15 0)
(3 1.22632e-15 0)
(3 1.22365e-15 0)
(3 1.28661e-15 0)
(3 1.1106e-15 0)
(3 9.066e-16 0)
(3 1.09399e-15 0)
(3 7.57604e-16 0)
(3 4.87882e-16 0)
(3 6.1543e-16 0)
(3 1.52739e-16 0)
(3 -3.86031e-16 0)
(3 -1.16266e-15 0)
(3 -8.59994e-16 0)
(3 -6.67571e-17 0)
(3 -2.05985e-17 0)
(3 7.32574e-17 0)
(3 -1.53396e-16 0)
(3 1.95046e-16 0)
(3 7.80227e-16 0)
(3 4.08114e-16 0)
(3 -7.67278e-16 0)
(3 -1.35995e-15 0)
(3 -8.13619e-16 0)
(3 -4.65048e-16 0)
(3 5.96383e-17 0)
(3 3.47149e-17 0)
(3 -6.17661e-16 0)
(3 -1.6152e-15 0)
(3 -1.44977e-15 0)
(3 -1.64341e-15 0)
(3 -1.46992e-15 0)
(3 -1.04922e-15 0)
(3 -1.23318e-15 0)
(3 -1.7913e-15 0)
(3 -2.24472e-15 0)
(3 -5.04616e-16 0)
(3 -3.98118e-18 0)
(3 -5.73832e-16 0)
(3 2.40255e-16 0)
(3 1.10638e-15 0)
(3 1.08062e-15 0)
(3 1.5697e-15 0)
(3 7.84994e-16 0)
(3 7.66231e-16 0)
(3 -5.47351e-16 0)
(3 8.47761e-17 0)
(3 1.72286e-16 0)
(3 3.64086e-16 0)
(3 6.08544e-16 0)
(3 3.57565e-16 0)
(3 -4.29076e-17 0)
(3 -1.57318e-15 0)
(3 -1.2471e-15 0)
(3 -7.41568e-16 0)
(3 -1.24035e-15 0)
(3 -1.88484e-15 0)
(3 -1.74004e-15 0)
(3 -1.00093e-15 0)
(3 5.09438e-17 0)
(3 1.76342e-15 0)
(3 1.82027e-15 0)
(3 9.2077e-16 0)
(3 -1.83439e-16 0)
(3 -8.73174e-16 0)
(3 -2.64139e-15 0)
(3 -1.48395e-15 0)
(3 -1.02976e-15 0)
(3 -7.64332e-16 0)
(3 -1.55301e-16 0)
(3 -5.83827e-17 0)
(3 -6.21431e-18 0)
(3 -6.13859e-16 0)
(3 -7.19066e-16 0)
(3 7.7304e-17 0)
(3 2.50138e-15 0)
(3 2.81035e-15 0)
(3 6.01597e-16 0)
(3 -5.05082e-16 0)
(3 -1.34824e-15 0)
(3 -2.42308e-15 0)
(3 -1.98909e-15 0)
(3 -1.91872e-15 0)
(3 -2.01949e-15 0)
(3 -1.58197e-15 0)
(3 6.42894e-16 0)
(3 7.89014e-16 0)
(3 1.98306e-16 0)
(3 -7.29648e-16 0)
(3 -1.13965e-15 0)
(3 -6.01499e-16 0)
(3 -3.55312e-17 0)
(3 1.53452e-16 0)
(3 8.52859e-16 0)
(3 1.7016e-15 0)
(3 1.87759e-15 0)
(3 1.79504e-15 0)
(3 1.57091e-15 0)
(3 1.8253e-15 0)
(3 1.64323e-15 0)
(3 1.02102e-15 0)
(3 1.75987e-15 0)
(3 2.0978e-15 0)
(3 1.75322e-15 0)
(3 5.51541e-16 0)
(3 1.68618e-16 0)
(3 -4.31672e-16 0)
(3 -1.969e-15 0)
(3 -1.96743e-15 0)
(3 -1.31133e-15 0)
(3 -2.99763e-17 0)
(3 1.27301e-16 0)
(3 2.82115e-16 0)
(3 1.65316e-16 0)
(3 -6.64104e-16 0)
(3 -6.29537e-16 0)
(3 -8.96237e-16 0)
(3 -1.65855e-15 0)
(3 -1.63602e-15 0)
(3 -1.50171e-15 0)
(3 -7.06524e-16 0)
(3 -3.91168e-16 0)
(3 -1.87791e-17 0)
(3 -9.88381e-16 0)
(3 -1.26776e-15 0)
(3 -1.42824e-15 0)
(3 -1.77945e-15 0)
(3 -1.72018e-15 0)
(3 -1.70576e-15 0)
(3 -1.86186e-15 0)
(3 -2.22562e-15 0)
(3 -2.95814e-15 0)
(3 -2.62798e-15 0)
(3 -2.15716e-16 0)
(3 1.99635e-16 0)
(3 1.0457e-15 0)
(3 2.65124e-15 0)
(3 3.25948e-15 0)
(3 2.93275e-15 0)
(3 9.03282e-16 0)
(3 -1.59484e-16 0)
(3 -6.5358e-16 0)
(3 -2.81896e-16 0)
(3 4.16472e-16 0)
(3 1.19705e-15 0)
(3 1.53325e-15 0)
(3 1.27534e-15 0)
(3 6.29983e-17 0)
(3 -1.69729e-15 0)
(3 -1.87361e-15 0)
(3 -1.36794e-15 0)
(3 -7.47802e-16 0)
(3 -6.37766e-16 0)
(3 -5.76876e-16 0)
(3 -5.43387e-16 0)
(3 -4.69326e-16 0)
(3 7.68671e-16 0)
(3 5.06571e-16 0)
(3 -3.47379e-16 0)
(3 -1.59329e-15 0)
(3 -1.02477e-15 0)
(3 -6.75669e-16 0)
(3 -5.63414e-16 0)
(3 6.29286e-16 0)
(3 1.79199e-15 0)
(3 2.10362e-15 0)
(3 9.22262e-16 0)
(3 -6.89973e-16 0)
(3 -3.13076e-16 0)
(3 -6.17593e-16 0)
(3 -7.3988e-17 0)
(3 8.84417e-16 0)
(3 1.02574e-15 0)
(3 7.99371e-16 0)
(3 7.91503e-16 0)
(3 8.05053e-16 0)
(3 1.29611e-16 0)
(3 -8.52101e-16 0)
(3 -7.17114e-16 0)
(3 -1.34481e-16 0)
(3 5.45084e-16 0)
(3 4.32372e-16 0)
(3 1.46317e-16 0)
(3 -2.39476e-16 0)
(3 -2.06216e-16 0)
(3 -6.6201e-17 0)
(3 -3.12688e-17 0)
(3 1.15239e-18 0)
(3 4.91767e-16 0)
(3 2.83574e-16 0)
(3 -1.00802e-16 0)
(3 -4.39372e-16 0)
(3 -5.32488e-16 0)
(3 -1.06351e-16 0)
(3 4.84393e-16 0)
(3 9.50465e-16 0)
(3 1.58162e-15 0)
(3 1.71357e-15 0)
(3 1.75899e-15 0)
(3 1.60594e-15 0)
(3 1.21313e-15 0)
(3 3.04546e-16 0)
(3 -1.1653e-15 0)
(3 -2.38977e-15 0)
(3 -2.19415e-15 0)
(3 -2.22792e-15 0)
(3 1.54297e-16 0)
(3 4.52774e-16 0)
(3 -2.08702e-16 0)
(3 -2.77384e-16 0)
(3 -3.11302e-16 0)
(3 -1.22748e-15 0)
(3 -1.42734e-15 0)
(3 -1.24085e-15 0)
(3 -1.34119e-15 0)
(3 -2.56155e-15 0)
(3 -2.34614e-15 0)
(3 -1.50883e-15 0)
(3 -1.54579e-15 0)
(3 -1.36826e-15 0)
(3 -1.0564e-15 0)
(3 -1.78895e-15 0)
(3 -1.62281e-15 0)
(3 -1.37278e-15 0)
(3 -1.37939e-15 0)
(3 -1.53001e-15 0)
(3 -1.03689e-15 0)
(3 -9.92107e-16 0)
(3 -1.41951e-15 0)
(3 -4.53097e-16 0)
(3 1.08641e-15 0)
(3 1.71783e-15 0)
(3 2.16103e-15 0)
(3 2.45133e-15 0)
(3 2.45076e-15 0)
(3 2.47421e-15 0)
(3 2.75289e-15 0)
(3 2.10417e-15 0)
(3 1.73492e-15 0)
(3 1.93196e-15 0)
(3 1.50461e-15 0)
(3 8.86359e-16 0)
(3 2.12808e-16 0)
(3 -1.68722e-16 0)
(3 -3.28958e-16 0)
(3 -7.9708e-16 0)
(3 -1.24956e-15 0)
(3 -9.24038e-16 0)
(3 -6.94831e-16 0)
(3 -6.17198e-16 0)
(3 -1.19607e-15 0)
(3 -1.57447e-15 0)
(3 -1.51904e-15 0)
(3 -1.70052e-15 0)
(3 -2.3157e-15 0)
(3 -1.54469e-15 0)
(3 -8.45403e-16 0)
(3 1.38678e-16 0)
(3 2.23125e-16 0)
(3 6.40911e-16 0)
(3 6.22683e-16 0)
(3 -1.18941e-16 0)
(3 -6.50187e-16 0)
(3 -9.46475e-16 0)
(3 -1.68276e-15 0)
(3 -1.28418e-15 0)
(3 7.70522e-16 0)
(3 1.19464e-15 0)
(3 1.40145e-15 0)
(3 1.31708e-15 0)
(3 1.55059e-15 0)
(3 1.98463e-15 0)
(3 1.35205e-15 0)
(3 1.16678e-15 0)
(3 8.62595e-16 0)
(3 1.50601e-15 0)
(3 2.21767e-15 0)
(3 1.4452e-15 0)
(3 8.14167e-16 0)
(3 1.20224e-15 0)
(3 1.09617e-15 0)
(3 1.6511e-15 0)
(3 1.70731e-15 0)
(3 1.73086e-15 0)
(3 9.78839e-16 0)
(3 2.35828e-16 0)
(3 -7.38548e-16 0)
(3 -7.50364e-16 0)
(3 9.11275e-16 0)
(3 1.49687e-15 0)
(3 1.29897e-15 0)
(3 1.84426e-15 0)
(3 2.66794e-15 0)
(3 3.03394e-15 0)
(3 2.45097e-15 0)
(3 1.06247e-15 0)
(3 1.92171e-16 0)
(3 -1.50403e-18 0)
(3 -1.87537e-15 0)
(3 -2.83991e-15 0)
(3 -3.51741e-15 0)
(3 -3.38549e-15 0)
(3 1.41296e-16 0)
(3 -3.29078e-18 0)
(3 -5.29126e-16 0)
(3 -3.43539e-16 0)
(3 7.93516e-16 0)
(3 6.89367e-16 0)
(3 -4.11582e-16 0)
(3 -8.68649e-16 0)
(3 -1.163e-15 0)
(3 -2.03927e-15 0)
(3 -2.34415e-15 0)
(3 -1.74091e-15 0)
(3 -1.39917e-15 0)
(3 -1.73052e-15 0)
(3 -1.93436e-15 0)
(3 -1.51592e-15 0)
(3 -1.56447e-15 0)
(3 -8.62191e-16 0)
(3 -6.2253e-16 0)
(3 -3.84922e-16 0)
(3 1.53787e-16 0)
(3 7.85981e-16 0)
(3 9.39505e-16 0)
(3 8.1371e-16 0)
(3 2.05444e-16 0)
(3 1.40737e-15 0)
(3 1.36686e-15 0)
(3 1.589e-15 0)
(3 1.55554e-15 0)
(3 1.38757e-15 0)
(3 1.26477e-15 0)
(3 3.2628e-15 0)
(3 4.00502e-15 0)
(3 4.23797e-15 0)
(3 2.55067e-15 0)
(3 5.87663e-16 0)
(3 2.94415e-17 0)
(3 1.09852e-16 0)
(3 1.30222e-15 0)
(3 8.10265e-16 0)
(3 -1.76542e-15 0)
(3 -1.97046e-15 0)
(3 -1.73634e-15 0)
(3 -1.79335e-15 0)
(3 -1.50906e-15 0)
(3 -1.61203e-15 0)
(3 -1.28953e-15 0)
(3 -4.9893e-16 0)
(3 -1.19323e-16 0)
(3 2.50019e-16 0)
(3 2.20081e-16 0)
(3 3.60056e-16 0)
(3 1.49355e-16 0)
(3 -1.65788e-15 0)
(3 -3.08525e-15 0)
(3 -3.25503e-15 0)
(3 -1.87539e-15 0)
(3 2.74854e-16 0)
(3 2.01898e-16 0)
(3 1.05941e-15 0)
(3 1.57862e-15 0)
(3 1.6809e-15 0)
(3 2.73692e-15 0)
(3 2.95495e-15 0)
(3 2.92995e-15 0)
(3 3.35085e-15 0)
(3 2.24782e-15 0)
(3 7.1691e-16 0)
(3 2.55842e-16 0)
(3 -8.43213e-17 0)
(3 -2.44045e-16 0)
(3 2.3374e-16 0)
(3 5.49514e-16 0)
(3 1.03982e-15 0)
(3 1.38603e-15 0)
(3 2.21196e-15 0)
(3 2.94769e-15 0)
(3 3.17962e-15 0)
(3 2.42856e-15 0)
(3 2.02565e-15 0)
(3 1.79526e-15 0)
(3 1.65072e-15 0)
(3 1.85649e-15 0)
(3 2.38196e-15 0)
(3 2.21488e-15 0)
(3 2.34041e-15 0)
(3 2.4221e-15 0)
(3 2.37287e-15 0)
(3 2.078e-15 0)
(3 9.73998e-16 0)
(3 -4.00709e-16 0)
(3 -2.80052e-15 0)
(3 -3.75201e-15 0)
(3 -4.77535e-15 0)
(3 -4.67258e-15 0)
(3 -3.57332e-15 0)
(3 -1.14511e-17 0)
(3 -1.53147e-16 0)
(3 5.03467e-17 0)
(3 3.07257e-16 0)
(3 2.35432e-16 0)
(3 6.14896e-16 0)
(3 6.79867e-16 0)
(3 2.74813e-16 0)
(3 -5.76897e-16 0)
(3 -3.93933e-16 0)
(3 -9.45215e-16 0)
(3 -9.08687e-16 0)
(3 -2.36774e-16 0)
(3 -3.35905e-16 0)
(3 -5.04652e-16 0)
(3 -1.38756e-16 0)
(3 9.54054e-16 0)
(3 1.18763e-15 0)
(3 1.01347e-15 0)
(3 1.06395e-15 0)
(3 1.14509e-15 0)
(3 1.77775e-15 0)
(3 1.91495e-15 0)
(3 1.3235e-15 0)
(3 8.90801e-16 0)
(3 6.99236e-16 0)
(3 2.67412e-16 0)
(3 3.7106e-16 0)
(3 8.82572e-16 0)
(3 6.16082e-16 0)
(3 5.83061e-17 0)
(3 1.65718e-15 0)
(3 2.12418e-15 0)
(3 2.69067e-15 0)
(3 2.27627e-15 0)
(3 2.87084e-15 0)
(3 1.43307e-15 0)
(3 1.22076e-15 0)
(3 1.1196e-15 0)
(3 -5.22582e-17 0)
(3 -1.68309e-15 0)
(3 -2.72448e-15 0)
(3 -2.68248e-15 0)
(3 -1.25354e-15 0)
(3 1.88689e-16 0)
(3 1.45367e-15 0)
(3 1.43652e-15 0)
(3 1.80292e-15 0)
(3 2.10227e-15 0)
(3 1.87211e-15 0)
(3 1.57389e-15 0)
(3 1.46997e-15 0)
(3 -3.00599e-16 0)
(3 -1.69449e-15 0)
(3 -1.75652e-15 0)
(3 -8.75455e-16 0)
(3 1.02536e-15 0)
(3 2.11704e-15 0)
(3 3.06843e-15 0)
(3 3.34515e-15 0)
(3 2.72171e-15 0)
(3 2.53212e-15 0)
(3 2.9312e-15 0)
(3 2.9115e-15 0)
(3 2.6566e-15 0)
(3 3.03103e-15 0)
(3 1.60462e-15 0)
(3 -9.18721e-16 0)
(3 -1.88706e-15 0)
(3 -3.26169e-15 0)
(3 -4.16449e-15 0)
(3 -1.99743e-15 0)
(3 -7.68122e-16 0)
(3 9.36901e-18 0)
(3 9.6533e-16 0)
(3 2.26774e-15 0)
(3 2.92086e-15 0)
(3 2.88569e-15 0)
(3 2.29222e-15 0)
(3 2.09871e-15 0)
(3 2.26034e-15 0)
(3 2.02643e-15 0)
(3 1.60613e-15 0)
(3 1.19631e-15 0)
(3 6.65858e-16 0)
(3 7.873e-16 0)
(3 1.40469e-15 0)
(3 2.96607e-15 0)
(3 3.85364e-15 0)
(3 3.2114e-15 0)
(3 1.21643e-15 0)
(3 -4.03119e-16 0)
(3 -1.93332e-15 0)
(3 -3.19383e-15 0)
(3 -4.06292e-15 0)
(3 -3.21806e-15 0)
(3 1.36617e-17 0)
(3 -8.47765e-17 0)
(3 1.08139e-16 0)
(3 1.19409e-16 0)
(3 -2.73039e-16 0)
(3 3.86942e-16 0)
(3 1.08386e-15 0)
(3 9.92997e-16 0)
(3 5.66118e-16 0)
(3 4.743e-16 0)
(3 6.90958e-16 0)
(3 3.21254e-16 0)
(3 5.76742e-17 0)
(3 7.95012e-16 0)
(3 1.28072e-15 0)
(3 1.88003e-15 0)
(3 3.21406e-15 0)
(3 2.86247e-15 0)
(3 1.96673e-15 0)
(3 1.62309e-15 0)
(3 2.02897e-15 0)
(3 2.27101e-15 0)
(3 2.63666e-15 0)
(3 2.68577e-15 0)
(3 2.54436e-15 0)
(3 8.10707e-16 0)
(3 6.62489e-16 0)
(3 9.3924e-16 0)
(3 1.50102e-15 0)
(3 1.15872e-15 0)
(3 7.37403e-16 0)
(3 4.36153e-16 0)
(3 1.00959e-15 0)
(3 1.72577e-15 0)
(3 2.19247e-15 0)
(3 1.98402e-15 0)
(3 5.97124e-16 0)
(3 1.69052e-16 0)
(3 -2.86157e-16 0)
(3 -3.44594e-16 0)
(3 -3.04924e-16 0)
(3 -3.57168e-16 0)
(3 -7.78326e-16 0)
(3 -6.04837e-16 0)
(3 9.99922e-17 0)
(3 9.79759e-16 0)
(3 1.4203e-15 0)
(3 2.35939e-15 0)
(3 2.23396e-15 0)
(3 2.71344e-15 0)
(3 2.47072e-15 0)
(3 1.45933e-15 0)
(3 3.23991e-16 0)
(3 -3.13809e-16 0)
(3 6.40448e-16 0)
(3 1.70984e-15 0)
(3 2.47331e-15 0)
(3 2.86346e-15 0)
(3 3.59556e-15 0)
(3 4.00535e-15 0)
(3 3.92253e-15 0)
(3 3.88998e-15 0)
(3 3.7173e-15 0)
(3 3.71135e-15 0)
(3 3.95322e-15 0)
(3 3.12077e-15 0)
(3 6.20468e-16 0)
(3 -1.22751e-15 0)
(3 -3.48756e-15 0)
(3 -3.35884e-15 0)
(3 -3.00706e-15 0)
(3 -1.38924e-15 0)
(3 -5.72236e-16 0)
(3 -6.00125e-16 0)
(3 9.35379e-17 0)
(3 1.25656e-15 0)
(3 1.46679e-15 0)
(3 1.69118e-15 0)
(3 2.56611e-15 0)
(3 2.48102e-15 0)
(3 2.13165e-15 0)
(3 2.1965e-15 0)
(3 2.54822e-15 0)
(3 2.571e-15 0)
(3 2.01531e-15 0)
(3 1.73252e-15 0)
(3 2.27429e-15 0)
(3 3.0613e-15 0)
(3 1.25759e-15 0)
(3 2.55579e-16 0)
(3 -7.68589e-16 0)
(3 -1.75979e-15 0)
(3 -1.88891e-15 0)
(3 -2.26139e-15 0)
(3 -2.98175e-15 0)
(3 -3.44426e-15 0)
(3 -1.55356e-16 0)
(3 -1.43621e-16 0)
(3 1.55966e-16 0)
(3 4.6803e-16 0)
(3 9.23523e-16 0)
(3 5.26552e-16 0)
(3 6.40695e-16 0)
(3 6.81706e-16 0)
(3 8.91509e-16 0)
(3 6.60501e-16 0)
(3 1.12173e-15 0)
(3 1.68606e-15 0)
(3 1.37071e-15 0)
(3 1.54161e-15 0)
(3 2.27472e-15 0)
(3 2.26766e-15 0)
(3 1.74386e-15 0)
(3 8.95939e-16 0)
(3 6.04905e-16 0)
(3 3.83422e-16 0)
(3 -3.4264e-16 0)
(3 6.40631e-17 0)
(3 1.40645e-15 0)
(3 1.31341e-15 0)
(3 1.33105e-15 0)
(3 1.53547e-15 0)
(3 1.87002e-15 0)
(3 1.75211e-15 0)
(3 1.36674e-15 0)
(3 1.19647e-15 0)
(3 1.40312e-15 0)
(3 1.40843e-15 0)
(3 1.52242e-15 0)
(3 1.82421e-15 0)
(3 2.21143e-15 0)
(3 1.94945e-15 0)
(3 1.5641e-15 0)
(3 -4.1093e-17 0)
(3 -9.99754e-16 0)
(3 -8.19325e-16 0)
(3 -1.08935e-15 0)
(3 2.76875e-16 0)
(3 7.71525e-16 0)
(3 -2.64163e-17 0)
(3 -2.76682e-17 0)
(3 -4.19244e-16 0)
(3 3.97104e-17 0)
(3 1.15756e-15 0)
(3 3.19394e-15 0)
(3 3.54569e-15 0)
(3 3.68773e-15 0)
(3 3.18189e-15 0)
(3 3.0472e-15 0)
(3 3.0955e-15 0)
(3 1.97451e-15 0)
(3 1.59885e-15 0)
(3 1.55508e-15 0)
(3 1.65692e-15 0)
(3 3.12913e-15 0)
(3 4.23798e-15 0)
(3 4.81566e-15 0)
(3 4.81482e-15 0)
(3 4.81258e-15 0)
(3 5.45721e-15 0)
(3 4.61795e-15 0)
(3 4.00809e-15 0)
(3 3.2471e-15 0)
(3 1.40462e-15 0)
(3 2.29891e-16 0)
(3 -1.13603e-15 0)
(3 -9.45698e-16 0)
(3 -7.39441e-16 0)
(3 -1.1951e-15 0)
(3 -1.02604e-15 0)
(3 -1.83517e-15 0)
(3 -1.65524e-15 0)
(3 -4.43774e-16 0)
(3 1.53385e-15 0)
(3 1.52693e-15 0)
(3 8.79833e-16 0)
(3 -2.85507e-16 0)
(3 4.22624e-16 0)
(3 1.18869e-15 0)
(3 1.46842e-15 0)
(3 2.00036e-15 0)
(3 1.30005e-15 0)
(3 4.36631e-16 0)
(3 2.23309e-16 0)
(3 -9.51286e-16 0)
(3 -1.47488e-15 0)
(3 -1.50255e-15 0)
(3 -1.58009e-15 0)
(3 -1.1675e-15 0)
(3 -7.55172e-16 0)
(3 -7.10904e-16 0)
(3 -1.95694e-15 0)
(3 -3.76366e-17 0)
(3 5.7337e-17 0)
(3 1.31011e-16 0)
(3 4.07288e-16 0)
(3 5.25055e-16 0)
(3 -2.69956e-16 0)
(3 -6.52976e-16 0)
(3 -5.42955e-16 0)
(3 -1.24405e-16 0)
(3 4.55957e-16 0)
(3 4.47401e-16 0)
(3 8.08557e-16 0)
(3 9.37305e-16 0)
(3 9.38648e-16 0)
(3 4.7483e-16 0)
(3 -1.17864e-16 0)
(3 -8.68778e-16 0)
(3 -7.90212e-16 0)
(3 5.73421e-17 0)
(3 -3.18208e-16 0)
(3 -9.52467e-16 0)
(3 -1.1018e-15 0)
(3 -1.13348e-15 0)
(3 -1.38116e-15 0)
(3 -4.69556e-16 0)
(3 1.06337e-15 0)
(3 9.75995e-16 0)
(3 6.30182e-17 0)
(3 -5.96071e-16 0)
(3 1.85324e-16 0)
(3 6.2417e-16 0)
(3 7.53059e-16 0)
(3 8.5892e-16 0)
(3 7.03531e-16 0)
(3 1.73648e-16 0)
(3 1.25248e-15 0)
(3 1.6649e-15 0)
(3 1.02855e-15 0)
(3 -1.96586e-16 0)
(3 -8.88417e-16 0)
(3 -5.3142e-16 0)
(3 -5.1743e-16 0)
(3 -1.30499e-16 0)
(3 -1.51143e-16 0)
(3 -2.4611e-16 0)
(3 -2.12718e-16 0)
(3 8.9858e-16 0)
(3 1.65561e-15 0)
(3 2.6175e-15 0)
(3 2.55991e-15 0)
(3 2.89931e-15 0)
(3 4.09443e-15 0)
(3 4.32811e-15 0)
(3 4.48267e-15 0)
(3 3.91739e-15 0)
(3 3.34659e-15 0)
(3 2.92924e-15 0)
(3 2.77832e-15 0)
(3 3.15726e-15 0)
(3 3.58146e-15 0)
(3 5.5201e-15 0)
(3 6.15098e-15 0)
(3 6.2789e-15 0)
(3 6.06456e-15 0)
(3 5.93454e-15 0)
(3 3.92655e-15 0)
(3 3.36477e-15 0)
(3 1.58411e-15 0)
(3 4.88108e-16 0)
(3 -6.60968e-16 0)
(3 -1.3998e-15 0)
(3 -1.17051e-15 0)
(3 -9.77802e-16 0)
(3 -6.16316e-16 0)
(3 -1.79289e-15 0)
(3 -3.5789e-15 0)
(3 -9.32745e-16 0)
(3 1.91741e-16 0)
(3 1.69839e-16 0)
(3 -1.35342e-16 0)
(3 -7.69467e-16 0)
(3 -2.04536e-15 0)
(3 -1.23109e-15 0)
(3 2.722e-16 0)
(3 9.11187e-16 0)
(3 6.92466e-16 0)
(3 -6.4746e-16 0)
(3 -1.42726e-15 0)
(3 -1.40615e-15 0)
(3 -1.90761e-15 0)
(3 -1.42683e-15 0)
(3 -9.21324e-16 0)
(3 5.72419e-16 0)
(3 1.52709e-15 0)
(3 1.43857e-15 0)
(3 9.65429e-16 0)
(3 -2.12599e-17 0)
(3 2.10418e-16 0)
(3 1.83391e-17 0)
(3 -3.79791e-16 0)
(3 -6.08509e-16 0)
(3 -5.79798e-16 0)
(3 -4.96275e-16 0)
(3 -2.18104e-16 0)
(3 4.03798e-16 0)
(3 1.11682e-15 0)
(3 1.34527e-15 0)
(3 4.73654e-16 0)
(3 -2.38334e-17 0)
(3 -9.64644e-17 0)
(3 -6.08553e-16 0)
(3 -7.59681e-16 0)
(3 -6.3285e-16 0)
(3 -2.35398e-16 0)
(3 2.07997e-16 0)
(3 6.16724e-16 0)
(3 5.97199e-16 0)
(3 -4.10607e-16 0)
(3 -1.3542e-15 0)
(3 -1.99493e-15 0)
(3 -9.93932e-16 0)
(3 1.11934e-16 0)
(3 1.62398e-16 0)
(3 -1.74445e-18 0)
(3 -2.73131e-16 0)
(3 -2.601e-16 0)
(3 5.63358e-17 0)
(3 -7.81031e-16 0)
(3 -9.47185e-16 0)
(3 -6.37841e-16 0)
(3 -8.85702e-16 0)
(3 -4.91749e-16 0)
(3 3.05013e-16 0)
(3 1.47579e-15 0)
(3 1.93121e-15 0)
(3 2.15175e-15 0)
(3 2.25497e-15 0)
(3 2.13135e-15 0)
(3 1.06946e-15 0)
(3 7.66807e-16 0)
(3 1.49656e-16 0)
(3 -7.81246e-18 0)
(3 1.92778e-16 0)
(3 1.40839e-15 0)
(3 1.44032e-15 0)
(3 1.34426e-15 0)
(3 1.1943e-15 0)
(3 1.43996e-15 0)
(3 3.33598e-15 0)
(3 3.89525e-15 0)
(3 4.95203e-15 0)
(3 4.19665e-15 0)
(3 4.45704e-15 0)
(3 4.59596e-15 0)
(3 3.50907e-15 0)
(3 2.9683e-15 0)
(3 3.36445e-15 0)
(3 4.14591e-15 0)
(3 4.22729e-15 0)
(3 4.13432e-15 0)
(3 4.27561e-15 0)
(3 3.03875e-15 0)
(3 2.5917e-15 0)
(3 2.84825e-15 0)
(3 2.25071e-15 0)
(3 4.05493e-16 0)
(3 -2.63197e-15 0)
(3 -1.79076e-15 0)
(3 7.05324e-17 0)
(3 -6.72563e-16 0)
(3 -1.16403e-15 0)
(3 -1.36004e-15 0)
(3 -1.30501e-15 0)
(3 -1.76147e-15 0)
(3 -1.6878e-15 0)
(3 -1.72401e-15 0)
(3 -1.68508e-15 0)
(3 -2.40703e-15 0)
(3 -2.47709e-15 0)
(3 -1.29895e-15 0)
(3 -5.62768e-17 0)
(3 -2.57699e-16 0)
(3 -1.41639e-15 0)
(3 -2.65884e-15 0)
(3 -4.53928e-15 0)
(3 -4.32345e-15 0)
(3 -2.7689e-15 0)
(3 -1.58448e-15 0)
(3 -1.49307e-16 0)
(3 2.6001e-16 0)
(3 -3.60629e-17 0)
(3 -1.64728e-16 0)
(3 -8.53308e-17 0)
(3 -5.44689e-17 0)
(3 -1.85023e-16 0)
(3 -4.26064e-16 0)
(3 -5.39025e-16 0)
(3 2.27939e-16 0)
(3 3.00783e-16 0)
(3 1.12425e-15 0)
(3 1.51317e-15 0)
(3 1.94579e-15 0)
(3 1.96668e-15 0)
(3 7.50621e-16 0)
(3 -5.23257e-16 0)
(3 -1.13452e-15 0)
(3 -1.27594e-15 0)
(3 -1.28196e-15 0)
(3 1.12905e-16 0)
(3 5.66676e-16 0)
(3 8.30035e-17 0)
(3 1.31425e-15 0)
(3 2.06337e-15 0)
(3 1.63415e-15 0)
(3 9.01173e-16 0)
(3 6.34506e-17 0)
(3 -4.8984e-16 0)
(3 -8.39423e-16 0)
(3 -2.82152e-16 0)
(3 3.58791e-16 0)
(3 5.04533e-16 0)
(3 4.88918e-16 0)
(3 1.61603e-16 0)
(3 -9.3837e-16 0)
(3 -1.00574e-15 0)
(3 -6.5964e-16 0)
(3 -7.00728e-17 0)
(3 -1.51899e-16 0)
(3 1.23219e-15 0)
(3 1.73274e-15 0)
(3 3.3847e-15 0)
(3 4.53741e-15 0)
(3 3.93427e-15 0)
(3 3.62231e-15 0)
(3 2.57636e-15 0)
(3 1.50772e-15 0)
(3 1.18187e-15 0)
(3 8.43382e-16 0)
(3 2.72217e-17 0)
(3 -2.21023e-16 0)
(3 -6.59284e-17 0)
(3 -1.08308e-16 0)
(3 -9.92611e-16 0)
(3 -2.1451e-15 0)
(3 -1.84286e-17 0)
(3 1.29763e-15 0)
(3 2.52961e-15 0)
(3 3.58635e-15 0)
(3 4.32828e-15 0)
(3 5.51003e-15 0)
(3 5.22498e-15 0)
(3 4.46855e-15 0)
(3 3.44389e-15 0)
(3 3.15865e-15 0)
(3 2.46451e-15 0)
(3 1.50222e-15 0)
(3 1.31849e-15 0)
(3 6.19523e-16 0)
(3 5.89458e-16 0)
(3 3.31636e-16 0)
(3 -3.53294e-16 0)
(3 -9.25655e-16 0)
(3 -1.06597e-15 0)
(3 -8.13296e-16 0)
(3 -5.07037e-16 0)
(3 -9.98659e-16 0)
(3 -1.0176e-15 0)
(3 -2.42298e-15 0)
(3 -3.03101e-15 0)
(3 -3.23478e-15 0)
(3 -3.5559e-15 0)
(3 -3.40054e-15 0)
(3 -2.86554e-15 0)
(3 -1.95935e-15 0)
(3 -2.72141e-15 0)
(3 -3.3028e-15 0)
(3 -2.64343e-15 0)
(3 -2.95753e-15 0)
(3 -4.45335e-15 0)
(3 -4.89384e-15 0)
(3 -4.80286e-15 0)
(3 -3.70499e-15 0)
(3 -2.81421e-15 0)
(3 -1.63553e-15 0)
(3 -1.20592e-15 0)
(3 -1.10115e-15 0)
(3 -1.46136e-15 0)
(3 -7.2842e-16 0)
(3 8.73437e-17 0)
(3 -1.87904e-16 0)
(3 -2.86338e-16 0)
(3 -9.56878e-17 0)
(3 2.28638e-16 0)
(3 5.3407e-16 0)
(3 8.68863e-16 0)
(3 7.58424e-16 0)
(3 1.17347e-15 0)
(3 1.09113e-15 0)
(3 1.44094e-15 0)
(3 1.44961e-15 0)
(3 1.08498e-15 0)
(3 -2.57458e-17 0)
(3 -1.86098e-16 0)
(3 -1.43797e-16 0)
(3 7.15121e-16 0)
(3 4.19702e-16 0)
(3 8.33726e-16 0)
(3 1.58713e-15 0)
(3 2.1576e-15 0)
(3 2.36179e-15 0)
(3 2.32172e-15 0)
(3 2.7667e-15 0)
(3 1.71304e-15 0)
(3 -1.12488e-15 0)
(3 -1.53639e-15 0)
(3 -6.01846e-16 0)
(3 7.6568e-18 0)
(3 -3.09319e-16 0)
(3 -1.65679e-15 0)
(3 -9.43223e-16 0)
(3 -8.49519e-16 0)
(3 -3.63738e-16 0)
(3 4.83735e-16 0)
(3 1.70615e-15 0)
(3 2.57494e-15 0)
(3 2.40615e-15 0)
(3 2.59827e-15 0)
(3 2.69523e-15 0)
(3 2.76963e-15 0)
(3 2.65082e-15 0)
(3 2.04772e-15 0)
(3 1.74769e-15 0)
(3 1.18171e-15 0)
(3 6.8884e-16 0)
(3 -7.00495e-16 0)
(3 -1.86518e-15 0)
(3 -1.90221e-15 0)
(3 -1.89151e-15 0)
(3 -1.88332e-15 0)
(3 -2.6012e-15 0)
(3 -2.75306e-15 0)
(3 -1.37966e-15 0)
(3 5.65331e-16 0)
(3 2.2767e-15 0)
(3 3.68363e-15 0)
(3 4.23283e-15 0)
(3 3.99912e-15 0)
(3 2.02713e-15 0)
(3 1.29533e-15 0)
(3 1.25324e-15 0)
(3 5.29421e-16 0)
(3 2.83843e-16 0)
(3 -8.93983e-16 0)
(3 -7.78385e-16 0)
(3 -1.35259e-16 0)
(3 -1.15772e-16 0)
(3 -9.22007e-16 0)
(3 -7.11027e-16 0)
(3 -1.47773e-16 0)
(3 -6.27349e-16 0)
(3 -1.56723e-15 0)
(3 -2.05392e-15 0)
(3 -1.62703e-15 0)
(3 -1.67648e-15 0)
(3 -2.12463e-15 0)
(3 -2.40821e-15 0)
(3 -3.24525e-15 0)
(3 -3.26471e-15 0)
(3 -2.70712e-15 0)
(3 -2.64353e-15 0)
(3 -3.85579e-15 0)
(3 -4.30408e-15 0)
(3 -4.49751e-15 0)
(3 -4.64785e-15 0)
(3 -4.72637e-15 0)
(3 -4.26776e-15 0)
(3 -3.16606e-15 0)
(3 -2.00791e-15 0)
(3 -2.17558e-15 0)
(3 -1.12306e-15 0)
(3 5.14082e-17 0)
(3 1.03853e-15 0)
(3 1.27415e-15 0)
(3 5.33954e-16 0)
(3 -1.38807e-17 0)
(3 3.69379e-18 0)
(3 2.0973e-16 0)
(3 1.86407e-16 0)
(3 6.66698e-17 0)
(3 1.35448e-16 0)
(3 2.06289e-16 0)
(3 -2.7991e-16 0)
(3 -4.20042e-16 0)
(3 -6.66985e-16 0)
(3 -1.26593e-16 0)
(3 1.37116e-15 0)
(3 1.84822e-15 0)
(3 2.54481e-15 0)
(3 2.71972e-15 0)
(3 2.70547e-15 0)
(3 2.0628e-15 0)
(3 1.06187e-15 0)
(3 1.38361e-15 0)
(3 1.6111e-15 0)
(3 1.49387e-15 0)
(3 9.21193e-16 0)
(3 1.1558e-15 0)
(3 1.88833e-15 0)
(3 2.27517e-15 0)
(3 1.84716e-15 0)
(3 5.33865e-16 0)
(3 4.68036e-16 0)
(3 7.66593e-16 0)
(3 -1.80541e-16 0)
(3 -9.98195e-16 0)
(3 -1.19872e-15 0)
(3 -1.72586e-15 0)
(3 -1.3605e-15 0)
(3 -6.73734e-16 0)
(3 6.27402e-16 0)
(3 1.61828e-15 0)
(3 2.01747e-15 0)
(3 1.88389e-15 0)
(3 1.90254e-15 0)
(3 1.58381e-15 0)
(3 1.85256e-15 0)
(3 2.24243e-15 0)
(3 1.69691e-15 0)
(3 1.0945e-15 0)
(3 -4.48009e-16 0)
(3 -1.63876e-15 0)
(3 -1.84382e-15 0)
(3 -2.43955e-15 0)
(3 -2.97135e-15 0)
(3 -2.81221e-15 0)
(3 -1.97483e-15 0)
(3 -1.28256e-15 0)
(3 -7.22355e-16 0)
(3 -1.62806e-16 0)
(3 1.67896e-15 0)
(3 1.90616e-15 0)
(3 1.49205e-15 0)
(3 9.54747e-17 0)
(3 -8.91621e-16 0)
(3 -1.33556e-15 0)
(3 -3.10065e-16 0)
(3 -5.9595e-19 0)
(3 4.5871e-16 0)
(3 -5.09429e-16 0)
(3 4.81716e-17 0)
(3 5.82348e-16 0)
(3 -8.64369e-17 0)
(3 -5.7986e-16 0)
(3 -1.00833e-15 0)
(3 -1.20582e-15 0)
(3 -1.3671e-15 0)
(3 -1.66076e-15 0)
(3 -1.6533e-15 0)
(3 -1.0151e-15 0)
(3 -6.69226e-16 0)
(3 -9.73871e-16 0)
(3 -1.70318e-15 0)
(3 -2.27977e-15 0)
(3 -3.0375e-15 0)
(3 -4.24299e-15 0)
(3 -4.4251e-15 0)
(3 -4.59668e-15 0)
(3 -5.05357e-15 0)
(3 -5.58387e-15 0)
(3 -5.65417e-15 0)
(3 -5.27417e-15 0)
(3 -3.93946e-15 0)
(3 -2.3974e-15 0)
(3 -5.3032e-16 0)
(3 5.58786e-17 0)
(3 3.32588e-16 0)
(3 1.37275e-15 0)
(3 3.3021e-15 0)
(3 3.90654e-15 0)
(3 2.47837e-15 0)
(3 -8.86145e-17 0)
(3 -1.05285e-17 0)
(3 4.73783e-16 0)
(3 1.97846e-16 0)
(3 -4.69032e-16 0)
(3 -7.22296e-16 0)
(3 -1.2006e-15 0)
(3 -1.82413e-15 0)
(3 -1.93839e-15 0)
(3 -1.81312e-15 0)
(3 -1.14581e-15 0)
(3 -7.29327e-16 0)
(3 3.01146e-16 0)
(3 1.67247e-15 0)
(3 2.64955e-15 0)
(3 2.56543e-15 0)
(3 1.75105e-15 0)
(3 1.96655e-15 0)
(3 2.18396e-15 0)
(3 1.72468e-15 0)
(3 1.39317e-15 0)
(3 1.31539e-15 0)
(3 1.14672e-15 0)
(3 7.65154e-16 0)
(3 1.31454e-15 0)
(3 2.8433e-15 0)
(3 2.30806e-15 0)
(3 2.56142e-16 0)
(3 -5.50665e-17 0)
(3 -6.77585e-16 0)
(3 -7.71234e-16 0)
(3 -1.49524e-15 0)
(3 -1.46187e-15 0)
(3 -1.59889e-15 0)
(3 -9.43212e-16 0)
(3 -6.00204e-16 0)
(3 8.29208e-16 0)
(3 1.59533e-15 0)
(3 2.24528e-15 0)
(3 2.07786e-15 0)
(3 1.45342e-15 0)
(3 7.18531e-16 0)
(3 1.36819e-15 0)
(3 -1.20922e-17 0)
(3 -9.45239e-16 0)
(3 -1.15469e-15 0)
(3 -1.53498e-15 0)
(3 -1.37302e-15 0)
(3 -1.53604e-15 0)
(3 -2.55805e-15 0)
(3 -2.71263e-15 0)
(3 -2.21465e-15 0)
(3 -2.50342e-15 0)
(3 -3.08591e-15 0)
(3 -2.0056e-15 0)
(3 9.51762e-16 0)
(3 1.38842e-15 0)
(3 9.91314e-16 0)
(3 6.01572e-16 0)
(3 6.77874e-16 0)
(3 3.32238e-16 0)
(3 -9.94075e-16 0)
(3 -3.70367e-16 0)
(3 1.27319e-16 0)
(3 7.30359e-16 0)
(3 8.27511e-16 0)
(3 9.95202e-16 0)
(3 9.0835e-16 0)
(3 1.1551e-15 0)
(3 1.47769e-15 0)
(3 1.86619e-15 0)
(3 1.70843e-15 0)
(3 1.36677e-15 0)
(3 5.41224e-16 0)
(3 -2.46915e-16 0)
(3 -1.15516e-16 0)
(3 8.83743e-18 0)
(3 -4.36361e-16 0)
(3 -1.18379e-15 0)
(3 -1.54337e-15 0)
(3 -2.54177e-15 0)
(3 -2.63782e-15 0)
(3 -3.10089e-15 0)
(3 -4.97161e-15 0)
(3 -6.48382e-15 0)
(3 -6.3081e-15 0)
(3 -5.52087e-15 0)
(3 -2.96753e-15 0)
(3 -1.62178e-15 0)
(3 -9.72355e-16 0)
(3 4.93257e-16 0)
(3 1.88918e-15 0)
(3 2.00862e-15 0)
(3 2.64777e-15 0)
(3 3.02085e-15 0)
(3 2.51327e-15 0)
(3 -3.71438e-18 0)
(3 -1.80208e-16 0)
(3 -2.4317e-16 0)
(3 1.68139e-17 0)
(3 1.53633e-17 0)
(3 -3.65653e-16 0)
(3 -8.60223e-16 0)
(3 -1.25555e-15 0)
(3 -1.14057e-15 0)
(3 -1.14317e-15 0)
(3 -8.66557e-16 0)
(3 -9.13167e-16 0)
(3 -1.70547e-16 0)
(3 1.02094e-15 0)
(3 1.37758e-15 0)
(3 1.48811e-15 0)
(3 1.46349e-15 0)
(3 1.67136e-15 0)
(3 2.1156e-15 0)
(3 1.45522e-15 0)
(3 8.07828e-16 0)
(3 8.59238e-16 0)
(3 8.34763e-16 0)
(3 8.0145e-16 0)
(3 8.27325e-16 0)
(3 1.66753e-15 0)
(3 2.8711e-15 0)
(3 1.64546e-15 0)
(3 8.43198e-16 0)
(3 -2.84519e-16 0)
(3 -5.15484e-16 0)
(3 6.38224e-17 0)
(3 4.14383e-16 0)
(3 4.34803e-18 0)
(3 -2.00231e-16 0)
(3 2.80486e-17 0)
(3 6.37517e-16 0)
(3 8.76676e-16 0)
(3 1.19494e-15 0)
(3 5.79495e-16 0)
(3 1.79385e-17 0)
(3 -1.92146e-16 0)
(3 -1.43453e-15 0)
(3 -1.65884e-15 0)
(3 -9.04252e-16 0)
(3 -1.13903e-15 0)
(3 -1.12868e-15 0)
(3 -1.10858e-15 0)
(3 -1.37124e-15 0)
(3 -1.96879e-15 0)
(3 -2.82774e-15 0)
(3 -2.88068e-15 0)
(3 -2.67011e-15 0)
(3 -2.72359e-15 0)
(3 -1.62403e-15 0)
(3 -1.01013e-15 0)
(3 -2.09959e-15 0)
(3 -1.25315e-15 0)
(3 7.91267e-16 0)
(3 1.33429e-15 0)
(3 1.26485e-15 0)
(3 -6.5308e-16 0)
(3 -8.54645e-16 0)
(3 1.27063e-16 0)
(3 9.50917e-16 0)
(3 6.95771e-16 0)
(3 -5.59705e-17 0)
(3 6.65812e-16 0)
(3 1.90037e-15 0)
(3 2.55588e-15 0)
(3 3.29899e-15 0)
(3 2.19278e-15 0)
(3 1.37056e-15 0)
(3 1.62167e-15 0)
(3 1.05791e-15 0)
(3 4.44917e-16 0)
(3 1.46667e-16 0)
(3 -7.0654e-16 0)
(3 -5.35737e-16 0)
(3 -6.6269e-16 0)
(3 -1.03847e-15 0)
(3 -1.33199e-15 0)
(3 -2.12899e-15 0)
(3 -4.0225e-15 0)
(3 -4.95727e-15 0)
(3 -5.08649e-15 0)
(3 -2.89681e-15 0)
(3 -1.59991e-15 0)
(3 -3.1045e-16 0)
(3 4.94164e-16 0)
(3 1.09938e-15 0)
(3 9.44698e-16 0)
(3 2.0673e-15 0)
(3 2.28039e-15 0)
(3 2.25313e-15 0)
(3 1.89273e-15 0)
(3 9.96506e-17 0)
(3 -2.68794e-17 0)
(3 -3.3392e-16 0)
(3 -1.38547e-16 0)
(3 3.21006e-16 0)
(3 4.37419e-16 0)
(3 8.02664e-16 0)
(3 1.23843e-15 0)
(3 1.48093e-15 0)
(3 9.83393e-16 0)
(3 7.51201e-16 0)
(3 9.2706e-16 0)
(3 1.33901e-15 0)
(3 1.47079e-16 0)
(3 8.72735e-17 0)
(3 2.92042e-16 0)
(3 5.45802e-16 0)
(3 3.86341e-16 0)
(3 -6.82254e-17 0)
(3 -5.34183e-16 0)
(3 -8.43187e-17 0)
(3 -7.02251e-17 0)
(3 -3.11672e-16 0)
(3 -5.22285e-16 0)
(3 -2.68308e-16 0)
(3 -8.07029e-17 0)
(3 -5.23623e-17 0)
(3 -4.11176e-16 0)
(3 -4.96681e-16 0)
(3 1.87845e-16 0)
(3 9.33653e-16 0)
(3 1.10932e-15 0)
(3 7.2216e-16 0)
(3 4.57243e-16 0)
(3 5.10895e-16 0)
(3 8.76831e-16 0)
(3 1.09847e-15 0)
(3 1.11515e-15 0)
(3 1.62877e-16 0)
(3 -7.44601e-17 0)
(3 -3.65407e-16 0)
(3 -3.65308e-16 0)
(3 -1.64531e-15 0)
(3 -1.8611e-15 0)
(3 -1.01753e-15 0)
(3 -2.79209e-16 0)
(3 2.59301e-16 0)
(3 -4.14862e-16 0)
(3 -9.3708e-16 0)
(3 -1.01292e-15 0)
(3 -1.48521e-15 0)
(3 -2.18248e-15 0)
(3 -1.98304e-15 0)
(3 -7.46848e-16 0)
(3 -2.18011e-16 0)
(3 -1.03674e-15 0)
(3 -2.33543e-15 0)
(3 -1.97073e-15 0)
(3 -7.78802e-16 0)
(3 1.7363e-15 0)
(3 2.62253e-15 0)
(3 1.81263e-15 0)
(3 1.61867e-16 0)
(3 4.96393e-16 0)
(3 1.06175e-15 0)
(3 9.12043e-16 0)
(3 7.01332e-16 0)
(3 9.56468e-16 0)
(3 1.72942e-15 0)
(3 1.92777e-15 0)
(3 2.03806e-15 0)
(3 5.97016e-16 0)
(3 1.33363e-15 0)
(3 2.0885e-15 0)
(3 2.3673e-15 0)
(3 1.32573e-15 0)
(3 3.2639e-16 0)
(3 -9.86404e-17 0)
(3 -2.25495e-16 0)
(3 -6.52622e-16 0)
(3 -6.97701e-16 0)
(3 -1.21684e-15 0)
(3 -2.06466e-15 0)
(3 -2.80838e-15 0)
(3 -3.22339e-15 0)
(3 -3.71251e-15 0)
(3 -2.08485e-15 0)
(3 -1.0022e-16 0)
(3 1.86013e-15 0)
(3 2.57056e-15 0)
(3 2.5983e-15 0)
(3 2.67539e-15 0)
(3 3.16599e-15 0)
(3 3.33478e-15 0)
(3 2.54115e-15 0)
(3 2.0518e-15 0)
(3 3.72135e-17 0)
(3 1.2573e-16 0)
(3 2.28136e-16 0)
(3 4.20579e-17 0)
(3 3.94531e-16 0)
(3 8.25834e-16 0)
(3 1.43036e-15 0)
(3 1.69678e-15 0)
(3 1.46742e-15 0)
(3 1.68232e-15 0)
(3 1.0533e-15 0)
(3 8.33217e-16 0)
(3 5.97634e-16 0)
(3 4.35092e-17 0)
(3 -7.5719e-16 0)
(3 -1.08557e-15 0)
(3 -5.16974e-16 0)
(3 -3.13911e-16 0)
(3 -6.92086e-16 0)
(3 -6.5859e-16 0)
(3 1.86943e-16 0)
(3 7.28702e-16 0)
(3 1.06844e-16 0)
(3 -1.08181e-15 0)
(3 -2.19454e-15 0)
(3 -2.23915e-15 0)
(3 -1.82816e-15 0)
(3 -7.91021e-16 0)
(3 -3.70549e-16 0)
(3 1.7356e-15 0)
(3 2.62126e-15 0)
(3 2.00329e-15 0)
(3 1.57256e-15 0)
(3 1.57782e-15 0)
(3 1.40248e-15 0)
(3 5.75491e-16 0)
(3 1.59042e-16 0)
(3 1.42756e-16 0)
(3 1.51406e-16 0)
(3 3.58684e-17 0)
(3 1.15541e-16 0)
(3 1.52351e-19 0)
(3 -2.89308e-16 0)
(3 -1.9934e-16 0)
(3 -2.70817e-16 0)
(3 -1.27755e-16 0)
(3 -5.12954e-16 0)
(3 -2.21426e-16 0)
(3 -3.58804e-17 0)
(3 2.91481e-16 0)
(3 6.98143e-16 0)
(3 6.62932e-16 0)
(3 -6.9762e-16 0)
(3 -1.26828e-15 0)
(3 -1.12085e-15 0)
(3 -3.92832e-16 0)
(3 -1.00581e-16 0)
(3 -1.6237e-16 0)
(3 -8.1755e-17 0)
(3 8.8141e-16 0)
(3 2.50714e-15 0)