/*--------------------------------*- C++ -*----------------------------------*\
  =========                 |
  \\      /  F ield         | OpenFOAM: The Open Source CFD Toolbox
   \\    /   O peration     | Website:  https://openfoam.org
    \\  /    A nd           | Version:  7
     \\/     M anipulation  |
\*---------------------------------------------------------------------------*/
FoamFile
{
    version     2.0;
    format      ascii;
    class       volVectorField;
    location    "2.4";
    object      U;
}
// * * * * * * * * * * * * * * * * * * * * * * * * * * * * * * * * * * * * * //

dimensions      [0 1 -1 0 0 0 0];

internalField   nonuniform List<vector> 
73728
(
(3 3.08899e-17 0)
(3 1.20436e-17 0)
(3 2.00013e-16 0)
(3 1.85422e-16 0)
(3 -7.76302e-17 0)
(3 -4.1765e-16 0)
(3 -6.24343e-16 0)
(3 -5.37963e-16 0)
(3 -2.16058e-16 0)
(3 -2.45714e-17 0)
(3 1.96743e-16 0)
(3 7.5096e-16 0)
(3 1.89015e-15 0)
(3 1.67324e-15 0)
(3 9.1189e-16 0)
(3 1.65596e-15 0)
(3 1.57757e-15 0)
(3 1.40356e-15 0)
(3 1.2352e-15 0)
(3 4.85955e-16 0)
(3 1.4081e-16 0)
(3 2.53994e-16 0)
(3 8.20668e-16 0)
(3 9.35276e-16 0)
(3 4.84232e-16 0)
(3 9.32192e-16 0)
(3 1.84951e-15 0)
(3 7.38626e-16 0)
(3 -6.62718e-16 0)
(3 -7.34207e-16 0)
(3 -3.969e-16 0)
(3 -3.78577e-16 0)
(3 -9.62682e-16 0)
(3 -1.34364e-15 0)
(3 -1.08861e-15 0)
(3 -1.19714e-15 0)
(3 -5.66211e-16 0)
(3 5.3261e-16 0)
(3 9.79327e-16 0)
(3 9.91114e-16 0)
(3 1.05599e-15 0)
(3 -4.30188e-16 0)
(3 -1.47619e-15 0)
(3 -9.75678e-16 0)
(3 -3.00265e-16 0)
(3 -5.26146e-17 0)
(3 4.76228e-16 0)
(3 5.38743e-16 0)
(3 8.45865e-16 0)
(3 3.25692e-16 0)
(3 4.38173e-16 0)
(3 2.51606e-16 0)
(3 -4.82715e-16 0)
(3 -5.53929e-16 0)
(3 -3.49559e-16 0)
(3 -3.07986e-16 0)
(3 -1.84893e-16 0)
(3 -6.58725e-17 0)
(3 3.54245e-16 0)
(3 6.90842e-16 0)
(3 7.07697e-16 0)
(3 2.41347e-16 0)
(3 -1.61901e-16 0)
(3 8.10871e-16 0)
(3 9.58421e-16 0)
(3 7.56634e-16 0)
(3 6.40865e-16 0)
(3 6.67424e-16 0)
(3 4.19708e-16 0)
(3 -4.61458e-16 0)
(3 -1.08434e-15 0)
(3 -1.3814e-15 0)
(3 -7.24724e-16 0)
(3 -2.2031e-16 0)
(3 -2.25773e-16 0)
(3 -4.02387e-16 0)
(3 1.2321e-16 0)
(3 6.75519e-17 0)
(3 -4.66398e-16 0)
(3 -1.51887e-15 0)
(3 -1.90394e-15 0)
(3 -1.48352e-15 0)
(3 -1.43491e-15 0)
(3 -9.83064e-16 0)
(3 -2.59672e-16 0)
(3 -2.75035e-16 0)
(3 -2.58593e-16 0)
(3 9.4317e-16 0)
(3 8.99959e-16 0)
(3 4.93545e-16 0)
(3 -3.43447e-16 0)
(3 -3.00718e-16 0)
(3 -1.91287e-16 0)
(3 -3.15724e-16 0)
(3 -3.05775e-16 0)
(3 -1.45246e-17 0)
(3 8.03198e-17 0)
(3 2.81793e-16 0)
(3 2.28059e-16 0)
(3 4.31495e-16 0)
(3 -4.94274e-17 0)
(3 -7.27574e-16 0)
(3 -7.69238e-16 0)
(3 -1.06937e-15 0)
(3 -1.03082e-15 0)
(3 -4.26999e-17 0)
(3 8.88785e-16 0)
(3 1.62221e-15 0)
(3 1.89147e-15 0)
(3 1.79611e-15 0)
(3 1.78036e-15 0)
(3 1.70874e-15 0)
(3 1.72738e-15 0)
(3 2.10429e-15 0)
(3 1.27155e-15 0)
(3 2.54325e-16 0)
(3 -5.58942e-16 0)
(3 -2.92366e-16 0)
(3 1.50145e-16 0)
(3 4.2564e-16 0)
(3 1.84527e-16 0)
(3 3.40964e-16 0)
(3 7.77457e-16 0)
(3 -2.26833e-16 0)
(3 -2.05046e-15 0)
(3 -1.9769e-15 0)
(3 -1.42779e-15 0)
(3 -8.99846e-16 0)
(3 -1.31194e-15 0)
(3 -1.73613e-15 0)
(3 -1.60069e-15 0)
(3 -1.58009e-15 0)
(3 -8.88195e-16 0)
(3 4.60539e-16 0)
(3 1.00784e-15 0)
(3 5.56467e-16 0)
(3 -2.97993e-16 0)
(3 -1.52208e-15 0)
(3 -2.1898e-15 0)
(3 -1.09948e-15 0)
(3 1.48328e-16 0)
(3 9.56115e-16 0)
(3 1.07937e-15 0)
(3 5.73679e-16 0)
(3 5.77905e-16 0)
(3 7.86132e-17 0)
(3 4.84617e-17 0)
(3 2.82137e-16 0)
(3 -2.71396e-16 0)
(3 1.21232e-16 0)
(3 7.60814e-16 0)
(3 -9.54444e-17 0)
(3 -2.37609e-16 0)
(3 -2.41174e-17 0)
(3 1.47688e-15 0)
(3 1.70641e-15 0)
(3 1.33661e-15 0)
(3 5.14658e-16 0)
(3 -4.58835e-17 0)
(3 8.60934e-16 0)
(3 1.52626e-15 0)
(3 1.15701e-15 0)
(3 4.5135e-16 0)
(3 -1.02448e-16 0)
(3 -9.56257e-16 0)
(3 -2.26635e-15 0)
(3 -2.88397e-15 0)
(3 -2.39935e-15 0)
(3 -1.23388e-15 0)
(3 -2.22992e-16 0)
(3 -1.87538e-16 0)
(3 -2.24135e-16 0)
(3 -1.30622e-16 0)
(3 -8.99466e-16 0)
(3 -1.84308e-15 0)
(3 -2.91465e-15 0)
(3 -3.02192e-15 0)
(3 -2.04068e-15 0)
(3 -1.26269e-15 0)
(3 -5.75862e-16 0)
(3 -7.6619e-16 0)
(3 -8.28225e-16 0)
(3 -8.21167e-17 0)
(3 7.77788e-16 0)
(3 5.69147e-16 0)
(3 2.55893e-16 0)
(3 -8.24654e-16 0)
(3 -9.21598e-16 0)
(3 -7.14502e-16 0)
(3 -4.36829e-16 0)
(3 -8.535e-16 0)
(3 -1.05755e-15 0)
(3 1.05735e-17 0)
(3 -2.23541e-16 0)
(3 -4.4037e-16 0)
(3 -5.89718e-16 0)
(3 -9.43891e-16 0)
(3 -1.29935e-15 0)
(3 -8.42819e-16 0)
(3 -4.72802e-16 0)
(3 -4.65994e-16 0)
(3 -8.99212e-17 0)
(3 1.63233e-16 0)
(3 3.57177e-16 0)
(3 4.23947e-16 0)
(3 7.68339e-16 0)
(3 2.52576e-16 0)
(3 -5.73589e-16 0)
(3 -8.18049e-16 0)
(3 -8.09229e-16 0)
(3 -2.68314e-16 0)
(3 4.09785e-16 0)
(3 1.3587e-16 0)
(3 -2.6671e-16 0)
(3 -6.30449e-16 0)
(3 -3.7442e-16 0)
(3 -1.37465e-16 0)
(3 -7.14799e-17 0)
(3 -9.70549e-16 0)
(3 -2.58421e-15 0)
(3 -3.00331e-15 0)
(3 -3.05076e-15 0)
(3 -2.98094e-15 0)
(3 -2.92654e-15 0)
(3 -3.20188e-15 0)
(3 -3.54409e-15 0)
(3 -3.42429e-15 0)
(3 -3.18722e-15 0)
(3 -3.01571e-15 0)
(3 -2.33552e-15 0)
(3 -1.92224e-15 0)
(3 -1.28211e-15 0)
(3 -1.02447e-15 0)
(3 -1.06079e-15 0)
(3 -6.54024e-16 0)
(3 1.4433e-17 0)
(3 9.80778e-17 0)
(3 6.02793e-16 0)
(3 7.47765e-16 0)
(3 8.37724e-16 0)
(3 6.2438e-16 0)
(3 3.88022e-16 0)
(3 -1.79009e-16 0)
(3 -5.8534e-16 0)
(3 -5.71346e-17 0)
(3 6.37366e-17 0)
(3 -3.48904e-17 0)
(3 -2.09068e-17 0)
(3 -3.68932e-16 0)
(3 -5.14993e-17 0)
(3 8.83077e-16 0)
(3 8.90915e-16 0)
(3 9.10756e-16 0)
(3 5.4572e-16 0)
(3 -1.44885e-16 0)
(3 -1.32955e-16 0)
(3 1.90425e-16 0)
(3 4.40005e-16 0)
(3 2.37174e-16 0)
(3 -1.4112e-15 0)
(3 -1.86025e-15 0)
(3 -1.17803e-15 0)
(3 -1.10567e-15 0)
(3 -1.11208e-15 0)
(3 -9.79321e-16 0)
(3 -9.62593e-16 0)
(3 -8.72048e-16 0)
(3 -8.54907e-16 0)
(3 -5.97199e-16 0)
(3 -1.41629e-15 0)
(3 -3.33152e-15 0)
(3 -4.16185e-15 0)
(3 -3.92073e-15 0)
(3 -3.01039e-15 0)
(3 -1.24021e-15 0)
(3 -4.39253e-16 0)
(3 -7.83653e-16 0)
(3 -4.99688e-16 0)
(3 2.68081e-16 0)
(3 -5.55974e-17 0)
(3 -9.96902e-16 0)
(3 -9.18574e-16 0)
(3 -9.8876e-16 0)
(3 -4.64821e-16 0)
(3 -2.7836e-16 0)
(3 -1.98385e-17 0)
(3 -2.48543e-16 0)
(3 -7.43424e-16 0)
(3 2.87182e-17 0)
(3 -6.45153e-16 0)
(3 -7.03343e-16 0)
(3 -4.89985e-16 0)
(3 -6.57828e-16 0)
(3 -1.28901e-15 0)
(3 -9.45774e-16 0)
(3 -1.1113e-17 0)
(3 3.02019e-16 0)
(3 -5.18701e-17 0)
(3 -3.1706e-16 0)
(3 -2.81518e-16 0)
(3 1.43239e-18 0)
(3 7.59642e-17 0)
(3 -9.72891e-16 0)
(3 -2.11923e-15 0)
(3 -1.70347e-15 0)
(3 -1.89403e-15 0)
(3 -1.27699e-15 0)
(3 7.22025e-16 0)
(3 7.24351e-16 0)
(3 -1.42979e-17 0)
(3 -1.97883e-16 0)
(3 2.39722e-16 0)
(3 3.94281e-16 0)
(3 3.88132e-16 0)
(3 -5.13994e-16 0)
(3 -2.27551e-15 0)
(3 -2.68806e-15 0)
(3 -2.07842e-15 0)
(3 -3.45273e-15 0)
(3 -4.35053e-15 0)
(3 -4.09684e-15 0)
(3 -4.45884e-15 0)
(3 -4.42565e-15 0)
(3 -3.73969e-15 0)
(3 -3.13144e-15 0)
(3 -2.85367e-15 0)
(3 -2.89671e-15 0)
(3 -2.98336e-15 0)
(3 -3.19539e-16 0)
(3 1.05142e-16 0)
(3 5.30222e-16 0)
(3 8.71495e-16 0)
(3 5.18341e-16 0)
(3 8.64265e-16 0)
(3 1.09068e-15 0)
(3 8.27247e-16 0)
(3 1.13877e-15 0)
(3 2.46272e-16 0)
(3 -2.73344e-16 0)
(3 -1.27484e-15 0)
(3 -5.39772e-16 0)
(3 -1.50932e-16 0)
(3 -1.60968e-16 0)
(3 1.30966e-16 0)
(3 1.1655e-15 0)
(3 1.96434e-15 0)
(3 6.92472e-16 0)
(3 8.50247e-16 0)
(3 1.33162e-15 0)
(3 7.67874e-16 0)
(3 -2.05169e-16 0)
(3 -4.87824e-16 0)
(3 -3.55834e-16 0)
(3 -4.06391e-16 0)
(3 -6.13633e-16 0)
(3 -1.20229e-15 0)
(3 -1.98806e-15 0)
(3 -2.00802e-15 0)
(3 -1.58577e-15 0)
(3 -7.41003e-16 0)
(3 -9.84674e-16 0)
(3 -1.76401e-15 0)
(3 -1.90238e-15 0)
(3 -1.77172e-15 0)
(3 -1.29294e-15 0)
(3 -1.34604e-15 0)
(3 -2.52166e-15 0)
(3 -2.86885e-15 0)
(3 -2.90335e-15 0)
(3 -2.42092e-15 0)
(3 -2.20644e-15 0)
(3 -1.28353e-15 0)
(3 -1.16881e-15 0)
(3 -6.60032e-16 0)
(3 2.84262e-17 0)
(3 4.85676e-16 0)
(3 -5.68657e-16 0)
(3 -8.79436e-16 0)
(3 -4.80011e-17 0)
(3 8.52756e-16 0)
(3 3.97638e-16 0)
(3 -7.35684e-16 0)
(3 -2.77901e-16 0)
(3 1.78145e-16 0)
(3 1.89129e-16 0)
(3 4.12584e-17 0)
(3 2.43108e-16 0)
(3 2.15874e-16 0)
(3 1.55912e-16 0)
(3 -1.84118e-16 0)
(3 -3.68442e-16 0)
(3 -1.56594e-16 0)
(3 2.36553e-16 0)
(3 3.3916e-16 0)
(3 1.14894e-16 0)
(3 2.30837e-16 0)
(3 1.86208e-16 0)
(3 2.08928e-16 0)
(3 3.93401e-16 0)
(3 -1.82447e-17 0)
(3 -1.71418e-16 0)
(3 5.01553e-17 0)
(3 3.29262e-16 0)
(3 3.57575e-16 0)
(3 -2.66382e-17 0)
(3 -4.84699e-16 0)
(3 -5.40742e-16 0)
(3 -3.46385e-16 0)
(3 2.13185e-16 0)
(3 6.03662e-16 0)
(3 -6.23879e-17 0)
(3 -1.23041e-15 0)
(3 -7.1498e-16 0)
(3 4.83586e-16 0)
(3 -1.95132e-15 0)
(3 -2.5597e-15 0)
(3 -2.61888e-15 0)
(3 -2.68758e-15 0)
(3 -2.98497e-15 0)
(3 -2.05908e-15 0)
(3 -1.84679e-15 0)
(3 -2.25108e-15 0)
(3 -2.77983e-15 0)
(3 -2.55204e-15 0)
(3 -1.33785e-15 0)
(3 -1.67573e-16 0)
(3 4.3369e-16 0)
(3 5.8163e-16 0)
(3 4.59743e-16 0)
(3 9.70881e-17 0)
(3 3.80852e-17 0)
(3 -9.30348e-17 0)
(3 -2.39934e-16 0)
(3 -2.42075e-16 0)
(3 -2.92595e-16 0)
(3 -2.95371e-16 0)
(3 -2.18943e-16 0)
(3 -3.43208e-16 0)
(3 -9.72717e-17 0)
(3 5.27509e-16 0)
(3 1.72934e-15 0)
(3 2.40539e-15 0)
(3 2.20098e-15 0)
(3 1.48269e-15 0)
(3 1.29382e-15 0)
(3 1.22369e-15 0)
(3 9.22046e-16 0)
(3 2.46832e-16 0)
(3 3.37496e-16 0)
(3 -3.90051e-16 0)
(3 -1.10659e-15 0)
(3 -2.30222e-15 0)
(3 -3.30561e-15 0)
(3 -3.14821e-15 0)
(3 -2.30544e-15 0)
(3 -1.56807e-15 0)
(3 -1.80598e-15 0)
(3 -2.41321e-15 0)
(3 -2.67986e-15 0)
(3 -2.87462e-15 0)
(3 -2.53735e-15 0)
(3 -2.41586e-15 0)
(3 -2.25073e-15 0)
(3 -1.74805e-15 0)
(3 -1.59998e-15 0)
(3 -2.23556e-15 0)
(3 -2.87612e-15 0)
(3 -2.69552e-15 0)
(3 -1.51803e-15 0)
(3 -3.62256e-16 0)
(3 2.22943e-16 0)
(3 5.54304e-16 0)
(3 1.08882e-15 0)
(3 9.36948e-16 0)
(3 1.25637e-15 0)
(3 1.28198e-15 0)
(3 9.11455e-16 0)
(3 -1.94041e-16 0)
(3 -1.15062e-15 0)
(3 -7.65442e-16 0)
(3 -4.02864e-17 0)
(3 8.03666e-18 0)
(3 2.09688e-16 0)
(3 1.19358e-16 0)
(3 2.99956e-16 0)
(3 -1.07151e-18 0)
(3 -2.52358e-16 0)
(3 3.90599e-17 0)
(3 1.96151e-16 0)
(3 9.06457e-17 0)
(3 -1.95411e-16 0)
(3 -5.79368e-16 0)
(3 -2.77663e-16 0)
(3 -5.38066e-16 0)
(3 3.48075e-18 0)
(3 3.04322e-16 0)
(3 1.07329e-16 0)
(3 1.47479e-15 0)
(3 1.72845e-15 0)
(3 1.83444e-15 0)
(3 1.15908e-15 0)
(3 2.56496e-17 0)
(3 -1.18949e-15 0)
(3 -1.56464e-15 0)
(3 -1.39155e-15 0)
(3 -3.12679e-16 0)
(3 1.05087e-17 0)
(3 -7.16556e-17 0)
(3 1.10278e-15 0)
(3 1.0912e-15 0)
(3 -5.15959e-16 0)
(3 -9.01618e-16 0)
(3 -1.17695e-15 0)
(3 -6.68019e-16 0)
(3 -5.54086e-16 0)
(3 -4.95559e-16 0)
(3 -6.83868e-16 0)
(3 -1.17558e-15 0)
(3 -1.8638e-15 0)
(3 -1.2806e-15 0)
(3 -9.13675e-16 0)
(3 4.99522e-16 0)
(3 7.61868e-16 0)
(3 7.47758e-16 0)
(3 3.26218e-17 0)
(3 -5.72862e-16 0)
(3 -7.41362e-16 0)
(3 -4.60313e-16 0)
(3 -1.46284e-16 0)
(3 -1.35052e-16 0)
(3 -7.72972e-16 0)
(3 -6.74283e-16 0)
(3 -3.61755e-16 0)
(3 -5.79839e-16 0)
(3 9.58653e-17 0)
(3 4.00628e-16 0)
(3 4.48765e-16 0)
(3 1.80163e-16 0)
(3 4.88799e-16 0)
(3 3.25888e-16 0)
(3 -4.8306e-16 0)
(3 -6.53125e-16 0)
(3 -3.93408e-16 0)
(3 1.17507e-16 0)
(3 5.33186e-16 0)
(3 3.30925e-16 0)
(3 1.09746e-16 0)
(3 -1.06006e-15 0)
(3 -1.40827e-15 0)
(3 -1.10858e-15 0)
(3 -1.21015e-15 0)
(3 -1.52197e-15 0)
(3 -2.45622e-15 0)
(3 -2.53557e-15 0)
(3 -2.80953e-15 0)
(3 -3.03035e-15 0)
(3 -2.76711e-15 0)
(3 -2.20567e-15 0)
(3 -1.46965e-15 0)
(3 -1.57517e-15 0)
(3 -1.7263e-15 0)
(3 -2.59586e-15 0)
(3 -2.9662e-15 0)
(3 -3.13394e-15 0)
(3 -2.11535e-15 0)
(3 -1.57485e-15 0)
(3 -1.02914e-15 0)
(3 -6.35146e-16 0)
(3 1.06659e-16 0)
(3 4.74091e-17 0)
(3 1.20935e-16 0)
(3 6.43022e-17 0)
(3 4.93696e-16 0)
(3 1.19581e-15 0)
(3 7.01031e-16 0)
(3 2.09711e-16 0)
(3 -5.5283e-17 0)
(3 3.0316e-16 0)
(3 2.34615e-16 0)
(3 -1.3942e-16 0)
(3 -3.09041e-16 0)
(3 6.02176e-17 0)
(3 8.0327e-16 0)
(3 7.02051e-16 0)
(3 -2.74398e-17 0)
(3 -9.61542e-16 0)
(3 -1.01405e-15 0)
(3 -1.26876e-15 0)
(3 -1.09708e-15 0)
(3 -1.03854e-15 0)
(3 -8.12266e-16 0)
(3 -3.97184e-16 0)
(3 3.30507e-16 0)
(3 9.8631e-16 0)
(3 1.27479e-15 0)
(3 1.95754e-15 0)
(3 1.22329e-15 0)
(3 7.09993e-16 0)
(3 -3.23059e-16 0)
(3 -1.43065e-15 0)
(3 -1.73605e-15 0)
(3 -1.11979e-15 0)
(3 -8.76753e-17 0)
(3 4.76962e-16 0)
(3 -1.67596e-16 0)
(3 -3.61679e-16 0)
(3 6.84149e-17 0)
(3 2.46301e-16 0)
(3 7.60673e-16 0)
(3 7.9313e-16 0)
(3 5.4036e-16 0)
(3 -2.54667e-16 0)
(3 -8.015e-16 0)
(3 -1.24557e-15 0)
(3 -1.2938e-15 0)
(3 -8.98777e-16 0)
(3 -4.7035e-16 0)
(3 1.22193e-16 0)
(3 6.89477e-16 0)
(3 1.52431e-16 0)
(3 -2.09801e-16 0)
(3 5.81694e-16 0)
(3 9.52745e-16 0)
(3 5.65458e-16 0)
(3 -6.38837e-17 0)
(3 -7.29017e-16 0)
(3 -8.73343e-16 0)
(3 -7.52849e-16 0)
(3 -6.48932e-16 0)
(3 -5.5929e-16 0)
(3 -6.02811e-16 0)
(3 -5.51579e-16 0)
(3 -5.44187e-16 0)
(3 -6.14891e-16 0)
(3 -2.97784e-16 0)
(3 1.79374e-16 0)
(3 -1.37695e-16 0)
(3 -7.81415e-16 0)
(3 -5.38613e-16 0)
(3 4.02566e-16 0)
(3 1.16991e-15 0)
(3 1.34298e-15 0)
(3 1.0496e-15 0)
(3 1.21311e-15 0)
(3 1.40887e-15 0)
(3 1.11776e-15 0)
(3 4.77754e-16 0)
(3 -6.4423e-16 0)
(3 -1.31314e-15 0)
(3 -1.46769e-15 0)
(3 -1.72863e-15 0)
(3 -1.59037e-15 0)
(3 -1.82433e-15 0)
(3 -1.54589e-15 0)
(3 -1.52566e-15 0)
(3 -2.74703e-15 0)
(3 -2.63548e-15 0)
(3 -1.98319e-15 0)
(3 -1.90235e-15 0)
(3 -1.81196e-15 0)
(3 -1.43501e-15 0)
(3 -1.75857e-15 0)
(3 -1.72607e-15 0)
(3 -1.52743e-15 0)
(3 -1.17536e-15 0)
(3 -4.64835e-16 0)
(3 -4.59412e-16 0)
(3 -6.06329e-16 0)
(3 1.70636e-16 0)
(3 1.20777e-15 0)
(3 1.8542e-15 0)
(3 7.07637e-16 0)
(3 3.85095e-17 0)
(3 1.05613e-16 0)
(3 1.18924e-16 0)
(3 -1.77208e-16 0)
(3 2.91039e-16 0)
(3 1.01173e-15 0)
(3 1.22664e-15 0)
(3 -1.79558e-16 0)
(3 -4.70533e-16 0)
(3 -5.38694e-16 0)
(3 -1.88618e-16 0)
(3 -3.00397e-18 0)
(3 2.54473e-16 0)
(3 7.56166e-16 0)
(3 3.44317e-16 0)
(3 1.90434e-16 0)
(3 7.02126e-16 0)
(3 3.21614e-16 0)
(3 -3.82787e-18 0)
(3 8.14651e-17 0)
(3 6.83441e-16 0)
(3 1.23837e-15 0)
(3 1.02804e-15 0)
(3 -6.38299e-17 0)
(3 -2.19024e-16 0)
(3 -2.85932e-16 0)
(3 2.88899e-16 0)
(3 5.98358e-16 0)
(3 2.2113e-16 0)
(3 -6.17706e-16 0)
(3 1.52342e-16 0)
(3 2.6249e-16 0)
(3 4.89185e-16 0)
(3 3.70766e-16 0)
(3 3.47978e-16 0)
(3 3.96286e-16 0)
(3 5.49182e-16 0)
(3 -1.63927e-16 0)
(3 -4.78398e-16 0)
(3 -6.07857e-16 0)
(3 -8.07949e-16 0)
(3 -5.53724e-16 0)
(3 -3.57013e-16 0)
(3 7.13291e-16 0)
(3 1.22453e-15 0)
(3 2.60779e-15 0)
(3 3.16399e-15 0)
(3 1.97908e-15 0)
(3 4.86316e-17 0)
(3 -3.30937e-16 0)
(3 -2.30618e-16 0)
(3 2.11397e-16 0)
(3 -7.36047e-16 0)
(3 -1.6134e-15 0)
(3 -1.96896e-15 0)
(3 -1.68796e-15 0)
(3 -1.58077e-15 0)
(3 -5.32622e-16 0)
(3 1.79618e-16 0)
(3 3.96866e-16 0)
(3 7.51253e-16 0)
(3 8.45005e-16 0)
(3 1.60096e-15 0)
(3 1.43502e-15 0)
(3 1.07141e-15 0)
(3 1.06878e-15 0)
(3 7.05364e-16 0)
(3 7.56712e-16 0)
(3 1.09234e-15 0)
(3 5.54291e-16 0)
(3 1.42993e-17 0)
(3 -7.27782e-16 0)
(3 -5.7209e-16 0)
(3 -4.21235e-16 0)
(3 -4.70203e-16 0)
(3 -9.87658e-16 0)
(3 -8.86371e-16 0)
(3 -9.03501e-16 0)
(3 -1.43857e-15 0)
(3 -1.36912e-15 0)
(3 -1.79523e-15 0)
(3 -1.47216e-15 0)
(3 -1.35097e-15 0)
(3 -1.09336e-15 0)
(3 -7.28743e-16 0)
(3 -5.83115e-16 0)
(3 -9.35432e-16 0)
(3 -1.66874e-15 0)
(3 -1.5929e-15 0)
(3 -1.07623e-15 0)
(3 -7.30617e-16 0)
(3 -3.19106e-16 0)
(3 5.93824e-16 0)
(3 5.94753e-16 0)
(3 3.82481e-16 0)
(3 -9.53904e-16 0)
(3 3.75095e-17 0)
(3 -5.47248e-17 0)
(3 -2.12407e-16 0)
(3 1.55501e-16 0)
(3 6.79246e-16 0)
(3 6.09858e-16 0)
(3 -1.39401e-16 0)
(3 -5.5319e-16 0)
(3 -8.3643e-17 0)
(3 4.56955e-16 0)
(3 4.87012e-16 0)
(3 1.20468e-15 0)
(3 1.52846e-15 0)
(3 1.46102e-15 0)
(3 1.49304e-15 0)
(3 4.24847e-16 0)
(3 -4.31936e-16 0)
(3 -1.0922e-15 0)
(3 -1.23225e-15 0)
(3 -7.19792e-16 0)
(3 3.66294e-16 0)
(3 8.18455e-16 0)
(3 1.30633e-15 0)
(3 1.17649e-15 0)
(3 4.17354e-16 0)
(3 9.2327e-17 0)
(3 1.62626e-15 0)
(3 2.83253e-15 0)
(3 2.2548e-15 0)
(3 9.24819e-16 0)
(3 -1.06556e-17 0)
(3 3.82161e-17 0)
(3 -7.11656e-18 0)
(3 1.67019e-16 0)
(3 5.07453e-16 0)
(3 5.52257e-16 0)
(3 2.37241e-16 0)
(3 -1.21567e-17 0)
(3 -7.62888e-16 0)
(3 -6.31658e-16 0)
(3 -2.87836e-16 0)
(3 -2.09632e-16 0)
(3 3.17379e-16 0)
(3 1.94358e-15 0)
(3 2.63084e-15 0)
(3 2.18627e-15 0)
(3 2.00489e-15 0)
(3 2.32619e-15 0)
(3 2.85956e-15 0)
(3 1.52742e-15 0)
(3 1.93932e-16 0)
(3 -2.35868e-16 0)
(3 -9.56635e-16 0)
(3 -1.00833e-15 0)
(3 -1.27233e-15 0)
(3 -1.54895e-15 0)
(3 -1.90675e-15 0)
(3 -2.12506e-15 0)
(3 -1.16831e-15 0)
(3 1.30689e-16 0)
(3 1.434e-15 0)
(3 1.86394e-15 0)
(3 1.93088e-15 0)
(3 1.61143e-15 0)
(3 7.08605e-16 0)
(3 -5.18066e-16 0)
(3 -2.20077e-16 0)
(3 5.36997e-16 0)
(3 7.12e-16 0)
(3 4.60407e-16 0)
(3 -1.63488e-16 0)
(3 7.50825e-17 0)
(3 6.78524e-16 0)
(3 7.54852e-16 0)
(3 6.82267e-16 0)
(3 2.2068e-16 0)
(3 -2.69374e-16 0)
(3 -8.89949e-17 0)
(3 -1.28832e-16 0)
(3 -6.24881e-16 0)
(3 -1.4015e-15 0)
(3 -1.48066e-15 0)
(3 -1.25499e-15 0)
(3 -9.83191e-16 0)
(3 -1.29248e-15 0)
(3 -1.87616e-15 0)
(3 -3.10744e-15 0)
(3 -3.24448e-15 0)
(3 -2.0474e-15 0)
(3 -1.34712e-15 0)
(3 2.8184e-16 0)
(3 3.92328e-16 0)
(3 -1.5644e-17 0)
(3 -1.33337e-15 0)
(3 -1.35397e-15 0)
(3 -4.35189e-16 0)
(3 1.9412e-16 0)
(3 -7.03624e-17 0)
(3 -7.8359e-17 0)
(3 7.77796e-17 0)
(3 1.38502e-16 0)
(3 -1.38836e-16 0)
(3 -1.3598e-16 0)
(3 1.13347e-16 0)
(3 1.74399e-16 0)
(3 -1.77224e-16 0)
(3 -2.09851e-16 0)
(3 -5.73668e-17 0)
(3 -3.87471e-19 0)
(3 1.37819e-16 0)
(3 2.12379e-16 0)
(3 -4.12712e-16 0)
(3 -1.80654e-15 0)
(3 -2.44917e-15 0)
(3 -2.69465e-15 0)
(3 -2.50753e-15 0)
(3 1.0817e-16 0)
(3 1.24221e-15 0)
(3 1.90117e-15 0)
(3 1.37668e-15 0)
(3 1.13455e-15 0)
(3 1.02092e-15 0)
(3 7.42938e-16 0)
(3 9.12083e-16 0)
(3 5.33272e-16 0)
(3 1.3349e-15 0)
(3 1.17143e-15 0)
(3 -2.01856e-16 0)
(3 -3.68962e-16 0)
(3 -1.54928e-16 0)
(3 -9.10851e-17 0)
(3 1.73723e-16 0)
(3 -3.77006e-16 0)
(3 -6.98415e-16 0)
(3 -6.81029e-16 0)
(3 -3.59172e-16 0)
(3 -8.0526e-17 0)
(3 -3.68235e-16 0)
(3 4.27182e-16 0)
(3 1.73704e-15 0)
(3 2.03157e-15 0)
(3 1.37834e-15 0)
(3 9.43978e-16 0)
(3 1.37771e-15 0)
(3 2.34142e-15 0)
(3 2.8071e-15 0)
(3 1.85035e-15 0)
(3 3.91987e-16 0)
(3 -4.25298e-16 0)
(3 3.62982e-17 0)
(3 2.99534e-16 0)
(3 -1.25977e-15 0)
(3 -2.2322e-15 0)
(3 -2.06811e-15 0)
(3 -1.79031e-15 0)
(3 -7.70554e-16 0)
(3 2.24184e-16 0)
(3 9.89251e-16 0)
(3 1.17452e-15 0)
(3 8.98292e-16 0)
(3 -1.5351e-16 0)
(3 -4.75367e-17 0)
(3 4.02892e-16 0)
(3 2.19578e-16 0)
(3 8.39018e-16 0)
(3 7.08961e-16 0)
(3 7.52371e-16 0)
(3 1.15905e-15 0)
(3 3.49837e-16 0)
(3 -6.31187e-16 0)
(3 -6.08414e-16 0)
(3 -3.47645e-16 0)
(3 -5.42194e-16 0)
(3 -4.80815e-16 0)
(3 -6.76183e-16 0)
(3 -1.83325e-15 0)
(3 -2.40516e-15 0)
(3 -2.48907e-15 0)
(3 -2.67405e-15 0)
(3 -2.74203e-15 0)
(3 -2.63403e-15 0)
(3 -2.4848e-15 0)
(3 -2.46673e-15 0)
(3 -2.93565e-15 0)
(3 -1.6882e-15 0)
(3 -3.31501e-16 0)
(3 5.93586e-17 0)
(3 8.59454e-16 0)
(3 -9.65474e-16 0)
(3 -1.96173e-15 0)
(3 -1.89409e-15 0)
(3 -5.33299e-16 0)
(3 -1.28726e-16 0)
(3 -9.37408e-17 0)
(3 -1.4884e-16 0)
(3 -2.96466e-16 0)
(3 -4.0377e-16 0)
(3 2.73208e-16 0)
(3 1.92341e-17 0)
(3 -1.39439e-16 0)
(3 -6.1931e-16 0)
(3 -1.23626e-15 0)
(3 -1.21037e-15 0)
(3 -1.22413e-15 0)
(3 -1.14913e-15 0)
(3 -9.41488e-16 0)
(3 -7.37315e-16 0)
(3 -9.2146e-16 0)
(3 -1.37841e-15 0)
(3 -1.37106e-15 0)
(3 -1.96974e-15 0)
(3 -1.68855e-15 0)
(3 -5.30311e-16 0)
(3 5.48812e-16 0)
(3 1.07985e-15 0)
(3 1.74361e-15 0)
(3 1.99498e-15 0)
(3 2.26182e-15 0)
(3 9.89133e-16 0)
(3 -7.79525e-16 0)
(3 -1.20473e-15 0)
(3 6.6715e-16 0)
(3 3.55967e-16 0)
(3 -1.13324e-15 0)
(3 -2.11193e-15 0)
(3 -2.29348e-15 0)
(3 -1.58841e-15 0)
(3 -1.34746e-15 0)
(3 -1.14685e-15 0)
(3 -1.11602e-15 0)
(3 -2.71543e-16 0)
(3 1.46385e-16 0)
(3 -2.56802e-16 0)
(3 -4.55013e-16 0)
(3 -4.29441e-16 0)
(3 -7.91824e-17 0)
(3 4.43291e-16 0)
(3 1.10247e-15 0)
(3 1.44681e-15 0)
(3 1.90919e-15 0)
(3 2.76119e-15 0)
(3 3.44138e-15 0)
(3 2.70922e-15 0)
(3 6.5819e-16 0)
(3 5.04472e-17 0)
(3 3.82281e-16 0)
(3 1.36263e-16 0)
(3 -5.35313e-16 0)
(3 -1.63967e-15 0)
(3 -1.26062e-15 0)
(3 -1.41687e-15 0)
(3 -1.60794e-15 0)
(3 -1.51175e-15 0)
(3 -1.17858e-16 0)
(3 -2.86662e-16 0)
(3 -6.09815e-16 0)
(3 2.65571e-16 0)
(3 4.86548e-16 0)
(3 -8.06529e-19 0)
(3 -1.13256e-15 0)
(3 -1.2161e-15 0)
(3 -2.50993e-16 0)
(3 3.47382e-16 0)
(3 1.76151e-16 0)
(3 -8.67998e-16 0)
(3 -7.14484e-16 0)
(3 -6.27729e-17 0)
(3 -6.54846e-18 0)
(3 6.37217e-16 0)
(3 4.99507e-16 0)
(3 -4.4031e-16 0)
(3 -1.93002e-15 0)
(3 -2.59534e-15 0)
(3 -2.57818e-15 0)
(3 -2.63641e-15 0)
(3 -2.38155e-15 0)
(3 -2.46798e-15 0)
(3 -1.81994e-15 0)
(3 -8.41944e-16 0)
(3 -1.2009e-15 0)
(3 -7.87649e-16 0)
(3 1.61131e-16 0)
(3 -2.58427e-16 0)
(3 4.57428e-16 0)
(3 1.0633e-15 0)
(3 -1.27119e-16 0)
(3 -6.18956e-16 0)
(3 -4.09951e-16 0)
(3 -2.46117e-16 0)
(3 -6.53933e-17 0)
(3 -7.40609e-17 0)
(3 -1.46265e-16 0)
(3 -4.7477e-16 0)
(3 -4.95229e-16 0)
(3 -7.18435e-16 0)
(3 -8.89251e-16 0)
(3 -1.01481e-15 0)
(3 -1.08616e-15 0)
(3 -1.46228e-15 0)
(3 -1.51113e-15 0)
(3 -1.23847e-15 0)
(3 -1.26851e-15 0)
(3 -7.58836e-16 0)
(3 -4.92686e-16 0)
(3 -1.26781e-15 0)
(3 -1.63787e-15 0)
(3 -1.25367e-15 0)
(3 -1.02965e-15 0)
(3 -1.66678e-15 0)
(3 -8.08356e-16 0)
(3 3.7014e-16 0)
(3 1.36302e-15 0)
(3 2.00118e-15 0)
(3 2.1622e-15 0)
(3 1.07849e-15 0)
(3 -4.91558e-16 0)
(3 -3.18723e-16 0)
(3 -3.49327e-16 0)
(3 -2.25569e-15 0)
(3 -2.38116e-15 0)
(3 -3.22969e-15 0)
(3 -3.0476e-15 0)
(3 -3.1521e-15 0)
(3 -3.90688e-15 0)
(3 -3.58153e-15 0)
(3 -2.44467e-15 0)
(3 -1.41374e-15 0)
(3 -9.54274e-16 0)
(3 -6.40099e-16 0)
(3 -1.14686e-15 0)
(3 -1.41689e-15 0)
(3 -4.37382e-16 0)
(3 6.04375e-16 0)
(3 1.93082e-15 0)
(3 2.18768e-15 0)
(3 2.42279e-15 0)
(3 2.2669e-15 0)
(3 1.95708e-15 0)
(3 1.58407e-15 0)
(3 9.14986e-16 0)
(3 9.24615e-16 0)
(3 8.81445e-16 0)
(3 7.75236e-16 0)
(3 5.26526e-16 0)
(3 -5.66981e-17 0)
(3 -2.7195e-16 0)
(3 -8.36248e-16 0)
(3 -9.40581e-16 0)
(3 6.92009e-17 0)
(3 4.60455e-16 0)
(3 -9.37917e-16 0)
(3 -1.03896e-15 0)
(3 -1.22091e-15 0)
(3 -1.37165e-15 0)
(3 -1.66873e-15 0)
(3 -1.43882e-15 0)
(3 -1.13878e-15 0)
(3 -9.80498e-16 0)
(3 -4.32273e-16 0)
(3 -5.73356e-16 0)
(3 2.81752e-17 0)
(3 9.60904e-16 0)
(3 9.36903e-16 0)
(3 3.99839e-16 0)
(3 1.33052e-16 0)
(3 -2.7072e-16 0)
(3 2.91402e-16 0)
(3 -3.56245e-17 0)
(3 -3.61054e-16 0)
(3 -7.32266e-16 0)
(3 -6.46246e-16 0)
(3 -2.62135e-16 0)
(3 -4.22248e-16 0)
(3 -3.66464e-16 0)
(3 -6.20705e-16 0)
(3 -1.2175e-15 0)
(3 -8.31036e-16 0)
(3 7.90647e-17 0)
(3 -7.85717e-17 0)
(3 -1.5721e-17 0)
(3 1.87072e-16 0)
(3 -9.56559e-17 0)
(3 -5.89226e-17 0)
(3 1.55944e-17 0)
(3 -1.07946e-16 0)
(3 -1.90168e-16 0)
(3 1.80296e-16 0)
(3 2.44755e-16 0)
(3 -9.45749e-17 0)
(3 -7.94714e-16 0)
(3 -7.36264e-16 0)
(3 -5.72823e-16 0)
(3 2.33095e-17 0)
(3 2.11688e-16 0)
(3 -1.41616e-16 0)
(3 -9.10778e-16 0)
(3 -1.14443e-15 0)
(3 -1.07798e-15 0)
(3 -7.49955e-16 0)
(3 -8.13126e-16 0)
(3 -1.35751e-15 0)
(3 -2.07641e-15 0)
(3 -2.0759e-15 0)
(3 -1.91213e-15 0)
(3 -1.45377e-15 0)
(3 -5.51527e-16 0)
(3 4.92323e-16 0)
(3 1.04724e-15 0)
(3 1.44673e-15 0)
(3 7.73518e-16 0)
(3 3.52086e-16 0)
(3 -2.75263e-16 0)
(3 2.49643e-16 0)
(3 -7.98068e-16 0)
(3 -1.67598e-15 0)
(3 -2.28027e-15 0)
(3 -2.40664e-15 0)
(3 -2.42663e-15 0)
(3 -2.62435e-15 0)
(3 -2.55745e-15 0)
(3 -2.74757e-15 0)
(3 -2.36238e-15 0)
(3 -1.46577e-15 0)
(3 -6.0903e-16 0)
(3 -5.70721e-16 0)
(3 -1.18486e-15 0)
(3 -1.30742e-15 0)
(3 -1.17638e-15 0)
(3 -1.03217e-15 0)
(3 -9.41329e-16 0)
(3 1.10498e-15 0)
(3 1.13033e-15 0)
(3 3.07699e-16 0)
(3 1.62732e-16 0)
(3 7.44478e-16 0)
(3 6.32024e-16 0)
(3 8.12037e-16 0)
(3 9.26949e-16 0)
(3 1.27827e-15 0)
(3 1.10153e-15 0)
(3 1.06976e-15 0)
(3 4.23394e-16 0)
(3 3.92785e-16 0)
(3 1.38354e-16 0)
(3 1.62503e-16 0)
(3 7.53709e-16 0)
(3 2.44168e-16 0)
(3 7.74543e-17 0)
(3 -1.30256e-15 0)
(3 -3.02638e-15 0)
(3 -2.32749e-15 0)
(3 -2.68922e-15 0)
(3 -2.61e-15 0)
(3 -2.38797e-15 0)
(3 -2.64212e-15 0)
(3 -2.36075e-15 0)
(3 2.04774e-17 0)
(3 1.40232e-15 0)
(3 5.54544e-16 0)
(3 -3.03122e-16 0)
(3 -1.19646e-15 0)
(3 -9.11772e-16 0)
(3 3.552e-16 0)
(3 3.10082e-16 0)
(3 -5.77419e-16 0)
(3 -7.56368e-16 0)
(3 -1.20168e-15 0)
(3 -1.20495e-15 0)
(3 -1.12879e-15 0)
(3 -1.15491e-15 0)
(3 -1.13889e-15 0)
(3 -7.85353e-16 0)
(3 -1.06912e-16 0)
(3 9.10357e-16 0)
(3 7.93583e-16 0)
(3 8.57614e-16 0)
(3 1.0609e-15 0)
(3 5.00446e-17 0)
(3 -5.55489e-16 0)
(3 -4.40545e-16 0)
(3 3.33172e-17 0)
(3 -8.18394e-17 0)
(3 -1.60617e-17 0)
(3 -3.92141e-16 0)
(3 -2.41939e-16 0)
(3 -1.99075e-16 0)
(3 -7.87795e-17 0)
(3 3.44726e-16 0)
(3 6.06629e-16 0)
(3 6.9665e-16 0)
(3 5.22959e-16 0)
(3 -3.81821e-16 0)
(3 -1.67013e-15 0)
(3 -2.12059e-15 0)
(3 -9.80376e-16 0)
(3 -1.2374e-16 0)
(3 -2.34973e-16 0)
(3 -8.16112e-16 0)
(3 -1.83005e-15 0)
(3 -1.56373e-15 0)
(3 -3.02159e-16 0)
(3 -5.2286e-16 0)
(3 -8.72219e-16 0)
(3 -6.41165e-16 0)
(3 -1.81088e-16 0)
(3 9.21663e-16 0)
(3 1.61878e-15 0)
(3 1.84219e-15 0)
(3 1.77453e-15 0)
(3 3.11976e-16 0)
(3 -1.03818e-15 0)
(3 -2.06278e-15 0)
(3 -1.51284e-15 0)
(3 -1.57904e-15 0)
(3 -1.14216e-15 0)
(3 -6.57034e-16 0)
(3 -4.715e-16 0)
(3 -4.23291e-16 0)
(3 -7.43131e-16 0)
(3 -9.87113e-16 0)
(3 -7.2032e-17 0)
(3 2.35847e-16 0)
(3 4.38641e-16 0)
(3 1.08703e-16 0)
(3 -5.50648e-16 0)
(3 -1.25762e-15 0)
(3 -1.13876e-15 0)
(3 -8.71969e-16 0)
(3 -1.51939e-15 0)
(3 -1.01204e-15 0)
(3 -7.8547e-16 0)
(3 -6.86764e-16 0)
(3 6.97913e-16 0)
(3 2.00546e-15 0)
(3 2.43815e-15 0)
(3 2.31613e-15 0)
(3 2.5558e-15 0)
(3 2.182e-15 0)
(3 2.29135e-15 0)
(3 2.1314e-15 0)
(3 1.16753e-15 0)
(3 7.66658e-16 0)
(3 9.8997e-16 0)
(3 6.24155e-16 0)
(3 -3.98046e-16 0)
(3 -1.42079e-15 0)
(3 -1.90723e-15 0)
(3 -2.54905e-15 0)
(3 -3.52083e-15 0)
(3 -3.31759e-15 0)
(3 -2.97284e-15 0)
(3 -9.07262e-16 0)
(3 1.66015e-15 0)
(3 2.46436e-15 0)
(3 2.13568e-15 0)
(3 2.27422e-15 0)
(3 1.98054e-15 0)
(3 1.59115e-15 0)
(3 2.68908e-16 0)
(3 -6.06506e-16 0)
(3 -6.5513e-16 0)
(3 -8.56625e-16 0)
(3 -1.18514e-15 0)
(3 -2.059e-15 0)
(3 -1.42045e-15 0)
(3 -7.54805e-16 0)
(3 4.19971e-17 0)
(3 3.14424e-16 0)
(3 2.0407e-15 0)
(3 2.16928e-15 0)
(3 1.95869e-15 0)
(3 2.01793e-15 0)
(3 1.94843e-15 0)
(3 1.67973e-15 0)
(3 1.29716e-15 0)
(3 1.67097e-15 0)
(3 6.50472e-17 0)
(3 -5.79808e-17 0)
(3 -9.22426e-16 0)
(3 -1.99907e-16 0)
(3 3.92007e-16 0)
(3 6.38057e-16 0)
(3 1.29297e-15 0)
(3 1.06072e-15 0)
(3 6.36766e-16 0)
(3 7.7058e-16 0)
(3 6.13669e-16 0)
(3 -3.19382e-16 0)
(3 -9.82572e-16 0)
(3 -9.62541e-16 0)
(3 -2.00218e-16 0)
(3 5.32128e-16 0)
(3 2.01796e-15 0)
(3 1.99787e-15 0)
(3 7.42359e-16 0)
(3 2.57311e-16 0)
(3 1.03579e-15 0)
(3 4.3359e-16 0)
(3 -2.71317e-16 0)
(3 -8.7084e-16 0)
(3 -7.18243e-16 0)
(3 -1.73741e-17 0)
(3 -2.83473e-16 0)
(3 5.03575e-16 0)
(3 1.29404e-15 0)
(3 8.16446e-16 0)
(3 -9.28925e-16 0)
(3 -9.65691e-16 0)
(3 -1.72719e-16 0)
(3 -2.09034e-16 0)
(3 -2.63084e-16 0)
(3 -1.65853e-16 0)
(3 -1.78668e-16 0)
(3 -1.36284e-16 0)
(3 -4.92645e-16 0)
(3 -2.28117e-16 0)
(3 3.50862e-16 0)
(3 6.41017e-16 0)
(3 1.10266e-15 0)
(3 8.61758e-16 0)
(3 -3.75849e-17 0)
(3 -4.60492e-16 0)
(3 -2.29389e-15 0)
(3 -2.86094e-15 0)
(3 -3.57621e-15 0)
(3 -2.77326e-15 0)
(3 -1.03181e-15 0)
(3 4.73993e-16 0)
(3 1.75303e-15 0)
(3 3.18357e-15 0)
(3 3.43987e-15 0)
(3 3.36035e-15 0)
(3 3.50034e-15 0)
(3 4.25306e-15 0)
(3 3.04943e-15 0)
(3 1.8036e-15 0)
(3 4.0413e-16 0)
(3 5.69593e-17 0)
(3 3.5147e-18 0)
(3 -1.21021e-16 0)
(3 1.42332e-16 0)
(3 1.49536e-16 0)
(3 -3.80198e-16 0)
(3 -6.74347e-16 0)
(3 -1.17237e-15 0)
(3 -1.75572e-15 0)
(3 -1.50665e-15 0)
(3 -1.02919e-16 0)
(3 1.92382e-15 0)
(3 2.57281e-15 0)
(3 3.70863e-15 0)
(3 4.45153e-15 0)
(3 4.25839e-15 0)
(3 2.97995e-15 0)
(3 1.94475e-15 0)
(3 -3.98678e-16 0)
(3 -2.44519e-15 0)
(3 -2.36576e-15 0)
(3 -1.33852e-15 0)
(3 -1.4223e-15 0)
(3 -8.37154e-16 0)
(3 1.27764e-15 0)
(3 2.11843e-15 0)
(3 1.2753e-15 0)
(3 4.00474e-16 0)
(3 1.33252e-16 0)
(3 1.85557e-16 0)
(3 6.33091e-16 0)
(3 9.00827e-16 0)
(3 6.77386e-16 0)
(3 9.4956e-16 0)
(3 1.10409e-15 0)
(3 2.88489e-16 0)
(3 1.19275e-16 0)
(3 1.93681e-16 0)
(3 5.99282e-16 0)
(3 7.39067e-16 0)
(3 5.77703e-16 0)
(3 5.78727e-16 0)
(3 6.74601e-16 0)
(3 1.1183e-15 0)
(3 1.36695e-15 0)
(3 1.04294e-15 0)
(3 5.43473e-16 0)
(3 -6.38873e-17 0)
(3 8.18818e-16 0)
(3 1.14094e-15 0)
(3 1.33664e-15 0)
(3 1.58327e-15 0)
(3 2.52723e-15 0)
(3 2.36457e-15 0)
(3 1.66867e-15 0)
(3 1.2631e-15 0)
(3 1.2522e-15 0)
(3 8.30856e-16 0)
(3 1.13848e-15 0)
(3 1.27007e-15 0)
(3 -4.08309e-16 0)
(3 -5.64488e-16 0)
(3 -8.2503e-17 0)
(3 3.65327e-16 0)
(3 4.76527e-16 0)
(3 8.84743e-16 0)
(3 1.33956e-15 0)
(3 3.68466e-17 0)
(3 -2.00169e-15 0)
(3 -1.95876e-15 0)
(3 -7.51435e-16 0)
(3 -5.15208e-16 0)
(3 -4.25941e-16 0)
(3 -4.0241e-16 0)
(3 4.48321e-16 0)
(3 4.77617e-16 0)
(3 5.94365e-16 0)
(3 5.64125e-16 0)
(3 1.24353e-16 0)
(3 -1.16295e-16 0)
(3 -3.20807e-16 0)
(3 -2.12234e-15 0)
(3 -3.73501e-15 0)
(3 -3.72042e-15 0)
(3 -3.37058e-15 0)
(3 -2.38189e-15 0)
(3 -4.36686e-16 0)
(3 6.99084e-16 0)
(3 1.02384e-15 0)
(3 1.25561e-15 0)
(3 1.87673e-15 0)
(3 2.64472e-15 0)
(3 3.04655e-15 0)
(3 2.72881e-15 0)
(3 1.90475e-15 0)
(3 1.14896e-15 0)
(3 1.15239e-15 0)
(3 3.51262e-16 0)
(3 1.80575e-16 0)
(3 3.74799e-16 0)
(3 5.55579e-16 0)
(3 1.92395e-16 0)
(3 -1.35933e-16 0)
(3 -2.29055e-17 0)
(3 -7.1646e-17 0)
(3 -3.43869e-16 0)
(3 6.04247e-16 0)
(3 1.55041e-15 0)
(3 2.12455e-15 0)
(3 2.13144e-15 0)
(3 1.88638e-15 0)
(3 8.83567e-16 0)
(3 -9.15631e-16 0)
(3 -1.29218e-15 0)
(3 -2.7709e-15 0)
(3 -3.26339e-15 0)
(3 -2.91983e-15 0)
(3 -2.06811e-15 0)
(3 -1.0622e-15 0)
(3 2.9246e-17 0)
(3 6.78078e-16 0)
(3 3.24144e-16 0)
(3 1.84069e-16 0)
(3 9.90833e-18 0)
(3 -4.63971e-16 0)
(3 -3.40604e-16 0)
(3 2.04481e-16 0)
(3 8.00233e-17 0)
(3 -7.00237e-17 0)
(3 8.96586e-16 0)
(3 7.12735e-16 0)
(3 1.37793e-17 0)
(3 5.32077e-16 0)
(3 8.02145e-16 0)
(3 8.70133e-16 0)
(3 7.62715e-16 0)
(3 6.00325e-16 0)
(3 2.30888e-16 0)
(3 2.12302e-16 0)
(3 1.82044e-16 0)
(3 5.83239e-16 0)
(3 1.00711e-15 0)
(3 1.24292e-15 0)
(3 1.20162e-15 0)
(3 4.68275e-16 0)
(3 4.50015e-16 0)
(3 2.24589e-16 0)
(3 8.22464e-17 0)
(3 6.86777e-16 0)
(3 5.37313e-16 0)
(3 4.98804e-16 0)
(3 3.13788e-16 0)
(3 6.67559e-16 0)
(3 6.38408e-16 0)
(3 6.87363e-16 0)
(3 4.07988e-16 0)
(3 3.85004e-17 0)
(3 -3.77575e-16 0)
(3 3.30784e-16 0)
(3 8.46481e-16 0)
(3 1.08545e-15 0)
(3 9.02218e-16 0)
(3 1.36493e-15 0)
(3 5.06423e-16 0)
(3 -1.0005e-15 0)
(3 -1.74769e-15 0)
(3 -7.55635e-16 0)
(3 8.73046e-17 0)
(3 -4.03927e-17 0)
(3 -2.5146e-16 0)
(3 -8.09915e-16 0)
(3 -7.22916e-16 0)
(3 -8.23721e-16 0)
(3 -9.32227e-16 0)
(3 -4.56831e-16 0)
(3 2.96212e-16 0)
(3 -1.54213e-15 0)
(3 -2.55683e-15 0)
(3 -2.57606e-15 0)
(3 -2.74557e-15 0)
(3 -2.6259e-15 0)
(3 -1.56344e-15 0)