/*--------------------------------*- C++ -*----------------------------------*\
  =========                 |
  \\      /  F ield         | OpenFOAM: The Open Source CFD Toolbox
   \\    /   O peration     | Website:  https://openfoam.org
    \\  /    A nd           | Version:  7
     \\/     M anipulation  |
\*---------------------------------------------------------------------------*/
FoamFile
{
    version     2.0;
    format      ascii;
    class       volVectorField;
    location    "3.6";
    object      U;
}
// * * * * * * * * * * * * * * * * * * * * * * * * * * * * * * * * * * * * * //

dimensions      [0 1 -1 0 0 0 0];

internalField   nonuniform List<vector> 
73728
(
(3 -5.86135e-19 0)
(3 -3.53513e-18 0)
(3 4.55405e-18 0)
(3 -5.83564e-17 0)
(3 1.22774e-16 0)
(3 6.54285e-17 0)
(3 2.89602e-16 0)
(3 6.68626e-16 0)
(3 4.90014e-16 0)
(3 5.801e-16 0)
(3 9.57075e-16 0)
(3 4.78331e-16 0)
(3 2.29393e-16 0)
(3 9.19979e-17 0)
(3 -6.90768e-16 0)
(3 -9.20285e-16 0)
(3 -1.02371e-15 0)
(3 -1.04505e-15 0)
(3 -7.62028e-16 0)
(3 -5.85044e-16 0)
(3 -2.32228e-16 0)
(3 5.9387e-18 0)
(3 2.90014e-16 0)
(3 4.7051e-16 0)
(3 4.18432e-16 0)
(3 3.89488e-16 0)
(3 -1.64162e-16 0)
(3 -4.10879e-16 0)
(3 -1.03317e-15 0)
(3 -9.0666e-16 0)
(3 -3.25514e-16 0)
(3 5.87312e-17 0)
(3 -1.57193e-16 0)
(3 -8.36157e-16 0)
(3 -6.36689e-16 0)
(3 -4.97838e-16 0)
(3 -6.47735e-16 0)
(3 -9.42239e-16 0)
(3 -2.29306e-15 0)
(3 -2.67878e-15 0)
(3 -1.36583e-15 0)
(3 -6.01141e-16 0)
(3 -3.78428e-16 0)
(3 -2.26259e-17 0)
(3 -7.28706e-17 0)
(3 -4.17203e-16 0)
(3 -3.23305e-16 0)
(3 -1.97653e-16 0)
(3 4.34694e-16 0)
(3 5.22749e-16 0)
(3 -2.00847e-16 0)
(3 -2.05555e-16 0)
(3 -1.11304e-16 0)
(3 -3.71568e-16 0)
(3 -9.43143e-16 0)
(3 -1.63883e-15 0)
(3 -1.45472e-15 0)
(3 -9.28599e-16 0)
(3 -9.97423e-16 0)
(3 -7.04528e-16 0)
(3 -4.12765e-16 0)
(3 -9.11901e-16 0)
(3 -5.82586e-16 0)
(3 2.37902e-17 0)
(3 4.18905e-17 0)
(3 8.21231e-17 0)
(3 -5.21717e-16 0)
(3 -4.03907e-16 0)
(3 7.20302e-17 0)
(3 -4.14742e-16 0)
(3 -2.37731e-16 0)
(3 -6.87293e-16 0)
(3 -3.13473e-16 0)
(3 1.01969e-17 0)
(3 3.55665e-16 0)
(3 2.00811e-16 0)
(3 -4.09799e-16 0)
(3 -1.04555e-15 0)
(3 -1.4513e-15 0)
(3 -1.10559e-15 0)
(3 -1.0385e-15 0)
(3 -3.56916e-16 0)
(3 3.5249e-17 0)
(3 2.72644e-16 0)
(3 3.49349e-17 0)
(3 -6.40368e-16 0)
(3 -9.23763e-16 0)
(3 -3.26463e-16 0)
(3 -1.51647e-16 0)
(3 2.34315e-16 0)
(3 4.64501e-16 0)
(3 1.3133e-15 0)
(3 8.54668e-16 0)
(3 6.81258e-17 0)
(3 -8.21607e-16 0)
(3 -6.27965e-16 0)
(3 -7.64496e-17 0)
(3 -8.77563e-17 0)
(3 1.83483e-16 0)
(3 2.00925e-16 0)
(3 2.74769e-16 0)
(3 5.24259e-16 0)
(3 9.3655e-16 0)
(3 5.76769e-16 0)
(3 3.87029e-16 0)
(3 1.67431e-17 0)
(3 5.53538e-16 0)
(3 -8.37339e-17 0)
(3 -1.02914e-15 0)
(3 -1.82417e-15 0)
(3 -1.80338e-15 0)
(3 -2.03967e-15 0)
(3 -2.30713e-15 0)
(3 -2.37701e-15 0)
(3 -1.01514e-15 0)
(3 -6.03313e-16 0)
(3 -4.75957e-16 0)
(3 -4.3535e-17 0)
(3 3.50608e-16 0)
(3 5.21446e-16 0)
(3 2.59207e-16 0)
(3 1.78969e-16 0)
(3 -8.19116e-16 0)
(3 -1.22771e-15 0)
(3 -1.74718e-15 0)
(3 -1.35327e-15 0)
(3 -8.71978e-16 0)
(3 -2.03478e-16 0)
(3 -4.77548e-16 0)
(3 -5.97689e-16 0)
(3 -5.2378e-16 0)
(3 -4.46954e-16 0)
(3 -4.53081e-16 0)
(3 -1.25775e-15 0)
(3 -2.47704e-15 0)
(3 -2.78472e-15 0)
(3 -1.98887e-15 0)
(3 -2.89491e-16 0)
(3 -3.01679e-16 0)
(3 -2.42131e-16 0)
(3 -2.77636e-17 0)
(3 7.5294e-17 0)
(3 4.14211e-16 0)
(3 1.25767e-15 0)
(3 2.31211e-15 0)
(3 1.94658e-15 0)
(3 -2.73683e-16 0)
(3 -5.97502e-16 0)
(3 -6.35441e-16 0)
(3 -3.57459e-16 0)
(3 -8.58797e-16 0)
(3 -1.69033e-15 0)
(3 -2.00824e-15 0)
(3 -1.69751e-15 0)
(3 -1.5124e-15 0)
(3 -5.28626e-16 0)
(3 -3.76033e-16 0)
(3 -7.48814e-16 0)
(3 7.63582e-17 0)
(3 1.18846e-15 0)
(3 9.76825e-16 0)
(3 6.53067e-16 0)
(3 -6.63296e-17 0)
(3 -8.03985e-17 0)
(3 5.61152e-16 0)
(3 1.6983e-16 0)
(3 -3.99242e-17 0)
(3 -3.02312e-17 0)
(3 1.28372e-16 0)
(3 3.64179e-16 0)
(3 7.74309e-16 0)
(3 5.24106e-16 0)
(3 -1.02525e-15 0)
(3 -2.11128e-15 0)
(3 -2.37058e-15 0)
(3 -2.04613e-15 0)
(3 -1.63203e-15 0)
(3 -8.55477e-16 0)
(3 -2.25173e-16 0)
(3 6.16767e-17 0)
(3 -4.99926e-16 0)
(3 -1.14209e-15 0)
(3 -7.83908e-16 0)
(3 -3.67628e-16 0)
(3 -5.69413e-16 0)
(3 3.34277e-16 0)
(3 6.14373e-16 0)
(3 6.59002e-16 0)
(3 2.32041e-16 0)
(3 -4.29429e-16 0)
(3 -1.7644e-15 0)
(3 -1.24246e-15 0)
(3 -1.68581e-17 0)
(3 4.95621e-17 0)
(3 1.77253e-16 0)
(3 2.22322e-16 0)
(3 1.35947e-16 0)
(3 1.28487e-16 0)
(3 2.44771e-16 0)
(3 2.29792e-16 0)
(3 -1.25278e-16 0)
(3 -7.08977e-16 0)
(3 -7.41555e-16 0)
(3 -1.08985e-15 0)
(3 -1.86028e-15 0)
(3 -2.3649e-15 0)
(3 -2.75845e-15 0)
(3 -2.62997e-15 0)
(3 -2.72657e-15 0)
(3 -2.4337e-15 0)
(3 -1.53788e-15 0)
(3 -5.23916e-16 0)
(3 -2.3926e-16 0)
(3 -1.67756e-16 0)
(3 -2.85548e-16 0)
(3 -2.47611e-16 0)
(3 5.72466e-16 0)
(3 2.54396e-16 0)
(3 1.21201e-16 0)
(3 -9.33065e-17 0)
(3 -2.92107e-16 0)
(3 -3.68895e-16 0)
(3 -4.20438e-16 0)
(3 5.97188e-17 0)
(3 3.72377e-16 0)
(3 4.96439e-16 0)
(3 6.16043e-16 0)
(3 -1.96077e-17 0)
(3 -3.47514e-16 0)
(3 -9.7408e-16 0)
(3 -1.41638e-15 0)
(3 -2.10205e-15 0)
(3 -2.75122e-15 0)
(3 -2.63258e-15 0)
(3 -1.66191e-15 0)
(3 -1.5126e-15 0)
(3 -8.71795e-16 0)
(3 4.70396e-16 0)
(3 8.00821e-16 0)
(3 1.61018e-15 0)
(3 1.91152e-15 0)
(3 1.4252e-15 0)
(3 4.09561e-16 0)
(3 -1.67919e-16 0)
(3 -4.45407e-16 0)
(3 -7.46114e-17 0)
(3 -3.31026e-16 0)
(3 -1.62127e-16 0)
(3 -2.95578e-16 0)
(3 -1.16052e-15 0)
(3 -7.48722e-16 0)
(3 -2.36596e-16 0)
(3 -1.04239e-16 0)
(3 2.81966e-16 0)
(3 3.51277e-16 0)
(3 5.23802e-16 0)
(3 1.16823e-15 0)
(3 9.94774e-16 0)
(3 4.85342e-16 0)
(3 -2.04263e-16 0)
(3 -6.21948e-16 0)
(3 -5.90135e-16 0)
(3 -9.80806e-16 0)
(3 -8.2905e-17 0)
(3 3.37482e-16 0)
(3 4.61536e-16 0)
(3 1.08305e-15 0)
(3 3.27557e-16 0)
(3 -2.22186e-15 0)
(3 -2.46754e-15 0)
(3 -2.20256e-15 0)
(3 -2.29968e-15 0)
(3 -1.86404e-15 0)
(3 -1.42227e-15 0)
(3 -7.60125e-16 0)
(3 -4.86876e-16 0)
(3 -3.74543e-16 0)
(3 -4.81682e-16 0)
(3 -1.13829e-15 0)
(3 -1.76107e-15 0)
(3 -4.59443e-17 0)
(3 2.10959e-16 0)
(3 2.43277e-16 0)
(3 4.42249e-17 0)
(3 3.44916e-16 0)
(3 4.19638e-16 0)
(3 7.24246e-17 0)
(3 -1.73542e-15 0)
(3 1.24468e-16 0)
(3 2.25523e-16 0)
(3 -2.28199e-16 0)
(3 -4.75281e-16 0)
(3 -6.32868e-16 0)
(3 -8.84404e-16 0)
(3 -7.04546e-16 0)
(3 -3.4663e-16 0)
(3 -6.98933e-16 0)
(3 -8.0418e-16 0)
(3 -1.20276e-15 0)
(3 -1.42139e-15 0)
(3 -1.40601e-15 0)
(3 -1.74863e-15 0)
(3 -1.99244e-15 0)
(3 -1.44575e-15 0)
(3 -1.50459e-15 0)
(3 -1.82641e-15 0)
(3 -1.91394e-15 0)
(3 -1.24841e-15 0)
(3 2.50984e-16 0)
(3 5.15515e-16 0)
(3 2.91218e-16 0)
(3 2.91874e-16 0)
(3 3.94392e-16 0)
(3 1.04877e-15 0)
(3 1.1197e-15 0)
(3 1.16809e-15 0)
(3 1.00683e-15 0)
(3 4.4044e-16 0)
(3 -4.68363e-17 0)
(3 -3.25106e-16 0)
(3 -4.84352e-16 0)
(3 -6.20884e-16 0)
(3 -9.07759e-16 0)
(3 -1.23037e-15 0)
(3 -1.20286e-15 0)
(3 -1.36487e-15 0)
(3 -1.18617e-15 0)
(3 -1.91215e-15 0)
(3 -2.96012e-15 0)
(3 -3.20651e-15 0)
(3 -3.13955e-15 0)
(3 -2.19208e-15 0)
(3 -5.24517e-16 0)
(3 3.95476e-16 0)
(3 4.45647e-16 0)
(3 5.21073e-16 0)
(3 -1.7219e-16 0)
(3 -7.08082e-17 0)
(3 -1.966e-16 0)
(3 -6.34325e-16 0)
(3 -4.92207e-16 0)
(3 -5.72787e-16 0)
(3 -2.94144e-16 0)
(3 2.94589e-16 0)
(3 3.73515e-16 0)
(3 1.85087e-16 0)
(3 -7.69381e-17 0)
(3 -4.67426e-16 0)
(3 -2.2049e-16 0)
(3 7.24482e-17 0)
(3 3.25946e-16 0)
(3 9.8128e-16 0)
(3 1.77566e-15 0)
(3 1.9213e-15 0)
(3 6.7763e-16 0)
(3 -6.14877e-17 0)
(3 -9.95508e-17 0)
(3 9.85032e-17 0)
(3 1.41416e-16 0)
(3 -3.28291e-16 0)
(3 -5.46796e-16 0)
(3 -3.19524e-16 0)
(3 -2.24257e-16 0)
(3 -1.55445e-15 0)
(3 -1.80174e-15 0)
(3 -1.49498e-15 0)
(3 -1.20647e-15 0)
(3 -1.39317e-15 0)
(3 -1.77604e-15 0)
(3 -2.96416e-15 0)
(3 -2.05369e-15 0)
(3 -6.57842e-16 0)
(3 -4.84315e-16 0)
(3 -4.70025e-16 0)
(3 -5.68044e-16 0)
(3 -4.22588e-16 0)
(3 -4.28261e-16 0)
(3 -1.30503e-15 0)
(3 -1.52719e-15 0)
(3 -3.58186e-17 0)
(3 7.8911e-16 0)
(3 1.01407e-15 0)
(3 6.91923e-16 0)
(3 1.84798e-16 0)
(3 1.51567e-16 0)
(3 6.11495e-17 0)
(3 -8.79712e-17 0)
(3 -3.5798e-16 0)
(3 -1.14235e-15 0)
(3 -1.07682e-15 0)
(3 -8.11974e-16 0)
(3 -3.66247e-16 0)
(3 -6.99359e-16 0)
(3 -3.42991e-16 0)
(3 -7.2674e-16 0)
(3 -8.76308e-16 0)
(3 -7.1942e-16 0)
(3 -7.30375e-16 0)
(3 -7.5685e-16 0)
(3 -8.12292e-16 0)
(3 -8.63715e-16 0)
(3 -1.14079e-15 0)
(3 -7.24806e-16 0)
(3 -1.28218e-16 0)
(3 5.85417e-16 0)
(3 1.3796e-15 0)
(3 1.90147e-15 0)
(3 1.66579e-15 0)
(3 1.10093e-15 0)
(3 1.86385e-15 0)
(3 1.95225e-15 0)
(3 1.58729e-15 0)
(3 1.6778e-15 0)
(3 1.56895e-15 0)
(3 7.46775e-16 0)
(3 -6.93453e-16 0)
(3 -1.43782e-15 0)
(3 -1.68993e-15 0)
(3 -1.81456e-15 0)
(3 -1.5144e-15 0)
(3 -1.64274e-15 0)
(3 -1.9611e-15 0)
(3 -1.79114e-15 0)
(3 -1.33217e-15 0)
(3 -2.50365e-15 0)
(3 -3.45467e-15 0)
(3 -2.72975e-15 0)
(3 -1.83812e-15 0)
(3 -1.10045e-15 0)
(3 -8.7609e-16 0)
(3 -4.83331e-16 0)
(3 -1.59948e-15 0)
(3 -2.17017e-15 0)
(3 -2.06134e-15 0)
(3 -2.01184e-15 0)
(3 -2.35464e-15 0)
(3 -1.97393e-15 0)
(3 -1.21589e-15 0)
(3 -7.19159e-16 0)
(3 2.04695e-17 0)
(3 1.93676e-16 0)
(3 3.83485e-16 0)
(3 -1.97325e-16 0)
(3 -5.29736e-16 0)
(3 -5.29948e-16 0)
(3 -5.868e-16 0)
(3 -3.00665e-16 0)
(3 6.07633e-16 0)
(3 1.22829e-15 0)
(3 1.15817e-15 0)
(3 5.32957e-16 0)
(3 -6.29779e-16 0)
(3 9.02643e-16 0)
(3 1.24225e-15 0)
(3 1.19472e-15 0)
(3 6.03308e-16 0)
(3 -1.06959e-16 0)
(3 -9.51855e-16 0)
(3 -1.50067e-15 0)
(3 -1.62989e-15 0)
(3 -1.42828e-15 0)
(3 -1.59634e-15 0)
(3 -2.50903e-15 0)
(3 -3.14519e-15 0)
(3 -3.2912e-15 0)
(3 -3.10371e-15 0)
(3 -2.48218e-15 0)
(3 -3.45632e-15 0)
(3 -1.65414e-15 0)
(3 -4.1108e-16 0)
(3 4.26233e-16 0)
(3 5.84124e-16 0)
(3 -3.06587e-17 0)
(3 -9.00141e-16 0)
(3 -1.68832e-15 0)
(3 -1.68049e-15 0)
(3 -1.38117e-15 0)
(3 -7.65593e-16 0)
(3 -7.17028e-16 0)
(3 1.61388e-16 0)
(3 1.42724e-17 0)
(3 8.2039e-17 0)
(3 7.64548e-17 0)
(3 -3.94822e-16 0)
(3 -6.95791e-16 0)
(3 -5.00189e-16 0)
(3 -1.26657e-16 0)
(3 4.73265e-16 0)
(3 -7.27925e-17 0)
(3 -1.90303e-16 0)
(3 2.82135e-16 0)
(3 2.96991e-16 0)
(3 3.11686e-16 0)
(3 3.28789e-16 0)
(3 -4.9067e-17 0)
(3 -4.26251e-16 0)
(3 -9.11156e-17 0)
(3 2.08906e-16 0)
(3 4.10895e-16 0)
(3 7.70085e-16 0)
(3 7.69669e-16 0)
(3 1.27731e-15 0)
(3 1.47523e-15 0)
(3 9.75948e-16 0)
(3 9.81952e-16 0)
(3 1.0658e-15 0)
(3 1.6909e-15 0)
(3 1.4711e-15 0)
(3 9.04733e-16 0)
(3 6.29531e-16 0)
(3 4.31821e-16 0)
(3 -2.87232e-16 0)
(3 -1.05278e-15 0)
(3 -1.65158e-15 0)
(3 -1.89185e-15 0)
(3 -2.2161e-15 0)
(3 -2.76193e-15 0)
(3 -3.40612e-15 0)
(3 -3.1334e-15 0)
(3 -1.78689e-15 0)
(3 -1.48464e-15 0)
(3 -9.25402e-16 0)
(3 1.03926e-16 0)
(3 1.7196e-16 0)
(3 -7.08761e-16 0)
(3 -1.72755e-15 0)
(3 -1.85487e-15 0)
(3 -1.7245e-15 0)
(3 -2.16091e-15 0)
(3 -2.28977e-15 0)
(3 -2.21951e-15 0)
(3 -2.18002e-15 0)
(3 -2.17179e-15 0)
(3 -1.87537e-15 0)
(3 -1.03285e-15 0)
(3 -9.46668e-17 0)
(3 -2.15216e-16 0)
(3 -2.54446e-16 0)
(3 -1.85526e-16 0)
(3 -1.17572e-16 0)
(3 -2.31466e-16 0)
(3 -4.28618e-16 0)
(3 -3.002e-16 0)
(3 2.83424e-17 0)
(3 1.31232e-16 0)
(3 5.31729e-16 0)
(3 8.72456e-16 0)
(3 5.74837e-16 0)
(3 9.88947e-16 0)
(3 1.2179e-15 0)
(3 6.45474e-16 0)
(3 1.64026e-16 0)
(3 -2.66825e-16 0)
(3 -1.84905e-15 0)
(3 -2.00815e-15 0)
(3 -1.12873e-15 0)
(3 -7.92157e-16 0)
(3 -1.24458e-15 0)
(3 -2.04226e-15 0)
(3 -2.68539e-15 0)
(3 -2.98123e-15 0)
(3 -3.38078e-15 0)
(3 -4.44744e-15 0)
(3 -5.21819e-15 0)
(3 -2.43231e-15 0)
(3 -1.29759e-15 0)
(3 5.37144e-16 0)
(3 9.55801e-16 0)
(3 -9.67349e-16 0)
(3 -1.24629e-15 0)
(3 -1.36884e-15 0)
(3 -1.76776e-15 0)
(3 -1.58149e-15 0)
(3 -1.43464e-15 0)
(3 -1.50211e-15 0)
(3 -9.03546e-16 0)
(3 -7.05351e-18 0)
(3 2.19421e-16 0)
(3 2.18731e-16 0)
(3 4.59768e-17 0)
(3 3.45234e-16 0)
(3 2.18881e-16 0)
(3 -5.43932e-16 0)
(3 -1.66266e-16 0)
(3 2.81701e-16 0)
(3 -1.03079e-16 0)
(3 -2.14257e-16 0)
(3 -4.15656e-16 0)
(3 -6.11029e-16 0)
(3 -2.98821e-16 0)
(3 -5.52574e-17 0)
(3 -1.68391e-16 0)
(3 4.22255e-16 0)
(3 5.40875e-16 0)
(3 5.27038e-16 0)
(3 4.7927e-16 0)
(3 1.82223e-16 0)
(3 -9.11981e-17 0)
(3 -4.16158e-16 0)
(3 -2.27076e-16 0)
(3 2.66656e-16 0)
(3 5.68574e-16 0)
(3 2.75784e-16 0)
(3 -4.08379e-16 0)
(3 -6.59736e-16 0)
(3 -8.37629e-16 0)
(3 -5.74053e-16 0)
(3 2.91481e-17 0)
(3 2.96971e-17 0)
(3 -1.14918e-15 0)
(3 -1.17644e-15 0)
(3 -1.07655e-15 0)
(3 -8.74884e-16 0)
(3 -1.17621e-15 0)
(3 -1.25445e-15 0)
(3 -1.15483e-15 0)
(3 -5.50619e-16 0)
(3 4.60725e-16 0)
(3 -3.31281e-16 0)
(3 -1.02832e-15 0)
(3 -1.72413e-15 0)
(3 -2.5209e-15 0)
(3 -2.23604e-15 0)
(3 -1.7763e-15 0)
(3 -1.55546e-15 0)
(3 -1.28371e-15 0)
(3 -7.11172e-16 0)
(3 -5.26669e-16 0)
(3 -1.22591e-15 0)
(3 -1.36978e-15 0)
(3 -1.12029e-15 0)
(3 -7.90519e-16 0)
(3 -8.02499e-16 0)
(3 -5.95787e-16 0)
(3 1.82278e-16 0)
(3 5.6819e-16 0)
(3 7.11718e-16 0)
(3 7.58367e-16 0)
(3 5.90097e-16 0)
(3 3.4649e-16 0)
(3 4.3611e-16 0)
(3 7.7773e-16 0)
(3 1.35973e-15 0)
(3 1.44327e-15 0)
(3 6.61934e-17 0)
(3 -4.83387e-16 0)
(3 -4.77611e-16 0)
(3 -5.10842e-16 0)
(3 -8.77502e-16 0)
(3 -1.49987e-15 0)
(3 -1.94848e-15 0)
(3 -1.5216e-15 0)
(3 -1.64992e-15 0)
(3 -1.42119e-15 0)
(3 -1.39038e-15 0)
(3 -1.76751e-15 0)
(3 -1.98975e-15 0)
(3 -3.41825e-15 0)
(3 -6.19014e-15 0)
(3 -5.86573e-15 0)
(3 -3.12258e-15 0)
(3 -7.79464e-16 0)
(3 -7.08664e-16 0)
(3 -1.24991e-15 0)
(3 -1.21078e-15 0)
(3 -9.87343e-16 0)
(3 -9.09377e-16 0)
(3 -5.22425e-16 0)
(3 -1.53799e-15 0)
(3 -1.98251e-15 0)
(3 -1.62007e-15 0)
(3 -3.2542e-16 0)
(3 -1.82134e-16 0)
(3 -1.07769e-16 0)
(3 1.88325e-17 0)
(3 3.6022e-16 0)
(3 1.02477e-15 0)
(3 1.11094e-15 0)
(3 3.73349e-16 0)
(3 -6.14749e-16 0)
(3 -5.96918e-16 0)
(3 -6.63329e-16 0)
(3 -8.18272e-16 0)
(3 -1.24951e-15 0)
(3 -1.2106e-15 0)
(3 -5.3951e-16 0)
(3 9.54378e-17 0)
(3 4.2213e-16 0)
(3 4.32775e-16 0)
(3 8.67954e-16 0)
(3 6.68684e-16 0)
(3 1.60623e-16 0)
(3 -3.12988e-16 0)
(3 -8.786e-16 0)
(3 -3.99367e-16 0)
(3 9.02258e-16 0)
(3 1.40405e-15 0)
(3 8.89686e-16 0)
(3 -1.48545e-16 0)
(3 -2.2414e-16 0)
(3 -2.86122e-16 0)
(3 -7.48664e-16 0)
(3 -1.02663e-15 0)
(3 -7.39393e-16 0)
(3 -7.04326e-16 0)
(3 -7.84548e-16 0)
(3 -3.77888e-16 0)
(3 -2.0029e-16 0)
(3 1.4231e-16 0)
(3 4.98812e-16 0)
(3 9.76191e-17 0)
(3 -2.4761e-16 0)
(3 -1.85845e-16 0)
(3 -8.56155e-16 0)
(3 -1.14332e-15 0)
(3 -8.11676e-16 0)
(3 -1.1651e-15 0)
(3 -1.36009e-15 0)
(3 -1.19388e-15 0)
(3 -1.20854e-15 0)
(3 -2.27572e-16 0)
(3 -4.07021e-16 0)
(3 -1.27393e-15 0)
(3 -1.54613e-15 0)
(3 -8.56287e-16 0)
(3 -1.11733e-16 0)
(3 -4.48688e-16 0)
(3 -1.01981e-15 0)
(3 -6.98999e-16 0)
(3 3.07254e-16 0)
(3 1.10607e-15 0)
(3 1.15784e-15 0)
(3 1.3916e-15 0)
(3 1.29732e-15 0)
(3 9.72835e-16 0)
(3 4.09711e-16 0)
(3 1.85496e-16 0)
(3 2.01691e-16 0)
(3 5.58956e-16 0)
(3 5.19065e-16 0)
(3 -4.99049e-16 0)
(3 -1.60212e-15 0)
(3 -1.11108e-15 0)
(3 -5.51604e-16 0)
(3 -4.84057e-16 0)
(3 -4.93987e-16 0)
(3 -1.16839e-15 0)
(3 -1.6525e-15 0)
(3 -1.41008e-15 0)
(3 -5.49995e-16 0)
(3 -9.92311e-16 0)
(3 -2.34337e-15 0)
(3 -3.19375e-15 0)
(3 -4.52591e-15 0)
(3 -5.86638e-15 0)
(3 -5.58611e-15 0)
(3 -4.7626e-15 0)
(3 -3.0852e-15 0)
(3 -3.55652e-15 0)
(3 -3.15757e-15 0)
(3 -1.09814e-15 0)
(3 -8.89005e-16 0)
(3 -9.94129e-16 0)
(3 -5.96932e-16 0)
(3 -6.35842e-16 0)
(3 -1.45562e-15 0)
(3 -8.91989e-16 0)
(3 9.42279e-17 0)
(3 6.31977e-18 0)
(3 -1.56735e-16 0)
(3 -2.89554e-16 0)
(3 6.73754e-17 0)
(3 8.08172e-16 0)
(3 1.2809e-15 0)
(3 1.05e-15 0)
(3 -6.29054e-16 0)
(3 -1.11055e-15 0)
(3 -1.22185e-15 0)
(3 -1.03662e-15 0)
(3 -1.0448e-15 0)
(3 -9.02517e-16 0)
(3 -7.21486e-16 0)
(3 -6.00321e-17 0)
(3 -1.25322e-16 0)
(3 1.55641e-16 0)
(3 9.47827e-16 0)
(3 8.49345e-16 0)
(3 1.77778e-16 0)
(3 -1.11099e-16 0)
(3 3.0994e-16 0)
(3 1.20787e-15 0)
(3 1.08995e-15 0)
(3 1.07542e-15 0)
(3 1.13287e-15 0)
(3 1.08128e-15 0)
(3 1.16563e-16 0)
(3 -6.26703e-16 0)
(3 -7.43111e-16 0)
(3 -1.28881e-15 0)
(3 -1.84751e-15 0)
(3 -1.33687e-15 0)
(3 -5.99881e-16 0)
(3 -4.94794e-16 0)
(3 -6.86265e-16 0)
(3 -7.33415e-16 0)
(3 -6.7891e-16 0)
(3 -5.09106e-16 0)
(3 -7.19577e-16 0)
(3 -7.29172e-16 0)
(3 -6.18874e-16 0)
(3 -1.75666e-16 0)
(3 3.66747e-16 0)
(3 -5.79683e-16 0)
(3 -3.89469e-16 0)
(3 -3.98819e-16 0)
(3 -8.48447e-16 0)
(3 -5.00879e-17 0)
(3 -2.62209e-16 0)
(3 -6.94099e-16 0)
(3 -3.03145e-16 0)
(3 -1.34966e-16 0)
(3 1.88379e-16 0)
(3 3.07275e-16 0)
(3 -7.27428e-17 0)
(3 3.98156e-16 0)
(3 7.31908e-16 0)
(3 8.61444e-16 0)
(3 7.7448e-16 0)
(3 8.81944e-16 0)
(3 6.36521e-16 0)
(3 6.52983e-16 0)
(3 4.60625e-16 0)
(3 3.30846e-16 0)
(3 -5.43124e-16 0)
(3 -9.5527e-16 0)
(3 -1.08025e-15 0)
(3 -8.38634e-16 0)
(3 -1.23804e-15 0)
(3 -1.74798e-15 0)
(3 -1.84067e-15 0)
(3 -1.63928e-15 0)
(3 -1.11943e-15 0)
(3 -9.7295e-16 0)
(3 -1.11566e-15 0)
(3 -7.3888e-16 0)
(3 -7.65653e-16 0)
(3 -4.44254e-16 0)
(3 -9.84362e-16 0)
(3 -2.32558e-15 0)
(3 -3.73152e-15 0)
(3 -4.5679e-15 0)
(3 -4.19122e-15 0)
(3 -4.25441e-15 0)
(3 -5.17891e-15 0)
(3 -5.27369e-15 0)
(3 -3.64996e-15 0)
(3 -2.27235e-15 0)
(3 -2.40957e-15 0)
(3 -2.39289e-15 0)
(3 -2.51502e-15 0)
(3 -2.0469e-15 0)
(3 -1.39161e-15 0)
(3 -5.49557e-16 0)
(3 2.04059e-16 0)
(3 3.93535e-17 0)
(3 -1.69357e-16 0)
(3 -2.01707e-16 0)
(3 -2.69377e-16 0)
(3 8.20343e-18 0)
(3 5.08841e-16 0)
(3 6.89702e-16 0)
(3 1.43007e-16 0)
(3 -2.18005e-16 0)
(3 -5.47258e-16 0)
(3 -9.92844e-16 0)
(3 -9.14351e-16 0)
(3 -7.00832e-16 0)
(3 -7.32336e-16 0)
(3 -8.75073e-16 0)
(3 -9.90889e-16 0)
(3 6.58419e-17 0)
(3 3.57505e-17 0)
(3 2.19349e-16 0)
(3 1.43606e-16 0)
(3 9.45525e-16 0)
(3 1.70119e-15 0)
(3 1.56264e-15 0)
(3 1.06983e-15 0)
(3 1.11809e-15 0)
(3 1.69274e-15 0)
(3 2.95591e-17 0)
(3 -6.18548e-16 0)
(3 -2.70795e-16 0)
(3 -3.89954e-16 0)
(3 -3.4289e-16 0)
(3 -1.19788e-15 0)
(3 -1.2659e-15 0)
(3 -7.04957e-16 0)
(3 -7.58301e-16 0)
(3 -1.00002e-15 0)
(3 -1.05861e-15 0)
(3 -8.69097e-16 0)
(3 -1.00233e-15 0)
(3 -4.38003e-16 0)
(3 1.27359e-17 0)
(3 3.63247e-16 0)
(3 1.5559e-16 0)
(3 1.47046e-16 0)
(3 9.21022e-16 0)
(3 1.16315e-15 0)
(3 1.18279e-15 0)
(3 3.27036e-16 0)
(3 2.43901e-16 0)
(3 4.30388e-16 0)
(3 -2.67166e-16 0)
(3 -4.96138e-16 0)
(3 -5.06436e-16 0)
(3 -6.02458e-16 0)
(3 5.02176e-16 0)
(3 1.22182e-15 0)
(3 1.29115e-15 0)
(3 7.79464e-16 0)
(3 2.2363e-16 0)
(3 5.47173e-16 0)
(3 2.93717e-16 0)
(3 -3.56255e-16 0)
(3 -3.46528e-16 0)
(3 -1.21823e-17 0)
(3 3.52038e-16 0)
(3 -3.18954e-16 0)
(3 -1.60326e-15 0)
(3 -2.13078e-15 0)
(3 -2.09672e-15 0)
(3 -2.08994e-15 0)
(3 -2.15248e-15 0)
(3 -2.41059e-15 0)
(3 -1.56012e-15 0)
(3 -7.30047e-16 0)
(3 -6.71486e-16 0)
(3 -5.73017e-16 0)
(3 -7.60245e-16 0)
(3 -8.13315e-16 0)
(3 -6.44065e-16 0)
(3 -1.78066e-15 0)
(3 -3.36428e-15 0)
(3 -3.33891e-15 0)
(3 -2.56784e-15 0)
(3 -2.66724e-15 0)
(3 -3.23996e-15 0)
(3 -4.226e-15 0)
(3 -4.38623e-15 0)
(3 -4.09477e-15 0)
(3 -3.60321e-15 0)
(3 -3.24459e-15 0)
(3 -2.5991e-15 0)
(3 -3.38391e-15 0)
(3 -2.84167e-15 0)
(3 -1.1804e-15 0)
(3 -1.23821e-15 0)
(3 -5.63358e-16 0)
(3 -2.1714e-16 0)
(3 -1.82603e-16 0)
(3 -3.83665e-17 0)
(3 1.60765e-17 0)
(3 -1.28306e-16 0)
(3 9.06766e-18 0)
(3 6.13287e-16 0)
(3 3.44762e-16 0)
(3 -2.05529e-16 0)
(3 -5.29331e-16 0)
(3 -1.51626e-16 0)
(3 2.21103e-16 0)
(3 5.17776e-16 0)
(3 2.07473e-16 0)
(3 -7.44182e-17 0)
(3 3.38836e-16 0)
(3 7.06947e-17 0)
(3 -5.62189e-16 0)
(3 -1.6292e-16 0)
(3 2.39255e-16 0)
(3 7.80112e-16 0)
(3 9.67155e-16 0)
(3 1.28471e-15 0)
(3 1.93057e-15 0)
(3 1.80507e-15 0)
(3 7.42997e-16 0)
(3 3.35353e-16 0)
(3 3.69904e-16 0)
(3 4.57261e-16 0)
(3 6.41713e-16 0)
(3 1.19151e-15 0)
(3 1.19885e-15 0)
(3 1.21674e-15 0)
(3 1.07137e-15 0)
(3 7.46278e-16 0)
(3 8.37143e-17 0)
(3 -8.99053e-16 0)
(3 -8.99142e-16 0)
(3 -9.89138e-16 0)
(3 -9.09081e-16 0)
(3 -7.08758e-16 0)
(3 -4.6499e-17 0)
(3 -2.32857e-16 0)
(3 -5.86137e-16 0)
(3 -1.11427e-16 0)
(3 -1.34904e-16 0)
(3 -2.55816e-16 0)
(3 -3.03692e-16 0)
(3 -4.14363e-16 0)
(3 -2.40567e-16 0)
(3 4.77512e-16 0)
(3 1.53067e-15 0)
(3 1.51451e-15 0)
(3 1.1531e-15 0)
(3 1.04963e-15 0)
(3 4.22816e-16 0)
(3 -6.74491e-17 0)
(3 -2.16963e-16 0)
(3 -8.69598e-16 0)
(3 -1.23871e-15 0)
(3 -1.46468e-15 0)
(3 -1.33792e-15 0)
(3 -1.94948e-15 0)
(3 -2.27639e-15 0)
(3 -2.73105e-15 0)
(3 -2.57683e-15 0)
(3 -2.93714e-15 0)
(3 -2.76753e-15 0)
(3 -2.34591e-15 0)
(3 -2.28217e-15 0)
(3 -2.2889e-15 0)
(3 -1.55503e-15 0)
(3 -5.72097e-16 0)
(3 -1.74875e-16 0)
(3 2.10732e-16 0)
(3 3.40986e-16 0)
(3 -1.70054e-16 0)
(3 -5.68313e-16 0)
(3 -8.89519e-16 0)
(3 -2.00619e-15 0)
(3 -2.48958e-15 0)
(3 -2.42705e-15 0)
(3 -8.5492e-16 0)
(3 -5.32227e-16 0)
(3 -1.19499e-15 0)
(3 -1.96208e-15 0)
(3 -2.00987e-15 0)
(3 -1.42057e-15 0)
(3 -8.92843e-16 0)
(3 -1.35375e-15 0)
(3 -1.71129e-15 0)
(3 -1.93716e-15 0)
(3 -2.47367e-15 0)
(3 -2.42506e-15 0)
(3 -2.15959e-15 0)
(3 -9.87318e-16 0)
(3 2.47578e-16 0)
(3 3.48914e-16 0)
(3 4.44693e-16 0)
(3 5.1957e-16 0)
(3 2.82476e-16 0)
(3 -6.33154e-16 0)
(3 -7.05918e-16 0)
(3 4.08204e-16 0)
(3 4.0805e-16 0)
(3 4.63372e-16 0)
(3 1.20192e-15 0)
(3 1.45436e-15 0)
(3 6.67803e-16 0)
(3 1.04859e-16 0)
(3 -3.79498e-16 0)
(3 -6.40556e-16 0)
(3 -7.4613e-16 0)
(3 1.11395e-16 0)
(3 4.47691e-16 0)
(3 1.05921e-15 0)
(3 1.17477e-15 0)
(3 1.2272e-15 0)
(3 1.07031e-15 0)
(3 1.01099e-15 0)
(3 3.67328e-17 0)
(3 -8.87758e-16 0)
(3 -5.96588e-16 0)
(3 -2.89832e-18 0)
(3 -5.97777e-16 0)
(3 1.5929e-15 0)
(3 2.18544e-15 0)
(3 2.18866e-15 0)
(3 1.61218e-15 0)
(3 8.93037e-16 0)
(3 6.71278e-16 0)
(3 7.02744e-16 0)
(3 4.98918e-16 0)
(3 -6.52987e-16 0)
(3 -7.09405e-16 0)
(3 -1.06527e-15 0)
(3 -1.1825e-15 0)
(3 -6.70935e-16 0)
(3 -3.97925e-16 0)
(3 -4.44726e-16 0)
(3 -8.38424e-16 0)
(3 -7.67401e-16 0)
(3 -7.78148e-16 0)
(3 -5.61512e-16 0)
(3 -7.35305e-16 0)
(3 -7.12516e-16 0)
(3 2.91994e-16 0)
(3 4.16118e-16 0)
(3 7.68366e-16 0)
(3 7.10938e-16 0)
(3 2.37056e-16 0)
(3 3.62156e-17 0)
(3 2.23001e-16 0)
(3 6.13902e-16 0)
(3 7.54988e-16 0)
(3 -1.64145e-16 0)
(3 -4.05278e-16 0)
(3 -2.95028e-16 0)
(3 -1.63016e-15 0)
(3 -3.11074e-15 0)
(3 -3.67898e-15 0)
(3 -3.91101e-15 0)
(3 -4.01641e-15 0)
(3 -3.93212e-15 0)
(3 -2.24145e-15 0)
(3 -2.01447e-15 0)
(3 -1.88529e-15 0)
(3 -1.39702e-15 0)
(3 -8.92333e-16 0)
(3 -3.24719e-16 0)
(3 -1.84631e-17 0)
(3 -2.43851e-16 0)
(3 -9.56819e-16 0)
(3 -1.29339e-15 0)
(3 -1.30626e-15 0)
(3 -7.7089e-16 0)
(3 -1.59979e-16 0)
(3 2.0603e-16 0)
(3 7.69721e-16 0)
(3 1.0502e-15 0)
(3 1.08585e-15 0)
(3 5.45785e-16 0)
(3 -3.0604e-16 0)
(3 -3.95428e-16 0)
(3 -7.74988e-16 0)
(3 -1.11738e-15 0)
(3 -1.26395e-15 0)
(3 -9.35121e-16 0)
(3 -7.05676e-16 0)
(3 -6.65727e-16 0)
(3 -6.12962e-16 0)
(3 -5.33592e-17 0)
(3 -1.32524e-17 0)
(3 -2.84325e-17 0)
(3 6.69951e-17 0)
(3 1.97526e-16 0)
(3 -7.24836e-17 0)
(3 -3.54716e-16 0)
(3 6.45239e-17 0)
(3 1.31196e-15 0)
(3 1.28383e-15 0)
(3 1.43382e-15 0)
(3 1.14671e-15 0)
(3 4.37763e-16 0)
(3 -6.79431e-16 0)
(3 -1.06312e-15 0)
(3 -8.84881e-16 0)
(3 -1.21396e-15 0)
(3 6.46219e-18 0)
(3 8.1531e-16 0)
(3 1.11566e-15 0)
(3 1.30309e-15 0)
(3 1.70681e-15 0)
(3 1.75119e-15 0)
(3 9.14739e-16 0)
(3 -5.22378e-17 0)
(3 -7.19674e-16 0)
(3 -1.2367e-15 0)
(3 -1.34185e-15 0)
(3 -5.58203e-16 0)
(3 3.51968e-16 0)
(3 7.29599e-16 0)
(3 9.12798e-16 0)
(3 1.73044e-15 0)
(3 1.06648e-15 0)
(3 3.51377e-16 0)
(3 2.68157e-16 0)
(3 -4.85959e-16 0)
(3 -2.86193e-16 0)
(3 -8.4162e-17 0)
(3 1.82144e-15 0)
(3 1.16019e-15 0)
(3 -5.62917e-16 0)
(3 -1.13764e-15 0)
(3 -7.44163e-16 0)
(3 -2.06351e-16 0)
(3 -1.02345e-16 0)
(3 2.5855e-16 0)
(3 4.8488e-16 0)
(3 3.07197e-16 0)
(3 -2.33209e-17 0)
(3 -7.18315e-16 0)
(3 -1.01925e-15 0)
(3 -1.06349e-15 0)
(3 -8.03302e-16 0)
(3 -1.10413e-15 0)
(3 -1.04848e-15 0)
(3 -5.08145e-16 0)
(3 6.09788e-16 0)
(3 1.27181e-15 0)
(3 1.30155e-15 0)
(3 9.99893e-16 0)
(3 6.75367e-16 0)
(3 -2.61116e-16 0)
(3 -7.70878e-16 0)
(3 -2.18788e-15 0)
(3 -2.63963e-15 0)
(3 -2.34473e-15 0)
(3 -2.10673e-15 0)
(3 -1.78013e-15 0)
(3 -1.91979e-15 0)
(3 -1.31092e-15 0)
(3 -7.08255e-16 0)
(3 -7.90699e-16 0)
(3 -1.05597e-15 0)
(3 -3.11473e-16 0)
(3 -1.77557e-16 0)
(3 -5.88212e-16 0)
(3 -1.23409e-15 0)
(3 -1.18323e-15 0)
(3 -1.78929e-15 0)
(3 -9.44296e-16 0)
(3 -4.97719e-16 0)
(3 -1.60759e-16 0)
(3 -2.80383e-17 0)
(3 1.53085e-16 0)
(3 9.20006e-16 0)
(3 1.50597e-15 0)
(3 -7.96459e-16 0)
(3 -1.42044e-15 0)
(3 -6.9503e-16 0)
(3 -3.89427e-16 0)
(3 -4.67404e-16 0)
(3 -8.23386e-16 0)
(3 6.32063e-16 0)
(3 7.78912e-16 0)
(3 8.82435e-16 0)
(3 -1.17627e-16 0)
(3 -2.96282e-16 0)
(3 -2.96494e-16 0)
(3 -4.28096e-16 0)
(3 -1.22657e-16 0)
(3 2.34109e-16 0)
(3 8.29364e-16 0)
(3 9.42532e-16 0)
(3 1.43825e-15 0)
(3 1.27759e-15 0)
(3 1.05457e-15 0)
(3 1.30722e-16 0)
(3 -7.62431e-16 0)
(3 -1.16425e-15 0)
(3 -1.28655e-15 0)
(3 -3.62687e-16 0)
(3 1.37658e-18 0)
(3 2.77325e-16 0)
(3 1.89573e-16 0)
(3 4.93721e-16 0)
(3 4.47975e-16 0)
(3 6.65436e-16 0)
(3 1.79611e-16 0)
(3 -1.31532e-16 0)
(3 -9.38354e-16 0)
(3 -1.13755e-15 0)
(3 -1.22132e-15 0)
(3 -1.09778e-15 0)
(3 -7.20964e-16 0)
(3 8.62752e-16 0)
(3 1.2641e-15 0)
(3 2.0585e-16 0)
(3 9.97549e-16 0)
(3 7.29139e-16 0)
(3 2.27657e-16 0)
(3 -9.02645e-16 0)
(3 -1.27339e-15 0)
(3 -6.97147e-16 0)
(3 2.64171e-16 0)
(3 1.45049e-15 0)
(3 1.27508e-15 0)
(3 7.87887e-16 0)
(3 1.248e-17 0)
(3 -1.79179e-16 0)
(3 -1.93146e-16 0)
(3 9.76942e-16 0)
(3 1.01349e-15 0)
(3 8.69421e-16 0)
(3 3.94677e-16 0)
(3 -3.87688e-16 0)
(3 -6.58834e-16 0)
(3 7.95724e-17 0)
(3 4.23886e-16 0)
(3 -9.51156e-17 0)
(3 -6.32024e-16 0)
(3 -3.49734e-16 0)
(3 -1.81695e-16 0)
(3 1.6574e-16 0)
(3 5.28232e-16 0)
(3 4.83426e-16 0)
(3 4.37e-16 0)
(3 3.67979e-16 0)
(3 4.03836e-18 0)
(3 -3.85227e-16 0)
(3 -1.91552e-15 0)
(3 -2.45021e-15 0)
(3 -1.75436e-15 0)
(3 -7.07382e-16 0)
(3 2.96389e-16 0)
(3 2.8151e-16 0)
(3 -3.23685e-17 0)
(3 9.32497e-17 0)
(3 -5.40397e-16 0)
(3 -5.31426e-16 0)
(3 -4.48388e-16 0)
(3 -5.98872e-16 0)
(3 -5.72434e-16 0)
(3 1.76246e-16 0)
(3 -1.08867e-16 0)
(3 -3.34659e-16 0)
(3 -9.51254e-16 0)
(3 -1.66245e-15 0)
(3 -2.0536e-15 0)
(3 -1.12048e-15 0)
(3 -1.20896e-15 0)
(3 -3.66872e-16 0)
(3 4.50254e-16 0)
(3 -5.82164e-16 0)
(3 -1.85529e-15 0)
(3 -1.29193e-15 0)
(3 6.12682e-16 0)
(3 1.03459e-15 0)
(3 1.89651e-15 0)
(3 2.58267e-15 0)
(3 4.12464e-16 0)
(3 -4.49223e-16 0)
(3 -1.12624e-15 0)
(3 1.14243e-18 0)
(3 7.23604e-17 0)
(3 -2.57893e-16 0)
(3 -5.84505e-16 0)
(3 -3.23749e-16 0)
(3 -6.27716e-17 0)
(3 3.87589e-17 0)
(3 1.16732e-15 0)
(3 1.53643e-15 0)
(3 1.03854e-15 0)
(3 5.13413e-16 0)
(3 3.25932e-16 0)
(3 2.02118e-16 0)
(3 -6.91431e-17 0)
(3 3.00972e-16 0)
(3 6.05809e-16 0)
(3 7.0385e-16 0)
(3 5.67119e-16 0)
(3 4.95301e-16 0)
(3 3.53099e-16 0)
(3 -9.11114e-16 0)
(3 -1.39227e-15 0)
(3 -1.01323e-15 0)
(3 -1.03412e-15 0)
(3 -1.35608e-15 0)
(3 -1.54907e-15 0)
(3 -9.13185e-16 0)
(3 -1.53963e-16 0)
(3 -1.91728e-16 0)
(3 1.72039e-16 0)
(3 -3.94725e-16 0)
(3 -7.25404e-16 0)
(3 -7.40025e-16 0)
(3 -1.35772e-15 0)
(3 -2.03609e-15 0)
(3 -4.51669e-16 0)
(3 1.47436e-15 0)
(3 1.67428e-15 0)
(3 1.11919e-15 0)
(3 9.93386e-16 0)
(3 8.41157e-16 0)
(3 3.43448e-16 0)
(3 2.14462e-16 0)
(3 -2.83597e-16 0)
(3 3.21317e-16 0)
(3 1.17973e-15 0)
(3 1.1674e-15 0)
(3 8.22284e-16 0)
(3 6.98937e-16 0)
(3 6.19461e-16 0)
(3 1.13485e-15 0)
(3 1.17603e-15 0)
(3 7.32918e-16 0)
(3 4.54653e-16 0)
(3 7.2596e-16 0)
(3 9.50679e-16 0)
(3 6.60387e-16 0)
(3 -3.02974e-17 0)
(3 -5.98203e-16 0)
(3 -7.97214e-16 0)
(3 -6.33507e-16 0)
(3 3.42509e-17 0)
(3 2.45269e-16 0)
(3 -1.92142e-16 0)
(3 -1.33338e-15 0)
(3 -1.7482e-15 0)
(3 -9.07876e-16 0)
(3 5.42648e-16 0)
(3 6.60365e-16 0)
(3 4.66133e-16 0)
(3 6.97795e-16 0)
(3 6.85459e-16 0)
(3 8.11307e-16 0)
(3 2.75979e-16 0)
(3 -4.10881e-16 0)
(3 -7.10125e-16 0)
(3 -2.5295e-16 0)
(3 8.65384e-16 0)
(3 1.07971e-15 0)
(3 4.90748e-16 0)
(3 -3.54608e-16 0)
(3 -3.36348e-16 0)
(3 3.55397e-16 0)
(3 4.28701e-16 0)
(3 -2.14546e-16 0)
(3 -1.33502e-15 0)
(3 -1.86073e-15 0)
(3 -3.54599e-15 0)
(3 -1.93871e-15 0)
(3 -8.57955e-16 0)
(3 3.88165e-16 0)
(3 2.12875e-15 0)
(3 2.60315e-15 0)
(3 2.05673e-15 0)
(3 1.37071e-15 0)
(3 9.79833e-16 0)
(3 8.43165e-17 0)
(3 9.44291e-17 0)
(3 1.04785e-16 0)
(3 4.49372e-17 0)
(3 -2.34173e-16 0)
(3 -4.19602e-16 0)
(3 -1.76813e-16 0)
(3 -8.04193e-17 0)
(3 3.15444e-16 0)
(3 1.31646e-16 0)
(3 5.47841e-16 0)
(3 1.15599e-15 0)
(3 1.09091e-15 0)
(3 1.46717e-15 0)
(3 4.52896e-16 0)
(3 3.18237e-16 0)
(3 2.97606e-16 0)
(3 3.61404e-16 0)
(3 1.72817e-16 0)
(3 -3.88486e-16 0)
(3 -5.23758e-16 0)
(3 -1.61872e-17 0)
(3 2.46874e-16 0)
(3 2.34292e-16 0)
(3 -3.36264e-16 0)
(3 -2.58459e-16 0)
(3 -3.96823e-16 0)
(3 -2.86331e-17 0)
(3 -2.7645e-16 0)
(3 -1.60707e-15 0)
(3 -1.47139e-15 0)
(3 -2.15292e-15 0)
(3 -2.47127e-15 0)
(3 -2.50074e-15 0)
(3 -1.99371e-15 0)
(3 5.20636e-16 0)
(3 8.57595e-16 0)
(3 3.63215e-16 0)
(3 3.28467e-16 0)
(3 4.58298e-16 0)
(3 -3.88685e-17 0)
(3 -8.93556e-17 0)
(3 -3.79164e-16 0)
(3 -7.40069e-16 0)
(3 -4.51383e-16 0)
(3 -2.14316e-16 0)
(3 6.40504e-16 0)
(3 9.43189e-16 0)
(3 1.33918e-15 0)
(3 9.6013e-16 0)
(3 8.77613e-16 0)
(3 1.26577e-15 0)
(3 1.62378e-15 0)
(3 1.68116e-15 0)
(3 1.35813e-15 0)
(3 8.45652e-16 0)
(3 5.8297e-16 0)
(3 -3.52312e-17 0)
(3 -2.4165e-16 0)
(3 -4.64293e-16 0)
(3 -8.16378e-16 0)
(3 -1.93056e-16 0)
(3 3.58031e-17 0)
(3 -6.00531e-17 0)
(3 -6.31927e-16 0)
(3 -6.45827e-16 0)
(3 -3.9345e-16 0)
(3 9.77391e-16 0)
(3 9.95605e-16 0)
(3 9.46253e-16 0)
(3 1.3556e-15 0)
(3 1.98819e-15 0)
(3 1.60171e-15 0)
(3 7.25653e-16 0)
(3 9.69759e-16 0)
(3 9.02391e-16 0)
(3 7.05887e-16 0)
(3 1.10904e-15 0)
(3 1.18684e-15 0)
(3 1.20329e-15 0)
(3 1.18188e-15 0)
(3 1.44353e-15 0)
(3 1.17888e-15 0)
(3 7.90918e-16 0)
(3 2.15179e-16 0)
(3 -2.13309e-15 0)
(3 -2.26513e-15 0)
(3 -1.91341e-15 0)
(3 -1.93261e-15 0)
(3 -1.51416e-15 0)
(3 -7.62318e-17 0)
(3 6.84912e-16 0)
(3 8.12448e-16 0)
(3 7.64998e-16 0)
(3 5.08409e-16 0)
(3 1.50614e-16 0)
(3 3.95867e-18 0)
(3 -2.51477e-16 0)
(3 4.66142e-17 0)
(3 1.33318e-16 0)
(3 2.38763e-16 0)
(3 1.32314e-16 0)
(3 2.81897e-16 0)
(3 -7.60718e-16 0)
(3 -6.04209e-16 0)
(3 -4.25222e-16 0)
(3 9.87837e-18 0)
(3 6.55228e-16 0)
(3 1.34193e-15 0)
(3 1.41441e-15 0)
(3 3.31345e-16 0)
(3 -3.71701e-16 0)
(3 -9.21516e-16 0)
(3 -7.21646e-16 0)
(3 -4.43586e-16 0)
(3 -5.7643e-16 0)
(3 -3.55765e-16 0)
(3 -2.11967e-18 0)
(3 -1.77418e-16 0)
(3 1.0174e-17 0)
(3 2.3025e-16 0)
(3 -1.19631e-16 0)
(3 -3.44792e-16 0)
(3 -8.41775e-16 0)
(3 -9.6985e-16 0)
(3 -1.73607e-15 0)
(3 -1.98964e-15 0)
(3 -2.0646e-15 0)
(3 -2.48674e-15 0)
(3 -2.39989e-15 0)
(3 -1.9006e-15 0)
(3 -1.33041e-15 0)
(3 -1.47803e-15 0)
(3 -1.48703e-15 0)
(3 -1.17296e-15 0)
(3 -1.03411e-15 0)
(3 -8.77281e-16 0)
(3 -6.05662e-16 0)
(3 -6.70448e-16 0)
(3 -4.59693e-16 0)
(3 -7.70298e-16 0)
(3 -9.48374e-16 0)