/*--------------------------------*- C++ -*----------------------------------*\
  =========                 |
  \\      /  F ield         | OpenFOAM: The Open Source CFD Toolbox
   \\    /   O peration     | Website:  https://openfoam.org
    \\  /    A nd           | Version:  7
     \\/     M anipulation  |
\*---------------------------------------------------------------------------*/
FoamFile
{
    version     2.0;
    format      ascii;
    class       volVectorField;
    location    "1.8";
    object      U;
}
// * * * * * * * * * * * * * * * * * * * * * * * * * * * * * * * * * * * * * //

dimensions      [0 1 -1 0 0 0 0];

internalField   nonuniform List<vector> 
73728
(
(3 -9.1614e-18 0)
(3 -4.6612e-17 0)
(3 -3.02926e-17 0)
(3 -1.35626e-17 0)
(3 3.70285e-17 0)
(3 -1.92744e-17 0)
(3 1.74911e-16 0)
(3 3.76567e-16 0)
(3 3.90712e-16 0)
(3 4.04466e-16 0)
(3 4.10971e-16 0)
(3 1.37911e-16 0)
(3 1.48792e-16 0)
(3 5.0007e-16 0)
(3 -8.80863e-17 0)
(3 -3.96689e-16 0)
(3 -7.41709e-16 0)
(3 -1.01399e-15 0)
(3 -8.89866e-17 0)
(3 -5.8768e-17 0)
(3 8.19273e-17 0)
(3 2.50836e-16 0)
(3 3.58757e-16 0)
(3 9.01599e-16 0)
(3 1.37141e-15 0)
(3 1.05698e-15 0)
(3 9.75352e-16 0)
(3 7.56601e-16 0)
(3 5.02995e-16 0)
(3 -1.62354e-16 0)
(3 7.44379e-17 0)
(3 2.37267e-16 0)
(3 3.75248e-16 0)
(3 5.36248e-17 0)
(3 -4.67378e-16 0)
(3 -8.3874e-16 0)
(3 -8.10205e-16 0)
(3 2.21119e-16 0)
(3 9.28098e-16 0)
(3 1.25492e-15 0)
(3 1.61722e-15 0)
(3 1.01185e-15 0)
(3 7.57319e-16 0)
(3 7.63099e-16 0)
(3 2.08733e-16 0)
(3 2.09383e-16 0)
(3 -5.06484e-16 0)
(3 -8.01039e-16 0)
(3 -1.16819e-15 0)
(3 -1.75185e-15 0)
(3 -1.43646e-15 0)
(3 -1.4016e-15 0)
(3 -1.89689e-15 0)
(3 -1.93656e-15 0)
(3 -1.49665e-15 0)
(3 -1.0094e-15 0)
(3 -9.10031e-16 0)
(3 -9.74631e-16 0)
(3 -6.78433e-16 0)
(3 -3.10962e-16 0)
(3 -6.49043e-16 0)
(3 -1.15355e-15 0)
(3 -1.35171e-15 0)
(3 -1.25315e-15 0)
(3 -1.25568e-15 0)
(3 -3.95316e-16 0)
(3 8.05596e-16 0)
(3 2.57592e-15 0)
(3 3.10514e-15 0)
(3 1.26624e-15 0)
(3 5.41609e-16 0)
(3 5.40021e-16 0)
(3 7.56821e-16 0)
(3 1.41481e-15 0)
(3 2.33354e-15 0)
(3 2.12494e-15 0)
(3 1.94512e-15 0)
(3 6.86507e-16 0)
(3 -5.53565e-17 0)
(3 -2.35201e-16 0)
(3 7.40252e-16 0)
(3 1.06346e-15 0)
(3 1.39184e-15 0)
(3 3.85211e-16 0)
(3 -4.86382e-16 0)
(3 -9.16108e-16 0)
(3 -1.53568e-15 0)
(3 -1.41179e-15 0)
(3 -9.69991e-16 0)
(3 -3.78463e-16 0)
(3 -1.29532e-16 0)
(3 3.77384e-16 0)
(3 6.92237e-16 0)
(3 -1.5206e-15 0)
(3 -2.09047e-15 0)
(3 9.03271e-16 0)
(3 4.95545e-18 0)
(3 -1.58942e-16 0)
(3 -8.4094e-17 0)
(3 5.93013e-17 0)
(3 -2.39809e-16 0)
(3 1.76708e-16 0)
(3 6.25892e-16 0)
(3 7.25618e-16 0)
(3 9.8278e-16 0)
(3 1.49001e-15 0)
(3 1.69855e-15 0)
(3 9.38069e-16 0)
(3 4.73522e-16 0)
(3 2.669e-16 0)
(3 -2.06455e-17 0)
(3 -9.75354e-16 0)
(3 -1.69906e-15 0)
(3 -2.11651e-15 0)
(3 -4.96649e-16 0)
(3 1.36841e-15 0)
(3 2.23219e-15 0)
(3 1.93565e-15 0)
(3 1.67179e-15 0)
(3 2.1645e-15 0)
(3 2.88854e-15 0)
(3 3.01802e-15 0)
(3 2.94019e-15 0)
(3 2.50573e-15 0)
(3 1.07382e-15 0)
(3 -1.06573e-16 0)
(3 -6.17245e-16 0)
(3 -7.785e-16 0)
(3 -3.3626e-16 0)
(3 -7.22739e-16 0)
(3 6.97785e-17 0)
(3 1.28163e-16 0)
(3 -1.90065e-16 0)
(3 -1.04333e-16 0)
(3 -3.83148e-16 0)
(3 -6.76562e-17 0)
(3 5.949e-16 0)
(3 -1.5467e-16 0)
(3 -6.31577e-16 0)
(3 -8.66654e-16 0)
(3 -1.38135e-15 0)
(3 -1.74174e-15 0)
(3 -2.81449e-15 0)
(3 -3.41128e-15 0)
(3 -3.61574e-15 0)
(3 -3.37597e-15 0)
(3 -2.79136e-15 0)
(3 -2.37588e-15 0)
(3 -3.00724e-15 0)
(3 -2.7628e-15 0)
(3 -2.50301e-15 0)
(3 -2.40724e-15 0)
(3 -2.50689e-15 0)
(3 -2.39547e-15 0)
(3 -1.63166e-15 0)
(3 -1.16355e-15 0)
(3 -2.07471e-15 0)
(3 -2.94194e-15 0)
(3 -3.00757e-15 0)
(3 -2.10407e-15 0)
(3 -1.09629e-15 0)
(3 -1.01044e-15 0)
(3 2.62555e-16 0)
(3 3.10791e-15 0)
(3 3.83014e-15 0)
(3 2.68511e-15 0)
(3 1.93082e-15 0)
(3 1.64911e-15 0)
(3 9.64398e-16 0)
(3 2.30831e-15 0)
(3 3.18017e-15 0)
(3 2.77358e-15 0)
(3 2.87442e-15 0)
(3 2.36856e-15 0)
(3 1.5761e-15 0)
(3 1.59888e-15 0)
(3 2.08804e-15 0)
(3 2.53932e-15 0)
(3 2.46161e-15 0)
(3 2.0632e-15 0)
(3 1.81348e-16 0)
(3 -8.17669e-16 0)
(3 -1.52589e-15 0)
(3 -1.04469e-15 0)
(3 -4.21332e-16 0)
(3 3.72963e-17 0)
(3 5.80554e-17 0)
(3 -1.60076e-17 0)
(3 9.33767e-17 0)
(3 -1.23122e-15 0)
(3 2.39071e-16 0)
(3 2.64567e-15 0)
(3 1.50918e-17 0)
(3 7.85807e-18 0)
(3 -5.81248e-17 0)
(3 4.35468e-17 0)
(3 -2.25539e-17 0)
(3 6.26865e-16 0)
(3 8.74375e-16 0)
(3 9.2508e-16 0)
(3 1.0616e-15 0)
(3 1.46649e-15 0)
(3 2.01717e-15 0)
(3 1.45736e-15 0)
(3 4.12303e-16 0)
(3 -4.03708e-16 0)
(3 -1.9556e-16 0)
(3 2.09122e-16 0)
(3 8.12732e-16 0)
(3 3.47047e-16 0)
(3 -3.79361e-16 0)
(3 -2.35938e-16 0)
(3 7.61158e-16 0)
(3 1.11572e-15 0)
(3 1.39908e-15 0)
(3 1.833e-15 0)
(3 2.31837e-15 0)
(3 2.63407e-15 0)
(3 2.35138e-15 0)
(3 1.56016e-15 0)
(3 1.12597e-15 0)
(3 5.31693e-16 0)
(3 4.36002e-16 0)
(3 5.53288e-16 0)
(3 8.35307e-16 0)
(3 7.07875e-16 0)
(3 9.20824e-17 0)
(3 -6.49171e-17 0)
(3 -2.66937e-16 0)
(3 -4.62895e-16 0)
(3 -3.55849e-16 0)
(3 -3.72404e-16 0)
(3 -9.72192e-16 0)
(3 -1.46486e-15 0)
(3 -2.06449e-15 0)
(3 -2.26453e-15 0)
(3 -2.32931e-15 0)
(3 -2.74715e-15 0)
(3 -2.85109e-15 0)
(3 -3.3235e-15 0)
(3 -3.45572e-15 0)
(3 -2.36765e-15 0)
(3 -2.37448e-15 0)
(3 -2.67969e-15 0)
(3 -2.47852e-15 0)
(3 -2.24346e-15 0)
(3 -2.11501e-15 0)
(3 -2.27077e-15 0)
(3 -2.54105e-15 0)
(3 -2.2334e-15 0)
(3 -1.56784e-15 0)
(3 -1.58687e-15 0)
(3 -2.4476e-15 0)
(3 -3.5991e-15 0)
(3 -4.13747e-15 0)
(3 -2.77283e-15 0)
(3 -1.38205e-15 0)
(3 -1.20943e-15 0)
(3 -6.10501e-17 0)
(3 5.7493e-16 0)
(3 9.31331e-16 0)
(3 2.22549e-15 0)
(3 2.40019e-15 0)
(3 2.09429e-15 0)
(3 1.03923e-15 0)
(3 1.01724e-15 0)
(3 7.64762e-16 0)
(3 1.11945e-15 0)
(3 1.78233e-15 0)
(3 3.00687e-15 0)
(3 2.96599e-15 0)
(3 3.14334e-15 0)
(3 2.52994e-15 0)
(3 2.53486e-15 0)
(3 2.68661e-15 0)
(3 2.52036e-15 0)
(3 1.75077e-15 0)
(3 -4.52667e-16 0)
(3 -2.9992e-16 0)
(3 3.47361e-16 0)
(3 9.15276e-16 0)
(3 5.70376e-16 0)
(3 1.5489e-16 0)
(3 -4.83107e-16 0)
(3 -1.59276e-15 0)
(3 -1.65942e-15 0)
(3 -1.90517e-17 0)
(3 1.18967e-15 0)
(3 3.4571e-17 0)
(3 2.37545e-16 0)
(3 2.58029e-16 0)
(3 4.04241e-16 0)
(3 6.47825e-16 0)
(3 3.45071e-16 0)
(3 5.90715e-16 0)
(3 7.64334e-16 0)
(3 7.98311e-16 0)
(3 6.25542e-16 0)
(3 8.37395e-16 0)
(3 8.89882e-16 0)
(3 8.98687e-16 0)
(3 6.86186e-16 0)
(3 6.4097e-16 0)
(3 8.76865e-16 0)
(3 1.31295e-15 0)
(3 6.85392e-16 0)
(3 -1.13817e-15 0)
(3 -2.2595e-15 0)
(3 -1.87553e-15 0)
(3 -3.16291e-17 0)
(3 2.78405e-16 0)
(3 4.07342e-16 0)
(3 4.37719e-16 0)
(3 6.91676e-16 0)
(3 5.38881e-16 0)
(3 8.53665e-16 0)
(3 1.51843e-15 0)
(3 1.30738e-15 0)
(3 9.13395e-16 0)
(3 1.29149e-15 0)
(3 2.29587e-15 0)
(3 1.95703e-15 0)
(3 8.16935e-16 0)
(3 -4.34398e-16 0)
(3 -6.31008e-16 0)
(3 -5.92431e-16 0)
(3 -1.10138e-18 0)
(3 4.34452e-16 0)
(3 1.52418e-16 0)
(3 4.72025e-16 0)
(3 7.61266e-16 0)
(3 5.28974e-16 0)
(3 5.83292e-17 0)
(3 -5.0316e-16 0)
(3 -7.9487e-16 0)
(3 -7.1347e-16 0)
(3 -2.31308e-16 0)
(3 -1.66002e-15 0)
(3 -2.07584e-15 0)
(3 -2.43755e-15 0)
(3 -2.18648e-15 0)
(3 -1.97919e-15 0)
(3 -1.23306e-15 0)
(3 -3.87875e-16 0)
(3 -3.92638e-16 0)
(3 -1.22082e-15 0)
(3 -2.32998e-15 0)
(3 -2.81923e-15 0)
(3 -3.14866e-15 0)
(3 -2.59312e-15 0)
(3 -2.08624e-15 0)
(3 -1.37305e-15 0)
(3 -8.57355e-16 0)
(3 -8.72906e-16 0)
(3 -1.02033e-15 0)
(3 -1.11908e-15 0)
(3 -1.05457e-15 0)
(3 -7.50233e-16 0)
(3 -8.56619e-16 0)
(3 -9.13774e-16 0)
(3 -1.66608e-15 0)
(3 -1.68157e-15 0)
(3 -1.75388e-15 0)
(3 -6.15477e-16 0)
(3 2.5678e-15 0)
(3 3.70936e-15 0)
(3 2.58893e-15 0)
(3 1.67509e-15 0)
(3 1.77371e-15 0)
(3 2.0578e-15 0)
(3 2.49621e-15 0)
(3 1.71085e-15 0)
(3 1.27797e-15 0)
(3 3.60526e-17 0)
(3 -2.71827e-16 0)
(3 5.75865e-16 0)
(3 1.08975e-15 0)
(3 4.84866e-16 0)
(3 4.99517e-16 0)
(3 1.01527e-16 0)
(3 -4.89683e-17 0)
(3 -6.22725e-17 0)
(3 1.03972e-15 0)
(3 3.78468e-16 0)
(3 6.4614e-17 0)
(3 6.88438e-17 0)
(3 1.39132e-16 0)
(3 4.44901e-16 0)
(3 7.12433e-16 0)
(3 3.83812e-16 0)
(3 2.79737e-16 0)
(3 6.78591e-16 0)
(3 -5.15629e-17 0)
(3 -8.77757e-16 0)
(3 -1.67296e-15 0)
(3 -2.14303e-16 0)
(3 4.25838e-16 0)
(3 6.63727e-16 0)
(3 9.01427e-16 0)
(3 1.06034e-15 0)
(3 4.29397e-16 0)
(3 -7.23288e-16 0)
(3 -4.66377e-16 0)
(3 -1.62883e-15 0)
(3 -2.10253e-15 0)
(3 -2.38851e-15 0)
(3 -2.16617e-15 0)
(3 -2.20387e-15 0)
(3 -1.81761e-15 0)
(3 -1.31274e-15 0)
(3 -4.9982e-16 0)
(3 1.25945e-15 0)
(3 1.68406e-15 0)
(3 1.21825e-15 0)
(3 5.279e-16 0)
(3 7.5671e-16 0)
(3 7.71803e-16 0)
(3 7.27984e-16 0)
(3 9.18718e-17 0)
(3 -2.1895e-16 0)
(3 -2.45451e-16 0)
(3 -5.49149e-16 0)
(3 -7.98706e-16 0)
(3 -5.55193e-16 0)
(3 4.16769e-16 0)
(3 6.74644e-16 0)
(3 5.78535e-16 0)
(3 7.13674e-17 0)
(3 -1.49515e-16 0)
(3 -3.68879e-17 0)
(3 4.32055e-16 0)
(3 1.95746e-15 0)
(3 1.37213e-15 0)
(3 -2.28118e-15 0)
(3 -2.97619e-15 0)
(3 -2.24503e-15 0)
(3 -2.0037e-15 0)
(3 -1.72362e-15 0)
(3 -1.75511e-15 0)
(3 -1.45068e-15 0)
(3 -8.84308e-16 0)
(3 -7.43014e-16 0)
(3 -1.35541e-15 0)
(3 -1.91062e-15 0)
(3 -1.84748e-15 0)
(3 -9.66192e-16 0)
(3 1.21767e-16 0)
(3 3.11346e-16 0)
(3 3.26118e-17 0)
(3 -1.70986e-15 0)
(3 -2.07076e-15 0)
(3 -1.39394e-15 0)
(3 -1.30516e-15 0)
(3 -2.2783e-15 0)
(3 -2.97366e-15 0)
(3 -3.67653e-15 0)
(3 -3.49967e-15 0)
(3 -3.05236e-15 0)
(3 -2.04438e-15 0)
(3 -8.68396e-16 0)
(3 1.5778e-16 0)
(3 4.50798e-16 0)
(3 3.54878e-16 0)
(3 -3.0507e-16 0)
(3 -9.09499e-16 0)
(3 -1.72095e-16 0)
(3 1.07157e-15 0)
(3 8.61272e-16 0)
(3 -2.975e-17 0)
(3 -7.36019e-16 0)
(3 -1.78035e-16 0)
(3 1.18664e-15 0)
(3 1.43493e-15 0)
(3 1.22754e-15 0)
(3 8.33712e-16 0)
(3 4.82883e-16 0)
(3 2.83686e-16 0)
(3 -4.12617e-16 0)
(3 -4.67491e-17 0)
(3 8.53504e-16 0)
(3 5.75421e-18 0)
(3 9.42611e-17 0)
(3 5.59361e-17 0)
(3 6.73416e-17 0)
(3 1.86313e-16 0)
(3 4.93878e-16 0)
(3 1.61515e-16 0)
(3 -1.41333e-16 0)
(3 -6.27628e-16 0)
(3 -9.07537e-16 0)
(3 -1.1835e-15 0)
(3 -5.85229e-16 0)
(3 -2.66917e-16 0)
(3 -1.93142e-16 0)
(3 -5.95501e-16 0)
(3 -6.84545e-16 0)
(3 -4.31648e-16 0)
(3 -4.12063e-16 0)
(3 -1.71685e-16 0)
(3 -1.23767e-15 0)
(3 -3.06387e-15 0)
(3 -4.7046e-15 0)
(3 -4.25169e-15 0)
(3 -3.2393e-15 0)
(3 -2.15053e-15 0)
(3 -1.61376e-15 0)
(3 -5.42643e-16 0)
(3 1.65271e-16 0)
(3 4.712e-16 0)
(3 9.31723e-16 0)
(3 1.11207e-15 0)
(3 9.61141e-16 0)
(3 -1.32492e-15 0)
(3 -1.47629e-15 0)
(3 -8.67705e-16 0)
(3 -5.43973e-16 0)
(3 1.65912e-16 0)
(3 1.64616e-16 0)
(3 -6.23496e-16 0)
(3 -1.73249e-15 0)
(3 -1.7879e-15 0)
(3 -1.36705e-15 0)
(3 -2.44045e-15 0)
(3 -2.87306e-15 0)
(3 -1.98514e-15 0)
(3 -3.16162e-16 0)
(3 1.59787e-15 0)
(3 1.89313e-15 0)
(3 1.01003e-15 0)
(3 -5.99337e-16 0)
(3 -1.52217e-15 0)
(3 -1.58116e-15 0)
(3 -1.81549e-15 0)
(3 -2.11921e-15 0)
(3 -2.56719e-15 0)
(3 -3.23943e-15 0)
(3 -2.79909e-15 0)
(3 -2.07942e-15 0)
(3 -1.69255e-15 0)
(3 -1.64346e-15 0)
(3 -9.01632e-16 0)
(3 -4.39383e-17 0)
(3 -4.19644e-16 0)
(3 -4.47322e-17 0)
(3 -5.01999e-16 0)
(3 -8.72718e-16 0)
(3 -8.24999e-16 0)
(3 -3.9285e-16 0)
(3 -2.79152e-16 0)
(3 -1.0294e-15 0)
(3 -3.11997e-15 0)
(3 -3.86086e-15 0)
(3 -3.34096e-15 0)
(3 -2.67478e-15 0)
(3 -2.24467e-15 0)
(3 -2.69082e-15 0)
(3 -3.335e-15 0)
(3 -2.58957e-15 0)
(3 -3.088e-16 0)
(3 7.83987e-16 0)
(3 2.35956e-15 0)
(3 1.12127e-15 0)
(3 1.72938e-16 0)
(3 -4.45445e-16 0)
(3 -1.24814e-15 0)
(3 -1.83479e-15 0)
(3 -1.3051e-15 0)
(3 -5.30748e-16 0)
(3 -2.05099e-16 0)
(3 -4.86855e-16 0)
(3 -7.71186e-16 0)
(3 -9.71988e-16 0)
(3 -9.75014e-16 0)
(3 -7.85677e-16 0)
(3 -9.31849e-16 0)
(3 -9.7374e-16 0)
(3 -1.25223e-17 0)
(3 7.92065e-18 0)
(3 1.23086e-16 0)
(3 -1.37101e-17 0)
(3 -2.71895e-16 0)
(3 -7.01588e-16 0)
(3 -1.51415e-15 0)
(3 -2.23182e-15 0)
(3 -1.80071e-15 0)
(3 -8.45417e-16 0)
(3 -1.52198e-16 0)
(3 -7.84829e-17 0)
(3 -5.00215e-16 0)
(3 -3.56104e-16 0)
(3 -8.27085e-16 0)
(3 -1.15485e-15 0)
(3 -5.11369e-16 0)
(3 -3.06669e-17 0)
(3 -1.57075e-16 0)
(3 -7.30909e-16 0)
(3 -1.78587e-15 0)
(3 -2.75315e-15 0)
(3 -2.85559e-15 0)
(3 -1.7706e-15 0)
(3 -1.62654e-15 0)
(3 -1.61229e-15 0)
(3 -1.24965e-15 0)
(3 -6.78124e-16 0)
(3 -6.51931e-17 0)
(3 2.8083e-16 0)
(3 -7.31365e-17 0)
(3 -8.28832e-16 0)
(3 -7.81505e-16 0)
(3 -7.6564e-16 0)
(3 -4.85146e-16 0)
(3 3.14779e-17 0)
(3 2.92108e-16 0)
(3 4.2266e-16 0)
(3 4.41387e-16 0)
(3 3.43556e-16 0)
(3 -1.27423e-15 0)
(3 -1.91681e-15 0)
(3 -1.59011e-15 0)
(3 -3.55034e-16 0)
(3 6.13422e-16 0)
(3 2.45553e-15 0)
(3 3.19436e-15 0)
(3 2.72597e-15 0)
(3 1.83261e-15 0)
(3 2.71647e-16 0)
(3 -1.55987e-15 0)
(3 -3.07098e-15 0)
(3 -2.7322e-15 0)
(3 -2.5616e-15 0)
(3 -2.43247e-15 0)
(3 -2.635e-15 0)
(3 -2.8582e-15 0)
(3 -3.75494e-15 0)
(3 -3.74124e-15 0)
(3 -2.67711e-15 0)
(3 -1.75761e-15 0)
(3 -1.47026e-15 0)
(3 -8.98108e-16 0)
(3 -2.85113e-16 0)
(3 1.3898e-16 0)
(3 5.17291e-16 0)
(3 4.33298e-17 0)
(3 -5.17867e-16 0)
(3 -1.18305e-15 0)
(3 -1.50094e-15 0)
(3 -1.92091e-15 0)
(3 -2.02085e-15 0)
(3 -1.95772e-15 0)
(3 -2.13598e-15 0)
(3 -2.48276e-15 0)
(3 -2.12624e-15 0)
(3 -2.02828e-15 0)
(3 -1.38515e-15 0)
(3 -6.74417e-16 0)
(3 -1.09589e-16 0)
(3 -5.90403e-16 0)
(3 -8.41878e-16 0)
(3 -7.34935e-16 0)
(3 -1.6955e-16 0)
(3 3.54917e-16 0)
(3 8.83752e-16 0)
(3 -7.72577e-16 0)
(3 -2.00998e-15 0)
(3 -3.09656e-15 0)
(3 -2.96037e-15 0)
(3 -2.52167e-15 0)
(3 -2.33042e-15 0)
(3 -1.814e-15 0)
(3 -1.44345e-15 0)
(3 -4.51429e-16 0)
(3 4.98428e-16 0)
(3 -2.95471e-17 0)
(3 -2.05171e-16 0)
(3 2.28299e-17 0)
(3 -5.10606e-17 0)
(3 -2.23019e-17 0)
(3 -3.17608e-16 0)
(3 -9.9638e-16 0)
(3 -1.29665e-15 0)
(3 -1.72608e-15 0)
(3 -1.83176e-15 0)
(3 -1.30492e-15 0)
(3 -7.65813e-16 0)
(3 -4.29966e-16 0)
(3 -3.46544e-16 0)
(3 -2.23993e-16 0)
(3 1.25928e-16 0)
(3 2.10453e-17 0)
(3 -2.69713e-16 0)
(3 -8.34912e-16 0)
(3 -9.27864e-16 0)
(3 -4.24162e-16 0)
(3 -5.06664e-16 0)
(3 -8.65636e-16 0)
(3 -9.65148e-16 0)
(3 -2.65432e-16 0)
(3 -6.12262e-16 0)
(3 -7.92026e-16 0)
(3 -9.1102e-16 0)
(3 -4.71717e-16 0)
(3 -7.44459e-16 0)
(3 -1.54341e-15 0)
(3 -1.38597e-15 0)
(3 -6.8414e-16 0)
(3 -5.86996e-16 0)
(3 -5.98618e-16 0)
(3 -2.72216e-16 0)
(3 3.85675e-16 0)
(3 1.04049e-15 0)
(3 8.28764e-16 0)
(3 6.33992e-16 0)
(3 4.08352e-16 0)
(3 3.88891e-16 0)
(3 7.77847e-16 0)
(3 1.55281e-15 0)
(3 3.0757e-15 0)
(3 4.45637e-15 0)
(3 3.21829e-15 0)
(3 2.21442e-15 0)
(3 1.32656e-15 0)
(3 7.18008e-16 0)
(3 4.783e-16 0)
(3 5.58914e-16 0)
(3 -3.09461e-16 0)
(3 -1.83713e-15 0)
(3 -2.18071e-15 0)
(3 -2.68028e-15 0)
(3 -3.17708e-15 0)
(3 -4.08797e-15 0)
(3 -4.07605e-15 0)
(3 -3.40067e-15 0)
(3 -2.59539e-15 0)
(3 -2.9737e-15 0)
(3 -1.63842e-15 0)
(3 -1.43665e-15 0)
(3 -6.04195e-16 0)
(3 1.93018e-16 0)
(3 2.3167e-16 0)
(3 -4.04209e-16 0)
(3 -3.76706e-16 0)
(3 -7.73875e-16 0)
(3 -1.96477e-15 0)
(3 -2.46833e-15 0)
(3 -2.26624e-15 0)
(3 -1.84027e-15 0)
(3 -1.3881e-15 0)
(3 -6.38033e-16 0)
(3 -1.03352e-15 0)
(3 -1.18527e-15 0)
(3 -8.00613e-16 0)
(3 -1.01287e-15 0)
(3 -2.08301e-15 0)
(3 -1.31921e-15 0)
(3 -1.31408e-16 0)
(3 7.45608e-16 0)
(3 1.90547e-15 0)
(3 2.2517e-15 0)
(3 1.2524e-15 0)
(3 -7.68159e-16 0)
(3 -2.54511e-15 0)
(3 -2.76898e-15 0)
(3 -2.98896e-15 0)
(3 -2.14223e-15 0)
(3 -1.46933e-15 0)
(3 -1.33479e-15 0)
(3 -8.68115e-16 0)
(3 -5.18736e-16 0)
(3 1.10683e-16 0)
(3 7.24743e-17 0)
(3 1.26837e-16 0)
(3 4.27758e-18 0)
(3 1.85215e-16 0)
(3 -8.23316e-17 0)
(3 -4.12249e-16 0)
(3 -5.80259e-16 0)
(3 -4.69816e-16 0)
(3 -5.98574e-16 0)
(3 -1.10393e-15 0)
(3 -1.26083e-15 0)
(3 -6.31175e-16 0)
(3 -2.27691e-16 0)
(3 -2.22293e-16 0)
(3 -4.98891e-16 0)
(3 -6.3908e-16 0)
(3 -2.6459e-16 0)
(3 1.60746e-17 0)
(3 7.37671e-16 0)
(3 6.74849e-16 0)
(3 5.78073e-16 0)
(3 -6.1641e-16 0)
(3 -7.43802e-16 0)
(3 -1.53903e-17 0)
(3 6.89341e-16 0)
(3 8.42545e-17 0)
(3 1.07266e-16 0)
(3 -3.57883e-16 0)
(3 -1.37208e-15 0)
(3 -1.53995e-15 0)
(3 -2.56426e-15 0)
(3 -2.17219e-15 0)
(3 -1.73035e-15 0)
(3 -1.11727e-15 0)
(3 -5.73575e-16 0)
(3 -7.77969e-18 0)
(3 6.4716e-17 0)
(3 5.13505e-16 0)
(3 4.13513e-16 0)
(3 6.26005e-16 0)
(3 1.21128e-15 0)
(3 1.24167e-15 0)
(3 1.90172e-15 0)
(3 3.09514e-15 0)
(3 1.16275e-15 0)
(3 5.47766e-16 0)
(3 8.48601e-16 0)
(3 2.16047e-15 0)
(3 3.15402e-15 0)
(3 3.07757e-15 0)
(3 2.11734e-15 0)
(3 6.50972e-16 0)
(3 -9.47905e-16 0)
(3 -2.12992e-15 0)
(3 -2.10586e-15 0)
(3 -2.11158e-15 0)
(3 -1.61409e-15 0)
(3 -1.36776e-15 0)
(3 -1.76612e-15 0)
(3 -2.41185e-15 0)
(3 -1.44838e-15 0)
(3 -4.26279e-16 0)
(3 -1.38487e-15 0)
(3 -1.40376e-15 0)
(3 -6.37689e-16 0)
(3 4.35494e-16 0)
(3 6.17847e-16 0)
(3 8.08877e-16 0)
(3 8.63376e-16 0)
(3 9.13186e-16 0)
(3 4.01386e-17 0)
(3 -6.97599e-16 0)
(3 -1.67392e-15 0)
(3 -1.60524e-15 0)
(3 -1.27139e-15 0)
(3 -9.7048e-16 0)
(3 -7.98743e-16 0)
(3 -1.40088e-16 0)
(3 -7.84706e-16 0)
(3 -1.49864e-15 0)
(3 1.6134e-16 0)
(3 8.78747e-16 0)
(3 9.0622e-16 0)
(3 1.11587e-15 0)
(3 2.48746e-16 0)
(3 -5.57358e-16 0)
(3 -1.25369e-15 0)
(3 -2.25052e-15 0)
(3 -3.56444e-15 0)
(3 -2.50071e-15 0)
(3 -1.55757e-15 0)
(3 -1.21112e-15 0)
(3 -4.7355e-16 0)
(3 -9.438e-16 0)
(3 -7.81554e-16 0)
(3 1.4707e-16 0)
(3 3.12908e-16 0)
(3 2.06412e-16 0)
(3 -2.30369e-18 0)
(3 -1.79639e-16 0)
(3 -1.95577e-16 0)
(3 -1.92939e-16 0)
(3 -3.85322e-17 0)
(3 -3.8583e-18 0)
(3 -1.42497e-16 0)
(3 -3.56448e-16 0)
(3 -2.77197e-16 0)
(3 -3.77814e-16 0)
(3 1.86703e-16 0)
(3 2.68511e-16 0)
(3 -2.35249e-16 0)
(3 -2.34516e-16 0)
(3 1.30289e-16 0)
(3 1.47558e-15 0)
(3 2.31184e-15 0)
(3 2.36406e-15 0)
(3 2.21705e-15 0)
(3 1.96068e-15 0)
(3 5.66404e-16 0)
(3 8.45502e-17 0)
(3 1.17119e-16 0)
(3 1.8329e-16 0)
(3 -3.68641e-16 0)
(3 -1.05027e-15 0)
(3 -1.67437e-15 0)
(3 -2.43008e-15 0)
(3 -2.74399e-15 0)
(3 -2.46436e-15 0)
(3 -2.00248e-15 0)
(3 -1.33171e-15 0)
(3 -9.94631e-16 0)
(3 -1.18414e-15 0)
(3 -1.38547e-15 0)
(3 -9.6478e-16 0)
(3 -3.30763e-16 0)
(3 1.37725e-15 0)
(3 2.41437e-15 0)
(3 2.94757e-15 0)
(3 1.67541e-15 0)
(3 8.61372e-16 0)
(3 -3.26972e-16 0)
(3 -8.15577e-16 0)
(3 -3.85328e-16 0)
(3 3.45107e-16 0)
(3 7.57165e-16 0)
(3 1.24563e-15 0)
(3 1.59955e-15 0)
(3 2.08459e-15 0)
(3 2.33796e-15 0)
(3 9.87921e-16 0)
(3 2.31625e-16 0)
(3 1.75211e-16 0)
(3 1.79007e-16 0)
(3 -2.11828e-17 0)
(3 -1.62698e-15 0)
(3 -2.18586e-15 0)
(3 -3.46986e-16 0)
(3 5.73594e-16 0)
(3 -2.03565e-16 0)
(3 -7.42617e-16 0)
(3 -2.27825e-16 0)
(3 -7.39978e-17 0)
(3 -4.95303e-16 0)
(3 -1.00534e-15 0)
(3 -3.70783e-16 0)
(3 6.81105e-16 0)
(3 1.33104e-15 0)
(3 4.98691e-16 0)
(3 -2.47821e-16 0)
(3 -7.69163e-16 0)
(3 -7.9031e-16 0)
(3 -7.20845e-16 0)
(3 -5.96639e-16 0)
(3 -7.8581e-16 0)
(3 -7.05347e-16 0)
(3 -9.01786e-16 0)
(3 1.38851e-17 0)
(3 1.24287e-15 0)
(3 9.35564e-16 0)
(3 -6.93084e-16 0)
(3 -3.13156e-15 0)
(3 -3.10135e-15 0)
(3 -2.50688e-15 0)
(3 -1.99922e-15 0)
(3 -8.94725e-16 0)
(3 -8.47608e-16 0)
(3 -8.05054e-16 0)
(3 -1.16145e-15 0)
(3 -7.04207e-16 0)
(3 -6.1062e-16 0)
(3 -7.90858e-16 0)
(3 -4.63695e-17 0)
(3 -3.33583e-17 0)
(3 -1.64662e-16 0)
(3 -7.39757e-17 0)
(3 4.12213e-16 0)
(3 1.06338e-15 0)
(3 1.38431e-15 0)
(3 1.1089e-15 0)
(3 7.74513e-16 0)
(3 7.23283e-16 0)
(3 6.31294e-16 0)
(3 1.2371e-16 0)
(3 -2.51631e-16 0)
(3 -5.62862e-16 0)
(3 -5.50972e-17 0)
(3 6.42903e-16 0)
(3 2.19396e-16 0)
(3 -3.60835e-16 0)
(3 9.77905e-16 0)
(3 1.16982e-15 0)
(3 2.71192e-15 0)
(3 3.5577e-15 0)
(3 3.27473e-15 0)
(3 1.96258e-15 0)
(3 8.62907e-16 0)
(3 -6.766e-17 0)
(3 -6.11153e-16 0)
(3 -9.60608e-16 0)
(3 -1.41456e-15 0)
(3 -1.74405e-15 0)
(3 -2.03658e-15 0)
(3 -1.89119e-15 0)
(3 -1.97167e-15 0)
(3 -2.19431e-15 0)
(3 -1.25114e-15 0)
(3 -1.33524e-15 0)
(3 -1.61709e-15 0)
(3 -1.72421e-15 0)
(3 -1.72891e-15 0)
(3 5.33355e-16 0)
(3 1.39759e-15 0)
(3 1.79332e-15 0)
(3 2.46525e-15 0)
(3 2.00475e-15 0)
(3 1.74231e-16 0)
(3 -7.06046e-16 0)
(3 -1.23514e-15 0)
(3 -1.0803e-15 0)
(3 -1.08215e-15 0)
(3 -7.1646e-16 0)
(3 -4.37927e-16 0)
(3 2.12987e-16 0)
(3 1.31471e-15 0)
(3 1.86717e-15 0)
(3 1.9972e-15 0)
(3 1.34606e-15 0)
(3 1.36229e-15 0)
(3 1.663e-15 0)
(3 2.08878e-15 0)
(3 1.66228e-15 0)
(3 1.48456e-15 0)
(3 1.46121e-15 0)
(3 -1.86761e-17 0)
(3 -1.63277e-15 0)
(3 -1.58645e-15 0)
(3 -1.09697e-15 0)
(3 -8.90583e-16 0)
(3 -8.05786e-16 0)
(3 -1.42062e-15 0)
(3 -2.10631e-15 0)
(3 -1.68333e-15 0)
(3 -9.03061e-16 0)
(3 1.57855e-15 0)
(3 1.67412e-15 0)
(3 8.95198e-16 0)
(3 9.17382e-16 0)
(3 4.13732e-16 0)
(3 -7.37946e-16 0)
(3 -1.51281e-15 0)
(3 4.23051e-16 0)
(3 1.23261e-15 0)
(3 6.07876e-16 0)
(3 1.69039e-17 0)
(3 -3.96476e-16 0)
(3 -1.03744e-15 0)
(3 -2.02638e-15 0)
(3 -1.55971e-15 0)
(3 3.8729e-16 0)
(3 1.58063e-15 0)
(3 1.54062e-15 0)
(3 1.30483e-15 0)
(3 6.48195e-16 0)
(3 -1.20092e-16 0)
(3 -4.06049e-17 0)
(3 1.57032e-15 0)
(3 1.29352e-15 0)
(3 1.14571e-16 0)
(3 4.62742e-17 0)
(3 -2.75421e-16 0)
(3 -4.11744e-17 0)
(3 1.35053e-16 0)
(3 3.20625e-16 0)
(3 8.64287e-16 0)
(3 1.01117e-15 0)
(3 7.9224e-16 0)
(3 6.88403e-16 0)
(3 7.16513e-16 0)
(3 2.02585e-16 0)
(3 -3.80626e-16 0)
(3 -6.52297e-16 0)
(3 -4.75887e-16 0)
(3 5.64889e-16 0)
(3 2.19708e-16 0)
(3 1.09876e-16 0)
(3 7.83463e-16 0)
(3 1.71587e-15 0)
(3 1.94926e-15 0)
(3 1.73462e-15 0)
(3 9.54671e-16 0)
(3 -1.95309e-16 0)
(3 -6.63268e-16 0)
(3 -3.5802e-16 0)
(3 -7.35333e-17 0)
(3 8.40108e-17 0)
(3 -1.7162e-16 0)
(3 -6.60497e-16 0)
(3 -3.5242e-16 0)
(3 2.86153e-16 0)
(3 9.5422e-18 0)
(3 -9.84994e-16 0)
(3 -1.46826e-15 0)
(3 -1.7835e-15 0)
(3 -1.3792e-15 0)
(3 -2.554e-16 0)
(3 5.85344e-17 0)
(3 1.71332e-17 0)
(3 -3.15961e-17 0)
(3 -5.55913e-16 0)
(3 -1.91494e-16 0)
(3 1.89445e-16 0)
(3 -5.12229e-17 0)
(3 -3.87664e-16 0)
(3 -1.04455e-15 0)
(3 -1.49145e-15 0)
(3 -9.12475e-16 0)
(3 7.30809e-16 0)
(3 2.31639e-16 0)
(3 -1.58283e-16 0)
(3 -4.66844e-16 0)
(3 1.0464e-15 0)
(3 2.09237e-15 0)
(3 1.76592e-15 0)
(3 1.15618e-15 0)
(3 1.62867e-15 0)
(3 1.92964e-15 0)
(3 3.45077e-15 0)
(3 4.66519e-15 0)
(3 4.46219e-15 0)
(3 2.35498e-15 0)
(3 1.68704e-15 0)
(3 1.22555e-15 0)
(3 6.82476e-16 0)
(3 -2.12013e-16 0)
(3 -9.04914e-16 0)
(3 -1.85204e-15 0)
(3 -2.61848e-15 0)
(3 -2.4178e-15 0)
(3 -1.22449e-15 0)
(3 9.93243e-16 0)
(3 2.33099e-15 0)
(3 2.62971e-15 0)
(3 1.94253e-15 0)
(3 1.11234e-15 0)
(3 -1.54817e-16 0)
(3 -7.86199e-16 0)
(3 -2.89686e-16 0)
(3 6.91564e-16 0)
(3 6.79107e-16 0)
(3 -4.61787e-16 0)
(3 -1.5042e-15 0)
(3 -1.21597e-15 0)
(3 7.71137e-16 0)
(3 2.25875e-15 0)
(3 2.44078e-15 0)
(3 2.53642e-15 0)
(3 1.79e-15 0)
(3 1.75777e-15 0)
(3 1.35224e-15 0)
(3 2.86967e-16 0)
(3 1.64329e-16 0)
(3 -1.16051e-16 0)
(3 7.36057e-16 0)
(3 -2.36109e-18 0)
(3 -1.24681e-17 0)
(3 -6.98846e-17 0)
(3 -9.48208e-17 0)
(3 -2.73848e-16 0)
(3 -7.83489e-16 0)
(3 -6.25098e-16 0)
(3 1.81088e-16 0)
(3 -3.30653e-17 0)
(3 4.18188e-16 0)
(3 8.25926e-16 0)
(3 8.79865e-16 0)
(3 8.44751e-16 0)
(3 5.62043e-16 0)
(3 2.15052e-16 0)
(3 -3.50746e-17 0)
(3 1.0296e-16 0)
(3 -1.32027e-17 0)
(3 -5.9518e-17 0)
(3 -2.60311e-17 0)
(3 -2.98943e-16 0)
(3 -8.68187e-16 0)
(3 -1.40814e-15 0)
(3 -1.00897e-15 0)
(3 -5.51769e-16 0)
(3 -4.12322e-16 0)
(3 -3.68509e-16 0)
(3 -8.51815e-16 0)
(3 -4.15748e-16 0)
(3 5.91974e-17 0)
(3 1.62825e-16 0)
(3 1.78926e-16 0)
(3 1.10704e-15 0)
(3 1.64486e-15 0)
(3 7.91692e-16 0)
(3 -5.42762e-16 0)
(3 -4.24427e-16 0)
(3 -3.45665e-16 0)
(3 -3.85359e-16 0)
(3 -4.74979e-16 0)
(3 -4.68919e-16 0)
(3 -1.99269e-17 0)
(3 -8.46128e-16 0)
(3 -1.92516e-15 0)
(3 -2.3184e-15 0)
(3 -1.71475e-15 0)
(3 -1.52657e-15 0)
(3 -1.3642e-15 0)
(3 1.2413e-16 0)
(3 4.87606e-16 0)
(3 6.50584e-16 0)
(3 9.53741e-16 0)
(3 6.9213e-16 0)
(3 3.01242e-16 0)
(3 1.01824e-15 0)
(3 1.38564e-15 0)
(3 1.14983e-15 0)
(3 1.01443e-15 0)
(3 1.45323e-15 0)
(3 2.41779e-15 0)
(3 4.4791e-15 0)
(3 3.95319e-15 0)
(3 3.21959e-15 0)
(3 2.88638e-15 0)
(3 2.11218e-15 0)
(3 1.53062e-15 0)
(3 9.76566e-16 0)
(3 1.11621e-16 0)
(3 -3.40063e-16 0)
(3 -1.26948e-16 0)
(3 -1.51337e-15 0)
(3 -1.87752e-15 0)
(3 -2.53943e-15 0)
(3 -2.60876e-16 0)
(3 9.67729e-16 0)
(3 3.18082e-16 0)
(3 -6.10065e-16 0)
(3 -6.00282e-16 0)
(3 -1.06573e-15 0)
(3 -1.28265e-15 0)
(3 4.21677e-16 0)
(3 4.72019e-16 0)
(3 -1.71237e-16 0)
(3 -1.01753e-15 0)
(3 -1.7088e-15 0)
(3 6.4586e-16 0)
(3 1.34608e-15 0)
(3 1.6261e-15 0)
(3 1.73518e-15 0)
(3 1.39589e-15 0)
(3 1.01095e-15 0)
(3 8.63589e-16 0)
(3 -3.68819e-16 0)
(3 2.88412e-17 0)
(3 -1.07384e-15 0)
(3 -1.75193e-15 0)
(3 -1.36946e-16 0)
(3 -1.45975e-16 0)
(3 -7.32514e-17 0)
(3 -8.13967e-17 0)
(3 -4.65792e-16 0)
(3 -5.07912e-16 0)
(3 -8.41077e-16 0)
(3 -6.28263e-16 0)
(3 -1.31151e-16 0)
(3 4.8476e-16 0)
(3 5.24278e-17 0)
(3 -2.24314e-17 0)
(3 2.68023e-16 0)
(3 4.03613e-16 0)
(3 2.43346e-16 0)
(3 -7.99305e-16 0)
(3 -1.19742e-15 0)
(3 -1.0072e-15 0)
(3 -8.97235e-16 0)
(3 -1.6046e-15 0)
(3 -8.37622e-16 0)
(3 -1.10012e-15 0)
(3 3.13766e-17 0)
(3 1.41831e-15 0)
(3 1.5152e-15 0)
(3 9.19966e-16 0)
(3 -9.18118e-16 0)
(3 -2.75256e-15 0)
(3 -2.56544e-15 0)
(3 -1.66462e-15 0)
(3 -8.98597e-16 0)
(3 -8.87143e-16 0)
(3 -2.62185e-16 0)
(3 4.11025e-16 0)
(3 1.06785e-15 0)
(3 -4.06962e-16 0)
(3 -7.6122e-16 0)
(3 -8.12561e-16 0)
(3 -7.42018e-16 0)
(3 -7.9297e-16 0)
(3 -5.33486e-16 0)
(3 1.09973e-17 0)
(3 -2.19286e-16 0)
(3 -8.35219e-16 0)
(3 -1.04917e-15 0)
(3 -8.54728e-16 0)
(3 -7.5794e-17 0)
(3 1.18043e-15 0)
(3 1.02623e-15 0)
(3 3.58097e-16 0)
(3 6.58132e-16 0)
(3 1.32952e-15 0)
(3 1.38775e-15 0)
(3 4.91259e-16 0)
(3 2.62062e-16 0)
(3 1.54027e-15 0)
(3 2.11338e-15 0)
(3 2.06611e-15 0)
(3 1.83932e-15 0)
(3 1.96465e-15 0)
(3 2.08678e-15 0)
(3 1.07587e-15 0)
(3 7.64614e-16 0)
(3 1.4722e-16 0)
(3 -8.47152e-16 0)
(3 -1.79071e-15 0)
(3 -2.19985e-15 0)
(3 -2.20475e-15 0)
(3 -1.96618e-15 0)
(3 -1.38952e-15 0)
(3 -1.71152e-15 0)
(3 -2.35794e-15 0)
(3 -3.86385e-15 0)
(3 -3.48424e-15 0)
(3 -2.37854e-15 0)
(3 -1.15066e-15 0)
(3 -8.03079e-16 0)
(3 -9.77914e-16 0)
(3 -1.04056e-15 0)
(3 -5.09923e-16 0)
(3 -6.51273e-16 0)
(3 -6.5516e-16 0)
(3 -7.27672e-16 0)
(3 -4.18831e-16 0)
(3 -3.90173e-16 0)
(3 2.677e-16 0)
(3 7.8484e-16 0)
(3 1.49172e-15 0)
(3 1.18201e-15 0)
(3 1.95742e-15 0)
(3 1.76093e-15 0)
(3 1.74524e-15 0)
(3 2.76534e-15 0)
(3 2.67874e-15 0)
(3 1.66176e-15 0)
(3 -2.60377e-16 0)
(3 -5.0811e-17 0)
(3 -2.07755e-16 0)
(3 -1.35084e-16 0)
(3 7.97503e-17 0)
(3 -3.33391e-16 0)
(3 -4.16511e-16 0)
(3 -1.1743e-15 0)
(3 -1.3989e-15 0)
(3 -1.37092e-16 0)
(3 5.10371e-17 0)
(3 -5.41135e-16 0)
(3 -6.48252e-16 0)
(3 -6.00264e-16 0)
(3 9.43491e-17 0)
(3 1.14409e-16 0)
(3 -4.4478e-16 0)
(3 -8.68415e-16 0)
(3 -2.22138e-16 0)
(3 -1.80699e-16 0)
(3 1.66321e-16 0)
(3 2.50219e-16 0)
(3 5.52243e-16 0)
(3 4.77024e-16 0)
(3 5.21122e-16 0)
(3 3.77781e-17 0)
(3 -9.09079e-16 0)
(3 -1.86934e-15 0)
(3 -2.21529e-15 0)
(3 -2.9097e-15 0)
(3 -2.71967e-15 0)
(3 -1.63025e-15 0)
(3 -9.24392e-16 0)
(3 -8.57904e-16 0)
(3 -7.67815e-16 0)
(3 -9.0221e-16 0)
(3 -1.2402e-15 0)
(3 -1.52464e-15 0)
(3 -1.15917e-15 0)
(3 -1.13111e-15 0)
(3 -1.28582e-15 0)
(3 -1.27843e-15 0)
(3 -8.24548e-16 0)
(3 -8.90484e-16 0)
(3 -1.65338e-15 0)
(3 -1.8873e-15 0)
(3 -1.67324e-15 0)
(3 -9.32524e-16 0)
(3 -3.8022e-16 0)
(3 3.22464e-16 0)
(3 8.31941e-16 0)
(3 2.4202e-15 0)
(3 2.7923e-15 0)
(3 2.133e-15 0)
(3 1.80966e-15 0)
(3 2.04471e-15 0)
(3 1.47527e-15 0)
(3 1.39624e-15 0)
(3 1.91904e-15 0)
(3 1.59565e-15 0)
(3 5.3896e-16 0)
(3 -5.6681e-16 0)
(3 -2.63319e-16 0)
(3 -3.30779e-17 0)
(3 -7.24551e-16 0)
(3 -2.42907e-15 0)
(3 -2.92722e-15 0)
(3 -3.01559e-15 0)
(3 -3.3481e-15 0)
(3 -2.9357e-15 0)
(3 -1.92238e-15 0)
(3 -1.61222e-15 0)
(3 -1.9777e-15 0)
(3 -2.23298e-15 0)
(3 -2.3163e-15 0)
(3 -1.97158e-15 0)
(3 -7.8268e-16 0)
(3 2.5011e-16 0)
(3 1.46932e-16 0)
(3 4.69157e-18 0)
(3 -1.72674e-17 0)
(3 -7.54892e-16 0)
(3 -7.26575e-16 0)
(3 -5.21078e-16 0)
(3 -2.08766e-18 0)
(3 5.67528e-16 0)
(3 1.5375e-15 0)
(3 1.98997e-15 0)
(3 1.13976e-15 0)
(3 6.31601e-16 0)
(3 7.24308e-16 0)
(3 7.9493e-16 0)
(3 4.00035e-16 0)
(3 1.49803e-15 0)
(3 6.984e-16 0)
(3 5.26221e-17 0)
(3 -1.20327e-16 0)
(3 -1.21979e-16 0)
(3 -3.08264e-16 0)
(3 -2.74185e-16 0)
(3 -2.00375e-16 0)
(3 3.17816e-16 0)
(3 1.21829e-16 0)
(3 -2.73187e-17 0)
(3 -8.71588e-17 0)
(3 1.99889e-16 0)
(3 3.44771e-16 0)
(3 5.89502e-16 0)
(3 6.25154e-16 0)
(3 4.78935e-16 0)
(3 5.72465e-16 0)
(3 5.39676e-16 0)
(3 7.4878e-16 0)
(3 7.76963e-16 0)
(3 3.34182e-16 0)
(3 1.82071e-15 0)
(3 2.06737e-15 0)
(3 1.68189e-15 0)
(3 1.32485e-15 0)
(3 2.95237e-16 0)
(3 -1.01356e-15 0)
(3 -1.24989e-15 0)
(3 -1.5018e-15 0)
(3 -7.39695e-16 0)
(3 3.56337e-16 0)
(3 1.64947e-16 0)
(3 -1.12614e-15 0)
(3 -1.45365e-15 0)
(3 -9.35703e-16 0)
(3 -6.56675e-16 0)
(3 -7.76952e-16 0)
(3 -1.30941e-15 0)
(3 -1.74507e-15 0)
(3 -1.96978e-15 0)
(3 -2.15015e-15 0)
(3 -2.2737e-15 0)
(3 -1.77133e-15 0)
(3 -1.26862e-15 0)
(3 -1.08395e-15 0)
(3 -7.76699e-16 0)
(3 -5.96794e-16 0)
(3 4.00222e-16 0)
(3 3.91934e-16 0)
(3 4.93872e-16 0)
(3 -1.17479e-16 0)
(3 2.83769e-16 0)
(3 3.17344e-16 0)
(3 6.68659e-16 0)
(3 8.20368e-16 0)
(3 1.38307e-15 0)
(3 1.53423e-15 0)
(3 1.64832e-15 0)
(3 7.57112e-16 0)
(3 1.33846e-16 0)
(3 -1.53245e-16 0)
(3 -1.27435e-16 0)
(3 -1.67481e-15 0)
(3 -2.15133e-15 0)
(3 -1.55128e-15 0)
(3 -1.43988e-15 0)
(3 -1.33347e-15 0)
(3 -1.39555e-15 0)
(3 -1.27933e-15 0)
(3 -8.73168e-16 0)
(3 -1.16824e-15 0)
(3 -1.3132e-15 0)
(3 -1.11591e-15 0)
(3 -1.1976e-15 0)
(3 -1.51015e-15 0)
(3 -8.72559e-16 0)
(3 -1.32131e-16 0)
(3 -1.14913e-15 0)
(3 -1.13215e-15 0)
(3 -6.50407e-16 0)
(3 -7.25526e-16 0)
(3 -1.15212e-15 0)
(3 -1.6862e-15 0)
(3 -1.83759e-15 0)
(3 -1.56602e-15 0)
(3 -8.77223e-16 0)
(3 -4.13652e-16 0)
(3 2.3547e-16 0)
(3 5.22854e-16 0)
(3 7.78599e-17 0)
(3 -9.88902e-16 0)
(3 -6.76304e-16 0)
(3 8.91573e-16 0)
(3 9.79376e-16 0)
(3 1.25833e-15 0)
(3 8.71998e-16 0)
(3 -2.03193e-16 0)
(3 -5.54176e-16 0)
(3 -4.01677e-16 0)
(3 -2.37602e-17 0)
(3 2.01378e-16 0)
(3 3.14953e-16 0)
(3 4.18475e-17 0)
(3 1.64407e-16 0)
(3 4.43282e-16 0)
(3 1.00355e-15 0)
(3 1.16758e-15 0)
(3 9.12667e-16 0)
(3 7.52545e-16 0)
(3 1.81887e-15 0)
(3 1.65222e-15 0)
(3 1.53177e-15 0)
(3 4.19771e-16 0)
(3 3.83062e-16 0)
(3 2.67002e-16 0)
(3 9.90617e-16 0)
(3 1.57552e-15 0)
(3 1.28151e-15 0)
(3 6.39376e-16 0)
(3 1.14037e-15 0)
(3 1.04889e-15 0)
(3 5.34078e-16 0)
(3 -3.04374e-16 0)
(3 -2.63603e-16 0)
(3 -9.27993e-16 0)
(3 -7.47155e-16 0)
(3 1.59218e-16 0)
(3 3.38705e-16 0)
(3 1.0084e-15 0)
(3 8.82857e-16 0)
(3 1.2051e-15 0)
(3 7.79364e-16 0)
(3 4.71988e-16 0)
(3 3.73699e-16 0)
(3 -1.37508e-15 0)
(3 -1.97474e-15 0)
(3 -2.08696e-15 0)
(3 -1.08878e-15 0)
(3 -7.38755e-16 0)
(3 -3.82116e-16 0)
(3 -2.62044e-16 0)
(3 -6.3903e-17 0)
(3 9.66722e-16 0)
(3 1.77028e-15 0)
(3 1.91571e-15 0)
(3 1.11184e-15 0)
(3 1.37725e-15 0)
(3 2.13879e-15 0)
(3 1.45699e-15 0)
(3 2.7547e-16 0)
(3 8.96532e-17 0)
(3 4.65068e-16 0)