/*--------------------------------*- C++ -*----------------------------------*\
  =========                 |
  \\      /  F ield         | OpenFOAM: The Open Source CFD Toolbox
   \\    /   O peration     | Website:  https://openfoam.org
    \\  /    A nd           | Version:  7
     \\/     M anipulation  |
\*---------------------------------------------------------------------------*/
FoamFile
{
    version     2.0;
    format      ascii;
    class       volVectorField;
    location    "1.7";
    object      U;
}
// * * * * * * * * * * * * * * * * * * * * * * * * * * * * * * * * * * * * * //

dimensions      [0 1 -1 0 0 0 0];

internalField   nonuniform List<vector> 
73728
(
(3 -3.59984e-17 0)
(3 2.55161e-16 0)
(3 3.53646e-16 0)
(3 1.24303e-16 0)
(3 3.2663e-16 0)
(3 2.07293e-16 0)
(3 2.54772e-16 0)
(3 3.81231e-16 0)
(3 8.39179e-16 0)
(3 1.19732e-15 0)
(3 1.08429e-15 0)
(3 5.65294e-16 0)
(3 2.84077e-17 0)
(3 -1.05827e-16 0)
(3 -5.94004e-16 0)
(3 -5.40712e-16 0)
(3 -3.48143e-16 0)
(3 -6.2578e-16 0)
(3 -7.59545e-16 0)
(3 -1.04839e-15 0)
(3 -3.66353e-16 0)
(3 8.06776e-18 0)
(3 -4.06417e-16 0)
(3 -9.76589e-16 0)
(3 -1.60947e-15 0)
(3 -1.89341e-15 0)
(3 -1.72104e-15 0)
(3 -1.32704e-15 0)
(3 -2.54152e-15 0)
(3 -2.5405e-15 0)
(3 -1.06789e-15 0)
(3 -2.08982e-16 0)
(3 -1.31668e-16 0)
(3 -7.58624e-17 0)
(3 1.62574e-17 0)
(3 -9.10986e-17 0)
(3 -3.05385e-16 0)
(3 -1.06017e-15 0)
(3 -1.30207e-15 0)
(3 -1.09082e-15 0)
(3 -7.44121e-16 0)
(3 -5.36219e-16 0)
(3 -4.43605e-18 0)
(3 1.56227e-15 0)
(3 1.40565e-15 0)
(3 1.21174e-15 0)
(3 1.25568e-15 0)
(3 1.0373e-15 0)
(3 9.92595e-16 0)
(3 8.8575e-16 0)
(3 9.26752e-16 0)
(3 4.24569e-16 0)
(3 -2.30125e-16 0)
(3 -1.57663e-15 0)
(3 -1.79399e-15 0)
(3 -5.05641e-17 0)
(3 5.02513e-16 0)
(3 3.606e-16 0)
(3 1.32217e-16 0)
(3 3.09259e-16 0)
(3 2.89855e-16 0)
(3 -1.07194e-15 0)
(3 -2.3898e-15 0)
(3 -2.55031e-15 0)
(3 -1.50002e-15 0)
(3 -3.96439e-16 0)
(3 -3.4054e-16 0)
(3 6.8491e-18 0)
(3 -4.79903e-16 0)
(3 -7.58628e-16 0)
(3 -6.40499e-16 0)
(3 -5.08365e-16 0)
(3 -3.83109e-17 0)
(3 -3.84349e-16 0)
(3 -3.13473e-16 0)
(3 -2.38229e-16 0)
(3 -6.24252e-16 0)
(3 -1.6176e-16 0)
(3 -1.25634e-16 0)
(3 -1.06127e-15 0)
(3 -1.41473e-15 0)
(3 -1.93368e-15 0)
(3 -2.10283e-15 0)
(3 -2.17708e-15 0)
(3 -2.09339e-15 0)
(3 -1.34882e-15 0)
(3 -1.34737e-15 0)
(3 -4.64711e-16 0)
(3 3.3131e-16 0)
(3 2.19548e-15 0)
(3 3.75718e-15 0)
(3 2.20818e-15 0)
(3 1.86271e-15 0)
(3 1.22013e-15 0)
(3 5.94412e-16 0)
(3 -4.35826e-16 0)
(3 -1.08428e-16 0)
(3 1.88222e-16 0)
(3 1.67481e-16 0)
(3 2.95571e-17 0)
(3 2.58245e-16 0)
(3 3.0749e-16 0)
(3 7.82917e-16 0)
(3 1.06674e-15 0)
(3 1.44643e-15 0)
(3 1.83173e-15 0)
(3 1.41226e-15 0)
(3 1.60465e-16 0)
(3 -4.61553e-16 0)
(3 -8.58635e-16 0)
(3 -1.16018e-15 0)
(3 -9.85055e-16 0)
(3 -9.99684e-16 0)
(3 -9.1743e-16 0)
(3 -1.94134e-15 0)
(3 -2.99577e-15 0)
(3 -1.97796e-15 0)
(3 -1.40304e-15 0)
(3 -1.70329e-15 0)
(3 -1.9091e-15 0)
(3 -1.86089e-15 0)
(3 -6.12511e-16 0)
(3 1.04418e-15 0)
(3 1.37861e-15 0)
(3 -1.69363e-16 0)
(3 -1.5735e-15 0)
(3 1.53208e-15 0)
(3 3.276e-15 0)
(3 2.45277e-15 0)
(3 1.4525e-15 0)
(3 5.32857e-16 0)
(3 -6.39572e-16 0)
(3 -2.76433e-15 0)
(3 -3.49648e-15 0)
(3 -3.75429e-15 0)
(3 -1.51966e-15 0)
(3 -6.6104e-16 0)
(3 -9.02397e-16 0)
(3 -7.62743e-16 0)
(3 1.52933e-16 0)
(3 1.39275e-16 0)
(3 7.13305e-16 0)
(3 2.05e-15 0)
(3 2.12631e-15 0)
(3 2.16885e-15 0)
(3 9.2776e-16 0)
(3 -2.93708e-16 0)
(3 -1.82765e-16 0)
(3 -1.69515e-15 0)
(3 -3.28819e-15 0)
(3 -1.96707e-15 0)
(3 -2.71285e-16 0)
(3 5.85053e-16 0)
(3 6.85417e-16 0)
(3 8.79857e-16 0)
(3 1.0029e-15 0)
(3 3.65294e-16 0)
(3 -3.2665e-15 0)
(3 -5.38604e-15 0)
(3 -6.14508e-15 0)
(3 -3.41478e-15 0)
(3 -8.40219e-16 0)
(3 -2.74715e-16 0)
(3 -8.70388e-16 0)
(3 -1.61676e-15 0)
(3 -2.24615e-15 0)
(3 -1.81507e-15 0)
(3 -1.76043e-15 0)
(3 -1.84092e-15 0)
(3 -2.47973e-15 0)
(3 -3.03052e-15 0)
(3 -2.75928e-15 0)
(3 -3.20883e-15 0)
(3 -3.12482e-15 0)
(3 -2.83332e-15 0)
(3 -1.2511e-15 0)
(3 -1.24648e-15 0)
(3 -2.27784e-15 0)
(3 -1.4251e-15 0)
(3 -4.9427e-16 0)
(3 -5.79641e-16 0)
(3 -1.59599e-16 0)
(3 -1.83685e-17 0)
(3 2.07421e-15 0)
(3 3.09289e-15 0)
(3 4.79041e-15 0)
(3 4.72828e-15 0)
(3 3.08168e-15 0)
(3 1.42443e-15 0)
(3 3.66769e-16 0)
(3 -7.021e-16 0)
(3 -1.97867e-15 0)
(3 -2.69539e-17 0)
(3 -2.4411e-16 0)
(3 -2.28435e-16 0)
(3 1.34265e-16 0)
(3 3.05488e-16 0)
(3 4.01323e-16 0)
(3 4.43709e-16 0)
(3 8.97412e-16 0)
(3 2.97643e-16 0)
(3 1.88541e-16 0)
(3 3.29984e-16 0)
(3 1.07261e-16 0)
(3 -5.99495e-16 0)
(3 -1.12782e-15 0)
(3 -1.26399e-15 0)
(3 -1.83307e-15 0)
(3 -2.30793e-15 0)
(3 -1.30957e-15 0)
(3 -1.23183e-15 0)
(3 -2.51086e-15 0)
(3 -3.04235e-15 0)
(3 -2.80007e-15 0)
(3 -2.98508e-15 0)
(3 -3.08734e-15 0)
(3 -1.82106e-15 0)
(3 -1.34304e-15 0)
(3 -1.67267e-15 0)
(3 -2.41255e-15 0)
(3 -2.08597e-15 0)
(3 -1.77493e-15 0)
(3 -6.28879e-16 0)
(3 -7.92198e-17 0)
(3 6.74317e-16 0)
(3 4.98901e-16 0)
(3 -3.12334e-16 0)
(3 -4.22752e-15 0)
(3 -5.59439e-15 0)
(3 -6.69606e-15 0)
(3 -5.45474e-15 0)
(3 -2.76104e-15 0)
(3 -1.64103e-15 0)
(3 -1.04759e-15 0)
(3 9.39637e-16 0)
(3 1.30971e-15 0)
(3 2.17049e-15 0)
(3 2.3737e-15 0)
(3 1.89791e-15 0)
(3 1.20089e-15 0)
(3 9.05237e-16 0)
(3 -1.03994e-15 0)
(3 -2.57217e-15 0)
(3 -4.29339e-15 0)
(3 -4.20542e-15 0)
(3 -2.63606e-15 0)
(3 7.04918e-16 0)
(3 1.63815e-15 0)
(3 1.4342e-15 0)
(3 1.32228e-15 0)
(3 1.31573e-15 0)
(3 1.39666e-15 0)
(3 1.62697e-15 0)
(3 -1.18177e-15 0)
(3 -3.36471e-15 0)
(3 -4.86249e-15 0)
(3 -4.0606e-15 0)
(3 -1.54117e-15 0)
(3 -6.26297e-16 0)
(3 -4.13171e-16 0)
(3 -8.11857e-16 0)
(3 -2.46015e-15 0)
(3 -4.08726e-15 0)
(3 -4.20492e-15 0)
(3 -5.51565e-15 0)
(3 -4.38265e-15 0)
(3 -4.30482e-15 0)
(3 -4.24932e-15 0)
(3 -4.76932e-15 0)
(3 -5.21315e-15 0)
(3 -5.5424e-15 0)
(3 -3.98724e-15 0)
(3 -2.97038e-15 0)
(3 -2.74262e-15 0)
(3 -3.17092e-15 0)
(3 -2.91299e-15 0)
(3 -2.13956e-15 0)
(3 -1.73473e-16 0)
(3 1.43957e-15 0)
(3 2.70108e-15 0)
(3 3.35354e-15 0)
(3 3.75483e-15 0)
(3 3.73352e-15 0)
(3 3.65688e-15 0)
(3 2.23792e-15 0)
(3 -5.24806e-16 0)
(3 -1.547e-15 0)
(3 -2.94351e-15 0)
(3 1.15379e-16 0)
(3 -3.98843e-16 0)
(3 -1.17281e-16 0)
(3 4.67278e-17 0)
(3 2.48415e-16 0)
(3 5.76955e-16 0)
(3 2.89062e-16 0)
(3 1.57899e-16 0)
(3 9.22685e-18 0)
(3 2.13307e-16 0)
(3 6.08187e-16 0)
(3 8.27716e-16 0)
(3 8.42047e-16 0)
(3 2.09984e-16 0)
(3 1.90339e-16 0)
(3 -3.39881e-16 0)
(3 -3.53029e-16 0)
(3 -4.00096e-16 0)
(3 -4.32507e-16 0)
(3 -1.51936e-15 0)
(3 -1.74121e-15 0)
(3 -2.00674e-15 0)
(3 -1.78208e-15 0)
(3 -1.83253e-15 0)
(3 -3.00329e-15 0)
(3 -2.27638e-15 0)
(3 -2.18702e-15 0)
(3 -2.84089e-15 0)
(3 -3.31958e-15 0)
(3 -1.85152e-15 0)
(3 -9.51693e-16 0)
(3 -1.4034e-15 0)
(3 -2.26084e-15 0)
(3 -3.60308e-15 0)
(3 -4.19533e-15 0)
(3 -3.7767e-15 0)
(3 -3.76509e-15 0)
(3 -3.87045e-15 0)
(3 -3.51681e-15 0)
(3 -3.60376e-15 0)
(3 -2.91493e-15 0)
(3 -1.72434e-15 0)
(3 -1.29919e-16 0)
(3 1.25366e-15 0)
(3 1.82893e-15 0)
(3 1.36081e-15 0)
(3 6.36628e-16 0)
(3 -6.38346e-16 0)
(3 -2.96104e-15 0)
(3 -3.97404e-15 0)
(3 -5.09018e-15 0)
(3 -5.06278e-15 0)
(3 -3.26858e-15 0)
(3 -1.70855e-15 0)
(3 -5.84893e-16 0)
(3 5.90379e-16 0)
(3 1.10494e-15 0)
(3 1.24536e-15 0)
(3 6.31909e-16 0)
(3 2.49317e-16 0)
(3 4.22647e-16 0)
(3 -2.93689e-16 0)
(3 -2.93105e-15 0)
(3 -3.34762e-15 0)
(3 -2.52637e-15 0)
(3 -1.6643e-15 0)
(3 -1.25157e-15 0)
(3 -7.98761e-16 0)
(3 -1.48541e-15 0)
(3 -3.79511e-15 0)
(3 -4.24225e-15 0)
(3 -3.47782e-15 0)
(3 -2.73272e-15 0)
(3 -6.77505e-16 0)
(3 1.74347e-16 0)
(3 -2.12243e-15 0)
(3 -4.37408e-15 0)
(3 -5.45739e-15 0)
(3 -4.28509e-15 0)
(3 -3.94692e-15 0)
(3 -3.37255e-15 0)
(3 -2.89963e-15 0)
(3 -3.29975e-15 0)
(3 -3.58949e-15 0)
(3 -3.43167e-15 0)
(3 -1.62033e-15 0)
(3 -2.19497e-16 0)
(3 1.46362e-17 0)
(3 3.2139e-16 0)
(3 2.07708e-15 0)
(3 3.60751e-15 0)
(3 3.93279e-15 0)
(3 3.06174e-15 0)
(3 1.23951e-15 0)
(3 -9.99271e-16 0)
(3 -1.74014e-15 0)
(3 -5.64187e-17 0)
(3 -1.09143e-17 0)
(3 8.93816e-17 0)
(3 2.18752e-16 0)
(3 2.97509e-16 0)
(3 1.85503e-16 0)
(3 2.53101e-16 0)
(3 1.00183e-15 0)
(3 8.76582e-16 0)
(3 3.86573e-16 0)
(3 -3.33999e-16 0)
(3 -5.41416e-16 0)
(3 -7.19131e-16 0)
(3 -5.13187e-16 0)
(3 4.51185e-17 0)
(3 -1.72669e-17 0)
(3 7.49354e-17 0)
(3 -1.96453e-16 0)
(3 -6.35933e-16 0)
(3 -1.32208e-15 0)
(3 -1.56944e-15 0)
(3 -1.21041e-15 0)
(3 -9.75579e-16 0)
(3 -5.15606e-16 0)
(3 -1.23642e-15 0)
(3 -1.4034e-15 0)
(3 -1.75682e-15 0)
(3 -1.54517e-15 0)
(3 -1.28023e-15 0)
(3 -1.90193e-15 0)
(3 -2.37817e-15 0)
(3 -3.63297e-15 0)
(3 -5.87546e-15 0)
(3 -6.97202e-15 0)
(3 -6.82575e-15 0)
(3 -5.78032e-15 0)
(3 -4.55948e-15 0)
(3 -3.15611e-15 0)
(3 -2.76876e-15 0)
(3 -2.92885e-15 0)
(3 -3.58703e-15 0)
(3 -3.05118e-15 0)
(3 -2.31265e-15 0)
(3 -2.50654e-17 0)
(3 4.12497e-16 0)
(3 6.74588e-16 0)
(3 6.35817e-16 0)
(3 -1.25805e-15 0)
(3 -4.25666e-15 0)
(3 -4.25303e-15 0)
(3 -3.90823e-15 0)
(3 -3.04559e-15 0)
(3 -2.0445e-15 0)
(3 -2.02658e-15 0)
(3 -1.52833e-15 0)
(3 -7.67074e-16 0)
(3 2.11537e-16 0)
(3 5.77198e-16 0)
(3 2.2796e-16 0)
(3 -1.22887e-16 0)
(3 -7.57302e-16 0)
(3 -1.88398e-15 0)
(3 -2.79942e-15 0)
(3 -2.91139e-15 0)
(3 -6.05547e-16 0)
(3 1.03049e-15 0)
(3 1.25598e-15 0)
(3 -9.00602e-16 0)
(3 -2.89494e-15 0)
(3 -3.47315e-15 0)
(3 -3.25743e-15 0)
(3 -1.93835e-15 0)
(3 -1.16621e-15 0)
(3 6.5515e-16 0)
(3 1.18613e-15 0)
(3 -8.2609e-16 0)
(3 -2.26359e-15 0)
(3 -2.8e-15 0)
(3 -3.13268e-15 0)
(3 -3.42512e-15 0)
(3 -3.43887e-15 0)
(3 -2.47067e-15 0)
(3 -2.39835e-15 0)
(3 -2.01874e-15 0)
(3 -1.14785e-15 0)
(3 -1.37902e-16 0)
(3 -3.61252e-16 0)
(3 -6.09482e-16 0)
(3 -1.51811e-16 0)
(3 1.11031e-15 0)
(3 2.72146e-15 0)
(3 3.35219e-15 0)
(3 3.13957e-15 0)
(3 2.78997e-15 0)
(3 -5.13832e-16 0)
(3 -2.40462e-15 0)
(3 -4.3484e-17 0)
(3 7.84293e-17 0)
(3 -7.78466e-17 0)
(3 2.30755e-16 0)
(3 3.56252e-16 0)
(3 3.08301e-16 0)
(3 4.79412e-16 0)
(3 1.08228e-15 0)
(3 6.77466e-16 0)
(3 1.3306e-16 0)
(3 -1.31465e-15 0)
(3 -2.29062e-15 0)
(3 -2.08486e-15 0)
(3 -1.57607e-15 0)
(3 -1.39667e-15 0)
(3 -1.31142e-15 0)
(3 -1.46923e-15 0)
(3 -1.46133e-15 0)
(3 -3.75097e-16 0)
(3 -6.84747e-16 0)
(3 -2.05032e-15 0)
(3 -1.69137e-15 0)
(3 -1.26664e-15 0)
(3 -1.70515e-15 0)
(3 -2.31936e-15 0)
(3 -2.4419e-15 0)
(3 -2.07101e-15 0)
(3 -1.68883e-15 0)
(3 -2.6001e-16 0)
(3 -1.2865e-15 0)
(3 -2.42028e-15 0)
(3 -3.32181e-15 0)
(3 -5.87263e-15 0)
(3 -6.16584e-15 0)
(3 -5.68325e-15 0)
(3 -4.67157e-15 0)
(3 -3.78608e-15 0)
(3 -3.30654e-15 0)
(3 -2.7554e-15 0)
(3 -1.95895e-15 0)
(3 -2.49505e-15 0)
(3 -2.89355e-15 0)
(3 -1.41056e-15 0)
(3 -5.68956e-16 0)
(3 -2.73803e-16 0)
(3 1.75188e-16 0)
(3 3.28273e-16 0)
(3 -7.25485e-16 0)
(3 -2.88969e-15 0)
(3 -2.99651e-15 0)
(3 -2.53305e-15 0)
(3 -2.43646e-15 0)
(3 -1.95386e-15 0)
(3 -9.30825e-16 0)
(3 8.34145e-17 0)
(3 9.94225e-16 0)
(3 1.12302e-15 0)
(3 6.23804e-16 0)
(3 2.03239e-16 0)
(3 -4.25087e-16 0)
(3 -1.7467e-15 0)
(3 -2.1538e-15 0)
(3 -2.0314e-15 0)
(3 -1.5505e-15 0)
(3 -1.04045e-15 0)
(3 9.30021e-17 0)
(3 4.22493e-16 0)
(3 -1.33691e-15 0)
(3 -2.55192e-15 0)
(3 -2.24953e-15 0)
(3 -1.29877e-15 0)
(3 -5.60966e-18 0)
(3 1.21987e-15 0)
(3 1.65624e-15 0)
(3 1.78373e-15 0)
(3 6.00578e-16 0)
(3 3.06374e-16 0)
(3 6.52184e-16 0)
(3 -1.12492e-15 0)
(3 -1.97243e-15 0)
(3 -2.131e-15 0)
(3 -1.41088e-15 0)
(3 -6.85974e-16 0)
(3 -9.88295e-18 0)
(3 4.12112e-16 0)
(3 1.11355e-15 0)
(3 9.36809e-16 0)
(3 4.42632e-16 0)
(3 -9.205e-17 0)
(3 -9.26184e-16 0)
(3 -9.9358e-16 0)
(3 -3.51541e-17 0)
(3 7.51949e-16 0)
(3 8.49892e-16 0)
(3 -8.57952e-16 0)
(3 -2.12959e-15 0)
(3 5.64785e-17 0)
(3 -4.87644e-16 0)
(3 -1.29226e-15 0)
(3 -1.0085e-15 0)
(3 -3.4314e-16 0)
(3 3.63396e-16 0)
(3 4.35721e-16 0)
(3 -7.23866e-17 0)
(3 -2.09437e-16 0)
(3 -1.53489e-16 0)
(3 -6.49207e-16 0)
(3 4.41393e-16 0)
(3 1.58747e-15 0)
(3 1.85728e-15 0)
(3 1.06263e-15 0)
(3 3.88615e-16 0)
(3 -5.86085e-16 0)
(3 -1.36909e-15 0)
(3 -1.57599e-15 0)
(3 -6.94686e-16 0)
(3 -1.05516e-15 0)
(3 -2.74939e-15 0)
(3 -3.27049e-15 0)
(3 -2.60911e-15 0)
(3 -2.70327e-15 0)
(3 -2.53613e-15 0)
(3 4.70821e-16 0)
(3 1.62502e-15 0)
(3 -7.6047e-16 0)
(3 -1.05942e-15 0)
(3 -7.89593e-16 0)
(3 -1.92215e-15 0)
(3 -2.72686e-15 0)
(3 -2.84417e-15 0)
(3 -2.90838e-15 0)
(3 -2.9757e-15 0)
(3 -2.32514e-15 0)
(3 -8.80704e-16 0)
(3 5.85572e-16 0)
(3 5.14088e-16 0)
(3 2.50331e-16 0)
(3 -1.37666e-16 0)
(3 4.84967e-16 0)
(3 6.38372e-16 0)
(3 2.20659e-16 0)
(3 -1.48526e-15 0)
(3 -2.1554e-15 0)
(3 -2.43816e-15 0)
(3 -2.79783e-15 0)
(3 -2.86905e-15 0)
(3 -1.52075e-15 0)
(3 -1.17606e-15 0)
(3 -1.55857e-15 0)
(3 1.95477e-16 0)
(3 3.86553e-16 0)
(3 8.97355e-16 0)
(3 2.19764e-15 0)
(3 2.08521e-15 0)
(3 3.65447e-17 0)
(3 -1.16239e-15 0)
(3 -1.16764e-15 0)
(3 -1.81627e-16 0)
(3 5.75776e-16 0)
(3 -4.67641e-16 0)
(3 -1.72754e-15 0)
(3 -1.55891e-15 0)
(3 -1.55098e-15 0)
(3 -1.67816e-15 0)
(3 -1.35695e-15 0)
(3 -6.65012e-16 0)
(3 -3.19815e-18 0)
(3 1.5641e-15 0)
(3 2.77979e-15 0)
(3 3.23332e-15 0)
(3 3.28726e-15 0)
(3 2.76897e-15 0)
(3 2.13438e-15 0)
(3 2.20156e-15 0)
(3 1.59112e-15 0)
(3 8.16999e-16 0)
(3 5.53595e-16 0)
(3 2.96649e-17 0)
(3 8.73714e-17 0)
(3 1.23137e-16 0)
(3 -3.42562e-16 0)
(3 -3.23822e-16 0)
(3 -1.19073e-16 0)
(3 -1.434e-16 0)
(3 -9.88444e-16 0)
(3 -2.85854e-15 0)
(3 -3.74043e-15 0)
(3 -3.75018e-15 0)
(3 -2.67874e-15 0)
(3 -2.56154e-15 0)
(3 -2.36873e-15 0)
(3 -1.93772e-15 0)
(3 8.30219e-17 0)
(3 -1.93082e-16 0)
(3 -4.40586e-16 0)
(3 -5.44165e-16 0)
(3 -2.84664e-16 0)
(3 -2.89101e-16 0)
(3 -2.7906e-16 0)
(3 -1.5878e-16 0)
(3 -2.63057e-16 0)
(3 7.37178e-16 0)
(3 1.01212e-15 0)
(3 2.60984e-15 0)
(3 3.31376e-15 0)
(3 3.51928e-15 0)
(3 2.52771e-15 0)
(3 6.17479e-16 0)
(3 -5.17737e-16 0)
(3 -6.91874e-16 0)
(3 -7.35493e-16 0)
(3 -1.87774e-16 0)
(3 4.45757e-16 0)
(3 -5.81269e-16 0)
(3 -7.02443e-16 0)
(3 -4.20496e-16 0)
(3 -5.69361e-16 0)
(3 -1.27736e-15 0)
(3 2.94019e-17 0)
(3 1.27295e-15 0)
(3 -6.86674e-17 0)
(3 -5.82579e-16 0)
(3 -5.14095e-16 0)
(3 -6.11005e-16 0)
(3 -4.97552e-16 0)
(3 -2.11957e-16 0)
(3 5.34967e-17 0)
(3 1.3159e-17 0)
(3 8.43065e-16 0)
(3 2.23557e-15 0)
(3 2.59642e-15 0)
(3 2.81458e-15 0)
(3 3.70346e-15 0)
(3 4.10221e-15 0)
(3 3.78098e-15 0)
(3 2.2095e-15 0)
(3 1.48257e-15 0)
(3 -7.4723e-16 0)
(3 -1.78023e-15 0)
(3 -2.65313e-15 0)
(3 -3.26416e-15 0)
(3 -2.19753e-15 0)
(3 3.12629e-16 0)
(3 4.74126e-17 0)
(3 -1.50764e-15 0)
(3 -7.91569e-16 0)
(3 -6.18653e-16 0)
(3 -4.34612e-16 0)
(3 4.87071e-16 0)
(3 1.69542e-15 0)
(3 1.72718e-15 0)
(3 1.34798e-15 0)
(3 7.78999e-16 0)
(3 5.397e-16 0)
(3 1.04156e-15 0)
(3 9.60954e-16 0)
(3 -1.62206e-16 0)
(3 -2.25793e-16 0)
(3 -2.84209e-17 0)
(3 -1.9765e-16 0)
(3 1.54374e-15 0)
(3 3.17154e-15 0)
(3 2.96237e-15 0)
(3 2.5574e-15 0)
(3 4.00438e-15 0)
(3 4.40143e-15 0)
(3 3.41469e-15 0)
(3 2.44969e-15 0)
(3 2.69499e-15 0)
(3 3.93006e-15 0)
(3 2.86471e-15 0)
(3 1.23711e-15 0)
(3 -1.68362e-16 0)
(3 3.82743e-16 0)
(3 3.97348e-16 0)
(3 -6.30667e-16 0)
(3 -2.21085e-16 0)
(3 2.19631e-17 0)
(3 8.24904e-16 0)
(3 7.87468e-16 0)
(3 7.68552e-16 0)
(3 -2.09497e-17 0)
(3 -3.29616e-15 0)
(3 -5.15902e-15 0)
(3 -4.87743e-15 0)
(3 -3.70712e-15 0)
(3 -2.30439e-15 0)
(3 -1.76857e-15 0)
(3 6.5938e-17 0)
(3 6.32735e-16 0)
(3 9.47582e-16 0)
(3 6.29458e-16 0)
(3 -3.31859e-16 0)
(3 -6.22655e-16 0)
(3 -8.515e-17 0)
(3 3.31551e-17 0)
(3 4.02817e-16 0)
(3 1.03534e-15 0)
(3 6.81436e-16 0)
(3 2.20656e-16 0)
(3 1.26308e-16 0)
(3 1.743e-16 0)
(3 -9.76048e-17 0)
(3 -5.21993e-16 0)
(3 -1.02433e-15 0)
(3 -7.78775e-16 0)
(3 4.45309e-16 0)
(3 6.15145e-16 0)
(3 -8.9246e-17 0)
(3 3.7518e-16 0)
(3 1.17489e-15 0)
(3 -2.79667e-16 0)
(3 -2.10189e-15 0)
(3 -1.35359e-15 0)
(3 -1.36716e-15 0)
(3 -1.2409e-15 0)
(3 -1.63119e-15 0)
(3 -1.97008e-15 0)
(3 -1.85649e-15 0)
(3 -3.78998e-16 0)
(3 2.6824e-15 0)
(3 3.40161e-15 0)
(3 2.57931e-15 0)
(3 2.44602e-15 0)
(3 2.50988e-15 0)
(3 2.60098e-15 0)
(3 2.69381e-15 0)
(3 2.88929e-15 0)
(3 3.683e-15 0)
(3 2.85201e-15 0)
(3 -1.22021e-16 0)
(3 -8.08072e-16 0)
(3 -8.0779e-17 0)
(3 9.54403e-17 0)
(3 -1.79968e-15 0)
(3 -2.26845e-15 0)
(3 -1.62818e-15 0)
(3 -1.54351e-15 0)
(3 -6.27869e-16 0)
(3 3.22007e-16 0)
(3 9.92267e-16 0)
(3 1.77226e-16 0)
(3 -4.23278e-18 0)
(3 -9.89826e-16 0)
(3 -1.92308e-15 0)
(3 -1.67732e-15 0)
(3 -2.86818e-17 0)
(3 1.26094e-15 0)
(3 1.6501e-15 0)
(3 1.50884e-15 0)
(3 1.32123e-15 0)
(3 2.3627e-15 0)
(3 2.45777e-15 0)
(3 2.10642e-15 0)
(3 2.75056e-15 0)
(3 3.46519e-15 0)
(3 4.14143e-15 0)
(3 4.36339e-15 0)
(3 4.29101e-15 0)
(3 3.77464e-15 0)
(3 3.70069e-15 0)
(3 3.17819e-15 0)
(3 2.66352e-15 0)
(3 2.92392e-15 0)
(3 3.90208e-15 0)
(3 4.65578e-15 0)
(3 4.12125e-15 0)
(3 2.65153e-15 0)
(3 1.46949e-15 0)
(3 4.10364e-16 0)
(3 -4.78119e-17 0)
(3 -3.95046e-16 0)
(3 -2.52637e-16 0)
(3 4.81447e-16 0)
(3 7.40914e-16 0)
(3 5.58054e-16 0)
(3 9.07687e-16 0)
(3 6.06383e-16 0)
(3 -9.44135e-16 0)
(3 -1.87676e-15 0)
(3 -1.5021e-15 0)
(3 -7.96733e-16 0)
(3 3.01231e-16 0)
(3 4.28123e-16 0)
(3 -2.30326e-16 0)
(3 -2.40612e-16 0)
(3 3.48775e-16 0)
(3 5.614e-16 0)
(3 1.99766e-16 0)
(3 -5.41776e-16 0)
(3 -2.76206e-16 0)
(3 -4.93315e-16 0)
(3 -5.03899e-16 0)
(3 -3.33743e-16 0)
(3 -1.87662e-16 0)
(3 -5.23292e-16 0)
(3 -9.60063e-16 0)
(3 -1.52994e-15 0)
(3 -1.55205e-15 0)
(3 -1.28869e-15 0)
(3 -1.07035e-15 0)
(3 -1.41467e-15 0)
(3 -1.25262e-15 0)
(3 -8.81349e-16 0)
(3 8.87341e-17 0)
(3 8.49045e-16 0)
(3 7.82065e-16 0)
(3 -2.86984e-16 0)
(3 -7.80843e-17 0)
(3 -1.44913e-17 0)
(3 -7.15152e-16 0)
(3 -1.5705e-15 0)
(3 -1.9435e-15 0)
(3 -2.94337e-15 0)
(3 -3.93151e-15 0)
(3 4.98126e-17 0)
(3 3.25458e-15 0)
(3 4.2914e-15 0)
(3 3.77105e-15 0)
(3 3.30902e-15 0)
(3 2.14001e-15 0)
(3 1.6461e-15 0)
(3 1.71272e-15 0)
(3 1.63924e-15 0)
(3 1.01516e-15 0)
(3 -2.77252e-17 0)
(3 -4.18666e-16 0)
(3 9.61441e-16 0)
(3 2.0222e-15 0)
(3 1.74311e-15 0)
(3 -9.59012e-16 0)
(3 -2.31746e-15 0)
(3 -2.66722e-15 0)
(3 -1.11696e-15 0)
(3 -1.01782e-16 0)
(3 1.50028e-15 0)
(3 7.74817e-16 0)
(3 -6.54668e-16 0)
(3 9.00253e-16 0)
(3 2.63917e-16 0)
(3 -2.42447e-15 0)
(3 -3.43062e-15 0)
(3 -2.72517e-15 0)
(3 -1.69595e-15 0)
(3 -5.01713e-16 0)
(3 -3.31022e-16 0)
(3 -7.15851e-16 0)
(3 -3.80052e-16 0)
(3 6.83956e-17 0)
(3 -1.71629e-17 0)
(3 3.96868e-16 0)
(3 6.49176e-16 0)
(3 8.56896e-16 0)
(3 2.62432e-15 0)
(3 3.86338e-15 0)
(3 4.16807e-15 0)
(3 3.29715e-15 0)
(3 2.21742e-15 0)
(3 2.27463e-15 0)
(3 2.60571e-15 0)
(3 3.14355e-15 0)
(3 3.26985e-15 0)
(3 3.09168e-15 0)
(3 1.23397e-15 0)
(3 3.26991e-17 0)
(3 -2.17435e-16 0)
(3 1.98139e-16 0)
(3 5.55593e-16 0)
(3 1.21177e-15 0)
(3 1.85011e-15 0)
(3 1.49062e-15 0)
(3 -1.33584e-16 0)
(3 -3.00883e-16 0)
(3 8.32229e-17 0)
(3 -1.66682e-16 0)
(3 -1.40759e-15 0)
(3 -1.2095e-15 0)
(3 -4.28648e-16 0)
(3 2.60879e-16 0)
(3 8.43032e-16 0)
(3 9.52096e-18 0)
(3 -1.61943e-16 0)
(3 -2.91254e-16 0)
(3 -4.78374e-16 0)
(3 -3.61909e-16 0)
(3 -5.78102e-16 0)
(3 -9.44343e-16 0)
(3 -1.0411e-15 0)
(3 -1.45289e-15 0)
(3 -1.67436e-15 0)
(3 -1.26054e-15 0)
(3 -7.97465e-16 0)
(3 -1.09885e-15 0)
(3 -2.065e-15 0)
(3 -1.91402e-15 0)
(3 -1.45761e-15 0)
(3 -2.70336e-16 0)
(3 1.75473e-18 0)
(3 -3.89697e-16 0)
(3 -4.20141e-16 0)
(3 7.72922e-16 0)
(3 8.8119e-16 0)
(3 3.50191e-16 0)
(3 8.5386e-16 0)
(3 2.40635e-15 0)
(3 2.6827e-15 0)
(3 1.65445e-15 0)
(3 6.62861e-16 0)
(3 -2.34361e-16 0)
(3 -1.33641e-15 0)
(3 -3.83886e-16 0)
(3 1.2036e-15 0)
(3 2.04023e-15 0)
(3 2.53651e-15 0)
(3 2.41093e-15 0)
(3 2.29486e-15 0)
(3 1.97242e-15 0)
(3 5.81711e-16 0)
(3 -1.16675e-16 0)
(3 2.25175e-16 0)
(3 -4.2387e-16 0)
(3 -1.02596e-15 0)
(3 -2.86941e-16 0)
(3 5.90558e-16 0)
(3 3.1397e-16 0)
(3 -1.32477e-15 0)
(3 -3.14675e-15 0)
(3 -2.53737e-15 0)
(3 -1.21527e-15 0)
(3 6.65682e-16 0)
(3 8.74016e-16 0)
(3 6.00535e-16 0)
(3 -1.13514e-16 0)
(3 -1.52996e-15 0)
(3 -1.78291e-15 0)
(3 -2.15337e-15 0)
(3 -2.15663e-15 0)
(3 -1.03593e-15 0)
(3 -1.01663e-15 0)
(3 -1.27336e-15 0)
(3 -1.99963e-15 0)
(3 -2.09075e-15 0)
(3 -2.98478e-15 0)
(3 -3.54409e-15 0)
(3 -2.43746e-15 0)
(3 -1.07292e-15 0)
(3 -8.16273e-16 0)
(3 -8.66554e-16 0)
(3 -9.97987e-16 0)
(3 5.57663e-16 0)
(3 3.44867e-15 0)
(3 3.97334e-15 0)
(3 3.34209e-15 0)
(3 2.45995e-15 0)
(3 3.40122e-15 0)
(3 3.4458e-15 0)
(3 3.15307e-15 0)
(3 2.59609e-15 0)
(3 1.77034e-15 0)
(3 3.51097e-16 0)
(3 -5.16169e-16 0)
(3 7.82411e-16 0)
(3 3.30746e-15 0)
(3 3.60698e-15 0)
(3 2.27117e-15 0)
(3 1.67868e-15 0)
(3 7.38384e-16 0)
(3 -9.79353e-16 0)
(3 -2.0824e-15 0)
(3 -2.02899e-15 0)
(3 -2.75514e-15 0)
(3 -3.27365e-15 0)
(3 -2.95102e-15 0)
(3 -2.45918e-15 0)
(3 -1.37329e-15 0)
(3 -5.84699e-16 0)
(3 1.47564e-16 0)
(3 2.78091e-16 0)
(3 5.63078e-17 0)
(3 -4.21864e-16 0)
(3 -1.2134e-16 0)
(3 5.17528e-16 0)
(3 2.41823e-16 0)
(3 6.1676e-16 0)
(3 7.17964e-16 0)
(3 -3.66112e-16 0)
(3 -1.14897e-15 0)
(3 -1.82264e-15 0)
(3 -1.93165e-15 0)
(3 -1.48444e-15 0)
(3 -1.76468e-15 0)
(3 -5.76921e-16 0)
(3 8.54847e-16 0)
(3 2.22855e-15 0)
(3 2.48284e-15 0)
(3 2.04579e-15 0)
(3 1.98382e-15 0)
(3 1.50243e-15 0)
(3 1.19643e-15 0)
(3 2.01219e-15 0)
(3 3.47886e-15 0)
(3 4.34368e-15 0)
(3 4.46403e-15 0)
(3 3.18349e-15 0)
(3 2.69013e-15 0)
(3 2.55653e-15 0)
(3 3.31436e-15 0)
(3 2.80469e-15 0)
(3 1.18753e-15 0)
(3 5.99165e-16 0)
(3 9.15954e-16 0)
(3 7.19989e-16 0)
(3 5.10317e-16 0)
(3 1.14519e-16 0)
(3 -1.53479e-16 0)
(3 -1.51261e-17 0)
(3 -2.38405e-16 0)
(3 -7.68941e-16 0)
(3 6.10908e-16 0)
(3 5.69438e-16 0)
(3 -9.59009e-16 0)
(3 -1.71902e-15 0)
(3 -1.10918e-15 0)
(3 4.87457e-16 0)
(3 2.62164e-15 0)
(3 3.67788e-15 0)
(3 3.19123e-15 0)
(3 1.81329e-15 0)
(3 1.66559e-15 0)
(3 1.72685e-15 0)
(3 -5.31224e-16 0)
(3 -1.7487e-15 0)
(3 -1.06743e-15 0)
(3 -1.2892e-15 0)
(3 -1.37238e-15 0)
(3 -8.31491e-16 0)
(3 -7.64103e-16 0)
(3 -7.22359e-16 0)
(3 -1.14421e-15 0)
(3 -1.74734e-15 0)
(3 -2.31178e-15 0)
(3 -9.77782e-16 0)
(3 -4.34261e-16 0)
(3 -9.64978e-16 0)
(3 -1.56829e-15 0)
(3 1.74098e-17 0)
(3 1.01927e-15 0)
(3 1.3368e-15 0)
(3 1.02973e-15 0)
(3 1.16255e-15 0)
(3 1.91341e-15 0)
(3 1.15595e-15 0)
(3 8.63513e-16 0)
(3 2.32519e-16 0)
(3 5.66552e-16 0)
(3 1.26704e-15 0)
(3 1.78096e-15 0)
(3 1.72964e-15 0)
(3 2.16291e-15 0)
(3 2.40142e-15 0)
(3 1.8889e-15 0)
(3 -1.51894e-16 0)
(3 -1.84051e-15 0)
(3 -1.78729e-15 0)
(3 -1.62761e-15 0)
(3 -2.09077e-15 0)
(3 -2.29942e-15 0)
(3 -1.88428e-15 0)
(3 -1.66435e-15 0)
(3 -1.33694e-15 0)
(3 -1.74079e-15 0)
(3 -1.96293e-15 0)
(3 7.33729e-18 0)
(3 -3.57406e-17 0)
(3 1.06201e-16 0)
(3 2.09747e-16 0)
(3 2.83916e-16 0)
(3 3.11464e-16 0)
(3 3.41327e-16 0)
(3 6.58083e-16 0)
(3 9.77393e-16 0)
(3 4.26069e-16 0)
(3 -8.40105e-16 0)
(3 -1.39781e-15 0)
(3 -1.52278e-15 0)
(3 -1.05623e-15 0)
(3 -9.74532e-16 0)
(3 1.51154e-17 0)
(3 9.04038e-16 0)
(3 1.69594e-15 0)
(3 1.69191e-15 0)
(3 1.81704e-15 0)
(3 1.79671e-15 0)
(3 1.46927e-15 0)
(3 1.7347e-15 0)
(3 1.60254e-15 0)
(3 2.81068e-15 0)
(3 3.61006e-15 0)
(3 4.0968e-15 0)
(3 4.02959e-15 0)
(3 3.7742e-15 0)
(3 3.72594e-15 0)
(3 2.592e-15 0)
(3 2.27665e-15 0)
(3 7.50807e-17 0)
(3 -8.8153e-16 0)
(3 -7.15042e-16 0)
(3 -3.07359e-16 0)
(3 -2.70931e-16 0)
(3 5.81215e-17 0)
(3 7.75377e-16 0)
(3 7.03378e-16 0)
(3 -1.53775e-16 0)
(3 -5.73463e-16 0)
(3 -1.25067e-16 0)
(3 6.61648e-17 0)
(3 1.4095e-16 0)
(3 6.90213e-16 0)
(3 2.60565e-15 0)
(3 3.26851e-15 0)
(3 3.06917e-15 0)
(3 2.91574e-15 0)
(3 3.09385e-15 0)
(3 2.52182e-15 0)
(3 1.83762e-15 0)
(3 1.19657e-15 0)
(3 4.34395e-16 0)
(3 4.08289e-16 0)
(3 7.28761e-16 0)
(3 -1.33339e-16 0)
(3 -3.7876e-16 0)
(3 -2.59748e-16 0)
(3 4.26881e-16 0)
(3 1.16522e-15 0)
(3 1.29965e-15 0)
(3 1.24109e-15 0)
(3 1.2127e-15 0)
(3 8.70715e-16 0)
(3 1.5226e-15 0)
(3 1.31728e-15 0)
(3 5.38256e-16 0)
(3 1.46683e-15 0)
(3 2.50814e-15 0)
(3 2.33391e-15 0)
(3 1.8745e-15 0)
(3 1.52386e-15 0)
(3 7.77493e-16 0)
(3 -1.15209e-15 0)
(3 -1.95069e-15 0)
(3 -1.7701e-15 0)
(3 5.55412e-17 0)
(3 3.91544e-16 0)
(3 3.47267e-16 0)
(3 -5.66936e-17 0)
(3 -6.79668e-17 0)
(3 3.4284e-16 0)
(3 3.93797e-16 0)
(3 -4.79981e-17 0)
(3 -9.4403e-16 0)
(3 -1.61923e-15 0)
(3 -8.80969e-16 0)
(3 -2.37529e-16 0)
(3 3.076e-16 0)
(3 1.78923e-16 0)
(3 -3.88294e-17 0)
(3 -1.10369e-15 0)
(3 -2.00173e-15 0)
(3 -2.64196e-15 0)
(3 -1.82217e-16 0)
(3 -5.20229e-16 0)
(3 -5.03499e-16 0)
(3 -3.29944e-17 0)
(3 -5.35146e-17 0)
(3 -3.38975e-16 0)
(3 -3.06576e-16 0)
(3 -2.59661e-16 0)
(3 -5.24763e-16 0)
(3 -3.9926e-16 0)
(3 -3.62462e-16 0)
(3 -3.5366e-16 0)
(3 -2.93496e-16 0)
(3 -4.55648e-16 0)
(3 -4.5316e-16 0)
(3 -1.04334e-16 0)
(3 2.43926e-16 0)
(3 -1.36578e-16 0)
(3 -4.93089e-16 0)
(3 3.0514e-16 0)
(3 1.49711e-15 0)
(3 2.3543e-15 0)
(3 1.80493e-15 0)
(3 1.53023e-15 0)
(3 1.77805e-15 0)
(3 1.29441e-15 0)
(3 1.31492e-15 0)
(3 3.13545e-15 0)
(3 4.85652e-15 0)
(3 5.04536e-15 0)
(3 3.73389e-15 0)
(3 2.6849e-15 0)
(3 -2.89882e-16 0)
(3 -1.12906e-15 0)
(3 -1.45696e-15 0)
(3 -1.46033e-15 0)
(3 -1.19271e-15 0)
(3 -6.87886e-16 0)
(3 -6.52463e-16 0)
(3 -1.15255e-15 0)
(3 -8.89566e-16 0)
(3 -5.80129e-16 0)
(3 -7.74495e-16 0)
(3 -2.32522e-16 0)
(3 9.78167e-16 0)
(3 1.86677e-15 0)
(3 4.09787e-15 0)
(3 4.60639e-15 0)
(3 2.83408e-15 0)
(3 2.08502e-15 0)
(3 1.19431e-15 0)
(3 1.17501e-17 0)
(3 -1.22082e-15 0)
(3 -1.67273e-15 0)
(3 -6.55792e-16 0)
(3 9.16493e-16 0)
(3 1.79848e-15 0)
(3 2.04742e-15 0)
(3 1.58682e-15 0)
(3 7.34486e-16 0)
(3 1.48045e-15 0)
(3 2.45004e-15 0)
(3 2.85936e-15 0)
(3 3.07129e-15 0)
(3 3.92429e-15 0)
(3 2.92877e-15 0)
(3 3.25838e-15 0)
(3 3.01478e-15 0)
(3 3.47296e-15 0)
(3 4.82675e-15 0)
(3 5.3513e-15 0)
(3 5.47933e-15 0)
(3 4.21508e-15 0)
(3 3.48833e-15 0)
(3 2.04378e-15 0)
(3 -1.39194e-17 0)
(3 -8.08024e-16 0)
(3 -1.06892e-15 0)
(3 3.89363e-17 0)
(3 6.18974e-16 0)
(3 4.10577e-16 0)
(3 -2.68758e-16 0)
(3 -1.15218e-15 0)
(3 -1.97721e-15 0)
(3 -1.89358e-15 0)
(3 -2.32376e-15 0)
(3 -2.48197e-15 0)
(3 -2.8081e-15 0)
(3 -1.92417e-15 0)
(3 -1.14797e-15 0)
(3 -1.84102e-16 0)
(3 -3.29342e-16 0)
(3 -1.33303e-15 0)
(3 -2.21717e-15 0)
(3 -2.20173e-15 0)
(3 -2.64536e-15 0)
(3 -2.15258e-17 0)
(3 1.03021e-16 0)
(3 2.91606e-16 0)
(3 5.56297e-17 0)
(3 -5.02413e-18 0)
(3 -1.61082e-16 0)
(3 -3.70319e-17 0)
(3 -4.3718e-16 0)
(3 -1.24089e-15 0)
(3 -1.52071e-15 0)
(3 -9.49132e-16 0)
(3 -3.57144e-16 0)
(3 5.65742e-16 0)
(3 7.07379e-16 0)
(3 4.10061e-16 0)
(3 7.01938e-16 0)
(3 6.34155e-16 0)
(3 -2.78569e-16 0)
(3 4.92023e-16 0)
(3 1.23844e-15 0)
(3 1.4766e-15 0)
(3 2.72719e-15 0)
(3 3.42722e-15 0)
(3 4.46805e-15 0)
(3 3.52602e-15 0)
(3 3.28032e-15 0)
(3 3.1044e-15 0)
(3 3.26447e-15 0)
(3 4.68717e-15 0)
(3 5.58808e-15 0)
(3 5.32609e-15 0)
(3 4.31131e-15 0)
(3 2.46728e-15 0)
(3 1.23691e-15 0)
(3 -4.58956e-16 0)
(3 -1.52264e-15 0)
(3 -1.72465e-15 0)
(3 -1.76957e-15 0)
(3 -2.44098e-15 0)
(3 -3.72853e-15 0)
(3 -2.72663e-15 0)
(3 -2.15293e-15 0)
(3 -2.15789e-15 0)
(3 -2.1957e-15 0)
(3 -1.49993e-15 0)
(3 -1.16172e-15 0)
(3 4.15089e-17 0)
(3 1.56692e-15 0)
(3 1.91987e-15 0)
(3 1.72689e-15 0)
(3 1.09801e-15 0)
(3 -3.41258e-16 0)
(3 -1.14216e-15 0)
(3 -6.41192e-16 0)
(3 -6.11648e-16 0)
(3 4.3351e-16 0)
(3 1.104e-15 0)
(3 6.09251e-16 0)
(3 3.33689e-16 0)
(3 3.09422e-16 0)
(3 1.40154e-15 0)
(3 4.16606e-15 0)
(3 4.7561e-15 0)
(3 5.19513e-15 0)
(3 4.8951e-15 0)
(3 3.93303e-15 0)
(3 2.5225e-15 0)
(3 2.1946e-15 0)
(3 3.02706e-15 0)
(3 4.01737e-15 0)
(3 4.51054e-15 0)
(3 4.61617e-15 0)
(3 3.75158e-15 0)
(3 1.90818e-15 0)
(3 -1.33278e-16 0)
(3 3.72621e-16 0)
(3 9.50467e-16 0)
(3 8.45218e-16 0)
(3 5.72287e-16 0)
(3 1.05064e-15 0)
(3 1.1944e-16 0)
(3 -2.1899e-15 0)
(3 -4.43098e-15 0)
(3 -5.06361e-15 0)
(3 -4.66229e-15 0)
(3 -4.27751e-15 0)
(3 -3.74897e-15 0)
(3 -3.80306e-15 0)
(3 -4.68756e-15 0)
(3 -3.88925e-15 0)
(3 -1.99116e-15 0)
(3 -6.3489e-16 0)
(3 -6.5034e-16 0)
(3 -8.94438e-16 0)
(3 -1.39444e-15 0)
(3 -2.29352e-15 0)
(3 1.68846e-16 0)
(3 7.05708e-16 0)
(3 1.14003e-16 0)
(3 -3.47706e-16 0)
(3 -4.55439e-16 0)
(3 -3.61355e-17 0)
(3 -5.58279e-17 0)
(3 -1.18536e-15 0)
(3 -1.34931e-15 0)
(3 -7.71036e-16 0)
(3 -6.61583e-16 0)
(3 -1.77644e-16 0)
(3 3.85483e-16 0)
(3 1.02667e-15 0)
(3 1.34488e-15 0)
(3 5.6122e-16 0)
(3 -3.99114e-16 0)
(3 -3.78922e-16 0)
(3 1.99168e-16 0)
(3 6.52336e-16 0)
(3 9.41931e-16 0)
(3 2.10313e-15 0)
(3 4.38286e-15 0)
(3 4.51993e-15 0)
(3 3.86194e-15 0)
(3 4.04963e-15 0)
(3 3.90478e-15 0)
(3 3.09823e-15 0)
(3 2.87516e-15 0)
(3 3.24394e-15 0)
(3 2.54088e-15 0)
(3 9.35324e-16 0)
(3 1.0556e-15 0)
(3 8.88315e-16 0)
(3 -5.09586e-16 0)
(3 -1.12311e-15 0)
(3 -2.00075e-15 0)
(3 -2.78321e-15 0)
(3 -3.47854e-15 0)
(3 -3.99335e-15 0)
(3 -3.63986e-15 0)
(3 -3.38724e-15 0)
(3 -3.41334e-15 0)
(3 -2.51714e-15 0)
(3 -5.83252e-16 0)
(3 5.70056e-17 0)
(3 -4.22447e-16 0)
(3 -8.6203e-17 0)
(3 6.38435e-17 0)
(3 4.70047e-17 0)
(3 6.49551e-17 0)
(3 -2.39652e-16 0)
(3 -2.16094e-15 0)
(3 -1.33485e-15 0)
(3 1.04932e-15 0)
(3 2.34663e-15 0)
(3 2.62366e-15 0)
(3 2.45415e-15 0)
(3 2.52342e-15 0)
(3 2.75438e-15 0)
(3 3.83725e-15 0)
(3 4.45592e-15 0)
(3 5.28883e-15 0)
(3 5.02642e-15 0)
(3 3.18376e-15 0)
(3 3.11042e-15 0)
(3 2.50756e-15 0)
(3 1.88832e-15 0)
(3 1.24125e-15 0)
(3 8.61154e-16 0)
(3 1.04875e-15 0)
(3 1.03061e-15 0)
(3 4.99292e-16 0)
(3 2.39541e-16 0)
(3 7.41297e-16 0)
(3 2.94011e-15 0)
(3 2.82801e-15 0)
(3 5.59871e-16 0)
(3 -1.76804e-15 0)
(3 -3.7894e-15 0)
(3 -5.04682e-15 0)
(3 -5.58898e-15 0)
(3 -6.06582e-15 0)
(3 -7.04155e-15 0)
(3 -5.77092e-15 0)
(3 -3.71607e-15 0)
(3 -3.3312e-15 0)
(3 -3.498e-15 0)
(3 -4.18861e-15 0)
(3 -3.70879e-15 0)
(3 -1.22197e-15 0)
(3 -1.85482e-16 0)
(3 5.34381e-16 0)
(3 2.33918e-16 0)
(3 2.81259e-17 0)
(3 -2.83048e-16 0)
(3 8.81472e-17 0)
(3 -5.10572e-17 0)
(3 -2.91215e-16 0)
(3 -6.70012e-17 0)
(3 -6.38808e-17 0)
(3 -1.98399e-16 0)
(3 -3.16061e-16 0)
(3 -3.62295e-16 0)
(3 -4.02062e-16 0)
(3 -1.17753e-16 0)
(3 -4.0655e-16 0)
(3 -3.88336e-16 0)
(3 7.82177e-17 0)
(3 2.27373e-16 0)
(3 4.75202e-17 0)
(3 -7.22794e-16 0)
(3 -1.43405e-15 0)
(3 -1.54368e-15 0)
(3 -1.36457e-15 0)
(3 -1.13458e-15 0)
(3 -5.96955e-16 0)
(3 1.21899e-15 0)
(3 2.40037e-15 0)
(3 2.75034e-15 0)
(3 2.65362e-15 0)
(3 2.6593e-15 0)
(3 2.69447e-15 0)
(3 2.14685e-15 0)
(3 2.5152e-15 0)
(3 2.40595e-15 0)
(3 1.47817e-15 0)
(3 1.60306e-16 0)
(3 -1.2616e-16 0)
(3 2.7391e-17 0)
(3 1.01785e-16 0)
(3 -3.00971e-16 0)
(3 -1.87872e-15 0)
(3 -3.1918e-15 0)
(3 -3.10779e-15 0)
(3 -2.83875e-15 0)
(3 -2.73841e-15 0)
(3 -2.42341e-15 0)
(3 -2.19598e-15 0)
(3 4.18779e-16 0)
(3 1.46124e-15 0)
(3 1.69498e-15 0)
(3 -9.39164e-17 0)
(3 -1.45865e-15 0)
(3 3.45222e-17 0)
(3 4.49922e-16 0)
(3 5.36524e-16 0)
(3 1.24095e-15 0)
(3 8.77553e-17 0)