/*--------------------------------*- C++ -*----------------------------------*\
  =========                 |
  \\      /  F ield         | OpenFOAM: The Open Source CFD Toolbox
   \\    /   O peration     | Website:  https://openfoam.org
    \\  /    A nd           | Version:  7
     \\/     M anipulation  |
\*---------------------------------------------------------------------------*/
FoamFile
{
    version     2.0;
    format      ascii;
    class       volScalarField;
    location    "1.6";
    object      p;
}
// * * * * * * * * * * * * * * * * * * * * * * * * * * * * * * * * * * * * * //

dimensions      [1 -1 -2 0 0 0 0];

internalField   nonuniform List<scalar> 
18432
(
1
1
1
1
1
1
1
1
1
1
1
1
1
1
1
1
1
1
1
1
1
1
1
1
1
1
1
1
1
1
1
1
1
1
1
1
1
1
1
1
1
1
1
1
1
1
1
1
1
1
1
1
1
1
1
1
1
1
1
1
1
1
1
1
1
1
1
1
1
1
1
1
1
1
1
1
1
1
1
1
1
1
1
1
1
1
1
1
1
1
1
1
1
1
1
1
1
1
1
1
1
1
1
1
1
1
1
1
1
1
1
1
1
1
1
1
1
1
1
1
1
1
1
1
1
1
1
1
1
1
1
1
1
1
1
1
1
1
1
1
1
1
1
1
1
1
1
1
1
1
1
1
1
1
1
1
1
1
1
1
1
1
1
1
1
1
1
1
1
1
1
1
1
1
1
1
1
1
1
1
1
1
1
1
1
1
1
1
1
1
1
1
1
1
1
1
1
1
1
1
1
1
1
1
1
1
1
1
1
1
1
1
1
1
1
1
1
1
1
1
1
1
1
1
1
1
1
1
1
1
1
1
1
1
1
1
1
1
1
1
1
1
1
1
1
1
1
1
1
1
1
1
1
1
1
1
1
1
1
1
1
1
1
1
1
1
1
1
1
1
1
1
1
1
1
1
1
1
1
1
1
1
1
1
1
1
1
1
1
1
1
1
1
1
1
1
1
1
1
1
1
1
1
1
1
1
1
1
1
1
1
1
1
1
1
1
1
1
1
1
1
1
1
1
1
1
1
1
1
1
1
1
1
1
1
1
1
1
1
1
1
1
1
1
1
1
1
1
1
1
1
1
1
1
1
1
1
1
1
1
1
1
1
1
1
1
1
1
1
1
1
1
1
1
1
1
1
1
1
1
1
1
1
1
1
1
1
1
1
1
1
1
1
1
1
1
1
1
1
1
1
1
1
1
1
1
1
1
1
1
1
1
1
1
1
1
1
1
1
1
1
1
1
1
1
1
1
1
1
1
1
1
1
1
1
1
1
1
1
1
1
1
1
1
1
1
1
1
1
1
1
1
1
1
1
1
1
1
1
1
1
1
1
1
1
1
1
1
1
1
1
1
1
1
1
1
1
1
1
1
1
1
1
1
1
1
1
1
1
1
1
1
1
1
1
1
1
1
1
1
1
1
1
1
1
1
1
1
1
1
1
1
1
1
1
1
1
1
1
1
1
1
1
1
1
1
1
1
1
1
1
1
1
1
1
1
1
1
1
1
1
1
1
1
1
1
1
1
1
1
1
1
1
1
1
1
1
1
1
1
1
1
1
1
1
1
1
1
1
1
1
1
1
1
1
1
1
1
1
1
1
1
1
1
1
1
1
1
1
1
1
1
1
1
1
1
1
1
1
1
1
1
1
1
1
1
1
1
1
1
1
1
1
1
1
1
1
1
1
1
1
1
1
1
1
1
1
1
1
1
1
1
1
1
1
1
1
1
1
1
1
1
1
1
1
1
1
1
1
1
1
1
1
1
1
1
1
1
1
1
1
1
1
1
1
1
1
1
1
1
1
1
1
1
1
1
1
1
1
1
1
1
1
1
1
1
1
1
1
1
1
1
1
1
1
1
1
1
1
1
1
1
1
1
1
1
1
1
1
1
1
1
1
1
1
1
1
1
1
1
1
1
1
1
1
1
1
1
1
1
1
1
1
1
1
1
1
1
1
1
1
1
1
1
1
1
1
1
1
1
1
1
1
1
1
1
1
1
1
1
1
1
1
1
1
1
1
1
1
1
1
1
1
1
1
1
1
1
1
1
1
1
1
1
1
1
1
1
1
1
1
1
1
1
1
1
1
1
1
1
1
1
1
1
1
1
1
1
1
1
1
1
1
1
1
1
1
1
1
1
1
1
1
1
1
1
1
1
1
1
1
1
1
1
1
1
1
1
1
1
1
1
1
1
1
1
1
1
1
1
1
1
1
1
1
1
1
1
1
1
1
1
1
1
1
1
1
1
1
1
1
1
1
1
1
1
1
1
1
1
1
1
1
1
1
1
1
1
1
1
1
1
1
1
1
1
1
1
1
1
1
1
1
1
1
1
1
1
1
1
1
1
1
1
1
1
1
1
1
1
1
1
1
1
1
1
1
1
1
1
1
1
1
1
1
1
1
1
1
1
1
1
1
1
1
1
1
1
1
1
1
1
1
1
1
1
1
1
1
1
1
1
1
1
1
1
1
1
1
1
1
1
1
1
1
1
1
1
1
1
1
1
1
1
1
1
1
1
1
1
1
1
1
1
1
1
1
1
1
1
1
1
1
1
1
1
1
1
1
1
1
1
1
1
1
1
1
1
1
1
1
1
1
1
1
1
1
1
1
1
1
1
1
1
1
1
1
1
1
1
1
1
1
1
1
1
1
1
1
1
1
1
1
1
1
1
1
1
1
1
1
1
1
1
1
1
1
1
1
1
1
1
1
1
1
1
1
1
1
1
1
1
1
1
1
1
1
1
1
1
1
1
1
1
1
1
1
1
1
1
1
1
1
1
1
1
1
1
1
1
1
1
1
1
1
1
1
1
1
1
1
1
1
1
1
1
1
1
1
1
1
1
1
1
1
1
1
1
1
1
1
1
1
1
1
1
1
1
1
1
1
1
1
1
1
1
1
1
1
1
1
1
1
1
1
1
1
1
1
1
1
1
1
1
1
1
1
1
1
1
1
1
1
1
1
1
1
1
1
1
1
1
1
1
1
1
1
1
1
1
1
1
1
1
1
1
1
1
1
1
1
1
1
1
1
1
1
1
1
1
1
1
1
1
1
1
1
1
1
1
1
1
1
1
1
1
1
1
1
1
1
1
1
1
1
1
1
1
1
1
1
1
1
1
1
1
1
1
1
1
1
1
1
1
1
1
1
1
1
1
1
1
1
1
1
1
1
1
1
1
1
1
1
1
1
1
1
1
1
1
1
1
1
1
1
1
1
1
1
1
1
1
1
1
1
1
1
1
1
1
1
1
1
1
1
1
1
1
1
1
1
1
1
1
1
1
1
1
1
1
1
1
1
1
1
1
1
1
1
1
1
1
1
1
1
1
1
1
1
1
1
1
1
1
1
1
1
1
1
1
1
1
1
1
1
1
1
1
1
1
1
1
1
1
1
1
1
1
1
1
1
1
1
1
1
1
1
1
1
1
1
1
1
1
1
1
1
1
1
1
1
1
1
1
1
1
1
1
1
1
1
1
1
1
1
1
1
1
1
1
1
1
1
1
1
1
1
1
1
1
1
1
1
1
1
1
1
1
1
1
1
1
1
1
1
1
1
1
1
1
1
1
1
1
1
1
1
1
1
1
1
1
1
1
1
1
1
1
1
1
1
1
1
1
1
1
1
1
1
1
1
1
1
1
1
1
1
1
1
1
1
1
1
1
1
1
1
1
1
1
1
1
1
1
1
1
1
1
1
1
1
1
1
1
1
1
1
1
1
1
1
1
1
1
1
1
1
1
1
1
1
1
1
1
1
1
1
1
1
1
1
1
1
1
1
1
1
1
1
1
1
1
1
1
1
1
1
1
1
1
1
1
1
1
1
1
1
1
1
1
1
1
1
1
1
1
1
1
1
1
1
1
1
1
1
1
1
1
1
1
1
1
1
1
1
1
1
1
1
1
1
1
1
1
1
1
1
1
1
1
1
1
1
1
1
1
1
1
1
1
1
1
1
1
1
1
1
1
1
1
1
1
1
1
1
1
1
1
1
1
1
1
1
1
1
1
1
1
1
1
1
1
1
1
1
1
1
1
1
1
1
1
1
1
1
1
1
1
1
1
1
1
1
1
1
1
1
1
1
1
1
1
1
1
1
1
1
1
1
1
1
1
1
1
1
1
1
1
1
1
1
1
1
1
1
1
1
1
1
1
1
1
1
1
1
1
1
1
1
1
1
1
1
1
1
1
1
1
1
1
1
1
1
1
1
1
1
1
1
1
1
1
1
1
1
1
1
1
1
1
1
1
1
1
1
1
1
1
1
1
1
1
1
1
1
1
1
1
1
1
1
1
1
1
1
1
1
1
1
1
1
1
1
1
1
1
1
1
1
1
1
1
1
1
1
1
1
1
1
1
1
1
1
1
1
1
1
1
1
1
1
1
1
1
1
1
1
1
1
1
1
1
1
1
1
1
1
1
1
1
1
1
1
1
1
1
1
1
1
1
1
1
1
1
1
1
1
1
1
1
1
1
1
1
1
1
1
1
1
1
1
1
1
1
1
1
1
1
1
1
1
1
1
1
1
1
1
1
1
1
1
1
1
1
1
1
1
1
1
1
1
1
1
1
1
1
1
1
1
1
1
1
1
1
1
1
1
1
1
1
1
1
1
1
1
1
1
1
1
1
1
1
1
1
1
1
1
1
1
1
1
1
1
1
1
1
1
1
1
1
1
1
1
1
1
1
1
1
1
1
1
1
1
1
1
1
1
1
1
1
1
1
1
1
1
1
1
1
1
1
1
1
1
1
1
1
1
1
1
1
1
1
1
1
1
1
1
1
1
1
1
1
1
1
1
1
1
1
1
1
1
1
1
1
1
1
1
1
1
1
1
1
1
1
1
1
1
1
1
1
1
1
1
1
1
1
1
1
1
1
1
1
1
1
1
1
1
1
1
1
1
1
1
1
1
1
1
1
1
1
1
1
1
1
1
1
1
1
1
1
1
1
1
1
1
1
1
1
1
1
1
1
1
1
1
1
1
1
1
1
1
1
1
1
1
1
1
1
1
1
1
1
1
1
1
1
1
1
1
1
1
1
1
1
1
1
1
1
1
1
1
1
1
1
1
1
1
1
1
1
1
1
1
1
1
1
1
1
1
1
1
1
1
1
1
1
1
1
1
1
1
1
1
1
1
1
1
1
1
1
1
1
1
1
1
1
1
1
1
1
1
1
1
1
1
1
1
1
1
1
1
1
1
1
1
1
1
1
1
1
1
1
1
1
1
1
1
1
1
1
1
1
1
1
1
1
1
1
1
1
1
1
1
1
1
1
1
1
1
1
1
1
1
1
1
1
1
1
1
1
1
1
1
1
1
1
1
1
1
1
1
1
1
1
1
1
1
1
1
1
1
1
1
1
1
1
1
1
1
1
1
1
1
1
1
1
1
1
1
1
1
1
1
1
1
1
1
1
1
1
1
1
1
1
1
1
1
1
1
1
1
1
1
1
1
1
1
1
1
1
1
1
1
1
1
1
1
1
1
1
1
1
1
1
1
1
1
1
1
1
1
1
1
1
1
1
1
1
1
1
1
1
1
1
1
1
1
1
1
1
1
1
1
1
1
1
1
1
1
1
1
1
1
1
1
1
1
1
1
1
1
1
1
1
1
1
1
1
1
1
1
1
1
1
1
1
1
1
1
1
1
1
1
1
1
1
1
1
1
1
1
1
1
1
1
1
1
1
1
1
1
1
1
1
1
1
1
1
1
1
1
1
1
1
1
1
1
1
1
1
1
1
1
1
1
1
1
1
1
1
1
1
1
1
1
1
1
1
1
1
1
1
1
1
1
1
1
1
1
1
1
1
1
1
1
1
1
1
1
1
1
1
1
1
1
1
1
1
1
1
1
1
1
1
1
1
1
1
1
1
1
1
1
1
1
1
1
1
1
1
1
1
1
1
1
1
1
1
1
1
1
1
1
1
1
1
1
1
1
1
1
1
1
1
1
1
1
1
1
1
1
1
1
1
1
1
1
1
1
1
1
1
1
1
1
1
1
1
1
1
1
1
1
1
1
1
1
1
1
1
1
1
1
1
1
1
1
1
1
1
1
1
1
1
1
1
1
1
1
1
1
1
1
1
1
1
1
1
1
1
1
1
1
1
1
1
1
1
1
1
1
1
1
1
1
1
1
1
1
1
1
1
1
1
1
1
1
1
1
1
1
1
1
1
1
1
1
1
1
1
1
1
1
1
1
1
1
1
1
1
1
1
1
1
1
1
1
1
1
1
1
1
1
1
1
1
1
1
1
1
1
1
1
1
1
1
1
1
1
1
1
1
1
1
1
1
1
1
1
1
1
1
1
1
1
1
1
1
1
1
1
1
1
1
1
1
1
1
1
1
1
1
1
1
1
1
1
1
1
1
1
1
1
1
1
1
1
1
1
1
1
1
1
1
1
1
1
1
1
1
1
1
1
1
1
1
1
1
1
1
1
1
1
1
1
1
1
1
1
1
1
1
1
1
1
1
1
1
1
1
1
1
1
1
1
1
1
1
1
1
1
1
1
1
1
1
1
1
1
1
1
1
1
1
1
1
1
1
1
1
1
1
1
1
1
1
1
1
1
1
1
1
1
1
1
1
1
1
1
1
1
1
1
1
1
1
1
1
1
1
1
1
1
1
1
1
1
1
1
1
1
1
1
1
1
1
1
1
1
1
1
1
1
1
1
1
1
1
1
1
1
1
1
1
1
1
1
1
1
1
1
1
1
1
1
1
1
1
1
1
1
1
1
1
1
1
1
1
1
1
1
1
1
1
1
1
1
1
1
1
1
1
1
1
1
1
1
1
1
1
1
1
1
1
1
1
1
1
1
1
1
1
1
1
1
1
1
1
1
1
1
1
1
1
1
1
1
1
1
1
1
1
1
1
1
1
1
1
1
1
1
1
1
1
1
1
1
1
1
1
1
1
1
1
1
1
1
1
1
1
1
1
1
1
1
1
1
1
1
1
1
1
1
1
1
1
1
1
1
1
1
1
1
1
1
1
1
1
1
1
1
1
1
1
1
1
1
1
1
1
1
1
1
1
1
1
1
1
1
1
1
1
1
1
1
1
1
1
1
1
1
1
1
1
1
1
1
1
1
1
1
1
1
1
1
1
1
1
1
1
1
1
1
1
1
1
1
1
1
1
1
1
1
1
1
1
1
1
1
1
1
1
1
1
1
1
1
1
1
1
1
1
1
1
1
1
1
1
1
1
1
1
1
1
1
1
1
1
1
1
1
1
1.28946
1.75468
2.32858
2.881
3.56101
4.18385
4.64968
5.1072
5.34645
5.26504
4.93468
4.46481
4.07051
3.79215
3.66755
3.58108
3.55971
3.57774
3.61104
3.64772
3.68609
3.70949
3.7226
3.72996
3.73799
3.74789
3.75797
3.76398
3.76666
3.77059
3.78026
3.793
3.79934
3.7991
3.79615
3.789
3.77894
3.77156
3.76801
3.76693
3.76658
3.76668
3.76896
3.76988
3.76999
3.76907
3.76594
3.76549
1.00234
1.0143
1.07151
1.20671
1.40844
1.76832
2.21752
2.75497
3.31228
3.74048
3.89677
4.04205
4.04891
3.96399
3.84314
3.77984
3.74337
3.70692
3.67331
3.66706
3.67686
3.70102
3.72926
3.74606
3.75164
3.75026
3.75367
3.75698
3.75788
3.7596
3.76436
3.77096
3.77629
3.77956
3.77943
3.77692
3.77285
3.76977
3.76937
3.77018
3.77268
3.77663
3.7791
3.7791
3.77823
3.77549
3.76959
3.76823
1
0.999978
1.00006
1.00009
1.00131
1.01331
1.06226
1.22032
1.60543
2.34385
3.32299
3.90901
4.31591
4.32731
4.25751
4.11389
3.96156
3.7829
3.67394
3.67029
3.67989
3.70182
3.73696
3.75746
3.76245
3.76363
3.76017
3.76135
3.76373
3.76633
3.76846
3.77113
3.77121
3.76977
3.76633
3.76232
3.75987
3.75973
3.76125
3.76447
3.77051
3.77886
3.78446
3.78556
3.78499
3.78263
3.77696
3.77508
1
1
1
1
0.999998
1
1.00002
1.00007
1.00577
1.06784
1.43463
2.12287
3.21997
3.79543
4.03356
4.02399
3.9272
3.88629
3.83852
3.76595
3.75052
3.72291
3.70796
3.71114
3.72469
3.73571
3.74593
3.75886
3.76835
3.77392
3.77888
3.77976
3.77907
3.77717
3.77277
3.76989
3.76774
3.76615
3.76666
3.76945
3.77465
3.78016
3.78291
3.78192
3.77944
3.77472
3.77053
3.77083
1
1
1
1
1
1
1
0.999999
1
0.999923
1.00228
1.04227
1.29391
1.99437
2.82497
3.75752
3.94942
4.01713
3.97959
3.9224
3.80867
3.73313
3.6853
3.66682
3.67026
3.68113
3.69557
3.71629
3.73734
3.75433
3.76898
3.77715
3.77942
3.77977
3.77832
3.77797
3.77738
3.77627
3.7766
3.77922
3.78345
3.78594
3.78516
3.78252
3.778
3.77073
3.7663
3.76671
1
1
1
1
1
1
1
1
1
0.999997
0.999998
0.999954
1.00071
1.03278
1.20605
1.82666
2.69492
3.46059
3.91431
3.9054
3.8652
3.82459
3.77237
3.73369
3.70245
3.6887
3.68512
3.69385
3.71595
3.73797
3.75556
3.76898
3.77338
3.77429
3.77387
3.77343
3.77169
3.76967
3.76979
3.77288
3.77581
3.77503
3.77251
3.76956
3.76575
3.76226
3.75996
3.76335
1
1
1
1
1
1
1
1
1
1
1
0.999998
0.999998
0.999968
1.00042
1.01911
1.19999
1.65978
2.55568
3.20573
3.74201
3.88012
3.87751
3.83747
3.78722
3.75665
3.73079
3.71513
3.71725
3.72803
3.74167
3.75882
3.76637
3.77065
3.76938
3.76716
3.76497
3.76321
3.76387
3.76949
3.7724
3.77222
3.77096
3.76963
3.76888
3.76862
3.76722
3.77079
1
1
1
1
1
1
1
1
1
1
1
1
1
0.999998
0.999998
0.999971
1.00061
1.01177
1.1528
1.59016
2.41531
3.13666
3.49777
3.73132
3.78224
3.78643
3.76499
3.74174
3.74116
3.7431
3.74741
3.7507
3.75735
3.76194
3.76331
3.7646
3.76502
3.7664
3.77143
3.77734
3.77936
3.77912
3.77755
3.77543
3.77449
3.77414
3.77357
3.7745
1
1
1
1
1
1
1
1
1
1
1
1
1
1
1
0.999998
0.999998
0.999981
1.00044
1.01196
1.11321
1.57531
2.25451
3.13644
3.46077
3.61017
3.66706
3.71324
3.7313
3.7234
3.71801
3.72428
3.73232
3.74276
3.75422
3.76226
3.76851
3.77395
3.77973
3.78369
3.78364
3.78312
3.7821
3.77895
3.77468
3.77318
3.77297
3.77302
1
1
1
1
1
1
1
1
1
1
1
1
1
1
1
1
1
0.999998
0.999998
0.999985
1.00026
1.01421
1.10283
1.49878
2.23714
2.99546
3.5456
3.62718
3.69242
3.69984
3.69518
3.70172
3.7077
3.71619
3.7286
3.74241
3.75626
3.76851
3.77548
3.77806
3.77821
3.77818
3.77904
3.77794
3.77492
3.77323
3.77381
3.77366
1
1
1
1
1
1
1
1
1
1
1
1
1
1
1
1
1
1
1
0.999999
0.999999
0.999988
1.00029
1.01028
1.11871
1.45498
2.22878
2.94165
3.49672
3.70066
3.72804
3.7367
3.74003
3.73372
3.73498
3.74338
3.75209
3.76401
3.77294
3.77546
3.77386
3.77169
3.7714
3.7698
3.76717
3.76589
3.76743
3.76803
1
1
1
1
1
1
1
1
1
1
1
1
1
1
1
1
1
1
1
1
1
0.999998
0.999999
0.999988
1.00052
1.00882
1.12386
1.4986
2.25707
2.95188
3.4326
3.67402
3.74582
3.75009
3.7658
3.77103
3.77016
3.77515
3.78305
3.78627
3.78477
3.78122
3.77777
3.77259
3.76948
3.76953
3.77006
3.77056
1
1
1
1
1
1
1
1
1
1
1
1
1
1
1
1
1
1
1
1
1
1
1
0.999998
0.999999
0.999989
1.00081
1.01281
1.12354
1.57614
2.32842
3.10952
3.4142
3.58276
3.71114
3.74359
3.7437
3.75642
3.76801
3.77465
3.7774
3.77486
3.77297
3.77279
3.77412
3.77677
3.77874
3.77848
1
1
1
1
1
1
1
1
1
1
1
1
1
1
1
1
1
1
1
1
1
1
1
1
1
0.999998
0.999999
0.999994
1.00089
1.02209
1.14806
1.66999
2.44118
3.29756
3.5616
3.63361
3.66763
3.70236
3.72975
3.73929
3.74305
3.7477
3.75584
3.76821
3.77442
3.77554
3.77719
3.77771
1
1
1
1
1
1
1
1
1
1
1
1
1
1
1
1
1
1
1
1
1
1
1
1
1
1
1
0.999999
0.999997
1.00002
1.00131
1.03536
1.21561
1.84079
2.67547
3.36119
3.69884
3.73512
3.74895
3.7508
3.74134
3.74445
3.75512
3.76628
3.7724
3.77412
3.77646
3.77699
1
1
1
1
1
1
1
1
1
1
1
1
1
1
1
1
1
1
1
1
1
1
1
1
1
1
1
1
1
1
0.999997
1.00011
1.00309
1.05958
1.35517
2.08204
2.9128
3.47066
3.72048
3.76908
3.7714
3.78724
3.79043
3.79175
3.79156
3.78908
3.78577
3.78302
1
1
1
1
1
1
1
1
1
1
1
1
1
1
1
1
1
1
1
1
1
1
1
1
1
1
1
1
1
1
1
1
0.999996
1.00038
1.00876
1.11316
1.5821
2.46757
3.19562
3.48637
3.65924
3.76059
3.75936
3.77091
3.78248
3.7872
3.78853
3.78453
1
1
1
1
1
1
1
1
1
1
1
1
1
1
1
1
1
1
1
1
1
1
1
1
1
1
1
1
1
1
1
1
0.999999
0.999999
1
1.00145
1.02827
1.23073
1.90133
2.87587
3.53194
3.61617
3.66158
3.706
3.74214
3.76234
3.76848
3.76664
1
1
1
1
1
1
1
1
1
1
1
1
1
1
1
1
1
1
1
1
1
1
1
1
1
1
1
1
1
1
1
1
1
1
1
0.999998
1.00009
1.00544
1.08618
1.49544
2.39848
3.23578
3.6992
3.76393
3.77545
3.7792
3.76939
3.75983
1
1
1
1
1
1
1
1
1
1
1
1
1
1
1
1
1
1
1
1
1
1
1
1
1
1
1
1
1
1
1
1
1
1
1
1
1
1
1.00092
1.02424
1.25084
1.94462
2.89723
3.47494
3.75209
3.79988
3.7977
3.79083
1
1
1
1
1
1
1
1
1
1
1
1
1
1
1
1
1
1
1
1
1
1
1
1
1
1
1
1
1
1
1
1
1
1
1
1
1
1
0.999999
1.00014
1.00659
1.09794
1.6091
2.6218
3.36282
3.5639
3.68668
3.74597
1
1
1
1
1
1
1
1
1
1
1
1
1
1
1
1
1
1
1
1
1
1
1
1
1
1
1
1
1
1
1
1
1
1
1
1
1
1
1
0.999999
1.00001
1.00177
1.04106
1.35341
2.19786
3.22537
3.63546
3.70229
1
1
1
1
1
1
1
1
1
1
1
1
1
1
1
1
1
1
1
1
1
1
1
1
1
1
1
1
1
1
1
1
1
1
1
1
1
1
1
1
1
1
1.00033
1.01689
1.18369
1.92194
2.9209
3.60843
1
1
1
1
1
1
1
1
1
1
1
1
1
1
1
1
1
1
1
1
1
1
1
1
1
1
1
1
1
1
1
1
1
1
1
1
1
1
1
1
1
1
1
1.00012
1.00487
1.11336
1.68371
2.79903
1
1
1
1
1
1
1
1
1
1
1
1
1
1
1
1
1
1
1
1
1
1
1
1
1
1
1
1
1
1
1
1
1
1
1
1
1
1
1
1
1
1
1
1
1.00002
1.00293
1.06191
1.45332
1
1
1
1
1
1
1
1
1
1
1
1
1
1
1
1
1
1
1
1
1
1
1
1
1
1
1
1
1
1
1
1
1
1
1
1
1
1
1
1
1
1
1
1
1
1.00001
1.00103
1.01898
1
1
1
1
1
1
1
1
1
1
1
1
1
1
1
1
1
1
1
1
1
1
1
1
1
1
1
1
1
1
1
1
1
1
1
1
1
1
1
1
1
1
1
1
1
1
1.00001
0.999802
1
1
1
1
1
1
1
1
1
1
1
1
1
1
1
1
1
1
1
1
1
1
1
1
1
1
1
1
1
1
1
1
1
1
1
1
1
1
1
1
1
1
1
1
1
1
1
0.999928
1
1
1
1
1
1
1
1
1
1
1
1
1
1
1
1
1
1
1
1
1
1
1
1
1
1
1
1
1
1
1
1
1
1
1
1
1
1
1
1
1
1
1
1
1
1
1
0.99999
1
1
1
1
1
1
1
1
1
1
1
1
1
1
1
1
1
1
1
1
1
1
1
1
1
1
1
1
1
1
1
1
1
1
1
1
1
1
1
1
1
1
1
1
1
1
1
1
1
1
1
1
1
1
1
1
1
1
1
1
1
1
1
1
1
1
1
1
1
1
1
1
1
1
1
1
1
1
1
1
1
1
1
1
1
1
1
1
1
1
1
1
1
1
1
1
1
1
1
1
1
1
1
1
1
1
1
1
1
1
1
1
1
1
1
1
1
1
1
1
1
1
1
1
1
1
1
1
1
1
1
1
1
1
1
1
1
1
1
1
1
1
1
1
1
1
1
1
1
1
1
1
1
1
1
1
1
1
1
1
1
1
1
1
1
1
1
1
1
1
1
1
1
1
1
1
1
1
1
1
1
1
1
1
1
1
1
1
1
1
1
1
1
1
1
1
1
1
1
1
1
1
1
1
1
1
1
1
1
1
1
1
1
1
1
1
1
1
1
1
1
1
1
1
1
1
1
1
1
1
1
1
1
1
1
1
1
1
1
1
1
1
1
1
1
1
1
1
1
1
1
1
1
1
1
1
1
1
1
1
1
1
1
1
1
1
1
1
1
1
1
1
1
1
1
1
1
1
1
1
1
1
1
1
1
1
1
1
1
1
1
1
1
1
1
1
1
1
1
1
1
1
1
1
1
1
1
1
1
1
1
1
1
1
1
1
1
1
1
1
1
1
1
1
1
1
1
1
1
1
1
1
1
1
1
0.99999
1
1
1
1
1
1
1
1
1
1
1
1
1
1
1
1
1
1
1
1
1
1
1
1
1
1
1
1
1
1
1
1
1
1
1
1
1
1
1
1
1
1
1
1
1
1
1
0.999927
1
1
1
1
1
1
1
1
1
1
1
1
1
1
1
1
1
1
1
1
1
1
1
1
1
1
1
1
1
1
1
1
1
1
1
1
1
1
1
1
1
1
1
1
1
1
1.00001
0.999802
1
1
1
1
1
1
1
1
1
1
1
1
1
1
1
1
1
1
1
1
1
1
1
1
1
1
1
1
1
1
1
1
1
1
1
1
1
1
1
1
1
1
1
1
1
1.00001
1.00104
1.01886
1
1
1
1
1
1
1
1
1
1
1
1
1
1
1
1
1
1
1
1
1
1
1
1
1
1
1
1
1
1
1
1
1
1
1
1
1
1
1
1
1
1
1
1
1.00002
1.00293
1.06195
1.45322
1
1
1
1
1
1
1
1
1
1
1
1
1
1
1
1
1
1
1
1
1
1
1
1
1
1
1
1
1
1
1
1
1
1
1
1
1
1
1
1
1
1
1
1.00012
1.00487
1.11338
1.68354
2.79988
1
1
1
1
1
1
1
1
1
1
1
1
1
1
1
1
1
1
1
1
1
1
1
1
1
1
1
1
1
1
1
1
1
1
1
1
1
1
1
1
1
1
1.00033
1.01689
1.18369
1.92191
2.92079
3.60888
1
1
1
1
1
1
1
1
1
1
1
1
1
1
1
1
1
1
1
1
1
1
1
1
1
1
1
1
1
1
1
1
1
1
1
1
1
1
1
0.999999
1.00001
1.00177
1.04106
1.35342
2.19788
3.2253
3.6355
3.70233
1
1
1
1
1
1
1
1
1
1
1
1
1
1
1
1
1
1
1
1
1
1
1
1
1
1
1
1
1
1
1
1
1
1
1
1
1
1
0.999999
1.00014
1.00659
1.09794
1.60909
2.62181
3.36287
3.56386
3.68665
3.74596
1
1
1
1
1
1
1
1
1
1
1
1
1
1
1
1
1
1
1
1
1
1
1
1
1
1
1
1
1
1
1
1
1
1
1
1
1
1
1.00092
1.02424
1.25085
1.94463
2.8972
3.47497
3.75209
3.79985
3.79767
3.79083
1
1
1
1
1
1
1
1
1
1
1
1
1
1
1
1
1
1
1
1
1
1
1
1
1
1
1
1
1
1
1
1
1
1
1
0.999998
1.00009
1.00544
1.08618
1.49543
2.39849
3.23578
3.69918
3.76395
3.77547
3.7792
3.76937
3.75983
1
1
1
1
1
1
1
1
1
1
1
1
1
1
1
1
1
1
1
1
1
1
1
1
1
1
1
1
1
1
1
1
0.999999
0.999999
1
1.00145
1.02827
1.23073
1.90133
2.87586
3.53195
3.61617
3.66158
3.70599
3.74214
3.76234
3.76848
3.76664
1
1
1
1
1
1
1
1
1
1
1
1
1
1
1
1
1
1
1
1
1
1
1
1
1
1
1
1
1
1
1
1
0.999996
1.00038
1.00876
1.11316
1.5821
2.46758
3.19562
3.48637
3.65924
3.76059
3.75935
3.7709
3.78248
3.7872
3.78853
3.78453
1
1
1
1
1
1
1
1
1
1
1
1
1
1
1
1
1
1
1
1
1
1
1
1
1
1
1
1
1
1
0.999997
1.00011
1.00309
1.05958
1.35517
2.08204
2.9128
3.47065
3.72048
3.76908
3.7714
3.78724
3.79043
3.79174
3.79156
3.78908
3.78577
3.78302
1
1
1
1
1
1
1
1
1
1
1
1
1
1
1
1
1
1
1
1
1
1
1
1
1
1
1
0.999999
0.999997
1.00002
1.00131
1.03536
1.21561
1.84079
2.67547
3.36119
3.69884
3.73512
3.74896
3.7508
3.74134
3.74445
3.75512
3.76628
3.7724
3.77412
3.77645
3.77699
1
1
1
1
1
1
1
1
1
1
1
1
1
1
1
1
1
1
1
1
1
1
1
1
1
0.999998
0.999999
0.999994
1.00089
1.02209
1.14806
1.66999
2.44118
3.29756
3.5616
3.63361
3.66764
3.70236
3.72975
3.73929
3.74305
3.7477
3.75584
3.76821
3.77442
3.77553
3.77719
3.77771
1
1
1
1
1
1
1
1
1
1
1
1
1
1
1
1
1
1
1
1
1
1
1
0.999998
0.999999
0.999989
1.00081
1.01281
1.12354
1.57614
2.32842
3.10952
3.4142
3.58275
3.71114
3.74359
3.7437
3.75642
3.76801
3.77465
3.7774
3.77486
3.77297
3.77279
3.77412
3.77677
3.77875
3.77848
1
1
1
1
1
1
1
1
1
1
1
1
1
1
1
1
1
1
1
1
1
0.999998
0.999999
0.999988
1.00052
1.00882
1.12386
1.4986
2.25707
2.95188
3.4326
3.67402
3.74582
3.75009
3.7658
3.77103
3.77016
3.77515
3.78305
3.78627
3.78477
3.78122
3.77777
3.77259
3.76948
3.76953
3.77006
3.77056
1
1
1
1
1
1
1
1
1
1
1
1
1
1
1
1
1
1
1
0.999999
0.999999
0.999988
1.00029
1.01028
1.11871
1.45498
2.22878
2.94165
3.49672
3.70066
3.72804
3.7367
3.74003
3.73372
3.73498
3.74338
3.75209
3.76401
3.77294
3.77546
3.77386
3.77169
3.7714
3.7698
3.76717
3.76589
3.76743
3.76803
1
1
1
1
1
1
1
1
1
1
1
1
1
1
1
1
1
0.999998
0.999998
0.999985
1.00026
1.01421
1.10283
1.49878
2.23714
2.99546
3.5456
3.62718
3.69242
3.69984
3.69518
3.70173
3.7077
3.71619
3.7286
3.74241
3.75626
3.76851
3.77548
3.77806
3.77821
3.77818
3.77904
3.77794
3.77492
3.77323
3.77381
3.77366
1
1
1
1
1
1
1
1
1
1
1
1
1
1
1
0.999998
0.999998
0.999981
1.00044
1.01196
1.11321
1.57531
2.25451
3.13644
3.46078
3.61017
3.66706
3.71324
3.7313
3.7234
3.71801
3.72428
3.73232
3.74276
3.75422
3.76225
3.76851
3.77395
3.77973
3.78369
3.78364
3.78312
3.7821
3.77895
3.77468
3.77318
3.77297
3.77302
1
1
1
1
1
1
1
1
1
1
1
1
1
0.999998
0.999998
0.999971
1.00061
1.01177
1.1528
1.59016
2.41531
3.13666
3.49777
3.73131
3.78224
3.78643
3.76499
3.74174
3.74116
3.7431
3.74741
3.7507
3.75735
3.76194
3.76331
3.7646
3.76502
3.7664
3.77143
3.77734
3.77936
3.77912
3.77755
3.77543
3.77449
3.77414
3.77357
3.7745
1
1
1
1
1
1
1
1
1
1
1
0.999998
0.999998
0.999968
1.00042
1.01911
1.19999
1.65978
2.55568
3.20573
3.74201
3.88012
3.87751
3.83747
3.78722
3.75665
3.73079
3.71513
3.71725
3.72803
3.74167
3.75882
3.76637
3.77065
3.76938
3.76716
3.76497
3.76321
3.76387
3.76949
3.7724
3.77222
3.77096
3.76963
3.76888
3.76862
3.76722
3.77079
1
1
1
1
1
1
1
1
1
0.999997
0.999998
0.999954
1.00071
1.03278
1.20605
1.82666
2.69492
3.46058
3.91431
3.9054
3.8652
3.82459
3.77237
3.73369
3.70245
3.6887
3.68512
3.69385
3.71595
3.73797
3.75556
3.76898
3.77338
3.77429
3.77387
3.77343
3.77169
3.76967
3.76979
3.77288
3.77581
3.77503
3.77251
3.76956
3.76575
3.76226
3.75996
3.76335
1
1
1
1
1
1
1
0.999999
1
0.999923
1.00228
1.04227
1.29391
1.99437
2.82497
3.75752
3.94942
4.01714
3.97959
3.9224
3.80867
3.73313
3.6853
3.66682
3.67026
3.68113
3.69557
3.71629
3.73733
3.75433
3.76898
3.77715
3.77942
3.77977
3.77832
3.77797
3.77738
3.77627
3.7766
3.77922
3.78345
3.78594
3.78516
3.78252
3.778
3.77073
3.7663
3.76671
1
1
1
1
0.999998
1
1.00002
1.00007
1.00577
1.06784
1.43463
2.12287
3.21997
3.79543
4.03356
4.02399
3.9272
3.88629
3.83852
3.76595
3.75052
3.72291
3.70796
3.71114
3.72469
3.73571
3.74593
3.75886
3.76835
3.77392
3.77888
3.77976
3.77907
3.77717
3.77277
3.76989
3.76774
3.76615
3.76666
3.76945
3.77465
3.78016
3.78291
3.78192
3.77944
3.77472
3.77054
3.77083
1
0.999978
1.00006
1.00009
1.00131
1.01331
1.06226
1.22032
1.60543
2.34385
3.32299
3.90901
4.31591
4.32731
4.25751
4.11389
3.96156
3.7829
3.67394
3.67029
3.67989
3.70182
3.73696
3.75746
3.76245
3.76363
3.76017
3.76136
3.76373
3.76633
3.76846
3.77113
3.77121
3.76977
3.76633
3.76232
3.75987
3.75973
3.76125
3.76447
3.77051
3.77886
3.78446
3.78556
3.78499
3.78263
3.77696
3.77508
1.00234
1.0143
1.07151
1.20671
1.40844
1.76832
2.21752
2.75497
3.31228
3.74048
3.89677
4.04205
4.04891
3.96399
3.84314
3.77984
3.74337
3.70692
3.67331
3.66706
3.67686
3.70102
3.72926
3.74606
3.75164
3.75026
3.75367
3.75698
3.75788
3.7596
3.76436
3.77096
3.77629
3.77956
3.77943
3.77692
3.77285
3.76977
3.76937
3.77018
3.77268
3.77663
3.7791
3.7791
3.77823
3.77549
3.76959
3.76823
1.28946
1.75468
2.32858
2.881
3.56101
4.18385
4.64968
5.1072
5.34645
5.26504
4.93469
4.46481
4.07051
3.79215
3.66755
3.58108
3.55971
3.57774
3.61104
3.64772
3.68609
3.70949
3.7226
3.72996
3.73799
3.74789
3.75797
3.76398
3.76666
3.77059
3.78026
3.793
3.79934
3.7991
3.79615
3.789
3.77894
3.77156
3.76801
3.76693
3.76658
3.76668
3.76896
3.76988
3.76999
3.76907
3.76594
3.76549
2.64047
1.70898
1.18513
0.798139
0.63928
0.668827
0.727451
0.729447
0.767563
0.873631
0.958416
0.957155
0.966066
1.00606
1.02779
1.03456
1.04709
1.07617
1.08065
1.07713
1.07189
1.06864
1.0629
1.0526
1.05166
1.05459
1.05462
1.05114
1.04379
1.0371
1.0359
1.03628
1.03782
1.04191
1.04588
1.04688
1.04736
1.04658
1.04309
1.04248
1.04369
1.04682
1.05063
1.05161
1.05164
1.05106
1.04955
1.04912
1.05474
1.19114
1.8981
3.3182
5.19393
7.76999
10.1685
10.1017
9.36212
8.44436
8.10355
7.89965
7.62353
7.44562
7.33577
7.25277
7.13565
6.99628
6.81606
6.54749
6.34538
6.26756
6.20633
6.1368
6.04445
5.93302
5.75734
5.48259
5.28171
5.20847
5.16642
5.15341
5.1171
5.05602
4.95015
4.75658
4.6066
4.54718
4.50196
4.45204
4.39522
4.31041
4.15335
3.97254
3.89349
3.85701
3.83101
3.82609
3.80908
3.77387
3.71976
3.59169
3.4238
3.33738
3.29703
3.26537
3.23725
3.21265
3.18828
3.15421
3.08146
2.97907
2.9126
2.87528
2.84381
2.81163
2.77162
2.71158
2.63951
2.5986
2.57934
2.56119
2.54144
2.51918
2.48864
2.43299
2.34459
2.28581
2.26678
2.25402
2.24098
2.22503
2.20621
2.18538
2.15261
2.09331
2.02716
1.9886
1.96911
1.95397
1.94116
1.92906
1.91669
1.90269
1.88266
1.84875
1.79287
1.74881
1.73039
1.7185
1.70988
1.70226
1.6941
1.71695
1.81176
2.07432
2.50601
3.04687
3.5592
3.97192
4.34704
4.64673
4.73778
4.69983
4.59639
4.43572
4.25245
4.20469
4.20718
4.21942
4.20992
4.16133
4.12324
4.0744
3.95235
3.83519
3.80312
3.78286
3.77243
3.77425
3.76872
3.7487
3.71175
3.63833
3.5321
3.48314
3.46655
3.45277
3.45262
3.45177
3.43172
3.41186
3.38708
3.29053
3.37216
2.70497
2.21472
1.81518
1.39874
1.25641
1.16138
1.02828
0.992275
0.986623
0.94118
0.90308
0.906518
0.92774
0.961094
0.980909
0.998134
1.03115
1.03682
1.03405
1.03461
1.04277
1.04882
1.04988
1.05503
1.0581
1.0572
1.05219
1.04532
1.04223
1.0422
1.04233
1.04389
1.04809
1.04993
1.05012
1.04984
1.04769
1.04474
1.04369
1.04374
1.04502
1.04736
1.0489
1.04881
1.04742
1.04799
1.06189
1.18293
1.89605
2.87688
3.21734
3.89478
4.78921
6.52059
8.00057
8.62696
8.54621
8.31465
7.99506
7.65142
7.48822
7.39575
7.29859
7.16691
7.02578
6.86543
6.63925
6.37881
6.2196
6.14243
6.08933
6.01881
5.91821
5.78117
5.59022
5.38276
5.24565
5.18309
5.13685
5.07753
5.00158
4.90589
4.78517
4.65095
4.55066
4.48938
4.4433
4.39008
4.30805
4.17615
4.0287
3.93254
3.87939
3.84543
3.81298
3.78336
3.74744
3.69025
3.58786
3.45155
3.36006
3.31048
3.27565
3.24472
3.21223
3.17603
3.13094
3.06971
2.98757
2.92069
2.88168
2.84853
2.81338
2.77367
2.7291
2.67813
2.6321
2.60667
2.58576
2.56356
2.53827
2.50406
2.44703
2.36567
2.30367
2.2738
2.2545
2.24007
2.23373
2.22197
2.20117
2.16989
2.1123
2.03183
2.00345
1.99058
1.97625
1.96107
1.94651
1.93249
1.91767
1.89822
1.86809
1.82075
1.77254
1.74809
1.74021
1.73456
1.75416
1.81483
1.96754
2.22793
2.46727
2.65227
2.85554
3.11093
3.422
3.65138
3.90704
4.0471
4.11859
4.20353
4.26112
4.27951
4.27285
4.26427
4.26381
4.23144
4.1823
4.14045
4.09126
3.99267
3.88377
3.83658
3.81263
3.79553
3.7864
3.77074
3.7482
3.71159
3.64461
3.55017
3.49757
3.48127
3.47065
3.46864
3.45997
3.43866
3.41833
3.39185
3.30243
3.66503
3.33628
2.84456
2.40793
1.97173
1.64577
1.4547
1.25492
1.07289
1.02948
0.975775
0.915995
0.91601
0.930666
0.944292
0.948629
0.958224
0.985
1.00079
1.00486
1.01145
1.02643
1.03806
1.04191
1.04687
1.05142
1.05225
1.05097
1.04813
1.04703
1.0473
1.04799
1.05078
1.05319
1.05299
1.05172
1.04848
1.0444
1.04314
1.04303
1.04332
1.04484
1.04621
1.0471
1.04633
1.04895
1.08988
1.30497
1.92777
3.05483
3.45016
3.37852
3.36446
3.46883
4.06913
5.83725
7.82776
8.72089
8.59586
8.14643
7.70161
7.49179
7.35225
7.19789
7.05454
6.94489
6.8359
6.69023
6.46072
6.21114
6.07745
5.99871
5.92517
5.83761
5.73837
5.64231
5.52824
5.37198
5.20454
5.10177
5.01578
4.91803
4.81977
4.74308
4.67593
4.58938
4.49907
4.41314
4.33237
4.23992
4.13624
4.05702
3.99377
3.92171
3.85318
3.81097
3.76548
3.70532
3.62574
3.53317
3.45597
3.39599
3.33287
3.28096
3.24941
3.22047
3.17868
3.11074
3.02448
2.97582
2.94687
2.91474
2.88093
2.84513
2.80467
2.74775
2.66742
2.60205
2.5709
2.54949
2.52785
2.50273
2.46892
2.41347
2.35572
2.32726
2.30239
2.27962
2.25745
2.22956
2.20211
2.1748
2.13845
2.08557
2.02973
1.99683
1.97906
1.96344
1.94744
1.92869
1.90928
1.88989
1.87054
1.8461
1.80831
1.77644
1.76093
1.76689
1.80619
1.95101
2.17857
2.45341
2.67183
2.77433
2.82848
2.83799
2.8635
2.92452
3.03585
3.21567
3.45022
3.71187
3.95828
4.13004
4.2213
4.23416
4.26117
4.26629
4.24737
4.19816
4.1425
4.08527
4.0132
3.92723
3.86448
3.82135
3.78059
3.74514
3.72479
3.70874
3.67964
3.62751
3.57253
3.52428
3.4808
3.45423
3.43858
3.42419
3.40464
3.38475
3.36092
3.29478
3.74982
3.62411
3.31245
2.92204
2.50127
2.10937
1.84913
1.61838
1.36685
1.27184
1.19367
1.06557
1.02319
1.01864
0.988804
0.955828
0.953689
0.952897
0.94739
0.948757
0.956564
0.980686
1.01107
1.02514
1.03274
1.04024
1.04343
1.04389
1.04235
1.04314
1.04836
1.05698
1.06148
1.06174
1.06096
1.05789
1.05128
1.04703
1.04674
1.04704
1.04785
1.04786
1.04752
1.04703
1.04995
1.10496
1.51997
2.20285
3.02753
3.51501
3.55169
3.49669
3.37788
3.32168
3.33222
3.63427
5.01747
7.23572
8.06596
7.97454
7.78716
7.56032
7.32632
7.09675
6.98113
6.91975
6.83313
6.71409
6.53645
6.26837
6.01932
5.90032
5.82422
5.77767
5.75549
5.70487
5.62183
5.47533
5.24308
5.03554
4.93461
4.85891
4.7929
4.73486
4.67877
4.61696
4.51575
4.36923
4.25732
4.20005
4.16121
4.12456
4.06925
3.99587
3.90848
3.80617
3.71285
3.62857
3.56276
3.5193
3.48606
3.44195
3.38531
3.31845
3.25213
3.20013
3.14244
3.0694
3.0059
2.95961
2.92053
2.88728
2.85604
2.82406
2.78873
2.74166
2.66839
2.59758
2.56217
2.53864
2.51708
2.49307
2.45798
2.40832
2.36235
2.32619
2.29348
2.26421
2.24097
2.22032
2.1963
2.16944
2.12994
2.0728
2.02983
2.00255
1.98085
1.96235
1.94737
1.93117
1.91148
1.88755
1.86552
1.84442
1.81587
1.80184
1.83297
1.95064
2.17322
2.45809
2.69294
2.87329
2.9031
2.89326
2.8776
2.85083
2.82991
2.80643
2.8035
2.82794
2.90616
3.07011
3.34096
3.6418
3.871
4.00588
4.08486
4.11799
4.13195
4.13851
4.135
4.10259
4.04941
3.98756
3.93181
3.86974
3.8016
3.74751
3.72322
3.7007
3.66774
3.62484
3.58926
3.54968
3.50371
3.45801
3.42801
3.41454
3.39981
3.37574
3.34375
3.29075
3.76019
3.73094
3.58311
3.31711
2.94447
2.54569
2.25678
1.97703
1.68593
1.53049
1.42005
1.2607
1.15496
1.10955
1.05194
0.979528
0.964493
0.958442
0.943242
0.943416
0.952226
0.964914
0.982082
0.995941
1.00155
1.00971
1.01715
1.02377
1.03044
1.03395
1.04262
1.05559
1.05812
1.05815
1.05717
1.05416
1.05077
1.05001
1.05087
1.05346
1.05416
1.05296
1.04999
1.05141
1.1011
1.57202
2.53232
3.10345
3.46513
3.55371
3.52686
3.47784
3.38566
3.32681
3.28257
3.21843
3.3415
4.3509
6.18152
7.59541
7.84097
7.6545
7.28891
7.04672
6.96227
6.90781
6.8144
6.68443
6.52835
6.30479
6.03331
5.85115
5.77178
5.72102
5.71041
5.66636
5.59084
5.49043
5.27765
5.01554
4.88813
4.83228
4.78688
4.74973
4.69751
4.62173
4.48114
4.30987
4.22802
4.18611
4.14816
4.11222
4.06628
4.01041
3.91688
3.76389
3.63664
3.5765
3.54169
3.51149
3.47732
3.44367
3.40868
3.36014
3.28245
3.17917
3.10107
3.04334
2.9959
2.95819
2.92425
2.88866
2.85434
2.82513
2.79282
2.74714
2.6779
2.60445
2.56924
2.54994
2.52284
2.48228
2.43204
2.39135
2.36191
2.33298
2.30273
2.26944
2.23698
2.21574
2.19812
2.16974
2.12229
2.06681
2.02673
2.00359
1.98435
1.96222
1.94268
1.93026
1.91962
1.90269
1.87734
1.85328
1.87565
1.96532
2.18231
2.47189
2.75492
2.8583
2.93406
3.00268
3.00029
2.97485
2.93312
2.88369
2.82433
2.77289
2.75649
2.75407
2.7582
2.78625
2.86682
3.04752
3.26652
3.48911
3.72867
3.91682
4.01289
4.05396
4.07579
4.07221
4.0488
3.99655
3.94369
3.90232
3.83923
3.75948
3.71448
3.68069
3.64372
3.6019
3.57303
3.55022
3.52547
3.49339
3.45149
3.41199
3.38316
3.35035
3.31394
3.2688
3.76218
3.74851
3.69866
3.56142
3.30622
2.93841
2.62926
2.34629
2.04688
1.84093
1.68628
1.5037
1.36586
1.29187
1.21888
1.10902
1.07119
1.04586
1.00136
0.981093
0.985048
0.983892
0.971079
0.966933
0.966983
0.968301
0.975669
0.987839
1.00376
1.01916
1.03298
1.04873
1.053
1.0536
1.05322
1.05077
1.04812
1.04833
1.05115
1.0545
1.05435
1.05329
1.05968
1.13309
1.5972
2.74878
3.22588
3.42585
3.54083
3.51169
3.42667
3.39281
3.38002
3.33143
3.26456
3.17491
3.10805
3.16017
3.71579
5.24299
6.96288
7.32556
7.24473
7.13368
7.00963
6.90073
6.76467
6.64841
6.5307
6.34456
6.08937
5.87495
5.74722
5.6758
5.63324
5.60938
5.54182
5.44843
5.28642
5.04568
4.89126
4.82752
4.78494
4.74103
4.68338
4.60416
4.45954
4.28152
4.20851
4.17044
4.1449
4.12721
4.08887
4.03272
3.92375
3.73284
3.59386
3.55188
3.52404
3.50854
3.50922
3.48799
3.45201
3.39627
3.27587
3.12592
3.06229
3.03795
3.01439
2.98725
2.95699
2.92049
2.87665
2.82523
2.77242
2.72672
2.68702
2.64518
2.5924
2.53811
2.49678
2.4594
2.42314
2.39171
2.36459
2.33788
2.30561
2.27168
2.25226
2.22799
2.19217
2.1482
2.10249
2.06346
2.03072
2.00604
1.98648
1.96994
1.95759
1.94172
1.92608
1.90228
1.9057
1.96796
2.15536
2.4558
2.76335
2.92487
3.03973
3.076
3.08261
3.08162
3.06565
3.0231
2.95039
2.8651
2.79457
2.76152
2.74998
2.74476
2.74558
2.75322
2.75825
2.76682
2.80714
2.87712
3.00336
3.23584
3.51098
3.69165
3.80487
3.90402
3.97605
3.99939
3.98878
3.96311
3.9038
3.79354
3.69547
3.652
3.61899
3.59606
3.58088
3.56916
3.55592
3.52889
3.47496
3.39443
3.33851
3.30953
3.2906
3.26575
3.77066
3.76294
3.75381
3.69369
3.53491
3.2718
2.9902
2.67725
2.37916
2.15953
1.96898
1.76214
1.60307
1.4912
1.38582
1.25883
1.19536
1.15132
1.08813
1.02308
1.01602
1.00278
0.978154
0.972955
0.971625
0.968044
0.967779
0.970581
0.979896