/*--------------------------------*- C++ -*----------------------------------*\
  =========                 |
  \\      /  F ield         | OpenFOAM: The Open Source CFD Toolbox
   \\    /   O peration     | Website:  https://openfoam.org
    \\  /    A nd           | Version:  7
     \\/     M anipulation  |
\*---------------------------------------------------------------------------*/
FoamFile
{
    version     2.0;
    format      ascii;
    class       volScalarField;
    location    "1.6";
    object      T;
}
// * * * * * * * * * * * * * * * * * * * * * * * * * * * * * * * * * * * * * //

dimensions      [0 0 0 1 0 0 0];

internalField   nonuniform List<scalar> 
18432
(
1
1
1
1
1
1
1
1
1
1
1
1
1
1
1
1
1
1
1
1
1
1
1
1
1
1
1
1
1
1
1
1
1
1
1
1
1
1
1
1
1
1
1
1
1
1
1
1
1
1
1
1
1
1
1
1
1
1
1
1
1
1
1
1
1
1
1
1
1
1
1
1
1
1
1
1
1
1
1
1
1
1
1
1
1
1
1
1
1
1
1
1
1
1
1
1
1
1
1
1
1
1
1
1
1
1
1
1
1
1
1
1
1
1
1
1
1
1
1
1
1
1
1
1
1
1
1
1
1
1
1
1
1
1
1
1
1
1
1
1
1
1
1
1
1
1
1
1
1
1
1
1
1
1
1
1
1
1
1
1
1
1
1
1
1
1
1
1
1
1
1
1
1
1
1
1
1
1
1
1
1
1
1
1
1
1
1
1
1
1
1
1
1
1
1
1
1
1
1
1
1
1
1
1
1
1
1
1
1
1
1
1
1
1
1
1
1
1
1
1
1
1
1
1
1
1
1
1
1
1
1
1
1
1
1
1
1
1
1
1
1
1
1
1
1
1
1
1
1
1
1
1
1
1
1
1
1
1
1
1
1
1
1
1
1
1
1
1
1
1
1
1
1
1
1
1
1
1
1
1
1
1
1
1
1
1
1
1
1
1
1
1
1
1
1
1
1
1
1
1
1
1
1
1
1
1
1
1
1
1
1
1
1
1
1
1
1
1
1
1
1
1
1
1
1
1
1
1
1
1
1
1
1
1
1
1
1
1
1
1
1
1
1
1
1
1
1
1
1
1
1
1
1
1
1
1
1
1
1
1
1
1
1
1
1
1
1
1
1
1
1
1
1
1
1
1
1
1
1
1
1
1
1
1
1
1
1
1
1
1
1
1
1
1
1
1
1
1
1
1
1
1
1
1
1
1
1
1
1
1
1
1
1
1
1
1
1
1
1
1
1
1
1
1
1
1
1
1
1
1
1
1
1
1
1
1
1
1
1
1
1
1
1
1
1
1
1
1
1
1
1
1
1
1
1
1
1
1
1
1
1
1
1
1
1
1
1
1
1
1
1
1
1
1
1
1
1
1
1
1
1
1
1
1
1
1
1
1
1
1
1
1
1
1
1
1
1
1
1
1
1
1
1
1
1
1
1
1
1
1
1
1
1
1
1
1
1
1
1
1
1
1
1
1
1
1
1
1
1
1
1
1
1
1
1
1
1
1
1
1
1
1
1
1
1
1
1
1
1
1
1
1
1
1
1
1
1
1
1
1
1
1
1
1
1
1
1
1
1
1
1
1
1
1
1
1
1
1
1
1
1
1
1
1
1
1
1
1
1
1
1
1
1
1
1
1
1
1
1
1
1
1
1
1
1
1
1
1
1
1
1
1
1
1
1
1
1
1
1
1
1
1
1
1
1
1
1
1
1
1
1
1
1
1
1
1
1
1
1
1
1
1
1
1
1
1
1
1
1
1
1
1
1
1
1
1
1
1
1
1
1
1
1
1
1
1
1
1
1
1
1
1
1
1
1
1
1
1
1
1
1
1
1
1
1
1
1
1
1
1
1
1
1
1
1
1
1
1
1
1
1
1
1
1
1
1
1
1
1
1
1
1
1
1
1
1
1
1
1
1
1
1
1
1
1
1
1
1
1
1
1
1
1
1
1
1
1
1
1
1
1
1
1
1
1
1
1
1
1
1
1
1
1
1
1
1
1
1
1
1
1
1
1
1
1
1
1
1
1
1
1
1
1
1
1
1
1
1
1
1
1
1
1
1
1
1
1
1
1
1
1
1
1
1
1
1
1
1
1
1
1
1
1
1
1
1
1
1
1
1
1
1
1
1
1
1
1
1
1
1
1
1
1
1
1
1
1
1
1
1
1
1
1
1
1
1
1
1
1
1
1
1
1
1
1
1
1
1
1
1
1
1
1
1
1
1
1
1
1
1
1
1
1
1
1
1
1
1
1
1
1
1
1
1
1
1
1
1
1
1
1
1
1
1
1
1
1
1
1
1
1
1
1
1
1
1
1
1
1
1
1
1
1
1
1
1
1
1
1
1
1
1
1
1
1
1
1
1
1
1
1
1
1
1
1
1
1
1
1
1
1
1
1
1
1
1
1
1
1
1
1
1
1
1
1
1
1
1
1
1
1
1
1
1
1
1
1
1
1
1
1
1
1
1
1
1
1
1
1
1
1
1
1
1
1
1
1
1
1
1
1
1
1
1
1
1
1
1
1
1
1
1
1
1
1
1
1
1
1
1
1
1
1
1
1
1
1
1
1
1
1
1
1
1
1
1
1
1
1
1
1
1
1
1
1
1
1
1
1
1
1
1
1
1
1
1
1
1
1
1
1
1
1
1
1
1
1
1
1
1
1
1
1
1
1
1
1
1
1
1
1
1
1
1
1
1
1
1
1
1
1
1
1
1
1
1
1
1
1
1
1
1
1
1
1
1
1
1
1
1
1
1
1
1
1
1
1
1
1
1
1
1
1
1
1
1
1
1
1
1
1
1
1
1
1
1
1
1
1
1
1
1
1
1
1
1
1
1
1
1
1
1
1
1
1
1
1
1
1
1
1
1
1
1
1
1
1
1
1
1
1
1
1
1
1
1
1
1
1
1
1
1
1
1
1
1
1
1
1
1
1
1
1
1
1
1
1
1
1
1
1
1
1
1
1
1
1
1
1
1
1
1
1
1
1
1
1
1
1
1
1
1
1
1
1
1
1
1
1
1
1
1
1
1
1
1
1
1
1
1
1
1
1
1
1
1
1
1
1
1
1
1
1
1
1
1
1
1
1
1
1
1
1
1
1
1
1
1
1
1
1
1
1
1
1
1
1
1
1
1
1
1
1
1
1
1
1
1
1
1
1
1
1
1
1
1
1
1
1
1
1
1
1
1
1
1
1
1
1
1
1
1
1
1
1
1
1
1
1
1
1
1
1
1
1
1
1
1
1
1
1
1
1
1
1
1
1
1
1
1
1
1
1
1
1
1
1
1
1
1
1
1
1
1
1
1
1
1
1
1
1
1
1
1
1
1
1
1
1
1
1
1
1
1
1
1
1
1
1
1
1
1
1
1
1
1
1
1
1
1
1
1
1
1
1
1
1
1
1
1
1
1
1
1
1
1
1
1
1
1
1
1
1
1
1
1
1
1
1
1
1
1
1
1
1
1
1
1
1
1
1
1
1
1
1
1
1
1
1
1
1
1
1
1
1
1
1
1
1
1
1
1
1
1
1
1
1
1
1
1
1
1
1
1
1
1
1
1
1
1
1
1
1
1
1
1
1
1
1
1
1
1
1
1
1
1
1
1
1
1
1
1
1
1
1
1
1
1
1
1
1
1
1
1
1
1
1
1
1
1
1
1
1
1
1
1
1
1
1
1
1
1
1
1
1
1
1
1
1
1
1
1
1
1
1
1
1
1
1
1
1
1
1
1
1
1
1
1
1
1
1
1
1
1
1
1
1
1
1
1
1
1
1
1
1
1
1
1
1
1
1
1
1
1
1
1
1
1
1
1
1
1
1
1
1
1
1
1
1
1
1
1
1
1
1
1
1
1
1
1
1
1
1
1
1
1
1
1
1
1
1
1
1
1
1
1
1
1
1
1
1
1
1
1
1
1
1
1
1
1
1
1
1
1
1
1
1
1
1
1
1
1
1
1
1
1
1
1
1
1
1
1
1
1
1
1
1
1
1
1
1
1
1
1
1
1
1
1
1
1
1
1
1
1
1
1
1
1
1
1
1
1
1
1
1
1
1
1
1
1
1
1
1
1
1
1
1
1
1
1
1
1
1
1
1
1
1
1
1
1
1
1
1
1
1
1
1
1
1
1
1
1
1
1
1
1
1
1
1
1
1
1
1
1
1
1
1
1
1
1
1
1
1
1
1
1
1
1
1
1
1
1
1
1
1
1
1
1
1
1
1
1
1
1
1
1
1
1
1
1
1
1
1
1
1
1
1
1
1
1
1
1
1
1
1
1
1
1
1
1
1
1
1
1
1
1
1
1
1
1
1
1
1
1
1
1
1
1
1
1
1
1
1
1
1
1
1
1
1
1
1
1
1
1
1
1
1
1
1
1
1
1
1
1
1
1
1
1
1
1
1
1
1
1
1
1
1
1
1
1
1
1
1
1
1
1
1
1
1
1
1
1
1
1
1
1
1
1
1
1
1
1
1
1
1
1
1
1
1
1
1
1
1
1
1
1
1
1
1
1
1
1
1
1
1
1
1
1
1
1
1
1
1
1
1
1
1
1
1
1
1
1
1
1
1
1
1
1
1
1
1
1
1
1
1
1
1
1
1
1
1
1
1
1
1
1
1
1
1
1
1
1
1
1
1
1
1
1
1
1
1
1
1
1
1
1
1
1
1
1
1
1
1
1
1
1
1
1
1
1
1
1
1
1
1
1
1
1
1
1
1
1
1
1
1
1
1
1
1
1
1
1
1
1
1
1
1
1
1
1
1
1
1
1
1
1
1
1
1
1
1
1
1
1
1
1
1
1
1
1
1
1
1
1
1
1
1
1
1
1
1
1
1
1
1
1
1
1
1
1
1
1
1
1
1
1
1
1
1
1
1
1
1
1
1
1
1
1
1
1
1
1
1
1
1
1
1
1
1
1
1
1
1
1
1
1
1
1
1
1
1
1
1
1
1
1
1
1
1
1
1
1
1
1
1
1
1
1
1
1
1
1
1
1
1
1
1
1
1
1
1
1
1
1
1
1
1
1
1
1
1
1
1
1
1
1
1
1
1
1
1
1
1
1
1
1
1
1
1
1
1
1
1
1
1
1
1
1
1
1
1
1
1
1
1
1
1
1
1
1
1
1
1
1
1
1
1
1
1
1
1
1
1
1
1
1
1
1
1
1
1
1
1
1
1
1
1
1
1
1
1
1
1
1
1
1
1
1
1
1
1
1
1
1
1
1
1
1
1
1
1
1
1
1
1
1
1
1
1
1
1
1
1
1
1
1
1
1
1
1
1
1
1
1
1
1
1
1
1
1
1
1
1
1
1
1
1
1
1
1
1
1
1
1
1
1
1
1
1
1
1
1
1
1
1
1
1
1
1
1
1
1
1
1
1
1
1
1
1
1
1
1
1
1
1
1
1
1
1
1
1
1
1
1
1
1
1
1
1
1
1
1
1
1
1
1
1
1
1
1
1
1
1
1
1
1
1
1
1
1
1
1
1
1
1
1
1
1
1
1
1
1
1
1
1
1
1
1
1
1
1
1
1
1
1
1
1
1
1
1
1
1
1
1
1
1
1
1
1
1
1
1
1
1
1
1
1
1
1
1
1
1
1
1
1
1
1
1
1
1
1
1
1
1
1
1
1
1
1
1
1
1
1
1
1
1
1
1
1
1
1
1
1
1
1
1
1
1
1
1
1
1
1
1
1
1
1
1
1
1
1
1
1
1
1
1
1
1
1
1
1
1
1
1
1
1
1
1
1
1
1
1
1
1
1
1
1
1
1
1
1
1
1
1
1
1
1
1
1
1
1
1
1
1
1
1
1
1
1
1
1
1
1
1
1
1
1
1
1
1
1
1
1
1
1
1
1
1
1
1
1
1
1
1
1
1
1
1
1
1
1
1
1
1
1
1
1
1
1
1
1
1
1
1
1
1
1
1
1
1
1
1
1
1
1
1
1
1
1
1
1
1
1
1
1
1
1
1
1
1
1
1
1
1
1
1
1
1
1
1
1
1
1
1
1
1
1
1
1
1
1
1
1
1
1
1
1
1
1
1
1
1
1
1
1
1
1
1
1
1
1
1
1
1
1
1
1
1
1
1
1
1
1
1
1
1
1
1
1
1
1
1
1
1
1
1
1
1
1
1
1
1
1
1
1
1
1
1
1
1
1
1
1
1
1
1
1
1
1
1
1
1
1
1
1
1
1
1
1
1
1
1
1
1
1
1
1
1
1
1
1
1
1
1
1
1
1
1
1
1
1
1
1
1
1
1
1
1
1
1
1
1
1
1
1
1
1
1
1
1
1
1
1
1
1
1
1
1
1
1
1
1
1
1
1
1
1
1
1
1
1
1
1
1
1
1
1
1
1
1
1
1
1
1
1
1
1
1
1
1
1
1
1
1
1
1
1
1
1
1
1
1
1
1
1
1
1
1
1
1
1
1
1
1
1
1
1
1
1
1
1
1
1
1
1
1
1
1
1
1
1
1
1
1
1
1
1
1
1
1
1
1
1
1
1
1
1
1
1
1
1
1
1
1
1
1
1
1
1
1
1
1
1
1
1
1
1
1
1
1
1
1
1
1
1
1
1
1
1
1
1
1
1
1
1
1
1
1
1
1
1
1
1
1
1
1
1
1
1
1
1
1
1
1
1
1
1
1
1
1
1
1
1
1
1
1
1
1
1
1
1
1
1
1
1
1
1
1
1
1
1
1
1
1
1
1
1
1
1
1
1
1
1
1
1
1
1
1
1
1
1
1
1
1
1
1
1
1
1
1
1
1
1
1
1
1
1
1
1
1
1
1
1
1
1
1
1
1
1
1
1
1
1
1
1
1
1
1
1
1
1
1
1
1
1
1
1
1
1
1
1
1
1
1
1
1
1
1
1
1
1
1
1
1
1
1
1
1
1
1
1
1
1
1
1
1
1
1
1
1
1
1
1
1
1
1
1
1
1
1
1
1
1
1
1
1
1
1
1
1
1
1
1
1
1
1
1
1
1
1
1
1
1
1
1
1
1
1
1
1
1
1
1
1
1
1
1
1
1
1
1
1
1
1
1
1
1
1
1
1
1
1
1
1
1
1
1
1
1
1
1
1
1
1
1
1
1
1
1
1
1
1
1
1
1
1
1
1
1
1
1
1
1
1
1
1
1
1
1
1
1
1
1
1
1
1
1
1
1
1
1
1
1
1
1
1
1
1
1
1
1
1
1
1
1
1
1
1
1
1
1
1
1.07774
1.18067
1.28705
1.37714
1.47553
1.55909
1.61772
1.66906
1.69631
1.69082
1.66055
1.61237
1.57093
1.53985
1.52676
1.51461
1.51314
1.51558
1.52036
1.52572
1.53072
1.53323
1.53456
1.53559
1.53708
1.53911
1.54101
1.54182
1.54198
1.54241
1.54393
1.54599
1.54701
1.54713
1.54704
1.54631
1.54508
1.54437
1.54427
1.54442
1.54469
1.54489
1.54525
1.54542
1.54554
1.54554
1.54539
1.54548
1.00074
1.00479
1.02468
1.06972
1.12825
1.21582
1.30002
1.37966
1.4515
1.50688
1.52957
1.5554
1.56881
1.56368
1.55374
1.54593
1.54069
1.5358
1.53301
1.53317
1.53442
1.53704
1.53998
1.54179
1.54287
1.54323
1.5442
1.5446
1.54447
1.5445
1.5451
1.54617
1.5471
1.54769
1.54772
1.54742
1.54683
1.54649
1.54651
1.5468
1.54735
1.54791
1.54814
1.54812
1.548
1.54772
1.54713
1.54747
1
0.999993
1.00002
1.00003
1.00046
1.00462
1.02168
1.07418
1.18342
1.34351
1.50166
1.57993
1.62545
1.62431
1.61466
1.59735
1.57915
1.55788
1.5462
1.54613
1.54733
1.54979
1.55353
1.55497
1.55524
1.55541
1.55517
1.55532
1.55523
1.55496
1.55461
1.5546
1.55463
1.55445
1.55394
1.5532
1.55245
1.55212
1.55209
1.55233
1.55302
1.55386
1.55419
1.55407
1.55368
1.55319
1.55238
1.55311
1
1
1
1
0.999999
1
1
1.00003
1.00208
1.02598
1.15513
1.32995
1.51623
1.58665
1.60693
1.60418
1.59199
1.588
1.58316
1.57514
1.57254
1.56866
1.56617
1.56534
1.5661
1.56674
1.56757
1.56899
1.56961
1.56945
1.56903
1.56839
1.56794
1.5674
1.5665
1.56555
1.56449
1.56349
1.56307
1.56308
1.56335
1.56353
1.56335
1.56261
1.56157
1.56058
1.5597
1.56061
1
1
1
1
1
1
1
1
1
0.99997
1.00084
1.01627
1.1098
1.30133
1.4569
1.59027
1.61281
1.61838
1.61315
1.60553
1.59095
1.58127
1.57461
1.57097
1.57093
1.57164
1.57299
1.57517
1.57695
1.57782
1.5786
1.57915
1.5792
1.57902
1.57832
1.5775
1.57641
1.57533
1.57489
1.5749
1.57501
1.57485
1.57408
1.57286
1.57142
1.5701
1.56896
1.56979
1
1
1
1
1
1
1
1
1
0.999999
0.999999
0.999981
1.00025
1.01225
1.07721
1.25955
1.43436
1.55199
1.6081
1.6053
1.59936
1.59431
1.58751
1.58246
1.57956
1.57825
1.57711
1.57749
1.57893
1.58066
1.58256
1.58447
1.5847
1.58446
1.58386
1.58304
1.58215
1.58146
1.58134
1.58145
1.58145
1.58097
1.57998
1.57887
1.5778
1.57705
1.57627
1.57715
1
1
1
1
1
1
1
1
1
1
1
0.999999
0.999999
0.999988
1.00014
1.00695
1.07412
1.21328
1.40287
1.50514
1.58018
1.59804
1.59789
1.59394
1.5894
1.58578
1.5812
1.5786
1.57879
1.58017
1.58215
1.58455
1.5853
1.58517
1.5846
1.5838
1.58336
1.58322
1.58336
1.58387
1.58393
1.58356
1.58287
1.58232
1.58201
1.58183
1.5814
1.58195
1
1
1
1
1
1
1
1
1
1
1
1
1
0.999999
0.999999
0.999989
1.0002
1.0042
1.05551
1.19148
1.36952
1.48878
1.54068
1.57549
1.5825
1.58275
1.5801
1.5782
1.57878
1.57928
1.58008
1.58074
1.58178
1.58241
1.58235
1.58233
1.58251
1.58298
1.58389
1.58458
1.58466
1.58445
1.5839
1.58357
1.58353
1.5835
1.58335
1.58341
1
1
1
1
1
1
1
1
1
1
1
1
1
1
1
0.999999
0.999999
0.999993
1.00014
1.00419
1.04074
1.18501
1.33652
1.48147
1.52922
1.55078
1.56147
1.56932
1.57221
1.57138
1.57159
1.57277
1.57415
1.57578
1.57746
1.5788
1.58009
1.58131
1.58243
1.5831
1.58315
1.58316
1.58312
1.58297
1.58279
1.58281
1.58286
1.58277
1
1
1
1
1
1
1
1
1
1
1
1
1
1
1
1
1
0.999999
0.999999
0.999995
1.00008
1.00491
1.03669
1.16011
1.33022
1.4575
1.53484
1.54871
1.55866
1.56173
1.56221
1.56387
1.56518
1.56663
1.56863
1.57114
1.57363
1.57567
1.57711
1.57799
1.57842
1.57892
1.57962
1.58007
1.58031
1.58056
1.58108
1.58098
1
1
1
1
1
1
1
1
1
1
1
1
1
1
1
1
1
1
1
1
1
0.999995
1.00009
1.0035
1.04226
1.14719
1.32419
1.44622
1.52675
1.55391
1.55797
1.56018
1.56193
1.56226
1.5632
1.56505
1.56662
1.56842
1.57024
1.57164
1.57235
1.573
1.57381
1.57435
1.57478
1.57532
1.57638
1.57658
1
1
1
1
1
1
1
1
1
1
1
1
1
1
1
1
1
1
1
1
1
0.999999
1
0.999995
1.00016
1.003
1.04306
1.15993
1.32683
1.4435
1.51265
1.54482
1.55586
1.55889
1.5628
1.56351
1.56331
1.56388
1.56547
1.56716
1.56818
1.56869
1.5689
1.56892
1.56922
1.57004
1.57142
1.57185
1
1
1
1
1
1
1
1
1
1
1
1
1
1
1
1
1
1
1
1
1
1
1
0.999999
1
0.999996
1.00025
1.00438
1.04257
1.17939
1.33867
1.46394
1.50729
1.53263
1.55197
1.55606
1.55552
1.55684
1.55916
1.56135
1.56291
1.56332
1.56335
1.56349
1.56413
1.56526
1.56701
1.56762
1
1
1
1
1
1
1
1
1
1
1
1
1
1
1
1
1
1
1
1
1
1
1
1
1
0.999999
1
0.999997
1.00028
1.00754
1.05099
1.20162
1.36027
1.49197
1.52852
1.53792
1.54239
1.54689
1.5512
1.55377
1.55541
1.55674
1.55771
1.55862
1.55963
1.56054
1.56233
1.56316
1
1
1
1
1
1
1
1
1
1
1
1
1
1
1
1
1
1
1
1
1
1
1
1
1
1
1
1
0.999999
1
1.00042
1.012
1.07325
1.24049
1.39928
1.50363
1.54688
1.54937
1.5511
1.55284
1.55309
1.55409
1.55508
1.55564
1.55643
1.55752
1.55931
1.55995
1
1
1
1
1
1
1
1
1
1
1
1
1
1
1
1
1
1
1
1
1
1
1
1
1
1
1
1
1
1
0.999999
1.00003
1.00101
1.02024
1.11718
1.29116
1.43755
1.51542
1.54792
1.55526
1.55657
1.5586
1.55816
1.55761
1.55758
1.5579
1.55862
1.55881
1
1
1
1
1
1
1
1
1
1
1
1
1
1
1
1
1
1
1
1
1
1
1
1
1
1
1
1
1
1
1
1
0.999999
1.00011
1.00294
1.03834
1.18024
1.3626
1.47833
1.51806
1.54312
1.55509
1.55398
1.55459
1.5557
1.55706
1.55826
1.55837
1
1
1
1
1
1
1
1
1
1
1
1
1
1
1
1
1
1
1
1
1
1
1
1
1
1
1
1
1
1
1
1
1
1
1
1.00045
1.00964
1.07671
1.25431
1.43199
1.52743
1.53666
1.54192
1.54634
1.55078
1.55438
1.55625
1.55618
1
1
1
1
1
1
1
1
1
1
1
1
1
1
1
1
1
1
1
1
1
1
1
1
1
1
1
1
1
1
1
1
1
1
1
0.999999
1.00002
1.00175
1.0294
1.15358
1.35263
1.48752
1.54989
1.55426
1.55549
1.5573
1.55672
1.55558
1
1
1
1
1
1
1
1
1
1
1
1
1
1
1
1
1
1
1
1
1
1
1
1
1
1
1
1
1
1
1
1
1
1
1
1
1
1
1.00028
1.008
1.084
1.26087
1.437
1.51908
1.55435
1.56094
1.56066
1.55957
1
1
1
1
1
1
1
1
1
1
1
1
1
1
1
1
1
1
1
1
1
1
1
1
1
1
1
1
1
1
1
1
1
1
1
1
1
1
1
1.00004
1.00215
1.03267
1.18563
1.39179
1.50384
1.53052
1.54776
1.55443
1
1
1
1
1
1
1
1
1
1
1
1
1
1
1
1
1
1
1
1
1
1
1
1
1
1
1
1
1
1
1
1
1
1
1
1
1
1
1
1
1
1.00054
1.01384
1.1137
1.31485
1.4855
1.54227
1.54907
1
1
1
1
1
1
1
1
1
1
1
1
1
1
1
1
1
1
1
1
1
1
1
1
1
1
1
1
1
1
1
1
1
1
1
1
1
1
1
1
1
1
1.0001
1.00546
1.06139
1.25624
1.44024
1.54009
1
1
1
1
1
1
1
1
1
1
1
1
1
1
1
1
1
1
1
1
1
1
1
1
1
1
1
1
1
1
1
1
1
1
1
1
1
1
1
1
1
1
1
1.00003
1.00155
1.03744
1.20311
1.42016
1
1
1
1
1
1
1
1
1
1
1
1
1
1
1
1
1
1
1
1
1
1
1
1
1
1
1
1
1
1
1
1
1
1
1
1
1
1
1
1
1
1
1
1
1
1.0009
1.0207
1.1383
1
1
1
1
1
1
1
1
1
1
1
1
1
1
1
1
1
1
1
1
1
1
1
1
1
1
1
1
1
1
1
1
1
1
1
1
1
1
1
1
1
1
1
1
1
1
1.00031
1.00609
1
1
1
1
1
1
1
1
1
1
1
1
1
1
1
1
1
1
1
1
1
1
1
1
1
1
1
1
1
1
1
1
1
1
1
1
1
1
1
1
1
1
1
1
1
1
1
0.999934
1
1
1
1
1
1
1
1
1
1
1
1
1
1
1
1
1
1
1
1
1
1
1
1
1
1
1
1
1
1
1
1
1
1
1
1
1
1
1
1
1
1
1
1
1
1
1
0.999978
1
1
1
1
1
1
1
1
1
1
1
1
1
1
1
1
1
1
1
1
1
1
1
1
1
1
1
1
1
1
1
1
1
1
1
1
1
1
1
1
1
1
1
1
1
1
1
0.999997
1
1
1
1
1
1
1
1
1
1
1
1
1
1
1
1
1
1
1
1
1
1
1
1
1
1
1
1
1
1
1
1
1
1
1
1
1
1
1
1
1
1
1
1
1
1
1
1
1
1
1
1
1
1
1
1
1
1
1
1
1
1
1
1
1
1
1
1
1
1
1
1
1
1
1
1
1
1
1
1
1
1
1
1
1
1
1
1
1
1
1
1
1
1
1
1
1
1
1
1
1
1
1
1
1
1
1
1
1
1
1
1
1
1
1
1
1
1
1
1
1
1
1
1
1
1
1
1
1
1
1
1
1
1
1
1
1
1
1
1
1
1
1
1
1
1
1
1
1
1
1
1
1
1
1
1
1
1
1
1
1
1
1
1
1
1
1
1
1
1
1
1
1
1
1
1
1
1
1
1
1
1
1
1
1
1
1
1
1
1
1
1
1
1
1
1
1
1
1
1
1
1
1
1
1
1
1
1
1
1
1
1
1
1
1
1
1
1
1
1
1
1
1
1
1
1
1
1
1
1
1
1
1
1
1
1
1
1
1
1
1
1
1
1
1
1
1
1
1
1
1
1
1
1
1
1
1
1
1
1
1
1
1
1
1
1
1
1
1
1
1
1
1
1
1
1
1
1
1
1
1
1
1
1
1
1
1
1
1
1
1
1
1
1
1
1
1
1
1
1
1
1
1
1
1
1
1
1
1
1
1
1
1
1
1
1
1
1
1
1
1
1
1
1
1
1
1
1
1
1
1
1
1
1
1
0.999997
1
1
1
1
1
1
1
1
1
1
1
1
1
1
1
1
1
1
1
1
1
1
1
1
1
1
1
1
1
1
1
1
1
1
1
1
1
1
1
1
1
1
1
1
1
1
1
0.999978
1
1
1
1
1
1
1
1
1
1
1
1
1
1
1
1
1
1
1
1
1
1
1
1
1
1
1
1
1
1
1
1
1
1
1
1
1
1
1
1
1
1
1
1
1
1
1
0.999934
1
1
1
1
1
1
1
1
1
1
1
1
1
1
1
1
1
1
1
1
1
1
1
1
1
1
1
1
1
1
1
1
1
1
1
1
1
1
1
1
1
1
1
1
1
1
1.00031
1.00606
1
1
1
1
1
1
1
1
1
1
1
1
1
1
1
1
1
1
1
1
1
1
1
1
1
1
1
1
1
1
1
1
1
1
1
1
1
1
1
1
1
1
1
1
1
1.0009
1.02071
1.13829
1
1
1
1
1
1
1
1
1
1
1
1
1
1
1
1
1
1
1
1
1
1
1
1
1
1
1
1
1
1
1
1
1
1
1
1
1
1
1
1
1
1
1
1.00003
1.00155
1.03745
1.20308
1.42032
1
1
1
1
1
1
1
1
1
1
1
1
1
1
1
1
1
1
1
1
1
1
1
1
1
1
1
1
1
1
1
1
1
1
1
1
1
1
1
1
1
1
1.0001
1.00546
1.06139
1.25624
1.44023
1.54015
1
1
1
1
1
1
1
1
1
1
1
1
1
1
1
1
1
1
1
1
1
1
1
1
1
1
1
1
1
1
1
1
1
1
1
1
1
1
1
1
1
1.00054
1.01384
1.11371
1.31486
1.48549
1.54227
1.54907
1
1
1
1
1
1
1
1
1
1
1
1
1
1
1
1
1
1
1
1
1
1
1
1
1
1
1
1
1
1
1
1
1
1
1
1
1
1
1
1.00004
1.00216
1.03267
1.18563
1.39179
1.50385
1.53052
1.54775
1.55443
1
1
1
1
1
1
1
1
1
1
1
1
1
1
1
1
1
1
1
1
1
1
1
1
1
1
1
1
1
1
1
1
1
1
1
1
1
1
1.00028
1.008
1.084
1.26088
1.43699
1.51908
1.55435
1.56093
1.56065
1.55957
1
1
1
1
1
1
1
1
1
1
1
1
1
1
1
1
1
1
1
1
1
1
1
1
1
1
1
1
1
1
1
1
1
1
1
0.999999
1.00002
1.00175
1.0294
1.15358
1.35264
1.48751
1.54988
1.55427
1.55549
1.5573
1.55672
1.55558
1
1
1
1
1
1
1
1
1
1
1
1
1
1
1
1
1
1
1
1
1
1
1
1
1
1
1
1
1
1
1
1
1
1
1
1.00045
1.00964
1.07671
1.25431
1.43199
1.52743
1.53666
1.54192
1.54634
1.55078
1.55438
1.55625
1.55618
1
1
1
1
1
1
1
1
1
1
1
1
1
1
1
1
1
1
1
1
1
1
1
1
1
1
1
1
1
1
1
1
0.999999
1.00011
1.00294
1.03834
1.18024
1.3626
1.47833
1.51806
1.54312
1.55509
1.55398
1.55459
1.5557
1.55706
1.55826
1.55837
1
1
1
1
1
1
1
1
1
1
1
1
1
1
1
1
1
1
1
1
1
1
1
1
1
1
1
1
1
1
0.999999
1.00003
1.00101
1.02024
1.11718
1.29116
1.43755
1.51542
1.54792
1.55526
1.55657
1.5586
1.55816
1.55761
1.55758
1.5579
1.55862
1.55881
1
1
1
1
1
1
1
1
1
1
1
1
1
1
1
1
1
1
1
1
1
1
1
1
1
1
1
1
0.999999
1
1.00042
1.012
1.07325
1.24049
1.39928
1.50363
1.54689
1.54937
1.5511
1.55284
1.55309
1.55409
1.55508
1.55564
1.55643
1.55752
1.55931
1.55995
1
1
1
1
1
1
1
1
1
1
1
1
1
1
1
1
1
1
1
1
1
1
1
1
1
0.999999
1
0.999997
1.00028
1.00754
1.05099
1.20162
1.36027
1.49197
1.52852
1.53792
1.54239
1.54689
1.5512
1.55377
1.55541
1.55674
1.55771
1.55862
1.55963
1.56054
1.56233
1.56316
1
1
1
1
1
1
1
1
1
1
1
1
1
1
1
1
1
1
1
1
1
1
1
0.999999
1
0.999996
1.00025
1.00438
1.04257
1.17939
1.33867
1.46394
1.50729
1.53263
1.55197
1.55606
1.55552
1.55684
1.55916
1.56135
1.56291
1.56332
1.56335
1.56349
1.56413
1.56526
1.56701
1.56762
1
1
1
1
1
1
1
1
1
1
1
1
1
1
1
1
1
1
1
1
1
0.999999
1
0.999995
1.00016
1.003
1.04306
1.15993
1.32683
1.4435
1.51265
1.54482
1.55586
1.55889
1.5628
1.56351
1.56331
1.56388
1.56547
1.56716
1.56818
1.56869
1.5689
1.56892
1.56922
1.57004
1.57142
1.57185
1
1
1
1
1
1
1
1
1
1
1
1
1
1
1
1
1
1
1
1
1
0.999995
1.00009
1.0035
1.04226
1.14719
1.32419
1.44622
1.52675
1.55391
1.55797
1.56018
1.56193
1.56226
1.5632
1.56505
1.56662
1.56842
1.57024
1.57164
1.57235
1.573
1.57381
1.57435
1.57478
1.57532
1.57638
1.57658
1
1
1
1
1
1
1
1
1
1
1
1
1
1
1
1
1
0.999999
0.999999
0.999995
1.00008
1.00491
1.03669
1.16011
1.33022
1.4575
1.53484
1.54871
1.55866
1.56173
1.56221
1.56387
1.56518
1.56663
1.56863
1.57114
1.57363
1.57567
1.57711
1.57799
1.57842
1.57892
1.57962
1.58007
1.58031
1.58056
1.58108
1.58098
1
1
1
1
1
1
1
1
1
1
1
1
1
1
1
0.999999
0.999999
0.999993
1.00014
1.00419
1.04074
1.18501
1.33652
1.48147
1.52922
1.55078
1.56147
1.56932
1.57221
1.57138
1.57159
1.57277
1.57415
1.57578
1.57746
1.5788
1.58009
1.58131
1.58243
1.5831
1.58315
1.58316
1.58312
1.58297
1.58279
1.58281
1.58286
1.58277
1
1
1
1
1
1
1
1
1
1
1
1
1
0.999999
0.999999
0.999989
1.0002
1.0042
1.05551
1.19148
1.36951
1.48878
1.54068
1.57549
1.5825
1.58275
1.5801
1.5782
1.57878
1.57928
1.58008
1.58074
1.58178
1.58241
1.58235
1.58233
1.58251
1.58298
1.58389
1.58458
1.58466
1.58445
1.5839
1.58357
1.58353
1.5835
1.58335
1.58341
1
1
1
1
1
1
1
1
1
1
1
0.999999
0.999999
0.999988
1.00014
1.00695
1.07412
1.21328
1.40287
1.50514
1.58018
1.59804
1.59789
1.59394
1.5894
1.58578
1.5812
1.5786
1.57879
1.58017
1.58215
1.58455
1.5853
1.58517
1.5846
1.5838
1.58336
1.58322
1.58336
1.58387
1.58393
1.58356
1.58287
1.58232
1.58201
1.58183
1.5814
1.58195
1
1
1
1
1
1
1
1
1
0.999999
0.999999
0.999981
1.00025
1.01225
1.07721
1.25955
1.43436
1.55199
1.6081
1.6053
1.59936
1.59431
1.58751
1.58246
1.57956
1.57825
1.57711
1.57749
1.57893
1.58066
1.58256
1.58447
1.5847
1.58446
1.58386
1.58304
1.58215
1.58146
1.58134
1.58145
1.58145
1.58097
1.57998
1.57887
1.5778
1.57705
1.57627
1.57715
1
1
1
1
1
1
1
1
1
0.99997
1.00084
1.01627
1.1098
1.30133
1.4569
1.59027
1.61281
1.61838
1.61315
1.60553
1.59095
1.58127
1.57461
1.57097
1.57093
1.57164
1.57299
1.57517
1.57695
1.57782
1.5786
1.57915
1.5792
1.57902
1.57832
1.5775
1.57641
1.57533
1.57489
1.5749
1.57501
1.57485
1.57408
1.57286
1.57142
1.5701
1.56896
1.56979
1
1
1
1
0.999999
1
1
1.00003
1.00208
1.02598
1.15513
1.32995
1.51623
1.58665
1.60693
1.60418
1.59199
1.588
1.58316
1.57514
1.57254
1.56866
1.56617
1.56534
1.5661
1.56674
1.56757
1.56899
1.56961
1.56945
1.56903
1.56839
1.56794
1.5674
1.5665
1.56555
1.56449
1.56349
1.56307
1.56308
1.56335
1.56353
1.56335
1.56261
1.56157
1.56058
1.5597
1.56061
1
0.999993
1.00002
1.00003
1.00046
1.00462
1.02168
1.07418
1.18342
1.34351
1.50166
1.57993
1.62545
1.62431
1.61466
1.59735
1.57915
1.55788
1.5462
1.54613
1.54733
1.54979
1.55353
1.55497
1.55524
1.55541
1.55517
1.55532
1.55523
1.55496
1.55461
1.5546
1.55463
1.55445
1.55394
1.5532
1.55245
1.55212
1.55209
1.55233
1.55302
1.55386
1.55419
1.55407
1.55368
1.55319
1.55238
1.55311
1.00074
1.00479
1.02468
1.06972
1.12825
1.21582
1.30002
1.37966
1.4515
1.50688
1.52957
1.5554
1.56881
1.56368
1.55374
1.54593
1.54069
1.5358
1.53301
1.53317
1.53442
1.53704
1.53998
1.54179
1.54287
1.54323
1.5442
1.5446
1.54447
1.5445
1.5451
1.54617
1.5471
1.54769
1.54772
1.54742
1.54683
1.54649
1.54651
1.5468
1.54735
1.54791
1.54814
1.54812
1.548
1.54772
1.54713
1.54747
1.07774
1.18067
1.28705
1.37714
1.47553
1.55909
1.61772
1.66906
1.69631
1.69082
1.66055
1.61237
1.57093
1.53985
1.52676
1.51461
1.51314
1.51558
1.52036
1.52572
1.53072
1.53323
1.53456
1.53559
1.53708
1.53911
1.54101
1.54182
1.54198
1.54241
1.54393
1.54599
1.54701
1.54713
1.54704
1.54631
1.54508
1.54437
1.54427
1.54442
1.54469
1.54489
1.54525
1.54542
1.54554
1.54554
1.54539
1.54548
1.40118
1.23822
1.12349
1.01946
0.969266
0.989137
1.01795
1.01877
1.03605
1.08006
1.10206
1.09638
1.0952
1.10203
1.10957
1.11303
1.11794
1.12489
1.12366
1.12068
1.11787
1.11719
1.11604
1.11291
1.11172
1.11167
1.11119
1.10948
1.10678
1.10463
1.10399
1.10367
1.1036
1.10428
1.10531
1.10538
1.10535
1.10478
1.10321
1.10284
1.10295
1.10347
1.10446
1.10471
1.10467
1.10435
1.10322
1.10284
1.1046
1.1506
1.35058
1.60006
1.81278
2.03701
2.22719
2.23229
2.18484
2.11555
2.09163
2.08031
2.06239
2.04985
2.04061
2.03332
2.02404
2.0136
1.99986
1.97787
1.95974
1.95199
1.94632
1.94036
1.93217
1.92182
1.90507
1.87901
1.85975
1.85274
1.84868
1.84741
1.84371
1.83745
1.82668
1.80651
1.79097
1.78507
1.78015
1.77431
1.76743
1.75717
1.73807
1.71599
1.70627
1.70175
1.69866
1.69825
1.69635
1.69216
1.68537
1.66857
1.64564
1.63373
1.62828
1.62418
1.6207
1.6177
1.61464
1.61036
1.60026
1.58471
1.57396
1.56765
1.56226
1.55689
1.55052
1.5412
1.52998
1.52346
1.52032
1.51722
1.51368
1.50956
1.50399
1.49413
1.47853
1.46827
1.46511
1.46298
1.46065
1.45777
1.4544
1.45063
1.44446
1.4328
1.41926
1.41143
1.40756
1.40451
1.40188
1.39935
1.3968
1.394
1.39001
1.38305
1.37114
1.36129
1.35706
1.3542
1.35198
1.34974
1.34795
1.35369
1.37646
1.43408
1.51687
1.60536
1.67817
1.73121
1.77609
1.80957
1.82093
1.81763
1.80702
1.7885
1.76697
1.76041
1.76044
1.76163
1.76045
1.75489
1.75064
1.74462
1.72909
1.71391
1.7096
1.70752
1.70716
1.70777
1.70722
1.70464
1.69983
1.69057
1.67656
1.66897
1.66584
1.66319
1.66266
1.66195
1.65861
1.65608
1.65312
1.64053
1.50146
1.41131
1.33362
1.26215
1.16778
1.1336
1.11123
1.07488
1.07298
1.07593
1.06512
1.05463
1.05574
1.06234
1.07319
1.08032
1.08668
1.09685
1.09766
1.09643
1.09657
1.09945
1.10239
1.10323
1.10463
1.10492
1.10448
1.10265
1.1006
1.09985
1.09984
1.09969
1.09977
1.10069
1.10132
1.10143
1.10135
1.10051
1.09918
1.09857
1.09851
1.09876
1.09951
1.09996
1.09989
1.09911
1.09946
1.10403
1.14328
1.33817
1.53775
1.58368
1.67122
1.77315
1.94524
2.07511
2.13138
2.129
2.11532
2.09332
2.068
2.05678
2.04936
2.04088
2.02989
2.01874
2.00627
1.98771
1.96492
1.95034
1.94312
1.93846
1.93245
1.92352
1.91059
1.8921
1.87199
1.85866
1.85248
1.84772
1.8415
1.83373
1.82413
1.81166
1.79749
1.78672
1.7799
1.77453
1.76817
1.75841
1.74243
1.72416
1.71228
1.70576
1.70171
1.6978
1.6942
1.68977
1.68243
1.66903
1.65037
1.63772
1.631
1.62648
1.62262
1.61849
1.61357
1.60742
1.59893
1.58694
1.57641
1.56985
1.56423
1.55837
1.55184
1.54472
1.53675
1.52929
1.52506
1.52146
1.51748
1.51285
1.50677
1.49706
1.48305
1.47235
1.46717
1.46369
1.46094
1.45961
1.45739
1.45359
1.44778
1.43666
1.42051
1.41485
1.41229
1.40938
1.40629
1.40324
1.40025
1.39715
1.39327
1.38729
1.3775
1.36698
1.36146
1.35951
1.35784
1.36218
1.37602
1.40997
1.46324
1.50834
1.54096
1.5754
1.61535
1.66071
1.69077
1.72252
1.73974
1.74947
1.76099
1.76859
1.77064
1.76929
1.76812
1.76817
1.76479
1.75967
1.7548
1.74848
1.73556
1.7213
1.71528
1.7128
1.71145
1.71053
1.70848
1.70543
1.70084
1.69257
1.68
1.67187
1.66873
1.6664
1.66532
1.6633
1.66003
1.65754
1.6544
1.64298
1.53851
1.49742
1.43143
1.36482
1.28649
1.2227
1.18156
1.13251
1.08421
1.07266
1.05656
1.03929
1.03997
1.04557
1.05063
1.05266
1.05608
1.06442
1.06937
1.07093
1.07322
1.07818
1.08301
1.08525
1.08707
1.0888
1.0894
1.08934
1.08904
1.08897
1.08921
1.08959
1.09053
1.09135
1.09137
1.09125
1.09069
1.08946
1.08882
1.08875
1.08886
1.08941
1.09007
1.09058
1.09041
1.09157
1.10567
1.17494
1.32795
1.53869
1.61049
1.60257
1.60098
1.61574
1.69832
1.90165
2.09183
2.16278
2.15144
2.11513
2.07912
2.06408
2.05424
2.04213
2.0296
2.01992
2.01106
1.99905
1.97894
1.95672
1.94442
1.93711
1.93067
1.92318
1.91443
1.90481
1.89292
1.87725
1.8606
1.84985
1.84056
1.83013
1.81987
1.81217
1.80508
1.79543
1.78501
1.77474
1.76519
1.75404
1.74149
1.7314
1.72323
1.71439
1.7062
1.70098
1.69527
1.68753
1.6771
1.66446
1.65369
1.64518
1.63654
1.62943
1.62516
1.62129
1.61579
1.60632
1.59378
1.58654
1.58195
1.57659
1.571
1.56523
1.55868
1.54951
1.53658
1.52593
1.52069
1.51683
1.51269
1.50795
1.50183
1.49221
1.48241
1.4778
1.47353
1.46931
1.46516
1.45996
1.45479
1.44954
1.44253
1.43221
1.42105
1.41425
1.41055
1.40731
1.40403
1.40019
1.39626
1.39242
1.38853
1.38339
1.37526
1.36841
1.365
1.36639
1.37546
1.40811
1.45522
1.50656
1.54418
1.5623
1.57233
1.57398
1.57809
1.58754
1.60486
1.63216
1.66641
1.70343
1.73652
1.75959
1.77069
1.77063
1.77263
1.77329
1.77112
1.7653
1.75866
1.75145
1.74189
1.73051
1.7228
1.7178
1.71251
1.70761
1.70483
1.70286
1.69942
1.69316
1.68549
1.67791
1.67091
1.66626
1.66317
1.66037
1.65757
1.65525
1.6524
1.64395
1.55595
1.53827
1.4973
1.44343
1.37902
1.31424
1.26626
1.21662
1.15717
1.13425
1.113
1.0776
1.06559
1.06465
1.0563
1.04785
1.04771
1.04746
1.04577
1.04632
1.0489
1.05654
1.06602
1.07051
1.07288
1.07504
1.07645
1.07735
1.07761
1.0783
1.08015
1.08283
1.08457
1.08475
1.08462
1.08392
1.0822
1.08108
1.0811
1.08133
1.08167
1.0818
1.08198
1.0823
1.08353
1.10186
1.23286
1.38852
1.52058
1.60784
1.62529
1.62247
1.61234
1.60386
1.60525
1.65126
1.83661
2.07076
2.12875
2.11667
2.10029
2.08212
2.06381
2.04671
2.03672
2.03024
2.02198
2.01144
1.996
1.97201
1.94901
1.93746
1.92998
1.92567
1.92386
1.91917
1.91094
1.89601
1.87211
1.8504
1.83923
1.83075
1.82357
1.81763
1.81162
1.80455
1.79281
1.77542
1.76172
1.75445
1.74971
1.74518
1.73808
1.72896
1.71823
1.70546
1.69358
1.68256
1.67363
1.66732
1.6625
1.6561
1.64812
1.63863
1.62909
1.62159
1.61386
1.60346
1.59341
1.58559
1.57917
1.5738
1.56882
1.56391
1.55874
1.5515
1.53967
1.52809
1.52219
1.51802
1.51372
1.50895
1.50239
1.49318
1.48489
1.4784
1.47265
1.46767
1.46382
1.46034
1.45591
1.45051
1.44253
1.43118
1.42259
1.4169
1.41236
1.40853
1.40547
1.40229
1.39861
1.39393
1.38931
1.38457
1.37818
1.37542
1.38268
1.40923
1.45564
1.50996
1.55011
1.57912
1.58484
1.58424
1.58302
1.57945
1.57578
1.57115
1.57155
1.57607
1.58937
1.61612
1.65769
1.70155
1.73325
1.75014
1.75807
1.76233
1.76244
1.76202
1.76145
1.75773
1.75184
1.74423
1.73691
1.72843
1.71857
1.71131
1.70858
1.70607
1.70214
1.69666
1.69134
1.68478
1.67731
1.67026
1.66561
1.66338
1.66121
1.65813
1.65391
1.6465
1.56616
1.55974
1.53842
1.50221
1.44934
1.38992
1.34328
1.29128
1.23113
1.19836
1.1734
1.13416
1.10564
1.09273
1.07565
1.05375
1.05019
1.04888
1.04433
1.04429
1.04701
1.05103
1.05644
1.06059
1.06209
1.06422
1.0661
1.06813
1.07061
1.07218
1.075
1.0787
1.07977
1.07984
1.07965
1.07897
1.07819
1.07814
1.07875
1.0799
1.08018
1.07993
1.07932
1.07986
1.09623
1.23727
1.46201
1.55238
1.60145
1.62528
1.62513
1.62467
1.62043
1.61505
1.60745
1.59666
1.61658
1.76974
1.97964
2.11213
2.11977
2.10337
2.07249
2.05344
2.04603
2.04014
2.03056
2.0182
2.0045
1.9845
1.95904
1.94118
1.933
1.92738
1.92592
1.92174
1.91491
1.90501
1.88252
1.8545
1.84069
1.83447
1.8293
1.82508
1.81932
1.8108
1.7948
1.77438
1.76368
1.7583
1.75366
1.7493
1.74363
1.73661
1.7247
1.70558
1.68891
1.68068
1.67585
1.67186
1.6671
1.66211
1.65667
1.64937
1.63816
1.62337
1.61179
1.60294
1.59505
1.58858
1.58295
1.57734
1.57199
1.56747
1.56288
1.55621
1.54526
1.53293
1.52646
1.52265
1.51765
1.51016
1.50074
1.49286
1.48712
1.48157
1.47629
1.47094
1.4657
1.46179
1.45818
1.45242
1.44284
1.4317
1.42378
1.41921
1.41534
1.41085
1.40675
1.4041
1.40198
1.3985
1.39315
1.38832
1.39341
1.41335
1.45878
1.51444
1.56268
1.57965
1.59126
1.60283
1.60318
1.60065
1.59517
1.58734
1.57777
1.56903
1.5671
1.56713
1.5682
1.57363
1.58791
1.61771
1.65201
1.68512
1.71792
1.74248
1.75362
1.75821
1.76005
1.75942
1.7565
1.75002
1.74301
1.73656
1.72695
1.71629
1.71107
1.70746
1.70319
1.69741
1.69281
1.6888
1.68432
1.67923
1.67311
1.66754
1.66351
1.65887
1.65365
1.64665
1.57445
1.57051
1.56165
1.54172
1.50614
1.45438
1.40787
1.36004
1.30619
1.2687
1.23721
1.19515
1.16199
1.14396
1.12478
1.09399
1.0836
1.07649
1.06348
1.05691
1.05809
1.05779
1.05431
1.05314
1.05278
1.05315
1.05547
1.05937
1.06445
1.06935
1.07325
1.07739
1.07854
1.07876
1.0787
1.07822
1.07767
1.07783
1.07899
1.08035
1.0804
1.08012
1.08218
1.10657
1.24301
1.49118
1.58684
1.61633
1.63167
1.62847
1.61933
1.62005
1.62298
1.61996
1.61143
1.5967
1.58484
1.59311
1.68198
1.88567
2.05887
2.08281
2.07531
2.06482
2.05387
2.04424
2.03178
2.02045
2.00907
1.99248
1.96954
1.94916
1.93659
1.92922
1.92457
1.92199
1.91516
1.90567
1.88904
1.86319
1.8459
1.83862
1.83349
1.82839
1.82218
1.81363
1.79708
1.77548
1.76597
1.76073
1.75712
1.75465
1.74989
1.74298
1.72947
1.70509
1.68666
1.68097
1.67723
1.67504
1.67491
1.67159
1.66597
1.65765
1.64045
1.61875
1.60882
1.60463
1.60075
1.59635
1.59149
1.58572
1.57897
1.57116
1.56321
1.55651
1.5504
1.54322
1.53359
1.52368
1.51643
1.50973
1.50289
1.49688
1.49162
1.48651
1.4806
1.47447
1.4709
1.46645
1.45957
1.45095
1.44154
1.43333
1.4267
1.42171
1.4177
1.41431
1.41166
1.40815
1.40454
1.39959
1.40063
1.41497
1.45466
1.51259
1.56639
1.59308
1.61077
1.6166
1.61865
1.61874
1.61681
1.61114
1.60071
1.5873
1.5754
1.56971
1.5683
1.56795
1.5684
1.57055
1.57221
1.57411
1.58111
1.59299
1.61379
1.65
1.68979
1.71449
1.72972
1.74249
1.74978
1.7521
1.7508
1.74726
1.73884
1.72364
1.71124
1.7063
1.70239
1.69922
1.69672
1.69447
1.69177
1.68732
1.67953
1.66835
1.66053
1.65627
1.65341
1.64918
1.58064
1.57827
1.5755
1.56596
1.54372
1.50764
1.46743
1.41892
1.3702
1.33339
1.29776
1.2548
1.22096
1.19645
1.17096
1.13778
1.12166
1.11022
1.09288
1.07343
1.07119
1.0672
1.05989
1.05801
1.05722
1.05603
1.05613
1.05722
1.06045
1.06652
1.07192
1.0751
1.0771
1.07787
1.07823
1.07898
1.07931
1.07976
1.08153
1.08199
1.0822
1.0876
1.14685
1.28874
1.50525
1.62789
1.63548
1.63596
1.63375
1.63297
1.62291
1.6167
1.61552
1.61532
1.61252
1.5971
1.58057
1.57007
1.57034
1.61356
1.782
1.97006
2.05302
2.06251
2.05289
2.03419
2.0229
2.0153
2.00598
1.9939
1.97664
1.95675