/*--------------------------------*- C++ -*----------------------------------*\
  =========                 |
  \\      /  F ield         | OpenFOAM: The Open Source CFD Toolbox
   \\    /   O peration     | Website:  https://openfoam.org
    \\  /    A nd           | Version:  7
     \\/     M anipulation  |
\*---------------------------------------------------------------------------*/
FoamFile
{
    version     2.0;
    format      ascii;
    class       volVectorField;
    location    "1.6";
    object      U;
}
// * * * * * * * * * * * * * * * * * * * * * * * * * * * * * * * * * * * * * //

dimensions      [0 1 -1 0 0 0 0];

internalField   nonuniform List<vector> 
18432
(
(3 3.70428e-17 0)
(3 -3.61377e-17 0)
(3 5.29711e-17 0)
(3 7.41337e-17 0)
(3 7.86666e-16 0)
(3 1.06095e-15 0)
(3 5.72698e-16 0)
(3 1.89211e-16 0)
(3 1.33492e-16 0)
(3 3.35681e-16 0)
(3 9.65644e-16 0)
(3 1.26644e-15 0)
(3 5.34281e-16 0)
(3 1.86986e-16 0)
(3 1.06942e-17 0)
(3 -2.35091e-16 0)
(3 -6.23717e-16 0)
(3 -1.26814e-15 0)
(3 -1.96017e-15 0)
(3 -6.80053e-16 0)
(3 3.01888e-16 0)
(3 9.70639e-16 0)
(3 9.47105e-16 0)
(3 -1.89219e-16 0)
(3 -9.95312e-16 0)
(3 -1.31792e-15 0)
(3 -5.56172e-16 0)
(3 1.63717e-16 0)
(3 -2.55624e-16 0)
(3 -4.70437e-16 0)
(3 -7.45836e-16 0)
(3 3.46737e-16 0)
(3 1.92117e-16 0)
(3 4.21237e-17 0)
(3 -1.14931e-16 0)
(3 -1.79073e-16 0)
(3 -2.24967e-16 0)
(3 1.6936e-16 0)
(3 2.39458e-17 0)
(3 -3.73681e-18 0)
(3 1.59496e-16 0)
(3 8.23169e-16 0)
(3 1.26158e-15 0)
(3 1.12429e-15 0)
(3 3.70632e-16 0)
(3 -2.50255e-16 0)
(3 -1.97734e-16 0)
(3 5.34359e-16 0)
(3 1.81397e-16 0)
(3 6.18006e-17 0)
(3 4.27014e-16 0)
(3 3.68191e-16 0)
(3 8.36909e-16 0)
(3 7.16693e-16 0)
(3 3.86526e-16 0)
(3 -2.16757e-17 0)
(3 -1.5618e-16 0)
(3 -1.76052e-17 0)
(3 4.53041e-16 0)
(3 4.26158e-16 0)
(3 -2.00163e-16 0)
(3 -5.15737e-16 0)
(3 -6.7977e-16 0)
(3 -8.81359e-16 0)
(3 -1.30109e-15 0)
(3 -2.81908e-15 0)
(3 -5.04983e-15 0)
(3 -4.37171e-15 0)
(3 -1.92516e-15 0)
(3 -6.03503e-16 0)
(3 2.0962e-17 0)
(3 3.5392e-16 0)
(3 -4.47827e-16 0)
(3 -1.14699e-15 0)
(3 -1.09205e-15 0)
(3 -6.73205e-16 0)
(3 -5.24482e-16 0)
(3 -4.26515e-16 0)
(3 -3.21086e-16 0)
(3 -9.58923e-18 0)
(3 1.41398e-16 0)
(3 -2.52018e-16 0)
(3 -7.11845e-16 0)
(3 -9.88792e-16 0)
(3 -8.03006e-16 0)
(3 -6.91363e-16 0)
(3 -2.61232e-16 0)
(3 -2.56309e-16 0)
(3 -1.21043e-16 0)
(3 1.73849e-15 0)
(3 2.23601e-15 0)
(3 1.31946e-15 0)
(3 -7.98275e-16 0)
(3 -2.16033e-15 0)
(3 -2.62248e-15 0)
(3 -2.66554e-15 0)
(3 6.14995e-17 0)
(3 -2.48718e-16 0)
(3 -1.74913e-16 0)
(3 -1.83462e-16 0)
(3 -2.15288e-16 0)
(3 -1.26663e-16 0)
(3 1.39151e-16 0)
(3 3.6914e-16 0)
(3 4.18498e-16 0)
(3 7.87316e-16 0)
(3 1.30694e-15 0)
(3 1.15287e-15 0)
(3 -8.77793e-16 0)
(3 -1.87765e-15 0)
(3 -3.40419e-15 0)
(3 -3.00415e-15 0)
(3 -1.95944e-15 0)
(3 -1.48882e-15 0)
(3 -3.55306e-15 0)
(3 -4.49156e-15 0)
(3 -4.56883e-15 0)
(3 -4.17427e-15 0)
(3 -2.85531e-15 0)
(3 -9.08353e-18 0)
(3 8.12521e-16 0)
(3 5.14331e-16 0)
(3 4.24232e-16 0)
(3 6.35556e-16 0)
(3 1.14556e-15 0)
(3 6.2617e-16 0)
(3 6.2995e-16 0)
(3 -3.51925e-16 0)
(3 -8.24548e-17 0)
(3 -4.26895e-16 0)
(3 -1.24394e-15 0)
(3 -1.61529e-15 0)
(3 -1.70165e-15 0)
(3 -2.24189e-15 0)
(3 -1.71117e-15 0)
(3 -6.84532e-16 0)
(3 -5.54869e-16 0)
(3 -2.92539e-16 0)
(3 -9.77561e-17 0)
(3 -5.05329e-16 0)
(3 -1.15919e-15 0)
(3 2.22278e-17 0)
(3 5.81649e-16 0)
(3 8.57585e-18 0)
(3 -1.10643e-16 0)
(3 -3.35972e-16 0)
(3 -2.97719e-16 0)
(3 -6.14566e-16 0)
(3 -7.66234e-16 0)
(3 -2.8937e-16 0)
(3 3.2561e-16 0)
(3 1.13271e-15 0)
(3 5.89554e-16 0)
(3 8.94013e-16 0)
(3 2.49317e-15 0)
(3 3.3495e-15 0)
(3 2.08657e-15 0)
(3 -5.98716e-16 0)
(3 -1.47956e-15 0)
(3 -1.32998e-15 0)
(3 -1.12426e-15 0)
(3 -1.5675e-15 0)
(3 -1.97769e-15 0)
(3 -2.39952e-15 0)
(3 -2.74865e-15 0)
(3 -2.15226e-15 0)
(3 -6.25362e-16 0)
(3 -5.60413e-17 0)
(3 -6.45087e-16 0)
(3 -5.75681e-16 0)
(3 4.33564e-16 0)
(3 1.72851e-15 0)
(3 1.26275e-15 0)
(3 -1.33606e-16 0)
(3 -8.72512e-16 0)
(3 -6.93486e-16 0)
(3 -8.11935e-16 0)
(3 -1.33445e-15 0)
(3 -1.98652e-15 0)
(3 -1.91962e-15 0)
(3 -1.58577e-15 0)
(3 -1.43927e-15 0)
(3 -2.04752e-15 0)
(3 -9.56834e-16 0)
(3 -8.44134e-16 0)
(3 -9.02516e-16 0)
(3 -5.32063e-16 0)
(3 4.04505e-16 0)
(3 1.9539e-15 0)
(3 2.00516e-15 0)
(3 2.8262e-15 0)
(3 3.23016e-15 0)
(3 -2.11365e-16 0)
(3 6.86629e-17 0)
(3 1.85701e-16 0)
(3 5.11886e-16 0)
(3 3.30934e-16 0)
(3 1.29261e-16 0)
(3 3.86846e-16 0)
(3 4.49236e-16 0)
(3 5.14711e-16 0)
(3 3.94904e-16 0)
(3 5.82164e-16 0)
(3 2.34701e-15 0)
(3 3.54059e-15 0)
(3 2.80648e-15 0)
(3 2.67357e-15 0)
(3 1.56782e-15 0)
(3 -2.71585e-17 0)
(3 -8.97387e-16 0)
(3 -2.33017e-17 0)
(3 1.65191e-15 0)
(3 1.54931e-15 0)
(3 1.15054e-15 0)
(3 6.289e-16 0)
(3 -1.8513e-15 0)
(3 -2.42538e-15 0)
(3 -1.01818e-15 0)
(3 -5.44676e-16 0)
(3 -7.16923e-16 0)
(3 -1.33688e-15 0)
(3 -1.63411e-15 0)
(3 -1.47479e-15 0)
(3 -1.59908e-15 0)
(3 -1.92289e-15 0)
(3 -2.21618e-15 0)
(3 -1.80604e-15 0)
(3 -1.24791e-15 0)
(3 -4.83313e-16 0)
(3 3.12763e-16 0)
(3 7.13546e-17 0)
(3 -1.27507e-15 0)
(3 -8.88285e-16 0)
(3 -1.10472e-15 0)
(3 -6.70869e-16 0)
(3 -1.07123e-16 0)
(3 1.0829e-15 0)
(3 5.10898e-16 0)
(3 2.04956e-15 0)
(3 2.47479e-15 0)
(3 -9.38084e-17 0)
(3 -6.46507e-18 0)
(3 -1.72767e-16 0)
(3 1.25903e-16 0)
(3 1.71991e-16 0)
(3 2.7377e-16 0)
(3 2.37758e-16 0)
(3 -9.32823e-17 0)
(3 1.54349e-16 0)
(3 4.11171e-16 0)
(3 6.81312e-16 0)
(3 1.21381e-15 0)
(3 2.53176e-15 0)
(3 2.7646e-15 0)
(3 1.51704e-15 0)
(3 1.84967e-16 0)
(3 7.50015e-16 0)
(3 1.5268e-15 0)
(3 3.35931e-15 0)
(3 4.76497e-15 0)
(3 4.06984e-15 0)
(3 2.21674e-15 0)
(3 -3.01734e-16 0)
(3 -1.36177e-15 0)
(3 -8.51223e-16 0)
(3 4.65664e-16 0)
(3 8.43131e-17 0)
(3 -1.4307e-15 0)
(3 -1.71124e-15 0)
(3 -1.0547e-15 0)
(3 1.19828e-16 0)
(3 -4.38695e-17 0)
(3 -7.173e-16 0)
(3 -7.09027e-16 0)
(3 -6.17736e-17 0)
(3 -2.5588e-16 0)
(3 -2.55917e-16 0)
(3 -1.09136e-16 0)
(3 7.43013e-17 0)
(3 -1.07561e-15 0)
(3 1.72213e-18 0)
(3 1.23989e-15 0)
(3 8.78925e-16 0)
(3 4.68575e-16 0)
(3 1.19349e-16 0)
(3 9.43612e-16 0)
(3 1.01502e-15 0)
(3 1.32757e-15 0)
(3 1.00244e-16 0)
(3 2.64258e-16 0)
(3 6.45466e-17 0)
(3 -1.55524e-16 0)
(3 -3.00303e-17 0)
(3 -4.63888e-16 0)
(3 -7.84755e-16 0)
(3 -7.1998e-16 0)
(3 -1.74882e-16 0)
(3 3.6326e-16 0)
(3 9.74415e-16 0)
(3 1.09026e-15 0)
(3 1.64106e-15 0)
(3 1.95755e-15 0)
(3 1.1554e-15 0)
(3 4.13606e-16 0)
(3 1.69556e-15 0)
(3 2.478e-15 0)
(3 3.12008e-15 0)
(3 3.27751e-15 0)
(3 3.17066e-15 0)
(3 2.66264e-15 0)
(3 9.61207e-16 0)
(3 1.89067e-15 0)
(3 2.39098e-15 0)
(3 1.98778e-15 0)
(3 2.0521e-15 0)
(3 2.17454e-15 0)
(3 2.13678e-15 0)
(3 2.55238e-15 0)
(3 1.72148e-15 0)
(3 5.56077e-16 0)
(3 -4.59337e-17 0)
(3 3.58853e-18 0)
(3 -1.88002e-16 0)
(3 -6.38259e-16 0)
(3 -1.22437e-15 0)
(3 -7.25648e-16 0)
(3 -2.46574e-16 0)
(3 -4.57416e-16 0)
(3 4.97093e-17 0)
(3 7.58178e-16 0)
(3 4.38799e-16 0)
(3 -1.49841e-16 0)
(3 -7.57908e-16 0)
(3 5.40927e-16 0)
(3 5.20362e-16 0)
(3 1.75512e-15 0)
(3 5.95688e-17 0)
(3 3.45757e-16 0)
(3 2.88652e-16 0)
(3 4.54507e-16 0)
(3 4.37522e-16 0)
(3 -9.2227e-17 0)
(3 -8.19378e-16 0)
(3 -8.72509e-16 0)
(3 -4.68008e-16 0)
(3 -1.50668e-16 0)
(3 -2.38951e-16 0)
(3 5.89103e-16 0)
(3 8.95614e-16 0)
(3 4.17867e-16 0)
(3 4.85172e-16 0)
(3 1.28437e-15 0)
(3 9.49379e-16 0)
(3 5.29072e-16 0)
(3 9.22845e-16 0)
(3 1.64409e-15 0)
(3 2.51663e-15 0)
(3 1.83846e-15 0)
(3 9.98706e-16 0)
(3 2.71126e-15 0)
(3 3.43403e-15 0)
(3 2.87866e-15 0)
(3 2.34751e-15 0)
(3 2.57223e-15 0)
(3 3.61011e-15 0)
(3 3.29324e-15 0)
(3 1.35893e-15 0)
(3 1.35308e-16 0)
(3 -2.941e-16 0)
(3 -9.92022e-16 0)
(3 -2.08066e-15 0)
(3 -1.99525e-15 0)
(3 -7.7171e-16 0)
(3 -4.75342e-16 0)
(3 -8.3032e-16 0)
(3 -1.04407e-15 0)
(3 -1.32182e-15 0)
(3 -1.26993e-15 0)
(3 -9.95558e-16 0)
(3 -8.8429e-16 0)
(3 -7.29957e-16 0)
(3 -1.00499e-16 0)
(3 -1.52355e-16 0)
(3 4.39565e-16 0)
(3 4.56492e-17 0)
(3 1.49887e-16 0)
(3 5.42189e-16 0)
(3 7.66267e-16 0)
(3 3.93976e-16 0)
(3 -1.78529e-16 0)
(3 -3.0453e-16 0)
(3 1.56838e-16 0)
(3 2.67679e-16 0)
(3 -1.49084e-17 0)
(3 -1.34183e-15 0)
(3 -1.1221e-15 0)
(3 -6.53995e-16 0)
(3 -5.4601e-16 0)
(3 4.43078e-17 0)
(3 3.98629e-16 0)
(3 -5.37011e-16 0)
(3 -2.35585e-15 0)
(3 -3.20643e-15 0)
(3 -2.39522e-15 0)
(3 -6.68561e-16 0)
(3 2.23726e-16 0)
(3 7.06035e-16 0)
(3 1.82713e-15 0)
(3 2.30609e-15 0)
(3 2.79357e-15 0)
(3 2.62804e-15 0)
(3 1.09943e-15 0)
(3 -5.47658e-16 0)
(3 -9.1349e-16 0)
(3 -9.89486e-16 0)
(3 -1.11901e-15 0)
(3 -1.36872e-15 0)
(3 -2.47791e-15 0)
(3 -3.9156e-15 0)
(3 -3.78854e-15 0)
(3 -2.49988e-15 0)
(3 -4.66983e-16 0)
(3 9.98167e-16 0)
(3 1.43212e-15 0)
(3 2.88923e-16 0)
(3 -2.57229e-16 0)
(3 -1.62437e-16 0)
(3 -3.82779e-16 0)
(3 -7.73097e-16 0)
(3 -1.49565e-15 0)
(3 -1.57697e-15 0)
(3 -1.20206e-15 0)
(3 3.55604e-17 0)
(3 -4.00442e-18 0)
(3 1.66046e-16 0)
(3 1.419e-16 0)
(3 -1.98546e-16 0)
(3 -4.01189e-16 0)
(3 3.74936e-16 0)
(3 7.97621e-16 0)
(3 3.65144e-16 0)
(3 -4.33227e-16 0)
(3 -1.04367e-15 0)
(3 -2.00116e-15 0)
(3 -1.20897e-15 0)
(3 2.54717e-16 0)
(3 6.98312e-16 0)
(3 1.60629e-16 0)
(3 -7.6121e-16 0)
(3 -1.82153e-15 0)
(3 -1.7902e-15 0)
(3 -1.56765e-15 0)
(3 -1.35013e-15 0)
(3 -2.13249e-16 0)
(3 -4.06294e-16 0)
(3 2.25306e-16 0)
(3 8.71313e-17 0)
(3 2.01656e-16 0)
(3 2.69975e-16 0)
(3 -1.78433e-15 0)
(3 -3.45571e-15 0)
(3 -3.13237e-15 0)
(3 -2.68226e-15 0)
(3 -7.89935e-16 0)
(3 -7.08318e-16 0)
(3 -1.54549e-15 0)
(3 -1.83314e-15 0)
(3 -1.78664e-15 0)
(3 -1.98726e-15 0)
(3 -3.6492e-16 0)
(3 2.71847e-15 0)
(3 3.88602e-15 0)
(3 3.73598e-15 0)
(3 2.99731e-15 0)
(3 1.59526e-15 0)
(3 2.8107e-16 0)
(3 -8.43662e-16 0)
(3 -1.73765e-15 0)
(3 -1.36086e-15 0)
(3 -3.57277e-16 0)
(3 3.68445e-17 0)
(3 -3.02711e-16 0)
(3 -9.74351e-16 0)
(3 -1.06942e-15 0)
(3 -5.54031e-16 0)
(3 4.88239e-16 0)
(3 8.37442e-16 0)
(3 7.38944e-16 0)
(3 3.02349e-16 0)
(3 1.60124e-16 0)
(3 2.04116e-16 0)
(3 9.30454e-16 0)
(3 1.25772e-15 0)
(3 1.38109e-15 0)
(3 4.97224e-17 0)
(3 -1.11379e-15 0)
(3 -1.01322e-15 0)
(3 1.71699e-16 0)
(3 2.07031e-16 0)
(3 -5.09799e-17 0)
(3 -1.20246e-15 0)
(3 -2.34949e-15 0)
(3 -2.193e-15 0)
(3 -2.03997e-15 0)
(3 -2.28563e-15 0)
(3 -2.46208e-15 0)
(3 -2.33796e-15 0)
(3 -2.11486e-15 0)
(3 -2.17573e-15 0)
(3 -2.22162e-15 0)
(3 -1.80181e-15 0)
(3 -1.44051e-16 0)
(3 4.56719e-16 0)
(3 1.21117e-15 0)
(3 1.89234e-15 0)
(3 9.68772e-16 0)
(3 -6.00978e-16 0)
(3 -1.26446e-15 0)
(3 -8.92726e-16 0)
(3 6.64821e-16 0)
(3 1.9313e-15 0)
(3 1.53087e-15 0)
(3 9.88354e-16 0)
(3 5.96581e-16 0)
(3 1.73806e-16 0)
(3 -1.61047e-16 0)
(3 -7.6129e-16 0)
(3 -5.83138e-16 0)
(3 9.21362e-17 0)
(3 -1.31326e-16 0)
(3 -3.91571e-16 0)
(3 -2.20581e-16 0)
(3 1.06684e-15 0)
(3 1.45009e-15 0)
(3 8.56787e-16 0)
(3 8.11514e-16 0)
(3 9.38201e-16 0)
(3 9.75408e-16 0)
(3 7.16148e-16 0)
(3 3.44985e-16 0)
(3 -2.32409e-16 0)
(3 -6.12158e-16 0)
(3 -4.15545e-16 0)
(3 -1.38015e-15 0)
(3 -2.03159e-15 0)
(3 -1.266e-15 0)
(3 -1.4137e-15 0)
(3 -2.19003e-15 0)
(3 -2.46053e-15 0)
(3 -1.98121e-15 0)
(3 -1.81592e-15 0)
(3 -2.10819e-15 0)
(3 -2.04202e-15 0)
(3 -1.54001e-15 0)
(3 -2.26505e-16 0)
(3 8.9819e-16 0)
(3 5.59691e-16 0)
(3 -4.4919e-16 0)
(3 -6.92622e-16 0)
(3 -1.25243e-15 0)
(3 -5.87744e-16 0)
(3 6.69697e-16 0)
(3 3.20901e-15 0)
(3 3.72623e-15 0)
(3 3.34941e-15 0)
(3 2.32953e-15 0)
(3 1.34162e-15 0)
(3 8.08711e-16 0)
(3 2.33772e-16 0)
(3 -5.85245e-17 0)
(3 -2.95931e-16 0)
(3 -2.39238e-16 0)
(3 6.22577e-16 0)
(3 1.64468e-15 0)
(3 1.20328e-15 0)
(3 -9.29351e-16 0)
(3 6.60949e-18 0)
(3 1.06395e-17 0)
(3 1.95374e-16 0)
(3 -4.04779e-18 0)
(3 -3.23253e-17 0)
(3 2.86044e-16 0)
(3 4.90339e-16 0)
(3 5.02881e-16 0)
(3 4.36958e-16 0)
(3 5.2909e-16 0)
(3 4.02769e-16 0)
(3 -7.1915e-17 0)
(3 -9.57964e-16 0)
(3 -1.64222e-15 0)
(3 -1.13164e-15 0)
(3 -6.37128e-16 0)
(3 -4.10667e-16 0)
(3 -1.05867e-15 0)
(3 -1.72552e-15 0)
(3 -1.71343e-15 0)
(3 -1.10007e-15 0)
(3 -3.51151e-16 0)
(3 2.47415e-16 0)
(3 6.41938e-16 0)
(3 1.23745e-15 0)
(3 1.5613e-15 0)
(3 2.35966e-15 0)
(3 2.57937e-15 0)
(3 2.83178e-15 0)
(3 3.27163e-15 0)
(3 3.14891e-15 0)
(3 1.54552e-15 0)
(3 1.4896e-15 0)
(3 2.16137e-15 0)
(3 3.41782e-15 0)
(3 6.19016e-15 0)
(3 7.88474e-15 0)
(3 7.65974e-15 0)
(3 6.44499e-15 0)
(3 3.69917e-15 0)
(3 -7.04765e-17 0)
(3 -8.51132e-16 0)
(3 -9.55519e-16 0)
(3 -6.9351e-16 0)
(3 3.285e-16 0)
(3 1.24987e-15 0)
(3 1.13057e-15 0)
(3 1.79998e-15 0)
(3 -1.52947e-16 0)
(3 -2.06351e-16 0)
(3 -2.20614e-16 0)
(3 -1.01144e-15 0)
(3 -1.4819e-15 0)
(3 -9.4219e-16 0)
(3 -3.15691e-16 0)
(3 1.6774e-17 0)
(3 5.42727e-16 0)
(3 3.68524e-16 0)
(3 8.16887e-16 0)
(3 1.01617e-15 0)
(3 1.02699e-15 0)
(3 1.01847e-15 0)
(3 1.7049e-15 0)
(3 2.90483e-15 0)
(3 3.1723e-15 0)
(3 2.56585e-15 0)
(3 1.47486e-15 0)
(3 -1.28723e-17 0)
(3 -7.14618e-16 0)
(3 -6.05322e-16 0)
(3 3.01539e-16 0)
(3 7.24397e-16 0)
(3 -1.16316e-16 0)
(3 -1.43133e-15 0)
(3 -1.58421e-15 0)
(3 -9.66711e-16 0)
(3 1.23939e-15 0)
(3 4.08079e-15 0)
(3 4.55071e-15 0)
(3 4.45321e-15 0)
(3 5.58524e-15 0)
(3 6.65835e-15 0)
(3 6.58431e-15 0)
(3 4.88266e-15 0)
(3 4.43507e-15 0)
(3 3.93967e-15 0)
(3 1.89695e-15 0)
(3 1.07501e-15 0)
(3 2.37585e-16 0)
(3 4.22272e-18 0)
(3 -2.48816e-18 0)
(3 4.02072e-17 0)
(3 -2.02202e-16 0)
(3 3.94901e-16 0)
(3 -8.42486e-16 0)
(3 -1.78918e-15 0)
(3 -5.55879e-17 0)
(3 -7.77683e-17 0)
(3 -2.03306e-16 0)
(3 1.51032e-16 0)
(3 5.94208e-16 0)
(3 3.83021e-16 0)
(3 8.95153e-17 0)
(3 -7.24631e-17 0)
(3 -2.18419e-16 0)
(3 -9.45578e-16 0)
(3 2.06076e-17 0)
(3 -2.79761e-16 0)
(3 -1.53656e-16 0)
(3 9.25322e-16 0)
(3 1.02513e-15 0)
(3 1.53603e-15 0)
(3 2.65524e-15 0)
(3 2.93139e-15 0)
(3 2.78788e-15 0)
(3 2.8651e-15 0)
(3 9.95369e-16 0)
(3 -5.90049e-16 0)
(3 -2.2393e-15 0)
(3 -3.60383e-15 0)
(3 -4.63053e-15 0)
(3 -4.12499e-15 0)
(3 -2.8258e-15 0)
(3 -1.58381e-15 0)
(3 -1.00457e-15 0)
(3 2.86015e-16 0)
(3 9.82587e-16 0)
(3 1.77455e-15 0)
(3 2.10435e-15 0)
(3 2.22548e-15 0)
(3 1.92662e-15 0)
(3 1.25269e-15 0)
(3 6.41065e-16 0)
(3 -4.31567e-16 0)
(3 -8.04031e-16 0)
(3 -5.33e-16 0)
(3 -1.21118e-16 0)
(3 -3.8906e-17 0)
(3 2.06788e-16 0)
(3 -3.77634e-17 0)
(3 -6.05611e-16 0)
(3 -1.01036e-15 0)
(3 -1.31644e-15 0)
(3 -1.87867e-15 0)
(3 1.09204e-16 0)
(3 6.73116e-17 0)
(3 2.57951e-16 0)
(3 7.39024e-16 0)
(3 1.08535e-15 0)
(3 6.32232e-16 0)
(3 -1.37747e-16 0)
(3 -5.33736e-16 0)
(3 -1.25627e-15 0)
(3 -1.37479e-15 0)
(3 -6.2676e-16 0)
(3 -2.01802e-16 0)
(3 -8.9605e-16 0)
(3 -9.13354e-16 0)
(3 -8.084e-16 0)
(3 -6.05225e-16 0)
(3 -8.65334e-17 0)
(3 4.58161e-16 0)
(3 7.39866e-16 0)
(3 1.4241e-15 0)
(3 1.61341e-15 0)
(3 7.34412e-16 0)
(3 -2.06914e-15 0)
(3 -3.28732e-15 0)
(3 -2.58646e-15 0)
(3 -1.78063e-15 0)
(3 -1.09344e-15 0)
(3 -1.27896e-15 0)
(3 -1.83109e-15 0)
(3 -2.46652e-15 0)
(3 -2.92739e-15 0)
(3 -1.87661e-15 0)
(3 -1.86943e-15 0)
(3 -1.39752e-15 0)
(3 -1.71664e-16 0)
(3 -7.29285e-17 0)
(3 -5.85058e-16 0)
(3 -6.78891e-16 0)
(3 9.18966e-17 0)
(3 1.2481e-15 0)
(3 1.4011e-15 0)
(3 1.28606e-15 0)
(3 1.04246e-15 0)
(3 9.41282e-16 0)
(3 9.41341e-16 0)
(3 8.26921e-16 0)
(3 2.94446e-16 0)
(3 -6.98075e-16 0)
(3 9.62093e-17 0)
(3 -2.55253e-16 0)
(3 1.16692e-16 0)
(3 7.11133e-16 0)
(3 4.25525e-16 0)
(3 1.41386e-16 0)
(3 -2.74354e-16 0)
(3 -7.9785e-16 0)
(3 -6.36068e-16 0)
(3 -7.59456e-16 0)
(3 -1.4515e-15 0)
(3 -1.56879e-15 0)
(3 -1.76511e-15 0)
(3 -1.86917e-15 0)
(3 -1.68195e-15 0)
(3 -2.43529e-15 0)
(3 -2.8112e-15 0)
(3 -2.49922e-15 0)
(3 -2.63358e-15 0)
(3 -2.85985e-15 0)
(3 -2.74114e-15 0)
(3 -2.3172e-15 0)
(3 -1.59233e-15 0)
(3 -8.81949e-16 0)
(3 3.71695e-16 0)
(3 4.87071e-16 0)
(3 6.95663e-16 0)
(3 7.23041e-16 0)
(3 3.99019e-16 0)
(3 -5.92267e-16 0)
(3 -1.90157e-15 0)
(3 -3.40617e-15 0)
(3 -3.11305e-15 0)
(3 -2.23978e-15 0)
(3 -8.22746e-16 0)
(3 -7.85458e-16 0)
(3 -1.69268e-15 0)
(3 -1.65768e-15 0)
(3 -1.49538e-15 0)
(3 -5.66112e-16 0)
(3 1.13851e-15 0)
(3 2.12741e-15 0)
(3 1.98258e-15 0)
(3 2.39864e-15 0)
(3 2.46252e-15 0)
(3 2.06518e-15 0)
(3 1.58581e-15 0)
(3 -5.00281e-16 0)
(3 3.55619e-17 0)
(3 8.09659e-17 0)
(3 3.48809e-16 0)
(3 5.54784e-16 0)
(3 4.11238e-16 0)
(3 -2.30371e-16 0)
(3 -4.42381e-16 0)
(3 -3.81068e-16 0)
(3 1.73505e-16 0)
(3 3.93268e-16 0)
(3 -1.84423e-15 0)
(3 -3.48312e-15 0)
(3 -3.31312e-15 0)
(3 -3.66902e-15 0)
(3 -3.4966e-15 0)
(3 -3.50329e-15 0)
(3 -2.45314e-15 0)
(3 -1.16e-15 0)
(3 -6.75462e-16 0)
(3 -7.40924e-16 0)
(3 -1.43194e-15 0)
(3 -1.53889e-15 0)
(3 2.5202e-16 0)
(3 1.52675e-15 0)
(3 2.09374e-15 0)
(3 2.19003e-15 0)
(3 1.76259e-15 0)
(3 2.93157e-16 0)
(3 8.7216e-17 0)
(3 1.77682e-16 0)
(3 -3.41539e-16 0)
(3 -1.11176e-15 0)
(3 -2.2625e-15 0)
(3 -2.8167e-15 0)
(3 -3.02271e-15 0)
(3 -3.26744e-15 0)
(3 -2.18319e-15 0)
(3 -2.25482e-15 0)
(3 -2.75742e-15 0)
(3 -2.58259e-15 0)
(3 -1.49136e-15 0)
(3 7.77964e-16 0)
(3 2.49318e-15 0)
(3 2.63236e-15 0)
(3 2.17399e-15 0)
(3 1.05394e-15 0)
(3 6.60134e-16 0)
(3 6.91089e-16 0)
(3 -1.58042e-16 0)
(3 2.19774e-16 0)
(3 4.32859e-16 0)
(3 -9.74539e-16 0)
(3 -9.31599e-16 0)
(3 -1.19062e-15 0)
(3 -1.64268e-15 0)
(3 -1.00171e-15 0)
(3 -4.63551e-16 0)
(3 -1.18111e-15 0)
(3 -2.63244e-15 0)
(3 -3.69348e-15 0)
(3 -2.41183e-15 0)
(3 -2.0809e-15 0)
(3 -1.87174e-15 0)
(3 -1.11834e-15 0)
(3 7.59897e-16 0)
(3 2.39878e-15 0)
(3 4.18352e-15 0)
(3 5.61076e-15 0)
(3 5.22285e-15 0)
(3 4.09582e-15 0)
(3 3.15098e-15 0)
(3 3.3877e-15 0)
(3 3.35428e-15 0)
(3 3.24514e-15 0)
(3 1.24316e-15 0)
(3 -1.44995e-15 0)
(3 -1.97027e-15 0)
(3 -1.85218e-15 0)
(3 -1.40116e-15 0)
(3 -7.27627e-16 0)
(3 -6.59068e-16 0)
(3 -1.04198e-15 0)
(3 -1.50673e-15 0)
(3 -2.39062e-15 0)
(3 -1.13201e-15 0)
(3 -3.35765e-16 0)
(3 4.02129e-16 0)
(3 7.53029e-16 0)
(3 1.69335e-15 0)
(3 1.85399e-15 0)
(3 2.16645e-15 0)
(3 2.80691e-15 0)
(3 1.58292e-15 0)
(3 8.09832e-16 0)
(3 9.06401e-16 0)
(3 2.17697e-15 0)
(3 5.86606e-17 0)
(3 1.22924e-16 0)
(3 -1.07995e-16 0)
(3 -5.82283e-17 0)
(3 -1.14259e-15 0)
(3 -7.54579e-16 0)
(3 -6.64592e-16 0)
(3 -3.12802e-16 0)
(3 -8.14266e-16 0)
(3 -1.58741e-15 0)
(3 -1.8824e-15 0)
(3 -1.76657e-15 0)
(3 -1.4851e-15 0)
(3 -8.6175e-16 0)
(3 -5.13432e-16 0)
(3 5.06076e-16 0)
(3 1.8294e-15 0)
(3 2.9197e-15 0)
(3 2.91147e-15 0)
(3 3.95102e-15 0)
(3 3.8246e-15 0)
(3 3.20191e-15 0)
(3 2.21731e-15 0)
(3 1.52142e-15 0)
(3 1.0497e-15 0)
(3 1.97635e-16 0)
(3 -1.43316e-15 0)
(3 -2.88238e-15 0)
(3 -3.07422e-15 0)
(3 -2.97122e-15 0)
(3 -2.49461e-15 0)
(3 -6.23606e-16 0)
(3 3.96454e-16 0)
(3 3.73016e-16 0)
(3 -1.87468e-16 0)
(3 -7.1851e-16 0)
(3 -5.78566e-16 0)
(3 -3.07017e-17 0)
(3 9.40504e-16 0)
(3 1.55302e-15 0)
(3 1.4725e-15 0)
(3 1.17665e-15 0)
(3 5.38362e-16 0)
(3 5.01296e-16 0)
(3 8.966e-16 0)
(3 1.44349e-15 0)
(3 1.14282e-15 0)
(3 1.30484e-15 0)
(3 -2.19147e-16 0)
(3 -1.59765e-16 0)
(3 3.71594e-16 0)
(3 7.58062e-16 0)
(3 8.42834e-16 0)
(3 6.56129e-16 0)
(3 9.66944e-16 0)
(3 8.58709e-16 0)
(3 4.21777e-16 0)
(3 2.764e-16 0)
(3 -1.21301e-16 0)
(3 -5.35288e-16 0)
(3 -6.27058e-16 0)
(3 -4.75251e-16 0)
(3 -2.78062e-19 0)
(3 4.3731e-16 0)
(3 6.6113e-16 0)
(3 4.00142e-16 0)
(3 -6.55322e-16 0)
(3 -2.93903e-16 0)
(3 5.53785e-16 0)
(3 1.19747e-15 0)
(3 1.21456e-15 0)
(3 -7.51418e-16 0)
(3 -2.03249e-15 0)
(3 -3.37852e-15 0)
(3 -4.73428e-15 0)
(3 -4.91395e-15 0)
(3 -5.31421e-15 0)
(3 -4.92221e-15 0)
(3 -2.79716e-15 0)
(3 -7.10724e-16 0)
(3 1.38731e-15 0)
(3 9.69826e-16 0)
(3 -2.33118e-16 0)
(3 -6.02651e-16 0)
(3 -4.55986e-16 0)
(3 -2.87931e-16 0)
(3 -1.51709e-16 0)
(3 2.22378e-16 0)
(3 -4.50255e-16 0)
(3 -6.64545e-16 0)
(3 -1.02653e-16 0)
(3 -1.40187e-17 0)
(3 -1.63106e-16 0)
(3 3.26205e-16 0)
(3 1.0915e-15 0)
(3 1.96165e-15 0)
(3 -1.03783e-16 0)
(3 -1.51053e-16 0)
(3 2.65912e-16 0)
(3 3.48445e-16 0)
(3 1.04423e-15 0)
(3 2.03846e-15 0)
(3 1.46511e-15 0)
(3 9.15031e-16 0)
(3 1.17153e-15 0)
(3 1.65581e-15 0)
(3 1.50911e-15 0)
(3 1.67641e-15 0)
(3 4.85948e-16 0)
(3 -6.66306e-16 0)
(3 -8.37018e-16 0)
(3 -2.88947e-16 0)
(3 -7.07412e-16 0)
(3 -1.06016e-15 0)
(3 -8.37442e-16 0)
(3 -1.80515e-15 0)
(3 -8.33373e-16 0)
(3 1.339e-15 0)
(3 2.24164e-15 0)
(3 2.34206e-15 0)
(3 8.04678e-16 0)
(3 -1.1871e-16 0)
(3 -8.57817e-16 0)
(3 -1.29562e-15 0)
(3 -1.93911e-15 0)
(3 -2.48519e-15 0)
(3 -1.95197e-15 0)
(3 -1.09313e-15 0)
(3 3.36574e-16 0)
(3 3.14157e-16 0)
(3 -3.134e-16 0)
(3 -2.87507e-16 0)
(3 -7.60436e-17 0)
(3 -3.61685e-16 0)
(3 -1.03018e-15 0)
(3 -1.04101e-15 0)
(3 -5.8448e-16 0)
(3 -8.40732e-16 0)
(3 -9.52661e-16 0)
(3 -9.52723e-16 0)
(3 -1.24365e-16 0)
(3 2.2136e-15 0)
(3 3.50814e-15 0)
(3 4.26568e-15 0)
(3 2.67282e-16 0)
(3 6.74091e-16 0)
(3 1.09119e-16 0)
(3 5.33939e-17 0)
(3 1.58841e-16 0)
(3 1.99292e-16 0)
(3 3.4802e-16 0)
(3 3.56353e-16 0)
(3 1.16534e-16 0)
(3 2.85447e-16 0)
(3 7.60701e-16 0)
(3 8.38797e-16 0)
(3 3.0193e-16 0)
(3 -6.13911e-16 0)
(3 -6.3448e-16 0)
(3 -6.42232e-16 0)
(3 -9.46664e-16 0)
(3 -9.69174e-16 0)
(3 -6.99597e-16 0)
(3 -1.12398e-15 0)
(3 -1.49615e-15 0)
(3 -3.02103e-16 0)
(3 1.49783e-15 0)
(3 2.92406e-15 0)
(3 3.29111e-15 0)
(3 4.80443e-15 0)
(3 5.25581e-15 0)
(3 2.46573e-15 0)
(3 2.53403e-15 0)
(3 2.44064e-15 0)
(3 1.23443e-15 0)
(3 1.06502e-16 0)
(3 -3.4948e-16 0)
(3 4.89632e-16 0)
(3 1.03469e-15 0)
(3 8.15327e-16 0)
(3 6.36158e-16 0)
(3 5.25866e-16 0)
(3 2.0843e-16 0)
(3 -2.69015e-16 0)
(3 -8.98823e-16 0)
(3 -1.05871e-15 0)
(3 -1.46066e-15 0)
(3 -2.3434e-16 0)
(3 7.20061e-16 0)
(3 1.00486e-15 0)
(3 2.05265e-15 0)
(3 3.26142e-15 0)
(3 1.87585e-16 0)
(3 9.78401e-16 0)
(3 8.33793e-16 0)
(3 8.57754e-16 0)
(3 -2.27567e-16 0)
(3 -1.07613e-15 0)
(3 -1.21219e-15 0)
(3 -1.57925e-15 0)
(3 -2.1081e-15 0)
(3 -1.93568e-15 0)
(3 -5.49447e-16 0)
(3 7.02265e-16 0)
(3 1.1709e-15 0)
(3 1.78836e-15 0)
(3 8.87343e-16 0)
(3 -4.7146e-16 0)
(3 -6.87082e-16 0)
(3 -6.41417e-16 0)
(3 -7.68672e-16 0)
(3 -1.02089e-15 0)
(3 -1.21959e-15 0)
(3 -3.83389e-16 0)
(3 -2.64984e-16 0)
(3 -8.05086e-16 0)
(3 2.48093e-16 0)
(3 2.21671e-15 0)
(3 4.31951e-15 0)
(3 4.28998e-15 0)
(3 5.48824e-15 0)
(3 6.06021e-15 0)
(3 5.57334e-15 0)
(3 3.19068e-15 0)
(3 9.97103e-16 0)
(3 9.94111e-16 0)
(3 2.43342e-15 0)
(3 2.49294e-15 0)
(3 2.32185e-15 0)
(3 2.5948e-15 0)
(3 2.55024e-15 0)
(3 8.35914e-16 0)
(3 8.15138e-17 0)
(3 -3.26737e-16 0)
(3 -2.98493e-16 0)
(3 -4.40409e-16 0)
(3 -4.33715e-16 0)
(3 -3.48684e-16 0)
(3 9.10562e-17 0)
(3 1.18734e-16 0)
(3 -3.08118e-17 0)
(3 -3.43686e-16 0)
(3 -3.64016e-16 0)
(3 -4.99616e-16 0)
(3 -1.20179e-15 0)
(3 -1.34136e-15 0)
(3 -1.8375e-15 0)
(3 -2.18647e-15 0)
(3 -2.16356e-15 0)
(3 -1.32307e-15 0)
(3 -4.19148e-16 0)
(3 9.8084e-16 0)
(3 1.61025e-15 0)
(3 1.86734e-15 0)
(3 1.3524e-15 0)
(3 7.65738e-16 0)
(3 -1.8785e-16 0)
(3 -4.37299e-16 0)
(3 -2.62377e-16 0)
(3 4.03681e-16 0)
(3 6.75178e-16 0)
(3 6.43675e-16 0)
(3 3.04834e-16 0)
(3 -1.00436e-15 0)
(3 -8.34792e-16 0)
(3 2.12583e-16 0)
(3 1.40077e-15 0)
(3 2.95371e-15 0)
(3 3.34214e-15 0)
(3 3.52203e-15 0)
(3 3.98887e-15 0)
(3 3.73364e-15 0)
(3 2.68153e-15 0)
(3 2.00405e-15 0)
(3 2.34198e-15 0)
(3 2.80549e-15 0)
(3 2.76484e-15 0)
(3 1.30507e-15 0)
(3 3.095e-16 0)
(3 2.43691e-16 0)
(3 8.32028e-16 0)
(3 1.5897e-15 0)
(3 9.31304e-16 0)
(3 -4.17576e-16 0)
(3 -5.84796e-16 0)
(3 -5.80223e-16 0)
(3 -1.22713e-15 0)
(3 -1.28332e-15 0)
(3 -1.67377e-16 0)
(3 -6.82051e-16 0)
(3 -1.06734e-15 0)
(3 -1.91381e-15 0)
(3 -1.32332e-15 0)
(3 -1.27869e-15 0)
(3 -9.52697e-16 0)
(3 -4.63137e-16 0)
(3 2.73879e-16 0)
(3 8.28456e-16 0)
(3 1.10518e-15 0)
(3 8.46864e-16 0)
(3 6.00427e-16 0)
(3 8.34607e-16 0)
(3 7.71662e-16 0)
(3 1.24431e-16 0)
(3 -5.44598e-16 0)
(3 -5.44488e-16 0)
(3 -2.66988e-16 0)
(3 1.43611e-16 0)
(3 -2.89643e-16 0)
(3 -8.594e-17 0)
(3 1.8454e-16 0)
(3 7.62592e-16 0)
(3 7.40197e-16 0)
(3 1.20972e-16 0)
(3 -7.77843e-16 0)
(3 -4.15205e-16 0)
(3 -2.14209e-16 0)
(3 3.84057e-16 0)
(3 8.61549e-16 0)
(3 1.45816e-15 0)
(3 1.7291e-15 0)
(3 7.96497e-16 0)
(3 7.09117e-16 0)
(3 1.03805e-15 0)
(3 -1.65473e-16 0)
(3 -6.52515e-16 0)
(3 1.85654e-16 0)
(3 1.33542e-15 0)
(3 2.17603e-15 0)
(3 2.76911e-15 0)
(3 1.74038e-15 0)
(3 7.95752e-16 0)
(3 5.55445e-17 0)
(3 -3.25717e-16 0)
(3 -2.96418e-16 0)
(3 2.29502e-16 0)
(3 1.52957e-16 0)
(3 -1.1771e-16 0)
(3 -5.96278e-16 0)
(3 -2.41637e-16 0)
(3 3.13547e-16 0)
(3 4.35819e-16 0)
(3 9.54901e-16 0)
(3 1.40038e-15 0)
(3 3.06873e-15 0)
(3 3.38736e-15 0)
(3 2.49105e-15 0)
(3 9.28338e-16 0)
(3 9.72376e-16 0)
(3 1.42382e-15 0)
(3 1.90994e-15 0)
(3 1.31976e-15 0)
(3 5.34506e-16 0)
(3 -3.29648e-16 0)
(3 -8.59547e-16 0)
(3 -1.40614e-15 0)
(3 -8.38686e-16 0)
(3 5.57872e-17 0)
(3 8.70627e-16 0)
(3 1.70474e-15 0)
(3 2.27158e-15 0)
(3 1.89185e-15 0)
(3 6.649e-16 0)
(3 -4.49563e-17 0)
(3 -4.76481e-16 0)
(3 -3.98021e-16 0)
(3 -4.18516e-16 0)
(3 -1.2461e-16 0)
(3 6.62547e-17 0)
(3 -2.16733e-17 0)
(3 -2.37549e-16 0)
(3 -4.1654e-16 0)
(3 -6.28243e-16 0)
(3 5.45037e-16 0)
(3 1.97431e-15 0)
(3 2.58989e-15 0)
(3 2.67543e-15 0)
(3 2.48461e-15 0)
(3 2.0661e-15 0)
(3 1.58971e-15 0)
(3 1.04095e-15 0)
(3 4.73025e-16 0)
(3 2.23931e-16 0)
(3 6.9604e-16 0)
(3 1.11618e-16 0)
(3 -3.16001e-17 0)
(3 -4.10313e-16 0)
(3 1.42465e-15 0)
(3 1.68327e-15 0)
(3 1.89727e-15 0)
(3 2.32338e-15 0)
(3 2.76441e-15 0)
(3 3.59021e-15 0)
(3 4.77244e-15 0)
(3 2.61301e-15 0)
(3 2.023e-15 0)
(3 2.27418e-15 0)
(3 1.8117e-15 0)
(3 1.21134e-15 0)
(3 9.23469e-16 0)
(3 6.12841e-16 0)
(3 -1.05766e-16 0)
(3 -1.32027e-15 0)
(3 -1.59128e-15 0)
(3 -4.33811e-16 0)
(3 9.15598e-16 0)
(3 8.34172e-16 0)
(3 3.2836e-16 0)
(3 2.24467e-16 0)
(3 1.69863e-15 0)
(3 2.21506e-15 0)
(3 2.02393e-15 0)
(3 1.74833e-15 0)
(3 1.25238e-15 0)
(3 4.99521e-16 0)
(3 -4.74588e-16 0)
(3 -3.70102e-16 0)
(3 -4.23848e-16 0)
(3 -8.58151e-17 0)
(3 3.26221e-16 0)
(3 1.01995e-15 0)
(3 1.56229e-15 0)
(3 2.50854e-15 0)
(3 3.20385e-15 0)
(3 2.00983e-15 0)
(3 4.59869e-16 0)
(3 7.1465e-16 0)
(3 1.27474e-15 0)
(3 2.08827e-15 0)
(3 2.7105e-15 0)
(3 2.7035e-15 0)
(3 1.43642e-15 0)
(3 -7.74834e-17 0)
(3 -6.18732e-17 0)
(3 -1.14209e-16 0)
(3 -2.08652e-16 0)
(3 -1.16064e-16 0)
(3 4.42782e-16 0)
(3 9.96422e-16 0)
(3 1.40022e-15 0)
(3 6.81836e-16 0)
(3 6.65506e-16 0)
(3 4.69855e-16 0)
(3 6.64288e-16 0)
(3 6.40772e-16 0)
(3 6.37077e-17 0)
(3 -3.31055e-16 0)
(3 -5.18223e-16 0)
(3 6.6351e-16 0)
(3 7.90374e-16 0)
(3 2.04846e-16 0)
(3 3.12083e-16 0)
(3 8.09353e-16 0)
(3 6.84804e-16 0)
(3 8.52646e-16 0)
(3 6.24004e-16 0)
(3 2.52213e-16 0)
(3 3.50168e-16 0)
(3 3.39426e-16 0)
(3 2.93549e-16 0)
(3 7.49378e-16 0)
(3 3.86321e-16 0)
(3 1.09267e-16 0)
(3 6.69656e-17 0)
(3 7.73087e-16 0)
(3 1.38184e-15 0)
(3 1.61916e-15 0)
(3 1.51265e-15 0)
(3 1.03834e-15 0)
(3 9.72707e-17 0)
(3 5.93328e-16 0)
(3 1.44205e-15 0)
(3 1.3261e-15 0)
(3 2.95267e-16 0)
(3 -2.91518e-17 0)
(3 3.77945e-16 0)
(3 3.13402e-16 0)
(3 4.16145e-16 0)
(3 3.72102e-16 0)
(3 4.78992e-17 0)
(3 -3.90328e-17 0)
(3 1.93013e-16 0)
(3 -8.43345e-17 0)
(3 -6.64688e-16 0)
(3 -5.80949e-16 0)
(3 -2.99049e-16 0)
(3 -4.23447e-16 0)
(3 -9.53073e-16 0)
(3 -1.70293e-15 0)
(3 -2.43394e-15 0)
(3 -1.93385e-15 0)
(3 -1.0466e-15 0)
(3 -6.26184e-16 0)
(3 -4.39757e-16 0)
(3 -1.60282e-17 0)
(3 1.1194e-15 0)
(3 1.95804e-15 0)
(3 1.93186e-15 0)
(3 4.22847e-16 0)
(3 4.72513e-16 0)
(3 3.44831e-16 0)
(3 7.3039e-16 0)
(3 1.18116e-15 0)
(3 1.28557e-15 0)
(3 1.19281e-15 0)
(3 4.04856e-16 0)
(3 -3.52683e-16 0)
(3 -1.04985e-15 0)
(3 -1.076e-15 0)
(3 -1.05692e-15 0)
(3 -7.61144e-16 0)
(3 5.72593e-16 0)
(3 5.29448e-16 0)
(3 1.06594e-15 0)
(3 1.82493e-15 0)
(3 1.3479e-15 0)
(3 6.90973e-16 0)
(3 -4.3193e-16 0)
(3 -1.81356e-15 0)
(3 -2.34777e-15 0)
(3 -2.89782e-15 0)
(3 -2.20194e-15 0)
(3 -8.15318e-16 0)
(3 2.23809e-16 0)
(3 1.20433e-16 0)
(3 -1.66077e-16 0)
(3 -1.55072e-15 0)
(3 -2.06682e-15 0)
(3 2.61873e-17 0)
(3 1.77279e-16 0)
(3 3.37179e-16 0)
(3 -1.51676e-16 0)
(3 1.639e-16 0)
(3 1.46123e-16 0)
(3 -2.10043e-17 0)
(3 -9.00424e-16 0)
(3 -1.76643e-15 0)
(3 -1.69738e-15 0)
(3 -3.9751e-16 0)
(3 6.22381e-16 0)
(3 3.6333e-16 0)
(3 1.09924e-15 0)
(3 8.64013e-16 0)
(3 7.94252e-16 0)
(3 1.30016e-16 0)
(3 -5.69319e-16 0)
(3 -5.32041e-16 0)
(3 -1.26436e-15 0)
(3 -1.98326e-15 0)
(3 -1.44419e-15 0)
(3 -6.87582e-16 0)
(3 -1.49336e-16 0)
(3 -9.1861e-18 0)
(3 -9.65473e-17 0)
(3 -2.783e-16 0)
(3 -1.05199e-15 0)
(3 -1.43148e-15 0)
(3 -8.74473e-16 0)
(3 8.34706e-16 0)
(3 1.70374e-15 0)
(3 1.76764e-15 0)
(3 1.75442e-15 0)
(3 1.8588e-15 0)
(3 1.19404e-15 0)
(3 4.97449e-16 0)
(3 -1.56267e-15 0)
(3 -3.84195e-15 0)
(3 -4.07231e-15 0)
(3 -2.33572e-15 0)
(3 -2.25947e-16 0)
(3 6.19711e-17 0)
(3 1.41188e-16 0)
(3 2.95828e-16 0)
(3 -4.95034e-17 0)
(3 -4.60487e-16 0)
(3 -1.20034e-15 0)
(3 -1.31902e-16 0)
(3 -1.65692e-16 0)
(3 4.17268e-16 0)
(3 4.08711e-16 0)
(3 3.93029e-16 0)
(3 4.98911e-16 0)
(3 2.52543e-16 0)
(3 1.93479e-16 0)
(3 -3.16612e-16 0)
(3 -7.53769e-16 0)
(3 8.39739e-17 0)
(3 8.71781e-16 0)
(3 1.01213e-15 0)
(3 -3.37597e-17 0)
(3 3.69269e-16 0)
(3 -3.97739e-17 0)
(3 -1.00866e-15 0)
(3 -1.7555e-15 0)
(3 -1.78393e-15 0)
(3 -3.80188e-15 0)
(3 -5.21986e-15 0)
(3 -5.44298e-15 0)
(3 -4.35295e-15 0)
(3 -3.2015e-15 0)
(3 -2.87069e-15 0)
(3 -1.94778e-15 0)
(3 -4.7845e-16 0)
(3 9.2582e-16 0)
(3 1.18668e-15 0)
(3 2.01084e-15 0)
(3 2.23286e-15 0)
(3 2.23461e-15 0)
(3 1.61432e-15 0)
(3 7.26258e-16 0)
(3 6.91164e-16 0)
(3 7.87056e-16 0)
(3 2.03692e-16 0)
(3 -1.10597e-15 0)
(3 -1.45845e-15 0)
(3 -9.03716e-16 0)
(3 1.6756e-16 0)
(3 1.25857e-15 0)
(3 1.16942e-15 0)
(3 2.35557e-16 0)
(3 -1.55179e-16 0)
(3 -7.52267e-16 0)
(3 -7.59134e-16 0)
(3 -5.54007e-16 0)
(3 1.09054e-17 0)
(3 -1.21526e-16 0)
(3 -2.05764e-16 0)
(3 -3.72151e-16 0)
(3 -1.05717e-16 0)
(3 1.75621e-16 0)
(3 6.41782e-17 0)
(3 2.68384e-16 0)
(3 3.48757e-16 0)
(3 8.07759e-16 0)
(3 7.98518e-16 0)
(3 6.83399e-16 0)
(3 1.6772e-16 0)
(3 -8.45384e-16 0)
(3 3.2512e-17 0)
(3 3.4743e-16 0)
(3 4.51667e-16 0)
(3 4.86771e-16 0)
(3 -1.73312e-15 0)
(3 -4.42142e-15 0)
(3 -3.89131e-15 0)
(3 -4.33279e-15 0)
(3 -4.49736e-15 0)
(3 -3.10845e-15 0)
(3 -1.79458e-15 0)
(3 -4.57147e-16 0)
(3 2.58724e-16 0)
(3 1.87213e-15 0)
(3 2.11934e-15 0)
(3 2.02027e-15 0)
(3 1.03506e-15 0)
(3 -4.38722e-16 0)
(3 -1.33704e-15 0)
(3 -1.55002e-15 0)
(3 -1.14273e-15 0)
(3 6.51429e-16 0)
(3 1.50873e-15 0)
(3 3.35659e-15 0)
(3 3.24739e-15 0)
(3 1.95914e-15 0)
(3 3.50509e-16 0)
(3 2.15808e-16 0)
(3 7.56416e-16 0)
(3 2.65582e-16 0)
(3 -5.31566e-16 0)
(3 -9.47087e-16 0)
(3 -9.93781e-16 0)
(3 -7.84753e-16 0)
(3 2.3628e-16 0)
(3 2.15914e-16 0)
(3 -4.26361e-16 0)
(3 -7.32504e-16 0)
(3 -9.5825e-16 0)
(3 -8.25343e-16 0)
(3 -3.00664e-16 0)
(3 3.16601e-17 0)
(3 6.41277e-16 0)
(3 1.20241e-15 0)
(3 1.0674e-15 0)
(3 2.0079e-17 0)