/*--------------------------------*- C++ -*----------------------------------*\
  =========                 |
  \\      /  F ield         | OpenFOAM: The Open Source CFD Toolbox
   \\    /   O peration     | Website:  https://openfoam.org
    \\  /    A nd           | Version:  7
     \\/     M anipulation  |
\*---------------------------------------------------------------------------*/
FoamFile
{
    version     2.0;
    format      ascii;
    class       volVectorField;
    location    "0.9";
    object      U;
}
// * * * * * * * * * * * * * * * * * * * * * * * * * * * * * * * * * * * * * //

dimensions      [0 1 -1 0 0 0 0];

internalField   nonuniform List<vector> 
73728
(
(3 3.64289e-18 0)
(3 1.26931e-16 0)
(3 1.62296e-16 0)
(3 2.33757e-16 0)
(3 -9.03307e-17 0)
(3 -1.697e-16 0)
(3 -3.33539e-16 0)
(3 -3.33931e-16 0)
(3 -7.63764e-16 0)
(3 -1.48023e-15 0)
(3 -1.05845e-15 0)
(3 5.1724e-17 0)
(3 4.76076e-16 0)
(3 5.75226e-16 0)
(3 1.8911e-16 0)
(3 -7.24352e-18 0)
(3 2.11299e-16 0)
(3 -1.44313e-16 0)
(3 -1.1057e-16 0)
(3 -4.73307e-16 0)
(3 -8.29844e-16 0)
(3 -8.37409e-16 0)
(3 -6.23519e-16 0)
(3 -1.20301e-15 0)
(3 -1.91295e-15 0)
(3 -1.56947e-15 0)
(3 -1.53032e-16 0)
(3 1.01301e-15 0)
(3 1.24445e-15 0)
(3 9.84536e-16 0)
(3 3.47102e-16 0)
(3 6.67931e-16 0)
(3 1.85038e-15 0)
(3 1.76175e-15 0)
(3 3.16365e-16 0)
(3 -4.09656e-16 0)
(3 -5.11295e-16 0)
(3 -1.06118e-16 0)
(3 -1.07711e-16 0)
(3 -1.77945e-15 0)
(3 -1.83352e-15 0)
(3 -1.58692e-15 0)
(3 -1.6486e-15 0)
(3 -1.66199e-15 0)
(3 -1.4827e-15 0)
(3 -6.10197e-16 0)
(3 -3.1575e-16 0)
(3 -6.93866e-16 0)
(3 -5.9547e-16 0)
(3 -3.41357e-16 0)
(3 -2.15939e-16 0)
(3 -2.04173e-16 0)
(3 -4.65075e-16 0)
(3 -9.42728e-16 0)
(3 -1.16598e-15 0)
(3 -1.01065e-15 0)
(3 -8.63894e-16 0)
(3 3.51949e-16 0)
(3 7.63543e-16 0)
(3 2.42828e-16 0)
(3 -4.52195e-16 0)
(3 -1.12227e-15 0)
(3 -1.22522e-15 0)
(3 -1.09865e-15 0)
(3 -6.15782e-16 0)
(3 -8.83099e-16 0)
(3 1.90325e-16 0)
(3 1.37509e-15 0)
(3 1.2446e-15 0)
(3 1.88997e-15 0)
(3 2.16124e-15 0)
(3 1.55372e-15 0)
(3 -4.45069e-16 0)
(3 -9.28367e-16 0)
(3 -7.96215e-16 0)
(3 -1.49095e-16 0)
(3 3.29895e-16 0)
(3 9.17578e-16 0)
(3 1.03137e-15 0)
(3 8.31303e-16 0)
(3 1.03678e-17 0)
(3 -7.08264e-16 0)
(3 -5.76789e-16 0)
(3 1.42198e-16 0)
(3 5.54779e-16 0)
(3 7.17654e-16 0)
(3 4.98995e-16 0)
(3 1.17787e-15 0)
(3 2.06037e-15 0)
(3 2.21791e-15 0)
(3 1.59416e-15 0)
(3 8.57735e-16 0)
(3 5.61422e-16 0)
(3 3.05882e-16 0)
(3 -5.54448e-16 0)
(3 -1.19251e-15 0)
(3 1.49752e-17 0)
(3 -1.3734e-16 0)
(3 -3.05958e-16 0)
(3 -2.15657e-16 0)
(3 -4.47274e-16 0)
(3 -4.99729e-16 0)
(3 -4.85921e-16 0)
(3 -4.81061e-16 0)
(3 -1.19663e-15 0)
(3 -1.30497e-15 0)
(3 -4.49747e-16 0)
(3 4.23425e-16 0)
(3 5.90421e-16 0)
(3 6.97779e-16 0)
(3 2.93218e-16 0)
(3 8.34616e-17 0)
(3 1.02129e-15 0)
(3 4.36493e-16 0)
(3 1.88511e-16 0)
(3 -4.58568e-16 0)
(3 -1.07599e-15 0)
(3 -9.78672e-16 0)
(3 -8.22051e-16 0)
(3 -1.09247e-15 0)
(3 -7.71914e-16 0)
(3 -4.5297e-16 0)
(3 6.25741e-16 0)
(3 3.06402e-15 0)
(3 2.92106e-15 0)
(3 2.09607e-15 0)
(3 1.75295e-15 0)
(3 2.95188e-15 0)
(3 3.75771e-15 0)
(3 2.07276e-15 0)
(3 1.80359e-16 0)
(3 -7.41527e-16 0)
(3 -6.87265e-16 0)
(3 -5.1551e-16 0)
(3 -1.72124e-15 0)
(3 -2.04269e-15 0)
(3 -2.93139e-15 0)
(3 -3.12712e-15 0)
(3 -2.68128e-15 0)
(3 -1.81781e-15 0)
(3 -1.15485e-15 0)
(3 -1.42517e-15 0)
(3 -2.82912e-15 0)
(3 -3.96839e-15 0)
(3 -3.28982e-15 0)
(3 -2.36717e-15 0)
(3 -2.10368e-16 0)
(3 9.82275e-17 0)
(3 -2.56177e-16 0)
(3 -3.84976e-16 0)
(3 -5.74373e-16 0)
(3 -6.581e-16 0)
(3 -7.43903e-16 0)
(3 3.00267e-16 0)
(3 8.62043e-16 0)
(3 9.44228e-16 0)
(3 -8.01322e-17 0)
(3 -2.23338e-15 0)
(3 -2.67268e-15 0)
(3 -1.07028e-15 0)
(3 6.58407e-16 0)
(3 6.28743e-16 0)
(3 1.74379e-15 0)
(3 3.13726e-15 0)
(3 2.94228e-15 0)
(3 2.68376e-15 0)
(3 2.9293e-15 0)
(3 1.11758e-15 0)
(3 -3.38427e-15 0)
(3 -4.33674e-15 0)
(3 1.44073e-16 0)
(3 7.62018e-16 0)
(3 2.17496e-15 0)
(3 2.66223e-15 0)
(3 2.31302e-15 0)
(3 1.94649e-15 0)
(3 1.73902e-15 0)
(3 2.87879e-16 0)
(3 -1.40675e-16 0)
(3 4.43626e-16 0)
(3 1.48697e-15 0)
(3 2.33711e-15 0)
(3 2.01234e-15 0)
(3 3.13374e-15 0)
(3 5.06334e-15 0)
(3 4.6833e-15 0)
(3 2.77915e-15 0)
(3 1.58341e-15 0)
(3 8.81709e-16 0)
(3 -1.0307e-15 0)
(3 -2.45399e-15 0)
(3 -3.08065e-15 0)
(3 -2.89638e-17 0)
(3 -3.45804e-16 0)
(3 -8.57006e-16 0)
(3 -8.97747e-16 0)
(3 -8.34732e-16 0)
(3 -1.01121e-15 0)
(3 -8.99676e-16 0)
(3 -4.6395e-16 0)
(3 1.72039e-16 0)
(3 2.57616e-16 0)
(3 3.24998e-16 0)
(3 2.40541e-16 0)
(3 -9.35244e-17 0)
(3 5.67143e-17 0)
(3 -2.17764e-16 0)
(3 -8.10348e-16 0)
(3 -8.73378e-17 0)
(3 1.23522e-16 0)
(3 -1.28974e-17 0)
(3 -2.43288e-16 0)
(3 -7.14518e-16 0)
(3 -1.16515e-15 0)
(3 -1.12707e-15 0)
(3 -6.75031e-16 0)
(3 6.9349e-16 0)
(3 1.62682e-15 0)
(3 1.77363e-15 0)
(3 1.27263e-15 0)
(3 6.61305e-16 0)
(3 2.69893e-16 0)
(3 6.58447e-16 0)
(3 2.66923e-15 0)
(3 2.89364e-15 0)
(3 1.39812e-15 0)
(3 2.31707e-16 0)
(3 -5.84845e-16 0)
(3 -3.51381e-16 0)
(3 6.71789e-16 0)
(3 -1.3689e-15 0)
(3 -1.84095e-15 0)
(3 -2.04842e-15 0)
(3 -1.84955e-15 0)
(3 -1.67043e-15 0)
(3 -8.38299e-16 0)
(3 -1.13096e-15 0)
(3 -2.16934e-15 0)
(3 -3.63335e-15 0)
(3 -3.69352e-15 0)
(3 -3.30086e-15 0)
(3 -3.71089e-15 0)
(3 -1.96085e-15 0)
(3 1.28222e-16 0)
(3 2.27672e-16 0)
(3 -2.23197e-17 0)
(3 -2.52922e-16 0)
(3 -2.8087e-17 0)
(3 1.91321e-17 0)
(3 9.45071e-16 0)
(3 8.98239e-16 0)
(3 5.53993e-16 0)
(3 -1.04279e-15 0)
(3 -2.16487e-15 0)
(3 -3.27593e-15 0)
(3 7.90594e-16 0)
(3 4.23857e-15 0)
(3 3.84335e-15 0)
(3 2.88553e-15 0)
(3 2.39071e-15 0)
(3 3.38548e-15 0)
(3 4.28726e-15 0)
(3 4.44487e-15 0)
(3 1.77296e-15 0)
(3 -2.84955e-15 0)
(3 -3.12368e-15 0)
(3 -1.23736e-15 0)
(3 1.22651e-15 0)
(3 1.24982e-15 0)
(3 2.14969e-15 0)
(3 2.23287e-15 0)
(3 2.54796e-15 0)
(3 2.30584e-15 0)
(3 1.92136e-15 0)
(3 1.34637e-15 0)
(3 1.22658e-15 0)
(3 3.36877e-15 0)
(3 4.68073e-15 0)
(3 4.64183e-15 0)
(3 7.01235e-15 0)
(3 7.79671e-15 0)
(3 7.47799e-15 0)
(3 5.91241e-15 0)
(3 3.92979e-15 0)
(3 2.94004e-15 0)
(3 1.75829e-15 0)
(3 1.26056e-15 0)
(3 -2.73913e-17 0)
(3 4.54243e-17 0)
(3 7.26224e-17 0)
(3 1.65297e-17 0)
(3 -2.40368e-18 0)
(3 8.43392e-17 0)
(3 -4.594e-17 0)
(3 -2.11513e-16 0)
(3 -2.35967e-17 0)
(3 7.22865e-16 0)
(3 6.8655e-16 0)
(3 -5.80239e-16 0)
(3 -1.27649e-15 0)
(3 -8.94617e-16 0)
(3 1.90285e-16 0)
(3 5.17015e-16 0)
(3 3.82274e-16 0)
(3 -1.68612e-16 0)
(3 -2.4012e-16 0)
(3 -2.68149e-16 0)
(3 -6.67975e-16 0)
(3 -7.60744e-16 0)
(3 -9.82947e-16 0)
(3 -6.99197e-16 0)
(3 5.69563e-17 0)
(3 -1.69101e-16 0)
(3 5.68908e-16 0)
(3 5.47175e-16 0)
(3 2.57325e-16 0)
(3 -1.10329e-18 0)
(3 1.33639e-16 0)
(3 2.84868e-16 0)
(3 1.40626e-16 0)
(3 -4.59848e-16 0)
(3 -6.50467e-16 0)
(3 -6.1054e-16 0)
(3 -7.26473e-16 0)
(3 -4.47339e-16 0)
(3 3.09765e-16 0)
(3 -1.46978e-16 0)
(3 -1.01329e-15 0)
(3 -6.6062e-16 0)
(3 -5.43722e-16 0)
(3 -8.42064e-16 0)
(3 -8.82179e-16 0)
(3 -1.95261e-15 0)
(3 -4.23606e-15 0)
(3 -4.31488e-15 0)
(3 -4.09982e-15 0)
(3 -3.71176e-15 0)
(3 -4.07028e-15 0)
(3 -3.48681e-15 0)
(3 -3.70134e-16 0)
(3 8.23592e-16 0)
(3 1.30612e-15 0)
(3 2.28418e-15 0)
(3 2.58557e-15 0)
(3 2.83059e-15 0)
(3 3.11595e-15 0)
(3 2.60565e-15 0)
(3 1.22424e-15 0)
(3 1.138e-15 0)
(3 7.45387e-16 0)
(3 5.87248e-17 0)
(3 2.74737e-15 0)
(3 4.65392e-15 0)
(3 5.52198e-15 0)
(3 3.93345e-15 0)
(3 2.67541e-15 0)
(3 2.75574e-15 0)
(3 3.2706e-15 0)
(3 2.80541e-15 0)
(3 3.15655e-16 0)
(3 -1.50347e-15 0)
(3 -1.02919e-15 0)
(3 -9.70568e-16 0)
(3 -7.12876e-16 0)
(3 -3.12825e-16 0)
(3 1.27376e-15 0)
(3 1.81323e-15 0)
(3 1.96986e-15 0)
(3 1.39282e-15 0)
(3 8.57542e-16 0)
(3 1.11212e-15 0)
(3 1.24835e-15 0)
(3 3.9131e-15 0)
(3 6.35425e-15 0)
(3 8.08082e-15 0)
(3 8.07373e-15 0)
(3 6.63623e-15 0)
(3 6.1058e-15 0)
(3 5.35089e-15 0)
(3 4.53042e-15 0)
(3 3.72868e-15 0)
(3 3.93937e-15 0)
(3 3.81429e-15 0)
(3 3.04598e-15 0)
(3 -1.01311e-17 0)
(3 1.44305e-16 0)
(3 2.18457e-16 0)
(3 1.47505e-16 0)
(3 1.00382e-15 0)
(3 1.3785e-15 0)
(3 1.26172e-15 0)
(3 1.04105e-15 0)
(3 1.01598e-15 0)
(3 1.01905e-15 0)
(3 3.29805e-16 0)
(3 -7.36641e-16 0)
(3 -6.04213e-16 0)
(3 -3.37567e-16 0)
(3 4.88175e-16 0)
(3 6.32562e-16 0)
(3 -6.23358e-17 0)
(3 -5.05952e-17 0)
(3 7.08773e-17 0)
(3 3.3908e-16 0)
(3 3.96245e-16 0)
(3 1.29453e-16 0)
(3 -2.97581e-16 0)
(3 -1.96123e-16 0)
(3 -5.55253e-16 0)
(3 -1.00376e-15 0)
(3 -9.515e-16 0)
(3 -6.08802e-16 0)
(3 8.41316e-16 0)
(3 1.46687e-15 0)
(3 1.26752e-16 0)
(3 -2.09299e-15 0)
(3 -3.16795e-15 0)
(3 -1.28609e-15 0)
(3 -6.79808e-16 0)
(3 -4.118e-16 0)
(3 -1.83984e-16 0)
(3 -1.07676e-16 0)
(3 -1.55728e-16 0)
(3 -6.31033e-16 0)
(3 -1.56821e-15 0)
(3 -1.80591e-15 0)
(3 -1.76803e-15 0)
(3 -3.08096e-15 0)
(3 -3.27604e-15 0)
(3 -3.6142e-15 0)
(3 -4.60001e-15 0)
(3 -4.37909e-15 0)
(3 -4.06211e-15 0)
(3 -3.03828e-15 0)
(3 -1.84662e-15 0)
(3 -3.74458e-16 0)
(3 -2.13497e-16 0)
(3 -8.61666e-16 0)
(3 -5.10638e-16 0)
(3 1.12098e-16 0)
(3 8.84519e-16 0)
(3 2.43933e-15 0)
(3 3.59514e-15 0)
(3 4.7765e-15 0)
(3 5.06076e-15 0)
(3 5.39364e-15 0)
(3 4.04156e-15 0)
(3 7.70706e-16 0)
(3 1.65438e-15 0)
(3 2.57352e-15 0)
(3 2.01955e-15 0)
(3 1.33851e-15 0)
(3 1.13078e-15 0)
(3 6.21451e-16 0)
(3 -9.2404e-16 0)
(3 -2.04778e-16 0)
(3 -4.66743e-16 0)
(3 -6.97501e-16 0)
(3 -1.67226e-15 0)
(3 -1.61351e-15 0)
(3 5.14623e-18 0)
(3 1.94078e-15 0)
(3 2.06065e-15 0)
(3 2.16592e-15 0)
(3 1.98508e-15 0)
(3 1.67763e-15 0)
(3 2.50588e-15 0)
(3 2.63645e-15 0)
(3 3.57378e-15 0)
(3 6.30842e-15 0)
(3 7.37962e-15 0)
(3 7.8506e-15 0)
(3 7.60325e-15 0)
(3 6.84216e-15 0)
(3 4.35358e-15 0)
(3 3.38188e-15 0)
(3 3.18403e-15 0)
(3 3.32295e-15 0)
(3 4.28072e-15 0)
(3 5.25668e-15 0)
(3 -1.19129e-16 0)
(3 2.15127e-16 0)
(3 3.68005e-16 0)
(3 1.49243e-16 0)
(3 3.14442e-16 0)
(3 1.11135e-15 0)
(3 1.49485e-15 0)
(3 1.90917e-15 0)
(3 1.8869e-15 0)
(3 1.76797e-15 0)
(3 1.56292e-15 0)
(3 7.69766e-16 0)
(3 5.14148e-16 0)
(3 2.48015e-16 0)
(3 -2.43093e-16 0)
(3 -1.98588e-16 0)
(3 4.54358e-17 0)
(3 5.62606e-16 0)
(3 4.26434e-16 0)
(3 6.70179e-16 0)
(3 9.21565e-16 0)
(3 9.10994e-16 0)
(3 -7.73342e-17 0)
(3 -3.72709e-17 0)
(3 3.58662e-16 0)
(3 -3.20518e-16 0)
(3 -9.99937e-16 0)
(3 -1.94939e-16 0)
(3 6.70702e-16 0)
(3 6.64139e-16 0)
(3 5.3311e-16 0)
(3 4.38084e-16 0)
(3 3.47429e-16 0)
(3 6.08439e-16 0)
(3 4.66246e-16 0)
(3 5.84757e-16 0)
(3 8.84232e-16 0)
(3 1.27179e-15 0)
(3 -3.95913e-16 0)
(3 -1.35803e-15 0)
(3 -1.99583e-15 0)
(3 -1.43059e-15 0)
(3 -1.39478e-15 0)
(3 -2.64491e-15 0)
(3 -3.05001e-15 0)
(3 -2.65672e-15 0)
(3 -2.32632e-15 0)
(3 -2.98363e-15 0)
(3 -3.40402e-15 0)
(3 -2.6646e-15 0)
(3 -1.80368e-15 0)
(3 -1.26981e-15 0)
(3 -1.55222e-15 0)
(3 -2.08228e-15 0)
(3 -2.42789e-15 0)
(3 -1.74554e-15 0)
(3 6.42943e-17 0)
(3 2.24522e-15 0)
(3 3.84894e-15 0)
(3 6.25865e-15 0)
(3 6.85024e-15 0)
(3 7.05073e-15 0)
(3 4.70423e-15 0)
(3 1.43443e-15 0)
(3 9.37342e-16 0)
(3 1.31008e-15 0)
(3 1.66267e-15 0)
(3 1.86762e-15 0)
(3 1.11621e-15 0)
(3 -2.2572e-16 0)
(3 -2.03418e-15 0)
(3 -2.36897e-15 0)
(3 6.36657e-17 0)
(3 1.52567e-15 0)
(3 1.38726e-15 0)
(3 8.58885e-16 0)
(3 9.248e-16 0)
(3 1.20248e-15 0)
(3 1.23731e-15 0)
(3 1.52091e-15 0)
(3 2.37702e-15 0)
(3 2.72395e-15 0)
(3 3.01109e-15 0)
(3 3.92397e-15 0)
(3 4.67725e-15 0)
(3 5.19599e-15 0)
(3 5.10553e-15 0)
(3 5.05038e-15 0)
(3 5.71746e-15 0)
(3 5.72728e-15 0)
(3 4.51978e-15 0)
(3 1.94991e-15 0)
(3 2.14196e-15 0)
(3 2.6437e-15 0)
(3 3.77835e-15 0)
(3 5.77004e-15 0)
(3 6.26696e-17 0)
(3 -3.64269e-17 0)
(3 4.6036e-17 0)
(3 4.89435e-17 0)
(3 -1.36712e-17 0)
(3 -2.12114e-16 0)
(3 -3.95504e-17 0)
(3 5.18894e-16 0)
(3 7.69951e-16 0)
(3 9.49772e-16 0)
(3 1.06685e-15 0)
(3 1.08203e-15 0)
(3 8.71661e-16 0)
(3 6.51255e-16 0)
(3 7.29173e-16 0)
(3 6.96495e-16 0)
(3 9.32853e-16 0)
(3 7.79586e-16 0)
(3 3.01486e-16 0)
(3 -3.75992e-16 0)
(3 -5.86948e-18 0)
(3 7.8447e-16 0)
(3 1.23987e-15 0)
(3 7.68318e-16 0)
(3 1.72019e-15 0)
(3 1.77085e-15 0)
(3 1.34677e-15 0)
(3 1.21118e-15 0)
(3 9.51923e-16 0)
(3 6.06333e-16 0)
(3 2.98392e-16 0)
(3 1.97641e-15 0)
(3 2.82269e-15 0)
(3 2.04513e-15 0)
(3 1.12434e-15 0)
(3 3.77056e-16 0)
(3 -2.83993e-17 0)
(3 -3.31619e-16 0)
(3 -4.51875e-16 0)
(3 4.80283e-16 0)
(3 7.46127e-16 0)
(3 5.13514e-16 0)
(3 -1.33629e-16 0)
(3 -7.69895e-17 0)
(3 -2.74646e-15 0)
(3 -2.25527e-15 0)
(3 -6.14561e-16 0)
(3 -2.26945e-16 0)
(3 -8.28184e-16 0)
(3 -5.03604e-16 0)
(3 -1.56996e-15 0)
(3 -2.03715e-15 0)
(3 -2.57877e-15 0)
(3 -3.12712e-15 0)
(3 -2.83956e-15 0)
(3 -1.53314e-15 0)
(3 -5.43327e-16 0)
(3 1.98621e-15 0)
(3 3.30081e-15 0)
(3 3.4709e-15 0)
(3 3.12787e-15 0)
(3 2.28556e-15 0)
(3 1.71906e-15 0)
(3 1.93827e-15 0)
(3 2.09835e-15 0)
(3 2.16903e-15 0)
(3 2.33281e-15 0)
(3 2.14537e-15 0)
(3 2.16694e-15 0)
(3 1.04364e-16 0)
(3 -2.52846e-15 0)
(3 -5.89551e-15 0)
(3 -1.83794e-15 0)
(3 1.91689e-15 0)
(3 3.0842e-15 0)
(3 2.83515e-15 0)
(3 2.37485e-15 0)
(3 2.3489e-15 0)
(3 2.62549e-15 0)
(3 2.6207e-15 0)
(3 3.24387e-15 0)
(3 3.27337e-15 0)
(3 9.97593e-16 0)
(3 3.42409e-15 0)
(3 5.75476e-15 0)
(3 4.18528e-15 0)
(3 3.64741e-15 0)
(3 3.47433e-15 0)
(3 2.06347e-15 0)
(3 1.00881e-15 0)
(3 4.28518e-16 0)
(3 6.01102e-17 0)
(3 9.87292e-16 0)
(3 1.2235e-15 0)
(3 1.90629e-15 0)
(3 4.38001e-15 0)
(3 -1.94732e-17 0)
(3 -1.82653e-16 0)
(3 -6.0878e-16 0)
(3 -4.90096e-16 0)
(3 -5.3205e-16 0)
(3 -9.32234e-16 0)
(3 -7.43309e-16 0)
(3 -7.25663e-16 0)
(3 -3.51171e-16 0)
(3 -2.96803e-18 0)
(3 8.46956e-16 0)
(3 1.32277e-15 0)
(3 9.52083e-16 0)
(3 4.61332e-16 0)
(3 5.98419e-16 0)
(3 -9.83627e-17 0)
(3 -6.90927e-16 0)
(3 -9.41758e-16 0)
(3 -1.05345e-15 0)
(3 -6.73869e-16 0)
(3 1.0045e-16 0)
(3 5.11081e-16 0)
(3 1.25311e-15 0)
(3 1.14899e-15 0)
(3 1.94454e-15 0)
(3 2.52585e-15 0)
(3 2.7781e-15 0)
(3 1.67312e-15 0)
(3 9.67544e-16 0)
(3 7.05575e-16 0)
(3 6.05405e-16 0)
(3 2.21861e-15 0)
(3 2.34776e-15 0)
(3 2.14492e-15 0)
(3 3.83239e-16 0)
(3 -1.29907e-15 0)
(3 -1.75376e-15 0)
(3 -3.05402e-15 0)
(3 -1.51533e-15 0)
(3 1.92552e-16 0)
(3 8.20239e-16 0)
(3 1.01903e-15 0)
(3 5.13893e-17 0)
(3 -9.41703e-16 0)
(3 -1.12231e-15 0)
(3 -1.57255e-15 0)
(3 -6.55397e-16 0)
(3 -4.07051e-16 0)
(3 -1.05532e-16 0)
(3 -6.24049e-16 0)
(3 -1.39732e-15 0)
(3 -1.69938e-15 0)
(3 -2.94741e-15 0)
(3 -3.65434e-15 0)
(3 -3.55311e-15 0)
(3 -2.70172e-15 0)
(3 -1.79583e-15 0)
(3 -1.49242e-15 0)
(3 -4.8032e-16 0)
(3 -5.0947e-16 0)
(3 -1.26787e-15 0)
(3 -1.93427e-15 0)
(3 -7.32435e-16 0)
(3 1.07922e-15 0)
(3 1.88457e-15 0)
(3 1.76908e-15 0)
(3 2.12173e-15 0)
(3 1.24706e-15 0)
(3 -4.82088e-16 0)
(3 -3.33132e-15 0)
(3 -6.51464e-15 0)
(3 -7.6683e-15 0)
(3 -2.36992e-15 0)
(3 1.63132e-15 0)
(3 3.15834e-15 0)
(3 4.29449e-15 0)
(3 4.7361e-15 0)
(3 3.85573e-15 0)
(3 3.37411e-15 0)
(3 3.67602e-15 0)
(3 3.75264e-15 0)
(3 3.28876e-15 0)
(3 2.1796e-15 0)
(3 3.72064e-15 0)
(3 6.46722e-15 0)
(3 5.76747e-15 0)
(3 2.45821e-15 0)
(3 1.6018e-15 0)
(3 2.2342e-16 0)
(3 -1.83414e-15 0)
(3 -2.41048e-15 0)
(3 -2.42627e-15 0)
(3 -2.29815e-15 0)
(3 -1.90724e-15 0)
(3 -7.34087e-16 0)
(3 8.95682e-16 0)
(3 -2.94913e-17 0)
(3 2.78505e-17 0)
(3 -8.70878e-18 0)
(3 -4.07614e-16 0)
(3 -1.09186e-15 0)
(3 -1.143e-15 0)
(3 -8.88297e-16 0)
(3 -7.68987e-16 0)
(3 -1.64065e-16 0)
(3 -4.01651e-16 0)
(3 7.45717e-16 0)
(3 1.36734e-15 0)
(3 1.54558e-15 0)
(3 4.74172e-16 0)
(3 -5.39126e-17 0)
(3 -1.77015e-16 0)
(3 -3.72393e-16 0)
(3 -7.29726e-16 0)
(3 -1.14502e-15 0)
(3 -7.2554e-16 0)
(3 -4.50457e-16 0)
(3 -3.70502e-16 0)
(3 5.28376e-16 0)
(3 1.5752e-15 0)
(3 1.41808e-15 0)
(3 1.44109e-15 0)
(3 1.21928e-15 0)
(3 6.1498e-16 0)
(3 -3.32869e-16 0)
(3 -5.48958e-16 0)
(3 5.94171e-16 0)
(3 1.56506e-15 0)
(3 3.548e-16 0)
(3 -3.64873e-16 0)
(3 -1.37051e-15 0)
(3 -1.42093e-15 0)
(3 -2.17206e-15 0)
(3 -5.04501e-15 0)
(3 -2.92402e-15 0)
(3 -5.63304e-16 0)
(3 3.43598e-16 0)
(3 4.3677e-16 0)
(3 8.59878e-17 0)
(3 -6.69722e-16 0)
(3 1.30203e-16 0)
(3 5.62982e-16 0)
(3 -2.93855e-16 0)
(3 -6.02496e-16 0)
(3 -7.81893e-16 0)
(3 -1.42287e-15 0)
(3 -1.69102e-15 0)
(3 -2.23396e-15 0)
(3 -2.39578e-15 0)
(3 -1.39525e-15 0)
(3 -1.88034e-15 0)
(3 -3.6535e-15 0)
(3 -5.28537e-15 0)
(3 -5.68087e-15 0)
(3 -5.3771e-15 0)
(3 -3.94159e-15 0)
(3 -3.03267e-15 0)
(3 -2.3847e-15 0)
(3 -1.50537e-15 0)
(3 -3.62737e-16 0)
(3 -3.05061e-17 0)
(3 -6.68712e-16 0)
(3 -5.25762e-16 0)
(3 -6.87305e-16 0)
(3 -2.11069e-15 0)
(3 -3.45953e-15 0)
(3 -4.33227e-15 0)
(3 -4.15819e-15 0)
(3 5.66103e-16 0)
(3 3.74574e-15 0)
(3 4.2424e-15 0)
(3 5.33024e-15 0)
(3 5.59804e-15 0)
(3 5.42912e-15 0)
(3 4.75945e-15 0)
(3 4.03694e-15 0)
(3 3.83152e-15 0)
(3 3.5015e-15 0)
(3 4.21565e-15 0)
(3 6.1139e-15 0)
(3 6.15074e-15 0)
(3 6.92602e-15 0)
(3 4.17542e-15 0)
(3 5.6223e-16 0)
(3 -3.73093e-16 0)
(3 -1.97578e-15 0)
(3 -3.09343e-15 0)
(3 -3.35057e-15 0)
(3 -2.90486e-15 0)
(3 -2.86512e-15 0)
(3 -2.77275e-15 0)
(3 -2.43167e-15 0)
(3 -9.92423e-17 0)
(3 -2.42706e-16 0)
(3 -8.27336e-17 0)
(3 -1.38205e-16 0)
(3 -2.32853e-16 0)
(3 -1.59168e-16 0)
(3 -2.37224e-16 0)
(3 -4.44044e-16 0)
(3 -4.50307e-16 0)
(3 -5.85422e-16 0)
(3 6.96975e-16 0)
(3 4.74491e-16 0)
(3 -4.21552e-16 0)
(3 -5.45478e-16 0)
(3 -5.09503e-16 0)
(3 -4.30252e-16 0)
(3 2.03152e-16 0)
(3 -1.57844e-16 0)
(3 -3.63472e-16 0)
(3 -7.48617e-16 0)
(3 -8.45121e-16 0)
(3 -3.1655e-16 0)
(3 8.98843e-17 0)
(3 1.25703e-15 0)
(3 2.0574e-15 0)
(3 1.77655e-15 0)
(3 7.27608e-16 0)
(3 2.38731e-16 0)
(3 -6.14198e-16 0)
(3 -1.07784e-15 0)
(3 6.60466e-16 0)
(3 1.68269e-15 0)
(3 1.87006e-16 0)
(3 -3.47461e-16 0)
(3 -1.46645e-15 0)
(3 -2.43711e-15 0)
(3 -4.51515e-15 0)
(3 -5.3221e-15 0)
(3 -2.82985e-15 0)
(3 -1.79954e-15 0)
(3 -1.20093e-15 0)
(3 -1.02067e-15 0)
(3 -2.88992e-16 0)
(3 1.74783e-16 0)
(3 -2.25254e-17 0)
(3 -1.46815e-16 0)
(3 -5.38368e-16 0)
(3 -8.08456e-16 0)
(3 -9.79136e-16 0)
(3 -7.59785e-16 0)
(3 -7.96498e-16 0)
(3 -8.29494e-16 0)
(3 -9.7935e-16 0)
(3 -1.24726e-15 0)
(3 -1.56259e-15 0)
(3 -3.15926e-15 0)
(3 -4.47056e-15 0)
(3 -5.17607e-15 0)
(3 -5.56787e-15 0)
(3 -5.09405e-15 0)
(3 -3.94524e-15 0)
(3 -2.27062e-15 0)
(3 -1.31674e-15 0)
(3 -1.10625e-15 0)
(3 -2.38471e-15 0)
(3 -3.22552e-15 0)
(3 -2.79639e-15 0)
(3 -2.77941e-15 0)
(3 -3.12754e-15 0)
(3 -3.03113e-15 0)
(3 -3.11009e-15 0)
(3 -1.77103e-15 0)
(3 2.9287e-15 0)
(3 6.65703e-15 0)
(3 7.22361e-15 0)
(3 6.30082e-15 0)
(3 5.38353e-15 0)
(3 5.31621e-15 0)
(3 5.01285e-15 0)
(3 3.29884e-15 0)
(3 2.15857e-15 0)
(3 2.98481e-15 0)
(3 5.15226e-15 0)
(3 6.22641e-15 0)
(3 5.58222e-15 0)
(3 4.91896e-15 0)
(3 4.63943e-15 0)
(3 1.00903e-15 0)
(3 2.98937e-16 0)
(3 -7.53862e-16 0)
(3 -1.73826e-15 0)
(3 -2.0839e-15 0)
(3 -2.11795e-15 0)
(3 -2.26677e-15 0)
(3 -3.40594e-15 0)
(3 -3.23189e-15 0)
(3 -4.94612e-17 0)
(3 1.81901e-17 0)
(3 1.44599e-16 0)
(3 3.73314e-16 0)
(3 4.9734e-16 0)
(3 5.44288e-16 0)
(3 5.64439e-16 0)
(3 4.61006e-16 0)
(3 -5.41693e-16 0)
(3 -6.72447e-16 0)
(3 -5.06818e-16 0)
(3 -4.22787e-16 0)
(3 6.23441e-17 0)
(3 2.6365e-16 0)
(3 -7.2e-16 0)
(3 -9.97781e-16 0)
(3 -6.51408e-16 0)
(3 -9.02102e-17 0)
(3 2.93137e-16 0)
(3 -4.12171e-16 0)
(3 1.08026e-16 0)
(3 7.3621e-16 0)
(3 7.79588e-16 0)
(3 7.08555e-16 0)
(3 7.65117e-16 0)
(3 1.14333e-15 0)
(3 1.20276e-15 0)
(3 8.32631e-16 0)
(3 2.58025e-16 0)
(3 -2.61259e-16 0)
(3 1.23742e-15 0)
(3 2.22781e-15 0)
(3 7.06774e-16 0)
(3 3.32325e-17 0)
(3 -1.71869e-15 0)
(3 -3.05716e-15 0)
(3 -3.83318e-15 0)
(3 -2.99622e-15 0)
(3 -9.34481e-16 0)
(3 -1.2819e-15 0)
(3 -1.69878e-15 0)
(3 -1.75996e-15 0)
(3 -1.21136e-15 0)
(3 -6.71023e-16 0)
(3 -8.93397e-16 0)
(3 -1.4551e-15 0)
(3 -1.88395e-15 0)
(3 -1.03383e-15 0)
(3 3.02224e-17 0)
(3 5.4203e-16 0)
(3 -5.74096e-17 0)
(3 -2.52517e-16 0)
(3 -6.71785e-16 0)
(3 -1.60976e-15 0)
(3 -2.29758e-15 0)
(3 -3.05274e-15 0)
(3 -3.73085e-15 0)
(3 -4.11584e-15 0)
(3 -4.41875e-15 0)
(3 -4.09277e-15 0)
(3 -3.66052e-15 0)
(3 -2.41512e-15 0)
(3 -1.98959e-15 0)
(3 -8.3071e-16 0)
(3 -1.27174e-15 0)
(3 -1.1782e-15 0)
(3 -8.44251e-16 0)
(3 -6.79335e-16 0)
(3 -9.65869e-16 0)
(3 -1.17148e-15 0)
(3 -8.56937e-16 0)
(3 1.10443e-15 0)
(3 4.08841e-15 0)
(3 4.74488e-15 0)
(3 5.76301e-15 0)
(3 6.12341e-15 0)
(3 5.11618e-15 0)
(3 4.63653e-15 0)
(3 4.12351e-15 0)
(3 3.54222e-15 0)
(3 3.44725e-15 0)
(3 4.47275e-15 0)
(3 5.15647e-15 0)
(3 4.84656e-15 0)
(3 4.05652e-15 0)
(3 4.28394e-15 0)
(3 4.84833e-15 0)
(3 2.88283e-15 0)
(3 -8.89336e-16 0)
(3 -2.22742e-15 0)
(3 -2.0275e-15 0)
(3 -2.23048e-15 0)
(3 -2.66057e-15 0)
(3 -3.45572e-15 0)
(3 -4.02978e-15 0)
(3 -3.35111e-15 0)
(3 1.51415e-16 0)
(3 3.76858e-16 0)
(3 6.57268e-16 0)
(3 6.59775e-16 0)
(3 7.63034e-16 0)
(3 7.61636e-16 0)
(3 5.47906e-16 0)
(3 3.66747e-16 0)
(3 -2.4059e-18 0)
(3 -4.99663e-17 0)
(3 -2.93151e-17 0)
(3 4.35318e-16 0)
(3 4.07897e-16 0)
(3 8.00323e-16 0)
(3 9.52424e-17 0)
(3 -9.26106e-16 0)
(3 -1.72234e-15 0)
(3 -8.0095e-16 0)
(3 2.49884e-16 0)
(3 9.61898e-16 0)
(3 2.03582e-15 0)
(3 2.01149e-15 0)
(3 1.56686e-15 0)
(3 1.4439e-16 0)
(3 -7.50308e-16 0)
(3 -3.44709e-16 0)
(3 -2.541e-16 0)
(3 6.68438e-17 0)
(3 -3.67187e-16 0)
(3 -5.12317e-17 0)
(3 8.92929e-16 0)
(3 7.87883e-16 0)
(3 -9.28233e-16 0)
(3 -1.91655e-15 0)
(3 -2.74666e-15 0)
(3 -3.34389e-15 0)
(3 -2.86131e-15 0)
(3 -4.68826e-16 0)
(3 2.72821e-17 0)
(3 -6.62045e-17 0)
(3 -6.60128e-16 0)
(3 -1.01882e-15 0)
(3 -1.53712e-15 0)
(3 -1.83698e-15 0)
(3 -7.30037e-16 0)
(3 -4.79452e-16 0)
(3 -2.37108e-16 0)
(3 6.13156e-16 0)
(3 1.26663e-15 0)
(3 7.21305e-16 0)
(3 2.05784e-16 0)
(3 9.01704e-17 0)
(3 -7.03295e-16 0)
(3 -1.3883e-15 0)
(3 -1.57402e-15 0)
(3 -1.95558e-15 0)
(3 -1.82622e-15 0)
(3 -1.55165e-15 0)
(3 -1.38572e-15 0)
(3 -1.27999e-15 0)
(3 -4.80635e-16 0)
(3 2.49818e-16 0)
(3 3.60492e-16 0)
(3 7.05151e-16 0)
(3 9.3042e-16 0)
(3 1.33411e-15 0)
(3 1.63231e-15 0)
(3 1.76023e-15 0)
(3 2.05523e-15 0)
(3 2.72379e-15 0)
(3 3.28545e-15 0)
(3 3.32696e-15 0)
(3 2.45817e-15 0)
(3 1.51097e-15 0)
(3 7.2475e-16 0)
(3 1.39335e-15 0)
(3 1.03839e-15 0)
(3 2.17366e-15 0)
(3 2.87294e-15 0)
(3 3.15812e-15 0)
(3 4.21405e-15 0)
(3 4.75229e-15 0)
(3 4.07204e-15 0)
(3 3.38026e-15 0)
(3 4.23095e-15 0)
(3 3.99758e-15 0)
(3 2.82606e-15 0)
(3 2.25576e-15 0)
(3 2.06893e-15 0)
(3 1.80611e-15 0)
(3 -1.58169e-17 0)
(3 -1.25575e-15 0)
(3 -1.79958e-15 0)
(3 -1.59025e-15 0)
(3 -2.50119e-15 0)
(3 -1.23719e-15 0)
(3 7.47744e-17 0)
(3 6.89491e-19 0)
(3 9.22896e-17 0)
(3 1.36263e-16 0)
(3 3.17414e-16 0)
(3 2.3691e-16 0)
(3 2.8679e-16 0)
(3 2.84214e-17 0)
(3 4.68334e-16 0)
(3 4.42468e-16 0)
(3 2.97676e-16 0)
(3 3.55918e-16 0)
(3 -2.9603e-16 0)
(3 -4.26349e-16 0)
(3 -2.85548e-16 0)
(3 -6.71111e-16 0)
(3 -1.8014e-15 0)
(3 -7.10691e-16 0)
(3 5.35524e-16 0)
(3 1.80126e-15 0)
(3 2.84442e-15 0)
(3 2.3842e-15 0)
(3 1.5724e-15 0)
(3 1.14962e-15 0)
(3 1.16832e-16 0)
(3 -4.11626e-16 0)
(3 4.40602e-16 0)
(3 1.30671e-15 0)
(3 1.76103e-15 0)
(3 1.85235e-15 0)
(3 2.11385e-15 0)
(3 -1.0239e-15 0)
(3 -2.43507e-15 0)
(3 -3.13291e-15 0)
(3 -3.31806e-15 0)
(3 -3.8061e-15 0)
(3 -3.93829e-15 0)
(3 -1.81888e-15 0)
(3 -1.57435e-16 0)
(3 7.50054e-16 0)
(3 3.38665e-16 0)
(3 -1.11169e-15 0)
(3 -2.14661e-15 0)
(3 -2.58554e-15 0)
(3 -2.2584e-15 0)
(3 -1.7113e-15 0)
(3 -2.13498e-17 0)
(3 1.75209e-15 0)
(3 2.15837e-15 0)
(3 1.33062e-15 0)
(3 1.35119e-15 0)
(3 1.65469e-15 0)
(3 1.54044e-15 0)
(3 1.35749e-15 0)
(3 6.42198e-16 0)
(3 1.62449e-16 0)
(3 5.94557e-16 0)
(3 1.10682e-15 0)
(3 1.97327e-15 0)
(3 2.40045e-15 0)
(3 3.15314e-15 0)
(3 3.74003e-15 0)
(3 3.41876e-15 0)
(3 2.27616e-15 0)
(3 2.69211e-15 0)
(3 3.34628e-15 0)
(3 3.31669e-15 0)
(3 3.30339e-15 0)
(3 3.53973e-15 0)
(3 3.48836e-15 0)
(3 3.2644e-15 0)
(3 2.68155e-15 0)
(3 1.50402e-15 0)
(3 -5.9287e-16 0)
(3 -1.35864e-15 0)
(3 -2.4022e-15 0)
(3 -3.19604e-15 0)
(3 -7.31388e-17 0)
(3 2.45482e-15 0)
(3 4.63237e-15 0)
(3 4.16224e-15 0)
(3 2.61793e-15 0)
(3 2.1761e-15 0)
(3 2.28311e-15 0)
(3 2.4873e-15 0)
(3 1.89881e-15 0)
(3 1.25099e-15 0)
(3 1.19943e-15 0)
(3 1.19822e-15 0)
(3 1.25047e-15 0)
(3 8.86343e-16 0)
(3 1.36889e-16 0)
(3 -1.45347e-16 0)
(3 -6.31141e-16 0)
(3 -1.12252e-15 0)
(3 -5.29205e-16 0)
(3 -1.77978e-16 0)
(3 -5.39537e-16 0)
(3 -7.27234e-16 0)
(3 -5.81985e-16 0)
(3 -6.56605e-16 0)
(3 -3.22118e-16 0)
(3 1.69548e-17 0)
(3 7.52996e-17 0)
(3 -1.28398e-16 0)
(3 -2.37394e-16 0)
(3 4.70842e-17 0)
(3 -8.14519e-16 0)
(3 -1.36553e-15 0)
(3 -4.95474e-16 0)
(3 -2.14545e-16 0)
(3 1.53195e-16 0)
(3 4.24554e-16 0)
(3 8.0646e-16 0)
(3 1.8258e-15 0)
(3 2.01307e-15 0)
(3 1.93744e-15 0)
(3 1.70504e-15 0)
(3 1.86089e-15 0)
(3 1.47437e-15 0)
(3 1.26528e-16 0)
(3 -1.00286e-15 0)
(3 -9.64445e-16 0)
(3 -4.44654e-16 0)
(3 6.97273e-16 0)
(3 1.61646e-15 0)
(3 1.29552e-15 0)
(3 -8.97739e-16 0)
(3 -1.50115e-15 0)
(3 -1.53312e-15 0)
(3 -1.64805e-15 0)
(3 -1.82054e-15 0)
(3 -2.62552e-15 0)
(3 -2.63056e-15 0)
(3 -2.05845e-16 0)
(3 4.3894e-16 0)
(3 2.01919e-16 0)
(3 -6.83092e-16 0)
(3 -9.8426e-16 0)
(3 -1.73045e-15 0)
(3 -2.96571e-15 0)
(3 -2.35915e-15 0)
(3 -5.34821e-16 0)
(3 1.61856e-15 0)
(3 3.06816e-15 0)
(3 3.76021e-15 0)
(3 4.24916e-15 0)
(3 4.31139e-15 0)
(3 4.25284e-15 0)
(3 4.13989e-15 0)
(3 4.02025e-15 0)
(3 2.94246e-15 0)
(3 2.55331e-15 0)
(3 2.2025e-15 0)
(3 2.26259e-15 0)
(3 2.87395e-15 0)
(3 3.34887e-15 0)
(3 3.21449e-15 0)
(3 2.76908e-15 0)
(3 2.27531e-15 0)
(3 3.63311e-15 0)
(3 4.09686e-15 0)
(3 3.86406e-15 0)
(3 3.76377e-15 0)
(3 3.38403e-15 0)
(3 2.63565e-15 0)
(3 1.9569e-15 0)
(3 1.07292e-15 0)
(3 -9.82789e-17 0)
(3 -1.22765e-15 0)
(3 -2.26752e-15 0)
(3 -3.27286e-15 0)
(3 -5.31774e-15 0)
(3 -2.53422e-15 0)
(3 7.80308e-17 0)
(3 1.09886e-15 0)
(3 1.07737e-15 0)
(3 5.19631e-16 0)
(3 8.40029e-16 0)
(3 7.20317e-16 0)
(3 5.83721e-16 0)
(3 6.25106e-16 0)
(3 8.44687e-16 0)
(3 7.54204e-16 0)
(3 1.6855e-16 0)
(3 1.95733e-16 0)
(3 5.42236e-16 0)
(3 1.04986e-15 0)
(3 9.51267e-16 0)
(3 2.41754e-16 0)
(3 1.6597e-16 0)
(3 1.04803e-15 0)
(3 -1.40583e-17 0)
(3 -7.4754e-17 0)
(3 -7.79852e-17 0)
(3 -1.15645e-16 0)
(3 1.25374e-16 0)
(3 -3.38312e-17 0)
(3 -4.10064e-16 0)
(3 -3.88003e-16 0)
(3 -5.87148e-16 0)
(3 -5.38759e-16 0)
(3 -2.69905e-16 0)
(3 -6.70473e-16 0)
(3 -1.21065e-15 0)
(3 -6.12732e-16 0)
(3 -2.3085e-16 0)
(3 6.11999e-18 0)
(3 6.57877e-16 0)
(3 1.03602e-15 0)
(3 2.23895e-15 0)
(3 1.9845e-15 0)
(3 1.49228e-15 0)
(3 1.63414e-15 0)
(3 1.28208e-15 0)
(3 4.43817e-16 0)
(3 -4.98217e-16 0)
(3 -8.69375e-16 0)
(3 -1.03698e-15 0)
(3 -8.37316e-16 0)
(3 -1.20946e-16 0)
(3 6.82528e-16 0)
(3 9.24498e-16 0)
(3 -5.99037e-17 0)
(3 -9.93546e-17 0)
(3 7.68012e-16 0)
(3 6.75452e-16 0)
(3 1.30534e-16 0)
(3 -1.47924e-16 0)
(3 -4.35947e-16 0)
(3 -4.37718e-16 0)
(3 -1.28779e-15 0)
(3 -1.99479e-15 0)
(3 -1.7334e-15 0)
(3 -1.81342e-15 0)
(3 -2.34118e-15 0)
(3 -3.01774e-15 0)
(3 -2.2729e-15 0)
(3 -7.91308e-16 0)
(3 5.44499e-16 0)
(3 2.1952e-15 0)
(3 4.03707e-15 0)
(3 5.88848e-15 0)
(3 6.67252e-15 0)
(3 6.4854e-15 0)
(3 6.4049e-15 0)
(3 5.88402e-15 0)
(3 4.43721e-15 0)
(3 3.40885e-15 0)
(3 2.49234e-15 0)
(3 1.8497e-15 0)
(3 1.80753e-15 0)
(3 1.80145e-15 0)
(3 1.4176e-15 0)
(3 1.48382e-15 0)
(3 2.31988e-15 0)
(3 3.09349e-15 0)
(3 2.84036e-15 0)
(3 2.82174e-15 0)
(3 2.75707e-15 0)
(3 2.55654e-15 0)
(3 2.43484e-15 0)
(3 2.25216e-15 0)
(3 1.48093e-15 0)
(3 7.47742e-16 0)
(3 1.3119e-16 0)
(3 -2.08101e-15 0)
(3 -5.45059e-15 0)
(3 -6.24519e-15 0)
(3 -1.80962e-15 0)
(3 -3.50007e-16 0)
(3 6.04335e-16 0)
(3 1.14692e-15 0)
(3 1.785e-15 0)
(3 2.52284e-15 0)
(3 1.98778e-15 0)
(3 -8.10159e-16 0)
(3 -1.26714e-15 0)
(3 -1.00461e-15 0)
(3 -4.27653e-16 0)
(3 5.29888e-17 0)
(3 -3.31596e-17 0)
(3 5.88149e-16 0)
(3 1.02472e-15 0)
(3 1.685e-15 0)
(3 1.9906e-15 0)
(3 2.48025e-15 0)
(3 2.24561e-15 0)
(3 1.16181e-16 0)
(3 5.97355e-16 0)
(3 9.55144e-16 0)
(3 1.10305e-15 0)
(3 1.07966e-15 0)
(3 -4.16373e-16 0)
(3 -1.18643e-15 0)
(3 -1.31493e-15 0)
(3 -8.41867e-16 0)
(3 -5.08792e-16 0)
(3 -4.54205e-16 0)
(3 -5.03098e-16 0)
(3 -7.50799e-16 0)
(3 -3.08861e-16 0)
(3 3.97649e-16 0)
(3 8.8123e-16 0)
(3 7.86763e-16 0)
(3 1.1479e-15 0)
(3 5.16529e-16 0)
(3 3.53601e-16 0)
(3 1.96906e-16 0)
(3 -1.41887e-16 0)
(3 -3.14837e-16 0)
(3 -2.08594e-16 0)
(3 6.07184e-17 0)
(3 3.7979e-16 0)
(3 6.45828e-16 0)
(3 5.14839e-16 0)
(3 1.2977e-16 0)
(3 2.23513e-16 0)
(3 5.31092e-16 0)
(3 -1.06583e-16 0)
(3 9.90527e-17 0)
(3 4.38811e-16 0)
(3 7.38314e-16 0)
(3 4.37933e-16 0)
(3 8.3825e-16 0)
(3 9.67167e-16 0)
(3 -2.2885e-15 0)
(3 -4.03089e-15 0)
(3 -4.80642e-15 0)
(3 -4.67743e-15 0)
(3 -4.92375e-15 0)
(3 -3.64575e-15 0)
(3 -2.87213e-15 0)
(3 -2.42218e-15 0)
(3 -1.78498e-15 0)
(3 -1.05318e-15 0)
(3 3.4473e-16 0)
(3 2.1553e-15 0)
(3 5.41759e-15 0)
(3 8.2333e-15 0)
(3 8.87858e-15 0)
(3 8.16834e-15 0)
(3 6.98259e-15 0)
(3 5.1851e-15 0)
(3 3.33439e-15 0)
(3 2.67548e-15 0)
(3 2.04553e-15 0)
(3 7.40369e-16 0)
(3 1.27141e-15 0)
(3 1.27228e-15 0)
(3 1.54222e-15 0)
(3 1.53349e-15 0)
(3 2.0476e-15 0)
(3 2.05161e-15 0)
(3 1.62059e-15 0)
(3 1.19596e-15 0)
(3 1.07305e-15 0)
(3 1.81605e-15 0)
(3 2.1869e-15 0)
(3 2.30941e-15 0)
(3 7.42312e-16 0)
(3 -7.97093e-16 0)
(3 -2.87848e-15 0)
(3 -4.49444e-15 0)
(3 -3.76094e-15 0)
(3 -1.3869e-15 0)
(3 3.96976e-16 0)
(3 9.38284e-16 0)
(3 7.48393e-16 0)
(3 4.7627e-16 0)
(3 7.16806e-16 0)
(3 5.39652e-16 0)
(3 -8.26826e-16 0)
(3 -3.15594e-15 0)
(3 -2.43405e-15 0)
(3 -1.76097e-15 0)
(3 -5.33421e-16 0)
(3 -1.01904e-16 0)
(3 2.99499e-16 0)
(3 5.3955e-16 0)
(3 1.42922e-15 0)
(3 1.93706e-15 0)
(3 1.40106e-15 0)
(3 3.28617e-16 0)
(3 8.13712e-17 0)
(3 9.50638e-18 0)
(3 -2.19425e-17 0)
(3 -6.91101e-17 0)
(3 -1.85213e-16 0)
(3 -1.00126e-16 0)
(3 4.43153e-16 0)
(3 -1.02053e-17 0)
(3 -6.07529e-16 0)
(3 -9.64708e-16 0)
(3 -1.06423e-15 0)
(3 -7.50112e-16 0)
(3 -2.66127e-16 0)
(3 1.65687e-16 0)
(3 4.57562e-16 0)
(3 5.84721e-16 0)
(3 6.12262e-16 0)
(3 3.43755e-16 0)
(3 -8.29295e-16 0)
(3 -1.45824e-15 0)
(3 -1.08226e-15 0)
(3 -7.62741e-16 0)
(3 -6.00483e-16 0)
(3 -7.42818e-16 0)
(3 -1.61324e-16 0)
(3 4.12881e-16 0)
(3 6.07289e-16 0)
(3 3.70142e-16 0)
(3 -1.49148e-16 0)
(3 -5.56119e-17 0)
(3 3.37541e-16 0)
(3 3.95376e-16 0)
(3 -3.58515e-16 0)
(3 -8.98838e-16 0)
(3 -6.74899e-16 0)
(3 -4.17887e-16 0)
(3 -5.27972e-16 0)
(3 -1.96072e-15 0)
(3 -4.5191e-15 0)
(3 -5.03117e-15 0)
(3 -5.14168e-15 0)
(3 -5.21781e-15 0)
(3 -4.72534e-15 0)
(3 -4.26592e-15 0)
(3 -1.74262e-15 0)
(3 -3.95453e-16 0)
(3 -3.29444e-16 0)
(3 -4.65248e-17 0)
(3 8.46569e-18 0)
(3 1.07407e-15 0)
(3 3.35977e-15 0)
(3 5.68815e-15 0)
(3 5.67358e-15 0)
(3 5.47959e-15 0)
(3 5.83163e-15 0)
(3 3.78398e-15 0)
(3 2.78625e-15 0)
(3 2.06527e-15 0)
(3 7.77935e-16 0)
(3 -1.297e-16 0)
(3 -4.97964e-16 0)