/*--------------------------------*- C++ -*----------------------------------*\
  =========                 |
  \\      /  F ield         | OpenFOAM: The Open Source CFD Toolbox
   \\    /   O peration     | Website:  https://openfoam.org
    \\  /    A nd           | Version:  7
     \\/     M anipulation  |
\*---------------------------------------------------------------------------*/
FoamFile
{
    version     2.0;
    format      ascii;
    class       volScalarField;
    location    "3.7";
    object      p;
}
// * * * * * * * * * * * * * * * * * * * * * * * * * * * * * * * * * * * * * //

dimensions      [1 -1 -2 0 0 0 0];

internalField   nonuniform List<scalar> 
4608
(
1
1
1
1
1
1
1
1
1
1
1
1
1
1
1
1
1
1
1
1
1
1
1
1
1
1
1
1
1
1
1
1
1
1
1
1
1
1
1
1
1
1
1
1
1
1
1
1
1
1
1
1
1
1
1
1
1
1
1
1
1
1
1
1
1
1
1
1
1
1
1
1
1
1
1
1
1
1
1
1
1
1
1
1
1
1
1
1
1
1
1
1
1
1
1
1
1
1
1
1
1
1
1
1
1
1
1
1
1
1
1
1
1
1
1
1
1
1
1
1
1
1
1
1
1
1
1
1
1
1
1
1
1
1
1
1
1
1
1
1
1
1
1
1
1
1
1
1
1
1
1
1
1
1
1
1
1
1
1
1
1
1
1
1
1
1
1
1
1
1
1
1
1
1
1
1
1
1
1
1
1
1
1
1
1
1
1
1
1
1
1
1
1
1
1
1
1
1
1
1
1
1
1
1
1
1
1
1
1
1
1
1
1
1
1
1
1
1
1
1
1
1
1
1
1
1
1
1
1
1
1
1
1
1
1
1
1
1
1
1
1
1
1
1
1
1
1
1
1
1
1
1
1
1
1
1
1
1
1
1
1
1
1
1
1
1
1
1
1
1
1
1
1
1
1
1
1
1
1
1
1
1
1
1
1
1
1
1
1
1
1
1
1
1
1
1
1
1
1
1
1
1
1
1
1
1
1
1
1
1
1
1
1
1
1
1
1
1
1
1
1
1
1
1
1
1
1
1
1
1
1
1
1
1
1
1
1
1
1
1
1
1
1
1
1
1
1
1
1
1
1
1
1
1
1
1
1
1
1
1
1
1
1
1
1
1
1
1
1
1
1
1
1
1
1
1
1
1
1
1
1
1
1
1
1
1
1
1
1
1
1
1
1
1
1
1
1
1
1
1
1
1
1
1
1
1
1
1
1
1
1
1
1
1
1
1
1
1
1
1
1
1
1
1
1
1
1
1
1
1
1
1
1
1
1
1
1
1
1
1
1
1
1
1
1
1
1
1
1
1
1
1
1
1
1
1
1
1
1
1
1
1
1
1
1
1
1
1
1
1
1
1
1
1
1
1
1
1
1
1
1
1
1
1
1
1
1
1
1
1
1
1
1
1
1
1
1
1
1
1
1
1
1
1
1
1
1
1
1
1
1
1
1
1
1
1
1
1
1
1
1
1
1
1
1
1
1
1
1
1
1
1
1
1
1
1
1
1
1
1
1
1
1
1
1
1
1
1
1
1
1
1
1
1
1
1
1
1
1
1
1
1
1
1
1
1
1
1
1
1
1
1
1
1
1
1
1
1
1
1
1
1
1
1
1
1
1
1
1
1
1
1
1
1
1
1
1
1
1
1
1
1
1
1
1
1
1
1
1
1
1
1
1
1
1
1
1
1
1
1
1
1
1
1
1
1
1
1
1
1
1
1
1
1
1
1
1
1
1
1
1
1
1
1
1
1
1
1
1
1
1
1
1
1
1
1
1
1
1
1
1
1
1
1
1
1
1
1
1
1
1
1
1
1
1
1
1
1
1
1
1
1
1
1
1
1
1
1
1
1
1
1
1
1
1
1
1
1
1
1
1
1
1
1
1
1
1
1
1
1
1
1
1
1
1
1
1
1
1
1
1
1
1
1
1
1
1
1
1
1
1
1
1
1
1
1
1
1
1
1
1
1
1
1
1
1
1
1
1
1
1
1
1
1
1
1
1
1
1
1
1
1
1
1
1
1
1
1
1.29094
1.7616
2.34357
2.96153
3.64907
4.28423
4.81617
5.3338
5.36906
5.14611
4.70983
4.22382
3.78992
3.6662
3.57539
3.58397
3.61368
3.64466
3.67577
3.70566
3.74283
3.76461
3.76731
3.76689
1.00326
1.01788
1.08199
1.22165
1.46648
1.86274
2.36107
3.01297
3.55432
3.82159
4.02951
4.07634
3.96018
3.8457
3.77811
3.73138
3.70633
3.68013
3.67749
3.6944
3.72217
3.74883
3.75918
3.76338
1
0.999953
1.0001
1.00035
1.00341
1.02483
1.10706
1.36545
1.98478
3.00278
3.83373
4.32185
4.37208
4.26897
4.09281
3.86922
3.75427
3.68762
3.66284
3.67633
3.69646
3.71957
3.74566
3.76394
1
0.999998
0.999997
0.999998
0.999986
1.00004
0.999921
1.00177
1.03518
1.29022
2.03782
3.1096
4.07187
4.09406
4.02478
3.98234
3.90866
3.80491
3.7272
3.70066
3.69877
3.70839
3.72919
3.76765
1
1
1
1
0.999999
0.999999
0.99999
0.99999
0.999905
1.00107
1.04632
1.33488
2.26668
3.24972
3.9635
4.11618
4.08129
3.98162
3.87832
3.79134
3.72686
3.70775
3.71549
3.74201
1
1
1
1
1
1
1
0.999999
0.999991
0.999992
0.999913
1.00265
1.0756
1.53166
2.53443
3.43995
3.84873
3.91815
3.87008
3.78667
3.7506
3.7273
3.70104
3.70775
1
1
1
1
1
1
1
1
1
0.999999
0.999993
0.999982
1.00002
1.01117
1.14819
1.80181
2.92456
3.73401
3.81845
3.81366
3.79581
3.77226
3.72326
3.70402
1
1
1
1
1
1
1
1
1
1
1
0.999997
0.999997
0.999968
1.00077
1.04154
1.34441
2.27383
3.27702
3.79964
3.87125
3.84594
3.78192
3.72985
1
1
1
1
1
1
1
1
1
1
1
1
1
0.999996
0.999993
1.00003
1.00638
1.14885
1.75295
2.80388
3.48685
3.81328
3.81437
3.75849
1
1
1
1
1
1
1
1
1
1
1
1
1
1
0.999999
0.999999
0.999983
1.00187
1.04026
1.4231
2.31442
3.46252
3.66414
3.69019
1
1
1
1
1
1
1
1
1
1
1
1
1
1
1
1
0.999997
0.99999
1.00012
1.01775
1.19482
2.01349
3.03302
3.62207
1
1
1
1
1
1
1
1
1
1
1
1
1
1
1
1
1
0.999998
0.999998
1.00003
1.00457
1.10943
1.74273
2.81671
1
1
1
1
1
1
1
1
1
1
1
1
1
1
1
1
1
1
0.999999
0.999999
0.999999
1.00206
1.06931
1.51154
1
1
1
1
1
1
1
1
1
1
1
1
1
1
1
1
1
1
1
1
0.999999
0.999999
1.00109
1.02989
1
1
1
1
1
1
1
1
1
1
1
1
1
1
1
1
1
1
1
1
1
1
0.999998
1.00002
1
1
1
1
1
1
1
1
1
1
1
1
1
1
1
1
1
1
1
1
1
1
0.999999
0.999995
1
1
1
1
1
1
1
1
1
1
1
1
1
1
1
1
1
1
1
1
1
1
0.999999
0.999994
1
1
1
1
1
1
1
1
1
1
1
1
1
1
1
1
1
1
1
1
1
0.999999
1.00001
1.00003
1
1
1
1
1
1
1
1
1
1
1
1
1
1
1
1
1
1
1
1
1
0.999998
1.00129
1.02593
1
1
1
1
1
1
1
1
1
1
1
1
1
1
1
1
1
1
0.999999
0.999999
1
1.00213
1.06921
1.48895
1
1
1
1
1
1
1
1
1
1
1
1
1
1
1
1
1
0.999998
0.999998
1.00004
1.0043
1.11462
1.70932
2.8718
1
1
1
1
1
1
1
1
1
1
1
1
1
1
1
1
0.999997
0.99999
1.00012
1.01813
1.19499
2.01279
2.99646
3.67693
1
1
1
1
1
1
1
1
1
1
1
1
1
1
0.999999
0.999999
0.999983
1.00188
1.04007
1.42385
2.32684
3.44648
3.65612
3.70759
1
1
1
1
1
1
1
1
1
1
1
1
1
0.999996
0.999993
1.00003
1.00636
1.14889
1.75058
2.80896
3.48767
3.80591
3.81369
3.76625
1
1
1
1
1
1
1
1
1
1
1
0.999997
0.999997
0.999968
1.00077
1.04163
1.34469
2.27204
3.27717
3.80229
3.87085
3.844
3.78219
3.73311
1
1
1
1
1
1
1
1
1
0.999999
0.999993
0.999982
1.00002
1.01118
1.14808
1.80231
2.9253
3.73132
3.81985
3.81447
3.7965
3.77226
3.72291
3.70362
1
1
1
1
1
1
1
0.999999
0.999991
0.999992
0.999913
1.00265
1.0756
1.53169
2.53427
3.44087
3.8484
3.91738
3.87007
3.78779
3.75057
3.726
3.70072
3.70755
1
1
1
1
0.999999
0.999999
0.99999
0.99999
0.999905
1.00107
1.04631
1.33487
2.26675
3.24946
3.96367
4.11619
4.08129
3.98131
3.87836
3.79149
3.72665
3.70742
3.7155
3.74225
1
0.999998
0.999997
0.999998
0.999986
1.00004
0.999921
1.00177
1.03519
1.29023
2.03776
3.10964
4.07179
4.09399
4.02482
3.98249
3.90882
3.80449
3.72747
3.70063
3.69867
3.70834
3.7293
3.76777
1
0.999953
1.0001
1.00035
1.00341
1.02484
1.10707
1.36543
1.98484
3.00267
3.8338
4.32183
4.37204
4.26899
4.09285
3.86944
3.75425
3.68731
3.66305
3.67648
3.69642
3.71942
3.74561
3.76396
1.00326
1.01788
1.08199
1.22166
1.46644
1.86277
2.36105
3.01298
3.55441
3.82149
4.02958
4.07634
3.96007
3.84574
3.77815
3.73137
3.70627
3.68011
3.67759
3.69451
3.72216
3.74874
3.75917
3.76339
1.29094
1.76159
2.34358
2.96148
3.64912
4.28435
4.81597
5.3338
5.36915
5.14608
4.70986
4.22381
3.7899
3.66618
3.57543
3.58397
3.61363
3.6446
3.67588
3.70579
3.74287
3.76457
3.76731
3.76693
2.65132
1.71736
1.15007
0.772714
0.676755
0.716308
0.742507
0.730432
0.750737
0.814616
0.874708
0.923231
0.996773
1.05207
1.05462
1.03834
1.01975
1.02691
1.04951
1.07867
1.08308
1.07868
1.06539
1.11565
1.48835
2.72707
4.55567
6.80686
8.89937
9.37819
8.65772
7.55081
6.8788
6.55336
6.36377
6.17212
5.93261
5.67931
5.42196
5.16741
4.94219
4.76577
4.62736
4.49965
4.37595
4.25436
4.12255
3.96351
3.77593
3.58191
3.42262
3.31733
3.24809
3.18737
3.12974
3.07352
3.0119
2.93623
2.84372
2.73129
2.58878
2.44089
2.36998
2.3322
2.2968
2.26052
2.23007
2.19407
2.14625
2.09733
2.03235
2.0304
2.15433
2.52106
3.20374
3.97194
4.62227
5.24051
5.52862
5.4709
5.2705
4.92832
4.65966
4.52782
4.45052
4.40894
4.35586
4.2931
4.24336
4.18618
4.10373
4.00373
3.89704
3.79553
3.72978
3.64252
3.3594
2.73328
2.23169
1.77901
1.39245
1.27592
1.19205
1.0519
0.969529
0.947029
0.920944
0.906496
0.918787
0.949493
0.963715
0.966649
0.971753
0.985984
1.00969
1.03766
1.04465
1.04995
1.13032
1.60451
2.53652
3.06789
3.58528
4.30951
5.6366
6.76314
7.42313
7.34187
7.04354
6.7307
6.45418
6.20514
5.95578
5.711
5.47132
5.23354
5.01456
4.83931
4.69974
4.57235
4.4493
4.32238
4.17522
3.99736
3.80438
3.62792
3.49425
3.39708
3.31416
3.24213
3.17899
3.1199
3.05592
2.97756
2.88093
2.76417
2.6292
2.49817
2.42658
2.38199
2.3397
2.29938
2.26568
2.23391
2.1982
2.16522
2.20356
2.36346
2.67832
2.99997
3.2622
3.60875
4.00205
4.43816
4.81646
4.90901
4.92712
4.8338
4.68823
4.55845
4.48699
4.43875
4.38147
4.31987
4.26583
4.20239
4.12402
4.03166
3.92851
3.82783
3.75423
3.66178
3.65966
3.32783
2.8472
2.42352
1.97102
1.59666
1.43587
1.28307
1.07296
1.00108
0.979916
0.933259
0.920588
0.931378
0.958583
0.959908
0.948762
0.953781
0.972942
0.998345
1.02469
1.15527
1.78776
2.66563
3.27679
3.33749
3.32055
3.34478
3.58793
4.56215
6.05922
7.01759
7.19748
6.99467
6.53664
6.16121
5.90833
5.66641
5.42362
5.18585
4.97026
4.77563
4.6015
4.44954
4.31343
4.18907
4.06247
3.91237
3.76006
3.63669
3.51765
3.3817
3.25134
3.15432
3.07699
3.00886
2.94903
2.88324
2.80331
2.70835
2.60997
2.52431
2.43636
2.34891
2.27783
2.23951
2.21479
2.21447
2.23234
2.32119
2.57788
2.96206
3.20424
3.32576
3.34003
3.37797
3.49641
3.73156
4.09836
4.46868
4.68304
4.76378
4.70136
4.6072
4.52895
4.46913
4.41432
4.35226
4.28524
4.20474
4.11261
4.00007
3.87965
3.78045
3.71795
3.63486
3.7489
3.62354
3.30145
2.9232
2.53786
2.04754
1.77528
1.65288
1.43238
1.22398
1.181
1.12059
1.00428
0.984729
0.994548
0.983439
0.956592
0.94179
0.943948
0.959733
1.11199
1.81634
2.79814
3.22012
3.32872
3.30178
3.20998
3.11405
3.00128
3.07618
3.64996
5.05092
6.38276
6.5302
6.45507
6.19843
5.94065
5.70187
5.45593
5.20897
4.98842
4.79223
4.60163
4.41029
4.23999
4.10029
3.99764
3.90707
3.81333
3.71304
3.57834
3.40507
3.25038
3.13729
3.05043
2.97102
2.89888
2.83407
2.76624
2.70208
2.63894
2.5535
2.4552
2.3589
2.28033
2.2473
2.24504
2.29737
2.5102
2.87755
3.23388
3.44527
3.52295
3.51039
3.44911
3.37244
3.31617
3.31844
3.40886
3.64047
3.98701
4.38153
4.53277
4.54481
4.57965
4.57039
4.52118
4.43878
4.3353
4.23211
4.13444
4.01536
3.87206
3.75419
3.70488
3.65644
3.76138
3.73221
3.58723
3.29402
2.97576
2.59109
2.14188
1.94405
1.79085
1.56282
1.38616
1.27521
1.13835
1.04037
1.03407
1.01509
0.971453
0.951553
0.972056
1.18423
1.90596
2.89648
3.24567
3.24942
3.21759
3.12224
3.02377
2.93325
2.84776
2.73826
2.74613
3.03205
4.1314
5.39003
6.14382
6.12683
5.90604
5.58948
5.32565
5.12167
4.94795
4.76869
4.58016
4.38861
4.21066
4.05589
3.93168
3.82535
3.72804
3.63245
3.52233
3.39376
3.25838
3.13397
3.03266
2.96528
2.90124
2.81107
2.70552
2.61312
2.5659
2.53861
2.49005
2.41312
2.32983
2.33294
2.44101
2.76508
3.16902
3.49319
3.58775
3.64287
3.62362
3.57534
3.49851
3.39321
3.27073
3.16369
3.13763
3.16776
3.32488
3.66884
4.15729
4.43466
4.55594
4.54874
4.47336
4.35267
4.25251
4.16651
4.08732
3.99783
3.87079
3.77414
3.71059
3.62076
3.73124
3.73032
3.7038
3.55754
3.28265
2.98735
2.63939
2.28761
2.05479
1.86833
1.69058
1.55353
1.38353
1.18504
1.16125
1.15084
1.11079
1.13348
1.39375
2.18479
3.09182
3.38603
3.33376
3.19336
3.06837
2.97095
2.89118
2.80838
2.71889
2.63498
2.56869
2.50248
2.62302
3.24947
4.44872
5.42084
5.55092
5.49817
5.31576
5.12416
4.93869
4.74798
4.56225
4.37564
4.1878
4.02496
3.91693
3.8207
3.71762
3.60735
3.5054
3.41508
3.30844
3.19388
3.07941
2.96395
2.85566
2.74935
2.65961
2.59718
2.54368
2.48771
2.45365
2.4343
2.47968
2.6915
3.12013
3.53594
3.70256
3.77183
3.78605
3.75086
3.68024
3.59974
3.51777
3.41002
3.25783
3.12475
3.06934
3.05935
3.07695
3.18455
3.49084
3.94047
4.26631
4.39252
4.37233
4.29883
4.22464
4.15143
4.0511
3.9554
3.87128
3.80461
3.73903
3.63406
3.7114
3.71738
3.70698
3.67753
3.53239
3.27214
2.96882
2.68299
2.43109
2.13132
1.89475
1.80127
1.69366
1.48728
1.31434
1.26494
1.33143
1.71405
2.64324
3.51083
3.67297
3.54363
3.32818
3.14283
3.02075
2.92804
2.84046
2.75182
2.65703
2.58463
2.50676
2.43505
2.31369
2.32302
2.59927
3.49201
4.54652
5.15155
5.20938
5.1077
4.9164
4.71803
4.53409
4.37088
4.20137
4.01654
3.87102
3.76136
3.66153
3.56534
3.46515
3.35712
3.25116
3.14663
3.03239
2.91049
2.80409
2.72999
2.6632
2.5942
2.53108
2.49414
2.50195
2.64844
3.00143
3.50475
3.89093
3.89896
3.87909
3.84105
3.78727
3.73293
3.68204
3.61544
3.53343
3.42705
3.27499
3.13687
3.07596
3.04266
3.02396
3.02651
3.0837
3.29541
3.61884
3.93254
4.2086
4.25847
4.18101
4.10047
4.01388
3.93709
3.87848
3.83095
3.78251
3.68053
3.72196
3.72348
3.71807
3.69898
3.64436
3.50255
3.26682
2.95755
2.73469
2.51205
2.22011
1.9601
1.86358
1.7662
1.60754
1.70498
2.31766
3.35811
4.12659
4.11448
3.94536
3.68851
3.43318
3.23028
3.0784
2.95872
2.84358
2.73927
2.6388
2.55411
2.47432
2.39311
2.28045
2.20149
2.12113
2.20029
2.70455
3.68128
4.53998
4.77885
4.82762
4.70726
4.5441
4.38906
4.21287
3.99797
3.80748
3.68218
3.5945
3.50962
3.41998
3.32702
3.2347
3.13112
3.00387
2.87846
2.77984
2.70633
2.64122
2.59717
2.56295
2.6104
2.876
3.37437
3.8482
4.15738
4.16533
4.08366
3.95548
3.86981
3.79004
3.73617
3.69276
3.64084
3.57016
3.45983
3.28625
3.14389
3.09179
3.05309
3.01975
2.99231
2.98652
2.99855
3.10406
3.29132
3.5787
3.88597
3.96436
3.97642
3.97226
3.9598
3.93069
3.89098
3.84286
3.72693
3.73294
3.73743
3.74667
3.73698
3.71117
3.63439
3.49231
3.266
2.98228
2.75504
2.54097
2.27297
2.06945
1.99626
2.22664
3.17077
4.39959
4.80409
4.69258
4.39815
4.09896
3.83527
3.59641
3.39102
3.21437
3.06219
2.92255
2.79782
2.67632
2.55314
2.44751
2.35424
2.26003
2.15476
2.07904
1.9936
1.98813
2.19285
2.93405
3.84309
4.46263
4.60174
4.54754
4.42005
4.21802
3.97671
3.76543
3.61563
3.52735
3.45231
3.37664
3.29479
3.20611
3.09589
2.96168
2.84463
2.75729
2.69935
2.65666
2.66514
2.82152
3.23616
3.81969
4.19469
4.30343
4.29603
4.21213
4.04027
3.95097
3.89158
3.8217
3.76315
3.71257
3.65775
3.58411
3.46602
3.29924
3.1729
3.11297
3.06747
3.03067
2.99879
2.97208
2.96028
2.94913
2.96025
3.02572
3.23406
3.53284
3.74292
3.8725
3.98953
3.98515
3.94786
3.90069
3.75849
3.69162
3.70205
3.72842
3.73458
3.72219
3.68761
3.60276
3.45394
3.24114
2.98646
2.76339
2.51022
2.54407
3.04784
4.25019
5.45987
5.61846
5.39887
5.01711
4.65518
4.34094
4.06396
3.8066
3.56781
3.35419
3.1668
3.00562
2.866
2.73762
2.60808
2.4946
2.37896
2.26222
2.14081
2.04697
1.96057
1.90707
1.85845
1.9357
2.36186
3.19321
3.97046
4.23455
4.23222
4.13914
3.96696
3.76849
3.59552
3.4866
3.40919
3.3337
3.24531
3.14732
3.03919
2.92816
2.82725
2.76714
2.73312
2.80063
3.11238
3.7199
4.25376
4.58274
4.61844
4.55561
4.3931
4.19673
4.01606
3.92771
3.87824
3.82484
3.77483
3.72669
3.66956
3.58826
3.46788
3.32358
3.21057
3.14001
3.0847
3.0403
3.00698
2.97884
2.95435
2.92017
2.88571
2.82144
2.83326
2.99177
3.29668
3.60071
3.84624
3.93678
3.92852
3.89276
3.75316
3.77467
3.76537
3.74805
3.73703
3.73158
3.71496
3.66488
3.58044
3.41025
3.21577
3.00932
3.21538
4.23942
5.72308
6.41358
6.35547
6.0139
5.6038
5.22878
4.89801
4.59275
4.30369
4.02682
3.76319
3.52038
3.29795
3.09928
2.9189
2.75773
2.6256
2.52482
2.41684
2.29798
2.18135
2.07307
1.97385
1.8802
1.81787
1.75919
1.76829
1.96202
2.57499
3.37931
3.88509
3.965
3.93301
3.79111
3.59495
3.44342
3.35618
3.28419
3.19909
3.10127
2.99721
2.91177
2.8272
2.82812
3.00498
3.50301
4.15037
4.6334
4.71741
4.70488
4.6598
4.56261
4.40116
4.18608
3.99983
3.91824
3.87266
3.82368
3.77607
3.72818
3.6665
3.57632
3.46169
3.34759
3.24969
3.17025
3.11151
3.06608
3.02421
2.97913
2.9311
2.87601
2.81886
2.768
2.71813
2.72573
2.85077
3.13509
3.4971
3.78308
3.84213
3.84989
3.74892
3.46237
3.62971
3.75462
3.77411
3.77377
3.74809
3.69648
3.63815
3.52591
3.54072
4.15252
5.78189
7.27148
7.65339
7.40806
6.81851
6.27195
5.81145
5.42754
5.09224
4.7823
4.48681
4.2016
3.92689
3.66614
3.42148
3.20242
3.0119
2.85097
2.70851
2.56466
2.41967
2.29819
2.20543
2.10781
2.00439
1.90641
1.83131
1.75066
1.69899
1.6447
1.70393
2.07461
2.79703
3.43458
3.69572
3.67279
3.53375
3.36245
3.26869
3.18989
3.12666
3.06231
2.99321
2.94735
3.01621
3.34465
3.99668
4.55404
4.9191
4.99863
4.91929
4.77276
4.63319
4.52289
4.39145
4.18456
4.01929
3.94692
3.88433
3.82425
3.76972
3.71732
3.6542
3.56162
3.45269
3.36417
3.29044
3.21651
3.14546
3.08603
3.03451
2.98274
2.92461
2.85808
2.7908
2.72806
2.68537
2.66274
2.66518
2.74956
2.97493
3.31985
3.56981
3.68561
3.65063
2.467
3.38439
3.78196
3.79631
3.72738
3.67373
3.65947
3.68285
3.97827
5.30067
7.52233
8.52121
8.41444
8.08742
7.59722
7.0711
6.55346
6.0633
5.62135
5.24042
4.91809
4.62604
4.33784
4.04806
3.7624
3.49634
3.27072
3.08037
2.91176
2.76791
2.63932
2.51156
2.37901
2.23714
2.10069
2.02144
1.966
1.88693
1.80394
1.71212
1.62944
1.57151
1.57991
1.75805
2.27182
2.96537
3.44535
3.45344
3.34357
3.22423
3.12415
3.06749
3.05035
3.12733
3.40752
3.91406
4.67225
4.99121
5.00645
4.987
4.9557
4.91028
4.82731
4.68399
4.53242
4.37511
4.18639
4.05686
3.97805
3.90265
3.83445
3.77229
3.70726
3.63178
3.53796
3.45054
3.38182
3.31995
3.26024
3.19076
3.10873
3.03096
2.96997
2.92356
2.88183
2.82581
2.75811
2.70107
2.6492
2.62674
2.61175
2.64894
2.79998
3.04148
3.30284
3.44455
1.36026
2.29483
3.28656
3.57638
3.62397
3.6859
3.88695
4.73558
6.60227
8.81257
9.9134
9.78299
9.06102
8.30523
7.77598
7.29536
6.78665
6.27358
5.79225
5.35409
4.98109
4.67959
4.41421
4.1483
3.87043
3.59402
3.34394
3.14225
2.97427
2.80326
2.63871
2.50261
2.39427
2.2891
2.17682
2.05572
1.92749
1.81945
1.73258
1.66788
1.61708
1.58299
1.53256
1.50585
1.57723
1.88283
2.53044
3.07236
3.1975
3.17968
3.1264
3.12482
3.34153
3.93678
4.61007
5.19727
5.54322
5.50654
5.28328
5.03552
4.90864
4.82484
4.7461
4.64049
4.51125
4.36727
4.22126
4.0916
3.992
3.90798
3.83848
3.77335
3.70352
3.62937
3.54629
3.46799
3.41141
3.36033
3.29384
3.21578
3.13037
3.0526
2.9868
2.92378
2.8552
2.78284
2.71948
2.67572
2.63903
2.60928
2.58509
2.56762
2.56868
2.62136
2.75791
3.08774
1.02429
1.24097
2.08125
2.95249
3.74518
4.24321
5.65274
7.76084
9.34747
10.038
10.0046
9.81713
9.36627
8.71626
8.08662
7.48217
6.91625
6.4137
5.96049
5.52443
5.10119
4.73448
4.41907
4.14804
3.9021
3.67832
3.45986
3.25362
3.05898
2.86428
2.69295
2.5449
2.40537
2.27803
2.15798
2.03809
1.9221
1.82897
1.74464
1.67904
1.62757
1.5818
1.52473
1.46062
1.38017
1.39174
1.56486
2.07331
2.6185
3.07231
3.38596
3.74633
4.58845
5.20598
5.40883
5.59574
5.57724
5.50918
5.35394
5.1373
4.94593
4.78875
4.6798
4.59021
4.48602
4.37185
4.25295
4.11982
4.01979
3.949
3.87678
3.81255
3.74155
3.66421
3.59141
3.51796
3.41952
3.31118
3.23987
3.17729
3.12384
3.07306
3.01048
2.93455
2.85701
2.77711
2.71169
2.6751
2.63971
2.61205
2.59106
2.55262
2.52053
2.48204
2.48936
2.7018
1.00035
1.01398
1.19337
1.89134
3.92968
5.84167
8.15031
9.92736
10.8594
10.6449
10.1537
9.67678
9.44429
8.96548
8.26684
7.57483
6.97624
6.45076
5.96908
5.61405
5.31224
4.95395
4.59774
4.28041
3.98613
3.71238
3.46245
3.20647
3.02148
2.93561
2.82789
2.67738
2.50436
2.3456
2.20585
2.08019
1.94742
1.82517
1.78209
1.7461
1.69871
1.6396
1.56439
1.45711
1.36502
1.33142
1.33926
1.43438
1.81987
2.82983
3.93986
4.79583
5.70543
6.01631
5.98275
5.90166
5.6586
5.3953
5.294
5.17345
5.0065
4.8151
4.64914
4.54482
4.46551
4.38396
4.28503
4.16125
4.03766
3.92274
3.82675
3.76121
3.7063
3.64509
3.58311
3.51512
3.41921
3.2983
3.22726
3.19925
3.16974
3.12455
3.06012
2.97299
2.86554
2.77549
2.7236
2.69031
2.65602
2.62014
2.58571
2.54751
2.49748
2.4446
2.3975
2.48314
1.00062
1.01552
1.16495
1.95019
3.41074
6.15661
8.42811
9.75289
10.9001
10.6291
9.94859
9.518
9.25767
8.80519
8.21555
7.64679
7.10133
6.56735
6.08508
5.62951
5.18951
4.80947
4.45719
4.17471
3.99777
3.80687
3.56064
3.29369
3.06434
2.86791
2.71041
2.57883
2.43326
2.2979
2.22486
2.14918
2.03323
1.89964
1.77042
1.68046
1.62662
1.57936
1.515
1.45393
1.38967
1.33432
1.34076
1.44506
1.91329
2.71805
3.90841
5.0887
5.62531
5.94606
6.01212
5.827
5.54829
5.35246
5.26116
5.16928
5.03499
4.85321
4.68041
4.55175
4.45416
4.36594
4.26316
4.1538
4.03993
3.92734
3.83226
3.75118
3.69663
3.66061
3.616
3.54422
3.44204
3.3289
3.24751
3.18548
3.13076
3.07768
3.01403
2.94415
2.87818
2.81759
2.77587
2.73751
2.69539
2.64671
2.59799
2.5571
2.50511
2.44528
2.39734
2.45497
1.02979
1.30106
2.00631
3.05125
3.34026
4.41998
5.98029
7.70233
9.59042
10.0086
9.88083
9.60347
9.1716
8.57179
8.01796
7.49552
6.97166
6.47794
6.02644
5.57536
5.14685
4.78465
4.48104
4.19486
3.89781
3.62753
3.40199
3.20563
3.02051
2.83247
2.66364
2.53416
2.44375
2.34166
2.19415
2.04044
1.94083
1.8694
1.77903
1.68329
1.61054
1.56481
1.51014
1.44838
1.3918
1.39667
1.57515
2.03199
2.73379
2.94351
3.30951
4.01677
4.47275
5.12179
5.46289
5.54685
5.53986
5.46289
5.34313
5.19798
5.04039
4.90209
4.75778
4.61828
4.48065
4.35037
4.22925
4.12219
4.04699
3.97627
3.89112
3.80307
3.71288
3.62422
3.54699
3.46576
3.38151
3.3151
3.25486
3.18966
3.124
3.06298
3.00273
2.92778
2.84515
2.78521
2.74221
2.70282
2.65872
2.60355
2.55632
2.52868
2.51778
2.48302
2.49432
2.72109
1.41236
2.33888
3.26643
3.66413
3.61724
3.64931
3.88627
4.67911
6.56212
8.90465
9.79084
9.60084
8.928
8.23001
7.78234
7.37667
6.9075
6.39451
5.87882
5.40687
5.00782
4.66999
4.36714
4.08127
3.79986
3.54268
3.33215
3.17142
3.03297
2.88751
2.71884
2.53938
2.37804
2.26246
2.15753
2.02574
1.9142
1.86048
1.8207
1.74985
1.66203
1.57073
1.51821
1.46487
1.51363
1.84685
2.45943
3.02827
3.2536
3.20082
3.12492
3.16226
3.3064
3.74967
4.51105
5.13013
5.47999
5.49587
5.36455
5.15328
4.98387
4.86337
4.74327
4.59931
4.43845
4.28744
4.18685
4.11477
4.04167
3.96209
3.87993
3.80509
3.72464
3.62196
3.51398
3.43074
3.37025
3.31507
3.25699
3.19625
3.13278
3.06226
2.97707
2.89157
2.82858
2.78284
2.74188
2.70199
2.65668
2.60798
2.57528
2.55731
2.55224
2.60945
2.76721
3.14022
2.62187
3.33814
3.69349
3.7557
3.72647
3.67825
3.6746
3.70052
3.97585
5.37857
7.64142
8.43464
8.37258
8.1051
7.67449
7.1888
6.66563
6.14302
5.65199
5.22192
4.85726
4.54085
4.24756
3.96874
3.71613
3.5007
3.30866
3.12318
2.9516
2.80128
2.65478
2.49727
2.32789
2.1869
2.10493
2.03689
1.95357
1.86516
1.77977
1.70609
1.64834
1.57018
1.57241
1.75319
2.26616
2.97511
3.38369
3.46479
3.42324
3.32103
3.17443
3.07917
3.00699
3.03182
3.29764
3.88835
4.60202
5.11884
5.12618
5.10276
5.0484
4.92639
4.7605
4.57483
4.4106
4.26824
4.17613
4.11303
4.05223
3.99721
3.93996
3.85666
3.73609
3.58854
3.469
3.41032
3.36608
3.32055
3.27323
3.22199
3.1586
3.06262
2.94219
2.85628
2.81557
2.78871
2.76263
2.73003
2.68386
2.65646
2.62937
2.64861
2.75724
2.98997
3.25805
3.50291
3.54424
3.5786
3.66238
3.72501
3.76884
3.75054
3.70233
3.63679
3.52251
3.54845
4.23058
5.7718
7.30141
7.70418
7.4541
6.86564
6.29249
5.81039
5.40157
5.03894
4.70717
4.40222
4.12364
3.87238
3.64623
3.44186
3.2569
3.08335
2.91896
2.75446
2.57999
2.4164
2.28645
2.1813
2.07114
1.97166
1.8994
1.84222
1.76641
1.71744
1.66567
1.71978
2.08878
2.79025
3.45172
3.71708
3.7062
3.61564
3.47439
3.33959
3.21532
3.10113
3.0054
2.93873
2.91781
3.00963
3.38935
4.13906
4.72353
5.0131
5.02034
4.91365
4.71646
4.55099
4.42637
4.31344
4.22113
4.12372
4.02136
3.94165
3.88731
3.82012
3.70147
3.55772
3.46448
3.41067
3.36372
3.31725
3.26947
3.21669
3.14519
3.02947
2.90793
2.83986
2.79704
2.75864
2.72944
2.71009
2.71202
2.72304
2.78373
2.93372
3.21403
3.43917
3.59477
3.65115
3.79546
3.76296
3.71692
3.7201
3.72803
3.71415
3.66726
3.5777
3.40451
3.2135
3.01892
3.21792
4.22729
5.75283
6.48111
6.37238
5.998
5.58397
5.19847
4.84375
4.51981
4.23231
3.97974
3.75333
3.545
3.35008
3.16835
2.98867
2.82052
2.66784
2.52827
2.38894
2.26232
2.14859
2.04419
1.9534
1.87977
1.82946
1.78644
1.79946
1.98065
2.56777
3.36933
3.86889
3.97221
3.93745
3.79923
3.63782
3.50525
3.38199
3.26537
3.14317
3.03761
2.94525
2.87341
2.83852
2.865
3.06992
3.63118
4.19481
4.58718
4.63563
4.59047
4.56356
4.47096
4.36323
4.24713
4.12916
4.02285
3.93725
3.86639
3.77771
3.65453
3.53655
3.45804
3.40326
3.35747
3.31736
3.27985
3.23194
3.1386
2.98886
2.87297
2.81582
2.783
2.75689
2.74811
2.75081
2.80303
2.96443
3.1895
3.43438
3.62744
3.66581
3.69587
3.66661
3.70074
3.70439
3.72189
3.72422
3.71652
3.69159
3.60866
3.45862
3.24325
2.99184
2.77061
2.51513
2.54484
3.04347
4.24831
5.41258
5.59106
5.3774
4.99434
4.62733
4.3109
4.04928
3.82082
3.60823
3.4098
3.22846
3.06794
2.90934
2.75347
2.60162
2.45781
2.31607
2.20697
2.11101
2.03411
1.95494
1.91308
1.89413
1.97169
2.39542
3.18969
3.94429
4.1952
4.17271
4.07149
3.94056
3.7995
3.66433
3.54275
3.4344
3.34211
3.23386
3.10372
2.97736
2.8924
2.82413
2.78279
2.76509
2.85025
3.14152
3.66594
4.19536
4.39966
4.48911
4.49273
4.39013
4.26441
4.16557
4.06473
3.94455
3.82362
3.70881
3.59813
3.51336
3.45764
3.41169
3.36793
3.32661
3.2817
3.21399
3.10012
2.95137
2.84839
2.81293
2.79144
2.7906
2.80816
2.91179
3.18204
3.51171
3.76372
3.84592
3.78485
3.71575
3.68101
3.63597
3.73817
3.73894
3.74407
3.73379
3.71052
3.63675
3.49692
3.2674
2.98149
2.7573
2.54446
2.27602
2.07087
1.99681
2.21995
3.13059
4.35346
4.78545
4.67119
4.38324
4.08799
3.83952
3.62952
3.44302
3.26714
3.10912
2.96495
2.81885
2.66346
2.5219
2.39312
2.28316
2.20518
2.12934
2.07231
2.00688
2.02258
2.27814
3.00788
3.93426
4.40755
4.50575
4.45941
4.29239
4.11094
3.95715
3.82219
3.7034
3.60334
3.50464
3.39695
3.26485
3.12698
3.00674
2.92108
2.84247
2.78051
2.72716
2.7004
2.70681
2.81462
3.21295
3.72613
4.07487
4.29479
4.33761
4.30625
4.22961
4.1086
3.94961
3.79075
3.66409
3.56706
3.50098
3.45897
3.41763
3.37004
3.31927
3.26303
3.18737
3.0768
2.92991
2.84025
2.82504
2.82797
2.87071
3.05391
3.41533
3.82423
4.03668
4.06749
4.02335
3.87073
3.7196
3.65961
3.59763
3.72294
3.72415
3.71868
3.69969
3.64449
3.50389
3.26786
2.95788
2.73314
2.50908
2.21705
1.96312
1.86735
1.76665
1.60593
1.69801
2.3058
3.38231
4.12662
4.11181
3.94483
3.69772
3.46838
3.28331
3.11128
2.97332
2.8518
2.73801
2.61428
2.50865
2.40517
2.31309
2.23318
2.17748
2.13201
2.23341
2.81464
3.85082
4.66796
4.80726
4.7359
4.59164
4.44314
4.28667
4.1437
4.01419
3.8956
3.78367
3.66831
3.53739
3.40249
3.26796
3.14347
3.03971
2.95789
2.88674
2.8222
2.76092
2.692
2.64271
2.56403
2.59068
2.81834
3.28408
3.79674
4.16329
4.24115
4.22088
4.13772
3.956
3.77408
3.65203
3.57042
3.5018
3.44875
3.40975
3.36393
3.30764
3.24114
3.16218
3.06427
2.92429
2.87225
2.87771
2.94958
3.19176
3.60744
4.04036
4.1879
4.17464
4.12016
4.03141
3.90732
3.75567
3.65839
3.58103
3.71072
3.71705
3.70742
3.67781
3.53237
3.272
2.96745
2.68185
2.42958
2.12656
1.8958
1.805
1.69501
1.48509
1.31406
1.26746
1.3341
1.73719
2.6775
3.50488
3.69365
3.57786
3.36047
3.18115
3.02378
2.90715
2.82454
2.73645
2.63661
2.54578
2.45526
2.36937
2.28847
2.30825
2.62231
3.52919
4.74747
5.289
5.20264
5.05124
4.81573
4.60402
4.43743
4.29437
4.1706
4.06339
3.96689
3.85406
3.71771
3.56103
3.399
3.26332
3.15573
3.07357
3.00266
2.93642
2.86707
2.79777
2.72098
2.63243
2.54297
2.45072
2.44073
2.56566
2.93673
3.48115
3.87526
4.01809
4.00414
3.92566
3.78569
3.6779
3.60012
3.52135
3.44525
3.37698
3.31504
3.25799
3.19949
3.14029
3.06977
2.97708
2.98686
3.10243
3.37603
3.78041
4.11937
4.29054
4.3021
4.24723
4.12804
4.01628
3.92249
3.79462
3.67895
3.58423
3.73121
3.73026
3.70369
3.55715
3.28321
2.98729
2.63792
2.28716
2.05389
1.86695
1.69119
1.55522
1.38087
1.18482
1.16325
1.15309
1.11255
1.13682
1.40958
2.19436
3.08895
3.41893
3.35834
3.21327
3.05206
2.9165
2.85181
2.7815
2.7123
2.63609
2.55615
2.47999
2.59241
3.24988
4.50018
5.49348
5.64891
5.54595
5.28772
5.05475
4.86036
4.67383
4.50067
4.34957
4.22501
4.10075
3.99555
3.90417
3.7716
3.58942
3.40452
3.26705
3.1753
3.10962
3.05043
2.9917
2.92795
2.85518
2.76543
2.65943
2.54726
2.44486
2.38895
2.36343
2.40604
2.66527
3.08833
3.57837
3.78648
3.82337
3.79911
3.72353
3.63493
3.54139
3.44551
3.34422
3.25088
3.19812
3.16047
3.14445
3.14531
3.21213
3.42557
3.75013
4.0637
4.26316
4.30244
4.31031
4.26769
4.20515
4.13348
4.03725
3.93421
3.82684
3.72823
3.60932
3.76147
3.73219
3.58689
3.29429
2.97618
2.58899
2.1412
1.9458
1.79056
1.5613
1.38754
1.27519
1.13584
1.04147
1.03551
1.01593
0.971885
0.951346
0.972525
1.18383
1.8938
2.88067
3.30917
3.26888
3.16696
3.02543
2.96311
2.90128
2.84522
2.76906
2.7852
3.10394
4.1851
5.52937
6.21252
6.1331
5.87664
5.51306
5.24262
5.05058
4.9062
4.7492
4.58498
4.42454
4.30399
4.19873
4.06409
3.8954
3.72217
3.57537
3.44734
3.33614
3.23649
3.15018
3.07646
3.00469
2.92731
2.8429
2.74383
2.64276
2.56402
2.48706
2.41643
2.34775
2.31636
2.33399
2.45128
2.76446
3.20368
3.51105
3.65828
3.67406
3.62723
3.55562
3.45865
3.33348
3.22042
3.17855
3.17531
3.23211
3.44961
3.79885
4.18762
4.44588
4.55026
4.51587
4.41356
4.27162
4.16458
4.09943
4.04754
3.98197
3.90208
3.83202
3.77868
3.66865
3.74887
3.62333
3.30131
2.92419
2.53681
2.0458
1.7771
1.65393
1.42993
1.22492
1.18252
1.11952
1.00324
0.985956
0.995389
0.983543
0.956235
0.941532
0.943821
0.958824
1.11898
1.75618
2.8524
3.27587
3.27891
3.23369
3.15075
3.06709
2.98412
3.07743
3.70453
5.22257
6.52318
6.5974
6.47775
6.15088
5.80578
5.5127
5.25897
5.09811
5.00379
4.87782
4.72804
4.56878
4.38455
4.1797
4.0026
3.83869
3.68809
3.56974
3.48067
3.39947
3.31853
3.23953
3.15171
3.05877
2.95884
2.85036
2.74917
2.65439
2.56844
2.49875
2.43865
2.38049
2.32107
2.27876
2.24471
2.28132
2.48399
2.86264
3.23378
3.50843
3.57606
3.55011
3.4647
3.35632
3.24523
3.22717
3.31318
3.63626
4.05992
4.48427
4.6491
4.66205
4.63708
4.55812
4.42451
4.26813
4.1389
4.0554
4.0064
3.96241
3.91154
3.86918
3.83196
3.72482
3.65967
3.32765
2.84785
2.42369
1.96927
1.59723
1.43706
1.28273
1.07211
1.00251
0.980101
0.932614
0.920619
0.932138
0.959104
0.959231
0.948313
0.953592
0.973133
0.998204
1.02378
1.14593
1.74
2.73492
3.31931
3.30884
3.28285
3.30209
3.53159
4.52115
6.15431
7.1744
7.24667
6.99578
6.46429
6.05386
5.78409
5.57881
5.37281
5.19296
5.02178
4.85106
4.68585
4.52122
4.35103
4.16753
3.98996
3.82924
3.69539
3.60699
3.53084
3.44927
3.35728
3.24388
3.11626
3.00429
2.91471
2.82669
2.73699
2.65585
2.59455
2.54437
2.48618
2.42402
2.35401
2.27433
2.19643
2.1406
2.14912
2.24913
2.54285
2.96184
3.3275
3.43693
3.42666
3.39681
3.43889
3.58015
3.89295
4.35734
4.63211
4.81329
4.84367
4.80379
4.6933
4.5492
4.42141
4.27324
4.13309
4.04977
4.00037
3.95629
3.91583
3.88314
3.84556
3.73598
3.35924
2.73381
2.23222
1.7774
1.39239
1.27734
1.19229
1.05094
0.969527
0.947525
0.920299
0.906381
0.919235
0.95027
0.96364
0.966631
0.971604
0.986338
1.01053
1.0384
1.04525
1.04875
1.12237
1.63493
2.62558
3.05556
3.5755
4.32022
5.57835
6.75937
7.55365
7.43346
7.06047
6.6921
6.36689
6.09899
5.90019
5.72658
5.55034
5.35994
5.14732
4.93301
4.72333
4.52809
4.34664
4.18105
4.033
3.90164
3.80588
3.72668
3.6406
3.54633
3.43767
3.30583
3.15654
3.0125
2.91132
2.8386
2.77218
2.72037
2.6773
2.63059
2.57472
2.50925
2.42388
2.31163
2.19397
2.10131
2.06367
2.07206
2.13636
2.35938
2.76787
3.17024
3.41768
3.72802
4.09354
4.32282
4.60863
4.75994
4.8338
4.85156
4.81714
4.73725
4.6319
4.52731
4.42741
4.2887
4.14018
4.06638
4.02089
3.98904
3.96266
3.92775
3.88535
3.76965
2.65148
1.7176
1.14929
0.771718
0.677978
0.71784
0.741727
0.729529
0.750509
0.814905
0.874787
0.923124
0.997293
1.05224
1.05453
1.03774