/*--------------------------------*- C++ -*----------------------------------*\
  =========                 |
  \\      /  F ield         | OpenFOAM: The Open Source CFD Toolbox
   \\    /   O peration     | Website:  https://openfoam.org
    \\  /    A nd           | Version:  7
     \\/     M anipulation  |
\*---------------------------------------------------------------------------*/
FoamFile
{
    version     2.0;
    format      ascii;
    class       volScalarField;
    location    "3.7";
    object      rho;
}
// * * * * * * * * * * * * * * * * * * * * * * * * * * * * * * * * * * * * * //

dimensions      [1 -3 0 0 0 0 0];

internalField   nonuniform List<scalar> 
4608
(
1.40001
1.40001
1.40001
1.40001
1.40001
1.40001
1.40001
1.40001
1.40001
1.40001
1.40001
1.40001
1.40001
1.40001
1.40001
1.40001
1.40001
1.40001
1.40001
1.40001
1.40001
1.40001
1.40001
1.40001
1.40001
1.40001
1.40001
1.40001
1.40001
1.40001
1.40001
1.40001
1.40001
1.40001
1.40001
1.40001
1.40001
1.40001
1.40001
1.40001
1.40001
1.40001
1.40001
1.40001
1.40001
1.40001
1.40001
1.40001
1.40001
1.40001
1.40001
1.40001
1.40001
1.40001
1.40001
1.40001
1.40001
1.40001
1.40001
1.40001
1.40001
1.40001
1.40001
1.40001
1.40001
1.40001
1.40001
1.40001
1.40001
1.40001
1.40001
1.40001
1.40001
1.40001
1.40001
1.40001
1.40001
1.40001
1.40001
1.40001
1.40001
1.40001
1.40001
1.40001
1.40001
1.40001
1.40001
1.40001
1.40001
1.40001
1.40001
1.40001
1.40001
1.40001
1.40001
1.40001
1.40001
1.40001
1.40001
1.40001
1.40001
1.40001
1.40001
1.40001
1.40001
1.40001
1.40001
1.40001
1.40001
1.40001
1.40001
1.40001
1.40001
1.40001
1.40001
1.40001
1.40001
1.40001
1.40001
1.40001
1.40001
1.40001
1.40001
1.40001
1.40001
1.40001
1.40001
1.40001
1.40001
1.40001
1.40001
1.40001
1.40001
1.40001
1.40001
1.40001
1.40001
1.40001
1.40001
1.40001
1.40001
1.40001
1.40001
1.40001
1.40001
1.40001
1.40001
1.40001
1.40001
1.40001
1.40001
1.40001
1.40001
1.40001
1.40001
1.40001
1.40001
1.40001
1.40001
1.40001
1.40001
1.40001
1.40001
1.40001
1.40001
1.40001
1.40001
1.40001
1.40001
1.40001
1.40001
1.40001
1.40001
1.40001
1.40001
1.40001
1.40001
1.40001
1.40001
1.40001
1.40001
1.40001
1.40001
1.40001
1.40001
1.40001
1.40001
1.40001
1.40001
1.40001
1.40001
1.40001
1.40001
1.40001
1.40001
1.40001
1.40001
1.40001
1.40001
1.40001
1.40001
1.40001
1.40001
1.40001
1.40001
1.40001
1.40001
1.40001
1.40001
1.40001
1.40001
1.40001
1.40001
1.40001
1.40001
1.40001
1.40001
1.40001
1.40001
1.40001
1.40001
1.40001
1.40001
1.40001
1.40001
1.40001
1.40001
1.40001
1.40001
1.40001
1.40001
1.40001
1.40001
1.40001
1.40001
1.40001
1.40001
1.40001
1.40001
1.40001
1.40001
1.40001
1.40001
1.40001
1.40001
1.40001
1.40001
1.40001
1.40001
1.40001
1.40001
1.40001
1.40001
1.40001
1.40001
1.40001
1.40001
1.40001
1.40001
1.40001
1.40001
1.40001
1.40001
1.40001
1.40001
1.40001
1.40001
1.40001
1.40001
1.40001
1.40001
1.40001
1.40001
1.40001
1.40001
1.40001
1.40001
1.40001
1.40001
1.40001
1.40001
1.40001
1.40001
1.40001
1.40001
1.40001
1.40001
1.40001
1.40001
1.40001
1.40001
1.40001
1.40001
1.40001
1.40001
1.40001
1.40001
1.40001
1.40001
1.40001
1.40001
1.40001
1.40001
1.40001
1.40001
1.40001
1.40001
1.40001
1.40001
1.40001
1.40001
1.40001
1.40001
1.40001
1.40001
1.40001
1.40001
1.40001
1.40001
1.40001
1.40001
1.40001
1.40001
1.40001
1.40001
1.40001
1.40001
1.40001
1.40001
1.40001
1.40001
1.40001
1.40001
1.40001
1.40001
1.40001
1.40001
1.40001
1.40001
1.40001
1.40001
1.40001
1.40001
1.40001
1.40001
1.40001
1.40001
1.40001
1.40001
1.40001
1.40001
1.40001
1.40001
1.40001
1.40001
1.40001
1.40001
1.40001
1.40001
1.40001
1.40001
1.40001
1.40001
1.40001
1.40001
1.40001
1.40001
1.40001
1.40001
1.40001
1.40001
1.40001
1.40001
1.40001
1.40001
1.40001
1.40001
1.40001
1.40001
1.40001
1.40001
1.40001
1.40001
1.40001
1.40001
1.40001
1.40001
1.40001
1.40001
1.40001
1.40001
1.40001
1.40001
1.40001
1.40001
1.40001
1.40001
1.40001
1.40001
1.40001
1.40001
1.40001
1.40001
1.40001
1.40001
1.40001
1.40001
1.40001
1.40001
1.40001
1.40001
1.40001
1.40001
1.40001
1.40001
1.40001
1.40001
1.40001
1.40001
1.40001
1.40001
1.40001
1.40001
1.40001
1.40001
1.40001
1.40001
1.40001
1.40001
1.40001
1.40001
1.40001
1.40001
1.40001
1.40001
1.40001
1.40001
1.40001
1.40001
1.40001
1.40001
1.40001
1.40001
1.40001
1.40001
1.40001
1.40001
1.40001
1.40001
1.40001
1.40001
1.40001
1.40001
1.40001
1.40001
1.40001
1.40001
1.40001
1.40001
1.40001
1.40001
1.40001
1.40001
1.40001
1.40001
1.40001
1.40001
1.40001
1.40001
1.40001
1.40001
1.40001
1.40001
1.40001
1.40001
1.40001
1.40001
1.40001
1.40001
1.40001
1.40001
1.40001
1.40001
1.40001
1.40001
1.40001
1.40001
1.40001
1.40001
1.40001
1.40001
1.40001
1.40001
1.40001
1.40001
1.40001
1.40001
1.40001
1.40001
1.40001
1.40001
1.40001
1.40001
1.40001
1.40001
1.40001
1.40001
1.40001
1.40001
1.40001
1.40001
1.40001
1.40001
1.40001
1.40001
1.40001
1.40001
1.40001
1.40001
1.40001
1.40001
1.40001
1.40001
1.40001
1.40001
1.40001
1.40001
1.40001
1.40001
1.40001
1.40001
1.40001
1.40001
1.40001
1.40001
1.40001
1.40001
1.40001
1.40001
1.40001
1.40001
1.40001
1.40001
1.40001
1.40001
1.40001
1.40001
1.40001
1.40001
1.40001
1.40001
1.40001
1.40001
1.40001
1.40001
1.40001
1.40001
1.40001
1.40001
1.40001
1.40001
1.40001
1.40001
1.40001
1.40001
1.40001
1.40001
1.40001
1.40001
1.40001
1.40001
1.40001
1.40001
1.40001
1.40001
1.40001
1.40001
1.40001
1.40001
1.40001
1.40001
1.40001
1.40001
1.40001
1.40001
1.40001
1.40001
1.40001
1.40001
1.40001
1.40001
1.40001
1.40001
1.40001
1.40001
1.40001
1.40001
1.40001
1.40001
1.40001
1.40001
1.40001
1.40001
1.40001
1.40001
1.40001
1.40001
1.40001
1.40001
1.40001
1.40001
1.40001
1.40001
1.40001
1.40001
1.40001
1.40001
1.40001
1.40001
1.40001
1.40001
1.40001
1.40001
1.40001
1.40001
1.40001
1.40001
1.40001
1.40001
1.40001
1.40001
1.40001
1.40001
1.40001
1.40001
1.40001
1.40001
1.40001
1.40001
1.40001
1.40001
1.40001
1.40001
1.40001
1.40001
1.40001
1.40001
1.40001
1.40001
1.40001
1.40001
1.40001
1.40001
1.40001
1.40001
1.40001
1.40001
1.40001
1.40001
1.40001
1.40001
1.40001
1.40001
1.40001
1.40001
1.40001
1.40001
1.40001
1.40001
1.40001
1.40001
1.40001
1.40001
1.40001
1.40001
1.40001
1.40001
1.40001
1.40001
1.40001
1.40001
1.40001
1.40001
1.40001
1.40001
1.40001
1.40001
1.40001
1.40001
1.40001
1.40001
1.40001
1.40001
1.40001
1.40001
1.40001
1.40001
1.40001
1.40001
1.40001
1.40001
1.40001
1.40001
1.40001
1.40001
1.40001
1.40001
1.40001
1.40001
1.40001
1.40001
1.40001
1.40001
1.40001
1.40001
1.40001
1.40001
1.40001
1.40001
1.40001
1.40001
1.40001
1.40001
1.40001
1.40001
1.40001
1.40001
1.40001
1.40001
1.40001
1.40001
1.40001
1.40001
1.40001
1.40001
1.40001
1.40001
1.40001
1.40001
1.40001
1.40001
1.40001
1.40001
1.40001
1.40001
1.40001
1.40001
1.40001
1.40001
1.40001
1.40001
1.40001
1.40001
1.40001
1.40001
1.40001
1.40001
1.40001
1.40001
1.40001
1.40001
1.40001
1.40001
1.40001
1.40001
1.40001
1.40001
1.40001
1.67635
2.08662
2.54383
2.98394
3.4335
3.81902
4.1231
4.43182
4.42549
4.28528
4.028
3.7281
3.44895
3.36672
3.3046
3.30964
3.32918
3.34925
3.36932
3.38926
3.414
3.4265
3.42697
3.42554
1.40312
1.41655
1.47324
1.5925
1.79582
2.11438
2.50365
2.99141
3.36219
3.52545
3.64931
3.64067
3.55515
3.47215
3.42598
3.39581
3.38098
3.3648
3.36303
3.37435
3.39291
3.40985
3.41596
3.41754
1.40001
1.39996
1.4001
1.40033
1.40312
1.42259
1.49516
1.71135
2.18874
2.89206
3.42755
3.72889
3.77259
3.71048
3.60176
3.46131
3.38775
3.3481
3.33659
3.34543
3.358
3.37196
3.3892
3.40048
1.40001
1.4
1.4
1.4
1.39999
1.40004
1.39993
1.4016
1.43061
1.63204
2.18039
2.91441
3.51895
3.55438
3.52378
3.49576
3.44826
3.38724
3.34861
3.33232
3.33015
3.33564
3.34959
3.37671
1.40001
1.40001
1.4
1.4
1.4
1.4
1.4
1.4
1.39992
1.40096
1.43975
1.6677
2.334
2.99238
3.42686
3.53934
3.52146
3.46669
3.40826
3.35542
3.31326
3.30475
3.31148
3.33123
1.40001
1.40001
1.40001
1.40001
1.40001
1.4
1.4
1.4
1.4
1.4
1.39993
1.40242
1.46463
1.81519
2.5238
3.11262
3.37265
3.41532
3.3839
3.33034
3.30813
3.29521
3.28409
3.28993
1.40001
1.40001
1.40001
1.40001
1.40001
1.40001
1.40001
1.40001
1.40001
1.4
1.4
1.39999
1.40004
1.41003
1.52532
2.02159
2.79182
3.29781
3.35065
3.3455
3.33435
3.31991
3.28913
3.28068
1.40001
1.40001
1.40001
1.40001
1.40001
1.40001
1.40001
1.40001
1.40001
1.40001
1.40001
1.4
1.4
1.39998
1.40075
1.4371
1.68334
2.36255
3.02122
3.34693
3.38764
3.37072
3.32853
3.29728
1.40001
1.40001
1.40001
1.40001
1.40001
1.40001
1.40001
1.40001
1.40001
1.40001
1.40001
1.40001
1.4
1.4
1.4
1.40004
1.40589
1.52849
1.99934
2.73229
3.16805
3.36115
3.36085
3.3238
1.40001
1.40001
1.40001
1.40001
1.40001
1.40001
1.40001
1.40001
1.40001
1.40001
1.40001
1.40001
1.40001
1.4
1.4
1.4
1.39999
1.40181
1.4364
1.75071
2.40957
3.16387
3.28093
3.28941
1.40001
1.40001
1.40001
1.40001
1.40001
1.40001
1.40001
1.40001
1.40001
1.40001
1.40001
1.40001
1.40001
1.40001
1.40001
1.4
1.4
1.4
1.40013
1.41653
1.56937
2.2004
2.89276
3.2737
1.40001
1.40001
1.40001
1.40001
1.40001
1.40001
1.40001
1.40001
1.40001
1.40001
1.40001
1.40001
1.40001
1.40001
1.40001
1.40001
1.4
1.4
1.4
1.40004
1.40437
1.49782
1.9999
2.77417
1.40001
1.40001
1.40001
1.40001
1.40001
1.40001
1.40001
1.40001
1.40001
1.40001
1.40001
1.40001
1.40001
1.40001
1.40001
1.40001
1.40001
1.4
1.4
1.4
1.40001
1.402
1.46299
1.83442
1.40001
1.40001
1.40001
1.40001
1.40001
1.40001
1.40001
1.40001
1.40001
1.40001
1.40001
1.40001
1.40001
1.40001
1.40001
1.40001
1.40001
1.40001
1.40001
1.4
1.4
1.4
1.40108
1.42812
1.40001
1.40001
1.40001
1.40001
1.40001
1.40001
1.40001
1.40001
1.40001
1.40001
1.40001
1.40001
1.40001
1.40001
1.40001
1.40001
1.40001
1.40001
1.40001
1.40001
1.4
1.4
1.4
1.40004
1.40001
1.40001
1.40001
1.40001
1.40001
1.40001
1.40001
1.40001
1.40001
1.40001
1.40001
1.40001
1.40001
1.40001
1.40001
1.40001
1.40001
1.40001
1.40001
1.40001
1.40001
1.40001
1.4
1.4
1.40001
1.40001
1.40001
1.40001
1.40001
1.40001
1.40001
1.40001
1.40001
1.40001
1.40001
1.40001
1.40001
1.40001
1.40001
1.40001
1.40001
1.40001
1.40001
1.40001
1.40001
1.4
1.4
1.4
1.40001
1.40001
1.40001
1.40001
1.40001
1.40001
1.40001
1.40001
1.40001
1.40001
1.40001
1.40001
1.40001
1.40001
1.40001
1.40001
1.40001
1.40001
1.40001
1.40001
1.4
1.4
1.40001
1.40004
1.40001
1.40001
1.40001
1.40001
1.40001
1.40001
1.40001
1.40001
1.40001
1.40001
1.40001
1.40001
1.40001
1.40001
1.40001
1.40001
1.40001
1.40001
1.40001
1.4
1.4
1.4
1.40128
1.42414
1.40001
1.40001
1.40001
1.40001
1.40001
1.40001
1.40001
1.40001
1.40001
1.40001
1.40001
1.40001
1.40001
1.40001
1.40001
1.40001
1.40001
1.4
1.4
1.4
1.40001
1.40206
1.46334
1.81119
1.40001
1.40001
1.40001
1.40001
1.40001
1.40001
1.40001
1.40001
1.40001
1.40001
1.40001
1.40001
1.40001
1.40001
1.40001
1.40001
1.4
1.4
1.4
1.40005
1.40409
1.5027
1.97536
2.80523
1.40001
1.40001
1.40001
1.40001
1.40001
1.40001
1.40001
1.40001
1.40001
1.40001
1.40001
1.40001
1.40001
1.40001
1.40001
1.4
1.4
1.4
1.40013
1.41689
1.56942
2.20039
2.86864
3.30917
1.40001
1.40001
1.40001
1.40001
1.40001
1.40001
1.40001
1.40001
1.40001
1.40001
1.40001
1.40001
1.40001
1.4
1.4
1.4
1.39999
1.40181
1.43624
1.75099
2.41798
3.15544
3.27557
3.30122
1.40001
1.40001
1.40001
1.40001
1.40001
1.40001
1.40001
1.40001
1.40001
1.40001
1.40001
1.40001
1.4
1.4
1.4
1.40004
1.40588
1.52855
1.99752
2.73529
3.16836
3.35794
3.35975
3.32854
1.40001
1.40001
1.40001
1.40001
1.40001
1.40001
1.40001
1.40001
1.40001
1.40001
1.40001
1.4
1.4
1.39998
1.40075
1.43717
1.68359
2.36153
3.02103
3.34856
3.38739
3.36954
3.32869
3.29931
1.40001
1.40001
1.40001
1.40001
1.40001
1.40001
1.40001
1.40001
1.40001
1.4
1.4
1.39999
1.40004
1.41004
1.52523
2.0219
2.79236
3.29636
3.3513
3.34608
3.33477
3.31987
3.289
3.28052
1.40001
1.40001
1.40001
1.40001
1.40001
1.4
1.4
1.4
1.4
1.4
1.39993
1.40242
1.46462
1.81522
2.52368
3.1131
3.37255
3.41482
3.38385
3.33099
3.30808
3.29431
3.28399
3.28992
1.40001
1.40001
1.4
1.4
1.4
1.4
1.4
1.4
1.39992
1.40096
1.43974
1.66769
2.33406
2.99223
3.42691
3.53934
3.52147
3.46651
3.4083
3.35548
3.31312
3.30452
3.31149
3.33145
1.40001
1.4
1.4
1.4
1.39999
1.40004
1.39993
1.4016
1.43062
1.63205
2.18034
2.91444
3.51889
3.55435
3.5238
3.49584
3.44836
3.38697
3.34885
3.33231
3.33006
3.33559
3.34964
3.37679
1.40001
1.39996
1.4001
1.40033
1.40312
1.42259
1.49516
1.71133
2.18878
2.89199
3.42758
3.72888
3.77257
3.7105
3.60179
3.46146
3.38772
3.34789
3.33674
3.34554
3.35799
3.37186
3.38916
3.40049
1.40312
1.41655
1.47324
1.59251
1.79579
2.11441
2.50363
2.99142
3.36225
3.52538
3.64934
3.64068
3.55508
3.47218
3.42601
3.3958
3.38093
3.36477
3.3631
3.37443
3.39292
3.40979
3.41595
3.41755
1.67635
2.08661
2.54385
2.9839
3.43353
3.8191
4.12298
4.43183
4.42554
4.28525
4.02799
3.72809
3.44895
3.36671
3.30463
3.30964
3.32914
3.34921
3.36939
3.38935
3.41403
3.42649
3.42697
3.42556
2.65769
1.94608
1.44612
1.08983
0.97267
0.999691
1.01178
1.00202
1.02508
1.09089
1.14861
1.19574
1.26686
1.32272
1.32614
1.31182
1.2949
1.30204
1.32517
1.35375
1.3577
1.35442
1.34276
1.3846
1.67128
2.52613
3.6319
4.81496
5.82139
6.00328
5.66961
5.14432
4.81722
4.65457
4.55701
4.45669
4.33109
4.19747
4.06033
3.92328
3.80078
3.70393
3.62712
3.55502
3.48384
3.41297
3.33601
3.24341
3.13381
3.0186
2.92201
2.8573
2.81439
2.7764
2.74011
2.70458
2.66548
2.61722
2.55788
2.48516
2.39182
2.29356
2.24605
2.22054
2.19638
2.1713
2.15001
2.12481
2.09149
2.05735
2.01155
2.0096
2.09403
2.33831
2.76963
3.22704
3.59409
3.92962
4.07974
4.04837
3.94228
3.75924
3.61225
3.53838
3.4945
3.47056
3.44018
3.40458
3.3765
3.34396
3.29689
3.24005
3.17857
3.11843
3.07825
3.02563
3.14714
2.71331
2.34445
1.99936
1.68768
1.57357
1.49026
1.3645
1.2847
1.25717
1.22641
1.20665
1.21774
1.24794
1.26123
1.26376
1.26811
1.281
1.30399
1.32993
1.33649
1.33997
1.40589
1.76703
2.41105
2.75786
3.07537
3.49347
4.22007
4.80029
5.11148
5.06213
4.9029
4.7433
4.60145
4.47158
4.3409
4.21184
4.08455
3.95753
3.83935
3.74373
3.66712
3.59559
3.5248
3.45093
3.36514
3.26144
3.14892
3.04487
2.96449
2.90548
2.85498
2.81031
2.77054
2.73318
2.69268
2.6429
2.58112
2.50583
2.41804
2.33157
2.28372
2.25374
2.22515
2.19741
2.17391
2.15173
2.12706
2.10413
2.12989
2.23688
2.44291
2.64717
2.80771
3.01348
3.24106
3.48827
3.69868
3.74991
3.75962
3.7088
3.62731
3.55332
3.51273
3.48522
3.45256
3.41769
3.38736
3.35149
3.30707
3.25505
3.19613
3.13643
3.09119
3.03543
3.33773
3.12203
2.79372
2.49206
2.15321
1.85048
1.71487
1.58522
1.39421
1.32352
1.30201
1.2551
1.24135
1.25177
1.2775
1.27848
1.26691
1.27128
1.28913
1.31284
1.3364
1.44725
1.92637
2.5226
2.90865
2.9392
2.92847
2.94225
3.08257
3.62398
4.40648
4.88473
4.96898
4.86809
4.63746
4.44412
4.3122
4.18425
4.05522
3.9282
3.81186
3.70542
3.60914
3.52371
3.44551
3.37276
3.29803
3.20931
3.11944
3.04668
2.97634
2.89495
2.81518
2.75498
2.70627
2.66272
2.62431
2.58193
2.53031
2.46864
2.40452
2.34845
2.29001
2.23107
2.18246
2.15603
2.13853
2.13807
2.14992
2.20853
2.37472
2.61998
2.77149
2.84648
2.85162
2.8715
2.9407
3.07866
3.28996
3.49864
3.61753
3.6645
3.62966
3.57592
3.53115
3.49713
3.46594
3.43096
3.39346
3.34871
3.29752
3.23391
3.16406
3.10503
3.06673
3.01705
3.37073
3.29939
3.09536
2.8418
2.5714
2.207
1.99437
1.89783
1.71516
1.53055
1.49308
1.43929
1.33072
1.31076
1.3199
1.30933
1.28289
1.26709
1.26894
1.28327
1.4136
1.95402
2.61638
2.87612
2.93798
2.91985
2.85955
2.7956
2.71819
2.76103
3.09118
3.86089
4.53942
4.62409
4.5866
4.45556
4.32141
4.19631
4.06689
3.93469
3.81526
3.70798
3.60222
3.49512
3.39876
3.31843
3.2578
3.20392
3.14843
3.08936
3.00999
2.90627
2.81139
2.74114
2.68698
2.6368
2.59058
2.54874
2.50496
2.46352
2.42247
2.3664
2.30117
2.2365
2.18288
2.16034
2.15792
2.19258
2.33231
2.567
2.7867
2.91626
2.96033
2.9518
2.91267
2.86393
2.82856
2.82865
2.88227
3.01869
3.21959
3.44489
3.52989
3.53527
3.55372
3.5484
3.52082
3.47488
3.41727
3.36012
3.30581
3.23792
3.15466
3.08511
3.0551
3.02739
3.35428
3.34334
3.26109
3.07755
2.8677
2.60035
2.27161
2.12253
2.00306
1.81422
1.66326
1.57028
1.45253
1.36278
1.35487
1.33619
1.29605
1.27647
1.29424
1.46919
2.0102
2.6714
2.88848
2.88372
2.86177
2.79942
2.73411
2.67297
2.61496
2.54216
2.54693
2.72125
3.35115
4.02787
4.40954
4.40107
4.28867
4.12719
3.9906
3.88156
3.78702
3.68868
3.58427
3.47686
3.37628
3.28821
3.21592
3.15318
3.09555
3.03875
2.97285
2.89498
2.81255
2.73581
2.67283
2.63068
2.5897
2.53175
2.46386
2.4041
2.37317
2.35483
2.32242
2.27124
2.21518
2.21682
2.28676
2.49298
2.74307
2.93766
2.9959
3.02701
3.01492
2.98496
2.93751
2.87277
2.79728
2.73163
2.71514
2.73347
2.82836
3.03234
3.3135
3.46616
3.53293
3.52916
3.48762
3.42098
3.36622
3.31879
3.27395
3.22241
3.14912
3.09275
3.05507
3.00353
3.31406
3.32027
3.30988
3.22544
3.05369
2.86084
2.62176
2.36888
2.19682
2.05378
1.90975
1.79829
1.66003
1.49069
1.46774
1.45767
1.42165
1.44015
1.64467
2.20027
2.78626
2.96437
2.93151
2.84174
2.76083
2.69745
2.64476
2.58955
2.52976
2.47438
2.4318
2.3899
2.46713
2.8446
3.51961
4.02284
4.0996
4.07397
3.97993
3.87882
3.77825
3.67318
3.57053
3.46609
3.3588
3.26458
3.20172
3.14539
3.08462
3.01941
2.95867
2.90422
2.83989
2.77038
2.6995
2.62678
2.55773
2.48954
2.43176
2.39137
2.35642
2.31971
2.29729
2.28389
2.31312
2.44779
2.71183
2.96056
3.05755
3.09675
3.10561
3.08499
3.04321
2.99485
2.94517
2.87992
2.78753
2.70638
2.67171
2.66593
2.67676
2.74268
2.92573
3.18475
3.36689
3.43643
3.42551
3.38584
3.34627
3.30621
3.24916
3.19387
3.14508
3.10657
3.06846
3.0072
3.28829
3.29697
3.29445
3.28083
3.19373
3.02906
2.8303
2.63594
2.45924
2.24239
2.06375
1.99229
1.90886
1.74143
1.59529
1.55287
1.60512
1.88753
2.50992
3.03653
3.13453
3.05514
2.92144
2.8055
2.72839
2.66903
2.6131
2.55618
2.49396
2.44646
2.39573
2.34857
2.26728
2.27341
2.44762
2.97807
3.57025
3.8981
3.92596
3.87072
3.76563
3.65629
3.55465
3.46331
3.36584
3.25732
3.17174
3.10763
3.04918
2.99278
2.93347
2.86873
2.80406
2.73907
2.66695
2.58945
2.52211
2.47522
2.43262
2.38798
2.34615
2.32225
2.32726
2.42109
2.6412
2.94113
3.16246
3.16803
3.15691
3.13485
3.10346
3.07184
3.04121
3.00104
2.95198
2.88886
2.79778
2.71358
2.67609
2.65562
2.64502
2.64665
2.68157
2.80904
2.99892
3.17827
3.33375
3.36577
3.32239
3.27643
3.22671
3.18225
3.1483
3.12086
3.09242
3.03084
3.29349
3.29595
3.29364
3.28262
3.24944
3.16088
3.01044
2.80775
2.65909
2.50621
2.29672
2.10465
2.03416
1.96127
1.83199
1.89736
2.30475
2.95774
3.40933
3.40232
3.30188
3.14683
2.98967
2.86339
2.76829
2.69321
2.6203
2.55335
2.48881
2.43542
2.38281
2.32747
2.24986
2.19625
2.14136
2.19307
2.51132
3.0988
3.58453
3.70508
3.72399
3.65664
3.56539
3.47867
3.37746
3.2507
3.1369
3.06239
3.01125
2.96173
2.90872
2.85217
2.79409
2.72785
2.64666
2.5673
2.50538
2.45941
2.41776
2.3892
2.36607
2.39591
2.56295
2.86442
3.14122
3.31368
3.31791
3.27183
3.20003
3.15235
3.10618
3.07419
3.04794
3.01676
2.97485
2.90962
2.80567
2.71967
2.68835
2.66485
2.64489
2.6282
2.62588
2.63278
2.69614
2.80841
2.97846
3.1594
3.20521
3.21044
3.20539
3.19809
3.18147
3.15904
3.13137
3.05992
3.30404
3.30555
3.30915
3.30187
3.28451
3.23606
3.1469
3.00229
2.81656
2.66472
2.51791
2.32724
2.1833
2.12525
2.27555
2.86165
3.57363
3.79897
3.73756
3.57147
3.39912
3.24353
3.09934
2.97331
2.86368
2.7686
2.68055
2.60164
2.52453
2.4432
2.37168
2.30874
2.2446
2.17064
2.11679
2.05729
2.05322
2.18976
2.66427
3.20342
3.5439
3.61162
3.58042
3.50861
3.39196
3.24859
3.12117
3.0305
2.97771
2.93321
2.88757
2.83633
2.77894
2.70733
2.62109
2.54684
2.49212
2.45633
2.42851
2.43323
2.52965
2.78083
3.1237
3.33587
3.39917
3.39541
3.3483
3.25075
3.20113
3.16841
3.1285
3.0941
3.06386
3.03106
2.98735
2.91738
2.81797
2.74263
2.70695
2.67938
2.65676
2.63753
2.62203
2.61437
2.60615
2.61305
2.65386
2.78227
2.96252
3.08559
3.15607
3.2213
3.21891
3.19785
3.17102
3.0838
3.28541
3.28816
3.30133
3.30465
3.29662
3.27402
3.21903
3.12265
2.98348
2.815
2.66549
2.49161
2.51098
2.81529
3.51304
4.15353
4.25188
4.13634
3.9303
3.73036
3.55276
3.39279
3.2408
3.09652
2.96479
2.84758
2.74595
2.65767
2.57598
2.49097
2.41533
2.33653
2.25386
2.16615
2.09906
2.03797
2.00116
1.96653
2.0201
2.30461
2.82317
3.27902
3.42427
3.42017
3.36291
3.25767
3.13764
3.03172
2.96409
2.91638
2.86955
2.81323
2.74904
2.67768
2.60578
2.5412
2.50343
2.48083
2.52282
2.71385
3.06858
3.37313
3.55702
3.58209
3.54683
3.45565
3.34577
3.24523
3.19626
3.16836
3.13804
3.10901
3.08039
3.04627
2.99814
2.92719
2.84172
2.77448
2.73219
2.69841
2.67087
2.64996
2.63172
2.61629
2.59528
2.57405
2.53496
2.54312
2.64329
2.83103
3.01034
3.14913
3.20031
3.19564
3.17495
3.08893
3.35011
3.33901
3.32392
3.3159
3.31136
3.29876
3.26382
3.20687
3.09472
2.96759
2.82926
2.9495
3.52898
4.32798
4.6857
4.65706
4.4818
4.2674
4.06682
3.88597
3.7158
3.55159
3.39074
3.23333
3.08432
2.94495
2.81902
2.70396
2.59991
2.51344
2.44594
2.37157
2.28767
2.2049
2.12693
2.05382
1.98468
1.93986
1.89689
1.90237
2.03452
2.44026
2.93776
3.24848
3.27996
3.25698
3.16759
3.04562
2.95104
2.89608
2.85034
2.79555
2.73152
2.66216
2.60463
2.54888
2.5488
2.6577
2.95707
3.33097
3.59183
3.648
3.64263
3.61936
3.565
3.47389
3.3533
3.24869
3.20319
3.17753
3.14932
3.12132
3.09296
3.05667
3.00387
2.93646
2.86864
2.80957
2.76091
2.72471
2.69648
2.66996
2.64125
2.61218
2.57902
2.54326
2.51041
2.47898
2.48394
2.56395
2.74121
2.9573
3.12451
3.16028
3.16482
3.10082
3.17757
3.26717
3.34361
3.34915
3.34739
3.32809
3.29208
3.25117
3.17454
3.18
3.52299
4.40073
5.14218
5.33935
5.22141
4.92783
4.64941
4.40774
4.20082
4.01634
3.84343
3.67688
3.51328
3.35107
3.19191
3.03824
2.89801
2.77489
2.67039
2.57778
2.48224
2.3816
2.29536
2.2288
2.15827
2.08303
2.01097
1.95529
1.89376
1.8534
1.80902
1.8499
2.10742
2.58879
2.98731
3.13335
3.11496
3.02535
2.91688
2.85602
2.80438
2.76365
2.72071
2.67341
2.63564
2.67648
2.87469
3.25776
3.57222
3.77326
3.81688
3.77443
3.69649
3.61976
3.55834
3.48557
3.36914
3.27537
3.23504
3.19939
3.16381
3.13079
3.09944
3.06268
3.00897
2.94468
2.89162
2.84609
2.79953
2.75454
2.71715
2.68502
2.65269
2.61704
2.57623
2.53412
2.49366
2.46526
2.45081
2.45234
2.50634
2.64817
2.85968
3.01167
3.08228
3.05841
2.53542
3.13184
3.37316
3.37559
3.32741
3.2859
3.27306
3.28494
3.4556
4.18971
5.32297
5.80933
5.75667
5.59713
5.35687
5.0959
4.83256
4.57487
4.33406
4.12104
3.93928
3.77463
3.61035
3.44036
3.26696
3.09968
2.954
2.82944
2.71837
2.62355
2.5381
2.45065
2.35797
2.25635
2.15733
2.09965
2.05869
1.99952
1.93618
1.86529
1.80067
1.75267
1.75757
1.8859
2.24366
2.69359
2.99003
2.99297
2.92042
2.84241
2.77683
2.74094
2.72285
2.76598
2.93177
3.22855
3.66059
3.83588
3.84103
3.83147
3.81418
3.7897
3.74518
3.66565
3.58069
3.49092
3.38331
3.31144
3.26792
3.2243
3.18296
3.14445
3.10475
3.06012
3.00548
2.95427
2.91318
2.87432
2.83546
2.78984
2.73657
2.68737
2.64965
2.62091
2.59517
2.56068
2.51818
2.48157
2.44776
2.43259
2.4216
2.44517
2.54189
2.6946
2.85929
2.94594
1.70687
2.41154
3.06589
3.25273
3.27888
3.31004
3.42517
3.90939
4.90226
6.0028
6.5188
6.45682
6.10856
5.73734
5.47677
5.23897
4.98143
4.71295
4.45069
4.20419
3.99113
3.81903
3.66724
3.5115
3.34368
3.17143
3.01117
2.87898
2.76724
2.65232
2.54055
2.44722
2.3716
2.29659
2.21549
2.1269
2.03132
1.94949
1.8825
1.83183
1.79093
1.7624
1.72113
1.69896
1.75284
1.97337
2.41365
2.76354
2.83876
2.8267
2.7906
2.78593
2.9119
3.25837
3.63959
3.9693
4.15889
4.13827
4.01289
3.87067
3.80029
3.75767
3.71559
3.6568
3.58301
3.49894
3.41485
3.34195
3.28571
3.23637
3.19373
3.15304
3.11009
3.06609
3.01817
2.97292
2.93824
2.90532
2.86181
2.81065
2.75487
2.70534
2.66494
2.62639
2.58375
2.53822
2.49772
2.46946
2.44503
2.42434
2.40721
2.39361
2.39444
2.42929
2.51903
2.72928
1.42269
1.61195
2.24956
2.85001
3.36074
3.65999
4.46685
5.5362
6.27121
6.61458
6.60176
6.51086
6.29057
5.97024
5.65859
5.35541
5.06549
4.8009
4.55508
4.31326
4.07388
3.86313
3.67917
3.51841
3.36824
3.22818
3.08875
2.95482
2.82702
2.69675
2.57998
2.47829
2.38101
2.29062
2.20379
2.11531
2.02833
1.95732
1.89142
1.83898
1.79743
1.76074
1.71522
1.66373
1.59781
1.60593
1.73566
2.10029
2.4679
2.76403
2.95587
3.1743
3.65459
3.97504
4.08522
4.19724
4.19034
4.15376
4.06414
3.93788
3.82907
3.74384
3.68599
3.63695
3.57689
3.51068
3.44263
3.36587
3.30687
3.26406
3.21955
3.1796
3.1365
3.09127
3.04985
3.00767
2.94789
2.87917
2.83216
2.79104
2.75665
2.72456
2.68543
2.63811
2.58953
2.53838
2.49573
2.47147
2.44755
2.42784
2.41234
2.3851
2.36301
2.33828
2.34403
2.48439
1.40034
1.41335
1.56735
2.11921
3.46063
4.5619
5.77773
6.59154
6.99436
6.898
6.67543
6.45169
6.34086
6.10749
5.76339
5.41515
5.10488
4.82524
4.5639
4.36842
4.19952
3.99496
3.78762
3.60068
3.42196
3.25052
3.09054
2.92447
2.80311
2.74506
2.67165
2.56905
2.44966
2.33851
2.23845
2.14634
2.04745
1.95444
1.9193
1.88951
1.85155
1.80537
1.74679
1.66098
1.58506
1.55751
1.56374
1.63675
1.92135
2.60715
3.28558
3.77636
4.26717
4.40595
4.39247
4.35562
4.23171
4.09183
4.03319
3.96379
3.86967
3.76257
3.67042
3.6122
3.56769
3.52184
3.46546
3.39332
3.31935
3.24962
3.19111
3.15111
3.11808
3.08232
3.04688
3.00753
2.94975
2.87394
2.82692
2.80766
2.78858
2.75999
2.71945
2.66453
2.59624
2.53835
2.50461
2.48262
2.45933
2.43412
2.40934
2.38229
2.34813
2.31235
2.28329
2.34159
1.40062
1.41436
1.54725
2.175
3.16393
4.73135
5.84841
6.50442
7.04309
6.90356
6.57126
6.36806
6.24745
6.03164
5.74308
5.4562
5.17103
4.88499
4.62479
4.37523
4.12871
3.91083
3.7047
3.53731
3.4296
3.30961
3.15253
2.98051
2.83078
2.69951
2.59228
2.50164
2.39992
2.30422
2.25135
2.19561
2.11
2.01007
1.9108
1.83977
1.79666
1.75899
1.70771
1.65819
1.60488
1.5592
1.56441
1.64689
1.99469
2.53891
3.27111
3.91495
4.20545
4.38911
4.41709
4.31619
4.16764
4.0641
4.016
3.96499
3.88893
3.78488
3.68625
3.61354
3.56017
3.51224
3.454
3.38895
3.32006
3.25211
3.19529
3.1469
3.11429
3.09375
3.06837
3.02594
2.96314
2.89202
2.83972
2.79921
2.76367
2.72981
2.68966
2.64599
2.60463
2.56613
2.53952
2.51441
2.48592
2.45214
2.41777
2.38885
2.35314
2.31241
2.28301
2.32244
1.42768
1.65716
2.20237
2.92146
3.1131
3.7582
4.5915
5.50242
6.46193
6.60393
6.52924
6.39077
6.1888
5.90695
5.63581
5.36911
5.09364
4.82908
4.58568
4.33937
4.10029
3.89354
3.7167
3.54651
3.36528
3.19576
3.05122
2.92346
2.8012
2.67492
2.55986
2.47034
2.40687
2.33487
2.22901
2.11611
2.04177
1.98759
1.91763
1.84242
1.78475
1.74809
1.70383
1.65362
1.60711
1.60978
1.74384
2.07674
2.55147
2.68535
2.90813
3.31105
3.57115
3.95331
4.13854
4.1664
4.1599
4.11686
4.05356
3.97795
3.88998
3.80838
3.72447
3.64663
3.57219
3.50112
3.43218
3.36788
3.32072
3.27729
3.22681
3.17526
3.12242
3.07021
3.0243
2.97498
2.92289
2.88093
2.84262
2.80069
2.75825
2.71922
2.68125
2.63432
2.58216
2.54422
2.51676
2.49098
2.46134
2.42353
2.38993
2.36955
2.36105
2.33792
2.34654
2.49597
1.7497
2.43355
3.06896
3.30404
3.26709
3.28429
3.42045
3.88066
4.91192
6.04915
6.44418
6.35642
6.04167
5.70992
5.48946
5.28227
5.03861
4.76907
4.49329
4.23593
4.01326
3.81974
3.64162
3.46878
3.29545
3.13547
3.00273
2.89942
2.80812
2.71032
2.59576
2.47227
2.35951
2.27748
2.2018
2.10501
2.02177
1.98063
1.94907
1.89301
1.82419
1.75221
1.7108
1.66686
1.70195
1.9426
2.36548
2.74147
2.87774
2.84141
2.78654
2.80426
2.88844
3.15567
3.59694
3.92815
4.11073
4.12277
4.05363
3.94325
3.85045
3.77963
3.70892
3.62874
3.54092
3.45728
3.39982
3.35692
3.3111
3.26162
3.21218
3.16925
3.12367
3.06257
2.99709
2.94699
2.91045
2.87622
2.83981
2.80135
2.7605
2.71542
2.66168
2.60776
2.56812
2.53921
2.51313
2.4876
2.458
2.42478
2.40101
2.38689
2.3829
2.42075
2.52457
2.76119
2.63291
3.09873
3.3351
3.34823
3.32355
3.28719
3.28304
3.29671
3.45713
4.2303
5.36744
5.7662
5.73917
5.61215
5.40091
5.15441
4.88401
4.61062
4.34953
4.11571
3.91186
3.72922
3.55491
3.38604
3.2319
3.10013
2.98147
2.86377
2.7508
2.64882
2.54803
2.43859
2.32
2.2206
2.16245
2.11274
2.05011
1.98227
1.91541
1.85746
1.81244
1.75125
1.75212
1.88267
2.23924
2.69846
2.9593
3.00291
2.974
2.90493
2.80684
2.74336
2.69383
2.70732
2.86768
3.21424
3.61488
3.90276
3.91081
3.90021
3.87038
3.8001
3.70482
3.60169
3.51294
3.43457
3.38246
3.34551
3.30872
3.27508
3.24076
3.19233
3.12214
3.03414
2.96198
2.92681
2.90002
2.87213
2.8428
2.81076
2.77065
2.70966
2.63342
2.57962
2.55462
2.53809
2.52179
2.5014
2.47212
2.45313
2.43293
2.44455
2.51421
2.66265
2.83216
2.98077
3.22287
3.23499
3.2858
3.32103
3.34243
3.32891
3.29549
3.24986
3.17262
3.18487
3.56435
4.39529
5.16033
5.36442
5.24463
4.95001
4.65589
4.40407
4.18703
3.99003
3.80432
3.62809
3.46302
3.31225
3.17607
3.05239
2.93857
2.82801
2.71965
2.60869
2.48902
2.37541
2.28486
2.21202
2.13422
2.06125
2.00585
1.96068
1.90098
1.86376
1.82406
1.86259
2.12019
2.58287
2.99207
3.14549
3.13721
3.07959
2.99017
2.90279
2.82072
2.74525
2.68056
2.63825
2.61969
2.67507
2.90319
3.33776
3.66426
3.82352
3.82936
3.77103
3.6627
3.57216
3.50663
3.44505
3.39326
3.33769
3.27917
3.23283
3.2007
3.16087
3.09017
3.00473
2.94902
2.91625
2.88804
2.86038
2.83117
2.79827
2.75374
2.68058
2.60372
2.56126
2.53505
2.51224
2.49514
2.48345
2.48479
2.4912
2.52841
2.62274
2.79741
2.93408
3.02728
3.05666
3.36014
3.33627
3.30311
3.30487
3.30864
3.29834
3.26545
3.20507
3.09132
2.96674
2.83581
2.95133
3.52236
4.33748
4.71647
4.66505
4.47465
4.25801
4.05139
3.85669
3.67411
3.50789
3.35902
3.22416
3.09927
2.98111
2.86845
2.75335
2.64245
2.53969
2.44467
2.34898
2.26148
2.18237
2.1075
2.04039
1.98466
1.94621
1.91424
1.92284
2.0473
2.43932
2.93667
3.23273
3.28154
3.25892
3.17424
3.07557
2.99264
2.91382
2.83846
2.75889
2.68928
2.62929
2.58336
2.55652
2.57182
2.69605
3.02805
3.35083
3.56907
3.60246
3.57827
3.56526
3.51373
3.45321
3.38981
3.3254
3.26579
3.21562
3.17368
3.12145
3.04871
2.97869
2.93185
2.89924
2.87234
2.84899
2.82692
2.79774
2.73962
2.64548
2.57243
2.53634
2.51664
2.50185
2.49972
2.50216
2.53588
2.6374
2.77563
2.92416
3.03883
3.05646
3.07037
3.05411
3.29134
3.28932
3.29663
3.29766
3.29262
3.27628
3.22262
3.12543
2.98449
2.81837
2.67042
2.49517
2.51175
2.81103
3.50748
4.1382
4.2398
4.1257
3.91704
3.71325
3.53369
3.38224
3.24776
3.12092
3.00108
2.88988
2.78951
2.68791
2.58571
2.48399
2.38692
2.2903
2.21507
2.14794
2.09401
2.03686
2.00564
1.99013
2.04377
2.32438
2.82493
3.27286
3.4017
3.38434
3.31971
3.24096
3.15763
3.07558
3
2.93156
2.87246
2.80355
2.72106
2.64014
2.58582
2.54134
2.51262
2.4987
2.55176
2.72986
3.0402
3.34575
3.45587
3.5064
3.50913
3.45368
3.38573
3.33299
3.27742
3.20778
3.13661
3.06866
3.00321
2.95304
2.92006
2.89318
2.8677
2.84376
2.81784
2.77762
2.70717
2.6134
2.54775
2.5258
2.51275
2.51462
2.52715
2.59407
2.76264
2.96196
3.10968