/*--------------------------------*- C++ -*----------------------------------*\
  =========                 |
  \\      /  F ield         | OpenFOAM: The Open Source CFD Toolbox
   \\    /   O peration     | Website:  https://openfoam.org
    \\  /    A nd           | Version:  7
     \\/     M anipulation  |
\*---------------------------------------------------------------------------*/
FoamFile
{
    version     2.0;
    format      ascii;
    class       volScalarField;
    location    "3.7";
    object      T;
}
// * * * * * * * * * * * * * * * * * * * * * * * * * * * * * * * * * * * * * //

dimensions      [0 0 0 1 0 0 0];

internalField   nonuniform List<scalar> 
4608
(
1
1
1
1
1
1
1
1
1
1
1
1
1
1
1
1
1
1
1
1
1
1
1
1
1
1
1
1
1
1
1
1
1
1
1
1
1
1
1
1
1
1
1
1
1
1
1
1
1
1
1
1
1
1
1
1
1
1
1
1
1
1
1
1
1
1
1
1
1
1
1
1
1
1
1
1
1
1
1
1
1
1
1
1
1
1
1
1
1
1
1
1
1
1
1
1
1
1
1
1
1
1
1
1
1
1
1
1
1
1
1
1
1
1
1
1
1
1
1
1
1
1
1
1
1
1
1
1
1
1
1
1
1
1
1
1
1
1
1
1
1
1
1
1
1
1
1
1
1
1
1
1
1
1
1
1
1
1
1
1
1
1
1
1
1
1
1
1
1
1
1
1
1
1
1
1
1
1
1
1
1
1
1
1
1
1
1
1
1
1
1
1
1
1
1
1
1
1
1
1
1
1
1
1
1
1
1
1
1
1
1
1
1
1
1
1
1
1
1
1
1
1
1
1
1
1
1
1
1
1
1
1
1
1
1
1
1
1
1
1
1
1
1
1
1
1
1
1
1
1
1
1
1
1
1
1
1
1
1
1
1
1
1
1
1
1
1
1
1
1
1
1
1
1
1
1
1
1
1
1
1
1
1
1
1
1
1
1
1
1
1
1
1
1
1
1
1
1
1
1
1
1
1
1
1
1
1
1
1
1
1
1
1
1
1
1
1
1
1
1
1
1
1
1
1
1
1
1
1
1
1
1
1
1
1
1
1
1
1
1
1
1
1
1
1
1
1
1
1
1
1
1
1
1
1
1
1
1
1
1
1
1
1
1
1
1
1
1
1
1
1
1
1
1
1
1
1
1
1
1
1
1
1
1
1
1
1
1
1
1
1
1
1
1
1
1
1
1
1
1
1
1
1
1
1
1
1
1
1
1
1
1
1
1
1
1
1
1
1
1
1
1
1
1
1
1
1
1
1
1
1
1
1
1
1
1
1
1
1
1
1
1
1
1
1
1
1
1
1
1
1
1
1
1
1
1
1
1
1
1
1
1
1
1
1
1
1
1
1
1
1
1
1
1
1
1
1
1
1
1
1
1
1
1
1
1
1
1
1
1
1
1
1
1
1
1
1
1
1
1
1
1
1
1
1
1
1
1
1
1
1
1
1
1
1
1
1
1
1
1
1
1
1
1
1
1
1
1
1
1
1
1
1
1
1
1
1
1
1
1
1
1
1
1
1
1
1
1
1
1
1
1
1
1
1
1
1
1
1
1
1
1
1
1
1
1
1
1
1
1
1
1
1
1
1
1
1
1
1
1
1
1
1
1
1
1
1
1
1
1
1
1
1
1
1
1
1
1
1
1
1
1
1
1
1
1
1
1
1
1
1
1
1
1
1
1
1
1
1
1
1
1
1
1
1
1
1
1
1
1
1
1
1
1
1
1
1
1
1
1
1
1
1
1
1
1
1
1
1
1
1
1
1
1
1
1
1
1
1
1
1
1
1
1
1
1
1
1
1
1
1
1
1
1
1
1
1
1
1
1
1
1
1
1
1
1
1
1
1
1
1
1
1
1
1
1
1
1
1
1
1
1
1
1
1
1
1
1
1
1
1
1
1
1
1
1
1
1
1
1
1
1
1
1
1
1
1
1
1
1
1
1
1
1
1
1
1
1
1
1
1
1
1
1
1
1
1
1
1
1
1
1
1
1
1
1
1
1
1
1
1
1
1
1
1
1
1
1
1.07813
1.18193
1.28979
1.38949
1.48791
1.57054
1.63534
1.68494
1.6985
1.68124
1.63699
1.58616
1.53841
1.52454
1.51472
1.51605
1.51964
1.52348
1.52734
1.5307
1.53485
1.53815
1.53904
1.53952
1.00103
1.00599
1.02821
1.07398
1.14325
1.23338
1.32027
1.41009
1.48001
1.51761
1.54586
1.56754
1.55951
1.55063
1.5439
1.53835
1.53473
1.53121
1.53091
1.53279
1.53587
1.53919
1.54067
1.54168
1
0.999985
1.00003
1.00012
1.00118
1.00857
1.03661
1.11704
1.26954
1.4536
1.56591
1.62263
1.62248
1.61073
1.59088
1.56499
1.55147
1.54197
1.5369
1.53848
1.54111
1.54433
1.54725
1.54964
1
1
0.999999
0.999999
0.999995
1.00001
0.999971
1.00063
1.01303
1.10678
1.30846
1.49377
1.61998
1.61258
1.59905
1.59487
1.58693
1.57264
1.55829
1.55475
1.55498
1.55645
1.55867
1.56209
1
1
1
1
1
1
0.999997
0.999997
0.999964
1.00039
1.01744
1.12061
1.35962
1.5204
1.61924
1.62818
1.62257
1.60796
1.59309
1.58189
1.57477
1.57073
1.57081
1.57264
1
1
1
1
1
1
1
1
0.999997
0.999997
0.999964
1.00093
1.02815
1.18133
1.4059
1.54723
1.59763
1.60613
1.60115
1.59184
1.58726
1.58358
1.57775
1.57781
1
1
1
1
1
1
1
1
1
1
0.999998
0.999995
0.999993
1.00398
1.05386
1.2478
1.46657
1.58518
1.59547
1.59592
1.59376
1.59076
1.58479
1.58066
1
1
1
1
1
1
1
1
1
1
1
0.999999
0.999999
0.999988
1.00024
1.01466
1.11812
1.34743
1.51854
1.58937
1.59987
1.59738
1.59071
1.58367
1
1
1
1
1
1
1
1
1
1
1
1
1
0.999998
0.999998
1
1.00216
1.05228
1.22748
1.43669
1.54089
1.58833
1.58893
1.5831
1
1
1
1
1
1
1
1
1
1
1
1
1
1
1
1
0.999994
1.00058
1.0139
1.13802
1.34472
1.53216
1.56352
1.57058
1
1
1
1
1
1
1
1
1
1
1
1
1
1
1
1
0.999999
0.999997
1.00003
1.00587
1.06587
1.28109
1.46789
1.54898
1
1
1
1
1
1
1
1
1
1
1
1
1
1
1
1
1
0.999999
0.999999
1.00001
1.00145
1.03698
1.21998
1.42147
1
1
1
1
1
1
1
1
1
1
1
1
1
1
1
1
1
1
1
1
0.999999
1.00063
1.02327
1.15359
1
1
1
1
1
1
1
1
1
1
1
1
1
1
1
1
1
1
1
1
1
0.999999
1.00032
1.00962
1
1
1
1
1
1
1
1
1
1
1
1
1
1
1
1
1
1
1
1
1
1
1
0.999998
1
1
1
1
1
1
1
1
1
1
1
1
1
1
1
1
1
1
1
1
1
1
1
0.999999
1
1
1
1
1
1
1
1
1
1
1
1
1
1
1
1
1
1
1
1
1
1
1
0.999998
1
1
1
1
1
1
1
1
1
1
1
1
1
1
1
1
1
1
1
1
1
1
1
1
1
1
1
1
1
1
1
1
1
1
1
1
1
1
1
1
1
1
1
1
1
0.999999
1.00038
1.00854
1
1
1
1
1
1
1
1
1
1
1
1
1
1
1
1
1
1
1
1
0.999999
1.00065
1.02293
1.15092
1
1
1
1
1
1
1
1
1
1
1
1
1
1
1
1
1
0.999999
0.999999
1.00001
1.00137
1.03844
1.21145
1.43323
1
1
1
1
1
1
1
1
1
1
1
1
1
1
1
1
0.999999
0.999997
1.00003
1.00599
1.06599
1.28064
1.46239
1.55559
1
1
1
1
1
1
1
1
1
1
1
1
1
1
1
1
0.999993
1.00059
1.01383
1.13844
1.34724
1.52913
1.56266
1.57234
1
1
1
1
1
1
1
1
1
1
1
1
1
0.999998
0.999998
1
1.00216
1.05227
1.22693
1.43771
1.5411
1.58677
1.58916
1.58411
1
1
1
1
1
1
1
1
1
1
1
0.999999
0.999999
0.999988
1.00024
1.01469
1.11819
1.34695
1.5187
1.5897
1.59982
1.59714
1.59074
1.58408
1
1
1
1
1
1
1
1
1
1
0.999998
0.999995
0.999993
1.00398
1.05382
1.24796
1.46665
1.58474
1.59574
1.59598
1.59385
1.59078
1.5847
1.58057
1
1
1
1
1
1
1
1
0.999997
0.999997
0.999964
1.00093
1.02814
1.18133
1.40588
1.54741
1.59754
1.60604
1.60117
1.592
1.58727
1.58347
1.57766
1.57773
1
1
1
1
1
1
0.999997
0.999997
0.999964
1.00039
1.01744
1.12061
1.35963
1.52036
1.61929
1.62818
1.62257
1.60792
1.59309
1.58192
1.57475
1.5707
1.57081
1.57264
1
1
0.999999
0.999999
0.999995
1.00001
0.999971
1.00063
1.01304
1.10679
1.30845
1.49377
1.61998
1.61256
1.59906
1.59489
1.58695
1.57259
1.55829
1.55475
1.55498
1.55646
1.55868
1.5621
1
0.999985
1.00003
1.00012
1.00118
1.00857
1.03661
1.11703
1.26956
1.45359
1.56593
1.62263
1.62247
1.61073
1.59088
1.56501
1.55148
1.54194
1.53691
1.5385
1.54111
1.54431
1.54725
1.54965
1.00103
1.00599
1.02821
1.07399
1.14324
1.23339
1.32027
1.41009
1.48002
1.5176
1.54588
1.56753
1.55949
1.55063
1.5439
1.53835
1.53472
1.53121
1.53092
1.5328
1.53586
1.53917
1.54067
1.54168
1.07813
1.18193
1.28979
1.38949
1.48791
1.57056
1.63532
1.68494
1.69851
1.68124
1.637
1.58616
1.53841
1.52454
1.51473
1.51605
1.51964
1.52348
1.52736
1.53071
1.53485
1.53814
1.53904
1.53952
1.39665
1.23546
1.11339
0.992636
0.974082
1.00314
1.02741
1.02054
1.02532
1.04545
1.06616
1.08094
1.10154
1.11354
1.11336
1.10814
1.10251
1.10417
1.10877
1.11552
1.11683
1.11498
1.11081
1.12807
1.24676
1.51137
1.7561
1.97917
2.14024
2.18706
2.13786
2.05492
1.99915
1.97112
1.95508
1.93888
1.91769
1.89425
1.8695
1.84397
1.82044
1.80136
1.78608
1.77201
1.7585
1.74514
1.73009
1.71083
1.68687
1.66127
1.63986
1.62541
1.61574
1.60724
1.59908
1.59098
1.58196
1.57065
1.55646
1.53866
1.51529
1.48994
1.47725
1.47041
1.46401
1.45753
1.45214
1.44564
1.43666
1.42721
1.41449
1.4145
1.44032
1.50942
1.61944
1.72317
1.80051
1.86703
1.8972
1.89194
1.87169
1.83539
1.80595
1.79149
1.78302
1.77854
1.77265
1.76538
1.75943
1.75261
1.74262
1.72999
1.71646
1.70398
1.69632
1.68545
1.49443
1.41031
1.33267
1.24571
1.15511
1.13519
1.11985
1.07926
1.05654
1.05463
1.0513
1.05176
1.0563
1.06519
1.06975
1.07086
1.07282
1.07758
1.08404
1.09234
1.09429
1.09699
1.1256
1.27124
1.47286
1.55739
1.63213
1.72703
1.86993
1.97247
2.03315
2.0305
2.01126
1.9866
1.9637
1.94277
1.92083
1.89832
1.87533
1.8514
1.82854
1.80971
1.79423
1.78032
1.76721
1.75354
1.73702
1.71591
1.69142
1.66809
1.65019
1.63689
1.62517
1.61512
1.6064
1.59809
1.58886
1.57728
1.56262
1.54434
1.52227
1.50004
1.48758
1.47967
1.47207
1.46497
1.45911
1.45348
1.44683
1.44065
1.44844
1.47923
1.53492
1.58659
1.62663
1.67656
1.72872
1.78124
1.8231
1.83275
1.83476
1.82468
1.80948
1.79602
1.7883
1.78304
1.77667
1.76957
1.76308
1.75544
1.74585
1.73403
1.72081
1.70862
1.70029
1.68889
1.53504
1.49229
1.4268
1.3615
1.28154
1.20797
1.17223
1.13316
1.07742
1.05894
1.05366
1.041
1.03824
1.04167
1.05051
1.05116
1.04843
1.05036
1.05663
1.06463
1.07346
1.11755
1.29927
1.47939
1.5772
1.58972
1.58745
1.59154
1.62953
1.76243
1.92511
2.0113
2.02788
2.01159
1.97335
1.94093
1.91821
1.89592
1.87242
1.84823
1.82546
1.80436
1.78495
1.76785
1.75266
1.73885
1.72451
1.7067
1.68751
1.67113
1.65463
1.6354
1.61691
1.60294
1.59179
1.582
1.57324
1.56338
1.55105
1.53595
1.51963
1.50484
1.48948
1.47395
1.46119
1.45421
1.44993
1.45003
1.45368
1.47142
1.51978
1.5828
1.61861
1.63573
1.63979
1.64694
1.66457
1.69691
1.74401
1.78817
1.81236
1.81998
1.81337
1.80376
1.7956
1.78912
1.78309
1.77594
1.76792
1.75789
1.74606
1.73169
1.71663
1.70454
1.6973
1.68669
1.55707
1.53755
1.49322
1.44011
1.38174
1.29885
1.24621
1.2193
1.16919
1.11959
1.10738
1.09
1.05657
1.05178
1.0549
1.05155
1.04392
1.04058
1.04144
1.04703
1.10129
1.30136
1.49726
1.56745
1.5862
1.58313
1.57157
1.55948
1.54581
1.5598
1.65308
1.83153
1.96851
1.97711
1.97034
1.94764
1.92459
1.9023
1.87818
1.85341
1.83049
1.80938
1.78843
1.76658
1.74652
1.72987
1.71795
1.70726
1.69566
1.68264
1.66436
1.64029
1.61861
1.60234
1.58938
1.57746
1.56662
1.55673
1.54603
1.53558
1.52511
1.5107
1.49371
1.47663
1.46251
1.45636
1.45653
1.46691
1.50679
1.56938
1.62466
1.65397
1.66608
1.66494
1.65785
1.64859
1.64135
1.64242
1.65579
1.68838
1.73371
1.78066
1.79776
1.7998
1.80418
1.80323
1.79779
1.78835
1.77611
1.76332
1.75093
1.73615
1.71838
1.70363
1.69777
1.69091
1.56992
1.56284
1.54002
1.49848
1.45276
1.39502
1.32005
1.28228
1.25169
1.206
1.16677
1.13693
1.09719
1.06879
1.06852
1.06357
1.04937
1.04365
1.05149
1.12847
1.32741
1.51797
1.57313
1.57755
1.57407
1.56145
1.54833
1.53633
1.52464
1.508
1.5095
1.5599
1.72597
1.87346
1.95063
1.94898
1.92798
1.89604
1.86837
1.84729
1.82919
1.80991
1.78899
1.76713
1.74599
1.72686
1.7116
1.69844
1.68606
1.67353
1.65877
1.64121
1.62192
1.60376
1.58848
1.57807
1.56842
1.55446
1.53732
1.52172
1.5137
1.50927
1.50106
1.48746
1.47247
1.47334
1.49445
1.55281
1.6174
1.66476
1.67658
1.68484
1.68266
1.6769
1.66737
1.65363
1.63696
1.62144
1.61785
1.62243
1.64578
1.69387
1.75652
1.79119
1.8054
1.80447
1.7957
1.78129
1.76861
1.75761
1.74782
1.73689
1.72084
1.70845
1.7004
1.68771
1.57624
1.57291
1.56662
1.54415
1.50497
1.46192
1.40942
1.35197
1.30949
1.27359
1.23934
1.20945
1.16681
1.11295
1.10766
1.10531
1.09388
1.10188
1.18641
1.39016
1.55354
1.59914
1.59211
1.57323
1.55596
1.54195
1.53045
1.51831
1.50467
1.49088
1.47881
1.46595
1.48847
1.59927
1.76958
1.88653
1.89563
1.88943
1.8699
1.84949
1.83
1.80966
1.78886
1.76738
1.74554
1.72609
1.71274
1.70058
1.6873
1.67261
1.65871
1.64627
1.63099
1.61402
1.59703
1.57971
1.56308
1.54611
1.53118
1.5205
1.51126
1.5014
1.49529
1.4922
1.50081
1.53939
1.61079
1.67209
1.69535
1.7052
1.70675
1.70219
1.69307
1.68278
1.67219
1.6577
1.6362
1.61643
1.60837
1.60661
1.60932
1.62556
1.67042
1.73222
1.774
1.78952
1.78697
1.77752
1.7675
1.75791
1.74555
1.73381
1.72327
1.71458
1.70596
1.69184
1.58015
1.57853
1.57531
1.56929
1.54846
1.51236
1.46852
1.425
1.38398
1.33066
1.28536
1.26577
1.24217
1.19569
1.15345
1.14042
1.16129
1.27133
1.47437
1.61868
1.64049
1.62386
1.59492
1.56834
1.55002
1.53586
1.52181
1.50716
1.49155
1.47907
1.46489
1.45156
1.42866
1.43056
1.48674
1.64161
1.78283
1.85018
1.85767
1.84741
1.82784
1.80655
1.78576
1.76688
1.74754
1.72632
1.70867
1.69451
1.68116
1.66785
1.65375
1.63835
1.62323
1.60832
1.59184
1.57357
1.55653
1.54411
1.53271
1.52091
1.51036
1.50363
1.50509
1.53147
1.59095
1.6683
1.72249
1.72302
1.72027
1.71539
1.70848
1.7013
1.69501
1.68663
1.67576
1.66082
1.6388
1.61839
1.6092
1.60405
1.60058
1.60094
1.60995
1.64241
1.68941
1.73226
1.7674
1.77133
1.76182
1.75211
1.74154
1.73209
1.72471
1.71855
1.71242
1.70011
1.58214
1.5816
1.58041
1.57758
1.57016
1.55134
1.51923
1.4747
1.43981
1.40327
1.35331
1.30385
1.28261
1.26076
1.22847
1.25806
1.40785
1.58951
1.69454
1.69305
1.67284
1.641
1.60769
1.57939
1.55684
1.53802
1.5193
1.50195
1.48437
1.46824
1.45377
1.43948
1.41903
1.40335
1.38678
1.40461
1.50773
1.66316
1.77317
1.80574
1.8149
1.80225
1.78431
1.7664
1.7463
1.72184
1.69929
1.68335
1.67117
1.65899
1.64608
1.63309
1.62078
1.60697
1.58896
1.56969
1.55338
1.54057
1.5294
1.52187
1.5165
1.52534
1.57101
1.64925
1.7151
1.75646
1.75758
1.74738
1.73051
1.71864
1.70823
1.70147
1.69619
1.68963
1.68016
1.66475
1.63981
1.61838
1.6101
1.60397
1.59843
1.59396
1.59228
1.5945
1.61182
1.64074
1.68214
1.72196
1.7316
1.73403
1.73495
1.73345
1.7297
1.72438
1.71811
1.70518
1.58174
1.58292
1.58511
1.58449
1.58187
1.57233
1.55367
1.52298
1.48238
1.44746
1.41283
1.36736
1.327
1.31504
1.36992
1.55124
1.72358
1.77041
1.75773
1.72406
1.68825
1.65542
1.62454
1.59669
1.57145
1.54846
1.5264
1.50558
1.48418
1.463
1.44477
1.4276
1.40963
1.38976
1.37504
1.35666
1.35562
1.40198
1.54177
1.67956
1.76295
1.78382
1.77817
1.76369
1.74095
1.71379
1.68899
1.67032
1.65843
1.64777
1.63712
1.6263
1.61521
1.60094
1.58193
1.5637
1.54897
1.53852
1.53153
1.53344
1.56154
1.62924
1.71194
1.76044
1.77244
1.77135
1.76119
1.74003
1.72795
1.71954
1.71022
1.70273
1.69643
1.68946
1.67967
1.66329
1.63911
1.61964
1.61
1.60279
1.59704
1.59176
1.58691
1.58524
1.58425
1.58603
1.59617
1.62734
1.66952
1.69825
1.71781
1.73388
1.73326
1.72836
1.72216
1.7063
1.5731
1.57623
1.58112
1.58214
1.58074
1.57686
1.5669
1.54853
1.52091
1.48528
1.45143
1.41046
1.41845
1.51565
1.69377
1.84033
1.84998
1.82733
1.78714
1.74709
1.7106
1.67696
1.64443
1.61308
1.58388
1.55695
1.5324
1.50975
1.48785
1.46583
1.44595
1.42543
1.4052
1.38363
1.36526
1.34683
1.33418
1.32306
1.34151
1.43478
1.58351
1.69522
1.73129
1.73241
1.72315
1.70482
1.68149
1.66036
1.6468
1.63657
1.62646
1.61503
1.60284
1.58902
1.57321
1.5576
1.54748
1.54238
1.55417
1.6056
1.69716
1.76551
1.80372
1.80505
1.79819
1.7798
1.75608
1.73254
1.72039
1.71368
1.70641
1.69983
1.69374
1.68646
1.67557
1.65861
1.6374
1.62006
1.60898
1.60042
1.59365
1.58863
1.58467
1.58091
1.57526
1.56952
1.55822
1.55973
1.58458
1.63028
1.67456
1.70992
1.72218
1.72108
1.71653
1.70106
1.57743
1.57877
1.57864
1.57781
1.57767
1.57664
1.57204
1.56309
1.54275
1.51709
1.48911
1.52621
1.68185
1.85129
1.91627
1.91058
1.8786
1.83844
1.80001
1.76462
1.73041
1.69647
1.66264
1.62943
1.59794
1.56782
1.53919
1.51129
1.48499
1.46248
1.44515
1.42673
1.40632
1.38506
1.36455
1.34549
1.3263
1.31197
1.29838
1.30133
1.35012
1.4773
1.61042
1.67437
1.69241
1.69059
1.67559
1.65252
1.6336
1.62243
1.6131
1.6021
1.58951
1.57621
1.5651
1.55288
1.55343
1.58294
1.65848
1.7444
1.80599
1.81042
1.80827
1.80246
1.79177
1.7737
1.74769
1.7237
1.71253
1.70628
1.69978
1.69368
1.68753
1.67932
1.66681
1.65042
1.63375
1.61931
1.60757
1.59875
1.5919
1.58576
1.5791
1.57093
1.56123
1.55171
1.54366
1.53506
1.53629
1.55662
1.60117
1.65555
1.69509
1.70207
1.70306
1.69262
1.52548
1.55536
1.5721
1.57765
1.57834
1.57668
1.57198
1.56664
1.55496
1.55881
1.65018
1.8394
1.97973
2.00676
1.98631
1.93715
1.88858
1.84586
1.80883
1.77504
1.742
1.70839
1.67429
1.64057
1.608
1.5766
1.54706
1.51958
1.49468
1.471
1.44649
1.42239
1.40173
1.38533
1.36727
1.34715
1.32721
1.31124
1.29421
1.28337
1.27283
1.28953
1.3782
1.51262
1.60962
1.65128
1.65072
1.63527
1.61386
1.60229
1.59246
1.5839
1.57578
1.56748
1.56558
1.57771
1.62888
1.71755
1.7848
1.82515
1.83346
1.82465
1.80763
1.79196
1.7795
1.76386
1.73885
1.71798
1.70808
1.69973
1.69225
1.68572
1.6791
1.6704
1.65714
1.64153
1.62879
1.61858
1.60853
1.59869
1.59007
1.58223
1.57419
1.56454
1.55317
1.54181
1.53161
1.52501
1.52106
1.52151
1.53586
1.57276
1.62529
1.65946
1.67405
1.6711
1.36222
1.5129
1.56967
1.5745
1.56829
1.56524
1.56529
1.56959
1.61176
1.77124
1.97846
2.05355
2.04637
2.0229
1.98551
1.94266
1.89855
1.85549
1.81583
1.78028
1.74787
1.71579
1.68211
1.6473
1.61232
1.57916
1.55011
1.52416
1.4996
1.47704
1.45584
1.4348
1.4125
1.38808
1.36325
1.34786
1.33697
1.32117
1.30439
1.28505
1.26688
1.2553
1.25849
1.3051
1.41758
1.54126
1.6132
1.6154
1.60286
1.58807
1.57512
1.5668
1.5684
1.5829
1.62719
1.69727
1.78692
1.82167
1.82479
1.82223
1.819
1.81397
1.80452
1.78893
1.77212
1.7546
1.73232
1.71515
1.70423
1.69455
1.68656
1.67954
1.67169
1.66154
1.64804
1.63518
1.62522
1.61706
1.60974
1.6012
1.5904
1.57901
1.56926
1.56167
1.55465
1.54496
1.53339
1.52384
1.51522
1.51174
1.50993
1.51668
1.54216
1.58023
1.61718
1.63696
1.11571
1.33225
1.50077
1.53931
1.54735
1.55897
1.58875
1.69588
1.8855
2.05531
2.12904
2.1212
2.07667
2.02661
1.98774
1.94953
1.90735
1.8636
1.822
1.78292
1.74726
1.71547
1.68516
1.65389
1.62055
1.58655
1.55472
1.52803
1.50475
1.47967
1.4541
1.4317
1.41339
1.39544
1.37557
1.35316
1.32844
1.30662
1.28851
1.27471
1.2641
1.25749
1.24662
1.24088
1.25975
1.33577
1.46775
1.55646
1.57693
1.57483
1.56847
1.57031
1.60657
1.6915
1.77331
1.83312
1.86601
1.8629
1.84321
1.82133
1.80832
1.7976
1.78829
1.77661
1.7627
1.74744
1.73061
1.71404
1.70095
1.69053
1.68264
1.67544
1.66714
1.6572
1.64498
1.63314
1.62546
1.61927
1.61136
1.6018
1.59083
1.57971
1.56909
1.55853
1.54709
1.53493
1.5243
1.51694
1.51109
1.50681
1.50346
1.50178
1.50188
1.5107
1.53277
1.58388
1.00796
1.0778
1.29526
1.45035
1.56015
1.6231
1.77169
1.96258
2.08676
2.12458
2.12164
2.11094
2.08452
2.04394
2.00073
1.95598
1.91152
1.87032
1.83196
1.79313
1.75304
1.71578
1.68155
1.65054
1.62191
1.59522
1.56822
1.54158
1.51488
1.48698
1.46131
1.43764
1.41433
1.39231
1.3709
1.3489
1.32668
1.3082
1.29136
1.27824
1.2677
1.25772
1.24452
1.22909
1.2093
1.21328
1.26224
1.38202
1.48544
1.55615
1.60371
1.6523
1.75775
1.83354
1.85361
1.86648
1.86337
1.85684
1.84431
1.82643
1.80836
1.79075
1.77747
1.76695
1.75584
1.74343
1.72953
1.7136
1.70183
1.69379
1.68579
1.6787
1.67007
1.65948
1.6486
1.63754
1.62399
1.61007
1.60155
1.59375
1.58649
1.57908
1.56946
1.55732
1.54461
1.53167
1.52115
1.51536
1.50992
1.50623
1.50372
1.49834
1.49333
1.48608
1.4868
1.52252
1.0001
1.00441
1.06595
1.24947
1.58976
1.79275
1.97491
2.10851
2.17364
2.16047
2.12949
2.09984
2.08522
2.05514
2.00812
1.95836
1.91322
1.87164
1.83105
1.79921
1.77095
1.73608
1.69945
1.66429
1.63082
1.59893
1.56848
1.535
1.50907
1.49719
1.48188
1.45904
1.43127
1.40425
1.37962
1.35686
1.3316
1.30741
1.29992
1.29374
1.28444
1.27146
1.25382
1.22817
1.20566
1.19678
1.19903
1.22691
1.32606
1.51958
1.6788
1.77795
1.87188
1.9117
1.90687
1.89694
1.87207
1.84598
1.83766
1.82726
1.8113
1.79164
1.77332
1.76147
1.75232
1.74272
1.7311
1.71683
1.70297
1.69
1.67888
1.67106
1.66411
1.65562
1.6464
1.63628
1.62282
1.60673
1.59827
1.59527
1.59137
1.58493
1.57539
1.56208
1.54522
1.5308
1.52241
1.51713
1.51197
1.507
1.50249
1.4971
1.48905
1.48007
1.47003
1.48464
1.00018
1.00522
1.05408
1.2553
1.50922
1.82174
2.01754
2.0992
2.16668
2.15552
2.11954
2.09251
2.07457
2.04378
2.00272
1.96209
1.92262
1.88216
1.84206
1.80136
1.75971
1.7217
1.68437
1.65228
1.63194
1.61035
1.58124
1.54711
1.51551
1.48734
1.46381
1.4432
1.41946
1.39616
1.38353
1.3704
1.34907
1.32309
1.29715
1.27877
1.26751
1.25704
1.24202
1.22755
1.21227
1.19808
1.19986
1.22842
1.34287
1.49879
1.67276
1.81974
1.87268
1.89663
1.90555
1.89005
1.8638
1.84382
1.83408
1.82523
1.81258
1.79517
1.77758
1.7635
1.75156
1.74029
1.72798
1.71597
1.70356
1.69069
1.67909
1.66884
1.66179
1.65653
1.64987
1.6398
1.62627
1.6115
1.60105
1.5932
1.58596
1.57841
1.56884
1.55776
1.54704
1.53719
1.5303
1.52422
1.51798
1.51109
1.50436
1.49861
1.49041
1.48045
1.47011
1.4799
1.00982
1.09917
1.27537
1.4622
1.50216
1.64653
1.82346
1.95974
2.0778
2.12177
2.11866
2.1038
2.07476
2.0316
1.99176
1.95447
1.91619
1.87803
1.83987
1.79877
1.75734
1.72042
1.68792
1.65594
1.62155
1.58915
1.56095
1.53513
1.50961
1.48246
1.45676
1.43617
1.42145
1.40407
1.37811
1.34994
1.33079
1.31675
1.29882
1.27909
1.26335
1.25323
1.24085
1.22624
1.21244
1.21466
1.26458
1.36984
1.50004
1.5346
1.59324
1.69841
1.75346
1.81381
1.84801
1.86387
1.86443
1.85775
1.8454
1.82938
1.81404
1.80207
1.78842
1.77304
1.75605
1.7396
1.72513
1.71357
1.7062
1.6986
1.68823
1.67681
1.66475
1.65263
1.64197
1.63096
1.61968
1.611
1.60303
1.59444
1.58565
1.57699
1.56787
1.55596
1.54259
1.53261
1.52542
1.51906
1.51228
1.504
1.49748
1.49403
1.49294
1.4869
1.48818
1.52627
1.13009
1.34554
1.49009
1.55258
1.55005
1.5556
1.59067
1.68806
1.87035
2.06088
2.12707
2.11459
2.06884
2.0179
1.98477
1.9551
1.91929
1.87717
1.83171
1.78701
1.74695
1.71164
1.67893
1.64721
1.6143
1.58183
1.5536
1.53134
1.51211
1.49154
1.46638
1.43801
1.411
1.39077
1.37185
1.34728
1.32552
1.31508
1.3078
1.29413
1.27555
1.255
1.2424
1.23035
1.2451
1.331
1.45561
1.54646
1.58286
1.57709
1.57001
1.57874
1.60258
1.66353
1.7558
1.82839
1.86634
1.86628
1.85276
1.82961
1.81211
1.80143
1.79044
1.77446
1.75487
1.73617
1.72409
1.71607
1.70891
1.70067
1.69104
1.68089
1.66936
1.65572
1.64145
1.62982
1.62118
1.61362
1.60567
1.59736
1.58881
1.57883
1.5659
1.55237
1.542
1.53433
1.52743
1.52066
1.51317
1.50578
1.50162
1.49997
1.4995
1.50914
1.53456
1.59218
1.39413
1.50817
1.55045
1.57038
1.56973
1.56655
1.56698
1.57149
1.61007
1.78002
1.99313
2.04789
2.0424
2.02189
1.98935
1.95257
1.91071
1.86532
1.81924
1.7763
1.73835
1.7047
1.67279
1.64093
1.60977
1.5809
1.55364
1.52682
1.5022
1.48059
1.45866
1.4337
1.40477
1.37876
1.36277
1.34974
1.33408
1.3173
1.30086
1.28592
1.27325
1.25525
1.25641
1.30372
1.41684
1.54354
1.60078
1.61534
1.61148
1.60054
1.58335
1.57138
1.56276
1.56781
1.60991
1.69362
1.78232
1.83624
1.83509
1.83167
1.82612
1.81494
1.79893
1.77827
1.75775
1.73983
1.72851
1.72119
1.71461
1.70869
1.70206
1.69135
1.67531
1.65582
1.63966
1.63129
1.625
1.61858
1.61198
1.60483
1.59603
1.58236
1.56416
1.55015
1.54301
1.53824
1.53371
1.52796
1.51992
1.51605
1.51305
1.51687
1.53533
1.5721
1.61053
1.64524
1.53961
1.54871
1.56045
1.57031
1.57861
1.57732
1.57284
1.56669
1.55441
1.55983
1.66168
1.83846
1.98088
2.01064
1.9898
1.9418
1.89212
1.84706
1.80611
1.76804
1.73226
1.69872
1.66707
1.63676
1.60725
1.57864
1.55166
1.52641
1.5026
1.47823
1.45117
1.42417
1.40098
1.38056
1.35863
1.33915
1.32571
1.31542
1.3009
1.2901
1.27844
1.29267
1.37926
1.51241
1.61508
1.65441
1.65392
1.6437
1.62672
1.61067
1.59585
1.58149
1.56966
1.55946
1.55933
1.5751
1.63444
1.73611
1.80472
1.83558
1.83543
1.8242
1.80278
1.78363
1.76721
1.7529
1.74157
1.72971
1.71688
1.70696
1.70033
1.692
1.67696
1.65767
1.64471
1.63736
1.6306
1.62362
1.61674
1.60934
1.59901
1.58222
1.56358
1.55229
1.54469
1.53731
1.53147
1.52777
1.52804
1.5303
1.54138
1.56601
1.60851
1.64101
1.66245
1.67229
1.58138
1.57906
1.57539
1.57591
1.57747
1.5765
1.57227
1.56277
1.54184
1.51645
1.49041
1.52647
1.68019
1.85684
1.92381
1.91238
1.87662
1.83597
1.79639
1.75832
1.72226
1.68912
1.65871
1.62979
1.60135
1.57328
1.54638
1.51966
1.49435
1.47065
1.44788
1.42382
1.40052
1.37834
1.35795
1.34032
1.32601
1.31602
1.30654
1.31017
1.35443
1.47373
1.60627
1.67551
1.69467
1.6915
1.67566
1.65594
1.63982
1.62495
1.61057
1.59501
1.58134
1.56825
1.55719
1.55444
1.5596
1.59415
1.67886
1.75263
1.79937
1.80152
1.79603
1.79202
1.7814
1.76895
1.75408
1.73839
1.72455
1.71419
1.70558
1.69435
1.67821
1.6622
1.65127
1.64339
1.63646
1.63016
1.62432
1.61728
1.60389
1.58173
1.56357
1.55427
1.54818
1.54273
1.53912
1.53913
1.54749
1.5736
1.60876
1.64428
1.67118
1.67911
1.68521
1.68078
1.57415
1.57666
1.5806
1.5811
1.58024
1.57747
1.56771
1.54926
1.52139
1.48618
1.45253
1.4112
1.41844
1.51577
1.69571
1.83114
1.8462
1.82475
1.78505
1.74464
1.70793
1.67611
1.64704
1.61861
1.59067
1.56403
1.53975
1.51534
1.49084
1.4663
1.44158
1.41575
1.39489
1.37594
1.35996
1.3437
1.3354
1.33247
1.35063
1.4428
1.58077
1.68722
1.72658
1.72613
1.71705
1.70221
1.68459
1.668
1.65329
1.64014
1.62891
1.61489
1.59689
1.57882
1.566
1.55579
1.55054
1.54926
1.56377
1.61112
1.68816
1.75551
1.78234
1.79237
1.79242
1.77961
1.76334
1.74972
1.73632
1.72156
1.70665
1.69206
1.67734
1.66565
1.65774
1.65092
1.64422
1.63772
1.63047
1.61995
1.60322
1.58106
1.56521
1.55915
1.55528
1.55365
1.55568
1.57148
1.61254
1.65985
1.69446
1.70627
1.6998
1.69354
1.69
1.68287
1.58242
1.58317
1.58466
1.5839
1.5816
1.57253
1.55424
1.52319
1.48233
1.44789
1.4135
1.36795
1.32731
1.31509
1.36854
1.54148
1.71467
1.76939
1.75718
1.72435
1.68831
1.65639
1.62843
1.60274
1.57767
1.55423
1.53208
1.50893
1.48328
1.45919
1.43631
1.41482
1.39811
1.38281
1.37207
1.3592
1.36311
1.42075
1.55653
1.69306
1.75046
1.7701
1.76697
1.75065
1.731
1.71269
1.69535
1.68001
1.66746
1.65543
1.642
1.62434
1.60457
1.58676
1.57402
1.56208
1.55282
1.54473
1.54043
1.54131
1.55972
1.6241
1.69918
1.74906
1.7744
1.7757
1.77164
1.76157
1.74629
1.72643
1.70655
1.69018
1.67711
1.66809
1.66218
1.6562
1.6492
1.64141
1.63261
1.62091
1.60407
1.58132
1.56838
1.56536
1.56578
1.57226
1.60054
1.65362
1.70898
1.73495
1.74051
1.7356
1.71782
1.69965
1.6922
1.68293
1.58228
1.58167
1.58047
1.57762
1.57012
1.5515
1.51938
1.47471
1.43952
1.40279
1.35282
1.30444
1.28336
1.26087
1.22807
1.2558
1.40365
1.59427
1.69744
1.69532
1.67401
1.64168
1.6109
1.58523
1.56078
1.54025
1.52109
1.50255
1.48158
1.46157
1.44162
1.42392
1.40841
1.39723
1.38902
1.41147
1.52733
1.69053
1.79004
1.80822
1.80132
1.78725
1.77244
1.75579
1.73988
1.72455
1.70924
1.69415
1.67911
1.66257
1.64526
1.62699
1.60898
1.59324
1.58067
1.5698
1.55986
1.55026
1.53934
1.5308
1.51685
1.5218
1.56196
1.63769
1.71085
1.75961
1.76484
1.76206
1.75203
1.72965
1.70658
1.69041
1.67927
1.67006
1.6629
1.65768
1.65134
1.64301
1.63273
1.62033
1.60492
1.58289
1.57631
1.57742
1.589
1.62626
1.68576
1.74258
1.76008
1.75831
1.75162
1.74092
1.72628
1.70776
1.69543
1.68393
1.58005
1.5785
1.57543
1.56935
1.54843
1.51228
1.46828
1.42479
1.38369
1.32979
1.2856
1.26654
1.24246
1.19521
1.15337
1.14101
1.16187
1.27753
1.48322
1.62035
1.6428
1.62716
1.59805
1.57313
1.55088
1.5339
1.52096
1.50541
1.48763
1.47138
1.45468
1.4387
1.42328
1.42759
1.49135
1.64663
1.80788
1.86783
1.85807
1.84119
1.81589
1.79324
1.77521
1.75952
1.74526
1.73201
1.71935
1.70425
1.68632
1.66609
1.64478
1.62617
1.61046
1.59792
1.58701
1.57673
1.56584
1.55515
1.54313
1.52863
1.51313
1.49617
1.49431
1.51763
1.58166
1.66708
1.71977
1.73681
1.73497
1.72548
1.70787
1.69387
1.68353
1.67291
1.66301
1.65435
1.64593
1.63753
1.62823
1.61849
1.60717
1.59396
1.59626
1.61509
1.65581
1.71173
1.75538
1.77543
1.77626
1.76948
1.75445
1.7403
1.72905
1.71403
1.6997
1.6857
1.57622
1.57292
1.56662
1.54411
1.50506
1.4619
1.40919
1.35189
1.30928
1.27333
1.2395
1.20981
1.16611
1.11292
1.10821
1.10592
1.09435
1.103
1.1923
1.39295
1.55213
1.60236
1.59444
1.57569
1.55427
1.53523
1.52544
1.51421
1.50248
1.4894
1.47514
1.46179
1.48439
1.60267
1.77617
1.89118
1.90471
1.89462
1.86835
1.84333
1.82179
1.80114
1.78185
1.76517
1.75089
1.73558
1.72223
1.71037
1.693
1.66895
1.64388
1.62451
1.61115
1.60139
1.59252
1.58371
1.57416
1.56333
1.54929
1.53191
1.51272
1.49458
1.48371
1.47915
1.48766
1.53574
1.60635
1.67693
1.70425
1.71079
1.70794
1.69839
1.6867
1.67418
1.66186
1.64887
1.63627
1.62835
1.62231
1.61906
1.61982
1.63064
1.66321
1.70839
1.7483
1.77433
1.77737
1.77741
1.77223
1.76425
1.75465
1.7421
1.7295
1.71737
1.70583
1.68935
1.56992
1.56283
1.53998
1.49853
1.45283
1.39471
1.31992
1.28259
1.25163
1.20569
1.16708
1.13688
1.09643
1.06917
1.06895
1.06381
1.04943
1.04355
1.05177
1.12809
1.32467
1.51502
1.58448
1.57974
1.56714
1.54845
1.54034
1.53177
1.52349
1.51165
1.51455
1.57135
1.73676
1.89143
1.95506
1.94754
1.92389
1.88888
1.86168
1.8417
1.82542
1.80715
1.78839
1.7705
1.75739
1.74576
1.72946
1.70786
1.68491
1.66518
1.64749
1.63168
1.61737
1.60486
1.59418
1.58385
1.57275
1.56016
1.54446
1.5277
1.51405
1.50056
1.48781
1.47505
1.46999
1.47358
1.49611
1.55136
1.6206
1.66559
1.68683
1.68975
1.68368
1.67419
1.66152
1.64501
1.63017
1.62412
1.6236
1.63188
1.66368
1.71233
1.76244
1.79236
1.80464
1.80082
1.789
1.77185
1.75845
1.7496
1.74215
1.73327
1.72365
1.71597
1.71012
1.69621
1.55706
1.53751
1.4932
1.44026
1.38158
1.29855
1.24657
1.21952
1.1686
1.11986
1.10778
1.0897
1.05628
1.0522
1.05514
1.05156
1.04379
1.04049
1.04139
1.04669
1.10313
1.28724
1.51061
1.57874
1.57866
1.57307
1.56325
1.55295
1.54274
1.55896
1.6584
1.85086
1.98325
1.98288
1.97199
1.9427
1.91175
1.88428
1.85927
1.84318
1.83278
1.81848
1.8018
1.78447
1.76401
1.74047
1.7191
1.6984
1.67874
1.66256
1.65022
1.63893
1.62767
1.61669
1.60442
1.59127
1.57658
1.55976
1.54368
1.52818
1.5134
1.50115
1.4905
1.4803
1.46991
1.46214
1.45623
1.46369
1.50229
1.56745
1.62515
1.66352
1.67382
1.67089
1.65993
1.646
1.63176
1.62988
1.64243
1.68766
1.74285
1.79403
1.81226
1.81259
1.80996
1.8017
1.78724
1.76899
1.75259
1.74112
1.73423
1.72857
1.72277
1.71809
1.7139
1.7014
1.53504
1.49226
1.42689
1.36151
1.28122
1.20813
1.17251
1.13306
1.07717
1.05934
1.05372
1.04082
1.03828
1.04195
1.05066
1.05094
1.04827
1.05026
1.05666
1.06459
1.07319
1.11443
1.288
1.4982
1.58479
1.58318
1.58127
1.5852
1.6219
1.75683
1.93362
2.02543
2.03146
2.01115
1.96677
1.93039
1.906
1.88698
1.86685
1.84857
1.83094
1.81305
1.79527
1.77733
1.75799
1.73619
1.71477
1.69493
1.67786
1.66607
1.65587
1.64485
1.6323
1.6167
1.59871
1.58248
1.56891
1.555
1.54055
1.52702
1.51657
1.50796
1.49795
1.48721
1.47497
1.4607
1.44632
1.43627
1.4383
1.45868
1.51353
1.5823
1.63622
1.65295
1.65213
1.6494
1.65644
1.67705
1.71852
1.77539
1.80642
1.82565
1.82911
1.82492
1.81346
1.79847
1.78437
1.76693
1.74924
1.73808
1.73158
1.72615
1.72122
1.71717
1.71267
1.70058
1.49441
1.4104
1.33277
1.24532
1.15507
1.13564
1.11998
1.07895
1.05657
1.05473
1.0512
1.05171
1.05643
1.06546
1.06977
1.07087
1.07276
1.07763
1.08427
1.09261
1.09442
1.09666
1.12291
1.28146
1.49402
1.55558
1.62827
1.72636
1.8638
1.97148
2.04523
2.03857
2.01213
1.98331
1.9557
1.93273
1.91544
1.89941
1.88251
1.86342
1.84199
1.82012
1.79789
1.77635
1.75589
1.73673
1.71908
1.70305
1.69113
1.68119
1.67002
1.65743
1.6427
1.62466
1.60366
1.58269
1.56767
1.55653
1.54583
1.53711
1.52989
1.52207
1.51268
1.5016
1.48698
1.46727
1.44584
1.42839
1.42134
1.42311
1.43599
1.47861
1.54936
1.61266
1.64882
1.69227
1.74048
1.76781
1.79984
1.81631
1.8242
1.82655
1.82318
1.81507
1.80453
1.79384
1.78307
1.76674
1.74819
1.73877
1.73304
1.72911
1.72571
1.72131
1.71633
1.70405
1.39667
1.23552
1.11321
0.992128
0.974421
1.00389
1.02716
1.02025
1.02522
1.04557
1.06623
1.08093
1.10168
1.11361
1.1134
1.108
1.1025
1.10432
1.10908
1.11587
1.11702
1.11488
1.1104
1.13096
1.26606
1.5148
1.74971
1.97417
2.1406
2.18747
2.14087
2.05818
1.99663
1.96517
1.9485
1.92907
1.90961
1.8928
1.87648
1.85816
1.83677
1.81392
1.79163
1.7697
1.74786
1.72657
1.70771
1.69336
1.68345
1.67388
1.66261
1.64942
1.63422
1.61683
1.59714