/*--------------------------------*- C++ -*----------------------------------*\
  =========                 |
  \\      /  F ield         | OpenFOAM: The Open Source CFD Toolbox
   \\    /   O peration     | Website:  https://openfoam.org
    \\  /    A nd           | Version:  7
     \\/     M anipulation  |
\*---------------------------------------------------------------------------*/
FoamFile
{
    version     2.0;
    format      ascii;
    class       volVectorField;
    location    "3.7";
    object      U;
}
// * * * * * * * * * * * * * * * * * * * * * * * * * * * * * * * * * * * * * //

dimensions      [0 1 -1 0 0 0 0];

internalField   nonuniform List<vector> 
4608
(
(3 2.41649e-18 0)
(3 1.72828e-17 0)
(3 -5.29877e-17 0)
(3 -1.09697e-17 0)
(3 8.25603e-17 0)
(3 3.18221e-17 0)
(3 3.36492e-16 0)
(3 3.46364e-16 0)
(3 2.37293e-16 0)
(3 -1.33009e-16 0)
(3 -2.37489e-16 0)
(3 -3.05696e-17 0)
(3 -1.25615e-16 0)
(3 -6.22981e-16 0)
(3 -9.28701e-16 0)
(3 -1.21928e-15 0)
(3 -1.06541e-15 0)
(3 -1.20254e-15 0)
(3 -1.05308e-15 0)
(3 -3.36817e-16 0)
(3 2.68599e-16 0)
(3 1.56896e-16 0)
(3 3.81926e-16 0)
(3 2.44713e-16 0)
(3 -1.96193e-17 0)
(3 -1.06379e-16 0)
(3 -1.28463e-16 0)
(3 -3.33533e-16 0)
(3 -1.74433e-16 0)
(3 -1.58439e-16 0)
(3 4.39779e-17 0)
(3 6.28436e-17 0)
(3 3.45135e-16 0)
(3 -6.75278e-17 0)
(3 -4.71942e-16 0)
(3 8.98012e-17 0)
(3 -2.3102e-16 0)
(3 -3.14296e-16 0)
(3 -9.92515e-16 0)
(3 -8.39793e-16 0)
(3 -1.78108e-15 0)
(3 -2.04981e-15 0)
(3 -1.55064e-15 0)
(3 -9.4371e-16 0)
(3 -5.91531e-16 0)
(3 -1.39066e-16 0)
(3 8.39823e-16 0)
(3 4.63468e-16 0)
(3 -6.82819e-17 0)
(3 -1.80162e-16 0)
(3 -1.48374e-16 0)
(3 -1.30165e-16 0)
(3 -3.63497e-16 0)
(3 -8.22858e-16 0)
(3 -6.5312e-16 0)
(3 -5.1193e-16 0)
(3 5.77934e-17 0)
(3 1.4491e-16 0)
(3 1.55878e-16 0)
(3 3.08348e-16 0)
(3 -1.3578e-16 0)
(3 1.01258e-16 0)
(3 -4.33535e-16 0)
(3 -6.8309e-16 0)
(3 -3.51585e-16 0)
(3 4.79061e-16 0)
(3 1.98369e-17 0)
(3 -8.66385e-16 0)
(3 -1.73515e-15 0)
(3 -1.5637e-15 0)
(3 -8.41227e-16 0)
(3 -8.58622e-16 0)
(3 -3.02817e-16 0)
(3 -3.90468e-16 0)
(3 -3.41883e-16 0)
(3 -1.47951e-16 0)
(3 -4.78957e-16 0)
(3 -9.86833e-16 0)
(3 -7.16582e-16 0)
(3 -1.25392e-16 0)
(3 -4.90736e-16 0)
(3 -1.98235e-16 0)
(3 4.01418e-16 0)
(3 -3.24655e-16 0)
(3 -1.3806e-16 0)
(3 -8.51618e-16 0)
(3 -1.26554e-15 0)
(3 -1.94945e-15 0)
(3 -1.17983e-15 0)
(3 2.73356e-17 0)
(3 1.09895e-16 0)
(3 -6.54992e-16 0)
(3 -8.54147e-16 0)
(3 -1.04766e-15 0)
(3 -1.19981e-15 0)
(3 -1.49018e-15 0)
(3 -1.10566e-16 0)
(3 -4.7909e-17 0)
(3 2.94975e-16 0)
(3 9.97955e-17 0)
(3 -1.66943e-16 0)
(3 -4.7006e-16 0)
(3 -2.26257e-16 0)
(3 1.86159e-16 0)
(3 1.78399e-16 0)
(3 -9.04448e-17 0)
(3 3.53018e-16 0)
(3 -1.18724e-16 0)
(3 -7.49247e-16 0)
(3 -1.33282e-15 0)
(3 -1.51783e-15 0)
(3 -1.353e-15 0)
(3 -6.5327e-16 0)
(3 -2.55408e-16 0)
(3 3.2931e-18 0)
(3 -1.3888e-16 0)
(3 2.80308e-16 0)
(3 8.29822e-16 0)
(3 2.26072e-16 0)
(3 -1.09575e-15 0)
(3 3.0237e-16 0)
(3 3.71033e-16 0)
(3 2.34518e-16 0)
(3 5.64555e-17 0)
(3 -1.98219e-16 0)
(3 -4.95805e-16 0)
(3 -7.04504e-16 0)
(3 -5.05101e-16 0)
(3 9.43379e-16 0)
(3 1.24836e-15 0)
(3 1.23034e-15 0)
(3 6.69431e-16 0)
(3 -5.61324e-16 0)
(3 -7.47141e-16 0)
(3 -4.42059e-16 0)
(3 1.23784e-16 0)
(3 5.25908e-16 0)
(3 6.05519e-16 0)
(3 1.10207e-15 0)
(3 1.56837e-15 0)
(3 1.12976e-15 0)
(3 1.30765e-15 0)
(3 1.36847e-16 0)
(3 -7.25999e-16 0)
(3 2.44724e-16 0)
(3 -5.2773e-17 0)
(3 -2.04463e-16 0)
(3 6.95449e-17 0)
(3 8.94938e-17 0)
(3 3.77221e-16 0)
(3 -7.29061e-17 0)
(3 -1.22138e-15 0)
(3 -2.2991e-16 0)
(3 1.26394e-15 0)
(3 1.64204e-15 0)
(3 -3.8798e-16 0)
(3 -1.19466e-15 0)
(3 -6.97276e-16 0)
(3 -7.33107e-16 0)
(3 -6.03885e-16 0)
(3 -2.50137e-16 0)
(3 2.02029e-16 0)
(3 1.30446e-16 0)
(3 1.24412e-15 0)
(3 1.51783e-15 0)
(3 1.36229e-15 0)
(3 9.21633e-16 0)
(3 -9.83253e-16 0)
(3 -1.54199e-16 0)
(3 -2.11944e-16 0)
(3 -1.23587e-16 0)
(3 1.02049e-16 0)
(3 4.74498e-16 0)
(3 6.47365e-16 0)
(3 1.04238e-16 0)
(3 -4.07127e-16 0)
(3 -1.69391e-16 0)
(3 4.43259e-16 0)
(3 3.65062e-16 0)
(3 -1.50182e-15 0)
(3 -2.69964e-15 0)
(3 -1.5047e-15 0)
(3 -6.10307e-16 0)
(3 -4.12176e-16 0)
(3 -2.45861e-16 0)
(3 -1.61168e-16 0)
(3 1.13878e-15 0)
(3 2.69341e-15 0)
(3 3.03678e-15 0)
(3 2.15441e-15 0)
(3 6.51458e-16 0)
(3 -5.06396e-16 0)
(3 -1.92348e-16 0)
(3 -4.70369e-16 0)
(3 -6.59387e-16 0)
(3 -8.58554e-16 0)
(3 -4.55588e-16 0)
(3 -4.81566e-16 0)
(3 -4.51475e-16 0)
(3 1.46889e-16 0)
(3 7.47663e-16 0)
(3 3.94773e-16 0)
(3 -3.36071e-16 0)
(3 -5.1975e-16 0)
(3 -1.38926e-15 0)
(3 -1.73843e-15 0)
(3 -1.76919e-16 0)
(3 -1.25892e-16 0)
(3 -5.35343e-16 0)
(3 -1.23691e-15 0)
(3 -1.30734e-16 0)
(3 -2.63373e-16 0)
(3 4.36679e-16 0)
(3 5.08054e-16 0)
(3 8.13916e-17 0)
(3 6.34471e-16 0)
(3 9.33403e-17 0)
(3 7.79663e-17 0)
(3 -2.47521e-17 0)
(3 -3.00305e-16 0)
(3 -3.16632e-16 0)
(3 -2.49082e-16 0)
(3 1.03756e-18 0)
(3 5.06956e-16 0)
(3 -4.44196e-16 0)
(3 -1.26986e-15 0)
(3 -7.66591e-16 0)
(3 -1.63822e-16 0)
(3 1.58145e-16 0)
(3 -2.07873e-16 0)
(3 -7.48152e-16 0)
(3 -6.37129e-16 0)
(3 -5.11079e-16 0)
(3 -6.93315e-16 0)
(3 -1.51579e-15 0)
(3 -2.11109e-15 0)
(3 -2.38687e-15 0)
(3 -9.10775e-16 0)
(3 1.37072e-15 0)
(3 1.65809e-15 0)
(3 1.07249e-16 0)
(3 3.4712e-16 0)
(3 5.98703e-16 0)
(3 4.12854e-16 0)
(3 3.06502e-17 0)
(3 -1.24066e-16 0)
(3 -9.78564e-16 0)
(3 -1.4043e-15 0)
(3 -1.60281e-15 0)
(3 -1.38942e-15 0)
(3 -9.27745e-16 0)
(3 -3.89507e-16 0)
(3 4.49627e-16 0)
(3 9.27796e-16 0)
(3 1.12536e-15 0)
(3 5.30097e-16 0)
(3 8.25269e-16 0)
(3 8.27629e-16 0)
(3 3.03139e-16 0)
(3 -6.42461e-16 0)
(3 -1.1118e-15 0)
(3 -9.98581e-16 0)
(3 1.5901e-15 0)
(3 2.33334e-15 0)
(3 -9.66956e-17 0)
(3 -2.96798e-16 0)
(3 -2.37389e-16 0)
(3 1.73599e-16 0)
(3 1.71488e-16 0)
(3 -1.66444e-16 0)
(3 -1.0208e-15 0)
(3 -1.51512e-15 0)
(3 -7.3187e-16 0)
(3 -2.90708e-16 0)
(3 5.92235e-17 0)
(3 5.92628e-17 0)
(3 3.52325e-16 0)
(3 7.2712e-16 0)
(3 1.46309e-15 0)
(3 2.05023e-15 0)
(3 1.40423e-15 0)
(3 9.59051e-16 0)
(3 5.78416e-16 0)
(3 8.89642e-16 0)
(3 4.21808e-16 0)
(3 -3.20708e-16 0)
(3 2.57002e-16 0)
(3 1.49735e-15 0)
(3 4.33327e-17 0)
(3 5.79837e-18 0)
(3 2.2774e-17 0)
(3 1.34111e-16 0)
(3 3.46801e-18 0)
(3 2.77154e-17 0)
(3 -1.7861e-17 0)
(3 -1.45889e-16 0)
(3 -1.98839e-16 0)
(3 -1.99513e-16 0)
(3 -1.19045e-16 0)
(3 -2.29177e-16 0)
(3 -1.18228e-16 0)
(3 6.04385e-16 0)
(3 1.1625e-15 0)
(3 1.37099e-15 0)
(3 1.04474e-15 0)
(3 1.31668e-15 0)
(3 1.75777e-15 0)
(3 2.04651e-15 0)
(3 1.86497e-15 0)
(3 6.21091e-16 0)
(3 2.11944e-16 0)
(3 6.06865e-16 0)
(3 8.12342e-17 0)
(3 4.81001e-16 0)
(3 5.45551e-16 0)
(3 3.92621e-16 0)
(3 1.12863e-17 0)
(3 -2.04169e-16 0)
(3 5.98554e-17 0)
(3 -1.00044e-16 0)
(3 -3.32833e-16 0)
(3 -1.98982e-16 0)
(3 -3.10795e-16 0)
(3 -1.60002e-16 0)
(3 1.54539e-16 0)
(3 8.66957e-16 0)
(3 9.22707e-16 0)
(3 6.59506e-16 0)
(3 7.28137e-16 0)
(3 1.25176e-15 0)
(3 1.61277e-15 0)
(3 9.47029e-16 0)
(3 4.7001e-16 0)
(3 4.48417e-16 0)
(3 1.55359e-15 0)
(3 2.23478e-15 0)
(3 1.80034e-17 0)
(3 9.70263e-17 0)
(3 8.24498e-17 0)
(3 1.81869e-16 0)
(3 6.71718e-16 0)
(3 8.60518e-16 0)
(3 8.19028e-16 0)
(3 5.22514e-16 0)
(3 4.33658e-16 0)
(3 5.10529e-16 0)
(3 1.34734e-15 0)
(3 1.36327e-15 0)
(3 1.15438e-15 0)
(3 2.09373e-16 0)
(3 -2.1818e-16 0)
(3 4.23333e-16 0)
(3 7.92323e-16 0)
(3 3.82693e-16 0)
(3 -3.09823e-16 0)
(3 -1.39662e-15 0)
(3 -1.2539e-15 0)
(3 3.85731e-16 0)
(3 7.08351e-16 0)
(3 7.24826e-16 0)
(3 -6.44088e-17 0)
(3 -8.16455e-18 0)
(3 -1.69446e-16 0)
(3 -3.3828e-16 0)
(3 -2.00168e-16 0)
(3 4.69854e-16 0)
(3 7.46734e-16 0)
(3 8.68406e-16 0)
(3 5.36926e-16 0)
(3 1.34768e-16 0)
(3 -2.35981e-16 0)
(3 -1.21665e-16 0)
(3 -5.41353e-18 0)
(3 2.49048e-16 0)
(3 -3.18335e-16 0)
(3 -5.57222e-16 0)
(3 -5.70162e-17 0)
(3 -2.31979e-16 0)
(3 -1.19911e-15 0)
(3 -1.4513e-15 0)
(3 -6.40287e-16 0)
(3 -8.68484e-16 0)
(3 -1.78823e-15 0)
(3 -1.72359e-15 0)
(3 2.04847e-17 0)
(3 -3.5624e-16 0)
(3 -5.01584e-16 0)
(3 -8.24827e-16 0)
(3 -7.5436e-16 0)
(3 -2.85406e-16 0)
(3 -1.04793e-16 0)
(3 3.23582e-17 0)
(3 -2.00165e-16 0)
(3 -6.24541e-16 0)
(3 -1.44652e-15 0)
(3 -2.71985e-16 0)
(3 9.47443e-16 0)
(3 7.19007e-16 0)
(3 4.53908e-16 0)
(3 -2.43217e-18 0)
(3 -9.20967e-16 0)
(3 -1.6045e-15 0)
(3 -1.48008e-15 0)
(3 -1.28998e-15 0)
(3 -1.36542e-15 0)
(3 -1.88784e-15 0)
(3 -2.41106e-15 0)
(3 -2.40943e-15 0)
(3 -4.05728e-17 0)
(3 -3.33786e-16 0)
(3 -2.30673e-16 0)
(3 -1.60312e-16 0)
(3 -2.08946e-17 0)
(3 -2.2491e-18 0)
(3 1.89986e-16 0)
(3 3.79105e-16 0)
(3 3.8237e-16 0)
(3 6.89911e-17 0)
(3 2.68288e-16 0)
(3 9.88667e-16 0)
(3 7.75723e-16 0)
(3 -1.87257e-16 0)
(3 -3.23483e-16 0)
(3 -5.97666e-16 0)
(3 -1.22145e-15 0)
(3 -1.43268e-15 0)
(3 -9.73514e-16 0)
(3 -6.02738e-16 0)
(3 -1.12945e-15 0)
(3 -1.53963e-15 0)
(3 -1.84e-15 0)
(3 -2.41221e-15 0)
(3 -6.30442e-17 0)
(3 3.09923e-16 0)
(3 3.42544e-16 0)
(3 5.65584e-16 0)
(3 7.0111e-16 0)
(3 4.36691e-16 0)
(3 4.86003e-16 0)
(3 6.50886e-16 0)
(3 7.76086e-16 0)
(3 1.17545e-15 0)
(3 1.172e-15 0)
(3 5.41966e-16 0)
(3 1.83546e-16 0)
(3 1.9016e-16 0)
(3 -1.00183e-15 0)
(3 -9.31581e-16 0)
(3 -3.2247e-16 0)
(3 2.87815e-16 0)
(3 2.8074e-16 0)
(3 2.76626e-16 0)
(3 2.2314e-16 0)
(3 6.97691e-17 0)
(3 5.01811e-16 0)
(3 -1.81229e-16 0)
(3 4.72635e-17 0)
(3 2.26076e-16 0)
(3 2.07489e-16 0)
(3 1.34131e-16 0)
(3 4.78207e-17 0)
(3 2.21679e-16 0)
(3 1.43277e-16 0)
(3 -3.74986e-16 0)
(3 -2.31162e-16 0)
(3 1.99933e-17 0)
(3 3.80703e-17 0)
(3 -4.58472e-16 0)
(3 -4.35795e-16 0)
(3 -5.7903e-17 0)
(3 -1.28667e-17 0)
(3 6.32516e-16 0)
(3 9.5548e-16 0)
(3 1.0567e-15 0)
(3 8.65451e-16 0)
(3 7.59498e-16 0)
(3 3.77282e-16 0)
(3 7.88693e-16 0)
(3 8.23471e-16 0)
(3 9.29812e-16 0)
(3 -2.94292e-17 0)
(3 1.1049e-16 0)
(3 9.56307e-17 0)
(3 -1.27797e-16 0)
(3 -3.87087e-16 0)
(3 -2.33209e-16 0)
(3 -1.99076e-16 0)
(3 -6.76836e-16 0)
(3 -1.0687e-15 0)
(3 -1.12342e-15 0)
(3 -4.04989e-16 0)
(3 2.67182e-17 0)
(3 -1.18256e-15 0)
(3 -6.43897e-16 0)
(3 1.04975e-15 0)
(3 1.89311e-15 0)
(3 1.6429e-15 0)
(3 1.59481e-15 0)
(3 1.7123e-15 0)
(3 1.40085e-15 0)
(3 1.06056e-15 0)
(3 6.61555e-16 0)
(3 4.69736e-16 0)
(3 6.02575e-16 0)
(3 -2.08538e-16 0)
(3 -2.94968e-16 0)
(3 2.65902e-16 0)
(3 4.10212e-16 0)
(3 3.37045e-16 0)
(3 1.91252e-16 0)
(3 2.29129e-16 0)
(3 1.87291e-16 0)
(3 -9.76293e-17 0)
(3 -7.45215e-17 0)
(3 -1.13255e-16 0)
(3 2.59747e-17 0)
(3 1.69527e-16 0)
(3 3.29199e-16 0)
(3 2.90874e-16 0)
(3 2.39873e-16 0)
(3 3.23026e-16 0)
(3 7.67921e-16 0)
(3 1.2024e-15 0)
(3 1.04436e-15 0)
(3 1.31698e-15 0)
(3 8.83479e-16 0)
(3 5.36604e-16 0)
(3 -1.77276e-16 0)
(3 -6.4257e-18 0)
(3 -3.18863e-17 0)
(3 2.70366e-16 0)
(3 2.7756e-16 0)
(3 3.18176e-16 0)
(3 2.57229e-16 0)
(3 5.24212e-16 0)
(3 7.51133e-16 0)
(3 6.53755e-16 0)
(3 4.85284e-16 0)
(3 -2.77896e-16 0)
(3 2.4727e-17 0)
(3 1.09619e-15 0)
(3 5.43627e-16 0)
(3 -1.16146e-16 0)
(3 -6.1289e-16 0)
(3 -6.07718e-16 0)
(3 -4.49355e-16 0)
(3 4.58298e-18 0)
(3 4.67204e-16 0)
(3 4.66036e-16 0)
(3 8.21976e-16 0)
(3 1.91269e-16 0)
(3 -2.615e-16 0)
(3 -1.45796e-17 0)
(3 1.7978e-16 0)
(3 4.57485e-16 0)
(3 4.31721e-16 0)
(3 2.92285e-16 0)
(3 2.75403e-16 0)
(3 8.44345e-16 0)
(3 8.47255e-16 0)
(3 9.83839e-16 0)
(3 5.9536e-16 0)
(3 4.29854e-16 0)
(3 1.01349e-15 0)
(3 9.47044e-16 0)
(3 5.15777e-16 0)
(3 4.99533e-16 0)
(3 1.3183e-16 0)
(3 -3.75873e-16 0)
(3 -5.30626e-16 0)
(3 -8.44567e-16 0)
(3 -5.79095e-16 0)
(3 2.70824e-16 0)
(3 1.44939e-15 0)
(3 1.06581e-15 0)
(3 7.48923e-16 0)
(3 9.52138e-17 0)
(3 -2.22227e-16 0)
(3 -2.07565e-16 0)
(3 1.47002e-16 0)
(3 2.90387e-16 0)
(3 6.91113e-17 0)
(3 -2.66602e-16 0)
(3 9.93694e-18 0)
(3 6.29663e-16 0)
(3 1.01012e-15 0)
(3 1.60462e-15 0)
(3 9.02483e-16 0)
(3 6.84209e-17 0)
(3 -2.15326e-17 0)
(3 -1.36673e-16 0)
(3 -4.14186e-17 0)
(3 -5.55623e-16 0)
(3 -4.1835e-16 0)
(3 9.46834e-17 0)
(3 1.58245e-16 0)
(3 7.28642e-16 0)
(3 -2.7743e-16 0)
(3 -4.8219e-16 0)
(3 -4.81209e-16 0)
(3 2.23672e-16 0)
(3 1.5312e-16 0)
(3 -1.03222e-16 0)
(3 -1.87182e-16 0)
(3 -2.42007e-16 0)
(3 -6.00696e-16 0)
(3 -7.4041e-16 0)
(3 -4.34038e-16 0)
(3 -2.52722e-16 0)
(3 4.1867e-17 0)
(3 -1.34909e-16 0)
(3 -1.97464e-16 0)
(3 1.98909e-16 0)
(3 7.82948e-16 0)
(3 2.0842e-16 0)
(3 -1.04635e-16 0)
(3 -1.17626e-16 0)
(3 -1.6028e-16 0)
(3 -3.01315e-16 0)
(3 -3.00802e-16 0)
(3 -1.01445e-15 0)
(3 -1.50006e-15 0)
(3 -1.21004e-15 0)
(3 -4.92269e-16 0)
(3 -5.81334e-17 0)
(3 2.16657e-16 0)
(3 2.10564e-16 0)
(3 5.8199e-17 0)
(3 -4.15708e-17 0)
(3 -2.83807e-16 0)
(3 -6.22636e-16 0)
(3 -3.00666e-16 0)
(3 -4.48078e-16 0)
(3 -8.85474e-16 0)
(3 -1.79184e-15 0)
(3 -1.08991e-15 0)
(3 5.56778e-16 0)
(3 1.03362e-15 0)
(3 7.91908e-16 0)
(3 6.93006e-16 0)
(3 8.59549e-16 0)
(3 7.20109e-16 0)
(3 2.29938e-16 0)
(3 -3.7212e-17 0)
(3 -6.93212e-16 0)
(3 -1.44216e-16 0)
(3 -1.57148e-16 0)
(3 -1.06271e-16 0)
(3 -5.61998e-17 0)
(3 -2.48217e-16 0)
(3 -3.53019e-16 0)
(3 -2.95135e-16 0)
(3 -3.33055e-17 0)
(3 -2.61884e-16 0)
(3 -8.58023e-16 0)
(3 -8.60292e-16 0)
(3 -7.345e-16 0)
(3 -1.06745e-15 0)
(3 -1.35257e-15 0)
(3 -1.06013e-15 0)
(3 -4.36708e-16 0)
(3 -5.93501e-16 0)
(3 -8.02638e-17 0)
(3 -1.69061e-16 0)
(3 -2.32117e-16 0)
(3 3.96773e-16 0)
(3 -2.91956e-16 0)
(3 -5.19293e-16 0)
(3 7.00065e-16 0)
(3 1.41844e-15 0)
(3 1.44769e-15 0)
(3 1.35239e-15 0)
(3 2.39553e-17 0)
(3 -1.91986e-16 0)
(3 -5.13579e-16 0)
(3 -6.06446e-16 0)
(3 -7.60345e-16 0)
(3 -4.47273e-16 0)
(3 -2.63337e-16 0)
(3 -6.35789e-16 0)
(3 -4.97785e-16 0)
(3 -3.19754e-16 0)
(3 -5.66872e-16 0)
(3 -1.60189e-15 0)
(3 -1.61304e-15 0)
(3 -4.7821e-16 0)
(3 -2.03286e-16 0)
(3 -4.19168e-17 0)
(3 5.09086e-16 0)
(3 5.92536e-16 0)
(3 4.96765e-16 0)
(3 3.03091e-16 0)
(3 8.54032e-16 0)
(3 1.12641e-16 0)
(3 1.84092e-15 0)
(3 1.66761e-15 0)
(3 -2.77386e-16 0)
(3 -3.32894e-16 0)
(3 -2.01306e-16 0)
(3 -4.11516e-16 0)
(3 -4.56298e-16 0)
(3 -2.73176e-16 0)
(3 2.22235e-16 0)
(3 5.45927e-16 0)
(3 6.16237e-16 0)
(3 5.40428e-16 0)
(3 6.96942e-16 0)
(3 2.82086e-16 0)
(3 -1.72518e-16 0)
(3 1.22166e-15 0)
(3 1.37705e-15 0)
(3 1.51733e-15 0)
(3 1.12874e-15 0)
(3 8.48452e-16 0)
(3 1.49831e-15 0)
(3 2.09801e-15 0)
(3 8.38927e-16 0)
(3 -1.25891e-15 0)
(3 -7.89236e-16 0)
(3 4.31745e-16 0)
(3 -1.63324e-16 0)
(3 -6.78864e-16 0)
(3 -5.11014e-16 0)
(3 -1.74467e-16 0)
(3 7.07597e-17 0)
(3 9.49682e-18 0)
(3 3.8549e-16 0)
(3 6.30382e-16 0)
(3 4.59615e-16 0)
(3 -1.79267e-16 0)
(3 5.15418e-16 0)
(3 1.46888e-15 0)
(3 1.98676e-15 0)
(3 1.56434e-15 0)
(3 1.48942e-15 0)
(3 1.01546e-15 0)
(3 6.67913e-16 0)
(3 8.88005e-16 0)
(3 1.41081e-15 0)
(3 1.72629e-15 0)
(3 1.25312e-16 0)
(3 -1.91366e-16 0)
(3 -5.99167e-16 0)
(3 -8.10372e-16 0)
(3 -2.78315e-17 0)
(3 -1.65528e-16 0)
(3 -3.2251e-16 0)
(3 -1.39047e-16 0)
(3 2.03277e-17 0)
(3 1.80312e-18 0)
(3 -2.36532e-17 0)
(3 -5.79537e-17 0)
(3 -2.86773e-16 0)
(3 -8.73493e-16 0)
(3 -1.44542e-16 0)
(3 7.2876e-16 0)
(3 1.42386e-15 0)
(3 1.47165e-15 0)
(3 9.19445e-16 0)
(3 -3.96283e-17 0)
(3 2.21324e-16 0)
(3 5.07864e-16 0)
(3 1.12281e-15 0)
(3 1.28013e-15 0)
(3 4.42332e-16 0)
(3 7.57381e-16 0)
(3 6.87006e-16 0)
(3 3.73574e-16 0)
(2.93148 0.0359578 0)
(2.85342 0.0435894 0)
(2.75341 0.148528 0)
(2.66554 0.247379 0)
(2.58642 0.338011 0)
(2.49164 0.451376 0)
(2.42722 0.543037 0)
(2.35113 0.626838 0)
(2.31053 0.721045 0)
(2.25703 0.799873 0)
(2.2498 0.856265 0)
(2.28567 0.885379 0)
(2.32497 0.900917 0)
(2.33441 0.887081 0)
(2.3443 0.881777 0)
(2.3475 0.865819 0)
(2.35002 0.85695 0)
(2.34801 0.852527 0)
(2.34245 0.85061 0)
(2.33909 0.850221 0)
(2.33917 0.849464 0)
(2.33972 0.848623 0)
(2.33924 0.848627 0)
(2.33775 0.849326 0)
(2.99844 0.0016848 0)
(2.99102 0.0110824 0)
(2.96137 0.0475614 0)
(2.89933 0.134669 0)
(2.80937 0.26953 0)
(2.67233 0.469456 0)
(2.53634 0.682139 0)
(2.39163 0.897972 0)
(2.21401 1.07536 0)
(2.16278 1.1008 0)
(2.14235 1.04416 0)
(2.19823 0.999668 0)
(2.24052 0.949184 0)
(2.30033 0.902301 0)
(2.33094 0.860314 0)
(2.34737 0.826687 0)
(2.35636 0.830033 0)
(2.35976 0.839458 0)
(2.35305 0.847125 0)
(2.34822 0.848626 0)
(2.34363 0.849077 0)
(2.34354 0.848314 0)
(2.3426 0.847693 0)
(2.34054 0.848805 0)
(3 4.89709e-07 0)
(3.00002 -9.12087e-06 0)
(2.99998 -3.99113e-05 0)
(2.99982 0.000253847 0)
(2.99868 0.0018001 0)
(2.99104 0.0131211 0)
(2.96617 0.052777 0)
(2.89943 0.171638 0)
(2.76108 0.424484 0)
(2.6151 0.684763 0)
(2.43711 0.85738 0)
(2.33285 0.928089 0)
(2.29778 0.91486 0)
(2.30478 0.900429 0)
(2.30549 0.898827 0)
(2.34094 0.867326 0)
(2.35819 0.851115 0)
(2.36236 0.854152 0)
(2.35895 0.849704 0)
(2.3552 0.849208 0)
(2.35084 0.849563 0)
(2.35008 0.849264 0)
(2.35026 0.84857 0)
(2.34598 0.850121 0)
(3 -5.8711e-10 0)
(3 -7.65086e-07 0)
(3 -1.76421e-06 0)
(3 -1.6436e-06 0)
(3 -8.72493e-06 0)
(2.99999 2.38198e-05 0)
(3.00002 -5.30033e-05 0)
(2.99936 0.000920895 0)
(2.98796 0.0212264 0)
(2.92428 0.136558 0)
(2.68802 0.484353 0)
(2.48225 0.739068 0)
(2.36113 0.87516 0)
(2.28155 0.960767 0)
(2.2746 0.95584 0)
(2.29972 0.921946 0)
(2.33112 0.876214 0)
(2.35043 0.855326 0)
(2.35653 0.847429 0)
(2.36083 0.839228 0)
(2.36112 0.840669 0)
(2.35875 0.844654 0)
(2.35703 0.846699 0)
(2.35286 0.847136 0)
(3 -1.28739e-10 0)
(3 2.482e-09 0)
(3 -7.87113e-08 0)
(3 -1.52996e-07 0)
(3 -6.14346e-07 0)
(3 -6.42989e-07 0)
(3 -4.87099e-06 0)
(3 -5.57767e-06 0)
(3.00003 -5.90017e-05 0)
(2.99944 0.000659336 0)
(2.9826 0.0224147 0)
(2.87591 0.163899 0)
(2.67487 0.45247 0)
(2.35785 0.82267 0)
(2.34984 0.845125 0)
(2.30712 0.880911 0)
(2.30993 0.876992 0)
(2.32621 0.870765 0)
(2.3487 0.85369 0)
(2.35819 0.842963 0)
(2.36062 0.841324 0)
(2.36154 0.840152 0)
(2.35954 0.843177 0)
(2.35341 0.845689 0)
(3 -1.28029e-12 0)
(3 1.24806e-10 0)
(3 3.396e-10 0)
(3 -1.15685e-09 0)
(3 -8.55203e-10 0)
(3 -3.29283e-08 0)
(3 -7.8951e-08 0)
(3 -3.27819e-07 0)
(3 -6.05224e-06 0)
(3 -5.51771e-06 0)
(3.00003 -5.63262e-05 0)
(2.99886 0.00152533 0)
(2.97163 0.0363546 0)
(2.79554 0.250062 0)
(2.63609 0.507705 0)
(2.32363 0.851775 0)
(2.24619 0.910375 0)
(2.29377 0.885535 0)
(2.3123 0.8767 0)
(2.32196 0.866879 0)
(2.34191 0.854915 0)
(2.35078 0.847153 0)
(2.35164 0.841801 0)
(2.34843 0.841881 0)
(3 1.58101e-14 0)
(3 -9.47481e-14 0)
(3 2.47817e-11 0)
(3 1.98279e-11 0)
(3 2.06308e-11 0)
(3 -1.6464e-10 0)
(3 -5.52028e-10 0)
(3 -7.98253e-10 0)
(3 -9.02026e-09 0)
(3 -3.28462e-07 0)
(3 -4.3064e-06 0)
(3.00001 -7.45677e-06 0)
(2.99999 -2.61272e-05 0)
(2.99543 0.00678157 0)
(2.95285 0.0662241 0)
(2.70075 0.377842 0)
(2.55272 0.599212 0)
(2.35766 0.802709 0)
(2.27174 0.891886 0)
(2.28286 0.880345 0)
(2.31057 0.859288 0)
(2.32469 0.846274 0)
(2.3351 0.848469 0)
(2.33908 0.843194 0)
(3 4.29401e-15 0)
(3 6.81407e-15 0)
(3 2.86126e-14 0)
(3 1.54715e-12 0)
(3 2.9481e-12 0)
(3 2.40871e-12 0)
(3 2.43554e-12 0)
(3 3.4593e-12 0)
(3 7.84517e-11 0)
(3 -8.43124e-10 0)
(3 -9.86237e-09 0)
(3 -1.61455e-06 0)
(3 -1.76296e-06 0)
(3.00001 -1.6807e-05 0)
(2.99969 0.000406591 0)
(2.98317 0.0234989 0)
(2.90781 0.147927 0)
(2.57465 0.543216 0)
(2.40893 0.74798 0)
(2.35171 0.804167 0)
(2.32437 0.840371 0)
(2.31721 0.847438 0)
(2.32382 0.847274 0)
(2.32923 0.839634 0)
(3 1.50808e-15 0)
(3 1.47787e-15 0)
(3 1.08424e-15 0)
(3 4.14981e-15 0)
(3 2.86283e-14 0)
(3 2.7651e-13 0)
(3 6.61202e-13 0)
(3 1.45939e-12 0)
(3 1.05858e-11 0)
(3 1.82407e-11 0)
(3 3.49977e-11 0)
(3 -1.66104e-08 0)
(3 -1.34569e-07 0)
(3 -3.75754e-06 0)
(3 -3.15188e-06 0)
(2.99999 1.66195e-05 0)
(2.99789 0.00360182 0)
(2.93946 0.0816137 0)
(2.81114 0.287663 0)
(2.46528 0.694999 0)
(2.33311 0.851085 0)
(2.32255 0.843165 0)
(2.32209 0.8437 0)
(2.3182 0.844627 0)
(3 2.2765e-15 0)
(3 1.83415e-15 0)
(3 5.71269e-16 0)
(3 9.89999e-16 0)
(3 -5.48955e-16 0)
(3 8.43388e-16 0)
(3 2.93499e-14 0)
(3 1.39268e-13 0)
(3 3.62386e-13 0)
(3 3.71727e-12 0)
(3 5.24397e-12 0)
(3 1.07341e-10 0)
(3 -1.44261e-09 0)
(3 -4.06692e-08 0)
(3 -4.72862e-07 0)
(3 -7.43314e-07 0)
(3.00001 -1.36016e-05 0)
(2.9993 0.0012611 0)
(2.98892 0.0214589 0)
(2.84871 0.208836 0)
(2.618 0.519748 0)
(2.45956 0.723804 0)
(2.33188 0.863689 0)
(2.30799 0.865073 0)
(3 1.9796e-15 0)
(3 6.47005e-16 0)
(3 2.20554e-16 0)
(3 -3.39636e-16 0)
(3 -7.05525e-16 0)
(3 3.75033e-16 0)
(3 8.09872e-16 0)
(3 4.28368e-15 0)
(3 2.8874e-15 0)
(3 3.79415e-14 0)
(3 4.15276e-13 0)
(3 1.80421e-11 0)
(3 1.6104e-11 0)
(3 2.60301e-10 0)
(3 -4.94625e-09 0)
(3 -6.61106e-08 0)
(3 -2.05349e-06 0)
(3 -5.38268e-06 0)
(2.99995 6.34835e-05 0)
(2.99362 0.0104708 0)
(2.93785 0.0983826 0)
(2.71751 0.418667 0)
(2.44824 0.756883 0)
(2.37467 0.797026 0)
(3 1.48739e-15 0)
(3 5.91858e-16 0)
(3 -4.12046e-16 0)
(3 -8.61629e-16 0)
(3 -3.67591e-16 0)
(3 1.29398e-16 0)
(3 -9.63877e-16 0)
(3 -1.25355e-15 0)
(3 -1.48763e-15 0)
(3 -1.83304e-15 0)
(3 6.816e-16 0)
(3 3.88346e-13 0)
(3 2.82863e-12 0)
(3 3.03917e-11 0)
(3 4.97304e-11 0)
(3 -1.91442e-09 0)
(3 -3.95298e-08 0)
(3 -1.426e-06 0)
(3 -1.31204e-06 0)
(3 1.6819e-06 0)
(2.99844 0.00316717 0)
(2.96591 0.0542128 0)
(2.77017 0.332907 0)
(2.52911 0.647778 0)
(3 9.0715e-16 0)
(3 3.50844e-16 0)
(3 -3.07225e-16 0)
(3 4.07008e-17 0)
(3 5.51842e-16 0)
(3 1.4388e-16 0)
(3 -1.02538e-15 0)
(3 -1.35961e-15 0)
(3 -1.04769e-15 0)
(3 1.55582e-16 0)
(3 2.67621e-16 0)
(3 6.77448e-16 0)
(3 2.71508e-14 0)
(3 9.04822e-13 0)
(3 1.45783e-11 0)
(3 9.8489e-12 0)
(3 3.02969e-11 0)
(3 -2.22073e-08 0)
(3 -3.76636e-07 0)
(3 -3.57292e-07 0)
(3 -3.32552e-06 0)
(2.99928 0.00139286 0)
(2.97684 0.0389088 0)
(2.86501 0.222639 0)
(3 2.16217e-15 0)
(3 1.40059e-15 0)
(3 -3.40851e-16 0)
(3 4.16227e-16 0)
(3 4.54374e-16 0)
(3 9.82155e-17 0)
(3 -4.14535e-16 0)
(3 -8.0105e-16 0)
(3 -4.68663e-16 0)
(3 7.70752e-16 0)
(3 9.36481e-16 0)
(3 -2.34516e-16 0)
(3 -3.06337e-16 0)
(3 8.69671e-16 0)
(3 7.42816e-13 0)
(3 2.79846e-12 0)
(3 2.19917e-11 0)
(3 6.00997e-11 0)
(3 -1.73186e-08 0)
(3 -8.31517e-08 0)
(3 -4.28725e-07 0)
(3 -1.36098e-06 0)
(2.99964 0.000767366 0)
(2.99277 0.0146012 0)
(3 2.36239e-16 0)
(3 -1.6257e-16 0)
(3 -6.92984e-16 0)
(3 -8.59923e-16 0)
(3 -4.27331e-16 0)
(3 -3.94323e-17 0)
(3 9.16823e-16 0)
(3 1.68803e-15 0)
(3 1.92366e-15 0)
(3 1.42452e-15 0)
(3 7.57325e-16 0)
(3 4.73637e-16 0)
(3 6.36602e-16 0)
(3 4.51899e-16 0)
(3 2.21664e-15 0)
(3 1.43066e-13 0)
(3 2.27974e-12 0)
(3 6.57535e-12 0)
(3 -1.15202e-10 0)
(3 -7.13884e-09 0)
(3 -7.76451e-08 0)
(3 -2.70469e-07 0)
(3 2.53012e-06 0)
(3.00001 -5.7915e-05 0)
(3 -1.77937e-15 0)
(3 -6.70241e-16 0)
(3 1.11134e-17 0)
(3 -3.7777e-16 0)
(3 -4.01707e-16 0)
(3 -3.79361e-16 0)
(3 1.66057e-15 0)
(3 3.27669e-15 0)
(3 3.72849e-15 0)
(3 3.17122e-15 0)
(3 2.81858e-15 0)
(3 2.32999e-15 0)
(3 1.02319e-15 0)
(3 4.06954e-16 0)
(3 -2.15629e-15 0)
(3 1.85673e-15 0)
(3 1.9562e-14 0)
(3 4.2442e-13 0)
(3 5.89258e-13 0)
(3 -1.51436e-10 0)
(3 -2.49764e-09 0)
(3 -8.33981e-09 0)
(3 -9.95638e-07 0)
(3 8.39343e-07 0)
(3 -2.25423e-15 0)
(3 -1.10873e-15 0)
(3 -5.90034e-16 0)
(3 -5.1676e-16 0)
(3 -3.17566e-16 0)
(3 7.04985e-16 0)
(3 2.17411e-15 0)
(3 2.20089e-15 0)
(3 1.87973e-15 0)
(3 1.70069e-15 0)
(3 2.01524e-15 0)
(3 1.76114e-15 0)
(3 6.92941e-16 0)
(3 -8.22327e-16 0)
(3 -1.97918e-15 0)
(3 -3.699e-15 0)
(3 -2.11986e-14 0)
(3 -9.54346e-13 0)
(3 -4.18867e-13 0)
(3 3.05534e-11 0)
(3 1.88005e-09 0)
(3 2.05744e-07 0)
(3 -2.98724e-08 0)
(3 2.97492e-06 0)
(3 -2.62031e-15 0)
(3 -1.51971e-15 0)
(3 -1.42247e-15 0)
(3 -1.55561e-15 0)
(3 -6.48487e-16 0)
(3 2.2148e-16 0)
(3 1.28322e-15 0)
(3 1.69047e-15 0)
(3 1.18619e-15 0)
(3 -4.90503e-16 0)
(3 -2.12699e-15 0)
(3 -1.60723e-15 0)
(3 -9.28488e-16 0)
(3 -7.66335e-16 0)
(3 -5.82085e-15 0)
(3 -1.31017e-13 0)
(3 -2.09261e-12 0)
(3 -4.42057e-12 0)
(3 5.67185e-11 0)
(3 8.44486e-09 0)
(3 3.9727e-08 0)
(3 7.59401e-07 0)
(3 -3.66789e-06 0)
(2.99997 -3.85415e-05 0)
(3 -9.66215e-16 0)
(3 -5.74011e-16 0)
(3 -8.70574e-16 0)
(3 -2.95461e-16 0)
(3 -8.35045e-16 0)
(3 -1.03973e-15 0)
(3 -6.43356e-16 0)
(3 -9.73518e-17 0)
(3 4.54818e-16 0)
(3 5.01865e-16 0)
(3 -1.42696e-15 0)
(3 -1.75451e-15 0)
(3 -1.36915e-15 0)
(3 -3.43322e-15 0)
(3 -8.52986e-13 0)
(3 -3.0357e-12 0)
(3 -1.97821e-11 0)
(3 -1.2876e-11 0)
(3 1.36945e-08 0)
(3 1.73176e-07 0)
(3 2.07146e-07 0)
(3 2.91438e-06 0)
(2.99956 -0.000898345 0)
(2.99249 -0.0151653 0)
(3 6.3379e-16 0)
(3 -6.76396e-16 0)
(3 -9.66714e-16 0)
(3 -1.74676e-15 0)
(3 -1.66663e-15 0)
(3 -9.40629e-16 0)
(3 -1.25444e-15 0)
(3 -9.86833e-16 0)
(3 -5.28279e-16 0)
(3 -2.04165e-16 0)
(3 -2.25401e-16 0)
(3 -1.11668e-15 0)
(3 -2.89119e-14 0)
(3 -7.85391e-13 0)
(3 -1.54278e-11 0)
(3 -1.08647e-11 0)
(3 -2.27388e-11 0)
(3 2.40422e-08 0)
(3 3.51887e-07 0)
(3 6.35588e-07 0)
(3 -8.65259e-07 0)
(2.99937 -0.00122017 0)
(2.97563 -0.0399692 0)
(2.8583 -0.242044 0)
(3 9.57999e-16 0)
(3 4.59757e-16 0)
(3 -3.7254e-16 0)
(3 -1.32297e-15 0)
(3 -9.92573e-16 0)
(3 -8.64022e-16 0)
(3 -4.20233e-16 0)
(3 8.58392e-16 0)
(3 2.46843e-16 0)
(3 1.64396e-16 0)
(3 -2.90002e-15 0)
(3 -3.97597e-13 0)
(3 -2.91347e-12 0)
(3 -2.70624e-11 0)
(3 -5.05483e-11 0)
(3 1.82402e-09 0)
(3 4.21424e-08 0)
(3 1.31286e-06 0)
(3 1.49821e-06 0)
(2.99999 -6.67983e-06 0)
(2.99858 -0.00314234 0)
(2.96728 -0.0508977 0)
(2.75099 -0.358719 0)
(2.58199 -0.608132 0)
(3 -2.21311e-16 0)
(3 4.93739e-16 0)
(3 -4.85668e-16 0)
(3 -3.43554e-16 0)
(3 9.63591e-16 0)
(3 5.27178e-16 0)
(3 7.33785e-16 0)
(3 -3.67203e-15 0)
(3 -2.37966e-15 0)
(3 -4.02565e-14 0)
(3 -4.17811e-13 0)
(3 -1.80911e-11 0)
(3 -1.61127e-11 0)
(3 -2.3044e-10 0)
(3 4.80076e-09 0)
(3 7.11675e-08 0)
(3 2.05631e-06 0)
(3 4.84226e-06 0)
(2.99996 -5.18189e-05 0)
(2.9932 -0.0114123 0)
(2.94428 -0.0917186 0)
(2.70065 -0.436479 0)
(2.45013 -0.756741 0)
(2.38255 -0.780964 0)
(3 3.42208e-16 0)
(3 3.92521e-16 0)
(3 7.47284e-16 0)
(3 3.50341e-16 0)
(3 6.5873e-16 0)
(3 -8.26551e-16 0)
(3 -3.05435e-14 0)
(3 -1.4393e-13 0)
(3 -3.50518e-13 0)
(3 -3.71893e-12 0)
(3 -4.94353e-12 0)
(3 -1.09619e-10 0)
(3 1.51282e-09 0)
(3 3.86057e-08 0)
(3 4.99694e-07 0)
(3 7.48237e-07 0)
(3.00001 1.36277e-05 0)
(2.9993 -0.00126901 0)
(2.98912 -0.0211444 0)
(2.84616 -0.212309 0)
(2.62413 -0.514734 0)
(2.4588 -0.726355 0)
(2.32782 -0.866863 0)
(2.30814 -0.859358 0)
(3 2.5409e-17 0)
(3 -5.59599e-16 0)
(3 -2.73663e-17 0)
(3 -2.80855e-15 0)
(3 -2.91244e-14 0)
(3 -2.74434e-13 0)
(3 -6.63986e-13 0)
(3 -1.45901e-12 0)
(3 -1.03967e-11 0)
(3 -1.80528e-11 0)
(3 -3.49285e-11 0)
(3 1.66188e-08 0)
(3 1.33737e-07 0)
(3 3.68771e-06 0)
(3 3.40194e-06 0)
(2.99999 -1.7885e-05 0)
(2.99791 -0.00358724 0)
(2.93941 -0.0817182 0)
(2.81139 -0.287172 0)
(2.46769 -0.693285 0)
(2.33031 -0.854642 0)
(2.32103 -0.843947 0)
(2.32097 -0.842796 0)
(2.31768 -0.84276 0)
(3 -5.68258e-15 0)
(3 -7.30491e-15 0)
(3 -2.90188e-14 0)
(3 -1.54809e-12 0)
(3 -2.95002e-12 0)
(3 -2.41196e-12 0)
(3 -2.44572e-12 0)
(3 -3.46753e-12 0)
(3 -7.75964e-11 0)
(3 8.46328e-10 0)
(3 9.84217e-09 0)
(3 1.60949e-06 0)
(3 1.76438e-06 0)
(3.00001 1.69058e-05 0)
(2.99969 -0.00040576 0)
(2.98311 -0.0235908 0)
(2.90838 -0.147569 0)
(2.57359 -0.544647 0)
(2.41019 -0.746109 0)
(2.35236 -0.804526 0)
(2.32409 -0.840842 0)
(2.31659 -0.847563 0)
(2.32337 -0.846429 0)
(2.32952 -0.838058 0)
(3 -1.7613e-14 0)
(3 9.34758e-14 0)
(3 -2.47878e-11 0)
(3 -1.98466e-11 0)
(3 -2.06545e-11 0)
(3 1.66513e-10 0)
(3 5.50592e-10 0)
(3 8.13652e-10 0)
(3 9.06638e-09 0)
(3 3.27349e-07 0)
(3 4.33245e-06 0)
(3.00001 7.37125e-06 0)
(2.99999 2.65532e-05 0)
(2.99543 -0.00678999 0)
(2.95294 -0.0661626 0)
(2.70056 -0.378085 0)
(2.55285 -0.59948 0)
(2.3573 -0.802851 0)
(2.27192 -0.89124 0)
(2.28334 -0.880029 0)
(2.31065 -0.859365 0)
(2.32458 -0.846772 0)
(2.33462 -0.848121 0)
(2.3393 -0.842918 0)
(3 1.28378e-12 0)
(3 -1.24916e-10 0)
(3 -3.39906e-10 0)
(3 1.1597e-09 0)
(3 8.58067e-10 0)
(3 3.29498e-08 0)
(3 7.89293e-08 0)
(3 3.27855e-07 0)
(3 6.05026e-06 0)
(3 5.51788e-06 0)
(3.00003 5.65428e-05 0)
(2.99886 -0.00152823 0)
(2.97167 -0.0363025 0)
(2.79537 -0.250283 0)
(2.63636 -0.507551 0)
(2.32396 -0.851535 0)
(2.24594 -0.910754 0)
(2.29347 -0.885603 0)
(2.31218 -0.876526 0)
(2.32204 -0.866879 0)
(2.34202 -0.854909 0)
(2.35046 -0.847458 0)
(2.35145 -0.841596 0)
(2.3485 -0.841692 0)
(3 1.28421e-10 0)
(3 -2.48161e-09 0)
(3 7.87208e-08 0)
(3 1.53126e-07 0)
(3 6.14873e-07 0)
(3 6.43028e-07 0)
(3 4.86697e-06 0)
(3 5.5785e-06 0)
(3.00003 5.89451e-05 0)
(2.99944 -0.000658931 0)
(2.9826 -0.0224152 0)
(2.87591 -0.163887 0)
(2.67493 -0.452406 0)
(2.35774 -0.822802 0)
(2.3499 -0.845097 0)
(2.30715 -0.880896 0)
(2.30985 -0.877035 0)
(2.32608 -0.870812 0)
(2.34869 -0.853455 0)
(2.35823 -0.842817 0)
(2.36073 -0.841396 0)
(2.36135 -0.840391 0)
(2.35944 -0.843238 0)
(2.35343 -0.845541 0)
(3 5.84138e-10 0)
(3 7.62524e-07 0)
(3 1.76334e-06 0)
(3 1.64484e-06 0)
(3 8.72566e-06 0)
(2.99999 -2.38217e-05 0)
(3.00002 5.30022e-05 0)
(2.99936 -0.000920904 0)
(2.98796 -0.0212264 0)
(2.92426 -0.136584 0)
(2.68808 -0.484297 0)
(2.48223 -0.739065 0)
(2.36112 -0.875152 0)
(2.28151 -0.960808 0)
(2.2746 -0.95583 0)
(2.29975 -0.921909 0)
(2.33117 -0.876178 0)
(2.35027 -0.855524 0)
(2.35655 -0.847276 0)
(2.3609 -0.839167 0)
(2.3612 -0.840694 0)
(2.35876 -0.844734 0)
(2.35698 -0.846721 0)
(2.35284 -0.8471 0)
(3 -4.89892e-07 0)
(3.00002 9.09211e-06 0)
(2.99998 4.00362e-05 0)
(2.99982 -0.000253934 0)
(2.99868 -0.00179981 0)
(2.99104 -0.0131201 0)
(2.96616 -0.0527866 0)
(2.89944 -0.171617 0)
(2.76107 -0.424495 0)
(2.61504 -0.684829 0)
(2.43716 -0.857329 0)
(2.33287 -0.928078 0)
(2.29779 -0.914857 0)
(2.30477 -0.900455 0)
(2.3055 -0.898816 0)
(2.34096 -0.867255 0)
(2.3582 -0.851194 0)
(2.36229 -0.854243 0)
(2.35893 -0.849639 0)
(2.35524 -0.849152 0)
(2.35088 -0.84959 0)
(2.35006 -0.849333 0)
(2.35023 -0.848565 0)
(2.34597 -0.8501 0)
(2.99844 -0.00168456 0)
(2.99102 -0.0110843 0)
(2.96138 -0.0475585 0)
(2.89932 -0.134677 0)
(2.80938 -0.269527 0)
(2.67234 -0.469434 0)
(2.53628 -0.682174 0)
(2.3917 -0.897949 0)
(2.21401 -1.07535 0)
(2.16275 -1.10082 0)
(2.14236 -1.04414 0)
(2.19821 -0.999645 0)
(2.24054 -0.949178 0)
(2.30036 -0.902314 0)
(2.33093 -0.860322 0)
(2.34737 -0.826674 0)
(2.35638 -0.830065 0)
(2.35972 -0.839513 0)
(2.35304 -0.847105 0)
(2.34823 -0.848581 0)
(2.34366 -0.849061 0)
(2.34353 -0.848345 0)
(2.34258 -0.847714 0)
(2.34053 -0.848799 0)
(2.93148 -0.035952 0)
(2.85341 -0.0436085 0)
(2.75342 -0.148502 0)
(2.66551 -0.247431 0)
(2.58645 -0.337959 0)
(2.49164 -0.451376 0)
(2.42718 -0.543067 0)
(2.35114 -0.626851 0)
(2.31053 -0.721018 0)
(2.25703 -0.799865 0)
(2.24981 -0.856265 0)
(2.28567 -0.885392 0)
(2.32498 -0.900917 0)
(2.33441 -0.887092 0)
(2.3443 -0.881754 0)
(2.34751 -0.865794 0)
(2.35003 -0.856968 0)