/*--------------------------------*- C++ -*----------------------------------*\
  =========                 |
  \\      /  F ield         | OpenFOAM: The Open Source CFD Toolbox
   \\    /   O peration     | Website:  https://openfoam.org
    \\  /    A nd           | Version:  7
     \\/     M anipulation  |
\*---------------------------------------------------------------------------*/
FoamFile
{
    version     2.0;
    format      ascii;
    class       volVectorField;
    location    "4";
    object      U;
}
// * * * * * * * * * * * * * * * * * * * * * * * * * * * * * * * * * * * * * //

dimensions      [0 1 -1 0 0 0 0];

internalField   nonuniform List<vector> 
73728
(
(3 1.4126e-17 0)
(3 -9.99712e-18 0)
(3 -6.95774e-17 0)
(3 -7.65639e-17 0)
(3 -1.64973e-16 0)
(3 -2.37674e-17 0)
(3 1.70724e-16 0)
(3 5.16104e-16 0)
(3 1.85375e-16 0)
(3 -9.48691e-17 0)
(3 -4.25288e-16 0)
(3 -6.21446e-16 0)
(3 -6.51393e-16 0)
(3 -1.12862e-15 0)
(3 -1.27626e-15 0)
(3 -7.04798e-16 0)
(3 -8.49457e-17 0)
(3 -6.21746e-17 0)
(3 -2.38582e-16 0)
(3 -4.20392e-17 0)
(3 -5.79543e-17 0)
(3 3.48381e-16 0)
(3 3.98527e-16 0)
(3 3.99376e-16 0)
(3 -2.69165e-16 0)
(3 -1.04181e-15 0)
(3 -1.52683e-15 0)
(3 -1.27044e-15 0)
(3 -1.08486e-15 0)
(3 -7.09371e-16 0)
(3 -2.55058e-16 0)
(3 -4.06005e-16 0)
(3 -5.37017e-16 0)
(3 -4.72686e-16 0)
(3 -5.55343e-16 0)
(3 -6.08277e-16 0)
(3 -6.5133e-16 0)
(3 1.81953e-16 0)
(3 1.05387e-15 0)
(3 1.46808e-15 0)
(3 1.84122e-15 0)
(3 1.75308e-15 0)
(3 1.46581e-15 0)
(3 1.19784e-15 0)
(3 1.16679e-15 0)
(3 1.20734e-15 0)
(3 2.51436e-16 0)
(3 -3.35064e-17 0)
(3 -1.13253e-16 0)
(3 -4.88919e-16 0)
(3 -1.34708e-16 0)
(3 -7.37337e-17 0)
(3 -2.81349e-16 0)
(3 -1.4327e-16 0)
(3 2.90319e-16 0)
(3 4.74577e-16 0)
(3 3.54356e-16 0)
(3 2.47111e-16 0)
(3 5.27498e-16 0)
(3 3.1855e-16 0)
(3 3.46325e-17 0)
(3 -7.85452e-16 0)
(3 -4.18898e-16 0)
(3 -3.90013e-16 0)
(3 4.60375e-16 0)
(3 1.91128e-15 0)
(3 2.91684e-15 0)
(3 3.1104e-15 0)
(3 3.15047e-15 0)
(3 2.73998e-15 0)
(3 2.40115e-15 0)
(3 1.31242e-15 0)
(3 6.80714e-16 0)
(3 1.56982e-16 0)
(3 -1.4222e-16 0)
(3 -8.7329e-16 0)
(3 -2.51166e-15 0)
(3 -2.15552e-15 0)
(3 -1.93223e-15 0)
(3 -1.82057e-15 0)
(3 -2.00108e-15 0)
(3 -1.65295e-15 0)
(3 -6.57079e-16 0)
(3 -2.53265e-16 0)
(3 -4.72367e-16 0)
(3 -1.43837e-15 0)
(3 -1.89114e-15 0)
(3 -1.79e-15 0)
(3 -1.41102e-15 0)
(3 -1.56289e-15 0)
(3 -1.40684e-15 0)
(3 -1.22252e-15 0)
(3 -6.385e-16 0)
(3 -7.5504e-16 0)
(3 -1.41458e-15 0)
(3 -1.09417e-15 0)
(3 3.25914e-17 0)
(3 7.78678e-18 0)
(3 -2.53173e-16 0)
(3 -2.91774e-16 0)
(3 -2.12992e-16 0)
(3 7.0595e-17 0)
(3 5.8907e-16 0)
(3 6.48438e-16 0)
(3 -1.52002e-17 0)
(3 -5.40411e-16 0)
(3 -4.08278e-16 0)
(3 -1.03577e-16 0)
(3 -3.8042e-16 0)
(3 -7.84425e-16 0)
(3 -1.10781e-15 0)
(3 -1.09141e-15 0)
(3 -9.90545e-16 0)
(3 -6.85781e-16 0)
(3 -7.22785e-16 0)
(3 -8.07405e-16 0)
(3 -7.48144e-16 0)
(3 -7.40302e-16 0)
(3 -1.20715e-15 0)
(3 -7.20709e-16 0)
(3 -9.85419e-16 0)
(3 -1.33158e-15 0)
(3 -9.94134e-16 0)
(3 -1.17956e-15 0)
(3 -1.93943e-15 0)
(3 -9.60701e-16 0)
(3 -9.68819e-16 0)
(3 -1.03831e-16 0)
(3 2.79925e-16 0)
(3 3.31953e-16 0)
(3 8.73295e-17 0)
(3 -6.91541e-17 0)
(3 -4.86897e-16 0)
(3 -5.0004e-17 0)
(3 6.23129e-16 0)
(3 9.6695e-16 0)
(3 8.58651e-16 0)
(3 1.05886e-15 0)
(3 6.02418e-16 0)
(3 1.98519e-17 0)
(3 2.58671e-16 0)
(3 2.49641e-16 0)
(3 -8.7996e-16 0)
(3 -8.69234e-16 0)
(3 5.34021e-16 0)
(3 3.41688e-16 0)
(3 3.11911e-16 0)
(3 5.87611e-17 0)
(3 -8.38187e-16 0)
(3 -9.94282e-16 0)
(3 -3.17264e-16 0)
(3 1.31364e-15 0)
(3 1.11251e-15 0)
(3 1.28177e-15 0)
(3 2.25305e-15 0)
(3 1.28564e-15 0)
(3 9.57248e-16 0)
(3 -3.30049e-16 0)
(3 -3.36866e-16 0)
(3 2.50329e-16 0)
(3 8.82248e-16 0)
(3 1.19579e-15 0)
(3 1.61827e-15 0)
(3 2.65545e-15 0)
(3 3.44965e-15 0)
(3 3.31339e-15 0)
(3 3.05192e-15 0)
(3 1.977e-15 0)
(3 9.66422e-16 0)
(3 9.18612e-17 0)
(3 -1.19091e-15 0)
(3 -1.50866e-15 0)
(3 -1.59853e-15 0)
(3 -1.42996e-15 0)
(3 -1.12389e-15 0)
(3 -1.02057e-15 0)
(3 -1.50948e-15 0)
(3 -1.24834e-15 0)
(3 -6.03517e-16 0)
(3 -3.41546e-16 0)
(3 -2.028e-15 0)
(3 -4.29284e-15 0)
(3 -5.1102e-15 0)
(3 -4.87874e-15 0)
(3 -4.43436e-15 0)
(3 -4.34252e-15 0)
(3 -3.94398e-15 0)
(3 -2.99279e-15 0)
(3 -2.71314e-15 0)
(3 -2.73895e-15 0)
(3 -2.38967e-15 0)
(3 -1.49106e-15 0)
(3 -1.93319e-17 0)
(3 -1.46255e-17 0)
(3 -2.03983e-16 0)
(3 -1.75307e-16 0)
(3 1.34232e-16 0)
(3 1.15576e-16 0)
(3 3.66908e-16 0)
(3 5.98077e-16 0)
(3 8.08662e-16 0)
(3 6.59123e-16 0)
(3 1.21303e-15 0)
(3 1.26227e-15 0)
(3 8.75357e-16 0)
(3 2.60571e-16 0)
(3 -4.94265e-16 0)
(3 -5.51842e-16 0)
(3 -1.1124e-15 0)
(3 -1.06378e-15 0)
(3 -3.85841e-16 0)
(3 -6.51939e-16 0)
(3 -4.23152e-16 0)
(3 -2.22505e-16 0)
(3 -2.64906e-16 0)
(3 -3.15064e-16 0)
(3 -1.30344e-16 0)
(3 2.22531e-16 0)
(3 7.56521e-16 0)
(3 -1.39658e-16 0)
(3 -1.74373e-15 0)
(3 -1.0553e-15 0)
(3 -7.66219e-16 0)
(3 -1.00068e-16 0)
(3 6.79655e-16 0)
(3 1.24319e-15 0)
(3 2.55954e-15 0)
(3 3.40313e-15 0)
(3 2.98555e-15 0)
(3 2.35511e-15 0)
(3 2.64566e-15 0)
(3 3.02995e-15 0)
(3 1.70122e-15 0)
(3 1.15046e-15 0)
(3 1.1576e-15 0)
(3 5.58535e-16 0)
(3 6.80728e-16 0)
(3 1.00671e-15 0)
(3 5.90389e-17 0)
(3 8.78879e-17 0)
(3 -1.41586e-16 0)
(3 3.6175e-16 0)
(3 -1.76762e-16 0)
(3 -3.31498e-16 0)
(3 -3.54072e-16 0)
(3 -2.93236e-16 0)
(3 7.13347e-16 0)
(3 1.10659e-15 0)
(3 1.01806e-15 0)
(3 1.75826e-15 0)
(3 2.1458e-15 0)
(3 8.47797e-16 0)
(3 3.65984e-16 0)
(3 -4.35498e-16 0)
(3 5.00608e-16 0)
(3 8.56142e-16 0)
(3 3.69272e-16 0)
(3 1.02657e-17 0)
(3 4.63138e-16 0)
(3 9.04238e-16 0)
(3 1.575e-15 0)
(3 1.86313e-15 0)
(3 6.0895e-16 0)
(3 5.45913e-16 0)
(3 -1.05602e-16 0)
(3 -9.52656e-16 0)
(3 -1.3913e-15 0)
(3 -1.07388e-15 0)
(3 -1.0283e-15 0)
(3 -1.47843e-15 0)
(3 -1.55907e-15 0)
(3 -1.16762e-15 0)
(3 -5.26582e-16 0)
(3 -6.5581e-16 0)
(3 -1.10729e-15 0)
(3 -1.73141e-15 0)
(3 -2.73379e-15 0)
(3 -3.60182e-15 0)
(3 -3.85416e-15 0)
(3 -4.50281e-15 0)
(3 -5.60344e-15 0)
(3 -6.15744e-15 0)
(3 -5.40774e-15 0)
(3 -5.90118e-15 0)
(3 -6.24626e-15 0)
(3 -5.2212e-15 0)
(3 -1.70096e-15 0)
(3 -1.03313e-15 0)
(3 8.33336e-17 0)
(3 -1.91308e-17 0)
(3 2.06432e-16 0)
(3 6.84167e-16 0)
(3 4.3736e-16 0)
(3 3.19521e-16 0)
(3 2.11907e-16 0)
(3 4.90653e-16 0)
(3 1.05027e-15 0)
(3 1.41594e-15 0)
(3 1.62425e-15 0)
(3 1.60645e-15 0)
(3 3.27634e-16 0)
(3 -2.54135e-16 0)
(3 -5.80951e-16 0)
(3 -7.88365e-16 0)
(3 -4.83854e-16 0)
(3 -2.94143e-16 0)
(3 -4.00095e-16 0)
(3 -9.30047e-17 0)
(3 -6.46925e-17 0)
(3 4.4135e-16 0)
(3 1.00743e-15 0)
(3 1.50549e-15 0)
(3 1.51574e-15 0)
(3 1.1111e-15 0)
(3 1.63419e-16 0)
(3 -9.93932e-16 0)
(3 -1.32448e-15 0)
(3 -1.59198e-15 0)
(3 -8.23651e-16 0)
(3 -1.45362e-16 0)
(3 8.26589e-16 0)
(3 2.16259e-15 0)
(3 3.56963e-15 0)
(3 3.45877e-15 0)
(3 4.12288e-15 0)
(3 4.15648e-15 0)
(3 3.78691e-15 0)
(3 3.55651e-15 0)
(3 3.1537e-15 0)
(3 2.29414e-15 0)
(3 1.55825e-15 0)
(3 1.84522e-15 0)
(3 1.9334e-15 0)
(3 1.41308e-15 0)
(3 1.47916e-15 0)
(3 1.26929e-15 0)
(3 -6.97108e-17 0)
(3 -9.23759e-16 0)
(3 -1.43085e-15 0)
(3 -1.28413e-15 0)
(3 -8.16485e-16 0)
(3 1.02766e-15 0)
(3 2.41805e-15 0)
(3 2.43573e-15 0)
(3 3.38407e-15 0)
(3 2.93521e-15 0)
(3 2.33021e-15 0)
(3 7.91497e-16 0)
(3 -1.20066e-16 0)
(3 -4.41062e-16 0)
(3 -7.06155e-16 0)
(3 -1.08502e-15 0)
(3 -1.84854e-15 0)
(3 -1.12356e-15 0)
(3 -4.94694e-17 0)
(3 -1.07007e-16 0)
(3 5.29068e-16 0)
(3 -1.32897e-15 0)
(3 -3.91355e-15 0)
(3 -4.34539e-15 0)
(3 -3.13139e-15 0)
(3 -1.46242e-15 0)
(3 -1.05402e-15 0)
(3 2.24933e-17 0)
(3 -2.65466e-16 0)
(3 -9.01875e-16 0)
(3 -2.6119e-15 0)
(3 -3.00009e-15 0)
(3 -2.2678e-15 0)
(3 -1.84675e-15 0)
(3 -1.62921e-15 0)
(3 -1.91646e-15 0)
(3 -2.01146e-15 0)
(3 -2.18645e-15 0)
(3 -1.65017e-15 0)
(3 -2.58634e-15 0)
(3 -3.588e-15 0)
(3 -3.59627e-15 0)
(3 -5.35005e-15 0)
(3 -7.01621e-15 0)
(3 -6.22186e-15 0)
(3 -3.56019e-15 0)
(3 -1.67237e-15 0)
(3 -2.59411e-15 0)
(3 3.48509e-17 0)
(3 -1.16832e-16 0)
(3 1.87602e-16 0)
(3 3.62544e-16 0)
(3 2.22262e-16 0)
(3 3.34551e-16 0)
(3 4.96787e-17 0)
(3 1.8391e-17 0)
(3 2.06592e-16 0)
(3 4.79928e-16 0)
(3 8.84676e-16 0)
(3 1.67241e-15 0)
(3 1.25841e-15 0)
(3 1.2109e-15 0)
(3 7.69333e-16 0)
(3 2.75257e-17 0)
(3 -1.74713e-17 0)
(3 3.05153e-16 0)
(3 2.29028e-16 0)
(3 3.45999e-16 0)
(3 5.47633e-16 0)
(3 9.35003e-16 0)
(3 1.11336e-15 0)
(3 1.72204e-15 0)
(3 1.80212e-15 0)
(3 5.27427e-16 0)
(3 3.62735e-16 0)
(3 1.3619e-17 0)
(3 -4.11294e-17 0)
(3 1.01146e-15 0)
(3 2.41437e-15 0)
(3 2.19481e-15 0)
(3 2.91574e-15 0)
(3 2.12327e-15 0)
(3 6.02729e-16 0)
(3 7.31799e-17 0)
(3 8.95192e-16 0)
(3 1.5646e-15 0)
(3 1.83799e-15 0)
(3 1.78956e-15 0)
(3 2.00628e-15 0)
(3 1.85446e-15 0)
(3 1.49958e-15 0)
(3 2.21252e-15 0)
(3 2.97936e-15 0)
(3 2.72028e-15 0)
(3 4.04335e-15 0)
(3 3.58145e-15 0)
(3 2.42116e-15 0)
(3 1.42801e-15 0)
(3 -2.11937e-17 0)
(3 -8.07288e-16 0)
(3 -2.17114e-15 0)
(3 -1.57628e-15 0)
(3 -6.76051e-16 0)
(3 1.19791e-15 0)
(3 2.38595e-15 0)
(3 1.63025e-15 0)
(3 9.47012e-16 0)
(3 -1.22132e-16 0)
(3 -5.18338e-16 0)
(3 -9.12809e-16 0)
(3 -1.91116e-15 0)
(3 -2.69018e-15 0)
(3 -2.31778e-15 0)
(3 -1.91107e-15 0)
(3 -9.77455e-16 0)
(3 -2.21032e-15 0)
(3 -2.95879e-15 0)
(3 -2.78447e-15 0)
(3 -2.88388e-15 0)
(3 -3.11217e-15 0)
(3 -3.38894e-15 0)
(3 -1.41905e-15 0)
(3 -3.41924e-16 0)
(3 -6.59588e-17 0)
(3 -3.6984e-16 0)
(3 -1.44363e-15 0)
(3 -1.97115e-15 0)
(3 -3.49883e-15 0)
(3 -3.77535e-15 0)
(3 -3.52959e-15 0)
(3 -2.77386e-15 0)
(3 -1.89358e-15 0)
(3 -5.88165e-16 0)
(3 5.18511e-17 0)
(3 -6.71891e-16 0)
(3 -1.3314e-15 0)
(3 -1.35307e-15 0)
(3 -1.96743e-15 0)
(3 -2.71411e-15 0)
(3 -2.83955e-15 0)
(3 -2.10566e-15 0)
(3 -1.72748e-15 0)
(3 -1.92276e-15 0)
(3 -1.62101e-15 0)
(3 -6.11254e-17 0)
(3 3.40047e-16 0)
(3 3.62585e-16 0)
(3 4.11452e-17 0)
(3 9.35057e-17 0)
(3 1.35894e-16 0)
(3 4.47467e-17 0)
(3 3.70614e-16 0)
(3 4.91099e-16 0)
(3 5.85359e-16 0)
(3 7.61449e-16 0)
(3 6.45407e-16 0)
(3 1.1683e-15 0)
(3 1.46656e-15 0)
(3 1.2233e-15 0)
(3 1.64597e-15 0)
(3 7.62454e-16 0)
(3 3.25425e-16 0)
(3 7.79293e-16 0)
(3 5.74303e-16 0)
(3 7.51241e-16 0)
(3 7.13302e-16 0)
(3 9.17917e-16 0)
(3 6.77737e-16 0)
(3 -2.41062e-16 0)
(3 -2.09093e-16 0)
(3 7.936e-17 0)
(3 6.72653e-16 0)
(3 1.798e-15 0)
(3 3.20979e-15 0)
(3 3.64904e-15 0)
(3 3.47029e-15 0)
(3 2.80188e-15 0)
(3 1.91362e-15 0)
(3 8.03787e-16 0)
(3 6.03564e-16 0)
(3 7.23439e-16 0)
(3 9.7239e-16 0)
(3 9.95416e-16 0)
(3 9.76708e-16 0)
(3 1.59896e-15 0)
(3 2.18972e-15 0)
(3 3.12585e-15 0)
(3 2.46494e-15 0)
(3 2.17921e-15 0)
(3 2.37619e-15 0)
(3 2.50097e-15 0)
(3 2.34224e-15 0)
(3 2.55998e-15 0)
(3 1.31505e-15 0)
(3 4.81827e-17 0)
(3 -1.0918e-15 0)
(3 -1.98598e-15 0)
(3 -1.04917e-16 0)
(3 7.91056e-16 0)
(3 9.58943e-16 0)
(3 1.27018e-15 0)
(3 6.80039e-16 0)
(3 -2.34903e-16 0)
(3 -8.34578e-16 0)
(3 -1.01095e-15 0)
(3 -6.47034e-16 0)
(3 7.27797e-16 0)
(3 -3.84743e-16 0)
(3 3.75133e-16 0)
(3 2.63469e-16 0)
(3 -1.03876e-15 0)
(3 -3.25696e-15 0)
(3 -4.25013e-15 0)
(3 -3.38587e-15 0)
(3 -2.67426e-15 0)
(3 -2.08614e-15 0)
(3 -1.83967e-15 0)
(3 -1.36732e-15 0)
(3 -8.83261e-16 0)
(3 -9.78823e-16 0)
(3 -1.4008e-15 0)
(3 -2.1456e-15 0)
(3 -2.78874e-15 0)
(3 -1.67298e-15 0)
(3 -1.81295e-15 0)
(3 -2.00783e-15 0)
(3 -1.85332e-15 0)
(3 -1.59964e-15 0)
(3 -2.02365e-15 0)
(3 -2.21799e-15 0)
(3 -1.82768e-15 0)
(3 -1.3485e-15 0)
(3 -8.40572e-16 0)
(3 -1.49701e-15 0)
(3 -1.68952e-15 0)
(3 -1.73368e-15 0)
(3 -2.5649e-15 0)
(3 -3.40317e-15 0)
(3 -4.13743e-15 0)
(3 -3.53467e-15 0)
(3 -7.14941e-17 0)
(3 -4.57467e-17 0)
(3 -3.53121e-16 0)
(3 -4.8023e-16 0)
(3 -3.61743e-16 0)
(3 2.02438e-16 0)
(3 7.07753e-16 0)
(3 4.04003e-16 0)
(3 1.75821e-16 0)
(3 -2.03398e-16 0)
(3 -5.43802e-16 0)
(3 -6.04816e-16 0)
(3 -1.16186e-16 0)
(3 -1.23961e-16 0)
(3 4.0432e-16 0)
(3 6.84303e-16 0)
(3 5.17456e-16 0)
(3 -1.39269e-16 0)
(3 -7.33422e-16 0)
(3 -9.67066e-16 0)
(3 -3.02167e-16 0)
(3 -1.77221e-16 0)
(3 3.94079e-17 0)
(3 -1.43757e-17 0)
(3 -4.85767e-16 0)
(3 -2.28904e-16 0)
(3 -7.19804e-17 0)
(3 5.87973e-16 0)
(3 8.8364e-16 0)
(3 7.82615e-16 0)
(3 2.44209e-16 0)
(3 5.10664e-16 0)
(3 6.83158e-16 0)
(3 8.03253e-16 0)
(3 8.61908e-16 0)
(3 8.09577e-16 0)
(3 7.6034e-16 0)
(3 7.5095e-16 0)
(3 3.31223e-16 0)
(3 1.13118e-16 0)
(3 5.64375e-16 0)
(3 1.71496e-15 0)
(3 1.11284e-15 0)
(3 -2.89051e-16 0)
(3 -7.19633e-16 0)
(3 -4.1112e-16 0)
(3 1.16762e-17 0)
(3 4.64668e-16 0)
(3 1.33452e-16 0)
(3 -2.27988e-16 0)
(3 -9.03577e-16 0)
(3 -1.0918e-15 0)
(3 1.50908e-15 0)
(3 2.2799e-15 0)
(3 2.03842e-15 0)
(3 1.26278e-15 0)
(3 7.63097e-16 0)
(3 9.43905e-16 0)
(3 7.57031e-16 0)
(3 1.3123e-15 0)
(3 7.39831e-16 0)
(3 -1.09518e-15 0)
(3 -5.97264e-16 0)
(3 -6.74389e-17 0)
(3 -4.11017e-16 0)
(3 -8.92196e-16 0)
(3 -1.88453e-15 0)
(3 -1.98327e-15 0)
(3 -1.97249e-15 0)
(3 -1.98215e-15 0)
(3 -2.88642e-15 0)
(3 -2.07759e-15 0)
(3 -6.71585e-16 0)
(3 -5.1497e-16 0)
(3 -1.91117e-15 0)
(3 -2.4832e-15 0)
(3 -2.5852e-15 0)
(3 -2.37501e-15 0)
(3 -2.36229e-15 0)
(3 -1.61355e-15 0)
(3 -1.30297e-15 0)
(3 -6.95251e-16 0)
(3 -4.28681e-16 0)
(3 -1.96563e-16 0)
(3 -2.94543e-16 0)
(3 -7.8667e-16 0)
(3 -6.24554e-16 0)
(3 -7.21036e-16 0)
(3 -1.8364e-15 0)
(3 -1.87332e-15 0)
(3 -1.65208e-15 0)
(3 -8.47909e-16 0)
(3 -8.74132e-16 0)
(3 -1.23952e-15 0)
(3 -2.28986e-15 0)
(3 -3.31703e-15 0)
(3 3.62445e-17 0)
(3 -4.06185e-16 0)
(3 -3.5142e-16 0)
(3 -5.78677e-16 0)
(3 -1.37376e-16 0)
(3 1.57544e-16 0)
(3 1.65242e-16 0)
(3 -2.79845e-16 0)
(3 -7.15807e-16 0)
(3 -9.78748e-16 0)
(3 -1.19521e-15 0)
(3 -7.16042e-16 0)
(3 -4.77879e-16 0)
(3 1.70408e-18 0)
(3 2.91303e-16 0)
(3 9.9735e-17 0)
(3 -6.56994e-17 0)
(3 -2.18183e-16 0)
(3 -3.8858e-16 0)
(3 -9.32945e-16 0)
(3 -1.23678e-15 0)
(3 -1.39423e-15 0)
(3 -1.44627e-15 0)
(3 -1.35126e-15 0)
(3 -1.16685e-15 0)
(3 -1.19662e-15 0)
(3 -1.04657e-15 0)
(3 -1.30286e-15 0)
(3 -1.21632e-15 0)
(3 -1.54271e-15 0)
(3 -1.59863e-15 0)
(3 -9.9013e-16 0)
(3 -7.87431e-16 0)
(3 -4.71446e-16 0)
(3 -4.81624e-16 0)
(3 -7.5425e-16 0)
(3 -9.87025e-16 0)
(3 -8.85555e-16 0)
(3 -1.24103e-15 0)
(3 -9.00933e-16 0)
(3 -6.13898e-16 0)
(3 -8.62084e-16 0)
(3 -1.2935e-15 0)
(3 -1.65857e-15 0)
(3 -2.41558e-15 0)
(3 -2.22526e-15 0)
(3 -1.49664e-15 0)
(3 -7.76183e-16 0)
(3 -7.871e-16 0)
(3 -1.55656e-15 0)
(3 -4.06849e-16 0)
(3 8.50752e-16 0)
(3 1.31924e-15 0)
(3 1.01628e-15 0)
(3 1.614e-16 0)
(3 -2.14259e-16 0)
(3 -5.77365e-16 0)
(3 -6.03902e-17 0)
(3 2.44928e-17 0)
(3 -8.46533e-16 0)
(3 -9.64296e-16 0)
(3 -1.33414e-15 0)
(3 -1.52443e-15 0)
(3 -1.29848e-15 0)
(3 -1.88582e-15 0)
(3 -2.22958e-15 0)
(3 -8.33279e-16 0)
(3 -6.21377e-16 0)
(3 -3.20073e-16 0)
(3 -3.27055e-16 0)
(3 -1.1373e-15 0)
(3 -1.33198e-15 0)
(3 -1.43992e-15 0)
(3 -1.32408e-15 0)
(3 -2.26095e-15 0)
(3 -2.3152e-15 0)
(3 -1.82401e-15 0)
(3 -1.63466e-15 0)
(3 -1.85092e-15 0)
(3 -3.08701e-15 0)
(3 -2.58117e-15 0)
(3 -1.94755e-15 0)
(3 -1.77402e-15 0)
(3 -1.0827e-15 0)
(3 -3.6271e-16 0)
(3 1.85932e-16 0)
(3 7.77254e-16 0)
(3 5.99414e-16 0)
(3 -4.65051e-17 0)
(3 -6.62628e-17 0)
(3 2.31567e-17 0)
(3 5.91627e-17 0)
(3 -3.37231e-16 0)
(3 -2.05025e-15 0)
(3 -2.4566e-15 0)
(3 -2.3616e-15 0)
(3 3.68748e-17 0)
(3 1.88619e-16 0)
(3 8.58384e-16 0)
(3 6.9114e-16 0)
(3 5.28604e-16 0)
(3 -3.33823e-16 0)
(3 -5.21694e-16 0)
(3 -1.25259e-15 0)
(3 -1.33433e-15 0)
(3 -1.27554e-15 0)
(3 -1.16346e-15 0)
(3 -7.88115e-16 0)
(3 -4.7841e-16 0)
(3 2.0418e-16 0)
(3 2.76133e-16 0)
(3 8.79292e-17 0)
(3 1.03417e-16 0)
(3 1.53598e-16 0)
(3 4.97314e-16 0)
(3 3.2046e-16 0)
(3 -7.85703e-16 0)
(3 -1.17631e-15 0)
(3 -1.2825e-15 0)
(3 -1.55147e-15 0)
(3 -1.17564e-15 0)
(3 -1.3955e-15 0)
(3 -2.22444e-15 0)
(3 -3.10904e-15 0)
(3 -2.98043e-15 0)
(3 -3.45509e-15 0)
(3 -3.17591e-15 0)
(3 -3.29184e-15 0)
(3 -3.11502e-15 0)
(3 -2.41175e-15 0)
(3 -1.89138e-15 0)
(3 -2.06505e-15 0)
(3 -2.80933e-15 0)
(3 -2.67928e-15 0)
(3 -1.65133e-15 0)
(3 -8.56483e-16 0)
(3 -5.52709e-16 0)
(3 -9.11276e-16 0)
(3 -6.76916e-16 0)
(3 -2.00817e-16 0)
(3 -2.99332e-16 0)
(3 -6.38497e-16 0)
(3 -9.96137e-16 0)
(3 -1.00906e-15 0)
(3 -6.21969e-16 0)
(3 2.35866e-16 0)
(3 7.95256e-16 0)
(3 4.78859e-16 0)
(3 8.09667e-17 0)
(3 -1.2845e-17 0)
(3 1.74078e-16 0)
(3 6.80939e-17 0)
(3 1.97154e-16 0)
(3 -3.75989e-16 0)
(3 -2.27681e-16 0)
(3 -1.4995e-15 0)
(3 -1.3172e-15 0)
(3 -7.85667e-16 0)
(3 -8.0323e-16 0)
(3 -9.99824e-16 0)
(3 -1.71174e-15 0)
(3 -1.68664e-15 0)
(3 -1.0314e-15 0)
(3 -6.51234e-16 0)
(3 4.77464e-16 0)
(3 1.04215e-15 0)
(3 1.64941e-16 0)
(3 -4.32497e-16 0)
(3 -2.24095e-15 0)
(3 -2.83037e-15 0)
(3 -2.42801e-15 0)
(3 -1.41807e-15 0)
(3 -1.06048e-15 0)
(3 -1.45461e-15 0)
(3 -2.45935e-15 0)
(3 -3.60189e-15 0)
(3 -2.93384e-15 0)
(3 -2.76919e-15 0)
(3 -2.41263e-15 0)
(3 -1.86734e-15 0)
(3 -1.30286e-15 0)
(3 -1.26612e-15 0)
(3 -1.1513e-15 0)
(3 -6.57308e-16 0)
(3 -3.7009e-16 0)
(3 -1.65461e-16 0)
(3 -4.19153e-16 0)
(3 -1.29388e-15 0)
(3 -1.8084e-15 0)
(3 -2.04591e-15 0)
(3 -2.31893e-15 0)
(3 -2.47381e-15 0)
(3 1.56148e-16 0)
(3 1.74937e-16 0)
(3 2.02843e-16 0)
(3 3.61774e-16 0)
(3 2.00471e-16 0)
(3 -6.01087e-16 0)
(3 -6.94972e-16 0)
(3 -6.04854e-16 0)
(3 -1.00127e-15 0)
(3 -1.72526e-15 0)
(3 -2.17096e-15 0)
(3 -2.56357e-15 0)
(3 -1.85823e-15 0)
(3 -1.70023e-15 0)
(3 -1.20464e-15 0)
(3 -4.19058e-16 0)
(3 -1.21915e-16 0)
(3 2.93277e-16 0)
(3 8.25377e-16 0)
(3 8.33162e-16 0)
(3 6.3268e-16 0)
(3 5.06536e-17 0)
(3 -2.00878e-17 0)
(3 -1.42795e-16 0)
(3 -8.59101e-16 0)
(3 -1.30023e-15 0)
(3 -1.88134e-15 0)
(3 -1.47423e-15 0)
(3 -2.89877e-15 0)
(3 -3.77633e-15 0)
(3 -3.74019e-15 0)
(3 -3.51666e-15 0)
(3 -3.71475e-15 0)
(3 -3.84183e-15 0)
(3 -3.36941e-15 0)
(3 -2.36873e-15 0)
(3 -1.81324e-15 0)
(3 -1.06469e-15 0)
(3 -6.02176e-16 0)
(3 -1.79391e-16 0)
(3 2.9284e-16 0)
(3 5.73713e-16 0)
(3 4.55626e-16 0)
(3 1.04711e-15 0)
(3 1.84213e-15 0)
(3 1.93303e-15 0)
(3 1.29271e-15 0)
(3 1.24518e-15 0)
(3 1.4758e-15 0)
(3 2.28807e-15 0)
(3 2.31907e-15 0)
(3 2.27732e-15 0)
(3 1.72866e-15 0)
(3 1.66701e-15 0)
(3 1.75868e-15 0)
(3 8.50735e-16 0)
(3 -4.42968e-16 0)
(3 -1.25141e-15 0)
(3 -1.33417e-15 0)
(3 -1.21853e-15 0)
(3 -7.40775e-16 0)
(3 -3.8154e-16 0)
(3 1.07872e-16 0)
(3 6.81272e-17 0)
(3 -1.4111e-17 0)
(3 -5.16503e-16 0)
(3 -6.79698e-16 0)
(3 -4.01864e-16 0)
(3 -5.02662e-16 0)
(3 5.42251e-17 0)
(3 1.88818e-16 0)
(3 1.42988e-16 0)
(3 -8.307e-16 0)
(3 -1.80443e-15 0)
(3 -1.57916e-15 0)
(3 -8.49103e-16 0)
(3 -1.26598e-15 0)
(3 -1.26473e-15 0)
(3 -5.38193e-16 0)
(3 -7.94393e-16 0)
(3 -7.51915e-16 0)
(3 -8.6713e-16 0)
(3 -4.26253e-16 0)
(3 -2.02987e-15 0)
(3 -3.45187e-15 0)
(3 -3.62135e-15 0)
(3 -3.62689e-15 0)
(3 -3.58846e-15 0)
(3 -2.68715e-15 0)
(3 -2.07746e-15 0)
(3 -2.07701e-15 0)
(3 -2.31895e-15 0)
(3 -2.42013e-15 0)
(3 -2.24854e-15 0)
(3 -1.65402e-15 0)
(3 -1.93623e-15 0)
(3 2.82103e-17 0)
(3 -1.89873e-17 0)
(3 -4.33394e-16 0)
(3 -1.49307e-16 0)
(3 -2.12594e-16 0)
(3 -3.8944e-16 0)
(3 -5.15294e-16 0)
(3 6.33488e-17 0)
(3 1.08097e-16 0)
(3 -1.90206e-16 0)
(3 -1.2586e-15 0)
(3 -1.40311e-15 0)
(3 -1.0271e-15 0)
(3 -7.01649e-16 0)
(3 -1.79557e-16 0)
(3 9.47242e-17 0)
(3 -1.35466e-16 0)
(3 5.31194e-16 0)
(3 -2.39879e-16 0)
(3 -2.18556e-16 0)
(3 1.96324e-17 0)
(3 1.11989e-16 0)
(3 -2.83912e-16 0)
(3 -9.05197e-16 0)
(3 -1.14625e-15 0)
(3 -1.31842e-15 0)
(3 -9.27917e-16 0)
(3 -1.86945e-15 0)
(3 -2.58591e-15 0)
(3 -2.268e-15 0)
(3 -2.19792e-15 0)
(3 -2.05249e-15 0)
(3 -1.97438e-15 0)
(3 -1.48636e-15 0)
(3 -1.02098e-15 0)
(3 -1.98025e-16 0)
(3 8.77371e-16 0)
(3 1.04134e-16 0)
(3 -9.33409e-16 0)
(3 -7.77736e-16 0)
(3 -2.98684e-16 0)
(3 9.82479e-16 0)
(3 1.54029e-15 0)
(3 1.64256e-15 0)
(3 1.82763e-15 0)
(3 1.50334e-15 0)
(3 9.35551e-16 0)
(3 1.1734e-15 0)
(3 1.61235e-15 0)
(3 2.00639e-15 0)
(3 2.19718e-15 0)
(3 2.59879e-15 0)
(3 2.73849e-15 0)
(3 2.81979e-15 0)
(3 2.06835e-15 0)
(3 4.07195e-16 0)
(3 3.36599e-16 0)
(3 -2.77019e-16 0)
(3 -1.12623e-15 0)
(3 -1.25817e-15 0)
(3 -1.13324e-15 0)
(3 -2.51134e-16 0)
(3 -3.49185e-16 0)
(3 -9.38919e-16 0)
(3 -1.26457e-15 0)
(3 -1.3497e-15 0)
(3 -1.58556e-15 0)
(3 -2.41109e-15 0)
(3 -2.53186e-15 0)
(3 -9.50492e-16 0)
(3 -3.5634e-16 0)
(3 -1.32049e-16 0)
(3 2.27432e-16 0)
(3 4.38345e-16 0)
(3 -9.15259e-17 0)
(3 -6.13415e-16 0)
(3 6.16494e-16 0)
(3 1.46653e-15 0)
(3 3.54396e-15 0)
(3 2.91163e-15 0)
(3 4.98118e-16 0)
(3 -1.00135e-15 0)
(3 -1.05023e-15 0)
(3 -1.79483e-15 0)
(3 -2.01186e-15 0)
(3 -2.28693e-15 0)
(3 -1.99802e-15 0)
(3 -1.63308e-15 0)
(3 -1.8437e-15 0)
(3 -2.86408e-15 0)
(3 -2.97032e-15 0)
(3 -2.24226e-15 0)
(3 -1.98652e-15 0)
(3 -1.19695e-15 0)
(3 -1.02848e-15 0)
(3 -1.09682e-15 0)
(3 -3.13598e-16 0)
(3 -2.58867e-16 0)
(3 -2.04731e-16 0)
(3 9.9461e-17 0)
(3 1.39934e-16 0)
(3 3.95692e-16 0)
(3 -2.06229e-16 0)
(3 -3.94728e-16 0)
(3 -9.67715e-17 0)
(3 4.87946e-16 0)
(3 1.98381e-15 0)
(3 2.80501e-15 0)
(3 2.0075e-15 0)
(3 1.76962e-15 0)
(3 7.29327e-16 0)
(3 -2.89271e-16 0)
(3 -1.93208e-16 0)
(3 -3.67989e-16 0)
(3 -9.36805e-16 0)
(3 -8.89483e-16 0)
(3 -1.41605e-16 0)
(3 5.16748e-16 0)
(3 5.12155e-16 0)
(3 -3.02459e-16 0)
(3 -3.27152e-16 0)
(3 6.35007e-16 0)
(3 -2.69694e-16 0)
(3 -8.53765e-16 0)
(3 -1.36903e-15 0)
(3 -1.53698e-15 0)
(3 -1.80936e-15 0)
(3 -2.09638e-15 0)
(3 -1.37465e-15 0)
(3 -1.12659e-15 0)
(3 -3.64275e-16 0)
(3 -1.247e-16 0)
(3 -1.56931e-15 0)
(3 -2.0255e-15 0)
(3 -1.98595e-15 0)
(3 -1.12969e-15 0)
(3 -7.25308e-16 0)
(3 -8.22831e-16 0)
(3 -1.52139e-16 0)
(3 3.8874e-16 0)
(3 3.51445e-16 0)
(3 1.99194e-16 0)
(3 -1.86012e-16 0)
(3 -2.29475e-16 0)
(3 9.89535e-16 0)
(3 2.44434e-15 0)
(3 2.39222e-15 0)
(3 2.48331e-15 0)
(3 1.82052e-15 0)
(3 1.53338e-15 0)
(3 9.66273e-16 0)
(3 1.53868e-15 0)
(3 3.30398e-15 0)
(3 2.40198e-15 0)
(3 3.16132e-16 0)
(3 2.59717e-17 0)
(3 -9.1517e-16 0)
(3 -1.37949e-15 0)
(3 -2.52554e-15 0)
(3 -2.32405e-15 0)
(3 -2.52968e-15 0)
(3 -2.88244e-15 0)
(3 -3.81115e-15 0)
(3 -6.05184e-15 0)
(3 -5.02368e-15 0)
(3 -3.43247e-15 0)
(3 -2.48246e-15 0)
(3 -2.51497e-15 0)
(3 -1.65948e-15 0)
(3 8.02353e-16 0)
(3 1.15118e-15 0)
(3 9.84643e-16 0)
(3 2.50927e-15 0)
(3 4.16653e-15 0)
(3 3.5885e-15 0)
(3 2.40525e-15 0)
(3 1.24553e-15 0)
(3 -2.9465e-16 0)
(3 -1.21241e-15 0)
(3 -8.73011e-16 0)
(3 3.20886e-16 0)
(3 6.60201e-16 0)
(3 3.36854e-16 0)
(3 -5.56388e-16 0)
(3 -1.16844e-15 0)
(3 -1.68858e-15 0)
(3 -2.43105e-15 0)
(3 -1.96042e-15 0)
(3 -1.30754e-15 0)
(3 -7.91371e-17 0)
(3 -1.80592e-16 0)
(3 -4.1843e-16 0)
(3 -1.38807e-17 0)
(3 -3.5336e-17 0)
(3 -2.40886e-16 0)
(3 -3.45817e-16 0)
(3 -3.2008e-16 0)
(3 4.86715e-16 0)
(3 3.1983e-16 0)
(3 3.23281e-17 0)
(3 1.5476e-16 0)
(3 9.29687e-16 0)
(3 2.27551e-15 0)
(3 2.12337e-15 0)
(3 1.17407e-15 0)
(3 1.32067e-16 0)
(3 -4.87817e-16 0)
(3 -6.08508e-16 0)
(3 -3.67692e-16 0)
(3 -2.61598e-16 0)
(3 -2.41449e-16 0)
(3 -1.04041e-17 0)
(3 2.20077e-16 0)
(3 7.3314e-16 0)
(3 7.30023e-16 0)
(3 5.79057e-16 0)
(3 -1.30485e-16 0)
(3 -4.83982e-16 0)
(3 -8.60561e-16 0)
(3 -7.95109e-16 0)
(3 -1.14586e-15 0)
(3 -2.39104e-15 0)
(3 -2.84324e-15 0)
(3 -1.88351e-15 0)
(3 -1.921e-15 0)
(3 -1.88918e-15 0)
(3 -9.85972e-16 0)
(3 -1.91308e-15 0)
(3 -3.29238e-15 0)
(3 -3.18414e-15 0)
(3 -2.40584e-15 0)
(3 -1.63498e-15 0)
(3 -1.28311e-15 0)
(3 -1.94752e-15 0)
(3 -2.11116e-15 0)
(3 -1.79093e-15 0)
(3 -1.4105e-15 0)
(3 -1.17893e-15 0)
(3 -1.27249e-16 0)
(3 -7.65183e-16 0)
(3 2.53504e-16 0)
(3 1.65545e-15 0)
(3 2.93226e-15 0)
(3 3.30129e-15 0)
(3 2.87233e-15 0)
(3 2.42131e-15 0)
(3 1.79223e-15 0)
(3 1.92024e-15 0)
(3 2.10841e-15 0)
(3 2.04557e-15 0)
(3 1.68505e-15 0)
(3 1.40404e-15 0)
(3 6.58504e-16 0)
(3 -6.50688e-16 0)
(3 -8.5925e-16 0)
(3 -1.38633e-15 0)
(3 -9.99075e-16 0)
(3 -1.91396e-15 0)
(3 -2.49745e-15 0)
(3 -3.49977e-15 0)
(3 -4.38703e-15 0)
(3 -4.42521e-15 0)
(3 -3.63276e-15 0)
(3 -3.11279e-15 0)
(3 -1.13563e-15 0)
(3 -3.36938e-16 0)
(3 3.01271e-16 0)
(3 -6.76323e-16 0)
(3 -1.0129e-15 0)
(3 -5.68353e-17 0)
(3 1.3571e-15 0)
(3 1.45092e-15 0)
(3 1.43406e-15 0)
(3 8.15529e-16 0)
(3 3.49456e-16 0)
(3 -6.32561e-16 0)
(3 -1.05997e-15 0)
(3 -1.21543e-15 0)
(3 -1.5628e-15 0)
(3 -1.71122e-15 0)
(3 -1.70905e-15 0)
(3 -2.28727e-16 0)
(3 2.54575e-16 0)
(3 -4.69296e-16 0)
(3 -3.0908e-16 0)
(3 -9.4505e-16 0)
(3 -1.44763e-15 0)
(3 -1.84523e-16 0)
(3 4.26674e-17 0)
(3 -1.20521e-16 0)
(3 -2.81974e-16 0)
(3 -1.10433e-15 0)
(3 -1.29575e-15 0)
(3 -7.64874e-16 0)
(3 3.78328e-16 0)
(3 1.33728e-15 0)
(3 1.13787e-15 0)
(3 1.14959e-15 0)
(3 9.93734e-16 0)
(3 -1.97103e-16 0)
(3 -6.81694e-16 0)
(3 -1.00639e-15 0)
(3 -1.0157e-15 0)
(3 -7.27267e-16 0)
(3 -5.16219e-16 0)
(3 -2.01376e-16 0)
(3 -8.33108e-17 0)
(3 1.70583e-16 0)
(3 4.48739e-17 0)
(3 -8.34798e-16 0)
(3 -1.46473e-15 0)
(3 -1.17569e-15 0)
(3 -1.14433e-15 0)
(3 -2.13831e-15 0)
(3 -2.17681e-15 0)
(3 -2.22047e-15 0)
(3 -2.65232e-15 0)
(3 -2.17491e-15 0)
(3 -7.03819e-16 0)
(3 2.22069e-16 0)
(3 2.12858e-16 0)
(3 -2.29298e-16 0)
(3 -1.46124e-15 0)
(3 -2.40622e-15 0)
(3 -1.32452e-15 0)
(3 -7.32259e-16 0)
(3 -6.74859e-16 0)
(3 -1.06581e-15 0)
(3 -1.66542e-15 0)
(3 -2.12354e-15 0)
(3 -2.46737e-15 0)
(3 -2.46387e-15 0)
(3 -1.81809e-15 0)
(3 -1.34984e-15 0)
(3 -7.43744e-16 0)
(3 -2.97929e-16 0)
(3 -2.79991e-16 0)
(3 9.83014e-16 0)
(3 1.69773e-15 0)
(3 2.95857e-15 0)
(3 3.43975e-15 0)
(3 3.6414e-15 0)
(3 4.11852e-15 0)
(3 3.42128e-15 0)
(3 2.18321e-15 0)
(3 2.52412e-15 0)
(3 3.75943e-15 0)
(3 3.11191e-15 0)
(3 2.61016e-15 0)
(3 2.30571e-15 0)
(3 1.63434e-15 0)
(3 7.48247e-16 0)
(3 5.21018e-16 0)
(3 2.03035e-16 0)
(3 3.6363e-16 0)
(3 7.52231e-16 0)
(3 1.01294e-16 0)
(3 -1.06988e-15 0)
(3 -1.76713e-15 0)
(3 -9.42048e-16 0)
(3 1.6749e-16 0)
(3 2.92853e-16 0)
(3 1.21004e-17 0)
(3 -6.97414e-16 0)
(3 -1.39269e-15 0)
(3 -2.59719e-15 0)
(3 -2.18082e-15 0)
(3 -9.4018e-16 0)
(3 -5.83182e-16 0)
(3 -3.56358e-16 0)
(3 -3.17314e-17 0)
(3 2.44187e-16 0)
(3 -1.15803e-15 0)
(3 -1.81968e-15 0)
(3 -1.91594e-15 0)
(3 -4.87365e-16 0)
(3 9.89667e-16 0)
(3 1.56813e-15 0)
(3 1.69963e-15 0)
(3 1.67629e-15 0)
(3 -2.80212e-17 0)
(3 -1.07425e-15 0)
(3 -9.5664e-16 0)
(3 -5.50025e-16 0)
(3 -7.26254e-18 0)
(3 -9.89623e-18 0)
(3 2.60669e-16 0)
(3 1.94222e-16 0)
(3 -3.03971e-16 0)
(3 -2.66304e-16 0)
(3 -1.18658e-16 0)
(3 -4.56245e-17 0)
(3 1.58055e-16 0)
(3 1.19972e-16 0)
(3 7.01573e-17 0)
(3 -2.07084e-16 0)
(3 -2.55703e-16 0)
(3 -9.02163e-16 0)
(3 -9.42912e-16 0)
(3 -1.00979e-15 0)
(3 -1.38214e-15 0)
(3 -1.36942e-15 0)
(3 -9.64201e-16 0)
(3 -5.70781e-16 0)
(3 -8.45614e-16 0)
(3 -1.69544e-15 0)
(3 -1.80862e-15 0)
(3 -1.52259e-15 0)
(3 -7.69346e-16 0)
(3 -3.15893e-16 0)
(3 1.12789e-17 0)
(3 4.78111e-16 0)
(3 8.07716e-16 0)
(3 1.52859e-15 0)
(3 1.81211e-15 0)
(3 1.79887e-15 0)
(3 1.77333e-15 0)
(3 -2.36927e-16 0)
(3 -1.14049e-15 0)
(3 -4.33212e-16 0)
(3 5.1688e-16 0)
(3 7.66683e-16 0)
(3 7.40771e-16 0)
(3 -4.38827e-16 0)
(3 -1.33036e-15 0)
(3 -1.45884e-15 0)
(3 -1.70419e-15 0)
(3 -2.85457e-15 0)
(3 -2.86284e-15 0)
(3 -1.40515e-15 0)
(3 -9.61667e-17 0)
(3 1.13386e-15 0)
(3 1.67308e-15 0)
(3 1.6042e-15 0)
(3 1.3378e-15 0)
(3 1.38066e-15 0)
(3 1.72606e-15 0)
(3 2.4177e-15 0)
(3 2.87148e-15 0)
(3 3.30088e-15 0)
(3 2.85009e-15 0)
(3 3.13592e-15 0)
(3 3.99171e-15 0)
(3 3.22901e-15 0)
(3 3.15247e-15 0)
(3 2.69638e-15 0)
(3 1.44811e-15 0)
(3 1.42569e-15 0)
(3 1.3625e-15 0)
(3 1.94827e-15 0)
(3 2.61579e-15 0)
(3 3.57175e-15 0)
(3 3.15996e-15 0)
(3 1.22887e-15 0)
(3 3.61112e-16 0)
(3 5.28689e-16 0)
(3 6.57383e-16 0)
(3 1.03268e-15 0)
(3 5.18589e-16 0)
(3 7.23602e-17 0)
(3 -8.14884e-16 0)
(3 -2.58706e-15 0)
(3 -3.25008e-15 0)
(3 -2.72417e-15 0)
(3 -1.48199e-15 0)
(3 -8.84917e-16 0)
(3 -4.61355e-16 0)
(3 -5.09824e-16 0)
(3 -6.81734e-16 0)
(3 -4.84529e-16 0)
(3 -6.29533e-16 0)
(3 -8.05117e-16 0)
(3 2.74996e-16 0)
(3 8.73817e-16 0)
(3 1.30517e-15 0)
(3 1.28532e-15 0)
(3 1.04188e-15 0)
(3 3.25356e-16 0)
(3 3.19833e-17 0)
(3 -6.1949e-16 0)
(3 2.86874e-17 0)
(3 2.49877e-16 0)
(3 2.47978e-16 0)
(3 7.83974e-16 0)
(3 7.04207e-16 0)
(3 2.03241e-16 0)
(3 -9.86497e-18 0)
(3 -2.7309e-16 0)
(3 -6.96106e-17 0)
(3 -3.29426e-16 0)
(3 -2.91958e-16 0)
(3 -1.87062e-16 0)
(3 -2.64757e-16 0)
(3 -1.89996e-16 0)
(3 -3.03024e-16 0)
(3 -7.54665e-16 0)
(3 -1.63986e-15 0)
(3 -2.04415e-15 0)
(3 -1.59393e-15 0)
(3 -1.33607e-15 0)
(3 -1.57809e-15 0)
(3 -1.64916e-15 0)
(3 -1.29806e-15 0)
(3 -1.13966e-15 0)
(3 4.83902e-16 0)
(3 9.94389e-16 0)
(3 9.97893e-16 0)
(3 1.02938e-15 0)
(3 2.08993e-15 0)
(3 2.46576e-15 0)
(3 2.11874e-15 0)
(3 1.14835e-15 0)
(3 4.1347e-16 0)
(3 1.98228e-16 0)
(3 -1.27774e-16 0)
(3 -3.1498e-17 0)
(3 2.33812e-17 0)
(3 -5.48936e-16 0)
(3 -8.58993e-16 0)
(3 -8.58603e-16 0)
(3 -1.55404e-15 0)
(3 -1.66039e-15 0)
(3 2.28115e-16 0)
(3 5.26812e-16 0)
(3 8.62995e-16 0)
(3 1.74679e-15 0)
(3 1.84533e-15 0)
(3 1.14988e-15 0)
(3 8.72482e-16 0)
(3 1.08295e-16 0)
(3 -5.73329e-16 0)
(3 -9.12242e-16 0)
(3 -1.52187e-16 0)
(3 1.00594e-15 0)
(3 1.14803e-15 0)
(3 1.5818e-15 0)
(3 1.86559e-15 0)
(3 2.43608e-15 0)
(3 2.09521e-15 0)
(3 2.77946e-15 0)
(3 2.62962e-15 0)
(3 2.51871e-15 0)
(3 2.75557e-15 0)
(3 2.29886e-15 0)
(3 2.40295e-15 0)
(3 3.16867e-15 0)
(3 3.19569e-15 0)
(3 2.64539e-15 0)
(3 3.28706e-15 0)
(3 3.66992e-15 0)
(3 2.94284e-15 0)
(3 9.94409e-16 0)
(3 4.71423e-16 0)
(3 -1.11355e-16 0)
(3 -3.64784e-16 0)
(3 -7.00267e-16 0)
(3 -1.50446e-15 0)
(3 -4.21523e-16 0)
(3 -6.86755e-16 0)
(3 -1.03582e-15 0)
(3 -9.63813e-16 0)
(3 -1.84132e-15 0)
(3 -1.95112e-15 0)
(3 -2.14133e-15 0)
(3 -1.71897e-15 0)
(3 -1.18977e-15 0)
(3 -1.00621e-15 0)
(3 -1.11145e-15 0)
(3 -6.34226e-16 0)
(3 4.78139e-17 0)
(3 5.2972e-16 0)
(3 7.48741e-16 0)
(3 1.16128e-15 0)
(3 7.6946e-16 0)
(3 -3.00925e-16 0)
(3 -3.27218e-16 0)
(3 -1.60089e-17 0)
(3 -1.65219e-16 0)
(3 -2.2248e-16 0)
(3 -1.10513e-16 0)
(3 -8.80187e-17 0)
(3 -5.05612e-17 0)
(3 4.72358e-16 0)
(3 5.18792e-16 0)
(3 3.75134e-17 0)
(3 -2.37234e-16 0)
(3 -6.00141e-16 0)
(3 -8.98285e-16 0)
(3 -1.1587e-15 0)
(3 -8.54175e-16 0)
(3 -1.08362e-15 0)
(3 -1.24878e-15 0)
(3 -1.17338e-15 0)
(3 -9.02906e-16 0)
(3 -9.01427e-16 0)
(3 -2.43267e-15 0)
(3 -3.10575e-15 0)
(3 -2.76978e-15 0)
(3 -2.40525e-15 0)
(3 -1.51823e-15 0)
(3 -2.53699e-16 0)
(3 2.10229e-17 0)
(3 4.10732e-16 0)
(3 6.17598e-16 0)
(3 1.09129e-15 0)
(3 1.07564e-15 0)
(3 9.42979e-16 0)
(3 1.40507e-16 0)
(3 -2.22804e-16 0)
(3 -1.6078e-16 0)
(3 -2.43863e-16 0)
(3 -7.83454e-16 0)
(3 -1.2957e-15 0)
(3 -1.45037e-15 0)
(3 -1.65816e-15 0)
(3 -1.24147e-15 0)
(3 -1.12631e-15 0)
(3 4.08191e-16 0)
(3 1.70121e-15 0)
(3 2.66757e-15 0)
(3 3.5612e-15 0)
(3 3.25009e-15 0)
(3 2.73716e-15 0)
(3 2.26229e-15 0)
(3 1.78078e-15 0)