/*--------------------------------*- C++ -*----------------------------------*\
  =========                 |
  \\      /  F ield         | OpenFOAM: The Open Source CFD Toolbox
   \\    /   O peration     | Website:  https://openfoam.org
    \\  /    A nd           | Version:  7
     \\/     M anipulation  |
\*---------------------------------------------------------------------------*/
FoamFile
{
    version     2.0;
    format      ascii;
    class       volVectorField;
    location    "3.2";
    object      U;
}
// * * * * * * * * * * * * * * * * * * * * * * * * * * * * * * * * * * * * * //

dimensions      [0 1 -1 0 0 0 0];

internalField   nonuniform List<vector> 
73728
(
(3 -1.45811e-16 0)
(3 2.30739e-17 0)
(3 -1.66035e-16 0)
(3 -4.15468e-16 0)
(3 3.15345e-16 0)
(3 7.47222e-16 0)
(3 5.85645e-16 0)
(3 1.95017e-16 0)
(3 2.3269e-16 0)
(3 1.90807e-16 0)
(3 -1.53985e-16 0)
(3 -7.46594e-16 0)
(3 -1.01116e-15 0)
(3 -1.06151e-15 0)
(3 -1.08215e-15 0)
(3 -1.31088e-15 0)
(3 -6.83079e-16 0)
(3 -7.05614e-17 0)
(3 1.61055e-16 0)
(3 -9.85026e-17 0)
(3 -1.106e-15 0)
(3 -3.02394e-16 0)
(3 1.16017e-16 0)
(3 3.24533e-16 0)
(3 8.54021e-16 0)
(3 3.12736e-16 0)
(3 -1.73281e-16 0)
(3 -4.46843e-16 0)
(3 -3.34368e-16 0)
(3 1.26831e-16 0)
(3 3.10112e-16 0)
(3 -6.55751e-16 0)
(3 -5.49868e-16 0)
(3 -5.37862e-16 0)
(3 -6.89737e-16 0)
(3 -9.17155e-16 0)
(3 5.45602e-17 0)
(3 4.62318e-16 0)
(3 2.58796e-16 0)
(3 1.29555e-16 0)
(3 -1.12184e-16 0)
(3 -9.03093e-16 0)
(3 -9.82999e-16 0)
(3 -6.26567e-16 0)
(3 -2.53809e-16 0)
(3 3.08168e-16 0)
(3 1.01512e-15 0)
(3 1.16665e-15 0)
(3 1.17574e-15 0)
(3 1.33072e-16 0)
(3 -8.93044e-16 0)
(3 -9.31002e-16 0)
(3 -6.32497e-16 0)
(3 -4.77127e-16 0)
(3 -2.55679e-16 0)
(3 3.66837e-16 0)
(3 1.13357e-15 0)
(3 8.7381e-16 0)
(3 4.26766e-16 0)
(3 1.33008e-16 0)
(3 3.36869e-16 0)
(3 -8.9023e-18 0)
(3 3.60172e-16 0)
(3 6.7173e-16 0)
(3 8.33807e-16 0)
(3 6.23092e-16 0)
(3 6.81789e-16 0)
(3 4.92761e-16 0)
(3 8.85343e-17 0)
(3 -8.97158e-18 0)
(3 3.07834e-16 0)
(3 4.19601e-16 0)
(3 3.28737e-16 0)
(3 2.1243e-16 0)
(3 2.4081e-16 0)
(3 -2.08161e-17 0)
(3 -7.52756e-17 0)
(3 -9.16192e-17 0)
(3 5.44945e-17 0)
(3 4.2424e-16 0)
(3 7.69574e-16 0)
(3 8.12694e-16 0)
(3 1.14812e-15 0)
(1.09716 0.00430816 0)
(0.621377 0.00258395 0)
(0.59616 0.0109322 0)
(0.580994 0.00881804 0)
(0.563331 0.00887743 0)
(0.542911 0.00949287 0)
(0.518039 0.00992455 0)
(0.488143 0.0102764 0)
(0.455083 0.0114642 0)
(0.424345 0.0144847 0)
(0.392869 0.0165643 0)
(0.363942 0.0316083 0)
(0.312672 0.0418256 0)
(3 -1.02266e-16 0)
(3 1.49073e-16 0)
(3 -4.91029e-17 0)
(3 -1.81248e-16 0)
(3 8.29403e-16 0)
(3 1.41235e-15 0)
(3 1.78228e-15 0)
(3 8.64545e-16 0)
(3 2.67576e-16 0)
(3 3.74435e-16 0)
(3 -3.14827e-17 0)
(3 -1.17269e-15 0)
(3 -1.55692e-15 0)
(3 -1.88961e-15 0)
(3 -1.54578e-15 0)
(3 -8.59126e-16 0)
(3 -4.28081e-16 0)
(3 -4.04877e-16 0)
(3 -1.04423e-15 0)
(3 -1.86797e-15 0)
(3 -2.82829e-15 0)
(3 -1.27679e-15 0)
(3 -9.90946e-16 0)
(3 5.01557e-16 0)
(3 1.29181e-15 0)
(3 -4.71213e-16 0)
(3 -8.06311e-16 0)
(3 -1.31711e-15 0)
(3 -6.66431e-16 0)
(3 -3.81332e-16 0)
(3 6.01045e-16 0)
(3 -3.47908e-16 0)
(3 -4.61558e-16 0)
(3 -8.22662e-16 0)
(3 -1.3446e-15 0)
(3 -1.41664e-15 0)
(3 -1.99586e-16 0)
(3 5.99261e-16 0)
(3 1.25183e-16 0)
(3 -6.57262e-16 0)
(3 -1.10792e-15 0)
(3 -1.25987e-15 0)
(3 -1.40927e-15 0)
(3 -1.07701e-15 0)
(3 -6.69056e-16 0)
(3 -3.8814e-16 0)
(3 3.0446e-16 0)
(3 1.33288e-15 0)
(3 2.02843e-15 0)
(3 1.26574e-15 0)
(3 2.28219e-16 0)
(3 -4.77707e-16 0)
(3 -1.15733e-15 0)
(3 -1.17221e-15 0)
(3 -9.84607e-16 0)
(3 9.28061e-17 0)
(3 9.26915e-16 0)
(3 3.77097e-16 0)
(3 -2.05014e-16 0)
(3 -1.85177e-16 0)
(3 3.53243e-16 0)
(3 5.42372e-16 0)
(3 1.88695e-15 0)
(3 1.98988e-15 0)
(3 1.88285e-15 0)
(3 9.19039e-16 0)
(3 3.64612e-16 0)
(3 -4.73843e-16 0)
(3 -8.8484e-16 0)
(3 -3.76505e-16 0)
(3 3.49948e-16 0)
(3 1.25016e-15 0)
(3 1.95756e-15 0)
(3 2.0916e-15 0)
(3 1.46945e-15 0)
(3 -1.7469e-16 0)
(3 -6.02067e-16 0)
(3 -2.87543e-16 0)
(3 1.48504e-16 0)
(3 1.13948e-15 0)
(3 1.70255e-15 0)
(3 2.29615e-15 0)
(3 2.86695e-15 0)
(1.1061 0.0209051 0)
(0.619479 0.014959 0)
(0.592431 0.0310591 0)
(0.57726 0.0267394 0)
(0.559025 0.025986 0)
(0.538935 0.0279355 0)
(0.514613 0.0297684 0)
(0.486136 0.0316428 0)
(0.454268 0.0354612 0)
(0.425981 0.0430132 0)
(0.399486 0.051946 0)
(0.385839 0.0731201 0)
(0.357587 0.092982 0)
(3 2.59838e-17 0)
(3 1.98953e-16 0)
(3 1.51334e-16 0)
(3 3.70172e-16 0)
(3 1.08335e-15 0)
(3 1.41582e-15 0)
(3 1.24378e-15 0)
(3 6.80097e-16 0)
(3 2.27411e-16 0)
(3 4.3303e-17 0)
(3 -5.09439e-16 0)
(3 -1.25758e-15 0)
(3 -1.69485e-15 0)
(3 -1.77192e-15 0)
(3 -1.6832e-15 0)
(3 -1.23923e-15 0)
(3 -8.81398e-16 0)
(3 -1.15485e-15 0)
(3 -1.4809e-15 0)
(3 -1.31903e-15 0)
(3 -1.02462e-15 0)
(3 -1.08434e-15 0)
(3 -3.18379e-16 0)
(3 7.7203e-16 0)
(3 1.63402e-15 0)
(3 6.8074e-16 0)
(3 2.08963e-16 0)
(3 -2.89576e-16 0)
(3 -2.22242e-16 0)
(3 -1.15898e-15 0)
(3 -1.03862e-15 0)
(3 -1.34862e-15 0)
(3 -1.05161e-15 0)
(3 -1.41591e-15 0)
(3 -1.67923e-15 0)
(3 -1.38031e-15 0)
(3 -4.18776e-16 0)
(3 3.30577e-16 0)
(3 8.74449e-16 0)
(3 -2.26737e-17 0)
(3 -8.48746e-16 0)
(3 -1.06512e-15 0)
(3 -1.07391e-15 0)
(3 -7.96343e-16 0)
(3 -7.38404e-16 0)
(3 7.9611e-17 0)
(3 5.5123e-16 0)
(3 1.12588e-15 0)
(3 1.57266e-15 0)
(3 1.4804e-15 0)
(3 1.02163e-15 0)
(3 -1.55529e-16 0)
(3 -1.80416e-16 0)
(3 -1.25587e-17 0)
(3 -9.79858e-17 0)
(3 -4.67981e-16 0)
(3 -2.3101e-16 0)
(3 -1.47062e-16 0)
(3 -4.34397e-16 0)
(3 -4.69555e-16 0)
(3 1.63814e-16 0)
(3 1.81649e-15 0)
(3 2.15736e-15 0)
(3 2.85058e-15 0)
(3 1.34357e-15 0)
(3 2.85038e-16 0)
(3 -1.09622e-15 0)
(3 -9.13011e-16 0)
(3 -4.01048e-16 0)
(3 -5.53246e-17 0)
(3 4.0308e-16 0)
(3 1.40165e-15 0)
(3 2.77943e-15 0)
(3 3.85307e-15 0)
(3 1.46077e-15 0)
(3 -2.74354e-16 0)
(3 -6.89403e-16 0)
(3 3.00641e-16 0)
(3 4.80741e-16 0)
(3 1.14023e-15 0)
(3 2.42677e-15 0)
(3 4.37924e-15 0)
(3 2.03822e-15 0)
(1.13023 0.0364066 0)
(0.622556 0.0284171 0)
(0.595083 0.0494491 0)
(0.5802 0.0450589 0)
(0.561261 0.0431349 0)
(0.541025 0.0455752 0)
(0.516911 0.04855 0)
(0.49004 0.0517621 0)
(0.460122 0.0564401 0)
(0.436459 0.0662583 0)
(0.417576 0.0778722 0)
(0.412048 0.097942 0)
(0.400148 0.122238 0)
(3 1.20757e-16 0)
(3 -4.11576e-16 0)
(3 -4.64431e-16 0)
(3 2.0476e-17 0)
(3 9.09573e-17 0)
(3 1.63635e-16 0)
(3 -1.2445e-16 0)
(3 -2.9571e-17 0)
(3 2.21829e-16 0)
(3 -8.18698e-16 0)
(3 -1.43354e-15 0)
(3 -1.09356e-15 0)
(3 -1.14973e-15 0)
(3 -1.08058e-15 0)
(3 -1.04749e-15 0)
(3 -1.36134e-15 0)
(3 -1.01609e-15 0)
(3 -6.71602e-16 0)
(3 5.64136e-17 0)
(3 4.81712e-16 0)
(3 7.05513e-16 0)
(3 8.34226e-16 0)
(3 1.18984e-15 0)
(3 1.39986e-15 0)
(3 1.22305e-15 0)
(3 1.20891e-15 0)
(3 -1.6339e-16 0)
(3 -3.72566e-16 0)
(3 -1.13317e-15 0)
(3 -1.46119e-15 0)
(3 -1.82477e-15 0)
(3 -1.03878e-15 0)
(3 -7.83754e-16 0)
(3 -5.87173e-16 0)
(3 -1.10062e-15 0)
(3 -1.0969e-15 0)
(3 -8.45252e-16 0)
(3 -2.95838e-16 0)
(3 3.47411e-16 0)
(3 6.1369e-16 0)
(3 6.476e-16 0)
(3 2.5821e-16 0)
(3 -2.39672e-16 0)
(3 -2.64108e-16 0)
(3 -6.92154e-17 0)
(3 9.9641e-17 0)
(3 1.16647e-16 0)
(3 1.01293e-16 0)
(3 1.69951e-16 0)
(3 4.44635e-16 0)
(3 3.8783e-16 0)
(3 3.70258e-16 0)
(3 4.02337e-16 0)
(3 7.31738e-16 0)
(3 8.32349e-16 0)
(3 8.28735e-16 0)
(3 -8.07996e-17 0)
(3 -9.0996e-16 0)
(3 -1.24317e-15 0)
(3 -6.63867e-16 0)
(3 1.22436e-15 0)
(3 2.07403e-15 0)
(3 1.4247e-15 0)
(3 1.4555e-15 0)
(3 2.16886e-15 0)
(3 2.08783e-15 0)
(3 7.05005e-16 0)
(3 1.12424e-15 0)
(3 2.50094e-15 0)
(3 2.36885e-15 0)
(3 2.16631e-15 0)
(3 7.48797e-16 0)
(3 4.96134e-16 0)
(3 1.70877e-15 0)
(3 1.59056e-15 0)
(3 1.16964e-15 0)
(3 6.54134e-16 0)
(3 9.26282e-16 0)
(3 9.89903e-16 0)
(3 1.18632e-15 0)
(3 1.86922e-15 0)
(3 1.72739e-15 0)
(3 7.89867e-16 0)
(1.1654 0.0504708 0)
(0.626514 0.0417695 0)
(0.597538 0.0662214 0)
(0.583621 0.0621107 0)
(0.565174 0.0589716 0)
(0.545673 0.0616747 0)
(0.522023 0.0657121 0)
(0.496423 0.0698688 0)
(0.469599 0.0742082 0)
(0.451211 0.0836178 0)
(0.440088 0.0960934 0)
(0.438054 0.113237 0)
(0.434441 0.134457 0)
(3 -1.25559e-16 0)
(3 -2.85919e-16 0)
(3 -1.31767e-16 0)
(3 -1.68399e-16 0)
(3 -4.50282e-16 0)
(3 -7.52364e-16 0)
(3 -7.5191e-16 0)
(3 -4.4724e-16 0)
(3 8.26973e-17 0)
(3 4.86152e-17 0)
(3 -7.71244e-16 0)
(3 -8.86561e-16 0)
(3 -4.60973e-16 0)
(3 -3.3745e-16 0)
(3 -1.25966e-16 0)
(3 -4.62902e-16 0)
(3 -1.24704e-15 0)
(3 -5.03832e-16 0)
(3 1.87409e-16 0)
(3 9.25596e-17 0)
(3 3.2711e-16 0)
(3 1.56287e-15 0)
(3 1.55388e-15 0)
(3 1.57894e-15 0)
(3 1.36705e-15 0)
(3 7.27624e-16 0)
(3 7.96882e-16 0)
(3 7.99883e-16 0)
(3 -2.21436e-17 0)
(3 -1.14049e-15 0)
(3 -1.75521e-15 0)
(3 -8.4544e-16 0)
(3 -3.59525e-16 0)
(3 9.03243e-17 0)
(3 -1.8982e-16 0)
(3 -7.45548e-16 0)
(3 -5.07144e-16 0)
(3 4.3561e-17 0)
(3 1.3997e-15 0)
(3 1.8055e-15 0)
(3 1.01967e-15 0)
(3 3.53357e-16 0)
(3 -2.29443e-16 0)
(3 -2.50812e-16 0)
(3 -2.11672e-16 0)
(3 -2.25726e-16 0)
(3 -3.6456e-16 0)
(3 -1.01866e-15 0)
(3 -1.36831e-15 0)
(3 -8.85199e-16 0)
(3 1.24635e-16 0)
(3 1.12693e-15 0)
(3 4.6527e-16 0)
(3 -5.86112e-17 0)
(3 -3.10977e-16 0)
(3 -4.41723e-16 0)
(3 -6.70857e-16 0)
(3 -9.54346e-16 0)
(3 -8.08506e-16 0)
(3 -4.3166e-18 0)
(3 4.22392e-16 0)
(3 6.52634e-16 0)
(3 5.38908e-16 0)
(3 -2.63817e-16 0)
(3 1.24252e-15 0)
(3 2.50342e-15 0)
(3 2.69642e-15 0)
(3 1.99681e-15 0)
(3 1.80256e-15 0)
(3 2.65964e-15 0)
(3 2.16401e-15 0)
(3 1.64705e-15 0)
(3 2.32388e-16 0)
(3 8.78983e-17 0)
(3 1.16574e-15 0)
(3 9.66767e-16 0)
(3 9.59549e-16 0)
(3 1.16436e-15 0)
(3 1.23504e-15 0)
(3 8.666e-16 0)
(3 8.73925e-17 0)
(3 -4.05834e-16 0)
(3 -7.20735e-16 0)
(1.21159 0.064553 0)
(0.630946 0.0557079 0)
(0.598738 0.0817111 0)
(0.585993 0.0772441 0)
(0.568377 0.0731665 0)
(0.54989 0.0761035 0)
(0.526805 0.0809664 0)
(0.501742 0.0855618 0)
(0.478877 0.0898651 0)
(0.465809 0.0987671 0)
(0.461021 0.110551 0)
(0.461491 0.125571 0)
(0.460347 0.144069 0)
(3 -1.40069e-16 0)
(3 2.93844e-17 0)
(3 4.48972e-16 0)
(3 3.88944e-16 0)
(3 -8.45061e-18 0)
(3 -4.98578e-16 0)
(3 -4.58525e-16 0)
(3 -5.25412e-17 0)
(3 5.67966e-17 0)
(3 7.3e-16 0)
(3 4.65818e-16 0)
(3 -2.57601e-16 0)
(3 -6.62442e-16 0)
(3 -5.80977e-16 0)
(3 -1.06944e-15 0)
(3 -1.38488e-15 0)
(3 -1.95598e-15 0)
(3 -8.09772e-16 0)
(3 7.20412e-16 0)
(3 1.05861e-15 0)
(3 1.0369e-15 0)
(3 1.67499e-15 0)
(3 1.91845e-15 0)
(3 2.13692e-15 0)
(3 1.9907e-15 0)
(3 1.44241e-15 0)
(3 1.16875e-15 0)
(3 1.31632e-15 0)
(3 1.24487e-15 0)
(3 3.18165e-16 0)
(3 3.97654e-16 0)
(3 6.21536e-16 0)
(3 1.05128e-15 0)
(3 2.3914e-16 0)
(3 -7.47598e-16 0)
(3 -1.25395e-15 0)
(3 -8.14819e-16 0)
(3 6.56992e-16 0)
(3 1.58556e-15 0)
(3 1.58456e-15 0)
(3 6.47455e-16 0)
(3 -2.49959e-16 0)
(3 4.59058e-16 0)
(3 4.52405e-16 0)
(3 4.97065e-16 0)
(3 6.12707e-16 0)
(3 6.52321e-16 0)
(3 6.95035e-16 0)
(3 4.77347e-16 0)
(3 -6.88023e-17 0)
(3 -5.64247e-16 0)
(3 -6.14438e-16 0)
(3 -1.53536e-15 0)
(3 -1.71419e-15 0)
(3 -2.24608e-15 0)
(3 -2.12386e-15 0)
(3 -1.00649e-15 0)
(3 -6.04249e-16 0)
(3 -1.80824e-16 0)
(3 -4.85663e-17 0)
(3 -2.39502e-16 0)
(3 -4.7732e-17 0)
(3 9.47027e-17 0)
(3 2.23588e-16 0)
(3 1.23334e-16 0)
(3 3.14331e-15 0)
(3 3.36164e-15 0)
(3 2.19285e-15 0)
(3 2.49314e-16 0)
(3 2.46959e-16 0)
(3 1.56984e-16 0)
(3 9.51689e-16 0)
(3 1.22859e-15 0)
(3 7.91405e-16 0)
(3 4.13268e-16 0)
(3 6.45647e-16 0)
(3 8.85978e-16 0)
(3 7.32728e-16 0)
(3 3.90235e-16 0)
(3 -3.01897e-19 0)
(3 -3.6028e-16 0)
(3 -1.84864e-15 0)
(3 -2.11146e-15 0)
(1.27119 0.0784532 0)
(0.636936 0.0704824 0)
(0.599407 0.0958407 0)
(0.58804 0.0902563 0)
(0.571307 0.0855638 0)
(0.553773 0.0884995 0)
(0.531248 0.0935292 0)
(0.506712 0.0980278 0)
(0.488368 0.103114 0)
(0.480113 0.112088 0)
(0.479097 0.123678 0)
(0.482026 0.137066 0)
(0.481797 0.152516 0)
(3 -4.96957e-18 0)
(3 1.22688e-16 0)
(3 2.9631e-16 0)
(3 6.45064e-16 0)
(3 4.00843e-16 0)
(3 -2.14219e-17 0)
(3 4.15572e-16 0)
(3 6.78085e-16 0)
(3 1.78672e-16 0)
(3 1.37346e-16 0)
(3 1.25127e-16 0)
(3 -7.45396e-16 0)
(3 -1.00614e-15 0)
(3 -1.03739e-15 0)
(3 -1.01534e-15 0)
(3 -9.84832e-16 0)
(3 -3.47784e-16 0)
(3 1.63744e-16 0)
(3 4.82199e-16 0)
(3 3.80094e-16 0)
(3 3.25785e-16 0)
(3 6.43803e-16 0)
(3 8.25168e-16 0)
(3 1.08824e-15 0)
(3 1.51693e-15 0)
(3 1.5914e-15 0)
(3 1.16129e-15 0)
(3 7.15637e-16 0)
(3 7.83887e-16 0)
(3 8.22689e-16 0)
(3 8.48259e-16 0)
(3 7.62043e-16 0)
(3 6.51388e-16 0)
(3 1.03093e-16 0)
(3 -7.19788e-16 0)
(3 -7.2746e-16 0)
(3 1.0871e-16 0)
(3 1.39624e-16 0)
(3 1.25586e-16 0)
(3 -4.60349e-16 0)
(3 2.97817e-16 0)
(3 4.75203e-16 0)
(3 8.14965e-16 0)
(3 1.08349e-15 0)
(3 1.38698e-15 0)
(3 1.6337e-15 0)
(3 1.71012e-15 0)
(3 1.97257e-15 0)
(3 1.99204e-15 0)
(3 1.88916e-15 0)
(3 4.96906e-16 0)
(3 -3.3344e-16 0)
(3 -1.01127e-15 0)
(3 -1.13647e-15 0)
(3 -1.28459e-15 0)
(3 -9.17773e-16 0)
(3 -7.44067e-16 0)
(3 -6.44178e-17 0)
(3 2.44407e-16 0)
(3 8.32539e-16 0)
(3 1.13977e-15 0)
(3 8.16655e-16 0)
(3 7.87755e-16 0)
(3 8.72045e-16 0)
(3 1.02363e-15 0)
(3 1.52969e-15 0)
(3 8.34804e-16 0)
(3 3.49495e-16 0)
(3 1.63699e-17 0)
(3 -9.05501e-16 0)
(3 -1.36324e-15 0)
(3 -2.09876e-15 0)
(3 -2.18187e-15 0)
(3 -2.35326e-15 0)
(3 -2.43007e-15 0)
(3 -1.57254e-15 0)
(3 -6.99333e-16 0)
(3 -6.74481e-16 0)
(3 -1.70989e-15 0)
(3 -1.80738e-15 0)
(3 -2.53485e-15 0)
(3 -1.39585e-15 0)
(3 -6.83068e-16 0)
(1.34532 0.0917095 0)
(0.644423 0.0863377 0)
(0.599115 0.108327 0)
(0.58988 0.101219 0)
(0.574234 0.096102 0)
(0.557013 0.0985541 0)
(0.534644 0.103217 0)
(0.512153 0.107703 0)
(0.498267 0.11434 0)
(0.493997 0.123417 0)
(0.495468 0.135013 0)
(0.499862 0.147903 0)
(0.500184 0.161518 0)
(3 2.44476e-16 0)
(3 1.17435e-16 0)
(3 -4.24112e-16 0)
(3 -4.7846e-16 0)
(3 -1.67485e-16 0)
(3 1.05253e-15 0)
(3 8.67166e-16 0)
(3 5.46174e-16 0)
(3 2.2975e-16 0)
(3 2.23823e-16 0)
(3 -1.859e-16 0)
(3 -8.40356e-16 0)
(3 -1.06271e-15 0)
(3 -5.89299e-16 0)
(3 -6.19981e-16 0)
(3 -8.72152e-16 0)
(3 5.6181e-16 0)
(3 3.75134e-16 0)
(3 4.97676e-16 0)
(3 3.44285e-16 0)
(3 3.2509e-16 0)
(3 -1.41876e-16 0)
(3 -5.85445e-16 0)
(3 -5.81007e-16 0)
(3 6.7985e-16 0)
(3 1.10886e-15 0)
(3 -3.1874e-16 0)
(3 -6.92703e-16 0)
(3 -3.06056e-16 0)
(3 4.67602e-16 0)
(3 -2.17796e-16 0)
(3 -6.96407e-16 0)
(3 -1.3447e-15 0)
(3 -8.22277e-16 0)
(3 5.34724e-17 0)
(3 5.17411e-16 0)
(3 6.16113e-17 0)
(3 -3.47053e-16 0)
(3 -3.21018e-16 0)
(3 -6.09509e-16 0)
(3 -6.00673e-16 0)
(3 -5.47407e-16 0)
(3 -4.84205e-16 0)
(3 -4.07914e-16 0)
(3 6.14611e-16 0)
(3 1.70184e-15 0)
(3 2.41043e-15 0)
(3 2.26955e-15 0)
(3 1.87251e-15 0)
(3 1.90066e-15 0)
(3 1.56112e-15 0)
(3 2.30737e-15 0)
(3 2.20524e-15 0)
(3 1.29243e-15 0)
(3 7.29818e-16 0)
(3 6.01592e-16 0)
(3 5.11251e-16 0)
(3 1.18692e-15 0)
(3 1.80793e-15 0)
(3 2.05947e-15 0)
(3 2.02873e-15 0)
(3 1.47995e-15 0)
(3 3.27419e-16 0)
(3 1.51489e-16 0)
(3 1.62028e-16 0)
(3 -3.62897e-16 0)
(3 -9.83283e-16 0)
(3 -1.07847e-15 0)
(3 -1.5661e-15 0)
(3 -2.21607e-15 0)
(3 -1.99203e-15 0)
(3 -2.51198e-15 0)
(3 -3.26793e-15 0)
(3 -3.13418e-15 0)
(3 -2.55618e-15 0)
(3 -2.8337e-15 0)
(3 -2.98932e-15 0)
(3 -3.30519e-15 0)
(3 -2.32412e-15 0)
(3 -1.32921e-15 0)
(3 -3.33317e-16 0)
(3 2.97482e-16 0)
(3 -6.04179e-17 0)
(1.43512 0.104073 0)
(0.653081 0.102812 0)
(0.597789 0.118995 0)
(0.591609 0.110449 0)
(0.576765 0.104749 0)
(0.558776 0.106129 0)
(0.53693 0.110365 0)
(0.519286 0.11541 0)
(0.509319 0.123341 0)
(0.508016 0.133065 0)
(0.511038 0.145091 0)
(0.515647 0.157804 0)
(0.516482 0.170186 0)
(3 -8.30881e-17 0)
(3 -3.88077e-16 0)
(3 -2.55272e-16 0)
(3 -5.54554e-17 0)
(3 7.51938e-16 0)
(3 1.45774e-15 0)
(3 1.1033e-15 0)
(3 2.67085e-16 0)
(3 4.79412e-16 0)
(3 9.93474e-16 0)
(3 7.46719e-16 0)
(3 8.33693e-16 0)
(3 4.86557e-16 0)
(3 -7.49257e-17 0)
(3 -6.96089e-16 0)
(3 -1.01333e-15 0)
(3 -8.44942e-16 0)
(3 -5.36607e-16 0)
(3 -3.97188e-16 0)
(3 -1.33957e-16 0)
(3 -1.86677e-16 0)
(3 -5.62414e-16 0)
(3 -9.00852e-16 0)
(3 -7.46669e-16 0)
(3 -3.69169e-16 0)
(3 -4.68253e-16 0)
(3 -9.67527e-16 0)
(3 -6.48236e-16 0)
(3 9.8883e-16 0)
(3 1.85372e-15 0)
(3 -5.9447e-16 0)
(3 -1.13862e-15 0)
(3 -1.17437e-15 0)
(3 -9.9991e-16 0)
(3 6.50712e-17 0)
(3 2.24851e-16 0)
(3 -2.92743e-16 0)
(3 -1.39409e-15 0)
(3 -1.82809e-15 0)
(3 -1.69492e-15 0)
(3 -1.30521e-15 0)
(3 -1.03624e-15 0)
(3 -4.53156e-16 0)
(3 3.70887e-16 0)
(3 2.70459e-16 0)
(3 1.86005e-15 0)
(3 2.16051e-15 0)
(3 1.84468e-15 0)
(3 1.79923e-15 0)
(3 2.2377e-15 0)
(3 2.21541e-15 0)
(3 9.83455e-16 0)
(3 8.76088e-16 0)
(3 1.15692e-15 0)
(3 1.18524e-15 0)
(3 1.66222e-15 0)
(3 1.9656e-15 0)
(3 2.79665e-15 0)
(3 2.91232e-15 0)
(3 2.90919e-15 0)
(3 2.3201e-15 0)
(3 2.48328e-15 0)
(3 1.67655e-15 0)
(3 4.37416e-16 0)
(3 -2.02298e-17 0)
(3 -7.97339e-16 0)
(3 -6.70476e-16 0)
(3 -6.79099e-16 0)
(3 -9.22705e-16 0)
(3 -1.11911e-15 0)
(3 -1.39412e-15 0)
(3 -2.30878e-15 0)
(3 -2.82806e-15 0)
(3 -1.99672e-15 0)
(3 -2.23085e-15 0)
(3 -1.58181e-15 0)
(3 -1.67128e-15 0)
(3 -9.14249e-16 0)
(3 -5.29646e-17 0)
(3 1.74702e-15 0)
(3 2.14957e-15 0)
(3 2.20852e-15 0)
(3 1.62541e-15 0)
(1.54231 0.114831 0)
(0.662265 0.118881 0)
(0.596236 0.128662 0)
(0.59284 0.117791 0)
(0.577328 0.111022 0)
(0.558324 0.11125 0)
(0.540112 0.115932 0)
(0.527361 0.12222 0)
(0.521866 0.130581 0)
(0.522409 0.14115 0)
(0.526501 0.15368 0)
(0.530092 0.166477 0)
(0.531115 0.177901 0)
(3 -3.45818e-16 0)
(3 -7.15134e-16 0)
(3 2.6255e-17 0)
(3 1.00758e-16 0)
(3 -2.0558e-16 0)
(3 -8.00549e-16 0)
(3 -6.86252e-16 0)
(3 -3.88047e-16 0)
(3 -6.21516e-17 0)
(3 4.70511e-16 0)
(3 6.04335e-16 0)
(3 8.84851e-16 0)
(3 8.88704e-16 0)
(3 -2.69911e-16 0)
(3 -1.91912e-16 0)
(3 1.70558e-17 0)
(3 -5.34781e-16 0)
(3 -9.0387e-16 0)
(3 -1.38567e-15 0)
(3 -1.09506e-15 0)
(3 -1.11814e-15 0)
(3 -8.62598e-16 0)
(3 -6.1566e-16 0)
(3 -7.17814e-16 0)
(3 -2.98739e-16 0)
(3 -2.76423e-16 0)
(3 2.94115e-16 0)
(3 4.80972e-16 0)
(3 1.36945e-15 0)
(3 1.00988e-15 0)
(3 1.29454e-15 0)
(3 7.4302e-16 0)
(3 5.98229e-16 0)
(3 6.10067e-16 0)
(3 1.01961e-15 0)
(3 7.43956e-16 0)
(3 -3.1945e-17 0)
(3 -1.92166e-15 0)
(3 -3.50544e-15 0)
(3 -3.43766e-15 0)
(3 -2.23329e-15 0)
(3 -3.06442e-16 0)
(3 2.64023e-16 0)
(3 7.23208e-16 0)
(3 1.27329e-16 0)
(3 3.40615e-16 0)
(3 5.05619e-16 0)
(3 7.91215e-16 0)
(3 9.67834e-16 0)
(3 8.09465e-16 0)
(3 5.52146e-16 0)
(3 -5.14286e-16 0)
(3 -4.5489e-16 0)
(3 2.14037e-17 0)
(3 6.14267e-17 0)
(3 1.10529e-15 0)
(3 1.73152e-15 0)
(3 2.58406e-15 0)
(3 3.09498e-15 0)
(3 3.32476e-15 0)
(3 2.34468e-15 0)
(3 1.53214e-15 0)
(3 9.35591e-16 0)
(3 -6.72506e-17 0)
(3 -1.11703e-15 0)
(3 -1.46504e-15 0)
(3 -1.66121e-15 0)
(3 -1.72232e-15 0)
(3 -1.63436e-15 0)
(3 -1.82374e-15 0)
(3 -2.31689e-15 0)
(3 -2.51717e-15 0)
(3 -2.76903e-15 0)
(3 -3.78548e-15 0)
(3 -2.13715e-15 0)
(3 -1.50683e-15 0)
(3 -1.85528e-15 0)
(3 -1.08225e-15 0)
(3 -2.16071e-16 0)
(3 1.83189e-15 0)
(3 2.91027e-15 0)
(3 3.27215e-15 0)
(3 3.04336e-15 0)
(1.66852 0.122784 0)
(0.672278 0.13381 0)
(0.595095 0.137936 0)
(0.592265 0.122241 0)
(0.574871 0.114413 0)
(0.557329 0.115457 0)
(0.544838 0.121363 0)
(0.53653 0.128686 0)
(0.534787 0.136827 0)
(0.537128 0.1478 0)
(0.541831 0.160644 0)
(0.543781 0.173041 0)
(0.544129 0.183745 0)
(3 9.82139e-17 0)
(3 1.72428e-16 0)
(3 1.17596e-17 0)
(3 -2.11292e-16 0)
(3 -9.90893e-16 0)
(3 -2.41311e-15 0)
(3 -2.3072e-15 0)
(3 -1.82212e-15 0)
(3 -1.68166e-15 0)
(3 -1.37661e-15 0)
(3 -3.43608e-16 0)
(3 8.80773e-16 0)
(3 1.44291e-15 0)
(3 6.33762e-16 0)
(3 1.96348e-16 0)
(3 5.05419e-17 0)
(3 -2.79811e-16 0)
(3 -7.36464e-16 0)
(3 -8.29376e-16 0)
(3 -6.93339e-16 0)
(3 -6.61492e-16 0)
(3 -7.9946e-16 0)
(3 -2.70848e-16 0)
(3 -5.25947e-16 0)
(3 -4.07195e-16 0)
(3 8.78756e-17 0)
(3 1.14043e-15 0)
(3 1.25486e-15 0)
(3 9.37834e-16 0)
(3 7.72882e-16 0)
(3 1.28312e-15 0)
(3 3.09011e-16 0)
(3 3.73501e-16 0)
(3 6.33219e-16 0)
(3 -1.54079e-16 0)
(3 -3.70815e-16 0)
(3 -4.23355e-16 0)
(3 -1.39626e-15 0)
(3 -2.1237e-15 0)
(3 -1.90307e-15 0)
(3 -1.46149e-15 0)
(3 -9.37002e-16 0)
(3 -6.62558e-16 0)
(3 -8.88787e-16 0)
(3 -5.48525e-16 0)
(3 4.11404e-17 0)
(3 8.18113e-16 0)
(3 1.53539e-15 0)
(3 1.27481e-15 0)
(3 6.31894e-16 0)
(3 6.40945e-16 0)
(3 7.54327e-16 0)
(3 7.43522e-16 0)
(3 7.15248e-16 0)
(3 6.48011e-16 0)
(3 1.44672e-15 0)
(3 1.48069e-15 0)
(3 1.04038e-15 0)
(3 1.25542e-15 0)
(3 1.00981e-15 0)
(3 4.8658e-16 0)
(3 -6.75575e-16 0)
(3 -9.07163e-16 0)
(3 -1.91464e-15 0)
(3 -3.31169e-15 0)
(3 -2.96189e-15 0)
(3 -3.03965e-15 0)
(3 -3.10583e-15 0)
(3 -2.97054e-15 0)
(3 -3.42507e-15 0)
(3 -2.75289e-15 0)
(3 -6.2666e-17 0)
(3 -7.17487e-16 0)
(3 -1.82739e-15 0)
(3 -2.44961e-16 0)
(3 4.29389e-16 0)
(3 5.74298e-16 0)
(3 2.42229e-16 0)
(3 8.68069e-16 0)
(3 9.33826e-16 0)
(3 1.34138e-15 0)
(3 1.83265e-15 0)
(3 1.35266e-15 0)
(1.81153 0.127218 0)
(0.685768 0.147496 0)
(0.593021 0.144468 0)
(0.588757 0.124038 0)
(0.570834 0.116492 0)
(0.558583 0.120255 0)
(0.550251 0.127766 0)
(0.546444 0.134788 0)
(0.547475 0.142708 0)
(0.551739 0.153984 0)
(0.556283 0.166476 0)
(0.556438 0.177565 0)
(0.555276 0.186925 0)
(3 3.66673e-17 0)
(3 6.90362e-16 0)
(3 2.01005e-16 0)
(3 5.24022e-16 0)
(3 4.32652e-16 0)
(3 1.52802e-16 0)
(3 1.01621e-16 0)
(3 -1.53906e-16 0)
(3 -5.76805e-16 0)
(3 -6.67503e-16 0)
(3 4.02251e-16 0)
(3 1.18619e-15 0)
(3 6.55763e-16 0)
(3 -7.69646e-16 0)
(3 -1.26312e-15 0)
(3 -4.3723e-16 0)
(3 -1.18837e-16 0)
(3 -1.82479e-16 0)
(3 -3.59505e-17 0)
(3 -2.16681e-16 0)
(3 -3.85329e-16 0)
(3 -4.67029e-16 0)
(3 1.15116e-16 0)
(3 3.46082e-16 0)
(3 2.35987e-16 0)
(3 2.15511e-16 0)
(3 3.59659e-16 0)
(3 3.67984e-16 0)
(3 7.50674e-17 0)
(3 1.09335e-15 0)
(3 1.52209e-15 0)
(3 1.57477e-15 0)
(3 1.30967e-15 0)
(3 8.43568e-16 0)
(3 2.19398e-16 0)
(3 4.34149e-17 0)
(3 1.51606e-16 0)
(3 3.25868e-16 0)
(3 -2.12978e-16 0)
(3 -7.30326e-16 0)
(3 -7.44332e-16 0)
(3 -1.05778e-15 0)
(3 -1.1229e-15 0)
(3 -1.53888e-15 0)
(3 -6.12202e-16 0)
(3 5.59903e-16 0)
(3 -5.28878e-17 0)
(3 7.58715e-16 0)
(3 9.6977e-16 0)
(3 1.11489e-15 0)
(3 8.50619e-16 0)
(3 7.20941e-16 0)
(3 3.2498e-16 0)
(3 5.18783e-16 0)
(3 8.10467e-16 0)
(3 9.26747e-16 0)
(3 9.04275e-16 0)
(3 6.77824e-16 0)
(3 3.80693e-16 0)
(3 -2.48929e-17 0)
(3 -8.86829e-16 0)
(3 -1.66276e-15 0)
(3 -1.62976e-15 0)
(3 -9.87113e-16 0)
(3 -6.8847e-16 0)
(3 -1.50726e-15 0)
(3 -2.65148e-15 0)
(3 -1.89789e-15 0)
(3 -1.27938e-15 0)
(3 -5.8237e-16 0)
(3 6.98305e-16 0)
(3 2.79413e-15 0)
(3 3.31144e-15 0)
(3 3.10792e-15 0)
(3 1.62927e-15 0)
(3 1.56791e-15 0)
(3 1.79932e-15 0)
(3 1.52155e-15 0)
(3 6.84408e-16 0)
(3 -1.13826e-15 0)
(3 -7.73942e-16 0)
(3 6.19102e-17 0)
(3 1.31601e-16 0)
(1.96912 0.127672 0)
(0.7027 0.159158 0)
(0.58997 0.145912 0)
(0.58319 0.123837 0)
(0.568782 0.119563 0)
(0.561749 0.126106 0)
(0.556284 0.134619 0)
(0.556365 0.141007 0)
(0.560153 0.149462 0)
(0.565559 0.160695 0)
(0.56856 0.171621 0)
(0.567149 0.180241 0)
(0.5645 0.187707 0)
(3 1.16208e-17 0)
(3 -1.393e-16 0)
(3 1.83401e-16 0)
(3 5.0511e-16 0)
(3 9.20393e-16 0)
(3 8.10925e-16 0)
(3 4.17301e-16 0)
(3 3.93229e-16 0)
(3 -1.07358e-17 0)
(3 -5.94281e-16 0)
(3 -8.81709e-16 0)
(3 -3.02933e-16 0)
(3 -7.65906e-16 0)
(3 -2.06119e-16 0)
(3 5.02659e-17 0)
(3 -1.22269e-16 0)
(3 5.66011e-16 0)
(3 8.67914e-16 0)
(3 1.29967e-15 0)
(3 1.60586e-15 0)
(3 2.3827e-16 0)
(3 1.0987e-16 0)
(3 1.23514e-16 0)
(3 -2.08076e-16 0)
(3 -4.42239e-16 0)
(3 -6.57209e-16 0)
(3 -5.48258e-16 0)
(3 2.20153e-16 0)
(3 8.6203e-16 0)
(3 7.87582e-16 0)
(3 2.5174e-16 0)
(3 7.37496e-16 0)
(3 5.0778e-16 0)
(3 6.80851e-16 0)
(3 1.10278e-15 0)
(3 1.37526e-15 0)
(3 9.48385e-16 0)
(3 1.01996e-15 0)
(3 8.44732e-16 0)
(3 6.43085e-16 0)
(3 -5.29894e-16 0)
(3 -1.68987e-16 0)
(3 -3.91893e-16 0)
(3 -5.73975e-17 0)
(3 5.23991e-17 0)
(3 3.49768e-16 0)
(3 -1.28647e-15 0)
(3 -1.51661e-15 0)
(3 -5.64424e-17 0)
(3 8.81846e-16 0)
(3 1.18905e-15 0)
(3 -5.55054e-16 0)
(3 -1.59277e-15 0)
(3 -2.01606e-15 0)
(3 -1.14662e-15 0)
(3 -7.93493e-16 0)
(3 1.5998e-16 0)
(3 5.99802e-16 0)
(3 8.58194e-16 0)
(3 4.75511e-16 0)
(3 -3.83011e-16 0)
(3 -7.2624e-16 0)
(3 -1.42058e-15 0)
(3 -7.67983e-16 0)
(3 -4.76249e-16 0)
(3 -6.79035e-16 0)
(3 -1.18984e-15 0)
(3 -2.40414e-15 0)
(3 -1.96282e-15 0)
(3 4.42725e-16 0)
(3 1.1634e-15 0)
(3 1.42874e-15 0)
(3 2.02633e-15 0)
(3 2.24449e-15 0)
(3 1.77167e-15 0)
(3 7.87719e-16 0)
(3 1.25443e-15 0)
(3 2.08949e-15 0)
(3 9.21329e-16 0)
(3 6.89655e-16 0)
(3 7.23827e-16 0)
(3 6.81316e-16 0)
(3 6.56924e-16 0)
(2.14052 0.123819 0)
(0.722735 0.167324 0)
(0.585357 0.142295 0)
(0.57893 0.123201 0)
(0.571026 0.123745 0)
(0.565535 0.13245 0)
(0.563254 0.141869 0)
(0.566967 0.148362 0)
(0.572792 0.157562 0)
(0.577219 0.167875 0)
(0.577573 0.176358 0)
(0.57515 0.18263 0)
(0.572212 0.188402 0)
(3 5.51217e-17 0)
(3 -8.9635e-16 0)
(3 -9.47751e-16 0)
(3 -1.16149e-15 0)
(3 -4.86057e-16 0)
(3 4.65317e-16 0)
(3 6.39885e-16 0)
(3 8.11698e-16 0)
(3 7.68384e-16 0)
(3 -4.64143e-16 0)
(3 -1.09114e-15 0)
(3 -1.0461e-15 0)
(3 -7.73122e-16 0)
(3 8.88169e-17 0)
(3 8.38941e-16 0)
(3 9.41614e-16 0)
(3 1.35418e-15 0)
(3 1.38004e-15 0)
(3 1.32917e-15 0)
(3 1.34428e-15 0)
(3 1.16562e-16 0)
(3 -2.67666e-16 0)
(3 -5.06036e-16 0)
(3 -7.76231e-16 0)
(3 -1.34103e-15 0)
(3 -1.38945e-15 0)
(3 -3.64728e-16 0)
(3 7.81444e-16 0)
(3 4.9065e-16 0)
(3 1.55414e-16 0)
(3 -2.02448e-16 0)
(3 -2.73125e-16 0)
(3 1.34729e-16 0)
(3 9.19704e-16 0)
(3 1.61044e-15 0)
(3 1.87677e-15 0)
(3 1.86854e-15 0)
(3 2.09999e-15 0)
(3 1.85964e-15 0)
(3 1.1727e-15 0)
(3 1.01854e-15 0)
(3 1.33606e-15 0)
(3 1.07989e-15 0)
(3 1.02603e-15 0)
(3 7.44001e-16 0)
(3 -4.62365e-16 0)
(3 -6.24339e-16 0)
(3 -9.09227e-16 0)
(3 1.34918e-16 0)
(3 8.20475e-16 0)
(3 1.02769e-15 0)
(3 7.92134e-16 0)
(3 1.11391e-16 0)
(3 -4.44316e-16 0)
(3 3.80522e-17 0)
(3 5.79218e-16 0)
(3 1.82815e-16 0)
(3 9.31855e-17 0)
(3 5.94266e-17 0)
(3 6.15482e-17 0)
(3 7.73393e-16 0)
(3 9.1638e-16 0)
(3 7.87709e-16 0)
(3 -4.0208e-16 0)
(3 -4.90046e-16 0)
(3 3.1123e-16 0)
(3 1.63904e-16 0)
(3 2.80258e-16 0)
(3 -6.07686e-17 0)
(3 8.16682e-16 0)
(3 2.20595e-15 0)
(3 2.14037e-15 0)
(3 1.90484e-15 0)
(3 1.98414e-15 0)
(3 1.68194e-15 0)
(3 7.52116e-16 0)
(3 4.88199e-16 0)
(3 8.44275e-16 0)
(3 5.08457e-16 0)
(3 4.8537e-16 0)
(3 6.00115e-16 0)
(3 1.06747e-15 0)
(3 7.02612e-16 0)
(2.32297 0.115581 0)
(0.745736 0.17069 0)
(0.58103 0.135603 0)
(0.579697 0.123873 0)
(0.574632 0.128348 0)
(0.570604 0.139792 0)
(0.57226 0.149822 0)
(0.578714 0.157307 0)
(0.583886 0.166167 0)
(0.585461 0.17439 0)
(0.583528 0.180733 0)
(0.580998 0.185499 0)
(0.578216 0.189929 0)
(3 1.1359e-16 0)
(3 -1.09602e-16 0)
(3 -2.65015e-16 0)
(3 -6.2608e-16 0)
(3 -1.7945e-16 0)
(3 3.76602e-16 0)
(3 1.78705e-15 0)
(3 2.13909e-15 0)
(3 2.46494e-15 0)
(3 1.58013e-15 0)
(3 -4.03623e-16 0)
(3 -9.05119e-16 0)
(3 -8.25252e-16 0)
(3 -5.55651e-16 0)
(3 -3.1697e-16 0)
(3 4.27634e-16 0)
(3 9.775e-16 0)
(3 1.01478e-15 0)
(3 -9.25908e-16 0)
(3 -1.35534e-15 0)
(3 -1.14958e-15 0)
(3 -1.09858e-15 0)
(3 -5.52253e-16 0)
(3 -3.71381e-16 0)
(3 -4.31212e-16 0)
(3 -1.53213e-15 0)
(3 -4.98607e-16 0)
(3 3.64759e-16 0)
(3 -2.69884e-16 0)
(3 -3.23109e-16 0)
(3 2.9441e-16 0)
(3 9.45782e-16 0)
(3 8.59759e-16 0)
(3 7.77362e-16 0)
(3 -1.25427e-16 0)
(3 -3.85181e-16 0)
(3 1.02223e-15 0)
(3 1.62393e-15 0)
(3 2.30725e-15 0)
(3 2.33767e-15 0)
(3 2.55765e-15 0)
(3 2.26126e-15 0)
(3 2.02125e-15 0)
(3 1.31902e-15 0)
(3 9.60808e-16 0)
(3 8.86573e-17 0)
(3 -5.41019e-16 0)
(3 -6.47276e-16 0)
(3 -3.39807e-16 0)
(3 8.78227e-16 0)
(3 1.13346e-15 0)
(3 1.31345e-15 0)
(3 1.62922e-15 0)
(3 1.33836e-15 0)
(3 1.25293e-15 0)
(3 1.08615e-15 0)
(3 5.36832e-16 0)
(3 7.94831e-17 0)
(3 -2.94687e-16 0)
(3 5.67164e-18 0)
(3 8.18401e-16 0)
(3 1.74963e-15 0)
(3 1.8614e-15 0)
(3 1.53679e-15 0)
(3 2.23047e-15 0)
(3 2.5738e-15 0)
(3 2.14277e-15 0)
(3 2.06656e-15 0)
(3 2.59687e-15 0)
(3 1.45005e-15 0)
(3 1.84525e-15 0)
(3 1.87723e-15 0)
(3 1.52943e-15 0)
(3 6.60592e-16 0)
(3 7.73197e-17 0)
(3 4.63546e-17 0)
(3 -5.61396e-16 0)
(3 -8.96537e-16 0)
(3 -3.78814e-16 0)
(3 -8.39875e-16 0)
(3 -3.28895e-16 0)
(3 1.56172e-15 0)
(3 1.94806e-15 0)
(2.51071 0.0997622 0)
(0.775253 0.169141 0)
(0.579812 0.130456 0)
(0.583032 0.125828 0)
(0.579971 0.133239 0)
(0.578719 0.148513 0)
(0.583836 0.159126 0)
(0.589928 0.166496 0)
(0.591784 0.173164 0)
(0.590579 0.179295 0)
(0.58781 0.184362 0)
(0.585073 0.187946 0)
(0.582248 0.191193 0)
(3 1.9261e-16 0)
(3 8.64932e-16 0)
(3 1.39202e-15 0)
(3 7.33491e-16 0)
(3 1.17196e-16 0)
(3 -5.61429e-16 0)
(3 -4.24559e-16 0)
(3 2.29658e-16 0)
(3 7.46827e-16 0)
(3 1.57523e-15 0)
(3 2.13076e-16 0)
(3 1.74546e-16 0)
(3 1.15629e-15 0)
(3 1.60224e-15 0)
(3 1.2357e-15 0)
(3 7.67809e-16 0)
(3 9.50017e-16 0)
(3 5.78108e-16 0)
(3 -1.66904e-15 0)
(3 -3.2861e-15 0)
(3 -2.51991e-15 0)
(3 -6.883e-16 0)
(3 -9.93579e-16 0)
(3 -1.06316e-15 0)
(3 -6.98706e-16 0)
(3 -6.82732e-16 0)
(3 -1.52849e-16 0)
(3 -1.33766e-16 0)
(3 -2.91662e-16 0)
(3 -1.58213e-16 0)
(3 3.27553e-16 0)
(3 7.35471e-16 0)
(3 4.76837e-16 0)
(3 -3.85503e-16 0)
(3 -7.39926e-16 0)
(3 -7.60605e-16 0)
(3 -4.44366e-16 0)
(3 7.42154e-16 0)
(3 2.58216e-15 0)
(3 3.53012e-15 0)
(3 2.87909e-15 0)
(3 2.44188e-15 0)
(3 2.2933e-15 0)
(3 2.02974e-15 0)
(3 1.93703e-15 0)
(3 1.69239e-15 0)
(3 1.2421e-15 0)
(3 1.79364e-16 0)
(3 -2.76897e-16 0)
(3 -3.41492e-16 0)
(3 3.47634e-16 0)
(3 9.76993e-16 0)
(3 1.14304e-15 0)
(3 1.46792e-15 0)
(3 1.47e-15 0)
(3 8.99865e-16 0)
(3 5.48618e-16 0)
(3 -3.64045e-16 0)
(3 -8.21902e-16 0)
(3 -1.80201e-15 0)
(3 -3.54247e-16 0)
(3 2.68515e-16 0)
(3 1.04491e-15 0)
(3 1.53302e-15 0)
(3 2.09079e-15 0)
(3 2.15473e-15 0)
(3 2.44892e-15 0)
(3 2.62492e-15 0)
(3 2.54239e-15 0)
(3 1.39887e-15 0)
(3 6.56065e-16 0)
(3 -5.02107e-16 0)
(3 1.83138e-16 0)
(3 1.53094e-16 0)
(3 4.24594e-17 0)
(3 5.31144e-17 0)
(3 5.9212e-16 0)
(3 1.37283e-15 0)
(3 2.30849e-15 0)
(3 2.5852e-15 0)
(3 1.86616e-15 0)
(3 1.46697e-15 0)
(3 1.96857e-15 0)
(2.68513 0.0774035 0)
(0.817265 0.163036 0)
(0.581753 0.128655 0)
(0.588647 0.12781 0)
(0.587699 0.141819 0)
(0.590188 0.158973 0)
(0.595641 0.167912 0)
(0.597789 0.172295 0)
(0.596843 0.176658 0)
(0.593904 0.182393 0)
(0.590694 0.186534 0)
(0.587605 0.18877 0)
(0.584804 0.191202 0)
(3 2.34313e-16 0)
(3 -3.86198e-16 0)
(3 -3.03373e-16 0)
(3 -1.45882e-16 0)
(3 -3.44669e-16 0)
(3 -3.0977e-16 0)
(3 -1.08566e-15 0)
(3 -1.16819e-15 0)
(3 -5.21253e-16 0)
(3 2.52726e-16 0)
(3 6.20286e-16 0)
(3 6.42521e-16 0)
(3 8.81381e-16 0)
(3 1.21368e-15 0)
(3 1.40674e-15 0)
(3 9.91578e-16 0)
(3 -3.49015e-16 0)
(3 -6.68503e-16 0)
(3 -6.88556e-16 0)
(3 -5.37582e-16 0)