/*--------------------------------*- C++ -*----------------------------------*\
  =========                 |
  \\      /  F ield         | OpenFOAM: The Open Source CFD Toolbox
   \\    /   O peration     | Website:  https://openfoam.org
    \\  /    A nd           | Version:  7
     \\/     M anipulation  |
\*---------------------------------------------------------------------------*/
FoamFile
{
    version     2.0;
    format      ascii;
    class       volScalarField;
    location    "1.1";
    object      p;
}
// * * * * * * * * * * * * * * * * * * * * * * * * * * * * * * * * * * * * * //

dimensions      [1 -1 -2 0 0 0 0];

internalField   nonuniform List<scalar> 
18432
(
1
1
1
1
1
1
1
1
1
1
1
1
1
1
1
1
1
1
1
1
1
1
1
1
1
1
1
1
1
1
1
1
1
1
1
1
1
1
1
1
1
1
1
1
1
1
1
1
1
1
1
1
1
1
1
1
1
1
1
1
1
1
1
1
1
1
1
1
1
1
1
1
1
1
1
1
1
1
1
1
1
1
1
1
1
1
1
1
1
1
1
1
1
1
1
1
1
1
1
1
1
1
1
1
1
1
1
1
1
1
1
1
1
1
1
1
1
1
1
1
1
1
1
1
1
1
1
1
1
1
1
1
1
1
1
1
1
1
1
1
1
1
1
1
1
1
1
1
1
1
1
1
1
1
1
1
1
1
1
1
1
1
1
1
1
1
1
1
1
1
1
1
1
1
1
1
1
1
1
1
1
1
1
1
1
1
1
1
1
1
1
1
1
1
1
1
1
1
1
1
1
1
1
1
1
1
1
1
1
1
1
1
1
1
1
1
1
1
1
1
1
1
1
1
1
1
1
1
1
1
1
1
1
1
1
1
1
1
1
1
1
1
1
1
1
1
1
1
1
1
1
1
1
1
1
1
1
1
1
1
1
1
1
1
1
1
1
1
1
1
1
1
1
1
1
1
1
1
1
1
1
1
1
1
1
1
1
1
1
1
1
1
1
1
1
1
1
1
1
1
1
1
1
1
1
1
1
1
1
1
1
1
1
1
1
1
1
1
1
1
1
1
1
1
1
1
1
1
1
1
1
1
1
1
1
1
1
1
1
1
1
1
1
1
1
1
1
1
1
1
1
1
1
1
1
1
1
1
1
1
1
1
1
1
1
1
1
1
1
1
1
1
1
1
1
1
1
1
1
1
1
1
1
1
1
1
1
1
1
1
1
1
1
1
1
1
1
1
1
1
1
1
1
1
1
1
1
1
1
1
1
1
1
1
1
1
1
1
1
1
1
1
1
1
1
1
1
1
1
1
1
1
1
1
1
1
1
1
1
1
1
1
1
1
1
1
1
1
1
1
1
1
1
1
1
1
1
1
1
1
1
1
1
1
1
1
1
1
1
1
1
1
1
1
1
1
1
1
1
1
1
1
1
1
1
1
1
1
1
1
1
1
1
1
1
1
1
1
1
1
1
1
1
1
1
1
1
1
1
1
1
1
1
1
1
1
1
1
1
1
1
1
1
1
1
1
1
1
1
1
1
1
1
1
1
1
1
1
1
1
1
1
1
1
1
1
1
1
1
1
1
1
1
1
1
1
1
1
1
1
1
1
1
1
1
1
1
1
1
1
1
1
1
1
1
1
1
1
1
1
1
1
1
1
1
1
1
1
1
1
1
1
1
1
1
1
1
1
1
1
1
1
1
1
1
1
1
1
1
1
1
1
1
1
1
1
1
1
1
1
1
1
1
1
1
1
1
1
1
1
1
1
1
1
1
1
1
1
1
1
1
1
1
1
1
1
1
1
1
1
1
1
1
1
1
1
1
1
1
1
1
1
1
1
1
1
1
1
1
1
1
1
1
1
1
1
1
1
1
1
1
1
1
1
1
1
1
1
1
1
1
1
1
1
1
1
1
1
1
1
1
1
1
1
1
1
1
1
1
1
1
1
1
1
1
1
1
1
1
1
1
1
1
1
1
1
1
1
1
1
1
1
1
1
1
1
1
1
1
1
1
1
1
1
1
1
1
1
1
1
1
1
1
1
1
1
1
1
1
1
1
1
1
1
1
1
1
1
1
1
1
1
1
1
1
1
1
1
1
1
1
1
1
1
1
1
1
1
1
1
1
1
1
1
1
1
1
1
1
1
1
1
1
1
1
1
1
1
1
1
1
1
1
1
1
1
1
1
1
1
1
1
1
1
1
1
1
1
1
1
1
1
1
1
1
1
1
1
1
1
1
1
1
1
1
1
1
1
1
1
1
1
1
1
1
1
1
1
1
1
1
1
1
1
1
1
1
1
1
1
1
1
1
1
1
1
1
1
1
1
1
1
1
1
1
1
1
1
1
1
1
1
1
1
1
1
1
1
1
1
1
1
1
1
1
1
1
1
1
1
1
1
1
1
1
1
1
1
1
1
1
1
1
1
1
1
1
1
1
1
1
1
1
1
1
1
1
1
1
1
1
1
1
1
1
1
1
1
1
1
1
1
1
1
1
1
1
1
1
1
1
1
1
1
1
1
1
1
1
1
1
1
1
1
1
1
1
1
1
1
1
1
1
1
1
1
1
1
1
1
1
1
1
1
1
1
1
1
1
1
1
1
1
1
1
1
1
1
1
1
1
1
1
1
1
1
1
1
1
1
1
1
1
1
1
1
1
1
1
1
1
1
1
1
1
1
1
1
1
1
1
1
1
1
1
1
1
1
1
1
1
1
1
1
1
1
1
1
1
1
1
1
1
1
1
1
1
1
1
1
1
1
1
1
1
1
1
1
1
1
1
1
1
1
1
1
1
1
1
1
1
1
1
1
1
1
1
1
1
1
1
1
1
1
1
1
1
1
1
1
1
1
1
1
1
1
1
1
1
1
1
1
1
1
1
1
1
1
1
1
1
1
1
1
1
1
1
1
1
1
1
1
1
1
1
1
1
1
1
1
1
1
1
1
1
1
1
1
1
1
1
1
1
1
1
1
1
1
1
1
1
1
1
1
1
1
1
1
1
1
1
1
1
1
1
1
1
1
1
1
1
1
1
1
1
1
1
1
1
1
1
1
1
1
1
1
1
1
1
1
1
1
1
1
1
1
1
1
1
1
1
1
1
1
1
1
1
1
1
1
1
1
1
1
1
1
1
1
1
1
1
1
1
1
1
1
1
1
1
1
1
1
1
1
1
1
1
1
1
1
1
1
1
1
1
1
1
1
1
1
1
1
1
1
1
1
1
1
1
1
1
1
1
1
1
1
1
1
1
1
1
1
1
1
1
1
1
1
1
1
1
1
1
1
1
1
1
1
1
1
1
1
1
1
1
1
1
1
1
1
1
1
1
1
1
1
1
1
1
1
1
1
1
1
1
1
1
1
1
1
1
1
1
1
1
1
1
1
1
1
1
1
1
1
1
1
1
1
1
1
1
1
1
1
1
1
1
1
1
1
1
1
1
1
1
1
1
1
1
1
1
1
1
1
1
1
1
1
1
1
1
1
1
1
1
1
1
1
1
1
1
1
1
1
1
1
1
1
1
1
1
1
1
1
1
1
1
1
1
1
1
1
1
1
1
1
1
1
1
1
1
1
1
1
1
1
1
1
1
1
1
1
1
1
1
1
1
1
1
1
1
1
1
1
1
1
1
1
1
1
1
1
1
1
1
1
1
1
1
1
1
1
1
1
1
1
1
1
1
1
1
1
1
1
1
1
1
1
1
1
1
1
1
1
1
1
1
1
1
1
1
1
1
1
1
1
1
1
1
1
1
1
1
1
1
1
1
1
1
1
1
1
1
1
1
1
1
1
1
1
1
1
1
1
1
1
1
1
1
1
1
1
1
1
1
1
1
1
1
1
1
1
1
1
1
1
1
1
1
1
1
1
1
1
1
1
1
1
1
1
1
1
1
1
1
1
1
1
1
1
1
1
1
1
1
1
1
1
1
1
1
1
1
1
1
1
1
1
1
1
1
1
1
1
1
1
1
1
1
1
1
1
1
1
1
1
1
1
1
1
1
1
1
1
1
1
1
1
1
1
1
1
1
1
1
1
1
1
1
1
1
1
1
1
1
1
1
1
1
1
1
1
1
1
1
1
1
1
1
1
1
1
1
1
1
1
1
1
1
1
1
1
1
1
1
1
1
1
1
1
1
1
1
1
1
1
1
1
1
1
1
1
1
1
1
1
1
1
1
1
1
1
1
1
1
1
1
1
1
1
1
1
1
1
1
1
1
1
1
1
1
1
1
1
1
1
1
1
1
1
1
1
1
1
1
1
1
1
1
1
1
1
1
1
1
1
1
1
1
1
1
1
1
1
1
1
1
1
1
1
1
1
1
1
1
1
1
1
1
1
1
1
1
1
1
1
1
1
1
1
1
1
1
1
1
1
1
1
1
1
1
1
1
1
1
1
1
1
1
1
1
1
1
1
1
1
1
1
1
1
1
1
1
1
1
1
1
1
1
1
1
1
1
1
1
1
1
1
1
1
1
1
1
1
1
1
1
1
1
1
1
1
1
1
1
1
1
1
1
1
1
1
1
1
1
1
1
1
1
1
1
1
1
1
1
1
1
1
1
1
1
1
1
1
1
1
1
1
1
1
1
1
1
1
1
1
1
1
1
1
1
1
1
1
1
1
1
1
1
1
1
1
1
1
1
1
1
1
1
1
1
1
1
1
1
1
1
1
1
1
1
1
1
1
1
1
1
1
1
1
1
1
1
1
1
1
1
1
1
1
1
1
1
1
1
1
1
1
1
1
1
1
1
1
1
1
1
1
1
1
1
1
1
1
1
1
1
1
1
1
1
1
1
1
1
1
1
1
1
1
1
1
1
1
1
1
1
1
1
1
1
1
1
1
1
1
1
1
1
1
1
1
1
1
1
1
1
1
1
1
1
1
1
1
1
1
1
1
1
1
1
1
1
1
1
1
1
1
1
1
1
1
1
1
1
1
1
1
1
1
1
1
1
1
1
1
1
1
1
1
1
1
1
1
1
1
1
1
1
1
1
1
1
1
1
1
1
1
1
1
1
1
1
1
1
1
1
1
1
1
1
1
1
1
1
1
1
1
1
1
1
1
1
1
1
1
1
1
1
1
1
1
1
1
1
1
1
1
1
1
1
1
1
1
1
1
1
1
1
1
1
1
1
1
1
1
1
1
1
1
1
1
1
1
1
1
1
1
1
1
1
1
1
1
1
1
1
1
1
1
1
1
1
1
1
1
1
1
1
1
1
1
1
1
1
1
1
1
1
1
1
1
1
1
1
1
1
1
1
1
1
1
1
1
1
1
1
1
1
1
1
1
1
1
1
1
1
1
1
1
1
1
1
1
1
1
1
1
1
1
1
1
1
1
1
1
1
1
1
1
1
1
1
1
1
1
1
1
1
1
1
1
1
1
1
1
1
1
1
1
1
1
1
1
1
1
1
1
1
1
1
1
1
1
1
1
1
1
1
1
1
1
1
1
1
1
1
1
1
1
1
1
1
1
1
1
1
1
1
1
1
1
1
1
1
1
1
1
1
1
1
1
1
1
1
1
1
1
1
1
1
1
1
1
1
1
1
1
1
1
1
1
1
1
1
1
1
1
1
1
1
1
1
1
1
1
1
1
1
1
1
1
1
1
1
1
1
1
1
1
1
1
1
1
1
1
1
1
1
1
1
1
1
1
1
1
1
1
1
1
1
1
1
1
1
1
1
1
1
1
1
1
1
1
1
1
1
1
1
1
1
1
1
1
1
1
1
1
1
1
1
1
1
1
1
1
1
1
1
1
1
1
1
1
1
1
1
1
1
1
1
1
1
1
1
1
1
1
1
1
1
1
1
1
1
1
1
1
1
1
1
1
1
1
1
1
1
1
1
1
1
1
1
1
1
1
1
1
1
1
1
1
1
1
1
1
1
1
1
1
1
1
1
1
1
1
1
1
1
1
1
1
1
1
1
1
1
1
1
1
1
1
1
1
1
1
1
1
1
1
1
1
1
1
1
1
1
1
1
1
1
1
1
1
1
1
1
1
1
1
1
1
1
1
1
1
1
1
1
1
1
1
1
1
1
1
1
1
1
1
1
1
1
1
1
1
1
1
1
1
1
1
1
1
1
1
1
1
1
1
1
1
1
1
1
1
1
1
1
1
1
1
1
1
1
1
1
1
1
1
1
1
1
1
1
1
1
1
1
1
1
1
1
1
1
1
1
1
1
1
1
1
1
1
1
1
1
1
1
1
1
1
1
1
1
1
1
1
1
1
1
1
1
1
1
1
1
1
1
1
1
1
1
1
1
1
1
1
1
1
1
1
1
1
1
1
1
1
1
1
1
1
1
1
1
1
1
1
1
1
1
1
1
1
1
1
1
1
1
1
1
1
1
1
1
1
1
1
1
1
1
1
1
1
1
1
1
1
1
1
1
1
1
1
1
1
1
1
1
1
1
1
1
1
1
1
1
1
1
1
1
1
1
1
1
1
1
1
1
1
1
1
1
1
1
1
1
1
1
1
1
1
1
1
1
1
1
1
1
1
1
1
1
1
1
1
1
1
1
1
1
1
1
1
1
1
1
1
1
1
1
1
1
1
1
1
1
1
1
1
1
1
1
1
1
1
1
1
1
1
1
1
1
1
1
1
1
1
1
1
1
1
1
1
1
1
1
1
1
1
1
1
1
1
1
1
1
1
1
1
1
1
1
1
1
1
1
1
1
1
1
1
1
1
1
1
1
1
1
1
1
1
1
1
1
1
1
1
1
1
1
1
1
1
1
1
1
1
1
1
1
1
1
1
1
1
1
1
1
1
1
1
1
1
1
1
1
1
1
1
1
1
1
1
1
1
1
1
1
1
1
1
1
1
1
1
1
1
1
1
1
1
1
1
1
1
1
1
1
1
1
1
1
1
1
1
1
1
1
1
1
1
1
1
1
1
1
1
1
1
1
1
1
1
1
1
1
1
1
1
1
1
1
1
1
1
1
1
1
1
1
1
1
1
1
1
1
1
1
1
1
1
1
1
1
1
1
1
1
1
1
1
1
1
1
1
1
1
1
1
1
1
1
1
1
1
1
1
1
1
1
1
1
1
1
1
1
1
1
1
1
1
1
1
1
1
1
1
1
1
1
1
1
1
1
1
1
1
1
1
1
1
1
1
1
1
1
1
1
1
1
1
1
1
1
1
1
1
1
1
1
1
1
1
1
1
1
1
1
1
1
1
1
1
1
1
1
1
1
1
1
1
1
1
1
1
1
1
1
1
1
1
1
1
1
1
1
1
1
1
1
1
1
1
1
1
1
1
1
1
1
1
1.28935
1.75979
2.31599
2.87686
3.58469
4.16415
4.65502
5.12038
5.34615
5.25427
4.9199
4.47182
4.08857
3.79554
3.66244
3.57653
3.555
3.5701
3.60679
3.64788
3.68605
3.70573
3.71691
3.7273
3.73931
3.75142
3.76087
3.76666
3.77189
3.7809
3.793
3.79942
3.79929
3.7961
3.78882
3.77904
3.77129
3.76735
3.76538
3.76518
3.76518
3.76725
3.76935
3.76957
3.76925
3.76831
3.7667
3.76736
1.00203
1.01405
1.0759
1.2034
1.40848
1.76963
2.21487
2.75357
3.31806
3.73514
3.88555
4.06253
4.05741
3.96041
3.83899
3.78612
3.74583
3.69762
3.67253
3.66869
3.68047
3.70521
3.7279
3.73897
3.74213
3.74615
3.75243
3.75543
3.7573
3.7618
3.76876
3.7758
3.78033
3.78134
3.77943
3.77529
3.77119
3.77007
3.77106
3.7733
3.77639
3.77901
3.7792
3.77827
3.77589
3.77072
3.76655
3.7677
1
0.999977
1.00007
1.00007
1.00129
1.01343
1.06124
1.22216
1.60128
2.35764
3.30589
3.92684
4.3158
4.32333
4.24876
4.11192
3.97651
3.79562
3.68041
3.677
3.68861
3.71292
3.74129
3.75174
3.75458
3.75105
3.75156
3.75511
3.75715
3.76031
3.76416
3.76811
3.76856
3.76709
3.76417
3.76154
3.761
3.76252
3.76581
3.77152
3.77967
3.78587
3.78722
3.78634
3.78371
3.77798
3.77195
3.77306
1
1
1
1
0.999998
1
0.999996
1.00009
1.00551
1.06987
1.43876
2.11789
3.22778
3.75267
4.04156
4.02269
3.93318
3.90479
3.84919
3.78101
3.76632
3.73204
3.72041
3.71983
3.72652
3.7331
3.74531
3.75932
3.76747
3.77271
3.77677
3.7767
3.77583
3.77299
3.77025
3.76857
3.76669
3.76649
3.76889
3.77359
3.77951
3.78305
3.78286
3.78053
3.77605
3.77034
3.76888
3.77083
1
1
1
1
1
1
1
0.999999
1
0.99992
1.00242
1.03928
1.30173
1.97705
2.85771
3.73852
3.90818
4.00505
3.98581
3.93073
3.81355
3.72029
3.67818
3.66763
3.67517
3.68405
3.70062
3.72427
3.74709
3.76606
3.77914
3.78193
3.78225
3.77961
3.77838
3.77828
3.77727
3.7766
3.77822
3.78163
3.78432
3.78411
3.78183
3.7778
3.77115
3.76584
3.76457
3.76602
1
1
1
1
1
1
1
1
1
0.999997
0.999997
0.999953
1.0008
1.0316
1.20249
1.83929
2.67431
3.5043
3.89163
3.87116
3.85708
3.81006
3.75467
3.72085
3.69288
3.6846
3.68706
3.70062
3.72078
3.74118
3.75863
3.77135
3.77331
3.7734
3.77266
3.77172
3.76959
3.76872
3.77122
3.77439
3.77447
3.77252
3.76999
3.76707
3.76399
3.76257
3.76126
3.76661
1
1
1
1
1
1
1
1
1
1
1
0.999998
0.999998
0.999969
1.00038
1.02149
1.19021
1.6654
2.53551
3.21795
3.77208
3.87687
3.86607
3.81991
3.78055
3.74758
3.71917
3.71078
3.71356
3.72403
3.73569
3.75228
3.76111
3.76501
3.76318
3.76146
3.76113
3.76241
3.76869
3.77258
3.77287
3.772
3.77103
3.77049
3.77024
3.77008
3.76926
3.77416
1
1
1
1
1
1
1
1
1
1
1
1
1
0.999998
0.999998
0.999972
1.00052
1.01178
1.15755
1.57767
2.43424
3.10718
3.52516
3.76108
3.79535
3.7943
3.76336
3.74585
3.74329
3.74322
3.74382
3.74305
3.74779
3.75482
3.75981
3.7627
3.76509
3.76958
3.77642
3.77961
3.77942
3.77807
3.77536
3.77456
3.77389
3.77354
3.77342
3.77544
1
1
1
1
1
1
1
1
1
1
1
1
1
1
1
0.999998
0.999998
0.99998
1.00049
1.01095
1.1199
1.57524
2.26665
3.12404
3.43884
3.59802
3.69328
3.74805
3.75069
3.73126
3.72672
3.7306
3.73704
3.74747
3.75832
3.76733
3.7749
3.78141
3.78575
3.78575
3.78424
3.78249
3.77904
3.77463
3.77223
3.77162
3.77174
3.77306
1
1
1
1
1
1
1
1
1
1
1
1
1
1
1
1
1
0.999998
0.999998
0.999985
1.00031
1.0139
1.1006
1.51429
2.21494
3.02683
3.52225
3.60257
3.68262
3.68498
3.69187
3.70539
3.71136
3.71983
3.73358
3.74867
3.76372
3.77446
3.77815
3.77943
3.77864
3.7787
3.77824
3.77609
3.77377
3.77323
3.77419
3.77484
1
1
1
1
1
1
1
1
1
1
1
1
1
1
1
1
1
1
1
0.999999
0.999999
0.999988
1.00027
1.01147
1.1099
1.46088
2.22405
2.95243
3.50963
3.684
3.7063
3.71909
3.72187
3.71905
3.72683
3.7356
3.74675
3.76053
3.76766
3.76975
3.76829
3.76842
3.76905
3.76753
3.76651
3.76701
3.76958
3.77121
1
1
1
1
1
1
1
1
1
1
1
1
1
1
1
1
1
1
1
1
1
0.999998
0.999999
0.999988
1.00043
1.00914
1.12858
1.48643
2.25533
2.95401
3.46862
3.69671
3.74791
3.74991
3.76766
3.76824
3.7672
3.7738
3.78041
3.78139
3.77875
3.77524
3.77086
3.76732
3.76746
3.76866
3.76984
3.77118
1
1
1
1
1
1
1
1
1
1
1
1
1
1
1
1
1
1
1
1
1
1
1
0.999998
0.999999
0.999989
1.00085
1.0117
1.13101
1.56848
2.3433
3.05463
3.42004
3.635
3.73621
3.75026
3.75627
3.77003
3.77615
3.77863
3.77831
3.77538
3.77489
3.77635
3.77821
3.78007
3.77981
3.77893
1
1
1
1
1
1
1
1
1
1
1
1
1
1
1
1
1
1
1
1
1
1
1
1
1
0.999998
0.999999
0.999993
1.00104
1.02022
1.15018
1.67123
2.45836
3.2915
3.51784
3.61004
3.67008
3.71969
3.73501
3.74012
3.74416
3.75362
3.76841
3.77746
3.78009
3.78017
3.78036
3.77868
1
1
1
1
1
1
1
1
1
1
1
1
1
1
1
1
1
1
1
1
1
1
1
1
1
1
1
0.999999
0.999998
1.00001
1.00142
1.0359
1.21398
1.84446
2.66878
3.38243
3.68308
3.70625
3.7225
3.72244
3.72552
3.73892
3.75483
3.76509
3.77056
3.77403
3.77705
3.77612
1
1
1
1
1
1
1
1
1
1
1
1
1
1
1
1
1
1
1
1
1
1
1
1
1
1
1
1
1
1
0.999997
1.0001
1.00305
1.06235
1.34176
2.09351
2.92863
3.49253
3.73735
3.75893
3.77176
3.7887
3.79025
3.78842
3.78512
3.78301
3.78007
3.77746
1
1
1
1
1
1
1
1
1
1
1
1
1
1
1
1
1
1
1
1
1
1
1
1
1
1
1
1
1
1
1
1
0.999996
1.00041
1.00816
1.12025
1.5722
2.45684
3.15567
3.51371
3.71916
3.77437
3.77405
3.78589
3.7917
3.79164
3.78714
3.78233
1
1
1
1
1
1
1
1
1
1
1
1
1
1
1
1
1
1
1
1
1
1
1
1
1
1
1
1
1
1
1
1
0.999999
0.999999
1
1.00158
1.02556
1.23618
1.9007
2.9099
3.47501
3.58878
3.65841
3.72387
3.75617
3.76603
3.76692
3.76617
1
1
1
1
1
1
1
1
1
1
1
1
1
1
1
1
1
1
1
1
1
1
1
1
1
1
1
1
1
1
1
1
1
1
1
0.999998
1.00007
1.0061
1.08331
1.50428
2.38371
3.24997
3.69299
3.73559
3.7543
3.75642
3.75022
3.75068
1
1
1
1
1
1
1
1
1
1
1
1
1
1
1
1
1
1
1
1
1
1
1
1
1
1
1
1
1
1
1
1
1
1
1
1
1
1.00001
1.00083
1.02559
1.24142
1.94757
2.90585
3.51319
3.77345
3.79734
3.7926
3.78646
1
1
1
1
1
1
1
1
1
1
1
1
1
1
1
1
1
1
1
1
1
1
1
1
1
1
1
1
1
1
1
1
1
1
1
1
1
1
0.999999
1.00015
1.00597
1.1033
1.61058
2.61907
3.31193
3.56446
3.741
3.76885
1
1
1
1
1
1
1
1
1
1
1
1
1
1
1
1
1
1
1
1
1
1
1
1
1
1
1
1
1
1
1
1
1
1
1
1
1
1
1
0.999999
1.00001
1.00193
1.03875
1.35405
2.19013
3.24497
3.61358
3.68218
1
1
1
1
1
1
1
1
1
1
1
1
1
1
1
1
1
1
1
1
1
1
1
1
1
1
1
1
1
1
1
1
1
1
1
1
1
1
1
1
1
1
1.0003
1.01731
1.1797
1.92989
2.9454
3.61801
1
1
1
1
1
1
1
1
1
1
1
1
1
1
1
1
1
1
1
1
1
1
1
1
1
1
1
1
1
1
1
1
1
1
1
1
1
1
1
1
1
1
1
1.00012
1.00477
1.11962
1.66237
2.80488
1
1
1
1
1
1
1
1
1
1
1
1
1
1
1
1
1
1
1
1
1
1
1
1
1
1
1
1
1
1
1
1
1
1
1
1
1
1
1
1
1
1
1
1
1.00002
1.00316
1.05615
1.46285
1
1
1
1
1
1
1
1
1
1
1
1
1
1
1
1
1
1
1
1
1
1
1
1
1
1
1
1
1
1
1
1
1
1
1
1
1
1
1
1
1
1
1
1
1
1.00001
1.00093
1.02074
1
1
1
1
1
1
1
1
1
1
1
1
1
1
1
1
1
1
1
1
1
1
1
1
1
1
1
1
1
1
1
1
1
1
1
1
1
1
1
1
1
1
1
1
1
1
1.00001
0.999794
1
1
1
1
1
1
1
1
1
1
1
1
1
1
1
1
1
1
1
1
1
1
1
1
1
1
1
1
1
1
1
1
1
1
1
1
1
1
1
1
1
1
1
1
1
1
1
0.999925
1
1
1
1
1
1
1
1
1
1
1
1
1
1
1
1
1
1
1
1
1
1
1
1
1
1
1
1
1
1
1
1
1
1
1
1
1
1
1
1
1
1
1
1
1
1
1
0.99999
1
1
1
1
1
1
1
1
1
1
1
1
1
1
1
1
1
1
1
1
1
1
1
1
1
1
1
1
1
1
1
1
1
1
1
1
1
1
1
1
1
1
1
1
1
1
1
1
1
1
1
1
1
1
1
1
1
1
1
1
1
1
1
1
1
1
1
1
1
1
1
1
1
1
1
1
1
1
1
1
1
1
1
1
1
1
1
1
1
1
1
1
1
1
1
1
1
1
1
1
1
1
1
1
1
1
1
1
1
1
1
1
1
1
1
1
1
1
1
1
1
1
1
1
1
1
1
1
1
1
1
1
1
1
1
1
1
1
1
1
1
1
1
1
1
1
1
1
1
1
1
1
1
1
1
1
1
1
1
1
1
1
1
1
1
1
1
1
1
1
1
1
1
1
1
1
1
1
1
1
1
1
1
1
1
1
1
1
1
1
1
1
1
1
1
1
1
1
1
1
1
1
1
1
1
1
1
1
1
1
1
1
1
1
1
1
1
1
1
1
1
1
1
1
1
1
1
1
1
1
1
1
1
1
1
1
1
1
1
1
1
1
1
1
1
1
1
1
1
1
1
1
1
1
1
1
1
1
1
1
1
1
1
1
1
1
1
1
1
1
1
1
1
1
1
1
1
1
1
1
1
1
1
1
1
1
1
1
1
1
1
1
1
1
1
1
1
1
1
1
1
1
1
1
1
1
1
1
1
1
1
1
1
1
1
1
1
1
1
1
1
1
1
1
1
1
1
1
1
1
1
1
1
1
1
0.99999
1
1
1
1
1
1
1
1
1
1
1
1
1
1
1
1
1
1
1
1
1
1
1
1
1
1
1
1
1
1
1
1
1
1
1
1
1
1
1
1
1
1
1
1
1
1
1
0.999925
1
1
1
1
1
1
1
1
1
1
1
1
1
1
1
1
1
1
1
1
1
1
1
1
1
1
1
1
1
1
1
1
1
1
1
1
1
1
1
1
1
1
1
1
1
1
1.00001
0.999794
1
1
1
1
1
1
1
1
1
1
1
1
1
1
1
1
1
1
1
1
1
1
1
1
1
1
1
1
1
1
1
1
1
1
1
1
1
1
1
1
1
1
1
1
1
1.00001
1.00093
1.02074
1
1
1
1
1
1
1
1
1
1
1
1
1
1
1
1
1
1
1
1
1
1
1
1
1
1
1
1
1
1
1
1
1
1
1
1
1
1
1
1
1
1
1
1
1.00002
1.00316
1.05617
1.46282
1
1
1
1
1
1
1
1
1
1
1
1
1
1
1
1
1
1
1
1
1
1
1
1
1
1
1
1
1
1
1
1
1
1
1
1
1
1
1
1
1
1
1
1.00012
1.00477
1.1196
1.66253
2.80471
1
1
1
1
1
1
1
1
1
1
1
1
1
1
1
1
1
1
1
1
1
1
1
1
1
1
1
1
1
1
1
1
1
1
1
1
1
1
1
1
1
1
1.0003
1.01731
1.17966
1.92985
2.94544
3.61791
1
1
1
1
1
1
1
1
1
1
1
1
1
1
1
1
1
1
1
1
1
1
1
1
1
1
1
1
1
1
1
1
1
1
1
1
1
1
1
0.999999
1.00001
1.00193
1.03875
1.35408
2.19004
3.245
3.61355
3.68224
1
1
1
1
1
1
1
1
1
1
1
1
1
1
1
1
1
1
1
1
1
1
1
1
1
1
1
1
1
1
1
1
1
1
1
1
1
1
0.999999
1.00015
1.00597
1.1033
1.6106
2.61904
3.31185
3.56456
3.74106
3.76888
1
1
1
1
1
1
1
1
1
1
1
1
1
1
1
1
1
1
1
1
1
1
1
1
1
1
1
1
1
1
1
1
1
1
1
1
1
1.00001
1.00083
1.02559
1.24142
1.94755
2.90593
3.51311
3.77343
3.7974
3.79265
3.78647
1
1
1
1
1
1
1
1
1
1
1
1
1
1
1
1
1
1
1
1
1
1
1
1
1
1
1
1
1
1
1
1
1
1
1
0.999998
1.00007
1.0061
1.08331
1.50428
2.38371
3.24996
3.69301
3.73558
3.75429
3.75644
3.75024
3.75069
1
1
1
1
1
1
1
1
1
1
1
1
1
1
1
1
1
1
1
1
1
1
1
1
1
1
1
1
1
1
1
1
0.999999
0.999999
1
1.00158
1.02556
1.23618
1.90069
2.90991
3.47498
3.58877
3.65842
3.72387
3.75616
3.76604
3.76694
3.76618
1
1
1
1
1
1
1
1
1
1
1
1
1
1
1
1
1
1
1
1
1
1
1
1
1
1
1
1
1
1
1
1
0.999996
1.00041
1.00816
1.12024
1.5722
2.45684
3.15568
3.5137
3.71915
3.77437
3.77405
3.7859
3.79171
3.79165
3.78714
3.78234
1
1
1
1
1
1
1
1
1
1
1
1
1
1
1
1
1
1
1
1
1
1
1
1
1
1
1
1
1
1
0.999997
1.0001
1.00305
1.06235
1.34176
2.09351
2.92863
3.49253
3.73735
3.75893
3.77176
3.78871
3.79025
3.78842
3.78512
3.78302
3.78007
3.77746
1
1
1
1
1
1
1
1
1
1
1
1
1
1
1
1
1
1
1
1
1
1
1
1
1
1
1
0.999999
0.999998
1.00001
1.00142
1.0359
1.21398
1.84446
2.66878
3.38243
3.68308
3.70625
3.7225
3.72244
3.72552
3.73892
3.75483
3.76509
3.77056
3.77403
3.77705
3.77612
1
1
1
1
1
1
1
1
1
1
1
1
1
1
1
1
1
1
1
1
1
1
1
1
1
0.999998
0.999999
0.999993
1.00104
1.02022
1.15018
1.67123
2.45836
3.29151
3.51784
3.61004
3.67008
3.71969
3.73501
3.74012
3.74416
3.75362
3.76841
3.77746
3.78009
3.78017
3.78037
3.77867
1
1
1
1
1
1
1
1
1
1
1
1
1
1
1
1
1
1
1
1
1
1
1
0.999998
0.999999
0.999989
1.00085
1.0117
1.13101
1.56849
2.3433
3.05464
3.42004
3.635
3.73621
3.75025
3.75627
3.77003
3.77615
3.77863
3.77831
3.77538
3.77489
3.77635
3.77821
3.78007
3.77981
3.77893
1
1
1
1
1
1
1
1
1
1
1
1
1
1
1
1
1
1
1
1
1
0.999998
0.999999
0.999988
1.00043
1.00914
1.12858
1.48643
2.25533
2.95401
3.46862
3.69671
3.74791
3.74991
3.76766
3.76824
3.7672
3.7738
3.78041
3.78139
3.77875
3.77524
3.77086
3.76732
3.76746
3.76866
3.76984
3.77118
1
1
1
1
1
1
1
1
1
1
1
1
1
1
1
1
1
1
1
0.999999
0.999999
0.999988
1.00027
1.01147
1.1099
1.46088
2.22405
2.95243
3.50963
3.684
3.7063
3.7191
3.72187
3.71905
3.72683
3.7356
3.74675
3.76053
3.76766
3.76975
3.76829
3.76842
3.76905
3.76753
3.76651
3.76701
3.76958
3.77121
1
1
1
1
1
1
1
1
1
1
1
1
1
1
1
1
1
0.999998
0.999998
0.999985
1.00031
1.0139
1.1006
1.51429
2.21494
3.02683
3.52226
3.60257
3.68262
3.68498
3.69187
3.70539
3.71136
3.71983
3.73358
3.74867
3.76372
3.77446
3.77815
3.77943
3.77864
3.7787
3.77824
3.77609
3.77377
3.77323
3.77419
3.77484
1
1
1
1
1
1
1
1
1
1
1
1
1
1
1
0.999998
0.999998
0.99998
1.00049
1.01095
1.1199
1.57524
2.26665
3.12404
3.43884
3.59802
3.69327
3.74804
3.75069
3.73126
3.72671
3.7306
3.73704
3.74747
3.75832
3.76733
3.7749
3.78141
3.78575
3.78575
3.78424
3.78249
3.77904
3.77463
3.77223
3.77162
3.77174
3.77306
1
1
1
1
1
1
1
1
1
1
1
1
1
0.999998
0.999998
0.999972
1.00052
1.01178
1.15755
1.57767
2.43424
3.10718
3.52516
3.76108
3.79535
3.7943
3.76336
3.74585
3.74329
3.74322
3.74382
3.74305
3.74779
3.75482
3.75981
3.7627
3.76509
3.76958
3.77642
3.77961
3.77942
3.77807
3.77536
3.77456
3.77389
3.77354
3.77342
3.77544
1
1
1
1
1
1
1
1
1
1
1
0.999998
0.999998
0.999969
1.00038
1.02149
1.19021
1.6654
2.53551
3.21795
3.77208
3.87687
3.86607
3.81992
3.78055
3.74758
3.71917
3.71078
3.71356
3.72403
3.73569
3.75228
3.76111
3.76501
3.76318
3.76147
3.76113
3.76241
3.76869
3.77258
3.77287
3.772
3.77103
3.77049
3.77024
3.77008
3.76926
3.77416
1
1
1
1
1
1
1
1
1
0.999997
0.999997
0.999953
1.0008
1.0316
1.20249
1.83929
2.67431
3.50429
3.89163
3.87116
3.85708
3.81006
3.75467
3.72085
3.69288
3.6846
3.68706
3.70062
3.72078
3.74118
3.75863
3.77135
3.77331
3.7734
3.77266
3.77172
3.76959
3.76872
3.77122
3.77439
3.77447
3.77252
3.76999
3.76707
3.76399
3.76257
3.76126
3.76661
1
1
1
1
1
1
1
0.999999
1
0.99992
1.00242
1.03928
1.30173
1.97705
2.8577
3.73852
3.90818
4.00505
3.98581
3.93073
3.81355
3.72029
3.67818
3.66763
3.67516
3.68404
3.70062
3.72427
3.74709
3.76606
3.77914
3.78193
3.78225
3.77961
3.77838
3.77828
3.77727
3.7766
3.77822
3.78163
3.78432
3.78411
3.78183
3.7778
3.77115
3.76584
3.76457
3.76602
1
1
1
1
0.999998
1
0.999996
1.00009
1.00551
1.06987
1.43876
2.11789
3.22778
3.75267
4.04156
4.02269
3.93318
3.90479
3.84919
3.78101
3.76631
3.73204
3.72041
3.71983
3.72652
3.7331
3.74531
3.75932
3.76747
3.77271
3.77677
3.7767
3.77583
3.77299
3.77025
3.76857
3.76669
3.76649
3.76888
3.77359
3.77951
3.78305
3.78286
3.78053
3.77605
3.77034
3.76888
3.77083
1
0.999977
1.00007
1.00007
1.00129
1.01343
1.06124
1.22216
1.60128
2.35764
3.30589
3.92684
4.3158
4.32333
4.24876
4.11192
3.97651
3.79562
3.68041
3.677
3.68861
3.71292
3.74129
3.75174
3.75458
3.75105
3.75156
3.75511
3.75715
3.76031
3.76416
3.76811
3.76856
3.76709
3.76417
3.76154
3.761
3.76252
3.76581
3.77152
3.77967
3.78587
3.78722
3.78634
3.78371
3.77798
3.77195
3.77306
1.00203
1.01405
1.0759
1.2034
1.40848
1.76963
2.21487
2.75357
3.31806
3.73514
3.88555
4.06253
4.05741
3.96041
3.83899
3.78612
3.74583
3.69762
3.67253
3.66869
3.68047
3.70521
3.7279
3.73897
3.74213
3.74615
3.75243
3.75543
3.7573
3.7618
3.76876
3.7758
3.78033
3.78134
3.77943
3.77529
3.77119
3.77007
3.77106
3.7733
3.77639
3.77901
3.7792
3.77827
3.77589
3.77072
3.76655
3.7677
1.28935
1.75979
2.31599
2.87686
3.58469
4.16415
4.65502
5.12038
5.34615
5.25427
4.9199
4.47181
4.08857
3.79554
3.66244
3.57653
3.555
3.5701
3.60679
3.64788
3.68605
3.70574
3.71691
3.7273
3.73931
3.75142
3.76087
3.76666
3.77189
3.7809
3.793
3.79942
3.79929
3.7961
3.78882
3.77904
3.77129
3.76735
3.76538
3.76518
3.76518
3.76726
3.76935
3.76957
3.76925
3.76831
3.7667
3.76736
2.64363
1.74066
1.13916
0.734418
0.701493
0.723224
0.70009
0.716888
0.7924
0.879982
0.906088
0.925015
0.972736
1.02217
1.03086
1.03747
1.06247
1.07654
1.07428
1.07067
1.06921
1.06658
1.05841
1.05553
1.05814
1.05905
1.05429
1.04264
1.03703
1.03746
1.03869
1.04075
1.04335
1.04482
1.04539
1.04547
1.04276
1.04099
1.04158
1.044
1.04829
1.05057
1.05075
1.05064
1.05046
1.04989
1.0486
1.04872
1.05377
1.15377
1.77166
3.15079
4.85064
7.13197
9.21892
10.0437
9.41312
8.45422
7.74099
7.43449
7.36351
7.25599
7.09022
6.93201
6.79736
6.63264
6.45113
6.31958
6.2184
6.11485
6.00638
5.8644
5.66771
5.43464
5.2603
5.17097
5.12107
5.10667
5.0932
5.03906
4.96179
4.81877
4.61638
4.45437
4.36329
4.30371
4.25667
4.21017
4.15303
4.077
3.96198
3.85261
3.79392
3.75285
3.71337
3.67126
3.62023
3.54368
3.4183
3.28865
3.22724
3.19481
3.16888
3.14783
3.12635
3.10031
3.06391
2.99001
2.86539
2.7723
2.73041
2.70083
2.67734
2.65843
2.6404
2.61806
2.58877
2.53699
2.44763
2.37013
2.33726
2.31781
2.30222
2.28608
2.26678
2.23754
2.18151
2.09908
2.05212
2.03552
2.02294
2.01109
1.99989
1.98611
1.96832
1.93714
1.87239
1.7939
1.76164
1.74941
1.73908
1.72916
1.71943
1.70955
1.69905
1.68597
1.66439
1.62496
1.57443
1.54006
1.51969
1.49992
1.47357
1.45094
1.44135
1.43406
1.42675
1.41893
1.40931
1.3939
1.36131
1.30592
1.27416
1.26632
1.26037
1.25415
1.24718
1.2393
1.2297
1.21397
1.1814
1.13802
1.1173
1.11035
1.10476
1.09957
1.09545
1.09014
1.08408
1.07648
1.06259
1.03
0.991856
0.981568
0.978012
0.975094
0.97382
0.972787
0.968738
0.963784
0.958102
0.93604
3.36002
2.73563
2.25274
1.73923
1.41475
1.2893
1.14239
1.02836
1.01751
0.978849
0.913235
0.90184
0.915556
0.942399
0.966072
0.980337
1.0084
1.02552
1.02495
1.02712
1.03469
1.04732
1.05241
1.05718
1.05914
1.05849
1.05186
1.04311
1.04174
1.04236
1.04354
1.0463
1.04922
1.04988
1.0501
1.04893
1.04565
1.04391
1.04364
1.04417
1.04592
1.04718
1.04793
1.04837
1.04813
1.04635
1.04696
1.06124
1.16923
1.77843
2.76661
3.13717
3.69215
4.52619
5.79253
7.24998
8.17928
8.29097
8.02215
7.69356
7.46161
7.22111
7.06899
6.95441
6.83131
6.6603
6.46282
6.26841
6.15084
6.07062
5.97818
5.85758
5.70254
5.53169
5.37504
5.23582
5.13879
5.08157
5.03391
4.97407
4.89219
4.78199
4.64974
4.52474
4.42369
4.33519
4.26292
4.21529
4.17571
4.10186
3.98661
3.88993
3.83348
3.78651
3.74304
3.69856
3.64377
3.56157
3.44074
3.32341
3.26808
3.2358
3.20437
3.17624
3.14847
3.11859
3.07834
3.005
2.88798
2.79501
2.75642
2.73157
2.70851
2.68568
2.66445
2.64061
2.60776
2.55071
2.46506
2.39417
2.3631
2.34316
2.32584
2.30876
2.28696
2.25376
2.19785
2.12597
2.08401
2.06436
2.049
2.03406
2.01914
2.00351
1.98352
1.94967
1.88987
1.82056
1.78709
1.77344
1.76355
1.7529
1.74153
1.72952
1.71666
1.70141
1.6776
1.63632
1.58731
1.55659
1.5404
1.52295
1.49805
1.47082
1.45685
1.44816
1.43958
1.43036
1.41902
1.40239
1.37417
1.32879
1.29451
1.28272
1.27538
1.26731
1.25875
1.24981
1.23978
1.22581
1.20027
1.16151
1.13627
1.12631
1.11978
1.1135
1.10733
1.10098
1.09399
1.08572
1.0734
1.04881
1.01212
0.997198
0.993258
0.989695
0.986451
0.982753
0.979262
0.974407
0.969027
0.955177
3.66435
3.3273
2.87104
2.40184
1.95076
1.67369
1.45072
1.20883
1.09848
1.03883
0.955736
0.921704
0.928269
0.942494
0.94263
0.946247
0.965253
0.983125
0.987933
0.994237
1.01293
1.03519
1.04283
1.04649
1.04947
1.04957
1.04693
1.04535
1.04642
1.04796
1.05053
1.05446
1.05528
1.05463
1.05226
1.04735
1.04411
1.04344
1.04321
1.04344
1.04429
1.04523
1.0459
1.04625
1.04538
1.04796
1.08771
1.30762
1.88825
2.9689
3.38529
3.29238
3.30424
3.3988
3.74009
4.92332
6.81626
8.04631
8.26607
8.00227
7.46392
7.09032
6.99399
6.94158
6.82635
6.67071
6.50637
6.31207
6.09692
5.97525
5.87062
5.75697
5.65831
5.58063
5.49063
5.36908
5.21422
5.06521
4.95872
4.86461
4.76507
4.67179
4.60923
4.55784
4.48736
4.39774
4.31152
4.22688
4.12862
4.03409
3.94517
3.87439
3.81372
3.75311
3.69217
3.63766
3.58163
3.50659
3.41546
3.34842
3.29138
3.22738
3.17317
3.13475
3.10057
3.06368
3.01435
2.94303
2.85815
2.80489
2.77444
2.74163
2.70206
2.66167
2.62543
2.59203
2.55628
2.50686
2.44719
2.40882
2.37621
2.33576
2.29483
2.26791
2.24618
2.21719
2.17401
2.1311
2.09375
2.05536
2.02675
2.00825
1.98977
1.96959
1.94707
1.91654
1.87392
1.83484
1.79613
1.75957
1.74196
1.73234
1.72152
1.70842
1.69244
1.67308
1.64821
1.61442
1.58203
1.56053
1.54015
1.51742
1.4881
1.45511
1.43586
1.42551
1.41664
1.40792
1.39819
1.38523
1.3647
1.3342
1.29553
1.27075
1.25963
1.25054
1.24133
1.2326
1.22387
1.21217
1.18953
1.15197
1.12705
1.11673
1.10949
1.10276
1.09603
1.08948
1.08263
1.07482
1.06319
1.04158
1.00832
0.993486
0.989706
0.98714
0.985602
0.986246
0.987074
0.990886
0.998215
1.03292
3.75003
3.61919
3.31946
2.92817
2.47872
2.12839
1.85755
1.56628
1.39137
1.30024
1.17242
1.06058
1.05174
1.02215
0.971274
0.959129
0.958191
0.946418
0.942771
0.947361
0.968065
0.999554
1.01395
1.02007
1.02767
1.03498
1.03698
1.03894
1.04237
1.05036
1.05824
1.06052
1.06049
1.05931
1.05573
1.05053
1.04912
1.04915
1.04984
1.04958
1.04878
1.04795
1.04544
1.04451
1.04755
1.0979
1.50378
2.21384
2.99523
3.46159
3.50499
3.43045
3.32321
3.27876
3.2688
3.39718
4.17435
5.80581
7.46211
7.64079
7.39435
7.1788
7.02184
6.93453
6.80767
6.67492
6.55032
6.38142
6.12335
5.89669
5.78815
5.70998
5.66614
5.63038
5.56002
5.45762
5.28727
5.04858
4.86278
4.76064
4.69428
4.64553
4.61019
4.58544
4.54225
4.47508
4.36136
4.20424
4.07049
3.99101
3.94123
3.89331
3.83319
3.76502
3.69103
3.61061
3.53964
3.48854
3.44626
3.39544
3.32617
3.24438
3.18124
3.13999
3.09881
3.04369
2.96979
2.90281
2.87475
2.8579
2.82564
2.78156
2.73079
2.67788
2.62323
2.56626
2.51976
2.49256
2.47297
2.44852
2.41135
2.35819
2.29987
2.25394
2.22437
2.20207
2.18068
2.15308
2.11401
2.06756
2.02759
2.00447
1.98744
1.9643
1.93221
1.90275
1.88173
1.85655
1.81642
1.76929
1.7385
1.72566
1.71567
1.70398
1.6894
1.66726
1.63705
1.61132
1.59278
1.57311
1.54927
1.52258
1.4897
1.4543
1.43177
1.41912
1.40882
1.39899
1.38923
1.37969
1.36853
1.34625
1.30589
1.27334
1.25909
1.24969
1.24012
1.2304
1.22074
1.20917
1.18908
1.15385
1.12812
1.1175
1.10998
1.10332
1.09663
1.08964
1.08291
1.07559
1.06396
1.0434
1.01227
0.997906
0.99486
0.994963
1.00206
1.02492
1.06832
1.13859
1.22256
1.35448
3.7604
3.72946
3.58679
3.31967
2.92449
2.56449
2.26721
1.92715
1.70325
1.56861
1.41146
1.24223
1.17467
1.11274
1.02451
0.975055
0.969189
0.949598
0.942313
0.947599
0.962844
0.97332
0.978763
0.982671
0.989133
1.00143
1.01279
1.023
1.03181
1.04341
1.05383
1.05614
1.05619
1.05471
1.05117
1.05025
1.05136
1.05388
1.05601
1.05568
1.05397
1.05058
1.04573
1.04709
1.09279
1.53226
2.52
3.10755
3.44031
3.52158
3.48174
3.43075
3.33835
3.2454
3.21785
3.1905
3.21255
3.55467
4.75697
6.45414
7.20149
7.24739
7.04932
6.79877
6.66544
6.60353
6.52042
6.40019
6.17478
5.88315
5.7345
5.66458
5.62273
5.59744
5.52376
5.43588
5.3012
5.06151
4.83438
4.74119
4.68835
4.64829
4.62648
4.57913
4.51701
4.43808
4.31007
4.15205
4.04931
3.99209
3.94028
3.88138
3.81723
3.74279
3.66105
3.57962
3.51018
3.45807
3.4157
3.37301
3.31911
3.25598
3.1933
3.12825
3.06148
3.00035
2.94791
2.90956
2.8796
2.84479
2.80614
2.75866
2.70432
2.65064
2.59539
2.5458
2.50776
2.47686
2.45133
2.42745
2.39696
2.35095
2.29347
2.24453
2.21067
2.18525
2.16211
2.13865
2.11061
2.07853
2.04442
2.01165
1.97891
1.94988
1.92138
1.89461
1.86906
1.84303
1.81634
1.78806
1.75653
1.72876
1.71561
1.70217
1.68204
1.65248
1.61907
1.59341
1.57683
1.56646
1.55743
1.54443
1.51523
1.46455
1.42585
1.4117
1.40273
1.39538
1.38767
1.37676
1.36001
1.338
1.31068
1.28648
1.27013
1.25859
1.24754
1.23513
1.22187
1.20744
1.18821
1.15996
1.14018
1.13077
1.12262
1.11567
1.10641
1.09618
1.08882
1.08219
1.07243
1.05527
1.03469
1.03733
1.05651
1.10182
1.1757
1.27904
1.38514
1.48754
1.57147
1.65783
3.76571
3.75222
3.70668
3.57137
3.28905
2.94746
2.6487
2.32155
2.04681
1.86149
1.67484
1.48812
1.38574
1.30353
1.18511
1.1053
1.08252
1.0419
0.996919
0.996355
0.994689
0.98094
0.964685
0.960372
0.960563
0.964553
0.975551
0.99167
1.013
1.03066
1.0431
1.04845
1.04924
1.04842
1.0467
1.047
1.04911
1.05333
1.05523
1.05509
1.05335
1.05023
1.05647
1.13022
1.54941
2.67321
3.21008
3.40323
3.52075
3.51926
3.42233
3.35771
3.32726
3.25144
3.15852
3.12402
3.09548
3.07938
3.19835
3.91988
5.30412
6.54917
6.69821
6.69021
6.65227
6.65398
6.5483
6.38043
6.16969
5.90602
5.71748
5.63421
5.58045
5.55219
5.48807
5.39734
5.28169
5.08365
4.8612
4.75802
4.70274
4.65584
4.60845
4.5507
4.48444
4.39192
4.24805
4.11802
4.05457
4.00416
3.94929
3.89063
3.82481
3.74028
3.63834
3.54649
3.48047
3.43916
3.40642
3.37502
3.3402
3.28908
3.20908
3.10811
3.02468
2.97682
2.94537
2.91689
2.8845
2.84886
2.80984
2.76432
2.7043
2.63341
2.57549
2.53343
2.5016
2.47501
2.45133
2.42711
2.39858
2.35989
2.29736
2.23438
2.19567
2.17165
2.15468
2.14189
2.13047
2.11223
2.07694
2.01403
1.95837
1.93257
1.91432
1.8948
1.87424
1.85705
1.84305
1.82502
1.79568
1.75287
1.71006
1.6833
1.6618
1.63806
1.61187
1.59189
1.58127
1.57305
1.56176
1.54141
1.50601
1.45881
1.42684
1.40924
1.39442
1.38243
1.37503
1.36871
1.36053
1.34608
1.32371
1.29135
1.2607
1.24384
1.23384
1.2248
1.2147
1.20218
1.18616
1.16537
1.14213
1.12834
1.12031
1.11461
1.11188
1.10688
1.10536
1.1095
1.12585
1.15301
1.1959
1.2605
1.35259
1.44524
1.55015
1.64149
1.69257
1.7256
1.75826
1.77919
3.77485
3.77064
3.75886
3.6969
3.53132
3.2842
2.99446
2.65898
2.39618
2.17451
1.95117
1.7477
1.61332
1.49777
1.36246
1.26801
1.21594
1.15539
1.06687
1.04147
1.0239
0.993776
0.972133
0.969433
0.965397
0.964933
0.968443