/*--------------------------------*- C++ -*----------------------------------*\
  =========                 |
  \\      /  F ield         | OpenFOAM: The Open Source CFD Toolbox
   \\    /   O peration     | Website:  https://openfoam.org
    \\  /    A nd           | Version:  7
     \\/     M anipulation  |
\*---------------------------------------------------------------------------*/
FoamFile
{
    version     2.0;
    format      ascii;
    class       volScalarField;
    location    "1.1";
    object      T;
}
// * * * * * * * * * * * * * * * * * * * * * * * * * * * * * * * * * * * * * //

dimensions      [0 0 0 1 0 0 0];

internalField   nonuniform List<scalar> 
18432
(
1
1
1
1
1
1
1
1
1
1
1
1
1
1
1
1
1
1
1
1
1
1
1
1
1
1
1
1
1
1
1
1
1
1
1
1
1
1
1
1
1
1
1
1
1
1
1
1
1
1
1
1
1
1
1
1
1
1
1
1
1
1
1
1
1
1
1
1
1
1
1
1
1
1
1
1
1
1
1
1
1
1
1
1
1
1
1
1
1
1
1
1
1
1
1
1
1
1
1
1
1
1
1
1
1
1
1
1
1
1
1
1
1
1
1
1
1
1
1
1
1
1
1
1
1
1
1
1
1
1
1
1
1
1
1
1
1
1
1
1
1
1
1
1
1
1
1
1
1
1
1
1
1
1
1
1
1
1
1
1
1
1
1
1
1
1
1
1
1
1
1
1
1
1
1
1
1
1
1
1
1
1
1
1
1
1
1
1
1
1
1
1
1
1
1
1
1
1
1
1
1
1
1
1
1
1
1
1
1
1
1
1
1
1
1
1
1
1
1
1
1
1
1
1
1
1
1
1
1
1
1
1
1
1
1
1
1
1
1
1
1
1
1
1
1
1
1
1
1
1
1
1
1
1
1
1
1
1
1
1
1
1
1
1
1
1
1
1
1
1
1
1
1
1
1
1
1
1
1
1
1
1
1
1
1
1
1
1
1
1
1
1
1
1
1
1
1
1
1
1
1
1
1
1
1
1
1
1
1
1
1
1
1
1
1
1
1
1
1
1
1
1
1
1
1
1
1
1
1
1
1
1
1
1
1
1
1
1
1
1
1
1
1
1
1
1
1
1
1
1
1
1
1
1
1
1
1
1
1
1
1
1
1
1
1
1
1
1
1
1
1
1
1
1
1
1
1
1
1
1
1
1
1
1
1
1
1
1
1
1
1
1
1
1
1
1
1
1
1
1
1
1
1
1
1
1
1
1
1
1
1
1
1
1
1
1
1
1
1
1
1
1
1
1
1
1
1
1
1
1
1
1
1
1
1
1
1
1
1
1
1
1
1
1
1
1
1
1
1
1
1
1
1
1
1
1
1
1
1
1
1
1
1
1
1
1
1
1
1
1
1
1
1
1
1
1
1
1
1
1
1
1
1
1
1
1
1
1
1
1
1
1
1
1
1
1
1
1
1
1
1
1
1
1
1
1
1
1
1
1
1
1
1
1
1
1
1
1
1
1
1
1
1
1
1
1
1
1
1
1
1
1
1
1
1
1
1
1
1
1
1
1
1
1
1
1
1
1
1
1
1
1
1
1
1
1
1
1
1
1
1
1
1
1
1
1
1
1
1
1
1
1
1
1
1
1
1
1
1
1
1
1
1
1
1
1
1
1
1
1
1
1
1
1
1
1
1
1
1
1
1
1
1
1
1
1
1
1
1
1
1
1
1
1
1
1
1
1
1
1
1
1
1
1
1
1
1
1
1
1
1
1
1
1
1
1
1
1
1
1
1
1
1
1
1
1
1
1
1
1
1
1
1
1
1
1
1
1
1
1
1
1
1
1
1
1
1
1
1
1
1
1
1
1
1
1
1
1
1
1
1
1
1
1
1
1
1
1
1
1
1
1
1
1
1
1
1
1
1
1
1
1
1
1
1
1
1
1
1
1
1
1
1
1
1
1
1
1
1
1
1
1
1
1
1
1
1
1
1
1
1
1
1
1
1
1
1
1
1
1
1
1
1
1
1
1
1
1
1
1
1
1
1
1
1
1
1
1
1
1
1
1
1
1
1
1
1
1
1
1
1
1
1
1
1
1
1
1
1
1
1
1
1
1
1
1
1
1
1
1
1
1
1
1
1
1
1
1
1
1
1
1
1
1
1
1
1
1
1
1
1
1
1
1
1
1
1
1
1
1
1
1
1
1
1
1
1
1
1
1
1
1
1
1
1
1
1
1
1
1
1
1
1
1
1
1
1
1
1
1
1
1
1
1
1
1
1
1
1
1
1
1
1
1
1
1
1
1
1
1
1
1
1
1
1
1
1
1
1
1
1
1
1
1
1
1
1
1
1
1
1
1
1
1
1
1
1
1
1
1
1
1
1
1
1
1
1
1
1
1
1
1
1
1
1
1
1
1
1
1
1
1
1
1
1
1
1
1
1
1
1
1
1
1
1
1
1
1
1
1
1
1
1
1
1
1
1
1
1
1
1
1
1
1
1
1
1
1
1
1
1
1
1
1
1
1
1
1
1
1
1
1
1
1
1
1
1
1
1
1
1
1
1
1
1
1
1
1
1
1
1
1
1
1
1
1
1
1
1
1
1
1
1
1
1
1
1
1
1
1
1
1
1
1
1
1
1
1
1
1
1
1
1
1
1
1
1
1
1
1
1
1
1
1
1
1
1
1
1
1
1
1
1
1
1
1
1
1
1
1
1
1
1
1
1
1
1
1
1
1
1
1
1
1
1
1
1
1
1
1
1
1
1
1
1
1
1
1
1
1
1
1
1
1
1
1
1
1
1
1
1
1
1
1
1
1
1
1
1
1
1
1
1
1
1
1
1
1
1
1
1
1
1
1
1
1
1
1
1
1
1
1
1
1
1
1
1
1
1
1
1
1
1
1
1
1
1
1
1
1
1
1
1
1
1
1
1
1
1
1
1
1
1
1
1
1
1
1
1
1
1
1
1
1
1
1
1
1
1
1
1
1
1
1
1
1
1
1
1
1
1
1
1
1
1
1
1
1
1
1
1
1
1
1
1
1
1
1
1
1
1
1
1
1
1
1
1
1
1
1
1
1
1
1
1
1
1
1
1
1
1
1
1
1
1
1
1
1
1
1
1
1
1
1
1
1
1
1
1
1
1
1
1
1
1
1
1
1
1
1
1
1
1
1
1
1
1
1
1
1
1
1
1
1
1
1
1
1
1
1
1
1
1
1
1
1
1
1
1
1
1
1
1
1
1
1
1
1
1
1
1
1
1
1
1
1
1
1
1
1
1
1
1
1
1
1
1
1
1
1
1
1
1
1
1
1
1
1
1
1
1
1
1
1
1
1
1
1
1
1
1
1
1
1
1
1
1
1
1
1
1
1
1
1
1
1
1
1
1
1
1
1
1
1
1
1
1
1
1
1
1
1
1
1
1
1
1
1
1
1
1
1
1
1
1
1
1
1
1
1
1
1
1
1
1
1
1
1
1
1
1
1
1
1
1
1
1
1
1
1
1
1
1
1
1
1
1
1
1
1
1
1
1
1
1
1
1
1
1
1
1
1
1
1
1
1
1
1
1
1
1
1
1
1
1
1
1
1
1
1
1
1
1
1
1
1
1
1
1
1
1
1
1
1
1
1
1
1
1
1
1
1
1
1
1
1
1
1
1
1
1
1
1
1
1
1
1
1
1
1
1
1
1
1
1
1
1
1
1
1
1
1
1
1
1
1
1
1
1
1
1
1
1
1
1
1
1
1
1
1
1
1
1
1
1
1
1
1
1
1
1
1
1
1
1
1
1
1
1
1
1
1
1
1
1
1
1
1
1
1
1
1
1
1
1
1
1
1
1
1
1
1
1
1
1
1
1
1
1
1
1
1
1
1
1
1
1
1
1
1
1
1
1
1
1
1
1
1
1
1
1
1
1
1
1
1
1
1
1
1
1
1
1
1
1
1
1
1
1
1
1
1
1
1
1
1
1
1
1
1
1
1
1
1
1
1
1
1
1
1
1
1
1
1
1
1
1
1
1
1
1
1
1
1
1
1
1
1
1
1
1
1
1
1
1
1
1
1
1
1
1
1
1
1
1
1
1
1
1
1
1
1
1
1
1
1
1
1
1
1
1
1
1
1
1
1
1
1
1
1
1
1
1
1
1
1
1
1
1
1
1
1
1
1
1
1
1
1
1
1
1
1
1
1
1
1
1
1
1
1
1
1
1
1
1
1
1
1
1
1
1
1
1
1
1
1
1
1
1
1
1
1
1
1
1
1
1
1
1
1
1
1
1
1
1
1
1
1
1
1
1
1
1
1
1
1
1
1
1
1
1
1
1
1
1
1
1
1
1
1
1
1
1
1
1
1
1
1
1
1
1
1
1
1
1
1
1
1
1
1
1
1
1
1
1
1
1
1
1
1
1
1
1
1
1
1
1
1
1
1
1
1
1
1
1
1
1
1
1
1
1
1
1
1
1
1
1
1
1
1
1
1
1
1
1
1
1
1
1
1
1
1
1
1
1
1
1
1
1
1
1
1
1
1
1
1
1
1
1
1
1
1
1
1
1
1
1
1
1
1
1
1
1
1
1
1
1
1
1
1
1
1
1
1
1
1
1
1
1
1
1
1
1
1
1
1
1
1
1
1
1
1
1
1
1
1
1
1
1
1
1
1
1
1
1
1
1
1
1
1
1
1
1
1
1
1
1
1
1
1
1
1
1
1
1
1
1
1
1
1
1
1
1
1
1
1
1
1
1
1
1
1
1
1
1
1
1
1
1
1
1
1
1
1
1
1
1
1
1
1
1
1
1
1
1
1
1
1
1
1
1
1
1
1
1
1
1
1
1
1
1
1
1
1
1
1
1
1
1
1
1
1
1
1
1
1
1
1
1
1
1
1
1
1
1
1
1
1
1
1
1
1
1
1
1
1
1
1
1
1
1
1
1
1
1
1
1
1
1
1
1
1
1
1
1
1
1
1
1
1
1
1
1
1
1
1
1
1
1
1
1
1
1
1
1
1
1
1
1
1
1
1
1
1
1
1
1
1
1
1
1
1
1
1
1
1
1
1
1
1
1
1
1
1
1
1
1
1
1
1
1
1
1
1
1
1
1
1
1
1
1
1
1
1
1
1
1
1
1
1
1
1
1
1
1
1
1
1
1
1
1
1
1
1
1
1
1
1
1
1
1
1
1
1
1
1
1
1
1
1
1
1
1
1
1
1
1
1
1
1
1
1
1
1
1
1
1
1
1
1
1
1
1
1
1
1
1
1
1
1
1
1
1
1
1
1
1
1
1
1
1
1
1
1
1
1
1
1
1
1
1
1
1
1
1
1
1
1
1
1
1
1
1
1
1
1
1
1
1
1
1
1
1
1
1
1
1
1
1
1
1
1
1
1
1
1
1
1
1
1
1
1
1
1
1
1
1
1
1
1
1
1
1
1
1
1
1
1
1
1
1
1
1
1
1
1
1
1
1
1
1
1
1
1
1
1
1
1
1
1
1
1
1
1
1
1
1
1
1
1
1
1
1
1
1
1
1
1
1
1
1
1
1
1
1
1
1
1
1
1
1
1
1
1
1
1
1
1
1
1
1
1
1
1
1
1
1
1
1
1
1
1
1
1
1
1
1
1
1
1
1
1
1
1
1
1
1
1
1
1
1
1
1
1
1
1
1
1
1
1
1
1
1
1
1
1
1
1
1
1
1
1
1
1
1
1
1
1
1
1
1
1
1
1
1
1
1
1
1
1
1
1
1
1
1
1
1
1
1
1
1
1
1
1
1
1
1
1
1
1
1
1
1
1
1
1
1
1
1
1
1
1
1
1
1
1
1
1
1
1
1
1
1
1
1
1
1
1
1
1
1
1
1
1
1
1
1
1
1
1
1
1
1
1
1
1
1
1
1
1
1
1
1
1
1
1
1
1
1
1
1
1
1
1
1
1
1
1
1
1
1
1
1
1
1
1
1
1
1
1
1
1
1
1
1
1
1
1
1
1
1
1
1
1
1
1
1
1
1
1
1
1
1
1
1
1
1
1
1
1
1
1
1
1
1
1
1
1
1
1
1
1
1
1
1
1
1
1
1
1
1
1
1
1
1
1
1
1
1
1
1
1
1
1
1
1
1
1
1
1
1
1
1
1
1
1
1
1
1
1
1
1
1
1
1
1
1
1
1
1
1
1
1
1
1
1
1
1
1
1
1
1
1
1
1
1
1
1
1
1
1
1
1
1
1
1
1
1
1
1
1
1
1
1
1
1
1
1
1
1
1
1
1
1
1
1
1
1
1
1
1
1
1
1
1
1
1
1
1
1
1
1
1
1
1
1
1
1
1
1
1
1
1
1
1
1
1
1
1
1
1
1
1
1
1
1
1
1
1
1
1
1
1
1
1
1
1
1
1
1
1
1
1
1
1
1
1
1
1
1
1
1
1
1
1
1
1
1
1
1
1
1
1
1
1
1
1
1
1
1
1
1
1
1
1
1
1
1
1
1
1
1
1
1
1
1
1
1
1
1
1
1
1
1
1
1
1
1
1
1
1
1
1
1
1
1
1
1
1
1
1
1
1
1
1
1
1
1
1
1
1
1
1
1
1
1
1
1
1
1
1
1
1
1
1
1
1
1
1
1
1
1
1
1
1
1
1
1
1
1
1
1
1
1
1
1
1
1
1
1
1
1
1
1
1
1
1
1
1
1
1
1
1
1
1
1
1
1
1
1
1
1
1
1
1
1
1
1
1
1
1
1
1
1
1
1
1
1
1
1
1
1
1
1
1
1
1
1
1
1
1
1
1
1
1
1
1
1
1
1
1
1
1
1
1
1
1
1
1
1
1
1
1
1
1
1
1
1
1
1
1
1
1
1
1
1
1
1
1
1
1
1
1
1
1
1
1
1
1
1
1
1
1
1
1
1
1
1
1
1
1
1
1
1
1
1
1
1
1
1
1
1
1
1
1
1
1
1
1
1
1
1
1
1
1
1
1
1
1
1
1
1
1
1
1
1
1
1
1
1
1
1
1
1
1
1
1
1
1
1
1
1
1
1
1
1
1
1
1
1
1
1
1
1
1
1
1
1
1
1
1
1
1
1
1
1
1
1
1
1
1
1
1
1
1
1
1
1
1
1
1
1
1
1
1
1
1
1
1
1
1
1
1
1
1
1
1
1
1
1
1
1
1
1
1
1
1
1
1
1
1
1
1
1
1
1
1
1
1
1
1
1
1
1
1
1
1
1
1
1
1
1
1
1
1
1
1
1
1
1
1
1
1
1
1
1
1
1
1
1
1
1
1.07774
1.18163
1.28483
1.3763
1.47855
1.55724
1.61854
1.67048
1.69592
1.68958
1.659
1.61319
1.57308
1.54064
1.52595
1.51337
1.51269
1.51499
1.52024
1.52582
1.53041
1.53246
1.53376
1.53537
1.53755
1.5398
1.54129
1.54186
1.54233
1.54357
1.54558
1.54672
1.54687
1.5468
1.54617
1.54499
1.54415
1.54396
1.54399
1.54428
1.54454
1.54493
1.54523
1.54535
1.54545
1.54549
1.54547
1.54567
1.00065
1.0047
1.0262
1.06849
1.12829
1.21651
1.29943
1.37942
1.45207
1.50636
1.52792
1.55936
1.56919
1.56316
1.55295
1.54597
1.54064
1.53501
1.53355
1.53332
1.53465
1.53723
1.53959
1.54104
1.54194
1.54297
1.54408
1.54422
1.54423
1.5447
1.54574
1.54687
1.54764
1.54787
1.54768
1.54712
1.54658
1.54651
1.54676
1.54728
1.54781
1.5481
1.54809
1.54795
1.54769
1.54718
1.54679
1.54728
1
0.999992
1.00002
1.00003
1.00045
1.00467
1.02132
1.07471
1.18244
1.34631
1.49917
1.5826
1.62566
1.62389
1.61314
1.59658
1.58068
1.5596
1.54756
1.54707
1.54838
1.55094
1.55365
1.5541
1.55436
1.55407
1.5543
1.55452
1.55427
1.55409
1.55407
1.55447
1.55447
1.55422
1.5537
1.55298
1.55253
1.55246
1.55265
1.55326
1.55412
1.55456
1.55447
1.55403
1.55342
1.5527
1.55191
1.5528
1
1
1
1
0.999999
1
0.999997
1.00003
1.00199
1.02676
1.15672
1.3296
1.51679
1.57958
1.60799
1.60456
1.59319
1.59047
1.58461
1.57694
1.57459
1.56996
1.56765
1.56615
1.56618
1.56647
1.56769
1.56914
1.56941
1.56916
1.56869
1.56813
1.5677
1.56699
1.5662
1.56531
1.5642
1.56351
1.56342
1.56362
1.56392
1.56386
1.56327
1.56224
1.5611
1.56021
1.55968
1.56065
1
1
1
1
1
1
1
1
1
0.999969
1.00089
1.01515
1.11214
1.29672
1.46235
1.5877
1.60777
1.61701
1.61388
1.60637
1.59161
1.57982
1.57361
1.57126
1.57163
1.57216
1.57388
1.57618
1.57788
1.57898
1.57977
1.57985
1.57974
1.57904
1.57824
1.57733
1.57618
1.57538
1.57524
1.57532
1.57526
1.57466
1.57353
1.57209
1.57062
1.56962
1.56892
1.56974
1
1
1
1
1
1
1
1
1
0.999999
0.999999
0.999981
1.00028
1.01181
1.07611
1.26264
1.43156
1.55813
1.60443
1.6
1.59803
1.59243
1.58521
1.58136
1.57912
1.57772
1.57731
1.57787
1.57915
1.58099
1.58324
1.58491
1.58481
1.58436
1.58356
1.58265
1.58185
1.58153
1.58165
1.58173
1.58146
1.58062
1.57955
1.57853
1.57767
1.5772
1.57658
1.57754
1
1
1
1
1
1
1
1
1
1
1
0.999999
0.999999
0.999988
1.00012
1.00779
1.07059
1.21444
1.39887
1.50729
1.58433
1.59766
1.59665
1.59241
1.58877
1.58417
1.57913
1.57815
1.57858
1.5801
1.58185
1.58385
1.58457
1.58439
1.58366
1.58309
1.58306
1.58331
1.58402
1.5842
1.58398
1.58338
1.58279
1.58246
1.58225
1.5821
1.58173
1.58234
1
1
1
1
1
1
1
1
1
1
1
1
1
0.999999
0.999999
0.999989
1.00017
1.0042
1.05722
1.18819
1.3733
1.48405
1.54573
1.57973
1.58348
1.58331
1.58004
1.57899
1.57906
1.57922
1.57955
1.57968
1.58044
1.58133
1.58177
1.58213
1.58268
1.58356
1.5845
1.58477
1.58463
1.58413
1.58358
1.58354
1.58351
1.58345
1.58334
1.58347
1
1
1
1
1
1
1
1
1
1
1
1
1
1
1
0.999999
0.999999
0.999993
1.00016
1.00384
1.04306
1.18525
1.33819
1.47997
1.52564
1.54971
1.56491
1.57345
1.57408
1.57219
1.57269
1.57363
1.57477
1.57633
1.57796
1.5795
1.58096
1.58227
1.58311
1.58322
1.58317
1.58304
1.58281
1.5826
1.58258
1.58265
1.58272
1.58275
1
1
1
1
1
1
1
1
1
1
1
1
1
1
1
1
1
0.999999
0.999999
0.999994
1.0001
1.00482
1.03592
1.1652
1.32579
1.46069
1.53216
1.54526
1.55756
1.56004
1.56227
1.56448
1.56557
1.56707
1.56943
1.5721
1.57454
1.5763
1.57739
1.57806
1.57846
1.57904
1.5796
1.57994
1.58023
1.58056
1.58111
1.58109
1
1
1
1
1
1
1
1
1
1
1
1
1
1
1
1
1
1
1
1
1
0.999995
1.00008
1.00391
1.03903
1.14825
1.32387
1.44902
1.52835
1.55136
1.55467
1.55785
1.55972
1.56072
1.56252
1.56408
1.5658
1.56788
1.56979
1.57109
1.57183
1.5727
1.57353
1.57404
1.57468
1.57544
1.57665
1.57697
1
1
1
1
1
1
1
1
1
1
1
1
1
1
1
1
1
1
1
1
1
1
1
0.999996
1.00014
1.0031
1.04493
1.15632
1.32693
1.44367
1.5174
1.54774
1.55701
1.55961
1.56273
1.56256
1.56237
1.56339
1.56541
1.56677
1.56751
1.56783
1.56789
1.5681
1.56892
1.57002
1.57153
1.57201
1
1
1
1
1
1
1
1
1
1
1
1
1
1
1
1
1
1
1
1
1
1
1
0.999999
1
0.999996
1.00027
1.00399
1.04511
1.17767
1.34072
1.45657
1.50882
1.54003
1.55464
1.55601
1.55639
1.55847
1.5605
1.56207
1.56309
1.56315
1.56322
1.56371
1.56459
1.56579
1.56745
1.56778
1
1
1
1
1
1
1
1
1
1
1
1
1
1
1
1
1
1
1
1
1
1
1
1
1
0.999999
1
0.999997
1.00033
1.00692
1.0515
1.20216
1.36243
1.49042
1.52225
1.53488
1.5426
1.54939
1.55247
1.55438
1.55594
1.55741
1.5586
1.55943
1.56037
1.56134
1.56311
1.56336
1
1
1
1
1
1
1
1
1
1
1
1
1
1
1
1
1
1
1
1
1
1
1
1
1
1
1
1
1
1
1.00045
1.01224
1.07244
1.24176
1.39925
1.50701
1.54348
1.54533
1.54826
1.55005
1.55161
1.5533
1.55443
1.55525
1.55642
1.558
1.55973
1.55988
1
1
1
1
1
1
1
1
1
1
1
1
1
1
1
1
1
1
1
1
1
1
1
1
1
1
1
1
1
1
0.999999
1.00003
1.001
1.02125
1.11255
1.2951
1.43945
1.51827
1.55095
1.55455
1.55681
1.55801
1.5576
1.55687
1.55684
1.55753
1.55818
1.55813
1
1
1
1
1
1
1
1
1
1
1
1
1
1
1
1
1
1
1
1
1
1
1
1
1
1
1
1
1
1
1
1
0.999999
1.00012
1.00272
1.041
1.1774
1.36085
1.47263
1.52232
1.5511
1.55612
1.55506
1.55581
1.557
1.55799
1.55844
1.55822
1
1
1
1
1
1
1
1
1
1
1
1
1
1
1
1
1
1
1
1
1
1
1
1
1
1
1
1
1
1
1
1
1
1
1
1.00049
1.0087
1.07843
1.25438
1.43662
1.51975
1.53268
1.54077
1.54836
1.5532
1.55548
1.55621
1.55607
1
1
1
1
1
1
1
1
1
1
1
1
1
1
1
1
1
1
1
1
1
1
1
1
1
1
1
1
1
1
1
1
1
1
1
0.999999
1.00002
1.00195
1.02851
1.15648
1.34975
1.49027
1.54794
1.55076
1.55366
1.55503
1.55444
1.55421
1
1
1
1
1
1
1
1
1
1
1
1
1
1
1
1
1
1
1
1
1
1
1
1
1
1
1
1
1
1
1
1
1
1
1
1
1
1
1.00026
1.00845
1.08087
1.26296
1.43865
1.52447
1.55747
1.56076
1.55995
1.55871
1
1
1
1
1
1
1
1
1
1
1
1
1
1
1
1
1
1
1
1
1
1
1
1
1
1
1
1
1
1
1
1
1
1
1
1
1
1
1
1.00004
1.00195
1.03462
1.18631
1.3912
1.49587
1.53117
1.55458
1.55681
1
1
1
1
1
1
1
1
1
1
1
1
1
1
1
1
1
1
1
1
1
1
1
1
1
1
1
1
1
1
1
1
1
1
1
1
1
1
1
1
1
1.00059
1.01307
1.11429
1.31273
1.48809
1.53883
1.54641
1
1
1
1
1
1
1
1
1
1
1
1
1
1
1
1
1
1
1
1
1
1
1
1
1
1
1
1
1
1
1
1
1
1
1
1
1
1
1
1
1
1
1.00009
1.0056
1.0597
1.25928
1.44464
1.54263
1
1
1
1
1
1
1
1
1
1
1
1
1
1
1
1
1
1
1
1
1
1
1
1
1
1
1
1
1
1
1
1
1
1
1
1
1
1
1
1
1
1
1
1.00003
1.00152
1.03967
1.19751
1.42208
1
1
1
1
1
1
1
1
1
1
1
1
1
1
1
1
1
1
1
1
1
1
1
1
1
1
1
1
1
1
1
1
1
1
1
1
1
1
1
1
1
1
1
1
1
1.00097
1.01869
1.1412
1
1
1
1
1
1
1
1
1
1
1
1
1
1
1
1
1
1
1
1
1
1
1
1
1
1
1
1
1
1
1
1
1
1
1
1
1
1
1
1
1
1
1
1
1
1
1.00028
1.00665
1
1
1
1
1
1
1
1
1
1
1
1
1
1
1
1
1
1
1
1
1
1
1
1
1
1
1
1
1
1
1
1
1
1
1
1
1
1
1
1
1
1
1
1
1
1
1
0.99993
1
1
1
1
1
1
1
1
1
1
1
1
1
1
1
1
1
1
1
1
1
1
1
1
1
1
1
1
1
1
1
1
1
1
1
1
1
1
1
1
1
1
1
1
1
1
1
0.999977
1
1
1
1
1
1
1
1
1
1
1
1
1
1
1
1
1
1
1
1
1
1
1
1
1
1
1
1
1
1
1
1
1
1
1
1
1
1
1
1
1
1
1
1
1
1
1
0.999997
1
1
1
1
1
1
1
1
1
1
1
1
1
1
1
1
1
1
1
1
1
1
1
1
1
1
1
1
1
1
1
1
1
1
1
1
1
1
1
1
1
1
1
1
1
1
1
1
1
1
1
1
1
1
1
1
1
1
1
1
1
1
1
1
1
1
1
1
1
1
1
1
1
1
1
1
1
1
1
1
1
1
1
1
1
1
1
1
1
1
1
1
1
1
1
1
1
1
1
1
1
1
1
1
1
1
1
1
1
1
1
1
1
1
1
1
1
1
1
1
1
1
1
1
1
1
1
1
1
1
1
1
1
1
1
1
1
1
1
1
1
1
1
1
1
1
1
1
1
1
1
1
1
1
1
1
1
1
1
1
1
1
1
1
1
1
1
1
1
1
1
1
1
1
1
1
1
1
1
1
1
1
1
1
1
1
1
1
1
1
1
1
1
1
1
1
1
1
1
1
1
1
1
1
1
1
1
1
1
1
1
1
1
1
1
1
1
1
1
1
1
1
1
1
1
1
1
1
1
1
1
1
1
1
1
1
1
1
1
1
1
1
1
1
1
1
1
1
1
1
1
1
1
1
1
1
1
1
1
1
1
1
1
1
1
1
1
1
1
1
1
1
1
1
1
1
1
1
1
1
1
1
1
1
1
1
1
1
1
1
1
1
1
1
1
1
1
1
1
1
1
1
1
1
1
1
1
1
1
1
1
1
1
1
1
1
1
1
1
1
1
1
1
1
1
1
1
1
1
1
1
1
1
1
1
0.999997
1
1
1
1
1
1
1
1
1
1
1
1
1
1
1
1
1
1
1
1
1
1
1
1
1
1
1
1
1
1
1
1
1
1
1
1
1
1
1
1
1
1
1
1
1
1
1
0.999977
1
1
1
1
1
1
1
1
1
1
1
1
1
1
1
1
1
1
1
1
1
1
1
1
1
1
1
1
1
1
1
1
1
1
1
1
1
1
1
1
1
1
1
1
1
1
1
0.99993
1
1
1
1
1
1
1
1
1
1
1
1
1
1
1
1
1
1
1
1
1
1
1
1
1
1
1
1
1
1
1
1
1
1
1
1
1
1
1
1
1
1
1
1
1
1
1.00028
1.00665
1
1
1
1
1
1
1
1
1
1
1
1
1
1
1
1
1
1
1
1
1
1
1
1
1
1
1
1
1
1
1
1
1
1
1
1
1
1
1
1
1
1
1
1
1
1.00097
1.0187
1.1412
1
1
1
1
1
1
1
1
1
1
1
1
1
1
1
1
1
1
1
1
1
1
1
1
1
1
1
1
1
1
1
1
1
1
1
1
1
1
1
1
1
1
1
1.00003
1.00151
1.03966
1.19755
1.42205
1
1
1
1
1
1
1
1
1
1
1
1
1
1
1
1
1
1
1
1
1
1
1
1
1
1
1
1
1
1
1
1
1
1
1
1
1
1
1
1
1
1
1.00009
1.0056
1.05968
1.25927
1.44465
1.54261
1
1
1
1
1
1
1
1
1
1
1
1
1
1
1
1
1
1
1
1
1
1
1
1
1
1
1
1
1
1
1
1
1
1
1
1
1
1
1
1
1
1.00059
1.01307
1.1143
1.31271
1.4881
1.53883
1.54641
1
1
1
1
1
1
1
1
1
1
1
1
1
1
1
1
1
1
1
1
1
1
1
1
1
1
1
1
1
1
1
1
1
1
1
1
1
1
1
1.00004
1.00195
1.03462
1.18631
1.3912
1.49586
1.53118
1.55459
1.55681
1
1
1
1
1
1
1
1
1
1
1
1
1
1
1
1
1
1
1
1
1
1
1
1
1
1
1
1
1
1
1
1
1
1
1
1
1
1
1.00026
1.00845
1.08087
1.26296
1.43867
1.52446
1.55747
1.56077
1.55996
1.55871
1
1
1
1
1
1
1
1
1
1
1
1
1
1
1
1
1
1
1
1
1
1
1
1
1
1
1
1
1
1
1
1
1
1
1
0.999999
1.00002
1.00195
1.02851
1.15648
1.34975
1.49027
1.54795
1.55076
1.55365
1.55503
1.55445
1.55421
1
1
1
1
1
1
1
1
1
1
1
1
1
1
1
1
1
1
1
1
1
1
1
1
1
1
1
1
1
1
1
1
1
1
1
1.00049
1.0087
1.07843
1.25438
1.43663
1.51974
1.53268
1.54078
1.54836
1.55319
1.55548
1.55621
1.55607
1
1
1
1
1
1
1
1
1
1
1
1
1
1
1
1
1
1
1
1
1
1
1
1
1
1
1
1
1
1
1
1
0.999999
1.00012
1.00272
1.041
1.1774
1.36085
1.47263
1.52232
1.5511
1.55612
1.55506
1.55581
1.557
1.55799
1.55844
1.55822
1
1
1
1
1
1
1
1
1
1
1
1
1
1
1
1
1
1
1
1
1
1
1
1
1
1
1
1
1
1
0.999999
1.00003
1.001
1.02125
1.11255
1.2951
1.43945
1.51827
1.55095
1.55455
1.55681
1.55801
1.5576
1.55687
1.55684
1.55753
1.55818
1.55813
1
1
1
1
1
1
1
1
1
1
1
1
1
1
1
1
1
1
1
1
1
1
1
1
1
1
1
1
1
1
1.00045
1.01224
1.07244
1.24176
1.39925
1.507
1.54348
1.54533
1.54826
1.55005
1.55161
1.5533
1.55443
1.55525
1.55642
1.558
1.55973
1.55988
1
1
1
1
1
1
1
1
1
1
1
1
1
1
1
1
1
1
1
1
1
1
1
1
1
0.999999
1
0.999997
1.00033
1.00692
1.0515
1.20216
1.36243
1.49042
1.52225
1.53488
1.5426
1.54939
1.55247
1.55438
1.55594
1.55741
1.5586
1.55943
1.56037
1.56134
1.56311
1.56336
1
1
1
1
1
1
1
1
1
1
1
1
1
1
1
1
1
1
1
1
1
1
1
0.999999
1
0.999996
1.00027
1.00399
1.04511
1.17767
1.34072
1.45657
1.50882
1.54003
1.55464
1.55601
1.55639
1.55847
1.5605
1.56207
1.56309
1.56315
1.56322
1.56371
1.56459
1.56579
1.56745
1.56778
1
1
1
1
1
1
1
1
1
1
1
1
1
1
1
1
1
1
1
1
1
1
1
0.999996
1.00014
1.0031
1.04493
1.15632
1.32693
1.44367
1.5174
1.54774
1.55701
1.55961
1.56273
1.56256
1.56237
1.56339
1.56541
1.56677
1.56751
1.56783
1.56789
1.5681
1.56892
1.57002
1.57153
1.57201
1
1
1
1
1
1
1
1
1
1
1
1
1
1
1
1
1
1
1
1
1
0.999995
1.00008
1.00391
1.03903
1.14825
1.32387
1.44902
1.52835
1.55136
1.55467
1.55785
1.55972
1.56072
1.56252
1.56408
1.5658
1.56788
1.56979
1.57109
1.57183
1.5727
1.57353
1.57404
1.57468
1.57544
1.57665
1.57697
1
1
1
1
1
1
1
1
1
1
1
1
1
1
1
1
1
0.999999
0.999999
0.999994
1.0001
1.00482
1.03592
1.1652
1.32579
1.46069
1.53216
1.54526
1.55756
1.56004
1.56227
1.56448
1.56557
1.56707
1.56943
1.5721
1.57454
1.5763
1.57739
1.57806
1.57846
1.57904
1.5796
1.57994
1.58023
1.58056
1.58111
1.58109
1
1
1
1
1
1
1
1
1
1
1
1
1
1
1
0.999999
0.999999
0.999993
1.00016
1.00384
1.04306
1.18525
1.33819
1.47997
1.52564
1.54971
1.56491
1.57345
1.57408
1.57219
1.57269
1.57363
1.57477
1.57633
1.57796
1.5795
1.58096
1.58227
1.58311
1.58322
1.58317
1.58304
1.58281
1.5826
1.58258
1.58265
1.58272
1.58275
1
1
1
1
1
1
1
1
1
1
1
1
1
0.999999
0.999999
0.999989
1.00017
1.0042
1.05722
1.18819
1.3733
1.48405
1.54573
1.57973
1.58348
1.58331
1.58004
1.57899
1.57906
1.57922
1.57955
1.57968
1.58044
1.58133
1.58177
1.58213
1.58268
1.58356
1.5845
1.58477
1.58463
1.58413
1.58358
1.58354
1.58351
1.58345
1.58334
1.58347
1
1
1
1
1
1
1
1
1
1
1
0.999999
0.999999
0.999988
1.00012
1.00779
1.07059
1.21444
1.39887
1.50729
1.58433
1.59766
1.59665
1.59241
1.58877
1.58418
1.57913
1.57815
1.57858
1.5801
1.58185
1.58385
1.58457
1.58439
1.58366
1.5831
1.58306
1.58331
1.58402
1.5842
1.58398
1.58338
1.58279
1.58246
1.58225
1.5821
1.58173
1.58234
1
1
1
1
1
1
1
1
1
0.999999
0.999999
0.999981
1.00028
1.01181
1.07611
1.26264
1.43156
1.55813
1.60443
1.6
1.59803
1.59243
1.58521
1.58136
1.57912
1.57772
1.57731
1.57787
1.57915
1.58099
1.58324
1.58491
1.58481
1.58436
1.58356
1.58265
1.58185
1.58153
1.58165
1.58173
1.58146
1.58062
1.57955
1.57853
1.57767
1.5772
1.57658
1.57754
1
1
1
1
1
1
1
1
1
0.999969
1.00089
1.01515
1.11214
1.29672
1.46235
1.5877
1.60777
1.61701
1.61388
1.60637
1.59161
1.57983
1.57361
1.57126
1.57163
1.57216
1.57387
1.57618
1.57788
1.57898
1.57977
1.57985
1.57974
1.57904
1.57824
1.57733
1.57618
1.57538
1.57524
1.57532
1.57526
1.57466
1.57353
1.57209
1.57062
1.56962
1.56892
1.56974
1
1
1
1
0.999999
1
0.999997
1.00003
1.00199
1.02676
1.15672
1.3296
1.51679
1.57958
1.60799
1.60456
1.59319
1.59047
1.58461
1.57694
1.57459
1.56996
1.56765
1.56615
1.56618
1.56647
1.56769
1.56914
1.56941
1.56916
1.56869
1.56813
1.5677
1.56699
1.5662
1.56531
1.5642
1.56351
1.56342
1.56362
1.56392
1.56386
1.56327
1.56224
1.5611
1.56021
1.55968
1.56065
1
0.999992
1.00002
1.00003
1.00045
1.00467
1.02132
1.07471
1.18244
1.34631
1.49917
1.5826
1.62566
1.62389
1.61314
1.59658
1.58068
1.5596
1.54756
1.54707
1.54838
1.55094
1.55365
1.5541
1.55437
1.55407
1.5543
1.55452
1.55427
1.55409
1.55407
1.55447
1.55447
1.55422
1.5537
1.55298
1.55253
1.55246
1.55265
1.55326
1.55412
1.55456
1.55447
1.55403
1.55342
1.5527
1.55191
1.5528
1.00065
1.0047
1.0262
1.06849
1.12829
1.21651
1.29943
1.37942
1.45207
1.50636
1.52792
1.55936
1.56919
1.56316
1.55295
1.54597
1.54064
1.53501
1.53355
1.53332
1.53465
1.53723
1.53959
1.54104
1.54194
1.54297
1.54408
1.54422
1.54423
1.5447
1.54574
1.54687
1.54764
1.54787
1.54768
1.54712
1.54658
1.54651
1.54676
1.54728
1.54781
1.5481
1.54809
1.54795
1.54769
1.54718
1.54679
1.54728
1.07774
1.18163
1.28483
1.3763
1.47855
1.55724
1.61854
1.67048
1.69592
1.68958
1.659
1.61319
1.57308
1.54064
1.52595
1.51337
1.51269
1.51499
1.52024
1.52582
1.53041
1.53246
1.53376
1.53537
1.53755
1.5398
1.54129
1.54186
1.54233
1.54357
1.54558
1.54672
1.54687
1.5468
1.54617
1.54499
1.54415
1.54396
1.54399
1.54428
1.54454
1.54493
1.54523
1.54535
1.54545
1.54549
1.54547
1.54567
1.40118
1.24446
1.1152
0.990053
0.987366
1.00967
1.00947
1.01886
1.05144
1.08234
1.08275
1.08298
1.09305
1.10909
1.11374
1.11597
1.12264
1.12254
1.11994
1.11808
1.11819
1.11774
1.11542
1.11332
1.11322
1.1128
1.11077
1.10688
1.105
1.1049
1.10458
1.10455
1.10493
1.10519
1.10519
1.10509
1.10381
1.10287
1.10287
1.10315
1.10406
1.10462
1.10462
1.10451
1.10428
1.10382
1.10262
1.10261
1.10414
1.13757
1.31824
1.57732
1.7793
1.98675
2.1525
2.22668
2.18578
2.11498
2.05596
2.03615
2.03262
2.0247
2.00956
1.9946
1.98394
1.97269
1.95961
1.94834
1.93812
1.92765
1.91712
1.90362
1.88463
1.86214
1.84509
1.83616
1.83107
1.82954
1.82821
1.82267
1.81458
1.79948
1.77746
1.75959
1.74942
1.74255
1.73702
1.73158
1.72486
1.71566
1.70155
1.68806
1.68069
1.67524
1.66994
1.66428
1.65722
1.64631
1.62838
1.60985
1.60091
1.59617
1.59227
1.58917
1.58612
1.58243
1.5771
1.56593
1.54659
1.53178
1.52509
1.52041
1.51665
1.51335
1.51014
1.50621
1.50097
1.49165
1.47555
1.46137
1.45518
1.45153
1.44867
1.44594
1.44279
1.43777
1.42747
1.41163
1.40219
1.3986
1.39571
1.39289
1.3902
1.38703
1.38315
1.37671
1.36352
1.34721
1.34045
1.3379
1.3357
1.33355
1.33143
1.32928
1.327
1.3241
1.31909
1.30963
1.29718
1.28865
1.28365
1.27882
1.27253
1.26738
1.26542
1.26393
1.26246
1.26091
1.25895
1.2555
1.24743
1.23269
1.22353
1.22092
1.21888
1.21682
1.21479
1.21295
1.21113
1.20801
1.20002
1.18748
1.18079
1.17829
1.17604
1.1737
1.17175
1.16982
1.16823
1.16658
1.16324
1.15377
1.14123
1.13738
1.13592
1.13458
1.13374
1.13304
1.1316
1.13022
1.12873
1.12297
1.49979
1.41635
1.34169
1.24396
1.16912
1.14253
1.10675
1.07791
1.08108
1.07287
1.05355
1.05275
1.05764
1.06756
1.07595
1.08081
1.08992
1.09367
1.09298
1.09367
1.09696
1.10219
1.10416
1.10521
1.10522
1.10478
1.10252
1.10009
1.09986
1.10001
1.10002
1.10035
1.10104
1.10135
1.1015
1.10119
1.09999
1.09897
1.09868
1.0987
1.09908
1.09951
1.09976
1.09977
1.09961
1.0986
1.09895
1.10368
1.13912
1.30734
1.51494
1.57327
1.64784
1.74656
1.87448
2.00745
2.08708
2.10404
2.08485
2.06192
2.04415
2.02638
2.01309
2.00206
1.99163
1.97844
1.96296
1.94652
1.9353
1.92697
1.91782
1.90618
1.89104
1.87423
1.85888
1.84524
1.83556
1.82965
1.82462
1.81831
1.80976
1.7983
1.78383
1.7698
1.75822
1.74781
1.73916
1.73345
1.72866
1.71993
1.7062
1.69414
1.68676
1.68025
1.67408
1.66806
1.66083
1.64968
1.63247
1.61545
1.60743
1.60277
1.59805
1.59379
1.58963
1.58533
1.57964
1.56881
1.55093
1.53615
1.52997
1.52602
1.52228
1.5182
1.51422
1.51011
1.50452
1.49462
1.47925
1.4661
1.46018
1.4564
1.45306
1.4501
1.44663
1.44107
1.43094
1.41704
1.40867
1.40454
1.40102
1.39756
1.3941
1.39053
1.38629
1.37945
1.3674
1.35306
1.34616
1.34332
1.34112
1.33878
1.33631
1.33373
1.33098
1.32769
1.32235
1.31272
1.30069
1.29294
1.28889
1.28461
1.27865
1.2723
1.26927
1.26749
1.26575
1.26391
1.26157
1.25791
1.25105
1.23904
1.22934
1.22557
1.2231
1.22052
1.21805
1.2159
1.21395
1.21135
1.20553
1.19467
1.18666
1.18321
1.18068
1.17803
1.17548
1.17327
1.17138
1.16954
1.16668
1.15982
1.14809
1.14271
1.14106
1.13951
1.13803
1.13649
1.13531
1.13395
1.13254
1.12965
1.53843
1.49638
1.43507
1.3627
1.28348
1.23019
1.18043
1.11965
1.09139
1.07463
1.04894
1.04171
1.04453
1.04955
1.05015
1.05171
1.05795
1.06346
1.06529
1.06757
1.07378
1.08152
1.08472
1.08604
1.08722
1.08781
1.08773
1.08781
1.08853
1.08921
1.09006
1.09137
1.09172
1.09166
1.09132
1.09023
1.08921
1.08881
1.08873
1.08883
1.0892
1.08969
1.09007
1.09021
1.08995
1.09109
1.10475
1.17639
1.32172
1.51632
1.59789
1.59191
1.59503
1.60695
1.65175
1.79906
1.98937
2.11058
2.11841
2.09691
2.05345
2.02354
2.01659
2.01297
2.00329
1.98902
1.97396
1.95723
1.93854
1.92662
1.91602
1.90479
1.89517
1.88697
1.87761
1.86551
1.85016
1.83494
1.82332
1.81308
1.80228
1.79204
1.78532
1.77943
1.77095
1.76001
1.74911
1.73832
1.72649
1.71518
1.70423
1.69491
1.68637
1.67797
1.66968
1.66236
1.65493
1.64485
1.63175
1.62122
1.61238
1.60298
1.59531
1.58991
1.58482
1.57926
1.57201
1.56136
1.54835
1.54001
1.53497
1.52938
1.52251
1.51552
1.50914
1.50338
1.49728
1.48873
1.47791
1.47029
1.46368
1.45591
1.44849
1.44387
1.4403
1.43538
1.42743
1.41876
1.41097
1.40324
1.39736
1.3933
1.38916
1.38469
1.37989
1.37362
1.36487
1.35657
1.34833
1.34072
1.33703
1.33488
1.33242
1.32951
1.32604
1.32187
1.3164
1.30863
1.30063
1.29477
1.28931
1.28361
1.27661
1.26886
1.26446
1.26225
1.26044
1.25878
1.2569
1.25414
1.24918
1.24093
1.22993
1.22261
1.21918
1.21641
1.21385
1.21184
1.21018
1.20795
1.20265
1.19205
1.18408
1.18048
1.17773
1.17499
1.17236
1.1702
1.1684
1.16663
1.16381
1.15766
1.14699
1.14166
1.14005
1.13879
1.1378
1.1379
1.13826
1.13992
1.14328
1.1595
1.55596
1.53751
1.49807
1.44392
1.3761
1.31879
1.26678
1.20358
1.1642
1.1416
1.10779
1.07613
1.07386
1.06547
1.0514
1.04909
1.0488
1.04507
1.04457
1.04613
1.05263
1.06237
1.06666
1.06851
1.0708
1.07337
1.0749
1.07628
1.07781
1.08024
1.08281
1.08406
1.08414
1.08393
1.08309
1.08176
1.08152
1.08165
1.082
1.08198
1.08192
1.08189
1.08146
1.08146
1.08267
1.09945
1.22765
1.39495
1.5187
1.59291
1.61452
1.61277
1.60601
1.59916
1.59426
1.6126
1.72461
1.9222
2.08466
2.08567
2.06231
2.04326
2.03148
2.02518
2.01503
2.00226
1.98963
1.97438
1.95172
1.93051
1.91879
1.90976
1.90447
1.90042
1.89353
1.88357
1.86617
1.84104
1.82068
1.80899
1.8012
1.79534
1.79127
1.78806
1.78255
1.77411
1.76015
1.74102
1.72453
1.7143
1.70747
1.70071
1.69216
1.68306
1.67363
1.66306
1.65321
1.64577
1.63954
1.63183
1.62119
1.60914
1.60037
1.59466
1.58863
1.58008
1.56828
1.55751
1.55308
1.55045
1.54508
1.53758
1.52883
1.5202
1.5115
1.50184
1.49346
1.48813
1.48411
1.47916
1.4719
1.46204
1.45178
1.44371
1.43837
1.43421
1.43005
1.4245
1.41635
1.407
1.39906
1.3942
1.39047
1.38558
1.3788
1.37247
1.36781
1.3623
1.35366
1.3438
1.33725
1.3344
1.33218
1.32954
1.32638
1.32156
1.31487
1.30901
1.30451
1.2993
1.29303
1.28633
1.27825
1.26976
1.26449
1.26161
1.25943
1.25752
1.25565
1.25367
1.25102
1.24497
1.23355
1.22421
1.21999
1.21722
1.21467
1.21247
1.21055
1.2082
1.20335
1.19337
1.18511
1.1813
1.17844
1.17584
1.17339
1.17116
1.16938
1.16764
1.16466
1.15867
1.14867
1.1435
1.14223
1.14177
1.14407
1.15198
1.16696
1.19069
1.21686
1.26069
1.5661
1.55937
1.53879
1.50233
1.44693
1.39372
1.34422
1.27983
1.2359
1.20797
1.17213
1.12875
1.11064
1.0931
1.06743
1.053
1.05177
1.04597
1.04378
1.04551
1.05051
1.05371
1.05539
1.05648
1.05823
1.06165
1.06495
1.06829
1.07135
1.07487
1.07779
1.07885
1.07898
1.07873
1.0779
1.07775
1.07831
1.07947
1.08036
1.08034
1.08004
1.07925
1.07798
1.07846
1.09338
1.22441
1.45769
1.55794
1.59996
1.61837
1.61558
1.61618
1.61368
1.60409
1.59703
1.59004
1.59289
1.64833
1.82157
2.00497
2.06988
2.06538
2.0477
2.02523
2.01225
2.00591
1.99773
1.9865
1.96575
1.93831
1.92276
1.91363
1.90762
1.90429
1.89712
1.88882
1.87497
1.84891
1.82365
1.81283
1.80656
1.8014
1.79802
1.79174
1.78397
1.77443
1.75928
1.74017
1.72684
1.71897
1.71173
1.70353
1.69484
1.68498
1.6742
1.66317
1.65333
1.64564
1.63981
1.63419
1.6265
1.61704
1.60741
1.59738
1.58717
1.57713
1.56784
1.56099
1.55579
1.54985
1.54351
1.5359
1.52716
1.51859
1.50982
1.50124
1.49383
1.48741
1.48218
1.47746
1.47184
1.4637
1.4533
1.44434
1.43805
1.4331
1.42851
1.42409
1.41855
1.41173
1.40435
1.39723
1.39033
1.38429
1.3782
1.37235
1.36676
1.36133
1.3558
1.34966
1.34259
1.33631
1.33329
1.33036
1.32599
1.31948
1.31183
1.30573
1.30184
1.29935
1.29696
1.29347
1.28582
1.2731
1.26379
1.26065
1.25888
1.25755
1.25614
1.25391
1.2499
1.24391
1.23591
1.22872
1.22381
1.22039
1.21746
1.21456
1.21178
1.20875
1.20411
1.19614
1.18957
1.18595
1.1828
1.1802
1.17706
1.17386
1.17191
1.17042
1.16807
1.16335
1.15667
1.15746
1.16387
1.17872
1.20193
1.23283
1.26277
1.29106
1.31217
1.33553
1.57477
1.57091
1.56261
1.54286
1.50399
1.45602
1.40989
1.35518
1.30802
1.27347
1.23367
1.19067
1.16736
1.14708
1.11553
1.09333
1.08712
1.07536
1.06158
1.06138
1.06102
1.05724
1.05254
1.05078
1.05073
1.05188
1.05538
1.06069
1.06738
1.07245
1.07567
1.07714
1.07747
1.07729
1.07693
1.07711
1.07791
1.07941
1.08042
1.08045
1.08012
1.07912
1.0811
1.10551
1.2286
1.47118
1.58327
1.61629
1.62983
1.62965
1.6161
1.61334
1.61519
1.60963
1.59598
1.58826
1.58023
1.57781
1.59767
1.7126
1.89104
2.01407
2.02413
2.02058
2.01513
2.01457
2.0049
1.9891
1.969
1.94413
1.92596
1.91694
1.91022
1.90612
1.89874
1.88932
1.87757
1.85691
1.83205
1.81984
1.8131
1.80707
1.80086
1.79361
1.78536
1.77404
1.75649
1.74016
1.73188
1.72514
1.71765
1.70979
1.70112
1.68976
1.67571
1.66279
1.65341
1.64748
1.64289
1.63851
1.63361
1.62609
1.61398
1.59849
1.5852
1.57686
1.57092
1.56549
1.55942
1.55316
1.54692
1.53997
1.53074
1.51925
1.50934
1.50173
1.49551
1.49005
1.48515
1.48021
1.47462
1.46748
1.4563
1.44482
1.43737
1.43264
1.42926
1.42676
1.42441
1.42015
1.41234
1.39942
1.38793
1.38222
1.37804
1.37371
1.36943
1.36607
1.36332
1.35934
1.35276
1.34329
1.33375
1.32785
1.32305
1.31769
1.31162
1.30681
1.30431
1.30234
1.29929
1.29371
1.28445
1.27255
1.26494
1.26103
1.25784
1.25536
1.25404
1.25294
1.25111
1.24725
1.24048
1.23064
1.22174
1.21715
1.21473
1.21285
1.21089
1.20816
1.20411
1.19822
1.19076
1.18555
1.1823
1.17998
1.17897
1.17749
1.17786
1.1802
1.18675
1.19624
1.21014
1.22952
1.25541
1.27927
1.30522
1.32783
1.34128
1.35072
1.35845
1.36255
1.58107
1.57921
1.57612
1.56637
1.54332
1.5094
1.46757
1.41589
1.37451
1.33629
1.29321
1.25151
1.22399
1.19784
1.16431
1.14064
1.12775
1.11169
1.08619
1.07861
1.0735
1.06472
1.05801
1.05675
1.05519
1.05513
1.05647
1.05932
1.06474
1.0691
1.07119
1.07306
1.07444
1.0756
1.07695
1.07846
1.08001
1.08136
1.08208
1.08217
1.08157
1.08631
1.14854
1.29119
1.48666
1.61358
1.62887
1.63482
1.63294
1.63329
1.62511
1.61448
1.61091
1.60768
1.59604
1.58216
1.5748
1.56857
1.56163
1.56605
1.61729
1.75352
1.9134
1.98286
2.00615
2.00876
2.00042
1.98444
1.96712