/*--------------------------------*- C++ -*----------------------------------*\
  =========                 |
  \\      /  F ield         | OpenFOAM: The Open Source CFD Toolbox
   \\    /   O peration     | Website:  https://openfoam.org
    \\  /    A nd           | Version:  7
     \\/     M anipulation  |
\*---------------------------------------------------------------------------*/
FoamFile
{
    version     2.0;
    format      ascii;
    class       volVectorField;
    location    "1.1";
    object      U;
}
// * * * * * * * * * * * * * * * * * * * * * * * * * * * * * * * * * * * * * //

dimensions      [0 1 -1 0 0 0 0];

internalField   nonuniform List<vector> 
18432
(
(3 4.0954e-17 0)
(3 1.96324e-17 0)
(3 -1.28391e-16 0)
(3 -1.03987e-16 0)
(3 -1.06103e-16 0)
(3 1.38317e-16 0)
(3 1.98175e-16 0)
(3 3.88294e-16 0)
(3 2.87951e-16 0)
(3 -1.20622e-16 0)
(3 7.46511e-17 0)
(3 4.72566e-16 0)
(3 4.79543e-16 0)
(3 4.94805e-16 0)
(3 4.95713e-16 0)
(3 5.936e-16 0)
(3 5.63139e-16 0)
(3 5.32516e-16 0)
(3 -3.01737e-16 0)
(3 -6.08934e-16 0)
(3 4.49592e-18 0)
(3 -3.32316e-16 0)
(3 -5.85727e-16 0)
(3 -4.44749e-16 0)
(3 -2.30876e-16 0)
(3 -3.83061e-16 0)
(3 -1.10326e-15 0)
(3 -1.3262e-15 0)
(3 -5.3721e-16 0)
(3 7.62018e-16 0)
(3 8.49116e-16 0)
(3 1.01834e-15 0)
(3 9.12675e-16 0)
(3 6.85017e-16 0)
(3 2.24836e-15 0)
(3 2.77655e-15 0)
(3 1.1897e-15 0)
(3 4.861e-16 0)
(3 -1.04384e-15 0)
(3 -2.33493e-15 0)
(3 -1.60257e-15 0)
(3 -3.00911e-16 0)
(3 1.39245e-17 0)
(3 7.30785e-16 0)
(3 -3.08115e-16 0)
(3 -1.5276e-15 0)
(3 -1.5252e-15 0)
(3 -5.33441e-16 0)
(3 8.69658e-17 0)
(3 1.42017e-16 0)
(3 -1.63302e-16 0)
(3 -1.9031e-16 0)
(3 -3.44715e-16 0)
(3 -3.09474e-16 0)
(3 -3.49607e-16 0)
(3 2.96518e-17 0)
(3 2.6667e-16 0)
(3 -1.8478e-16 0)
(3 3.71649e-16 0)
(3 5.90315e-16 0)
(3 7.46347e-17 0)
(3 -1.58209e-16 0)
(3 -3.28791e-16 0)
(3 2.62623e-16 0)
(3 5.77511e-16 0)
(3 6.84411e-16 0)
(3 -2.23465e-15 0)
(3 -3.02945e-15 0)
(3 -2.01927e-15 0)
(3 -9.42643e-16 0)
(3 -6.38293e-16 0)
(3 -2.90565e-16 0)
(3 3.77921e-16 0)
(3 -1.04675e-15 0)
(3 -2.34327e-15 0)
(3 -1.40932e-15 0)
(3 5.97445e-16 0)
(3 1.99058e-15 0)
(3 1.63518e-15 0)
(3 1.59994e-15 0)
(3 1.58359e-15 0)
(3 3.92119e-16 0)
(3 4.70778e-16 0)
(3 9.17421e-16 0)
(3 -6.99371e-17 0)
(3 -1.56145e-15 0)
(3 -4.08419e-15 0)
(3 -4.59468e-15 0)
(3 -2.67258e-15 0)
(3 -7.71574e-16 0)
(3 -1.01403e-17 0)
(3 7.09141e-16 0)
(3 1.37831e-16 0)
(3 -1.9622e-15 0)
(3 -1.49749e-15 0)
(3 -7.25712e-16 0)
(3 -1.46427e-17 0)
(3 -7.42457e-18 0)
(3 -8.23631e-17 0)
(3 -3.887e-16 0)
(3 -8.91934e-16 0)
(3 -9.35442e-16 0)
(3 -1.06024e-15 0)
(3 -1.01329e-15 0)
(3 -7.70816e-16 0)
(3 -1.39029e-16 0)
(3 2.1733e-16 0)
(3 1.70846e-16 0)
(3 -8.44505e-17 0)
(3 -6.46846e-16 0)
(3 -9.1364e-16 0)
(3 -1.46198e-16 0)
(3 6.41146e-16 0)
(3 6.51241e-16 0)
(3 1.68785e-16 0)
(3 -1.19805e-15 0)
(3 -5.61633e-16 0)
(3 1.74677e-15 0)
(3 1.93585e-15 0)
(3 2.10523e-15 0)
(3 1.11702e-15 0)
(3 -9.08199e-16 0)
(3 -1.20169e-15 0)
(3 -8.46197e-16 0)
(3 -7.71716e-17 0)
(3 1.60408e-16 0)
(3 7.33238e-16 0)
(3 1.00301e-15 0)
(3 1.50321e-15 0)
(3 1.78001e-15 0)
(3 4.01554e-16 0)
(3 -2.6009e-16 0)
(3 -1.20788e-15 0)
(3 -1.91721e-15 0)
(3 -2.59305e-15 0)
(3 -2.79627e-15 0)
(3 -2.71433e-15 0)
(3 -3.90087e-16 0)
(3 3.28914e-16 0)
(3 6.24596e-16 0)
(3 -1.23252e-15 0)
(3 -1.27027e-15 0)
(3 -8.53565e-16 0)
(3 -9.55192e-16 0)
(3 -6.34649e-17 0)
(3 -9.86757e-17 0)
(3 2.16107e-16 0)
(3 2.1515e-16 0)
(3 2.29872e-17 0)
(3 2.01428e-16 0)
(3 2.40734e-16 0)
(3 4.22923e-17 0)
(3 -2.22742e-16 0)
(3 -5.65181e-17 0)
(3 1.09246e-16 0)
(3 -3.35384e-17 0)
(3 -8.37319e-17 0)
(3 -6.70001e-16 0)
(3 -1.33607e-15 0)
(3 -1.77304e-15 0)
(3 -1.29988e-15 0)
(3 -8.55108e-16 0)
(3 -2.66977e-16 0)
(3 1.62767e-16 0)
(3 2.13283e-15 0)
(3 4.05327e-15 0)
(3 3.50936e-15 0)
(3 2.22724e-15 0)
(3 4.80509e-16 0)
(3 5.73066e-16 0)
(3 -1.53526e-17 0)
(3 -4.70581e-16 0)
(3 -2.02261e-15 0)
(3 -3.37292e-15 0)
(3 -1.30764e-15 0)
(3 2.41452e-17 0)
(3 5.10763e-16 0)
(3 4.30637e-16 0)
(3 -6.20591e-17 0)
(3 -7.8688e-16 0)
(3 -1.29411e-15 0)
(3 -9.51421e-16 0)
(3 -6.7953e-16 0)
(3 -8.93987e-16 0)
(3 -2.12355e-15 0)
(3 -1.01727e-15 0)
(3 -1.21846e-16 0)
(3 3.40784e-17 0)
(3 -1.05453e-15 0)
(3 -1.44159e-15 0)
(3 2.56382e-16 0)
(3 -4.74e-16 0)
(3 1.12713e-16 0)
(3 4.14871e-16 0)
(3 9.79527e-16 0)
(3 1.438e-15 0)
(3 1.91486e-15 0)
(3 1.43798e-15 0)
(3 8.81168e-16 0)
(3 7.24371e-16 0)
(3 5.58108e-16 0)
(3 5.31793e-16 0)
(3 -1.57986e-16 0)
(3 -1.0344e-15 0)
(3 -1.18074e-15 0)
(3 -1.1374e-15 0)
(3 -2.5871e-15 0)
(3 -2.96925e-15 0)
(3 -2.73713e-15 0)
(3 -1.84562e-15 0)
(3 -1.21422e-15 0)
(3 -1.83728e-16 0)
(3 2.33676e-15 0)
(3 3.5813e-15 0)
(3 3.47074e-15 0)
(3 2.89389e-15 0)
(3 2.42608e-15 0)
(3 1.31467e-15 0)
(3 7.81472e-16 0)
(3 -3.21037e-16 0)
(3 -2.15065e-15 0)
(3 -2.82875e-15 0)
(3 -1.26394e-15 0)
(3 4.34117e-17 0)
(3 2.06651e-16 0)
(3 -8.86349e-16 0)
(3 -9.10567e-16 0)
(3 -6.42068e-16 0)
(3 -3.33635e-16 0)
(3 9.43024e-16 0)
(3 4.68711e-16 0)
(3 -4.34943e-17 0)
(3 -2.76584e-16 0)
(3 5.98508e-16 0)
(3 9.76912e-16 0)
(3 6.94439e-16 0)
(3 5.0447e-16 0)
(3 4.00352e-16 0)
(3 8.09578e-16 0)
(3 3.48999e-16 0)
(3 -9.99814e-17 0)
(3 -6.98567e-17 0)
(3 1.45217e-16 0)
(3 3.7708e-16 0)
(3 1.03702e-15 0)
(3 9.02855e-16 0)
(3 1.31553e-16 0)
(3 -3.39183e-16 0)
(3 -5.30202e-16 0)
(3 -4.50811e-16 0)
(3 -1.06296e-15 0)
(3 -8.88782e-16 0)
(3 -7.59173e-16 0)
(3 -3.76259e-16 0)
(3 -7.96883e-16 0)
(3 -1.65782e-15 0)
(3 -2.42524e-15 0)
(3 -2.36344e-15 0)
(3 -3.37609e-15 0)
(3 -2.3572e-15 0)
(3 8.2773e-16 0)
(3 2.09841e-15 0)
(3 3.53849e-15 0)
(3 4.1706e-15 0)
(3 4.69387e-15 0)
(3 2.89822e-15 0)
(3 2.39442e-15 0)
(3 9.21081e-17 0)
(3 -1.89182e-15 0)
(3 -2.76407e-15 0)
(3 -2.43864e-15 0)
(3 -1.94482e-15 0)
(3 -1.69337e-15 0)
(3 -1.12362e-15 0)
(3 -3.06521e-16 0)
(3 2.06506e-16 0)
(3 1.23711e-15 0)
(3 1.22344e-15 0)
(3 1.39397e-15 0)
(3 1.48735e-15 0)
(3 1.90336e-15 0)
(3 1.86537e-15 0)
(3 1.93858e-15 0)
(3 2.0694e-15 0)
(3 1.40196e-15 0)
(3 1.51491e-15 0)
(3 1.62152e-15 0)
(3 1.41883e-15 0)
(3 -2.44376e-16 0)
(3 -5.43025e-16 0)
(3 -1.02682e-15 0)
(3 -1.16917e-15 0)
(3 -2.79449e-16 0)
(3 1.87693e-16 0)
(3 -3.02317e-16 0)
(3 -7.29402e-16 0)
(3 -1.0839e-15 0)
(3 -1.87842e-15 0)
(3 -2.05567e-15 0)
(3 -1.19632e-15 0)
(3 -6.26014e-16 0)
(3 3.64501e-17 0)
(3 -1.8507e-18 0)
(3 6.36561e-17 0)
(3 -8.42786e-16 0)
(3 -8.4055e-16 0)
(3 -2.56659e-15 0)
(3 -4.05958e-15 0)
(3 -1.34056e-16 0)
(3 7.26622e-16 0)
(3 3.45683e-15 0)
(3 5.09424e-15 0)
(3 4.85062e-15 0)
(3 4.24139e-15 0)
(3 2.30398e-15 0)
(3 -8.72219e-16 0)
(3 -3.01855e-15 0)
(3 -3.41843e-15 0)
(3 -2.27562e-15 0)
(3 -1.96884e-15 0)
(3 -2.36341e-15 0)
(3 -2.53589e-15 0)
(3 -8.12851e-16 0)
(3 8.33637e-16 0)
(3 1.26335e-15 0)
(3 1.87705e-15 0)
(3 2.89596e-15 0)
(3 3.00502e-15 0)
(3 2.75018e-15 0)
(3 1.97638e-15 0)
(3 1.76908e-15 0)
(3 2.08959e-15 0)
(3 1.89789e-15 0)
(3 1.10804e-15 0)
(3 2.78061e-16 0)
(3 1.17819e-15 0)
(3 5.10432e-17 0)
(3 -4.04775e-17 0)
(3 -3.48243e-17 0)
(3 -5.03995e-16 0)
(3 -7.327e-16 0)
(3 -8.27116e-16 0)
(3 -4.60486e-16 0)
(3 -2.33562e-17 0)
(3 -1.427e-16 0)
(3 -8.09735e-16 0)
(3 -6.70806e-16 0)
(3 -2.44303e-16 0)
(3 -3.28797e-16 0)
(3 1.53533e-16 0)
(3 4.66397e-16 0)
(3 1.19558e-15 0)
(3 1.56302e-15 0)
(3 2.56557e-15 0)
(3 5.9441e-16 0)
(3 -2.33796e-15 0)
(3 -2.64651e-15 0)
(3 4.6317e-16 0)
(3 1.2024e-15 0)
(3 2.99025e-15 0)
(3 4.08901e-15 0)
(3 4.86991e-15 0)
(3 1.88204e-15 0)
(3 -2.54833e-15 0)
(3 -3.6877e-15 0)
(3 -3.05582e-15 0)
(3 -1.50621e-15 0)
(3 -1.86426e-15 0)
(3 -2.8446e-15 0)
(3 -2.6457e-15 0)
(3 -1.3632e-15 0)
(3 2.6288e-16 0)
(3 1.91759e-15 0)
(3 2.63838e-15 0)
(3 2.68401e-15 0)
(3 1.95533e-15 0)
(3 1.58158e-15 0)
(3 2.26757e-15 0)
(3 3.41731e-15 0)
(3 3.21886e-15 0)
(3 2.43411e-15 0)
(3 4.4407e-16 0)
(3 -2.19698e-15 0)
(3 -2.25322e-15 0)
(3 1.27372e-16 0)
(3 1.44707e-16 0)
(3 2.63986e-16 0)
(3 8.64528e-17 0)
(3 -7.25398e-16 0)
(3 -1.09365e-15 0)
(3 -8.74885e-16 0)
(3 -6.94293e-16 0)
(3 -5.84356e-16 0)
(3 -6.28939e-16 0)
(3 1.22323e-16 0)
(3 7.00022e-16 0)
(3 9.58289e-16 0)
(3 5.43102e-16 0)
(3 7.76501e-16 0)
(3 1.83222e-15 0)
(3 2.48967e-15 0)
(3 1.91561e-15 0)
(3 1.69637e-16 0)
(3 -2.11179e-15 0)
(3 -3.82473e-15 0)
(3 -1.70842e-15 0)
(3 -8.49278e-16 0)
(3 -3.80098e-16 0)
(3 1.53478e-16 0)
(3 1.43173e-15 0)
(3 6.06855e-16 0)
(3 -3.94177e-16 0)
(3 -5.27823e-16 0)
(3 -4.59295e-16 0)
(3 -5.49463e-16 0)
(3 -1.91394e-15 0)
(3 -1.99485e-15 0)
(3 -1.48988e-15 0)
(3 -4.74935e-16 0)
(3 2.60337e-16 0)
(3 6.76349e-16 0)
(3 1.03236e-15 0)
(3 1.25554e-15 0)
(3 1.83564e-15 0)
(3 1.94101e-15 0)
(3 1.59251e-15 0)
(3 1.25829e-15 0)
(3 1.66392e-15 0)
(3 2.1406e-15 0)
(3 1.52496e-15 0)
(3 -2.37729e-15 0)
(3 -3.07069e-15 0)
(3 -4.9041e-17 0)
(3 -2.64167e-17 0)
(3 -5.68239e-16 0)
(3 -2.59588e-16 0)
(3 -3.2867e-16 0)
(3 -1.01777e-15 0)
(3 -1.65105e-15 0)
(3 -1.41138e-15 0)
(3 -9.07436e-16 0)
(3 1.18787e-16 0)
(3 1.0886e-15 0)
(3 1.94337e-15 0)
(3 2.53739e-15 0)
(3 2.23938e-15 0)
(3 1.59782e-15 0)
(3 1.66622e-15 0)
(3 2.09368e-15 0)
(3 1.86412e-15 0)
(3 8.14651e-16 0)
(3 7.04874e-16 0)
(3 3.50729e-15 0)
(3 3.7725e-16 0)
(3 -6.68819e-16 0)
(3 -2.20744e-15 0)
(3 -3.5417e-15 0)
(3 -3.07222e-15 0)
(3 -3.33939e-15 0)
(3 -3.68177e-16 0)
(3 7.1591e-16 0)
(3 3.21953e-16 0)
(3 -1.45703e-15 0)
(3 -1.53116e-15 0)
(3 -9.12549e-16 0)
(3 -5.16362e-16 0)
(3 4.43735e-16 0)
(3 6.3131e-16 0)
(3 -1.53074e-17 0)
(3 1.71536e-16 0)
(3 6.57924e-16 0)
(3 1.24541e-15 0)
(3 1.65013e-15 0)
(3 1.24663e-15 0)
(3 9.0092e-16 0)
(3 1.17184e-15 0)
(3 3.40307e-15 0)
(3 2.87338e-15 0)
(3 4.35344e-16 0)
(3 -2.92309e-16 0)
(3 -1.28487e-16 0)
(3 -1.02823e-16 0)
(3 1.02258e-16 0)
(3 7.46041e-17 0)
(3 3.04912e-16 0)
(3 -8.9229e-17 0)
(3 -6.49907e-16 0)
(3 -4.79866e-16 0)
(3 3.00955e-16 0)
(3 1.43789e-15 0)
(3 1.25004e-15 0)
(3 7.988e-16 0)
(3 1.35473e-15 0)
(3 2.00357e-15 0)
(3 1.49947e-15 0)
(3 4.2644e-16 0)
(3 8.28792e-16 0)
(3 1.03686e-15 0)
(3 1.7806e-15 0)
(3 3.26434e-15 0)
(3 3.72753e-15 0)
(3 4.61691e-16 0)
(3 -1.24154e-15 0)
(3 -1.79685e-15 0)
(3 -2.93433e-15 0)
(3 -3.36132e-15 0)
(3 -3.16667e-15 0)
(3 -2.3887e-15 0)
(3 -5.78725e-16 0)
(3 -2.02809e-16 0)
(3 -9.22443e-16 0)
(3 -1.35761e-15 0)
(3 -1.14427e-15 0)
(3 -9.65599e-16 0)
(3 -3.13627e-16 0)
(3 4.40906e-16 0)
(3 6.34476e-16 0)
(3 3.31447e-16 0)
(3 6.57579e-17 0)
(3 3.88948e-16 0)
(3 9.15066e-16 0)
(3 2.86193e-15 0)
(3 4.77259e-15 0)
(3 4.6171e-15 0)
(3 4.51172e-15 0)
(3 4.33824e-15 0)
(3 3.13844e-15 0)
(3 9.49348e-16 0)
(3 1.1743e-16 0)
(3 1.19892e-16 0)
(3 1.98793e-16 0)
(3 -2.09399e-16 0)
(3 -2.48927e-16 0)
(3 -3.08014e-17 0)
(3 -4.92506e-16 0)
(3 -6.26261e-16 0)
(3 4.20956e-17 0)
(3 2.62298e-16 0)
(3 1.13508e-16 0)
(3 -7.59394e-16 0)
(3 -1.00234e-15 0)
(3 -4.15237e-16 0)
(3 -2.28509e-16 0)
(3 -1.02808e-15 0)
(3 -7.66047e-16 0)
(3 -4.17455e-16 0)
(3 2.06637e-15 0)
(3 3.69012e-15 0)
(3 3.19624e-15 0)
(3 4.42644e-16 0)
(3 -1.83942e-15 0)
(3 -3.96262e-15 0)
(3 -3.74556e-15 0)
(3 -3.73775e-15 0)
(3 -2.6688e-15 0)
(3 -1.97599e-15 0)
(3 -1.83857e-15 0)
(3 -2.23511e-15 0)
(3 -2.23309e-15 0)
(3 -1.4007e-15 0)
(3 -1.64915e-15 0)
(3 -1.37823e-15 0)
(3 -1.94912e-15 0)
(3 -1.80188e-15 0)
(3 -5.49227e-16 0)
(3 1.06393e-16 0)
(3 5.38812e-16 0)
(3 1.6748e-15 0)
(3 2.70485e-15 0)
(3 3.49245e-15 0)
(3 4.34462e-15 0)
(3 5.59389e-15 0)
(3 5.39592e-15 0)
(3 5.54275e-15 0)
(3 5.16773e-15 0)
(3 4.76865e-15 0)
(3 -1.84799e-17 0)
(3 -5.86628e-17 0)
(3 -5.96065e-17 0)
(3 -9.02799e-17 0)
(3 -1.57934e-16 0)
(3 3.88419e-16 0)
(3 5.61032e-16 0)
(3 1.20242e-16 0)
(3 -3.85875e-16 0)
(3 -8.19776e-16 0)
(3 -5.26648e-16 0)
(3 -3.54925e-16 0)
(3 -7.60927e-16 0)
(3 -7.84863e-16 0)
(3 -7.91371e-16 0)
(3 -1.23936e-15 0)
(3 -2.30061e-15 0)
(3 -1.70728e-15 0)
(3 5.32801e-18 0)
(3 1.19797e-15 0)
(3 1.58925e-15 0)
(3 1.02764e-15 0)
(3 1.05066e-15 0)
(3 1.1948e-18 0)
(3 -1.11997e-15 0)
(3 -1.52004e-15 0)
(3 -6.88396e-16 0)
(3 -4.5058e-16 0)
(3 -1.42082e-15 0)
(3 -2.46381e-15 0)
(3 -2.33425e-15 0)
(3 -7.56791e-16 0)
(3 -6.1327e-17 0)
(3 2.29136e-16 0)
(3 3.92189e-16 0)
(3 -2.694e-16 0)
(3 2.78979e-17 0)
(3 8.44359e-17 0)
(3 6.59671e-16 0)
(3 1.07664e-15 0)
(3 1.4399e-15 0)
(3 1.25186e-15 0)
(3 2.6688e-15 0)
(3 4.04494e-15 0)
(3 4.17279e-15 0)
(3 4.23021e-15 0)
(3 4.39071e-15 0)
(3 4.88723e-15 0)
(3 -1.53923e-16 0)
(3 -2.03611e-16 0)
(3 1.14074e-16 0)
(3 5.3205e-16 0)
(3 7.84068e-16 0)
(3 1.1332e-15 0)
(3 1.66047e-15 0)
(3 2.0343e-15 0)
(3 1.31325e-15 0)
(3 3.06099e-16 0)
(3 2.15814e-16 0)
(3 6.79208e-17 0)
(3 -4.421e-16 0)
(3 -9.5563e-16 0)
(3 -8.31935e-16 0)
(3 -6.73102e-16 0)
(3 -3.55241e-16 0)
(3 -9.29229e-17 0)
(3 -2.73201e-16 0)
(3 -1.04622e-16 0)
(3 1.99073e-16 0)
(3 -8.16879e-17 0)
(3 5.15328e-16 0)
(3 7.99236e-16 0)
(3 4.85804e-16 0)
(3 4.82336e-17 0)
(3 -9.77533e-17 0)
(3 1.15073e-16 0)
(3 1.36716e-16 0)
(3 -2.08643e-16 0)
(3 -8.77893e-16 0)
(3 -9.98301e-16 0)
(3 -2.26488e-16 0)
(3 -3.91927e-16 0)
(3 1.59968e-15 0)
(3 2.01789e-15 0)
(3 2.24351e-15 0)
(3 1.50494e-15 0)
(3 9.19753e-16 0)
(3 -3.42908e-16 0)
(3 -7.01748e-16 0)
(3 -3.53889e-16 0)
(3 5.15977e-16 0)
(3 1.26755e-15 0)
(3 2.46036e-15 0)
(3 2.81183e-15 0)
(3 3.32188e-15 0)
(3 4.0318e-15 0)
(3 -1.09158e-18 0)
(3 2.1164e-16 0)
(3 1.27087e-16 0)
(3 1.49828e-16 0)
(3 2.65112e-16 0)
(3 -8.86768e-17 0)
(3 1.74089e-16 0)
(3 7.73627e-16 0)
(3 6.85697e-16 0)
(3 6.51881e-16 0)
(3 4.20098e-16 0)
(3 -2.21366e-16 0)
(3 -1.07717e-15 0)
(3 -1.78294e-15 0)
(3 -1.14926e-15 0)
(3 -4.07039e-16 0)
(3 7.8827e-16 0)
(3 9.31e-16 0)
(3 1.34475e-15 0)
(3 1.06185e-15 0)
(3 -6.76373e-16 0)
(3 -1.62982e-15 0)
(3 -2.17749e-15 0)
(3 -2.20965e-15 0)
(3 -9.0547e-16 0)
(3 4.11979e-16 0)
(3 4.46279e-16 0)
(3 8.44977e-16 0)
(3 1.18388e-15 0)
(3 7.32192e-16 0)
(3 -2.5861e-16 0)
(3 -5.40856e-16 0)
(3 -7.44014e-16 0)
(3 -2.20149e-16 0)
(3 7.78541e-17 0)
(3 7.8248e-16 0)
(3 -7.63151e-16 0)
(3 -1.58887e-15 0)
(3 -1.40439e-15 0)
(3 -6.9108e-16 0)
(3 -6.93369e-16 0)
(3 -6.39136e-16 0)
(3 -3.90308e-16 0)
(3 1.52705e-17 0)
(3 7.43073e-16 0)
(3 1.23037e-15 0)
(3 2.40462e-15 0)
(3 3.83088e-15 0)
(3 3.55716e-17 0)
(3 3.46831e-16 0)
(3 3.45252e-16 0)
(3 -8.96802e-17 0)
(3 -3.76034e-17 0)
(3 1.48604e-16 0)
(3 1.61534e-16 0)
(3 -5.62482e-17 0)
(3 -1.89013e-16 0)
(3 -8.38017e-16 0)
(3 -1.20592e-15 0)
(3 -8.98006e-16 0)
(3 -1.30635e-15 0)
(3 -1.28558e-15 0)
(3 -9.76219e-16 0)
(3 8.92053e-17 0)
(3 5.19723e-16 0)
(3 1.07185e-15 0)
(3 1.15888e-15 0)
(3 -9.3106e-16 0)
(3 -3.3243e-15 0)
(3 -3.04702e-15 0)
(3 -2.40038e-15 0)
(3 -1.07453e-15 0)
(3 -4.09613e-16 0)
(3 -9.92221e-18 0)
(3 7.19059e-16 0)
(3 1.37024e-15 0)
(3 8.03189e-16 0)
(3 2.24826e-16 0)
(3 2.76791e-16 0)
(3 4.30327e-16 0)
(3 7.93701e-17 0)
(3 -7.92403e-16 0)
(3 -1.30693e-15 0)
(3 -1.34974e-15 0)
(3 -3.91251e-15 0)
(3 -5.27619e-15 0)
(3 -4.78171e-15 0)
(3 -3.75249e-15 0)
(3 -3.68742e-15 0)
(3 -3.62826e-15 0)
(3 -3.62654e-15 0)
(3 -2.84746e-15 0)
(3 -2.80178e-15 0)
(3 -2.57028e-15 0)
(3 -2.12654e-15 0)
(3 -8.51126e-16 0)
(3 1.51548e-17 0)
(3 -5.84508e-17 0)
(3 -8.88647e-18 0)
(3 -5.35802e-16 0)
(3 -5.65621e-16 0)
(3 -2.26247e-16 0)
(3 2.53492e-16 0)
(3 -4.548e-16 0)
(3 -7.11359e-16 0)
(3 -1.20188e-15 0)
(3 -8.57537e-16 0)
(3 -2.65898e-16 0)
(3 -5.10625e-18 0)
(3 -2.37948e-16 0)
(3 -3.33176e-16 0)
(3 -2.77731e-16 0)
(3 -1.50131e-16 0)
(3 -3.44793e-16 0)
(3 -8.77971e-16 0)
(3 -2.37933e-15 0)
(3 -2.22864e-15 0)
(3 -1.12412e-15 0)
(3 -7.60166e-16 0)
(3 -9.9306e-17 0)
(3 1.06536e-16 0)
(3 -7.75867e-17 0)
(3 1.33897e-16 0)
(3 6.37649e-16 0)
(3 7.10289e-16 0)
(3 6.27173e-16 0)
(3 2.9374e-16 0)
(3 -4.26446e-16 0)
(3 -9.32328e-16 0)
(3 -1.44086e-15 0)
(3 -2.59475e-15 0)
(3 -2.42528e-15 0)
(3 -2.11552e-15 0)
(3 -3.3881e-15 0)
(3 -4.49609e-15 0)
(3 -5.16707e-15 0)
(3 -5.63665e-15 0)
(3 -4.87946e-15 0)
(3 -3.72832e-15 0)
(3 -4.88536e-15 0)
(3 -4.21531e-15 0)
(3 -3.75228e-15 0)
(3 -2.9824e-15 0)
(3 -2.16123e-15 0)
(3 3.31717e-17 0)
(3 -1.34845e-16 0)
(3 -3.31377e-16 0)
(3 -6.74456e-17 0)
(3 -2.41339e-17 0)
(3 -4.92056e-16 0)
(3 1.93008e-17 0)
(3 3.44159e-16 0)
(3 2.11646e-16 0)
(3 9.04884e-16 0)
(3 6.95437e-16 0)
(3 3.10621e-16 0)
(3 2.17108e-16 0)
(3 3.96389e-17 0)
(3 -2.38365e-16 0)
(3 -3.11062e-16 0)
(3 -4.62943e-16 0)
(3 -1.73115e-15 0)
(3 -1.73362e-15 0)
(3 -1.67597e-15 0)
(3 -1.45319e-15 0)
(3 -9.84257e-16 0)
(3 -1.47297e-15 0)
(3 -1.79872e-15 0)
(3 -1.83364e-15 0)
(3 -1.62046e-15 0)
(3 -1.19162e-15 0)
(3 -5.25031e-16 0)
(3 1.71602e-15 0)
(3 2.05388e-15 0)
(3 1.73174e-15 0)
(3 2.87795e-16 0)
(3 4.07649e-16 0)
(3 6.55274e-16 0)
(3 -8.27621e-17 0)
(3 1.95379e-16 0)
(3 1.17031e-15 0)
(3 -2.54467e-16 0)
(3 -3.74291e-15 0)
(3 -5.17698e-15 0)
(3 -4.41774e-15 0)
(3 -4.49517e-15 0)
(3 -4.91858e-15 0)
(3 -5.52438e-15 0)
(3 -5.17241e-15 0)
(3 -4.21999e-15 0)
(3 -4.18849e-15 0)
(3 -4.72384e-15 0)
(3 -3.02816e-17 0)
(3 -1.44094e-16 0)
(3 -1.97788e-16 0)
(3 -2.42419e-17 0)
(3 -2.34055e-16 0)
(3 -5.20044e-16 0)
(3 -7.25267e-16 0)
(3 -3.92368e-16 0)
(3 7.25655e-16 0)
(3 8.69112e-16 0)
(3 9.39181e-16 0)
(3 3.7124e-16 0)
(3 -6.47538e-17 0)
(3 -1.45099e-17 0)
(3 -3.29671e-16 0)
(3 -4.17107e-16 0)
(3 -1.35093e-15 0)
(3 -1.93353e-15 0)
(3 -1.61071e-15 0)
(3 -1.57263e-15 0)
(3 -1.1128e-15 0)
(3 -1.22408e-15 0)
(3 -3.30403e-15 0)
(3 -2.91228e-15 0)
(3 -2.79643e-15 0)
(3 -1.62176e-15 0)
(3 -1.6966e-15 0)
(3 -3.30093e-16 0)
(3 2.99306e-15 0)
(3 3.5897e-15 0)
(3 2.77286e-15 0)
(3 1.8563e-15 0)
(3 1.33304e-15 0)
(3 1.49788e-15 0)
(3 2.80845e-15 0)
(3 2.04737e-15 0)
(3 1.75766e-15 0)
(3 -2.09142e-16 0)
(3 -2.56375e-15 0)
(3 -2.90449e-15 0)
(3 -2.96172e-15 0)
(3 -3.80815e-15 0)
(3 -4.83028e-15 0)
(3 -5.75079e-15 0)
(3 -6.40915e-15 0)
(3 -5.93526e-15 0)
(3 -6.17545e-15 0)
(3 -5.95703e-15 0)
(3 -6.05433e-17 0)
(3 -6.78858e-17 0)
(3 -3.74341e-16 0)
(3 -5.80136e-16 0)
(3 -1.08008e-15 0)
(3 -1.21514e-15 0)
(3 -1.46731e-15 0)
(3 -9.41505e-16 0)
(3 5.29559e-17 0)
(3 1.00841e-15 0)
(3 8.30907e-16 0)
(3 4.73199e-16 0)
(3 1.0787e-16 0)
(3 1.6883e-16 0)
(3 -2.67562e-16 0)
(3 -8.90915e-16 0)
(3 -1.00062e-15 0)
(3 -8.26929e-16 0)
(3 -7.55549e-16 0)
(3 -1.28712e-15 0)
(3 2.29187e-16 0)
(3 -1.03274e-15 0)
(3 -4.58161e-15 0)
(3 -4.77096e-15 0)
(3 -3.68324e-15 0)
(3 -2.85938e-15 0)
(3 -1.24368e-15 0)
(3 1.73044e-16 0)
(3 1.06823e-16 0)
(3 3.17388e-16 0)
(3 2.10839e-15 0)
(3 2.67487e-15 0)
(3 1.92432e-15 0)
(3 1.49956e-15 0)
(3 2.16618e-15 0)
(3 2.3274e-15 0)
(3 1.26962e-15 0)
(3 -7.95813e-16 0)
(3 -1.79487e-15 0)
(3 -2.25595e-15 0)
(3 -3.57798e-15 0)
(3 -3.85614e-15 0)
(3 -5.00532e-15 0)
(3 -6.65868e-15 0)
(3 -6.87675e-15 0)
(3 -6.79929e-15 0)
(3 -6.63804e-15 0)
(3 -5.72711e-15 0)
(3 -1.5006e-16 0)
(3 -2.80988e-16 0)
(3 -1.72325e-16 0)
(3 -8.87177e-17 0)
(3 -9.38353e-18 0)
(3 1.79275e-16 0)
(3 7.09432e-17 0)
(3 -4.44467e-17 0)
(3 -5.14416e-16 0)
(3 -3.10589e-16 0)
(3 -5.94338e-16 0)
(3 -8.7899e-16 0)
(3 -8.97411e-16 0)
(3 -7.00318e-16 0)
(3 -8.35937e-16 0)
(3 -1.92147e-15 0)
(3 -1.57863e-15 0)
(3 -9.51462e-16 0)
(3 -1.10746e-15 0)
(3 -5.70931e-16 0)
(3 -7.5933e-16 0)
(3 -2.63473e-15 0)
(3 -5.48993e-15 0)
(3 -7.79995e-15 0)
(3 -5.48395e-15 0)
(3 -3.81286e-15 0)
(3 -2.87782e-15 0)
(3 -1.24905e-15 0)
(3 -2.21907e-15 0)
(3 -2.19227e-15 0)
(3 5.51532e-16 0)
(3 1.72407e-15 0)
(3 1.99303e-15 0)
(3 1.95149e-15 0)
(3 1.94376e-15 0)
(3 2.13764e-15 0)
(3 2.11963e-15 0)
(3 -1.36829e-15 0)
(3 -2.67993e-15 0)
(3 -3.30105e-15 0)
(3 -4.52865e-15 0)
(3 -4.75777e-15 0)
(3 -4.18611e-15 0)
(3 -3.6217e-15 0)
(3 -3.81456e-15 0)
(3 -4.98096e-15 0)
(3 -3.579e-15 0)
(3 -1.63073e-15 0)
(3 -1.4984e-17 0)
(3 8.25553e-17 0)
(3 2.74181e-16 0)
(3 8.97386e-17 0)
(3 5.88186e-16 0)
(3 1.54752e-15 0)
(3 1.57954e-15 0)
(3 1.30135e-15 0)
(3 8.39005e-16 0)
(3 5.30896e-16 0)
(3 3.92207e-16 0)
(3 -3.3017e-16 0)
(3 -5.84026e-16 0)
(3 -1.33708e-15 0)
(3 -1.76708e-15 0)
(3 -1.64369e-15 0)
(3 -1.56958e-15 0)
(3 -6.83019e-16 0)
(3 -7.56171e-16 0)
(3 -4.9443e-16 0)
(3 -1.59833e-15 0)
(3 -3.78365e-15 0)
(3 -4.58223e-15 0)
(3 -6.3129e-15 0)
(3 -6.20819e-15 0)
(3 -3.89295e-15 0)
(3 -3.30985e-15 0)
(3 -3.28288e-15 0)
(3 -4.24263e-15 0)
(3 -2.24727e-15 0)
(3 -3.6177e-16 0)
(3 1.18671e-15 0)
(3 1.70816e-15 0)
(3 2.29684e-15 0)
(3 3.36002e-15 0)
(3 3.63831e-15 0)
(3 1.01219e-15 0)
(3 -1.13646e-15 0)
(3 -1.10664e-15 0)
(3 -2.95699e-15 0)
(3 -3.09267e-15 0)
(3 -3.54661e-15 0)
(3 -2.96018e-15 0)
(3 -2.23411e-15 0)
(3 -1.63988e-15 0)
(3 -1.6291e-15 0)
(3 -9.28976e-16 0)
(3 -1.32074e-15 0)
(3 5.89704e-17 0)
(3 1.94777e-16 0)
(3 1.43971e-16 0)
(3 2.8924e-16 0)
(3 9.77612e-16 0)
(3 1.58523e-15 0)
(3 1.86305e-15 0)
(3 1.3692e-15 0)
(3 1.54077e-15 0)
(3 1.81823e-15 0)
(3 1.13446e-15 0)
(3 1.27273e-15 0)
(3 1.16856e-15 0)
(3 2.66816e-16 0)
(3 -8.92901e-16 0)
(3 2.33493e-16 0)
(3 1.77568e-16 0)
(3 -1.0836e-16 0)
(3 -2.26161e-18 0)
(3 -7.16304e-16 0)
(3 -1.35892e-15 0)
(3 -1.75456e-15 0)
(3 -1.98456e-15 0)
(3 -2.54727e-15 0)
(3 -3.47406e-15 0)
(3 -3.36384e-15 0)
(3 -3.64048e-15 0)
(3 -4.6036e-15 0)
(3 -3.7848e-15 0)
(3 -6.88221e-16 0)
(3 8.42961e-16 0)
(3 1.634e-15 0)
(3 1.31138e-15 0)
(3 1.46785e-15 0)
(3 1.44121e-15 0)
(3 1.82797e-15 0)
(3 1.11225e-15 0)
(3 6.63662e-16 0)
(3 -4.84893e-17 0)
(3 -1.34515e-15 0)
(3 -9.41336e-16 0)
(3 -9.9256e-16 0)
(3 -8.99001e-16 0)
(3 -1.2131e-16 0)
(3 8.94973e-17 0)
(3 4.97904e-16 0)
(3 8.62083e-16 0)
(3 -2.57757e-16 0)
(3 6.87901e-17 0)
(3 2.71009e-16 0)
(3 4.1074e-16 0)
(3 7.17076e-16 0)
(3 5.8996e-16 0)
(3 6.29353e-16 0)
(3 5.55975e-16 0)
(3 1.23013e-16 0)
(3 -2.24148e-16 0)
(3 1.64082e-17 0)
(3 4.67929e-16 0)
(3 1.01053e-15 0)
(3 1.06137e-15 0)
(3 3.77243e-17 0)
(3 -7.34613e-17 0)
(3 2.16204e-17 0)
(3 6.38743e-16 0)
(3 7.78236e-16 0)
(3 1.15545e-15 0)
(3 2.70421e-16 0)
(3 -1.06069e-15 0)
(3 -4.08306e-16 0)
(3 -7.25883e-16 0)
(3 -2.05862e-15 0)
(3 -3.65697e-15 0)
(3 -5.04678e-15 0)
(3 -4.65725e-15 0)
(3 -2.43141e-15 0)
(3 -1.64972e-15 0)
(3 -2.30591e-16 0)
(3 1.52254e-15 0)
(3 1.12754e-15 0)
(3 9.73306e-17 0)
(3 -5.17638e-16 0)
(3 -1.05917e-16 0)
(3 1.43653e-16 0)
(3 -1.89827e-16 0)
(3 -3.88726e-16 0)
(3 -1.78026e-15 0)
(3 -2.38058e-15 0)
(3 -3.35703e-16 0)
(3 2.06616e-16 0)
(3 1.76569e-15 0)
(3 2.61387e-15 0)
(3 1.81888e-15 0)
(3 6.37106e-16 0)
(3 5.17361e-16 0)
(3 -4.2616e-16 0)
(3 3.65838e-17 0)
(3 3.41919e-16 0)
(3 3.26512e-16 0)
(3 2.37039e-16 0)
(3 -2.84098e-16 0)
(3 -3.47323e-16 0)
(3 -4.71277e-16 0)
(3 -4.66394e-16 0)
(3 -5.81669e-16 0)
(3 -6.26007e-16 0)
(3 2.57031e-17 0)
(3 3.05006e-16 0)
(3 2.33112e-16 0)
(3 -4.03795e-16 0)
(3 -3.82986e-16 0)
(3 -4.16391e-16 0)
(3 6.44018e-16 0)
(3 1.23607e-15 0)
(3 1.64447e-15 0)
(3 1.83753e-15 0)
(3 1.81105e-15 0)
(3 1.82408e-15 0)
(3 -1.04427e-15 0)
(3 -3.65064e-15 0)
(3 -5.17897e-15 0)
(3 -6.46086e-15 0)
(3 -5.32159e-15 0)
(3 -2.16037e-15 0)
(3 -8.66424e-16 0)
(3 -4.0523e-16 0)
(3 1.28051e-15 0)
(3 2.18841e-15 0)
(3 9.51003e-16 0)
(3 -6.37952e-19 0)
(3 -2.9431e-16 0)
(3 -8.4828e-16 0)
(3 -7.5121e-16 0)
(3 -1.2626e-15 0)
(3 -2.66529e-15 0)
(3 -1.79018e-15 0)
(3 7.36527e-16 0)
(3 1.59479e-15 0)
(3 2.29089e-15 0)
(3 1.46236e-15 0)
(3 1.4602e-15 0)
(3 1.17223e-15 0)
(3 -3.3099e-16 0)
(3 -1.88951e-15 0)
(3 -3.10804e-17 0)
(3 -1.92509e-16 0)
(3 -2.48646e-17 0)
(3 -7.56147e-17 0)
(3 -2.56673e-16 0)
(3 -6.5455e-16 0)
(3 -5.677e-16 0)
(3 -6.09463e-16 0)
(3 -3.9867e-16 0)
(3 -2.85541e-16 0)
(3 -2.51125e-16 0)
(3 6.46631e-17 0)
(3 -2.41298e-16 0)
(3 2.76236e-16 0)
(3 3.54145e-16 0)
(3 8.54439e-16 0)
(3 8.96834e-16 0)
(3 9.96212e-16 0)
(3 4.38851e-16 0)
(3 1.90166e-16 0)
(3 6.61143e-16 0)
(3 2.69371e-16 0)
(3 -1.12544e-15 0)
(3 -2.09901e-15 0)
(3 -2.48077e-15 0)
(3 -3.52745e-15 0)
(3 -3.78076e-15 0)
(3 -3.12347e-15 0)
(3 -1.94672e-15 0)
(3 -1.31597e-15 0)
(3 -1.23576e-15 0)
(3 1.09221e-15 0)
(3 2.6009e-15 0)
(3 2.40947e-15 0)
(3 -1.58199e-16 0)
(3 -3.09146e-15 0)
(3 -3.01312e-15 0)
(3 -2.56914e-15 0)
(3 -1.22463e-15 0)
(3 -5.88838e-16 0)
(3 -9.92731e-16 0)
(3 -1.07367e-15 0)
(3 1.39406e-16 0)
(3 1.22648e-15 0)
(3 1.71953e-15 0)
(3 2.00904e-15 0)
(3 -2.85556e-18 0)
(3 -1.54569e-15 0)
(3 1.30575e-17 0)
(3 -6.70402e-17 0)
(3 9.36253e-17 0)
(3 2.85554e-16 0)
(3 5.49875e-16 0)
(3 6.23428e-16 0)
(3 5.77189e-16 0)
(3 1.09154e-15 0)
(3 1.07053e-15 0)
(3 1.04733e-15 0)
(3 -3.60124e-16 0)
(3 -1.0501e-15 0)
(3 -9.01187e-16 0)
(3 -1.67415e-16 0)
(3 1.08253e-15 0)
(3 2.06923e-15 0)
(3 1.54544e-15 0)
(3 4.94893e-16 0)
(3 8.08676e-17 0)
(3 -4.06429e-16 0)
(3 -7.26554e-16 0)
(3 -1.93278e-15 0)
(3 -3.07792e-15 0)
(3 -2.39449e-15 0)
(3 -1.50191e-15 0)
(3 -1.38884e-15 0)
(3 -2.07632e-15 0)
(3 -1.66494e-15 0)
(3 -1.14609e-15 0)
(3 -1.56531e-15 0)
(3 -2.58892e-15 0)
(3 -5.18769e-16 0)
(3 1.0896e-15 0)
(3 5.09584e-16 0)
(3 -4.24622e-16 0)
(3 -3.79284e-15 0)
(3 -4.23774e-15 0)
(3 -3.46566e-15 0)
(3 -1.13287e-15 0)
(3 -2.20391e-15 0)
(3 -2.95003e-15 0)
(3 -2.27116e-15 0)
(3 -9.604e-16 0)
(3 9.56613e-16 0)
(3 2.70346e-15 0)
(3 2.57156e-15 0)
(3 1.9374e-15 0)
(3 3.50302e-16 0)
(3 -4.15978e-18 0)
(3 -2.96874e-17 0)
(3 -4.19213e-17 0)
(3 2.05341e-16 0)
(3 7.07259e-16 0)
(3 7.97683e-16 0)
(3 8.41647e-16 0)
(3 8.07535e-16 0)
(3 5.43789e-16 0)
(3 2.13552e-16 0)
(3 -5.19557e-16 0)
(3 -6.36956e-16 0)
(3 2.33493e-17 0)
(3 8.64435e-16 0)
(3 1.41765e-15 0)
(3 2.36188e-15 0)
(3 2.37251e-15 0)
(3 1.72761e-15 0)
(3 1.10031e-15 0)
(3 7.03202e-16 0)
(3 3.69018e-16 0)
(3 -1.49607e-15 0)
(3 -2.29887e-15 0)
(3 -1.35666e-15 0)
(3 1.84816e-16 0)
(3 8.08569e-16 0)
(3 2.74651e-16 0)
(3 -5.09779e-16 0)
(3 -1.37354e-15 0)
(3 -1.86693e-15 0)
(3 -1.65818e-15 0)
(3 2.77343e-16 0)
(3 1.83836e-15 0)
(3 -3.23562e-16 0)
(3 -2.77071e-15 0)
(3 -2.95105e-15 0)
(3 -2.4619e-15 0)
(3 -1.44527e-15 0)
(3 -1.58003e-15 0)
(3 -1.14363e-15 0)
(3 7.24189e-16 0)
(3 2.05623e-16 0)
(3 -1.48894e-15 0)
(3 -7.03633e-16 0)
(3 1.85772e-15 0)
(3 2.4661e-15 0)
(3 2.07835e-15 0)
(3 -2.38749e-16 0)
(3 8.60063e-17 0)
(3 1.51849e-16 0)
(3 7.47556e-17 0)
(3 -4.31565e-16 0)
(3 -4.18823e-16 0)
(3 -2.90687e-16 0)
(3 2.58642e-16 0)
(3 3.10937e-16 0)
(3 -2.08677e-17 0)
(3 -7.36425e-17 0)
(3 -2.31487e-16 0)
(3 -2.90849e-16 0)
(3 -2.75937e-16 0)
(3 3.489e-16 0)
(3 1.08382e-15 0)
(3 1.71057e-15 0)
(3 2.88063e-15 0)
(3 3.64979e-15 0)
(3 1.95587e-15 0)
(3 1.35144e-15 0)
(3 1.30484e-15 0)
(3 5.81814e-16 0)
(3 -3.87571e-16 0)
(3 -2.1952e-16 0)
(3 3.17669e-15 0)
(3 3.15017e-15 0)
(3 1.15916e-15 0)
(3 -8.30118e-16 0)
(3 -2.32015e-15 0)
(3 -2.38535e-15 0)
(3 -2.14456e-15 0)
(3 -1.00782e-15 0)
(3 -7.53772e-16 0)
(3 -2.6294e-15 0)
(3 -4.53486e-15 0)
(3 -2.57571e-15 0)
(3 -2.06698e-15 0)
(3 -2.08543e-15 0)
(3 -2.27113e-15 0)
(3 -6.87576e-16 0)
(3 3.92878e-16 0)
(3 3.38938e-16 0)
(3 1.3453e-16 0)
(3 1.73899e-15 0)
(3 2.32842e-15 0)
(3 1.78543e-15 0)
(3 9.67688e-16 0)
(3 -5.16015e-16 0)
(3 -1.53775e-17 0)
(3 -1.34584e-16 0)
(3 -5.58246e-16 0)
(3 -6.90673e-16 0)
(3 -8.75166e-16 0)
(3 -4.49274e-16 0)
(3 -3.52022e-16 0)
(3 5.40585e-16 0)
(3 4.35635e-16 0)
(3 3.56331e-17 0)
(3 -8.42257e-17 0)
(3 -3.92559e-16 0)
(3 2.89378e-16 0)
(3 4.72683e-16 0)
(3 8.21063e-16 0)
(3 8.3003e-16 0)
(3 1.00472e-15 0)
(3 1.00246e-15 0)
(3 9.26975e-16 0)
(3 9.5579e-16 0)
(3 1.61853e-15 0)
(3 7.65552e-16 0)
(3 1.13148e-15 0)
(3 1.73737e-15 0)
(3 2.87635e-15 0)
(3 1.95929e-15 0)
(3 6.91745e-16 0)
(3 2.12698e-16 0)
(3 2.68424e-16 0)
(3 -4.51811e-16 0)
(3 -1.70847e-15 0)
(3 -2.14177e-15 0)
(3 -4.20457e-15 0)
(3 -7.80834e-15 0)
(3 -6.15217e-15 0)
(3 -1.67955e-15 0)
(3 -5.84924e-16 0)
(3 1.78403e-16 0)
(3 -1.92094e-16 0)
(3 1.31588e-16 0)
(3 8.61108e-16 0)
(3 1.73671e-15 0)
(3 3.5713e-15 0)
(3 2.87603e-15 0)
(3 1.76193e-15 0)
(3 8.62964e-16 0)
(3 -7.79212e-17 0)
(3 8.35132e-17 0)
(3 -5.46791e-17 0)
(3 -2.83925e-16 0)
(3 -2.13733e-16 0)
(3 1.52606e-16 0)
(3 2.3077e-16 0)
(3 -4.52427e-16 0)
(3 -1.17127e-15 0)
(3 -6.68597e-16 0)
(3 -2.83714e-16 0)
(3 -4.44455e-17 0)
(3 5.9901e-16 0)
(3 1.41092e-15 0)
(3 1.66323e-15 0)
(3 1.59506e-15 0)
(3 9.3324e-16 0)
(3 2.78173e-16 0)
(3 -5.15055e-16 0)
(3 -1.95264e-15 0)
(3 -9.72494e-16 0)
(3 -2.14149e-16 0)
(3 1.04509e-15 0)
(3 9.8084e-16 0)
(3 1.21469e-15 0)
(3 1.75336e-15 0)
(3 1.89918e-15 0)
(3 7.46109e-16 0)
(3 -3.37363e-16 0)
(3 -2.55743e-16 0)
(3 1.30861e-17 0)
(3 -3.87779e-16 0)
(3 -7.24347e-16 0)
(3 -1.66273e-15 0)
(3 -4.72931e-15 0)
(3 -6.2508e-15 0)
(3 -5.07137e-15 0)
(3 -3.67353e-15 0)
(3 -1.17347e-16 0)
(3 3.08702e-15 0)
(3 3.71419e-15 0)
(3 2.01376e-15 0)
(3 2.76602e-15 0)
(3 4.10385e-15 0)
(3 3.79408e-15 0)
(3 2.95998e-15 0)
(3 3.91769e-16 0)
(3 -2.33257e-15 0)
(3 -3.60497e-15 0)
(3 -1.63828e-15 0)
(3 1.63734e-17 0)
(3 -5.29985e-17 0)
(3 1.14382e-16 0)
(3 1.11875e-16 0)
(3 1.7735e-16 0)
(3 -3.31857e-16 0)
(3 -1.30728e-15 0)
(3 -2.29654e-15 0)
(3 -1.43734e-15 0)
(3 -5.47078e-16 0)
(3 1.15353e-15 0)
(3 2.05194e-15 0)
(3 2.31112e-15 0)
(3 2.34343e-15 0)
(3 1.67176e-15 0)
(3 9.05572e-16 0)
(3 -6.5684e-16 0)
(3 -1.81724e-15 0)
(3 -1.70012e-15 0)
(3 -5.67912e-16 0)
(3 -5.26204e-16 0)
(3 -1.44882e-16 0)
(3 -3.97496e-16 0)
(3 -1.28769e-16 0)
(3 1.12652e-15 0)
(3 1.23201e-15 0)
(3 -9.25576e-17 0)
(3 -3.44338e-16 0)
(3 -1.00069e-15 0)
(3 -8.0308e-16 0)
(3 -4.56895e-17 0)
(3 -2.86322e-16 0)
(3 -2.0421e-15 0)
(3 -2.99994e-15 0)
(3 -2.93625e-15 0)
(3 -3.56893e-15 0)
(3 -3.32655e-15 0)
(3 -1.95458e-15 0)
(3 1.20486e-15 0)
(3 3.12195e-15 0)
(3 2.61728e-15 0)
(3 2.67927e-15 0)
(3 1.76376e-15 0)
(3 4.95062e-16 0)
(3 -4.13241e-16 0)
(3 -1.49095e-15 0)
(3 -2.53562e-15 0)
(3 -2.32393e-15 0)
(3 -3.55732e-18 0)
(3 -3.10395e-18 0)
(3 -4.85821e-16 0)
(3 -8.08362e-16 0)
(3 -5.63201e-16 0)
(3 -8.19246e-17 0)
(3 -6.40841e-16 0)
(3 -1.10806e-15 0)
(3 -1.08238e-15 0)
(3 -4.47607e-16 0)
(3 1.52295e-16 0)
(3 5.00098e-16 0)
(3 1.81999e-15 0)
(3 1.84587e-15 0)
(3 1.50163e-15 0)
(3 1.00107e-15 0)
(3 -1.08963e-15 0)
(3 -1.47596e-15 0)
(3 -1.59476e-15 0)
(3 -2.00746e-15 0)
(3 -1.91433e-15 0)
(3 -5.56706e-16 0)
(3 -3.10324e-16 0)
(3 1.69512e-15 0)
(3 3.9285e-15 0)
(3 3.56931e-15 0)
(3 2.17222e-15 0)
(3 9.79053e-16 0)
(3 -2.99577e-16 0)
(3 2.15862e-16 0)
(3 1.3588e-15 0)
(3 1.45125e-15 0)
(3 4.07017e-16 0)
(3 -4.99854e-16 0)
(3 -8.3419e-16 0)
(3 -1.74827e-15 0)
(3 -1.66226e-15 0)
(3 -7.60628e-16 0)
(3 -3.01637e-16 0)
(3 1.18902e-15 0)
(3 4.14939e-16 0)
(3 -1.4385e-16 0)
(3 -4.72684e-16 0)
(3 -1.54597e-15 0)
(3 -1.16574e-15 0)
(3 -2.24375e-16 0)
(3 3.34971e-16 0)
(3 1.50433e-15 0)
(3 -7.39137e-17 0)
(3 1.55388e-16 0)
(3 -1.63252e-17 0)
(3 -2.16476e-17 0)
(3 4.05064e-16 0)