/*--------------------------------*- C++ -*----------------------------------*\
  =========                 |
  \\      /  F ield         | OpenFOAM: The Open Source CFD Toolbox
   \\    /   O peration     | Website:  https://openfoam.org
    \\  /    A nd           | Version:  7
     \\/     M anipulation  |
\*---------------------------------------------------------------------------*/
FoamFile
{
    version     2.0;
    format      ascii;
    class       volVectorField;
    location    "2.5";
    object      U;
}
// * * * * * * * * * * * * * * * * * * * * * * * * * * * * * * * * * * * * * //

dimensions      [0 1 -1 0 0 0 0];

internalField   nonuniform List<vector> 
73728
(
(3 1.05779e-17 0)
(3 -1.1999e-16 0)
(3 -4.11921e-17 0)
(3 6.89106e-17 0)
(3 5.50133e-17 0)
(3 8.26774e-17 0)
(3 2.87981e-17 0)
(3 1.86126e-16 0)
(3 2.03116e-16 0)
(3 -7.08701e-16 0)
(3 -9.50415e-16 0)
(3 -8.27239e-16 0)
(3 -8.92667e-16 0)
(3 -9.76051e-16 0)
(3 -2.22454e-16 0)
(3 -2.9676e-16 0)
(3 -4.18473e-16 0)
(3 -3.9925e-16 0)
(3 -3.98249e-16 0)
(3 -2.93958e-16 0)
(3 -1.07628e-16 0)
(3 7.10293e-16 0)
(3 1.43814e-15 0)
(3 1.31835e-15 0)
(3 8.98179e-16 0)
(3 2.95846e-16 0)
(3 -7.21402e-16 0)
(3 -3.37276e-16 0)
(3 -2.5459e-16 0)
(3 1.38639e-16 0)
(3 4.93603e-16 0)
(3 5.37806e-16 0)
(3 6.19683e-16 0)
(3 -1.92381e-16 0)
(3 -6.93721e-16 0)
(3 -1.54499e-15 0)
(3 -6.15849e-16 0)
(3 -3.50271e-16 0)
(3 -2.90881e-16 0)
(3 -6.82687e-17 0)
(3 -1.31557e-16 0)
(3 -4.36138e-16 0)
(3 -1.09576e-16 0)
(3 9.88499e-16 0)
(3 2.05383e-15 0)
(3 2.43146e-15 0)
(3 6.27541e-16 0)
(3 -2.35751e-16 0)
(3 -6.13544e-16 0)
(3 6.8907e-16 0)
(3 1.45487e-15 0)
(3 1.46617e-15 0)
(3 1.71626e-15 0)
(3 9.63756e-16 0)
(3 1.17381e-15 0)
(3 1.74482e-15 0)
(3 1.73814e-15 0)
(3 1.51735e-15 0)
(3 6.83617e-16 0)
(3 -1.24264e-15 0)
(3 -9.26919e-16 0)
(3 -4.27088e-16 0)
(3 -2.13104e-16 0)
(3 2.34463e-16 0)
(3 6.21029e-18 0)
(3 3.07512e-16 0)
(3 1.37339e-15 0)
(3 1.9537e-15 0)
(3 2.21021e-15 0)
(3 6.03985e-16 0)
(3 -2.91908e-16 0)
(3 -1.04001e-15 0)
(3 -3.37483e-15 0)
(3 -2.75961e-15 0)
(3 -1.0541e-15 0)
(3 -2.84295e-16 0)
(3 6.95877e-16 0)
(3 1.09814e-15 0)
(3 1.8714e-15 0)
(3 1.36213e-15 0)
(3 2.66191e-16 0)
(3 -1.55627e-16 0)
(3 -4.72574e-16 0)
(3 -6.61303e-16 0)
(3 -5.53974e-16 0)
(3 -4.48435e-16 0)
(3 -3.05117e-16 0)
(3 -7.97881e-17 0)
(3 2.45975e-16 0)
(3 6.86641e-16 0)
(3 9.73979e-16 0)
(3 1.97792e-15 0)
(3 1.01139e-15 0)
(3 7.6712e-16 0)
(3 2.9563e-16 0)
(3 1.40587e-16 0)
(3 1.83987e-17 0)
(3 -8.80135e-17 0)
(3 -8.28616e-17 0)
(3 -1.92426e-16 0)
(3 -1.07473e-17 0)
(3 3.1187e-16 0)
(3 4.75529e-16 0)
(3 2.29755e-16 0)
(3 2.43815e-16 0)
(3 -7.99426e-16 0)
(3 -1.29532e-15 0)
(3 -1.23544e-15 0)
(3 -1.0865e-15 0)
(3 -6.56691e-16 0)
(3 -1.95938e-16 0)
(3 -2.64689e-16 0)
(3 -5.5767e-16 0)
(3 -9.87375e-16 0)
(3 -6.19888e-16 0)
(3 -1.79381e-16 0)
(3 5.9306e-16 0)
(3 1.45956e-15 0)
(3 2.40487e-15 0)
(3 1.83397e-15 0)
(3 8.96735e-17 0)
(3 -9.12897e-16 0)
(3 -1.52991e-15 0)
(3 -1.54502e-15 0)
(3 -1.22979e-15 0)
(3 7.9468e-18 0)
(3 9.11705e-16 0)
(3 1.53542e-15 0)
(3 1.40114e-15 0)
(3 -2.03819e-16 0)
(3 -2.41412e-15 0)
(3 -2.79414e-15 0)
(3 -9.76543e-16 0)
(3 -3.33857e-16 0)
(3 -5.54859e-16 0)
(3 -2.11039e-16 0)
(3 -6.387e-17 0)
(3 -1.65253e-16 0)
(3 6.80477e-16 0)
(3 1.76909e-15 0)
(3 2.91979e-15 0)
(3 2.59143e-15 0)
(3 1.5044e-15 0)
(3 -9.92839e-17 0)
(3 -2.78507e-16 0)
(3 8.52623e-16 0)
(3 1.25217e-15 0)
(3 1.92509e-15 0)
(3 1.57456e-15 0)
(3 9.57206e-16 0)
(3 3.92368e-16 0)
(3 7.31738e-16 0)
(3 1.29347e-15 0)
(3 1.51949e-15 0)
(3 3.19057e-17 0)
(3 -1.85093e-15 0)
(3 -2.05514e-15 0)
(3 -1.78125e-15 0)
(3 -9.75535e-16 0)
(3 -5.87036e-16 0)
(3 -5.33467e-16 0)
(3 -1.2413e-16 0)
(3 2.68981e-15 0)
(3 4.14568e-15 0)
(3 4.3012e-15 0)
(3 1.848e-15 0)
(3 -2.11065e-15 0)
(3 -5.32156e-15 0)
(3 -5.71121e-15 0)
(3 -4.26883e-15 0)
(3 -3.0324e-15 0)
(3 -8.48705e-16 0)
(3 1.54159e-15 0)
(3 2.49431e-15 0)
(3 2.43492e-15 0)
(3 1.59442e-15 0)
(3 -4.34387e-16 0)
(3 -1.13125e-15 0)
(3 -1.34153e-15 0)
(3 -1.62598e-15 0)
(3 -1.14805e-15 0)
(3 -9.18224e-17 0)
(3 4.39123e-16 0)
(3 5.88978e-16 0)
(3 8.06267e-16 0)
(3 6.14261e-16 0)
(3 1.09441e-15 0)
(3 1.68368e-15 0)
(3 8.03087e-16 0)
(3 -6.06509e-16 0)
(3 -1.08039e-15 0)
(3 -1.71862e-15 0)
(3 -1.57837e-17 0)
(3 -1.10774e-17 0)
(3 5.85812e-17 0)
(3 1.40479e-16 0)
(3 3.64863e-16 0)
(3 2.68147e-16 0)
(3 3.811e-16 0)
(3 6.33558e-16 0)
(3 4.43202e-16 0)
(3 4.63974e-16 0)
(3 2.37287e-16 0)
(3 2.04922e-16 0)
(3 3.32489e-16 0)
(3 4.5572e-16 0)
(3 5.38249e-16 0)
(3 7.57429e-16 0)
(3 5.65879e-16 0)
(3 8.06105e-16 0)
(3 1.33502e-15 0)
(3 1.17891e-15 0)
(3 1.24093e-15 0)
(3 1.28546e-15 0)
(3 1.07275e-15 0)
(3 6.50035e-16 0)
(3 -1.26796e-16 0)
(3 -1.46994e-15 0)
(3 -2.01459e-15 0)
(3 -2.93206e-15 0)
(3 -2.64496e-15 0)
(3 -1.64784e-15 0)
(3 4.01125e-16 0)
(3 1.03534e-15 0)
(3 -4.55756e-16 0)
(3 -8.67961e-16 0)
(3 -1.14473e-15 0)
(3 -1.12432e-15 0)
(3 -5.20029e-16 0)
(3 -2.74077e-16 0)
(3 -4.62532e-16 0)
(3 6.01382e-17 0)
(3 4.34526e-16 0)
(3 1.23562e-15 0)
(3 1.9382e-15 0)
(3 1.65846e-15 0)
(3 1.37972e-15 0)
(3 1.75537e-15 0)
(3 1.53862e-15 0)
(3 -5.29492e-16 0)
(3 -6.17039e-16 0)
(3 -4.01104e-16 0)
(3 -3.47073e-16 0)
(3 5.2006e-16 0)
(3 1.18583e-15 0)
(3 1.12958e-15 0)
(3 6.1045e-16 0)
(3 1.12078e-15 0)
(3 2.67505e-15 0)
(3 3.47202e-15 0)
(3 2.15644e-15 0)
(3 2.6235e-16 0)
(3 -4.07515e-16 0)
(3 -3.46794e-16 0)
(3 -1.69994e-16 0)
(3 1.18125e-16 0)
(3 9.5117e-16 0)
(3 1.69209e-15 0)
(3 2.60268e-15 0)
(3 3.28505e-15 0)
(3 4.25031e-15 0)
(3 1.42316e-15 0)
(3 -3.11307e-15 0)
(3 -4.99631e-15 0)
(3 -5.67621e-15 0)
(3 -5.05433e-15 0)
(3 -4.73012e-15 0)
(3 -2.39025e-15 0)
(3 1.17754e-16 0)
(3 1.26785e-15 0)
(3 1.77975e-15 0)
(3 2.30603e-15 0)
(3 1.15879e-15 0)
(3 -8.79344e-16 0)
(3 -8.83756e-16 0)
(3 -2.30536e-16 0)
(3 -2.65417e-17 0)
(3 -3.94717e-17 0)
(3 9.849e-17 0)
(3 1.77214e-16 0)
(3 4.63909e-16 0)
(3 2.78926e-16 0)
(3 1.13862e-15 0)
(3 1.70607e-15 0)
(3 1.21907e-15 0)
(3 1.43618e-16 0)
(3 -4.87487e-16 0)
(3 -8.44797e-16 0)
(3 1.94668e-17 0)
(3 1.22796e-16 0)
(3 2.20625e-16 0)
(3 3.61285e-16 0)
(3 1.74796e-16 0)
(3 -1.75545e-17 0)
(3 1.19655e-16 0)
(3 3.30986e-16 0)
(3 4.39989e-16 0)
(3 3.4794e-16 0)
(3 4.88636e-17 0)
(3 -1.64081e-16 0)
(3 -8.04039e-17 0)
(3 2.10674e-16 0)
(3 1.51394e-17 0)
(3 -4.30001e-16 0)
(3 -3.31283e-16 0)
(3 8.7675e-16 0)
(3 1.58333e-15 0)
(3 1.28013e-15 0)
(3 8.79118e-16 0)
(3 3.10068e-16 0)
(3 -1.13785e-16 0)
(3 2.67179e-16 0)
(3 6.03862e-16 0)
(3 -8.36844e-16 0)
(3 -2.80639e-15 0)
(3 -3.2754e-15 0)
(3 -2.83599e-15 0)
(3 -2.51096e-15 0)
(3 -1.38781e-15 0)
(3 -1.07143e-15 0)
(3 -6.63638e-16 0)
(3 -4.91435e-16 0)
(3 -3.3334e-16 0)
(3 1.34149e-16 0)
(3 3.40542e-16 0)
(3 2.78346e-16 0)
(3 1.85525e-16 0)
(3 4.12843e-16 0)
(3 1.17738e-15 0)
(3 1.989e-15 0)
(3 2.27853e-15 0)
(3 2.15746e-15 0)
(3 2.00082e-15 0)
(3 2.08368e-15 0)
(3 7.44689e-16 0)
(3 -3.20288e-16 0)
(3 -8.14824e-16 0)
(3 -1.97756e-15 0)
(3 -1.78921e-15 0)
(3 -8.76096e-16 0)
(3 -4.75862e-16 0)
(3 2.5771e-16 0)
(3 7.61061e-16 0)
(3 1.55579e-15 0)
(3 1.81933e-15 0)
(3 2.00205e-15 0)
(3 6.73222e-16 0)
(3 -1.16832e-16 0)
(3 -4.03919e-16 0)
(3 3.08431e-17 0)
(3 3.93774e-16 0)
(3 1.35966e-15 0)
(3 1.65704e-15 0)
(3 2.33944e-15 0)
(3 2.94873e-15 0)
(3 3.74629e-15 0)
(3 3.70467e-15 0)
(3 4.59305e-16 0)
(3 -1.45822e-15 0)
(3 -1.93619e-15 0)
(3 -2.3295e-15 0)
(3 -4.43578e-15 0)
(3 -4.54896e-15 0)
(3 -2.93312e-15 0)
(3 -1.02832e-15 0)
(3 1.55476e-16 0)
(3 2.46907e-15 0)
(3 2.80115e-15 0)
(3 2.77413e-15 0)
(3 2.70199e-15 0)
(3 2.40505e-15 0)
(3 3.11483e-15 0)
(3 2.95951e-15 0)
(3 2.51487e-15 0)
(3 1.81638e-15 0)
(3 6.14095e-16 0)
(3 -3.20143e-16 0)
(3 1.61234e-16 0)
(3 4.65379e-16 0)
(3 4.95238e-16 0)
(3 -6.08676e-16 0)
(3 -1.29291e-15 0)
(3 -1.02306e-15 0)
(3 -6.37446e-16 0)
(3 1.05814e-16 0)
(3 7.47687e-17 0)
(3 -6.07691e-17 0)
(3 -2.40643e-16 0)
(3 -4.37695e-16 0)
(3 -2.72184e-16 0)
(3 -3.72552e-16 0)
(3 -4.96092e-16 0)
(3 -2.15639e-16 0)
(3 -2.82927e-16 0)
(3 -7.11996e-16 0)
(3 -8.71615e-16 0)
(3 -8.38556e-16 0)
(3 -7.61874e-16 0)
(3 -4.29945e-16 0)
(3 5.10075e-16 0)
(3 6.63775e-16 0)
(3 -1.84493e-16 0)
(3 -2.42877e-16 0)
(3 -1.25906e-16 0)
(3 -5.20058e-17 0)
(3 -1.08155e-16 0)
(3 -4.08796e-16 0)
(3 -6.97806e-16 0)
(3 -7.52559e-16 0)
(3 -6.47014e-16 0)
(3 -7.05261e-16 0)
(3 -8.34391e-16 0)
(3 -1.47459e-15 0)
(3 -1.97964e-15 0)
(3 -2.51757e-15 0)
(3 -3.28355e-15 0)
(3 -1.74299e-15 0)
(3 -9.67176e-16 0)
(3 -8.66209e-16 0)
(3 -7.14511e-16 0)
(3 -6.30516e-16 0)
(3 -4.29468e-16 0)
(3 -5.81852e-16 0)
(3 -8.14791e-16 0)
(3 -6.76131e-16 0)
(3 -6.82475e-16 0)
(3 1.93855e-16 0)
(3 2.41476e-15 0)
(3 2.79486e-15 0)
(3 2.23063e-15 0)
(3 1.86478e-15 0)
(3 1.5661e-15 0)
(3 -6.79932e-16 0)
(3 -2.43239e-15 0)
(3 -2.28492e-15 0)
(3 -2.3188e-15 0)
(3 -1.75246e-15 0)
(3 6.20266e-18 0)
(3 1.48123e-15 0)
(3 1.59886e-15 0)
(3 9.41848e-16 0)
(3 8.81589e-16 0)
(3 1.04991e-15 0)
(3 8.32323e-16 0)
(3 4.57406e-16 0)
(3 1.65832e-16 0)
(3 8.7414e-16 0)
(3 3.32857e-16 0)
(3 3.00763e-16 0)
(3 1.01261e-15 0)
(3 6.40505e-16 0)
(3 7.27851e-18 0)
(3 -7.44739e-16 0)
(3 -1.2765e-15 0)
(3 -1.64202e-15 0)
(3 -1.09327e-15 0)
(3 5.9564e-16 0)
(3 5.53723e-16 0)
(3 -7.18029e-16 0)
(3 -7.01079e-16 0)
(3 -8.84323e-16 0)
(3 -2.8693e-16 0)
(3 3.45793e-16 0)
(3 8.26377e-16 0)
(3 2.34877e-15 0)
(3 4.13798e-15 0)
(3 4.59212e-15 0)
(3 4.17378e-15 0)
(3 3.92509e-15 0)
(3 3.16359e-15 0)
(3 1.62732e-15 0)
(3 1.05601e-16 0)
(3 -8.63794e-17 0)
(3 7.63134e-17 0)
(3 -3.54583e-16 0)
(3 -1.71478e-15 0)
(3 -2.54208e-15 0)
(3 -2.12133e-15 0)
(3 -1.83761e-15 0)
(3 -1.61519e-15 0)
(3 2.7415e-18 0)
(3 -1.42503e-16 0)
(3 -2.22862e-16 0)
(3 -3.88182e-16 0)
(3 -6.72897e-16 0)
(3 -8.11464e-16 0)
(3 -8.03263e-16 0)
(3 -6.0513e-16 0)
(3 1.46927e-16 0)
(3 4.11499e-16 0)
(3 6.90486e-16 0)
(3 7.90881e-16 0)
(3 1.85457e-16 0)
(3 -2.36557e-16 0)
(3 3.43358e-16 0)
(3 1.66371e-15 0)
(3 1.54305e-15 0)
(3 9.60546e-16 0)
(3 -1.75162e-16 0)
(3 2.43387e-17 0)
(3 1.72891e-16 0)
(3 8.17296e-17 0)
(3 -6.53918e-16 0)
(3 -1.47245e-15 0)
(3 -2.53317e-15 0)
(3 -9.57755e-16 0)
(3 4.8385e-16 0)
(3 6.37172e-16 0)
(3 6.20009e-16 0)
(3 3.46422e-16 0)
(3 -1.10549e-15 0)
(3 -1.55036e-15 0)
(3 -1.0053e-15 0)
(3 -9.24907e-16 0)
(3 -5.48062e-16 0)
(3 -1.34438e-15 0)
(3 -1.12515e-15 0)
(3 -1.88033e-15 0)
(3 -2.68757e-15 0)
(3 -3.98362e-15 0)
(3 -4.20228e-15 0)
(3 -3.7428e-15 0)
(3 -2.15735e-15 0)
(3 -4.05526e-16 0)
(3 2.73845e-16 0)
(3 6.97915e-16 0)
(3 8.9365e-16 0)
(3 -9.18011e-17 0)
(3 -1.42815e-15 0)
(3 -1.98474e-15 0)
(3 -1.9033e-15 0)
(3 -2.0569e-15 0)
(3 -2.135e-15 0)
(3 -1.72997e-15 0)
(3 -7.87875e-16 0)
(3 -3.89357e-16 0)
(3 -5.39382e-16 0)
(3 -1.22532e-15 0)
(3 -3.87474e-16 0)
(3 -1.07205e-16 0)
(3 -4.64533e-16 0)
(3 -8.10249e-16 0)
(3 -6.91467e-16 0)
(3 -6.2247e-16 0)
(3 -1.6828e-15 0)
(3 -1.67028e-15 0)
(3 -2.18127e-15 0)
(3 -3.7466e-15 0)
(3 -2.68185e-15 0)
(3 -1.34213e-15 0)
(3 3.84252e-16 0)
(3 4.25961e-16 0)
(3 1.53818e-15 0)
(3 2.9295e-15 0)
(3 3.08358e-15 0)
(3 1.19265e-15 0)
(3 -9.50727e-17 0)
(3 2.94242e-17 0)
(3 5.46525e-16 0)
(3 6.08483e-16 0)
(3 7.45276e-16 0)
(3 1.65742e-15 0)
(3 2.51446e-15 0)
(3 2.8462e-15 0)
(3 2.36188e-15 0)
(3 1.1705e-15 0)
(3 -6.77921e-17 0)
(3 -5.71448e-16 0)
(3 -8.22831e-16 0)
(3 -4.00625e-16 0)
(3 -4.4766e-16 0)
(3 -1.47466e-15 0)
(3 -3.18582e-15 0)
(3 -3.32866e-15 0)
(3 -3.92454e-15 0)
(3 -2.725e-15 0)
(3 6.56543e-18 0)
(3 7.48907e-17 0)
(3 1.22332e-16 0)
(3 1.22957e-16 0)
(3 1.17259e-16 0)
(3 -9.20593e-17 0)
(3 -1.68642e-16 0)
(3 -3.51755e-16 0)
(3 -9.38392e-17 0)
(3 7.51057e-16 0)
(3 9.78359e-16 0)
(3 9.91856e-16 0)
(3 1.17889e-15 0)
(3 3.58588e-16 0)
(3 -1.42097e-16 0)
(3 -2.80796e-16 0)
(3 -2.18638e-17 0)
(3 4.28436e-16 0)
(3 4.72952e-16 0)
(3 7.04117e-16 0)
(3 8.86466e-16 0)
(3 3.0178e-16 0)
(3 -4.0766e-16 0)
(3 -3.83384e-16 0)
(3 -8.54776e-16 0)
(3 -5.09208e-16 0)
(3 2.36709e-16 0)
(3 1.06343e-15 0)
(3 1.04686e-15 0)
(3 4.88118e-16 0)
(3 1.76794e-16 0)
(3 1.07482e-15 0)
(3 1.1728e-15 0)
(3 6.11652e-16 0)
(3 8.13132e-17 0)
(3 -9.99984e-16 0)
(3 -2.83395e-15 0)
(3 -3.14848e-15 0)
(3 -2.98276e-15 0)
(3 -3.2186e-15 0)
(3 -3.61536e-15 0)
(3 -4.33111e-15 0)
(3 -3.44299e-15 0)
(3 -2.74438e-15 0)
(3 -1.24476e-15 0)
(3 -5.88528e-16 0)
(3 -5.59577e-16 0)
(3 -6.63647e-16 0)
(3 -9.91315e-16 0)
(3 -2.11561e-15 0)
(3 -2.45767e-15 0)
(3 -2.75234e-15 0)
(3 -2.80194e-15 0)
(3 -2.66269e-15 0)
(3 -1.69779e-15 0)
(3 -1.55801e-15 0)
(3 -2.20671e-15 0)
(3 -2.30621e-15 0)
(3 -2.0673e-15 0)
(3 -1.15722e-15 0)
(3 -9.91671e-16 0)
(3 1.00546e-16 0)
(3 5.91451e-17 0)
(3 -3.5484e-16 0)
(3 -2.22058e-15 0)
(3 -2.73369e-15 0)
(3 -2.64029e-15 0)
(3 -2.3168e-15 0)
(3 -1.22028e-15 0)
(3 3.91566e-16 0)
(3 3.63695e-16 0)
(3 5.48052e-16 0)
(3 8.32835e-16 0)
(3 3.3951e-15 0)
(3 3.34365e-15 0)
(3 1.88104e-15 0)
(3 9.70051e-16 0)
(3 1.48538e-15 0)
(3 1.232e-15 0)
(3 -2.19127e-16 0)
(3 -3.94641e-16 0)
(3 1.28462e-15 0)
(3 2.05503e-15 0)
(3 1.88621e-15 0)
(3 6.2443e-16 0)
(3 -3.0412e-16 0)
(3 -4.82628e-16 0)
(3 -1.3668e-15 0)
(3 -9.28076e-16 0)
(3 -5.71142e-16 0)
(3 -2.29268e-16 0)
(3 -6.73144e-17 0)
(3 -4.02227e-16 0)
(3 -2.77232e-15 0)
(3 -4.48617e-15 0)
(3 -3.93783e-15 0)
(3 -5.24595e-17 0)
(3 -2.57162e-16 0)
(3 -2.85378e-17 0)
(3 4.00615e-16 0)
(3 7.99338e-16 0)
(3 1.08716e-15 0)
(3 1.33968e-15 0)
(3 1.22812e-15 0)
(3 1.04053e-15 0)
(3 9.05324e-16 0)
(3 3.1985e-16 0)
(3 1.81642e-16 0)
(3 8.27299e-17 0)
(3 -2.39571e-16 0)
(3 -4.39618e-16 0)
(3 -1.13857e-15 0)
(3 -1.14434e-15 0)
(3 -5.85157e-17 0)
(3 2.82022e-16 0)
(3 4.01163e-16 0)
(3 7.04067e-16 0)
(3 7.59502e-16 0)
(3 7.81974e-16 0)
(3 1.14664e-15 0)
(3 1.57942e-15 0)
(3 1.40419e-15 0)
(3 1.12135e-15 0)
(3 5.63472e-16 0)
(3 5.39185e-17 0)
(3 -4.35681e-16 0)
(3 1.33925e-15 0)
(3 2.38772e-15 0)
(3 1.93046e-15 0)
(3 1.17845e-15 0)
(3 4.47993e-16 0)
(3 -7.43606e-16 0)
(3 -1.54409e-15 0)
(3 -2.33675e-15 0)
(3 -2.78448e-15 0)
(3 -2.56147e-15 0)
(3 -2.21767e-15 0)
(3 -1.74912e-15 0)
(3 -2.42182e-15 0)
(3 -3.45394e-15 0)
(3 -4.5977e-15 0)
(3 -3.66226e-15 0)
(3 -5.77669e-16 0)
(3 8.24037e-16 0)
(3 1.01891e-15 0)
(3 -8.85959e-16 0)
(3 -3.36956e-15 0)
(3 -3.96765e-15 0)
(3 -3.87881e-15 0)
(3 -2.70929e-15 0)
(3 -2.04201e-15 0)
(3 -2.13381e-15 0)
(3 -1.766e-15 0)
(3 -1.56836e-15 0)
(3 -1.1535e-15 0)
(3 -5.41391e-16 0)
(3 4.1239e-16 0)
(3 8.30233e-16 0)
(3 -1.6194e-16 0)
(3 -1.6533e-15 0)
(3 -2.02775e-15 0)
(3 -2.35731e-15 0)
(3 -2.10707e-15 0)
(3 -1.49068e-15 0)
(3 1.02468e-15 0)
(3 1.90474e-15 0)
(3 2.51021e-15 0)
(3 2.60647e-15 0)
(3 2.60498e-15 0)
(3 2.84146e-15 0)
(3 2.9442e-15 0)
(3 2.47127e-15 0)
(3 2.54732e-15 0)
(3 1.88157e-15 0)
(3 4.37642e-16 0)
(3 -3.4783e-16 0)
(3 -1.79062e-16 0)
(3 -3.04749e-16 0)
(3 -1.73804e-16 0)
(3 -2.5953e-16 0)
(3 -8.66549e-16 0)
(3 -1.19785e-15 0)
(3 -1.6142e-15 0)
(3 -2.25331e-15 0)
(3 -9.79671e-16 0)
(3 -1.0562e-15 0)
(3 -9.80972e-16 0)
(3 -4.69513e-16 0)
(3 -4.89802e-16 0)
(3 -1.44706e-15 0)
(3 -2.05211e-15 0)
(3 -3.1882e-15 0)
(3 -8.02145e-17 0)
(3 -3.18768e-16 0)
(3 -2.87672e-16 0)
(3 2.79756e-18 0)
(3 1.02824e-16 0)
(3 5.99343e-16 0)
(3 8.40799e-16 0)
(3 1.63916e-15 0)
(3 1.37647e-15 0)
(3 1.0469e-16 0)
(3 -3.43839e-16 0)
(3 -5.78773e-16 0)
(3 -8.47419e-16 0)
(3 -8.9575e-16 0)
(3 -1.19635e-15 0)
(3 -1.26747e-15 0)
(3 -1.53228e-15 0)
(3 -1.106e-15 0)
(3 -7.37446e-16 0)
(3 -8.39788e-16 0)
(3 -6.47325e-16 0)
(3 8.32867e-17 0)
(3 1.25088e-15 0)
(3 1.56027e-15 0)
(3 1.82256e-15 0)
(3 9.95957e-16 0)
(3 2.98296e-16 0)
(3 1.33439e-17 0)
(3 1.31301e-16 0)
(3 1.04753e-15 0)
(3 1.75958e-15 0)
(3 1.62236e-15 0)
(3 9.86654e-16 0)
(3 7.31916e-16 0)
(3 9.25858e-16 0)
(3 7.09393e-17 0)
(3 -3.32715e-16 0)
(3 -8.76811e-16 0)
(3 -1.91744e-15 0)
(3 -2.05931e-15 0)
(3 -2.04648e-15 0)
(3 -1.23416e-15 0)
(3 -1.45041e-15 0)
(3 -1.7691e-15 0)
(3 -1.90665e-15 0)
(3 -2.11098e-15 0)
(3 -2.0251e-15 0)
(3 -1.04454e-15 0)
(3 1.30241e-16 0)
(3 4.07174e-17 0)
(3 -9.96565e-16 0)
(3 -1.77422e-15 0)
(3 -2.42049e-15 0)
(3 -2.6988e-15 0)
(3 -2.73541e-15 0)
(3 -1.85146e-15 0)
(3 -1.69756e-15 0)
(3 -1.54688e-15 0)
(3 -1.32406e-15 0)
(3 -4.91826e-16 0)
(3 5.73967e-16 0)
(3 -1.15065e-16 0)
(3 -4.20029e-16 0)
(3 -5.95623e-17 0)
(3 3.4619e-16 0)
(3 2.79041e-16 0)
(3 3.02708e-16 0)
(3 5.44496e-16 0)
(3 1.54546e-15 0)
(3 2.85171e-15 0)
(3 4.15662e-15 0)
(3 3.76498e-15 0)
(3 3.12387e-15 0)
(3 1.81772e-15 0)
(3 1.50335e-15 0)
(3 1.56948e-15 0)
(3 1.80998e-15 0)
(3 2.21774e-15 0)
(3 2.00424e-15 0)
(3 1.96162e-15 0)
(3 1.87391e-15 0)
(3 4.45012e-17 0)
(3 -1.36947e-15 0)
(3 -2.45633e-15 0)
(3 -2.13668e-15 0)
(3 -1.49675e-15 0)
(3 -8.92283e-16 0)
(3 -6.57308e-16 0)
(3 -6.57491e-16 0)
(3 -1.19088e-15 0)
(3 -1.22104e-15 0)
(3 -1.23711e-15 0)
(3 -1.37197e-15 0)
(3 -1.39305e-15 0)
(3 -4.84528e-16 0)
(3 9.37265e-16 0)
(3 1.98726e-16 0)
(3 1.6784e-16 0)
(3 1.99295e-16 0)
(3 2.163e-16 0)
(3 5.09161e-16 0)
(3 6.08836e-16 0)
(3 1.77875e-16 0)
(3 -1.04563e-16 0)
(3 -8.87732e-16 0)
(3 -1.15755e-15 0)
(3 -1.14909e-15 0)
(3 -1.61621e-15 0)
(3 -2.06757e-15 0)
(3 -1.6612e-15 0)
(3 -2.04911e-15 0)
(3 -1.78865e-15 0)
(3 -1.20765e-15 0)
(3 -1.35307e-15 0)
(3 -1.65124e-15 0)
(3 -2.02311e-15 0)
(3 -2.98999e-15 0)
(3 -2.28758e-15 0)
(3 -9.10676e-16 0)
(3 2.90081e-16 0)
(3 6.73703e-16 0)
(3 2.53861e-16 0)
(3 -3.69825e-16 0)
(3 -1.93345e-16 0)
(3 4.5779e-16 0)
(3 8.39829e-16 0)
(3 -3.23317e-16 0)
(3 -6.07172e-16 0)
(3 -4.00769e-16 0)
(3 -3.7173e-16 0)
(3 -4.77664e-16 0)
(3 -7.33024e-16 0)
(3 -1.3094e-15 0)
(3 -1.84529e-15 0)
(3 -1.88661e-15 0)
(3 -1.52414e-15 0)
(3 -1.32512e-15 0)
(3 -8.91677e-16 0)
(3 -1.0346e-15 0)
(3 -1.35499e-15 0)
(3 -1.29799e-15 0)
(3 -1.32418e-15 0)
(3 -2.05321e-15 0)
(3 -2.38814e-15 0)
(3 -1.88076e-15 0)
(3 -7.73988e-16 0)
(3 2.22104e-16 0)
(3 2.69066e-16 0)
(3 -2.4766e-16 0)
(3 -1.04733e-15 0)
(3 -1.59788e-15 0)
(3 -1.43428e-15 0)
(3 -6.23924e-16 0)
(3 -8.78848e-16 0)
(3 -1.4761e-15 0)
(3 -1.55561e-15 0)
(3 -1.58878e-15 0)
(3 -7.47e-16 0)
(3 -4.63381e-16 0)
(3 -4.64097e-16 0)
(3 -6.38587e-16 0)
(3 -3.71028e-16 0)
(3 -3.74557e-16 0)
(3 9.53533e-16 0)
(3 6.82423e-16 0)
(3 1.23576e-15 0)
(3 2.76123e-15 0)
(3 2.96732e-15 0)
(3 2.85229e-15 0)
(3 2.01339e-15 0)
(3 6.38436e-16 0)
(3 3.7856e-16 0)
(3 9.30328e-16 0)
(3 1.54896e-15 0)
(3 2.56645e-15 0)
(3 2.92053e-15 0)
(3 2.10081e-15 0)
(3 6.86964e-16 0)
(3 -9.22995e-16 0)
(3 -6.4964e-16 0)
(3 1.0339e-16 0)
(3 -3.41647e-17 0)
(3 -9.64713e-17 0)
(3 4.35157e-16 0)
(3 3.99753e-16 0)
(3 3.45932e-16 0)
(3 3.0381e-16 0)
(3 1.82503e-16 0)
(3 1.16805e-16 0)
(3 6.96434e-16 0)
(3 2.44055e-15 0)
(3 2.60944e-15 0)
(3 3.53066e-17 0)
(3 1.08746e-16 0)
(3 3.64942e-16 0)
(3 3.33242e-16 0)
(3 5.68001e-16 0)
(3 7.10489e-16 0)
(3 6.5205e-16 0)
(3 -4.06624e-18 0)
(3 1.54223e-16 0)
(3 -1.22791e-16 0)
(3 -5.06387e-16 0)
(3 -7.71539e-16 0)
(3 -1.02355e-15 0)
(3 -1.34741e-15 0)
(3 -6.86944e-16 0)
(3 -6.53937e-16 0)
(3 -4.79637e-16 0)
(3 -1.18257e-15 0)
(3 -2.57102e-15 0)
(3 -3.5077e-15 0)
(3 -3.8656e-15 0)
(3 -2.62009e-15 0)
(3 -1.22417e-15 0)
(3 -1.77824e-16 0)
(3 2.02051e-16 0)
(3 -9.77802e-16 0)
(3 -1.26499e-15 0)
(3 -5.88568e-16 0)
(3 5.93237e-16 0)
(3 1.3765e-16 0)
(3 1.2967e-16 0)
(3 2.31811e-17 0)
(3 1.43869e-16 0)
(3 5.32542e-16 0)
(3 8.09871e-16 0)
(3 9.12549e-16 0)
(3 6.96415e-16 0)
(3 1.543e-17 0)
(3 -4.79244e-16 0)
(3 -4.97431e-16 0)
(3 -1.46113e-16 0)
(3 -6.67415e-16 0)
(3 -1.51467e-15 0)
(3 -2.07946e-15 0)
(3 -8.76064e-16 0)
(3 8.89508e-16 0)
(3 5.23964e-16 0)
(3 -1.01936e-15 0)
(3 -1.35746e-15 0)
(3 -8.42777e-16 0)
(3 8.84366e-16 0)
(3 1.5237e-15 0)
(3 1.8479e-15 0)
(3 1.77308e-15 0)
(3 4.50392e-16 0)
(3 -3.94689e-16 0)
(3 -7.70427e-16 0)
(3 -9.97295e-16 0)
(3 -2.12681e-15 0)
(3 -2.72711e-15 0)
(3 -2.13382e-15 0)
(3 -1.72362e-15 0)
(3 -5.5143e-16 0)
(3 -4.06695e-16 0)
(3 -6.79123e-16 0)
(3 -2.63968e-16 0)
(3 -6.34031e-17 0)
(3 -1.0124e-16 0)
(3 -3.10716e-16 0)
(3 -5.28261e-16 0)
(3 6.51338e-16 0)
(3 2.04297e-15 0)
(3 2.51245e-15 0)
(3 9.17347e-16 0)
(3 -9.86222e-17 0)
(3 -3.61496e-16 0)
(3 1.45031e-15 0)
(3 2.55581e-15 0)
(3 3.11463e-15 0)
(3 3.53611e-15 0)
(3 3.07763e-15 0)
(3 2.33747e-15 0)
(3 1.85926e-15 0)
(3 1.08627e-15 0)
(3 4.36368e-16 0)
(3 -1.72227e-16 0)
(3 -3.90705e-16 0)
(3 2.33251e-16 0)
(3 2.88748e-16 0)
(3 1.66047e-16 0)
(3 -6.08341e-17 0)
(3 5.11107e-16 0)
(3 2.66565e-16 0)
(3 8.29045e-16 0)
(3 1.47652e-15 0)
(3 1.20949e-15 0)
(3 -1.57479e-16 0)
(3 -9.56516e-17 0)
(3 3.6544e-17 0)
(3 -5.42756e-16 0)
(3 -6.69046e-16 0)
(3 -4.52318e-16 0)
(3 -2.66548e-16 0)
(3 -6.12009e-17 0)
(3 -2.88372e-16 0)
(3 -8.85192e-16 0)
(3 -1.26631e-15 0)
(3 -1.01991e-15 0)
(3 -7.99096e-16 0)
(3 -1.05471e-15 0)
(3 -8.28315e-16 0)
(3 -8.46332e-16 0)
(3 -1.02348e-15 0)
(3 -1.65597e-15 0)
(3 -2.13254e-15 0)
(3 -3.15321e-15 0)
(3 -2.50113e-15 0)
(3 -1.91729e-15 0)
(3 -9.95812e-16 0)
(3 -6.89208e-16 0)
(3 -2.52641e-16 0)
(3 4.18569e-16 0)
(3 7.59272e-16 0)
(3 1.25384e-15 0)
(3 1.44466e-15 0)
(3 1.41509e-15 0)
(3 1.51526e-15 0)
(3 1.4163e-15 0)
(3 1.30421e-15 0)
(3 8.7457e-16 0)
(3 7.07269e-16 0)
(3 1.95097e-15 0)
(3 1.22664e-15 0)
(3 1.30268e-15 0)
(3 1.45221e-15 0)
(3 4.20859e-16 0)
(3 -9.20456e-16 0)
(3 -1.3657e-15 0)
(3 -1.24852e-15 0)
(3 -6.36678e-16 0)
(3 1.13718e-16 0)
(3 -1.44977e-16 0)
(3 8.71964e-17 0)
(3 4.48224e-16 0)
(3 1.55718e-16 0)
(3 -1.37703e-15 0)
(3 -3.64705e-16 0)
(3 1.2521e-15 0)
(3 2.73594e-15 0)
(3 2.89942e-15 0)
(3 2.23651e-15 0)
(3 9.56783e-16 0)
(3 -1.97568e-15 0)
(3 -1.99419e-15 0)
(3 -1.56794e-15 0)
(3 -1.43587e-15 0)
(3 -1.74189e-15 0)
(3 -1.76624e-15 0)
(3 -1.19498e-15 0)
(3 -2.44833e-16 0)
(3 -7.79063e-17 0)
(3 -3.31317e-16 0)
(3 -4.7943e-16 0)
(3 -9.92168e-16 0)
(3 -5.92028e-16 0)
(3 -5.72649e-16 0)
(3 -4.48761e-17 0)
(3 2.31306e-16 0)
(3 1.99756e-16 0)
(3 2.20455e-16 0)
(3 4.34448e-16 0)
(3 1.64815e-15 0)
(3 2.73635e-15 0)
(3 3.14111e-15 0)
(3 1.50218e-15 0)
(3 7.55357e-16 0)
(3 1.43358e-15 0)
(3 1.88392e-15 0)
(3 1.60837e-15 0)
(3 5.99475e-16 0)
(3 8.67074e-17 0)
(3 1.20881e-16 0)
(3 4.7878e-16 0)
(3 1.01899e-15 0)
(3 1.08464e-15 0)
(3 6.92235e-16 0)
(3 4.57154e-16 0)
(3 -8.10819e-16 0)
(3 -1.6659e-15 0)
(3 -1.95257e-15 0)
(3 -8.05068e-16 0)
(3 1.84862e-18 0)
(3 -3.23618e-18 0)
(3 -1.75952e-17 0)
(3 -4.92852e-17 0)
(3 -1.93867e-17 0)
(3 -4.30073e-16 0)
(3 -1.06383e-15 0)
(3 -1.12427e-15 0)
(3 -1.0676e-15 0)
(3 -1.04807e-15 0)
(3 -8.62133e-16 0)
(3 -1.20523e-15 0)
(3 -1.48511e-15 0)
(3 -1.01869e-15 0)
(3 -8.79159e-16 0)
(3 -7.39736e-16 0)
(3 -4.66581e-16 0)
(3 -8.57338e-16 0)
(3 -8.54141e-16 0)
(3 -7.2709e-18 0)
(3 -2.33938e-16 0)
(3 -9.25979e-16 0)
(3 -1.92088e-15 0)
(3 -1.59757e-15 0)
(3 -1.52145e-15 0)
(3 -9.60754e-16 0)
(3 2.00328e-15 0)
(3 1.99571e-15 0)
(3 1.56087e-15 0)
(3 1.13915e-15 0)
(3 1.61838e-15 0)
(3 1.93968e-15 0)
(3 2.0514e-15 0)
(3 1.95359e-15 0)
(3 1.88606e-15 0)
(3 7.24241e-16 0)
(3 6.67929e-17 0)
(3 -8.83884e-17 0)
(3 1.86616e-16 0)
(3 6.17197e-16 0)
(3 7.21e-16 0)
(3 8.64838e-17 0)
(3 3.12654e-16 0)
(3 5.78344e-16 0)
(3 7.7084e-16 0)
(3 5.12602e-16 0)
(3 -4.37365e-16 0)
(3 -6.31087e-16 0)
(3 -1.58448e-16 0)
(3 -4.10001e-16 0)
(3 -1.21856e-15 0)
(3 -1.15522e-15 0)
(3 6.29522e-16 0)
(3 9.6697e-16 0)
(3 7.32391e-16 0)
(3 2.80714e-16 0)
(3 -2.20627e-15 0)
(3 -3.05771e-15 0)
(3 -2.9396e-15 0)
(3 -2.38469e-15 0)
(3 -7.95821e-16 0)
(3 -1.07655e-15 0)
(3 -1.18646e-15 0)
(3 -1.23536e-15 0)
(3 -9.96035e-16 0)
(3 -2.78799e-16 0)
(3 4.88143e-16 0)
(3 9.12327e-16 0)
(3 -7.60587e-16 0)
(3 -2.03461e-15 0)
(3 -2.26083e-15 0)
(3 -1.10647e-15 0)
(3 -7.07143e-16 0)
(3 -9.75965e-16 0)
(3 -5.71116e-16 0)
(3 1.22379e-15 0)
(3 2.15511e-15 0)
(3 1.81143e-15 0)
(3 8.94071e-16 0)
(3 -3.63759e-16 0)
(3 -3.44445e-16 0)
(3 -6.49078e-18 0)
(3 4.42972e-16 0)
(3 8.85228e-16 0)
(3 1.52472e-15 0)
(3 2.06596e-15 0)
(3 1.96018e-15 0)
(3 1.29702e-15 0)
(3 9.78285e-16 0)
(3 2.06264e-15 0)
(3 1.97823e-15 0)
(3 8.86148e-16 0)
(3 9.48612e-17 0)
(3 8.36976e-16 0)
(3 1.66994e-15 0)
(3 9.86405e-16 0)
(3 6.40336e-16 0)
(3 1.45564e-16 0)
(3 2.37843e-16 0)
(3 8.34859e-17 0)
(3 2.65261e-16 0)
(3 2.29956e-16 0)
(3 1.22165e-16 0)
(3 -1.43252e-16 0)
(3 -4.19062e-16 0)
(3 -7.20564e-17 0)
(3 4.86083e-16 0)
(3 4.50866e-16 0)
(3 1.29328e-16 0)
(3 1.80509e-16 0)
(3 -3.06437e-17 0)
(3 -1.00277e-16 0)
(3 -2.97939e-16 0)
(3 -6.79434e-16 0)
(3 -6.9457e-16 0)
(3 -3.42326e-16 0)
(3 3.93013e-17 0)
(3 3.42919e-16 0)
(3 -1.10091e-15 0)
(3 -2.74916e-15 0)
(3 -2.34303e-15 0)
(3 -2.43101e-16 0)
(3 1.75047e-15 0)
(3 1.21878e-15 0)
(3 5.32898e-16 0)
(3 5.23283e-16 0)
(3 8.23286e-16 0)
(3 9.07045e-16 0)
(3 1.1304e-15 0)
(3 1.40504e-15 0)
(3 1.92798e-15 0)
(3 -1.20039e-16 0)
(3 -2.01592e-15 0)
(3 -1.84965e-15 0)
(3 -1.17223e-15 0)
(3 -6.39377e-16 0)
(3 -3.20692e-16 0)
(3 -6.00969e-16 0)
(3 -7.96533e-16 0)
(3 -4.23626e-16 0)
(3 -7.95072e-17 0)
(3 -1.20735e-17 0)
(3 1.22647e-16 0)
(3 -5.89496e-17 0)
(3 -3.72441e-16 0)
(3 -4.99977e-16 0)
(3 3.83375e-16 0)
(3 1.00584e-15 0)
(3 -1.63814e-16 0)
(3 -7.08048e-16 0)
(3 -1.19829e-15 0)
(3 -2.46332e-15 0)
(3 -3.19958e-15 0)
(3 -3.18515e-15 0)
(3 -2.58168e-15 0)
(3 -2.27599e-15 0)
(3 -2.2671e-15 0)
(3 -1.60861e-15 0)
(3 -1.06504e-15 0)
(3 -7.8905e-16 0)
(3 2.08741e-17 0)
(3 1.46838e-15 0)
(3 9.90726e-16 0)
(3 -1.64463e-15 0)
(3 -1.91244e-15 0)
(3 -1.73665e-15 0)
(3 -1.66952e-15 0)
(3 -1.90905e-15 0)
(3 -1.6091e-15 0)
(3 -9.18246e-16 0)
(3 7.68306e-16 0)
(3 1.69748e-15 0)
(3 1.75082e-15 0)
(3 1.08038e-15 0)
(3 -4.07976e-16 0)
(3 -1.69012e-16 0)
(3 1.78234e-17 0)
(3 4.56428e-16 0)
(3 1.01678e-15 0)
(3 2.00846e-15 0)
(3 2.07504e-15 0)
(3 1.98563e-15 0)
(3 2.55875e-15 0)
(3 3.0231e-15 0)
(3 2.76275e-15 0)
(3 1.88025e-15 0)
(3 1.06784e-15 0)
(3 6.20991e-16 0)
(3 9.56011e-16 0)
(3 1.16416e-15 0)
(3 8.66593e-16 0)
(3 7.81958e-16 0)
(3 3.78535e-16 0)
(3 2.46709e-17 0)
(3 8.94522e-17 0)
(3 -1.9636e-17 0)
(3 -1.74787e-16 0)
(3 2.17608e-16 0)
(3 3.15594e-16 0)
(3 2.25513e-16 0)
(3 -5.27208e-17 0)
(3 -3.10302e-16 0)
(3 -1.67428e-16 0)
(3 4.53359e-16 0)
(3 4.24489e-16 0)
(3 1.87817e-16 0)
(3 -6.28954e-16 0)
(3 -1.09193e-15 0)
(3 -5.27241e-16 0)
(3 -3.95749e-16 0)
(3 -6.66882e-16 0)
(3 -8.08082e-16 0)
(3 1.38851e-16 0)
(3 1.04555e-15 0)
(3 6.428e-16 0)
(3 -1.23381e-15 0)
(3 -1.72839e-15 0)
(3 -9.25465e-16 0)
(3 1.63108e-16 0)
(3 5.86081e-16 0)
(3 5.49074e-16 0)
(3 3.77657e-17 0)
(3 -5.36439e-16 0)
(3 -1.10093e-15 0)
(3 -1.33415e-15 0)
(3 2.58264e-16 0)
(3 7.10432e-16 0)
(3 -6.2601e-16 0)
(3 -1.40186e-15 0)
(3 -1.19333e-15 0)
(3 -6.7387e-16 0)
(3 -3.52062e-16 0)
(3 3.13383e-16 0)
(3 -2.69462e-16 0)
(3 -2.15073e-15 0)
(3 -2.23287e-15 0)
(3 -1.7511e-15 0)
(3 -1.11005e-15 0)
(3 -2.16513e-16 0)
(3 -4.47434e-16 0)
(3 -5.65708e-16 0)
(3 5.51866e-16 0)
(3 1.0223e-15 0)
(3 8.80091e-16 0)
(3 4.26206e-16 0)
(3 -7.25717e-16 0)
(3 -1.50302e-15 0)
(3 -1.4963e-15 0)
(3 -5.98543e-16 0)
(3 -8.18703e-16 0)
(3 -8.80595e-16 0)
(3 -1.07506e-15 0)
(3 -1.82712e-15 0)
(3 -1.87527e-15 0)
(3 -2.28878e-15 0)
(3 -1.67782e-15 0)
(3 -5.11606e-16 0)
(3 -1.31272e-16 0)
(3 -5.31893e-16 0)
(3 -1.4504e-15 0)
(3 -2.00595e-15 0)
(3 -1.99906e-15 0)
(3 -1.97157e-15 0)
(3 -1.99132e-15 0)
(3 -1.02895e-15 0)
(3 1.10967e-16 0)
(3 1.46201e-15 0)
(3 1.57949e-15 0)
(3 1.30712e-15 0)
(3 6.96632e-16 0)
(3 2.51463e-16 0)
(3 -1.88017e-16 0)
(3 -1.02081e-16 0)
(3 -1.19493e-16 0)
(3 3.99516e-16 0)
(3 1.69593e-15 0)
(3 2.22226e-15 0)
(3 4.19344e-15 0)
(3 5.49767e-15 0)
(3 5.03333e-15 0)
(3 2.61886e-15 0)
(3 -9.13637e-16 0)
(3 -1.48571e-15 0)
(3 -3.30531e-16 0)
(3 7.28261e-16 0)
(3 2.04517e-16 0)
(3 -7.85217e-16 0)
(3 -1.62856e-15 0)
(3 -9.60822e-16 0)
(3 -2.09039e-16 0)
(3 -1.86547e-16 0)
(3 -1.42319e-16 0)
(3 -1.63385e-16 0)
(3 1.5864e-17 0)
(3 1.87366e-17 0)
(3 1.14321e-16 0)
(3 -1.09875e-16 0)
(3 -1.97344e-16 0)
(3 -4.89093e-16 0)
(3 3.14778e-16 0)
(3 1.12931e-15 0)
(3 8.31625e-16 0)
(3 4.30932e-16 0)
(3 1.75977e-16 0)
(3 -2.37444e-17 0)
(3 3.68394e-16 0)
(3 3.36667e-16 0)
(3 -3.8756e-16 0)
(3 3.06731e-16 0)
(3 2.51293e-15 0)
(3 2.56251e-15 0)
(3 1.90948e-15 0)
(3 1.13116e-15 0)
(3 3.27783e-16 0)
(3 1.99602e-16 0)
(3 -1.02037e-16 0)
(3 -2.51509e-16 0)
(3 -3.8314e-16 0)
(3 -5.46624e-16 0)
(3 -8.58167e-16 0)
(3 -7.71207e-16 0)
(3 -1.24352e-15 0)
(3 -1.34522e-15 0)
(3 3.0865e-16 0)
(3 1.77843e-16 0)
(3 5.23672e-16 0)
(3 7.67431e-16 0)
(3 1.01443e-15 0)
(3 7.30972e-16 0)
(3 7.16781e-16 0)
(3 6.38821e-16 0)
(3 6.60991e-16 0)
(3 4.31012e-16 0)
(3 -1.16297e-16 0)
(3 1.89149e-16 0)
(3 5.5025e-16 0)
(3 5.04111e-16 0)
(3 1.17762e-15 0)
(3 8.25023e-16 0)
(3 7.85616e-16 0)
(3 4.32511e-16 0)
(3 -7.41181e-16 0)
(3 -1.20101e-15 0)
(3 -1.12989e-15 0)
(3 -1.56797e-16 0)
(3 2.47629e-16 0)
(3 -1.25046e-15 0)
(3 -1.38199e-15 0)
(3 -1.57413e-15 0)
(3 -1.92621e-15 0)
(3 -2.41323e-15 0)
(3 -2.55247e-15 0)
(3 -2.97016e-15 0)
(3 -2.66382e-15 0)
(3 -1.00396e-15 0)
(3 9.44135e-18 0)
(3 -9.38249e-16 0)
(3 -1.73358e-15 0)
(3 -1.72328e-15 0)
(3 -8.4659e-16 0)
(3 -7.35865e-17 0)
(3 -1.24668e-16 0)
(3 1.01535e-16 0)
(3 3.55492e-16 0)
(3 -9.35315e-17 0)
(3 -9.75784e-16 0)
(3 -9.96325e-16 0)
(3 -1.00964e-15 0)
(3 -7.55519e-16 0)
(3 -4.67071e-16 0)
(3 -4.78827e-16 0)
(3 9.4418e-16 0)
(3 2.15194e-15 0)
(3 3.69197e-15 0)
(3 4.77114e-15 0)
(3 4.42957e-15 0)
(3 8.68427e-16 0)
(3 -1.42901e-15 0)
(3 -1.19404e-15 0)
(3 -1.38274e-15 0)
(3 3.55611e-17 0)
(3 9.16461e-16 0)
(3 8.61712e-16 0)
(3 6.07403e-16 0)
(3 1.35607e-15 0)
(3 1.73188e-18 0)
(3 2.28332e-17 0)
(3 1.87948e-17 0)
(3 1.59147e-16 0)
(3 2.10027e-16 0)
(3 6.023e-16 0)
(3 6.95892e-16 0)
(3 1.42687e-16 0)
(3 -2.99017e-17 0)
(3 2.31123e-16 0)
(3 6.41715e-16 0)
(3 1.10997e-15 0)
(3 1.0518e-15 0)
(3 9.76675e-16 0)
(3 9.88504e-16 0)
(3 1.12139e-15 0)
(3 1.2713e-15 0)
(3 1.43178e-15 0)
(3 1.22037e-15 0)
(3 1.13323e-15 0)
(3 1.0385e-15 0)
(3 1.80734e-15 0)
(3 2.31735e-15 0)
(3 2.12218e-15 0)
(3 -5.26907e-16 0)
(3 -1.74241e-15 0)
(3 -1.264e-15 0)
(3 -6.36485e-17 0)
(3 3.95853e-16 0)
(3 1.81506e-16 0)
(3 -7.53425e-17 0)
(3 -1.68183e-16 0)
(3 -8.33087e-16 0)
(3 -1.70778e-15 0)
(3 -1.10252e-15 0)
(3 5.71943e-16 0)
(3 8.97059e-16 0)
(3 1.15753e-15 0)
(3 7.47497e-16 0)
(3 1.88439e-16 0)
(3 2.07793e-16 0)
(3 5.14635e-16 0)
(3 5.94184e-16 0)
(3 2.86758e-16 0)
(3 7.1912e-16 0)
(3 1.06443e-15 0)
(3 1.82173e-15 0)
(3 1.76909e-15 0)
(3 7.44715e-16 0)
(3 5.04371e-16 0)
(3 -1.03741e-16 0)
(3 -1.49597e-16 0)
(3 -8.3245e-16 0)
(3 -7.18311e-16 0)
(3 -4.46697e-16 0)
(3 -2.38239e-17 0)