/*--------------------------------*- C++ -*----------------------------------*\
  =========                 |
  \\      /  F ield         | OpenFOAM: The Open Source CFD Toolbox
   \\    /   O peration     | Website:  https://openfoam.org
    \\  /    A nd           | Version:  7
     \\/     M anipulation  |
\*---------------------------------------------------------------------------*/
FoamFile
{
    version     2.0;
    format      ascii;
    class       volVectorField;
    location    "3";
    object      U;
}
// * * * * * * * * * * * * * * * * * * * * * * * * * * * * * * * * * * * * * //

dimensions      [0 1 -1 0 0 0 0];

internalField   nonuniform List<vector> 
73728
(
(3 3.89477e-17 0)
(3 -2.67729e-16 0)
(3 -4.84431e-16 0)
(3 -2.80189e-16 0)
(3 5.12865e-16 0)
(3 4.01666e-16 0)
(3 1.66235e-16 0)
(3 1.97598e-16 0)
(3 5.95907e-16 0)
(3 5.71728e-16 0)
(3 2.16696e-16 0)
(3 2.08065e-16 0)
(3 1.18942e-17 0)
(3 -9.56505e-17 0)
(3 3.72821e-17 0)
(3 1.03942e-16 0)
(3 2.60591e-16 0)
(3 2.86318e-16 0)
(3 7.70006e-17 0)
(3 -8.75864e-17 0)
(3 2.49692e-16 0)
(3 1.07643e-15 0)
(3 1.31201e-15 0)
(3 -2.38164e-16 0)
(3 -4.61829e-16 0)
(3 -4.88285e-16 0)
(3 -3.49804e-16 0)
(3 2.98002e-16 0)
(3 9.54297e-16 0)
(3 1.3165e-15 0)
(3 1.03049e-15 0)
(3 4.91857e-16 0)
(3 -7.2224e-16 0)
(3 -1.08636e-15 0)
(3 -1.91401e-15 0)
(3 -2.06646e-15 0)
(3 -1.9193e-15 0)
(3 -1.15047e-15 0)
(3 -3.41161e-16 0)
(3 -3.04287e-16 0)
(3 -5.96816e-16 0)
(3 -1.01313e-15 0)
(3 -1.34456e-15 0)
(3 7.02676e-16 0)
(3 1.75867e-15 0)
(3 2.15686e-15 0)
(3 2.60959e-15 0)
(3 1.90614e-15 0)
(3 1.5904e-15 0)
(3 1.95358e-15 0)
(3 2.05206e-15 0)
(3 1.73241e-15 0)
(3 1.40424e-15 0)
(3 1.2261e-15 0)
(3 1.05657e-15 0)
(3 6.92577e-16 0)
(3 7.93039e-16 0)
(3 1.00363e-15 0)
(3 7.6935e-16 0)
(3 8.15924e-16 0)
(3 7.80586e-16 0)
(3 6.32533e-16 0)
(3 3.08315e-16 0)
(3 -2.98571e-16 0)
(3 -1.98493e-16 0)
(3 -2.45862e-16 0)
(3 -6.42751e-16 0)
(3 -4.57671e-16 0)
(3 -9.10695e-16 0)
(3 -8.68061e-16 0)
(3 -8.81633e-16 0)
(3 -6.27833e-16 0)
(3 -1.99706e-16 0)
(3 -6.06344e-16 0)
(3 -2.17625e-15 0)
(3 -1.20999e-15 0)
(3 -8.06255e-16 0)
(3 -7.36831e-16 0)
(3 -5.27717e-16 0)
(3 -9.1101e-17 0)
(3 -8.79407e-16 0)
(3 -9.85209e-16 0)
(3 -1.07427e-15 0)
(3 -9.14653e-16 0)
(3 -9.718e-16 0)
(3 -1.41969e-15 0)
(3 -1.73284e-15 0)
(3 -1.29021e-15 0)
(3 -2.94228e-16 0)
(3 -8.23597e-16 0)
(3 -2.20907e-16 0)
(3 1.0355e-16 0)
(3 4.23135e-16 0)
(3 6.68011e-16 0)
(3 -2.19439e-16 0)
(3 -6.80882e-16 0)
(3 -9.52497e-17 0)
(3 -2.49598e-16 0)
(3 -8.04885e-17 0)
(3 3.22588e-16 0)
(3 5.31744e-16 0)
(3 1.10192e-16 0)
(3 -3.95901e-16 0)
(3 -6.6714e-16 0)
(3 -3.42931e-16 0)
(3 -4.91214e-18 0)
(3 1.192e-17 0)
(3 1.41851e-16 0)
(3 -8.07871e-16 0)
(3 -1.34283e-15 0)
(3 -1.07658e-15 0)
(3 -9.10002e-16 0)
(3 -1.40362e-16 0)
(3 7.73735e-16 0)
(3 1.18329e-15 0)
(3 1.15454e-15 0)
(3 1.34684e-15 0)
(3 1.92987e-15 0)
(3 7.94167e-16 0)
(3 -1.88156e-16 0)
(3 -1.13132e-15 0)
(3 -5.18841e-16 0)
(3 2.42004e-16 0)
(3 7.0952e-16 0)
(3 1.00198e-15 0)
(3 9.01009e-16 0)
(3 7.48058e-16 0)
(3 -2.78268e-17 0)
(3 -4.97654e-16 0)
(3 -1.46475e-15 0)
(3 -2.14133e-15 0)
(3 -2.6242e-15 0)
(3 -2.37441e-15 0)
(3 -1.26457e-15 0)
(3 -1.36975e-16 0)
(3 -3.13309e-16 0)
(3 -7.38446e-16 0)
(3 -1.40929e-15 0)
(3 -9.03981e-16 0)
(3 1.32853e-15 0)
(3 1.63072e-15 0)
(3 1.91792e-15 0)
(3 2.76691e-15 0)
(3 3.17722e-15 0)
(3 3.15161e-15 0)
(3 3.28572e-15 0)
(3 3.63693e-15 0)
(3 3.24497e-15 0)
(3 6.4525e-16 0)
(3 3.5177e-16 0)
(3 -2.38614e-16 0)
(3 2.31424e-17 0)
(3 1.27119e-15 0)
(3 1.84533e-15 0)
(3 1.44146e-15 0)
(3 6.16856e-16 0)
(3 3.35313e-17 0)
(3 -6.70942e-17 0)
(3 -2.51221e-16 0)
(3 -4.71986e-16 0)
(3 -6.34074e-16 0)
(3 -8.23511e-16 0)
(3 -1.51357e-15 0)
(3 -1.84127e-16 0)
(3 -2.96065e-16 0)
(3 -4.87497e-16 0)
(3 -7.046e-16 0)
(3 -1.02457e-15 0)
(3 -1.72165e-15 0)
(3 -2.68113e-15 0)
(3 -3.76831e-15 0)
(3 -2.31224e-15 0)
(3 -2.08785e-15 0)
(3 -2.35136e-15 0)
(3 -1.42726e-15 0)
(3 -1.42614e-16 0)
(3 -4.4714e-16 0)
(3 -6.07754e-16 0)
(3 -1.10277e-15 0)
(3 -9.19421e-16 0)
(3 -1.17939e-15 0)
(3 -8.01228e-16 0)
(3 -3.17218e-16 0)
(3 -1.97716e-16 0)
(3 -4.40271e-16 0)
(3 -8.69962e-16 0)
(3 2.29874e-16 0)
(3 5.55573e-16 0)
(3 8.92871e-16 0)
(3 8.35618e-16 0)
(3 -1.67874e-17 0)
(3 -9.9702e-16 0)
(3 -6.84397e-17 0)
(3 -1.4024e-16 0)
(3 3.14858e-16 0)
(3 3.38775e-16 0)
(3 1.79065e-16 0)
(3 -1.7998e-16 0)
(3 -8.65e-16 0)
(3 -7.122e-16 0)
(3 -7.31043e-16 0)
(3 -6.48779e-16 0)
(3 -1.73137e-16 0)
(3 1.41789e-16 0)
(3 -7.84584e-16 0)
(3 -1.06447e-15 0)
(3 -1.14455e-15 0)
(3 -1.54307e-15 0)
(3 2.56398e-16 0)
(3 2.40673e-15 0)
(3 2.94086e-15 0)
(3 3.75374e-15 0)
(3 3.66755e-15 0)
(3 2.46337e-15 0)
(3 1.02079e-15 0)
(3 5.79534e-16 0)
(3 2.55891e-16 0)
(3 6.85974e-16 0)
(3 3.6827e-16 0)
(3 7.38538e-16 0)
(3 6.49904e-16 0)
(3 2.73813e-16 0)
(3 -3.61451e-17 0)
(3 -6.11855e-16 0)
(3 -6.64139e-16 0)
(3 -1.11778e-15 0)
(3 -1.32469e-15 0)
(3 -1.83856e-15 0)
(3 -2.26147e-15 0)
(3 -1.84867e-15 0)
(3 -2.18351e-16 0)
(3 4.54286e-16 0)
(3 7.79651e-16 0)
(3 4.73902e-16 0)
(3 8.85923e-16 0)
(3 1.62197e-15 0)
(3 1.83348e-15 0)
(3 3.23788e-15 0)
(3 3.4275e-15 0)
(3 3.60757e-15 0)
(3 3.32361e-15 0)
(3 2.08524e-15 0)
(3 1.36204e-15 0)
(3 1.19269e-15 0)
(3 1.36845e-15 0)
(3 1.05006e-15 0)
(3 1.66867e-15 0)
(3 2.30394e-15 0)
(3 2.81712e-15 0)
(3 2.81468e-15 0)
(3 4.4784e-16 0)
(3 -9.46442e-16 0)
(3 -1.69969e-15 0)
(3 -1.96803e-15 0)
(3 -1.29323e-15 0)
(3 -2.46273e-16 0)
(3 -3.68545e-16 0)
(3 -4.96125e-16 0)
(3 -5.39073e-16 0)
(3 -7.79105e-16 0)
(3 -8.66875e-16 0)
(3 -6.33821e-17 0)
(3 -9.45972e-16 0)
(3 -2.10831e-15 0)
(3 -2.71266e-15 0)
(3 -3.36213e-15 0)
(3 -2.73733e-15 0)
(3 -2.83383e-15 0)
(3 -3.13734e-15 0)
(3 -3.67727e-15 0)
(3 -2.46596e-15 0)
(3 -6.17461e-16 0)
(3 -2.36889e-16 0)
(3 -3.96496e-16 0)
(3 -7.17061e-16 0)
(3 -1.15531e-15 0)
(3 -1.95927e-15 0)
(3 -1.1258e-15 0)
(3 8.16794e-16 0)
(3 8.78381e-16 0)
(3 -2.96875e-16 0)
(3 -1.02902e-15 0)
(3 -1.21786e-17 0)
(3 9.38466e-16 0)
(3 1.91351e-15 0)
(3 2.43511e-15 0)
(3 2.53757e-15 0)
(3 2.06261e-15 0)
(3 1.97555e-16 0)
(3 2.25482e-16 0)
(3 1.41182e-16 0)
(3 -4.5115e-17 0)
(3 -3.11752e-16 0)
(3 -1.76071e-16 0)
(3 -5.44624e-17 0)
(3 4.64631e-16 0)
(3 1.96356e-16 0)
(3 3.2627e-16 0)
(3 -1.20336e-16 0)
(3 -4.26527e-16 0)
(3 -6.13046e-17 0)
(3 -1.67392e-16 0)
(3 -2.29303e-16 0)
(3 1.52415e-16 0)
(3 1.43926e-15 0)
(3 1.98722e-15 0)
(3 2.43028e-15 0)
(3 2.23533e-15 0)
(3 2.25682e-15 0)
(3 1.91561e-15 0)
(3 2.13784e-15 0)
(3 2.20719e-15 0)
(3 2.04018e-15 0)
(3 8.05585e-16 0)
(3 1.76413e-16 0)
(3 1.02301e-16 0)
(3 6.13639e-16 0)
(3 6.98251e-16 0)
(3 8.69156e-17 0)
(3 -1.10143e-15 0)
(3 -2.08595e-15 0)
(3 -1.70487e-15 0)
(3 -1.22652e-15 0)
(3 -7.94394e-16 0)
(3 -6.57934e-16 0)
(3 1.60754e-17 0)
(3 8.67686e-16 0)
(3 1.41068e-15 0)
(3 7.86599e-16 0)
(3 5.88949e-16 0)
(3 1.2429e-15 0)
(3 1.28024e-15 0)
(3 2.40584e-15 0)
(3 3.52273e-15 0)
(3 4.69742e-15 0)
(3 4.81061e-15 0)
(3 3.16517e-15 0)
(3 2.41337e-16 0)
(3 -1.61801e-15 0)
(3 -1.01848e-15 0)
(3 1.07159e-15 0)
(3 8.98686e-16 0)
(3 1.96265e-15 0)
(3 2.58297e-15 0)
(3 2.13585e-15 0)
(3 1.41167e-15 0)
(3 -2.05396e-15 0)
(3 -3.62111e-15 0)
(3 -2.37403e-15 0)
(3 -1.64169e-15 0)
(3 -6.42995e-16 0)
(3 -1.20807e-16 0)
(3 7.17322e-16 0)
(3 4.18022e-16 0)
(3 -1.5101e-16 0)
(3 -9.36564e-16 0)
(3 -7.70599e-16 0)
(3 3.77409e-17 0)
(3 -7.56106e-16 0)
(3 -1.1107e-15 0)
(3 -6.58109e-16 0)
(3 -5.18401e-16 0)
(3 -1.68297e-15 0)
(3 -2.81117e-15 0)
(3 -2.71045e-15 0)
(3 -2.35682e-15 0)
(3 -1.77491e-15 0)
(3 -1.1603e-15 0)
(3 -1.58447e-15 0)
(3 -2.24651e-15 0)
(3 -2.60145e-15 0)
(3 -2.22621e-15 0)
(3 -1.95624e-15 0)
(3 -5.21085e-16 0)
(3 8.46648e-16 0)
(3 -2.77175e-16 0)
(3 -1.63939e-15 0)
(3 -1.84231e-15 0)
(3 -1.44116e-15 0)
(3 -4.61859e-16 0)
(3 1.62228e-15 0)
(3 3.17618e-15 0)
(3 2.36324e-15 0)
(3 2.96053e-15 0)
(3 5.36168e-17 0)
(3 -2.87579e-17 0)
(3 -5.65647e-16 0)
(3 -5.93891e-16 0)
(3 -4.49182e-16 0)
(3 1.9691e-16 0)
(3 8.20153e-16 0)
(3 8.49254e-16 0)
(3 9.27931e-16 0)
(3 9.79712e-16 0)
(3 5.24441e-16 0)
(3 4.04418e-16 0)
(3 5.36682e-16 0)
(3 2.01572e-16 0)
(3 1.71355e-17 0)
(3 5.69641e-16 0)
(3 4.12106e-16 0)
(3 9.32963e-16 0)
(3 2.32652e-15 0)
(3 2.00341e-15 0)
(3 8.87813e-16 0)
(3 1.01977e-15 0)
(3 2.0172e-15 0)
(3 2.36944e-15 0)
(3 2.03295e-15 0)
(3 1.81038e-15 0)
(3 1.1609e-15 0)
(3 1.79309e-16 0)
(3 9.89496e-16 0)
(3 1.08977e-15 0)
(3 1.81091e-16 0)
(3 -1.15708e-15 0)
(3 -1.65363e-15 0)
(3 -1.61274e-15 0)
(3 -6.16694e-16 0)
(3 1.49881e-16 0)
(3 5.0079e-16 0)
(3 7.67358e-16 0)
(3 7.81103e-16 0)
(3 2.39742e-16 0)
(3 1.48116e-16 0)
(3 7.2521e-16 0)
(3 1.55921e-15 0)
(3 1.56589e-15 0)
(3 2.41313e-15 0)
(3 3.04552e-15 0)
(3 3.17899e-15 0)
(3 3.60113e-15 0)
(3 3.21696e-15 0)
(3 2.67608e-15 0)
(3 2.22219e-15 0)
(3 1.5978e-15 0)
(3 1.52344e-15 0)
(3 1.47751e-15 0)
(3 1.33858e-15 0)
(3 1.40442e-15 0)
(3 8.90485e-16 0)
(3 2.00465e-16 0)
(3 -1.07638e-15 0)
(3 -2.27375e-15 0)
(3 -1.07802e-15 0)
(3 -4.24911e-16 0)
(3 6.13377e-16 0)
(3 8.75669e-16 0)
(3 1.21318e-15 0)
(3 1.09655e-15 0)
(3 5.77256e-16 0)
(3 5.91328e-17 0)
(3 -1.05113e-17 0)
(3 3.30536e-16 0)
(3 -5.90811e-16 0)
(3 -1.10097e-15 0)
(3 -9.10985e-16 0)
(3 -5.19854e-16 0)
(3 -9.41391e-16 0)
(3 -1.97355e-15 0)
(3 -2.25907e-15 0)
(3 -1.40834e-15 0)
(3 -1.51106e-15 0)
(3 -1.9237e-15 0)
(3 -2.31705e-15 0)
(3 -2.44628e-15 0)
(3 -2.6469e-15 0)
(3 -2.73148e-15 0)
(3 -1.1533e-15 0)
(3 9.35696e-16 0)
(3 1.74943e-15 0)
(3 1.51937e-16 0)
(3 -7.59573e-16 0)
(3 -1.00306e-15 0)
(3 -4.80035e-16 0)
(3 -1.49591e-16 0)
(3 8.83152e-17 0)
(3 1.1174e-15 0)
(3 1.43712e-15 0)
(3 3.38575e-15 0)
(3 1.95476e-17 0)
(3 -3.00978e-16 0)
(3 -5.95124e-16 0)
(3 -3.68311e-16 0)
(3 2.3568e-16 0)
(3 1.19679e-15 0)
(3 1.2867e-15 0)
(3 1.89535e-15 0)
(3 1.22524e-15 0)
(3 8.17326e-17 0)
(3 -1.9751e-17 0)
(3 1.95484e-17 0)
(3 1.51751e-16 0)
(3 5.75456e-16 0)
(3 1.22579e-15 0)
(3 6.89638e-16 0)
(3 -2.7485e-16 0)
(3 -4.32887e-16 0)
(3 -2.8594e-16 0)
(3 2.65143e-16 0)
(3 5.30233e-16 0)
(3 1.0272e-15 0)
(3 1.37518e-15 0)
(3 1.38383e-15 0)
(3 1.2907e-15 0)
(3 9.92139e-16 0)
(3 1.08964e-16 0)
(3 -2.55916e-16 0)
(3 -3.27688e-16 0)
(3 -2.70836e-16 0)
(3 -5.25193e-16 0)
(3 -1.02021e-15 0)
(3 -9.9575e-16 0)
(3 -3.7161e-16 0)
(3 4.66477e-16 0)
(3 5.3664e-16 0)
(3 7.68175e-16 0)
(3 6.40427e-16 0)
(3 1.03327e-15 0)
(3 2.24994e-15 0)
(3 1.91197e-15 0)
(3 1.68419e-15 0)
(3 1.6415e-15 0)
(3 8.76885e-16 0)
(3 7.33555e-16 0)
(3 1.60245e-15 0)
(3 2.33096e-15 0)
(3 2.44e-15 0)
(3 2.19861e-15 0)
(3 1.73047e-15 0)
(3 1.81501e-15 0)
(3 1.98734e-15 0)
(3 1.8084e-15 0)
(3 1.73205e-15 0)
(3 1.83005e-15 0)
(3 6.36195e-16 0)
(3 7.61307e-16 0)
(3 -3.62274e-18 0)
(3 -1.48053e-15 0)
(3 -2.04962e-16 0)
(3 1.47864e-16 0)
(3 4.63617e-16 0)
(3 2.19847e-16 0)
(3 4.2884e-16 0)
(3 1.12668e-15 0)
(3 8.92778e-16 0)
(3 5.17701e-16 0)
(3 1.67067e-16 0)
(3 -9.13929e-16 0)
(3 -1.97933e-15 0)
(3 -2.59671e-15 0)
(3 -2.80749e-15 0)
(3 -2.82155e-15 0)
(3 -2.52999e-15 0)
(3 -2.16274e-15 0)
(3 -1.2858e-15 0)
(3 -1.12484e-15 0)
(3 -1.54174e-15 0)
(3 -2.03639e-15 0)
(3 -2.89586e-15 0)
(3 -2.85975e-15 0)
(3 -2.29618e-15 0)
(3 -2.50425e-15 0)
(3 -2.35385e-15 0)
(3 -1.50764e-15 0)
(3 -4.55792e-16 0)
(3 -2.24481e-16 0)
(3 6.03455e-17 0)
(3 5.13351e-16 0)
(3 5.90759e-16 0)
(3 1.38026e-15 0)
(3 1.1023e-15 0)
(3 1.17392e-16 0)
(3 7.21969e-16 0)
(3 1.7815e-15 0)
(3 5.89774e-15 0)
(3 4.6255e-17 0)
(3 2.53346e-16 0)
(3 5.32717e-16 0)
(3 8.93667e-16 0)
(3 8.82519e-16 0)
(3 8.0885e-16 0)
(3 6.46279e-16 0)
(3 4.2347e-16 0)
(3 5.15501e-16 0)
(3 7.27919e-16 0)
(3 6.4736e-16 0)
(3 -1.64291e-16 0)
(3 2.70698e-16 0)
(3 5.60235e-16 0)
(3 4.42366e-16 0)
(3 3.1877e-16 0)
(3 -1.78481e-16 0)
(3 -1.55692e-15 0)
(3 -1.94197e-15 0)
(3 -2.13806e-15 0)
(3 -6.8525e-17 0)
(3 3.04936e-16 0)
(3 4.0775e-16 0)
(3 3.40961e-16 0)
(3 4.78851e-17 0)
(3 -3.96233e-16 0)
(3 2.23184e-16 0)
(3 -2.97368e-16 0)
(3 -1.18231e-15 0)
(3 -9.73011e-16 0)
(3 5.7885e-18 0)
(3 1.14738e-16 0)
(3 3.08178e-16 0)
(3 4.04247e-16 0)
(3 5.17379e-16 0)
(3 8.52393e-16 0)
(3 1.4197e-15 0)
(3 9.42765e-16 0)
(3 9.66578e-16 0)
(3 2.79213e-16 0)
(3 4.63055e-16 0)
(3 3.88042e-16 0)
(3 -3.00247e-16 0)
(3 -1.25778e-15 0)
(3 -1.84053e-15 0)
(3 -1.42843e-15 0)
(3 1.17033e-16 0)
(3 4.73885e-17 0)
(3 -8.33737e-17 0)
(3 -7.38992e-16 0)
(3 -2.91775e-16 0)
(3 2.33107e-16 0)
(3 2.03267e-16 0)
(3 -5.86448e-18 0)
(3 -5.2482e-16 0)
(3 6.38346e-16 0)
(3 1.23971e-15 0)
(3 1.0244e-15 0)
(3 -6.79816e-16 0)
(3 1.6566e-15 0)
(3 1.68871e-15 0)
(3 1.12165e-15 0)
(3 2.98251e-16 0)
(3 1.79878e-16 0)
(3 3.42427e-16 0)
(3 3.89609e-16 0)
(3 3.82575e-17 0)
(3 -1.5368e-15 0)
(3 -2.65103e-15 0)
(3 -2.74842e-15 0)
(3 -2.49253e-15 0)
(3 -2.49894e-15 0)
(3 -2.48697e-15 0)
(3 -2.3692e-15 0)
(3 -2.23678e-15 0)
(3 -2.0066e-15 0)
(3 -1.29734e-15 0)
(3 -1.28677e-15 0)
(3 -1.7371e-15 0)
(3 -2.01601e-15 0)
(3 -2.05168e-15 0)
(3 -1.9046e-15 0)
(3 -1.38188e-15 0)
(3 -6.81299e-16 0)
(3 -2.77644e-16 0)
(3 -9.19891e-16 0)
(3 -2.96271e-15 0)
(3 -2.82656e-15 0)
(3 -8.9475e-16 0)
(3 -1.3447e-17 0)
(3 7.39523e-16 0)
(3 2.00512e-16 0)
(3 2.54676e-16 0)
(3 7.31773e-16 0)
(3 1.65631e-15 0)
(3 6.58232e-15 0)
(3 1.15851e-16 0)
(3 1.29236e-16 0)
(3 5.94115e-16 0)
(3 7.17056e-16 0)
(3 4.88894e-16 0)
(3 6.8981e-17 0)
(3 -2.19347e-16 0)
(3 -9.65751e-16 0)
(3 -5.87707e-16 0)
(3 -1.06578e-16 0)
(3 1.67632e-16 0)
(3 1.58242e-16 0)
(3 6.62255e-17 0)
(3 -4.2886e-16 0)
(3 -7.81445e-16 0)
(3 -5.27738e-16 0)
(3 -3.13286e-16 0)
(3 -8.68644e-16 0)
(3 -1.73011e-15 0)
(3 -1.89888e-15 0)
(3 -1.90331e-15 0)
(3 -1.85022e-15 0)
(3 -9.48108e-16 0)
(3 -5.40675e-16 0)
(3 -5.11949e-16 0)
(3 3.4245e-16 0)
(3 9.14373e-16 0)
(3 2.92472e-16 0)
(3 -7.6944e-16 0)
(3 -5.97166e-16 0)
(3 -8.23692e-17 0)
(3 2.55193e-16 0)
(3 9.60881e-16 0)
(3 1.02224e-15 0)
(3 4.9877e-16 0)
(3 4.15493e-16 0)
(3 6.77334e-16 0)
(3 5.77509e-16 0)
(3 3.88244e-16 0)
(3 -8.44041e-16 0)
(3 -7.5829e-16 0)
(3 -1.02246e-15 0)
(3 -2.18797e-15 0)
(3 -2.99467e-15 0)
(3 -2.88049e-15 0)
(3 -2.1034e-15 0)
(3 -9.5733e-16 0)
(3 -5.5702e-16 0)
(3 -2.58924e-16 0)
(3 -3.12354e-16 0)
(3 -6.50462e-16 0)
(3 -9.58865e-16 0)
(3 -1.48289e-15 0)
(3 -1.63809e-15 0)
(3 -1.97055e-15 0)
(3 -1.74537e-15 0)
(3 -1.57985e-15 0)
(3 2.5259e-17 0)
(3 2.11817e-15 0)
(3 3.18192e-15 0)
(3 3.65616e-15 0)
(3 3.15808e-15 0)
(3 2.19353e-15 0)
(3 1.02555e-15 0)
(3 -4.08216e-16 0)
(3 -1.05324e-16 0)
(3 2.19902e-16 0)
(3 -2.17492e-15 0)
(3 -4.29424e-15 0)
(3 -4.12093e-15 0)
(3 -3.35663e-15 0)
(3 -2.51846e-15 0)
(3 -1.87363e-15 0)
(3 -2.23697e-15 0)
(3 -3.10379e-15 0)
(3 -3.33242e-15 0)
(3 -1.86125e-15 0)
(3 -1.62911e-15 0)
(3 -1.4752e-15 0)
(3 -1.02206e-15 0)
(3 -8.68848e-16 0)
(3 -9.80594e-16 0)
(3 -4.16883e-16 0)
(3 -1.37961e-16 0)
(3 -1.91759e-15 0)
(3 -4.30957e-15 0)
(3 -3.14433e-15 0)
(3 -1.85288e-15 0)
(3 -1.1373e-15 0)
(3 -1.24163e-15 0)
(3 -1.41655e-15 0)
(3 -3.95186e-16 0)
(3 1.45758e-17 0)
(3 4.39922e-16 0)
(3 3.86569e-15 0)
(3 5.94546e-15 0)
(3 -5.90748e-17 0)
(3 3.35482e-17 0)
(3 -2.44881e-16 0)
(3 -4.80933e-16 0)
(3 -1.00482e-15 0)
(3 -1.52853e-15 0)
(3 -9.73905e-16 0)
(3 3.49394e-17 0)
(3 1.20566e-16 0)
(3 -3.28887e-16 0)
(3 -9.37061e-17 0)
(3 -1.52668e-16 0)
(3 -5.83527e-16 0)
(3 -8.95591e-16 0)
(3 -1.05543e-15 0)
(3 -1.5314e-15 0)
(3 -1.18791e-15 0)
(3 -1.09253e-15 0)
(3 -1.10618e-15 0)
(3 -9.98249e-16 0)
(3 -1.21879e-15 0)
(3 -1.70246e-15 0)
(3 -1.88419e-15 0)
(3 -1.2007e-15 0)
(3 -9.38704e-16 0)
(3 1.38475e-16 0)
(3 1.38922e-16 0)
(3 4.81056e-17 0)
(3 -6.30244e-16 0)
(3 -1.18584e-15 0)
(3 -1.27154e-15 0)
(3 -5.92675e-16 0)
(3 8.78161e-16 0)
(3 1.60897e-15 0)
(3 1.36428e-15 0)
(3 4.75269e-16 0)
(3 3.0439e-16 0)
(3 1.73866e-16 0)
(3 -9.14396e-16 0)
(3 -8.72729e-16 0)
(3 -8.33602e-16 0)
(3 -1.10808e-15 0)
(3 -1.54616e-15 0)
(3 -2.63248e-15 0)
(3 -2.60448e-15 0)
(3 -1.44923e-15 0)
(3 -9.23884e-16 0)
(3 -3.71313e-16 0)
(3 1.03558e-16 0)
(3 6.38039e-16 0)
(3 -2.22736e-16 0)
(3 -1.29657e-15 0)
(3 -1.68157e-15 0)
(3 -1.68163e-15 0)
(3 -6.42007e-16 0)
(3 -1.61983e-15 0)
(3 -2.12514e-15 0)
(3 3.18347e-16 0)
(3 3.02311e-15 0)
(3 4.17756e-15 0)
(3 4.95583e-15 0)
(3 3.66735e-15 0)
(3 1.61848e-15 0)
(3 5.57054e-16 0)
(3 -1.68884e-15 0)
(3 -2.43616e-15 0)
(3 -2.29186e-15 0)
(3 -2.05629e-15 0)
(3 -2.90337e-15 0)
(3 -3.23492e-15 0)
(3 -3.36545e-15 0)
(3 -2.77022e-15 0)
(3 -2.32715e-15 0)
(3 -1.99512e-15 0)
(3 -2.57153e-15 0)
(3 -2.39533e-15 0)
(3 -2.10714e-15 0)
(3 -1.56882e-15 0)
(3 -1.04196e-15 0)
(3 -8.79449e-16 0)
(3 -1.01148e-15 0)
(3 -1.17812e-15 0)
(3 -3.46844e-16 0)
(3 -4.80834e-16 0)
(3 -2.81549e-15 0)
(3 -3.54042e-15 0)
(3 -2.98608e-15 0)
(3 -2.6411e-15 0)
(3 -2.51196e-15 0)
(3 -3.32656e-15 0)
(3 -3.20381e-15 0)
(3 -8.16277e-16 0)
(3 5.38141e-16 0)
(3 1.87112e-15 0)
(3 3.9984e-15 0)
(3 4.80959e-15 0)
(3 -1.24454e-16 0)
(3 4.68465e-17 0)
(3 -3.59644e-16 0)
(3 -7.13435e-16 0)
(3 -3.52523e-16 0)
(3 -3.09257e-16 0)
(3 2.34263e-16 0)
(3 7.95659e-16 0)
(3 4.66133e-16 0)
(3 -8.78792e-16 0)
(3 -1.42679e-15 0)
(3 -8.4635e-16 0)
(3 -7.23745e-16 0)
(3 -5.72823e-16 0)
(3 -7.1938e-16 0)
(3 -9.17113e-16 0)
(3 -1.08131e-15 0)
(3 -1.25472e-15 0)
(3 -9.16897e-16 0)
(3 1.31586e-16 0)
(3 -7.86538e-16 0)
(3 -1.26944e-15 0)
(3 -1.72175e-15 0)
(3 -1.55484e-15 0)
(3 -9.21511e-16 0)
(3 -4.63803e-16 0)
(3 7.01086e-17 0)
(3 2.20048e-16 0)
(3 1.43583e-17 0)
(3 -1.09783e-15 0)
(3 -6.67242e-16 0)
(3 3.42069e-16 0)
(3 1.20331e-15 0)
(3 8.85615e-16 0)
(3 9.22971e-16 0)
(3 3.06363e-16 0)
(3 -4.92387e-16 0)
(3 -6.39969e-16 0)
(3 -1.06697e-15 0)
(3 -1.55107e-15 0)
(3 -1.58674e-15 0)
(3 -1.63447e-15 0)
(3 -1.11578e-15 0)
(3 -1.90383e-15 0)
(3 -2.30423e-15 0)
(3 -1.7172e-15 0)
(3 -1.17708e-15 0)
(3 -7.43107e-16 0)
(3 -7.90375e-16 0)
(3 -7.16069e-16 0)
(3 -1.12716e-15 0)
(3 -1.60417e-15 0)
(3 -1.21692e-15 0)
(3 -1.42732e-15 0)
(3 -9.07605e-16 0)
(3 3.31435e-17 0)
(3 7.99054e-16 0)
(3 -3.23983e-16 0)
(3 8.55561e-16 0)
(3 2.19424e-15 0)
(3 2.77963e-15 0)
(3 2.05593e-15 0)
(3 9.95494e-16 0)
(3 5.52724e-16 0)
(3 -2.01419e-15 0)
(3 -3.01627e-15 0)
(3 -3.12745e-15 0)
(3 -3.22969e-15 0)
(3 -1.37637e-15 0)
(3 -4.46535e-16 0)
(3 -4.23675e-16 0)
(3 -2.19381e-15 0)
(3 -2.32311e-15 0)
(3 -1.31075e-15 0)
(3 -1.02477e-15 0)
(3 -1.43315e-15 0)
(3 -1.51474e-15 0)
(3 -1.09104e-15 0)
(3 -1.49084e-15 0)
(3 -1.78008e-15 0)
(3 -1.88122e-15 0)
(3 -1.83556e-15 0)
(3 -2.04274e-15 0)
(3 -2.15426e-15 0)
(3 -2.44343e-15 0)
(3 -2.5645e-15 0)
(3 -2.54369e-15 0)
(3 -2.90249e-15 0)
(3 -3.26803e-15 0)
(3 -3.35658e-15 0)
(3 -2.23185e-15 0)
(3 -1.20233e-15 0)
(3 2.92371e-17 0)
(3 9.40138e-16 0)
(3 1.62606e-15 0)
(3 2.65587e-15 0)
(3 -2.00542e-16 0)
(3 -3.14832e-17 0)
(3 -9.05457e-17 0)
(3 -4.33409e-16 0)
(3 -4.61039e-17 0)
(3 2.01367e-16 0)
(3 2.80467e-16 0)
(3 2.22642e-17 0)
(3 -6.69157e-16 0)
(3 -6.50427e-16 0)
(3 -5.60478e-16 0)
(3 -5.7989e-16 0)
(3 -7.3186e-16 0)
(3 -3.64482e-16 0)
(3 -2.59589e-16 0)
(3 -8.39475e-17 0)
(3 -7.45048e-16 0)
(3 -9.03072e-16 0)
(3 -1.03823e-15 0)
(3 -8.61801e-16 0)
(3 -6.74047e-16 0)
(3 -2.46651e-16 0)
(3 -2.5219e-16 0)
(3 -1.1698e-15 0)
(3 -1.05624e-15 0)
(3 -1.33403e-15 0)
(3 -1.39937e-15 0)
(3 -8.07175e-16 0)
(3 -7.03551e-16 0)
(3 -1.05419e-15 0)
(3 1.61907e-16 0)
(3 4.59496e-16 0)
(3 -6.98958e-16 0)
(3 -1.34447e-15 0)
(3 -9.26533e-16 0)
(3 -3.0319e-16 0)
(3 -4.70134e-16 0)
(3 -6.4668e-16 0)
(3 3.8826e-16 0)
(3 6.75938e-16 0)
(3 -1.22772e-15 0)
(3 -2.27218e-15 0)
(3 -1.7857e-15 0)
(3 -5.62136e-16 0)
(3 -8.32675e-16 0)
(3 -8.09941e-16 0)
(3 -1.15874e-15 0)
(3 -1.56478e-15 0)
(3 -1.57154e-15 0)
(3 -1.71911e-15 0)
(3 -1.8488e-15 0)
(3 -2.31717e-15 0)
(3 -9.27242e-16 0)
(3 -6.41241e-16 0)
(3 -8.35187e-16 0)
(3 8.94022e-16 0)
(3 1.37396e-15 0)
(3 1.22804e-15 0)
(3 4.65541e-16 0)
(3 -1.74687e-16 0)
(3 -3.84059e-16 0)
(3 -4.33134e-16 0)
(3 -4.23473e-16 0)
(3 -3.6971e-16 0)
(3 -1.71797e-16 0)
(3 -5.43233e-16 0)
(3 -1.01334e-15 0)
(3 -1.35994e-15 0)
(3 -1.21559e-15 0)
(3 -7.26629e-16 0)
(3 -4.33408e-16 0)
(3 -6.85584e-16 0)
(3 -1.30939e-15 0)
(3 -1.83757e-15 0)
(3 -1.58907e-15 0)
(3 -1.21934e-15 0)
(3 -1.45607e-15 0)
(3 -1.33629e-15 0)
(3 -1.61461e-15 0)
(3 -2.53247e-15 0)
(3 -3.21252e-15 0)
(3 -3.31461e-15 0)
(3 -3.17864e-15 0)
(3 -3.35189e-15 0)
(3 -2.50621e-15 0)
(3 -1.75803e-15 0)
(3 -1.46525e-15 0)
(3 -1.30167e-15 0)
(3 -1.60824e-15 0)
(3 -7.56327e-16 0)
(3 2.69952e-16 0)
(3 6.02336e-16 0)
(3 2.14596e-16 0)
(3 7.984e-17 0)
(3 -1.25889e-16 0)
(3 7.96795e-16 0)
(3 -1.11963e-16 0)
(3 6.95854e-17 0)
(3 2.95985e-17 0)
(3 -3.07122e-16 0)
(3 -6.7221e-16 0)
(3 -8.88862e-16 0)
(3 -1.2606e-15 0)
(3 -1.29763e-15 0)
(3 -9.92615e-16 0)
(3 7.79971e-16 0)
(3 1.26585e-15 0)
(3 -2.60992e-17 0)
(3 -8.03384e-16 0)
(3 -7.06239e-16 0)
(3 -5.06625e-16 0)
(3 -5.49714e-16 0)
(3 -5.85056e-16 0)
(3 1.2473e-16 0)
(3 -1.67962e-16 0)
(3 -5.41418e-16 0)
(3 -3.82502e-16 0)
(3 1.76572e-16 0)
(3 -1.16964e-16 0)
(3 -6.11301e-16 0)
(3 -1.19415e-15 0)
(3 -1.53899e-15 0)
(3 -2.20929e-15 0)
(3 -1.8161e-15 0)
(3 -1.56117e-15 0)
(3 -1.42572e-15 0)
(3 -1.28851e-15 0)
(3 -7.0132e-16 0)
(3 -1.40339e-15 0)
(3 -1.23285e-15 0)
(3 -2.91263e-16 0)
(3 -3.23268e-16 0)
(3 -6.19464e-16 0)
(3 -6.42322e-16 0)
(3 -4.88853e-16 0)
(3 -1.24033e-15 0)
(3 -1.63345e-15 0)
(3 -1.48813e-15 0)
(3 2.47505e-16 0)
(3 2.37361e-15 0)
(3 2.86703e-15 0)
(3 1.82681e-15 0)
(3 -2.86516e-16 0)
(3 -7.74136e-16 0)
(3 -8.91726e-16 0)
(3 -1.08696e-15 0)
(3 -9.85445e-16 0)
(3 -8.85279e-16 0)
(3 4.58157e-18 0)
(3 5.34026e-16 0)
(3 1.08194e-15 0)
(3 1.366e-15 0)
(3 1.12824e-15 0)
(3 1.6845e-15 0)
(3 1.06148e-15 0)
(3 -1.21894e-15 0)
(3 -2.17335e-15 0)
(3 -2.71678e-15 0)
(3 -2.09113e-15 0)
(3 -9.41707e-16 0)
(3 1.34917e-16 0)
(3 6.61181e-17 0)
(3 3.13535e-16 0)
(3 -1.63832e-16 0)
(3 -1.07928e-15 0)
(3 -9.7748e-16 0)
(3 -6.10278e-16 0)
(3 2.47018e-16 0)
(3 4.96862e-16 0)
(3 -1.84623e-15 0)
(3 -1.03236e-15 0)
(3 -3.3312e-16 0)
(3 -3.62259e-16 0)
(3 -5.52339e-16 0)
(3 -4.62489e-16 0)
(3 -5.14631e-16 0)
(3 -4.19669e-16 0)
(3 -6.61446e-16 0)
(3 -1.18681e-15 0)
(3 -1.84126e-15 0)
(3 -1.96991e-15 0)
(3 -2.03985e-15 0)
(3 -1.09774e-15 0)
(3 -4.81322e-16 0)
(3 -4.97585e-16 0)
(3 -1.03712e-15 0)
(3 -9.37921e-16 0)
(3 -7.10411e-16 0)
(3 -9.80794e-16 0)
(3 -7.60527e-16 0)
(3 2.74735e-16 0)
(3 2.03391e-15 0)
(3 3.16862e-16 0)
(3 1.3372e-16 0)
(3 2.44618e-16 0)
(3 4.63033e-16 0)
(3 4.07396e-16 0)
(3 6.78814e-16 0)
(3 3.8125e-16 0)
(3 2.71823e-16 0)
(3 7.06493e-16 0)
(3 1.20841e-15 0)
(3 1.508e-15 0)
(3 8.89272e-16 0)
(3 9.40295e-17 0)
(3 -1.31948e-16 0)
(3 -7.68689e-17 0)
(3 -1.47081e-16 0)
(3 1.42429e-16 0)
(3 7.04469e-16 0)
(3 8.68148e-16 0)
(3 6.89128e-16 0)
(3 6.14878e-17 0)
(3 -4.14548e-16 0)
(3 -1.08334e-15 0)
(3 -5.60669e-16 0)
(3 -2.68601e-16 0)
(3 1.22608e-16 0)
(3 -7.07245e-16 0)
(3 -1.81181e-15 0)
(3 -1.93011e-15 0)
(3 -2.22021e-15 0)
(3 -2.49104e-15 0)
(3 -2.40401e-15 0)
(3 -1.61933e-15 0)
(3 -1.3534e-15 0)
(3 -9.47441e-16 0)
(3 -7.29334e-16 0)
(3 -6.69528e-16 0)
(3 -4.63854e-16 0)
(3 -5.13203e-16 0)
(3 -5.95928e-16 0)
(3 -6.87844e-16 0)
(3 -6.25972e-16 0)
(3 -6.36125e-16 0)
(3 -4.61086e-16 0)
(3 2.72595e-16 0)
(3 2.00528e-15 0)
(3 2.80202e-15 0)
(3 2.17711e-15 0)
(3 1.14876e-15 0)
(3 3.09454e-16 0)
(3 -6.39416e-16 0)
(3 -5.00609e-16 0)
(3 -3.75386e-16 0)
(3 -1.06643e-16 0)
(3 3.41098e-16 0)
(3 7.50522e-16 0)
(3 1.11202e-15 0)
(3 1.15824e-15 0)
(3 -5.87402e-16 0)
(3 -1.74584e-15 0)
(3 -2.27873e-15 0)
(3 -2.1658e-15 0)
(3 -1.61503e-15 0)
(3 -1.17905e-15 0)
(3 -2.32176e-16 0)
(3 3.79432e-17 0)
(3 2.08982e-17 0)
(3 2.48198e-16 0)
(3 2.82983e-16 0)
(3 4.0856e-16 0)
(3 6.29334e-16 0)
(3 4.10377e-16 0)
(3 1.02929e-15 0)
(3 3.75702e-16 0)
(3 7.35315e-18 0)
(3 3.59429e-16 0)
(3 9.69274e-16 0)
(3 7.2854e-16 0)
(3 7.56359e-16 0)
(3 1.7297e-15 0)
(3 1.70401e-15 0)
(3 1.1002e-15 0)
(3 -1.20063e-15 0)
(3 -3.05019e-15 0)
(3 -3.28973e-15 0)
(3 -3.16946e-15 0)
(3 -2.87154e-15 0)
(3 -1.96383e-15 0)
(3 -1.69813e-15 0)
(3 -1.90172e-15 0)
(3 -2.85772e-15 0)
(3 -2.93735e-15 0)
(3 -2.90845e-15 0)
(3 -2.38259e-15 0)
(3 -1.93745e-15 0)
(3 -1.73182e-15 0)
(3 7.52918e-17 0)
(3 2.6555e-17 0)
(3 5.38089e-16 0)
(3 1.36105e-15 0)
(3 1.58636e-15 0)
(3 1.30991e-15 0)
(3 1.62058e-15 0)
(3 2.24712e-15 0)
(3 2.53305e-15 0)
(3 2.25625e-15 0)
(3 2.16848e-15 0)
(3 1.94446e-15 0)
(3 5.65081e-16 0)
(3 -2.70971e-16 0)
(3 -7.77684e-16 0)
(3 -3.97265e-16 0)
(3 -5.18244e-16 0)
(3 -8.42507e-16 0)
(3 -6.69803e-16 0)
(3 -7.40138e-16 0)
(3 -9.19926e-16 0)
(3 -4.84504e-16 0)
(3 -4.99904e-19 0)
(3 8.60688e-16 0)
(3 1.41211e-15 0)
(3 1.13387e-15 0)
(3 5.57991e-16 0)
(3 -1.46767e-16 0)
(3 -7.56027e-16 0)
(3 -9.12965e-16 0)
(3 -8.06883e-16 0)
(3 -1.2232e-15 0)
(3 -1.09528e-15 0)
(3 -1.19659e-15 0)
(3 -1.77294e-15 0)
(3 -1.26218e-15 0)
(3 -3.94565e-16 0)
(3 2.20496e-16 0)
(3 6.33517e-16 0)
(3 6.29167e-16 0)
(3 2.26737e-16 0)
(3 8.02786e-17 0)
(3 -1.08368e-16 0)
(3 1.33946e-16 0)
(3 6.42729e-16 0)
(3 1.33884e-15 0)
(3 3.43955e-15 0)
(3 3.65136e-15 0)
(3 1.41583e-15 0)
(3 1.21516e-16 0)
(3 -1.11573e-15 0)
(3 -1.36519e-15 0)
(3 -1.12152e-15 0)
(3 -1.20579e-16 0)
(3 3.67095e-16 0)
(3 6.0894e-16 0)
(3 1.18087e-15 0)
(3 1.35726e-15 0)
(3 6.09215e-16 0)
(3 -1.02282e-15 0)
(3 -7.42817e-16 0)
(3 -4.34177e-16 0)
(3 -4.29295e-16 0)
(3 -7.94402e-16 0)
(3 -2.56343e-16 0)
(3 2.09467e-16 0)
(3 -4.63433e-17 0)
(3 4.14757e-16 0)
(3 1.68515e-15 0)
(3 1.91044e-15 0)
(3 1.92095e-15 0)
(3 1.63986e-15 0)
(3 1.44055e-15 0)
(3 1.24029e-15 0)
(3 4.28528e-16 0)
(3 -8.32065e-18 0)
(3 1.86853e-16 0)
(3 -1.11745e-16 0)
(3 -4.0412e-16 0)
(3 -3.09048e-16 0)
(3 1.37089e-17 0)
(3 -3.56249e-16 0)
(3 -2.25982e-15 0)
(3 -2.97662e-15 0)
(3 -2.45953e-15 0)
(3 -2.12096e-15 0)
(3 -1.69319e-15 0)
(3 -1.63346e-15 0)
(3 -1.65424e-15 0)
(3 -1.80601e-15 0)
(3 -2.46498e-15 0)
(3 -2.97585e-15 0)
(3 -3.07528e-15 0)
(3 -2.73877e-15 0)
(3 -3.17741e-15 0)
(3 -4.11423e-15 0)
(3 -1.47468e-16 0)
(3 -9.15065e-17 0)
(3 -2.68386e-17 0)
(3 2.9203e-17 0)
(3 -1.08865e-16 0)
(3 -1.21621e-16 0)
(3 2.08996e-16 0)
(3 8.82173e-16 0)
(3 1.08765e-15 0)
(3 1.50298e-15 0)
(3 1.21353e-15 0)
(3 4.63095e-16 0)
(3 8.53361e-17 0)
(3 7.76894e-17 0)
(3 -2.61629e-16 0)
(3 1.64721e-17 0)
(3 6.91916e-17 0)
(3 -5.20784e-16 0)
(3 -7.5083e-16 0)
(3 -1.55233e-15 0)
(3 1.15939e-16 0)
(3 1.42068e-15 0)
(3 2.86218e-15 0)
(3 3.45757e-15 0)
(3 3.2562e-15 0)
(3 1.92994e-15 0)
(3 1.68967e-15 0)
(3 1.99382e-15 0)
(3 1.23792e-15 0)
(3 7.6746e-16 0)
(3 7.20856e-16 0)
(3 4.89032e-16 0)
(3 3.28799e-16 0)
(3 3.20887e-16 0)
(3 3.35026e-16 0)
(3 2.64869e-16 0)
(3 -1.13274e-16 0)
(3 6.93721e-16 0)
(3 1.05554e-15 0)
(3 6.65309e-16 0)
(3 8.22723e-16 0)
(3 8.466e-16 0)
(3 7.93687e-16 0)
(3 1.18654e-15 0)
(3 2.38845e-15 0)
(3 3.04308e-15 0)
(3 2.51547e-15 0)
(3 1.20177e-15 0)
(3 1.07349e-15 0)
(3 1.31895e-15 0)
(3 4.23219e-16 0)
(3 -3.52311e-16 0)
(3 -2.61506e-17 0)
(3 4.64612e-16 0)
(3 5.8841e-16 0)
(3 8.44542e-16 0)
(3 1.22841e-15 0)
(3 1.19159e-15 0)
(3 8.90024e-16 0)
(3 -7.45803e-16 0)
(3 -1.09456e-15 0)
(3 -1.11352e-15 0)
(3 -6.52294e-16 0)
(3 -6.00918e-16 0)
(3 -1.47739e-15 0)
(3 -1.11952e-15 0)
(3 -7.28743e-16 0)
(3 2.0763e-16 0)
(3 7.8463e-16 0)
(3 8.35731e-16 0)
(3 8.21702e-16 0)
(3 9.87484e-16 0)
(3 3.78262e-16 0)
(3 1.21606e-16 0)
(3 2.12523e-16 0)
(3 1.40046e-15 0)
(3 1.41364e-15 0)
(3 1.73577e-15 0)
(3 1.81407e-15 0)
(3 5.64209e-16 0)
(3 1.53019e-16 0)
(3 -5.14103e-16 0)
(3 -1.66427e-15 0)
(3 -1.81891e-15 0)
(3 -2.0039e-15 0)
(3 -1.40308e-15 0)
(3 -1.12061e-15 0)
(3 -9.49673e-16 0)
(3 -1.47634e-15 0)
(3 -1.53598e-15 0)
(3 -2.70286e-15 0)
(3 -2.86974e-15 0)
(3 -2.65575e-15 0)
(3 -2.93159e-15 0)
(3 -2.60981e-15 0)
(3 -2.64121e-15 0)
(3 1.21404e-16 0)
(3 8.62531e-17 0)
(3 -6.06773e-16 0)
(3 -1.27534e-15 0)
(3 -5.6522e-16 0)
(3 7.06175e-16 0)
(3 1.16744e-15 0)
(3 1.04277e-15 0)
(3 4.53827e-16 0)
(3 -1.4408e-16 0)
(3 -2.27768e-16 0)
(3 -1.21302e-16 0)
(3 5.87066e-17 0)
(3 7.13877e-16 0)
(3 1.42853e-15 0)
(3 6.57042e-16 0)
(3 5.39976e-16 0)
(3 5.22148e-16 0)
(3 2.51833e-16 0)
(3 6.33443e-16 0)
(3 1.58813e-15 0)
(3 1.90164e-15 0)
(3 1.51224e-15 0)
(3 1.433e-15 0)
(3 4.48091e-16 0)
(3 -4.15472e-16 0)
(3 1.37407e-17 0)
(3 1.66023e-15 0)
(3 9.60217e-16 0)
(3 1.06748e-15 0)
(3 7.7441e-16 0)
(3 1.68662e-15 0)
(3 2.04768e-15 0)
(3 2.93249e-15 0)
(3 3.55557e-15 0)
(3 2.29094e-15 0)
(3 2.674e-16 0)
(3 -1.34426e-16 0)
(3 -7.44351e-16 0)
(3 -5.30916e-16 0)
(3 6.07107e-16 0)
(3 1.50034e-15 0)
(3 1.93034e-15 0)
(3 1.88847e-15 0)
(3 2.03406e-15 0)
(3 2.12733e-15 0)
(3 1.09552e-15 0)
(3 1.37549e-15 0)
(3 1.57249e-15 0)
(3 1.73509e-15 0)
(3 1.76376e-15 0)
(3 1.52479e-15 0)
(3 -2.45451e-16 0)
(3 -1.4771e-15 0)
(3 -1.43961e-15 0)
(3 -8.53645e-16 0)
(3 5.14781e-16 0)
(3 1.30186e-15 0)
(3 1.14816e-15 0)
(3 8.43753e-17 0)
(3 -9.14089e-16 0)
(3 -1.09974e-15 0)
(3 -1.39077e-15 0)
(3 -9.08196e-16 0)
(3 -9.95011e-16 0)
(3 -1.20134e-15 0)
(3 -1.36515e-15 0)
(3 -8.25301e-16 0)
(3 -9.88535e-16 0)
(3 -7.64395e-16 0)
(3 -2.9193e-16 0)
(3 -3.48903e-17 0)
(3 2.51877e-17 0)
(3 1.5513e-15 0)
(3 2.0233e-15 0)
(3 1.93788e-15 0)
(3 1.86561e-15 0)
(3 1.90228e-15 0)
(3 1.65529e-15 0)
(3 1.00326e-15 0)
(3 5.50622e-17 0)
(3 -8.06258e-16 0)
(3 -1.10418e-15 0)
(3 -1.51281e-15 0)
(3 -1.94596e-15 0)
(3 -1.34306e-15 0)
(3 -8.44834e-16 0)
(3 -4.16254e-17 0)
(3 -2.2669e-16 0)
(3 -8.71312e-16 0)
(3 -9.75749e-16 0)
(3 -5.27775e-16 0)
(3 -1.00356e-15 0)
(3 -1.63002e-15 0)
(3 -2.30938e-15 0)
(3 -2.31635e-15 0)
(3 1.80362e-16 0)
(3 8.30789e-17 0)
(3 -4.41233e-16 0)
(3 -5.08179e-16 0)
(3 1.07782e-16 0)
(3 3.40785e-16 0)
(3 6.00495e-16 0)
(3 7.06649e-16 0)
(3 1.96832e-16 0)
(3 -1.04664e-15 0)
(3 -2.09299e-15 0)
(3 -1.92287e-15 0)
(3 -9.19902e-16 0)
(3 -4.95945e-16 0)
(3 5.03108e-17 0)
(3 3.92523e-16 0)
(3 6.09387e-16 0)
(3 -4.82881e-16 0)
(3 -8.15345e-16 0)
(3 -4.32371e-16 0)
(3 -4.95542e-16 0)
(3 -7.00821e-16 0)
(3 -1.17445e-15 0)
(3 -1.41821e-15 0)
(3 -1.6236e-15 0)
(3 -1.02021e-15 0)
(3 -2.27565e-16 0)
(3 6.74921e-16 0)
(3 3.50198e-16 0)
(3 6.5385e-16 0)
(3 1.39701e-15 0)
(3 2.68113e-15 0)
(3 2.99177e-15 0)
(3 2.75907e-15 0)
(3 2.71728e-15 0)
(3 2.15057e-15 0)
(3 1.43552e-15 0)
(3 5.43357e-16 0)
(3 3.38495e-17 0)
(3 -3.33646e-16 0)
(3 7.74888e-16 0)
(3 2.06875e-15 0)
(3 2.45438e-15 0)
(3 2.54962e-15 0)
(3 2.07996e-15 0)
(3 2.58813e-15 0)
(3 2.30662e-15 0)
(3 1.51132e-15 0)
(3 2.7415e-16 0)
(3 4.21904e-16 0)
(3 7.39049e-16 0)
(3 1.11303e-15 0)
(3 3.33413e-16 0)