/*--------------------------------*- C++ -*----------------------------------*\
  =========                 |
  \\      /  F ield         | OpenFOAM: The Open Source CFD Toolbox
   \\    /   O peration     | Website:  https://openfoam.org
    \\  /    A nd           | Version:  7
     \\/     M anipulation  |
\*---------------------------------------------------------------------------*/
FoamFile
{
    version     2.0;
    format      ascii;
    class       volScalarField;
    location    "2.6";
    object      p;
}
// * * * * * * * * * * * * * * * * * * * * * * * * * * * * * * * * * * * * * //

dimensions      [1 -1 -2 0 0 0 0];

internalField   nonuniform List<scalar> 
18432
(
1
1
1
1
1
1
1
1
1
1
1
1
1
1
1
1
1
1
1
1
1
1
1
1
1
1
1
1
1
1
1
1
1
1
1
1
1
1
1
1
1
1
1
1
1
1
1
1
1
1
1
1
1
1
1
1
1
1
1
1
1
1
1
1
1
1
1
1
1
1
1
1
1
1
1
1
1
1
1
1
1
1
1
1
1
1
1
1
1
1
1
1
1
1
1
1
1
1
1
1
1
1
1
1
1
1
1
1
1
1
1
1
1
1
1
1
1
1
1
1
1
1
1
1
1
1
1
1
1
1
1
1
1
1
1
1
1
1
1
1
1
1
1
1
1
1
1
1
1
1
1
1
1
1
1
1
1
1
1
1
1
1
1
1
1
1
1
1
1
1
1
1
1
1
1
1
1
1
1
1
1
1
1
1
1
1
1
1
1
1
1
1
1
1
1
1
1
1
1
1
1
1
1
1
1
1
1
1
1
1
1
1
1
1
1
1
1
1
1
1
1
1
1
1
1
1
1
1
1
1
1
1
1
1
1
1
1
1
1
1
1
1
1
1
1
1
1
1
1
1
1
1
1
1
1
1
1
1
1
1
1
1
1
1
1
1
1
1
1
1
1
1
1
1
1
1
1
1
1
1
1
1
1
1
1
1
1
1
1
1
1
1
1
1
1
1
1
1
1
1
1
1
1
1
1
1
1
1
1
1
1
1
1
1
1
1
1
1
1
1
1
1
1
1
1
1
1
1
1
1
1
1
1
1
1
1
1
1
1
1
1
1
1
1
1
1
1
1
1
1
1
1
1
1
1
1
1
1
1
1
1
1
1
1
1
1
1
1
1
1
1
1
1
1
1
1
1
1
1
1
1
1
1
1
1
1
1
1
1
1
1
1
1
1
1
1
1
1
1
1
1
1
1
1
1
1
1
1
1
1
1
1
1
1
1
1
1
1
1
1
1
1
1
1
1
1
1
1
1
1
1
1
1
1
1
1
1
1
1
1
1
1
1
1
1
1
1
1
1
1
1
1
1
1
1
1
1
1
1
1
1
1
1
1
1
1
1
1
1
1
1
1
1
1
1
1
1
1
1
1
1
1
1
1
1
1
1
1
1
1
1
1
1
1
1
1
1
1
1
1
1
1
1
1
1
1
1
1
1
1
1
1
1
1
1
1
1
1
1
1
1
1
1
1
1
1
1
1
1
1
1
1
1
1
1
1
1
1
1
1
1
1
1
1
1
1
1
1
1
1
1
1
1
1
1
1
1
1
1
1
1
1
1
1
1
1
1
1
1
1
1
1
1
1
1
1
1
1
1
1
1
1
1
1
1
1
1
1
1
1
1
1
1
1
1
1
1
1
1
1
1
1
1
1
1
1
1
1
1
1
1
1
1
1
1
1
1
1
1
1
1
1
1
1
1
1
1
1
1
1
1
1
1
1
1
1
1
1
1
1
1
1
1
1
1
1
1
1
1
1
1
1
1
1
1
1
1
1
1
1
1
1
1
1
1
1
1
1
1
1
1
1
1
1
1
1
1
1
1
1
1
1
1
1
1
1
1
1
1
1
1
1
1
1
1
1
1
1
1
1
1
1
1
1
1
1
1
1
1
1
1
1
1
1
1
1
1
1
1
1
1
1
1
1
1
1
1
1
1
1
1
1
1
1
1
1
1
1
1
1
1
1
1
1
1
1
1
1
1
1
1
1
1
1
1
1
1
1
1
1
1
1
1
1
1
1
1
1
1
1
1
1
1
1
1
1
1
1
1
1
1
1
1
1
1
1
1
1
1
1
1
1
1
1
1
1
1
1
1
1
1
1
1
1
1
1
1
1
1
1
1
1
1
1
1
1
1
1
1
1
1
1
1
1
1
1
1
1
1
1
1
1
1
1
1
1
1
1
1
1
1
1
1
1
1
1
1
1
1
1
1
1
1
1
1
1
1
1
1
1
1
1
1
1
1
1
1
1
1
1
1
1
1
1
1
1
1
1
1
1
1
1
1
1
1
1
1
1
1
1
1
1
1
1
1
1
1
1
1
1
1
1
1
1
1
1
1
1
1
1
1
1
1
1
1
1
1
1
1
1
1
1
1
1
1
1
1
1
1
1
1
1
1
1
1
1
1
1
1
1
1
1
1
1
1
1
1
1
1
1
1
1
1
1
1
1
1
1
1
1
1
1
1
1
1
1
1
1
1
1
1
1
1
1
1
1
1
1
1
1
1
1
1
1
1
1
1
1
1
1
1
1
1
1
1
1
1
1
1
1
1
1
1
1
1
1
1
1
1
1
1
1
1
1
1
1
1
1
1
1
1
1
1
1
1
1
1
1
1
1
1
1
1
1
1
1
1
1
1
1
1
1
1
1
1
1
1
1
1
1
1
1
1
1
1
1
1
1
1
1
1
1
1
1
1
1
1
1
1
1
1
1
1
1
1
1
1
1
1
1
1
1
1
1
1
1
1
1
1
1
1
1
1
1
1
1
1
1
1
1
1
1
1
1
1
1
1
1
1
1
1
1
1
1
1
1
1
1
1
1
1
1
1
1
1
1
1
1
1
1
1
1
1
1
1
1
1
1
1
1
1
1
1
1
1
1
1
1
1
1
1
1
1
1
1
1
1
1
1
1
1
1
1
1
1
1
1
1
1
1
1
1
1
1
1
1
1
1
1
1
1
1
1
1
1
1
1
1
1
1
1
1
1
1
1
1
1
1
1
1
1
1
1
1
1
1
1
1
1
1
1
1
1
1
1
1
1
1
1
1
1
1
1
1
1
1
1
1
1
1
1
1
1
1
1
1
1
1
1
1
1
1
1
1
1
1
1
1
1
1
1
1
1
1
1
1
1
1
1
1
1
1
1
1
1
1
1
1
1
1
1
1
1
1
1
1
1
1
1
1
1
1
1
1
1
1
1
1
1
1
1
1
1
1
1
1
1
1
1
1
1
1
1
1
1
1
1
1
1
1
1
1
1
1
1
1
1
1
1
1
1
1
1
1
1
1
1
1
1
1
1
1
1
1
1
1
1
1
1
1
1
1
1
1
1
1
1
1
1
1
1
1
1
1
1
1
1
1
1
1
1
1
1
1
1
1
1
1
1
1
1
1
1
1
1
1
1
1
1
1
1
1
1
1
1
1
1
1
1
1
1
1
1
1
1
1
1
1
1
1
1
1
1
1
1
1
1
1
1
1
1
1
1
1
1
1
1
1
1
1
1
1
1
1
1
1
1
1
1
1
1
1
1
1
1
1
1
1
1
1
1
1
1
1
1
1
1
1
1
1
1
1
1
1
1
1
1
1
1
1
1
1
1
1
1
1
1
1
1
1
1
1
1
1
1
1
1
1
1
1
1
1
1
1
1
1
1
1
1
1
1
1
1
1
1
1
1
1
1
1
1
1
1
1
1
1
1
1
1
1
1
1
1
1
1
1
1
1
1
1
1
1
1
1
1
1
1
1
1
1
1
1
1
1
1
1
1
1
1
1
1
1
1
1
1
1
1
1
1
1
1
1
1
1
1
1
1
1
1
1
1
1
1
1
1
1
1
1
1
1
1
1
1
1
1
1
1
1
1
1
1
1
1
1
1
1
1
1
1
1
1
1
1
1
1
1
1
1
1
1
1
1
1
1
1
1
1
1
1
1
1
1
1
1
1
1
1
1
1
1
1
1
1
1
1
1
1
1
1
1
1
1
1
1
1
1
1
1
1
1
1
1
1
1
1
1
1
1
1
1
1
1
1
1
1
1
1
1
1
1
1
1
1
1
1
1
1
1
1
1
1
1
1
1
1
1
1
1
1
1
1
1
1
1
1
1
1
1
1
1
1
1
1
1
1
1
1
1
1
1
1
1
1
1
1
1
1
1
1
1
1
1
1
1
1
1
1
1
1
1
1
1
1
1
1
1
1
1
1
1
1
1
1
1
1
1
1
1
1
1
1
1
1
1
1
1
1
1
1
1
1
1
1
1
1
1
1
1
1
1
1
1
1
1
1
1
1
1
1
1
1
1
1
1
1
1
1
1
1
1
1
1
1
1
1
1
1
1
1
1
1
1
1
1
1
1
1
1
1
1
1
1
1
1
1
1
1
1
1
1
1
1
1
1
1
1
1
1
1
1
1
1
1
1
1
1
1
1
1
1
1
1
1
1
1
1
1
1
1
1
1
1
1
1
1
1
1
1
1
1
1
1
1
1
1
1
1
1
1
1
1
1
1
1
1
1
1
1
1
1
1
1
1
1
1
1
1
1
1
1
1
1
1
1
1
1
1
1
1
1
1
1
1
1
1
1
1
1
1
1
1
1
1
1
1
1
1
1
1
1
1
1
1
1
1
1
1
1
1
1
1
1
1
1
1
1
1
1
1
1
1
1
1
1
1
1
1
1
1
1
1
1
1
1
1
1
1
1
1
1
1
1
1
1
1
1
1
1
1
1
1
1
1
1
1
1
1
1
1
1
1
1
1
1
1
1
1
1
1
1
1
1
1
1
1
1
1
1
1
1
1
1
1
1
1
1
1
1
1
1
1
1
1
1
1
1
1
1
1
1
1
1
1
1
1
1
1
1
1
1
1
1
1
1
1
1
1
1
1
1
1
1
1
1
1
1
1
1
1
1
1
1
1
1
1
1
1
1
1
1
1
1
1
1
1
1
1
1
1
1
1
1
1
1
1
1
1
1
1
1
1
1
1
1
1
1
1
1
1
1
1
1
1
1
1
1
1
1
1
1
1
1
1
1
1
1
1
1
1
1
1
1
1
1
1
1
1
1
1
1
1
1
1
1
1
1
1
1
1
1
1
1
1
1
1
1
1
1
1
1
1
1
1
1
1
1
1
1
1
1
1
1
1
1
1
1
1
1
1
1
1
1
1
1
1
1
1
1
1
1
1
1
1
1
1
1
1
1
1
1
1
1
1
1
1
1
1
1
1
1
1
1
1
1
1
1
1
1
1
1
1
1
1
1
1
1
1
1
1
1
1
1
1
1
1
1
1
1
1
1
1
1
1
1
1
1
1
1
1
1
1
1
1
1
1
1
1
1
1
1
1
1
1
1
1
1
1
1
1
1
1
1
1
1
1
1
1
1
1
1
1
1
1
1
1
1
1
1
1
1
1
1
1
1
1
1
1
1
1
1
1
1
1
1
1
1
1
1
1
1
1
1
1
1
1
1
1
1
1
1
1
1
1
1
1
1
1
1
1
1
1
1
1
1
1
1
1
1
1
1
1
1
1
1
1
1
1
1
1
1
1
1
1
1
1
1
1
1
1
1
1
1
1
1
1
1
1
1
1
1
1
1
1
1
1
1
1
1
1
1
1
1
1
1
1
1
1
1
1
1
1
1
1
1
1
1
1
1
1
1
1
1
1
1
1
1
1
1
1
1
1
1
1
1
1
1
1
1
1
1
1
1
1
1
1
1
1
1
1
1
1
1
1
1
1
1
1
1
1
1
1
1
1
1
1
1
1
1
1
1
1
1
1
1
1
1
1
1
1
1
1
1
1
1
1
1
1
1
1
1
1
1
1
1
1
1
1
1
1
1
1
1
1
1
1
1
1
1
1
1
1
1
1
1
1
1
1
1
1
1
1
1
1
1
1
1
1
1
1
1
1
1
1
1
1
1
1
1
1
1
1
1
1
1
1
1
1
1
1
1
1
1
1
1
1
1
1
1
1
1
1
1
1
1
1
1
1
1
1
1
1
1
1
1
1
1
1
1
1
1
1
1
1
1
1
1
1
1
1
1
1
1
1
1
1
1
1
1
1
1
1
1
1
1
1
1
1
1
1
1
1
1
1
1
1
1
1
1
1
1
1
1
1
1
1
1
1
1
1
1
1
1
1
1
1
1
1
1
1
1
1
1
1
1
1
1
1
1
1
1
1
1
1
1
1
1
1
1
1
1
1
1
1
1
1
1
1
1
1
1
1
1
1
1
1
1
1
1
1
1
1
1
1
1
1
1
1
1
1
1
1
1
1
1
1
1
1
1
1
1
1
1
1
1
1
1
1
1
1
1
1
1
1
1
1
1
1
1
1
1
1
1
1
1
1
1
1
1
1
1
1
1
1
1
1
1
1
1
1
1
1
1
1
1
1
1
1
1
1
1
1
1
1
1
1
1
1
1
1
1
1
1
1
1
1
1
1
1
1
1
1
1
1
1
1
1
1
1
1
1
1
1
1
1
1
1
1
1
1
1
1
1
1
1
1
1
1
1
1
1
1
1
1
1
1
1
1
1
1
1
1
1
1
1
1
1
1
1
1
1
1
1
1
1
1
1
1
1
1
1
1
1
1
1
1
1
1
1
1
1
1
1
1
1
1
1
1
1
1
1
1
1
1
1
1
1
1
1
1
1
1
1
1
1
1
1
1
1
1
1
1
1
1
1
1
1
1
1
1
1
1
1
1
1
1
1
1
1
1
1
1
1
1
1
1
1
1
1
1
1
1
1
1
1
1
1
1
1
1
1
1
1
1
1
1
1
1
1
1
1
1
1
1
1
1
1
1
1
1
1
1
1
1
1
1
1
1
1
1
1
1
1
1
1
1
1
1
1
1
1
1
1
1
1
1
1
1
1
1
1
1
1
1
1
1
1
1
1
1
1
1
1
1
1
1
1
1
1
1
1
1
1
1
1
1
1
1
1
1
1
1
1
1
1
1
1
1
1
1
1
1
1
1
1
1
1
1
1
1
1
1
1
1
1
1
1
1
1
1
1
1
1
1
1
1
1
1
1
1
1
1
1
1
1
1
1
1
1
1
1
1
1
1
1
1
1
1
1
1
1
1
1
1
1
1
1
1
1
1
1
1
1
1
1
1
1
1
1
1
1
1
1
1
1
1
1
1
1
1
1
1
1
1
1
1
1
1
1
1
1
1
1
1
1
1
1
1
1
1
1
1
1
1
1
1
1
1
1
1
1
1
1
1
1
1
1
1
1
1
1
1
1
1.29093
1.743
2.33919
2.91207
3.51356
4.20517
4.66561
5.08126
5.33722
5.25969
4.95919
4.48385
4.05348
3.76783
3.66537
3.5875
3.56563
3.59227
3.62744
3.65746
3.6876
3.70928
3.72901
3.74587
3.75142
3.75376
3.75544
3.76028
3.76252
3.76107
3.7597
3.76326
3.77473
3.78956
3.79701
3.79702
3.79459
3.78798
3.77864
3.77098
3.76898
3.76903
3.76977
3.77127
3.77223
3.77254
3.77166
3.76778
1.00247
1.01714
1.06434
1.2057
1.4138
1.75973
2.22429
2.75502
3.32074
3.71614
3.92551
4.03455
4.02341
3.95122
3.85071
3.77911
3.7258
3.71153
3.67543
3.66474
3.67419
3.69591
3.71986
3.74624
3.76079
3.76623
3.76737
3.76315
3.76284
3.76282
3.76296
3.76569
3.76989
3.77382
3.7774
3.77787
3.77583
3.77205
3.76837
3.76754
3.76796
3.76904
3.77207
3.77717
3.77901
3.77912
3.77765
3.77469
1
0.999981
1.00001
1.00009
1.00146
1.01277
1.06408
1.21873
1.6107
2.33339
3.34407
3.9117
4.29371
4.32162
4.25992
4.12967
3.96232
3.75796
3.65788
3.65127
3.66329
3.6809
3.7048
3.73923
3.7634
3.77133
3.7746
3.77544
3.77462
3.7777
3.7806
3.78284
3.78219
3.77931
3.7758
3.77143
3.76618
3.76174
3.75958
3.75958
3.76054
3.76314
3.76912
3.77674
3.78073
3.78139
3.781
3.78126
1
1
1
1
0.999999
0.999983
1.00006
1.00008
1.00588
1.07008
1.41262
2.14699
3.13028
3.92434
4.02465
4.0228
3.98318
3.88462
3.80456
3.74805
3.72389
3.69868
3.68547
3.6927
3.70734
3.72458
3.74254
3.75485
3.76443
3.77107
3.77714
3.7816
3.78264
3.78219
3.78042
3.77598
3.77129
3.76829
3.76632
3.7659
3.76723
3.77038
3.77521
3.77965
3.78065
3.77886
3.77643
3.77463
1
1
1
1
1
1
1
1
1
0.99993
1.00174
1.04806
1.28257
2.00991
2.84071
3.66315
4.03802
4.04893
3.99339
3.9291
3.82049
3.74046
3.70647
3.68382
3.6793
3.68936
3.7018
3.71527
3.73026
3.74215
3.751
3.7579
3.7668
3.773
3.77419
3.77426
3.77402
3.77336
3.77271
3.77327
3.77592
3.78045
3.78461
3.7863
3.78494
3.78219
3.77704
3.77346
1
1
1
1
1
1
1
1
1
0.999997
0.999998
0.999955
1.00069
1.03049
1.22947
1.78504
2.71767
3.38463
3.91057
3.93608
3.91122
3.84189
3.80127
3.7682
3.73751
3.70845
3.69837
3.69854
3.70791
3.73163
3.75032
3.76303
3.7719
3.77517
3.77548
3.7754
3.7751
3.77334
3.77152
3.77142
3.77352
3.7776
3.77943
3.77767
3.77445
3.77041
3.76462
3.76352
1
1
1
1
1
1
1
1
1
1
1
0.999997
0.999998
0.999963
1.00059
1.01596
1.20248
1.67453
2.57592
3.22446
3.64724
3.85827
3.85755
3.84829
3.80283
3.76203
3.74024
3.7253
3.72318
3.73052
3.74677
3.76911
3.78002
3.78101
3.77931
3.778
3.77656
3.7732
3.76966
3.76804
3.76831
3.77256
3.77418
3.77267
3.76977
3.76729
3.7644
3.76551
1
1
1
1
1
1
1
1
1
1
1
1
1
0.999997
0.999998
0.999973
1.00067
1.0134
1.13918
1.62265
2.35053
3.23734
3.5174
3.65324
3.70299
3.73869
3.74537
3.72539
3.71951
3.72674
3.73746
3.74898
3.76019
3.77166
3.77355
3.77156
3.76882
3.76716
3.76662
3.76774
3.77352
3.77817
3.77875
3.77806
3.77642
3.77429
3.7726
3.77289
1
1
1
1
1
1
1
1
1
1
1
1
1
1
1
0.999998
0.999998
0.999982
1.00031
1.01427
1.10688
1.55263
2.28337
3.10649
3.5601
3.63304
3.70412
3.69694
3.69255
3.70571
3.71084
3.71637
3.72614
3.73855
3.74848
3.75595
3.75991
3.76362
3.76687
3.77053
3.77616
3.77915
3.78004
3.78109
3.78043
3.77693
3.77452
3.77415
1
1
1
1
1
1
1
1
1
1
1
1
1
1
1
1
1
0.999998
0.999998
0.999985
1.00023
1.01208
1.11718
1.47921
2.24112
2.96265
3.5331
3.69169
3.70959
3.72257
3.72652
3.7193
3.71736
3.7216
3.73034
3.73978
3.74853
3.75686
3.76413
3.77107
3.77564
3.77585
3.77643
3.77856
3.77855
3.77535
3.77358
3.77273
1
1
1
1
1
1
1
1
1
1
1
1
1
1
1
1
1
1
1
0.999998
0.999999
0.999986
1.0004
1.00856
1.12295
1.46908
2.22512
2.92166
3.4438
3.69108
3.75806
3.75717
3.75762
3.7563
3.75203
3.75649
3.76421
3.77104
3.77985
3.78581
3.78706
3.78346
3.77987
3.77773
3.77442
3.7701
3.76793
3.76655
1
1
1
1
1
1
1
1
1
1
1
1
1
1
1
1
1
1
1
1
1
0.999998
0.999998
0.999987
1.00063
1.0097
1.10969
1.5233
2.24687
3.01112
3.38205
3.6115
3.72021
3.7431
3.73928
3.75596
3.76724
3.7722
3.77982
3.78414
3.78608
3.78522
3.78271
3.78168
3.77928
3.77573
3.77384
3.77307
1
1
1
1
1
1
1
1
1
1
1
1
1
1
1
1
1
1
1
1
1
1
1
0.999998
0.999999
0.99999
1.00059
1.01577
1.11538
1.57582
2.29181
3.17144
3.48054
3.58905
3.64111
3.69699
3.71981
3.7347
3.74877
3.76139
3.76941
3.77341
3.77249
3.77094
3.76983
3.77006
3.77234
3.77438
1
1
1
1
1
1
1
1
1
1
1
1
1
1
1
1
1
1
1
1
1
1
1
1
1
0.999999
0.999999
0.999998
1.00069
1.0231
1.15061
1.65948
2.46076
3.22508
3.63292
3.68291
3.70796
3.72153
3.73071
3.74364
3.75198
3.75317
3.75319
3.75667
3.76015
3.764
3.76735
3.7705
1
1
1
1
1
1
1
1
1
1
1
1
1
1
1
1
1
1
1
1
1
1
1
1
1
1
1
1
0.999998
1.00003
1.00135
1.03143
1.2345
1.81771
2.6728
3.33351
3.68387
3.7742
3.77779
3.78229
3.78054
3.77516
3.76764
3.76972
3.77319
3.77633
3.77734
3.77825
1
1
1
1
1
1
1
1
1
1
1
1
1
1
1
1
1
1
1
1
1
1
1
1
1
1
1
1
1
1
0.999998
1.00009
1.00359
1.053
1.3761
2.09082
2.93304
3.3989
3.66434
3.75998
3.76072
3.76784
3.78134
3.78536
3.78827
3.79009
3.78949
3.78816
1
1
1
1
1
1
1
1
1
1
1
1
1
1
1
1
1
1
1
1
1
1
1
1
1
1
1
1
1
1
1
1
0.999996
1.00029
1.01088
1.10309
1.58037
2.42621
3.31764
3.53798
3.62374
3.68812
3.72582
3.74496
3.75944
3.77183
3.77929
3.7823
1
1
1
1
1
1
1
1
1
1
1
1
1
1
1
1
1
1
1
1
1
1
1
1
1
1
1
1
1
1
1
1
0.999999
0.999999
1
1.00108
1.03185
1.22462
1.92339
2.82291
3.52273
3.68688
3.7203
3.73349
3.74189
3.7531
3.76818
3.77188
1
1
1
1
1
1
1
1
1
1
1
1
1
1
1
1
1
1
1
1
1
1
1
1
1
1
1
1
1
1
1
1
1
1
1
0.999998
1.00013
1.0047
1.09002
1.47511
2.39686
3.21151
3.6608
3.79321
3.79792
3.79577
3.79655
3.79183
1
1
1
1
1
1
1
1
1
1
1
1
1
1
1
1
1
1
1
1
1
1
1
1
1
1
1
1
1
1
1
1
1
1
1
1
0.999999
1
1.00107
1.02123
1.25933
1.95972
2.95577
3.41818
3.65172
3.77809
3.7781
3.77875
1
1
1
1
1
1
1
1
1
1
1
1
1
1
1
1
1
1
1
1
1
1
1
1
1
1
1
1
1
1
1
1
1
1
1
1
1
1
0.999999
1.00011
1.00791
1.09401
1.60497
2.58267
3.45394
3.61914
3.67354
3.69784
1
1
1
1
1
1
1
1
1
1
1
1
1
1
1
1
1
1
1
1
1
1
1
1
1
1
1
1
1
1
1
1
1
1
1
1
1
1
1
1
1.00001
1.00143
1.04315
1.34329
2.2321
3.203
3.6861
3.73584
1
1
1
1
1
1
1
1
1
1
1
1
1
1
1
1
1
1
1
1
1
1
1
1
1
1
1
1
1
1
1
1
1
1
1
1
1
1
1
1
1
1
1.00041
1.01519
1.2045
1.92104
2.8717
3.50936
1
1
1
1
1
1
1
1
1
1
1
1
1
1
1
1
1
1
1
1
1
1
1
1
1
1
1
1
1
1
1
1
1
1
1
1
1
1
1
1
1
1
1
1.0001
1.00607
1.09917
1.69787
2.69398
1
1
1
1
1
1
1
1
1
1
1
1
1
1
1
1
1
1
1
1
1
1
1
1
1
1
1
1
1
1
1
1
1
1
1
1
1
1
1
1
1
1
1
1
1.00002
1.0021
1.07459
1.42666
1
1
1
1
1
1
1
1
1
1
1
1
1
1
1
1
1
1
1
1
1
1
1
1
1
1
1
1
1
1
1
1
1
1
1
1
1
1
1
1
1
1
1
1
1
1
1.0016
1.01647
1
1
1
1
1
1
1
1
1
1
1
1
1
1
1
1
1
1
1
1
1
1
1
1
1
1
1
1
1
1
1
1
1
1
1
1
1
1
1
1
1
1
1
1
1
1
1.00001
0.999835
1
1
1
1
1
1
1
1
1
1
1
1
1
1
1
1
1
1
1
1
1
1
1
1
1
1
1
1
1
1
1
1
1
1
1
1
1
1
1
1
1
1
1
1
1
1
1
0.999939
1
1
1
1
1
1
1
1
1
1
1
1
1
1
1
1
1
1
1
1
1
1
1
1
1
1
1
1
1
1
1
1
1
1
1
1
1
1
1
1
1
1
1
1
1
1
1
0.999991
1
1
1
1
1
1
1
1
1
1
1
1
1
1
1
1
1
1
1
1
1
1
1
1
1
1
1
1
1
1
1
1
1
1
1
1
1
1
1
1
1
1
1
1
1
1
1
1
1
1
1
1
1
1
1
1
1
1
1
1
1
1
1
1
1
1
1
1
1
1
1
1
1
1
1
1
1
1
1
1
1
1
1
1
1
1
1
1
1
1
1
1
1
1
1
1
1
1
1
1
1
1
1
1
1
1
1
1
1
1
1
1
1
1
1
1
1
1
1
1
1
1
1
1
1
1
1
1
1
1
1
1
1
1
1
1
1
1
1
1
1
1
1
1
1
1
1
1
1
1
1
1
1
1
1
1
1
1
1
1
1
1
1
1
1
1
1
1
1
1
1
1
1
1
1
1
1
1
1
1
1
1
1
1
1
1
1
1
1
1
1
1
1
1
1
1
1
1
1
1
1
1
1
1
1
1
1
1
1
1
1
1
1
1
1
1
1
1
1
1
1
1
1
1
1
1
1
1
1
1
1
1
1
1
1
1
1
1
1
1
1
1
1
1
1
1
1
1
1
1
1
1
1
1
1
1
1
1
1
1
1
1
1
1
1
1
1
1
1
1
1
1
1
1
1
1
1
1
1
1
1
1
1
1
1
1
1
1
1
1
1
1
1
1
1
1
1
1
1
1
1
1
1
1
1
1
1
1
1
1
1
1
1
1
1
1
1
1
1
1
1
1
1
1
1
1
1
1
1
1
1
1
1
1
1
0.999991
1
1
1
1
1
1
1
1
1
1
1
1
1
1
1
1
1
1
1
1
1
1
1
1
1
1
1
1
1
1
1
1
1
1
1
1
1
1
1
1
1
1
1
1
1
1
1
0.999939
1
1
1
1
1
1
1
1
1
1
1
1
1
1
1
1
1
1
1
1
1
1
1
1
1
1
1
1
1
1
1
1
1
1
1
1
1
1
1
1
1
1
1
1
1
1
1.00001
0.999835
1
1
1
1
1
1
1
1
1
1
1
1
1
1
1
1
1
1
1
1
1
1
1
1
1
1
1
1
1
1
1
1
1
1
1
1
1
1
1
1
1
1
1
1
1
1
1.00159
1.01653
1
1
1
1
1
1
1
1
1
1
1
1
1
1
1
1
1
1
1
1
1
1
1
1
1
1
1
1
1
1
1
1
1
1
1
1
1
1
1
1
1
1
1
1
1.00002
1.0021
1.07445
1.42674
1
1
1
1
1
1
1
1
1
1
1
1
1
1
1
1
1
1
1
1
1
1
1
1
1
1
1
1
1
1
1
1
1
1
1
1
1
1
1
1
1
1
1
1.0001
1.00606
1.09916
1.69728
2.69544
1
1
1
1
1
1
1
1
1
1
1
1
1
1
1
1
1
1
1
1
1
1
1
1
1
1
1
1
1
1
1
1
1
1
1
1
1
1
1
1
1
1
1.00041
1.01519
1.20449
1.92045
2.87152
3.51111
1
1
1
1
1
1
1
1
1
1
1
1
1
1
1
1
1
1
1
1
1
1
1
1
1
1
1
1
1
1
1
1
1
1
1
1
1
1
1
1
1.00001
1.00143
1.04314
1.3434
2.23231
3.20211
3.68636
3.73717
1
1
1
1
1
1
1
1
1
1
1
1
1
1
1
1
1
1
1
1
1
1
1
1
1
1
1
1
1
1
1
1
1
1
1
1
1
1
0.999999
1.00011
1.00791
1.09399
1.60493
2.58297
3.45398
3.61879
3.67335
3.69823
1
1
1
1
1
1
1
1
1
1
1
1
1
1
1
1
1
1
1
1
1
1
1
1
1
1
1
1
1
1
1
1
1
1
1
1
0.999999
1
1.00107
1.02123
1.25935
1.95955
2.95601
3.41822
3.65147
3.77798
3.77801
3.77884
1
1
1
1
1
1
1
1
1
1
1
1
1
1
1
1
1
1
1
1
1
1
1
1
1
1
1
1
1
1
1
1
1
1
1
0.999998
1.00013
1.0047
1.09001
1.47513
2.39685
3.21144
3.66092
3.79318
3.79786
3.79572
3.79651
3.79189
1
1
1
1
1
1
1
1
1
1
1
1
1
1
1
1
1
1
1
1
1
1
1
1
1
1
1
1
1
1
1
1
0.999999
0.999999
1
1.00108
1.03185
1.22462
1.92339
2.82292
3.52273
3.68691
3.72028
3.73347
3.74189
3.75308
3.76814
3.77187
1
1
1
1
1
1
1
1
1
1
1
1
1
1
1
1
1
1
1
1
1
1
1
1
1
1
1
1
1
1
1
1
0.999996
1.00029
1.01088
1.10309
1.58037
2.42619
3.31768
3.53797
3.62374
3.68813
3.72582
3.74494
3.75942
3.77182
3.77929
3.7823
1
1
1
1
1
1
1
1
1
1
1
1
1
1
1
1
1
1
1
1
1
1
1
1
1
1
1
1
1
1
0.999998
1.00009
1.00359
1.053
1.37609
2.09083
2.93303
3.3989
3.66435
3.75997
3.76072
3.76784
3.78134
3.78535
3.78826
3.79009
3.7895
3.78817
1
1
1
1
1
1
1
1
1
1
1
1
1
1
1
1
1
1
1
1
1
1
1
1
1
1
1
1
0.999998
1.00003
1.00135
1.03143
1.2345
1.81771
2.6728
3.33352
3.68387
3.77419
3.77779
3.78229
3.78054
3.77516
3.76764
3.76971
3.77318
3.77633
3.77735
3.77826
1
1
1
1
1
1
1
1
1
1
1
1
1
1
1
1
1
1
1
1
1
1
1
1
1
0.999999
0.999999
0.999998
1.00069
1.0231
1.15061
1.65948
2.46076
3.22507
3.63292
3.68291
3.70796
3.72153
3.73071
3.74364
3.75198
3.75317
3.75319
3.75667
3.76015
3.764
3.76735
3.7705
1
1
1
1
1
1
1
1
1
1
1
1
1
1
1
1
1
1
1
1
1
1
1
0.999998
0.999999
0.99999
1.00059
1.01577
1.11538
1.57582
2.29181
3.17144
3.48054
3.58905
3.64111
3.69699
3.71981
3.7347
3.74877
3.76139
3.76941
3.77341
3.77249
3.77094
3.76983
3.77006
3.77235
3.77438
1
1
1
1
1
1
1
1
1
1
1
1
1
1
1
1
1
1
1
1
1
0.999998
0.999998
0.999987
1.00063
1.0097
1.10969
1.5233
2.24687
3.01112
3.38205
3.6115
3.72021
3.7431
3.73928
3.75596
3.76724
3.7722
3.77982
3.78414
3.78608
3.78522
3.78271
3.78168
3.77928
3.77573
3.77384
3.77307
1
1
1
1
1
1
1
1
1
1
1
1
1
1
1
1
1
1
1
0.999998
0.999999
0.999986
1.0004
1.00856
1.12295
1.46908
2.22512
2.92166
3.44379
3.69107
3.75806
3.75717
3.75762
3.7563
3.75203
3.75649
3.76421
3.77104
3.77985
3.78581
3.78706
3.78346
3.77987
3.77773
3.77443
3.7701
3.76793
3.76655
1
1
1
1
1
1
1
1
1
1
1
1
1
1
1
1
1
0.999998
0.999998
0.999985
1.00023
1.01208
1.11718
1.47921
2.24112
2.96265
3.5331
3.69169
3.70959
3.72258
3.72652
3.7193
3.71736
3.7216
3.73034
3.73978
3.74853
3.75686
3.76413
3.77107
3.77564
3.77585
3.77643
3.77856
3.77855
3.77535
3.77358
3.77273
1
1
1
1
1
1
1
1
1
1
1
1
1
1
1
0.999998
0.999998
0.999982
1.00031
1.01427
1.10688
1.55263
2.28337
3.10649
3.56011
3.63304
3.70413
3.69694
3.69255
3.70571
3.71084
3.71637
3.72614
3.73855
3.74848
3.75595
3.75991
3.76362
3.76687
3.77053
3.77616
3.77915
3.78004
3.78109
3.78043
3.77693
3.77452
3.77415
1
1
1
1
1
1
1
1
1
1
1
1
1
0.999997
0.999998
0.999973
1.00067
1.0134
1.13918
1.62265
2.35053
3.23734
3.5174
3.65324
3.70298
3.73869
3.74537
3.72539
3.7195
3.72673
3.73746
3.74898
3.76019
3.77166
3.77355
3.77156
3.76882
3.76716
3.76662
3.76774
3.77351
3.77817
3.77875
3.77806
3.77642
3.77429
3.7726
3.77289
1
1
1
1
1
1
1
1
1
1
1
0.999997
0.999998
0.999963
1.00059
1.01596
1.20248
1.67453
2.57592
3.22446
3.64724
3.85827
3.85755
3.84829
3.80283
3.76203
3.74024
3.7253
3.72318
3.73052
3.74677
3.76911
3.78002
3.78101
3.77931
3.778
3.77656
3.7732
3.76966
3.76804
3.76831
3.77256
3.77418
3.77267
3.76977
3.76729
3.7644
3.76551
1
1
1
1
1
1
1
1
1
0.999997
0.999998
0.999955
1.00069
1.03049
1.22947
1.78504
2.71767
3.38463
3.91057
3.93608
3.91122
3.84189
3.80127
3.7682
3.73751
3.70845
3.69837
3.69854
3.70791
3.73163
3.75032
3.76303
3.7719
3.77517
3.77548
3.7754
3.7751
3.77334
3.77152
3.77142
3.77352
3.7776
3.77943
3.77767
3.77445
3.77041
3.76462
3.76352
1
1
1
1
1
1
1
1
1
0.99993
1.00174
1.04806
1.28257
2.00991
2.84071
3.66315
4.03802
4.04893
3.99339
3.9291
3.82049
3.74046
3.70647
3.68383
3.6793
3.68936
3.7018
3.71527
3.73026
3.74215
3.751
3.7579
3.7668
3.773
3.77419
3.77426
3.77402
3.77336
3.77271
3.77327
3.77592
3.78045
3.78461
3.7863
3.78494
3.78219
3.77704
3.77346
1
1
1
1
0.999999
0.999983
1.00006
1.00008
1.00588
1.07008
1.41262
2.14699
3.13028
3.92434
4.02465
4.0228
3.98318
3.88462
3.80456
3.74805
3.72389
3.69868
3.68547
3.6927
3.70734
3.72458
3.74254
3.75485
3.76443
3.77107
3.77714
3.7816
3.78264
3.78219
3.78042
3.77598
3.77129
3.76829
3.76632
3.7659
3.76723
3.77038
3.77521
3.77965
3.78065
3.77886
3.77643
3.77463
1
0.999981
1.00001
1.00009
1.00146
1.01277
1.06408
1.21873
1.6107
2.33339
3.34407
3.9117
4.29371
4.32162
4.25992
4.12967
3.96232
3.75796
3.65788
3.65127
3.66329
3.6809
3.7048
3.73922
3.7634
3.77133
3.7746
3.77544
3.77462
3.7777
3.7806
3.78284
3.78219
3.77931
3.7758
3.77143
3.76618
3.76174
3.75958
3.75958
3.76054
3.76314
3.76912
3.77673
3.78073
3.78139
3.781
3.78126
1.00247
1.01714
1.06434
1.2057
1.4138
1.75973
2.22429
2.75502
3.32074
3.71614
3.92551
4.03455
4.02341
3.95122
3.85071
3.77911
3.7258
3.71153
3.67543
3.66474
3.67419
3.69591
3.71986
3.74624
3.76079
3.76623
3.76737
3.76315
3.76284
3.76282
3.76296
3.76569
3.76989
3.77382
3.7774
3.77787
3.77583
3.77205
3.76837
3.76754
3.76796
3.76904
3.77207
3.77717
3.77901
3.77912
3.77765
3.77469
1.29093
1.743
2.33919
2.91207
3.51356
4.20517
4.66561
5.08126
5.33722
5.25969
4.95919
4.48385
4.05348
3.76783
3.66537
3.5875
3.56563
3.59227
3.62744
3.65746
3.6876
3.70928
3.729
3.74587
3.75142
3.75376
3.75544
3.76028
3.76252
3.76107
3.7597
3.76326
3.77473
3.78956
3.79701
3.79702
3.79459
3.78798
3.77864
3.77098
3.76898
3.76903
3.76977
3.77127
3.77223
3.77254
3.77166
3.76778
2.66413
1.67021
1.10634
0.893623
0.712559
0.636977
0.662929
0.733066
0.785397
0.8221
0.89547
0.999887
1.02099
1.01407
1.0232
1.04624
1.04838
1.05088
1.06401
1.07348
1.07269
1.06938
1.07033
1.06897
1.05518
1.04535
1.04583
1.04792
1.04767
1.04562
1.04285
1.03981
1.03644
1.03567
1.03624
1.03891
1.04531
1.04929
1.05001
1.05022
1.04939
1.04612
1.0452
1.04596
1.04792
1.05001
1.05038
1.05089
1.05899
1.23645
1.88185
3.20574
5.24051
7.81937
10.2577
10.1082
9.29433
8.35006
8.10748
7.96707
7.71905
7.43477
7.28316
7.19822
7.14007
7.05108
6.91867
6.7652
6.52928
6.19508
5.97944
5.88961
5.82923
5.81251
5.77706
5.70188
5.57823
5.33843
5.13894
5.07287
5.02438
4.97841
4.91783
4.85198
4.76428
4.59506
4.37896
4.28875
4.2481
4.21866
4.2123
4.18817
4.14657
4.07997
3.93085
3.7515
3.67002
3.62949
3.59673
3.56768
3.53765
3.49413
3.41841
3.3176
3.2625
3.23503
3.20695
3.17424
3.12815
3.04417
2.92578
2.86236
2.83959
2.82099
2.80472
2.7919
2.77419
2.74936
2.69052
2.57724
2.49544
2.4712
2.45626
2.44505
2.43508
2.4169
2.39357
2.36015
2.30108
2.23539
2.2044
2.18774
2.17127
2.15062
2.1158
2.05566
2.01121
1.99422
1.97985
1.96756
1.95659
1.94368
1.92923
1.90072
1.90125
1.98779
2.28496
2.87005
3.67813
4.40717
5.03164
5.5933
5.68416
5.58264
5.43454
5.28557
5.18547
5.10623
5.03779
4.95529
4.85868
4.80722
4.7909
4.7752
4.74669
4.70959
4.6655
4.58741
4.49926
4.46184
4.43796
4.41991
4.40906
4.3893
4.36208
4.32276
4.24743
4.14512
4.08467
4.05907
4.04032
4.02178
4.00365
3.98517
3.96481
3.93751
3.89345
3.83133
3.77383
3.73943
3.71837
3.67754
3.37347
2.777
2.11577
1.75802
1.52084
1.23044
1.11525
1.06886
0.993785
0.937694
0.938301
0.945233
0.933774
0.933287
0.946312
0.975351
0.993235
1.00414
1.02407
1.04427
1.0465
1.0476
1.05181
1.05403
1.05021
1.04672
1.04728
1.0501
1.05112
1.04925
1.0476
1.04578
1.04351
1.04286
1.04271
1.0447
1.04866
1.04958
1.04969
1.04959
1.04814
1.04556
1.04475
1.04508
1.04599
1.04667
1.04803
1.05845
1.20654
1.95077
2.7932
3.2015
3.9479
4.82537
6.61992
8.03068
8.61039
8.45276
8.26463
8.02445
7.73841
7.49934
7.34252
7.19569
7.06889
6.96431
6.86622
6.74171
6.55749
6.30113
6.07112
5.93509
5.85759
5.79358
5.73338
5.65594
5.55492
5.38366
5.17461
5.0589
5.0031
4.96808
4.93069
4.86834
4.78261
4.64353
4.44784
4.31589
4.26485
4.22729
4.18937
4.15645
4.1134
4.05252
3.94308
3.78956
3.69136
3.64338
3.60508
3.5709
3.53987
3.50784
3.4543
3.36653
3.29453
3.25879
3.22845
3.19261
3.14244
3.0633
2.95831
2.88128
2.84462
2.8235
2.80502
2.78465
2.76157
2.73405
2.69182
2.60726
2.52114
2.48107
2.45918
2.44275
2.43068
2.42691
2.40948
2.37963
2.33165
2.26893
2.22897
2.20986
2.19113
2.16772
2.13451
2.0823
2.03687
2.01378
1.99907
1.98584
1.97541
1.96571
1.95941
1.98562
2.10043
2.42903
2.80248
3.10722
3.41633
3.88745
4.26068
4.70476
4.98087
5.15482
5.26207
5.2586
5.21363
5.14578
5.06812
4.98296
4.88957
4.83364
4.81319
4.78939
4.75743
4.71916
4.67156
4.59864
4.51796
4.48128
4.46049
4.44073
4.42408
4.40152
4.37232
4.32953
4.25667
4.16586
4.10557
4.07726
4.05934
4.04172
4.02293
4.00314
3.98072
3.95171
3.90897
3.84892
3.79242
3.75708
3.73614
3.69557
3.66392
3.34538
2.85926
2.35642
2.00156
1.65106
1.39477
1.27135
1.14175
0.991944
0.969234
0.961234
0.93075
0.923218
0.93055
0.941826
0.951299
0.964706
0.98701
1.02106
1.03041
1.03194
1.03742
1.04329
1.0434
1.04335
1.04732
1.05456
1.05704
1.05634
1.05351
1.0484
1.04568
1.04522
1.04551
1.04812
1.04942
1.04905
1.04843
1.04665
1.04424
1.04403
1.04421
1.04528
1.04616
1.05016
1.07801
1.23577
2.03856
2.9744
3.30701
3.38773
3.4717
3.57707
4.13545
5.90087
7.88396
8.61495
8.45945
8.08983
7.76215
7.61058
7.43559
7.2067
6.96732
6.8302
6.74103
6.62851
6.4918
6.35973
6.20669
6.0503
5.90199
5.79317
5.69996
5.59699
5.48202
5.3645
5.22192
5.08058
4.98566
4.92459
4.86354
4.79863
4.72167
4.62542
4.50768
4.36833
4.27689
4.23374
4.19015
4.13818
4.07305
3.99374
3.90136
3.79599
3.7082
3.66543
3.6357
3.59948
3.55392
3.49743
3.42588
3.34234
3.26621
3.21182
3.17349
3.13725
3.09194
3.03162
2.97223
2.9146
2.85635
2.82049
2.799
2.77779
2.7522
2.7158
2.66119
2.59655
2.53877
2.49565
2.46681
2.44701
2.43095
2.41197
2.38781
2.35718
2.31515
2.26399
2.2162
2.18705
2.16958
2.1495
2.12292
2.08818
2.03815
1.99386
1.97814
1.96751
1.96839
1.98215
2.0535
2.2505
2.60889
2.99151
3.20708
3.30308
3.36102
3.44826
3.61443
3.92189
4.43468
4.86434
5.09397
5.25041
5.24874
5.19516
5.10091
5.01959
4.94238
4.85039
4.76795
4.73837
4.7199
4.68785
4.64369
4.59145
4.5457
4.49249
4.43799
4.41275
4.39133
4.36699
4.33781
4.29731
4.2395
4.18166
4.128
4.07315
4.03244
4.01315
3.99644
3.97706
3.95415
3.92433
3.88281
3.82906
3.7814
3.74721
3.72283
3.68025
3.75137
3.62174
3.32827
2.89589
2.49955
2.13419
1.80127
1.61274
1.45079
1.2379
1.16602
1.11771
1.02905
0.978049
0.980052
0.969763
0.949363
0.945674
0.954046
0.965014
0.972548
0.979905
0.992965
1.01535
1.02626
1.03376
1.04336
1.04894
1.05041
1.05104
1.04915
1.04665
1.04697
1.05005
1.05584
1.05932
1.05916
1.05757
1.05405
1.04784
1.04404
1.04366
1.04361
1.0452
1.05228
1.1232
1.43663
2.07426
3.1629
3.43277
3.4288
3.43521
3.44054
3.43703
3.37847
3.66673
5.00207
7.13864
7.81273
7.90672
7.85903
7.73029
7.50622
7.24033
6.99866
6.78575
6.64653
6.53125
6.43628
6.35486
6.27637
6.15805
5.98348
5.79822
5.65591
5.53935
5.43364
5.34586
5.26564
5.15022
5.00353
4.88951
4.81925
4.7557
4.69658
4.64133
4.57052
4.46293
4.33704
4.22224
4.15312
4.08921
4.01508
3.93939
3.87588
3.82229
3.76358
3.68663
3.60832
3.56095
3.51889
3.46656
3.40583
3.34148
3.27556
3.21464
3.16052
3.1106
3.06825
3.0344
3.00067
2.95349
2.89645
2.84078
2.79912
2.77229
2.73999
2.692
2.63614
2.59348
2.56006
2.52904
2.49465
2.44594
2.40782
2.39067
2.37451
2.35257
2.32027
2.27617
2.22707
2.18713
2.16504
2.15304
2.13666
2.1063
2.05331
2.00018
1.98439
1.9833
2.00505
2.13388
2.49258
2.85766
3.16814
3.36528
3.39885
3.39015
3.36374
3.30923
3.30101
3.3549
3.59546
4.01676
4.49726
4.91961
5.09722
5.13855
5.14125
5.09402
5.00462
4.8863
4.7741
4.7311
4.70426
4.66782
4.6391
4.61114
4.57506
4.52055
4.45327
4.40657
4.38017
4.35364
4.32075
4.27967
4.23992
4.2002
4.15083
4.09294
4.04075
4.00318
3.98312
3.96594
3.94639
3.9164
3.86665
3.81452
3.7795
3.74977
3.7237
3.67894
3.76238
3.73248
3.59599
3.29555
2.95276
2.57808
2.20742
1.96832
1.76953
1.51519
1.37225
1.28087
1.16826
1.05857
1.03978
1.01239
0.963285
0.952072
0.95942
0.95821
0.95445
0.956325
0.963928
0.979137
0.999723
1.01671
1.03199
1.03756
1.0399
1.04316
1.04284
1.04063
1.04185
1.05186
1.05916
1.05995
1.05969
1.05803
1.05414
1.04852
1.04627
1.04596
1.0467
1.05211
1.13093
1.68068
2.45689
3.15121
3.50816
3.53142
3.4474
3.39909
3.3937
3.3975
3.34633
3.24815
3.35074
4.26189
6.0366
7.38015
7.84673
7.77797
7.54196
7.30713
7.08656
6.82306
6.57377
6.45226
6.36739
6.31103
6.22755
6.13495
6.01152
5.8142
5.62035
5.50121
5.41352
5.33173
5.24556
5.15075
5.01673
4.85937
4.77607
4.7209
4.66382
4.60338
4.54488
4.48444
4.38588
4.2309
4.09686
4.0266
3.97312
3.92449
3.87754
3.8347
3.78824
3.72398
3.6382
3.54982
3.48529
3.43153
3.38264
3.33815
3.29299
3.22909
3.14513
3.08469
3.04906
3.01931
2.98703
2.95211
2.91507
2.87011
2.81961
2.75878
2.70522
2.66076
2.62285
2.58953
2.56316
2.53836
2.5051
2.45725
2.41026
2.37529
2.34943
2.32233
2.29237
2.26119
2.23225
2.20552
2.17495
2.13339
2.10218
2.07502
2.04896
2.02111
2.02334
2.07453
2.24549
2.65667
3.1349
3.28478
3.39895
3.43734
3.42613
3.40808
3.37089
3.30482
3.25999
3.23455
3.25094
3.36749
3.6903
4.25088
4.75161
5.02636
5.13889
5.11275
5.03985
4.9387
4.82437
4.74164
4.69023
4.64813
4.61456
4.5908
4.5657
4.53192
4.48227
4.42365
4.36968
4.32826
4.29148
4.25324
4.21461
4.17895
4.14659
4.11227
4.06586
4.0173
3.98124
3.95387
3.92383
3.88523
3.84251
3.80571
3.77968
3.75505
3.73145
3.68345
3.76245
3.74785
3.70195
3.54415
3.29487
2.98449
2.60876
2.31973
2.08889
1.83702
1.65323
1.52735
1.38948
1.24719
1.19688
1.15025
1.07141
1.03461
1.02565
0.997464
0.970945
0.966262
0.967803
0.966086
0.969518
0.982877
0.996775
1.0037
1.01039
1.01899
1.02762
1.03015
1.03541
1.04951
1.05671
1.0575
1.05785
1.05708
1.05261
1.04833
1.04768
1.04897
1.05739
1.13419
1.71916
2.75635
3.26352
3.54745
3.57539
3.51286
3.45367
3.36664
3.31649
3.3041
3.29944
3.24573
3.14949
3.16851
3.65447
5.16033
6.75373
7.31378
7.43846
7.35606
7.1854
6.88684
6.56521
6.39663
6.3144
6.26063
6.19392
6.09689
5.98201
5.81323
5.61027
5.48038
5.39595
5.31906
5.24331
5.15733
5.03659
4.87486
4.74022
4.6758
4.62638
4.58786
4.55047
4.50022
4.41163
4.24206
4.0681
3.98984
3.9512
3.9255
3.91725
3.88655
3.841
3.76201
3.62216
3.50608
3.44932
3.40996
3.37757
3.3458
3.30135
3.21616
3.10626
3.05599
3.03251
3.0159
3.00882
2.99122
2.96332
2.91749
2.82312
2.70963
2.65572
2.63473
2.62173
2.61275
2.59618
2.57449
2.54556
2.49719
2.41325
2.34204
2.31299
2.29699
2.28422
2.27193
2.25732
2.23516
2.19519
2.13755
2.09037
2.06989
2.06419
2.07965
2.19034
2.47497
2.86813
3.27657
3.39746
3.46526
3.50212
3.49681
3.47501
3.44663
3.39496
3.3172
3.25884
3.23205
3.22019
3.21194
3.25343
3.46918
3.96015
4.44069
4.835
4.94107
4.96247
4.94307
4.8731
4.76588
4.68193
4.63837
4.61496
4.59687
4.58042
4.56067
4.5279
4.45556
4.35669
4.28925
4.25255
4.22844
4.20529
4.18011
4.15368
4.12439
4.09027
4.04759
3.99381
3.93361
3.88124
3.84379
3.82124
3.80212
3.7838
3.76302
3.74094
3.69118
3.76586
3.75489
3.73665
3.67704
3.53262
3.28131
2.96338
2.68247
2.41268
2.13399
1.94192
1.78067
1.62417
1.47258
1.38091
1.29993
1.19097
1.12347
1.09181
1.04798
0.992186
0.982762
0.982364
0.971835
0.971623
0.979305
0.98019
0.978399
0.979441
0.984249
0.995356
1.01005
1.02605
1.04561
1.05243
1.05336
1.0544
1.0543
1.05055