/*--------------------------------*- C++ -*----------------------------------*\
  =========                 |
  \\      /  F ield         | OpenFOAM: The Open Source CFD Toolbox
   \\    /   O peration     | Website:  https://openfoam.org
    \\  /    A nd           | Version:  7
     \\/     M anipulation  |
\*---------------------------------------------------------------------------*/
FoamFile
{
    version     2.0;
    format      ascii;
    class       volScalarField;
    location    "2.6";
    object      T;
}
// * * * * * * * * * * * * * * * * * * * * * * * * * * * * * * * * * * * * * //

dimensions      [0 0 0 1 0 0 0];

internalField   nonuniform List<scalar> 
18432
(
1
1
1
1
1
1
1
1
1
1
1
1
1
1
1
1
1
1
1
1
1
1
1
1
1
1
1
1
1
1
1
1
1
1
1
1
1
1
1
1
1
1
1
1
1
1
1
1
1
1
1
1
1
1
1
1
1
1
1
1
1
1
1
1
1
1
1
1
1
1
1
1
1
1
1
1
1
1
1
1
1
1
1
1
1
1
1
1
1
1
1
1
1
1
1
1
1
1
1
1
1
1
1
1
1
1
1
1
1
1
1
1
1
1
1
1
1
1
1
1
1
1
1
1
1
1
1
1
1
1
1
1
1
1
1
1
1
1
1
1
1
1
1
1
1
1
1
1
1
1
1
1
1
1
1
1
1
1
1
1
1
1
1
1
1
1
1
1
1
1
1
1
1
1
1
1
1
1
1
1
1
1
1
1
1
1
1
1
1
1
1
1
1
1
1
1
1
1
1
1
1
1
1
1
1
1
1
1
1
1
1
1
1
1
1
1
1
1
1
1
1
1
1
1
1
1
1
1
1
1
1
1
1
1
1
1
1
1
1
1
1
1
1
1
1
1
1
1
1
1
1
1
1
1
1
1
1
1
1
1
1
1
1
1
1
1
1
1
1
1
1
1
1
1
1
1
1
1
1
1
1
1
1
1
1
1
1
1
1
1
1
1
1
1
1
1
1
1
1
1
1
1
1
1
1
1
1
1
1
1
1
1
1
1
1
1
1
1
1
1
1
1
1
1
1
1
1
1
1
1
1
1
1
1
1
1
1
1
1
1
1
1
1
1
1
1
1
1
1
1
1
1
1
1
1
1
1
1
1
1
1
1
1
1
1
1
1
1
1
1
1
1
1
1
1
1
1
1
1
1
1
1
1
1
1
1
1
1
1
1
1
1
1
1
1
1
1
1
1
1
1
1
1
1
1
1
1
1
1
1
1
1
1
1
1
1
1
1
1
1
1
1
1
1
1
1
1
1
1
1
1
1
1
1
1
1
1
1
1
1
1
1
1
1
1
1
1
1
1
1
1
1
1
1
1
1
1
1
1
1
1
1
1
1
1
1
1
1
1
1
1
1
1
1
1
1
1
1
1
1
1
1
1
1
1
1
1
1
1
1
1
1
1
1
1
1
1
1
1
1
1
1
1
1
1
1
1
1
1
1
1
1
1
1
1
1
1
1
1
1
1
1
1
1
1
1
1
1
1
1
1
1
1
1
1
1
1
1
1
1
1
1
1
1
1
1
1
1
1
1
1
1
1
1
1
1
1
1
1
1
1
1
1
1
1
1
1
1
1
1
1
1
1
1
1
1
1
1
1
1
1
1
1
1
1
1
1
1
1
1
1
1
1
1
1
1
1
1
1
1
1
1
1
1
1
1
1
1
1
1
1
1
1
1
1
1
1
1
1
1
1
1
1
1
1
1
1
1
1
1
1
1
1
1
1
1
1
1
1
1
1
1
1
1
1
1
1
1
1
1
1
1
1
1
1
1
1
1
1
1
1
1
1
1
1
1
1
1
1
1
1
1
1
1
1
1
1
1
1
1
1
1
1
1
1
1
1
1
1
1
1
1
1
1
1
1
1
1
1
1
1
1
1
1
1
1
1
1
1
1
1
1
1
1
1
1
1
1
1
1
1
1
1
1
1
1
1
1
1
1
1
1
1
1
1
1
1
1
1
1
1
1
1
1
1
1
1
1
1
1
1
1
1
1
1
1
1
1
1
1
1
1
1
1
1
1
1
1
1
1
1
1
1
1
1
1
1
1
1
1
1
1
1
1
1
1
1
1
1
1
1
1
1
1
1
1
1
1
1
1
1
1
1
1
1
1
1
1
1
1
1
1
1
1
1
1
1
1
1
1
1
1
1
1
1
1
1
1
1
1
1
1
1
1
1
1
1
1
1
1
1
1
1
1
1
1
1
1
1
1
1
1
1
1
1
1
1
1
1
1
1
1
1
1
1
1
1
1
1
1
1
1
1
1
1
1
1
1
1
1
1
1
1
1
1
1
1
1
1
1
1
1
1
1
1
1
1
1
1
1
1
1
1
1
1
1
1
1
1
1
1
1
1
1
1
1
1
1
1
1
1
1
1
1
1
1
1
1
1
1
1
1
1
1
1
1
1
1
1
1
1
1
1
1
1
1
1
1
1
1
1
1
1
1
1
1
1
1
1
1
1
1
1
1
1
1
1
1
1
1
1
1
1
1
1
1
1
1
1
1
1
1
1
1
1
1
1
1
1
1
1
1
1
1
1
1
1
1
1
1
1
1
1
1
1
1
1
1
1
1
1
1
1
1
1
1
1
1
1
1
1
1
1
1
1
1
1
1
1
1
1
1
1
1
1
1
1
1
1
1
1
1
1
1
1
1
1
1
1
1
1
1
1
1
1
1
1
1
1
1
1
1
1
1
1
1
1
1
1
1
1
1
1
1
1
1
1
1
1
1
1
1
1
1
1
1
1
1
1
1
1
1
1
1
1
1
1
1
1
1
1
1
1
1
1
1
1
1
1
1
1
1
1
1
1
1
1
1
1
1
1
1
1
1
1
1
1
1
1
1
1
1
1
1
1
1
1
1
1
1
1
1
1
1
1
1
1
1
1
1
1
1
1
1
1
1
1
1
1
1
1
1
1
1
1
1
1
1
1
1
1
1
1
1
1
1
1
1
1
1
1
1
1
1
1
1
1
1
1
1
1
1
1
1
1
1
1
1
1
1
1
1
1
1
1
1
1
1
1
1
1
1
1
1
1
1
1
1
1
1
1
1
1
1
1
1
1
1
1
1
1
1
1
1
1
1
1
1
1
1
1
1
1
1
1
1
1
1
1
1
1
1
1
1
1
1
1
1
1
1
1
1
1
1
1
1
1
1
1
1
1
1
1
1
1
1
1
1
1
1
1
1
1
1
1
1
1
1
1
1
1
1
1
1
1
1
1
1
1
1
1
1
1
1
1
1
1
1
1
1
1
1
1
1
1
1
1
1
1
1
1
1
1
1
1
1
1
1
1
1
1
1
1
1
1
1
1
1
1
1
1
1
1
1
1
1
1
1
1
1
1
1
1
1
1
1
1
1
1
1
1
1
1
1
1
1
1
1
1
1
1
1
1
1
1
1
1
1
1
1
1
1
1
1
1
1
1
1
1
1
1
1
1
1
1
1
1
1
1
1
1
1
1
1
1
1
1
1
1
1
1
1
1
1
1
1
1
1
1
1
1
1
1
1
1
1
1
1
1
1
1
1
1
1
1
1
1
1
1
1
1
1
1
1
1
1
1
1
1
1
1
1
1
1
1
1
1
1
1
1
1
1
1
1
1
1
1
1
1
1
1
1
1
1
1
1
1
1
1
1
1
1
1
1
1
1
1
1
1
1
1
1
1
1
1
1
1
1
1
1
1
1
1
1
1
1
1
1
1
1
1
1
1
1
1
1
1
1
1
1
1
1
1
1
1
1
1
1
1
1
1
1
1
1
1
1
1
1
1
1
1
1
1
1
1
1
1
1
1
1
1
1
1
1
1
1
1
1
1
1
1
1
1
1
1
1
1
1
1
1
1
1
1
1
1
1
1
1
1
1
1
1
1
1
1
1
1
1
1
1
1
1
1
1
1
1
1
1
1
1
1
1
1
1
1
1
1
1
1
1
1
1
1
1
1
1
1
1
1
1
1
1
1
1
1
1
1
1
1
1
1
1
1
1
1
1
1
1
1
1
1
1
1
1
1
1
1
1
1
1
1
1
1
1
1
1
1
1
1
1
1
1
1
1
1
1
1
1
1
1
1
1
1
1
1
1
1
1
1
1
1
1
1
1
1
1
1
1
1
1
1
1
1
1
1
1
1
1
1
1
1
1
1
1
1
1
1
1
1
1
1
1
1
1
1
1
1
1
1
1
1
1
1
1
1
1
1
1
1
1
1
1
1
1
1
1
1
1
1
1
1
1
1
1
1
1
1
1
1
1
1
1
1
1
1
1
1
1
1
1
1
1
1
1
1
1
1
1
1
1
1
1
1
1
1
1
1
1
1
1
1
1
1
1
1
1
1
1
1
1
1
1
1
1
1
1
1
1
1
1
1
1
1
1
1
1
1
1
1
1
1
1
1
1
1
1
1
1
1
1
1
1
1
1
1
1
1
1
1
1
1
1
1
1
1
1
1
1
1
1
1
1
1
1
1
1
1
1
1
1
1
1
1
1
1
1
1
1
1
1
1
1
1
1
1
1
1
1
1
1
1
1
1
1
1
1
1
1
1
1
1
1
1
1
1
1
1
1
1
1
1
1
1
1
1
1
1
1
1
1
1
1
1
1
1
1
1
1
1
1
1
1
1
1
1
1
1
1
1
1
1
1
1
1
1
1
1
1
1
1
1
1
1
1
1
1
1
1
1
1
1
1
1
1
1
1
1
1
1
1
1
1
1
1
1
1
1
1
1
1
1
1
1
1
1
1
1
1
1
1
1
1
1
1
1
1
1
1
1
1
1
1
1
1
1
1
1
1
1
1
1
1
1
1
1
1
1
1
1
1
1
1
1
1
1
1
1
1
1
1
1
1
1
1
1
1
1
1
1
1
1
1
1
1
1
1
1
1
1
1
1
1
1
1
1
1
1
1
1
1
1
1
1
1
1
1
1
1
1
1
1
1
1
1
1
1
1
1
1
1
1
1
1
1
1
1
1
1
1
1
1
1
1
1
1
1
1
1
1
1
1
1
1
1
1
1
1
1
1
1
1
1
1
1
1
1
1
1
1
1
1
1
1
1
1
1
1
1
1
1
1
1
1
1
1
1
1
1
1
1
1
1
1
1
1
1
1
1
1
1
1
1
1
1
1
1
1
1
1
1
1
1
1
1
1
1
1
1
1
1
1
1
1
1
1
1
1
1
1
1
1
1
1
1
1
1
1
1
1
1
1
1
1
1
1
1
1
1
1
1
1
1
1
1
1
1
1
1
1
1
1
1
1
1
1
1
1
1
1
1
1
1
1
1
1
1
1
1
1
1
1
1
1
1
1
1
1
1
1
1
1
1
1
1
1
1
1
1
1
1
1
1
1
1
1
1
1
1
1
1
1
1
1
1
1
1
1
1
1
1
1
1
1
1
1
1
1
1
1
1
1
1
1
1
1
1
1
1
1
1
1
1
1
1
1
1
1
1
1
1
1
1
1
1
1
1
1
1
1
1
1
1
1
1
1
1
1
1
1
1
1
1
1
1
1
1
1
1
1
1
1
1
1
1
1
1
1
1
1
1
1
1
1
1
1
1
1
1
1
1
1
1
1
1
1
1
1
1
1
1
1
1
1
1
1
1
1
1
1
1
1
1
1
1
1
1
1
1
1
1
1
1
1
1
1
1
1
1
1
1
1
1
1
1
1
1
1
1
1
1
1
1
1
1
1
1
1
1
1
1
1
1
1
1
1
1
1
1
1
1
1
1
1
1
1
1
1
1
1
1
1
1
1
1
1
1
1
1
1
1
1
1
1
1
1
1
1
1
1
1
1
1
1
1
1
1
1
1
1
1
1
1
1
1
1
1
1
1
1
1
1
1
1
1
1
1
1
1
1
1
1
1
1
1
1
1
1
1
1
1
1
1
1
1
1
1
1
1
1
1
1
1
1
1
1
1
1
1
1
1
1
1
1
1
1
1
1
1
1
1
1
1
1
1
1
1
1
1
1
1
1
1
1
1
1
1
1
1
1
1
1
1
1
1
1
1
1
1
1
1
1
1
1
1
1
1
1
1
1
1
1
1
1
1
1
1
1
1
1
1
1
1
1
1
1
1
1
1
1
1
1
1
1
1
1
1
1
1
1
1
1
1
1
1
1
1
1
1
1
1
1
1
1
1
1
1
1
1
1
1
1
1
1
1
1
1
1
1
1
1
1
1
1
1
1
1
1
1
1
1
1
1
1
1
1
1
1
1
1
1
1
1
1
1
1
1
1
1
1
1
1
1
1
1
1
1
1
1
1
1
1
1
1
1
1
1
1
1
1
1
1
1
1
1
1
1
1
1
1
1
1
1
1
1
1
1
1
1
1
1
1
1
1
1
1
1
1
1
1
1
1
1
1
1
1
1
1
1
1
1
1
1
1
1
1
1
1
1
1
1
1
1
1
1
1
1
1
1
1
1
1
1
1
1
1
1
1
1
1
1
1
1
1
1
1
1
1
1
1
1
1
1
1
1
1
1
1
1
1
1
1
1
1
1
1
1
1
1
1
1
1
1
1
1
1
1
1
1
1
1
1
1
1
1
1
1
1
1
1
1
1
1
1
1
1
1
1
1
1
1
1
1
1
1
1
1
1
1
1
1
1
1
1
1
1
1
1
1
1
1
1
1
1
1
1
1
1
1
1
1
1
1
1
1
1
1
1
1
1
1
1
1
1
1
1
1
1
1
1
1
1
1
1
1
1
1
1
1
1
1
1
1
1
1
1
1
1
1
1
1
1
1
1
1
1
1
1
1
1
1
1
1
1
1
1
1
1
1
1
1
1
1
1
1
1
1
1
1
1
1
1
1
1
1
1
1
1
1
1
1
1
1
1
1
1
1
1
1
1
1
1
1
1
1
1
1
1
1
1
1
1
1
1
1
1
1
1
1
1
1
1
1
1
1
1
1
1
1
1
1
1
1
1
1
1
1
1
1
1
1
1
1
1
1
1
1
1
1
1
1
1
1
1
1
1
1
1
1
1
1
1
1
1
1
1
1
1
1
1
1
1
1
1
1
1
1
1
1
1
1
1
1
1
1
1
1
1
1
1
1
1
1
1
1
1
1
1
1
1
1
1
1
1
1
1
1
1
1
1
1
1
1
1
1
1
1
1
1
1
1
1
1
1
1
1
1
1
1
1
1
1
1
1
1
1
1
1
1
1
1
1
1
1
1
1
1
1
1
1
1
1
1
1
1
1
1
1
1
1
1
1
1
1
1
1
1
1
1
1
1
1
1
1.07812
1.17815
1.28876
1.38229
1.47009
1.5609
1.61887
1.6657
1.69561
1.69089
1.66328
1.6143
1.56894
1.53628
1.52601
1.51687
1.51413
1.51711
1.52165
1.52623
1.53085
1.5338
1.53591
1.53764
1.53847
1.53927
1.54023
1.54157
1.54187
1.54163
1.54148
1.54217
1.54409
1.54625
1.54728
1.54736
1.54718
1.5464
1.54537
1.54479
1.54483
1.54511
1.54538
1.54564
1.54582
1.54595
1.54593
1.54577
1.00078
1.00575
1.02215
1.06969
1.13015
1.21306
1.30112
1.37961
1.45278
1.50387
1.53348
1.5532
1.56514
1.56217
1.55469
1.5472
1.53957
1.53685
1.53214
1.53241
1.53413
1.53694
1.53951
1.54222
1.5438
1.54483
1.54543
1.54537
1.54535
1.54519
1.54506
1.54534
1.54607
1.54685
1.54749
1.5476
1.54737
1.54684
1.54641
1.54641
1.54658
1.54692
1.54742
1.54798
1.54815
1.54816
1.54796
1.5483
1
0.999994
1
1.00003
1.00051
1.00442
1.02229
1.07382
1.18457
1.34181
1.50505
1.57896
1.62286
1.6226
1.61515
1.60013
1.58017
1.55546
1.54308
1.54317
1.54498
1.54729
1.54999
1.55355
1.55553
1.55612
1.55655
1.55673
1.55659
1.55667
1.55646
1.55604
1.55562
1.55516
1.55479
1.55423
1.55339
1.55247
1.55187
1.55169
1.55169
1.55193
1.55253
1.55317
1.55331
1.55318
1.55277
1.55371
1
1
1
1
1
0.999995
1.00002
1.00003
1.00212
1.0268
1.14828
1.33371
1.50155
1.60675
1.60593
1.60351
1.59921
1.58769
1.57839
1.57214
1.56891
1.56523
1.56298
1.56334
1.56414
1.56541
1.56688
1.568
1.56908
1.56929
1.56916
1.56869
1.5681
1.5677
1.56721
1.56634
1.56519
1.564
1.56298
1.56245
1.56234
1.56239
1.56253
1.56251
1.56208
1.56124
1.56013
1.56085
1
1
1
1
1
1
1
1
1
0.999972
1.00064
1.0184
1.10551
1.30587
1.45892
1.57835
1.62393
1.62241
1.61417
1.60634
1.59274
1.58218
1.5773
1.57342
1.57167
1.57246
1.5734
1.57465
1.57622
1.57693
1.57687
1.57681
1.57734
1.57781
1.5777
1.57725
1.57643
1.57535
1.57432
1.57389
1.5739
1.57401
1.57399
1.57358
1.57258
1.57143
1.56983
1.57033
1
1
1
1
1
1
1
1
1
0.999999
0.999999
0.999982
1.00024
1.01139
1.08571
1.24859
1.43646
1.53815
1.60856
1.60992
1.60625
1.59707
1.59162
1.58681
1.58261
1.57978
1.57866
1.57824
1.57874
1.58052
1.58185
1.58314
1.58428
1.58439
1.58416
1.58362
1.58285
1.58196
1.58125
1.58103
1.58102
1.58108
1.58093
1.58013
1.57893
1.57782
1.57644
1.57697
1
1
1
1
1
1
1
1
1
1
1
0.999999
0.999999
0.999986
1.0002
1.00583
1.07438
1.21744
1.40601
1.50851
1.5673
1.59503
1.59531
1.59473
1.59013
1.58654
1.58362
1.58069
1.57967
1.58021
1.58206
1.58509
1.58685
1.58664
1.58611
1.58548
1.58483
1.58409
1.5837
1.58354
1.58349
1.58368
1.58355
1.58294
1.5821
1.58155
1.58089
1.58125
1
1
1
1
1
1
1
1
1
1
1
1
1
0.999999
0.999999
0.99999
1.00022
1.00479
1.05076
1.20088
1.35784
1.50258
1.54261
1.56338
1.57343
1.57822
1.57861
1.57608
1.57604
1.57718
1.57886
1.58068
1.58239
1.58392
1.584
1.58356
1.583
1.58285
1.58295
1.58336
1.58419
1.5845
1.58438
1.58402
1.58363
1.58341
1.58319
1.58323
1
1
1
1
1
1
1
1
1
1
1
1
1
1
1
0.999999
0.999999
0.999993
1.0001
1.00501
1.03853
1.17763
1.34333
1.47856
1.54318
1.55407
1.56549
1.56679
1.56769
1.57001
1.57078
1.57168
1.57318
1.57515
1.57678
1.57796
1.57882
1.57981
1.58077
1.58167
1.58251
1.5829
1.58303
1.58319
1.58321
1.58306
1.58299
1.58291
1
1
1
1
1
1
1
1
1
1
1
1
1
1
1
1
1
1
1
0.999995
1.00007
1.00415
1.04204
1.15538
1.32962
1.45328
1.53393
1.55673
1.56099
1.56498
1.56578
1.56525
1.56553
1.56695
1.56883
1.57056
1.57241
1.57425
1.5758
1.57725
1.57833
1.57875
1.57925
1.58004
1.58054
1.58069
1.58103
1.58091
1
1
1
1
1
1
1
1
1
1
1
1
1
1
1
1
1
1
1
1
1
0.999995
1.00012
1.00292
1.04323
1.15268
1.32195
1.44077
1.51822
1.55306
1.56221
1.56305
1.56435
1.56529
1.56565
1.56671
1.56837
1.56979
1.57122
1.57277
1.57381
1.57423
1.57468
1.57527
1.57564
1.57586
1.57651
1.5764
1
1
1
1
1
1
1
1
1
1
1
1
1
1
1
1
1
1
1
1
1
0.999999
1
0.999995
1.0002
1.00332
1.03803
1.16634
1.32494
1.45267
1.50602
1.53772
1.5525
1.5573
1.55859
1.56216
1.56375
1.56431
1.56521
1.56651
1.56793
1.56901
1.56966
1.57027
1.57068
1.57096
1.57176
1.57202
1
1
1
1
1
1
1
1
1
1
1
1
1
1
1
1
1
1
1
1
1
1
1
0.999999
1
0.999996
1.00019
1.00538
1.04008
1.17869
1.33419
1.47365
1.51562
1.53125
1.54171
1.55151
1.55371
1.55501
1.55651
1.55874
1.56125
1.56305
1.56366
1.56384
1.56406
1.56452
1.56579
1.56671
1
1
1
1
1
1
1
1
1
1
1
1
1
1
1
1
1
1
1
1
1
1
1
1
1
1
1
0.999998
1.00022
1.00782
1.05207
1.19781
1.36311
1.48308
1.53824
1.54523
1.54835
1.54963
1.55059
1.55279
1.55539
1.55686
1.55771
1.55829
1.55842
1.559
1.56041
1.56167
1
1
1
1
1
1
1
1
1
1
1
1
1
1
1
1
1
1
1
1
1
1
1
1
1
1
1
1
0.999999
1.00001
1.00044
1.01062
1.08018
1.23409
1.39846
1.49733
1.54616
1.55542
1.55502
1.55601
1.55698
1.55763
1.55726
1.55733
1.55707
1.55735
1.55835
1.55945
1
1
1
1
1
1
1
1
1
1
1
1
1
1
1
1
1
1
1
1
1
1
1
1
1
1
1
1
1
1
0.999999
1.00002
1.00118
1.01797
1.12355
1.29158
1.44076
1.50642
1.54026
1.55297
1.55424
1.55627
1.55784
1.55766
1.5574
1.55763
1.5582
1.55896
1
1
1
1
1
1
1
1
1
1
1
1
1
1
1
1
1
1
1
1
1
1
1
1
1
1
1
1
1
1
1
1
0.999999
1.00009
1.00365
1.03506
1.17883
1.35726
1.49548
1.52387
1.53688
1.54685
1.55094
1.55247
1.55349
1.55476
1.55648
1.55767
1
1
1
1
1
1
1
1
1
1
1
1
1
1
1
1
1
1
1
1
1
1
1
1
1
1
1
1
1
1
1
1
1
1
1
1.00034
1.01073
1.07498
1.25978
1.42436
1.52668
1.54675
1.55017
1.551
1.55107
1.5521
1.55496
1.55636
1
1
1
1
1
1
1
1
1
1
1
1
1
1
1
1
1
1
1
1
1
1
1
1
1
1
1
1
1
1
1
1
1
1
1
0.999999
1.00004
1.00152
1.03066
1.14791
1.35365
1.48254
1.54546
1.55913
1.55814
1.55789
1.55884
1.55897
1
1
1
1
1
1
1
1
1
1
1
1
1
1
1
1
1
1
1
1
1
1
1
1
1
1
1
1
1
1
1
1
1
1
1
1
1
1
1.00033
1.007
1.0866
1.26458
1.44561
1.51095
1.54069
1.55731
1.55776
1.55818
1
1
1
1
1
1
1
1
1
1
1
1
1
1
1
1
1
1
1
1
1
1
1
1
1
1
1
1
1
1
1
1
1
1
1
1
1
1
1
1.00003
1.00257
1.03156
1.18389
1.38604
1.51751
1.53772
1.54547
1.54883
1
1
1
1
1
1
1
1
1
1
1
1
1
1
1
1
1
1
1
1
1
1
1
1
1
1
1
1
1
1
1
1
1
1
1
1
1
1
1
1
1
1.00044
1.0144
1.10982
1.32282
1.48307
1.54855
1.55369
1
1
1
1
1
1
1
1
1
1
1
1
1
1
1
1
1
1
1
1
1
1
1
1
1
1
1
1
1
1
1
1
1
1
1
1
1
1
1
1
1
1
1.00012
1.0049
1.0687
1.25363
1.43155
1.52568
1
1
1
1
1
1
1
1
1
1
1
1
1
1
1
1
1
1
1
1
1
1
1
1
1
1
1
1
1
1
1
1
1
1
1
1
1
1
1
1
1
1
1
1.00003
1.00195
1.03271
1.20595
1.40283
1
1
1
1
1
1
1
1
1
1
1
1
1
1
1
1
1
1
1
1
1
1
1
1
1
1
1
1
1
1
1
1
1
1
1
1
1
1
1
1
1
1
1
1
1.00001
1.00065
1.02479
1.13153
1
1
1
1
1
1
1
1
1
1
1
1
1
1
1
1
1
1
1
1
1
1
1
1
1
1
1
1
1
1
1
1
1
1
1
1
1
1
1
1
1
1
1
1
1
1
1.00048
1.00533
1
1
1
1
1
1
1
1
1
1
1
1
1
1
1
1
1
1
1
1
1
1
1
1
1
1
1
1
1
1
1
1
1
1
1
1
1
1
1
1
1
1
1
1
1
1
1
0.999944
1
1
1
1
1
1
1
1
1
1
1
1
1
1
1
1
1
1
1
1
1
1
1
1
1
1
1
1
1
1
1
1
1
1
1
1
1
1
1
1
1
1
1
1
1
1
1
0.999982
1
1
1
1
1
1
1
1
1
1
1
1
1
1
1
1
1
1
1
1
1
1
1
1
1
1
1
1
1
1
1
1
1
1
1
1
1
1
1
1
1
1
1
1
1
1
1
0.999997
1
1
1
1
1
1
1
1
1
1
1
1
1
1
1
1
1
1
1
1
1
1
1
1
1
1
1
1
1
1
1
1
1
1
1
1
1
1
1
1
1
1
1
1
1
1
1
1
1
1
1
1
1
1
1
1
1
1
1
1
1
1
1
1
1
1
1
1
1
1
1
1
1
1
1
1
1
1
1
1
1
1
1
1
1
1
1
1
1
1
1
1
1
1
1
1
1
1
1
1
1
1
1
1
1
1
1
1
1
1
1
1
1
1
1
1
1
1
1
1
1
1
1
1
1
1
1
1
1
1
1
1
1
1
1
1
1
1
1
1
1
1
1
1
1
1
1
1
1
1
1
1
1
1
1
1
1
1
1
1
1
1
1
1
1
1
1
1
1
1
1
1
1
1
1
1
1
1
1
1
1
1
1
1
1
1
1
1
1
1
1
1
1
1
1
1
1
1
1
1
1
1
1
1
1
1
1
1
1
1
1
1
1
1
1
1
1
1
1
1
1
1
1
1
1
1
1
1
1
1
1
1
1
1
1
1
1
1
1
1
1
1
1
1
1
1
1
1
1
1
1
1
1
1
1
1
1
1
1
1
1
1
1
1
1
1
1
1
1
1
1
1
1
1
1
1
1
1
1
1
1
1
1
1
1
1
1
1
1
1
1
1
1
1
1
1
1
1
1
1
1
1
1
1
1
1
1
1
1
1
1
1
1
1
1
1
1
1
1
1
1
1
1
1
1
1
1
1
1
1
1
1
1
1
1
0.999998
1
1
1
1
1
1
1
1
1
1
1
1
1
1
1
1
1
1
1
1
1
1
1
1
1
1
1
1
1
1
1
1
1
1
1
1
1
1
1
1
1
1
1
1
1
1
1
0.999982
1
1
1
1
1
1
1
1
1
1
1
1
1
1
1
1
1
1
1
1
1
1
1
1
1
1
1
1
1
1
1
1
1
1
1
1
1
1
1
1
1
1
1
1
1
1
1
0.999944
1
1
1
1
1
1
1
1
1
1
1
1
1
1
1
1
1
1
1
1
1
1
1
1
1
1
1
1
1
1
1
1
1
1
1
1
1
1
1
1
1
1
1
1
1
1
1.00048
1.00535
1
1
1
1
1
1
1
1
1
1
1
1
1
1
1
1
1
1
1
1
1
1
1
1
1
1
1
1
1
1
1
1
1
1
1
1
1
1
1
1
1
1
1
1
1
1.00065
1.02474
1.1316
1
1
1
1
1
1
1
1
1
1
1
1
1
1
1
1
1
1
1
1
1
1
1
1
1
1
1
1
1
1
1
1
1
1
1
1
1
1
1
1
1
1
1
1.00003
1.00194
1.0327
1.2058
1.40312
1
1
1
1
1
1
1
1
1
1
1
1
1
1
1
1
1
1
1
1
1
1
1
1
1
1
1
1
1
1
1
1
1
1
1
1
1
1
1
1
1
1
1.00012
1.0049
1.0687
1.25348
1.43153
1.52593
1
1
1
1
1
1
1
1
1
1
1
1
1
1
1
1
1
1
1
1
1
1
1
1
1
1
1
1
1
1
1
1
1
1
1
1
1
1
1
1
1
1.00044
1.0144
1.10987
1.32286
1.48292
1.54861
1.55385
1
1
1
1
1
1
1
1
1
1
1
1
1
1
1
1
1
1
1
1
1
1
1
1
1
1
1
1
1
1
1
1
1
1
1
1
1
1
1
1.00003
1.00257
1.03155
1.18388
1.3861
1.51751
1.53768
1.54545
1.54888
1
1
1
1
1
1
1
1
1
1
1
1
1
1
1
1
1
1
1
1
1
1
1
1
1
1
1
1
1
1
1
1
1
1
1
1
1
1
1.00033
1.007
1.0866
1.26454
1.44566
1.51095
1.54066
1.5573
1.55776
1.55819
1
1
1
1
1
1
1
1
1
1
1
1
1
1
1
1
1
1
1
1
1
1
1
1
1
1
1
1
1
1
1
1
1
1
1
0.999999
1.00004
1.00152
1.03066
1.14791
1.35364
1.48253
1.54548
1.55912
1.55813
1.55788
1.55883
1.55898
1
1
1
1
1
1
1
1
1
1
1
1
1
1
1
1
1
1
1
1
1
1
1
1
1
1
1
1
1
1
1
1
1
1
1
1.00034
1.01073
1.07498
1.25978
1.42436
1.52668
1.54675
1.55016
1.551
1.55107
1.5521
1.55495
1.55636
1
1
1
1
1
1
1
1
1
1
1
1
1
1
1
1
1
1
1
1
1
1
1
1
1
1
1
1
1
1
1
1
0.999999
1.00009
1.00365
1.03506
1.17883
1.35725
1.49548
1.52387
1.53688
1.54685
1.55094
1.55246
1.55348
1.55476
1.55648
1.55767
1
1
1
1
1
1
1
1
1
1
1
1
1
1
1
1
1
1
1
1
1
1
1
1
1
1
1
1
1
1
0.999999
1.00002
1.00118
1.01797
1.12355
1.29158
1.44076
1.50642
1.54026
1.55296
1.55424
1.55627
1.55784
1.55766
1.5574
1.55763
1.5582
1.55896
1
1
1
1
1
1
1
1
1
1
1
1
1
1
1
1
1
1
1
1
1
1
1
1
1
1
1
1
0.999999
1.00001
1.00044
1.01062
1.08018
1.23409
1.39846
1.49733
1.54616
1.55542
1.55502
1.55601
1.55698
1.55763
1.55726
1.55732
1.55707
1.55735
1.55835
1.55946
1
1
1
1
1
1
1
1
1
1
1
1
1
1
1
1
1
1
1
1
1
1
1
1
1
1
1
0.999998
1.00022
1.00782
1.05207
1.19781
1.36311
1.48308
1.53824
1.54523
1.54835
1.54963
1.55059
1.55279
1.55539
1.55686
1.55771
1.55829
1.55842
1.559
1.56041
1.56167
1
1
1
1
1
1
1
1
1
1
1
1
1
1
1
1
1
1
1
1
1
1
1
0.999999
1
0.999996
1.00019
1.00538
1.04008
1.17869
1.33419
1.47365
1.51562
1.53125
1.54171
1.55151
1.55371
1.55501
1.55651
1.55874
1.56125
1.56305
1.56366
1.56384
1.56406
1.56452
1.56579
1.56671
1
1
1
1
1
1
1
1
1
1
1
1
1
1
1
1
1
1
1
1
1
0.999999
1
0.999995
1.0002
1.00332
1.03803
1.16634
1.32494
1.45267
1.50602
1.53772
1.5525
1.5573
1.55859
1.56216
1.56375
1.56431
1.56521
1.56651
1.56793
1.56901
1.56966
1.57027
1.57068
1.57096
1.57176
1.57202
1
1
1
1
1
1
1
1
1
1
1
1
1
1
1
1
1
1
1
1
1
0.999995
1.00012
1.00292
1.04323
1.15268
1.32195
1.44077
1.51822
1.55306
1.56221
1.56305
1.56435
1.56529
1.56565
1.56671
1.56837
1.56979
1.57122
1.57277
1.57381
1.57423
1.57468
1.57527
1.57564
1.57586
1.57651
1.5764
1
1
1
1
1
1
1
1
1
1
1
1
1
1
1
1
1
1
1
0.999995
1.00007
1.00415
1.04204
1.15538
1.32962
1.45328
1.53393
1.55673
1.56099
1.56498
1.56578
1.56525
1.56553
1.56695
1.56883
1.57056
1.57241
1.57425
1.5758
1.57725
1.57833
1.57875
1.57925
1.58004
1.58054
1.58069
1.58103
1.58091
1
1
1
1
1
1
1
1
1
1
1
1
1
1
1
0.999999
0.999999
0.999993
1.0001
1.00501
1.03853
1.17763
1.34333
1.47856
1.54318
1.55407
1.56549
1.56679
1.56769
1.57001
1.57078
1.57168
1.57318
1.57515
1.57678
1.57796
1.57882
1.57981
1.58077
1.58167
1.58251
1.5829
1.58303
1.58319
1.58321
1.58306
1.58299
1.58291
1
1
1
1
1
1
1
1
1
1
1
1
1
0.999999
0.999999
0.99999
1.00022
1.00479
1.05076
1.20088
1.35784
1.50258
1.54261
1.56338
1.57343
1.57822
1.57861
1.57608
1.57604
1.57718
1.57886
1.58068
1.58239
1.58392
1.584
1.58356
1.583
1.58285
1.58295
1.58336
1.58419
1.5845
1.58438
1.58402
1.58363
1.58341
1.58319
1.58323
1
1
1
1
1
1
1
1
1
1
1
0.999999
0.999999
0.999986
1.0002
1.00583
1.07438
1.21744
1.40601
1.50851
1.5673
1.59503
1.59531
1.59473
1.59013
1.58654
1.58362
1.58069
1.57967
1.58021
1.58206
1.58509
1.58685
1.58664
1.58611
1.58548
1.58483
1.58409
1.5837
1.58354
1.58349
1.58368
1.58355
1.58294
1.5821
1.58155
1.58089
1.58125
1
1
1
1
1
1
1
1
1
0.999999
0.999999
0.999982
1.00024
1.01139
1.08571
1.24859
1.43646
1.53815
1.60856
1.60992
1.60625
1.59707
1.59162
1.58681
1.58261
1.57978
1.57866
1.57824
1.57874
1.58052
1.58185
1.58314
1.58428
1.58439
1.58416
1.58362
1.58285
1.58196
1.58125
1.58103
1.58102
1.58108
1.58093
1.58013
1.57893
1.57782
1.57644
1.57697
1
1
1
1
1
1
1
1
1
0.999972
1.00064
1.0184
1.10551
1.30587
1.45892
1.57835
1.62393
1.62241
1.61417
1.60634
1.59274
1.58218
1.5773
1.57342
1.57167
1.57246
1.5734
1.57465
1.57622
1.57693
1.57687
1.57681
1.57734
1.57781
1.5777
1.57725
1.57643
1.57535
1.57432
1.57389
1.5739
1.57401
1.57399
1.57358
1.57258
1.57143
1.56983
1.57033
1
1
1
1
1
0.999995
1.00002
1.00003
1.00212
1.0268
1.14828
1.33371
1.50155
1.60676
1.60593
1.60351
1.59921
1.58769
1.57839
1.57214
1.56891
1.56523
1.56298
1.56334
1.56414
1.56541
1.56688
1.568
1.56908
1.56929
1.56916
1.56869
1.5681
1.5677
1.56721
1.56634
1.56519
1.564
1.56298
1.56245
1.56234
1.56239
1.56253
1.56251
1.56208
1.56124
1.56013
1.56085
1
0.999994
1
1.00003
1.00051
1.00442
1.02229
1.07382
1.18457
1.34181
1.50505
1.57896
1.62286
1.6226
1.61515
1.60013
1.58017
1.55546
1.54308
1.54317
1.54498
1.54729
1.54999
1.55355
1.55553
1.55612
1.55655
1.55673
1.55659
1.55667
1.55646
1.55604
1.55562
1.55516
1.55479
1.55423
1.55339
1.55247
1.55187
1.55169
1.55169
1.55193
1.55253
1.55317
1.55331
1.55318
1.55277
1.55371
1.00078
1.00575
1.02215
1.06969
1.13015
1.21306
1.30112
1.37961
1.45278
1.50387
1.53348
1.5532
1.56514
1.56217
1.55469
1.5472
1.53957
1.53685
1.53214
1.53241
1.53413
1.53694
1.53951
1.54222
1.5438
1.54483
1.54543
1.54537
1.54535
1.54519
1.54506
1.54534
1.54607
1.54685
1.54749
1.5476
1.54737
1.54684
1.54641
1.54641
1.54658
1.54692
1.54742
1.54798
1.54815
1.54816
1.54796
1.5483
1.07812
1.17815
1.28876
1.38229
1.47009
1.5609
1.61887
1.6657
1.69561
1.69089
1.66328
1.6143
1.56894
1.53628
1.52601
1.51687
1.51413
1.51711
1.52165
1.52623
1.53085
1.5338
1.53591
1.53764
1.53847
1.53927
1.54023
1.54157
1.54187
1.54163
1.54148
1.54217
1.54409
1.54625
1.54728
1.54736
1.54718
1.5464
1.54537
1.54479
1.54483
1.54511
1.54538
1.54564
1.54582
1.54595
1.54593
1.54577
1.4039
1.23342
1.09824
1.04646
0.99993
0.981792
0.996904
1.02943
1.04211
1.05025
1.07537
1.11032
1.11503
1.11093
1.11163
1.11427
1.11372
1.11486
1.12062
1.12169
1.12065
1.11804
1.11709
1.11604
1.11209
1.10902
1.10891
1.10887
1.10835
1.10699
1.10563
1.10455
1.10326
1.1027
1.1027
1.10303
1.10457
1.10549
1.10548
1.10534
1.10469
1.10326
1.10286
1.10293
1.10321
1.10364
1.10348
1.10362
1.10611
1.1663
1.3469
1.57999
1.81518
2.04801
2.24238
2.23656
2.17948
2.10676
2.09302
2.08577
2.06791
2.04497
2.03319
2.02773
2.02424
2.01809
2.00768
1.99462
1.97372
1.94446
1.92593
1.91858
1.91378
1.91281
1.90987
1.90313
1.89176
1.86849
1.84845
1.84136
1.83596
1.83096
1.8243
1.81698
1.80714
1.78819
1.76397
1.75365
1.74903
1.74569
1.74489
1.742
1.73737
1.72985
1.71199
1.68971
1.67972
1.67468
1.67036
1.66642
1.66247
1.65698
1.64712
1.63316
1.62501
1.62076
1.61642
1.61136
1.60421
1.5913
1.57322
1.56358
1.56019
1.5575
1.55525
1.55364
1.55138
1.54803
1.53888
1.51996
1.50582
1.50155
1.49885
1.49672
1.49476
1.49158
1.48784
1.48255
1.47258
1.4609
1.45525
1.45207
1.44862
1.44397
1.43631
1.42405
1.4152
1.41172
1.40883
1.40655
1.40469
1.4024
1.39979
1.39423
1.39447
1.41352
1.47418
1.57689
1.69329
1.78286
1.85306
1.91231
1.92204
1.91138
1.89533
1.87986
1.87011
1.8629
1.85677
1.84907
1.83975
1.8358
1.83481
1.83312
1.82933
1.82421
1.81874
1.8103
1.8011
1.79705
1.79406
1.79149
1.78989
1.78748
1.7843
1.77946
1.76998
1.75761
1.75092
1.74869
1.74727
1.74588
1.74431
1.74225
1.73953
1.73571
1.72986
1.72213
1.7153
1.71137
1.70883
1.70311
1.50185
1.42271
1.31464
1.24626
1.19916
1.12955
1.10112
1.0905
1.06784
1.0591
1.06252
1.06793
1.06638
1.06648
1.06978
1.07706
1.08287
1.08738
1.09495
1.10144
1.10176
1.10174
1.10228
1.10309
1.10227
1.10181
1.10205
1.10259
1.10259
1.10164
1.10099
1.10057
1.09991
1.09951
1.09931
1.09964
1.10062
1.1009
1.10092
1.1008
1.09999
1.09885
1.0985
1.09857
1.09883
1.09879
1.09944
1.10295
1.15066
1.35911
1.53038
1.57398
1.66655
1.77288
1.95866
2.08499
2.1297
2.12036
2.10992
2.09468
2.07344
2.05462
2.04248
2.03148
2.02188
2.01366
2.00606
1.99579
1.97973
1.95694
1.93668
1.92514
1.91875
1.91326
1.90782
1.90048
1.89079
1.87403
1.85296
1.84091
1.83474
1.83062
1.82641
1.81984
1.81081
1.79546
1.77334
1.7582
1.75248
1.74827
1.74377
1.73973
1.73461
1.7275
1.7146
1.69572
1.68351
1.67762
1.67269
1.6679
1.66353
1.65919
1.65233
1.64066
1.63027
1.62459
1.61973
1.61426
1.60687
1.59505
1.57886
1.56705
1.56161
1.5586
1.55596
1.55313
1.54988
1.54579
1.53913
1.52524
1.51059
1.50366
1.49981
1.49679
1.49431
1.49354
1.49073
1.48625
1.47847
1.46745
1.46018
1.45652
1.45282
1.44792
1.4407
1.42987
1.42071
1.41591
1.41294
1.4105
1.40881
1.40722
1.40647
1.41219
1.4362
1.50058
1.56594
1.61316
1.65794
1.72189
1.76858
1.82006
1.85059
1.86821
1.87809
1.87876
1.87524
1.86977
1.86261
1.8541
1.84476
1.8401
1.83833
1.83553
1.83128
1.82619
1.82049
1.8124
1.8038
1.79992
1.7973
1.7945
1.79225
1.78957
1.78627
1.78128
1.77232
1.7611
1.75415
1.75149
1.75001
1.74861
1.74702
1.74492
1.742
1.73791
1.73222
1.72487
1.71821
1.71407
1.71146
1.7058
1.53845
1.49855
1.43273
1.3566
1.29512
1.2232
1.16524
1.13619
1.10334
1.06174
1.05583
1.05399
1.04504
1.04313
1.04553
1.04985
1.05357
1.05834
1.06578
1.07639
1.07931
1.07996
1.08168
1.0843
1.08572
1.08667
1.08852
1.09087
1.09173
1.09156
1.09094
1.08972
1.08918
1.08918
1.0893
1.09013
1.09059
1.09057
1.09061
1.09025
1.08929
1.08911
1.08916
1.08954
1.09017
1.09204
1.1017
1.152
1.35252
1.54094
1.60043
1.60143
1.60684
1.62145
1.7035
1.91477
2.10373
2.15202
2.13809
2.10864
2.08435
2.0735
2.06013
2.04151
2.02204
2.01105
2.00391
1.9947
1.98322
1.97124
1.95682
1.94239
1.9291
1.91923
1.91036
1.89994
1.88806
1.8761
1.86119
1.84634
1.83629
1.8295
1.82294
1.81625
1.80848
1.79837
1.7845
1.76822
1.75776
1.75272
1.74765
1.7416
1.73376
1.72406
1.71264
1.69954
1.68838
1.68293
1.6788
1.67334
1.66696
1.6594
1.64992
1.6386
1.62793
1.61999
1.61421
1.60867
1.60174
1.59251
1.58299
1.57378
1.56502
1.55988
1.55695
1.55399
1.55015
1.54433
1.53538
1.5245
1.5145
1.50712
1.50219
1.4986
1.49534
1.49183
1.4879
1.48314
1.47613
1.46695
1.45834
1.45308
1.44971
1.44562
1.44002
1.43251
1.42175
1.41269
1.40954
1.40748
1.40784
1.41113
1.42687
1.46762
1.53318
1.59711
1.63042
1.64384
1.65231
1.66526
1.68934
1.73133
1.79663
1.84612
1.86852
1.88358
1.88376
1.87908
1.87032
1.86229
1.85468
1.84513
1.83609
1.83242
1.82965
1.82521
1.8199
1.81398
1.80871
1.80271
1.79646
1.79335
1.79073
1.78798
1.78481
1.78033
1.77346
1.76568
1.75849
1.75197
1.74793
1.74647
1.74506
1.74311
1.74032
1.73619
1.73052
1.72362
1.71768
1.71346
1.71038
1.70446
1.55594
1.53796
1.49932
1.44021
1.38045
1.31707
1.25408
1.21679
1.17961
1.12484
1.10571
1.09241
1.06726
1.05264
1.05387
1.05139
1.04597
1.04549
1.04829
1.05148
1.05366
1.0559
1.05999
1.06704
1.07128
1.07421
1.07716
1.07879
1.07975
1.08041
1.08021
1.07982
1.08008
1.08131
1.08332
1.08445
1.08444
1.08411
1.08328
1.08157
1.08062
1.08064
1.08079
1.08161
1.08419
1.10848
1.20757
1.35152
1.53991
1.60613
1.61731
1.61715
1.61482
1.61208
1.60738
1.65599
1.84135
2.05892
2.10933
2.10827
2.10596
2.09758
2.0802
2.05738
2.03715
2.02005
2.00792
1.99744
1.98869
1.98095
1.97333
1.96229
1.94607
1.92834
1.91417
1.90202
1.89063
1.88099
1.87216
1.85993
1.84475
1.83287
1.82539
1.81851
1.81204
1.80616
1.79809
1.78551
1.77064
1.75699
1.74885
1.74139
1.73246
1.72296
1.71461
1.70764
1.69984
1.68922
1.67817
1.67131
1.66573
1.65908
1.65094
1.64215
1.63336
1.62511
1.61711
1.60934
1.60232
1.59662
1.59104
1.58335
1.57462
1.56633
1.56023
1.55616
1.5513
1.54375
1.53441
1.52676
1.52069
1.5151
1.50882
1.49989
1.49311
1.49026
1.4877
1.48404
1.47862
1.47083
1.46195
1.45468
1.45034
1.44768
1.44419
1.43792
1.42664
1.41586
1.41251
1.41226
1.41689
1.44375
1.51379
1.57654
1.62514
1.65606
1.66132
1.66007
1.65621
1.6484
1.64962
1.65899
1.69483
1.75215
1.81015
1.8566
1.87423
1.87804
1.87984
1.87608
1.86748
1.85406
1.84111
1.83592
1.83216
1.82704
1.82301
1.81953
1.81527
1.8092
1.80212
1.79718
1.79429
1.79132
1.78757
1.7826
1.77733
1.77153
1.76445
1.75709
1.75152
1.74794
1.74622
1.74456
1.74221
1.73823
1.73137
1.72407
1.71919
1.71526
1.71191
1.70567
1.56642
1.56009
1.54029
1.49976
1.45176
1.39375
1.33233
1.29075
1.25165
1.1944
1.16092
1.13825
1.10896
1.07822
1.07301
1.06451
1.04911
1.04655
1.04916
1.04903
1.04798
1.04849
1.0507
1.05532
1.06165
1.06669
1.0709
1.07227
1.07294
1.07419
1.07465
1.07448
1.07504
1.07816
1.08044
1.08078
1.08076
1.08046
1.07958
1.07821
1.07777
1.07788
1.07835
1.0802
1.10599
1.27426
1.44384
1.54103
1.60427
1.62403
1.62165
1.62031
1.61972
1.61911
1.60993
1.59849
1.61783
1.75884
1.96519
2.09176
2.12169
2.11451
2.09361
2.07451
2.05659
2.03396
2.01174
2.00001
1.99116
1.98497
1.97698
1.96864
1.95713
1.93815
1.91873
1.90606
1.89641
1.88726
1.8778
1.86775
1.85365
1.83697
1.8278
1.82146
1.81487
1.80804
1.80185
1.79491
1.7829
1.76431
1.74844
1.7398
1.73304
1.72699
1.72106
1.71521
1.70836
1.6988
1.68668
1.67497
1.66631
1.65898
1.65246
1.64678
1.64089
1.63192
1.61927
1.6096
1.60367
1.59885
1.59385
1.58846
1.58258
1.57544
1.5673
1.5577
1.54946
1.54245
1.53625
1.53053
1.52569
1.52074
1.514
1.50476
1.49631
1.49019
1.48568
1.481
1.47619
1.47122
1.46601
1.46063
1.45435
1.44622
1.44012
1.43435
1.42853
1.42228
1.42265
1.43333
1.4679
1.54389
1.62352
1.64668
1.66305
1.67047
1.66924
1.66693
1.66179
1.65261
1.64725
1.64472
1.64779
1.66591
1.71221
1.78544
1.84391
1.87484
1.88647
1.88373
1.8758
1.86474
1.85163
1.84146
1.8347
1.82892
1.82395
1.82083
1.81847
1.81569
1.8112
1.805
1.79866
1.79378
1.78924
1.78403
1.77834
1.7731
1.76845
1.76393
1.75861
1.75348
1.74981
1.74672
1.74301
1.7378
1.73158
1.72596
1.72198
1.71847
1.71526
1.70873
1.57448
1.57054
1.56227
1.53973
1.50515
1.46014
1.4036
1.35759
1.3156
1.26534
1.22867
1.20181
1.1689
1.13201
1.11917
1.10614
1.08311
1.07223
1.07005
1.06231
1.0544
1.05266
1.05303
1.05251
1.05359
1.05777
1.06211
1.06408
1.06597
1.06853
1.07148
1.07251
1.07407
1.0779
1.07976
1.08008
1.08036
1.0803
1.07934
1.07834
1.07826
1.07868
1.08134
1.10613
1.27424
1.50885
1.58973
1.62031
1.63072
1.62579
1.62541
1.62137
1.61706
1.61456
1.61201
1.60159
1.58905
1.59397
1.67518
1.8766
2.03906
2.08185
2.08947
2.0835
2.06934
2.04346
2.01538
2.00021
1.99214
1.98645
1.97942
1.96967
1.95862
1.94262
1.9226
1.90898
1.8997
1.89121
1.88302
1.87396
1.86122
1.84382
1.82898
1.82148
1.81561
1.81106
1.80672
1.80082
1.79036
1.77022
1.74906
1.73931
1.7345
1.73126
1.72999
1.72548
1.71879
1.70784
1.68909
1.67334
1.66526
1.65978
1.65553
1.65149
1.64554
1.63332
1.61674
1.60837
1.60427
1.60144
1.60037
1.59783
1.59354
1.58638
1.57154
1.55341
1.54447
1.54098
1.53885
1.53741
1.53434
1.52993
1.52416
1.51513
1.50003
1.4871
1.48186
1.47919
1.47726
1.47568
1.47341
1.46921
1.46129
1.45019
1.44083
1.43607
1.43372
1.43657
1.45899
1.51445
1.58188
1.64597
1.6667
1.67818
1.68347
1.68228
1.67869
1.67476
1.66821
1.6586
1.65118
1.64755
1.64556
1.64465
1.6512
1.6838
1.75165
1.81262
1.85833
1.8685
1.87048
1.86857
1.86091
1.84795
1.83697
1.83094
1.82743
1.82537
1.82431
1.82321
1.82061
1.8131
1.80168
1.79344
1.78856
1.78494
1.78116
1.77716
1.77337
1.76963
1.7658
1.76124
1.7552
1.74803
1.74135
1.73599
1.73231
1.72902
1.72592
1.72273
1.71956
1.71287
1.58013
1.57736
1.57351
1.56401
1.5436
1.50847
1.4632
1.42111
1.37649
1.32636
1.29191
1.26023
1.22602
1.19099
1.17004
1.14986
1.12023
1.1014
1.093
1.08091
1.06471
1.06151
1.06117
1.05755
1.05744
1.05985
1.0601
1.0596
1.06001
1.06166
1.06544
1.07012
1.07481
1.08006
1.08144
1.08156
1.08192
1.08197
1.08113
1.08011
1.08023
1.08606
1.12964
1.27388
1.52455
1.61852
1.63984
1.64561
1.64219
1.62288
1.61714
1.61897
1.61607
1.60966
1.60507
1.60003
1.59055
1.57553
1.56794
1.60724
1.77175
1.94807
2.05549
2.07679
2.07083
2.0465
2.01689