/*--------------------------------*- C++ -*----------------------------------*\
  =========                 |
  \\      /  F ield         | OpenFOAM: The Open Source CFD Toolbox
   \\    /   O peration     | Website:  https://openfoam.org
    \\  /    A nd           | Version:  7
     \\/     M anipulation  |
\*---------------------------------------------------------------------------*/
FoamFile
{
    version     2.0;
    format      ascii;
    class       volVectorField;
    location    "2.6";
    object      U;
}
// * * * * * * * * * * * * * * * * * * * * * * * * * * * * * * * * * * * * * //

dimensions      [0 1 -1 0 0 0 0];

internalField   nonuniform List<vector> 
18432
(
(3 4.3189e-17 0)
(3 -2.65585e-17 0)
(3 1.48726e-16 0)
(3 3.31411e-16 0)
(3 1.00947e-15 0)
(3 1.46585e-15 0)
(3 5.99333e-16 0)
(3 -1.20373e-16 0)
(3 -7.05374e-17 0)
(3 -6.63433e-16 0)
(3 -1.23893e-16 0)
(3 1.53197e-16 0)
(3 -4.30083e-17 0)
(3 3.75946e-17 0)
(3 -5.8567e-16 0)
(3 -1.30997e-15 0)
(3 -1.50044e-15 0)
(3 -1.12548e-15 0)
(3 -7.93308e-16 0)
(3 -6.20939e-16 0)
(3 -9.18521e-16 0)
(3 -1.84436e-15 0)
(3 -1.73329e-15 0)
(3 -1.84878e-15 0)
(3 -1.08168e-15 0)
(3 -2.47471e-16 0)
(3 -3.23319e-16 0)
(3 -7.0495e-16 0)
(3 -1.53129e-15 0)
(3 -2.04272e-15 0)
(3 -1.9652e-15 0)
(3 -1.25849e-15 0)
(3 -6.06843e-16 0)
(3 -2.93984e-16 0)
(3 1.68889e-16 0)
(3 1.05016e-15 0)
(3 1.92199e-15 0)
(3 1.42433e-15 0)
(3 8.58084e-16 0)
(3 3.99228e-16 0)
(3 1.14831e-16 0)
(3 -5.9523e-18 0)
(3 -1.31481e-17 0)
(3 -1.09095e-16 0)
(3 -2.9423e-16 0)
(3 -5.20877e-16 0)
(3 2.19017e-18 0)
(3 3.25009e-16 0)
(3 1.78033e-16 0)
(3 3.86426e-16 0)
(3 6.14116e-16 0)
(3 3.77088e-16 0)
(3 2.48299e-16 0)
(3 1.27893e-16 0)
(3 -6.2507e-16 0)
(3 -2.21077e-15 0)
(3 -2.41253e-15 0)
(3 -1.67448e-15 0)
(3 -9.80214e-16 0)
(3 1.8243e-17 0)
(3 1.56844e-16 0)
(3 -4.32621e-16 0)
(3 -1.10376e-15 0)
(3 -2.28789e-15 0)
(3 -2.26035e-15 0)
(3 -1.78586e-15 0)
(3 -1.83108e-15 0)
(3 -1.71069e-15 0)
(3 -1.45792e-15 0)
(3 -2.15371e-15 0)
(3 -2.12039e-15 0)
(3 -1.68373e-15 0)
(3 -6.62572e-16 0)
(3 -2.23586e-16 0)
(3 -6.3716e-16 0)
(3 -1.22603e-15 0)
(3 -1.75296e-15 0)
(3 -2.43343e-15 0)
(3 -2.55113e-15 0)
(3 -2.12693e-15 0)
(3 -1.2875e-15 0)
(3 -9.72994e-16 0)
(3 -6.12284e-16 0)
(3 5.35683e-16 0)
(3 1.49825e-15 0)
(3 1.24084e-15 0)
(3 6.8453e-16 0)
(3 -4.55943e-16 0)
(3 -7.32229e-16 0)
(3 -1.17308e-16 0)
(3 3.46566e-16 0)
(3 3.59232e-16 0)
(3 -2.17954e-16 0)
(3 -5.52564e-16 0)
(3 -4.00014e-16 0)
(3 -6.40867e-16 0)
(3 8.67622e-17 0)
(3 1.31239e-16 0)
(3 -6.08299e-17 0)
(3 -7.10058e-16 0)
(3 -2.31154e-15 0)
(3 -3.41271e-15 0)
(3 -2.85193e-15 0)
(3 -2.7553e-15 0)
(3 -2.70939e-15 0)
(3 -1.95112e-15 0)
(3 -1.34366e-15 0)
(3 -6.63342e-16 0)
(3 -2.381e-16 0)
(3 -2.80876e-16 0)
(3 -8.99952e-16 0)
(3 -1.28795e-15 0)
(3 -9.47742e-16 0)
(3 -3.34086e-16 0)
(3 -6.76453e-17 0)
(3 2.33671e-16 0)
(3 3.10577e-16 0)
(3 -1.30309e-16 0)
(3 -7.85409e-16 0)
(3 -4.74248e-16 0)
(3 -4.87131e-16 0)
(3 -8.69583e-16 0)
(3 -9.80704e-16 0)
(3 -7.21155e-16 0)
(3 -4.21354e-16 0)
(3 -1.01133e-15 0)
(3 -1.30359e-15 0)
(3 -1.90405e-15 0)
(3 -1.97894e-15 0)
(3 -2.11352e-15 0)
(3 -1.64431e-15 0)
(3 8.9411e-16 0)
(3 2.01643e-15 0)
(3 7.28289e-16 0)
(3 -5.44989e-16 0)
(3 -1.45247e-15 0)
(3 -2.08905e-15 0)
(3 -1.39493e-15 0)
(3 3.06251e-16 0)
(3 8.01298e-16 0)
(3 -7.98173e-16 0)
(3 -1.76267e-15 0)
(3 -1.42982e-15 0)
(3 -7.90391e-16 0)
(3 -2.46145e-16 0)
(3 -3.61557e-16 0)
(3 -6.45907e-16 0)
(3 -9.17341e-16 0)
(3 -1.35826e-15 0)
(3 -1.74812e-15 0)
(3 -1.98283e-15 0)
(3 -2.44499e-15 0)
(3 -2.016e-15 0)
(3 -1.58797e-15 0)
(3 -8.70716e-16 0)
(3 -7.64408e-16 0)
(3 -6.96111e-16 0)
(3 -3.78278e-16 0)
(3 -1.28415e-15 0)
(3 -1.32718e-15 0)
(3 -9.95544e-16 0)
(3 1.59369e-18 0)
(3 6.5503e-16 0)
(3 1.02919e-15 0)
(3 1.18109e-15 0)
(3 9.82522e-16 0)
(3 1.44625e-16 0)
(3 -7.97547e-16 0)
(3 -1.32343e-15 0)
(3 -1.12943e-15 0)
(3 -8.57461e-16 0)
(3 -2.64496e-16 0)
(3 -2.47659e-16 0)
(3 -5.21589e-16 0)
(3 -1.19776e-15 0)
(3 -1.44317e-15 0)
(3 -7.81428e-16 0)
(3 1.38931e-16 0)
(3 1.15263e-15 0)
(3 2.47492e-15 0)
(3 2.32678e-15 0)
(3 1.68957e-15 0)
(3 3.07952e-17 0)
(3 -1.36764e-15 0)
(3 -2.37476e-15 0)
(3 -1.35955e-15 0)
(3 6.21076e-16 0)
(3 4.37154e-16 0)
(3 -1.75625e-15 0)
(3 -1.91931e-15 0)
(3 -1.39568e-15 0)
(3 -4.69661e-16 0)
(3 -4.07635e-17 0)
(3 -3.46997e-17 0)
(3 -2.9711e-16 0)
(3 -2.4665e-16 0)
(3 -2.7273e-17 0)
(3 -8.85566e-16 0)
(3 -1.56256e-15 0)
(3 -1.69816e-15 0)
(3 -1.31002e-15 0)
(3 -7.82181e-16 0)
(3 6.46826e-17 0)
(3 4.78574e-16 0)
(3 8.75235e-16 0)
(3 6.38904e-16 0)
(3 1.13469e-16 0)
(3 -6.28603e-17 0)
(3 -1.18826e-16 0)
(3 -1.1088e-16 0)
(3 1.39164e-16 0)
(3 -2.30951e-16 0)
(3 -1.1273e-16 0)
(3 6.96712e-16 0)
(3 1.01845e-15 0)
(3 -2.83815e-16 0)
(3 -1.04208e-15 0)
(3 -6.24207e-16 0)
(3 -5.59516e-16 0)
(3 -4.91522e-16 0)
(3 4.8187e-16 0)
(3 1.01059e-15 0)
(3 8.22465e-17 0)
(3 3.11462e-16 0)
(3 1.16458e-15 0)
(3 1.77457e-15 0)
(3 1.58356e-15 0)
(3 1.26053e-15 0)
(3 1.11502e-15 0)
(3 1.10114e-15 0)
(3 3.6874e-16 0)
(3 -1.05487e-16 0)
(3 -5.5812e-16 0)
(3 -5.98257e-16 0)
(3 -3.47261e-16 0)
(3 -1.47816e-15 0)
(3 -1.3345e-15 0)
(3 -1.08625e-15 0)
(3 -1.81594e-15 0)
(3 -1.61424e-15 0)
(3 2.26043e-16 0)
(3 9.33202e-17 0)
(3 -1.71974e-16 0)
(3 2.26274e-16 0)
(3 4.43342e-16 0)
(3 -9.4609e-16 0)
(3 -1.27084e-15 0)
(3 -1.04027e-15 0)
(3 -5.17543e-16 0)
(3 -1.82441e-16 0)
(3 4.12044e-16 0)
(3 1.08814e-15 0)
(3 1.91127e-15 0)
(3 2.16039e-15 0)
(3 2.02406e-15 0)
(3 1.72145e-15 0)
(3 4.82897e-16 0)
(3 -1.99868e-16 0)
(3 -1.93775e-17 0)
(3 -3.60171e-17 0)
(3 -7.74701e-17 0)
(3 4.29801e-16 0)
(3 6.81825e-16 0)
(3 -1.65193e-16 0)
(3 -9.28428e-16 0)
(3 -1.00477e-15 0)
(3 -7.04321e-16 0)
(3 -2.23789e-18 0)
(3 4.26936e-16 0)
(3 1.02316e-15 0)
(3 1.28865e-15 0)
(3 5.59847e-16 0)
(3 4.44485e-16 0)
(3 9.12534e-16 0)
(3 7.00234e-16 0)
(3 -3.01446e-16 0)
(3 -6.93263e-16 0)
(3 6.59582e-16 0)
(3 9.33687e-16 0)
(3 9.21933e-16 0)
(3 6.99765e-16 0)
(3 -9.24287e-16 0)
(3 -2.06358e-15 0)
(3 -1.23984e-15 0)
(3 -2.31957e-16 0)
(3 -8.30927e-16 0)
(3 -2.07548e-15 0)
(3 -3.04987e-15 0)
(3 -7.98295e-17 0)
(3 -2.55952e-17 0)
(3 8.24866e-17 0)
(3 6.46752e-16 0)
(3 5.72866e-16 0)
(3 2.99698e-16 0)
(3 -2.66692e-16 0)
(3 -6.30725e-17 0)
(3 6.44649e-16 0)
(3 6.00211e-16 0)
(3 8.08438e-16 0)
(3 7.32198e-16 0)
(3 4.64203e-16 0)
(3 4.77801e-16 0)
(3 4.357e-16 0)
(3 4.49999e-16 0)
(3 3.97739e-16 0)
(3 2.6692e-17 0)
(3 -3.0533e-16 0)
(3 7.73257e-18 0)
(3 1.06136e-16 0)
(3 2.60938e-17 0)
(3 3.43111e-17 0)
(3 -1.08157e-16 0)
(3 -6.96636e-16 0)
(3 -1.20296e-15 0)
(3 -3.30356e-16 0)
(3 7.32471e-16 0)
(3 8.27251e-16 0)
(3 7.43965e-16 0)
(3 9.66224e-16 0)
(3 4.49577e-16 0)
(3 -4.48433e-16 0)
(3 -3.24046e-16 0)
(3 3.47056e-16 0)
(3 6.91004e-16 0)
(3 9.47504e-16 0)
(3 1.13827e-15 0)
(3 1.33064e-15 0)
(3 1.09151e-15 0)
(3 3.44142e-16 0)
(3 -1.45501e-15 0)
(3 -2.83767e-15 0)
(3 -2.42635e-15 0)
(3 -2.303e-15 0)
(3 -2.28752e-15 0)
(3 -2.07618e-15 0)
(3 -2.95138e-15 0)
(3 -2.83775e-17 0)
(3 1.79152e-16 0)
(3 3.12264e-16 0)
(3 6.15969e-17 0)
(3 4.098e-16 0)
(3 4.97093e-16 0)
(3 2.29019e-16 0)
(3 2.70634e-16 0)
(3 -1.49646e-16 0)
(3 -5.21541e-16 0)
(3 -4.76105e-16 0)
(3 3.89205e-16 0)
(3 4.34928e-16 0)
(3 -1.20499e-16 0)
(3 -1.31365e-16 0)
(3 -6.85698e-16 0)
(3 -7.35554e-16 0)
(3 -7.09894e-16 0)
(3 -9.18086e-16 0)
(3 -3.74097e-16 0)
(3 -2.64556e-17 0)
(3 9.55518e-17 0)
(3 2.10004e-16 0)
(3 5.26601e-16 0)
(3 5.41339e-16 0)
(3 2.33693e-16 0)
(3 8.15909e-16 0)
(3 1.30334e-15 0)
(3 1.24491e-15 0)
(3 4.58575e-16 0)
(3 1.17869e-16 0)
(3 7.24487e-16 0)
(3 8.09564e-16 0)
(3 6.52953e-16 0)
(3 9.92776e-16 0)
(3 1.57255e-15 0)
(3 1.95597e-15 0)
(3 6.51744e-16 0)
(3 -1.03123e-16 0)
(3 -2.35189e-16 0)
(3 -1.36279e-16 0)
(3 -8.84776e-16 0)
(3 -2.79473e-15 0)
(3 -3.37274e-15 0)
(3 -2.40761e-15 0)
(3 -1.09274e-15 0)
(3 -4.69999e-16 0)
(3 -5.94748e-16 0)
(3 -1.29732e-16 0)
(3 -6.27621e-17 0)
(3 -1.69673e-17 0)
(3 -8.86647e-17 0)
(3 -1.42143e-16 0)
(3 -1.51034e-16 0)
(3 -7.00077e-16 0)
(3 -8.95121e-16 0)
(3 -1.45597e-15 0)
(3 -1.60638e-15 0)
(3 -1.49626e-15 0)
(3 -5.49827e-16 0)
(3 -6.74842e-17 0)
(3 2.47505e-17 0)
(3 -2.35336e-16 0)
(3 2.31584e-17 0)
(3 2.99638e-17 0)
(3 5.55434e-18 0)
(3 -1.81328e-16 0)
(3 -7.05912e-16 0)
(3 -6.92724e-16 0)
(3 -3.72857e-16 0)
(3 -1.95606e-16 0)
(3 2.88549e-17 0)
(3 -2.39549e-17 0)
(3 1.4369e-16 0)
(3 1.7633e-15 0)
(3 1.99721e-15 0)
(3 1.50433e-15 0)
(3 7.56561e-16 0)
(3 6.10755e-16 0)
(3 1.88998e-15 0)
(3 3.34654e-15 0)
(3 3.44278e-15 0)
(3 3.06046e-15 0)
(3 2.77336e-15 0)
(3 1.79205e-15 0)
(3 -1.49962e-16 0)
(3 -2.04155e-15 0)
(3 -2.00709e-15 0)
(3 -1.35016e-15 0)
(3 -1.65487e-15 0)
(3 -2.24311e-15 0)
(3 -2.0125e-15 0)
(3 -1.00953e-15 0)
(3 -2.83003e-16 0)
(3 4.82287e-16 0)
(3 1.73478e-15 0)
(3 -1.61845e-17 0)
(3 8.754e-17 0)
(3 8.14629e-17 0)
(3 2.5339e-17 0)
(3 -7.0967e-17 0)
(3 9.33936e-17 0)
(3 7.33237e-16 0)
(3 7.21686e-16 0)
(3 3.07105e-16 0)
(3 -1.65112e-16 0)
(3 -4.90944e-16 0)
(3 -1.42482e-15 0)
(3 -1.2327e-15 0)
(3 3.09759e-16 0)
(3 3.88215e-16 0)
(3 9.19723e-16 0)
(3 1.17275e-15 0)
(3 1.23209e-15 0)
(3 2.22135e-16 0)
(3 -7.08158e-16 0)
(3 -9.38502e-16 0)
(3 -1.73863e-15 0)
(3 -1.77805e-15 0)
(3 -1.18531e-15 0)
(3 -8.24296e-16 0)
(3 4.94188e-16 0)
(3 2.53663e-15 0)
(3 2.7916e-15 0)
(3 1.72034e-15 0)
(3 1.95141e-15 0)
(3 1.45809e-15 0)
(3 1.98141e-15 0)
(3 2.71778e-15 0)
(3 3.19696e-15 0)
(3 3.1477e-15 0)
(3 2.8016e-15 0)
(3 2.25193e-15 0)
(3 1.94435e-15 0)
(3 1.06934e-15 0)
(3 1.573e-16 0)
(3 -1.43195e-15 0)
(3 -1.90373e-15 0)
(3 -1.374e-15 0)
(3 -4.03907e-16 0)
(3 4.20938e-16 0)
(3 6.64973e-17 0)
(3 6.85697e-17 0)
(3 4.96771e-16 0)
(3 4.7194e-17 0)
(3 -2.30058e-17 0)
(3 -4.09672e-17 0)
(3 2.76646e-16 0)
(3 5.24288e-16 0)
(3 1.04127e-15 0)
(3 1.73223e-15 0)
(3 1.96396e-15 0)
(3 1.29563e-15 0)
(3 1.08734e-15 0)
(3 -9.3784e-18 0)
(3 -4.84921e-16 0)
(3 -6.15304e-16 0)
(3 -3.65902e-16 0)
(3 -3.01763e-17 0)
(3 -1.24933e-16 0)
(3 -3.46219e-16 0)
(3 -5.92689e-16 0)
(3 -1.00626e-15 0)
(3 -1.27021e-15 0)
(3 -1.27529e-15 0)
(3 -8.86062e-16 0)
(3 -2.86806e-16 0)
(3 8.91388e-16 0)
(3 1.38707e-15 0)
(3 3.08651e-15 0)
(3 3.40359e-15 0)
(3 2.99253e-15 0)
(3 2.10623e-15 0)
(3 1.98787e-15 0)
(3 1.23811e-15 0)
(3 -1.49469e-16 0)
(3 -7.59502e-16 0)
(3 -3.19021e-16 0)
(3 7.45165e-16 0)
(3 1.93687e-15 0)
(3 2.68916e-15 0)
(3 2.7892e-15 0)
(3 1.47735e-15 0)
(3 1.02935e-15 0)
(3 1.52583e-16 0)
(3 2.03965e-16 0)
(3 1.07478e-15 0)
(3 5.08387e-16 0)
(3 1.92701e-16 0)
(3 -2.38371e-16 0)
(3 -6.39902e-16 0)
(3 -9.38961e-16 0)
(3 -1.35018e-16 0)
(3 -2.53217e-16 0)
(3 -1.54378e-16 0)
(3 8.86419e-17 0)
(3 -5.02717e-17 0)
(3 3.22456e-16 0)
(3 4.64235e-16 0)
(3 5.98728e-16 0)
(3 1.11913e-15 0)
(3 1.88879e-15 0)
(3 1.28877e-15 0)
(3 4.39561e-16 0)
(3 -1.26754e-16 0)
(3 -1.51836e-15 0)
(3 -1.25493e-15 0)
(3 -8.13549e-16 0)
(3 -6.75291e-16 0)
(3 -3.57192e-16 0)
(3 -2.74968e-16 0)
(3 5.46775e-17 0)
(3 2.74904e-16 0)
(3 8.18417e-16 0)
(3 1.03822e-15 0)
(3 2.06845e-15 0)
(3 3.42326e-15 0)
(3 3.39245e-15 0)
(3 2.7751e-15 0)
(3 2.53459e-15 0)
(3 2.42971e-15 0)
(3 1.64561e-15 0)
(3 6.3903e-16 0)
(3 -7.50238e-16 0)
(3 -1.47141e-15 0)
(3 -1.57236e-15 0)
(3 -6.78125e-16 0)
(3 3.10402e-16 0)
(3 5.22655e-16 0)
(3 9.44254e-16 0)
(3 1.35437e-15 0)
(3 1.21914e-15 0)
(3 2.38542e-15 0)
(3 1.97023e-15 0)
(3 1.90536e-15 0)
(3 1.44027e-15 0)
(3 7.85237e-16 0)
(3 7.69493e-16 0)
(3 1.54193e-16 0)
(3 -7.38083e-16 0)
(3 6.42596e-17 0)
(3 -2.25273e-17 0)
(3 -4.06397e-17 0)
(3 -6.44649e-17 0)
(3 -2.27642e-16 0)
(3 -2.03189e-16 0)
(3 -5.10772e-17 0)
(3 -3.14197e-16 0)
(3 3.74038e-16 0)
(3 3.68728e-16 0)
(3 9.67024e-16 0)
(3 -3.0624e-17 0)
(3 -5.68738e-16 0)
(3 -7.26532e-16 0)
(3 2.44906e-16 0)
(3 1.12854e-15 0)
(3 2.1173e-15 0)
(3 1.79699e-15 0)
(3 8.1665e-16 0)
(3 1.0526e-15 0)
(3 1.19312e-15 0)
(3 1.73541e-15 0)
(3 2.07583e-15 0)
(3 2.15649e-15 0)
(3 1.96845e-15 0)
(3 1.35043e-15 0)
(3 1.14298e-15 0)
(3 8.83098e-16 0)
(3 8.71821e-16 0)
(3 9.70271e-16 0)
(3 2.67051e-16 0)
(3 -1.19345e-15 0)
(3 -1.2825e-15 0)
(3 -1.51137e-15 0)
(3 -1.56379e-15 0)
(3 -1.81628e-15 0)
(3 -6.31559e-16 0)
(3 1.8044e-15 0)
(3 3.08237e-15 0)
(3 2.88786e-15 0)
(3 2.83415e-15 0)
(3 2.74101e-15 0)
(3 2.90463e-15 0)
(3 3.12725e-15 0)
(3 2.86964e-15 0)
(3 7.66201e-16 0)
(3 3.08902e-16 0)
(3 8.76426e-16 0)
(3 2.03586e-16 0)
(3 8.18482e-17 0)
(3 -1.22568e-16 0)
(3 -5.66675e-17 0)
(3 2.98521e-16 0)
(3 1.98296e-16 0)
(3 1.41345e-16 0)
(3 3.97151e-16 0)
(3 4.62715e-16 0)
(3 4.56334e-16 0)
(3 8.16581e-16 0)
(3 7.18716e-16 0)
(3 4.5963e-16 0)
(3 1.03461e-15 0)
(3 1.86237e-15 0)
(3 1.60294e-15 0)
(3 8.17629e-16 0)
(3 5.46105e-16 0)
(3 2.46343e-16 0)
(3 2.00979e-16 0)
(3 4.90554e-16 0)
(3 5.90015e-16 0)
(3 4.68008e-16 0)
(3 1.04488e-16 0)
(3 2.40851e-16 0)
(3 -1.17659e-15 0)
(3 -1.45612e-15 0)
(3 -1.38703e-15 0)
(3 -1.24183e-15 0)
(3 -4.64423e-16 0)
(3 2.14907e-17 0)
(3 1.91943e-16 0)
(3 -1.97033e-16 0)
(3 -5.16936e-16 0)
(3 -1.33161e-15 0)
(3 -1.68978e-15 0)
(3 -4.86732e-16 0)
(3 -3.12895e-16 0)
(3 8.33671e-16 0)
(3 1.74684e-15 0)
(3 2.34948e-15 0)
(3 3.75138e-15 0)
(3 4.29663e-15 0)
(3 4.04387e-15 0)
(3 2.60493e-15 0)
(3 1.67181e-15 0)
(3 1.92072e-15 0)
(3 2.25664e-15 0)
(3 -1.18469e-18 0)
(3 1.7428e-16 0)
(3 3.18522e-16 0)
(3 1.76127e-16 0)
(3 2.16302e-16 0)
(3 3.96305e-16 0)
(3 3.63307e-16 0)
(3 6.5543e-16 0)
(3 1.27171e-15 0)
(3 1.40449e-15 0)
(3 1.06089e-15 0)
(3 7.79442e-16 0)
(3 1.16757e-16 0)
(3 3.10301e-16 0)
(3 6.08536e-16 0)
(3 -6.3445e-16 0)
(3 -8.86793e-16 0)
(3 -5.67292e-16 0)
(3 8.45279e-16 0)
(3 7.24257e-16 0)
(3 6.76553e-16 0)
(3 2.54652e-16 0)
(3 -4.37507e-16 0)
(3 -1.22844e-15 0)
(3 -9.51704e-16 0)
(3 -1.48779e-15 0)
(3 -1.33208e-15 0)
(3 -9.1743e-16 0)
(3 2.92323e-17 0)
(3 3.92909e-16 0)
(3 1.15035e-15 0)
(3 2.02076e-15 0)
(3 1.74699e-15 0)
(3 1.05003e-15 0)
(3 2.63891e-16 0)
(3 -4.95472e-16 0)
(3 -1.3242e-15 0)
(3 -2.0363e-15 0)
(3 -1.67756e-15 0)
(3 1.84337e-16 0)
(3 9.73612e-16 0)
(3 1.83827e-15 0)
(3 1.91885e-15 0)
(3 6.9165e-16 0)
(3 6.63032e-16 0)
(3 1.66477e-15 0)
(3 2.35814e-15 0)
(3 7.56991e-16 0)
(3 -1.87129e-16 0)
(3 -4.16908e-17 0)
(3 2.8165e-16 0)
(3 3.42777e-16 0)
(3 -1.50635e-16 0)
(3 -8.50314e-17 0)
(3 7.95431e-16 0)
(3 9.65433e-16 0)
(3 1.22708e-15 0)
(3 9.90609e-16 0)
(3 4.77176e-16 0)
(3 -7.02559e-16 0)
(3 -9.84338e-16 0)
(3 -8.32452e-16 0)
(3 -9.24831e-16 0)
(3 -1.00615e-15 0)
(3 -6.18738e-16 0)
(3 1.42744e-16 0)
(3 1.03287e-15 0)
(3 2.29347e-15 0)
(3 2.33972e-15 0)
(3 2.07067e-15 0)
(3 1.22622e-15 0)
(3 3.09788e-16 0)
(3 -8.88881e-16 0)
(3 -2.01779e-16 0)
(3 -1.91313e-16 0)
(3 -1.39615e-16 0)
(3 1.54635e-16 0)
(3 4.68264e-16 0)
(3 1.02521e-15 0)
(3 8.13877e-16 0)
(3 4.2378e-16 0)
(3 3.79328e-16 0)
(3 7.12293e-16 0)
(3 1.70329e-15 0)
(3 1.0216e-15 0)
(3 2.5815e-16 0)
(3 -6.43155e-16 0)
(3 -7.69062e-16 0)
(3 -1.03381e-15 0)
(3 -1.67085e-15 0)
(3 -1.63576e-15 0)
(3 -1.89723e-15 0)
(3 -1.17569e-15 0)
(3 -3.42768e-16 0)
(3 -1.05461e-16 0)
(3 -5.13177e-16 0)
(3 2.61545e-17 0)
(3 7.01749e-17 0)
(3 1.71304e-16 0)
(3 1.47102e-16 0)
(3 -7.44784e-16 0)
(3 -8.42113e-16 0)
(3 8.04459e-16 0)
(3 1.41747e-15 0)
(3 1.46051e-15 0)
(3 4.38907e-16 0)
(3 -8.82444e-17 0)
(3 -3.31266e-16 0)
(3 -3.22583e-16 0)
(3 -8.0454e-17 0)
(3 -1.9273e-16 0)
(3 8.07985e-16 0)
(3 4.83597e-16 0)
(3 7.49275e-16 0)
(3 7.36258e-16 0)
(3 1.16241e-15 0)
(3 1.88235e-15 0)
(3 2.03319e-15 0)
(3 1.30089e-15 0)
(3 9.34883e-16 0)
(3 2.67638e-17 0)
(3 -9.16698e-16 0)
(3 -5.24331e-16 0)
(3 -1.79916e-16 0)
(3 -1.87652e-16 0)
(3 -5.74022e-16 0)
(3 2.27857e-17 0)
(3 1.84915e-16 0)
(3 4.60882e-16 0)
(3 1.71712e-16 0)
(3 -9.02368e-16 0)
(3 -1.2027e-15 0)
(3 -8.64898e-16 0)
(3 2.00416e-16 0)
(3 1.22536e-15 0)
(3 1.8767e-15 0)
(3 5.41337e-16 0)
(3 -5.21272e-16 0)
(3 -1.35222e-15 0)
(3 -1.32209e-15 0)
(3 -1.25463e-15 0)
(3 -9.25675e-16 0)
(3 -1.27461e-15 0)
(3 -1.27926e-15 0)
(3 1.73456e-16 0)
(3 3.02718e-16 0)
(3 2.28784e-16 0)
(3 9.52325e-17 0)
(3 -3.60588e-16 0)
(3 -5.14381e-16 0)
(3 1.44889e-15 0)
(3 1.60496e-15 0)
(3 1.01372e-15 0)
(3 8.56392e-16 0)
(3 5.02895e-16 0)
(3 1.2246e-15 0)
(3 1.23803e-15 0)
(3 9.53867e-16 0)
(3 7.91769e-16 0)
(3 1.28575e-15 0)
(3 6.73756e-16 0)
(3 1.80799e-16 0)
(3 6.799e-16 0)
(3 1.49798e-15 0)
(3 1.11862e-15 0)
(3 -3.8685e-17 0)
(3 -1.00736e-15 0)
(3 -4.74554e-16 0)
(3 -6.69371e-16 0)
(3 -1.21286e-15 0)
(3 -1.16664e-15 0)
(3 -1.23298e-15 0)
(3 -1.2974e-15 0)
(3 -1.95245e-16 0)
(3 -2.15664e-16 0)
(3 9.19242e-17 0)
(3 1.75139e-16 0)
(3 -4.20315e-16 0)
(3 -6.55434e-16 0)
(3 -1.11289e-15 0)
(3 -1.58992e-15 0)
(3 -6.14888e-16 0)
(3 8.1389e-16 0)
(3 8.3597e-16 0)
(3 3.37235e-16 0)
(3 -8.96349e-16 0)
(3 -1.5951e-15 0)
(3 -1.39883e-15 0)
(3 -1.04582e-15 0)
(3 -1.17233e-15 0)
(3 -1.29177e-15 0)
(3 -1.04945e-15 0)
(3 -2.39874e-18 0)
(3 -3.48826e-16 0)
(3 -3.31345e-16 0)
(3 -5.15181e-16 0)
(3 3.56229e-16 0)
(3 6.37581e-16 0)
(3 3.95023e-16 0)
(3 5.66357e-16 0)
(3 6.86556e-16 0)
(3 6.41187e-16 0)
(3 9.86496e-16 0)
(3 1.09363e-15 0)
(3 1.43318e-15 0)
(3 1.66409e-15 0)
(3 1.67538e-15 0)
(3 1.93446e-15 0)
(3 1.99462e-15 0)
(3 7.34928e-16 0)
(3 7.89609e-16 0)
(3 2.17166e-15 0)
(3 1.07097e-15 0)
(3 3.4844e-16 0)
(3 -4.68862e-16 0)
(3 -7.26887e-16 0)
(3 -2.02703e-16 0)
(3 -9.92953e-16 0)
(3 -1.83957e-15 0)
(3 -2.91711e-15 0)
(3 -2.51378e-15 0)
(3 -1.17051e-15 0)
(3 -1.06024e-16 0)
(3 -1.17132e-16 0)
(3 6.52954e-17 0)
(3 5.10351e-16 0)
(3 1.01549e-15 0)
(3 4.07936e-16 0)
(3 -2.15628e-16 0)
(3 -6.95771e-16 0)
(3 -1.15346e-15 0)
(3 -1.44746e-15 0)
(3 -1.53925e-15 0)
(3 -1.24809e-15 0)
(3 -1.12495e-15 0)
(3 -1.08149e-15 0)
(3 -1.22147e-15 0)
(3 -2.1141e-15 0)
(3 -1.94209e-15 0)
(3 -1.3985e-15 0)
(3 -1.13946e-16 0)
(3 -4.99453e-16 0)
(3 -9.26649e-16 0)
(3 7.25776e-17 0)
(3 1.16608e-15 0)
(3 1.30248e-15 0)
(3 -5.19179e-16 0)
(3 -1.69556e-15 0)
(3 -1.52527e-15 0)
(3 -9.51004e-16 0)
(3 -7.99743e-16 0)
(3 -8.22432e-16 0)
(3 -5.85434e-16 0)
(3 1.01797e-15 0)
(3 2.215e-15 0)
(3 2.0638e-15 0)
(3 2.06088e-15 0)
(3 2.0842e-15 0)
(3 1.11786e-15 0)
(3 4.60751e-16 0)
(3 1.49798e-16 0)
(3 1.20532e-15 0)
(3 1.37027e-15 0)
(3 1.71897e-15 0)
(3 1.56525e-15 0)
(3 6.98822e-16 0)
(3 3.51615e-17 0)
(3 -7.39575e-16 0)
(3 -8.93534e-16 0)
(3 -9.53411e-16 0)
(3 -2.31203e-16 0)
(3 -3.37818e-16 0)
(3 -1.62041e-16 0)
(3 8.54989e-16 0)
(3 6.81407e-16 0)
(3 4.39588e-16 0)
(3 3.16937e-16 0)
(3 -1.43716e-15 0)
(3 -2.32401e-15 0)
(3 -2.00136e-15 0)
(3 -8.51586e-16 0)
(3 2.68388e-16 0)
(3 -4.56225e-16 0)
(3 -1.23742e-15 0)
(3 -1.88773e-15 0)
(3 -2.43874e-15 0)
(3 -2.15195e-15 0)
(3 -1.7139e-15 0)
(3 3.51107e-17 0)
(3 2.59683e-16 0)
(3 1.05913e-17 0)
(3 -9.78007e-17 0)
(3 3.82274e-17 0)
(3 -1.80426e-16 0)
(3 -7.07499e-16 0)
(3 -2.00058e-15 0)
(3 -2.29572e-15 0)
(3 -1.88634e-15 0)
(3 -1.11171e-15 0)
(3 -1.27237e-15 0)
(3 -2.11542e-16 0)
(3 3.34482e-16 0)
(3 7.0902e-16 0)
(3 1.07014e-15 0)
(3 1.18036e-15 0)
(3 1.50511e-15 0)
(3 1.4037e-15 0)
(3 7.9711e-17 0)
(3 -2.0327e-16 0)
(3 1.23396e-15 0)
(3 2.02773e-15 0)
(3 2.03611e-15 0)
(3 8.95595e-16 0)
(3 -5.046e-17 0)
(3 -5.30727e-16 0)
(3 -2.48887e-16 0)
(3 -5.81572e-16 0)
(3 -1.23884e-15 0)
(3 -1.40426e-15 0)
(3 -8.30793e-16 0)
(3 -3.66294e-16 0)
(3 9.27907e-16 0)
(3 7.84029e-16 0)
(3 5.01661e-16 0)
(3 4.98565e-16 0)
(3 -4.89672e-16 0)
(3 -1.12094e-15 0)
(3 -7.71506e-16 0)
(3 2.97054e-16 0)
(3 4.24883e-16 0)
(3 4.26477e-16 0)
(3 7.20256e-16 0)
(3 4.5853e-17 0)
(3 -5.06851e-16 0)
(3 -6.02862e-16 0)
(3 -1.79612e-15 0)
(3 4.12122e-17 0)
(3 3.90363e-16 0)
(3 6.8757e-16 0)
(3 1.73655e-16 0)
(3 -8.43864e-16 0)
(3 -8.20141e-16 0)
(3 -7.4306e-16 0)
(3 -7.1553e-16 0)
(3 -1.06026e-15 0)
(3 -1.59796e-15 0)
(3 -8.26461e-16 0)
(3 -4.51118e-17 0)
(3 3.23188e-16 0)
(3 2.48454e-16 0)
(3 5.14758e-16 0)
(3 8.20086e-16 0)
(3 1.51745e-15 0)
(3 1.47694e-15 0)
(3 8.83767e-16 0)
(3 3.22393e-16 0)
(3 -4.06362e-16 0)
(3 -5.81174e-17 0)
(3 4.39762e-16 0)
(3 1.04869e-16 0)
(3 -4.44806e-16 0)
(3 -6.69623e-16 0)
(3 -6.9116e-16 0)
(3 1.01912e-16 0)
(3 5.85183e-16 0)
(3 9.32689e-16 0)
(3 2.3355e-15 0)
(3 3.26675e-15 0)
(3 2.62006e-15 0)
(3 1.70537e-15 0)
(3 -5.56644e-16 0)
(3 -1.64246e-15 0)
(3 -2.29054e-15 0)
(3 -1.4621e-15 0)
(3 -4.43741e-16 0)
(3 1.55034e-16 0)
(3 5.14486e-16 0)
(3 1.12894e-15 0)
(3 1.84968e-15 0)
(3 2.32575e-15 0)
(3 1.88177e-15 0)
(3 1.14616e-15 0)
(3 9.48257e-17 0)
(3 -6.45412e-16 0)
(3 -2.40871e-17 0)
(3 2.15991e-16 0)
(3 3.98457e-16 0)
(3 2.19738e-16 0)
(3 1.59899e-16 0)
(3 -1.63826e-16 0)
(3 3.70373e-17 0)
(3 9.25584e-16 0)
(3 7.20109e-16 0)
(3 2.56794e-16 0)
(3 -4.02048e-16 0)
(3 -7.24295e-16 0)
(3 -3.8531e-16 0)
(3 1.84768e-16 0)
(3 -9.78378e-17 0)
(3 -5.91536e-16 0)
(3 -4.96681e-16 0)
(3 -6.38094e-16 0)
(3 -1.23024e-15 0)
(3 -1.25733e-15 0)
(3 -1.36287e-15 0)
(3 -1.96727e-15 0)
(3 -2.07103e-15 0)
(3 -1.68864e-15 0)
(3 -1.17955e-15 0)
(3 -5.75143e-16 0)
(3 1.30278e-15 0)
(3 1.48762e-15 0)
(3 1.32334e-15 0)
(3 9.70106e-16 0)
(3 1.25731e-15 0)
(3 2.59255e-15 0)
(3 1.24299e-15 0)
(3 -1.31532e-15 0)
(3 -2.28384e-15 0)
(3 -3.80323e-15 0)
(3 -3.42321e-15 0)
(3 -2.21123e-15 0)
(3 -2.34838e-15 0)
(3 -2.2672e-15 0)
(3 -2.18787e-15 0)
(3 -1.94636e-15 0)
(3 -5.07755e-17 0)
(3 -1.31745e-16 0)
(3 -6.13803e-16 0)
(3 -6.35515e-16 0)
(3 -1.41434e-15 0)
(3 -1.42011e-15 0)
(3 -1.81369e-17 0)
(3 -9.77158e-17 0)
(3 -2.81312e-16 0)
(3 -1.5512e-16 0)
(3 5.28974e-16 0)
(3 8.10299e-16 0)
(3 1.13356e-15 0)
(3 1.74799e-15 0)
(3 2.52609e-15 0)
(3 2.67796e-15 0)
(3 1.30157e-15 0)
(3 -4.72823e-16 0)
(3 -4.69571e-16 0)
(3 -6.39007e-16 0)
(3 -8.70021e-16 0)
(3 -1.15498e-15 0)
(3 -1.61097e-15 0)
(3 -1.23946e-15 0)
(3 -9.62257e-16 0)
(3 -7.54455e-16 0)
(3 -9.34737e-16 0)
(3 -1.62018e-15 0)
(3 -2.48433e-15 0)
(3 -2.50453e-15 0)
(3 -1.42733e-15 0)
(3 6.16578e-17 0)
(3 1.84915e-15 0)
(3 2.47124e-15 0)
(3 2.46472e-15 0)
(3 1.55708e-15 0)
(3 7.50783e-16 0)
(3 7.33125e-16 0)
(3 -5.10581e-16 0)
(3 -1.76693e-15 0)
(3 -1.87983e-15 0)
(3 -1.84184e-15 0)
(3 -1.76065e-15 0)
(3 -2.16474e-15 0)
(3 -2.06064e-15 0)
(3 -2.55084e-15 0)
(3 -2.87371e-15 0)
(3 -2.53566e-15 0)
(3 -1.86602e-15 0)
(3 -3.18466e-15 0)
(3 -3.1085e-15 0)
(3 -2.54446e-15 0)
(3 -1.46098e-15 0)
(3 -9.83056e-16 0)
(3 -1.32303e-16 0)
(3 -4.75653e-16 0)
(3 -6.50918e-16 0)
(3 -2.76356e-16 0)
(3 8.28327e-16 0)
(3 2.90724e-15 0)
(3 3.44796e-15 0)
(3 2.74636e-15 0)
(3 1.94368e-15 0)
(3 1.78075e-15 0)
(3 1.92819e-15 0)
(3 2.13319e-15 0)
(3 1.09762e-15 0)
(3 -8.82858e-16 0)
(3 -7.67205e-16 0)
(3 -1.0488e-15 0)
(3 -1.26858e-15 0)
(3 2.59599e-17 0)
(3 1.9214e-15 0)
(3 2.01469e-15 0)
(3 1.45465e-15 0)
(3 1.24965e-15 0)
(3 1.21612e-15 0)
(3 5.54856e-16 0)
(3 1.36045e-16 0)
(3 1.52221e-15 0)
(3 1.46592e-15 0)
(3 9.09243e-16 0)
(3 6.9073e-16 0)
(3 6.16712e-16 0)
(3 1.55914e-16 0)
(3 -4.90509e-16 0)
(3 -1.09276e-15 0)
(3 -1.88745e-15 0)
(3 -1.93031e-15 0)
(3 -3.94474e-16 0)
(3 -2.33183e-16 0)
(3 -5.2621e-16 0)
(3 -3.09818e-17 0)
(3 -2.10554e-16 0)
(3 -2.64716e-16 0)
(3 -8.43519e-16 0)
(3 -2.76323e-15 0)
(3 -3.60434e-15 0)
(3 -3.13388e-15 0)
(3 -2.75929e-15 0)
(3 6.03849e-17 0)
(3 1.00766e-15 0)
(3 -3.7233e-17 0)
(3 -9.68116e-17 0)
(3 -5.02605e-16 0)
(3 -3.34644e-16 0)
(3 1.09158e-15 0)
(3 1.76586e-15 0)
(3 2.21875e-15 0)
(3 2.19016e-15 0)
(3 1.58905e-15 0)
(3 1.50118e-15 0)
(3 1.49379e-15 0)
(3 1.32098e-15 0)
(3 1.47893e-16 0)
(3 -2.03644e-16 0)
(3 -7.30259e-16 0)
(3 -1.17426e-15 0)
(3 -1.0397e-15 0)
(3 -4.88838e-16 0)
(3 3.17463e-16 0)
(3 8.5327e-16 0)
(3 1.41529e-15 0)
(3 2.75422e-15 0)
(3 4.41842e-15 0)
(3 4.69036e-15 0)
(3 3.12577e-15 0)
(3 8.5411e-16 0)
(3 4.26218e-16 0)
(3 2.4696e-16 0)
(3 -4.89778e-16 0)
(3 -1.12826e-15 0)
(3 -1.91011e-15 0)
(3 -3.26484e-15 0)
(3 -3.14576e-15 0)
(3 -3.22311e-15 0)
(3 -2.92499e-15 0)
(3 -1.47094e-15 0)
(3 -5.06053e-16 0)
(3 -7.67406e-17 0)
(3 -4.80516e-16 0)
(3 -3.51267e-16 0)
(3 3.48116e-17 0)
(3 -1.18022e-16 0)
(3 -7.07538e-16 0)
(3 -1.73487e-16 0)
(3 5.24425e-16 0)
(3 7.04996e-16 0)
(3 7.71657e-16 0)
(3 9.20474e-16 0)
(3 1.45745e-16 0)
(3 -6.69861e-17 0)
(3 -2.05073e-17 0)
(3 2.60528e-16 0)
(3 5.97857e-16 0)
(3 3.87641e-16 0)
(3 4.09093e-16 0)
(3 5.61091e-16 0)
(3 4.74123e-16 0)
(3 1.2477e-16 0)
(3 3.96566e-16 0)
(3 5.23124e-16 0)
(3 -1.42486e-16 0)
(3 -3.78742e-16 0)
(3 -2.05351e-16 0)
(3 3.01838e-16 0)
(3 -6.71379e-17 0)
(3 1.3859e-17 0)
(3 1.11743e-16 0)
(3 3.18424e-16 0)
(3 1.15665e-15 0)
(3 1.57616e-15 0)
(3 2.59704e-15 0)
(3 2.59508e-15 0)
(3 1.74926e-15 0)
(3 7.46165e-16 0)
(3 7.76429e-16 0)
(3 7.56158e-16 0)
(3 3.4038e-16 0)
(3 -2.85991e-16 0)
(3 -1.04821e-15 0)
(3 -2.15e-15 0)
(3 -2.87366e-15 0)
(3 -2.1865e-15 0)
(3 -1.47542e-15 0)
(3 -1.01852e-15 0)
(3 -3.19009e-16 0)
(3 -2.45021e-16 0)
(3 -2.97291e-16 0)
(3 1.60609e-16 0)
(3 3.83644e-16 0)
(3 7.23127e-16 0)
(3 7.23559e-16 0)
(3 5.61236e-16 0)
(3 8.32112e-16 0)
(3 1.1152e-15 0)
(3 7.33816e-16 0)
(3 2.00707e-16 0)
(3 1.60999e-17 0)
(3 -2.7297e-16 0)
(3 2.33946e-16 0)
(3 6.69555e-16 0)
(3 5.75249e-16 0)
(3 1.86229e-16 0)
(3 -4.61365e-16 0)
(3 -6.18089e-16 0)
(3 -8.97243e-16 0)
(3 -7.86099e-16 0)
(3 -3.72156e-16 0)
(3 -1.79203e-16 0)
(3 5.73395e-17 0)
(3 3.46837e-16 0)
(3 4.60836e-16 0)
(3 2.55578e-16 0)
(3 6.38401e-16 0)
(3 1.5748e-15 0)
(3 1.4666e-15 0)
(3 8.38253e-16 0)
(3 9.46243e-16 0)
(3 1.0934e-15 0)
(3 1.41157e-15 0)
(3 9.37226e-16 0)
(3 6.132e-16 0)
(3 3.58847e-16 0)
(3 4.96259e-16 0)
(3 2.04537e-16 0)
(3 -2.33167e-16 0)
(3 -9.94398e-16 0)
(3 -1.36879e-15 0)
(3 -1.15736e-15 0)
(3 -7.68182e-16 0)
(3 -2.18486e-16 0)
(3 1.2186e-15 0)
(3 1.61797e-15 0)
(3 1.66748e-15 0)
(3 1.64347e-15 0)
(3 1.70408e-15 0)
(3 1.40131e-15 0)
(3 5.48685e-16 0)
(3 -2.23609e-17 0)
(3 8.18355e-17 0)
(3 -8.94838e-16 0)
(3 -1.16505e-15 0)
(3 -7.68895e-16 0)
(3 1.25485e-16 0)
(3 1.94222e-16 0)
(3 4.87337e-17 0)
(3 4.30779e-16 0)
(3 6.03101e-16 0)
(3 2.53746e-16 0)
(3 -9.04692e-16 0)
(3 -1.46612e-15 0)
(3 -1.48469e-15 0)
(3 -1.37725e-15 0)
(3 -1.27283e-15 0)
(3 -3.17195e-16 0)
(3 1.75639e-17 0)
(3 7.39562e-16 0)
(3 1.34246e-15 0)
(3 1.42523e-15 0)
(3 2.60784e-16 0)
(3 -3.9009e-16 0)
(3 3.81843e-16 0)
(3 7.39586e-16 0)
(3 6.74306e-16 0)
(3 5.9037e-16 0)
(3 3.52241e-16 0)
(3 3.92771e-16 0)
(3 6.20261e-16 0)
(3 7.87034e-16 0)
(3 1.20329e-15 0)
(3 1.34759e-15 0)
(3 -4.25878e-16 0)
(3 -8.79818e-16 0)
(3 -1.25728e-15 0)
(3 -2.49712e-15 0)
(3 -2.16735e-15 0)
(3 -1.18755e-15 0)
(3 2.05394e-16 0)
(3 5.22379e-16 0)
(3 8.21484e-16 0)
(3 9.50813e-16 0)
(3 1.43927e-15 0)
(3 2.10428e-15 0)
(3 1.27842e-15 0)
(3 1.90103e-17 0)
(3 -5.89606e-16 0)
(3 -9.21286e-16 0)
(3 -5.9525e-16 0)
(3 -1.57258e-16 0)
(3 -6.23568e-16 0)
(3 -1.90567e-15 0)
(3 -1.89218e-15 0)
(3 -1.45628e-15 0)
(3 -2.10535e-17 0)
(3 3.35583e-16 0)
(3 -4.29541e-17 0)
(3 -7.37313e-16 0)
(3 -2.18033e-16 0)
(3 -4.91892e-16 0)
(3 -1.75402e-16 0)
(3 -2.80892e-16 0)
(3 -4.16281e-16 0)
(3 -9.2666e-16 0)
(3 -1.13886e-15 0)
(3 -8.37267e-16 0)
(3 3.28637e-16 0)
(3 5.80244e-16 0)
(3 1.82224e-16 0)
(3 -2.19473e-16 0)
(3 -8.17776e-16 0)
(3 -1.17239e-15 0)
(3 -3.85018e-16 0)
(3 1.75939e-16 0)
(3 -1.43225e-16 0)
(3 -1.77363e-16 0)
(3 -1.32572e-16 0)
(3 1.96393e-16 0)
(3 7.22256e-16 0)
(3 1.26194e-15 0)
(3 -7.65014e-16 0)
(3 -1.58927e-15 0)
(3 -1.56034e-15 0)
(3 -1.84678e-15 0)
(3 -2.10011e-15 0)
(3 -2.30733e-15 0)
(3 -1.88396e-15 0)
(3 -2.91432e-16 0)
(3 5.77087e-16 0)
(3 7.90092e-16 0)
(3 7.84056e-16 0)
(3 -3.29867e-16 0)
(3 -6.22569e-16 0)
(3 -6.19851e-16 0)
(3 -5.49838e-16 0)
(3 -1.2797e-15 0)
(3 -1.49752e-15 0)
(3 -1.46387e-15 0)
(3 -7.18354e-16 0)
(3 -7.18051e-16 0)
(3 -8.37774e-16 0)
(3 -1.57254e-17 0)
(3 -7.98275e-17 0)
(3 -3.87702e-16 0)
(3 -2.3716e-16 0)
(3 -6.72451e-17 0)
(3 1.01476e-15 0)
(3 1.15916e-15 0)
(3 4.64134e-16 0)
(3 6.7897e-17 0)
(3 -3.70527e-16 0)
(3 -1.45849e-15 0)
(3 -1.70023e-15 0)
(3 -1.54332e-15 0)
(3 -1.01369e-15 0)
(3 -7.88407e-16 0)
(3 -3.31173e-16 0)
(3 4.69014e-17 0)
(3 -5.91139e-16 0)
(3 -7.86156e-16 0)
(3 -4.47771e-16 0)
(3 -7.54711e-16 0)
(3 -6.28258e-16 0)
(3 -7.89975e-16 0)
(3 -6.43542e-16 0)
(3 1.07125e-16 0)
(3 4.29457e-16 0)
(3 -4.52106e-16 0)
(3 -1.75425e-15 0)
(3 -1.80241e-15 0)
(3 -1.67172e-15 0)
(3 -1.20471e-15 0)
(3 -2.28967e-15 0)
(3 -3.1638e-15 0)
(3 -2.09288e-15 0)
(3 9.77905e-17 0)
(3 6.38006e-16 0)
(3 1.55189e-15 0)
(3 7.28809e-16 0)
(3 1.25115e-16 0)
(3 1.92165e-16 0)
(3 -2.54584e-16 0)
(3 -7.41447e-16 0)
(3 -6.3856e-16 0)
(3 -8.83607e-16 0)
(3 -9.33099e-16 0)
(3 -9.11304e-16 0)
(3 -2.70317e-16 0)
(3 7.06849e-16 0)
(3 1.72751e-15 0)
(3 -1.73334e-17 0)
(3 -9.7011e-17 0)
(3 2.26924e-16 0)
(3 4.95949e-16 0)
(3 -2.04166e-16 0)
(3 -1.01496e-16 0)
(3 -1.35865e-16 0)
(3 -1.17904e-16 0)
(3 3.15618e-16 0)
(3 4.89661e-16 0)
(3 6.87909e-16 0)
(3 5.30922e-16 0)
(3 1.92677e-16 0)
(3 -6.57074e-16 0)
(3 -1.00819e-15 0)
(3 -4.16296e-16 0)
(3 -3.46403e-16 0)
(3 -6.32653e-16 0)
(3 -2.18311e-16 0)
(3 7.94446e-17 0)
(3 -1.00492e-16 0)
(3 -7.39003e-16 0)
(3 -9.33403e-16 0)
(3 -6.57915e-16 0)
(3 -5.11582e-16 0)
(3 -1.1584e-15 0)
(3 -2.17207e-15 0)
(3 -9.40017e-16 0)
(3 -9.25702e-16 0)
(3 -1.07049e-15 0)
(3 -1.29578e-15 0)
(3 -1.42035e-15 0)
(3 -1.117e-15 0)
(3 -5.59554e-16 0)
(3 -5.19376e-16 0)
(3 -8.62312e-16 0)
(3 -7.30128e-16 0)
(3 -4.03777e-16 0)
(3 -5.88258e-16 0)
(3 -1.62328e-16 0)
(3 5.90916e-17 0)
(3 9.27147e-16 0)
(3 1.67674e-15 0)
(3 2.97121e-15 0)
(3 2.93143e-15 0)
(3 2.58657e-15 0)
(3 2.3392e-15 0)
(3 2.06094e-15 0)
(3 -9.0836e-18 0)
(3 2.57674e-16 0)
(3 3.7304e-16 0)
(3 2.1793e-16 0)
(3 -1.07848e-15 0)
(3 -9.50319e-16 0)
(3 -1.35253e-16 0)
(3 9.95316e-16 0)
(3 1.51243e-15 0)
(3 2.91834e-15 0)
(3 3.08377e-15 0)
(3 2.46206e-15 0)
(3 1.448e-15 0)
(3 4.99675e-17 0)
(3 -2.7365e-17 0)
(3 -9.44189e-17 0)
(3 -3.3943e-16 0)
(3 -1.42097e-15 0)
(3 -1.10703e-15 0)
(3 -2.36983e-16 0)
(3 -1.92936e-16 0)
(3 -6.12679e-16 0)
(3 -1.14859e-15 0)
(3 -2.23318e-15 0)
(3 -2.16378e-15 0)
(3 -1.27571e-15 0)
(3 -8.00287e-16 0)
(3 -9.14807e-16 0)
(3 -9.67683e-16 0)
(3 -6.44216e-16 0)
(3 -5.51096e-16 0)
(3 -8.28204e-16 0)
(3 -1.49197e-15 0)
(3 -1.77121e-15 0)
(3 -1.69208e-15 0)
(3 -1.02994e-15 0)
(3 -7.87931e-17 0)
(3 3.12354e-16 0)
(3 6.42299e-16 0)
(3 1.34853e-15 0)
(3 2.30543e-15 0)
(3 2.95792e-15 0)
(3 3.77424e-15 0)
(3 4.00736e-15 0)
(3 3.58679e-15 0)
(3 3.11053e-15 0)
(3 2.28923e-15 0)
(3 1.57407e-15 0)
(3 1.18436e-17 0)
(3 -6.28064e-17 0)
(3 -2.28809e-16 0)
(3 -3.45282e-16 0)
(3 -5.16006e-16 0)
(3 -1.72906e-17 0)
(3 4.05229e-16 0)