/*--------------------------------*- C++ -*----------------------------------*\
  =========                 |
  \\      /  F ield         | OpenFOAM: The Open Source CFD Toolbox
   \\    /   O peration     | Website:  https://openfoam.org
    \\  /    A nd           | Version:  7
     \\/     M anipulation  |
\*---------------------------------------------------------------------------*/
FoamFile
{
    version     2.0;
    format      ascii;
    class       volVectorField;
    location    "0.2";
    object      U;
}
// * * * * * * * * * * * * * * * * * * * * * * * * * * * * * * * * * * * * * //

dimensions      [0 1 -1 0 0 0 0];

internalField   nonuniform List<vector> 
4608
(
(3 5.38302e-18 0)
(3 4.80485e-17 0)
(3 5.59414e-16 0)
(3 4.82916e-16 0)
(3 5.0087e-16 0)
(3 5.23219e-16 0)
(3 1.1956e-15 0)
(3 1.92706e-15 0)
(3 9.12344e-16 0)
(3 5.05784e-16 0)
(3 -9.34219e-16 0)
(3 -1.31132e-15 0)
(3 -1.15824e-15 0)
(3 -1.02734e-15 0)
(3 -1.40486e-15 0)
(3 -1.96008e-15 0)
(3 -2.01073e-15 0)
(3 -3.7139e-15 0)
(3 -4.15792e-15 0)
(3 -2.75976e-15 0)
(3 -2.81354e-16 0)
(3 7.62227e-16 0)
(3 3.15367e-17 0)
(3 4.07557e-16 0)
(3 -5.28942e-17 0)
(3 -2.67217e-16 0)
(3 2.18599e-16 0)
(3 2.46072e-16 0)
(3 6.32604e-16 0)
(3 7.07431e-16 0)
(3 1.48915e-15 0)
(3 2.35257e-15 0)
(3 1.25565e-15 0)
(3 4.88294e-16 0)
(3 -1.72668e-15 0)
(3 -3.48479e-15 0)
(3 -3.81393e-15 0)
(3 -4.30445e-15 0)
(3 -5.06837e-15 0)
(3 -6.65911e-15 0)
(3 -8.81102e-15 0)
(3 -7.77207e-15 0)
(3 -6.6701e-15 0)
(3 -2.95631e-15 0)
(3 6.80435e-16 0)
(3 1.45707e-15 0)
(3 1.46977e-16 0)
(3 -5.64649e-17 0)
(3 -2.13698e-16 0)
(3 -1.37371e-16 0)
(3 1.3283e-17 0)
(3 2.31879e-16 0)
(3 1.05921e-15 0)
(3 1.48094e-15 0)
(3 1.9557e-15 0)
(3 3.19433e-15 0)
(3 2.7275e-15 0)
(3 1.99474e-15 0)
(3 1.20673e-15 0)
(3 -1.17925e-16 0)
(3 -1.40528e-15 0)
(3 -4.49847e-15 0)
(3 -5.05715e-15 0)
(3 -5.33959e-15 0)
(3 -6.04276e-15 0)
(3 -6.05998e-15 0)
(3 -4.16323e-15 0)
(3 -2.65484e-15 0)
(3 -1.16465e-15 0)
(3 -4.73829e-16 0)
(3 -1.04763e-15 0)
(3 -1.4277e-15 0)
(3 3.68095e-17 0)
(3 1.17322e-16 0)
(3 1.96179e-16 0)
(3 -1.81589e-17 0)
(3 -2.09025e-16 0)
(3 6.55788e-16 0)
(3 2.44362e-15 0)
(3 3.50469e-15 0)
(3 3.2937e-15 0)
(3 2.21617e-15 0)
(3 4.91413e-16 0)
(3 -3.32566e-16 0)
(3 -2.01785e-15 0)
(3 -3.47915e-15 0)
(3 -3.99828e-15 0)
(3 -3.82456e-15 0)
(3 -2.18382e-15 0)
(3 -2.10939e-15 0)
(3 -2.53923e-15 0)
(3 -2.75932e-15 0)
(3 -1.9051e-15 0)
(3 -1.7917e-15 0)
(3 -3.28809e-15 0)
(3 -1.73563e-15 0)
(3 4.66575e-16 0)
(3 6.83128e-16 0)
(3 5.38125e-16 0)
(3 3.49468e-16 0)
(3 -1.57195e-16 0)
(3 6.78809e-16 0)
(3 1.32271e-15 0)
(3 9.97609e-16 0)
(3 3.51239e-16 0)
(3 -2.33535e-16 0)
(3 -6.07042e-16 0)
(3 -2.92597e-15 0)
(3 -3.70036e-15 0)
(3 -3.60419e-15 0)
(3 -2.67338e-15 0)
(3 -1.96126e-15 0)
(3 -1.58096e-15 0)
(3 -7.34231e-16 0)
(3 -1.29272e-15 0)
(3 -1.76404e-15 0)
(3 -1.78388e-15 0)
(3 -1.80375e-15 0)
(3 -1.97351e-15 0)
(3 -4.1488e-16 0)
(3 1.22514e-17 0)
(3 2.85462e-16 0)
(3 4.88244e-16 0)
(3 5.10855e-16 0)
(3 7.65178e-16 0)
(3 7.20082e-16 0)
(3 9.37822e-16 0)
(3 -1.8466e-16 0)
(3 -1.45691e-15 0)
(3 -1.52028e-15 0)
(3 -1.02351e-15 0)
(3 -1.88617e-15 0)
(3 -2.3034e-15 0)
(3 -1.66031e-15 0)
(3 -6.94191e-16 0)
(3 4.42264e-16 0)
(3 7.05837e-17 0)
(3 3.78194e-16 0)
(3 2.99759e-16 0)
(3 -2.1247e-16 0)
(3 -7.14762e-16 0)
(3 -2.16885e-16 0)
(3 9.37455e-16 0)
(3 1.32508e-15 0)
(3 2.39382e-17 0)
(3 2.36584e-18 0)
(3 8.17495e-17 0)
(3 -5.01134e-17 0)
(3 -9.07913e-17 0)
(3 3.82916e-17 0)
(3 2.44828e-16 0)
(3 -3.7305e-17 0)
(3 -7.36027e-16 0)
(3 -1.51631e-15 0)
(3 -1.70264e-15 0)
(3 -1.18151e-15 0)
(3 -5.51357e-16 0)
(3 -3.28898e-16 0)
(3 7.72253e-16 0)
(3 1.03265e-15 0)
(3 5.64844e-16 0)
(3 2.95126e-16 0)
(3 6.5399e-16 0)
(3 5.78464e-16 0)
(3 -8.35982e-17 0)
(3 6.73803e-17 0)
(3 1.20891e-15 0)
(3 1.32444e-15 0)
(3 -8.74462e-17 0)
(3 -3.4591e-16 0)
(3 -3.64789e-16 0)
(3 -4.54993e-16 0)
(3 -6.18291e-16 0)
(3 -8.75891e-17 0)
(3 4.75774e-16 0)
(3 5.94205e-16 0)
(3 4.10666e-16 0)
(3 6.61951e-17 0)
(3 2.02509e-16 0)
(3 8.76032e-16 0)
(3 1.95121e-15 0)
(3 1.95608e-15 0)
(3 1.50569e-15 0)
(3 1.05268e-15 0)
(3 -1.99803e-16 0)
(3 -5.18667e-16 0)
(3 2.35809e-16 0)
(3 5.68546e-16 0)
(3 2.74231e-16 0)
(3 7.24602e-17 0)
(3 5.60207e-16 0)
(3 6.3212e-16 0)
(3 -4.83062e-16 0)
(3 -9.72977e-16 0)
(3 -1.29093e-15 0)
(3 -1.38853e-15 0)
(3 -7.40141e-16 0)
(3 -7.31147e-16 0)
(3 -8.10937e-16 0)
(3 -8.85992e-16 0)
(3 -7.19316e-16 0)
(3 -2.83744e-16 0)
(3 1.88098e-15 0)
(3 3.91633e-15 0)
(3 4.06397e-15 0)
(3 2.99379e-15 0)
(3 8.42429e-16 0)
(3 -6.93374e-16 0)
(3 -2.1078e-15 0)
(3 -2.47696e-15 0)
(3 -1.70466e-15 0)
(3 -9.51339e-16 0)
(3 9.59106e-16 0)
(3 1.46388e-15 0)
(3 1.23171e-15 0)
(3 1.23415e-15 0)
(3 -1.34071e-16 0)
(3 -5.42361e-16 0)
(3 -9.60412e-16 0)
(3 -5.54001e-16 0)
(3 5.44185e-17 0)
(3 -4.55982e-16 0)
(3 -1.19178e-15 0)
(3 -2.10378e-15 0)
(3 -2.48926e-15 0)
(3 -1.92177e-15 0)
(3 -3.85045e-16 0)
(3 -3.0486e-17 0)
(3 1.35778e-15 0)
(3 1.29995e-15 0)
(3 -6.60405e-17 0)
(3 -2.93185e-15 0)
(3 -3.69367e-15 0)
(3 -3.60775e-15 0)
(3 -2.31529e-15 0)
(3 -1.97025e-15 0)
(3 -1.19924e-16 0)
(3 2.51299e-15 0)
(3 3.24637e-15 0)
(3 3.64072e-15 0)
(3 5.18433e-17 0)
(3 3.21197e-16 0)
(3 3.85067e-16 0)
(3 2.14511e-16 0)
(3 -3.73813e-16 0)
(3 -8.77752e-16 0)
(3 -1.59235e-15 0)
(3 -1.79902e-15 0)
(3 -7.07899e-16 0)
(3 -4.51651e-16 0)
(3 -5.08296e-16 0)
(3 -5.2243e-16 0)
(3 7.136e-16 0)
(3 7.10651e-16 0)
(3 -5.87774e-16 0)
(3 -8.98211e-16 0)
(3 -1.20485e-15 0)
(3 -1.385e-15 0)
(3 -1.69957e-15 0)
(3 -1.47882e-15 0)
(3 -8.69855e-16 0)
(3 -7.80777e-18 0)
(3 1.97566e-15 0)
(3 2.34661e-15 0)
(3 6.02199e-17 0)
(3 5.65888e-16 0)
(3 6.29366e-16 0)
(3 1.03784e-16 0)
(3 -3.26886e-16 0)
(3 -9.61251e-16 0)
(3 -1.23022e-15 0)
(3 -1.35637e-15 0)
(3 4.66325e-17 0)
(3 1.61059e-15 0)
(3 1.57393e-15 0)
(3 8.26908e-16 0)
(3 -3.83549e-16 0)
(3 -1.45594e-15 0)
(3 -9.3276e-16 0)
(3 5.36257e-16 0)
(3 8.15804e-16 0)
(3 5.70883e-16 0)
(3 -1.00007e-15 0)
(3 -1.15385e-15 0)
(3 -1.43928e-15 0)
(3 -1.0573e-15 0)
(3 6.50178e-17 0)
(3 3.11113e-16 0)
(3 1.92098e-17 0)
(3 1.03118e-16 0)
(3 -4.9468e-17 0)
(3 -9.76366e-17 0)
(3 4.96238e-17 0)
(3 -3.7917e-16 0)
(3 6.56644e-16 0)
(3 1.40562e-15 0)
(3 1.48514e-15 0)
(3 1.29735e-15 0)
(3 1.37128e-15 0)
(3 -1.82856e-15 0)
(3 -4.57187e-15 0)
(3 -4.23128e-15 0)
(3 -2.15274e-15 0)
(3 2.13956e-16 0)
(3 1.3386e-15 0)
(3 8.33247e-16 0)
(3 -1.01505e-17 0)
(3 -1.3096e-15 0)
(3 -2.40357e-15 0)
(3 -2.48427e-15 0)
(3 -2.15385e-15 0)
(3 -1.86698e-15 0)
(3 -6.78646e-17 0)
(3 -4.87817e-16 0)
(3 -6.19631e-16 0)
(3 -1.1962e-15 0)
(3 -1.4315e-15 0)
(3 -5.53101e-16 0)
(3 4.56313e-16 0)
(3 1.57098e-15 0)
(3 1.28905e-15 0)
(3 3.32565e-17 0)
(3 -1.06906e-15 0)
(3 -2.13731e-15 0)
(3 -2.08895e-15 0)
(3 -1.51063e-15 0)
(3 1.11451e-16 0)
(3 1.25804e-15 0)
(3 1.26168e-15 0)
(3 3.16558e-16 0)
(3 -3.4154e-16 0)
(3 -1.67003e-15 0)
(3 -2.91626e-15 0)
(3 -4.45757e-15 0)
(3 -4.7024e-15 0)
(3 -4.59459e-15 0)
(3 8.35432e-18 0)
(3 -1.44282e-16 0)
(3 -4.16294e-18 0)
(3 9.99778e-17 0)
(3 5.61203e-16 0)
(3 -2.35819e-16 0)
(3 -4.42627e-16 0)
(3 -2.82398e-16 0)
(3 6.27311e-16 0)
(3 5.21898e-16 0)
(3 -3.63073e-16 0)
(3 -2.41191e-16 0)
(3 8.12677e-16 0)
(3 6.48635e-16 0)
(3 3.38905e-16 0)
(3 5.18851e-17 0)
(3 1.16118e-16 0)
(3 2.8464e-16 0)
(3 3.00405e-16 0)
(3 -5.28624e-16 0)
(3 -1.61106e-15 0)
(3 -1.66949e-15 0)
(3 -1.89892e-15 0)
(3 -2.09091e-15 0)
(3 1.36471e-16 0)
(3 4.02169e-16 0)
(3 9.64935e-16 0)
(3 1.16473e-15 0)
(3 1.06441e-15 0)
(3 -5.79188e-16 0)
(3 -1.75009e-15 0)
(3 -1.65547e-15 0)
(3 -4.17721e-16 0)
(3 2.46801e-16 0)
(3 1.16824e-15 0)
(3 1.62233e-15 0)
(3 2.20078e-15 0)
(3 2.14744e-15 0)
(3 1.70331e-15 0)
(3 -2.86314e-16 0)
(3 -5.87829e-16 0)
(3 1.5797e-16 0)
(3 9.04338e-16 0)
(3 1.20304e-15 0)
(3 9.93041e-16 0)
(3 4.41669e-16 0)
(3 3.5607e-16 0)
(3 -1.29579e-16 0)
(3 3.40388e-19 0)
(3 -4.39128e-17 0)
(3 -2.6013e-16 0)
(3 -1.17943e-16 0)
(3 -5.87222e-16 0)
(3 -1.48727e-16 0)
(3 -8.21695e-16 0)
(3 -6.93917e-16 0)
(3 2.86593e-17 0)
(3 6.67813e-16 0)
(3 1.64355e-15 0)
(3 1.98399e-15 0)
(3 1.96917e-15 0)
(3 1.74372e-15 0)
(3 1.13954e-15 0)
(3 -4.43709e-16 0)
(3 -1.17564e-15 0)
(3 -1.11023e-15 0)
(3 8.57823e-16 0)
(3 1.64516e-15 0)
(3 1.86035e-15 0)
(3 1.18771e-15 0)
(3 1.89944e-16 0)
(3 -6.40278e-16 0)
(3 -3.47081e-17 0)
(3 -1.92496e-16 0)
(3 -1.01238e-15 0)
(3 -1.22017e-15 0)
(3 -4.33298e-16 0)
(3 8.73907e-16 0)
(3 1.72811e-15 0)
(3 2.01095e-15 0)
(3 6.33098e-16 0)
(3 7.54393e-17 0)
(3 8.47472e-16 0)
(3 1.12314e-15 0)
(3 5.77755e-16 0)
(3 2.46879e-16 0)
(3 -2.55094e-17 0)
(3 -2.13155e-16 0)
(3 -2.96051e-16 0)
(3 -9.26868e-16 0)
(3 -5.25024e-16 0)
(3 -3.99165e-17 0)
(3 4.10656e-16 0)
(3 4.68532e-16 0)
(3 -4.48722e-16 0)
(3 -8.10837e-16 0)
(3 -4.53491e-16 0)
(3 -6.69136e-16 0)
(3 -1.36016e-15 0)
(3 -1.6961e-15 0)
(3 -1.36879e-15 0)
(3 -1.08713e-16 0)
(3 2.49434e-15 0)
(3 2.69844e-15 0)
(3 1.45873e-15 0)
(3 -1.2982e-16 0)
(3 9.18867e-16 0)
(3 8.76291e-16 0)
(3 4.17576e-16 0)
(3 -6.44282e-16 0)
(3 -4.77609e-16 0)
(3 3.43723e-16 0)
(3 4.40858e-16 0)
(3 1.34358e-16 0)
(3 -1.10665e-16 0)
(3 -3.3158e-16 0)
(3 1.22067e-16 0)
(3 8.57502e-16 0)
(3 8.90553e-16 0)
(3 7.06752e-16 0)
(3 -1.52351e-16 0)
(3 -6.10352e-16 0)
(3 -2.13037e-16 0)
(3 6.67632e-17 0)
(3 -8.63443e-16 0)
(3 -7.02939e-16 0)
(3 1.59035e-16 0)
(3 5.40381e-16 0)
(3 -7.09764e-17 0)
(3 -2.67612e-16 0)
(3 -1.51019e-16 0)
(3 1.50198e-16 0)
(3 2.69124e-16 0)
(3 -2.47101e-17 0)
(3 -8.9311e-16 0)
(3 -9.19461e-16 0)
(3 4.43931e-16 0)
(3 8.63673e-16 0)
(3 1.14177e-16 0)
(3 -4.43392e-16 0)
(3 5.84204e-16 0)
(3 1.99953e-15 0)
(3 2.00157e-15 0)
(3 1.52595e-15 0)
(3 2.31117e-16 0)
(3 3.04623e-16 0)
(3 3.84393e-16 0)
(3 1.287e-16 0)
(3 -4.11681e-17 0)
(3 -8.58081e-16 0)
(3 -1.55192e-15 0)
(3 -1.45815e-15 0)
(3 -6.69317e-16 0)
(3 -5.66751e-16 0)
(3 -1.23652e-15 0)
(3 -1.64859e-15 0)
(3 2.78053e-16 0)
(3 1.3419e-15 0)
(3 1.51956e-15 0)
(3 1.05906e-15 0)
(3 1.0071e-15 0)
(3 1.2926e-15 0)
(3 8.71821e-16 0)
(3 8.05141e-16 0)
(3 1.19373e-15 0)
(3 4.73167e-16 0)
(3 -1.16039e-15 0)
(3 -1.49058e-15 0)
(3 3.03489e-16 0)
(3 7.53756e-16 0)
(3 5.34483e-16 0)
(3 4.89718e-16 0)
(3 9.25019e-16 0)
(3 8.47387e-16 0)
(3 -5.1847e-16 0)
(3 -7.01742e-16 0)
(3 4.46235e-17 0)
(3 1.0059e-15 0)
(3 5.83828e-16 0)
(3 -8.41461e-17 0)
(3 5.44105e-16 0)
(3 2.35102e-15 0)
(3 2.51526e-15 0)
(3 1.7932e-15 0)
(3 1.12811e-15 0)
(3 1.25919e-15 0)
(3 2.75379e-15 0)
(3 3.26936e-15 0)
(3 2.11998e-15 0)
(3 -7.738e-16 0)
(3 -2.68869e-15 0)
(3 -2.82277e-15 0)
(3 -1.34856e-16 0)
(3 -4.93853e-17 0)
(3 7.73621e-16 0)
(3 1.21888e-15 0)
(3 1.01143e-15 0)
(3 1.88293e-16 0)
(3 -4.75536e-16 0)
(3 -8.48371e-16 0)
(3 -7.78265e-16 0)
(3 6.90604e-16 0)
(3 1.29706e-15 0)
(3 1.96527e-15 0)
(3 2.5546e-15 0)
(3 2.82842e-15 0)
(3 2.00483e-15 0)
(3 7.6905e-16 0)
(3 4.98806e-16 0)
(3 8.05005e-16 0)
(3 1.55975e-15 0)
(3 1.28939e-15 0)
(3 3.61759e-19 0)
(3 -8.12707e-16 0)
(3 -2.2383e-16 0)
(3 3.01477e-17 0)
(3 -3.91344e-17 0)
(3 -1.10947e-16 0)
(3 1.39859e-16 0)
(3 2.28503e-16 0)
(3 -1.70542e-16 0)
(3 -1.70331e-16 0)
(3 -2.357e-16 0)
(3 -4.69827e-16 0)
(3 3.52177e-17 0)
(3 8.4579e-16 0)
(3 1.15955e-15 0)
(3 1.00639e-15 0)
(3 4.67655e-16 0)
(3 -1.93444e-16 0)
(3 4.10912e-17 0)
(3 6.36639e-16 0)
(3 8.07005e-16 0)
(3 6.74964e-16 0)
(3 -1.66661e-15 0)
(3 -2.27416e-15 0)
(3 -1.63663e-15 0)
(3 -3.2321e-16 0)
(3 2.20275e-15 0)
(3 3.74812e-15 0)
(3 2.83022e-16 0)
(3 4.31959e-16 0)
(3 6.25002e-16 0)
(3 5.26051e-16 0)
(3 1.84185e-16 0)
(3 -1.22384e-16 0)
(3 -2.2515e-16 0)
(3 -4.28835e-16 0)
(3 3.68284e-16 0)
(3 3.33494e-16 0)
(3 -8.11178e-16 0)
(3 -1.16415e-15 0)
(3 -1.24028e-15 0)
(3 -1.61401e-15 0)
(3 -7.55806e-16 0)
(3 2.67257e-15 0)
(3 3.29074e-15 0)
(3 2.50729e-15 0)
(3 4.75661e-16 0)
(3 -1.77532e-15 0)
(3 -8.98384e-16 0)
(3 1.48694e-15 0)
(3 4.8476e-15 0)
(3 6.83804e-15 0)
(3 9.91589e-17 0)
(3 6.04007e-17 0)
(3 6.64213e-16 0)
(3 7.79385e-16 0)
(3 6.56227e-16 0)
(3 -5.29415e-16 0)
(3 -8.62628e-16 0)
(3 -2.33398e-16 0)
(3 3.70932e-16 0)
(3 -1.34762e-15 0)
(3 -3.65336e-15 0)
(3 -2.94347e-15 0)
(3 -2.12049e-15 0)
(3 -1.29689e-15 0)
(3 -3.88985e-16 0)
(3 5.67256e-16 0)
(3 1.18003e-15 0)
(3 1.05882e-15 0)
(3 8.51554e-16 0)
(3 -1.72549e-16 0)
(3 6.73157e-16 0)
(3 1.97497e-15 0)
(3 4.16083e-15 0)
(3 5.37581e-15 0)
(3 -2.65281e-17 0)
(3 -5.11406e-17 0)
(3 3.11205e-16 0)
(3 7.67894e-16 0)
(3 6.18786e-16 0)
(3 6.87266e-16 0)
(3 5.15101e-16 0)
(3 -1.47714e-16 0)
(3 -1.72382e-16 0)
(3 -4.82866e-17 0)
(3 -1.3525e-16 0)
(3 -7.15861e-16 0)
(3 -8.88049e-16 0)
(3 -4.64356e-16 0)
(3 -5.90229e-16 0)
(3 -1.42901e-15 0)
(3 -1.78803e-15 0)
(3 -2.1001e-15 0)
(3 -7.42182e-16 0)
(3 3.69727e-16 0)
(3 -7.50797e-16 0)
(3 -1.07786e-15 0)
(3 -1.53601e-15 0)
(3 1.67693e-15 0)
(3 -2.5884e-17 0)
(3 5.89013e-17 0)
(3 2.26456e-16 0)
(3 4.8326e-16 0)
(3 9.50261e-16 0)
(3 1.98315e-15 0)
(3 1.60449e-15 0)
(3 -2.45604e-16 0)
(3 -6.4725e-16 0)
(3 3.42627e-16 0)
(3 1.30326e-15 0)
(3 5.58073e-16 0)
(3 1.47824e-16 0)
(3 5.13221e-18 0)
(3 -3.34547e-16 0)
(3 -1.05317e-15 0)
(3 -9.17162e-16 0)
(3 -3.39065e-16 0)
(3 -1.39388e-16 0)
(3 6.49813e-17 0)
(3 -6.34956e-16 0)
(3 -3.22971e-15 0)
(3 -5.12891e-15 0)
(3 -3.1973e-15 0)
(3 -9.49006e-17 0)
(3 -3.27767e-16 0)
(3 -5.00827e-16 0)
(3 -3.67986e-16 0)
(3 1.60607e-16 0)
(3 8.26771e-16 0)
(3 6.31904e-16 0)
(3 4.34745e-16 0)
(3 8.26325e-16 0)
(3 9.27461e-16 0)
(3 1.0703e-15 0)
(3 1.42241e-15 0)
(3 1.2576e-15 0)
(3 1.0763e-15 0)
(3 7.26532e-16 0)
(3 4.76864e-16 0)
(3 3.15434e-18 0)
(3 1.60942e-16 0)
(3 -4.58004e-17 0)
(3 6.79781e-17 0)
(3 -6.10673e-16 0)
(3 -1.48565e-15 0)
(3 -3.01803e-15 0)
(3 -4.20911e-15 0)
(3 -6.17497e-17 0)
(3 -1.54831e-16 0)
(3 -2.86122e-16 0)
(3 2.24291e-17 0)
(3 1.28846e-18 0)
(3 -1.02551e-16 0)
(3 -5.53411e-16 0)
(3 -5.61385e-16 0)
(3 -4.95242e-16 0)
(3 -5.18865e-16 0)
(3 -5.01566e-16 0)
(3 2.13139e-15 0)
(3 3.76181e-15 0)
(3 2.6409e-15 0)
(3 2.17336e-15 0)
(3 1.53842e-15 0)
(3 5.99582e-16 0)
(3 5.6605e-16 0)
(3 -4.99514e-17 0)
(3 -5.48059e-16 0)
(3 -4.50634e-16 0)
(3 -8.96108e-16 0)
(3 -1.65323e-15 0)
(3 -3.3656e-15 0)
(3 3.22211e-17 0)
(3 3.5361e-16 0)
(3 4.46668e-16 0)
(3 3.83375e-16 0)
(3 5.17885e-16 0)
(3 -1.40354e-16 0)
(3 -1.50658e-15 0)
(3 -1.72942e-15 0)
(3 -1.18259e-15 0)
(3 -1.83005e-15 0)
(3 -1.14569e-16 0)
(3 2.28627e-15 0)
(3 3.44645e-15 0)
(3 2.41326e-15 0)
(3 2.60036e-15 0)
(3 3.9635e-15 0)
(3 4.54909e-15 0)
(3 4.17119e-15 0)
(3 1.3967e-15 0)
(3 -1.41389e-15 0)
(3 -1.48446e-15 0)
(3 -1.3097e-15 0)
(3 -1.89162e-15 0)
(3 -3.01261e-15 0)
(3 5.72045e-18 0)
(3 9.16239e-18 0)
(3 1.35094e-16 0)
(3 1.42932e-16 0)
(3 2.35531e-16 0)
(3 -1.07502e-16 0)
(3 -7.75875e-16 0)
(3 -3.97666e-16 0)
(3 -1.34292e-16 0)
(3 -4.61708e-16 0)
(3 6.36293e-16 0)
(3 1.56571e-15 0)
(3 1.41974e-15 0)
(3 1.95192e-15 0)
(3 3.1419e-15 0)
(3 5.00042e-15 0)
(3 5.45602e-15 0)
(3 4.61485e-15 0)
(3 2.88029e-15 0)
(3 8.35091e-16 0)
(3 -3.39647e-16 0)
(3 -3.78888e-16 0)
(3 -4.80541e-16 0)
(3 -1.07694e-15 0)
(2.93427 0.00761532 0)
(2.84497 0.072481 0)
(2.7531 0.154818 0)
(2.67529 0.226719 0)
(2.57027 0.356213 0)
(2.50194 0.443967 0)
(2.42248 0.5408 0)
(2.35102 0.631559 0)
(2.30869 0.720963 0)
(2.25469 0.799583 0)
(2.2532 0.855427 0)
(2.29931 0.888007 0)
(2.34568 0.909362 0)
(2.38845 0.893324 0)
(2.40656 0.900811 0)
(2.42555 0.893908 0)
(2.44488 0.894033 0)
(2.45152 0.890625 0)
(2.45931 0.888464 0)
(2.4675 0.889107 0)
(2.47645 0.88991 0)
(2.48771 0.893597 0)
(2.50518 0.896094 0)
(2.52784 0.906278 0)
(2.99897 0.000980667 0)
(2.98945 0.0120239 0)
(2.95997 0.051299 0)
(2.90393 0.130672 0)
(2.80138 0.275019 0)
(2.68365 0.460788 0)
(2.52634 0.688658 0)
(2.39236 0.896613 0)
(2.2186 1.07437 0)
(2.15756 1.09465 0)
(2.1641 1.03889 0)
(2.21543 0.994088 0)
(2.28174 0.957601 0)
(2.35262 0.925839 0)
(2.40251 0.896326 0)
(2.43199 0.876142 0)
(2.45882 0.867525 0)
(2.47295 0.867521 0)
(2.48503 0.86865 0)
(2.49503 0.873824 0)
(2.50887 0.875723 0)
(2.51745 0.881416 0)
(2.5266 0.890654 0)
(2.54189 0.904381 0)
(3 -1.37446e-06 0)
(2.99999 7.14048e-06 0)
(2.99997 7.40703e-05 0)
(2.99996 2.59242e-05 0)
(2.99855 0.0019736 0)
(2.99159 0.0121659 0)
(2.96521 0.0542049 0)
(2.90013 0.170053 0)
(2.77186 0.416004 0)
(2.5656 0.715192 0)
(2.46075 0.859859 0)
(2.35641 0.918427 0)
(2.35812 0.918823 0)
(2.38313 0.910287 0)
(2.41707 0.901019 0)
(2.44453 0.899082 0)
(2.46889 0.899956 0)
(2.4924 0.894099 0)
(2.50638 0.896214 0)
(2.51996 0.897251 0)
(2.53736 0.895477 0)
(2.55096 0.887042 0)
(2.56276 0.888688 0)
(2.57481 0.895503 0)
(3 -6.37387e-08 0)
(3 1.04711e-07 0)
(3 -5.76745e-08 0)
(3 -4.33587e-07 0)
(3.00001 -8.27854e-06 0)
(2.99999 2.14933e-05 0)
(3.00003 -9.12516e-05 0)
(2.99933 0.00108468 0)
(2.9884 0.0199261 0)
(2.89539 0.16413 0)
(2.71277 0.469713 0)
(2.51147 0.730998 0)
(2.39166 0.889153 0)
(2.39358 0.937031 0)
(2.4101 0.942319 0)
(2.43589 0.933677 0)
(2.47472 0.922771 0)
(2.50098 0.915871 0)
(2.51767 0.908415 0)
(2.53687 0.90495 0)
(2.56044 0.899747 0)
(2.57666 0.887989 0)
(2.58703 0.88143 0)
(2.59931 0.888004 0)
(3 6.81389e-11 0)
(3 1.94025e-09 0)
(3 -1.29091e-08 0)
(3 -5.20623e-08 0)
(3 -6.76278e-07 0)
(3 -7.58836e-07 0)
(3 -3.66731e-06 0)
(3 -3.22359e-06 0)
(3.00003 -7.22807e-05 0)
(2.99917 0.00103074 0)
(2.98281 0.0232104 0)
(2.88083 0.16294 0)
(2.69837 0.426429 0)
(2.58853 0.635207 0)
(2.48103 0.832123 0)
(2.49997 0.835854 0)
(2.51743 0.853593 0)
(2.529 0.886562 0)
(2.5373 0.888827 0)
(2.54955 0.890611 0)
(2.56407 0.895034 0)
(2.57431 0.902157 0)
(2.58368 0.905298 0)
(2.59455 0.911434 0)
(3 4.90228e-12 0)
(3 -2.11696e-11 0)
(3 -1.71123e-11 0)
(3 -3.35568e-10 0)
(3 -1.10886e-09 0)
(3 -4.55639e-08 0)
(3 -9.19298e-08 0)
(3 -2.84031e-07 0)
(3 -6.45519e-06 0)
(3 -5.94194e-06 0)
(3.00003 -6.09857e-05 0)
(2.99885 0.00153569 0)
(2.98278 0.023536 0)
(2.90657 0.13578 0)
(2.79168 0.324034 0)
(2.6492 0.569856 0)
(2.59541 0.709715 0)
(2.54469 0.83131 0)
(2.55496 0.863736 0)
(2.55639 0.883313 0)
(2.55284 0.914832 0)
(2.55637 0.922499 0)
(2.56775 0.924426 0)
(2.58383 0.931955 0)
(3 8.15616e-14 0)
(3 -8.78977e-14 0)
(3 7.55097e-12 0)
(3 1.89911e-11 0)
(3 3.0881e-11 0)
(3 -4.93978e-10 0)
(3 -2.10089e-10 0)
(3 -9.41197e-10 0)
(3 -1.41556e-08 0)
(3 -3.68162e-07 0)
(3 -6.71904e-06 0)
(3 -5.06702e-06 0)
(3.00001 -2.76085e-05 0)
(2.99925 0.00103459 0)
(2.99052 0.0151137 0)
(2.95417 0.0719804 0)
(2.86613 0.225329 0)
(2.78804 0.392141 0)
(2.67821 0.615895 0)
(2.67071 0.688471 0)
(2.60013 0.813323 0)
(2.60575 0.834074 0)
(2.5916 0.870119 0)
(2.59337 0.899309 0)
(3 -3.31415e-17 0)
(3 1.71036e-14 0)
(3 1.43695e-13 0)
(3 1.76452e-12 0)
(3 7.54484e-12 0)
(3 7.23196e-12 0)
(3 8.11527e-12 0)
(3 5.85551e-12 0)
(3 1.29637e-10 0)
(3 -2.26242e-10 0)
(3 -4.53628e-08 0)
(3 -3.66228e-07 0)
(3 -4.2435e-06 0)
(3 -3.17776e-06 0)
(3 -1.86342e-05 0)
(2.99975 0.000393905 0)
(2.99703 0.00493008 0)
(2.9833 0.0310386 0)
(2.94481 0.103045 0)
(2.8808 0.24248 0)
(2.79316 0.419394 0)
(2.70197 0.614118 0)
(2.68616 0.705108 0)
(2.5898 0.866296 0)
(3 6.57767e-16 0)
(3 -1.02014e-15 0)
(3 -4.07788e-15 0)
(3 2.29389e-17 0)
(3 1.40893e-13 0)
(3 7.59571e-13 0)
(3 1.94992e-12 0)
(3 2.45927e-12 0)
(3 1.58947e-11 0)
(3 1.36903e-11 0)
(3 2.08633e-10 0)
(3 -1.82192e-09 0)
(3 -2.60346e-08 0)
(3 -4.38156e-07 0)
(3 -1.65945e-06 0)
(3 -2.20505e-06 0)
(3 6.76946e-06 0)
(2.99997 3.33607e-05 0)
(2.99943 0.00107292 0)
(2.99646 0.0068924 0)
(2.9807 0.0385668 0)
(2.94702 0.110135 0)
(2.86105 0.294042 0)
(2.80995 0.424074 0)
(3 3.06279e-15 0)
(3 1.1458e-15 0)
(3 -2.0103e-15 0)
(3 -4.22309e-15 0)
(3 -5.06214e-15 0)
(3 8.15667e-16 0)
(3 5.09771e-14 0)
(3 1.51931e-13 0)
(3 6.80356e-13 0)
(3 1.8712e-12 0)
(3 2.41293e-11 0)
(3 1.6239e-11 0)
(3 1.05274e-10 0)
(3 -5.1775e-09 0)
(3 -1.63946e-08 0)
(3 -1.74148e-07 0)
(3 -7.9375e-08 0)
(3 -2.28829e-07 0)
(3 2.31184e-07 0)
(3 -7.4266e-06 0)
(2.99992 0.000131565 0)
(2.99934 0.00139894 0)
(2.99342 0.0146485 0)
(2.98538 0.0309559 0)
(3 2.25721e-15 0)
(3 2.51199e-15 0)
(3 1.40038e-15 0)
(3 -1.38906e-15 0)
(3 -1.7585e-15 0)
(3 -1.10551e-15 0)
(3 -1.056e-16 0)
(3 4.5161e-15 0)
(3 1.18501e-14 0)
(3 2.75223e-14 0)
(3 2.72519e-13 0)
(3 1.6197e-12 0)
(3 1.41047e-11 0)
(3 1.26519e-11 0)
(3 3.76202e-11 0)
(3 -7.08044e-10 0)
(3 -7.3691e-09 0)
(3 -5.49682e-08 0)
(3 -9.69961e-08 0)
(3 -1.25136e-06 0)
(3 -6.9245e-07 0)
(3 -3.71635e-06 0)
(2.99997 9.26209e-05 0)
(3.00011 -0.000474677 0)
(3 6.29759e-17 0)
(3 1.4695e-15 0)
(3 2.09472e-15 0)
(3 2.32366e-15 0)
(3 1.6073e-15 0)
(3 1.77148e-15 0)
(3 1.41615e-15 0)
(3 5.90256e-16 0)
(3 -1.30036e-15 0)
(3 -1.80244e-16 0)
(3 5.07821e-16 0)
(3 1.56324e-14 0)
(3 1.73507e-13 0)
(3 2.8584e-12 0)
(3 2.78218e-12 0)
(3 3.8328e-12 0)
(3 -8.47783e-11 0)
(3 -1.54009e-09 0)
(3 -9.67954e-09 0)
(3 -2.40826e-08 0)
(3 -8.10827e-08 0)
(3 -4.98955e-07 0)
(3 -2.38532e-07 0)
(3.00002 -5.55121e-05 0)
(3 -2.0216e-15 0)
(3 -1.70652e-15 0)
(3 -1.14021e-15 0)
(3 1.45582e-15 0)
(3 2.62619e-15 0)
(3 2.29321e-15 0)
(3 1.884e-15 0)
(3 2.34405e-16 0)
(3 -6.63532e-16 0)
(3 -5.2933e-16 0)
(3 -2.26197e-16 0)
(3 1.90805e-15 0)
(3 2.91866e-15 0)
(3 5.35917e-14 0)
(3 1.25186e-13 0)
(3 5.84503e-13 0)
(3 -1.60976e-13 0)
(3 2.72518e-13 0)
(3 -3.82305e-11 0)
(3 3.41205e-11 0)
(3 -7.38347e-10 0)
(3 -1.05055e-08 0)
(3 -4.59348e-08 0)
(3 -2.73314e-07 0)
(3 -3.91086e-15 0)
(3 -3.38596e-15 0)
(3 -2.97289e-15 0)
(3 -1.07384e-15 0)
(3 4.94273e-16 0)
(3 5.60425e-16 0)
(3 3.73388e-16 0)
(3 4.6456e-16 0)
(3 -5.2001e-17 0)
(3 -4.53237e-16 0)
(3 -7.95036e-16 0)
(3 -1.00383e-16 0)
(3 3.12655e-17 0)
(3 3.13288e-16 0)
(3 5.75702e-15 0)
(3 2.24629e-14 0)
(3 1.45651e-14 0)
(3 2.06158e-13 0)
(3 3.04023e-13 0)
(3 5.6595e-12 0)
(3 4.72252e-13 0)
(3 7.37722e-12 0)
(3 -1.92858e-09 0)
(3 4.19079e-09 0)
(3 -1.53878e-15 0)
(3 -1.21862e-15 0)
(3 -8.75825e-16 0)
(3 -5.71285e-16 0)
(3 -2.72776e-17 0)
(3 8.91531e-16 0)
(3 1.09322e-15 0)
(3 1.16141e-15 0)
(3 7.44984e-16 0)
(3 -8.98141e-16 0)
(3 -1.1488e-15 0)
(3 -6.29169e-16 0)
(3 -9.24944e-16 0)
(3 -6.90549e-16 0)
(3 2.37247e-15 0)
(3 5.0486e-15 0)
(3 5.01317e-15 0)
(3 2.50418e-14 0)
(3 6.44606e-14 0)
(3 2.22218e-13 0)
(3 9.6693e-14 0)
(3 5.2044e-13 0)
(3 -1.09927e-11 0)
(3 1.45051e-09 0)
(3 -8.6537e-16 0)
(3 -1.02595e-15 0)
(3 -5.67092e-16 0)
(3 -4.64538e-17 0)
(3 9.37564e-16 0)
(3 1.64374e-15 0)
(3 1.18699e-15 0)
(3 8.38037e-16 0)
(3 1.16828e-15 0)
(3 -5.04253e-16 0)
(3 -2.96923e-15 0)
(3 -3.64111e-15 0)
(3 -2.45687e-15 0)
(3 -1.11888e-15 0)
(3 2.42255e-15 0)
(3 3.52767e-15 0)
(3 1.63986e-15 0)
(3 -3.20624e-15 0)
(3 -8.76083e-16 0)
(3 -9.63786e-16 0)
(3 6.50597e-15 0)
(3 1.3254e-13 0)
(3 5.56922e-14 0)
(3 8.37848e-11 0)
(3 -2.09147e-15 0)
(3 -2.43431e-15 0)
(3 -1.66332e-15 0)
(3 -9.82543e-17 0)
(3 1.50586e-15 0)
(3 1.73162e-15 0)
(3 1.43856e-15 0)
(3 9.83892e-16 0)
(3 7.38951e-16 0)
(3 -2.12424e-16 0)
(3 -2.79672e-15 0)
(3 -4.97132e-15 0)
(3 -4.54347e-15 0)
(3 -1.70839e-15 0)
(3 5.97278e-16 0)
(3 -3.66666e-16 0)
(3 -2.83139e-15 0)
(3 -4.98713e-15 0)
(3 -5.58232e-15 0)
(3 -4.42775e-15 0)
(3 -9.91676e-15 0)
(3 -1.35943e-13 0)
(3 -5.89947e-14 0)
(3 -8.37908e-11 0)
(3 -4.3543e-16 0)
(3 -1.97576e-17 0)
(3 -5.20654e-16 0)
(3 -3.02957e-16 0)
(3 -1.58853e-16 0)
(3 5.61884e-16 0)
(3 1.69204e-15 0)
(3 1.58661e-15 0)
(3 7.08976e-17 0)
(3 -7.77177e-16 0)
(3 -2.08753e-15 0)
(3 -3.76525e-15 0)
(3 -3.79017e-15 0)
(3 -3.01607e-15 0)
(3 -2.07778e-15 0)
(3 -2.034e-15 0)
(3 -2.12228e-15 0)
(3 -1.80247e-14 0)
(3 -6.03925e-14 0)
(3 -2.20831e-13 0)
(3 -9.67671e-14 0)
(3 -5.21457e-13 0)
(3 1.09919e-11 0)
(3 -1.45052e-09 0)
(3 1.30691e-15 0)
(3 1.41398e-15 0)
(3 1.14378e-15 0)
(3 2.99158e-16 0)
(3 -9.90405e-16 0)
(3 -8.80735e-16 0)
(3 -4.6974e-16 0)
(3 -4.29022e-16 0)
(3 -1.91142e-17 0)
(3 -5.50677e-16 0)
(3 -7.55327e-16 0)
(3 2.83759e-16 0)
(3 1.74368e-15 0)
(3 1.27964e-15 0)
(3 -1.92062e-15 0)
(3 -1.49817e-14 0)
(3 -5.27797e-15 0)
(3 -1.94185e-13 0)
(3 -2.99511e-13 0)
(3 -5.65534e-12 0)
(3 -4.68247e-13 0)
(3 -7.37261e-12 0)
(3 1.92858e-09 0)
(3 -4.19079e-09 0)
(3 3.5696e-16 0)
(3 4.70342e-16 0)
(3 7.68417e-16 0)
(3 3.16096e-16 0)
(3 -1.82471e-15 0)
(3 -3.06899e-15 0)
(3 -1.66944e-15 0)
(3 -2.04009e-16 0)
(3 7.16648e-16 0)
(3 6.43794e-16 0)
(3 3.20351e-15 0)
(3 4.97554e-15 0)
(3 6.99171e-15 0)
(3 -3.82684e-14 0)
(3 -1.06654e-13 0)
(3 -5.77726e-13 0)
(3 1.64808e-13 0)
(3 -2.68659e-13 0)
(3 3.82351e-11 0)
(3 -3.41168e-11 0)
(3 7.38349e-10 0)
(3 1.05055e-08 0)
(3 4.59348e-08 0)
(3 2.73314e-07 0)
(3 -1.59659e-15 0)
(3 -3.88064e-16 0)
(3 5.07826e-16 0)
(3 6.97016e-16 0)
(3 -3.73005e-16 0)
(3 -1.04568e-15 0)
(3 -1.51337e-15 0)
(3 1.93232e-16 0)
(3 1.49375e-15 0)
(3 6.87888e-16 0)
(3 5.5305e-17 0)
(3 -1.51219e-14 0)
(3 -1.7379e-13 0)
(3 -2.86592e-12 0)
(3 -2.79111e-12 0)
(3 -3.84041e-12 0)
(3 8.47705e-11 0)
(3 1.54008e-09 0)
(3 9.67953e-09 0)
(3 2.40826e-08 0)
(3 8.10827e-08 0)
(3 4.98955e-07 0)
(3 2.38532e-07 0)
(3.00002 5.55121e-05 0)
(3 -1.39258e-15 0)
(3 -4.15213e-16 0)
(3 1.79006e-17 0)
(3 9.30404e-16 0)
(3 2.03115e-15 0)
(3 1.91251e-15 0)
(3 1.48854e-15 0)
(3 -4.29639e-15 0)
(3 -7.22876e-15 0)
(3 -2.16722e-14 0)
(3 -2.74419e-13 0)
(3 -1.63279e-12 0)
(3 -1.4119e-11 0)
(3 -1.26612e-11 0)
(3 -3.7629e-11 0)
(3 7.08035e-10 0)
(3 7.36908e-09 0)
(3 5.49681e-08 0)
(3 9.6996e-08 0)
(3 1.25136e-06 0)
(3 6.9245e-07 0)
(3 3.71635e-06 0)
(2.99997 -9.26209e-05 0)
(3.00011 0.000474677 0)
(3 3.8926e-16 0)
(3 -1.74783e-16 0)
(3 -3.36606e-16 0)
(3 -8.13704e-16 0)
(3 6.80027e-16 0)
(3 -4.47151e-15 0)
(3 -5.32217e-14 0)
(3 -1.49363e-13 0)
(3 -6.69727e-13 0)
(3 -1.85889e-12 0)
(3 -2.41216e-11 0)
(3 -1.62319e-11 0)
(3 -1.0527e-10 0)
(3 5.17751e-09 0)
(3 1.63946e-08 0)
(3 1.74148e-07 0)
(3 7.9375e-08 0)
(3 2.28828e-07 0)
(3 -2.31185e-07 0)
(3 7.4266e-06 0)
(2.99992 -0.000131565 0)
(2.99934 -0.00139894 0)
(2.99342 -0.0146485 0)
(2.98538 -0.0309559 0)
(3 1.93751e-15 0)
(3 1.36948e-15 0)
(3 2.12663e-15 0)
(3 -4.07447e-15 0)
(3 -1.48231e-13 0)
(3 -7.62756e-13 0)
(3 -1.96223e-12 0)
(3 -2.45727e-12 0)
(3 -1.58941e-11 0)
(3 -1.36903e-11 0)
(3 -2.08632e-10 0)
(3 1.82192e-09 0)
(3 2.60346e-08 0)
(3 4.38156e-07 0)
(3 1.65945e-06 0)
(3 2.20505e-06 0)
(3 -6.76946e-06 0)
(2.99997 -3.33607e-05 0)
(2.99943 -0.00107292 0)
(2.99646 -0.0068924 0)
(2.9807 -0.0385668 0)
(2.94702 -0.110135 0)
(2.86105 -0.294042 0)
(2.80995 -0.424074 0)
(3 4.93617e-15 0)
(3 -1.40039e-14 0)
(3 -1.41224e-13 0)
(3 -1.76336e-12 0)
(3 -7.54486e-12 0)
(3 -7.2325e-12 0)
(3 -8.1196e-12 0)
(3 -5.85848e-12 0)
(3 -1.29641e-10 0)
(3 2.26242e-10 0)
(3 4.53628e-08 0)
(3 3.66228e-07 0)
(3 4.2435e-06 0)
(3 3.17776e-06 0)
(3 1.86342e-05 0)
(2.99975 -0.000393905 0)
(2.99703 -0.00493008 0)
(2.9833 -0.0310386 0)
(2.94481 -0.103045 0)
(2.8808 -0.24248 0)
(2.79316 -0.419394 0)
(2.70197 -0.614118 0)
(2.68616 -0.705108 0)
(2.5898 -0.866296 0)
(3 -7.5918e-14 0)
(3 9.17187e-14 0)
(3 -7.5487e-12 0)
(3 -1.89905e-11 0)
(3 -3.0882e-11 0)
(3 4.93978e-10 0)
(3 2.10082e-10 0)
(3 9.41195e-10 0)
(3 1.41556e-08 0)
(3 3.68162e-07 0)
(3 6.71904e-06 0)
(3 5.06702e-06 0)
(3.00001 2.76085e-05 0)
(2.99925 -0.00103459 0)
(2.99052 -0.0151137 0)
(2.95417 -0.0719804 0)
(2.86613 -0.225329 0)
(2.78804 -0.392141 0)
(2.67821 -0.615895 0)
(2.67071 -0.688471 0)
(2.60013 -0.813323 0)
(2.60575 -0.834074 0)
(2.5916 -0.870119 0)
(2.59337 -0.899309 0)
(3 -4.89977e-12 0)
(3 2.11723e-11 0)
(3 1.71151e-11 0)
(3 3.35573e-10 0)
(3 1.10886e-09 0)
(3 4.55639e-08 0)
(3 9.19298e-08 0)
(3 2.84031e-07 0)
(3 6.45519e-06 0)
(3 5.94194e-06 0)
(3.00003 6.09857e-05 0)
(2.99885 -0.00153569 0)
(2.98278 -0.023536 0)
(2.90657 -0.13578 0)
(2.79168 -0.324034 0)
(2.6492 -0.569856 0)
(2.59541 -0.709715 0)
(2.54469 -0.83131 0)
(2.55496 -0.863736 0)
(2.55639 -0.883313 0)
(2.55284 -0.914832 0)
(2.55637 -0.922499 0)
(2.56775 -0.924426 0)
(2.58383 -0.931955 0)
(3 -6.81389e-11 0)
(3 -1.94023e-09 0)
(3 1.29092e-08 0)
(3 5.20624e-08 0)
(3 6.76279e-07 0)
(3 7.58836e-07 0)
(3 3.66731e-06 0)
(3 3.22359e-06 0)
(3.00003 7.22807e-05 0)
(2.99917 -0.00103074 0)
(2.98281 -0.0232104 0)
(2.88083 -0.16294 0)
(2.69837 -0.426429 0)
(2.58853 -0.635207 0)
(2.48103 -0.832123 0)
(2.49997 -0.835854 0)
(2.51743 -0.853593 0)
(2.529 -0.886562 0)
(2.5373 -0.888827 0)
(2.54955 -0.890611 0)
(2.56407 -0.895034 0)
(2.57431 -0.902157 0)
(2.58368 -0.905298 0)
(2.59455 -0.911434 0)
(3 6.37385e-08 0)
(3 -1.0471e-07 0)
(3 5.76754e-08 0)
(3 4.33588e-07 0)
(3.00001 8.27854e-06 0)
(2.99999 -2.14933e-05 0)
(3.00003 9.12516e-05 0)
(2.99933 -0.00108468 0)
(2.9884 -0.0199261 0)
(2.89539 -0.16413 0)
(2.71277 -0.469713 0)
(2.51147 -0.730998 0)
(2.39166 -0.889153 0)
(2.39358 -0.937031 0)
(2.4101 -0.942319 0)
(2.43589 -0.933677 0)
(2.47472 -0.922771 0)
(2.50098 -0.915871 0)
(2.51767 -0.908415 0)
(2.53687 -0.90495 0)
(2.56044 -0.899747 0)
(2.57666 -0.887989 0)
(2.58703 -0.88143 0)
(2.59931 -0.888004 0)
(3 1.37446e-06 0)
(2.99999 -7.14044e-06 0)
(2.99997 -7.40704e-05 0)
(2.99996 -2.59241e-05 0)
(2.99855 -0.0019736 0)
(2.99159 -0.0121659 0)
(2.96521 -0.0542049 0)
(2.90013 -0.170053 0)
(2.77186 -0.416004 0)
(2.5656 -0.715192 0)
(2.46075 -0.859859 0)
(2.35641 -0.918427 0)
(2.35812 -0.918823 0)
(2.38313 -0.910287 0)
(2.41707 -0.901019 0)
(2.44453 -0.899082 0)
(2.46889 -0.899956 0)
(2.4924 -0.894099 0)
(2.50638 -0.896214 0)
(2.51996 -0.897251 0)
(2.53736 -0.895477 0)
(2.55096 -0.887042 0)
(2.56276 -0.888688 0)
(2.57481 -0.895503 0)
(2.99897 -0.000980667 0)
(2.98945 -0.0120239 0)
(2.95997 -0.051299 0)
(2.90393 -0.130672 0)
(2.80138 -0.275019 0)
(2.68365 -0.460788 0)
(2.52634 -0.688658 0)
(2.39236 -0.896613 0)
(2.2186 -1.07437 0)
(2.15756 -1.09465 0)
(2.1641 -1.03889 0)
(2.21543 -0.994088 0)
(2.28174 -0.957601 0)
(2.35262 -0.925839 0)
(2.40251 -0.896326 0)
(2.43199 -0.876142 0)
(2.45882 -0.867525 0)
(2.47295 -0.867521 0)
(2.48503 -0.86865 0)
(2.49503 -0.873824 0)
(2.50887 -0.875723 0)
(2.51745 -0.881416 0)
(2.5266 -0.890654 0)
(2.54189 -0.904381 0)
(2.93427 -0.00761531 0)
(2.84497 -0.072481 0)
(2.7531 -0.154818 0)
(2.67529 -0.226719 0)
(2.57027 -0.356213 0)
(2.50194 -0.443967 0)
(2.42248 -0.5408 0)
(2.35102 -0.631559 0)
(2.30869 -0.720963 0)
(2.25469 -0.799583 0)
(2.2532 -0.855427 0)
(2.29931 -0.888007 0)
(2.34568 -0.909362 0)
(2.38845 -0.893324 0)
(2.40656 -0.900811 0)
(2.42555 -0.893908 0)
(2.44488 -0.894033 0)
(2.45152 -0.890625 0)
(2.45931 -0.888464 0)
(2.4675 -0.889107 0)
(2.47645 -0.88991 0)
(2.48771 -0.893597 0)
(2.50518 -0.896094 0)
(2.52784 -0.906278 0)