/*--------------------------------*- C++ -*----------------------------------*\
  =========                 |
  \\      /  F ield         | OpenFOAM: The Open Source CFD Toolbox
   \\    /   O peration     | Website:  https://openfoam.org
    \\  /    A nd           | Version:  7
     \\/     M anipulation  |
\*---------------------------------------------------------------------------*/
FoamFile
{
    version     2.0;
    format      ascii;
    class       volScalarField;
    location    "3.3";
    object      p;
}
// * * * * * * * * * * * * * * * * * * * * * * * * * * * * * * * * * * * * * //

dimensions      [1 -1 -2 0 0 0 0];

internalField   nonuniform List<scalar> 
4608
(
1
1
1
1
1
1
1
1
1
1
1
1
1
1
1
1
1
1
1
1
1
1
1
1
1
1
1
1
1
1
1
1
1
1
1
1
1
1
1
1
1
1
1
1
1
1
1
1
1
1
1
1
1
1
1
1
1
1
1
1
1
1
1
1
1
1
1
1
1
1
1
1
1
1
1
1
1
1
1
1
1
1
1
1
1
1
1
1
1
1
1
1
1
1
1
1
1
1
1
1
1
1
1
1
1
1
1
1
1
1
1
1
1
1
1
1
1
1
1
1
1
1
1
1
1
1
1
1
1
1
1
1
1
1
1
1
1
1
1
1
1
1
1
1
1
1
1
1
1
1
1
1
1
1
1
1
1
1
1
1
1
1
1
1
1
1
1
1
1
1
1
1
1
1
1
1
1
1
1
1
1
1
1
1
1
1
1
1
1
1
1
1
1
1
1
1
1
1
1
1
1
1
1
1
1
1
1
1
1
1
1
1
1
1
1
1
1
1
1
1
1
1
1
1
1
1
1
1
1
1
1
1
1
1
1
1
1
1
1
1
1
1
1
1
1
1
1
1
1
1
1
1
1
1
1
1
1
1
1
1
1
1
1
1
1
1
1
1
1
1
1
1
1
1
1
1
1
1
1
1
1
1
1
1
1
1
1
1
1
1
1
1
1
1
1
1
1
1
1
1
1
1
1
1
1
1
1
1
1
1
1
1
1
1
1
1
1
1
1
1
1
1
1
1
1
1
1
1
1
1
1
1
1
1
1
1
1
1
1
1
1
1
1
1
1
1
1
1
1
1
1
1
1
1
1
1
1
1
1
1
1
1
1
1
1
1
1
1
1
1
1
1
1
1
1
1
1
1
1
1
1
1
1
1
1
1
1
1
1
1
1
1
1
1
1
1
1
1
1
1
1
1
1
1
1
1
1
1
1
1
1
1
1
1
1
1
1
1
1
1
1
1
1
1
1
1
1
1
1
1
1
1
1
1
1
1
1
1
1
1
1
1
1
1
1
1
1
1
1
1
1
1
1
1
1
1
1
1
1
1
1
1
1
1
1
1
1
1
1
1
1
1
1
1
1
1
1
1
1
1
1
1
1
1
1
1
1
1
1
1
1
1
1
1
1
1
1
1
1
1
1
1
1
1
1
1
1
1
1
1
1
1
1
1
1
1
1
1
1
1
1
1
1
1
1
1
1
1
1
1
1
1
1
1
1
1
1
1
1
1
1
1
1
1
1
1
1
1
1
1
1
1
1
1
1
1
1
1
1
1
1
1
1
1
1
1
1
1
1
1
1
1
1
1
1
1
1
1
1
1
1
1
1
1
1
1
1
1
1
1
1
1
1
1
1
1
1
1
1
1
1
1
1
1
1
1
1
1
1
1
1
1
1
1
1
1
1
1
1
1
1
1
1
1
1
1
1
1
1
1
1
1
1
1
1
1
1
1
1
1
1
1
1
1
1
1
1
1
1
1
1
1
1
1
1
1
1
1
1
1
1
1
1
1
1
1
1
1
1
1
1
1
1
1
1
1
1
1
1
1
1
1
1
1
1
1
1
1
1
1
1
1
1
1
1
1
1
1
1
1
1
1
1
1
1
1
1
1
1
1
1
1
1
1
1
1
1
1
1
1
1
1
1
1
1
1
1
1
1
1
1
1
1
1
1
1
1
1
1
1
1
1
1
1
1
1
1
1
1
1
1
1
1
1
1
1
1
1
1
1
1
1
1
1
1
1
1
1
1.29082
1.76298
2.34224
2.96066
3.64991
4.28074
4.82198
5.33246
5.36499
5.14665
4.71498
4.22293
3.7901
3.66922
3.57688
3.58318
3.61152
3.64307
3.67731
3.71125
3.74908
3.76433
3.76508
3.76551
1.00323
1.01758
1.08282
1.22118
1.46732
1.86187
2.36285
3.0121
3.55056
3.8209
4.03741
4.0737
3.95122
3.84879
3.7824
3.73085
3.70401
3.67732
3.67673
3.69608
3.72619
3.75112
3.75793
3.76194
1
0.999951
1.00013
1.00035
1.00342
1.02483
1.10682
1.36648
1.98233
3.00338
3.83736
4.32355
4.36859
4.26677
4.09437
3.87764
3.75306
3.67884
3.65917
3.67371
3.69589
3.72261
3.7475
3.76243
1
0.999998
0.999997
0.999998
0.999986
1.00004
0.999915
1.00181
1.03467
1.29136
2.0332
3.12911
4.06349
4.07762
4.02069
3.98987
3.91299
3.79507
3.71784
3.69745
3.69686
3.70803
3.73175
3.76926
1
1
1
1
0.999999
0.999999
0.999989
0.99999
0.999904
1.0011
1.04612
1.33534
2.26796
3.24358
3.96754
4.11761
4.08478
3.98248
3.87689
3.78721
3.72333
3.70805
3.71676
3.7454
1
1
1
1
1
1
1
0.999999
0.999992
0.999992
0.999914
1.0026
1.07747
1.52616
2.53336
3.42517
3.85985
3.93207
3.88189
3.80059
3.76087
3.72831
3.7012
3.70831
1
1
1
1
1
1
1
1
1
0.999999
0.999993
0.999981
1.00003
1.01066
1.14896
1.80147
2.94179
3.70345
3.81135
3.81063
3.80001
3.77076
3.7197
3.70185
1
1
1
1
1
1
1
1
1
1
1
0.999997
0.999997
0.999969
1.00081
1.04116
1.34702
2.2675
3.28478
3.80755
3.86657
3.83845
3.7781
3.73105
1
1
1
1
1
1
1
1
1
1
1
1
1
0.999995
0.999993
1.00002
1.00644
1.1498
1.74933
2.8024
3.4943
3.81511
3.81888
3.76725
1
1
1
1
1
1
1
1
1
1
1
1
1
1
0.999999
0.999999
0.999982
1.00187
1.03963
1.42605
2.32665
3.44289
3.65289
3.7038
1
1
1
1
1
1
1
1
1
1
1
1
1
1
1
1
0.999997
0.999989
1.00011
1.0183
1.19493
2.00237
3.01173
3.6842
1
1
1
1
1
1
1
1
1
1
1
1
1
1
1
1
1
0.999998
0.999998
1.00004
1.00425
1.11478
1.70546
2.92482
1
1
1
1
1
1
1
1
1
1
1
1
1
1
1
1
1
1
0.999999
0.999999
1
1.00227
1.06768
1.50827
1
1
1
1
1
1
1
1
1
1
1
1
1
1
1
1
1
1
1
1
1
0.999998
1.00127
1.02647
1
1
1
1
1
1
1
1
1
1
1
1
1
1
1
1
1
1
1
1
1
0.999999
1.00001
1.00001
1
1
1
1
1
1
1
1
1
1
1
1
1
1
1
1
1
1
1
1
1
1
0.999999
0.999991
1
1
1
1
1
1
1
1
1
1
1
1
1
1
1
1
1
1
1
1
1
1
0.999999
0.999994
1
1
1
1
1
1
1
1
1
1
1
1
1
1
1
1
1
1
1
1
1
1
0.999997
1.00004
1
1
1
1
1
1
1
1
1
1
1
1
1
1
1
1
1
1
1
1
1
0.999999
1.00113
1.03008
1
1
1
1
1
1
1
1
1
1
1
1
1
1
1
1
1
1
1
0.999999
0.999999
1.00199
1.07141
1.49531
1
1
1
1
1
1
1
1
1
1
1
1
1
1
1
1
1
0.999998
0.999998
1.00003
1.00459
1.10991
1.74418
2.78696
1
1
1
1
1
1
1
1
1
1
1
1
1
1
1
1
0.999997
0.99999
1.00012
1.01779
1.19338
2.02101
3.02021
3.62342
1
1
1
1
1
1
1
1
1
1
1
1
1
1
0.999999
0.999999
0.999982
1.00185
1.04
1.4218
2.3205
3.46733
3.63992
3.68314
1
1
1
1
1
1
1
1
1
1
1
1
1
0.999995
0.999993
1.00002
1.00646
1.14969
1.75131
2.79234
3.50698
3.81838
3.81379
3.75396
1
1
1
1
1
1
1
1
1
1
1
0.999997
0.999997
0.999969
1.00081
1.04104
1.34674
2.27055
3.28196
3.80492
3.86866
3.84104
3.77449
3.72764
1
1
1
1
1
1
1
1
1
0.999999
0.999993
0.999981
1.00003
1.01065
1.14905
1.80071
2.94127
3.70721
3.80924
3.80975
3.79974
3.77128
3.71966
3.70238
1
1
1
1
1
1
1
0.999999
0.999992
0.999992
0.999914
1.0026
1.07743
1.52632
2.53336
3.42455
3.86026
3.93263
3.8811
3.79906
3.76137
3.72989
3.70139
3.70852
1
1
1
1
0.999999
0.999999
0.999989
0.99999
0.999904
1.0011
1.04614
1.33532
2.26791
3.24405
3.96713
4.11759
4.08471
3.98288
3.87681
3.78732
3.7238
3.70827
3.71674
3.74516
1
0.999998
0.999997
0.999998
0.999986
1.00004
0.999915
1.00181
1.03467
1.29133
2.03335
3.12862
4.06393
4.07798
4.02059
3.98946
3.91282
3.79583
3.71762
3.6976
3.69703
3.70803
3.73157
3.7692
1
0.999951
1.00013
1.00035
1.00342
1.02483
1.10681
1.36648
1.98231
3.00347
3.83727
4.32352
4.36865
4.26677
4.09427
3.87729
3.75326
3.67933
3.6589
3.67357
3.69598
3.72274
3.74744
3.76244
1.00323
1.01758
1.0828
1.22117
1.46734
1.86184
2.36284
3.01212
3.55053
3.82098
4.03728
4.07375
3.95133
3.84875
3.78226
3.73087
3.70415
3.67737
3.6766
3.69592
3.72615
3.75114
3.75792
3.76194
1.29082
1.76296
2.34226
2.96072
3.64981
4.28071
4.82209
5.33246
5.36497
5.14666
4.71491
4.22295
3.79005
3.66925
3.57686
3.58323
3.61163
3.64313
3.67714
3.71103
3.74898
3.76432
3.76504
3.76548
2.65395
1.7214
1.12497
0.772955
0.722589
0.733265
0.709424
0.701028
0.744849
0.816185
0.874392
0.936622
1.02379
1.04902
1.04266
1.01836
1.01861
1.03744
1.06577
1.0858
1.0842
1.07357
1.05454
1.11968
1.52336
2.69683
4.53853
6.80087
8.88847
9.38728
8.68544
7.57078
6.81591
6.46808
6.28028
6.06553
5.87227
5.70121
5.53054
5.34128
5.11815
4.87339
4.62903
4.41325
4.24004
4.09666
3.977
3.88153
3.80078
3.71198
3.60809
3.48751
3.35232
3.20117
3.05146
2.93442
2.84878
2.78045
2.74027
2.70587
2.66526
2.61616
2.54989
2.45086
2.31915
2.20398
2.12801
2.07529
2.0452
2.0296
2.02773
2.07941
2.2815
2.74739
3.46572
4.15107
4.65664
5.116
5.36451
5.23902
5.01166
4.84788
4.77606
4.69065
4.60558
4.53024
4.42407
4.24953
4.0799
4.00696
3.96364
3.93241
3.9256
3.91097
3.87696
3.78139
3.35564
2.75255
2.23811
1.73042
1.41635
1.31476
1.18172
1.01959
0.969847
0.950848
0.915022
0.908375
0.931369
0.957422
0.95973
0.958018
0.968646
0.994487
1.02127
1.04401
1.04263
1.04532
1.12189
1.66348
2.59581
3.05042
3.58827
4.30056
5.57315
6.78485
7.56342
7.43551
7.05885
6.66686
6.34127
6.09784
5.91333
5.75389
5.5839
5.3906
5.16166
4.91591
4.67622
4.47374
4.31673
4.18418
4.0562
3.94332
3.85319
3.76314
3.66094
3.54254
3.40345
3.25066
3.10785
3.00564
2.92681
2.85563
2.7972
2.7513
2.70461
2.65261
2.58567
2.48758
2.36448
2.25335
2.18208
2.1261
2.09038
2.09958
2.17328
2.40567
2.78276
3.16266
3.38159
3.67466
4.06947
4.32963
4.61981
4.76509
4.86161
4.88488
4.83965
4.7457
4.63309
4.54051
4.44048
4.28879
4.12084
4.02797
3.9826
3.95671
3.94225
3.92581
3.8915
3.79148
3.65701
3.32058
2.86588
2.41741
1.92531
1.63152
1.46223
1.25292
1.07635
1.03272
0.97702
0.919513
0.926171
0.948437
0.945655
0.938081
0.938923
0.954621
0.980442
1.00649
1.02948
1.14695
1.78239
2.7542
3.28533
3.31486
3.30049
3.3091
3.53034
4.54476
6.19547
7.1935
7.23687
6.95445
6.39527
5.9985
5.77255
5.59935
5.41157
5.23152
5.03934
4.84638
4.66751
4.49544
4.32008
4.14531
3.98851
3.84488
3.72714
3.63665
3.54816
3.44894
3.33106
3.20685
3.0962
2.99337
2.90187
2.81907
2.74077
2.67078
2.61107
2.55263
2.48845
2.4134
2.32487
2.23936
2.18565
2.16058
2.16901
2.27081
2.5947
2.99677
3.33403
3.39947
3.35906
3.3431
3.41647
3.61347
3.95263
4.41173
4.66222
4.83184
4.8338
4.78811
4.67479
4.52527
4.40815
4.30145
4.1873
4.09292
4.00764
3.91612
3.85574
3.83058
3.80577
3.72349
3.74695
3.61515
3.30125
2.94215
2.48942
2.03563
1.83488
1.65815
1.37852
1.26101
1.20347
1.07454
1.00422
1.01201
1.00038
0.96879
0.945885
0.939521
0.944116
0.960178
1.11756
1.75198
2.90527
3.2452
3.26728
3.24433
3.1743
3.06218
2.98484
3.08486
3.72996
5.25035
6.5198
6.58089
6.43394
6.09712
5.78937
5.53137
5.29857
5.14008
5.02092
4.87576
4.71891
4.54739
4.34159
4.15326
3.99331
3.84409
3.70734
3.59155
3.49355
3.40322
3.31681
3.22846
3.12483
3.01242
2.91811
2.83152
2.74573
2.65741
2.5835
2.5083
2.42507
2.36359
2.30669
2.26449
2.24456
2.28925
2.49122
2.86413
3.26534
3.51039
3.5518
3.51796
3.41472
3.30026
3.26069
3.27918
3.39753
3.72578
4.08658
4.44761
4.60427
4.60258
4.57133
4.5028
4.40181
4.3175
4.23961
4.15272
4.05874
3.95353
3.85598
3.78977
3.74993
3.68678
3.76194
3.7299
3.58122
3.30718
2.97421
2.53767
2.17395
1.9873
1.77764
1.54934
1.39801
1.24753
1.10528
1.07207
1.0595
1.01854
0.960056
0.948133
0.968859
1.17838
1.87683
2.87208
3.3089
3.26595
3.15958
3.04401
2.96206
2.90203
2.85543
2.76789
2.7747
3.09542
4.17138
5.50971
6.17465
6.11499
5.88924
5.54247
5.26225
5.05712
4.90061
4.73978
4.57796
4.43988
4.33585
4.20774
4.04611
3.87553
3.71529
3.57694
3.44918
3.33008
3.21581
3.12833
3.08462
3.04462
2.97489
2.88644
2.79209
2.69292
2.5802
2.4631
2.3736
2.32676
2.3105
2.34058
2.49084
2.80744
3.21753
3.53338
3.67913
3.67715
3.6137
3.49985
3.38785
3.30855
3.25171
3.24034
3.23432
3.28642
3.44294
3.71744
4.10944
4.33806
4.4354
4.4679
4.41086
4.32691
4.25449
4.19097
4.12167
4.0277
3.86563
3.74406
3.7037
3.64594
3.73292
3.73275
3.70535
3.55755
3.29345
2.97657
2.6325
2.29531
2.05901
1.87534
1.71472
1.54623
1.29822
1.20819
1.20866
1.1816
1.10605
1.12347
1.39452
2.19378
3.07823
3.40639
3.34476
3.1923
3.04264
2.92384
2.84563
2.79405
2.7355
2.63995
2.53273
2.47042
2.58667
3.25698
4.50943
5.53232
5.66722
5.53994
5.29344
5.0661
4.86926
4.678
4.50322
4.36014
4.23795
4.12463
4.02618
3.90025
3.73154
3.55512
3.40114
3.28477
3.1897
3.11661
3.05752
2.98948
2.92269
2.84951
2.7687
2.66349
2.52302
2.40886
2.36259
2.3605
2.42198
2.68394
3.14239
3.60631
3.85384
3.86894
3.80233
3.67407
3.56482
3.47475
3.39549
3.34838
3.31145
3.27426
3.23177
3.19401
3.13528
3.15502
3.32757
3.67215
3.98154
4.25428
4.34956
4.36655
4.34188
4.29318
4.19157
4.03474
3.85706
3.72304
3.68157
3.62638
3.70883
3.71675
3.70955
3.67937
3.53486
3.26491
2.97218
2.70552
2.40619
2.08081
1.95385
1.84998
1.67457
1.42987
1.32617
1.29328
1.35307
1.73759
2.69418
3.53286
3.69808
3.57939
3.35335
3.16913
3.027
2.90763
2.8239
2.75067
2.65636
2.55022
2.43551
2.36298
2.29855
2.31722
2.6354
3.5617
4.78827
5.22741
5.17424
5.06073
4.83466
4.62886
4.45225
4.29964
4.17549
4.06916
3.96526
3.85152
3.7212
3.56386
3.41201
3.28263
3.15709
3.05367
2.99241
2.95253
2.91046
2.85615
2.77059
2.65498
2.52271
2.42423
2.42966
2.57674
2.96676
3.50122
3.92794
4.064
4.05393
3.97466
3.79201
3.63004
3.52995
3.46496
3.42573
3.3951
3.34872
3.29548
3.24031
3.17057
3.05959
2.95439
2.9628
3.08306
3.37734
3.80298
4.17517
4.33151
4.33409
4.28776
4.17234
4.01513
3.85771
3.73023
3.68362
3.62287
3.72029
3.72149
3.71741
3.69838
3.64294
3.50282
3.24932
2.98016
2.749
2.4867
2.16057
2.00642
1.91179
1.75882
1.58694
1.68896
2.28385
3.36973
4.14483
4.13199
3.96103
3.70195
3.46002
3.27259
3.10485
2.96417
2.84865
2.74422
2.62066
2.50734
2.39763
2.32217
2.24878
2.18128
2.13788
2.24559
2.81958
3.82603
4.56881
4.7779
4.7456
4.61854
4.46097
4.28752
4.14113
4.01198
3.89769
3.78485
3.66527
3.53751
3.40008
3.25114
3.11474
3.02355
2.96191
2.90375
2.83897
2.77156
2.7023
2.65048
2.54352
2.56678
2.7882
3.29369
3.80327
4.18763
4.28336
4.2641
4.17538
3.98328
3.77505
3.61277
3.51639
3.47765
3.45416
3.42236
3.37768
3.32757
3.26549
3.17871
3.0449
2.91382
2.8926
2.8951
2.97184
3.22518
3.65023
4.0391
4.16695
4.1556
4.09157
3.97668
3.85685
3.75521
3.70489
3.63336
3.73914
3.73973
3.7448
3.73345
3.70662
3.63417
3.49188
3.25219
2.99397
2.77317
2.51877
2.26541
2.07419
2.00474
2.23447
3.14361
4.33131
4.78402
4.67657
4.39282
4.09587
3.84291
3.63464
3.45167
3.27182
3.104
2.95265
2.79934
2.63807
2.49848
2.3889
2.3058
2.22624
2.1391
2.08081
2.01555
2.02947
2.27271
2.96472
3.86405
4.4212
4.52314
4.47048
4.28686
4.10832
3.96053
3.83615
3.72485
3.6188
3.50705
3.37208
3.21616
3.08523
2.98938
2.92214
2.85721
2.80167
2.74979
2.71681
2.69423
2.79267
3.16737
3.68486
4.08087
4.27251
4.35326
4.31743
4.23283
4.11428
3.95379
3.77636
3.64163
3.55475
3.50375
3.46763
3.42393
3.37543
3.32383
3.26284
3.17037
3.03493
2.90959
2.86639
2.85393
2.86089
2.90734
3.10012
3.42243
3.73913
3.9321
3.96755
3.90293
3.85772
3.78924
3.74328
3.66503
3.69978
3.70553
3.72361
3.72621
3.71647
3.68635
3.60529
3.45504
3.24722
2.99201
2.7776
2.50865
2.53054
3.02963
4.23961
5.39475
5.58014
5.36854
4.99177
4.63252
4.32031
4.05654
3.82413
3.61109
3.41316
3.23286
3.07462
2.91313
2.7468
2.58079
2.4329
2.30674
2.19937
2.10496
2.04039
1.977
1.94044
1.90248
1.96526
2.35621
3.1794
3.95625
4.20755
4.18042
4.07278
3.9364
3.80075
3.68278
3.56945
3.45189
3.32492
3.18018
3.05762
2.96085
2.89442
2.83333
2.80727
2.79079
2.87142
3.13213
3.64165
4.15575
4.42508
4.51462
4.49189
4.38946
4.26824
4.15853
4.05758
3.94698
3.82377
3.70702
3.60257
3.52391
3.47399
3.42636
3.37728
3.32491
3.26086
3.16709
3.03851
2.92456
2.87112
2.84809
2.83014
2.83548
2.85294
2.94595
3.12373
3.38775
3.63166
3.71422
3.76013
3.8002
3.7816
3.71226
3.78695
3.75323
3.71965
3.72238
3.72457
3.71049
3.6659
3.57703
3.4054
3.21813
3.02136
3.21102
4.23151
5.76555
6.47354
6.35307
5.97092
5.55829
5.18403
4.84399
4.53169
4.24943
3.99584
3.76281
3.54475
3.34379
3.16453
2.99366
2.83358
2.67715
2.52532
2.37935
2.24469
2.12724
2.0336
1.96621
1.90351
1.84411
1.79397
1.7948
1.97304
2.57508
3.40244
3.8796
3.96854
3.92946
3.78771
3.64259
3.50413
3.37109
3.26038
3.1432
3.03044
2.94031
2.88435
2.85739
2.88601
3.09182
3.63133
4.16336
4.56752
4.63945
4.62893
4.57732
4.46428
4.35774
4.242
4.12287
4.02158
3.94656
3.86798
3.76703
3.65297
3.55266
3.48657
3.43343
3.3807
3.32607
3.26246
3.17338
3.05103
2.9395
2.88464
2.8547
2.82856
2.80689
2.80018
2.79032
2.8084
2.88341
3.09029
3.38993
3.57621
3.69122
3.77846
3.75028
3.48695
3.55921
3.65392
3.73826
3.77519
3.75765
3.70607
3.6409
3.52282
3.54927
4.2186
5.75387
7.31025
7.71128
7.45676
6.85655
6.26947
5.78558
5.38742
5.03735
4.71255
4.40733
4.12839
3.88041
3.65709
3.45555
3.27283
3.09547
2.91575
2.7331
2.55848
2.41083
2.2855
2.17424
2.0739
1.99177
1.91909
1.84073
1.75796
1.7091
1.66365
1.72948
2.09653
2.83115
3.44647
3.70703
3.70301
3.604
3.46169
3.32946
3.2024
3.08037
2.98921
2.94406
2.92875
3.0207
3.41418
4.14272
4.68325
4.97787
5.00239
4.91859
4.75639
4.58608
4.43833
4.32121
4.21636
4.11679
4.02455
3.94272
3.8671
3.78158
3.68179
3.58202
3.50388
3.4452
3.38944
3.33001
3.26397
3.18103
3.07021
2.96731
2.9085
2.86619
2.83147
2.79973
2.77395
2.74474
2.72272
2.69256
2.72252
2.89106
3.20338
3.48453
3.67362
3.68244
2.63941
3.31086
3.69354
3.75132
3.74374
3.70329
3.69418
3.71423
3.98246
5.37989
7.59666
8.41462
8.39036
8.13531
7.70397
7.20015
6.65454
6.11536
5.62723
5.21284
4.86074
4.54296
4.24039
3.95974
3.71851
3.5149
3.32823
3.14707
2.97336
2.80976
2.6382
2.45754
2.29805
2.20002
2.13493
2.04912
1.94619
1.85285
1.77925
1.70711
1.64294
1.56662
1.57007
1.75292
2.26689
2.94773
3.38905
3.47117
3.42154
3.29981
3.13785
3.04123
2.99709
3.0435
3.28976
3.88671
4.63856
5.10131
5.09731
5.07079
5.02203
4.92529
4.7735
4.60324
4.44425
4.29797
4.18245
4.09299
4.01976
3.94812
3.87542
3.78798
3.69059
3.60075
3.51902
3.45104
3.39589
3.34231
3.2769
3.1908
3.08678
2.99078
2.92543
2.87842
2.84234
2.80912
2.77254
2.73021
2.6756
2.62959
2.59191
2.60973
2.74679
3.01471
3.33201
3.54079
1.43315
2.30915
3.27467
3.65927
3.58015
3.65362
3.91286
4.72493
6.57861
8.87175
9.72769
9.59168
8.96284
8.26637
7.81287
7.39577
6.91483
6.38586
5.85928
5.39416
5.00446
4.67026
4.36184
4.06371
3.78469
3.54524
3.35386
3.1964
3.04671
2.88268
2.69623
2.51454
2.37893
2.27485
2.14937
2.01224
1.92001
1.87706
1.82501
1.74261
1.6487
1.56215
1.50619
1.44767
1.50686
1.82121
2.45338
3.05788
3.25565
3.19448
3.0865
3.1125
3.33055
3.79666
4.48594
5.17308
5.55485
5.51933
5.33099
5.07849
4.91824
4.83582
4.72996
4.60671
4.47331
4.32909
4.20249
4.10126
4.01385
3.93159
3.85545
3.77003
3.68239
3.61262
3.54758
3.47782
3.40103
3.32118
3.24529
3.17464
3.10115
3.02847
2.96542
2.9052
2.84348
2.80645
2.77272
2.72391
2.66203
2.60225
2.56816
2.54493
2.53948
2.60129
2.77995
3.15606
1.03175
1.279
2.00225
3.01677
3.32297
4.4653
5.92877
7.77145
9.57166
9.93661
9.82447
9.59105
9.19834
8.61557
8.0466
7.51176
6.98625
6.49965
6.03063
5.55941
5.13595
4.7871
4.48275
4.17869
3.87562
3.62291
3.40716
3.2114
3.00603
2.81726
2.67293
2.57375
2.47426
2.33672
2.17008
2.03151
1.94499
1.86815
1.77239
1.6836
1.62248
1.57321
1.50223
1.42589
1.39149
1.40297
1.57384
2.07779
2.70251
2.98973
3.25845
3.86015
4.60524
5.09573
5.4481
5.61406
5.60634
5.50238
5.33085
5.14924
4.94776
4.81272
4.69323
4.5899
4.49036
4.37423
4.24764
4.1467
4.0401
3.93684
3.85192
3.77044
3.69428
3.62949
3.56524
3.50526
3.44107
3.33772
3.22378
3.14745
3.09951
3.05684
3.0121
2.96114
2.89266
2.81328
2.7449
2.68882
2.64077
2.60725
2.57898
2.54643
2.50123
2.45611
2.47947
2.7133
1.00063
1.01323
1.17197
1.91465
3.43625
6.2285
8.39549
9.71727
10.9197
10.5989
9.86308
9.52477
9.28374
8.85635
8.29389
7.6904
7.08705
6.53559
6.06483
5.60472
5.18123
4.7999
4.45276
4.21905
4.03801
3.80362
3.53219
3.26951
3.04795
2.86367
2.72327
2.58073
2.42676
2.3246
2.25441
2.14379
2.00204
1.86658
1.76254
1.69527
1.64328
1.5855
1.51212
1.45438
1.38925
1.3384
1.34515
1.46356
1.86821
2.82652
3.86303
4.96514
5.7101
6.01324
6.00251
5.88533
5.64179
5.40166
5.28095
5.17525
4.99473
4.79436
4.64971
4.58876
4.53896
4.45382
4.32529
4.1479
3.98605
3.87825
3.80306
3.7553
3.72229
3.68681
3.63172
3.54487
3.41953
3.29455
3.20314
3.14738
3.1056
3.06671
3.02228
2.95729
2.87124
2.79046
2.72895
2.68793
2.65409
2.62309
2.58622
2.54507
2.49235
2.43675
2.38965
2.47158
1.00033
1.01556
1.17727
1.90521
3.9657
5.73566
8.25765
9.90778
10.8682
10.6813
10.1319
9.68565
9.45189
8.94072
8.24237
7.55457
6.95429
6.41727
5.97591
5.66024
5.32743
4.9492
4.59667
4.27614
3.97099
3.70029
3.43459
3.19157
3.07416
2.97563
2.83042
2.65505
2.48736
2.34097
2.20482
2.0688
1.91162
1.81896
1.79395
1.76185
1.70973
1.64214
1.5481
1.43148
1.35678
1.33286
1.34253
1.43945
1.88062
2.77414
3.98183
4.95962
5.59298
6.05994
6.00947
5.77975
5.56515
5.39004
5.30903
5.21027
5.02028
4.8195
4.67909
4.57576
4.47948
4.38311
4.26298
4.10754
3.96382
3.87888
3.82537
3.78344
3.73863
3.68241
3.61247
3.52288
3.38999
3.26307
3.21714
3.18402
3.14887
3.11063
3.05774
2.97598
2.8658
2.78721
2.75247
2.72572
2.69934
2.66936
2.63393
2.59028
2.52958
2.45618
2.3945
2.45373
1.02279
1.25981
2.07922
2.98428
3.71633
4.14458
5.69125
7.79689
9.39144
10.0577
10.0058
9.82591
9.38237
8.71192
8.05221
7.44493
6.89788
6.41596
5.96318
5.51447
5.09664
4.73673
4.4309
4.16392
3.91839
3.68589
3.46013
3.24937
3.0427
2.85226
2.68901
2.53603
2.40187
2.28437
2.16508
2.0409
1.92373
1.83473
1.75342
1.6858
1.63668
1.58743
1.5242
1.44691
1.37192
1.38518
1.56362
2.05207
2.69203
2.94251
3.3523
3.84217
4.49266
5.19786
5.42141
5.52368
5.54414
5.48611
5.35144
5.17423
5.00266
4.87178
4.74785
4.62317
4.48456
4.3505
4.21687
4.07953
4.00988
3.96152
3.90657
3.84928
3.79138
3.72821
3.64453
3.52726
3.38881
3.26503
3.18779
3.14159
3.10365
3.06813
3.03609
2.99427
2.89209
2.76325
2.70508
2.67595
2.64771
2.61711
2.58921
2.55825
2.53506
2.49486
2.49289
2.6825
1.34583
2.36425
3.2639
3.55272
3.63662
3.68865
3.901
4.76024
6.60985
8.80242
9.90553
9.78304
9.05836
8.29426
7.75015
7.26846
6.77517
6.27664
5.79853
5.36352
5.00383
4.70734
4.42893
4.14168
3.85323
3.57957
3.3438
3.15179
2.96792
2.7924
2.64177
2.51962
2.41441
2.30783
2.17654
2.02048
1.90625
1.83454
1.76914
1.68545
1.62358
1.58648
1.54057
1.51124
1.57043
1.88524
2.50623
3.02022
3.19035
3.16543
3.14434
3.16624
3.34631
3.8714
4.62074
5.19675
5.52175
5.49606
5.33965
5.12214
4.95844
4.86758
4.77451
4.64338
4.46961
4.30248
4.17243
4.0612
3.99632
3.94216
3.87704
3.80347
3.72778
3.65787
3.58383
3.48854
3.37638
3.27688
3.20952
3.15528
3.10809
3.06777
3.02215
2.96084
2.87262
2.76143
2.69924
2.66934
2.6411
2.61052
2.58681
2.57638
2.58839
2.65578
2.77069
3.06939
2.47757
3.46687
3.74701
3.72756
3.70125
3.68594
3.66884
3.68891
3.97724
5.29875
7.53478
8.52309
8.41306
8.08377
7.57724
7.05446
6.54925
6.06892
5.63563
5.26466
4.94198
4.63612
4.32808
4.02323
3.73726
3.48769
3.27842
3.09246
2.92687
2.78597
2.64822
2.49883
2.34497
2.21539
2.12487
2.05356
1.97046
1.8729
1.77191
1.67606
1.61041
1.57535
1.59174
1.76805
2.28055
3.00803
3.40293
3.42812
3.3561
3.23804
3.12823
3.08397
3.0517
3.10569
3.37712
3.9394
4.62177
4.96029
5.04234
5.04236
5.01032
4.91813
4.79412
4.63133
4.46314
4.29152
4.15461
4.08383
4.02581
3.96391
3.89548
3.81867
3.72429
3.60948
3.51299
3.44405
3.38838
3.33364
3.2778
3.21643
3.1459
3.06925
2.99526
2.93289
2.874
2.80071
2.71905
2.66179
2.62912
2.6227
2.61915
2.66275
2.81895
3.04416
3.26506
3.39165
3.52114
3.64617
3.73962
3.76792
3.77047
3.74444
3.68729
3.63047
3.5233
3.54332
4.16933
5.78341
7.2728
7.65637
7.40914
6.81683
6.26559
5.80839
5.4355
5.10647
4.7945
4.49052
4.19288
3.90698
3.64342
3.40612
3.20114
3.02351
2.86215
2.70489
2.55339
2.42248
2.31451
2.21051
2.09746
1.99793
1.91364
1.82909
1.73472
1.68048
1.63907
1.70388
2.09442
2.78963
3.46634
3.70214
3.66134
3.51567
3.36157
3.27221
3.18355
3.11611
3.05149
3.00033
2.94848
3.01698
3.33336
3.98841
4.57703
4.93864
4.99072
4.91843
4.77385
4.6243
4.49192
4.32764
4.15729
4.05037
3.99272
3.93796
3.87728
3.80982
3.72156
3.5944
3.46915
3.38932
3.33132
3.28634
3.24681
3.2022
3.14131
3.05929
2.97703
2.90588
2.83991
2.77925
2.71672
2.67178
2.66005
2.67262
2.76774
3.01159
3.33618
3.54951
3.63589
3.58062
3.78509
3.76849
3.7467
3.73603
3.73165
3.70869
3.65881
3.57834
3.41258
3.21831
3.01236
3.21316
4.24374
5.72371
6.42083
6.35712
6.00279
5.5928
5.22938
4.90722
4.60417
4.30963
4.01963
3.7432
3.49541
3.27686
3.08642
2.92017
2.78454
2.66844
2.54952
2.4085
2.27062
2.15735
2.05614
1.97035
1.89008
1.82794
1.763
1.77047
1.95541
2.57533
3.37944
3.87803
3.9617
3.9251
3.80719
3.62293
3.45375
3.35896
3.27496
3.1824
3.09176
3.00046
2.92208
2.84074
2.83794
3.00096
3.50509
4.1509
4.55857
4.69708
4.705
4.66438
4.54888
4.362
4.16237
4.02516
3.96547
3.91921
3.86024
3.79525
3.7161
3.60171
3.46408
3.36611
3.32228
3.29086
3.25241
3.19453
3.11534
3.02937
2.95295
2.88691
2.82592
2.77478
2.73046
2.71924
2.75138
2.8953
3.20025
3.55729
3.76569
3.81917
3.82129
3.69589
3.691
3.71028
3.73759
3.73564
3.72293
3.68655
3.60444
3.45194
3.24427
2.98284
2.76745
2.50209
2.52868
3.03601
4.2592
5.4564
5.59927
5.38528
5.01307
4.65884
4.34176
4.05795
3.79654
3.55646
3.34821
3.17504
3.02553
2.8836
2.74488
2.61159
2.49059
2.36079
2.22637
2.12581
2.06627
1.99293
1.92801
1.8703
1.94515
2.36523
3.18105
3.98132
4.24328
4.24276
4.13559
3.93528
3.74817
3.60749
3.5043
3.42466
3.33992
3.23753
3.13286
3.02971
2.93489
2.83853
2.77864
2.73995
2.80363
3.11177
3.68196
4.20719
4.58148
4.6122
4.56344
4.38911
4.18088
4.02039
3.95276
3.90499
3.84423
3.77747
3.70505
3.61371
3.50172
3.39801
3.31501
3.26232
3.212
3.14788
3.07185
2.99896
2.93944
2.88889
2.84904
2.81619
2.80152
2.84642
3.02887
3.36855
3.7014
3.88491
3.90682
3.90136
3.87338
3.71328
3.73786
3.74398
3.74963
3.73718
3.70993
3.63512
3.49061
3.25194
2.99444
2.77023
2.51148
2.26071
2.07287
2.00541
2.24815
3.19049
4.3593
4.79627
4.69107
4.40244
4.09755
3.82777
3.59581
3.39255
3.2172
3.07137
2.93311
2.79747
2.66087
2.5484
2.46622
2.37515
2.26417
2.15425
2.07566
1.99018
1.99001
2.1971
2.95035
3.86589
4.48309
4.62283
4.57939
4.43729
4.19094
3.93241
3.74575
3.62669
3.54644
3.4726
3.3903
3.293
3.19061
3.07794
2.95561
2.84969
2.76306
2.70942
2.6633
2.66758
2.82179
3.2269
3.84369
4.20404
4.31659
4.30933
4.20466
4.03232
3.95323
3.89079
3.82288
3.75676
3.69141
3.61991
3.5358
3.43086
3.31547
3.22307
3.15881
3.09763
3.03763
2.98535
2.9449
2.91765
2.89818
2.92036
3.00419
3.22958
3.55915
3.80772
3.90834
3.99405
3.98523
3.93068
3.85809
3.70742
3.7209
3.72227
3.7172
3.69778
3.64325
3.50257
3.24833
2.98298
2.75192
2.48717
2.15788
2.00619
1.91148
1.7579
1.58684
1.69391
2.2808
3.33369
4.14407
4.13725
3.95729
3.67666
3.41728
3.2257
3.07991
2.96594
2.85775
2.75617
2.65449
2.57368
2.48633
2.38925
2.2715
2.18423
2.104
2.18882
2.6863
3.65328
4.54416
4.81746
4.83903
4.71895
4.5518
4.37978
4.17202
3.95228
3.79017
3.6832
3.60349
3.52576
3.44041
3.34353
3.23595
3.10857
2.97392
2.86894
2.78819
2.71711
2.64955
2.6001
2.57079
2.62238
2.90996
3.41031
3.85864
4.17044
4.16533
4.06787
3.95419
3.86346
3.78363
3.72836
3.68071
3.63314
3.57186
3.46765
3.31429
3.17202
3.09125
3.04509
3.01212
2.97909
2.97559
2.99976
3.0955
3.27473
3.55707
3.86949
3.97686
3.95785
3.94968
3.94937
3.9268
3.88213
3.81956
3.71028
3.70983
3.71692
3.70894
3.67906
3.53489
3.26471
2.97453
2.7083
2.40577
2.08154
1.9568
1.85016
1.67188
1.42801
1.32609
1.29223
1.35056
1.71058
2.66619
3.54151
3.66955
3.53097
3.31486
3.14764
3.02778
2.93483
2.85488
2.7659
2.66358
2.59058
2.50541
2.42325
2.2986
2.30225
2.57819
3.49543
4.53467
5.12969
5.21988
5.12116
4.93762
4.73207
4.5403
4.36057
4.16081
3.98104
3.85888
3.75606
3.66262
3.57818
3.48952
3.38085
3.26114
3.13088
2.99434
2.88812
2.81278
2.74921
2.67963
2.60157
2.53937
2.50514
2.52101
2.67205
3.00958
3.49685
3.87102
3.88823
3.88952
3.84593
3.78332
3.73274
3.68269
3.61585
3.53682
3.43275
3.27482
3.12521
3.05737
3.0286
3.01825
3.02091
3.0739
3.28226
3.62698
3.94442
4.20411
4.26011
4.18812
4.05483
3.94891
3.89847
3.86542
3.8338
3.79444
3.70807
3.73308
3.73276
3.70537
3.5579
3.29335
2.9763
2.63411
2.2964
2.06007
1.87695
1.71636
1.54385
1.29487
1.20918
1.20976
1.1812
1.10498
1.1194
1.38137
2.18338
3.08661
3.37556
3.3271
3.20383
3.08357
2.97993
2.90197
2.81599
2.71321
2.63066
2.56264
2.49378
2.61166
3.22375
4.45841
5.44063
5.56783
5.51199
5.3136
5.12443
4.94578
4.75875
4.56422
4.36347
4.16802
4.0242
3.92195
3.82388
3.72123
3.61113
3.50867
3.42167
3.30673
3.17453
3.04038
2.92975
2.83459
2.74797
2.68169
2.62758
2.57712
2.51082
2.45778
2.42296
2.46914
2.67163
3.09781
3.48355
3.6985
3.79092
3.80355
3.76095
3.69235
3.61108
3.52399
3.40959
3.24503
3.10159
3.04347
3.04063
3.05866
3.17037
3.49672
3.95123
4.30186
4.42077
4.40835
4.3264
4.20224
4.08818
3.97889
3.88956
3.84624
3.81058
3.79038
3.73802
3.76194
3.72993
3.58138
3.30797
2.97359
2.53637
2.17709
1.98842
1.77635
1.55031
1.39828
1.24504
1.10457
1.07277
1.05964
1.01762
0.95931
0.94811
0.968703
1.17447
1.90062
2.87813
3.25091
3.26212
3.23244
3.13257
3.03074
2.93228
2.83134
2.72269
2.73518
3.02739
4.13396
5.38697
6.1592
6.14541
5.92838
5.61595
5.33451
5.1216
4.94203
4.76617
4.58184
4.38964
4.21027
4.06588
3.94952
3.83934
3.73865
3.64591
3.54324
3.39792
3.24612
3.12457
3.04224
2.9655
2.8814
2.79695
2.71752
2.6438
2.59374
2.55338
2.46879
2.37877
2.31984
2.32927
2.44218
2.7447
3.15979
3.46557
3.60698
3.682
3.65414
3.58546
3.4932
3.37563
3.24343
3.11719
3.09862
3.13433
3.30953
3.69427
4.18392
4.49152
4.59977
4.58901
4.5088
4.35952
4.21845
4.1131
4.02017
3.92464
3.85259
3.81203
3.77944
3.70357
3.74708
3.61516
3.3019
2.94273
2.48676
2.03714
1.83775
1.65627
1.37736
1.26343
1.20351
1.07151
1.00529
1.01266
0.999594
0.967544
0.945213
0.939384
0.943961
0.960662
1.11161
1.82235
2.8056
3.233
3.33932
3.30677
3.21543
3.10913
2.97855
3.05191
3.62869
5.07373
6.4107
6.54314
6.45711
6.18622
5.93396
5.69785
5.44885
5.19758
4.97749
4.77927
4.58564
4.40547
4.25144
4.12904
4.03055
3.93327
3.82875
3.70001
3.53107
3.36615
3.23909
3.1407
3.04898
2.96559
2.9069
2.85163
2.7888
2.72161
2.64984
2.54783
2.43766
2.34834
2.28544
2.25372
2.25146
2.3007
2.50047
2.87489
3.23294
3.49238
3.55246
3.53663
3.46906
3.37055
3.26016
3.24968
3.35202
3.58357
3.95215
4.42283
4.57002
4.6011
4.61309
4.57085
4.49013
4.38805
4.26741
4.16614
4.07653
3.95732
3.86854
3.82966
3.79197
3.70375
3.65703
3.32047
2.86682
2.41653
1.92374
1.63372
1.46279
1.25052
1.07826
1.03388
0.975884
0.919145
0.926926
0.948313
0.944542
0.936929
0.938278
0.954336
0.980129
1.00718
1.03028
1.1584
1.7925
2.66684
3.28063
3.34239
3.32194
3.34174
3.56756
4.54338
6.04868
7.08182
7.23104
7.01309
6.51096
6.12665
5.87052
5.64371
5.42041
5.19226
4.97336
4.77349
4.60399
4.45814
4.32626
4.20212
4.06595
3.91096
3.76999
3.64254
3.49919
3.35841
3.24877
3.16073
3.0832
3.02285
2.96606
2.89211
2.79953
2.69932
2.60538
2.51416
2.42231
2.34675
2.28498
2.24495
2.22131
2.21613
2.22706
2.32292
2.5781
2.95477
3.21543
3.38081
3.3764
3.387
3.45934
3.68807
4.06652
4.4063
4.66331
4.7769
4.70303
4.61242
4.54728
4.47464
4.40796
4.33837
4.2606
4.18593
4.10776
4.00263
3.87635
3.77899
3.73345
3.66438
3.35549
2.75346
2.23799
1.72783
1.41818
1.31627
1.18028
1.01847
0.970648
0.951002
0.914539
0.908581
0.931919
0.957108
0.95965
0.957873
0.968627
0.994503
1.02107
1.04377
1.04251
1.04616
1.12343
1.59217
2.53362
3.06686
3.57443
4.29173
5.61872
6.72746
7.43115
7.38517
7.08075
6.74084
6.45325
6.18833
5.92347
5.68688
5.47054
5.25085
5.03772
4.86185
4.71261
4.57774
4.4505
4.31879
4.16469
3.98148
3.78464
3.61726
3.49578
3.40319
3.32587
3.25965
3.20065
3.14042
3.0665
2.97286
2.86214
2.73963
2.60115
2.48806
2.43204
2.38893
2.34767
2.30891
2.27625
2.24177
2.20412
2.16583
2.19394
2.35252
2.65931
3.00285
3.26855
3.61893
3.99377
4.48716
4.83706
4.91454
4.92929
4.82663
4.65733
4.54138
4.48789
4.44842
4.398
4.33926
4.30089
4.25516
4.17569
4.05903
3.91964
3.78891
3.70963
3.63911
2.65406
1.72165
1.12346
0.773382
0.724926
0.733054
0.707455
0.700206
0.745138
0.816551
0.874467
0.937435
1.02435
1.04858
1.04198
1.01801
1.01885
1.03783