/*--------------------------------*- C++ -*----------------------------------*\
  =========                 |
  \\      /  F ield         | OpenFOAM: The Open Source CFD Toolbox
   \\    /   O peration     | Website:  https://openfoam.org
    \\  /    A nd           | Version:  7
     \\/     M anipulation  |
\*---------------------------------------------------------------------------*/
FoamFile
{
    version     2.0;
    format      ascii;
    class       volScalarField;
    location    "3.3";
    object      rho;
}
// * * * * * * * * * * * * * * * * * * * * * * * * * * * * * * * * * * * * * //

dimensions      [1 -3 0 0 0 0 0];

internalField   nonuniform List<scalar> 
4608
(
1.40001
1.40001
1.40001
1.40001
1.40001
1.40001
1.40001
1.40001
1.40001
1.40001
1.40001
1.40001
1.40001
1.40001
1.40001
1.40001
1.40001
1.40001
1.40001
1.40001
1.40001
1.40001
1.40001
1.40001
1.40001
1.40001
1.40001
1.40001
1.40001
1.40001
1.40001
1.40001
1.40001
1.40001
1.40001
1.40001
1.40001
1.40001
1.40001
1.40001
1.40001
1.40001
1.40001
1.40001
1.40001
1.40001
1.40001
1.40001
1.40001
1.40001
1.40001
1.40001
1.40001
1.40001
1.40001
1.40001
1.40001
1.40001
1.40001
1.40001
1.40001
1.40001
1.40001
1.40001
1.40001
1.40001
1.40001
1.40001
1.40001
1.40001
1.40001
1.40001
1.40001
1.40001
1.40001
1.40001
1.40001
1.40001
1.40001
1.40001
1.40001
1.40001
1.40001
1.40001
1.40001
1.40001
1.40001
1.40001
1.40001
1.40001
1.40001
1.40001
1.40001
1.40001
1.40001
1.40001
1.40001
1.40001
1.40001
1.40001
1.40001
1.40001
1.40001
1.40001
1.40001
1.40001
1.40001
1.40001
1.40001
1.40001
1.40001
1.40001
1.40001
1.40001
1.40001
1.40001
1.40001
1.40001
1.40001
1.40001
1.40001
1.40001
1.40001
1.40001
1.40001
1.40001
1.40001
1.40001
1.40001
1.40001
1.40001
1.40001
1.40001
1.40001
1.40001
1.40001
1.40001
1.40001
1.40001
1.40001
1.40001
1.40001
1.40001
1.40001
1.40001
1.40001
1.40001
1.40001
1.40001
1.40001
1.40001
1.40001
1.40001
1.40001
1.40001
1.40001
1.40001
1.40001
1.40001
1.40001
1.40001
1.40001
1.40001
1.40001
1.40001
1.40001
1.40001
1.40001
1.40001
1.40001
1.40001
1.40001
1.40001
1.40001
1.40001
1.40001
1.40001
1.40001
1.40001
1.40001
1.40001
1.40001
1.40001
1.40001
1.40001
1.40001
1.40001
1.40001
1.40001
1.40001
1.40001
1.40001
1.40001
1.40001
1.40001
1.40001
1.40001
1.40001
1.40001
1.40001
1.40001
1.40001
1.40001
1.40001
1.40001
1.40001
1.40001
1.40001
1.40001
1.40001
1.40001
1.40001
1.40001
1.40001
1.40001
1.40001
1.40001
1.40001
1.40001
1.40001
1.40001
1.40001
1.40001
1.40001
1.40001
1.40001
1.40001
1.40001
1.40001
1.40001
1.40001
1.40001
1.40001
1.40001
1.40001
1.40001
1.40001
1.40001
1.40001
1.40001
1.40001
1.40001
1.40001
1.40001
1.40001
1.40001
1.40001
1.40001
1.40001
1.40001
1.40001
1.40001
1.40001
1.40001
1.40001
1.40001
1.40001
1.40001
1.40001
1.40001
1.40001
1.40001
1.40001
1.40001
1.40001
1.40001
1.40001
1.40001
1.40001
1.40001
1.40001
1.40001
1.40001
1.40001
1.40001
1.40001
1.40001
1.40001
1.40001
1.40001
1.40001
1.40001
1.40001
1.40001
1.40001
1.40001
1.40001
1.40001
1.40001
1.40001
1.40001
1.40001
1.40001
1.40001
1.40001
1.40001
1.40001
1.40001
1.40001
1.40001
1.40001
1.40001
1.40001
1.40001
1.40001
1.40001
1.40001
1.40001
1.40001
1.40001
1.40001
1.40001
1.40001
1.40001
1.40001
1.40001
1.40001
1.40001
1.40001
1.40001
1.40001
1.40001
1.40001
1.40001
1.40001
1.40001
1.40001
1.40001
1.40001
1.40001
1.40001
1.40001
1.40001
1.40001
1.40001
1.40001
1.40001
1.40001
1.40001
1.40001
1.40001
1.40001
1.40001
1.40001
1.40001
1.40001
1.40001
1.40001
1.40001
1.40001
1.40001
1.40001
1.40001
1.40001
1.40001
1.40001
1.40001
1.40001
1.40001
1.40001
1.40001
1.40001
1.40001
1.40001
1.40001
1.40001
1.40001
1.40001
1.40001
1.40001
1.40001
1.40001
1.40001
1.40001
1.40001
1.40001
1.40001
1.40001
1.40001
1.40001
1.40001
1.40001
1.40001
1.40001
1.40001
1.40001
1.40001
1.40001
1.40001
1.40001
1.40001
1.40001
1.40001
1.40001
1.40001
1.40001
1.40001
1.40001
1.40001
1.40001
1.40001
1.40001
1.40001
1.40001
1.40001
1.40001
1.40001
1.40001
1.40001
1.40001
1.40001
1.40001
1.40001
1.40001
1.40001
1.40001
1.40001
1.40001
1.40001
1.40001
1.40001
1.40001
1.40001
1.40001
1.40001
1.40001
1.40001
1.40001
1.40001
1.40001
1.40001
1.40001
1.40001
1.40001
1.40001
1.40001
1.40001
1.40001
1.40001
1.40001
1.40001
1.40001
1.40001
1.40001
1.40001
1.40001
1.40001
1.40001
1.40001
1.40001
1.40001
1.40001
1.40001
1.40001
1.40001
1.40001
1.40001
1.40001
1.40001
1.40001
1.40001
1.40001
1.40001
1.40001
1.40001
1.40001
1.40001
1.40001
1.40001
1.40001
1.40001
1.40001
1.40001
1.40001
1.40001
1.40001
1.40001
1.40001
1.40001
1.40001
1.40001
1.40001
1.40001
1.40001
1.40001
1.40001
1.40001
1.40001
1.40001
1.40001
1.40001
1.40001
1.40001
1.40001
1.40001
1.40001
1.40001
1.40001
1.40001
1.40001
1.40001
1.40001
1.40001
1.40001
1.40001
1.40001
1.40001
1.40001
1.40001
1.40001
1.40001
1.40001
1.40001
1.40001
1.40001
1.40001
1.40001
1.40001
1.40001
1.40001
1.40001
1.40001
1.40001
1.40001
1.40001
1.40001
1.40001
1.40001
1.40001
1.40001
1.40001
1.40001
1.40001
1.40001
1.40001
1.40001
1.40001
1.40001
1.40001
1.40001
1.40001
1.40001
1.40001
1.40001
1.40001
1.40001
1.40001
1.40001
1.40001
1.40001
1.40001
1.40001
1.40001
1.40001
1.40001
1.40001
1.40001
1.40001
1.40001
1.40001
1.40001
1.40001
1.40001
1.40001
1.40001
1.40001
1.40001
1.40001
1.40001
1.40001
1.40001
1.40001
1.40001
1.40001
1.40001
1.40001
1.40001
1.40001
1.40001
1.40001
1.40001
1.40001
1.40001
1.40001
1.40001
1.40001
1.40001
1.40001
1.40001
1.40001
1.40001
1.40001
1.40001
1.40001
1.40001
1.40001
1.40001
1.40001
1.40001
1.40001
1.40001
1.40001
1.40001
1.40001
1.40001
1.40001
1.40001
1.40001
1.40001
1.40001
1.40001
1.40001
1.40001
1.40001
1.40001
1.40001
1.40001
1.40001
1.40001
1.40001
1.40001
1.40001
1.40001
1.40001
1.40001
1.40001
1.40001
1.40001
1.40001
1.40001
1.40001
1.40001
1.40001
1.40001
1.40001
1.40001
1.40001
1.40001
1.40001
1.40001
1.40001
1.40001
1.40001
1.40001
1.40001
1.40001
1.40001
1.40001
1.40001
1.40001
1.40001
1.40001
1.40001
1.40001
1.40001
1.40001
1.40001
1.40001
1.40001
1.40001
1.40001
1.40001
1.40001
1.40001
1.40001
1.40001
1.40001
1.40001
1.40001
1.40001
1.40001
1.40001
1.40001
1.40001
1.40001
1.40001
1.40001
1.40001
1.40001
1.40001
1.40001
1.40001
1.40001
1.40001
1.40001
1.40001
1.40001
1.40001
1.40001
1.40001
1.40001
1.40001
1.40001
1.40001
1.40001
1.40001
1.40001
1.40001
1.40001
1.40001
1.40001
1.40001
1.40001
1.40001
1.40001
1.40001
1.40001
1.40001
1.40001
1.40001
1.40001
1.40001
1.40001
1.40001
1.40001
1.40001
1.40001
1.40001
1.40001
1.40001
1.40001
1.40001
1.40001
1.40001
1.40001
1.40001
1.40001
1.40001
1.40001
1.40001
1.40001
1.40001
1.40001
1.40001
1.40001
1.40001
1.40001
1.40001
1.40001
1.40001
1.40001
1.40001
1.40001
1.40001
1.40001
1.40001
1.40001
1.40001
1.40001
1.40001
1.40001
1.40001
1.40001
1.40001
1.40001
1.40001
1.40001
1.40001
1.40001
1.40001
1.40001
1.40001
1.40001
1.40001
1.40001
1.40001
1.40001
1.40001
1.67625
2.08776
2.54282
2.98349
3.43417
3.8168
4.12664
4.43058
4.42273
4.28584
4.03181
3.72764
3.44873
3.36857
3.30552
3.30908
3.32777
3.34819
3.37047
3.3932
3.41809
3.42602
3.42544
3.42461
1.40309
1.41628
1.47394
1.59216
1.79654
2.11364
2.50506
2.9906
3.3594
3.52545
3.65442
3.63981
3.54872
3.47392
3.42862
3.39544
3.37965
3.363
3.36259
3.37548
3.39553
3.41117
3.41497
3.41663
1.40001
1.39996
1.40013
1.40033
1.40313
1.42258
1.49495
1.71212
2.18691
2.89279
3.43026
3.73004
3.76961
3.70879
3.60271
3.46678
3.38729
3.34336
3.33428
3.34347
3.35717
3.37344
3.39023
3.39944
1.40001
1.4
1.4
1.4
1.39999
1.40004
1.39993
1.40164
1.43016
1.63313
2.17711
2.92647
3.51275
3.54645
3.52118
3.50006
3.45118
3.38283
3.34353
3.32958
3.32826
3.33468
3.35104
3.37781
1.40001
1.40001
1.4
1.4
1.4
1.4
1.39999
1.39999
1.39992
1.40098
1.43959
1.66763
2.33499
2.99009
3.4282
3.54037
3.52408
3.46812
3.40741
3.35201
3.31024
3.30462
3.31238
3.33406
1.40001
1.40001
1.40001
1.40001
1.40001
1.4
1.4
1.4
1.4
1.4
1.39994
1.40236
1.46625
1.81121
2.52352
3.10384
3.37961
3.42274
3.39008
3.33827
3.31418
3.29564
3.28475
3.29087
1.40001
1.40001
1.40001
1.40001
1.40001
1.40001
1.40001
1.40001
1.40001
1.4
1.4
1.39999
1.40005
1.40957
1.5261
2.02139
2.80335
3.27878
3.34608
3.34371
3.33729
3.31893
3.28706
3.27979
1.40001
1.40001
1.40001
1.40001
1.40001
1.40001
1.40001
1.40001
1.40001
1.40001
1.40001
1.4
1.4
1.39998
1.40079
1.43673
1.68538
2.35852
3.02537
3.35267
3.3847
3.36592
3.32621
3.29852
1.40001
1.40001
1.40001
1.40001
1.40001
1.40001
1.40001
1.40001
1.40001
1.40001
1.40001
1.40001
1.4
1.4
1.4
1.40004
1.40595
1.52922
1.99684
2.73105
3.17276
3.36306
3.36353
3.32922
1.40001
1.40001
1.40001
1.40001
1.40001
1.40001
1.40001
1.40001
1.40001
1.40001
1.40001
1.40001
1.40001
1.4
1.4
1.4
1.39999
1.4018
1.43585
1.7526
2.41838
3.15222
3.27295
3.29885
1.40001
1.40001
1.40001
1.40001
1.40001
1.40001
1.40001
1.40001
1.40001
1.40001
1.40001
1.40001
1.40001
1.40001
1.40001
1.4
1.4
1.39999
1.40012
1.41704
1.56956
2.19221
2.87694
3.314
1.40001
1.40001
1.40001
1.40001
1.40001
1.40001
1.40001
1.40001
1.40001
1.40001
1.40001
1.40001
1.40001
1.40001
1.40001
1.40001
1.4
1.4
1.4
1.40005
1.40405
1.50294
1.97195
2.84021
1.40001
1.40001
1.40001
1.40001
1.40001
1.40001
1.40001
1.40001
1.40001
1.40001
1.40001
1.40001
1.40001
1.40001
1.40001
1.40001
1.40001
1.4
1.4
1.4
1.40001
1.4022
1.46192
1.82578
1.40001
1.40001
1.40001
1.40001
1.40001
1.40001
1.40001
1.40001
1.40001
1.40001
1.40001
1.40001
1.40001
1.40001
1.40001
1.40001
1.40001
1.40001
1.40001
1.4
1.4
1.4
1.40126
1.42457
1.40001
1.40001
1.40001
1.40001
1.40001
1.40001
1.40001
1.40001
1.40001
1.40001
1.40001
1.40001
1.40001
1.40001
1.40001
1.40001
1.40001
1.40001
1.40001
1.40001
1.4
1.4
1.40001
1.40002
1.40001
1.40001
1.40001
1.40001
1.40001
1.40001
1.40001
1.40001
1.40001
1.40001
1.40001
1.40001
1.40001
1.40001
1.40001
1.40001
1.40001
1.40001
1.40001
1.40001
1.40001
1.4
1.4
1.4
1.40001
1.40001
1.40001
1.40001
1.40001
1.40001
1.40001
1.40001
1.40001
1.40001
1.40001
1.40001
1.40001
1.40001
1.40001
1.40001
1.40001
1.40001
1.40001
1.40001
1.40001
1.40001
1.4
1.4
1.40001
1.40001
1.40001
1.40001
1.40001
1.40001
1.40001
1.40001
1.40001
1.40001
1.40001
1.40001
1.40001
1.40001
1.40001
1.40001
1.40001
1.40001
1.40001
1.40001
1.4
1.4
1.4
1.40006
1.40001
1.40001
1.40001
1.40001
1.40001
1.40001
1.40001
1.40001
1.40001
1.40001
1.40001
1.40001
1.40001
1.40001
1.40001
1.40001
1.40001
1.40001
1.40001
1.4
1.4
1.4
1.40112
1.42829
1.40001
1.40001
1.40001
1.40001
1.40001
1.40001
1.40001
1.40001
1.40001
1.40001
1.40001
1.40001
1.40001
1.40001
1.40001
1.40001
1.40001
1.4
1.4
1.4
1.40001
1.40193
1.46502
1.82033
1.40001
1.40001
1.40001
1.40001
1.40001
1.40001
1.40001
1.40001
1.40001
1.40001
1.40001
1.40001
1.40001
1.40001
1.40001
1.40001
1.4
1.4
1.4
1.40004
1.40438
1.49823
2.00131
2.75303
1.40001
1.40001
1.40001
1.40001
1.40001
1.40001
1.40001
1.40001
1.40001
1.40001
1.40001
1.40001
1.40001
1.40001
1.40001
1.4
1.4
1.4
1.40013
1.41657
1.56813
2.20588
2.88495
3.27524
1.40001
1.40001
1.40001
1.40001
1.40001
1.40001
1.40001
1.40001
1.40001
1.40001
1.40001
1.40001
1.40001
1.4
1.4
1.4
1.39999
1.40178
1.43619
1.74949
2.41342
3.16749
3.26582
3.28494
1.40001
1.40001
1.40001
1.40001
1.40001
1.40001
1.40001
1.40001
1.40001
1.40001
1.40001
1.40001
1.4
1.4
1.4
1.40004
1.40597
1.52907
1.99844
2.72471
3.18037
3.36454
3.36073
3.32067
1.40001
1.40001
1.40001
1.40001
1.40001
1.40001
1.40001
1.40001
1.40001
1.40001
1.40001
1.4
1.4
1.39998
1.40079
1.43663
1.68508
2.36037
3.02419
3.35078
3.38607
3.36763
3.32396
3.2964
1.40001
1.40001
1.40001
1.40001
1.40001
1.40001
1.40001
1.40001
1.40001
1.4
1.4
1.39999
1.40005
1.40957
1.52618
2.0209
2.80287
3.28097
3.34501
3.34307
3.33716
3.31935
3.2869
3.28007
1.40001
1.40001
1.40001
1.40001
1.40001
1.4
1.4
1.4
1.4
1.4
1.39994
1.40236
1.46622
1.81131
2.52353
3.10353
3.37975
3.42315
3.38967
3.33739
3.31453
3.2967
3.28472
3.29088
1.40001
1.40001
1.4
1.4
1.4
1.4
1.39999
1.39999
1.39992
1.40098
1.43961
1.66763
2.33494
2.99035
3.42805
3.54034
3.52402
3.46833
3.40734
3.35213
3.31056
3.30481
3.31234
3.33382
1.40001
1.4
1.4
1.4
1.39999
1.40004
1.39993
1.40164
1.43016
1.63311
2.17722
2.92615
3.51306
3.5466
3.52114
3.49981
3.45106
3.38325
3.34329
3.32972
3.32841
3.33472
3.35093
3.37775
1.40001
1.39996
1.40013
1.40033
1.40313
1.42258
1.49495
1.71213
2.1869
2.89285
3.43021
3.73002
3.76965
3.70878
3.60264
3.46655
3.38743
3.34366
3.33409
3.34337
3.35723
3.37353
3.3902
3.39945
1.40309
1.41628
1.47393
1.59216
1.79656
2.11362
2.50505
2.99061
3.35938
3.52551
3.65435
3.63983
3.5488
3.4739
3.42853
3.39546
3.37975
3.36305
3.36251
3.37536
3.39548
3.41119
3.41497
3.41663
1.67625
2.08775
2.54283
2.98353
3.43411
3.81678
4.1267
4.43058
4.42272
4.28585
4.03177
3.72765
3.44869
3.36859
3.30551
3.30912
3.32785
3.34824
3.37037
3.39306
3.41801
3.42601
3.42542
3.4246
2.66001
1.94825
1.42368
1.09413
1.02123
1.00941
0.976725
0.974641
1.02118
1.0917
1.14728
1.20786
1.29262
1.32039
1.31502
1.29301
1.29335
1.31166
1.34014
1.35959
1.35813
1.34961
1.33332
1.3871
1.69458
2.50896
3.62738
4.81266
5.81326
6.01053
5.68422
5.15369
4.78382
4.61023
4.51556
4.40365
4.30068
4.2091
4.11838
4.01798
3.89799
3.76405
3.62843
3.50626
3.40644
3.32301
3.25269
3.19606
3.14807
3.09549
3.034
2.96206
2.88007
2.78638
2.69159
2.61633
2.56084
2.51656
2.49066
2.46856
2.44243
2.41057
2.36687
2.30049
2.21089
2.13152
2.07842
2.0412
2.01965
2.00818
2.00738
2.04352
2.18145
2.48599
2.92993
3.33089
3.61413
3.86371
3.99231
3.92423
3.80181
3.71396
3.67582
3.62893
3.58071
3.53755
3.47789
3.38012
3.28401
3.24209
3.21694
3.1988
3.19456
3.18534
3.16446
3.10369
3.14464
2.72626
2.3494
1.96429
1.70503
1.60379
1.48115
1.33868
1.2849
1.26128
1.21789
1.20835
1.22974
1.25547
1.25762
1.25578
1.26512
1.28898
1.31447
1.33519
1.33431
1.33541
1.39836
1.80448
2.44268
2.7483
3.08116
3.48988
4.18764
4.81353
5.17454
5.10542
4.91204
4.7121
4.5455
4.41775
4.31928
4.23493
4.1454
4.0436
3.92044
3.7858
3.65319
3.53909
3.44916
3.37269
3.29819
3.23188
3.17862
3.12533
3.06487
2.99428
2.91005
2.81586
2.72624
2.66093
2.61011
2.56425
2.52691
2.49767
2.46768
2.43399
2.39006
2.32464
2.24135
2.16521
2.11567
2.07643
2.05098
2.05722
2.10785
2.26454
2.50979
2.74662
2.87906
3.05254
3.27901
3.42688
3.59019
3.66989
3.72236
3.73474
3.70999
3.65741
3.59341
3.54096
3.48491
3.40038
3.30584
3.25298
3.22688
3.21208
3.20396
3.19365
3.17231
3.10922
3.33633
3.11747
2.807
2.48838
2.11671
1.87787
1.73847
1.56036
1.39754
1.35361
1.29861
1.24063
1.24675
1.26836
1.2658
1.25726
1.25746
1.27181
1.29597
1.32015
1.34045
1.43977
1.91948
2.56942
2.91501
2.92698
2.91683
2.92045
3.04791
3.61726
4.47566
4.96848
4.98985
4.85003
4.56621
4.36171
4.24206
4.14963
4.04976
3.95378
3.84983
3.74395
3.64441
3.54774
3.44861
3.34813
3.25663
3.1721
3.10277
3.0493
2.99634
2.93637
2.86408
2.78693
2.71771
2.65264
2.59391
2.54039
2.48964
2.44432
2.40577
2.36755
2.32491
2.27433
2.21409
2.15543
2.11831
2.10008
2.10539
2.17335
2.38517
2.64149
2.84988
2.88693
2.86221
2.85022
2.8926
3.00832
3.20615
3.46619
3.60482
3.69858
3.69981
3.67464
3.61161
3.52789
3.46202
3.40254
3.33927
3.28705
3.23948
3.18697
3.15093
3.13495
3.11914
3.0681
3.37013
3.2948
3.09543
2.85499
2.53642
2.19718
2.04247
1.90277
1.66796
1.56297
1.51342
1.39704
1.33046
1.33713
1.32613
1.29528
1.2716
1.26455
1.26894
1.28368
1.41909
1.90546
2.67326
2.88697
2.90178
2.88466
2.83576
2.76173
2.70846
2.76832
3.14116
3.96362
4.60416
4.64958
4.57723
4.40402
4.24252
4.10606
3.98107
3.89509
3.8322
3.75512
3.66886
3.5725
3.45513
3.34661
3.25419
3.16749
3.08777
3.01992
2.96172
2.90731
2.8542
2.79888
2.73348
2.66206
2.60179
2.54618
2.49069
2.43348
2.38586
2.33671
2.28121
2.23946
2.20073
2.17209
2.15776
2.18726
2.3197
2.55769
2.80281
2.95331
2.97547
2.95476
2.89114
2.82069
2.7935
2.80403
2.8751
3.06909
3.27557
3.47768
3.56424
3.56565
3.54899
3.50982
3.45228
3.40537
3.36303
3.31625
3.26474
3.20406
3.14528
3.10517
3.08111
3.04455
3.35488
3.34255
3.25777
3.08632
2.86663
2.56154
2.29604
2.15676
1.99077
1.80085
1.67456
1.54869
1.42378
1.39091
1.37833
1.33968
1.28587
1.27303
1.29089
1.46515
1.99234
2.6555
2.92211
2.89431
2.82464
2.74769
2.69235
2.65205
2.62145
2.56403
2.56765
2.75893
3.36579
4.0845
4.42983
4.39874
4.28229
4.10226
3.9532
3.84297
3.76059
3.67499
3.58552
3.50657
3.44576
3.37223
3.28015
3.18227
3.08885
3.00706
2.93132
2.8599
2.78988
2.73467
2.70574
2.67916
2.63423
2.57797
2.51836
2.45514
2.38175
2.30443
2.24498
2.21344
2.20199
2.22201
2.32034
2.52264
2.77627
2.96341
3.04646
3.0454
3.00815
2.93992
2.8709
2.82115
2.78461
2.77706
2.77388
2.8055
2.89826
3.05793
3.28196
3.41243
3.46485
3.48303
3.45181
3.40576
3.36661
3.33304
3.29537
3.24145
3.14584
3.07336
3.04933
3.01694
3.31544
3.32173
3.31099
3.22551
3.06082
2.85322
2.61606
2.37507
2.20036
2.05731
1.9288
1.79414
1.58879
1.51031
1.50993
1.48562
1.41786
1.43066
1.63969
2.20471
2.78356
2.98013
2.94013
2.84091
2.74269
2.66443
2.61334
2.58
2.54269
2.48092
2.41075
2.36852
2.44122
2.84482
3.55257
4.08593
4.16165
4.09504
3.96569
3.846
3.74108
3.6359
3.53724
3.45522
3.38613
3.32217
3.26624
3.1938
3.09492
2.98994
2.89757
2.82708
2.76856
2.72323
2.6861
2.64267
2.59928
2.55202
2.50086
2.43351
2.3418
2.26621
2.23615
2.23477
2.27476
2.44279
2.72522
3.00317
3.14827
3.15531
3.11564
3.03967
2.9752
2.92083
2.87202
2.84242
2.81926
2.79656
2.7711
2.74829
2.71195
2.72336
2.82611
3.0296
3.20714
3.35734
3.41479
3.42637
3.41346
3.38829
3.33256
3.2424
3.13761
3.05837
3.03381
3.00307
3.28683
3.29678
3.29593
3.28171
3.19477
3.02373
2.83184
2.65152
2.44164
2.20393
2.10949
2.03136
1.8936
1.69248
1.60557
1.57824
1.62434
1.90252
2.53277
3.04566
3.15157
3.07992
2.93938
2.8228
2.73121
2.65348
2.5995
2.55435
2.49411
2.42505
2.34967
2.30114
2.25765
2.26937
2.46934
3.01794
3.69874
3.93225
3.90662
3.84738
3.72368
3.60817
3.507
3.4192
3.34851
3.28868
3.23012
3.16453
3.08737
2.99314
2.90122
2.82222
2.74521
2.68148
2.64288
2.61673
2.58907
2.5539
2.49914
2.42511
2.3398
2.27569
2.27921
2.37396
2.61787
2.9369
3.1841
3.26455
3.25911
3.21373
3.10758
3.01201
2.95228
2.91265
2.88842
2.86998
2.84206
2.80996
2.77679
2.73458
2.66671
2.60046
2.60554
2.67925
2.85682
3.1042
3.31394
3.4063
3.40938
3.38491
3.32057
3.22963
3.13689
3.06164
3.03436
3.00079
3.29259
3.29461
3.2929
3.28195
3.24818
3.16063
2.9987
2.82322
2.66908
2.48741
2.25298
2.14136
2.07208
1.95414
1.81425
1.88516
2.28351
2.96122
3.41423
3.40822
3.3099
3.15642
3.0089
2.89242
2.7863
2.69646
2.6225
2.5551
2.47583
2.40253
2.32947
2.27972
2.23041
2.18363
2.15219
2.22353
2.58362
3.17717
3.5984
3.70655
3.68617
3.61066
3.51812
3.41774
3.33288
3.25848
3.19293
3.12695
3.05537
2.97772
2.89356
2.80233
2.719
2.66231
2.62267
2.58463
2.54256
2.49911
2.45402
2.42178
2.35317
2.36778
2.50725
2.81391
3.11059
3.32714
3.38751
3.37717
3.32754
3.21878
3.09802
3.00157
2.94356
2.92031
2.9063
2.8873
2.86074
2.83108
2.79423
2.7422
2.66064
2.57742
2.56482
2.56642
2.6143
2.76958
3.02055
3.24523
3.32021
3.31416
3.27726
3.20938
3.13877
3.07809
3.04851
3.00843
3.3076
3.30655
3.30807
3.2999
3.28193
3.2363
3.14692
2.99348
2.82453
2.67699
2.50176
2.32236
2.18736
2.13142
2.2826
2.85332
3.53706
3.78334
3.7238
3.56476
3.39533
3.24763
3.12361
3.01286
2.90207
2.79702
2.70105
2.60247
2.49658
2.40325
2.33042
2.27676
2.22329
2.16173
2.11964
2.07357
2.08262
2.24199
2.67946
3.21368
3.53388
3.5711
3.53738
3.42844
3.32379
3.23793
3.16524
3.09881
3.03396
2.96464
2.88118
2.78507
2.7037
2.64273
2.59903
2.55699
2.52047
2.48639
2.46513
2.45088
2.51236
2.74068
3.0447
3.26682
3.37699
3.42945
3.40959
3.36234
3.29647
3.20576
3.10245
3.02233
2.97008
2.93948
2.918
2.89211
2.86381
2.83391
2.79812
2.7425
2.65919
2.58056
2.55276
2.54592
2.55087
2.58141
2.70244
2.89732
3.08389
3.19734
3.2146
3.17452
3.14512
3.10401
3.07769
3.03277
3.29063
3.28973
3.29794
3.29937
3.29303
3.27306
3.22032
3.12278
2.98713
2.81882
2.67569
2.49064
2.50154
2.80065
3.50268
4.12952
4.23277
4.11994
3.91518
3.71611
3.53904
3.38636
3.24976
3.12301
3.0036
2.89287
2.7937
2.69003
2.58055
2.46978
2.37021
2.28387
2.20992
2.14443
2.09923
2.05294
2.02509
1.99595
2.0388
2.29833
2.82041
3.27826
3.40661
3.38737
3.32114
3.2404
3.15925
3.08666
3.01569
2.94184
2.86224
2.771
2.69284
2.63029
2.58697
2.5466
2.52817
2.51599
2.56639
2.725
3.02535
3.3208
3.46757
3.52097
3.50936
3.45449
3.38793
3.32797
3.27242
3.20957
3.13829
3.06931
3.00675
2.95927
2.92959
2.90187
2.87373
2.84359
2.80579
2.74873
2.66872
2.59713
2.56329
2.54931
2.53909
2.5446
2.55755
2.6174
2.72665
2.88654
3.03189
3.07748
3.09849
3.11982
3.10903
3.06981
3.3551
3.33044
3.30573
3.30721
3.30663
3.29556
3.26413
3.20459
3.09233
2.97045
2.83785
2.94698
3.52422
4.3441
4.71381
4.65588
4.46042
4.24397
4.04333
3.85665
3.68055
3.51746
3.36844
3.23019
3.09978
2.97778
2.86623
2.75642
2.65068
2.54559
2.44246
2.34236
2.24999
2.16793
2.10007
2.04981
2.00243
1.95721
1.92025
1.91885
2.0426
2.44395
2.95413
3.23732
3.28221
3.25722
3.16961
3.07847
2.99049
2.90543
2.83446
2.75889
2.68545
2.62676
2.58942
2.56782
2.58498
2.71042
3.02978
3.33432
3.55677
3.60376
3.59895
3.57183
3.50977
3.45064
3.38657
3.32047
3.2634
3.22041
3.17477
3.11542
3.04772
2.98785
2.94871
2.91774
2.88734
2.85558
2.81753
2.76274
2.68605
2.61552
2.58088
2.56235
2.54681
2.5349
2.53241
2.52718
2.53807
2.58422
2.71324
2.89637
3.00604
3.06961
3.11824
3.10298
3.18622
3.22476
3.28207
3.32847
3.3455
3.33308
3.29763
3.2526
3.17328
3.18587
3.55812
4.38567
5.16351
5.36755
5.24549
4.94493
4.64378
4.3913
4.18002
3.98949
3.80702
3.63024
3.46527
3.31736
3.18377
3.06218
2.94947
2.83603
2.71721
2.59356
2.47342
2.37131
2.28513
2.20794
2.13618
2.07521
2.01938
1.95845
1.89446
1.8576
1.82298
1.87059
2.1256
2.60683
2.98991
3.14295
3.13787
3.07302
2.98027
2.89337
2.81075
2.73277
2.67166
2.64163
2.62625
2.68096
2.91687
3.33849
3.64109
3.8055
3.81928
3.77324
3.68445
3.59112
3.51212
3.44902
3.39018
3.33272
3.27916
3.23149
3.18687
3.13652
3.07767
3.01867
2.97239
2.93757
2.90457
2.86912
2.82901
2.7777
2.70793
2.64249
2.60514
2.57858
2.55744
2.53826
2.52277
2.50455
2.49009
2.46914
2.48786
2.59515
2.79056
2.96048
3.07235
3.07511
2.643
3.0862
3.3364
3.343
3.33265
3.30376
3.2953
3.3059
3.46185
4.23025
5.34698
5.75733
5.74829
5.62683
5.41468
5.15917
4.87796
4.59683
4.33731
4.11152
3.91375
3.72951
3.54954
3.38021
3.2341
3.11043
2.99504
2.87935
2.76453
2.6538
2.53591
2.41062
2.29922
2.23032
2.18397
2.12101
2.04362
1.97203
1.91462
1.85835
1.80863
1.7491
1.75094
1.88206
2.2388
2.68304
2.96571
3.00461
2.96991
2.88898
2.78294
2.72228
2.68802
2.71475
2.86234
3.21246
3.6338
3.8902
3.89207
3.88166
3.85488
3.79858
3.71212
3.61785
3.53026
3.44963
3.38587
3.33457
3.29046
3.24663
3.20307
3.15176
3.09477
3.04187
2.99317
2.95211
2.91842
2.88512
2.84494
2.79176
2.72629
2.66495
2.6231
2.59353
2.57151
2.55078
2.52799
2.50127
2.46557
2.43389
2.40739
2.41866
2.50775
2.67873
2.87678
3.00141
1.76365
2.41497
3.07886
3.30027
3.24162
3.28472
3.43743
3.91041
4.92241
6.02825
6.41421
6.35338
6.06085
5.72866
5.50386
5.29073
5.04207
4.76539
4.48396
4.23003
4.01186
3.81974
3.63751
3.45705
3.28589
3.13763
3.01713
2.91558
2.8167
2.70679
2.58033
2.45508
2.36
2.28605
2.1955
2.09493
2.02614
1.99285
1.95186
1.88748
1.81432
1.74602
1.70195
1.65303
1.69668
1.92553
2.36546
2.75902
2.87629
2.83584
2.76329
2.77591
2.90389
3.18095
3.57853
3.95278
4.15413
4.1352
4.03492
3.89874
3.81115
3.76441
3.70399
3.6351
3.55975
3.4785
3.40839
3.35068
3.29731
3.24606
3.19992
3.14975
3.09842
3.05738
3.01859
2.97631
2.9286
2.87852
2.83155
2.78739
2.74069
2.69431
2.65414
2.61605
2.57703
2.55421
2.53361
2.50234
2.46105
2.41988
2.39516
2.37842
2.37459
2.41561
2.53278
2.76924
1.42936
1.63939
2.20467
2.90125
3.10032
3.77592
4.5648
5.55216
6.45297
6.56466
6.50005
6.38597
6.20463
5.9301
5.64939
5.37589
5.09978
4.83997
4.58857
4.33133
4.09466
3.89521
3.71771
3.53661
3.35103
3.19239
3.0544
2.92721
2.79142
2.66461
2.56627
2.4976
2.42815
2.33137
2.21133
2.10946
2.04485
1.98644
1.91231
1.84279
1.79451
1.75507
1.69768
1.63503
1.60699
1.61535
1.74523
2.10906
2.52685
2.71034
2.8755
3.23332
3.6531
3.92561
4.12233
4.20646
4.20073
4.14169
4.04695
3.9469
3.83582
3.7607
3.69303
3.63441
3.57885
3.51413
3.44222
3.38317
3.31972
3.25694
3.20532
3.15659
3.11191
3.07369
3.03494
2.99784
2.95782
2.89432
2.82308
2.77381
2.74243
2.71498
2.6867
2.65477
2.61167
2.56194
2.5183
2.48136
2.44862
2.42491
2.40434
2.38116
2.34965
2.32032
2.33688
2.4902
1.40062
1.41227
1.55501
2.14717
3.18035
4.75748
5.83651
6.4966
7.05204
6.88676
6.53002
6.37227
6.2607
6.05736
5.78227
5.47731
5.1621
4.86742
4.61425
4.36179
4.12407
3.90514
3.70254
3.56416
3.45344
3.30663
3.13421
2.96536
2.82003
2.69647
2.60102
2.50281
2.39549
2.32336
2.27236
2.19145
2.08661
1.98481
1.90446
1.85134
1.81004
1.76423
1.70549
1.65806
1.60402
1.56266
1.56832
1.66123
1.9584
2.60353
3.23856
3.86435
4.25857
4.41573
4.41238
4.35019
4.22067
4.09258
4.02629
3.96704
3.86672
3.75457
3.67238
3.63749
3.61054
3.56343
3.4897
3.38548
3.28979
3.22539
3.17953
3.15064
3.13142
3.11055
3.07745
3.02459
2.94775
2.87051
2.81222
2.77551
2.74774
2.72209
2.69365
2.65297
2.59931
2.54826
2.50802
2.4805
2.45734
2.43572
2.40988
2.3812
2.34509
2.30679
2.27719
2.3325
1.40033
1.41487
1.55083
2.12744
3.48271
4.50855
5.833
6.57311
6.99876
6.91705
6.6673
6.45599
6.34303
6.09423
5.75119
5.4047
5.09347
4.80771
4.56826
4.39428
4.20784
3.99166
3.78741
3.59801
3.41186
3.24223
3.07252
2.91541
2.83787
2.77131
2.67323
2.55372
2.43806
2.33549
2.23754
2.13782
2.02043
1.94893
1.92783
1.90157
1.86052
1.80798
1.73418
1.63986
1.57791
1.55873
1.56652
1.64178
1.96932
2.57737
3.31138
3.85515
4.20132
4.44255
4.41331
4.29201
4.1805
4.08839
4.04289
3.9857
3.87791
3.766
3.68809
3.63091
3.57697
3.52212
3.45199
3.3596
3.27365
3.22312
3.19132
3.16672
3.14022
3.10682
3.06517
3.01167
2.93071
2.85121
2.82097
2.79892
2.77553
2.75026
2.71622
2.66493
2.59591
2.54598
2.52336
2.50537
2.4872
2.46623
2.44162
2.4115
2.37027
2.32015
2.28024
2.32057
1.4213
1.62708
2.24925
2.87253
3.34377
3.60387
4.48298
5.54412
6.29268
6.62899
6.60535
6.5145
6.29549
5.96565
5.64071
5.33723
5.05694
4.80257
4.55631
4.30711
4.07091
3.86446
3.68659
3.52785
3.37775
3.2326
3.08873
2.9523
2.81626
2.68834
2.57759
2.47241
2.37864
2.29511
2.20843
2.11687
2.02941
1.96133
1.89767
1.84409
1.80483
1.76545
1.71494
1.65262
1.59112
1.60063
1.73474
2.08663
2.52084
2.68534
2.93432
3.21832
3.59778
3.98671
4.09968
4.15656
4.17116
4.13879
4.06212
3.96031
3.86095
3.7884
3.72199
3.65445
3.57702
3.50008
3.42114
3.33912
3.29714
3.26817
3.23632
3.20348
3.16998
3.13268
3.08275
3.01253
2.92876
2.852
2.80229
2.77143
2.74573
2.7222
2.70196
2.67625
2.61191
2.52927
2.49103
2.47142
2.45218
2.43089
2.41121
2.38959
2.37337
2.34589
2.34566
2.46917
1.69515
2.45386
3.05664
3.24106
3.28485
3.31028
3.43278
3.9225
4.90863
6.00271
6.51572
6.45612
6.10534
5.73039
5.46392
5.22651
4.97664
4.71469
4.4527
4.20798
4.00373
3.83591
3.67666
3.50789
3.33295
3.16187
3.01056
2.88474
2.76261
2.6449
2.54327
2.4596
2.38608
2.31031
2.21526
2.10042
2.01532
1.96081
1.91048
1.84549
1.79575
1.76477
1.72735
1.70359
1.74756
1.97317
2.39783
2.73018
2.83695
2.81896
2.79905
2.80911
2.9154
3.22505
3.6467
3.96172
4.1472
4.13158
4.04123
3.92014
3.82888
3.7784
3.72812
3.65727
3.56066
3.46486
3.38931
3.32398
3.28552
3.25327
3.21476
3.17124
3.126
3.08438
3.04057
2.98364
2.91588
2.85486
2.81197
2.77614
2.74447
2.71811
2.6898
2.65215
2.59648
2.52494
2.48405
2.46378
2.44467
2.4244
2.40821
2.40014
2.40751
2.45106
2.52586
2.71563
2.53927
3.17736
3.35639
3.33446
3.30784
3.29304
3.27853
3.28883
3.4559
4.19025
5.32804
5.80892
5.75502
5.59516
5.34733
5.08841
4.83075
4.57728
4.34087
4.1341
3.95324
3.78129
3.60507
3.42532
3.2506
3.09293
2.95792
2.8368
2.72874
2.63671
2.54467
2.44232
2.33415
2.24131
2.1756
2.1232
2.06159
1.98846
1.91187
1.83783
1.78538
1.75535
1.76675
1.89415
2.24856
2.71927
2.96909
2.97419
2.92774
2.85108
2.77921
2.74929
2.7231
2.75341
2.91318
3.23966
3.6318
3.82143
3.86388
3.86317
3.84479
3.79198
3.72303
3.63472
3.5427
3.44603
3.36867
3.32877
3.29533
3.25887
3.21762
3.17044
3.11266
3.04407
2.98782
2.94797
2.91502
2.88157
2.84653
2.80678
2.76103
2.71228
2.66617
2.62792
2.59163
2.54513
2.4924
2.45535
2.43372
2.43045
2.42712
2.45472
2.55427
2.69611
2.83501
2.91385
3.21361
3.27673
3.33375
3.34634
3.34472
3.32536
3.28554
3.24571
3.17301
3.18205
3.53295
4.40099
5.14269
5.34124
5.2224
4.9273
4.64591
4.4057
4.20495
4.02434
3.85083
3.67963
3.50819
3.33839
3.1768
3.02756
2.89666
2.78256
2.67884
2.57657
2.47412
2.38308
2.30671
2.23248
2.15095
2.07852
2.01614
1.95279
1.88053
1.83884
1.80449
1.85
2.12295
2.58627
3.00435
3.13739
3.10933
3.01617
2.91575
2.85706
2.80019
2.75631
2.71222
2.67642
2.63789
2.6783
2.86904
3.25456
3.58588
3.78045
3.812
3.77288
3.69453
3.61265
3.54139
3.45095
3.35513
3.29496
3.26241
3.23069
3.19416
3.15264
3.09929
3.02376
2.95032
2.90469
2.87087
2.84282
2.81749
2.78871
2.74957
2.69752
2.64609
2.60188
2.56117
2.52353
2.48449
2.45672
2.45015
2.45827
2.51917
2.67257
2.87175
3.00126
3.05459
3.01956
3.35562
3.34108
3.323
3.31562
3.31153
3.29455
3.25982
3.20533
3.09622
2.96975
2.83167
2.94782
3.53181
4.32896
4.6892
4.6574
4.4756
4.2615
4.06745
3.89155
3.72272
3.55522
3.38615
3.22042
3.06807
2.93134
2.81109
2.70536
2.61831
2.54246
2.46235
2.36475
2.26837
2.1875
2.11324
2.0504
1.9924
1.94811
1.89919
1.90315
2.02915
2.4411
2.94046
3.24497
3.27788
3.25298
3.17911
3.06426
2.95757
2.89716
2.84385
2.78425
2.72438
2.66342
2.61124
2.55845
2.55595
2.65592
2.9578
3.3271
3.55175
3.63631
3.64305
3.6212
3.55609
3.45176
3.34138
3.26451
3.23084
3.20447
3.16994
3.13123
3.0843
3.01736
2.93691
2.87985
2.85455
2.8355
2.81115
2.77451
2.72447
2.67013
2.62227
2.58138
2.54367
2.51246
2.48576
2.48041
2.50146
2.59314
2.78229
2.99587
3.11836
3.15035
3.1516
3.07351
3.28477
3.29299
3.30739
3.30568
3.29738
3.27367
3.22024
3.1212
2.98547
2.81269
2.66867
2.48591
2.50005
2.80624
3.5159
4.15134
4.24156
4.12912
3.92843
3.73281
3.55332
3.38903
3.23438
3.08915
2.96083
2.85289
2.75932
2.67016
2.58127
2.49381
2.41242
2.32198
2.22671
2.15529
2.11372
2.06159
2.01648
1.97501
2.02628
2.30453
2.81357
3.2879
3.42999
3.42599
3.36021
3.2393
3.12731
3.04028
2.97543
2.92571
2.87269
2.80738
2.73904
2.67117
2.60986
2.54871
2.51119
2.48535
2.52473
2.71292
3.04785
3.34851
3.55661
3.57708
3.54942
3.45315
3.33822
3.24872
3.2108
3.18384
3.14882
3.10951
3.06678
3.01361
2.94882
2.88843
2.83958
2.80841
2.77716
2.7366
2.68876
2.64332
2.60675
2.57621
2.55223
2.53189