/*--------------------------------*- C++ -*----------------------------------*\
  =========                 |
  \\      /  F ield         | OpenFOAM: The Open Source CFD Toolbox
   \\    /   O peration     | Website:  https://openfoam.org
    \\  /    A nd           | Version:  7
     \\/     M anipulation  |
\*---------------------------------------------------------------------------*/
FoamFile
{
    version     2.0;
    format      ascii;
    class       volScalarField;
    location    "3.3";
    object      T;
}
// * * * * * * * * * * * * * * * * * * * * * * * * * * * * * * * * * * * * * //

dimensions      [0 0 0 1 0 0 0];

internalField   nonuniform List<scalar> 
4608
(
1
1
1
1
1
1
1
1
1
1
1
1
1
1
1
1
1
1
1
1
1
1
1
1
1
1
1
1
1
1
1
1
1
1
1
1
1
1
1
1
1
1
1
1
1
1
1
1
1
1
1
1
1
1
1
1
1
1
1
1
1
1
1
1
1
1
1
1
1
1
1
1
1
1
1
1
1
1
1
1
1
1
1
1
1
1
1
1
1
1
1
1
1
1
1
1
1
1
1
1
1
1
1
1
1
1
1
1
1
1
1
1
1
1
1
1
1
1
1
1
1
1
1
1
1
1
1
1
1
1
1
1
1
1
1
1
1
1
1
1
1
1
1
1
1
1
1
1
1
1
1
1
1
1
1
1
1
1
1
1
1
1
1
1
1
1
1
1
1
1
1
1
1
1
1
1
1
1
1
1
1
1
1
1
1
1
1
1
1
1
1
1
1
1
1
1
1
1
1
1
1
1
1
1
1
1
1
1
1
1
1
1
1
1
1
1
1
1
1
1
1
1
1
1
1
1
1
1
1
1
1
1
1
1
1
1
1
1
1
1
1
1
1
1
1
1
1
1
1
1
1
1
1
1
1
1
1
1
1
1
1
1
1
1
1
1
1
1
1
1
1
1
1
1
1
1
1
1
1
1
1
1
1
1
1
1
1
1
1
1
1
1
1
1
1
1
1
1
1
1
1
1
1
1
1
1
1
1
1
1
1
1
1
1
1
1
1
1
1
1
1
1
1
1
1
1
1
1
1
1
1
1
1
1
1
1
1
1
1
1
1
1
1
1
1
1
1
1
1
1
1
1
1
1
1
1
1
1
1
1
1
1
1
1
1
1
1
1
1
1
1
1
1
1
1
1
1
1
1
1
1
1
1
1
1
1
1
1
1
1
1
1
1
1
1
1
1
1
1
1
1
1
1
1
1
1
1
1
1
1
1
1
1
1
1
1
1
1
1
1
1
1
1
1
1
1
1
1
1
1
1
1
1
1
1
1
1
1
1
1
1
1
1
1
1
1
1
1
1
1
1
1
1
1
1
1
1
1
1
1
1
1
1
1
1
1
1
1
1
1
1
1
1
1
1
1
1
1
1
1
1
1
1
1
1
1
1
1
1
1
1
1
1
1
1
1
1
1
1
1
1
1
1
1
1
1
1
1
1
1
1
1
1
1
1
1
1
1
1
1
1
1
1
1
1
1
1
1
1
1
1
1
1
1
1
1
1
1
1
1
1
1
1
1
1
1
1
1
1
1
1
1
1
1
1
1
1
1
1
1
1
1
1
1
1
1
1
1
1
1
1
1
1
1
1
1
1
1
1
1
1
1
1
1
1
1
1
1
1
1
1
1
1
1
1
1
1
1
1
1
1
1
1
1
1
1
1
1
1
1
1
1
1
1
1
1
1
1
1
1
1
1
1
1
1
1
1
1
1
1
1
1
1
1
1
1
1
1
1
1
1
1
1
1
1
1
1
1
1
1
1
1
1
1
1
1
1
1
1
1
1
1
1
1
1
1
1
1
1
1
1
1
1
1
1
1
1
1
1
1
1
1
1
1
1
1
1
1
1
1
1
1
1
1
1
1
1
1
1
1
1
1
1
1
1
1
1
1
1
1
1
1
1
1
1
1
1
1
1
1
1
1
1
1
1
1
1
1
1
1
1
1
1
1
1
1
1
1
1
1
1
1
1
1
1
1
1
1
1
1
1
1
1
1
1
1
1
1
1
1
1
1
1
1
1
1
1
1
1.07809
1.18221
1.28957
1.38929
1.48796
1.57018
1.63591
1.68499
1.69828
1.6812
1.63723
1.58602
1.53858
1.52496
1.51494
1.51597
1.51938
1.52331
1.52746
1.53123
1.53557
1.53825
1.53882
1.53937
1.00103
1.00589
1.0285
1.0738
1.14345
1.23324
1.32053
1.41007
1.47967
1.51733
1.54673
1.56689
1.55879
1.55108
1.54446
1.5383
1.53437
1.53085
1.5308
1.53298
1.53634
1.53952
1.5406
1.5415
1
0.999984
1.00004
1.00012
1.00119
1.00856
1.03653
1.11737
1.26904
1.45353
1.56615
1.62277
1.62246
1.61063
1.59106
1.56592
1.55118
1.54049
1.53642
1.53829
1.54126
1.54492
1.54754
1.54949
1
0.999999
0.999999
0.999999
0.999995
1.00001
0.99997
1.00064
1.01285
1.10702
1.30747
1.49694
1.6195
1.60969
1.59861
1.59593
1.58735
1.57062
1.55674
1.55468
1.55506
1.55675
1.55906
1.56225
1
1
1
1
1
1
0.999997
0.999997
0.999964
1.0004
1.01735
1.12104
1.35982
1.51869
1.62026
1.62827
1.62275
1.60764
1.5929
1.58177
1.57471
1.57092
1.57092
1.57273
1
1
1
1
1
1
1
1
0.999997
0.999997
0.999964
1.00091
1.02879
1.17967
1.40547
1.54495
1.59895
1.60834
1.60311
1.59389
1.5887
1.5838
1.5775
1.57759
1
1
1
1
1
1
1
1
1
1
0.999998
0.999994
0.999998
1.0038
1.05402
1.24769
1.46914
1.58133
1.59467
1.5955
1.59412
1.59059
1.58427
1.58017
1
1
1
1
1
1
1
1
1
1
1
0.999999
0.999999
0.999988
1.00025
1.01454
1.11894
1.34598
1.52005
1.58995
1.59932
1.59655
1.5902
1.58359
1
1
1
1
1
1
1
1
1
1
1
1
1
0.999998
0.999999
1
1.00218
1.05265
1.22648
1.43658
1.54189
1.58819
1.58954
1.58421
1
1
1
1
1
1
1
1
1
1
1
1
1
1
1
1
0.999993
1.00058
1.01368
1.13915
1.3469
1.5291
1.56252
1.57186
1
1
1
1
1
1
1
1
1
1
1
1
1
1
1
1
0.999999
0.999997
1.00003
1.00606
1.06584
1.27877
1.4656
1.5564
1
1
1
1
1
1
1
1
1
1
1
1
1
1
1
1
1
0.999999
0.999999
1.00001
1.00136
1.03843
1.21081
1.44171
1
1
1
1
1
1
1
1
1
1
1
1
1
1
1
1
1
1
1
1
0.999999
1.00069
1.02246
1.15654
1
1
1
1
1
1
1
1
1
1
1
1
1
1
1
1
1
1
1
1
1
0.999999
1.00037
1.00876
1
1
1
1
1
1
1
1
1
1
1
1
1
1
1
1
1
1
1
1
1
1
1
0.999995
1
1
1
1
1
1
1
1
1
1
1
1
1
1
1
1
1
1
1
1
1
1
1
0.999997
1
1
1
1
1
1
1
1
1
1
1
1
1
1
1
1
1
1
1
1
1
1
1
0.999998
1
1
1
1
1
1
1
1
1
1
1
1
1
1
1
1
1
1
1
1
1
1
0.999999
1
1
1
1
1
1
1
1
1
1
1
1
1
1
1
1
1
1
1
1
1
1
0.999999
1.00033
1.00967
1
1
1
1
1
1
1
1
1
1
1
1
1
1
1
1
1
1
1
1
0.999999
1.00061
1.02386
1.15004
1
1
1
1
1
1
1
1
1
1
1
1
1
1
1
1
1
0.999999
0.999999
1.00001
1.00146
1.03714
1.22013
1.41726
1
1
1
1
1
1
1
1
1
1
1
1
1
1
1
1
0.999999
0.999997
1.00003
1.00589
1.06543
1.28267
1.46565
1.54884
1
1
1
1
1
1
1
1
1
1
1
1
1
1
1
1
0.999993
1.00058
1.01379
1.13777
1.34611
1.53253
1.56038
1.56971
1
1
1
1
1
1
1
1
1
1
1
1
1
0.999998
0.999999
1
1.00219
1.05264
1.22688
1.43475
1.54378
1.58885
1.58874
1.58268
1
1
1
1
1
1
1
1
1
1
1
0.999999
0.999999
0.999988
1.00025
1.0145
1.1189
1.34673
1.51933
1.58975
1.59954
1.59681
1.58976
1.58316
1
1
1
1
1
1
1
1
1
1
0.999998
0.999994
0.999998
1.0038
1.05405
1.24747
1.46913
1.58188
1.5943
1.59544
1.59407
1.59061
1.58433
1.58025
1
1
1
1
1
1
1
1
0.999997
0.999997
0.999964
1.00091
1.02878
1.17973
1.40546
1.54481
1.59905
1.60837
1.60297
1.59368
1.58874
1.58397
1.5776
1.57768
1
1
1
1
1
1
0.999997
0.999997
0.999964
1.0004
1.01736
1.12103
1.35982
1.51878
1.62017
1.62828
1.62275
1.6077
1.5929
1.58176
1.57476
1.57092
1.57093
1.57274
1
0.999999
0.999999
0.999999
0.999995
1.00001
0.99997
1.00064
1.01286
1.10701
1.3075
1.49688
1.61953
1.60977
1.59859
1.59587
1.58733
1.57073
1.55676
1.55469
1.55505
1.55673
1.55904
1.56225
1
0.999984
1.00004
1.00012
1.00119
1.00856
1.03652
1.11737
1.26903
1.45354
1.56614
1.62277
1.62246
1.61063
1.59105
1.56589
1.5512
1.54055
1.53639
1.53827
1.54127
1.54493
1.54753
1.5495
1.00103
1.00589
1.02849
1.0738
1.14346
1.23323
1.32053
1.41008
1.47967
1.51734
1.54671
1.5669
1.5588
1.55107
1.54445
1.5383
1.53438
1.53085
1.53078
1.53296
1.53634
1.53953
1.5406
1.5415
1.07809
1.18221
1.28958
1.3893
1.48794
1.57017
1.63592
1.68499
1.69827
1.6812
1.63722
1.58603
1.53858
1.52496
1.51493
1.51598
1.51939
1.52331
1.52743
1.5312
1.53557
1.53825
1.53881
1.53936
1.39681
1.23699
1.10626
0.989042
0.990598
1.01701
1.01687
1.00698
1.02117
1.04668
1.06701
1.08562
1.10884
1.11227
1.11004
1.10262
1.10261
1.10731
1.11338
1.11808
1.11763
1.11366
1.10728
1.13009
1.25854
1.50483
1.75167
1.97838
2.14061
2.18654
2.13919
2.05661
1.9947
1.96419
1.94714
1.92835
1.9116
1.8963
1.88005
1.86109
1.83824
1.81261
1.78608
1.76216
1.7426
1.72595
1.71176
1.70027
1.69028
1.67882
1.66491
1.64836
1.62957
1.60842
1.58719
1.57022
1.55742
1.54681
1.54031
1.53459
1.52773
1.51941
1.50826
1.49152
1.46856
1.4476
1.43341
1.42339
1.41772
1.41494
1.4142
1.4246
1.46422
1.54722
1.65602
1.74473
1.80384
1.85377
1.8812
1.86906
1.84553
1.82745
1.81905
1.8096
1.80071
1.79287
1.78088
1.7601
1.7393
1.73029
1.72497
1.72108
1.72038
1.71893
1.71523
1.7057
1.49394
1.4135
1.33369
1.23332
1.16297
1.1477
1.11698
1.06629
1.05673
1.05543
1.05185
1.05245
1.06032
1.06765
1.06839
1.06805
1.07192
1.08014
1.08773
1.0947
1.09396
1.09589
1.1232
1.29061
1.48777
1.55391
1.63042
1.72522
1.86321
1.97336
2.04633
2.03896
2.01188
1.98078
1.9531
1.93244
1.91668
1.90215
1.88582
1.86637
1.84325
1.81793
1.79206
1.76974
1.75215
1.73685
1.72176
1.70819
1.69712
1.68572
1.67229
1.65635
1.63738
1.61618
1.59598
1.58137
1.56988
1.55909
1.54976
1.54217
1.53443
1.52575
1.51458
1.49814
1.47692
1.457
1.44395
1.4335
1.4269
1.42883
1.44346
1.48726
1.55227
1.61207
1.64437
1.68533
1.7375
1.76881
1.80151
1.81781
1.82849
1.83115
1.8263
1.81659
1.80507
1.7952
1.78389
1.76578
1.74515
1.73354
1.72788
1.72456
1.72261
1.72096
1.7174
1.70721
1.53457
1.49121
1.42937
1.36008
1.27342
1.21634
1.17755
1.12416
1.07825
1.06812
1.0533
1.03763
1.04002
1.04688
1.04592
1.04458
1.04536
1.05084
1.05915
1.06737
1.07523
1.11527
1.30002
1.50068
1.57786
1.58553
1.58415
1.58632
1.6216
1.75898
1.93797
2.02696
2.03045
2.00747
1.9608
1.92537
1.90511
1.88911
1.87078
1.85244
1.83257
1.81225
1.79303
1.77398
1.75379
1.73334
1.71463
1.69694
1.68173
1.66967
1.65784
1.64439
1.62827
1.61095
1.59498
1.57983
1.56622
1.55359
1.54122
1.52971
1.51948
1.50945
1.49849
1.48561
1.47006
1.45452
1.44451
1.44034
1.44231
1.46279
1.52299
1.58831
1.63784
1.64856
1.64303
1.64211
1.65356
1.68163
1.72596
1.78191
1.81067
1.82897
1.82911
1.82423
1.81214
1.7958
1.78261
1.76987
1.75555
1.74324
1.73198
1.72031
1.71316
1.71066
1.7082
1.69907
1.55654
1.53613
1.4931
1.44275
1.37406
1.29707
1.25771
1.22002
1.15706
1.12953
1.11328
1.07682
1.05672
1.0596
1.05611
1.04712
1.0414
1.04016
1.04163
1.04719
1.10254
1.28724
1.52151
1.57372
1.57635
1.57456
1.56714
1.55231
1.54287
1.56009
1.66243
1.85449
1.9825
1.98153
1.96791
1.93823
1.91045
1.88598
1.86333
1.84749
1.83428
1.81781
1.8007
1.78205
1.7592
1.73745
1.71798
1.69906
1.68092
1.66501
1.6514
1.63881
1.62692
1.61488
1.60044
1.58426
1.57022
1.5569
1.54336
1.52883
1.51598
1.50281
1.48829
1.47761
1.46741
1.45956
1.45632
1.46528
1.50352
1.56774
1.63104
1.66408
1.67118
1.66686
1.65354
1.63804
1.63415
1.63724
1.6544
1.69956
1.74664
1.79047
1.80852
1.80714
1.8033
1.79609
1.78507
1.775
1.76492
1.75313
1.74049
1.72748
1.71634
1.70866
1.70391
1.69533
1.56987
1.56224
1.539
1.50019
1.45254
1.38696
1.32556
1.29001
1.25012
1.20447
1.1688
1.12776
1.08682
1.07908
1.07617
1.0644
1.04527
1.0427
1.05075
1.12599
1.31884
1.51419
1.58532
1.57977
1.56601
1.55098
1.54025
1.53197
1.52496
1.51131
1.5129
1.57076
1.73509
1.88851
1.95144
1.94624
1.92536
1.89151
1.8636
1.84233
1.82441
1.80564
1.78751
1.77263
1.76165
1.74687
1.72693
1.705
1.68393
1.66533
1.64733
1.63017
1.61374
1.60154
1.59605
1.59098
1.58105
1.56753
1.55218
1.5356
1.51666
1.4964
1.48021
1.47168
1.46899
1.47471
1.50288
1.55806
1.62253
1.66928
1.69075
1.69043
1.68183
1.66665
1.65209
1.64188
1.63485
1.63356
1.6324
1.63999
1.66311
1.70195
1.75299
1.77976
1.79217
1.79588
1.78898
1.77866
1.76923
1.76037
1.75105
1.73959
1.72033
1.70553
1.70044
1.69189
1.57629
1.57324
1.56675
1.54413
1.50641
1.46053
1.4088
1.35299
1.31006
1.27617
1.24461
1.20656
1.14396
1.11995
1.12067
1.11351
1.09213
1.0994
1.19067
1.39307
1.54821
1.60026
1.59268
1.57317
1.55311
1.53631
1.52445
1.51616
1.50617
1.48975
1.47084
1.46023
1.48342
1.60284
1.77709
1.8956
1.90649
1.89399
1.86874
1.84414
1.8222
1.80126
1.78233
1.76667
1.75219
1.73817
1.72574
1.70968
1.68798
1.66465
1.64331
1.62666
1.61297
1.60224
1.59359
1.58373
1.5742
1.5632
1.54994
1.53231
1.50835
1.48813
1.47917
1.47876
1.49061
1.53821
1.61431
1.68117
1.71376
1.71664
1.70857
1.69219
1.67745
1.66551
1.65518
1.64921
1.64442
1.63915
1.63274
1.62706
1.61854
1.62191
1.64842
1.69693
1.73805
1.77403
1.78324
1.78416
1.78079
1.7739
1.76087
1.74212
1.72103
1.70427
1.69893
1.69059
1.57975
1.57835
1.57569
1.56965
1.54904
1.51167
1.46939
1.42852
1.37968
1.32179
1.29672
1.275
1.23807
1.18277
1.15638
1.14723
1.1662
1.27864
1.48923
1.62395
1.64278
1.62704
1.59718
1.57177
1.55162
1.5341
1.52086
1.50761
1.49108
1.47227
1.45115
1.43763
1.42536
1.42953
1.49415
1.65225
1.8124
1.86112
1.85428
1.84152
1.81771
1.79605
1.77735
1.7605
1.74576
1.73226
1.71863
1.70393
1.68742
1.66695
1.64649
1.6284
1.61005
1.59433
1.58516
1.57966
1.57379
1.56569
1.55207
1.5327
1.50945
1.49139
1.49242
1.51959
1.58659
1.66901
1.72706
1.74285
1.74143
1.73149
1.70835
1.68727
1.67394
1.66548
1.66044
1.65616
1.64959
1.64191
1.6337
1.62321
1.60627
1.59055
1.59197
1.61101
1.65509
1.71515
1.76384
1.78027
1.77972
1.77343
1.75912
1.74051
1.72171
1.70574
1.69956
1.69024
1.58186
1.5814
1.58049
1.57765
1.57015
1.55158
1.51701
1.47783
1.44193
1.39961
1.34258
1.31178
1.29171
1.26007
1.2246
1.2543
1.40022
1.59314
1.69958
1.69731
1.67542
1.64197
1.60991
1.58402
1.56006
1.539
1.52074
1.50363
1.4819
1.46108
1.44097
1.42608
1.41153
1.3985
1.39069
1.4139
1.52787
1.68592
1.77755
1.80466
1.80237
1.79081
1.7752
1.75629
1.73952
1.72375
1.70902
1.69457
1.67947
1.6632
1.64508
1.62423
1.60377
1.58997
1.5811
1.57286
1.56322
1.55263
1.54164
1.53221
1.51325
1.51767
1.55688
1.63871
1.71177
1.76208
1.77025
1.76768
1.75672
1.73252
1.70596
1.68508
1.67245
1.6672
1.66392
1.65945
1.65299
1.64552
1.63612
1.62286
1.6022
1.58273
1.57892
1.5793
1.59148
1.63031
1.69186
1.74248
1.75704
1.75545
1.74787
1.73472
1.7203
1.70798
1.70144
1.69083
1.58266
1.58342
1.58483
1.58395
1.58117
1.57212
1.55347
1.521
1.48399
1.4503
1.40953
1.36568
1.32757
1.31679
1.37048
1.54244
1.71438
1.7703
1.75821
1.72521
1.68886
1.65662
1.62905
1.60391
1.57838
1.55366
1.53041
1.50591
1.47935
1.45548
1.43514
1.41787
1.40186
1.38535
1.37436
1.36083
1.36427
1.41919
1.54905
1.68333
1.75153
1.77324
1.7693
1.75054
1.73045
1.71244
1.69676
1.68284
1.66988
1.65615
1.63854
1.61671
1.59757
1.58365
1.57405
1.56438
1.5562
1.54831
1.54294
1.53901
1.55621
1.61797
1.69436
1.74887
1.77126
1.77714
1.77277
1.76246
1.74733
1.72668
1.70411
1.68688
1.6756
1.66875
1.66371
1.65745
1.65012
1.64204
1.63252
1.61843
1.59782
1.57851
1.57201
1.56938
1.57015
1.57677
1.60603
1.65374
1.69747
1.72173
1.72793
1.72124
1.71721
1.70906
1.70277
1.69187
1.57408
1.57695
1.58071
1.58112
1.58002
1.57678
1.56737
1.54896
1.5219
1.48602
1.45333
1.41013
1.41624
1.51447
1.69455
1.82895
1.84566
1.8243
1.78498
1.74525
1.70906
1.67707
1.64745
1.61881
1.5909
1.56455
1.54078
1.51612
1.4902
1.46293
1.43703
1.41402
1.39332
1.37423
1.36076
1.34822
1.34148
1.33445
1.34951
1.43526
1.5782
1.68955
1.72916
1.72777
1.71685
1.70071
1.68429
1.67038
1.65709
1.64274
1.62631
1.60674
1.58965
1.57595
1.56639
1.55764
1.55456
1.55291
1.5664
1.60917
1.6852
1.75201
1.78659
1.7951
1.79197
1.77892
1.76378
1.7494
1.73591
1.72166
1.7058
1.69089
1.67743
1.66713
1.66017
1.65305
1.64532
1.63698
1.62707
1.61308
1.59399
1.57651
1.56814
1.56409
1.56048
1.56004
1.56171
1.57574
1.60389
1.6431
1.67695
1.68967
1.69896
1.70532
1.70287
1.693
1.58021
1.57773
1.5753
1.57575
1.57696
1.57627
1.57233
1.56271
1.54175
1.51674
1.49054
1.52545
1.68098
1.85811
1.92264
1.91034
1.87411
1.83357
1.79497
1.75842
1.72376
1.69134
1.66077
1.63085
1.60098
1.57208
1.54571
1.5205
1.49661
1.47236
1.4475
1.42211
1.39671
1.37373
1.35569
1.34291
1.33085
1.3191
1.30794
1.3095
1.35233
1.47512
1.61247
1.67776
1.69276
1.68894
1.67302
1.65655
1.64046
1.62439
1.61038
1.59502
1.57986
1.56712
1.55947
1.55788
1.56304
1.59701
1.67797
1.7481
1.79785
1.80236
1.80067
1.79412
1.78074
1.76804
1.75364
1.73832
1.72526
1.71568
1.7057
1.69282
1.67803
1.66465
1.65537
1.64744
1.63922
1.63067
1.62109
1.6081
1.59024
1.57342
1.56478
1.55974
1.55488
1.55022
1.54803
1.54578
1.54912
1.56209
1.59456
1.63858
1.66555
1.68351
1.69643
1.69205
1.53214
1.54521
1.55862
1.57237
1.57982
1.57834
1.5734
1.56714
1.55422
1.5597
1.65988
1.83676
1.98206
2.01131
1.99019
1.94122
1.89011
1.84452
1.8044
1.76772
1.733
1.69969
1.66791
1.63763
1.60814
1.57985
1.55349
1.52808
1.5023
1.47533
1.44815
1.42333
1.40023
1.37863
1.35919
1.34372
1.33048
1.31586
1.29913
1.28809
1.27765
1.29439
1.38086
1.52048
1.61379
1.65127
1.65215
1.64191
1.62616
1.61101
1.59509
1.57808
1.56641
1.56028
1.56126
1.57741
1.6387
1.73726
1.80071
1.83131
1.83369
1.82497
1.80732
1.78789
1.76921
1.75404
1.74118
1.72938
1.71824
1.70814
1.69884
1.68793
1.67482
1.66128
1.65034
1.64193
1.63371
1.6249
1.61525
1.60329
1.5873
1.5721
1.56303
1.55616
1.55002
1.54422
1.5394
1.53427
1.5308
1.52669
1.53206
1.55964
1.60712
1.64783
1.67399
1.67651
1.3981
1.50192
1.54986
1.57101
1.5727
1.56931
1.56947
1.57293
1.61054
1.78048
1.98904
2.04618
2.04349
2.02414
1.99192
1.95385
1.9099
1.86249
1.81637
1.77502
1.73876
1.70536
1.67249
1.64003
1.6097
1.58206
1.55575
1.53017
1.50576
1.48229
1.45648
1.42725
1.39929
1.38099
1.36856
1.35255
1.33326
1.3154
1.30102
1.28607
1.27175
1.25395
1.25538
1.30394
1.41757
1.53812
1.59985
1.6174
1.6129
1.59909
1.57855
1.56403
1.56098
1.56954
1.60906
1.69385
1.78711
1.83586
1.83354
1.82889
1.82389
1.81526
1.8003
1.78133
1.76247
1.7443
1.72938
1.71843
1.7103
1.7025
1.69388
1.68261
1.66954
1.65723
1.64597
1.63661
1.62905
1.62186
1.61258
1.60012
1.58513
1.57118
1.56137
1.55379
1.54745
1.5418
1.53544
1.52815
1.51927
1.51258
1.50732
1.5106
1.53346
1.5756
1.62155
1.6516
1.13765
1.33866
1.48904
1.55229
1.54621
1.55724
1.59364
1.69162
1.87105
2.06038
2.12322
2.11359
2.07034
2.02018
1.98735
1.95703
1.92
1.87608
1.82941
1.7853
1.74639
1.71173
1.67878
1.64568
1.61253
1.58188
1.55626
1.53485
1.51433
1.49097
1.46289
1.43391
1.41124
1.39315
1.37059
1.34475
1.32667
1.31866
1.30902
1.29255
1.2722
1.25258
1.23897
1.22607
1.24338
1.32416
1.45204
1.55166
1.58466
1.57706
1.56376
1.56976
1.6057
1.67099
1.755
1.83221
1.87207
1.86861
1.8497
1.82364
1.80669
1.79847
1.7878
1.7742
1.7593
1.74234
1.72618
1.71362
1.70424
1.69567
1.68681
1.67571
1.66387
1.65425
1.64535
1.63591
1.62585
1.6153
1.60457
1.59451
1.58414
1.57364
1.5642
1.55475
1.54476
1.53827
1.53213
1.52397
1.51433
1.50551
1.50113
1.49801
1.49722
1.50762
1.53663
1.59556
1.01056
1.09224
1.27146
1.45575
1.50055
1.65561
1.81833
1.95961
2.07662
2.11912
2.11603
2.10266
2.0755
2.034
1.99407
1.95624
1.91788
1.88008
1.83999
1.79696
1.75603
1.72056
1.6881
1.65418
1.61917
1.58881
1.56169
1.53593
1.50764
1.48021
1.45819
1.44269
1.42659
1.40322
1.37389
1.34827
1.33164
1.31664
1.29757
1.27906
1.26579
1.25494
1.23883
1.22093
1.21226
1.21594
1.26252
1.37925
1.49733
1.54432
1.58645
1.67142
1.7649
1.81731
1.85026
1.86849
1.86846
1.85995
1.84416
1.82649
1.80584
1.79164
1.77918
1.76807
1.75657
1.74266
1.72758
1.71597
1.70381
1.69226
1.68242
1.67226
1.662
1.65316
1.64463
1.63697
1.62874
1.61448
1.59872
1.58859
1.58229
1.57629
1.56957
1.56157
1.55063
1.53735
1.52598
1.51705
1.50987
1.50528
1.50169
1.49718
1.49032
1.48193
1.48543
1.52544
1.00019
1.00443
1.05515
1.2484
1.51265
1.83289
2.01383
2.09405
2.16784
2.15465
2.1146
2.09262
2.07601
2.04692
2.00812
1.96567
1.92207
1.87982
1.84013
1.79895
1.75888
1.72078
1.68368
1.65725
1.63699
1.61043
1.57778
1.5436
1.51316
1.48682
1.46581
1.4436
1.41828
1.40075
1.38894
1.36956
1.34326
1.31661
1.29568
1.28198
1.27103
1.25817
1.24127
1.22803
1.21255
1.19909
1.20079
1.23342
1.33552
1.51991
1.66996
1.79881
1.8772
1.9065
1.90454
1.89405
1.87139
1.84782
1.83627
1.82639
1.80842
1.78772
1.77258
1.76613
1.76001
1.74982
1.73523
1.71529
1.69631
1.68338
1.67456
1.66869
1.66417
1.65937
1.65216
1.64083
1.62407
1.60682
1.59462
1.58758
1.58234
1.57724
1.57081
1.5606
1.54646
1.53307
1.52333
1.51708
1.51209
1.5077
1.50245
1.49635
1.48792
1.47888
1.46914
1.48348
1.0001
1.00489
1.06277
1.25376
1.59416
1.78105
1.98196
2.11025
2.17403
2.16189
2.12751
2.10037
2.08618
2.05392
2.00643
1.95689
1.91148
1.86871
1.8314
1.80334
1.77251
1.73585
1.69915
1.66387
1.62943
1.5978
1.56498
1.53262
1.51658
1.50322
1.48233
1.45556
1.42831
1.40329
1.37954
1.35481
1.32461
1.30664
1.30278
1.29714
1.28654
1.27159
1.24978
1.2221
1.2038
1.19714
1.19982
1.22747
1.33695
1.50689
1.68346
1.8011
1.86375
1.9097
1.90634
1.88529
1.86371
1.84573
1.83846
1.83014
1.81242
1.79164
1.77619
1.76432
1.75324
1.74224
1.72891
1.71168
1.69516
1.68484
1.67816
1.67266
1.6668
1.65938
1.64998
1.63765
1.6194
1.60224
1.59662
1.59263
1.58833
1.58345
1.57603
1.56341
1.54556
1.53265
1.52712
1.52314
1.51941
1.51531
1.51028
1.5038
1.49411
1.48209
1.47016
1.48034
1.00747
1.08399
1.29417
1.45447
1.556
1.61006
1.77734
1.96888
2.08942
2.12413
2.12073
2.11165
2.08647
2.04449
1.99853
1.95288
1.90967
1.87033
1.83229
1.79245
1.75276
1.71601
1.68266
1.65243
1.62409
1.59632
1.56835
1.54088
1.51257
1.48537
1.46052
1.43603
1.41368
1.39345
1.37252
1.34976
1.3271
1.30964
1.29358
1.27983
1.26957
1.25884
1.24429
1.22573
1.20714
1.21156
1.2619
1.37682
1.49508
1.53408
1.59943
1.67139
1.74823
1.82532
1.85136
1.86048
1.86083
1.85575
1.84437
1.82914
1.814
1.80037
1.78588
1.77112
1.7552
1.74017
1.72563
1.71044
1.70264
1.69702
1.68995
1.68224
1.67444
1.66615
1.65513
1.63921
1.61992
1.60275
1.5926
1.58699
1.5825
1.57791
1.57313
1.56637
1.55018
1.52952
1.52031
1.51587
1.51164
1.50726
1.50336
1.49882
1.49538
1.48891
1.48788
1.52096
1.11151
1.34888
1.49493
1.53463
1.54993
1.56003
1.59096
1.69901
1.88522
2.05298
2.12836
2.12145
2.07716
2.02639
1.9858
1.94697
1.90596
1.86382
1.82316
1.78446
1.74971
1.71805
1.68646
1.65295
1.61855
1.58495
1.55497
1.5296
1.50405
1.47808
1.45422
1.43417
1.41663
1.39851
1.37553
1.34672
1.32424
1.30985
1.29643
1.2786
1.26578
1.25857
1.24863
1.24194
1.2581
1.33762
1.46329
1.54873
1.5744
1.57208
1.57271
1.57799
1.60693
1.68059
1.77395
1.83644
1.86403
1.86236
1.84981
1.82928
1.81302
1.80358
1.79295
1.77749
1.7574
1.73845
1.72348
1.71051
1.70289
1.69646
1.68842
1.67911
1.66952
1.66032
1.65014
1.63692
1.62111
1.60696
1.59793
1.5912
1.58549
1.58011
1.57299
1.56295
1.54889
1.53113
1.52129
1.51682
1.51249
1.50749
1.50384
1.50281
1.50519
1.51694
1.53571
1.58238
1.36599
1.52757
1.56294
1.56505
1.56651
1.56705
1.56668
1.57031
1.6112
1.77037
1.97985
2.05415
2.04662
2.0227
1.98383
1.94094
1.89805
1.85624
1.81759
1.78286
1.75016
1.7165
1.68078
1.64439
1.60961
1.57869
1.5517
1.52618
1.50165
1.47926
1.45698
1.4324
1.40649
1.38381
1.36736
1.35409
1.33812
1.31864
1.29752
1.27678
1.2628
1.25644
1.26132
1.30681
1.41993
1.54867
1.60457
1.61368
1.60484
1.59002
1.57582
1.57043
1.56895
1.57913
1.62296
1.7024
1.78163
1.81723
1.827
1.82734
1.82441
1.81578
1.80278
1.78388
1.76374
1.7435
1.72664
1.71756
1.71035
1.70289
1.69495
1.68625
1.6751
1.66004
1.64609
1.63559
1.62735
1.61964
1.61211
1.60434
1.59515
1.58426
1.57281
1.56247
1.55254
1.54059
1.52731
1.51771
1.51241
1.51074
1.51077
1.51865
1.54508
1.58074
1.61238
1.62957
1.53398
1.55785
1.57045
1.57638
1.57821
1.57644
1.57119
1.56596
1.55456
1.55895
1.65219
1.83977
1.97989
2.00683
1.98622
1.93688
1.88808
1.84574
1.80971
1.77646
1.74308
1.70853
1.67324
1.63845
1.60564
1.57506
1.54717
1.52123
1.49581
1.46973
1.44486
1.42315
1.40474
1.38623
1.36519
1.34573
1.32883
1.31132
1.29145
1.27944
1.27167
1.28943
1.38119
1.51009
1.61529
1.65201
1.64855
1.63186
1.61407
1.60344
1.59167
1.58276
1.57513
1.56944
1.56484
1.57704
1.62658
1.71568
1.78697
1.82891
1.83291
1.82509
1.809
1.79205
1.77578
1.75567
1.73473
1.72097
1.7134
1.70649
1.69942
1.69184
1.6811
1.66421
1.6462
1.63359
1.62455
1.61843
1.61334
1.60759
1.59946
1.58776
1.5751
1.56358
1.55237
1.54187
1.53087
1.52256
1.51994
1.52208
1.53815
1.5776
1.62642
1.65575
1.66643
1.66014
1.57919
1.5791
1.57851
1.57752
1.57762
1.57599
1.57136
1.56293
1.54305
1.51718
1.48934
1.52602
1.68221
1.85107
1.917
1.91094
1.87772
1.83737
1.79994
1.7654
1.73149
1.69709
1.66192
1.62727
1.59501
1.56503
1.53713
1.51117
1.48889
1.46937
1.44956
1.42591
1.4014
1.38071
1.36217
1.34535
1.32811
1.31365
1.29961
1.3024
1.34913
1.47699
1.60901
1.67313
1.69207
1.68927
1.6766
1.65525
1.63488
1.62316
1.61224
1.60021
1.5888
1.57717
1.56666
1.55447
1.55447
1.58189
1.65905
1.74665
1.79687
1.80841
1.80811
1.80331
1.79086
1.76919
1.74399
1.72621
1.71834
1.71227
1.70487
1.69689
1.68679
1.67114
1.6513
1.6364
1.6294
1.62483
1.61976
1.61194
1.60086
1.58836
1.57655
1.5657
1.55535
1.54618
1.53782
1.5348
1.53988
1.56313
1.61032
1.66237
1.69063
1.69722
1.6975
1.6835
1.57315
1.57742
1.5821
1.5821
1.58069
1.57658
1.56704
1.54836
1.52136
1.48469
1.45183
1.40911
1.41604
1.51464
1.69598
1.84013
1.84814
1.82591
1.78655
1.74732
1.71065
1.67634
1.64334
1.61179
1.58317
1.55809
1.53507
1.51192
1.48874
1.46613
1.44537
1.42341
1.39979
1.38086
1.36857
1.35337
1.33858
1.32578
1.34395
1.43688
1.58286
1.69527
1.73196
1.73377
1.72306
1.70081
1.67795
1.6612
1.64885
1.63876
1.62771
1.61452
1.6013
1.58792
1.57436
1.5592
1.54911
1.54342
1.55466
1.60583
1.69128
1.75902
1.80343
1.80513
1.79997
1.77947
1.75341
1.73255
1.72352
1.71711
1.70919
1.70074
1.69138
1.67878
1.66251
1.647
1.63441
1.62628
1.61921
1.61041
1.59948
1.58837
1.57868
1.56992
1.56281
1.55721
1.55405
1.56109
1.58977
1.64034
1.68793
1.71381
1.71662
1.71585
1.71208
1.69353
1.58239
1.58392
1.58555
1.5847
1.58182
1.57232
1.55333
1.52092
1.48397
1.44979
1.40829
1.36482
1.32728
1.31705
1.37351
1.55336
1.71974
1.76986
1.75759
1.72435
1.68801
1.65469
1.6247
1.59699
1.57179
1.5497
1.52775
1.50492
1.48157
1.46236
1.44757
1.43081
1.4108
1.39068
1.37496
1.35592
1.3557
1.40192
1.54432
1.68429
1.76596
1.78551
1.78096
1.76517
1.73789
1.70847
1.68613
1.67135
1.66064
1.65037
1.63916
1.62657
1.61363
1.59862
1.58089
1.56427
1.54977
1.54034
1.53293
1.53407
1.56154
1.62718
1.71591
1.76247
1.77404
1.77288
1.76042
1.73897
1.72782
1.71929
1.71066
1.7025
1.69424
1.68466
1.67275
1.6574
1.64017
1.62645
1.61689
1.60774
1.59872
1.59044
1.58372
1.57884
1.57505
1.57853
1.59182
1.62615
1.67268
1.70691
1.72285
1.73382
1.73244
1.72519
1.71592
1.69867
1.58192
1.58149
1.58047
1.57764
1.57026
1.55156
1.51688
1.47826
1.44242
1.3997
1.34204
1.31168
1.29165
1.25998
1.22472
1.25612
1.40068
1.58559
1.69659
1.69564
1.67432
1.63979
1.60576
1.57865
1.55679
1.53883
1.52139
1.50448
1.48635
1.47179
1.45673
1.4393
1.41764
1.40024
1.3832
1.40188
1.50321
1.65761
1.77443
1.8113
1.8156
1.80305
1.7847
1.76514
1.74158
1.71622
1.6969
1.68314
1.6719
1.66075
1.64876
1.63566
1.6215
1.60414
1.58444
1.56791
1.5545
1.54245
1.53135
1.52278
1.51794
1.52733
1.57681
1.65508
1.7169
1.75832
1.75798
1.74582
1.73017
1.71778
1.70764
1.70084
1.69489
1.68887
1.68053
1.66582
1.64372
1.6227
1.61015
1.60289
1.59774
1.59271
1.59213
1.59577
1.61044
1.63784
1.67863
1.71951
1.73292
1.73246
1.73247
1.73208
1.72889
1.7228
1.71496
1.70217
1.57986
1.57835
1.57556
1.56959
1.54905
1.51166
1.46973
1.42894
1.37964
1.32196
1.29724
1.27498
1.23752
1.18239
1.15639
1.14697
1.16547
1.271
1.48195
1.6233
1.63987
1.62213
1.59291
1.56886
1.55091
1.53682
1.52421
1.51008
1.49355
1.48038
1.4645
1.44906
1.42546
1.42644
1.48364
1.64278
1.77999
1.84729
1.85909
1.84911
1.83005
1.80779
1.78624
1.76592
1.74318
1.72209
1.7071
1.69365
1.68078
1.66886
1.65651
1.64137
1.62468
1.60636
1.58645
1.5699
1.55764
1.54718
1.5358
1.52265
1.51197
1.50563
1.50846
1.53562
1.5926
1.66737
1.72018
1.7222
1.72187
1.71612
1.70775
1.70116
1.69475
1.68631
1.67593
1.66171
1.63934
1.6168
1.60613
1.6015
1.5998
1.60044
1.60902
1.64103
1.69109
1.73367
1.76553
1.77144
1.76279
1.74698
1.73364
1.72719
1.72287
1.71874
1.71364
1.70303
1.57631
1.57322
1.56674
1.54415
1.50638
1.4605
1.40906
1.35314
1.31029
1.27655
1.24493
1.20595
1.14309
1.12025
1.12097
1.11339
1.09177
1.09799
1.18596
1.39038
1.55021
1.59712
1.59104
1.57486
1.55823
1.54333
1.53224
1.51976
1.50392
1.49008
1.47733
1.46399
1.48632
1.59593
1.77286
1.88848
1.89672
1.89058
1.86997
1.84984
1.83085
1.81067
1.78887
1.76611
1.74343
1.7261
1.71346
1.70105
1.68768
1.67286
1.65872
1.64661
1.63011
1.61083
1.59109
1.57447
1.5597
1.5458
1.53472
1.52565
1.517
1.50543
1.49598
1.49021
1.49904
1.53619
1.60765
1.66543
1.69514
1.70744
1.70876
1.70334
1.69467
1.68438
1.67338
1.65822
1.63474
1.61308
1.604
1.60341
1.60626
1.6234
1.67138
1.73368
1.77861
1.79184
1.78998
1.77989
1.7648
1.75069
1.73693
1.72558
1.72001
1.71549
1.71317
1.70709
1.56988
1.56225
1.53902
1.50028
1.45244
1.38676
1.32609
1.29018
1.24993
1.20474
1.16881
1.12701
1.08664
1.0793
1.0762
1.06412
1.045
1.04276
1.05067
1.12513
1.32389
1.51354
1.57549
1.57906
1.57562
1.56257
1.54932
1.53633
1.52225
1.5054
1.5075
1.55892
1.72626
1.87411
1.95312
1.9515
1.93034
1.89838
1.86941
1.84768
1.82852
1.80923
1.78881
1.76718
1.74597
1.72817
1.71375
1.70022
1.68774
1.6758
1.6619
1.64149
1.61965
1.60173
1.58931
1.57798
1.56529
1.55195
1.53869
1.52639
1.51821
1.51165
1.49719
1.48123
1.47057
1.47271
1.49497
1.54978
1.61597
1.66007
1.6792
1.69026
1.68709
1.67862
1.66727
1.65197
1.63355
1.6147
1.61169
1.61712
1.64318
1.69714
1.76001
1.79808
1.81034
1.80908
1.79962
1.78156
1.76467
1.75199
1.74038
1.7282
1.71887
1.71383
1.70999
1.7006
1.55658
1.53614
1.49319
1.44282
1.37363
1.29737
1.25826
1.21958
1.15685
1.13012
1.1133
1.07594
1.05701
1.05975
1.05585
1.0468
1.04126
1.04014
1.0416
1.04737
1.10095
1.30224
1.49997
1.56937
1.58732
1.58352
1.57225
1.55892
1.54256
1.5563
1.65032
1.83423
1.97113
1.97862
1.97103
1.94721
1.9244
1.90192
1.87751
1.8524
1.82919
1.80773
1.7866
1.76602
1.74803
1.73354
1.72192
1.71041
1.69762
1.68072
1.65768
1.6347
1.61672
1.6023
1.58869
1.57639
1.56775
1.5593
1.54928
1.53842
1.52668
1.50962
1.49059
1.47491
1.46351
1.45768
1.45804
1.46784
1.50513
1.56884
1.62483
1.65995
1.6706
1.66922
1.66138
1.64903
1.6341
1.63268
1.64774
1.68025
1.72862
1.78528
1.80225
1.80638
1.80795
1.80345
1.79442
1.78228
1.76786
1.7557
1.74451
1.72926
1.71778
1.71318
1.70853
1.69746
1.53458
1.49121
1.42951
1.35992
1.27315
1.21684
1.17762
1.12346
1.07882
1.06848
1.053
1.03753
1.04023
1.04679
1.0455
1.04426
1.0452
1.05078
1.05907
1.06758
1.07551
1.11907
1.3014
1.47963
1.57784
1.59037
1.58755
1.59102
1.62655
1.76003
1.92439
2.01669
2.03063
2.01317
1.97129
1.93784
1.91462
1.89367
1.87188
1.84848
1.82551
1.80396
1.78514
1.7687
1.75409
1.74035
1.7248
1.70623
1.68833
1.67117
1.65143
1.6319
1.61636
1.60369
1.5926
1.58395
1.57579
1.56481
1.55055
1.53447
1.51875
1.50307
1.48707
1.47371
1.46262
1.45538
1.45137
1.4506
1.453
1.47219
1.51993
1.58147
1.62008
1.64508
1.64565
1.64829
1.6597
1.69193
1.74072
1.7807
1.80951
1.82118
1.81345
1.80433
1.79772
1.78968
1.78228
1.77447
1.76478
1.75504
1.74497
1.73163
1.7159
1.70401
1.69858
1.68988
1.49393
1.41366
1.33365
1.23268
1.16357
1.14818
1.1165
1.06579
1.05699
1.05553
1.05185
1.05249
1.06047
1.06748
1.06831
1.06798
1.07195
1.08017
1.08766
1.09465
1.094
1.09611
1.1238
1.26827
1.47273
1.55752
1.63134
1.72553
1.86757
1.96858
2.03418
2.03454
2.01365
1.98722
1.9636
1.94109
1.91758
1.89576
1.87489
1.85269
1.83064
1.81176
1.79519
1.78056
1.76704
1.75283
1.73536
1.7133
1.6882
1.66643
1.65035
1.63759
1.62674
1.6176
1.60942
1.60094
1.59036
1.57664
1.55987
1.5405
1.51768
1.49843
1.48861
1.48088
1.47356
1.46686
1.46125
1.45516
1.4482
1.44101
1.4467
1.4773
1.53169
1.58715
1.62771
1.67811
1.72816
1.7879
1.82562
1.83277
1.83473
1.82378
1.8061
1.79415
1.78857
1.78441
1.77886
1.77239
1.76768
1.76158
1.75136
1.73672
1.71964
1.70358
1.69437
1.68519
1.39682
1.23708
1.10579
0.98916
0.991516
1.01721
1.016
1.00666
1.02119
1.04691
1.0671
1.08587
1.10884
1.1121
1.10985
1.10256
1.10272
1.10744
1.11334
1.11785
1.11748
1.11387
1.10716
1.12391
1.24392
1.51241
1.7594
1.98197
2.13885
2.18481
2.13624
2.05652
2.00028
1.97198
1.95529
1.93735
1.9152
1.89174
1.86804
1.84444
1.82236
1.80344
1.78707
1.77202
1.75838
1.74507
1.7294
1.70848