/*--------------------------------*- C++ -*----------------------------------*\
  =========                 |
  \\      /  F ield         | OpenFOAM: The Open Source CFD Toolbox
   \\    /   O peration     | Website:  https://openfoam.org
    \\  /    A nd           | Version:  7
     \\/     M anipulation  |
\*---------------------------------------------------------------------------*/
FoamFile
{
    version     2.0;
    format      ascii;
    class       volVectorField;
    location    "3.3";
    object      U;
}
// * * * * * * * * * * * * * * * * * * * * * * * * * * * * * * * * * * * * * //

dimensions      [0 1 -1 0 0 0 0];

internalField   nonuniform List<vector> 
4608
(
(3 -9.61794e-17 0)
(3 -1.64065e-16 0)
(3 -1.74521e-16 0)
(3 -3.73563e-16 0)
(3 -7.51899e-16 0)
(3 -4.62715e-16 0)
(3 -4.68989e-16 0)
(3 -4.77591e-16 0)
(3 -3.79164e-16 0)
(3 -5.20674e-16 0)
(3 -3.68527e-16 0)
(3 -7.92304e-16 0)
(3 -9.19739e-16 0)
(3 -1.25694e-15 0)
(3 -1.49308e-15 0)
(3 -1.47917e-15 0)
(3 -9.79358e-16 0)
(3 -2.73643e-16 0)
(3 1.96112e-16 0)
(3 -1.12239e-15 0)
(3 -2.41762e-15 0)
(3 -2.97324e-15 0)
(3 -3.0372e-15 0)
(3 -8.64698e-16 0)
(3 -2.93906e-16 0)
(3 -1.71425e-16 0)
(3 -2.31484e-17 0)
(3 -4.13667e-17 0)
(3 -7.55293e-16 0)
(3 -8.2486e-16 0)
(3 -9.79894e-16 0)
(3 -9.15463e-16 0)
(3 -4.7032e-16 0)
(3 -7.78497e-16 0)
(3 -4.92848e-16 0)
(3 -8.12264e-16 0)
(3 -1.19158e-15 0)
(3 -2.10369e-15 0)
(3 -3.7987e-15 0)
(3 -2.31612e-15 0)
(3 2.68908e-16 0)
(3 9.61382e-16 0)
(3 6.59511e-16 0)
(3 -9.64004e-16 0)
(3 -1.73208e-15 0)
(3 -2.59215e-15 0)
(3 -2.62565e-15 0)
(3 -1.90107e-15 0)
(3 8.09886e-17 0)
(3 3.20849e-16 0)
(3 3.31656e-16 0)
(3 5.96503e-16 0)
(3 -3.91634e-16 0)
(3 -1.02334e-15 0)
(3 -9.57652e-16 0)
(3 -6.37991e-16 0)
(3 -2.83446e-16 0)
(3 -1.3313e-16 0)
(3 -2.93164e-16 0)
(3 -3.24689e-16 0)
(3 -2.97489e-16 0)
(3 -1.23406e-15 0)
(3 -1.68885e-15 0)
(3 -1.6654e-15 0)
(3 -1.18027e-15 0)
(3 -1.47144e-15 0)
(3 -1.45037e-15 0)
(3 -1.90644e-15 0)
(3 -1.81719e-15 0)
(3 -1.32286e-15 0)
(3 -4.59319e-16 0)
(3 -8.21278e-16 0)
(3 7.32462e-17 0)
(3 3.0408e-16 0)
(3 5.05207e-16 0)
(3 -1.63634e-16 0)
(3 -3.78616e-16 0)
(3 -1.90957e-16 0)
(3 2.47702e-16 0)
(3 6.35403e-16 0)
(3 8.91556e-16 0)
(3 1.9234e-15 0)
(3 1.49878e-15 0)
(3 5.40808e-16 0)
(3 2.20447e-16 0)
(3 1.10508e-16 0)
(3 9.01383e-17 0)
(3 -2.78124e-16 0)
(3 -1.70468e-15 0)
(3 -3.41887e-15 0)
(3 -4.06716e-15 0)
(3 -2.2306e-15 0)
(3 -5.22284e-16 0)
(3 4.55146e-16 0)
(3 1.54369e-15 0)
(3 1.21231e-15 0)
(3 -9.83873e-17 0)
(3 -2.41287e-16 0)
(3 -2.59098e-16 0)
(3 2.47105e-17 0)
(3 2.40043e-16 0)
(3 6.1242e-16 0)
(3 1.13251e-15 0)
(3 2.5032e-15 0)
(3 1.98873e-15 0)
(3 1.48401e-15 0)
(3 1.78409e-15 0)
(3 2.06719e-15 0)
(3 1.82446e-15 0)
(3 2.17942e-15 0)
(3 2.58955e-15 0)
(3 2.8496e-15 0)
(3 -5.50602e-17 0)
(3 -1.49371e-15 0)
(3 -1.28611e-15 0)
(3 6.42357e-17 0)
(3 1.03352e-15 0)
(3 9.53135e-16 0)
(3 2.55469e-16 0)
(3 9.16699e-16 0)
(3 3.21788e-17 0)
(3 -3.21356e-17 0)
(3 1.14824e-16 0)
(3 6.91674e-16 0)
(3 1.10704e-15 0)
(3 9.50186e-16 0)
(3 1.13771e-15 0)
(3 1.45696e-15 0)
(3 1.69261e-15 0)
(3 1.26758e-15 0)
(3 1.08714e-15 0)
(3 1.69094e-15 0)
(3 2.23088e-15 0)
(3 3.09948e-15 0)
(3 3.40742e-15 0)
(3 3.23211e-15 0)
(3 2.39027e-15 0)
(3 5.34795e-16 0)
(3 3.2911e-16 0)
(3 8.40474e-16 0)
(3 6.4158e-17 0)
(3 -1.2125e-15 0)
(3 -1.62658e-15 0)
(3 -6.91188e-17 0)
(3 8.37309e-17 0)
(3 1.37282e-16 0)
(3 3.84424e-16 0)
(3 3.54317e-16 0)
(3 5.93237e-16 0)
(3 8.94071e-16 0)
(3 4.69456e-16 0)
(3 4.67019e-17 0)
(3 8.38778e-16 0)
(3 6.90081e-16 0)
(3 6.27516e-16 0)
(3 9.62671e-16 0)
(3 2.02985e-15 0)
(3 2.45877e-15 0)
(3 1.87411e-15 0)
(3 1.54896e-15 0)
(3 8.86453e-16 0)
(3 3.80957e-16 0)
(3 3.00983e-16 0)
(3 9.94873e-17 0)
(3 -1.35262e-16 0)
(3 -7.98297e-16 0)
(3 -1.27411e-15 0)
(3 -9.00961e-16 0)
(3 -5.32616e-17 0)
(3 -2.27164e-16 0)
(3 -5.83026e-16 0)
(3 -5.66364e-16 0)
(3 -3.97739e-16 0)
(3 8.14766e-17 0)
(3 5.76257e-17 0)
(3 -8.2124e-17 0)
(3 1.68277e-16 0)
(3 -1.02076e-16 0)
(3 7.74925e-16 0)
(3 1.29378e-15 0)
(3 1.6292e-15 0)
(3 1.47172e-15 0)
(3 5.17981e-16 0)
(3 2.96582e-16 0)
(3 1.66773e-16 0)
(3 9.84727e-16 0)
(3 1.3163e-15 0)
(3 6.9754e-16 0)
(3 5.82788e-16 0)
(3 2.15339e-16 0)
(3 -3.91396e-16 0)
(3 -8.63835e-16 0)
(3 -2.71371e-16 0)
(3 -5.89402e-16 0)
(3 -1.17275e-15 0)
(3 -1.85808e-15 0)
(3 -1.94015e-15 0)
(3 -1.22305e-15 0)
(3 -7.68203e-16 0)
(3 -6.56169e-16 0)
(3 -4.49778e-16 0)
(3 -2.57992e-16 0)
(3 5.7916e-16 0)
(3 1.08103e-15 0)
(3 1.57086e-15 0)
(3 3.18394e-16 0)
(3 -5.23425e-16 0)
(3 -1.02177e-15 0)
(3 -5.78679e-16 0)
(3 1.36282e-15 0)
(3 1.85897e-15 0)
(3 1.40716e-15 0)
(3 5.67294e-16 0)
(3 -2.05537e-16 0)
(3 -5.53294e-16 0)
(3 -4.63269e-16 0)
(3 -9.21198e-17 0)
(3 -1.27697e-16 0)
(3 -5.2709e-16 0)
(3 -1.40678e-15 0)
(3 -2.19182e-15 0)
(3 -1.95241e-15 0)
(3 -1.15583e-15 0)
(3 -2.57024e-16 0)
(3 3.66955e-16 0)
(3 9.68155e-16 0)
(3 5.08291e-16 0)
(3 -5.35534e-17 0)
(3 4.12583e-16 0)
(3 3.10624e-16 0)
(3 -4.94841e-17 0)
(3 1.82251e-16 0)
(3 1.21124e-16 0)
(3 2.17002e-16 0)
(3 3.22096e-16 0)
(3 7.52872e-16 0)
(3 6.81004e-16 0)
(3 -2.16914e-16 0)
(3 1.52932e-16 0)
(3 4.30203e-16 0)
(3 3.29288e-16 0)
(3 5.86911e-16 0)
(3 7.03106e-16 0)
(3 4.97812e-16 0)
(3 -4.87433e-17 0)
(3 -2.39246e-16 0)
(3 -1.06552e-16 0)
(3 3.84899e-16 0)
(3 7.32576e-16 0)
(3 1.08131e-15 0)
(3 7.1678e-16 0)
(3 3.05784e-16 0)
(3 -1.97359e-17 0)
(3 -2.79266e-16 0)
(3 5.57423e-16 0)
(3 2.19921e-15 0)
(3 1.42919e-15 0)
(3 2.03368e-16 0)
(3 -2.43995e-16 0)
(3 6.42763e-16 0)
(3 1.75011e-15 0)
(3 2.35563e-15 0)
(3 2.2655e-15 0)
(3 1.49864e-15 0)
(3 7.83504e-17 0)
(3 2.4785e-16 0)
(3 4.26917e-16 0)
(3 5.92405e-16 0)
(3 1.10248e-15 0)
(3 1.38561e-15 0)
(3 8.40645e-16 0)
(3 -5.57742e-16 0)
(3 -8.69954e-16 0)
(3 -7.06196e-16 0)
(3 -5.25874e-16 0)
(3 -2.83678e-16 0)
(3 -7.96219e-16 0)
(3 -1.01838e-15 0)
(3 1.32069e-17 0)
(3 1.44853e-15 0)
(3 7.1924e-16 0)
(3 3.38971e-16 0)
(3 5.29711e-16 0)
(3 1.67136e-15 0)
(3 2.15332e-15 0)
(3 2.46095e-15 0)
(3 6.65512e-16 0)
(3 2.16065e-16 0)
(3 -1.10535e-16 0)
(3 1.50368e-16 0)
(3 3.05736e-16 0)
(3 7.9479e-16 0)
(3 7.467e-16 0)
(3 -1.62309e-16 0)
(3 -9.84532e-16 0)
(3 -1.36116e-15 0)
(3 -1.33671e-15 0)
(3 -6.55619e-16 0)
(3 -4.44945e-16 0)
(3 -1.38785e-15 0)
(3 -1.46805e-15 0)
(3 -9.36034e-16 0)
(3 -3.99119e-18 0)
(3 5.6866e-16 0)
(3 6.89342e-16 0)
(3 9.1398e-16 0)
(3 1.32396e-15 0)
(3 1.56223e-15 0)
(3 1.92508e-15 0)
(3 1.29186e-15 0)
(3 -2.19178e-16 0)
(3 -6.79411e-16 0)
(3 2.91857e-17 0)
(3 8.81928e-17 0)
(3 2.90478e-16 0)
(3 7.17078e-16 0)
(3 2.08076e-16 0)
(3 -6.77846e-16 0)
(3 -1.03763e-15 0)
(3 -1.21103e-15 0)
(3 -4.03021e-16 0)
(3 5.0578e-17 0)
(3 4.53532e-16 0)
(3 -6.516e-16 0)
(3 -9.28239e-16 0)
(3 -3.62929e-16 0)
(3 3.1355e-16 0)
(3 7.73594e-16 0)
(3 2.39206e-15 0)
(3 2.38448e-15 0)
(3 1.24899e-15 0)
(3 4.89009e-16 0)
(3 1.25644e-16 0)
(3 1.89529e-16 0)
(3 5.88065e-16 0)
(3 4.812e-16 0)
(3 -8.65597e-17 0)
(3 -3.67237e-16 0)
(3 -2.06442e-16 0)
(3 -1.80039e-16 0)
(3 -2.93783e-16 0)
(3 -5.40748e-16 0)
(3 -5.28061e-16 0)
(3 -2.84847e-16 0)
(3 -2.75711e-16 0)
(3 -5.92559e-16 0)
(3 -1.08844e-15 0)
(3 -1.05998e-15 0)
(3 -8.21634e-16 0)
(3 1.82459e-16 0)
(3 -2.77841e-16 0)
(3 -1.72032e-16 0)
(3 7.07916e-16 0)
(3 7.36526e-16 0)
(3 1.93687e-16 0)
(3 -1.16739e-15 0)
(3 -1.59895e-15 0)
(3 -1.47651e-15 0)
(3 5.97253e-17 0)
(3 4.30507e-16 0)
(3 1.39802e-16 0)
(3 5.76983e-17 0)
(3 2.35927e-16 0)
(3 -5.68434e-17 0)
(3 2.70555e-16 0)
(3 2.3172e-16 0)
(3 3.07696e-16 0)
(3 2.18169e-16 0)
(3 -8.65503e-16 0)
(3 -1.509e-15 0)
(3 -1.74028e-15 0)
(3 -1.879e-15 0)
(3 -1.62007e-15 0)
(3 -1.77637e-15 0)
(3 -1.8612e-15 0)
(3 -1.01349e-15 0)
(3 -1.49159e-15 0)
(3 -1.85718e-15 0)
(3 -1.54386e-15 0)
(3 -1.20954e-15 0)
(3 -1.04559e-15 0)
(3 2.99457e-17 0)
(3 1.35073e-15 0)
(3 2.52255e-15 0)
(3 1.24088e-16 0)
(3 1.91503e-16 0)
(3 -1.05918e-16 0)
(3 -2.88682e-16 0)
(3 1.56604e-16 0)
(3 7.36238e-16 0)
(3 4.24542e-16 0)
(3 -2.13066e-16 0)
(3 -8.43375e-16 0)
(3 -1.08272e-15 0)
(3 -4.1515e-16 0)
(3 -3.46246e-16 0)
(3 -6.41758e-16 0)
(3 -1.87403e-15 0)
(3 -2.92311e-15 0)
(3 -3.0422e-15 0)
(3 -2.76001e-15 0)
(3 -2.86751e-15 0)
(3 -2.65447e-15 0)
(3 -2.7198e-15 0)
(3 -2.95175e-15 0)
(3 -2.56272e-15 0)
(3 -1.57526e-15 0)
(3 -5.31001e-16 0)
(3 -7.27434e-17 0)
(3 8.26658e-17 0)
(3 -5.15087e-17 0)
(3 -1.32667e-16 0)
(3 -1.92095e-16 0)
(3 -6.07978e-16 0)
(3 -1.21165e-15 0)
(3 -1.96793e-15 0)
(3 -9.21718e-16 0)
(3 -5.50481e-16 0)
(3 4.53018e-16 0)
(3 1.08508e-15 0)
(3 8.97716e-16 0)
(3 -9.60577e-16 0)
(3 -2.92407e-15 0)
(3 -3.94346e-15 0)
(3 -3.56552e-15 0)
(3 -3.46835e-15 0)
(3 -4.1568e-15 0)
(3 -4.56216e-15 0)
(3 -3.9205e-15 0)
(3 -2.79486e-15 0)
(3 -2.37616e-15 0)
(3 -2.04642e-15 0)
(3 -4.33216e-17 0)
(3 1.2991e-16 0)
(3 4.87161e-16 0)
(3 8.05815e-16 0)
(3 8.10221e-16 0)
(3 6.41001e-17 0)
(3 -7.83169e-16 0)
(3 -1.62451e-15 0)
(3 -1.51122e-15 0)
(3 -8.70118e-16 0)
(3 7.25885e-16 0)
(3 1.16708e-15 0)
(3 1.08597e-15 0)
(3 4.28966e-16 0)
(3 -9.00237e-16 0)
(3 -2.92985e-15 0)
(3 -4.03649e-15 0)
(3 -4.17896e-15 0)
(3 -3.52701e-15 0)
(3 -3.48227e-15 0)
(3 -2.96415e-15 0)
(3 -1.80689e-15 0)
(3 -1.44356e-15 0)
(3 -1.18262e-15 0)
(3 1.10731e-16 0)
(3 1.12776e-16 0)
(3 -3.46728e-17 0)
(3 -6.33194e-18 0)
(3 5.54528e-16 0)
(3 1.21104e-15 0)
(3 1.41184e-15 0)
(3 1.26939e-15 0)
(3 6.59714e-16 0)
(3 5.73959e-16 0)
(3 8.6686e-16 0)
(3 1.67038e-15 0)
(3 1.79462e-15 0)
(3 6.18468e-16 0)
(3 1.78943e-19 0)
(3 -3.62722e-16 0)
(3 -2.15564e-15 0)
(3 -3.13564e-15 0)
(3 -2.93948e-15 0)
(3 -3.12748e-15 0)
(3 -2.49874e-15 0)
(3 -1.12017e-15 0)
(3 -3.46368e-16 0)
(3 2.20662e-17 0)
(3 -1.05606e-17 0)
(3 -1.10925e-17 0)
(3 -3.83517e-16 0)
(3 -1.11447e-15 0)
(3 -1.14824e-15 0)
(3 -5.39821e-16 0)
(3 8.43601e-16 0)
(3 2.01564e-15 0)
(3 2.09086e-15 0)
(3 1.00936e-15 0)
(3 7.81704e-16 0)
(3 1.11732e-15 0)
(3 1.5147e-15 0)
(3 5.61291e-16 0)
(3 -3.48962e-16 0)
(3 4.35191e-16 0)
(3 2.46516e-17 0)
(3 -4.41003e-16 0)
(3 -9.13115e-16 0)
(3 -5.87097e-16 0)
(3 -8.61474e-16 0)
(3 -1.38653e-15 0)
(3 -1.02985e-15 0)
(3 5.42029e-16 0)
(3 -2.95916e-17 0)
(3 1.81735e-16 0)
(3 -5.23774e-16 0)
(3 -1.22265e-15 0)
(3 -1.65679e-15 0)
(3 -1.37491e-15 0)
(3 -7.66447e-17 0)
(3 1.5638e-15 0)
(3 1.87322e-15 0)
(3 1.8557e-15 0)
(3 1.19469e-15 0)
(3 8.44834e-16 0)
(3 9.61838e-16 0)
(3 7.63345e-16 0)
(3 4.53619e-16 0)
(3 -5.01463e-16 0)
(3 -1.47538e-15 0)
(3 -9.09282e-16 0)
(3 -9.51859e-16 0)
(3 -1.41841e-16 0)
(3 -4.26492e-16 0)
(3 -1.45771e-15 0)
(3 -1.77582e-15 0)
(3 -1.1466e-15 0)
(3 -8.81659e-17 0)
(3 -1.99298e-16 0)
(3 2.06976e-16 0)
(3 1.2248e-16 0)
(3 -1.06954e-16 0)
(3 5.05682e-16 0)
(3 9.68355e-16 0)
(3 1.12319e-15 0)
(3 1.98209e-15 0)
(3 2.06427e-15 0)
(3 2.02427e-15 0)
(3 1.18262e-16 0)
(3 -1.15408e-15 0)
(3 -7.07348e-16 0)
(3 1.13383e-16 0)
(3 -6.92554e-16 0)
(3 -1.789e-15 0)
(3 -1.68692e-15 0)
(3 -1.5472e-15 0)
(3 -9.35353e-16 0)
(3 -6.02062e-16 0)
(3 -2.28783e-16 0)
(3 -3.00209e-16 0)
(3 -4.27632e-16 0)
(3 -2.27133e-18 0)
(3 7.33466e-17 0)
(3 2.35961e-16 0)
(3 6.9122e-16 0)
(3 8.54198e-16 0)
(3 1.03309e-15 0)
(3 7.57007e-16 0)
(3 5.77813e-16 0)
(3 9.16973e-16 0)
(3 1.38396e-15 0)
(3 1.4473e-15 0)
(3 -1.12901e-15 0)
(3 -2.22206e-15 0)
(3 -2.31836e-15 0)
(3 -4.99034e-16 0)
(3 7.76647e-16 0)
(3 1.16554e-15 0)
(3 1.19025e-16 0)
(3 5.18516e-16 0)
(3 4.89268e-16 0)
(3 3.78747e-16 0)
(3 9.83507e-17 0)
(3 3.72175e-16 0)
(3 4.74119e-16 0)
(3 -9.88269e-18 0)
(3 -1.07739e-16 0)
(3 -1.01833e-16 0)
(3 3.74216e-16 0)
(3 5.93561e-16 0)
(3 4.59721e-16 0)
(3 6.41713e-16 0)
(3 5.56366e-16 0)
(3 1.15728e-17 0)
(3 -5.4297e-16 0)
(3 -9.2084e-16 0)
(3 -1.31575e-15 0)
(3 -9.81131e-16 0)
(3 5.49646e-17 0)
(3 2.02563e-15 0)
(3 3.31013e-15 0)
(3 2.51445e-15 0)
(3 1.12886e-15 0)
(3 9.13799e-16 0)
(3 8.09081e-16 0)
(3 6.23238e-16 0)
(3 1.62175e-15 0)
(3 1.64389e-15 0)
(3 8.6985e-16 0)
(3 -5.72368e-17 0)
(3 -2.19895e-16 0)
(3 8.64102e-17 0)
(3 5.41817e-16 0)
(3 8.96021e-16 0)
(3 4.00977e-16 0)
(3 2.11296e-16 0)
(3 -1.72687e-16 0)
(3 -1.08916e-15 0)
(3 -2.23116e-15 0)
(3 -2.82274e-15 0)
(3 -1.96644e-15 0)
(3 -8.25624e-16 0)
(3 1.07452e-15 0)
(3 1.6282e-15 0)
(3 3.51627e-15 0)
(3 3.66857e-15 0)
(3 2.71407e-15 0)
(3 2.128e-15 0)
(3 6.0404e-16 0)
(3 8.29587e-16 0)
(3 1.10777e-15 0)
(3 8.75557e-16 0)
(3 2.88081e-16 0)
(3 -5.19452e-17 0)
(3 1.28952e-16 0)
(3 4.67914e-16 0)
(3 6.16614e-16 0)
(3 2.37648e-16 0)
(3 -5.25725e-17 0)
(3 -5.37489e-16 0)
(3 -6.28344e-16 0)
(3 -1.12253e-15 0)
(3 -1.23228e-15 0)
(3 -9.71738e-16 0)
(3 -3.15526e-16 0)
(3 -5.61265e-17 0)
(3 3.2283e-16 0)
(3 1.6212e-16 0)
(3 8.94859e-16 0)
(3 1.76538e-15 0)
(3 2.6759e-15 0)
(3 2.76043e-15 0)
(3 1.84176e-15 0)
(3 1.53209e-15 0)
(3 3.93759e-16 0)
(3 -3.57778e-17 0)
(3 -2.35807e-16 0)
(3 2.55641e-17 0)
(3 3.07551e-16 0)
(3 -3.57272e-16 0)
(3 -5.36837e-16 0)
(3 -4.45122e-16 0)
(3 -1.97005e-16 0)
(3 -3.92954e-16 0)
(3 -3.7241e-16 0)
(3 -1.63383e-16 0)
(3 -3.77575e-17 0)
(3 2.20813e-16 0)
(3 3.92694e-16 0)
(3 7.65349e-16 0)
(3 3.02646e-16 0)
(3 -4.07539e-16 0)
(3 -2.44419e-15 0)
(3 -1.98974e-15 0)
(3 2.58334e-16 0)
(3 1.26535e-15 0)
(3 1.26769e-15 0)
(3 4.03301e-16 0)
(3 -8.37618e-16 0)
(3 -6.98221e-16 0)
(3 2.43788e-16 0)
(3 2.86746e-17 0)
(3 -2.38154e-16 0)
(3 -6.35854e-16 0)
(3 -6.9405e-16 0)
(3 -4.70574e-16 0)
(3 -4.33182e-16 0)
(3 -2.32951e-16 0)
(3 -2.08555e-16 0)
(3 -2.13067e-16 0)
(3 2.91191e-16 0)
(3 9.11723e-16 0)
(3 5.56804e-16 0)
(3 2.08175e-16 0)
(3 4.8431e-17 0)
(3 1.95336e-16 0)
(3 -3.19879e-16 0)
(3 -1.95453e-15 0)
(3 -8.096e-16 0)
(3 6.34172e-16 0)
(3 9.27114e-16 0)
(3 6.99063e-16 0)
(3 3.67324e-16 0)
(3 7.12899e-17 0)
(3 8.19565e-16 0)
(3 1.46085e-17 0)
(3 -7.52012e-17 0)
(3 1.13607e-16 0)
(3 6.09438e-18 0)
(3 -1.78167e-17 0)
(3 -2.41409e-16 0)
(3 2.92981e-17 0)
(3 3.83994e-16 0)
(3 4.53047e-17 0)
(3 2.05244e-16 0)
(3 1.06362e-15 0)
(3 4.00171e-16 0)
(3 -4.08985e-16 0)
(3 -6.00672e-16 0)
(3 -2.34822e-16 0)
(3 -1.59078e-16 0)
(3 -7.05595e-16 0)
(3 -2.14506e-16 0)
(3 1.39915e-15 0)
(3 1.36384e-15 0)
(3 6.72287e-16 0)
(3 1.45258e-16 0)
(3 -5.44592e-16 0)
(3 -2.91551e-16 0)
(3 1.60848e-17 0)
(3 2.01795e-16 0)
(3 1.15512e-16 0)
(3 1.38532e-16 0)
(3 -1.10799e-16 0)
(3 -5.44133e-17 0)
(3 1.89861e-16 0)
(3 5.51754e-16 0)
(3 1.1715e-15 0)
(3 9.09868e-16 0)
(3 1.21015e-15 0)
(3 -7.95354e-17 0)
(3 -3.00797e-16 0)
(3 -2.58299e-16 0)
(3 -7.59701e-16 0)
(3 -6.90524e-16 0)
(3 -3.44942e-16 0)
(3 -1.81961e-16 0)
(3 -4.34144e-16 0)
(3 -2.66655e-16 0)
(3 4.49716e-16 0)
(3 -8.66376e-17 0)
(3 -4.5085e-16 0)
(3 -1.12229e-15 0)
(3 -5.29814e-17 0)
(3 -1.56662e-16 0)
(3 -1.86051e-16 0)
(3 -1.35678e-17 0)
(3 -4.43596e-17 0)
(3 -9.02571e-17 0)
(3 4.12174e-17 0)
(3 1.61176e-16 0)
(3 6.35246e-16 0)
(3 4.75856e-16 0)
(3 2.36351e-16 0)
(3 1.73838e-16 0)
(3 1.87577e-17 0)
(3 -3.74114e-16 0)
(3 -1.31482e-15 0)
(3 -1.1971e-15 0)
(3 -9.93294e-16 0)
(3 -1.10351e-15 0)
(3 -1.41508e-15 0)
(3 -1.04134e-15 0)
(3 4.7268e-17 0)
(3 4.68409e-16 0)
(3 5.43769e-16 0)
(3 -3.1123e-16 0)
(2.93142 0.0362896 0)
(2.8544 0.0404254 0)
(2.75218 0.152118 0)
(2.66692 0.245688 0)
(2.58558 0.338708 0)
(2.4912 0.451889 0)
(2.42863 0.542362 0)
(2.35038 0.626202 0)
(2.31034 0.721894 0)
(2.25716 0.800256 0)
(2.25021 0.855741 0)
(2.28532 0.886219 0)
(2.32424 0.900445 0)
(2.33451 0.886758 0)
(2.34482 0.881837 0)
(2.34789 0.865384 0)
(2.34979 0.857626 0)
(2.34727 0.852852 0)
(2.34186 0.850412 0)
(2.33955 0.849897 0)
(2.34005 0.849125 0)
(2.33976 0.848483 0)
(2.33889 0.848645 0)
(2.33746 0.849398 0)
(2.99845 0.0016805 0)
(2.99116 0.010874 0)
(2.96099 0.0478597 0)
(2.89961 0.134673 0)
(2.80921 0.269716 0)
(2.67147 0.470339 0)
(2.53902 0.680516 0)
(2.38856 0.899188 0)
(2.21373 1.07517 0)
(2.16375 1.10111 0)
(2.14525 1.04442 0)
(2.19484 1 0)
(2.2403 0.949895 0)
(2.30196 0.901827 0)
(2.33048 0.859504 0)
(2.34751 0.826416 0)
(2.35656 0.831143 0)
(2.35855 0.840788 0)
(2.35288 0.847121 0)
(2.34804 0.848083 0)
(2.34456 0.848046 0)
(2.34428 0.847561 0)
(2.34258 0.847268 0)
(2.34035 0.849052 0)
(3 4.6101e-07 0)
(3.00002 -1.44956e-05 0)
(2.99997 -1.79954e-05 0)
(2.99982 0.000258481 0)
(2.99868 0.00179111 0)
(2.99104 0.013171 0)
(2.96638 0.0523569 0)
(2.89821 0.173271 0)
(2.76365 0.422023 0)
(2.6146 0.684813 0)
(2.43697 0.858018 0)
(2.33252 0.92748 0)
(2.29886 0.91536 0)
(2.30426 0.901375 0)
(2.30535 0.897753 0)
(2.34189 0.864448 0)
(2.35816 0.853691 0)
(2.3611 0.855589 0)
(2.3584 0.849549 0)
(2.35489 0.849043 0)
(2.35137 0.849 0)
(2.35134 0.84847 0)
(2.35051 0.848446 0)
(2.34589 0.850478 0)
(3 -7.55038e-10 0)
(3 -8.38904e-07 0)
(3 -1.86977e-06 0)
(3 -1.59146e-06 0)
(3 -8.63727e-06 0)
(2.99999 2.37756e-05 0)
(3.00003 -6.54638e-05 0)
(2.99933 0.000973205 0)
(2.98828 0.020841 0)
(2.92351 0.136882 0)
(2.68454 0.487398 0)
(2.49421 0.728969 0)
(2.35664 0.878575 0)
(2.27508 0.967556 0)
(2.27291 0.956788 0)
(2.30147 0.918963 0)
(2.33187 0.875175 0)
(2.34941 0.858079 0)
(2.35555 0.848708 0)
(2.36082 0.840004 0)
(2.36071 0.841251 0)
(2.35884 0.845339 0)
(2.35746 0.846386 0)
(2.35288 0.847036 0)
(3 -1.48355e-10 0)
(3 2.66766e-09 0)
(3 -8.19223e-08 0)
(3 -1.47358e-07 0)
(3 -5.82642e-07 0)
(3 -6.41289e-07 0)
(3 -5.17897e-06 0)
(3 -5.5836e-06 0)
(3.00002 -5.36846e-05 0)
(2.99944 0.000627361 0)
(2.9824 0.0228043 0)
(2.87837 0.162273 0)
(2.66773 0.456002 0)
(2.35977 0.819857 0)
(2.35455 0.842271 0)
(2.30787 0.879927 0)
(2.31132 0.876585 0)
(2.32795 0.871003 0)
(2.34911 0.852498 0)
(2.3572 0.842739 0)
(2.36004 0.842337 0)
(2.36124 0.840742 0)
(2.35929 0.843188 0)
(2.35346 0.844056 0)
(3 -1.18623e-12 0)
(3 1.33251e-10 0)
(3 3.34263e-10 0)
(3 -1.05498e-09 0)
(3 -6.48604e-10 0)
(3 -3.32861e-08 0)
(3 -7.94538e-08 0)
(3 -3.35431e-07 0)
(3 -6.00944e-06 0)
(3 -5.56055e-06 0)
(3.00003 -5.48538e-05 0)
(2.99888 0.00147 0)
(2.97015 0.0379515 0)
(2.80091 0.243917 0)
(2.63345 0.509678 0)
(2.31717 0.861248 0)
(2.24923 0.903067 0)
(2.29958 0.882321 0)
(2.31243 0.874902 0)
(2.32197 0.865976 0)
(2.34319 0.853644 0)
(2.35043 0.847242 0)
(2.351 0.841025 0)
(2.34817 0.841396 0)
(3 2.19318e-14 0)
(3 -9.39585e-14 0)
(3 2.38875e-11 0)
(3 1.8592e-11 0)
(3 1.88632e-11 0)
(3 -1.97654e-10 0)
(3 -5.47042e-10 0)
(3 -7.48277e-10 0)
(3 -8.57815e-09 0)
(3 -3.37275e-07 0)
(3 -4.08842e-06 0)
(3.00001 -8.66388e-06 0)
(2.99998 -1.51245e-05 0)
(2.99569 0.00646694 0)
(2.95126 0.0669098 0)
(2.70268 0.375583 0)
(2.55804 0.596444 0)
(2.34175 0.815437 0)
(2.26896 0.894678 0)
(2.28295 0.879704 0)
(2.31138 0.857611 0)
(2.32416 0.848113 0)
(2.33494 0.848801 0)
(2.33924 0.842662 0)
(3 5.3381e-15 0)
(3 6.83248e-15 0)
(3 2.47675e-14 0)
(3 1.42513e-12 0)
(3 2.59334e-12 0)
(3 2.31143e-12 0)
(3 2.60372e-12 0)
(3 3.76701e-12 0)
(3 7.3062e-11 0)
(3 -7.48107e-10 0)
(3 -1.05173e-08 0)
(3 -1.65791e-06 0)
(3 -1.6959e-06 0)
(3.00001 -1.67072e-05 0)
(2.99967 0.00042413 0)
(2.98336 0.0234205 0)
(2.908 0.148188 0)
(2.56904 0.547956 0)
(2.42127 0.735939 0)
(2.35425 0.8046 0)
(2.32366 0.842974 0)
(2.31493 0.849562 0)
(2.32327 0.846824 0)
(2.32914 0.837966 0)
(3 -1.1494e-15 0)
(3 -1.09912e-15 0)
(3 -1.01986e-15 0)
(3 2.25437e-15 0)
(3 2.29183e-14 0)
(3 2.67656e-13 0)
(3 7.18371e-13 0)
(3 1.5738e-12 0)
(3 1.16044e-11 0)
(3 1.86697e-11 0)
(3 3.78512e-11 0)
(3 -1.62721e-08 0)
(3 -1.48424e-07 0)
(3 -3.66885e-06 0)
(3 -3.10943e-06 0)
(2.99999 1.58968e-05 0)
(2.99786 0.00360147 0)
(2.93903 0.0824501 0)
(2.8163 0.286022 0)
(2.46161 0.702382 0)
(2.33416 0.849547 0)
(2.32324 0.84051 0)
(2.32162 0.840584 0)
(2.31779 0.841874 0)
(3 -1.23635e-15 0)
(3 -1.07635e-15 0)
(3 -1.76598e-15 0)
(3 -2.11197e-15 0)
(3 -3.08224e-15 0)
(3 -9.45221e-16 0)
(3 3.446e-14 0)
(3 1.50349e-13 0)
(3 4.01912e-13 0)
(3 3.77985e-12 0)
(3 5.38466e-12 0)
(3 1.12743e-10 0)
(3 -1.60327e-09 0)
(3 -3.4349e-08 0)
(3 -4.8706e-07 0)
(3 -7.71784e-07 0)
(3.00001 -1.42343e-05 0)
(2.99931 0.00127426 0)
(2.98933 0.0208852 0)
(2.84573 0.212966 0)
(2.62439 0.514295 0)
(2.45728 0.728065 0)
(2.32765 0.867204 0)
(2.30857 0.859822 0)
(3 3.4336e-16 0)
(3 4.97568e-17 0)
(3 -9.83025e-16 0)
(3 -2.56639e-15 0)
(3 -2.66798e-15 0)
(3 -9.08947e-17 0)
(3 1.56722e-15 0)
(3 6.61279e-15 0)
(3 5.15682e-15 0)
(3 3.85908e-14 0)
(3 4.45122e-13 0)
(3 1.81808e-11 0)
(3 1.58355e-11 0)
(3 2.2904e-10 0)
(3 -4.73454e-09 0)
(3 -7.07986e-08 0)
(3 -2.16676e-06 0)
(3 -5.0462e-06 0)
(2.99996 5.131e-05 0)
(2.99315 0.0115089 0)
(2.94485 0.0910635 0)
(2.69605 0.440491 0)
(2.46079 0.742201 0)
(2.38331 0.786793 0)
(3 -9.39853e-16 0)
(3 -2.03288e-15 0)
(3 -1.90304e-15 0)
(3 -2.14421e-15 0)
(3 -1.86463e-15 0)
(3 1.5658e-16 0)
(3 1.82288e-15 0)
(3 1.84807e-15 0)
(3 2.10231e-15 0)
(3 1.05742e-15 0)
(3 1.16134e-15 0)
(3 3.67768e-13 0)
(3 2.82815e-12 0)
(3 2.59402e-11 0)
(3 5.41634e-11 0)
(3 -1.76104e-09 0)
(3 -4.52827e-08 0)
(3 -1.33469e-06 0)
(3 -1.51028e-06 0)
(2.99999 1.33241e-05 0)
(2.99864 0.00292595 0)
(2.96428 0.0543417 0)
(2.75966 0.348077 0)
(2.58245 0.611784 0)
(3 -1.82145e-15 0)
(3 -3.19785e-15 0)
(3 -3.80478e-15 0)
(3 -2.67016e-15 0)
(3 -1.35869e-15 0)
(3 -4.16931e-16 0)
(3 1.31731e-15 0)
(3 2.67115e-15 0)
(3 2.01534e-15 0)
(3 8.68101e-16 0)
(3 2.34445e-16 0)
(3 -1.77102e-15 0)
(3 2.26963e-14 0)
(3 7.83284e-13 0)
(3 1.58965e-11 0)
(3 1.16279e-11 0)
(3 2.79561e-11 0)
(3 -2.31658e-08 0)
(3 -3.41026e-07 0)
(3 -6.1078e-07 0)
(3 1.40215e-06 0)
(2.99934 0.00120042 0)
(2.97565 0.041325 0)
(2.86212 0.237309 0)
(3 -4.10171e-17 0)
(3 -8.09851e-16 0)
(3 -1.76155e-15 0)
(3 -1.48195e-15 0)
(3 -8.35754e-16 0)
(3 1.38528e-16 0)
(3 3.69136e-16 0)
(3 9.88347e-16 0)
(3 6.71667e-16 0)
(3 4.31752e-16 0)
(3 4.01452e-16 0)
(3 -6.66972e-16 0)
(3 -7.86242e-17 0)
(3 7.97066e-16 0)
(3 7.82615e-13 0)
(3 2.99044e-12 0)
(3 2.09745e-11 0)
(3 3.79471e-11 0)
(3 -1.35066e-08 0)
(3 -1.52542e-07 0)
(3 -1.96435e-07 0)
(3 -3.22742e-06 0)
(2.99957 0.000913608 0)
(2.99319 0.0142196 0)
(3 3.63901e-16 0)
(3 9.30906e-16 0)
(3 1.89331e-15 0)
(3 1.51987e-15 0)
(3 1.14661e-15 0)
(3 4.11389e-16 0)
(3 4.34938e-16 0)
(3 -5.37139e-16 0)
(3 -8.04052e-16 0)
(3 8.15211e-16 0)
(3 1.22261e-15 0)
(3 1.61608e-15 0)
(3 8.64881e-16 0)
(3 -9.24484e-16 0)
(3 2.20796e-15 0)
(3 1.04669e-13 0)
(3 1.989e-12 0)
(3 7.52049e-12 0)
(3 -4.45887e-11 0)
(3 -8.3855e-09 0)
(3 -3.95539e-08 0)
(3 -7.72499e-07 0)
(3 6.00904e-06 0)
(2.99998 9.88659e-06 0)
(3 2.91438e-15 0)
(3 2.06054e-15 0)
(3 1.95848e-15 0)
(3 1.79681e-15 0)
(3 1.04977e-15 0)
(3 5.47661e-16 0)
(3 -5.99578e-16 0)
(3 -2.01727e-15 0)
(3 5.58246e-16 0)
(3 9.52893e-16 0)
(3 8.92664e-16 0)
(3 7.21506e-16 0)
(3 3.23851e-16 0)
(3 -6.64302e-16 0)
(3 -2.03182e-15 0)
(3 -2.40371e-15 0)
(3 1.42555e-14 0)
(3 1.06183e-12 0)
(3 3.41044e-13 0)
(3 -3.49404e-11 0)
(3 -2.46025e-09 0)
(3 -1.64437e-07 0)
(3 4.57461e-09 0)
(3 -5.22247e-06 0)
(3 3.48653e-16 0)
(3 1.3345e-15 0)
(3 2.16388e-15 0)
(3 1.73169e-15 0)
(3 -7.14039e-17 0)
(3 2.1801e-16 0)
(3 -1.14978e-15 0)
(3 -1.94219e-15 0)
(3 1.80937e-16 0)
(3 8.04952e-16 0)
(3 4.00075e-16 0)
(3 -1.89555e-16 0)
(3 -5.07172e-16 0)
(3 -1.25911e-15 0)
(3 -2.1067e-15 0)
(3 -7.62309e-15 0)
(3 -1.83814e-14 0)
(3 -4.72764e-13 0)
(3 -5.34893e-13 0)
(3 1.74956e-10 0)
(3 2.71338e-09 0)
(3 1.4812e-08 0)
(3 1.4612e-06 0)
(3 -1.51505e-06 0)
(3 -9.66342e-16 0)
(3 8.70986e-16 0)
(3 1.03949e-15 0)
(3 1.63553e-15 0)
(3 1.95902e-15 0)
(3 1.16989e-15 0)
(3 -3.72196e-16 0)
(3 -5.39846e-16 0)
(3 1.17604e-16 0)
(3 1.1905e-15 0)
(3 8.53256e-16 0)
(3 -1.22272e-15 0)
(3 -2.0886e-15 0)
(3 -2.11873e-15 0)
(3 -4.86873e-15 0)
(3 -1.49796e-13 0)
(3 -2.88912e-12 0)
(3 -5.98975e-12 0)
(3 9.81215e-11 0)
(3 9.29089e-09 0)
(3 8.20038e-08 0)
(3 1.36191e-07 0)
(3 1.43402e-08 0)
(3 2.7762e-05 0)
(3 -5.14831e-16 0)
(3 4.48254e-16 0)
(3 1.04538e-15 0)
(3 1.28472e-15 0)
(3 1.30856e-15 0)
(3 1.4227e-15 0)
(3 6.35463e-16 0)
(3 8.42196e-17 0)
(3 1.60877e-16 0)
(3 1.4354e-15 0)
(3 5.76715e-16 0)
(3 -1.2415e-15 0)
(3 -2.89661e-15 0)
(3 -5.08222e-15 0)
(3 -7.40051e-13 0)
(3 -3.14875e-12 0)
(3 -2.51207e-11 0)
(3 -6.32361e-11 0)
(3 1.61655e-08 0)
(3 1.07555e-07 0)
(3 2.98449e-07 0)
(3 6.49859e-07 0)
(2.99965 -0.000741786 0)
(2.99157 -0.0157505 0)
(3 -3.34188e-16 0)
(3 -4.64471e-16 0)
(3 3.68404e-16 0)
(3 6.43847e-16 0)
(3 4.2497e-16 0)
(3 3.49941e-16 0)
(3 8.41806e-16 0)
(3 6.81398e-16 0)
(3 4.57055e-16 0)
(3 1.61417e-15 0)
(3 1.26925e-15 0)
(3 3.45097e-16 0)
(3 -2.28891e-14 0)
(3 -8.5951e-13 0)
(3 -1.48761e-11 0)
(3 -1.07021e-11 0)
(3 -8.61383e-11 0)
(3 2.45544e-08 0)
(3 3.18092e-07 0)
(3 4.05042e-07 0)
(3 3.16288e-06 0)
(2.99932 -0.00142307 0)
(2.97745 -0.0362572 0)
(2.84802 -0.242988 0)
(3 -8.68793e-16 0)
(3 -3.29582e-15 0)
(3 -1.96389e-15 0)
(3 -1.02026e-15 0)
(3 -8.02451e-16 0)
(3 -7.20577e-16 0)
(3 5.3635e-16 0)
(3 1.63633e-15 0)
(3 2.17838e-15 0)
(3 2.7687e-15 0)
(3 -7.44788e-16 0)
(3 -3.58965e-13 0)
(3 -2.76383e-12 0)
(3 -2.84061e-11 0)
(3 -5.00025e-11 0)
(3 1.92924e-09 0)
(3 4.0878e-08 0)
(3 1.38802e-06 0)
(3 1.25143e-06 0)
(3 2.30246e-06 0)
(2.99839 -0.00334455 0)
(2.9685 -0.0507838 0)
(2.75764 -0.347471 0)
(2.53347 -0.64298 0)
(3 -1.24255e-15 0)
(3 -2.74567e-15 0)
(3 -3.5577e-15 0)
(3 -2.96235e-15 0)
(3 -1.70652e-15 0)
(3 -1.85516e-16 0)
(3 -3.58391e-16 0)
(3 -5.64585e-15 0)
(3 -4.50487e-15 0)
(3 -4.13881e-14 0)
(3 -4.55859e-13 0)
(3 -1.81349e-11 0)
(3 -1.58809e-11 0)
(3 -2.54128e-10 0)
(3 4.68788e-09 0)
(3 6.54209e-08 0)
(3 2.14956e-06 0)
(3 5.24524e-06 0)
(2.99995 -6.05247e-05 0)
(2.99359 -0.0104717 0)
(2.93895 -0.0986456 0)
(2.71761 -0.417396 0)
(2.44735 -0.760769 0)
(2.37245 -0.791094 0)
(3 -6.51419e-16 0)
(3 1.46179e-16 0)
(3 8.81706e-16 0)
(3 9.61871e-16 0)
(3 -1.3168e-16 0)
(3 -2.4264e-15 0)
(3 -3.59001e-14 0)
(3 -1.48481e-13 0)
(3 -4.13405e-13 0)
(3 -3.76597e-12 0)
(3 -5.84551e-12 0)
(3 -1.08982e-10 0)
(3 1.46693e-09 0)
(3 3.93154e-08 0)
(3 4.35625e-07 0)
(3 7.73137e-07 0)
(3.00001 1.40216e-05 0)
(2.99931 -0.00126211 0)
(2.9891 -0.0209274 0)
(2.84593 -0.21205 0)
(2.62801 -0.51048 0)
(2.45427 -0.728716 0)
(2.32673 -0.87248 0)
(2.30603 -0.867514 0)
(3 1.40474e-15 0)
(3 -1.11834e-16 0)
(3 -9.28746e-16 0)
(3 -4.39945e-15 0)
(3 -2.4253e-14 0)
(3 -2.69405e-13 0)
(3 -7.12562e-13 0)
(3 -1.58752e-12 0)
(3 -1.16834e-11 0)
(3 -1.88605e-11 0)
(3 -3.8258e-11 0)
(3 1.62616e-08 0)
(3 1.49348e-07 0)
(3 3.77797e-06 0)
(3 2.61355e-06 0)
(2.99999 -1.31634e-05 0)
(2.99782 -0.00365465 0)
(2.93942 -0.081736 0)
(2.81314 -0.287824 0)
(2.45958 -0.702485 0)
(2.34008 -0.841338 0)
(2.32437 -0.842191 0)
(2.32153 -0.843512 0)
(2.31719 -0.84361 0)
(3 -4.60143e-15 0)
(3 -5.41672e-15 0)
(3 -2.24625e-14 0)
(3 -1.42467e-12 0)
(3 -2.58607e-12 0)
(3 -2.30888e-12 0)
(3 -2.5959e-12 0)
(3 -3.76201e-12 0)
(3 -7.4722e-11 0)
(3 7.47209e-10 0)
(3 1.05271e-08 0)
(3 1.66169e-06 0)
(3 1.69578e-06 0)
(3.00001 1.65718e-05 0)
(2.99967 -0.000424307 0)
(2.98343 -0.0233033 0)
(2.90713 -0.148795 0)
(2.57092 -0.545491 0)
(2.41827 -0.739322 0)
(2.35352 -0.803329 0)
(2.3244 -0.842186 0)
(2.31596 -0.849788 0)
(2.32302 -0.848466 0)
(2.32866 -0.838908 0)
(3 -2.29093e-14 0)
(3 9.36388e-14 0)
(3 -2.38966e-11 0)
(3 -1.85924e-11 0)
(3 -1.88826e-11 0)
(3 1.95783e-10 0)
(3 5.50669e-10 0)
(3 7.17343e-10 0)
(3 8.60549e-09 0)
(3 3.38247e-07 0)
(3 4.0654e-06 0)
(3.00001 8.74508e-06 0)
(2.99998 1.46558e-05 0)
(2.99569 -0.00646287 0)
(2.95117 -0.0669849 0)
(2.70292 -0.375248 0)
(2.55787 -0.596243 0)
(2.34247 -0.814936 0)
(2.26856 -0.895777 0)
(2.28225 -0.880026 0)
(2.31155 -0.857303 0)
(2.32439 -0.847667 0)
(2.33543 -0.84941 0)
(2.33877 -0.84279 0)
(3 1.1846e-12 0)
(3 -1.33123e-10 0)
(3 -3.34192e-10 0)
(3 1.05469e-09 0)
(3 6.502e-10 0)
(3 3.32602e-08 0)
(3 7.95163e-08 0)
(3 3.35205e-07 0)
(3 6.01254e-06 0)
(3 5.55939e-06 0)
(3.00003 5.46719e-05 0)
(2.99888 -0.00146806 0)
(2.97015 -0.0379778 0)
(2.80099 -0.24381 0)
(2.6331 -0.509856 0)
(2.31704 -0.861165 0)
(2.24958 -0.902776 0)
(2.29974 -0.882409 0)
(2.31257 -0.875176 0)
(2.32193 -0.866017 0)
(2.34324 -0.853458 0)
(2.35088 -0.846978 0)
(2.35109 -0.84134 0)
(2.34794 -0.841626 0)
(3 1.48421e-10 0)
(3 -2.66509e-09 0)
(3 8.18757e-08 0)
(3 1.47346e-07 0)
(3 5.8266e-07 0)
(3 6.41385e-07 0)
(3 5.17345e-06 0)
(3 5.58725e-06 0)
(3.00002 5.38416e-05 0)
(2.99944 -0.000628553 0)
(2.9824 -0.0227927 0)
(2.87831 -0.162342 0)
(2.66786 -0.45596 0)
(2.35982 -0.81982 0)
(2.35435 -0.842353 0)
(2.30783 -0.879944 0)
(2.3114 -0.876528 0)
(2.32806 -0.870976 0)
(2.34911 -0.852859 0)
(2.35717 -0.842805 0)
(2.36001 -0.842189 0)
(2.36145 -0.840518 0)
(2.35938 -0.843177 0)
(2.35337 -0.844218 0)
(3 7.5584e-10 0)
(3 8.38343e-07 0)
(3 1.86862e-06 0)
(3 1.59171e-06 0)
(3 8.6388e-06 0)
(2.99999 -2.37731e-05 0)
(3.00003 6.52782e-05 0)
(2.99933 -0.00097226 0)
(2.98828 -0.0208493 0)
(2.92356 -0.136838 0)
(2.6845 -0.487448 0)
(2.49405 -0.729126 0)
(2.35679 -0.878461 0)
(2.27522 -0.967414 0)
(2.27289 -0.956822 0)
(2.30138 -0.919071 0)
(2.33184 -0.875167 0)
(2.34962 -0.857843 0)
(2.3555 -0.84887 0)
(2.36071 -0.840037 0)
(2.36064 -0.841186 0)
(2.35884 -0.845238 0)
(2.35752 -0.846389 0)
(2.3529 -0.847077 0)
(3 -4.61293e-07 0)
(3.00002 1.44226e-05 0)
(2.99997 1.83137e-05 0)
(2.99982 -0.000258332 0)
(2.99868 -0.00179177 0)
(2.99104 -0.0131703 0)
(2.96638 -0.0523559 0)
(2.89822 -0.173262 0)
(2.76361 -0.422058 0)
(2.61468 -0.684743 0)
(2.43692 -0.858063 0)
(2.33251 -0.927497 0)
(2.29884 -0.915345 0)
(2.30429 -0.90134 0)
(2.30532 -0.897804 0)
(2.34186 -0.864558 0)
(2.35814 -0.853529 0)
(2.36121 -0.85551 0)
(2.35843 -0.849634 0)
(2.35484 -0.8491 0)
(2.35131 -0.848953 0)
(2.35136 -0.848415 0)
(2.35053 -0.848472 0)
(2.34589 -0.850505 0)
(2.99845 -0.00168094 0)
(2.99116 -0.0108751 0)
(2.96099 -0.0478561 0)
(2.89961 -0.134665 0)
(2.8092 -0.269721 0)
(2.67148 -0.470343 0)
(2.53903 -0.680513 0)
(2.38856 -0.899189 0)
(2.21373 -1.07519 0)
(2.16376 -1.10108 0)
(2.14522 -1.04444 0)
(2.19488 -1.00001 0)
(2.24027 -0.949887 0)
(2.30195 -0.901814 0)
(2.33047 -0.859541 0)
(2.34751 -0.826439 0)
(2.35653 -0.831082 0)
(2.35861 -0.840717 0)
(2.35288 -0.847157 0)
(2.34802 -0.84814 0)
(2.34453 -0.848066 0)
(2.34429 -0.847542 0)
(2.3426 -0.847257 0)
(2.34035 -0.849064 0)
(2.93142 -0.0362945 0)
(2.85439 -0.0404565 0)
(2.75219 -0.152068 0)
(2.66693 -0.245679 0)
(2.58555 -0.338754 0)
(2.49121 -0.451867 0)
(2.42863 -0.542346 0)
(2.35038 -0.626205 0)
(2.31035 -0.721906 0)
(2.25716 -0.800254 0)
(2.2502 -0.855745 0)
(2.28532 -0.886203 0)
(2.32422 -0.90047 0)
(2.33451 -0.886733 0)
(2.34483 -0.881856 0)
(2.34788 -0.865402 0)
(2.3498 -0.857598 0)
(2.34728 -0.852822 0)