/*--------------------------------*- C++ -*----------------------------------*\
  =========                 |
  \\      /  F ield         | OpenFOAM: The Open Source CFD Toolbox
   \\    /   O peration     | Website:  https://openfoam.org
    \\  /    A nd           | Version:  7
     \\/     M anipulation  |
\*---------------------------------------------------------------------------*/
FoamFile
{
    version     2.0;
    format      ascii;
    class       volVectorField;
    location    "1.6";
    object      U;
}
// * * * * * * * * * * * * * * * * * * * * * * * * * * * * * * * * * * * * * //

dimensions      [0 1 -1 0 0 0 0];

internalField   nonuniform List<vector> 
73728
(
(3 -6.65956e-20 0)
(3 7.74368e-18 0)
(3 -9.25868e-18 0)
(3 5.04378e-18 0)
(3 1.50814e-16 0)
(3 1.67833e-16 0)
(3 -1.23773e-16 0)
(3 -1.96677e-17 0)
(3 3.27301e-16 0)
(3 7.31852e-16 0)
(3 1.30267e-15 0)
(3 1.48261e-15 0)
(3 1.40654e-15 0)
(3 1.27348e-15 0)
(3 8.27801e-16 0)
(3 -2.89663e-16 0)
(3 -5.21369e-16 0)
(3 -8.0374e-16 0)
(3 -6.89198e-16 0)
(3 -6.62967e-16 0)
(3 -4.9083e-16 0)
(3 -5.52852e-16 0)
(3 3.87883e-16 0)
(3 5.90977e-16 0)
(3 3.69503e-16 0)
(3 -1.28443e-17 0)
(3 2.01631e-17 0)
(3 4.6106e-16 0)
(3 6.43094e-16 0)
(3 5.57322e-16 0)
(3 2.45232e-16 0)
(3 9.63585e-16 0)
(3 1.98572e-15 0)
(3 3.13224e-15 0)
(3 2.99991e-15 0)
(3 2.51055e-15 0)
(3 1.14049e-15 0)
(3 4.16131e-16 0)
(3 3.12306e-16 0)
(3 5.95237e-16 0)
(3 -1.38653e-16 0)
(3 -6.02901e-16 0)
(3 -7.02119e-16 0)
(3 -3.34964e-16 0)
(3 -2.77307e-16 0)
(3 -1.67732e-17 0)
(3 3.4014e-16 0)
(3 5.34199e-16 0)
(3 9.37002e-16 0)
(3 2.34905e-16 0)
(3 -6.59836e-16 0)
(3 -6.09506e-16 0)
(3 -5.40365e-16 0)
(3 -1.16869e-15 0)
(3 -1.49795e-15 0)
(3 -7.95664e-16 0)
(3 -7.84603e-16 0)
(3 -8.77655e-16 0)
(3 -1.0266e-15 0)
(3 -8.13313e-16 0)
(3 -1.03746e-16 0)
(3 -4.03387e-17 0)
(3 -1.44074e-17 0)
(3 -1.02613e-16 0)
(3 -3.9828e-16 0)
(3 -5.22758e-16 0)
(3 -4.21978e-16 0)
(3 -1.75195e-16 0)
(3 3.50973e-16 0)
(3 7.24623e-16 0)
(3 4.31917e-16 0)
(3 3.1894e-16 0)
(3 5.95558e-16 0)
(3 8.59517e-16 0)
(3 8.65457e-16 0)
(3 6.20485e-16 0)
(3 3.33965e-16 0)
(3 1.15301e-16 0)
(3 1.82477e-16 0)
(3 -1.2777e-15 0)
(3 -1.80239e-15 0)
(3 -1.9368e-15 0)
(3 -9.26739e-16 0)
(3 -5.61955e-16 0)
(3 -4.36885e-16 0)
(3 -2.74575e-16 0)
(3 -4.61236e-16 0)
(3 -4.02671e-16 0)
(3 -7.15576e-16 0)
(3 -6.08437e-16 0)
(3 -3.06906e-16 0)
(3 -6.93648e-17 0)
(3 7.8228e-17 0)
(3 2.98763e-16 0)
(3 2.21119e-16 0)
(3 4.03151e-16 0)
(3 1.48506e-17 0)
(3 9.64908e-17 0)
(3 -8.35028e-18 0)
(3 -3.98549e-17 0)
(3 -1.84607e-16 0)
(3 8.83358e-17 0)
(3 7.1718e-18 0)
(3 3.1058e-17 0)
(3 7.40558e-16 0)
(3 1.10948e-15 0)
(3 1.32322e-15 0)
(3 1.30859e-15 0)
(3 1.10981e-15 0)
(3 1.55026e-15 0)
(3 1.53556e-15 0)
(3 1.04319e-16 0)
(3 -2.38335e-16 0)
(3 -1.87272e-17 0)
(3 3.13277e-16 0)
(3 3.24458e-16 0)
(3 1.70829e-16 0)
(3 1.71575e-16 0)
(3 7.05306e-16 0)
(3 6.20495e-16 0)
(3 3.69978e-16 0)
(3 4.99271e-16 0)
(3 2.61915e-16 0)
(3 1.52414e-15 0)
(3 1.34617e-15 0)
(3 5.01141e-16 0)
(3 -1.81128e-16 0)
(3 -2.95432e-16 0)
(3 9.11497e-16 0)
(3 1.91443e-15 0)
(3 1.97495e-15 0)
(3 1.75105e-15 0)
(3 4.28528e-16 0)
(3 -2.62894e-16 0)
(3 8.02611e-17 0)
(3 4.48919e-16 0)
(3 -7.84146e-16 0)
(3 -1.08068e-15 0)
(3 -8.2749e-16 0)
(3 4.77564e-16 0)
(3 1.25925e-15 0)
(3 1.56601e-15 0)
(3 1.62859e-15 0)
(3 1.54706e-15 0)
(3 1.31462e-15 0)
(3 9.91001e-16 0)
(3 8.12202e-16 0)
(3 6.86785e-16 0)
(3 1.9078e-16 0)
(3 -1.18943e-15 0)
(3 -1.48106e-15 0)
(3 -1.65972e-15 0)
(3 -1.20089e-15 0)
(3 -1.43257e-15 0)
(3 -1.91249e-15 0)
(3 -2.40089e-15 0)
(3 -1.49098e-15 0)
(3 -8.72917e-16 0)
(3 -4.29118e-16 0)
(3 -5.08977e-16 0)
(3 -1.71855e-15 0)
(3 -1.6321e-15 0)
(3 -2.76447e-16 0)
(3 1.09072e-15 0)
(3 2.37101e-15 0)
(3 2.4299e-15 0)
(3 1.20688e-15 0)
(3 2.63241e-16 0)
(3 4.16458e-16 0)
(3 5.60218e-16 0)
(3 -1.33557e-16 0)
(3 -3.62607e-16 0)
(3 2.81992e-16 0)
(3 7.34419e-16 0)
(3 6.67935e-16 0)
(3 -4.28026e-16 0)
(3 -1.08015e-15 0)
(3 -1.70251e-15 0)
(3 -8.69629e-16 0)
(3 -1.09021e-15 0)
(3 -1.39288e-15 0)
(3 -1.21659e-15 0)
(3 -1.17174e-15 0)
(3 -9.36731e-16 0)
(3 -5.91708e-16 0)
(3 -1.55689e-16 0)
(3 5.05415e-16 0)
(3 8.25028e-16 0)
(3 5.29879e-16 0)
(3 -1.94922e-16 0)
(3 -8.07186e-16 0)
(3 -6.49328e-16 0)
(3 5.50526e-18 0)
(3 4.2145e-17 0)
(3 5.85812e-17 0)
(3 2.339e-17 0)
(3 -4.90244e-16 0)
(3 -1.71824e-16 0)
(3 2.56915e-16 0)
(3 3.00031e-16 0)
(3 3.75787e-16 0)
(3 6.4493e-16 0)
(3 7.41125e-16 0)
(3 7.58435e-16 0)
(3 9.42772e-16 0)
(3 1.48823e-15 0)
(3 1.96461e-15 0)
(3 2.97503e-15 0)
(3 2.83315e-15 0)
(3 1.43058e-15 0)
(3 5.43777e-16 0)
(3 2.03168e-16 0)
(3 6.64942e-17 0)
(3 5.29705e-16 0)
(3 6.68259e-16 0)
(3 1.0007e-16 0)
(3 6.21866e-16 0)
(3 1.46084e-15 0)
(3 1.21778e-15 0)
(3 3.10958e-16 0)
(3 -5.12986e-18 0)
(3 -5.55011e-16 0)
(3 -6.8816e-16 0)
(3 -4.51335e-16 0)
(3 -8.68788e-18 0)
(3 1.39716e-16 0)
(3 9.6642e-16 0)
(3 1.51196e-15 0)
(3 1.31437e-15 0)
(3 1.38646e-15 0)
(3 1.59895e-15 0)
(3 9.40082e-16 0)
(3 3.70659e-16 0)
(3 3.59224e-16 0)
(3 4.65712e-16 0)
(3 1.87135e-15 0)
(3 1.78066e-15 0)
(3 -2.99014e-16 0)
(3 -2.81584e-16 0)
(3 -1.99513e-16 0)
(3 -7.23484e-16 0)
(3 -5.50127e-16 0)
(3 7.87057e-17 0)
(3 4.45549e-16 0)
(3 -3.47381e-17 0)
(3 -1.25124e-15 0)
(3 -1.71359e-15 0)
(3 -2.29964e-15 0)
(3 -2.64719e-15 0)
(3 -3.344e-15 0)
(3 -3.17289e-15 0)
(3 -2.64359e-15 0)
(3 -2.39448e-15 0)
(3 -2.24506e-15 0)
(3 -1.23444e-15 0)
(3 -1.01374e-15 0)
(3 -1.06064e-15 0)
(3 -1.2032e-15 0)
(3 1.22515e-16 0)
(3 1.22002e-15 0)
(3 2.01852e-15 0)
(3 1.89861e-15 0)
(3 1.62727e-15 0)
(3 1.29103e-15 0)
(3 6.50156e-16 0)
(3 2.04043e-16 0)
(3 -2.13313e-16 0)
(3 1.8217e-16 0)
(3 -2.12225e-16 0)
(3 2.9565e-16 0)
(3 8.35938e-16 0)
(3 1.42253e-15 0)
(3 1.18718e-15 0)
(3 -3.84299e-17 0)
(3 -1.50114e-15 0)
(3 -1.57884e-15 0)
(3 -1.25775e-15 0)
(3 -8.44904e-16 0)
(3 -7.1049e-16 0)
(3 -3.47913e-16 0)
(3 6.41317e-16 0)
(3 1.60594e-15 0)
(3 1.6531e-15 0)
(3 1.28029e-15 0)
(3 6.30072e-16 0)
(3 -3.46028e-16 0)
(3 -7.14569e-16 0)
(3 -7.60553e-16 0)
(3 -1.9563e-17 0)
(3 -3.42013e-16 0)
(3 1.03536e-16 0)
(3 1.44847e-16 0)
(3 -2.04857e-16 0)
(3 -1.84318e-16 0)
(3 -1.85487e-16 0)
(3 -4.51189e-17 0)
(3 6.52879e-16 0)
(3 9.54675e-16 0)
(3 1.59586e-15 0)
(3 1.70225e-15 0)
(3 1.98108e-15 0)
(3 2.21538e-15 0)
(3 3.01688e-15 0)
(3 3.18202e-15 0)
(3 2.95431e-15 0)
(3 2.90985e-15 0)
(3 2.38521e-15 0)
(3 1.95428e-15 0)
(3 2.27354e-15 0)
(3 2.15511e-15 0)
(3 1.16355e-15 0)
(3 9.41329e-16 0)
(3 6.67729e-16 0)
(3 4.44042e-16 0)
(3 7.87895e-16 0)
(3 1.69865e-16 0)
(3 1.48008e-16 0)
(3 -1.94008e-16 0)
(3 -7.85372e-17 0)
(3 1.63328e-16 0)
(3 1.52439e-16 0)
(3 3.6722e-16 0)
(3 7.38204e-16 0)
(3 1.32633e-15 0)
(3 1.63207e-15 0)
(3 2.32918e-15 0)
(3 2.20443e-15 0)
(3 1.7434e-15 0)
(3 1.88346e-15 0)
(3 1.79385e-15 0)
(3 1.67179e-15 0)
(3 1.62524e-15 0)
(3 7.16384e-16 0)
(3 -1.09547e-15 0)
(3 -1.29195e-15 0)
(3 -2.52724e-15 0)
(3 -3.07145e-15 0)
(3 -3.68423e-15 0)
(3 -3.01688e-15 0)
(3 -2.55438e-15 0)
(3 -1.80287e-15 0)
(3 -1.39928e-15 0)
(3 -1.42106e-15 0)
(3 -1.61626e-15 0)
(3 -2.52361e-15 0)
(3 -3.26697e-15 0)
(3 -3.75133e-15 0)
(3 -2.8844e-15 0)
(3 -1.43643e-15 0)
(3 -6.32663e-16 0)
(3 -3.58436e-16 0)
(3 -2.90233e-16 0)
(3 -1.31235e-16 0)
(3 1.5023e-16 0)
(3 1.27399e-15 0)
(3 1.67417e-15 0)
(3 1.73899e-15 0)
(3 1.60181e-15 0)
(3 2.07929e-15 0)
(3 2.18322e-15 0)
(3 1.10157e-15 0)
(3 7.05502e-16 0)
(3 1.4226e-15 0)
(3 2.39621e-15 0)
(3 6.32219e-16 0)
(3 -1.67406e-16 0)
(3 1.16636e-16 0)
(3 -5.23478e-16 0)
(3 -9.98789e-17 0)
(3 4.79717e-17 0)
(3 -5.96692e-16 0)
(3 -9.62494e-17 0)
(3 7.56103e-16 0)
(3 1.1985e-15 0)
(3 1.11739e-15 0)
(3 1.02213e-15 0)
(3 6.62698e-16 0)
(3 7.8571e-16 0)
(3 -3.15216e-16 0)
(3 -4.45024e-16 0)
(3 -6.5835e-16 0)
(3 1.19253e-16 0)
(3 8.46823e-16 0)
(3 1.7234e-15 0)
(3 1.98066e-16 0)
(3 -4.36166e-16 0)
(3 -3.55266e-16 0)
(3 1.7804e-16 0)
(3 2.71936e-16 0)
(3 3.31003e-16 0)
(3 -6.38624e-17 0)
(3 -7.74093e-17 0)
(3 2.91747e-16 0)
(3 9.55381e-16 0)
(3 1.94912e-15 0)
(3 1.81079e-15 0)
(3 1.53871e-15 0)
(3 1.44153e-15 0)
(3 1.5038e-15 0)
(3 1.24454e-15 0)
(3 1.26341e-15 0)
(3 1.63571e-15 0)
(3 1.22606e-15 0)
(3 7.1146e-16 0)
(3 6.39885e-16 0)
(3 9.49196e-16 0)
(3 6.37911e-16 0)
(3 1.7859e-16 0)
(3 -4.86447e-16 0)
(3 -8.8474e-16 0)
(3 -2.51097e-16 0)
(3 1.00708e-17 0)
(3 -2.57567e-16 0)
(3 -9.61315e-16 0)
(3 -1.25797e-15 0)
(3 -1.38883e-15 0)
(3 -1.58333e-15 0)
(3 -1.691e-15 0)
(3 -7.38475e-16 0)
(3 7.4733e-16 0)
(3 1.82836e-15 0)
(3 2.91645e-15 0)
(3 2.05798e-15 0)
(3 1.26443e-15 0)
(3 1.21149e-15 0)
(3 5.66477e-16 0)
(3 7.32178e-17 0)
(3 -3.42158e-16 0)
(3 -4.69451e-16 0)
(3 -5.36934e-16 0)
(3 -2.55268e-15 0)
(3 -3.11038e-15 0)
(3 -2.71303e-15 0)
(3 -2.32594e-15 0)
(3 -2.40201e-15 0)
(3 -2.53169e-15 0)
(3 -2.40532e-15 0)
(3 -1.39887e-15 0)
(3 -1.09119e-15 0)
(3 -1.30709e-15 0)
(3 -1.99958e-15 0)
(3 -2.16628e-15 0)
(3 -1.90571e-15 0)
(3 -1.45624e-15 0)
(3 -9.05087e-16 0)
(3 -6.7863e-16 0)
(3 -6.30279e-16 0)
(3 -5.43539e-16 0)
(3 -5.89825e-16 0)
(3 1.17937e-15 0)
(3 1.68012e-15 0)
(3 1.54718e-15 0)
(3 1.18191e-15 0)
(3 1.01206e-15 0)
(3 1.122e-15 0)
(3 8.90149e-16 0)
(3 5.5661e-16 0)
(3 1.10369e-15 0)
(3 1.96438e-15 0)
(3 3.00675e-15 0)
(3 3.17122e-15 0)
(3 2.50192e-15 0)
(3 2.67734e-16 0)
(3 -6.21272e-16 0)
(3 2.16329e-16 0)
(3 1.26752e-15 0)
(3 2.6087e-15 0)
(3 3.08449e-15 0)
(3 3.06644e-15 0)
(3 2.67039e-15 0)
(3 2.00342e-15 0)
(3 1.66679e-15 0)
(3 4.84874e-16 0)
(3 -1.80066e-15 0)
(3 -2.05415e-15 0)
(3 -1.77865e-15 0)
(3 -1.04498e-16 0)
(3 1.10463e-16 0)
(3 1.17431e-16 0)
(3 7.39216e-16 0)
(3 -6.82217e-17 0)
(3 -1.21214e-16 0)
(3 -4.74781e-16 0)
(3 -7.53643e-16 0)
(3 -4.67103e-16 0)
(3 -9.47363e-17 0)
(3 1.68932e-16 0)
(3 2.74813e-16 0)
(3 -2.78852e-16 0)
(3 2.02158e-16 0)
(3 3.747e-16 0)
(3 7.76689e-16 0)
(3 7.92192e-16 0)
(3 5.36942e-16 0)
(3 2.75943e-16 0)
(3 3.89919e-16 0)
(3 7.02135e-16 0)
(3 3.50262e-16 0)
(3 -1.57421e-16 0)
(3 -6.03685e-16 0)
(3 -1.43088e-15 0)
(3 -1.71009e-15 0)
(3 -1.63321e-15 0)
(3 -1.53631e-15 0)
(3 -1.20616e-15 0)
(3 -5.35524e-16 0)
(3 -5.87694e-16 0)
(3 -5.26625e-16 0)
(3 -6.3604e-16 0)
(3 -5.90292e-16 0)
(3 -1.29709e-15 0)
(3 -1.17425e-15 0)
(3 -7.108e-16 0)
(3 -3.25268e-16 0)
(3 3.99297e-16 0)
(3 1.38061e-15 0)
(3 2.27753e-15 0)
(3 2.92743e-15 0)
(3 3.03916e-15 0)
(3 2.28243e-15 0)
(3 1.2193e-15 0)
(3 1.28237e-16 0)
(3 -9.47432e-16 0)
(3 -1.57287e-15 0)
(3 -1.29444e-15 0)
(3 -3.41695e-16 0)
(3 -5.71739e-16 0)
(3 -8.93685e-16 0)
(3 -5.3401e-16 0)
(3 2.04477e-16 0)
(3 2.14946e-16 0)
(3 -3.14752e-16 0)
(3 -8.9669e-16 0)
(3 -1.16582e-15 0)
(3 -1.28462e-15 0)
(3 -1.84765e-15 0)
(3 -1.77414e-15 0)
(3 -3.06349e-16 0)
(3 3.89573e-16 0)
(3 -6.1814e-16 0)
(3 -1.77026e-15 0)
(3 -2.21177e-15 0)
(3 -2.03622e-15 0)
(3 -6.57951e-16 0)
(3 1.13799e-15 0)
(3 1.71467e-15 0)
(3 1.38109e-15 0)
(3 5.57313e-16 0)
(3 -2.42764e-17 0)
(3 2.74576e-17 0)
(3 4.01993e-16 0)
(3 1.08592e-15 0)
(3 1.99589e-15 0)
(3 2.86919e-15 0)
(3 3.02326e-15 0)
(3 2.98802e-15 0)
(3 3.336e-15 0)
(3 3.28663e-15 0)
(3 9.65208e-16 0)
(3 2.82053e-16 0)
(3 1.14622e-15 0)
(3 1.31325e-15 0)
(3 2.74509e-15 0)
(3 3.91775e-15 0)
(3 3.39084e-15 0)
(3 2.57557e-15 0)
(3 1.41889e-15 0)
(3 6.02992e-16 0)
(3 3.89009e-18 0)
(3 -6.419e-16 0)
(3 -1.26019e-15 0)
(3 -1.14468e-15 0)
(3 -7.44691e-16 0)
(3 -1.11461e-15 0)
(3 -8.62478e-16 0)
(3 3.35515e-17 0)
(3 1.36617e-17 0)
(3 3.41003e-16 0)
(3 4.78207e-17 0)
(3 -1.57348e-16 0)
(3 -2.55298e-16 0)
(3 4.33068e-16 0)
(3 1.37836e-15 0)
(3 1.6707e-15 0)
(3 1.44961e-15 0)
(3 1.27973e-15 0)
(3 7.58373e-16 0)
(3 7.54129e-16 0)
(3 7.46017e-16 0)
(3 2.7698e-16 0)
(3 4.32705e-16 0)
(3 6.34629e-16 0)
(3 7.4099e-16 0)
(3 5.23313e-17 0)
(3 -5.48918e-16 0)
(3 -7.00954e-16 0)
(3 -1.18566e-15 0)
(3 -1.88743e-15 0)
(3 -1.51114e-15 0)
(3 -1.10721e-15 0)
(3 7.12936e-17 0)
(3 -6.21401e-17 0)
(3 -4.01959e-16 0)
(3 -5.65179e-16 0)
(3 -4.71757e-16 0)
(3 -1.00877e-16 0)
(3 -5.15097e-16 0)
(3 -5.39591e-16 0)
(3 -3.71185e-17 0)
(3 5.83267e-16 0)
(3 2.19602e-15 0)
(3 2.77881e-15 0)
(3 3.2547e-15 0)
(3 2.99693e-15 0)
(3 2.69075e-15 0)
(3 1.99719e-15 0)
(3 1.71043e-15 0)
(3 7.21473e-16 0)
(3 -9.70792e-17 0)
(3 -9.80942e-16 0)
(3 -6.45121e-16 0)
(3 -3.50148e-17 0)
(3 2.77788e-16 0)
(3 3.75964e-16 0)
(3 5.34394e-16 0)
(3 3.57459e-16 0)
(3 1.41337e-15 0)
(3 1.3103e-15 0)
(3 3.59473e-16 0)
(3 -8.56677e-16 0)
(3 -1.27911e-15 0)
(3 -1.28835e-15 0)
(3 -1.31612e-15 0)
(3 6.45859e-16 0)
(3 8.95409e-16 0)
(3 7.23305e-16 0)
(3 -2.0398e-16 0)
(3 -1.16969e-15 0)
(3 -7.85317e-16 0)
(3 -7.41589e-16 0)
(3 7.66538e-18 0)
(3 2.82245e-16 0)
(3 1.16629e-16 0)
(3 5.96242e-16 0)
(3 5.71536e-16 0)
(3 4.6253e-16 0)
(3 3.56599e-16 0)
(3 3.35163e-16 0)
(3 9.28635e-16 0)
(3 1.63521e-15 0)
(3 2.33952e-15 0)
(3 1.66105e-15 0)
(3 1.56969e-15 0)
(3 2.0318e-15 0)
(3 2.36386e-15 0)
(3 1.58689e-15 0)
(3 8.756e-16 0)
(3 1.12495e-15 0)
(3 1.33475e-15 0)
(3 1.98201e-15 0)
(3 1.74565e-15 0)
(3 1.39545e-15 0)
(3 1.4937e-15 0)
(3 6.37909e-16 0)
(3 3.63454e-16 0)
(3 1.31293e-15 0)
(3 1.3816e-15 0)
(3 3.54917e-16 0)
(3 -3.45457e-16 0)
(3 -4.58923e-16 0)
(3 5.55765e-16 0)
(3 1.53968e-15 0)
(3 6.10816e-17 0)
(3 2.50225e-16 0)
(3 3.36923e-16 0)
(3 6.4189e-16 0)
(3 8.24175e-16 0)
(3 8.74272e-16 0)
(3 8.67777e-16 0)
(3 1.72486e-15 0)
(3 2.19368e-15 0)
(3 1.27078e-15 0)
(3 4.08554e-16 0)
(3 6.18066e-16 0)
(3 6.68176e-16 0)
(3 4.20387e-16 0)
(3 -1.38024e-16 0)
(3 -3.154e-16 0)
(3 -5.76634e-16 0)
(3 -1.03426e-15 0)
(3 -1.54528e-15 0)
(3 -1.8874e-15 0)
(3 -1.3787e-15 0)
(3 -4.68161e-16 0)
(3 1.1492e-16 0)
(3 4.22819e-16 0)
(3 1.10487e-16 0)
(3 -3.30865e-16 0)
(3 1.07807e-17 0)
(3 1.55434e-16 0)
(3 -7.38152e-17 0)
(3 -7.76304e-16 0)
(3 -9.24477e-16 0)
(3 -1.27398e-15 0)
(3 -1.07483e-15 0)
(3 -4.43061e-16 0)
(3 9.02158e-16 0)
(3 2.30426e-15 0)
(3 2.59662e-15 0)
(3 1.69751e-15 0)
(3 8.31096e-16 0)
(3 4.93494e-16 0)
(3 5.53447e-16 0)
(3 1.81075e-16 0)
(3 3.35083e-17 0)
(3 -2.32209e-16 0)
(3 -7.79878e-16 0)
(3 -1.05436e-15 0)
(3 -6.45084e-16 0)
(3 4.76317e-16 0)
(3 6.64098e-16 0)
(3 3.66542e-16 0)
(3 2.46012e-16 0)
(3 -3.91104e-16 0)
(3 -7.49333e-16 0)
(3 -9.03273e-16 0)
(3 -3.24698e-16 0)
(3 8.00515e-16 0)
(3 7.99321e-16 0)
(3 6.31501e-16 0)
(3 1.00024e-15 0)
(3 1.17592e-15 0)
(3 8.06235e-16 0)
(3 -4.25815e-16 0)
(3 -9.38987e-16 0)
(3 -6.13686e-16 0)
(3 3.03393e-16 0)
(3 3.25098e-16 0)
(3 -4.55874e-17 0)
(3 6.77249e-16 0)
(3 1.05661e-15 0)
(3 4.32251e-16 0)
(3 -1.8994e-16 0)
(3 -4.09462e-16 0)
(3 -4.54927e-17 0)
(3 3.82583e-16 0)
(3 8.93362e-16 0)
(3 1.00943e-15 0)
(3 7.66148e-16 0)
(3 9.34207e-16 0)
(3 2.10173e-15 0)
(3 2.1004e-15 0)
(3 1.26859e-15 0)
(3 7.70343e-16 0)
(3 1.20694e-16 0)
(3 -6.39183e-16 0)
(3 -7.53008e-16 0)
(3 -6.23049e-16 0)
(3 -2.51712e-16 0)
(3 7.69725e-16 0)
(3 1.04988e-15 0)
(3 1.92425e-15 0)
(3 2.20882e-15 0)
(3 1.88646e-15 0)
(3 6.17224e-16 0)
(3 7.50976e-17 0)
(3 3.10966e-16 0)
(3 4.7797e-16 0)
(3 -4.11847e-17 0)
(3 -2.42706e-17 0)
(3 -8.18783e-17 0)
(3 -1.13951e-17 0)
(3 2.30558e-16 0)
(3 -2.96142e-19 0)
(3 1.41811e-16 0)
(3 5.14396e-16 0)
(3 5.17812e-16 0)
(3 3.81446e-16 0)
(3 3.69342e-16 0)
(3 2.55044e-16 0)
(3 3.44763e-16 0)
(3 5.83833e-16 0)
(3 2.26458e-16 0)
(3 -4.23006e-16 0)
(3 -3.11717e-16 0)
(3 -3.18307e-16 0)
(3 -7.39398e-17 0)
(3 2.88527e-16 0)
(3 7.82583e-16 0)
(3 7.14859e-16 0)
(3 6.51245e-16 0)
(3 -6.92813e-16 0)
(3 -1.98817e-15 0)
(3 -1.14358e-15 0)
(3 4.6377e-17 0)
(3 6.24761e-18 0)
(3 -3.26411e-16 0)
(3 -4.03671e-16 0)
(3 -2.06099e-16 0)
(3 -3.6816e-16 0)
(3 1.59933e-16 0)
(3 6.99983e-16 0)
(3 9.04569e-16 0)
(3 1.06442e-15 0)
(3 -7.72476e-17 0)
(3 -6.53277e-16 0)
(3 -9.23958e-16 0)
(3 -1.23614e-15 0)
(3 3.41427e-16 0)
(3 6.60559e-16 0)
(3 6.07518e-16 0)
(3 1.56208e-17 0)
(3 -1.10831e-15 0)
(3 -1.99744e-15 0)
(3 -2.0322e-15 0)
(3 -1.48097e-15 0)
(3 -9.37755e-16 0)
(3 9.31305e-16 0)
(3 3.94314e-16 0)
(3 -6.28167e-16 0)
(3 -2.56108e-16 0)
(3 3.10038e-16 0)
(3 3.69226e-16 0)
(3 5.39999e-16 0)
(3 5.44873e-16 0)
(3 -1.05289e-17 0)
(3 -3.19934e-16 0)
(3 -8.50191e-16 0)
(3 -9.73031e-16 0)
(3 -1.11565e-15 0)
(3 -6.2937e-16 0)
(3 2.31387e-16 0)
(3 9.91955e-16 0)
(3 8.21909e-16 0)
(3 9.27184e-16 0)
(3 -2.60936e-16 0)
(3 -7.00525e-16 0)
(3 -9.30628e-16 0)
(3 -7.54032e-16 0)
(3 -6.98609e-16 0)
(3 -1.22972e-15 0)
(3 -1.72689e-15 0)
(3 -1.75386e-15 0)
(3 -1.08099e-15 0)
(3 -8.83071e-16 0)
(3 -1.23107e-15 0)
(3 -1.0117e-15 0)
(3 5.38808e-16 0)
(3 7.77531e-16 0)
(3 4.95117e-16 0)
(3 1.03019e-16 0)
(3 -3.73565e-16 0)
(3 -4.72595e-16 0)
(3 -1.7166e-17 0)
(3 1.0475e-16 0)
(3 8.61305e-16 0)
(3 1.17336e-15 0)
(3 5.44171e-16 0)
(3 5.88524e-16 0)
(3 8.38563e-16 0)
(3 6.46931e-16 0)
(3 6.04569e-16 0)
(3 3.24452e-16 0)
(3 1.61917e-16 0)
(3 1.42217e-17 0)
(3 -1.47946e-16 0)
(3 6.0917e-17 0)
(3 1.41788e-16 0)
(3 9.75744e-17 0)
(3 1.58219e-16 0)
(3 3.02061e-16 0)
(3 1.18971e-16 0)
(3 -3.37767e-16 0)
(3 -1.49874e-16 0)
(3 -2.01727e-16 0)
(3 -4.98541e-16 0)
(3 -5.13479e-16 0)
(3 2.06249e-17 0)
(3 3.45902e-16 0)
(3 5.63783e-16 0)
(3 7.61577e-16 0)
(3 1.05613e-15 0)
(3 2.00691e-15 0)
(3 2.56821e-15 0)
(3 2.22935e-15 0)
(3 1.37412e-15 0)
(3 4.12788e-16 0)
(3 -3.34396e-16 0)
(3 -1.25295e-15 0)
(3 -1.19379e-15 0)
(3 -1.22848e-15 0)
(3 -1.29327e-15 0)
(3 -1.0076e-15 0)
(3 -3.70093e-16 0)
(3 3.15351e-16 0)
(3 6.87906e-16 0)
(3 5.00464e-16 0)
(3 6.25303e-16 0)
(3 -9.30693e-18 0)
(3 -1.95359e-15 0)
(3 -2.95929e-15 0)
(3 -2.6862e-15 0)
(3 -1.58147e-15 0)
(3 1.04462e-16 0)
(3 1.50631e-15 0)
(3 1.91492e-15 0)
(3 1.52362e-15 0)
(3 -2.62159e-16 0)
(3 -8.65118e-16 0)
(3 -2.2467e-15 0)
(3 -2.09933e-15 0)
(3 -1.5082e-15 0)
(3 -1.23854e-15 0)
(3 -8.8753e-16 0)
(3 -7.35899e-16 0)
(3 5.42274e-16 0)
(3 1.04742e-15 0)
(3 1.2093e-15 0)
(3 1.2371e-15 0)
(3 8.54283e-16 0)
(3 1.01178e-15 0)
(3 6.78794e-16 0)
(3 -3.76168e-16 0)
(3 -1.32852e-15 0)
(3 -1.78039e-15 0)
(3 -3.67347e-16 0)
(3 3.98821e-16 0)
(3 2.49083e-16 0)
(3 -1.02815e-16 0)
(3 -1.01368e-16 0)
(3 -4.59713e-16 0)
(3 -1.71823e-15 0)
(3 -2.9367e-15 0)
(3 -2.67076e-15 0)
(3 -1.84783e-15 0)
(3 -1.18048e-15 0)
(3 -1.39131e-15 0)
(3 -2.6347e-15 0)
(3 -3.76128e-15 0)
(3 -4.28372e-15 0)
(3 -3.70002e-15 0)
(3 -2.88269e-15 0)
(3 -2.19873e-15 0)
(3 -1.74175e-15 0)
(3 -3.15491e-16 0)
(3 6.19549e-16 0)
(3 7.16255e-16 0)
(3 7.12854e-16 0)
(3 1.22461e-15 0)
(3 2.19053e-15 0)
(3 2.24177e-15 0)
(3 1.80829e-15 0)
(3 2.06739e-15 0)
(3 1.44941e-15 0)
(3 1.17666e-15 0)
(3 7.46661e-16 0)
(3 7.73215e-16 0)
(3 1.1506e-15 0)
(3 1.02838e-15 0)
(3 9.41521e-16 0)
(3 -1.95324e-16 0)
(3 -8.99505e-17 0)
(3 2.58497e-16 0)
(3 2.83568e-16 0)
(3 -9.55052e-17 0)
(3 -2.65255e-16 0)
(3 -1.02623e-15 0)
(3 -1.20689e-15 0)
(3 -1.42826e-15 0)
(3 -1.38594e-15 0)
(3 -1.61696e-15 0)
(3 -1.55923e-15 0)
(3 -1.54513e-15 0)
(3 -1.43967e-15 0)
(3 -2.25683e-16 0)
(3 2.72132e-16 0)
(3 5.06751e-16 0)
(3 7.01506e-16 0)
(3 6.40065e-16 0)
(3 4.94624e-16 0)
(3 2.53811e-16 0)
(3 4.27775e-16 0)
(3 1.24126e-16 0)
(3 -6.03603e-16 0)
(3 -7.9853e-16 0)
(3 -1.28649e-15 0)
(3 -2.06688e-15 0)
(3 -2.18169e-15 0)
(3 -1.86209e-15 0)
(3 -1.37032e-15 0)
(3 -6.86407e-16 0)
(3 -4.84206e-16 0)
(3 -2.35784e-16 0)
(3 -9.293e-16 0)
(3 -2.83054e-15 0)
(3 -3.68587e-15 0)
(3 -2.36919e-15 0)
(3 -9.88699e-16 0)
(3 6.13589e-16 0)
(3 1.78404e-15 0)
(3 1.69538e-15 0)
(3 1.65308e-15 0)
(3 1.08968e-15 0)
(3 8.83249e-16 0)
(3 9.15757e-16 0)
(3 7.68871e-16 0)
(3 1.01006e-15 0)
(3 1.94335e-15 0)
(3 1.89266e-15 0)
(3 1.53449e-15 0)
(3 6.50187e-16 0)
(3 1.12985e-15 0)
(3 1.83016e-15 0)
(3 2.15983e-15 0)
(3 2.24931e-15 0)
(3 1.72001e-15 0)
(3 1.45427e-15 0)
(3 1.63544e-15 0)
(3 6.79784e-16 0)
(3 4.52038e-16 0)
(3 7.66839e-17 0)
(3 4.51402e-16 0)
(3 -1.0791e-16 0)
(3 -9.85045e-16 0)
(3 -1.16877e-15 0)
(3 -1.12972e-15 0)
(3 -1.45783e-15 0)
(3 -2.25142e-15 0)
(3 -2.88313e-15 0)
(3 -2.52233e-15 0)
(3 -2.22267e-15 0)
(3 -1.29939e-15 0)
(3 -3.79304e-16 0)
(3 -6.75777e-16 0)
(3 -1.95431e-15 0)
(3 -2.72457e-15 0)
(3 -2.91038e-15 0)
(3 -3.25252e-15 0)
(3 -2.78241e-15 0)
(3 -1.47034e-15 0)
(3 -5.09559e-16 0)
(3 3.61148e-16 0)
(3 8.69326e-16 0)
(3 6.64041e-16 0)
(3 6.91836e-16 0)
(3 1.44573e-15 0)
(3 2.16397e-15 0)
(3 1.81573e-15 0)
(3 1.47029e-15 0)
(3 1.1205e-15 0)
(3 1.14909e-15 0)
(3 1.06107e-15 0)
(3 1.46584e-15 0)
(3 1.76931e-15 0)
(3 1.48006e-15 0)
(3 8.65261e-16 0)
(3 7.31511e-17 0)
(3 8.53045e-17 0)
(3 -2.50857e-16 0)
(3 -5.03726e-16 0)
(3 -3.35519e-16 0)
(3 -5.836e-16 0)
(3 -9.19409e-16 0)
(3 -1.05469e-15 0)
(3 -1.38475e-15 0)
(3 -1.829e-15 0)
(3 -1.98658e-15 0)
(3 -1.63374e-15 0)
(3 -1.2781e-15 0)
(3 -1.21793e-15 0)
(3 -8.60249e-16 0)
(3 -3.35397e-16 0)
(3 -1.64823e-16 0)
(3 -2.7366e-17 0)
(3 -2.91041e-16 0)
(3 -7.44008e-16 0)
(3 -7.80273e-16 0)
(3 -3.17069e-16 0)
(3 -3.42951e-16 0)
(3 -3.41488e-16 0)
(3 4.25058e-16 0)
(3 -6.10397e-16 0)
(3 -6.91925e-16 0)
(3 -1.01343e-15 0)
(3 -1.40451e-15 0)
(3 -1.74632e-15 0)
(3 -1.59292e-15 0)
(3 -9.92898e-16 0)
(3 -4.13095e-16 0)
(3 -5.34049e-16 0)
(3 -9.81655e-16 0)
(3 -5.11449e-16 0)
(3 6.51834e-16 0)
(3 1.10753e-15 0)
(3 2.57343e-15 0)
(3 3.1281e-15 0)
(3 1.6626e-15 0)
(3 1.11801e-15 0)
(3 1.39131e-15 0)
(3 2.34023e-15 0)
(3 2.90967e-15 0)
(3 3.69768e-15 0)
(3 4.46562e-15 0)
(3 4.44345e-15 0)
(3 3.84935e-15 0)
(3 3.01205e-15 0)
(3 2.23255e-15 0)
(3 2.5933e-15 0)
(3 2.41661e-15 0)
(3 2.13656e-15 0)
(3 1.92073e-15 0)
(3 1.6948e-15 0)
(3 1.36313e-15 0)
(3 1.71009e-15 0)
(3 2.22859e-15 0)
(3 2.16196e-15 0)
(3 1.97658e-15 0)
(3 9.01975e-16 0)
(3 -6.59212e-16 0)
(3 -9.75753e-16 0)
(3 -1.5291e-15 0)
(3 -2.69439e-15 0)
(3 -2.93476e-15 0)
(3 -2.72722e-15 0)
(3 -2.33772e-15 0)
(3 -1.87128e-15 0)
(3 -1.48188e-15 0)
(3 -1.3973e-15 0)
(3 -1.18048e-15 0)
(3 -1.08527e-15 0)
(3 -1.29705e-15 0)
(3 -1.78647e-15 0)
(3 -2.84135e-15 0)
(3 -2.96882e-15 0)
(3 -2.24822e-15 0)
(3 -1.65739e-15 0)
(3 -1.25947e-15 0)
(3 2.69508e-16 0)
(3 1.42387e-15 0)
(3 1.58232e-15 0)
(3 1.75434e-15 0)
(3 8.5535e-16 0)
(3 4.50395e-16 0)
(3 2.73881e-16 0)
(3 6.44666e-16 0)
(3 2.10085e-15 0)
(3 2.07511e-15 0)
(3 2.62735e-15 0)
(3 1.92484e-15 0)
(3 1.294e-15 0)
(3 7.4193e-16 0)
(3 3.73916e-16 0)
(3 1.06757e-16 0)
(3 1.0659e-16 0)
(3 -2.08999e-17 0)
(3 -9.03499e-17 0)
(3 -1.21383e-16 0)
(3 2.54548e-17 0)
(3 2.6306e-16 0)
(3 3.05536e-16 0)
(3 -3.02952e-16 0)
(3 -4.8248e-16 0)
(3 -4.35283e-16 0)
(3 -4.88072e-16 0)
(3 -4.50989e-16 0)
(3 -6.20143e-16 0)
(3 -7.78766e-16 0)
(3 -7.50434e-16 0)
(3 -6.08967e-16 0)
(3 -1.15219e-15 0)
(3 -1.33073e-15 0)
(3 -9.75503e-16 0)
(3 -1.19209e-15 0)
(3 -1.34253e-15 0)
(3 -2.95395e-16 0)
(3 4.12293e-16 0)
(3 1.35974e-15 0)
(3 9.53022e-16 0)
(3 8.99326e-16 0)
(3 8.08659e-16 0)
(3 6.10474e-16 0)
(3 3.33942e-16 0)
(3 -6.14813e-17 0)
(3 5.78911e-16 0)
(3 7.40116e-16 0)
(3 3.28419e-16 0)
(3 -3.86137e-17 0)
(3 1.34208e-16 0)
(3 9.08644e-16 0)
(3 1.43912e-15 0)
(3 1.85905e-15 0)
(3 6.252e-16 0)
(3 2.61651e-17 0)
(3 -5.03423e-16 0)
(3 -5.18037e-16 0)
(3 3.98283e-16 0)
(3 1.21514e-15 0)
(3 3.11079e-15 0)
(3 4.17312e-15 0)
(3 3.27262e-15 0)
(3 1.98146e-15 0)
(3 1.36095e-15 0)
(3 1.77911e-15 0)
(3 2.07362e-15 0)
(3 1.50274e-15 0)
(3 1.1014e-15 0)
(3 1.12163e-15 0)
(3 1.58671e-15 0)
(3 1.70747e-15 0)
(3 1.77236e-15 0)
(3 2.10728e-15 0)
(3 2.61396e-15 0)
(3 2.46097e-15 0)
(3 2.20913e-15 0)
(3 1.85154e-15 0)
(3 1.41317e-15 0)
(3 5.15989e-16 0)
(3 -6.75653e-16 0)
(3 -2.42649e-15 0)
(3 -1.81794e-15 0)
(3 4.95232e-16 0)
(3 1.10992e-15 0)
(3 8.9824e-16 0)
(3 -5.40379e-16 0)
(3 -2.04396e-15 0)
(3 -2.20682e-15 0)
(3 -2.57983e-15 0)
(3 -2.92586e-15 0)
(3 -3.36178e-15 0)
(3 -2.9131e-15 0)
(3 -2.86521e-15 0)
(3 -2.97718e-15 0)
(3 -2.14603e-15 0)
(3 -9.58551e-16 0)
(3 -2.92761e-16 0)
(3 7.72511e-16 0)
(3 1.69695e-15 0)
(3 1.39957e-15 0)
(3 1.00962e-15 0)
(3 -1.25192e-16 0)
(3 2.95656e-16 0)
(3 7.47017e-16 0)
(3 1.33676e-15 0)
(3 1.8441e-15 0)
(3 1.51822e-15 0)
(3 5.87755e-16 0)
(3 -1.35183e-15 0)
(3 -1.51873e-15 0)
(3 -5.31329e-17 0)
(3 2.14049e-17 0)
(3 2.71538e-16 0)
(3 4.74603e-16 0)
(3 3.78979e-16 0)
(3 -1.26646e-17 0)
(3 -1.82281e-16 0)
(3 -2.8778e-16 0)
(3 -1.71405e-16 0)
(3 -1.52586e-16 0)
(3 -5.29729e-17 0)
(3 6.9009e-17 0)
(3 -9.26994e-17 0)
(3 -3.074e-16 0)
(3 -4.7993e-16 0)
(3 -9.29512e-16 0)
(3 -6.97175e-16 0)
(3 -6.20059e-16 0)
(3 -2.7846e-16 0)
(3 2.66383e-16 0)
(3 1.15837e-16 0)
(3 9.66404e-18 0)
(3 5.22241e-16 0)
(3 1.33641e-15 0)
(3 1.52033e-15 0)
(3 2.00948e-15 0)
(3 1.57005e-15 0)
(3 1.24253e-15 0)
(3 1.59838e-15 0)
(3 2.29222e-15 0)
(3 2.42211e-15 0)
(3 1.83648e-15 0)
(3 8.8346e-16 0)
(3 6.43549e-16 0)
(3 8.09579e-16 0)
(3 5.13918e-16 0)
(3 7.15667e-16 0)
(3 1.02408e-15 0)
(3 7.73511e-17 0)
(3 -1.00194e-15 0)
(3 -1.44543e-15 0)
(3 -1.40327e-15 0)
(3 -2.63959e-16 0)
(3 1.02397e-15 0)
(3 2.23746e-15 0)
(3 2.73054e-15 0)
(3 2.96053e-15 0)
(3 2.73929e-15 0)
(3 1.93761e-15 0)
(3 2.05811e-15 0)
(3 2.42156e-15 0)
(3 1.65639e-15 0)
(3 1.506e-15 0)
(3 1.5196e-15 0)
(3 1.53546e-15 0)
(3 1.70042e-15 0)
(3 1.84259e-15 0)
(3 1.96706e-15 0)
(3 1.91439e-15 0)
(3 2.01198e-15 0)
(3 1.82601e-15 0)
(3 1.61382e-15 0)
(3 1.18018e-15 0)
(3 5.95676e-16 0)
(3 3.1372e-17 0)
(3 -8.15287e-16 0)
(3 -7.00818e-16 0)
(3 -1.7029e-16 0)
(3 1.50968e-16 0)
(3 5.62269e-16 0)
(3 -5.33674e-17 0)
(3 -5.58847e-16 0)
(3 -4.49889e-16 0)
(3 -4.48713e-16 0)
(3 -1.19427e-15 0)
(3 -1.84347e-15 0)
(3 -1.563e-15 0)
(3 -1.95143e-15 0)
(3 -2.35468e-15 0)
(3 -1.82722e-15 0)
(3 -1.18282e-15 0)
(3 -1.33565e-15 0)
(3 -1.02167e-15 0)
(3 -7.6349e-16 0)
(3 -7.14514e-16 0)
(3 -3.01068e-16 0)
(3 8.72913e-16 0)
(3 2.48599e-15 0)
(3 2.3699e-15 0)
(3 7.13021e-16 0)
(3 -3.54187e-17 0)
(3 7.25196e-17 0)
(3 7.73863e-16 0)
(3 1.42011e-15 0)
(3 7.81958e-16 0)
(3 -2.74225e-17 0)
(3 -6.40331e-17 0)
(3 1.03645e-16 0)
(3 3.35864e-17 0)
(3 -3.28603e-17 0)
(3 1.43097e-16 0)
(3 2.46447e-17 0)
(3 -6.01208e-16 0)
(3 -6.41715e-16 0)
(3 -7.5737e-16 0)
(3 -5.93208e-16 0)
(3 -4.86904e-16 0)
(3 -2.85143e-16 0)
(3 -1.81191e-16 0)
(3 -6.83452e-17 0)
(3 -7.3613e-17 0)
(3 -1.90166e-16 0)
(3 -1.25474e-17 0)
(3 2.52092e-16 0)
(3 3.41522e-16 0)
(3 4.298e-16 0)
(3 1.51036e-15 0)
(3 1.67886e-15 0)
(3 1.38473e-15 0)
(3 1.69204e-15 0)
(3 1.46599e-15 0)
(3 9.75637e-16 0)
(3 1.60795e-15 0)
(3 2.15639e-15 0)
(3 1.85088e-15 0)
(3 1.17732e-15 0)
(3 9.03779e-16 0)
(3 3.7606e-16 0)
(3 -4.90397e-16 0)
(3 3.98296e-17 0)
(3 6.58424e-16 0)
(3 9.36377e-16 0)
(3 8.78792e-16 0)
(3 4.47349e-16 0)
(3 -4.19477e-16 0)
(3 -2.86256e-16 0)
(3 -8.49581e-17 0)
(3 1.30873e-15 0)
(3 2.70262e-15 0)
(3 3.69178e-15 0)
(3 3.96382e-15 0)
(3 3.44164e-15 0)
(3 1.63179e-15 0)
(3 6.93889e-16 0)
(3 7.61207e-16 0)
(3 1.3168e-15 0)
(3 4.33023e-16 0)
(3 7.63281e-16 0)
(3 1.88573e-15 0)
(3 2.05224e-15 0)
(3 1.80349e-15 0)
(3 1.83904e-15 0)
(3 2.52366e-15 0)
(3 3.01174e-15 0)
(3 3.59786e-15 0)
(3 2.50873e-15 0)
(3 2.23705e-15 0)
(3 1.23099e-15 0)
(3 4.01404e-16 0)
(3 7.0292e-17 0)
(3 -2.09331e-16 0)
(3 -1.1883e-15 0)
(3 -1.30492e-15 0)
(3 -7.03777e-16 0)
(3 -1.50468e-16 0)
(3 -2.3416e-18 0)
(3 9.92685e-16 0)
(3 1.38025e-15 0)
(3 1.03349e-15 0)
(3 6.42381e-16 0)
(3 5.29233e-16 0)
(3 5.12332e-16 0)
(3 -4.13855e-17 0)
(3 -1.09684e-15 0)
(3 -1.33052e-15 0)
(3 -1.48207e-16 0)
(3 1.11138e-16 0)
(3 4.66931e-16 0)
(3 5.85351e-16 0)
(3 4.76565e-16 0)
(3 -2.91436e-16 0)
(3 -1.35028e-15 0)
(3 -8.24682e-16 0)
(3 4.89961e-16 0)
(3 1.84683e-15 0)
(3 1.79989e-15 0)
(3 1.76998e-15 0)
(3 1.70046e-15 0)
(3 1.5812e-15 0)
(3 1.52463e-15 0)
(3 1.61091e-15 0)
(3 1.50143e-15 0)
(3 5.70727e-17 0)
(3 6.18246e-17 0)
(3 -8.90968e-17 0)
(3 -9.95177e-17 0)
(3 8.68272e-17 0)
(3 -2.38413e-17 0)
(3 -3.82502e-17 0)
(3 -3.42974e-18 0)
(3 7.23157e-17 0)
(3 1.95702e-16 0)
(3 1.72851e-16 0)
(3 2.38718e-16 0)
(3 7.94148e-17 0)
(3 -5.51656e-17 0)
(3 -1.50453e-16 0)
(3 -5.56778e-17 0)
(3 -4.26394e-16 0)
(3 -6.99395e-16 0)
(3 -1.35976e-15 0)
(3 -1.43187e-15 0)
(3 -8.36528e-16 0)
(3 -3.04404e-16 0)
(3 -3.01027e-16 0)
(3 -3.69714e-16 0)
(3 -2.71856e-16 0)
(3 -4.24874e-16 0)
(3 -2.93637e-16 0)
(3 -7.05673e-16 0)
(3 -1.48662e-15 0)
(3 -3.40644e-15 0)
(3 -4.08699e-15 0)
(3 -4.08874e-15 0)
(3 -1.54157e-15 0)
(3 -3.8367e-16 0)
(3 1.06043e-17 0)
(3 1.54388e-15 0)
(3 2.07067e-15 0)
(3 1.23934e-15 0)
(3 1.24152e-15 0)
(3 1.48673e-15 0)
(3 1.60027e-15 0)
(3 2.00131e-15 0)
(3 2.3854e-15 0)
(3 2.87569e-15 0)
(3 2.20065e-15 0)
(3 1.32378e-16 0)
(3 -2.13216e-15 0)
(3 -1.91573e-15 0)
(3 -6.35486e-16 0)
(3 -1.64913e-16 0)
(3 -2.78832e-16 0)
(3 -7.84508e-16 0)
(3 8.83876e-16 0)
(3 1.68009e-15 0)
(3 1.52768e-15 0)
(3 1.37601e-15 0)
(3 1.67399e-15 0)
(3 2.62413e-15 0)
(3 2.19456e-15 0)
(3 1.66179e-15 0)
(3 7.38453e-16 0)
(3 1.06042e-15 0)
(3 1.47469e-15 0)
(3 9.29268e-16 0)
(3 4.86943e-16 0)
(3 1.05397e-15 0)
(3 1.1555e-15 0)
(3 1.12678e-15 0)
(3 1.33203e-15 0)
(3 1.08686e-15 0)
(3 2.11257e-15 0)
(3 1.7821e-15 0)
(3 2.90466e-16 0)
(3 5.7347e-18 0)
(3 1.24862e-16 0)
(3 5.94811e-16 0)
(3 3.86709e-16 0)
(3 -6.67069e-17 0)
(3 2.00285e-16 0)
(3 9.47598e-16 0)
(3 1.10122e-15 0)
(3 1.50459e-15 0)
(3 1.25287e-15 0)
(3 9.73956e-16 0)
(3 1.40696e-15 0)
(3 1.69134e-15 0)
(3 8.3883e-16 0)
(3 3.10619e-17 0)
(3 -7.71647e-17 0)
(3 4.73593e-16 0)
(3 4.55209e-16 0)
(3 7.80675e-16 0)
(3 7.17764e-16 0)
(3 6.23985e-16 0)
(3 1.27446e-15 0)
(3 1.25637e-15 0)
(3 3.01172e-17 0)
(3 -1.54575e-16 0)
(3 -1.76354e-16 0)
(3 -7.61631e-18 0)
(3 1.60352e-16 0)
(3 1.41039e-16 0)
(3 -6.64351e-18 0)
(3 2.91461e-17 0)
(3 7.61338e-16 0)
(3 7.81088e-16 0)
(3 7.12678e-16 0)
(3 4.35823e-16 0)
(3 2.35722e-16 0)
(3 -2.04862e-16 0)
(3 -4.41404e-16 0)
(3 -6.70434e-16 0)
(3 -1.54949e-15 0)
(3 -2.78698e-15 0)
(3 -3.02323e-15 0)
(3 -2.73072e-15 0)
(3 -1.52682e-15 0)
(3 -1.31504e-15 0)
(3 -1.20952e-15 0)
(3 -2.3485e-15 0)
(3 -3.06384e-15 0)
(3 -2.46624e-15 0)
(3 -2.34264e-15 0)
(3 -2.43027e-15 0)
(3 -2.19785e-15 0)
(3 -1.89062e-15 0)
(3 -1.71104e-15 0)
(3 -1.41359e-15 0)
(3 -1.24113e-15 0)
(3 -5.72367e-16 0)
(3 5.47377e-16 0)
(3 1.59026e-15 0)
(3 2.40148e-15 0)
(3 2.16876e-15 0)
(3 2.10644e-15 0)
(3 1.78156e-15 0)
(3 1.58093e-15 0)
(3 5.53665e-16 0)
(3 -7.64761e-16 0)
(3 -1.08993e-15 0)
(3 -1.53396e-15 0)
(3 -2.28858e-15 0)
(3 -2.61701e-15 0)
(3 -1.71165e-15 0)
(3 -1.08259e-15 0)
(3 -4.46536e-16 0)
(3 3.85905e-16 0)
(3 5.84872e-16 0)
(3 3.91665e-16 0)
(3 1.36796e-16 0)
(3 -1.06074e-16 0)
(3 2.56481e-16 0)
(3 7.61621e-16 0)
(3 1.3314e-15 0)
(3 1.49008e-15 0)
(3 1.84296e-15 0)
(3 8.32407e-16 0)
(3 5.07105e-16 0)
(3 8.87742e-16 0)