/*--------------------------------*- C++ -*----------------------------------*\
  =========                 |
  \\      /  F ield         | OpenFOAM: The Open Source CFD Toolbox
   \\    /   O peration     | Website:  https://openfoam.org
    \\  /    A nd           | Version:  7
     \\/     M anipulation  |
\*---------------------------------------------------------------------------*/
FoamFile
{
    version     2.0;
    format      ascii;
    class       volVectorField;
    location    "0.5";
    object      U;
}
// * * * * * * * * * * * * * * * * * * * * * * * * * * * * * * * * * * * * * //

dimensions      [0 1 -1 0 0 0 0];

internalField   nonuniform List<vector> 
73728
(
(3 1.36098e-17 0)
(3 3.99205e-18 0)
(3 -2.39694e-16 0)
(3 -4.1457e-16 0)
(3 -2.17083e-16 0)
(3 1.13346e-17 0)
(3 1.66894e-16 0)
(3 2.7316e-16 0)
(3 4.2552e-16 0)
(3 9.17247e-16 0)
(3 1.07295e-15 0)
(3 5.77055e-16 0)
(3 1.4335e-16 0)
(3 1.27547e-16 0)
(3 -3.77102e-16 0)
(3 7.5458e-16 0)
(3 2.17444e-15 0)
(3 2.16031e-15 0)
(3 1.5672e-15 0)
(3 1.03873e-15 0)
(3 1.23689e-15 0)
(3 1.78195e-15 0)
(3 1.91047e-15 0)
(3 1.63978e-15 0)
(3 2.10435e-15 0)
(3 2.95177e-15 0)
(3 2.28327e-15 0)
(3 2.21637e-15 0)
(3 2.64303e-15 0)
(3 2.86905e-15 0)
(3 2.54736e-15 0)
(3 2.50348e-15 0)
(3 1.82065e-15 0)
(3 1.72474e-15 0)
(3 1.37655e-15 0)
(3 6.13714e-16 0)
(3 5.72517e-16 0)
(3 9.21538e-16 0)
(3 8.99116e-16 0)
(3 4.63243e-16 0)
(3 5.22513e-16 0)
(3 3.03027e-16 0)
(3 1.27361e-16 0)
(3 -1.69314e-17 0)
(3 -3.74501e-16 0)
(3 -8.25647e-16 0)
(3 -1.2657e-15 0)
(3 -1.42882e-15 0)
(3 -1.28699e-15 0)
(3 -9.65086e-17 0)
(3 -1.5019e-15 0)
(3 -1.96715e-15 0)
(3 -1.63162e-15 0)
(3 -1.57003e-15 0)
(3 -1.10258e-15 0)
(3 -6.27052e-16 0)
(3 5.77419e-16 0)
(3 1.64941e-15 0)
(3 1.08528e-15 0)
(3 7.05964e-16 0)
(3 6.51327e-16 0)
(3 7.46381e-16 0)
(3 1.09551e-15 0)
(3 1.34708e-15 0)
(3 6.41452e-16 0)
(3 2.56127e-16 0)
(3 -1.75249e-16 0)
(3 -4.2276e-16 0)
(3 -2.13423e-16 0)
(3 -9.39574e-17 0)
(3 2.66254e-16 0)
(3 1.76173e-15 0)
(3 2.27238e-15 0)
(3 1.90863e-15 0)
(3 4.26137e-16 0)
(3 -2.10522e-16 0)
(3 -9.06529e-17 0)
(3 9.61692e-17 0)
(3 5.57647e-16 0)
(3 9.53021e-16 0)
(3 9.65958e-16 0)
(3 9.02928e-16 0)
(3 6.98922e-16 0)
(3 2.69347e-16 0)
(3 -6.53357e-16 0)
(3 -1.45141e-15 0)
(3 -6.76721e-16 0)
(3 -3.56873e-16 0)
(3 -6.16585e-16 0)
(3 -2.70425e-16 0)
(3 -7.5921e-16 0)
(3 -2.91643e-16 0)
(3 9.56014e-17 0)
(3 1.23685e-16 0)
(3 4.79155e-16 0)
(3 2.15676e-16 0)
(3 -1.9129e-16 0)
(3 -1.90545e-16 0)
(3 -2.15353e-16 0)
(3 -1.15827e-16 0)
(3 -3.91217e-16 0)
(3 8.54906e-17 0)
(3 3.93107e-16 0)
(3 7.6177e-16 0)
(3 1.08698e-15 0)
(3 1.04525e-15 0)
(3 9.29684e-16 0)
(3 7.56872e-16 0)
(3 8.73611e-16 0)
(3 1.9684e-15 0)
(3 1.64549e-15 0)
(3 2.14443e-15 0)
(3 3.70605e-15 0)
(3 3.90716e-15 0)
(3 2.98392e-15 0)
(3 2.69911e-15 0)
(3 3.10106e-15 0)
(3 3.39853e-15 0)
(3 3.11574e-15 0)
(3 2.83173e-15 0)
(3 3.00942e-15 0)
(3 3.17413e-15 0)
(3 2.92819e-15 0)
(3 2.56904e-15 0)
(3 2.38495e-15 0)
(3 2.1996e-15 0)
(3 2.16048e-15 0)
(3 1.3586e-15 0)
(3 5.64374e-16 0)
(3 6.23704e-16 0)
(3 6.91724e-16 0)
(3 1.50689e-16 0)
(3 5.67295e-16 0)
(3 8.42882e-16 0)
(3 5.77679e-17 0)
(3 -3.25141e-16 0)
(3 2.72945e-16 0)
(3 5.18264e-16 0)
(3 5.24151e-16 0)
(3 3.1339e-16 0)
(3 -4.2033e-17 0)
(3 -1.98645e-16 0)
(3 -8.33776e-16 0)
(3 -8.31366e-16 0)
(3 -8.87447e-16 0)
(3 2.72615e-16 0)
(3 2.10726e-16 0)
(3 -1.77465e-15 0)
(3 -2.23287e-15 0)
(3 -2.14521e-15 0)
(3 -1.31469e-15 0)
(3 -1.67102e-16 0)
(3 1.89479e-15 0)
(3 3.66865e-15 0)
(3 3.11013e-15 0)
(3 2.859e-15 0)
(3 3.06127e-15 0)
(3 3.00377e-15 0)
(3 2.49988e-15 0)
(3 2.34189e-15 0)
(3 1.66638e-15 0)
(3 1.23529e-15 0)
(3 6.50826e-16 0)
(3 -2.56116e-16 0)
(3 -6.69778e-16 0)
(3 -2.11543e-16 0)
(3 9.37261e-16 0)
(3 2.11836e-15 0)
(3 2.86694e-15 0)
(3 3.12347e-15 0)
(3 2.03187e-15 0)
(3 1.29872e-15 0)
(3 1.12412e-15 0)
(3 1.46969e-15 0)
(3 3.45196e-15 0)
(3 4.91606e-15 0)
(3 5.58685e-15 0)
(3 4.72145e-15 0)
(3 3.53097e-15 0)
(3 9.00293e-16 0)
(3 -1.49301e-15 0)
(3 -3.32013e-15 0)
(3 -2.9383e-15 0)
(3 -1.55364e-15 0)
(3 -9.64324e-16 0)
(3 -1.04401e-15 0)
(3 -1.06053e-15 0)
(3 -5.79659e-16 0)
(3 3.43353e-16 0)
(3 4.31196e-16 0)
(3 1.421e-16 0)
(3 5.30346e-16 0)
(3 -3.99479e-16 0)
(3 -6.83437e-16 0)
(3 -5.73022e-16 0)
(3 -2.3865e-16 0)
(3 -8.93827e-16 0)
(3 -7.19659e-16 0)
(3 -2.62954e-16 0)
(3 7.62459e-16 0)
(3 7.67737e-16 0)
(3 2.21937e-16 0)
(3 -2.21028e-16 0)
(3 1.79515e-16 0)
(3 1.5728e-16 0)
(3 1.33034e-15 0)
(3 2.25752e-15 0)
(3 3.01743e-15 0)
(3 2.49095e-15 0)
(3 2.38893e-15 0)
(3 2.56989e-15 0)
(3 3.54153e-15 0)
(3 2.98776e-15 0)
(3 2.82276e-15 0)
(3 2.70144e-15 0)
(3 2.93803e-15 0)
(3 2.74908e-15 0)
(3 2.532e-15 0)
(3 2.63182e-15 0)
(3 2.21685e-15 0)
(3 1.77263e-15 0)
(3 1.93746e-15 0)
(3 2.40685e-15 0)
(3 2.32189e-15 0)
(3 1.8569e-15 0)
(3 1.14338e-15 0)
(3 1.62662e-16 0)
(3 2.32855e-16 0)
(3 2.23278e-16 0)
(3 -4.33513e-16 0)
(3 -9.06466e-16 0)
(3 4.26902e-16 0)
(3 1.0668e-15 0)
(3 1.10534e-15 0)
(3 1.72672e-15 0)
(3 1.86138e-15 0)
(3 1.89863e-15 0)
(3 1.94448e-15 0)
(3 1.63225e-15 0)
(3 2.87484e-16 0)
(3 -1.36717e-16 0)
(3 -2.18312e-16 0)
(3 -1.42534e-17 0)
(3 -3.73448e-16 0)
(3 -6.15424e-16 0)
(3 -1.06987e-15 0)
(3 -8.79633e-16 0)
(3 -3.38007e-16 0)
(3 1.85027e-15 0)
(3 2.96202e-15 0)
(3 3.60171e-15 0)
(3 4.3889e-15 0)
(3 4.60151e-15 0)
(3 5.28859e-15 0)
(3 4.347e-15 0)
(3 3.58838e-15 0)
(3 3.52377e-15 0)
(3 2.83244e-15 0)
(3 2.09549e-15 0)
(3 -1.19105e-16 0)
(3 -2.30265e-15 0)
(3 -1.89903e-15 0)
(3 -6.05546e-16 0)
(3 6.82964e-17 0)
(3 4.65817e-16 0)
(3 5.61919e-16 0)
(3 2.51142e-16 0)
(3 2.79967e-17 0)
(3 -2.30637e-16 0)
(3 2.84849e-15 0)
(3 4.16066e-15 0)
(3 5.53709e-15 0)
(3 5.80779e-15 0)
(3 5.39369e-15 0)
(3 4.1542e-15 0)
(3 2.43246e-15 0)
(3 6.39574e-16 0)
(3 -1.05906e-15 0)
(3 -2.40942e-15 0)
(3 -2.89261e-15 0)
(3 -2.40636e-15 0)
(3 -1.9841e-15 0)
(3 -1.25496e-15 0)
(3 1.65235e-17 0)
(3 1.23261e-16 0)
(3 4.27683e-16 0)
(3 1.76648e-16 0)
(3 1.93108e-15 0)
(3 -4.105e-17 0)
(3 -3.82183e-17 0)
(3 -6.77881e-16 0)
(3 -7.9204e-16 0)
(3 -8.72829e-16 0)
(3 -8.79061e-16 0)
(3 -5.0697e-16 0)
(3 -1.14884e-16 0)
(3 1.48357e-16 0)
(3 3.11379e-16 0)
(3 2.29567e-16 0)
(3 3.35662e-16 0)
(3 4.18058e-16 0)
(3 2.89592e-16 0)
(3 8.02138e-16 0)
(3 2.15908e-15 0)
(3 2.89296e-15 0)
(3 3.16941e-15 0)
(3 3.33684e-15 0)
(3 3.20058e-15 0)
(3 3.23266e-15 0)
(3 2.96483e-15 0)
(3 2.20936e-15 0)
(3 2.30228e-15 0)
(3 2.19336e-15 0)
(3 1.9123e-15 0)
(3 1.45154e-15 0)
(3 1.0054e-15 0)
(3 1.39727e-15 0)
(3 2.08994e-15 0)
(3 2.49978e-15 0)
(3 2.56344e-15 0)
(3 2.6705e-15 0)
(3 2.61336e-15 0)
(3 2.12172e-15 0)
(3 1.57457e-15 0)
(3 3.40475e-16 0)
(3 8.32124e-17 0)
(3 9.66449e-16 0)
(3 1.97218e-15 0)
(3 2.87088e-15 0)
(3 2.69296e-15 0)
(3 2.58369e-15 0)
(3 2.44412e-15 0)
(3 2.17998e-15 0)
(3 1.31841e-15 0)
(3 3.87051e-16 0)
(3 -1.77772e-16 0)
(3 -1.15056e-15 0)
(3 -1.57074e-15 0)
(3 -2.54764e-15 0)
(3 -1.08966e-15 0)
(3 -5.81356e-16 0)
(3 -3.44101e-16 0)
(3 -1.14053e-17 0)
(3 1.02186e-15 0)
(3 1.40287e-15 0)
(3 1.98316e-15 0)
(3 3.40122e-15 0)
(3 3.73923e-15 0)
(3 3.65464e-15 0)
(3 4.06797e-15 0)
(3 4.54886e-15 0)
(3 4.45133e-15 0)
(3 3.66657e-15 0)
(3 1.33842e-15 0)
(3 -6.98974e-16 0)
(3 -2.61489e-15 0)
(3 -2.88955e-15 0)
(3 -3.02101e-15 0)
(3 -3.58826e-15 0)
(3 -4.23176e-15 0)
(3 -3.94151e-15 0)
(3 -3.18083e-15 0)
(3 -2.69834e-15 0)
(3 -2.53245e-15 0)
(3 -2.10983e-15 0)
(3 -8.13758e-16 0)
(3 -4.74552e-16 0)
(3 4.3745e-16 0)
(3 8.13091e-16 0)
(3 1.23139e-15 0)
(3 1.38539e-15 0)
(3 4.75734e-16 0)
(3 -9.36673e-16 0)
(3 -2.08678e-15 0)
(3 -2.066e-15 0)
(3 -3.20793e-15 0)
(3 -3.70577e-15 0)
(3 -3.07768e-15 0)
(3 -7.97241e-16 0)
(3 2.81228e-16 0)
(3 6.0661e-16 0)
(3 1.06822e-15 0)
(3 1.57117e-15 0)
(3 1.41598e-15 0)
(3 1.14663e-16 0)
(3 1.72894e-16 0)
(3 8.66264e-18 0)
(3 -3.1533e-16 0)
(3 -1.16453e-16 0)
(3 -7.39391e-17 0)
(3 -3.57036e-16 0)
(3 -4.22221e-16 0)
(3 -3.98054e-18 0)
(3 1.17369e-15 0)
(3 9.93358e-16 0)
(3 1.70128e-15 0)
(3 1.95374e-15 0)
(3 1.51491e-15 0)
(3 1.57468e-15 0)
(3 1.50495e-15 0)
(3 2.21564e-15 0)
(3 3.31788e-15 0)
(3 4.20242e-15 0)
(3 3.01877e-15 0)
(3 2.81142e-15 0)
(3 1.94605e-15 0)
(3 1.19013e-15 0)
(3 1.62998e-16 0)
(3 -1.59407e-16 0)
(3 -8.83501e-17 0)
(3 -3.3428e-16 0)
(3 6.27678e-16 0)
(3 1.39286e-15 0)
(3 1.92016e-15 0)
(3 2.30386e-15 0)
(3 2.47991e-15 0)
(3 1.98692e-15 0)
(3 2.2635e-15 0)
(3 2.48957e-15 0)
(3 1.83305e-15 0)
(3 4.61551e-16 0)
(3 7.64564e-16 0)
(3 1.40464e-15 0)
(3 1.00088e-15 0)
(3 1.76792e-15 0)
(3 2.02148e-15 0)
(3 2.5032e-15 0)
(3 2.21613e-15 0)
(3 1.1811e-15 0)
(3 -5.25279e-16 0)
(3 -8.61882e-16 0)
(3 -8.93399e-16 0)
(3 -1.2922e-15 0)
(3 -1.96648e-15 0)
(3 -2.42071e-15 0)
(3 -1.668e-15 0)
(3 -3.0018e-16 0)
(3 1.88738e-16 0)
(3 1.27405e-15 0)
(3 1.39828e-15 0)
(3 1.07695e-15 0)
(3 1.40488e-15 0)
(3 1.93984e-15 0)
(3 2.24306e-15 0)
(3 3.54344e-15 0)
(3 3.64654e-15 0)
(3 4.17821e-15 0)
(3 3.30093e-15 0)
(3 2.34457e-15 0)
(3 1.82657e-16 0)
(3 -1.78591e-15 0)
(3 -2.18126e-15 0)
(3 -2.56857e-15 0)
(3 -3.39915e-15 0)
(3 -3.94213e-15 0)
(3 -3.97602e-15 0)
(3 -3.66221e-15 0)
(3 -3.31145e-15 0)
(3 -2.58405e-15 0)
(3 -5.37397e-16 0)
(3 9.26779e-17 0)
(3 -3.88681e-16 0)
(3 -6.751e-16 0)
(3 -5.74165e-16 0)
(3 -6.71832e-16 0)
(3 -4.91352e-16 0)
(3 -2.67368e-18 0)
(3 1.68028e-16 0)
(3 -1.355e-15 0)
(3 -2.27543e-15 0)
(3 -2.27504e-15 0)
(3 -2.05974e-15 0)
(3 -2.19079e-15 0)
(3 -1.76065e-15 0)
(3 -4.32977e-16 0)
(3 4.57397e-16 0)
(3 1.12792e-15 0)
(3 1.10174e-15 0)
(3 1.33703e-15 0)
(3 6.04277e-16 0)
(3 -2.85078e-17 0)
(3 -3.47977e-16 0)
(3 -2.62644e-16 0)
(3 -1.60531e-16 0)
(3 -6.36175e-17 0)
(3 2.57317e-16 0)
(3 3.70786e-16 0)
(3 -5.76451e-17 0)
(3 3.33203e-16 0)
(3 7.3135e-16 0)
(3 1.40706e-15 0)
(3 7.87993e-16 0)
(3 1.37569e-16 0)
(3 8.20098e-16 0)
(3 1.20154e-15 0)
(3 3.83724e-16 0)
(3 3.36541e-16 0)
(3 6.12234e-16 0)
(3 6.98306e-16 0)
(3 9.61266e-16 0)
(3 1.27173e-15 0)
(3 9.11936e-16 0)
(3 6.80282e-16 0)
(3 -1.65511e-16 0)
(3 -3.09284e-16 0)
(3 -9.96592e-17 0)
(3 5.64961e-16 0)
(3 1.14508e-15 0)
(3 1.33407e-15 0)
(3 1.5329e-15 0)
(3 1.61667e-15 0)
(3 2.11885e-15 0)
(3 2.12534e-15 0)
(3 1.70978e-15 0)
(3 1.35157e-15 0)
(3 8.90969e-16 0)
(3 7.93573e-16 0)
(3 9.41602e-16 0)
(3 1.89103e-15 0)
(3 2.22065e-15 0)
(3 1.92523e-15 0)
(3 2.02561e-15 0)
(3 1.73213e-15 0)
(3 7.50632e-16 0)
(3 -5.71921e-16 0)
(3 -5.85695e-16 0)
(3 -1.14001e-15 0)
(3 -1.17768e-15 0)
(3 -8.39156e-16 0)
(3 -9.37217e-16 0)
(3 -9.26391e-16 0)
(3 -7.12227e-16 0)
(3 1.51856e-16 0)
(3 1.26624e-15 0)
(3 1.81555e-15 0)
(3 2.45681e-15 0)
(3 3.08314e-15 0)
(3 3.01033e-15 0)
(3 3.091e-15 0)
(3 2.86241e-15 0)
(3 2.20003e-15 0)
(3 2.36955e-15 0)
(3 2.31377e-15 0)
(3 1.69324e-15 0)
(3 1.83467e-15 0)
(3 1.41393e-15 0)
(3 2.9488e-16 0)
(3 -7.54264e-17 0)
(3 -1.5141e-15 0)
(3 -1.91261e-15 0)
(3 -1.31547e-15 0)
(3 -1.1007e-15 0)
(3 -1.37753e-15 0)
(3 -1.30521e-15 0)
(3 -1.29465e-15 0)
(3 -1.74385e-16 0)
(3 1.58164e-15 0)
(3 2.40358e-15 0)
(3 2.47309e-15 0)
(3 9.38488e-16 0)
(3 3.57685e-17 0)
(3 2.71749e-18 0)
(3 -3.89702e-16 0)
(3 -1.30682e-15 0)
(3 -1.47856e-15 0)
(3 -1.58095e-15 0)
(3 -2.04351e-15 0)
(3 -1.35182e-15 0)
(3 -8.85233e-16 0)
(3 -8.8028e-16 0)
(3 -5.11499e-16 0)
(3 2.72837e-16 0)
(3 1.81536e-15 0)
(3 1.39772e-15 0)
(3 4.23699e-16 0)
(3 -2.89767e-16 0)
(3 -2.02533e-16 0)
(3 -4.45049e-16 0)
(3 -4.5644e-16 0)
(3 -1.44707e-16 0)
(3 4.58139e-16 0)
(3 7.38856e-16 0)
(3 7.96033e-16 0)
(3 4.63881e-16 0)
(3 8.68322e-16 0)
(3 8.70258e-16 0)
(3 1.06079e-15 0)
(3 5.41552e-16 0)
(3 -1.91437e-16 0)
(3 -3.57046e-16 0)
(3 -8.17114e-16 0)
(3 -2.03026e-15 0)
(3 -2.60678e-15 0)
(3 -3.29731e-15 0)
(3 -3.34845e-15 0)
(3 -1.71939e-15 0)
(3 -8.97921e-16 0)
(3 -4.12777e-17 0)
(3 -4.57595e-16 0)
(3 6.60752e-17 0)
(3 3.67936e-16 0)
(3 6.95754e-16 0)
(3 4.30728e-16 0)
(3 -4.61146e-17 0)
(3 1.32148e-16 0)
(3 3.52605e-16 0)
(3 3.72514e-16 0)
(3 4.17915e-16 0)
(3 5.3148e-16 0)
(3 4.16445e-16 0)
(3 2.97588e-16 0)
(3 1.05337e-15 0)
(3 2.57646e-15 0)
(3 3.66707e-15 0)
(3 4.06653e-15 0)
(3 4.19773e-15 0)
(3 3.42384e-15 0)
(3 2.44452e-15 0)
(3 1.30034e-15 0)
(3 4.19784e-16 0)
(3 -5.17958e-16 0)
(3 -1.85883e-15 0)
(3 -1.61131e-15 0)
(3 -1.56302e-15 0)
(3 -1.38818e-15 0)
(3 -1.41682e-15 0)
(3 -1.2174e-15 0)
(3 -8.59329e-16 0)
(3 -3.19087e-16 0)
(3 3.64272e-16 0)
(3 1.14434e-15 0)
(3 2.54379e-15 0)
(3 3.23598e-15 0)
(3 3.22283e-15 0)
(3 2.84354e-15 0)
(3 2.4197e-15 0)
(3 1.262e-15 0)
(3 6.87123e-16 0)
(3 -7.16846e-17 0)
(3 8.67973e-16 0)
(3 1.06681e-15 0)
(3 2.26332e-15 0)
(3 2.59185e-15 0)
(3 3.44334e-15 0)
(3 2.10248e-15 0)
(3 1.77735e-15 0)
(3 1.2901e-15 0)
(3 2.97159e-16 0)
(3 -3.94172e-16 0)
(3 -4.32399e-16 0)
(3 -3.25542e-16 0)
(3 -9.49036e-17 0)
(3 1.66097e-15 0)
(3 3.01469e-15 0)
(3 2.50384e-15 0)
(3 2.00847e-16 0)
(3 -1.43514e-15 0)
(3 -2.48204e-15 0)
(3 -2.60562e-15 0)
(3 -2.7287e-15 0)
(3 -2.22693e-15 0)
(3 -1.03175e-15 0)
(3 -1.15743e-15 0)
(3 -4.79461e-16 0)
(3 1.14907e-15 0)
(3 4.40592e-16 0)
(3 1.79356e-16 0)
(3 4.99091e-16 0)
(3 1.26866e-15 0)
(3 1.01098e-15 0)
(3 1.96562e-16 0)
(3 -9.31707e-16 0)
(3 -2.58293e-16 0)
(3 -3.17382e-16 0)
(3 -1.20011e-16 0)
(3 -5.18985e-16 0)
(3 -2.61714e-16 0)
(3 -4.51237e-16 0)
(3 -6.56991e-16 0)
(3 -3.19586e-16 0)
(3 2.85889e-17 0)
(3 3.80162e-16 0)
(3 7.01966e-16 0)
(3 9.66591e-16 0)
(3 9.31923e-16 0)
(3 4.62942e-16 0)
(3 -8.29409e-16 0)
(3 -2.01001e-15 0)
(3 -2.53824e-15 0)
(3 -3.75879e-15 0)
(3 -3.8192e-15 0)
(3 -3.59216e-15 0)
(3 -3.46109e-15 0)
(3 -3.10444e-15 0)
(3 -2.41691e-15 0)
(3 -1.3186e-15 0)
(3 2.75873e-16 0)
(3 4.50231e-16 0)
(3 5.60299e-16 0)
(3 4.34844e-16 0)
(3 3.69694e-16 0)
(3 2.96083e-16 0)
(3 5.79917e-16 0)
(3 2.64563e-17 0)
(3 -7.83249e-16 0)
(3 -1.29143e-15 0)
(3 -1.38581e-15 0)
(3 -2.12178e-16 0)
(3 1.41836e-15 0)
(3 2.43463e-15 0)
(3 3.02685e-15 0)
(3 2.81075e-15 0)
(3 2.78206e-15 0)
(3 2.7989e-15 0)
(3 2.46359e-15 0)
(3 1.54717e-15 0)
(3 1.02294e-16 0)
(3 -8.16111e-16 0)
(3 -7.41922e-17 0)
(3 -1.02829e-16 0)
(3 -5.52676e-16 0)
(3 -5.13016e-16 0)
(3 1.79956e-17 0)
(3 2.11113e-17 0)
(3 4.81019e-16 0)
(3 4.20518e-16 0)
(3 1.27004e-15 0)
(3 7.86076e-16 0)
(3 9.62495e-16 0)
(3 -7.49415e-17 0)
(3 -1.69712e-15 0)
(3 -1.27664e-15 0)
(3 -8.92992e-16 0)
(3 -8.92892e-16 0)
(3 -1.15467e-15 0)
(3 -7.7009e-16 0)
(3 3.30179e-16 0)
(3 1.67064e-15 0)
(3 2.53598e-15 0)
(3 2.83439e-15 0)
(3 2.9317e-15 0)
(3 3.346e-15 0)
(3 3.40569e-15 0)
(3 2.79362e-15 0)
(3 1.31893e-15 0)
(3 8.53593e-16 0)
(3 9.59092e-16 0)
(3 1.23968e-15 0)
(3 1.10581e-15 0)
(3 1.38702e-15 0)
(3 1.29399e-15 0)
(3 -4.70399e-16 0)
(3 -2.66968e-15 0)
(3 -3.29714e-15 0)
(3 -3.00923e-15 0)
(3 -2.84412e-15 0)
(3 -2.26368e-15 0)
(3 -4.20175e-16 0)
(3 -3.47723e-17 0)
(3 6.86177e-16 0)
(3 1.74955e-15 0)
(3 1.92962e-15 0)
(3 1.01012e-15 0)
(3 2.61514e-16 0)
(3 -4.2926e-16 0)
(3 5.72305e-16 0)
(3 8.88412e-16 0)
(3 1.2257e-15 0)
(3 2.01803e-17 0)
(3 1.77493e-16 0)
(3 -2.78891e-17 0)
(3 2.27796e-16 0)
(3 7.31699e-17 0)
(3 -4.23828e-16 0)
(3 -4.19434e-16 0)
(3 -3.9863e-16 0)
(3 -7.00444e-16 0)
(3 -9.08055e-16 0)
(3 -4.47084e-16 0)
(3 -1.83321e-16 0)
(3 -1.18146e-16 0)
(3 4.37774e-16 0)
(3 4.3266e-16 0)
(3 8.36404e-16 0)
(3 3.69848e-16 0)
(3 -3.05098e-16 0)
(3 -1.08164e-15 0)
(3 -1.75192e-15 0)
(3 -2.27658e-15 0)
(3 -2.64888e-15 0)
(3 -1.88136e-15 0)
(3 -1.20319e-15 0)
(3 4.77633e-17 0)
(3 1.04631e-15 0)
(3 1.69788e-15 0)
(3 1.79494e-15 0)
(3 1.211e-15 0)
(3 1.1092e-15 0)
(3 6.29273e-16 0)
(3 4.24415e-16 0)
(3 -8.86338e-18 0)
(3 -4.33673e-16 0)
(3 -9.37183e-16 0)
(3 -9.18966e-16 0)
(3 -5.3322e-16 0)
(3 -4.76885e-19 0)
(3 6.61664e-16 0)
(3 1.41538e-15 0)
(3 2.14176e-15 0)
(3 2.5536e-15 0)
(3 1.69066e-15 0)
(3 1.00756e-15 0)
(3 1.03499e-15 0)
(3 3.10877e-15 0)
(3 3.55515e-15 0)
(3 1.69238e-15 0)
(3 -1.03774e-16 0)
(3 -1.70753e-16 0)
(3 1.38771e-16 0)
(3 9.15332e-16 0)
(3 1.50702e-15 0)
(3 2.19752e-15 0)
(3 2.52424e-15 0)
(3 1.1479e-15 0)
(3 -2.55598e-16 0)
(3 -1.66398e-15 0)
(3 -2.07269e-15 0)
(3 -2.56544e-15 0)
(3 -1.99151e-15 0)
(3 -1.98212e-15 0)
(3 -1.62849e-15 0)
(3 -1.02773e-15 0)
(3 -3.18298e-16 0)
(3 -3.21855e-16 0)
(3 5.6478e-17 0)
(3 6.524e-16 0)
(3 1.14966e-15 0)
(3 1.65299e-15 0)
(3 2.38407e-15 0)
(3 2.99152e-15 0)
(3 3.57962e-15 0)
(3 3.32835e-15 0)
(3 1.70721e-15 0)
(3 1.24222e-15 0)
(3 -1.05284e-15 0)
(3 -1.9794e-15 0)
(3 -1.61841e-15 0)
(3 -2.21125e-15 0)
(3 -2.101e-15 0)
(3 -2.11595e-15 0)
(3 -2.45901e-15 0)
(3 -2.44704e-15 0)
(3 -1.94517e-15 0)
(3 3.99895e-16 0)
(3 1.50725e-15 0)
(3 1.96508e-15 0)
(3 1.57315e-15 0)
(3 1.38454e-15 0)
(3 1.2281e-15 0)
(3 1.27322e-16 0)
(3 -1.55562e-15 0)
(3 -2.1669e-15 0)
(3 -2.0769e-15 0)
(3 -1.304e-15 0)
(3 6.24349e-17 0)
(3 2.78775e-16 0)
(3 1.6041e-16 0)
(3 7.89532e-16 0)
(3 1.43485e-15 0)
(3 1.47915e-15 0)
(3 1.53288e-15 0)
(3 1.30826e-15 0)
(3 1.05187e-15 0)
(3 4.12612e-16 0)
(3 -8.67821e-16 0)
(3 -1.56235e-15 0)
(3 -1.642e-15 0)
(3 -6.49551e-16 0)
(3 4.61621e-16 0)
(3 1.63522e-15 0)
(3 1.95679e-15 0)
(3 1.28456e-15 0)
(3 4.76362e-16 0)
(3 -5.16834e-16 0)
(3 -6.34119e-16 0)
(3 -2.38868e-16 0)
(3 3.16662e-16 0)
(3 2.51386e-16 0)
(3 -2.4318e-16 0)
(3 -1.55499e-16 0)
(3 -5.37865e-17 0)
(3 -1.39376e-16 0)
(3 -1.98639e-16 0)
(3 3.9499e-16 0)
(3 7.08942e-16 0)
(3 7.36119e-16 0)
(3 1.74058e-16 0)
(3 -2.73355e-16 0)
(3 -7.9311e-16 0)
(3 -1.16273e-15 0)
(3 -9.33519e-16 0)
(3 -6.24838e-16 0)
(3 -3.74112e-16 0)
(3 1.31842e-16 0)
(3 4.10969e-16 0)
(3 8.82589e-16 0)
(3 2.03534e-15 0)
(3 2.80243e-15 0)
(3 4.10443e-15 0)
(3 4.92574e-15 0)
(3 2.82418e-15 0)
(3 1.30775e-16 0)
(3 -3.55173e-16 0)
(3 7.4684e-16 0)
(3 1.04657e-15 0)
(3 1.76351e-15 0)
(3 1.30147e-15 0)
(3 1.51458e-15 0)
(3 2.10119e-15 0)
(3 9.44853e-16 0)
(3 -4.36711e-17 0)
(3 -7.2788e-16 0)
(3 -1.09619e-15 0)
(3 -1.75824e-15 0)
(3 -1.88755e-15 0)
(3 -2.49384e-15 0)
(3 -1.38152e-15 0)
(3 -1.52697e-15 0)
(3 -1.59168e-15 0)
(3 -1.14793e-15 0)
(3 -8.66566e-16 0)
(3 4.32568e-16 0)
(3 6.68575e-16 0)
(3 1.29495e-15 0)
(3 1.67109e-15 0)
(3 2.874e-15 0)
(3 5.01378e-15 0)
(3 5.52808e-15 0)
(3 4.02258e-15 0)
(3 7.50808e-16 0)
(3 -1.07933e-15 0)
(3 -3.37238e-15 0)
(3 -4.36624e-15 0)
(3 -4.43117e-15 0)
(3 -4.43536e-15 0)
(3 -3.96774e-15 0)
(3 -2.77298e-15 0)
(3 -1.58575e-15 0)
(3 -3.07557e-16 0)
(3 1.62135e-15 0)
(3 2.17025e-15 0)
(3 2.59556e-15 0)
(3 2.05302e-15 0)
(3 9.01842e-16 0)
(3 2.53832e-16 0)
(3 -7.86031e-17 0)
(3 -5.27673e-16 0)
(3 -1.86842e-15 0)
(3 -2.78573e-15 0)
(3 -3.13668e-15 0)
(3 9.88707e-17 0)
(3 3.16233e-17 0)
(3 2.79159e-16 0)
(3 2.2267e-16 0)
(3 2.94327e-16 0)
(3 1.34548e-15 0)
(3 1.80423e-15 0)
(3 1.72697e-15 0)
(3 2.08315e-15 0)
(3 1.89638e-15 0)
(3 7.72732e-16 0)
(3 -4.36249e-16 0)
(3 -3.31982e-16 0)
(3 -1.1248e-15 0)
(3 -1.18998e-15 0)
(3 -1.06075e-15 0)
(3 -1.0968e-15 0)
(3 -1.66396e-15 0)
(3 -1.69682e-15 0)
(3 -1.47928e-15 0)
(3 -1.09521e-15 0)
(3 -1.63939e-16 0)
(3 1.90861e-18 0)
(3 1.65431e-16 0)
(3 -2.86935e-16 0)
(3 -7.58009e-16 0)
(3 -8.6251e-16 0)
(3 -6.42001e-16 0)
(3 -4.6418e-16 0)
(3 -7.06843e-16 0)
(3 -6.86644e-16 0)
(3 -3.00637e-16 0)
(3 -7.36916e-17 0)
(3 5.28627e-17 0)
(3 -2.63147e-16 0)
(3 -8.4993e-16 0)
(3 -1.54746e-15 0)
(3 -2.0006e-15 0)
(3 -1.91592e-15 0)
(3 -1.19156e-15 0)
(3 -2.6254e-16 0)
(3 1.59224e-16 0)
(3 1.52033e-15 0)
(3 3.75864e-15 0)
(3 5.13233e-15 0)
(3 6.24349e-15 0)
(3 5.95346e-15 0)
(3 4.42895e-15 0)
(3 3.39328e-15 0)
(3 2.45528e-15 0)
(3 3.14539e-15 0)
(3 3.41993e-15 0)
(3 2.68243e-15 0)
(3 5.14192e-16 0)
(3 -2.40881e-16 0)
(3 -8.37043e-16 0)
(3 -1.27588e-15 0)
(3 -1.56573e-15 0)
(3 -1.73331e-15 0)
(3 -1.25694e-15 0)
(3 -8.53715e-16 0)
(3 -1.31052e-15 0)
(3 -1.86994e-15 0)
(3 -1.52185e-15 0)
(3 -1.37542e-15 0)
(3 -3.70352e-16 0)
(3 1.10594e-15 0)
(3 1.90532e-15 0)
(3 2.83008e-15 0)
(3 4.00636e-15 0)
(3 4.14298e-15 0)
(3 5.32576e-15 0)
(3 5.37785e-15 0)
(3 2.71872e-15 0)
(3 6.73834e-16 0)
(3 -7.37365e-16 0)
(3 -2.67494e-15 0)
(3 -4.46581e-15 0)
(3 -4.94046e-15 0)
(3 -3.7984e-15 0)
(3 -3.51606e-15 0)
(3 -3.38296e-15 0)
(3 -3.30405e-15 0)
(3 -2.03388e-15 0)
(3 -5.17144e-16 0)
(3 8.43864e-16 0)
(3 2.91677e-15 0)
(3 3.64323e-15 0)
(3 2.37468e-15 0)
(3 1.66024e-15 0)
(3 8.34305e-16 0)
(3 -3.04266e-16 0)
(3 -3.98368e-16 0)
(3 -9.34493e-16 0)
(3 -1.57116e-15 0)
(3 -2.38145e-15 0)
(3 9.49014e-17 0)
(3 -1.70429e-16 0)
(3 -1.7794e-16 0)
(3 -4.83756e-16 0)
(3 -9.36819e-16 0)
(3 -4.99263e-16 0)
(3 -3.36794e-16 0)
(3 -5.83814e-16 0)
(3 6.99426e-17 0)
(3 -4.14818e-17 0)
(3 2.51764e-16 0)
(3 3.41135e-16 0)
(3 8.1617e-16 0)
(3 -9.74224e-16 0)
(3 -2.18212e-15 0)
(3 -2.97691e-15 0)
(3 -2.73929e-15 0)
(3 -1.74757e-15 0)
(3 -1.27316e-15 0)
(3 -7.5104e-16 0)
(3 -4.9401e-16 0)
(3 -5.01598e-16 0)
(3 -2.92175e-16 0)
(3 -5.21318e-16 0)
(3 -6.44794e-16 0)
(3 -9.95057e-16 0)
(3 -1.01422e-15 0)
(3 -3.69117e-16 0)
(3 -2.78783e-16 0)
(3 -4.25582e-16 0)
(3 -1.03504e-15 0)
(3 -8.5883e-16 0)
(3 3.02002e-16 0)
(3 1.10571e-15 0)
(3 1.22959e-15 0)
(3 5.90557e-16 0)
(3 -1.41406e-15 0)
(3 -2.58787e-15 0)
(3 -2.19984e-15 0)
(3 -1.06908e-15 0)
(3 -7.01228e-16 0)
(3 -2.05778e-16 0)
(3 1.19932e-15 0)
(3 5.29728e-15 0)
(3 7.87382e-15 0)
(3 7.52797e-15 0)
(3 5.36809e-15 0)
(3 2.99024e-15 0)
(3 3.40365e-15 0)
(3 3.63239e-15 0)
(3 3.75879e-15 0)
(3 3.32401e-15 0)
(3 1.66717e-15 0)
(3 1.13946e-15 0)
(3 -9.69757e-16 0)
(3 -1.9223e-15 0)
(3 -2.30472e-15 0)
(3 -2.05499e-15 0)
(3 -2.25765e-15 0)
(3 -1.68114e-15 0)
(3 -1.73657e-15 0)
(3 -3.90394e-16 0)
(3 -3.00269e-16 0)
(3 1.45349e-17 0)
(3 1.20963e-15 0)
(3 2.54018e-15 0)
(3 4.44977e-15 0)
(3 5.37308e-15 0)
(3 6.19942e-15 0)
(3 6.18662e-15 0)
(3 5.87679e-15 0)
(3 4.12632e-15 0)
(3 2.74612e-15 0)
(3 4.376e-16 0)
(3 -1.22353e-15 0)
(3 -3.2589e-15 0)
(3 -4.21542e-15 0)
(3 -4.86139e-15 0)
(3 -5.68996e-15 0)
(3 -5.76797e-15 0)
(3 -4.53546e-15 0)
(3 -2.48493e-15 0)
(3 -1.27855e-15 0)
(3 -8.17482e-16 0)
(3 3.57704e-16 0)
(3 1.94848e-15 0)
(3 2.96988e-15 0)
(3 3.12093e-15 0)
(3 2.38861e-15 0)
(3 1.56904e-15 0)
(3 8.42449e-16 0)
(3 -1.99255e-17 0)
(3 5.18415e-17 0)
(3 -6.38547e-16 0)
(3 -1.0345e-15 0)
(3 -1.64954e-15 0)
(3 -2.49259e-17 0)
(3 -1.98548e-17 0)
(3 -3.44804e-16 0)
(3 -2.55363e-16 0)
(3 -3.93668e-16 0)
(3 -5.4205e-16 0)
(3 -1.01251e-15 0)
(3 -1.27445e-15 0)
(3 -1.21759e-15 0)
(3 -7.7053e-16 0)
(3 -4.71045e-16 0)
(3 -4.02078e-16 0)
(3 -1.75623e-16 0)
(3 -7.42569e-16 0)
(3 -1.08131e-15 0)
(3 -1.96981e-15 0)
(3 -1.55694e-15 0)
(3 -8.86753e-16 0)
(3 1.72892e-16 0)
(3 5.91774e-16 0)
(3 1.22697e-15 0)
(3 1.22422e-15 0)
(3 1.01549e-15 0)
(3 9.9033e-17 0)
(3 -3.85336e-16 0)
(3 -6.8461e-16 0)
(3 -1.05304e-15 0)
(3 -1.57287e-15 0)
(3 -1.68397e-15 0)
(3 -1.63282e-15 0)
(3 -1.50154e-15 0)
(3 -5.60427e-16 0)
(3 -1.79996e-16 0)
(3 6.50004e-16 0)
(3 9.0568e-16 0)
(3 7.34183e-16 0)
(3 -5.1687e-16 0)
(3 -2.60359e-16 0)
(3 6.75245e-16 0)
(3 9.31086e-16 0)
(3 5.19102e-16 0)
(3 5.20645e-16 0)
(3 9.03244e-16 0)
(3 1.76464e-15 0)
(3 1.6997e-15 0)
(3 2.8405e-15 0)
(3 2.93443e-15 0)
(3 3.04532e-15 0)
(3 3.73e-15 0)
(3 2.55269e-15 0)
(3 7.86959e-16 0)
(3 3.66094e-17 0)
(3 -5.89868e-16 0)
(3 -6.44563e-16 0)
(3 -5.92254e-16 0)
(3 -1.07559e-15 0)
(3 -1.49067e-15 0)
(3 -1.88993e-15 0)
(3 -2.46548e-15 0)
(3 -3.60399e-15 0)
(3 -4.27345e-15 0)
(3 -1.30657e-15 0)
(3 1.20706e-15 0)
(3 2.10967e-15 0)
(3 2.05519e-15 0)
(3 2.77743e-15 0)
(3 3.83115e-15 0)
(3 5.24499e-15 0)
(3 4.90361e-15 0)
(3 4.31979e-15 0)
(3 3.45487e-15 0)
(3 2.0908e-15 0)
(3 -2.56916e-16 0)
(3 -1.25355e-15 0)
(3 -2.12084e-15 0)
(3 -2.71231e-15 0)
(3 -2.65278e-15 0)
(3 -3.91558e-15 0)
(3 -4.5473e-15 0)
(3 -3.85303e-15 0)
(3 -3.01266e-15 0)
(3 -1.98534e-15 0)
(3 1.73746e-16 0)
(3 2.64225e-15 0)
(3 3.96168e-15 0)
(3 3.55414e-15 0)
(3 3.2487e-15 0)
(3 2.99852e-15 0)
(3 3.48327e-15 0)
(3 3.36745e-15 0)
(3 3.29254e-15 0)
(3 3.31284e-15 0)
(3 2.83024e-15 0)
(3 2.73494e-15 0)
(3 1.60345e-15 0)
(3 -4.56013e-16 0)
(3 -8.03376e-17 0)
(3 -5.57297e-19 0)
(3 3.12306e-16 0)
(3 6.81653e-16 0)
(3 8.87541e-16 0)
(3 6.58062e-16 0)
(3 2.41599e-16 0)
(3 2.0818e-17 0)
(3 -4.59211e-16 0)
(3 -5.3038e-16 0)
(3 -1.10735e-15 0)
(3 -1.50536e-15 0)
(3 -1.74403e-15 0)
(3 -7.44294e-16 0)
(3 -1.26325e-16 0)
(3 -2.54431e-16 0)
(3 -4.47917e-16 0)
(3 7.82025e-17 0)
(3 6.72605e-16 0)
(3 1.43938e-15 0)
(3 2.82137e-15 0)
(3 2.92488e-15 0)
(3 2.70585e-15 0)
(3 1.73014e-15 0)
(3 9.05463e-16 0)
(3 1.57126e-16 0)
(3 -5.95161e-16 0)
(3 -1.18646e-15 0)
(3 -1.46437e-15 0)
(3 -1.82457e-15 0)
(3 -1.45056e-15 0)
(3 -1.16751e-15 0)
(3 -5.81884e-16 0)
(3 2.48644e-16 0)
(3 1.41343e-15 0)
(3 2.22421e-15 0)
(3 2.86273e-15 0)
(3 3.38296e-15 0)
(3 3.86703e-15 0)
(3 3.24066e-15 0)
(3 3.6115e-15 0)
(3 3.37739e-15 0)
(3 2.32153e-15 0)
(3 -1.94529e-16 0)
(3 -2.30903e-15 0)
(3 -1.41295e-15 0)
(3 -1.23643e-15 0)
(3 6.61252e-16 0)
(3 1.38231e-15 0)
(3 6.89564e-16 0)
(3 -8.52611e-16 0)
(3 -1.45191e-15 0)
(3 -1.07713e-15 0)
(3 -5.47599e-16 0)
(3 -5.06791e-16 0)
(3 -1.1438e-15 0)
(3 -1.44363e-15 0)
(3 -2.59323e-15 0)
(3 -2.85408e-15 0)
(3 -3.35761e-15 0)
(3 -3.56413e-15 0)
(3 -3.22213e-15 0)
(3 -2.7306e-15 0)
(3 1.87539e-16 0)
(3 2.00595e-15 0)
(3 1.74264e-15 0)
(3 1.10952e-15 0)
(3 6.15219e-16 0)
(3 1.13193e-15 0)
(3 1.07188e-15 0)
(3 7.20693e-16 0)
(3 -1.48799e-15 0)
(3 -3.20351e-15 0)
(3 -3.37668e-15 0)
(3 -2.716e-15 0)
(3 -3.01682e-15 0)
(3 -4.01778e-15 0)
(3 -4.62252e-15 0)
(3 -3.48637e-15 0)
(3 2.35737e-16 0)
(3 6.39278e-16 0)
(3 3.30345e-16 0)
(3 6.87357e-16 0)
(3 1.54712e-15 0)
(3 1.63508e-15 0)
(3 2.18465e-15 0)
(3 2.93825e-15 0)
(3 1.93717e-15 0)
(3 2.92248e-15 0)
(3 2.59906e-15 0)
(3 3.33651e-15 0)
(3 3.36307e-15 0)
(3 3.18704e-15 0)
(3 2.87199e-15 0)
(3 2.57561e-15 0)
(3 1.95468e-15 0)
(3 -2.28321e-16 0)
(3 2.93627e-16 0)
(3 8.43595e-16 0)
(3 9.64058e-16 0)
(3 2.11687e-16 0)
(3 7.84407e-17 0)
(3 -7.90982e-17 0)
(3 1.21388e-16 0)
(3 -4.88628e-16 0)
(3 -1.14229e-15 0)
(3 -1.22418e-15 0)
(3 -8.38631e-16 0)
(3 -7.16265e-16 0)
(3 -9.99923e-16 0)
(3 -9.5778e-16 0)
(3 -2.25559e-16 0)
(3 3.27079e-16 0)
(3 1.96925e-15 0)
(3 2.24189e-15 0)
(3 2.61277e-15 0)
(3 2.37146e-15 0)
(3 1.39475e-15 0)
(3 7.63917e-16 0)
(3 7.64366e-17 0)
(3 -5.22617e-16 0)
(3 -5.68859e-16 0)
(3 -8.0791e-16 0)
(3 -1.37368e-15 0)
(3 -1.48094e-15 0)
(3 -1.37641e-15 0)
(3 -1.35619e-15 0)
(3 -1.27776e-15 0)
(3 -1.26976e-16 0)
(3 -1.45487e-16 0)
(3 -6.7712e-17 0)
(3 6.93052e-16 0)
(3 1.03054e-15 0)
(3 1.52619e-15 0)
(3 2.72644e-15 0)
(3 1.88632e-15 0)
(3 1.81606e-15 0)
(3 1.07826e-15 0)
(3 -7.01406e-16 0)
(3 -2.38775e-15 0)
(3 -3.69751e-15 0)
(3 -4.77992e-15 0)
(3 -5.48023e-15 0)
(3 -4.91341e-15 0)
(3 -3.73382e-15 0)
(3 -1.63679e-15 0)
(3 -1.03534e-15 0)
(3 -1.05983e-15 0)
(3 -6.56007e-16 0)
(3 -3.42104e-16 0)
(3 -3.97439e-16 0)
(3 -6.75099e-16 0)
(3 -4.03788e-16 0)
(3 -1.52466e-15 0)
(3 -2.26813e-15 0)
(3 -2.4339e-15 0)
(3 -2.55037e-15 0)
(3 -3.47033e-15 0)
(3 -2.89436e-15 0)
(3 -1.00391e-15 0)
(3 8.87438e-16 0)
(3 -7.153e-16 0)
(3 -1.65941e-15 0)
(3 -1.91577e-15 0)
(3 -1.02513e-15 0)
(3 -1.78391e-15 0)
(3 -2.30026e-15 0)
(3 -2.82522e-15 0)
(3 -2.80584e-15 0)
(3 -2.85117e-15 0)
(3 -2.82845e-15 0)
(3 -2.69894e-15 0)
(3 -2.96077e-15 0)
(3 -2.39045e-15 0)
(3 1.7073e-16 0)
(3 2.13602e-15 0)
(3 2.2908e-15 0)
(3 1.81819e-15 0)
(3 1.47648e-15 0)
(3 1.75648e-15 0)
(3 1.39202e-15 0)
(3 2.07372e-16 0)
(3 -6.21298e-16 0)
(3 -1.21495e-15 0)
(3 6.52669e-16 0)
(3 9.26913e-16 0)
(3 2.55313e-15 0)
(3 2.34331e-15 0)
(3 3.53848e-15 0)
(3 3.87679e-15 0)
(3 3.53706e-15 0)
(3 3.12921e-15 0)
(3 3.15826e-16 0)
(3 1.04182e-15 0)
(3 9.36793e-16 0)
(3 1.12652e-15 0)
(3 1.44625e-15 0)
(3 5.84774e-16 0)
(3 2.82491e-16 0)
(3 1.43822e-16 0)
(3 -5.05331e-16 0)
(3 -7.89167e-16 0)
(3 -1.03595e-15 0)
(3 -7.95351e-16 0)
(3 -8.12837e-16 0)
(3 -6.3229e-16 0)
(3 -3.06958e-17 0)
(3 6.59612e-16 0)
(3 1.11054e-15 0)
(3 8.86269e-16 0)
(3 9.11511e-16 0)
(3 1.34256e-15 0)
(3 4.73799e-16 0)
(3 -5.94887e-18 0)
(3 -9.84845e-16 0)
(3 -1.31301e-15 0)
(3 -9.04386e-16 0)
(3 -6.88389e-16 0)
(3 -8.74076e-16 0)
(3 -1.25523e-15 0)
(3 -1.75482e-15 0)
(3 -2.07319e-15 0)
(3 -1.84419e-15 0)
(3 -1.70093e-15 0)
(3 -1.34215e-15 0)
(3 -6.57943e-16 0)
(3 -6.36418e-16 0)
(3 -1.06614e-15 0)
(3 -7.8804e-16 0)
(3 5.09856e-16 0)
(3 1.26385e-15 0)
(3 3.90687e-16 0)
(3 2.16584e-16 0)
(3 -1.09671e-15 0)
(3 -1.9673e-15 0)
(3 -2.32436e-15 0)
(3 -3.10551e-15 0)
(3 -4.17551e-15 0)
(3 -3.82043e-15 0)
(3 -2.11938e-15 0)
(3 -1.68844e-15 0)
(3 -7.2645e-16 0)
(3 -1.06793e-15 0)
(3 -1.70576e-15 0)
(3 -5.46365e-16 0)
(3 -9.23989e-16 0)
(3 -9.18634e-16 0)
(3 -1.69489e-16 0)
(3 -7.96686e-17 0)
(3 -5.06041e-16 0)
(3 -9.26091e-16 0)
(3 -1.56311e-15 0)
(3 -1.63738e-15 0)
(3 -3.2352e-15 0)
(3 -3.69546e-15 0)
(3 -4.52597e-15 0)
(3 -4.82927e-15 0)
(3 -3.11111e-15 0)
(3 -2.18359e-15 0)
(3 -1.48274e-15 0)
(3 -1.82268e-15 0)
(3 -2.66552e-15 0)
(3 -4.37175e-15 0)
(3 -4.54069e-15 0)
(3 -3.60821e-15 0)
(3 -3.89894e-15 0)
(3 -3.54215e-15 0)
(3 -1.74533e-15 0)
(3 -7.96641e-16 0)
(3 3.25244e-16 0)
(3 1.14328e-15 0)
(3 1.98419e-15 0)
(3 2.01663e-15 0)
(3 2.05036e-15 0)
(3 1.89332e-15 0)
(3 1.86091e-15 0)
(3 1.36238e-15 0)
(3 -4.4328e-17 0)
(3 -2.48071e-15 0)
(3 -2.66326e-15 0)
(3 -3.70404e-15 0)
(3 -2.36067e-15 0)
(3 -5.40113e-16 0)
(3 1.21062e-16 0)
(3 1.3567e-15 0)
(3 3.27705e-15 0)
(3 2.68998e-15 0)
(3 1.91243e-15 0)
(3 4.90819e-16 0)
(3 6.95312e-16 0)
(3 4.45081e-16 0)
(3 -2.9242e-17 0)
(3 3.54231e-16 0)
(3 2.20043e-16 0)
(3 2.16456e-16 0)
(3 1.02506e-16 0)
(3 -5.53973e-18 0)
(3 1.24524e-16 0)
(3 5.58832e-16 0)
(3 1.40008e-16 0)
(3 1.28041e-16 0)
(3 7.75707e-16 0)
(3 1.04083e-15 0)
(3 8.74506e-16 0)
(3 8.12729e-16 0)
(3 -5.07874e-17 0)
(3 -7.44674e-16 0)
(3 -1.18615e-15 0)
(3 -2.02004e-15 0)
(3 -1.74205e-15 0)
(3 -1.38816e-15 0)
(3 -6.4009e-16 0)
(3 -3.7965e-16 0)
(3 4.66952e-17 0)
(3 8.60998e-16 0)
(3 1.74029e-15 0)
(3 1.15595e-15 0)
(3 2.00027e-16 0)
(3 -1.0091e-15 0)
(3 -2.10787e-15 0)
(3 -2.33392e-15 0)
(3 -2.20083e-15 0)
(3 -2.0289e-15 0)
(3 -1.65591e-15 0)
(3 -9.66555e-16 0)
(3 -4.82506e-16 0)
(3 -4.52529e-16 0)
(3 7.47543e-17 0)
(3 2.63554e-16 0)
(3 1.52999e-16 0)
(3 -1.00895e-15 0)
(3 -1.29725e-15 0)
(3 -1.62701e-15 0)
(3 -1.46823e-15 0)
(3 -4.30662e-16 0)
(3 -2.65052e-16 0)
(3 -3.88516e-16 0)
(3 -3.19613e-16 0)
(3 -7.14577e-16 0)
(3 -1.48686e-15 0)
(3 -1.16648e-15 0)
(3 -1.67686e-15 0)
(3 -8.19538e-16 0)
(3 -2.16632e-16 0)
(3 1.37029e-16 0)
(3 7.47868e-16 0)
(3 1.24204e-15 0)
(3 1.90265e-15 0)
(3 1.65721e-15 0)