/*--------------------------------*- C++ -*----------------------------------*\
  =========                 |
  \\      /  F ield         | OpenFOAM: The Open Source CFD Toolbox
   \\    /   O peration     | Website:  https://openfoam.org
    \\  /    A nd           | Version:  7
     \\/     M anipulation  |
\*---------------------------------------------------------------------------*/
FoamFile
{
    version     2.0;
    format      ascii;
    class       volScalarField;
    location    "0.5";
    object      p;
}
// * * * * * * * * * * * * * * * * * * * * * * * * * * * * * * * * * * * * * //

dimensions      [1 -1 -2 0 0 0 0];

internalField   nonuniform List<scalar> 
18432
(
1
1
1
1
1
1
1
1
1
1
1
1
1
1
1
1
1
1
1
1
1
1
1
1
1
1
1
1
1
1
1
1
1
1
1
1
1
1
1
1
1
1
1
1
1
1
1
1
1
1
1
1
1
1
1
1
1
1
1
1
1
1
1
1
1
1
1
1
1
1
1
1
1
1
1
1
1
1
1
1
1
1
1
1
1
1
1
1
1
1
1
1
1
1
1
1
1
1
1
1
1
1
1
1
1
1
1
1
1
1
1
1
1
1
1
1
1
1
1
1
1
1
1
1
1
1
1
1
1
1
1
1
1
1
1
1
1
1
1
1
1
1
1
1
1
1
1
1
1
1
1
1
1
1
1
1
1
1
1
1
1
1
1
1
1
1
1
1
1
1
1
1
1
1
1
1
1
1
1
1
1
1
1
1
1
1
1
1
1
1
1
1
1
1
1
1
1
1
1
1
1
1
1
1
1
1
1
1
1
1
1
1
1
1
1
1
1
1
1
1
1
1
1
1
1
1
1
1
1
1
1
1
1
1
1
1
1
1
1
1
1
1
1
1
1
1
1
1
1
1
1
1
1
1
1
1
1
1
1
1
1
1
1
1
1
1
1
1
1
1
1
1
1
1
1
1
1
1
1
1
1
1
1
1
1
1
1
1
1
1
1
1
1
1
1
1
1
1
1
1
1
1
1
1
1
1
1
1
1
1
1
1
1
1
1
1
1
1
1
1
1
1
1
1
1
1
1
1
1
1
1
1
1
1
1
1
1
1
1
1
1
1
1
1
1
1
1
1
1
1
1
1
1
1
1
1
1
1
1
1
1
1
1
1
1
1
1
1
1
1
1
1
1
1
1
1
1
1
1
1
1
1
1
1
1
1
1
1
1
1
1
1
1
1
1
1
1
1
1
1
1
1
1
1
1
1
1
1
1
1
1
1
1
1
1
1
1
1
1
1
1
1
1
1
1
1
1
1
1
1
1
1
1
1
1
1
1
1
1
1
1
1
1
1
1
1
1
1
1
1
1
1
1
1
1
1
1
1
1
1
1
1
1
1
1
1
1
1
1
1
1
1
1
1
1
1
1
1
1
1
1
1
1
1
1
1
1
1
1
1
1
1
1
1
1
1
1
1
1
1
1
1
1
1
1
1
1
1
1
1
1
1
1
1
1
1
1
1
1
1
1
1
1
1
1
1
1
1
1
1
1
1
1
1
1
1
1
1
1
1
1
1
1
1
1
1
1
1
1
1
1
1
1
1
1
1
1
1
1
1
1
1
1
1
1
1
1
1
1
1
1
1
1
1
1
1
1
1
1
1
1
1
1
1
1
1
1
1
1
1
1
1
1
1
1
1
1
1
1
1
1
1
1
1
1
1
1
1
1
1
1
1
1
1
1
1
1
1
1
1
1
1
1
1
1
1
1
1
1
1
1
1
1
1
1
1
1
1
1
1
1
1
1
1
1
1
1
1
1
1
1
1
1
1
1
1
1
1
1
1
1
1
1
1
1
1
1
1
1
1
1
1
1
1
1
1
1
1
1
1
1
1
1
1
1
1
1
1
1
1
1
1
1
1
1
1
1
1
1
1
1
1
1
1
1
1
1
1
1
1
1
1
1
1
1
1
1
1
1
1
1
1
1
1
1
1
1
1
1
1
1
1
1
1
1
1
1
1
1
1
1
1
1
1
1
1
1
1
1
1
1
1
1
1
1
1
1
1
1
1
1
1
1
1
1
1
1
1
1
1
1
1
1
1
1
1
1
1
1
1
1
1
1
1
1
1
1
1
1
1
1
1
1
1
1
1
1
1
1
1
1
1
1
1
1
1
1
1
1
1
1
1
1
1
1
1
1
1
1
1
1
1
1
1
1
1
1
1
1
1
1
1
1
1
1
1
1
1
1
1
1
1
1
1
1
1
1
1
1
1
1
1
1
1
1
1
1
1
1
1
1
1
1
1
1
1
1
1
1
1
1
1
1
1
1
1
1
1
1
1
1
1
1
1
1
1
1
1
1
1
1
1
1
1
1
1
1
1
1
1
1
1
1
1
1
1
1
1
1
1
1
1
1
1
1
1
1
1
1
1
1
1
1
1
1
1
1
1
1
1
1
1
1
1
1
1
1
1
1
1
1
1
1
1
1
1
1
1
1
1
1
1
1
1
1
1
1
1
1
1
1
1
1
1
1
1
1
1
1
1
1
1
1
1
1
1
1
1
1
1
1
1
1
1
1
1
1
1
1
1
1
1
1
1
1
1
1
1
1
1
1
1
1
1
1
1
1
1
1
1
1
1
1
1
1
1
1
1
1
1
1
1
1
1
1
1
1
1
1
1
1
1
1
1
1
1
1
1
1
1
1
1
1
1
1
1
1
1
1
1
1
1
1
1
1
1
1
1
1
1
1
1
1
1
1
1
1
1
1
1
1
1
1
1
1
1
1
1
1
1
1
1
1
1
1
1
1
1
1
1
1
1
1
1
1
1
1
1
1
1
1
1
1
1
1
1
1
1
1
1
1
1
1
1
1
1
1
1
1
1
1
1
1
1
1
1
1
1
1
1
1
1
1
1
1
1
1
1
1
1
1
1
1
1
1
1
1
1
1
1
1
1
1
1
1
1
1
1
1
1
1
1
1
1
1
1
1
1
1
1
1
1
1
1
1
1
1
1
1
1
1
1
1
1
1
1
1
1
1
1
1
1
1
1
1
1
1
1
1
1
1
1
1
1
1
1
1
1
1
1
1
1
1
1
1
1
1
1
1
1
1
1
1
1
1
1
1
1
1
1
1
1
1
1
1
1
1
1
1
1
1
1
1
1
1
1
1
1
1
1
1
1
1
1
1
1
1
1
1
1
1
1
1
1
1
1
1
1
1
1
1
1
1
1
1
1
1
1
1
1
1
1
1
1
1
1
1
1
1
1
1
1
1
1
1
1
1
1
1
1
1
1
1
1
1
1
1
1
1
1
1
1
1
1
1
1
1
1
1
1
1
1
1
1
1
1
1
1
1
1
1
1
1
1
1
1
1
1
1
1
1
1
1
1
1
1
1
1
1
1
1
1
1
1
1
1
1
1
1
1
1
1
1
1
1
1
1
1
1
1
1
1
1
1
1
1
1
1
1
1
1
1
1
1
1
1
1
1
1
1
1
1
1
1
1
1
1
1
1
1
1
1
1
1
1
1
1
1
1
1
1
1
1
1
1
1
1
1
1
1
1
1
1
1
1
1
1
1
1
1
1
1
1
1
1
1
1
1
1
1
1
1
1
1
1
1
1
1
1
1
1
1
1
1
1
1
1
1
1
1
1
1
1
1
1
1
1
1
1
1
1
1
1
1
1
1
1
1
1
1
1
1
1
1
1
1
1
1
1
1
1
1
1
1
1
1
1
1
1
1
1
1
1
1
1
1
1
1
1
1
1
1
1
1
1
1
1
1
1
1
1
1
1
1
1
1
1
1
1
1
1
1
1
1
1
1
1
1
1
1
1
1
1
1
1
1
1
1
1
1
1
1
1
1
1
1
1
1
1
1
1
1
1
1
1
1
1
1
1
1
1
1
1
1
1
1
1
1
1
1
1
1
1
1
1
1
1
1
1
1
1
1
1
1
1
1
1
1
1
1
1
1
1
1
1
1
1
1
1
1
1
1
1
1
1
1
1
1
1
1
1
1
1
1
1
1
1
1
1
1
1
1
1
1
1
1
1
1
1
1
1
1
1
1
1
1
1
1
1
1
1
1
1
1
1
1
1
1
1
1
1
1
1
1
1
1
1
1
1
1
1
1
1
1
1
1
1
1
1
1
1
1
1
1
1
1
1
1
1
1
1
1
1
1
1
1
1
1
1
1
1
1
1
1
1
1
1
1
1
1
1
1
1
1
1
1
1
1
1
1
1
1
1
1
1
1
1
1
1
1
1
1
1
1
1
1
1
1
1
1
1
1
1
1
1
1
1
1
1
1
1
1
1
1
1
1
1
1
1
1
1
1
1
1
1
1
1
1
1
1
1
1
1
1
1
1
1
1
1
1
1
1
1
1
1
1
1
1
1
1
1
1
1
1
1
1
1
1
1
1
1
1
1
1
1
1
1
1
1
1
1
1
1
1
1
1
1
1
1
1
1
1
1
1
1
1
1
1
1
1
1
1
1
1
1
1
1
1
1
1
1
1
1
1
1
1
1
1
1
1
1
1
1
1
1
1
1
1
1
1
1
1
1
1
1
1
1
1
1
1
1
1
1
1
1
1
1
1
1
1
1
1
1
1
1
1
1
1
1
1
1
1
1
1
1
1
1
1
1
1
1
1
1
1
1
1
1
1
1
1
1
1
1
1
1
1
1
1
1
1
1
1
1
1
1
1
1
1
1
1
1
1
1
1
1
1
1
1
1
1
1
1
1
1
1
1
1
1
1
1
1
1
1
1
1
1
1
1
1
1
1
1
1
1
1
1
1
1
1
1
1
1
1
1
1
1
1
1
1
1
1
1
1
1
1
1
1
1
1
1
1
1
1
1
1
1
1
1
1
1
1
1
1
1
1
1
1
1
1
1
1
1
1
1
1
1
1
1
1
1
1
1
1
1
1
1
1
1
1
1
1
1
1
1
1
1
1
1
1
1
1
1
1
1
1
1
1
1
1
1
1
1
1
1
1
1
1
1
1
1
1
1
1
1
1
1
1
1
1
1
1
1
1
1
1
1
1
1
1
1
1
1
1
1
1
1
1
1
1
1
1
1
1
1
1
1
1
1
1
1
1
1
1
1
1
1
1
1
1
1
1
1
1
1
1
1
1
1
1
1
1
1
1
1
1
1
1
1
1
1
1
1
1
1
1
1
1
1
1
1
1
1
1
1
1
1
1
1
1
1
1
1
1
1
1
1
1
1
1
1
1
1
1
1
1
1
1
1
1
1
1
1
1
1
1
1
1
1
1
1
1
1
1
1
1
1
1
1
1
1
1
1
1
1
1
1
1
1
1
1
1
1
1
1
1
1
1
1
1
1
1
1
1
1
1
1
1
1
1
1
1
1
1
1
1
1
1
1
1
1
1
1
1
1
1
1
1
1
1
1
1
1
1
1
1
1
1
1
1
1
1
1
1
1
1
1
1
1
1
1
1
1
1
1
1
1
1
1
1
1
1
1
1
1
1
1
1
1
1
1
1
1
1
1
1
1
1
1
1
1
1
1
1
1
1
1
1
1
1
1
1
1
1
1
1
1
1
1
1
1
1
1
1
1
1
1
1
1
1
1
1
1
1
1
1
1
1
1
1
1
1
1
1
1
1
1
1
1
1
1
1
1
1
1
1
1
1
1
1
1
1
1
1
1
1
1
1
1
1
1
1
1
1
1
1
1
1
1
1
1
1
1
1
1
1
1
1
1
1
1
1
1
1
1
1
1
1
1
1
1
1
1
1
1
1
1
1
1
1
1
1
1
1
1
1
1
1
1
1
1
1
1
1
1
1
1
1
1
1
1
1
1
1
1
1
1
1
1
1
1
1
1
1
1
1
1
1
1
1
1
1
1
1
1
1
1
1
1
1
1
1
1
1
1
1
1
1
1
1
1
1
1
1
1
1
1
1
1
1
1
1
1
1
1
1
1
1
1
1
1
1
1
1
1
1
1
1
1
1
1
1
1
1
1
1
1
1
1
1
1
1
1
1
1
1
1
1
1
1
1
1
1
1
1
1
1
1
1
1
1
1
1
1
1
1
1
1
1
1
1
1
1
1
1
1
1
1
1
1
1
1
1
1
1
1
1
1
1
1
1
1
1
1
1
1
1
1
1
1
1
1
1
1
1
1
1
1
1
1
1
1
1
1
1
1
1
1
1
1
1
1
1
1
1
1
1
1
1
1
1
1
1
1
1
1
1
1
1
1
1
1
1
1
1
1
1
1
1
1
1
1
1
1
1
1
1
1
1
1
1
1
1
1
1
1
1
1
1
1
1
1
1
1
1
1
1
1
1
1
1
1
1
1
1
1
1
1
1
1
1
1
1
1
1
1
1
1
1
1
1
1
1
1
1
1
1
1
1
1
1
1
1
1
1
1
1
1
1
1
1
1
1
1
1
1
1
1
1
1
1
1
1
1
1
1
1
1
1
1
1
1
1
1
1
1
1
1
1
1
1
1
1
1
1
1
1
1
1
1
1
1
1
1
1
1
1
1
1
1
1
1
1
1
1
1
1
1
1
1
1
1
1
1
1
1
1
1
1
1
1
1
1
1
1
1
1
1
1
1
1
1
1
1
1
1
1
1
1
1
1
1
1
1
1
1
1
1
1
1
1
1
1
1
1
1
1
1
1
1
1
1
1
1
1
1
1
1
1
1
1
1
1
1
1
1
1
1
1
1
1
1
1
1
1
1
1
1
1
1
1
1
1
1
1
1
1
1
1
1
1
1
1
1
1
1
1
1
1
1
1
1
1
1
1
1
1
1
1
1
1
1
1
1
1
1
1
1
1
1
1
1
1
1
1
1
1
1
1
1
1
1
1
1
1
1
1
1
1
1
1
1
1
1
1
1
1
1
1
1
1
1
1
1
1
1
1
1
1
1
1
1
1
1
1
1
1
1
1
1
1
1
1
1
1
1
1
1
1
1
1
1
1
1
1
1
1
1
1
1
1
1
1
1
1
1
1
1
1
1
1
1
1
1
1
1
1
1
1
1
1
1
1
1
1
1
1
1
1
1
1
1
1
1
1
1
1
1
1
1
1
1
1
1
1
1
1
1
1
1
1
1
1
1
1
1
1
1
1
1
1
1
1
1
1
1
1
1
1
1
1
1
1
1
1
1
1
1
1
1
1
1
1
1
1
1
1
1
1
1
1
1
1
1
1
1
1
1
1
1
1
1
1
1
1
1
1
1
1
1
1
1
1
1
1
1
1
1
1
1
1
1
1
1
1
1
1
1
1
1
1
1
1
1
1
1
1
1
1
1
1
1
1
1.28975
1.76228
2.30255
2.88344
3.59885
4.14372
4.67108
5.12671
5.34049
5.23912
4.91511
4.48848
4.10094
3.79114
3.65721
3.57339
3.55073
3.56605
3.6057
3.64925
3.68534
3.70276
3.71535
3.72844
3.74205
3.75452
3.76413
3.77177
3.78091
3.79209
3.79807
3.79803
3.7947
3.78728
3.77792
3.77024
3.76563
3.76352
3.76376
3.76445
3.7665
3.76982
3.77031
3.77052
3.77118
3.77085
3.77019
3.77156
1.00166
1.0147
1.07944
1.19841
1.41083
1.76823
2.21398
2.75217
3.32405
3.72198
3.88265
4.08931
4.05641
3.95142
3.84028
3.79037
3.73819
3.68786
3.67564
3.67251
3.68618
3.70495
3.72098
3.73065
3.73767
3.74548
3.75261
3.75626
3.76039
3.76751
3.77492
3.78076
3.78282
3.78151
3.77711
3.77242
3.77084
3.77184
3.77386
3.77658
3.77924
3.77967
3.77871
3.77636
3.77165
3.76856
3.76804
3.76947
1
0.999976
1.00007
1.00004
1.0013
1.01339
1.06044
1.22438
1.59662
2.37297
3.29011
3.94946
4.3067
4.31658
4.2417
4.11934
3.98674
3.79615
3.68698
3.68376
3.69749
3.71545
3.73399
3.74062
3.7405
3.73952
3.74579
3.74893
3.75167
3.75633
3.76202
3.76677
3.76788
3.76695
3.76495
3.76379
3.76487
3.76793
3.77347
3.78119
3.78745
3.78884
3.78769
3.78477
3.77904
3.77297
3.77136
3.77256
1
1
1
1
0.999998
1
0.999977
1.00011
1.00519
1.07335
1.43635
2.12135
3.20603
3.72633
4.05896
4.02986
3.94713
3.92249
3.85285
3.80333
3.77625
3.74394
3.72918
3.71814
3.72034
3.72904
3.74447
3.75744
3.76445
3.76988
3.773
3.77301
3.77205
3.77032
3.76913
3.76723
3.76638
3.76853
3.7732
3.77903
3.7829
3.78323
3.78122
3.77703
3.77192
3.77027
3.77064
3.77178
1
1
1
1
1
1
1
0.999999
1
0.999919
1.00239
1.03717
1.3105
1.95582
2.90285
3.67401
3.88215
4.02289
4.00293
3.9359
3.81219
3.71428
3.69011
3.68078
3.68267
3.69041
3.71055
3.73508
3.75844
3.7773
3.78368
3.78392
3.78088
3.77751
3.77705
3.77655
3.77548
3.77674
3.78017
3.78245
3.78223
3.78023
3.77672
3.77108
3.76688
3.76601
3.76617
3.76719
1
1
1
1
1
1
1
1
1
0.999997
0.999997
0.999952
1.00094
1.02931
1.2034
1.84837
2.65618
3.54561
3.8468
3.84955
3.8493
3.78929
3.73598
3.70857
3.69074
3.68779
3.69396
3.70812
3.72655
3.74614
3.76305
3.77229
3.773
3.77211
3.77087
3.76916
3.76796
3.76993
3.77433
3.77478
3.77315
3.77095
3.7687
3.76699
3.76614
3.76634
3.76697
3.77217
1
1
1
1
1
1
1
1
1
1
1
0.999997
0.999998
0.999969
1.00037
1.02398
1.17923
1.67201
2.51889
3.24704
3.78514
3.86363
3.83469
3.80549
3.76776
3.73209
3.71201
3.7067
3.7099
3.71769
3.73099
3.74735
3.75585
3.75941
3.75829
3.75884
3.76156
3.76833
3.77377
3.77465
3.77389
3.77312
3.77287
3.77312
3.77333
3.77378
3.77405
3.77832
1
1
1
1
1
1
1
1
1
1
1
1
1
0.999998
0.999998
0.999974
1.00044
1.01226
1.1595
1.5721
2.44114
3.09437
3.56904
3.78244
3.80633
3.78668
3.75864
3.75003
3.74342
3.73781
3.73275
3.73185
3.74013
3.75043
3.75749
3.76272
3.76767
3.77535
3.78001
3.77975
3.77853
3.77626
3.77549
3.77529
3.77499
3.77465
3.77533
3.77634
1
1
1
1
1
1
1
1
1
1
1
1
1
1
1
0.999998
0.999998
0.999979
1.0005
1.01028
1.12744
1.56696
2.29278
3.08592
3.41565
3.64006
3.73992
3.76282
3.75657
3.73803
3.73332
3.73549
3.74076
3.75055
3.76208
3.77259
3.78159
3.78681
3.78692
3.78501
3.78201
3.77809
3.77458
3.77306
3.7724
3.77201
3.77262
3.77384
1
1
1
1
1
1
1
1
1
1
1
1
1
1
1
1
1
0.999998
0.999998
0.999985
1.00037
1.01302
1.1007
1.52134
2.19168
3.06016
3.47235
3.59389
3.67127
3.67935
3.702
3.71342
3.71654
3.72571
3.7404
3.7553
3.7699
3.77685
3.77904
3.77925
3.77804
3.77764
3.77685
3.77558
3.77467
3.77482
3.77574
3.77536
1
1
1
1
1
1
1
1
1
1
1
1
1
1
1
1
1
1
1
0.999998
0.999998
0.999988
1.00025
1.01234
1.10284
1.46909
2.22515
2.96497
3.51911
3.6567
3.69311
3.70717
3.7076
3.71273
3.72186
3.73347
3.74666
3.75887
3.76472
3.76633
3.76596
3.76776
3.76867
3.76836
3.76924
3.77126
3.77387
3.77337
1
1
1
1
1
1
1
1
1
1
1
1
1
1
1
1
1
1
1
1
1
0.999999
0.999999
0.999989
1.00038
1.00974
1.12964
1.4785
2.25505
2.96389
3.49274
3.70498
3.73676
3.74884
3.76204
3.76048
3.7609
3.76904
3.77422
3.77461
3.77215
3.7697
3.76764
3.7678
3.77041
3.77252
3.77324
3.77224
1
1
1
1
1
1
1
1
1
1
1
1
1
1
1
1
1
1
1
1
1
1
1
0.999998
0.999999
0.999989
1.00081
1.01117
1.13667
1.55829
2.34632
3.02686
3.4407
3.66743
3.7452
3.75452
3.76648
3.77523
3.77711
3.7785
3.77683
3.77548
3.77778
3.78037
3.78336
3.78457
3.78214
3.77791
1
1
1
1
1
1
1
1
1
1
1
1
1
1
1
1
1
1
1
1
1
1
1
1
1
0.999998
0.999999
0.999992
1.00115
1.01865
1.15367
1.6735
2.47834
3.26731
3.49208
3.60123
3.69164
3.73112
3.73806
3.7428
3.75058
3.76383
3.77565
3.78279
3.78469
3.7846
3.78278
3.77688
1
1
1
1
1
1
1
1
1
1
1
1
1
1
1
1
1
1
1
1
1
1
1
1
1
1
1
0.999999
0.999999
1.00001
1.00155
1.03559
1.21494
1.84558
2.66161
3.40734
3.66108
3.68815
3.7101
3.71274
3.72186
3.74011
3.75734
3.76835
3.77534
3.77857
3.77862
3.77363
1
1
1
1
1
1
1
1
1
1
1
1
1
1
1
1
1
1
1
1
1
1
1
1
1
1
1
1
1
1
0.999997
1.00009
1.00307
1.06358
1.33559
2.10393
2.93054
3.50003
3.74161
3.74887
3.77118
3.78565
3.78648
3.78385
3.7838
3.78221
3.77797
3.77205
1
1
1
1
1
1
1
1
1
1
1
1
1
1
1
1
1
1
1
1
1
1
1
1
1
1
1
1
1
1
1
1
0.999996
1.00041
1.00802
1.12246
1.56291
2.45038
3.14744
3.54081
3.7349
3.77854
3.77928
3.79173
3.79537
3.79139
3.78506
3.77682
1
1
1
1
1
1
1
1
1
1
1
1
1
1
1
1
1
1
1
1
1
1
1
1
1
1
1
1
1
1
1
1
0.999999
0.999999
1
1.00159
1.02455
1.24024
1.9074
2.92116
3.45485
3.57742
3.66529
3.73797
3.7629
3.76684
3.76525
3.76056
1
1
1
1
1
1
1
1
1
1
1
1
1
1
1
1
1
1
1
1
1
1
1
1
1
1
1
1
1
1
1
1
1
1
1
0.999998
1.00007
1.00637
1.0833
1.50494
2.37936
3.24752
3.69251
3.73277
3.75197
3.75313
3.74591
3.74257
1
1
1
1
1
1
1
1
1
1
1
1
1
1
1
1
1
1
1
1
1
1
1
1
1
1
1
1
1
1
1
1
1
1
1
1
1
1.00001
1.00081
1.02569
1.2383
1.94635
2.9119
3.51999
3.77996
3.80237
3.79116
3.77965
1
1
1
1
1
1
1
1
1
1
1
1
1
1
1
1
1
1
1
1
1
1
1
1
1
1
1
1
1
1
1
1
1
1
1
1
1
1
0.999999
1.00015
1.00577
1.10557
1.60507
2.60932
3.28228
3.60582
3.76208
3.77067
1
1
1
1
1
1
1
1
1
1
1
1
1
1
1
1
1
1
1
1
1
1
1
1
1
1
1
1
1
1
1
1
1
1
1
1
1
1
1
0.999999
1.00001
1.00203
1.0365
1.35613
2.18544
3.27976
3.6265
3.67633
1
1
1
1
1
1
1
1
1
1
1
1
1
1
1
1
1
1
1
1
1
1
1
1
1
1
1
1
1
1
1
1
1
1
1
1
1
1
1
1
1
1
1.00027
1.0177
1.18692
1.9312
2.9605
3.62587
1
1
1
1
1
1
1
1
1
1
1
1
1
1
1
1
1
1
1
1
1
1
1
1
1
1
1
1
1
1
1
1
1
1
1
1
1
1
1
1
1
1
1
1.00013
1.00529
1.11187
1.69175
2.86608
1
1
1
1
1
1
1
1
1
1
1
1
1
1
1
1
1
1
1
1
1
1
1
1
1
1
1
1
1
1
1
1
1
1
1
1
1
1
1
1
1
1
1
1
1.00002
1.00285
1.0629
1.48727
1
1
1
1
1
1
1
1
1
1
1
1
1
1
1
1
1
1
1
1
1
1
1
1
1
1
1
1
1
1
1
1
1
1
1
1
1
1
1
1
1
1
1
1
1
1.00001
1.00116
1.02148
1
1
1
1
1
1
1
1
1
1
1
1
1
1
1
1
1
1
1
1
1
1
1
1
1
1
1
1
1
1
1
1
1
1
1
1
1
1
1
1
1
1
1
1
1
1
1.00001
0.999803
1
1
1
1
1
1
1
1
1
1
1
1
1
1
1
1
1
1
1
1
1
1
1
1
1
1
1
1
1
1
1
1
1
1
1
1
1
1
1
1
1
1
1
1
1
1
1
0.999942
1
1
1
1
1
1
1
1
1
1
1
1
1
1
1
1
1
1
1
1
1
1
1
1
1
1
1
1
1
1
1
1
1
1
1
1
1
1
1
1
1
1
1
1
1
1
1
0.999992
1
1
1
1
1
1
1
1
1
1
1
1
1
1
1
1
1
1
1
1
1
1
1
1
1
1
1
1
1
1
1
1
1
1
1
1
1
1
1
1
1
1
1
1
1
1
1
1
1
1
1
1
1
1
1
1
1
1
1
1
1
1
1
1
1
1
1
1
1
1
1
1
1
1
1
1
1
1
1
1
1
1
1
1
1
1
1
1
1
1
1
1
1
1
1
1
1
1
1
1
1
1
1
1
1
1
1
1
1
1
1
1
1
1
1
1
1
1
1
1
1
1
1
1
1
1
1
1
1
1
1
1
1
1
1
1
1
1
1
1
1
1
1
1
1
1
1
1
1
1
1
1
1
1
1
1
1
1
1
1
1
1
1
1
1
1
1
1
1
1
1
1
1
1
1
1
1
1
1
1
1
1
1
1
1
1
1
1
1
1
1
1
1
1
1
1
1
1
1
1
1
1
1
1
1
1
1
1
1
1
1
1
1
1
1
1
1
1
1
1
1
1
1
1
1
1
1
1
1
1
1
1
1
1
1
1
1
1
1
1
1
1
1
1
1
1
1
1
1
1
1
1
1
1
1
1
1
1
1
1
1
1
1
1
1
1
1
1
1
1
1
1
1
1
1
1
1
1
1
1
1
1
1
1
1
1
1
1
1
1
1
1
1
1
1
1
1
1
1
1
1
1
1
1
1
1
1
1
1
1
1
1
1
1
1
1
1
1
1
1
1
1
1
1
1
1
1
1
1
1
1
1
1
1
1
0.999992
1
1
1
1
1
1
1
1
1
1
1
1
1
1
1
1
1
1
1
1
1
1
1
1
1
1
1
1
1
1
1
1
1
1
1
1
1
1
1
1
1
1
1
1
1
1
1
0.999942
1
1
1
1
1
1
1
1
1
1
1
1
1
1
1
1
1
1
1
1
1
1
1
1
1
1
1
1
1
1
1
1
1
1
1
1
1
1
1
1
1
1
1
1
1
1
1.00001
0.999803
1
1
1
1
1
1
1
1
1
1
1
1
1
1
1
1
1
1
1
1
1
1
1
1
1
1
1
1
1
1
1
1
1
1
1
1
1
1
1
1
1
1
1
1
1
1.00001
1.00116
1.02148
1
1
1
1
1
1
1
1
1
1
1
1
1
1
1
1
1
1
1
1
1
1
1
1
1
1
1
1
1
1
1
1
1
1
1
1
1
1
1
1
1
1
1
1
1.00002
1.00285
1.0629
1.48728
1
1
1
1
1
1
1
1
1
1
1
1
1
1
1
1
1
1
1
1
1
1
1
1
1
1
1
1
1
1
1
1
1
1
1
1
1
1
1
1
1
1
1
1.00013
1.00529
1.11187
1.69175
2.86608
1
1
1
1
1
1
1
1
1
1
1
1
1
1
1
1
1
1
1
1
1
1
1
1
1
1
1
1
1
1
1
1
1
1
1
1
1
1
1
1
1
1
1.00027
1.0177
1.18692
1.9312
2.9605
3.62587
1
1
1
1
1
1
1
1
1
1
1
1
1
1
1
1
1
1
1
1
1
1
1
1
1
1
1
1
1
1
1
1
1
1
1
1
1
1
1
0.999999
1.00001
1.00203
1.0365
1.35613
2.18544
3.27976
3.6265
3.67633
1
1
1
1
1
1
1
1
1
1
1
1
1
1
1
1
1
1
1
1
1
1
1
1
1
1
1
1
1
1
1
1
1
1
1
1
1
1
0.999999
1.00015
1.00577
1.10557
1.60507
2.60932
3.28228
3.60582
3.76208
3.77067
1
1
1
1
1
1
1
1
1
1
1
1
1
1
1
1
1
1
1
1
1
1
1
1
1
1
1
1
1
1
1
1
1
1
1
1
1
1.00001
1.00081
1.02569
1.2383
1.94635
2.9119
3.51999
3.77996
3.80237
3.79116
3.77965
1
1
1
1
1
1
1
1
1
1
1
1
1
1
1
1
1
1
1
1
1
1
1
1
1
1
1
1
1
1
1
1
1
1
1
0.999998
1.00007
1.00637
1.0833
1.50493
2.37936
3.24752
3.69251
3.73277
3.75197
3.75313
3.74591
3.74257
1
1
1
1
1
1
1
1
1
1
1
1
1
1
1
1
1
1
1
1
1
1
1
1
1
1
1
1
1
1
1
1
0.999999
0.999999
1
1.00159
1.02455
1.24024
1.9074
2.92116
3.45486
3.57743
3.66529
3.73797
3.7629
3.76684
3.76525
3.76056
1
1
1
1
1
1
1
1
1
1
1
1
1
1
1
1
1
1
1
1
1
1
1
1
1
1
1
1
1
1
1
1
0.999996
1.00041
1.00802
1.12246
1.56291
2.45038
3.14744
3.54081
3.7349
3.77854
3.77928
3.79173
3.79537
3.79139
3.78506
3.77682
1
1
1
1
1
1
1
1
1
1
1
1
1
1
1
1
1
1
1
1
1
1
1
1
1
1
1
1
1
1
0.999997
1.00009
1.00307
1.06358
1.3356
2.10393
2.93054
3.50003
3.74161
3.74888
3.77118
3.78565
3.78648
3.78385
3.7838
3.78221
3.77797
3.77205
1
1
1
1
1
1
1
1
1
1
1
1
1
1
1
1
1
1
1
1
1
1
1
1
1
1
1
0.999999
0.999999
1.00001
1.00155
1.03559
1.21494
1.84558
2.66161
3.40733
3.66109
3.68815
3.7101
3.71274
3.72186
3.74011
3.75734
3.76835
3.77534
3.77857
3.77862
3.77363
1
1
1
1
1
1
1
1
1
1
1
1
1
1
1
1
1
1
1
1
1
1
1
1
1
0.999998
0.999999
0.999992
1.00115
1.01865
1.15367
1.6735
2.47834
3.26731
3.49208
3.60123
3.69164
3.73112
3.73806
3.7428
3.75058
3.76383
3.77565
3.78279
3.78469
3.7846
3.78278
3.77688
1
1
1
1
1
1
1
1
1
1
1
1
1
1
1
1
1
1
1
1
1
1
1
0.999998
0.999999
0.999989
1.00081
1.01117
1.13667
1.55829
2.34632
3.02686
3.44069
3.66743
3.7452
3.75452
3.76648
3.77523
3.77711
3.7785
3.77683
3.77548
3.77778
3.78037
3.78336
3.78457
3.78214
3.77791
1
1
1
1
1
1
1
1
1
1
1
1
1
1
1
1
1
1
1
1
1
0.999999
0.999999
0.999989
1.00038
1.00974
1.12964
1.4785
2.25505
2.96389
3.49274
3.70498
3.73676
3.74884
3.76204
3.76048
3.7609
3.76904
3.77422
3.77461
3.77215
3.7697
3.76764
3.7678
3.77041
3.77252
3.77324
3.77224
1
1
1
1
1
1
1
1
1
1
1
1
1
1
1
1
1
1
1
0.999998
0.999998
0.999988
1.00025
1.01234
1.10284
1.46909
2.22515
2.96497
3.51911
3.6567
3.69311
3.70717
3.7076
3.71274
3.72186
3.73347
3.74666
3.75887
3.76472
3.76633
3.76596
3.76776
3.76867
3.76836
3.76924
3.77126
3.77387
3.77337
1
1
1
1
1
1
1
1
1
1
1
1
1
1
1
1
1
0.999998
0.999998
0.999985
1.00037
1.01302
1.1007
1.52134
2.19168
3.06016
3.47236
3.59389
3.67127
3.67935
3.702
3.71342
3.71654
3.72571
3.7404
3.7553
3.7699
3.77685
3.77904
3.77925
3.77804
3.77764
3.77685
3.77558
3.77467
3.77482
3.77574
3.77536
1
1
1
1
1
1
1
1
1
1
1
1
1
1
1
0.999998
0.999998
0.999979
1.0005
1.01028
1.12744
1.56696
2.29278
3.08593
3.41565
3.64006
3.73992
3.76282
3.75657
3.73803
3.73332
3.73549
3.74076
3.75055
3.76208
3.77259
3.78159
3.78681
3.78692
3.78501
3.78201
3.77809
3.77458
3.77306
3.7724
3.77201
3.77262
3.77384
1
1
1
1
1
1
1
1
1
1
1
1
1
0.999998
0.999998
0.999974
1.00044
1.01226
1.1595
1.5721
2.44114
3.09437
3.56904
3.78244
3.80633
3.78668
3.75864
3.75003
3.74342
3.73781
3.73275
3.73185
3.74013
3.75043
3.75749
3.76272
3.76767
3.77535
3.78001
3.77975
3.77853
3.77626
3.77549
3.77529
3.77499
3.77465
3.77533
3.77634
1
1
1
1
1
1
1
1
1
1
1
0.999997
0.999998
0.999969
1.00037
1.02398
1.17923
1.67201
2.51889
3.24704
3.78514
3.86364
3.83469
3.80549
3.76776
3.73209
3.71201
3.7067
3.7099
3.7177
3.73099
3.74735
3.75585
3.75941
3.75829
3.75884
3.76156
3.76833
3.77377
3.77465
3.77389
3.77312
3.77287
3.77312
3.77333
3.77378
3.77405
3.77832
1
1
1
1
1
1
1
1
1
0.999997
0.999997
0.999952
1.00094
1.02931
1.2034
1.84836
2.65618
3.54561
3.8468
3.84955
3.8493
3.78929
3.73598
3.70857
3.69074
3.68779
3.69396
3.70812
3.72655
3.74614
3.76305
3.77229
3.773
3.77211
3.77087
3.76916
3.76796
3.76993
3.77433
3.77478
3.77315
3.77095
3.7687
3.76699
3.76614
3.76634
3.76697
3.77217
1
1
1
1
1
1
1
0.999999
1
0.999919
1.00239
1.03717
1.3105
1.95582
2.90285
3.67401
3.88215
4.02289
4.00293
3.9359
3.81219
3.71428
3.69011
3.68078
3.68267
3.69041
3.71055
3.73508
3.75844
3.7773
3.78367
3.78392
3.78088
3.77751
3.77705
3.77655
3.77548
3.77674
3.78017
3.78245
3.78223
3.78023
3.77672
3.77108
3.76688
3.76601
3.76617
3.76719
1
1
1
1
0.999998
1
0.999977
1.00011
1.00519
1.07335
1.43635
2.12135
3.20604
3.72633
4.05896
4.02986
3.94713
3.92249
3.85285
3.80333
3.77624
3.74394
3.72918
3.71814
3.72034
3.72904
3.74447
3.75744
3.76445
3.76988
3.773
3.77301
3.77205
3.77032
3.76913
3.76723
3.76638
3.76853
3.7732
3.77903
3.7829
3.78323
3.78122
3.77703
3.77192
3.77027
3.77064
3.77178
1
0.999976
1.00007
1.00004
1.0013
1.01339
1.06044
1.22438
1.59662
2.37297
3.29011
3.94946
4.3067
4.31658
4.2417
4.11934
3.98674
3.79615
3.68698
3.68376
3.69749
3.71545
3.73399
3.74062
3.7405
3.73952
3.74579
3.74893
3.75167
3.75633
3.76202
3.76677
3.76788
3.76695
3.76495
3.76379
3.76487
3.76793
3.77347
3.78119
3.78745
3.78884
3.78769
3.78477
3.77904
3.77297
3.77137
3.77256
1.00166
1.0147
1.07944
1.19841
1.41083
1.76823
2.21398
2.75217
3.32405
3.72198
3.88265
4.08931
4.05641
3.95142
3.84028
3.79037
3.73819
3.68786
3.67564
3.67251
3.68618
3.70495
3.72098
3.73065
3.73767
3.74548
3.75261
3.75626
3.76039
3.76751
3.77492
3.78076
3.78282
3.78151
3.77711
3.77242
3.77084
3.77184
3.77386
3.77658
3.77924
3.77967
3.77871
3.77636
3.77165
3.76856
3.76804
3.76947
1.28975
1.76228
2.30255
2.88344
3.59885
4.14373
4.67108
5.12671
5.34049
5.23912
4.91511
4.48848
4.10093
3.79114
3.65721
3.57339
3.55073
3.56605
3.6057
3.64925
3.68534
3.70276
3.71535
3.72844
3.74205
3.75452
3.76413
3.77177
3.78091
3.79209
3.79807
3.79803
3.7947
3.78728
3.77792
3.77024
3.76563
3.76352
3.76376
3.76445
3.7665
3.76982
3.77031
3.77052
3.77118
3.77085
3.77019
3.77156
2.66065
1.73032
1.07023
0.805286
0.757491
0.692427
0.671036
0.70504
0.781058
0.829818
0.856129
0.908626
0.970101
0.9936
0.986508
0.985112
0.998186
0.998825
0.989236
0.98498
0.983361
0.981615
0.976883
0.970973
0.963903
0.951291
0.938143
0.934103
0.933506
0.933425
0.931538
0.927781
0.925047
0.923158
0.918461
0.91078
0.907825
0.907343
0.907726
0.908458
0.907913
0.90632
0.904707
0.902933
0.900531
0.899203
0.898484
0.897784
0.897351
0.896707
0.895669
0.893655
0.889645
0.885478
0.883314
0.882431
0.882215
0.882047
0.880912
0.878021
0.874901
0.872359
0.868899
0.863383
0.856429
0.848998
0.842393
0.838729
0.836938
0.835468
0.835884
0.848425
0.893301
1.00792
1.20883
1.5396
1.89435
2.30297
2.70004
3.05268
3.38656
3.70372
3.97768
4.20635
4.38901
4.53206
4.65302
4.77277
4.78654
4.73425
4.65876
4.52594
4.32395
4.19871
4.11995
4.00923
3.86869
3.74295
3.59924
3.44852
3.33892
3.26599
3.20445
3.14592
3.0884
3.05588
3.04739
3.05684
3.07377
3.07632
3.05049
2.98685
2.93188
2.90308
2.87615
2.84303
2.80209
2.75909
2.71866
2.67858
2.64217
2.61215
2.58478
2.55514
2.51921
2.48391
2.4694
2.46208
2.45834
2.4679
2.47271
2.44919
2.41349
2.37193
2.31575
2.25037
2.19312
2.15091
2.13504
2.13686
2.14128
2.13866
2.13694
2.13346
2.11013
2.06181
2.04118
2.03651
2.03592
2.05254
2.0914
2.13703
2.19546
2.27385
2.31224
2.26322
2.18554
2.0792
1.9311
1.78118
1.6498
1.52312
1.37842
1.24384
1.14454
1.08919
1.07201
1.0699
1.0698
1.07024
1.07053
1.07042
1.0703
1.07046
1.0712
1.07255
1.07314
1.07316
1.07315
1.07315
1.07292
1.0721
1.07083
1.06989
1.06954
1.06956
1.0697
1.06979
1.06981
1.06943
1.06722
1.05815
3.35899
2.77742
2.22278
1.69132
1.46159
1.30631
1.11209
1.03785
0.999483
0.943695
0.8903
0.88519
0.907065
0.913125
0.912738
0.919881
0.943852
0.951057
0.947568
0.947923
0.95829
0.964472
0.963022
0.957443
0.953159
0.946554
0.937905
0.93613
0.936801
0.938326
0.936857
0.932335
0.928828
0.926772
0.923278
0.918135
0.914268
0.911546
0.90942
0.907479
0.905053
0.903325
0.902292
0.901227
0.899905
0.898676
0.897592
0.896101
0.894436
0.893539
0.892813
0.891319
0.889238
0.888036
0.886822
0.885022
0.882699
0.881549
0.880376
0.877798
0.873863
0.869637
0.865597
0.861219
0.855302
0.849125
0.842054
0.838599
0.843687
0.866191
0.941079
1.09552
1.33597
1.55303
1.79694
1.94529
2.05007
2.11285
2.18851
2.28694
2.40228
2.53679
2.68503
2.80895
2.92118
3.03853
3.14627
3.28263
3.41995
3.51677
3.57688
3.56123
3.52741
3.53984
3.57515
3.57118
3.57827
3.59221
3.5674
3.50918
3.44407
3.38186
3.32771
3.27911
3.21829
3.17063
3.14826
3.14427
3.14476
3.14232
3.12238
3.07901
3.01733
2.96028
2.91679
2.87723
2.83522
2.79155
2.74943
2.70982
2.67767
2.65122
2.62425
2.5944
2.56109
2.52461
2.50188
2.4912
2.48183
2.47657
2.4726
2.45146
2.42051
2.38584
2.3436
2.29655
2.25416
2.21966
2.20486
2.20553
2.21025
2.20864
2.20609
2.1986
2.16395
2.10131
2.06716
2.05846
2.05189
2.0463
2.03205
2.00879
1.98552
1.97535
1.95895
1.90877
1.83642
1.74496
1.65422
1.57426
1.50139
1.43952
1.40753
1.37975
1.33114
1.2489
1.15035
1.0873
1.0712
1.06993
1.06992
1.07007
1.07008
1.07034
1.07133
1.07283
1.07329
1.07328
1.07325
1.07328
1.07311
1.07243
1.07127
1.0703
1.06994
1.06991
1.06999
1.07003
1.0699
1.06908
1.06663
1.0581
3.66231
3.32793
2.87782
2.37504
1.95345
1.68262
1.4119
1.20259
1.11751
1.0333
0.924921
0.903122
0.915123
0.905136
0.891526
0.894119
0.90191
0.912353
0.914245
0.921593
0.942584
0.953193
0.951323
0.946006
0.943203
0.939471
0.936206
0.937108
0.94238
0.945998
0.944614
0.939748
0.933464
0.927888
0.923645
0.920295
0.917018
0.913973
0.910877
0.906425
0.901132
0.899516
0.898917
0.898396
0.898284
0.899227
0.900223
0.899477
0.897083
0.893525
0.890557
0.888738
0.888074
0.887901
0.887141
0.885992
0.88476
0.883392
0.881339
0.877924
0.873121
0.867556
0.862059
0.857611
0.852945
0.851684
0.863039
0.905743
1.03265
1.2222
1.49164
1.77527
1.93637
2.04565
2.1487
2.13656
2.13354
2.12645
2.12098
2.09889
2.06901
2.05774
2.06113
2.07018
2.07591
2.09505
2.15327
2.25126
2.38672
2.55813
2.7424
2.89831
3.03284
3.15662
3.26852
3.3483
3.38233
3.4062
3.41075
3.39819
3.34719
3.29817
3.2708
3.24081
3.19226
3.16309
3.15887
3.16599
3.16659
3.18489
3.18305
3.15899
3.10437
3.03319
2.97123
2.91879
2.86055
2.80476
2.75519
2.70945
2.68089
2.65876
2.63394
2.60556
2.57137
2.53805
2.51591
2.50179
2.4912
2.48363
2.47583
2.45967
2.43515
2.4032
2.3666
2.33214
2.30242
2.27303
2.25394
2.24865
2.2459
2.2351
2.21679
2.18155
2.11857
2.04699
2.01856
2.01142
2.00667
2.00391
1.99808
1.97531
1.90627
1.79373
1.70546
1.63186
1.55931
1.49846
1.46081
1.43977
1.42802
1.42028
1.41233
1.40541
1.39904
1.38164
1.33558
1.24409
1.13643
1.08037
1.07034
1.0697
1.06961
1.06991
1.07123
1.07304
1.07348
1.07349
1.07349
1.07344
1.07295
1.07199
1.07081
1.07004
1.06981
1.06979
1.06983
1.06981
1.06959
1.0688
1.06638
1.05775
3.74989
3.61538
3.32163
2.91233
2.46769
2.13228
1.83309
1.53777
1.40609
1.29692
1.12074
1.04766
1.02858
0.979692
0.919911
0.907911
0.908462
0.892936
0.881223
0.885164
0.900137
0.908805
0.90976
0.911568
0.919471
0.928106
0.928055
0.931452
0.939127
0.940457
0.938537
0.934512
0.931539
0.929582
0.928502
0.927605
0.92612
0.924062
0.920333
0.913297
0.904012
0.900624
0.900004
0.899819
0.89866
0.89809
0.898674
0.898663
0.896909
0.891328
0.887888
0.887207
0.886811
0.886751
0.887211
0.886607
0.885451
0.883967
0.881854
0.878549
0.873351
0.867428
0.861601
0.863081
0.879967
0.941826
1.09414
1.3553
1.6508
1.909
2.08477
2.15343
2.20055
2.2071
2.18753
2.15613
2.146
2.13984
2.11596
2.06975
2.01922
1.98162
1.95799
1.92786
1.89067
1.84263
1.80888
1.80607
1.81321
1.83243
1.87636
1.92853
1.98819
2.06858
2.14479
2.26348
2.38439
2.51094
2.65111
2.75351
2.80722
2.84029
2.85002
2.86999
2.88202
2.87131
2.87844
2.92581
2.94279
2.9682
3.0047
3.01342
2.99916
2.95281
2.89819
2.85891
2.83235
2.80868
2.77781
2.74543
2.72844
2.71401
2.69689
2.67555
2.64155
2.59411
2.55557
2.5287
2.50792
2.48536
2.45474
2.41597
2.37921
2.34525
2.31412
2.28955
2.26636
2.2323
2.18386
2.15145
2.13051
2.10721
2.07671
2.03274
1.96904
1.90051
1.85487
1.82556
1.79773
1.76112
1.70692
1.63349
1.55851
1.49814
1.45227
1.42144
1.40753
1.40063
1.39448
1.38702
1.38478
1.38852
1.39483
1.40325
1.40562
1.4036
1.39646
1.37588
1.31892
1.21264
1.11049
1.07309
1.06934
1.06955
1.07118
1.07321
1.07364
1.0737
1.07374
1.07367
1.07306
1.07179
1.07059
1.07002
1.06988
1.06986
1.06988
1.06983
1.0696
1.06879
1.06619
1.05729
3.76025
3.72908
3.58981
3.30685
2.90779
2.56501
2.23872
1.90468
1.70645
1.56504
1.35203
1.19933
1.14052
1.07541
0.967717
0.927912
0.925274
0.903572
0.882623
0.885964
0.892786
0.888793
0.88242
0.882422
0.88743
0.901834
0.912446
0.921536
0.930944
0.932039
0.930783
0.928381
0.927199
0.925184
0.92409
0.925045
0.925143
0.923953
0.920052
0.913269
0.907029
0.90535
0.905013
0.905248
0.903952
0.901306
0.899538
0.898148
0.895591
0.889313
0.88562
0.884898
0.884643
0.884429
0.883817
0.882542
0.881099
0.879557
0.878271
0.877334
0.874704
0.878298
0.900079
0.989164
1.18417
1.45704
1.75366
2.04615
2.13506
2.20818
2.26506
2.27278
2.25636
2.21557
2.17215
2.14536
2.1252
2.09153
2.04795
2.00356
1.95506
1.9293
1.91056
1.88494
1.85925
1.82374
1.76443
1.73756
1.73155
1.72833
1.71917
1.7025
1.69362
1.68288
1.64525
1.63476
1.65305
1.69882
1.76823
1.84887
1.931
2.01744
2.09489
2.1535
2.22578
2.30396
2.35919
2.4407
2.55664
2.65864
2.75998
2.87
2.93279
2.91954
2.87282
2.82769
2.79902
2.77629
2.75022
2.72697
2.71377
2.69908
2.68359
2.66029
2.6216
2.57193
2.53202
2.50566
2.48615
2.46476
2.43623
2.3989
2.3476
2.29923
2.27366
2.25647
2.23424
2.19906
2.14783
2.07386
1.99974
1.93631
1.86982
1.79541
1.72311
1.66307
1.61177
1.56049
1.50562
1.45459
1.41952
1.40245
1.39316
1.39651
1.39611
1.38472
1.38303
1.38181
1.3785
1.37132
1.36335
1.35992
1.36044
1.36367
1.37332
1.38757
1.39397
1.3927
1.38287
1.35493
1.28349
1.16929
1.08951
1.07209
1.07171
1.0731
1.07377
1.07387
1.07397
1.07394
1.0731
1.07134
1.07025
1.07007
1.07008
1.07013
1.07011
1.07002
1.06974
1.06881
1.06584
1.05656
3.76904
3.75353
3.71044
3.56331
3.26571
2.94542
2.62845
2.2813
2.02952
1.83809
1.6314
1.44534
1.34807
1.25895
1.12207
1.06249
1.04277
1.00104
0.937897
0.930443
0.923286
0.900929
0.877508
0.87395
0.875731
0.877372
0.883076
0.894741
0.908585
0.912177
0.912463
0.914325
0.917378
0.919134
0.919806
0.920676
0.921233
0.921288
0.918535
0.911491
0.907946
0.90769
0.908265
0.909689
0.908495
0.905348
0.902418
0.89927
0.895328
0.891188
0.887985
0.886691
0.88577
0.88448
0.881998
0.878959
0.876535
0.875817
0.876092
0.88261
0.916898
1.04285
1.2619
1.59754
1.89414
2.14138
2.22427
2.2532
2.27897
2.30149
2.29809
2.27913
2.23885
2.18884
2.13437
2.09341
2.05405
2.01545
1.98986
1.95797
1.90756
1.88797
1.87426
1.85507
1.83466
1.80661
1.75724
1.7045
1.68841
1.68425
1.66699
1.64333
1.63559
1.62619
1.59514
1.53717
1.5174
1.5182
1.51355
1.50283
1.50505
1.51776
1.52398
1.52541
1.53626
1.55112
1.57785
1.62118
1.7081
1.835
1.96768
2.10143
2.24491
2.33332
2.3486
2.35415
2.37573
2.38136
2.37089
2.36362
2.36316
2.36331
2.3618
2.34844
2.32439
2.29051
2.2502
2.2105
2.17307
2.13724
2.10029
2.0577
2.01261
1.97723
1.95145
1.9285
1.90074
1.85812
1.79117
1.7043
1.61839
1.54579
1.48938
1.44835
1.41988
1.39629
1.37126
1.34729
1.33387
1.33162
1.33551
1.34336
1.3542
1.37099
1.36609
1.35875
1.35842
1.35655
1.35286
1.34913
1.34628
1.34398
1.34146
1.33926
1.3392
1.34314
1.35596
1.37394
1.38175
1.37919
1.36481
1.32486
1.23739
1.13119
1.08051
1.07406
1.074
1.07407
1.07423
1.0741
1.07294
1.07098
1.07009
1.07009
1.07024