/*--------------------------------*- C++ -*----------------------------------*\
  =========                 |
  \\      /  F ield         | OpenFOAM: The Open Source CFD Toolbox
   \\    /   O peration     | Website:  https://openfoam.org
    \\  /    A nd           | Version:  7
     \\/     M anipulation  |
\*---------------------------------------------------------------------------*/
FoamFile
{
    version     2.0;
    format      ascii;
    class       volScalarField;
    location    "0.5";
    object      T;
}
// * * * * * * * * * * * * * * * * * * * * * * * * * * * * * * * * * * * * * //

dimensions      [0 0 0 1 0 0 0];

internalField   nonuniform List<scalar> 
18432
(
1
1
1
1
1
1
1
1
1
1
1
1
1
1
1
1
1
1
1
1
1
1
1
1
1
1
1
1
1
1
1
1
1
1
1
1
1
1
1
1
1
1
1
1
1
1
1
1
1
1
1
1
1
1
1
1
1
1
1
1
1
1
1
1
1
1
1
1
1
1
1
1
1
1
1
1
1
1
1
1
1
1
1
1
1
1
1
1
1
1
1
1
1
1
1
1
1
1
1
1
1
1
1
1
1
1
1
1
1
1
1
1
1
1
1
1
1
1
1
1
1
1
1
1
1
1
1
1
1
1
1
1
1
1
1
1
1
1
1
1
1
1
1
1
1
1
1
1
1
1
1
1
1
1
1
1
1
1
1
1
1
1
1
1
1
1
1
1
1
1
1
1
1
1
1
1
1
1
1
1
1
1
1
1
1
1
1
1
1
1
1
1
1
1
1
1
1
1
1
1
1
1
1
1
1
1
1
1
1
1
1
1
1
1
1
1
1
1
1
1
1
1
1
1
1
1
1
1
1
1
1
1
1
1
1
1
1
1
1
1
1
1
1
1
1
1
1
1
1
1
1
1
1
1
1
1
1
1
1
1
1
1
1
1
1
1
1
1
1
1
1
1
1
1
1
1
1
1
1
1
1
1
1
1
1
1
1
1
1
1
1
1
1
1
1
1
1
1
1
1
1
1
1
1
1
1
1
1
1
1
1
1
1
1
1
1
1
1
1
1
1
1
1
1
1
1
1
1
1
1
1
1
1
1
1
1
1
1
1
1
1
1
1
1
1
1
1
1
1
1
1
1
1
1
1
1
1
1
1
1
1
1
1
1
1
1
1
1
1
1
1
1
1
1
1
1
1
1
1
1
1
1
1
1
1
1
1
1
1
1
1
1
1
1
1
1
1
1
1
1
1
1
1
1
1
1
1
1
1
1
1
1
1
1
1
1
1
1
1
1
1
1
1
1
1
1
1
1
1
1
1
1
1
1
1
1
1
1
1
1
1
1
1
1
1
1
1
1
1
1
1
1
1
1
1
1
1
1
1
1
1
1
1
1
1
1
1
1
1
1
1
1
1
1
1
1
1
1
1
1
1
1
1
1
1
1
1
1
1
1
1
1
1
1
1
1
1
1
1
1
1
1
1
1
1
1
1
1
1
1
1
1
1
1
1
1
1
1
1
1
1
1
1
1
1
1
1
1
1
1
1
1
1
1
1
1
1
1
1
1
1
1
1
1
1
1
1
1
1
1
1
1
1
1
1
1
1
1
1
1
1
1
1
1
1
1
1
1
1
1
1
1
1
1
1
1
1
1
1
1
1
1
1
1
1
1
1
1
1
1
1
1
1
1
1
1
1
1
1
1
1
1
1
1
1
1
1
1
1
1
1
1
1
1
1
1
1
1
1
1
1
1
1
1
1
1
1
1
1
1
1
1
1
1
1
1
1
1
1
1
1
1
1
1
1
1
1
1
1
1
1
1
1
1
1
1
1
1
1
1
1
1
1
1
1
1
1
1
1
1
1
1
1
1
1
1
1
1
1
1
1
1
1
1
1
1
1
1
1
1
1
1
1
1
1
1
1
1
1
1
1
1
1
1
1
1
1
1
1
1
1
1
1
1
1
1
1
1
1
1
1
1
1
1
1
1
1
1
1
1
1
1
1
1
1
1
1
1
1
1
1
1
1
1
1
1
1
1
1
1
1
1
1
1
1
1
1
1
1
1
1
1
1
1
1
1
1
1
1
1
1
1
1
1
1
1
1
1
1
1
1
1
1
1
1
1
1
1
1
1
1
1
1
1
1
1
1
1
1
1
1
1
1
1
1
1
1
1
1
1
1
1
1
1
1
1
1
1
1
1
1
1
1
1
1
1
1
1
1
1
1
1
1
1
1
1
1
1
1
1
1
1
1
1
1
1
1
1
1
1
1
1
1
1
1
1
1
1
1
1
1
1
1
1
1
1
1
1
1
1
1
1
1
1
1
1
1
1
1
1
1
1
1
1
1
1
1
1
1
1
1
1
1
1
1
1
1
1
1
1
1
1
1
1
1
1
1
1
1
1
1
1
1
1
1
1
1
1
1
1
1
1
1
1
1
1
1
1
1
1
1
1
1
1
1
1
1
1
1
1
1
1
1
1
1
1
1
1
1
1
1
1
1
1
1
1
1
1
1
1
1
1
1
1
1
1
1
1
1
1
1
1
1
1
1
1
1
1
1
1
1
1
1
1
1
1
1
1
1
1
1
1
1
1
1
1
1
1
1
1
1
1
1
1
1
1
1
1
1
1
1
1
1
1
1
1
1
1
1
1
1
1
1
1
1
1
1
1
1
1
1
1
1
1
1
1
1
1
1
1
1
1
1
1
1
1
1
1
1
1
1
1
1
1
1
1
1
1
1
1
1
1
1
1
1
1
1
1
1
1
1
1
1
1
1
1
1
1
1
1
1
1
1
1
1
1
1
1
1
1
1
1
1
1
1
1
1
1
1
1
1
1
1
1
1
1
1
1
1
1
1
1
1
1
1
1
1
1
1
1
1
1
1
1
1
1
1
1
1
1
1
1
1
1
1
1
1
1
1
1
1
1
1
1
1
1
1
1
1
1
1
1
1
1
1
1
1
1
1
1
1
1
1
1
1
1
1
1
1
1
1
1
1
1
1
1
1
1
1
1
1
1
1
1
1
1
1
1
1
1
1
1
1
1
1
1
1
1
1
1
1
1
1
1
1
1
1
1
1
1
1
1
1
1
1
1
1
1
1
1
1
1
1
1
1
1
1
1
1
1
1
1
1
1
1
1
1
1
1
1
1
1
1
1
1
1
1
1
1
1
1
1
1
1
1
1
1
1
1
1
1
1
1
1
1
1
1
1
1
1
1
1
1
1
1
1
1
1
1
1
1
1
1
1
1
1
1
1
1
1
1
1
1
1
1
1
1
1
1
1
1
1
1
1
1
1
1
1
1
1
1
1
1
1
1
1
1
1
1
1
1
1
1
1
1
1
1
1
1
1
1
1
1
1
1
1
1
1
1
1
1
1
1
1
1
1
1
1
1
1
1
1
1
1
1
1
1
1
1
1
1
1
1
1
1
1
1
1
1
1
1
1
1
1
1
1
1
1
1
1
1
1
1
1
1
1
1
1
1
1
1
1
1
1
1
1
1
1
1
1
1
1
1
1
1
1
1
1
1
1
1
1
1
1
1
1
1
1
1
1
1
1
1
1
1
1
1
1
1
1
1
1
1
1
1
1
1
1
1
1
1
1
1
1
1
1
1
1
1
1
1
1
1
1
1
1
1
1
1
1
1
1
1
1
1
1
1
1
1
1
1
1
1
1
1
1
1
1
1
1
1
1
1
1
1
1
1
1
1
1
1
1
1
1
1
1
1
1
1
1
1
1
1
1
1
1
1
1
1
1
1
1
1
1
1
1
1
1
1
1
1
1
1
1
1
1
1
1
1
1
1
1
1
1
1
1
1
1
1
1
1
1
1
1
1
1
1
1
1
1
1
1
1
1
1
1
1
1
1
1
1
1
1
1
1
1
1
1
1
1
1
1
1
1
1
1
1
1
1
1
1
1
1
1
1
1
1
1
1
1
1
1
1
1
1
1
1
1
1
1
1
1
1
1
1
1
1
1
1
1
1
1
1
1
1
1
1
1
1
1
1
1
1
1
1
1
1
1
1
1
1
1
1
1
1
1
1
1
1
1
1
1
1
1
1
1
1
1
1
1
1
1
1
1
1
1
1
1
1
1
1
1
1
1
1
1
1
1
1
1
1
1
1
1
1
1
1
1
1
1
1
1
1
1
1
1
1
1
1
1
1
1
1
1
1
1
1
1
1
1
1
1
1
1
1
1
1
1
1
1
1
1
1
1
1
1
1
1
1
1
1
1
1
1
1
1
1
1
1
1
1
1
1
1
1
1
1
1
1
1
1
1
1
1
1
1
1
1
1
1
1
1
1
1
1
1
1
1
1
1
1
1
1
1
1
1
1
1
1
1
1
1
1
1
1
1
1
1
1
1
1
1
1
1
1
1
1
1
1
1
1
1
1
1
1
1
1
1
1
1
1
1
1
1
1
1
1
1
1
1
1
1
1
1
1
1
1
1
1
1
1
1
1
1
1
1
1
1
1
1
1
1
1
1
1
1
1
1
1
1
1
1
1
1
1
1
1
1
1
1
1
1
1
1
1
1
1
1
1
1
1
1
1
1
1
1
1
1
1
1
1
1
1
1
1
1
1
1
1
1
1
1
1
1
1
1
1
1
1
1
1
1
1
1
1
1
1
1
1
1
1
1
1
1
1
1
1
1
1
1
1
1
1
1
1
1
1
1
1
1
1
1
1
1
1
1
1
1
1
1
1
1
1
1
1
1
1
1
1
1
1
1
1
1
1
1
1
1
1
1
1
1
1
1
1
1
1
1
1
1
1
1
1
1
1
1
1
1
1
1
1
1
1
1
1
1
1
1
1
1
1
1
1
1
1
1
1
1
1
1
1
1
1
1
1
1
1
1
1
1
1
1
1
1
1
1
1
1
1
1
1
1
1
1
1
1
1
1
1
1
1
1
1
1
1
1
1
1
1
1
1
1
1
1
1
1
1
1
1
1
1
1
1
1
1
1
1
1
1
1
1
1
1
1
1
1
1
1
1
1
1
1
1
1
1
1
1
1
1
1
1
1
1
1
1
1
1
1
1
1
1
1
1
1
1
1
1
1
1
1
1
1
1
1
1
1
1
1
1
1
1
1
1
1
1
1
1
1
1
1
1
1
1
1
1
1
1
1
1
1
1
1
1
1
1
1
1
1
1
1
1
1
1
1
1
1
1
1
1
1
1
1
1
1
1
1
1
1
1
1
1
1
1
1
1
1
1
1
1
1
1
1
1
1
1
1
1
1
1
1
1
1
1
1
1
1
1
1
1
1
1
1
1
1
1
1
1
1
1
1
1
1
1
1
1
1
1
1
1
1
1
1
1
1
1
1
1
1
1
1
1
1
1
1
1
1
1
1
1
1
1
1
1
1
1
1
1
1
1
1
1
1
1
1
1
1
1
1
1
1
1
1
1
1
1
1
1
1
1
1
1
1
1
1
1
1
1
1
1
1
1
1
1
1
1
1
1
1
1
1
1
1
1
1
1
1
1
1
1
1
1
1
1
1
1
1
1
1
1
1
1
1
1
1
1
1
1
1
1
1
1
1
1
1
1
1
1
1
1
1
1
1
1
1
1
1
1
1
1
1
1
1
1
1
1
1
1
1
1
1
1
1
1
1
1
1
1
1
1
1
1
1
1
1
1
1
1
1
1
1
1
1
1
1
1
1
1
1
1
1
1
1
1
1
1
1
1
1
1
1
1
1
1
1
1
1
1
1
1
1
1
1
1
1
1
1
1
1
1
1
1
1
1
1
1
1
1
1
1
1
1
1
1
1
1
1
1
1
1
1
1
1
1
1
1
1
1
1
1
1
1
1
1
1
1
1
1
1
1
1
1
1
1
1
1
1
1
1
1
1
1
1
1
1
1
1
1
1
1
1
1
1
1
1
1
1
1
1
1
1
1
1
1
1
1
1
1
1
1
1
1
1
1
1
1
1
1
1
1
1
1
1
1
1
1
1
1
1
1
1
1
1
1
1
1
1
1
1
1
1
1
1
1
1
1
1
1
1
1
1
1
1
1
1
1
1
1
1
1
1
1
1
1
1
1
1
1
1
1
1
1
1
1
1
1
1
1
1
1
1
1
1
1
1
1
1
1
1
1
1
1
1
1
1
1
1
1
1
1
1
1
1
1
1
1
1
1
1
1
1
1
1
1
1
1
1
1
1
1
1
1
1
1
1
1
1
1
1
1
1
1
1
1
1
1
1
1
1
1
1
1
1
1
1
1
1
1
1
1
1
1
1
1
1
1
1
1
1
1
1
1
1
1
1
1
1
1
1
1
1
1
1
1
1
1
1
1
1
1
1
1
1
1
1
1
1
1
1
1
1
1
1
1
1
1
1
1
1
1
1
1
1
1
1
1
1
1
1
1
1
1
1
1
1
1
1
1
1
1
1
1
1
1
1
1
1
1
1
1
1
1
1
1
1
1
1
1
1
1
1
1
1
1
1
1
1
1
1
1
1
1
1
1
1
1
1
1
1
1
1
1
1
1
1
1
1
1
1
1
1
1
1
1
1
1
1
1
1
1
1
1
1
1
1
1
1
1
1
1
1
1
1
1
1
1
1
1
1
1
1
1
1
1
1
1
1
1
1
1
1
1
1
1
1
1
1
1
1
1
1
1
1
1
1
1
1
1
1
1
1
1
1
1
1
1
1
1
1
1
1
1
1
1
1
1
1
1
1
1
1
1
1
1
1
1
1
1
1
1
1
1
1
1
1
1
1
1
1
1
1
1
1
1
1
1
1
1
1
1
1
1
1
1
1
1
1
1
1
1
1
1
1
1
1
1
1
1
1
1
1
1
1
1
1
1
1
1
1
1
1
1
1
1
1
1
1
1
1
1
1
1
1
1
1
1
1
1
1
1
1
1
1
1
1
1
1
1
1
1
1
1
1
1
1
1
1
1
1
1
1
1
1
1
1
1
1
1
1
1
1
1
1
1
1
1
1
1
1
1
1
1
1
1
1
1
1
1
1
1
1
1
1
1
1
1
1
1
1
1
1
1
1
1
1
1
1
1
1
1
1
1
1
1
1
1
1
1
1
1
1
1
1
1
1
1
1
1
1
1
1
1
1
1
1
1
1
1
1
1
1
1
1
1
1
1
1
1
1
1
1
1
1
1
1
1
1
1
1
1
1
1
1
1
1
1
1
1
1
1
1
1
1
1
1
1
1
1
1
1
1
1
1
1
1
1
1
1
1
1
1
1
1
1
1
1
1
1
1
1
1
1
1
1
1
1
1
1
1
1
1
1
1
1
1
1
1
1
1
1
1
1
1
1.07789
1.18205
1.28236
1.37711
1.48064
1.55524
1.62036
1.67102
1.69499
1.68796
1.65844
1.61509
1.57476
1.54035
1.52478
1.51266
1.51242
1.5149
1.52035
1.52587
1.52998
1.5319
1.53361
1.5358
1.53822
1.54027
1.54144
1.54209
1.54314
1.54499
1.54626
1.54645
1.5464
1.54585
1.54477
1.5439
1.54356
1.54355
1.54387
1.54427
1.54468
1.5451
1.54526
1.54543
1.5457
1.54581
1.54584
1.54621
1.00053
1.00491
1.0274
1.06674
1.12916
1.21649
1.29906
1.37913
1.45272
1.50482
1.52724
1.56415
1.56823
1.56216
1.5523
1.54592
1.53972
1.5346
1.53417
1.53364
1.53507
1.53697
1.53877
1.5403
1.5417
1.54307
1.54393
1.54407
1.54441
1.54542
1.54661
1.54757
1.54796
1.54787
1.54734
1.54671
1.54655
1.54676
1.54723
1.54774
1.54803
1.54804
1.5479
1.54764
1.5472
1.54697
1.54695
1.54749
1
0.999992
1.00002
1.00002
1.00046
1.00466
1.02103
1.07541
1.18131
1.34955
1.49675
1.58565
1.62505
1.6228
1.61168
1.59706
1.58197
1.56011
1.54876
1.54796
1.54928
1.55084
1.55237
1.55277
1.55285
1.55287
1.5537
1.5536
1.55342
1.55349
1.55392
1.55454
1.55448
1.55425
1.55374
1.55316
1.55301
1.55314
1.55365
1.55444
1.5549
1.55483
1.55435
1.55368
1.5529
1.55224
1.55192
1.5528
1
1
1
1
0.999999
1
0.999991
1.00004
1.00188
1.02807
1.15617
1.33037
1.51263
1.57524
1.61067
1.60634
1.59538
1.59269
1.58508
1.57965
1.57595
1.57138
1.56852
1.56568
1.56542
1.5661
1.56774
1.56881
1.5689
1.56864
1.56823
1.56783
1.56737
1.56676
1.56605
1.56497
1.56407
1.56386
1.56399
1.56431
1.56433
1.56386
1.56287
1.56167
1.56076
1.56039
1.56
1.56082
1
1
1
1
1
1
1
1
1
0.999968
1.00088
1.01437
1.11469
1.29129
1.46938
1.57985
1.60479
1.61905
1.61573
1.60697
1.59165
1.57919
1.5751
1.57315
1.57257
1.57323
1.57526
1.57728
1.57901
1.58016
1.5804
1.5803
1.57969
1.57875
1.57796
1.57688
1.57588
1.57558
1.57563
1.57561
1.57511
1.57407
1.57267
1.57119
1.57024
1.56981
1.56912
1.56976
1
1
1
1
1
1
1
1
1
0.999999
0.999999
0.999981
1.00033
1.01095
1.07643
1.26514
1.42923
1.56278
1.59791
1.59638
1.59693
1.58973
1.58305
1.58064
1.57919
1.57802
1.57782
1.57837
1.57974
1.58179
1.58414
1.58506
1.58481
1.58411
1.58312
1.58224
1.58181
1.5819
1.58213
1.58198
1.5813
1.58029
1.57928
1.57852
1.57807
1.5778
1.57725
1.57806
1
1
1
1
1
1
1
1
1
1
1
0.999999
0.999999
0.999988
1.00012
1.00871
1.06662
1.21555
1.39526
1.5122
1.58606
1.59601
1.59317
1.59116
1.58702
1.5816
1.578
1.57788
1.57848
1.57974
1.58145
1.58311
1.58378
1.58357
1.58294
1.5829
1.58332
1.58419
1.5846
1.58449
1.58398
1.5834
1.58303
1.58287
1.58276
1.58264
1.5823
1.58276
1
1
1
1
1
1
1
1
1
1
1
1
1
0.999999
0.999999
0.99999
1.00014
1.00435
1.05809
1.1867
1.37493
1.48233
1.55313
1.58192
1.58434
1.58225
1.57993
1.57962
1.57898
1.57841
1.57808
1.57814
1.57941
1.58065
1.58149
1.58232
1.58325
1.58439
1.58488
1.58477
1.58437
1.58381
1.58371
1.58373
1.58372
1.5836
1.58355
1.58351
1
1
1
1
1
1
1
1
1
1
1
1
1
1
1
0.999999
0.999999
0.999992
1.00016
1.00361
1.04573
1.18313
1.34315
1.47479
1.52269
1.55551
1.57076
1.57507
1.57446
1.57299
1.57358
1.57424
1.57519
1.57665
1.57846
1.58026
1.58188
1.58295
1.58313
1.58309
1.58288
1.58258
1.58246
1.58252
1.58266
1.58273
1.58285
1.58286
1
1
1
1
1
1
1
1
1
1
1
1
1
1
1
1
1
0.999999
0.999999
0.999994
1.00012
1.00452
1.03603
1.16759
1.32069
1.46513
1.52613
1.5439
1.55642
1.55962
1.56354
1.56528
1.56612
1.56792
1.57052
1.57304
1.5752
1.5765
1.57741
1.57799
1.57845
1.57906
1.57957
1.57995
1.58033
1.58076
1.58134
1.58122
1
1
1
1
1
1
1
1
1
1
1
1
1
1
1
1
1
1
1
1
1
0.999995
1.00008
1.00421
1.0364
1.15033
1.32483
1.45125
1.5288
1.54744
1.55252
1.55655
1.55844
1.56045
1.56213
1.56372
1.5656
1.56769
1.56958
1.57079
1.57169
1.5727
1.57346
1.5741
1.57496
1.57597
1.57734
1.57727
1
1
1
1
1
1
1
1
1
1
1
1
1
1
1
1
1
1
1
1
1
1
1
0.999996
1.00012
1.0033
1.04562
1.15358
1.32717
1.44534
1.52077
1.54946
1.5564
1.55964
1.56122
1.56094
1.56117
1.56286
1.56487
1.56604
1.5667
1.56704
1.56734
1.56803
1.5693
1.5706
1.57215
1.57214
1
1
1
1
1
1
1
1
1
1
1
1
1
1
1
1
1
1
1
1
1
1
1
0.999999
1
0.999996
1.00026
1.0038
1.04713
1.17503
1.34119
1.4528
1.51207
1.54424
1.55489
1.55591
1.55743
1.55944
1.56086
1.56224
1.56275
1.56284
1.5633
1.56406
1.56528
1.56655
1.56774
1.56754
1
1
1
1
1
1
1
1
1
1
1
1
1
1
1
1
1
1
1
1
1
1
1
1
1
0.999999
1
0.999997
1.00036
1.00639
1.05253
1.20287
1.36505
1.48729
1.51871
1.53367
1.54515
1.55122
1.55328
1.55498
1.55664
1.55809
1.55911
1.56012
1.56117
1.56227
1.56322
1.56284
1
1
1
1
1
1
1
1
1
1
1
1
1
1
1
1
1
1
1
1
1
1
1
1
1
1
1
1
1
1
1.0005
1.01217
1.07265
1.24252
1.3986
1.50953
1.53987
1.54317
1.54733
1.54916
1.55089
1.55281
1.55449
1.55583
1.55751
1.55901
1.55955
1.55909
1
1
1
1
1
1
1
1
1
1
1
1
1
1
1
1
1
1
1
1
1
1
1
1
1
1
1
1
1
1
0.999999
1.00003
1.001
1.02172
1.11025
1.29769
1.43921
1.51998
1.55243
1.55329
1.55578
1.55713
1.55696
1.55659
1.55719
1.55772
1.55756
1.55697
1
1
1
1
1
1
1
1
1
1
1
1
1
1
1
1
1
1
1
1
1
1
1
1
1
1
1
1
1
1
1
1
0.999999
1.00012
1.00266
1.04187
1.17436
1.36014
1.47204
1.52609
1.55211
1.5563
1.55566
1.55696
1.55815
1.55822
1.55795
1.557
1
1
1
1
1
1
1
1
1
1
1
1
1
1
1
1
1
1
1
1
1
1
1
1
1
1
1
1
1
1
1
1
1
1
1
1.0005
1.00832
1.07976
1.25621
1.43849
1.51626
1.5308
1.5417
1.55092
1.55463
1.55553
1.55539
1.55471
1
1
1
1
1
1
1
1
1
1
1
1
1
1
1
1
1
1
1
1
1
1
1
1
1
1
1
1
1
1
1
1
1
1
1
0.999999
1.00002
1.00204
1.02856
1.15692
1.34896
1.4892
1.54766
1.55114
1.55378
1.55409
1.55316
1.55255
1
1
1
1
1
1
1
1
1
1
1
1
1
1
1
1
1
1
1
1
1
1
1
1
1
1
1
1
1
1
1
1
1
1
1
1
1
1
1.00025
1.00849
1.07983
1.26291
1.43928
1.52625
1.55875
1.56042
1.559
1.55752
1
1
1
1
1
1
1
1
1
1
1
1
1
1
1
1
1
1
1
1
1
1
1
1
1
1
1
1
1
1
1
1
1
1
1
1
1
1
1
1.00004
1.00188
1.03543
1.18463
1.38952
1.49215
1.53637
1.5566
1.55743
1
1
1
1
1
1
1
1
1
1
1
1
1
1
1
1
1
1
1
1
1
1
1
1
1
1
1
1
1
1
1
1
1
1
1
1
1
1
1
1
1
1.00062
1.01232
1.11443
1.31143
1.49456
1.54082
1.54602
1
1
1
1
1
1
1
1
1
1
1
1
1
1
1
1
1
1
1
1
1
1
1
1
1
1
1
1
1
1
1
1
1
1
1
1
1
1
1
1
1
1
1.00008
1.00571
1.06203
1.25986
1.44725
1.5415
1
1
1
1
1
1
1
1
1
1
1
1
1
1
1
1
1
1
1
1
1
1
1
1
1
1
1
1
1
1
1
1
1
1
1
1
1
1
1
1
1
1
1
1.00004
1.00168
1.03715
1.20546
1.43109
1
1
1
1
1
1
1
1
1
1
1
1
1
1
1
1
1
1
1
1
1
1
1
1
1
1
1
1
1
1
1
1
1
1
1
1
1
1
1
1
1
1
1
1
1
1.00087
1.02102
1.14903
1
1
1
1
1
1
1
1
1
1
1
1
1
1
1
1
1
1
1
1
1
1
1
1
1
1
1
1
1
1
1
1
1
1
1
1
1
1
1
1
1
1
1
1
1
1
1.00035
1.00699
1
1
1
1
1
1
1
1
1
1
1
1
1
1
1
1
1
1
1
1
1
1
1
1
1
1
1
1
1
1
1
1
1
1
1
1
1
1
1
1
1
1
1
1
1
1
1
0.999932
1
1
1
1
1
1
1
1
1
1
1
1
1
1
1
1
1
1
1
1
1
1
1
1
1
1
1
1
1
1
1
1
1
1
1
1
1
1
1
1
1
1
1
1
1
1
1
0.999982
1
1
1
1
1
1
1
1
1
1
1
1
1
1
1
1
1
1
1
1
1
1
1
1
1
1
1
1
1
1
1
1
1
1
1
1
1
1
1
1
1
1
1
1
1
1
1
0.999998
1
1
1
1
1
1
1
1
1
1
1
1
1
1
1
1
1
1
1
1
1
1
1
1
1
1
1
1
1
1
1
1
1
1
1
1
1
1
1
1
1
1
1
1
1
1
1
1
1
1
1
1
1
1
1
1
1
1
1
1
1
1
1
1
1
1
1
1
1
1
1
1
1
1
1
1
1
1
1
1
1
1
1
1
1
1
1
1
1
1
1
1
1
1
1
1
1
1
1
1
1
1
1
1
1
1
1
1
1
1
1
1
1
1
1
1
1
1
1
1
1
1
1
1
1
1
1
1
1
1
1
1
1
1
1
1
1
1
1
1
1
1
1
1
1
1
1
1
1
1
1
1
1
1
1
1
1
1
1
1
1
1
1
1
1
1
1
1
1
1
1
1
1
1
1
1
1
1
1
1
1
1
1
1
1
1
1
1
1
1
1
1
1
1
1
1
1
1
1
1
1
1
1
1
1
1
1
1
1
1
1
1
1
1
1
1
1
1
1
1
1
1
1
1
1
1
1
1
1
1
1
1
1
1
1
1
1
1
1
1
1
1
1
1
1
1
1
1
1
1
1
1
1
1
1
1
1
1
1
1
1
1
1
1
1
1
1
1
1
1
1
1
1
1
1
1
1
1
1
1
1
1
1
1
1
1
1
1
1
1
1
1
1
1
1
1
1
1
1
1
1
1
1
1
1
1
1
1
1
1
1
1
1
1
1
1
1
1
1
1
1
1
1
1
1
1
1
1
1
1
1
1
1
1
1
0.999998
1
1
1
1
1
1
1
1
1
1
1
1
1
1
1
1
1
1
1
1
1
1
1
1
1
1
1
1
1
1
1
1
1
1
1
1
1
1
1
1
1
1
1
1
1
1
1
0.999982
1
1
1
1
1
1
1
1
1
1
1
1
1
1
1
1
1
1
1
1
1
1
1
1
1
1
1
1
1
1
1
1
1
1
1
1
1
1
1
1
1
1
1
1
1
1
1
0.999932
1
1
1
1
1
1
1
1
1
1
1
1
1
1
1
1
1
1
1
1
1
1
1
1
1
1
1
1
1
1
1
1
1
1
1
1
1
1
1
1
1
1
1
1
1
1
1.00035
1.00699
1
1
1
1
1
1
1
1
1
1
1
1
1
1
1
1
1
1
1
1
1
1
1
1
1
1
1
1
1
1
1
1
1
1
1
1
1
1
1
1
1
1
1
1
1
1.00087
1.02102
1.14903
1
1
1
1
1
1
1
1
1
1
1
1
1
1
1
1
1
1
1
1
1
1
1
1
1
1
1
1
1
1
1
1
1
1
1
1
1
1
1
1
1
1
1
1.00004
1.00168
1.03715
1.20546
1.43109
1
1
1
1
1
1
1
1
1
1
1
1
1
1
1
1
1
1
1
1
1
1
1
1
1
1
1
1
1
1
1
1
1
1
1
1
1
1
1
1
1
1
1.00008
1.00571
1.06203
1.25986
1.44725
1.5415
1
1
1
1
1
1
1
1
1
1
1
1
1
1
1
1
1
1
1
1
1
1
1
1
1
1
1
1
1
1
1
1
1
1
1
1
1
1
1
1
1
1.00062
1.01232
1.11443
1.31143
1.49456
1.54082
1.54602
1
1
1
1
1
1
1
1
1
1
1
1
1
1
1
1
1
1
1
1
1
1
1
1
1
1
1
1
1
1
1
1
1
1
1
1
1
1
1
1.00004
1.00188
1.03543
1.18463
1.38952
1.49215
1.53637
1.5566
1.55743
1
1
1
1
1
1
1
1
1
1
1
1
1
1
1
1
1
1
1
1
1
1
1
1
1
1
1
1
1
1
1
1
1
1
1
1
1
1
1.00025
1.00849
1.07983
1.26291
1.43928
1.52625
1.55875
1.56042
1.559
1.55752
1
1
1
1
1
1
1
1
1
1
1
1
1
1
1
1
1
1
1
1
1
1
1
1
1
1
1
1
1
1
1
1
1
1
1
0.999999
1.00002
1.00204
1.02856
1.15692
1.34896
1.48921
1.54766
1.55114
1.55378
1.55409
1.55316
1.55255
1
1
1
1
1
1
1
1
1
1
1
1
1
1
1
1
1
1
1
1
1
1
1
1
1
1
1
1
1
1
1
1
1
1
1
1.0005
1.00832
1.07976
1.25621
1.43849
1.51626
1.5308
1.5417
1.55092
1.55463
1.55553
1.55539
1.55471
1
1
1
1
1
1
1
1
1
1
1
1
1
1
1
1
1
1
1
1
1
1
1
1
1
1
1
1
1
1
1
1
0.999999
1.00012
1.00266
1.04187
1.17436
1.36014
1.47204
1.52609
1.55211
1.5563
1.55566
1.55696
1.55815
1.55822
1.55795
1.557
1
1
1
1
1
1
1
1
1
1
1
1
1
1
1
1
1
1
1
1
1
1
1
1
1
1
1
1
1
1
0.999999
1.00003
1.001
1.02172
1.11026
1.29769
1.43921
1.51998
1.55243
1.55329
1.55578
1.55713
1.55696
1.55659
1.55719
1.55772
1.55756
1.55697
1
1
1
1
1
1
1
1
1
1
1
1
1
1
1
1
1
1
1
1
1
1
1
1
1
1
1
1
1
1
1.0005
1.01217
1.07265
1.24252
1.3986
1.50953
1.53987
1.54317
1.54733
1.54916
1.55089
1.55281
1.55449
1.55583
1.55751
1.55901
1.55955
1.55909
1
1
1
1
1
1
1
1
1
1
1
1
1
1
1
1
1
1
1
1
1
1
1
1
1
0.999999
1
0.999997
1.00036
1.00639
1.05253
1.20287
1.36505
1.48729
1.51871
1.53367
1.54515
1.55122
1.55328
1.55498
1.55664
1.55809
1.55911
1.56012
1.56117
1.56227
1.56322
1.56284
1
1
1
1
1
1
1
1
1
1
1
1
1
1
1
1
1
1
1
1
1
1
1
0.999999
1
0.999996
1.00026
1.0038
1.04713
1.17503
1.34119
1.4528
1.51207
1.54424
1.55489
1.55591
1.55743
1.55944
1.56086
1.56224
1.56275
1.56284
1.5633
1.56406
1.56528
1.56655
1.56774
1.56754
1
1
1
1
1
1
1
1
1
1
1
1
1
1
1
1
1
1
1
1
1
1
1
0.999996
1.00012
1.0033
1.04562
1.15358
1.32717
1.44534
1.52077
1.54946
1.5564
1.55964
1.56122
1.56094
1.56117
1.56286
1.56487
1.56604
1.5667
1.56704
1.56734
1.56803
1.5693
1.5706
1.57215
1.57214
1
1
1
1
1
1
1
1
1
1
1
1
1
1
1
1
1
1
1
1
1
0.999995
1.00008
1.00421
1.0364
1.15033
1.32483
1.45125
1.5288
1.54744
1.55252
1.55655
1.55844
1.56045
1.56213
1.56372
1.5656
1.56769
1.56958
1.57079
1.57169
1.5727
1.57346
1.5741
1.57496
1.57597
1.57734
1.57727
1
1
1
1
1
1
1
1
1
1
1
1
1
1
1
1
1
0.999999
0.999999
0.999994
1.00012
1.00452
1.03603
1.16759
1.32069
1.46513
1.52613
1.5439
1.55643
1.55962
1.56354
1.56528
1.56612
1.56792
1.57052
1.57304
1.5752
1.5765
1.57741
1.57799
1.57845
1.57906
1.57957
1.57995
1.58033
1.58076
1.58134
1.58122
1
1
1
1
1
1
1
1
1
1
1
1
1
1
1
0.999999
0.999999
0.999992
1.00016
1.00361
1.04573
1.18313
1.34315
1.47479
1.52269
1.55551
1.57076
1.57507
1.57446
1.57299
1.57358
1.57424
1.57519
1.57665
1.57846
1.58026
1.58188
1.58295
1.58313
1.58309
1.58288
1.58258
1.58246
1.58252
1.58266
1.58273
1.58285
1.58286
1
1
1
1
1
1
1
1
1
1
1
1
1
0.999999
0.999999
0.99999
1.00014
1.00435
1.05809
1.1867
1.37493
1.48233
1.55312
1.58192
1.58434
1.58225
1.57993
1.57962
1.57898
1.57841
1.57808
1.57814
1.57941
1.58065
1.58149
1.58232
1.58325
1.58439
1.58488
1.58477
1.58437
1.58381
1.58371
1.58373
1.58372
1.5836
1.58355
1.58351
1
1
1
1
1
1
1
1
1
1
1
0.999999
0.999999
0.999988
1.00012
1.00871
1.06662
1.21555
1.39526
1.5122
1.58606
1.59601
1.59317
1.59116
1.58702
1.5816
1.578
1.57788
1.57848
1.57974
1.58145
1.58311
1.58378
1.58357
1.58294
1.5829
1.58332
1.58419
1.5846
1.58449
1.58398
1.5834
1.58303
1.58287
1.58276
1.58264
1.5823
1.58276
1
1
1
1
1
1
1
1
1
0.999999
0.999999
0.999981
1.00033
1.01095
1.07643
1.26514
1.42923
1.56278
1.59791
1.59638
1.59693
1.58973
1.58305
1.58064
1.57919
1.57802
1.57782
1.57837
1.57974
1.58179
1.58414
1.58506
1.58481
1.58411
1.58312
1.58224
1.58181
1.5819
1.58213
1.58198
1.5813
1.58029
1.57928
1.57852
1.57807
1.57779
1.57725
1.57806
1
1
1
1
1
1
1
1
1
0.999968
1.00088
1.01437
1.11469
1.29129
1.46938
1.57985
1.60479
1.61905
1.61573
1.60697
1.59165
1.57919
1.5751
1.57315
1.57257
1.57323
1.57526
1.57728
1.57901
1.58016
1.5804
1.5803
1.57969
1.57875
1.57796
1.57688
1.57588
1.57558
1.57563
1.57561
1.57511
1.57407
1.57267
1.57119
1.57024
1.56981
1.56912
1.56976
1
1
1
1
0.999999
1
0.999991
1.00004
1.00188
1.02807
1.15617
1.33037
1.51263
1.57524
1.61067
1.60634
1.59538
1.59269
1.58508
1.57965
1.57595
1.57138
1.56852
1.56568
1.56542
1.5661
1.56774
1.56881
1.5689
1.56864
1.56823
1.56783
1.56737
1.56676
1.56605
1.56497
1.56407
1.56386
1.56399
1.56431
1.56433
1.56386
1.56287
1.56167
1.56076
1.56039
1.56
1.56082
1
0.999992
1.00002
1.00002
1.00046
1.00466
1.02103
1.07541
1.18131
1.34955
1.49675
1.58565
1.62505
1.6228
1.61168
1.59706
1.58197
1.56011
1.54876
1.54796
1.54928
1.55084
1.55237
1.55277
1.55285
1.55287
1.5537
1.5536
1.55342
1.55349
1.55392
1.55454
1.55448
1.55425
1.55374
1.55316
1.55301
1.55314
1.55365
1.55444
1.5549
1.55483
1.55435
1.55368
1.5529
1.55224
1.55192
1.5528
1.00053
1.00491
1.0274
1.06674
1.12916
1.21649
1.29906
1.37913
1.45272
1.50482
1.52724
1.56415
1.56823
1.56216
1.5523
1.54592
1.53972
1.5346
1.53417
1.53364
1.53507
1.53697
1.53877
1.5403
1.5417
1.54307
1.54393
1.54407
1.54441
1.54542
1.54661
1.54757
1.54796
1.54787
1.54734
1.54671
1.54655
1.54676
1.54723
1.54774
1.54803
1.54804
1.5479
1.54764
1.5472
1.54697
1.54695
1.54749
1.07789
1.18205
1.28236
1.37711
1.48064
1.55524
1.62036
1.67102
1.69499
1.68796
1.65844
1.61509
1.57476
1.54035
1.52478
1.51266
1.51242
1.5149
1.52035
1.52587
1.52998
1.5319
1.53361
1.5358
1.53822
1.54027
1.54144
1.54209
1.54314
1.54499
1.54626
1.54645
1.5464
1.54585
1.54477
1.5439
1.54356
1.54355
1.54387
1.54427
1.54468
1.5451
1.54526
1.54543
1.5457
1.54581
1.54584
1.54621
1.4032
1.24456
1.09293
1.00832
1.01123
1.0053
1.00035
1.01621
1.04727
1.05824
1.0615
1.07543
1.09588
1.10394
1.10095
1.09893
1.09987
1.09872
1.09504
1.09416
1.09361
1.09275
1.09058
1.08767
1.08437
1.07995
1.07622
1.07459
1.07381
1.07319
1.07173
1.06963
1.06861
1.0682
1.06694
1.06417
1.06238
1.06199
1.06207
1.06222
1.06194
1.06102
1.05994
1.05895
1.058
1.05755
1.05731
1.05705
1.05683
1.05646
1.05588
1.05492
1.05326
1.05148
1.05055
1.05032
1.05032
1.05031
1.05004
1.04925
1.04833
1.04739
1.04598
1.04373
1.04102
1.03829
1.03575
1.03417
1.03335
1.03264
1.03337
1.03909
1.0581
1.10301
1.17287
1.26836
1.34813
1.42261
1.48639
1.53843
1.58409
1.62371
1.65485
1.679
1.69709
1.71062
1.72229
1.73302
1.73464
1.72959
1.72304
1.71071
1.68855
1.6723
1.66178
1.64828
1.63172
1.61682
1.59924
1.58004
1.56483
1.55345
1.54339
1.53374
1.52418
1.51855
1.51577
1.51684
1.5185
1.51859
1.51451
1.50508
1.49738
1.49386
1.4904
1.48508
1.47684
1.46701
1.45756
1.44874
1.4413
1.43572
1.43119
1.42678
1.42135
1.41479
1.41064
1.40758
1.40541
1.40526
1.40452
1.39778
1.38918
1.38154
1.37342
1.36494
1.35772
1.35168
1.34808
1.34734
1.34589
1.34302
1.3413
1.34042
1.33751
1.33044
1.32668
1.32548
1.32512
1.32737
1.33332
1.33811
1.33991
1.33863
1.32267
1.28482
1.24358
1.21209
1.18841
1.1675
1.1466
1.12357
1.09458
1.0651
1.04102
1.02633
1.02152
1.02085
1.02075
1.02073
1.02062
1.02034
1.02007
1.01993
1.01992
1.02008
1.02016
1.02012
1.02007
1.02007
1.02004
1.01992
1.01969
1.01951
1.01945
1.01947
1.01954
1.01957
1.01957
1.01944
1.01878
1.01658
1.49981
1.42305
1.33603
1.23101
1.1818
1.14949
1.0997
1.08261
1.07383
1.05666
1.04559
1.04661
1.05651
1.05935
1.05917
1.06121
1.06752
1.0703
1.06975
1.07046
1.07482
1.07702
1.07646
1.0744
1.07274
1.07056
1.06818
1.06778
1.06789
1.068
1.0672
1.06519
1.06418
1.06385
1.06297
1.06115
1.05949
1.05841
1.05772
1.05717
1.05637
1.05545
1.05471
1.05411
1.05358
1.05327
1.05303
1.05264
1.05211
1.05167
1.05124
1.05052
1.04962
1.04899
1.04842
1.04781
1.04722
1.04702
1.04678
1.04608
1.04488
1.04344
1.04189
1.04013
1.03765
1.03533
1.03316
1.03203
1.03405
1.04319
1.07323
1.12965
1.20439
1.25968
1.317
1.34766
1.3654
1.37444
1.38782
1.40711
1.42804
1.44988
1.47224
1.48841
1.50171
1.51537
1.52744
1.54373
1.56075
1.57313
1.58131
1.57998
1.57602
1.57724
1.58276
1.58388
1.58648
1.59171
1.59
1.58413
1.57602
1.56701
1.55864
1.55103
1.54162
1.53396
1.53011
1.52877
1.52845
1.52772
1.5246
1.5184
1.50985
1.50215
1.49606
1.48951
1.48117
1.47171
1.46253
1.45419
1.44753
1.44226
1.43728
1.43218
1.42664
1.41996
1.41472
1.41152
1.40846
1.4058
1.40312
1.39684
1.38973
1.3836
1.37765
1.37171
1.36661
1.36188
1.35862
1.35767
1.35649
1.35384
1.35178
1.34976
1.34503
1.33629
1.33096
1.32942
1.32793
1.3261
1.32178
1.31263
1.29823
1.27932
1.25103
1.21441
1.1783
1.15393
1.13979
1.12873
1.11712
1.10595
1.10074
1.09621
1.0867
1.06829
1.04349
1.02593
1.02111
1.02057
1.0204
1.02022
1.02001
1.01991
1.01994
1.02015
1.02021
1.02015
1.02009
1.0201
1.0201
1.02001
1.01981
1.01962
1.01956
1.01957
1.01961
1.01963
1.01959
1.01935
1.01862
1.01655
1.53826
1.49641
1.43577
1.3584
1.28548
1.23223
1.17007
1.11755
1.09552
1.07214
1.04065
1.03686
1.04077
1.03705
1.03334
1.03462
1.03784
1.04171
1.04275
1.04545
1.05246
1.0564
1.05597
1.05453
1.05436
1.05403
1.05385
1.05456
1.05685
1.05808
1.05764
1.05617
1.05445
1.05295
1.05173
1.05068
1.04961
1.04869
1.04789
1.04677
1.04519
1.04445
1.04409
1.04383
1.04382
1.04433
1.04496
1.04485
1.04428
1.0432
1.04214
1.04144
1.04117
1.04109
1.04078
1.04045
1.04029
1.04011
1.03969
1.03879
1.03738
1.03558
1.03372
1.03224
1.0307
1.03077
1.03531
1.05237
1.10096
1.1631
1.23812
1.30453
1.33722
1.35915
1.37945
1.37656
1.3742
1.37158
1.36929
1.36375
1.35671
1.35291
1.35266
1.35326
1.35333
1.35679
1.36776
1.38625
1.41154
1.44166
1.47123
1.49571
1.51687
1.53581
1.55287
1.56525
1.57155
1.57611
1.57875
1.57753
1.57073
1.5635
1.55896
1.55368
1.54516
1.5385
1.53621
1.53554
1.53447
1.53539
1.53459
1.53073
1.523
1.51297
1.50362
1.4946
1.48387
1.47329
1.46388
1.45531
1.44932
1.44432
1.43881
1.43275
1.42599
1.41954
1.41474
1.41112
1.40774
1.40452
1.40111
1.39644
1.39132
1.38609
1.3809
1.37625
1.37223
1.36779
1.36375
1.36086
1.35816
1.35403
1.34955
1.34351
1.33443
1.3254
1.32374
1.32413
1.32436
1.32428
1.3216
1.31053
1.28297
1.23726
1.18977
1.15
1.12172
1.1072
1.10207
1.10092
1.10124
1.10211
1.10226
1.10226
1.10223
1.09953
1.08944
1.06741
1.03944
1.02353
1.02037
1.02001
1.01984
1.01977
1.01986
1.02019
1.02025
1.0202
1.02016
1.02014
1.02006
1.01992
1.01969
1.01955
1.01952
1.01953
1.01957
1.01957
1.01951
1.01927
1.01855
1.01644
1.55587
1.53694
1.49835
1.44175
1.37524
1.31883
1.26075
1.19735
1.16856
1.14136
1.09386
1.07277
1.06741
1.05257
1.03501
1.03277
1.03319
1.0284
1.0251
1.02646
1.03124
1.03387
1.03399
1.03457
1.03724
1.04076
1.04159
1.04324
1.04599
1.04655
1.04604
1.04515
1.04457
1.04412
1.04394
1.04379
1.04342
1.04291
1.04199
1.04007
1.0372
1.03616
1.03601
1.03595
1.03559
1.03559
1.03596
1.03606
1.03565
1.03401
1.03313
1.03303
1.03296
1.03301
1.03328
1.03319
1.03306
1.03288
1.03247
1.03159
1.03013
1.02861
1.02716
1.0279
1.0347
1.05849
1.11392
1.19583
1.2729
1.32826
1.36264
1.37637
1.38739
1.38995
1.38594
1.37997
1.37663
1.37454
1.36882
1.35832
1.34707
1.33869
1.33327
1.32665
1.31862
1.30833
1.30026
1.30043
1.30256
1.30761
1.31766
1.32954
1.34352
1.36185
1.38016
1.40608
1.43005
1.45379
1.47868
1.49507
1.50323
1.50816
1.50929
1.51213
1.51119
1.50595
1.50437
1.50842
1.50816
1.50892
1.51205
1.51275
1.51056
1.5034
1.49411
1.48628
1.48036
1.47528
1.46949
1.46359
1.45944
1.45529
1.45036
1.44447
1.43663
1.42753
1.42046
1.41511
1.41022
1.40432
1.39689
1.38878
1.38211
1.37677
1.37217
1.36846
1.36464
1.35836
1.34835
1.34009
1.33387
1.32775
1.32165
1.31506
1.30655
1.29825
1.29386
1.29127
1.28768
1.28027
1.26581
1.24137
1.20558
1.16262
1.12168
1.09703
1.08923
1.08823
1.08853
1.08968
1.09216
1.0955
1.0989
1.1021
1.10361
1.10392
1.10324
1.09886
1.08507
1.05872
1.03168
1.02092
1.01967
1.01962
1.01979
1.0202
1.02026
1.02024
1.02023
1.02022
1.02013
1.0199
1.01965
1.01954
1.01953
1.01955
1.01957
1.01957
1.01952
1.01927
1.01849
1.0163
1.56602
1.55933
1.53928
1.50074
1.44513
1.39357
1.33795
1.27577
1.23799
1.20832
1.15711
1.11655
1.10058
1.0823
1.05096
1.03873
1.03784
1.03059
1.02445
1.02594
1.02844
1.02711
1.02461
1.02441
1.02579
1.03033
1.03379
1.03685
1.0398
1.04006
1.03967
1.03919
1.03921
1.03891
1.0387
1.03905
1.03913
1.03892
1.03803
1.03629
1.03456
1.03405
1.03395
1.03406
1.03368
1.03292
1.03251
1.0322
1.03135
1.02921
1.02856
1.02866
1.02874
1.0287
1.02844
1.02799
1.02773
1.02756
1.02741
1.02741
1.02699
1.02864
1.03749
1.0717
1.13925
1.2178
1.29258
1.35741
1.37618
1.38937
1.40149
1.40438
1.40162
1.39499
1.38633
1.3801
1.3758
1.36889
1.35944
1.34912
1.33789
1.33157
1.32711
1.32142
1.31567
1.30778
1.29497
1.28929
1.28834
1.28802
1.2864
1.28278
1.28118
1.27944
1.27351
1.27456
1.28136
1.29491
1.31353
1.33403
1.35324
1.37124
1.38584
1.39695
1.41072
1.42331
1.43009
1.44172
1.45847
1.47197
1.48562
1.50389
1.51052
1.50728
1.49789
1.48876
1.48292
1.4784
1.47362
1.46894
1.46507
1.46044
1.45531
1.44847
1.43901
1.42882
1.42167
1.4169
1.41258
1.4071
1.39973
1.39098
1.38105
1.37293
1.36886
1.36592
1.36165
1.3543
1.34318
1.32748
1.31206
1.29935
1.28694
1.27393
1.26208
1.25303
1.24527
1.23627
1.22464
1.21129
1.19716
1.18214
1.15983
1.12845
1.09868
1.08584
1.08474
1.08495
1.08586
1.08713
1.08833
1.08973
1.09132
1.09337
1.09669
1.10066
1.10244
1.10226
1.09998
1.09293
1.07534
1.04689
1.0253
1.02013
1.01993
1.02015
1.02025
1.02026
1.0203
1.02033
1.0202
1.01982
1.01958
1.01956
1.01958
1.01962
1.01963
1.01962
1.01955
1.01927
1.01839
1.01609
1.57522
1.57111
1.56312
1.5418
1.50099
1.45546
1.4063
1.34901
1.30587
1.26866
1.22332
1.18069
1.15841
1.13574
1.09805
1.0809
1.07513
1.06241
1.04287
1.04111
1.03916
1.03204
1.02388
1.02233
1.02289
1.02346
1.02559
1.02978
1.0343
1.03516
1.03516
1.03576
1.03695
1.0375
1.0375
1.03767
1.03792
1.03808
1.03754
1.03582
1.03482
1.03469
1.03482
1.03526
1.0349
1.03395
1.03315
1.03228
1.03106
1.02973
1.0289
1.02879
1.02868
1.02831
1.02736
1.02616
1.02546
1.02551
1.02579
1.02856
1.04212
1.09023
1.16386
1.25641
1.325
1.37724
1.39677
1.40485
1.41136
1.41453
1.41354
1.41033
1.40353
1.39405
1.38328
1.37464
1.36632
1.3579
1.35143
1.34341
1.33157
1.32614
1.32246
1.31795
1.31335
1.30695
1.29596
1.2848
1.28157
1.28079
1.27716
1.27194
1.27069
1.26924
1.26328
1.25307
1.25154
1.2529
1.25291
1.25225
1.25312
1.25578
1.25625
1.25533
1.25805
1.26269
1.26898
1.27825
1.29737
1.32427
1.35135
1.37812
1.40435
1.41791
1.41757
1.41728
1.42024
1.42019
1.41768
1.41489
1.41342
1.41095
1.40803
1.4031
1.39599
1.38778
1.37982
1.37245
1.36474
1.35625
1.34675
1.33602
1.32547
1.31799
1.3131
1.30887
1.30334
1.29418
1.27926
1.25944
1.2397
1.22335
1.21095
1.20245
1.19751
1.19398
1.18984
1.18481
1.18067
1.17811
1.17409
1.16359
1.14129
1.11117
1.08709
1.08005
1.07995
1.0802
1.08115
1.08307
1.08527
1.08683
1.08759
1.08805
1.08878
1.09051
1.09399
1.09809
1.09955
1.09863
1.09456
1.08448
1.06326
1.03633
1.02228
1.02034
1.0203
1.0203
1.02038
1.0204
1.02022
1.01977
1.01955
1.01956
1.01963
1.01968
1.0197
1.01969
1.01958
1.01926
1.0183
1.01587
1.58149
1.5795
1.57529
1.5652
1.54139
1.50762
1.46415
1.41049
1.36938
1.33195
1.28132
1.24168
1.21448
1.18854
1.15172
1.12919
1.1142
1.09504
1.06821
1.05939
1.05252
1.04085
1.02948
1.02823
1.02878
1.02722
1.02695
1.02782
1.03021
1.02966
1.0293
1.03027
1.033
1.03634
1.03875
1.03908
1.03905
1.03895
1.03833
1.03715
1.03663
1.03631
1.03667
1.03715
1.03682
1.03587
1.03453
1.03353
1.033
1.03237
1.0319
1.03161
1.03114
1.03
1.02806
1.02691
1.02705
1.02988
1.0444
1.09564
1.18878
1.28266
1.36111
1.40658
1.41491
1.42561
1.43077
1.42706
1.42043
1.41733