/*--------------------------------*- C++ -*----------------------------------*\
  =========                 |
  \\      /  F ield         | OpenFOAM: The Open Source CFD Toolbox
   \\    /   O peration     | Website:  https://openfoam.org
    \\  /    A nd           | Version:  7
     \\/     M anipulation  |
\*---------------------------------------------------------------------------*/
FoamFile
{
    version     2.0;
    format      ascii;
    class       volVectorField;
    location    "0.5";
    object      U;
}
// * * * * * * * * * * * * * * * * * * * * * * * * * * * * * * * * * * * * * //

dimensions      [0 1 -1 0 0 0 0];

internalField   nonuniform List<vector> 
18432
(
(3 1.85668e-17 0)
(3 -8.35552e-17 0)
(3 -2.0352e-16 0)
(3 -4.80271e-17 0)
(3 -5.87033e-17 0)
(3 1.20037e-17 0)
(3 -2.31465e-16 0)
(3 -6.59824e-17 0)
(3 4.06277e-16 0)
(3 1.15586e-15 0)
(3 1.03052e-15 0)
(3 4.01506e-16 0)
(3 -6.4038e-16 0)
(3 -2.03253e-15 0)
(3 -5.3062e-16 0)
(3 6.46177e-16 0)
(3 1.03673e-15 0)
(3 -5.88034e-17 0)
(3 -1.02869e-15 0)
(3 -9.15704e-16 0)
(3 -5.18959e-16 0)
(3 -3.11742e-16 0)
(3 -1.69351e-15 0)
(3 -2.66388e-15 0)
(3 -3.03642e-15 0)
(3 -2.52882e-15 0)
(3 -8.85593e-16 0)
(3 -4.0084e-16 0)
(3 -2.28125e-16 0)
(3 5.11725e-16 0)
(3 2.65061e-16 0)
(3 2.7977e-16 0)
(3 2.68854e-16 0)
(3 6.88635e-17 0)
(3 -1.18719e-15 0)
(3 -4.88054e-15 0)
(3 -5.55688e-15 0)
(3 -3.64194e-15 0)
(3 -3.59259e-15 0)
(3 -3.68125e-15 0)
(3 -3.75576e-15 0)
(3 -3.90736e-15 0)
(3 -3.37428e-15 0)
(3 -1.17134e-15 0)
(3 8.78114e-16 0)
(3 2.08109e-15 0)
(3 2.79437e-15 0)
(3 2.31421e-15 0)
(3 1.22668e-16 0)
(3 5.78522e-17 0)
(3 1.32422e-16 0)
(3 4.09069e-16 0)
(3 4.60506e-16 0)
(3 8.40901e-16 0)
(3 4.06311e-16 0)
(3 6.22568e-16 0)
(3 1.15564e-15 0)
(3 9.40661e-16 0)
(3 5.59735e-16 0)
(3 -6.99669e-16 0)
(3 -1.58084e-15 0)
(3 -2.00205e-15 0)
(3 -1.25847e-15 0)
(3 4.44265e-16 0)
(3 6.39923e-16 0)
(3 -1.24808e-15 0)
(3 -2.15423e-15 0)
(3 -1.47773e-15 0)
(3 -1.38761e-15 0)
(3 -1.29924e-15 0)
(3 -2.49696e-15 0)
(3 -3.17416e-15 0)
(3 -2.76951e-15 0)
(3 -1.18058e-15 0)
(3 -5.613e-16 0)
(3 -3.91641e-16 0)
(3 -9.02935e-16 0)
(3 -2.31179e-16 0)
(3 1.93712e-17 0)
(3 7.46098e-16 0)
(3 5.45601e-16 0)
(3 -2.59821e-16 0)
(3 -3.48059e-15 0)
(3 -6.1031e-15 0)
(3 -5.29855e-15 0)
(3 -2.67332e-15 0)
(3 -1.34099e-15 0)
(3 -2.3122e-15 0)
(3 -2.42472e-15 0)
(3 -2.41252e-15 0)
(3 -1.46511e-15 0)
(3 3.79231e-15 0)
(3 8.41911e-15 0)
(3 6.72141e-15 0)
(3 5.5187e-15 0)
(3 3.81519e-15 0)
(3 1.16492e-16 0)
(3 7.2588e-16 0)
(3 9.55613e-16 0)
(3 6.18238e-16 0)
(3 6.42957e-16 0)
(3 7.19782e-16 0)
(3 1.02072e-15 0)
(3 1.56104e-15 0)
(3 1.47238e-15 0)
(3 8.1011e-17 0)
(3 -5.59168e-16 0)
(3 -9.35052e-16 0)
(3 -1.03859e-15 0)
(3 -2.00485e-15 0)
(3 -2.03346e-15 0)
(3 -8.88862e-16 0)
(3 -1.04977e-15 0)
(3 -2.07666e-15 0)
(3 -2.16074e-15 0)
(3 -1.78853e-15 0)
(3 -1.56052e-15 0)
(3 -1.62142e-15 0)
(3 -1.93727e-15 0)
(3 -2.25839e-15 0)
(3 -1.72621e-15 0)
(3 -2.27212e-15 0)
(3 -4.37733e-15 0)
(3 -5.06356e-15 0)
(3 -4.67502e-15 0)
(3 -2.35357e-15 0)
(3 8.3355e-16 0)
(3 1.9718e-15 0)
(3 1.61394e-15 0)
(3 -4.17306e-16 0)
(3 -1.97223e-15 0)
(3 -6.80725e-15 0)
(3 -9.6982e-15 0)
(3 -1.00601e-14 0)
(3 -8.7261e-15 0)
(3 -4.98112e-15 0)
(3 -4.295e-15 0)
(3 -3.17955e-15 0)
(3 -1.21194e-15 0)
(3 1.80156e-15 0)
(3 3.87068e-15 0)
(3 4.04623e-15 0)
(3 4.88557e-15 0)
(3 4.594e-15 0)
(3 -8.66444e-18 0)
(3 1.38374e-16 0)
(3 4.52259e-16 0)
(3 7.57686e-16 0)
(3 8.47433e-16 0)
(3 5.6055e-16 0)
(3 1.04721e-15 0)
(3 8.92919e-16 0)
(3 7.62084e-16 0)
(3 1.41584e-15 0)
(3 1.33061e-15 0)
(3 -2.58428e-16 0)
(3 -8.33114e-16 0)
(3 -1.74365e-15 0)
(3 -2.90311e-15 0)
(3 -2.95359e-15 0)
(3 -2.01312e-15 0)
(3 -1.13548e-15 0)
(3 -1.3073e-15 0)
(3 -1.07243e-15 0)
(3 -6.65077e-16 0)
(3 -7.26777e-17 0)
(3 -1.83875e-16 0)
(3 -6.52476e-16 0)
(3 -1.46143e-17 0)
(3 -5.96304e-16 0)
(3 -1.17868e-15 0)
(3 -1.91687e-15 0)
(3 -3.04157e-15 0)
(3 -8.32635e-18 0)
(3 1.59052e-15 0)
(3 3.41341e-15 0)
(3 3.01527e-15 0)
(3 1.3521e-15 0)
(3 4.87313e-17 0)
(3 -2.66607e-15 0)
(3 -4.83051e-15 0)
(3 -5.06894e-15 0)
(3 -7.6177e-15 0)
(3 -6.24042e-15 0)
(3 -3.80319e-15 0)
(3 -4.25568e-15 0)
(3 -3.32138e-15 0)
(3 8.70443e-16 0)
(3 3.87832e-15 0)
(3 4.05798e-15 0)
(3 3.84101e-15 0)
(3 3.09668e-15 0)
(3 2.14879e-16 0)
(3 3.83009e-16 0)
(3 4.15988e-16 0)
(3 7.18406e-16 0)
(3 8.41362e-16 0)
(3 7.60996e-16 0)
(3 3.85791e-16 0)
(3 -4.88493e-16 0)
(3 -6.77508e-16 0)
(3 -2.53673e-17 0)
(3 3.10112e-16 0)
(3 -4.1035e-17 0)
(3 -6.19868e-16 0)
(3 -1.31219e-15 0)
(3 -2.28535e-15 0)
(3 -2.31368e-15 0)
(3 -7.76501e-16 0)
(3 4.27098e-17 0)
(3 -9.46683e-17 0)
(3 2.9557e-17 0)
(3 1.31127e-16 0)
(3 3.66116e-16 0)
(3 1.32566e-16 0)
(3 -8.94574e-16 0)
(3 8.37734e-16 0)
(3 2.59715e-15 0)
(3 2.59957e-15 0)
(3 1.77006e-15 0)
(3 7.89067e-16 0)
(3 -2.08018e-16 0)
(3 -1.53556e-16 0)
(3 1.40459e-17 0)
(3 6.38733e-16 0)
(3 1.42482e-15 0)
(3 1.37689e-15 0)
(3 5.17617e-16 0)
(3 -1.42721e-15 0)
(3 -2.16305e-15 0)
(3 -5.0051e-15 0)
(3 -5.21566e-15 0)
(3 -5.07822e-15 0)
(3 -4.26085e-15 0)
(3 -2.02348e-15 0)
(3 5.43912e-17 0)
(3 1.53382e-15 0)
(3 1.63696e-15 0)
(3 1.10699e-15 0)
(3 1.43931e-15 0)
(3 1.76366e-16 0)
(3 3.98127e-16 0)
(3 6.55302e-16 0)
(3 6.35454e-16 0)
(3 4.36749e-16 0)
(3 5.41411e-16 0)
(3 1.04157e-16 0)
(3 -7.69116e-16 0)
(3 -1.21632e-15 0)
(3 -1.23382e-15 0)
(3 -8.82689e-16 0)
(3 -5.83675e-17 0)
(3 2.07777e-16 0)
(3 2.59169e-16 0)
(3 2.75859e-16 0)
(3 4.05566e-16 0)
(3 1.93842e-15 0)
(3 2.55318e-15 0)
(3 2.8905e-15 0)
(3 3.0313e-15 0)
(3 2.89085e-15 0)
(3 1.73025e-15 0)
(3 6.25304e-16 0)
(3 9.33276e-16 0)
(3 2.28188e-15 0)
(3 3.58474e-15 0)
(3 2.75928e-15 0)
(3 2.8307e-15 0)
(3 2.86085e-15 0)
(3 1.96238e-15 0)
(3 6.25246e-18 0)
(3 -8.60059e-16 0)
(3 -5.54617e-16 0)
(3 1.67643e-15 0)
(3 2.91343e-15 0)
(3 -3.49631e-17 0)
(3 -9.01173e-16 0)
(3 -2.79273e-15 0)
(3 -4.72793e-15 0)
(3 -5.09507e-15 0)
(3 -4.48468e-15 0)
(3 -3.07041e-15 0)
(3 -1.81664e-15 0)
(3 -8.58381e-16 0)
(3 -1.85018e-15 0)
(3 -5.11345e-16 0)
(3 1.81575e-16 0)
(3 3.84203e-16 0)
(3 -1.74243e-16 0)
(3 -3.09993e-16 0)
(3 -5.0286e-16 0)
(3 -4.13502e-16 0)
(3 -7.21005e-16 0)
(3 -3.28111e-16 0)
(3 -3.47414e-16 0)
(3 -5.95514e-16 0)
(3 -1.12855e-15 0)
(3 -1.4047e-15 0)
(3 -6.78102e-16 0)
(3 -7.49627e-17 0)
(3 2.02477e-17 0)
(3 2.0568e-15 0)
(3 3.08963e-15 0)
(3 3.38468e-15 0)
(3 3.83e-15 0)
(3 4.16847e-15 0)
(3 3.62068e-15 0)
(3 2.91642e-15 0)
(3 2.50845e-15 0)
(3 1.88717e-15 0)
(3 1.99115e-15 0)
(3 2.85518e-15 0)
(3 3.79608e-15 0)
(3 3.84974e-15 0)
(3 2.62906e-15 0)
(3 1.03095e-15 0)
(3 1.08503e-15 0)
(3 1.06808e-15 0)
(3 8.99368e-16 0)
(3 -1.99501e-16 0)
(3 2.60166e-17 0)
(3 2.90946e-16 0)
(3 9.22087e-16 0)
(3 -1.43917e-15 0)
(3 -1.73773e-15 0)
(3 -2.90207e-15 0)
(3 -3.63703e-15 0)
(3 -3.22291e-15 0)
(3 -2.11391e-15 0)
(3 -1.25083e-15 0)
(3 -8.02738e-16 0)
(3 -1.60435e-15 0)
(3 -2.7137e-15 0)
(3 -1.57811e-15 0)
(3 1.68324e-16 0)
(3 -1.77422e-17 0)
(3 -2.92495e-17 0)
(3 6.74633e-18 0)
(3 -5.38426e-16 0)
(3 -1.25741e-15 0)
(3 -9.63559e-16 0)
(3 -5.57268e-16 0)
(3 -8.03737e-17 0)
(3 -5.56698e-16 0)
(3 -7.35463e-16 0)
(3 -7.68681e-16 0)
(3 -4.52727e-17 0)
(3 2.75884e-16 0)
(3 9.91232e-17 0)
(3 1.11119e-15 0)
(3 2.96727e-15 0)
(3 3.37597e-15 0)
(3 2.28878e-15 0)
(3 3.03917e-15 0)
(3 4.09568e-15 0)
(3 4.07357e-15 0)
(3 3.11251e-15 0)
(3 3.22506e-15 0)
(3 3.44296e-15 0)
(3 4.26117e-15 0)
(3 4.45826e-15 0)
(3 2.75212e-15 0)
(3 -5.11333e-16 0)
(3 -1.82495e-15 0)
(3 -1.77567e-15 0)
(3 -7.2916e-16 0)
(3 -1.1019e-16 0)
(3 -6.75427e-16 0)
(3 -1.64597e-15 0)
(3 -3.02274e-15 0)
(3 -2.5557e-15 0)
(3 -1.87908e-15 0)
(3 -1.65093e-15 0)
(3 -1.58668e-15 0)
(3 -1.12913e-15 0)
(3 -6.79896e-16 0)
(3 8.29631e-16 0)
(3 1.19655e-15 0)
(3 9.36693e-16 0)
(3 -3.30098e-16 0)
(3 -1.12465e-15 0)
(3 -1.63965e-15 0)
(3 -1.83015e-15 0)
(3 -1.59729e-15 0)
(3 -3.79646e-17 0)
(3 -1.24156e-16 0)
(3 -3.55111e-16 0)
(3 -9.52448e-16 0)
(3 -5.84697e-16 0)
(3 -1.06508e-15 0)
(3 -1.3336e-15 0)
(3 -9.07429e-16 0)
(3 -7.11709e-16 0)
(3 -7.97713e-16 0)
(3 -5.83353e-16 0)
(3 -7.12756e-16 0)
(3 -5.67089e-16 0)
(3 -1.77363e-16 0)
(3 7.70356e-18 0)
(3 1.61122e-15 0)
(3 1.72015e-15 0)
(3 1.75054e-15 0)
(3 2.80371e-15 0)
(3 3.6646e-15 0)
(3 3.6498e-15 0)
(3 3.72264e-15 0)
(3 3.59527e-15 0)
(3 2.94861e-15 0)
(3 1.6371e-15 0)
(3 -2.49592e-16 0)
(3 -1.36689e-15 0)
(3 -2.95283e-16 0)
(3 1.22752e-15 0)
(3 2.01667e-15 0)
(3 -1.06717e-16 0)
(3 -5.40089e-16 0)
(3 -9.44736e-16 0)
(3 -2.56805e-15 0)
(3 -2.83484e-15 0)
(3 -2.17144e-15 0)
(3 -1.00102e-15 0)
(3 6.88221e-16 0)
(3 2.7705e-15 0)
(3 3.02544e-15 0)
(3 3.92579e-15 0)
(3 4.24601e-15 0)
(3 2.16695e-15 0)
(3 6.38804e-16 0)
(3 -6.9951e-16 0)
(3 -1.53479e-15 0)
(3 -1.60248e-15 0)
(3 -1.54434e-15 0)
(3 6.3848e-17 0)
(3 -1.96455e-16 0)
(3 -2.59475e-16 0)
(3 -5.85532e-17 0)
(3 -2.61573e-16 0)
(3 -1.01402e-15 0)
(3 -1.16192e-15 0)
(3 -9.27466e-16 0)
(3 -6.06742e-16 0)
(3 -7.69298e-16 0)
(3 -2.06083e-15 0)
(3 -2.90049e-15 0)
(3 -3.26151e-15 0)
(3 -2.91035e-15 0)
(3 -2.46392e-15 0)
(3 -1.98022e-15 0)
(3 -5.20727e-16 0)
(3 1.34997e-15 0)
(3 2.0754e-15 0)
(3 1.45107e-15 0)
(3 1.17489e-15 0)
(3 1.16702e-15 0)
(3 1.47879e-15 0)
(3 1.06598e-16 0)
(3 -2.78375e-15 0)
(3 -2.03193e-15 0)
(3 2.2819e-15 0)
(3 4.13445e-15 0)
(3 7.11721e-15 0)
(3 4.92215e-15 0)
(3 1.00543e-15 0)
(3 9.88416e-16 0)
(3 4.71259e-16 0)
(3 -8.92347e-16 0)
(3 -1.59075e-15 0)
(3 -1.49847e-15 0)
(3 2.72536e-16 0)
(3 2.419e-15 0)
(3 5.4965e-15 0)
(3 6.01099e-15 0)
(3 5.9321e-15 0)
(3 3.16377e-15 0)
(3 9.16844e-17 0)
(3 -1.03399e-15 0)
(3 -1.16613e-15 0)
(3 -1.53146e-15 0)
(3 -9.92021e-16 0)
(3 -1.0028e-15 0)
(3 3.19158e-16 0)
(3 6.53564e-16 0)
(3 5.91881e-16 0)
(3 5.50762e-16 0)
(3 -8.91901e-17 0)
(3 -1.12214e-16 0)
(3 -2.79165e-16 0)
(3 -4.53224e-16 0)
(3 -4.49161e-16 0)
(3 -4.59239e-16 0)
(3 -1.13042e-15 0)
(3 -2.95333e-15 0)
(3 -4.14267e-15 0)
(3 -5.51556e-15 0)
(3 -5.34327e-15 0)
(3 -2.54116e-15 0)
(3 -1.13578e-15 0)
(3 9.10779e-16 0)
(3 1.41231e-15 0)
(3 1.30196e-15 0)
(3 8.36941e-16 0)
(3 9.78047e-17 0)
(3 -2.29337e-16 0)
(3 -1.62282e-15 0)
(3 -3.55085e-15 0)
(3 -1.85548e-15 0)
(3 1.20503e-15 0)
(3 2.81681e-15 0)
(3 4.68828e-15 0)
(3 4.49213e-15 0)
(3 3.3249e-15 0)
(3 3.4215e-15 0)
(3 3.30865e-15 0)
(3 2.91608e-15 0)
(3 2.41466e-15 0)
(3 5.15647e-16 0)
(3 3.29328e-16 0)
(3 1.33809e-15 0)
(3 4.02833e-15 0)
(3 4.43375e-15 0)
(3 3.55359e-15 0)
(3 2.39297e-15 0)
(3 2.02747e-15 0)
(3 2.15186e-15 0)
(3 8.46401e-16 0)
(3 -1.08588e-15 0)
(3 -2.75471e-15 0)
(3 -3.32192e-15 0)
(3 -6.64714e-17 0)
(3 -6.07175e-17 0)
(3 8.35442e-17 0)
(3 -2.18335e-16 0)
(3 -7.01634e-16 0)
(3 -4.05346e-16 0)
(3 -3.85425e-17 0)
(3 -3.73857e-17 0)
(3 -4.12922e-16 0)
(3 -3.82938e-16 0)
(3 -4.21713e-16 0)
(3 -1.06084e-15 0)
(3 -2.11231e-15 0)
(3 -2.43738e-15 0)
(3 -3.49478e-15 0)
(3 -3.93521e-15 0)
(3 -3.12577e-15 0)
(3 -2.82488e-15 0)
(3 -1.73829e-15 0)
(3 3.78213e-16 0)
(3 1.34522e-15 0)
(3 6.4324e-16 0)
(3 -8.15906e-16 0)
(3 -1.79582e-15 0)
(3 -1.84198e-15 0)
(3 -2.85792e-16 0)
(3 9.66484e-16 0)
(3 2.41394e-15 0)
(3 3.35032e-15 0)
(3 5.08613e-15 0)
(3 5.77437e-15 0)
(3 5.54372e-15 0)
(3 5.50819e-15 0)
(3 6.15079e-15 0)
(3 7.56531e-15 0)
(3 6.88159e-15 0)
(3 6.3802e-15 0)
(3 4.61016e-15 0)
(3 2.98681e-15 0)
(3 3.55069e-15 0)
(3 3.95912e-15 0)
(3 3.3017e-15 0)
(3 2.51991e-15 0)
(3 2.5202e-15 0)
(3 1.43366e-15 0)
(3 -2.30805e-15 0)
(3 -5.12487e-15 0)
(3 -4.52699e-15 0)
(3 -1.34343e-16 0)
(3 -8.99254e-16 0)
(3 -7.75306e-16 0)
(3 -3.15126e-16 0)
(3 -1.34413e-16 0)
(3 -3.08639e-16 0)
(3 -1.70034e-16 0)
(3 -6.49712e-18 0)
(3 -4.67905e-16 0)
(3 -9.02497e-16 0)
(3 -1.75317e-15 0)
(3 -1.08083e-15 0)
(3 -8.72867e-16 0)
(3 -7.11934e-16 0)
(3 -1.93578e-15 0)
(3 -3.58407e-15 0)
(3 -3.63413e-15 0)
(3 -4.11907e-15 0)
(3 -3.06186e-15 0)
(3 -1.43139e-15 0)
(3 -1.20731e-15 0)
(3 -4.10081e-16 0)
(3 -5.39339e-16 0)
(3 1.25196e-16 0)
(3 8.60997e-16 0)
(3 2.10272e-15 0)
(3 3.99925e-15 0)
(3 5.17316e-15 0)
(3 5.52611e-15 0)
(3 5.3603e-15 0)
(3 4.40466e-15 0)
(3 2.05228e-15 0)
(3 1.21528e-15 0)
(3 2.26393e-15 0)
(3 3.55902e-15 0)
(3 3.28525e-15 0)
(3 3.00964e-15 0)
(3 2.30484e-15 0)
(3 1.27517e-15 0)
(3 1.67563e-15 0)
(3 1.64845e-15 0)
(3 7.05844e-16 0)
(3 6.37949e-16 0)
(3 4.21483e-16 0)
(3 -1.19504e-15 0)
(3 -2.65657e-15 0)
(3 -4.09216e-15 0)
(3 -4.45465e-15 0)
(3 2.47239e-17 0)
(3 -2.2803e-16 0)
(3 -5.65322e-16 0)
(3 -1.77599e-16 0)
(3 1.99139e-16 0)
(3 -1.057e-16 0)
(3 -8.24792e-16 0)
(3 -8.27487e-16 0)
(3 -9.70085e-16 0)
(3 -1.47876e-15 0)
(3 -2.48847e-15 0)
(3 -2.17714e-15 0)
(3 -5.78418e-16 0)
(3 8.69804e-17 0)
(3 3.7386e-16 0)
(3 -1.60005e-15 0)
(3 -1.8107e-15 0)
(3 -1.93165e-15 0)
(3 -1.72679e-15 0)
(3 -1.57713e-15 0)
(3 -8.97427e-16 0)
(3 -9.92544e-17 0)
(3 1.2558e-15 0)
(3 2.55254e-15 0)
(3 4.00273e-15 0)
(3 4.38601e-15 0)
(3 3.67791e-15 0)
(3 2.20778e-15 0)
(3 2.41957e-15 0)
(3 2.09302e-15 0)
(3 1.12483e-15 0)
(3 1.431e-15 0)
(3 1.76258e-15 0)
(3 8.72141e-16 0)
(3 8.5741e-16 0)
(3 1.91417e-15 0)
(3 1.52697e-15 0)
(3 5.4623e-16 0)
(3 -5.70305e-16 0)
(3 -1.74357e-15 0)
(3 -1.31747e-15 0)
(3 1.00005e-15 0)
(3 9.29853e-16 0)
(3 5.31429e-16 0)
(3 -2.68066e-15 0)
(3 -4.4057e-15 0)
(3 -4.15607e-15 0)
(3 -3.85641e-15 0)
(3 -1.31912e-16 0)
(3 -6.99873e-18 0)
(3 -2.59783e-17 0)
(3 -2.27162e-16 0)
(3 -1.596e-16 0)
(3 -1.28701e-16 0)
(3 -2.0788e-16 0)
(3 -2.61915e-16 0)
(3 -3.64533e-16 0)
(3 -8.04524e-16 0)
(3 -1.58438e-15 0)
(3 -2.36898e-15 0)
(3 -1.76634e-15 0)
(3 1.31199e-16 0)
(3 8.36536e-16 0)
(3 -5.26224e-16 0)
(3 -1.47108e-15 0)
(3 -9.77624e-16 0)
(3 -3.20335e-16 0)
(3 2.02236e-16 0)
(3 -3.84041e-16 0)
(3 -1.70601e-16 0)
(3 1.5348e-15 0)
(3 3.63375e-15 0)
(3 5.26149e-15 0)
(3 5.34601e-15 0)
(3 4.82371e-15 0)
(3 2.49706e-15 0)
(3 1.27134e-15 0)
(3 1.0542e-15 0)
(3 2.52759e-16 0)
(3 4.79206e-16 0)
(3 2.20083e-16 0)
(3 -4.15631e-16 0)
(3 -3.52106e-16 0)
(3 -1.30199e-16 0)
(3 -2.86394e-17 0)
(3 -2.29697e-16 0)
(3 -1.59256e-15 0)
(3 -3.41662e-15 0)
(3 -3.15323e-15 0)
(3 -2.50863e-15 0)
(3 -9.46101e-16 0)
(3 -1.04982e-15 0)
(3 -1.43686e-15 0)
(3 -1.16459e-15 0)
(3 -1.98678e-15 0)
(3 -3.34096e-15 0)
(3 -1.43062e-16 0)
(3 2.54436e-17 0)
(3 3.26832e-16 0)
(3 2.25911e-16 0)
(3 -2.48483e-16 0)
(3 -3.91103e-16 0)
(3 -2.05623e-17 0)
(3 -1.28468e-16 0)
(3 1.47322e-16 0)
(3 1.22571e-18 0)
(3 -5.97188e-16 0)
(3 -1.047e-15 0)
(3 -1.60052e-15 0)
(3 -1.30304e-15 0)
(3 -1.21525e-15 0)
(3 -1.43877e-15 0)
(3 -1.92169e-15 0)
(3 -3.18565e-15 0)
(3 -2.66577e-15 0)
(3 -2.3369e-15 0)
(3 -2.64299e-15 0)
(3 -7.83509e-16 0)
(3 3.53135e-16 0)
(3 8.61446e-16 0)
(3 2.769e-15 0)
(3 2.44569e-15 0)
(3 4.77645e-16 0)
(3 -1.7641e-15 0)
(3 -3.05507e-15 0)
(3 -3.32786e-15 0)
(3 -3.78011e-15 0)
(3 -2.62261e-15 0)
(3 2.11112e-15 0)
(3 3.49669e-15 0)
(3 2.76745e-15 0)
(3 8.46735e-16 0)
(3 7.53405e-16 0)
(3 4.9057e-16 0)
(3 4.76984e-16 0)
(3 -2.25667e-15 0)
(3 -5.21996e-15 0)
(3 -5.75289e-15 0)
(3 -5.8136e-15 0)
(3 -3.8585e-15 0)
(3 -2.67181e-15 0)
(3 -4.81028e-16 0)
(3 -1.09946e-15 0)
(3 -3.66725e-15 0)
(3 8.11665e-17 0)
(3 2.38343e-16 0)
(3 1.02869e-16 0)
(3 1.74872e-16 0)
(3 -8.19348e-19 0)
(3 -9.07427e-16 0)
(3 -1.01166e-15 0)
(3 -6.6843e-16 0)
(3 -4.26251e-16 0)
(3 3.68108e-17 0)
(3 4.42529e-16 0)
(3 -7.57002e-17 0)
(3 -4.00258e-16 0)
(3 -1.22872e-15 0)
(3 -2.10022e-15 0)
(3 -1.86352e-15 0)
(3 -9.99017e-16 0)
(3 2.26073e-16 0)
(3 9.85519e-16 0)
(3 6.37586e-16 0)
(3 -2.36351e-16 0)
(3 -3.03427e-16 0)
(3 -8.43597e-16 0)
(3 -1.81509e-15 0)
(3 -1.99451e-15 0)
(3 -1.06872e-15 0)
(3 -2.35565e-15 0)
(3 -5.44903e-15 0)
(3 -5.78486e-15 0)
(3 -4.80341e-15 0)
(3 -2.07262e-15 0)
(3 -1.29807e-15 0)
(3 6.34296e-17 0)
(3 1.22233e-15 0)
(3 8.15253e-16 0)
(3 7.34298e-16 0)
(3 4.25629e-16 0)
(3 2.89591e-16 0)
(3 6.7837e-16 0)
(3 -6.58246e-16 0)
(3 -2.86754e-15 0)
(3 -4.9826e-15 0)
(3 -5.24945e-15 0)
(3 -1.02857e-15 0)
(3 -5.27459e-17 0)
(3 4.24701e-16 0)
(3 -6.31198e-16 0)
(3 -1.75041e-15 0)
(3 -1.96766e-16 0)
(3 -3.6547e-16 0)
(3 -3.37165e-16 0)
(3 -6.25334e-17 0)
(3 8.68793e-17 0)
(3 8.4925e-17 0)
(3 2.0171e-16 0)
(3 2.53741e-16 0)
(3 7.50454e-17 0)
(3 6.90519e-16 0)
(3 1.03778e-15 0)
(3 8.23148e-16 0)
(3 1.00035e-15 0)
(3 -5.21522e-16 0)
(3 -1.42995e-15 0)
(3 -1.46989e-15 0)
(3 1.25983e-15 0)
(3 2.39371e-15 0)
(3 2.70399e-15 0)
(3 1.58575e-15 0)
(3 8.52098e-16 0)
(3 1.49551e-17 0)
(3 -1.59697e-15 0)
(3 -2.86675e-15 0)
(3 -4.87155e-15 0)
(3 -5.43791e-15 0)
(3 -6.12986e-15 0)
(3 -5.82543e-15 0)
(3 -5.66946e-15 0)
(3 -2.5112e-15 0)
(3 2.29066e-15 0)
(3 3.66731e-15 0)
(3 1.326e-15 0)
(3 -2.74368e-15 0)
(3 -4.08323e-15 0)
(3 -4.2863e-15 0)
(3 -2.45202e-15 0)
(3 -1.71937e-15 0)
(3 -1.01668e-15 0)
(3 -1.12756e-15 0)
(3 -2.18625e-15 0)
(3 -4.42923e-15 0)
(3 -4.40772e-15 0)
(3 -3.22067e-15 0)
(3 -2.09085e-15 0)
(3 -8.91479e-16 0)
(3 -7.1188e-16 0)
(3 -1.09708e-15 0)
(3 -2.8317e-16 0)
(3 -4.84974e-16 0)
(3 -3.67836e-16 0)
(3 6.44726e-17 0)
(3 3.5464e-16 0)
(3 6.47541e-16 0)
(3 8.66111e-16 0)
(3 6.26683e-16 0)
(3 2.74588e-16 0)
(3 3.64808e-16 0)
(3 1.27241e-15 0)
(3 2.02703e-15 0)
(3 2.64212e-15 0)
(3 3.336e-15 0)
(3 3.39787e-15 0)
(3 8.04647e-16 0)
(3 -9.81205e-16 0)
(3 -1.21946e-15 0)
(3 -1.30935e-15 0)
(3 -3.31124e-16 0)
(3 -2.41878e-16 0)
(3 -1.17034e-15 0)
(3 -2.58477e-15 0)
(3 -2.81194e-15 0)
(3 -3.36271e-15 0)
(3 -5.74339e-15 0)
(3 -5.77033e-15 0)
(3 -5.7417e-15 0)
(3 -5.77596e-15 0)
(3 -2.31027e-15 0)
(3 -1.02575e-15 0)
(3 -9.64321e-16 0)
(3 -2.52026e-15 0)
(3 -3.40742e-15 0)
(3 -4.18618e-15 0)
(3 -4.21884e-15 0)
(3 -3.92459e-15 0)
(3 -1.95889e-15 0)
(3 -8.79111e-16 0)
(3 -3.88214e-16 0)
(3 -1.63032e-15 0)
(3 -3.68622e-15 0)
(3 -3.99133e-15 0)
(3 -4.50509e-15 0)
(3 -4.30687e-15 0)
(3 -3.29212e-15 0)
(3 -2.12892e-15 0)
(3 -2.48555e-15 0)
(3 1.21132e-16 0)
(3 4.92167e-16 0)
(3 3.87663e-16 0)
(3 3.10964e-16 0)
(3 3.12676e-16 0)
(3 1.77059e-16 0)
(3 1.20195e-16 0)
(3 -4.51673e-17 0)
(3 -3.26976e-16 0)
(3 -5.00716e-16 0)
(3 1.33511e-16 0)
(3 1.27822e-15 0)
(3 3.71739e-15 0)
(3 4.3441e-15 0)
(3 3.63475e-15 0)
(3 1.3162e-15 0)
(3 4.55498e-16 0)
(3 7.98872e-16 0)
(3 4.82132e-16 0)
(3 -4.2989e-16 0)
(3 -6.56901e-16 0)
(3 -1.88966e-15 0)
(3 -2.42604e-15 0)
(3 -2.44503e-15 0)
(3 -2.54975e-15 0)
(3 -3.42067e-15 0)
(3 -3.9584e-15 0)
(3 -3.99624e-15 0)
(3 -3.97365e-15 0)
(3 -3.22177e-15 0)
(3 -2.03211e-15 0)
(3 -2.01627e-15 0)
(3 -1.45291e-15 0)
(3 -1.27819e-15 0)
(3 -1.54483e-15 0)
(3 -1.92574e-15 0)
(3 -3.56125e-15 0)
(3 -3.89395e-15 0)
(3 -1.74268e-15 0)
(3 6.93977e-16 0)
(3 8.03091e-17 0)
(3 -1.02202e-15 0)
(3 -2.30885e-15 0)
(3 -4.15235e-15 0)
(3 -5.02976e-15 0)
(3 -5.1918e-15 0)
(3 -5.31098e-15 0)
(3 -5.73023e-15 0)
(3 1.82846e-16 0)
(3 4.25985e-16 0)
(3 3.24477e-16 0)
(3 2.15548e-16 0)
(3 -1.5706e-16 0)
(3 -3.97251e-16 0)
(3 -6.64885e-16 0)
(3 -3.3056e-16 0)
(3 -2.24157e-16 0)
(3 2.12455e-16 0)
(3 5.71116e-16 0)
(3 1.55783e-15 0)
(3 2.2612e-15 0)
(3 2.22902e-15 0)
(3 1.11927e-15 0)
(3 1.39855e-16 0)
(3 -7.49517e-16 0)
(3 -3.4063e-16 0)
(3 -2.096e-16 0)
(3 -1.03465e-16 0)
(3 2.80144e-16 0)
(3 -3.91902e-16 0)
(3 -1.24687e-15 0)
(3 -1.90056e-15 0)
(3 -1.98943e-15 0)
(3 -1.27178e-15 0)
(3 -2.27e-15 0)
(3 -2.25558e-15 0)
(3 -1.41596e-15 0)
(3 -1.40769e-15 0)
(3 -1.71345e-15 0)
(3 -9.77951e-16 0)
(3 2.53324e-15 0)
(3 3.21862e-15 0)
(3 2.83383e-15 0)
(3 1.78984e-15 0)
(3 5.75701e-16 0)
(3 -2.19921e-16 0)
(3 -9.16521e-16 0)
(3 -9.5424e-16 0)
(3 -7.37825e-17 0)
(3 8.30504e-16 0)
(3 1.00753e-15 0)
(3 2.48105e-16 0)
(3 -3.30831e-15 0)
(3 -4.51447e-15 0)
(3 -6.03113e-15 0)
(3 -8.528e-15 0)
(3 -1.04309e-16 0)
(3 -1.51029e-16 0)
(3 -8.86436e-17 0)
(3 -2.1955e-16 0)
(3 -2.39216e-16 0)
(3 1.64862e-16 0)
(3 -1.36744e-16 0)
(3 -9.64495e-16 0)
(3 -5.65029e-16 0)
(3 -2.34934e-16 0)
(3 8.12176e-16 0)
(3 1.03597e-15 0)
(3 2.41091e-16 0)
(3 2.44094e-16 0)
(3 1.01048e-15 0)
(3 2.0124e-15 0)
(3 1.14363e-15 0)
(3 7.17526e-16 0)
(3 5.76372e-17 0)
(3 -1.15792e-15 0)
(3 -1.19442e-15 0)
(3 -8.93089e-16 0)
(3 -1.19654e-15 0)
(3 -1.45101e-15 0)
(3 -1.25284e-15 0)
(3 -3.55824e-16 0)
(3 2.42881e-15 0)
(3 3.54543e-15 0)
(3 2.40364e-15 0)
(3 -1.55262e-15 0)
(3 -2.98249e-15 0)
(3 2.16587e-16 0)
(3 4.26917e-15 0)
(3 4.47591e-15 0)
(3 2.51291e-15 0)
(3 2.00375e-15 0)
(3 9.39023e-16 0)
(3 -3.02791e-16 0)
(3 -1.15942e-15 0)
(3 -1.92315e-15 0)
(3 -4.16197e-16 0)
(3 1.94057e-15 0)
(3 2.42494e-15 0)
(3 3.10473e-15 0)
(3 -3.64133e-16 0)
(3 -2.82685e-15 0)
(3 -4.3978e-15 0)
(3 -6.58067e-15 0)
(3 3.37075e-16 0)
(3 5.4869e-16 0)
(3 4.95276e-16 0)
(3 3.62901e-16 0)
(3 3.64116e-16 0)
(3 6.73937e-16 0)
(3 2.69764e-16 0)
(3 -3.2233e-16 0)
(3 -6.09581e-17 0)
(3 1.87717e-16 0)
(3 1.01309e-15 0)
(3 9.23022e-16 0)
(3 -5.25196e-16 0)
(3 -5.32033e-16 0)
(3 1.9372e-16 0)
(3 1.88871e-15 0)
(3 2.00063e-15 0)
(3 8.47748e-16 0)
(3 -4.59845e-16 0)
(3 -1.94714e-15 0)
(3 -1.97852e-15 0)
(3 -1.22882e-15 0)
(3 -4.27905e-16 0)
(3 6.80115e-17 0)
(3 6.23186e-16 0)
(3 1.87816e-15 0)
(3 2.82868e-15 0)
(3 5.54948e-15 0)
(3 5.37541e-15 0)
(3 2.42141e-15 0)
(3 1.12941e-15 0)
(3 3.37717e-16 0)
(3 -2.73487e-16 0)
(3 -3.15646e-16 0)
(3 -5.19806e-17 0)
(3 -6.74636e-17 0)
(3 -6.04099e-16 0)
(3 -1.12523e-15 0)
(3 -1.83807e-15 0)
(3 -1.9474e-15 0)
(3 -2.34077e-15 0)
(3 1.23825e-15 0)
(3 2.82888e-15 0)
(3 2.86602e-15 0)
(3 6.45658e-16 0)
(3 -7.16876e-16 0)
(3 -1.19477e-15 0)
(3 -1.21725e-15 0)
(3 3.67891e-16 0)
(3 7.024e-16 0)
(3 2.35759e-16 0)
(3 5.16303e-16 0)
(3 5.02622e-16 0)
(3 2.29265e-16 0)
(3 5.1813e-16 0)
(3 9.58422e-16 0)
(3 1.09279e-15 0)
(3 1.46011e-15 0)
(3 1.22774e-15 0)
(3 7.77011e-16 0)
(3 8.14587e-16 0)
(3 1.20701e-15 0)
(3 1.89176e-15 0)
(3 1.14036e-15 0)
(3 2.54804e-16 0)
(3 -6.259e-16 0)
(3 -4.9118e-16 0)
(3 -3.83537e-16 0)
(3 3.83483e-16 0)
(3 3.57569e-16 0)
(3 4.70768e-16 0)
(3 1.05806e-15 0)
(3 2.72037e-15 0)
(3 3.26341e-15 0)
(3 2.7667e-15 0)
(3 2.45924e-15 0)
(3 3.04686e-15 0)
(3 3.81363e-15 0)
(3 3.51936e-15 0)
(3 2.03526e-15 0)
(3 -3.4243e-15 0)
(3 -4.70023e-15 0)
(3 -4.68644e-15 0)
(3 -3.96412e-15 0)
(3 -1.74943e-15 0)
(3 -7.3871e-16 0)
(3 -1.58174e-15 0)
(3 -1.86085e-15 0)
(3 -2.23336e-15 0)
(3 -1.86242e-15 0)
(3 5.35114e-16 0)
(3 1.01927e-15 0)
(3 1.98092e-17 0)
(3 -4.45872e-16 0)
(3 2.92367e-16 0)
(3 1.22226e-15 0)
(3 -3.38433e-16 0)
(3 -3.36672e-16 0)
(3 -4.24299e-16 0)
(3 -3.96462e-16 0)
(3 -4.96771e-16 0)
(3 4.9836e-17 0)
(3 9.04694e-16 0)
(3 8.58154e-16 0)
(3 7.29789e-16 0)
(3 6.427e-16 0)
(3 -3.50733e-16 0)
(3 -1.23333e-15 0)
(3 -1.48393e-15 0)
(3 -1.07561e-16 0)
(3 7.25665e-16 0)
(3 1.24575e-15 0)
(3 3.25413e-16 0)
(3 -7.17778e-16 0)
(3 -1.46282e-16 0)
(3 1.61123e-15 0)
(3 1.92239e-15 0)
(3 1.69552e-15 0)
(3 1.95306e-15 0)
(3 3.16894e-15 0)
(3 4.03746e-15 0)
(3 4.32255e-15 0)
(3 3.73309e-15 0)
(3 1.79955e-15 0)
(3 1.89733e-15 0)
(3 3.69224e-15 0)
(3 1.52161e-15 0)
(3 -3.44097e-16 0)
(3 -2.49405e-15 0)
(3 -4.08108e-15 0)
(3 -3.97158e-15 0)
(3 -2.63301e-15 0)
(3 1.41942e-15 0)
(3 1.42456e-15 0)
(3 -9.47928e-16 0)
(3 -1.16828e-15 0)
(3 -1.23901e-15 0)
(3 -2.03595e-15 0)
(3 -1.30254e-15 0)
(3 -5.11876e-16 0)
(3 -3.01302e-16 0)
(3 -6.58101e-17 0)
(3 1.21381e-15 0)
(3 1.15935e-15 0)
(3 -3.15983e-16 0)
(3 -5.9802e-16 0)
(3 -5.71122e-16 0)
(3 -6.48202e-16 0)
(3 -5.46578e-16 0)
(3 1.79514e-16 0)
(3 3.96016e-16 0)
(3 4.06734e-16 0)
(3 4.14924e-16 0)
(3 5.55293e-16 0)
(3 -3.93503e-16 0)
(3 -2.64094e-15 0)
(3 -3.93497e-15 0)
(3 -2.72347e-15 0)
(3 -1.67678e-15 0)
(3 -1.29068e-15 0)
(3 -1.53786e-15 0)
(3 -1.48788e-15 0)
(3 -8.10644e-16 0)
(3 1.10747e-15 0)
(3 2.02292e-15 0)
(3 2.34212e-15 0)
(3 3.3795e-15 0)
(3 3.94939e-15 0)
(3 3.43363e-15 0)
(3 3.4101e-15 0)
(3 3.07693e-15 0)
(3 1.89588e-15 0)
(3 6.5969e-16 0)
(3 4.84759e-16 0)
(3 7.91697e-16 0)
(3 4.72535e-16 0)
(3 1.54685e-17 0)
(3 -4.20451e-17 0)
(3 -3.38754e-17 0)
(3 1.07407e-15 0)
(3 2.04716e-15 0)
(3 2.16568e-15 0)
(3 7.74094e-16 0)
(3 -1.47705e-16 0)
(3 -1.41677e-15 0)
(3 -1.97063e-15 0)
(3 -1.31118e-15 0)
(3 -5.14285e-16 0)
(3 1.25752e-15 0)
(3 1.78912e-15 0)
(3 1.82497e-15 0)
(3 1.61688e-15 0)
(3 -7.51582e-17 0)
(3 -6.44635e-16 0)
(3 -5.04603e-16 0)
(3 -3.92845e-16 0)
(3 -2.20423e-16 0)
(3 -4.43172e-16 0)
(3 -8.43448e-16 0)
(3 -4.15155e-16 0)
(3 -2.85822e-17 0)
(3 -5.24495e-16 0)
(3 -2.01905e-15 0)
(3 -3.15918e-15 0)
(3 -3.05322e-15 0)
(3 -8.35338e-16 0)
(3 -5.16645e-16 0)
(3 -8.69761e-16 0)
(3 -1.1634e-15 0)
(3 -1.06658e-15 0)
(3 -8.07673e-16 0)
(3 -9.57658e-17 0)
(3 1.5129e-15 0)
(3 3.90386e-15 0)
(3 4.59862e-15 0)
(3 4.31512e-15 0)
(3 5.51993e-15 0)
(3 5.10315e-15 0)
(3 2.56539e-15 0)
(3 2.11555e-15 0)
(3 7.9991e-16 0)
(3 -1.04618e-15 0)
(3 -1.42076e-15 0)
(3 -1.87621e-15 0)
(3 -1.85042e-15 0)
(3 -1.90833e-15 0)
(3 -1.77336e-15 0)
(3 -1.36983e-15 0)
(3 9.20262e-17 0)
(3 1.21814e-15 0)
(3 1.46156e-15 0)
(3 -4.23492e-16 0)
(3 -1.97443e-15 0)
(3 -2.06783e-15 0)
(3 1.47312e-15 0)
(3 3.77264e-15 0)
(3 4.33643e-15 0)
(3 5.28986e-15 0)
(3 4.69295e-15 0)
(3 4.28488e-15 0)
(3 -4.87803e-17 0)
(3 -1.99514e-16 0)
(3 -2.47899e-16 0)
(3 -5.94307e-17 0)
(3 -9.27288e-17 0)
(3 -6.62596e-16 0)
(3 -1.14894e-15 0)
(3 -1.0896e-15 0)
(3 -8.11527e-16 0)
(3 -1.28645e-15 0)
(3 -1.91044e-15 0)
(3 -2.57472e-15 0)
(3 -1.24318e-15 0)
(3 -5.19525e-17 0)
(3 -1.3576e-15 0)
(3 -2.64667e-15 0)
(3 -2.63783e-15 0)
(3 -2.21458e-15 0)
(3 -2.39801e-15 0)
(3 -2.44925e-15 0)
(3 1.33324e-17 0)
(3 2.82368e-15 0)
(3 2.77943e-15 0)
(3 2.70659e-15 0)
(3 3.3113e-15 0)
(3 4.62534e-15 0)
(3 4.32036e-15 0)
(3 3.14008e-15 0)
(3 1.70446e-15 0)
(3 -1.86704e-16 0)
(3 -2.0028e-15 0)
(3 -1.82345e-15 0)
(3 -1.9687e-15 0)
(3 -2.57504e-15 0)
(3 -2.93503e-15 0)
(3 -2.20508e-15 0)
(3 -1.18082e-15 0)
(3 7.29966e-17 0)
(3 5.89243e-17 0)
(3 -7.59021e-16 0)
(3 -1.46367e-15 0)
(3 -1.23983e-15 0)
(3 2.74092e-16 0)
(3 3.34435e-15 0)
(3 3.93878e-15 0)
(3 6.42803e-15 0)
(3 6.72074e-15 0)
(3 5.9848e-15 0)
(3 1.92917e-16 0)
(3 3.5779e-16 0)
(3 8.6232e-17 0)
(3 -1.35887e-16 0)
(3 -6.46878e-17 0)
(3 -2.1869e-16 0)
(3 -8.49453e-17 0)
(3 -3.67004e-16 0)
(3 -8.08987e-16 0)
(3 -7.64836e-16 0)
(3 -2.2053e-16 0)
(3 -7.07375e-18 0)
(3 6.61216e-16 0)
(3 1.00861e-16 0)
(3 -2.50765e-15 0)
(3 -3.1459e-15 0)
(3 -2.03635e-15 0)
(3 -1.2387e-15 0)
(3 -1.56148e-15 0)
(3 -1.60761e-15 0)
(3 -6.99563e-16 0)
(3 6.96385e-16 0)
(3 1.02978e-15 0)
(3 1.19491e-15 0)
(3 1.74433e-15 0)
(3 1.89287e-15 0)
(3 2.18981e-15 0)
(3 1.67722e-15 0)
(3 1.39416e-15 0)
(3 1.12732e-15 0)
(3 1.13431e-15 0)
(3 1.1504e-15 0)
(3 -1.46644e-15 0)
(3 -3.15503e-15 0)
(3 -3.51458e-15 0)
(3 -2.6109e-15 0)
(3 -2.72191e-16 0)
(3 1.045e-15 0)
(3 9.86349e-16 0)
(3 7.47874e-16 0)
(3 6.3553e-16 0)
(3 -1.48783e-16 0)
(3 -3.64228e-16 0)
(3 1.24338e-15 0)
(3 2.32141e-15 0)
(3 3.87323e-15 0)
(3 5.17696e-15 0)
(3 5.19931e-15 0)
(3 1.0708e-16 0)
(3 2.99832e-17 0)
(3 1.17792e-16 0)
(3 8.73656e-17 0)
(3 1.72769e-16 0)
(3 6.5604e-16 0)
(3 7.4659e-16 0)
(3 1.77009e-16 0)
(3 -1.93795e-16 0)
(3 -2.85924e-16 0)
(3 -5.57863e-16 0)
(3 -1.58303e-16 0)
(3 -1.50951e-16 0)
(3 -1.16792e-15 0)
(3 -2.40289e-15 0)
(3 -1.14443e-15 0)
(3 8.5892e-18 0)
(3 2.68454e-16 0)
(3 2.65053e-16 0)
(3 4.85102e-16 0)
(3 2.1177e-17 0)
(3 -1.0749e-15 0)
(3 -2.30583e-16 0)
(3 1.14202e-15 0)
(3 1.86846e-15 0)
(3 1.82412e-15 0)
(3 1.7779e-15 0)
(3 2.80904e-15 0)
(3 3.80354e-15 0)
(3 3.91622e-15 0)
(3 3.592e-15 0)
(3 2.25048e-15 0)
(3 7.01656e-16 0)
(3 8.84668e-16 0)
(3 1.08641e-15 0)
(3 2.39756e-15 0)
(3 4.23113e-15 0)
(3 4.79626e-15 0)
(3 3.90649e-15 0)
(3 4.13486e-15 0)
(3 3.61995e-15 0)
(3 2.35422e-15 0)
(3 1.29826e-15 0)
(3 4.41315e-16 0)
(3 9.1073e-16 0)
(3 1.1436e-15 0)
(3 1.41591e-15 0)
(3 3.21753e-15 0)
(3 -4.36371e-16 0)
(3 -3.29644e-16 0)
(3 -2.17991e-16 0)
(3 -7.86198e-17 0)
(3 3.68267e-16 0)
(3 1.17706e-15 0)
(3 1.09646e-15 0)
(3 -7.41144e-17 0)
(3 -1.22718e-16 0)
(3 -2.22191e-16 0)
(3 -3.89595e-16 0)
(3 1.48172e-16 0)
(3 3.04498e-16 0)
(3 -2.12004e-16 0)
(3 -5.93477e-16 0)
(3 7.85173e-16 0)
(3 2.19436e-15 0)
(3 2.15625e-15 0)
(3 1.39751e-15 0)
(3 -4.69274e-16 0)
(3 -2.18294e-15 0)
(3 -1.97029e-15 0)
(3 -1.03853e-15 0)
(3 9.38357e-16 0)
(3 2.09944e-15 0)
(3 3.13697e-15 0)
(3 4.12499e-15 0)
(3 6.60982e-15 0)
(3 5.6246e-15 0)
(3 4.16345e-15 0)
(3 3.6359e-15 0)
(3 2.00336e-15 0)
(3 2.41694e-15 0)
(3 4.24925e-15 0)
(3 6.4552e-15 0)
(3 7.382e-15 0)
(3 6.44699e-15 0)
(3 5.48556e-15 0)
(3 5.24051e-15 0)
(3 4.03784e-15 0)
(3 3.17091e-15 0)
(3 2.17893e-15 0)
(3 2.02635e-15 0)
(3 1.4118e-15 0)
(3 8.51326e-17 0)
(3 -1.29446e-15 0)
(3 -1.52255e-15 0)
(3 2.25591e-15 0)
(3 -7.00469e-17 0)
(3 8.85756e-17 0)
(3 1.09562e-16 0)
(3 5.56975e-18 0)
(3 2.32862e-16 0)
(3 7.77392e-16 0)
(3 1.18499e-15 0)
(3 7.83669e-16 0)
(3 -4.97197e-16 0)
(3 -4.83476e-16 0)
(3 2.24074e-16 0)
(3 2.9484e-16 0)
(3 7.65596e-16 0)
(3 1.9634e-15 0)
(3 4.14685e-15 0)
(3 4.27624e-15 0)
(3 3.54254e-15 0)
(3 3.53654e-15 0)
(3 2.91036e-15 0)
(3 6.33129e-16 0)
(3 -6.44982e-16 0)
(3 -7.80263e-16 0)
(3 -4.55946e-16 0)
(3 5.02501e-16 0)
(3 9.87509e-16 0)
(3 2.06974e-15 0)
(3 3.94944e-15 0)
(3 4.07541e-15 0)
(3 3.31077e-15 0)
(3 2.60436e-15 0)
(3 3.91239e-16 0)
(3 -6.48655e-16 0)
(3 1.62537e-15 0)
(3 5.96706e-15 0)
(3 8.02104e-15 0)
(3 7.60336e-15 0)
(3 4.75672e-15 0)
(3 5.0615e-15 0)
(3 7.24581e-15 0)
(3 5.51128e-15 0)
(3 4.05957e-15 0)
(3 3.61407e-15 0)
(3 2.67457e-15 0)
(3 1.76074e-15 0)
(3 -3.08938e-16 0)
(3 -2.79908e-15 0)
(3 -2.91282e-15 0)
(3 -6.37853e-16 0)
(3 2.46208e-16 0)
(3 3.62793e-16 0)
(3 1.2966e-16 0)
(3 4.05142e-16 0)
(3 7.34127e-17 0)
(3 3.40397e-16 0)
(3 6.76755e-16 0)
(3 4.1707e-16 0)
(3 1.09343e-16 0)
(3 -1.21767e-17 0)
(3 2.53479e-16 0)
(3 4.2386e-16 0)
(3 6.47244e-16 0)
(3 1.75357e-15 0)
(3 4.55181e-15 0)
(3 3.65903e-15 0)
(3 1.65595e-15 0)
(3 9.00295e-16 0)
(3 6.40562e-16 0)
(3 9.60254e-16 0)
(3 5.71065e-16 0)
(3 -7.41695e-17 0)
(3 -2.3994e-16 0)
(3 7.84471e-18 0)
(3 1.68189e-16 0)
(3 2.2532e-16 0)
(3 1.0882e-16 0)
(3 -2.04595e-16 0)
(3 -2.32901e-16 0)
(3 -8.43597e-18 0)
(3 -1.14071e-15 0)
(3 -7.05981e-16 0)
(3 5.89509e-17 0)
(3 4.55272e-15 0)
(3 6.37327e-15 0)
(3 6.05565e-15 0)
(3 4.26677e-15 0)
(3 3.12702e-15 0)
(3 4.29037e-15 0)
(3 7.04738e-15 0)
(3 6.84819e-15 0)
(3 6.85841e-15 0)
(3 5.55267e-15 0)
(3 2.15683e-15 0)
(3 7.23854e-16 0)
(3 -1.83504e-15 0)
(3 -3.50993e-15 0)
(3 -3.58821e-15 0)
(3 1.01408e-16 0)
(3 3.00693e-16 0)
(3 3.30134e-16 0)
(3 1.12187e-16 0)
(3 -3.71543e-16 0)
(3 -8.19564e-16 0)
(3 -8.69959e-16 0)
(3 1.31571e-18 0)
(3 6.68457e-16 0)