/*--------------------------------*- C++ -*----------------------------------*\
  =========                 |
  \\      /  F ield         | OpenFOAM: The Open Source CFD Toolbox
   \\    /   O peration     | Website:  https://openfoam.org
    \\  /    A nd           | Version:  7
     \\/     M anipulation  |
\*---------------------------------------------------------------------------*/
FoamFile
{
    version     2.0;
    format      ascii;
    class       volScalarField;
    location    "4";
    object      p;
}
// * * * * * * * * * * * * * * * * * * * * * * * * * * * * * * * * * * * * * //

dimensions      [1 -1 -2 0 0 0 0];

internalField   nonuniform List<scalar> 
4608
(
1
1
1
1
1
1
1
1
1
1
1
1
1
1
1
1
1
1
1
1
1
1
1
1
1
1
1
1
1
1
1
1
1
1
1
1
1
1
1
1
1
1
1
1
1
1
1
1
1
1
1
1
1
1
1
1
1
1
1
1
1
1
1
1
1
1
1
1
1
1
1
1
1
1
1
1
1
1
1
1
1
1
1
1
1
1
1
1
1
1
1
1
1
1
1
1
1
1
1
1
1
1
1
1
1
1
1
1
1
1
1
1
1
1
1
1
1
1
1
1
1
1
1
1
1
1
1
1
1
1
1
1
1
1
1
1
1
1
1
1
1
1
1
1
1
1
1
1
1
1
1
1
1
1
1
1
1
1
1
1
1
1
1
1
1
1
1
1
1
1
1
1
1
1
1
1
1
1
1
1
1
1
1
1
1
1
1
1
1
1
1
1
1
1
1
1
1
1
1
1
1
1
1
1
1
1
1
1
1
1
1
1
1
1
1
1
1
1
1
1
1
1
1
1
1
1
1
1
1
1
1
1
1
1
1
1
1
1
1
1
1
1
1
1
1
1
1
1
1
1
1
1
1
1
1
1
1
1
1
1
1
1
1
1
1
1
1
1
1
1
1
1
1
1
1
1
1
1
1
1
1
1
1
1
1
1
1
1
1
1
1
1
1
1
1
1
1
1
1
1
1
1
1
1
1
1
1
1
1
1
1
1
1
1
1
1
1
1
1
1
1
1
1
1
1
1
1
1
1
1
1
1
1
1
1
1
1
1
1
1
1
1
1
1
1
1
1
1
1
1
1
1
1
1
1
1
1
1
1
1
1
1
1
1
1
1
1
1
1
1
1
1
1
1
1
1
1
1
1
1
1
1
1
1
1
1
1
1
1
1
1
1
1
1
1
1
1
1
1
1
1
1
1
1
1
1
1
1
1
1
1
1
1
1
1
1
1
1
1
1
1
1
1
1
1
1
1
1
1
1
1
1
1
1
1
1
1
1
1
1
1
1
1
1
1
1
1
1
1
1
1
1
1
1
1
1
1
1
1
1
1
1
1
1
1
1
1
1
1
1
1
1
1
1
1
1
1
1
1
1
1
1
1
1
1
1
1
1
1
1
1
1
1
1
1
1
1
1
1
1
1
1
1
1
1
1
1
1
1
1
1
1
1
1
1
1
1
1
1
1
1
1
1
1
1
1
1
1
1
1
1
1
1
1
1
1
1
1
1
1
1
1
1
1
1
1
1
1
1
1
1
1
1
1
1
1
1
1
1
1
1
1
1
1
1
1
1
1
1
1
1
1
1
1
1
1
1
1
1
1
1
1
1
1
1
1
1
1
1
1
1
1
1
1
1
1
1
1
1
1
1
1
1
1
1
1
1
1
1
1
1
1
1
1
1
1
1
1
1
1
1
1
1
1
1
1
1
1
1
1
1
1
1
1
1
1
1
1
1
1
1
1
1
1
1
1
1
1
1
1
1
1
1
1
1
1
1
1
1
1
1
1
1
1
1
1
1
1
1
1
1
1
1
1
1
1
1
1
1
1
1
1
1
1
1
1
1
1
1
1
1
1
1
1
1
1
1
1
1
1
1
1
1
1
1
1
1
1
1
1
1
1
1
1
1
1
1
1
1
1
1
1
1
1
1
1
1
1
1
1
1
1
1
1
1
1
1
1
1
1
1
1
1
1
1
1
1
1
1
1
1
1
1
1
1
1
1
1
1
1
1
1
1
1
1
1
1
1
1.29112
1.7699
2.32535
2.96714
3.64983
4.27625
4.84667
5.30559
5.36528
5.16783
4.7286
4.21045
3.82158
3.67511
3.57012
3.57513
3.61372
3.6598
3.71011
3.73514
3.74109
3.74503
3.7539
3.77981
1.00256
1.01731
1.08861
1.21593
1.4745
1.85431
2.38155
2.9781
3.56391
3.8549
4.0428
4.02269
3.95434
3.88448
3.7646
3.71776
3.69343
3.67606
3.69049
3.71907
3.73119
3.73952
3.75027
3.769
1
0.999944
1.00024
1.00024
1.00357
1.02404
1.10768
1.36699
1.97148
3.01089
3.83547
4.30755
4.35432
4.28281
4.11393
3.87323
3.68434
3.64804
3.66435
3.69984
3.71915
3.72917
3.73568
3.74686
1
0.999998
0.999998
0.999999
0.999987
1.00004
0.999902
1.00199
1.03122
1.30543
2.01921
3.21665
3.88768
4.09519
4.07343
4.01239
3.84255
3.72223
3.71918
3.70502
3.70438
3.71386
3.72983
3.74305
1
1
1
1
0.999999
0.999999
0.999987
0.99999
0.9999
1.00154
1.04215
1.34969
2.24108
3.2325
4.03227
4.1298
4.0523
3.93733
3.83626
3.75111
3.70895
3.7116
3.72859
3.75182
1
1
1
1
1
1
1
0.999999
0.999991
0.999991
0.999914
1.00254
1.08649
1.48192
2.51679
3.44901
3.99002
3.98841
3.94409
3.86053
3.77014
3.73779
3.72623
3.73301
1
1
1
1
1
1
1
1
1
0.999999
0.999992
0.999979
1.00008
1.00812
1.16731
1.79387
2.9864
3.57127
3.82169
3.87533
3.84989
3.75273
3.70893
3.69968
1
1
1
1
1
1
1
1
1
1
1
0.999997
0.999998
0.999972
1.00133
1.03436
1.36448
2.23933
3.34454
3.79561
3.80831
3.7807
3.74387
3.72527
1
1
1
1
1
1
1
1
1
1
1
1
1
0.999995
0.999996
0.999988
1.00807
1.13403
1.7351
2.77343
3.59314
3.81966
3.81386
3.7933
1
1
1
1
1
1
1
1
1
1
1
1
1
1
0.999999
0.999997
0.999977
1.00118
1.04149
1.40886
2.40442
3.27634
3.57418
3.74392
1
1
1
1
1
1
1
1
1
1
1
1
1
1
1
1
0.999996
0.999992
1.00017
1.01598
1.20109
2.00994
3.06399
3.65014
1
1
1
1
1
1
1
1
1
1
1
1
1
1
1
1
1
0.999999
0.999997
1.00002
1.00471
1.12822
1.73983
2.72879
1
1
1
1
1
1
1
1
1
1
1
1
1
1
1
1
1
1
0.999999
0.999999
1
1.00276
1.06434
1.49818
1
1
1
1
1
1
1
1
1
1
1
1
1
1
1
1
1
1
1
1
1
0.999997
1.00097
1.02969
1
1
1
1
1
1
1
1
1
1
1
1
1
1
1
1
1
1
1
1
1
0.999999
0.999997
1.00006
1
1
1
1
1
1
1
1
1
1
1
1
1
1
1
1
1
1
1
1
1
1
0.999999
0.999999
1
1
1
1
1
1
1
1
1
1
1
1
1
1
1
1
1
1
1
1
1
1
1
0.999998
1
1
1
1
1
1
1
1
1
1
1
1
1
1
1
1
1
1
1
1
1
0.999999
1
0.99999
1
1
1
1
1
1
1
1
1
1
1
1
1
1
1
1
1
1
1
1
0.999999
0.999997
1.00108
1.02903
1
1
1
1
1
1
1
1
1
1
1
1
1
1
1
1
1
1
0.999999
0.999999
0.999999
1.00252
1.06354
1.53196
1
1
1
1
1
1
1
1
1
1
1
1
1
1
1
1
1
0.999999
0.999997
1.00002
1.00484
1.12139
1.70796
2.91143
1
1
1
1
1
1
1
1
1
1
1
1
1
1
1
1
0.999996
0.999991
1.00017
1.01582
1.20513
1.97226
3.08581
3.70234
1
1
1
1
1
1
1
1
1
1
1
1
1
1
0.999999
0.999997
0.999977
1.00119
1.04113
1.41199
2.40339
3.24382
3.60101
3.76191
1
1
1
1
1
1
1
1
1
1
1
1
1
0.999995
0.999996
0.999988
1.00805
1.13395
1.73266
2.78766
3.57779
3.81743
3.82088
3.79946
1
1
1
1
1
1
1
1
1
1
1
0.999997
0.999998
0.999972
1.00133
1.03436
1.36497
2.23676
3.34623
3.80106
3.80246
3.7764
3.74056
3.72972
1
1
1
1
1
1
1
1
1
0.999999
0.999992
0.999979
1.00008
1.00812
1.16714
1.79449
2.98573
3.56892
3.82505
3.8769
3.84937
3.74908
3.70744
3.70103
1
1
1
1
1
1
1
0.999999
0.999991
0.999991
0.999914
1.00254
1.08651
1.48193
2.51658
3.44953
3.98936
3.98768
3.94402
3.86162
3.76939
3.73542
3.72607
3.73312
1
1
1
1
0.999999
0.999999
0.999987
0.99999
0.9999
1.00154
1.04216
1.34966
2.24144
3.23193
4.03205
4.13017
4.05293
3.93693
3.83622
3.75215
3.70814
3.7106
3.72859
3.75213
1
0.999998
0.999998
0.999999
0.999987
1.00004
0.999902
1.00199
1.03122
1.30545
2.01913
3.21698
3.88761
4.09483
4.07337
4.01264
3.8429
3.72203
3.7193
3.70529
3.70404
3.71349
3.73008
3.74348
1
0.999944
1.00024
1.00024
1.00357
1.02404
1.10769
1.367
1.97146
3.01095
3.83541
4.3075
4.35427
4.2828
4.11396
3.87337
3.68446
3.64784
3.66438
3.69968
3.71882
3.72904
3.73598
3.74723
1.00256
1.01731
1.08859
1.21593
1.47452
1.85429
2.38157
2.9781
3.56388
3.85494
4.0428
4.02255
3.95429
3.88453
3.76463
3.71781
3.69344
3.67606
3.69049
3.71899
3.73109
3.73954
3.7504
3.7691
1.29112
1.76988
2.32538
2.96721
3.64972
4.27625
4.84675
5.30556
5.36525
5.16781
4.72861
4.2104
3.82167
3.67518
3.57013
3.57515
3.6137
3.65976
3.71005
3.73506
3.74108
3.74512
3.754
3.77978
2.67084
1.70157
1.17225
0.866496
0.647546
0.619065
0.670189
0.760693
0.796414
0.845217
0.923928
0.957166
0.956733
0.969178
1.01023
1.06044
1.07688
1.07697
1.07141
1.06425
1.05084
1.03811
1.04128
1.11951
1.60716
2.88425
4.64229
6.778
8.76434
9.25958
8.67657
7.67861
6.94524
6.57725
6.33362
6.06636
5.79845
5.5924
5.42714
5.2678
5.09275
4.89782
4.69733
4.50661
4.3255
4.1485
3.97901
3.82598
3.69574
3.59709
3.51861
3.43967
3.35573
3.26642
3.17155
3.06517
2.936
2.79279
2.67389
2.59663
2.54862
2.51362
2.47811
2.44052
2.40261
2.35535
2.27625
2.16404
2.02157
1.95616
1.95585
1.99063
2.16814
2.64126
3.44999
4.28077
4.86354
5.23271
5.34832
5.1619
4.97732
4.81303
4.7252
4.66387
4.60776
4.52836
4.43784
4.34131
4.2293
4.08203
3.95143
3.87945
3.83833
3.80349
3.78175
3.72114
3.38512
2.75342
2.17167
1.83385
1.48619
1.1785
1.11971
1.06895
0.999033
0.958409
0.936777
0.910595
0.902254
0.908636
0.942844
0.99284
1.01965
1.02297
1.02038
1.02213
1.01857
1.02162
1.09131
1.60195
2.6321
3.06
3.54855
4.29551
5.54951
6.69499
7.52918
7.47536
7.12575
6.74567
6.41063
6.08565
5.84987
5.67764
5.50063
5.32814
5.14898
4.95166
4.74905
4.55253
4.37236
4.20888
4.05934
3.9157
3.78307
3.66982
3.57928
3.49676
3.41378
3.32436
3.22123
3.10301
2.97085
2.84278
2.74461
2.66825
2.60896
2.56538
2.52357
2.47769
2.43178
2.37924
2.30327
2.19537
2.07097
2.05694
2.10653
2.31195
2.68355
3.10341
3.37083
3.73699
4.19994
4.48882
4.57631
4.68094
4.77608
4.81274
4.79523
4.73014
4.65032
4.54782
4.44801
4.36748
4.26724
4.11791
3.97236
3.89581
3.85691
3.83211
3.81792
3.75127
3.64194
3.34093
2.84001
2.36779
2.02565
1.67094
1.38261
1.25009
1.12625
0.999491
0.962317
0.9412
0.912414
0.909894
0.922491
0.95006
0.973092
0.975596
0.980773
0.998572
1.02053
1.13611
1.71348
2.64934
3.28319
3.32757
3.31213
3.33466
3.56686
4.5609
6.14597
7.16331
7.251
7.00078
6.4753
6.08382
5.82849
5.59995
5.36074
5.14387
4.99135
4.83952
4.67632
4.50766
4.34547
4.19057
4.028
3.86847
3.72799
3.59986
3.4879
3.39496
3.31454
3.23749
3.15144
3.04873
2.94149
2.84448
2.74687
2.64534
2.56196
2.49993
2.4465
2.39058
2.33777
2.2844
2.24236
2.17215
2.16013
2.25835
2.5464
2.93274
3.24266
3.39265
3.3977
3.41146
3.50616
3.68045
3.946
4.31618
4.59801
4.74563
4.8214
4.80223
4.7093
4.57657
4.45621
4.33753
4.22274
4.08445
3.96613
3.91765
3.87862
3.83254
3.7872
3.70246
3.71365
3.59629
3.31106
2.86532
2.50756
2.18891
1.78167
1.55816
1.44948
1.26431
1.13628
1.11047
1.08086
1.00121
0.953918
0.959437
0.953619
0.939342
0.947715
0.969838
1.13479
1.76274
2.8374
3.22759
3.27866
3.25456
3.16309
3.06819
2.98471
3.0804
3.69167
5.17447
6.44786
6.56433
6.462
6.20871
5.90242
5.59189
5.31196
5.05762
4.9048
4.80166
4.68896
4.55346
4.39699
4.22785
4.03958
3.87114
3.73158
3.60375
3.48034
3.36425
3.26623
3.18802
3.12684
3.06128
2.98
2.89113
2.78028
2.66213
2.56407
2.48574
2.41821
2.36266
2.31477
2.27447
2.24531
2.28433
2.50183
2.91988
3.31106
3.50757
3.53966
3.51386
3.4222
3.33955
3.26479
3.26999
3.35656
3.62174
4.03133
4.39307
4.58747
4.66833
4.6599
4.61284
4.50832
4.34495
4.187
4.06592
4.00078
3.96569
3.91797
3.85265
3.79015
3.69404
3.7435
3.70904
3.57718
3.29413
2.91341
2.60493
2.28314
1.89977
1.68969
1.5592
1.39843
1.26598
1.21125
1.12934
1.01125
0.97081
0.959121
0.947257
0.970182
1.19433
1.93789
2.84466
3.30795
3.28123
3.20326
3.06319
2.94412
2.86704
2.82828
2.76315
2.79018
3.10768
4.18096
5.44584
6.18935
6.14189
5.90957
5.55496
5.27935
5.05153
4.88619
4.73226
4.57138
4.4155
4.26523
4.11492
3.99723
3.90033
3.78179
3.64155
3.49631
3.37237
3.25666
3.14395
3.04975
2.97465
2.90484
2.83089
2.75462
2.66752
2.57015
2.48327
2.4215
2.38252
2.32821
2.30188
2.39591
2.70901
3.19121
3.60581
3.73368
3.71935
3.62715
3.4936
3.38489
3.30425
3.2296
3.19773
3.19111
3.23008
3.4304
3.79772
4.16742
4.43783
4.56664
4.55176
4.46647
4.31133
4.16461
4.06672
4.01186
3.96802
3.91573
3.85643
3.80482
3.706
3.751
3.74241
3.70611
3.5657
3.30201
2.94563
2.64597
2.35892
2.06041
1.83126
1.64932
1.49308
1.40817
1.34454
1.20642
1.06217
1.04909
1.0909
1.39345
2.20373
3.08322
3.4127
3.37001
3.24419
3.10456
2.95239
2.83896
2.76146
2.70382
2.63108
2.56002
2.48849
2.60079
3.21437
4.47195
5.43208
5.61869
5.5552
5.35357
5.12614
4.88179
4.67033
4.49753
4.34986
4.22017
4.08951
3.95272
3.82116
3.70224
3.59232
3.4836
3.35602
3.22349
3.11124
3.01842
2.94335
2.87764
2.81607
2.74685
2.65482
2.56522
2.48405
2.44037
2.3907
2.41371
2.60389
3.02326
3.4672
3.82318
3.90865
3.8981
3.81608
3.65727
3.48608
3.35453
3.28521
3.2422
3.20047
3.17852
3.16477
3.16675
3.26545
3.49063
3.8037
4.12393
4.27897
4.27759
4.23741
4.17577
4.1143
4.06046
4.0126
3.96115
3.90078
3.84311
3.69818
3.7175
3.73269
3.71934
3.68147
3.53982
3.29742
2.98351
2.65681
2.41433
2.20506
1.99354
1.70906
1.5688
1.52797
1.44319
1.27975
1.30163
1.70657
2.69587
3.47439
3.67449
3.56683
3.36641
3.20286
3.07011
2.92802
2.81769
2.72899
2.64185
2.5564
2.46444
2.37519
2.26671
2.27472
2.57378
3.46409
4.57077
5.27516
5.30245
5.20275
4.91668
4.64281
4.43342
4.27693
4.15616
4.03818
3.918
3.80944
3.70119
3.58171
3.44536
3.30323
3.18414
3.09811
3.02519
2.95121
2.86175
2.76635
2.69432
2.64238
2.5769
2.52109
2.50621
2.59354
2.92454
3.40816
3.74166
3.95081
4.01008
3.9715
3.90287
3.80205
3.66923
3.51051
3.37719
3.29779
3.24373
3.20396
3.17341
3.13679
3.11859
3.09385
3.09529
3.17324
3.41241
3.75222
3.98224
4.11831
4.20959
4.17253
4.11468
4.04722
3.95976
3.86309
3.78654
3.64518
3.70723
3.70643
3.70413
3.68596
3.63443
3.49286
3.27844
3.01884
2.66296
2.44711
2.301
2.1006
1.82897
1.67217
1.6106
1.72426
2.32106
3.45583
4.1704
4.12774
3.91929
3.68538
3.46879
3.29805
3.14385
2.99743
2.85918
2.74396
2.63037
2.53611
2.43543
2.32619
2.21475
2.14891
2.09661
2.18637
2.7106
3.79384
4.72141
4.92277
4.86664
4.66161
4.44716
4.26358
4.10536
3.97299
3.86478
3.76866
3.66772
3.54967
3.41335
3.27562
3.16506
3.07518
2.99293
2.90968
2.82436
2.74658
2.65743
2.61646
2.59542
2.65468
2.88569
3.32215
3.82492
4.02775
4.11119
4.14853
4.09099
3.99915
3.89549
3.79083
3.67332
3.53488
3.40431
3.31536
3.26077
3.21534
3.17773
3.14567
3.11354
3.074
3.02552
2.93608
2.94649
3.11197
3.44702
3.7712
4.03422
4.15067
4.15122
4.106
4.0188
3.89028
3.73852
3.58969
3.76774
3.7449
3.7249
3.70438
3.68186
3.62136
3.47758
3.26277
3.01074
2.72176
2.48596
2.31418
2.11299
1.99203
2.21943
3.1004
4.32782
4.7957
4.68039
4.38343
4.08468
3.84846
3.64772
3.45912
3.26887
3.08618
2.92661
2.79886
2.68168
2.5742
2.45685
2.32431
2.20845
2.12095
2.0513
1.98058
1.98968
2.24804
3.02085
4.00187
4.5869
4.58712
4.48784
4.26278
4.05273
3.88935
3.78418
3.70467
3.61917
3.51139
3.38764
3.25843
3.14118
3.03762
2.95337
2.87464
2.79771
2.73933
2.673
2.67131
2.81092
3.265
3.78769
4.18233
4.24465
4.23487
4.20701
4.13899
4.05607
3.96996
3.87377
3.77155
3.66593
3.5537
3.44145
3.34789
3.28268
3.23031
3.18024
3.13469
3.09429
3.04877
2.98981
2.91453
2.83245
2.83779
2.9608
3.26781
3.65495
3.98401
4.0901
4.0909
4.04676
3.89805
3.68716
3.56042
3.77767
3.76286
3.74165
3.71699
3.70437
3.68901
3.61963
3.46315
3.25938
2.99864
2.76547
2.49671
2.52491
3.01856
4.24943
5.42513
5.58123
5.3541
4.97455
4.61729
4.30948
4.05293
3.83075
3.62405
3.42268
3.21979
3.02849
2.85405
2.70686
2.58138
2.46767
2.35194
2.25433
2.15276
2.06021
1.96951
1.90301
1.85729
1.93853
2.38376
3.27328
4.03251
4.24725
4.20641
4.05017
3.87138
3.73923
3.64252
3.55057
3.44584
3.34164
3.23216
3.11334
2.99308
2.90436
2.83794
2.79725
2.76133
2.82041
3.12521
3.69058
4.27941
4.4898
4.52441
4.46301
4.33713
4.20986
4.11616
4.03119
3.94203
3.85047
3.76184
3.67304
3.58047
3.48677
3.3937
3.31126
3.245
3.18486
3.13075
3.08706
3.0398
2.97596
2.89368
2.80716
2.78841
2.79014
2.86804
3.10974
3.49563
3.7935
3.91224
3.91777
3.83891
3.65514
3.55951
3.74487
3.73175
3.70767
3.69081
3.68545
3.6819
3.66394
3.58964
3.42393
3.2368
3.03108
3.22864
4.2428
5.70145
6.41625
6.32023
5.96804
5.58232
5.22177
4.88227
4.55644
4.24892
3.9722
3.72979
3.52169
3.33098
3.1499
2.97279
2.8085
2.65086
2.49387
2.34816
2.24929
2.17315
2.09164
1.99724
1.89959
1.8321
1.76241
1.76841
1.9753
2.59894
3.38426
3.92564
3.97283
3.90156
3.7263
3.58704
3.48277
3.38206
3.28771
3.1863
3.06707
2.94404
2.8636
2.82882
2.85682
3.06342
3.55106
4.24318
4.68962
4.68189
4.59146
4.53549
4.45491
4.3474
4.2311
4.13103
4.02601
3.92184
3.82797
3.74881
3.68022
3.60942
3.52881
3.43801
3.34817
3.27133
3.20362
3.1421
3.08743
3.03017
2.95765
2.87784
2.81436
2.77442
2.7507
2.74508
2.78093
2.95239
3.22132
3.49843
3.68839
3.71197
3.63756
3.56685
3.46904
3.77943
3.81469
3.78386
3.71713
3.69058
3.67953
3.65362
3.54871
3.57341
4.22286
5.78445
7.25803
7.65699
7.44025
6.86702
6.2959
5.84013
5.45098
5.08867
4.74882
4.43146
4.14181
3.8781
3.63672
3.41666
3.21896
3.04125
2.88204
2.73216
2.58046
2.43408
2.30047
2.18496
2.07624
1.99356
1.91714
1.83388
1.75107
1.69376
1.64762
1.71573
2.07722
2.81772
3.53472
3.6316
3.61714
3.53994
3.42965
3.33739
3.24797
3.14526
3.03118
2.93326
2.89379
2.97544
3.3767
4.08241
4.68546
5.04629
5.05056
4.92087
4.68681
4.49135
4.39784
4.31774
4.24034
4.1522
4.04011
3.92675
3.83384
3.76094
3.68742
3.60846
3.53026
3.45235
3.37595
3.30207
3.22871
3.15659
3.09301
3.03482
2.96472
2.88252
2.82034
2.77718
2.74921
2.71908
2.70293
2.71041
2.78077
2.92422
3.17863
3.42489
3.53345
3.56754
2.48376
3.51726
3.72201
3.68059
3.64782
3.64879
3.67005
3.72166
4.00082
5.36133
7.62972
8.49462
8.36577
8.10099
7.69491
7.19724
6.64523
6.12148
5.65433
5.24074
4.87959
4.56111
4.27408
4.01163
3.76238
3.52485
3.30507
3.1034
2.91668
2.739
2.59233
2.50056
2.40489
2.28546
2.15574
2.02163
1.90649
1.82634
1.75585
1.67347
1.61625
1.57078
1.58387
1.7577
2.33099
2.96667
3.3116
3.42075
3.39734
3.31257
3.19799
3.12337
3.03053
3.04324
3.24813
3.81034
4.57499
5.05817
5.1179
5.0853
5.02232
4.91733
4.7575
4.55237
4.39828
4.30088
4.2372
4.16323
4.06782
3.96121
3.86473
3.78131
3.70228
3.61598
3.52265
3.44092
3.37605
3.31539
3.2481
3.17297
3.10056
3.03801
2.96938
2.89553
2.84377
2.79962
2.76218
2.72473
2.68127
2.65258
2.61693
2.63439
2.72134
2.94606
3.20553
3.43981
1.35158
2.37409
3.18601
3.60499
3.6443
3.70537
3.95043
4.62884
6.44952
8.84142
9.8916
9.71569
8.98559
8.25035
7.76108
7.33189
6.83594
6.30873
5.82671
5.40954
5.03984
4.7054
4.39222
4.09574
3.82849
3.57106
3.33451
3.13247
2.96694
2.82416
2.68877
2.53304
2.36094
2.21369
2.11994
2.0364
1.93744
1.85175
1.79982
1.7402
1.66526
1.57539
1.50676
1.48849
1.56149
1.90077
2.46625
2.93372
3.21524
3.21301
3.16473
3.19162
3.41144
3.85227
4.50861
5.10108
5.48199
5.47681
5.32161
5.09823
4.92997
4.83566
4.72777
4.57112
4.39631
4.2783
4.21329
4.15476
4.08762
4.01039
3.91965
3.81562
3.70811
3.59617
3.49974
3.43041
3.37397
3.31925
3.25912
3.18634
3.10279
3.0298
2.96989
2.9142
2.86737
2.82224
2.77497
2.7326
2.68885
2.63796
2.58492
2.54599
2.52534
2.57055
2.72975
3.1126
1.02275
1.28676
2.03508
3.12224
3.40168
4.20987
6.01936
7.66655
9.49794
10.0243
9.97318
9.74121
9.26501
8.5835
7.96363
7.42083
6.8816
6.35734
5.89818
5.52381
5.19003
4.8605
4.5426
4.22767
3.92417
3.63728
3.38175
3.18113
3.01037
2.853
2.69853
2.53633
2.37566
2.22248
2.1106
2.04396
1.9753
1.89323
1.81666
1.72185
1.6072
1.51809
1.45822
1.42806
1.41097
1.43275
1.59452
2.02144
2.60858
2.98255
3.27767
3.84744
4.63633
5.21427
5.55137
5.6147
5.56291
5.46802
5.32422
5.15428
4.97294
4.82213
4.71339
4.58073
4.43011
4.33401
4.26666
4.20264
4.13499
4.06169
3.96951
3.84776
3.7054
3.58995
3.52572
3.47678
3.42814
3.37546
3.31489
3.23724
3.14077
3.05564
2.99086
2.93112
2.88249
2.8431
2.80237
2.75178
2.695
2.64734
2.6024
2.54809
2.48329
2.43043
2.45054
2.70639
1.00042
1.01862
1.18445
2.04199
3.6256
5.94373
8.48889
9.95019
10.855
10.6166
10.0347
9.64128
9.33526
8.82456
8.13314
7.44526
6.89155
6.46621
6.08069
5.69743
5.32257
4.93335
4.54912
4.18415
3.85337
3.66776
3.53006
3.36104
3.17477
2.9823
2.78412
2.58706
2.42091
2.26764
2.1214
2.04142
2.00971
1.96807
1.88161
1.75282
1.60886
1.5198
1.46743
1.43105
1.39089
1.34856
1.3553
1.45895
1.8438
2.79332
3.85594
4.86211
5.6876
6.12701
6.11579
5.97936
5.63946
5.36572
5.21675
5.13057
5.02111
4.85772
4.69993
4.54742
4.39872
4.27555
4.20126
4.14073
4.07371
4.01101
3.95428
3.86547
3.72038
3.57758
3.49213
3.43684
3.38735
3.33595
3.27573
3.19563
3.09564
3.00747
2.95309
2.92703
2.91116
2.8862
2.84994
2.79798
2.72843
2.64585
2.57076
2.50834
2.44693
2.39171
2.37121
2.46774
1.00063
1.0092
1.16762
1.78662
3.77407
6.21232
8.03245
10.0169
10.8897
10.3846
9.97512
9.73097
9.49001
9.03511
8.31662
7.57727
6.94502
6.4257
5.98145
5.57077
5.22845
4.95451
4.63669
4.26581
3.93006
3.66612
3.44362
3.26341
3.08644
2.89591
2.76138
2.66542
2.53242
2.36522
2.20409
2.10518
2.02304
1.93074
1.82225
1.71961
1.64821
1.58285
1.52376
1.46958
1.39526
1.35341
1.36504
1.44234
1.81347
2.64838
3.88919
4.972
5.55889
6.09602
6.14855
5.90122
5.49411
5.28481
5.1878
5.11852
5.04558
4.90977
4.73783
4.57352
4.4214
4.28909
4.18417
4.11736
4.06099
4.00539
3.94089
3.84879
3.71245
3.5866
3.50986
3.45061
3.39406
3.33615
3.26702
3.17976
3.08207
3.00469
2.96593
2.93577
2.89951
2.85707
2.81314
2.76137
2.70096
2.63125
2.56185
2.5019
2.44807
2.39261
2.3738
2.44092
1.03463
1.24034
1.98163
2.84478
3.54623
4.45971
5.67654
7.87255
9.28152
9.82004
9.91734
9.76843
9.34039
8.70465
8.11121
7.54575
6.97675
6.43088
5.95019
5.54366
5.16839
4.78776
4.43436
4.1241
3.84395
3.5932
3.40491
3.25475
3.10564
2.94152
2.75633
2.56185
2.4053
2.27268
2.14886
2.04386
1.96826
1.90494
1.82668
1.72633
1.61251
1.52904
1.47249
1.4395
1.4158
1.43645
1.61999
2.05552
2.67119
2.89439
3.28159
3.91947
4.44102
5.20918
5.56004
5.55355
5.51364
5.44213
5.31663
5.15396
4.98952
4.84802
4.71552
4.59606
4.47221
4.33976
4.22241
4.13443
4.05809
3.97906
3.89656
3.81746
3.74333
3.66125
3.58434
3.50913
3.4368
3.35591
3.25311
3.15793
3.09829
3.05265
3.01257
2.96709
2.91637
2.86647
2.81026
2.74771
2.68317
2.62702
2.57864
2.51845
2.48062
2.45302
2.47002
2.67451
1.44089
2.29882
3.17452
3.53601
3.65677
3.75328
3.94134
4.74042
6.66269
8.84972
9.90939
9.7727
9.04449
8.30273
7.82127
7.36872
6.85538
6.31746
5.81094
5.36883
4.97957
4.62956
4.33989
4.09902
3.87198
3.64168
3.402
3.17393
2.98233
2.8252
2.67312
2.50297
2.34088
2.22679
2.14428
2.0606
1.97204
1.87851
1.79437
1.7051
1.60732
1.52554
1.48174
1.46628
1.53483
1.8869
2.48446
2.98942
3.20051
3.15747
3.12604
3.16605
3.3161
3.78637
4.53461
5.20076
5.48671
5.48598
5.35255
5.13205
4.93499
4.82309
4.71777
4.57847
4.42621
4.31167
4.22214
4.12993
4.03614
3.95263
3.86761
3.77618
3.69172
3.62354
3.55662
3.47864
3.39853
3.3197
3.22156
3.12616
3.06598
3.02447
2.983
2.93973
2.89742
2.84923
2.78649
2.71843
2.64558
2.57988
2.53794
2.52992
2.53856
2.60391
2.75115
3.08952
2.59856
3.36273
3.67836
3.7036
3.67214
3.69507
3.73435
3.77298
4.08192
5.42447
7.54959
8.43493
8.33309
8.06359
7.62953
7.126
6.60211
6.09908
5.63308
5.20915
4.84095
4.54428
4.29275
4.04769
3.80393
3.56851
3.33311
3.11072
2.90881
2.73093
2.58678
2.47019
2.34995
2.23015
2.12649
2.03941
1.94604
1.84497
1.77465
1.71354
1.64278
1.57379
1.58133
1.75597
2.26049
2.93428
3.33373
3.43116
3.40924
3.33199
3.17428
3.0669
3.00456
3.04134
3.32195
3.97504
4.73385
5.10247
5.11522
5.05729
4.95215
4.83529
4.69563
4.53888
4.40825
4.32906
4.25641
4.15861
4.04616
3.93649
3.84038
3.75725
3.68859
3.6295
3.56523
3.48239
3.38401
3.2846
3.18924
3.11828
3.06942
3.02688
2.98588
2.94481
2.89853
2.83894
2.77191
2.70619
2.63722
2.58584
2.56828
2.60741
2.76383
3.01935
3.31217
3.49447
3.41233
3.65908
3.77518
3.77183
3.7365
3.71431
3.6981
3.67205
3.55918
3.56366
4.12092
5.66991
7.20365
7.60624
7.36761
6.79838
6.26395
5.81572
5.42558
5.06816
4.74269
4.44738
4.17564
3.92249
3.68853
3.46511
3.2494
3.0492
2.86471
2.69217
2.54147
2.41174
2.28534
2.16825
2.06357
1.99657
1.94041
1.87346
1.7752
1.7107
1.67762
1.73463
2.08997
2.79505
3.43684
3.69355
3.67299
3.57824
3.44537
3.32115
3.20299
3.08315
2.99843
2.96531
2.95561
3.07615
3.48685
4.09887
4.67269
4.98403
4.95655
4.83905
4.65987
4.53206
4.44994
4.38067
4.29416
4.17373
4.02955
3.90247
3.80854
3.73668
3.67684
3.62104
3.56002
3.48516
3.39023
3.27385
3.16205
3.09733
3.05437
3.015
2.98105
2.94942
2.91346
2.85681
2.78675
2.70764
2.64096
2.63342
2.70383
2.94027
3.25008
3.55776
3.68901
3.66754
3.71435
3.67568
3.6727
3.6849
3.6918
3.70063
3.67097
3.5875
3.41519
3.23269
3.01297
3.18956
4.21227
5.71467
6.41235
6.34153
6.00123
5.60267
5.22806
4.88844
4.57496
4.28092
4.01137
3.76585
3.54636
3.34312
3.14679
2.96007
2.78937
2.61788
2.45641
2.33255
2.24311
2.1628
2.08481
2.00802
1.9211
1.84997
1.7729
1.77215
1.97855
2.58436
3.40459
3.86397
3.9483
3.89981
3.74774
3.60465
3.4687
3.34768
3.24395
3.14491
3.05982
2.98594
2.93436
2.89443
2.90288
3.05292
3.48794
4.11744
4.53471
4.59676
4.62943
4.60092
4.53518
4.44214
4.30656
4.15261
3.99414
3.8759
3.78875
3.71925
3.66523
3.61353
3.55704
3.48979
3.39915
3.26273
3.13565
3.08689
3.05139
3.01425
2.97688
2.93933
2.89342
2.84299
2.79275
2.72268
2.71664
2.82944
3.11398
3.43846
3.68871
3.81843
3.8245
3.76218
3.77339
3.75588
3.73041
3.71923
3.71653
3.69508
3.61884
3.45797
3.25579
2.99581
2.76559
2.49934
2.53136
3.04734
4.29525
5.46191
5.61986
5.39579
5.00774
4.6396
4.33283
4.0781
3.84729
3.6215
3.40435
3.19874
3.00142
2.82112
2.68237
2.55884
2.44389
2.346
2.25884
2.15798
2.07093
1.98158
1.92727
1.87109
1.93853
2.38244
3.21168
3.97925
4.22082
4.1889
4.07572
3.94051
3.80826
3.6685
3.51841
3.38105
3.27026
3.17753
3.09847
3.02481
2.96442
2.89061
2.84504
2.76776
2.78903
3.03494
3.59945
4.14568
4.53639
4.6044
4.56029
4.43341
4.26937
4.11192
3.96424
3.85714
3.7785
3.71148
3.65751
3.60694
3.55322
3.48877
3.40081
3.27132
3.1407
3.07507
3.03073
2.98943
2.9515
2.92101
2.88625
2.86182
2.82704
2.85675
3.0094
3.30587
3.62949
3.78269
3.86257
3.87518
3.84364
3.74529
3.76393
3.74155
3.72612
3.70761
3.68879
3.62964
3.48162
3.26062
3.01056
2.7232
2.49103
2.32143
2.11535
1.99657
2.23889
3.13148
4.36734
4.80571
4.68708
4.38745
4.0897
3.85476
3.64564
3.43895
3.23679
3.05679
2.90014
2.76563
2.65718
2.55231
2.43593
2.33228
2.23815
2.14343
2.07107
1.99743
2.00633
2.22389
2.95946
3.91707
4.4384
4.5472
4.47907
4.30952
4.15522
4.01438
3.88004
3.72211
3.55462
3.41055
3.30129
3.21332
3.13732
3.06418
2.9988
2.92806
2.85108
2.76218
2.64528
2.62197
2.76721
3.1975
3.8474
4.28433
4.35464
4.33779
4.26834
4.1357
3.96477
3.8436
3.76336
3.69832
3.64383
3.59527
3.54415
3.48495
3.4055
3.27978
3.1339
3.0492
3.00246
2.96684
2.93564
2.9187
2.9068
2.94684
3.07101
3.29189
3.58758
3.84196
3.90615
3.89793
3.86388
3.83062
3.79406
3.71575
3.71073
3.70912
3.70959
3.69155
3.63871
3.49464
3.27709
3.01401
2.65965
2.45065
2.30332
2.10081
1.82555
1.67119
1.61167
1.72724
2.32862
3.44877
4.16281
4.12331
3.90947
3.67248
3.45749
3.26848
3.10969
2.98232
2.85634
2.73439
2.61762
2.52869
2.42984
2.34711
2.25782
2.19175
2.12572
2.21107
2.74984
3.72435
4.63206
4.80948
4.751
4.62674
4.47138
4.33749
4.21128
4.07146
3.91694
3.75045
3.58808
3.44979
3.33684
3.24409
3.17563
3.11445
3.04992
2.97349
2.86926
2.74468
2.62971
2.55994
2.53576
2.59384
2.88468
3.43207
3.91233
4.19492
4.21124
4.15079
3.96903
3.83048
3.74701
3.68076
3.6267
3.58385
3.53468
3.47677
3.40107
3.28741
3.13957
3.03188
2.98414
2.95116
2.9422
2.94923
3.04749
3.3275
3.6816
3.92675
4.07761
4.08543
3.99529
3.88369
3.83438
3.80507
3.77838
3.70077
3.71847
3.73251
3.71796
3.67983
3.53853
3.29705
2.98242
2.65748
2.41485
2.20556
1.99266
1.70788
1.56982
1.52718
1.43967
1.27545
1.29711
1.69186
2.66889
3.46936
3.66397
3.54776
3.35573
3.18466
3.05109
2.94276
2.84077
2.74076
2.63692
2.55705
2.47308
2.40677
2.31192
2.32396
2.60569
3.53418
4.60894
5.19437
5.22218
5.09527
4.86529
4.65256
4.4941
4.3725
4.25891
4.11842
3.93719
3.75823
3.61474
3.49853
3.38903
3.29105
3.21673
3.15244
3.0821
3.00459
2.89522
2.75331
2.62926
2.55496
2.50135
2.47097
2.48147
2.63215
2.99973
3.47097
3.89354
3.96646
3.91434
3.8594
3.78498
3.70048
3.62335
3.56704
3.51076
3.44759
3.37111
3.26854
3.13948
3.02813
2.9834
2.97109
3.00132
3.16773
3.55547
3.99299
4.25481
4.33618
4.31713
4.20459
3.99349
3.85554
3.8098
3.78338
3.77547
3.70669
3.75015
3.74191
3.70601
3.56654
3.30217
2.94624
2.64767
2.35864
2.05736
1.83191
1.65123
1.49372
1.40777
1.34199
1.20094
1.06098
1.04951
1.08951
1.38255
2.18624
3.08861
3.39107
3.34913
3.22088
3.08889
2.97602
2.88145
2.79037
2.70791
2.62808
2.56498
2.49767
2.61229
3.25985
4.46861
5.53172
5.58003
5.48362
5.28557
5.0736
4.89176
4.72265
4.58045
4.44388
4.29723
4.11584
3.91541
3.7567
3.64157
3.54619
3.45286
3.3586
3.26784
3.19056
3.12743
3.0487
2.94185
2.79521
2.64418
2.555
2.50423
2.45382
2.42721
2.42843
2.48104
2.67927
3.11862
3.52118
3.74316
3.83468
3.81758
3.74084
3.6291
3.53967
3.47337
3.40962
3.34067
3.26063
3.15169
3.03704
3.02495
3.09524
3.3482
3.75242
4.19052
4.42419
4.43353
4.42081
4.33989
4.16297
3.95228
3.85279
3.80487
3.77733
3.76068
3.70973
3.74364
3.7093
3.57726
3.29361
2.91415
2.60611
2.28142
1.8964
1.6909
1.56189
1.39924
1.26597
1.21056
1.12736
1.00948
0.971417
0.959819
0.947783
0.969397
1.19569
1.93112
2.9141
3.25242
3.24493
3.20893
3.11607
3.00921
2.91213
2.84362
2.75906
2.7761
3.05827
4.11793
5.39019
6.12806
6.13422
5.91496
5.55855
5.25488
5.04906
4.9026
4.77439
4.64416
4.47876
4.28712
4.09539
3.92686
3.79822
3.68485
3.57822
3.48341
3.39071
3.29872
3.20368
3.09497
2.98963
2.89227
2.80622
2.7014
2.59005
2.52792
2.49484
2.46091
2.41581
2.36818
2.3604
2.44897
2.7643
3.16327
3.57168
3.69186
3.66215
3.5877
3.51567
3.44213
3.36797
3.29914
3.2565
3.18143
3.18282
3.30665
3.6298
4.02574
4.33684
4.54045
4.57425
4.53355
4.41463
4.27697
4.10964
3.96838
3.9048
3.86179
3.81405
3.78112
3.69993
3.71412
3.59678
3.31041
2.86534
2.50974
2.18745
1.77909
1.55946
1.45045
1.26361
1.13736
1.11149
1.08089
0.999674
0.953867
0.959954
0.953923
0.939805
0.94822
0.971988
1.1265
1.81754
2.79901
3.19504
3.29811
3.28876
3.20084
3.10486
3.01483
3.11062
3.7057
5.071
6.35383
6.48753
6.41926
6.18018
5.92469
5.64672
5.3734
5.14559
4.96937
4.82115
4.66081
4.47389
4.27704
4.08745
3.93756
3.84606
3.76405
3.67662
3.57949
3.47549
3.35022
3.2075
3.08265
2.97924
2.88465
2.7983
2.72757
2.6568
2.58731
2.51207
2.43794
2.36999
2.30917
2.25363
2.22608
2.27301
2.48457
2.88632
3.32391
3.51942
3.52441
3.47607
3.39427
3.31682
3.30632
3.32541
3.43305
3.6803
4.03679
4.39798
4.54891
4.5991
4.5955
4.52731
4.42505
4.31109
4.19521
4.09874
4.03479
3.99535
3.95709
3.89347
3.80194
3.65647
3.64229
3.3408
2.83893
2.36987
2.02649
1.66871
1.38217
1.25067
1.12572
0.99919
0.962557
0.941131
0.912391
0.910135
0.922946
0.950547
0.973317
0.975502
0.980792
0.999652
1.02092
1.13946
1.75489
2.65449
3.22901
3.32084
3.32003
3.34531
3.60671
4.62374
6.14197
7.05025
7.17802
6.93513
6.46407
6.10137
5.87664
5.67024
5.44857
5.21805
5.00254
4.81973
4.64843
4.46791
4.28496
4.12248
4.00753
3.9102
3.79504
3.66339
3.53339
3.41729
3.30586
3.1872
3.07769
2.98501
2.90352
2.8356
2.77408
2.70636
2.62851
2.53883
2.45273
2.3728
2.29644
2.23274
2.19186
2.18385
2.20877
2.32705
2.6335
3.028
3.29407
3.33648
3.32085
3.33077
3.43403
3.6641
4.06088
4.46694
4.74471
4.86364
4.851
4.7477
4.56387
4.41071
4.29647
4.2421
4.18517
4.12046
4.08173
4.04614
3.98017
3.87209
3.75991
3.62963
3.38486
2.75222
2.17445
1.83467
1.48228
1.17881
1.12151
1.06896
0.998899
0.958679
0.936521
0.909934
0.902063
0.909176
0.943979
0.993545
1.01945
1.02249
1.0196
1.02167
1.01984
1.02424
1.10296
1.59989
2.55464
3.07214
3.58242
4.27858
5.58616
6.75428
7.47799
7.40995
7.07809
6.72426
6.42441
6.14823
5.91074
5.72594
5.54275
5.33128
5.0958
4.86259
4.67267
4.51938
4.37979
4.26077
4.15154
4.02853
3.88288
3.72411
3.56445
3.41707
3.29954
3.20816
3.12721
3.05942
3.00241
2.94809
2.88202
2.79733
2.69936
2.59394
2.48924
2.39693
2.32155
2.26276
2.22065
2.19654
2.16644
2.16795
2.24316
2.4346
2.75837
3.0655
3.27403
3.57197
3.96522
4.29614
4.62039
4.86959
4.99692
4.98302
4.87368
4.71511
4.51996
4.33966
4.26559
4.23227
4.22805
4.21437
4.17259
4.12095
4.03015
3.85224
3.71096
3.63451
2.67041
1.70284
1.17292
0.863277
0.645663
0.620213
0.673414
0.761043
0.795661
0.845533
0.922594
0.955195
0.955671
0.970067
1.01232
1.06159
1.0764