/*--------------------------------*- C++ -*----------------------------------*\
  =========                 |
  \\      /  F ield         | OpenFOAM: The Open Source CFD Toolbox
   \\    /   O peration     | Website:  https://openfoam.org
    \\  /    A nd           | Version:  7
     \\/     M anipulation  |
\*---------------------------------------------------------------------------*/
FoamFile
{
    version     2.0;
    format      ascii;
    class       volScalarField;
    location    "4";
    object      T;
}
// * * * * * * * * * * * * * * * * * * * * * * * * * * * * * * * * * * * * * //

dimensions      [0 0 0 1 0 0 0];

internalField   nonuniform List<scalar> 
4608
(
1
1
1
1
1
1
1
1
1
1
1
1
1
1
1
1
1
1
1
1
1
1
1
1
1
1
1
1
1
1
1
1
1
1
1
1
1
1
1
1
1
1
1
1
1
1
1
1
1
1
1
1
1
1
1
1
1
1
1
1
1
1
1
1
1
1
1
1
1
1
1
1
1
1
1
1
1
1
1
1
1
1
1
1
1
1
1
1
1
1
1
1
1
1
1
1
1
1
1
1
1
1
1
1
1
1
1
1
1
1
1
1
1
1
1
1
1
1
1
1
1
1
1
1
1
1
1
1
1
1
1
1
1
1
1
1
1
1
1
1
1
1
1
1
1
1
1
1
1
1
1
1
1
1
1
1
1
1
1
1
1
1
1
1
1
1
1
1
1
1
1
1
1
1
1
1
1
1
1
1
1
1
1
1
1
1
1
1
1
1
1
1
1
1
1
1
1
1
1
1
1
1
1
1
1
1
1
1
1
1
1
1
1
1
1
1
1
1
1
1
1
1
1
1
1
1
1
1
1
1
1
1
1
1
1
1
1
1
1
1
1
1
1
1
1
1
1
1
1
1
1
1
1
1
1
1
1
1
1
1
1
1
1
1
1
1
1
1
1
1
1
1
1
1
1
1
1
1
1
1
1
1
1
1
1
1
1
1
1
1
1
1
1
1
1
1
1
1
1
1
1
1
1
1
1
1
1
1
1
1
1
1
1
1
1
1
1
1
1
1
1
1
1
1
1
1
1
1
1
1
1
1
1
1
1
1
1
1
1
1
1
1
1
1
1
1
1
1
1
1
1
1
1
1
1
1
1
1
1
1
1
1
1
1
1
1
1
1
1
1
1
1
1
1
1
1
1
1
1
1
1
1
1
1
1
1
1
1
1
1
1
1
1
1
1
1
1
1
1
1
1
1
1
1
1
1
1
1
1
1
1
1
1
1
1
1
1
1
1
1
1
1
1
1
1
1
1
1
1
1
1
1
1
1
1
1
1
1
1
1
1
1
1
1
1
1
1
1
1
1
1
1
1
1
1
1
1
1
1
1
1
1
1
1
1
1
1
1
1
1
1
1
1
1
1
1
1
1
1
1
1
1
1
1
1
1
1
1
1
1
1
1
1
1
1
1
1
1
1
1
1
1
1
1
1
1
1
1
1
1
1
1
1
1
1
1
1
1
1
1
1
1
1
1
1
1
1
1
1
1
1
1
1
1
1
1
1
1
1
1
1
1
1
1
1
1
1
1
1
1
1
1
1
1
1
1
1
1
1
1
1
1
1
1
1
1
1
1
1
1
1
1
1
1
1
1
1
1
1
1
1
1
1
1
1
1
1
1
1
1
1
1
1
1
1
1
1
1
1
1
1
1
1
1
1
1
1
1
1
1
1
1
1
1
1
1
1
1
1
1
1
1
1
1
1
1
1
1
1
1
1
1
1
1
1
1
1
1
1
1
1
1
1
1
1
1
1
1
1
1
1
1
1
1
1
1
1
1
1
1
1
1
1
1
1
1
1
1
1
1
1
1
1
1
1
1
1
1
1
1
1
1
1
1
1
1
1
1
1
1
1
1
1
1
1
1
1
1
1
1
1
1
1
1
1
1
1
1
1
1
1
1
1
1
1
1
1
1
1
1
1
1
1
1
1
1
1
1
1
1
1
1
1
1
1
1
1
1
1
1
1
1
1
1
1
1
1
1
1
1
1
1
1
1
1
1
1
1
1
1
1
1
1
1
1
1
1
1
1.07821
1.18353
1.28647
1.38957
1.48808
1.56969
1.63879
1.68426
1.69792
1.6816
1.63822
1.58567
1.54254
1.52596
1.51432
1.51492
1.5194
1.52469
1.53045
1.53395
1.53541
1.53642
1.53786
1.5409
1.00082
1.0058
1.03047
1.07182
1.14566
1.23178
1.32372
1.40623
1.48112
1.52015
1.54789
1.56205
1.55996
1.55559
1.54288
1.53608
1.5326
1.53033
1.53206
1.53557
1.5374
1.53875
1.54008
1.54189
1
0.999982
1.00008
1.00008
1.00124
1.0083
1.03687
1.11768
1.26618
1.45346
1.56573
1.62293
1.62193
1.61248
1.59279
1.56438
1.54084
1.53592
1.53819
1.5432
1.54542
1.54623
1.54616
1.5466
1
0.999999
0.999999
1
0.999996
1.00001
0.999966
1.0007
1.01161
1.11122
1.30523
1.50914
1.59905
1.60957
1.60612
1.59738
1.57465
1.55933
1.55968
1.55905
1.55822
1.55802
1.55767
1.55777
1
1
1
1
1
1
0.999996
0.999997
0.999963
1.00055
1.01596
1.12572
1.35243
1.51991
1.62894
1.62874
1.61595
1.6017
1.59019
1.58036
1.57335
1.57146
1.57035
1.57162
1
1
1
1
1
1
1
1
0.999997
0.999997
0.999964
1.0009
1.03214
1.16503
1.40386
1.54895
1.61775
1.61768
1.61186
1.60115
1.58932
1.58357
1.57912
1.57968
1
1
1
1
1
1
1
1
1
1
0.999997
0.999993
1.00001
1.00288
1.06043
1.24622
1.478
1.56277
1.59582
1.60238
1.59984
1.5883
1.58186
1.57959
1
1
1
1
1
1
1
1
1
1
1
0.999999
0.999999
0.99999
1.00041
1.01227
1.12467
1.33993
1.52745
1.58706
1.59261
1.58938
1.58502
1.5823
1
1
1
1
1
1
1
1
1
1
1
1
1
0.999998
0.999999
0.99999
1.0027
1.04756
1.22254
1.43119
1.55572
1.58935
1.58947
1.5877
1
1
1
1
1
1
1
1
1
1
1
1
1
1
1
0.999999
0.999991
1.00037
1.01412
1.13484
1.3599
1.5077
1.55167
1.57669
1
1
1
1
1
1
1
1
1
1
1
1
1
1
1
1
0.999999
0.999997
1.00004
1.00532
1.06775
1.28124
1.47127
1.55209
1
1
1
1
1
1
1
1
1
1
1
1
1
1
1
1
1
1
0.999999
1
1.00151
1.0433
1.21564
1.40727
1
1
1
1
1
1
1
1
1
1
1
1
1
1
1
1
1
1
1
1
0.999999
1.00085
1.02139
1.15182
1
1
1
1
1
1
1
1
1
1
1
1
1
1
1
1
1
1
1
1
1
0.999999
1.00029
1.00964
1
1
1
1
1
1
1
1
1
1
1
1
1
1
1
1
1
1
1
1
1
1
0.999999
1.00001
1
1
1
1
1
1
1
1
1
1
1
1
1
1
1
1
1
1
1
1
1
1
1
1
1
1
1
1
1
1
1
1
1
1
1
1
1
1
1
1
1
1
1
1
1
1
1
0.999999
1
1
1
1
1
1
1
1
1
1
1
1
1
1
1
1
1
1
1
1
1
1
1
0.999991
1
1
1
1
1
1
1
1
1
1
1
1
1
1
1
1
1
1
1
1
1
0.999999
1.00032
1.00948
1
1
1
1
1
1
1
1
1
1
1
1
1
1
1
1
1
1
1
1
0.999999
1.00077
1.0212
1.16078
1
1
1
1
1
1
1
1
1
1
1
1
1
1
1
1
1
1
0.999999
1
1.00155
1.04062
1.21056
1.44076
1
1
1
1
1
1
1
1
1
1
1
1
1
1
1
1
0.999999
0.999997
1.00005
1.00529
1.06872
1.2715
1.47633
1.56317
1
1
1
1
1
1
1
1
1
1
1
1
1
1
1
0.999999
0.999991
1.00037
1.01401
1.1359
1.35933
1.50175
1.5556
1.57989
1
1
1
1
1
1
1
1
1
1
1
1
1
0.999998
0.999999
0.99999
1.00269
1.04748
1.22214
1.43394
1.55329
1.58857
1.59054
1.58868
1
1
1
1
1
1
1
1
1
1
1
0.999999
0.999999
0.99999
1.00041
1.01227
1.12479
1.33932
1.52785
1.5879
1.59164
1.58884
1.58463
1.583
1
1
1
1
1
1
1
1
1
1
0.999997
0.999993
1.00001
1.00288
1.06037
1.24635
1.47783
1.56242
1.59631
1.60255
1.59977
1.58782
1.58162
1.57978
1
1
1
1
1
1
1
1
0.999997
0.999997
0.999964
1.0009
1.03215
1.16503
1.40381
1.54901
1.61764
1.61758
1.61186
1.6013
1.58925
1.58334
1.57904
1.57963
1
1
1
1
1
1
0.999996
0.999997
0.999963
1.00055
1.01597
1.12573
1.3525
1.51979
1.62893
1.62878
1.61604
1.60165
1.59018
1.58049
1.57326
1.57136
1.57039
1.57164
1
0.999999
0.999999
1
0.999996
1.00001
0.999966
1.0007
1.01161
1.11122
1.30521
1.50921
1.59901
1.60953
1.60612
1.59743
1.57472
1.55932
1.55968
1.55906
1.55815
1.558
1.55774
1.55782
1
0.999982
1.00008
1.00008
1.00124
1.0083
1.03687
1.11768
1.26617
1.45347
1.56572
1.62293
1.62193
1.61248
1.5928
1.5644
1.54087
1.53589
1.5382
1.54318
1.54537
1.54623
1.54619
1.54664
1.00082
1.0058
1.03046
1.07182
1.14566
1.23177
1.32372
1.40623
1.48111
1.52016
1.54788
1.56204
1.55996
1.5556
1.54288
1.53607
1.53259
1.53033
1.53206
1.53556
1.53739
1.53876
1.54009
1.5419
1.07821
1.18353
1.28648
1.38958
1.48806
1.56969
1.63879
1.68426
1.69791
1.68159
1.63822
1.58567
1.54256
1.52597
1.51432
1.51492
1.5194
1.52469
1.53045
1.53394
1.5354
1.53643
1.53787
1.5409
1.39951
1.2325
1.11397
1.03899
0.969587
0.958607
0.988406
1.03152
1.04408
1.05922
1.0809
1.08694
1.08635
1.09056
1.10323
1.11475
1.11755
1.11734
1.1155
1.11311
1.10814
1.10162
1.10255
1.12838
1.27814
1.54003
1.76817
1.97352
2.13016
2.17824
2.13851
2.06455
2.00573
1.97538
1.95424
1.93015
1.90556
1.8859
1.86952
1.85337
1.83554
1.81566
1.79481
1.7741
1.75352
1.73267
1.71187
1.6925
1.67582
1.66319
1.65309
1.64269
1.63126
1.61876
1.6052
1.58962
1.57014
1.54779
1.52855
1.51562
1.50755
1.50182
1.49609
1.49
1.4837
1.47548
1.46107
1.43983
1.41176
1.39829
1.39823
1.40566
1.4422
1.52973
1.65522
1.76163
1.82698
1.86525
1.87853
1.85945
1.84022
1.82334
1.81383
1.80751
1.80178
1.79327
1.78325
1.77209
1.75812
1.7392
1.72267
1.71439
1.71017
1.70657
1.70405
1.69621
1.49748
1.41276
1.31942
1.25964
1.18554
1.09941
1.09311
1.08711
1.07151
1.06191
1.05437
1.04918
1.0498
1.05325
1.06487
1.07851
1.08622
1.08779
1.08754
1.08875
1.08742
1.08856
1.11224
1.26753
1.49401
1.55878
1.62816
1.72464
1.85971
1.96595
2.04272
2.04109
2.01759
1.98908
1.9613
1.93273
1.91139
1.89474
1.87715
1.85979
1.84165
1.82188
1.80125
1.78011
1.7598
1.74066
1.72232
1.70422
1.68747
1.67305
1.66139
1.65067
1.63961
1.62737
1.61293
1.59586
1.57598
1.55599
1.54031
1.52782
1.51796
1.51083
1.50413
1.4967
1.48906
1.47999
1.46631
1.44602
1.42162
1.41877
1.4289
1.46906
1.53538
1.60388
1.64417
1.69493
1.75366
1.78681
1.796
1.80711
1.81747
1.82315
1.82207
1.81584
1.80771
1.79663
1.78547
1.77589
1.76332
1.74458
1.72621
1.7171
1.71304
1.71068
1.70906
1.70033
1.53167
1.49319
1.42511
1.35321
1.29209
1.22021
1.1586
1.12793
1.09597
1.05956
1.04796
1.04236
1.03528
1.03557
1.04016
1.04839
1.05539
1.05707
1.05958
1.06589
1.07352
1.11271
1.27885
1.47627
1.58334
1.58871
1.58641
1.59022
1.62627
1.76216
1.93351
2.02169
2.03304
2.01304
1.9694
1.93521
1.91095
1.88884
1.86523
1.8432
1.82721
1.81155
1.79463
1.77642
1.7583
1.74014
1.72003
1.69961
1.68138
1.66463
1.64981
1.63719
1.62617
1.61563
1.60356
1.58862
1.5723
1.55692
1.54093
1.52426
1.51056
1.50023
1.49128
1.48178
1.47268
1.46334
1.45547
1.44177
1.43954
1.4594
1.51311
1.57654
1.62456
1.64879
1.65022
1.6523
1.66558
1.68936
1.72439
1.76976
1.802
1.8183
1.82821
1.82629
1.81634
1.80202
1.78846
1.77417
1.76003
1.74292
1.72791
1.72159
1.71683
1.71143
1.70607
1.69533
1.55068
1.53302
1.49437
1.43222
1.37729
1.32354
1.24835
1.20113
1.17535
1.12893
1.09437
1.08681
1.07869
1.05612
1.04344
1.04548
1.04355
1.04029
1.04357
1.05142
1.10932
1.28944
1.5042
1.56923
1.58011
1.57789
1.56673
1.55411
1.54331
1.56005
1.65729
1.84298
1.97681
1.98141
1.97238
1.94944
1.92089
1.89162
1.86415
1.83805
1.82182
1.81031
1.79765
1.7829
1.76575
1.74649
1.72411
1.70307
1.68452
1.66711
1.6502
1.63406
1.62034
1.60943
1.60074
1.59107
1.5787
1.56483
1.54708
1.52798
1.51202
1.49899
1.48737
1.47776
1.46958
1.46248
1.45661
1.46402
1.50443
1.57474
1.63394
1.66127
1.67005
1.66744
1.65563
1.64449
1.63403
1.63484
1.6477
1.68495
1.73824
1.78218
1.80648
1.81465
1.81344
1.80815
1.79617
1.77727
1.75885
1.74376
1.73522
1.73028
1.72391
1.71573
1.70851
1.69685
1.56628
1.55806
1.53797
1.49897
1.44507
1.39803
1.34656
1.27742
1.23252
1.20225
1.1659
1.13381
1.11888
1.09488
1.05908
1.04879
1.04646
1.04374
1.05223
1.13088
1.33267
1.508
1.58316
1.58026
1.57146
1.55412
1.53832
1.5274
1.52152
1.51107
1.51556
1.57078
1.73476
1.88495
1.95577
1.94942
1.92631
1.89211
1.8646
1.84084
1.82305
1.80547
1.78682
1.76929
1.75246
1.73532
1.72158
1.70939
1.69334
1.67381
1.65359
1.63666
1.62081
1.60489
1.59099
1.57931
1.56821
1.55651
1.54443
1.53039
1.51412
1.49958
1.48909
1.48248
1.47299
1.46849
1.48668
1.54265
1.61935
1.67661
1.69535
1.69446
1.68408
1.66742
1.65276
1.64141
1.63077
1.62608
1.62503
1.6308
1.65999
1.71086
1.75974
1.79348
1.80697
1.80458
1.7941
1.77596
1.75876
1.74676
1.73972
1.73393
1.72707
1.71951
1.71309
1.70089
1.57783
1.57424
1.56652
1.54567
1.50899
1.45813
1.41229
1.36534
1.31246
1.26651
1.22663
1.19158
1.17232
1.15589
1.11856
1.0792
1.07679
1.09125
1.18813
1.38762
1.54665
1.60083
1.59589
1.58016
1.56171
1.54051
1.52359
1.51126
1.50138
1.48865
1.47609
1.46357
1.48611
1.59831
1.77641
1.88478
1.9005
1.89424
1.87441
1.85088
1.82421
1.80084
1.78168
1.7652
1.75033
1.7348
1.71765
1.70015
1.68395
1.66884
1.65403
1.63669
1.61849
1.60256
1.58873
1.57687
1.5663
1.55639
1.54517
1.53018
1.515
1.50094
1.49349
1.48509
1.48987
1.52544
1.59591
1.66247
1.70972
1.72113
1.72027
1.71075
1.69117
1.66852
1.64996
1.63967
1.63333
1.62731
1.62411
1.62186
1.62272
1.63785
1.67156
1.71583
1.75655
1.77437
1.77417
1.76931
1.76155
1.75412
1.74759
1.74148
1.73496
1.72741
1.7199
1.70159
1.58086
1.5807
1.57816
1.57198
1.55184
1.51767
1.47201
1.42084
1.37996
1.34295
1.30327
1.24498
1.2135
1.20357
1.18349
1.14619
1.15722
1.28155
1.49316
1.61176
1.63905
1.62522
1.5991
1.57673
1.55795
1.53705
1.51988
1.50443
1.48846
1.4731
1.45665
1.44031
1.41952
1.42149
1.48367
1.63677
1.78326
1.86454
1.86814
1.85786
1.82753
1.79776
1.77488
1.75743
1.74337
1.7288
1.71325
1.69901
1.68479
1.66914
1.65112
1.63172
1.61478
1.60204
1.59088
1.57942
1.56541
1.55022
1.53858
1.53008
1.51887
1.50839
1.5065
1.52285
1.58062
1.65555
1.70227
1.72911
1.73599
1.73129
1.72304
1.71084
1.69412
1.67278
1.65361
1.64176
1.63375
1.62784
1.62334
1.61801
1.61544
1.61179
1.61306
1.62538
1.66096
1.7073
1.73692
1.75457
1.7658
1.76125
1.75394
1.74538
1.73471
1.7227
1.71305
1.69452
1.58118
1.58094
1.58035
1.57744
1.57013
1.5508
1.5208
1.48275
1.4278
1.39099
1.36448
1.32811
1.27583
1.24178
1.22926
1.26114
1.40313
1.60242
1.70139
1.69618
1.67067
1.6407
1.6121
1.58847
1.56617
1.54381
1.52139
1.50233
1.48363
1.46741
1.44904
1.42782
1.40593
1.39192
1.38104
1.40123
1.50683
1.68072
1.79836
1.82299
1.81734
1.79577
1.77238
1.75235
1.73462
1.71869
1.70485
1.69242
1.67947
1.66447
1.64693
1.62846
1.61276
1.59922
1.58639
1.57341
1.56003
1.54754
1.53329
1.52636
1.52269
1.53311
1.57352
1.64308
1.7145
1.74105
1.75007
1.7536
1.74661
1.73539
1.72273
1.70979
1.69458
1.67582
1.65705
1.64364
1.63529
1.62851
1.62316
1.61869
1.61394
1.60783
1.60042
1.58631
1.58771
1.61343
1.66232
1.70682
1.74197
1.75673
1.75659
1.75109
1.74042
1.72472
1.70578
1.6847
1.58642
1.5848
1.58279
1.5804
1.57747
1.56965
1.55091
1.52167
1.48542
1.4411
1.40195
1.37222
1.33499
1.31584
1.37059
1.5443
1.71677
1.76906
1.7561
1.72264
1.68746
1.65831
1.63241
1.60677
1.57928
1.55121
1.52549
1.50469
1.48562
1.46768
1.44739
1.42396
1.40223
1.38392
1.36802
1.35263
1.35536
1.41411
1.56038
1.7054
1.774
1.77818
1.7698
1.74658
1.72276
1.70325
1.69048
1.68039
1.66952
1.65611
1.64079
1.62422
1.60795
1.59237
1.57912
1.56668
1.55447
1.54527
1.53512
1.53539
1.56009
1.6332
1.70917
1.75985
1.76805
1.76476
1.75947
1.75028
1.74014
1.72976
1.71807
1.70524
1.69124
1.67558
1.65952
1.64569
1.63583
1.62799
1.62065
1.61399
1.60788
1.60071
1.5914
1.57984
1.56576
1.56608
1.58522
1.63158
1.68683
1.73113
1.74467
1.74478
1.73919
1.72126
1.69536
1.67649
1.58298
1.58177
1.58082
1.57927
1.57841
1.57706
1.56925
1.54974
1.52247
1.48561
1.45051
1.40829
1.41614
1.51326
1.69476
1.83462
1.84543
1.82213
1.78226
1.74278
1.70732
1.67664
1.64896
1.62182
1.59367
1.56365
1.53405
1.50618
1.48247
1.46228
1.44321
1.42319
1.4051
1.38487
1.36585
1.34783
1.33332
1.32462
1.34471
1.44219
1.59443
1.69801
1.73224
1.7291
1.71278
1.69259
1.67789
1.66631
1.65474
1.6417
1.62919
1.61575
1.59971
1.58216
1.56785
1.5573
1.551
1.54709
1.55803
1.60934
1.69343
1.76761
1.79454
1.79567
1.78835
1.77236
1.75607
1.74375
1.73266
1.72164
1.7105
1.69937
1.68708
1.67338
1.65984
1.64683
1.6352
1.62559
1.61671
1.60853
1.60176
1.59421
1.58403
1.57096
1.55849
1.55279
1.55263
1.56452
1.60205
1.65916
1.69972
1.71445
1.71554
1.70617
1.68489
1.67103
1.5747
1.57354
1.57249
1.57226
1.57365
1.57472
1.57273
1.56368
1.54302
1.51875
1.49269
1.52935
1.68326
1.85105
1.9175
1.90783
1.87434
1.83618
1.79893
1.76238
1.72607
1.69068
1.65761
1.62709
1.59911
1.57178
1.54471
1.51774
1.49229
1.46694
1.44118
1.41628
1.39852
1.38383
1.36777
1.34893
1.32921
1.31614
1.30186
1.30394
1.35376
1.47949
1.60823
1.67868
1.69471
1.68732
1.66719
1.65058
1.63779
1.62542
1.61422
1.60219
1.58665
1.56869
1.55547
1.55132
1.55688
1.59207
1.6673
1.75939
1.80984
1.8081
1.7967
1.78937
1.77975
1.76653
1.75186
1.739
1.72581
1.7133
1.70193
1.69147
1.68158
1.671
1.65905
1.64621
1.63397
1.62351
1.61399
1.60486
1.59633
1.58719
1.57557
1.56272
1.55281
1.54592
1.54139
1.53885
1.54453
1.57224
1.61404
1.65363
1.67743
1.68227
1.67434
1.66565
1.52772
1.57172
1.58069
1.57791
1.57249
1.57178
1.57108
1.56841
1.55708
1.56281
1.66202
1.8433
1.9792
2.00705
1.98817
1.94106
1.89149
1.84944
1.81136
1.77393
1.73711
1.70153
1.66823
1.63686
1.60639
1.5766
1.54824
1.52193
1.49796
1.47458
1.45014
1.42519
1.4015
1.38099
1.36094
1.34468
1.32968
1.31344
1.29696
1.28465
1.27442
1.292
1.37671
1.51414
1.62571
1.64114
1.64359
1.63534
1.62216
1.61113
1.6006
1.58811
1.57351
1.55813
1.55547
1.56953
1.63196
1.72946
1.80163
1.8394
1.8391
1.82485
1.79826
1.77657
1.76531
1.75523
1.74508
1.73393
1.7206
1.70729
1.69569
1.68555
1.67484
1.66339
1.65208
1.64124
1.63119
1.62163
1.61175
1.60133
1.59151
1.58224
1.57108
1.55789
1.54771
1.5407
1.536
1.53071
1.52735
1.52888
1.54121
1.56466
1.60249
1.63691
1.65219
1.65842
1.36636
1.53307
1.56423
1.56036
1.55908
1.56055
1.56553
1.57374
1.61231
1.77639
1.99324
2.05434
2.04392
2.02293
1.99068
1.95161
1.90716
1.86286
1.8204
1.77961
1.74155
1.70654
1.67439
1.64445
1.61489
1.58501
1.55532
1.52624
1.49823
1.47104
1.4477
1.43282
1.41682
1.39629
1.37282
1.3476
1.32534
1.30917
1.29506
1.27837
1.26599
1.25508
1.25844
1.30318
1.42858
1.53977
1.59257
1.61172
1.60987
1.6001
1.58606
1.57687
1.56576
1.56934
1.60291
1.68163
1.77615
1.83186
1.83549
1.83209
1.82499
1.81317
1.7958
1.77428
1.75684
1.74526
1.73753
1.72874
1.71755
1.70473
1.6925
1.68109
1.66957
1.65667
1.64345
1.63288
1.62511
1.61796
1.60943
1.59884
1.5877
1.57781
1.56712
1.55546
1.54706
1.53997
1.53397
1.52807
1.52122
1.51677
1.51122
1.51424
1.52838
1.56353
1.60106
1.63508
1.11175
1.35059
1.48699
1.54293
1.55062
1.56165
1.5977
1.68416
1.86685
2.05539
2.13071
2.12031
2.07369
2.02183
1.98472
1.95105
1.91216
1.86946
1.8276
1.78817
1.75074
1.71516
1.68056
1.64718
1.61653
1.58602
1.55576
1.52751
1.50301
1.4814
1.46048
1.43617
1.40786
1.38175
1.36444
1.34915
1.33056
1.31366
1.30366
1.29224
1.2765
1.25602
1.23859
1.23525
1.25524
1.34027
1.45552
1.53492
1.57921
1.57975
1.57487
1.58094
1.61677
1.67981
1.75818
1.82052
1.86241
1.86418
1.8505
1.828
1.80877
1.79655
1.78506
1.76883
1.75007
1.73706
1.72968
1.72265
1.71432
1.70475
1.69356
1.6803
1.66573
1.64997
1.63639
1.62726
1.62053
1.61439
1.60725
1.59742
1.58495
1.57342
1.56382
1.55516
1.54792
1.54089
1.53354
1.5271
1.52055
1.51256
1.5042
1.49791
1.49331
1.50071
1.52665
1.58709
1.00742
1.09262
1.28498
1.4767
1.51322
1.61541
1.82071
1.96539
2.08432
2.11903
2.11871
2.1083
2.08048
2.03513
1.99065
1.95
1.90856
1.86657
1.82744
1.79325
1.76082
1.72749
1.69398
1.65961
1.62507
1.59089
1.55887
1.53204
1.50769
1.48417
1.46058
1.43535
1.40899
1.38226
1.36221
1.35039
1.33814
1.32289
1.30786
1.28803
1.26266
1.24168
1.22722
1.22004
1.21607
1.22275
1.26856
1.37018
1.48243
1.54269
1.5893
1.66722
1.76673
1.83248
1.85857
1.86648
1.86343
1.85815
1.84644
1.82941
1.80946
1.79153
1.77913
1.76547
1.75057
1.74095
1.73344
1.72555
1.7169
1.70771
1.69642
1.68132
1.66306
1.64766
1.63883
1.63228
1.62637
1.6205
1.61355
1.60336
1.58922
1.57583
1.56523
1.55568
1.5482
1.54237
1.53648
1.5291
1.52051
1.5133
1.50638
1.49744
1.48587
1.47543
1.47866
1.52315
1.00013
1.00593
1.06216
1.27972
1.54423
1.79366
2.0158
2.11692
2.16811
2.15424
2.12096
2.0966
2.07791
2.04537
1.99864
1.94875
1.90671
1.87297
1.84055
1.80645
1.77126
1.73305
1.6939
1.65455
1.61607
1.59362
1.57726
1.55612
1.531
1.50335
1.47372
1.44337
1.41636
1.39019
1.36411
1.3499
1.34504
1.33842
1.32215
1.29511
1.26313
1.2423
1.22973
1.22077
1.21066
1.2004
1.203
1.23312
1.32976
1.51344
1.66932
1.78573
1.87505
1.91734
1.91461
1.90122
1.87118
1.84675
1.83245
1.82368
1.81148
1.79361
1.77609
1.75989
1.74479
1.73171
1.72365
1.71678
1.70871
1.70084
1.69355
1.68233
1.66399
1.64523
1.63375
1.62658
1.62075
1.61501
1.6078
1.59696
1.58211
1.56814
1.55909
1.5545
1.55189
1.54834
1.54345
1.53614
1.52589
1.51324
1.50116
1.49048
1.47928
1.46852
1.46417
1.48162
1.00019
1.00308
1.05273
1.22483
1.56661
1.83613
1.97587
2.10717
2.17353
2.14486
2.11883
2.10232
2.08624
2.05779
2.0113
1.95964
1.91236
1.87043
1.83202
1.7945
1.76166
1.7346
1.7029
1.66413
1.62587
1.59391
1.56622
1.54284
1.51854
1.49092
1.47068
1.45634
1.43546
1.40777
1.37989
1.36222
1.34741
1.33076
1.30978
1.288
1.27234
1.25754
1.24352
1.23021
1.21191
1.20112
1.20511
1.22954
1.32677
1.49265
1.67465
1.8025
1.86112
1.91035
1.91736
1.89603
1.85886
1.83798
1.82775
1.82102
1.81362
1.79941
1.78107
1.76264
1.74561
1.73116
1.7203
1.71351
1.7071
1.70006
1.69168
1.67996
1.66263
1.64657
1.6369
1.62956
1.62263
1.61544
1.6064
1.59435
1.58005
1.56799
1.56144
1.55623
1.55028
1.5438
1.53754
1.53028
1.52166
1.51123
1.50007
1.48962
1.47958
1.4686
1.46472
1.47673
1.01157
1.07971
1.26591
1.4283
1.5333
1.65705
1.77857
1.96118
2.07618
2.11482
2.11831
2.10915
2.08129
2.0401
2.00087
1.96156
1.91828
1.87323
1.83117
1.79377
1.75763
1.7197
1.68313
1.64929
1.61654
1.58565
1.56149
1.54166
1.52137
1.49801
1.4703
1.43989
1.41406
1.39119
1.36948
1.35053
1.3367
1.32538
1.3106
1.28953
1.26394
1.24428
1.23063
1.22247
1.21665
1.22264
1.27319
1.37624
1.49424
1.52996
1.59014
1.68086
1.74156
1.82195
1.86151
1.86482
1.86174
1.85491
1.84267
1.82624
1.81006
1.79561
1.78103
1.76661
1.75199
1.73781
1.726
1.71726
1.70869
1.69855
1.6873
1.67647
1.66698
1.65724
1.64826
1.63895
1.62948
1.61869
1.60473
1.59153
1.58288
1.57584
1.56927
1.56162
1.55316
1.54517
1.53671
1.52784
1.51876
1.51083
1.50326
1.49287
1.48549
1.47936
1.48212
1.51794
1.14155
1.33428
1.47748
1.53497
1.55543
1.5701
1.59443
1.69211
1.88857
2.0627
2.13156
2.12197
2.07458
2.02395
1.98994
1.95621
1.91471
1.86864
1.82333
1.78217
1.74462
1.70923
1.67777
1.64958
1.62204
1.59338
1.56243
1.53174
1.50501
1.48216
1.45885
1.4312
1.40337
1.38313
1.36887
1.35441
1.33853
1.32063
1.30358
1.28458
1.2624
1.24299
1.23189
1.2295
1.24811
1.33459
1.45649
1.54329
1.57786
1.57272
1.56984
1.57724
1.60149
1.6682
1.76198
1.83837
1.86534
1.86429
1.85107
1.82871
1.80908
1.79746
1.78528
1.76898
1.75125
1.73837
1.72912
1.71974
1.70937
1.69872
1.68672
1.67374
1.66264
1.65443
1.64642
1.63658
1.62597
1.61509
1.6015
1.58796
1.57909
1.57263
1.56584
1.55852
1.55137
1.54364
1.53413
1.52437
1.51423
1.50426
1.49747
1.49482
1.4959
1.5064
1.53048
1.58483
1.39014
1.50491
1.55497
1.56541
1.56397
1.56758
1.57354
1.57942
1.62244
1.78586
1.98301
2.04736
2.04025
2.02078
1.98816
1.94822
1.90399
1.85916
1.81617
1.77578
1.73917
1.70773
1.67856
1.64826
1.61755
1.58758
1.55706
1.52715
1.49843
1.47135
1.44769
1.42733
1.40615
1.38542
1.36727
1.35198
1.33522
1.31517
1.30003
1.28693
1.27105
1.25477
1.25709
1.30321
1.41378
1.5338
1.59429
1.61388
1.61268
1.60423
1.5842
1.5673
1.56169
1.56931
1.61407
1.70686
1.79745
1.83386
1.83353
1.82774
1.8178
1.80587
1.79023
1.77227
1.75651
1.74689
1.73892
1.72824
1.71531
1.7016
1.68855
1.677
1.66767
1.6599
1.65152
1.6406
1.62722
1.61324
1.5998
1.58955
1.58234
1.57582
1.56909
1.56211
1.55443
1.54492
1.53484
1.52576
1.516
1.50765
1.50338
1.50965
1.53505
1.57536
1.61772
1.64445
1.51975
1.55256
1.57451
1.57735
1.57572
1.57424
1.57277
1.57015
1.55724
1.56146
1.64788
1.82957
1.97522
2.00432
1.98397
1.93603
1.88811
1.84602
1.80825
1.77254
1.73838
1.70543
1.67292
1.64077
1.61021
1.58074
1.5519
1.52419
1.49705
1.46959
1.4438
1.42034
1.39756
1.37747
1.35906
1.34674
1.33618
1.32275
1.30172
1.28699
1.2796
1.2946
1.37953
1.51326
1.61028
1.65004
1.64948
1.64039
1.62539
1.61023
1.59557
1.57947
1.5683
1.56338
1.56481
1.58599
1.64972
1.7319
1.79842
1.83348
1.83025
1.81617
1.79524
1.78036
1.76997
1.76167
1.75168
1.73751
1.72004
1.70407
1.69179
1.68208
1.67375
1.66582
1.65709
1.64636
1.63287
1.61681
1.60089
1.59154
1.58536
1.57925
1.57319
1.56715
1.56067
1.55163
1.54116
1.52991
1.51899
1.51761
1.52901
1.56672
1.6133
1.65745
1.67421
1.67231
1.56876
1.56617
1.5671
1.57124
1.5746
1.57672
1.57322
1.56309
1.54161
1.51794
1.48966
1.52257
1.67911
1.85299
1.91682
1.9091
1.87654
1.83761
1.7999
1.76439
1.7299
1.6955
1.662
1.62993
1.60029
1.57237
1.5448
1.51735
1.49063
1.46214
1.43422
1.41202
1.39564
1.38101
1.3671
1.35272
1.33503
1.32004
1.30279
1.30311
1.35274
1.47683
1.61294
1.67298
1.68923
1.685
1.66881
1.6525
1.63598
1.62114
1.60856
1.59621
1.58488
1.57456
1.56808
1.56241
1.56525
1.59142
1.65827
1.74291
1.79456
1.79915
1.79947
1.79581
1.78817
1.77711
1.76089
1.74239
1.72292
1.70791
1.69671
1.68758
1.68008
1.67245
1.66389
1.65381
1.64076
1.62155
1.60328
1.59625
1.59097
1.58495
1.57819
1.57097
1.5627
1.55433
1.54668
1.53588
1.53512
1.55371
1.59784
1.64546
1.68117
1.69931
1.70002
1.69231
1.58265
1.58125
1.57966
1.57936
1.57998
1.5783
1.56973
1.54933
1.52201
1.48522
1.45067
1.40889
1.41731
1.51776
1.69982
1.83902
1.84938
1.82649
1.78624
1.74617
1.71085
1.67976
1.65013
1.61993
1.58983
1.56035
1.53088
1.50244
1.47935
1.45814
1.43773
1.42012
1.40409
1.38522
1.36881
1.35208
1.33999
1.32693
1.34289
1.43909
1.58471
1.6951
1.73004
1.72704
1.71493
1.70031
1.68568
1.66886
1.64973
1.6324
1.61851
1.60652
1.59598
1.58633
1.57811
1.56759
1.56038
1.54781
1.5521
1.59423
1.6803
1.75301
1.80122
1.80393
1.79843
1.78288
1.76255
1.74328
1.72515
1.71176
1.70177
1.69308
1.68573
1.67831
1.67015
1.66048
1.64759
1.62879
1.60987
1.60013
1.59332
1.58677
1.58051
1.57475
1.56779
1.56244
1.55693
1.56237
1.58729
1.63186
1.67733
1.70038
1.71261
1.71388
1.7096
1.69697
1.58609
1.5844
1.58283
1.58066
1.5782
1.57078
1.55169
1.52158
1.48552
1.44142
1.40291
1.3736
1.33545
1.31702
1.3752
1.55094
1.72367
1.7705
1.75686
1.72288
1.68772
1.65848
1.63118
1.60297
1.57412
1.54704
1.52236
1.50057
1.48185
1.46278
1.4419
1.4237
1.40684
1.38864
1.3735
1.35748
1.35993
1.40867
1.54629
1.68987
1.75852
1.77778
1.77103
1.7521
1.73382
1.71741
1.70196
1.68283
1.66134
1.64235
1.62767
1.61569
1.60539
1.5955
1.58649
1.57625
1.56399
1.54902
1.52944
1.5263
1.55236
1.6237
1.71888
1.77596
1.77804
1.77544
1.76625
1.74977
1.72907
1.7142
1.70412
1.69568
1.68824
1.68132
1.67391
1.66522
1.65357
1.63523
1.61355
1.60081
1.59396
1.58885
1.58379
1.57993
1.57589
1.58178
1.60139
1.63517
1.67736
1.71053
1.72152
1.72229
1.71834
1.71367
1.70849
1.69821
1.58144
1.58124
1.58105
1.57834
1.57075
1.55101
1.52062
1.4821
1.42733
1.39161
1.36489
1.32815
1.27517
1.24156
1.22959
1.26224
1.40622
1.602
1.6994
1.6944
1.6684
1.63846
1.61039
1.58444
1.56145
1.54186
1.52142
1.50108
1.48113
1.46475
1.4461
1.43076
1.41467
1.40218
1.38853
1.40701
1.51532
1.66933
1.78233
1.8103
1.80563
1.79396
1.77746
1.76173
1.74613
1.72927
1.71103
1.69104
1.67045
1.65168
1.63551
1.62205
1.6124
1.60398
1.59501
1.58387
1.5677
1.54715
1.52772
1.51493
1.5117
1.52275
1.57409
1.66135
1.72606
1.75996
1.76103
1.75381
1.73173
1.71421
1.70356
1.69488
1.68777
1.68215
1.67547
1.66715
1.65598
1.63926
1.61744
1.60165
1.59462
1.59012
1.58755
1.58835
1.60331
1.64519
1.6951
1.72676
1.74578
1.74712
1.73695
1.72403
1.71785
1.71387
1.70996
1.69894
1.58101
1.58078
1.57793
1.57159
1.55151
1.51752
1.47179
1.42091
1.38006
1.34308
1.3031
1.24469
1.21371
1.20335
1.18266
1.14508
1.15612
1.27798
1.48687
1.60889
1.63739
1.62288
1.59837
1.57493
1.55556
1.5391
1.52274
1.50537
1.48703
1.47291
1.45819
1.4465
1.4291
1.43195
1.48975
1.64906
1.78968
1.85256
1.85845
1.84603
1.8229
1.80062
1.783
1.76836
1.75395
1.73681
1.71499
1.69322
1.67507
1.65927
1.64339
1.62887
1.61807
1.60904
1.59925
1.58818
1.57155
1.54852
1.52722
1.51383
1.50461
1.49949
1.50174
1.52992
1.59273
1.66335
1.72103
1.7307
1.72423
1.71734
1.70778
1.69691
1.68741
1.68057
1.6732
1.66418
1.65268
1.63744
1.61873
1.60262
1.59602
1.59391
1.59866
1.62443
1.68129
1.73934
1.77117
1.77959
1.77709
1.76374
1.73838
1.72176
1.71607
1.71246
1.71093
1.70092
1.57772
1.57419
1.56654
1.54576
1.50898
1.45819
1.41252
1.36529
1.31185
1.26662
1.22706
1.19181
1.17226
1.15522
1.117
1.07878
1.07691
1.09075
1.18419
1.3831
1.54812
1.59912
1.59418
1.57766
1.55967
1.54359
1.52954
1.51548
1.50194
1.48857
1.47777
1.46608
1.48819
1.60292
1.77391
1.89765
1.89771
1.88721
1.86654
1.84424
1.82529
1.80778
1.79218
1.77616
1.75847
1.7364
1.71176
1.69163
1.67659
1.6636
1.65038
1.6369
1.62411
1.6136
1.60519
1.59401
1.57766
1.55403
1.52853
1.51285
1.5038
1.49486
1.49052
1.49144
1.50166
1.53739
1.60947
1.66933
1.69967
1.71212
1.7098
1.70025
1.68656
1.67567
1.66716
1.65833
1.64819
1.63642
1.62052
1.60386
1.60249
1.61349
1.65142
1.70787
1.76547
1.79178
1.79148
1.7894
1.77928
1.75825
1.73317
1.721
1.71506
1.71152
1.70898
1.70139
1.56626
1.55806
1.53795
1.4989
1.44517
1.39824
1.34632
1.2767
1.23266
1.20287
1.16622
1.13389
1.11869
1.09425
1.05851
1.04903
1.04673
1.04393
1.0519
1.13128
1.33143
1.52275
1.57241
1.57556
1.57301
1.56186
1.54744
1.53388
1.52406
1.51108
1.51425
1.56436
1.72463
1.87454
1.94981
1.94983
1.92862
1.89335
1.86216
1.8404
1.82473
1.81098
1.79698
1.7784
1.75581
1.73229
1.71104
1.69406
1.67882
1.66439
1.65161
1.63905
1.62663
1.61383
1.59849
1.58281
1.56773
1.5539
1.53654
1.51758
1.50661
1.50111
1.49573
1.48832
1.47976
1.47879
1.49556
1.5519
1.6155
1.67449
1.68999
1.68644
1.67799
1.66987
1.66078
1.65087
1.64129
1.63501
1.62428
1.62493
1.64409
1.69
1.74151
1.78078
1.80446
1.80683
1.80176
1.78702
1.77015
1.75023
1.7336
1.72609
1.72077
1.71469
1.71039
1.6994
1.55072
1.53304
1.49425
1.4322
1.37761
1.32331
1.24789
1.20138
1.17554
1.12876
1.0947
1.08712
1.07872
1.05567
1.04344
1.04565
1.04365
1.04045
1.04373
1.05209
1.10697
1.30482
1.49532
1.56095
1.5823
1.5822
1.57167
1.55934
1.54815
1.56509
1.66055
1.83218
1.9641
1.97439
1.96839
1.94721
1.92362
1.89717
1.87018
1.84706
1.82868
1.81277
1.79546
1.77485
1.75211
1.72891
1.70982
1.69801
1.68731
1.67587
1.66324
1.64948
1.63232
1.61239
1.59463
1.57947
1.56494
1.55108
1.53936
1.52753
1.51586
1.50328
1.49077
1.47885
1.46796
1.45774
1.45299
1.46228
1.50203
1.57059
1.63668
1.66302
1.66741
1.66159
1.65127
1.64107
1.64043
1.64324
1.65899
1.69392
1.74048
1.78371
1.80151
1.80732
1.80693
1.79904
1.78667
1.772
1.7576
1.74634
1.73898
1.73476
1.73052
1.72278
1.711
1.69148
1.53171
1.49317
1.42495
1.35353
1.29216
1.2198
1.15863
1.12809
1.09578
1.05938
1.04801
1.04238
1.03535
1.03566
1.0403
1.04852
1.05547
1.05704
1.05958
1.06619
1.07359
1.11421
1.29132
1.4741
1.57015
1.58835
1.58829
1.59236
1.63178
1.7689
1.93297
2.01109
2.02614
2.00728
1.96843
1.9369
1.91601
1.89588
1.8738
1.85047
1.82831
1.80936
1.79101
1.77094
1.74998
1.73074
1.71676
1.70484
1.69036
1.67339
1.6562
1.64054
1.62506
1.60827
1.59263
1.57904
1.56654
1.55567
1.5457
1.53468
1.52193
1.50712
1.49255
1.47853
1.46492
1.45321
1.44623
1.44426
1.44896
1.47155
1.52756
1.59219
1.63252
1.63939
1.63779
1.63996
1.65564
1.68727
1.73879
1.78795
1.81861
1.83209
1.83113
1.8206
1.80075
1.78267
1.76854
1.76142
1.75411
1.74614
1.74173
1.73805
1.73095
1.71806
1.70371
1.68584
1.49745
1.41257
1.32002
1.25987
1.1843
1.09939
1.09378
1.08733
1.07144
1.0618
1.0541
1.04906
1.04976
1.05349
1.06523
1.07866
1.08614
1.08762
1.08728
1.08872
1.08781
1.08928
1.1161
1.26652
1.47425
1.55932
1.63412
1.72456
1.86442
1.97107
2.03851
2.03575
2.01353
1.98704
1.96274
1.93888
1.91734
1.89951
1.88148
1.86032
1.83638
1.81244
1.79238
1.77544
1.75962
1.74618
1.73354
1.7187
1.70053
1.68014
1.65904
1.63929
1.62354
1.611
1.59945
1.58948
1.58095
1.5726
1.56227
1.54888
1.53323
1.51611
1.49866
1.48276
1.46941
1.45883
1.45125
1.44669
1.44077
1.44054
1.45508
1.49152
1.54825
1.59762
1.62887
1.67159
1.72404
1.76324
1.8004
1.82709
1.84187
1.84094
1.83045
1.81473
1.79352
1.77212
1.76281
1.75884
1.75811
1.75611
1.75121
1.74553
1.73529
1.71382
1.69631
1.68533
1.39946
1.23268
1.11436
1.03793
0.968294
0.95882
0.989815
1.03184
1.04397
1.05934
1.08029
1.08633
1.08604
1.09093
1.10388
1.11501
1.11741
1.11713
1.11528
1.11279
1.1083
1.10256
1.10357
1.12786
1.26017
1.52853
1.7697
1.97726
2.13167
2.18081
2.13822
2.06285
2.00482
1.97558
1.95484
1.93551
1.91368
1.89211
1.87274
1.85201
1.82883
1.80547
1.78396
1.7659
1.75105
1.73814
1.72544
1.7109