/*--------------------------------*- C++ -*----------------------------------*\
  =========                 |
  \\      /  F ield         | OpenFOAM: The Open Source CFD Toolbox
   \\    /   O peration     | Website:  https://openfoam.org
    \\  /    A nd           | Version:  7
     \\/     M anipulation  |
\*---------------------------------------------------------------------------*/
FoamFile
{
    version     2.0;
    format      ascii;
    class       volVectorField;
    location    "4";
    object      U;
}
// * * * * * * * * * * * * * * * * * * * * * * * * * * * * * * * * * * * * * //

dimensions      [0 1 -1 0 0 0 0];

internalField   nonuniform List<vector> 
4608
(
(3 -2.64697e-17 0)
(3 -2.00719e-16 0)
(3 -5.70457e-16 0)
(3 -7.50123e-16 0)
(3 -9.30479e-16 0)
(3 -8.10175e-16 0)
(3 3.27422e-17 0)
(3 6.59863e-16 0)
(3 8.05527e-16 0)
(3 4.02703e-16 0)
(3 -1.96267e-17 0)
(3 -2.82026e-16 0)
(3 -4.82507e-16 0)
(3 -6.05783e-16 0)
(3 -7.33859e-16 0)
(3 -5.5496e-16 0)
(3 -3.22013e-16 0)
(3 -8.47344e-17 0)
(3 1.34095e-16 0)
(3 -2.79955e-16 0)
(3 -3.46165e-16 0)
(3 8.41655e-16 0)
(3 1.73919e-15 0)
(3 1.86721e-15 0)
(3 -4.05593e-17 0)
(3 -3.41948e-16 0)
(3 -4.51466e-16 0)
(3 -4.9479e-17 0)
(3 -6.29846e-17 0)
(3 -2.27691e-16 0)
(3 2.01599e-16 0)
(3 1.19776e-15 0)
(3 1.68856e-15 0)
(3 1.03993e-15 0)
(3 5.26617e-16 0)
(3 -1.14242e-15 0)
(3 -2.21275e-15 0)
(3 -2.37015e-15 0)
(3 -1.904e-15 0)
(3 -6.66867e-16 0)
(3 3.17401e-16 0)
(3 3.66067e-16 0)
(3 3.39054e-16 0)
(3 6.64358e-16 0)
(3 1.0232e-15 0)
(3 2.67986e-15 0)
(3 4.23766e-15 0)
(3 4.30862e-15 0)
(3 -9.92469e-17 0)
(3 -6.51792e-17 0)
(3 9.0668e-18 0)
(3 3.76988e-16 0)
(3 5.34278e-16 0)
(3 2.71817e-17 0)
(3 -7.76802e-16 0)
(3 -1.02972e-15 0)
(3 -5.20166e-16 0)
(3 -5.4772e-16 0)
(3 -6.8091e-16 0)
(3 -1.47301e-15 0)
(3 -1.72969e-15 0)
(3 -1.55727e-15 0)
(3 -7.14705e-16 0)
(3 -2.25083e-16 0)
(3 5.7632e-17 0)
(3 -5.44213e-17 0)
(3 5.32241e-17 0)
(3 1.20099e-15 0)
(3 1.9794e-15 0)
(3 2.76523e-15 0)
(3 2.86985e-15 0)
(3 1.43773e-15 0)
(3 -1.32366e-17 0)
(3 -1.03913e-16 0)
(3 -2.95629e-16 0)
(3 -4.44379e-17 0)
(3 5.99981e-17 0)
(3 -5.56361e-16 0)
(3 -1.22201e-15 0)
(3 -1.96982e-15 0)
(3 -1.36974e-15 0)
(3 -5.65634e-16 0)
(3 -7.78052e-16 0)
(3 -6.27261e-16 0)
(3 -6.48969e-16 0)
(3 -9.94075e-16 0)
(3 -5.88955e-16 0)
(3 -4.63235e-16 0)
(3 5.08894e-16 0)
(3 9.95288e-16 0)
(3 1.29873e-15 0)
(3 8.48652e-16 0)
(3 1.91368e-15 0)
(3 2.9739e-15 0)
(3 1.8676e-15 0)
(3 -7.40062e-16 0)
(3 -7.4203e-17 0)
(3 2.06406e-18 0)
(3 -1.29509e-16 0)
(3 -5.11632e-17 0)
(3 -3.40438e-16 0)
(3 1.01589e-16 0)
(3 1.91352e-16 0)
(3 1.52435e-16 0)
(3 6.01032e-17 0)
(3 1.77781e-16 0)
(3 3.56549e-17 0)
(3 -3.44642e-16 0)
(3 -6.6659e-16 0)
(3 -6.27352e-16 0)
(3 -3.31067e-16 0)
(3 1.39595e-16 0)
(3 1.7724e-15 0)
(3 3.08195e-15 0)
(3 3.23279e-15 0)
(3 2.87992e-15 0)
(3 1.02245e-15 0)
(3 -6.04435e-17 0)
(3 7.36798e-17 0)
(3 3.76989e-16 0)
(3 -9.47882e-17 0)
(3 1.64868e-17 0)
(3 4.30322e-17 0)
(3 1.10855e-16 0)
(3 -1.50925e-16 0)
(3 6.40419e-16 0)
(3 1.12645e-15 0)
(3 1.92028e-15 0)
(3 1.47408e-15 0)
(3 7.57361e-16 0)
(3 6.64825e-16 0)
(3 3.91887e-16 0)
(3 2.74984e-16 0)
(3 6.48171e-17 0)
(3 3.74497e-16 0)
(3 1.17397e-15 0)
(3 1.27094e-15 0)
(3 1.30955e-15 0)
(3 1.79932e-15 0)
(3 1.97824e-15 0)
(3 1.43633e-15 0)
(3 1.76689e-16 0)
(3 -5.61507e-16 0)
(3 -5.49772e-16 0)
(3 4.00971e-19 0)
(3 -4.2405e-16 0)
(3 -4.17175e-17 0)
(3 7.11174e-17 0)
(3 2.37468e-16 0)
(3 4.05894e-16 0)
(3 7.61537e-16 0)
(3 6.7896e-16 0)
(3 6.08366e-16 0)
(3 6.58543e-16 0)
(3 9.68236e-16 0)
(3 9.10606e-16 0)
(3 8.97863e-16 0)
(3 3.52e-16 0)
(3 2.71973e-16 0)
(3 5.31016e-16 0)
(3 7.55674e-16 0)
(3 -1.87761e-16 0)
(3 -2.82099e-16 0)
(3 -1.47281e-16 0)
(3 2.17016e-16 0)
(3 4.20604e-16 0)
(3 -2.00263e-16 0)
(3 -1.01469e-15 0)
(3 1.39011e-16 0)
(3 8.79152e-17 0)
(3 1.84118e-16 0)
(3 -7.02731e-17 0)
(3 -3.83635e-16 0)
(3 -3.22017e-16 0)
(3 -2.27803e-16 0)
(3 -4.63709e-16 0)
(3 -7.16711e-16 0)
(3 -8.67839e-16 0)
(3 -4.15726e-16 0)
(3 1.27239e-15 0)
(3 1.94034e-15 0)
(3 2.37955e-15 0)
(3 2.10957e-15 0)
(3 1.64711e-15 0)
(3 1.3806e-15 0)
(3 -6.85049e-16 0)
(3 -1.67482e-15 0)
(3 -2.17215e-15 0)
(3 -1.72964e-15 0)
(3 -4.44626e-16 0)
(3 5.70706e-17 0)
(3 -2.96183e-16 0)
(3 3.12636e-17 0)
(3 1.97944e-16 0)
(3 1.86534e-16 0)
(3 2.71497e-16 0)
(3 1.68231e-16 0)
(3 -2.03326e-16 0)
(3 -5.80834e-16 0)
(3 -1.05823e-15 0)
(3 -1.43622e-15 0)
(3 -1.84358e-15 0)
(3 -1.65334e-15 0)
(3 -4.56941e-16 0)
(3 -2.0238e-16 0)
(3 8.1512e-16 0)
(3 1.54362e-15 0)
(3 1.00986e-15 0)
(3 1.2964e-16 0)
(3 -3.32763e-16 0)
(3 -5.97616e-16 0)
(3 -7.0813e-16 0)
(3 -1.19333e-15 0)
(3 -9.17202e-16 0)
(3 -9.77272e-16 0)
(3 -1.32953e-16 0)
(3 -3.65545e-16 0)
(3 -4.57877e-16 0)
(3 -2.59116e-16 0)
(3 -7.61683e-17 0)
(3 5.79394e-16 0)
(3 1.13778e-15 0)
(3 9.36935e-16 0)
(3 1.02872e-16 0)
(3 -4.78731e-16 0)
(3 -6.26605e-16 0)
(3 -8.28437e-16 0)
(3 -2.00188e-15 0)
(3 -2.13583e-15 0)
(3 -1.42755e-15 0)
(3 -1.08055e-15 0)
(3 -5.4762e-16 0)
(3 -2.23148e-16 0)
(3 -1.83772e-17 0)
(3 1.35364e-16 0)
(3 -1.65933e-17 0)
(3 -9.24188e-16 0)
(3 -1.55918e-15 0)
(3 -1.26402e-15 0)
(3 -9.72038e-16 0)
(3 1.03584e-16 0)
(3 5.36106e-17 0)
(3 -3.50825e-16 0)
(3 -2.24773e-16 0)
(3 9.89946e-16 0)
(3 1.96976e-15 0)
(3 1.98068e-15 0)
(3 1.58147e-15 0)
(3 1.28244e-15 0)
(3 9.44484e-16 0)
(3 4.96457e-16 0)
(3 -1.87562e-15 0)
(3 -2.71926e-15 0)
(3 -2.91437e-15 0)
(3 -2.10956e-15 0)
(3 -1.43648e-15 0)
(3 -6.1433e-16 0)
(3 1.06326e-17 0)
(3 -9.43047e-17 0)
(3 -2.78983e-16 0)
(3 -3.30798e-16 0)
(3 -1.40897e-15 0)
(3 -1.52815e-15 0)
(3 -2.09548e-15 0)
(3 2.28472e-16 0)
(3 4.38563e-16 0)
(3 -2.14883e-16 0)
(3 2.51809e-16 0)
(3 6.16733e-16 0)
(3 7.76373e-16 0)
(3 4.69698e-16 0)
(3 1.16379e-15 0)
(3 1.61757e-15 0)
(3 1.06143e-15 0)
(3 2.43739e-16 0)
(3 -7.26726e-17 0)
(3 -5.00255e-16 0)
(3 -1.29949e-15 0)
(3 -1.1121e-15 0)
(3 -3.25049e-16 0)
(3 -7.10639e-16 0)
(3 -4.63461e-16 0)
(3 -3.03252e-17 0)
(3 4.97505e-16 0)
(3 7.55463e-16 0)
(3 5.6292e-17 0)
(3 -9.25941e-16 0)
(3 -1.9501e-15 0)
(3 2.49957e-18 0)
(3 1.46315e-17 0)
(3 1.5082e-16 0)
(3 1.94282e-16 0)
(3 -4.9679e-17 0)
(3 -1.15728e-17 0)
(3 -5.91432e-16 0)
(3 -1.03394e-15 0)
(3 -1.13069e-15 0)
(3 -8.27843e-16 0)
(3 -5.55832e-16 0)
(3 1.10588e-15 0)
(3 1.63701e-15 0)
(3 1.65692e-15 0)
(3 1.60725e-15 0)
(3 8.43048e-16 0)
(3 5.55007e-16 0)
(3 2.72386e-16 0)
(3 4.61363e-16 0)
(3 6.93462e-16 0)
(3 1.91745e-16 0)
(3 2.10994e-16 0)
(3 -1.28389e-17 0)
(3 -3.29523e-17 0)
(3 -1.41902e-16 0)
(3 -5.75035e-16 0)
(3 -3.00304e-16 0)
(3 3.57478e-16 0)
(3 2.22423e-16 0)
(3 -1.15221e-15 0)
(3 -1.06744e-15 0)
(3 -1.08636e-15 0)
(3 -1.66726e-15 0)
(3 -1.40532e-15 0)
(3 -3.91086e-16 0)
(3 4.13236e-16 0)
(3 7.34699e-16 0)
(3 8.01305e-16 0)
(3 3.90903e-16 0)
(3 -5.94639e-16 0)
(3 -5.36561e-16 0)
(3 -3.8723e-16 0)
(3 -8.08197e-16 0)
(3 -1.06146e-15 0)
(3 -1.26837e-15 0)
(3 -5.35934e-16 0)
(3 2.6445e-16 0)
(3 1.00767e-15 0)
(3 3.00154e-17 0)
(3 5.19081e-17 0)
(3 3.22638e-16 0)
(3 3.66215e-17 0)
(3 -1.65038e-16 0)
(3 2.68215e-16 0)
(3 1.84747e-15 0)
(3 2.59491e-15 0)
(3 2.25144e-15 0)
(3 9.37328e-16 0)
(3 5.57793e-16 0)
(3 2.78907e-16 0)
(3 4.33427e-16 0)
(3 4.18583e-16 0)
(3 -5.65991e-17 0)
(3 -5.16349e-16 0)
(3 -8.32366e-16 0)
(3 -1.46462e-15 0)
(3 -1.80916e-15 0)
(3 -2.17827e-15 0)
(3 -2.0587e-15 0)
(3 -6.31965e-16 0)
(3 -6.81443e-16 0)
(3 -6.46983e-16 0)
(3 2.13637e-16 0)
(3 8.77647e-16 0)
(3 1.01269e-15 0)
(3 1.8805e-16 0)
(3 -1.86045e-16 0)
(3 1.26052e-16 0)
(3 6.51624e-16 0)
(3 1.41765e-15 0)
(3 1.68772e-15 0)
(3 1.43499e-15 0)
(3 8.70998e-16 0)
(3 5.29363e-16 0)
(3 8.49087e-16 0)
(3 1.58694e-15 0)
(3 1.52445e-15 0)
(3 9.51832e-16 0)
(3 2.04558e-16 0)
(3 -1.04401e-15 0)
(3 -1.30893e-15 0)
(3 -6.08225e-16 0)
(3 -5.81289e-16 0)
(3 -1.04043e-15 0)
(3 -1.51383e-15 0)
(3 -1.21689e-15 0)
(3 -4.55375e-17 0)
(3 6.04155e-17 0)
(3 -2.35703e-16 0)
(3 -5.76335e-16 0)
(3 -8.68536e-16 0)
(3 -1.95877e-15 0)
(3 -2.31308e-15 0)
(3 -1.39465e-15 0)
(3 -7.48911e-16 0)
(3 -1.22215e-16 0)
(3 8.5381e-16 0)
(3 1.122e-15 0)
(3 9.30584e-16 0)
(3 3.42462e-16 0)
(3 2.39867e-16 0)
(3 3.41764e-18 0)
(3 7.00553e-17 0)
(3 -5.34334e-17 0)
(3 4.94615e-17 0)
(3 2.10247e-16 0)
(3 3.93708e-16 0)
(3 -4.78262e-16 0)
(3 -1.73763e-17 0)
(3 7.81122e-16 0)
(3 3.06738e-19 0)
(3 -8.40079e-17 0)
(3 -3.09853e-16 0)
(3 -4.63499e-16 0)
(3 -5.78209e-16 0)
(3 -1.17634e-15 0)
(3 -1.94252e-15 0)
(3 -2.33683e-15 0)
(3 -2.04078e-15 0)
(3 -1.56547e-15 0)
(3 -9.61524e-16 0)
(3 -3.82549e-16 0)
(3 -2.7442e-16 0)
(3 2.08128e-16 0)
(3 3.8611e-16 0)
(3 2.41741e-16 0)
(3 6.82235e-16 0)
(3 6.3859e-16 0)
(3 -2.30954e-16 0)
(3 -1.58215e-15 0)
(3 -1.75196e-15 0)
(3 -1.01207e-15 0)
(3 9.83475e-16 0)
(3 1.29388e-15 0)
(3 -2.87791e-17 0)
(3 -2.51006e-17 0)
(3 2.67218e-16 0)
(3 4.5554e-16 0)
(3 2.13944e-16 0)
(3 -8.04095e-16 0)
(3 -9.5207e-16 0)
(3 -1.39567e-15 0)
(3 -1.35836e-15 0)
(3 -1.47327e-15 0)
(3 -1.71909e-15 0)
(3 -1.79596e-15 0)
(3 -1.32617e-15 0)
(3 -1.78296e-16 0)
(3 1.14806e-16 0)
(3 2.44965e-16 0)
(3 -1.84245e-16 0)
(3 -6.21008e-16 0)
(3 -2.05944e-15 0)
(3 -3.38621e-15 0)
(3 -3.46496e-15 0)
(3 -1.59122e-15 0)
(3 -1.29553e-15 0)
(3 -1.61367e-15 0)
(3 -1.21368e-16 0)
(3 -1.89419e-16 0)
(3 2.9879e-16 0)
(3 3.82148e-16 0)
(3 1.66494e-17 0)
(3 4.10897e-17 0)
(3 6.31481e-16 0)
(3 6.93683e-16 0)
(3 6.99386e-16 0)
(3 2.8981e-16 0)
(3 7.11035e-17 0)
(3 -1.22011e-15 0)
(3 -1.79404e-15 0)
(3 -1.80592e-15 0)
(3 -8.76949e-16 0)
(3 -5.15172e-16 0)
(3 -6.71644e-16 0)
(3 -5.88194e-16 0)
(3 1.19077e-16 0)
(3 -4.51329e-16 0)
(3 -1.33332e-15 0)
(3 -1.87569e-15 0)
(3 -2.53197e-15 0)
(3 -2.54091e-15 0)
(3 -1.29385e-16 0)
(3 -4.80665e-16 0)
(3 -6.46363e-16 0)
(3 -4.67093e-16 0)
(3 -9.10756e-16 0)
(3 -5.16367e-16 0)
(3 2.5125e-16 0)
(3 2.49097e-16 0)
(3 2.82029e-16 0)
(3 5.44955e-16 0)
(3 6.94449e-16 0)
(3 7.79008e-16 0)
(3 8.79904e-16 0)
(3 4.23499e-16 0)
(3 4.43021e-16 0)
(3 5.29012e-16 0)
(3 7.47544e-16 0)
(3 7.91833e-16 0)
(3 1.07643e-15 0)
(3 9.82013e-16 0)
(3 6.9519e-16 0)
(3 1.51613e-16 0)
(3 -2.37294e-15 0)
(3 -2.29906e-15 0)
(3 4.37937e-17 0)
(3 -1.5714e-17 0)
(3 -2.49576e-16 0)
(3 -3.39399e-16 0)
(3 -1.7402e-16 0)
(3 -1.54601e-16 0)
(3 -5.65362e-16 0)
(3 -5.37982e-16 0)
(3 -7.30844e-16 0)
(3 -4.30033e-16 0)
(3 1.64135e-16 0)
(3 7.95123e-16 0)
(3 8.74852e-16 0)
(3 8.53651e-16 0)
(3 4.08486e-16 0)
(3 -2.08459e-16 0)
(3 -4.3554e-16 0)
(3 -3.18297e-16 0)
(3 -4.9627e-16 0)
(3 3.84948e-16 0)
(3 6.36881e-16 0)
(3 5.75981e-16 0)
(3 -8.38585e-16 0)
(3 -1.03643e-15 0)
(3 1.37083e-17 0)
(3 -1.06172e-17 0)
(3 -3.36206e-17 0)
(3 2.78181e-17 0)
(3 4.28365e-16 0)
(3 1.84871e-16 0)
(3 -3.62592e-16 0)
(3 -3.42633e-16 0)
(3 -3.30347e-17 0)
(3 4.60094e-16 0)
(3 5.50955e-16 0)
(3 2.78953e-16 0)
(3 -3.06289e-16 0)
(3 -1.05337e-15 0)
(3 -1.41878e-15 0)
(3 -7.2694e-16 0)
(3 -2.72146e-16 0)
(3 4.20554e-16 0)
(3 1.04753e-15 0)
(3 8.79171e-16 0)
(3 7.76395e-16 0)
(3 4.15777e-16 0)
(3 3.59916e-16 0)
(3 9.85044e-16 0)
(3 -2.38265e-17 0)
(3 5.35026e-17 0)
(3 4.8186e-18 0)
(3 1.41866e-16 0)
(3 1.23412e-16 0)
(3 3.23913e-16 0)
(3 3.31121e-16 0)
(3 5.79456e-16 0)
(3 1.1381e-15 0)
(3 1.06022e-15 0)
(3 8.24446e-16 0)
(3 6.44938e-17 0)
(3 -7.85448e-16 0)
(3 -1.39401e-15 0)
(3 -8.58239e-16 0)
(3 1.22148e-15 0)
(3 2.15893e-15 0)
(3 2.59824e-15 0)
(3 2.67722e-15 0)
(3 2.42886e-15 0)
(3 2.49782e-15 0)
(3 2.00272e-15 0)
(3 2.23384e-15 0)
(3 3.31304e-15 0)
(3 2.99419e-16 0)
(3 4.5649e-16 0)
(3 6.1357e-16 0)
(3 1.17552e-15 0)
(3 1.34217e-15 0)
(3 1.24961e-15 0)
(3 8.54495e-16 0)
(3 1.06149e-15 0)
(3 2.29079e-15 0)
(3 2.32542e-15 0)
(3 1.56988e-16 0)
(3 -1.01127e-15 0)
(3 -6.62714e-16 0)
(3 1.46308e-16 0)
(3 1.2842e-15 0)
(3 1.7232e-15 0)
(3 2.8859e-15 0)
(3 1.36243e-15 0)
(3 6.20141e-16 0)
(3 6.47424e-16 0)
(3 1.50061e-15 0)
(3 2.5698e-15 0)
(3 2.74989e-15 0)
(3 2.93134e-15 0)
(3 3.45578e-17 0)
(3 -2.24427e-17 0)
(3 2.79944e-16 0)
(3 2.43951e-16 0)
(3 4.07204e-16 0)
(3 3.43161e-16 0)
(3 7.11318e-16 0)
(3 9.54207e-16 0)
(3 9.82502e-16 0)
(3 7.51671e-16 0)
(3 1.24538e-16 0)
(3 -7.09747e-16 0)
(3 -3.71422e-16 0)
(3 2.63392e-16 0)
(3 5.59764e-16 0)
(3 6.18915e-16 0)
(3 -3.22966e-17 0)
(3 -2.8143e-16 0)
(3 -2.67839e-16 0)
(3 6.94685e-16 0)
(3 1.09667e-15 0)
(3 1.62084e-15 0)
(3 1.17239e-15 0)
(3 -2.5891e-16 0)
(3 -5.01958e-18 0)
(3 -1.81533e-17 0)
(3 -4.38827e-16 0)
(3 -8.6093e-16 0)
(3 -1.24979e-15 0)
(3 -9.56094e-16 0)
(3 8.89089e-17 0)
(3 4.00122e-16 0)
(3 -7.7401e-16 0)
(3 -1.10842e-15 0)
(3 -6.52106e-16 0)
(3 -3.61855e-16 0)
(3 -4.89987e-16 0)
(3 -7.67363e-16 0)
(3 -5.71105e-16 0)
(3 1.05177e-16 0)
(3 -9.72001e-19 0)
(3 8.05826e-16 0)
(3 9.87208e-16 0)
(3 6.27542e-16 0)
(3 7.49353e-17 0)
(3 7.80424e-17 0)
(3 -3.2184e-16 0)
(3 -1.12851e-15 0)
(3 -3.9553e-17 0)
(3 -5.87605e-17 0)
(3 -6.4655e-16 0)
(3 -7.14114e-16 0)
(3 -6.18532e-16 0)
(3 -5.70254e-16 0)
(3 -3.56439e-17 0)
(3 -2.19342e-16 0)
(3 -7.49187e-16 0)
(3 -1.24884e-15 0)
(3 -1.65224e-16 0)
(3 8.97724e-16 0)
(3 1.15604e-15 0)
(3 1.23424e-15 0)
(3 4.23918e-16 0)
(3 -4.149e-16 0)
(3 1.54814e-16 0)
(3 6.52011e-16 0)
(3 2.78196e-16 0)
(3 -3.8241e-16 0)
(3 -8.48671e-16 0)
(3 -7.68509e-16 0)
(3 -1.22822e-15 0)
(3 -1.77157e-16 0)
(3 -2.08895e-16 0)
(3 -5.16836e-16 0)
(3 -6.66094e-16 0)
(3 -7.15907e-16 0)
(3 -4.81472e-16 0)
(3 -5.51239e-16 0)
(3 -6.70058e-16 0)
(3 -7.04516e-16 0)
(3 -7.36388e-16 0)
(3 -1.0326e-15 0)
(3 -3.3266e-16 0)
(3 1.11942e-15 0)
(3 1.83819e-15 0)
(3 1.32842e-15 0)
(3 3.4529e-17 0)
(3 -1.45012e-15 0)
(3 -2.12951e-15 0)
(3 -1.60962e-15 0)
(3 -7.57564e-16 0)
(3 -3.95238e-16 0)
(3 -6.95365e-17 0)
(3 -4.19934e-16 0)
(3 -3.8703e-17 0)
(3 1.18353e-15 0)
(3 5.05367e-17 0)
(3 2.35461e-16 0)
(3 3.0209e-16 0)
(3 3.02893e-16 0)
(3 -1.09129e-16 0)
(3 -3.68587e-16 0)
(3 -1.41006e-15 0)
(3 -1.50818e-15 0)
(3 -6.8019e-16 0)
(3 -3.51019e-16 0)
(3 -6.03914e-17 0)
(3 -5.68653e-16 0)
(3 -2.51713e-16 0)
(3 -9.79713e-16 0)
(3 -1.84666e-15 0)
(3 -1.95063e-15 0)
(3 -1.48487e-15 0)
(3 -1.66585e-15 0)
(3 -9.33451e-16 0)
(3 -2.2113e-16 0)
(3 -2.05874e-16 0)
(3 -1.52889e-16 0)
(3 1.08902e-15 0)
(3 2.21088e-15 0)
(3 1.87308e-16 0)
(3 4.76416e-16 0)
(3 9.0217e-16 0)
(3 1.18533e-15 0)
(3 8.37166e-16 0)
(3 8.51118e-16 0)
(3 2.96586e-16 0)
(3 -4.02048e-16 0)
(3 -7.27424e-16 0)
(3 -5.84401e-16 0)
(3 -6.05702e-17 0)
(3 -2.69948e-16 0)
(3 -6.9061e-16 0)
(3 -8.51284e-16 0)
(3 -9.5575e-16 0)
(3 -1.46665e-15 0)
(3 -1.96873e-15 0)
(3 -1.64041e-15 0)
(3 -1.19423e-15 0)
(3 -3.79617e-16 0)
(3 -8.95351e-17 0)
(3 -7.6207e-17 0)
(3 -9.46261e-16 0)
(3 -4.91715e-16 0)
(3 8.37866e-18 0)
(3 -1.41028e-16 0)
(3 3.2334e-17 0)
(3 1.31726e-16 0)
(3 2.75549e-16 0)
(3 5.6158e-16 0)
(3 2.96175e-16 0)
(3 2.62675e-16 0)
(3 -5.794e-16 0)
(3 -4.58741e-16 0)
(3 -2.62782e-16 0)
(3 2.03716e-16 0)
(3 4.80421e-16 0)
(3 3.92308e-16 0)
(3 2.43278e-16 0)
(3 -3.14463e-16 0)
(3 -2.11388e-15 0)
(3 -1.70238e-15 0)
(3 -1.208e-15 0)
(3 -3.04916e-16 0)
(3 6.51156e-18 0)
(3 -6.36742e-16 0)
(3 -1.34343e-15 0)
(3 -1.59615e-15 0)
(2.93151 0.0274622 0)
(2.85612 0.0337233 0)
(2.7462 0.176368 0)
(2.68019 0.227994 0)
(2.57335 0.350754 0)
(2.49751 0.448552 0)
(2.42849 0.541295 0)
(2.34754 0.625451 0)
(2.31187 0.725727 0)
(2.25978 0.798281 0)
(2.25054 0.855499 0)
(2.28067 0.887903 0)
(2.3232 0.892207 0)
(2.33829 0.886265 0)
(2.34773 0.877929 0)
(2.34867 0.869462 0)
(2.34605 0.858653 0)
(2.34511 0.850357 0)
(2.34599 0.847517 0)
(2.34183 0.847665 0)
(2.33864 0.847725 0)
(2.33694 0.848417 0)
(2.33706 0.849382 0)
(2.33993 0.84955 0)
(2.99871 0.00135046 0)
(2.99124 0.0102438 0)
(2.95813 0.051193 0)
(2.90344 0.132929 0)
(2.80325 0.275192 0)
(2.67682 0.466537 0)
(2.54424 0.677352 0)
(2.36656 0.909971 0)
(2.22946 1.06517 0)
(2.17855 1.09943 0)
(2.14153 1.0487 0)
(2.17941 1.00262 0)
(2.25608 0.949346 0)
(2.30135 0.896768 0)
(2.32479 0.857947 0)
(2.3488 0.833712 0)
(2.35336 0.837671 0)
(2.35781 0.839209 0)
(2.35663 0.839754 0)
(2.35309 0.84152 0)
(2.34769 0.843985 0)
(2.34412 0.846001 0)
(2.3417 0.847999 0)
(2.34122 0.848848 0)
(3 1.31179e-07 0)
(3.00003 -3.26043e-05 0)
(2.9999 0.000130516 0)
(2.99989 0.000159245 0)
(2.99864 0.00181185 0)
(2.99126 0.0130246 0)
(2.96674 0.0512057 0)
(2.89296 0.181997 0)
(2.78716 0.397587 0)
(2.59275 0.701647 0)
(2.43532 0.859852 0)
(2.33794 0.928573 0)
(2.29996 0.9169 0)
(2.30015 0.900476 0)
(2.30916 0.886172 0)
(2.34032 0.868508 0)
(2.35121 0.867063 0)
(2.35574 0.852648 0)
(2.35854 0.846169 0)
(2.3607 0.843229 0)
(2.35792 0.844131 0)
(2.35307 0.847119 0)
(2.34838 0.8513 0)
(2.34539 0.853104 0)
(3 -5.5711e-09 0)
(3 -1.43526e-06 0)
(3 -1.59666e-06 0)
(3 -7.65896e-07 0)
(3 -8.12498e-06 0)
(2.99999 2.24091e-05 0)
(3.00006 -0.0001369 0)
(2.99918 0.00138034 0)
(2.991 0.0167111 0)
(2.90066 0.156767 0)
(2.7068 0.460644 0)
(2.5167 0.7162 0)
(2.30765 0.932912 0)
(2.27018 0.959064 0)
(2.28388 0.938186 0)
(2.30558 0.910789 0)
(2.32545 0.893142 0)
(2.34171 0.870974 0)
(2.35747 0.851449 0)
(2.36212 0.842259 0)
(2.36241 0.843427 0)
(2.36075 0.844225 0)
(2.35572 0.845956 0)
(2.34984 0.85174 0)
(3 -1.95704e-10 0)
(3 3.12386e-09 0)
(3 -5.45634e-08 0)
(3 -7.13606e-08 0)
(3 -4.69551e-07 0)
(3 -6.87368e-07 0)
(3 -5.99595e-06 0)
(3 -5.43973e-06 0)
(3.00002 -4.61971e-05 0)
(2.99935 0.000597287 0)
(2.98271 0.0249677 0)
(2.89715 0.142626 0)
(2.59833 0.515429 0)
(2.41517 0.754182 0)
(2.37708 0.833771 0)
(2.30903 0.883884 0)
(2.30592 0.888496 0)
(2.32281 0.87577 0)
(2.34252 0.857174 0)
(2.35361 0.856293 0)
(2.35948 0.845566 0)
(2.35988 0.840072 0)
(2.35938 0.838255 0)
(2.35196 0.842221 0)
(3 4.32347e-13 0)
(3 1.38753e-10 0)
(3 2.28223e-10 0)
(3 -4.05753e-10 0)
(3 1.631e-10 0)
(3 -3.88366e-08 0)
(3 -8.90549e-08 0)
(3 -3.7103e-07 0)
(3 -6.17585e-06 0)
(3 -5.99154e-06 0)
(3.00002 -5.1609e-05 0)
(2.99895 0.00140746 0)
(2.96336 0.0458251 0)
(2.85099 0.194917 0)
(2.55403 0.577058 0)
(2.32148 0.849985 0)
(2.3096 0.85186 0)
(2.31042 0.869384 0)
(2.31526 0.870636 0)
(2.33269 0.863019 0)
(2.3411 0.852292 0)
(2.34689 0.839322 0)
(2.35165 0.835231 0)
(2.35069 0.836785 0)
(3 1.64861e-13 0)
(3 5.30416e-14 0)
(3 1.25037e-11 0)
(3 8.25393e-12 0)
(3 1.35487e-11 0)
(3 -4.31988e-10 0)
(3 -3.53672e-10 0)
(3 -2.20511e-10 0)
(3 -1.49636e-08 0)
(3 -3.651e-07 0)
(3 -4.10312e-06 0)
(3.00001 -1.36415e-05 0)
(2.99996 5.69683e-05 0)
(2.9971 0.00444576 0)
(2.93182 0.0840797 0)
(2.74438 0.324585 0)
(2.51086 0.626683 0)
(2.28797 0.89798 0)
(2.26634 0.883312 0)
(2.30423 0.860472 0)
(2.313 0.856023 0)
(2.32457 0.852657 0)
(2.33505 0.842888 0)
(2.33968 0.839635 0)
(3 3.90048e-15 0)
(3 2.61164e-15 0)
(3 -5.38155e-15 0)
(3 6.02349e-13 0)
(3 1.58054e-12 0)
(3 3.87144e-12 0)
(3 5.70892e-12 0)
(3 6.44301e-12 0)
(3 1.24153e-10 0)
(3 -2.55501e-10 0)
(3 -2.18283e-08 0)
(3 -1.65909e-06 0)
(3 -1.41549e-06 0)
(3.00001 -1.80671e-05 0)
(2.99946 0.000781757 0)
(2.98765 0.018988 0)
(2.87672 0.163249 0)
(2.58748 0.529217 0)
(2.4728 0.684679 0)
(2.33622 0.835919 0)
(2.29637 0.869228 0)
(2.30162 0.862974 0)
(2.31685 0.850302 0)
(2.32259 0.840352 0)
(3 -4.87293e-16 0)
(3 -4.01276e-16 0)
(3 -1.77231e-15 0)
(3 -1.5067e-15 0)
(3 3.66758e-14 0)
(3 4.76977e-13 0)
(3 1.73702e-12 0)
(3 2.62665e-12 0)
(3 1.98272e-11 0)
(3 2.02668e-11 0)
(3 1.60412e-10 0)
(3 -1.11746e-08 0)
(3 -1.22287e-07 0)
(3 -3.21336e-06 0)
(3 -2.22321e-06 0)
(3 -1.57535e-05 0)
(2.99684 0.00485273 0)
(2.95094 0.067423 0)
(2.79537 0.305601 0)
(2.44988 0.71561 0)
(2.39126 0.787052 0)
(2.33272 0.830755 0)
(2.32253 0.836901 0)
(2.32139 0.834635 0)
(3 -1.08855e-15 0)
(3 -1.14532e-15 0)
(3 -1.81592e-15 0)
(3 -1.59542e-15 0)
(3 -9.01159e-16 0)
(3 5.8257e-15 0)
(3 6.67007e-14 0)
(3 1.94824e-13 0)
(3 8.21532e-13 0)
(3 3.34649e-12 0)
(3 2.75139e-11 0)
(3 8.12719e-11 0)
(3 -7.02213e-10 0)
(3 -5.15854e-08 0)
(3 -4.53947e-07 0)
(3 -1.36307e-06 0)
(3.00001 -1.69412e-05 0)
(2.99959 0.00081254 0)
(2.98654 0.020861 0)
(2.84464 0.20995 0)
(2.69117 0.480277 0)
(2.37278 0.821354 0)
(2.30042 0.88598 0)
(2.30685 0.840492 0)
(3 -2.74533e-15 0)
(3 -2.30225e-15 0)
(3 -9.9492e-16 0)
(3 -7.47383e-16 0)
(3 -1.03061e-15 0)
(3 -5.54348e-16 0)
(3 -1.7807e-15 0)
(3 3.80203e-15 0)
(3 3.73898e-15 0)
(3 3.7694e-14 0)
(3 9.87006e-13 0)
(3 1.46394e-11 0)
(3 1.11772e-11 0)
(3 2.39807e-10 0)
(3 -7.72983e-09 0)
(3 -1.05611e-07 0)
(3 -2.36814e-06 0)
(3 -4.36717e-06 0)
(2.99995 6.2527e-05 0)
(2.99406 0.0104027 0)
(2.9493 0.0932746 0)
(2.67743 0.452891 0)
(2.4868 0.697681 0)
(2.37747 0.792662 0)
(3 -2.5926e-15 0)
(3 -1.77883e-15 0)
(3 -1.11764e-15 0)
(3 -1.40563e-15 0)
(3 -1.70915e-15 0)
(3 -2.35115e-15 0)
(3 -1.72657e-15 0)
(3 -5.49131e-16 0)
(3 -1.01725e-15 0)
(3 -1.11205e-15 0)
(3 2.15428e-16 0)
(3 1.58429e-13 0)
(3 1.82434e-12 0)
(3 2.16545e-11 0)
(3 8.80324e-11 0)
(3 -2.44224e-10 0)
(3 -3.43355e-08 0)
(3 -8.98126e-07 0)
(3 -1.40796e-06 0)
(2.99999 5.39477e-06 0)
(2.99838 0.00307222 0)
(2.95521 0.0681413 0)
(2.81081 0.307978 0)
(2.48132 0.720815 0)
(3 2.87357e-16 0)
(3 5.42421e-16 0)
(3 3.90866e-16 0)
(3 -1.03642e-15 0)
(3 -1.39968e-15 0)
(3 -1.33974e-15 0)
(3 -1.82715e-15 0)
(3 -1.811e-15 0)
(3 -1.8729e-15 0)
(3 -7.87065e-16 0)
(3 -7.82076e-16 0)
(3 -1.09669e-15 0)
(3 1.05154e-14 0)
(3 9.66311e-13 0)
(3 1.08836e-11 0)
(3 1.72451e-11 0)
(3 4.64235e-11 0)
(3 -1.49109e-08 0)
(3 -4.63077e-07 0)
(3 -5.46788e-07 0)
(3 -1.91471e-06 0)
(2.99909 0.00182754 0)
(2.9814 0.0359008 0)
(2.8467 0.238401 0)
(3 1.31769e-15 0)
(3 8.52025e-16 0)
(3 6.35256e-16 0)
(3 3.87237e-16 0)
(3 -2.70249e-17 0)
(3 -1.52069e-16 0)
(3 -5.52581e-16 0)
(3 -2.14301e-16 0)
(3 9.6016e-16 0)
(3 1.92081e-15 0)
(3 1.77766e-15 0)
(3 1.07744e-15 0)
(3 1.49941e-15 0)
(3 2.29697e-15 0)
(3 6.06228e-13 0)
(3 4.49209e-12 0)
(3 1.69388e-11 0)
(3 -3.68957e-11 0)
(3 -2.40216e-08 0)
(3 -1.78795e-07 0)
(3 -2.89382e-07 0)
(3 -3.1588e-06 0)
(2.99968 0.000630251 0)
(2.99066 0.0180673 0)
(3 -5.74718e-18 0)
(3 6.63306e-17 0)
(3 9.25132e-16 0)
(3 2.28752e-15 0)
(3 2.15912e-15 0)
(3 2.17117e-15 0)
(3 2.34415e-15 0)
(3 2.03747e-15 0)
(3 1.3875e-15 0)
(3 1.31924e-15 0)
(3 1.6077e-15 0)
(3 2.60589e-15 0)
(3 3.51428e-15 0)
(3 2.86658e-15 0)
(3 3.36034e-15 0)
(3 3.33026e-13 0)
(3 1.94341e-12 0)
(3 2.43933e-12 0)
(3 -1.23685e-10 0)
(3 -1.24209e-08 0)
(3 -5.3583e-08 0)
(3 -4.58239e-07 0)
(3 -4.68944e-06 0)
(2.99997 6.29755e-05 0)
(3 -8.99551e-16 0)
(3 -3.2359e-16 0)
(3 5.9777e-16 0)
(3 1.65823e-15 0)
(3 2.47771e-15 0)
(3 1.97761e-15 0)
(3 1.41351e-15 0)
(3 8.18262e-16 0)
(3 -6.8972e-16 0)
(3 -1.08508e-15 0)
(3 -2.13751e-16 0)
(3 9.14016e-16 0)
(3 2.63335e-15 0)
(3 2.29972e-15 0)
(3 1.22763e-15 0)
(3 1.03451e-14 0)
(3 1.68323e-14 0)
(3 7.18344e-13 0)
(3 9.75243e-13 0)
(3 -9.09086e-11 0)
(3 -1.59178e-09 0)
(3 -1.41179e-07 0)
(3 -5.26704e-07 0)
(3 -5.05143e-08 0)
(3 8.45479e-16 0)
(3 1.00316e-15 0)
(3 8.28104e-16 0)
(3 1.14849e-15 0)
(3 1.52614e-15 0)
(3 1.24073e-15 0)
(3 7.45145e-16 0)
(3 5.2024e-16 0)
(3 6.14994e-16 0)
(3 1.83709e-16 0)
(3 -2.5105e-16 0)
(3 1.1839e-16 0)
(3 1.06933e-15 0)
(3 2.60304e-15 0)
(3 1.27051e-15 0)
(3 2.79845e-16 0)
(3 -6.58944e-14 0)
(3 -9.58965e-13 0)
(3 -3.00016e-13 0)
(3 9.58672e-11 0)
(3 3.93884e-09 0)
(3 1.33681e-08 0)
(3 1.71875e-07 0)
(3 9.34408e-07 0)
(3 1.06427e-15 0)
(3 7.77064e-16 0)
(3 1.32798e-15 0)
(3 2.05344e-15 0)
(3 1.46119e-15 0)
(3 1.16884e-15 0)
(3 6.91316e-16 0)
(3 8.34437e-16 0)
(3 1.40103e-15 0)
(3 1.29679e-15 0)
(3 1.46353e-15 0)
(3 1.48542e-15 0)
(3 9.59469e-16 0)
(3 9.72543e-16 0)
(3 -1.1362e-15 0)
(3 -2.40206e-13 0)
(3 -1.68184e-12 0)
(3 -2.34489e-12 0)
(3 6.44747e-11 0)
(3 7.96245e-09 0)
(3 6.27589e-08 0)
(3 6.34896e-07 0)
(3.00001 -5.11879e-06 0)
(3.00002 8.30994e-05 0)
(3 -9.27909e-16 0)
(3 -8.00677e-16 0)
(3 -5.34301e-16 0)
(3 -2.91639e-16 0)
(3 -4.00382e-16 0)
(3 -8.63988e-16 0)
(3 -1.09599e-15 0)
(3 -6.00371e-16 0)
(3 -1.45126e-16 0)
(3 -2.85844e-16 0)
(3 -7.06183e-16 0)
(3 -8.96925e-16 0)
(3 -2.22006e-15 0)
(3 -1.40638e-15 0)
(3 -6.87018e-13 0)
(3 -3.30578e-12 0)
(3 -1.58308e-11 0)
(3 -3.1414e-11 0)
(3 2.39474e-08 0)
(3 8.68461e-08 0)
(3 2.61753e-07 0)
(3 3.73282e-06 0)
(2.99962 -0.000825846 0)
(2.99519 -0.0125766 0)
(3 -1.60289e-15 0)
(3 -1.23543e-15 0)
(3 -2.37856e-15 0)
(3 -3.27279e-15 0)
(3 -1.96355e-15 0)
(3 -3.96222e-16 0)
(3 -1.34058e-16 0)
(3 -9.23041e-16 0)
(3 -1.56805e-15 0)
(3 -1.90829e-15 0)
(3 -2.5143e-15 0)
(3 -2.71173e-15 0)
(3 -1.51494e-14 0)
(3 -1.18099e-12 0)
(3 -1.21608e-11 0)
(3 -1.61954e-11 0)
(3 -2.85882e-11 0)
(3 1.95269e-08 0)
(3 4.65991e-07 0)
(3 4.56948e-07 0)
(3 1.04448e-06 0)
(2.99927 -0.00141059 0)
(2.97776 -0.0417415 0)
(2.88685 -0.210473 0)
(3 -2.61637e-15 0)
(3 -2.28832e-15 0)
(3 -2.07866e-15 0)
(3 -2.2609e-15 0)
(3 -1.24202e-15 0)
(3 6.62052e-16 0)
(3 6.76478e-16 0)
(3 -3.13904e-16 0)
(3 -8.11143e-16 0)
(3 -1.67003e-15 0)
(3 -2.65396e-15 0)
(3 -1.70641e-13 0)
(3 -1.71962e-12 0)
(3 -3.16551e-11 0)
(3 -9.89808e-11 0)
(3 3.82269e-10 0)
(3 2.96067e-08 0)
(3 1.05023e-06 0)
(3 1.64602e-06 0)
(2.99999 -1.08342e-05 0)
(2.99838 -0.00300767 0)
(2.9582 -0.0629932 0)
(2.79179 -0.327145 0)
(2.55561 -0.648657 0)
(3 -1.22914e-15 0)
(3 -9.69477e-16 0)
(3 2.73709e-16 0)
(3 2.47714e-16 0)
(3 1.89107e-17 0)
(3 3.88526e-16 0)
(3 -1.31442e-15 0)
(3 -5.51336e-15 0)
(3 -2.84014e-15 0)
(3 -3.64777e-14 0)
(3 -9.95538e-13 0)
(3 -1.46692e-11 0)
(3 -1.11814e-11 0)
(3 -2.30446e-10 0)
(3 7.2724e-09 0)
(3 1.06907e-07 0)
(3 2.10454e-06 0)
(3 5.14569e-06 0)
(2.99994 -7.86256e-05 0)
(2.9942 -0.0102248 0)
(2.94787 -0.0925119 0)
(2.66736 -0.462099 0)
(2.51485 -0.663013 0)
(2.38451 -0.798827 0)
(3 1.33218e-15 0)
(3 8.29912e-16 0)
(3 7.43375e-16 0)
(3 9.44232e-16 0)
(3 -1.87759e-16 0)
(3 -1.00978e-14 0)
(3 -7.11478e-14 0)
(3 -2.0129e-13 0)
(3 -8.19855e-13 0)
(3 -3.36396e-12 0)
(3 -2.74146e-11 0)
(3 -8.23986e-11 0)
(3 7.34684e-10 0)
(3 4.83824e-08 0)
(3 4.63144e-07 0)
(3 1.25953e-06 0)
(3.00001 1.63091e-05 0)
(2.99959 -0.000790817 0)
(2.98627 -0.021488 0)
(2.84775 -0.205436 0)
(2.67669 -0.485994 0)
(2.36683 -0.824692 0)
(2.30885 -0.867024 0)
(2.32035 -0.840377 0)
(3 3.75795e-15 0)
(3 3.82439e-15 0)
(3 3.16114e-15 0)
(3 9.19979e-16 0)
(3 -3.78623e-14 0)
(3 -4.74873e-13 0)
(3 -1.72566e-12 0)
(3 -2.62466e-12 0)
(3 -1.97936e-11 0)
(3 -2.02652e-11 0)
(3 -1.63274e-10 0)
(3 1.10725e-08 0)
(3 1.21768e-07 0)
(3 3.20703e-06 0)
(3 2.21051e-06 0)
(3 1.36095e-05 0)
(2.99688 -0.00476846 0)
(2.95057 -0.0679785 0)
(2.79587 -0.30447 0)
(2.45364 -0.710934 0)
(2.38205 -0.794455 0)
(2.33218 -0.829726 0)
(2.32613 -0.83318 0)
(2.32517 -0.834579 0)
(3 -7.46002e-16 0)
(3 2.39914e-16 0)
(3 8.3463e-15 0)
(3 -5.90434e-13 0)
(3 -1.55731e-12 0)
(3 -3.83222e-12 0)
(3 -5.66751e-12 0)
(3 -6.43713e-12 0)
(3 -1.20478e-10 0)
(3 2.08117e-10 0)
(3 2.20206e-08 0)
(3 1.65405e-06 0)
(3 1.41092e-06 0)
(3.00001 1.80911e-05 0)
(2.99946 -0.000780088 0)
(2.98766 -0.0190417 0)
(2.87688 -0.162919 0)
(2.58706 -0.529907 0)
(2.47276 -0.683704 0)
(2.33724 -0.835292 0)
(2.29562 -0.87091 0)
(2.30082 -0.864118 0)
(2.31566 -0.849828 0)
(2.32553 -0.838966 0)
(3 -1.64968e-13 0)
(3 -5.16034e-14 0)
(3 -1.25519e-11 0)
(3 -8.21763e-12 0)
(3 -1.3373e-11 0)
(3 4.30707e-10 0)
(3 3.52469e-10 0)
(3 1.82594e-10 0)
(3 1.54557e-08 0)
(3 3.61194e-07 0)
(3 4.13934e-06 0)
(3.00001 1.36188e-05 0)
(2.99996 -5.72191e-05 0)
(2.9971 -0.00443946 0)
(2.93176 -0.0842173 0)
(2.74526 -0.323862 0)
(2.50944 -0.627606 0)
(2.28793 -0.898392 0)
(2.26697 -0.881866 0)
(2.30493 -0.860374 0)
(2.31292 -0.856895 0)
(2.32385 -0.853105 0)
(2.33466 -0.84243 0)
(2.34017 -0.839314 0)
(3 -4.36369e-13 0)
(3 -1.3848e-10 0)
(3 -2.29327e-10 0)
(3 4.08233e-10 0)
(3 -1.58877e-10 0)
(3 3.88404e-08 0)
(3 8.90698e-08 0)
(3 3.70892e-07 0)
(3 6.17485e-06 0)
(3 5.99062e-06 0)
(3.00002 5.16782e-05 0)
(2.99895 -0.00140824 0)
(2.96336 -0.0458121 0)
(2.85071 -0.195103 0)
(2.55458 -0.576492 0)
(2.32135 -0.850292 0)
(2.30939 -0.851954 0)
(2.3102 -0.869422 0)
(2.31558 -0.870442 0)
(2.33294 -0.862819 0)
(2.3411 -0.852823 0)
(2.34627 -0.839733 0)
(2.35139 -0.834991 0)
(2.3505 -0.836369 0)
(3 1.97059e-10 0)
(3 -3.12531e-09 0)
(3 5.46346e-08 0)
(3 7.14964e-08 0)
(3 4.69984e-07 0)
(3 6.87487e-07 0)
(3 5.99552e-06 0)
(3 5.43833e-06 0)
(3.00002 4.61508e-05 0)
(2.99935 -0.000597067 0)
(2.98271 -0.0249649 0)
(2.89711 -0.142694 0)
(2.59855 -0.515194 0)
(2.41476 -0.754612 0)
(2.37712 -0.833603 0)
(2.30919 -0.883793 0)
(2.30604 -0.888482 0)
(2.32269 -0.87588 0)
(2.34252 -0.856952 0)
(2.35357 -0.856145 0)
(2.35956 -0.845613 0)
(2.35965 -0.840262 0)
(2.35914 -0.838158 0)
(2.35193 -0.842154 0)
(3 5.52065e-09 0)
(3 1.43544e-06 0)
(3 1.59723e-06 0)
(3 7.6774e-07 0)
(3 8.12839e-06 0)
(2.99999 -2.24066e-05 0)
(3.00006 0.000136942 0)
(2.99918 -0.00138049 0)
(2.991 -0.0167111 0)
(2.90068 -0.156743 0)
(2.70667 -0.460773 0)
(2.51701 -0.716029 0)
(2.30751 -0.933 0)
(2.2701 -0.959169 0)
(2.28386 -0.938188 0)
(2.30563 -0.910674 0)
(2.32554 -0.893102 0)
(2.3417 -0.87107 0)
(2.35738 -0.851387 0)
(2.36209 -0.842212 0)
(2.36251 -0.843534 0)
(2.36075 -0.844339 0)
(2.35576 -0.845837 0)
(2.34985 -0.851653 0)
(3 -1.3194e-07 0)
(3.00003 3.25946e-05 0)
(2.9999 -0.00013048 0)
(2.99989 -0.00015915 0)
(2.99864 -0.00181248 0)
(2.99127 -0.0130234 0)
(2.96673 -0.051208 0)
(2.89296 -0.181999 0)
(2.78715 -0.397589 0)
(2.59278 -0.701616 0)
(2.43526 -0.859881 0)
(2.33797 -0.928558 0)
(2.29996 -0.916899 0)
(2.30014 -0.900487 0)
(2.30917 -0.886168 0)
(2.34035 -0.868451 0)
(2.35128 -0.867082 0)
(2.35576 -0.852649 0)
(2.35848 -0.84618 0)
(2.3607 -0.843264 0)
(2.35794 -0.844224 0)
(2.35306 -0.847201 0)
(2.34841 -0.85122 0)
(2.34542 -0.853029 0)
(2.99871 -0.00135148 0)
(2.99124 -0.0102448 0)
(2.95814 -0.0511878 0)
(2.90344 -0.132916 0)
(2.80324 -0.2752 0)
(2.67683 -0.466538 0)
(2.54425 -0.67735 0)
(2.36653 -0.909983 0)
(2.22946 -1.06516 0)
(2.17855 -1.09942 0)
(2.14153 -1.04871 0)
(2.17939 -1.00261 0)
(2.25611 -0.949353 0)
(2.30134 -0.896783 0)
(2.32479 -0.857975 0)
(2.34878 -0.83367 0)
(2.35339 -0.837667 0)
(2.35782 -0.839217 0)
(2.35662 -0.839755 0)
(2.35307 -0.841542 0)
(2.34766 -0.844035 0)
(2.34412 -0.845997 0)
(2.34172 -0.847962 0)
(2.34128 -0.848824 0)
(2.93151 -0.0274877 0)
(2.85611 -0.0337421 0)
(2.74621 -0.176314 0)
(2.68019 -0.227987 0)
(2.57333 -0.350796 0)
(2.49754 -0.448526 0)
(2.42849 -0.541295 0)
(2.34753 -0.625457 0)
(2.31185 -0.725727 0)
(2.25977 -0.798273 0)
(2.25054 -0.855498 0)
(2.28066 -0.887916 0)
(2.3232 -0.892193 0)
(2.33832 -0.886251 0)
(2.34774 -0.877934 0)
(2.34867 -0.869465 0)
(2.34605 -0.858649 0)