/*--------------------------------*- C++ -*----------------------------------*\
  =========                 |
  \\      /  F ield         | OpenFOAM: The Open Source CFD Toolbox
   \\    /   O peration     | Website:  https://openfoam.org
    \\  /    A nd           | Version:  7
     \\/     M anipulation  |
\*---------------------------------------------------------------------------*/
FoamFile
{
    version     2.0;
    format      ascii;
    class       volVectorField;
    location    "1.9";
    object      U;
}
// * * * * * * * * * * * * * * * * * * * * * * * * * * * * * * * * * * * * * //

dimensions      [0 1 -1 0 0 0 0];

internalField   nonuniform List<vector> 
73728
(
(3 -1.42945e-17 0)
(3 1.11803e-17 0)
(3 1.7659e-16 0)
(3 1.64258e-16 0)
(3 -1.15152e-16 0)
(3 -2.01946e-16 0)
(3 -1.48857e-16 0)
(3 1.69759e-16 0)
(3 5.63979e-16 0)
(3 1.04461e-15 0)
(3 1.15278e-15 0)
(3 9.0741e-16 0)
(3 1.92624e-16 0)
(3 2.349e-16 0)
(3 -9.57053e-17 0)
(3 -9.74166e-16 0)
(3 -1.13687e-15 0)
(3 -2.05494e-16 0)
(3 -3.33349e-16 0)
(3 -1.45379e-16 0)
(3 -2.70012e-16 0)
(3 -3.38051e-16 0)
(3 -7.64056e-16 0)
(3 -2.96502e-16 0)
(3 5.94157e-17 0)
(3 -5.58779e-17 0)
(3 1.98011e-16 0)
(3 -2.07305e-17 0)
(3 1.25514e-15 0)
(3 1.66196e-15 0)
(3 1.65264e-15 0)
(3 1.03225e-15 0)
(3 5.5823e-16 0)
(3 2.02937e-16 0)
(3 -5.02906e-16 0)
(3 -7.05703e-16 0)
(3 -7.89767e-16 0)
(3 -3.46847e-16 0)
(3 1.83291e-16 0)
(3 5.10439e-16 0)
(3 6.28597e-16 0)
(3 2.52539e-16 0)
(3 -1.43166e-17 0)
(3 -1.69615e-15 0)
(3 -1.65616e-15 0)
(3 -1.45934e-15 0)
(3 -1.38452e-15 0)
(3 -1.1616e-16 0)
(3 3.63774e-16 0)
(3 2.76778e-16 0)
(3 2.25737e-16 0)
(3 4.40669e-17 0)
(3 -2.98685e-16 0)
(3 -7.85533e-17 0)
(3 -3.79959e-17 0)
(3 1.16344e-16 0)
(3 2.46842e-16 0)
(3 4.05424e-16 0)
(3 4.62032e-16 0)
(3 -2.86563e-16 0)
(3 -6.49435e-16 0)
(3 -5.22024e-16 0)
(3 -7.20542e-16 0)
(3 -8.82728e-16 0)
(3 -1.01333e-15 0)
(3 -7.39814e-16 0)
(3 -2.59469e-16 0)
(3 -2.50829e-16 0)
(3 -5.40584e-16 0)
(3 -6.93863e-16 0)
(3 -8.7085e-16 0)
(3 -1.55386e-15 0)
(3 -2.05775e-15 0)
(3 -9.50433e-16 0)
(3 -2.33588e-17 0)
(3 5.18843e-16 0)
(3 8.36793e-16 0)
(3 1.09091e-15 0)
(3 8.99395e-16 0)
(3 1.05219e-15 0)
(3 1.10414e-15 0)
(3 6.51337e-16 0)
(3 3.33925e-16 0)
(3 3.8823e-16 0)
(3 5.2127e-16 0)
(3 2.38108e-16 0)
(3 -3.15606e-16 0)
(3 -6.32401e-16 0)
(3 -7.44201e-16 0)
(3 -7.09736e-16 0)
(3 -7.72992e-16 0)
(3 -4.40648e-16 0)
(3 2.632e-16 0)
(3 4.37322e-16 0)
(3 2.9033e-16 0)
(3 4.87022e-16 0)
(3 3.06806e-17 0)
(3 3.68665e-16 0)
(3 5.61162e-16 0)
(3 2.6877e-16 0)
(3 -5.88413e-16 0)
(3 -9.00365e-16 0)
(3 -8.16641e-16 0)
(3 -1.55595e-16 0)
(3 4.84149e-17 0)
(3 4.4554e-16 0)
(3 8.01398e-16 0)
(3 1.04289e-15 0)
(3 6.46965e-16 0)
(3 1.51849e-16 0)
(3 -6.48864e-16 0)
(3 -1.47397e-15 0)
(3 -1.21694e-15 0)
(3 -7.56506e-16 0)
(3 -6.00619e-16 0)
(3 1.16876e-16 0)
(3 -4.21964e-17 0)
(3 -3.87104e-16 0)
(3 2.1921e-16 0)
(3 1.39102e-15 0)
(3 1.33085e-15 0)
(3 8.41184e-16 0)
(3 8.4898e-16 0)
(3 6.71683e-16 0)
(3 8.97686e-16 0)
(3 9.91475e-16 0)
(3 9.62572e-16 0)
(3 9.86583e-16 0)
(3 1.09876e-15 0)
(3 1.11828e-15 0)
(3 3.05325e-16 0)
(3 -1.93761e-17 0)
(3 -4.1094e-16 0)
(3 5.49683e-16 0)
(3 1.33799e-15 0)
(3 1.55899e-15 0)
(3 1.37626e-15 0)
(3 1.05378e-15 0)
(3 5.24262e-16 0)
(3 -2.22193e-16 0)
(3 -8.08865e-16 0)
(3 -9.34926e-16 0)
(3 -1.03825e-15 0)
(3 -7.87809e-17 0)
(3 1.20577e-16 0)
(3 -4.0965e-16 0)
(3 -3.30058e-16 0)
(3 -3.87236e-16 0)
(3 -5.04754e-16 0)
(3 -3.9602e-16 0)
(3 -7.02556e-16 0)
(3 -5.07355e-16 0)
(3 -1.3637e-16 0)
(3 -7.04563e-17 0)
(3 -1.56454e-16 0)
(3 -1.21417e-15 0)
(3 -2.26691e-15 0)
(3 -2.92322e-15 0)
(3 -2.43766e-15 0)
(3 -1.72369e-15 0)
(3 -1.2791e-15 0)
(3 -7.39728e-16 0)
(3 -1.90765e-16 0)
(3 -7.32107e-16 0)
(3 -1.438e-15 0)
(3 -1.66493e-15 0)
(3 -1.66589e-15 0)
(3 -1.86802e-15 0)
(3 -1.57856e-15 0)
(3 -1.45367e-15 0)
(3 8.60123e-16 0)
(3 1.73022e-15 0)
(3 1.40251e-15 0)
(3 9.55932e-16 0)
(3 5.69338e-16 0)
(3 9.90637e-16 0)
(3 1.31478e-15 0)
(3 7.84589e-16 0)
(3 1.48973e-16 0)
(3 1.42792e-16 0)
(3 6.80594e-16 0)
(3 7.21514e-17 0)
(3 -1.50305e-15 0)
(3 -1.88022e-15 0)
(3 -1.52858e-15 0)
(3 -4.23526e-16 0)
(3 3.94869e-16 0)
(3 2.54477e-15 0)
(3 2.98779e-15 0)
(3 2.67746e-15 0)
(3 2.50699e-15 0)
(3 1.64569e-15 0)
(3 3.90971e-17 0)
(3 3.51655e-18 0)
(3 -2.97068e-16 0)
(3 -5.66611e-16 0)
(3 -4.31175e-16 0)
(3 -3.33865e-16 0)
(3 -1.5091e-16 0)
(3 4.4001e-16 0)
(3 1.18249e-16 0)
(3 -6.583e-16 0)
(3 -9.41344e-16 0)
(3 -1.10913e-15 0)
(3 -9.4285e-16 0)
(3 -7.31611e-16 0)
(3 -4.67747e-16 0)
(3 -4.67675e-16 0)
(3 -9.0541e-16 0)
(3 -1.54144e-15 0)
(3 -1.55987e-15 0)
(3 -6.9057e-16 0)
(3 -4.97295e-16 0)
(3 -5.84976e-16 0)
(3 -7.35191e-17 0)
(3 2.07388e-16 0)
(3 -1.35684e-16 0)
(3 1.22256e-16 0)
(3 1.1415e-16 0)
(3 -4.00345e-16 0)
(3 -5.01239e-16 0)
(3 -4.39985e-16 0)
(3 1.7592e-16 0)
(3 1.671e-15 0)
(3 1.75242e-15 0)
(3 1.06467e-15 0)
(3 9.13333e-16 0)
(3 3.44519e-16 0)
(3 1.36055e-16 0)
(3 1.3795e-16 0)
(3 2.90608e-16 0)
(3 4.80763e-16 0)
(3 3.06837e-16 0)
(3 1.44008e-16 0)
(3 1.99198e-16 0)
(3 5.88849e-16 0)
(3 4.56754e-16 0)
(3 -2.64183e-17 0)
(3 3.04562e-16 0)
(3 -4.37842e-17 0)
(3 -2.20834e-16 0)
(3 -8.38622e-16 0)
(3 -3.90536e-16 0)
(3 3.45524e-16 0)
(3 3.91053e-16 0)
(3 2.36798e-16 0)
(3 1.8847e-16 0)
(3 7.20835e-17 0)
(3 -3.77813e-16 0)
(3 -8.11967e-16 0)
(3 -8.74395e-16 0)
(3 -1.00958e-15 0)
(3 -1.82851e-15 0)
(3 -2.44802e-15 0)
(3 -2.09725e-15 0)
(3 -2.29411e-15 0)
(3 -2.66385e-15 0)
(3 -2.24536e-15 0)
(3 -1.4626e-15 0)
(3 -1.05071e-15 0)
(3 -9.61549e-16 0)
(3 -1.04642e-15 0)
(3 -8.03453e-16 0)
(3 -6.16458e-16 0)
(3 -5.1664e-16 0)
(3 -1.14331e-16 0)
(3 7.34529e-16 0)
(3 1.20085e-15 0)
(3 1.19355e-15 0)
(3 6.40334e-16 0)
(3 9.73337e-17 0)
(3 5.74964e-18 0)
(3 3.20097e-16 0)
(3 6.1775e-16 0)
(3 3.45135e-16 0)
(3 1.32871e-16 0)
(3 3.39141e-16 0)
(3 3.04029e-16 0)
(3 -9.96299e-17 0)
(3 -3.87058e-16 0)
(3 1.12608e-17 0)
(3 4.05772e-16 0)
(3 9.25551e-16 0)
(3 2.30291e-15 0)
(3 3.55126e-15 0)
(3 3.19332e-15 0)
(3 2.75415e-15 0)
(3 1.78371e-15 0)
(3 1.66256e-16 0)
(3 -1.00164e-16 0)
(3 -1.45303e-16 0)
(3 1.19018e-17 0)
(3 3.1783e-16 0)
(3 2.6447e-16 0)
(3 3.04733e-17 0)
(3 -3.6882e-17 0)
(3 -1.10903e-16 0)
(3 -9.53261e-16 0)
(3 -2.30065e-15 0)
(3 -2.55552e-15 0)
(3 -1.78947e-15 0)
(3 -1.07722e-15 0)
(3 -1.29837e-15 0)
(3 -1.71478e-15 0)
(3 -1.97572e-15 0)
(3 -1.54264e-15 0)
(3 -1.60804e-15 0)
(3 -1.60114e-15 0)
(3 -2.34459e-16 0)
(3 6.30056e-16 0)
(3 6.2318e-16 0)
(3 6.44731e-16 0)
(3 5.37081e-16 0)
(3 1.57934e-15 0)
(3 2.17743e-15 0)
(3 1.90695e-15 0)
(3 1.28293e-15 0)
(3 1.05379e-15 0)
(3 1.37319e-15 0)
(3 1.18536e-15 0)
(3 1.15477e-15 0)
(3 1.81316e-15 0)
(3 1.79118e-15 0)
(3 1.15369e-15 0)
(3 -1.21086e-16 0)
(3 -1.21578e-15 0)
(3 -1.7113e-15 0)
(3 -1.90264e-15 0)
(3 -9.88806e-16 0)
(3 -1.32583e-15 0)
(3 -2.01902e-15 0)
(3 -9.99761e-16 0)
(3 -6.26876e-16 0)
(3 -8.93216e-16 0)
(3 -7.91125e-16 0)
(3 -5.84432e-16 0)
(3 -4.86008e-16 0)
(3 -2.34864e-16 0)
(3 4.23731e-16 0)
(3 4.04084e-16 0)
(3 3.49515e-16 0)
(3 5.51446e-16 0)
(3 8.59946e-16 0)
(3 8.46443e-16 0)
(3 5.78163e-16 0)
(3 4.47685e-16 0)
(3 4.6361e-16 0)
(3 1.26424e-16 0)
(3 -7.96399e-16 0)
(3 -1.59421e-15 0)
(3 -1.9035e-15 0)
(3 -2.21077e-15 0)
(3 -2.40321e-15 0)
(3 -1.4866e-15 0)
(3 -9.49233e-16 0)
(3 -8.77713e-16 0)
(3 1.01074e-16 0)
(3 1.01063e-15 0)
(3 1.76001e-15 0)
(3 1.55831e-15 0)
(3 1.52554e-15 0)
(3 1.43906e-15 0)
(3 1.35438e-15 0)
(3 1.33162e-15 0)
(3 1.59885e-15 0)
(3 1.98079e-15 0)
(3 2.36941e-15 0)
(3 2.36964e-15 0)
(3 1.71263e-15 0)
(3 1.01289e-15 0)
(3 1.27286e-15 0)
(3 1.28507e-15 0)
(3 1.13536e-15 0)
(3 1.82445e-15 0)
(3 2.13168e-15 0)
(3 2.27686e-15 0)
(3 2.41984e-15 0)
(3 2.60341e-15 0)
(3 2.3137e-15 0)
(3 1.66359e-15 0)
(3 1.86136e-15 0)
(3 2.13625e-15 0)
(3 1.97463e-15 0)
(3 4.9536e-16 0)
(3 2.25565e-16 0)
(3 2.96811e-16 0)
(3 3.93724e-16 0)
(3 3.53748e-16 0)
(3 -1.07229e-16 0)
(3 -4.06619e-16 0)
(3 -8.55302e-16 0)
(3 -1.63853e-15 0)
(3 -1.56378e-15 0)
(3 -1.89122e-15 0)
(3 -1.69926e-15 0)
(3 -1.49299e-15 0)
(3 -9.8132e-16 0)
(3 -9.61878e-16 0)
(3 -1.42985e-15 0)
(3 -2.18677e-15 0)
(3 -1.8379e-15 0)
(3 -1.27377e-15 0)
(3 -1.04372e-15 0)
(3 -7.54874e-16 0)
(3 3.53275e-16 0)
(3 1.58532e-15 0)
(3 1.69902e-15 0)
(3 1.9003e-15 0)
(3 2.68735e-15 0)
(3 4.15395e-15 0)
(3 5.14473e-15 0)
(3 4.85075e-15 0)
(3 3.41932e-15 0)
(3 2.39406e-15 0)
(3 1.63616e-15 0)
(3 1.9186e-16 0)
(3 2.93307e-16 0)
(3 1.2953e-15 0)
(3 1.73324e-15 0)
(3 1.04987e-15 0)
(3 1.64221e-15 0)
(3 1.31148e-15 0)
(3 7.18495e-16 0)
(3 3.57599e-16 0)
(3 2.09434e-16 0)
(3 -1.51127e-15 0)
(3 -2.48347e-15 0)
(3 -1.73596e-15 0)
(3 -1.28937e-15 0)
(3 -1.22086e-15 0)
(3 -1.29178e-15 0)
(3 -8.03293e-16 0)
(3 -1.27704e-15 0)
(3 9.77286e-17 0)
(3 1.19341e-15 0)
(3 1.59239e-15 0)
(3 1.39333e-15 0)
(3 1.15752e-15 0)
(3 1.29463e-15 0)
(3 1.62142e-15 0)
(3 1.7566e-15 0)
(3 1.39475e-15 0)
(3 8.64434e-16 0)
(3 2.35384e-16 0)
(3 -9.94938e-16 0)
(3 -2.19328e-15 0)
(3 -2.4622e-15 0)
(3 -2.29824e-15 0)
(3 -1.83446e-15 0)
(3 -5.68643e-16 0)
(3 -4.66489e-16 0)
(3 -1.95862e-16 0)
(3 -4.16324e-17 0)
(3 9.96655e-16 0)
(3 1.05571e-15 0)
(3 1.26013e-15 0)
(3 1.49542e-15 0)
(3 1.62856e-15 0)
(3 1.35678e-15 0)
(3 1.63179e-15 0)
(3 1.70339e-15 0)
(3 2.76961e-15 0)
(3 3.33931e-15 0)
(3 3.38876e-15 0)
(3 2.95528e-15 0)
(3 2.23095e-15 0)
(3 1.6843e-15 0)
(3 1.37826e-15 0)
(3 1.90746e-15 0)
(3 2.54627e-15 0)
(3 2.56689e-15 0)
(3 2.52224e-15 0)
(3 2.14634e-15 0)
(3 2.40212e-15 0)
(3 3.12533e-15 0)
(3 3.02159e-15 0)
(3 2.50256e-15 0)
(3 2.3903e-15 0)
(3 2.44171e-15 0)
(3 4.63839e-16 0)
(3 -4.18473e-18 0)
(3 8.54571e-17 0)
(3 3.48169e-16 0)
(3 3.59126e-16 0)
(3 7.75976e-17 0)
(3 -2.72278e-16 0)
(3 -2.77172e-16 0)
(3 -3.06544e-16 0)
(3 -4.52661e-16 0)
(3 -3.77677e-16 0)
(3 -2.05458e-16 0)
(3 -1.6851e-16 0)
(3 -5.65423e-16 0)
(3 -4.44259e-16 0)
(3 -4.13387e-16 0)
(3 -7.26195e-16 0)
(3 -8.20445e-16 0)
(3 -5.26674e-16 0)
(3 8.06163e-16 0)
(3 1.26601e-15 0)
(3 7.61212e-16 0)
(3 7.03189e-16 0)
(3 1.59801e-16 0)
(3 9.18139e-16 0)
(3 1.64192e-15 0)
(3 2.83294e-15 0)
(3 3.35814e-15 0)
(3 3.33307e-15 0)
(3 3.43046e-15 0)
(3 2.77896e-15 0)
(3 6.8173e-16 0)
(3 -3.46837e-17 0)
(3 1.5968e-16 0)
(3 1.80667e-16 0)
(3 7.61056e-16 0)
(3 1.06446e-15 0)
(3 1.55006e-15 0)
(3 1.40664e-15 0)
(3 1.14779e-15 0)
(3 1.15726e-15 0)
(3 4.52256e-16 0)
(3 -4.06301e-16 0)
(3 -1.52982e-15 0)
(3 -1.13313e-15 0)
(3 -2.30838e-16 0)
(3 1.10791e-16 0)
(3 -2.80723e-16 0)
(3 -4.19973e-16 0)
(3 1.42922e-16 0)
(3 9.05886e-16 0)
(3 1.19733e-15 0)
(3 2.05667e-15 0)
(3 2.67124e-15 0)
(3 2.73674e-15 0)
(3 2.47553e-15 0)
(3 2.19354e-15 0)
(3 2.20331e-15 0)
(3 1.69212e-15 0)
(3 6.52738e-16 0)
(3 -2.72078e-16 0)
(3 -5.47618e-16 0)
(3 -7.44806e-16 0)
(3 -1.16152e-15 0)
(3 -1.5217e-15 0)
(3 -1.87652e-15 0)
(3 -6.76138e-16 0)
(3 9.50034e-17 0)
(3 -2.13119e-16 0)
(3 -8.59701e-16 0)
(3 -5.0119e-16 0)
(3 9.35923e-17 0)
(3 7.07e-16 0)
(3 1.46631e-15 0)
(3 2.09468e-15 0)
(3 2.28282e-15 0)
(3 2.54159e-15 0)
(3 2.57955e-15 0)
(3 2.59668e-15 0)
(3 2.59521e-15 0)
(3 2.63038e-15 0)
(3 2.5715e-15 0)
(3 2.05643e-15 0)
(3 1.18683e-15 0)
(3 1.16573e-15 0)
(3 2.38795e-15 0)
(3 2.76052e-15 0)
(3 2.33779e-15 0)
(3 1.81888e-15 0)
(3 1.70767e-15 0)
(3 2.2321e-15 0)
(3 2.73638e-15 0)
(3 2.72709e-15 0)
(3 2.59388e-15 0)
(3 2.32588e-15 0)
(3 2.82908e-15 0)
(3 3.53139e-15 0)
(3 -3.52644e-17 0)
(3 2.95008e-16 0)
(3 4.60766e-16 0)
(3 7.79992e-16 0)
(3 1.20165e-15 0)
(3 9.02448e-16 0)
(3 6.47136e-16 0)
(3 1.20131e-15 0)
(3 9.27004e-16 0)
(3 3.84313e-16 0)
(3 -1.78247e-17 0)
(3 -1.58843e-16 0)
(3 -1.50083e-15 0)
(3 -1.6661e-15 0)
(3 -1.06665e-15 0)
(3 -1.18541e-15 0)
(3 -8.87491e-16 0)
(3 -5.42081e-16 0)
(3 5.17361e-16 0)
(3 4.27138e-16 0)
(3 -3.27917e-16 0)
(3 -1.0055e-15 0)
(3 -1.0046e-15 0)
(3 -7.22251e-16 0)
(3 -1.66917e-16 0)
(3 2.43505e-16 0)
(3 1.1966e-15 0)
(3 2.21798e-15 0)
(3 2.83949e-15 0)
(3 2.28972e-15 0)
(3 -3.90653e-16 0)
(3 -1.07852e-15 0)
(3 -8.04294e-16 0)
(3 -3.98029e-17 0)
(3 1.33853e-15 0)
(3 1.83294e-15 0)
(3 1.29172e-15 0)
(3 5.73619e-16 0)
(3 2.45706e-16 0)
(3 2.62334e-16 0)
(3 -2.48448e-16 0)
(3 -6.35262e-17 0)
(3 3.08071e-16 0)
(3 3.30675e-16 0)
(3 4.24138e-16 0)
(3 4.47247e-16 0)
(3 6.18513e-16 0)
(3 1.06149e-15 0)
(3 1.7471e-15 0)
(3 2.16117e-15 0)
(3 1.88194e-15 0)
(3 1.11588e-15 0)
(3 7.34619e-16 0)
(3 1.93713e-15 0)
(3 2.64552e-15 0)
(3 2.29727e-15 0)
(3 2.36399e-15 0)
(3 2.34295e-15 0)
(3 1.67099e-15 0)
(3 1.01796e-15 0)
(3 7.69082e-16 0)
(3 6.08424e-16 0)
(3 3.76829e-16 0)
(3 -4.73512e-17 0)
(3 -2.63814e-17 0)
(3 -7.9266e-16 0)
(3 -9.43844e-16 0)
(3 -8.89663e-16 0)
(3 -9.97005e-16 0)
(3 -7.21618e-16 0)
(3 5.72855e-16 0)
(3 1.63283e-15 0)
(3 2.09461e-15 0)
(3 2.18291e-15 0)
(3 2.04189e-15 0)
(3 1.93909e-15 0)
(3 1.28755e-15 0)
(3 1.22719e-15 0)
(3 1.91614e-15 0)
(3 2.33663e-15 0)
(3 1.67802e-15 0)
(3 9.36066e-16 0)
(3 7.27473e-16 0)
(3 1.05674e-15 0)
(3 9.85914e-16 0)
(3 1.2111e-15 0)
(3 1.14987e-15 0)
(3 1.47375e-15 0)
(3 1.87388e-15 0)
(3 1.71939e-15 0)
(3 1.33823e-15 0)
(3 2.11513e-16 0)
(3 4.91635e-16 0)
(3 6.67519e-16 0)
(3 2.36173e-16 0)
(3 9.06398e-16 0)
(3 7.94603e-17 0)
(3 -1.00294e-16 0)
(3 -2.79319e-16 0)
(3 -2.29053e-16 0)
(3 4.52193e-16 0)
(3 1.17539e-15 0)
(3 8.95943e-16 0)
(3 9.69409e-16 0)
(3 8.94297e-16 0)
(3 1.01559e-15 0)
(3 5.28372e-16 0)
(3 -1.51116e-16 0)
(3 -1.2811e-15 0)
(3 -2.53388e-15 0)
(3 -2.15994e-15 0)
(3 -1.35869e-15 0)
(3 -6.49771e-16 0)
(3 -1.47772e-16 0)
(3 5.07422e-17 0)
(3 -9.23233e-17 0)
(3 -2.11007e-16 0)
(3 -4.97925e-16 0)
(3 -3.84628e-16 0)
(3 -4.97344e-16 0)
(3 -8.5665e-16 0)
(3 -1.68822e-15 0)
(3 -1.02077e-15 0)
(3 1.17603e-15 0)
(3 1.48067e-15 0)
(3 7.05195e-16 0)
(3 7.98926e-16 0)
(3 1.42858e-15 0)
(3 -3.88097e-16 0)
(3 -6.00539e-16 0)
(3 -2.34667e-16 0)
(3 7.7435e-16 0)
(3 3.8624e-16 0)
(3 4.1065e-16 0)
(3 5.25817e-16 0)
(3 5.55246e-16 0)
(3 4.40431e-16 0)
(3 5.70698e-16 0)
(3 8.42656e-16 0)
(3 2.33194e-16 0)
(3 -7.26357e-16 0)
(3 -4.05924e-16 0)
(3 4.98883e-16 0)
(3 2.16868e-15 0)
(3 2.40243e-15 0)
(3 2.21085e-15 0)
(3 1.7616e-15 0)
(3 4.83173e-16 0)
(3 -2.44333e-16 0)
(3 7.03087e-17 0)
(3 1.01263e-15 0)
(3 1.31295e-15 0)
(3 1.73275e-15 0)
(3 2.0038e-15 0)
(3 1.82931e-15 0)
(3 9.92667e-16 0)
(3 6.83455e-16 0)
(3 1.20288e-15 0)
(3 1.40146e-15 0)
(3 1.35354e-15 0)
(3 9.89618e-16 0)
(3 -3.59986e-16 0)
(3 -1.52606e-15 0)
(3 -1.43916e-15 0)
(3 -4.37146e-16 0)
(3 -4.51642e-16 0)
(3 -7.32173e-16 0)
(3 3.08123e-16 0)
(3 1.71264e-15 0)
(3 1.70159e-15 0)
(3 1.46866e-15 0)
(3 1.42103e-15 0)
(3 8.01673e-16 0)
(3 7.75398e-16 0)
(3 7.84813e-16 0)
(3 1.60412e-15 0)
(3 1.7759e-15 0)
(3 1.45072e-15 0)
(3 1.37778e-15 0)
(3 9.19507e-16 0)
(3 8.36603e-16 0)
(3 3.8407e-16 0)
(3 6.46609e-16 0)
(3 1.28617e-15 0)
(3 1.76405e-15 0)
(3 9.09444e-16 0)
(3 1.64802e-16 0)
(3 1.96338e-16 0)
(3 1.92041e-16 0)
(3 -4.01284e-16 0)
(3 -7.48391e-16 0)
(3 4.68592e-16 0)
(3 -1.71916e-16 0)
(3 -5.26846e-16 0)
(3 -3.61176e-16 0)
(3 -2.27037e-16 0)
(3 -3.99039e-16 0)
(3 -5.21982e-16 0)
(3 -3.47003e-16 0)
(3 -3.43551e-16 0)
(3 -6.63369e-17 0)
(3 1.41442e-16 0)
(3 1.18311e-16 0)
(3 4.24904e-16 0)
(3 5.46098e-16 0)
(3 -2.01611e-17 0)
(3 -2.25782e-16 0)
(3 4.37309e-16 0)
(3 6.38009e-16 0)
(3 6.77527e-16 0)
(3 7.72236e-16 0)
(3 3.74909e-16 0)
(3 1.62098e-16 0)
(3 -7.14139e-16 0)
(3 -6.75309e-16 0)
(3 -7.31225e-16 0)
(3 -1.84002e-16 0)
(3 -6.29361e-16 0)
(3 -6.16456e-16 0)
(3 -8.31203e-16 0)
(3 5.22108e-16 0)
(3 2.54944e-15 0)
(3 3.41562e-15 0)
(3 4.11185e-15 0)
(3 2.68287e-15 0)
(3 7.78081e-16 0)
(3 -4.53272e-16 0)
(3 -8.11299e-16 0)
(3 -1.09107e-15 0)
(3 -8.35549e-16 0)
(3 -4.73071e-16 0)
(3 -1.75249e-16 0)
(3 -8.00357e-17 0)
(3 8.54392e-17 0)
(3 1.76256e-16 0)
(3 -8.48532e-16 0)
(3 -1.08481e-15 0)
(3 -7.54234e-17 0)
(3 5.67802e-16 0)
(3 8.40726e-16 0)
(3 9.95236e-16 0)
(3 6.97257e-16 0)
(3 2.1291e-16 0)
(3 -1.62791e-16 0)
(3 -2.81167e-16 0)
(3 3.63986e-17 0)
(3 -5.4268e-17 0)
(3 -1.71058e-16 0)
(3 -2.34631e-16 0)
(3 -3.2645e-16 0)
(3 1.17288e-15 0)
(3 2.12899e-15 0)
(3 1.67629e-15 0)
(3 1.35567e-15 0)
(3 1.81992e-15 0)
(3 2.66509e-15 0)
(3 2.17814e-15 0)
(3 7.3708e-16 0)
(3 1.96041e-19 0)
(3 -3.72547e-16 0)
(3 -2.35902e-16 0)
(3 -2.62119e-16 0)
(3 -5.85337e-16 0)
(3 -3.96318e-17 0)
(3 3.95701e-16 0)
(3 1.15218e-15 0)
(3 5.31255e-16 0)
(3 3.96707e-16 0)
(3 8.45494e-16 0)
(3 9.41526e-16 0)
(3 8.27008e-16 0)
(3 1.20551e-15 0)
(3 1.56597e-15 0)
(3 1.99916e-15 0)
(3 1.83611e-15 0)
(3 1.39146e-15 0)
(3 6.33961e-16 0)
(3 1.60176e-16 0)
(3 1.11251e-15 0)
(3 2.07597e-15 0)
(3 1.67919e-15 0)
(3 1.01408e-15 0)
(3 8.89472e-16 0)
(3 9.40062e-16 0)
(3 6.06812e-17 0)
(3 -1.06693e-15 0)
(3 -4.47479e-16 0)
(3 8.41359e-16 0)
(3 2.34331e-18 0)
(3 1.29551e-16 0)
(3 -2.11183e-16 0)
(3 -5.13619e-16 0)
(3 -1.05406e-15 0)
(3 -1.51989e-15 0)
(3 -1.22709e-15 0)
(3 -1.03007e-15 0)
(3 -9.68062e-16 0)
(3 -8.55266e-16 0)
(3 -5.8266e-16 0)
(3 4.86111e-16 0)
(3 1.18699e-15 0)
(3 2.34049e-15 0)
(3 2.23909e-15 0)
(3 2.40904e-15 0)
(3 1.92997e-15 0)
(3 1.75809e-15 0)
(3 1.45091e-15 0)
(3 8.80894e-16 0)
(3 4.28226e-16 0)
(3 8.85864e-16 0)
(3 5.42585e-16 0)
(3 -5.48391e-18 0)
(3 6.23103e-17 0)
(3 5.72695e-16 0)
(3 5.93723e-16 0)
(3 5.71884e-16 0)
(3 1.11687e-15 0)
(3 2.52682e-15 0)
(3 3.91293e-15 0)
(3 3.44771e-15 0)
(3 2.2092e-15 0)
(3 1.13127e-15 0)
(3 4.74385e-17 0)
(3 -8.60729e-16 0)
(3 -8.40859e-16 0)
(3 -6.73912e-16 0)
(3 -5.08085e-16 0)
(3 9.15019e-17 0)
(3 3.72504e-16 0)
(3 -1.63071e-17 0)
(3 -7.90468e-16 0)
(3 -1.72467e-16 0)
(3 6.5883e-16 0)
(3 2.57629e-16 0)
(3 -2.13411e-16 0)
(3 -3.58966e-16 0)
(3 -2.43499e-16 0)
(3 -3.83872e-17 0)
(3 -3.14428e-16 0)
(3 -4.97773e-16 0)
(3 -1.32289e-15 0)
(3 -1.77337e-15 0)
(3 -2.11984e-15 0)
(3 -1.75419e-15 0)
(3 -2.11942e-15 0)
(3 -1.97545e-15 0)
(3 2.91347e-16 0)
(3 1.5792e-15 0)
(3 1.49921e-15 0)
(3 8.20404e-16 0)
(3 6.44788e-16 0)
(3 1.12821e-15 0)
(3 1.679e-15 0)
(3 1.45946e-15 0)
(3 7.03953e-16 0)
(3 4.10132e-16 0)
(3 -3.78855e-16 0)
(3 4.11963e-16 0)
(3 3.64492e-16 0)
(3 3.38449e-16 0)
(3 7.85377e-17 0)
(3 7.67409e-17 0)
(3 7.89276e-18 0)
(3 2.63026e-16 0)
(3 7.89234e-16 0)
(3 1.20837e-15 0)
(3 1.61388e-15 0)
(3 1.39512e-15 0)
(3 1.25695e-15 0)
(3 1.23565e-15 0)
(3 1.38112e-15 0)
(3 1.24591e-15 0)
(3 3.60142e-16 0)
(3 -1.64689e-16 0)
(3 -7.76186e-18 0)
(3 7.18656e-16 0)
(3 6.90096e-16 0)
(3 5.49286e-17 0)
(3 -3.08204e-16 0)
(3 -5.818e-16 0)
(3 -6.80388e-16 0)
(3 -7.05544e-16 0)
(3 -7.13306e-16 0)
(3 2.18194e-16 0)
(3 1.35909e-16 0)
(3 1.00675e-16 0)
(3 -3.81413e-17 0)
(3 -1.87883e-16 0)
(3 -1.26519e-16 0)
(3 1.507e-16 0)
(3 3.17206e-16 0)
(3 4.80198e-16 0)
(3 4.58149e-16 0)
(3 4.04029e-16 0)
(3 6.77447e-16 0)
(3 9.28397e-16 0)
(3 1.53132e-15 0)
(3 1.72622e-15 0)
(3 2.17474e-15 0)
(3 1.96894e-15 0)
(3 1.90495e-15 0)
(3 1.84465e-15 0)
(3 1.29781e-15 0)
(3 1.12858e-15 0)
(3 1.41357e-15 0)
(3 1.30163e-15 0)
(3 1.7205e-15 0)
(3 1.41394e-15 0)
(3 1.20287e-15 0)
(3 6.06435e-16 0)
(3 3.73072e-16 0)
(3 4.09796e-16 0)
(3 8.69774e-17 0)
(3 2.34383e-15 0)
(3 2.70172e-15 0)
(3 9.12188e-16 0)
(3 4.00203e-16 0)
(3 6.93767e-17 0)
(3 -4.41557e-16 0)
(3 -3.07832e-16 0)
(3 2.68005e-16 0)
(3 8.53553e-16 0)
(3 6.2072e-16 0)
(3 4.7096e-16 0)
(3 6.59189e-16 0)
(3 1.5346e-16 0)
(3 -2.46101e-16 0)
(3 -2.92709e-16 0)
(3 -4.10564e-17 0)
(3 2.25238e-16 0)
(3 4.57067e-16 0)
(3 3.35029e-16 0)
(3 3.24859e-16 0)
(3 -3.73126e-17 0)
(3 -5.24982e-16 0)
(3 -9.93862e-16 0)
(3 -1.47144e-15 0)
(3 -2.23878e-15 0)
(3 -2.0948e-15 0)
(3 -1.96159e-15 0)
(3 -2.10013e-15 0)
(3 -1.00025e-15 0)
(3 -1.17188e-16 0)
(3 -4.15771e-16 0)
(3 -1.43936e-16 0)
(3 1.13567e-16 0)
(3 3.54538e-16 0)
(3 4.72358e-16 0)
(3 1.34459e-15 0)
(3 1.82446e-15 0)
(3 1.76778e-15 0)
(3 6.58914e-16 0)
(3 -1.10013e-16 0)
(3 -1.57247e-17 0)
(3 4.25151e-16 0)
(3 6.7997e-16 0)
(3 6.96658e-16 0)
(3 5.13712e-16 0)
(3 6.47085e-16 0)
(3 1.03185e-15 0)
(3 1.61229e-15 0)
(3 2.69216e-15 0)
(3 2.5232e-15 0)
(3 1.7422e-15 0)
(3 1.15452e-15 0)
(3 1.06395e-15 0)
(3 6.36934e-16 0)
(3 2.66255e-16 0)
(3 -7.38221e-16 0)
(3 -1.11146e-15 0)
(3 -9.68144e-16 0)
(3 -3.44322e-16 0)
(3 2.55993e-16 0)
(3 -1.06744e-15 0)
(3 -1.62955e-15 0)
(3 -1.63644e-15 0)
(3 -1.03405e-15 0)
(3 -5.0775e-16 0)
(3 -1.13503e-15 0)
(3 -9.30596e-16 0)
(3 1.42671e-17 0)
(3 6.07561e-17 0)
(3 3.3367e-16 0)
(3 4.5595e-16 0)
(3 5.96993e-16 0)
(3 1.36709e-15 0)
(3 1.83901e-15 0)
(3 1.14221e-15 0)
(3 6.51852e-16 0)
(3 5.86956e-16 0)
(3 7.09804e-16 0)
(3 8.65976e-16 0)
(3 1.01287e-15 0)
(3 6.42229e-16 0)
(3 2.36763e-16 0)
(3 3.07439e-16 0)
(3 7.90621e-16 0)
(3 1.34161e-15 0)
(3 1.37878e-15 0)
(3 1.14726e-15 0)
(3 1.20291e-15 0)
(3 1.05886e-15 0)
(3 1.45754e-15 0)
(3 1.65887e-15 0)
(3 2.17317e-15 0)
(3 2.32172e-15 0)
(3 9.96923e-16 0)
(3 3.81752e-16 0)
(3 1.18219e-18 0)
(3 1.19529e-15 0)
(3 7.81192e-16 0)
(3 -2.83363e-16 0)
(3 8.5371e-16 0)
(3 1.93451e-15 0)
(3 8.22468e-16 0)
(3 4.16408e-16 0)
(3 6.25949e-16 0)
(3 5.74304e-16 0)
(3 2.89446e-16 0)
(3 1.05908e-16 0)
(3 -4.23417e-16 0)
(3 1.33025e-16 0)
(3 1.31597e-15 0)
(3 1.03954e-15 0)
(3 4.66283e-16 0)
(3 4.99139e-16 0)
(3 3.56735e-16 0)
(3 2.26237e-17 0)
(3 -3.84255e-16 0)
(3 -5.77183e-16 0)
(3 -4.3789e-16 0)
(3 -1.33075e-15 0)
(3 -1.26047e-15 0)
(3 -7.77225e-16 0)
(3 -5.393e-16 0)
(3 -1.07987e-15 0)
(3 -8.51167e-16 0)
(3 -4.79548e-16 0)
(3 3.78767e-16 0)
(3 1.29401e-15 0)
(3 1.31548e-15 0)
(3 1.14509e-15 0)
(3 1.09081e-15 0)
(3 1.16906e-15 0)
(3 1.53167e-15 0)
(3 1.86703e-15 0)
(3 1.94458e-15 0)
(3 9.06993e-16 0)
(3 4.37526e-16 0)
(3 2.85603e-16 0)
(3 2.45979e-16 0)
(3 -2.45577e-16 0)
(3 -3.16257e-16 0)
(3 1.03488e-16 0)
(3 2.72444e-16 0)
(3 6.12684e-16 0)
(3 1.3908e-15 0)
(3 1.75411e-15 0)
(3 1.2963e-15 0)
(3 1.23652e-15 0)
(3 1.34811e-15 0)
(3 1.04826e-15 0)
(3 5.88943e-16 0)
(3 2.58411e-16 0)
(3 -5.77203e-17 0)
(3 -4.71186e-16 0)
(3 -1.00807e-15 0)
(3 -8.811e-16 0)
(3 -1.06814e-15 0)
(3 -1.26984e-15 0)
(3 -1.67084e-15 0)
(3 -2.35701e-15 0)
(3 -2.52711e-15 0)
(3 -2.87537e-15 0)
(3 -3.22766e-15 0)
(3 -3.57292e-15 0)
(3 -1.98762e-16 0)
(3 -3.26104e-16 0)
(3 -3.38731e-16 0)
(3 -3.72923e-16 0)
(3 -1.02777e-16 0)
(3 9.02469e-17 0)
(3 4.70499e-16 0)
(3 6.30721e-16 0)
(3 4.57108e-16 0)
(3 7.55321e-16 0)
(3 1.40136e-15 0)
(3 1.37835e-15 0)
(3 1.12731e-15 0)
(3 5.15983e-16 0)
(3 3.02782e-16 0)
(3 4.37865e-16 0)
(3 1.48935e-15 0)
(3 1.9627e-15 0)
(3 1.61706e-15 0)
(3 1.65415e-15 0)
(3 1.79743e-15 0)
(3 1.78066e-15 0)
(3 9.94584e-16 0)
(3 7.14686e-16 0)
(3 8.15265e-16 0)
(3 2.06405e-15 0)
(3 2.42059e-15 0)
(3 1.82609e-15 0)
(3 9.06708e-16 0)
(3 -1.42e-16 0)
(3 -2.12595e-16 0)
(3 1.03134e-15 0)
(3 2.07685e-15 0)
(3 2.03564e-15 0)
(3 2.06612e-15 0)
(3 1.32546e-15 0)
(3 1.61093e-16 0)
(3 -2.36751e-16 0)
(3 -2.97544e-16 0)
(3 5.91845e-16 0)
(3 6.74676e-16 0)
(3 1.11159e-15 0)
(3 2.28857e-15 0)
(3 2.63158e-15 0)
(3 2.1282e-15 0)
(3 1.53727e-15 0)
(3 6.90269e-16 0)
(3 1.85249e-16 0)
(3 -1.31885e-16 0)
(3 1.26901e-17 0)
(3 -6.13208e-16 0)
(3 -1.34817e-15 0)
(3 -1.25798e-15 0)
(3 -5.76995e-16 0)
(3 -3.70771e-16 0)
(3 -3.24097e-17 0)
(3 1.26558e-15 0)
(3 1.82696e-15 0)
(3 2.38007e-15 0)
(3 3.07175e-15 0)
(3 3.5869e-15 0)
(3 3.20879e-15 0)
(3 2.56919e-15 0)
(3 1.67031e-15 0)
(3 1.189e-15 0)
(3 1.16315e-15 0)
(3 1.44329e-15 0)
(3 1.49661e-15 0)
(3 1.13289e-15 0)
(3 3.92842e-16 0)
(3 1.82776e-17 0)
(3 -2.6678e-16 0)
(3 -5.71403e-16 0)
(3 -4.08381e-16 0)
(3 -4.94684e-16 0)
(3 -5.52963e-16 0)
(3 -2.52947e-16 0)
(3 1.45622e-16 0)
(3 4.41213e-16 0)
(3 8.10034e-16 0)
(3 1.21855e-15 0)
(3 1.16613e-15 0)
(3 1.03597e-15 0)
(3 1.0117e-15 0)
(3 1.07897e-15 0)
(3 7.94116e-16 0)
(3 -1.46716e-16 0)
(3 -1.28056e-15 0)
(3 -2.02318e-15 0)
(3 -1.77341e-15 0)
(3 -1.52907e-15 0)
(3 -1.67492e-15 0)
(3 -2.27988e-15 0)
(3 -2.43818e-15 0)
(3 -2.73796e-15 0)
(3 -1.50176e-15 0)
(3 -5.12425e-17 0)
(3 9.76103e-17 0)
(3 -2.38928e-16 0)
(3 7.25499e-18 0)
(3 1.62022e-17 0)
(3 -6.71721e-16 0)
(3 -4.57343e-16 0)
(3 1.30681e-16 0)
(3 1.48474e-15 0)
(3 1.78825e-15 0)
(3 2.37417e-15 0)
(3 2.09e-15 0)
(3 1.59823e-15 0)
(3 1.05358e-15 0)
(3 1.16516e-15 0)
(3 1.24846e-15 0)
(3 1.46228e-15 0)
(3 1.40391e-15 0)
(3 2.36504e-15 0)
(3 2.43008e-15 0)
(3 1.74356e-15 0)
(3 9.5122e-16 0)
(3 9.10168e-16 0)
(3 1.54414e-15 0)
(3 5.53696e-16 0)
(3 5.84469e-16 0)
(3 8.50355e-16 0)
(3 4.69361e-16 0)
(3 4.13859e-16 0)
(3 -2.48081e-16 0)
(3 -2.64741e-16 0)
(3 6.17143e-16 0)
(3 6.885e-16 0)
(3 8.56623e-16 0)
(3 7.6032e-16 0)
(3 -7.00347e-16 0)
(3 -1.35839e-15 0)
(3 -1.032e-15 0)
(3 4.91809e-16 0)
(3 1.27916e-15 0)
(3 2.22919e-15 0)
(3 1.35183e-15 0)
(3 1.19137e-15 0)
(3 1.50003e-15 0)
(3 2.30903e-15 0)
(3 1.96559e-15 0)
(3 1.88119e-15 0)
(3 1.84585e-15 0)
(3 1.87575e-15 0)
(3 1.49129e-15 0)
(3 6.79503e-16 0)
(3 1.22872e-15 0)
(3 1.44178e-15 0)
(3 5.00223e-16 0)
(3 7.59256e-17 0)
(3 3.70553e-16 0)
(3 6.50485e-16 0)
(3 1.4299e-15 0)
(3 1.84175e-15 0)
(3 1.72558e-15 0)
(3 1.91081e-15 0)
(3 2.57195e-15 0)
(3 2.53687e-15 0)
(3 1.7226e-15 0)
(3 5.98963e-16 0)
(3 4.20754e-16 0)
(3 8.29389e-16 0)
(3 9.78404e-16 0)
(3 3.34875e-16 0)
(3 8.70314e-16 0)
(3 7.72753e-16 0)
(3 2.4011e-16 0)
(3 -2.69637e-16 0)
(3 -4.50087e-16 0)
(3 -8.19694e-16 0)
(3 -1.02269e-15 0)
(3 -3.25177e-16 0)
(3 6.93189e-16 0)
(3 1.34413e-15 0)
(3 1.07773e-15 0)
(3 3.74907e-16 0)
(3 4.4184e-16 0)
(3 9.31108e-16 0)
(3 4.57385e-16 0)
(3 -4.62458e-17 0)
(3 -5.87624e-16 0)
(3 -6.28721e-16 0)
(3 -1.55047e-15 0)
(3 -1.49439e-15 0)
(3 -1.38043e-15 0)
(3 -1.25188e-15 0)
(3 -1.52822e-15 0)
(3 -2.12895e-15 0)
(3 -2.43276e-15 0)
(3 -2.0338e-15 0)
(3 -9.40571e-16 0)
(3 -4.08437e-17 0)
(3 -2.67289e-19 0)
(3 2.91581e-16 0)
(3 5.94265e-17 0)
(3 7.58877e-17 0)
(3 1.05918e-17 0)
(3 -5.11886e-16 0)
(3 -5.34124e-16 0)
(3 -4.92307e-17 0)
(3 8.60268e-17 0)
(3 7.20646e-16 0)
(3 1.06069e-15 0)
(3 1.33917e-15 0)
(3 1.31852e-15 0)
(3 9.46518e-16 0)
(3 1.05989e-15 0)
(3 5.54821e-16 0)
(3 2.48375e-16 0)
(3 1.32699e-15 0)
(3 1.2159e-15 0)
(3 1.51033e-16 0)
(3 3.37901e-16 0)
(3 9.38973e-16 0)
(3 1.22372e-15 0)
(3 9.43055e-16 0)
(3 -6.43435e-16 0)
(3 -1.35149e-15 0)
(3 -1.35487e-15 0)
(3 -1.21758e-15 0)
(3 -4.16154e-16 0)
(3 1.06156e-16 0)
(3 1.5516e-16 0)
(3 -2.1338e-16 0)
(3 -1.01455e-16 0)
(3 -5.80472e-17 0)
(3 -6.69532e-16 0)
(3 -9.77374e-16 0)
(3 -7.48378e-16 0)
(3 6.14106e-17 0)
(3 2.07735e-15 0)
(3 3.57382e-15 0)
(3 4.1912e-15 0)
(3 3.7575e-15 0)
(3 2.99513e-15 0)
(3 2.99724e-15 0)
(3 2.37783e-15 0)
(3 2.37273e-15 0)
(3 2.68922e-15 0)
(3 2.83975e-15 0)
(3 1.40968e-15 0)
(3 7.22663e-16 0)
(3 2.09051e-15 0)
(3 2.8655e-15 0)
(3 2.95921e-15 0)
(3 1.84081e-15 0)
(3 -1.73737e-16 0)
(3 -4.61411e-16 0)
(3 -2.34187e-16 0)
(3 -9.36489e-17 0)
(3 -3.11427e-16 0)
(3 -6.47976e-16 0)
(3 -6.43094e-16 0)
(3 -4.05084e-16 0)
(3 -1.6948e-16 0)
(3 1.15763e-16 0)
(3 5.93925e-16 0)
(3 1.34088e-15 0)
(3 1.46977e-15 0)
(3 2.37206e-15 0)
(3 3.06984e-15 0)
(3 1.6591e-15 0)
(3 5.26874e-17 0)
(3 -4.72302e-16 0)
(3 -3.52107e-16 0)
(3 7.62829e-16 0)
(3 1.70125e-15 0)
(3 1.13474e-15 0)
(3 5.76632e-16 0)
(3 5.06788e-16 0)
(3 5.70638e-16 0)
(3 5.37044e-16 0)
(3 4.14449e-16 0)
(3 4.90083e-16 0)
(3 4.16055e-16 0)
(3 -2.77011e-17 0)
(3 -8.69135e-16 0)
(3 -1.71134e-15 0)
(3 -1.87026e-15 0)
(3 -9.02676e-16 0)
(3 -3.07598e-16 0)
(3 -9.65474e-16 0)
(3 -1.04653e-15 0)
(3 -1.39211e-15 0)
(3 -1.78096e-15 0)
(3 -2.02354e-15 0)
(3 -1.96267e-15 0)
(3 -1.64132e-16 0)
(3 -4.01548e-16 0)
(3 -3.85178e-16 0)
(3 -2.42623e-16 0)
(3 6.91285e-17 0)
(3 2.02859e-16 0)
(3 2.02671e-16 0)
(3 -6.23175e-16 0)
(3 -5.87565e-16 0)
(3 -3.61047e-16 0)
(3 -1.07849e-16 0)
(3 1.77822e-16 0)
(3 2.60684e-16 0)
(3 5.30042e-16 0)
(3 8.72417e-16 0)
(3 7.15529e-16 0)
(3 5.98735e-16 0)
(3 5.35394e-17 0)
(3 -4.5024e-16 0)
(3 3.25524e-16 0)
(3 1.18794e-15 0)
(3 1.5102e-15 0)
(3 1.46191e-15 0)
(3 9.44632e-16 0)
(3 8.2576e-16 0)
(3 5.26051e-16 0)
(3 9.98981e-18 0)
(3 -2.22454e-16 0)
(3 1.07659e-16 0)
(3 4.9987e-16 0)
(3 8.29866e-16 0)
(3 6.61098e-16 0)
(3 -4.15134e-16 0)
(3 -8.85262e-16 0)
(3 -4.98714e-16 0)
(3 8.58796e-16 0)
(3 1.4017e-15 0)
(3 9.61401e-16 0)
(3 4.05941e-16 0)
(3 1.26348e-15 0)
(3 1.40448e-15 0)
(3 3.16982e-15 0)
(3 4.01387e-15 0)
(3 4.41718e-15 0)
(3 3.25445e-15 0)
(3 3.12805e-15 0)
(3 2.64034e-15 0)
(3 2.3147e-15 0)
(3 2.65069e-15 0)
(3 2.28138e-15 0)
(3 1.23921e-15 0)
(3 5.75679e-16 0)
(3 1.61731e-16 0)
(3 6.99024e-16 0)
(3 9.83602e-16 0)
(3 7.55721e-16 0)
(3 9.74646e-16 0)
(3 2.48395e-16 0)
(3 -6.20058e-16 0)
(3 -6.47423e-16 0)
(3 -1.17313e-15 0)
(3 -9.66156e-16 0)
(3 -7.93854e-16 0)
(3 -4.61465e-16 0)
(3 -6.27625e-17 0)
(3 3.59362e-16 0)
(3 9.61502e-16 0)
(3 1.82505e-15 0)
(3 3.04931e-15 0)
(3 2.68675e-15 0)
(3 1.50547e-15 0)
(3 9.57803e-16 0)
(3 6.2594e-16 0)
(3 -4.80613e-16 0)
(3 -1.37281e-17 0)
(3 3.17519e-16 0)
(3 5.25782e-16 0)
(3 -1.99318e-17 0)
(3 -6.52338e-16 0)
(3 2.69023e-16 0)
(3 7.10452e-16 0)
(3 2.49597e-16 0)
(3 5.59598e-17 0)
(3 1.5958e-16 0)
(3 -4.27565e-16 0)
(3 -5.33367e-16 0)
(3 -1.15008e-15 0)
(3 -1.92337e-15 0)
(3 -2.16639e-15 0)
(3 -2.405e-15 0)
(3 -2.04598e-15 0)
(3 -3.42395e-16 0)
(3 1.33281e-16 0)
(3 -3.59503e-16 0)
(3 -1.3486e-15 0)
(3 -1.71089e-15 0)
(3 2.45055e-16 0)
(3 2.76682e-16 0)
(3 2.62723e-18 0)
(3 4.5022e-16 0)
(3 6.72597e-16 0)
(3 3.32293e-16 0)
(3 2.21745e-16 0)
(3 -5.45455e-16 0)
(3 -1.07185e-15 0)
(3 -6.74074e-16 0)
(3 -1.41047e-15 0)
(3 -1.36637e-15 0)
(3 -1.56465e-15 0)
(3 -6.09963e-16 0)
(3 6.68496e-16 0)
(3 7.37388e-16 0)
(3 3.36303e-16 0)
(3 3.79632e-16 0)
(3 3.09597e-16 0)
(3 3.71378e-16 0)
(3 1.25082e-15 0)
(3 1.33868e-15 0)
(3 1.45634e-15 0)
(3 1.27773e-15 0)
(3 1.71132e-15 0)
(3 2.40129e-15 0)
(3 1.77434e-15 0)
(3 1.17034e-15 0)
(3 1.15958e-15 0)
(3 1.37742e-15 0)
(3 1.59125e-15 0)
(3 9.34385e-16 0)
(3 1.61486e-16 0)
(3 1.03589e-17 0)
(3 -2.64276e-16 0)
(3 1.22118e-16 0)
(3 8.99628e-16 0)
(3 1.36892e-15 0)
(3 3.46483e-16 0)
(3 -2.05856e-16 0)
(3 -7.88655e-16 0)
(3 4.44937e-16 0)
(3 1.70987e-15 0)
(3 3.01762e-15 0)
(3 2.77265e-15 0)
(3 2.80145e-15 0)
(3 2.61768e-15 0)
(3 1.38673e-15 0)
(3 1.00347e-15 0)
(3 1.21368e-15 0)
(3 1.5407e-15 0)
(3 5.47375e-16 0)
(3 -6.11322e-16 0)
(3 -8.62213e-16 0)
(3 -5.36988e-16 0)
(3 -1.12882e-16 0)
(3 3.01268e-16 0)
(3 2.11819e-16 0)
(3 -1.13319e-15 0)
(3 -2.22038e-15 0)
(3 -2.78435e-15 0)
(3 -2.02815e-15 0)
(3 -1.40726e-15 0)
(3 -1.10244e-15 0)
(3 -4.68239e-16 0)
(3 -6.72289e-16 0)
(3 -4.73015e-16 0)
(3 4.68703e-16 0)