/*--------------------------------*- C++ -*----------------------------------*\
  =========                 |
  \\      /  F ield         | OpenFOAM: The Open Source CFD Toolbox
   \\    /   O peration     | Website:  https://openfoam.org
    \\  /    A nd           | Version:  7
     \\/     M anipulation  |
\*---------------------------------------------------------------------------*/
FoamFile
{
    version     2.0;
    format      ascii;
    class       volVectorField;
    location    "1.3";
    object      U;
}
// * * * * * * * * * * * * * * * * * * * * * * * * * * * * * * * * * * * * * //

dimensions      [0 1 -1 0 0 0 0];

internalField   nonuniform List<vector> 
73728
(
(3 -1.04665e-17 0)
(3 1.00111e-17 0)
(3 1.00983e-17 0)
(3 -8.28171e-18 0)
(3 7.78518e-17 0)
(3 5.94872e-17 0)
(3 1.69904e-16 0)
(3 1.88893e-16 0)
(3 2.44947e-16 0)
(3 3.57473e-16 0)
(3 -1.63974e-16 0)
(3 -2.44549e-16 0)
(3 1.01217e-16 0)
(3 1.6968e-16 0)
(3 -7.31383e-17 0)
(3 -1.33234e-16 0)
(3 4.04831e-16 0)
(3 1.00765e-15 0)
(3 2.21726e-15 0)
(3 2.27565e-15 0)
(3 1.905e-15 0)
(3 1.53516e-15 0)
(3 1.53428e-15 0)
(3 1.34786e-15 0)
(3 1.50846e-15 0)
(3 1.17614e-15 0)
(3 1.07376e-16 0)
(3 -4.32021e-16 0)
(3 -3.90582e-16 0)
(3 -4.14358e-16 0)
(3 -2.90637e-16 0)
(3 1.76051e-17 0)
(3 9.31764e-17 0)
(3 1.20108e-15 0)
(3 1.55111e-15 0)
(3 1.61288e-15 0)
(3 1.20753e-15 0)
(3 8.01156e-16 0)
(3 5.86124e-16 0)
(3 7.37111e-16 0)
(3 9.92001e-16 0)
(3 5.76895e-16 0)
(3 -1.05539e-15 0)
(3 -1.93702e-15 0)
(3 -9.97476e-16 0)
(3 -2.7791e-16 0)
(3 9.94466e-16 0)
(3 2.68559e-16 0)
(3 5.52612e-17 0)
(3 -2.1689e-16 0)
(3 -5.80977e-16 0)
(3 5.39793e-16 0)
(3 1.69392e-15 0)
(3 1.23185e-15 0)
(3 7.15178e-16 0)
(3 1.55428e-16 0)
(3 -1.37878e-15 0)
(3 -2.03427e-15 0)
(3 -2.36365e-15 0)
(3 -2.42998e-15 0)
(3 -1.95192e-15 0)
(3 -8.60713e-16 0)
(3 1.20416e-16 0)
(3 2.03452e-16 0)
(3 -6.57898e-17 0)
(3 -8.93517e-16 0)
(3 -1.33693e-15 0)
(3 -9.58458e-16 0)
(3 -2.22452e-16 0)
(3 -1.10516e-15 0)
(3 -8.29218e-16 0)
(3 7.56547e-16 0)
(3 1.13177e-15 0)
(3 1.27061e-15 0)
(3 5.97681e-16 0)
(3 1.1227e-15 0)
(3 1.17335e-15 0)
(3 1.00505e-15 0)
(3 2.92808e-16 0)
(3 -3.71176e-16 0)
(3 -1.11664e-15 0)
(3 -1.03221e-15 0)
(3 -4.41694e-16 0)
(3 2.45271e-16 0)
(3 1.08014e-15 0)
(3 1.54609e-15 0)
(3 1.6316e-15 0)
(3 1.57826e-15 0)
(3 1.25836e-15 0)
(3 1.84528e-15 0)
(3 2.75292e-15 0)
(3 3.68095e-15 0)
(3 2.70487e-15 0)
(3 2.116e-15 0)
(3 2.27284e-15 0)
(3 1.83481e-15 0)
(3 8.2578e-17 0)
(3 2.48847e-16 0)
(3 1.51811e-16 0)
(3 2.00174e-16 0)
(3 2.8292e-16 0)
(3 -2.84683e-16 0)
(3 -7.80613e-16 0)
(3 -6.91838e-16 0)
(3 -5.80303e-16 0)
(3 -1.71177e-17 0)
(3 2.55548e-16 0)
(3 1.8506e-16 0)
(3 1.53872e-15 0)
(3 1.95636e-15 0)
(3 1.39269e-15 0)
(3 1.58129e-16 0)
(3 3.71484e-16 0)
(3 1.22867e-15 0)
(3 1.99077e-15 0)
(3 2.63892e-15 0)
(3 2.27042e-15 0)
(3 1.51455e-15 0)
(3 7.98392e-16 0)
(3 7.97281e-16 0)
(3 1.36621e-15 0)
(3 1.69946e-15 0)
(3 1.61603e-15 0)
(3 1.26591e-15 0)
(3 1.16609e-15 0)
(3 1.20043e-15 0)
(3 5.41345e-16 0)
(3 3.83506e-16 0)
(3 2.56662e-17 0)
(3 4.28084e-16 0)
(3 1.30567e-15 0)
(3 1.49896e-15 0)
(3 3.23523e-16 0)
(3 -1.98418e-16 0)
(3 -7.57817e-16 0)
(3 -2.76988e-16 0)
(3 8.1058e-18 0)
(3 -6.07303e-16 0)
(3 -2.03697e-15 0)
(3 -2.96701e-15 0)
(3 -2.03134e-15 0)
(3 7.28293e-16 0)
(3 2.05538e-15 0)
(3 2.03071e-15 0)
(3 1.84822e-15 0)
(3 4.9833e-16 0)
(3 -2.52743e-16 0)
(3 4.94543e-16 0)
(3 2.12494e-15 0)
(3 1.87253e-15 0)
(3 1.69183e-15 0)
(3 1.47912e-15 0)
(3 -6.74277e-17 0)
(3 -1.56494e-15 0)
(3 -3.12263e-15 0)
(3 -3.2624e-15 0)
(3 -1.57643e-15 0)
(3 6.71381e-16 0)
(3 1.61207e-15 0)
(3 1.03575e-15 0)
(3 1.37534e-16 0)
(3 -1.66891e-15 0)
(3 -2.04271e-15 0)
(3 -2.09193e-15 0)
(3 -1.38003e-15 0)
(3 -2.01125e-15 0)
(3 -7.36043e-16 0)
(3 7.18926e-16 0)
(3 4.02122e-16 0)
(3 -1.6596e-16 0)
(3 -7.7302e-16 0)
(3 -5.34088e-16 0)
(3 7.98096e-17 0)
(3 1.60827e-17 0)
(3 -2.3774e-16 0)
(3 -1.48222e-15 0)
(3 -2.07243e-15 0)
(3 -1.09298e-15 0)
(3 -2.00854e-16 0)
(3 1.62559e-15 0)
(3 3.77068e-15 0)
(3 4.07431e-15 0)
(3 3.6887e-15 0)
(3 3.74315e-15 0)
(3 3.00526e-15 0)
(3 3.00081e-15 0)
(3 4.53722e-15 0)
(3 4.94886e-15 0)
(3 4.53865e-15 0)
(3 3.83799e-15 0)
(3 2.61594e-15 0)
(3 1.99916e-15 0)
(3 7.30191e-17 0)
(3 1.14091e-16 0)
(3 4.69434e-17 0)
(3 2.45886e-16 0)
(3 2.25721e-16 0)
(3 8.99074e-17 0)
(3 -2.05773e-16 0)
(3 -1.22685e-15 0)
(3 -1.7362e-15 0)
(3 -4.22105e-16 0)
(3 4.59128e-16 0)
(3 9.07823e-16 0)
(3 1.83058e-15 0)
(3 2.38969e-15 0)
(3 2.23344e-15 0)
(3 1.63304e-15 0)
(3 9.35019e-16 0)
(3 8.90176e-16 0)
(3 1.59781e-15 0)
(3 2.50324e-15 0)
(3 2.53633e-15 0)
(3 1.4474e-15 0)
(3 9.19789e-16 0)
(3 1.71014e-15 0)
(3 1.54828e-15 0)
(3 1.31916e-15 0)
(3 1.76507e-15 0)
(3 1.47651e-15 0)
(3 1.18878e-15 0)
(3 -3.07799e-17 0)
(3 -1.50556e-15 0)
(3 -2.04495e-15 0)
(3 -1.85386e-15 0)
(3 -1.48696e-15 0)
(3 -1.42638e-15 0)
(3 -1.80761e-15 0)
(3 -2.2626e-15 0)
(3 -2.15798e-15 0)
(3 -1.73108e-15 0)
(3 -1.66774e-15 0)
(3 -1.78324e-15 0)
(3 -2.35262e-15 0)
(3 -2.93806e-15 0)
(3 -2.60177e-15 0)
(3 -2.76616e-15 0)
(3 -2.47052e-15 0)
(3 5.42792e-16 0)
(3 2.95093e-15 0)
(3 3.20989e-15 0)
(3 2.50231e-15 0)
(3 2.55288e-15 0)
(3 2.71133e-15 0)
(3 2.52954e-15 0)
(3 2.76127e-15 0)
(3 2.68366e-15 0)
(3 1.95225e-15 0)
(3 1.36574e-15 0)
(3 7.71076e-16 0)
(3 -3.67875e-16 0)
(3 -6.18973e-16 0)
(3 7.94447e-16 0)
(3 1.01806e-15 0)
(3 6.69343e-16 0)
(3 -2.00591e-17 0)
(3 -9.51415e-16 0)
(3 -1.92263e-15 0)
(3 -2.21116e-15 0)
(3 -2.43645e-15 0)
(3 -3.64792e-15 0)
(3 -3.6566e-15 0)
(3 -3.10346e-15 0)
(3 -2.24002e-15 0)
(3 -2.03511e-15 0)
(3 -6.81021e-16 0)
(3 4.6181e-16 0)
(3 4.91466e-16 0)
(3 2.51734e-17 0)
(3 3.26493e-16 0)
(3 4.67957e-16 0)
(3 5.563e-16 0)
(3 1.21824e-15 0)
(3 1.33984e-15 0)
(3 1.44561e-15 0)
(3 1.23467e-15 0)
(3 1.81029e-15 0)
(3 2.70588e-15 0)
(3 3.00173e-15 0)
(3 3.53576e-15 0)
(3 3.9227e-15 0)
(3 3.87548e-15 0)
(3 4.69189e-15 0)
(3 6.11084e-15 0)
(3 6.26573e-15 0)
(3 6.09765e-15 0)
(3 4.34787e-15 0)
(3 3.65028e-15 0)
(3 5.52553e-17 0)
(3 8.51728e-17 0)
(3 2.40028e-16 0)
(3 3.1246e-16 0)
(3 4.48359e-16 0)
(3 1.1915e-15 0)
(3 1.7231e-15 0)
(3 1.16417e-15 0)
(3 5.75712e-16 0)
(3 1.04254e-17 0)
(3 -3.7836e-16 0)
(3 -7.42557e-18 0)
(3 4.39125e-16 0)
(3 5.99574e-16 0)
(3 5.52347e-16 0)
(3 5.18878e-16 0)
(3 2.0845e-16 0)
(3 4.27722e-16 0)
(3 6.43299e-16 0)
(3 1.10594e-15 0)
(3 2.07098e-15 0)
(3 2.46525e-15 0)
(3 2.4441e-15 0)
(3 2.25412e-15 0)
(3 1.99473e-15 0)
(3 7.23528e-16 0)
(3 -3.27095e-16 0)
(3 -1.7133e-16 0)
(3 2.9879e-16 0)
(3 1.30735e-16 0)
(3 5.25521e-16 0)
(3 9.56227e-17 0)
(3 -1.35024e-15 0)
(3 -1.40438e-15 0)
(3 -1.36935e-15 0)
(3 -1.74796e-15 0)
(3 -1.16129e-15 0)
(3 -6.11991e-16 0)
(3 -2.70471e-16 0)
(3 -3.45165e-16 0)
(3 -3.94468e-16 0)
(3 -1.12915e-15 0)
(3 -1.48219e-15 0)
(3 -1.45925e-15 0)
(3 -1.98522e-15 0)
(3 -2.69631e-15 0)
(3 -2.15601e-15 0)
(3 8.70678e-17 0)
(3 9.16993e-16 0)
(3 2.71785e-15 0)
(3 3.28786e-15 0)
(3 4.29139e-15 0)
(3 3.58986e-15 0)
(3 3.90537e-15 0)
(3 3.70538e-15 0)
(3 2.93894e-15 0)
(3 2.74512e-15 0)
(3 2.25703e-15 0)
(3 3.22667e-15 0)
(3 3.09218e-15 0)
(3 1.75562e-15 0)
(3 1.10658e-15 0)
(3 4.73948e-16 0)
(3 -4.66253e-16 0)
(3 -9.47052e-16 0)
(3 -2.11954e-15 0)
(3 -3.33533e-15 0)
(3 -3.66522e-15 0)
(3 -4.40334e-15 0)
(3 -4.0593e-15 0)
(3 -3.79291e-15 0)
(3 -2.80223e-15 0)
(3 -2.4247e-15 0)
(3 -3.48854e-16 0)
(3 1.49997e-15 0)
(3 1.46121e-15 0)
(3 2.10528e-16 0)
(3 -5.45909e-16 0)
(3 1.15662e-15 0)
(3 1.83087e-15 0)
(3 2.13729e-15 0)
(3 1.97475e-15 0)
(3 9.3095e-16 0)
(3 4.24572e-16 0)
(3 5.80135e-16 0)
(3 8.98681e-16 0)
(3 4.0182e-16 0)
(3 9.57272e-16 0)
(3 2.6263e-15 0)
(3 4.60567e-15 0)
(3 5.15563e-15 0)
(3 5.40948e-15 0)
(3 4.63036e-15 0)
(3 3.27722e-15 0)
(3 2.88935e-15 0)
(3 2.24046e-15 0)
(3 8.7577e-17 0)
(3 2.39104e-16 0)
(3 7.64057e-16 0)
(3 7.25971e-16 0)
(3 8.4359e-16 0)
(3 9.91438e-16 0)
(3 1.49383e-15 0)
(3 1.8259e-15 0)
(3 1.51584e-15 0)
(3 -1.74579e-16 0)
(3 -5.44517e-16 0)
(3 -3.21131e-16 0)
(3 -4.08747e-16 0)
(3 -1.03116e-15 0)
(3 -1.75086e-15 0)
(3 -2.582e-15 0)
(3 -1.69375e-15 0)
(3 -1.02789e-15 0)
(3 -1.12446e-15 0)
(3 -8.03346e-16 0)
(3 3.31558e-16 0)
(3 1.28696e-15 0)
(3 1.2774e-15 0)
(3 2.95418e-16 0)
(3 -1.4135e-16 0)
(3 -4.04352e-16 0)
(3 -1.26423e-15 0)
(3 -1.3225e-15 0)
(3 2.3515e-17 0)
(3 1.36641e-15 0)
(3 2.68005e-15 0)
(3 2.5732e-15 0)
(3 1.39404e-15 0)
(3 7.28632e-16 0)
(3 6.44718e-16 0)
(3 7.25543e-16 0)
(3 1.12365e-15 0)
(3 1.08659e-15 0)
(3 6.55261e-16 0)
(3 1.37144e-16 0)
(3 -4.68283e-17 0)
(3 -5.15559e-16 0)
(3 -1.64094e-15 0)
(3 -2.84592e-15 0)
(3 -3.13759e-15 0)
(3 -3.79665e-15 0)
(3 -5.09329e-15 0)
(3 -3.77955e-15 0)
(3 -2.50805e-15 0)
(3 -1.30739e-15 0)
(3 -1.25903e-15 0)
(3 2.15972e-16 0)
(3 1.88475e-15 0)
(3 2.26833e-15 0)
(3 2.14983e-15 0)
(3 2.95121e-15 0)
(3 4.4687e-15 0)
(3 4.79362e-15 0)
(3 4.08564e-15 0)
(3 2.8239e-15 0)
(3 1.43075e-15 0)
(3 8.50679e-16 0)
(3 -1.52516e-16 0)
(3 -5.18179e-16 0)
(3 -4.54299e-16 0)
(3 -5.63708e-16 0)
(3 -8.46935e-16 0)
(3 -6.3436e-16 0)
(3 -2.57249e-16 0)
(3 -1.80711e-15 0)
(3 -2.19058e-15 0)
(3 -2.19738e-15 0)
(3 -1.88358e-15 0)
(3 -1.03624e-15 0)
(3 -3.49699e-17 0)
(3 9.132e-16 0)
(3 1.31154e-15 0)
(3 8.36201e-16 0)
(3 8.41707e-16 0)
(3 9.42643e-16 0)
(3 1.07671e-15 0)
(3 1.67853e-15 0)
(3 1.61947e-15 0)
(3 1.85939e-15 0)
(3 1.69065e-15 0)
(3 7.64208e-16 0)
(3 -3.70004e-16 0)
(3 -3.20228e-16 0)
(3 8.27782e-16 0)
(3 3.13587e-15 0)
(3 3.23565e-15 0)
(3 1.79664e-15 0)
(3 6.37365e-16 0)
(3 1.21008e-15 0)
(3 1.89379e-15 0)
(3 2.30531e-15 0)
(3 1.66353e-17 0)
(3 -1.19252e-16 0)
(3 5.20502e-18 0)
(3 6.21754e-17 0)
(3 -8.16747e-17 0)
(3 -3.29544e-16 0)
(3 -1.31807e-16 0)
(3 5.06983e-17 0)
(3 2.33888e-16 0)
(3 1.29443e-16 0)
(3 -1.63922e-16 0)
(3 -7.79977e-16 0)
(3 -1.28594e-15 0)
(3 -2.24963e-15 0)
(3 -2.67475e-15 0)
(3 -2.95987e-15 0)
(3 -2.86862e-15 0)
(3 -3.4055e-15 0)
(3 -3.9725e-15 0)
(3 -4.06166e-15 0)
(3 -3.6278e-15 0)
(3 -2.24206e-15 0)
(3 -9.59917e-16 0)
(3 -7.31304e-16 0)
(3 -7.63724e-16 0)
(3 -9.51359e-16 0)
(3 -8.91656e-16 0)
(3 -2.63382e-16 0)
(3 9.24776e-16 0)
(3 2.35751e-15 0)
(3 4.25302e-15 0)
(3 4.48434e-15 0)
(3 4.93625e-15 0)
(3 2.8203e-15 0)
(3 5.20939e-16 0)
(3 2.25861e-16 0)
(3 8.74831e-16 0)
(3 1.12518e-15 0)
(3 9.06912e-16 0)
(3 1.86198e-16 0)
(3 -5.6968e-16 0)
(3 -1.86873e-15 0)
(3 -2.68588e-15 0)
(3 -3.36341e-15 0)
(3 -3.93057e-15 0)
(3 -4.61246e-15 0)
(3 -5.74461e-15 0)
(3 -6.55573e-15 0)
(3 -6.33758e-15 0)
(3 -6.06547e-15 0)
(3 -5.54302e-15 0)
(3 -3.62546e-15 0)
(3 -2.24675e-15 0)
(3 -1.43031e-15 0)
(3 -5.61987e-16 0)
(3 9.30972e-16 0)
(3 3.78135e-15 0)
(3 5.24642e-15 0)
(3 5.03516e-15 0)
(3 4.13243e-15 0)
(3 2.11275e-15 0)
(3 5.63827e-16 0)
(3 -4.0685e-16 0)
(3 -1.25611e-15 0)
(3 -9.0702e-16 0)
(3 -9.21473e-16 0)
(3 -7.19335e-16 0)
(3 -6.83353e-16 0)
(3 -1.14092e-15 0)
(3 -2.49646e-15 0)
(3 -2.6788e-15 0)
(3 -2.54528e-15 0)
(3 -2.79803e-15 0)
(3 -1.36841e-15 0)
(3 -8.76328e-16 0)
(3 6.3369e-17 0)
(3 1.04895e-15 0)
(3 1.62411e-15 0)
(3 1.89526e-15 0)
(3 2.046e-15 0)
(3 2.15448e-15 0)
(3 2.78052e-15 0)
(3 3.89287e-15 0)
(3 3.7161e-15 0)
(3 3.50825e-15 0)
(3 2.65648e-15 0)
(3 2.02238e-15 0)
(3 1.07086e-15 0)
(3 5.80412e-16 0)
(3 1.71695e-15 0)
(3 2.90734e-15 0)
(3 1.73547e-15 0)
(3 6.92804e-16 0)
(3 6.24271e-16 0)
(3 1.01056e-15 0)
(3 1.58643e-15 0)
(3 6.8326e-17 0)
(3 -4.47799e-17 0)
(3 -8.05547e-16 0)
(3 -1.12883e-15 0)
(3 -1.06469e-15 0)
(3 -6.27475e-16 0)
(3 -5.22145e-16 0)
(3 -4.54028e-16 0)
(3 2.54376e-16 0)
(3 -6.26994e-17 0)
(3 2.24994e-17 0)
(3 -9.87294e-16 0)
(3 -9.97994e-16 0)
(3 -1.13351e-15 0)
(3 -8.95362e-16 0)
(3 -1.01003e-15 0)
(3 -1.38792e-15 0)
(3 -2.49075e-15 0)
(3 -3.78484e-15 0)
(3 -4.31662e-15 0)
(3 -3.85028e-15 0)
(3 -3.26449e-15 0)
(3 -1.78179e-15 0)
(3 -1.04745e-15 0)
(3 1.69307e-16 0)
(3 3.49656e-16 0)
(3 6.44405e-16 0)
(3 4.86574e-16 0)
(3 2.97673e-16 0)
(3 7.91997e-16 0)
(3 2.58754e-15 0)
(3 3.73744e-15 0)
(3 3.71858e-15 0)
(3 3.21833e-15 0)
(3 3.00316e-15 0)
(3 2.5431e-15 0)
(3 2.95226e-16 0)
(3 -2.12228e-16 0)
(3 -3.63514e-16 0)
(3 -7.83062e-16 0)
(3 -9.21933e-16 0)
(3 -7.96758e-16 0)
(3 -9.95941e-16 0)
(3 -1.23245e-15 0)
(3 -1.90836e-15 0)
(3 -2.11464e-15 0)
(3 -3.00473e-15 0)
(3 -4.10608e-15 0)
(3 -3.49185e-15 0)
(3 -3.02993e-15 0)
(3 -2.43927e-15 0)
(3 -1.51541e-15 0)
(3 -7.5246e-16 0)
(3 -7.51211e-17 0)
(3 2.26428e-16 0)
(3 5.24389e-16 0)
(3 8.37373e-16 0)
(3 2.49753e-15 0)
(3 3.46952e-15 0)
(3 3.24432e-15 0)
(3 2.53203e-15 0)
(3 1.70435e-15 0)
(3 1.46017e-15 0)
(3 2.78103e-16 0)
(3 -2.03219e-16 0)
(3 -3.09835e-16 0)
(3 -1.17308e-15 0)
(3 -2.21459e-15 0)
(3 -3.15218e-15 0)
(3 -2.91452e-15 0)
(3 -2.39658e-15 0)
(3 -1.59283e-15 0)
(3 -1.28199e-15 0)
(3 -1.21187e-15 0)
(3 -1.1953e-15 0)
(3 -9.6466e-16 0)
(3 -9.27237e-16 0)
(3 -6.99084e-16 0)
(3 3.03868e-16 0)
(3 6.67325e-16 0)
(3 9.15307e-16 0)
(3 1.33406e-15 0)
(3 1.57162e-15 0)
(3 1.67426e-15 0)
(3 2.47999e-15 0)
(3 3.12142e-15 0)
(3 2.66469e-15 0)
(3 5.37763e-16 0)
(3 -1.26975e-16 0)
(3 -5.85661e-16 0)
(3 -4.37599e-16 0)
(3 8.42179e-16 0)
(3 1.14226e-15 0)
(3 1.4293e-15 0)
(3 1.12049e-15 0)
(3 4.71249e-16 0)
(3 -1.04807e-16 0)
(3 -3.14758e-17 0)
(3 -5.80471e-16 0)
(3 -7.62758e-16 0)
(3 -5.98782e-16 0)
(3 -2.25522e-16 0)
(3 7.73367e-17 0)
(3 -1.54061e-16 0)
(3 -2.78384e-16 0)
(3 -4.95614e-16 0)
(3 -5.34955e-16 0)
(3 -5.71283e-16 0)
(3 -7.35362e-16 0)
(3 -6.68645e-16 0)
(3 -5.10397e-16 0)
(3 -2.31376e-16 0)
(3 -5.24859e-16 0)
(3 -3.73058e-16 0)
(3 -1.00829e-15 0)
(3 -1.61189e-15 0)
(3 -2.50406e-15 0)
(3 -2.67407e-15 0)
(3 -2.67272e-15 0)
(3 -3.39819e-15 0)
(3 -3.0587e-15 0)
(3 -1.65645e-15 0)
(3 -1.742e-15 0)
(3 -1.17225e-15 0)
(3 -1.14711e-15 0)
(3 -5.52607e-16 0)
(3 2.08591e-18 0)
(3 -6.26614e-16 0)
(3 -8.67516e-16 0)
(3 1.56158e-16 0)
(3 8.65321e-16 0)
(3 1.422e-15 0)
(3 1.61699e-15 0)
(3 8.11737e-17 0)
(3 -1.19253e-15 0)
(3 -1.5591e-15 0)
(3 -1.60283e-15 0)
(3 -5.83819e-16 0)
(3 7.40199e-17 0)
(3 1.13186e-15 0)
(3 1.57998e-15 0)
(3 7.4584e-16 0)
(3 -2.1865e-16 0)
(3 -6.47556e-16 0)
(3 -7.57325e-16 0)
(3 8.88916e-17 0)
(3 2.19635e-16 0)
(3 3.00998e-16 0)
(3 -1.1186e-16 0)
(3 -2.14494e-16 0)
(3 -8.0353e-16 0)
(3 -1.93455e-15 0)
(3 -1.61066e-15 0)
(3 -1.21556e-15 0)
(3 3.49369e-16 0)
(3 1.8924e-15 0)
(3 2.75156e-15 0)
(3 3.7418e-15 0)
(3 2.90219e-15 0)
(3 2.58254e-15 0)
(3 1.36847e-15 0)
(3 1.20718e-15 0)
(3 1.17567e-15 0)
(3 -1.2098e-16 0)
(3 -1.11914e-15 0)
(3 -1.52644e-15 0)
(3 -1.78577e-15 0)
(3 -1.7237e-15 0)
(3 -1.57324e-15 0)
(3 -1.78878e-15 0)
(3 -1.76755e-15 0)
(3 -1.33347e-15 0)
(3 -8.6845e-16 0)
(3 1.77184e-16 0)
(3 5.1049e-17 0)
(3 -2.98855e-16 0)
(3 4.4924e-17 0)
(3 -3.47795e-16 0)
(3 -7.1295e-16 0)
(3 -5.89976e-16 0)
(3 1.83071e-16 0)
(3 8.43832e-16 0)
(3 1.06672e-15 0)
(3 1.17974e-15 0)
(3 4.70495e-16 0)
(3 -2.67344e-16 0)
(3 -1.06646e-15 0)
(3 -8.55025e-16 0)
(3 4.73601e-16 0)
(3 7.19772e-16 0)
(3 9.24526e-16 0)
(3 7.22489e-16 0)
(3 -3.39914e-17 0)
(3 8.72066e-17 0)
(3 2.02635e-17 0)
(3 3.3012e-16 0)
(3 2.83838e-16 0)
(3 1.20899e-16 0)
(3 7.92099e-18 0)
(3 -3.08343e-16 0)
(3 -6.94425e-16 0)
(3 -6.46225e-16 0)
(3 -1.54557e-15 0)
(3 -2.04623e-15 0)
(3 -2.20075e-15 0)
(3 -1.51241e-15 0)
(3 -9.54738e-16 0)
(3 -6.59337e-16 0)
(3 -1.08669e-16 0)
(3 2.9681e-16 0)
(3 9.82904e-16 0)
(3 3.48734e-16 0)
(3 -9.73447e-16 0)
(3 -1.84834e-15 0)
(3 -2.22445e-15 0)
(3 -2.19333e-15 0)
(3 -2.07095e-15 0)
(3 -1.93012e-15 0)
(3 -1.77513e-15 0)
(3 -1.56671e-15 0)
(3 -1.10334e-15 0)
(3 -2.12004e-15 0)
(3 -2.90995e-15 0)
(3 -2.42261e-15 0)
(3 -1.64003e-15 0)
(3 -1.25227e-15 0)
(3 -2.75085e-16 0)
(3 1.88545e-16 0)
(3 3.85928e-17 0)
(3 -4.24822e-16 0)
(3 -8.37087e-16 0)
(3 -1.19088e-15 0)
(3 -1.0303e-15 0)
(3 -1.30908e-16 0)
(3 9.89442e-16 0)
(3 2.05488e-15 0)
(3 2.62403e-15 0)
(3 2.42861e-15 0)
(3 2.58909e-15 0)
(3 2.52301e-15 0)
(3 2.06008e-15 0)
(3 1.33101e-15 0)
(3 3.91572e-16 0)
(3 -3.87798e-16 0)
(3 -1.09623e-15 0)
(3 -1.46208e-15 0)
(3 -2.13152e-15 0)
(3 -2.90294e-15 0)
(3 -2.48868e-15 0)
(3 -2.25987e-15 0)
(3 -1.84095e-15 0)
(3 -4.32085e-18 0)
(3 1.82459e-15 0)
(3 2.68567e-15 0)
(3 3.01824e-15 0)
(3 3.53775e-15 0)
(3 3.24801e-15 0)
(3 3.42803e-15 0)
(3 4.09829e-15 0)
(3 3.55661e-15 0)
(3 2.50696e-15 0)
(3 1.30087e-15 0)
(3 1.32934e-16 0)
(3 -6.83129e-16 0)
(3 -5.82572e-16 0)
(3 -8.78987e-16 0)
(3 -1.02847e-15 0)
(3 -7.83201e-16 0)
(3 -2.49292e-16 0)
(3 1.27391e-15 0)
(3 1.33695e-15 0)
(3 1.31593e-15 0)
(3 9.68732e-16 0)
(3 4.72258e-16 0)
(3 8.40532e-17 0)
(3 -5.87142e-16 0)
(3 -1.4817e-15 0)
(3 -2.10103e-15 0)
(3 -2.71392e-16 0)
(3 5.89721e-16 0)
(3 2.94094e-16 0)
(3 2.01796e-16 0)
(3 -1.2017e-16 0)
(3 -7.06321e-16 0)
(3 -2.28415e-16 0)
(3 -2.34771e-16 0)
(3 7.97214e-16 0)
(3 1.07583e-15 0)
(3 2.03883e-16 0)
(3 1.52375e-16 0)
(3 6.75041e-16 0)
(3 1.07243e-15 0)
(3 5.92175e-16 0)
(3 -3.6269e-16 0)
(3 -9.46977e-16 0)
(3 -1.22277e-15 0)
(3 -1.16617e-15 0)
(3 -9.59737e-16 0)
(3 -1.31323e-15 0)
(3 -1.43294e-15 0)
(3 -1.31998e-15 0)
(3 -1.16719e-15 0)
(3 -1.58344e-16 0)
(3 4.97614e-16 0)
(3 3.88821e-16 0)
(3 -8.97355e-16 0)
(3 -2.78598e-15 0)
(3 -2.95757e-15 0)
(3 -2.46091e-15 0)
(3 -2.32448e-15 0)
(3 -1.93447e-15 0)
(3 -8.38067e-16 0)
(3 -5.77239e-16 0)
(3 -8.47693e-16 0)
(3 -9.53639e-16 0)
(3 -1.44552e-15 0)
(3 -2.16387e-15 0)
(3 -2.8824e-15 0)
(3 -3.28472e-15 0)
(3 -2.12896e-15 0)
(3 -2.369e-15 0)
(3 -3.30095e-15 0)
(3 -3.41743e-15 0)
(3 -3.41688e-15 0)
(3 -2.76031e-15 0)
(3 -1.91292e-15 0)
(3 -1.48162e-15 0)
(3 -1.28565e-15 0)
(3 -8.31971e-16 0)
(3 -1.05856e-15 0)
(3 -5.67913e-16 0)
(3 3.46643e-16 0)
(3 1.15207e-15 0)
(3 1.86805e-15 0)
(3 2.15607e-15 0)
(3 1.54526e-15 0)
(3 1.22183e-15 0)
(3 8.61202e-16 0)
(3 7.78721e-16 0)
(3 -3.64238e-16 0)
(3 -7.17933e-16 0)
(3 -1.30837e-15 0)
(3 -1.97673e-15 0)
(3 -1.62529e-15 0)
(3 -1.56048e-15 0)
(3 -1.64579e-15 0)
(3 -1.39113e-15 0)
(3 -1.02993e-15 0)
(3 -6.37663e-17 0)
(3 8.82866e-16 0)
(3 2.74456e-15 0)
(3 4.27843e-15 0)
(3 4.74942e-15 0)
(3 4.11876e-15 0)
(3 3.5394e-15 0)
(3 3.52337e-15 0)
(3 3.9881e-15 0)
(3 3.24513e-15 0)
(3 2.3392e-15 0)
(3 1.76649e-15 0)
(3 2.19987e-15 0)
(3 2.347e-15 0)
(3 2.43655e-15 0)
(3 1.83424e-15 0)
(3 1.21394e-15 0)
(3 1.59938e-15 0)
(3 2.32697e-15 0)
(3 2.43961e-15 0)
(3 2.17961e-15 0)
(3 1.77747e-15 0)
(3 1.42231e-15 0)
(3 4.30645e-16 0)
(3 -1.96882e-15 0)
(3 -3.55807e-15 0)
(3 -3.34323e-15 0)
(3 -3.40847e-15 0)
(3 -2.32285e-15 0)
(3 -1.86994e-15 0)
(3 -1.02522e-15 0)
(3 -5.11977e-16 0)
(3 -4.67482e-16 0)
(3 5.7834e-16 0)
(3 2.09273e-15 0)
(3 3.52111e-15 0)
(3 -1.35873e-16 0)
(3 -3.23502e-16 0)
(3 -3.19739e-16 0)
(3 -5.7217e-17 0)
(3 -8.25222e-16 0)
(3 -1.50155e-15 0)
(3 -2.24059e-15 0)
(3 -2.19747e-15 0)
(3 -2.09108e-15 0)
(3 -1.75419e-15 0)
(3 -8.97562e-16 0)
(3 -4.96439e-16 0)
(3 -4.43335e-16 0)
(3 -5.31923e-16 0)
(3 -7.11461e-16 0)
(3 -6.99601e-16 0)
(3 -7.6575e-16 0)
(3 -2.2448e-15 0)
(3 -3.41527e-15 0)
(3 -2.79445e-15 0)
(3 -1.44432e-15 0)
(3 -1.55435e-15 0)
(3 -1.43063e-15 0)
(3 -1.51389e-15 0)
(3 -1.53589e-15 0)
(3 -1.75116e-15 0)
(3 -2.06332e-15 0)
(3 -2.06852e-15 0)
(3 -2.35417e-15 0)
(3 -1.97988e-15 0)
(3 -1.52631e-15 0)
(3 -1.02293e-15 0)
(3 -1.26848e-15 0)
(3 -1.83111e-15 0)
(3 -2.01169e-15 0)
(3 -1.97249e-15 0)
(3 -1.27359e-15 0)
(3 -1.22715e-15 0)
(3 -1.10635e-15 0)
(3 -6.59896e-17 0)
(3 -2.92635e-16 0)
(3 -9.60324e-16 0)
(3 -8.75261e-16 0)
(3 -5.81114e-16 0)
(3 9.13514e-17 0)
(3 1.00087e-15 0)
(3 4.30956e-16 0)
(3 -1.03413e-16 0)
(3 -4.19801e-16 0)
(3 -4.88046e-16 0)
(3 -5.07421e-17 0)
(3 2.17779e-16 0)
(3 4.91483e-16 0)
(3 8.36213e-16 0)
(3 -5.29796e-16 0)
(3 -1.78505e-15 0)
(3 -1.73032e-15 0)
(3 -8.85578e-16 0)
(3 -5.35516e-16 0)
(3 -8.80752e-16 0)
(3 -9.44001e-16 0)
(3 6.7853e-17 0)
(3 2.4668e-15 0)
(3 4.49422e-15 0)
(3 4.12902e-15 0)
(3 2.82578e-15 0)
(3 1.93356e-15 0)
(3 2.04075e-15 0)
(3 3.10996e-15 0)
(3 3.57901e-15 0)
(3 4.1791e-15 0)
(3 3.9173e-15 0)
(3 3.76775e-15 0)
(3 4.11515e-15 0)
(3 4.10471e-15 0)
(3 3.86422e-15 0)
(3 3.09435e-15 0)
(3 1.42386e-15 0)
(3 8.34842e-16 0)
(3 1.59469e-15 0)
(3 1.76268e-15 0)
(3 1.82354e-15 0)
(3 1.31559e-15 0)
(3 4.12878e-16 0)
(3 -8.12079e-16 0)
(3 -2.35227e-15 0)
(3 -3.63801e-15 0)
(3 -3.685e-15 0)
(3 -3.28627e-15 0)
(3 -2.74573e-15 0)
(3 -1.88331e-15 0)
(3 -1.52915e-15 0)
(3 -1.06949e-15 0)
(3 1.34975e-15 0)
(3 2.30212e-15 0)
(3 3.5736e-15 0)
(3 -2.30129e-16 0)
(3 -1.13248e-16 0)
(3 -2.02016e-16 0)
(3 -5.62004e-16 0)
(3 -5.81693e-16 0)
(3 -3.849e-16 0)
(3 5.7456e-17 0)
(3 9.03223e-17 0)
(3 -3.87507e-16 0)
(3 -9.35315e-16 0)
(3 -7.32356e-16 0)
(3 -6.94147e-16 0)
(3 -5.23075e-16 0)
(3 -2.62193e-17 0)
(3 -6.08135e-16 0)
(3 -1.45107e-15 0)
(3 -1.84245e-15 0)
(3 -2.33744e-15 0)
(3 -1.97438e-15 0)
(3 -1.03093e-15 0)
(3 -7.19725e-16 0)
(3 -2.48797e-16 0)
(3 -2.47032e-16 0)
(3 -1.28875e-15 0)
(3 -2.01113e-15 0)
(3 -1.91598e-15 0)
(3 -1.85388e-15 0)
(3 -1.51274e-15 0)
(3 -1.04922e-15 0)
(3 -8.16822e-16 0)
(3 -1.00494e-15 0)
(3 -1.16881e-15 0)
(3 -7.72403e-16 0)
(3 -1.52274e-16 0)
(3 4.59146e-16 0)
(3 1.02995e-15 0)
(3 1.66771e-15 0)
(3 1.17405e-15 0)
(3 2.31872e-16 0)
(3 2.31036e-16 0)
(3 2.37748e-16 0)
(3 8.9157e-17 0)
(3 9.78314e-17 0)
(3 1.14852e-16 0)
(3 -3.42223e-16 0)
(3 -5.58663e-16 0)
(3 -6.87106e-16 0)
(3 -4.79761e-16 0)
(3 -1.68677e-16 0)
(3 -7.61541e-16 0)
(3 -9.93267e-16 0)
(3 -6.42561e-16 0)
(3 -1.38557e-16 0)
(3 3.90085e-16 0)
(3 1.91925e-16 0)
(3 -3.84428e-16 0)
(3 3.97849e-16 0)
(3 1.14716e-15 0)
(3 1.01071e-15 0)
(3 9.52203e-16 0)
(3 7.91443e-16 0)
(3 7.5925e-16 0)
(3 1.41216e-15 0)
(3 2.684e-15 0)
(3 3.2501e-15 0)
(3 2.94346e-15 0)
(3 2.29795e-15 0)
(3 2.34247e-15 0)
(3 3.23201e-15 0)
(3 4.3839e-15 0)
(3 5.10033e-15 0)
(3 5.08636e-15 0)
(3 4.6963e-15 0)
(3 4.65396e-15 0)
(3 4.4645e-15 0)
(3 4.12651e-15 0)
(3 2.6042e-15 0)
(3 -3.01939e-16 0)
(3 -1.26593e-15 0)
(3 -1.26871e-15 0)
(3 -1.38448e-15 0)
(3 -2.12378e-15 0)
(3 -2.10016e-15 0)
(3 -2.42759e-15 0)
(3 -2.73911e-15 0)
(3 -3.80274e-15 0)
(3 -4.74056e-15 0)
(3 -4.84231e-15 0)
(3 -4.67477e-15 0)
(3 -4.25742e-15 0)
(3 -3.95777e-15 0)
(3 -3.21305e-15 0)
(3 -1.83815e-15 0)
(3 -3.5565e-16 0)
(3 5.45512e-16 0)
(3 2.61467e-15 0)
(3 -9.87823e-18 0)
(3 6.14028e-17 0)
(3 7.05128e-17 0)
(3 -3.56669e-17 0)
(3 3.91821e-16 0)
(3 6.52737e-16 0)
(3 7.45059e-16 0)
(3 1.00979e-15 0)
(3 1.51809e-15 0)
(3 1.05024e-15 0)
(3 1.11799e-15 0)
(3 9.40177e-16 0)
(3 1.07936e-15 0)
(3 8.46468e-16 0)
(3 3.12112e-16 0)
(3 -1.06906e-16 0)
(3 -3.68172e-16 0)
(3 -1.9155e-16 0)
(3 -5.19302e-16 0)
(3 -1.01833e-15 0)
(3 -9.54944e-16 0)
(3 -7.28974e-16 0)
(3 -6.45777e-16 0)
(3 -2.65121e-16 0)
(3 -3.43202e-16 0)
(3 -2.57255e-16 0)
(3 -7.19284e-17 0)
(3 -2.3062e-16 0)
(3 -2.75507e-16 0)
(3 -9.73733e-16 0)
(3 -1.8386e-15 0)
(3 -1.69201e-15 0)
(3 -5.53179e-16 0)
(3 8.45624e-16 0)
(3 5.83659e-16 0)
(3 5.47592e-16 0)
(3 1.06916e-15 0)
(3 1.33169e-15 0)
(3 8.16693e-16 0)
(3 3.1714e-16 0)
(3 -1.27949e-16 0)
(3 -3.85226e-16 0)
(3 -5.89487e-16 0)
(3 -1.02219e-15 0)
(3 -1.82146e-15 0)
(3 -2.81743e-15 0)
(3 -2.22994e-15 0)
(3 -8.43e-16 0)
(3 -6.50295e-17 0)
(3 -3.60542e-16 0)
(3 -1.04886e-15 0)
(3 -1.66378e-15 0)
(3 -9.7208e-16 0)
(3 -5.00105e-16 0)
(3 6.47676e-16 0)
(3 1.62095e-15 0)
(3 1.48276e-15 0)
(3 1.13767e-15 0)
(3 9.56363e-16 0)
(3 5.94322e-16 0)
(3 3.73281e-16 0)
(3 -6.96468e-17 0)
(3 7.82718e-16 0)
(3 1.56193e-15 0)
(3 1.91374e-15 0)
(3 2.71122e-15 0)
(3 3.35866e-15 0)
(3 3.90273e-15 0)
(3 4.59964e-15 0)
(3 4.67792e-15 0)
(3 5.05293e-15 0)
(3 5.30499e-15 0)
(3 5.07298e-15 0)
(3 3.96198e-15 0)
(3 3.45283e-15 0)
(3 3.0028e-15 0)
(3 3.40542e-15 0)
(3 3.97844e-15 0)
(3 3.70485e-15 0)
(3 1.92529e-15 0)
(3 7.4926e-16 0)
(3 -7.18327e-16 0)
(3 -1.61994e-15 0)
(3 -3.78311e-15 0)
(3 -4.28446e-15 0)
(3 -4.42114e-15 0)
(3 -4.28418e-15 0)
(3 -4.37485e-15 0)
(3 -4.76888e-15 0)
(3 -3.34382e-15 0)
(3 -3.61135e-15 0)
(3 -1.58669e-15 0)
(3 -7.60138e-16 0)
(3 -7.59678e-17 0)
(3 8.36375e-17 0)
(3 1.19712e-15 0)
(3 1.15282e-16 0)
(3 4.20778e-16 0)
(3 3.15315e-16 0)
(3 2.69346e-16 0)
(3 4.18604e-17 0)
(3 -5.33715e-16 0)
(3 -3.96424e-16 0)
(3 -6.34491e-17 0)
(3 8.52948e-16 0)
(3 1.68765e-15 0)
(3 2.58536e-15 0)
(3 3.2136e-15 0)
(3 2.89066e-15 0)
(3 1.75964e-15 0)
(3 1.58309e-15 0)
(3 1.86127e-15 0)
(3 1.98078e-15 0)
(3 1.99829e-15 0)
(3 1.9005e-15 0)
(3 1.58383e-15 0)
(3 8.41089e-16 0)
(3 -3.58532e-16 0)
(3 -1.10422e-15 0)
(3 -7.55742e-16 0)
(3 -3.1039e-16 0)
(3 -1.88971e-16 0)
(3 -1.64797e-16 0)
(3 -1.5753e-17 0)
(3 3.53393e-16 0)
(3 1.67742e-16 0)
(3 -1.77523e-16 0)
(3 -4.36196e-16 0)
(3 -4.97617e-16 0)
(3 -6.33151e-16 0)
(3 -6.87225e-16 0)
(3 -5.35542e-16 0)
(3 -2.49134e-16 0)
(3 7.64661e-16 0)
(3 1.44134e-15 0)
(3 1.49512e-15 0)
(3 1.17422e-16 0)
(3 3.68004e-17 0)
(3 -4.98409e-16 0)
(3 -1.46756e-15 0)
(3 -2.12545e-15 0)
(3 -2.99597e-15 0)
(3 -2.92478e-15 0)
(3 -2.02627e-15 0)
(3 -1.31424e-15 0)
(3 -8.81415e-16 0)
(3 -1.18366e-15 0)
(3 -1.23221e-15 0)
(3 -6.04632e-16 0)
(3 -1.71407e-16 0)
(3 3.93061e-16 0)
(3 6.43865e-16 0)
(3 2.86859e-16 0)
(3 -6.21982e-16 0)
(3 -4.31405e-16 0)
(3 -6.818e-17 0)
(3 -5.69634e-16 0)
(3 -7.11426e-17 0)
(3 6.79213e-16 0)
(3 1.06332e-15 0)
(3 1.75014e-15 0)
(3 2.84413e-15 0)
(3 3.26134e-15 0)
(3 3.96785e-15 0)
(3 3.92779e-15 0)
(3 3.49757e-15 0)
(3 4.86483e-15 0)
(3 5.92752e-15 0)
(3 3.62212e-15 0)
(3 2.09165e-15 0)
(3 1.55755e-15 0)
(3 1.75631e-15 0)
(3 2.17284e-15 0)
(3 1.92624e-15 0)
(3 1.38307e-15 0)
(3 6.42024e-16 0)
(3 -8.38406e-16 0)
(3 -3.67869e-16 0)
(3 -7.30136e-16 0)
(3 -9.08661e-16 0)
(3 -2.28335e-15 0)
(3 -2.41091e-15 0)
(3 -2.54513e-15 0)
(3 -1.97222e-15 0)
(3 -1.21864e-15 0)
(3 -4.91733e-16 0)
(3 -3.6522e-16 0)
(3 -1.24987e-16 0)
(3 -1.65588e-16 0)
(3 3.46984e-16 0)
(3 6.86655e-17 0)
(3 -2.93676e-17 0)
(3 -5.61479e-18 0)
(3 4.7116e-18 0)
(3 -1.85667e-16 0)
(3 -5.19645e-16 0)
(3 -1.27202e-15 0)
(3 -1.08926e-15 0)
(3 -2.79361e-17 0)
(3 4.85542e-16 0)
(3 9.52941e-16 0)
(3 1.72881e-15 0)
(3 1.67701e-15 0)
(3 1.50279e-15 0)
(3 1.51079e-15 0)
(3 1.77788e-15 0)
(3 1.6846e-15 0)
(3 1.49289e-15 0)
(3 1.38343e-15 0)
(3 1.40647e-15 0)
(3 1.45339e-15 0)
(3 1.09596e-15 0)
(3 1.04425e-15 0)
(3 8.16923e-16 0)
(3 8.27117e-16 0)
(3 5.63982e-16 0)
(3 5.00627e-16 0)
(3 -1.41504e-16 0)
(3 -4.46766e-16 0)
(3 1.97375e-17 0)
(3 3.58643e-17 0)
(3 5.88818e-16 0)
(3 2.10478e-15 0)
(3 1.44286e-15 0)
(3 -7.01798e-16 0)
(3 -1.45464e-15 0)
(3 -1.15115e-15 0)
(3 -1.26616e-15 0)
(3 -1.38311e-15 0)
(3 -1.35093e-15 0)
(3 1.50274e-16 0)
(3 2.70196e-16 0)
(3 -1.88296e-16 0)
(3 -1.8876e-16 0)
(3 -5.99082e-16 0)
(3 -9.19096e-16 0)
(3 -9.64853e-16 0)
(3 -5.39478e-16 0)
(3 -6.83027e-16 0)
(3 -1.52768e-15 0)
(3 -1.50977e-15 0)
(3 -1.26662e-15 0)
(3 -9.8418e-16 0)
(3 -7.2276e-16 0)
(3 -4.81453e-16 0)
(3 -2.96961e-16 0)
(3 -2.43952e-16 0)
(3 -4.55403e-16 0)
(3 -8.58229e-16 0)
(3 -1.80756e-15 0)
(3 -2.1929e-15 0)
(3 -1.9614e-15 0)
(3 -1.09375e-15 0)
(3 4.11974e-16 0)
(3 2.02453e-16 0)
(3 4.25624e-16 0)
(3 1.84447e-15 0)
(3 2.83596e-15 0)
(3 3.70058e-15 0)
(3 3.63382e-15 0)
(3 2.89931e-15 0)
(3 2.43547e-15 0)
(3 2.37958e-15 0)
(3 1.68909e-15 0)
(3 -5.66747e-16 0)
(3 -1.38251e-15 0)
(3 -1.56745e-15 0)
(3 -1.00758e-15 0)
(3 -7.30697e-16 0)
(3 -1.00907e-15 0)
(3 -6.35826e-16 0)
(3 -7.4712e-16 0)
(3 -9.41443e-16 0)
(3 -1.91063e-15 0)
(3 -1.78887e-15 0)
(3 -1.13569e-15 0)
(3 -1.87333e-15 0)
(3 -2.7179e-15 0)
(3 -3.21552e-15 0)
(3 -2.04558e-15 0)
(3 1.38038e-16 0)
(3 9.4798e-16 0)
(3 1.67133e-15 0)
(3 1.05523e-15 0)
(3 9.35233e-16 0)
(3 7.82984e-16 0)
(3 3.13846e-16 0)
(3 -7.34628e-16 0)
(3 -1.11528e-16 0)
(3 -5.44203e-16 0)
(3 -5.04776e-16 0)
(3 -1.61561e-16 0)
(3 4.98247e-17 0)
(3 1.14756e-15 0)
(3 8.1217e-16 0)
(3 7.15635e-16 0)
(3 7.34599e-16 0)
(3 5.65125e-16 0)
(3 2.00974e-16 0)
(3 1.49645e-16 0)
(3 7.06981e-16 0)
(3 6.31716e-16 0)
(3 7.54794e-16 0)
(3 -2.3553e-17 0)
(3 -2.58799e-16 0)
(3 -4.28899e-16 0)
(3 -3.76572e-16 0)
(3 -2.13374e-16 0)
(3 4.49722e-16 0)
(3 9.54094e-16 0)
(3 8.99127e-16 0)
(3 7.45512e-16 0)
(3 1.60991e-16 0)
(3 -2.39968e-16 0)
(3 -8.49999e-16 0)
(3 -8.67004e-16 0)
(3 -1.08068e-15 0)
(3 -9.26556e-16 0)
(3 -5.44073e-16 0)
(3 -8.31173e-16 0)
(3 -8.15484e-16 0)
(3 -1.07928e-15 0)
(3 -1.24134e-15 0)
(3 -1.44534e-15 0)
(3 -2.15136e-15 0)
(3 -2.37328e-15 0)
(3 -1.84802e-15 0)
(3 -8.94386e-16 0)
(3 -3.01978e-17 0)
(3 -2.54036e-16 0)
(3 -1.70602e-16 0)
(3 2.78891e-16 0)
(3 8.12909e-16 0)
(3 1.39816e-15 0)
(3 1.35598e-15 0)
(3 1.41984e-15 0)
(3 9.56945e-16 0)
(3 2.00488e-16 0)
(3 -1.44e-16 0)
(3 -1.25749e-16 0)
(3 -5.01222e-16 0)
(3 -1.09553e-15 0)
(3 -1.665e-15 0)
(3 -1.58397e-15 0)
(3 -1.25038e-15 0)
(3 -1.48414e-15 0)
(3 -2.48804e-15 0)
(3 -2.42986e-15 0)
(3 -1.93533e-15 0)
(3 -1.82372e-15 0)
(3 -1.09221e-15 0)
(3 -1.1914e-15 0)
(3 -1.44654e-15 0)
(3 -2.25817e-18 0)
(3 1.80405e-15 0)
(3 2.03541e-15 0)
(3 1.34035e-15 0)
(3 5.51674e-16 0)
(3 -1.46352e-16 0)
(3 -8.20897e-16 0)
(3 -7.70219e-16 0)
(3 -7.99117e-16 0)
(3 -1.04122e-15 0)
(3 -1.7333e-15 0)
(3 -2.17501e-15 0)
(3 -1.24875e-15 0)
(3 -1.98978e-16 0)
(3 1.34015e-15 0)
(3 2.17614e-15 0)
(3 1.53272e-15 0)
(3 1.65256e-15 0)
(3 2.73669e-15 0)
(3 2.71968e-15 0)
(3 1.58082e-15 0)
(3 1.42266e-15 0)
(3 1.43874e-15 0)
(3 1.77935e-15 0)
(3 1.92492e-15 0)
(3 2.14139e-15 0)
(3 2.13444e-15 0)
(3 1.66368e-15 0)
(3 -2.08e-16 0)
(3 -1.16223e-15 0)
(3 -1.32551e-15 0)
(3 -1.17736e-17 0)
(3 -1.7949e-17 0)
(3 4.69157e-16 0)
(3 1.00905e-15 0)
(3 1.28418e-15 0)
(3 1.70976e-15 0)
(3 1.52861e-15 0)
(3 1.204e-15 0)
(3 5.54235e-16 0)
(3 3.92373e-16 0)
(3 3.27098e-16 0)
(3 3.47666e-16 0)
(3 -4.37908e-18 0)
(3 -8.52454e-16 0)
(3 -8.25088e-16 0)
(3 -1.3345e-15 0)
(3 -7.0107e-16 0)
(3 -8.69019e-17 0)
(3 4.35065e-16 0)
(3 1.01683e-15 0)
(3 6.94567e-16 0)
(3 3.85695e-16 0)
(3 -2.50557e-16 0)
(3 -7.51443e-16 0)
(3 -6.95651e-16 0)
(3 -2.69306e-16 0)
(3 1.11623e-16 0)
(3 -4.26577e-16 0)
(3 -1.80284e-16 0)
(3 -1.4908e-16 0)
(3 -1.7976e-15 0)
(3 -2.46901e-15 0)
(3 -2.1383e-15 0)
(3 -1.52368e-15 0)
(3 -1.46611e-15 0)
(3 -1.33689e-15 0)
(3 -1.21936e-15 0)
(3 -7.47345e-16 0)
(3 -6.87273e-16 0)
(3 -6.1744e-16 0)
(3 4.62184e-16 0)
(3 1.56009e-16 0)
(3 1.97878e-16 0)
(3 3.51977e-16 0)
(3 1.81727e-16 0)
(3 1.46005e-15 0)
(3 1.92882e-15 0)
(3 2.64517e-15 0)
(3 2.59093e-15 0)
(3 2.86448e-15 0)
(3 1.65694e-15 0)
(3 2.85761e-16 0)
(3 -7.33102e-16 0)
(3 -1.82733e-15 0)
(3 -2.20393e-15 0)
(3 -1.96517e-15 0)
(3 -1.10591e-15 0)