/*--------------------------------*- C++ -*----------------------------------*\
  =========                 |
  \\      /  F ield         | OpenFOAM: The Open Source CFD Toolbox
   \\    /   O peration     | Website:  https://openfoam.org
    \\  /    A nd           | Version:  7
     \\/     M anipulation  |
\*---------------------------------------------------------------------------*/
FoamFile
{
    version     2.0;
    format      ascii;
    class       volScalarField;
    location    "3.5";
    object      p;
}
// * * * * * * * * * * * * * * * * * * * * * * * * * * * * * * * * * * * * * //

dimensions      [1 -1 -2 0 0 0 0];

internalField   nonuniform List<scalar> 
4608
(
1
1
1
1
1
1
1
1
1
1
1
1
1
1
1
1
1
1
1
1
1
1
1
1
1
1
1
1
1
1
1
1
1
1
1
1
1
1
1
1
1
1
1
1
1
1
1
1
1
1
1
1
1
1
1
1
1
1
1
1
1
1
1
1
1
1
1
1
1
1
1
1
1
1
1
1
1
1
1
1
1
1
1
1
1
1
1
1
1
1
1
1
1
1
1
1
1
1
1
1
1
1
1
1
1
1
1
1
1
1
1
1
1
1
1
1
1
1
1
1
1
1
1
1
1
1
1
1
1
1
1
1
1
1
1
1
1
1
1
1
1
1
1
1
1
1
1
1
1
1
1
1
1
1
1
1
1
1
1
1
1
1
1
1
1
1
1
1
1
1
1
1
1
1
1
1
1
1
1
1
1
1
1
1
1
1
1
1
1
1
1
1
1
1
1
1
1
1
1
1
1
1
1
1
1
1
1
1
1
1
1
1
1
1
1
1
1
1
1
1
1
1
1
1
1
1
1
1
1
1
1
1
1
1
1
1
1
1
1
1
1
1
1
1
1
1
1
1
1
1
1
1
1
1
1
1
1
1
1
1
1
1
1
1
1
1
1
1
1
1
1
1
1
1
1
1
1
1
1
1
1
1
1
1
1
1
1
1
1
1
1
1
1
1
1
1
1
1
1
1
1
1
1
1
1
1
1
1
1
1
1
1
1
1
1
1
1
1
1
1
1
1
1
1
1
1
1
1
1
1
1
1
1
1
1
1
1
1
1
1
1
1
1
1
1
1
1
1
1
1
1
1
1
1
1
1
1
1
1
1
1
1
1
1
1
1
1
1
1
1
1
1
1
1
1
1
1
1
1
1
1
1
1
1
1
1
1
1
1
1
1
1
1
1
1
1
1
1
1
1
1
1
1
1
1
1
1
1
1
1
1
1
1
1
1
1
1
1
1
1
1
1
1
1
1
1
1
1
1
1
1
1
1
1
1
1
1
1
1
1
1
1
1
1
1
1
1
1
1
1
1
1
1
1
1
1
1
1
1
1
1
1
1
1
1
1
1
1
1
1
1
1
1
1
1
1
1
1
1
1
1
1
1
1
1
1
1
1
1
1
1
1
1
1
1
1
1
1
1
1
1
1
1
1
1
1
1
1
1
1
1
1
1
1
1
1
1
1
1
1
1
1
1
1
1
1
1
1
1
1
1
1
1
1
1
1
1
1
1
1
1
1
1
1
1
1
1
1
1
1
1
1
1
1
1
1
1
1
1
1
1
1
1
1
1
1
1
1
1
1
1
1
1
1
1
1
1
1
1
1
1
1
1
1
1
1
1
1
1
1
1
1
1
1
1
1
1
1
1
1
1
1
1
1
1
1
1
1
1
1
1
1
1
1
1
1
1
1
1
1
1
1
1
1
1
1
1
1
1
1
1
1
1
1
1
1
1
1
1
1
1
1
1
1
1
1
1
1
1
1
1
1
1
1
1
1
1
1
1
1
1
1
1
1
1
1
1
1
1
1
1
1
1
1
1
1
1
1
1
1
1
1
1
1
1
1
1
1
1
1
1
1
1
1
1
1
1
1
1
1
1
1
1
1
1
1
1
1
1
1
1
1
1
1
1
1
1
1
1
1
1
1
1
1
1
1
1
1
1
1
1
1
1
1
1
1
1
1
1
1
1
1
1
1
1
1
1
1
1
1
1
1
1
1
1
1
1
1
1
1
1
1
1
1
1
1
1
1
1.29381
1.75984
2.31687
3.00044
3.62382
4.29758
4.85553
5.30267
5.36247
5.15283
4.72137
4.23041
3.80093
3.65597
3.57094
3.58266
3.60936
3.64105
3.68318
3.7175
3.7494
3.75977
3.7603
3.75501
1.00195
1.02188
1.08473
1.21304
1.47935
1.84873
2.37495
2.98399
3.592
3.81832
4.05472
4.06741
3.95295
3.82946
3.79167
3.74804
3.71348
3.68541
3.6869
3.70636
3.73435
3.75689
3.76313
3.76543
0.999997
0.999975
1.00017
1.0001
1.0037
1.02268
1.11004
1.35905
1.99979
2.97597
3.86006
4.29872
4.35824
4.25946
4.10679
3.88478
3.74407
3.69977
3.68146
3.6873
3.70579
3.74087
3.7648
3.77336
1
1
0.999999
0.999999
0.999986
1.00003
0.999953
1.00175
1.03427
1.30832
2.03296
3.13059
3.94164
4.11931
4.03074
3.9436
3.89014
3.81994
3.73956
3.68818
3.68335
3.69721
3.7271
3.75033
1
1
1
1
0.999999
0.999999
0.999993
0.999996
0.999892
1.00171
1.03694
1.37615
2.18532
3.41462
3.86641
4.04734
4.03769
3.98569
3.82977
3.72642
3.69765
3.68763
3.69962
3.71948
1
1
1
1
1
1
1
1
0.999988
0.999989
0.999901
1.00388
1.07053
1.51827
2.50315
3.54705
3.97434
3.95513
3.90197
3.82723
3.78046
3.73915
3.70802
3.71218
1
1
1
1
1
1
1
1
1
0.999999
0.999987
0.999992
0.999989
1.00972
1.17509
1.78907
2.86476
3.63908
3.92538
3.9138
3.87289
3.81296
3.75684
3.72008
1
1
1
1
1
1
1
1
1
1
1
0.999999
0.999997
0.999963
1.00122
1.03146
1.37285
2.24241
3.3058
3.64892
3.76679
3.7796
3.74184
3.69627
1
1
1
1
1
1
1
1
1
1
1
1
1
0.999994
0.999994
0.999982
1.00903
1.11753
1.75781
2.79889
3.63167
3.77441
3.76055
3.72846
1
1
1
1
1
1
1
1
1
1
1
1
1
1
0.999999
0.999996
0.999979
1.00096
1.05212
1.39392
2.38925
3.28873
3.75781
3.79336
1
1
1
1
1
1
1
1
1
1
1
1
1
1
1
1
0.999997
0.999993
1.00032
1.01307
1.2323
1.97159
3.20768
3.51722
1
1
1
1
1
1
1
1
1
1
1
1
1
1
1
1
1
0.999999
0.999997
1.00001
1.00684
1.10956
1.73507
2.8226
1
1
1
1
1
1
1
1
1
1
1
1
1
1
1
1
1
1
0.999999
0.999999
0.999999
1.0021
1.06256
1.55003
1
1
1
1
1
1
1
1
1
1
1
1
1
1
1
1
1
1
1
1
1
0.999998
1.00106
1.03185
1
1
1
1
1
1
1
1
1
1
1
1
1
1
1
1
1
1
1
1
1
0.999999
1.00001
0.999983
1
1
1
1
1
1
1
1
1
1
1
1
1
1
1
1
1
1
1
1
1
1
1
0.999994
1
1
1
1
1
1
1
1
1
1
1
1
1
1
1
1
1
1
1
1
1
1
0.999999
0.999997
1
1
1
1
1
1
1
1
1
1
1
1
1
1
1
1
1
1
1
1
1
0.999999
0.999999
1.0001
1
1
1
1
1
1
1
1
1
1
1
1
1
1
1
1
1
1
1
1
1
0.999998
1.00099
1.03203
1
1
1
1
1
1
1
1
1
1
1
1
1
1
1
1
1
1
0.999999
0.999999
1
1.00206
1.06267
1.4968
1
1
1
1
1
1
1
1
1
1
1
1
1
1
1
1
1
0.999999
0.999997
1.00001
1.00652
1.114
1.72751
2.72807
1
1
1
1
1
1
1
1
1
1
1
1
1
1
1
1
0.999997
0.999993
1.0003
1.01333
1.23002
1.98914
3.17273
3.50951
1
1
1
1
1
1
1
1
1
1
1
1
1
1
0.999999
0.999996
0.999979
1.00096
1.05169
1.39119
2.41145
3.26953
3.75183
3.79428
1
1
1
1
1
1
1
1
1
1
1
1
1
0.999994
0.999994
0.999983
1.00904
1.11785
1.75569
2.79446
3.64609
3.76975
3.75906
3.72598
1
1
1
1
1
1
1
1
1
1
1
0.999999
0.999997
0.999963
1.00122
1.03143
1.3731
2.24379
3.30043
3.65027
3.76926
3.77774
3.73798
3.69541
1
1
1
1
1
1
1
1
1
0.999999
0.999987
0.999992
0.999989
1.00971
1.17509
1.78876
2.86631
3.63736
3.92466
3.91466
3.87459
3.81281
3.75626
3.72004
1
1
1
1
1
1
1
1
0.999988
0.999989
0.999901
1.00388
1.07054
1.51832
2.50283
3.54717
3.97483
3.95496
3.90168
3.82767
3.7811
3.73892
3.70844
3.71275
1
1
1
1
0.999999
0.999999
0.999993
0.999996
0.999892
1.00171
1.03694
1.37612
2.18539
3.41464
3.86627
4.04734
4.03784
3.98585
3.82904
3.72671
3.6978
3.68755
3.69991
3.71965
1
1
0.999999
0.999999
0.999986
1.00003
0.999953
1.00175
1.03426
1.30837
2.03294
3.13063
3.9417
4.11924
4.03072
3.94347
3.89014
3.8202
3.73904
3.68858
3.68355
3.69713
3.72683
3.75029
0.999997
0.999975
1.00017
1.0001
1.0037
1.02268
1.11004
1.35905
1.99976
2.97603
3.86
4.29872
4.35824
4.25954
4.10677
3.88451
3.74413
3.69995
3.68141
3.6874
3.7058
3.74077
3.76474
3.77345
1.00195
1.02187
1.08473
1.21305
1.47935
1.84871
2.37498
2.98393
3.59206
3.81834
4.05475
4.06729
3.95301
3.82966
3.79148
3.74787
3.71352
3.68564
3.687
3.70629
3.73426
3.7569
3.76316
3.76553
1.29381
1.75986
2.31688
3.00039
3.62378
4.29765
4.85558
5.30261
5.36248
5.15284
4.72133
4.23043
3.80111
3.65605
3.57077
3.58266
3.60948
3.64104
3.68299
3.71726
3.74927
3.75981
3.76039
3.75515
2.64547
1.66988
1.14489
0.876358
0.669718
0.619049
0.649978
0.743783
0.79288
0.834718
0.913142
0.980881
0.984157
0.98919
1.01332
1.05219
1.07218
1.07328
1.07218
1.06984
1.0564
1.04194
1.04543
1.12071
1.54401
2.79366
4.62378
6.797
8.81516
9.32699
8.65575
7.57806
6.84194
6.5353
6.32843
6.14091
5.94094
5.73039
5.52005
5.28927
5.02002
4.74707
4.53781
4.3995
4.29236
4.1943
4.10096
3.99832
3.87239
3.72182
3.55785
3.38268
3.21873
3.1053
3.02771
2.96511
2.91401
2.87198
2.8264
2.76882
2.69531
2.60252
2.48441
2.35023
2.25526
2.19361
2.15152
2.12729
2.1026
2.08489
2.07007
2.11862
2.24594
2.59316
3.21192
3.92883
4.54156
5.08788
5.43515
5.37427
5.23143
5.03555
4.83185
4.67111
4.54885
4.41896
4.27632
4.18294
4.12917
4.08424
4.04539
4.00716
3.96694
3.91498
3.84394
3.66224
3.36717
2.73505
2.1238
1.80354
1.51501
1.20256
1.10634
1.06074
0.992953
0.946412
0.938593
0.928908
0.918312
0.919421
0.941093
0.98102
1.01184
1.01829
1.01807
1.02539
1.02115
1.02442
1.10602
1.63101
2.56079
3.04802
3.56646
4.28556
5.59975
6.82676
7.52961
7.40024
7.02276
6.66176
6.40714
6.18301
5.97718
5.77958
5.56745
5.3219
5.04963
4.79666
4.60784
4.47819
4.36367
4.26048
4.16308
4.05658
3.92533
3.76847
3.60008
3.42885
3.28159
3.17809
3.09802
3.03051
2.97232
2.91974
2.86576
2.80466
2.73249
2.63947
2.51923
2.38605
2.29759
2.24828
2.204
2.17061
2.14381
2.15268
2.23716
2.4336
2.77198
3.07902
3.27862
3.57084
3.96345
4.28525
4.69988
4.89372
4.99643
4.97134
4.87034
4.7164
4.5678
4.4371
4.31628
4.21324
4.14243
4.09519
4.06592
4.03459
3.99182
3.93497
3.8574
3.6865
3.66129
3.34997
2.85411
2.35228
2.01701
1.69441
1.40225
1.2504
1.12836
0.993617
0.956994
0.949051
0.928145
0.917961
0.921808
0.938959
0.963116
0.971325
0.975079
0.989633
1.01653
1.1386
1.77465
2.71594
3.2327
3.29189
3.31364
3.34506
3.6122
4.65432
6.24731
7.05664
7.13751
6.86766
6.39691
6.05771
5.86193
5.68742
5.48618
5.25284
5.02835
4.82359
4.62068
4.42402
4.25756
4.12494
4.01577
3.92085
3.81631
3.68906
3.54687
3.41117
3.29076
3.17508
3.06376
2.97338
2.89706
2.82725
2.76102
2.6962
2.63447
2.55883
2.46267
2.37098
2.30693
2.24747
2.19179
2.178
2.19591
2.31814
2.62669
3.00876
3.31836
3.36404
3.32875
3.33195
3.41428
3.65612
4.06486
4.51367
4.74807
4.86781
4.85773
4.759
4.59097
4.43856
4.31083
4.23157
4.17154
4.11322
4.04968
3.99003
3.93095
3.8666
3.79165
3.66226
3.73752
3.6218
3.33985
2.88677
2.49613
2.19716
1.82038
1.56438
1.44959
1.27823
1.12347
1.09512
1.07355
1.00967
0.951758
0.952236
0.944646
0.930912
0.93632
0.960388
1.1292
1.81457
2.86845
3.20486
3.26517
3.26844
3.19457
3.09003
3.01886
3.12751
3.77749
5.14398
6.37064
6.44455
6.37586
6.13298
5.8805
5.63289
5.42723
5.25485
5.06864
4.87513
4.65597
4.4412
4.24833
4.08452
3.95287
3.84983
3.75913
3.66889
3.57424
3.47112
3.3534
3.20809
3.07422
2.97071
2.8848
2.80622
2.73271
2.65934
2.57516
2.49831
2.43163
2.3747
2.32751
2.28105
2.2378
2.27311
2.47235
2.87794
3.26341
3.49051
3.53614
3.50316
3.41842
3.32214
3.28921
3.31897
3.4451
3.72697
4.07232
4.42866
4.61881
4.59898
4.53788
4.45984
4.37652
4.30352
4.23295
4.16386
4.08782
4.01225
3.9218
3.81367
3.75984
3.69363
3.73413
3.7112
3.58556
3.30589
2.90985
2.58928
2.29113
1.93655
1.69631
1.55218
1.40017
1.25602
1.2021
1.13403
1.02629
0.967612
0.948832
0.936943
0.953235
1.18239
1.89301
2.95253
3.27795
3.23477
3.16839
3.09555
3.00302
2.90652
2.84292
2.7609
2.78253
3.0811
4.12273
5.38881
6.11781
6.11425
5.88387
5.5193
5.24371
5.08382
4.94925
4.82421
4.6853
4.48788
4.26523
4.06444
3.91815
3.8146
3.71323
3.60677
3.49752
3.39203
3.28763
3.17835
3.07102
2.9801
2.89655
2.8183
2.73846
2.62641
2.501
2.43748
2.41053
2.38173
2.37116
2.39974
2.4996
2.78375
3.18324
3.54718
3.62105
3.6238
3.58986
3.52844
3.44768
3.3672
3.29331
3.24898
3.19147
3.21249
3.35886
3.65056
4.07316
4.37721
4.44702
4.48122
4.43397
4.33926
4.24597
4.16968
4.08878
3.99036
3.87381
3.77389
3.73152
3.66653
3.73041
3.73022
3.6976
3.5587
3.30008
2.94295
2.62335
2.351
2.08421
1.84363
1.64865
1.47771
1.38524
1.33524
1.23743
1.08184
1.04063
1.07758
1.36106
2.18373
3.06179
3.38957
3.34238
3.20457
3.06258
2.96189
2.87071
2.78006
2.70392
2.61823
2.55149
2.49548
2.60918
3.26636
4.48551
5.52377
5.61877
5.46034
5.22794
5.06654
4.91958
4.76354
4.61032
4.46016
4.28332
4.08078
3.88342
3.75631
3.66433
3.57964
3.49169
3.38106
3.26113
3.17923
3.10774
3.03477
2.95381
2.85524
2.71925
2.56531
2.47378
2.42739
2.40934
2.41449
2.47645
2.72923
3.15909
3.58687
3.79184
3.79478
3.75841
3.70537
3.63165
3.55641
3.48691
3.41737
3.33795
3.24727
3.16275
3.05932
3.04954
3.11284
3.33375
3.76101
4.11769
4.32193
4.36104
4.35393
4.31768
4.23789
4.112
3.9761
3.84369
3.75439
3.71984
3.66194
3.72697
3.73572
3.72809
3.68098
3.5344
3.29073
2.99566
2.65016
2.3911
2.1947
2.01017
1.75369
1.52986
1.48307
1.43202
1.29753
1.3186
1.71326
2.68652
3.49622
3.67329
3.55733
3.36126
3.1873
3.04283
2.93446
2.82575
2.72486
2.62684
2.53961
2.4555
2.40658
2.33123
2.34832
2.63257
3.5265
4.70878
5.19325
5.18397
5.04943
4.82685
4.6301
4.48695
4.37848
4.26795
4.10104
3.89514
3.73505
3.62735
3.53627
3.44006
3.33097
3.22269
3.12409
3.04032
2.97061
2.89405
2.7946
2.67509
2.56433
2.47966
2.44941
2.45706
2.60198
3.00452
3.55607
3.92934
4.02152
3.96832
3.85088
3.73857
3.6567
3.6028
3.56019
3.50965
3.44879
3.37543
3.28311
3.17099
3.03658
2.98017
2.97363
3.002
3.16609
3.54282
3.92898
4.22198
4.31477
4.29439
4.21232
4.0696
3.93874
3.84407
3.77526
3.74266
3.67583
3.69356
3.70354
3.72072
3.71966
3.66093
3.50048
3.28068
3.02647
2.69034
2.41259
2.28266
2.11338
1.85882
1.65526
1.58101
1.7028
2.33519
3.47944
4.18935
4.15208
3.94793
3.68933
3.46428
3.27063
3.10309
2.96785
2.83493
2.71312
2.6024
2.51377
2.41521
2.35342
2.27448
2.21118
2.15132
2.23946
2.78658
3.78391
4.66013
4.78267
4.69929
4.57351
4.447
4.3258
4.19701
4.04939
3.88437
3.71952
3.59034
3.48659
3.38681
3.28156
3.17917
3.08774
3.01219
2.94405
2.86455
2.7706
2.66911
2.57831
2.51281
2.5574
2.80833
3.34434
3.90254
4.22611
4.25432
4.21039
4.04158
3.8353
3.71905
3.64199
3.59431
3.56135
3.5229
3.48174
3.42942
3.33718
3.18597
3.0325
2.96082
2.93277
2.93466
2.95029
3.06359
3.33982
3.69966
4.009
4.07959
4.033
3.95545
3.90506
3.85834
3.81377
3.77583
3.69619
3.70192
3.69747
3.70795
3.72202
3.70582
3.62923
3.46802
3.25201
3.01236
2.73077
2.47995
2.29591
2.12428
2.00004
2.22662
3.10664
4.37286
4.82988
4.71447
4.41995
4.11931
3.88012
3.66792
3.45453
3.24352
3.05187
2.87934
2.73311
2.62433
2.53165
2.4333
2.3431
2.25742
2.16375
2.09136
2.01438
2.02912
2.25955
2.97207
3.90904
4.36996
4.50309
4.45267
4.29561
4.13949
3.98669
3.84488
3.69566
3.54713
3.42481
3.32636
3.23343
3.1429
3.05383
2.97457
2.90589
2.83787
2.7707
2.68741
2.63853
2.75605
3.1424
3.72055
4.20077
4.3539
4.35459
4.30265
4.17774
4.00637
3.84894
3.74524
3.67286
3.62205
3.58034
3.53324
3.47903
3.41659
3.32967
3.19075
3.05149
2.97234
2.93507
2.913
2.90958
2.91266
2.96961
3.12287
3.35458
3.63393
3.77679
3.81576
3.84429
3.8668
3.85833
3.82296
3.73841
3.76678
3.73715
3.74469
3.75217
3.73821
3.69627
3.60142
3.44227
3.2399
2.99553
2.75416
2.49183
2.52492
3.01776
4.2353
5.3977
5.61423
5.39624
5.02095
4.66351
4.35504
4.09215
3.85671
3.62973
3.41037
3.20374
3.00568
2.81878
2.66655
2.53404
2.41945
2.32201
2.2488
2.16948
2.08634
1.99311
1.94798
1.89027
1.95086
2.36971
3.18562
3.89304
4.19931
4.20467
4.0992
3.95756
3.81395
3.65085
3.48669
3.36718
3.28201
3.20235
3.12184
3.03595
2.9604
2.87464
2.83653
2.78365
2.82447
3.06604
3.61279
4.12963
4.50421
4.59401
4.55956
4.43154
4.26717
4.11859
3.98147
3.86635
3.7827
3.71634
3.65532
3.5981
3.53992
3.47585
3.40307
3.31655
3.2122
3.099
3.00909
2.95385
2.91821
2.8957
2.88111
2.87668
2.86498
2.90656
3.01101
3.2683
3.51439
3.66432
3.8058
3.88533
3.87347
3.79005
3.59979
3.65753
3.718
3.7638
3.7546
3.72874
3.66619
3.57398
3.412
3.2319
3.01395
3.19921
4.22776
5.72475
6.40046
6.29755
5.94837
5.5667
5.21067
4.88727
4.58956
4.30547
4.03682
3.78462
3.55368
3.34119
3.13861
2.94823
2.78184
2.62382
2.47268
2.34046
2.2328
2.14734
2.08039
2.01374
1.93456
1.85865
1.77991
1.78402
1.96837
2.54367
3.33651
3.88171
3.97024
3.93287
3.788
3.59217
3.40631
3.30638
3.2584
3.19614
3.11982
3.03464
2.96123
2.879
2.88198
3.0487
3.51937
4.10985
4.50755
4.62305
4.65844
4.63486
4.54821
4.43033
4.27243
4.10779
3.96542
3.87332
3.81082
3.7492
3.68209
3.61287
3.54297
3.46692
3.38241
3.29569
3.21639
3.13996
3.069
3.0027
2.93751
2.89589
2.86693
2.84015
2.81624
2.77263
2.73688
2.80196
3.04926
3.35009
3.62204
3.80824
3.86062
3.81282
3.48088
3.74116
3.77347
3.76171
3.7389
3.72978
3.69952
3.65399
3.54177
3.56243
4.15916
5.72756
7.29939
7.66683
7.40782
6.78604
6.21957
5.77239
5.39899
5.06349
4.75174
4.46097
4.18967
3.93436
3.69737
3.4729
3.25321
3.04538
2.85606
2.68103
2.53169
2.41203
2.29994
2.18808
2.07633
1.98254
1.9194
1.8698
1.78829
1.71346
1.65611
1.71204
2.05177
2.77239
3.45944
3.7307
3.71105
3.56717
3.37341
3.25137
3.15598
3.09785
3.04909
3.02241
2.98255
3.05776
3.41799
4.05073
4.59344
4.90603
4.94223
4.86654
4.73163
4.60221
4.50623
4.41199
4.28162
4.12629
3.98449
3.88777
3.81929
3.75574
3.6909
3.61981
3.54117
3.45482
3.36503
3.28179
3.21509
3.16272
3.11069
3.04871
2.97791
2.91646
2.86895
2.82291
2.77593
2.72158
2.65718
2.6248
2.68043
2.89414
3.21895
3.53697
3.70761
3.70833
2.55832
3.36881
3.67105
3.71224
3.74681
3.76186
3.74824
3.74959
4.02673
5.4065
7.58381
8.50044
8.43855
8.12676
7.65062
7.10426
6.55493
6.04996
5.60595
5.21579
4.86542
4.55502
4.28171
4.02819
3.78578
3.55391
3.33241
3.12627
2.93401
2.74757
2.57504
2.43885
2.34001
2.23815
2.11529
2.0219
1.94782
1.86192
1.76235
1.66631
1.60656
1.55132
1.55428
1.72778
2.24617
2.94375
3.40942
3.45839
3.39914
3.25038
3.11387
3.06
3.04817
3.11624
3.39448
3.92731
4.71482
5.05021
5.0042
4.96755
4.92831
4.8547
4.74676
4.61651
4.49663
4.38885
4.26912
4.13823
4.01308
3.91007
3.8295
3.75758
3.69001
3.62135
3.54112
3.44377
3.34638
3.27136
3.22046
3.18013
3.13443
3.07734
3.01352
2.94396
2.87758
2.81223
2.74767
2.69278
2.64625
2.59053
2.55851
2.58962
2.73856
3.01665
3.34022
3.53488
1.40612
2.22766
3.25584
3.59376
3.68427
3.74082
3.89051
4.64264
6.56253
8.82253
9.84136
9.73158
9.03847
8.29423
7.80674
7.3678
6.86203
6.3149
5.80413
5.36874
4.99369
4.64808
4.33776
4.0734
3.84396
3.62226
3.39329
3.17423
2.97672
2.80488
2.66186
2.52402
2.36836
2.25213
2.18878
2.11188
2.00619
1.8846
1.77778
1.69029
1.61206
1.53625
1.48056
1.45872
1.52552
1.84871
2.48828
3.06598
3.22553
3.19636
3.1253
3.13406
3.35287
3.90981
4.58752
5.19106
5.55089
5.52397
5.29089
4.9974
4.85076
4.78376
4.70274
4.60882
4.49571
4.38571
4.27488
4.16416
4.04739
3.93539
3.84149
3.76087
3.6807
3.60396
3.52756
3.43542
3.34932
3.28579
3.22811
3.17704
3.13388
3.09004
3.03561
2.96677
2.89474
2.82739
2.76023
2.68733
2.61866
2.56891
2.53912
2.51142
2.51481
2.59791
2.78354
3.13853
1.0292
1.22229
2.03537
2.90648
3.50837
4.59344
5.66988
7.8309
9.34009
9.80093
9.8399
9.71704
9.27987
8.65458
8.08863
7.5672
7.02861
6.47136
5.95217
5.51729
5.1425
4.77857
4.42908
4.13471
3.8719
3.63741
3.41313
3.19873
2.99572
2.83327
2.71237
2.58728
2.43285
2.30425
2.18575
2.05946
1.93997
1.84282
1.76894
1.71003
1.63397
1.54395
1.47473
1.43609
1.40244
1.41249
1.5861
2.10163
2.65087
3.05286
3.35957
3.76329
4.58641
5.21502
5.4446
5.58296
5.5598
5.49356
5.30663
5.09327
4.91337
4.7771
4.65856
4.59086
4.52932
4.43135
4.30497
4.18353
4.07089
3.97522
3.89017
3.7954
3.69685
3.59622
3.50558
3.44656
3.39878
3.33907
3.26854
3.19494
3.1321
3.07865
3.03672
2.9963
2.94465
2.87719
2.79696
2.71532
2.63839
2.57941
2.53818
2.49315
2.461
2.45205
2.48096
2.71428
1.00048
1.00889
1.18945
1.80969
3.69787
6.34676
7.99112
9.96119
11.0116
10.4371
9.87391
9.66334
9.40709
9.00372
8.36258
7.65342
7.03064
6.49488
6.01181
5.56018
5.14628
4.86693
4.63413
4.34888
4.04753
3.75762
3.48239
3.23935
3.04379
2.85717
2.67923
2.59796
2.53533
2.40841
2.23169
2.06403
1.93957
1.86431
1.80009
1.71696
1.63218
1.5873
1.53837
1.4767
1.39924
1.3405
1.34363
1.44911
1.80931
2.81915
3.963
4.80211
5.69718
6.07962
5.99944
5.86217
5.59294
5.34418
5.22709
5.12589
4.97906
4.81382
4.67
4.55883
4.46162
4.38793
4.32311
4.23818
4.12663
3.99713
3.86717
3.7695
3.70096
3.62675
3.542
3.45544
3.36216
3.29324
3.24481
3.19045
3.13277
3.08207
3.03702
2.99072
2.93301
2.8607
2.77471
2.69336
2.63517
2.58102
2.52892
2.48711
2.45206
2.41569
2.39722
2.48613
1.00036
1.01954
1.15105
2.00234
3.6315
5.74906
8.41368
9.97644
10.9781
10.6892
10.1032
9.65165
9.28478
8.77936
8.14014
7.47483
6.92297
6.50564
6.11454
5.68118
5.26731
4.88426
4.52619
4.22126
3.92726
3.65822
3.49121
3.34168
3.1567
2.95042
2.77053
2.61752
2.47076
2.32058
2.14517
2.055
2.00723
1.94856
1.87792
1.78136
1.66641
1.56104
1.4817
1.42316
1.37489
1.33036
1.33582
1.43962
1.927
2.74721
3.93694
5.0796
5.65956
6.02803
6.02286
5.79403
5.4828
5.26482
5.19086
5.14274
5.02856
4.85092
4.69776
4.57777
4.46992
4.37957
4.27928
4.18129
4.08589
3.97968
3.87418
3.78411
3.68805
3.59497
3.52082
3.44572
3.35835
3.27809
3.23952
3.20914
3.16926
3.12025
3.06714
3.00991
2.94631
2.86809
2.77861
2.69533
2.6345
2.59066
2.55112
2.51372
2.47198
2.42086
2.39537
2.46668
1.02292
1.28924
2.00505
3.14436
3.42826
4.06908
5.99003
7.79162
9.56335
10.0856
10.0469
9.75546
9.20778
8.51717
7.92021
7.41509
6.93236
6.42939
5.93097
5.49626
5.13979
4.81
4.49755
4.20823
3.94049
3.68663
3.42885
3.19142
2.99896
2.83444
2.68842
2.55056
2.41618
2.28294
2.15563
2.04831
1.94308
1.85457
1.78589
1.72506
1.65197
1.56354
1.47446
1.42461
1.38973
1.399
1.56888
2.01866
2.72062
2.92954
3.3276
4.04804
4.56405
5.21479
5.46894
5.50129
5.49281
5.40925
5.28419
5.11689
4.93729
4.82203
4.74729
4.64728
4.51019
4.37058
4.25439
4.1655
4.09255
4.01338
3.92268
3.81385
3.69966
3.6053
3.53396
3.46324
3.38052
3.30933
3.24632
3.18513
3.13034
3.07795
3.02484
2.96771
2.89904
2.83326
2.7669
2.70468
2.65328
2.60078
2.53621
2.48294
2.46976
2.45463
2.48194
2.73758
1.38176
2.36089
3.14414
3.65968
3.69457
3.71629
3.94205
4.68491
6.52827
8.84922
9.91873
9.70937
8.90966
8.16161
7.67543
7.28323
6.84179
6.34502
5.86874
5.451
5.07194
4.71731
4.39341
4.09609
3.82355
3.58031
3.3478
3.12803
2.93964
2.80209
2.68604
2.5625
2.42409
2.26291
2.11531
2.01192
1.93271
1.85114
1.75865
1.70125
1.67006
1.60915
1.54143
1.48701
1.54295
1.85586
2.43279
2.98476
3.23373
3.20317
3.16984
3.21363
3.39316
3.86662
4.53115
5.13226
5.46146
5.46162
5.33137
5.10876
4.92307
4.82787
4.73617
4.60683
4.45792
4.32899
4.22978
4.144
4.05899
3.9747
3.8889
3.80093
3.70893
3.60371
3.49189
3.39616
3.32479
3.27634
3.23175
3.17963
3.12636
3.07962
3.03642
2.96447
2.85937
2.78826
2.75922
2.73328
2.68998
2.62561
2.56583
2.51431
2.51429
2.57755
2.74807
3.13507
2.62341
3.50836
3.58462
3.64939
3.69419
3.72288
3.72875
3.75017
4.00399
5.32823
7.58873
8.50381
8.33693
8.00536
7.54561
7.09974
6.62372
6.15511
5.71903
5.31229
4.93092
4.57603
4.257
3.97462
3.71962
3.48615
3.28046
3.10489
2.9446
2.7864
2.62579
2.47063
2.33001
2.22572
2.13805
2.03908
1.92843
1.81822
1.74369
1.68851
1.63961
1.58539
1.59943
1.75853
2.28671
2.9533
3.31884
3.43109
3.40056
3.29913
3.17808
3.12034
3.07125
3.11966
3.33055
3.87584
4.55412
5.04223
5.09172
5.06465
5.00176
4.89314
4.74938
4.57002
4.41745
4.30848
4.22311
4.14112
4.05589
3.97358
3.90038
3.82841
3.73429
3.60032
3.45825
3.35988
3.30783
3.2721
3.23833
3.20429
3.16342
3.10554
3.01556
2.91091
2.83035
2.77531
2.73068
2.69204
2.6602
2.64096
2.6038
2.60925
2.70371
2.93302
3.19127
3.43547
3.56578
3.78468
3.76816
3.72004
3.7096
3.71129
3.69668
3.65684
3.54315
3.5603
4.19153
5.75413
7.27374
7.65445
7.41238
6.83621
6.28694
5.84508
5.4689
5.11292
4.76734
4.43578
4.13285
3.85992
3.61392
3.3937
3.20024
3.02374
2.86083
2.71802
2.59073
2.46168
2.3257
2.18769
2.06525
1.97447
1.90438
1.83918
1.76499
1.71837
1.67402
1.72948
2.07323
2.75248
3.47875
3.68082
3.63116
3.51312
3.40286
3.31731
3.2325
3.1573
3.07221
3.00193
2.9206
2.97792
3.32202
3.99132
4.66066
5.0144
5.01394
4.91157
4.71086
4.53076
4.41166
4.32013
4.23354
4.14003
4.04634
3.96285
3.89131
3.81581
3.71476
3.57265
3.43485
3.35774
3.31317
3.27674
3.24369
3.21008
3.17015
3.10914
2.99675
2.86879
2.79006
2.73998
2.71166
2.69429
2.68935
2.7008
2.75966
2.91161
3.19188
3.43173
3.53642
3.5714
3.61639
3.68745
3.7472
3.76395
3.75022
3.72445
3.67329
3.58851
3.42284
3.2288
3.0177
3.21678
4.25596
5.7321
6.45788
6.37432
6.00921
5.60945
5.24672
4.90574
4.57495
4.2565
3.96631
3.70634
3.47676
3.27653
3.11521
2.97668
2.83598
2.68219
2.53143
2.38231
2.24509
2.13022
2.05289
1.98852
1.91062
1.84627
1.77447
1.77994
1.97322
2.56307
3.32815
3.86864
3.9575
3.913
3.75429
3.57561
3.455
3.36714
3.2878
3.20599
3.11258
2.99782
2.88934
2.80752
2.81629
3.00371
3.53373
4.22024
4.63618
4.67103
4.63535
4.56573
4.45541
4.34175
4.22743
4.12708
4.03695
3.9559
3.88151
3.79913
3.68821
3.53951
3.41157
3.35568
3.31926
3.28697
3.25706
3.22322
3.17771
3.09913
2.96839
2.8204
2.75493
2.73133
2.7264
2.73743
2.79716
2.95383
3.18124
3.48577
3.71429
3.75304
3.71618
3.58388
3.76343
3.74633
3.74868
3.74479
3.73074
3.6954
3.61154
3.45433
3.24477
2.99216
2.75359
2.49337
2.53069
3.04092
4.29343
5.44727
5.59775
5.3909
5.01357
4.64106
4.31651
4.04155
3.80443
3.59294
3.39961
3.20963
3.0322
2.87837
2.73517
2.59203
2.46304
2.34179
2.2413
2.13959
2.05246
1.97831
1.92068
1.86982
1.95557
2.41189
3.24626
3.97399
4.23357
4.20672
4.05309
3.87669
3.7305
3.61367
3.52603
3.43829
3.34653
3.25494
3.15552
3.03457
2.90529
2.81312
2.77285
2.75501
2.82358
3.15597
3.70154
4.22033
4.53404
4.5512
4.46447
4.32508
4.20911
4.12284
4.04578
3.96863
3.87938
3.77373
3.65434
3.52275
3.42116
3.36589
3.32278
3.28258
3.24377
3.19982
3.14295
3.06345
2.95389
2.83033
2.77535
2.77265
2.78576
2.87921
3.13679
3.4491
3.73152
3.90158
3.91332
3.88448
3.79105
3.60399
3.70298
3.70086
3.7148
3.71524
3.69739
3.63013
3.47489
3.25701
3.01463
2.73068
2.47891
2.2979
2.12263
1.99895
2.23776
3.1119
4.32682
4.81043
4.69379
4.38615
4.07687
3.83123
3.62798
3.44695
3.26795
3.08455
2.91249
2.79673
2.69369
2.58846
2.4694
2.34273
2.21858
2.11678
2.04539
1.98636
2.00065
2.26499
3.06699
4.00308
4.52732
4.55211
4.50331
4.31897
4.07378
3.86212
3.73396
3.65498
3.5864
3.50277
3.40322
3.29545
3.18725
3.06799
2.94981
2.85603
2.78635
2.73183
2.69597
2.70092
2.8261
3.21449
3.76737
4.20434
4.24782
4.2558
4.23167
4.15522
4.06998
3.97909
3.87514
3.75829
3.64051
3.52312
3.42452
3.3619
3.31094
3.26076
3.2128
3.16142
3.10184
3.03501
2.95527
2.86477
2.8293
2.85036
2.9747
3.28529
3.64782
3.89212
4.0457
4.06709
4.04161
3.96814
3.83586
3.63314
3.69392
3.70531
3.72007
3.71523
3.6581
3.49998
3.28148
3.02888
2.69145
2.41557
2.28433
2.11276
1.85611
1.65296
1.57972
1.69732
2.29131
3.4453
4.1856
4.13801
3.90668
3.66622
3.4546
3.2827
3.13786
3.0048
2.86411
2.75902
2.65375
2.54934
2.4354
2.32997
2.2206
2.13535
2.09031
2.1918
2.71403
3.79827
4.75363
4.8995
4.85197
4.66513
4.47767
4.29947
4.10327
3.91613
3.78432
3.70158
3.62969
3.55341
3.46162
3.35009
3.21644
3.06276
2.94511
2.86784
2.8086
2.75682
2.69644
2.65085
2.59433
2.62323
2.84323
3.34096
3.82451
4.06875
4.18507
4.16938
4.09522
3.98021
3.86173
3.7549
3.65107
3.53911
3.42676
3.34016
3.27913
3.22458
3.17293
3.1207
3.06831
3.01687
2.9859
2.95589
2.9886
3.14635
3.47573
3.82013
3.9636
4.07182
4.11286
4.08797
4.03015
3.94397
3.83288
3.66183
3.72703
3.73572
3.72609
3.67933
3.53467
3.29191
2.9956
2.6526
2.39307
2.19406
2.00923
1.75109
1.53192
1.48467
1.42965
1.29313
1.30891
1.69532
2.69836
3.47778
3.66465
3.5613
3.36648
3.19974
3.07845
2.96078
2.8266
2.71786
2.64575
2.56033
2.45604
2.36064
2.25907
2.27029
2.57526
3.49785
4.57891
5.27387
5.31958
5.20718
4.908
4.64526
4.448
4.2885
4.13666
3.9862
3.85179
3.74957
3.67053
3.59752
3.51218
3.39163
3.22442
3.0575
2.96192
2.90144
2.83921
2.77754
2.71615
2.66268
2.60313
2.49999
2.48545
2.60197
2.98349
3.42462
3.82875
3.96496
3.96341
3.93109
3.84449
3.75509
3.66485
3.56021
3.43698
3.31939
3.23754
3.18354
3.13782
3.0988
3.07408
3.05814
3.09787
3.21545
3.46068
3.78876
4.02693
4.09329
4.12544
4.13726
4.09695
4.03659
3.97039
3.89177
3.80695
3.68856
3.72962
3.72952
3.69716
3.5586
3.29962
2.94183
2.62549
2.3521
2.08153
1.84168
1.65042
1.4805
1.38705
1.33551
1.2349
1.0783
1.03978
1.07677
1.37398
2.20291
3.06847
3.4149
3.38595
3.26617
3.13036
2.99814
2.85968
2.74159
2.6806
2.61386
2.5338
2.4654
2.58312
3.2038
4.50779
5.50846
5.65356
5.56992
5.33993
5.10499
4.8676
4.66172
4.47946
4.32483
4.1899
4.06238
3.9388
3.82211
3.71697
3.62212
3.53533
3.41898
3.23532
3.06514
2.97682
2.92129
2.86912
2.81699
2.7537
2.67236
2.56896
2.46772
2.42689
2.41137
2.46024
2.66304
3.06357
3.54275
3.74184
3.84792
3.8398
3.78369
3.70776
3.59366
3.45287
3.31198
3.20298
3.14747
3.11292
3.10444
3.12803
3.26741
3.52354
3.90354
4.20211
4.27999
4.24449
4.19104
4.16054
4.11963
4.06926
4.01179
3.94868
3.8637
3.79811
3.71154
3.73374
3.71077
3.58542
3.30561
2.91067
2.59122
2.29114
1.93265
1.69572
1.55448
1.4023
1.25658
1.20294
1.13429
1.02644
0.967588
0.948801
0.936901
0.956184
1.18487
1.94676
2.85346
3.31405
3.31082
3.24648
3.11927
2.97637
2.83745
2.78309
2.72562
2.74862
3.05934
4.15324
5.43022
6.23777
6.21099
5.9665
5.58392
5.2737
5.02113
4.85113
4.70952
4.55339
4.39295
4.24607
4.10924
3.98361
3.90119
3.81731
3.70084
3.54798
3.38526
3.2357
3.11376
3.02555
2.95822
2.89837
2.83869
2.77498
2.67949
2.55167
2.46014
2.41062
2.37972
2.3582
2.35651
2.44494
2.77052
3.19172
3.52991
3.67845
3.6781
3.63573
3.55646
3.44295
3.29949
3.18779
3.1525
3.14882
3.19387
3.4298
3.82109
4.24251
4.52513
4.5881
4.54198
4.41375
4.27295
4.16991
4.08791
4.01557
3.95747
3.90633
3.84182
3.79488
3.71777
3.73761
3.62213
3.33904
2.88629
2.49868
2.19715
1.81758
1.56454
1.45046
1.27737
1.12376
1.09606
1.0746
1.00951
0.95154
0.952268
0.944835
0.931052
0.936564
0.959296
1.1376
1.80171
2.77319
3.29038
3.31759
3.28538
3.18074
3.04445
2.95156
3.04996
3.65242
5.12989
6.41689
6.58984
6.50041
6.24652
5.96163
5.63798
5.32964
5.05311
4.86215
4.76117
4.65267
4.52914
4.39968
4.2554
4.10021
3.93716
3.78136
3.63308
3.48506
3.34776
3.24057
3.16388
3.10214
3.04461
2.9791
2.90623
2.79787
2.65018
2.53185
2.46623
2.41584
2.37411
2.32995
2.30626
2.27981
2.32213
2.52936
2.88373
3.29104
3.52434
3.55484
3.52985
3.43511
3.32207
3.22613
3.23478
3.33244
3.61119
4.06745
4.43487
4.63371
4.64567
4.63063
4.57804
4.47519
4.34665
4.21856
4.09691
3.97354
3.90764
3.86997
3.84612
3.82811
3.76138
3.66153
3.35019
2.85274
2.3543
2.0185
1.6931
1.40143
1.25053
1.12788
0.993195
0.957187
0.948801
0.927755
0.91786
0.921888
0.939404
0.963552
0.971094
0.97461
0.989101
1.01511
1.14065
1.7085
2.63551
3.27443
3.32093
3.30826
3.33167
3.57791
4.57222
6.11743
7.14222
7.24288
6.99899
6.49691
6.11962
5.85894
5.62601
5.37136
5.12344
4.95099
4.81615
4.67615
4.53047
4.37573
4.21625
4.05618
3.90276
3.75477
3.60496
3.4642
3.35927
3.28916
3.2243
3.15139
3.05617
2.94183
2.84324
2.74169
2.62018
2.54027
2.49786
2.45365
2.40529
2.35941
2.31123
2.26318
2.20806
2.19348
2.26785
2.55375
2.94035
3.24091
3.41222
3.39604
3.39505
3.45354
3.65694
3.95921
4.36825
4.62578
4.70471
4.75304
4.73461
4.65577
4.56376
4.47911
4.3783
4.25306
4.09644
3.95601
3.89793
3.85949
3.81886
3.7892
3.72584
3.36731
2.73338
2.12612
1.80591
1.51186
1.2005
1.10856
1.0614
0.992778
0.946905
0.938725
0.928031
0.91763
0.919308
0.94165
0.982181
1.01192
1.01739
1.01725
1.02472
1.02062
1.02431
1.09295
1.5718
2.59901
3.04783
3.52386
4.27213
5.59968
6.71687
7.51385
7.45595
7.10626
6.73557
6.42642
6.12065
5.86246
5.67969
5.48919
5.29684
5.11482
4.93152
4.75612
4.59189
4.43066
4.26074
4.07621
3.89785
3.74108
3.61386
3.5302
3.46728
3.40179
3.32879
3.24191
3.12849
2.98162
2.82267
2.70765
2.64475
2.6075
2.57132
2.52912
2.4822
2.43739
2.38219
2.31184
2.21901
2.11147
2.06308
2.10886
2.31085
2.63419
3.04446
3.34346
3.71128
4.13385
4.54231
4.75384
4.82905
4.81255
4.74083
4.68046
4.64201
4.60361
4.54544
4.47634
4.40306
4.29232
4.10786
3.96141
3.90504
3.86337
3.82265
3.79133
3.72773
2.64512
1.67079
1.14657
0.874333
0.66648
0.619327
0.652217
0.746248
0.79261
0.83464
0.913425
0.978504
0.982592
0.989123
1.01519
1.05397
1.07186
1.07239
1.07101
1.06895
1.05583