/*--------------------------------*- C++ -*----------------------------------*\
  =========                 |
  \\      /  F ield         | OpenFOAM: The Open Source CFD Toolbox
   \\    /   O peration     | Website:  https://openfoam.org
    \\  /    A nd           | Version:  7
     \\/     M anipulation  |
\*---------------------------------------------------------------------------*/
FoamFile
{
    version     2.0;
    format      ascii;
    class       volScalarField;
    location    "3.5";
    object      rho;
}
// * * * * * * * * * * * * * * * * * * * * * * * * * * * * * * * * * * * * * //

dimensions      [1 -3 0 0 0 0 0];

internalField   nonuniform List<scalar> 
4608
(
1.40001
1.40001
1.40001
1.40001
1.40001
1.40001
1.40001
1.40001
1.40001
1.40001
1.40001
1.40001
1.40001
1.40001
1.40001
1.40001
1.40001
1.40001
1.40001
1.40001
1.40001
1.40001
1.40001
1.40001
1.40001
1.40001
1.40001
1.40001
1.40001
1.40001
1.40001
1.40001
1.40001
1.40001
1.40001
1.40001
1.40001
1.40001
1.40001
1.40001
1.40001
1.40001
1.40001
1.40001
1.40001
1.40001
1.40001
1.40001
1.40001
1.40001
1.40001
1.40001
1.40001
1.40001
1.40001
1.40001
1.40001
1.40001
1.40001
1.40001
1.40001
1.40001
1.40001
1.40001
1.40001
1.40001
1.40001
1.40001
1.40001
1.40001
1.40001
1.40001
1.40001
1.40001
1.40001
1.40001
1.40001
1.40001
1.40001
1.40001
1.40001
1.40001
1.40001
1.40001
1.40001
1.40001
1.40001
1.40001
1.40001
1.40001
1.40001
1.40001
1.40001
1.40001
1.40001
1.40001
1.40001
1.40001
1.40001
1.40001
1.40001
1.40001
1.40001
1.40001
1.40001
1.40001
1.40001
1.40001
1.40001
1.40001
1.40001
1.40001
1.40001
1.40001
1.40001
1.40001
1.40001
1.40001
1.40001
1.40001
1.40001
1.40001
1.40001
1.40001
1.40001
1.40001
1.40001
1.40001
1.40001
1.40001
1.40001
1.40001
1.40001
1.40001
1.40001
1.40001
1.40001
1.40001
1.40001
1.40001
1.40001
1.40001
1.40001
1.40001
1.40001
1.40001
1.40001
1.40001
1.40001
1.40001
1.40001
1.40001
1.40001
1.40001
1.40001
1.40001
1.40001
1.40001
1.40001
1.40001
1.40001
1.40001
1.40001
1.40001
1.40001
1.40001
1.40001
1.40001
1.40001
1.40001
1.40001
1.40001
1.40001
1.40001
1.40001
1.40001
1.40001
1.40001
1.40001
1.40001
1.40001
1.40001
1.40001
1.40001
1.40001
1.40001
1.40001
1.40001
1.40001
1.40001
1.40001
1.40001
1.40001
1.40001
1.40001
1.40001
1.40001
1.40001
1.40001
1.40001
1.40001
1.40001
1.40001
1.40001
1.40001
1.40001
1.40001
1.40001
1.40001
1.40001
1.40001
1.40001
1.40001
1.40001
1.40001
1.40001
1.40001
1.40001
1.40001
1.40001
1.40001
1.40001
1.40001
1.40001
1.40001
1.40001
1.40001
1.40001
1.40001
1.40001
1.40001
1.40001
1.40001
1.40001
1.40001
1.40001
1.40001
1.40001
1.40001
1.40001
1.40001
1.40001
1.40001
1.40001
1.40001
1.40001
1.40001
1.40001
1.40001
1.40001
1.40001
1.40001
1.40001
1.40001
1.40001
1.40001
1.40001
1.40001
1.40001
1.40001
1.40001
1.40001
1.40001
1.40001
1.40001
1.40001
1.40001
1.40001
1.40001
1.40001
1.40001
1.40001
1.40001
1.40001
1.40001
1.40001
1.40001
1.40001
1.40001
1.40001
1.40001
1.40001
1.40001
1.40001
1.40001
1.40001
1.40001
1.40001
1.40001
1.40001
1.40001
1.40001
1.40001
1.40001
1.40001
1.40001
1.40001
1.40001
1.40001
1.40001
1.40001
1.40001
1.40001
1.40001
1.40001
1.40001
1.40001
1.40001
1.40001
1.40001
1.40001
1.40001
1.40001
1.40001
1.40001
1.40001
1.40001
1.40001
1.40001
1.40001
1.40001
1.40001
1.40001
1.40001
1.40001
1.40001
1.40001
1.40001
1.40001
1.40001
1.40001
1.40001
1.40001
1.40001
1.40001
1.40001
1.40001
1.40001
1.40001
1.40001
1.40001
1.40001
1.40001
1.40001
1.40001
1.40001
1.40001
1.40001
1.40001
1.40001
1.40001
1.40001
1.40001
1.40001
1.40001
1.40001
1.40001
1.40001
1.40001
1.40001
1.40001
1.40001
1.40001
1.40001
1.40001
1.40001
1.40001
1.40001
1.40001
1.40001
1.40001
1.40001
1.40001
1.40001
1.40001
1.40001
1.40001
1.40001
1.40001
1.40001
1.40001
1.40001
1.40001
1.40001
1.40001
1.40001
1.40001
1.40001
1.40001
1.40001
1.40001
1.40001
1.40001
1.40001
1.40001
1.40001
1.40001
1.40001
1.40001
1.40001
1.40001
1.40001
1.40001
1.40001
1.40001
1.40001
1.40001
1.40001
1.40001
1.40001
1.40001
1.40001
1.40001
1.40001
1.40001
1.40001
1.40001
1.40001
1.40001
1.40001
1.40001
1.40001
1.40001
1.40001
1.40001
1.40001
1.40001
1.40001
1.40001
1.40001
1.40001
1.40001
1.40001
1.40001
1.40001
1.40001
1.40001
1.40001
1.40001
1.40001
1.40001
1.40001
1.40001
1.40001
1.40001
1.40001
1.40001
1.40001
1.40001
1.40001
1.40001
1.40001
1.40001
1.40001
1.40001
1.40001
1.40001
1.40001
1.40001
1.40001
1.40001
1.40001
1.40001
1.40001
1.40001
1.40001
1.40001
1.40001
1.40001
1.40001
1.40001
1.40001
1.40001
1.40001
1.40001
1.40001
1.40001
1.40001
1.40001
1.40001
1.40001
1.40001
1.40001
1.40001
1.40001
1.40001
1.40001
1.40001
1.40001
1.40001
1.40001
1.40001
1.40001
1.40001
1.40001
1.40001
1.40001
1.40001
1.40001
1.40001
1.40001
1.40001
1.40001
1.40001
1.40001
1.40001
1.40001
1.40001
1.40001
1.40001
1.40001
1.40001
1.40001
1.40001
1.40001
1.40001
1.40001
1.40001
1.40001
1.40001
1.40001
1.40001
1.40001
1.40001
1.40001
1.40001
1.40001
1.40001
1.40001
1.40001
1.40001
1.40001
1.40001
1.40001
1.40001
1.40001
1.40001
1.40001
1.40001
1.40001
1.40001
1.40001
1.40001
1.40001
1.40001
1.40001
1.40001
1.40001
1.40001
1.40001
1.40001
1.40001
1.40001
1.40001
1.40001
1.40001
1.40001
1.40001
1.40001
1.40001
1.40001
1.40001
1.40001
1.40001
1.40001
1.40001
1.40001
1.40001
1.40001
1.40001
1.40001
1.40001
1.40001
1.40001
1.40001
1.40001
1.40001
1.40001
1.40001
1.40001
1.40001
1.40001
1.40001
1.40001
1.40001
1.40001
1.40001
1.40001
1.40001
1.40001
1.40001
1.40001
1.40001
1.40001
1.40001
1.40001
1.40001
1.40001
1.40001
1.40001
1.40001
1.40001
1.40001
1.40001
1.40001
1.40001
1.40001
1.40001
1.40001
1.40001
1.40001
1.40001
1.40001
1.40001
1.40001
1.40001
1.40001
1.40001
1.40001
1.40001
1.40001
1.40001
1.40001
1.40001
1.40001
1.40001
1.40001
1.40001
1.40001
1.40001
1.40001
1.40001
1.40001
1.40001
1.40001
1.40001
1.40001
1.40001
1.40001
1.40001
1.40001
1.40001
1.40001
1.40001
1.40001
1.40001
1.40001
1.40001
1.40001
1.40001
1.40001
1.40001
1.40001
1.40001
1.40001
1.40001
1.40001
1.40001
1.40001
1.40001
1.40001
1.40001
1.40001
1.40001
1.40001
1.40001
1.40001
1.40001
1.40001
1.40001
1.40001
1.40001
1.40001
1.40001
1.40001
1.40001
1.40001
1.40001
1.40001
1.40001
1.40001
1.40001
1.40001
1.40001
1.40001
1.40001
1.40001
1.40001
1.40001
1.40001
1.40001
1.40001
1.40001
1.40001
1.40001
1.40001
1.40001
1.40001
1.40001
1.40001
1.40001
1.40001
1.40001
1.40001
1.40001
1.40001
1.40001
1.40001
1.40001
1.40001
1.40001
1.40001
1.40001
1.40001
1.40001
1.40001
1.40001
1.40001
1.40001
1.40001
1.40001
1.40001
1.40001
1.40001
1.40001
1.40001
1.40001
1.40001
1.40001
1.40001
1.40001
1.40001
1.40001
1.40001
1.40001
1.40001
1.40001
1.40001
1.40001
1.40001
1.40001
1.40001
1.40001
1.40001
1.40001
1.40001
1.40001
1.40001
1.40001
1.40001
1.40001
1.40001
1.40001
1.40001
1.40001
1.40001
1.40001
1.40001
1.40001
1.40001
1.40001
1.40001
1.40001
1.40001
1.40001
1.40001
1.40001
1.40001
1.67886
2.0854
2.52465
3.01266
3.41573
3.82665
4.14231
4.41385
4.42259
4.29208
4.03506
3.73061
3.45328
3.35852
3.30342
3.31107
3.32856
3.34819
3.37423
3.39553
3.41566
3.42235
3.42282
3.41929
1.40185
1.42022
1.47582
1.58578
1.80469
2.10397
2.51269
2.9701
3.38762
3.52692
3.65704
3.63374
3.54864
3.46133
3.43672
3.41005
3.38882
3.36827
3.36833
3.38042
3.39901
3.41435
3.41972
3.42007
1.4
1.39998
1.40017
1.4001
1.40337
1.42063
1.49769
1.70586
2.20102
2.87714
3.44171
3.70887
3.76257
3.70689
3.61461
3.47557
3.38403
3.35341
3.34251
3.34701
3.36096
3.38629
3.40538
3.40981
1.4
1.4
1.4
1.4
1.39999
1.40004
1.39997
1.40159
1.4298
1.64613
2.17701
2.92995
3.43009
3.58248
3.53521
3.47726
3.43919
3.39254
3.34293
3.31533
3.31821
3.33057
3.35503
3.37105
1.40001
1.40001
1.40001
1.4
1.4
1.4
1.4
1.4
1.39991
1.40155
1.43145
1.69997
2.27833
3.08776
3.38457
3.49999
3.49482
3.46436
3.36911
3.30913
3.29725
3.29906
3.30947
3.3216
1.40001
1.40001
1.40001
1.40001
1.40001
1.4
1.4
1.4
1.39999
1.39999
1.39992
1.40354
1.46028
1.80596
2.49873
3.17017
3.44232
3.4344
3.40376
3.35779
3.33155
3.31108
3.2932
3.29402
1.40001
1.40001
1.40001
1.40001
1.40001
1.40001
1.40001
1.40001
1.4
1.4
1.39999
1.4
1.40001
1.40877
1.54566
2.01442
2.75058
3.24127
3.41652
3.40893
3.38338
3.34625
3.31178
3.28907
1.40001
1.40001
1.40001
1.40001
1.40001
1.40001
1.40001
1.40001
1.40001
1.40001
1.4
1.4
1.4
1.39997
1.40117
1.42819
1.70343
2.34656
3.04608
3.25769
3.32202
3.32857
3.30446
3.27504
1.40001
1.40001
1.40001
1.40001
1.40001
1.40001
1.40001
1.40001
1.40001
1.40001
1.40001
1.40001
1.4
1.4
1.4
1.4
1.40837
1.5026
2.00081
2.72688
3.25439
3.33649
3.32477
3.30303
1.40001
1.40001
1.40001
1.40001
1.40001
1.40001
1.40001
1.40001
1.40001
1.40001
1.40001
1.40001
1.40001
1.4
1.4
1.4
1.39999
1.40093
1.44721
1.72909
2.45946
3.04815
3.34699
3.35437
1.40001
1.40001
1.40001
1.40001
1.40001
1.40001
1.40001
1.40001
1.40001
1.40001
1.40001
1.40001
1.40001
1.40001
1.40001
1.4
1.4
1.4
1.40033
1.41216
1.60059
2.16766
3.0131
3.20176
1.40001
1.40001
1.40001
1.40001
1.40001
1.40001
1.40001
1.40001
1.40001
1.40001
1.40001
1.40001
1.40001
1.40001
1.40001
1.40001
1.4
1.4
1.4
1.40002
1.40652
1.49806
1.99611
2.76713
1.40001
1.40001
1.40001
1.40001
1.40001
1.40001
1.40001
1.40001
1.40001
1.40001
1.40001
1.40001
1.40001
1.40001
1.40001
1.40001
1.40001
1.4
1.4
1.4
1.40001
1.40205
1.45704
1.85995
1.40001
1.40001
1.40001
1.40001
1.40001
1.40001
1.40001
1.40001
1.40001
1.40001
1.40001
1.40001
1.40001
1.40001
1.40001
1.40001
1.40001
1.40001
1.40001
1.4
1.4
1.4
1.40105
1.42965
1.40001
1.40001
1.40001
1.40001
1.40001
1.40001
1.40001
1.40001
1.40001
1.40001
1.40001
1.40001
1.40001
1.40001
1.40001
1.40001
1.40001
1.40001
1.40001
1.40001
1.4
1.4
1.40001
1.4
1.40001
1.40001
1.40001
1.40001
1.40001
1.40001
1.40001
1.40001
1.40001
1.40001
1.40001
1.40001
1.40001
1.40001
1.40001
1.40001
1.40001
1.40001
1.40001
1.40001
1.40001
1.4
1.4
1.4
1.40001
1.40001
1.40001
1.40001
1.40001
1.40001
1.40001
1.40001
1.40001
1.40001
1.40001
1.40001
1.40001
1.40001
1.40001
1.40001
1.40001
1.40001
1.40001
1.40001
1.40001
1.4
1.4
1.4
1.40001
1.40001
1.40001
1.40001
1.40001
1.40001
1.40001
1.40001
1.40001
1.40001
1.40001
1.40001
1.40001
1.40001
1.40001
1.40001
1.40001
1.40001
1.40001
1.40001
1.4
1.4
1.4
1.40012
1.40001
1.40001
1.40001
1.40001
1.40001
1.40001
1.40001
1.40001
1.40001
1.40001
1.40001
1.40001
1.40001
1.40001
1.40001
1.40001
1.40001
1.40001
1.40001
1.4
1.4
1.4
1.40099
1.42993
1.40001
1.40001
1.40001
1.40001
1.40001
1.40001
1.40001
1.40001
1.40001
1.40001
1.40001
1.40001
1.40001
1.40001
1.40001
1.40001
1.40001
1.4
1.4
1.4
1.40001
1.402
1.45748
1.81619
1.40001
1.40001
1.40001
1.40001
1.40001
1.40001
1.40001
1.40001
1.40001
1.40001
1.40001
1.40001
1.40001
1.40001
1.40001
1.40001
1.4
1.4
1.4
1.40002
1.40621
1.50181
1.9926
2.702
1.40001
1.40001
1.40001
1.40001
1.40001
1.40001
1.40001
1.40001
1.40001
1.40001
1.40001
1.40001
1.40001
1.40001
1.40001
1.4
1.4
1.4
1.40031
1.41241
1.59843
2.18112
2.99292
3.19455
1.40001
1.40001
1.40001
1.40001
1.40001
1.40001
1.40001
1.40001
1.40001
1.40001
1.40001
1.40001
1.40001
1.4
1.4
1.4
1.39999
1.40093
1.44684
1.7266
2.4743
3.03766
3.34398
3.35426
1.40001
1.40001
1.40001
1.40001
1.40001
1.40001
1.40001
1.40001
1.40001
1.40001
1.40001
1.40001
1.4
1.4
1.4
1.4
1.40837
1.50288
1.99944
2.72379
3.26316
3.33331
3.32432
3.30202
1.40001
1.40001
1.40001
1.40001
1.40001
1.40001
1.40001
1.40001
1.40001
1.40001
1.4
1.4
1.4
1.39997
1.40117
1.42816
1.70359
2.34766
3.04284
3.25839
3.32348
3.3276
3.30213
3.27467
1.40001
1.40001
1.40001
1.40001
1.40001
1.40001
1.40001
1.40001
1.4
1.4
1.39999
1.4
1.40001
1.40876
1.54568
2.01414
2.75149
3.24034
3.41607
3.40943
3.38441
3.34618
3.31137
3.2892
1.40001
1.40001
1.40001
1.40001
1.40001
1.4
1.4
1.4
1.39999
1.39999
1.39992
1.40354
1.46029
1.80601
2.49854
3.17017
3.44261
3.43432
3.40358
3.35806
3.33194
3.31092
3.29349
3.29446
1.40001
1.40001
1.40001
1.4
1.4
1.4
1.4
1.4
1.39991
1.40155
1.43145
1.69995
2.27837
3.08777
3.38451
3.49999
3.49492
3.46447
3.36865
3.3094
3.29733
3.29898
3.30964
3.32174
1.4
1.4
1.4
1.4
1.39999
1.40004
1.39997
1.40159
1.4298
1.64616
2.17698
2.92997
3.43012
3.58243
3.5352
3.4772
3.4392
3.3927
3.34258
3.31561
3.31837
3.33049
3.3548
3.37103
1.4
1.39998
1.40017
1.4001
1.40337
1.42063
1.49769
1.70586
2.201
2.87718
3.44166
3.70887
3.76257
3.70694
3.6146
3.47541
3.38405
3.35351
3.34249
3.34709
3.36098
3.38621
3.40532
3.40987
1.40185
1.42021
1.47582
1.58579
1.80469
2.10395
2.51271
2.97005
3.38766
3.52693
3.65705
3.63366
3.54869
3.46147
3.43659
3.40994
3.38884
3.36843
3.36841
3.38038
3.39895
3.41436
3.41973
3.42013
1.67885
2.08541
2.52466
3.01263
3.41571
3.82669
4.14233
4.4138
4.4226
4.2921
4.03504
3.73062
3.4534
3.35858
3.30329
3.31107
3.32866
3.34819
3.3741
3.39536
3.41559
3.42239
3.42289
3.41938
2.65454
1.90689
1.45098
1.1788
0.954428
0.90117
0.928819
1.01753
1.06617
1.10805
1.1842
1.25279
1.25819
1.26396
1.28688
1.32474
1.34488
1.34604
1.34516
1.3433
1.33208
1.32243
1.32567
1.3895
1.71625
2.57012
3.66547
4.81064
5.78622
5.98163
5.66711
5.15389
4.79447
4.64181
4.53754
4.44045
4.33588
4.22539
4.11413
3.99017
3.8434
3.69227
3.5749
3.49679
3.43576
3.37927
3.32507
3.26517
3.19123
3.10206
3.00376
2.89706
2.79536
2.72424
2.67568
2.63652
2.60448
2.57795
2.54873
2.51122
2.46271
2.40099
2.32199
2.23173
2.16745
2.12536
2.09647
2.0797
2.06241
2.04972
2.03877
2.07152
2.15579
2.383
2.77345
3.20241
3.55142
3.85171
4.03277
3.99862
3.92083
3.81515
3.70455
3.6157
3.54756
3.4755
3.39644
3.34403
3.31267
3.28527
3.26121
3.23824
3.21478
3.18503
3.14407
3.03665
3.15395
2.71657
2.27021
2.01587
1.77549
1.5166
1.42317
1.37181
1.30172
1.25115
1.24205
1.23194
1.21807
1.21858
1.23927
1.27831
1.30747
1.3123
1.31125
1.31698
1.31356
1.31629
1.38548
1.78779
2.42797
2.74446
3.06166
3.47974
4.20481
4.8346
5.15831
5.08893
4.89318
4.70614
4.57475
4.45905
4.35243
4.25002
4.13822
4.00604
3.85791
3.71836
3.61282
3.54035
3.47618
3.41693
3.36036
3.2983
3.22135
3.12837
3.0275
2.92386
2.83328
2.76894
2.7193
2.67749
2.64115
2.60803
2.57355
2.5339
2.48649
2.42491
2.34486
2.25566
2.19606
2.16254
2.13228
2.10923
2.09076
2.09662
2.1536
2.28329
2.50086
2.6934
2.81694
2.99219
3.22059
3.40664
3.6387
3.74318
3.7954
3.78092
3.72453
3.63856
3.55583
3.48389
3.41731
3.35975
3.31893
3.29022
3.27179
3.25318
3.22885
3.19619
3.15122
3.05034
3.34179
3.13902
2.80013
2.43751
2.18504
1.93403
1.68786
1.55203
1.44079
1.31446
1.28015
1.27156
1.25014
1.23801
1.24148
1.2581
1.28126
1.28788
1.29056
1.30336
1.32747
1.43137
1.91581
2.55575
2.87876
2.90897
2.92269
2.94152
3.09893
3.68005
4.50518
4.90858
4.93746
4.80205
4.56336
4.38975
4.28877
4.19813
4.09151
3.96519
3.84256
3.72984
3.61722
3.50695
3.41279
3.33716
3.274
3.21806
3.15564
3.07906
2.99296
2.91037
2.83688
2.76606
2.6972
2.64062
2.59254
2.54818
2.50554
2.46295
2.42178
2.37108
2.30648
2.24488
2.20185
2.16176
2.12383
2.11403
2.12618
2.20824
2.40844
2.64786
2.83724
2.86591
2.84453
2.84598
2.89407
3.03787
3.2749
3.52509
3.65126
3.71538
3.70987
3.65615
3.56439
3.4808
3.40995
3.36554
3.33143
3.29766
3.26013
3.22492
3.19098
3.15395
3.11051
3.03475
3.36694
3.29891
3.11925
2.81363
2.5378
2.31942
2.02875
1.82116
1.72732
1.58118
1.44299
1.41677
1.39633
1.33529
1.27742
1.27725
1.26996
1.25586
1.2607
1.28287
1.42885
1.94823
2.65864
2.86789
2.89706
2.89401
2.84572
2.77775
2.72982
2.79463
3.16759
3.91314
4.528
4.57966
4.54563
4.42269
4.29313
4.16244
4.05262
3.96059
3.85981
3.75269
3.6301
3.50945
3.40074
3.30886
3.23429
3.17397
3.11937
3.06464
3.00726
2.94489
2.87347
2.7846
2.70209
2.63743
2.58331
2.53313
2.4855
2.43726
2.3813
2.32958
2.28437
2.24598
2.21445
2.18392
2.15438
2.17761
2.30877
2.56814
2.80439
2.93968
2.96498
2.94501
2.89383
2.83542
2.81453
2.83228
2.90698
3.07036
3.26558
3.46367
3.57058
3.56125
3.52987
3.48738
3.44069
3.39934
3.35987
3.32122
3.27742
3.23304
3.18024
3.11845
3.08858
3.0509
3.33971
3.33008
3.25618
3.07935
2.81645
2.59589
2.38073
2.11245
1.92648
1.81284
1.68381
1.55598
1.5072
1.44665
1.348
1.29151
1.27219
1.26072
1.27537
1.47102
2.00828
2.70405
2.90355
2.87502
2.82857
2.77848
2.71778
2.65482
2.61275
2.55791
2.57074
2.74979
3.34141
4.02378
4.39971
4.3995
4.28264
4.09161
3.94586
3.8618
3.7891
3.71845
3.63958
3.52932
3.40534
3.29263
3.20954
3.14944
3.08895
3.02475
2.95872
2.89483
2.83097
2.76331
2.69685
2.64068
2.58839
2.53861
2.48696
2.41328
2.33018
2.28723
2.26855
2.2487
2.24243
2.26192
2.32718
2.50852
2.75529
2.97117
3.01332
3.0129
2.99238
2.95562
2.90725
2.85882
2.81399
2.78668
2.74938
2.76043
2.8459
3.01591
3.2592
3.43167
3.47225
3.49246
3.46643
3.41373
3.36155
3.31847
3.27239
3.21578
3.14803
3.09135
3.06859
3.03237
3.31199
3.31731
3.30251
3.2211
3.05983
2.82623
2.60882
2.41686
2.21998
2.03722
1.88379
1.74275
1.66198
1.61857
1.53372
1.39249
1.3546
1.38648
1.6171
2.2181
2.78412
2.96816
2.93531
2.84513
2.75371
2.68955
2.63105
2.57225
2.52255
2.4655
2.42046
2.38321
2.45564
2.85221
3.54042
4.0875
4.13749
4.05476
3.93237
3.84681
3.76653
3.67977
3.59462
3.5117
3.41376
3.29945
3.18525
3.11032
3.05509
3.0039
2.95085
2.88393
2.81107
2.7609
2.71655
2.67155
2.62128
2.55909
2.47154
2.37063
2.30954
2.27843
2.26633
2.26965
2.31025
2.47204
2.73795
2.99414
3.11272
3.10942
3.08817
3.057
3.01375
2.96929
2.92818
2.8868
2.83887
2.78332
2.73066
2.66435
2.65676
2.69507
2.82804
3.0803
3.28421
3.39757
3.4236
3.41985
3.39948
3.35422
3.28258
3.20449
3.12833
3.07788
3.05904
3.0273
3.29487
3.30398
3.30234
3.27839
3.19203
3.04056
2.84924
2.61643
2.4364
2.29479
2.15603
1.95619
1.77539
1.73705
1.69476
1.57672
1.58781
1.86831
2.52284
3.04073
3.14017
3.0667
2.94154
2.83083
2.73951
2.67147
2.60319
2.53967
2.47634
2.41848
2.36179
2.32866
2.27875
2.29008
2.4692
3.00173
3.6596
3.92161
3.91174
3.83827
3.71453
3.60425
3.52433
3.46527
3.4055
3.31128
3.19064
3.09434
3.02914
2.97424
2.91655
2.85099
2.78565
2.72552
2.67353
2.62986
2.58147
2.51774
2.44001
2.36807
2.31149
2.29129
2.29607
2.38878
2.64027
2.97096
3.18979
3.24017
3.20833
3.139
3.07336
3.02588
2.99503
2.97034
2.94067
2.90491
2.86103
2.80466
2.73514
2.65093
2.61426
2.61104
2.62873
2.72953
2.95528
3.17787
3.34433
3.39719
3.38589
3.33932
3.25763
3.18251
3.12863
3.08984
3.07177
3.03396
3.27251
3.2793
3.29182
3.29199
3.25809
3.16092
3.02365
2.85961
2.63336
2.43967
2.34689
2.22167
2.02616
1.86749
1.8077
1.89475
2.32259
3.03447
3.44648
3.42522
3.30414
3.14767
3.00907
2.88881
2.78401
2.6992
2.61518
2.53678
2.46393
2.40578
2.34074
2.30019
2.24659
2.20308
2.1624
2.22135
2.56505
3.15528
3.64901
3.70742
3.65659
3.57957
3.507
3.44039
3.36973
3.28555
3.18698
3.08598
3.00669
2.94388
2.8842
2.82123
2.75938
2.70312
2.6554
2.61171
2.56045
2.50023
2.43465
2.37634
2.33186
2.35975
2.51725
2.84116
3.16861
3.35384
3.37149
3.34602
3.24879
3.1294
3.06152
3.01675
2.98969
2.97139
2.94936
2.92522
2.89411
2.83837
2.74533
2.64982
2.60541
2.58851
2.59028
2.60101
2.67222
2.84011
3.05094
3.22848
3.26929
3.24206
3.19587
3.16628
3.14052
3.11543
3.09402
3.04736
3.2835
3.27914
3.28425
3.29367
3.28401
3.23704
3.13608
2.99784
2.8403
2.64949
2.47512
2.34377
2.21982
2.12281
2.27132
2.81803
3.5525
3.81282
3.74963
3.58314
3.40918
3.26868
3.14262
3.01382
2.88393
2.76382
2.65385
2.55871
2.48734
2.42745
2.36276
2.30182
2.24258
2.17694
2.1267
2.07311
2.08252
2.23436
2.68514
3.24327
3.49608
3.55611
3.52597
3.43643
3.34806
3.25906
3.17229
3.07904
2.98687
2.9119
2.85211
2.79588
2.74038
2.68426
2.63296
2.58783
2.54381
2.50104
2.44825
2.41432
2.48665
2.72153
3.06054
3.33406
3.42905
3.4304
3.40116
3.3295
3.23133
3.14073
3.08101
3.0394
3.01031
2.98654
2.95939
2.92735
2.8899
2.83723
2.75219
2.66621
2.61755
2.59514
2.58197
2.58222
2.58541
2.62181
2.71566
2.85418
3.02026
3.10448
3.12482
3.13903
3.15219
3.14823
3.1289
3.07771
3.33426
3.3108
3.3132
3.31647
3.30751
3.28057
3.21941
3.11621
2.98346
2.82083
2.65732
2.47545
2.49345
2.78973
3.50479
4.13434
4.25253
4.13636
3.93173
3.73234
3.55722
3.40651
3.27001
3.13592
3.00302
2.87432
2.74777
2.62623
2.52666
2.43882
2.36189
2.29633
2.24646
2.19064
2.13084
2.06179
2.02908
1.98849
2.03075
2.31073
2.8233
3.23651
3.40307
3.40445
3.34216
3.25703
3.16763
3.06493
2.96222
2.88761
2.83438
2.78499
2.73438
2.67874
2.62887
2.57213
2.54738
2.51291
2.53761
2.68316
3.00411
3.30054
3.50881
3.56972
3.55118
3.47987
3.38662
3.3023
3.22404
3.15827
3.11116
3.07385
3.03892
3.00558
2.97132
2.93313
2.88932
2.83689
2.77347
2.70426
2.64861
2.61493
2.59367
2.58105
2.5736
2.57172
2.56432
2.58972
2.65386
2.81244
2.96052
3.04729
3.12617
3.17347
3.16695
3.11637
3.24087
3.27221
3.30587
3.3329
3.32645
3.308
3.26408
3.20169
3.0949
2.97676
2.82987
2.93669
3.5183
4.3241
4.68153
4.63105
4.45071
4.24925
4.05669
3.87778
3.71041
3.54894
3.39446
3.24683
3.10821
2.97669
2.84745
2.72341
2.61406
2.50932
2.40822
2.31805
2.24274
2.18152
2.13243
2.08235
2.02408
1.96843
1.91112
1.9141
2.0417
2.42402
2.91211
3.2429
3.28524
3.26022
3.16875
3.04519
2.92751
2.86287
2.83176
2.7922
2.7433
2.68784
2.63837
2.58299
2.58299
2.68353
2.96277
3.30335
3.52128
3.59149
3.61907
3.60683
3.55875
3.49223
3.40222
3.30765
3.22576
3.17419
3.14
3.10581
3.0674
3.02654
2.98446
2.93841
2.88733
2.83503
2.7872
2.74076
2.69715
2.65615
2.61606
2.59085
2.57349
2.5571
2.54181
2.51309
2.49016
2.53212
2.68836
2.87291
3.03421
3.14169
3.17033
3.14057
3.19139
3.34948
3.35045
3.34012
3.32267
3.31428
3.2918
3.26014
3.18443
3.19275
3.52332
4.3693
5.15416
5.34751
5.2232
4.91118
4.62063
4.38676
4.1864
4.00118
3.82531
3.65922
3.50282
3.35377
3.21234
3.07438
2.93506
2.79966
2.67418
2.55704
2.45664
2.37553
2.29791
2.21775
2.13446
2.06394
2.01702
1.98019
1.91919
1.86425
1.82065
1.85998
2.0944
2.57025
2.99821
3.15611
3.14157
3.04832
2.92331
2.843
2.78173
2.7452
2.71274
2.69351
2.66163
2.70481
2.91783
3.28435
3.59047
3.76183
3.78505
3.74455
3.67277
3.60192
3.55002
3.49788
3.42331
3.33297
3.25131
3.19759
3.16019
3.12467
3.08704
3.04425
2.99605
2.94305
2.88842
2.83805
2.79789
2.76639
2.73463
2.69603
2.65162
2.61319
2.58348
2.55431
2.52379
2.48736
2.44476
2.42546
2.46228
2.59984
2.80294
2.99462
3.09569
3.09215
2.59774
3.13173
3.30296
3.31891
3.33663
3.34393
3.33232
3.32992
3.48805
4.24035
5.34526
5.80119
5.77255
5.62113
5.38556
5.10949
4.828
4.56545
4.32844
4.11248
3.91228
3.73193
3.57258
3.42373
3.2787
3.13647
2.99677
2.86324
2.73612
2.611
2.49388
2.4003
2.33125
2.25862
2.16829
2.09823
2.04228
1.97722
1.90213
1.82934
1.78397
1.73988
1.74074
1.86452
2.22365
2.67905
2.97724
2.99209
2.95212
2.85653
2.76957
2.73704
2.72416
2.76274
2.92751
3.23714
3.67704
3.8635
3.84078
3.82237
3.80078
3.75943
3.69931
3.62665
3.55995
3.4986
3.429
3.35352
3.28292
3.22562
3.18067
3.13945
3.09904
3.05665
3.00697
2.94697
2.8867
2.84086
2.81033
2.78606
2.75817
2.72279
2.68209
2.63719
2.59442
2.55222
2.51045
2.47451
2.44366
2.4069
2.38806
2.40905
2.50632
2.68286
2.8839
2.99777
1.74302
2.36425
3.05438
3.26048
3.31103
3.34175
3.42938
3.86488
4.89017
5.98678
6.47678
6.4308
6.10472
5.74031
5.49388
5.27069
5.01338
4.7303
4.45925
4.21963
4.00559
3.80295
3.61868
3.46072
3.32245
3.18631
3.04221
2.90105
2.77114
2.65622
2.55896
2.46351
2.35402
2.27064
2.22385
2.16652
2.08758
1.99636
1.91603
1.84944
1.78896
1.72836
1.68439
1.66242
1.71208
1.94748
2.39087
2.76125
2.85372
2.83471
2.78892
2.79273
2.92229
3.24905
3.63107
3.96117
4.15425
4.13962
4.01413
3.85323
3.77188
3.73701
3.69226
3.63821
3.57311
3.50834
3.44269
3.37922
3.31394
3.25151
3.19812
3.15093
3.10225
3.05443
3.00607
2.94839
2.89517
2.85641
2.82121
2.78975
2.7632
2.73592
2.70145
2.65699
2.60972
2.56537
2.52146
2.47402
2.4292
2.39659
2.37765
2.36027
2.3629
2.41731
2.5374
2.75847
1.42715
1.59405
2.22927
2.8246
3.21917
3.83948
4.45342
5.60553
6.29489
6.48747
6.51648
6.46014
6.25399
5.94733
5.66061
5.39436
5.11786
4.82815
4.55196
4.31358
4.10224
3.8915
3.68393
3.5063
3.346
3.20065
3.05845
2.92002
2.78663
2.67777
2.59548
2.50903
2.40003
2.30752
2.22145
2.12863
2.03943
1.96633
1.91029
1.86495
1.80559
1.73354
1.67689
1.64472
1.61623
1.62285
1.75314
2.12208
2.48915
2.74752
2.9369
3.18618
3.66121
3.99521
4.10716
4.18446
4.17297
4.13799
4.0367
3.91758
3.81596
3.74159
3.67699
3.63845
3.60117
3.5424
3.4687
3.39921
3.33507
3.28075
3.23194
3.17611
3.11642
3.05385
2.99619
2.9583
2.92882
2.89263
2.84964
2.80445
2.76523
2.73136
2.70483
2.67868
2.64458
2.59992
2.54706
2.49359
2.44362
2.40541
2.37868
2.34883
2.32919
2.32104
2.33971
2.49043
1.40047
1.4083
1.57208
2.05434
3.33359
4.7969
5.65306
6.6315
7.07333
6.80432
6.54454
6.44664
6.32578
6.12792
5.80762
5.44958
5.12962
4.84893
4.58959
4.34138
4.10826
3.9467
3.80862
3.6375
3.45485
3.2771
3.10411
2.94753
2.8192
2.69442
2.57351
2.5166
2.47107
2.37998
2.25371
2.13227
2.03942
1.98233
1.93346
1.86975
1.80352
1.76697
1.72686
1.67676
1.61348
1.56404
1.56595
1.64666
1.90944
2.59335
3.29561
3.78173
4.27354
4.45244
4.40681
4.33238
4.18947
4.05901
3.99654
3.94112
3.86008
3.76788
3.68755
3.62493
3.56633
3.52141
3.48352
3.43472
3.37036
3.29555
3.22006
3.16209
3.11993
3.07317
3.01982
2.96551
2.90758
2.86548
2.83625
2.80312
2.76731
2.73527
2.70623
2.67584
2.63772
2.58994
2.5333
2.47991
2.44213
2.40713
2.37327
2.34575
2.32245
2.298
2.28291
2.34166
1.40036
1.41852
1.53045
2.20538
3.29634
4.53389
5.85427
6.58143
7.06818
6.93959
6.6622
6.44046
6.26057
6.01332
5.69683
5.36102
5.07683
4.85672
4.64582
4.40831
4.17631
3.95592
3.74464
3.56091
3.38112
3.21489
3.10984
3.0135
2.8929
2.75632
2.63524
2.53038
2.42688
2.31882
2.19202
2.12594
2.08937
2.04468
1.99155
1.91871
1.83032
1.74682
1.6824
1.63417
1.59403
1.55542
1.559
1.63992
2.00239
2.55918
3.29544
3.9225
4.23207
4.42896
4.42331
4.29798
4.12883
4.01228
3.9752
3.95067
3.88905
3.79037
3.70404
3.63451
3.57036
3.51664
3.45766
3.40048
3.34517
3.28428
3.22388
3.17112
3.11238
3.05404
3.00724
2.96009
2.90561
2.85624
2.8332
2.81503
2.79055
2.7598
2.72592
2.68887
2.64682
2.59498
2.53591
2.48125
2.44174
2.41365
2.38825
2.3637
2.33572
2.30115
2.28147
2.328
1.42121
1.64943
2.19877
2.98659
3.16612
3.55928
4.60682
5.51223
6.41458
6.65813
6.62936
6.47545
6.20322
5.86861
5.57781
5.32428
5.07498
4.80805
4.5379
4.2987
4.09887
3.90947
3.7256
3.55186
3.38824
3.23072
3.06773
2.91443
2.7884
2.67897
2.57969
2.48428
2.38915
2.29255
2.19955
2.12104
2.04235
1.97528
1.92306
1.87622
1.81909
1.74889
1.67708
1.6361
1.60577
1.61134
1.7371
2.06077
2.53712
2.67653
2.92536
3.34149
3.62904
3.99645
4.13482
4.14165
4.13293
4.08568
4.01877
3.93043
3.83324
3.76962
3.72722
3.66953
3.58986
3.50771
3.43937
3.38785
3.3464
3.30118
3.24909
3.18573
3.11702
3.05883
3.01437
2.97014
2.91841
2.87427
2.83577
2.79866
2.7651
2.73246
2.69861
2.66163
2.61603
2.57151
2.52673
2.48573
2.45275
2.41961
2.37799
2.34249
2.33326
2.32217
2.33985
2.50426
1.72321
2.44808
2.97917
3.31785
3.31829
3.32525
3.45431
3.87758
4.8795
6.03281
6.51417
6.4125
6.0277
5.66794
5.43277
5.23712
5.00909
4.74507
4.48734
4.25872
4.04899
3.84797
3.65842
3.47924
3.31106
3.15782
3.00919
2.86769
2.74566
2.65553
2.57715
2.49114
2.39325
2.27713
2.16949
2.09364
2.03465
1.97332
1.90296
1.85782
1.83251
1.78363
1.73031
1.68561
1.72587
1.94989
2.3452
2.70498
2.86249
2.84285
2.81916
2.84129
2.94464
3.22284
3.60238
3.92746
4.10196
4.10222
4.03281
3.91438
3.81531
3.76432
3.71257
3.6387
3.55208
3.47605
3.41854
3.37023
3.32253
3.27395
3.2232
3.17075
3.11599
3.05278
2.98413
2.92476
2.88074
2.85094
2.82355
2.79189
2.75972
2.73116
2.70401
2.65703
2.58732
2.53939
2.51952
2.50201
2.47416
2.43357
2.39568
2.36167
2.36137
2.40245
2.51357
2.75663
2.63437
3.20746
3.25176
3.28823
3.30807
3.319
3.3184
3.32879
3.47554
4.2069
5.341
5.7942
5.71683
5.56042
5.337
5.11352
4.86698
4.61901
4.38415
4.16235
3.95209
3.7515
3.56459
3.39327
3.23466
3.08755
2.95765
2.84715
2.7449
2.6412
2.53236
2.42336
2.32265
2.24701
2.18327
2.11139
2.0301
1.94752
1.89008
1.84659
1.80743
1.76403
1.77429
1.88849
2.25094
2.6856
2.91517
2.97681
2.95575
2.88946
2.81093
2.77237
2.73587
2.76346
2.88712
3.20413
3.58876
3.85661
3.891
3.87557
3.84119
3.78265
3.70495
3.60393
3.51577
3.45259
3.40408
3.35849
3.31103
3.26415
3.22107
3.17786
3.12197
3.04204
2.95577
2.8954
2.86357
2.84169
2.821
2.80047
2.77634
2.74145
2.68508
2.61681
2.56303
2.52612
2.49679
2.47213
2.45202
2.44036
2.41738
2.42113
2.48272
2.62971
2.79201
2.93964
3.24356
3.36709
3.3524
3.31511
3.30435
3.30178
3.29022
3.26172
3.18494
3.19184
3.54225
4.38239
5.14338
5.34204
5.22641
4.93896
4.65647
4.42332
4.22156
4.0283
3.83747
3.64938
3.47192
3.30706
3.15517
3.01787
2.89735
2.78724
2.68248
2.58662
2.49862
2.40848
2.31229
2.21448
2.12648
2.06041
2.00904
1.96061
1.9038
1.86728
1.83165
1.87092
2.11121
2.56255
3.00677
3.12446
3.0919
3.01424
2.94198
2.88578
2.82998
2.7808
2.72465
2.67915
2.62262
2.65516
2.86134
3.25192
3.62595
3.82094
3.82225
3.76979
3.66431
3.56484
3.49748
3.44503
3.39573
3.34289
3.29011
3.24286
3.2019
3.15794
3.09877
3.01455
2.93204
2.88508
2.85696
2.83391
2.81349
2.79345
2.77042
2.7342
2.66322
2.5806
2.52945
2.49669
2.47831
2.46826
2.46665
2.47489
2.51383
2.61078
2.78768
2.93474
2.99544
3.01138
3.24829
3.29097
3.32498
3.33363
3.32393
3.30536
3.2686
3.21062
3.10139
2.97479
2.83249
2.9476
3.53636
4.32817
4.70664
4.66732
4.48185
4.27229
4.07699
3.88992
3.70505
3.52293
3.35272
3.19654
3.05611
2.93228
2.83218
2.74515
2.6543
2.55109
2.44764
2.34443
2.24762
2.16617
2.11189
2.06625
2.00986
1.96168
1.90666
1.9092
2.04168
2.43634
2.91297
3.23916
3.27362
3.24474
3.14606
3.03512
2.959
2.90219
2.85008
2.79619
2.73575
2.66245
2.59592
2.53996
2.54296
2.65559
2.96904
3.36056
3.59218
3.62252
3.6068
3.56956
3.50711
3.44223
3.37711
3.32043
3.26941
3.22302
3.18041
3.13328
3.06934
2.98209
2.90566
2.87169
2.84917
2.82923
2.81122
2.79156
2.76537
2.71841
2.63678
2.54201
2.49944
2.48385
2.48157
2.48913
2.5289
2.62943
2.77088
2.95582
3.09721
3.11513
3.09017
3.00589
3.33167
3.31731
3.31595
3.31223
3.30303
3.28068
3.22636
3.12399
2.98643
2.81838
2.65687
2.47653
2.49725
2.80371
3.53092
4.155
4.24642
4.1363
3.92969
3.72088
3.5357
3.37674
3.23776
3.11168
2.99461
2.8778
2.76677
2.66829
2.57489
2.4785
2.39017
2.30599
2.23655
2.16621
2.10592
2.05342
2.01264
1.9739
2.03196
2.33244
2.8569
3.29096
3.42772
3.40861
3.31343
3.20542
3.11494
3.04215
2.98768
2.93258
2.87373
2.81444
2.75096
2.67504
2.59547
2.5368
2.51059
2.49362
2.53453
2.73516
3.05425
3.35521
3.52996
3.54532
3.49835
3.42072
3.3549
3.30633
3.2627
3.21828
3.16666
3.10593
3.03728
2.96066
2.90046
2.86726
2.84134
2.81719
2.79412
2.76819
2.73448
2.68678
2.62007
2.54205
2.50588
2.50349
2.51186
2.57147
2.73263
2.92188
3.08899
3.18966
3.1962