/*--------------------------------*- C++ -*----------------------------------*\
  =========                 |
  \\      /  F ield         | OpenFOAM: The Open Source CFD Toolbox
   \\    /   O peration     | Website:  https://openfoam.org
    \\  /    A nd           | Version:  7
     \\/     M anipulation  |
\*---------------------------------------------------------------------------*/
FoamFile
{
    version     2.0;
    format      ascii;
    class       volScalarField;
    location    "3.5";
    object      T;
}
// * * * * * * * * * * * * * * * * * * * * * * * * * * * * * * * * * * * * * //

dimensions      [0 0 0 1 0 0 0];

internalField   nonuniform List<scalar> 
4608
(
1
1
1
1
1
1
1
1
1
1
1
1
1
1
1
1
1
1
1
1
1
1
1
1
1
1
1
1
1
1
1
1
1
1
1
1
1
1
1
1
1
1
1
1
1
1
1
1
1
1
1
1
1
1
1
1
1
1
1
1
1
1
1
1
1
1
1
1
1
1
1
1
1
1
1
1
1
1
1
1
1
1
1
1
1
1
1
1
1
1
1
1
1
1
1
1
1
1
1
1
1
1
1
1
1
1
1
1
1
1
1
1
1
1
1
1
1
1
1
1
1
1
1
1
1
1
1
1
1
1
1
1
1
1
1
1
1
1
1
1
1
1
1
1
1
1
1
1
1
1
1
1
1
1
1
1
1
1
1
1
1
1
1
1
1
1
1
1
1
1
1
1
1
1
1
1
1
1
1
1
1
1
1
1
1
1
1
1
1
1
1
1
1
1
1
1
1
1
1
1
1
1
1
1
1
1
1
1
1
1
1
1
1
1
1
1
1
1
1
1
1
1
1
1
1
1
1
1
1
1
1
1
1
1
1
1
1
1
1
1
1
1
1
1
1
1
1
1
1
1
1
1
1
1
1
1
1
1
1
1
1
1
1
1
1
1
1
1
1
1
1
1
1
1
1
1
1
1
1
1
1
1
1
1
1
1
1
1
1
1
1
1
1
1
1
1
1
1
1
1
1
1
1
1
1
1
1
1
1
1
1
1
1
1
1
1
1
1
1
1
1
1
1
1
1
1
1
1
1
1
1
1
1
1
1
1
1
1
1
1
1
1
1
1
1
1
1
1
1
1
1
1
1
1
1
1
1
1
1
1
1
1
1
1
1
1
1
1
1
1
1
1
1
1
1
1
1
1
1
1
1
1
1
1
1
1
1
1
1
1
1
1
1
1
1
1
1
1
1
1
1
1
1
1
1
1
1
1
1
1
1
1
1
1
1
1
1
1
1
1
1
1
1
1
1
1
1
1
1
1
1
1
1
1
1
1
1
1
1
1
1
1
1
1
1
1
1
1
1
1
1
1
1
1
1
1
1
1
1
1
1
1
1
1
1
1
1
1
1
1
1
1
1
1
1
1
1
1
1
1
1
1
1
1
1
1
1
1
1
1
1
1
1
1
1
1
1
1
1
1
1
1
1
1
1
1
1
1
1
1
1
1
1
1
1
1
1
1
1
1
1
1
1
1
1
1
1
1
1
1
1
1
1
1
1
1
1
1
1
1
1
1
1
1
1
1
1
1
1
1
1
1
1
1
1
1
1
1
1
1
1
1
1
1
1
1
1
1
1
1
1
1
1
1
1
1
1
1
1
1
1
1
1
1
1
1
1
1
1
1
1
1
1
1
1
1
1
1
1
1
1
1
1
1
1
1
1
1
1
1
1
1
1
1
1
1
1
1
1
1
1
1
1
1
1
1
1
1
1
1
1
1
1
1
1
1
1
1
1
1
1
1
1
1
1
1
1
1
1
1
1
1
1
1
1
1
1
1
1
1
1
1
1
1
1
1
1
1
1
1
1
1
1
1
1
1
1
1
1
1
1
1
1
1
1
1
1
1
1
1
1
1
1
1
1
1
1
1
1
1
1
1
1
1
1
1
1
1
1
1
1
1
1
1
1
1
1
1
1
1
1
1
1
1
1
1
1
1
1
1
1
1
1
1
1
1
1
1
1
1
1
1
1
1
1
1
1
1
1
1
1
1
1
1
1
1
1
1
1
1
1
1
1
1
1
1
1
1
1.07891
1.18145
1.28478
1.39432
1.4853
1.5723
1.64106
1.68193
1.69753
1.68077
1.63813
1.58757
1.54095
1.524
1.51338
1.51484
1.51811
1.52246
1.52819
1.53276
1.5368
1.53803
1.53804
1.53746
1.00063
1.00734
1.029
1.07093
1.14762
1.23017
1.32326
1.40656
1.48447
1.51568
1.55225
1.56709
1.55951
1.5489
1.5446
1.53877
1.53413
1.53182
1.53241
1.535
1.53813
1.54046
1.5406
1.54138
0.999999
0.999992
1.00006
1.00004
1.00129
1.00784
1.03764
1.11538
1.27201
1.4481
1.57018
1.62266
1.62165
1.6087
1.59063
1.56484
1.54896
1.54461
1.54197
1.54234
1.54364
1.5466
1.54777
1.54927
1
1
1
1
0.999995
1.00001
0.999982
1.00062
1.01271
1.11271
1.30737
1.49588
1.60879
1.60979
1.59625
1.58776
1.58357
1.57638
1.56611
1.55745
1.55406
1.55412
1.55527
1.55752
1
1
1
1
1
1
0.999998
0.999999
0.99996
1.0006
1.01416
1.13333
1.34285
1.54821
1.59931
1.61894
1.61748
1.61068
1.59143
1.57655
1.57001
1.5649
1.56505
1.5677
1
1
1
1
1
1
1
1
0.999996
0.999997
0.99996
1.00135
1.02634
1.17698
1.40248
1.56644
1.61638
1.61228
1.60492
1.59573
1.58865
1.58101
1.57635
1.57773
1
1
1
1
1
1
1
1
1
1
0.999996
0.999998
0.999984
1.00344
1.06436
1.24339
1.45812
1.57183
1.60853
1.60735
1.60256
1.59527
1.58815
1.58347
1
1
1
1
1
1
1
1
1
1
1
1
0.999999
0.999986
1.00039
1.0111
1.12831
1.33787
1.51937
1.56814
1.58745
1.58971
1.58531
1.58007
1
1
1
1
1
1
1
1
1
1
1
1
1
0.999998
0.999998
0.99999
1.00304
1.04123
1.22997
1.43698
1.56231
1.58376
1.5835
1.58033
1
1
1
1
1
1
1
1
1
1
1
1
1
1
1
0.999999
0.999992
1.0003
1.0178
1.12863
1.36004
1.5105
1.57184
1.58323
1
1
1
1
1
1
1
1
1
1
1
1
1
1
1
1
0.999999
0.999998
1.00009
1.00435
1.07787
1.27337
1.49042
1.53794
1
1
1
1
1
1
1
1
1
1
1
1
1
1
1
1
1
1
0.999999
1
1.00218
1.03693
1.21692
1.42807
1
1
1
1
1
1
1
1
1
1
1
1
1
1
1
1
1
1
1
1
0.999999
1.00064
1.02097
1.16673
1
1
1
1
1
1
1
1
1
1
1
1
1
1
1
1
1
1
1
1
1
0.999999
1.00031
1.01046
1
1
1
1
1
1
1
1
1
1
1
1
1
1
1
1
1
1
1
1
1
1
1
0.999987
1
1
1
1
1
1
1
1
1
1
1
1
1
1
1
1
1
1
1
1
1
1
1
0.999998
1
1
1
1
1
1
1
1
1
1
1
1
1
1
1
1
1
1
1
1
1
1
1
0.999999
1
1
1
1
1
1
1
1
1
1
1
1
1
1
1
1
1
1
1
1
1
1
1
1.00002
1
1
1
1
1
1
1
1
1
1
1
1
1
1
1
1
1
1
1
1
1
0.999999
1.00029
1.01043
1
1
1
1
1
1
1
1
1
1
1
1
1
1
1
1
1
1
1
1
0.999999
1.00063
1.02077
1.1538
1
1
1
1
1
1
1
1
1
1
1
1
1
1
1
1
1
1
0.999999
1
1.00208
1.03848
1.21376
1.41351
1
1
1
1
1
1
1
1
1
1
1
1
1
1
1
1
0.999999
0.999998
1.00008
1.00443
1.07732
1.27678
1.48411
1.53803
1
1
1
1
1
1
1
1
1
1
1
1
1
1
1
0.999999
0.999992
1.0003
1.01765
1.12804
1.36445
1.50687
1.57076
1.58366
1
1
1
1
1
1
1
1
1
1
1
1
1
0.999998
0.999998
0.99999
1.00304
1.04133
1.22933
1.43633
1.56429
1.58331
1.58309
1.57975
1
1
1
1
1
1
1
1
1
1
1
1
0.999999
0.999986
1.00039
1.01109
1.12841
1.33806
1.51852
1.56838
1.58779
1.58939
1.58479
1.57988
1
1
1
1
1
1
1
1
1
1
0.999996
0.999998
0.999984
1.00344
1.06435
1.24334
1.45842
1.57154
1.60844
1.60747
1.60277
1.59524
1.5881
1.58339
1
1
1
1
1
1
1
1
0.999996
0.999997
0.99996
1.00135
1.02635
1.17699
1.4024
1.56649
1.61644
1.61224
1.60489
1.59579
1.58873
1.58098
1.57639
1.57776
1
1
1
1
1
1
0.999998
0.999999
0.99996
1.0006
1.01416
1.13332
1.34287
1.54821
1.59929
1.61895
1.61749
1.6107
1.59134
1.57655
1.57004
1.5649
1.56509
1.56771
1
1
1
1
0.999995
1.00001
0.999982
1.00062
1.01271
1.11272
1.30737
1.49589
1.6088
1.60979
1.59624
1.58774
1.58357
1.57641
1.56606
1.55749
1.55407
1.55413
1.55526
1.55751
0.999999
0.999992
1.00006
1.00004
1.00129
1.00783
1.03764
1.11538
1.272
1.4481
1.57018
1.62266
1.62165
1.60871
1.59063
1.56481
1.54897
1.54463
1.54196
1.54235
1.54364
1.5466
1.54777
1.54928
1.00063
1.00733
1.029
1.07094
1.14762
1.23016
1.32326
1.40655
1.48447
1.51568
1.55225
1.56708
1.55952
1.54892
1.54458
1.53875
1.53414
1.53185
1.53242
1.53499
1.53812
1.54046
1.5406
1.54139
1.07891
1.18145
1.28479
1.39432
1.48529
1.57231
1.64106
1.68192
1.69753
1.68076
1.63812
1.58757
1.54097
1.524
1.51337
1.51484
1.51812
1.52246
1.52817
1.53273
1.53678
1.53803
1.53805
1.53748
1.39522
1.226
1.10467
1.04081
0.982377
0.961718
0.97971
1.02336
1.04115
1.05465
1.07955
1.09615
1.09508
1.09566
1.1024
1.11197
1.11613
1.1163
1.11589
1.115
1.11027
1.10306
1.10405
1.12918
1.2595
1.52177
1.76603
1.97808
2.13287
2.18299
2.13832
2.05851
1.99788
1.9711
1.95256
1.93614
1.91826
1.89866
1.87843
1.85581
1.8286
1.79996
1.7771
1.76142
1.74905
1.73767
1.72669
1.71436
1.69883
1.67971
1.65825
1.63468
1.61204
1.59583
1.5842
1.57449
1.56639
1.55969
1.55253
1.54362
1.53223
1.51752
1.49794
1.47434
1.45672
1.44496
1.43677
1.43204
1.42728
1.42402
1.4215
1.43184
1.45855
1.52347
1.62134
1.71758
1.79033
1.84932
1.88685
1.88165
1.86798
1.84784
1.82603
1.80866
1.79516
1.78005
1.76269
1.75122
1.74508
1.74048
1.73665
1.73244
1.72756
1.72086
1.71165
1.68842
1.49465
1.40953
1.30971
1.25254
1.19461
1.11011
1.08833
1.08254
1.06792
1.05901
1.05796
1.05564
1.05548
1.0563
1.06315
1.07441
1.08345
1.08635
1.08698
1.09003
1.08835
1.08957
1.11761
1.27723
1.47659
1.55485
1.63084
1.72421
1.86446
1.97689
2.0436
2.03586
2.00931
1.98177
1.96077
1.94128
1.92262
1.90386
1.88353
1.85986
1.83247
1.806
1.78559
1.77087
1.75744
1.74563
1.73444
1.72186
1.70596
1.68646
1.66478
1.64181
1.62153
1.60688
1.59499
1.5846
1.57555
1.56733
1.55897
1.5496
1.53851
1.52388
1.50412
1.48093
1.46473
1.45551
1.4471
1.44074
1.43552
1.43744
1.45433
1.49217
1.55178
1.60045
1.62946
1.67074
1.72293
1.76108
1.8083
1.83033
1.84303
1.8408
1.8307
1.81472
1.79844
1.78305
1.7683
1.75565
1.74738
1.74252
1.73981
1.73628
1.73082
1.72361
1.71374
1.69198
1.53386
1.49409
1.42699
1.35105
1.29234
1.22655
1.1631
1.12792
1.09641
1.05828
1.04659
1.04492
1.03941
1.03808
1.03952
1.04487
1.05238
1.05589
1.05777
1.06302
1.07207
1.11365
1.29685
1.48775
1.57213
1.5843
1.58727
1.59207
1.63188
1.77065
1.94138
2.01267
2.02383
2.00222
1.96252
1.93196
1.91354
1.89666
1.87723
1.85464
1.83204
1.81054
1.78838
1.76611
1.74655
1.73049
1.7172
1.70575
1.69311
1.67736
1.65911
1.64091
1.624
1.60702
1.59027
1.57643
1.56445
1.55333
1.54276
1.53259
1.52296
1.51086
1.49481
1.47865
1.46682
1.45551
1.44481
1.44237
1.44592
1.46968
1.52687
1.59082
1.63741
1.64334
1.63832
1.63907
1.65166
1.68493
1.73771
1.79263
1.82055
1.83426
1.83318
1.82231
1.80322
1.78522
1.76987
1.76026
1.75305
1.74625
1.73906
1.73215
1.72466
1.71634
1.70658
1.68949
1.5541
1.53703
1.49901
1.4364
1.37701
1.32621
1.25621
1.20261
1.1749
1.13177
1.09
1.08216
1.07637
1.05861
1.04309
1.04375
1.04138
1.03776
1.03978
1.04808
1.1064
1.30396
1.51049
1.5645
1.57789
1.58114
1.57163
1.5574
1.54824
1.56677
1.66957
1.84036
1.96973
1.9701
1.96369
1.9414
1.91765
1.89458
1.87487
1.8575
1.83846
1.81875
1.79565
1.77171
1.74894
1.72819
1.71105
1.69812
1.68713
1.67605
1.66395
1.65018
1.63384
1.61292
1.59281
1.57692
1.5634
1.55094
1.53925
1.52758
1.51398
1.50141
1.49025
1.48024
1.47148
1.46227
1.45422
1.4614
1.49919
1.56889
1.62916
1.66233
1.66969
1.66534
1.6538
1.64033
1.63612
1.64057
1.65917
1.6994
1.74586
1.79005
1.81101
1.80796
1.7998
1.7904
1.78079
1.77239
1.7638
1.75521
1.74618
1.73743
1.72646
1.71212
1.70428
1.69495
1.56535
1.56023
1.54162
1.503
1.44643
1.39644
1.34732
1.28343
1.23273
1.19871
1.16417
1.13011
1.1166
1.09746
1.06588
1.04889
1.04416
1.04046
1.04639
1.12531
1.31965
1.52865
1.58053
1.57518
1.5682
1.55977
1.54694
1.53274
1.52334
1.51111
1.51534
1.56868
1.72737
1.87495
1.94671
1.94567
1.92345
1.88851
1.86049
1.84302
1.82866
1.81632
1.80225
1.78024
1.75352
1.72818
1.7091
1.69568
1.68295
1.66939
1.65496
1.64046
1.62584
1.61028
1.59425
1.57996
1.56668
1.55425
1.54158
1.52365
1.50264
1.49198
1.48763
1.48283
1.48037
1.48531
1.50373
1.55361
1.61746
1.67142
1.68236
1.68387
1.67954
1.67134
1.66025
1.64897
1.63847
1.63226
1.62512
1.62927
1.65235
1.69462
1.74965
1.78575
1.79303
1.79636
1.79077
1.77958
1.76835
1.75911
1.74928
1.73722
1.72278
1.70911
1.70246
1.69279
1.57688
1.57427
1.56749
1.54674
1.50993
1.45783
1.4078
1.36185
1.31438
1.26696
1.22525
1.18709
1.16689
1.15494
1.12954
1.08768
1.07551
1.08809
1.17834
1.37831
1.53963
1.59878
1.59416
1.57688
1.55704
1.54177
1.52753
1.51311
1.50067
1.48673
1.4758
1.46596
1.48755
1.60329
1.77372
1.89194
1.90123
1.88532
1.86126
1.84391
1.82859
1.81233
1.79559
1.77813
1.75662
1.73153
1.70687
1.69077
1.67919
1.66834
1.6566
1.64134
1.62415
1.61213
1.60161
1.59035
1.57761
1.56202
1.54032
1.51498
1.49956
1.49154
1.48835
1.48935
1.50072
1.54566
1.61535
1.67716
1.70545
1.70858
1.70386
1.69694
1.68705
1.67683
1.66715
1.65731
1.64613
1.63337
1.62153
1.60755
1.60698
1.61702
1.65035
1.70939
1.75531
1.7809
1.78335
1.78239
1.77815
1.76884
1.75375
1.73711
1.72015
1.70772
1.70243
1.6935
1.58361
1.58295
1.5805
1.57192
1.55017
1.51519
1.47195
1.41805
1.37398
1.33894
1.30529
1.25508
1.20639
1.19531
1.18296
1.1521
1.16264
1.28382
1.49084
1.60972
1.63769
1.62399
1.59977
1.5763
1.55502
1.53782
1.5197
1.50209
1.48509
1.47013
1.45556
1.44685
1.43225
1.43561
1.49263
1.64476
1.80138
1.85398
1.85534
1.84178
1.81924
1.79848
1.78239
1.76895
1.75456
1.73392
1.70913
1.68989
1.67649
1.66456
1.6513
1.6357
1.61965
1.60474
1.59208
1.5814
1.56953
1.55395
1.53489
1.51604
1.50186
1.49662
1.49817
1.52495
1.59315
1.67573
1.7246
1.73761
1.73164
1.71751
1.70303
1.69187
1.6841
1.67802
1.67089
1.66212
1.65172
1.63883
1.6231
1.60368
1.59596
1.59442
1.5988
1.62392
1.67834
1.73091
1.76741
1.77815
1.77565
1.76601
1.74896
1.73268
1.72015
1.71057
1.70577
1.69619
1.58013
1.58112
1.58242
1.58188
1.57311
1.5504
1.51901
1.4817
1.4303
1.38446
1.36169
1.33176
1.28438
1.24091
1.22444
1.25818
1.4076
1.6053
1.70177
1.6971
1.67279
1.64092
1.6118
1.58505
1.56046
1.53934
1.51765
1.49733
1.47868
1.46285
1.44455
1.4324
1.41738
1.40516
1.39283
1.41142
1.52091
1.67893
1.78794
1.80605
1.79923
1.78875
1.77526
1.76031
1.74371
1.72549
1.70636
1.68742
1.67177
1.6581
1.64398
1.62843
1.61299
1.59921
1.58812
1.57815
1.56628
1.5514
1.53483
1.519
1.50864
1.51727
1.56189
1.64795
1.72428
1.76412
1.7666
1.76166
1.74164
1.71581
1.70069
1.69016
1.68314
1.67797
1.67226
1.66635
1.65896
1.64604
1.62471
1.60219
1.59098
1.5862
1.58614
1.58801
1.60505
1.64633
1.69769
1.73847
1.747
1.74155
1.73275
1.72666
1.72
1.71383
1.70852
1.69809
1.57841
1.57861
1.58062
1.58208
1.57983
1.56963
1.54819
1.5187
1.48482
1.44296
1.40274
1.37142
1.33975
1.31904
1.37245
1.54338
1.7233
1.77345
1.76025
1.72697
1.69162
1.66189
1.63402
1.60473
1.57457
1.54592
1.51896
1.49543
1.4771
1.4601
1.4418
1.42511
1.40927
1.39152
1.37674
1.36034
1.3641
1.41579
1.54961
1.68739
1.74995
1.77282
1.76796
1.75004
1.73094
1.71258
1.69684
1.68037
1.66261
1.6466
1.6328
1.61911
1.60564
1.59276
1.58164
1.57207
1.56184
1.55095
1.53677
1.53002
1.55168
1.61651
1.70192
1.76395
1.7776
1.77719
1.77108
1.75668
1.7358
1.7157
1.70183
1.69178
1.6845
1.67836
1.67147
1.66385
1.65516
1.643
1.62309
1.60231
1.58976
1.58339
1.5795
1.57749
1.57721
1.58573
1.60993
1.64546
1.68446
1.70319
1.70956
1.71455
1.71739
1.71578
1.71056
1.70054
1.58162
1.58029
1.58233
1.58393
1.58231
1.57741
1.56612
1.54649
1.52034
1.48671
1.45103
1.40927
1.41768
1.51444
1.69181
1.82781
1.8483
1.82643
1.78785
1.74929
1.714
1.68179
1.65119
1.62046
1.58991
1.56046
1.53141
1.50265
1.47751
1.45467
1.43412
1.41567
1.40146
1.38648
1.37077
1.35337
1.34405
1.33086
1.34492
1.43574
1.57967
1.684
1.72757
1.72907
1.71712
1.70112
1.68566
1.66764
1.64788
1.63251
1.6211
1.60981
1.59838
1.5867
1.57656
1.56466
1.55892
1.55084
1.55826
1.59978
1.68367
1.75168
1.79717
1.80172
1.79755
1.78288
1.76402
1.74607
1.72891
1.71389
1.70219
1.69263
1.68397
1.676
1.66791
1.65905
1.64894
1.63671
1.62147
1.60437
1.59055
1.58146
1.57518
1.57068
1.56729
1.56602
1.56415
1.57129
1.58842
1.62693
1.66193
1.68349
1.70436
1.71405
1.71234
1.70265
1.55505
1.56486
1.57454
1.58101
1.5802
1.57807
1.57248
1.5628
1.54345
1.52
1.49107
1.52515
1.68231
1.85349
1.91405
1.9038
1.87111
1.83407
1.79825
1.76446
1.73172
1.69844
1.66494
1.63189
1.60065
1.57144
1.54316
1.51558
1.48986
1.46389
1.43748
1.41354
1.3938
1.37807
1.36584
1.35387
1.33809
1.32193
1.30389
1.30486
1.34972
1.46911
1.60404
1.67579
1.69191
1.68886
1.6736
1.65147
1.62898
1.61689
1.61093
1.60254
1.59216
1.58064
1.57133
1.56044
1.56206
1.59052
1.66301
1.74181
1.79213
1.80212
1.80208
1.79904
1.78926
1.77608
1.7581
1.73867
1.72102
1.70836
1.6991
1.69003
1.68056
1.67123
1.662
1.65181
1.64006
1.62749
1.61559
1.60392
1.59302
1.58267
1.57203
1.56484
1.55964
1.55498
1.55116
1.54459
1.53872
1.5492
1.58795
1.63254
1.67123
1.69704
1.70483
1.69968
1.527
1.56372
1.57677
1.57671
1.57538
1.57552
1.57341
1.56914
1.55711
1.56211
1.65266
1.83522
1.98271
2.00722
1.98556
1.93446
1.88447
1.84222
1.80552
1.7717
1.73907
1.70675
1.67452
1.64237
1.61139
1.58148
1.55176
1.52288
1.49522
1.46789
1.44278
1.42151
1.40124
1.38128
1.36188
1.34479
1.33225
1.32196
1.30452
1.28676
1.27348
1.28865
1.37151
1.51011
1.61537
1.65489
1.65379
1.6383
1.61556
1.6011
1.58836
1.57985
1.57359
1.57096
1.56881
1.58269
1.63999
1.72669
1.79109
1.82583
1.82802
1.81949
1.80363
1.7888
1.7771
1.76587
1.75102
1.73324
1.71571
1.70219
1.692
1.68276
1.67386
1.6647
1.65473
1.64345
1.63101
1.6189
1.60876
1.60058
1.59253
1.58314
1.57229
1.56248
1.5547
1.54723
1.53987
1.53184
1.52165
1.51506
1.52404
1.55848
1.60779
1.65356
1.67674
1.67899
1.37877
1.50599
1.55603
1.56592
1.57211
1.57498
1.57475
1.57645
1.61622
1.78502
1.98632
2.05142
2.04658
2.02406
1.98882
1.94658
1.90077
1.85523
1.81321
1.7756
1.74108
1.70878
1.6779
1.64718
1.61653
1.58634
1.5568
1.52861
1.50126
1.47323
1.44557
1.42249
1.40526
1.38732
1.36578
1.34908
1.33525
1.31836
1.29712
1.27523
1.26078
1.24828
1.25004
1.29733
1.41418
1.53833
1.60324
1.61819
1.612
1.59304
1.57405
1.5652
1.56652
1.57914
1.62332
1.69849
1.79513
1.83003
1.82408
1.81945
1.81533
1.80788
1.79641
1.78213
1.76837
1.75625
1.74301
1.7276
1.71139
1.69708
1.6856
1.67565
1.66698
1.65865
1.6487
1.63602
1.62294
1.61216
1.60432
1.59803
1.59099
1.58231
1.573
1.56286
1.5528
1.54264
1.5323
1.5235
1.51607
1.50681
1.49993
1.50494
1.52973
1.57418
1.62153
1.65084
1.12941
1.31912
1.49235
1.54311
1.55782
1.56719
1.58825
1.68174
1.87879
2.06314
2.12728
2.1186
2.07281
2.02288
1.98939
1.95704
1.91625
1.86899
1.82224
1.78126
1.74536
1.71113
1.6782
1.64786
1.61976
1.59155
1.56157
1.53184
1.50387
1.47836
1.4563
1.43439
1.40854
1.38859
1.37793
1.3647
1.34542
1.32163
1.29899
1.27953
1.26157
1.24439
1.23058
1.22846
1.24745
1.329
1.45704
1.55451
1.58241
1.57862
1.56886
1.57112
1.60629
1.68472
1.76878
1.83469
1.87068
1.86819
1.8453
1.81572
1.80045
1.79215
1.78315
1.7735
1.7615
1.75012
1.73843
1.7252
1.70986
1.69446
1.68165
1.67101
1.66105
1.65188
1.64287
1.63126
1.61962
1.61046
1.60193
1.59436
1.58781
1.58121
1.57318
1.56323
1.5529
1.543
1.53258
1.52071
1.50919
1.50067
1.49508
1.48967
1.49001
1.5046
1.53581
1.5929
1.00962
1.0735
1.27824
1.44059
1.52578
1.67492
1.78242
1.9558
2.07727
2.11506
2.11401
2.10582
2.07737
2.03729
2.00051
1.96392
1.9227
1.87648
1.83066
1.79068
1.75502
1.71914
1.68319
1.65092
1.62005
1.59105
1.56236
1.53363
1.50505
1.4813
1.46306
1.44367
1.41915
1.39802
1.37751
1.35451
1.33173
1.31206
1.29642
1.28371
1.26694
1.24689
1.23123
1.22242
1.21482
1.21853
1.26661
1.38652
1.49096
1.55559
1.60149
1.65359
1.75379
1.82745
1.85589
1.86791
1.86528
1.85863
1.84044
1.82016
1.80263
1.78747
1.77373
1.76648
1.76084
1.75133
1.73753
1.72304
1.70889
1.69636
1.68514
1.67298
1.66075
1.64865
1.63802
1.63108
1.62465
1.61608
1.6058
1.59494
1.58575
1.57802
1.57179
1.56601
1.55886
1.54931
1.53736
1.52449
1.51159
1.50128
1.49388
1.48603
1.47923
1.47903
1.48452
1.52585
1.00014
1.00295
1.05926
1.23328
1.55299
1.85234
1.97904
2.10295
2.1795
2.14745
2.11222
2.09857
2.08195
2.05702
2.01591
1.96617
1.91885
1.87523
1.83384
1.79304
1.75374
1.72644
1.70345
1.6738
1.64017
1.60529
1.57062
1.53861
1.51154
1.48457
1.45752
1.44527
1.43641
1.41673
1.38633
1.3552
1.33146
1.31665
1.30343
1.2856
1.267
1.25765
1.24719
1.23296
1.21411
1.19991
1.20125
1.23205
1.32659
1.5219
1.68351
1.77775
1.86639
1.91165
1.90597
1.89436
1.86901
1.84328
1.83107
1.82087
1.80585
1.78864
1.773
1.76069
1.75146
1.74451
1.73743
1.7275
1.71415
1.69805
1.68135
1.66893
1.66073
1.65219
1.64209
1.6313
1.61889
1.609
1.60167
1.59345
1.5849
1.57751
1.57113
1.56475
1.55674
1.54637
1.53342
1.52051
1.51067
1.50114
1.49182
1.48438
1.47814
1.4717
1.4701
1.48638
1.00011
1.00623
1.05295
1.27111
1.54236
1.77524
2.01207
2.12219
2.17445
2.15646
2.1231
2.09804
2.07629
2.04399
2.00045
1.95202
1.9091
1.87532
1.8426
1.80425
1.76573
1.72855
1.6922
1.65963
1.62615
1.59306
1.57169
1.55247
1.52767
1.4986
1.47188
1.44822
1.42532
1.40107
1.37009
1.35328
1.34497
1.33419
1.32013
1.29979
1.27463
1.25111
1.233
1.21923
1.20754
1.19743
1.19958
1.22901
1.34729
1.50287
1.67254
1.81299
1.87223
1.90548
1.90627
1.88732
1.85911
1.83705
1.82814
1.82244
1.81021
1.79173
1.7756
1.76334
1.75274
1.74354
1.73268
1.72147
1.71001
1.69643
1.68241
1.67063
1.65895
1.64797
1.6391
1.62969
1.61815
1.60678
1.60078
1.59601
1.59001
1.58286
1.57525
1.56716
1.55842
1.54735
1.53399
1.5208
1.51052
1.50268
1.49548
1.48886
1.48168
1.47284
1.4699
1.4834
1.00766
1.09428
1.27666
1.47396
1.51592
1.60053
1.82036
1.97893
2.08724
2.12069
2.12173
2.10915
2.0781
2.03184
1.98794
1.94978
1.91239
1.87211
1.82979
1.79003
1.75554
1.72249
1.69009
1.65872
1.62819
1.59757
1.56481
1.53306
1.50573
1.48125
1.45901
1.43736
1.41584
1.39413
1.37205
1.352
1.33196
1.31445
1.30014
1.28721
1.27139
1.25163
1.23086
1.21904
1.21165
1.21552
1.26442
1.37139
1.50126
1.53235
1.59251
1.69603
1.76071
1.82681
1.85172
1.85961
1.86066
1.85354
1.84083
1.82262
1.80324
1.79086
1.78316
1.77304
1.75892
1.74439
1.73176
1.72136
1.71216
1.70204
1.69025
1.67604
1.6617
1.65012
1.64133
1.63243
1.62168
1.61192
1.60269
1.59333
1.58493
1.57702
1.56925
1.561
1.55146
1.54251
1.53308
1.52332
1.51447
1.50483
1.49315
1.48394
1.48191
1.47986
1.48502
1.53044
1.1226
1.35014
1.47753
1.54424
1.55876
1.56464
1.59768
1.69149
1.87306
2.0536
2.1317
2.11979
2.06937
2.01595
1.97793
1.94698
1.91223
1.87206
1.83099
1.79195
1.75371
1.7163
1.68127
1.64822
1.6167
1.58732
1.55754
1.52711
1.49892
1.47727
1.45916
1.44011
1.41805
1.39126
1.36504
1.34536
1.32986
1.31333
1.29384
1.28202
1.27589
1.26305
1.24719
1.23506
1.25162
1.33249
1.45229
1.54481
1.58157
1.57745
1.57416
1.58347
1.61325
1.67966
1.76096
1.82948
1.864
1.86394
1.85081
1.82718
1.80649
1.79555
1.786
1.7725
1.75703
1.74353
1.73224
1.72143
1.71033
1.69966
1.68915
1.67825
1.66641
1.65266
1.63822
1.62565
1.61581
1.60891
1.6024
1.59444
1.586
1.57863
1.57211
1.562
1.54721
1.53721
1.5332
1.52941
1.52213
1.51049
1.49944
1.49049
1.49067
1.50204
1.53062
1.5922
1.39418
1.53134
1.54331
1.55377
1.56342
1.57037
1.57313
1.57723
1.61287
1.77317
1.98919
2.05471
2.04165
2.0156
1.97937
1.9438
1.90534
1.86559
1.82628
1.78679
1.74675
1.70771
1.67195
1.63986
1.6099
1.58075
1.55281
1.52674
1.50186
1.47697
1.45166
1.42731
1.40444
1.38674
1.37101
1.35205
1.32989
1.30706
1.29157
1.28015
1.27001
1.25822
1.26203
1.30366
1.42225
1.53956
1.59387
1.61365
1.6107
1.5985
1.58287
1.57572
1.57162
1.58046
1.61503
1.6935
1.7766
1.8304
1.83203
1.82955
1.823
1.81101
1.79467
1.7753
1.75906
1.74706
1.73685
1.72625
1.71495
1.70428
1.69526
1.6866
1.67459
1.65694
1.638
1.62459
1.6172
1.61206
1.60712
1.60188
1.59519
1.58594
1.57232
1.55735
1.54602
1.53811
1.53115
1.52454
1.51887
1.51509
1.50797
1.50879
1.52462
1.56148
1.60021
1.63614
1.53908
1.57364
1.57363
1.57101
1.5717
1.57365
1.57296
1.5696
1.55746
1.56162
1.65662
1.83823
1.97988
2.00602
1.98556
1.9378
1.89022
1.85
1.81367
1.77695
1.73925
1.70169
1.66652
1.63405
1.60356
1.57435
1.54636
1.51879
1.49309
1.47113
1.45162
1.43093
1.40812
1.38307
1.35969
1.34161
1.32708
1.3133
1.29793
1.28836
1.27952
1.29416
1.37482
1.50377
1.61977
1.6493
1.64419
1.63172
1.61932
1.60936
1.59914
1.58956
1.57859
1.56867
1.55907
1.57019
1.62541
1.71833
1.79952
1.83729
1.83649
1.82403
1.79985
1.77934
1.76594
1.75563
1.74542
1.73384
1.72179
1.71084
1.70144
1.69166
1.67831
1.6592
1.64009
1.62936
1.62356
1.61877
1.61408
1.60881
1.60201
1.59198
1.57533
1.55635
1.54425
1.53643
1.53183
1.52821
1.52641
1.52779
1.53692
1.56132
1.603
1.63709
1.65285
1.66036
1.55865
1.56867
1.57779
1.58072
1.57955
1.57751
1.57334
1.56478
1.54511
1.51955
1.49155
1.52786
1.68489
1.85412
1.92092
1.91203
1.87711
1.83819
1.80168
1.76561
1.72871
1.69152
1.65622
1.62328
1.59271
1.56436
1.53991
1.51808
1.49583
1.47195
1.44793
1.42262
1.39843
1.37677
1.3609
1.34734
1.33088
1.31764
1.30294
1.30522
1.35306
1.47283
1.59955
1.67207
1.69247
1.68834
1.67067
1.64931
1.63468
1.6243
1.61502
1.60518
1.59285
1.57636
1.55825
1.54748
1.55048
1.58353
1.66628
1.75814
1.80689
1.80523
1.79924
1.79071
1.77856
1.76585
1.75251
1.74012
1.72868
1.71835
1.70863
1.69752
1.68229
1.6617
1.64376
1.63596
1.63099
1.62651
1.62204
1.61649
1.60876
1.59608
1.57608
1.55333
1.54311
1.5395
1.53813
1.53966
1.54851
1.57273
1.60735
1.65101
1.67894
1.6867
1.68362
1.66921
1.58144
1.58106
1.5827
1.58284
1.58129
1.57699
1.56714
1.54805
1.52111
1.48633
1.45097
1.40953
1.41875
1.51845
1.70234
1.83543
1.84553
1.82465
1.78615
1.74623
1.70918
1.67564
1.64504
1.61653
1.58935
1.56144
1.53431
1.51023
1.48715
1.46413
1.44269
1.42174
1.40298
1.3828
1.36447
1.34879
1.33604
1.32619
1.34738
1.44769
1.59081
1.69057
1.72914
1.72781
1.71253
1.69319
1.67667
1.66302
1.65227
1.64143
1.63034
1.61913
1.60589
1.58817
1.56712
1.5525
1.54625
1.54676
1.55966
1.6154
1.69671
1.76099
1.79823
1.79722
1.78664
1.77013
1.75647
1.74574
1.73602
1.72642
1.71511
1.70102
1.68443
1.6658
1.65134
1.64347
1.63722
1.63128
1.62531
1.6183
1.60913
1.59628
1.57838
1.55877
1.55055
1.55053
1.55267
1.56755
1.60707
1.65262
1.69122
1.71248
1.71412
1.71104
1.70096
1.67883
1.57857
1.57888
1.58129
1.58122
1.57877
1.56979
1.54904
1.51932
1.48516
1.44303
1.40265
1.3718
1.33942
1.319
1.37588
1.54603
1.71413
1.76903
1.75676
1.72345
1.68779
1.657
1.62955
1.60383
1.57757
1.5498
1.52286
1.50417
1.48764
1.47029
1.44995
1.42729
1.40375
1.38276
1.36673
1.35323
1.35676
1.41609
1.56729
1.70738
1.76659
1.77566
1.77068
1.75071
1.72332
1.69921
1.68461
1.67517
1.66642
1.65573
1.64329
1.62956
1.61454
1.59645
1.5777
1.5627
1.55185
1.54428
1.53943
1.54132
1.5643
1.62716
1.70667
1.76185
1.76585
1.76523
1.76216
1.75305
1.74292
1.73186
1.71873
1.70327
1.68698
1.67047
1.65648
1.6474
1.64009
1.63291
1.62584
1.61806
1.60879
1.59768
1.58417
1.56983
1.56424
1.56768
1.58771
1.63485
1.68651
1.71995
1.73941
1.74177
1.73825
1.72893
1.71334
1.68849
1.58006
1.5814
1.58233
1.58128
1.57275
1.55037
1.51915
1.48203
1.43045
1.38495
1.36199
1.33166
1.28386
1.24046
1.22413
1.25682
1.39711
1.5973
1.70152
1.69686
1.67008
1.6396
1.61067
1.58571
1.56388
1.54353
1.5216
1.50455
1.4875
1.46997
1.44986
1.42953
1.40702
1.38876
1.37907
1.40152
1.50562
1.67861
1.80309
1.82228
1.81711
1.79628
1.77501
1.75465
1.73242
1.71086
1.69514
1.68464
1.67522
1.66525
1.65341
1.63888
1.6203
1.59728
1.5787
1.56596
1.55654
1.54863
1.53957
1.53269
1.52368
1.52908
1.56733
1.64545
1.71279
1.74429
1.75805
1.75619
1.74754
1.73364
1.71882
1.70477
1.6907
1.67531
1.6596
1.64732
1.63869
1.63096
1.62346
1.61562
1.6073
1.59877
1.59342
1.58844
1.59366
1.61826
1.66635
1.71318
1.73373
1.74818
1.75264
1.74943
1.74173
1.73062
1.71705
1.69635
1.58357
1.58298
1.58029
1.57182
1.5503
1.51542
1.47196
1.41837
1.37425
1.33883
1.30514
1.25448
1.20682
1.19568
1.18242
1.15094
1.1596
1.27749
1.49247
1.61077
1.6384
1.62545
1.59945
1.57617
1.55849
1.54098
1.5206
1.5035
1.4904
1.47459
1.45559
1.4378
1.41764
1.4199
1.4831
1.64097
1.78251
1.86294
1.87045
1.85927
1.828
1.79806
1.7753
1.75724
1.73987
1.72192
1.70487
1.69133
1.68082
1.67121
1.66
1.64402
1.62103
1.59643
1.58121
1.57116
1.56104
1.55122
1.54172
1.53367
1.52433
1.50623
1.50341
1.52437
1.58901
1.65623
1.71224
1.72893
1.73048
1.72692
1.71635
1.70493
1.69315
1.679
1.66193
1.64559
1.63403
1.6261
1.6193
1.6134
1.60921
1.60657
1.61274
1.63105
1.66725
1.7112
1.7412
1.75076
1.75604
1.75785
1.7528
1.7448
1.73596
1.72566
1.71489
1.70105
1.57681
1.57416
1.56743
1.54673
1.50989
1.45769
1.40816
1.36204
1.31386
1.26653
1.22561
1.18777
1.16739
1.15502
1.12888
1.08656
1.07534
1.08777
1.18213
1.38401
1.54239
1.6017
1.59892
1.58403
1.56554
1.54681
1.5265
1.50812
1.49786
1.4861
1.47168
1.45938
1.48266
1.59569
1.78105
1.89137
1.90305
1.89492
1.87271
1.8492
1.82378
1.80062
1.77946
1.76167
1.7458
1.73026
1.71468
1.69953
1.68565
1.67331
1.6622
1.64669
1.62098
1.59568
1.58181
1.57288
1.56444
1.55607
1.54605
1.53339
1.51652
1.49913
1.49157
1.48858
1.49764
1.53435
1.60054
1.67084
1.69815
1.71391
1.71357
1.70729
1.69783
1.68282
1.66352
1.64354
1.62789
1.62
1.61526
1.614
1.61763
1.63845
1.67584
1.72836
1.76471
1.77225
1.76814
1.76269
1.75973
1.75544
1.74949
1.74194
1.73314
1.72127
1.71268
1.70242
1.5653
1.56018
1.5416
1.50296
1.44654
1.39676
1.3474
1.28266
1.23249
1.1992
1.1648
1.13036
1.11684
1.09747
1.06588
1.04895
1.04422
1.04048
1.04744
1.12701
1.3319
1.50883
1.58555
1.58563
1.5783
1.56236
1.54323
1.52282
1.51421
1.50473
1.50862
1.56321
1.73067
1.88376
1.96083
1.95608
1.93079
1.89369
1.8638
1.83822
1.82018
1.80436
1.78602
1.76688
1.74929
1.73273
1.71752
1.7077
1.69736
1.68231
1.66201
1.63976
1.61865
1.60057
1.58705
1.57637
1.56675
1.55732
1.54755
1.53246
1.51143
1.49615
1.48761
1.48203
1.47797
1.47755
1.49413
1.55158
1.61799
1.66667
1.68964
1.69088
1.68617
1.67622
1.66063
1.64
1.62358
1.6192
1.61942
1.62647
1.66113
1.71501
1.76924
1.80297
1.80696
1.80104
1.78612
1.77039
1.75928
1.75006
1.74124
1.73358
1.72636
1.71711
1.7104
1.70022
1.55411
1.53708
1.49891
1.43633
1.37739
1.32621
1.25574
1.20261
1.17506
1.13153
1.09011
1.08243
1.07667
1.05856
1.04303
1.04377
1.04143
1.03783
1.03989
1.04778
1.1095
1.29736
1.49312
1.5785
1.58655
1.5828
1.56958
1.55082
1.53795
1.55511
1.65144
1.8383
1.97523
1.98437
1.97613
1.95297
1.92574
1.89506
1.86552
1.83778
1.81797
1.80701
1.79468
1.78033
1.76525
1.74827
1.72972
1.70973
1.69012
1.6709
1.65118
1.63251
1.61734
1.60623
1.59704
1.58821
1.57804
1.56666
1.54974
1.52616
1.50676
1.49577
1.48731
1.48011
1.47227
1.46782
1.46236
1.47016
1.50855
1.56878
1.63329
1.66706
1.67275
1.66966
1.65696
1.64126
1.62808
1.62962
1.64431
1.68366
1.74324
1.78907
1.81207
1.81181
1.80887
1.80181
1.78991
1.776
1.76232
1.74823
1.73272
1.72411
1.71926
1.7162
1.71343
1.7041
1.53389
1.49412
1.42681
1.35141
1.29252
1.22625
1.16306
1.128
1.09625
1.05805
1.0466
1.04486
1.03936
1.03805
1.03953
1.04498
1.05251
1.05583
1.05765
1.06287
1.07166
1.11425
1.27788
1.47234
1.58294
1.58794
1.58573
1.58942
1.6269
1.76194
1.92829
2.02191
2.03329
2.01342
1.97126
1.9379
1.91311
1.8906
1.86567
1.8411
1.82352
1.80961
1.79498
1.77904
1.76122
1.74229
1.72273
1.70339
1.68452
1.66531
1.64687
1.63273
1.62293
1.61374
1.60314
1.58907
1.57168
1.5562
1.54004
1.52046
1.50732
1.50031
1.49305
1.48496
1.47693
1.46817
1.45898
1.44756
1.44573
1.46097
1.51535
1.58059
1.62607
1.65084
1.6489
1.6495
1.65838
1.68693
1.72598
1.77512
1.80537
1.81604
1.82113
1.81867
1.80926
1.79853
1.78874
1.77739
1.76346
1.74522
1.7276
1.72026
1.71565
1.71078
1.70674
1.69785
1.49467
1.40925
1.3102
1.25315
1.1937
1.10916
1.08914
1.08295
1.06795
1.05903
1.05784
1.05534
1.05531
1.0563
1.06332
1.0747
1.08349
1.08609
1.08675
1.08986
1.08816
1.08949
1.11279
1.25852
1.48729
1.55716
1.62538
1.7218
1.86323
1.96683
2.04186
2.04039
2.0169
1.98861
1.9624
1.93508
1.91157
1.89421
1.87567
1.85693
1.8388
1.82029
1.80237
1.78472
1.76625
1.74603
1.72357
1.70158
1.68213
1.66611
1.65534
1.647
1.63813
1.62788
1.61537
1.59884
1.57684
1.55239
1.53439
1.52438
1.51838
1.51263
1.50588
1.49816
1.49046
1.48057
1.46761
1.45001
1.42902
1.42011
1.42974
1.4699
1.52818
1.59466
1.63946
1.69092
1.74535
1.79254
1.81446
1.82262
1.82287
1.81643
1.81052
1.80615
1.80155
1.79478
1.78699
1.77879
1.76613
1.74425
1.72642
1.71954
1.71441
1.70927
1.70505
1.69623
1.39519
1.22609
1.1053
1.04033
0.980607
0.961524
0.980651
1.02452
1.04119
1.05467
1.0795
1.09535
1.09459
1.09566
1.10302
1.1124
1.11604
1.11607
1.11557
1.11476
1.11005
1.10311
1.10405
1.12638
1.26907
1.53911
1.76861
1.97664
2.13145
2.1813
2.13939
2.06422
2.00521
1.97477
1.95428
1.93199
1.907
1.88503
1.86687
1.84999
1.83224
1.81331
1.79443
1.77636
1.75862
1.73909
1.7165
1.69283
1.67067
1.65478
1.6467
1.63907
1.63012
1.61985
1.60805
1.59309
1.57152