/*--------------------------------*- C++ -*----------------------------------*\
  =========                 |
  \\      /  F ield         | OpenFOAM: The Open Source CFD Toolbox
   \\    /   O peration     | Website:  https://openfoam.org
    \\  /    A nd           | Version:  7
     \\/     M anipulation  |
\*---------------------------------------------------------------------------*/
FoamFile
{
    version     2.0;
    format      ascii;
    class       volVectorField;
    location    "3.5";
    object      U;
}
// * * * * * * * * * * * * * * * * * * * * * * * * * * * * * * * * * * * * * //

dimensions      [0 1 -1 0 0 0 0];

internalField   nonuniform List<vector> 
4608
(
(3 5.92262e-17 0)
(3 2.10569e-16 0)
(3 2.18254e-16 0)
(3 4.63729e-16 0)
(3 3.47069e-16 0)
(3 -4.76026e-16 0)
(3 -7.29423e-16 0)
(3 -9.94481e-16 0)
(3 -1.39591e-15 0)
(3 -1.45472e-15 0)
(3 -1.19907e-15 0)
(3 -7.27704e-16 0)
(3 3.54909e-17 0)
(3 3.7187e-16 0)
(3 8.3401e-16 0)
(3 6.2971e-16 0)
(3 6.36104e-16 0)
(3 3.46663e-16 0)
(3 -2.56744e-16 0)
(3 -6.6717e-16 0)
(3 -1.59108e-15 0)
(3 -1.75979e-15 0)
(3 -1.52751e-15 0)
(3 -1.29277e-16 0)
(3 1.64226e-16 0)
(3 5.12874e-16 0)
(3 7.0996e-16 0)
(3 4.70377e-16 0)
(3 3.29175e-16 0)
(3 -1.43122e-16 0)
(3 -7.5771e-16 0)
(3 -1.21997e-15 0)
(3 -1.43862e-15 0)
(3 -1.20902e-15 0)
(3 -1.29672e-15 0)
(3 -1.02931e-15 0)
(3 2.6444e-16 0)
(3 8.98705e-16 0)
(3 1.50178e-15 0)
(3 1.21712e-15 0)
(3 9.58314e-16 0)
(3 6.03679e-16 0)
(3 -2.04943e-16 0)
(3 -6.7915e-16 0)
(3 -1.17549e-15 0)
(3 -1.33292e-15 0)
(3 -1.26015e-15 0)
(3 -1.13694e-15 0)
(3 -2.29933e-17 0)
(3 3.05227e-17 0)
(3 -1.81827e-16 0)
(3 -5.83066e-16 0)
(3 -4.79878e-16 0)
(3 -5.34867e-17 0)
(3 -2.04312e-16 0)
(3 -3.07306e-16 0)
(3 -1.31098e-16 0)
(3 1.44975e-16 0)
(3 -1.88985e-16 0)
(3 -4.31419e-16 0)
(3 -8.68485e-17 0)
(3 7.20182e-17 0)
(3 -2.23989e-16 0)
(3 -3.38351e-16 0)
(3 -4.47065e-16 0)
(3 -5.83204e-16 0)
(3 -1.48828e-16 0)
(3 -5.51201e-17 0)
(3 -2.27051e-17 0)
(3 -1.3958e-16 0)
(3 -8.24784e-16 0)
(3 -7.65755e-16 0)
(3 -1.40121e-16 0)
(3 -3.45433e-16 0)
(3 -2.68803e-16 0)
(3 -4.00712e-16 0)
(3 -7.4269e-16 0)
(3 -5.86987e-17 0)
(3 2.05939e-16 0)
(3 3.80496e-16 0)
(3 7.67911e-16 0)
(3 5.17873e-16 0)
(3 -9.96363e-17 0)
(3 -9.18866e-17 0)
(3 -8.02346e-16 0)
(3 -1.28288e-15 0)
(3 -1.60037e-15 0)
(3 -9.45255e-16 0)
(3 -4.99348e-16 0)
(3 -8.57719e-16 0)
(3 -7.2802e-16 0)
(3 -3.0433e-16 0)
(3 -4.45088e-16 0)
(3 -6.32631e-16 0)
(3 -6.66734e-16 0)
(3 -4.60728e-16 0)
(3 -3.98676e-17 0)
(3 -4.51835e-17 0)
(3 -1.18656e-17 0)
(3 -2.74596e-16 0)
(3 -6.38581e-16 0)
(3 -5.90032e-16 0)
(3 -5.69256e-16 0)
(3 -4.77381e-16 0)
(3 -4.62735e-16 0)
(3 -4.98318e-16 0)
(3 -7.03208e-16 0)
(3 -8.81937e-16 0)
(3 -1.25101e-15 0)
(3 -1.14057e-15 0)
(3 2.70248e-16 0)
(3 8.35581e-16 0)
(3 1.15454e-15 0)
(3 4.01156e-16 0)
(3 -4.50239e-17 0)
(3 -4.00315e-16 0)
(3 -4.19282e-16 0)
(3 -3.74695e-16 0)
(3 1.16779e-17 0)
(3 -9.57255e-17 0)
(3 1.99825e-17 0)
(3 2.67099e-16 0)
(3 4.36563e-17 0)
(3 1.28545e-18 0)
(3 1.31398e-16 0)
(3 -1.05724e-16 0)
(3 -5.29825e-16 0)
(3 -7.23297e-16 0)
(3 -8.66698e-16 0)
(3 -1.04521e-15 0)
(3 -7.52755e-16 0)
(3 -7.74811e-16 0)
(3 -5.53051e-16 0)
(3 -2.58697e-16 0)
(3 7.38538e-16 0)
(3 6.75527e-16 0)
(3 5.80197e-16 0)
(3 6.70085e-16 0)
(3 4.50049e-16 0)
(3 2.95838e-18 0)
(3 -6.55341e-17 0)
(3 -4.17157e-16 0)
(3 -5.41807e-16 0)
(3 -6.30691e-16 0)
(3 -6.49891e-18 0)
(3 5.23145e-17 0)
(3 4.10199e-16 0)
(3 9.59185e-16 0)
(3 1.36759e-15 0)
(3 1.08378e-15 0)
(3 5.04347e-16 0)
(3 4.13828e-17 0)
(3 -4.76863e-16 0)
(3 -6.01604e-16 0)
(3 -1.67698e-16 0)
(3 2.90529e-16 0)
(3 1.06117e-15 0)
(3 1.10192e-15 0)
(3 5.87209e-16 0)
(3 6.5808e-16 0)
(3 -8.68304e-17 0)
(3 3.38841e-16 0)
(3 2.07958e-16 0)
(3 2.00813e-16 0)
(3 -8.92252e-17 0)
(3 -1.41689e-16 0)
(3 1.34793e-16 0)
(3 3.92821e-16 0)
(3 -1.1637e-16 0)
(3 -3.17032e-16 0)
(3 1.03089e-17 0)
(3 7.55601e-16 0)
(3 1.26584e-15 0)
(3 3.42866e-16 0)
(3 2.06892e-16 0)
(3 2.11925e-16 0)
(3 1.00608e-16 0)
(3 1.32768e-16 0)
(3 4.31339e-16 0)
(3 3.48741e-16 0)
(3 9.25515e-16 0)
(3 1.0641e-15 0)
(3 7.33316e-16 0)
(3 8.17878e-16 0)
(3 7.53318e-16 0)
(3 6.07288e-16 0)
(3 8.91183e-16 0)
(3 1.57317e-15 0)
(3 1.67573e-15 0)
(3 1.87517e-15 0)
(3 1.67589e-15 0)
(3 1.20181e-15 0)
(3 -4.60344e-17 0)
(3 9.06392e-18 0)
(3 1.11682e-16 0)
(3 4.00918e-17 0)
(3 1.04985e-16 0)
(3 3.36811e-16 0)
(3 2.30297e-16 0)
(3 6.84158e-16 0)
(3 1.57015e-15 0)
(3 1.72363e-15 0)
(3 1.39498e-15 0)
(3 9.85076e-16 0)
(3 8.88652e-16 0)
(3 6.54234e-16 0)
(3 5.89619e-16 0)
(3 3.16437e-17 0)
(3 3.68084e-16 0)
(3 -3.1238e-18 0)
(3 4.92795e-16 0)
(3 1.12095e-15 0)
(3 1.2614e-15 0)
(3 1.1066e-15 0)
(3 9.71112e-16 0)
(3 -2.54478e-16 0)
(3 -5.7986e-17 0)
(3 -4.81419e-17 0)
(3 -5.1546e-16 0)
(3 -1.1332e-15 0)
(3 -1.26184e-15 0)
(3 -2.16801e-16 0)
(3 -8.54912e-17 0)
(3 9.29413e-16 0)
(3 1.41826e-15 0)
(3 1.79334e-15 0)
(3 1.78411e-15 0)
(3 2.10461e-15 0)
(3 1.49037e-15 0)
(3 1.44169e-16 0)
(3 -5.21271e-16 0)
(3 -1.10926e-15 0)
(3 -1.68386e-15 0)
(3 -1.35763e-15 0)
(3 -5.94868e-16 0)
(3 4.63242e-17 0)
(3 -3.96072e-16 0)
(3 -5.91105e-16 0)
(3 2.47239e-16 0)
(3 1.2502e-15 0)
(3 5.44137e-17 0)
(3 -5.17218e-18 0)
(3 -8.34768e-17 0)
(3 -3.31516e-16 0)
(3 -1.10474e-15 0)
(3 -1.20279e-15 0)
(3 -6.6235e-16 0)
(3 5.8808e-17 0)
(3 -1.03251e-16 0)
(3 -2.49525e-16 0)
(3 -1.64086e-17 0)
(3 6.35212e-16 0)
(3 1.06173e-15 0)
(3 8.02328e-16 0)
(3 -1.40555e-16 0)
(3 -9.56955e-16 0)
(3 -1.09133e-15 0)
(3 -1.08126e-15 0)
(3 -8.35171e-16 0)
(3 -1.16506e-15 0)
(3 -1.69141e-15 0)
(3 -1.1237e-15 0)
(3 4.5708e-16 0)
(3 1.62756e-15 0)
(3 6.34962e-17 0)
(3 4.09234e-16 0)
(3 4.62518e-16 0)
(3 2.71553e-16 0)
(3 1.36334e-16 0)
(3 5.91995e-17 0)
(3 2.14695e-16 0)
(3 2.37004e-17 0)
(3 -3.87932e-16 0)
(3 -8.31812e-16 0)
(3 -8.09729e-16 0)
(3 -4.76316e-16 0)
(3 -2.03354e-16 0)
(3 -1.96124e-16 0)
(3 -4.95891e-16 0)
(3 -8.22192e-16 0)
(3 -9.44337e-16 0)
(3 -1.17236e-15 0)
(3 -1.45799e-15 0)
(3 -2.09756e-15 0)
(3 -2.23803e-15 0)
(3 -1.84301e-15 0)
(3 -1.49242e-15 0)
(3 -1.12678e-15 0)
(3 1.17628e-17 0)
(3 -1.89068e-16 0)
(3 -2.74192e-16 0)
(3 -2.14385e-16 0)
(3 3.50873e-16 0)
(3 3.51959e-16 0)
(3 1.57442e-16 0)
(3 -1.33803e-16 0)
(3 -2.23806e-16 0)
(3 6.93423e-17 0)
(3 1.26156e-16 0)
(3 2.68938e-16 0)
(3 -6.19177e-16 0)
(3 -1.10606e-15 0)
(3 -8.24097e-16 0)
(3 -8.95934e-16 0)
(3 -4.57845e-16 0)
(3 -1.31728e-15 0)
(3 -1.7447e-15 0)
(3 -1.36078e-15 0)
(3 -7.87422e-16 0)
(3 -1.70945e-15 0)
(3 -2.33298e-15 0)
(3 -2.44439e-15 0)
(3 1.17085e-16 0)
(3 8.1606e-17 0)
(3 6.92062e-17 0)
(3 1.46394e-16 0)
(3 3.12567e-17 0)
(3 1.23178e-16 0)
(3 -1.19972e-17 0)
(3 -2.03675e-16 0)
(3 -2.45381e-16 0)
(3 2.02984e-16 0)
(3 5.7615e-16 0)
(3 3.09041e-16 0)
(3 -1.63553e-16 0)
(3 -4.65484e-16 0)
(3 -5.71745e-16 0)
(3 -8.29853e-17 0)
(3 -9.95444e-17 0)
(3 -1.6281e-15 0)
(3 -1.5157e-15 0)
(3 -1.01277e-15 0)
(3 1.58617e-16 0)
(3 1.16652e-16 0)
(3 -7.9166e-16 0)
(3 -1.37088e-15 0)
(3 -2.00629e-17 0)
(3 1.84195e-16 0)
(3 1.07339e-16 0)
(3 4.90354e-17 0)
(3 -3.03133e-17 0)
(3 3.29121e-16 0)
(3 3.88106e-16 0)
(3 3.45428e-16 0)
(3 4.22096e-16 0)
(3 2.01383e-16 0)
(3 -9.96491e-16 0)
(3 -2.52444e-15 0)
(3 -2.44425e-15 0)
(3 -1.3954e-15 0)
(3 -1.27395e-15 0)
(3 -7.46832e-16 0)
(3 -1.28599e-15 0)
(3 -1.74201e-15 0)
(3 -1.25589e-15 0)
(3 -1.55754e-15 0)
(3 -7.8754e-16 0)
(3 1.15527e-16 0)
(3 -4.68335e-16 0)
(3 -1.43753e-15 0)
(3 -9.57958e-18 0)
(3 -2.41828e-16 0)
(3 -2.80948e-16 0)
(3 -1.1946e-16 0)
(3 -3.15471e-17 0)
(3 -3.86003e-16 0)
(3 -3.78745e-16 0)
(3 -3.29137e-16 0)
(3 -4.75092e-16 0)
(3 -1.09268e-15 0)
(3 -2.55698e-15 0)
(3 -2.65449e-15 0)
(3 -2.1883e-15 0)
(3 -1.90174e-15 0)
(3 -1.24459e-15 0)
(3 -1.06208e-15 0)
(3 -1.452e-15 0)
(3 -1.53147e-15 0)
(3 -1.48009e-15 0)
(3 -1.25109e-15 0)
(3 -1.14024e-15 0)
(3 -6.87731e-16 0)
(3 -4.50076e-16 0)
(3 -6.28381e-16 0)
(3 -7.2017e-17 0)
(3 -3.54621e-16 0)
(3 -1.05053e-16 0)
(3 3.81583e-16 0)
(3 -2.50362e-17 0)
(3 -1.22385e-15 0)
(3 -1.93767e-15 0)
(3 -2.15082e-15 0)
(3 -2.44982e-15 0)
(3 -2.8503e-15 0)
(3 -2.57091e-15 0)
(3 -1.96508e-15 0)
(3 -1.09724e-15 0)
(3 -1.11158e-15 0)
(3 -8.17717e-16 0)
(3 -5.03205e-16 0)
(3 -3.50183e-16 0)
(3 -8.08537e-16 0)
(3 -1.20359e-15 0)
(3 -1.28875e-15 0)
(3 -9.86292e-16 0)
(3 -5.22627e-16 0)
(3 -2.65356e-16 0)
(3 -2.24092e-16 0)
(3 -2.50523e-16 0)
(3 -2.49625e-16 0)
(3 -1.80651e-16 0)
(3 -7.69527e-17 0)
(3 -4.81965e-16 0)
(3 -6.51715e-16 0)
(3 -1.0206e-15 0)
(3 -1.38356e-15 0)
(3 -1.58739e-15 0)
(3 -1.0966e-15 0)
(3 4.17311e-17 0)
(3 -1.27631e-16 0)
(3 -3.45774e-16 0)
(3 -5.89044e-16 0)
(3 -1.02819e-15 0)
(3 -1.02294e-15 0)
(3 -2.22083e-16 0)
(3 -2.32739e-16 0)
(3 -6.87582e-16 0)
(3 -5.18708e-16 0)
(3 -3.98817e-16 0)
(3 -1.13041e-15 0)
(3 -1.58919e-15 0)
(3 -1.41622e-15 0)
(3 2.34674e-16 0)
(3 1.41809e-16 0)
(3 3.29072e-17 0)
(3 -3.8414e-16 0)
(3 -4.6952e-16 0)
(3 3.05822e-16 0)
(3 9.46549e-16 0)
(3 5.63935e-16 0)
(3 -8.40334e-16 0)
(3 -1.07292e-15 0)
(3 -6.1354e-16 0)
(3 -6.51725e-16 0)
(3 -8.12384e-16 0)
(3 -6.66629e-16 0)
(3 -2.45299e-16 0)
(3 -5.84408e-16 0)
(3 -5.92343e-16 0)
(3 -7.24331e-16 0)
(3 -1.27385e-15 0)
(3 -1.01852e-15 0)
(3 -7.8923e-16 0)
(3 -1.02003e-15 0)
(3 -9.60293e-16 0)
(3 -8.60501e-16 0)
(3 1.90568e-16 0)
(3 1.2006e-16 0)
(3 1.76784e-16 0)
(3 -6.62999e-17 0)
(3 1.70175e-16 0)
(3 9.32428e-16 0)
(3 1.46708e-15 0)
(3 1.9001e-15 0)
(3 1.46001e-15 0)
(3 3.73763e-17 0)
(3 -4.08945e-16 0)
(3 -2.76762e-16 0)
(3 -1.41852e-16 0)
(3 -1.64001e-16 0)
(3 3.5954e-16 0)
(3 1.25179e-16 0)
(3 3.09626e-16 0)
(3 4.41925e-16 0)
(3 -2.49339e-16 0)
(3 -9.47366e-16 0)
(3 -1.07893e-15 0)
(3 -6.70781e-16 0)
(3 -5.65186e-16 0)
(3 -7.0699e-16 0)
(3 -7.60601e-17 0)
(3 -6.48485e-17 0)
(3 -2.67554e-17 0)
(3 6.66726e-17 0)
(3 7.72397e-16 0)
(3 1.27848e-15 0)
(3 1.80192e-15 0)
(3 1.96072e-15 0)
(3 2.48208e-15 0)
(3 2.7568e-15 0)
(3 2.47463e-15 0)
(3 1.4931e-15 0)
(3 1.46355e-15 0)
(3 1.24564e-15 0)
(3 5.51136e-16 0)
(3 1.70935e-16 0)
(3 7.06717e-16 0)
(3 1.56285e-15 0)
(3 1.62161e-15 0)
(3 6.50268e-16 0)
(3 -7.04839e-16 0)
(3 -1.70825e-15 0)
(3 -1.54822e-15 0)
(3 -1.0097e-15 0)
(3 9.3471e-17 0)
(3 -1.55921e-16 0)
(3 -9.43257e-17 0)
(3 -1.42769e-16 0)
(3 -1.93562e-18 0)
(3 6.52708e-16 0)
(3 6.6786e-16 0)
(3 9.53961e-16 0)
(3 1.7938e-15 0)
(3 2.22988e-15 0)
(3 2.32299e-15 0)
(3 1.78607e-15 0)
(3 1.28132e-15 0)
(3 1.4366e-15 0)
(3 1.34507e-15 0)
(3 1.5004e-15 0)
(3 7.33023e-16 0)
(3 1.1281e-15 0)
(3 1.19508e-15 0)
(3 8.40709e-16 0)
(3 8.45078e-16 0)
(3 6.96896e-16 0)
(3 8.44791e-16 0)
(3 6.05012e-16 0)
(3 6.25184e-18 0)
(3 -5.19206e-17 0)
(3 2.49024e-16 0)
(3 1.18667e-16 0)
(3 -6.62442e-17 0)
(3 -1.49988e-16 0)
(3 -1.99083e-17 0)
(3 3.66776e-16 0)
(3 5.86108e-16 0)
(3 6.51915e-16 0)
(3 4.74234e-16 0)
(3 5.497e-16 0)
(3 4.80529e-16 0)
(3 6.70738e-16 0)
(3 7.64214e-16 0)
(3 1.2165e-15 0)
(3 1.05952e-15 0)
(3 1.27527e-15 0)
(3 1.33026e-15 0)
(3 1.42603e-15 0)
(3 1.91969e-15 0)
(3 2.19541e-15 0)
(3 1.98495e-15 0)
(3 7.13761e-16 0)
(3 -6.29907e-17 0)
(3 1.49839e-16 0)
(3 -5.32156e-17 0)
(3 7.84879e-17 0)
(3 2.23602e-16 0)
(3 8.65957e-17 0)
(3 6.50858e-17 0)
(3 -1.61209e-16 0)
(3 -2.90699e-16 0)
(3 -4.23243e-16 0)
(3 -4.40481e-16 0)
(3 -4.08869e-18 0)
(3 2.00265e-16 0)
(3 1.02196e-15 0)
(3 9.19471e-16 0)
(3 7.52773e-16 0)
(3 1.28407e-15 0)
(3 6.80797e-16 0)
(3 8.9834e-16 0)
(3 8.93723e-16 0)
(3 7.34266e-16 0)
(3 7.77573e-16 0)
(3 3.88735e-16 0)
(3 1.15632e-16 0)
(3 4.6854e-17 0)
(3 2.39003e-16 0)
(3 -2.64503e-16 0)
(3 -3.50466e-16 0)
(3 -1.55844e-16 0)
(3 3.81352e-16 0)
(3 1.29665e-16 0)
(3 -8.83086e-16 0)
(3 -1.29727e-15 0)
(3 -9.29586e-16 0)
(3 -2.88278e-16 0)
(3 -1.89861e-16 0)
(3 -2.13032e-16 0)
(3 8.95953e-16 0)
(3 1.6517e-15 0)
(3 1.29461e-15 0)
(3 1.04015e-15 0)
(3 5.42962e-16 0)
(3 9.86352e-16 0)
(3 9.15265e-16 0)
(3 -1.53489e-16 0)
(3 -8.54814e-16 0)
(3 -5.56394e-16 0)
(3 8.41743e-16 0)
(3 3.37658e-17 0)
(3 5.51911e-17 0)
(3 1.46691e-16 0)
(3 6.22547e-17 0)
(3 -1.98375e-16 0)
(3 -2.56653e-16 0)
(3 -2.1609e-16 0)
(3 -1.48056e-15 0)
(3 -1.61467e-15 0)
(3 -1.20971e-15 0)
(3 -4.22826e-16 0)
(3 4.3398e-17 0)
(3 -6.63954e-17 0)
(3 6.97896e-17 0)
(3 7.97609e-16 0)
(3 1.23139e-15 0)
(3 1.12847e-15 0)
(3 1.7367e-15 0)
(3 1.98976e-15 0)
(3 1.98106e-15 0)
(3 1.1965e-15 0)
(3 -4.73677e-16 0)
(3 -6.29287e-16 0)
(3 -1.4457e-16 0)
(3 -3.03994e-18 0)
(3 6.53891e-18 0)
(3 4.10153e-16 0)
(3 4.47766e-16 0)
(3 1.92664e-16 0)
(3 -1.12137e-16 0)
(3 -3.44551e-16 0)
(3 -3.16037e-16 0)
(3 1.02318e-17 0)
(3 2.73639e-16 0)
(3 2.11684e-16 0)
(3 6.02569e-16 0)
(3 5.69894e-16 0)
(3 1.2393e-16 0)
(3 -2.5307e-16 0)
(3 -2.30315e-16 0)
(3 3.14189e-16 0)
(3 1.00751e-15 0)
(3 1.16774e-15 0)
(3 1.57048e-15 0)
(3 1.4915e-15 0)
(3 6.68267e-16 0)
(3 4.22193e-16 0)
(3 8.77869e-17 0)
(3 -2.00891e-17 0)
(3 3.13122e-16 0)
(3 3.38609e-16 0)
(3 4.25324e-16 0)
(3 -1.33098e-17 0)
(3 -2.94457e-16 0)
(3 1.20626e-18 0)
(3 1.04502e-15 0)
(3 1.10507e-15 0)
(3 7.32511e-16 0)
(3 3.57353e-16 0)
(3 -4.11913e-16 0)
(3 -5.49638e-16 0)
(3 -8.24035e-16 0)
(3 -1.31007e-15 0)
(3 -1.81541e-15 0)
(3 -1.754e-15 0)
(3 -1.37868e-15 0)
(3 -7.44394e-16 0)
(3 1.31745e-16 0)
(3 4.78329e-16 0)
(3 9.02684e-16 0)
(3 1.57924e-15 0)
(3 3.10618e-16 0)
(3 -5.26371e-17 0)
(3 1.5277e-16 0)
(3 -1.90306e-17 0)
(3 -6.06318e-17 0)
(3 -4.59207e-16 0)
(3 -5.65695e-16 0)
(3 -4.70903e-16 0)
(3 -4.08831e-16 0)
(3 -3.40912e-16 0)
(3 -8.08089e-16 0)
(3 -8.94877e-16 0)
(3 -1.52249e-15 0)
(3 -1.44019e-15 0)
(3 -1.8371e-15 0)
(3 -2.95291e-15 0)
(3 -2.95228e-15 0)
(3 -2.13668e-15 0)
(3 -1.78708e-15 0)
(3 -1.62549e-15 0)
(3 -1.23643e-15 0)
(3 1.87643e-16 0)
(3 7.14462e-16 0)
(3 1.12907e-15 0)
(3 -5.9112e-16 0)
(3 1.41019e-17 0)
(3 -4.65005e-16 0)
(3 -6.90682e-16 0)
(3 -8.83775e-16 0)
(3 -4.50053e-16 0)
(3 -1.51252e-16 0)
(3 1.64581e-16 0)
(3 5.81836e-17 0)
(3 -1.70925e-16 0)
(3 -1.98764e-16 0)
(3 -8.40017e-16 0)
(3 -8.3306e-16 0)
(3 -5.94278e-16 0)
(3 -9.4611e-16 0)
(3 -1.31418e-15 0)
(3 -1.64128e-15 0)
(3 -1.26171e-15 0)
(3 -7.60885e-16 0)
(3 -1.14824e-15 0)
(3 -1.37436e-15 0)
(3 -3.10573e-16 0)
(3 -3.17167e-16 0)
(3 -1.54305e-16 0)
(3 -1.86518e-16 0)
(3 -5.88829e-17 0)
(3 -2.10093e-16 0)
(3 -3.45142e-16 0)
(3 -3.96327e-16 0)
(3 -7.89042e-16 0)
(3 -5.41038e-16 0)
(3 -1.44281e-16 0)
(3 2.73443e-16 0)
(3 6.25493e-16 0)
(3 6.44956e-16 0)
(3 5.77075e-16 0)
(3 9.08233e-16 0)
(3 6.76984e-16 0)
(3 4.59884e-16 0)
(3 4.7722e-16 0)
(3 4.10377e-16 0)
(3 2.21812e-16 0)
(3 1.15901e-16 0)
(3 4.32269e-16 0)
(3 1.26728e-15 0)
(3 1.51809e-15 0)
(3 1.57053e-15 0)
(3 1.63289e-15 0)
(3 1.97184e-15 0)
(3 -4.9348e-17 0)
(3 1.33001e-16 0)
(3 4.34587e-16 0)
(3 5.48743e-16 0)
(3 -4.91834e-16 0)
(3 -8.28373e-16 0)
(3 -7.18481e-16 0)
(3 -4.02714e-16 0)
(3 8.28633e-17 0)
(3 2.40378e-16 0)
(3 8.14163e-16 0)
(3 1.25365e-15 0)
(3 7.51035e-16 0)
(3 6.16911e-16 0)
(3 6.22983e-16 0)
(3 5.15336e-16 0)
(3 4.99929e-16 0)
(3 1.48357e-16 0)
(3 3.15044e-16 0)
(3 9.24175e-16 0)
(3 9.16099e-16 0)
(3 7.04484e-16 0)
(3 5.61777e-16 0)
(3 1.86777e-16 0)
(2.93412 0.00816191 0)
(2.84543 0.072679 0)
(2.75176 0.160068 0)
(2.68222 0.219472 0)
(2.56344 0.367083 0)
(2.51328 0.436797 0)
(2.41784 0.544217 0)
(2.35218 0.628318 0)
(2.31384 0.723921 0)
(2.25508 0.798433 0)
(2.24587 0.853259 0)
(2.2819 0.884261 0)
(2.32955 0.896128 0)
(2.33681 0.887618 0)
(2.34519 0.884481 0)
(2.3472 0.867186 0)
(2.34888 0.856811 0)
(2.34508 0.851466 0)
(2.33923 0.847563 0)
(2.34005 0.847858 0)
(2.34386 0.849449 0)
(2.34309 0.849115 0)
(2.34165 0.849058 0)
(2.33767 0.849827 0)
(2.99894 0.0010008 0)
(2.98933 0.0121967 0)
(2.95938 0.0523056 0)
(2.90609 0.128654 0)
(2.79683 0.279512 0)
(2.69214 0.455895 0)
(2.52031 0.692209 0)
(2.39143 0.898739 0)
(2.22954 1.06282 0)
(2.16618 1.1074 0)
(2.14109 1.0404 0)
(2.19412 0.99341 0)
(2.24609 0.944553 0)
(2.29346 0.903717 0)
(2.33469 0.85796 0)
(2.3498 0.823243 0)
(2.35881 0.829491 0)
(2.35708 0.837658 0)
(2.3534 0.840507 0)
(2.3505 0.841333 0)
(2.35044 0.842783 0)
(2.34945 0.844896 0)
(2.34537 0.845073 0)
(2.34065 0.847137 0)
(3 -1.78434e-06 0)
(3 -2.85306e-05 0)
(2.99994 0.000114701 0)
(2.99996 4.52783e-05 0)
(2.99853 0.00203442 0)
(2.99193 0.0117514 0)
(2.96462 0.054352 0)
(2.89881 0.173976 0)
(2.78297 0.401084 0)
(2.56685 0.728936 0)
(2.46468 0.845087 0)
(2.33814 0.92823 0)
(2.29363 0.91368 0)
(2.29494 0.900042 0)
(2.30906 0.889042 0)
(2.34315 0.869291 0)
(2.36069 0.861496 0)
(2.36125 0.851691 0)
(2.36118 0.840871 0)
(2.35864 0.841608 0)
(2.35543 0.84252 0)
(2.35364 0.843655 0)
(2.35042 0.845262 0)
(2.34606 0.846743 0)
(3 -9.20245e-08 0)
(3 -3.70191e-07 0)
(3 -2.54111e-07 0)
(3 -5.73994e-07 0)
(3.00001 -8.58395e-06 0)
(2.99999 1.99104e-05 0)
(3.00006 -0.000134562 0)
(2.99922 0.00139669 0)
(2.99096 0.0161735 0)
(2.88767 0.176847 0)
(2.78147 0.411523 0)
(2.43688 0.789187 0)
(2.32691 0.902005 0)
(2.27733 0.943514 0)
(2.28492 0.94951 0)
(2.30247 0.929408 0)
(2.33514 0.891582 0)
(2.3527 0.857998 0)
(2.35795 0.846511 0)
(2.35932 0.839526 0)
(2.35774 0.841664 0)
(2.35612 0.848607 0)
(2.35619 0.852363 0)
(2.35211 0.85393 0)
(3 1.57105e-10 0)
(3 1.44585e-10 0)
(3 -1.83008e-08 0)
(3 -6.12417e-08 0)
(3 -7.0669e-07 0)
(3 -7.77195e-07 0)
(3 -3.98398e-06 0)
(3 -2.52634e-06 0)
(3.00003 -7.74031e-05 0)
(2.9992 0.00100997 0)
(2.98739 0.0192748 0)
(2.86344 0.173194 0)
(2.62714 0.487317 0)
(2.48392 0.703959 0)
(2.30318 0.902449 0)
(2.27635 0.909487 0)
(2.3044 0.887618 0)
(2.31892 0.87452 0)
(2.34389 0.867162 0)
(2.35056 0.856072 0)
(2.35712 0.844826 0)
(2.35641 0.846289 0)
(2.35516 0.85027 0)
(2.35074 0.859313 0)
(3 1.31647e-11 0)
(3 5.9848e-12 0)
(3 5.65045e-11 0)
(3 -4.10958e-10 0)
(3 7.60054e-10 0)
(3 -6.09344e-08 0)
(3 -8.93814e-08 0)
(3 -2.21473e-07 0)
(3 -6.56632e-06 0)
(3 -6.30906e-06 0)
(3.00002 -5.69243e-05 0)
(2.99842 0.00198062 0)
(2.9714 0.0380957 0)
(2.84688 0.209725 0)
(2.50118 0.615672 0)
(2.4001 0.74501 0)
(2.31386 0.864544 0)
(2.2931 0.890458 0)
(2.30527 0.884906 0)
(2.32532 0.865814 0)
(2.34148 0.841048 0)
(2.34553 0.839351 0)
(2.3474 0.840074 0)
(2.34789 0.84133 0)
(3 -2.62472e-14 0)
(3 3.48334e-13 0)
(3 5.34449e-12 0)
(3 1.48407e-11 0)
(3 2.54833e-11 0)
(3 -1.90047e-10 0)
(3 -2.73003e-10 0)
(3 -1.49582e-09 0)
(3 -1.86361e-08 0)
(3 -4.33345e-07 0)
(3 -7.89848e-06 0)
(3 -4.23363e-06 0)
(2.99999 -3.70025e-06 0)
(2.99627 0.00510047 0)
(2.92619 0.0912178 0)
(2.79615 0.292874 0)
(2.41209 0.729762 0)
(2.33944 0.820272 0)
(2.31371 0.852214 0)
(2.31033 0.85158 0)
(2.31648 0.844359 0)
(2.33135 0.838753 0)
(2.3396 0.838664 0)
(2.34138 0.836789 0)
(3 -4.2599e-16 0)
(3 -3.19422e-16 0)
(3 8.94191e-14 0)
(3 1.38161e-12 0)
(3 6.33696e-12 0)
(3 7.23001e-12 0)
(3 8.53299e-12 0)
(3 3.62053e-12 0)
(3 1.65523e-10 0)
(3 -1.08125e-09 0)
(3 -3.32998e-08 0)
(3 -5.92943e-07 0)
(3 -1.15019e-06 0)
(3.00001 -2.51943e-05 0)
(2.99952 0.000832231 0)
(2.99028 0.015566 0)
(2.84802 0.193013 0)
(2.70031 0.429596 0)
(2.39434 0.767019 0)
(2.28159 0.904262 0)
(2.28056 0.864479 0)
(2.311 0.848794 0)
(2.31869 0.846739 0)
(2.32581 0.842664 0)
(3 9.23265e-16 0)
(3 4.41512e-16 0)
(3 -1.59463e-16 0)
(3 8.85427e-15 0)
(3 1.0492e-13 0)
(3 8.96026e-13 0)
(3 1.82092e-12 0)
(3 1.70547e-12 0)
(3 1.46886e-11 0)
(3 1.54343e-11 0)
(3 3.44903e-10 0)
(3 -4.03658e-09 0)
(3 -8.31699e-08 0)
(3 -3.91146e-06 0)
(3.00001 -2.90442e-06 0)
(3.00001 -2.86295e-05 0)
(2.99645 0.00581695 0)
(2.96917 0.0541427 0)
(2.72452 0.362862 0)
(2.53546 0.626366 0)
(2.41084 0.773297 0)
(2.32649 0.841859 0)
(2.30742 0.853257 0)
(2.31119 0.846304 0)
(3 1.58217e-15 0)
(3 8.38473e-16 0)
(3 2.23976e-16 0)
(3 -2.68646e-17 0)
(3 6.1883e-16 0)
(3 1.21082e-14 0)
(3 4.54541e-14 0)
(3 1.37787e-13 0)
(3 3.54966e-13 0)
(3 2.15804e-12 0)
(3 4.24743e-11 0)
(3 2.77837e-11 0)
(3 2.81045e-11 0)
(3 -4.46701e-08 0)
(3 -5.17049e-07 0)
(3 -2.45929e-06 0)
(3.00001 -1.1999e-05 0)
(2.99966 0.000555837 0)
(2.97947 0.0303026 0)
(2.89836 0.167702 0)
(2.58703 0.584187 0)
(2.40238 0.79636 0)
(2.34432 0.81825 0)
(2.33274 0.825613 0)
(3 1.19653e-15 0)
(3 -2.08299e-16 0)
(3 -1.09363e-15 0)
(3 -1.12727e-15 0)
(3 -1.33996e-15 0)
(3 -5.65442e-16 0)
(3 -1.42614e-15 0)
(3 -3.25226e-16 0)
(3 4.52456e-15 0)
(3 1.27494e-14 0)
(3 7.93837e-13 0)
(3 3.72295e-12 0)
(3 1.00595e-11 0)
(3 1.30829e-10 0)
(3 -1.98423e-08 0)
(3 -1.00043e-07 0)
(3 -1.61259e-06 0)
(3 -4.61725e-06 0)
(2.99989 0.000207277 0)
(2.99627 0.00765049 0)
(2.91851 0.118612 0)
(2.70584 0.423102 0)
(2.51599 0.672366 0)
(2.34763 0.871704 0)
(3 -1.50411e-15 0)
(3 -1.3718e-15 0)
(3 -6.208e-16 0)
(3 -1.29621e-16 0)
(3 -1.2364e-15 0)
(3 -2.51551e-15 0)
(3 -2.06331e-15 0)
(3 -6.9421e-16 0)
(3 4.89039e-16 0)
(3 9.42352e-16 0)
(3 2.20869e-15 0)
(3 -4.0683e-15 0)
(3 1.43349e-12 0)
(3 5.76761e-12 0)
(3 9.40184e-11 0)
(3 -1.82293e-09 0)
(3 -1.6609e-08 0)
(3 -1.1727e-06 0)
(3 -1.6265e-06 0)
(2.99999 6.5108e-06 0)
(2.99769 0.00385543 0)
(2.96311 0.0627717 0)
(2.80348 0.316973 0)
(2.53036 0.68588 0)
(3 -2.17424e-15 0)
(3 -1.31e-15 0)
(3 -1.26655e-16 0)
(3 -1.6225e-16 0)
(3 2.2297e-16 0)
(3 -1.187e-16 0)
(3 -5.38448e-18 0)
(3 2.37877e-17 0)
(3 8.73342e-16 0)
(3 1.35701e-15 0)
(3 1.51556e-15 0)
(3 4.58445e-15 0)
(3 2.5307e-15 0)
(3 3.4784e-13 0)
(3 1.22406e-11 0)
(3 2.85262e-11 0)
(3 -5.19909e-11 0)
(3 -2.04506e-08 0)
(3 -6.15669e-07 0)
(3 -4.89728e-07 0)
(3 -2.55264e-06 0)
(2.99936 0.00124627 0)
(2.97888 0.0391689 0)
(2.8715 0.222708 0)
(3 -1.70179e-15 0)
(3 -9.54324e-16 0)
(3 -1.44135e-15 0)
(3 -1.83131e-15 0)
(3 -7.1892e-16 0)
(3 1.55704e-15 0)
(3 1.66466e-15 0)
(3 9.48498e-16 0)
(3 1.45631e-15 0)
(3 2.76393e-15 0)
(3 2.98095e-15 0)
(3 6.7763e-16 0)
(3 -2.54803e-16 0)
(3 1.93652e-15 0)
(3 9.31601e-13 0)
(3 8.32867e-12 0)
(3 7.23486e-12 0)
(3 2.44752e-11 0)
(3 -2.75004e-08 0)
(3 -9.19767e-08 0)
(3 -2.26628e-07 0)
(3 -2.61149e-06 0)
(2.99961 0.000803704 0)
(2.99349 0.0148643 0)
(3 -1.59151e-15 0)
(3 -1.60929e-15 0)
(3 -1.98013e-15 0)
(3 -1.55957e-15 0)
(3 -4.347e-16 0)
(3 -2.84987e-17 0)
(3 9.31221e-17 0)
(3 5.94493e-17 0)
(3 3.0819e-16 0)
(3 7.63021e-16 0)
(3 6.08124e-16 0)
(3 7.01002e-16 0)
(3 5.36761e-16 0)
(3 -3.95715e-16 0)
(3 3.6029e-15 0)
(3 3.58733e-13 0)
(3 1.9866e-12 0)
(3 2.03234e-12 0)
(3 -8.4026e-11 0)
(3 -6.2669e-09 0)
(3 -4.36365e-08 0)
(3 -4.29291e-07 0)
(3 5.52657e-06 0)
(3.00002 -7.75504e-05 0)
(3 -7.29143e-16 0)
(3 -1.7059e-15 0)
(3 -1.82792e-15 0)
(3 -2.06027e-15 0)
(3 -1.26321e-15 0)
(3 -1.41473e-15 0)
(3 -6.61714e-16 0)
(3 1.00888e-15 0)
(3 1.59396e-15 0)
(3 7.75372e-16 0)
(3 4.87103e-16 0)
(3 6.23511e-16 0)
(3 1.17994e-15 0)
(3 2.36829e-16 0)
(3 8.20864e-17 0)
(3 8.77688e-16 0)
(3 6.1992e-14 0)
(3 5.87845e-13 0)
(3 1.37966e-13 0)
(3 -2.57421e-11 0)
(3 -6.35992e-09 0)
(3 -8.72755e-09 0)
(3 -1.99631e-07 0)
(3 -1.68427e-06 0)
(3 -4.7978e-16 0)
(3 -1.24592e-15 0)
(3 -2.1159e-15 0)
(3 -2.18184e-15 0)
(3 -2.82323e-15 0)
(3 -1.79255e-15 0)
(3 9.20198e-17 0)
(3 2.13958e-15 0)
(3 1.16293e-15 0)
(3 -6.24745e-16 0)
(3 -7.18286e-16 0)
(3 -7.76352e-16 0)
(3 -1.28015e-15 0)
(3 -1.08679e-15 0)
(3 -5.80909e-16 0)
(3 -3.15033e-15 0)
(3 -7.54656e-14 0)
(3 -6.35559e-13 0)
(3 -1.78202e-12 0)
(3 6.50101e-11 0)
(3 7.80165e-10 0)
(3 1.39999e-07 0)
(3 1.45623e-07 0)
(3 7.68048e-07 0)
(3 -4.51713e-16 0)
(3 -4.29101e-17 0)
(3 -1.19948e-16 0)
(3 6.86523e-16 0)
(3 7.37754e-16 0)
(3 3.87429e-16 0)
(3 4.62833e-16 0)
(3 1.37e-15 0)
(3 8.9201e-16 0)
(3 -2.19537e-15 0)
(3 -2.83685e-15 0)
(3 -2.58183e-15 0)
(3 -2.88261e-15 0)
(3 -2.00424e-15 0)
(3 -5.17598e-15 0)
(3 -4.50428e-13 0)
(3 -2.40464e-12 0)
(3 -2.57811e-12 0)
(3 6.19732e-11 0)
(3 1.00214e-08 0)
(3 4.04752e-08 0)
(3 3.95117e-07 0)
(3 5.50081e-06 0)
(2.99996 -0.000100891 0)
(3 -4.17113e-16 0)
(3 7.08133e-16 0)
(3 1.79436e-15 0)
(3 1.69401e-15 0)
(3 1.56718e-15 0)
(3 1.42996e-15 0)
(3 1.00095e-15 0)
(3 5.12663e-17 0)
(3 -1.31344e-15 0)
(3 -2.20983e-15 0)
(3 -2.61805e-15 0)
(3 -2.07355e-15 0)
(3 -2.27753e-15 0)
(3 -4.81133e-15 0)
(3 -7.80548e-13 0)
(3 -8.80357e-12 0)
(3 -8.90309e-12 0)
(3 1.29539e-10 0)
(3 2.36382e-08 0)
(3 1.8583e-07 0)
(3 2.5109e-07 0)
(3 9.59027e-07 0)
(2.9997 -0.000549492 0)
(2.98886 -0.020577 0)
(3 -8.12004e-16 0)
(3 -5.56995e-17 0)
(3 6.30675e-16 0)
(3 3.1968e-16 0)
(3 -1.49228e-16 0)
(3 -4.8112e-16 0)
(3 -1.68043e-16 0)
(3 -2.25292e-16 0)
(3 -1.47985e-15 0)
(3 -1.95013e-15 0)
(3 -1.97347e-15 0)
(3 -3.35688e-15 0)
(3 1.63232e-15 0)
(3 -4.21448e-13 0)
(3 -8.47418e-12 0)
(3 -2.93525e-11 0)
(3 4.10539e-11 0)
(3 2.66102e-08 0)
(3 5.37377e-07 0)
(3 7.04978e-07 0)
(3 -9.40658e-08 0)
(2.99934 -0.00136752 0)
(2.98216 -0.0313015 0)
(2.823 -0.266542 0)
(3 -6.57357e-16 0)
(3 -1.11012e-15 0)
(3 -1.35878e-15 0)
(3 -6.91817e-16 0)
(3 -4.88258e-16 0)
(3 -1.46636e-15 0)
(3 -1.62662e-15 0)
(3 -9.79162e-16 0)
(3 -8.68526e-16 0)
(3 -1.26268e-15 0)
(3 -3.07759e-15 0)
(3 9.83128e-15 0)
(3 -1.26615e-12 0)
(3 -6.60425e-12 0)
(3 -8.65601e-11 0)
(3 1.65957e-09 0)
(3 1.84885e-08 0)
(3 1.00587e-06 0)
(3 1.6905e-06 0)
(2.99999 -4.38879e-06 0)
(2.9977 -0.00402749 0)
(2.96311 -0.0601927 0)
(2.79609 -0.326181 0)
(2.5134 -0.683922 0)
(3 5.24541e-16 0)
(3 1.21167e-16 0)
(3 -2.56508e-16 0)
(3 -3.39762e-16 0)
(3 -3.62612e-16 0)
(3 -5.56652e-16 0)
(3 -9.02571e-16 0)
(3 -2.39532e-15 0)
(3 -2.65161e-15 0)
(3 -1.47775e-14 0)
(3 -7.75615e-13 0)
(3 -3.61678e-12 0)
(3 -1.02317e-11 0)
(3 -1.22877e-10 0)
(3 1.95539e-08 0)
(3 9.97608e-08 0)
(3 1.63069e-06 0)
(3 4.41449e-06 0)
(2.9999 -0.000184148 0)
(2.9959 -0.00807625 0)
(2.92269 -0.113524 0)
(2.694 -0.433272 0)
(2.51541 -0.676029 0)
(2.33399 -0.865001 0)
(3 -3.15842e-16 0)
(3 5.07132e-17 0)
(3 6.89784e-16 0)
(3 -5.91158e-17 0)
(3 6.0383e-16 0)
(3 -7.27086e-15 0)
(3 -4.29819e-14 0)
(3 -1.33234e-13 0)
(3 -3.93739e-13 0)
(3 -2.1671e-12 0)
(3 -4.27311e-11 0)
(3 -2.56371e-11 0)
(3 -2.39569e-11 0)
(3 4.36736e-08 0)
(3 5.38285e-07 0)
(3 2.43167e-06 0)
(3.00001 1.21129e-05 0)
(2.99966 -0.000570156 0)
(2.97994 -0.0293095 0)
(2.89181 -0.173139 0)
(2.6009 -0.566389 0)
(2.38948 -0.817238 0)
(2.34257 -0.812329 0)
(2.33124 -0.820403 0)
(3 -8.52923e-16 0)
(3 4.87474e-16 0)
(3 2.35997e-15 0)
(3 -6.65791e-15 0)
(3 -1.04764e-13 0)
(3 -8.94549e-13 0)
(3 -1.82144e-12 0)
(3 -1.70711e-12 0)
(3 -1.51737e-11 0)
(3 -1.54244e-11 0)
(3 -3.4434e-10 0)
(3 4.06436e-09 0)
(3 8.2312e-08 0)
(3 3.90273e-06 0)
(3.00001 2.93195e-06 0)
(3.00001 2.79479e-05 0)
(2.99645 -0.00580755 0)
(2.96903 -0.0543211 0)
(2.72489 -0.362407 0)
(2.53604 -0.623932 0)
(2.40979 -0.772172 0)
(2.32749 -0.845459 0)
(2.30559 -0.853561 0)
(2.30938 -0.843267 0)
(3 1.60125e-15 0)
(3 3.04924e-15 0)
(3 -8.52455e-14 0)
(3 -1.37526e-12 0)
(3 -6.32715e-12 0)
(3 -7.22816e-12 0)
(3 -8.53008e-12 0)
(3 -3.63035e-12 0)
(3 -1.68489e-10 0)
(3 1.11449e-09 0)
(3 3.27951e-08 0)
(3 5.93853e-07 0)
(3 1.14314e-06 0)
(3.00001 2.51303e-05 0)
(2.99952 -0.000831117 0)
(2.99027 -0.0155867 0)
(2.84804 -0.192955 0)
(2.70015 -0.429712 0)
(2.39265 -0.768424 0)
(2.28067 -0.902523 0)
(2.28306 -0.864261 0)
(2.31094 -0.85008 0)
(2.31772 -0.847793 0)
(2.32568 -0.841833 0)
(3 2.75322e-14 0)
(3 -3.49341e-13 0)
(3 -5.35029e-12 0)
(3 -1.4834e-11 0)
(3 -2.54746e-11 0)
(3 1.92709e-10 0)
(3 2.69569e-10 0)
(3 1.49608e-09 0)
(3 1.86359e-08 0)
(3 4.33347e-07 0)
(3 7.8973e-06 0)
(3 4.35455e-06 0)
(2.99999 2.99652e-06 0)
(2.99628 -0.00509008 0)
(2.92616 -0.0912715 0)
(2.79614 -0.292833 0)
(2.41272 -0.729104 0)
(2.33807 -0.821492 0)
(2.31356 -0.852128 0)
(2.31069 -0.850977 0)
(2.31721 -0.843891 0)
(2.33143 -0.839743 0)
(2.33908 -0.838923 0)
(2.34151 -0.836399 0)
(3 -1.31452e-11 0)
(3 -6.01701e-12 0)
(3 -5.68309e-11 0)
(3 4.11032e-10 0)
(3 -7.63031e-10 0)
(3 6.08951e-08 0)
(3 8.93901e-08 0)
(3 2.21474e-07 0)
(3 6.56583e-06 0)
(3 6.30897e-06 0)
(3.00002 5.69258e-05 0)
(2.99842 -0.00198017 0)
(2.97139 -0.0381107 0)
(2.84697 -0.209663 0)
(2.50107 -0.615896 0)
(2.40024 -0.744797 0)
(2.314 -0.86444 0)
(2.29304 -0.890678 0)
(2.30523 -0.885107 0)
(2.3256 -0.865522 0)
(2.34161 -0.84079 0)
(2.34548 -0.83975 0)
(2.34728 -0.84003 0)
(2.34782 -0.841305 0)
(3 -1.53243e-10 0)
(3 -1.56451e-10 0)
(3 1.82771e-08 0)
(3 6.101e-08 0)
(3 7.0577e-07 0)
(3 7.76943e-07 0)
(3 3.98844e-06 0)
(3 2.52726e-06 0)
(3.00003 7.7373e-05 0)
(2.9992 -0.00101029 0)
(2.98739 -0.0192749 0)
(2.86344 -0.173193 0)
(2.62714 -0.487308 0)
(2.48391 -0.703985 0)
(2.3032 -0.902481 0)
(2.27633 -0.909402 0)
(2.30442 -0.887577 0)
(2.31897 -0.874537 0)
(2.34369 -0.867452 0)
(2.35086 -0.855732 0)
(2.3572 -0.844749 0)
(2.35642 -0.846378 0)
(2.35514 -0.85037 0)
(2.35069 -0.859359 0)
(3 9.14806e-08 0)
(3 3.72271e-07 0)
(3 2.55498e-07 0)
(3 5.74391e-07 0)
(3.00001 8.5799e-06 0)
(2.99999 -1.99113e-05 0)
(3.00006 0.000134703 0)
(2.99922 -0.0013972 0)
(2.99097 -0.01617 0)
(2.88765 -0.176859 0)
(2.78143 -0.411555 0)
(2.43697 -0.789102 0)
(2.3269 -0.902026 0)
(2.27731 -0.943552 0)
(2.28488 -0.949533 0)
(2.30245 -0.92938 0)
(2.33518 -0.891504 0)
(2.35267 -0.858092 0)
(2.3578 -0.846707 0)
(2.35941 -0.839384 0)
(2.35785 -0.841557 0)
(2.35622 -0.848646 0)
(2.35622 -0.852461 0)
(2.35207 -0.853942 0)
(3 1.77548e-06 0)
(3 2.85914e-05 0)
(2.99994 -0.00011477 0)
(2.99996 -4.54493e-05 0)
(2.99853 -0.00203467 0)
(2.99193 -0.0117507 0)
(2.96462 -0.0543463 0)
(2.8988 -0.173998 0)
(2.78303 -0.401031 0)
(2.56682 -0.728964 0)
(2.46465 -0.845124 0)
(2.33815 -0.928223 0)
(2.29365 -0.913671 0)
(2.29495 -0.900037 0)
(2.30903 -0.889092 0)
(2.34312 -0.869261 0)
(2.36082 -0.861366 0)
(2.36124 -0.851755 0)
(2.36109 -0.840944 0)
(2.35859 -0.841571 0)
(2.35546 -0.842467 0)
(2.35371 -0.843692 0)
(2.35045 -0.845326 0)
(2.34603 -0.846721 0)
(2.99894 -0.00100127 0)
(2.98934 -0.0121931 0)
(2.95938 -0.0523062 0)
(2.90609 -0.128655 0)
(2.79683 -0.279525 0)
(2.69215 -0.455891 0)
(2.52032 -0.692199 0)
(2.39139 -0.898754 0)
(2.22958 -1.06279 0)
(2.1662 -1.1074 0)
(2.14109 -1.04042 0)
(2.19406 -0.993417 0)
(2.24614 -0.944544 0)
(2.29347 -0.903707 0)
(2.33463 -0.858029 0)
(2.34971 -0.823222 0)
(2.35888 -0.829411 0)
(2.35718 -0.837639 0)
(2.35337 -0.840528 0)
(2.35046 -0.841342 0)
(2.35043 -0.842777 0)
(2.34947 -0.844907 0)
(2.3454 -0.845073 0)
(2.34066 -0.847115 0)
(2.93412 -0.00819101 0)
(2.84544 -0.0726196 0)
(2.75175 -0.160085 0)
(2.68221 -0.219496 0)
(2.56344 -0.367085 0)
(2.51329 -0.436782 0)
(2.41784 -0.544218 0)
(2.35219 -0.628322 0)
(2.31384 -0.723926 0)
(2.25508 -0.798424 0)
(2.24586 -0.853265 0)
(2.28188 -0.88426 0)
(2.32955 -0.896116 0)
(2.33683 -0.887627 0)
(2.34518 -0.88447 0)