/*--------------------------------*- C++ -*----------------------------------*\
  =========                 |
  \\      /  F ield         | OpenFOAM: The Open Source CFD Toolbox
   \\    /   O peration     | Website:  https://openfoam.org
    \\  /    A nd           | Version:  7
     \\/     M anipulation  |
\*---------------------------------------------------------------------------*/
FoamFile
{
    version     2.0;
    format      ascii;
    class       volVectorField;
    location    "2.6";
    object      U;
}
// * * * * * * * * * * * * * * * * * * * * * * * * * * * * * * * * * * * * * //

dimensions      [0 1 -1 0 0 0 0];

internalField   nonuniform List<vector> 
73728
(
(3 3.18668e-17 0)
(3 1.21285e-16 0)
(3 -1.28068e-17 0)
(3 -3.81706e-16 0)
(3 -9.9879e-16 0)
(3 -9.03711e-16 0)
(3 -6.95026e-16 0)
(3 -4.95121e-16 0)
(3 -1.517e-16 0)
(3 8.96352e-17 0)
(3 1.46841e-17 0)
(3 8.10895e-17 0)
(3 -1.0275e-15 0)
(3 -1.63956e-15 0)
(3 -2.00363e-15 0)
(3 -1.83666e-15 0)
(3 -1.63904e-15 0)
(3 -1.48499e-15 0)
(3 -8.5951e-16 0)
(3 -7.97797e-16 0)
(3 -1.03015e-15 0)
(3 -1.30506e-15 0)
(3 -9.95899e-16 0)
(3 -4.9476e-16 0)
(3 -4.03995e-16 0)
(3 -5.37972e-16 0)
(3 -6.75276e-16 0)
(3 -7.98537e-16 0)
(3 -7.08754e-16 0)
(3 -4.58648e-17 0)
(3 8.20034e-16 0)
(3 1.48871e-15 0)
(3 1.59898e-15 0)
(3 1.46106e-15 0)
(3 1.42098e-15 0)
(3 1.30418e-15 0)
(3 7.00518e-16 0)
(3 6.85791e-16 0)
(3 1.06806e-15 0)
(3 1.21262e-15 0)
(3 1.03579e-15 0)
(3 -1.62929e-16 0)
(3 -6.34704e-16 0)
(3 -1.02331e-15 0)
(3 -8.0953e-16 0)
(3 -5.59642e-16 0)
(3 -1.15009e-15 0)
(3 -1.80759e-15 0)
(3 -2.27053e-15 0)
(3 -1.88689e-15 0)
(3 -9.4014e-16 0)
(3 -3.36297e-16 0)
(3 8.05632e-17 0)
(3 -2.61804e-17 0)
(3 1.0922e-15 0)
(3 1.21614e-15 0)
(3 1.39751e-15 0)
(3 1.18028e-15 0)
(3 8.29092e-16 0)
(3 9.82055e-16 0)
(3 1.26939e-15 0)
(3 1.24055e-15 0)
(3 8.9747e-16 0)
(3 1.52855e-16 0)
(3 9.75845e-18 0)
(3 -1.17831e-18 0)
(3 9.60534e-17 0)
(3 4.35088e-16 0)
(3 6.49018e-16 0)
(3 7.31719e-16 0)
(3 8.15118e-16 0)
(3 5.886e-16 0)
(3 3.47187e-16 0)
(3 7.21139e-16 0)
(3 1.19189e-15 0)
(3 8.72405e-16 0)
(3 7.2781e-16 0)
(3 6.12043e-16 0)
(3 7.43086e-16 0)
(3 8.0507e-16 0)
(3 1.36257e-15 0)
(3 9.33658e-16 0)
(3 -3.37744e-16 0)
(3 -1.21482e-15 0)
(3 -1.26006e-15 0)
(3 -1.7648e-15 0)
(3 -2.43046e-15 0)
(3 -2.49608e-15 0)
(3 -1.98582e-15 0)
(3 -8.63904e-16 0)
(3 2.74992e-16 0)
(3 7.28971e-16 0)
(3 1.13203e-15 0)
(3 1.65771e-15 0)
(3 1.9881e-15 0)
(3 1.20503e-15 0)
(3 1.8871e-16 0)
(3 7.70641e-16 0)
(3 3.92592e-16 0)
(3 8.07825e-17 0)
(3 -6.31675e-16 0)
(3 -1.30254e-15 0)
(3 -9.75668e-16 0)
(3 -4.40847e-16 0)
(3 6.80239e-16 0)
(3 1.32592e-15 0)
(3 1.91931e-15 0)
(3 1.23408e-15 0)
(3 -6.67821e-16 0)
(3 -2.01564e-15 0)
(3 -2.38515e-15 0)
(3 -1.86491e-15 0)
(3 -1.50148e-15 0)
(3 -1.06543e-15 0)
(3 -1.01373e-15 0)
(3 -9.20946e-16 0)
(3 -1.16683e-15 0)
(3 -1.11286e-15 0)
(3 -7.92017e-16 0)
(3 -6.71035e-16 0)
(3 -7.83174e-16 0)
(3 -7.46133e-16 0)
(3 -7.56407e-16 0)
(3 -5.47984e-16 0)
(3 6.88322e-17 0)
(3 9.69498e-16 0)
(3 1.39425e-15 0)
(3 1.88669e-15 0)
(3 1.13858e-15 0)
(3 2.64538e-16 0)
(3 -7.58858e-17 0)
(3 -5.09126e-16 0)
(3 3.43372e-16 0)
(3 5.35442e-16 0)
(3 6.65707e-16 0)
(3 7.43416e-16 0)
(3 6.20925e-16 0)
(3 -4.66847e-16 0)
(3 -2.57318e-15 0)
(3 -3.11672e-15 0)
(3 -3.21143e-15 0)
(3 -3.32336e-15 0)
(3 -4.15136e-15 0)
(3 -3.67583e-15 0)
(3 -2.71254e-15 0)
(3 -1.06338e-15 0)
(3 -1.02574e-15 0)
(3 -6.01197e-16 0)
(3 8.7883e-17 0)
(3 2.51122e-16 0)
(3 8.39436e-16 0)
(3 8.0625e-16 0)
(3 1.15864e-15 0)
(3 7.99218e-16 0)
(3 1.13513e-16 0)
(3 3.24093e-16 0)
(3 7.05328e-16 0)
(3 2.55397e-16 0)
(3 1.88262e-16 0)
(3 1.26028e-17 0)
(3 2.40031e-16 0)
(3 1.20288e-15 0)
(3 1.88793e-15 0)
(3 2.40353e-15 0)
(3 2.34617e-15 0)
(3 2.07863e-15 0)
(3 1.66459e-15 0)
(3 1.37736e-15 0)
(3 1.50219e-15 0)
(3 1.31243e-15 0)
(3 1.32119e-15 0)
(3 1.02472e-15 0)
(3 1.47063e-15 0)
(3 1.30922e-15 0)
(3 8.73728e-16 0)
(3 1.02317e-15 0)
(3 7.89728e-16 0)
(3 -9.51899e-17 0)
(3 -5.75131e-16 0)
(3 -2.63721e-15 0)
(3 -3.93691e-15 0)
(3 -4.04092e-15 0)
(3 -2.32134e-15 0)
(3 -1.98699e-15 0)
(3 -1.74486e-15 0)
(3 -5.35342e-16 0)
(3 1.00571e-15 0)
(3 1.5524e-15 0)
(3 2.58426e-15 0)
(3 4.17996e-15 0)
(3 5.64692e-15 0)
(3 2.59377e-15 0)
(3 1.5098e-16 0)
(3 4.67924e-16 0)
(3 4.20493e-16 0)
(3 6.9754e-16 0)
(3 3.75507e-16 0)
(3 -1.00861e-16 0)
(3 3.06589e-16 0)
(3 2.96483e-16 0)
(3 5.49647e-16 0)
(3 1.15586e-15 0)
(3 1.99363e-15 0)
(3 1.04938e-15 0)
(3 -4.69395e-16 0)
(3 -8.00328e-16 0)
(3 -7.17799e-16 0)
(3 -1.96179e-17 0)
(3 -4.87924e-16 0)
(3 -5.9187e-16 0)
(3 -5.52604e-16 0)
(3 -3.00671e-16 0)
(3 -2.74129e-16 0)
(3 -7.76018e-16 0)
(3 -1.19452e-15 0)
(3 -1.33693e-15 0)
(3 -1.60638e-15 0)
(3 -1.40962e-15 0)
(3 -1.0353e-15 0)
(3 -4.82819e-18 0)
(3 7.64821e-16 0)
(3 1.48163e-15 0)
(3 7.20459e-16 0)
(3 -1.03616e-16 0)
(3 -1.14765e-15 0)
(3 -1.91467e-15 0)
(3 -2.26595e-15 0)
(3 -2.38392e-15 0)
(3 -4.13584e-16 0)
(3 4.99422e-16 0)
(3 3.32256e-16 0)
(3 -1.49203e-16 0)
(3 -2.18335e-16 0)
(3 7.8919e-17 0)
(3 -4.21328e-16 0)
(3 -7.68476e-16 0)
(3 -2.8792e-16 0)
(3 -2.84822e-16 0)
(3 -1.32562e-16 0)
(3 5.59793e-16 0)
(3 1.16414e-15 0)
(3 5.71092e-16 0)
(3 2.6321e-16 0)
(3 -2.3215e-16 0)
(3 -3.82863e-17 0)
(3 2.60988e-17 0)
(3 -1.04774e-17 0)
(3 -1.42361e-16 0)
(3 -2.55727e-16 0)
(3 3.21252e-16 0)
(3 2.22696e-16 0)
(3 -2.62777e-16 0)
(3 -9.36191e-16 0)
(3 -9.10952e-16 0)
(3 -9.47041e-16 0)
(3 -8.50523e-16 0)
(3 -5.46153e-16 0)
(3 2.65733e-16 0)
(3 2.3614e-15 0)
(3 3.16796e-15 0)
(3 3.22844e-15 0)
(3 2.94532e-15 0)
(3 2.83719e-15 0)
(3 2.73868e-15 0)
(3 2.08361e-15 0)
(3 1.02722e-15 0)
(3 -6.46188e-16 0)
(3 -1.02775e-15 0)
(3 -1.62551e-16 0)
(3 5.51117e-16 0)
(3 1.07721e-15 0)
(3 1.14578e-15 0)
(3 1.09493e-15 0)
(3 1.66823e-15 0)
(3 9.22257e-16 0)
(3 -6.70508e-16 0)
(3 -2.97861e-15 0)
(3 -2.9667e-15 0)
(3 -1.28529e-15 0)
(3 -6.35314e-16 0)
(3 2.04893e-16 0)
(3 1.4782e-15 0)
(3 2.11791e-15 0)
(3 2.696e-15 0)
(3 3.14217e-15 0)
(3 3.64565e-15 0)
(3 3.53613e-15 0)
(3 2.3162e-15 0)
(3 -1.2246e-16 0)
(3 -3.52658e-16 0)
(3 -1.37739e-16 0)
(3 1.48395e-16 0)
(3 -1.09057e-16 0)
(3 -1.23999e-16 0)
(3 -8.96869e-17 0)
(3 -4.56705e-16 0)
(3 -7.62837e-16 0)
(3 -1.04294e-15 0)
(3 -6.53672e-16 0)
(3 -2.95363e-16 0)
(3 -3.32323e-16 0)
(3 -3.39291e-16 0)
(3 -2.68713e-16 0)
(3 1.8383e-16 0)
(3 -1.11297e-16 0)
(3 -4.00588e-16 0)
(3 -4.03643e-16 0)
(3 -2.84605e-16 0)
(3 -1.88878e-16 0)
(3 -4.66979e-16 0)
(3 -1.27758e-15 0)
(3 -1.18402e-15 0)
(3 -5.20905e-16 0)
(3 -6.20406e-16 0)
(3 -3.51064e-16 0)
(3 -2.55915e-16 0)
(3 -2.63579e-16 0)
(3 -3.50127e-16 0)
(3 -6.46243e-16 0)
(3 -1.04305e-15 0)
(3 -1.48326e-15 0)
(3 -1.09462e-15 0)
(3 -2.83666e-16 0)
(3 -2.41956e-16 0)
(3 -1.3846e-16 0)
(3 1.57822e-17 0)
(3 1.16652e-17 0)
(3 -1.22929e-16 0)
(3 -3.51878e-16 0)
(3 -5.08903e-16 0)
(3 -8.86432e-16 0)
(3 -1.01459e-15 0)
(3 2.08997e-16 0)
(3 1.39888e-15 0)
(3 2.77778e-15 0)
(3 2.80919e-15 0)
(3 2.30401e-15 0)
(3 1.86864e-15 0)
(3 1.57089e-15 0)
(3 1.12861e-15 0)
(3 9.85979e-16 0)
(3 9.42505e-16 0)
(3 1.02008e-15 0)
(3 7.25521e-16 0)
(3 2.97172e-16 0)
(3 3.48603e-16 0)
(3 5.24199e-16 0)
(3 2.57626e-19 0)
(3 -1.2058e-15 0)
(3 -9.87479e-16 0)
(3 -2.59087e-16 0)
(3 1.02259e-15 0)
(3 1.0574e-15 0)
(3 1.15081e-15 0)
(3 1.1711e-15 0)
(3 1.06034e-15 0)
(3 6.67446e-16 0)
(3 1.54859e-15 0)
(3 2.39153e-15 0)
(3 2.36773e-15 0)
(3 2.25827e-15 0)
(3 2.10703e-15 0)
(3 7.48446e-16 0)
(3 -9.24865e-16 0)
(3 -1.30153e-15 0)
(3 5.25795e-17 0)
(3 3.47266e-16 0)
(3 1.82605e-16 0)
(3 8.10772e-17 0)
(3 7.11477e-16 0)
(3 7.4806e-16 0)
(3 -1.95598e-16 0)
(3 -1.3586e-15 0)
(3 -2.07645e-15 0)
(3 -1.94112e-15 0)
(3 -1.95832e-15 0)
(3 -7.4947e-16 0)
(3 9.27636e-16 0)
(3 1.36661e-15 0)
(3 2.03514e-15 0)
(3 2.80111e-15 0)
(3 2.72005e-15 0)
(3 2.17029e-15 0)
(3 2.02258e-15 0)
(3 -6.09494e-17 0)
(3 -6.88086e-16 0)
(3 -6.63956e-16 0)
(3 -4.60629e-16 0)
(3 -3.59636e-16 0)
(3 -7.15704e-16 0)
(3 -6.59953e-16 0)
(3 -2.33528e-16 0)
(3 -4.56914e-16 0)
(3 -5.17105e-16 0)
(3 -2.43639e-16 0)
(3 3.02825e-16 0)
(3 5.59418e-16 0)
(3 4.62241e-16 0)
(3 5.35155e-16 0)
(3 4.00082e-16 0)
(3 5.04108e-16 0)
(3 -3.54704e-17 0)
(3 -5.97693e-16 0)
(3 -7.21997e-16 0)
(3 -4.81333e-16 0)
(3 7.63489e-17 0)
(3 -4.30085e-16 0)
(3 -7.65221e-16 0)
(3 7.80245e-16 0)
(3 7.89991e-16 0)
(3 1.9952e-16 0)
(3 3.75531e-16 0)
(3 -1.04996e-16 0)
(3 -5.56825e-16 0)
(3 -1.24378e-15 0)
(3 -1.33206e-15 0)
(3 -1.29593e-15 0)
(3 -1.06652e-15 0)
(3 -3.02052e-16 0)
(3 2.61232e-16 0)
(3 -1.11307e-15 0)
(3 -2.0084e-15 0)
(3 -2.06498e-15 0)
(3 -2.24825e-15 0)
(3 -1.82573e-15 0)
(3 -1.62274e-15 0)
(3 -1.41346e-15 0)
(3 -1.03405e-15 0)
(3 1.19543e-16 0)
(3 1.35778e-15 0)
(3 2.58151e-15 0)
(3 2.78667e-15 0)
(3 3.0137e-15 0)
(3 2.38956e-15 0)
(3 1.77417e-15 0)
(3 1.95673e-15 0)
(3 1.45863e-15 0)
(3 1.37224e-15 0)
(3 1.30027e-15 0)
(3 1.16243e-15 0)
(3 1.06603e-15 0)
(3 2.85498e-16 0)
(3 3.40276e-16 0)
(3 -1.56869e-17 0)
(3 -2.59322e-16 0)
(3 -1.86372e-15 0)
(3 -1.85439e-15 0)
(3 -6.46435e-16 0)
(3 1.63132e-15 0)
(3 2.23672e-15 0)
(3 2.12718e-15 0)
(3 1.08237e-15 0)
(3 1.04708e-15 0)
(3 1.34559e-15 0)
(3 1.09716e-15 0)
(3 1.03917e-15 0)
(3 1.2556e-15 0)
(3 1.61107e-15 0)
(3 5.73501e-16 0)
(3 -1.16234e-15 0)
(3 -5.15315e-16 0)
(3 1.5659e-16 0)
(3 1.93628e-17 0)
(3 -4.40316e-16 0)
(3 -3.58472e-16 0)
(3 -8.40088e-16 0)
(3 -1.07429e-15 0)
(3 -5.66565e-16 0)
(3 -6.34291e-16 0)
(3 -7.42937e-16 0)
(3 -6.68342e-16 0)
(3 -6.89187e-16 0)
(3 -1.09406e-15 0)
(3 -9.56201e-16 0)
(3 -1.73627e-16 0)
(3 4.92173e-16 0)
(3 1.10188e-15 0)
(3 1.5794e-15 0)
(3 1.55444e-15 0)
(3 1.74726e-15 0)
(3 -7.88662e-17 0)
(3 -5.3799e-17 0)
(3 5.7443e-17 0)
(3 -7.59441e-17 0)
(3 -4.84206e-17 0)
(3 2.03309e-16 0)
(3 3.76504e-17 0)
(3 2.64422e-17 0)
(3 5.97543e-16 0)
(3 7.66315e-16 0)
(3 1.11981e-15 0)
(3 1.28762e-15 0)
(3 1.51602e-15 0)
(3 1.2856e-15 0)
(3 6.27211e-16 0)
(3 1.02519e-16 0)
(3 -5.32624e-16 0)
(3 -7.07089e-16 0)
(3 -8.67053e-16 0)
(3 -1.41976e-15 0)
(3 -1.32443e-15 0)
(3 -1.25593e-15 0)
(3 -1.32097e-15 0)
(3 -1.01473e-15 0)
(3 -3.4041e-16 0)
(3 4.08286e-16 0)
(3 3.8805e-16 0)
(3 6.86846e-16 0)
(3 9.96113e-16 0)
(3 1.15792e-16 0)
(3 -6.58422e-16 0)
(3 -9.08139e-16 0)
(3 -7.85312e-16 0)
(3 -7.86529e-16 0)
(3 -3.06787e-16 0)
(3 1.52947e-16 0)
(3 -1.56512e-15 0)
(3 -2.45513e-15 0)
(3 -2.70531e-15 0)
(3 -2.19889e-15 0)
(3 -1.82147e-15 0)
(3 -1.30522e-15 0)
(3 -9.3324e-16 0)
(3 -5.1197e-16 0)
(3 4.68993e-16 0)
(3 1.4111e-15 0)
(3 1.9581e-15 0)
(3 2.1258e-15 0)
(3 1.16911e-15 0)
(3 5.45101e-16 0)
(3 1.13747e-15 0)
(3 1.67931e-15 0)
(3 1.64379e-15 0)
(3 2.09139e-15 0)
(3 1.52907e-15 0)
(3 1.26763e-15 0)
(3 1.16019e-15 0)
(3 1.10937e-15 0)
(3 4.71181e-16 0)
(3 -4.37184e-16 0)
(3 -1.15997e-15 0)
(3 -1.67955e-15 0)
(3 -1.9759e-15 0)
(3 -1.4279e-15 0)
(3 2.03167e-17 0)
(3 2.67017e-16 0)
(3 1.14973e-17 0)
(3 -8.84517e-17 0)
(3 4.36984e-16 0)
(3 6.29392e-17 0)
(3 -1.83453e-16 0)
(3 1.3856e-16 0)
(3 4.59541e-16 0)
(3 6.30297e-16 0)
(3 -3.79423e-16 0)
(3 -1.41879e-15 0)
(3 -9.04053e-16 0)
(3 4.41011e-16 0)
(3 1.24906e-15 0)
(3 8.56855e-16 0)
(3 4.61423e-16 0)
(3 -8.36939e-16 0)
(3 -4.58897e-16 0)
(3 7.50906e-17 0)
(3 -6.50629e-17 0)
(3 4.04099e-16 0)
(3 8.90211e-16 0)
(3 8.12334e-16 0)
(3 8.73189e-16 0)
(3 1.08605e-15 0)
(3 1.81252e-15 0)
(3 1.89254e-15 0)
(3 1.9732e-15 0)
(3 1.49684e-15 0)
(3 1.25222e-15 0)
(3 1.02579e-15 0)
(3 -1.47235e-17 0)
(3 4.0487e-16 0)
(3 2.89096e-16 0)
(3 -1.50251e-16 0)
(3 -6.5624e-16 0)
(3 -3.90105e-16 0)
(3 -4.52495e-16 0)
(3 -6.1077e-16 0)
(3 -4.23818e-16 0)
(3 -3.52421e-16 0)
(3 2.61475e-18 0)
(3 2.60935e-16 0)
(3 5.89898e-16 0)
(3 4.11811e-16 0)
(3 -1.98867e-16 0)
(3 -1.28493e-15 0)
(3 -1.54048e-15 0)
(3 -1.32435e-15 0)
(3 -8.39867e-16 0)
(3 -7.04503e-16 0)
(3 -1.00825e-15 0)
(3 -1.99388e-15 0)
(3 -2.55075e-15 0)
(3 -2.35971e-15 0)
(3 -1.82697e-15 0)
(3 -1.25787e-15 0)
(3 6.28497e-17 0)
(3 -7.90812e-17 0)
(3 -1.3823e-16 0)
(3 -2.42803e-16 0)
(3 -5.22194e-16 0)
(3 -6.53132e-16 0)
(3 -5.30313e-16 0)
(3 -1.02405e-15 0)
(3 -2.42014e-15 0)
(3 -2.49021e-15 0)
(3 -3.9636e-16 0)
(3 -1.14801e-16 0)
(3 7.22074e-17 0)
(3 8.4733e-17 0)
(3 -3.01375e-16 0)
(3 -2.82656e-16 0)
(3 1.83225e-16 0)
(3 6.65404e-16 0)
(3 -7.38676e-17 0)
(3 -1.94682e-16 0)
(3 -2.86369e-16 0)
(3 -1.02911e-15 0)
(3 -1.09421e-15 0)
(3 -7.53115e-16 0)
(3 1.20403e-15 0)
(3 2.05187e-15 0)
(3 1.76454e-15 0)
(3 1.22609e-15 0)
(3 5.48196e-16 0)
(3 3.11869e-16 0)
(3 -4.14892e-16 0)
(3 4.47162e-16 0)
(3 3.73829e-16 0)
(3 3.82682e-16 0)
(3 9.76137e-17 0)
(3 4.34073e-16 0)
(3 8.43288e-16 0)
(3 -1.84528e-16 0)
(3 -3.57795e-16 0)
(3 -3.77713e-16 0)
(3 -7.42025e-16 0)
(3 -7.27221e-16 0)
(3 -1.29125e-15 0)
(3 -1.50315e-15 0)
(3 -1.28265e-15 0)
(3 -9.77656e-16 0)
(3 -1.08317e-15 0)
(3 -1.3275e-15 0)
(3 -5.20294e-16 0)
(3 5.12154e-19 0)
(3 -2.54064e-16 0)
(3 -2.56762e-16 0)
(3 6.78485e-16 0)
(3 1.0866e-15 0)
(3 3.50473e-16 0)
(3 -6.90857e-18 0)
(3 4.97389e-16 0)
(3 4.24365e-16 0)
(3 9.82794e-16 0)
(3 1.24643e-15 0)
(3 6.74072e-16 0)
(3 3.54056e-16 0)
(3 3.35069e-16 0)
(3 6.60069e-16 0)
(3 9.8775e-16 0)
(3 1.70322e-15 0)
(3 1.59893e-15 0)
(3 8.32607e-16 0)
(3 8.50262e-16 0)
(3 4.60096e-16 0)
(3 1.6043e-16 0)
(3 -1.61362e-16 0)
(3 -1.77561e-16 0)
(3 -4.26106e-16 0)
(3 -8.15075e-16 0)
(3 -6.97563e-16 0)
(3 -5.72776e-16 0)
(3 -2.94038e-16 0)
(3 -1.87131e-16 0)
(3 -2.19442e-16 0)
(3 -2.65596e-16 0)
(3 -1.55433e-16 0)
(3 -1.76286e-16 0)
(3 -3.74401e-16 0)
(3 -5.63803e-16 0)
(3 -1.14567e-15 0)
(3 -1.46722e-15 0)
(3 -1.47068e-15 0)
(3 -1.54528e-15 0)
(3 -8.6553e-16 0)
(3 -2.22002e-16 0)
(3 -4.85902e-16 0)
(3 -7.43734e-16 0)
(3 -8.93548e-16 0)
(3 -2.38742e-15 0)
(3 -2.44557e-15 0)
(3 1.36248e-19 0)
(3 2.1424e-15 0)
(3 1.42706e-15 0)
(3 9.65842e-16 0)
(3 3.24475e-16 0)
(3 1.75477e-17 0)
(3 2.86452e-17 0)
(3 -4.56672e-17 0)
(3 -9.74818e-16 0)
(3 -1.21906e-15 0)
(3 -5.36409e-16 0)
(3 3.56301e-16 0)
(3 5.25955e-16 0)
(3 4.6156e-16 0)
(3 -2.30697e-16 0)
(3 -7.27254e-16 0)
(3 -6.4419e-16 0)
(3 -5.55092e-16 0)
(3 -1.08857e-15 0)
(3 -1.76045e-15 0)
(3 -1.83372e-15 0)
(3 -1.40421e-15 0)
(3 -8.47418e-16 0)
(3 1.9623e-16 0)
(3 6.78888e-16 0)
(3 5.95285e-16 0)
(3 3.64789e-16 0)
(3 -6.23593e-17 0)
(3 -2.32445e-16 0)
(3 -1.27161e-15 0)
(3 -1.08475e-15 0)
(3 -1.81028e-16 0)
(3 -2.62908e-16 0)
(3 5.51442e-16 0)
(3 8.02687e-16 0)
(3 7.5927e-16 0)
(3 1.25378e-15 0)
(3 1.19587e-15 0)
(3 7.46912e-16 0)
(3 6.33787e-16 0)
(3 4.75992e-16 0)
(3 2.7936e-17 0)
(3 -4.65548e-16 0)
(3 -6.96063e-16 0)
(3 -6.37008e-16 0)
(3 -1.25038e-15 0)
(3 -1.69893e-15 0)
(3 -1.51213e-15 0)
(3 -2.91595e-17 0)
(3 7.68155e-16 0)
(3 1.67802e-15 0)
(3 1.18613e-15 0)
(3 1.75079e-16 0)
(3 -6.10394e-16 0)
(3 -9.98687e-16 0)
(3 -3.54423e-16 0)
(3 7.66459e-16 0)
(3 1.06039e-15 0)
(3 1.21267e-15 0)
(3 4.2011e-16 0)
(3 -4.18475e-16 0)
(3 -9.05006e-16 0)
(3 -1.17127e-15 0)
(3 -1.17684e-15 0)
(3 -1.10161e-15 0)
(3 -4.26935e-16 0)
(3 -4.18838e-16 0)
(3 -5.8486e-16 0)
(3 -1.28925e-15 0)
(3 -2.23228e-15 0)
(3 -2.4343e-16 0)
(3 -2.19419e-16 0)
(3 2.3036e-16 0)
(3 1.19887e-16 0)
(3 -2.59088e-16 0)
(3 -4.99704e-17 0)
(3 -1.56234e-16 0)
(3 -7.18316e-18 0)
(3 1.59448e-16 0)
(3 3.56609e-16 0)
(3 2.34511e-16 0)
(3 1.13118e-16 0)
(3 -2.01654e-16 0)
(3 3.88684e-16 0)
(3 9.18349e-16 0)
(3 7.58531e-16 0)
(3 -3.93325e-16 0)
(3 -1.41469e-15 0)
(3 -1.75932e-15 0)
(3 -1.17331e-15 0)
(3 -7.18288e-16 0)
(3 3.35206e-16 0)
(3 4.8803e-16 0)
(3 8.61281e-16 0)
(3 3.92647e-16 0)
(3 -1.92676e-16 0)
(3 -4.46817e-16 0)
(3 -4.05339e-16 0)
(3 -6.98968e-16 0)
(3 1.99516e-16 0)
(3 1.4367e-15 0)
(3 1.36334e-15 0)
(3 5.43134e-16 0)
(3 6.13142e-17 0)
(3 1.10327e-15 0)
(3 8.12505e-16 0)
(3 1.13267e-15 0)
(3 1.83043e-15 0)
(3 2.01392e-15 0)
(3 1.9643e-15 0)
(3 1.11847e-15 0)
(3 6.32174e-16 0)
(3 -2.08559e-16 0)
(3 -1.33268e-15 0)
(3 -1.54828e-15 0)
(3 -1.67101e-15 0)
(3 -1.41482e-15 0)
(3 -7.18111e-16 0)
(3 -2.95538e-16 0)
(3 4.48756e-16 0)
(3 3.30447e-16 0)
(3 -2.09484e-16 0)
(3 3.64819e-16 0)
(3 1.39932e-15 0)
(3 9.04998e-16 0)
(3 -8.6862e-16 0)
(3 -7.18271e-16 0)
(3 -1.02175e-15 0)
(3 -5.04438e-16 0)
(3 -5.76982e-16 0)
(3 -1.81791e-16 0)
(3 -1.04421e-16 0)
(3 4.20885e-16 0)
(3 1.15746e-15 0)
(3 1.12679e-15 0)
(3 8.7868e-16 0)
(3 1.25716e-15 0)
(3 2.02053e-15 0)
(3 1.96769e-15 0)
(3 1.48212e-15 0)
(3 5.26853e-16 0)
(3 2.23913e-16 0)
(3 3.10179e-16 0)
(3 7.92304e-16 0)
(3 1.14853e-15 0)
(3 2.10525e-15 0)
(3 2.54445e-15 0)
(3 1.82035e-15 0)
(3 2.65639e-16 0)
(3 -7.45625e-16 0)
(3 -9.64616e-16 0)
(3 -4.27404e-16 0)
(3 -1.45352e-16 0)
(3 4.28319e-16 0)
(3 6.06046e-16 0)
(3 -2.05218e-16 0)
(3 -6.65201e-16 0)
(3 -1.44145e-15 0)
(3 -2.45286e-15 0)
(3 -2.44693e-15 0)
(3 -5.71724e-16 0)
(3 -6.19731e-16 0)
(3 -1.03135e-15 0)
(3 -9.2114e-16 0)
(3 -1.04159e-15 0)
(3 -1.30573e-15 0)
(3 -1.41897e-16 0)
(3 3.20411e-16 0)
(3 3.25317e-17 0)
(3 -1.43306e-17 0)
(3 6.20928e-17 0)
(3 -1.20922e-17 0)
(3 6.56877e-16 0)
(3 6.37002e-16 0)
(3 2.19294e-16 0)
(3 7.4781e-16 0)
(3 2.80823e-16 0)
(3 -1.65014e-16 0)
(3 -2.68656e-16 0)
(3 2.47707e-16 0)
(3 5.83628e-16 0)
(3 1.2131e-15 0)
(3 1.47121e-15 0)
(3 1.4003e-15 0)
(3 1.42502e-15 0)
(3 -5.79006e-16 0)
(3 -1.69491e-15 0)
(3 -1.1025e-15 0)
(3 1.48788e-15 0)
(3 2.02158e-15 0)
(3 1.84814e-15 0)
(3 8.10922e-16 0)
(3 -1.25332e-15 0)
(3 -3.18444e-15 0)
(3 -3.27842e-15 0)
(3 -1.59776e-15 0)
(3 -9.79727e-16 0)
(3 -8.23609e-16 0)
(3 -7.62681e-16 0)
(3 -5.95264e-16 0)
(3 -3.42834e-16 0)
(3 6.57855e-16 0)
(3 1.32688e-15 0)
(3 1.87673e-15 0)
(3 3.34693e-15 0)
(3 3.01395e-15 0)
(3 2.42528e-15 0)
(3 2.54294e-15 0)
(3 1.34267e-15 0)
(3 -5.53108e-16 0)
(3 -1.01059e-15 0)
(3 -1.25676e-15 0)
(3 -1.6771e-15 0)
(3 -1.85946e-15 0)
(3 -1.28821e-15 0)
(3 -1.82779e-15 0)
(3 -1.88905e-15 0)
(3 -1.50147e-15 0)
(3 -7.05373e-16 0)
(3 -1.42551e-16 0)
(3 -1.96354e-16 0)
(3 -6.07558e-16 0)
(3 3.24856e-17 0)
(3 4.72212e-17 0)
(3 4.32812e-16 0)
(3 -1.7892e-16 0)
(3 -3.46911e-17 0)
(3 8.95798e-16 0)
(3 6.79126e-16 0)
(3 7.81307e-16 0)
(3 1.42999e-15 0)
(3 1.45982e-15 0)
(3 1.74369e-15 0)
(3 2.04282e-15 0)
(3 1.89235e-15 0)
(3 1.63316e-15 0)
(3 1.51583e-15 0)
(3 2.00222e-15 0)
(3 2.93035e-15 0)
(3 3.44685e-15 0)
(3 2.90571e-15 0)
(3 1.2585e-15 0)
(3 6.85505e-16 0)
(3 -1.68345e-16 0)
(3 1.99824e-16 0)
(3 6.39063e-16 0)
(3 9.79587e-16 0)
(3 7.3309e-16 0)
(3 -2.7723e-16 0)
(3 -1.07187e-15 0)
(3 -1.75939e-15 0)
(3 -2.03178e-15 0)
(3 -1.92023e-15 0)
(3 -1.4773e-15 0)
(3 -1.54109e-15 0)
(3 -9.63339e-16 0)
(3 -3.88081e-16 0)
(3 -7.11633e-16 0)
(3 -1.77791e-15 0)
(3 -1.30828e-15 0)
(3 -2.27663e-16 0)
(3 -1.24718e-16 0)
(3 -3.72315e-18 0)
(3 -2.49618e-16 0)
(3 -7.52728e-16 0)
(3 -3.9413e-16 0)
(3 -7.0668e-17 0)
(3 2.2146e-17 0)
(3 1.15234e-15 0)
(3 1.25553e-15 0)
(3 1.5522e-15 0)
(3 1.72225e-15 0)
(3 1.38833e-15 0)
(3 1.01318e-15 0)
(3 9.06651e-16 0)
(3 4.23118e-16 0)
(3 -1.72461e-16 0)
(3 1.01015e-15 0)
(3 2.69242e-15 0)
(3 4.06161e-15 0)
(3 3.68793e-15 0)
(3 1.21845e-15 0)
(3 -2.57124e-16 0)
(3 -4.94746e-16 0)
(3 -4.11646e-16 0)
(3 6.77282e-16 0)
(3 8.1943e-16 0)
(3 3.84691e-16 0)
(3 -1.10178e-15 0)
(3 -1.94396e-15 0)
(3 -1.85144e-15 0)
(3 -1.99834e-15 0)
(3 -1.70828e-15 0)
(3 -1.74735e-15 0)
(3 -2.08083e-15 0)
(3 -1.79505e-15 0)
(3 -1.34741e-15 0)
(3 1.28405e-16 0)
(3 1.60474e-15 0)
(3 2.14078e-15 0)
(3 1.47579e-15 0)
(3 2.22401e-15 0)
(3 2.49727e-15 0)
(3 2.24208e-15 0)
(3 1.80641e-15 0)
(3 -1.03139e-16 0)
(3 -1.66021e-15 0)
(3 -1.66871e-15 0)
(3 -1.98813e-15 0)
(3 -2.10155e-15 0)
(3 -1.58809e-15 0)
(3 -2.33655e-15 0)
(3 -2.53606e-15 0)
(3 -2.08833e-15 0)
(3 -1.8067e-15 0)
(3 -1.84249e-15 0)
(3 -1.0079e-15 0)
(3 -4.72749e-16 0)
(3 6.33907e-17 0)
(3 2.23271e-16 0)
(3 -1.04359e-16 0)
(3 -4.11561e-17 0)
(3 3.76541e-17 0)
(3 -2.29845e-16 0)
(3 -9.31083e-16 0)
(3 -6.01843e-16 0)
(3 -2.28507e-16 0)
(3 -3.52672e-16 0)
(3 -7.75957e-17 0)
(3 -2.04136e-16 0)
(3 -3.53294e-16 0)
(3 8.34232e-16 0)
(3 2.84055e-15 0)
(3 3.08968e-15 0)
(3 3.47755e-15 0)
(3 3.40106e-15 0)
(3 2.58379e-15 0)
(3 1.20679e-15 0)
(3 7.71739e-17 0)
(3 3.20474e-16 0)
(3 4.00293e-16 0)
(3 9.28212e-16 0)
(3 7.0746e-16 0)
(3 3.71792e-16 0)
(3 -3.58337e-16 0)
(3 -2.80961e-15 0)
(3 -3.91722e-15 0)
(3 -3.55717e-15 0)
(3 -2.75733e-15 0)
(3 -1.42729e-15 0)
(3 3.91645e-16 0)
(3 7.37949e-17 0)
(3 -1.60783e-15 0)
(3 -2.60063e-15 0)
(3 -2.77421e-15 0)
(3 -1.84627e-15 0)
(3 -9.53973e-16 0)
(3 -6.18054e-16 0)
(3 8.02474e-17 0)
(3 -8.14589e-17 0)
(3 1.42989e-16 0)
(3 1.88165e-16 0)
(3 1.43482e-16 0)
(3 2.31353e-17 0)
(3 1.2375e-16 0)
(3 5.88112e-16 0)
(3 1.24798e-15 0)
(3 1.27919e-15 0)
(3 1.66447e-15 0)
(3 1.86475e-15 0)
(3 9.85628e-16 0)
(3 5.27767e-16 0)
(3 6.05141e-16 0)
(3 1.75802e-15 0)
(3 2.24793e-15 0)
(3 1.55866e-15 0)
(3 2.11461e-15 0)
(3 2.15839e-15 0)
(3 1.54732e-15 0)
(3 7.8286e-16 0)
(3 4.23451e-16 0)
(3 -2.52784e-16 0)
(3 -1.21359e-16 0)
(3 3.89161e-17 0)
(3 -2.02279e-16 0)
(3 -1.99478e-17 0)
(3 -2.40714e-16 0)
(3 -4.90275e-16 0)
(3 -3.22682e-16 0)
(3 -6.84208e-16 0)
(3 -1.43497e-15 0)
(3 -2.43941e-15 0)
(3 -1.58839e-15 0)
(3 -2.13404e-16 0)
(3 3.14759e-16 0)
(3 4.22732e-16 0)
(3 -6.44747e-16 0)
(3 -4.94566e-16 0)
(3 8.50075e-16 0)
(3 9.83182e-16 0)
(3 7.31352e-16 0)
(3 5.2357e-16 0)
(3 -2.76579e-16 0)
(3 -7.73002e-16 0)
(3 -9.09836e-16 0)
(3 -8.18469e-16 0)
(3 -1.39483e-15 0)
(3 -2.24987e-15 0)
(3 -1.95073e-15 0)
(3 -1.3416e-15 0)
(3 -4.82237e-16 0)
(3 -6.66483e-16 0)
(3 -9.49733e-16 0)
(3 -1.57339e-16 0)
(3 -5.77709e-16 0)
(3 -1.55777e-15 0)
(3 -3.18235e-15 0)
(3 -3.18156e-15 0)
(3 -2.76731e-15 0)
(3 -2.51135e-15 0)
(3 -2.06074e-15 0)
(3 -2.136e-15 0)
(3 -2.13584e-15 0)
(3 -1.75058e-15 0)
(3 -1.85257e-15 0)
(3 -1.77276e-15 0)
(3 -9.25555e-16 0)
(3 7.86296e-16 0)
(3 1.39568e-15 0)
(3 2.0799e-15 0)
(3 2.01641e-15 0)
(3 1.8739e-15 0)
(3 1.55567e-15 0)
(3 1.04851e-15 0)
(3 1.37031e-15 0)
(3 1.84248e-15 0)
(3 1.53766e-15 0)
(3 1.2521e-15 0)
(3 7.52337e-16 0)
(3 2.6596e-16 0)
(3 -6.51804e-16 0)
(3 -1.43717e-15 0)
(3 -2.62763e-15 0)
(3 -3.25697e-15 0)
(3 -3.20421e-15 0)
(3 -2.72786e-15 0)
(3 -2.35353e-15 0)
(3 -1.82341e-15 0)
(3 -2.62265e-15 0)
(3 -3.45775e-15 0)
(3 -3.32999e-15 0)
(3 -5.97168e-16 0)
(3 3.22977e-17 0)
(3 -1.76999e-16 0)
(3 1.88364e-16 0)
(3 5.8914e-16 0)
(3 7.56147e-16 0)
(3 5.37674e-16 0)
(3 3.11493e-16 0)
(3 3.66078e-16 0)
(3 1.06941e-16 0)
(3 2.87796e-16 0)
(3 5.9828e-16 0)
(3 6.70671e-16 0)
(3 1.20042e-15 0)
(3 1.35342e-15 0)
(3 1.20955e-15 0)
(3 7.99121e-16 0)
(3 9.52736e-16 0)
(3 1.64812e-15 0)
(3 1.22188e-15 0)
(3 1.10959e-16 0)
(3 1.59493e-16 0)
(3 4.89886e-16 0)
(3 5.33132e-17 0)
(3 -7.78376e-16 0)
(3 -1.28888e-15 0)
(3 -1.68467e-15 0)
(3 -1.56749e-15 0)
(3 -1.08717e-15 0)
(3 1.4002e-16 0)
(3 8.58333e-16 0)
(3 5.74993e-16 0)
(3 4.93609e-16 0)
(3 -1.39541e-16 0)
(3 -2.08781e-16 0)
(3 1.65314e-16 0)
(3 -3.17346e-16 0)
(3 -8.01468e-16 0)
(3 -9.01855e-16 0)
(3 -1.17767e-15 0)
(3 -1.96712e-15 0)
(3 -2.45551e-15 0)
(3 -2.54685e-15 0)
(3 -1.98209e-15 0)
(3 -1.97946e-15 0)
(3 -1.79892e-15 0)
(3 -4.8166e-16 0)
(3 -9.41337e-17 0)
(3 2.82912e-16 0)
(3 1.92086e-16 0)
(3 2.03464e-16 0)
(3 -1.32188e-15 0)
(3 -2.49945e-15 0)
(3 -2.30837e-15 0)
(3 -1.6484e-15 0)
(3 -9.10006e-16 0)
(3 -5.16561e-16 0)
(3 -7.76637e-16 0)
(3 -1.19505e-15 0)
(3 -2.17067e-15 0)
(3 -3.00346e-15 0)
(3 -3.64429e-15 0)
(3 -3.69112e-15 0)
(3 -3.24092e-15 0)
(3 -2.75829e-15 0)
(3 -2.25723e-15 0)
(3 -2.19531e-15 0)
(3 -2.38995e-15 0)
(3 -1.95654e-15 0)
(3 -2.08587e-15 0)
(3 -2.03438e-15 0)
(3 -1.1724e-15 0)
(3 -5.50617e-16 0)
(3 3.24888e-17 0)
(3 1.18048e-15 0)
(3 1.5042e-15 0)
(3 1.48327e-15 0)
(3 1.24508e-15 0)
(3 7.46489e-16 0)
(3 1.15857e-15 0)
(3 7.66338e-16 0)
(3 8.3309e-17 0)
(3 -1.06718e-16 0)
(3 -5.77744e-16 0)
(3 -1.01177e-15 0)
(3 -1.7617e-15 0)
(3 -2.69049e-15 0)
(3 -3.94107e-15 0)
(3 -4.20652e-15 0)
(3 -4.24521e-15 0)
(3 -4.46104e-15 0)
(3 -4.54758e-15 0)
(3 -4.67457e-15 0)
(3 -4.75897e-15 0)
(3 -2.97075e-15 0)
(3 -1.84543e-15 0)
(3 -1.21877e-16 0)
(3 3.29995e-16 0)
(3 3.79621e-16 0)
(3 1.13631e-16 0)
(3 -2.37611e-16 0)
(3 -2.39397e-16 0)
(3 -1.14952e-17 0)
(3 4.25105e-16 0)
(3 7.75027e-16 0)
(3 5.94765e-16 0)
(3 4.67978e-16 0)
(3 3.07597e-16 0)
(3 1.88038e-16 0)
(3 5.04088e-16 0)
(3 4.48662e-16 0)
(3 7.58859e-16 0)
(3 4.90936e-16 0)
(3 -2.74137e-16 0)
(3 -6.49207e-16 0)
(3 3.06954e-16 0)
(3 1.24272e-15 0)
(3 7.18573e-16 0)
(3 6.14103e-16 0)
(3 4.10334e-16 0)
(3 -7.67383e-16 0)
(3 -1.24829e-15 0)
(3 -1.6334e-15 0)
(3 -2.53166e-15 0)
(3 -2.4612e-15 0)
(3 -3.2822e-16 0)
(3 1.47316e-15 0)
(3 1.70482e-15 0)
(3 1.41583e-15 0)
(3 1.10219e-15 0)
(3 1.42135e-15 0)
(3 2.17854e-15 0)
(3 2.61633e-15 0)
(3 5.89593e-16 0)
(3 -8.05998e-16 0)
(3 -6.46826e-16 0)
(3 -2.5844e-15 0)
(3 -4.04916e-15 0)
(3 -4.42591e-15 0)
(3 -3.3295e-15 0)
(3 -2.54578e-15 0)
(3 -1.89966e-15 0)
(3 -6.57857e-16 0)
(3 -1.78837e-16 0)
(3 6.23284e-17 0)
(3 -8.37867e-17 0)
(3 -6.98029e-18 0)
(3 -5.64572e-17 0)
(3 -6.36929e-17 0)
(3 -7.98946e-17 0)
(3 -6.74749e-16 0)
(3 -1.42832e-15 0)
(3 -1.82986e-15 0)
(3 -9.97928e-16 0)
(3 -1.89031e-15 0)
(3 -2.38682e-15 0)
(3 -2.43976e-15 0)
(3 -2.12696e-15 0)
(3 -1.82358e-15 0)
(3 -1.58377e-15 0)
(3 -1.66113e-15 0)
(3 -1.68319e-15 0)
(3 -1.5687e-15 0)
(3 -2.45234e-15 0)
(3 -2.95838e-15 0)
(3 -2.74811e-15 0)
(3 -1.64987e-15 0)
(3 -1.91406e-15 0)
(3 -2.41109e-15 0)
(3 -1.63585e-15 0)
(3 -6.93677e-16 0)
(3 4.22958e-16 0)
(3 1.47439e-15 0)
(3 1.76489e-15 0)
(3 1.43503e-15 0)
(3 4.09779e-16 0)
(3 -4.25717e-16 0)
(3 -5.84146e-16 0)
(3 -4.54082e-16 0)
(3 -8.74131e-16 0)
(3 -7.14723e-16 0)
(3 -2.0187e-15 0)
(3 -3.27204e-15 0)
(3 -2.93566e-15 0)
(3 -2.66414e-15 0)
(3 -3.27488e-15 0)
(3 -3.68426e-15 0)
(3 -4.08065e-15 0)
(3 -4.55954e-15 0)
(3 -4.20451e-15 0)
(3 -2.7873e-15 0)
(3 -1.58211e-15 0)
(3 -1.13457e-15 0)
(3 -8.67936e-16 0)
(3 -6.17832e-16 0)
(3 -8.17739e-17 0)
(3 -4.35675e-16 0)
(3 -4.45415e-16 0)
(3 -3.38002e-16 0)
(3 8.27783e-17 0)
(3 -1.70504e-16 0)
(3 -9.02728e-17 0)
(3 -5.06885e-16 0)
(3 -5.79962e-16 0)
(3 -3.73222e-16 0)
(3 2.04831e-17 0)
(3 -2.07084e-16 0)
(3 -1.24421e-16 0)
(3 -3.16716e-16 0)
(3 -1.14871e-15 0)
(3 -2.09198e-15 0)
(3 -1.58438e-15 0)
(3 7.11354e-17 0)
(3 6.04086e-16 0)
(3 5.14955e-16 0)
(3 3.18182e-16 0)
(3 -6.8776e-16 0)
(3 -1.68088e-15 0)
(3 -1.221e-15 0)
(3 -1.77702e-15 0)
(3 -9.22629e-16 0)
(3 5.38568e-17 0)
(3 6.59067e-16 0)
(3 9.92221e-16 0)
(3 1.58536e-15 0)
(3 1.22666e-15 0)
(3 1.10698e-15 0)
(3 1.98622e-15 0)
(3 2.81094e-15 0)
(3 2.10962e-15 0)
(3 4.07702e-16 0)
(3 -5.26279e-16 0)
(3 -2.44085e-15 0)
(3 -3.41412e-15 0)
(3 -4.1502e-15 0)
(3 -2.1216e-15 0)
(3 -9.97578e-16 0)
(3 -4.94272e-16 0)
(3 -7.11486e-16 0)
(3 -1.08876e-15 0)
(3 -1.53643e-15 0)
(3 -1.51898e-15 0)
(3 -9.2762e-16 0)
(3 -1.47122e-16 0)
(3 9.62337e-17 0)
(3 2.76904e-16 0)
(3 -2.08914e-16 0)
(3 -1.94983e-15 0)
(3 -3.07485e-15 0)
(3 -3.02201e-15 0)
(3 -2.72744e-15 0)
(3 -2.31603e-15 0)
(3 -1.37734e-15 0)
(3 -1.09635e-15 0)
(3 -9.25886e-16 0)
(3 -9.17265e-16 0)
(3 -1.62882e-15 0)
(3 -1.77007e-15 0)
(3 -2.00538e-15 0)
(3 -2.68949e-15 0)
(3 -3.9949e-15 0)
(3 -4.0512e-15 0)
(3 -3.48908e-15 0)
(3 -2.95351e-15 0)
(3 -2.86925e-15 0)
(3 -2.31775e-15 0)
(3 -8.37353e-16 0)
(3 1.32256e-16 0)
(3 3.05305e-16 0)
(3 5.64715e-16 0)
(3 4.37821e-16 0)
(3 -8.29077e-16 0)
(3 -4.1559e-16 0)
(3 -4.60908e-17 0)
(3 -4.03674e-16 0)
(3 -1.53166e-15 0)
(3 -2.49578e-15 0)
(3 -2.74282e-15 0)
(3 -2.07101e-15 0)
(3 -4.79489e-16 0)
(3 -1.55607e-15 0)
(3 -3.30485e-15 0)
(3 -3.12916e-15 0)
(3 -3.38316e-15 0)
(3 -4.34553e-15 0)
(3 -3.50259e-15 0)
(3 -2.61765e-15 0)
(3 -2.19049e-15 0)
(3 -2.1761e-15 0)
(3 -2.40915e-15 0)
(3 -2.53476e-15 0)
(3 7.39846e-18 0)
(3 5.11801e-17 0)
(3 7.05704e-17 0)
(3 1.41757e-16 0)
(3 -3.73584e-17 0)
(3 -2.29635e-16 0)
(3 -4.28548e-16 0)
(3 -5.53394e-16 0)
(3 4.74786e-17 0)
(3 2.06346e-16 0)
(3 3.39615e-16 0)
(3 4.69348e-16 0)
(3 5.10296e-17 0)
(3 2.07398e-16 0)
(3 -3.98824e-16 0)
(3 -9.07236e-16 0)
(3 -1.69309e-15 0)
(3 -2.01221e-15 0)
(3 -1.03332e-15 0)
(3 -3.03439e-17 0)
(3 -5.6332e-16 0)
(3 -1.69883e-15 0)
(3 -2.48315e-15 0)
(3 3.82496e-16 0)
(3 1.80382e-15 0)
(3 1.91691e-15 0)
(3 1.74655e-15 0)
(3 7.24235e-16 0)
(3 -7.16667e-16 0)
(3 1.06238e-16 0)
(3 8.20952e-17 0)
(3 -6.75406e-16 0)
(3 1.72196e-16 0)
(3 1.36557e-15 0)
(3 1.44406e-15 0)
(3 1.8494e-16 0)
(3 -2.03455e-15 0)
(3 -2.82331e-15 0)
(3 -1.85248e-15 0)
(3 -2.12838e-16 0)
(3 -3.65407e-16 0)
(3 -6.8819e-16 0)
(3 -6.26991e-16 0)
(3 -4.9151e-16 0)
(3 -4.92401e-16 0)
(3 -1.09883e-15 0)
(3 -1.65671e-15 0)
(3 -2.23152e-15 0)
(3 -2.54085e-15 0)
(3 -2.05963e-15 0)
(3 -1.13039e-15 0)
(3 -1.37705e-15 0)
(3 -2.97652e-15 0)
(3 -4.15308e-15 0)
(3 -4.83771e-15 0)
(3 -4.60619e-15 0)
(3 -3.49568e-15 0)
(3 -2.432e-15 0)
(3 -6.15587e-16 0)
(3 1.18978e-17 0)
(3 1.95585e-16 0)
(3 -2.24013e-16 0)
(3 -1.66189e-15 0)
(3 -2.32794e-15 0)
(3 -2.85187e-15 0)
(3 -3.6367e-15 0)
(3 -3.92902e-15 0)
(3 -3.23036e-15 0)
(3 -2.20903e-15 0)
(3 -7.54635e-16 0)
(3 -1.61795e-16 0)
(3 4.26704e-16 0)
(3 1.23428e-15 0)
(3 9.67286e-16 0)
(3 3.12914e-16 0)
(3 2.35578e-17 0)
(3 3.22842e-16 0)
(3 3.41331e-16 0)
(3 5.9413e-16 0)
(3 -1.41687e-16 0)
(3 -6.37383e-16 0)
(3 -1.5823e-15 0)
(3 -1.63888e-15 0)
(3 -8.24961e-16 0)
(3 3.07029e-16 0)
(3 -6.18516e-16 0)
(3 -1.62004e-15 0)
(3 -1.59045e-15 0)
(3 -1.51062e-15 0)
(3 -1.64111e-15 0)
(3 -1.62756e-15 0)
(3 -9.2599e-16 0)
(3 -1.1805e-15 0)
(3 -2.52678e-15 0)
(3 -2.94785e-15 0)
(3 -2.74347e-15 0)
(3 2.21718e-16 0)
(3 3.42168e-16 0)
(3 4.23285e-16 0)
(3 8.8184e-17 0)
(3 -3.08005e-16 0)
(3 -1.1088e-16 0)
(3 -4.43067e-16 0)
(3 -3.96633e-16 0)
(3 -7.24796e-17 0)
(3 -1.76915e-16 0)
(3 -3.05644e-16 0)
(3 -6.64106e-16 0)
(3 -8.74852e-16 0)
(3 -1.25867e-15 0)
(3 -9.41695e-16 0)
(3 -1.37652e-15 0)
(3 -1.59207e-15 0)
(3 -1.60189e-15 0)
(3 -1.24915e-15 0)
(3 -1.99216e-17 0)
(3 -2.45932e-16 0)
(3 -5.13154e-16 0)
(3 -6.66655e-16 0)
(3 -1.77025e-16 0)
(3 1.37845e-15 0)
(3 1.92993e-15 0)
(3 1.71291e-15 0)
(3 5.43087e-16 0)
(3 -1.89593e-16 0)
(3 1.99247e-16 0)
(3 8.54275e-16 0)
(3 2.71789e-16 0)
(3 2.1362e-16 0)
(3 3.46607e-16 0)
(3 2.28042e-16 0)
(3 -9.51108e-17 0)
(3 -1.22829e-15 0)
(3 -2.45095e-15 0)
(3 -1.22883e-15 0)
(3 1.34869e-15 0)
(3 7.68403e-16 0)
(3 4.18835e-16 0)
(3 -4.80908e-16 0)
(3 -7.06727e-16 0)
(3 1.58511e-16 0)
(3 1.41714e-17 0)
(3 -3.00065e-16 0)
(3 -1.40651e-15 0)
(3 -2.81764e-15 0)
(3 -2.6322e-15 0)
(3 -1.49817e-15 0)
(3 -1.5866e-15 0)