/*--------------------------------*- C++ -*----------------------------------*\
  =========                 |
  \\      /  F ield         | OpenFOAM: The Open Source CFD Toolbox
   \\    /   O peration     | Website:  https://openfoam.org
    \\  /    A nd           | Version:  7
     \\/     M anipulation  |
\*---------------------------------------------------------------------------*/
FoamFile
{
    version     2.0;
    format      ascii;
    class       volVectorField;
    location    "2.6";
    object      U;
}
// * * * * * * * * * * * * * * * * * * * * * * * * * * * * * * * * * * * * * //

dimensions      [0 1 -1 0 0 0 0];

internalField   nonuniform List<vector> 
73728
(
(3 -1.64856e-17 0)
(3 2.50588e-17 0)
(3 -4.10639e-17 0)
(3 -1.04587e-16 0)
(3 3.54729e-16 0)
(3 2.79184e-16 0)
(3 1.45827e-16 0)
(3 -7.08299e-19 0)
(3 6.73845e-17 0)
(3 -1.81235e-16 0)
(3 -1.14809e-15 0)
(3 -1.47545e-15 0)
(3 -1.43365e-15 0)
(3 -1.32907e-15 0)
(3 -9.97067e-16 0)
(3 -8.58533e-16 0)
(3 -4.3483e-16 0)
(3 5.11079e-16 0)
(3 8.35883e-16 0)
(3 6.80591e-16 0)
(3 1.41414e-16 0)
(3 -5.08642e-17 0)
(3 5.17053e-16 0)
(3 6.79741e-16 0)
(3 5.3036e-16 0)
(3 1.11294e-15 0)
(3 1.00121e-15 0)
(3 1.1841e-15 0)
(3 8.10224e-16 0)
(3 6.87133e-16 0)
(3 3.32337e-16 0)
(3 -8.49142e-16 0)
(3 -6.86294e-16 0)
(3 -8.4541e-16 0)
(3 -5.13438e-16 0)
(3 2.04417e-16 0)
(3 6.08631e-16 0)
(3 3.58754e-16 0)
(3 -1.90337e-16 0)
(3 -3.73409e-16 0)
(3 -1.02439e-15 0)
(3 -6.17892e-16 0)
(3 2.50366e-17 0)
(3 6.18081e-16 0)
(3 1.20852e-15 0)
(3 1.20278e-15 0)
(3 1.19611e-15 0)
(3 2.53511e-16 0)
(3 -4.80437e-16 0)
(3 -3.94453e-16 0)
(3 -8.74123e-17 0)
(3 2.44858e-16 0)
(3 -1.28251e-15 0)
(3 -2.43979e-15 0)
(3 -2.24922e-15 0)
(3 -1.43662e-15 0)
(3 -9.06284e-16 0)
(3 -3.91059e-16 0)
(3 -1.51636e-16 0)
(3 -9.75825e-17 0)
(3 7.92775e-16 0)
(3 1.44473e-16 0)
(3 3.0436e-18 0)
(3 8.71569e-16 0)
(3 2.1402e-15 0)
(3 1.97156e-15 0)
(3 1.05565e-15 0)
(3 1.85167e-16 0)
(3 -4.69234e-16 0)
(3 -9.12552e-16 0)
(3 -1.05192e-15 0)
(3 -1.45847e-15 0)
(3 -1.9169e-15 0)
(3 -8.27038e-16 0)
(3 -8.49907e-16 0)
(3 -1.04416e-15 0)
(3 -1.15302e-15 0)
(3 -7.37473e-16 0)
(3 -3.82416e-17 0)
(3 9.5904e-16 0)
(3 2.77168e-15 0)
(3 2.84408e-15 0)
(3 2.08632e-15 0)
(3 1.35278e-15 0)
(3 9.23642e-16 0)
(3 3.18203e-16 0)
(3 -3.78777e-16 0)
(3 -3.7493e-16 0)
(3 8.73137e-16 0)
(3 1.08086e-15 0)
(3 2.09383e-15 0)
(3 1.84814e-15 0)
(3 1.23622e-15 0)
(3 6.95134e-17 0)
(3 -1.16706e-15 0)
(3 -1.3553e-15 0)
(3 1.32046e-18 0)
(3 3.24086e-16 0)
(3 1.27735e-16 0)
(3 5.2707e-17 0)
(3 2.58844e-16 0)
(3 2.90139e-16 0)
(3 2.18554e-16 0)
(3 2.80244e-16 0)
(3 -3.09444e-16 0)
(3 -1.1487e-15 0)
(3 -2.1882e-15 0)
(3 -2.64692e-15 0)
(3 -2.0005e-15 0)
(3 -1.5016e-15 0)
(3 -9.51745e-16 0)
(3 -6.84542e-16 0)
(3 1.87902e-16 0)
(3 9.15682e-16 0)
(3 9.5248e-16 0)
(3 8.54262e-16 0)
(3 -3.18732e-17 0)
(3 -1.79816e-16 0)
(3 3.65018e-16 0)
(3 1.12833e-15 0)
(3 1.96812e-15 0)
(3 2.29534e-15 0)
(3 1.68525e-15 0)
(3 1.43746e-15 0)
(3 8.04943e-16 0)
(3 5.86488e-16 0)
(3 3.21649e-16 0)
(3 -4.71203e-16 0)
(3 -9.04281e-16 0)
(3 -1.57326e-15 0)
(3 -1.19827e-15 0)
(3 -6.91982e-16 0)
(3 -4.36412e-17 0)
(3 2.10879e-16 0)
(3 1.05921e-16 0)
(3 -3.13103e-16 0)
(3 -1.08737e-15 0)
(3 -8.02923e-16 0)
(3 -3.03472e-16 0)
(3 -1.19984e-16 0)
(3 9.45096e-16 0)
(3 1.62815e-15 0)
(3 8.84671e-16 0)
(3 -7.3807e-16 0)
(3 -1.32383e-15 0)
(3 -1.11478e-15 0)
(3 -1.06532e-15 0)
(3 -9.47026e-16 0)
(3 -1.28788e-15 0)
(3 -1.81115e-15 0)
(3 -1.69089e-15 0)
(3 -1.09103e-15 0)
(3 -3.98477e-16 0)
(3 -8.12408e-17 0)
(3 9.16176e-16 0)
(3 1.55286e-15 0)
(3 2.32093e-15 0)
(3 1.94442e-15 0)
(3 1.1185e-15 0)
(3 1.79717e-15 0)
(3 2.25926e-15 0)
(3 2.44814e-15 0)
(3 1.81853e-15 0)
(3 1.11322e-15 0)
(3 3.62494e-16 0)
(3 -1.27391e-15 0)
(3 -2.54478e-15 0)
(3 -2.11907e-15 0)
(3 -2.26734e-15 0)
(3 -1.33065e-15 0)
(3 -1.04689e-15 0)
(3 -9.52414e-16 0)
(3 -4.67926e-16 0)
(3 6.45076e-16 0)
(3 1.03229e-15 0)
(3 1.44907e-15 0)
(3 3.44105e-15 0)
(3 3.70422e-15 0)
(3 3.87707e-15 0)
(3 2.93474e-15 0)
(3 1.86865e-15 0)
(3 -3.07578e-16 0)
(3 -5.75814e-16 0)
(3 7.87779e-16 0)
(3 2.0392e-15 0)
(3 2.3026e-15 0)
(3 1.95804e-15 0)
(3 1.5541e-15 0)
(3 8.06822e-16 0)
(3 -1.41666e-15 0)
(3 -3.06908e-15 0)
(3 -3.68933e-15 0)
(3 9.40859e-17 0)
(3 2.31463e-16 0)
(3 2.6664e-16 0)
(3 2.8501e-16 0)
(3 -2.19691e-16 0)
(3 -4.5181e-16 0)
(3 -8.91948e-16 0)
(3 -1.06433e-15 0)
(3 -1.77833e-15 0)
(3 -2.82974e-15 0)
(3 -2.74904e-15 0)
(3 -1.50583e-15 0)
(3 -2.82112e-16 0)
(3 3.25151e-16 0)
(3 4.99948e-16 0)
(3 1.21171e-15 0)
(3 1.25403e-15 0)
(3 1.46199e-15 0)
(3 1.19453e-15 0)
(3 8.11883e-16 0)
(3 -9.40034e-17 0)
(3 -1.14381e-15 0)
(3 -1.35542e-15 0)
(3 -8.84081e-16 0)
(3 7.56767e-16 0)
(3 1.35527e-15 0)
(3 1.35879e-15 0)
(3 1.39224e-15 0)
(3 7.10267e-16 0)
(3 1.28726e-16 0)
(3 -3.89016e-16 0)
(3 -9.2841e-16 0)
(3 -2.42266e-15 0)
(3 -2.52525e-15 0)
(3 -2.07945e-15 0)
(3 -1.69927e-15 0)
(3 -1.30256e-15 0)
(3 -3.97398e-16 0)
(3 1.16778e-16 0)
(3 2.55746e-18 0)
(3 -1.82164e-16 0)
(3 1.06173e-16 0)
(3 -1.69289e-16 0)
(3 4.61943e-16 0)
(3 1.03489e-15 0)
(3 1.68566e-15 0)
(3 1.04539e-15 0)
(3 9.43564e-16 0)
(3 6.84888e-16 0)
(3 3.89615e-16 0)
(3 -3.0016e-16 0)
(3 -6.29259e-16 0)
(3 -2.42241e-16 0)
(3 1.24919e-16 0)
(3 -5.50197e-17 0)
(3 -1.13854e-15 0)
(3 -1.47226e-15 0)
(3 -1.0169e-16 0)
(3 2.31023e-16 0)
(3 9.70064e-16 0)
(3 1.89293e-15 0)
(3 2.54088e-15 0)
(3 2.35769e-15 0)
(3 1.45762e-15 0)
(3 1.20041e-15 0)
(3 1.08991e-15 0)
(3 1.19564e-15 0)
(3 9.49282e-16 0)
(3 3.54768e-16 0)
(3 -8.30647e-16 0)
(3 -2.23672e-15 0)
(3 -2.1377e-15 0)
(3 -2.01103e-15 0)
(3 -2.03832e-15 0)
(3 -1.89767e-15 0)
(3 -1.16679e-15 0)
(3 -8.29536e-16 0)
(3 -4.28902e-16 0)
(3 2.06127e-16 0)
(3 6.28529e-16 0)
(3 6.28373e-16 0)
(3 6.29586e-16 0)
(3 6.81187e-16 0)
(3 1.36408e-15 0)
(3 1.10906e-15 0)
(3 -6.89182e-17 0)
(3 -5.79624e-16 0)
(3 1.10909e-16 0)
(3 3.86491e-16 0)
(3 5.95078e-16 0)
(3 1.98646e-16 0)
(3 -1.27457e-15 0)
(3 -2.22418e-15 0)
(3 -2.3441e-15 0)
(3 -2.67038e-15 0)
(3 -2.96324e-15 0)
(3 7.63221e-17 0)
(3 1.99535e-16 0)
(3 4.05553e-16 0)
(3 5.7429e-16 0)
(3 3.06911e-16 0)
(3 -8.09841e-16 0)
(3 -1.34362e-15 0)
(3 -2.28777e-15 0)
(3 -2.21413e-15 0)
(3 -1.69297e-15 0)
(3 -5.01751e-16 0)
(3 1.67128e-16 0)
(3 4.54172e-16 0)
(3 6.74813e-16 0)
(3 5.88461e-16 0)
(3 7.74689e-16 0)
(3 4.49213e-16 0)
(3 5.36065e-16 0)
(3 7.93776e-16 0)
(3 3.50549e-16 0)
(3 -6.64695e-16 0)
(3 -1.15523e-15 0)
(3 -1.12521e-15 0)
(3 -9.23951e-16 0)
(3 -3.91837e-16 0)
(3 3.11221e-16 0)
(3 1.12651e-15 0)
(3 2.08883e-15 0)
(3 1.6591e-15 0)
(3 1.05165e-15 0)
(3 -7.746e-16 0)
(3 -2.60393e-15 0)
(3 -4.35075e-15 0)
(3 -4.52828e-15 0)
(3 -3.62349e-15 0)
(3 -2.53044e-15 0)
(3 -9.23532e-16 0)
(3 8.1453e-16 0)
(3 1.04169e-15 0)
(3 1.51774e-15 0)
(3 1.51659e-15 0)
(3 1.57041e-15 0)
(3 1.4822e-15 0)
(3 1.42991e-15 0)
(3 5.63857e-16 0)
(3 1.59741e-16 0)
(3 9.40806e-16 0)
(3 2.07336e-15 0)
(3 2.35254e-15 0)
(3 2.54029e-15 0)
(3 2.09006e-15 0)
(3 1.011e-15 0)
(3 8.18079e-16 0)
(3 1.61501e-16 0)
(3 2.86539e-16 0)
(3 1.49135e-15 0)
(3 2.22146e-15 0)
(3 2.67837e-15 0)
(3 3.27482e-15 0)
(3 3.05606e-15 0)
(3 3.3266e-15 0)
(3 3.89041e-15 0)
(3 4.4345e-15 0)
(3 3.58158e-15 0)
(3 1.88793e-15 0)
(3 -3.09226e-17 0)
(3 -8.28384e-16 0)
(3 -9.59644e-16 0)
(3 -1.31556e-15 0)
(3 -1.4079e-15 0)
(3 -1.31004e-15 0)
(3 -1.78501e-15 0)
(3 -1.17875e-15 0)
(3 -8.18343e-16 0)
(3 -5.8263e-16 0)
(3 -6.81583e-16 0)
(3 -5.56904e-16 0)
(3 -8.73949e-16 0)
(3 -7.09296e-16 0)
(3 -4.70862e-17 0)
(3 -5.89355e-16 0)
(3 -6.25492e-16 0)
(3 -2.00637e-16 0)
(3 3.97486e-16 0)
(3 5.59068e-16 0)
(3 8.74605e-16 0)
(3 1.31672e-15 0)
(3 1.19503e-15 0)
(3 1.40442e-15 0)
(3 1.95126e-15 0)
(3 1.6134e-15 0)
(3 1.19914e-15 0)
(3 9.58726e-16 0)
(3 1.49557e-15 0)
(3 1.58321e-15 0)
(3 1.1756e-15 0)
(3 2.13671e-17 0)
(3 1.75904e-16 0)
(3 7.7882e-17 0)
(3 1.51149e-16 0)
(3 -4.42245e-17 0)
(3 -3.50817e-16 0)
(3 -2.90826e-16 0)
(3 -6.17841e-16 0)
(3 9.53343e-17 0)
(3 6.53045e-16 0)
(3 1.4177e-15 0)
(3 1.0151e-15 0)
(3 6.77696e-16 0)
(3 3.41192e-16 0)
(3 5.09302e-16 0)
(3 4.45597e-16 0)
(3 7.58625e-17 0)
(3 -1.3105e-16 0)
(3 -4.17223e-16 0)
(3 -8.87613e-16 0)
(3 -1.36883e-15 0)
(3 -1.27416e-15 0)
(3 -1.00383e-15 0)
(3 -3.87748e-16 0)
(3 -7.40248e-16 0)
(3 -7.50449e-16 0)
(3 -9.05068e-17 0)
(3 -1.81888e-16 0)
(3 -1.93172e-16 0)
(3 -2.7379e-16 0)
(3 -1.39186e-15 0)
(3 -2.65738e-15 0)
(3 -2.47021e-15 0)
(3 -1.49542e-15 0)
(3 -9.53347e-16 0)
(3 -7.28065e-16 0)
(3 -2.84815e-16 0)
(3 -1.49063e-17 0)
(3 4.13151e-17 0)
(3 8.38366e-16 0)
(3 2.41197e-15 0)
(3 1.49481e-15 0)
(3 7.36597e-16 0)
(3 2.41872e-16 0)
(3 -7.14906e-16 0)
(3 -1.03991e-15 0)
(3 -5.88014e-16 0)
(3 -4.17891e-16 0)
(3 4.0217e-16 0)
(3 1.38017e-17 0)
(3 -4.34416e-16 0)
(3 -6.62814e-16 0)
(3 -3.87457e-16 0)
(3 8.50837e-16 0)
(3 6.08946e-16 0)
(3 6.51917e-16 0)
(3 1.08297e-15 0)
(3 1.67574e-15 0)
(3 2.00003e-15 0)
(3 2.35742e-15 0)
(3 2.40584e-15 0)
(3 2.96338e-15 0)
(3 4.16015e-15 0)
(3 4.54086e-15 0)
(3 3.75605e-15 0)
(3 3.30355e-15 0)
(3 2.63209e-15 0)
(3 1.86055e-15 0)
(3 1.54547e-15 0)
(3 1.2235e-15 0)
(3 7.4673e-16 0)
(3 -8.16712e-17 0)
(3 9.06813e-17 0)
(3 5.10661e-16 0)
(3 7.11396e-16 0)
(3 -3.08673e-16 0)
(3 -7.56012e-16 0)
(3 -7.94969e-16 0)
(3 -6.1491e-16 0)
(3 -4.26698e-16 0)
(3 -3.16706e-16 0)
(3 1.31623e-16 0)
(3 4.99919e-16 0)
(3 6.52563e-16 0)
(3 1.02554e-15 0)
(3 1.44135e-15 0)
(3 2.19412e-15 0)
(3 3.81789e-15 0)
(3 3.92159e-15 0)
(3 4.07786e-15 0)
(3 4.02415e-15 0)
(3 4.27349e-15 0)
(3 4.4655e-15 0)
(3 4.51756e-15 0)
(3 4.49403e-15 0)
(3 3.64085e-15 0)
(3 1.49055e-16 0)
(3 -6.15826e-16 0)
(3 -6.59903e-16 0)
(3 -4.64494e-16 0)
(3 2.40346e-16 0)
(3 5.04099e-16 0)
(3 1.84194e-16 0)
(3 -3.07437e-16 0)
(3 -1.724e-16 0)
(3 5.72136e-17 0)
(3 3.05566e-16 0)
(3 2.97438e-16 0)
(3 -2.19369e-17 0)
(3 4.04782e-16 0)
(3 1.01495e-15 0)
(3 7.29821e-16 0)
(3 7.63896e-16 0)
(3 3.68461e-16 0)
(3 -4.75414e-16 0)
(3 -5.82628e-16 0)
(3 -1.27735e-15 0)
(3 -1.39036e-15 0)
(3 -1.27893e-15 0)
(3 -1.2339e-15 0)
(3 -1.78095e-15 0)
(3 -2.28458e-15 0)
(3 -2.41147e-15 0)
(3 -2.80945e-15 0)
(3 -3.1682e-15 0)
(3 -2.73463e-15 0)
(3 -2.21147e-15 0)
(3 -1.71531e-15 0)
(3 -8.11973e-16 0)
(3 -5.68443e-16 0)
(3 4.84415e-17 0)
(3 2.3188e-16 0)
(3 1.19437e-16 0)
(3 -9.33341e-16 0)
(3 -1.64217e-15 0)
(3 -1.38478e-15 0)
(3 -2.3863e-16 0)
(3 -9.00948e-17 0)
(3 -7.05859e-17 0)
(3 -4.17069e-16 0)
(3 -4.96683e-16 0)
(3 3.89396e-16 0)
(3 4.73102e-16 0)
(3 1.55541e-16 0)
(3 -1.45424e-17 0)
(3 -5.54223e-17 0)
(3 1.69081e-16 0)
(3 6.63132e-16 0)
(3 6.4542e-16 0)
(3 6.91419e-16 0)
(3 8.55506e-16 0)
(3 1.09048e-15 0)
(3 1.38576e-15 0)
(3 1.2648e-15 0)
(3 7.31516e-16 0)
(3 3.7653e-16 0)
(3 -4.54382e-16 0)
(3 3.11026e-16 0)
(3 2.07301e-15 0)
(3 2.75561e-15 0)
(3 3.93834e-15 0)
(3 4.92004e-15 0)
(3 5.1613e-15 0)
(3 4.56829e-15 0)
(3 3.89705e-15 0)
(3 3.62193e-15 0)
(3 3.03632e-15 0)
(3 2.54085e-15 0)
(3 1.52969e-15 0)
(3 1.41541e-15 0)
(3 1.87138e-15 0)
(3 1.38456e-15 0)
(3 2.39385e-16 0)
(3 -3.11025e-16 0)
(3 -2.23454e-16 0)
(3 -2.47271e-16 0)
(3 7.79125e-16 0)
(3 1.90174e-15 0)
(3 3.28796e-15 0)
(3 4.1254e-15 0)
(3 3.92958e-15 0)
(3 3.47507e-15 0)
(3 3.78296e-15 0)
(3 4.18272e-15 0)
(3 3.98119e-15 0)
(3 4.17575e-15 0)
(3 5.14644e-15 0)
(3 5.5305e-15 0)
(3 6.05279e-15 0)
(3 5.66525e-15 0)
(3 5.47371e-15 0)
(3 4.7516e-15 0)
(3 -2.23599e-16 0)
(3 -3.54762e-16 0)
(3 -1.9461e-16 0)
(3 1.95371e-16 0)
(3 5.36387e-16 0)
(3 4.98093e-16 0)
(3 2.06163e-16 0)
(3 -1.22979e-16 0)
(3 -2.72293e-16 0)
(3 -3.2152e-16 0)
(3 7.66711e-17 0)
(3 5.02428e-16 0)
(3 3.41251e-16 0)
(3 8.28713e-16 0)
(3 1.16015e-15 0)
(3 7.14441e-16 0)
(3 3.57611e-16 0)
(3 -1.9748e-16 0)
(3 -5.73657e-16 0)
(3 -3.8014e-16 0)
(3 1.93131e-18 0)
(3 2.71714e-16 0)
(3 1.89456e-16 0)
(3 -4.96709e-16 0)
(3 -7.81708e-16 0)
(3 -1.36879e-15 0)
(3 -1.35694e-15 0)
(3 -1.32818e-15 0)
(3 -1.28234e-15 0)
(3 -1.45914e-15 0)
(3 -1.15633e-15 0)
(3 -1.0387e-15 0)
(3 -1.47287e-15 0)
(3 -1.75042e-15 0)
(3 -1.74288e-15 0)
(3 -1.46561e-15 0)
(3 -1.1012e-15 0)
(3 -1.01878e-15 0)
(3 -7.8184e-16 0)
(3 -7.34909e-16 0)
(3 -1.86392e-15 0)
(3 -1.13684e-15 0)
(3 -3.81995e-16 0)
(3 -1.21933e-16 0)
(3 1.05001e-15 0)
(3 1.21993e-15 0)
(3 6.97008e-16 0)
(3 -8.10635e-16 0)
(3 -1.94494e-15 0)
(3 -2.06086e-15 0)
(3 -1.41302e-15 0)
(3 -1.09106e-15 0)
(3 -5.5684e-16 0)
(3 4.12424e-16 0)
(3 1.9208e-15 0)
(3 1.78539e-15 0)
(3 1.59277e-15 0)
(3 1.16988e-16 0)
(3 -7.94996e-16 0)
(3 -1.05029e-15 0)
(3 -4.44409e-16 0)
(3 3.95725e-18 0)
(3 -2.55266e-16 0)
(3 -5.67577e-16 0)
(3 1.37679e-15 0)
(3 2.2242e-15 0)
(3 2.73631e-15 0)
(3 2.97686e-15 0)
(3 3.26115e-15 0)
(3 3.31221e-15 0)
(3 3.55628e-15 0)
(3 3.02079e-15 0)
(3 2.55819e-15 0)
(3 2.46579e-15 0)
(3 2.1182e-15 0)
(3 1.98469e-15 0)
(3 1.54359e-15 0)
(3 9.35095e-16 0)
(3 5.74727e-16 0)
(3 1.60931e-15 0)
(3 2.73006e-15 0)
(3 3.00736e-15 0)
(3 3.53986e-15 0)
(3 3.51008e-15 0)
(3 3.42498e-15 0)
(3 2.9589e-15 0)
(3 2.80614e-15 0)
(3 2.7889e-15 0)
(3 2.98489e-15 0)
(3 3.79021e-15 0)
(3 5.38285e-15 0)
(3 5.45279e-15 0)
(3 5.56026e-15 0)
(3 6.18137e-15 0)
(3 6.4865e-15 0)
(3 6.44888e-15 0)
(3 5.77082e-17 0)
(3 4.98203e-16 0)
(3 9.1527e-16 0)
(3 1.19344e-15 0)
(3 1.11064e-15 0)
(3 6.62292e-16 0)
(3 3.90329e-16 0)
(3 5.92305e-16 0)
(3 7.02726e-16 0)
(3 7.95478e-16 0)
(3 1.0902e-15 0)
(3 1.28259e-15 0)
(3 1.13958e-15 0)
(3 5.20123e-16 0)
(3 -2.06434e-16 0)
(3 -1.26042e-16 0)
(3 -3.86421e-16 0)
(3 -3.27914e-16 0)
(3 -9.36058e-16 0)
(3 -3.32832e-16 0)
(3 7.52263e-16 0)
(3 1.15406e-15 0)
(3 7.82235e-16 0)
(3 -1.84007e-16 0)
(3 -1.81577e-16 0)
(3 1.07144e-16 0)
(3 -1.04809e-16 0)
(3 -3.38608e-16 0)
(3 6.874e-17 0)
(3 1.24539e-16 0)
(3 2.31527e-17 0)
(3 -1.99259e-16 0)
(3 -9.7285e-16 0)
(3 -1.62248e-15 0)
(3 -2.68894e-15 0)
(3 -2.98396e-15 0)
(3 -2.89731e-15 0)
(3 -1.90813e-15 0)
(3 -1.38213e-15 0)
(3 -1.11068e-15 0)
(3 -5.79591e-16 0)
(3 -1.68503e-16 0)
(3 -1.27619e-16 0)
(3 4.48692e-16 0)
(3 2.42566e-15 0)
(3 2.06402e-15 0)
(3 5.57811e-16 0)
(3 -1.06889e-15 0)
(3 -1.37428e-15 0)
(3 -1.19919e-15 0)
(3 -7.49437e-16 0)
(3 -6.43997e-16 0)
(3 -3.1049e-16 0)
(3 5.3789e-16 0)
(3 1.22189e-15 0)
(3 1.43915e-15 0)
(3 1.34471e-15 0)
(3 4.06585e-16 0)
(3 -4.09035e-16 0)
(3 -1.05929e-16 0)
(3 5.2751e-16 0)
(3 7.8944e-16 0)
(3 -6.94214e-16 0)
(3 -1.88061e-15 0)
(3 -9.18779e-16 0)
(3 3.55476e-16 0)
(3 1.21479e-15 0)
(3 2.55149e-15 0)
(3 3.39818e-15 0)
(3 2.54848e-15 0)
(3 1.43444e-15 0)
(3 1.05712e-15 0)
(3 1.48144e-15 0)
(3 1.74141e-15 0)
(3 2.06058e-15 0)
(3 2.48864e-15 0)
(3 2.13507e-15 0)
(3 1.81437e-15 0)
(3 1.82668e-15 0)
(3 2.4639e-15 0)
(3 3.27717e-15 0)
(3 3.9107e-15 0)
(3 3.88563e-15 0)
(3 3.46688e-15 0)
(3 3.83364e-15 0)
(3 4.25364e-15 0)
(3 4.05519e-15 0)
(3 3.42787e-15 0)
(3 3.82914e-15 0)
(3 4.17474e-15 0)
(3 4.32363e-15 0)
(3 4.79689e-15 0)
(3 5.40323e-15 0)
(3 6.0918e-15 0)
(3 5.51407e-15 0)
(3 5.21995e-15 0)
(3 3.00067e-16 0)
(3 3.67094e-16 0)
(3 4.53637e-16 0)
(3 1.25471e-16 0)
(3 -2.27784e-16 0)
(3 -5.08095e-16 0)
(3 -6.84273e-16 0)
(3 -5.61145e-16 0)
(3 -5.86081e-16 0)
(3 2.47608e-16 0)
(3 4.13644e-16 0)
(3 5.78092e-16 0)
(3 1.11276e-15 0)
(3 1.10288e-15 0)
(3 8.81081e-16 0)
(3 9.8989e-16 0)
(3 1.41717e-15 0)
(3 1.65712e-15 0)
(3 1.10629e-15 0)
(3 4.02906e-16 0)
(3 -1.60871e-16 0)
(3 5.36876e-17 0)
(3 2.40366e-16 0)
(3 4.5769e-17 0)
(3 -3.64544e-16 0)
(3 -4.37393e-16 0)
(3 -8.96343e-16 0)
(3 -1.50652e-15 0)
(3 -1.25381e-15 0)
(3 -1.2772e-16 0)
(3 -5.74009e-18 0)
(3 -1.71473e-16 0)
(3 -4.78352e-16 0)
(3 -8.4598e-16 0)
(3 -8.31849e-16 0)
(3 -8.70813e-16 0)
(3 -5.54286e-16 0)
(3 -4.03755e-16 0)
(3 -4.60895e-16 0)
(3 -5.07713e-16 0)
(3 5.25635e-16 0)
(3 3.62656e-16 0)
(3 2.25019e-16 0)
(3 5.68172e-16 0)
(3 7.46079e-16 0)
(3 8.99765e-16 0)
(3 7.41228e-16 0)
(3 9.39992e-16 0)
(3 1.3077e-15 0)
(3 9.33748e-16 0)
(3 1.47802e-15 0)
(3 1.86936e-15 0)
(3 1.64245e-15 0)
(3 6.89745e-16 0)
(3 -2.65605e-16 0)
(3 -1.85321e-16 0)
(3 8.72979e-16 0)
(3 1.65855e-15 0)
(3 1.40634e-15 0)
(3 6.03606e-16 0)
(3 -1.25595e-16 0)
(3 -1.35012e-15 0)
(3 -2.18224e-15 0)
(3 -2.06301e-15 0)
(3 -9.83406e-16 0)
(3 -1.6235e-16 0)
(3 6.49357e-16 0)
(3 2.49725e-15 0)
(3 2.69656e-15 0)
(3 2.13151e-15 0)
(3 8.85319e-16 0)
(3 4.57487e-16 0)
(3 8.77054e-16 0)
(3 1.82358e-15 0)
(3 2.19475e-15 0)
(3 2.44303e-15 0)
(3 3.12741e-15 0)
(3 3.46486e-15 0)
(3 3.67837e-15 0)
(3 3.01331e-15 0)
(3 3.3252e-15 0)
(3 3.53296e-15 0)
(3 3.4126e-15 0)
(3 3.50583e-15 0)
(3 4.24244e-15 0)
(3 4.851e-15 0)
(3 4.5529e-15 0)
(3 4.14098e-15 0)
(3 5.00101e-15 0)
(3 4.5265e-15 0)
(3 4.14134e-15 0)
(3 4.53028e-15 0)
(3 4.88479e-15 0)
(3 5.80838e-15 0)
(3 4.96242e-15 0)
(3 3.65908e-15 0)
(3 -6.99848e-17 0)
(3 -7.63504e-17 0)
(3 -2.85002e-16 0)
(3 -8.86782e-16 0)
(3 -1.21355e-15 0)
(3 -1.17226e-15 0)
(3 -4.53412e-16 0)
(3 -1.06227e-16 0)
(3 2.00166e-16 0)
(3 3.88536e-16 0)
(3 1.40374e-16 0)
(3 1.22994e-16 0)
(3 5.33896e-16 0)
(3 4.21845e-16 0)
(3 1.15081e-15 0)
(3 1.32524e-15 0)
(3 1.39401e-15 0)
(3 1.41999e-15 0)
(3 1.49058e-15 0)
(3 9.75897e-16 0)
(3 9.03755e-16 0)
(3 8.2049e-16 0)
(3 1.31583e-15 0)
(3 1.90964e-15 0)
(3 1.52944e-15 0)
(3 9.97154e-16 0)
(3 -2.36911e-17 0)
(3 -6.47988e-16 0)
(3 -1.08645e-15 0)
(3 -1.54014e-15 0)
(3 -1.43084e-15 0)
(3 -1.56919e-15 0)
(3 -1.41197e-15 0)
(3 -6.345e-16 0)
(3 3.98668e-16 0)
(3 5.34647e-16 0)
(3 5.66193e-17 0)
(3 -1.39015e-17 0)
(3 -3.2596e-16 0)
(3 -6.386e-16 0)
(3 -1.05468e-15 0)
(3 -1.06458e-15 0)
(3 -5.25779e-16 0)
(3 -2.67303e-16 0)
(3 -6.14528e-16 0)
(3 -1.03315e-15 0)
(3 -2.54575e-16 0)
(3 1.31352e-15 0)
(3 1.44453e-15 0)
(3 1.42399e-15 0)
(3 3.42338e-16 0)
(3 2.40679e-16 0)
(3 1.24738e-16 0)
(3 -4.83754e-16 0)
(3 -1.95085e-16 0)
(3 -4.93707e-16 0)
(3 -6.90722e-16 0)
(3 -1.43211e-15 0)
(3 -1.99003e-15 0)
(3 -2.62498e-15 0)
(3 -3.04622e-15 0)
(3 -3.09574e-15 0)
(3 -3.22938e-15 0)
(3 -2.26431e-15 0)
(3 -4.63102e-16 0)
(3 -5.40007e-16 0)
(3 -4.96393e-16 0)
(3 -1.69339e-16 0)
(3 -3.27582e-16 0)
(3 -3.30198e-16 0)
(3 2.23498e-16 0)
(3 6.74028e-16 0)
(3 1.35719e-15 0)
(3 9.65617e-16 0)
(3 9.49838e-16 0)
(3 1.0006e-15 0)
(3 1.54499e-15 0)
(3 3.2787e-15 0)
(3 4.82188e-15 0)
(3 4.42891e-15 0)
(3 3.69641e-15 0)
(3 2.62616e-15 0)
(3 2.32216e-15 0)
(3 2.91352e-15 0)
(3 3.12031e-15 0)
(3 3.09301e-15 0)
(3 3.13932e-15 0)
(3 3.64288e-15 0)
(3 3.91593e-15 0)
(3 4.47717e-15 0)
(3 4.40098e-15 0)
(3 3.90904e-15 0)
(3 2.51798e-15 0)
(3 2.15233e-15 0)
(3 1.37646e-15 0)
(3 1.3224e-15 0)
(3 7.17849e-17 0)
(3 -1.67006e-16 0)
(3 -5.87588e-16 0)
(3 -8.54745e-16 0)
(3 -8.58327e-16 0)
(3 -2.16472e-16 0)
(3 4.43922e-16 0)
(3 6.61592e-16 0)
(3 1.31271e-15 0)
(3 9.96531e-16 0)
(3 6.85456e-16 0)
(3 1.50612e-16 0)
(3 -2.92858e-16 0)
(3 -7.24533e-16 0)
(3 -8.22814e-16 0)
(3 -5.46114e-16 0)
(3 -3.44415e-16 0)
(3 4.57763e-16 0)
(3 1.28262e-15 0)
(3 2.22546e-15 0)
(3 3.13018e-15 0)
(3 2.92084e-15 0)
(3 3.0265e-15 0)
(3 3.02148e-15 0)
(3 3.3847e-15 0)
(3 3.10022e-15 0)
(3 2.1681e-15 0)
(3 3.81243e-16 0)
(3 -1.37306e-15 0)
(3 -2.97604e-15 0)
(3 -3.15146e-15 0)
(3 -2.55478e-15 0)
(3 -1.63263e-15 0)
(3 -8.37961e-16 0)
(3 -8.74083e-16 0)
(3 -9.46235e-16 0)
(3 -2.05908e-15 0)
(3 -3.10811e-15 0)
(3 -2.92111e-15 0)
(3 -1.69114e-15 0)
(3 -1.39112e-15 0)
(3 -1.4173e-16 0)
(3 2.2623e-16 0)
(3 5.74549e-16 0)
(3 -3.96194e-16 0)
(3 -1.70471e-15 0)
(3 -1.91047e-15 0)
(3 -1.24704e-15 0)
(3 -8.8327e-16 0)
(3 2.46282e-16 0)
(3 6.36204e-17 0)
(3 -3.60052e-16 0)
(3 -1.04406e-16 0)
(3 7.2486e-16 0)
(3 1.26088e-15 0)
(3 1.33283e-15 0)
(3 3.88396e-16 0)
(3 -9.63826e-16 0)
(3 -2.51579e-15 0)
(3 -2.64133e-15 0)
(3 -2.33441e-15 0)
(3 -2.2194e-15 0)
(3 -1.6683e-15 0)
(3 -6.52095e-16 0)
(3 2.94604e-18 0)
(3 2.7369e-16 0)
(3 -2.21266e-16 0)
(3 -6.25707e-16 0)
(3 -8.5059e-16 0)
(3 -4.297e-16 0)
(3 6.27841e-16 0)
(3 1.19065e-15 0)
(3 1.51661e-15 0)
(3 -9.82047e-17 0)
(3 -5.78135e-16 0)
(3 -3.61426e-17 0)
(3 1.12611e-15 0)
(3 2.6036e-15 0)
(3 2.64357e-15 0)
(3 2.63299e-15 0)
(3 2.42778e-15 0)
(3 2.35322e-15 0)
(3 2.55853e-15 0)
(3 2.80245e-15 0)
(3 2.91975e-15 0)
(3 3.76613e-15 0)
(3 2.39612e-15 0)
(3 7.69242e-17 0)
(3 -1.76043e-15 0)
(3 -2.14081e-15 0)
(3 -2.21135e-15 0)
(3 -1.18606e-15 0)
(3 -7.95627e-16 0)
(3 -5.43252e-16 0)
(3 3.79025e-16 0)
(3 1.00888e-15 0)
(3 5.27679e-17 0)
(3 2.14792e-16 0)
(3 2.46405e-16 0)
(3 7.30087e-17 0)
(3 -9.4148e-17 0)
(3 2.35065e-16 0)
(3 2.68124e-16 0)
(3 4.21697e-17 0)
(3 8.94556e-16 0)
(3 1.42717e-15 0)
(3 9.13862e-16 0)
(3 -8.02009e-17 0)
(3 -2.19112e-16 0)
(3 -3.63288e-16 0)
(3 -7.85698e-16 0)
(3 -8.37128e-16 0)
(3 -8.19206e-16 0)
(3 -3.81526e-17 0)
(3 8.27498e-16 0)
(3 1.60242e-15 0)
(3 1.73606e-15 0)
(3 1.90302e-15 0)
(3 1.83256e-15 0)
(3 1.83816e-15 0)
(3 7.78718e-16 0)
(3 -2.24615e-16 0)
(3 -2.498e-16 0)
(3 -4.7746e-16 0)
(3 -6.67013e-16 0)
(3 -3.38305e-16 0)
(3 -4.93323e-16 0)
(3 -1.11102e-18 0)
(3 -1.7009e-17 0)
(3 7.94601e-17 0)
(3 -1.93924e-16 0)
(3 -3.93562e-16 0)
(3 -2.34321e-16 0)
(3 -4.51101e-16 0)
(3 -7.52248e-16 0)
(3 -1.15636e-15 0)
(3 -1.08946e-15 0)
(3 -2.47911e-16 0)
(3 -2.25501e-17 0)
(3 -3.42598e-16 0)
(3 -5.98034e-16 0)
(3 -8.11465e-16 0)
(3 -1.55084e-15 0)
(3 -1.43078e-15 0)
(3 -1.06552e-15 0)
(3 -1.1588e-15 0)
(3 -9.09e-16 0)
(3 -3.71703e-16 0)
(3 -2.52919e-16 0)
(3 7.40834e-17 0)
(3 -2.59506e-16 0)
(3 -1.1639e-15 0)
(3 -1.79611e-15 0)
(3 -1.65171e-15 0)
(3 -1.90253e-15 0)
(3 -2.32218e-15 0)
(3 -2.04354e-15 0)
(3 -1.83798e-15 0)
(3 -3.36383e-16 0)
(3 5.35185e-16 0)
(3 1.82057e-15 0)
(3 1.82692e-15 0)
(3 2.05117e-15 0)
(3 2.08967e-15 0)
(3 2.37129e-15 0)
(3 2.76477e-15 0)
(3 3.35178e-15 0)
(3 2.6998e-15 0)
(3 1.51823e-15 0)
(3 -3.20804e-16 0)
(3 -7.02884e-16 0)
(3 -4.72067e-16 0)
(3 1.90546e-16 0)
(3 5.10637e-16 0)
(3 8.0764e-16 0)
(3 1.03058e-15 0)
(3 1.74243e-15 0)
(3 1.53281e-15 0)
(3 1.62565e-15 0)
(3 1.88508e-15 0)
(3 1.09504e-15 0)
(3 -2.27412e-16 0)
(3 -3.25567e-16 0)
(3 8.73165e-17 0)
(3 -4.07248e-16 0)
(3 -6.2491e-16 0)
(3 -1.0656e-15 0)
(3 -6.15814e-16 0)
(3 1.32488e-15 0)
(3 2.66292e-15 0)
(3 2.90198e-15 0)
(3 2.70294e-15 0)
(3 -7.90976e-17 0)
(3 -8.60647e-17 0)
(3 -1.71611e-18 0)
(3 7.26765e-17 0)
(3 4.27149e-17 0)
(3 -9.36165e-18 0)
(3 7.39313e-17 0)
(3 4.83119e-16 0)
(3 4.61738e-16 0)
(3 3.91152e-16 0)
(3 4.43855e-16 0)
(3 2.35945e-16 0)
(3 5.10552e-16 0)
(3 5.21438e-16 0)
(3 5.04722e-16 0)
(3 1.60943e-16 0)
(3 2.84898e-16 0)
(3 8.10627e-16 0)
(3 1.34661e-15 0)
(3 1.19067e-15 0)
(3 6.10017e-16 0)
(3 6.28328e-16 0)
(3 1.05762e-15 0)
(3 1.63089e-15 0)
(3 1.23079e-15 0)
(3 9.37532e-16 0)
(3 1.14663e-16 0)
(3 2.05763e-16 0)
(3 5.64154e-16 0)
(3 8.10924e-16 0)
(3 2.71082e-16 0)
(3 -2.65492e-16 0)
(3 -1.20625e-15 0)
(3 -1.74258e-15 0)
(3 -1.95639e-15 0)
(3 -1.95935e-15 0)
(3 -1.03451e-15 0)
(3 4.34845e-16 0)
(3 1.58714e-15 0)
(3 8.28761e-16 0)
(3 -8.02086e-16 0)
(3 -1.36333e-15 0)
(3 -1.17936e-15 0)
(3 -6.61046e-16 0)
(3 8.35799e-17 0)
(3 3.25991e-17 0)
(3 -2.43643e-16 0)
(3 1.08014e-16 0)
(3 2.05829e-16 0)
(3 1.17975e-16 0)
(3 4.34843e-16 0)
(3 1.02073e-15 0)
(3 3.55127e-16 0)
(3 -1.76411e-15 0)
(3 -1.84723e-15 0)
(3 -1.54207e-15 0)
(3 -4.85481e-16 0)
(3 -2.10607e-16 0)
(3 -5.42387e-16 0)
(3 -1.0218e-15 0)
(3 -1.39934e-15 0)
(3 -1.15308e-15 0)
(3 3.97497e-16 0)
(3 1.86289e-15 0)
(3 2.8798e-15 0)
(3 3.47865e-15 0)
(3 3.6265e-15 0)
(3 3.31888e-15 0)
(3 3.77503e-15 0)
(3 3.6938e-15 0)
(3 2.88606e-15 0)
(3 1.50695e-15 0)
(3 4.1722e-16 0)
(3 -1.61086e-16 0)
(3 -6.31115e-16 0)
(3 -1.11425e-15 0)
(3 -1.09685e-15 0)
(3 -1.13778e-15 0)
(3 -4.84426e-16 0)
(3 1.12174e-15 0)
(3 1.15254e-15 0)
(3 5.57717e-16 0)
(3 6.31196e-16 0)
(3 -6.3321e-17 0)
(3 -1.50665e-15 0)
(3 -1.87507e-15 0)
(3 -2.22265e-15 0)
(3 -2.0575e-15 0)
(3 -1.68208e-17 0)
(3 3.69947e-16 0)
(3 3.16102e-16 0)
(3 -1.45119e-16 0)
(3 1.41275e-15 0)
(3 4.03205e-15 0)
(3 4.29699e-15 0)
(3 3.31599e-15 0)
(3 3.70344e-17 0)
(3 4.15763e-17 0)
(3 -8.19439e-17 0)
(3 1.73041e-16 0)
(3 -2.13399e-17 0)
(3 -2.98971e-16 0)
(3 -6.43206e-16 0)
(3 -8.45929e-16 0)
(3 -1.26577e-15 0)
(3 -1.50547e-15 0)
(3 -1.61596e-15 0)
(3 -1.8334e-15 0)
(3 -1.16318e-15 0)
(3 -6.72066e-16 0)
(3 -4.75432e-16 0)
(3 -3.41708e-16 0)
(3 5.60278e-16 0)
(3 7.70397e-16 0)
(3 9.49483e-16 0)
(3 1.19259e-15 0)
(3 1.70483e-15 0)
(3 1.65786e-15 0)
(3 1.3004e-15 0)
(3 8.24266e-16 0)
(3 2.28383e-15 0)
(3 2.79047e-15 0)
(3 2.69126e-15 0)
(3 2.48216e-15 0)
(3 1.66856e-15 0)
(3 3.84429e-16 0)
(3 -9.60004e-16 0)
(3 -1.91388e-15 0)
(3 -1.38844e-15 0)
(3 -1.17487e-15 0)
(3 -1.16273e-15 0)
(3 -1.26084e-15 0)
(3 -7.90851e-16 0)
(3 -7.19907e-17 0)
(3 1.8687e-15 0)
(3 2.31673e-15 0)
(3 2.45282e-15 0)
(3 1.87864e-15 0)
(3 8.07731e-16 0)
(3 1.84673e-16 0)
(3 -2.80598e-16 0)
(3 -4.73978e-16 0)
(3 -1.49984e-16 0)
(3 -3.69607e-17 0)
(3 2.95862e-16 0)
(3 1.08682e-15 0)
(3 1.82588e-15 0)
(3 2.03615e-15 0)
(3 1.66155e-15 0)
(3 1.1257e-15 0)
(3 -6.69306e-16 0)
(3 -1.86609e-15 0)
(3 -2.07262e-15 0)
(3 -2.89117e-15 0)
(3 -2.90525e-15 0)
(3 -2.28621e-15 0)
(3 -1.40629e-15 0)
(3 -6.7907e-16 0)
(3 -3.19954e-16 0)
(3 1.36377e-16 0)
(3 1.50035e-15 0)
(3 3.19022e-15 0)
(3 3.27337e-15 0)
(3 2.91752e-15 0)
(3 2.83834e-15 0)
(3 2.63383e-15 0)
(3 2.46322e-15 0)
(3 1.83755e-15 0)
(3 1.70805e-15 0)
(3 1.61313e-15 0)
(3 8.05163e-16 0)
(3 8.30016e-17 0)
(3 -1.29459e-16 0)
(3 -4.45278e-16 0)
(3 1.55173e-16 0)
(3 1.21083e-15 0)
(3 5.33944e-16 0)
(3 4.20631e-16 0)
(3 -1.31238e-16 0)
(3 -1.76939e-15 0)
(3 -2.65352e-15 0)
(3 -2.16413e-15 0)
(3 -2.2201e-15 0)
(3 -3.06468e-15 0)
(3 -2.1817e-15 0)
(3 -2.23727e-15 0)
(3 -1.37643e-15 0)
(3 -1.24153e-15 0)
(3 -1.62578e-16 0)
(3 1.30298e-16 0)
(3 1.31866e-16 0)
(3 2.93513e-15 0)
(3 -4.17293e-17 0)
(3 -3.44124e-17 0)
(3 4.90768e-17 0)
(3 2.56816e-16 0)
(3 3.71193e-16 0)
(3 3.37261e-16 0)
(3 -2.49265e-17 0)
(3 -4.05281e-16 0)
(3 -4.70571e-16 0)
(3 -4.59123e-16 0)
(3 -6.4936e-16 0)
(3 -6.27963e-16 0)
(3 -8.87808e-16 0)
(3 -6.14702e-16 0)
(3 -4.82273e-16 0)
(3 -9.01301e-17 0)
(3 -9.98987e-18 0)
(3 -3.51007e-17 0)
(3 -7.01441e-16 0)
(3 1.20872e-16 0)
(3 4.36324e-16 0)
(3 -5.88529e-17 0)
(3 -1.32169e-15 0)
(3 -2.07839e-15 0)
(3 -1.34121e-15 0)
(3 3.30491e-17 0)
(3 2.00902e-15 0)
(3 2.87278e-15 0)
(3 2.69028e-15 0)
(3 2.29824e-15 0)
(3 2.31244e-15 0)
(3 1.12987e-15 0)
(3 1.10393e-15 0)
(3 7.63394e-16 0)
(3 7.44864e-16 0)
(3 4.79374e-16 0)
(3 5.64065e-16 0)
(3 8.79135e-16 0)
(3 1.44739e-15 0)
(3 2.19329e-15 0)
(3 3.54353e-15 0)
(3 4.04566e-15 0)
(3 2.94014e-15 0)
(3 2.57633e-16 0)
(3 -8.92624e-16 0)
(3 -1.18653e-15 0)
(3 -1.15252e-15 0)
(3 -6.42877e-16 0)
(3 -1.6752e-16 0)
(3 2.86302e-16 0)
(3 8.90763e-16 0)
(3 1.71798e-15 0)
(3 1.79978e-15 0)
(3 1.81875e-15 0)
(3 2.70679e-16 0)
(3 -1.32817e-15 0)
(3 -2.54959e-15 0)
(3 -2.43655e-15 0)
(3 -1.30809e-15 0)
(3 -6.64287e-16 0)
(3 -4.97865e-16 0)
(3 -5.66127e-16 0)
(3 -1.22106e-15 0)
(3 -1.29884e-15 0)
(3 9.86753e-16 0)
(3 2.02338e-15 0)
(3 1.88883e-15 0)
(3 1.62345e-15 0)
(3 1.55705e-15 0)
(3 1.39116e-15 0)
(3 1.50681e-15 0)
(3 1.69812e-15 0)
(3 2.04553e-15 0)
(3 3.0054e-15 0)
(3 3.2749e-15 0)
(3 2.73629e-15 0)
(3 2.34806e-15 0)
(3 2.02455e-15 0)
(3 1.38357e-15 0)
(3 1.29937e-15 0)
(3 1.54444e-15 0)
(3 2.62257e-16 0)
(3 -1.60706e-16 0)
(3 -5.93973e-16 0)
(3 -1.03066e-15 0)
(3 -1.52612e-15 0)
(3 -2.46915e-15 0)
(3 -2.96349e-15 0)
(3 -3.16945e-15 0)
(3 -2.6725e-15 0)
(3 -1.66625e-15 0)
(3 -7.59523e-16 0)
(3 -3.91974e-16 0)
(3 -9.35463e-16 0)
(3 -1.76274e-15 0)
(3 3.40443e-16 0)
(3 5.84365e-18 0)
(3 -3.51592e-16 0)
(3 -2.54985e-16 0)
(3 -9.10936e-16 0)
(3 -5.94217e-16 0)
(3 -2.03725e-16 0)
(3 9.74685e-16 0)
(3 1.5252e-15 0)
(3 1.62241e-15 0)
(3 1.26635e-15 0)
(3 1.3777e-15 0)
(3 1.80489e-15 0)
(3 1.029e-15 0)
(3 2.43486e-16 0)
(3 1.40848e-16 0)
(3 -1.89078e-16 0)
(3 -8.90802e-16 0)
(3 -8.59263e-16 0)
(3 -1.29448e-15 0)
(3 -1.77232e-15 0)
(3 -2.41235e-15 0)
(3 -2.87103e-15 0)
(3 -3.33529e-15 0)
(3 -3.50697e-15 0)
(3 -3.92295e-15 0)
(3 -3.03583e-15 0)
(3 -8.83104e-16 0)
(3 1.78741e-15 0)
(3 3.28917e-15 0)
(3 3.01895e-15 0)
(3 2.23373e-15 0)
(3 2.377e-15 0)
(3 1.68544e-15 0)
(3 1.11768e-15 0)
(3 1.03689e-15 0)
(3 1.20305e-15 0)
(3 1.78813e-15 0)
(3 2.85429e-15 0)
(3 3.22607e-15 0)
(3 3.45741e-15 0)
(3 3.27729e-15 0)
(3 2.13253e-15 0)
(3 1.66522e-15 0)
(3 1.21787e-15 0)
(3 8.21937e-16 0)
(3 -7.35039e-17 0)
(3 -6.15165e-17 0)
(3 5.35304e-18 0)
(3 -5.95977e-16 0)
(3 -4.97725e-16 0)
(3 3.16459e-16 0)
(3 1.64687e-15 0)
(3 2.34881e-15 0)
(3 2.28719e-15 0)
(3 1.39269e-15 0)
(3 1.00724e-15 0)
(3 5.37287e-16 0)
(3 -3.61583e-16 0)
(3 -4.1447e-16 0)
(3 -8.04711e-16 0)
(3 -1.16188e-15 0)
(3 -7.37281e-16 0)
(3 -7.64166e-16 0)
(3 -7.2191e-16 0)
(3 -1.17569e-15 0)
(3 -1.28733e-15 0)
(3 -2.48153e-15 0)
(3 -1.22392e-15 0)
(3 -7.33223e-16 0)
(3 -9.29019e-16 0)
(3 6.57195e-16 0)
(3 1.60479e-15 0)
(3 2.82919e-15 0)
(3 3.47744e-15 0)
(3 3.83724e-15 0)
(3 3.85542e-15 0)
(3 3.24517e-15 0)
(3 2.76899e-15 0)
(3 1.12221e-15 0)
(3 6.11843e-16 0)
(3 -1.13135e-15 0)
(3 -1.82593e-15 0)
(3 -2.66914e-15 0)
(3 -2.49991e-15 0)
(3 -2.51391e-15 0)
(3 -2.45798e-15 0)
(3 -1.96307e-15 0)
(3 -1.99816e-15 0)
(3 -2.16616e-15 0)
(3 -1.52401e-15 0)
(3 -1.31958e-15 0)
(3 -1.01654e-15 0)
(3 -1.62876e-15 0)
(3 -1.67365e-15 0)
(3 -2.39012e-15 0)
(3 -2.66993e-15 0)
(3 1.53123e-17 0)
(3 -8.92043e-18 0)
(3 7.49075e-17 0)
(3 8.51205e-17 0)
(3 1.34535e-16 0)
(3 -1.35083e-16 0)
(3 2.76647e-16 0)
(3 4.87727e-16 0)
(3 5.48215e-16 0)
(3 8.52832e-16 0)
(3 9.80168e-16 0)
(3 3.32619e-16 0)
(3 3.77545e-17 0)
(3 -7.23044e-16 0)
(3 -1.19827e-15 0)
(3 -1.76787e-15 0)
(3 -2.33826e-15 0)
(3 -2.89781e-15 0)
(3 -3.17337e-15 0)
(3 -3.44029e-15 0)
(3 -3.16968e-15 0)
(3 -2.39512e-15 0)
(3 -2.03521e-15 0)
(3 -2.18398e-15 0)
(3 -2.58263e-15 0)
(3 -2.32482e-15 0)
(3 -2.65414e-15 0)
(3 -1.43778e-15 0)
(3 -1.32131e-16 0)
(3 2.06046e-16 0)
(3 -2.49819e-17 0)
(3 1.21767e-15 0)
(3 1.14811e-15 0)
(3 8.56864e-16 0)
(3 7.54928e-16 0)
(3 1.33859e-15 0)
(3 2.60276e-15 0)
(3 3.13195e-15 0)
(3 3.20707e-15 0)
(3 2.59675e-15 0)
(3 9.82834e-16 0)
(3 4.7502e-16 0)
(3 7.54642e-16 0)
(3 1.5257e-15 0)
(3 2.23724e-15 0)
(3 3.07316e-15 0)
(3 3.36136e-15 0)
(3 1.643e-15 0)
(3 4.8425e-16 0)
(3 3.27438e-16 0)
(3 4.08177e-17 0)
(3 -1.45542e-19 0)
(3 7.95744e-16 0)
(3 1.34171e-15 0)
(3 1.33529e-15 0)
(3 1.07145e-15 0)
(3 1.79163e-16 0)
(3 -2.72366e-16 0)
(3 -1.13249e-15 0)
(3 -1.11893e-15 0)
(3 -7.80519e-16 0)
(3 3.17842e-16 0)
(3 3.38085e-16 0)