/*--------------------------------*- C++ -*----------------------------------*\
  =========                 |
  \\      /  F ield         | OpenFOAM: The Open Source CFD Toolbox
   \\    /   O peration     | Website:  https://openfoam.org
    \\  /    A nd           | Version:  7
     \\/     M anipulation  |
\*---------------------------------------------------------------------------*/
FoamFile
{
    version     2.0;
    format      ascii;
    class       volVectorField;
    location    "1.8";
    object      U;
}
// * * * * * * * * * * * * * * * * * * * * * * * * * * * * * * * * * * * * * //

dimensions      [0 1 -1 0 0 0 0];

internalField   nonuniform List<vector> 
73728
(
(3 -1.75991e-16 0)
(3 -4.95591e-16 0)
(3 1.69604e-16 0)
(3 4.67225e-16 0)
(3 9.53628e-16 0)
(3 8.11872e-16 0)
(3 1.48837e-16 0)
(3 3.09274e-16 0)
(3 -3.81037e-16 0)
(3 -4.43065e-16 0)
(3 -8.65197e-16 0)
(3 -5.51522e-16 0)
(3 5.28571e-16 0)
(3 7.65569e-16 0)
(3 5.40808e-16 0)
(3 6.73322e-16 0)
(3 7.26852e-16 0)
(3 3.78659e-16 0)
(3 1.19613e-16 0)
(3 -2.36416e-17 0)
(3 -2.79922e-16 0)
(3 -4.12009e-16 0)
(3 -1.54074e-16 0)
(3 2.70443e-16 0)
(3 7.53066e-16 0)
(3 4.29775e-16 0)
(3 1.4951e-16 0)
(3 1.941e-17 0)
(3 1.1803e-16 0)
(3 7.23248e-16 0)
(3 1.58431e-15 0)
(3 1.16725e-15 0)
(3 7.97409e-16 0)
(3 7.16541e-16 0)
(3 4.9346e-17 0)
(3 2.94703e-16 0)
(3 3.79906e-16 0)
(3 2.77046e-17 0)
(3 1.85855e-16 0)
(3 1.89375e-16 0)
(3 1.31273e-16 0)
(3 -2.20033e-17 0)
(3 -7.12686e-17 0)
(3 2.53927e-16 0)
(3 2.81579e-16 0)
(3 1.43425e-16 0)
(3 1.57814e-16 0)
(3 -1.919e-16 0)
(3 1.99719e-16 0)
(3 7.52181e-16 0)
(3 4.54305e-16 0)
(3 4.76593e-16 0)
(3 -1.47512e-15 0)
(3 -2.66852e-15 0)
(3 -2.51707e-15 0)
(3 -2.56219e-15 0)
(3 -2.62473e-15 0)
(3 -1.42935e-15 0)
(3 -1.07857e-15 0)
(3 7.39069e-16 0)
(3 2.6316e-15 0)
(3 2.46182e-15 0)
(3 1.46869e-15 0)
(3 1.323e-15 0)
(3 8.88234e-16 0)
(3 2.29041e-16 0)
(3 2.33806e-17 0)
(3 3.32634e-16 0)
(3 9.69326e-16 0)
(3 1.0286e-15 0)
(3 -2.09253e-16 0)
(3 -1.40731e-15 0)
(3 -1.7273e-15 0)
(3 -2.06396e-15 0)
(3 -2.72786e-15 0)
(3 -2.44059e-15 0)
(3 -2.16723e-15 0)
(3 -1.10464e-15 0)
(3 2.49587e-17 0)
(3 4.29361e-16 0)
(3 1.43545e-15 0)
(3 2.10072e-15 0)
(3 2.932e-15 0)
(3 2.51446e-15 0)
(3 2.66917e-15 0)
(3 2.4309e-15 0)
(3 2.76017e-15 0)
(3 2.18017e-15 0)
(3 9.99538e-16 0)
(3 7.19713e-16 0)
(3 9.83313e-16 0)
(3 1.47797e-15 0)
(3 1.41679e-15 0)
(3 6.20259e-16 0)
(3 -1.94352e-15 0)
(3 -2.59824e-15 0)
(3 -5.58454e-16 0)
(3 -2.02584e-16 0)
(3 5.28003e-16 0)
(3 9.64597e-16 0)
(3 1.08647e-15 0)
(3 1.5471e-16 0)
(3 -6.27127e-16 0)
(3 -2.8555e-16 0)
(3 -5.08074e-16 0)
(3 -9.92208e-16 0)
(3 -1.77589e-15 0)
(3 -1.27457e-15 0)
(3 3.31894e-16 0)
(3 8.54869e-16 0)
(3 8.17864e-16 0)
(3 6.69751e-16 0)
(3 5.24728e-17 0)
(3 -5.37926e-16 0)
(3 -7.62958e-16 0)
(3 -3.91687e-16 0)
(3 -2.06427e-16 0)
(3 -2.97188e-16 0)
(3 -3.39214e-16 0)
(3 -1.47714e-16 0)
(3 2.43654e-16 0)
(3 -3.16936e-16 0)
(3 -3.10072e-16 0)
(3 2.57717e-16 0)
(3 9.01249e-16 0)
(3 2.06718e-15 0)
(3 3.18974e-15 0)
(3 2.56843e-15 0)
(3 9.10471e-16 0)
(3 5.33418e-16 0)
(3 2.31264e-16 0)
(3 6.98426e-16 0)
(3 7.38839e-16 0)
(3 3.85432e-16 0)
(3 1.17959e-16 0)
(3 -1.68645e-16 0)
(3 -8.51899e-17 0)
(3 -5.95671e-17 0)
(3 6.98704e-16 0)
(3 1.55934e-15 0)
(3 1.03839e-15 0)
(3 9.08865e-16 0)
(3 5.23526e-16 0)
(3 -1.45191e-16 0)
(3 -2.97285e-17 0)
(3 3.6892e-16 0)
(3 7.67491e-16 0)
(3 9.7005e-16 0)
(3 -1.5328e-16 0)
(3 -2.52742e-15 0)
(3 -2.91577e-15 0)
(3 -2.87569e-15 0)
(3 -1.72568e-15 0)
(3 -3.18994e-16 0)
(3 1.9334e-15 0)
(3 2.86201e-15 0)
(3 2.95293e-15 0)
(3 2.06179e-15 0)
(3 1.09443e-15 0)
(3 2.98416e-16 0)
(3 -1.09248e-16 0)
(3 -1.0997e-16 0)
(3 -5.03962e-17 0)
(3 8.1528e-16 0)
(3 1.154e-15 0)
(3 3.78327e-16 0)
(3 -8.65453e-16 0)
(3 -1.31853e-15 0)
(3 -1.73465e-15 0)
(3 -2.65485e-15 0)
(3 -3.15357e-15 0)
(3 -2.7792e-15 0)
(3 -1.35273e-15 0)
(3 -5.25634e-16 0)
(3 -8.72626e-17 0)
(3 1.66877e-15 0)
(3 2.83613e-15 0)
(3 4.71844e-15 0)
(3 4.94546e-15 0)
(3 4.89094e-15 0)
(3 4.59529e-15 0)
(3 3.45736e-15 0)
(3 2.205e-15 0)
(3 1.69967e-15 0)
(3 5.25398e-16 0)
(3 -2.13378e-16 0)
(3 -2.90084e-16 0)
(3 -6.24803e-16 0)
(3 -9.77835e-16 0)
(3 -2.01556e-15 0)
(3 -5.72951e-15 0)
(3 -5.76775e-15 0)
(3 1.39229e-16 0)
(3 3.1573e-16 0)
(3 1.52277e-16 0)
(3 -5.50676e-17 0)
(3 -5.71807e-16 0)
(3 -1.39981e-15 0)
(3 -1.28018e-15 0)
(3 -1.17568e-15 0)
(3 -1.19749e-15 0)
(3 -9.84888e-16 0)
(3 -2.7219e-16 0)
(3 2.00091e-17 0)
(3 -1.6775e-16 0)
(3 -5.1752e-16 0)
(3 -6.13582e-16 0)
(3 -9.82246e-16 0)
(3 -1.86686e-15 0)
(3 -1.61677e-15 0)
(3 -4.96828e-16 0)
(3 6.70435e-16 0)
(3 1.53115e-15 0)
(3 1.52565e-15 0)
(3 1.18162e-15 0)
(3 -6.84954e-17 0)
(3 -1.57563e-15 0)
(3 -1.33526e-15 0)
(3 -1.48993e-16 0)
(3 1.39224e-15 0)
(3 2.15786e-15 0)
(3 2.37986e-15 0)
(3 2.47607e-15 0)
(3 1.71397e-15 0)
(3 7.49392e-16 0)
(3 1.65281e-16 0)
(3 1.31231e-15 0)
(3 1.87606e-15 0)
(3 2.63994e-15 0)
(3 2.44963e-15 0)
(3 1.85629e-15 0)
(3 1.15521e-15 0)
(3 4.94983e-16 0)
(3 1.9345e-16 0)
(3 5.46982e-16 0)
(3 8.35126e-16 0)
(3 5.02201e-16 0)
(3 6.65262e-17 0)
(3 -8.38586e-16 0)
(3 -2.63262e-16 0)
(3 -1.84869e-16 0)
(3 -6.33629e-16 0)
(3 -1.20603e-15 0)
(3 -2.29052e-15 0)
(3 -2.60172e-15 0)
(3 -2.76725e-15 0)
(3 -3.42871e-15 0)
(3 -3.91334e-15 0)
(3 -4.11764e-15 0)
(3 -3.13531e-15 0)
(3 -1.06007e-15 0)
(3 4.49414e-16 0)
(3 6.68046e-16 0)
(3 -5.49914e-16 0)
(3 -8.20379e-16 0)
(3 -6.27986e-16 0)
(3 -2.56212e-16 0)
(3 2.86367e-16 0)
(3 8.64586e-16 0)
(3 1.05161e-15 0)
(3 1.09512e-15 0)
(3 9.11876e-16 0)
(3 7.06613e-16 0)
(3 5.40794e-16 0)
(3 -3.13653e-16 0)
(3 -6.75002e-16 0)
(3 -6.03567e-16 0)
(3 -7.72541e-16 0)
(3 -6.94106e-16 0)
(3 4.98036e-16 0)
(3 2.01486e-15 0)
(3 4.20988e-15 0)
(3 4.71834e-15 0)
(3 4.74964e-15 0)
(3 5.08113e-15 0)
(3 6.18837e-15 0)
(3 5.49998e-15 0)
(3 3.80737e-15 0)
(3 1.7317e-15 0)
(3 1.03785e-15 0)
(3 7.53655e-16 0)
(3 8.17784e-16 0)
(3 9.32974e-16 0)
(3 4.34849e-16 0)
(3 -2.24224e-15 0)
(3 -6.41601e-15 0)
(3 -8.1357e-15 0)
(3 -8.13967e-15 0)
(3 4.40476e-16 0)
(3 4.60488e-17 0)
(3 -7.65158e-16 0)
(3 -7.9806e-16 0)
(3 -6.7119e-16 0)
(3 -5.81116e-16 0)
(3 -2.15044e-16 0)
(3 -3.55647e-16 0)
(3 -1.07953e-15 0)
(3 -9.25541e-16 0)
(3 6.35855e-16 0)
(3 1.05494e-15 0)
(3 9.62784e-16 0)
(3 -2.43097e-16 0)
(3 -1.33463e-15 0)
(3 -2.08738e-15 0)
(3 -2.16909e-15 0)
(3 -1.49838e-15 0)
(3 -5.03335e-16 0)
(3 1.91043e-16 0)
(3 -1.16252e-17 0)
(3 -5.50309e-16 0)
(3 -1.30277e-15 0)
(3 -1.7606e-15 0)
(3 -2.62191e-15 0)
(3 -1.90681e-15 0)
(3 -5.22715e-16 0)
(3 -5.09481e-17 0)
(3 1.84428e-16 0)
(3 3.08297e-16 0)
(3 7.48226e-16 0)
(3 1.02256e-15 0)
(3 1.36436e-15 0)
(3 1.52391e-15 0)
(3 1.60709e-15 0)
(3 1.40604e-15 0)
(3 1.40585e-15 0)
(3 1.23286e-15 0)
(3 1.65864e-15 0)
(3 2.33934e-15 0)
(3 2.22082e-15 0)
(3 2.25959e-15 0)
(3 2.45428e-15 0)
(3 2.76313e-15 0)
(3 2.02348e-15 0)
(3 1.23114e-15 0)
(3 2.54631e-16 0)
(3 -7.84569e-17 0)
(3 3.18095e-16 0)
(3 4.33611e-16 0)
(3 -6.63665e-16 0)
(3 -9.15109e-16 0)
(3 -8.52215e-16 0)
(3 -3.71187e-16 0)
(3 -1.13998e-15 0)
(3 -1.78604e-15 0)
(3 -2.21761e-15 0)
(3 -2.67861e-15 0)
(3 -2.89172e-15 0)
(3 -2.89379e-15 0)
(3 -2.47881e-15 0)
(3 -1.16562e-15 0)
(3 -1.17829e-15 0)
(3 -8.00312e-16 0)
(3 -1.64572e-16 0)
(3 -2.29552e-16 0)
(3 5.0401e-17 0)
(3 3.70572e-16 0)
(3 9.2053e-16 0)
(3 9.72648e-16 0)
(3 2.09778e-16 0)
(3 -2.14161e-17 0)
(3 -5.03336e-18 0)
(3 1.42677e-15 0)
(3 1.06961e-15 0)
(3 1.08201e-15 0)
(3 1.41735e-15 0)
(3 2.59605e-15 0)
(3 4.6206e-15 0)
(3 5.07816e-15 0)
(3 5.3605e-15 0)
(3 5.12574e-15 0)
(3 4.62666e-15 0)
(3 3.90962e-15 0)
(3 1.78094e-15 0)
(3 6.78985e-16 0)
(3 6.21516e-16 0)
(3 9.33196e-16 0)
(3 1.53985e-15 0)
(3 1.93621e-15 0)
(3 2.4406e-16 0)
(3 -2.27387e-15 0)
(3 -4.004e-15 0)
(3 -5.47151e-15 0)
(3 -6.36498e-15 0)
(3 -6.6875e-15 0)
(3 -1.35129e-16 0)
(3 -2.69508e-16 0)
(3 -2.95301e-16 0)
(3 3.07675e-17 0)
(3 3.28958e-16 0)
(3 5.55055e-16 0)
(3 2.23805e-16 0)
(3 3.39192e-16 0)
(3 5.04632e-16 0)
(3 1.29408e-15 0)
(3 1.4177e-15 0)
(3 1.40033e-15 0)
(3 1.24349e-15 0)
(3 5.33803e-16 0)
(3 -1.16682e-16 0)
(3 -6.92009e-16 0)
(3 -8.69133e-16 0)
(3 -9.01492e-16 0)
(3 -1.18466e-15 0)
(3 -1.29089e-15 0)
(3 -2.12122e-15 0)
(3 -2.27934e-15 0)
(3 -2.00901e-15 0)
(3 -1.28459e-15 0)
(3 -5.40735e-17 0)
(3 -9.76164e-16 0)
(3 -7.54591e-17 0)
(3 5.25354e-16 0)
(3 7.30757e-16 0)
(3 7.49453e-16 0)
(3 8.62287e-16 0)
(3 1.23095e-15 0)
(3 1.81538e-15 0)
(3 1.90536e-15 0)
(3 6.35689e-16 0)
(3 5.78075e-16 0)
(3 1.1387e-15 0)
(3 1.27017e-15 0)
(3 1.519e-15 0)
(3 3.1527e-15 0)
(3 3.34191e-15 0)
(3 3.6978e-15 0)
(3 3.98991e-15 0)
(3 4.02486e-15 0)
(3 4.06424e-15 0)
(3 3.94389e-15 0)
(3 3.58622e-15 0)
(3 2.91668e-15 0)
(3 1.44648e-15 0)
(3 3.35822e-16 0)
(3 1.02822e-15 0)
(3 1.78695e-15 0)
(3 1.21663e-15 0)
(3 9.24328e-17 0)
(3 -7.42337e-16 0)
(3 -1.22904e-15 0)
(3 -2.19743e-15 0)
(3 -3.12146e-15 0)
(3 -5.12054e-15 0)
(3 -6.36423e-15 0)
(3 -5.42197e-15 0)
(3 -3.48908e-15 0)
(3 -9.22958e-16 0)
(3 -3.49645e-16 0)
(3 -3.76051e-16 0)
(3 -6.08852e-16 0)
(3 -7.71696e-16 0)
(3 -5.59122e-16 0)
(3 7.59065e-18 0)
(3 1.12978e-16 0)
(3 -6.85811e-16 0)
(3 -4.30778e-16 0)
(3 8.88209e-16 0)
(3 2.97547e-15 0)
(3 3.48619e-15 0)
(3 3.375e-15 0)
(3 3.43929e-15 0)
(3 4.83889e-15 0)
(3 5.18748e-15 0)
(3 5.21017e-15 0)
(3 4.98309e-15 0)
(3 3.93869e-15 0)
(3 2.3869e-15 0)
(3 -1.93564e-15 0)
(3 -4.44279e-15 0)
(3 -3.717e-15 0)
(3 -3.67749e-15 0)
(3 -3.04386e-15 0)
(3 -2.2269e-15 0)
(3 -1.03836e-15 0)
(3 -6.49664e-16 0)
(3 -8.36705e-16 0)
(3 -1.23156e-15 0)
(3 -2.68426e-15 0)
(3 -2.38276e-15 0)
(3 -2.50546e-15 0)
(3 9.48833e-17 0)
(3 -4.70231e-17 0)
(3 1.40634e-16 0)
(3 -8.22825e-17 0)
(3 -5.21067e-16 0)
(3 -6.51564e-16 0)
(3 -7.12648e-16 0)
(3 -3.4957e-16 0)
(3 7.84634e-16 0)
(3 1.884e-15 0)
(3 1.93072e-15 0)
(3 1.57348e-15 0)
(3 7.69572e-16 0)
(3 4.28858e-16 0)
(3 3.10716e-16 0)
(3 7.77974e-16 0)
(3 1.01369e-15 0)
(3 1.23521e-15 0)
(3 3.22114e-16 0)
(3 2.83088e-17 0)
(3 1.28101e-16 0)
(3 1.56541e-16 0)
(3 1.47593e-16 0)
(3 3.94264e-16 0)
(3 1.18947e-15 0)
(3 1.26065e-15 0)
(3 1.70558e-15 0)
(3 1.9697e-15 0)
(3 2.08947e-15 0)
(3 2.08966e-15 0)
(3 1.77918e-15 0)
(3 1.55305e-15 0)
(3 1.64682e-15 0)
(3 8.21964e-16 0)
(3 1.80861e-16 0)
(3 7.53838e-17 0)
(3 1.60916e-15 0)
(3 2.31997e-15 0)
(3 2.26421e-15 0)
(3 2.332e-15 0)
(3 2.62043e-15 0)
(3 2.76596e-15 0)
(3 2.83663e-15 0)
(3 3.27263e-15 0)
(3 4.08986e-15 0)
(3 4.38004e-15 0)
(3 4.03038e-15 0)
(3 3.00858e-15 0)
(3 2.44124e-15 0)
(3 1.22363e-15 0)
(3 -1.5294e-16 0)
(3 -6.46017e-16 0)
(3 -6.5771e-16 0)
(3 1.37458e-15 0)
(3 2.66123e-15 0)
(3 3.60946e-15 0)
(3 3.47137e-15 0)
(3 2.19775e-15 0)
(3 6.68316e-16 0)
(3 -1.60977e-15 0)
(3 -3.09977e-15 0)
(3 -3.73079e-15 0)
(3 -2.63692e-15 0)
(3 -2.09878e-15 0)
(3 -1.43369e-15 0)
(3 -3.46651e-16 0)
(3 -3.01009e-16 0)
(3 -2.95123e-16 0)
(3 -3.6446e-16 0)
(3 -3.50661e-16 0)
(3 -1.11658e-16 0)
(3 9.82257e-18 0)
(3 2.14665e-15 0)
(3 2.97134e-15 0)
(3 4.45056e-15 0)
(3 6.28409e-15 0)
(3 6.7761e-15 0)
(3 6.03308e-15 0)
(3 5.21478e-15 0)
(3 3.38223e-15 0)
(3 1.4984e-15 0)
(3 -2.41996e-15 0)
(3 -4.14561e-15 0)
(3 -4.15986e-15 0)
(3 -4.05171e-15 0)
(3 -4.01868e-15 0)
(3 -4.10805e-15 0)
(3 -3.94003e-15 0)
(3 -4.93005e-15 0)
(3 -5.09363e-15 0)
(3 -3.15688e-15 0)
(3 1.43427e-16 0)
(3 2.77488e-16 0)
(3 5.21946e-16 0)
(3 9.32312e-16 0)
(3 -2.16661e-16 0)
(3 3.6627e-16 0)
(3 5.18004e-16 0)
(3 2.44783e-16 0)
(3 -3.07223e-16 0)
(3 -7.84801e-16 0)
(3 -1.06687e-15 0)
(3 -6.81651e-16 0)
(3 -4.20923e-16 0)
(3 4.67183e-17 0)
(3 2.56312e-16 0)
(3 5.25092e-16 0)
(3 1.32403e-15 0)
(3 1.50895e-15 0)
(3 1.70148e-15 0)
(3 2.02088e-15 0)
(3 2.70375e-15 0)
(3 2.83446e-15 0)
(3 3.14913e-15 0)
(3 2.27638e-15 0)
(3 1.85595e-15 0)
(3 1.36224e-15 0)
(3 2.08045e-15 0)
(3 2.39846e-15 0)
(3 2.96727e-15 0)
(3 2.595e-15 0)
(3 2.33896e-15 0)
(3 2.83535e-15 0)
(3 3.70979e-15 0)
(3 4.04154e-15 0)
(3 4.34325e-15 0)
(3 4.11638e-15 0)
(3 3.38231e-15 0)
(3 1.81053e-15 0)
(3 7.17399e-16 0)
(3 -4.03635e-16 0)
(3 -8.09531e-16 0)
(3 -6.79865e-16 0)
(3 5.13071e-16 0)
(3 1.83345e-15 0)
(3 1.94057e-15 0)
(3 2.01538e-15 0)
(3 2.04124e-15 0)
(3 2.21825e-15 0)
(3 2.53248e-15 0)
(3 2.76545e-15 0)
(3 2.83004e-15 0)
(3 1.34707e-15 0)
(3 1.04625e-15 0)
(3 9.53241e-16 0)
(3 7.31995e-16 0)
(3 -2.39298e-16 0)
(3 -2.18654e-15 0)
(3 -2.36858e-15 0)
(3 5.42891e-17 0)
(3 1.53859e-15 0)
(3 2.16158e-15 0)
(3 3.16676e-15 0)
(3 3.38234e-15 0)
(3 2.96994e-15 0)
(3 1.24297e-15 0)
(3 3.68167e-16 0)
(3 -1.61818e-15 0)
(3 -3.09928e-15 0)
(3 -2.77959e-15 0)
(3 -1.68993e-15 0)
(3 -9.47857e-16 0)
(3 3.31691e-16 0)
(3 2.20124e-16 0)
(3 -5.51933e-16 0)
(3 -9.88419e-16 0)
(3 -5.81718e-17 0)
(3 1.1609e-15 0)
(3 1.75464e-15 0)
(3 2.95032e-15 0)
(3 5.08862e-15 0)
(3 8.15424e-15 0)
(3 1.02773e-14 0)
(3 7.83296e-15 0)
(3 4.10191e-15 0)
(3 9.74298e-16 0)
(3 9.06935e-17 0)
(3 3.19842e-16 0)
(3 -1.94978e-16 0)
(3 -1.47071e-15 0)
(3 -2.42556e-15 0)
(3 -3.05416e-15 0)
(3 -3.20391e-15 0)
(3 -3.53113e-15 0)
(3 -3.28398e-15 0)
(3 -3.79684e-15 0)
(3 -3.8143e-15 0)
(3 -3.84969e-15 0)
(3 -1.77098e-15 0)
(3 5.02366e-16 0)
(3 1.39737e-15 0)
(3 8.36587e-16 0)
(3 -7.47115e-17 0)
(3 2.30354e-16 0)
(3 2.77248e-16 0)
(3 5.2827e-17 0)
(3 1.15858e-19 0)
(3 1.86785e-16 0)
(3 4.80615e-16 0)
(3 3.15427e-16 0)
(3 3.77695e-16 0)
(3 8.07516e-16 0)
(3 6.41775e-16 0)
(3 1.10804e-15 0)
(3 1.50674e-15 0)
(3 2.58467e-15 0)
(3 2.97766e-15 0)
(3 2.40799e-15 0)
(3 2.18072e-15 0)
(3 2.1369e-15 0)
(3 1.47759e-15 0)
(3 1.43979e-15 0)
(3 1.28495e-15 0)
(3 1.25338e-15 0)
(3 2.58194e-15 0)
(3 2.99106e-15 0)
(3 2.88213e-15 0)
(3 3.66442e-15 0)
(3 4.53289e-15 0)
(3 4.62412e-15 0)
(3 4.88701e-15 0)
(3 4.95184e-15 0)
(3 4.97384e-15 0)
(3 4.44747e-15 0)
(3 3.10809e-15 0)
(3 2.19362e-15 0)
(3 7.35911e-16 0)
(3 2.2566e-17 0)
(3 -8.05685e-16 0)
(3 -9.54108e-16 0)
(3 -7.26049e-16 0)
(3 5.70208e-17 0)
(3 5.09862e-16 0)
(3 4.48453e-16 0)
(3 6.84956e-16 0)
(3 1.82706e-15 0)
(3 9.69041e-16 0)
(3 3.81685e-16 0)
(3 5.57811e-16 0)
(3 9.68567e-16 0)
(3 8.73845e-16 0)
(3 -1.45852e-16 0)
(3 -1.04738e-15 0)
(3 -1.58598e-15 0)
(3 -1.58353e-15 0)
(3 6.34196e-16 0)
(3 1.34227e-15 0)
(3 1.05092e-15 0)
(3 1.43499e-15 0)
(3 1.72476e-15 0)
(3 2.01063e-15 0)
(3 2.56052e-15 0)
(3 2.32721e-15 0)
(3 8.31574e-16 0)
(3 -2.54821e-16 0)
(3 -3.18659e-16 0)
(3 -8.28493e-16 0)
(3 -2.10332e-15 0)
(3 -2.0626e-15 0)
(3 -1.97486e-15 0)
(3 -2.07317e-15 0)
(3 -1.38499e-15 0)
(3 -4.0138e-16 0)
(3 1.06916e-15 0)
(3 2.288e-15 0)
(3 2.78572e-15 0)
(3 4.85945e-15 0)
(3 5.95563e-15 0)
(3 5.3312e-15 0)
(3 4.08357e-15 0)
(3 3.7307e-16 0)
(3 -1.12264e-16 0)
(3 -4.03497e-16 0)
(3 -4.08215e-17 0)
(3 2.92236e-16 0)
(3 -1.0845e-16 0)
(3 -3.76845e-15 0)
(3 -4.58237e-15 0)
(3 -3.36332e-15 0)
(3 -3.08177e-15 0)
(3 -3.46899e-15 0)
(3 -4.13159e-15 0)
(3 -4.78023e-15 0)
(3 -4.14144e-15 0)
(3 -2.67438e-15 0)
(3 -1.01832e-16 0)
(3 2.42629e-15 0)
(3 3.18487e-15 0)
(3 -5.80678e-17 0)
(3 1.38369e-16 0)
(3 2.24912e-16 0)
(3 3.66235e-16 0)
(3 4.76448e-16 0)
(3 5.33205e-16 0)
(3 5.16533e-16 0)
(3 1.20545e-15 0)
(3 1.32197e-15 0)
(3 1.11135e-15 0)
(3 1.09079e-15 0)
(3 1.16194e-15 0)
(3 1.75078e-15 0)
(3 2.13214e-15 0)
(3 1.59434e-15 0)
(3 6.07679e-16 0)
(3 4.81201e-16 0)
(3 5.16506e-16 0)
(3 4.89339e-16 0)
(3 4.36011e-16 0)
(3 1.20546e-15 0)
(3 1.29061e-15 0)
(3 1.41108e-15 0)
(3 1.77926e-15 0)
(3 2.32598e-15 0)
(3 3.37268e-15 0)
(3 3.44642e-15 0)
(3 2.98672e-15 0)
(3 3.27253e-15 0)
(3 2.91191e-15 0)
(3 2.33568e-15 0)
(3 2.72671e-15 0)
(3 2.84418e-15 0)
(3 3.30116e-15 0)
(3 3.00531e-15 0)
(3 2.42764e-15 0)
(3 1.51026e-15 0)
(3 -3.48642e-18 0)
(3 -4.69923e-16 0)
(3 -8.41772e-16 0)
(3 -8.58753e-16 0)
(3 -4.04776e-16 0)
(3 -1.7224e-16 0)
(3 -5.00214e-16 0)
(3 -1.64951e-15 0)
(3 -1.94124e-15 0)
(3 -1.54602e-15 0)
(3 -1.3292e-15 0)
(3 -1.73795e-15 0)
(3 -2.32859e-15 0)
(3 -1.61278e-15 0)
(3 6.45164e-18 0)
(3 1.46188e-15 0)
(3 1.18933e-15 0)
(3 1.22713e-15 0)
(3 1.71671e-15 0)
(3 2.11291e-15 0)
(3 3.18439e-15 0)
(3 3.69359e-15 0)
(3 4.40766e-15 0)
(3 4.53618e-15 0)
(3 4.30481e-15 0)
(3 3.12959e-15 0)
(3 2.42422e-15 0)
(3 1.11725e-15 0)
(3 6.38188e-16 0)
(3 6.3431e-16 0)
(3 8.02877e-16 0)
(3 6.32016e-16 0)
(3 7.71196e-16 0)
(3 1.05084e-15 0)
(3 1.54995e-15 0)
(3 2.76404e-15 0)
(3 2.4285e-15 0)
(3 2.09544e-15 0)
(3 1.32649e-15 0)
(3 -5.2015e-16 0)
(3 -1.60321e-15 0)
(3 -6.7041e-16 0)
(3 -9.08123e-16 0)
(3 -1.5021e-15 0)
(3 -1.82402e-15 0)
(3 -1.4779e-15 0)
(3 -1.73378e-15 0)
(3 -1.90003e-15 0)
(3 -1.66465e-15 0)
(3 -1.05086e-15 0)
(3 -7.28457e-16 0)
(3 -1.95403e-15 0)
(3 -2.35932e-15 0)
(3 -2.3382e-15 0)
(3 -9.77179e-16 0)
(3 1.77873e-16 0)
(3 1.10447e-15 0)
(3 2.54877e-15 0)
(3 3.82838e-15 0)
(3 -1.18137e-16 0)
(3 -2.38866e-16 0)
(3 -3.84316e-16 0)
(3 -2.51769e-16 0)
(3 -1.63219e-16 0)
(3 -4.66887e-17 0)
(3 -1.98149e-18 0)
(3 7.12368e-16 0)
(3 5.28206e-16 0)
(3 5.54061e-16 0)
(3 5.94815e-16 0)
(3 1.08605e-15 0)
(3 1.25017e-15 0)
(3 9.63562e-16 0)
(3 5.15793e-16 0)
(3 8.07596e-16 0)
(3 2.89506e-16 0)
(3 -3.10495e-16 0)
(3 1.75408e-16 0)
(3 7.29115e-16 0)
(3 1.44246e-15 0)
(3 2.17478e-15 0)
(3 1.86056e-15 0)
(3 2.0541e-15 0)
(3 2.10426e-15 0)
(3 1.894e-15 0)
(3 1.35468e-15 0)
(3 5.76894e-16 0)
(3 3.61136e-16 0)
(3 8.5007e-17 0)
(3 -1.2771e-16 0)
(3 1.82364e-16 0)
(3 4.44916e-16 0)
(3 8.13089e-16 0)
(3 1.04873e-15 0)
(3 8.89773e-16 0)
(3 5.7426e-16 0)
(3 8.54133e-17 0)
(3 -3.19941e-16 0)
(3 -1.03285e-15 0)
(3 -1.08477e-15 0)
(3 -8.77991e-16 0)
(3 -7.1538e-16 0)
(3 -1.54937e-15 0)
(3 -1.67389e-15 0)
(3 -1.72233e-15 0)
(3 -1.30189e-15 0)
(3 -1.32283e-15 0)
(3 -7.79518e-16 0)
(3 6.62573e-16 0)
(3 1.95545e-15 0)
(3 2.72957e-15 0)
(3 3.69104e-15 0)
(3 3.05245e-15 0)
(3 1.63471e-15 0)
(3 1.52268e-15 0)
(3 1.06986e-15 0)
(3 5.90298e-16 0)
(3 1.13689e-15 0)
(3 2.57851e-15 0)
(3 3.26779e-15 0)
(3 3.76601e-15 0)
(3 3.50898e-15 0)
(3 3.37858e-15 0)
(3 3.06709e-15 0)
(3 3.15571e-15 0)
(3 3.71997e-15 0)
(3 4.50147e-15 0)
(3 3.84966e-15 0)
(3 3.38056e-15 0)
(3 2.85985e-15 0)
(3 3.33446e-15 0)
(3 2.52791e-15 0)
(3 1.14017e-15 0)
(3 -4.43579e-16 0)
(3 -2.92685e-15 0)
(3 -2.92117e-15 0)
(3 -3.51383e-15 0)
(3 -3.27378e-15 0)
(3 -4.16332e-15 0)
(3 -4.1314e-15 0)
(3 -4.16637e-15 0)
(3 -4.31688e-15 0)
(3 -3.0544e-15 0)
(3 -1.27061e-15 0)
(3 2.12996e-15 0)
(3 1.85725e-15 0)
(3 1.63552e-15 0)
(3 7.64941e-16 0)
(3 1.95819e-15 0)
(3 3.23929e-15 0)
(3 2.91589e-15 0)
(3 2.82796e-15 0)
(3 2.51949e-15 0)
(3 3.15811e-15 0)
(3 4.41397e-15 0)
(3 -3.46541e-16 0)
(3 -8.23086e-16 0)
(3 -8.73495e-16 0)
(3 -3.10018e-16 0)
(3 -1.66132e-16 0)
(3 5.84065e-16 0)
(3 9.34477e-16 0)
(3 6.82659e-16 0)
(3 4.51981e-16 0)
(3 4.63842e-16 0)
(3 7.8778e-16 0)
(3 8.84939e-16 0)
(3 6.40099e-16 0)
(3 1.7231e-16 0)
(3 -5.09822e-16 0)
(3 -4.16704e-16 0)
(3 9.19683e-17 0)
(3 -9.68759e-16 0)
(3 -4.99023e-16 0)
(3 1.40907e-18 0)
(3 3.82471e-16 0)
(3 1.45218e-15 0)
(3 1.293e-15 0)
(3 1.86582e-15 0)
(3 1.34123e-15 0)
(3 -4.17387e-17 0)
(3 -3.71955e-16 0)
(3 -5.36667e-16 0)
(3 -8.88525e-16 0)
(3 -6.94805e-16 0)
(3 -9.39445e-16 0)
(3 -1.31485e-15 0)
(3 -1.41595e-15 0)
(3 -1.68364e-15 0)
(3 -1.14494e-15 0)
(3 -1.04254e-15 0)
(3 -1.27058e-15 0)
(3 -8.44934e-16 0)
(3 -8.44524e-16 0)
(3 -7.43136e-16 0)
(3 -7.59484e-17 0)
(3 -5.23941e-16 0)
(3 -8.78271e-16 0)
(3 -1.26428e-15 0)
(3 -9.04806e-16 0)
(3 -7.50684e-16 0)
(3 -1.30254e-15 0)
(3 -2.35832e-16 0)
(3 3.01107e-15 0)
(3 4.40847e-15 0)
(3 6.51005e-15 0)
(3 7.1006e-15 0)
(3 5.72206e-15 0)
(3 4.08351e-15 0)
(3 2.86496e-15 0)
(3 2.13638e-15 0)
(3 6.59254e-16 0)
(3 -3.34832e-16 0)
(3 -3.06791e-16 0)
(3 -2.78845e-16 0)
(3 5.00578e-16 0)
(3 1.80436e-15 0)
(3 2.98143e-15 0)
(3 3.4469e-15 0)
(3 3.64449e-15 0)
(3 3.79184e-15 0)
(3 4.08238e-15 0)
(3 4.82156e-15 0)
(3 4.96384e-15 0)
(3 5.3426e-15 0)
(3 5.25651e-15 0)
(3 3.88419e-15 0)
(3 1.2608e-15 0)
(3 -1.53075e-15 0)
(3 -2.93159e-15 0)
(3 -4.10805e-15 0)
(3 -4.66424e-15 0)
(3 -4.89316e-15 0)
(3 -5.92759e-15 0)
(3 -6.67853e-15 0)
(3 -6.97703e-15 0)
(3 -6.5821e-15 0)
(3 -5.04958e-15 0)
(3 -1.87136e-15 0)
(3 -6.0743e-16 0)
(3 -7.24106e-16 0)
(3 5.21173e-16 0)
(3 1.13628e-15 0)
(3 3.84032e-15 0)
(3 5.07005e-15 0)
(3 5.24328e-15 0)
(3 5.62453e-15 0)
(3 5.14821e-15 0)
(3 4.3954e-15 0)
(3 3.6203e-15 0)
(3 3.90683e-15 0)
(3 4.61524e-18 0)
(3 -2.87801e-16 0)
(3 -9.96916e-17 0)
(3 -6.84396e-17 0)
(3 -5.20144e-17 0)
(3 -1.8928e-16 0)
(3 -2.98207e-17 0)
(3 1.50839e-17 0)
(3 2.92649e-16 0)
(3 3.70825e-16 0)
(3 4.83498e-16 0)
(3 1.726e-16 0)
(3 -1.10768e-16 0)
(3 -3.84354e-16 0)
(3 -4.96782e-16 0)
(3 -6.02384e-16 0)
(3 -5.24271e-16 0)
(3 -4.56479e-16 0)
(3 -4.45537e-16 0)
(3 -4.53096e-16 0)
(3 -1.90046e-16 0)
(3 7.32241e-17 0)
(3 1.53161e-15 0)
(3 1.13995e-15 0)
(3 5.6504e-16 0)
(3 4.70588e-16 0)
(3 2.31726e-16 0)
(3 -3.20964e-16 0)
(3 -1.18766e-15 0)
(3 -2.10189e-15 0)
(3 -2.5067e-15 0)
(3 -2.67358e-15 0)
(3 -2.44872e-15 0)
(3 -2.58699e-15 0)
(3 -2.39992e-15 0)
(3 -2.13909e-15 0)
(3 -1.94976e-15 0)
(3 -1.62181e-15 0)
(3 -1.44745e-15 0)
(3 -5.09311e-16 0)
(3 -3.00959e-16 0)
(3 -5.21779e-16 0)
(3 -1.26248e-15 0)
(3 -2.19948e-15 0)
(3 -1.74768e-15 0)
(3 -1.25989e-15 0)
(3 -1.67423e-15 0)
(3 1.85348e-16 0)
(3 2.94792e-16 0)
(3 7.49248e-16 0)
(3 1.82667e-15 0)
(3 2.50843e-15 0)
(3 2.19083e-15 0)
(3 1.97611e-15 0)
(3 1.43787e-15 0)
(3 8.0434e-16 0)
(3 7.8006e-16 0)
(3 9.36495e-16 0)
(3 3.12495e-16 0)
(3 -8.80606e-16 0)
(3 -4.66544e-16 0)
(3 6.50906e-16 0)
(3 1.57768e-15 0)
(3 2.8104e-15 0)
(3 3.79482e-15 0)
(3 3.88544e-15 0)
(3 3.61312e-15 0)
(3 3.41086e-15 0)
(3 4.56524e-15 0)
(3 4.16722e-15 0)
(3 3.94165e-15 0)
(3 2.35671e-15 0)
(3 1.19922e-15 0)
(3 -1.4554e-15 0)
(3 -2.70724e-15 0)
(3 -3.79761e-15 0)
(3 -5.14537e-15 0)
(3 -4.79819e-15 0)
(3 -5.04892e-15 0)
(3 -6.75811e-15 0)
(3 -5.94995e-15 0)
(3 -4.06493e-15 0)
(3 -1.12206e-15 0)
(3 -2.66736e-16 0)
(3 3.66732e-16 0)
(3 8.0486e-16 0)
(3 1.88344e-15 0)
(3 2.92531e-15 0)
(3 5.25971e-15 0)
(3 5.93288e-15 0)
(3 6.56358e-15 0)
(3 7.04948e-15 0)
(3 6.64875e-15 0)
(3 5.94332e-15 0)
(3 5.44504e-15 0)
(3 4.87158e-15 0)
(3 1.91761e-16 0)
(3 -6.49979e-17 0)
(3 -5.6149e-16 0)
(3 -5.98451e-16 0)
(3 -5.53174e-16 0)
(3 -4.24666e-17 0)
(3 -1.48775e-16 0)
(3 1.96498e-17 0)
(3 3.44366e-16 0)
(3 4.75419e-16 0)
(3 1.94063e-16 0)
(3 -2.81696e-16 0)
(3 -1.55098e-15 0)
(3 -2.19618e-15 0)
(3 -1.55982e-15 0)
(3 -1.65682e-15 0)
(3 -1.79469e-15 0)
(3 -1.0914e-15 0)
(3 -4.38045e-16 0)
(3 -7.63438e-17 0)
(3 -7.41266e-16 0)
(3 -1.20749e-15 0)
(3 -4.86271e-16 0)
(3 -2.44054e-16 0)
(3 4.06173e-16 0)
(3 2.84462e-16 0)
(3 -5.8355e-16 0)
(3 -2.18381e-15 0)
(3 -2.60188e-15 0)
(3 -3.43253e-15 0)
(3 -3.32833e-15 0)
(3 -3.59404e-15 0)
(3 -3.25274e-15 0)
(3 -2.5371e-15 0)
(3 -1.55612e-15 0)
(3 -1.36647e-15 0)
(3 3.78002e-18 0)
(3 1.21131e-15 0)
(3 1.22298e-15 0)
(3 1.02137e-15 0)
(3 4.52892e-16 0)
(3 4.60454e-16 0)
(3 -6.22592e-16 0)
(3 -1.75953e-15 0)
(3 -1.18645e-15 0)
(3 3.72677e-16 0)
(3 1.32734e-15 0)
(3 1.66395e-15 0)
(3 1.38256e-15 0)
(3 9.72684e-16 0)
(3 4.73967e-16 0)
(3 1.14857e-16 0)
(3 -4.63468e-16 0)
(3 -4.26553e-17 0)
(3 7.2854e-17 0)
(3 -2.35932e-16 0)
(3 -3.86167e-16 0)
(3 -3.30989e-16 0)
(3 -7.01893e-16 0)
(3 -4.19893e-16 0)
(3 -2.85808e-16 0)
(3 -4.45839e-16 0)
(3 -1.46842e-15 0)
(3 3.30857e-17 0)
(3 3.11455e-15 0)
(3 3.89397e-15 0)
(3 3.19313e-15 0)
(3 1.10687e-15 0)
(3 1.83388e-15 0)
(3 1.86099e-15 0)
(3 1.64914e-15 0)
(3 1.19697e-15 0)
(3 1.10039e-15 0)
(3 -6.00479e-16 0)
(3 -2.95448e-15 0)
(3 -3.73556e-15 0)
(3 -5.29515e-15 0)
(3 -4.95387e-15 0)
(3 -4.14403e-15 0)
(3 -3.60625e-15 0)
(3 -2.13388e-15 0)
(3 4.94517e-16 0)
(3 1.3264e-15 0)
(3 1.94705e-15 0)
(3 2.59234e-15 0)
(3 2.37139e-15 0)
(3 2.60465e-15 0)
(3 3.23929e-15 0)
(3 3.90461e-15 0)
(3 5.8774e-15 0)
(3 6.01617e-15 0)
(3 6.10569e-15 0)
(3 5.46961e-15 0)
(3 5.92806e-15 0)
(3 7.39983e-15 0)
(3 7.39717e-15 0)
(3 2.19868e-17 0)
(3 1.34872e-16 0)
(3 -3.10669e-16 0)
(3 -7.08754e-16 0)
(3 -2.77151e-16 0)
(3 8.32616e-16 0)
(3 1.83966e-15 0)
(3 1.27279e-15 0)
(3 5.1588e-16 0)
(3 -2.35445e-16 0)
(3 -1.10434e-15 0)
(3 -1.55351e-15 0)
(3 -1.7681e-15 0)
(3 -1.77356e-15 0)
(3 -2.17883e-15 0)
(3 -2.29189e-15 0)
(3 -1.69387e-15 0)
(3 -7.67478e-16 0)
(3 -5.16163e-16 0)
(3 -8.90007e-16 0)
(3 -1.3318e-15 0)
(3 -1.96262e-15 0)
(3 -2.16358e-15 0)
(3 -1.10786e-15 0)
(3 -9.78508e-16 0)
(3 -1.19115e-15 0)
(3 -1.65151e-15 0)
(3 -2.15253e-15 0)
(3 -1.93085e-15 0)
(3 -1.60789e-15 0)
(3 -1.23688e-15 0)
(3 -1.97106e-15 0)
(3 -1.44863e-15 0)
(3 -7.50523e-16 0)
(3 -1.15412e-16 0)
(3 7.85646e-16 0)
(3 2.02608e-15 0)
(3 3.24151e-15 0)
(3 3.18387e-15 0)
(3 2.06393e-15 0)
(3 2.42273e-15 0)
(3 2.92897e-15 0)
(3 2.02659e-15 0)
(3 2.5893e-15 0)
(3 1.93442e-15 0)
(3 1.43708e-15 0)
(3 1.93864e-15 0)
(3 1.78682e-15 0)
(3 1.96315e-15 0)
(3 1.84824e-15 0)
(3 9.95246e-16 0)
(3 2.0936e-16 0)
(3 -7.00937e-16 0)
(3 -7.28171e-16 0)
(3 -3.71362e-16 0)
(3 -1.04148e-15 0)
(3 -1.49479e-15 0)
(3 -1.73852e-15 0)
(3 -1.17476e-15 0)
(3 1.06373e-16 0)
(3 1.67703e-16 0)
(3 -1.16661e-15 0)
(3 -2.29722e-15 0)
(3 -2.40668e-15 0)
(3 2.00227e-16 0)
(3 3.34172e-16 0)
(3 -5.51755e-17 0)
(3 -1.30186e-15 0)
(3 -2.26885e-15 0)
(3 -2.50345e-15 0)
(3 -2.64397e-15 0)
(3 -2.42696e-15 0)
(3 -2.02076e-15 0)
(3 -2.97943e-15 0)
(3 -3.38713e-15 0)
(3 -3.86852e-15 0)
(3 -1.98033e-15 0)
(3 -1.01107e-15 0)
(3 -5.54947e-17 0)
(3 1.53586e-15 0)
(3 3.20341e-15 0)
(3 3.75821e-15 0)
(3 3.45613e-15 0)
(3 2.6426e-15 0)
(3 2.28815e-15 0)
(3 2.06728e-15 0)
(3 1.91199e-15 0)
(3 1.54593e-15 0)
(3 1.16491e-15 0)
(3 1.15449e-15 0)
(3 8.23548e-16 0)
(3 1.30755e-15 0)
(3 2.08555e-15 0)
(3 3.68155e-15 0)
(3 5.07955e-15 0)
(3 4.67281e-15 0)
(3 -1.07939e-16 0)
(3 6.006e-16 0)
(3 9.66986e-16 0)
(3 1.09949e-15 0)
(3 1.32522e-15 0)
(3 6.23167e-16 0)
(3 4.98733e-16 0)
(3 1.84588e-16 0)
(3 -3.80285e-16 0)
(3 -1.28675e-15 0)
(3 -2.35276e-15 0)
(3 -2.66241e-15 0)
(3 -2.26618e-15 0)
(3 -2.25189e-15 0)
(3 -1.96899e-15 0)
(3 -1.80256e-15 0)
(3 -1.3372e-15 0)
(3 -1.33522e-15 0)
(3 -1.11074e-15 0)
(3 -1.38691e-15 0)
(3 -1.59211e-15 0)
(3 -1.51246e-15 0)
(3 -2.23358e-15 0)
(3 -2.18975e-15 0)
(3 -2.0304e-15 0)
(3 -2.14285e-15 0)
(3 -2.29763e-15 0)
(3 -1.23825e-15 0)
(3 -9.57284e-16 0)
(3 -9.49057e-16 0)
(3 -7.00109e-16 0)
(3 -9.20022e-17 0)
(3 -1.6911e-16 0)
(3 -1.00574e-17 0)
(3 4.95072e-16 0)
(3 1.14147e-15 0)
(3 1.59634e-15 0)
(3 1.70074e-15 0)
(3 1.94998e-15 0)
(3 1.75089e-15 0)
(3 2.12905e-15 0)
(3 2.85689e-15 0)
(3 3.38555e-15 0)
(3 3.83297e-15 0)
(3 3.5013e-15 0)
(3 3.77921e-15 0)
(3 2.796e-15 0)
(3 1.58117e-15 0)
(3 1.18978e-15 0)
(3 7.34723e-16 0)
(3 5.98838e-16 0)
(3 4.81056e-16 0)
(3 5.92952e-16 0)
(3 3.26014e-16 0)
(3 4.30185e-16 0)
(3 6.43079e-16 0)
(3 7.21779e-16 0)
(3 1.24565e-16 0)
(3 -3.63096e-16 0)
(3 -2.97123e-16 0)
(3 2.09376e-16 0)
(3 -1.24327e-15 0)
(3 -3.55044e-15 0)
(3 -4.84709e-15 0)
(3 -4.71331e-15 0)
(3 -3.82114e-15 0)
(3 -3.94365e-15 0)
(3 -4.01944e-15 0)
(3 -5.05792e-15 0)
(3 -6.5781e-15 0)
(3 -6.11936e-15 0)
(3 -4.90481e-15 0)
(3 -3.14291e-15 0)
(3 -2.57128e-15 0)
(3 -1.88345e-15 0)
(3 -1.58541e-15 0)
(3 9.96779e-16 0)
(3 3.17419e-15 0)
(3 4.69407e-15 0)
(3 4.98003e-15 0)
(3 4.55699e-15 0)
(3 4.24689e-15 0)
(3 3.4387e-15 0)
(3 1.39232e-15 0)
(3 4.01885e-16 0)
(3 -1.68821e-16 0)
(3 -7.32651e-16 0)
(3 -1.72055e-15 0)
(3 -2.40803e-15 0)
(3 -3.24431e-15 0)
(3 -2.96938e-15 0)
(3 -2.11382e-15 0)
(3 -1.44531e-15 0)
(3 1.65575e-15 0)
(3 2.23092e-15 0)
(3 4.24756e-15 0)
(3 7.80726e-17 0)
(3 3.53351e-18 0)
(3 5.12448e-16 0)
(3 1.20477e-15 0)
(3 1.29276e-15 0)
(3 1.07834e-15 0)
(3 -1.53892e-16 0)
(3 -4.9119e-16 0)
(3 -1.2216e-15 0)
(3 -1.51146e-15 0)
(3 -1.2406e-15 0)
(3 -1.50259e-15 0)
(3 -1.48396e-15 0)
(3 -1.59534e-15 0)
(3 -1.80331e-15 0)
(3 -1.63667e-15 0)
(3 -1.88997e-15 0)
(3 -1.54845e-15 0)
(3 -1.91445e-15 0)
(3 -2.85274e-15 0)
(3 -3.14969e-15 0)
(3 -3.3676e-15 0)
(3 -3.26006e-15 0)
(3 -3.2963e-15 0)
(3 -2.99301e-15 0)
(3 -2.5212e-15 0)
(3 -1.96654e-15 0)
(3 -1.76686e-15 0)
(3 -1.87821e-15 0)
(3 -1.88961e-15 0)
(3 -1.75993e-15 0)
(3 -1.51017e-16 0)
(3 1.46274e-15 0)
(3 2.07472e-15 0)
(3 1.27765e-15 0)
(3 7.51623e-16 0)
(3 -2.96363e-17 0)
(3 -2.24471e-16 0)
(3 5.74661e-16 0)
(3 1.42898e-15 0)
(3 1.68223e-15 0)
(3 1.65401e-15 0)
(3 2.37848e-15 0)
(3 3.03563e-15 0)
(3 3.75925e-15 0)
(3 3.89608e-15 0)
(3 4.47687e-15 0)
(3 4.86576e-15 0)
(3 5.33281e-15 0)
(3 4.6847e-15 0)
(3 4.56593e-15 0)
(3 4.00635e-15 0)
(3 3.90775e-15 0)
(3 3.42179e-15 0)
(3 3.2887e-15 0)
(3 3.454e-15 0)
(3 3.30907e-15 0)
(3 3.12647e-15 0)
(3 2.00219e-15 0)
(3 -3.98423e-16 0)
(3 -6.92387e-16 0)
(3 -2.16079e-15 0)
(3 -3.45469e-15 0)
(3 -3.40943e-15 0)
(3 -4.37483e-15 0)
(3 -4.52259e-15 0)
(3 -4.53404e-15 0)
(3 -4.22143e-15 0)
(3 -4.36574e-15 0)
(3 -3.99574e-15 0)
(3 -5.19335e-15 0)
(3 -5.1456e-15 0)
(3 -4.79999e-15 0)
(3 -4.16077e-15 0)
(3 -2.17883e-15 0)
(3 1.35629e-16 0)
(3 1.78253e-15 0)
(3 4.00591e-15 0)
(3 5.95553e-15 0)
(3 6.43229e-15 0)
(3 5.94107e-15 0)
(3 3.90122e-15 0)
(3 2.30262e-15 0)
(3 9.64068e-16 0)
(3 -4.90959e-17 0)
(3 -6.28179e-16 0)
(3 -7.95372e-16 0)
(3 -1.1615e-15 0)
(3 -2.16616e-15 0)
(3 -3.38692e-15 0)
(3 -3.345e-15 0)
(3 -2.71392e-15 0)
(3 -2.04408e-15 0)
(3 -1.48705e-15 0)
(3 -2.05606e-15 0)
(3 -1.21087e-16 0)
(3 -7.79835e-17 0)
(3 -3.15893e-16 0)
(3 -4.24676e-16 0)
(3 -3.84368e-16 0)
(3 -7.23184e-16 0)
(3 -3.57789e-16 0)
(3 1.65294e-16 0)
(3 1.35611e-16 0)
(3 -1.92131e-16 0)
(3 -9.31824e-16 0)
(3 -6.51003e-16 0)
(3 -6.66548e-16 0)
(3 -6.06287e-16 0)
(3 -3.73937e-16 0)
(3 -5.75296e-16 0)
(3 -8.68017e-16 0)
(3 -1.31502e-15 0)
(3 -1.46527e-15 0)
(3 -1.76491e-15 0)
(3 -1.69476e-15 0)
(3 -1.64084e-15 0)
(3 -1.43207e-15 0)
(3 -1.73727e-15 0)
(3 -2.12379e-15 0)
(3 -3.41026e-15 0)
(3 -3.43534e-15 0)
(3 -2.98218e-15 0)
(3 -1.89824e-15 0)
(3 -1.28178e-15 0)
(3 -8.44283e-16 0)
(3 -7.74357e-16 0)
(3 7.99345e-16 0)
(3 1.84934e-15 0)
(3 1.88011e-15 0)
(3 1.49528e-15 0)
(3 1.30849e-15 0)
(3 7.39854e-16 0)
(3 3.3007e-16 0)
(3 3.26942e-16 0)
(3 8.48206e-16 0)
(3 1.43727e-15 0)
(3 9.41498e-16 0)
(3 5.56013e-16 0)
(3 1.1796e-15 0)
(3 1.84299e-15 0)
(3 2.58863e-15 0)
(3 4.64342e-15 0)
(3 6.92775e-15 0)
(3 7.346e-15 0)
(3 7.96866e-15 0)
(3 6.75811e-15 0)
(3 5.90156e-15 0)
(3 5.21074e-15 0)
(3 4.48668e-15 0)
(3 3.82418e-15 0)
(3 2.60933e-15 0)
(3 2.0842e-15 0)
(3 1.77713e-15 0)
(3 1.57911e-15 0)
(3 5.1525e-16 0)
(3 -1.74959e-15 0)
(3 -3.18225e-15 0)