/*--------------------------------*- C++ -*----------------------------------*\
  =========                 |
  \\      /  F ield         | OpenFOAM: The Open Source CFD Toolbox
   \\    /   O peration     | Website:  https://openfoam.org
    \\  /    A nd           | Version:  7
     \\/     M anipulation  |
\*---------------------------------------------------------------------------*/
FoamFile
{
    version     2.0;
    format      ascii;
    class       volVectorField;
    location    "1.4";
    object      U;
}
// * * * * * * * * * * * * * * * * * * * * * * * * * * * * * * * * * * * * * //

dimensions      [0 1 -1 0 0 0 0];

internalField   nonuniform List<vector> 
73728
(
(3 1.05779e-17 0)
(3 1.56766e-16 0)
(3 -3.10852e-16 0)
(3 -5.59114e-16 0)
(3 -4.77211e-16 0)
(3 -3.92776e-16 0)
(3 -4.36011e-16 0)
(3 -4.66736e-16 0)
(3 -2.2976e-16 0)
(3 1.81887e-16 0)
(3 3.80145e-16 0)
(3 8.26203e-16 0)
(3 4.44989e-16 0)
(3 5.70947e-16 0)
(3 1.07525e-16 0)
(3 -7.68665e-16 0)
(3 -6.24266e-16 0)
(3 -3.74413e-16 0)
(3 -9.37569e-16 0)
(3 -1.02843e-15 0)
(3 -1.18272e-15 0)
(3 -1.1312e-15 0)
(3 -1.98229e-15 0)
(3 -9.20539e-16 0)
(3 -2.90454e-16 0)
(3 -6.96148e-17 0)
(3 -4.67397e-18 0)
(3 9.91474e-17 0)
(3 -1.12664e-16 0)
(3 -6.34859e-16 0)
(3 -2.11075e-15 0)
(3 -1.59819e-15 0)
(3 -8.03129e-16 0)
(3 -6.82027e-16 0)
(3 -4.87928e-16 0)
(3 -5.79892e-16 0)
(3 -5.20048e-16 0)
(3 1.92597e-16 0)
(3 1.24902e-15 0)
(3 1.87967e-15 0)
(3 1.44028e-15 0)
(3 3.22193e-17 0)
(3 -4.57296e-16 0)
(3 -3.77542e-16 0)
(3 2.79754e-16 0)
(3 1.07606e-15 0)
(3 7.40285e-17 0)
(3 -4.62834e-16 0)
(3 -5.95803e-16 0)
(3 -3.54089e-16 0)
(3 -1.20515e-16 0)
(3 -1.44697e-16 0)
(3 -2.13934e-16 0)
(3 2.71865e-16 0)
(3 2.47741e-16 0)
(3 1.26857e-16 0)
(3 1.05985e-16 0)
(3 -8.99638e-17 0)
(3 2.7208e-17 0)
(3 2.90164e-16 0)
(3 6.09434e-16 0)
(3 1.79647e-16 0)
(3 -1.31497e-16 0)
(3 3.08974e-16 0)
(3 5.41982e-16 0)
(3 5.84268e-16 0)
(3 -5.78097e-16 0)
(3 -7.57093e-16 0)
(3 -7.31215e-16 0)
(3 -7.65604e-16 0)
(3 -8.96627e-17 0)
(3 2.83458e-16 0)
(3 -1.03429e-16 0)
(3 -7.97473e-16 0)
(3 -1.10732e-15 0)
(3 -1.69291e-15 0)
(3 -1.79848e-15 0)
(3 -1.67652e-15 0)
(3 -1.93932e-15 0)
(3 -1.37705e-15 0)
(3 -3.8667e-16 0)
(3 1.92093e-16 0)
(3 4.07369e-16 0)
(3 6.79901e-16 0)
(3 1.16333e-15 0)
(3 1.97851e-15 0)
(3 2.22827e-15 0)
(3 -6.72331e-16 0)
(3 -1.50327e-15 0)
(3 -2.89103e-16 0)
(3 6.01423e-16 0)
(3 9.59601e-16 0)
(3 9.72364e-16 0)
(3 6.7132e-16 0)
(3 3.41756e-16 0)
(3 3.42832e-16 0)
(3 -1.70829e-17 0)
(3 -1.76717e-16 0)
(3 -1.08699e-15 0)
(3 -1.84232e-15 0)
(3 -1.96933e-15 0)
(3 -1.83477e-15 0)
(3 -1.4866e-15 0)
(3 -1.23209e-15 0)
(3 -6.21935e-16 0)
(3 -5.78609e-17 0)
(3 -1.59907e-16 0)
(3 1.02216e-16 0)
(3 -8.59421e-16 0)
(3 -1.10021e-15 0)
(3 -1.43425e-15 0)
(3 -8.9981e-16 0)
(3 3.08081e-16 0)
(3 1.03153e-15 0)
(3 -5.80859e-16 0)
(3 -4.52589e-16 0)
(3 -4.50099e-16 0)
(3 -1.66282e-15 0)
(3 -2.85705e-15 0)
(3 -2.97734e-15 0)
(3 -3.18528e-15 0)
(3 -2.04831e-15 0)
(3 -9.48008e-16 0)
(3 -6.65073e-16 0)
(3 -4.35006e-16 0)
(3 -7.93937e-16 0)
(3 -1.56136e-15 0)
(3 -1.96662e-15 0)
(3 -1.10386e-15 0)
(3 -3.20908e-16 0)
(3 6.60406e-17 0)
(3 -3.99133e-16 0)
(3 -9.30514e-17 0)
(3 9.39932e-16 0)
(3 2.1311e-15 0)
(3 2.23719e-15 0)
(3 1.76698e-15 0)
(3 4.23741e-16 0)
(3 7.01939e-17 0)
(3 -4.23668e-16 0)
(3 -4.19028e-16 0)
(3 1.25455e-16 0)
(3 7.08016e-18 0)
(3 -3.97329e-16 0)
(3 -5.48168e-16 0)
(3 -4.81485e-16 0)
(3 6.35399e-17 0)
(3 7.00978e-16 0)
(3 1.02815e-15 0)
(3 1.43976e-15 0)
(3 1.24038e-15 0)
(3 8.98502e-16 0)
(3 7.96724e-16 0)
(3 -2.58134e-16 0)
(3 1.59639e-16 0)
(3 9.2728e-16 0)
(3 1.08853e-15 0)
(3 3.89595e-17 0)
(3 -5.10726e-16 0)
(3 1.3751e-15 0)
(3 1.5564e-15 0)
(3 6.63562e-16 0)
(3 -6.59648e-16 0)
(3 -2.12392e-15 0)
(3 -2.02871e-15 0)
(3 -1.40211e-15 0)
(3 -3.61407e-16 0)
(3 5.43545e-16 0)
(3 2.60339e-16 0)
(3 -1.3274e-15 0)
(3 -2.36535e-15 0)
(3 -2.24668e-15 0)
(3 -2.16269e-15 0)
(3 -1.77413e-15 0)
(3 -1.74126e-15 0)
(3 -1.21217e-15 0)
(3 2.0783e-16 0)
(3 1.23537e-15 0)
(3 2.31662e-15 0)
(3 2.70632e-15 0)
(3 2.73718e-15 0)
(3 2.83896e-15 0)
(3 1.97902e-15 0)
(3 -1.8557e-15 0)
(3 -2.03936e-15 0)
(3 -1.67785e-15 0)
(3 -4.38395e-16 0)
(3 8.67606e-16 0)
(3 1.59433e-15 0)
(3 1.95526e-15 0)
(3 1.53815e-15 0)
(3 5.72e-16 0)
(3 -2.96088e-16 0)
(3 -5.61042e-16 0)
(3 -6.79436e-16 0)
(3 -7.96235e-16 0)
(3 -1.48373e-15 0)
(3 -1.81107e-15 0)
(3 -9.77845e-16 0)
(3 -5.6572e-16 0)
(3 -8.30587e-16 0)
(3 -1.3243e-15 0)
(3 -1.71065e-15 0)
(3 -2.47039e-15 0)
(3 -2.54862e-15 0)
(3 -1.94638e-15 0)
(3 -1.58e-15 0)
(3 -5.9442e-16 0)
(3 1.54517e-15 0)
(3 3.53464e-15 0)
(3 3.3894e-15 0)
(3 2.14046e-15 0)
(3 1.82993e-15 0)
(3 -5.66676e-16 0)
(3 -1.71256e-15 0)
(3 -2.67814e-15 0)
(3 -4.37749e-15 0)
(3 -4.69522e-15 0)
(3 -2.53972e-15 0)
(3 -3.31259e-16 0)
(3 -1.08026e-16 0)
(3 5.27178e-16 0)
(3 1.45658e-16 0)
(3 -7.17447e-16 0)
(3 1.90009e-16 0)
(3 5.30013e-16 0)
(3 -1.93828e-16 0)
(3 -1.45031e-16 0)
(3 5.33774e-16 0)
(3 3.50399e-16 0)
(3 8.6448e-16 0)
(3 1.61068e-15 0)
(3 1.86798e-15 0)
(3 8.84351e-16 0)
(3 1.2154e-16 0)
(3 -1.15523e-15 0)
(3 -1.52268e-15 0)
(3 -1.53377e-15 0)
(3 -1.36022e-15 0)
(3 -5.08203e-16 0)
(3 -1.87712e-16 0)
(3 2.76594e-16 0)
(3 8.34464e-16 0)
(3 1.51e-15 0)
(3 2.14028e-15 0)
(3 2.58432e-15 0)
(3 1.8594e-15 0)
(3 4.85663e-16 0)
(3 -2.45083e-16 0)
(3 8.35735e-16 0)
(3 1.03877e-15 0)
(3 2.32383e-15 0)
(3 3.04839e-15 0)
(3 3.0417e-15 0)
(3 1.08605e-15 0)
(3 5.36807e-16 0)
(3 -1.39295e-17 0)
(3 -1.0258e-15 0)
(3 -2.41087e-15 0)
(3 -3.14421e-15 0)
(3 -2.36346e-15 0)
(3 -1.9263e-15 0)
(3 -1.71155e-15 0)
(3 -9.86892e-16 0)
(3 -4.03648e-16 0)
(3 2.00495e-16 0)
(3 7.37594e-16 0)
(3 4.9086e-16 0)
(3 4.22896e-16 0)
(3 -1.4787e-16 0)
(3 -8.45889e-16 0)
(3 -1.28826e-15 0)
(3 -1.38169e-15 0)
(3 -1.01772e-15 0)
(3 3.581e-16 0)
(3 7.13274e-16 0)
(3 9.1372e-16 0)
(3 9.89494e-16 0)
(3 -1.16465e-15 0)
(3 -2.57971e-15 0)
(3 -1.67563e-15 0)
(3 -1.46677e-15 0)
(3 -8.98025e-16 0)
(3 -7.69246e-18 0)
(3 2.39351e-15 0)
(3 3.03537e-15 0)
(3 3.88739e-15 0)
(3 2.78802e-15 0)
(3 -1.93423e-16 0)
(3 -1.92991e-16 0)
(3 3.61208e-17 0)
(3 2.90322e-16 0)
(3 2.45759e-16 0)
(3 -3.43985e-16 0)
(3 -5.29659e-16 0)
(3 -6.37662e-16 0)
(3 -1.05733e-15 0)
(3 -1.27002e-15 0)
(3 -9.51717e-16 0)
(3 -7.31786e-16 0)
(3 -7.19073e-16 0)
(3 -3.88965e-16 0)
(3 8.34764e-16 0)
(3 5.95417e-16 0)
(3 9.88632e-16 0)
(3 2.3173e-15 0)
(3 3.58449e-15 0)
(3 2.40845e-15 0)
(3 1.76971e-15 0)
(3 1.47386e-15 0)
(3 -9.68892e-16 0)
(3 -2.06396e-15 0)
(3 -2.7527e-15 0)
(3 -2.77414e-15 0)
(3 -2.33803e-15 0)
(3 -1.65034e-15 0)
(3 -1.03708e-15 0)
(3 -1.30141e-16 0)
(3 9.17745e-17 0)
(3 3.5138e-16 0)
(3 7.73367e-16 0)
(3 1.09814e-15 0)
(3 9.15612e-16 0)
(3 1.51083e-15 0)
(3 1.56821e-15 0)
(3 1.75793e-15 0)
(3 2.13346e-15 0)
(3 1.71502e-15 0)
(3 8.04822e-16 0)
(3 4.02973e-16 0)
(3 -1.21996e-15 0)
(3 -1.73132e-15 0)
(3 -1.65379e-15 0)
(3 -1.49287e-15 0)
(3 -1.07197e-15 0)
(3 -5.97044e-16 0)
(3 1.57371e-16 0)
(3 1.6522e-15 0)
(3 1.12737e-15 0)
(3 4.50916e-16 0)
(3 4.43111e-16 0)
(3 3.32221e-16 0)
(3 -1.08238e-16 0)
(3 -7.68254e-16 0)
(3 -1.81829e-16 0)
(3 1.12565e-15 0)
(3 2.48633e-15 0)
(3 3.30359e-15 0)
(3 4.84381e-15 0)
(3 5.85337e-15 0)
(3 5.53506e-15 0)
(3 4.38269e-15 0)
(3 2.74987e-15 0)
(3 4.73113e-16 0)
(3 -1.0624e-16 0)
(3 -1.35393e-16 0)
(3 -1.19179e-15 0)
(3 -1.847e-15 0)
(3 -2.11818e-15 0)
(3 -1.78362e-15 0)
(3 -1.99597e-15 0)
(3 -1.77466e-15 0)
(3 -1.68914e-15 0)
(3 -9.49702e-16 0)
(3 -3.29333e-16 0)
(3 -1.37023e-15 0)
(3 -1.74615e-15 0)
(3 -1.73695e-15 0)
(3 -2.10104e-15 0)
(3 -2.9041e-15 0)
(3 -2.9988e-15 0)
(3 -1.69647e-15 0)
(3 -1.01443e-15 0)
(3 -7.7073e-16 0)
(3 -3.55094e-16 0)
(3 1.35093e-16 0)
(3 8.5075e-16 0)
(3 8.53125e-16 0)
(3 6.00209e-16 0)
(3 -6.08239e-16 0)
(3 -5.66098e-16 0)
(3 2.25698e-16 0)
(3 2.20222e-15 0)
(3 2.62498e-15 0)
(3 -2.54678e-17 0)
(3 1.91858e-16 0)
(3 3.01143e-16 0)
(3 3.9093e-16 0)
(3 1.3009e-15 0)
(3 1.33158e-15 0)
(3 -4.50612e-16 0)
(3 -4.64159e-16 0)
(3 -7.37219e-16 0)
(3 -1.2906e-15 0)
(3 -1.22648e-15 0)
(3 -8.36134e-16 0)
(3 -6.29215e-16 0)
(3 -2.22554e-16 0)
(3 1.35833e-15 0)
(3 2.08546e-15 0)
(3 1.50824e-15 0)
(3 5.96102e-16 0)
(3 2.32352e-17 0)
(3 1.57947e-16 0)
(3 8.17293e-16 0)
(3 1.20112e-15 0)
(3 3.82724e-17 0)
(3 -1.04907e-15 0)
(3 -1.22801e-15 0)
(3 -1.09053e-15 0)
(3 -1.28716e-15 0)
(3 -2.18269e-15 0)
(3 -1.64845e-15 0)
(3 5.53749e-16 0)
(3 1.49185e-15 0)
(3 1.90386e-15 0)
(3 1.96483e-15 0)
(3 1.15462e-15 0)
(3 1.09592e-15 0)
(3 8.96353e-16 0)
(3 1.22872e-15 0)
(3 2.12875e-15 0)
(3 2.0154e-15 0)
(3 1.53409e-15 0)
(3 6.08302e-16 0)
(3 8.96456e-16 0)
(3 1.43571e-15 0)
(3 1.99963e-15 0)
(3 1.57429e-15 0)
(3 8.07819e-16 0)
(3 4.77451e-16 0)
(3 -8.73438e-17 0)
(3 1.43477e-15 0)
(3 1.59122e-15 0)
(3 1.36614e-15 0)
(3 1.93544e-15 0)
(3 1.3167e-15 0)
(3 1.19744e-16 0)
(3 1.93881e-17 0)
(3 1.99243e-17 0)
(3 5.26713e-16 0)
(3 3.91943e-16 0)
(3 8.48088e-17 0)
(3 2.12385e-15 0)
(3 3.12562e-15 0)
(3 3.92333e-15 0)
(3 4.62454e-15 0)
(3 4.18616e-15 0)
(3 3.47282e-15 0)
(3 2.2722e-15 0)
(3 3.22711e-15 0)
(3 4.59505e-15 0)
(3 2.57279e-15 0)
(3 -2.65277e-16 0)
(3 -1.71298e-15 0)
(3 -2.67575e-15 0)
(3 -3.15122e-15 0)
(3 -3.00863e-15 0)
(3 -2.65178e-15 0)
(3 -2.28356e-15 0)
(3 -2.59808e-15 0)
(3 -2.87709e-15 0)
(3 -2.37564e-15 0)
(3 -9.76088e-16 0)
(3 -1.29873e-15 0)
(3 -1.24103e-15 0)
(3 -1.76973e-15 0)
(3 -2.78416e-15 0)
(3 -3.62539e-15 0)
(3 -3.08117e-15 0)
(3 -1.61215e-15 0)
(3 -5.40164e-16 0)
(3 -4.44743e-16 0)
(3 -6.20648e-17 0)
(3 -5.65378e-17 0)
(3 -1.1666e-17 0)
(3 -1.47076e-16 0)
(3 3.87219e-16 0)
(3 6.21269e-16 0)
(3 5.55108e-16 0)
(3 -1.71118e-16 0)
(3 8.81274e-17 0)
(3 4.65481e-16 0)
(3 5.30791e-16 0)
(3 7.81849e-16 0)
(3 4.55228e-16 0)
(3 5.62778e-16 0)
(3 1.12637e-15 0)
(3 4.62713e-16 0)
(3 -9.94359e-17 0)
(3 -8.24578e-16 0)
(3 -1.34511e-15 0)
(3 -4.49663e-16 0)
(3 7.71121e-16 0)
(3 9.64286e-16 0)
(3 2.08949e-15 0)
(3 2.03624e-15 0)
(3 1.51051e-15 0)
(3 8.43159e-16 0)
(3 7.94289e-16 0)
(3 1.74827e-15 0)
(3 1.32004e-15 0)
(3 6.12775e-16 0)
(3 -1.84466e-16 0)
(3 -3.17205e-17 0)
(3 -3.47471e-16 0)
(3 -1.10927e-15 0)
(3 -9.77241e-16 0)
(3 1.97778e-16 0)
(3 6.76401e-16 0)
(3 6.89878e-16 0)
(3 2.16627e-16 0)
(3 -5.43907e-17 0)
(3 -2.01262e-17 0)
(3 -3.28076e-16 0)
(3 -6.70226e-16 0)
(3 -8.87425e-16 0)
(3 1.10187e-16 0)
(3 7.39949e-16 0)
(3 1.08315e-15 0)
(3 1.57412e-15 0)
(3 1.842e-15 0)
(3 2.01173e-15 0)
(3 2.56783e-15 0)
(3 1.61505e-15 0)
(3 2.61492e-16 0)
(3 -3.62398e-16 0)
(3 -7.3047e-16 0)
(3 -6.40455e-16 0)
(3 -2.67428e-16 0)
(3 7.04592e-16 0)
(3 1.92059e-15 0)
(3 2.18666e-15 0)
(3 1.52369e-15 0)
(3 1.06072e-15 0)
(3 9.97973e-16 0)
(3 1.33759e-15 0)
(3 -2.42482e-16 0)
(3 -8.48735e-16 0)
(3 -8.98444e-16 0)
(3 -6.95164e-16 0)
(3 6.72881e-16 0)
(3 1.83127e-15 0)
(3 2.83344e-15 0)
(3 3.03625e-15 0)
(3 3.3752e-15 0)
(3 4.23381e-15 0)
(3 3.78969e-15 0)
(3 2.39202e-15 0)
(3 1.30834e-15 0)
(3 -4.03439e-16 0)
(3 -1.64262e-15 0)
(3 -1.8716e-15 0)
(3 -2.06276e-15 0)
(3 -1.52193e-15 0)
(3 -1.08882e-15 0)
(3 -1.59949e-15 0)
(3 -8.2923e-16 0)
(3 1.34939e-16 0)
(3 2.21734e-16 0)
(3 1.39459e-15 0)
(3 1.46936e-15 0)
(3 3.14602e-16 0)
(3 -3.17148e-15 0)
(3 -3.81547e-15 0)
(3 -3.8466e-15 0)
(3 -3.01631e-15 0)
(3 -1.98362e-15 0)
(3 -2.19952e-15 0)
(3 -7.66086e-16 0)
(3 4.21639e-16 0)
(3 1.19e-15 0)
(3 2.13996e-15 0)
(3 2.40872e-15 0)
(3 7.76772e-16 0)
(3 2.74819e-16 0)
(3 2.43062e-17 0)
(3 1.17469e-16 0)
(3 3.70703e-16 0)
(3 2.7198e-16 0)
(3 6.40365e-17 0)
(3 -2.23341e-16 0)
(3 1.15211e-16 0)
(3 3.8981e-16 0)
(3 2.14851e-16 0)
(3 2.61411e-16 0)
(3 -3.27364e-16 0)
(3 -1.0164e-15 0)
(3 4.30231e-16 0)
(3 1.34852e-15 0)
(3 1.53263e-15 0)
(3 1.03202e-15 0)
(3 1.74512e-15 0)
(3 1.73061e-15 0)
(3 1.42386e-15 0)
(3 1.28601e-15 0)
(3 7.87118e-16 0)
(3 4.1887e-16 0)
(3 4.04868e-16 0)
(3 8.26538e-16 0)
(3 8.23503e-16 0)
(3 -1.8214e-18 0)
(3 -1.1861e-15 0)
(3 -5.90016e-16 0)
(3 -1.24037e-16 0)
(3 7.29833e-17 0)
(3 -3.12852e-16 0)
(3 -1.25987e-15 0)
(3 -1.24704e-15 0)
(3 -1.23694e-15 0)
(3 -1.27054e-15 0)
(3 -1.38319e-15 0)
(3 -1.54242e-15 0)
(3 -1.23602e-15 0)
(3 -9.745e-16 0)
(3 1.7843e-15 0)
(3 3.98835e-15 0)
(3 3.91836e-15 0)
(3 3.18142e-15 0)
(3 2.49625e-15 0)
(3 1.7215e-15 0)
(3 -3.40156e-16 0)
(3 -1.73402e-15 0)
(3 -2.56546e-15 0)
(3 -2.96054e-15 0)
(3 -2.34979e-15 0)
(3 -1.12356e-15 0)
(3 7.39051e-16 0)
(3 9.80401e-16 0)
(3 1.64478e-15 0)
(3 1.58071e-15 0)
(3 1.32309e-15 0)
(3 -2.62321e-16 0)
(3 -3.08595e-16 0)
(3 1.32555e-16 0)
(3 -1.14061e-16 0)
(3 -3.7784e-16 0)
(3 -4.74256e-16 0)
(3 -2.49545e-16 0)
(3 2.02221e-16 0)
(3 1.55111e-15 0)
(3 2.06697e-15 0)
(3 2.08586e-15 0)
(3 1.2491e-15 0)
(3 1.16763e-15 0)
(3 1.1012e-15 0)
(3 8.67534e-16 0)
(3 4.06126e-16 0)
(3 -4.94177e-16 0)
(3 1.37061e-17 0)
(3 7.67688e-16 0)
(3 1.38429e-15 0)
(3 1.2681e-15 0)
(3 1.10218e-15 0)
(3 1.58327e-15 0)
(3 2.14395e-15 0)
(3 2.71e-15 0)
(3 7.11509e-17 0)
(3 -7.90593e-16 0)
(3 -1.53067e-15 0)
(3 -2.61504e-15 0)
(3 -2.67074e-15 0)
(3 -1.71029e-15 0)
(3 -1.69678e-15 0)
(3 -2.25154e-15 0)
(3 -1.63914e-15 0)
(3 6.61319e-16 0)
(3 1.52936e-15 0)
(3 1.82602e-15 0)
(3 1.94318e-15 0)
(3 1.98922e-15 0)
(3 2.01651e-15 0)
(3 3.48483e-16 0)
(3 2.89255e-16 0)
(3 -1.38531e-16 0)
(3 -1.17417e-16 0)
(3 -3.18332e-16 0)
(3 -3.85325e-16 0)
(3 -7.21798e-16 0)
(3 -9.75285e-16 0)
(3 -1.65842e-16 0)
(3 -4.00398e-16 0)
(3 -4.07522e-16 0)
(3 1.2842e-16 0)
(3 2.22582e-15 0)
(3 2.72669e-15 0)
(3 2.5089e-15 0)
(3 1.85253e-15 0)
(3 1.39614e-15 0)
(3 1.80072e-15 0)
(3 2.09513e-15 0)
(3 2.11138e-15 0)
(3 9.24053e-16 0)
(3 -1.06249e-16 0)
(3 -8.37768e-17 0)
(3 1.47811e-17 0)
(3 -1.02403e-16 0)
(3 -6.43103e-16 0)
(3 -8.30133e-16 0)
(3 -8.84177e-16 0)
(3 -4.39276e-16 0)
(3 -3.11495e-16 0)
(3 -6.05142e-16 0)
(3 1.31089e-16 0)
(3 2.55727e-16 0)
(3 -5.21121e-16 0)
(3 -1.53188e-15 0)
(3 -9.6714e-16 0)
(3 -7.49299e-16 0)
(3 -6.37184e-16 0)
(3 -2.79478e-16 0)
(3 3.83501e-16 0)
(3 1.78821e-15 0)
(3 2.71446e-15 0)
(3 2.44271e-15 0)
(3 1.53477e-15 0)
(3 6.71319e-16 0)
(3 3.50707e-16 0)
(3 2.73889e-16 0)
(3 4.08902e-16 0)
(3 5.18623e-16 0)
(3 9.6618e-16 0)
(3 1.53399e-15 0)
(3 1.532e-15 0)
(3 1.65987e-15 0)
(3 1.99557e-15 0)
(3 2.25836e-15 0)
(3 2.01044e-15 0)
(3 7.8158e-16 0)
(3 5.88923e-16 0)
(3 4.71561e-16 0)
(3 7.92717e-16 0)
(3 9.72999e-16 0)
(3 1.8092e-16 0)
(3 -5.55786e-16 0)
(3 -5.1079e-16 0)
(3 -1.68513e-16 0)
(3 -2.56801e-16 0)
(3 -1.40453e-15 0)
(3 -7.704e-16 0)
(3 2.36988e-16 0)
(3 1.55495e-16 0)
(3 1.03772e-15 0)
(3 1.36817e-15 0)
(3 1.01896e-15 0)
(3 1.35833e-15 0)
(3 2.38359e-15 0)
(3 2.76222e-15 0)
(3 3.40243e-15 0)
(3 2.86441e-15 0)
(3 1.71498e-15 0)
(3 1.89461e-15 0)
(3 2.15563e-15 0)
(3 -3.36682e-16 0)
(3 -2.09336e-15 0)
(3 -3.90349e-15 0)
(3 -4.37568e-15 0)
(3 -4.00799e-15 0)
(3 -2.80639e-15 0)
(3 -1.82753e-15 0)
(3 -1.47287e-15 0)
(3 -4.81397e-16 0)
(3 4.77321e-16 0)
(3 1.29037e-15 0)
(3 1.23106e-15 0)
(3 1.28857e-15 0)
(3 2.19504e-15 0)
(3 3.64356e-15 0)
(3 1.55858e-17 0)
(3 -3.75538e-16 0)
(3 -1.03167e-16 0)
(3 -1.84914e-17 0)
(3 -2.41347e-16 0)
(3 -5.18327e-16 0)
(3 -3.69124e-16 0)
(3 -6.52948e-16 0)
(3 -7.16947e-16 0)
(3 -2.07548e-16 0)
(3 3.40956e-16 0)
(3 1.61399e-15 0)
(3 1.99466e-15 0)
(3 8.81878e-16 0)
(3 9.71572e-16 0)
(3 2.08909e-15 0)
(3 2.03362e-15 0)
(3 2.73311e-15 0)
(3 3.2294e-15 0)
(3 2.92481e-15 0)
(3 2.1912e-15 0)
(3 1.27547e-15 0)
(3 7.61238e-16 0)
(3 -8.41836e-16 0)
(3 -2.17622e-15 0)
(3 -2.55575e-15 0)
(3 -1.61061e-15 0)
(3 -1.40237e-15 0)
(3 -1.25248e-15 0)
(3 -1.03169e-15 0)
(3 1.77102e-16 0)
(3 9.2337e-16 0)
(3 5.99904e-16 0)
(3 5.33219e-16 0)
(3 3.22671e-16 0)
(3 1.17087e-15 0)
(3 1.98423e-15 0)
(3 2.31653e-15 0)
(3 2.44679e-15 0)
(3 1.65561e-15 0)
(3 2.03049e-16 0)
(3 3.55417e-16 0)
(3 7.42348e-16 0)
(3 8.88468e-16 0)
(3 5.23841e-16 0)
(3 1.20809e-16 0)
(3 2.10141e-15 0)
(3 2.47523e-15 0)
(3 2.27333e-15 0)
(3 2.75506e-15 0)
(3 2.77158e-15 0)
(3 2.1252e-15 0)
(3 1.73441e-15 0)
(3 1.66189e-15 0)
(3 1.34142e-15 0)
(3 1.0261e-15 0)
(3 1.9464e-15 0)
(3 3.91454e-17 0)
(3 -8.73446e-16 0)
(3 -1.6024e-15 0)
(3 -1.78201e-15 0)
(3 -1.65497e-15 0)
(3 -1.7293e-15 0)
(3 -1.6172e-15 0)
(3 -1.29306e-15 0)
(3 -1.56245e-15 0)
(3 -1.75522e-15 0)
(3 -2.11262e-16 0)
(3 1.70158e-15 0)
(3 2.84816e-15 0)
(3 4.32693e-15 0)
(3 5.12747e-15 0)
(3 4.66377e-15 0)
(3 2.97797e-15 0)
(3 2.00718e-15 0)
(3 2.46717e-15 0)
(3 4.15886e-15 0)
(3 4.49566e-15 0)
(3 3.78896e-15 0)
(3 2.58255e-15 0)
(3 2.04422e-15 0)
(3 1.6159e-16 0)
(3 -1.34108e-15 0)
(3 -2.36053e-15 0)
(3 -2.2857e-15 0)
(3 -2.12477e-15 0)
(3 -1.5416e-15 0)
(3 -5.93441e-16 0)
(3 2.72127e-16 0)
(3 6.43519e-16 0)
(3 4.39501e-16 0)
(3 7.49859e-16 0)
(3 1.04787e-15 0)
(3 1.40645e-15 0)
(3 3.03525e-15 0)
(3 3.93406e-15 0)
(3 -9.93194e-17 0)
(3 -1.23109e-16 0)
(3 -2.01647e-16 0)
(3 -5.32362e-16 0)
(3 -2.57242e-16 0)
(3 3.46272e-16 0)
(3 1.04363e-15 0)
(3 1.05923e-15 0)
(3 8.15385e-16 0)
(3 8.8264e-16 0)
(3 1.11819e-15 0)
(3 5.16232e-16 0)
(3 -5.3122e-16 0)
(3 -6.21592e-16 0)
(3 8.82638e-18 0)
(3 1.38178e-17 0)
(3 2.71931e-16 0)
(3 5.13263e-16 0)
(3 1.09859e-15 0)
(3 1.10282e-15 0)
(3 7.92348e-16 0)
(3 6.85774e-16 0)
(3 9.27271e-16 0)
(3 2.3331e-16 0)
(3 2.44376e-16 0)
(3 2.71602e-16 0)
(3 -1.39195e-16 0)
(3 -8.46206e-16 0)
(3 -1.62853e-15 0)
(3 -1.14004e-15 0)
(3 3.7567e-16 0)
(3 1.69204e-15 0)
(3 2.36325e-15 0)
(3 2.50583e-15 0)
(3 2.70503e-15 0)
(3 2.59515e-15 0)
(3 2.74969e-15 0)
(3 3.15052e-15 0)
(3 1.19319e-15 0)
(3 -6.79682e-16 0)
(3 -1.19029e-15 0)
(3 -1.30681e-15 0)
(3 -7.40104e-16 0)
(3 7.84645e-17 0)
(3 1.13959e-15 0)
(3 1.58531e-15 0)
(3 1.28916e-15 0)
(3 1.7845e-15 0)
(3 1.92642e-15 0)
(3 1.55715e-15 0)
(3 1.27946e-15 0)
(3 1.02482e-15 0)
(3 3.98105e-16 0)
(3 -4.44144e-16 0)
(3 3.21678e-16 0)
(3 -1.25009e-16 0)
(3 -7.0908e-16 0)
(3 -2.00007e-15 0)
(3 -2.27089e-15 0)
(3 -3.29775e-15 0)
(3 -4.0725e-15 0)
(3 -3.95454e-15 0)
(3 -3.88026e-15 0)
(3 -4.02645e-15 0)
(3 -3.80355e-15 0)
(3 -2.04576e-15 0)
(3 -9.10329e-16 0)
(3 5.52591e-16 0)
(3 8.38542e-16 0)
(3 9.51909e-16 0)
(3 1.36681e-15 0)
(3 3.38246e-15 0)
(3 3.56902e-15 0)
(3 3.54265e-15 0)
(3 3.38471e-15 0)
(3 3.35901e-15 0)
(3 3.56306e-15 0)
(3 3.75947e-15 0)
(3 2.97448e-15 0)
(3 2.45217e-15 0)
(3 1.4302e-15 0)
(3 3.00215e-16 0)
(3 -8.91774e-17 0)
(3 -2.16764e-16 0)
(3 -6.69212e-17 0)
(3 1.64532e-16 0)
(3 2.65441e-16 0)
(3 7.22558e-16 0)
(3 8.1134e-16 0)
(3 8.28482e-16 0)
(3 1.12698e-15 0)
(3 1.32146e-15 0)
(3 1.77025e-15 0)
(3 2.49535e-15 0)
(3 2.81311e-15 0)
(3 2.72781e-15 0)
(3 1.40176e-17 0)
(3 3.00347e-16 0)
(3 7.75413e-17 0)
(3 -2.48656e-16 0)
(3 -9.1957e-17 0)
(3 1.00206e-16 0)
(3 2.26271e-16 0)
(3 1.03554e-15 0)
(3 1.44221e-15 0)
(3 1.16164e-15 0)
(3 6.14831e-16 0)
(3 1.33241e-16 0)
(3 -7.57435e-16 0)
(3 -1.35806e-15 0)
(3 -1.51367e-15 0)
(3 -6.39745e-16 0)
(3 4.25143e-16 0)
(3 1.40897e-16 0)
(3 -4.35028e-16 0)
(3 -2.1183e-18 0)
(3 4.41863e-16 0)
(3 -1.57447e-17 0)
(3 8.58595e-16 0)
(3 1.74528e-15 0)
(3 2.29192e-15 0)
(3 2.07362e-15 0)
(3 1.79352e-15 0)
(3 2.01223e-15 0)
(3 1.60801e-15 0)
(3 1.14533e-15 0)
(3 9.67035e-16 0)
(3 1.54534e-15 0)
(3 2.36856e-15 0)
(3 1.94471e-15 0)
(3 1.5195e-15 0)
(3 5.79022e-16 0)
(3 -1.0138e-15 0)
(3 -1.55286e-15 0)
(3 -1.69271e-15 0)
(3 -1.02256e-15 0)
(3 -6.535e-16 0)
(3 -9.58364e-16 0)
(3 -5.10542e-16 0)
(3 8.49131e-17 0)
(3 1.90215e-15 0)
(3 1.42883e-15 0)
(3 7.68787e-16 0)
(3 6.0215e-16 0)
(3 1.25044e-15 0)
(3 1.40321e-15 0)
(3 1.33143e-15 0)
(3 1.14405e-15 0)
(3 4.28639e-16 0)
(3 -8.59654e-16 0)
(3 -1.1037e-15 0)
(3 -1.76073e-15 0)
(3 -3.09802e-15 0)
(3 -3.10845e-15 0)
(3 -3.47866e-15 0)
(3 -2.92936e-15 0)
(3 -3.63824e-15 0)
(3 -4.22507e-15 0)
(3 -4.78438e-15 0)
(3 -4.39128e-15 0)
(3 -2.27225e-15 0)
(3 -1.23971e-15 0)
(3 -1.88361e-15 0)
(3 -1.96402e-15 0)
(3 -4.77479e-16 0)
(3 4.54579e-16 0)
(3 2.20543e-15 0)
(3 2.86615e-15 0)
(3 3.50948e-15 0)
(3 3.72749e-15 0)
(3 4.05982e-15 0)
(3 3.6018e-15 0)
(3 3.05763e-15 0)
(3 2.77935e-15 0)
(3 1.4541e-15 0)
(3 7.36612e-16 0)
(3 -2.00869e-16 0)
(3 -1.46239e-16 0)
(3 -2.12863e-16 0)
(3 1.28269e-16 0)
(3 -3.72612e-16 0)
(3 -4.73821e-16 0)
(3 -3.26838e-16 0)
(3 1.26807e-16 0)
(3 8.10328e-16 0)
(3 9.39546e-16 0)
(3 2.52577e-15 0)
(3 3.49866e-15 0)
(3 3.13348e-15 0)
(3 2.39378e-15 0)
(3 1.88455e-15 0)
(3 1.27401e-15 0)
(3 -2.61974e-17 0)
(3 -9.21034e-17 0)
(3 1.25248e-16 0)
(3 3.08802e-16 0)
(3 2.96053e-16 0)
(3 -1.93302e-16 0)
(3 -3.94281e-16 0)
(3 4.9586e-16 0)
(3 1.15928e-15 0)
(3 1.39627e-15 0)
(3 1.04709e-15 0)
(3 8.35779e-16 0)
(3 3.75345e-16 0)
(3 1.9424e-16 0)
(3 -2.67706e-16 0)
(3 -2.75079e-16 0)
(3 6.26417e-16 0)
(3 5.15502e-16 0)
(3 2.80213e-16 0)
(3 -2.4017e-16 0)
(3 -7.77379e-17 0)
(3 5.90357e-17 0)
(3 3.0991e-16 0)
(3 9.89071e-16 0)
(3 1.45402e-15 0)
(3 1.20981e-15 0)
(3 1.98339e-15 0)
(3 3.47144e-15 0)
(3 3.54517e-15 0)
(3 2.79532e-15 0)
(3 1.19948e-15 0)
(3 -4.03903e-16 0)
(3 -6.11792e-16 0)
(3 1.68355e-15 0)
(3 4.62446e-16 0)
(3 3.04628e-16 0)
(3 -5.68733e-16 0)
(3 -2.28096e-15 0)
(3 -2.02498e-15 0)
(3 -1.38161e-15 0)
(3 -1.06238e-15 0)
(3 1.03238e-16 0)
(3 2.41707e-16 0)
(3 6.4066e-16 0)
(3 1.06463e-15 0)
(3 1.58652e-15 0)
(3 1.74064e-15 0)
(3 1.32462e-15 0)
(3 7.4826e-16 0)
(3 2.0505e-15 0)
(3 1.96644e-15 0)
(3 6.5601e-16 0)
(3 -3.15474e-16 0)
(3 -1.85866e-15 0)
(3 -3.63214e-15 0)
(3 -4.00354e-15 0)
(3 -3.61848e-15 0)
(3 -3.25024e-15 0)
(3 -3.02978e-15 0)
(3 -2.58547e-15 0)
(3 -2.83472e-15 0)
(3 -3.65031e-15 0)
(3 -2.6107e-15 0)
(3 -1.4654e-15 0)
(3 7.46646e-17 0)
(3 4.42181e-16 0)
(3 -1.04714e-15 0)
(3 -1.11281e-15 0)
(3 -3.47206e-16 0)
(3 1.27949e-15 0)
(3 1.88532e-15 0)
(3 2.09764e-15 0)
(3 2.65153e-15 0)
(3 3.10511e-15 0)
(3 2.88623e-15 0)
(3 2.7055e-15 0)
(3 2.58023e-15 0)
(3 1.72894e-15 0)
(3 1.32593e-16 0)
(3 -1.32032e-15 0)
(3 -1.02884e-15 0)
(3 -4.68509e-16 0)
(3 -1.51513e-16 0)
(3 3.51104e-16 0)
(3 6.4022e-16 0)
(3 2.3797e-16 0)
(3 -1.63436e-16 0)
(3 5.75475e-16 0)
(3 1.71621e-15 0)
(3 2.82468e-15 0)
(3 4.09402e-15 0)
(3 3.89404e-15 0)
(3 3.08508e-15 0)
(3 2.50747e-15 0)
(3 2.22861e-15 0)
(3 2.36973e-15 0)
(3 4.28899e-17 0)
(3 -1.04988e-17 0)
(3 3.48109e-16 0)
(3 4.63163e-16 0)
(3 -6.1064e-17 0)
(3 -5.20962e-16 0)
(3 -7.5881e-16 0)
(3 7.49102e-18 0)
(3 4.31517e-16 0)
(3 8.97754e-16 0)
(3 1.39202e-15 0)
(3 1.81468e-15 0)
(3 1.55372e-15 0)
(3 1.51585e-15 0)
(3 -1.68483e-16 0)
(3 -5.87219e-16 0)
(3 -6.94123e-16 0)
(3 -1.51605e-16 0)
(3 1.38204e-16 0)
(3 -1.84264e-16 0)
(3 -5.14392e-16 0)
(3 -1.11322e-16 0)
(3 -5.68603e-16 0)
(3 -1.15954e-15 0)
(3 6.82117e-17 0)
(3 1.6662e-15 0)
(3 2.40729e-15 0)
(3 2.19244e-15 0)
(3 1.94103e-15 0)
(3 1.63612e-15 0)
(3 9.46196e-16 0)
(3 -1.09432e-16 0)
(3 -2.35628e-16 0)
(3 -2.10901e-16 0)
(3 -8.01468e-16 0)
(3 -1.61858e-15 0)
(3 -2.14277e-15 0)
(3 -2.05582e-15 0)
(3 -2.10424e-15 0)
(3 -1.37596e-15 0)
(3 1.60995e-16 0)
(3 1.52987e-16 0)
(3 -9.58064e-17 0)
(3 6.47562e-17 0)
(3 2.32297e-16 0)
(3 1.52477e-15 0)
(3 1.55458e-15 0)
(3 -7.3292e-17 0)
(3 4.59298e-16 0)
(3 8.64208e-16 0)
(3 6.2596e-16 0)
(3 -1.40002e-15 0)
(3 -2.58474e-15 0)
(3 -2.77674e-15 0)
(3 -2.77425e-15 0)
(3 -2.27014e-15 0)
(3 -2.27357e-15 0)
(3 -1.94966e-15 0)
(3 -1.45152e-15 0)
(3 -2.0022e-15 0)
(3 -1.59103e-15 0)
(3 -1.21839e-15 0)
(3 -5.3282e-16 0)
(3 1.27833e-15 0)
(3 1.52367e-15 0)
(3 1.39292e-15 0)
(3 1.62196e-15 0)
(3 1.48185e-15 0)
(3 5.80388e-16 0)
(3 4.25127e-16 0)
(3 3.83757e-16 0)
(3 7.01476e-16 0)
(3 1.73128e-15 0)
(3 2.26031e-15 0)
(3 1.42249e-15 0)
(3 1.42419e-15 0)
(3 9.49231e-16 0)
(3 -1.59732e-16 0)
(3 -1.20467e-15 0)
(3 -2.24626e-15 0)
(3 -2.24893e-15 0)
(3 -1.52626e-15 0)
(3 1.1173e-16 0)
(3 9.4637e-16 0)
(3 1.30666e-15 0)
(3 6.54454e-16 0)
(3 7.18667e-16 0)
(3 7.79588e-16 0)
(3 1.52332e-15 0)
(3 2.29047e-15 0)
(3 2.67442e-15 0)
(3 3.17466e-15 0)
(3 3.46971e-15 0)
(3 3.55402e-15 0)
(3 3.36367e-15 0)
(3 3.02002e-15 0)
(3 -3.89403e-17 0)
(3 1.49139e-16 0)
(3 3.02635e-17 0)
(3 -3.63323e-17 0)
(3 -5.61284e-16 0)
(3 -6.97459e-16 0)
(3 -5.58386e-16 0)
(3 -7.13559e-16 0)
(3 -8.70392e-16 0)
(3 -2.13038e-17 0)
(3 6.38918e-16 0)
(3 1.6302e-15 0)
(3 1.6459e-15 0)
(3 5.9738e-16 0)
(3 -2.6704e-16 0)
(3 -1.19208e-15 0)
(3 -1.07328e-15 0)
(3 -1.19131e-15 0)
(3 -1.36065e-15 0)
(3 -8.51287e-16 0)
(3 -4.94446e-16 0)
(3 -4.30308e-16 0)
(3 -2.93836e-16 0)
(3 1.30034e-16 0)
(3 7.68124e-16 0)
(3 1.21824e-15 0)
(3 2.52095e-15 0)
(3 2.42052e-15 0)
(3 2.42864e-15 0)
(3 1.97289e-15 0)
(3 1.01704e-15 0)
(3 1.86587e-16 0)
(3 -4.0807e-16 0)
(3 -2.37593e-15 0)
(3 -2.93373e-15 0)
(3 -3.64098e-15 0)
(3 -4.09918e-15 0)
(3 -3.19468e-15 0)
(3 -2.42055e-15 0)
(3 -1.16161e-15 0)
(3 -3.70339e-16 0)
(3 4.59515e-16 0)
(3 9.1403e-16 0)
(3 9.74296e-16 0)
(3 9.67218e-16 0)
(3 1.21548e-15 0)
(3 1.83222e-15 0)
(3 1.55421e-15 0)
(3 9.65413e-16 0)
(3 9.19147e-16 0)
(3 4.91359e-16 0)
(3 -1.02247e-15 0)
(3 -1.28995e-15 0)
(3 -1.60278e-15 0)
(3 -1.79272e-15 0)
(3 -1.56388e-15 0)
(3 -1.45365e-15 0)
(3 -2.18429e-15 0)
(3 -3.09561e-15 0)
(3 -3.28187e-15 0)
(3 -2.13728e-15 0)
(3 -3.4831e-16 0)
(3 7.22466e-16 0)
(3 8.72432e-16 0)
(3 2.30069e-16 0)
(3 1.40231e-15 0)
(3 2.77283e-15 0)
(3 2.94854e-15 0)
(3 2.75177e-15 0)
(3 1.28255e-15 0)
(3 5.39175e-16 0)
(3 8.60417e-16 0)
(3 1.38451e-15 0)
(3 1.40343e-15 0)
(3 5.7271e-16 0)
(3 -7.79022e-16 0)
(3 -1.49913e-15 0)
(3 -1.79885e-15 0)
(3 -1.56344e-15 0)
(3 -1.01469e-15 0)
(3 -1.18992e-15 0)
(3 -5.97633e-16 0)
(3 1.02562e-15 0)
(3 1.66345e-15 0)
(3 1.7692e-15 0)
(3 2.00878e-15 0)
(3 2.64344e-15 0)
(3 2.8479e-15 0)
(3 2.44086e-15 0)
(3 1.99745e-15 0)
(3 2.06864e-15 0)
(3 2.60591e-15 0)
(3 3.71529e-15 0)
(3 4.79086e-15 0)
(3 4.84105e-15 0)
(3 4.35053e-15 0)
(3 4.24117e-17 0)
(3 7.4825e-19 0)
(3 -3.63807e-16 0)
(3 -8.25346e-17 0)
(3 -2.01183e-17 0)
(3 9.9156e-17 0)
(3 5.87426e-16 0)
(3 4.33377e-16 0)
(3 1.79344e-16 0)
(3 1.09328e-16 0)
(3 -3.98356e-17 0)
(3 -2.39017e-16 0)
(3 1.87817e-16 0)
(3 -2.35109e-16 0)
(3 -8.04534e-16 0)
(3 -1.62717e-15 0)
(3 -1.556e-15 0)
(3 -1.73133e-15 0)
(3 -1.89027e-15 0)
(3 -1.77006e-15 0)
(3 -1.56589e-15 0)
(3 -1.13483e-15 0)
(3 -2.90003e-16 0)
(3 -2.84287e-16 0)
(3 -3.25826e-16 0)
(3 -3.62019e-16 0)
(3 -3.93211e-16 0)
(3 -2.88291e-16 0)
(3 2.28416e-18 0)
(3 -2.0646e-16 0)
(3 -6.07737e-16 0)
(3 -1.0574e-15 0)
(3 -1.48388e-15 0)
(3 -1.65264e-15 0)
(3 -1.99205e-15 0)
(3 -1.32025e-15 0)
(3 -8.7045e-16 0)
(3 -2.21732e-15 0)
(3 -2.36742e-15 0)
(3 -2.84093e-15 0)
(3 -3.39894e-15 0)
(3 -2.71844e-15 0)
(3 -4.12665e-16 0)
(3 5.12629e-16 0)
(3 1.74622e-15 0)
(3 1.86626e-15 0)
(3 2.73881e-15 0)
(3 3.07116e-15 0)
(3 2.62044e-15 0)
(3 1.48356e-15 0)
(3 8.94284e-16 0)
(3 6.78126e-16 0)
(3 7.39673e-16 0)
(3 2.71061e-16 0)
(3 -9.81817e-16 0)
(3 -6.58861e-16 0)
(3 -2.15516e-16 0)
(3 -6.18031e-16 0)
(3 -1.50439e-15 0)
(3 -1.09975e-15 0)
(3 -2.07633e-16 0)
(3 8.49368e-17 0)
(3 8.1299e-16 0)
(3 5.98968e-16 0)
(3 -1.0396e-15 0)
(3 -8.97353e-16 0)
(3 -2.72408e-16 0)
(3 1.19804e-15 0)
(3 2.07423e-15 0)
(3 2.33944e-15 0)
(3 1.2517e-15 0)
(3 7.80724e-17 0)
(3 -8.04458e-16 0)
(3 -1.6994e-15 0)
(3 -2.05737e-15 0)
(3 -1.96428e-15 0)
(3 -1.74095e-15 0)
(3 -1.41972e-15 0)
(3 -8.33782e-16 0)
(3 6.00455e-16 0)
(3 1.00173e-15 0)
(3 7.47236e-16 0)
(3 8.69204e-16 0)
(3 1.45231e-15 0)
(3 2.23131e-15 0)
(3 3.24459e-15 0)
(3 3.30892e-15 0)
(3 2.6295e-15 0)
(3 1.77942e-15 0)
(3 2.21857e-15 0)
(3 2.58606e-15 0)
(3 2.5804e-15 0)
(3 2.87273e-15 0)
(3 4.11479e-15 0)
(3 5.19455e-15 0)
(3 4.70384e-15 0)
(3 1.44948e-17 0)
(3 -1.90095e-16 0)
(3 -2.62957e-16 0)
(3 -3.37244e-16 0)
(3 -1.47351e-16 0)
(3 -1.26738e-16 0)
(3 3.13018e-16 0)
(3 4.61379e-16 0)
(3 5.83251e-16 0)
(3 9.28049e-17 0)
(3 -4.30336e-16 0)
(3 -4.6027e-16 0)
(3 4.91001e-16 0)
(3 9.59608e-16 0)
(3 3.95963e-16 0)
(3 -1.55026e-16 0)
(3 -8.98299e-16 0)
(3 -7.31329e-16 0)
(3 -6.53672e-16 0)
(3 -1.20124e-15 0)
(3 -1.99323e-15 0)
(3 -1.10274e-15 0)
(3 -5.06821e-16 0)
(3 -7.05611e-19 0)
(3 -9.08999e-17 0)
(3 -1.0458e-15 0)
(3 -2.04998e-15 0)
(3 -1.5253e-15 0)
(3 -1.88046e-15 0)
(3 -2.27813e-15 0)
(3 -2.15679e-15 0)
(3 -1.69728e-15 0)
(3 -8.63867e-16 0)
(3 1.27332e-15 0)
(3 2.28143e-15 0)
(3 1.84903e-15 0)
(3 2.78849e-16 0)
(3 -4.99262e-16 0)
(3 -1.08608e-15 0)
(3 -1.11762e-15 0)
(3 -1.32341e-15 0)
(3 -2.02939e-15 0)
(3 -1.72337e-15 0)
(3 -1.02019e-15 0)
(3 4.86891e-16 0)
(3 1.52326e-15 0)
(3 1.86662e-15 0)
(3 1.83467e-15 0)
(3 1.54663e-15 0)
(3 1.14081e-15 0)
(3 1.47751e-15 0)
(3 2.25981e-15 0)
(3 2.51248e-15 0)
(3 2.46778e-15 0)
(3 2.44666e-15 0)
(3 1.3831e-15 0)
(3 1.08145e-15 0)
(3 9.63593e-16 0)
(3 7.11425e-16 0)
(3 6.15085e-16 0)
(3 5.36208e-16 0)
(3 -1.81435e-16 0)
(3 -6.04535e-16 0)
(3 -4.33225e-16 0)
(3 -8.01038e-16 0)
(3 -1.18492e-15 0)
(3 -1.58368e-15 0)
(3 -1.71884e-15 0)
(3 -1.94647e-15 0)
(3 -9.35591e-16 0)
(3 -6.15959e-16 0)
(3 -1.34383e-15 0)
(3 -3.28963e-15 0)
(3 -4.65655e-15 0)
(3 -4.0868e-15 0)
(3 -2.65175e-15 0)
(3 -2.06507e-15 0)
(3 -1.8124e-15 0)
(3 -5.55473e-16 0)
(3 4.86337e-16 0)
(3 1.45958e-15 0)
(3 3.69183e-16 0)
(3 -5.63787e-16 0)
(3 -1.18877e-16 0)
(3 9.24409e-16 0)
(3 2.22356e-15 0)
(3 2.35744e-15 0)
(3 2.20963e-15 0)
(3 2.09431e-15 0)
(3 1.91769e-15 0)
(3 2.19381e-15 0)
(3 1.97995e-15 0)
(3 2.03768e-15 0)
(3 2.58967e-15 0)
(3 2.9208e-15 0)
(3 1.99163e-15 0)
(3 3.72135e-17 0)
(3 9.37964e-17 0)
(3 -3.21829e-16 0)
(3 -1.10045e-15 0)
(3 -1.07086e-15 0)
(3 -8.38253e-16 0)
(3 -7.44661e-16 0)
(3 -2.15677e-16 0)
(3 1.43958e-16 0)
(3 -3.64967e-16 0)
(3 -8.80446e-16 0)
(3 -5.96691e-16 0)
(3 -5.41325e-16 0)
(3 1.3931e-16 0)
(3 1.35396e-15 0)
(3 2.07229e-15 0)
(3 2.14415e-15 0)
(3 4.48943e-16 0)
(3 -6.38863e-16 0)
(3 -1.5953e-15 0)
(3 -1.64391e-15 0)
(3 -8.53777e-16 0)
(3 -8.40515e-16 0)
(3 -4.99908e-16 0)
(3 -6.47544e-16 0)
(3 -2.27109e-15 0)
(3 -2.43844e-15 0)
(3 -2.22093e-15 0)
(3 -1.92819e-15 0)
(3 -1.83385e-15 0)
(3 -1.7075e-15 0)
(3 -1.41713e-15 0)
(3 -2.58286e-16 0)
(3 2.0468e-16 0)
(3 3.84161e-16 0)
(3 6.81046e-17 0)
(3 3.79027e-16 0)
(3 1.50525e-15 0)
(3 1.95387e-15 0)
(3 1.72124e-15 0)
(3 9.03233e-16 0)
(3 -4.29175e-16 0)
(3 -3.38404e-17 0)
(3 1.07445e-15 0)
(3 1.07039e-15 0)
(3 1.16023e-15 0)
(3 1.04469e-15 0)
(3 1.3717e-15 0)
(3 1.3479e-15 0)
(3 2.43102e-15 0)
(3 4.10438e-15 0)
(3 4.72912e-15 0)
(3 4.86944e-15 0)
(3 5.2355e-15 0)
(3 4.13043e-15 0)
(3 1.98798e-15 0)
(3 2.0567e-15 0)
(3 1.94169e-15 0)
(3 1.32686e-15 0)
(3 6.61424e-16 0)
(3 5.18119e-17 0)
(3 -3.08972e-16 0)