/*--------------------------------*- C++ -*----------------------------------*\
  =========                 |
  \\      /  F ield         | OpenFOAM: The Open Source CFD Toolbox
   \\    /   O peration     | Website:  https://openfoam.org
    \\  /    A nd           | Version:  7
     \\/     M anipulation  |
\*---------------------------------------------------------------------------*/
FoamFile
{
    version     2.0;
    format      ascii;
    class       volScalarField;
    location    "0.7";
    object      p;
}
// * * * * * * * * * * * * * * * * * * * * * * * * * * * * * * * * * * * * * //

dimensions      [1 -1 -2 0 0 0 0];

internalField   nonuniform List<scalar> 
4608
(
1
1
1
1
1
1
1
1
1
1
1
1
1
1
1
1
1
1
1
1
1
1
1
1
1
1
1
1
1
1
1
1
1
1
1
1
1
1
1
1
1
1
1
1
1
1
1
1
1
1
1
1
1
1
1
1
1
1
1
1
1
1
1
1
1
1
1
1
1
1
1
1
1
1
1
1
1
1
1
1
1
1
1
1
1
1
1
1
1
1
1
1
1
1
1
1
1
1
1
1
1
1
1
1
1
1
1
1
1
1
1
1
1
1
1
1
1
1
1
1
1
1
1
1
1
1
1
1
1
1
1
1
1
1
1
1
1
1
1
1
1
1
1
1
1
1
1
1
1
1
1
1
1
1
1
1
1
1
1
1
1
1
1
1
1
1
1
1
1
1
1
1
1
1
1
1
1
1
1
1
1
1
1
1
1
1
1
1
1
1
1
1
1
1
1
1
1
1
1
1
1
1
1
1
1
1
1
1
1
1
1
1
1
1
1
1
1
1
1
1
1
1
1
1
1
1
1
1
1
1
1
1
1
1
1
1
1
1
1
1
1
1
1
1
1
1
1
1
1
1
1
1
1
1
1
1
1
1
1
1
1
1
1
1
1
1
1
1
1
1
1
1
1
1
1
1
1
1
1
1
1
1
1
1
1
1
1
1
1
1
1
1
1
1
1
1
1
1
1
1
1
1
1
1
1
1
1
1
1
1
1
1
1
1
1
1
1
1
1
1
1
1
1
1
1
1
1
1
1
1
1
1
1
1
1
1
1
1
1
1
1
1
1
1
1
1
1
1
1
1
1
1
1
1
1
1
1
1
1
1
1
1
1
1
1
1
1
1
1
1
1
1
1
1
1
1
1
1
1
1
1
1
1
1
1
1
1
1
1
1
1
1
1
1
1
1
1
1
1
1
1
1
1
1
1
1
1
1
1
1
1
1
1
1
1
1
1
1
1
1
1
1
1
1
1
1
1
1
1
1
1
1
1
1
1
1
1
1
1
1
1
1
1
1
1
1
1
1
1
1
1
1
1
1
1
1
1
1
1
1
1
1
1
1
1
1
1
1
1
1
1
1
1
1
1
1
1
1
1
1
1
1
1
1
1
1
1
1
1
1
1
1
1
1
1
1
1
1
1
1
1
1
1
1
1
1
1
1
1
1
1
1
1
1
1
1
1
1
1
1
1
1
1
1
1
1
1
1
1
1
1
1
1
1
1
1
1
1
1
1
1
1
1
1
1
1
1
1
1
1
1
1
1
1
1
1
1
1
1
1
1
1
1
1
1
1
1
1
1
1
1
1
1
1
1
1
1
1
1
1
1
1
1
1
1
1
1
1
1
1
1
1
1
1
1
1
1
1
1
1
1
1
1
1
1
1
1
1
1
1
1
1
1
1
1
1
1
1
1
1
1
1
1
1
1
1
1
1
1
1
1
1
1
1
1
1
1
1
1
1
1
1
1
1
1
1
1
1
1
1
1
1
1
1
1
1
1
1
1
1
1
1
1
1
1
1
1
1
1
1
1
1
1
1
1
1
1
1
1
1
1
1
1
1
1
1
1
1
1
1
1
1
1
1
1
1
1
1
1
1
1
1
1
1
1
1
1
1
1
1
1
1
1
1
1
1
1
1
1
1
1
1
1
1
1
1
1
1
1
1
1
1
1
1
1
1
1
1
1
1
1
1
1
1
1
1
1
1
1
1
1
1
1
1
1
1
1
1
1
1
1
1
1
1
1
1
1
1
1.29345
1.75492
2.33256
2.98605
3.61613
4.3307
4.83065
5.29821
5.35723
5.1583
4.73161
4.20856
3.79322
3.66781
3.57023
3.56648
3.60005
3.65367
3.70612
3.72606
3.72779
3.72765
3.73372
3.75081
1.00242
1.02188
1.08012
1.21983
1.47121
1.85102
2.3683
3.00686
3.55513
3.81703
4.08053
4.03306
3.93522
3.86893
3.80564
3.71828
3.68839
3.68443
3.69619
3.71541
3.73022
3.73917
3.74092
3.75191
0.999997
1.00001
1
1.00018
1.00354
1.02286
1.11053
1.35986
2.00144
2.9718
3.89674
4.28137
4.35573
4.27136
4.12838
3.88619
3.71761
3.67858
3.68239
3.70702
3.73666
3.75135
3.75427
3.76288
1
1
0.999998
0.999997
0.999985
1.00003
0.999984
1.00157
1.03726
1.29139
2.05373
3.09392
3.98173
4.10899
4.05572
4.0165
3.90947
3.77529
3.72257
3.71772
3.72436
3.73852
3.75058
3.7606
1
1
1
1
0.999999
0.999999
0.999998
0.999996
0.999896
1.00132
1.03955
1.37203
2.21613
3.303
3.84344
4.1289
4.09185
3.9734
3.78768
3.71912
3.68985
3.6854
3.70159
3.72636
1
1
1
1
1
1
1
1
0.999988
0.99999
0.999897
1.0038
1.06527
1.53886
2.4673
3.60543
3.93229
3.90286
3.86227
3.80873
3.73965
3.69114
3.68893
3.70656
1
1
1
1
1
1
1
1
1
0.999999
0.999987
0.999991
0.999956
1.01265
1.15536
1.80305
2.84576
3.69793
3.93855
3.92936
3.86056
3.77494
3.73563
3.72511
1
1
1
1
1
1
1
1
1
1
1
0.999999
0.999994
0.99996
1.00081
1.03627
1.35774
2.28785
3.1931
3.70926
3.8464
3.82605
3.75189
3.71875
1
1
1
1
1
1
1
1
1
1
1
1
1
0.999995
0.999992
1.00001
1.00744
1.12876
1.76808
2.86213
3.62088
3.68081
3.72087
3.70561
1
1
1
1
1
1
1
1
1
1
1
1
1
1
0.999999
0.999999
0.999983
1.00125
1.05369
1.40369
2.37
3.33286
3.76637
3.77452
1
1
1
1
1
1
1
1
1
1
1
1
1
1
1
1
0.999998
0.999992
1.00028
1.01365
1.2312
2.01622
3.12161
3.44404
1
1
1
1
1
1
1
1
1
1
1
1
1
1
1
1
1
0.999998
0.999997
1.00001
1.00705
1.1093
1.74343
2.74823
1
1
1
1
1
1
1
1
1
1
1
1
1
1
1
1
1
1
0.999999
0.999999
1
1.00191
1.06948
1.49022
1
1
1
1
1
1
1
1
1
1
1
1
1
1
1
1
1
1
1
1
1
0.999998
1.00125
1.02556
1
1
1
1
1
1
1
1
1
1
1
1
1
1
1
1
1
1
1
1
1
0.999999
1
1.00002
1
1
1
1
1
1
1
1
1
1
1
1
1
1
1
1
1
1
1
1
1
1
1
0.999999
1
1
1
1
1
1
1
1
1
1
1
1
1
1
1
1
1
1
1
1
1
1
1
0.999999
1
1
1
1
1
1
1
1
1
1
1
1
1
1
1
1
1
1
1
1
1
0.999999
1
1.00002
1
1
1
1
1
1
1
1
1
1
1
1
1
1
1
1
1
1
1
1
1
0.999998
1.00125
1.02556
1
1
1
1
1
1
1
1
1
1
1
1
1
1
1
1
1
1
0.999999
0.999999
1
1.00191
1.06948
1.49022
1
1
1
1
1
1
1
1
1
1
1
1
1
1
1
1
1
0.999998
0.999997
1.00001
1.00705
1.1093
1.74343
2.74823
1
1
1
1
1
1
1
1
1
1
1
1
1
1
1
1
0.999998
0.999992
1.00028
1.01365
1.2312
2.01622
3.12161
3.44404
1
1
1
1
1
1
1
1
1
1
1
1
1
1
0.999999
0.999999
0.999983
1.00125
1.05369
1.40369
2.37
3.33286
3.76637
3.77452
1
1
1
1
1
1
1
1
1
1
1
1
1
0.999995
0.999992
1.00001
1.00744
1.12876
1.76808
2.86213
3.62088
3.68081
3.72087
3.70561
1
1
1
1
1
1
1
1
1
1
1
0.999999
0.999994
0.99996
1.00081
1.03627
1.35774
2.28785
3.1931
3.70926
3.8464
3.82605
3.75189
3.71875
1
1
1
1
1
1
1
1
1
0.999999
0.999987
0.999991
0.999956
1.01265
1.15536
1.80305
2.84576
3.69793
3.93855
3.92936
3.86056
3.77494
3.73563
3.72511
1
1
1
1
1
1
1
1
0.999988
0.99999
0.999897
1.0038
1.06527
1.53886
2.4673
3.60543
3.93229
3.90286
3.86227
3.80873
3.73965
3.69114
3.68893
3.70656
1
1
1
1
0.999999
0.999999
0.999998
0.999996
0.999896
1.00132
1.03955
1.37203
2.21613
3.303
3.84344
4.1289
4.09185
3.9734
3.78768
3.71912
3.68985
3.6854
3.70159
3.72636
1
1
0.999998
0.999997
0.999985
1.00003
0.999984
1.00157
1.03726
1.29139
2.05373
3.09392
3.98173
4.10899
4.05572
4.0165
3.90947
3.77529
3.72257
3.71772
3.72436
3.73852
3.75058
3.7606
0.999997
1.00001
1
1.00018
1.00354
1.02286
1.11053
1.35986
2.00144
2.9718
3.89674
4.28137
4.35573
4.27136
4.12838
3.88619
3.71761
3.67858
3.68239
3.70702
3.73666
3.75135
3.75427
3.76288
1.00242
1.02188
1.08012
1.21983
1.47121
1.85102
2.3683
3.00686
3.55513
3.81703
4.08053
4.03306
3.93522
3.86893
3.80564
3.71828
3.68839
3.68443
3.69619
3.71541
3.73022
3.73917
3.74092
3.75191
1.29345
1.75492
2.33256
2.98605
3.61613
4.3307
4.83065
5.29821
5.35723
5.1583
4.73161
4.20856
3.79322
3.66781
3.57023
3.56648
3.60005
3.65367
3.70612
3.72606
3.72779
3.72765
3.73372
3.75081
2.6382
1.73084
1.15915
0.741262
0.667574
0.713281
0.709773
0.715599
0.778588
0.866477
0.913332
0.938888
0.975186
1.021
1.04407
1.04844
1.06187
1.07815
1.0773
1.06613
1.04687
1.03992
1.03484
1.02706
1.01828
1.00756
1.04248
1.19154
1.57176
2.42932
3.4923
4.3821
5.2518
6.01998
6.57814
6.74811
6.52905
6.14054
5.66708
5.26338
4.96212
4.73356
4.51294
4.28769
4.04214
3.80286
3.60859
3.48159
3.38837
3.31182
3.23032
3.13247
3.01121
2.87304
2.74579
2.65168
2.5727
2.48964
2.40056
2.3105
2.22589
2.15313
2.09763
2.05809
2.02102
1.97155
1.89664
1.79887
1.71224
1.67549
1.65405
1.62815
1.59454
1.55831
1.52341
1.48799
1.4536
1.42446
1.40224
1.38111
1.35434
1.31892
1.27967
1.24774
1.22554
1.2036
1.1762
1.15192
1.13839
1.13084
1.12486
1.11895
1.11088
1.09522
1.08248
1.08187
3.35417
2.72502
2.24701
1.76861
1.39091
1.26942
1.15469
1.02704
1.0064
0.982757
0.929344
0.904032
0.912921
0.938811
0.968273
0.981257
0.995364
1.02113
1.02681
1.02069
1.01698
1.02294
1.02577
1.023
1.0289
1.12525
1.50901
1.91773
2.39177
2.68588
2.83496
3.07643
3.43882
3.81909
4.24983
4.67955
4.96051
5.03068
5.0614
5.09367
5.01286
4.85056
4.62515
4.39992
4.16924
3.93752
3.7116
3.55046
3.45603
3.36949
3.27808
3.17802
3.06726
2.94647
2.82878
2.73277
2.64524
2.55979
2.47333
2.38121
2.28846
2.21185
2.15409
2.10687
2.06276
2.01165
1.94457
1.86111
1.77662
1.72375
1.69095
1.65859
1.62596
1.59691
1.5704
1.53999
1.50465
1.46928
1.44063
1.41893
1.39361
1.36142
1.32726
1.29561
1.26863
1.24328
1.21429
1.18836
1.17384
1.16555
1.15876
1.15251
1.14604
1.134
1.11928
1.1129
3.6609
3.33432
2.8666
2.42092
1.96584
1.65262
1.44989
1.22419
1.07699
1.03752
0.979816
0.919884
0.919785
0.93866
0.945178
0.943388
0.946829
0.963955
0.981267
0.98837
0.995436
1.00822
1.02887
1.08074
1.25411
1.81071
2.39713
2.66252
2.84029
2.82617
2.78042
2.67593
2.64422
2.67967
2.81986
3.14491
3.67215
4.19883
4.58098
4.7162
4.82662
4.77979
4.67515
4.51149
4.32725
4.07862
3.82948
3.59341
3.39826
3.27003
3.17874
3.09546
3.01132
2.91222
2.8084
2.70088
2.5981
2.5077
2.42416
2.33247
2.22724
2.13715
2.08275
2.04327
2.00612
1.96711
1.91455
1.83815
1.73902
1.67209
1.64705
1.62169
1.59387
1.56826
1.54171
1.50607
1.46371
1.43158
1.40648
1.38624
1.36335
1.33098
1.29454
1.26109
1.23902
1.21874
1.19402
1.16979
1.15222
1.13984
1.12947
1.12159
1.11579
1.10717
1.09671
1.09479
3.74142
3.62187
3.32347
2.94684
2.50411
2.11328
1.86164
1.60627
1.36297
1.28405
1.20295
1.06291
1.02904
1.01998
0.984754
0.949945
0.940131
0.941215
0.939102
0.942127
0.950885
0.975783
1.11593
1.46895
2.03055
2.6203
2.78387
2.85802
2.87567
2.81923
2.69302
2.55036
2.43772
2.39936
2.36345
2.35334
2.41548
2.60119
2.96152
3.34823
3.74752
3.97161
4.15242
4.09893
4.06827
4.03345
3.94748
3.77397
3.51998
3.30413
3.17337
3.08413
3.00204
2.90786
2.80252
2.68291
2.56468
2.47087
2.39215
2.31042
2.21279
2.11203
2.04605
2.01512
1.99477
1.96482
1.91784
1.84766
1.73395
1.64858
1.63195
1.62332
1.5946
1.56168
1.53443
1.49782
1.44985
1.41263
1.39949
1.38052
1.35299
1.32352
1.29051
1.24982
1.22608
1.21036
1.18939
1.1668
1.1498
1.13703
1.12546
1.11552
1.10829
1.09844
1.09043
1.0932
3.74335
3.72102
3.58299
3.32319
2.95885
2.56107
2.25649
1.96796
1.70821
1.56016
1.43783
1.24823
1.13506
1.0988
1.04813
0.972128
0.948784
0.948037
0.94015
0.943172
0.989151
1.20659
1.78723
2.28303
2.70157
2.86154
2.85645
2.81423
2.78111
2.68675
2.54268
2.42958
2.34709
2.27887
2.23256
2.19501
2.14547
2.10305
2.09068
2.16113
2.34689
2.66074
3.05976
3.39452
3.64247
3.83858
3.84758
3.77397
3.63287
3.43949
3.27088
3.13519
3.00115
2.8891
2.7797
2.66502
2.55015
2.44615
2.36507
2.29184
2.21158
2.13136
2.05971
1.98497
1.9323
1.90207
1.87008
1.82543
1.74929
1.67198
1.61801
1.57487
1.53386
1.51033
1.50352
1.49596
1.47052
1.43208
1.37801
1.33171
1.32321
1.32463
1.30909
1.27299
1.23152
1.19874
1.19164
1.18715
1.17641
1.16418
1.14982
1.13343
1.11415
1.09491
1.08895
1.1001
3.7339
3.7309
3.69832
3.56258
3.2908
2.94592
2.64281
2.33803
2.04442
1.84134
1.68958
1.52722
1.3509
1.2824
1.21248
1.1041
1.0485
1.03486
1.05508
1.16072
1.44761
2.15042
2.67671
2.77395
2.80732
2.82778
2.75642
2.66662
2.58065
2.47718
2.40441
2.3482
2.26644
2.16558
2.12016
2.08095
2.02892
1.94922
1.91205
1.89006
1.84571
1.84989
1.92415
2.15039
2.46706
2.83951
3.10692
3.30364
3.3225
3.25075
3.07188
3.00162
2.94825
2.87603
2.79816
2.70897
2.60139
2.48955
2.39706
2.32054
2.24357
2.16151
2.07015
1.97853
1.90915
1.87252
1.8376
1.79194
1.75588
1.69892
1.61648
1.54397
1.50427
1.48169
1.46054
1.43796
1.41665
1.39149
1.35499
1.32408
1.30931
1.2926
1.27436
1.24995
1.21816
1.1968
1.18561
1.16869
1.15176
1.1371
1.12428
1.11278
1.10205
1.09563
1.10007
1.12058
3.73264
3.73792
3.72126
3.67687
3.52846
3.26993
2.99247
2.66561
2.37999
2.14689
1.96173
1.77376
1.58321
1.46988
1.39672
1.28824
1.17836
1.19577
1.43649
1.93892
2.5482
3.09721
3.09367
2.96869
2.8638
2.76432
2.66027
2.55919
2.45636
2.37181
2.31895
2.25527
2.15554
2.03666
1.98819
1.94864
1.89161
1.81786
1.78828
1.76398
1.72555
1.65739
1.59132
1.59014
1.6359
1.76882
1.98244
2.28623
2.57343
2.76122
2.79416
2.85683
2.86844
2.83848
2.77839
2.70768
2.63787
2.5664
2.48921
2.41013
2.32489
2.20897
2.09479
2.00521
1.91619
1.85631
1.81201
1.76885
1.71834
1.65652
1.588
1.52959
1.48961
1.45531
1.4264
1.40711
1.39267
1.37777
1.35743
1.32904
1.29268
1.26971
1.26158
1.25191
1.23148
1.20555
1.18052
1.1613
1.14786
1.13448
1.12009
1.1089
1.10047
1.10261
1.12343
1.15379
3.72451
3.73922
3.73994
3.71741
3.6503
3.49848
3.28463
2.99317
2.7027
2.44647
2.22251
2.04525
1.87149
1.66572
1.58234
1.51934
1.61123
1.96887
2.74454
3.24101
3.49176
3.45581
3.31669
3.12188
2.89272
2.73685
2.63534
2.53123
2.42338
2.34499
2.27794
2.19564
2.09197
1.98492
1.92215
1.86832
1.79634
1.71805
1.68007
1.65053
1.61257
1.54665
1.48502
1.46595
1.4372
1.40496
1.40457
1.44766
1.56446
1.75489
1.97111
2.14766
2.32584
2.46385
2.46513
2.42375
2.40679
2.38525
2.3546
2.30938
2.2525
2.17321
2.06304
1.93883
1.88049
1.85521
1.82839
1.78657
1.73196
1.67176
1.61025
1.54983
1.49547
1.45418
1.42634
1.40903
1.39747
1.38426
1.36309
1.32971
1.29335
1.27348
1.25929
1.24118
1.22005
1.19988
1.17971
1.16452
1.1536
1.13858
1.12642
1.11778
1.11668
1.13087
1.16495
1.19985
3.70944
3.73296
3.73631
3.7271
3.6977
3.62569
3.4911
3.25414
2.99069
2.77239
2.51458
2.23878
2.10777
1.94449
1.96115
2.29164
2.93891
3.57885
4.04181
4.00969
3.87714
3.65873
3.41744
3.19361
2.9938
2.8455
2.71692
2.58706
2.46721
2.36823
2.27254
2.16581
2.05022
1.96436
1.90714
1.84559
1.76076
1.66604
1.62035
1.58281
1.53585
1.47755
1.41658
1.39354
1.35867
1.31298
1.27052
1.2336
1.23417
1.24684
1.283
1.35555
1.47559
1.63382
1.80056
1.93494
2.03911
2.11432
2.18699
2.20477
2.1888
2.15225
2.07661
1.95551
1.90088
1.88619
1.87021
1.83756
1.79312
1.74481
1.68864
1.61275
1.53499
1.48946
1.46554
1.45098
1.43506
1.41338
1.38563
1.3624
1.33411
1.29435
1.26135
1.24079
1.22292
1.20239
1.1837
1.1712
1.16164
1.15097
1.13942
1.13633
1.14498
1.18349
1.21919
1.25687
3.7527
3.75229
3.75425
3.74713
3.72368
3.66907
3.59227
3.45512
3.23428
3.02802
2.77506
2.52857
2.39974
2.60435
3.29763
4.28638
4.75916
4.80515
4.69178
4.43752
4.13591
3.8625
3.6152
3.37885
3.16244
2.98316
2.82665
2.67402
2.5295
2.40661
2.29301
2.1719
2.04552
1.96308
1.91062
1.84484
1.75011
1.64969
1.59676
1.55292
1.49856
1.43813
1.38152
1.34797
1.31143
1.25751
1.21238
1.17434
1.15762
1.14348
1.11127
1.07378
1.05475
1.06728
1.11071
1.21102
1.34625
1.49034
1.62257
1.77119
1.86954
1.90509
1.8919
1.84599
1.79205
1.771
1.75746
1.73954
1.70841
1.67194
1.63328
1.57828
1.5086
1.45146
1.42985
1.42566
1.42202
1.41015
1.38537
1.35325
1.32385
1.30249
1.27557
1.24626
1.22846
1.21203
1.19711
1.18808
1.18464
1.1765
1.17024
1.17955
1.21438
1.25673
1.27926
1.31224
3.64731
3.79668
3.80867
3.79336
3.75227
3.69405
3.64911
3.57832
3.43232
3.26672
3.02254
3.12189
3.7688
4.73804
5.61721
5.65899
5.4988
5.21341
4.87904
4.56781
4.27673
4.02175
3.80023
3.58229
3.36663
3.16519
2.97353
2.78074
2.59347
2.43624
2.3151
2.21081
2.10705
2.0201
1.94386
1.85352
1.73607
1.63659
1.59197
1.54468
1.48672
1.42668
1.37103
1.32108
1.27928
1.23182
1.18482
1.15187
1.13099
1.10348
1.05895
1.00869
0.972455
0.939869
0.925081
0.918406
0.92193
0.946713
0.993127
1.07608
1.20364
1.34998
1.44975
1.53117
1.57127
1.58952
1.62527
1.66203
1.65595
1.63145
1.60585
1.57404
1.52358
1.47131
1.45266
1.45085
1.44861
1.43788
1.41683
1.3752
1.34404
1.33095
1.30226
1.2595
1.23877
1.23078
1.22287
1.21996
1.21884
1.21817
1.23758
1.27775
1.31592
1.33466
1.35447
1.37489
3.53576
3.77866
3.79601
3.77493
3.74632
3.70762
3.64943
3.61677
3.55373
3.55036
4.06578
5.39724
6.60558
7.0018
6.86594
6.44449
5.90651
5.46345
5.09251
4.76069
4.46377
4.19471
3.94083
3.69084
3.46111
3.26883
3.09273
2.90067
2.70705
2.54135
2.39672
2.27778
2.19329
2.10623
1.99722
1.88681
1.75782
1.64511
1.61156
1.58741
1.53531
1.46631
1.38368
1.29463
1.25111
1.22672
1.19658
1.16344
1.12308
1.07973
1.03212
0.982158
0.9398
0.905673
0.890294
0.875709
0.85786
0.82267
0.79508
0.79654
0.814576
0.861181
0.930931
1.00129
1.07602
1.16361
1.24426
1.34111
1.42515
1.44928
1.46182
1.46625
1.4491
1.40736
1.39544
1.39655
1.40111
1.39502
1.38193
1.35447
1.31798
1.30299
1.29387
1.27695
1.26423
1.26401
1.27045
1.27475
1.26898
1.2911
1.34729
1.38542
1.39817
1.41225
1.4329
1.43648
2.58234
3.30193
3.61273
3.78941
3.81694
3.80228
3.70648
3.68685
3.94324
5.18891
7.15831
8.06672
7.8952
7.52496
7.10079
6.66644
6.24073
5.82816
5.41881
5.01794
4.65336
4.33381
4.05128
3.79289
3.54729
3.31391
3.10348
2.93368
2.79202
2.65499
2.5136
2.36924
2.2184
2.07348
1.94584
1.83921
1.76666
1.71086
1.64898
1.5717
1.49098
1.40618
1.32441
1.26801
1.23093
1.19198
1.15047
1.11299
1.07924
1.0454
1.00543
0.959997
0.918237
0.884223
0.866239
0.84853
0.824229
0.790506
0.757845
0.748862
0.744303
0.738168
0.729449
0.715226
0.715656
0.733502
0.778415
0.849934
0.947034
1.04318
1.11752
1.18159
1.23688
1.26423
1.27873
1.30259
1.3423
1.35837
1.35542
1.33986
1.32003
1.31478
1.31527
1.31733
1.31508
1.33073
1.3399
1.34176
1.36827
1.44295
1.49365
1.50416
1.50573
1.51378
1.5099
1.50226
1.37882
2.31603
3.10534
3.57543
3.70261
3.77066
3.94825
4.6645
6.55439
8.65081
9.49212
9.27321
8.5742
7.7902
7.22394
6.83781
6.4816
6.08045
5.64588
5.21563
4.8209
4.47342
4.16835
3.89327
3.62813
3.38463
3.17817
3.00193
2.84364
2.69004
2.53554
2.37964
2.22685
2.09492
1.98464
1.88986
1.80709
1.73068
1.6546
1.57241
1.4873
1.40309
1.32992
1.27644
1.23108
1.18634
1.14336
1.10486
1.06977
1.03408
0.993903
0.949411
0.907583
0.876243
0.858003
0.837491
0.809675
0.77313
0.747448
0.740244
0.7318
0.717373
0.696022
0.669229
0.642885
0.619455
0.605946
0.608113
0.621086
0.653456
0.702896
0.75963
0.836538
0.922145
0.990698
1.05257
1.12847
1.19883
1.23232
1.25273
1.2767
1.29545
1.30423
1.31176
1.33665
1.37739
1.40784
1.45123
1.53666
1.57473
1.58282
1.57581
1.5674
1.55649
1.54325
1.53399
1.02525
1.25233
2.01058
2.98349
3.43708
4.2741
5.73169
7.81966
9.32275
9.71111
9.55491
9.27783
8.83438
8.22055
7.59682
7.07059
6.60108
6.15601
5.73571
5.34082
4.97119
4.62395
4.29781
4.00403
3.78114
3.57632
3.3548
3.14312
2.95585
2.79548
2.64273
2.49603
2.36564
2.25059
2.1394
2.02667
1.91731
1.81795
1.72665
1.63789
1.55146
1.47187
1.40188
1.33815
1.27992
1.22916
1.18407
1.14248
1.10202
1.06066
1.01698
0.971275
0.92908
0.897379
0.873786
0.846832
0.812684
0.776537
0.756882
0.746757
0.733368
0.710795
0.684603
0.656308
0.630172
0.607554
0.582661
0.577832
0.579265
0.584494
0.585434
0.583514
0.591455
0.614098
0.650855
0.700722
0.766486
0.848538
0.934256
1.01176
1.08972
1.17321
1.2509
1.31244
1.37605
1.44856
1.52875
1.6235
1.68787
1.70412
1.70063
1.69087
1.6767
1.65899
1.64149
1.62676
1.00048
1.01379
1.18285
1.91538
3.69049
6.00068
8.22795
10.2045
10.8617
10.3297
9.55518
9.17606
8.86213
8.44523
7.86346
7.21721
6.619
6.12013
5.70282
5.33397
4.9963
4.66947
4.35305
4.05746
3.76842
3.48919
3.23837
3.02166
2.84513
2.6924
2.54921
2.41377
2.29106
2.17869
2.06728
1.95339
1.8453
1.74977
1.66087
1.57256
1.48817
1.41314
1.34741
1.28787
1.23347
1.18464
1.1402
1.09741
1.05614
1.0173
0.978864
0.937387
0.895349
0.864572
0.843721
0.818234
0.781619
0.747402
0.731557
0.722627
0.711879
0.69541
0.672877
0.644824
0.618649
0.597523
0.57591
0.572471
0.574107
0.577593
0.574515
0.562326
0.548652
0.546275
0.548197
0.554999
0.565318
0.583618
0.616354
0.66578
0.738026
0.844538
0.991732
1.18333
1.38781
1.57453
1.76463
1.83924
1.85593
1.88192
1.90975
1.91954
1.90467
1.87183
1.85233
1.81107
1.00048
1.01379
1.18285
1.91538
3.69049
6.00068
8.22795
10.2045
10.8617
10.3297
9.55518
9.17606
8.86213
8.44523
7.86346
7.21721
6.619
6.12013
5.70282
5.33397
4.9963
4.66947
4.35305
4.05746
3.76842
3.48919
3.23837
3.02166
2.84513
2.6924
2.54921
2.41377
2.29106
2.17869
2.06728
1.95339
1.8453
1.74977
1.66087
1.57256
1.48817
1.41314
1.34741
1.28787
1.23347
1.18464
1.1402
1.09741
1.05614
1.0173
0.978864
0.937387
0.89535
0.864572
0.843721
0.818234
0.781619
0.747402
0.731557
0.722626
0.711879
0.69541
0.672877
0.644824
0.618648
0.597523
0.575911
0.572471
0.574107
0.577593
0.574515
0.562326
0.548654
0.54627
0.548224
0.554612
0.569392
0.596677
0.645567
0.718596
0.825065
0.976371
1.1705
1.37656
1.54017
1.67043
1.8173
1.8913
1.90298
1.90711
1.91489
1.91375
1.90439
1.88002
1.85211
1.80217
1.02525
1.25233
2.01058
2.98349
3.43708
4.2741
5.73169
7.81966
9.32275
9.71111
9.55491
9.27783
8.83438
8.22055
7.59682
7.07059
6.60108
6.15601
5.73571
5.34082
4.97119
4.62395
4.29781
4.00403
3.78114
3.57632
3.3548
3.14312
2.95585
2.79548
2.64273
2.49603
2.36564
2.25059
2.1394
2.02667
1.91731
1.81795
1.72665
1.63789
1.55146
1.47187
1.40188
1.33815
1.27992
1.22916
1.18407
1.14248
1.10202
1.06066
1.01698
0.971275
0.92908
0.897379
0.873786
0.846832
0.812685
0.776537
0.756882
0.746757
0.733369
0.710794
0.684605
0.656309
0.630169
0.607555
0.582664
0.577832
0.579262
0.584493
0.58543
0.583526
0.591489
0.613981
0.650988
0.700608
0.766172
0.849116
0.935301
1.01604
1.09961
1.18865
1.27128
1.33387
1.41358
1.49965
1.59143
1.70183
1.77332
1.76933
1.75571
1.74629
1.73567
1.71751
1.68431
1.63557
1.37882
2.31603
3.10534
3.57543
3.70261
3.77066
3.94825
4.6645
6.55439
8.65081
9.49212
9.27321
8.5742
7.7902
7.22394
6.83781
6.4816
6.08045
5.64588
5.21563
4.8209
4.47342
4.16835
3.89327
3.62813
3.38463
3.17817
3.00193
2.84364
2.69004
2.53554
2.37964
2.22685
2.09492
1.98464
1.88986
1.80709
1.73068
1.6546
1.57241
1.4873
1.40309
1.32992
1.27644
1.23108
1.18634
1.14336
1.10486
1.06977
1.03408
0.993903
0.94941
0.907583
0.876244
0.858002
0.837491
0.809676
0.773129
0.747448
0.740244
0.7318
0.717374
0.696022
0.669228
0.642883
0.619456
0.605946
0.608106
0.621103
0.653448
0.702859
0.75969
0.836611
0.921937
0.990718
1.05247
1.12848
1.1985
1.23188
1.25314
1.27718
1.29488
1.30432
1.31386
1.34106
1.38496
1.4131
1.45172
1.53469
1.5759
1.58997
1.58542
1.57615
1.56313
1.54664
1.53359
2.58234
3.30193
3.61273
3.78941
3.81694
3.80228
3.70648
3.68685
3.94324
5.18891
7.15831
8.06672
7.8952
7.52496
7.10079
6.66644
6.24073
5.82816
5.41881
5.01794
4.65336
4.33381
4.05128
3.79289
3.54729
3.31391
3.10348
2.93368
2.79202
2.65499
2.5136
2.36924
2.2184
2.07348
1.94584
1.83921
1.76666
1.71086
1.64898
1.5717
1.49098
1.40618
1.32441
1.26801
1.23093
1.19198
1.15047
1.11299
1.07924
1.0454
1.00543
0.959997
0.918237
0.884223
0.866239
0.84853
0.82423
0.790506
0.757844
0.748862
0.744303
0.738168
0.72945
0.715224
0.715652
0.733512
0.778397
0.849924
0.947164
1.04304
1.1175
1.18175
1.23666
1.26435
1.2787
1.30249
1.3419
1.35856
1.35597
1.33984
1.31928
1.31468
1.31599
1.3187
1.31645
1.33068
1.34082
1.3426
1.36638
1.43934
1.49148
1.50256
1.50436
1.51273
1.50922
1.50182
3.53576
3.77866
3.79601
3.77493
3.74632
3.70762
3.64943
3.61677
3.55373
3.55036
4.06578
5.39724
6.60558
7.0018
6.86594
6.44449
5.90651
5.46345
5.09251
4.76069
4.46377
4.19471
3.94083
3.69084
3.46111
3.26883
3.09273
2.90067
2.70705
2.54135
2.39672
2.27778
2.19329
2.10623
1.99722
1.88681
1.75782
1.64511
1.61156
1.58741
1.53531
1.46631
1.38368
1.29463
1.25111
1.22672
1.19658
1.16344
1.12308
1.07974
1.03212
0.982158
0.9398
0.905673
0.890294
0.875709
0.85786
0.82267
0.795079
0.79654
0.814577
0.861176
0.930953
1.00127
1.07605
1.1636
1.2442
1.34133
1.42492
1.44918
1.462
1.46628
1.44893
1.40739
1.39549
1.39656
1.40109
1.39501
1.38209
1.35398
1.31688
1.30322
1.29507
1.2775
1.26419
1.26403
1.27096
1.27558
1.26963
1.29176
1.34649
1.38449
1.39772
1.41198
1.43239
1.43653
3.64731
3.79668
3.80867
3.79336
3.75227
3.69405
3.64911
3.57832
3.43232
3.26672
3.02254
3.12189
3.7688
4.73804
5.61721
5.65899
5.4988
5.21341
4.87904
4.56781
4.27673
4.02175
3.80023
3.58229
3.36663
3.16519
2.97353
2.78074
2.59347
2.43624
2.3151
2.21081
2.10705
2.0201
1.94386
1.85352
1.73607
1.63659
1.59197
1.54468
1.48672
1.42668
1.37103
1.32108
1.27928
1.23182
1.18482
1.15187
1.13099
1.10348
1.05895
1.00869
0.972455
0.939869
0.925081
0.918406
0.921931
0.94671
0.993131
1.07608
1.20362
1.35001
1.44973
1.53119
1.57127
1.58948
1.6253
1.66209
1.65592
1.63143
1.60587
1.57404
1.52348
1.4713
1.45276
1.45093
1.44866
1.43791
1.41684
1.37521
1.34367
1.33085
1.30177
1.25853
1.23828
1.23092
1.22356
1.22091
1.21958
1.21901
1.23834
1.2776
1.3161
1.33497
1.35423
1.37488
3.7527
3.75229
3.75425
3.74713
3.72368
3.66907
3.59227
3.45512
3.23428
3.02802
2.77506
2.52857
2.39974
2.60435
3.29763
4.28638
4.75916
4.80515
4.69178
4.43752
4.13591
3.8625
3.6152
3.37885
3.16244
2.98316
2.82665
2.67402
2.5295
2.40661
2.29301
2.1719
2.04552
1.96308
1.91062
1.84484
1.75011
1.64969
1.59676
1.55292
1.49856
1.43813
1.38152
1.34797
1.31143
1.25751
1.21238
1.17434
1.15762
1.14348
1.11127
1.07378
1.05475
1.06728
1.11071
1.21103
1.34625
1.49034
1.62258
1.77116
1.86955
1.9051
1.89189
1.846
1.79203
1.77099
1.75748
1.73955
1.70839
1.67192
1.6333
1.5783
1.50848
1.45144
1.42997
1.42574
1.42206
1.4102
1.38537
1.35297
1.32365
1.30257
1.27568
1.24602
1.22841
1.21219
1.19734
1.18837
1.18492
1.17673
1.17069
1.17995
1.21468
1.25746
1.27962
1.31241
3.70944
3.73296
3.73631
3.7271
3.6977
3.62569
3.4911
3.25414
2.99069
2.77239
2.51458
2.23878
2.10777
1.94449
1.96115
2.29164
2.93891
3.57885
4.04181
4.00969
3.87714
3.65873
3.41744
3.19361
2.9938
2.8455
2.71692
2.58706
2.46721
2.36823
2.27254
2.16581
2.05022
1.96436
1.90714
1.84559
1.76076
1.66604
1.62035
1.58281
1.53585
1.47755
1.41658
1.39354
1.35867
1.31298
1.27052
1.2336
1.23417
1.24684
1.283
1.35555
1.47559
1.63382
1.80056
1.93494
2.0391
2.11432
2.187
2.20476
2.18879
2.15224
2.07661
1.95552
1.90088
1.8862
1.87021
1.83755
1.79312
1.74481
1.68866
1.61275
1.53501
1.48951
1.46557
1.45091
1.43496
1.41335
1.38556
1.36229
1.33415
1.29452
1.26148
1.2409
1.22297
1.20239
1.18371
1.1712
1.16167
1.15109
1.13958
1.13648
1.14508
1.18397
1.2198
1.25717
3.72451
3.73922
3.73994
3.71741
3.6503
3.49848
3.28463
2.99317
2.7027
2.44647
2.22251
2.04525
1.87149
1.66572
1.58234
1.51934
1.61123
1.96887
2.74454
3.24101
3.49176
3.45581
3.31669
3.12188
2.89272
2.73685
2.63534
2.53123
2.42338
2.34499
2.27794
2.19564
2.09197
1.98492
1.92215
1.86832
1.79634
1.71805
1.68007
1.65053
1.61257
1.54665
1.48502
1.46595
1.4372
1.40496
1.40457
1.44766
1.56446
1.75489
1.97111
2.14766
2.32584
2.46385
2.46513
2.42375
2.40679
2.38525
2.3546
2.30938
2.2525
2.17322
2.06304
1.93883
1.88049
1.85521
1.82839
1.78657
1.73196
1.67176
1.61025
1.54983
1.49547
1.45421
1.42634
1.40904
1.39748
1.38427
1.36308
1.32969
1.29331
1.27347
1.25932
1.24121
1.22008
1.1999
1.17971
1.1645
1.15361
1.13862
1.12647
1.11783
1.11671
1.13094
1.16518
1.19999
3.73264
3.73792
3.72126
3.67687
3.52846
3.26993
2.99247
2.66561
2.37999
2.14689
1.96173
1.77376
1.58321
1.46988
1.39672
1.28824
1.17836
1.19577
1.43649
1.93892
2.5482
3.09721
3.09367
2.96869
2.8638
2.76432
2.66027
2.55919
2.45636
2.37181
2.31895
2.25527
2.15554
2.03666
1.98819
1.94864
1.89161
1.81786
1.78828
1.76398
1.72555
1.65739
1.59132
1.59014
1.6359
1.76882
1.98244
2.28623
2.57343
2.76122
2.79416
2.85683
2.86844
2.83848
2.77839
2.70768
2.63787
2.5664
2.48921
2.41013
2.3249
2.20897
2.0948
2.00521
1.91618
1.85631
1.81201
1.76885
1.71834
1.65652
1.58799
1.52959
1.48961
1.45532
1.4264
1.40711
1.39267
1.37777
1.35742
1.32904
1.29267
1.2697
1.26159
1.25194
1.23151
1.20555
1.1805
1.16125
1.14782
1.13448
1.12012
1.10891
1.10049
1.10265
1.12354
1.15381
3.7339
3.7309
3.69832
3.56258
3.2908
2.94592
2.64281
2.33803
2.04442
1.84134
1.68958
1.52722
1.3509
1.2824
1.21248
1.1041
1.0485
1.03486
1.05508
1.16072
1.44761
2.15042
2.67671
2.77395
2.80732
2.82778
2.75642
2.66662
2.58065
2.47718
2.40441
2.3482
2.26644
2.16558
2.12016
2.08095
2.02892
1.94922
1.91205
1.89006
1.84571
1.84989
1.92415
2.15039
2.46706
2.83951
3.10692
3.30364
3.3225
3.25075
3.07188
3.00162
2.94825
2.87603
2.79816
2.70897
2.60139
2.48955
2.39706
2.32054
2.24357
2.16151
2.07015
1.97853
1.90915
1.87252
1.8376
1.79194
1.75588
1.69892
1.61648
1.54398
1.50427
1.48169
1.46054
1.43796
1.41665
1.39149
1.35498
1.32408
1.30932
1.2926
1.27436
1.24995
1.21817
1.19683
1.1856
1.16867
1.15174
1.13711
1.12428
1.11278
1.10205
1.09565
1.1001
1.1206
3.74335
3.72102
3.58299
3.32319
2.95885
2.56107
2.25649
1.96796
1.70821
1.56016
1.43783
1.24823
1.13506
1.0988
1.04813
0.972128
0.948784
0.948037
0.94015
0.943172
0.989151
1.20659
1.78723
2.28303
2.70157
2.86154
2.85645
2.81423
2.78111
2.68675
2.54268
2.42958
2.34709
2.27887
2.23256
2.19501
2.14547
2.10305
2.09068
2.16113
2.34689
2.66074
3.05976
3.39452
3.64247
3.83858
3.84758
3.77397
3.63287
3.43949
3.27088
3.13519
3.00115
2.8891
2.7797
2.66502
2.55015
2.44615
2.36507
2.29184
2.21158
2.13136
2.05971
1.98497
1.9323
1.90207
1.87008
1.82543
1.74929
1.67198
1.61801
1.57487
1.53386
1.51033
1.50352
1.49596
1.47052
1.43207
1.37801
1.33172
1.32321
1.32463
1.30909
1.27298
1.23151
1.19875
1.19167
1.18717
1.17641
1.16417
1.14981
1.13343
1.11414
1.09491
1.08895
1.1001
3.74142
3.62187
3.32347
2.94684
2.50411
2.11328
1.86164
1.60627
1.36297
1.28405
1.20295
1.06291
1.02904
1.01998
0.984754
0.949945
0.940131
0.941215
0.939102
0.942127
0.950885
0.975783
1.11593
1.46895
2.03055
2.6203
2.78387
2.85802
2.87567
2.81923
2.69302
2.55036
2.43772
2.39936
2.36345
2.35334
2.41548
2.60119
2.96152
3.34823
3.74752
3.97161
4.15242
4.09893
4.06827
4.03345
3.94748
3.77397
3.51998
3.30413
3.17337
3.08413
3.00204
2.90786
2.80252
2.68291
2.56468
2.47087
2.39215
2.31042
2.21279
2.11203
2.04605
2.01512
1.99477
1.96482
1.91784
1.84766
1.73395
1.64858
1.63195
1.62332
1.5946
1.56168
1.53443
1.49782
1.44985
1.41263
1.39949
1.38052
1.35299
1.32352
1.29051
1.24982
1.22608
1.21036
1.18939
1.1668
1.1498
1.13702
1.12545
1.11552
1.10829
1.09844
1.09043
1.0932
3.6609
3.33432
2.8666
2.42092
1.96584
1.65262
1.44989
1.22419
1.07699
1.03752
0.979816
0.919884
0.919785
0.93866
0.945178
0.943388
0.946829
0.963955
0.981267
0.98837
0.995436
1.00822
1.02887
1.08074
1.25411
1.81071
2.39713
2.66252
2.84029
2.82617
2.78042
2.67593
2.64422
2.67967
2.81986
3.14491
3.67215
4.19883
4.58098
4.7162
4.82662
4.77979
4.67515
4.51149
4.32725
4.07862
3.82948
3.59341
3.39826
3.27003
3.17874
3.09546
3.01132
2.91222
2.8084
2.70088
2.5981
2.5077
2.42416
2.33247
2.22724
2.13715
2.08275
2.04327
2.00612
1.96711
1.91455
1.83815
1.73902
1.67209
1.64705
1.62169
1.59387
1.56826
1.54171
1.50607
1.46371
1.43158
1.40648
1.38624
1.36335
1.33098
1.29454
1.2611
1.23902
1.21874
1.19401
1.16979
1.15222
1.13984
1.12947
1.12159
1.11579
1.10717
1.09671
1.09479
3.35417
2.72502
2.24701
1.76861
1.39091
1.26942
1.15469
1.02704
1.0064
0.982757
0.929344
0.904032
0.912921
0.938811
0.968273
0.981257
0.995364
1.02113
1.02681
1.02069
1.01698
1.02294
1.02577
1.023
1.0289
1.12525
1.50901
1.91773
2.39177
2.68588
2.83496
3.07643
3.43882
3.81909
4.24983
4.67955
4.96051
5.03068
5.0614
5.09367
5.01286
4.85056
4.62515
4.39992
4.16924
3.93752
3.7116
3.55046
3.45603
3.36949
3.27808
3.17802
3.06726
2.94647
2.82878
2.73277
2.64524
2.55979
2.47333
2.38121
2.28846
2.21185
2.15409
2.10687
2.06276
2.01165
1.94457
1.86111
1.77662
1.72375
1.69095
1.65859
1.62596
1.59691
1.5704
1.53999
1.50465
1.46928
1.44063
1.41893
1.39361
1.36141
1.32726
1.29561
1.26864
1.24328
1.21429