/*--------------------------------*- C++ -*----------------------------------*\
  =========                 |
  \\      /  F ield         | OpenFOAM: The Open Source CFD Toolbox
   \\    /   O peration     | Website:  https://openfoam.org
    \\  /    A nd           | Version:  7
     \\/     M anipulation  |
\*---------------------------------------------------------------------------*/
FoamFile
{
    version     2.0;
    format      ascii;
    class       volScalarField;
    location    "0.7";
    object      rho;
}
// * * * * * * * * * * * * * * * * * * * * * * * * * * * * * * * * * * * * * //

dimensions      [1 -3 0 0 0 0 0];

internalField   nonuniform List<scalar> 
4608
(
1.40001
1.40001
1.40001
1.40001
1.40001
1.40001
1.40001
1.40001
1.40001
1.40001
1.40001
1.40001
1.40001
1.40001
1.40001
1.40001
1.40001
1.40001
1.40001
1.40001
1.40001
1.40001
1.40001
1.40001
1.40001
1.40001
1.40001
1.40001
1.40001
1.40001
1.40001
1.40001
1.40001
1.40001
1.40001
1.40001
1.40001
1.40001
1.40001
1.40001
1.40001
1.40001
1.40001
1.40001
1.40001
1.40001
1.40001
1.40001
1.40001
1.40001
1.40001
1.40001
1.40001
1.40001
1.40001
1.40001
1.40001
1.40001
1.40001
1.40001
1.40001
1.40001
1.40001
1.40001
1.40001
1.40001
1.40001
1.40001
1.40001
1.40001
1.40001
1.40001
1.40001
1.40001
1.40001
1.40001
1.40001
1.40001
1.40001
1.40001
1.40001
1.40001
1.40001
1.40001
1.40001
1.40001
1.40001
1.40001
1.40001
1.40001
1.40001
1.40001
1.40001
1.40001
1.40001
1.40001
1.40001
1.40001
1.40001
1.40001
1.40001
1.40001
1.40001
1.40001
1.40001
1.40001
1.40001
1.40001
1.40001
1.40001
1.40001
1.40001
1.40001
1.40001
1.40001
1.40001
1.40001
1.40001
1.40001
1.40001
1.40001
1.40001
1.40001
1.40001
1.40001
1.40001
1.40001
1.40001
1.40001
1.40001
1.40001
1.40001
1.40001
1.40001
1.40001
1.40001
1.40001
1.40001
1.40001
1.40001
1.40001
1.40001
1.40001
1.40001
1.40001
1.40001
1.40001
1.40001
1.40001
1.40001
1.40001
1.40001
1.40001
1.40001
1.40001
1.40001
1.40001
1.40001
1.40001
1.40001
1.40001
1.40001
1.40001
1.40001
1.40001
1.40001
1.40001
1.40001
1.40001
1.40001
1.40001
1.40001
1.40001
1.40001
1.40001
1.40001
1.40001
1.40001
1.40001
1.40001
1.40001
1.40001
1.40001
1.40001
1.40001
1.40001
1.40001
1.40001
1.40001
1.40001
1.40001
1.40001
1.40001
1.40001
1.40001
1.40001
1.40001
1.40001
1.40001
1.40001
1.40001
1.40001
1.40001
1.40001
1.40001
1.40001
1.40001
1.40001
1.40001
1.40001
1.40001
1.40001
1.40001
1.40001
1.40001
1.40001
1.40001
1.40001
1.40001
1.40001
1.40001
1.40001
1.40001
1.40001
1.40001
1.40001
1.40001
1.40001
1.40001
1.40001
1.40001
1.40001
1.40001
1.40001
1.40001
1.40001
1.40001
1.40001
1.40001
1.40001
1.40001
1.40001
1.40001
1.40001
1.40001
1.40001
1.40001
1.40001
1.40001
1.40001
1.40001
1.40001
1.40001
1.40001
1.40001
1.40001
1.40001
1.40001
1.40001
1.40001
1.40001
1.40001
1.40001
1.40001
1.40001
1.40001
1.40001
1.40001
1.40001
1.40001
1.40001
1.40001
1.40001
1.40001
1.40001
1.40001
1.40001
1.40001
1.40001
1.40001
1.40001
1.40001
1.40001
1.40001
1.40001
1.40001
1.40001
1.40001
1.40001
1.40001
1.40001
1.40001
1.40001
1.40001
1.40001
1.40001
1.40001
1.40001
1.40001
1.40001
1.40001
1.40001
1.40001
1.40001
1.40001
1.40001
1.40001
1.40001
1.40001
1.40001
1.40001
1.40001
1.40001
1.40001
1.40001
1.40001
1.40001
1.40001
1.40001
1.40001
1.40001
1.40001
1.40001
1.40001
1.40001
1.40001
1.40001
1.40001
1.40001
1.40001
1.40001
1.40001
1.40001
1.40001
1.40001
1.40001
1.40001
1.40001
1.40001
1.40001
1.40001
1.40001
1.40001
1.40001
1.40001
1.40001
1.40001
1.40001
1.40001
1.40001
1.40001
1.40001
1.40001
1.40001
1.40001
1.40001
1.40001
1.40001
1.40001
1.40001
1.40001
1.40001
1.40001
1.40001
1.40001
1.40001
1.40001
1.40001
1.40001
1.40001
1.40001
1.40001
1.40001
1.40001
1.40001
1.40001
1.40001
1.40001
1.40001
1.40001
1.40001
1.40001
1.40001
1.40001
1.40001
1.40001
1.40001
1.40001
1.40001
1.40001
1.40001
1.40001
1.40001
1.40001
1.40001
1.40001
1.40001
1.40001
1.40001
1.40001
1.40001
1.40001
1.40001
1.40001
1.40001
1.40001
1.40001
1.40001
1.40001
1.40001
1.40001
1.40001
1.40001
1.40001
1.40001
1.40001
1.40001
1.40001
1.40001
1.40001
1.40001
1.40001
1.40001
1.40001
1.40001
1.40001
1.40001
1.40001
1.40001
1.40001
1.40001
1.40001
1.40001
1.40001
1.40001
1.40001
1.40001
1.40001
1.40001
1.40001
1.40001
1.40001
1.40001
1.40001
1.40001
1.40001
1.40001
1.40001
1.40001
1.40001
1.40001
1.40001
1.40001
1.40001
1.40001
1.40001
1.40001
1.40001
1.40001
1.40001
1.40001
1.40001
1.40001
1.40001
1.40001
1.40001
1.40001
1.40001
1.40001
1.40001
1.40001
1.40001
1.40001
1.40001
1.40001
1.40001
1.40001
1.40001
1.40001
1.40001
1.40001
1.40001
1.40001
1.40001
1.40001
1.40001
1.40001
1.40001
1.40001
1.40001
1.40001
1.40001
1.40001
1.40001
1.40001
1.40001
1.40001
1.40001
1.40001
1.40001
1.40001
1.40001
1.40001
1.40001
1.40001
1.40001
1.40001
1.40001
1.40001
1.40001
1.40001
1.40001
1.40001
1.40001
1.40001
1.40001
1.40001
1.40001
1.40001
1.40001
1.40001
1.40001
1.40001
1.40001
1.40001
1.40001
1.40001
1.40001
1.40001
1.40001
1.40001
1.40001
1.40001
1.40001
1.40001
1.40001
1.40001
1.40001
1.40001
1.40001
1.40001
1.40001
1.40001
1.40001
1.40001
1.40001
1.40001
1.40001
1.40001
1.40001
1.40001
1.40001
1.40001
1.40001
1.40001
1.40001
1.40001
1.40001
1.40001
1.40001
1.40001
1.40001
1.40001
1.40001
1.40001
1.40001
1.40001
1.40001
1.40001
1.40001
1.40001
1.40001
1.40001
1.40001
1.40001
1.40001
1.40001
1.40001
1.40001
1.40001
1.40001
1.40001
1.40001
1.40001
1.40001
1.40001
1.40001
1.40001
1.40001
1.40001
1.40001
1.40001
1.40001
1.40001
1.40001
1.40001
1.40001
1.40001
1.40001
1.40001
1.40001
1.40001
1.40001
1.40001
1.40001
1.40001
1.40001
1.40001
1.40001
1.40001
1.40001
1.40001
1.40001
1.40001
1.40001
1.40001
1.40001
1.40001
1.40001
1.40001
1.40001
1.40001
1.40001
1.40001
1.40001
1.40001
1.40001
1.40001
1.40001
1.40001
1.40001
1.40001
1.40001
1.40001
1.40001
1.40001
1.40001
1.40001
1.40001
1.40001
1.40001
1.40001
1.40001
1.40001
1.40001
1.40001
1.40001
1.40001
1.40001
1.40001
1.40001
1.40001
1.40001
1.40001
1.40001
1.40001
1.40001
1.40001
1.40001
1.40001
1.40001
1.40001
1.40001
1.40001
1.40001
1.40001
1.40001
1.40001
1.40001
1.40001
1.40001
1.40001
1.40001
1.40001
1.40001
1.40001
1.40001
1.40001
1.40001
1.40001
1.40001
1.40001
1.40001
1.40001
1.40001
1.40001
1.40001
1.40001
1.40001
1.40001
1.40001
1.40001
1.40001
1.40001
1.40001
1.40001
1.40001
1.40001
1.40001
1.40001
1.40001
1.40001
1.40001
1.40001
1.40001
1.40001
1.40001
1.40001
1.40001
1.40001
1.40001
1.40001
1.40001
1.40001
1.40001
1.40001
1.40001
1.40001
1.40001
1.40001
1.40001
1.40001
1.40001
1.40001
1.40001
1.40001
1.40001
1.40001
1.40001
1.40001
1.40001
1.40001
1.40001
1.40001
1.40001
1.40001
1.40001
1.40001
1.40001
1.40001
1.40001
1.40001
1.40001
1.40001
1.40001
1.40001
1.40001
1.40001
1.40001
1.40001
1.40001
1.40001
1.40001
1.40001
1.40001
1.40001
1.40001
1.40001
1.40001
1.40001
1.40001
1.40001
1.40001
1.40001
1.40001
1.40001
1.40001
1.40001
1.67858
2.08135
2.53638
3.0016
3.41029
3.84701
4.12874
4.41507
4.41889
4.29437
4.04038
3.71495
3.44842
3.36924
3.3042
3.30015
3.32089
3.35423
3.38766
3.40068
3.40225
3.40256
3.40686
3.41657
1.40231
1.42022
1.4718
1.59109
1.79849
2.10599
2.50776
2.98728
3.36359
3.5248
3.67337
3.61458
3.53759
3.4894
3.44751
3.39079
3.36943
3.36516
3.37287
3.38675
3.39771
3.40447
3.40601
3.41211
1.4
1.40002
1.40001
1.40016
1.40323
1.42082
1.49813
1.70648
2.20128
2.87275
3.46564
3.69747
3.76451
3.71691
3.62812
3.47477
3.3639
3.33839
3.34226
3.3614
3.3842
3.39605
3.39846
3.40249
1.4
1.4
1.4
1.4
1.39999
1.40004
1.4
1.40141
1.43246
1.63249
2.19298
2.90725
3.46145
3.5738
3.54432
3.51742
3.44894
3.36289
3.33413
3.33691
3.34792
3.36022
3.36939
3.3743
1.40001
1.40001
1.40001
1.4
1.4
1.4
1.4
1.4
1.39991
1.40119
1.43379
1.69587
2.30279
3.02363
3.3614
3.54478
3.52611
3.45635
3.34403
3.30826
3.29662
3.29711
3.30789
3.32153
1.40001
1.40001
1.40001
1.40001
1.40001
1.4
1.4
1.4
1.39999
1.39999
1.39992
1.40347
1.45566
1.82286
2.47408
3.20549
3.41958
3.40479
3.38053
3.34959
3.30888
3.27782
3.27677
3.28705
1.40001
1.40001
1.40001
1.40001
1.40001
1.40001
1.40001
1.40001
1.4
1.4
1.39999
1.4
1.39998
1.41146
1.53024
2.02434
2.74161
3.27599
3.42377
3.41833
3.37506
3.32116
3.29731
3.29121
1.40001
1.40001
1.40001
1.40001
1.40001
1.40001
1.40001
1.40001
1.40001
1.40001
1.4
1.4
1.4
1.39997
1.40079
1.43259
1.69194
2.37776
2.97311
3.29151
3.37134
3.35779
3.31025
3.28931
1.40001
1.40001
1.40001
1.40001
1.40001
1.40001
1.40001
1.40001
1.40001
1.40001
1.40001
1.40001
1.4
1.4
1.4
1.40002
1.40688
1.51223
2.00823
2.76905
3.2467
3.27894
3.2996
3.28852
1.40001
1.40001
1.40001
1.40001
1.40001
1.40001
1.40001
1.40001
1.40001
1.40001
1.40001
1.40001
1.40001
1.4
1.4
1.4
1.39999
1.40121
1.4484
1.73663
2.44403
3.07727
3.35187
3.34252
1.40001
1.40001
1.40001
1.40001
1.40001
1.40001
1.40001
1.40001
1.40001
1.40001
1.40001
1.40001
1.40001
1.40001
1.40001
1.4
1.4
1.4
1.40029
1.41269
1.59887
2.20292
2.96032
3.15702
1.40001
1.40001
1.40001
1.40001
1.40001
1.40001
1.40001
1.40001
1.40001
1.40001
1.40001
1.40001
1.40001
1.40001
1.40001
1.40001
1.4
1.4
1.4
1.40002
1.40671
1.49767
2.00245
2.72308
1.40001
1.40001
1.40001
1.40001
1.40001
1.40001
1.40001
1.40001
1.40001
1.40001
1.40001
1.40001
1.40001
1.40001
1.40001
1.40001
1.40001
1.4
1.4
1.4
1.40001
1.40185
1.46322
1.81439
1.40001
1.40001
1.40001
1.40001
1.40001
1.40001
1.40001
1.40001
1.40001
1.40001
1.40001
1.40001
1.40001
1.40001
1.40001
1.40001
1.40001
1.40001
1.40001
1.4
1.4
1.4
1.40123
1.42402
1.40001
1.40001
1.40001
1.40001
1.40001
1.40001
1.40001
1.40001
1.40001
1.40001
1.40001
1.40001
1.40001
1.40001
1.40001
1.40001
1.40001
1.40001
1.40001
1.40001
1.4
1.4
1.40001
1.40004
1.40001
1.40001
1.40001
1.40001
1.40001
1.40001
1.40001
1.40001
1.40001
1.40001
1.40001
1.40001
1.40001
1.40001
1.40001
1.40001
1.40001
1.40001
1.40001
1.40001
1.40001
1.4
1.4
1.4
1.40001
1.40001
1.40001
1.40001
1.40001
1.40001
1.40001
1.40001
1.40001
1.40001
1.40001
1.40001
1.40001
1.40001
1.40001
1.40001
1.40001
1.40001
1.40001
1.40001
1.40001
1.4
1.4
1.4
1.40001
1.40001
1.40001
1.40001
1.40001
1.40001
1.40001
1.40001
1.40001
1.40001
1.40001
1.40001
1.40001
1.40001
1.40001
1.40001
1.40001
1.40001
1.40001
1.40001
1.4
1.4
1.40001
1.40004
1.40001
1.40001
1.40001
1.40001
1.40001
1.40001
1.40001
1.40001
1.40001
1.40001
1.40001
1.40001
1.40001
1.40001
1.40001
1.40001
1.40001
1.40001
1.40001
1.4
1.4
1.4
1.40123
1.42402
1.40001
1.40001
1.40001
1.40001
1.40001
1.40001
1.40001
1.40001
1.40001
1.40001
1.40001
1.40001
1.40001
1.40001
1.40001
1.40001
1.40001
1.4
1.4
1.4
1.40001
1.40185
1.46322
1.81439
1.40001
1.40001
1.40001
1.40001
1.40001
1.40001
1.40001
1.40001
1.40001
1.40001
1.40001
1.40001
1.40001
1.40001
1.40001
1.40001
1.4
1.4
1.4
1.40002
1.40671
1.49767
2.00245
2.72308
1.40001
1.40001
1.40001
1.40001
1.40001
1.40001
1.40001
1.40001
1.40001
1.40001
1.40001
1.40001
1.40001
1.40001
1.40001
1.4
1.4
1.4
1.40029
1.41269
1.59887
2.20292
2.96032
3.15702
1.40001
1.40001
1.40001
1.40001
1.40001
1.40001
1.40001
1.40001
1.40001
1.40001
1.40001
1.40001
1.40001
1.4
1.4
1.4
1.39999
1.40121
1.4484
1.73663
2.44403
3.07727
3.35187
3.34252
1.40001
1.40001
1.40001
1.40001
1.40001
1.40001
1.40001
1.40001
1.40001
1.40001
1.40001
1.40001
1.4
1.4
1.4
1.40002
1.40688
1.51223
2.00823
2.76905
3.2467
3.27894
3.2996
3.28852
1.40001
1.40001
1.40001
1.40001
1.40001
1.40001
1.40001
1.40001
1.40001
1.40001
1.4
1.4
1.4
1.39997
1.40079
1.43259
1.69194
2.37776
2.97311
3.29151
3.37134
3.35779
3.31025
3.28931
1.40001
1.40001
1.40001
1.40001
1.40001
1.40001
1.40001
1.40001
1.4
1.4
1.39999
1.4
1.39998
1.41146
1.53024
2.02434
2.74161
3.27599
3.42377
3.41833
3.37506
3.32116
3.29731
3.29121
1.40001
1.40001
1.40001
1.40001
1.40001
1.4
1.4
1.4
1.39999
1.39999
1.39992
1.40347
1.45566
1.82286
2.47408
3.20549
3.41958
3.40479
3.38053
3.34959
3.30888
3.27782
3.27677
3.28705
1.40001
1.40001
1.40001
1.4
1.4
1.4
1.4
1.4
1.39991
1.40119
1.43379
1.69587
2.30279
3.02363
3.3614
3.54478
3.52611
3.45635
3.34403
3.30826
3.29662
3.29711
3.30789
3.32153
1.4
1.4
1.4
1.4
1.39999
1.40004
1.4
1.40141
1.43246
1.63249
2.19298
2.90725
3.46145
3.5738
3.54432
3.51742
3.44894
3.36289
3.33413
3.33691
3.34792
3.36022
3.36939
3.3743
1.4
1.40002
1.40001
1.40016
1.40323
1.42082
1.49813
1.70648
2.20128
2.87275
3.46564
3.69747
3.76451
3.71691
3.62812
3.47477
3.3639
3.33839
3.34226
3.3614
3.3842
3.39605
3.39846
3.40249
1.40231
1.42022
1.4718
1.59109
1.79849
2.10599
2.50776
2.98728
3.36359
3.5248
3.67337
3.61458
3.53759
3.4894
3.44751
3.39079
3.36943
3.36516
3.37287
3.38675
3.39771
3.40447
3.40601
3.41211
1.67858
2.08135
2.53638
3.0016
3.41029
3.84701
4.12874
4.41507
4.41889
4.29437
4.04038
3.71495
3.44842
3.36924
3.3042
3.30015
3.32089
3.35423
3.38766
3.40068
3.40225
3.40256
3.40686
3.41657
2.64873
1.95827
1.45506
1.04929
0.963747
0.998971
0.98527
0.98806
1.04792
1.13328
1.18514
1.21452
1.2513
1.29292
1.31453
1.31983
1.33326
1.35066
1.3505
1.34078
1.32362
1.31831
1.31452
1.30875
1.30161
1.29226
1.32139
1.44245
1.73704
2.34626
3.02345
3.55386
4.04749
4.46449
4.75149
4.82146
4.70606
4.5033
4.25733
4.04269
3.87602
3.746
3.61965
3.49104
3.34991
3.20929
3.09202
3.01325
2.9544
2.90641
2.85571
2.79433
2.7167
2.6266
2.54328
2.48266
2.4325
2.37891
2.31915
2.25608
2.19527
2.14266
2.10324
2.0766
2.05271
2.02031
1.96863
1.89791
1.83471
1.81054
1.79804
1.78256
1.76117
1.73583
1.70839
1.67875
1.64998
1.62645
1.60957
1.59391
1.57291
1.54302
1.50795
1.47821
1.45782
1.4395
1.41868
1.40178
1.39306
1.38773
1.38264
1.37698
1.36951
1.35808
1.35316
1.35993
3.14444
2.70745
2.356
1.98739
1.68402
1.57107
1.46096
1.33974
1.31306
1.28746
1.23623
1.20611
1.21355
1.23659
1.26481
1.27751
1.29114
1.31552
1.31947
1.31311
1.30886
1.31394
1.31699
1.31376
1.31888
1.39922
1.69483
2.00268
2.34343
2.546
2.63528
2.77966
3.00064
3.23793
3.5027
3.75518
3.9133
3.9446
3.95741
3.96731
3.91901
3.82242
3.6882
3.55586
3.42216
3.28738
3.1531
3.05409
2.99425
2.93992
2.88323
2.82102
2.75106
2.6735
2.59741
2.53597
2.48043
2.4256
2.36819
2.30447
2.23867
2.18388
2.14308
2.11087
2.0819
2.0485
2.00331
1.94433
1.88332
1.84685
1.82586
1.80562
1.78526
1.76578
1.74526
1.71988
1.69054
1.66219
1.64039
1.6246
1.60505
1.57802
1.54729
1.51798
1.49374
1.47276
1.45066
1.43259
1.42342
1.41768
1.41189
1.40588
1.4
1.39159
1.38471
1.3875
3.34023
3.12564
2.80492
2.48818
2.148
1.89536
1.72611
1.53089
1.39524
1.35835
1.30364
1.24162
1.24028
1.25746
1.26425
1.26257
1.26582
1.28172
1.29726
1.30301
1.30876
1.31987
1.33758
1.38196
1.52541
1.94596
2.35384
2.54059
2.66126
2.65079
2.61729
2.54133
2.51388
2.53531
2.62389
2.82807
3.14829
3.45203
3.66115
3.73846
3.80263
3.77499
3.71149
3.61427
3.50784
3.36552
3.22015
3.07782
2.9561
2.87529
2.81816
2.76629
2.71365
2.65072
2.58417
2.51489
2.44862
2.39003
2.33468
2.2718
2.1977
2.13317
2.09407
2.06668
2.04195
2.0167
1.98196
1.92852
1.85618
1.80854
1.79298
1.77716
1.75963
1.74258
1.72241
1.69302
1.65776
1.6318
1.61231
1.59716
1.57929
1.5519
1.51923
1.48843
1.46836
1.45125
1.43198
1.41479
1.40308
1.39428
1.38596
1.37903
1.37415
1.36889
1.36564
1.3712
3.36677
3.29613
3.1052
2.85394
2.54557
2.25518
2.06212
1.86002
1.65623
1.58633
1.51467
1.38542
1.35288
1.344
1.31026
1.27587
1.26591
1.26709
1.26509
1.26778
1.27559
1.29805
1.41904
1.70174
2.12186
2.51836
2.6219
2.6732
2.68448
2.64455
2.55499
2.45252
2.37121
2.34212
2.31514
2.30564
2.34524
2.45963
2.67931
2.91845
3.16456
3.29853
3.40013
3.36719
3.3505
3.33397
3.28758
3.18524
3.02936
2.89439
2.81233
2.75686
2.70625
2.64749
2.58056
2.50339
2.42637
2.36541
2.31393
2.25889
2.19058
2.11862
2.0714
2.04988
2.03689
2.0177
1.98641
1.9375
1.85411
1.79214
1.78317
1.77924
1.76
1.73664
1.71615
1.68642
1.64653
1.61598
1.6056
1.59066
1.56863
1.54362
1.51428
1.47762
1.45594
1.44228
1.4255
1.40884
1.39754
1.38934
1.38135
1.37375
1.36829
1.3626
1.36135
1.36948
3.34156
3.33294
3.25266
3.09089
2.85297
2.5768
2.35722
2.14453
1.9409
1.81589
1.71135
1.54802
1.44779
1.41464
1.36755
1.29492
1.27291
1.27336
1.26676
1.26922
1.30978
1.49225
1.93876
2.29253
2.57201
2.66896
2.6644
2.63473
2.61016
2.54279
2.44115
2.36107
2.3025
2.25381
2.2201
2.19251
2.1564
2.12584
2.11536
2.16273
2.28549
2.48579
2.73447
2.93888
3.08929
3.2125
3.22156
3.17985
3.09548
2.97695
2.8726
2.78851
2.70509
2.63495
2.56551
2.49187
2.41702
2.34945
2.29686
2.24811
2.19216
2.13523
2.0852
2.03279
1.99631
1.97616
1.95441
1.9233
1.86831
1.81232
1.77381
1.74265
1.71262
1.69567
1.69073
1.68446
1.66312
1.63114
1.58653
1.54876
1.54197
1.54298
1.52906
1.49615
1.45831
1.43028
1.42647
1.42461
1.41802
1.41098
1.40176
1.3891
1.37324
1.3607
1.36045
1.37441
3.31252
3.31655
3.3032
3.22533
3.05697
2.83092
2.62518
2.4118
2.19398
2.03355
1.91248
1.78092
1.63215
1.57203
1.51128
1.41425
1.36414
1.35401
1.37224
1.46124
1.68584
2.19878
2.55167
2.61126
2.62452
2.63514
2.58696
2.52585
2.46646
2.39354
2.34063
2.29987
2.2423
2.17192
2.13994
2.11167
2.07369
2.01528
1.98942
1.97541
1.94578
1.94686
1.99638
2.14764
2.35776
2.60258
2.77646
2.90059
2.91242
2.86811
2.75674
2.71309
2.67942
2.63322
2.58324
2.52572
2.45638
2.38395
2.32389
2.27353
2.22133
2.16383
2.09889
2.03396
1.98491
1.9594
1.935
1.90241
1.8773
1.83609
1.77457
1.71981
1.68994
1.67268
1.65572
1.63691
1.61868
1.5972
1.56645
1.54056
1.52819
1.5142
1.49816
1.47528
1.44588
1.42796
1.41962
1.40669
1.39484
1.38588
1.37802
1.36988
1.36291
1.36173
1.3674
1.39073
3.29871
3.30672
3.30085
3.2787
3.19114
3.02898
2.84915
2.63036
2.42813
2.25501
2.11441
1.97062
1.81928
1.72554
1.66426
1.57182
1.47624
1.48934
1.67521
2.0402
2.45611
2.81515
2.81207
2.72651
2.65434
2.58592
2.51566
2.44812
2.37877
2.32003
2.28144
2.23569
2.16524
2.08181
2.04844
2.02035
1.9787
1.92391
1.90273
1.88608
1.85947
1.81
1.76101
1.75977
1.79355
1.88939
2.04115
2.25081
2.44366
2.57123
2.59579
2.63692
2.64251
2.62289
2.58387
2.53762
2.49315
2.44724
2.39734
2.34561
2.28816
2.2064
2.1232
2.05758
1.99334
1.95101
1.92004
1.88936
1.85203
1.80562
1.75389
1.70949
1.67882
1.65171
1.62783
1.61098
1.59802
1.58493
1.56766
1.54359
1.51271
1.4925
1.48438
1.47475
1.45591
1.4334
1.41222
1.39708
1.38832
1.38026
1.37138
1.36552
1.36208
1.36516
1.38516
1.41757
3.29258
3.30251
3.30415
3.29271
3.25421
3.16133
3.02652
2.8371
2.63897
2.45885
2.29885
2.16957
2.03783
1.87531
1.81158
1.7596
1.82464
2.0762
2.59021
2.90335
3.05973
3.03791
2.95039
2.82369
2.67098
2.56587
2.49752
2.42795
2.35554
2.30232
2.25667
2.19885
2.12505
2.04934
2.00587
1.96793
1.9154
1.85666
1.82789
1.80578
1.77781
1.72863
1.68259
1.66908
1.64703
1.62057
1.62119
1.65406
1.74212
1.88417
2.04356
2.17108
2.2939
2.38797
2.3919
2.36527
2.35152
2.33596
2.31578
2.28587
2.24678
2.18943
2.10817
2.01553
1.97314
1.95558
1.93665
1.90667
1.86641
1.82102
1.77392
1.72711
1.68439
1.65118
1.62783
1.61249
1.60186
1.59
1.57157
1.54295
1.51167
1.49373
1.4802
1.46315
1.44347
1.42529
1.40831
1.39698
1.39016
1.38084
1.37582
1.37362
1.37405
1.38745
1.41916
1.45439
3.28821
3.30155
3.30408
3.29842
3.27956
3.23385
3.14838
2.99597
2.82131
2.67465
2.49748
2.30298
2.20854
2.08561
2.09403
2.30992
2.72194
3.11849
3.38964
3.36899
3.29006
3.15998
3.01218
2.87015
2.73942
2.64136
2.55633
2.47004
2.39001
2.32393
2.25907
2.18536
2.1031
2.04044
1.99973
1.95687
1.8959
1.82439
1.78877
1.75957
1.72341
1.6785
1.63161
1.61516
1.58827
1.55139
1.51621
1.48575
1.48648
1.49721
1.52626
1.58357
1.6756
1.79542
1.92244
2.0245
2.1012
2.15447
2.20595
2.22235
2.21154
2.18574
2.13051
2.04012
1.99752
1.98639
1.97503
1.95157
1.91924
1.88318
1.83993
1.78009
1.71768
1.68022
1.6598
1.64683
1.63278
1.61395
1.58973
1.56854
1.54287
1.50798
1.47896
1.45998
1.44298
1.424
1.40808
1.39889
1.39329
1.38925
1.38708
1.38753
1.396
1.43141
1.46439
1.50088
3.32534
3.32291
3.32166
3.31572
3.29834
3.26088
3.21023
3.121
2.97664
2.84165
2.6724
2.50508
2.40894
2.53681
2.96255
3.54525
3.80755
3.83139
3.76756
3.62302
3.44913
3.28861
3.13948
2.99285
2.85564
2.74061
2.63922
2.5388
2.44201
2.35918
2.28192
2.19805
2.10823
2.04843
2.01046
1.96354
1.89407
1.81761
1.7766
1.74256
1.69987
1.65188
1.60681
1.58105
1.55253
1.5084
1.47018
1.43741
1.42309
1.41111
1.38325
1.35005
1.33343
1.34394
1.37976
1.46251
1.57248
1.6867
1.78903
1.90097
1.97887
2.01095
2.00101
1.96552
1.92284
1.90517
1.89455
1.88113
1.85802
1.83056
1.80014
1.75545
1.69802
1.65077
1.63219
1.62771
1.62384
1.61291
1.59081
1.5616
1.53408
1.51367
1.48879
1.46238
1.44581
1.43083
1.41792
1.41114
1.41143
1.41153
1.41211
1.42165
1.45382
1.49326
1.51421
1.54684
3.27661
3.36286
3.3657
3.35385
3.32334
3.28205
3.25166
3.20407
3.10828
3.001
2.83813
2.89314
3.2628
3.80838
4.28049
4.31135
4.22549
4.0705
3.88526
3.71024
3.54373
3.39567
3.26497
3.13316
2.99923
2.87169
2.74854
2.62261
2.49784
2.39042
2.30657
2.2339
2.16131
2.09999
2.04487
1.97722
1.88686
1.8108
1.77749
1.74088
1.69449
1.64569
1.60079
1.5613
1.52776
1.48817
1.44772
1.41897
1.40091
1.37702
1.33755
1.29234
1.25997
1.23128
1.21864
1.21286
1.21369
1.23331
1.27037
1.33734
1.44327
1.56818
1.65306
1.71806
1.74931
1.76344
1.78926
1.82116
1.81812
1.80072
1.77995
1.75241
1.70935
1.66648
1.65189
1.64998
1.64751
1.63747
1.61787
1.58041
1.55042
1.53651
1.50969
1.47188
1.45371
1.44683
1.43973
1.43864
1.44267
1.44721
1.46685
1.50432
1.54022
1.55994
1.5788
1.60336
3.23561
3.36317
3.36372
3.34897
3.3284
3.30053
3.25912
3.23626
3.19625
3.18872
3.47739
4.19859
4.82223
5.02786
4.96107
4.7463
4.4636
4.22586
4.02265
3.83753
3.66933
3.51465
3.36591
3.21562
3.07367
2.95219
2.83924
2.71407
2.58505
2.47168
2.37129
2.28832
2.22946
2.16805
2.08942
2.00775
1.90965
1.82268
1.79664
1.7771
1.73494
1.67952
1.61386
1.54205
1.50595
1.4849
1.45854
1.42978
1.395
1.35717
1.31453
1.26903
1.2305
1.19993
1.18655
1.17326
1.15601
1.12149
1.09271
1.09326
1.10918
1.15163
1.21384
1.27386
1.33631
1.40997
1.47723
1.55751
1.62912
1.65201
1.66191
1.66195
1.64691
1.61318
1.60572
1.60731
1.60972
1.60342
1.59013
1.56378
1.52905
1.51299
1.50298
1.48633
1.47484
1.47475
1.48059
1.48613
1.48566
1.50656
1.55669
1.59519
1.61126
1.628
1.65123
1.66135
2.62075
3.08403
3.26497
3.36997
3.38314
3.37245
3.30513
3.28807
3.43776
4.12714
5.13807
5.59366
5.51162
5.33089
5.11784
4.89594
4.67331
4.45296
4.22996
4.00684
3.79985
3.61512
3.44872
3.29319
3.14132
2.99328
2.85715
2.74568
2.65104
2.55768
2.45992
2.35898
2.25161
2.1473
2.05467
1.97612
1.9218
1.87849
1.82943
1.76749
1.70251
1.63362
1.56697
1.52113
1.49072
1.45749
1.42114
1.388
1.35807
1.32768
1.29127
1.24951
1.21106
1.1799
1.16347
1.14679
1.12314
1.08961
1.05645
1.04653
1.04144
1.03494
1.02596
1.01094
1.00877
1.0238
1.0644
1.12934
1.21588
1.30142
1.36682
1.42103
1.4663
1.4906
1.50548
1.52752
1.56154
1.57142
1.5677
1.55207
1.53146
1.52404
1.52087
1.52011
1.5176
1.53016
1.539
1.54194
1.56597
1.62921
1.67988
1.69434
1.70182
1.71644
1.71927
1.72227
1.72101
2.42666
2.9577
3.25071
3.32108
3.36065
3.46446
3.87259
4.88124
5.91526
6.31654
6.21478
5.87934
5.49248
5.20777
5.01124
4.82669
4.6145
4.37845
4.13889
3.91396
3.71226
3.53204
3.36653
3.20315
3.04878
2.91476
2.79832
2.6923
2.58813
2.48142
2.37161
2.26246
2.16763
2.08794
2.01861
1.95676
1.89754
1.83679
1.77049
1.7017
1.63351
1.57408
1.53039
1.49257
1.45414
1.41641
1.38209
1.35043
1.31791
1.28105
1.24002
1.20125
1.17225
1.15533
1.13581
1.10861
1.0722
1.04571
1.03758
1.02845
1.01348
0.991724
0.964464
0.937097
0.912384
0.897487
0.89888
0.910163
0.940411
0.987241
1.03957
1.10904
1.18635
1.24962
1.30645
1.374
1.43419
1.46244
1.47838
1.49619
1.50827
1.51193
1.51626
1.53577
1.56911
1.59465
1.62983
1.69929
1.73896
1.75206
1.75299
1.75389
1.75309
1.74926
1.75119
1.42344
1.61963
2.20674
2.87568
3.16833
3.66632
4.48228
5.56638
6.28864
6.46981
6.39239
6.25538
6.03876
5.73384
5.42013
5.15072
4.90571
4.66844
4.43904
4.21879
4.00879
3.80802
3.61594
3.43944
3.30266
3.17398
3.03191
2.89357
2.76925
2.66126
2.55645
2.45408
2.36274
2.28219
2.20368
2.12235
2.04113
1.96507
1.89329
1.82251
1.75334
1.69007
1.63456
1.58307
1.53447
1.49102
1.45177
1.41505
1.37885
1.34145
1.30172
1.25991
1.22107
1.1919
1.17004
1.14448
1.11125
1.07518
1.05471
1.04383
1.02975
1.00645
0.979593
0.950601
0.923457
0.899997
0.873555
0.866994
0.868216
0.872993
0.873425
0.869444
0.876142
0.897145
0.932611
0.981173
1.04408
1.12058
1.19862
1.2679
1.33541
1.40424
1.46585
1.51368
1.56452
1.62343
1.68563
1.75773
1.81826
1.83713
1.83896
1.83838
1.83593
1.83149
1.82752
1.8242
1.40047
1.41303
1.56235
2.14559
3.33114
4.64267
5.78694
6.72479
7.01348
6.76637
6.4004
6.21955
6.06382
5.85542
5.56261
5.23216
4.91972
4.65234
4.42351
4.21708
4.02522
3.8365
3.6505
3.47316
3.29532
3.11912
2.95712
2.81417
2.69557
2.5911
2.49157
2.39659
2.3104
2.23123
2.15158
2.06806
1.98647
1.91236
1.84195
1.77117
1.70323
1.64289
1.58976
1.54081
1.49496
1.45289
1.41391
1.37574
1.3383
1.30266
1.26724
1.22888
1.18976
1.1611
1.14155
1.11706
1.08104
1.04649
1.02962
1.01984
1.00829
0.990949
0.967535
0.938563
0.911307
0.889496
0.866107
0.861194
0.862556
0.865634
0.862004
0.847868
0.8319
0.828913
0.830854
0.837846
0.848122
0.865856
0.896887
0.943045
1.00926
1.10384
1.22916
1.38458
1.54928
1.7007
1.83932
1.90902
1.93464
1.96323
1.99131
2.00305
1.99929
1.98601
1.98524
1.9584
1.40047
1.41303
1.56235
2.14559
3.33114
4.64267
5.78694
6.72479
7.01348
6.76637
6.4004
6.21955
6.06382
5.85542
5.56261
5.23216
4.91972
4.65234
4.42351
4.21708
4.02522
3.8365
3.6505
3.47316
3.29532
3.11912
2.95712
2.81417
2.69557
2.5911
2.49157
2.39659
2.3104
2.23123
2.15158
2.06806
1.98647
1.91236
1.84195
1.77117
1.70323
1.64289
1.58976
1.54081
1.49496
1.45289
1.41391
1.37574
1.3383
1.30266
1.26724
1.22888
1.18976
1.1611
1.14155
1.11706
1.08104
1.04649
1.02962
1.01984
1.00829
0.990949
0.967535
0.938563
0.911307
0.889496
0.866108
0.861194
0.862555
0.865633
0.862004
0.847869
0.831902
0.828909
0.830883
0.837421
0.852515
0.879846
0.927759
0.997697
1.09641
1.23013
1.39214
1.55491
1.68336
1.78667
1.89008
1.95602
1.97507
1.9866
1.99922
2.00508
2.00629
1.99857
1.98908
1.95141
1.42344
1.61963
2.20674
2.87568
3.16833
3.66632
4.48228
5.56638
6.28864
6.46981
6.39239
6.25538
6.03876
5.73384
5.42013
5.15072
4.90571
4.66844
4.43904
4.21879
4.00879
3.80802
3.61594
3.43944
3.30266
3.17398
3.03191
2.89357
2.76925
2.66127
2.55645
2.45408
2.36274
2.28219
2.20368
2.12235
2.04113
1.96507
1.89329
1.82251
1.75334
1.69007
1.63456
1.58307
1.53447
1.49102
1.45177
1.41505
1.37885
1.34145
1.30172
1.25991
1.22107
1.1919
1.17004
1.14448
1.11125
1.07518
1.05471
1.04383
1.02975
1.00645
0.979594
0.950602
0.923455
0.899997
0.873558
0.866993
0.868213
0.872992
0.873421
0.869456
0.876174
0.897038
0.932741
0.981063
1.04377
1.12112
1.19974
1.27204
1.34474
1.41877
1.48502
1.53423
1.59764
1.66578
1.73551
1.81949
1.8856
1.88683
1.88309
1.88418
1.88406
1.87888
1.86225
1.83025
1.72101
2.42666
2.9577
3.25071
3.32108
3.36065
3.46446
3.87259
4.88124
5.91526
6.31654
6.21478
5.87934
5.49248
5.20777
5.01124
4.82669
4.6145
4.37845
4.13889
3.91396
3.71226
3.53204
3.36653
3.20315
3.04878
2.91476
2.79832
2.6923
2.58813
2.48142
2.37161
2.26246
2.16763
2.08794
2.01861
1.95676
1.89754
1.83679
1.77049
1.7017
1.63351
1.57408
1.53039
1.49257
1.45414
1.41641
1.38209
1.35043
1.31791
1.28105
1.24001
1.20125
1.17225
1.15533
1.13581
1.10861
1.0722
1.04571
1.03758
1.02845
1.01348
0.991725
0.964463
0.937096
0.912385
0.897487
0.898873
0.910178
0.940405
0.987209
1.03963
1.10911
1.18617
1.24965
1.30636
1.37401
1.43393
1.46205
1.47865
1.49656
1.50784
1.51205
1.51802
1.53944
1.57517
1.5988
1.63045
1.69747
1.73949
1.7581
1.76071
1.76069
1.75848
1.75194
1.75088
2.62075
3.08403
3.26497
3.36997
3.38314
3.37245
3.30513
3.28807
3.43776
4.12714
5.13807
5.59366
5.51162
5.33089
5.11784
4.89594
4.67331
4.45296
4.22996
4.00684
3.79985
3.61512
3.44872
3.29319
3.14132
2.99328
2.85715
2.74568
2.65104
2.55768
2.45992
2.35898
2.25161
2.1473
2.05467
1.97612
1.9218
1.87849
1.82943
1.76749
1.70251
1.63362
1.56697
1.52113
1.49072
1.45749
1.42114
1.388
1.35807
1.32768
1.29127
1.24951
1.21106
1.1799
1.16347
1.14679
1.12314
1.08961
1.05645
1.04653
1.04144
1.03494
1.02596
1.01094
1.00876
1.02381
1.06439
1.12932
1.21599
1.3013
1.3668
1.42116
1.46612
1.4907
1.50547
1.52747
1.56123
1.57161
1.56811
1.55201
1.53077
1.52401
1.52145
1.52117
1.51872
1.53001
1.53962
1.54257
1.56445
1.62642
1.67798
1.69297
1.70064
1.71545
1.7186
1.72195
3.23561
3.36317
3.36372
3.34897
3.3284
3.30053
3.25912
3.23626
3.19625
3.18872
3.47739
4.19859
4.82223
5.02786
4.96107
4.7463
4.4636
4.22586
4.02265
3.83753
3.66933
3.51465
3.36591
3.21562
3.07367
2.95219
2.83924
2.71407
2.58505
2.47168
2.37129
2.28832
2.22946
2.16805
2.08942
2.00775
1.90965
1.82268
1.79664
1.7771
1.73494
1.67952
1.61386
1.54205
1.50595
1.4849
1.45854
1.42978
1.395
1.35717
1.31453
1.26903
1.2305
1.19993
1.18655
1.17326
1.15601
1.12149
1.09271
1.09326
1.10918
1.15163
1.21386
1.27384
1.33633
1.40996
1.47718
1.55769
1.62895
1.65192
1.66207
1.66196
1.64675
1.61321
1.60578
1.60735
1.60972
1.60342
1.59024
1.56338
1.52813
1.51318
1.504
1.48671
1.47479
1.47476
1.48105
1.48688
1.48623
1.50712
1.5561
1.59432
1.61083
1.62773
1.6507
1.66151
3.27661
3.36286
3.3657
3.35385
3.32334
3.28205
3.25166
3.20407
3.10828
3.001
2.83813
2.89314
3.2628
3.80838
4.28049
4.31135
4.22549
4.0705
3.88526
3.71024
3.54373
3.39567
3.26497
3.13316
2.99923
2.87169
2.74854
2.62261
2.49784
2.39042
2.30657
2.2339
2.16131
2.09999
2.04487
1.97722
1.88686
1.8108
1.77749
1.74088
1.69449
1.64569
1.60079
1.56129
1.52776
1.48817
1.44772
1.41897
1.40091
1.37702
1.33755
1.29234
1.25997
1.23128
1.21864
1.21286
1.21369
1.23331
1.27038
1.33734
1.44326
1.5682
1.65305
1.71808
1.74932
1.76341
1.78928
1.82121
1.8181
1.8007
1.77997
1.75241
1.70926
1.66648
1.65198
1.65005
1.64756
1.6375
1.61787
1.5804
1.55012
1.53645
1.5093
1.47108
1.4533
1.44695
1.44033
1.43948
1.44335
1.44788
1.46746
1.50419
1.54034
1.56019
1.57861
1.6034
3.32534
3.32291
3.32166
3.31572
3.29834
3.26088
3.21023
3.121
2.97664
2.84165
2.6724
2.50508
2.40894
2.53681
2.96255
3.54525
3.80755
3.83139
3.76756
3.62302
3.44913
3.28861
3.13948
2.99285
2.85564
2.74061
2.63922
2.5388
2.44201
2.35918
2.28192
2.19805
2.10823
2.04843
2.01046
1.96354
1.89407
1.81761
1.7766
1.74256
1.69987
1.65188
1.60681
1.58105
1.55253
1.5084
1.47018
1.43741
1.42309
1.41111
1.38325
1.35005
1.33343
1.34394
1.37976
1.46251
1.57248
1.6867
1.78904
1.90095
1.97888
2.01096
2.001
1.96552
1.92282
1.90517
1.89456
1.88114
1.85801
1.83054
1.80016
1.75547
1.69792
1.65075
1.63228
1.62777
1.62388
1.61295
1.59081
1.56138