/*--------------------------------*- C++ -*----------------------------------*\
  =========                 |
  \\      /  F ield         | OpenFOAM: The Open Source CFD Toolbox
   \\    /   O peration     | Website:  https://openfoam.org
    \\  /    A nd           | Version:  7
     \\/     M anipulation  |
\*---------------------------------------------------------------------------*/
FoamFile
{
    version     2.0;
    format      ascii;
    class       volScalarField;
    location    "0.7";
    object      T;
}
// * * * * * * * * * * * * * * * * * * * * * * * * * * * * * * * * * * * * * //

dimensions      [0 0 0 1 0 0 0];

internalField   nonuniform List<scalar> 
4608
(
1
1
1
1
1
1
1
1
1
1
1
1
1
1
1
1
1
1
1
1
1
1
1
1
1
1
1
1
1
1
1
1
1
1
1
1
1
1
1
1
1
1
1
1
1
1
1
1
1
1
1
1
1
1
1
1
1
1
1
1
1
1
1
1
1
1
1
1
1
1
1
1
1
1
1
1
1
1
1
1
1
1
1
1
1
1
1
1
1
1
1
1
1
1
1
1
1
1
1
1
1
1
1
1
1
1
1
1
1
1
1
1
1
1
1
1
1
1
1
1
1
1
1
1
1
1
1
1
1
1
1
1
1
1
1
1
1
1
1
1
1
1
1
1
1
1
1
1
1
1
1
1
1
1
1
1
1
1
1
1
1
1
1
1
1
1
1
1
1
1
1
1
1
1
1
1
1
1
1
1
1
1
1
1
1
1
1
1
1
1
1
1
1
1
1
1
1
1
1
1
1
1
1
1
1
1
1
1
1
1
1
1
1
1
1
1
1
1
1
1
1
1
1
1
1
1
1
1
1
1
1
1
1
1
1
1
1
1
1
1
1
1
1
1
1
1
1
1
1
1
1
1
1
1
1
1
1
1
1
1
1
1
1
1
1
1
1
1
1
1
1
1
1
1
1
1
1
1
1
1
1
1
1
1
1
1
1
1
1
1
1
1
1
1
1
1
1
1
1
1
1
1
1
1
1
1
1
1
1
1
1
1
1
1
1
1
1
1
1
1
1
1
1
1
1
1
1
1
1
1
1
1
1
1
1
1
1
1
1
1
1
1
1
1
1
1
1
1
1
1
1
1
1
1
1
1
1
1
1
1
1
1
1
1
1
1
1
1
1
1
1
1
1
1
1
1
1
1
1
1
1
1
1
1
1
1
1
1
1
1
1
1
1
1
1
1
1
1
1
1
1
1
1
1
1
1
1
1
1
1
1
1
1
1
1
1
1
1
1
1
1
1
1
1
1
1
1
1
1
1
1
1
1
1
1
1
1
1
1
1
1
1
1
1
1
1
1
1
1
1
1
1
1
1
1
1
1
1
1
1
1
1
1
1
1
1
1
1
1
1
1
1
1
1
1
1
1
1
1
1
1
1
1
1
1
1
1
1
1
1
1
1
1
1
1
1
1
1
1
1
1
1
1
1
1
1
1
1
1
1
1
1
1
1
1
1
1
1
1
1
1
1
1
1
1
1
1
1
1
1
1
1
1
1
1
1
1
1
1
1
1
1
1
1
1
1
1
1
1
1
1
1
1
1
1
1
1
1
1
1
1
1
1
1
1
1
1
1
1
1
1
1
1
1
1
1
1
1
1
1
1
1
1
1
1
1
1
1
1
1
1
1
1
1
1
1
1
1
1
1
1
1
1
1
1
1
1
1
1
1
1
1
1
1
1
1
1
1
1
1
1
1
1
1
1
1
1
1
1
1
1
1
1
1
1
1
1
1
1
1
1
1
1
1
1
1
1
1
1
1
1
1
1
1
1
1
1
1
1
1
1
1
1
1
1
1
1
1
1
1
1
1
1
1
1
1
1
1
1
1
1
1
1
1
1
1
1
1
1
1
1
1
1
1
1
1
1
1
1
1
1
1
1
1
1
1
1
1
1
1
1
1
1
1
1
1
1
1
1
1
1
1
1
1
1
1
1
1
1
1
1
1
1
1
1
1
1
1
1
1
1
1
1
1
1
1
1
1
1
1
1
1
1
1
1
1
1
1
1
1
1
1
1
1
1
1
1
1
1.07879
1.18044
1.2875
1.39275
1.48451
1.57603
1.63802
1.68005
1.69729
1.68165
1.63952
1.58603
1.53999
1.52407
1.51272
1.51299
1.51769
1.52499
1.53161
1.53396
1.53396
1.53376
1.53432
1.53697
1.00077
1.00733
1.02743
1.07333
1.14525
1.23051
1.32215
1.40918
1.47973
1.51608
1.55518
1.56209
1.55737
1.55228
1.54544
1.53522
1.53253
1.53283
1.53421
1.53587
1.53701
1.53764
1.53767
1.53943
0.999999
1
1
1.00007
1.00123
1.00788
1.03779
1.11564
1.2729
1.44828
1.57415
1.62109
1.61988
1.60884
1.59304
1.56577
1.54721
1.54267
1.54248
1.54395
1.54582
1.54648
1.54658
1.54829
1
1
0.999999
0.999999
0.999995
1.00001
0.99999
1.00057
1.01376
1.10749
1.31111
1.4899
1.61044
1.60966
1.60201
1.59865
1.58695
1.57169
1.56311
1.55977
1.55742
1.55762
1.5584
1.56028
1
1
1
1
1
1
0.999999
0.999999
0.999962
1.00047
1.01506
1.13266
1.34732
1.52936
1.60077
1.6307
1.62462
1.60944
1.58574
1.57388
1.567
1.56488
1.56663
1.57064
1
1
1
1
1
1
1
1
0.999996
0.999997
0.999959
1.00132
1.02454
1.18189
1.39617
1.57468
1.60992
1.6048
1.59951
1.59191
1.58227
1.57654
1.5761
1.57868
1
1
1
1
1
1
1
1
1
1
0.999996
0.999997
0.999975
1.00443
1.05703
1.24697
1.45319
1.58032
1.6105
1.6093
1.60139
1.59129
1.58611
1.58458
1
1
1
1
1
1
1
1
1
1
1
1
0.999998
0.999985
1.00025
1.0127
1.12347
1.34707
1.5036
1.57769
1.59728
1.59524
1.58679
1.58279
1
1
1
1
1
1
1
1
1
1
1
1
1
0.999999
0.999998
0.999996
1.00252
1.045
1.23259
1.44707
1.56135
1.57159
1.57875
1.57757
1
1
1
1
1
1
1
1
1
1
1
1
1
1
1
1
0.999994
1.00039
1.01849
1.1316
1.3576
1.51629
1.57313
1.58095
1
1
1
1
1
1
1
1
1
1
1
1
1
1
1
1
0.999999
0.999997
1.00008
1.00455
1.07807
1.28136
1.47628
1.52728
1
1
1
1
1
1
1
1
1
1
1
1
1
1
1
1
1
1
0.999999
1
1.00225
1.03696
1.21891
1.41294
1
1
1
1
1
1
1
1
1
1
1
1
1
1
1
1
1
1
1
1
0.999999
1.00059
1.02328
1.14987
1
1
1
1
1
1
1
1
1
1
1
1
1
1
1
1
1
1
1
1
1
0.999999
1.00037
1.00827
1
1
1
1
1
1
1
1
1
1
1
1
1
1
1
1
1
1
1
1
1
1
1
1
1
1
1
1
1
1
1
1
1
1
1
1
1
1
1
1
1
1
1
1
1
1
1
1
1
1
1
1
1
1
1
1
1
1
1
1
1
1
1
1
1
1
1
1
1
1
1
1
1
1
1
1
1
1
1
1
1
1
1
1
1
1
1
1
1
1
1
1
1
1
1
1
1
1
1
1
1
1
1
1
1
1
1
1
1
1
1
1
1
1
1
1
1
0.999999
1.00037
1.00827
1
1
1
1
1
1
1
1
1
1
1
1
1
1
1
1
1
1
1
1
0.999999
1.00059
1.02328
1.14987
1
1
1
1
1
1
1
1
1
1
1
1
1
1
1
1
1
1
0.999999
1
1.00225
1.03696
1.21891
1.41294
1
1
1
1
1
1
1
1
1
1
1
1
1
1
1
1
0.999999
0.999997
1.00008
1.00455
1.07807
1.28136
1.47628
1.52728
1
1
1
1
1
1
1
1
1
1
1
1
1
1
1
1
0.999994
1.00039
1.01849
1.1316
1.3576
1.51629
1.57313
1.58095
1
1
1
1
1
1
1
1
1
1
1
1
1
0.999999
0.999998
0.999996
1.00252
1.045
1.23259
1.44707
1.56135
1.57159
1.57875
1.57757
1
1
1
1
1
1
1
1
1
1
1
1
0.999998
0.999985
1.00025
1.0127
1.12347
1.34707
1.5036
1.57769
1.59728
1.59524
1.58679
1.58279
1
1
1
1
1
1
1
1
1
1
0.999996
0.999997
0.999975
1.00443
1.05703
1.24697
1.45319
1.58032
1.6105
1.6093
1.60139
1.59129
1.58611
1.58458
1
1
1
1
1
1
1
1
0.999996
0.999997
0.999959
1.00132
1.02454
1.18189
1.39617
1.57468
1.60992
1.6048
1.59951
1.59191
1.58227
1.57654
1.5761
1.57868
1
1
1
1
1
1
0.999999
0.999999
0.999962
1.00047
1.01506
1.13266
1.34732
1.52936
1.60077
1.6307
1.62462
1.60944
1.58574
1.57388
1.567
1.56488
1.56663
1.57064
1
1
0.999999
0.999999
0.999995
1.00001
0.99999
1.00057
1.01376
1.10749
1.31111
1.4899
1.61044
1.60966
1.60201
1.59865
1.58695
1.57169
1.56311
1.55977
1.55742
1.55762
1.5584
1.56028
0.999999
1
1
1.00007
1.00123
1.00788
1.03779
1.11564
1.2729
1.44828
1.57415
1.62109
1.61988
1.60884
1.59304
1.56577
1.54721
1.54267
1.54248
1.54395
1.54582
1.54648
1.54658
1.54829
1.00077
1.00733
1.02743
1.07333
1.14525
1.23051
1.32215
1.40918
1.47973
1.51608
1.55518
1.56209
1.55737
1.55228
1.54544
1.53522
1.53253
1.53283
1.53421
1.53587
1.53701
1.53764
1.53767
1.53943
1.07879
1.18044
1.2875
1.39275
1.48451
1.57603
1.63802
1.68005
1.69729
1.68165
1.63952
1.58603
1.53999
1.52407
1.51272
1.51299
1.51769
1.52499
1.53161
1.53396
1.53396
1.53376
1.53432
1.53697
1.39444
1.23741
1.1153
0.989021
0.969765
0.999626
1.00854
1.01395
1.04018
1.07041
1.07892
1.08228
1.09107
1.10556
1.11196
1.11214
1.11503
1.11754
1.11679
1.11322
1.10729
1.10436
1.10214
1.09867
1.09526
1.09157
1.1045
1.15648
1.2668
1.44957
1.6171
1.72628
1.81657
1.88779
1.93822
1.95945
1.94233
1.909
1.86359
1.82274
1.7923
1.76909
1.74551
1.71948
1.6893
1.65894
1.6339
1.61761
1.60565
1.59529
1.58365
1.56942
1.55178
1.53136
1.51148
1.49532
1.4807
1.46517
1.44915
1.43377
1.41953
1.40685
1.39627
1.38753
1.37839
1.36622
1.3488
1.32695
1.30655
1.29558
1.28789
1.27873
1.26755
1.25684
1.24842
1.24093
1.23337
1.22614
1.21967
1.21309
1.20546
1.19667
1.18807
1.18172
1.17694
1.17057
1.16071
1.15046
1.14406
1.14085
1.13899
1.13767
1.13562
1.12904
1.11996
1.11375
1.49338
1.40909
1.33524
1.24589
1.15633
1.13121
1.10652
1.07324
1.07304
1.06866
1.05246
1.04936
1.05318
1.06287
1.07177
1.07534
1.07929
1.08671
1.08948
1.08824
1.0878
1.08994
1.09043
1.09016
1.09219
1.12588
1.24651
1.34062
1.42888
1.47692
1.50609
1.54948
1.60445
1.65128
1.69863
1.74463
1.77465
1.78547
1.79056
1.79748
1.79076
1.77657
1.75566
1.73232
1.70564
1.67688
1.64799
1.62754
1.61592
1.60457
1.59173
1.57718
1.56092
1.54295
1.52471
1.50865
1.49303
1.47745
1.46216
1.44662
1.43114
1.41794
1.4072
1.39735
1.38713
1.37482
1.35895
1.34008
1.32069
1.30668
1.29657
1.286
1.27508
1.26612
1.25974
1.25358
1.24606
1.23753
1.22952
1.22277
1.21557
1.20783
1.20092
1.19492
1.18903
1.18186
1.17189
1.16134
1.15453
1.15102
1.149
1.14769
1.14605
1.14086
1.13165
1.12293
1.53441
1.49348
1.43079
1.36216
1.28127
1.2207
1.17597
1.11952
1.08067
1.06933
1.05225
1.03723
1.03824
1.04507
1.04667
1.04608
1.0472
1.05291
1.05899
1.06195
1.06484
1.06943
1.07688
1.09485
1.15101
1.3027
1.42575
1.4672
1.49419
1.49263
1.48726
1.47415
1.47259
1.47972
1.50457
1.55685
1.63296
1.70288
1.75175
1.76616
1.77701
1.77265
1.76351
1.74755
1.72704
1.69664
1.66492
1.63453
1.60941
1.59221
1.57914
1.5666
1.55358
1.53811
1.52149
1.50354
1.48547
1.46893
1.45367
1.43739
1.41882
1.40261
1.39244
1.38415
1.37544
1.36558
1.35239
1.3344
1.31164
1.29438
1.28606
1.27753
1.26812
1.25995
1.25313
1.24541
1.23613
1.22823
1.22128
1.21513
1.20858
1.20071
1.19294
1.18618
1.18133
1.1757
1.16736
1.15756
1.1497
1.14453
1.14092
1.13864
1.13678
1.13234
1.12431
1.11778
1.5558
1.53836
1.49841
1.44557
1.3772
1.31191
1.2639
1.20901
1.15211
1.13323
1.11188
1.0741
1.06489
1.06248
1.05221
1.04237
1.03972
1.03995
1.03925
1.04039
1.04363
1.05243
1.10097
1.20849
1.33976
1.45668
1.48649
1.4968
1.49971
1.49248
1.47564
1.45586
1.43927
1.43422
1.42922
1.42897
1.44194
1.48057
1.54747
1.60618
1.65791
1.68568
1.70976
1.70425
1.69993
1.69373
1.68102
1.65877
1.62674
1.59819
1.57974
1.5662
1.55302
1.53769
1.52042
1.5004
1.47981
1.46243
1.44733
1.43195
1.4142
1.39565
1.38287
1.37627
1.37106
1.36331
1.35168
1.33509
1.30928
1.28786
1.28128
1.27732
1.26844
1.25896
1.25176
1.24344
1.23278
1.22383
1.22029
1.21506
1.20755
1.20038
1.19313
1.18417
1.17897
1.17488
1.16812
1.15948
1.15183
1.14575
1.14066
1.13684
1.13398
1.12859
1.1214
1.11756
1.56834
1.56302
1.54219
1.50523
1.45196
1.39146
1.34018
1.28474
1.23216
1.20285
1.17624
1.12888
1.09759
1.08743
1.073
1.05101
1.04351
1.04232
1.03904
1.04036
1.05729
1.132
1.29058
1.3942
1.47053
1.50102
1.50092
1.49539
1.4917
1.47927
1.45823
1.44063
1.42712
1.41557
1.40786
1.4016
1.39291
1.385
1.38367
1.39897
1.43761
1.49854
1.56655
1.61706
1.65069
1.67285
1.67205
1.66158
1.64305
1.61753
1.59411
1.57406
1.55323
1.53504
1.51689
1.49728
1.47712
1.45763
1.44158
1.42724
1.4124
1.39747
1.38289
1.36707
1.35511
1.34752
1.3396
1.32877
1.31081
1.29159
1.27704
1.26521
1.25387
1.24698
1.24499
1.24334
1.23788
1.22915
1.216
1.20381
1.20138
1.20189
1.19861
1.19119
1.18228
1.17337
1.16953
1.16665
1.16146
1.15513
1.14838
1.14233
1.13586
1.12654
1.12061
1.12059
1.5781
1.57492
1.56747
1.54639
1.50709
1.45688
1.40941
1.35718
1.30457
1.26768
1.23683
1.20057
1.15875
1.14206
1.12321
1.09299
1.07607
1.07002
1.07642
1.11208
1.20216
1.36921
1.46861
1.48723
1.49752
1.50235
1.49171
1.47803
1.46482
1.44892
1.43816
1.42942
1.41508
1.39592
1.38706
1.37963
1.36978
1.35411
1.34555
1.33952
1.328
1.33027
1.34935
1.4018
1.4649
1.52746
1.56664
1.59454
1.59713
1.58678
1.56005
1.54889
1.54047
1.5291
1.51648
1.50158
1.48265
1.46202
1.44409
1.42895
1.41402
1.3985
1.38084
1.36185
1.34657
1.33792
1.32953
1.31871
1.30946
1.29541
1.27529
1.25687
1.24618
1.24015
1.23498
1.22985
1.22526
1.21969
1.21101
1.20328
1.19949
1.19511
1.19087
1.18617
1.17951
1.17337
1.16923
1.16314
1.15602
1.14869
1.14221
1.13725
1.13205
1.12643
1.1263
1.12806
1.58417
1.58257
1.57832
1.57003
1.54799
1.51138
1.47043
1.41877
1.37225
1.33288
1.29892
1.26015
1.21834
1.19258
1.17495
1.14743
1.11751
1.12404
1.2005
1.3305
1.4525
1.54028
1.5402
1.52436
1.51048
1.49659
1.48048
1.46352
1.44567
1.43125
1.42302
1.41226
1.39374
1.36965
1.35882
1.35032
1.33839
1.32283
1.31579
1.30937
1.29918
1.28196
1.26511
1.26505
1.27695
1.31066
1.35974
1.42204
1.47436
1.50345
1.50699
1.51676
1.5197
1.51508
1.5054
1.49383
1.48127
1.46818
1.45366
1.43851
1.42248
1.40164
1.38127
1.36437
1.34582
1.33205
1.32124
1.31071
1.29894
1.2844
1.26759
1.25268
1.24222
1.23354
1.22677
1.22284
1.2201
1.21702
1.21225
1.20541
1.19636
1.19102
1.18987
1.18846
1.1842
1.17746
1.17031
1.16372
1.15752
1.1507
1.14347
1.1369
1.13111
1.13075
1.13547
1.13949
1.58366
1.58514
1.58465
1.58058
1.57041
1.54931
1.5194
1.47702
1.43382
1.39296
1.35351
1.31979
1.28573
1.24354
1.22284
1.20884
1.23626
1.32763
1.48342
1.56283
1.59769
1.59259
1.57382
1.54785
1.51623
1.4933
1.47726
1.45956
1.44033
1.42596
1.4132
1.39796
1.37821
1.356
1.34157
1.32914
1.31299
1.29548
1.28679
1.27964
1.26989
1.25262
1.23562
1.22962
1.22165
1.21375
1.21294
1.22531
1.25723
1.30394
1.35037
1.3849
1.4195
1.44449
1.44286
1.43462
1.43291
1.42955
1.42347
1.4144
1.40357
1.38963
1.37004
1.34672
1.33426
1.32815
1.32174
1.31182
1.29915
1.28525
1.27083
1.2563
1.24298
1.23297
1.22671
1.22336
1.22138
1.21885
1.21429
1.20652
1.19781
1.19358
1.19106
1.18762
1.18331
1.17859
1.17275
1.16703
1.16177
1.15438
1.14621
1.13925
1.13777
1.14111
1.14922
1.15498
1.57935
1.58295
1.58315
1.58196
1.57851
1.56964
1.5524
1.52065
1.48405
1.45116
1.40959
1.36097
1.33613
1.30527
1.31116
1.38893
1.5116
1.60668
1.66937
1.66625
1.64982
1.62097
1.58836
1.55778
1.53001
1.50821
1.48795
1.46634
1.44523
1.4267
1.40835
1.38748
1.3648
1.34781
1.33519
1.32039
1.30022
1.27849
1.26819
1.25937
1.24764
1.2324
1.2155
1.20791
1.19762
1.18486
1.17315
1.16241
1.16237
1.16589
1.17687
1.19841
1.23289
1.274
1.31125
1.33807
1.35863
1.37392
1.38797
1.38893
1.38561
1.37855
1.36459
1.34195
1.33227
1.32939
1.3257
1.31822
1.30801
1.29713
1.28489
1.26839
1.2511
1.24106
1.23615
1.23351
1.23047
1.22602
1.22026
1.21601
1.21058
1.20167
1.19401
1.18982
1.1865
1.18212
1.17692
1.17213
1.16724
1.15989
1.15004
1.14655
1.14826
1.15753
1.16559
1.17239
1.57993
1.58091
1.58233
1.58216
1.58054
1.57526
1.56661
1.54988
1.52118
1.49182
1.45379
1.41313
1.39466
1.43728
1.55835
1.69267
1.7499
1.75582
1.74344
1.71474
1.67877
1.64432
1.61214
1.58057
1.55042
1.52391
1.49943
1.47457
1.45016
1.42815
1.40681
1.38335
1.35836
1.34167
1.33048
1.31537
1.2936
1.27066
1.25829
1.24765
1.23421
1.21885
1.20371
1.19362
1.18259
1.16715
1.15451
1.14378
1.13884
1.13448
1.12473
1.11352
1.10741
1.1118
1.127
1.15927
1.19859
1.23702
1.26974
1.30443
1.32266
1.3263
1.32367
1.31487
1.30478
1.30141
1.29871
1.29463
1.28728
1.27869
1.27023
1.25871
1.24383
1.23097
1.22645
1.22623
1.226
1.22401
1.21921
1.21321
1.20815
1.20468
1.1995
1.19311
1.18954
1.18592
1.18198
1.1787
1.17506
1.16689
1.16021
1.16159
1.16943
1.17824
1.18278
1.18768
1.55839
1.58061
1.58427
1.58347
1.5807
1.57575
1.57113
1.56354
1.54596
1.52397
1.49097
1.5107
1.61712
1.74176
1.8372
1.83762
1.82188
1.7931
1.7581
1.7236
1.68959
1.65813
1.62952
1.60069
1.5715
1.54309
1.51461
1.48442
1.45361
1.42684
1.40518
1.38553
1.36485
1.34675
1.33085
1.31242
1.28812
1.26532
1.25388
1.24222
1.22835
1.21369
1.19906
1.1846
1.1723
1.15884
1.14577
1.13648
1.13026
1.1219
1.10839
1.09272
1.08054
1.06866
1.06276
1.06012
1.06346
1.07467
1.09447
1.1265
1.16755
1.2052
1.22782
1.24771
1.25752
1.26193
1.2717
1.27767
1.27513
1.26841
1.26307
1.25751
1.24785
1.23604
1.23116
1.23104
1.23098
1.22936
1.22604
1.21822
1.21364
1.2127
1.20764
1.19799
1.193
1.19094
1.18913
1.1872
1.1828
1.17843
1.18119
1.18914
1.19612
1.19782
1.20108
1.20051
1.52988
1.57297
1.57993
1.57807
1.57579
1.57268
1.56767
1.56461
1.55658
1.55878
1.63689
1.79969
1.91775
1.94965
1.93756
1.90091
1.85257
1.81001
1.77235
1.73679
1.70311
1.6709
1.63914
1.6069
1.57648
1.55016
1.525
1.49626
1.46608
1.43947
1.41502
1.39356
1.3773
1.36009
1.33823
1.31567
1.28869
1.26362
1.25578
1.25057
1.23891
1.22227
1.20032
1.17538
1.16309
1.15659
1.14856
1.13921
1.12711
1.11381
1.09923
1.08352
1.06926
1.05668
1.05045
1.04495
1.03892
1.02698
1.01867
1.02003
1.02816
1.04691
1.07371
1.10045
1.12731
1.15539
1.17922
1.20548
1.22471
1.2282
1.23145
1.23515
1.23185
1.22138
1.21666
1.21642
1.21857
1.21804
1.2167
1.21261
1.20675
1.20569
1.20523
1.20278
1.20008
1.19995
1.2013
1.20087
1.19582
1.19978
1.21169
1.21591
1.21486
1.21447
1.21489
1.2105
1.37949
1.49892
1.54912
1.57425
1.57952
1.57844
1.57001
1.5698
1.60586
1.76018
1.95048
2.01897
2.00546
1.97622
1.94245
1.90628
1.86956
1.83237
1.79349
1.75329
1.71447
1.67833
1.64461
1.61243
1.58094
1.54997
1.5207
1.49587
1.47446
1.45327
1.43056
1.40609
1.37935
1.35188
1.32585
1.30301
1.28699
1.27507
1.26191
1.24493
1.22606
1.20508
1.18329
1.16704
1.15602
1.14496
1.13336
1.12262
1.11256
1.10235
1.0901
1.07562
1.0615
1.04917
1.04235
1.03589
1.02741
1.0157
1.00429
1.00179
1.00057
0.998548
0.995393
0.990485
0.993214
1.00303
1.02385
1.05364
1.09045
1.1222
1.14466
1.16411
1.18096
1.1874
1.18914
1.19385
1.20344
1.21019
1.21043
1.20858
1.20672
1.20778
1.21075
1.21324
1.21318
1.21754
1.21889
1.21826
1.22326
1.23995
1.2448
1.24287
1.23869
1.23471
1.22952
1.22117
1.12165
1.33618
1.46989
1.53986
1.56084
1.57081
1.59551
1.6863
1.87989
2.04745
2.10384
2.08898
2.04171
1.98568
1.94201
1.9103
1.88002
1.84476
1.80527
1.76422
1.72441
1.68706
1.65222
1.61906
1.58575
1.55423
1.52653
1.50187
1.4787
1.45513
1.43054
1.40474
1.37797
1.35305
1.33074
1.31071
1.29292
1.2769
1.26114
1.24337
1.22361
1.20252
1.18285
1.16769
1.15474
1.14217
1.13012
1.11918
1.10904
1.0985
1.0862
1.07191
1.05775
1.04649
1.03971
1.0323
1.0225
1.0095
1.00069
0.99881
0.996187
0.990969
0.982565
0.971446
0.960457
0.95052
0.945226
0.947136
0.955349
0.97281
0.996776
1.023
1.05601
1.08822
1.10992
1.12794
1.14983
1.17025
1.17971
1.18632
1.19462
1.20246
1.20768
1.21119
1.21849
1.22895
1.23599
1.24659
1.26601
1.26779
1.26477
1.2585
1.25114
1.243
1.23512
1.22637
1.00837
1.08251
1.27555
1.45249
1.51876
1.63209
1.79025
1.96673
2.07547
2.10139
2.09263
2.07646
2.04813
2.00717
1.96224
1.92184
1.88383
1.84611
1.80895
1.77235
1.73611
1.69998
1.66401
1.62982
1.60283
1.57747
1.5491
1.52075
1.49434
1.47061
1.44726
1.42394
1.40172
1.38062
1.35917
1.33689
1.31508
1.29519
1.27678
1.25819
1.23881
1.21926
1.20072
1.1834
1.16775
1.15413
1.14185
1.13033
1.11893
1.10696
1.09376
1.07928
1.06522
1.05406
1.04552
1.0359
1.02386
1.01114
1.00467
1.00157
0.997058
0.988739
0.978415
0.966583
0.95537
0.945091
0.933804
0.933072
0.934069
0.937344
0.938386
0.939592
0.945099
0.958307
0.977042
0.999838
1.02778
1.06012
1.09122
1.11718
1.14242
1.16967
1.19471
1.21388
1.23136
1.2492
1.26971
1.29309
1.29961
1.29864
1.29469
1.28767
1.27858
1.26814
1.2575
1.24848
1.00014
1.00445
1.05994
1.24979
1.55103
1.80952
1.99055
2.12442
2.16817
2.13728
2.09007
2.06551
2.04607
2.01922
1.97909
1.93116
1.88357
1.8417
1.80489
1.77079
1.73775
1.70397
1.66944
1.63553
1.601
1.56611
1.53316
1.50323
1.47768
1.45474
1.43239
1.41004
1.38828
1.36704
1.34516
1.32238
1.30051
1.28098
1.26237
1.24302
1.22323
1.20422
1.18658
1.17019
1.15512
1.14152
1.12899
1.11677
1.10483
1.09332
1.08142
1.06792
1.05357
1.04247
1.03474
1.02549
1.01224
0.999881
0.994716
0.991995
0.98844
0.982469
0.97364
0.96185
0.950406
0.94046
0.930922
0.930641
0.931828
0.934152
0.933087
0.928515
0.923327
0.922639
0.923722
0.92738
0.933177
0.943654
0.962104
0.988389
1.02376
1.07114
1.12957
1.19651
1.2541
1.29614
1.34316
1.34883
1.34305
1.34202
1.34267
1.34164
1.33374
1.31952
1.30628
1.29468
1.00014
1.00445
1.05994
1.24979
1.55103
1.80952
1.99055
2.12442
2.16817
2.13728
2.09007
2.06551
2.04607
2.01922
1.97909
1.93116
1.88357
1.8417
1.80489
1.77079
1.73775
1.70397
1.66944
1.63553
1.601
1.56611
1.53316
1.50323
1.47768
1.45474
1.43239
1.41004
1.38828
1.36704
1.34516
1.32238
1.30051
1.28098
1.26237
1.24302
1.22323
1.20422
1.18658
1.17019
1.15512
1.14152
1.12899
1.11677
1.10483
1.09332
1.08142
1.06792
1.05357
1.04247
1.03474
1.02549
1.01224
0.999881
0.994716
0.991995
0.98844
0.982469
0.973641
0.96185
0.950405
0.94046
0.930922
0.930641
0.931827
0.934152
0.933086
0.928516
0.923328
0.922636
0.923735
0.927204
0.935059
0.949428
0.974173
1.00836
1.05353
1.1112
1.17712
1.23942
1.28092
1.30892
1.3461
1.35368
1.34891
1.34399
1.34095
1.33624
1.3289
1.31696
1.3036
1.29293
1.00837
1.08251
1.27555
1.45249
1.51876
1.63209
1.79025
1.96673
2.07547
2.10139
2.09263
2.07646
2.04813
2.00717
1.96224
1.92184
1.88383
1.84611
1.80895
1.77235
1.73611
1.69998
1.66401
1.62982
1.60283
1.57747
1.5491
1.52075
1.49434
1.47061
1.44726
1.42394
1.40172
1.38062
1.35917
1.33689
1.31508
1.29519
1.27678
1.25819
1.23881
1.21926
1.20072
1.1834
1.16775
1.15413
1.14185
1.13033
1.11893
1.10696
1.09376
1.07928
1.06522
1.05406
1.04552
1.0359
1.02386
1.01114
1.00467
1.00157
0.997058
0.988738
0.978415
0.966583
0.955369
0.945091
0.933805
0.933072
0.934067
0.937343
0.938384
0.939598
0.945117
0.958239
0.977106
0.999787
1.02767
1.06034
1.09142
1.11825
1.14481
1.17293
1.1985
1.21717
1.23871
1.26038
1.28378
1.30948
1.31664
1.31281
1.3053
1.29755
1.28974
1.27976
1.26623
1.25109
1.12165
1.33618
1.46989
1.53986
1.56084
1.57081
1.59551
1.6863
1.87989
2.04745
2.10384
2.08898
2.04171
1.98568
1.94201
1.9103
1.88002
1.84476
1.80527
1.76422
1.72441
1.68706
1.65222
1.61906
1.58575
1.55423
1.52653
1.50187
1.4787
1.45513
1.43054
1.40474
1.37797
1.35305
1.33074
1.31071
1.29292
1.2769
1.26114
1.24337
1.22361
1.20252
1.18285
1.16769
1.15474
1.14217
1.13012
1.11918
1.10904
1.0985
1.0862
1.07191
1.05775
1.04649
1.03971
1.0323
1.0225
1.0095
1.00069
0.99881
0.996187
0.990969
0.982565
0.971445
0.960456
0.950521
0.945225
0.947133
0.955361
0.972804
0.996756
1.02303
1.05604
1.08814
1.10992
1.12792
1.14983
1.17014
1.17961
1.18649
1.19478
1.20228
1.20767
1.21172
1.2196
1.23095
1.23739
1.24653
1.26575
1.26834
1.26612
1.26062
1.25327
1.24448
1.23594
1.22626
1.37949
1.49892
1.54912
1.57425
1.57952
1.57844
1.57001
1.5698
1.60586
1.76018
1.95048
2.01897
2.00546
1.97622
1.94245
1.90628
1.86956
1.83237
1.79349
1.75329
1.71447
1.67833
1.64461
1.61243
1.58094
1.54997
1.5207
1.49587
1.47446
1.45327
1.43056
1.40609
1.37935
1.35188
1.32585
1.30301
1.28699
1.27507
1.26191
1.24493
1.22606
1.20508
1.18329
1.16704
1.15602
1.14496
1.13336
1.12262
1.11256
1.10235
1.0901
1.07562
1.0615
1.04917
1.04235
1.03589
1.02741
1.0157
1.00429
1.00179
1.00057
0.998549
0.995393
0.990484
0.993212
1.00304
1.02384
1.05364
1.0905
1.12215
1.14464
1.16416
1.18089
1.18743
1.18912
1.1938
1.20333
1.21022
1.2106
1.20861
1.20659
1.20771
1.21095
1.21366
1.21354
1.21761
1.21923
1.21851
1.22276
1.23897
1.2444
1.24255
1.23842
1.23456
1.22944
1.22103
1.52988
1.57297
1.57993
1.57807
1.57579
1.57268
1.56767
1.56461
1.55658
1.55878
1.63689
1.79969
1.91775
1.94965
1.93756
1.90091
1.85257
1.81001
1.77235
1.73679
1.70311
1.6709
1.63914
1.6069
1.57648
1.55016
1.525
1.49626
1.46608
1.43947
1.41502
1.39356
1.3773
1.36009
1.33823
1.31567
1.28869
1.26362
1.25578
1.25057
1.23891
1.22227
1.20032
1.17538
1.16309
1.15659
1.14856
1.13921
1.12711
1.11381
1.09923
1.08352
1.06926
1.05668
1.05045
1.04495
1.03892
1.02698
1.01867
1.02003
1.02816
1.04691
1.07372
1.10044
1.12732
1.15538
1.1792
1.20555
1.22465
1.22818
1.23148
1.23517
1.23182
1.22138
1.21666
1.21641
1.21855
1.21804
1.21675
1.21248
1.20647
1.20576
1.20552
1.203
1.20009
1.19995
1.20141
1.20105
1.19598
1.19995
1.21142
1.21574
1.21479
1.21445
1.21485
1.21043
1.55839
1.58061
1.58427
1.58347
1.5807
1.57575
1.57113
1.56354
1.54596
1.52397
1.49097
1.5107
1.61712
1.74176
1.8372
1.83762
1.82188
1.7931
1.7581
1.7236
1.68959
1.65813
1.62952
1.60069
1.5715
1.54309
1.51461
1.48442
1.45361
1.42684
1.40518
1.38553
1.36485
1.34675
1.33085
1.31242
1.28812
1.26532
1.25388
1.24222
1.22835
1.21369
1.19906
1.1846
1.1723
1.15884
1.14577
1.13647
1.13026
1.1219
1.10839
1.09272
1.08054
1.06866
1.06276
1.06012
1.06346
1.07467
1.09447
1.1265
1.16755
1.20521
1.22781
1.24771
1.25752
1.26192
1.2717
1.27769
1.27512
1.2684
1.26307
1.25751
1.24784
1.23604
1.23117
1.23105
1.23099
1.22936
1.22605
1.21823
1.21355
1.21267
1.2075
1.19773
1.19288
1.19099
1.1893
1.18743
1.18296
1.1787
1.18142
1.18911
1.19619
1.1979
1.20101
1.20047
1.57993
1.58091
1.58233
1.58216
1.58054
1.57526
1.56661
1.54988
1.52118
1.49182
1.45379
1.41313
1.39466
1.43728
1.55835
1.69267
1.7499
1.75582
1.74344
1.71474
1.67877
1.64432
1.61214
1.58057
1.55042
1.52391
1.49943
1.47457
1.45016
1.42815
1.40681
1.38335
1.35836
1.34167
1.33048
1.31537
1.2936
1.27066
1.25829
1.24765
1.23421
1.21885
1.20371
1.19362
1.18259
1.16715
1.15451
1.14378
1.13884
1.13448
1.12473
1.11352
1.10741
1.1118
1.127
1.15927
1.19859
1.23702
1.26975
1.30442
1.32266
1.3263
1.32367
1.31487
1.30478
1.30141
1.29871
1.29463
1.28727
1.27869
1.27024
1.25871
1.2438
1.23097
1.22648
1.22625
1.22601
1.22402
1.21921
1.21314
1.2081
1.2047
1.19953
1.19304
1.18953
1.18597
1.18205
1.17878
1.17512
1.16693
1.16038
1.16173
1.16952
1.17843
1.18284
1.18771
1.57935
1.58295
1.58315
1.58196
1.57851
1.56964
1.5524
1.52065
1.48405
1.45116
1.40959
1.36097
1.33613
1.30527
1.31116
1.38893
1.5116
1.60668
1.66937
1.66625
1.64982
1.62097
1.58836
1.55778
1.53001
1.50821
1.48795
1.46634
1.44523
1.4267
1.40835
1.38748
1.3648
1.34781
1.33519
1.32039
1.30022
1.27849
1.26819
1.25937
1.24765
1.2324
1.2155
1.20791
1.19762
1.18486
1.17315
1.16241
1.16237
1.16589
1.17687
1.19841
1.23289
1.274
1.31125
1.33807
1.35863
1.37392
1.38797
1.38893
1.38561
1.37855
1.36459
1.34195
1.33227
1.32939
1.3257
1.31822
1.30801
1.29714
1.2849
1.26839
1.25111
1.24107
1.23616
1.2335
1.23044
1.22601
1.22024
1.21598
1.21059
1.20172
1.19405
1.18985
1.18651
1.18212
1.17692
1.17213
1.16724
1.15991
1.15008
1.1466
1.1483
1.15766
1.16574
1.17247
1.58366
1.58514
1.58465
1.58058
1.57041
1.54931
1.5194
1.47702
1.43382
1.39296
1.35351
1.31979
1.28573
1.24354
1.22284
1.20884
1.23626
1.32763
1.48342
1.56283
1.59769
1.59259
1.57382
1.54785
1.51623
1.4933
1.47726
1.45956
1.44033
1.42596
1.4132
1.39796
1.37821
1.356
1.34157
1.32914
1.31299
1.29548
1.28679
1.27964
1.26989
1.25262
1.23562
1.22962
1.22165
1.21375
1.21294
1.22531
1.25723
1.30394
1.35037
1.3849
1.4195
1.44449
1.44286
1.43462
1.43291
1.42955
1.42347
1.4144
1.40357
1.38963
1.37004
1.34672
1.33426
1.32815
1.32174
1.31182
1.29915
1.28525
1.27083
1.2563
1.24298
1.23298
1.22671
1.22336
1.22138
1.21885
1.21429
1.20651
1.1978
1.19358
1.19107
1.18763
1.18332
1.1786
1.17275
1.16703
1.16177
1.15439
1.14623
1.13927
1.13778
1.14113
1.14929
1.15502
1.58417
1.58257
1.57832
1.57003
1.54799
1.51138
1.47043
1.41877
1.37225
1.33288
1.29892
1.26015
1.21834
1.19258
1.17495
1.14743
1.11751
1.12404
1.2005
1.3305
1.4525
1.54028
1.5402
1.52436
1.51048
1.49659
1.48048
1.46352
1.44567
1.43125
1.42302
1.41226
1.39374
1.36965
1.35882
1.35032
1.33839
1.32283
1.31579
1.30937
1.29918
1.28196
1.26511
1.26505
1.27695
1.31066
1.35974
1.42204
1.47436
1.50345
1.50699
1.51676
1.5197
1.51508
1.5054
1.49383
1.48127
1.46818
1.45366
1.43851
1.42248
1.40164
1.38128
1.36437
1.34582
1.33205
1.32124
1.31071
1.29894
1.2844
1.26759
1.25268
1.24222
1.23354
1.22677
1.22284
1.2201
1.21701
1.21225
1.20541
1.19636
1.19102
1.18988
1.18847
1.1842
1.17746
1.1703
1.16372
1.15751
1.1507
1.14348
1.1369
1.13112
1.13077
1.13551
1.13949
1.5781
1.57492
1.56747
1.54639
1.50709
1.45688
1.40941
1.35718
1.30457
1.26768
1.23683
1.20057
1.15875
1.14206
1.12321
1.09299
1.07607
1.07002
1.07642
1.11208
1.20216
1.36921
1.46861
1.48723
1.49752
1.50235
1.49171
1.47803
1.46482
1.44892
1.43816
1.42942
1.41508
1.39592
1.38706
1.37963
1.36978
1.35411
1.34555
1.33952
1.328
1.33027
1.34935
1.4018
1.4649
1.52746
1.56664
1.59454
1.59713
1.58678
1.56005
1.54889
1.54047
1.5291
1.51648
1.50158
1.48265
1.46202
1.44409
1.42895
1.41402
1.3985
1.38084
1.36185
1.34657
1.33792
1.32953
1.31871
1.30946
1.29541
1.27529
1.25687
1.24618
1.24015
1.23498
1.22985
1.22527
1.21969
1.21101
1.20328
1.19949
1.19511
1.19087
1.18617
1.17951
1.17338
1.16923
1.16313
1.15602
1.14869
1.14222
1.13726
1.13205
1.12643
1.12631
1.12806
1.56834
1.56302
1.54219
1.50523
1.45196
1.39146
1.34018
1.28474
1.23216
1.20285
1.17624
1.12888
1.09759
1.08743
1.073
1.05101
1.04351
1.04232
1.03904
1.04036
1.05729
1.132
1.29058
1.3942
1.47053
1.50102
1.50092
1.49539
1.4917
1.47927
1.45823
1.44063
1.42712
1.41557
1.40786
1.4016
1.39291
1.385
1.38367
1.39897
1.43761
1.49854
1.56655
1.61706
1.65069
1.67285
1.67205
1.66158
1.64305
1.61753
1.59411
1.57406
1.55323
1.53504
1.51689
1.49728
1.47712
1.45763
1.44158
1.42724
1.4124
1.39747
1.38289
1.36707
1.35511
1.34752
1.3396
1.32877
1.31081
1.29159
1.27704
1.26521
1.25387
1.24698
1.24499
1.24334
1.23788
1.22915
1.216
1.20381
1.20138
1.20189
1.19861
1.19118
1.18228
1.17337
1.16954
1.16665
1.16146
1.15512
1.14838
1.14233
1.13586
1.12654
1.12061
1.12059
1.5558
1.53836
1.49841
1.44557
1.3772
1.31191
1.2639
1.20901
1.15211
1.13323
1.11188
1.0741
1.06489
1.06248
1.05221
1.04237
1.03972
1.03995
1.03925
1.04039
1.04363
1.05243
1.10097
1.20849
1.33976
1.45668
1.48649
1.4968
1.49971
1.49248
1.47564
1.45586
1.43927
1.43422
1.42922
1.42897
1.44194
1.48057
1.54747
1.60618
1.65791
1.68568
1.70976
1.70425
1.69993
1.69373
1.68102
1.65877
1.62674
1.59819
1.57974
1.5662
1.55302
1.53769
1.52042
1.5004
1.47981
1.46243
1.44733
1.43195
1.4142
1.39565
1.38287
1.37627
1.37106
1.36331
1.35168
1.33509
1.30928
1.28786
1.28128
1.27732
1.26844
1.25896
1.25176
1.24344
1.23278
1.22383
1.22029
1.21506
1.20755
1.20038
1.19313
1.18417
1.17897
1.17488
1.16812
1.15948
1.15183
1.14575
1.14066
1.13684
1.13398
1.12859
1.1214
1.11756
1.53441
1.49348
1.43079
1.36216
1.28127
1.2207
1.17597
1.11952
1.08067
1.06933
1.05225
1.03723
1.03824
1.04507
1.04667
1.04608
1.0472
1.05291
1.05899
1.06195
1.06484
1.06943
1.07688
1.09485
1.15101
1.3027
1.42575
1.4672
1.49419
1.49263
1.48726
1.47415
1.47259
1.47972
1.50457
1.55685
1.63296
1.70288
1.75175
1.76616
1.77701
1.77265
1.76351
1.74755
1.72704
1.69664
1.66492
1.63453
1.60941
1.59221
1.57914
1.5666
1.55358
1.53811
1.52149
1.50354
1.48547
1.46893
1.45367
1.43739
1.41882
1.40261
1.39244
1.38415
1.37544
1.36558
1.35239
1.3344
1.31164
1.29438
1.28606
1.27753
1.26812
1.25995
1.25313
1.24541
1.23613
1.22823
1.22128
1.21513
1.20858
1.20071
1.19294
1.18618
1.18133
1.1757
1.16736
1.15756
1.1497
1.14452
1.14092
1.13864
1.13678
1.13234
1.12431
1.11778
1.49338
1.40909
1.33524
1.24589
1.15633
1.13121
1.10652
1.07324
1.07304
1.06866
1.05246
1.04936
1.05318
1.06287
1.07177
1.07534
1.07929
1.08671
1.08948
1.08824
1.0878
1.08994
1.09043
1.09016
1.09219
1.12588
1.24651
1.34062
1.42888
1.47692
1.50609
1.54948
1.60445
1.65128
1.69863
1.74463
1.77465
1.78547
1.79056
1.79748
1.79076
1.77657
1.75566
1.73232
1.70564
1.67688
1.64799
1.62754
1.61592
1.60457
1.59173
1.57718
1.56092
1.54295
1.52471
1.50865
1.49303
1.47745
1.46216
1.44662
1.43114
1.41794
1.4072
1.39735
1.38713
1.37482
1.35895
1.34008
1.32069
1.30668
1.29657
1.286
1.27508
1.26612
1.25974
1.25358
1.24606
1.23753
1.22952
1.22277
1.21557
1.20783
1.20092
1.19492
1.18903
1.18186
1.17189
1.16134
1.15453
1.15102
1.149
1.14769
1.14605
1.14086
1.13165
1.12293
1.39444
1.23741
1.1153
0.989021
0.969765
0.999626
1.00854
1.01395
1.04018
1.07041
1.07892
1.08228
1.09107
1.10556
1.11196
1.11214
1.11503
1.11754
1.11679
1.11322
1.10729
1.10436
1.10214
1.09867
1.09526
1.09157
1.1045
1.15648
1.2668
1.44957
1.6171
1.72628
1.81657
1.88779
1.93822
1.95945
1.94233
1.909
1.86359
1.82274
1.7923