/*--------------------------------*- C++ -*----------------------------------*\
  =========                 |
  \\      /  F ield         | OpenFOAM: The Open Source CFD Toolbox
   \\    /   O peration     | Website:  https://openfoam.org
    \\  /    A nd           | Version:  7
     \\/     M anipulation  |
\*---------------------------------------------------------------------------*/
FoamFile
{
    version     2.0;
    format      ascii;
    class       volVectorField;
    location    "0.7";
    object      U;
}
// * * * * * * * * * * * * * * * * * * * * * * * * * * * * * * * * * * * * * //

dimensions      [0 1 -1 0 0 0 0];

internalField   nonuniform List<vector> 
4608
(
(3 7.039e-17 0)
(3 2.01358e-16 0)
(3 -4.84323e-17 0)
(3 -5.66147e-16 0)
(3 -8.94439e-16 0)
(3 -1.10111e-16 0)
(3 3.12485e-16 0)
(3 2.1836e-16 0)
(3 -1.33512e-15 0)
(3 -1.65993e-15 0)
(3 -1.7329e-15 0)
(3 -1.63723e-15 0)
(3 -1.19118e-15 0)
(3 -7.02982e-17 0)
(3 2.75482e-17 0)
(3 -2.60063e-16 0)
(3 -6.7837e-16 0)
(3 -8.38348e-16 0)
(3 -1.06557e-15 0)
(3 3.31368e-16 0)
(3 5.8791e-16 0)
(3 2.90354e-16 0)
(3 1.05924e-16 0)
(3 -1.12388e-15 0)
(3 2.19109e-16 0)
(3 2.46755e-16 0)
(3 -3.0196e-16 0)
(3 -6.16745e-16 0)
(3 -6.49246e-16 0)
(3 -3.61524e-16 0)
(3 1.71046e-16 0)
(3 -3.4363e-16 0)
(3 -2.5606e-15 0)
(3 -2.75861e-15 0)
(3 -2.51531e-15 0)
(3 -2.40928e-15 0)
(3 -2.32913e-15 0)
(3 -1.47598e-15 0)
(3 -5.06179e-16 0)
(3 -3.44554e-16 0)
(3 -1.09035e-15 0)
(3 -2.17591e-15 0)
(3 -2.61716e-15 0)
(3 -9.1361e-16 0)
(3 -4.44863e-16 0)
(3 -8.84901e-16 0)
(3 -1.13749e-15 0)
(3 -1.35865e-15 0)
(3 3.25457e-17 0)
(3 4.49902e-17 0)
(3 5.32312e-17 0)
(3 5.01776e-16 0)
(3 1.17478e-15 0)
(3 1.44694e-15 0)
(3 9.07311e-16 0)
(3 -8.10377e-16 0)
(3 -2.09215e-15 0)
(3 -1.85644e-15 0)
(3 -7.21338e-16 0)
(3 -7.06905e-16 0)
(3 -1.07039e-15 0)
(3 -1.04429e-15 0)
(3 -7.62367e-16 0)
(3 -9.59521e-16 0)
(3 -1.1933e-15 0)
(3 -1.83861e-15 0)
(3 -1.96883e-15 0)
(3 -2.18934e-15 0)
(3 -3.07337e-15 0)
(3 -2.61524e-15 0)
(3 2.26974e-16 0)
(3 9.86169e-16 0)
(3 -7.58501e-18 0)
(3 2.51216e-16 0)
(3 8.87282e-16 0)
(3 9.20287e-16 0)
(3 1.80243e-15 0)
(3 1.7679e-15 0)
(3 1.69485e-15 0)
(3 1.8366e-15 0)
(3 1.28562e-15 0)
(3 1.04073e-15 0)
(3 1.01181e-15 0)
(3 1.15728e-15 0)
(3 1.09466e-15 0)
(3 4.31981e-16 0)
(3 -5.32416e-16 0)
(3 -5.40927e-16 0)
(3 -5.52425e-16 0)
(3 -4.10823e-16 0)
(3 1.16446e-16 0)
(3 4.25994e-16 0)
(3 -1.10373e-15 0)
(3 -1.18245e-15 0)
(3 9.20549e-16 0)
(3 1.80157e-15 0)
(3 2.65117e-16 0)
(3 3.40367e-16 0)
(3 4.24194e-16 0)
(3 8.79042e-17 0)
(3 1.67752e-16 0)
(3 -9.76317e-17 0)
(3 4.11758e-16 0)
(3 1.88818e-15 0)
(3 2.18809e-15 0)
(3 3.03501e-15 0)
(3 7.80656e-16 0)
(3 -1.78972e-16 0)
(3 9.97783e-17 0)
(3 4.03057e-17 0)
(3 -7.11107e-16 0)
(3 -7.78211e-16 0)
(3 -8.24507e-16 0)
(3 -5.39468e-16 0)
(3 4.44021e-16 0)
(3 8.64561e-16 0)
(3 1.77963e-15 0)
(3 -3.01247e-16 0)
(3 -2.52831e-15 0)
(3 -2.1191e-15 0)
(3 7.40426e-17 0)
(3 -2.55362e-17 0)
(3 -1.29015e-16 0)
(3 -1.49897e-16 0)
(3 -4.82043e-16 0)
(3 -5.93532e-16 0)
(3 -2.45773e-16 0)
(3 1.0092e-15 0)
(3 1.71002e-15 0)
(3 7.64629e-16 0)
(3 6.01714e-16 0)
(3 -2.52545e-16 0)
(3 -9.90801e-17 0)
(3 4.61969e-16 0)
(3 -3.51037e-16 0)
(3 -1.29846e-15 0)
(3 -1.61959e-15 0)
(3 -9.31891e-16 0)
(3 -2.74272e-16 0)
(3 6.74383e-16 0)
(3 5.84203e-16 0)
(3 -1.30953e-15 0)
(3 -2.39276e-15 0)
(3 -2.63869e-15 0)
(3 -9.72322e-17 0)
(3 2.73751e-17 0)
(3 4.1435e-16 0)
(3 5.49382e-16 0)
(3 -8.73144e-17 0)
(3 7.93084e-17 0)
(3 7.33751e-16 0)
(3 6.4343e-16 0)
(3 -5.0442e-17 0)
(3 -8.89105e-16 0)
(3 -1.0569e-15 0)
(3 3.66803e-16 0)
(3 1.26644e-15 0)
(3 1.28863e-15 0)
(3 1.80925e-16 0)
(3 -5.49519e-16 0)
(3 -6.85882e-16 0)
(3 -4.94159e-16 0)
(3 -6.84196e-16 0)
(3 2.69394e-16 0)
(3 1.5003e-17 0)
(3 -4.64802e-16 0)
(3 -4.42716e-16 0)
(3 -1.83701e-15 0)
(3 -4.93513e-17 0)
(3 -6.1377e-18 0)
(3 -1.7749e-17 0)
(3 -1.55768e-16 0)
(3 2.02811e-16 0)
(3 1.03718e-15 0)
(3 9.5839e-16 0)
(3 4.61821e-16 0)
(3 -4.76264e-16 0)
(3 -9.67033e-16 0)
(3 -9.25707e-16 0)
(3 7.21035e-17 0)
(3 3.11156e-16 0)
(3 -2.57445e-16 0)
(3 -3.95228e-16 0)
(3 -6.7082e-16 0)
(3 -1.23194e-15 0)
(3 -1.23418e-15 0)
(3 -1.23353e-15 0)
(3 -5.45424e-16 0)
(3 -9.78183e-16 0)
(3 -2.101e-15 0)
(3 -1.93272e-15 0)
(3 -2.68166e-15 0)
(3 -3.98753e-16 0)
(3 -5.04937e-16 0)
(3 -6.52073e-16 0)
(3 -4.85212e-16 0)
(3 -3.18404e-16 0)
(3 -5.07602e-16 0)
(3 -6.70019e-16 0)
(3 -2.58702e-16 0)
(3 8.8575e-16 0)
(3 1.03598e-15 0)
(3 5.84249e-16 0)
(3 5.34983e-16 0)
(3 2.18704e-16 0)
(3 1.15993e-17 0)
(3 4.78434e-16 0)
(3 3.82611e-16 0)
(3 -3.25211e-16 0)
(3 -1.43597e-15 0)
(3 -1.43174e-15 0)
(3 -2.08647e-15 0)
(3 -3.48352e-15 0)
(3 -4.40274e-15 0)
(3 -3.89639e-15 0)
(3 -3.29215e-15 0)
(3 1.40443e-16 0)
(3 4.90194e-16 0)
(3 6.90989e-16 0)
(3 4.77845e-16 0)
(3 1.28199e-16 0)
(3 -1.21906e-15 0)
(3 -2.25848e-15 0)
(3 -1.67149e-15 0)
(3 2.35144e-16 0)
(3 6.62512e-16 0)
(3 5.68932e-16 0)
(3 4.21088e-16 0)
(3 5.18484e-16 0)
(3 5.76399e-16 0)
(3 6.43187e-16 0)
(3 7.58836e-16 0)
(3 7.65459e-16 0)
(3 -1.95752e-16 0)
(3 -7.88051e-16 0)
(3 -9.18306e-16 0)
(3 -1.26796e-15 0)
(3 -2.43917e-15 0)
(3 -2.6313e-15 0)
(3 -2.10854e-15 0)
(3 1.45883e-16 0)
(3 1.80528e-16 0)
(3 3.98772e-17 0)
(3 8.2987e-17 0)
(3 -7.46983e-16 0)
(3 -1.11704e-15 0)
(3 -1.76446e-15 0)
(3 -2.35674e-15 0)
(3 -2.33258e-15 0)
(3 -1.57252e-15 0)
(3 -1.15766e-15 0)
(3 -1.00832e-15 0)
(3 -8.53064e-16 0)
(3 -4.21028e-16 0)
(3 -7.37963e-17 0)
(3 4.72771e-16 0)
(3 6.20047e-16 0)
(3 1.55697e-16 0)
(3 -1.22888e-16 0)
(3 5.07173e-16 0)
(3 1.32066e-15 0)
(3 1.33289e-15 0)
(3 7.24074e-16 0)
(3 -6.22905e-16 0)
(3 -1.2074e-16 0)
(3 -6.74477e-16 0)
(3 -7.2152e-16 0)
(3 -3.0504e-16 0)
(3 -2.26928e-16 0)
(3 -2.72044e-16 0)
(3 -6.22961e-16 0)
(3 -1.46885e-15 0)
(3 -1.85862e-15 0)
(3 -1.56124e-15 0)
(3 -8.50492e-16 0)
(3 -6.19063e-16 0)
(3 -7.59273e-16 0)
(3 6.73176e-17 0)
(3 9.43313e-16 0)
(3 1.26186e-15 0)
(3 1.14431e-15 0)
(3 5.6367e-16 0)
(3 4.84735e-16 0)
(3 1.23773e-15 0)
(3 1.86146e-15 0)
(3 1.68017e-15 0)
(3 1.59145e-15 0)
(3 1.02309e-15 0)
(3 1.49157e-16 0)
(3 2.60652e-16 0)
(3 3.36763e-16 0)
(3 2.72108e-16 0)
(3 1.41695e-16 0)
(3 9.92846e-17 0)
(3 3.2997e-16 0)
(3 1.10524e-15 0)
(3 3.00176e-16 0)
(3 8.91338e-17 0)
(3 1.42826e-16 0)
(3 -1.47565e-16 0)
(3 -8.1402e-16 0)
(3 -3.9768e-16 0)
(3 7.85207e-17 0)
(3 -1.55521e-16 0)
(3 5.326e-16 0)
(3 1.22752e-15 0)
(3 1.22409e-15 0)
(3 5.72416e-16 0)
(3 -1.14175e-15 0)
(3 -7.94883e-16 0)
(3 7.11692e-16 0)
(3 1.61583e-15 0)
(3 2.68159e-16 0)
(3 4.72489e-16 0)
(3 3.59286e-16 0)
(3 2.94532e-16 0)
(3 -2.80852e-16 0)
(3 -3.91224e-16 0)
(3 4.29618e-16 0)
(3 2.19987e-15 0)
(3 9.52102e-16 0)
(3 -2.61179e-16 0)
(3 5.54998e-17 0)
(3 -1.23668e-16 0)
(3 -5.56138e-16 0)
(3 -8.70786e-16 0)
(3 -8.99922e-16 0)
(3 -5.50841e-16 0)
(3 7.89867e-16 0)
(3 8.18586e-16 0)
(3 5.698e-16 0)
(3 -5.86338e-16 0)
(3 -2.82518e-15 0)
(3 -1.05375e-15 0)
(3 4.62229e-16 0)
(3 5.21776e-16 0)
(3 -8.9828e-17 0)
(3 -3.00042e-16 0)
(3 -2.56319e-16 0)
(3 -1.7044e-16 0)
(3 -2.35696e-16 0)
(3 -2.63322e-16 0)
(3 -8.3828e-18 0)
(3 1.20362e-16 0)
(3 7.3445e-17 0)
(3 -3.84029e-16 0)
(3 -3.39749e-16 0)
(3 -1.74229e-16 0)
(3 1.25779e-16 0)
(3 1.26118e-16 0)
(3 6.2403e-16 0)
(3 1.3955e-15 0)
(3 1.33801e-15 0)
(3 1.31402e-15 0)
(3 1.16403e-15 0)
(3 5.53983e-16 0)
(3 -1.31016e-15 0)
(3 -1.12469e-15 0)
(3 -4.54233e-16 0)
(3 -7.1262e-16 0)
(3 -2.85363e-16 0)
(3 -2.67542e-16 0)
(3 -3.87103e-16 0)
(3 -7.60267e-16 0)
(3 -1.7831e-16 0)
(3 -8.9858e-17 0)
(3 -1.24617e-16 0)
(3 -4.09423e-16 0)
(3 -1.14776e-15 0)
(3 -1.31471e-15 0)
(3 -1.30133e-15 0)
(3 -1.42005e-15 0)
(3 -9.91247e-16 0)
(3 -3.83562e-16 0)
(3 -2.24219e-16 0)
(3 8.67234e-16 0)
(3 1.04591e-15 0)
(3 2.06814e-15 0)
(3 2.7854e-15 0)
(3 2.07049e-15 0)
(3 3.8771e-16 0)
(3 -1.61516e-15 0)
(3 -1.6498e-15 0)
(3 -1.07859e-15 0)
(3 4.7634e-17 0)
(3 2.26318e-16 0)
(3 1.8623e-16 0)
(3 -1.67362e-17 0)
(3 3.77485e-16 0)
(3 3.88792e-16 0)
(3 8.38717e-16 0)
(3 2.16306e-16 0)
(3 -1.77199e-15 0)
(3 -3.26477e-15 0)
(3 -3.4175e-15 0)
(3 -2.88411e-15 0)
(3 -2.34025e-15 0)
(3 -2.04089e-15 0)
(3 -1.49502e-15 0)
(3 -4.02405e-16 0)
(3 6.73299e-16 0)
(3 1.27721e-15 0)
(3 1.99079e-15 0)
(3 1.15451e-15 0)
(3 5.75508e-16 0)
(3 -4.57383e-16 0)
(3 -2.42892e-16 0)
(3 4.30492e-16 0)
(3 1.59632e-16 0)
(3 3.02401e-16 0)
(3 4.50941e-16 0)
(3 6.14783e-16 0)
(3 -2.75316e-17 0)
(3 2.13131e-16 0)
(3 2.11749e-16 0)
(3 -5.14803e-16 0)
(3 -4.41767e-16 0)
(3 -1.17891e-15 0)
(3 -1.86864e-15 0)
(3 -1.31949e-15 0)
(3 -1.44741e-15 0)
(3 -1.31901e-15 0)
(3 -7.55787e-16 0)
(3 -2.65194e-16 0)
(3 2.44007e-16 0)
(3 5.20654e-16 0)
(3 2.31121e-16 0)
(3 3.69577e-16 0)
(3 1.0668e-15 0)
(3 2.89042e-16 0)
(3 2.97162e-17 0)
(3 2.37839e-16 0)
(3 -1.02056e-16 0)
(3 -3.89397e-16 0)
(3 -2.2574e-16 0)
(3 -2.7224e-16 0)
(3 -5.85787e-16 0)
(3 -3.80926e-16 0)
(3 -1.33819e-15 0)
(3 -1.07611e-15 0)
(3 4.52769e-16 0)
(3 1.66697e-15 0)
(3 2.82018e-15 0)
(3 2.06255e-15 0)
(3 1.0231e-15 0)
(3 1.28596e-15 0)
(3 7.65815e-16 0)
(3 -2.3505e-16 0)
(3 -3.10968e-16 0)
(3 5.64212e-17 0)
(3 1.48124e-16 0)
(3 1.28162e-15 0)
(3 1.05759e-15 0)
(3 2.77564e-17 0)
(3 -5.96541e-18 0)
(3 1.45e-16 0)
(3 -1.18224e-16 0)
(3 -3.48164e-16 0)
(3 -4.76377e-16 0)
(3 -2.9166e-16 0)
(3 -2.68368e-16 0)
(3 -7.36971e-16 0)
(3 -8.11639e-16 0)
(3 -4.26196e-16 0)
(3 2.96828e-16 0)
(3 1.48601e-15 0)
(3 2.49438e-15 0)
(3 3.12122e-15 0)
(3 2.90429e-15 0)
(3 2.69599e-15 0)
(3 1.73707e-15 0)
(3 1.26818e-15 0)
(3 1.73633e-15 0)
(3 1.82926e-15 0)
(3 2.10959e-15 0)
(3 1.22759e-15 0)
(3 2.74922e-16 0)
(3 3.91405e-16 0)
(3 9.17147e-16 0)
(3 4.44447e-16 0)
(3 -1.02674e-17 0)
(3 3.20801e-16 0)
(3 8.76771e-16 0)
(3 1.25311e-15 0)
(3 6.32391e-16 0)
(3 3.12907e-16 0)
(3 4.48436e-16 0)
(3 -1.76771e-16 0)
(3 -6.96561e-16 0)
(3 -3.83419e-16 0)
(3 9.7103e-17 0)
(3 5.04235e-16 0)
(3 9.20756e-16 0)
(3 1.40978e-15 0)
(3 2.04296e-15 0)
(3 1.76875e-15 0)
(3 1.66266e-15 0)
(3 6.6167e-16 0)
(3 -1.2011e-16 0)
(3 -4.57224e-16 0)
(3 -4.23243e-16 0)
(3 2.84662e-16 0)
(3 3.04864e-16 0)
(3 -1.86408e-16 0)
(3 5.89774e-17 0)
(3 3.68375e-16 0)
(3 1.02659e-15 0)
(3 1.10303e-15 0)
(3 1.06085e-15 0)
(3 1.09559e-15 0)
(3 7.37775e-17 0)
(3 -1.24202e-15 0)
(3 -8.96962e-16 0)
(3 -2.03117e-16 0)
(3 -5.18054e-17 0)
(3 -2.85483e-16 0)
(3 -5.45826e-17 0)
(3 2.67313e-16 0)
(3 7.22664e-16 0)
(3 7.23986e-16 0)
(3 -1.31673e-16 0)
(3 -2.58158e-15 0)
(3 -2.84309e-15 0)
(3 2.62054e-16 0)
(3 1.38931e-15 0)
(3 7.48968e-16 0)
(3 -1.94735e-16 0)
(3 -6.54475e-16 0)
(3 1.02903e-16 0)
(3 2.60575e-17 0)
(3 -4.32246e-16 0)
(3 -6.00139e-16 0)
(3 7.59389e-16 0)
(3 1.20891e-15 0)
(3 8.61522e-16 0)
(3 1.63752e-16 0)
(3 -8.77423e-17 0)
(3 1.2364e-16 0)
(3 5.0409e-16 0)
(3 4.58938e-16 0)
(3 -2.549e-16 0)
(3 -5.61075e-16 0)
(3 -6.11552e-16 0)
(3 -6.4992e-17 0)
(3 1.99396e-16 0)
(3 -1.31258e-16 0)
(3 -7.14292e-16 0)
(3 1.4462e-16 0)
(3 3.13927e-15 0)
(3 1.80777e-15 0)
(3 9.14648e-16 0)
(3 -8.30965e-16 0)
(3 -1.08835e-16 0)
(3 -1.97768e-16 0)
(3 -6.81004e-16 0)
(3 -9.5874e-16 0)
(3 -2.1946e-16 0)
(3 2.27092e-17 0)
(3 5.11397e-16 0)
(3 3.03892e-16 0)
(3 5.43953e-16 0)
(3 5.90589e-16 0)
(3 4.46257e-16 0)
(3 2.65138e-16 0)
(3 -4.22874e-17 0)
(3 -1.25513e-15 0)
(3 -1.44114e-15 0)
(3 -1.27644e-15 0)
(3 8.25288e-18 0)
(3 1.62825e-15 0)
(3 1.76139e-15 0)
(3 1.63458e-15 0)
(3 2.01036e-15 0)
(3 2.71294e-15 0)
(3 2.3446e-15 0)
(3 7.73354e-16 0)
(3 -1.24305e-17 0)
(3 8.84198e-17 0)
(3 -5.98143e-17 0)
(3 -5.30164e-16 0)
(3 -1.10507e-15 0)
(3 -1.38364e-15 0)
(3 -6.96335e-16 0)
(3 4.91941e-16 0)
(3 1.18031e-15 0)
(3 1.25224e-15 0)
(3 8.44228e-16 0)
(3 -4.04211e-17 0)
(3 5.75684e-17 0)
(3 2.75326e-18 0)
(3 -4.23179e-16 0)
(3 -8.34447e-16 0)
(3 -1.22795e-15 0)
(3 -9.94034e-16 0)
(3 1.91332e-15 0)
(3 1.8391e-15 0)
(3 1.34306e-15 0)
(3 2.2117e-15 0)
(3 1.76447e-15 0)
(3 8.71426e-16 0)
(3 1.40639e-16 0)
(3 1.0812e-16 0)
(3 2.58184e-16 0)
(3 1.97826e-16 0)
(3 -2.97538e-16 0)
(3 -1.95099e-18 0)
(3 6.17898e-16 0)
(3 1.63371e-15 0)
(3 3.22425e-15 0)
(3 2.72314e-15 0)
(3 1.78298e-15 0)
(3 1.88504e-15 0)
(3 2.29551e-15 0)
(3 2.32041e-15 0)
(3 1.80158e-15 0)
(3 -5.66052e-17 0)
(3 -1.4186e-15 0)
(3 -1.58408e-15 0)
(3 -8.38831e-16 0)
(3 5.77352e-16 0)
(3 1.19884e-15 0)
(3 2.22376e-16 0)
(3 -8.60849e-16 0)
(3 -1.48228e-15 0)
(3 -1.64393e-18 0)
(3 -1.95204e-16 0)
(3 2.06729e-16 0)
(3 2.41174e-16 0)
(3 -1.43532e-16 0)
(3 -1.15395e-16 0)
(3 -1.60829e-16 0)
(3 -1.07814e-16 0)
(3 3.20746e-16 0)
(3 1.85414e-15 0)
(3 2.62229e-15 0)
(3 2.50887e-15 0)
(3 2.11003e-15 0)
(3 1.53835e-15 0)
(3 1.41738e-15 0)
(3 4.72102e-16 0)
(3 -1.06654e-15 0)
(3 -1.63376e-15 0)
(3 -1.77125e-15 0)
(3 -7.50482e-16 0)
(3 1.44809e-16 0)
(3 -1.66358e-15 0)
(3 -2.05793e-15 0)
(3 -2.72293e-15 0)
(3 -6.55531e-17 0)
(3 -2.15244e-16 0)
(3 -2.7222e-16 0)
(3 -2.17559e-16 0)
(3 -1.0478e-15 0)
(3 -1.99613e-15 0)
(3 -1.84291e-15 0)
(3 -1.17038e-15 0)
(3 -6.79428e-16 0)
(3 -7.88755e-17 0)
(3 1.33281e-16 0)
(3 -4.47391e-16 0)
(3 -1.06242e-15 0)
(3 -7.67149e-16 0)
(3 6.10246e-16 0)
(3 1.66043e-15 0)
(3 5.46228e-16 0)
(3 -2.1993e-17 0)
(3 2.02394e-17 0)
(3 -8.35746e-16 0)
(3 -1.77422e-15 0)
(3 -2.67379e-15 0)
(3 -2.65765e-15 0)
(3 -2.27792e-15 0)
(3 6.4544e-17 0)
(3 1.79859e-16 0)
(3 2.48039e-16 0)
(3 -1.07676e-17 0)
(3 -7.78102e-16 0)
(3 -1.15248e-15 0)
(3 -5.43556e-16 0)
(3 5.61441e-16 0)
(3 -5.12291e-16 0)
(3 -1.44761e-15 0)
(3 -1.82123e-15 0)
(3 -1.14988e-15 0)
(3 -4.4642e-16 0)
(3 -1.03343e-16 0)
(3 5.26529e-16 0)
(3 1.01694e-15 0)
(3 1.45641e-15 0)
(3 1.52276e-15 0)
(3 1.04947e-15 0)
(3 -1.55879e-15 0)
(3 -3.2142e-15 0)
(3 -3.1191e-15 0)
(3 -2.08866e-15 0)
(3 -1.16972e-15 0)
(3 3.00452e-17 0)
(3 -1.88301e-16 0)
(3 -2.88337e-16 0)
(3 -3.12435e-17 0)
(3 -5.57041e-17 0)
(3 8.3391e-19 0)
(3 3.50737e-16 0)
(3 3.8191e-16 0)
(3 -7.27604e-17 0)
(3 -4.18026e-16 0)
(3 -9.70832e-16 0)
(3 -7.35086e-16 0)
(3 -1.81224e-16 0)
(3 -9.21477e-17 0)
(3 -6.15371e-16 0)
(3 -5.25128e-16 0)
(3 1.27982e-15 0)
(3 1.13092e-15 0)
(3 5.90498e-16 0)
(3 -5.58381e-16 0)
(3 -1.1066e-15 0)
(3 -1.50632e-15 0)
(3 -1.37759e-15 0)
(3 -1.32617e-15 0)
(3 -4.33848e-17 0)
(3 -3.68501e-16 0)
(3 -5.30901e-16 0)
(3 -1.68762e-16 0)
(3 4.37353e-16 0)
(3 3.42944e-17 0)
(3 -3.89307e-16 0)
(3 -1.02848e-15 0)
(3 -7.78148e-16 0)
(3 -1.18655e-15 0)
(3 -1.30033e-15 0)
(3 -1.35731e-15 0)
(3 -1.24556e-15 0)
(3 -3.27907e-16 0)
(3 -5.30895e-17 0)
(3 2.00497e-16 0)
(3 5.62103e-16 0)
(3 2.48682e-16 0)
(3 -5.77696e-16 0)
(3 4.82189e-16 0)
(3 1.64194e-15 0)
(3 8.08797e-16 0)
(3 -4.49162e-16 0)
(3 -7.4869e-16 0)
(3 6.83079e-17 0)
(3 1.10258e-16 0)
(3 6.01109e-17 0)
(3 -7.42779e-17 0)
(3 3.46797e-16 0)
(3 3.28776e-16 0)
(3 3.34142e-17 0)
(3 -1.80848e-16 0)
(3 -6.67619e-16 0)
(3 -1.07751e-15 0)
(3 -1.0546e-15 0)
(3 -8.05897e-16 0)
(3 -8.20507e-16 0)
(3 -1.02073e-16 0)
(3 5.28771e-16 0)
(3 8.80273e-16 0)
(3 3.95162e-16 0)
(3 3.3976e-16 0)
(3 -8.44357e-17 0)
(3 -2.33067e-16 0)
(3 4.65863e-16 0)
(3 5.02386e-16 0)
(3 -6.29351e-17 0)
(3 -2.98009e-16 0)
(2.93321 0.0158022 0)
(2.84441 0.076791 0)
(2.75873 0.139051 0)
(2.66778 0.239313 0)
(2.57079 0.355637 0)
(2.51354 0.43413 0)
(2.41564 0.547933 0)
(2.3522 0.628929 0)
(2.31115 0.722954 0)
(2.25497 0.79782 0)
(2.24956 0.852722 0)
(2.28359 0.888112 0)
(2.32909 0.894795 0)
(2.33699 0.889553 0)
(2.34559 0.885129 0)
(2.34609 0.867972 0)
(2.34528 0.859059 0)
(2.3439 0.849637 0)
(2.34595 0.847446 0)
(2.34567 0.849347 0)
(2.343 0.849588 0)
(2.33868 0.850847 0)
(2.33531 0.850824 0)
(2.33407 0.849995 0)
(2.99875 0.00122361 0)
(2.98928 0.0127299 0)
(2.96168 0.0494867 0)
(2.90244 0.1305 0)
(2.80077 0.276963 0)
(2.69084 0.455848 0)
(2.51663 0.693933 0)
(2.40447 0.893355 0)
(2.21284 1.07575 0)
(2.16005 1.10302 0)
(2.15236 1.03252 0)
(2.18439 0.997959 0)
(2.24959 0.952164 0)
(2.3011 0.900939 0)
(2.33469 0.852021 0)
(2.35012 0.832285 0)
(2.35294 0.835 0)
(2.35691 0.835805 0)
(2.35777 0.837307 0)
(2.3556 0.841095 0)
(2.351 0.846051 0)
(2.34378 0.848907 0)
(2.33898 0.851387 0)
(2.33648 0.851725 0)
(3 -5.25299e-06 0)
(3 1.16347e-05 0)
(3.00002 -1.88605e-06 0)
(2.99991 6.30074e-05 0)
(2.99859 0.0019813 0)
(2.9919 0.0115263 0)
(2.96351 0.0564693 0)
(2.90531 0.165916 0)
(2.759 0.424884 0)
(2.59423 0.705156 0)
(2.46118 0.839311 0)
(2.33615 0.934473 0)
(2.2885 0.915431 0)
(2.29826 0.898847 0)
(2.31504 0.883511 0)
(2.34746 0.870347 0)
(2.3526 0.864996 0)
(2.35864 0.843973 0)
(2.36179 0.839254 0)
(2.36103 0.839194 0)
(2.35826 0.842275 0)
(2.35146 0.845829 0)
(2.34674 0.849503 0)
(2.34436 0.850621 0)
(3 -5.39831e-08 0)
(3 -6.44009e-08 0)
(3 -1.06551e-06 0)
(3 -1.58214e-06 0)
(3.00001 -8.97037e-06 0)
(2.99999 2.13174e-05 0)
(3.00001 -3.83131e-05 0)
(2.99935 0.00107957 0)
(2.98872 0.0186986 0)
(2.9011 0.166003 0)
(2.77563 0.410635 0)
(2.41335 0.815805 0)
(2.34235 0.881702 0)
(2.28672 0.943541 0)
(2.29108 0.94346 0)
(2.30905 0.920683 0)
(2.33403 0.885721 0)
(2.34217 0.859643 0)
(2.35372 0.842962 0)
(2.361 0.838665 0)
(2.36328 0.840671 0)
(2.36067 0.843962 0)
(2.35758 0.846413 0)
(2.35286 0.848869 0)
(3 1.56675e-10 0)
(3 -3.2052e-09 0)
(3 -2.36664e-08 0)
(3 -8.184e-08 0)
(3 -7.57899e-07 0)
(3 -7.64982e-07 0)
(3 -1.46347e-06 0)
(3 -2.4358e-06 0)
(3.00004 -8.89433e-05 0)
(2.99933 0.00088859 0)
(2.98676 0.018903 0)
(2.85336 0.187559 0)
(2.69938 0.434617 0)
(2.39442 0.773728 0)
(2.29562 0.902567 0)
(2.30065 0.889099 0)
(2.31159 0.882948 0)
(2.32024 0.877064 0)
(2.33132 0.86855 0)
(2.35023 0.852107 0)
(2.3563 0.850125 0)
(2.35777 0.849951 0)
(2.35763 0.849093 0)
(2.35299 0.852728 0)
(3 7.36607e-13 0)
(3 5.26598e-12 0)
(3 1.05668e-10 0)
(3 5.95844e-11 0)
(3 -7.94541e-10 0)
(3 -6.42877e-08 0)
(3 -5.73926e-08 0)
(3 -2.24913e-07 0)
(3 -6.44417e-06 0)
(3 -6.15137e-06 0)
(3.00003 -7.4285e-05 0)
(2.99836 0.00228264 0)
(2.97739 0.0326891 0)
(2.80867 0.233763 0)
(2.53384 0.572882 0)
(2.42681 0.744474 0)
(2.28671 0.896584 0)
(2.28179 0.901902 0)
(2.30019 0.887919 0)
(2.3223 0.861142 0)
(2.33185 0.854456 0)
(2.34259 0.851438 0)
(2.34639 0.845079 0)
(2.35063 0.84076 0)
(3 -6.85748e-15 0)
(3 1.18946e-12 0)
(3 2.17844e-11 0)
(3 2.63445e-11 0)
(3 3.2022e-11 0)
(3 -3.76902e-11 0)
(3 -8.08989e-10 0)
(3 -9.41384e-10 0)
(3 -2.42833e-08 0)
(3 -4.15823e-07 0)
(3 -7.64863e-06 0)
(3 -4.92586e-06 0)
(3 -3.84278e-05 0)
(2.99476 0.00719294 0)
(2.94111 0.0737907 0)
(2.76026 0.322915 0)
(2.41947 0.724657 0)
(2.3835 0.782054 0)
(2.32452 0.840566 0)
(2.31907 0.845966 0)
(2.32357 0.846812 0)
(2.32974 0.842009 0)
(2.33566 0.837455 0)
(2.34075 0.835655 0)
(3 -2.90755e-16 0)
(3 -2.12576e-14 0)
(3 9.10085e-14 0)
(3 1.9918e-12 0)
(3 7.07116e-12 0)
(3 7.08783e-12 0)
(3 5.30536e-12 0)
(3 2.59471e-12 0)
(3 9.86879e-11 0)
(3 6.28845e-11 0)
(3 -3.8301e-08 0)
(3 -5.8062e-07 0)
(3 -2.49108e-06 0)
(3.00001 -2.62892e-05 0)
(2.99969 0.000529542 0)
(2.98631 0.0186613 0)
(2.86331 0.172894 0)
(2.68999 0.448308 0)
(2.34585 0.84059 0)
(2.2966 0.85686 0)
(2.31392 0.841648 0)
(2.31094 0.843984 0)
(2.31347 0.84383 0)
(2.32467 0.840362 0)
(3 -1.49559e-15 0)
(3 -4.0736e-15 0)
(3 -1.80266e-15 0)
(3 5.41446e-15 0)
(3 8.41565e-14 0)
(3 8.10117e-13 0)
(3 1.02243e-12 0)
(3 1.29519e-12 0)
(3 1.58171e-11 0)
(3 1.44241e-11 0)
(3 2.49932e-10 0)
(3 -7.83982e-09 0)
(3 -3.56331e-08 0)
(3 -3.11269e-06 0)
(3 -3.65031e-06 0)
(3 -1.78232e-05 0)
(2.99718 0.00486301 0)
(2.96192 0.058426 0)
(2.72173 0.371336 0)
(2.5722 0.594217 0)
(2.37134 0.801511 0)
(2.29817 0.88066 0)
(2.29116 0.865298 0)
(2.30494 0.847191 0)
(3 -1.97064e-15 0)
(3 -1.45983e-15 0)
(3 -4.42431e-16 0)
(3 1.24827e-15 0)
(3 1.23728e-15 0)
(3 8.33613e-15 0)
(3 2.17021e-14 0)
(3 8.85841e-14 0)
(3 2.7037e-13 0)
(3 2.39623e-12 0)
(3 1.4311e-11 0)
(3 2.36322e-11 0)
(3 1.28493e-10 0)
(3 -2.10515e-08 0)
(3 -9.73532e-07 0)
(3 -1.02401e-06 0)
(3 -9.41333e-06 0)
(2.99955 0.000699858 0)
(2.97949 0.0309625 0)
(2.89717 0.177934 0)
(2.56836 0.584924 0)
(2.4354 0.757585 0)
(2.3496 0.805582 0)
(2.33544 0.829563 0)
(3 -1.06949e-15 0)
(3 -2.60486e-16 0)
(3 2.73914e-16 0)
(3 1.39744e-15 0)
(3 1.73483e-15 0)
(3 1.96368e-15 0)
(3 2.61598e-15 0)
(3 1.68956e-15 0)
(3 2.57236e-15 0)
(3 1.24813e-14 0)
(3 2.4418e-13 0)
(3 5.29999e-12 0)
(3 2.12784e-11 0)
(3 7.12889e-11 0)
(3 -2.01876e-08 0)
(3 -1.10961e-07 0)
(3 -1.46806e-06 0)
(3 -4.93844e-06 0)
(2.99991 0.000181034 0)
(2.99597 0.00758705 0)
(2.91157 0.127037 0)
(2.7547 0.388559 0)
(2.45067 0.727807 0)
(2.3266 0.897958 0)
(3 9.94982e-16 0)
(3 1.3857e-15 0)
(3 1.42477e-15 0)
(3 6.07632e-16 0)
(3 -1.27767e-17 0)
(3 -4.63182e-16 0)
(3 9.75548e-16 0)
(3 8.06119e-16 0)
(3 4.10594e-17 0)
(3 -2.42292e-16 0)
(3 1.72453e-15 0)
(3 2.83695e-13 0)
(3 2.35929e-12 0)
(3 6.35998e-12 0)
(3 9.84317e-11 0)
(3 -2.52513e-09 0)
(3 -1.81968e-08 0)
(3 -1.29967e-06 0)
(3 -1.32365e-06 0)
(2.99999 -8.94704e-07 0)
(2.99751 0.00441129 0)
(2.96895 0.0599896 0)
(2.78108 0.325753 0)
(2.52227 0.673498 0)
(3 2.10735e-15 0)
(3 8.05183e-16 0)
(3 2.89972e-16 0)
(3 -7.91174e-17 0)
(3 1.70409e-16 0)
(3 1.02139e-15 0)
(3 1.77092e-15 0)
(3 2.08463e-15 0)
(3 1.72453e-15 0)
(3 1.92603e-15 0)
(3 2.10118e-15 0)
(3 2.14808e-15 0)
(3 2.86592e-14 0)
(3 6.39198e-13 0)
(3 1.42143e-11 0)
(3 2.73312e-11 0)
(3 -5.72591e-11 0)
(3 -3.12134e-08 0)
(3 -5.79063e-07 0)
(3 -4.68516e-07 0)
(3 -6.92039e-07 0)
(2.99945 0.00107441 0)
(2.9748 0.046201 0)
(2.88508 0.197901 0)
(3 3.46265e-16 0)
(3 -7.31153e-17 0)
(3 -5.16766e-16 0)
(3 -7.90914e-16 0)
(3 -4.43805e-17 0)
(3 2.0773e-15 0)
(3 2.36809e-15 0)
(3 3.24669e-15 0)
(3 3.73131e-15 0)
(3 3.50563e-15 0)
(3 2.40336e-15 0)
(3 3.00721e-16 0)
(3 -1.18875e-16 0)
(3 5.76475e-15 0)
(3 6.82416e-13 0)
(3 7.37838e-12 0)
(3 7.0053e-12 0)
(3 -1.01048e-10 0)
(3 -1.93815e-08 0)
(3 -1.78683e-07 0)
(3 -2.15511e-07 0)
(3 -1.13701e-06 0)
(2.99962 0.000730705 0)
(2.99375 0.015873 0)
(3 -6.20009e-16 0)
(3 -1.43981e-15 0)
(3 -1.74786e-15 0)
(3 -1.50399e-15 0)
(3 -9.61496e-16 0)
(3 -2.89372e-16 0)
(3 8.18703e-16 0)
(3 2.59322e-15 0)
(3 4.07975e-15 0)
(3 3.89738e-15 0)
(3 3.27972e-15 0)
(3 2.79836e-15 0)
(3 2.94791e-15 0)
(3 3.39476e-15 0)
(3 5.39665e-15 0)
(3 2.83829e-13 0)
(3 1.6021e-12 0)
(3 2.47014e-12 0)
(3 -6.84335e-11 0)
(3 -6.77816e-09 0)
(3 -5.08889e-08 0)
(3 -4.89166e-07 0)
(3 1.11393e-05 0)
(2.99999 -3.95571e-05 0)
(3 -7.87645e-16 0)
(3 -7.06594e-16 0)
(3 -5.16435e-16 0)
(3 -1.56685e-16 0)
(3 -4.26165e-16 0)
(3 -1.21406e-15 0)
(3 -1.19087e-15 0)
(3 1.78551e-15 0)
(3 5.05162e-15 0)
(3 6.02144e-15 0)
(3 5.71239e-15 0)
(3 4.54419e-15 0)
(3 4.40873e-15 0)
(3 4.46268e-15 0)
(3 4.25521e-15 0)
(3 2.51265e-15 0)
(3 7.40462e-14 0)
(3 7.16445e-13 0)
(3 1.35257e-12 0)
(3 -6.26598e-11 0)
(3 -2.44692e-09 0)
(3 -1.4942e-07 0)
(3 -5.32709e-08 0)
(3 -2.11406e-07 0)
(3 4.87107e-16 0)
(3 7.1242e-16 0)
(3 1.25981e-15 0)
(3 9.11936e-16 0)
(3 -3.35176e-17 0)
(3 -1.51427e-15 0)
(3 -3.32558e-15 0)
(3 -7.71458e-16 0)
(3 1.69764e-15 0)
(3 2.46564e-15 0)
(3 2.56454e-15 0)
(3 2.7209e-15 0)
(3 3.17266e-15 0)
(3 4.04965e-15 0)
(3 3.56025e-15 0)
(3 2.39424e-16 0)
(3 -4.17083e-14 0)
(3 -9.89469e-13 0)
(3 -9.14562e-13 0)
(3 6.49479e-11 0)
(3 2.32959e-09 0)
(3 1.48392e-07 0)
(3 5.31525e-08 0)
(3 2.1141e-07 0)
(3 7.54604e-16 0)
(3 4.67455e-16 0)
(3 4.00813e-16 0)
(3 1.81916e-16 0)
(3 -2.9053e-16 0)
(3 -4.54365e-16 0)
(3 -1.43514e-15 0)
(3 -2.80766e-16 0)
(3 1.523e-15 0)
(3 2.06917e-15 0)
(3 3.17796e-15 0)
(3 4.92624e-15 0)
(3 4.68271e-15 0)
(3 4.73919e-15 0)
(3 2.44669e-15 0)
(3 -2.86735e-13 0)
(3 -1.51796e-12 0)
(3 -2.63231e-12 0)
(3 6.81341e-11 0)
(3 6.78181e-09 0)
(3 5.08474e-08 0)
(3 4.8953e-07 0)
(3 -1.11382e-05 0)
(2.99999 3.95571e-05 0)
(3 3.77137e-16 0)
(3 -6.24971e-17 0)
(3 -4.16799e-16 0)
(3 -1.24032e-16 0)
(3 7.49563e-16 0)
(3 1.89109e-15 0)
(3 2.73574e-15 0)
(3 2.92575e-15 0)
(3 3.28065e-15 0)
(3 3.24447e-15 0)
(3 4.41059e-15 0)
(3 5.93923e-15 0)
(3 6.07201e-15 0)
(3 4.15795e-16 0)
(3 -6.75868e-13 0)
(3 -7.37429e-12 0)
(3 -6.99296e-12 0)
(3 1.00982e-10 0)
(3 1.93808e-08 0)
(3 1.78692e-07 0)
(3 2.1548e-07 0)
(3 1.13727e-06 0)
(2.99962 -0.000730705 0)
(2.99375 -0.015873 0)
(3 -2.79665e-18 0)
(3 -1.12952e-17 0)
(3 -7.30826e-16 0)
(3 2.20251e-16 0)
(3 9.28673e-16 0)
(3 2.81918e-15 0)
(3 3.89938e-15 0)
(3 2.83487e-15 0)
(3 6.5728e-16 0)
(3 4.69756e-16 0)
(3 1.07316e-15 0)
(3 -7.82677e-17 0)
(3 -2.52681e-14 0)
(3 -6.35532e-13 0)
(3 -1.42148e-11 0)
(3 -2.73275e-11 0)
(3 5.72597e-11 0)
(3 3.12134e-08 0)
(3 5.79062e-07 0)
(3 4.68517e-07 0)
(3 6.92037e-07 0)
(2.99945 -0.00107441 0)
(2.9748 -0.046201 0)
(2.88508 -0.197901 0)
(3 -2.60094e-16 0)
(3 -1.86781e-16 0)
(3 -8.06933e-16 0)
(3 1.44302e-15 0)
(3 3.19959e-15 0)
(3 3.50992e-15 0)
(3 2.46834e-15 0)
(3 1.1435e-15 0)
(3 -2.25768e-16 0)
(3 -4.43042e-16 0)
(3 3.812e-16 0)
(3 -2.80667e-13 0)
(3 -2.36022e-12 0)
(3 -6.36062e-12 0)
(3 -9.84336e-11 0)
(3 2.52514e-09 0)
(3 1.81968e-08 0)
(3 1.29967e-06 0)
(3 1.32365e-06 0)
(2.99999 8.94702e-07 0)
(2.99751 -0.00441129 0)
(2.96895 -0.0599896 0)
(2.78108 -0.325753 0)
(2.52227 -0.673498 0)
(3 -2.70256e-16 0)
(3 -3.74841e-16 0)
(3 -2.99349e-16 0)
(3 8.96259e-16 0)
(3 1.88946e-15 0)
(3 3.90175e-16 0)
(3 -1.66666e-15 0)
(3 -2.53197e-15 0)
(3 -3.41735e-15 0)
(3 -1.44867e-14 0)
(3 -2.45995e-13 0)
(3 -5.30173e-12 0)
(3 -2.12794e-11 0)
(3 -7.12919e-11 0)
(3 2.01876e-08 0)
(3 1.10961e-07 0)
(3 1.46806e-06 0)
(3 4.93844e-06 0)
(2.99991 -0.000181034 0)
(2.99597 -0.00758705 0)
(2.91157 -0.127037 0)
(2.7547 -0.388559 0)
(2.45067 -0.727807 0)
(2.3266 -0.897958 0)
(3 -1.43792e-15 0)
(3 -5.03254e-16 0)
(3 -1.82802e-16 0)
(3 -7.99016e-16 0)
(3 -1.53791e-15 0)
(3 -1.01337e-14 0)
(3 -2.3843e-14 0)
(3 -9.16275e-14 0)
(3 -2.72397e-13 0)
(3 -2.3996e-12 0)
(3 -1.43143e-11 0)
(3 -2.36363e-11 0)
(3 -1.28497e-10 0)
(3 2.10515e-08 0)
(3 9.73532e-07 0)
(3 1.02401e-06 0)
(3 9.41334e-06 0)
(2.99955 -0.000699858 0)
(2.97949 -0.0309625 0)
(2.89717 -0.177934 0)
(2.56836 -0.584924 0)
(2.4354 -0.757585 0)
(2.3496 -0.805582 0)
(2.33544 -0.829563 0)
(3 -3.95191e-16 0)
(3 9.40421e-16 0)
(3 9.36912e-17 0)
(3 -7.61475e-15 0)
(3 -8.9561e-14 0)
(3 -8.16226e-13 0)
(3 -1.03112e-12 0)
(3 -1.30466e-12 0)
(3 -1.58283e-11 0)
(3 -1.4436e-11 0)
(3 -2.49944e-10 0)
(3 7.83981e-09 0)
(3 3.56331e-08 0)
(3 3.11269e-06 0)
(3 3.65031e-06 0)
(3 1.78232e-05 0)
(2.99718 -0.00486301 0)
(2.96192 -0.058426 0)
(2.72173 -0.371336 0)
(2.5722 -0.594217 0)
(2.37134 -0.801511 0)
(2.29817 -0.88066 0)
(2.29116 -0.865298 0)
(2.30494 -0.847191 0)
(3 -3.9576e-16 0)
(3 2.02836e-14 0)
(3 -9.11796e-14 0)
(3 -1.99173e-12 0)
(3 -7.07118e-12 0)
(3 -7.08839e-12 0)
(3 -5.30689e-12 0)
(3 -2.60138e-12 0)
(3 -9.86966e-11 0)
(3 -6.28923e-11 0)
(3 3.8301e-08 0)
(3 5.8062e-07 0)
(3 2.49108e-06 0)
(3.00001 2.62892e-05 0)
(2.99969 -0.000529542 0)
(2.98631 -0.0186613 0)
(2.86331 -0.172894 0)
(2.68999 -0.448308 0)
(2.34585 -0.84059 0)
(2.2966 -0.856861 0)
(2.31392 -0.841648 0)
(2.31094 -0.843984 0)
(2.31347 -0.84383 0)
(2.32467 -0.840362 0)
(3 1.50823e-15 0)
(3 -1.19608e-12 0)
(3 -2.17919e-11 0)
(3 -2.63488e-11 0)
(3 -3.20265e-11 0)
(3 3.76857e-11 0)
(3 8.08986e-10 0)
(3 9.41375e-10 0)
(3 2.42833e-08 0)
(3 4.15823e-07 0)
(3 7.64863e-06 0)
(3 4.92586e-06 0)
(3 3.84278e-05 0)
(2.99476 -0.00719294 0)
(2.94111 -0.0737907 0)
(2.76026 -0.322915 0)
(2.41947 -0.724657 0)
(2.3835 -0.782054 0)
(2.32452 -0.840566 0)
(2.31907 -0.845966 0)
(2.32357 -0.846812 0)
(2.32974 -0.842009 0)
(2.33566 -0.837455 0)
(2.34075 -0.835655 0)
(3 -7.40721e-13 0)
(3 -5.27098e-12 0)
(3 -1.05674e-10 0)
(3 -5.95848e-11 0)
(3 7.94547e-10 0)
(3 6.42877e-08 0)
(3 5.73926e-08 0)
(3 2.24913e-07 0)
(3 6.44417e-06 0)
(3 6.15137e-06 0)
(3.00003 7.4285e-05 0)
(2.99836 -0.00228264 0)
(2.97739 -0.0326891 0)
(2.80867 -0.233763 0)
(2.53384 -0.572882 0)
(2.42681 -0.744474 0)
(2.28671 -0.896584 0)
(2.28179 -0.901902 0)
(2.30019 -0.887919 0)
(2.3223 -0.861142 0)
(2.33185 -0.854456 0)
(2.34259 -0.851438 0)
(2.34639 -0.845079 0)
(2.35063 -0.84076 0)
(3 -1.56679e-10 0)
(3 3.20521e-09 0)
(3 2.36666e-08 0)
(3 8.18402e-08 0)
(3 7.57899e-07 0)
(3 7.64983e-07 0)
(3 1.46347e-06 0)
(3 2.4358e-06 0)
(3.00004 8.89433e-05 0)
(2.99933 -0.00088859 0)
(2.98676 -0.018903 0)
(2.85336 -0.187559 0)
(2.69938 -0.434617 0)
(2.39442 -0.773728 0)
(2.29562 -0.902567 0)
(2.30065 -0.889099 0)
(2.31159 -0.882948 0)
(2.32024 -0.877064 0)
(2.33132 -0.86855 0)
(2.35023 -0.852107 0)
(2.3563 -0.850125 0)
(2.35777 -0.849951 0)
(2.35763 -0.849093 0)
(2.35299 -0.852728 0)
(3 5.39831e-08 0)
(3 6.44011e-08 0)
(3 1.06551e-06 0)
(3 1.58214e-06 0)
(3.00001 8.97037e-06 0)
(2.99999 -2.13174e-05 0)
(3.00001 3.83131e-05 0)
(2.99935 -0.00107957 0)
(2.98872 -0.0186986 0)
(2.9011 -0.166003 0)
(2.77563 -0.410635 0)
(2.41335 -0.815805 0)
(2.34235 -0.881702 0)
(2.28672 -0.943541 0)
(2.29108 -0.94346 0)
(2.30905 -0.920683 0)
(2.33403 -0.885721 0)
(2.34217 -0.859643 0)
(2.35372 -0.842962 0)
(2.361 -0.838665 0)
(2.36328 -0.840671 0)
(2.36067 -0.843962 0)
(2.35758 -0.846413 0)
(2.35286 -0.848869 0)
(3 5.253e-06 0)
(3 -1.16347e-05 0)
(3.00002 1.886e-06 0)
(2.99991 -6.30073e-05 0)
(2.99859 -0.0019813 0)
(2.9919 -0.0115263 0)
(2.96351 -0.0564693 0)
(2.90531 -0.165916 0)
(2.759 -0.424884 0)
(2.59423 -0.705156 0)
(2.46118 -0.839311 0)
(2.33615 -0.934473 0)
(2.2885 -0.915431 0)
(2.29826 -0.898847 0)
(2.31504 -0.883511 0)
(2.34746 -0.870347 0)
(2.3526 -0.864996 0)
(2.35864 -0.843973 0)
(2.36179 -0.839254 0)
(2.36103 -0.839194 0)
(2.35826 -0.842275 0)
(2.35146 -0.845829 0)
(2.34674 -0.849503 0)
(2.34436 -0.850621 0)
(2.99875 -0.00122361 0)
(2.98928 -0.0127299 0)
(2.96168 -0.0494867 0)
(2.90244 -0.1305 0)
(2.80077 -0.276963 0)
(2.69084 -0.455848 0)
(2.51663 -0.693933 0)
(2.40447 -0.893355 0)
(2.21284 -1.07575 0)
(2.16005 -1.10302 0)
(2.15236 -1.03252 0)
(2.18439 -0.997959 0)
(2.24959 -0.952164 0)
(2.3011 -0.900939 0)
(2.33469 -0.852021 0)
(2.35012 -0.832285 0)
(2.35294 -0.835 0)
(2.35691 -0.835805 0)
(2.35777 -0.837307 0)
(2.3556 -0.841095 0)
(2.351 -0.846051 0)
(2.34378 -0.848907 0)
(2.33898 -0.851387 0)
(2.33648 -0.851725 0)
(2.93321 -0.0158022 0)
(2.84441 -0.076791 0)
(2.75873 -0.139051 0)
(2.66778 -0.239313 0)
(2.57079 -0.355637 0)
(2.51354 -0.43413 0)
(2.41564 -0.547933 0)
(2.3522 -0.628929 0)
(2.31115 -0.722954 0)
(2.25497 -0.79782 0)
(2.24956 -0.852722 0)
(2.28359 -0.888112 0)
(2.32909 -0.894795 0)
(2.33699 -0.889553 0)
(2.34559 -0.885129 0)
(2.34609 -0.867972 0)
(2.34528 -0.859059 0)
(2.3439 -0.849637 0)
(2.34595 -0.847446 0)
(2.34567 -0.849347 0)
(2.343 -0.849588 0)