/*--------------------------------*- C++ -*----------------------------------*\
  =========                 |
  \\      /  F ield         | OpenFOAM: The Open Source CFD Toolbox
   \\    /   O peration     | Website:  https://openfoam.org
    \\  /    A nd           | Version:  7
     \\/     M anipulation  |
\*---------------------------------------------------------------------------*/
FoamFile
{
    version     2.0;
    format      ascii;
    class       volScalarField;
    location    "3.9";
    object      p;
}
// * * * * * * * * * * * * * * * * * * * * * * * * * * * * * * * * * * * * * //

dimensions      [1 -1 -2 0 0 0 0];

internalField   nonuniform List<scalar> 
4608
(
1
1
1
1
1
1
1
1
1
1
1
1
1
1
1
1
1
1
1
1
1
1
1
1
1
1
1
1
1
1
1
1
1
1
1
1
1
1
1
1
1
1
1
1
1
1
1
1
1
1
1
1
1
1
1
1
1
1
1
1
1
1
1
1
1
1
1
1
1
1
1
1
1
1
1
1
1
1
1
1
1
1
1
1
1
1
1
1
1
1
1
1
1
1
1
1
1
1
1
1
1
1
1
1
1
1
1
1
1
1
1
1
1
1
1
1
1
1
1
1
1
1
1
1
1
1
1
1
1
1
1
1
1
1
1
1
1
1
1
1
1
1
1
1
1
1
1
1
1
1
1
1
1
1
1
1
1
1
1
1
1
1
1
1
1
1
1
1
1
1
1
1
1
1
1
1
1
1
1
1
1
1
1
1
1
1
1
1
1
1
1
1
1
1
1
1
1
1
1
1
1
1
1
1
1
1
1
1
1
1
1
1
1
1
1
1
1
1
1
1
1
1
1
1
1
1
1
1
1
1
1
1
1
1
1
1
1
1
1
1
1
1
1
1
1
1
1
1
1
1
1
1
1
1
1
1
1
1
1
1
1
1
1
1
1
1
1
1
1
1
1
1
1
1
1
1
1
1
1
1
1
1
1
1
1
1
1
1
1
1
1
1
1
1
1
1
1
1
1
1
1
1
1
1
1
1
1
1
1
1
1
1
1
1
1
1
1
1
1
1
1
1
1
1
1
1
1
1
1
1
1
1
1
1
1
1
1
1
1
1
1
1
1
1
1
1
1
1
1
1
1
1
1
1
1
1
1
1
1
1
1
1
1
1
1
1
1
1
1
1
1
1
1
1
1
1
1
1
1
1
1
1
1
1
1
1
1
1
1
1
1
1
1
1
1
1
1
1
1
1
1
1
1
1
1
1
1
1
1
1
1
1
1
1
1
1
1
1
1
1
1
1
1
1
1
1
1
1
1
1
1
1
1
1
1
1
1
1
1
1
1
1
1
1
1
1
1
1
1
1
1
1
1
1
1
1
1
1
1
1
1
1
1
1
1
1
1
1
1
1
1
1
1
1
1
1
1
1
1
1
1
1
1
1
1
1
1
1
1
1
1
1
1
1
1
1
1
1
1
1
1
1
1
1
1
1
1
1
1
1
1
1
1
1
1
1
1
1
1
1
1
1
1
1
1
1
1
1
1
1
1
1
1
1
1
1
1
1
1
1
1
1
1
1
1
1
1
1
1
1
1
1
1
1
1
1
1
1
1
1
1
1
1
1
1
1
1
1
1
1
1
1
1
1
1
1
1
1
1
1
1
1
1
1
1
1
1
1
1
1
1
1
1
1
1
1
1
1
1
1
1
1
1
1
1
1
1
1
1
1
1
1
1
1
1
1
1
1
1
1
1
1
1
1
1
1
1
1
1
1
1
1
1
1
1
1
1
1
1
1
1
1
1
1
1
1
1
1
1
1
1
1
1
1
1
1
1
1
1
1
1
1
1
1
1
1
1
1
1
1
1
1
1
1
1
1
1
1
1
1
1
1
1
1
1
1
1
1
1
1
1
1
1
1
1
1
1
1
1
1
1
1
1
1
1
1
1
1
1
1
1
1
1
1
1
1
1
1
1
1
1
1
1
1
1
1
1
1
1
1
1
1
1
1
1
1
1
1
1
1
1
1
1
1
1
1
1
1
1
1
1
1
1
1
1
1
1
1
1
1
1
1
1
1
1
1
1
1
1.29362
1.7612
2.31559
2.99934
3.62733
4.29228
4.85535
5.30454
5.36514
5.15531
4.71812
4.2297
3.80462
3.65488
3.56904
3.58346
3.61437
3.64404
3.68235
3.71361
3.74594
3.76305
3.76491
3.76065
1.00193
1.02151
1.08566
1.2125
1.47968
1.84923
2.37577
2.98013
3.59617
3.82104
4.04755
4.06887
3.96311
3.82772
3.78353
3.74735
3.71581
3.6902
3.68812
3.70487
3.73131
3.75705
3.76492
3.76792
0.999997
0.999967
1.00019
1.00011
1.0037
1.02277
1.10985
1.35911
1.99764
2.98003
3.85128
4.30078
4.3606
4.26112
4.1029
3.87713
3.73794
3.70246
3.68538
3.68893
3.70346
3.73323
3.76157
3.7731
1
0.999999
0.999999
0.999999
0.999986
1.00003
0.999946
1.00178
1.03373
1.31009
2.0309
3.13695
3.93409
4.12171
4.03525
3.93618
3.87679
3.81876
3.74529
3.69073
3.68334
3.6944
3.72099
3.74613
1
1
1
1
0.999999
0.999999
0.999993
0.999996
0.999893
1.00174
1.03708
1.37481
2.18529
3.41264
3.88632
4.0497
4.02433
3.97922
3.83361
3.72777
3.70051
3.6912
3.70267
3.72094
1
1
1
1
1
1
1
1
0.999988
0.999989
0.999902
1.00377
1.07206
1.51461
2.50762
3.54257
3.97909
3.96018
3.90437
3.8285
3.78155
3.74519
3.71338
3.71635
1
1
1
1
1
1
1
1
1
0.999999
0.999987
0.99999
0.999998
1.00941
1.17727
1.78958
2.87061
3.63084
3.92538
3.91173
3.868
3.81009
3.75724
3.71984
1
1
1
1
1
1
1
1
1
1
1
0.999999
0.999998
0.999965
1.00128
1.03122
1.37368
2.23445
3.32588
3.65628
3.76156
3.77344
3.74162
3.69493
1
1
1
1
1
1
1
1
1
1
1
1
1
0.999994
0.999994
0.999981
1.00918
1.11672
1.75706
2.79192
3.62168
3.78916
3.76928
3.72783
1
1
1
1
1
1
1
1
1
1
1
1
1
1
0.999999
0.999996
0.999979
1.00095
1.05099
1.39243
2.38776
3.30478
3.73978
3.77946
1
1
1
1
1
1
1
1
1
1
1
1
1
1
1
1
0.999997
0.999993
1.0003
1.01326
1.2283
1.99458
3.19875
3.46939
1
1
1
1
1
1
1
1
1
1
1
1
1
1
1
1
1
0.999999
0.999997
1.00001
1.00685
1.10817
1.76216
2.72807
1
1
1
1
1
1
1
1
1
1
1
1
1
1
1
1
1
1
0.999999
0.999999
1
1.00194
1.06756
1.50912
1
1
1
1
1
1
1
1
1
1
1
1
1
1
1
1
1
1
1
1
1
0.999999
1.00107
1.03215
1
1
1
1
1
1
1
1
1
1
1
1
1
1
1
1
1
1
1
1
1
1
0.999997
1.00009
1
1
1
1
1
1
1
1
1
1
1
1
1
1
1
1
1
1
1
1
1
1
0.999999
0.999996
1
1
1
1
1
1
1
1
1
1
1
1
1
1
1
1
1
1
1
1
1
1
1
0.999991
1
1
1
1
1
1
1
1
1
1
1
1
1
1
1
1
1
1
1
1
1
0.999999
1.00001
0.999993
1
1
1
1
1
1
1
1
1
1
1
1
1
1
1
1
1
1
1
1
1
0.999998
1.00113
1.03035
1
1
1
1
1
1
1
1
1
1
1
1
1
1
1
1
1
1
0.999999
0.999999
0.999999
1.00204
1.06149
1.52155
1
1
1
1
1
1
1
1
1
1
1
1
1
1
1
1
1
0.999999
0.999997
1.00001
1.00667
1.11159
1.70872
2.81192
1
1
1
1
1
1
1
1
1
1
1
1
1
1
1
1
0.999997
0.999993
1.00031
1.01309
1.23444
1.97448
3.1757
3.56142
1
1
1
1
1
1
1
1
1
1
1
1
1
1
0.999999
0.999996
0.999979
1.00094
1.05111
1.39306
2.40451
3.2681
3.75605
3.79872
1
1
1
1
1
1
1
1
1
1
1
1
1
0.999994
0.999994
0.99998
1.00923
1.11667
1.75394
2.80123
3.625
3.77894
3.76391
3.72936
1
1
1
1
1
1
1
1
1
1
1
0.999999
0.999998
0.999965
1.00129
1.03115
1.37439
2.23198
3.32723
3.66191
3.76113
3.76842
3.73784
3.69787
1
1
1
1
1
1
1
1
1
0.999999
0.999987
0.99999
0.999998
1.00941
1.17731
1.7895
2.87143
3.62812
3.92634
3.91353
3.8675
3.80778
3.75747
3.72154
1
1
1
1
1
1
1
1
0.999988
0.999989
0.999902
1.00377
1.07206
1.51467
2.50743
3.54293
3.97907
3.95996
3.9043
3.82951
3.78161
3.74389
3.71369
3.7167
1
1
1
1
0.999999
0.999999
0.999992
0.999996
0.999893
1.00175
1.03709
1.37477
2.18532
3.41267
3.88625
4.04998
4.02444
3.97907
3.83363
3.72862
3.70026
3.69065
3.70273
3.72098
1
0.999999
0.999999
0.999999
0.999986
1.00003
0.999946
1.00178
1.03372
1.3101
2.03089
3.1369
3.93424
4.12171
4.03524
3.93624
3.87675
3.81846
3.74532
3.69104
3.68317
3.69402
3.72092
3.74609
0.999997
0.999967
1.00019
1.00011
1.0037
1.02278
1.10985
1.35912
1.9976
2.98009
3.85117
4.3008
4.36068
4.26117
4.10284
3.87706
3.73784
3.70237
3.68538
3.68887
3.70329
3.73301
3.76161
3.7732
1.00193
1.02151
1.08568
1.21247
1.47968
1.84927
2.37576
2.9801
3.5962
3.82109
4.04742
4.06883
3.9633
3.82764
3.78337
3.74739
3.71591
3.69025
3.68811
3.70484
3.73123
3.75701
3.76499
3.76803
1.29362
1.76122
2.31553
2.99936
3.62749
4.29207
4.85527
5.30466
5.3652
5.15534
4.7181
4.22967
3.80452
3.65481
3.56909
3.58351
3.61449
3.64416
3.68246
3.71363
3.74589
3.7631
3.765
3.76074
2.6553
1.67647
1.09494
0.87091
0.740561
0.640171
0.635434
0.692126
0.779611
0.835422
0.896629
0.991905
1.01792
1.00829
1.00446
1.0217
1.05383
1.07787
1.08112
1.08071
1.07116
1.04406
1.04075
1.09632
1.53701
2.86969
4.66475
6.87584
8.85711
9.28993
8.6385
7.62065
6.91103
6.56649
6.35307
6.12235
5.85244
5.60039
5.38724
5.20145
5.03046
4.85992
4.69184
4.53319
4.383
4.22487
4.03739
3.83467
3.65773
3.52721
3.45433
3.39799
3.33529
3.26524
3.18559
3.09054
2.97266
2.82811
2.67795
2.57325
2.52756
2.49794
2.4638
2.4242
2.38579
2.34524
2.28833
2.20826
2.09981
1.96534
1.93044
1.96192
2.11574
2.5135
3.3027
4.09974
4.81618
5.36643
5.55438
5.44884
5.09755
4.70251
4.60082
4.56713
4.55557
4.54022
4.47593
4.4083
4.2925
4.06786
3.92115
3.87432
3.84063
3.81093
3.78929
3.72445
3.36439
2.77109
2.12527
1.72176
1.52869
1.28993
1.07273
1.0331
0.997513
0.946398
0.922532
0.936632
0.939342
0.930357
0.93505
0.960805
0.995784
1.02277
1.029
1.0334
1.02781
1.02881
1.09294
1.55656
2.57391
3.0526
3.54074
4.28598
5.61069
6.70892
7.49697
7.44475
7.09966
6.73487
6.43706
6.14549
5.8771
5.67652
5.48305
5.27587
5.09387
4.92501
4.76058
4.60273
4.44475
4.27521
4.08255
3.88705
3.73132
3.6126
3.52504
3.45512
3.39046
3.32056
3.23855
3.13417
3.00565
2.86383
2.73323
2.64
2.58265
2.54804
2.51121
2.4667
2.42272
2.37337
2.31666
2.2439
2.14229
2.06914
2.10627
2.3077
2.63457
3.03871
3.32941
3.69739
4.11477
4.53707
4.76944
4.85496
4.82785
4.73985
4.66857
4.6264
4.60552
4.56483
4.50475
4.43167
4.31064
4.11159
3.96112
3.9106
3.87823
3.84953
3.82409
3.75678
3.66141
3.3437
2.8821
2.33804
1.96909
1.7084
1.42651
1.23563
1.13611
1.02379
0.943711
0.94573
0.944531
0.926263
0.92166
0.929832
0.948558
0.971342
0.984462
0.994486
1.01615
1.14676
1.71722
2.64366
3.27791
3.32022
3.30974
3.33209
3.57451
4.56794
6.11186
7.14936
7.24627
6.99926
6.48787
6.11048
5.8603
5.63885
5.39229
5.13528
4.93515
4.79696
4.66163
4.51958
4.36896
4.20713
4.04232
3.89485
3.75848
3.62102
3.48404
3.36579
3.27655
3.20871
3.1405
3.05519
2.9475
2.8427
2.75522
2.65499
2.5456
2.47499
2.4336
2.38829
2.34266
2.30193
2.26055
2.21434
2.18672
2.26172
2.53452
2.92971
3.24023
3.40744
3.39552
3.40431
3.46985
3.67629
3.98768
4.37923
4.64622
4.70774
4.71994
4.71349
4.6366
4.55087
4.48031
4.39815
4.29345
4.15113
3.99294
3.88726
3.83761
3.80562
3.78254
3.72073
3.73533
3.61442
3.34541
2.91663
2.44455
2.16193
1.8869
1.56764
1.41811
1.31148
1.13259
1.0712
1.0587
1.02533
0.966395
0.946006
0.94132
0.931702
0.934553
0.952457
1.12753
1.80463
2.77677
3.29635
3.32517
3.28888
3.1894
3.05057
2.94697
3.04421
3.65181
5.14185
6.43618
6.56808
6.48005
6.21288
5.94743
5.66094
5.36734
5.09925
4.87822
4.73351
4.60823
4.47936
4.35097
4.22378
4.08927
3.94863
3.79477
3.64945
3.5064
3.36971
3.24556
3.14939
3.08131
3.02243
2.95716
2.88551
2.80401
2.6874
2.56266
2.46176
2.39889
2.35472
2.31224
2.2982
2.28225
2.31408
2.49922
2.85404
3.25714
3.51525
3.55784
3.53677
3.45271
3.35256
3.25139
3.25399
3.34478
3.60698
4.06719
4.44354
4.57887
4.62064
4.61799
4.56365
4.46608
4.36593
4.27303
4.17439
4.04278
3.91456
3.83757
3.79074
3.76673
3.711
3.73315
3.7095
3.58333
3.32053
2.91876
2.5377
2.27991
2.00149
1.71454
1.53114
1.3765
1.23574
1.17915
1.1366
1.05862
0.968965
0.948719
0.936307
0.951832
1.16269
1.92861
2.84602
3.30471
3.30918
3.25211
3.12691
3.00084
2.8564
2.7742
2.71609
2.74186
3.05487
4.16204
5.42413
6.19109
6.18903
5.98569
5.63315
5.32156
5.05611
4.85281
4.70587
4.55494
4.39664
4.24303
4.09854
3.96999
3.87779
3.80675
3.70459
3.56408
3.40707
3.26204
3.12758
3.02106
2.94525
2.87547
2.81253
2.76341
2.70972
2.60611
2.48101
2.39851
2.36384
2.34826
2.35083
2.44102
2.74441
3.17321
3.51774
3.66692
3.68115
3.63703
3.55871
3.45579
3.3275
3.20696
3.1572
3.15278
3.19698
3.41451
3.81295
4.21995
4.49973
4.57549
4.51979
4.39394
4.28207
4.20323
4.1427
4.08351
4.00083
3.91451
3.80897
3.71776
3.65315
3.73179
3.73055
3.69807
3.55612
3.29925
2.96876
2.59801
2.32813
2.09961
1.88579
1.65856
1.44516
1.34935
1.31732
1.2653
1.13094
1.04925
1.07703
1.35918
2.18354
3.06716
3.40367
3.37311
3.25808
3.12521
3.00336
2.88374
2.75452
2.6669
2.61091
2.54424
2.47758
2.59466
3.21006
4.46355
5.45934
5.64983
5.57621
5.35522
5.12235
4.88144
4.66812
4.48465
4.33289
4.19948
4.07032
3.94164
3.8172
3.70214
3.60747
3.53376
3.44826
3.30517
3.11702
2.97235
2.90173
2.84973
2.80245
2.74429
2.66314
2.5735
2.48167
2.42671
2.40541
2.45694
2.66928
3.06534
3.52021
3.78223
3.85508
3.83249
3.76858
3.68839
3.58666
3.46054
3.31411
3.19894
3.14245
3.10989
3.11077
3.13167
3.25911
3.53675
3.8968
4.21403
4.27793
4.23364
4.18221
4.14821
4.14222
4.10038
4.04742
3.97825
3.86101
3.73632
3.63965
3.72645
3.73439
3.72706
3.68136
3.53102
3.28845
3.0058
2.6722
2.34918
2.18244
2.01678
1.81997
1.54911
1.42227
1.40062
1.32184
1.33815
1.70297
2.70765
3.51774
3.66563
3.55209
3.35741
3.194
3.07156
2.96454
2.84739
2.72075
2.63409
2.56214
2.47065
2.38557
2.27583
2.27752
2.56664
3.47558
4.56077
5.25268
5.30851
5.21182
4.93068
4.65908
4.4473
4.28721
4.14728
4.00842
3.86876
3.75121
3.65821
3.57596
3.48816
3.38159
3.25313
3.09893
2.96985
2.89359
2.82631
2.75801
2.68669
2.63406
2.58633
2.51911
2.50121
2.59902
2.97101
3.43658
3.84584
3.95293
3.96872
3.93755
3.86407
3.77762
3.68735
3.58014
3.44189
3.30542
3.21938
3.16929
3.12839
3.10051
3.08978
3.0859
3.12613
3.24772
3.46405
3.80308
4.02413
4.07244
4.09037
4.1211
4.11519
4.06797
4.00594
3.92063
3.8044
3.64257
3.69162
3.70122
3.71715
3.71417
3.66023
3.50179
3.26753
3.02311
2.73834
2.398
2.22374
2.11704
1.90105
1.68273
1.56463
1.67829
2.26347
3.40944
4.18903
4.15819
3.93984
3.66871
3.44623
3.27612
3.13072
3.00241
2.86737
2.75272
2.64657
2.54996
2.44793
2.35506
2.24624
2.15461
2.09155
2.18721
2.69827
3.76287
4.72236
4.90869
4.87403
4.67947
4.47353
4.2931
4.11553
3.94659
3.80146
3.69629
3.61128
3.52932
3.44131
3.34339
3.23215
3.0979
2.96488
2.86515
2.78981
2.73083
2.66991
2.63819
2.60196
2.63653
2.84828
3.3253
3.81899
4.06718
4.1663
4.15048
4.07607
3.98234
3.88986
3.79819
3.70252
3.58382
3.43271
3.31155
3.25036
3.20159
3.15492
3.11314
3.0808
3.04563
3.02857
3.0005
3.01451
3.14079
3.45496
3.78433
3.93477
4.04814
4.12181
4.11081
4.06232
3.98208
3.86316
3.65317
3.70251
3.69944
3.7094
3.71772
3.69813
3.62476
3.47626
3.24335
3.02486
2.74128
2.49066
2.26613
2.11256
2.0136
2.2502
3.13293
4.31251
4.80726
4.70042
4.40434
4.09158
3.83486
3.62468
3.44222
3.27046
3.09713
2.91718
2.77605
2.66731
2.57007
2.46803
2.35903
2.24578
2.13924
2.06049
1.98978
2.00077
2.25584
3.04763
3.98918
4.55258
4.57297
4.51353
4.31198
4.09021
3.89425
3.75136
3.64964
3.5662
3.47972
3.38718
3.2918
3.19761
3.093
2.96894
2.85492
2.77577
2.71766
2.68369
2.69518
2.83971
3.22222
3.77638
4.21789
4.24343
4.22746
4.19236
4.12436
4.04862
3.97878
3.90401
3.81205
3.7056
3.57314
3.42508
3.32794
3.27467
3.2312
3.18881
3.14202
3.09348
3.0423
2.9833
2.92439
2.8632
2.85255
2.95243
3.24146
3.6032
3.85199
4.02628
4.07126
4.05211
3.99684
3.89152
3.66329
3.75871
3.75413
3.75979
3.75285
3.73342
3.69121
3.60257
3.45301
3.24529
2.99516
2.76044
2.48337
2.52787
3.02592
4.25864
5.43232
5.58675
5.38364
5.0158
4.6511
4.32453
4.04426
3.80201
3.58845
3.40001
3.22023
3.04159
2.87654
2.72707
2.58493
2.45564
2.33282
2.23805
2.15225
2.07061
1.98457
1.92495
1.86884
1.95233
2.39701
3.2575
3.96474
4.22205
4.20828
4.07351
3.9101
3.76168
3.62181
3.51131
3.42178
3.337
3.25478
3.16918
3.06203
2.93292
2.8169
2.76486
2.74462
2.81536
3.16188
3.72245
4.26402
4.59027
4.58619
4.47025
4.26975
4.14973
4.07863
4.01698
3.96091
3.90061
3.81959
3.71301
3.5776
3.43663
3.34304
3.29311
3.25216
3.20874
3.16073
3.10821
3.04948
2.97585
2.8879
2.81274
2.77827
2.78079
2.85091
3.08315
3.40781
3.70418
3.88554
3.92917
3.90605
3.8447
3.66771
3.59021
3.68749
3.76799
3.7682
3.75814
3.7294
3.66812
3.58323
3.42628
3.23562
3.01881
3.22764
4.27247
5.73128
6.442
6.35758
5.99297
5.59474
5.2385
4.90678
4.58568
4.27317
3.98358
3.7224
3.48728
3.27591
3.10147
2.95895
2.82212
2.67329
2.52723
2.38902
2.26279
2.14134
2.04653
1.97697
1.90002
1.83762
1.77431
1.78232
1.9784
2.582
3.31992
3.86555
3.96174
3.92736
3.78266
3.59187
3.44172
3.35006
3.27855
3.20815
3.12885
3.02727
2.92303
2.81468
2.81035
2.99049
3.50385
4.20401
4.67395
4.74221
4.71393
4.60967
4.44847
4.29466
4.17417
4.08888
4.01081
3.93948
3.87573
3.80485
3.71409
3.59379
3.45936
3.35955
3.30795
3.26747
3.22441
3.17863
3.12854
3.06994
2.98924
2.88566
2.78932
2.74359
2.72891
2.72834
2.7639
2.91083
3.16661
3.47706
3.70734
3.76982
3.76385
3.65489
3.49602
3.8018
3.81008
3.77463
3.73634
3.70957
3.65916
3.63016
3.53282
3.54698
4.20242
5.79925
7.30577
7.68308
7.43369
6.83662
6.27298
5.82708
5.45791
5.1121
4.7767
4.45368
4.15321
3.87975
3.63059
3.4031
3.20005
3.01346
2.84089
2.69479
2.57468
2.46031
2.33688
2.21026
2.09028
1.9899
1.89504
1.81673
1.74426
1.70734
1.67357
1.73787
2.08142
2.76482
3.46221
3.66881
3.64169
3.52686
3.39332
3.29734
3.20527
3.13889
3.07295
3.02371
2.94968
2.99296
3.32113
3.95081
4.56919
4.9764
5.02579
4.95558
4.77434
4.57095
4.41627
4.30107
4.20269
4.11569
4.02289
3.93379
3.85687
3.78644
3.70547
3.60419
3.48989
3.38685
3.31944
3.27347
3.23018
3.18662
3.14023
3.08477
3.00772
2.91109
2.81565
2.74954
2.70547
2.68401
2.68176
2.68722
2.74715
2.9164
3.21049
3.42714
3.58421
3.60798
2.51493
3.47845
3.63179
3.70857
3.75797
3.75394
3.70618
3.70704
3.93835
5.2513
7.56896
8.54574
8.39549
8.05944
7.57169
7.09172
6.59331
6.11686
5.6898
5.30062
4.93583
4.59172
4.27606
3.9909
3.73259
3.49498
3.28022
3.09789
2.93731
2.77991
2.62044
2.47027
2.33348
2.23468
2.15581
2.05781
1.95368
1.84168
1.7401
1.66859
1.6286
1.58557
1.6055
1.7649
2.28283
2.92545
3.33455
3.43223
3.40063
3.28886
3.16169
3.10203
3.07225
3.13935
3.37489
3.86439
4.55118
4.96615
5.04121
5.04317
4.98617
4.91072
4.77988
4.59729
4.43385
4.321
4.24053
4.15362
4.05167
3.94504
3.84777
3.77086
3.705
3.62366
3.51187
3.40851
3.33496
3.28148
3.23141
3.18007
3.12902
3.07652
3.01557
2.93681
2.84623
2.77111
2.71612
2.67959
2.64922
2.63171
2.60559
2.62122
2.7112
2.93644
3.19019
3.43734
1.34834
2.30981
3.16142
3.68136
3.71374
3.72776
3.93111
4.64241
6.43941
8.77267
9.91152
9.74604
8.96784
8.20827
7.69245
7.27241
6.81919
6.31871
5.83505
5.41889
5.05819
4.71659
4.39809
4.10649
3.83586
3.59212
3.36094
3.13296
2.93261
2.78466
2.66548
2.54719
2.4272
2.29382
2.14531
2.01198
1.91115
1.83803
1.75948
1.6815
1.64371
1.60031
1.54462
1.4964
1.54863
1.84427
2.42738
2.97994
3.22694
3.21641
3.15954
3.17195
3.41965
3.96124
4.58012
5.11066
5.49371
5.48289
5.30626
5.05506
4.89544
4.80745
4.71236
4.5901
4.45464
4.34317
4.26261
4.18149
4.08565
3.98021
3.87879
3.78399
3.68855
3.57318
3.48305
3.41243
3.34325
3.28761
3.23683
3.18505
3.13257
3.07636
3.01356
2.94122
2.86415
2.80056
2.74716
2.70155
2.65739
2.61484
2.57022
2.52764
2.50478
2.55747
2.72018
3.11301
1.02054
1.25845
2.02431
3.17883
3.51308
4.07559
5.91418
7.74445
9.52341
10.0846
10.0277
9.79198
9.26272
8.55027
7.93285
7.41174
6.92944
6.43757
5.93716
5.47125
5.09174
4.77652
4.48243
4.2133
3.95992
3.71606
3.46297
3.20829
2.99714
2.81966
2.66497
2.53425
2.41603
2.30103
2.175
2.05292
1.93673
1.84296
1.76901
1.70955
1.64919
1.57608
1.48947
1.43006
1.37237
1.37754
1.53755
2.02436
2.6521
3.04045
3.33336
3.84052
4.68492
5.25194
5.42373
5.57562
5.55288
5.48974
5.33165
5.10514
4.90837
4.75045
4.65509
4.57286
4.47833
4.3777
4.28071
4.18753
4.09038
3.98895
3.90438
3.82416
3.72025
3.58584
3.47121
3.42986
3.38837
3.3376
3.28562
3.23185
3.17112
3.09823
3.02168
2.94771
2.89596
2.85736
2.81119
2.7553
2.69913
2.64228
2.58041
2.50379
2.44442
2.42145
2.44857
2.71628
1.00028
1.01677
1.18661
2.03062
3.79571
5.74599
8.3955
9.9417
11.0068
10.7253
10.1307
9.70114
9.30679
8.77337
8.13219
7.48253
6.91757
6.48354
6.11843
5.6992
5.25178
4.8668
4.51954
4.21834
3.94996
3.681
3.4728
3.32645
3.14948
2.94643
2.75741
2.61038
2.47678
2.33875
2.17824
2.04612
1.9831
1.9233
1.8633
1.78791
1.68798
1.58604
1.49131
1.41865
1.36395
1.31677
1.31986
1.43681
1.86878
2.86364
3.92858
4.90498
5.72287
6.05808
5.99685
5.90852
5.64485
5.37881
5.25406
5.12305
4.96741
4.77982
4.62065
4.52357
4.47861
4.43606
4.36388
4.259
4.14205
4.02746
3.90969
3.79582
3.68425
3.57342
3.49357
3.42587
3.35566
3.29958
3.24708
3.19536
3.14833
3.09439
3.02197
2.95534
2.90578
2.85587
2.79525
2.72737
2.66228
2.59848
2.53219
2.46786
2.40928
2.37856
2.38292
2.49817
1.00062
1.01067
1.16131
1.78158
3.61127
6.32326
8.05414
9.89152
11.0191
10.5059
9.83346
9.60737
9.34934
8.94379
8.32698
7.65876
7.06501
6.55928
6.0662
5.59165
5.13138
4.77518
4.55324
4.32375
4.06043
3.79249
3.52272
3.25677
3.03831
2.85472
2.67809
2.55438
2.49672
2.41205
2.26662
2.09097
1.92807
1.83843
1.78625
1.72754
1.64003
1.56834
1.52481
1.46981
1.39662
1.32956
1.33258
1.42616
1.86449
2.73221
3.95629
5.05699
5.56235
5.98971
6.04357
5.83428
5.50977
5.30742
5.19858
5.10412
4.99197
4.81723
4.64889
4.56341
4.50027
4.41814
4.31231
4.18605
4.06282
3.96421
3.87593
3.77848
3.68528
3.59988
3.5222
3.43758
3.35806
3.2991
3.24697
3.19342
3.14488
3.10647
3.0588
2.99463
2.93226
2.87043
2.80334
2.72884
2.65513
2.5838
2.51933
2.45827
2.413
2.39039
2.39282
2.47416
1.03126
1.25809
1.96391
2.9463
3.44425
4.52117
5.63587
7.82391
9.38744
9.86526
9.84634
9.69796
9.24013
8.60168
8.03532
7.53549
7.05239
6.55202
6.03188
5.54365
5.12848
4.7594
4.4085
4.10831
3.85754
3.63381
3.42383
3.20806
2.99594
2.81853
2.69497
2.58316
2.43965
2.3003
2.19038
2.06938
1.93613
1.8282
1.76015
1.71081
1.64955
1.56614
1.47718
1.42855
1.39287
1.40448
1.58521
2.07034
2.72943
2.94704
3.34015
3.9685
4.43531
5.18041
5.48106
5.5392
5.51674
5.44135
5.30028
5.11783
4.9422
4.80971
4.72876
4.65241
4.5583
4.4396
4.30825
4.17223
4.04061
3.94148
3.87346
3.80959
3.74101
3.66749
3.58065
3.48335
3.39453
3.33244
3.27952
3.22753
3.17415
3.11211
3.04317
2.96974
2.90218
2.86141
2.81844
2.74937
2.65708
2.56945
2.52686
2.48614
2.46022
2.45935
2.49368
2.72972
1.43819
2.28053
3.1584
3.68243
3.67872
3.70017
3.84667
4.63354
6.58933
8.8697
9.84891
9.73011
9.02316
8.25092
7.74662
7.33951
6.88356
6.37122
5.86471
5.4102
5.0111
4.64489
4.3153
4.04032
3.80944
3.60181
3.39396
3.18571
2.98318
2.7995
2.64983
2.52262
2.38381
2.23972
2.15703
2.09613
2.00424
1.88678
1.78314
1.69509
1.62178
1.5506
1.48754
1.45302
1.51052
1.84765
2.46967
3.05614
3.25636
3.2028
3.1307
3.16225
3.31568
3.81493
4.56199
5.16175
5.48693
5.49787
5.34748
5.10357
4.88843
4.77735
4.6915
4.59427
4.48981
4.38307
4.27203
4.16117
4.04791
3.93622
3.83711
3.75313
3.68432
3.61837
3.54508
3.45681
3.35973
3.27741
3.21571
3.16844
3.12621
3.08177
3.03718
2.9866
2.92133
2.84672
2.77714
2.71385
2.64474
2.56864
2.52086
2.50496
2.51511
2.60826
2.79675
3.153
2.71415
3.32354
3.55712
3.72215
3.75601
3.76212
3.75151
3.75981
4.04273
5.43911
7.65906
8.49904
8.39349
8.05323
7.57305
7.07181
6.56899
6.08347
5.64311
5.25282
4.88985
4.5456
4.24212
3.9816
3.74936
3.53813
3.34116
3.1509
2.95873
2.76535
2.58377
2.43189
2.32064
2.23109
2.12611
2.01422
1.93309
1.85941
1.77506
1.68668
1.62269
1.56074
1.56284
1.72956
2.22163
2.9409
3.39433
3.46883
3.42638
3.29653
3.12585
3.05184
3.03398
3.09099
3.38242
3.95934
4.67232
5.12301
5.10696
5.02142
4.93846
4.84359
4.70578
4.55288
4.44003
4.35493
4.26274
4.16134
4.05508
3.94789
3.85099
3.76649
3.69154
3.61982
3.54327
3.45607
3.36097
3.26805
3.1931
3.14606
3.11058
3.07351
3.02872
2.96777
2.89732
2.82332
2.75772
2.70066
2.65216
2.60563
2.5595
2.58753
2.73745
3.01293
3.32593
3.53132
3.56991
3.71089
3.72861
3.73107
3.72534
3.72279
3.70607
3.66682
3.5478
3.56699
4.17545
5.69799
7.26186
7.653
7.39316
6.78889
6.24237
5.79408
5.41054
5.06082
4.73443
4.43459
4.16366
3.91207
3.68034
3.47
3.26948
3.07022
2.87526
2.68994
2.53549
2.41326
2.29753
2.19111
2.08886
1.98907
1.90543
1.85367
1.78966
1.72473
1.67411
1.73428
2.07731
2.76045
3.42158
3.72056
3.71515
3.60943
3.43243
3.26756
3.15321
3.08397
3.02866
3.01067
2.99095
3.08508
3.45053
4.08339
4.64971
4.92787
4.93309
4.85352
4.69217
4.55031
4.45073
4.3748
4.27442
4.15851
4.04574
3.94164
3.84743
3.76144
3.68145
3.60535
3.52664
3.44163
3.35531
3.27234
3.20141
3.14848
3.10489
3.05919
3.00112
2.93177
2.86977
2.8153
2.76432
2.71854
2.676
2.6468
2.68932
2.8837
3.18459
3.49727
3.69643
3.6961
3.61712
3.65843
3.69417
3.73618
3.7462
3.72203
3.66868
3.58533
3.41815
3.23297
3.00584
3.17863
4.2059
5.72829
6.42816
6.33739
5.9866
5.59832
5.23108
4.88694
4.57143
4.27814
4.00934
3.76406
3.54096
3.3414
3.1581
2.97771
2.80521
2.63592
2.48363
2.35207
2.23517
2.13393
2.06443
2.00966
1.93417
1.86343
1.78932
1.79663
1.98742
2.5741
3.34188
3.83368
3.96014
3.92317
3.79256
3.62698
3.44164
3.28428
3.21446
3.16
3.09708
3.01857
2.95922
2.89143
2.89985
3.04988
3.52768
4.10908
4.49255
4.61334
4.62889
4.59516
4.50092
4.39276
4.25974
4.13153
4.02504
3.93337
3.83521
3.73752
3.65383
3.58199
3.51219
3.43702
3.35799
3.28601
3.22884
3.16693
3.08833
3.01578
2.94819
2.89095
2.84465
2.80734
2.7849
2.76033
2.76882
2.84183
3.07382
3.34339
3.58534
3.76745
3.83376
3.78762
3.77217
3.7379
3.73767
3.74477
3.73614
3.69991
3.61059
3.45121
3.23847
2.99284
2.75721
2.48312
2.52493
3.03779
4.27009
5.41661
5.61365
5.41423
5.04588
4.67523
4.34651
4.06498
3.82646
3.61531
3.41585
3.22702
3.04326
2.85569
2.68512
2.53024
2.4079
2.31159
2.23171
2.15115
2.08026
1.99445
1.95473
1.89861
1.95944
2.4016
3.20813
3.92352
4.14326
4.16991
4.07743
3.94999
3.8213
3.67298
3.50595
3.36603
3.27528
3.19141
3.11169
3.02732
2.95328
2.86977
2.8296
2.78337
2.83155
3.08616
3.59639
4.11091
4.48887
4.56284
4.52204
4.39868
4.25616
4.13036
4.01536
3.91381
3.80196
3.69259
3.61743
3.55973
3.50312
3.44286
3.38281
3.32487
3.25293
3.14382
3.02772
2.95323
2.8993
2.86104
2.83354
2.83068
2.8445
2.92564
3.07298
3.34032
3.57745
3.69263
3.76777
3.83424
3.82477
3.74926
3.70593
3.70531
3.70964
3.71169
3.69885
3.6285
3.47387
3.23684
3.01813
2.73813
2.49081
2.27156
2.11702
2.02131
2.26415
3.14683
4.35845
4.82375
4.71357
4.42021
4.10665
3.8546
3.64686
3.45481
3.26441
3.08138
2.9066
2.74728
2.6177
2.51235
2.41767
2.33708
2.25641
2.15999
2.08745
2.01767
2.0359
2.262
2.98201
3.95196
4.36715
4.49694
4.44854
4.28253
4.12663
3.98838
3.85832
3.71572
3.56062
3.42749
3.32547
3.23243
3.1452
3.05768
2.97244
2.88756
2.81089
2.74715
2.6952
2.66455
2.76757
3.14028
3.73383
4.19478
4.33941
4.34718
4.30106
4.19439
4.03894
3.88254
3.75414
3.64902
3.58703
3.5442
3.49931
3.4502
3.40529
3.35318
3.25433
3.09998
2.97151
2.91147
2.87896
2.86717
2.87117
2.92022
3.10667
3.4019
3.6987
3.89959
3.9152
3.86408
3.81065
3.79252
3.77177
3.70052
3.69616
3.7014
3.71356
3.71083
3.66097
3.50346
3.26903
3.02208
2.73524
2.39761
2.23032
2.1215
1.90197
1.6825
1.56731
1.68464
2.29314
3.43856
4.18584
4.15424
3.94506
3.67656
3.44735
3.26902
3.11459
2.98137
2.84965
2.72564
2.60204
2.50101
2.40241
2.34816
2.27504
2.20391
2.14762
2.24407
2.79776
3.76285
4.63577
4.80192
4.72125
4.58942
4.43848
4.30854
4.18161
4.04516
3.89729
3.74328
3.60269
3.48338
3.38173
3.28294
3.1835
3.0866
3.00206
2.93105
2.85484
2.77075
2.67318
2.59725
2.51951
2.55992
2.81907
3.35251
3.85518
4.21973
4.27836
4.23589
4.0571
3.84522
3.71413
3.62663
3.5712
3.53405
3.49541
3.45409
3.41289
3.34774
3.22463
3.06321
2.95131
2.90412
2.89913
2.91029
3.00561
3.29844
3.69821
4.03893
4.16041
4.14075
4.023
3.89587
3.81971
3.76971
3.73944
3.6729
3.72779
3.7345
3.72631
3.68434
3.53376
3.29008
3.00719
2.67045
2.35138
2.1863
2.01937
1.82053
1.54764
1.42421
1.40281
1.32231
1.34045
1.71402
2.68797
3.51002
3.66692
3.54469
3.34639
3.18404
3.05603
2.94859
2.83798
2.73288
2.62625
2.52361
2.43864
2.39801
2.32858
2.34582
2.63278
3.57807
4.65688
5.22211
5.21727
5.07517
4.83551
4.61693
4.45523
4.34051
4.23467
4.11006
3.94283
3.75742
3.61483
3.5141
3.42611
3.33165
3.22973
3.13029
3.03931
2.96709
2.892
2.80239
2.68936
2.57305
2.48663
2.4443
2.45555
2.60102
2.97546
3.52751
3.9882
4.04364
3.96451
3.84486
3.7398
3.65383
3.58763
3.54327
3.49211
3.43731
3.37864
3.29675
3.18598
3.05444
2.95601
2.94406
2.97169
3.12299
3.48126
3.91212
4.22906
4.33866
4.33588
4.26279
4.10007
3.93186
3.82675
3.75585
3.72224
3.66226
3.73172
3.73079
3.69863
3.55645
3.29939
2.96803
2.59867
2.33006
2.10041
1.88493
1.65795
1.44683
1.35086
1.31781
1.26446
1.12891
1.04861
1.07729
1.34819
2.16025
3.06604
3.38725
3.34677
3.21813
3.08642
2.98053
2.88153
2.78355
2.69855
2.59778
2.53475
2.49368
2.61102
3.27574
4.46625
5.55969
5.62315
5.50355
5.2797
5.05505
4.87576
4.70265
4.55075
4.42287
4.29392
4.14074
3.94433
3.76233
3.6375
3.54222
3.45763
3.36785
3.27444
3.19728
3.12012
3.03936
2.95334
2.85919
2.74164
2.59511
2.47749
2.41686
2.39109
2.39158
2.45446
2.70058
3.18953
3.60027
3.76476
3.80663
3.7878
3.72507
3.63777
3.56074
3.49036
3.42117
3.34525
3.24356
3.16077
3.05719
3.0398
3.10629
3.32242
3.71408
4.09077
4.30813
4.3706
4.36739
4.32928
4.23895
4.10285
3.96327
3.859
3.7744
3.72341
3.65645
3.73309
3.70968
3.58367
3.32013
2.91748
2.54015
2.28066
1.99877
1.71299
1.53139
1.37728
1.2368
1.18032
1.1366
1.05667
0.968348
0.948666
0.936173
0.949901
1.16157
1.89279
2.93208
3.28524
3.25956
3.20079
3.11543
3.01161
2.90987
2.83671
2.74363
2.76111
3.07827
4.14271
5.41231
6.11102
6.11658
5.9115
5.56768
5.26169
5.05771
4.89782
4.78407
4.6829
4.5331
4.33396
4.12811
3.9413
3.80389
3.69396
3.58718
3.48141
3.38372
3.29718
3.20042
3.0915
2.98704
2.89139
2.80439
2.73254
2.64684
2.54145
2.43999
2.37931
2.34745
2.34433
2.3811
2.50369
2.80109
3.18382
3.51525
3.65611
3.64006
3.58168
3.52045
3.44506
3.35601
3.27915
3.22129
3.17793
3.21562
3.37882
3.67971
4.08858
4.37412
4.45556
4.46691
4.41351
4.32171
4.23491
4.14986
4.06414
3.98258
3.90759
3.8239
3.75224
3.66581
3.73533
3.61468
3.34593
2.91488
2.4462
2.16485
1.88427
1.56664
1.4199
1.31066
1.13109
1.07253
1.05916
1.02447
0.9649
0.946391
0.941465
0.931498
0.934315
0.953276
1.12574
1.81743
2.86901
3.22832
3.27768
3.26429
3.18415
3.08088
3.00872
3.11412
3.76755
5.19227
6.40758
6.46143
6.38103
6.1213
5.86392
5.62606
5.41868
5.23752
5.04463
4.85326
4.65546
4.4666
4.28042
4.10624
3.9495
3.82423
3.72973
3.64297
3.55774
3.47026
3.37221
3.25193
3.10557
2.97518
2.87627
2.79599
2.72315
2.65569
2.58443
2.50015
2.43458
2.38679
2.33723
2.29519
2.24781
2.28195
2.47412
2.86087
3.27396
3.50772
3.53687
3.50591
3.42621
3.30697
3.24561
3.26162
3.40733
3.73219
4.11655
4.47241
4.65297
4.64083
4.54609
4.44234
4.34089
4.2629
4.19523
4.14054
4.08275
4.018
3.9555
3.87976
3.81178
3.70949
3.66148
3.34429
2.88122
2.33682
1.97175
1.70844
1.42472
1.23693
1.13637
1.0219
0.943839
0.946323
0.943646
0.925305
0.921411
0.930334
0.949402
0.971866
0.983927
0.99387
1.01758
1.14322
1.76434
2.71643
3.24621
3.29018
3.29151
3.32536
3.59027
4.63442
6.24235
7.10519
7.16612
6.87333
6.38283
6.04237
5.8437
5.66421
5.46738
5.24813
5.03038
4.82871
4.64246
4.46351
4.28828
4.12563
3.98414
3.87758
3.78379
3.67875
3.56064
3.4342
3.31109
3.19634
3.07805
2.96551
2.87919
2.80989
2.74989
2.69113
2.62896
2.56232
2.48298
2.38829
2.31078
2.25034
2.19142
2.17106
2.18342
2.29998
2.62313
3.00322
3.34955
3.4138
3.36173
3.3158
3.35872
3.56433
3.99428
4.51052
4.77279
4.8934
4.88734
4.79993
4.61305
4.43638
4.28485
4.20521
4.15469
4.10543
4.05583
4.01254
3.96948
3.9106
3.82114
3.67507
3.36492
2.77026
2.12292
1.72557
1.53025
1.2859
1.07242
1.03477
0.997981
0.945889
0.923194
0.936746
0.938195
0.929323
0.934825
0.961697
0.997042
1.0231
1.02836
1.03299
1.02744
1.02908
1.10205
1.59712
2.54792
3.05563
3.58198
4.29083
5.59773
6.80902
7.54359
7.4148
7.03492
6.66127
6.40361
6.17674
5.96902
5.76763
5.55857
5.32888
5.07396
4.83655
4.64633
4.49883
4.36238
4.23353
4.1207
4.01463
3.89707
3.76453
3.62502
3.47951
3.32294
3.18117
3.0816
3.00626
2.94555
2.89524
2.84716
2.79306
2.73169
2.65618
2.55632
2.42934
2.30461
2.23192
2.18388
2.14918
2.12292
2.13346
2.22292
2.44224
2.79487
3.12859
3.31157
3.57728
3.94439
4.23641
4.63032
4.91043
5.01792
4.9953
4.89822
4.74991
4.59121
4.43181
4.2756
4.19618
4.15242
4.11585
4.09746
4.07176
4.03186
3.97374
3.87567
3.66663
2.65531
1.67551
1.09671
0.872744
0.738384
0.637812
0.635415
0.693701
0.780975
0.835731
0.897465
0.992232
1.0162
1.00682
1.0045
1.02264