/*--------------------------------*- C++ -*----------------------------------*\
  =========                 |
  \\      /  F ield         | OpenFOAM: The Open Source CFD Toolbox
   \\    /   O peration     | Website:  https://openfoam.org
    \\  /    A nd           | Version:  7
     \\/     M anipulation  |
\*---------------------------------------------------------------------------*/
FoamFile
{
    version     2.0;
    format      ascii;
    class       volScalarField;
    location    "3.9";
    object      rho;
}
// * * * * * * * * * * * * * * * * * * * * * * * * * * * * * * * * * * * * * //

dimensions      [1 -3 0 0 0 0 0];

internalField   nonuniform List<scalar> 
4608
(
1.40001
1.40001
1.40001
1.40001
1.40001
1.40001
1.40001
1.40001
1.40001
1.40001
1.40001
1.40001
1.40001
1.40001
1.40001
1.40001
1.40001
1.40001
1.40001
1.40001
1.40001
1.40001
1.40001
1.40001
1.40001
1.40001
1.40001
1.40001
1.40001
1.40001
1.40001
1.40001
1.40001
1.40001
1.40001
1.40001
1.40001
1.40001
1.40001
1.40001
1.40001
1.40001
1.40001
1.40001
1.40001
1.40001
1.40001
1.40001
1.40001
1.40001
1.40001
1.40001
1.40001
1.40001
1.40001
1.40001
1.40001
1.40001
1.40001
1.40001
1.40001
1.40001
1.40001
1.40001
1.40001
1.40001
1.40001
1.40001
1.40001
1.40001
1.40001
1.40001
1.40001
1.40001
1.40001
1.40001
1.40001
1.40001
1.40001
1.40001
1.40001
1.40001
1.40001
1.40001
1.40001
1.40001
1.40001
1.40001
1.40001
1.40001
1.40001
1.40001
1.40001
1.40001
1.40001
1.40001
1.40001
1.40001
1.40001
1.40001
1.40001
1.40001
1.40001
1.40001
1.40001
1.40001
1.40001
1.40001
1.40001
1.40001
1.40001
1.40001
1.40001
1.40001
1.40001
1.40001
1.40001
1.40001
1.40001
1.40001
1.40001
1.40001
1.40001
1.40001
1.40001
1.40001
1.40001
1.40001
1.40001
1.40001
1.40001
1.40001
1.40001
1.40001
1.40001
1.40001
1.40001
1.40001
1.40001
1.40001
1.40001
1.40001
1.40001
1.40001
1.40001
1.40001
1.40001
1.40001
1.40001
1.40001
1.40001
1.40001
1.40001
1.40001
1.40001
1.40001
1.40001
1.40001
1.40001
1.40001
1.40001
1.40001
1.40001
1.40001
1.40001
1.40001
1.40001
1.40001
1.40001
1.40001
1.40001
1.40001
1.40001
1.40001
1.40001
1.40001
1.40001
1.40001
1.40001
1.40001
1.40001
1.40001
1.40001
1.40001
1.40001
1.40001
1.40001
1.40001
1.40001
1.40001
1.40001
1.40001
1.40001
1.40001
1.40001
1.40001
1.40001
1.40001
1.40001
1.40001
1.40001
1.40001
1.40001
1.40001
1.40001
1.40001
1.40001
1.40001
1.40001
1.40001
1.40001
1.40001
1.40001
1.40001
1.40001
1.40001
1.40001
1.40001
1.40001
1.40001
1.40001
1.40001
1.40001
1.40001
1.40001
1.40001
1.40001
1.40001
1.40001
1.40001
1.40001
1.40001
1.40001
1.40001
1.40001
1.40001
1.40001
1.40001
1.40001
1.40001
1.40001
1.40001
1.40001
1.40001
1.40001
1.40001
1.40001
1.40001
1.40001
1.40001
1.40001
1.40001
1.40001
1.40001
1.40001
1.40001
1.40001
1.40001
1.40001
1.40001
1.40001
1.40001
1.40001
1.40001
1.40001
1.40001
1.40001
1.40001
1.40001
1.40001
1.40001
1.40001
1.40001
1.40001
1.40001
1.40001
1.40001
1.40001
1.40001
1.40001
1.40001
1.40001
1.40001
1.40001
1.40001
1.40001
1.40001
1.40001
1.40001
1.40001
1.40001
1.40001
1.40001
1.40001
1.40001
1.40001
1.40001
1.40001
1.40001
1.40001
1.40001
1.40001
1.40001
1.40001
1.40001
1.40001
1.40001
1.40001
1.40001
1.40001
1.40001
1.40001
1.40001
1.40001
1.40001
1.40001
1.40001
1.40001
1.40001
1.40001
1.40001
1.40001
1.40001
1.40001
1.40001
1.40001
1.40001
1.40001
1.40001
1.40001
1.40001
1.40001
1.40001
1.40001
1.40001
1.40001
1.40001
1.40001
1.40001
1.40001
1.40001
1.40001
1.40001
1.40001
1.40001
1.40001
1.40001
1.40001
1.40001
1.40001
1.40001
1.40001
1.40001
1.40001
1.40001
1.40001
1.40001
1.40001
1.40001
1.40001
1.40001
1.40001
1.40001
1.40001
1.40001
1.40001
1.40001
1.40001
1.40001
1.40001
1.40001
1.40001
1.40001
1.40001
1.40001
1.40001
1.40001
1.40001
1.40001
1.40001
1.40001
1.40001
1.40001
1.40001
1.40001
1.40001
1.40001
1.40001
1.40001
1.40001
1.40001
1.40001
1.40001
1.40001
1.40001
1.40001
1.40001
1.40001
1.40001
1.40001
1.40001
1.40001
1.40001
1.40001
1.40001
1.40001
1.40001
1.40001
1.40001
1.40001
1.40001
1.40001
1.40001
1.40001
1.40001
1.40001
1.40001
1.40001
1.40001
1.40001
1.40001
1.40001
1.40001
1.40001
1.40001
1.40001
1.40001
1.40001
1.40001
1.40001
1.40001
1.40001
1.40001
1.40001
1.40001
1.40001
1.40001
1.40001
1.40001
1.40001
1.40001
1.40001
1.40001
1.40001
1.40001
1.40001
1.40001
1.40001
1.40001
1.40001
1.40001
1.40001
1.40001
1.40001
1.40001
1.40001
1.40001
1.40001
1.40001
1.40001
1.40001
1.40001
1.40001
1.40001
1.40001
1.40001
1.40001
1.40001
1.40001
1.40001
1.40001
1.40001
1.40001
1.40001
1.40001
1.40001
1.40001
1.40001
1.40001
1.40001
1.40001
1.40001
1.40001
1.40001
1.40001
1.40001
1.40001
1.40001
1.40001
1.40001
1.40001
1.40001
1.40001
1.40001
1.40001
1.40001
1.40001
1.40001
1.40001
1.40001
1.40001
1.40001
1.40001
1.40001
1.40001
1.40001
1.40001
1.40001
1.40001
1.40001
1.40001
1.40001
1.40001
1.40001
1.40001
1.40001
1.40001
1.40001
1.40001
1.40001
1.40001
1.40001
1.40001
1.40001
1.40001
1.40001
1.40001
1.40001
1.40001
1.40001
1.40001
1.40001
1.40001
1.40001
1.40001
1.40001
1.40001
1.40001
1.40001
1.40001
1.40001
1.40001
1.40001
1.40001
1.40001
1.40001
1.40001
1.40001
1.40001
1.40001
1.40001
1.40001
1.40001
1.40001
1.40001
1.40001
1.40001
1.40001
1.40001
1.40001
1.40001
1.40001
1.40001
1.40001
1.40001
1.40001
1.40001
1.40001
1.40001
1.40001
1.40001
1.40001
1.40001
1.40001
1.40001
1.40001
1.40001
1.40001
1.40001
1.40001
1.40001
1.40001
1.40001
1.40001
1.40001
1.40001
1.40001
1.40001
1.40001
1.40001
1.40001
1.40001
1.40001
1.40001
1.40001
1.40001
1.40001
1.40001
1.40001
1.40001
1.40001
1.40001
1.40001
1.40001
1.40001
1.40001
1.40001
1.40001
1.40001
1.40001
1.40001
1.40001
1.40001
1.40001
1.40001
1.40001
1.40001
1.40001
1.40001
1.40001
1.40001
1.40001
1.40001
1.40001
1.40001
1.40001
1.40001
1.40001
1.40001
1.40001
1.40001
1.40001
1.40001
1.40001
1.40001
1.40001
1.40001
1.40001
1.40001
1.40001
1.40001
1.40001
1.40001
1.40001
1.40001
1.40001
1.40001
1.40001
1.40001
1.40001
1.40001
1.40001
1.40001
1.40001
1.40001
1.40001
1.40001
1.40001
1.40001
1.40001
1.40001
1.40001
1.40001
1.40001
1.40001
1.40001
1.40001
1.40001
1.40001
1.40001
1.40001
1.40001
1.40001
1.40001
1.40001
1.40001
1.40001
1.40001
1.40001
1.40001
1.40001
1.40001
1.40001
1.40001
1.40001
1.40001
1.40001
1.40001
1.40001
1.40001
1.40001
1.40001
1.40001
1.40001
1.40001
1.40001
1.40001
1.40001
1.40001
1.40001
1.40001
1.40001
1.40001
1.40001
1.40001
1.40001
1.40001
1.40001
1.40001
1.40001
1.40001
1.40001
1.40001
1.40001
1.40001
1.40001
1.40001
1.40001
1.40001
1.40001
1.40001
1.40001
1.40001
1.40001
1.40001
1.40001
1.40001
1.40001
1.40001
1.40001
1.40001
1.40001
1.40001
1.40001
1.40001
1.40001
1.40001
1.40001
1.40001
1.40001
1.40001
1.40001
1.40001
1.40001
1.40001
1.40001
1.40001
1.40001
1.40001
1.40001
1.40001
1.40001
1.40001
1.40001
1.40001
1.40001
1.40001
1.40001
1.40001
1.40001
1.40001
1.40001
1.40001
1.40001
1.40001
1.40001
1.40001
1.40001
1.67868
2.0865
2.52369
3.01203
3.41812
3.82348
4.14213
4.4144
4.42431
4.29373
4.03299
3.73017
3.45602
3.35759
3.30181
3.31147
3.33209
3.35046
3.37387
3.39305
3.41336
3.42436
3.42574
3.42285
1.40184
1.41988
1.47662
1.58537
1.80499
2.10428
2.51334
2.96723
3.39046
3.52868
3.65352
3.63342
3.55524
3.45999
3.43126
3.40958
3.3904
3.37181
3.36934
3.37953
3.39686
3.41419
3.42079
3.42169
1.4
1.39997
1.40019
1.4001
1.40338
1.42071
1.49752
1.70593
2.19959
2.88007
3.43609
3.71015
3.76382
3.70746
3.61198
3.47085
3.38049
3.35539
3.34508
3.348
3.35921
3.38086
3.40306
3.40988
1.4
1.4
1.4
1.4
1.39999
1.40004
1.39996
1.40161
1.42933
1.64754
2.17525
2.93417
3.42492
3.58377
3.53764
3.47345
3.43158
3.39237
3.34672
3.31627
3.3181
3.32832
3.35068
3.36875
1.40001
1.40001
1.40001
1.4
1.4
1.4
1.4
1.4
1.39991
1.40159
1.43157
1.69919
2.27867
3.08477
3.3964
3.50236
3.48743
3.46074
3.37149
3.30948
3.29855
3.30092
3.31133
3.323
1.40001
1.40001
1.40001
1.40001
1.40001
1.4
1.4
1.4
1.39999
1.39999
1.39992
1.40344
1.46161
1.80296
2.50142
3.16783
3.44524
3.43705
3.40505
3.35834
3.33161
3.31432
3.29696
3.29731
1.40001
1.40001
1.40001
1.40001
1.40001
1.40001
1.40001
1.40001
1.4
1.4
1.39999
1.39999
1.40002
1.40848
1.54743
2.01442
2.75348
3.23616
3.41678
3.40783
3.38023
3.34446
3.31209
3.28928
1.40001
1.40001
1.40001
1.40001
1.40001
1.40001
1.40001
1.40001
1.40001
1.40001
1.4
1.4
1.4
1.39997
1.40123
1.42794
1.70407
2.34029
3.05916
3.26267
3.31867
3.32457
3.30437
3.27431
1.40001
1.40001
1.40001
1.40001
1.40001
1.40001
1.40001
1.40001
1.40001
1.40001
1.40001
1.40001
1.4
1.4
1.4
1.39999
1.40851
1.50189
2.00049
2.72253
3.24786
3.34501
3.33072
3.30319
1.40001
1.40001
1.40001
1.40001
1.40001
1.40001
1.40001
1.40001
1.40001
1.40001
1.40001
1.40001
1.40001
1.4
1.4
1.4
1.39999
1.40092
1.44621
1.7277
2.45806
3.05864
3.33435
3.34814
1.40001
1.40001
1.40001
1.40001
1.40001
1.40001
1.40001
1.40001
1.40001
1.40001
1.40001
1.40001
1.40001
1.40001
1.40001
1.4
1.4
1.4
1.4003
1.41236
1.59681
2.18396
3.01023
3.17538
1.40001
1.40001
1.40001
1.40001
1.40001
1.40001
1.40001
1.40001
1.40001
1.40001
1.40001
1.40001
1.40001
1.40001
1.40001
1.40001
1.4
1.4
1.4
1.40002
1.40654
1.49651
2.0177
2.70854
1.40001
1.40001
1.40001
1.40001
1.40001
1.40001
1.40001
1.40001
1.40001
1.40001
1.40001
1.40001
1.40001
1.40001
1.40001
1.40001
1.40001
1.4
1.4
1.4
1.40001
1.40188
1.46161
1.82776
1.40001
1.40001
1.40001
1.40001
1.40001
1.40001
1.40001
1.40001
1.40001
1.40001
1.40001
1.40001
1.40001
1.40001
1.40001
1.40001
1.40001
1.40001
1.40001
1.4
1.4
1.4
1.40106
1.43013
1.40001
1.40001
1.40001
1.40001
1.40001
1.40001
1.40001
1.40001
1.40001
1.40001
1.40001
1.40001
1.40001
1.40001
1.40001
1.40001
1.40001
1.40001
1.40001
1.40001
1.4
1.4
1.4
1.4001
1.40001
1.40001
1.40001
1.40001
1.40001
1.40001
1.40001
1.40001
1.40001
1.40001
1.40001
1.40001
1.40001
1.40001
1.40001
1.40001
1.40001
1.40001
1.40001
1.40001
1.40001
1.4
1.4
1.4
1.40001
1.40001
1.40001
1.40001
1.40001
1.40001
1.40001
1.40001
1.40001
1.40001
1.40001
1.40001
1.40001
1.40001
1.40001
1.40001
1.40001
1.40001
1.40001
1.40001
1.40001
1.4
1.4
1.4
1.40001
1.40001
1.40001
1.40001
1.40001
1.40001
1.40001
1.40001
1.40001
1.40001
1.40001
1.40001
1.40001
1.40001
1.40001
1.40001
1.40001
1.40001
1.40001
1.40001
1.4
1.4
1.40002
1.40001
1.40001
1.40001
1.40001
1.40001
1.40001
1.40001
1.40001
1.40001
1.40001
1.40001
1.40001
1.40001
1.40001
1.40001
1.40001
1.40001
1.40001
1.40001
1.40001
1.4
1.4
1.4
1.40112
1.42814
1.40001
1.40001
1.40001
1.40001
1.40001
1.40001
1.40001
1.40001
1.40001
1.40001
1.40001
1.40001
1.40001
1.40001
1.40001
1.40001
1.40001
1.4
1.4
1.4
1.40001
1.40198
1.45632
1.83549
1.40001
1.40001
1.40001
1.40001
1.40001
1.40001
1.40001
1.40001
1.40001
1.40001
1.40001
1.40001
1.40001
1.40001
1.40001
1.40001
1.4
1.4
1.4
1.40002
1.40635
1.49989
1.97611
2.75774
1.40001
1.40001
1.40001
1.40001
1.40001
1.40001
1.40001
1.40001
1.40001
1.40001
1.40001
1.40001
1.40001
1.40001
1.40001
1.4
1.4
1.4
1.40032
1.41218
1.60231
2.17053
2.99182
3.22892
1.40001
1.40001
1.40001
1.40001
1.40001
1.40001
1.40001
1.40001
1.40001
1.40001
1.40001
1.40001
1.40001
1.4
1.4
1.4
1.39999
1.40091
1.44633
1.72796
2.47019
3.03663
3.34601
3.35773
1.40001
1.40001
1.40001
1.40001
1.40001
1.40001
1.40001
1.40001
1.40001
1.40001
1.40001
1.40001
1.4
1.4
1.4
1.39999
1.40856
1.50189
1.99794
2.72785
3.25029
3.33961
3.32755
3.30373
1.40001
1.40001
1.40001
1.40001
1.40001
1.40001
1.40001
1.40001
1.40001
1.40001
1.4
1.4
1.4
1.39997
1.40123
1.42787
1.70465
2.33851
3.05965
3.26602
3.31854
3.32145
3.30206
3.27613
1.40001
1.40001
1.40001
1.40001
1.40001
1.40001
1.40001
1.40001
1.4
1.4
1.39999
1.39999
1.40002
1.40848
1.54747
2.01435
2.75402
3.2345
3.41728
3.40886
3.3799
3.34297
3.31236
3.29033
1.40001
1.40001
1.40001
1.40001
1.40001
1.4
1.4
1.4
1.39999
1.39999
1.39992
1.40344
1.46161
1.80301
2.5013
3.16802
3.44523
3.43693
3.405
3.35896
3.33165
3.31351
3.2972
3.29758
1.40001
1.40001
1.40001
1.4
1.4
1.4
1.4
1.4
1.39991
1.40159
1.43157
1.69916
2.27869
3.08478
3.39635
3.50255
3.4875
3.46064
3.37152
3.31005
3.29835
3.30056
3.31139
3.32304
1.4
1.4
1.4
1.4
1.39999
1.40004
1.39996
1.40161
1.42933
1.64755
2.17524
2.93414
3.42502
3.58376
3.53763
3.4735
3.43157
3.39219
3.34677
3.31645
3.318
3.32804
3.35062
3.36871
1.4
1.39997
1.40019
1.4001
1.40338
1.42071
1.49752
1.70594
2.19955
2.8801
3.43604
3.71016
3.76387
3.70747
3.61193
3.4708
3.38045
3.35534
3.34509
3.34796
3.35909
3.3807
3.40308
3.40993
1.40183
1.41988
1.47664
1.58535
1.80499
2.10431
2.51334
2.96721
3.39048
3.52871
3.65347
3.63338
3.55536
3.45993
3.43115
3.4096
3.39047
3.37186
3.36933
3.37951
3.39681
3.41416
3.42084
3.42175
1.67868
2.08652
2.52365
3.01204
3.41822
3.82336
4.14209
4.41446
4.42435
4.29376
4.03298
3.73015
3.45597
3.35753
3.30183
3.3115
3.33217
3.35054
3.37395
3.39306
3.41332
3.42438
3.4258
3.42291
2.66236
1.90976
1.40637
1.18095
1.02543
0.914684
0.912771
0.968016
1.0522
1.10905
1.16958
1.26181
1.29003
1.28162
1.27855
1.29535
1.3275
1.35114
1.35412
1.35365
1.34489
1.32306
1.32092
1.36852
1.70903
2.6151
3.68625
4.85432
5.81454
5.96555
5.66053
5.17678
4.83073
4.65778
4.54934
4.43113
4.29093
4.15775
4.0436
3.94289
3.84939
3.75519
3.66116
3.57181
3.48725
3.39792
3.29043
3.17145
3.06507
2.98531
2.94018
2.90526
2.86673
2.82402
2.77543
2.71672
2.64257
2.54983
2.45157
2.38212
2.3514
2.3313
2.30813
2.28133
2.25549
2.22831
2.19003
2.13548
2.06044
1.96493
1.93911
1.96097
2.06677
2.33257
2.82836
3.29946
3.70061
4.00121
4.09689
4.03991
3.85061
3.63206
3.57627
3.55811
3.55205
3.54387
3.50799
3.47004
3.40491
3.27637
3.19049
3.16232
3.14231
3.12483
3.11239
3.07496
3.15196
2.74095
2.27113
1.95704
1.7876
1.58182
1.39638
1.3492
1.30745
1.25063
1.22413
1.23756
1.23976
1.22924
1.23335
1.25797
1.29179
1.31712
1.32183
1.32474
1.31953
1.3198
1.37385
1.73419
2.42941
2.74262
3.04438
3.48017
4.2136
4.77851
5.14444
5.11118
4.93037
4.74261
4.59074
4.44099
4.30154
4.19616
4.09405
3.9826
3.8834
3.79052
3.69869
3.60966
3.52055
3.42485
3.31497
3.20112
3.10807
3.03582
2.98218
2.93951
2.90004
2.85747
2.80744
2.74303
2.66245
2.57217
2.48731
2.42562
2.38737
2.36421
2.33944
2.30947
2.28002
2.24702
2.20892
2.15968
2.08991
2.03789
2.06299
2.19842
2.41278
2.66825
2.8458
3.06418
3.30477
3.54426
3.67604
3.72261
3.70529
3.65359
3.61234
3.58894
3.57773
3.55551
3.52234
3.48171
3.41374
3.30002
3.2121
3.18191
3.163
3.14634
3.13173
3.09294
3.34168
3.13466
2.82015
2.42885
2.1461
1.94234
1.71186
1.54142
1.44842
1.34211
1.26622
1.26775
1.26652
1.24725
1.2413
1.24864
1.26675
1.28824
1.29982
1.30839
1.32729
1.43831
1.87676
2.50997
2.89794
2.92658
2.92092
2.93415
3.0766
3.6318
4.43944
4.95186
4.98887
4.8667
4.60944
4.41665
4.2883
4.17265
4.04187
3.90266
3.79269
3.71622
3.6405
3.5604
3.475
3.38276
3.28801
3.20254
3.12252
3.0401
2.95673
2.8841
2.82926
2.78755
2.74533
2.69215
2.62418
2.55734
2.50095
2.43533
2.36264
2.3152
2.28722
2.25629
2.22533
2.19794
2.17016
2.13953
2.11943
2.169
2.34682
2.59758
2.78948
2.89018
2.88222
2.88684
2.92481
3.04616
3.22749
3.45057
3.59797
3.62922
3.63517
3.63222
3.59104
3.54431
3.50577
3.45979
3.39982
3.31825
3.22738
3.16608
3.13666
3.11812
3.10533
3.07023
3.36581
3.29445
3.12304
2.83499
2.49973
2.29224
2.08306
1.82437
1.69941
1.60944
1.4519
1.3948
1.38257
1.35066
1.29275
1.271
1.26645
1.25695
1.25946
1.27564
1.42712
1.94769
2.60206
2.92178
2.93162
2.90759
2.84219
2.75165
2.68342
2.74184
3.09568
3.91421
4.55894
4.63819
4.59457
4.46004
4.32516
4.17711
4.01982
3.87409
3.75312
3.67364
3.6046
3.53347
3.46188
3.38956
3.31179
3.22998
3.13972
3.05358
2.96767
2.8842
2.8079
2.74859
2.70646
2.66998
2.62929
2.58377
2.53123
2.45508
2.37261
2.30506
2.26228
2.23216
2.20324
2.19417
2.1842
2.20561
2.32732
2.55478
2.80116
2.95439
2.97662
2.96344
2.91234
2.8518
2.78929
2.79036
2.84441
2.99989
3.26583
3.47644
3.54822
3.5768
3.57649
3.54755
3.49364
3.43698
3.38307
3.32586
3.25067
3.17713
3.13255
3.1059
3.09322
3.0629
3.33959
3.32966
3.25521
3.08924
2.82207
2.55847
2.3744
2.1635
1.93773
1.79221
1.6654
1.54152
1.48799
1.44852
1.37646
1.29289
1.2729
1.26035
1.27381
1.45222
2.03456
2.64547
2.92135
2.92146
2.88268
2.79957
2.71602
2.62087
2.56695
2.52933
2.54606
2.7372
3.36549
4.03476
4.42901
4.43134
4.333
4.15368
3.98738
3.84339
3.73249
3.65184
3.56926
3.48218
3.3964
3.31384
3.23877
3.18415
3.14191
3.08169
2.99815
2.90338
2.81462
2.73175
2.66599
2.61912
2.57561
2.5355
2.5032
2.46746
2.39906
2.31601
2.25994
2.23666
2.22664
2.22852
2.28774
2.48233
2.74966
2.95734
3.04277
3.04627
3.01926
2.97191
2.91042
2.83306
2.75957
2.72812
2.72426
2.75105
2.88158
3.115
3.34506
3.50095
3.5465
3.5165
3.44682
3.38381
3.3385
3.30269
3.26818
3.22115
3.17311
3.11374
3.06145
3.02496
3.3133
3.31789
3.30314
3.21941
3.05897
2.84326
2.59094
2.4001
2.23165
2.06841
1.89109
1.71678
1.63317
1.60362
1.55754
1.43745
1.36235
1.38553
1.61045
2.20946
2.78599
2.97927
2.9575
2.88155
2.79543
2.71653
2.63846
2.5536
2.49618
2.46007
2.41703
2.37337
2.44731
2.81547
3.52042
4.04817
4.15631
4.11783
4.00058
3.87529
3.74442
3.62725
3.52606
3.44098
3.36523
3.29125
3.21709
3.14487
3.07773
3.0214
2.97655
2.9244
2.8371
2.72131
2.63179
2.58801
2.55538
2.52555
2.48823
2.43483
2.37511
2.31374
2.27711
2.26339
2.2973
2.43337
2.67969
2.95427
3.10865
3.14712
3.13271
3.09377
3.0458
2.98545
2.91057
2.82267
2.75218
2.71674
2.69591
2.69641
2.7093
2.78711
2.95224
3.15905
3.33985
3.37865
3.35405
3.32416
3.30336
3.29927
3.27496
3.24539
3.2072
3.14088
3.06818
3.01114
3.29484
3.30317
3.30135
3.2781
3.18925
3.03863
2.85614
2.631
2.40494
2.28571
2.16263
2.00919
1.78996
1.68519
1.66757
1.59914
1.60669
1.86673
2.53483
3.04402
3.13192
3.06167
2.94072
2.83812
2.76052
2.69204
2.61623
2.53282
2.47722
2.43168
2.37163
2.31497
2.24225
2.24342
2.42615
2.97057
3.58489
3.9509
3.97598
3.92382
3.77146
3.62367
3.50586
3.4149
3.33433
3.25384
3.17276
3.10433
3.04963
3.00059
2.94757
2.88247
2.80312
2.70743
2.62739
2.58024
2.53803
2.49448
2.448
2.41273
2.38077
2.33626
2.32488
2.38796
2.62101
2.90059
3.13909
3.20363
3.21018
3.1913
3.14724
3.09616
3.04358
2.98055
2.89848
2.81661
2.76394
2.73291
2.70718
2.68955
2.6835
2.68183
2.7068
2.78025
2.90852
3.10824
3.23723
3.2627
3.2698
3.28644
3.28343
3.25763
3.22335
3.17443
3.10611
3.00959
3.2713
3.27762
3.28951
3.2885
3.25735
3.16121
3.01461
2.85696
2.66634
2.42908
2.30424
2.22505
2.05932
1.88804
1.79343
1.87395
2.27246
2.99697
3.44691
3.42727
3.29568
3.13182
2.99672
2.89315
2.80375
2.72358
2.6373
2.56335
2.49346
2.42885
2.36063
2.29877
2.22599
2.1656
2.1229
2.18634
2.51328
3.14703
3.67335
3.76935
3.75025
3.64313
3.52875
3.42615
3.32276
3.22281
3.13594
3.07308
3.02247
2.97327
2.91947
2.85857
2.78934
2.70621
2.62362
2.56166
2.51402
2.47581
2.43531
2.41383
2.38938
2.41092
2.54313
2.83467
3.12387
3.26246
3.32104
3.31261
3.27017
3.21596
3.16208
3.10848
3.05307
2.98397
2.89452
2.82198
2.78511
2.75519
2.72607
2.69968
2.67959
2.65859
2.64916
2.63344
2.64202
2.71916
2.909
3.10272
3.18529
3.2476
3.2908
3.28524
3.25872
3.21416
3.14491
3.01798
3.28382
3.2806
3.28531
3.29087
3.27906
3.23383
3.14096
2.99199
2.849
2.65702
2.48279
2.32163
2.21139
2.1332
2.28808
2.83472
3.52373
3.8037
3.74377
3.57408
3.39122
3.23935
3.11445
3.00516
2.90083
2.79378
2.68043
2.58977
2.51781
2.45263
2.38398
2.30999
2.2318
2.15872
2.1051
2.05691
2.06445
2.23392
2.72837
3.27506
3.60088
3.59991
3.56554
3.44906
3.31917
3.20189
3.11445
3.05208
3.0014
2.94847
2.89051
2.82981
2.77024
2.70522
2.62849
2.55734
2.5071
2.46824
2.4441
2.45038
2.53862
2.76959
3.09572
3.35189
3.36539
3.35694
3.33764
3.29957
3.25681
3.21689
3.174
3.12075
3.05887
2.98158
2.89414
2.83653
2.80475
2.77824
2.75199
2.72294
2.69318
2.66285
2.6282
2.59222
2.55383
2.54718
2.60963
2.78759
3.00245
3.14442
3.24424
3.27164
3.26112
3.23053
3.16906
3.03037
3.32974
3.32177
3.32151
3.3164
3.30381
3.27715
3.22052
3.12364
2.98739
2.82094
2.66168
2.46897
2.49516
2.79429
3.51024
4.14614
4.23895
4.13103
3.93022
3.72638
3.54031
3.37825
3.236
3.10844
2.99424
2.88397
2.77262
2.66703
2.56978
2.47409
2.38516
2.29963
2.23405
2.17456
2.11812
2.05742
2.01562
1.97373
2.02992
2.32275
2.86409
3.2845
3.41935
3.40847
3.32551
3.22568
3.13427
3.04772
2.97928
2.92324
2.86883
2.81504
2.7594
2.69126
2.61145
2.5385
2.50624
2.48782
2.53015
2.73952
3.06571
3.37553
3.56291
3.56337
3.5012
3.38921
3.31992
3.27976
3.24556
3.21416
3.17982
3.13332
3.07155
2.99232
2.90923
2.85371
2.82388
2.7991
2.77267
2.74366
2.71232
2.67735
2.63306
2.57854
2.53
2.50765
2.50932
2.55434
2.69963
2.89615
3.07086
3.17906
3.20389
3.1895
3.15164
3.04274
3.23565
3.28942
3.33695
3.33652
3.32903
3.30903
3.26744
3.20951
3.10494
2.97955
2.83275
2.95333
3.54507
4.33003
4.69993
4.659
4.4724
4.26317
4.07146
3.8897
3.71064
3.53239
3.36289
3.20616
3.0624
2.93157
2.82291
2.73321
2.6452
2.54558
2.44517
2.34972
2.26091
2.17354
2.10579
2.05687
2.00177
1.95573
1.90704
1.91156
2.04596
2.44872
2.90719
3.23676
3.27643
3.2534
3.16333
3.04491
2.9509
2.89205
2.84494
2.79794
2.74566
2.68003
2.61542
2.54504
2.54004
2.64868
2.9531
3.35166
3.61243
3.66282
3.64886
3.59312
3.50377
3.41625
3.34687
3.29833
3.2541
3.21347
3.17708
3.13661
3.08448
3.01437
2.93472
2.87466
2.8434
2.81891
2.79316
2.76621
2.73667
2.70133
2.6512
2.58558
2.52326
2.49334
2.48381
2.48522
2.50854
2.60198
2.76058
2.94859
3.08847
3.12338
3.11858
3.04797
3.20354
3.37638
3.3753
3.34908
3.32307
3.30392
3.26774
3.24593
3.179
3.18393
3.5487
4.40482
5.1577
5.35611
5.23685
4.93869
4.64853
4.41317
4.21513
4.02716
3.84188
3.65905
3.48372
3.31916
3.16562
3.02364
2.89675
2.78026
2.66964
2.57166
2.48816
2.40799
2.32061
2.23043
2.14452
2.07148
2.00153
1.94324
1.88824
1.85954
1.8319
1.87764
2.11738
2.56982
2.99787
3.11728
3.09852
3.02284
2.93577
2.87322
2.81326
2.76959
2.72509
2.69191
2.64062
2.66517
2.86236
3.22839
3.57535
3.79928
3.83269
3.79518
3.69851
3.58773
3.50013
3.43373
3.37799
3.3293
3.27651
3.22491
3.18027
3.13967
3.09319
3.03441
2.96644
2.90347
2.86172
2.83333
2.80716
2.78155
2.75442
2.72103
2.67277
2.61029
2.54771
2.50426
2.47533
2.46227
2.46237
2.46656
2.50543
2.61244
2.79678
2.92956
3.02659
3.03168
2.56839
3.1885
3.2722
3.32012
3.34801
3.34357
3.30538
3.30205
3.4347
4.1644
5.33217
5.81395
5.74435
5.58534
5.34836
5.10852
4.85065
4.59834
4.3683
4.15573
3.95363
3.75908
3.57497
3.40303
3.24303
3.09342
2.95746
2.8425
2.74032
2.63724
2.52888
2.42287
2.32492
2.2535
2.196
2.12432
2.048
1.96488
1.88776
1.83203
1.79992
1.76465
1.77927
1.89329
2.24918
2.66789
2.92538
2.97665
2.95496
2.88289
2.80152
2.76213
2.73663
2.77526
2.91381
3.20131
3.59172
3.80898
3.86105
3.86446
3.83428
3.79369
3.72274
3.62072
3.52534
3.45843
3.41219
3.36392
3.30692
3.24547
3.18826
3.14328
3.10525
3.0576
2.99095
2.92765
2.88139
2.84752
2.81634
2.78534
2.75538
2.72425
2.68604
2.63439
2.57398
2.52379
2.48715
2.46342
2.44458
2.43474
2.41901
2.42918
2.487
2.63076
2.79124
2.94059
1.69762
2.41748
2.98209
3.32032
3.33031
3.3359
3.45162
3.85263
4.82403
5.98991
6.51289
6.43307
6.05826
5.68934
5.43833
5.2298
4.99759
4.73226
4.46982
4.24094
4.04012
3.84613
3.65988
3.48487
3.31866
3.16581
3.01834
2.87126
2.74098
2.64393
2.56326
2.48037
2.39503
2.29884
2.19042
2.0927
2.01805
1.96319
1.90366
1.84332
1.81287
1.77731
1.73263
1.6929
1.73029
1.94146
2.342
2.70091
2.85718
2.85065
2.8133
2.81713
2.95998
3.27381
3.62478
3.92248
4.12495
4.11628
4.01845
3.88223
3.79979
3.75579
3.70291
3.6314
3.55047
3.48266
3.4352
3.38981
3.33674
3.27668
3.21708
3.16038
3.10333
3.03464
2.98061
2.93716
2.89339
2.8577
2.82562
2.79401
2.76296
2.72943
2.69002
2.64252
2.59084
2.54761
2.51139
2.48097
2.45264
2.42604
2.39802
2.37064
2.35525
2.38949
2.49549
2.7431
1.41914
1.62666
2.21078
2.99925
3.21548
3.56441
4.57942
5.49519
6.37675
6.65339
6.62157
6.4977
6.23381
5.88463
5.58159
5.32051
5.07343
4.81432
4.54338
4.28565
4.07188
3.89011
3.71609
3.55412
3.39952
3.24868
3.08963
2.92573
2.78724
2.6691
2.56375
2.47301
2.38885
2.30489
2.21255
2.12374
2.03762
1.96662
1.91027
1.86456
1.81736
1.75917
1.68911
1.6405
1.59165
1.59387
1.71312
2.06417
2.49029
2.74664
2.92736
3.23249
3.70481
4.001
4.09782
4.18448
4.17231
4.13545
4.04537
3.91992
3.81467
3.73109
3.67871
3.62969
3.57189
3.51105
3.45429
3.40156
3.34698
3.2887
3.23829
3.18955
3.12669
3.04612
2.97646
2.9502
2.92356
2.89113
2.8585
2.82579
2.78953
2.74532
2.6974
2.64925
2.61388
2.58658
2.55477
2.51772
2.48153
2.4453
2.40581
2.35561
2.31767
2.30053
2.31823
2.49155
1.40028
1.41603
1.56312
2.22257
3.3902
4.53264
5.86728
6.56799
7.07583
6.95269
6.67674
6.46718
6.27293
6.01154
5.69338
5.36472
5.074
4.84607
4.64992
4.41961
4.16835
3.94657
3.74113
3.5588
3.39416
3.22794
3.09792
3.00409
2.88853
2.75386
2.62627
2.5254
2.43105
2.3313
2.21495
2.11907
2.07176
2.02618
1.98073
1.92367
1.84704
1.76703
1.69037
1.63027
1.58488
1.54438
1.54614
1.63743
1.95847
2.6313
3.28357
3.84295
4.27161
4.43264
4.40199
4.35795
4.22024
4.07729
4.00883
3.93762
3.85337
3.75079
3.66186
3.60414
3.5748
3.54827
3.50618
3.44653
3.37996
3.31358
3.24359
3.1753
3.10764
3.03988
2.99025
2.94769
2.90333
2.8679
2.83535
2.80407
2.77612
2.74349
2.6979
2.65431
2.62051
2.58612
2.54519
2.50062
2.45855
2.41739
2.37444
2.3325
2.294
2.27261
2.27522
2.35064
1.40062
1.40988
1.54776
2.03638
3.28506
4.79013
5.6805
6.59356
7.08611
6.84306
6.52704
6.41931
6.2968
6.09983
5.79271
5.45414
5.14793
4.88309
4.61971
4.35969
4.10036
3.89431
3.76194
3.62242
3.46164
3.29742
3.12948
2.95923
2.81611
2.69327
2.5729
2.48667
2.44434
2.38237
2.27793
2.1515
2.03086
1.96289
1.92301
1.87785
1.80978
1.7526
1.71642
1.67094
1.61079
1.55488
1.55681
1.62856
1.9511
2.54091
3.29772
3.91186
4.18519
4.41685
4.43116
4.31821
4.14385
4.03686
3.9812
3.9305
3.86818
3.76913
3.67292
3.62328
3.58613
3.53786
3.47626
3.40271
3.33091
3.274
3.22289
3.16568
3.1094
3.05612
3.00653
2.95289
2.90316
2.86696
2.83554
2.80336
2.77415
2.7508
2.72054
2.67874
2.63755
2.59621
2.55156
2.50258
2.45455
2.40802
2.36594
2.32624
2.29663
2.28142
2.2825
2.33437
1.42899
1.62138
2.17845
2.85925
3.18235
3.79931
4.42611
5.5978
6.33194
6.53031
6.51584
6.44574
6.23149
5.92183
5.63737
5.38113
5.13086
4.87031
4.59465
4.32875
4.09548
3.88171
3.67257
3.48999
3.33603
3.1974
3.06516
2.92651
2.78753
2.66859
2.58385
2.5061
2.40462
2.30437
2.22443
2.13574
2.03645
1.95503
1.90341
1.86537
1.81745
1.75127
1.67885
1.63831
1.60816
1.61619
1.75195
2.10011
2.54079
2.68482
2.92998
3.29428
3.56647
3.99449
4.14248
4.15851
4.14491
4.10499
4.03209
3.93613
3.83664
3.75768
3.71036
3.668
3.61577
3.54817
3.47127
3.39087
3.31328
3.25613
3.2186
3.18296
3.14257
3.09644
3.04062
2.9786
2.9236
2.88665
2.85546
2.82433
2.79173
2.75302
2.70899
2.66123
2.61718
2.59032
2.56169
2.51563
2.45464
2.39733
2.37043
2.34446
2.32874
2.32732
2.34972
2.50044
1.76811
2.39586
2.99598
3.32073
3.30697
3.31497
3.39984
3.85796
4.9098
6.01486
6.47659
6.42542
6.09338
5.71876
5.46671
5.25883
5.02489
4.75934
4.49144
4.24374
4.01819
3.80382
3.60632
3.44013
3.29992
3.17243
3.04233
2.90905
2.77638
2.6534
2.55121
2.46267
2.36448
2.26117
2.20061
2.15508
2.08622
1.99783
1.91969
1.85254
1.79584
1.73935
1.6898
1.65785
1.70019
1.94619
2.37754
2.75499
2.87448
2.83981
2.79162
2.80847
2.89977
3.19869
3.62429
3.9408
4.11457
4.12465
4.04705
3.91767
3.79655
3.73176
3.68266
3.62789
3.56906
3.50861
3.44412
3.37891
3.31279
3.24884
3.19348
3.14603
3.10527
3.06384
3.01667
2.96046
2.89996
2.84942
2.81221
2.78414
2.75854
2.73061
2.70215
2.66954
2.6271
2.57825
2.53219
2.49009
2.4446
2.39472
2.36549
2.35644
2.36341
2.42449
2.54617
2.76662
2.697
3.10207
3.23736
3.33102
3.34215
3.3435
3.33328
3.33552
3.49751
4.25756
5.37794
5.80147
5.75111
5.58616
5.34842
5.09394
4.83509
4.58244
4.34866
4.13466
3.92869
3.72861
3.54983
3.3949
3.2551
3.12571
3.00231
2.88011
2.75369
2.62386
2.50021
2.39529
2.31687
2.25263
2.17598
2.09241
2.0312
1.97538
1.91128
1.8442
1.79584
1.74723
1.74722
1.86553
2.20667
2.67624
2.96703
3.00091
2.97117
2.88597
2.77611
2.73192
2.7147
2.74694
2.92092
3.25458
3.65092
3.9056
3.90092
3.85406
3.80596
3.75248
3.6769
3.59211
3.52893
3.48068
3.42744
3.36854
3.30797
3.24825
3.19416
3.14583
3.10134
3.05722
3.00927
2.95467
2.89553
2.83806
2.79229
2.76401
2.74242
2.71946
2.69165
2.65326
2.60782
2.55926
2.51582
2.47803
2.44638
2.41624
2.38873
2.40799
2.50628
2.68073
2.87341
2.99404
3.24277
3.33078
3.325
3.32043
3.31533
3.30981
3.29528
3.26683
3.18772
3.19536
3.53026
4.35399
5.13639
5.3406
5.21562
4.9129
4.63302
4.3987
4.19322
4.00051
3.81621
3.64415
3.4871
3.33945
3.20095
3.0722
2.94595
2.8169
2.68789
2.56351
2.4589
2.37563
2.29516
2.21929
2.14385
2.06849
2.00617
1.968
1.91971
1.87172
1.83393
1.8769
2.1128
2.56095
2.97298
3.1496
3.14432
3.07505
2.96114
2.85468
2.77987
2.7361
2.69977
2.68612
2.66719
2.72241
2.9378
3.30336
3.62292
3.77052
3.77784
3.73767
3.65187
3.57483
3.521
3.47776
3.4194
3.35249
3.28883
3.23092
3.17817
3.12914
3.08251
3.03698
2.98883
2.9363
2.88336
2.83319
2.78997
2.75715
2.73047
2.7022
2.66616
2.62291
2.58399
2.5494
2.51647
2.48613
2.45743
2.43982
2.4683
2.59401
2.78303
2.97077
3.08662
3.08373
3.25056
3.27114
3.2895
3.31406
3.32034
3.30342
3.26535
3.20851
3.09844
2.97756
2.82453
2.92391
3.50766
4.32384
4.69199
4.64946
4.47107
4.26743
4.06892
3.87798
3.69958
3.53166
3.37661
3.23338
3.10006
2.97719
2.86082
2.74351
2.63006
2.51737
2.4149
2.32534
2.24397
2.17159
2.12075
2.07958
2.02381
1.97181
1.91762
1.92292
2.05528
2.44517
2.91825
3.2096
3.27747
3.25354
3.17209
3.06792
2.9506
2.85021
2.80443
2.76895
2.72859
2.67811
2.63788
2.59098
2.59462
2.68397
2.96676
3.29985
3.51302
3.58793
3.60118
3.58401
3.53259
3.4722
3.3964
3.32239
3.2614
3.20989
3.15482
3.0995
3.05158
3.00957
2.96775
2.92206
2.87405
2.83058
2.79594
2.75824
2.70977
2.66463
2.62243
2.58705
2.55919
2.53677
2.52284
2.5066
2.51176
2.55858
2.70516
2.87084
3.01419
3.11711
3.15382
3.12594
3.33796
3.31155
3.30923
3.31153
3.3058
3.28261
3.22558
3.12255
2.98306
2.81971
2.65982
2.46906
2.49369
2.80134
3.51814
4.14007
4.25269
4.14696
3.94623
3.73879
3.55108
3.38896
3.2509
3.12695
3.00687
2.88981
2.77274
2.6507
2.53888
2.43593
2.35326
2.28793
2.23414
2.17786
2.12691
2.06359
2.03445
1.99415
2.03636
2.33106
2.83785
3.25704
3.37315
3.38094
3.32627
3.25024
3.17152
3.07945
2.9751
2.8873
2.83023
2.77724
2.72695
2.67324
2.62534
2.57028
2.54275
2.51168
2.54118
2.69534
2.99649
3.2932
3.49707
3.55128
3.53
3.46309
3.38262
3.31011
3.24358
3.18583
3.1223
3.05987
3.01697
2.98385
2.95075
2.91484
2.87848
2.84327
2.80024
2.73383
2.66119
2.61462
2.58129
2.55861
2.54297
2.54275
2.55139
2.60214
2.69321
2.85738
3.00019
3.06656
3.10584