/*--------------------------------*- C++ -*----------------------------------*\
  =========                 |
  \\      /  F ield         | OpenFOAM: The Open Source CFD Toolbox
   \\    /   O peration     | Website:  https://openfoam.org
    \\  /    A nd           | Version:  7
     \\/     M anipulation  |
\*---------------------------------------------------------------------------*/
FoamFile
{
    version     2.0;
    format      ascii;
    class       volScalarField;
    location    "3.9";
    object      T;
}
// * * * * * * * * * * * * * * * * * * * * * * * * * * * * * * * * * * * * * //

dimensions      [0 0 0 1 0 0 0];

internalField   nonuniform List<scalar> 
4608
(
1
1
1
1
1
1
1
1
1
1
1
1
1
1
1
1
1
1
1
1
1
1
1
1
1
1
1
1
1
1
1
1
1
1
1
1
1
1
1
1
1
1
1
1
1
1
1
1
1
1
1
1
1
1
1
1
1
1
1
1
1
1
1
1
1
1
1
1
1
1
1
1
1
1
1
1
1
1
1
1
1
1
1
1
1
1
1
1
1
1
1
1
1
1
1
1
1
1
1
1
1
1
1
1
1
1
1
1
1
1
1
1
1
1
1
1
1
1
1
1
1
1
1
1
1
1
1
1
1
1
1
1
1
1
1
1
1
1
1
1
1
1
1
1
1
1
1
1
1
1
1
1
1
1
1
1
1
1
1
1
1
1
1
1
1
1
1
1
1
1
1
1
1
1
1
1
1
1
1
1
1
1
1
1
1
1
1
1
1
1
1
1
1
1
1
1
1
1
1
1
1
1
1
1
1
1
1
1
1
1
1
1
1
1
1
1
1
1
1
1
1
1
1
1
1
1
1
1
1
1
1
1
1
1
1
1
1
1
1
1
1
1
1
1
1
1
1
1
1
1
1
1
1
1
1
1
1
1
1
1
1
1
1
1
1
1
1
1
1
1
1
1
1
1
1
1
1
1
1
1
1
1
1
1
1
1
1
1
1
1
1
1
1
1
1
1
1
1
1
1
1
1
1
1
1
1
1
1
1
1
1
1
1
1
1
1
1
1
1
1
1
1
1
1
1
1
1
1
1
1
1
1
1
1
1
1
1
1
1
1
1
1
1
1
1
1
1
1
1
1
1
1
1
1
1
1
1
1
1
1
1
1
1
1
1
1
1
1
1
1
1
1
1
1
1
1
1
1
1
1
1
1
1
1
1
1
1
1
1
1
1
1
1
1
1
1
1
1
1
1
1
1
1
1
1
1
1
1
1
1
1
1
1
1
1
1
1
1
1
1
1
1
1
1
1
1
1
1
1
1
1
1
1
1
1
1
1
1
1
1
1
1
1
1
1
1
1
1
1
1
1
1
1
1
1
1
1
1
1
1
1
1
1
1
1
1
1
1
1
1
1
1
1
1
1
1
1
1
1
1
1
1
1
1
1
1
1
1
1
1
1
1
1
1
1
1
1
1
1
1
1
1
1
1
1
1
1
1
1
1
1
1
1
1
1
1
1
1
1
1
1
1
1
1
1
1
1
1
1
1
1
1
1
1
1
1
1
1
1
1
1
1
1
1
1
1
1
1
1
1
1
1
1
1
1
1
1
1
1
1
1
1
1
1
1
1
1
1
1
1
1
1
1
1
1
1
1
1
1
1
1
1
1
1
1
1
1
1
1
1
1
1
1
1
1
1
1
1
1
1
1
1
1
1
1
1
1
1
1
1
1
1
1
1
1
1
1
1
1
1
1
1
1
1
1
1
1
1
1
1
1
1
1
1
1
1
1
1
1
1
1
1
1
1
1
1
1
1
1
1
1
1
1
1
1
1
1
1
1
1
1
1
1
1
1
1
1
1
1
1
1
1
1
1
1
1
1
1
1
1
1
1
1
1
1
1
1
1
1
1
1
1
1
1
1
1
1
1
1
1
1
1
1
1
1
1
1
1
1
1
1
1
1
1
1
1
1
1
1
1
1
1
1
1
1
1
1
1
1
1
1
1
1
1
1
1
1
1
1
1
1
1
1
1
1
1
1
1
1
1
1
1
1
1
1
1
1
1
1
1
1
1
1
1
1
1
1
1
1.07887
1.18173
1.28456
1.39411
1.48569
1.57166
1.64107
1.68231
1.69772
1.68093
1.63784
1.58749
1.54122
1.52396
1.51331
1.515
1.51861
1.52268
1.52801
1.53227
1.53642
1.53847
1.53861
1.53817
1.00062
1.00721
1.02933
1.07073
1.14769
1.23032
1.32337
1.40609
1.48495
1.516
1.55099
1.56779
1.56062
1.5488
1.54374
1.5387
1.53438
1.5322
1.53246
1.53478
1.53785
1.5406
1.54084
1.54167
0.999999
0.999989
1.00006
1.00004
1.00129
1.00787
1.03758
1.11538
1.27147
1.4486
1.56917
1.62288
1.62199
1.60908
1.59029
1.56388
1.54804
1.54482
1.54243
1.54257
1.54348
1.54592
1.54749
1.54913
1
1
1
1
0.999995
1.00001
0.99998
1.00063
1.01252
1.11326
1.3071
1.49676
1.60814
1.61015
1.59693
1.58651
1.58164
1.57597
1.56674
1.55809
1.55411
1.55399
1.55473
1.55684
1
1
1
1
1
1
0.999998
0.999999
0.999961
1.00062
1.01422
1.13274
1.34263
1.54881
1.60195
1.61879
1.61554
1.60975
1.5919
1.57696
1.57061
1.56553
1.56546
1.56766
1
1
1
1
1
1
1
1
0.999996
0.999997
0.999961
1.00131
1.02687
1.1761
1.40347
1.56562
1.61694
1.61309
1.6053
1.596
1.58908
1.58201
1.57683
1.57793
1
1
1
1
1
1
1
1
1
1
0.999996
0.999998
0.999987
1.00333
1.06511
1.24374
1.45956
1.57075
1.6084
1.60702
1.60203
1.59492
1.58817
1.58326
1
1
1
1
1
1
1
1
1
1
1
1
0.999999
0.999987
1.00041
1.01104
1.12857
1.33669
1.52207
1.5689
1.58684
1.58903
1.58526
1.57985
1
1
1
1
1
1
1
1
1
1
1
1
1
0.999998
0.999998
0.999989
1.00309
1.04096
1.22965
1.43569
1.56114
1.5859
1.58434
1.57998
1
1
1
1
1
1
1
1
1
1
1
1
1
1
1
0.999999
0.999992
1.00029
1.01742
1.12833
1.35997
1.51267
1.57023
1.58036
1
1
1
1
1
1
1
1
1
1
1
1
1
1
1
1
0.999999
0.999998
1.00008
1.0044
1.07691
1.2786
1.48768
1.52964
1
1
1
1
1
1
1
1
1
1
1
1
1
1
1
1
1
1
0.999999
1
1.00218
1.03671
1.2227
1.4101
1
1
1
1
1
1
1
1
1
1
1
1
1
1
1
1
1
1
1
1
0.999999
1.0006
1.02257
1.15594
1
1
1
1
1
1
1
1
1
1
1
1
1
1
1
1
1
1
1
1
1
0.999999
1.00032
1.01041
1
1
1
1
1
1
1
1
1
1
1
1
1
1
1
1
1
1
1
1
1
1
0.999999
1.00002
1
1
1
1
1
1
1
1
1
1
1
1
1
1
1
1
1
1
1
1
1
1
1
0.999999
1
1
1
1
1
1
1
1
1
1
1
1
1
1
1
1
1
1
1
1
1
1
1
0.999996
1
1
1
1
1
1
1
1
1
1
1
1
1
1
1
1
1
1
1
1
1
1
1
0.99999
1
1
1
1
1
1
1
1
1
1
1
1
1
1
1
1
1
1
1
1
1
0.999999
1.00033
1.01005
1
1
1
1
1
1
1
1
1
1
1
1
1
1
1
1
1
1
1
1
0.999999
1.00062
1.02045
1.16055
1
1
1
1
1
1
1
1
1
1
1
1
1
1
1
1
1
1
0.999999
1
1.00213
1.03757
1.21057
1.42751
1
1
1
1
1
1
1
1
1
1
1
1
1
1
1
1
0.999999
0.999998
1.00009
1.00436
1.07858
1.27355
1.48605
1.54417
1
1
1
1
1
1
1
1
1
1
1
1
1
1
1
0.999999
0.999992
1.00029
1.01744
1.12867
1.36278
1.50673
1.57157
1.58388
1
1
1
1
1
1
1
1
1
1
1
1
1
0.999998
0.999998
0.999989
1.0031
1.04091
1.22903
1.43767
1.56141
1.58418
1.5836
1.58037
1
1
1
1
1
1
1
1
1
1
1
1
0.999999
0.999987
1.00041
1.01102
1.12877
1.33623
1.52244
1.5697
1.58672
1.5884
1.58477
1.58023
1
1
1
1
1
1
1
1
1
1
0.999996
0.999998
0.999987
1.00333
1.06512
1.24373
1.45969
1.57038
1.60856
1.60727
1.60198
1.59466
1.58814
1.58348
1
1
1
1
1
1
1
1
0.999996
0.999997
0.999961
1.00131
1.02687
1.17611
1.40343
1.56568
1.61694
1.61306
1.6053
1.59613
1.58908
1.58185
1.57685
1.57794
1
1
1
1
1
1
0.999998
0.999999
0.999961
1.00062
1.01422
1.13273
1.34264
1.54881
1.60195
1.61882
1.61555
1.60974
1.59189
1.57704
1.5706
1.56547
1.56546
1.56766
1
1
1
1
0.999995
1.00001
0.999979
1.00063
1.01251
1.11326
1.3071
1.49675
1.60816
1.61015
1.59693
1.58651
1.58163
1.57593
1.56673
1.55813
1.55409
1.55396
1.55473
1.55684
0.999999
0.999989
1.00006
1.00004
1.00129
1.00787
1.03758
1.11538
1.27146
1.44861
1.56915
1.62288
1.62199
1.60909
1.59029
1.56388
1.54802
1.5448
1.54243
1.54256
1.54346
1.5459
1.5475
1.54915
1.00062
1.00721
1.02934
1.07072
1.14769
1.23033
1.32337
1.40609
1.48495
1.51601
1.55097
1.56779
1.56064
1.5488
1.54372
1.5387
1.53439
1.5322
1.53246
1.53478
1.53784
1.5406
1.54085
1.54169
1.07887
1.18174
1.28455
1.39411
1.48572
1.57163
1.64106
1.68232
1.69772
1.68093
1.63784
1.58748
1.5412
1.52396
1.51332
1.515
1.51862
1.52269
1.52802
1.53227
1.53641
1.53848
1.53862
1.53818
1.39629
1.22898
1.08998
1.03246
1.01108
0.979839
0.974626
1.001
1.03731
1.05459
1.07328
1.10054
1.10469
1.10143
1.09988
1.10424
1.11139
1.11686
1.11775
1.11771
1.11506
1.10478
1.10306
1.12154
1.25909
1.5363
1.77163
1.98302
2.13259
2.18018
2.13654
2.06092
2.0029
1.97371
1.95508
1.93434
1.90948
1.88577
1.86521
1.84689
1.82955
1.81187
1.79413
1.77683
1.75961
1.74072
1.71782
1.69278
1.67071
1.65414
1.64482
1.63745
1.62884
1.61874
1.6069
1.59265
1.57488
1.5528
1.52928
1.51234
1.50489
1.50008
1.49443
1.48768
1.48089
1.47347
1.46285
1.44771
1.42676
1.40029
1.39375
1.40069
1.43317
1.5086
1.6348
1.73958
1.82205
1.87769
1.89806
1.88826
1.85337
1.81262
1.80109
1.79703
1.79553
1.79361
1.7863
1.77855
1.76496
1.73821
1.72063
1.71522
1.71113
1.70739
1.70448
1.69571
1.49436
1.4154
1.31009
1.23169
1.19724
1.14167
1.07551
1.072
1.06813
1.05943
1.05508
1.05957
1.06075
1.0596
1.0614
1.06929
1.0792
1.08713
1.08985
1.09212
1.0905
1.09134
1.11375
1.25661
1.48328
1.55824
1.62827
1.72417
1.8642
1.96557
2.04022
2.03919
2.01599
1.98811
1.96307
1.93734
1.9128
1.89391
1.87499
1.85463
1.83639
1.81902
1.80194
1.78516
1.76753
1.74762
1.72418
1.69999
1.68074
1.666
1.65485
1.64558
1.63676
1.6269
1.61498
1.59964
1.58047
1.55875
1.53843
1.52374
1.51452
1.50886
1.5028
1.49532
1.48763
1.47873
1.4683
1.45461
1.4351
1.42147
1.42938
1.4696
1.5287
1.59438
1.63792
1.68931
1.74315
1.79217
1.81642
1.82586
1.82416
1.81625
1.80936
1.8047
1.80219
1.79743
1.79048
1.78199
1.76783
1.7443
1.72647
1.72062
1.71658
1.7129
1.70952
1.70049
1.53396
1.49337
1.43076
1.34766
1.28454
1.23139
1.16664
1.12227
1.09813
1.06795
1.04342
1.04439
1.04408
1.0397
1.0395
1.04255
1.04834
1.05561
1.06034
1.06412
1.07182
1.11623
1.281
1.47457
1.58357
1.58831
1.58637
1.58988
1.62658
1.76087
1.92741
2.02129
2.03349
2.01348
1.97053
1.93692
1.91322
1.89194
1.86775
1.84218
1.82172
1.80715
1.79269
1.77717
1.76016
1.74118
1.72118
1.70265
1.68515
1.66752
1.64968
1.63383
1.62134
1.61153
1.60152
1.5888
1.5725
1.55623
1.54234
1.52629
1.50842
1.49663
1.4896
1.48191
1.47382
1.46625
1.45832
1.44896
1.44445
1.45986
1.51198
1.57901
1.62623
1.65057
1.64933
1.65096
1.66089
1.68961
1.72976
1.77679
1.80789
1.81605
1.81778
1.81677
1.80763
1.79759
1.78918
1.77971
1.76799
1.7514
1.7321
1.71891
1.71286
1.70868
1.70532
1.69663
1.5537
1.53598
1.49969
1.44032
1.3691
1.32042
1.26817
1.20299
1.16826
1.14082
1.09211
1.0752
1.07205
1.06279
1.04658
1.04202
1.04059
1.03774
1.03884
1.04531
1.1061
1.29717
1.49401
1.57948
1.58795
1.5836
1.57103
1.5521
1.53751
1.5544
1.65151
1.8391
1.97648
1.98253
1.97453
1.95022
1.92512
1.89733
1.86931
1.84275
1.81969
1.80391
1.78981
1.77478
1.75956
1.74457
1.72867
1.7115
1.69209
1.6732
1.65415
1.63567
1.61822
1.60416
1.59391
1.58481
1.57458
1.5635
1.55088
1.53249
1.51215
1.49518
1.48455
1.47687
1.46927
1.46638
1.46285
1.46886
1.50341
1.564
1.6279
1.66578
1.67338
1.67086
1.65977
1.64584
1.63194
1.63262
1.64629
1.68333
1.74354
1.78947
1.80666
1.80858
1.8077
1.801
1.78969
1.7784
1.7683
1.75719
1.74115
1.72496
1.71509
1.7087
1.70484
1.69624
1.56499
1.55972
1.54112
1.50482
1.44797
1.38864
1.34429
1.29516
1.23875
1.19606
1.15715
1.1223
1.10942
1.09854
1.07673
1.04924
1.04345
1.04006
1.04613
1.12089
1.3271
1.50614
1.58372
1.5858
1.57942
1.5637
1.54682
1.52582
1.51304
1.50338
1.50767
1.56248
1.73136
1.8821
1.957
1.95532
1.93399
1.89866
1.86845
1.84175
1.82022
1.80409
1.78663
1.76766
1.74898
1.73152
1.71609
1.70498
1.69625
1.68299
1.66427
1.64288
1.62255
1.60287
1.58646
1.57433
1.56299
1.55297
1.54554
1.53746
1.52084
1.49974
1.48585
1.47961
1.47648
1.47685
1.49381
1.54782
1.61566
1.6653
1.68718
1.69178
1.68646
1.67643
1.66234
1.64434
1.62698
1.6202
1.62022
1.62694
1.65893
1.71369
1.76617
1.79941
1.8062
1.79944
1.7847
1.77165
1.76263
1.75608
1.74927
1.73888
1.72712
1.71259
1.70013
1.69075
1.57683
1.57413
1.56739
1.54643
1.50997
1.4618
1.40383
1.35803
1.31717
1.2764
1.22786
1.17851
1.1567
1.15005
1.13732
1.10147
1.07826
1.08829
1.18157
1.38358
1.5413
1.59944
1.59674
1.58294
1.56516
1.54783
1.53015
1.51016
1.49576
1.48585
1.47369
1.46148
1.4843
1.59621
1.77507
1.88804
1.90308
1.89583
1.87406
1.85052
1.82512
1.80175
1.78061
1.76289
1.74707
1.7314
1.71531
1.69931
1.68404
1.67157
1.66209
1.65079
1.63098
1.60358
1.58117
1.56971
1.56127
1.5535
1.54408
1.53128
1.51695
1.50161
1.49198
1.48785
1.49729
1.53574
1.60149
1.6682
1.70336
1.71494
1.71274
1.70537
1.69537
1.68194
1.66454
1.64375
1.62726
1.61939
1.61499
1.61514
1.61826
1.6371
1.67719
1.72696
1.76645
1.77264
1.76715
1.76138
1.75807
1.7577
1.75286
1.74599
1.73659
1.721
1.70488
1.69223
1.5834
1.58277
1.58054
1.57223
1.55003
1.5151
1.47337
1.42193
1.36754
1.33675
1.30559
1.26816
1.21162
1.18158
1.17588
1.15724
1.16602
1.27719
1.49546
1.61788
1.63858
1.62426
1.59838
1.57556
1.55775
1.54172
1.52371
1.50388
1.48866
1.47512
1.45846
1.4427
1.42097
1.42129
1.48107
1.63801
1.78111
1.86129
1.86921
1.85956
1.83032
1.80004
1.77595
1.75762
1.74135
1.72467
1.70712
1.69174
1.67939
1.66846
1.65677
1.64243
1.62476
1.60245
1.58249
1.57003
1.55902
1.54791
1.53651
1.52843
1.52089
1.50958
1.50619
1.52374
1.58696
1.65871
1.71521
1.72746
1.73082
1.72738
1.71888
1.70815
1.69613
1.68164
1.66248
1.64297
1.6307
1.62355
1.61783
1.61392
1.61196
1.61094
1.61689
1.6354
1.66741
1.71297
1.74032
1.74746
1.75134
1.75557
1.75465
1.74826
1.73991
1.7291
1.71474
1.69445
1.57989
1.58094
1.58201
1.58122
1.57316
1.55084
1.51746
1.48143
1.43781
1.38209
1.35109
1.33205
1.29241
1.24777
1.2214
1.25383
1.39446
1.59269
1.70143
1.69858
1.67365
1.64001
1.61001
1.58532
1.56327
1.54333
1.52214
1.50343
1.48597
1.46981
1.45178
1.43429
1.41274
1.3929
1.37933
1.40056
1.50305
1.67397
1.79981
1.82318
1.81952
1.79826
1.77484
1.75426
1.73403
1.71442
1.69712
1.68392
1.67274
1.66183
1.65025
1.63745
1.62226
1.60264
1.58211
1.56587
1.55358
1.54422
1.53487
1.53013
1.52456
1.53102
1.56799
1.64232
1.71153
1.74533
1.75633
1.75411
1.74502
1.73363
1.72223
1.71064
1.69781
1.68144
1.66032
1.64288
1.63387
1.62683
1.62025
1.61442
1.60963
1.60382
1.60052
1.59515
1.59739
1.61709
1.66276
1.70756
1.72942
1.74511
1.75354
1.75182
1.74525
1.73449
1.71974
1.69466
1.57851
1.57875
1.58073
1.5816
1.57893
1.56925
1.54946
1.51763
1.48642
1.4444
1.40445
1.36653
1.33743
1.32151
1.37683
1.54728
1.71339
1.76938
1.75775
1.72523
1.68914
1.65737
1.62937
1.60361
1.5784
1.55202
1.52366
1.5007
1.48314
1.46704
1.44936
1.42972
1.40878
1.38737
1.37034
1.35432
1.35682
1.41374
1.56383
1.70527
1.77002
1.77842
1.77223
1.75027
1.72522
1.70274
1.68631
1.67411
1.66345
1.65225
1.64057
1.62856
1.61599
1.60069
1.58134
1.56292
1.55003
1.54148
1.53724
1.53987
1.56605
1.6288
1.70783
1.76171
1.76527
1.76305
1.75852
1.74996
1.74038
1.73158
1.722
1.71013
1.69601
1.67778
1.65684
1.64254
1.63457
1.62826
1.62222
1.61548
1.60809
1.5995
1.58916
1.57941
1.5696
1.56784
1.58391
1.62795
1.68013
1.71504
1.73748
1.74218
1.73958
1.7321
1.71917
1.69241
1.58037
1.58223
1.58474
1.58425
1.58205
1.57689
1.56609
1.54763
1.52086
1.48647
1.45196
1.40817
1.41835
1.51606
1.69849
1.8343
1.84514
1.82451
1.78671
1.74742
1.71012
1.67601
1.64488
1.6162
1.58973
1.56324
1.53582
1.50998
1.4857
1.46272
1.44138
1.42021
1.40252
1.38564
1.3686
1.35043
1.33702
1.32561
1.34649
1.44477
1.59231
1.68995
1.72866
1.72852
1.71491
1.69706
1.68026
1.66372
1.65001
1.63876
1.62847
1.6187
1.60791
1.59288
1.57234
1.55354
1.54447
1.54452
1.55782
1.61585
1.69991
1.76851
1.80369
1.80186
1.78749
1.76374
1.74993
1.74101
1.73276
1.72527
1.71735
1.70664
1.69239
1.67384
1.6538
1.64007
1.63264
1.62661
1.62019
1.61283
1.60435
1.5946
1.58227
1.56797
1.55646
1.55109
1.55146
1.56255
1.5989
1.64734
1.68874
1.71113
1.71693
1.71453
1.70787
1.68756
1.55342
1.56942
1.58084
1.58114
1.58047
1.57786
1.57169
1.56302
1.5449
1.52032
1.49196
1.53004
1.68726
1.85306
1.91893
1.91042
1.87599
1.83729
1.8013
1.76608
1.73015
1.6936
1.6584
1.62543
1.59424
1.56445
1.53815
1.51563
1.49364
1.47024
1.44699
1.42342
1.40117
1.37926
1.3606
1.34562
1.32884
1.31545
1.30256
1.30535
1.35378
1.4762
1.59876
1.67197
1.69284
1.69002
1.6741
1.65149
1.63287
1.62172
1.61339
1.60526
1.59539
1.5814
1.56466
1.54833
1.54899
1.58068
1.66111
1.75604
1.8114
1.81257
1.80865
1.79609
1.77748
1.75998
1.74607
1.73556
1.72556
1.7163
1.70787
1.69827
1.68578
1.66911
1.65029
1.63615
1.62874
1.62278
1.61616
1.60874
1.60048
1.59104
1.57851
1.56249
1.54762
1.54052
1.53816
1.53696
1.54252
1.56619
1.60592
1.65093
1.68054
1.68976
1.68968
1.67878
1.52782
1.5764
1.58034
1.5779
1.57411
1.57189
1.5677
1.56573
1.55582
1.55965
1.6579
1.8432
1.98308
2.00824
1.9873
1.93802
1.88924
1.84854
1.81278
1.77717
1.74066
1.70404
1.66905
1.63646
1.60564
1.5757
1.54659
1.51743
1.48981
1.46704
1.44869
1.43042
1.40982
1.38735
1.36459
1.34487
1.32552
1.30887
1.29325
1.28542
1.27901
1.29579
1.37623
1.50624
1.61685
1.6477
1.64542
1.63344
1.6182
1.60666
1.59509
1.58668
1.57872
1.57257
1.56386
1.57219
1.6244
1.71328
1.78916
1.83377
1.83582
1.82806
1.80724
1.78368
1.76645
1.75364
1.7418
1.73069
1.71892
1.70775
1.69786
1.68841
1.67713
1.66289
1.64704
1.63308
1.62393
1.61749
1.61098
1.60389
1.59611
1.58716
1.57545
1.56134
1.54724
1.53713
1.53017
1.52608
1.52475
1.52525
1.53508
1.5629
1.6071
1.63779
1.65794
1.66613
1.37086
1.52732
1.55386
1.5638
1.57143
1.57184
1.56977
1.57171
1.60529
1.7654
1.98729
2.05783
2.04614
2.02015
1.98199
1.94351
1.90298
1.86233
1.82353
1.7857
1.74781
1.71011
1.67456
1.64186
1.61135
1.58174
1.55279
1.52579
1.50065
1.47574
1.45069
1.42739
1.40516
1.38831
1.37438
1.35617
1.33553
1.31222
1.2905
1.2751
1.26675
1.25793
1.26327
1.30507
1.42095
1.53516
1.59582
1.61428
1.61116
1.59715
1.58
1.57229
1.5717
1.58367
1.62154
1.68999
1.77399
1.82533
1.82793
1.82703
1.82059
1.81223
1.79756
1.77761
1.7608
1.74918
1.73987
1.72866
1.7153
1.70178
1.6896
1.67953
1.6704
1.65919
1.64383
1.62995
1.62039
1.61336
1.60634
1.59841
1.58985
1.58104
1.57176
1.56072
1.54808
1.5372
1.52889
1.52285
1.5172
1.51326
1.50799
1.51068
1.52621
1.56268
1.60011
1.63651
1.11196
1.33765
1.48419
1.55224
1.56119
1.56446
1.59449
1.687
1.86881
2.05041
2.13057
2.121
2.07238
2.01985
1.98029
1.94681
1.9103
1.86934
1.82761
1.78887
1.75279
1.71685
1.68239
1.64973
1.61819
1.58853
1.55891
1.52761
1.49788
1.47452
1.45583
1.43772
1.4188
1.39695
1.37117
1.34601
1.32584
1.31074
1.29397
1.2771
1.26936
1.26058
1.24809
1.23751
1.25303
1.32992
1.45104
1.54463
1.58119
1.57964
1.57231
1.57634
1.61742
1.69397
1.76899
1.82409
1.86456
1.86481
1.84867
1.82295
1.80369
1.79202
1.78166
1.76961
1.75653
1.74593
1.73721
1.72697
1.71423
1.7006
1.68797
1.67626
1.66401
1.64845
1.63601
1.62654
1.61768
1.61062
1.60374
1.59595
1.58729
1.57796
1.56839
1.55826
1.54769
1.53901
1.53144
1.52448
1.51688
1.50896
1.50054
1.49272
1.48889
1.49842
1.52606
1.5888
1.00679
1.0831
1.28192
1.48383
1.52958
1.60078
1.80806
1.97305
2.09085
2.12199
2.12016
2.1098
2.08024
2.03418
1.98976
1.95028
1.91217
1.87205
1.82949
1.78731
1.75066
1.71902
1.68871
1.65966
1.63079
1.60142
1.56918
1.53521
1.50544
1.47898
1.45528
1.43468
1.41593
1.39766
1.37624
1.35332
1.33069
1.31197
1.29647
1.28361
1.27046
1.2543
1.23454
1.22041
1.20713
1.20999
1.25653
1.37301
1.49098
1.54976
1.59417
1.66334
1.77038
1.83773
1.853
1.86544
1.86325
1.85848
1.84515
1.82331
1.8014
1.7825
1.77159
1.76379
1.75528
1.74558
1.73495
1.72349
1.71096
1.6981
1.68797
1.67856
1.66577
1.64806
1.63272
1.62763
1.62259
1.6162
1.6092
1.60118
1.59152
1.57998
1.56831
1.55773
1.55109
1.54657
1.54052
1.53212
1.52277
1.51278
1.50161
1.48807
1.47657
1.47359
1.47872
1.52628
1.00008
1.00526
1.06279
1.2791
1.56746
1.77478
2.00327
2.11913
2.17777
2.15966
2.12424
2.10009
2.07711
2.0432
1.99971
1.95268
1.90868
1.87306
1.84215
1.80534
1.76389
1.72645
1.6913
1.65946
1.62926
1.59651
1.56942
1.55024
1.52648
1.4979
1.46991
1.44712
1.42634
1.40448
1.3768
1.35181
1.3401
1.32892
1.317
1.3012
1.27944
1.25661
1.23514
1.21828
1.20485
1.19368
1.19512
1.22848
1.3359
1.52362
1.67501
1.78691
1.87565
1.91338
1.90723
1.89813
1.8726
1.8469
1.83488
1.82148
1.80476
1.7841
1.76657
1.75715
1.75396
1.75029
1.74248
1.73003
1.71567
1.70163
1.68751
1.67359
1.65977
1.64572
1.63566
1.62712
1.61812
1.61074
1.6033
1.59537
1.58771
1.57907
1.56817
1.55878
1.55241
1.54604
1.53756
1.52696
1.51601
1.50488
1.49302
1.48125
1.47035
1.46527
1.46627
1.48787
1.00018
1.0036
1.05044
1.22483
1.53903
1.84809
1.98501
2.10026
2.17705
2.14937
2.10921
2.0953
2.0787
2.05274
2.0125
1.9659
1.92136
1.88058
1.83836
1.79562
1.75203
1.71668
1.69449
1.67105
1.64218
1.6102
1.57592
1.54077
1.51047
1.48393
1.45724
1.43812
1.43
1.41745
1.39305
1.36062
1.32915
1.31124
1.30044
1.28794
1.26869
1.25282
1.24372
1.23149
1.21387
1.19713
1.19836
1.226
1.33786
1.50541
1.67959
1.80983
1.86068
1.89855
1.90944
1.89153
1.86148
1.84064
1.8281
1.81804
1.80674
1.78931
1.77201
1.76326
1.75688
1.74835
1.73671
1.7223
1.70763
1.69515
1.68368
1.67102
1.65929
1.6491
1.64013
1.6298
1.61937
1.61103
1.60315
1.5948
1.5871
1.58102
1.57407
1.5651
1.55644
1.54788
1.53815
1.52658
1.51441
1.5022
1.49077
1.47946
1.47094
1.46687
1.46767
1.48384
1.01035
1.08632
1.26213
1.44263
1.51522
1.66601
1.78266
1.95675
2.07558
2.11497
2.1156
2.10638
2.07594
2.03356
1.99552
1.9605
1.92431
1.88342
1.83794
1.79293
1.75313
1.71656
1.68055
1.64805
1.61886
1.59109
1.56383
1.53469
1.50468
1.47867
1.46021
1.44306
1.4204
1.39753
1.37858
1.3565
1.33103
1.30918
1.29463
1.284
1.27067
1.25201
1.23184
1.22076
1.21258
1.21661
1.26676
1.38016
1.50395
1.53674
1.596
1.68654
1.74106
1.81565
1.8524
1.86483
1.86336
1.85577
1.84034
1.82031
1.80343
1.79196
1.78427
1.77574
1.76495
1.75174
1.73757
1.72261
1.70733
1.69468
1.68485
1.67562
1.66661
1.65819
1.64865
1.63725
1.62552
1.61621
1.60792
1.59987
1.59178
1.58262
1.57271
1.5623
1.55246
1.54652
1.54032
1.53009
1.51547
1.50052
1.49239
1.48461
1.47905
1.47943
1.48578
1.52838
1.13877
1.33261
1.4759
1.5525
1.55738
1.56268
1.584
1.68145
1.87891
2.06449
2.12898
2.12005
2.07315
2.0199
1.98388
1.95392
1.91786
1.87416
1.82806
1.78482
1.74595
1.70957
1.67524
1.64426
1.61617
1.58949
1.56181
1.53315
1.50429
1.47709
1.45412
1.43409
1.41145
1.38672
1.37228
1.36171
1.34499
1.32218
1.30042
1.28101
1.26431
1.24808
1.23243
1.22703
1.24383
1.32912
1.45426
1.55304
1.586
1.57896
1.57006
1.57636
1.6008
1.66972
1.76222
1.83376
1.86696
1.86611
1.84987
1.82379
1.80265
1.79227
1.78353
1.77293
1.76118
1.74893
1.73654
1.72412
1.71067
1.69622
1.68217
1.67017
1.66107
1.65339
1.64524
1.63473
1.62197
1.61029
1.60088
1.59325
1.58661
1.58005
1.57359
1.56628
1.5568
1.54578
1.53543
1.52581
1.51462
1.50168
1.49196
1.48824
1.48987
1.50612
1.53778
1.59553
1.4089
1.49996
1.53829
1.56439
1.57337
1.57529
1.57567
1.57809
1.61825
1.78853
1.99384
2.05098
2.04325
2.0183
1.98233
1.9436
1.90206
1.85859
1.81674
1.77862
1.74252
1.70676
1.67304
1.64195
1.61259
1.58473
1.55801
1.53163
1.50425
1.4755
1.44679
1.4214
1.40228
1.38662
1.36792
1.34769
1.33238
1.31781
1.30023
1.28043
1.26502
1.25057
1.25226
1.29797
1.4095
1.53846
1.60163
1.6183
1.6145
1.59917
1.57638
1.56395
1.56466
1.57535
1.62121
1.70317
1.79168
1.8364
1.83284
1.82405
1.81659
1.80709
1.79176
1.77446
1.76146
1.75165
1.7412
1.7295
1.7162
1.70155
1.6879
1.67622
1.66643
1.65764
1.64844
1.63758
1.62505
1.61212
1.60096
1.59352
1.58795
1.58227
1.57532
1.56596
1.55542
1.54445
1.53461
1.52578
1.51777
1.50974
1.50009
1.50439
1.52914
1.5735
1.62048
1.65123
1.54124
1.55977
1.56995
1.57314
1.57314
1.57469
1.57453
1.57142
1.55815
1.56283
1.65587
1.83216
1.97934
2.00619
1.98451
1.9346
1.88632
1.84412
1.80644
1.77107
1.73686
1.70368
1.67163
1.64006
1.60967
1.58128
1.55376
1.5259
1.4976
1.46905
1.44361
1.42218
1.40145
1.38223
1.3641
1.34625
1.3297
1.31867
1.30516
1.29006
1.278
1.29362
1.37649
1.50907
1.61126
1.6538
1.65416
1.6433
1.62283
1.60249
1.58803
1.578
1.57055
1.56916
1.56995
1.58651
1.64434
1.73059
1.79679
1.82973
1.82812
1.81796
1.79882
1.78203
1.76968
1.76112
1.75008
1.7366
1.72221
1.70797
1.69482
1.68291
1.67203
1.66202
1.65192
1.64094
1.62916
1.61701
1.60646
1.59871
1.59199
1.58496
1.57589
1.56486
1.55484
1.54603
1.53789
1.53088
1.52452
1.51877
1.52537
1.55635
1.60201
1.64812
1.67659
1.67802
1.55788
1.56576
1.57223
1.57833
1.57957
1.57742
1.57293
1.56443
1.54446
1.5201
1.48987
1.52197
1.67869
1.85475
1.91805
1.90826
1.87455
1.83663
1.79987
1.76425
1.72993
1.69592
1.66234
1.62978
1.59912
1.57127
1.54549
1.51952
1.49324
1.46594
1.43985
1.4161
1.39451
1.37572
1.36283
1.35293
1.33799
1.32305
1.30634
1.30806
1.35378
1.47383
1.60324
1.67222
1.69162
1.68815
1.67385
1.65513
1.633
1.61322
1.6047
1.59772
1.58907
1.57799
1.57055
1.56235
1.5647
1.59086
1.6647
1.74333
1.79037
1.80012
1.79954
1.79499
1.78377
1.77118
1.75588
1.74097
1.72781
1.71555
1.70194
1.68819
1.67631
1.66628
1.65684
1.64673
1.63574
1.62526
1.61677
1.60745
1.59559
1.5845
1.57391
1.56446
1.55616
1.54933
1.54543
1.54172
1.54329
1.55499
1.5908
1.63045
1.66529
1.6921
1.70183
1.69635
1.58212
1.58025
1.58127
1.58317
1.58225
1.57798
1.56711
1.54736
1.51987
1.48597
1.45127
1.40798
1.41755
1.51818
1.69924
1.83168
1.84804
1.82784
1.79013
1.75066
1.7136
1.67928
1.64787
1.61865
1.59043
1.56337
1.53659
1.50827
1.48065
1.45421
1.43251
1.41448
1.39848
1.38283
1.3693
1.3531
1.34514
1.33293
1.34712
1.44237
1.58268
1.68648
1.71963
1.72671
1.71617
1.70141
1.68683
1.66984
1.64981
1.63214
1.62015
1.60879
1.59753
1.58544
1.57488
1.56313
1.55794
1.55144
1.55998
1.603
1.68029
1.74763
1.79706
1.79879
1.79345
1.77823
1.76155
1.74692
1.73312
1.71992
1.70476
1.6895
1.67865
1.6702
1.66208
1.65361
1.6453
1.63714
1.62634
1.60996
1.59283
1.58131
1.57248
1.56549
1.55998
1.55854
1.56084
1.57405
1.59742
1.63663
1.66938
1.68583
1.69838
1.7078
1.70645
1.69689
1.57919
1.57961
1.5806
1.58079
1.57905
1.56978
1.54905
1.5165
1.48521
1.4437
1.40429
1.36739
1.33808
1.32307
1.37957
1.54916
1.72099
1.77269
1.76024
1.72735
1.69067
1.65916
1.63141
1.60453
1.57713
1.55
1.52307
1.49762
1.47622
1.45726
1.43931
1.4238
1.40874
1.39047
1.37605
1.36097
1.36531
1.4158
1.551
1.6945
1.74899
1.7712
1.76715
1.74914
1.73043
1.71377
1.69898
1.68292
1.66417
1.64671
1.63254
1.61919
1.60632
1.59338
1.58101
1.56877
1.5575
1.54751
1.53863
1.53433
1.55298
1.61486
1.7045
1.76467
1.7763
1.77593
1.7704
1.75808
1.73958
1.72012
1.70327
1.6887
1.67956
1.67304
1.66642
1.65946
1.65314
1.64571
1.63157
1.60907
1.58937
1.57963
1.57408
1.57045
1.5708
1.57845
1.60765
1.65222
1.69346
1.71871
1.7217
1.71599
1.71019
1.70724
1.70414
1.69476
1.58045
1.58104
1.5814
1.58066
1.57315
1.55102
1.51766
1.48126
1.43729
1.38197
1.35223
1.33284
1.29256
1.24754
1.22201
1.25549
1.40163
1.59913
1.70114
1.69741
1.67279
1.63956
1.60948
1.58446
1.56173
1.54124
1.52014
1.49955
1.47879
1.46093
1.44248
1.43153
1.41733
1.40367
1.39241
1.41285
1.52203
1.67466
1.78466
1.80953
1.80205
1.78928
1.77333
1.75825
1.74238
1.72558
1.70813
1.69026
1.67318
1.65761
1.64342
1.62894
1.61392
1.59915
1.58648
1.57595
1.56449
1.55145
1.5358
1.52259
1.50961
1.51736
1.56366
1.64964
1.71843
1.76341
1.76927
1.76454
1.74359
1.7176
1.70027
1.68789
1.67953
1.67392
1.66839
1.66264
1.65684
1.64751
1.63018
1.60657
1.58917
1.58135
1.57982
1.58146
1.59627
1.64042
1.69717
1.74261
1.75747
1.75502
1.74094
1.7251
1.71478
1.70798
1.70372
1.69426
1.58357
1.58284
1.58047
1.57261
1.55033
1.51525
1.47353
1.42168
1.36793
1.33746
1.30611
1.26831
1.21127
1.18195
1.17631
1.15737
1.16692
1.2813
1.49195
1.61398
1.63722
1.6223
1.59722
1.57536
1.55681
1.54016
1.52206
1.50384
1.4853
1.4675
1.45256
1.44524
1.43177
1.43523
1.49289
1.65354
1.79499
1.85709
1.85856
1.84441
1.81967
1.7964
1.77844
1.76481
1.75138
1.73549
1.71492
1.69232
1.67461
1.66169
1.64982
1.63631
1.62115
1.60585
1.59185
1.58072
1.5691
1.55513
1.53727
1.51787
1.50303
1.4957
1.49798
1.5249
1.58875
1.67205
1.73322
1.74033
1.73136
1.7171
1.70336
1.69138
1.68179
1.67543
1.66848
1.66109
1.65314
1.64184
1.62552
1.60619
1.59114
1.58918
1.59359
1.61721
1.6694
1.72763
1.76782
1.78128
1.781
1.77241
1.75277
1.73162
1.71742
1.70763
1.70291
1.69426
1.57684
1.57415
1.56749
1.5465
1.51001
1.46171
1.40395
1.35839
1.31736
1.27621
1.2277
1.17896
1.15714
1.15018
1.13705
1.10084
1.07805
1.08843
1.17782
1.37672
1.53963
1.59769
1.59409
1.57864
1.56065
1.54488
1.52949
1.5139
1.49984
1.48316
1.4727
1.46556
1.48793
1.60448
1.77123
1.89788
1.90169
1.88969
1.86638
1.84232
1.82337
1.80533
1.78891
1.77427
1.75846
1.7393
1.71464
1.69144
1.67547
1.66329
1.65216
1.63974
1.62624
1.61475
1.60337
1.59111
1.57768
1.56274
1.54378
1.51989
1.5002
1.48989
1.48513
1.4853
1.49703
1.54117
1.62064
1.67887
1.70192
1.7099
1.70777
1.69972
1.68788
1.67726
1.66778
1.65857
1.64826
1.63368
1.62126
1.6065
1.60484
1.61544
1.6483
1.70276
1.75097
1.77779
1.7845
1.78417
1.77993
1.76915
1.75228
1.73511
1.72152
1.70987
1.70276
1.69321
1.56497
1.55974
1.54117
1.50476
1.44776
1.389
1.34446
1.29476
1.23838
1.19598
1.15732
1.1227
1.10981
1.09855
1.07611
1.04899
1.04344
1.04002
1.04541
1.1196
1.31913
1.52331
1.58204
1.57891
1.57247
1.56239
1.54841
1.5335
1.52241
1.50823
1.51183
1.56868
1.72979
1.87681
1.94662
1.94651
1.92706
1.89322
1.86232
1.84074
1.82337
1.8119
1.80201
1.78567
1.76206
1.73644
1.71251
1.69444
1.68016
1.66633
1.6523
1.63909
1.62705
1.61338
1.59741
1.5813
1.56608
1.55214
1.54053
1.52682
1.50963
1.49237
1.48181
1.47654
1.47537
1.48194
1.50462
1.55648
1.61711
1.66598
1.68793
1.68621
1.67856
1.67021
1.65996
1.64789
1.63728
1.62866
1.62309
1.6294
1.65468
1.69812
1.75101
1.78454
1.79327
1.79436
1.78819
1.77748
1.76692
1.75616
1.74538
1.73564
1.72652
1.71526
1.70487
1.69269
1.55371
1.53602
1.49975
1.44007
1.36935
1.3209
1.26767
1.20287
1.16867
1.1406
1.09171
1.07561
1.07218
1.06254
1.0462
1.04212
1.04062
1.03768
1.03878
1.04557
1.10531
1.30334
1.51203
1.56767
1.58019
1.57954
1.57026
1.55637
1.54679
1.56481
1.66844
1.84682
1.97237
1.97163
1.96443
1.94081
1.91674
1.89397
1.87405
1.85599
1.83604
1.81645
1.79578
1.77494
1.75319
1.73149
1.71103
1.69478
1.68292
1.67202
1.6611
1.64969
1.63642
1.61935
1.59747
1.57754
1.5622
1.54946
1.53786
1.52704
1.51556
1.50161
1.49075
1.48251
1.47329
1.46493
1.45622
1.46329
1.49979
1.56603
1.63168
1.66538
1.66961
1.66543
1.6547
1.63854
1.63044
1.63301
1.6542
1.69964
1.75056
1.79461
1.81399
1.81193
1.8004
1.7885
1.77688
1.76754
1.75879
1.75181
1.74512
1.73771
1.73035
1.72043
1.71069
1.69713
1.53397
1.49344
1.43062
1.34749
1.28502
1.23128
1.16624
1.12274
1.09826
1.06741
1.04342
1.04454
1.04379
1.03949
1.03939
1.04271
1.04858
1.05578
1.06019
1.06394
1.07226
1.1152
1.29609
1.48871
1.57393
1.58406
1.58434
1.58946
1.62895
1.76798
1.94058
2.01727
2.02619
2.00256
1.96104
1.93014
1.91145
1.89428
1.87519
1.85362
1.8318
1.81097
1.79082
1.77076
1.75038
1.73075
1.7132
1.70011
1.68868
1.67564
1.66062
1.6439
1.62691
1.61021
1.5923
1.57509
1.56169
1.55074
1.54123
1.53195
1.5222
1.51153
1.49837
1.48192
1.46763
1.45619
1.44494
1.44154
1.44411
1.46683
1.52649
1.59022
1.64224
1.65028
1.64276
1.63744
1.64455
1.67351
1.72935
1.79214
1.82302
1.83675
1.83613
1.82663
1.80582
1.78517
1.76695
1.75711
1.75087
1.74516
1.73978
1.73465
1.72922
1.7218
1.71032
1.69118
1.49443
1.41526
1.30959
1.23266
1.19772
1.14039
1.07541
1.07259
1.06836
1.05927
1.05521
1.05955
1.06044
1.05932
1.06132
1.06952
1.07953
1.08726
1.08969
1.09203
1.09042
1.09141
1.1171
1.26969
1.47507
1.55592
1.63276
1.72504
1.8642
1.97491
2.0447
2.03721
2.01038
1.98154
1.96004
1.94026
1.92128
1.90211
1.88218
1.86004
1.83473
1.81015
1.78971
1.77316
1.75728
1.74221
1.72916
1.71667
1.7024
1.6859
1.66807
1.64875
1.62719
1.60709
1.59247
1.58094
1.57143
1.56362
1.55626
1.54804
1.53864
1.52676
1.51041
1.48861
1.46606
1.4526
1.44363
1.43714
1.43218
1.4343
1.45189
1.49369
1.55559
1.60774
1.63407
1.6718
1.7212
1.75587
1.80089
1.83226
1.84583
1.84387
1.83417
1.81875
1.80139
1.78265
1.76329
1.75332
1.74852
1.74505
1.74349
1.74054
1.73551
1.7283
1.71611
1.68897
1.39631
1.22875
1.09042
1.0334
1.01048
0.978299
0.974721
1.00173
1.03772
1.05456
1.0736
1.10064
1.10425
1.10097
1.09994
1.10442
1.11171
1.11699
1.11772
1.11763
1.11476
1.10472
1.10353
1.1241
1.25293
1.5203
1.76697
1.98198
2.13479
2.18267
2.13694
2.05709
1.9959
1.9699
1.95246
1.93545
1.91714
1.89702
1.87638
1.85407
1.82929
1.80404
1.78168
1.76329
1.74775
1.73391
1.72143
1.70898
1.69476
1.67834
1.66083
1.64192
1.61964
1.5976