/*--------------------------------*- C++ -*----------------------------------*\
  =========                 |
  \\      /  F ield         | OpenFOAM: The Open Source CFD Toolbox
   \\    /   O peration     | Website:  https://openfoam.org
    \\  /    A nd           | Version:  7
     \\/     M anipulation  |
\*---------------------------------------------------------------------------*/
FoamFile
{
    version     2.0;
    format      ascii;
    class       volVectorField;
    location    "3.9";
    object      U;
}
// * * * * * * * * * * * * * * * * * * * * * * * * * * * * * * * * * * * * * //

dimensions      [0 1 -1 0 0 0 0];

internalField   nonuniform List<vector> 
4608
(
(3 -1.78753e-18 0)
(3 -7.30782e-17 0)
(3 1.63588e-16 0)
(3 6.18393e-16 0)
(3 5.90309e-16 0)
(3 5.8148e-16 0)
(3 2.93597e-16 0)
(3 2.95155e-16 0)
(3 -1.66975e-17 0)
(3 -3.2552e-16 0)
(3 -6.92066e-16 0)
(3 -7.89205e-16 0)
(3 -7.3734e-16 0)
(3 -2.4615e-16 0)
(3 1.23747e-16 0)
(3 3.73756e-16 0)
(3 -2.86781e-16 0)
(3 -1.98591e-16 0)
(3 2.99804e-16 0)
(3 2.96642e-16 0)
(3 2.09034e-16 0)
(3 -1.54539e-16 0)
(3 -6.60507e-16 0)
(3 -6.71765e-16 0)
(3 2.94067e-17 0)
(3 -1.06124e-16 0)
(3 5.44827e-16 0)
(3 1.04848e-15 0)
(3 7.33264e-16 0)
(3 4.79681e-16 0)
(3 1.4064e-16 0)
(3 1.21297e-16 0)
(3 1.33982e-16 0)
(3 -7.3813e-16 0)
(3 -1.48304e-15 0)
(3 -1.35684e-15 0)
(3 -7.05896e-16 0)
(3 8.81171e-16 0)
(3 1.9395e-15 0)
(3 1.7801e-15 0)
(3 -7.61701e-17 0)
(3 -3.85843e-16 0)
(3 1.3065e-16 0)
(3 2.67524e-17 0)
(3 -6.4384e-16 0)
(3 -7.76935e-16 0)
(3 -1.82836e-16 0)
(3 -1.19528e-15 0)
(3 -2.47788e-16 0)
(3 -4.0854e-16 0)
(3 -1.60026e-16 0)
(3 -2.52705e-16 0)
(3 -4.99884e-16 0)
(3 -4.89601e-16 0)
(3 4.159e-17 0)
(3 4.13489e-16 0)
(3 8.06649e-16 0)
(3 4.24622e-17 0)
(3 -6.69813e-16 0)
(3 -1.18931e-15 0)
(3 -7.02742e-16 0)
(3 -2.59815e-16 0)
(3 1.49047e-15 0)
(3 1.95217e-15 0)
(3 1.12409e-15 0)
(3 4.89551e-18 0)
(3 -2.89042e-16 0)
(3 -7.28796e-16 0)
(3 -7.2036e-16 0)
(3 -9.51648e-17 0)
(3 4.45025e-16 0)
(3 1.40486e-16 0)
(3 -9.80815e-17 0)
(3 -5.29282e-16 0)
(3 -1.17916e-15 0)
(3 -1.38215e-15 0)
(3 -9.02158e-16 0)
(3 9.99058e-17 0)
(3 1.27994e-16 0)
(3 3.74933e-16 0)
(3 5.59096e-16 0)
(3 1.34125e-16 0)
(3 1.00354e-16 0)
(3 6.75518e-16 0)
(3 5.34281e-16 0)
(3 -2.11707e-17 0)
(3 1.49121e-16 0)
(3 1.27233e-15 0)
(3 1.1779e-15 0)
(3 6.07092e-16 0)
(3 1.98986e-16 0)
(3 -3.75254e-16 0)
(3 -2.91043e-16 0)
(3 -1.26897e-16 0)
(3 -5.59608e-16 0)
(3 -5.09753e-16 0)
(3 1.10067e-16 0)
(3 -1.99822e-16 0)
(3 -4.12308e-16 0)
(3 -1.10331e-16 0)
(3 4.42573e-16 0)
(3 2.56052e-16 0)
(3 -2.8399e-17 0)
(3 -3.85198e-16 0)
(3 -2.32898e-16 0)
(3 5.01187e-16 0)
(3 1.16845e-15 0)
(3 1.25597e-15 0)
(3 5.48607e-16 0)
(3 3.36595e-16 0)
(3 3.66304e-16 0)
(3 4.46231e-16 0)
(3 1.48741e-15 0)
(3 1.20815e-15 0)
(3 2.08476e-16 0)
(3 1.10297e-16 0)
(3 -5.89999e-16 0)
(3 -1.06793e-15 0)
(3 -1.94639e-16 0)
(3 -1.7597e-15 0)
(3 1.67609e-16 0)
(3 1.37409e-16 0)
(3 -5.2014e-17 0)
(3 -4.94292e-17 0)
(3 5.22054e-17 0)
(3 -4.31176e-17 0)
(3 6.6465e-17 0)
(3 3.63481e-18 0)
(3 7.64566e-16 0)
(3 1.50534e-15 0)
(3 1.56368e-15 0)
(3 5.30972e-16 0)
(3 6.94033e-16 0)
(3 8.53004e-16 0)
(3 7.52094e-16 0)
(3 1.21647e-15 0)
(3 1.25835e-15 0)
(3 -1.01116e-16 0)
(3 -9.88471e-16 0)
(3 -4.38224e-16 0)
(3 -1.36973e-15 0)
(3 -2.5698e-15 0)
(3 -2.30175e-15 0)
(3 -2.10353e-15 0)
(3 7.51699e-18 0)
(3 2.96341e-17 0)
(3 -2.82318e-17 0)
(3 -4.37703e-16 0)
(3 -1.10433e-15 0)
(3 -8.06368e-16 0)
(3 -5.21774e-17 0)
(3 4.48212e-16 0)
(3 6.68429e-16 0)
(3 6.26148e-16 0)
(3 2.37924e-16 0)
(3 2.97484e-16 0)
(3 7.5614e-16 0)
(3 2.53968e-16 0)
(3 1.24127e-17 0)
(3 6.33726e-16 0)
(3 -1.3105e-17 0)
(3 -1.18097e-15 0)
(3 -1.26391e-15 0)
(3 -1.52525e-15 0)
(3 -2.40253e-15 0)
(3 -3.16219e-15 0)
(3 -2.54129e-15 0)
(3 -8.82374e-16 0)
(3 -6.0387e-17 0)
(3 2.58252e-16 0)
(3 4.6224e-16 0)
(3 2.90703e-16 0)
(3 1.91121e-16 0)
(3 8.71292e-17 0)
(3 -8.48354e-17 0)
(3 6.30753e-17 0)
(3 -7.89063e-17 0)
(3 -1.41706e-16 0)
(3 -3.94925e-16 0)
(3 2.54894e-16 0)
(3 5.44952e-16 0)
(3 -5.52901e-16 0)
(3 -6.17906e-16 0)
(3 -1.1161e-15 0)
(3 -1.8436e-15 0)
(3 -9.30328e-16 0)
(3 -1.13952e-15 0)
(3 -2.00957e-15 0)
(3 -2.03702e-15 0)
(3 -1.93949e-15 0)
(3 -1.73647e-15 0)
(3 -1.26067e-15 0)
(3 8.57534e-17 0)
(3 8.27935e-17 0)
(3 2.75958e-16 0)
(3 3.80028e-16 0)
(3 4.9736e-16 0)
(3 2.86286e-16 0)
(3 9.68798e-17 0)
(3 -9.37852e-16 0)
(3 -1.32515e-15 0)
(3 -7.10437e-16 0)
(3 2.11205e-16 0)
(3 8.07223e-16 0)
(3 2.21993e-16 0)
(3 -2.80598e-16 0)
(3 -9.95858e-16 0)
(3 -1.99718e-15 0)
(3 -1.69455e-15 0)
(3 -9.66586e-16 0)
(3 -1.16282e-15 0)
(3 -1.32051e-15 0)
(3 -6.61423e-16 0)
(3 -1.50214e-16 0)
(3 -8.17137e-16 0)
(3 -2.75416e-15 0)
(3 -2.12476e-16 0)
(3 -2.30711e-16 0)
(3 -1.12497e-17 0)
(3 7.85927e-17 0)
(3 -1.11855e-16 0)
(3 -4.30879e-16 0)
(3 -7.41352e-16 0)
(3 -1.38383e-15 0)
(3 -1.20427e-15 0)
(3 -6.88609e-16 0)
(3 -3.22254e-16 0)
(3 -4.58657e-17 0)
(3 -4.98445e-16 0)
(3 -5.77859e-16 0)
(3 -6.5419e-16 0)
(3 -6.39083e-16 0)
(3 -6.3951e-16 0)
(3 -8.00692e-16 0)
(3 -8.86358e-16 0)
(3 -4.07278e-16 0)
(3 1.7168e-16 0)
(3 -1.67922e-16 0)
(3 -9.30813e-16 0)
(3 -2.1913e-15 0)
(3 5.3822e-17 0)
(3 3.0516e-16 0)
(3 8.98703e-17 0)
(3 1.6631e-16 0)
(3 -1.15426e-16 0)
(3 -1.68577e-16 0)
(3 -1.89206e-17 0)
(3 3.15567e-16 0)
(3 9.03198e-16 0)
(3 5.54596e-16 0)
(3 1.70115e-16 0)
(3 -8.7201e-16 0)
(3 -1.13826e-15 0)
(3 -1.13959e-15 0)
(3 -8.10012e-16 0)
(3 -3.13537e-16 0)
(3 1.55196e-16 0)
(3 9.46315e-17 0)
(3 -6.72643e-16 0)
(3 1.53352e-16 0)
(3 3.64184e-16 0)
(3 -2.26263e-16 0)
(3 -1.01386e-15 0)
(3 -1.37816e-15 0)
(3 1.68409e-16 0)
(3 6.67882e-17 0)
(3 -4.26174e-16 0)
(3 -5.98979e-16 0)
(3 -6.16876e-16 0)
(3 -5.42679e-16 0)
(3 -3.27794e-16 0)
(3 2.26069e-16 0)
(3 1.0823e-16 0)
(3 9.90237e-17 0)
(3 -1.91184e-16 0)
(3 -7.35259e-16 0)
(3 -4.9299e-16 0)
(3 -4.80155e-16 0)
(3 -6.26572e-16 0)
(3 -1.28892e-17 0)
(3 7.29435e-16 0)
(3 6.62961e-16 0)
(3 -7.99055e-16 0)
(3 -1.71294e-15 0)
(3 -1.96087e-15 0)
(3 -1.64369e-15 0)
(3 -1.4993e-15 0)
(3 -1.83916e-15 0)
(3 -9.79174e-18 0)
(3 -1.12449e-17 0)
(3 5.38831e-17 0)
(3 -4.13665e-16 0)
(3 -6.66982e-16 0)
(3 -6.39923e-16 0)
(3 -8.67912e-16 0)
(3 -1.43612e-15 0)
(3 -1.3083e-15 0)
(3 -7.6146e-16 0)
(3 -6.29978e-16 0)
(3 -3.74852e-16 0)
(3 -1.1179e-16 0)
(3 -1.43527e-17 0)
(3 5.81962e-17 0)
(3 -1.56877e-16 0)
(3 1.77724e-17 0)
(3 -9.65255e-16 0)
(3 -2.27517e-15 0)
(3 -2.90237e-15 0)
(3 -2.92079e-15 0)
(3 -2.06787e-15 0)
(3 -1.624e-15 0)
(3 -1.48651e-15 0)
(3 -5.23299e-17 0)
(3 3.92047e-16 0)
(3 4.3613e-16 0)
(3 1.24391e-16 0)
(3 2.54271e-16 0)
(3 4.62975e-16 0)
(3 4.70615e-16 0)
(3 -1.5167e-16 0)
(3 4.66e-16 0)
(3 4.59083e-16 0)
(3 7.35634e-16 0)
(3 3.89251e-16 0)
(3 -3.27629e-16 0)
(3 4.57622e-17 0)
(3 -7.87541e-17 0)
(3 -7.10884e-16 0)
(3 -1.42378e-15 0)
(3 -1.40109e-15 0)
(3 -1.05303e-15 0)
(3 -7.15856e-16 0)
(3 -8.25808e-17 0)
(3 -2.7702e-16 0)
(3 4.32063e-17 0)
(3 6.73141e-16 0)
(3 -3.94529e-17 0)
(3 1.83082e-16 0)
(3 7.65632e-17 0)
(3 4.64329e-16 0)
(3 6.06827e-16 0)
(3 8.57551e-16 0)
(3 1.09482e-15 0)
(3 1.67978e-15 0)
(3 1.44564e-15 0)
(3 1.57673e-15 0)
(3 1.82126e-15 0)
(3 6.43168e-16 0)
(3 2.59458e-16 0)
(3 -1.609e-16 0)
(3 -6.00552e-16 0)
(3 -9.89142e-16 0)
(3 -1.09317e-15 0)
(3 -7.85164e-16 0)
(3 2.36623e-16 0)
(3 5.92197e-16 0)
(3 1.63407e-15 0)
(3 2.0143e-15 0)
(3 1.3825e-15 0)
(3 9.39802e-16 0)
(3 1.38745e-16 0)
(3 -1.35118e-16 0)
(3 5.30145e-16 0)
(3 1.29327e-15 0)
(3 1.37127e-15 0)
(3 1.18047e-15 0)
(3 1.10919e-15 0)
(3 1.36764e-15 0)
(3 1.13685e-15 0)
(3 4.58653e-16 0)
(3 1.69846e-16 0)
(3 -6.02334e-16 0)
(3 -5.42419e-16 0)
(3 -9.08989e-16 0)
(3 -1.0728e-15 0)
(3 -1.92379e-15 0)
(3 -1.92269e-15 0)
(3 3.64823e-17 0)
(3 7.26947e-16 0)
(3 2.4027e-15 0)
(3 2.78454e-15 0)
(3 3.02291e-15 0)
(3 2.37321e-15 0)
(3 2.03379e-15 0)
(3 2.07957e-17 0)
(3 -2.4e-16 0)
(3 -2.12265e-16 0)
(3 -1.89433e-16 0)
(3 7.06145e-16 0)
(3 1.00075e-15 0)
(3 8.90671e-16 0)
(3 6.61976e-16 0)
(3 5.59591e-16 0)
(3 -5.45643e-16 0)
(3 -1.32509e-15 0)
(3 -1.85061e-15 0)
(3 -2.65898e-15 0)
(3 -1.91591e-15 0)
(3 -1.34502e-15 0)
(3 -1.86755e-15 0)
(3 -2.41533e-15 0)
(3 -2.07448e-15 0)
(3 -3.18034e-16 0)
(3 1.79911e-15 0)
(3 2.23243e-15 0)
(3 2.26802e-15 0)
(3 2.00124e-15 0)
(3 3.3953e-15 0)
(3 -4.81121e-17 0)
(3 -3.21126e-16 0)
(3 -7.2522e-16 0)
(3 -1.13594e-15 0)
(3 -9.26993e-16 0)
(3 -2.09807e-16 0)
(3 6.18655e-16 0)
(3 5.49488e-16 0)
(3 -5.25268e-16 0)
(3 -1.32452e-15 0)
(3 -2.17125e-15 0)
(3 -1.47951e-15 0)
(3 -1.77097e-15 0)
(3 -1.52027e-15 0)
(3 -1.42066e-15 0)
(3 -6.57814e-16 0)
(3 -2.92909e-16 0)
(3 -6.18359e-16 0)
(3 -4.20698e-16 0)
(3 -5.62017e-16 0)
(3 -5.15016e-16 0)
(3 9.218e-16 0)
(3 1.65079e-15 0)
(3 2.66269e-15 0)
(3 -1.01182e-17 0)
(3 9.78282e-18 0)
(3 2.39799e-16 0)
(3 5.18982e-18 0)
(3 -1.40712e-16 0)
(3 -3.40259e-16 0)
(3 -8.93893e-17 0)
(3 -8.57488e-16 0)
(3 -1.03221e-15 0)
(3 -1.26745e-15 0)
(3 -9.14834e-16 0)
(3 1.64876e-16 0)
(3 1.01714e-16 0)
(3 -3.00264e-16 0)
(3 -6.20931e-16 0)
(3 -2.66343e-16 0)
(3 1.29723e-15 0)
(3 1.4714e-15 0)
(3 3.18059e-16 0)
(3 1.88823e-16 0)
(3 2.97379e-16 0)
(3 8.14091e-16 0)
(3 1.45409e-15 0)
(3 1.26332e-15 0)
(3 4.63311e-17 0)
(3 3.8061e-16 0)
(3 8.45529e-16 0)
(3 6.57782e-16 0)
(3 6.88004e-17 0)
(3 -6.51404e-16 0)
(3 -1.31269e-15 0)
(3 -1.80678e-15 0)
(3 -1.53206e-15 0)
(3 -5.66999e-16 0)
(3 9.40552e-16 0)
(3 8.29257e-16 0)
(3 9.4195e-16 0)
(3 6.97924e-16 0)
(3 5.27943e-16 0)
(3 5.12571e-16 0)
(3 5.61269e-16 0)
(3 9.99326e-16 0)
(3 9.89869e-16 0)
(3 8.05171e-16 0)
(3 1.21207e-15 0)
(3 1.00545e-15 0)
(3 2.70299e-16 0)
(3 3.51486e-17 0)
(3 -1.68299e-16 0)
(3 -1.21928e-16 0)
(3 2.29906e-17 0)
(3 7.17844e-17 0)
(3 -4.84143e-16 0)
(3 -8.78836e-16 0)
(3 -6.23424e-16 0)
(3 -1.5154e-16 0)
(3 1.2259e-16 0)
(3 2.76337e-16 0)
(3 3.171e-16 0)
(3 4.75955e-16 0)
(3 1.26855e-15 0)
(3 1.82282e-15 0)
(3 2.27577e-15 0)
(3 2.58445e-15 0)
(3 1.58191e-15 0)
(3 1.45964e-15 0)
(3 9.5775e-16 0)
(3 -4.97921e-16 0)
(3 -5.68427e-16 0)
(3 -2.78284e-16 0)
(3 -7.67252e-16 0)
(3 -1.23159e-15 0)
(3 -3.86651e-16 0)
(3 -7.10745e-16 0)
(3 -7.37099e-16 0)
(3 -6.01398e-16 0)
(3 -6.8712e-16 0)
(3 -4.6258e-16 0)
(3 2.698e-16 0)
(3 6.1561e-16 0)
(3 6.22643e-16 0)
(3 5.45957e-16 0)
(3 7.01519e-16 0)
(3 1.06678e-15 0)
(3 1.42662e-15 0)
(3 2.14389e-15 0)
(3 2.17192e-15 0)
(3 1.5482e-15 0)
(3 1.03887e-15 0)
(3 5.03828e-16 0)
(3 3.18142e-16 0)
(3 -6.13783e-16 0)
(3 -2.06522e-15 0)
(3 -2.05625e-15 0)
(3 -2.21506e-15 0)
(3 -2.21298e-15 0)
(3 -1.17515e-16 0)
(3 -3.2621e-16 0)
(3 -9.18545e-16 0)
(3 -1.00973e-15 0)
(3 -7.19703e-16 0)
(3 -6.83085e-16 0)
(3 -6.48676e-16 0)
(3 -3.19345e-16 0)
(3 2.67797e-17 0)
(3 1.79434e-16 0)
(3 6.14004e-16 0)
(3 7.33483e-16 0)
(3 7.6624e-16 0)
(3 7.29318e-16 0)
(3 5.45737e-16 0)
(3 7.63643e-16 0)
(3 1.0905e-15 0)
(3 1.74181e-16 0)
(3 -1.15314e-16 0)
(3 2.75376e-17 0)
(3 -3.16388e-16 0)
(3 -7.0343e-16 0)
(3 -1.20078e-15 0)
(3 -1.23381e-15 0)
(3 5.02697e-17 0)
(3 -2.90035e-17 0)
(3 4.79626e-17 0)
(3 3.00502e-17 0)
(3 -7.05125e-17 0)
(3 -2.67413e-16 0)
(3 -9.13138e-16 0)
(3 -9.01124e-16 0)
(3 -1.4522e-16 0)
(3 6.24312e-17 0)
(3 9.57251e-17 0)
(3 5.22358e-16 0)
(3 9.24885e-16 0)
(3 2.1351e-16 0)
(3 1.61791e-16 0)
(3 1.21193e-15 0)
(3 1.42608e-15 0)
(3 7.62899e-16 0)
(3 3.55161e-16 0)
(3 1.01974e-15 0)
(3 9.83148e-16 0)
(3 2.57405e-16 0)
(3 -7.33196e-16 0)
(3 -1.81719e-15 0)
(3 3.44304e-16 0)
(3 6.10405e-16 0)
(3 7.13592e-16 0)
(3 1.07097e-15 0)
(3 1.01488e-15 0)
(3 1.23403e-15 0)
(3 1.10246e-15 0)
(3 5.76112e-16 0)
(3 3.36866e-16 0)
(3 3.49757e-16 0)
(3 2.92093e-16 0)
(3 1.74812e-16 0)
(3 1.84839e-16 0)
(3 1.56311e-16 0)
(3 1.81402e-17 0)
(3 -4.52266e-16 0)
(3 -4.1668e-16 0)
(3 4.02511e-16 0)
(3 7.99136e-16 0)
(3 6.94549e-16 0)
(3 1.57424e-16 0)
(3 -1.809e-15 0)
(3 -2.35001e-15 0)
(3 -2.22111e-15 0)
(3 2.27039e-16 0)
(3 6.40343e-16 0)
(3 7.96528e-16 0)
(3 1.14634e-15 0)
(3 1.36568e-15 0)
(3 1.33109e-15 0)
(3 1.81475e-15 0)
(3 1.55718e-15 0)
(3 1.48883e-15 0)
(3 1.21695e-15 0)
(3 1.52674e-15 0)
(3 9.66151e-16 0)
(3 9.37073e-17 0)
(3 1.58144e-16 0)
(3 -4.46929e-16 0)
(3 -8.43303e-16 0)
(3 -1.84719e-16 0)
(3 1.5757e-15 0)
(3 2.20212e-15 0)
(3 1.2354e-15 0)
(3 1.50489e-16 0)
(3 -3.71245e-16 0)
(3 -3.46105e-16 0)
(3 -7.95632e-16 0)
(3 2.7525e-17 0)
(3 8.19687e-17 0)
(3 5.05017e-16 0)
(3 -8.55817e-17 0)
(3 8.9116e-17 0)
(3 2.24519e-16 0)
(3 4.28537e-16 0)
(3 7.31141e-16 0)
(3 5.69724e-16 0)
(3 1.35204e-15 0)
(3 1.06609e-15 0)
(3 7.84173e-16 0)
(3 3.00986e-16 0)
(3 2.96009e-16 0)
(3 -2.40668e-17 0)
(3 7.67128e-17 0)
(3 1.35854e-15 0)
(3 2.08761e-15 0)
(3 2.10213e-15 0)
(3 1.29142e-15 0)
(3 4.81395e-16 0)
(3 4.6385e-16 0)
(3 1.38263e-16 0)
(3 1.12761e-15 0)
(3 2.56855e-17 0)
(3 3.64847e-17 0)
(3 -5.80894e-18 0)
(3 -2.69586e-16 0)
(3 -1.45142e-16 0)
(3 -1.38167e-16 0)
(3 -3.93883e-16 0)
(3 -3.45639e-16 0)
(3 -5.08984e-16 0)
(3 -6.45168e-16 0)
(3 -7.0017e-16 0)
(3 -4.08738e-16 0)
(3 1.34867e-16 0)
(3 2.4188e-16 0)
(3 1.45846e-16 0)
(3 2.14395e-16 0)
(3 5.02305e-16 0)
(3 6.04886e-16 0)
(3 -5.69357e-16 0)
(3 -5.21894e-16 0)
(3 4.27735e-16 0)
(3 1.12087e-15 0)
(3 1.66441e-15 0)
(3 1.74039e-15 0)
(3 -1.22458e-16 0)
(3 -3.89096e-16 0)
(3 -8.50912e-16 0)
(3 -6.00956e-16 0)
(3 -6.88583e-16 0)
(3 -1.13152e-15 0)
(3 -1.28398e-15 0)
(3 -1.43483e-15 0)
(3 -7.94809e-16 0)
(3 -1.02932e-15 0)
(3 -7.19551e-17 0)
(3 -1.33942e-16 0)
(3 6.97827e-17 0)
(3 2.02993e-16 0)
(3 -3.574e-16 0)
(3 -8.77401e-16 0)
(3 -1.27374e-15 0)
(3 -1.29025e-15 0)
(3 -1.01041e-15 0)
(3 -1.57023e-15 0)
(3 -3.97288e-17 0)
(3 1.77036e-15 0)
(3 2.73958e-15 0)
(3 1.17176e-15 0)
(3 -6.88433e-17 0)
(3 1.45292e-16 0)
(3 -9.88454e-17 0)
(3 -4.43543e-16 0)
(3 -8.2093e-16 0)
(3 -6.3805e-16 0)
(3 -1.13941e-15 0)
(3 -1.474e-15 0)
(3 -1.21514e-15 0)
(3 -7.01546e-16 0)
(3 -5.28805e-16 0)
(3 -1.17063e-15 0)
(3 -1.929e-15 0)
(3 -1.96615e-15 0)
(3 -9.93633e-16 0)
(3 -6.66263e-16 0)
(3 -6.69363e-16 0)
(3 -1.77662e-15 0)
(3 -1.5835e-15 0)
(3 -6.90241e-16 0)
(3 -3.24109e-16 0)
(3 7.42038e-16 0)
(3 1.65771e-15 0)
(3 1.33928e-15 0)
(3 1.75464e-16 0)
(3 4.05007e-16 0)
(3 1.97385e-16 0)
(3 4.93787e-16 0)
(3 7.37591e-16 0)
(3 7.77619e-16 0)
(3 5.99191e-16 0)
(3 -3.14068e-16 0)
(3 -1.10114e-15 0)
(3 -7.51802e-16 0)
(3 -5.8631e-16 0)
(3 -1.07147e-15 0)
(3 -1.79991e-15 0)
(3 -8.80196e-16 0)
(3 1.15834e-16 0)
(3 6.66761e-16 0)
(3 1.72991e-16 0)
(3 -1.17463e-15 0)
(3 -2.02362e-15 0)
(3 -1.44224e-15 0)
(3 -4.10254e-16 0)
(3 9.99258e-16 0)
(3 1.92931e-15 0)
(3 3.27253e-15 0)
(3 3.73404e-17 0)
(3 -2.7072e-17 0)
(3 -2.71819e-17 0)
(3 3.33165e-16 0)
(3 6.86686e-16 0)
(3 6.02187e-16 0)
(3 7.3483e-16 0)
(3 3.07561e-16 0)
(3 -4.92365e-16 0)
(3 -6.62651e-17 0)
(3 9.36905e-18 0)
(3 -4.51461e-17 0)
(3 -4.19383e-16 0)
(3 5.02413e-17 0)
(3 5.60762e-16 0)
(3 5.05174e-16 0)
(3 -3.2636e-16 0)
(3 -1.06652e-15 0)
(3 -1.42845e-15 0)
(3 -2.00395e-15 0)
(3 -4.39061e-16 0)
(3 2.34554e-17 0)
(3 2.65885e-16 0)
(3 1.96342e-16 0)
(2.93398 0.00864408 0)
(2.84621 0.0690841 0)
(2.75056 0.16411 0)
(2.68386 0.218011 0)
(2.56337 0.366833 0)
(2.51185 0.437886 0)
(2.4186 0.54369 0)
(2.35177 0.6281 0)
(2.31429 0.724138 0)
(2.2559 0.798211 0)
(2.24562 0.85363 0)
(2.28135 0.883829 0)
(2.32959 0.895981 0)
(2.33739 0.887436 0)
(2.34525 0.883216 0)
(2.34704 0.868423 0)
(2.34922 0.855911 0)
(2.34604 0.851127 0)
(2.33968 0.847804 0)
(2.33871 0.847655 0)
(2.34272 0.849321 0)
(2.34328 0.849257 0)
(2.34208 0.84901 0)
(2.33885 0.84966 0)
(2.99895 0.000994922 0)
(2.98948 0.0119888 0)
(2.95898 0.0525697 0)
(2.90627 0.128872 0)
(2.79689 0.279449 0)
(2.69144 0.456306 0)
(2.52175 0.691314 0)
(2.38835 0.900152 0)
(2.2321 1.0615 0)
(2.16752 1.10693 0)
(2.13859 1.04193 0)
(2.1957 0.994472 0)
(2.24748 0.943211 0)
(2.2919 0.902862 0)
(2.33368 0.859483 0)
(2.34873 0.823734 0)
(2.35892 0.828511 0)
(2.35913 0.836689 0)
(2.35329 0.840801 0)
(2.35019 0.841715 0)
(2.34912 0.843008 0)
(2.34944 0.844798 0)
(2.34576 0.84496 0)
(2.34158 0.84643 0)
(3 -1.30413e-06 0)
(3.00001 -3.27306e-05 0)
(2.99993 0.000120152 0)
(2.99996 5.65253e-05 0)
(2.99853 0.00202404 0)
(2.99188 0.0118851 0)
(2.9649 0.0538989 0)
(2.89785 0.175234 0)
(2.78609 0.398187 0)
(2.56566 0.729631 0)
(2.46193 0.84696 0)
(2.33884 0.928228 0)
(2.29434 0.913575 0)
(2.29487 0.899394 0)
(2.30816 0.889568 0)
(2.34119 0.870733 0)
(2.36066 0.860984 0)
(2.36187 0.851864 0)
(2.36137 0.841261 0)
(2.35881 0.841937 0)
(2.35507 0.8432 0)
(2.35284 0.844438 0)
(2.3508 0.845705 0)
(2.34609 0.846666 0)
(3 -6.9235e-08 0)
(3 -5.44771e-07 0)
(3 -3.00186e-07 0)
(3 -5.12824e-07 0)
(3.00001 -8.43549e-06 0)
(2.99999 2.00104e-05 0)
(3.00006 -0.000142116 0)
(2.9992 0.0014168 0)
(2.99117 0.0159784 0)
(2.88686 0.176854 0)
(2.77772 0.413536 0)
(2.44244 0.783419 0)
(2.32512 0.906181 0)
(2.27688 0.942702 0)
(2.28461 0.948303 0)
(2.30113 0.929951 0)
(2.33396 0.893793 0)
(2.35309 0.858032 0)
(2.35918 0.846568 0)
(2.36014 0.839665 0)
(2.35811 0.8412 0)
(2.35557 0.848051 0)
(2.35531 0.852848 0)
(2.35179 0.854874 0)
(3 -5.87427e-12 0)
(3 9.064e-10 0)
(3 -1.62015e-08 0)
(3 -5.56546e-08 0)
(3 -6.78214e-07 0)
(3 -7.78571e-07 0)
(3 -4.41087e-06 0)
(3 -2.83465e-06 0)
(3.00003 -7.52178e-05 0)
(2.99919 0.000998689 0)
(2.98707 0.0198146 0)
(2.86797 0.168046 0)
(2.61641 0.498286 0)
(2.49014 0.700344 0)
(2.30924 0.89389 0)
(2.27904 0.909537 0)
(2.30111 0.892266 0)
(2.31843 0.874124 0)
(2.34381 0.866376 0)
(2.35141 0.856623 0)
(2.35744 0.844064 0)
(2.35667 0.845009 0)
(2.35518 0.848994 0)
(2.35039 0.859076 0)
(3 1.28158e-11 0)
(3 7.8928e-12 0)
(3 5.30103e-11 0)
(3 -3.99575e-10 0)
(3 6.4781e-10 0)
(3 -5.83219e-08 0)
(3 -9.21562e-08 0)
(3 -2.33569e-07 0)
(3 -6.5591e-06 0)
(3 -6.29599e-06 0)
(3.00002 -5.45876e-05 0)
(2.99847 0.00191691 0)
(2.97047 0.038755 0)
(2.85101 0.208213 0)
(2.50046 0.618412 0)
(2.39309 0.74988 0)
(2.31684 0.859555 0)
(2.29523 0.888574 0)
(2.3059 0.884944 0)
(2.32527 0.866853 0)
(2.34224 0.840892 0)
(2.34652 0.837488 0)
(2.34782 0.839117 0)
(2.34795 0.840908 0)
(3 -1.80499e-14 0)
(3 3.87738e-13 0)
(3 4.09905e-12 0)
(3 1.27139e-11 0)
(3 2.35501e-11 0)
(3 -2.55065e-10 0)
(3 -1.52301e-10 0)
(3 -1.43672e-09 0)
(3 -1.81189e-08 0)
(3 -4.27667e-07 0)
(3 -7.82882e-06 0)
(3 -5.14048e-06 0)
(2.99999 4.45451e-06 0)
(2.99645 0.00488549 0)
(2.92487 0.0931059 0)
(2.79588 0.292054 0)
(2.41586 0.724286 0)
(2.33115 0.828318 0)
(2.31314 0.853331 0)
(2.30987 0.853108 0)
(2.31513 0.845486 0)
(2.32996 0.839509 0)
(2.33922 0.839306 0)
(2.34145 0.837483 0)
(3 -2.27806e-15 0)
(3 -2.26502e-15 0)
(3 7.63466e-14 0)
(3 1.24764e-12 0)
(3 5.89394e-12 0)
(3 7.19648e-12 0)
(3 8.66029e-12 0)
(3 4.09347e-12 0)
(3 1.76562e-10 0)
(3 -1.23639e-09 0)
(3 -3.17827e-08 0)
(3 -6.02052e-07 0)
(3 -1.09858e-06 0)
(3.00001 -2.41352e-05 0)
(2.99949 0.000875912 0)
(2.99054 0.0154757 0)
(2.8476 0.193654 0)
(2.69326 0.431607 0)
(2.40586 0.753483 0)
(2.28531 0.904689 0)
(2.27715 0.867354 0)
(2.31053 0.850366 0)
(2.31895 0.848299 0)
(2.32575 0.843445 0)
(3 -1.70994e-15 0)
(3 -2.09762e-15 0)
(3 -4.13403e-15 0)
(3 3.52937e-15 0)
(3 1.05565e-13 0)
(3 8.76747e-13 0)
(3 1.93915e-12 0)
(3 1.8282e-12 0)
(3 1.59842e-11 0)
(3 1.54755e-11 0)
(3 3.39643e-10 0)
(3 -3.7452e-09 0)
(3 -8.85328e-08 0)
(3 -3.84778e-06 0)
(3 -2.96438e-06 0)
(3.00001 -2.83249e-05 0)
(2.99639 0.00586709 0)
(2.9687 0.0542506 0)
(2.72876 0.357648 0)
(2.52364 0.636997 0)
(2.41038 0.768893 0)
(2.33413 0.837994 0)
(2.31125 0.851226 0)
(2.31064 0.844756 0)
(3 -1.67243e-15 0)
(3 -9.40012e-16 0)
(3 -1.48735e-15 0)
(3 -2.11082e-15 0)
(3 -2.40137e-15 0)
(3 6.29146e-15 0)
(3 4.80192e-14 0)
(3 1.47103e-13 0)
(3 4.53323e-13 0)
(3 2.20006e-12 0)
(3 4.49522e-11 0)
(3 3.29027e-11 0)
(3 -8.62524e-11 0)
(3 -5.00625e-08 0)
(3 -4.99746e-07 0)
(3 -2.39189e-06 0)
(3.00001 -1.34065e-05 0)
(2.99966 0.000572612 0)
(2.9802 0.028873 0)
(2.88998 0.171285 0)
(2.59748 0.569609 0)
(2.39779 0.804171 0)
(2.34389 0.824158 0)
(2.32544 0.826797 0)
(3 -1.45886e-15 0)
(3 -1.09554e-15 0)
(3 -9.97245e-16 0)
(3 -1.22319e-15 0)
(3 -1.48968e-15 0)
(3 -1.52684e-15 0)
(3 -1.81178e-15 0)
(3 1.39025e-16 0)
(3 -6.81746e-16 0)
(3 1.4441e-14 0)
(3 8.32427e-13 0)
(3 4.45009e-12 0)
(3 6.53369e-12 0)
(3 1.51726e-10 0)
(3 -1.87605e-08 0)
(3 -9.37426e-08 0)
(3 -1.77937e-06 0)
(3 -4.5577e-06 0)
(2.99989 0.000199661 0)
(2.99623 0.00731755 0)
(2.91477 0.125379 0)
(2.7325 0.399851 0)
(2.49784 0.689826 0)
(2.33308 0.893337 0)
(3 -2.09196e-15 0)
(3 -1.5037e-15 0)
(3 -1.04778e-15 0)
(3 -7.83885e-16 0)
(3 -3.26484e-16 0)
(3 -6.35222e-16 0)
(3 -1.81426e-15 0)
(3 -2.01428e-15 0)
(3 -5.33094e-16 0)
(3 6.6187e-16 0)
(3 4.4873e-15 0)
(3 -4.70318e-15 0)
(3 1.49506e-12 0)
(3 8.0905e-12 0)
(3 7.97777e-11 0)
(3 -1.33808e-09 0)
(3 -1.85675e-08 0)
(3 -1.15061e-06 0)
(3 -9.94595e-07 0)
(2.99999 -4.4532e-08 0)
(2.99752 0.00424074 0)
(2.96806 0.0592744 0)
(2.79162 0.326005 0)
(2.50734 0.714626 0)
(3 -8.14963e-16 0)
(3 -6.5459e-16 0)
(3 4.71152e-16 0)
(3 1.3794e-15 0)
(3 2.37977e-15 0)
(3 1.56354e-15 0)
(3 -7.80908e-16 0)
(3 -4.28317e-16 0)
(3 1.26243e-15 0)
(3 1.69028e-15 0)
(3 3.45613e-16 0)
(3 8.3367e-16 0)
(3 -8.62692e-16 0)
(3 3.92077e-13 0)
(3 7.9922e-12 0)
(3 2.59672e-11 0)
(3 -2.49489e-12 0)
(3 -2.31367e-08 0)
(3 -4.35345e-07 0)
(3 -5.70029e-07 0)
(3 -4.03687e-06 0)
(2.99936 0.00137006 0)
(2.98034 0.0341327 0)
(2.83406 0.257286 0)
(3 8.11402e-16 0)
(3 8.11763e-17 0)
(3 2.14439e-16 0)
(3 1.5639e-15 0)
(3 2.57676e-15 0)
(3 2.50984e-15 0)
(3 1.69334e-15 0)
(3 1.82719e-15 0)
(3 1.62144e-15 0)
(3 7.0164e-16 0)
(3 -1.05733e-16 0)
(3 5.74298e-16 0)
(3 -8.46199e-16 0)
(3 -1.05056e-15 0)
(3 7.43249e-13 0)
(3 8.30651e-12 0)
(3 8.26892e-12 0)
(3 -5.1187e-11 0)
(3 -1.77367e-08 0)
(3 -1.91288e-07 0)
(3 -2.46651e-07 0)
(3 -5.05154e-07 0)
(2.99968 0.000612548 0)
(2.98919 0.0203457 0)
(3 2.21423e-17 0)
(3 -3.52922e-16 0)
(3 -4.13181e-16 0)
(3 1.10918e-15 0)
(3 1.47713e-15 0)
(3 2.04919e-15 0)
(3 2.32069e-15 0)
(3 2.47756e-15 0)
(3 1.74694e-15 0)
(3 1.12828e-15 0)
(3 1.30025e-15 0)
(3 8.28858e-16 0)
(3 -7.03963e-16 0)
(3 -2.42022e-15 0)
(3 1.54088e-15 0)
(3 4.36607e-13 0)
(3 2.54496e-12 0)
(3 2.18336e-12 0)
(3 -9.7889e-11 0)
(3 -1.39106e-08 0)
(3 -5.79875e-08 0)
(3 -6.59442e-08 0)
(3 -4.17573e-06 0)
(2.99997 4.36341e-05 0)
(3 1.73373e-15 0)
(3 1.78866e-15 0)
(3 2.27503e-15 0)
(3 2.41834e-15 0)
(3 2.313e-15 0)
(3 2.33904e-15 0)
(3 2.50356e-15 0)
(3 2.15369e-15 0)
(3 1.78117e-15 0)
(3 2.54604e-15 0)
(3 2.56971e-15 0)
(3 7.96784e-16 0)
(3 -1.01141e-16 0)
(3 3.0141e-16 0)
(3 9.11718e-16 0)
(3 2.57268e-15 0)
(3 1.08768e-13 0)
(3 4.11582e-13 0)
(3 9.03906e-13 0)
(3 -1.78833e-10 0)
(3 -1.19789e-09 0)
(3 -6.40606e-08 0)
(3 -9.27025e-07 0)
(3 6.68057e-07 0)
(3 3.93886e-15 0)
(3 3.68575e-15 0)
(3 4.42586e-15 0)
(3 4.20976e-15 0)
(3 4.31738e-15 0)
(3 3.89618e-15 0)
(3 2.16835e-15 0)
(3 4.49634e-16 0)
(3 2.59351e-16 0)
(3 1.32425e-15 0)
(3 2.00835e-15 0)
(3 1.70525e-15 0)
(3 1.5587e-15 0)
(3 2.46723e-15 0)
(3 3.20676e-15 0)
(3 9.64701e-17 0)
(3 -2.87388e-14 0)
(3 -7.81419e-13 0)
(3 -3.20814e-13 0)
(3 1.42059e-11 0)
(3 7.35934e-09 0)
(3 2.31238e-08 0)
(3 9.23408e-08 0)
(3 4.98199e-06 0)
(3 3.44863e-15 0)
(3 3.73719e-15 0)
(3 3.63907e-15 0)
(3 3.91975e-15 0)
(3 3.35697e-15 0)
(3 1.54109e-15 0)
(3 2.85105e-16 0)
(3 -3.71266e-16 0)
(3 -9.65661e-16 0)
(3 -1.35724e-15 0)
(3 -1.30886e-15 0)
(3 -7.57039e-16 0)
(3 1.6857e-15 0)
(3 2.3564e-15 0)
(3 -6.40085e-16 0)
(3 -4.43661e-13 0)
(3 -1.95368e-12 0)
(3 -2.1604e-12 0)
(3 3.38666e-11 0)
(3 5.34154e-09 0)
(3 4.39819e-08 0)
(3 4.77228e-07 0)
(3 -6.90189e-06 0)
(3.00001 3.79822e-05 0)
(3 1.54571e-15 0)
(3 1.65894e-15 0)
(3 1.29866e-16 0)
(3 -1.37534e-15 0)
(3 -1.38495e-15 0)
(3 -6.89733e-16 0)
(3 -4.49924e-16 0)
(3 -7.68906e-16 0)
(3 -1.68456e-15 0)
(3 -2.31554e-15 0)
(3 -2.05076e-15 0)
(3 -7.06625e-16 0)
(3 6.57399e-16 0)
(3 -2.03339e-15 0)
(3 -8.74517e-13 0)
(3 -8.37409e-12 0)
(3 -7.02204e-12 0)
(3 -2.64003e-12 0)
(3 2.38481e-08 0)
(3 1.21941e-07 0)
(3 1.88226e-07 0)
(3 2.67982e-06 0)
(2.99958 -0.000836714 0)
(2.9924 -0.0154921 0)
(3 -2.57889e-17 0)
(3 1.43058e-17 0)
(3 -1.38423e-15 0)
(3 -1.80248e-15 0)
(3 -1.938e-15 0)
(3 -1.33718e-15 0)
(3 -8.43068e-16 0)
(3 -2.56559e-17 0)
(3 1.21309e-15 0)
(3 8.93133e-16 0)
(3 1.62296e-15 0)
(3 -2.00929e-16 0)
(3 -2.22512e-16 0)
(3 -3.74894e-13 0)
(3 -8.35189e-12 0)
(3 -2.95559e-11 0)
(3 4.80766e-11 0)
(3 2.39209e-08 0)
(3 5.67533e-07 0)
(3 5.71104e-07 0)
(3 -1.06901e-06 0)
(2.99942 -0.0011404 0)
(2.97864 -0.0377777 0)
(2.85345 -0.233262 0)
(3 -1.43788e-15 0)
(3 -1.0849e-15 0)
(3 -2.25584e-16 0)
(3 -4.92035e-18 0)
(3 -2.86757e-16 0)
(3 3.78939e-17 0)
(3 1.00207e-15 0)
(3 2.24878e-15 0)
(3 2.18036e-15 0)
(3 1.64166e-15 0)
(3 2.20056e-16 0)
(3 1.16492e-14 0)
(3 -1.52137e-12 0)
(3 -7.69866e-12 0)
(3 -8.99902e-11 0)
(3 1.44906e-09 0)
(3 1.72468e-08 0)
(3 1.11459e-06 0)
(3 1.81089e-06 0)
(2.99999 -7.14909e-06 0)
(2.99773 -0.00392152 0)
(2.96339 -0.0601498 0)
(2.79233 -0.328383 0)
(2.54408 -0.651766 0)
(3 -1.52863e-15 0)
(3 -1.16542e-15 0)
(3 -5.35834e-16 0)
(3 1.16252e-15 0)
(3 1.63842e-15 0)
(3 1.57684e-15 0)
(3 1.368e-15 0)
(3 -2.41955e-15 0)
(3 -3.07639e-15 0)
(3 -1.6423e-14 0)
(3 -8.28e-13 0)
(3 -4.43038e-12 0)
(3 -6.64131e-12 0)
(3 -1.57234e-10 0)
(3 1.68857e-08 0)
(3 9.72544e-08 0)
(3 1.66062e-06 0)
(3 4.5937e-06 0)
(2.99989 -0.000191447 0)
(2.9961 -0.00798847 0)
(2.92248 -0.114443 0)
(2.69144 -0.438768 0)
(2.52222 -0.666002 0)
(2.35046 -0.84634 0)
(3 -1.67506e-15 0)
(3 -2.1374e-15 0)
(3 -1.23416e-15 0)
(3 -5.9092e-17 0)
(3 7.4459e-16 0)
(3 -8.1609e-15 0)
(3 -4.8549e-14 0)
(3 -1.47405e-13 0)
(3 -4.62228e-13 0)
(3 -2.20006e-12 0)
(3 -4.50351e-11 0)
(3 -3.12978e-11 0)
(3 8.77195e-11 0)
(3 5.34921e-08 0)
(3 4.95048e-07 0)
(3 2.41846e-06 0)
(3.00001 1.24235e-05 0)
(2.99968 -0.000546304 0)
(2.97979 -0.0296618 0)
(2.89614 -0.167937 0)
(2.59527 -0.577226 0)
(2.38937 -0.813432 0)
(2.34465 -0.813016 0)
(2.33363 -0.823198 0)
(3 -2.46744e-15 0)
(3 -1.12008e-15 0)
(3 6.54723e-16 0)
(3 -7.99834e-15 0)
(3 -1.08197e-13 0)
(3 -8.74758e-13 0)
(3 -1.9411e-12 0)
(3 -1.82574e-12 0)
(3 -1.60304e-11 0)
(3 -1.54624e-11 0)
(3 -3.40341e-10 0)
(3 3.78921e-09 0)
(3 8.80607e-08 0)
(3 3.90202e-06 0)
(3 3.01012e-06 0)
(3.00001 2.81426e-05 0)
(2.99636 -0.00591524 0)
(2.96904 -0.0535509 0)
(2.72597 -0.361294 0)
(2.53097 -0.631671 0)
(2.41101 -0.773706 0)
(2.32778 -0.839484 0)
(2.30837 -0.849478 0)
(2.31318 -0.843079 0)
(3 -4.81079e-16 0)
(3 1.18257e-16 0)
(3 -7.8099e-14 0)
(3 -1.24476e-12 0)
(3 -5.90014e-12 0)
(3 -7.18638e-12 0)
(3 -8.66053e-12 0)
(3 -4.10725e-12 0)
(3 -1.76925e-10 0)
(3 1.2775e-09 0)
(3 3.08335e-08 0)
(3 6.10427e-07 0)
(3 1.0797e-06 0)
(3.00001 2.43341e-05 0)
(2.99949 -0.000880903 0)
(2.99058 -0.0154506 0)
(2.84762 -0.19363 0)
(2.69042 -0.432675 0)
(2.40923 -0.751024 0)
(2.28579 -0.902287 0)
(2.2772 -0.868466 0)
(2.30919 -0.851211 0)
(2.31782 -0.848414 0)
(2.32584 -0.842722 0)
(3 1.72058e-14 0)
(3 -3.90162e-13 0)
(3 -4.04463e-12 0)
(3 -1.26157e-11 0)
(3 -2.35152e-11 0)
(3 2.56454e-10 0)
(3 1.52304e-10 0)
(3 1.43369e-09 0)
(3 1.8092e-08 0)
(3 4.275e-07 0)
(3 7.82809e-06 0)
(3.00001 5.33379e-06 0)
(2.99999 -5.14235e-06 0)
(2.99646 -0.0048739 0)
(2.92479 -0.0932697 0)
(2.79647 -0.291749 0)
(2.41597 -0.724401 0)
(2.32996 -0.829367 0)
(2.31331 -0.852908 0)
(2.3099 -0.852808 0)
(2.31481 -0.845743 0)
(2.3295 -0.840275 0)
(2.33916 -0.838316 0)
(2.3416 -0.83682 0)
(3 -1.28345e-11 0)
(3 -7.91242e-12 0)
(3 -5.27782e-11 0)
(3 3.98115e-10 0)
(3 -6.45967e-10 0)
(3 5.82668e-08 0)
(3 9.22803e-08 0)
(3 2.34008e-07 0)
(3 6.55875e-06 0)
(3 6.29466e-06 0)
(3.00002 5.45921e-05 0)
(2.99847 -0.00191645 0)
(2.97046 -0.0387586 0)
(2.85107 -0.208179 0)
(2.50033 -0.618612 0)
(2.39326 -0.74977 0)
(2.31695 -0.859521 0)
(2.29523 -0.888698 0)
(2.30595 -0.884883 0)
(2.32544 -0.86669 0)
(2.34225 -0.840983 0)
(2.3461 -0.837883 0)
(2.34774 -0.838705 0)
(2.34822 -0.840557 0)
(3 5.12376e-12 0)
(3 -9.09293e-10 0)
(3 1.623e-08 0)
(3 5.57226e-08 0)
(3 6.78468e-07 0)
(3 7.7868e-07 0)
(3 4.41892e-06 0)
(3 2.84331e-06 0)
(3.00003 7.51962e-05 0)
(2.99919 -0.000998719 0)
(2.98706 -0.0198172 0)
(2.86799 -0.16802 0)
(2.61639 -0.498302 0)
(2.49011 -0.700371 0)
(2.30924 -0.893909 0)
(2.27908 -0.909462 0)
(2.30113 -0.892205 0)
(2.31847 -0.874192 0)
(2.34398 -0.866331 0)
(2.35162 -0.856611 0)
(2.35741 -0.844145 0)
(2.35657 -0.845121 0)
(2.35511 -0.848887 0)
(2.35044 -0.859116 0)
(3 6.89465e-08 0)
(3 5.47002e-07 0)
(3 3.01039e-07 0)
(3 5.12744e-07 0)
(3.00001 8.43624e-06 0)
(2.99999 -2.00135e-05 0)
(3.00007 0.000142204 0)
(2.9992 -0.00141697 0)
(2.99117 -0.015976 0)
(2.88685 -0.176847 0)
(2.77767 -0.413556 0)
(2.44246 -0.783392 0)
(2.32517 -0.906149 0)
(2.27687 -0.942711 0)
(2.28459 -0.948307 0)
(2.30109 -0.929952 0)
(2.33396 -0.893783 0)
(2.35307 -0.85808 0)
(2.35921 -0.846525 0)
(2.36016 -0.839674 0)
(2.35808 -0.84128 0)
(2.35558 -0.848137 0)
(2.35526 -0.852858 0)
(2.3518 -0.854842 0)
(3 1.29382e-06 0)
(3.00001 3.27947e-05 0)
(2.99993 -0.000120249 0)
(2.99996 -5.66541e-05 0)
(2.99853 -0.00202321 0)
(2.99188 -0.0118898 0)
(2.96491 -0.0538909 0)
(2.89784 -0.175255 0)
(2.78613 -0.398156 0)
(2.56566 -0.729616 0)
(2.46189 -0.846973 0)
(2.33885 -0.928238 0)
(2.29434 -0.913573 0)
(2.29486 -0.899379 0)
(2.30815 -0.88956 0)
(2.34118 -0.870744 0)
(2.36062 -0.861029 0)
(2.36187 -0.851866 0)
(2.36138 -0.84123 0)
(2.35881 -0.841939 0)
(2.35505 -0.843236 0)
(2.35279 -0.844457 0)
(2.35079 -0.845661 0)
(2.34611 -0.846634 0)
(2.99895 -0.000994314 0)
(2.98948 -0.011987 0)
(2.95898 -0.0525775 0)
(2.90628 -0.128876 0)
(2.7969 -0.279431 0)
(2.6914 -0.456322 0)
(2.52179 -0.691292 0)
(2.3883 -0.90018 0)
(2.23212 -1.0615 0)
(2.16754 -1.10692 0)
(2.13857 -1.04195 0)
(2.19571 -0.994502 0)
(2.24754 -0.943188 0)
(2.29185 -0.902836 0)
(2.33367 -0.859497 0)
(2.34874 -0.823758 0)
(2.35891 -0.828534 0)
(2.35915 -0.836689 0)
(2.35329 -0.840793 0)
(2.35019 -0.841711 0)
(2.34909 -0.84302 0)
(2.34942 -0.844782 0)
(2.34575 -0.844948 0)
(2.3416 -0.846403 0)
(2.93398 -0.0086283 0)
(2.84623 -0.0690451 0)
(2.75054 -0.164216 0)
(2.68391 -0.217944 0)
(2.56337 -0.36681 0)
(2.5118 -0.437935 0)
(2.41862 -0.543677 0)
(2.35175 -0.62809 0)
(2.3143 -0.724137 0)
(2.25592 -0.798216 0)
(2.24563 -0.853637 0)
(2.28135 -0.883821 0)
(2.32958 -0.896007 0)
(2.33739 -0.887393 0)
(2.34527 -0.883173 0)
(2.34705 -0.868452 0)
(2.34923 -0.855916 0)
(2.34604 -0.851124 0)