/*--------------------------------*- C++ -*----------------------------------*\
  =========                 |
  \\      /  F ield         | OpenFOAM: The Open Source CFD Toolbox
   \\    /   O peration     | Website:  https://openfoam.org
    \\  /    A nd           | Version:  7
     \\/     M anipulation  |
\*---------------------------------------------------------------------------*/
FoamFile
{
    version     2.0;
    format      ascii;
    class       volVectorField;
    location    "0.2";
    object      U;
}
// * * * * * * * * * * * * * * * * * * * * * * * * * * * * * * * * * * * * * //

dimensions      [0 1 -1 0 0 0 0];

internalField   nonuniform List<vector> 
73728
(
(3 1.54312e-17 0)
(3 -1.91304e-16 0)
(3 2.12999e-16 0)
(3 3.29629e-16 0)
(3 2.68825e-16 0)
(3 1.50544e-16 0)
(3 7.32559e-16 0)
(3 8.79607e-16 0)
(3 7.75232e-16 0)
(3 6.0195e-16 0)
(3 3.07778e-17 0)
(3 -4.94644e-17 0)
(3 5.68281e-17 0)
(3 -7.40372e-17 0)
(3 -3.80146e-16 0)
(3 -6.99381e-16 0)
(3 -8.87689e-16 0)
(3 -1.0314e-15 0)
(3 -1.93369e-16 0)
(3 5.87589e-16 0)
(3 1.13561e-15 0)
(3 2.35746e-15 0)
(3 2.01256e-15 0)
(3 8.97808e-16 0)
(3 3.11023e-16 0)
(3 -1.91427e-16 0)
(3 -7.42298e-16 0)
(3 -8.62825e-16 0)
(3 -6.32255e-16 0)
(3 -2.31567e-16 0)
(3 1.49459e-16 0)
(3 -3.54507e-16 0)
(3 -5.47955e-16 0)
(3 -5.87789e-16 0)
(3 -1.01876e-15 0)
(3 2.22345e-17 0)
(3 6.42396e-16 0)
(3 1.08537e-15 0)
(3 1.02339e-15 0)
(3 6.97873e-16 0)
(3 -1.66289e-16 0)
(3 -4.86229e-16 0)
(3 -4.4285e-16 0)
(3 -8.54828e-16 0)
(3 -1.60582e-15 0)
(3 -1.63216e-15 0)
(3 -5.15205e-16 0)
(3 8.99994e-16 0)
(3 1.23955e-15 0)
(3 5.09701e-16 0)
(3 -6.56515e-17 0)
(3 -5.43378e-17 0)
(3 1.15221e-15 0)
(3 1.00344e-15 0)
(3 1.08861e-15 0)
(3 9.16005e-16 0)
(3 2.92831e-16 0)
(3 -3.1858e-16 0)
(3 -2.11268e-16 0)
(3 -4.16374e-16 0)
(3 1.86419e-16 0)
(3 1.82934e-15 0)
(3 2.16428e-15 0)
(3 2.27873e-15 0)
(3 1.70986e-15 0)
(3 8.9494e-17 0)
(3 2.50885e-16 0)
(3 9.54831e-16 0)
(3 1.95417e-15 0)
(3 2.46252e-15 0)
(3 1.10104e-15 0)
(3 -7.83324e-17 0)
(3 -1.13755e-15 0)
(3 -1.77201e-15 0)
(3 -1.55414e-15 0)
(3 -2.71563e-16 0)
(3 1.12675e-16 0)
(3 -4.59751e-17 0)
(3 -4.52651e-17 0)
(3 2.07751e-16 0)
(3 1.04424e-15 0)
(3 1.82776e-15 0)
(3 4.15316e-15 0)
(3 1.32106e-15 0)
(3 -9.47236e-16 0)
(3 -1.31237e-15 0)
(3 -1.09475e-15 0)
(3 -1.8571e-15 0)
(3 -2.70464e-15 0)
(3 -3.28204e-15 0)
(3 -6.70411e-16 0)
(3 -3.84486e-16 0)
(3 -2.372e-16 0)
(3 -3.71817e-16 0)
(3 -6.20484e-16 0)
(3 -8.75992e-16 0)
(3 1.62795e-17 0)
(3 -1.74193e-17 0)
(3 3.14763e-16 0)
(3 9.60231e-16 0)
(3 -1.84627e-16 0)
(3 -6.19386e-16 0)
(3 -1.2557e-16 0)
(3 6.24053e-16 0)
(3 7.61518e-16 0)
(3 9.66175e-16 0)
(3 2.82786e-16 0)
(3 -2.0885e-16 0)
(3 -1.86173e-17 0)
(3 2.39718e-16 0)
(3 1.51361e-16 0)
(3 -2.78197e-16 0)
(3 -6.51796e-16 0)
(3 -5.97834e-16 0)
(3 -1.39292e-15 0)
(3 -8.10059e-17 0)
(3 1.49543e-15 0)
(3 2.198e-15 0)
(3 1.00423e-15 0)
(3 -1.85818e-17 0)
(3 4.95705e-17 0)
(3 -3.48763e-16 0)
(3 -1.82349e-16 0)
(3 -1.79712e-16 0)
(3 -2.34567e-16 0)
(3 1.14568e-16 0)
(3 1.18511e-15 0)
(3 5.95459e-16 0)
(3 -6.30683e-16 0)
(3 -7.34627e-16 0)
(3 -6.82116e-16 0)
(3 8.80167e-16 0)
(3 1.67012e-15 0)
(3 1.38347e-15 0)
(3 1.20135e-15 0)
(3 -5.64118e-16 0)
(3 -3.13697e-15 0)
(3 -4.73503e-15 0)
(3 -3.99107e-15 0)
(3 -3.52229e-15 0)
(3 -3.13015e-15 0)
(3 -2.03615e-15 0)
(3 -2.28725e-19 0)
(3 2.18486e-15 0)
(3 2.30641e-15 0)
(3 1.832e-15 0)
(3 1.07248e-15 0)
(3 6.33836e-16 0)
(3 1.17654e-15 0)
(3 9.95233e-16 0)
(3 2.37336e-15 0)
(3 1.94956e-15 0)
(3 1.12823e-15 0)
(3 -5.31379e-16 0)
(3 -8.82651e-16 0)
(3 -4.29732e-16 0)
(3 1.21452e-15 0)
(3 2.49008e-15 0)
(3 2.66344e-15 0)
(3 2.06523e-15 0)
(3 2.1168e-15 0)
(3 8.66813e-16 0)
(3 2.54942e-16 0)
(3 7.1509e-16 0)
(3 1.33924e-15 0)
(3 6.67108e-16 0)
(3 7.77586e-17 0)
(3 -2.17045e-15 0)
(3 -2.82574e-15 0)
(3 -3.08335e-15 0)
(3 -1.30084e-15 0)
(3 4.07962e-16 0)
(3 1.24079e-15 0)
(3 1.38217e-15 0)
(3 1.19254e-15 0)
(3 1.5375e-15 0)
(3 2.36696e-15 0)
(3 3.10485e-15 0)
(3 5.0633e-15 0)
(3 3.76171e-15 0)
(3 -3.31041e-15 0)
(3 -4.59526e-15 0)
(3 -4.32667e-15 0)
(3 -5.93492e-15 0)
(3 -6.69197e-15 0)
(3 -3.91383e-15 0)
(3 -7.30617e-16 0)
(3 1.31705e-15 0)
(3 2.75415e-15 0)
(3 2.85723e-15 0)
(3 1.42857e-15 0)
(3 -4.34633e-16 0)
(3 -2.03167e-17 0)
(3 5.11277e-17 0)
(3 -2.94349e-16 0)
(3 -2.53038e-16 0)
(3 -2.51744e-16 0)
(3 -6.27661e-16 0)
(3 -2.58574e-16 0)
(3 1.77161e-16 0)
(3 1.14554e-15 0)
(3 1.57223e-15 0)
(3 1.67751e-15 0)
(3 1.14392e-15 0)
(3 1.20453e-15 0)
(3 1.29529e-15 0)
(3 1.78386e-15 0)
(3 1.3341e-15 0)
(3 9.67287e-16 0)
(3 6.21264e-16 0)
(3 3.07257e-16 0)
(3 9.76492e-16 0)
(3 1.4702e-15 0)
(3 1.10162e-15 0)
(3 5.3717e-16 0)
(3 -5.38476e-16 0)
(3 -1.38192e-15 0)
(3 -1.2558e-15 0)
(3 -1.17134e-16 0)
(3 7.20993e-16 0)
(3 1.23661e-15 0)
(3 1.16259e-15 0)
(3 2.12093e-15 0)
(3 1.45001e-15 0)
(3 5.90692e-16 0)
(3 2.54005e-16 0)
(3 4.70747e-16 0)
(3 1.78928e-15 0)
(3 7.6552e-16 0)
(3 -8.159e-16 0)
(3 -1.21526e-15 0)
(3 -2.86286e-15 0)
(3 -5.01845e-15 0)
(3 -6.9676e-15 0)
(3 -6.11895e-15 0)
(3 -4.17596e-15 0)
(3 -2.15968e-15 0)
(3 7.20266e-16 0)
(3 1.70503e-15 0)
(3 2.78558e-15 0)
(3 3.14502e-15 0)
(3 3.81753e-15 0)
(3 3.03859e-15 0)
(3 1.35633e-15 0)
(3 -4.35146e-16 0)
(3 -4.97472e-16 0)
(3 9.27232e-17 0)
(3 3.74435e-17 0)
(3 -3.08206e-16 0)
(3 -8.16948e-16 0)
(3 -7.42553e-17 0)
(3 1.26637e-15 0)
(3 7.1725e-16 0)
(3 4.19609e-17 0)
(3 -4.67202e-17 0)
(3 -7.63273e-16 0)
(3 -1.16351e-16 0)
(3 6.70221e-16 0)
(3 9.80586e-16 0)
(3 1.04798e-15 0)
(3 1.17246e-15 0)
(3 1.14972e-15 0)
(3 1.2812e-15 0)
(3 1.40995e-16 0)
(3 -7.01483e-17 0)
(3 8.35959e-16 0)
(3 2.52238e-15 0)
(3 3.31767e-15 0)
(3 3.25175e-15 0)
(3 4.03114e-15 0)
(3 3.86889e-15 0)
(3 3.45253e-15 0)
(3 3.48021e-15 0)
(3 3.70452e-15 0)
(3 4.43836e-15 0)
(3 1.10574e-15 0)
(3 -1.3501e-15 0)
(3 -2.76395e-15 0)
(3 -3.03897e-15 0)
(3 -4.28665e-15 0)
(3 -3.05431e-15 0)
(3 -1.34228e-15 0)
(3 2.125e-16 0)
(3 6.9817e-16 0)
(3 3.47901e-16 0)
(3 2.99478e-16 0)
(3 1.13983e-15 0)
(3 -1.70217e-15 0)
(3 7.36297e-17 0)
(3 2.8454e-16 0)
(3 1.35792e-16 0)
(3 -4.78076e-16 0)
(3 -4.73176e-16 0)
(3 -1.6451e-16 0)
(3 -1.43251e-16 0)
(3 -3.28051e-16 0)
(3 5.51323e-16 0)
(3 9.48636e-16 0)
(3 1.19357e-15 0)
(3 1.2773e-15 0)
(3 1.09257e-15 0)
(3 7.93148e-16 0)
(3 8.09223e-16 0)
(3 6.89093e-16 0)
(3 8.43625e-16 0)
(3 1.36495e-15 0)
(3 2.08014e-15 0)
(3 2.37836e-15 0)
(3 1.76262e-15 0)
(3 1.77659e-15 0)
(3 1.17351e-15 0)
(3 4.691e-16 0)
(3 5.58269e-17 0)
(3 1.87537e-16 0)
(3 8.82028e-16 0)
(3 1.54963e-15 0)
(3 1.88176e-15 0)
(3 2.06308e-15 0)
(3 1.71488e-15 0)
(3 9.34168e-16 0)
(3 5.09404e-16 0)
(3 4.03293e-16 0)
(3 1.086e-15 0)
(3 1.46534e-15 0)
(3 4.26497e-17 0)
(3 -6.65024e-16 0)
(3 -2.45716e-15 0)
(3 -3.52969e-15 0)
(3 -4.66824e-15 0)
(3 -5.27433e-15 0)
(3 -5.64126e-15 0)
(3 -3.11819e-15 0)
(3 -1.97172e-15 0)
(3 1.38332e-15 0)
(3 2.88538e-15 0)
(3 1.7759e-15 0)
(3 2.44762e-15 0)
(3 4.08171e-15 0)
(3 3.61164e-15 0)
(3 1.80114e-15 0)
(3 4.97531e-16 0)
(3 -7.3476e-16 0)
(3 -1.28012e-15 0)
(3 -8.848e-16 0)
(3 2.61496e-16 0)
(3 8.2037e-16 0)
(3 1.44918e-15 0)
(3 1.18143e-15 0)
(3 6.53965e-16 0)
(3 -6.21537e-16 0)
(3 -1.00426e-15 0)
(3 -9.50658e-16 0)
(3 -1.16836e-15 0)
(3 2.13951e-16 0)
(3 2.81173e-15 0)
(3 1.65184e-15 0)
(3 2.31188e-16 0)
(3 1.40681e-15 0)
(3 2.56396e-15 0)
(3 3.55397e-15 0)
(3 4.35248e-15 0)
(3 4.31556e-15 0)
(3 3.9612e-15 0)
(3 3.61669e-15 0)
(3 3.87407e-15 0)
(3 3.70205e-15 0)
(3 3.5448e-15 0)
(3 3.67506e-15 0)
(3 4.67025e-15 0)
(3 4.93882e-15 0)
(3 4.65772e-15 0)
(3 1.47553e-15 0)
(3 -1.48542e-15 0)
(3 -2.60763e-15 0)
(3 -3.35047e-15 0)
(3 -3.20332e-15 0)
(3 -6.81669e-16 0)
(3 5.90927e-17 0)
(3 -3.20064e-16 0)
(3 -9.14645e-16 0)
(3 -1.73029e-15 0)
(3 -2.45568e-15 0)
(3 -2.86457e-15 0)
(3 -5.51824e-15 0)
(3 1.7505e-16 0)
(3 3.53934e-16 0)
(3 5.13962e-16 0)
(3 4.89154e-16 0)
(3 1.76102e-16 0)
(3 -7.00239e-16 0)
(3 -1.34073e-15 0)
(3 -2.10189e-15 0)
(3 -1.60687e-15 0)
(3 -1.15908e-15 0)
(3 -1.05096e-15 0)
(3 -7.90723e-16 0)
(3 -9.47312e-16 0)
(3 -6.42122e-16 0)
(3 -1.02759e-15 0)
(3 -7.67034e-16 0)
(3 3.19179e-16 0)
(3 2.11956e-15 0)
(3 2.77898e-15 0)
(3 1.4578e-15 0)
(3 1.02071e-15 0)
(3 1.12274e-15 0)
(3 1.42558e-15 0)
(3 1.61003e-15 0)
(3 1.70267e-15 0)
(3 1.81583e-15 0)
(3 1.87583e-15 0)
(3 1.79049e-15 0)
(3 1.76473e-15 0)
(3 2.09114e-15 0)
(3 3.72372e-15 0)
(3 1.18106e-15 0)
(3 -1.66949e-15 0)
(3 -1.69122e-15 0)
(3 -2.21838e-15 0)
(3 1.31771e-15 0)
(3 2.01966e-15 0)
(3 6.41246e-17 0)
(3 -1.75423e-15 0)
(3 -2.54001e-15 0)
(3 -2.65212e-15 0)
(3 -3.15081e-15 0)
(3 -3.06331e-15 0)
(3 -1.02503e-15 0)
(3 8.28752e-16 0)
(3 2.02789e-15 0)
(3 3.70048e-15 0)
(3 2.55475e-15 0)
(3 2.4665e-15 0)
(3 2.95336e-15 0)
(3 3.67539e-15 0)
(3 1.80809e-15 0)
(3 1.34211e-15 0)
(3 1.31234e-16 0)
(3 -1.07049e-15 0)
(3 1.13299e-15 0)
(3 2.57426e-15 0)
(3 2.80388e-15 0)
(3 1.44593e-15 0)
(3 3.66079e-16 0)
(3 3.04796e-16 0)
(3 4.73321e-16 0)
(3 1.04857e-16 0)
(3 -1.10728e-16 0)
(3 -1.07805e-15 0)
(3 -7.13951e-16 0)
(3 3.53087e-16 0)
(3 8.84299e-16 0)
(3 2.06355e-16 0)
(3 1.84406e-16 0)
(3 3.05931e-15 0)
(3 5.22683e-15 0)
(3 5.22564e-15 0)
(3 4.55025e-15 0)
(3 3.39947e-15 0)
(3 3.65842e-15 0)
(3 2.58952e-15 0)
(3 2.17728e-15 0)
(3 1.59603e-15 0)
(3 2.62158e-15 0)
(3 4.62173e-15 0)
(3 5.39228e-15 0)
(3 5.15445e-15 0)
(3 3.77546e-15 0)
(3 9.44268e-16 0)
(3 -1.03572e-15 0)
(3 -3.24852e-15 0)
(3 -3.54599e-15 0)
(3 -8.74757e-16 0)
(3 4.64395e-16 0)
(3 6.62634e-17 0)
(3 -9.5293e-16 0)
(3 -2.20979e-15 0)
(3 -2.72724e-15 0)
(3 -6.5299e-15 0)
(3 -8.65576e-15 0)
(3 6.19378e-17 0)
(3 -1.39767e-16 0)
(3 -5.29423e-17 0)
(3 3.58397e-16 0)
(3 3.46912e-16 0)
(3 -9.52176e-17 0)
(3 -4.5006e-16 0)
(3 -1.29615e-15 0)
(3 -1.61351e-15 0)
(3 -1.94973e-15 0)
(3 -2.21058e-15 0)
(3 -1.89016e-15 0)
(3 -1.19359e-15 0)
(3 -1.19327e-15 0)
(3 -8.49908e-16 0)
(3 -8.22695e-17 0)
(3 5.62268e-16 0)
(3 1.22745e-15 0)
(3 1.22448e-15 0)
(3 1.14676e-15 0)
(3 8.7851e-16 0)
(3 4.46342e-16 0)
(3 1.31457e-15 0)
(3 2.03891e-15 0)
(3 2.22127e-15 0)
(3 2.108e-15 0)
(3 1.79887e-15 0)
(3 1.65255e-15 0)
(3 1.75302e-15 0)
(3 2.19186e-15 0)
(3 4.51528e-15 0)
(3 2.31729e-15 0)
(3 -1.09965e-15 0)
(3 -1.86095e-15 0)
(3 -2.31174e-15 0)
(3 4.9025e-16 0)
(3 2.59351e-15 0)
(3 1.57568e-15 0)
(3 4.74144e-16 0)
(3 -2.72457e-16 0)
(3 -1.4858e-15 0)
(3 -2.03461e-15 0)
(3 -2.07987e-16 0)
(3 6.47624e-16 0)
(3 4.1585e-16 0)
(3 1.21864e-16 0)
(3 8.03221e-16 0)
(3 2.75806e-15 0)
(3 2.41023e-15 0)
(3 2.11473e-15 0)
(3 2.07469e-15 0)
(3 7.98582e-16 0)
(3 2.33924e-16 0)
(3 2.42981e-16 0)
(3 1.87132e-15 0)
(3 2.4274e-15 0)
(3 8.35017e-16 0)
(3 6.28297e-16 0)
(3 7.67951e-16 0)
(3 4.26975e-16 0)
(3 2.66697e-16 0)
(3 7.08937e-17 0)
(3 3.99006e-16 0)
(3 -6.17868e-16 0)
(3 -2.0427e-15 0)
(3 -2.82279e-15 0)
(3 -3.83862e-15 0)
(3 -1.70784e-15 0)
(3 5.20256e-16 0)
(3 1.30595e-15 0)
(3 1.35614e-15 0)
(3 2.77112e-15 0)
(3 3.5515e-15 0)
(3 3.17903e-15 0)
(3 3.19906e-15 0)
(3 3.17345e-15 0)
(3 2.76994e-15 0)
(3 2.42321e-15 0)
(3 2.16204e-15 0)
(3 1.70332e-15 0)
(3 2.08355e-15 0)
(3 4.4581e-15 0)
(3 5.14937e-15 0)
(3 5.06261e-15 0)
(3 4.67315e-15 0)
(3 3.14253e-15 0)
(3 -1.3895e-15 0)
(3 -2.46887e-15 0)
(3 -2.28459e-15 0)
(3 -2.29179e-15 0)
(3 -1.88453e-15 0)
(3 -1.60694e-15 0)
(3 -2.71974e-15 0)
(3 -5.92836e-15 0)
(3 -7.71845e-15 0)
(3 -7.4239e-15 0)
(3 -2.34999e-18 0)
(3 8.53208e-17 0)
(3 -2.60721e-16 0)
(3 -3.92832e-16 0)
(3 -2.78619e-16 0)
(3 -1.92276e-16 0)
(3 -1.00224e-16 0)
(3 6.79195e-17 0)
(3 6.15507e-17 0)
(3 -1.92629e-15 0)
(3 -2.24148e-15 0)
(3 -2.37766e-15 0)
(3 -2.26628e-15 0)
(3 -2.05027e-15 0)
(3 -1.54684e-15 0)
(3 -6.17177e-16 0)
(3 -3.99837e-16 0)
(3 -6.17715e-16 0)
(3 -7.71728e-16 0)
(3 -5.66018e-16 0)
(3 -1.70631e-16 0)
(3 -8.47331e-16 0)
(3 -3.45427e-16 0)
(3 5.23619e-16 0)
(3 1.34308e-15 0)
(3 1.82833e-15 0)
(3 2.18632e-15 0)
(3 2.35192e-15 0)
(3 2.83027e-15 0)
(3 3.74071e-15 0)
(3 2.33929e-15 0)
(3 5.55822e-17 0)
(3 -5.84569e-16 0)
(3 -1.2576e-15 0)
(3 -1.20933e-15 0)
(3 -1.30341e-15 0)
(3 -8.32917e-17 0)
(3 1.08513e-15 0)
(3 1.35153e-15 0)
(3 8.64488e-16 0)
(3 -5.60891e-16 0)
(3 -8.18855e-16 0)
(3 -1.31048e-15 0)
(3 -1.30743e-15 0)
(3 -2.18831e-15 0)
(3 -2.59264e-15 0)
(3 -2.37233e-15 0)
(3 -1.62508e-15 0)
(3 -1.8684e-16 0)
(3 2.78282e-16 0)
(3 1.73532e-16 0)
(3 1.50737e-15 0)
(3 1.83347e-15 0)
(3 3.31494e-15 0)
(3 5.45511e-15 0)
(3 4.31077e-15 0)
(3 1.27701e-15 0)
(3 1.10292e-17 0)
(3 2.68967e-16 0)
(3 3.13164e-16 0)
(3 5.04895e-16 0)
(3 -8.99383e-16 0)
(3 -1.59624e-15 0)
(3 -1.51241e-15 0)
(3 -1.74932e-15 0)
(3 -2.50652e-15 0)
(3 -2.60305e-15 0)
(3 -1.08715e-15 0)
(3 1.17414e-15 0)
(3 1.83312e-15 0)
(3 2.67141e-15 0)
(3 4.07511e-15 0)
(3 4.0141e-15 0)
(3 2.58531e-15 0)
(3 1.01688e-15 0)
(3 1.01077e-15 0)
(3 1.84234e-15 0)
(3 2.2669e-15 0)
(3 2.13085e-15 0)
(3 2.00346e-15 0)
(3 2.14883e-15 0)
(3 3.33205e-15 0)
(3 5.44022e-15 0)
(3 6.15556e-15 0)
(3 7.68757e-15 0)
(3 5.10962e-15 0)
(3 2.17256e-15 0)
(3 -2.53135e-16 0)
(3 -1.96923e-15 0)
(3 -2.1923e-15 0)
(3 -2.64831e-15 0)
(3 -2.29377e-15 0)
(3 -3.05071e-15 0)
(3 -5.50627e-15 0)
(3 -5.46194e-15 0)
(3 -5.69163e-15 0)
(3 -1.89189e-16 0)
(3 -9.98591e-17 0)
(3 -1.54979e-16 0)
(3 -3.06646e-16 0)
(3 -2.77941e-16 0)
(3 -6.46644e-16 0)
(3 -5.95807e-16 0)
(3 -1.81142e-16 0)
(3 3.57081e-17 0)
(3 -3.95695e-16 0)
(3 -7.71458e-16 0)
(3 -6.95633e-16 0)
(3 -9.81469e-16 0)
(3 -1.73121e-15 0)
(3 -1.84463e-15 0)
(3 -1.95917e-15 0)
(3 -9.19388e-16 0)
(3 -1.13068e-15 0)
(3 -1.06248e-15 0)
(3 -1.78016e-15 0)
(3 -2.30042e-15 0)
(3 -2.27623e-15 0)
(3 -1.6908e-15 0)
(3 -1.54386e-16 0)
(3 1.0196e-15 0)
(3 1.41502e-15 0)
(3 1.64325e-15 0)
(3 2.39069e-15 0)
(3 3.0651e-15 0)
(3 3.41095e-15 0)
(3 2.1875e-15 0)
(3 6.09304e-17 0)
(3 -1.1423e-15 0)
(3 -8.92604e-16 0)
(3 -1.30391e-15 0)
(3 -2.46058e-15 0)
(3 -1.74518e-15 0)
(3 -8.82902e-16 0)
(3 2.17602e-16 0)
(3 6.0511e-16 0)
(3 8.6609e-16 0)
(3 2.29763e-15 0)
(3 -1.34909e-15 0)
(3 -3.02234e-15 0)
(3 -4.63017e-15 0)
(3 -4.36221e-15 0)
(3 -2.67481e-15 0)
(3 -1.50486e-15 0)
(3 -1.39907e-15 0)
(3 -1.48803e-15 0)
(3 4.81326e-16 0)
(3 1.68946e-15 0)
(3 2.86045e-15 0)
(3 4.82895e-15 0)
(3 5.53413e-15 0)
(3 4.90223e-15 0)
(3 3.42597e-15 0)
(3 3.09322e-15 0)
(3 1.33895e-15 0)
(3 1.19451e-15 0)
(3 4.50275e-16 0)
(3 -7.31267e-16 0)
(3 -1.70036e-15 0)
(3 -1.50522e-15 0)
(3 -1.26529e-15 0)
(3 -9.48719e-16 0)
(3 8.9398e-16 0)
(3 1.12986e-15 0)
(3 1.35917e-15 0)
(3 1.43294e-15 0)
(3 2.31142e-15 0)
(3 3.66183e-15 0)
(3 2.84765e-15 0)
(3 1.27102e-15 0)
(3 -6.82224e-16 0)
(3 -1.0012e-15 0)
(3 -1.00813e-15 0)
(3 -1.10021e-17 0)
(3 3.72522e-16 0)
(3 1.04107e-15 0)
(3 3.10372e-15 0)
(3 4.28272e-15 0)
(3 5.47524e-15 0)
(3 7.01659e-15 0)
(3 7.57443e-15 0)
(3 6.93682e-15 0)
(3 5.39695e-15 0)
(3 2.58195e-15 0)
(3 4.06723e-17 0)
(3 -4.40004e-16 0)
(3 -1.95026e-15 0)
(3 -3.57985e-15 0)
(3 -4.45639e-15 0)
(3 -4.35652e-15 0)
(3 -3.03288e-15 0)
(3 -1.69083e-15 0)
(3 -5.60475e-17 0)
(3 2.02611e-16 0)
(3 4.14471e-16 0)
(3 2.80654e-16 0)
(3 4.03136e-16 0)
(3 5.1715e-16 0)
(3 5.70774e-16 0)
(3 5.63514e-16 0)
(3 3.88627e-17 0)
(3 -9.31732e-17 0)
(3 -1.86161e-16 0)
(3 -3.12492e-16 0)
(3 -9.80128e-16 0)
(3 -1.52987e-15 0)
(3 -1.21973e-15 0)
(3 -1.64761e-15 0)
(3 -1.51054e-15 0)
(3 -1.13988e-15 0)
(3 -4.91848e-16 0)
(3 -1.03483e-15 0)
(3 -1.81598e-15 0)
(3 -1.96051e-15 0)
(3 -5.76452e-16 0)
(3 -6.43121e-16 0)
(3 -3.28882e-16 0)
(3 9.05517e-16 0)
(3 1.89597e-15 0)
(3 2.80246e-15 0)
(3 2.8792e-15 0)
(3 2.94498e-15 0)
(3 2.73218e-15 0)
(3 2.82773e-15 0)
(3 2.38118e-15 0)
(3 9.50661e-16 0)
(3 6.10747e-16 0)
(3 -2.57432e-16 0)
(3 -7.51598e-16 0)
(3 -3.98024e-17 0)
(3 8.42352e-16 0)
(3 1.4645e-15 0)
(3 2.1196e-15 0)
(3 1.9487e-15 0)
(3 -7.28022e-17 0)
(3 -4.46167e-15 0)
(3 -4.79253e-15 0)
(3 -3.93314e-15 0)
(3 -1.94716e-15 0)
(3 -1.4532e-15 0)
(3 -1.50734e-15 0)
(3 -1.36348e-15 0)
(3 -6.49253e-16 0)
(3 2.31361e-16 0)
(3 2.12699e-15 0)
(3 2.47213e-15 0)
(3 2.44332e-15 0)
(3 2.56448e-15 0)
(3 3.05176e-15 0)
(3 2.77905e-15 0)
(3 2.24937e-15 0)
(3 8.71391e-16 0)
(3 -1.33386e-15 0)
(3 -1.40061e-15 0)
(3 -1.07657e-15 0)
(3 -1.28605e-15 0)
(3 -1.88244e-15 0)
(3 -1.57791e-15 0)
(3 -8.07156e-16 0)
(3 -3.4434e-16 0)
(3 -9.27995e-17 0)
(3 -4.48671e-16 0)
(3 9.10318e-17 0)
(3 1.02466e-15 0)
(3 1.07903e-15 0)
(3 9.62778e-16 0)
(3 -1.86997e-16 0)
(3 -1.48973e-15 0)
(3 -2.15204e-15 0)
(3 -1.86054e-15 0)
(3 -6.03369e-16 0)
(3 7.55274e-16 0)
(3 2.52004e-15 0)
(3 3.8583e-15 0)
(3 4.5232e-15 0)
(3 5.44631e-15 0)
(3 5.42916e-15 0)
(3 6.29446e-15 0)
(3 5.05809e-15 0)
(3 2.79067e-15 0)
(3 -1.39241e-16 0)
(3 -6.90229e-16 0)
(3 -4.57548e-15 0)
(3 -6.26604e-15 0)
(3 -3.40757e-15 0)
(3 -2.38966e-15 0)
(3 -1.56111e-15 0)
(3 -1.66713e-15 0)
(3 2.16498e-17 0)
(3 1.76449e-16 0)
(3 4.55045e-16 0)
(3 6.63495e-16 0)
(3 9.20536e-16 0)
(3 9.20488e-16 0)
(3 9.41447e-16 0)
(3 9.78458e-16 0)
(3 6.78606e-16 0)
(3 1.93867e-16 0)
(3 -2.60417e-16 0)
(3 -7.23649e-16 0)
(3 -1.15556e-15 0)
(3 -1.40406e-15 0)
(3 -8.2851e-16 0)
(3 -8.10158e-17 0)
(3 1.55728e-16 0)
(3 1.44673e-15 0)
(3 8.05271e-16 0)
(3 -7.04457e-16 0)
(3 -1.17434e-15 0)
(3 -1.29276e-15 0)
(3 -1.29718e-16 0)
(3 3.15017e-16 0)
(3 -2.06949e-16 0)
(3 2.9432e-16 0)
(3 1.51031e-15 0)
(3 1.95329e-15 0)
(3 1.15791e-15 0)
(3 4.28829e-16 0)
(3 2.46055e-16 0)
(3 2.07114e-16 0)
(3 6.97153e-16 0)
(3 7.29968e-16 0)
(3 5.28013e-16 0)
(3 -8.13445e-18 0)
(3 -1.5278e-16 0)
(3 2.88453e-16 0)
(3 3.1809e-16 0)
(3 5.42923e-16 0)
(3 1.22308e-15 0)
(3 1.78254e-15 0)
(3 -7.01055e-16 0)
(3 -4.24126e-15 0)
(3 -4.12857e-15 0)
(3 -2.79809e-15 0)
(3 -2.88332e-15 0)
(3 -3.50795e-15 0)
(3 -1.93684e-15 0)
(3 -1.33964e-15 0)
(3 -9.56375e-16 0)
(3 -2.89936e-16 0)
(3 4.306e-16 0)
(3 6.94668e-16 0)
(3 2.47081e-16 0)
(3 7.39787e-16 0)
(3 1.92004e-15 0)
(3 2.0406e-15 0)
(3 8.85223e-16 0)
(3 -1.29333e-15 0)
(3 -2.01715e-15 0)
(3 -7.15244e-16 0)
(3 1.75931e-16 0)
(3 -7.19801e-16 0)
(3 -1.51339e-15 0)
(3 -1.49298e-15 0)
(3 -1.53571e-15 0)
(3 -8.90501e-16 0)
(3 -1.36016e-15 0)
(3 -1.24946e-15 0)
(3 -1.29531e-15 0)
(3 -9.63973e-16 0)
(3 4.49275e-16 0)
(3 1.09726e-15 0)
(3 7.29772e-16 0)
(3 -1.86597e-15 0)
(3 -3.28567e-15 0)
(3 -2.561e-15 0)
(3 6.94201e-16 0)
(3 3.03181e-15 0)
(3 3.99074e-15 0)
(3 4.05487e-15 0)
(3 3.11569e-15 0)
(3 2.67849e-15 0)
(3 2.1314e-15 0)
(3 2.36518e-15 0)
(3 1.06768e-15 0)
(3 6.66827e-17 0)
(3 -1.32562e-15 0)
(3 -2.23911e-15 0)
(3 -3.7042e-15 0)
(3 -4.03527e-15 0)
(3 -1.38504e-15 0)
(3 -9.18233e-16 0)
(3 -1.354e-15 0)
(3 -2.2254e-15 0)
(3 -2.44935e-17 0)
(3 -5.86495e-16 0)
(3 -4.48276e-16 0)
(3 -6.92003e-17 0)
(3 -1.33844e-16 0)
(3 -1.10365e-16 0)
(3 -2.21727e-16 0)
(3 -1.87829e-16 0)
(3 1.8747e-16 0)
(3 5.13825e-16 0)
(3 1.7283e-16 0)
(3 -2.1172e-16 0)
(3 -1.60562e-16 0)
(3 -9.00747e-17 0)
(3 6.38443e-16 0)
(3 1.63366e-15 0)
(3 1.41476e-15 0)
(3 6.38972e-16 0)
(3 -5.54158e-16 0)
(3 -1.35296e-15 0)
(3 -1.00602e-15 0)
(3 -5.06525e-16 0)
(3 -1.22831e-15 0)
(3 -1.14765e-15 0)
(3 -1.20703e-15 0)
(3 -5.79254e-16 0)
(3 2.53951e-16 0)
(3 8.25696e-16 0)
(3 1.79762e-16 0)
(3 -4.06123e-16 0)
(3 -1.49467e-15 0)
(3 -1.48828e-15 0)
(3 2.28556e-17 0)
(3 9.9943e-17 0)
(3 3.58102e-16 0)
(3 9.56794e-16 0)
(3 1.89476e-15 0)
(3 1.4219e-15 0)
(3 1.26284e-15 0)
(3 1.17628e-15 0)
(3 1.83718e-15 0)
(3 2.04388e-15 0)
(3 1.36943e-15 0)
(3 3.0541e-16 0)
(3 -1.38647e-16 0)
(3 -2.71863e-15 0)
(3 -3.66788e-15 0)
(3 -3.12563e-15 0)
(3 -1.45063e-15 0)
(3 -1.20847e-15 0)
(3 -1.51548e-15 0)
(3 -1.41752e-15 0)
(3 -8.42779e-16 0)
(3 -4.36534e-16 0)
(3 -8.24197e-16 0)
(3 -9.18071e-16 0)
(3 -8.60522e-16 0)
(3 5.28246e-16 0)
(3 6.65165e-16 0)
(3 8.30084e-16 0)
(3 1.78259e-15 0)
(3 3.58338e-16 0)
(3 3.0069e-16 0)
(3 -1.57057e-16 0)
(3 -6.51939e-16 0)
(3 -6.02371e-16 0)
(3 6.50982e-16 0)
(3 1.38437e-15 0)
(3 8.21408e-16 0)
(3 -2.32363e-16 0)
(3 -1.4274e-15 0)
(3 -2.25136e-15 0)
(3 -3.10319e-16 0)
(3 -1.40318e-16 0)
(3 -2.34286e-15 0)
(3 -2.6e-15 0)
(3 -3.39534e-15 0)
(3 -1.92449e-15 0)
(3 -5.32906e-16 0)
(3 9.23953e-17 0)
(3 1.23589e-15 0)
(3 2.74703e-15 0)
(3 2.69518e-15 0)
(3 1.71278e-15 0)
(3 -4.83427e-18 0)
(3 -5.19208e-16 0)
(3 -1.00848e-15 0)
(3 -3.64062e-17 0)
(3 -1.02936e-15 0)
(3 -1.63764e-15 0)
(3 -1.51731e-15 0)
(3 -1.07671e-15 0)
(3 -7.3176e-16 0)
(3 3.09152e-16 0)
(3 1.86271e-15 0)
(3 2.93101e-15 0)
(3 -1.13579e-16 0)
(3 -5.90846e-16 0)
(3 -1.0162e-15 0)
(3 -1.34426e-15 0)
(3 -1.12815e-15 0)
(3 -2.72797e-16 0)
(3 -2.83073e-16 0)
(3 -5.27469e-16 0)
(3 -5.98924e-16 0)
(3 -1.70062e-16 0)
(3 2.48871e-16 0)
(3 5.18649e-16 0)
(3 4.93906e-16 0)
(3 -8.37977e-17 0)
(3 1.42608e-15 0)
(3 2.02005e-15 0)
(3 7.47312e-16 0)
(3 -1.49483e-15 0)
(3 -1.92812e-15 0)
(3 8.70436e-16 0)
(3 1.24571e-15 0)
(3 5.55984e-16 0)
(3 -6.47358e-16 0)
(3 -1.67606e-15 0)
(3 -1.07199e-15 0)
(3 7.19001e-18 0)
(3 -2.48315e-16 0)
(3 -2.45706e-16 0)
(3 7.24859e-16 0)
(3 1.59638e-15 0)
(3 5.02636e-16 0)
(3 -2.00958e-16 0)
(3 5.77752e-17 0)
(3 7.90522e-16 0)
(3 2.10217e-15 0)
(3 2.82684e-15 0)
(3 3.14351e-15 0)
(3 2.67351e-15 0)
(3 3.00574e-15 0)
(3 3.76671e-15 0)
(3 3.99829e-15 0)
(3 3.95363e-15 0)
(3 3.22304e-15 0)
(3 1.93385e-15 0)
(3 1.6203e-15 0)
(3 -7.35059e-16 0)
(3 -2.83192e-15 0)
(3 -2.92143e-15 0)
(3 -2.32161e-15 0)
(3 -1.49972e-15 0)
(3 -2.0178e-15 0)
(3 -2.49211e-15 0)
(3 -2.13159e-15 0)
(3 -1.84229e-15 0)
(3 -1.83923e-15 0)
(3 -2.39734e-15 0)
(3 -2.33774e-15 0)
(3 -1.70746e-15 0)
(3 -2.88349e-16 0)
(3 9.95556e-16 0)
(3 1.74361e-15 0)
(3 1.17056e-15 0)
(3 1.13788e-15 0)
(3 1.3617e-15 0)
(3 1.65691e-15 0)
(3 2.06961e-15 0)
(3 1.71129e-15 0)
(3 1.62703e-15 0)
(3 7.09467e-16 0)
(3 -6.32185e-16 0)
(3 -2.26254e-15 0)
(3 -2.03674e-15 0)
(3 -7.78143e-16 0)
(3 -2.71539e-15 0)
(3 -3.44105e-15 0)
(3 -2.46061e-15 0)
(3 -1.48769e-15 0)
(3 -1.84077e-15 0)
(3 -8.00046e-16 0)
(3 -1.0478e-15 0)
(3 -1.10617e-15 0)
(3 2.38865e-16 0)
(3 1.77905e-15 0)
(3 1.62654e-15 0)
(3 4.59838e-17 0)
(3 -7.30567e-16 0)
(3 -1.28346e-15 0)
(3 -2.22504e-15 0)
(3 -2.31496e-15 0)
(3 -1.99338e-15 0)
(3 -1.44769e-15 0)
(3 -7.31787e-16 0)
(3 -1.58857e-16 0)
(3 1.29329e-15 0)
(3 3.11302e-15 0)
(3 5.40397e-15 0)
(3 -4.67218e-18 0)
(3 2.74535e-17 0)
(3 2.51875e-16 0)
(3 3.10814e-16 0)
(3 2.88453e-16 0)
(3 1.41554e-16 0)
(3 -8.59631e-17 0)
(3 3.60853e-16 0)
(3 5.13493e-16 0)
(3 4.10452e-16 0)
(3 7.31965e-16 0)
(3 1.01735e-15 0)
(3 7.89575e-16 0)
(3 1.13264e-15 0)
(3 1.14084e-15 0)
(3 1.28318e-15 0)
(3 1.95094e-16 0)
(3 -2.46167e-15 0)
(3 -2.83787e-15 0)
(3 -2.00563e-15 0)
(3 1.59428e-18 0)
(3 4.28953e-16 0)
(3 8.30607e-16 0)
(3 8.65435e-16 0)
(3 5.39915e-16 0)
(3 3.04538e-16 0)
(3 -7.31203e-16 0)
(3 -8.62373e-16 0)
(3 -2.13918e-16 0)
(3 4.74424e-16 0)
(3 1.43786e-15 0)
(3 5.39937e-17 0)
(3 -6.04173e-16 0)
(3 7.11521e-16 0)
(3 1.68719e-15 0)
(3 2.06873e-15 0)
(3 2.51658e-15 0)
(3 1.25747e-15 0)
(3 7.30929e-16 0)
(3 1.63509e-15 0)
(3 2.89105e-15 0)
(3 3.3541e-15 0)
(3 3.84107e-15 0)
(3 3.71939e-15 0)
(3 3.80378e-15 0)
(3 1.6289e-15 0)
(3 -5.94113e-16 0)
(3 -1.82025e-15 0)
(3 -2.78638e-15 0)
(3 -2.21168e-15 0)
(3 -2.48522e-15 0)
(3 -2.51287e-15 0)
(3 -2.44149e-15 0)
(3 -2.77794e-15 0)
(3 -3.15032e-15 0)
(3 -2.90679e-15 0)
(3 -2.57818e-15 0)
(3 -2.39154e-15 0)
(3 -1.76275e-15 0)
(3 -1.38643e-15 0)
(3 -1.61278e-15 0)
(3 -1.11174e-15 0)
(3 -2.12495e-16 0)
(3 2.68245e-16 0)
(3 8.47472e-16 0)
(3 2.1792e-15 0)
(3 4.01518e-16 0)
(3 5.4526e-16 0)
(3 1.35523e-15 0)
(3 7.92854e-16 0)
(3 1.22965e-15 0)
(3 5.90236e-17 0)
(3 -1.80626e-16 0)
(3 6.42559e-16 0)
(3 1.12872e-15 0)
(3 1.01512e-15 0)
(3 3.83243e-16 0)
(3 -6.27681e-16 0)
(3 -1.10921e-16 0)
(3 1.26621e-16 0)
(3 -4.10242e-16 0)
(3 -6.86053e-16 0)
(3 7.76358e-16 0)
(3 1.33842e-15 0)
(3 7.2655e-16 0)
(3 -1.22266e-15 0)
(3 -2.20079e-15 0)
(3 -4.00235e-15 0)
(3 -2.77863e-15 0)
(3 -2.47319e-15 0)
(3 -2.74248e-15 0)
(3 -2.29259e-15 0)
(3 -1.24054e-15 0)
(3 5.898e-16 0)
(3 2.89329e-15 0)
(3 4.33587e-15 0)
(3 3.68204e-16 0)
(3 8.49651e-16 0)
(3 7.7897e-16 0)
(3 8.0118e-16 0)
(3 2.88273e-16 0)
(3 -2.15984e-16 0)
(3 1.32838e-17 0)
(3 2.4342e-16 0)
(3 6.97744e-16 0)
(3 9.68318e-16 0)
(3 1.06916e-15 0)
(3 8.24675e-16 0)
(3 1.0071e-15 0)
(3 1.14882e-15 0)
(3 -1.65993e-16 0)
(3 -1.50049e-16 0)
(3 -1.62901e-15 0)
(3 -2.34713e-15 0)
(3 -2.59202e-15 0)
(3 -1.54708e-15 0)
(3 -6.47731e-16 0)
(3 9.49641e-16 0)
(3 1.55666e-15 0)
(3 1.62182e-15 0)
(3 3.48826e-16 0)
(3 -1.16019e-15 0)
(3 -7.65408e-16 0)
(3 4.02924e-16 0)
(3 1.11598e-15 0)
(3 1.36679e-15 0)
(3 2.38325e-15 0)
(3 7.66996e-16 0)
(3 1.25876e-15 0)
(3 2.59977e-15 0)
(3 2.27396e-15 0)
(3 1.88064e-15 0)
(3 3.0776e-15 0)
(3 3.32962e-15 0)
(3 1.42279e-15 0)
(3 1.46172e-15 0)
(3 2.10303e-15 0)
(3 2.0018e-15 0)
(3 1.89579e-15 0)
(3 2.40699e-15 0)
(3 2.55361e-15 0)
(3 3.04324e-15 0)
(3 9.24079e-17 0)
(3 -1.36908e-15 0)
(3 -2.34191e-15 0)
(3 -2.91119e-15 0)
(3 -2.89515e-15 0)
(3 -3.09247e-15 0)
(3 -2.71078e-15 0)
(3 -2.19152e-15 0)
(3 -1.94769e-15 0)
(3 -7.78757e-16 0)
(3 -1.37623e-15 0)
(3 -1.39291e-15 0)
(3 -1.32234e-15 0)
(3 -3.81113e-16 0)
(3 2.82062e-16 0)
(3 9.46313e-16 0)
(3 1.06284e-17 0)
(3 -3.17086e-16 0)
(3 -7.86095e-16 0)
(3 -1.74949e-16 0)
(3 1.42548e-15 0)
(3 3.14856e-16 0)
(3 -1.21093e-15 0)
(3 -3.21548e-16 0)
(3 -2.07319e-17 0)
(3 8.26006e-16 0)
(3 5.56001e-17 0)
(3 6.66188e-16 0)
(3 2.45424e-15 0)
(3 2.9395e-15 0)
(3 1.33318e-15 0)
(3 3.1314e-16 0)
(3 3.90621e-16 0)
(3 4.58175e-16 0)
(3 3.2235e-16 0)
(3 1.26863e-16 0)
(3 4.60956e-16 0)
(3 8.20505e-16 0)
(3 4.25386e-16 0)
(3 -1.52129e-15 0)
(3 -2.10008e-15 0)
(3 -2.08772e-15 0)
(3 -2.49894e-15 0)
(3 -2.63495e-15 0)
(3 -2.45956e-15 0)
(3 -1.84579e-15 0)
(3 -1.08966e-15 0)
(3 -3.39658e-16 0)
(3 7.04135e-16 0)
(3 3.45555e-15 0)
(3 9.6573e-17 0)
(3 3.67981e-16 0)
(3 3.69807e-16 0)
(3 -3.72233e-16 0)
(3 -4.44541e-16 0)
(3 -7.31688e-17 0)
(3 -1.84219e-16 0)
(3 -4.52808e-16 0)
(3 3.67361e-17 0)
(3 1.09181e-15 0)
(3 1.4889e-15 0)
(3 1.59995e-15 0)
(3 1.76063e-15 0)
(3 1.10153e-15 0)
(3 8.85038e-17 0)
(3 -6.8093e-16 0)
(3 -2.30117e-15 0)
(3 -2.86365e-15 0)
(3 -1.348e-15 0)
(3 -7.83926e-16 0)
(3 -5.06211e-16 0)
(3 1.39686e-16 0)
(3 5.75457e-16 0)
(3 5.6475e-16 0)
(3 6.76458e-17 0)
(3 6.02677e-16 0)
(3 9.2916e-16 0)
(3 1.63937e-15 0)
(3 2.90084e-15 0)
(3 3.81427e-15 0)
(3 4.02248e-15 0)
(3 2.58237e-15 0)
(3 2.30586e-15 0)
(3 2.43265e-15 0)
(3 2.25175e-15 0)
(3 2.00588e-15 0)
(3 2.87136e-15 0)
(3 2.93851e-15 0)
(3 3.03982e-15 0)
(3 1.94313e-15 0)
(3 6.14594e-16 0)
(3 -2.13455e-16 0)
(3 -6.089e-16 0)
(3 1.7024e-16 0)
(3 1.0318e-15 0)
(3 1.05275e-15 0)
(3 2.9344e-16 0)
(3 -1.28379e-15 0)
(3 -1.86339e-15 0)
(3 -3.14923e-15 0)
(3 -2.52906e-15 0)
(3 -2.17032e-15 0)
(3 -2.32863e-15 0)
(3 -2.62641e-15 0)
(3 -2.52277e-15 0)
(3 -2.34646e-15 0)
(3 -1.65509e-15 0)
(3 -1.37457e-15 0)
(3 -8.30934e-16 0)
(3 7.96327e-16 0)
(3 2.43107e-15 0)
(3 2.83695e-15 0)
(3 1.7838e-15 0)
(3 5.8442e-16 0)
(3 4.86259e-16 0)
(3 -1.04251e-15 0)
(3 1.59789e-17 0)
(3 -8.68457e-16 0)
(3 -7.20369e-16 0)
(3 5.87991e-16 0)
(3 6.22032e-17 0)
(3 1.05347e-16 0)
(3 1.71454e-15 0)
(3 2.55241e-15 0)
(3 3.40991e-15 0)
(3 3.66306e-15 0)
(3 2.77247e-15 0)
(3 1.65018e-15 0)
(3 7.67709e-16 0)
(3 3.5318e-16 0)
(3 -1.08873e-15 0)
(3 -1.10334e-15 0)
(3 -1.42831e-15 0)
(3 -1.30542e-15 0)
(3 -1.35298e-15 0)
(3 -1.57478e-15 0)
(3 -1.28826e-15 0)
(3 -1.17918e-15 0)
(3 -1.61975e-15 0)
(3 -1.79142e-15 0)
(3 -2.26591e-15 0)
(3 -1.84055e-15 0)
(3 -1.39727e-15 0)
(3 -1.68915e-15 0)
(3 -4.51031e-16 0)
(3 2.05308e-15 0)
(3 -1.99994e-16 0)
(3 -5.45908e-16 0)
(3 -5.95726e-16 0)
(3 -4.86955e-16 0)
(3 -2.79361e-16 0)
(3 4.51669e-17 0)
(3 -1.8406e-16 0)
(3 1.85758e-16 0)
(3 2.08703e-16 0)
(3 4.06873e-16 0)
(3 7.07441e-16 0)
(3 1.60422e-15 0)
(3 1.67213e-15 0)
(3 1.2893e-15 0)
(3 4.74241e-16 0)
(3 -5.00803e-16 0)
(3 -1.92284e-15 0)
(3 -2.17936e-15 0)
(3 -1.31668e-15 0)
(3 -1.44436e-16 0)
(3 -2.97806e-16 0)
(3 -4.40856e-16 0)
(3 2.22643e-17 0)
(3 5.99502e-16 0)
(3 1.15853e-15 0)
(3 2.7827e-15 0)
(3 3.19329e-15 0)
(3 2.66198e-15 0)
(3 2.43778e-15 0)
(3 3.37518e-15 0)
(3 3.69405e-15 0)
(3 3.84747e-15 0)
(3 2.3362e-15 0)
(3 2.99786e-17 0)
(3 1.56477e-16 0)
(3 1.04139e-15 0)
(3 2.40747e-15 0)
(3 6.68555e-16 0)
(3 -4.83039e-17 0)
(3 -9.80119e-16 0)
(3 -9.07737e-16 0)
(3 -8.97344e-16 0)
(3 -6.04768e-16 0)
(3 -6.50799e-16 0)
(3 -3.88608e-16 0)
(3 1.05489e-16 0)
(3 1.11362e-15 0)
(3 1.19399e-15 0)
(3 2.23082e-16 0)
(3 -9.93418e-16 0)
(3 -5.59479e-16 0)
(3 2.68559e-16 0)
(3 2.94469e-16 0)
(3 -1.07491e-15 0)
(3 -1.24032e-15 0)
(3 -1.01689e-15 0)
(3 -1.56829e-15 0)
(3 -5.36557e-16 0)
(3 6.28122e-16 0)
(3 2.2446e-15 0)
(3 3.53244e-15 0)
(3 3.30085e-15 0)
(3 2.10597e-15 0)
(3 -3.81296e-16 0)
(3 -1.21777e-15 0)
(3 -7.82088e-16 0)
(3 -8.33979e-16 0)
(3 -4.19655e-16 0)
(3 1.06754e-15 0)
(3 2.2691e-15 0)
(3 3.17143e-15 0)
(3 3.41192e-15 0)
(3 2.99884e-15 0)
(3 2.65148e-15 0)
(3 1.99498e-15 0)
(3 1.3267e-15 0)
(3 1.1888e-15 0)
(3 1.90126e-15 0)
(3 1.10083e-15 0)
(3 -4.07172e-16 0)
(3 -1.1091e-15 0)
(3 -1.44854e-15 0)
(3 -2.04064e-15 0)
(3 -2.02046e-15 0)
(3 -1.38533e-15 0)
(3 -1.09759e-15 0)
(3 -1.08854e-15 0)
(3 -6.38814e-16 0)
(3 -2.97608e-16 0)
(3 -5.16231e-16 0)
(3 -5.14893e-16 0)
(3 -1.22874e-15 0)
(3 2.18227e-16 0)
(3 2.49903e-15 0)
(3 2.74311e-15 0)
(3 2.44973e-15 0)
(3 -6.5412e-17 0)
(3 -2.98006e-16 0)
(3 -6.87716e-16 0)
(3 -5.45978e-16 0)
(3 -5.26155e-16 0)
(3 -5.62692e-16 0)
(3 2.16544e-17 0)
(3 2.49904e-16 0)
(3 1.1886e-16 0)
(3 4.59836e-17 0)
(3 -4.14036e-16 0)
(3 2.32026e-17 0)
(3 3.29482e-16 0)
(3 7.28677e-18 0)
(3 -3.34053e-16 0)
(3 -1.23043e-15 0)
(3 -9.28353e-16 0)
(3 -3.66273e-16 0)
(3 6.85349e-16 0)
(3 1.44454e-15 0)
(3 9.99501e-16 0)
(3 7.75194e-16 0)
(3 -3.34993e-16 0)
(3 -8.27198e-17 0)
(3 1.38995e-15 0)
(3 3.71277e-15 0)
(3 4.46067e-15 0)
(3 3.87294e-15 0)
(3 2.21589e-15 0)
(3 1.82598e-15 0)
(3 2.83297e-15 0)
(3 3.87728e-15 0)
(3 3.06591e-15 0)
(3 1.37188e-15 0)
(3 6.38689e-16 0)
(3 4.3642e-16 0)
(3 3.32914e-16 0)
(3 4.61948e-18 0)
(3 -2.76738e-16 0)
(3 -1.63263e-16 0)
(3 3.5392e-16 0)
(3 -1.46492e-16 0)
(3 -1.04751e-16 0)
(3 6.09325e-16 0)
(3 6.02292e-16 0)
(3 1.1407e-15 0)
(3 1.54294e-15 0)
(3 3.57725e-16 0)
(3 -9.4142e-16 0)
(3 -1.57846e-16 0)
(3 5.96984e-16 0)
(3 4.89513e-16 0)
(3 2.46932e-16 0)
(3 6.58329e-16 0)
(3 1.44467e-15 0)
(3 2.78145e-15 0)
(3 3.19944e-15 0)
(3 2.36432e-15 0)
(3 2.52381e-15 0)
(3 3.00435e-15 0)
(3 3.55612e-15 0)