/*--------------------------------*- C++ -*----------------------------------*\
  =========                 |
  \\      /  F ield         | OpenFOAM: The Open Source CFD Toolbox
   \\    /   O peration     | Website:  https://openfoam.org
    \\  /    A nd           | Version:  7
     \\/     M anipulation  |
\*---------------------------------------------------------------------------*/
FoamFile
{
    version     2.0;
    format      ascii;
    class       volScalarField;
    location    "3.6";
    object      p;
}
// * * * * * * * * * * * * * * * * * * * * * * * * * * * * * * * * * * * * * //

dimensions      [1 -1 -2 0 0 0 0];

internalField   nonuniform List<scalar> 
4608
(
1
1
1
1
1
1
1
1
1
1
1
1
1
1
1
1
1
1
1
1
1
1
1
1
1
1
1
1
1
1
1
1
1
1
1
1
1
1
1
1
1
1
1
1
1
1
1
1
1
1
1
1
1
1
1
1
1
1
1
1
1
1
1
1
1
1
1
1
1
1
1
1
1
1
1
1
1
1
1
1
1
1
1
1
1
1
1
1
1
1
1
1
1
1
1
1
1
1
1
1
1
1
1
1
1
1
1
1
1
1
1
1
1
1
1
1
1
1
1
1
1
1
1
1
1
1
1
1
1
1
1
1
1
1
1
1
1
1
1
1
1
1
1
1
1
1
1
1
1
1
1
1
1
1
1
1
1
1
1
1
1
1
1
1
1
1
1
1
1
1
1
1
1
1
1
1
1
1
1
1
1
1
1
1
1
1
1
1
1
1
1
1
1
1
1
1
1
1
1
1
1
1
1
1
1
1
1
1
1
1
1
1
1
1
1
1
1
1
1
1
1
1
1
1
1
1
1
1
1
1
1
1
1
1
1
1
1
1
1
1
1
1
1
1
1
1
1
1
1
1
1
1
1
1
1
1
1
1
1
1
1
1
1
1
1
1
1
1
1
1
1
1
1
1
1
1
1
1
1
1
1
1
1
1
1
1
1
1
1
1
1
1
1
1
1
1
1
1
1
1
1
1
1
1
1
1
1
1
1
1
1
1
1
1
1
1
1
1
1
1
1
1
1
1
1
1
1
1
1
1
1
1
1
1
1
1
1
1
1
1
1
1
1
1
1
1
1
1
1
1
1
1
1
1
1
1
1
1
1
1
1
1
1
1
1
1
1
1
1
1
1
1
1
1
1
1
1
1
1
1
1
1
1
1
1
1
1
1
1
1
1
1
1
1
1
1
1
1
1
1
1
1
1
1
1
1
1
1
1
1
1
1
1
1
1
1
1
1
1
1
1
1
1
1
1
1
1
1
1
1
1
1
1
1
1
1
1
1
1
1
1
1
1
1
1
1
1
1
1
1
1
1
1
1
1
1
1
1
1
1
1
1
1
1
1
1
1
1
1
1
1
1
1
1
1
1
1
1
1
1
1
1
1
1
1
1
1
1
1
1
1
1
1
1
1
1
1
1
1
1
1
1
1
1
1
1
1
1
1
1
1
1
1
1
1
1
1
1
1
1
1
1
1
1
1
1
1
1
1
1
1
1
1
1
1
1
1
1
1
1
1
1
1
1
1
1
1
1
1
1
1
1
1
1
1
1
1
1
1
1
1
1
1
1
1
1
1
1
1
1
1
1
1
1
1
1
1
1
1
1
1
1
1
1
1
1
1
1
1
1
1
1
1
1
1
1
1
1
1
1
1
1
1
1
1
1
1
1
1
1
1
1
1
1
1
1
1
1
1
1
1
1
1
1
1
1
1
1
1
1
1
1
1
1
1
1
1
1
1
1
1
1
1
1
1
1
1
1
1
1
1
1
1
1
1
1
1
1
1
1
1
1
1
1
1
1
1
1
1
1
1
1
1
1
1
1
1
1
1
1
1
1
1
1
1
1
1
1
1
1
1
1
1
1
1
1
1
1
1
1
1
1
1
1
1
1
1
1
1
1
1
1
1
1
1
1
1
1
1
1
1
1
1
1
1
1
1
1
1
1
1
1
1
1
1
1
1
1
1
1
1
1
1
1
1
1
1
1
1
1
1
1
1
1
1
1
1
1
1
1
1
1
1
1
1
1
1
1
1.29131
1.76985
2.32298
2.97019
3.64923
4.2766
4.84698
5.30434
5.36714
5.16929
4.72771
4.21025
3.82557
3.67244
3.56866
3.57537
3.61635
3.66337
3.71118
3.73119
3.73748
3.74335
3.75757
3.7831
1.00245
1.01759
1.08898
1.21515
1.47536
1.85371
2.3824
2.97417
3.57178
3.85265
4.03936
4.02193
3.96188
3.88337
3.75854
3.72015
3.69486
3.67889
3.69427
3.71782
3.7285
3.73887
3.7522
3.77203
1
0.999944
1.00024
1.00023
1.0036
1.02391
1.10797
1.36607
1.97265
3.01018
3.83331
4.30577
4.35595
4.28477
4.11199
3.86588
3.67666
3.65251
3.67393
3.70447
3.71761
3.72691
3.73408
3.74668
1
0.999998
0.999998
0.999999
0.999987
1.00004
0.999903
1.00198
1.03108
1.30766
2.01943
3.212
3.88113
4.10321
4.076
4.00371
3.82736
3.72648
3.72841
3.70913
3.70363
3.71177
3.7254
3.73885
1
1
1
1
0.999999
0.999999
0.999987
0.99999
0.999899
1.00161
1.04146
1.35229
2.23362
3.24464
4.03936
4.12237
4.03763
3.93684
3.83568
3.74691
3.7072
3.71191
3.72853
3.74883
1
1
1
1
1
1
1
0.999999
0.99999
0.999991
0.999913
1.00261
1.08588
1.48124
2.51735
3.46337
3.99587
3.99284
3.94393
3.85633
3.76578
3.74083
3.73019
3.73526
1
1
1
1
1
1
1
1
1
0.999999
0.999992
0.999979
1.00007
1.0081
1.17004
1.79485
2.97523
3.56586
3.84426
3.88747
3.85192
3.7484
3.71373
3.70424
1
1
1
1
1
1
1
1
1
1
1
0.999997
0.999998
0.999972
1.00139
1.03359
1.3667
2.22879
3.36207
3.77967
3.79712
3.76962
3.73945
3.72494
1
1
1
1
1
1
1
1
1
1
1
1
1
0.999994
0.999996
0.999985
1.00835
1.13005
1.73665
2.7755
3.59306
3.82064
3.81395
3.79042
1
1
1
1
1
1
1
1
1
1
1
1
1
1
0.999999
0.999996
0.999977
1.00112
1.04171
1.41212
2.4052
3.26049
3.58299
3.75365
1
1
1
1
1
1
1
1
1
1
1
1
1
1
1
1
0.999996
0.999992
1.00017
1.01617
1.20291
1.99068
3.11043
3.6745
1
1
1
1
1
1
1
1
1
1
1
1
1
1
1
1
1
0.999999
0.999997
1.00002
1.00471
1.12705
1.74471
2.84002
1
1
1
1
1
1
1
1
1
1
1
1
1
1
1
1
1
1
0.999999
0.999999
0.999999
1.00285
1.06424
1.53638
1
1
1
1
1
1
1
1
1
1
1
1
1
1
1
1
1
1
1
1
0.999999
0.999997
1.00096
1.03103
1
1
1
1
1
1
1
1
1
1
1
1
1
1
1
1
1
1
1
1
1
0.999999
0.999999
1.00002
1
1
1
1
1
1
1
1
1
1
1
1
1
1
1
1
1
1
1
1
1
1
1
0.999998
1
1
1
1
1
1
1
1
1
1
1
1
1
1
1
1
1
1
1
1
1
1
0.999999
0.999998
1
1
1
1
1
1
1
1
1
1
1
1
1
1
1
1
1
1
1
1
1
0.999999
0.999999
1.00007
1
1
1
1
1
1
1
1
1
1
1
1
1
1
1
1
1
1
1
1
1
0.999997
1.00111
1.02652
1
1
1
1
1
1
1
1
1
1
1
1
1
1
1
1
1
1
0.999999
0.999999
1
1.00249
1.06585
1.48144
1
1
1
1
1
1
1
1
1
1
1
1
1
1
1
1
1
0.999999
0.999997
1.00002
1.00485
1.12634
1.70683
2.83357
1
1
1
1
1
1
1
1
1
1
1
1
1
1
1
1
0.999996
0.999992
1.00018
1.01564
1.20493
1.99977
3.04638
3.69627
1
1
1
1
1
1
1
1
1
1
1
1
1
1
0.999999
0.999996
0.999977
1.00111
1.04197
1.40894
2.41092
3.24358
3.59006
3.76569
1
1
1
1
1
1
1
1
1
1
1
1
1
0.999994
0.999996
0.999985
1.00836
1.13026
1.73195
2.78348
3.59021
3.81508
3.8123
3.79463
1
1
1
1
1
1
1
1
1
1
1
0.999997
0.999998
0.999972
1.00139
1.03355
1.36724
2.22944
3.35482
3.78668
3.79771
3.76814
3.73795
3.72549
1
1
1
1
1
1
1
1
1
0.999999
0.999992
0.999979
1.00007
1.0081
1.16997
1.7947
2.97635
3.5642
3.84374
3.8888
3.8535
3.74763
3.71234
3.70506
1
1
1
1
1
1
1
0.999999
0.99999
0.999991
0.999913
1.00261
1.0859
1.4813
2.51672
3.46406
3.99572
3.99246
3.94336
3.85716
3.7666
3.73954
3.73021
3.73559
1
1
1
1
0.999999
0.999999
0.999987
0.99999
0.999899
1.00161
1.04147
1.35225
2.23384
3.2443
4.03917
4.12262
4.03809
3.9366
3.83534
3.74766
3.70714
3.71144
3.72861
3.74905
1
0.999998
0.999998
0.999999
0.999987
1.00004
0.999903
1.00198
1.03108
1.30767
2.01935
3.21229
3.88104
4.10295
4.07596
4.00379
3.82815
3.72612
3.72801
3.70952
3.70381
3.71173
3.72546
3.73887
1
0.999944
1.00024
1.00023
1.0036
1.02391
1.10798
1.36607
1.97265
3.01023
3.83324
4.3058
4.3559
4.28475
4.11197
3.86608
3.67707
3.65212
3.67356
3.70483
3.71764
3.72674
3.73406
3.7467
1.00245
1.01758
1.08898
1.21516
1.47534
1.85371
2.38241
2.97417
3.57177
3.85266
4.03937
4.02188
3.96183
3.88342
3.75854
3.72013
3.69478
3.67884
3.69426
3.71786
3.72852
3.73885
3.75224
3.77204
1.29131
1.76986
2.323
2.97012
3.64923
4.2767
4.84692
5.3043
5.36714
5.16929
4.72774
4.21024
3.82562
3.6725
3.56863
3.57534
3.61627
3.66333
3.71115
3.73117
3.73743
3.74331
3.7577
3.78317
2.66826
1.72082
1.16461
0.817344
0.642758
0.647833
0.718848
0.757708
0.777464
0.832754
0.889208
0.92302
0.951006
1.00213
1.05458
1.06576
1.06248
1.05319
1.05464
1.05746
1.05223
1.05385
1.06603
1.13681
1.52906
2.76362
4.59853
6.7423
8.78996
9.34033
8.68843
7.62793
6.90055
6.56893
6.34914
6.15146
5.92077
5.68492
5.46132
5.22734
4.98087
4.75403
4.58249
4.45046
4.33046
4.21753
4.10432
3.97565
3.82563
3.66635
3.50447
3.33471
3.19453
3.10474
3.04455
3.00311
2.96578
2.92327
2.86849
2.78611
2.65236
2.46641
2.34743
2.30598
2.27352
2.23846
2.2121
2.19077
2.1578
2.11709
2.06832
2.07865
2.20034
2.57336
3.21491
3.95777
4.56088
5.12071
5.38841
5.37523
5.27826
5.09601
4.86487
4.66507
4.4459
4.32173
4.27692
4.2412
4.20872
4.17457
4.13716
4.07336
3.95024
3.78547
3.69419
3.62285
3.38254
2.74783
2.21525
1.8237
1.41621
1.20161
1.15363
1.07189
0.992279
0.954564
0.923752
0.90267
0.903826
0.923763
0.964274
0.99984
1.00559
1.00393
1.00788
1.02071
1.02242
1.03293
1.12518
1.62902
2.54473
3.06348
3.58632
4.29975
5.59679
6.77178
7.46556
7.38624
7.05438
6.71065
6.43299
6.18367
5.9491
5.72958
5.52282
5.29205
5.04406
4.82562
4.66019
4.5228
4.40013
4.28608
4.16939
4.03545
3.87995
3.71506
3.55066
3.38812
3.25932
3.17858
3.11106
3.05273
3.01069
2.96472
2.90333
2.81212
2.67607
2.50849
2.4003
2.35999
2.31996
2.27991
2.25001
2.22722
2.19989
2.1896
2.24384
2.40223
2.7327
3.02985
3.25281
3.57694
3.98133
4.33738
4.65961
4.90306
4.98485
4.9655
4.85045
4.68013
4.4873
4.35658
4.30287
4.26143
4.23513
4.20257
4.16439
4.10056
3.97934
3.82192
3.73835
3.66405
3.64578
3.33641
2.83619
2.40432
2.02583
1.61786
1.38697
1.26748
1.11868
0.991178
0.968418
0.942274
0.91387
0.91602
0.932667
0.959694
0.964844
0.965853
0.976337
0.99849
1.02265
1.14181
1.77811
2.66811
3.24801
3.33303
3.32661
3.35278
3.61238
4.60872
6.13094
7.01637
7.15773
6.92507
6.47319
6.11955
5.89629
5.68932
5.46855
5.22999
5.00159
4.79294
4.59934
4.42611
4.27579
4.14647
4.03488
3.92398
3.79587
3.65302
3.51229
3.39318
3.28896
3.18218
3.07298
2.97396
2.89995
2.84802
2.79208
2.71214
2.6037
2.50455
2.43732
2.3635
2.28337
2.23205
2.20664
2.20337
2.23606
2.3563
2.62038
3.00492
3.24246
3.32033
3.33718
3.37178
3.47388
3.69244
4.07926
4.47657
4.74059
4.84576
4.82464
4.70469
4.53989
4.41629
4.333
4.27681
4.20646
4.13507
4.09279
4.04481
3.9491
3.82646
3.7333
3.64044
3.71271
3.59855
3.29865
2.88032
2.54644
2.1443
1.74325
1.5923
1.46835
1.24893
1.15657
1.1302
1.06978
0.973924
0.960803
0.971154
0.960872
0.944737
0.950098
0.965405
1.11289
1.79934
2.81323
3.17833
3.29131
3.29464
3.21284
3.12183
3.03055
3.12155
3.70895
5.06578
6.34528
6.46323
6.40182
6.17414
5.92579
5.67598
5.43062
5.20554
5.00081
4.80586
4.61272
4.41954
4.2384
4.08467
3.96343
3.86415
3.76614
3.66492
3.56251
3.45795
3.32909
3.20444
3.08781
2.97808
2.8806
2.80034
2.73127
2.65984
2.59856
2.54618
2.47776
2.38675
2.30218
2.24737
2.23968
2.28525
2.50497
2.92701
3.29876
3.49902
3.51717
3.4844
3.42006
3.35035
3.3168
3.33189
3.43627
3.66748
4.02488
4.35707
4.5164
4.59008
4.60216
4.54352
4.45333
4.35288
4.2486
4.14439
4.06262
4.00428
3.93391
3.84043
3.75139
3.64524
3.74069
3.70756
3.57579
3.28479
2.93932
2.62622
2.2208
1.86872
1.74043
1.6021
1.38175
1.26911
1.20231
1.09222
1.00086
0.987723
0.972425
0.952695
0.971283
1.19114
1.89454
2.93197
3.23276
3.21732
3.18356
3.10571
3.01751
2.93332
2.86512
2.77107
2.78202
3.05455
4.11293
5.38908
6.08193
6.08562
5.88223
5.57375
5.32182
5.1401
4.98697
4.8181
4.62394
4.41149
4.21781
4.06313
3.93951
3.8262
3.70921
3.5887
3.47681
3.3956
3.33207
3.24259
3.12522
3.00306
2.8879
2.79034
2.69362
2.59958
2.52478
2.4726
2.43901
2.4093
2.35689
2.34896
2.45727
2.76309
3.19636
3.61002
3.68871
3.64165
3.57731
3.50974
3.43779
3.36804
3.29886
3.25595
3.17725
3.17685
3.29828
3.61828
4.021
4.34715
4.55112
4.57682
4.53813
4.41105
4.24912
4.10314
4.00061
3.93233
3.87005
3.8139
3.77231
3.68261
3.75054
3.741
3.70585
3.56591
3.28615
2.96753
2.66438
2.32531
2.02743
1.85321
1.67428
1.5141
1.42132
1.30362
1.13307
1.0868
1.08028
1.11696
1.39433
2.17799
3.07867
3.39266
3.33698
3.19957
3.06422
2.96133
2.88431
2.80224
2.71847
2.6376
2.57458
2.50246
2.61406
3.26114
4.45399
5.42309
5.536
5.4788
5.33165
5.15132
4.96858
4.7838
4.60056
4.41323
4.22487
4.04906
3.90679
3.79444
3.69222
3.59139
3.48024
3.36344
3.25137
3.16881
3.12088
3.05332
2.93775
2.77997
2.6326
2.55239
2.50857
2.47094
2.4437
2.43998
2.48178
2.69814
3.11164
3.54473
3.81167
3.84919
3.80497
3.69701
3.59916
3.52677
3.47276
3.42113
3.35882
3.26682
3.14033
3.04932
3.04616
3.11275
3.37385
3.80334
4.21525
4.40565
4.41824
4.39934
4.28959
4.10176
3.95661
3.87835
3.83274
3.80439
3.7809
3.71159
3.72154
3.73433
3.71924
3.6828
3.53958
3.29286
2.97555
2.67937
2.4206
2.20001
1.93234
1.71113
1.63263
1.55239
1.39448
1.24512
1.28923
1.69676
2.65282
3.4685
3.6778
3.55966
3.36435
3.18326
3.03392
2.92809
2.83535
2.73875
2.63523
2.56168
2.48877
2.42844
2.32399
2.33191
2.60615
3.48573
4.58327
5.14806
5.2347
5.12305
4.91082
4.70982
4.5426
4.39877
4.23831
4.06199
3.89762
3.75867
3.64209
3.53153
3.41051
3.29711
3.21962
3.1587
3.08654
2.99434
2.87044
2.7264
2.61534
2.55595
2.51406
2.49071
2.50078
2.64217
3.00567
3.47464
3.8486
3.98017
3.95956
3.87427
3.77552
3.69219
3.62795
3.57148
3.50946
3.43425
3.34455
3.23151
3.10296
3.02763
3.00659
3.00136
3.03637
3.2275
3.61221
3.97396
4.22579
4.31254
4.28395
4.11753
3.92919
3.8674
3.83986
3.82274
3.7983
3.71742
3.70805
3.70823
3.7077
3.68742
3.63292
3.49668
3.28524
2.98345
2.67273
2.49993
2.29682
2.04645
1.78425
1.71977
1.63582
1.73184
2.34256
3.41675
4.13727
4.11127
3.93346
3.70031
3.47397
3.27233
3.10147
2.96827
2.84223
2.72388
2.60893
2.52166
2.43744
2.36431
2.27529
2.21266
2.13878
2.21461
2.7237
3.69344
4.58443
4.80143
4.78533
4.65879
4.49494
4.35224
4.21516
4.05242
3.87871
3.71702
3.57911
3.4616
3.355
3.26299
3.19139
3.123
3.04851
2.95797
2.8382
2.70745
2.60967
2.56352
2.55035
2.60948
2.899
3.40345
3.93355
4.15125
4.14034
4.10021
3.99326
3.86792
3.76893
3.69847
3.64933
3.5996
3.54091
3.46622
3.35685
3.20706
3.08469
3.03121
3.00113
2.97465
2.9775
2.9895
3.09679
3.32675
3.60586
3.90076
4.03872
3.98992
3.92324
3.87814
3.86807
3.84616
3.81466
3.73482
3.76509
3.74351
3.72074
3.70121
3.68337
3.62371
3.48252
3.26251
3.01105
2.70597
2.52496
2.32196
2.08802
1.9938
2.22293
3.134
4.38532
4.7958
4.68654
4.39989
4.11353
3.87289
3.64358
3.4187
3.21865
3.05583
2.90817
2.77279
2.65489
2.54299
2.43497
2.33493
2.24266
2.15728
2.08733
1.99646
1.98753
2.19239
2.90892
3.8675
4.4905
4.56831
4.48698
4.319
4.15798
4.00018
3.8444
3.68806
3.5302
3.39425
3.30112
3.22351
3.15416
3.08669
3.0151
2.92396
2.81025
2.70445
2.6231
2.62803
2.79765
3.24592
3.85846
4.24977
4.3403
4.30595
4.20836
4.08097
3.96232
3.8718
3.79337
3.72947
3.67568
3.62207
3.56253
3.48366
3.35618
3.18785
3.09384
3.05343
3.01751
2.98637
2.96208
2.95338
2.94288
2.95727
3.03634
3.24306
3.53479
3.78012
3.85803
3.90597
3.89372
3.85921
3.82702
3.74172
3.77534
3.75415
3.72932
3.71683
3.71267
3.69118
3.61729
3.46682
3.26731
2.99896
2.77364
2.49392
2.53488
3.04849
4.25445
5.43957
5.60718
5.37959
4.99998
4.64426
4.34363
4.08641
3.84546
3.60989
3.38991
3.18484
2.99072
2.81908
2.68658
2.56313
2.45454
2.35696
2.26603
2.17263
2.08513
1.97462
1.90368
1.84187
1.91014
2.3482
3.23273
4.00443
4.24506
4.21821
4.09802
3.9524
3.80953
3.66268
3.49954
3.35535
3.26154
3.18714
3.11611
3.04253
2.97162
2.88824
2.82138
2.73715
2.77748
3.04889
3.64822
4.22415
4.57441
4.61627
4.56478
4.41916
4.23374
4.07531
3.94218
3.86075
3.7992
3.74374
3.69331
3.64085
3.57902
3.49631
3.37014
3.20783
3.10744
3.06489
3.03078
2.99931
2.96778
2.94069
2.91083
2.88478
2.82623
2.83208
2.97458
3.28657
3.61268
3.78163
3.87763
3.88434
3.85261
3.75614
3.70174
3.67046
3.68058
3.69792
3.70304
3.7034
3.67305
3.59533
3.42752
3.24543
3.0199
3.20176
4.21453
5.70283
6.37641
6.30381
5.97438
5.59171
5.22745
4.89313
4.58186
4.29177
4.02576
3.78176
3.55976
3.34685
3.13844
2.94125
2.76142
2.58854
2.44724
2.35408
2.28185
2.20099
2.11054
2.00893
1.90158
1.82106
1.7537
1.75977
1.98093
2.60227
3.4028
3.87753
3.95554
3.90033
3.77422
3.64342
3.47959
3.32592
3.22255
3.14717
3.07917
3.00211
2.94484
2.89345
2.89862
3.03868
3.48139
4.10451
4.56845
4.65281
4.67544
4.6364
4.55501
4.43728
4.2772
4.09806
3.93827
3.84761
3.79404
3.74197
3.69289
3.645
3.58699
3.51074
3.39735
3.24112
3.12504
3.07933
3.04394
3.00896
2.97251
2.93794
2.90141
2.8636
2.80791
2.70973
2.7062
2.82566
3.11878
3.45498
3.7273
3.82445
3.82164
3.74425
3.38369
3.70832
3.81427
3.80056
3.75333
3.69794
3.68601
3.66712
3.55845
3.56779
4.13653
5.72025
7.23688
7.63449
7.39972
6.80477
6.2555
5.81155
5.42732
5.07389
4.75265
4.46372
4.19853
3.94705
3.70696
3.46983
3.23764
3.02338
2.83534
2.67483
2.539
2.41571
2.3007
2.19246
2.0881
2.01161
1.93236
1.8437
1.74666
1.69673
1.67388
1.7355
2.08695
2.80423
3.43558
3.67842
3.66429
3.55418
3.40661
3.28076
3.17655
3.08967
3.03533
2.99041
2.97188
3.08119
3.4593
4.06606
4.61224
4.92794
4.9331
4.83686
4.69925
4.57527
4.48809
4.40342
4.28837
4.12983
3.96661
3.86272
3.80405
3.74939
3.69319
3.63924
3.57794
3.50227
3.40558
3.28155
3.15885
3.0953
3.05875
3.02281
2.9845
2.94346
2.89693
2.84397
2.7787
2.68766
2.63583
2.63571
2.71451
2.95121
3.27639
3.58698
3.68116
3.64436
2.50188
3.38788
3.73261
3.72946
3.70814
3.68807
3.68197
3.70908
4.02904
5.37465
7.54119
8.49244
8.40556
8.12573
7.67076
7.1249
6.56792
6.05047
5.59173
5.19075
4.85217
4.57428
4.32517
4.07556
3.82612
3.57685
3.32246
3.08542
2.88232
2.72496
2.60265
2.49108
2.37488
2.26317
2.15058
2.03982
1.92429
1.82728
1.77418
1.71172
1.6313
1.57508
1.58683
1.7595
2.27143
2.92317
3.37111
3.44652
3.40209
3.27362
3.14098
3.05701
3.02808
3.0827
3.3658
3.98197
4.73641
5.0509
5.03303
4.98182
4.90044
4.82882
4.74354
4.61991
4.48782
4.38058
4.27734
4.15599
4.02021
3.90885
3.82623
3.75606
3.6946
3.64213
3.58444
3.50446
3.40253
3.29621
3.19799
3.12187
3.06994
3.02749
2.98798
2.94739
2.90922
2.85705
2.78318
2.70022
2.61932
2.59038
2.58265
2.62358
2.78436
3.04337
3.32521
3.47046
1.39334
2.26899
3.22603
3.50913
3.69261
3.7708
3.92378
4.69085
6.61089
8.81621
9.92685
9.80274
9.0826
8.34479
7.83004
7.33893
6.80292
6.26487
5.77402
5.34775
4.96557
4.63113
4.36181
4.13133
3.90192
3.65952
3.40635
3.17375
2.98139
2.82044
2.65722
2.48951
2.34834
2.2537
2.17009
2.07134
1.9713
1.87268
1.77149
1.66829
1.58504
1.52526
1.49734
1.47976
1.55359
1.86265
2.48514
2.9942
3.17389
3.17494
3.13208
3.13174
3.33955
3.872
4.60631
5.25245
5.52374
5.49516
5.30899
5.04704
4.86711
4.78957
4.7088
4.60946
4.4807
4.34104
4.22752
4.13894
4.05713
3.96956
3.87299
3.78039
3.69983
3.63288
3.56513
3.48144
3.38279
3.28716
3.20961
3.14618
3.09087
3.0401
2.99283
2.94614
2.89164
2.82768
2.76009
2.69979
2.6405
2.58784
2.5551
2.5375
2.55043
2.61479
2.76265
3.0888
1.02858
1.22852
2.04669
2.86325
3.66597
4.49822
5.68509
7.75291
9.20442
9.82704
9.97952
9.82707
9.3844
8.72864
8.10925
7.51141
6.92197
6.38987
5.93695
5.53923
5.1523
4.76508
4.42552
4.12777
3.86052
3.61652
3.42112
3.25313
3.08916
2.91017
2.71237
2.53488
2.40077
2.28468
2.16757
2.0512
1.95922
1.87598
1.77927
1.67496
1.59125
1.53953
1.49219
1.45472
1.42057
1.43247
1.58905
2.06943
2.58497
3.01957
3.33534
3.71813
4.55654
5.2388
5.57498
5.60988
5.55264
5.48872
5.33512
5.1218
4.94797
4.80767
4.68329
4.5699
4.47234
4.36631
4.24685
4.15587
4.08388
4.00953
3.92064
3.81999
3.71334
3.62821
3.56394
3.49101
3.40917
3.33248
3.26584
3.2052
3.14787
3.08764
3.02229
2.95567
2.88823
2.8269
2.76688
2.71234
2.6729
2.63717
2.59592
2.52975
2.48608
2.44623
2.46182
2.67357
1.00043
1.01056
1.18726
1.83369
3.85003
6.18803
8.01929
9.93358
10.7654
10.4506
10.0966
9.78063
9.50134
9.02158
8.28257
7.5432
6.92772
6.42801
5.99292
5.58654
5.26973
4.97826
4.61431
4.24606
3.94139
3.68177
3.45872
3.26645
3.07065
2.88508
2.77075
2.66229
2.5219
2.35645
2.21317
2.09913
2.00529
1.90565
1.78158
1.70522
1.6518
1.60046
1.54691
1.48688
1.40168
1.35384
1.35812
1.4396
1.77488
2.75752
3.91475
4.73088
5.69432
6.15601
6.09395
5.92532
5.64455
5.35574
5.21795
5.12365
5.00992
4.85091
4.67973
4.55253
4.43834
4.3191
4.22215
4.1365
4.05613
3.9938
3.93429
3.85731
3.74569
3.61899
3.51834
3.44447
3.37522
3.31145
3.24851
3.18347
3.12249
3.05979
2.9893
2.93505
2.90446
2.86366
2.81267
2.75775
2.7064
2.63998
2.57346
2.50869
2.44985
2.38673
2.37182
2.43804
1.00053
1.01862
1.14987
2.00689
3.47495
5.99357
8.48489
9.83729
10.8315
10.6213
10.0458
9.64037
9.31317
8.79253
8.10586
7.45742
6.96258
6.55247
6.14147
5.7249
5.30054
4.87851
4.50033
4.14613
3.86456
3.71413
3.55998
3.36789
3.16306
2.96121
2.76122
2.57548
2.40389
2.23379
2.12379
2.09331
2.0618
1.98145
1.85705
1.71737
1.60121
1.53288
1.48228
1.43756
1.38434
1.34215
1.35413
1.44864
1.89006
2.69295
3.87155
5.04098
5.66502
6.0709
6.10396
5.88589
5.51892
5.28793
5.19308
5.13775
5.05182
4.89507
4.70964
4.56222
4.42189
4.28887
4.21824
4.15354
4.0803
4.01312
3.94447
3.86156
3.75407
3.62507
3.50832
3.43068
3.3782
3.32088
3.25784
3.18954
3.12283
3.05836
2.99748
2.9351
2.86949
2.82591
2.79008
2.74986
2.70349
2.64277
2.57528
2.51132
2.44795
2.38383
2.36762
2.46412
1.0267
1.30277
1.97421
3.09278
3.34591
4.27367
6.09553
7.70741
9.53303
10.0397
9.98574
9.71247
9.21164
8.54224
7.95376
7.43146
6.90493
6.39483
5.95332
5.57321
5.19794
4.82471
4.48591
4.18644
3.90904
3.63601
3.3948
3.19348
3.01296
2.85354
2.70598
2.55516
2.37733
2.20214
2.11771
2.05794
1.97673
1.89825
1.80924
1.70503
1.60781
1.53341
1.46944
1.43206
1.40796
1.42675
1.58965
1.99209
2.68375
2.90702
3.30552
4.05559
4.54154
5.18068
5.55171
5.53914
5.49074
5.40861
5.30164
5.14221
4.9741
4.86175
4.74647
4.58191
4.42621
4.3149
4.21722
4.13294
4.06023
3.99597
3.92823
3.85239
3.76767
3.66054
3.55041
3.45445
3.36645
3.28847
3.23787
3.20158
3.15321
3.0931
3.03053
2.9546
2.87296
2.81661
2.79352
2.76796
2.72533
2.6693
2.6033
2.53476
2.47513
2.42516
2.44867
2.70333
1.40268
2.36401
3.14004
3.62967
3.66914
3.72064
3.98358
4.69932
6.53949
8.8605
9.88293
9.67608
8.9223
8.21598
7.756
7.34591
6.86651
6.35547
5.87611
5.43815
5.03896
4.68297
4.36434
4.0797
3.82146
3.56715
3.33844
3.14844
2.98982
2.83784
2.67044
2.49249
2.36217
2.28086
2.17133
2.03784
1.9214
1.85749
1.81496
1.7533
1.68361
1.58947
1.51991
1.48808
1.55164
1.88793
2.42892
2.95457
3.23589
3.20351
3.16062
3.21824
3.35055
3.76686
4.48323
5.11764
5.41023
5.46241
5.34822
5.14559
4.97579
4.85884
4.73571
4.56155
4.38654
4.27809
4.20537
4.13956
4.06808
3.99605
3.92299
3.83899
3.72969
3.61392
3.51596
3.43086
3.35121
3.28969
3.23521
3.17125
3.10395
3.03466
2.97193
2.93501
2.89791
2.85037
2.7923
2.73053
2.67235
2.62287
2.57911
2.54432
2.52212
2.56836
2.73826
3.12046
2.62561
3.4166
3.64302
3.67828
3.68335
3.68161
3.69977
3.75233
4.0391
5.38956
7.63056
8.44549
8.3263
8.0619
7.6538
7.19701
6.6818
6.16934
5.6872
5.24751
4.86437
4.53592
4.24977
3.99081
3.74854
3.526
3.32086
3.11939
2.92302
2.74454
2.60893
2.50745
2.38718
2.24173
2.10531
1.98014
1.89589
1.83481
1.76299
1.68518
1.63389
1.58515
1.59315
1.75701
2.29086
2.9395
3.29482
3.44458
3.42116
3.35695
3.23695
3.13139
3.01539
3.02571
3.25948
3.88368
4.59863
5.07465
5.15716
5.12496
5.0513
4.89624
4.7034
4.50561
4.36782
4.27208
4.21433
4.15503
4.07941
3.99894
3.91677
3.82072
3.70922
3.59674
3.49828
3.42158
3.36347
3.30903
3.24682
3.17571
3.09791
3.02275
2.96036
2.90462
2.85457
2.80961
2.76136
2.71244
2.66498
2.63502
2.60717
2.63024
2.72096
2.9531
3.21377
3.441
3.49814
3.70733
3.77377
3.76761
3.73136
3.70336
3.68562
3.65477
3.55132
3.57805
4.21488
5.75325
7.25021
7.65442
7.42679
6.86425
6.31633
5.8631
5.45708
5.07312
4.71682
4.39579
4.11337
3.8635
3.64005
3.43468
3.24339
3.06488
2.90319
2.74897
2.5913
2.43837
2.29306
2.16453
2.06684
1.99337
1.91347
1.83344
1.75741
1.70384
1.66594
1.73557
2.09409
2.78978
3.47438
3.6295
3.64561
3.57477
3.45991
3.3581
3.25474
3.12862
3.00041
2.92855
2.91474
3.01508
3.42249
4.08642
4.7238
5.06666
5.047
4.89276
4.64207
4.45967
4.37827
4.30788
4.24451
4.16701
4.07132
3.97402
3.88098
3.78057
3.67354
3.5748
3.49193
3.42259
3.36087
3.30313
3.24317
3.17689
3.10673
3.03302
2.95327
2.8811
2.82824
2.78287
2.74375
2.70489
2.68779
2.69637
2.76791
2.92072
3.16733
3.42102
3.50441
3.55649
3.74403
3.7073
3.6811
3.68285
3.68745
3.69384
3.66806
3.58705
3.41577
3.23307
3.02623
3.22059
4.23025
5.70752
6.45181
6.35785
6.00308
5.61715
5.24081
4.87089
4.52193
4.21148
3.94711
3.72374
3.53132
3.35024
3.17447
2.99698
2.82553
2.65692
2.49244
2.35801
2.25999
2.16816
2.07346
1.97925
1.89339
1.82794
1.76722
1.7821
1.99845
2.62345
3.41818
3.8625
3.92913
3.86273
3.73289
3.61648
3.50477
3.39118
3.28864
3.16639
3.02612
2.92893
2.87593
2.84962
2.88058
3.0674
3.54552
4.23612
4.66733
4.65342
4.57578
4.52154
4.43639
4.34238
4.24381
4.15646
4.0604
3.95867
3.85374
3.74199
3.63178
3.54233
3.47392
3.41389
3.35593
3.30093
3.24585
3.18635
3.12062
3.04448
2.95294
2.86245
2.8019
2.76048
2.74126
2.73741
2.77844
2.95577
3.22553
3.4937
3.65925
3.65025
3.60504
3.56003
3.78236
3.76693
3.73823
3.71335
3.70631
3.68961
3.61924
3.46577
3.25793
2.98965
2.77029
2.49451
2.53824
3.05049
4.2671
5.42754
5.58053
5.36506
4.988
4.62025
4.3013
4.03948
3.81539
3.60993
3.41563
3.22586
3.04922
2.88631
2.74318
2.60833
2.47002
2.32967
2.22666
2.13386
2.04828
1.96152
1.89619
1.86281
1.94807
2.41777
3.28459
4.05636
4.23184
4.15641
3.98935
3.86002
3.75925
3.6693
3.5703
3.45502
3.33738
3.20831
3.08814
2.9907
2.91776
2.85124
2.80457
2.75987
2.81375
3.11032
3.68576
4.25331
4.48084
4.5246
4.46368
4.33832
4.2258
4.14418
4.06205
3.96826
3.85811
3.72988
3.60411
3.5105
3.4495
3.39624
3.34113
3.28868
3.24108
3.19008
3.12959
3.05317
2.95705
2.85348
2.78609
2.77295
2.77894
2.87404
3.14018
3.53622
3.79978
3.90981
3.90393
3.77368
3.61416
3.56102
3.76398
3.74315
3.72459
3.70193
3.68167
3.62378
3.48437
3.26097
3.00601
2.70027
2.52463
2.31994
2.08649
1.99232
2.21804
3.09583
4.32109
4.77595
4.66218
4.3696
4.07847
3.8453
3.6406
3.44716
3.2666
3.10503
2.9611
2.83296
2.70338
2.57334
2.42886
2.27207
2.18178
2.11733
2.05275
1.98753
1.99992
2.26536
3.03841
4.02533
4.55089
4.55241
4.45897
4.25502
4.06124
3.92514
3.82174
3.73044
3.62842
3.49979
3.3594
3.23195
3.13627
3.05128
2.97001
2.88607
2.80308
2.73506
2.66642
2.67063
2.8194
3.27283
3.79248
4.17578
4.23227
4.25071
4.23853
4.17215
4.08455
3.98338
3.86312
3.7289
3.59745
3.49304
3.42686
3.37618
3.32515
3.27212
3.22359
3.17333
3.11293
3.04469
2.95394
2.85623
2.8115
2.83307
2.97843
3.30974
3.71419
4.03903
4.096
4.09022
4.0055
3.80089
3.63578
3.56478
3.70772
3.70759
3.70697
3.68675
3.63488
3.50308
3.29109
2.98382
2.67382
2.49952
2.29433
2.04142
1.78474
1.72217
1.63494
1.72006
2.30108
3.41093
4.12889
4.0898
3.92369
3.69375
3.4762
3.30402
3.15112
3.01047
2.87216
2.74954
2.63226
2.52835
2.41254
2.28518
2.19562
2.15211
2.10911
2.20546
2.74799
3.83755
4.74282
4.90276
4.82837
4.6172
4.42395
4.25599
4.11619
3.9999
3.89131
3.78202
3.66748
3.53255
3.3801
3.24812
3.15876
3.08724
3.01455
2.93123
2.83927
2.74436
2.65219
2.61615
2.59492
2.65443
2.87701
3.3221
3.81795
4.03401
4.16405
4.17643
4.10693
4.00223
3.87647
3.74414
3.61065
3.4971
3.42149
3.36114
3.30474
3.2462
3.19369
3.14274
3.09126
3.03601
2.96071
2.90204
2.94466
3.14298
3.49066
3.84372
4.10344
4.17178
4.16189
4.09207
3.96688
3.80247
3.69076
3.59672
3.72243
3.73502
3.71928
3.68264
3.54016
3.29414
2.97773
2.68098
2.42073
2.19789
1.92744
1.71207
1.63554
1.55331
1.39012
1.24428
1.28618
1.70255
2.67326
3.46269
3.68338
3.57536
3.38077
3.21073
3.06282
2.93498
2.83003
2.73071
2.63928
2.54768
2.44699
2.34573
2.25447
2.27649
2.5876
3.50022
4.59804
5.29366
5.31993
5.21805
4.91894
4.62343
4.4215
4.2748
4.15974
4.05177
3.94722
3.83733
3.70723
3.56089
3.39861
3.26643
3.17916
3.11213
3.04596
2.96914
2.87265
2.77935
2.71188
2.64133
2.56495
2.50998
2.49162
2.57835
2.93165
3.39695
3.77157
3.99664
4.00527
3.96781
3.88686
3.75727
3.61716
3.49751
3.41637
3.3541
3.29387
3.22715
3.17451
3.12106
3.09688
3.05298
3.05035
3.15485
3.42665
3.7989
4.03655
4.17837
4.22628
4.17484
4.106
4.01751
3.91062
3.82595
3.78035
3.66756
3.75042
3.74102
3.70618
3.56617
3.28663
2.96959
2.66511
2.32341
2.02752
1.85324
1.67386
1.51563
1.42181
1.30027
1.13024
1.08819
1.08333
1.12169
1.41299
2.20101
3.0685
3.42253
3.38268
3.2563
3.09803
2.95068
2.85116
2.76398
2.70068
2.62736
2.54933
2.47048
2.57821
3.22182
4.49229
5.44709
5.62305
5.56292
5.38967
5.16234
4.89579
4.66043
4.46331
4.31161
4.20242
4.09981
3.98429
3.88252
3.77899
3.62017
3.44225
3.30213
3.20226
3.11987
3.04419
2.97665
2.91103
2.83904
2.74064
2.63736
2.55198
2.47656
2.4327
2.38062
2.40474
2.61273
3.01069
3.51443
3.83481
3.88372
3.86269
3.76051
3.62789
3.51978
3.44326
3.36157
3.27895
3.20908
3.16214
3.1353
3.13722
3.22222
3.44713
3.79111
4.12877
4.33772
4.33977
4.26632
4.16798
4.09969
4.03396
3.98407
3.93807
3.89053
3.85068
3.72238
3.74069
3.70755
3.57583
3.28481
2.94044
2.62668
2.21823
1.86873
1.74246
1.60215
1.38068
1.27007
1.2016
1.08955
1.00041
0.988045
0.973425
0.953416
0.974267
1.19277
1.91784
2.83434
3.30897
3.28857
3.20288
3.05679
2.95344
2.87015
2.82536
2.76221
2.78573
3.09803
4.17602
5.48599
6.20877
6.13897
5.9193
5.56515
5.29934
5.07187
4.88288
4.69844
4.53031
4.38047
4.26792
4.17727
4.08726
3.94455
3.74795
3.57689
3.45854
3.35915
3.25935
3.16109
3.072
2.99213
2.91286
2.83351
2.75218
2.65529
2.55847
2.48183
2.42679
2.38023
2.32098
2.30296
2.39906
2.72099
3.23163
3.59805
3.71058
3.67932
3.58473
3.47692
3.38949
3.30829
3.23335
3.20754
3.18581
3.22433
3.41679
3.78331
4.18972
4.45499
4.59616
4.58968
4.49801
4.31175
4.13306
4.03723
3.99064
3.95062
3.90876
3.86706
3.83896
3.74942
3.71269
3.59843
3.29821
2.88113
2.54735
2.14267
1.74196
1.59311
1.46941
1.24862
1.15683
1.13063
1.069
0.973161
0.960959
0.971318
0.961214
0.945309
0.95006
0.963908
1.12436
1.75567
2.78379
3.26519
3.29935
3.26521
3.16933
3.06226
2.97261
3.0663
3.66848
5.16212
6.49168
6.58476
6.47838
6.22327
5.88424
5.5648
5.28763
5.04483
4.89399
4.78614
4.67147
4.55348
4.42654
4.26546
4.06274
3.87175
3.69883
3.56615
3.46491
3.37769
3.29453
3.21469
3.13884
3.0571
2.97223
2.87487
2.75609
2.6478
2.56212
2.4877
2.41985
2.3593
2.30688
2.26313
2.24512
2.28969
2.524
2.90238
3.30207
3.53027
3.54109
3.49159
3.39698
3.32747
3.27435
3.27256
3.35277
3.60415
4.02227
4.46144
4.65878
4.69092
4.67573
4.61536
4.49527
4.30894
4.12358
4.0235
3.98279
3.95628
3.93234
3.89528
3.84843
3.72883
3.64584
3.33602
2.83611
2.40507
2.02535
1.61603
1.38702
1.26792
1.11929
0.990487
0.968538
0.942868
0.914184
0.916202
0.932661
0.959404
0.96414
0.96554
0.976611
0.998573
1.02257
1.13909
1.70728
2.65325
3.3064
3.32793
3.30632
3.32512
3.54755
4.52691
6.11898
7.16276
7.25774
7.01216
6.4833
6.08407
5.81033
5.57457
5.34075
5.13454
4.98398
4.83105
4.66866
4.50703
4.35873
4.20408
4.02833
3.84628
3.69061
3.57987
3.49868
3.42128
3.34109
3.25208
3.14564
3.02705
2.92225
2.8312
2.73334
2.64107
2.5671
2.50683
2.45091
2.39115
2.33602
2.281
2.23521
2.16112
2.15839
2.25492
2.53637
2.94467
3.28224
3.40941
3.40756
3.41532
3.49432
3.6448
3.92405
4.29528
4.62504
4.83309
4.85922
4.82024
4.70347
4.56175
4.43252
4.29756
4.18138
4.05878
3.95769
3.91194
3.88224
3.85059
3.80964
3.71087
3.38259
2.74782
2.21559
1.82312
1.41492
1.20213
1.15452
1.0721
0.991772
0.953814
0.923541
0.903096
0.904138
0.923975
0.964248
0.99902
1.00465
1.00318
1.0079
1.02099
1.02357
1.03396
1.1121
1.6121
2.62908
3.05363
3.54772
4.30021
5.55119
6.71017
7.5507
7.47313
7.11287
6.73165
6.387
6.06575
5.84723
5.67528
5.50295
5.33738
5.16019
4.96129
4.75732
4.55739
4.35617
4.16562
4.00847
3.87997
3.7664
3.6811
3.60367
3.52206
3.4343
3.33249
3.21107
3.07369
2.93209
2.82187
2.74535
2.6791
2.62556
2.5809
2.5353
2.48693
2.43806
2.3781
2.29058
2.16702
2.05322
2.04942
2.10493
2.31935
2.70443
3.11295
3.38591
3.76272
4.17437
4.42713
4.53739
4.67538
4.83549
4.88704
4.83205
4.74239
4.6423
4.5205
4.41003
4.3376
4.25208
4.11846
3.99924
3.92065
3.86313
3.81773
3.78887
3.73072
2.66815
1.72082
1.16451
0.817004
0.642941
0.648433
0.719576
0.757915
0.776559
0.832092
0.888113
0.921952
0.951512
1.00472
1.05543