/*--------------------------------*- C++ -*----------------------------------*\
  =========                 |
  \\      /  F ield         | OpenFOAM: The Open Source CFD Toolbox
   \\    /   O peration     | Website:  https://openfoam.org
    \\  /    A nd           | Version:  7
     \\/     M anipulation  |
\*---------------------------------------------------------------------------*/
FoamFile
{
    version     2.0;
    format      ascii;
    class       volScalarField;
    location    "3.6";
    object      rho;
}
// * * * * * * * * * * * * * * * * * * * * * * * * * * * * * * * * * * * * * //

dimensions      [1 -3 0 0 0 0 0];

internalField   nonuniform List<scalar> 
4608
(
1.40001
1.40001
1.40001
1.40001
1.40001
1.40001
1.40001
1.40001
1.40001
1.40001
1.40001
1.40001
1.40001
1.40001
1.40001
1.40001
1.40001
1.40001
1.40001
1.40001
1.40001
1.40001
1.40001
1.40001
1.40001
1.40001
1.40001
1.40001
1.40001
1.40001
1.40001
1.40001
1.40001
1.40001
1.40001
1.40001
1.40001
1.40001
1.40001
1.40001
1.40001
1.40001
1.40001
1.40001
1.40001
1.40001
1.40001
1.40001
1.40001
1.40001
1.40001
1.40001
1.40001
1.40001
1.40001
1.40001
1.40001
1.40001
1.40001
1.40001
1.40001
1.40001
1.40001
1.40001
1.40001
1.40001
1.40001
1.40001
1.40001
1.40001
1.40001
1.40001
1.40001
1.40001
1.40001
1.40001
1.40001
1.40001
1.40001
1.40001
1.40001
1.40001
1.40001
1.40001
1.40001
1.40001
1.40001
1.40001
1.40001
1.40001
1.40001
1.40001
1.40001
1.40001
1.40001
1.40001
1.40001
1.40001
1.40001
1.40001
1.40001
1.40001
1.40001
1.40001
1.40001
1.40001
1.40001
1.40001
1.40001
1.40001
1.40001
1.40001
1.40001
1.40001
1.40001
1.40001
1.40001
1.40001
1.40001
1.40001
1.40001
1.40001
1.40001
1.40001
1.40001
1.40001
1.40001
1.40001
1.40001
1.40001
1.40001
1.40001
1.40001
1.40001
1.40001
1.40001
1.40001
1.40001
1.40001
1.40001
1.40001
1.40001
1.40001
1.40001
1.40001
1.40001
1.40001
1.40001
1.40001
1.40001
1.40001
1.40001
1.40001
1.40001
1.40001
1.40001
1.40001
1.40001
1.40001
1.40001
1.40001
1.40001
1.40001
1.40001
1.40001
1.40001
1.40001
1.40001
1.40001
1.40001
1.40001
1.40001
1.40001
1.40001
1.40001
1.40001
1.40001
1.40001
1.40001
1.40001
1.40001
1.40001
1.40001
1.40001
1.40001
1.40001
1.40001
1.40001
1.40001
1.40001
1.40001
1.40001
1.40001
1.40001
1.40001
1.40001
1.40001
1.40001
1.40001
1.40001
1.40001
1.40001
1.40001
1.40001
1.40001
1.40001
1.40001
1.40001
1.40001
1.40001
1.40001
1.40001
1.40001
1.40001
1.40001
1.40001
1.40001
1.40001
1.40001
1.40001
1.40001
1.40001
1.40001
1.40001
1.40001
1.40001
1.40001
1.40001
1.40001
1.40001
1.40001
1.40001
1.40001
1.40001
1.40001
1.40001
1.40001
1.40001
1.40001
1.40001
1.40001
1.40001
1.40001
1.40001
1.40001
1.40001
1.40001
1.40001
1.40001
1.40001
1.40001
1.40001
1.40001
1.40001
1.40001
1.40001
1.40001
1.40001
1.40001
1.40001
1.40001
1.40001
1.40001
1.40001
1.40001
1.40001
1.40001
1.40001
1.40001
1.40001
1.40001
1.40001
1.40001
1.40001
1.40001
1.40001
1.40001
1.40001
1.40001
1.40001
1.40001
1.40001
1.40001
1.40001
1.40001
1.40001
1.40001
1.40001
1.40001
1.40001
1.40001
1.40001
1.40001
1.40001
1.40001
1.40001
1.40001
1.40001
1.40001
1.40001
1.40001
1.40001
1.40001
1.40001
1.40001
1.40001
1.40001
1.40001
1.40001
1.40001
1.40001
1.40001
1.40001
1.40001
1.40001
1.40001
1.40001
1.40001
1.40001
1.40001
1.40001
1.40001
1.40001
1.40001
1.40001
1.40001
1.40001
1.40001
1.40001
1.40001
1.40001
1.40001
1.40001
1.40001
1.40001
1.40001
1.40001
1.40001
1.40001
1.40001
1.40001
1.40001
1.40001
1.40001
1.40001
1.40001
1.40001
1.40001
1.40001
1.40001
1.40001
1.40001
1.40001
1.40001
1.40001
1.40001
1.40001
1.40001
1.40001
1.40001
1.40001
1.40001
1.40001
1.40001
1.40001
1.40001
1.40001
1.40001
1.40001
1.40001
1.40001
1.40001
1.40001
1.40001
1.40001
1.40001
1.40001
1.40001
1.40001
1.40001
1.40001
1.40001
1.40001
1.40001
1.40001
1.40001
1.40001
1.40001
1.40001
1.40001
1.40001
1.40001
1.40001
1.40001
1.40001
1.40001
1.40001
1.40001
1.40001
1.40001
1.40001
1.40001
1.40001
1.40001
1.40001
1.40001
1.40001
1.40001
1.40001
1.40001
1.40001
1.40001
1.40001
1.40001
1.40001
1.40001
1.40001
1.40001
1.40001
1.40001
1.40001
1.40001
1.40001
1.40001
1.40001
1.40001
1.40001
1.40001
1.40001
1.40001
1.40001
1.40001
1.40001
1.40001
1.40001
1.40001
1.40001
1.40001
1.40001
1.40001
1.40001
1.40001
1.40001
1.40001
1.40001
1.40001
1.40001
1.40001
1.40001
1.40001
1.40001
1.40001
1.40001
1.40001
1.40001
1.40001
1.40001
1.40001
1.40001
1.40001
1.40001
1.40001
1.40001
1.40001
1.40001
1.40001
1.40001
1.40001
1.40001
1.40001
1.40001
1.40001
1.40001
1.40001
1.40001
1.40001
1.40001
1.40001
1.40001
1.40001
1.40001
1.40001
1.40001
1.40001
1.40001
1.40001
1.40001
1.40001
1.40001
1.40001
1.40001
1.40001
1.40001
1.40001
1.40001
1.40001
1.40001
1.40001
1.40001
1.40001
1.40001
1.40001
1.40001
1.40001
1.40001
1.40001
1.40001
1.40001
1.40001
1.40001
1.40001
1.40001
1.40001
1.40001
1.40001
1.40001
1.40001
1.40001
1.40001
1.40001
1.40001
1.40001
1.40001
1.40001
1.40001
1.40001
1.40001
1.40001
1.40001
1.40001
1.40001
1.40001
1.40001
1.40001
1.40001
1.40001
1.40001
1.40001
1.40001
1.40001
1.40001
1.40001
1.40001
1.40001
1.40001
1.40001
1.40001
1.40001
1.40001
1.40001
1.40001
1.40001
1.40001
1.40001
1.40001
1.40001
1.40001
1.40001
1.40001
1.40001
1.40001
1.40001
1.40001
1.40001
1.40001
1.40001
1.40001
1.40001
1.40001
1.40001
1.40001
1.40001
1.40001
1.40001
1.40001
1.40001
1.40001
1.40001
1.40001
1.40001
1.40001
1.40001
1.40001
1.40001
1.40001
1.40001
1.40001
1.40001
1.40001
1.40001
1.40001
1.40001
1.40001
1.40001
1.40001
1.40001
1.40001
1.40001
1.40001
1.40001
1.40001
1.40001
1.40001
1.40001
1.40001
1.40001
1.40001
1.40001
1.40001
1.40001
1.40001
1.40001
1.40001
1.40001
1.40001
1.40001
1.40001
1.40001
1.40001
1.40001
1.40001
1.40001
1.40001
1.40001
1.40001
1.40001
1.40001
1.40001
1.40001
1.40001
1.40001
1.40001
1.40001
1.40001
1.40001
1.40001
1.40001
1.40001
1.40001
1.40001
1.40001
1.40001
1.40001
1.40001
1.40001
1.40001
1.40001
1.40001
1.40001
1.40001
1.40001
1.40001
1.40001
1.40001
1.40001
1.40001
1.40001
1.40001
1.40001
1.40001
1.40001
1.40001
1.40001
1.40001
1.40001
1.40001
1.40001
1.40001
1.40001
1.40001
1.40001
1.40001
1.40001
1.40001
1.40001
1.40001
1.40001
1.40001
1.40001
1.40001
1.40001
1.40001
1.40001
1.40001
1.40001
1.40001
1.40001
1.40001
1.40001
1.40001
1.40001
1.40001
1.40001
1.40001
1.40001
1.40001
1.40001
1.40001
1.40001
1.40001
1.40001
1.40001
1.40001
1.40001
1.40001
1.40001
1.40001
1.40001
1.40001
1.40001
1.40001
1.40001
1.40001
1.40001
1.40001
1.40001
1.40001
1.40001
1.40001
1.40001
1.40001
1.40001
1.40001
1.40001
1.40001
1.40001
1.40001
1.40001
1.40001
1.40001
1.40001
1.40001
1.40001
1.40001
1.40001
1.40001
1.40001
1.40001
1.40001
1.40001
1.40001
1.40001
1.40001
1.40001
1.40001
1.40001
1.40001
1.40001
1.40001
1.40001
1.40001
1.40001
1.40001
1.40001
1.40001
1.40001
1.40001
1.40001
1.40001
1.40001
1.40001
1.40001
1.40001
1.40001
1.40001
1.40001
1.40001
1.40001
1.67662
2.0936
2.52888
2.99167
3.4333
3.81424
4.14023
4.40946
4.42536
4.30333
4.04023
3.71715
3.4711
3.36986
3.2997
3.30424
3.33171
3.36321
3.39462
3.40617
3.40867
3.41127
3.41979
3.43651
1.40233
1.41628
1.47933
1.58762
1.80241
2.10712
2.5193
2.96212
3.37415
3.5488
3.6543
3.60415
3.5537
3.49497
3.41227
3.39029
3.37506
3.36506
3.37494
3.38975
3.39579
3.40175
3.41052
3.42436
1.40001
1.39995
1.40023
1.40021
1.40329
1.42174
1.49586
1.71156
2.18085
2.89983
3.42791
3.71413
3.75963
3.7198
3.61506
3.46192
3.3429
3.32771
3.34076
3.35908
3.36808
3.37505
3.38168
3.39209
1.40001
1.4
1.4
1.4
1.39999
1.40004
1.39992
1.4018
1.42702
1.6463
2.16583
2.98159
3.39901
3.56697
3.55303
3.51247
3.40763
3.34357
3.34317
3.32863
3.3277
3.33633
3.34987
3.36179
1.40001
1.40001
1.4
1.4
1.4
1.4
1.39999
1.4
1.39992
1.40146
1.43547
1.68093
2.31493
2.98299
3.47156
3.54588
3.50236
3.44035
3.37626
3.31981
3.29951
3.30735
3.32487
3.34055
1.40001
1.40001
1.40001
1.40001
1.40001
1.4
1.4
1.4
1.4
1.4
1.39993
1.40236
1.47322
1.78027
2.50949
3.1254
3.4557
3.45411
3.4258
3.37337
3.31846
3.3069
3.30639
3.31009
1.40001
1.40001
1.40001
1.40001
1.40001
1.40001
1.40001
1.40001
1.40001
1.4
1.4
1.39998
1.40009
1.4073
1.54317
2.01587
2.82155
3.19622
3.36674
3.39353
3.37024
3.30531
3.2857
3.28174
1.40001
1.40001
1.40001
1.40001
1.40001
1.40001
1.40001
1.40001
1.40001
1.40001
1.4
1.4
1.4
1.39998
1.40134
1.42987
1.70021
2.33256
3.07673
3.33834
3.34111
3.32345
3.30409
3.29552
1.40001
1.40001
1.40001
1.40001
1.40001
1.40001
1.40001
1.40001
1.40001
1.40001
1.40001
1.40001
1.4
1.4
1.4
1.4
1.40777
1.51237
1.9879
2.714
3.2336
3.36481
3.35881
3.34262
1.40001
1.40001
1.40001
1.40001
1.40001
1.40001
1.40001
1.40001
1.40001
1.40001
1.40001
1.40001
1.40001
1.4
1.4
1.4
1.39998
1.40109
1.43798
1.74053
2.47613
3.03196
3.23006
3.33017
1.40001
1.40001
1.40001
1.40001
1.40001
1.40001
1.40001
1.40001
1.40001
1.40001
1.40001
1.40001
1.40001
1.40001
1.40001
1.4
1.4
1.4
1.40018
1.41501
1.57666
2.1825
2.94399
3.30406
1.40001
1.40001
1.40001
1.40001
1.40001
1.40001
1.40001
1.40001
1.40001
1.40001
1.40001
1.40001
1.40001
1.40001
1.40001
1.40001
1.4
1.4
1.4
1.40003
1.40449
1.51315
2.00501
2.78612
1.40001
1.40001
1.40001
1.40001
1.40001
1.40001
1.40001
1.40001
1.40001
1.40001
1.40001
1.40001
1.40001
1.40001
1.40001
1.40001
1.40001
1.40001
1.4
1.4
1.40001
1.40276
1.45852
1.85177
1.40001
1.40001
1.40001
1.40001
1.40001
1.40001
1.40001
1.40001
1.40001
1.40001
1.40001
1.40001
1.40001
1.40001
1.40001
1.40001
1.40001
1.40001
1.40001
1.4
1.4
1.4
1.40095
1.42905
1.40001
1.40001
1.40001
1.40001
1.40001
1.40001
1.40001
1.40001
1.40001
1.40001
1.40001
1.40001
1.40001
1.40001
1.40001
1.40001
1.40001
1.40001
1.40001
1.40001
1.4
1.4
1.4
1.40003
1.40001
1.40001
1.40001
1.40001
1.40001
1.40001
1.40001
1.40001
1.40001
1.40001
1.40001
1.40001
1.40001
1.40001
1.40001
1.40001
1.40001
1.40001
1.40001
1.40001
1.40001
1.4
1.4
1.4
1.40001
1.40001
1.40001
1.40001
1.40001
1.40001
1.40001
1.40001
1.40001
1.40001
1.40001
1.40001
1.40001
1.40001
1.40001
1.40001
1.40001
1.40001
1.40001
1.40001
1.40001
1.4
1.4
1.4
1.40001
1.40001
1.40001
1.40001
1.40001
1.40001
1.40001
1.40001
1.40001
1.40001
1.40001
1.40001
1.40001
1.40001
1.40001
1.40001
1.40001
1.40001
1.40001
1.40001
1.4
1.4
1.4
1.40008
1.40001
1.40001
1.40001
1.40001
1.40001
1.40001
1.40001
1.40001
1.40001
1.40001
1.40001
1.40001
1.40001
1.40001
1.40001
1.40001
1.40001
1.40001
1.40001
1.4
1.4
1.4
1.4011
1.42481
1.40001
1.40001
1.40001
1.40001
1.40001
1.40001
1.40001
1.40001
1.40001
1.40001
1.40001
1.40001
1.40001
1.40001
1.40001
1.40001
1.40001
1.40001
1.4
1.4
1.40001
1.40241
1.46036
1.80562
1.40001
1.40001
1.40001
1.40001
1.40001
1.40001
1.40001
1.40001
1.40001
1.40001
1.40001
1.40001
1.40001
1.40001
1.40001
1.40001
1.4
1.4
1.4
1.40003
1.40461
1.51274
1.97649
2.77957
1.40001
1.40001
1.40001
1.40001
1.40001
1.40001
1.40001
1.40001
1.40001
1.40001
1.40001
1.40001
1.40001
1.40001
1.40001
1.4
1.4
1.4
1.40019
1.41451
1.57815
2.19033
2.905
3.31676
1.40001
1.40001
1.40001
1.40001
1.40001
1.40001
1.40001
1.40001
1.40001
1.40001
1.40001
1.40001
1.40001
1.4
1.4
1.4
1.39998
1.40107
1.43824
1.73783
2.48002
3.02239
3.23499
3.33746
1.40001
1.40001
1.40001
1.40001
1.40001
1.40001
1.40001
1.40001
1.40001
1.40001
1.40001
1.40001
1.4
1.4
1.4
1.4
1.40777
1.51256
1.98429
2.71878
3.23181
3.3619
3.35804
3.34515
1.40001
1.40001
1.40001
1.40001
1.40001
1.40001
1.40001
1.40001
1.40001
1.40001
1.4
1.4
1.4
1.39998
1.40134
1.42983
1.70059
2.33317
3.07224
3.3425
3.34142
3.32265
3.3033
3.29563
1.40001
1.40001
1.40001
1.40001
1.40001
1.40001
1.40001
1.40001
1.40001
1.4
1.4
1.39998
1.40009
1.4073
1.54312
2.01577
2.82225
3.19531
3.36642
3.39428
3.37117
3.3048
3.28492
3.28224
1.40001
1.40001
1.40001
1.40001
1.40001
1.4
1.4
1.4
1.4
1.4
1.39993
1.40236
1.47323
1.78033
2.50909
3.12579
3.45566
3.45392
3.42547
3.37387
3.31896
3.30598
3.30649
3.31037
1.40001
1.40001
1.4
1.4
1.4
1.4
1.39999
1.4
1.39992
1.40146
1.43547
1.68089
2.31509
2.98283
3.4714
3.54601
3.50262
3.44022
3.37606
3.32037
3.29944
3.307
3.32487
3.34074
1.40001
1.4
1.4
1.4
1.39999
1.40004
1.39992
1.4018
1.42702
1.64631
2.16576
2.98175
3.39902
3.56679
3.55297
3.51249
3.40809
3.34333
3.34293
3.32899
3.32779
3.33626
3.34988
3.3618
1.40001
1.39995
1.40023
1.40021
1.40329
1.42174
1.49587
1.71156
2.18085
2.89986
3.42786
3.71416
3.7596
3.71979
3.61505
3.46204
3.34318
3.32745
3.34051
3.35931
3.36811
3.37493
3.38165
3.39209
1.40233
1.41628
1.47934
1.58763
1.8024
2.10712
2.5193
2.96212
3.37414
3.54881
3.6543
3.60413
3.55366
3.49501
3.41227
3.39028
3.37502
3.36503
3.37492
3.38977
3.3958
3.40173
3.41054
3.42437
1.67661
2.0936
2.5289
2.99162
3.43329
3.8143
4.1402
4.40944
4.42536
4.30333
4.04024
3.71714
3.47114
3.3699
3.29967
3.30422
3.33167
3.36318
3.39459
3.40615
3.40864
3.41125
3.41987
3.43656
2.67003
1.94958
1.46126
1.1247
0.936246
0.935446
0.99085
1.02728
1.04967
1.10813
1.16608
1.19907
1.22483
1.2722
1.3255
1.33837
1.33586
1.32741
1.32853
1.33306
1.33056
1.33338
1.34458
1.40379
1.70379
2.54751
3.6514
4.78305
5.77172
5.98848
5.6844
5.18075
4.82609
4.65991
4.54745
4.44446
4.3238
4.19982
4.08141
3.95608
3.82198
3.69659
3.60048
3.52556
3.45663
3.39132
3.32577
3.25118
3.1637
3.06971
2.97249
2.8684
2.78089
2.72424
2.68619
2.66003
2.63647
2.6096
2.57477
2.52182
2.43452
2.31085
2.23041
2.20188
2.17938
2.15503
2.13667
2.12194
2.09932
2.07162
2.03798
2.04456
2.12621
2.3721
2.77616
3.2189
3.56109
3.86716
4.00768
4.00121
3.94984
3.85178
3.72429
3.61171
3.4885
3.41983
3.39588
3.37655
3.35839
3.3388
3.31687
3.2793
3.20699
3.10964
3.05452
3.01304
3.16333
2.72475
2.33399
2.03155
1.70579
1.5173
1.45937
1.377
1.30383
1.26531
1.2328
1.20435
1.20327
1.22114
1.2618
1.29732
1.30148
1.29877
1.30108
1.31262
1.31581
1.32538
1.40323
1.78759
2.41694
2.75383
3.07436
3.48791
4.20028
4.80596
5.13004
5.08491
4.91064
4.73185
4.58762
4.45806
4.33606
4.22157
4.11303
3.99022
3.85579
3.7353
3.64321
3.56618
3.49597
3.42998
3.3625
3.28502
3.19442
3.0972
2.99908
2.90033
2.82047
2.76965
2.72719
2.69076
2.66445
2.63543
2.59646
2.53798
2.44947
2.33874
2.26589
2.23815
2.21059
2.18297
2.16219
2.14653
2.12803
2.12168
2.15845
2.26361
2.47795
2.66432
2.80133
2.99501
3.22976
3.43468
3.61441
3.75077
3.79269
3.78105
3.71567
3.61867
3.5102
3.43776
3.409
3.3866
3.37199
3.35387
3.33183
3.29412
3.22253
3.12964
3.07946
3.03632
3.33154
3.12932
2.78699
2.4774
2.19662
1.87135
1.67205
1.56789
1.43424
1.31445
1.29121
1.26427
1.23472
1.23639
1.25265
1.27845
1.28247
1.28267
1.29137
1.31153
1.33333
1.43519
1.92205
2.52699
2.88933
2.93526
2.93099
2.94618
3.09757
3.6503
4.44277
4.89238
4.94979
4.83186
4.60198
4.41958
4.30439
4.19673
4.08092
3.95374
3.82979
3.71459
3.60635
3.50859
3.42285
3.34831
3.28336
3.21835
3.14283
3.05785
2.97344
2.90136
2.83772
2.77139
2.70275
2.64004
2.59314
2.56017
2.52421
2.47234
2.40107
2.33523
2.29023
2.24033
2.18552
2.15016
2.13191
2.13017
2.15263
2.2333
2.40466
2.64808
2.79349
2.83942
2.84863
2.86784
2.92827
3.05779
3.28063
3.50334
3.65048
3.70668
3.69441
3.62749
3.53503
3.46696
3.42182
3.39188
3.35326
3.31297
3.28784
3.25871
3.20166
3.12955
3.07467
3.02073
3.35227
3.28574
3.09371
2.81128
2.57697
2.28069
1.9667
1.84563
1.74344
1.55352
1.47123
1.44845
1.39319
1.30107
1.28667
1.29585
1.28589
1.26913
1.27382
1.28739
1.41307
1.93811
2.63036
2.85235
2.91345
2.91327
2.85915
2.79908
2.73703
2.79014
3.12723
3.87308
4.5225
4.58845
4.55731
4.44143
4.31292
4.18198
4.05263
3.9332
3.82276
3.71493
3.60667
3.49759
3.39561
3.30871
3.23902
3.18076
3.12257
3.06246
3.00148
2.9384
2.85963
2.78265
2.7099
2.6404
2.57847
2.52748
2.4833
2.43709
2.39689
2.3619
2.31597
2.25469
2.19736
2.15983
2.15403
2.18451
2.32946
2.5985
2.82861
2.94993
2.95422
2.9332
2.89286
2.84983
2.82866
2.83793
2.90006
3.03469
3.24014
3.42821
3.51693
3.55717
3.56428
3.5321
3.48336
3.42985
3.37363
3.31414
3.26485
3.22931
3.18784
3.13346
3.08139
3.02051
3.34482
3.33196
3.25524
3.07004
2.83967
2.62258
2.3269
2.06023
1.96176
1.84929
1.6622
1.56558
1.5095
1.41194
1.32543
1.31035
1.29485
1.27573
1.29199
1.47461
2.0008
2.69028
2.88472
2.86553
2.83939
2.78671
2.72841
2.67256
2.62685
2.56428
2.57052
2.7344
3.3391
4.02614
4.3767
4.38141
4.27761
4.11735
3.9861
3.89092
3.80842
3.71485
3.6065
3.48761
3.37883
3.29142
3.22108
3.15529
3.08611
3.01447
2.94753
2.89786
2.85828
2.80264
2.72937
2.65279
2.58028
2.51859
2.45697
2.39613
2.34707
2.31184
2.28836
2.26781
2.23259
2.22698
2.29772
2.49313
2.76244
3.00924
3.0573
3.02824
2.98654
2.94336
2.89824
2.85565
2.81379
2.78858
2.74019
2.73902
2.81083
3.00013
3.23408
3.41371
3.52789
3.54547
3.52551
3.45815
3.3695
3.28531
3.22382
3.18247
3.14567
3.11286
3.08873
3.03764
3.32802
3.32731
3.31164
3.22934
3.05246
2.84251
2.63596
2.394
2.17395
2.04274
1.90226
1.76966
1.6926
1.5945
1.44462
1.39938
1.39172
1.42286
1.64457
2.20269
2.78162
2.96902
2.93331
2.845
2.75733
2.69048
2.64027
2.58681
2.53176
2.47769
2.43582
2.38831
2.45915
2.84849
3.52095
4.02867
4.09366
4.06476
3.98884
3.89371
3.79413
3.69198
3.59035
3.48644
3.3806
3.28001
3.19767
3.13202
3.07201
3.01232
2.94562
2.87505
2.80659
2.75459
2.72343
2.68067
2.60851
2.50922
2.41496
2.36274
2.3337
2.30865
2.29016
2.28656
2.31346
2.45221
2.70774
2.96614
3.1251
3.14475
3.11853
3.05377
2.9941
2.94958
2.91635
2.88519
2.84821
2.79277
2.71551
2.65867
2.65605
2.69656
2.85418
3.10509
3.33498
3.44574
3.45715
3.44871
3.3884
3.28052
3.19491
3.14818
3.12076
3.10401
3.09094
3.05137
3.29457
3.30641
3.29895
3.27923
3.1932
3.03873
2.83296
2.63411
2.45332
2.29443
2.09603
1.92459
1.86206
1.79737
1.66463
1.53231
1.56348
1.86218
2.51185
3.0192
3.14044
3.06699
2.94357
2.82926
2.73514
2.6682
2.61017
2.54942
2.48233
2.43321
2.38402
2.34345
2.2729
2.27765
2.45069
2.97649
3.59175
3.9004
3.94129
3.87961
3.76157
3.64948
3.55667
3.4783
3.38899
3.28751
3.19044
3.10793
3.0392
2.97382
2.90119
2.83251
2.78441
2.74587
2.70031
2.64217
2.56407
2.47257
2.40152
2.36335
2.33572
2.31987
2.32592
2.41549
2.641
2.92397
3.13949
3.21681
3.20549
3.15581
3.09742
3.04702
3.00808
2.97411
2.93721
2.89281
2.83956
2.77107
2.69242
2.64522
2.6318
2.6287
2.6503
2.76703
2.99421
3.20266
3.34736
3.39877
3.38328
3.28822
3.17804
3.1409
3.12423
3.1143
3.10087
3.05442
3.28295
3.28323
3.28338
3.27204
3.23969
3.15572
3.02267
2.82662
2.6184
2.5011
2.35815
2.17323
1.97204
1.92345
1.85482
1.91857
2.32236
2.99006
3.41501
3.4009
3.29623
3.15544
3.01523
2.88909
2.78211
2.69933
2.62029
2.54429
2.46896
2.41267
2.35773
2.30771
2.24548
2.20274
2.15333
2.20371
2.52333
3.10489
3.61275
3.71684
3.7023
3.62784
3.5347
3.45586
3.37987
3.28605
3.18275
3.08527
3.0022
2.93195
2.86802
2.81171
2.76659
2.72304
2.6756
2.618
2.54237
2.46005
2.39723
2.36807
2.35773
2.39479
2.57516
2.87779
3.18766
3.31219
3.30646
3.28407
3.22286
3.15088
3.09289
3.0506
3.02113
2.99187
2.95765
2.91393
2.84926
2.75872
2.68344
2.64997
2.63114
2.61384
2.61689
2.62523
2.69229
2.83107
2.99557
3.1682
3.2481
3.21882
3.17701
3.14941
3.14355
3.13095
3.11335
3.06716
3.32314
3.30741
3.29248
3.28011
3.26904
3.23137
3.14205
3.00147
2.83809
2.63382
2.5106
2.36615
2.19614
2.12062
2.26906
2.82924
3.55909
3.79514
3.73557
3.57367
3.40795
3.26564
3.12746
2.99
2.86652
2.76553
2.67254
2.5856
2.50963
2.43682
2.3638
2.29411
2.22998
2.17088
2.1229
2.06005
2.05167
2.18851
2.64876
3.21651
3.56428
3.5926
3.54537
3.44895
3.35688
3.26514
3.17215
3.07714
2.97997
2.8963
2.8389
2.79044
2.74621
2.70244
2.65585
2.5975
2.52553
2.46053
2.40728
2.40963
2.51447
2.78465
3.14037
3.36185
3.4212
3.40264
3.34837
3.2762
3.20796
3.15573
3.10997
3.07242
3.04088
3.00976
2.97542
2.92948
2.85359
2.75124
2.6932
2.66829
2.64599
2.62678
2.61239
2.60865
2.60441
2.61356
2.66183
2.78744
2.96251
3.10652
3.14732
3.17221
3.16494
3.14531
3.12748
3.07743
3.33948
3.32448
3.30516
3.29515
3.29102
3.27564
3.22728
3.1311
3.0028
2.82626
2.67467
2.47934
2.50268
2.81379
3.51709
4.14413
4.24709
4.12693
3.92133
3.72405
3.55346
3.40477
3.26317
3.12231
2.98819
2.86062
2.7376
2.62728
2.5413
2.45998
2.38705
2.32038
2.25744
2.1912
2.12744
2.04595
1.99637
1.95279
2.00051
2.29554
2.85054
3.30143
3.43013
3.41275
3.34008
3.25206
3.16511
3.07528
2.97341
2.8822
2.82256
2.77505
2.7289
2.68002
2.63357
2.57997
2.53815
2.48463
2.50906
2.67484
3.02499
3.35154
3.54665
3.58002
3.55351
3.47409
3.3698
3.27978
3.20443
3.15732
3.12115
3.08846
3.05914
3.02922
2.99395
2.94583
2.87037
2.77142
2.7092
2.68258
2.66142
2.64247
2.62382
2.60865
2.5919
2.57675
2.53936
2.54247
2.63139
2.82327
3.01798
3.11285
3.16673
3.17141
3.15353
3.09582
3.30602
3.28151
3.28298
3.29012
3.2897
3.28917
3.2696
3.21907
3.10945
2.98917
2.83519
2.93933
3.5123
4.31288
4.66701
4.63166
4.46252
4.26206
4.06654
3.88267
3.7079
3.54241
3.38854
3.24484
3.11072
2.97829
2.84555
2.71827
2.60129
2.48704
2.39221
2.32861
2.27768
2.21898
2.15258
2.0784
1.99996
1.94019
1.89095
1.89503
2.04903
2.46067
2.95447
3.24263
3.277
3.2409
3.16086
3.07774
2.97355
2.87577
2.80964
2.76076
2.716
2.665
2.6261
2.59245
2.59449
2.67912
2.94311
3.3031
3.55195
3.60831
3.62582
3.60657
3.56304
3.4977
3.40691
3.30451
3.21321
3.16075
3.12948
3.09917
3.07086
3.04345
3.01019
2.96583
2.89816
2.80254
2.73045
2.7017
2.67946
2.65808
2.63645
2.61635
2.59505
2.57213
2.53602
2.472
2.46991
2.54676
2.7311
2.93512
3.09527
3.15159
3.15013
3.10258
3.12863
3.32417
3.37611
3.36522
3.33248
3.29272
3.28397
3.27053
3.19748
3.1974
3.50989
4.36416
5.12296
5.32814
5.21597
4.91965
4.64041
4.40879
4.20206
4.00668
3.82575
3.66139
3.50955
3.36321
3.2191
3.07152
2.92256
2.78247
2.65877
2.5532
2.46388
2.38124
2.29978
2.22014
2.14286
2.08607
2.02687
1.9609
1.88821
1.85061
1.83258
1.87611
2.11853
2.59248
2.9888
3.12595
3.11313
3.039
2.94263
2.86166
2.79411
2.73822
2.70175
2.6721
2.65335
2.71876
2.9451
3.29737
3.6047
3.77477
3.78065
3.72947
3.65632
3.58885
3.54141
3.49391
3.42849
3.33732
3.24222
3.18208
3.14889
3.11786
3.08565
3.05437
3.01841
2.97356
2.91512
2.83831
2.76132
2.72164
2.69922
2.67749
2.65468
2.63021
2.60188
2.56849
2.52564
2.46328
2.43099
2.43106
2.48284
2.63454
2.8368
3.02361
3.08216
3.05815
2.55958
3.13849
3.33541
3.32948
3.31434
3.29995
3.29291
3.30532
3.48754
4.22564
5.32823
5.79577
5.75337
5.61641
5.39236
5.12052
4.8379
4.56785
4.31978
4.09576
3.90245
3.74338
3.60135
3.4569
3.30727
3.15232
2.98925
2.83381
2.69866
2.59362
2.51234
2.43745
2.35665
2.27676
2.19449
2.11161
2.02423
1.95161
1.9115
1.86332
1.80122
1.75706
1.76523
1.88957
2.24672
2.6709
2.94949
2.98379
2.95414
2.87176
2.78559
2.7339
2.70877
2.73967
2.9082
3.26944
3.69519
3.86723
3.85746
3.82837
3.78376
3.74604
3.70029
3.63118
3.55818
3.49829
3.4381
3.36611
3.2863
3.22224
3.17515
3.13498
3.09937
3.069
3.03539
2.98749
2.9244
2.85689
2.79388
2.7458
2.71421
2.68919
2.6662
2.64204
2.61813
2.5842
2.53543
2.47918
2.42437
2.40487
2.4018
2.42924
2.53442
2.69867
2.87536
2.96114
1.73308
2.39524
3.03012
3.20263
3.32306
3.36587
3.45301
3.89069
4.90372
5.99166
6.52194
6.46674
6.12359
5.76102
5.5037
5.25751
4.98581
4.70585
4.44166
4.20452
3.98624
3.79216
3.63536
3.50018
3.36178
3.21137
3.05045
2.8994
2.77197
2.66373
2.55294
2.43799
2.34001
2.27285
2.2114
2.13746
2.06215
1.98786
1.91051
1.83066
1.76586
1.71823
1.69576
1.6805
1.73638
1.96061
2.38726
2.7137
2.82297
2.82148
2.79273
2.78999
2.91235
3.22246
3.63807
3.99899
4.14531
4.12833
4.02328
3.87654
3.77725
3.73888
3.69685
3.64213
3.56898
3.48803
3.42022
3.36705
3.31937
3.26908
3.21316
3.15884
3.11108
3.07109
3.03089
2.98036
2.91899
2.85821
2.80853
2.76813
2.73373
2.70309
2.67491
2.64667
2.61231
2.57011
2.5247
2.48421
2.44355
2.40764
2.38576
2.37525
2.38444
2.42748
2.52411
2.7288
1.4266
1.60041
2.23305
2.79275
3.31332
3.79875
4.48324
5.55108
6.20536
6.50358
6.5894
6.51725
6.30566
5.98183
5.67029
5.36667
5.06374
4.78509
4.54208
4.32367
4.10655
3.88345
3.68308
3.50384
3.34029
3.18738
3.06252
2.95368
2.84625
2.7275
2.59372
2.47134
2.37773
2.29527
2.21014
2.1241
2.05481
1.99104
1.91652
1.83572
1.77008
1.72896
1.69093
1.66085
1.63302
1.64139
1.75711
2.09919
2.44561
2.72634
2.92025
3.15774
3.64267
4.00037
4.17749
4.20417
4.17507
4.13839
4.04986
3.92836
3.83038
3.75575
3.69153
3.63008
3.57276
3.50793
3.43609
3.38277
3.34143
3.299
3.24784
3.18832
3.12414
3.0725
3.03321
2.98847
2.93767
2.88935
2.84703
2.80859
2.77278
2.73585
2.69596
2.65494
2.61228
2.57202
2.5317
2.49479
2.46758
2.44251
2.41443
2.37072
2.34291
2.31724
2.32767
2.46554
1.40043
1.40998
1.5669
2.07471
3.40876
4.72877
5.69697
6.60694
6.94881
6.80536
6.64967
6.50561
6.374
6.13817
5.76953
5.39472
5.07554
4.81103
4.57681
4.35436
4.17788
4.01187
3.79847
3.57722
3.39168
3.22966
3.08727
2.96289
2.83502
2.71231
2.63472
2.55965
2.4621
2.34563
2.2428
2.15916
2.08862
2.01289
1.91827
1.85905
1.81675
1.77622
1.73405
1.68637
1.61702
1.57746
1.57963
1.63969
1.88418
2.55286
3.26408
3.73841
4.26603
4.48873
4.45652
4.37012
4.22282
4.06725
3.98888
3.93518
3.87221
3.78536
3.69228
3.62203
3.55584
3.48399
3.42519
3.3741
3.32704
3.2914
3.25759
3.2127
3.1459
3.06945
3.00791
2.96189
2.91798
2.87681
2.83618
2.79489
2.75706
2.71884
2.67581
2.64238
2.62309
2.59641
2.56217
2.52473
2.48946
2.4445
2.4002
2.35764
2.3191
2.27739
2.26748
2.3119
1.40053
1.41743
1.53238
2.21849
3.19785
4.66369
5.88004
6.52415
7.00158
6.90202
6.62626
6.43254
6.27658
6.02448
5.68453
5.3551
5.09639
4.87782
4.65678
4.43009
4.19439
3.9535
3.731
3.51759
3.34509
3.25043
3.15158
3.02804
2.8957
2.76357
2.62898
2.50082
2.38031
2.25891
2.17857
2.15457
2.12951
2.06855
1.97531
1.8688
1.77778
1.72343
1.68277
1.64659
1.60285
1.56694
1.57576
1.64849
1.97578
2.52092
3.25294
3.89242
4.22734
4.45243
4.47078
4.35166
4.15141
4.02531
3.97389
3.94454
3.89843
3.81215
3.70855
3.62552
3.54524
3.46735
3.42439
3.38492
3.34127
3.30216
3.26261
3.21452
3.15114
3.07384
3.00263
2.95404
2.92007
2.88247
2.84177
2.79856
2.75734
2.71803
2.68088
2.64212
2.59994
2.57107
2.54671
2.51899
2.48718
2.4463
2.40163
2.35975
2.31794
2.27525
2.26479
2.32954
1.42478
1.65889
2.1789
2.95417
3.11526
3.68076
4.65815
5.47963
6.40959
6.62875
6.59066
6.44858
6.20613
5.88765
5.59997
5.3343
5.05806
4.78556
4.54713
4.33992
4.13167
3.91903
3.72074
3.54075
3.37051
3.19934
3.04528
2.91522
2.79741
2.69156
2.5911
2.48638
2.36147
2.23588
2.17399
2.12902
2.06747
2.00775
1.9398
1.85917
1.78289
1.72411
1.67266
1.64216
1.62168
1.63517
1.75522
2.04492
2.51357
2.65909
2.90743
3.33785
3.60974
3.98158
4.19116
4.16579
4.13247
4.08447
4.02689
3.94286
3.85262
3.78972
3.72418
3.6314
3.5434
3.47927
3.42158
3.37076
3.32702
3.28913
3.25005
3.20671
3.15809
3.09475
3.02759
2.96752
2.91157
2.86159
2.82868
2.80571
2.77613
2.73962
2.70122
2.65324
2.60042
2.56358
2.54818
2.53049
2.50114
2.46329
2.41969
2.37484
2.33571
2.30288
2.31886
2.48506
1.74119
2.45133
2.98225
3.29193
3.30277
3.32669
3.47899
3.88897
4.88907
6.03326
6.49186
6.39362
6.03588
5.70022
5.47584
5.26859
5.01862
4.74701
4.48968
4.25231
4.03154
3.82897
3.642
3.46977
3.30944
3.14887
3.00362
2.88223
2.77919
2.67839
2.56468
2.44085
2.34937
2.29151
2.21235
2.11391
2.02711
1.97831
1.94453
1.89555
1.84099
1.76741
1.71324
1.68687
1.73403
1.97603
2.34648
2.68953
2.86377
2.84121
2.80991
2.84084
2.91702
3.16581
3.58352
3.9261
4.07213
4.10411
4.0433
3.93545
3.84431
3.77913
3.70879
3.61017
3.51138
3.44981
3.40748
3.36801
3.32483
3.28215
3.24031
3.19315
3.1307
3.06247
3.00313
2.95019
2.8995
2.85999
2.82493
2.78449
2.74247
2.69997
2.66142
2.63845
2.61488
2.58393
2.54521
2.50327
2.46357
2.43063
2.40234
2.37993
2.36591
2.39648
2.50787
2.74911
2.63458
3.15351
3.29277
3.29943
3.29531
3.29156
3.2997
3.33005
3.49729
4.24006
5.36028
5.76763
5.71374
5.59014
5.39277
5.16282
4.89604
4.62481
4.36637
4.1279
3.91562
3.72787
3.55857
3.40119
3.25169
3.11356
2.98576
2.85833
2.73025
2.61068
2.51808
2.44798
2.3642
2.26084
2.16205
2.06959
2.00664
1.96009
1.9037
1.84189
1.80131
1.76371
1.76926
1.88705
2.25688
2.68031
2.90075
2.98662
2.96959
2.92605
2.84642
2.77633
2.69966
2.70435
2.84619
3.21433
3.61511
3.87671
3.92841
3.91054
3.86923
3.78313
3.67552
3.56362
3.48698
3.43374
3.40065
3.36592
3.32114
3.2738
3.22673
3.17244
3.10851
3.04281
2.98439
2.93798
2.9015
2.86643
2.8268
2.78178
2.73313
2.68689
2.6486
2.61424
2.58254
2.55288
2.51974
2.48621
2.45439
2.4352
2.41807
2.4334
2.49275
2.64156
2.80542
2.94357
3.19272
3.32549
3.35566
3.34657
3.31789
3.2963
3.28335
3.26237
3.19239
3.20392
3.55268
4.38003
5.1308
5.34008
5.23287
4.95221
4.67115
4.43343
4.2168
4.00801
3.80952
3.62524
3.45819
3.30729
3.17112
3.04548
2.92728
2.81408
2.70864
2.60609
2.49929
2.39428
2.29186
2.19932
2.12913
2.0762
2.01626
1.95447
1.89507
1.85353
1.82419
1.87453
2.12474
2.58585
3.0064
3.09938
3.09808
3.05238
2.97912
2.91371
2.84505
2.76171
2.67732
2.63197
2.61953
2.6801
2.92471
3.30857
3.66369
3.8511
3.84151
3.75821
3.62184
3.52121
3.47743
3.43855
3.40288
3.35894
3.30374
3.24676
3.19279
3.1352
3.07367
3.01664
2.96847
2.92733
2.88959
2.85329
2.81526
2.77376
2.73082
2.68562
2.63609
2.59045
2.55653
2.52654
2.50107
2.47636
2.46573
2.47101
2.51659
2.61373
2.76942
2.92559
2.97353
3.00319
3.32935
3.3042
3.28397
3.28234
3.28057
3.28167
3.26515
3.21306
3.1017
2.98131
2.83933
2.95067
3.52143
4.31243
4.70081
4.65725
4.47797
4.27701
4.07555
3.8723
3.67546
3.49574
3.33935
3.20549
3.08965
2.97996
2.87159
2.75887
2.64718
2.53454
2.42174
2.32811
2.25914
2.19494
2.12825
2.06072
1.99647
1.94572
1.89901
1.90908
2.05985
2.47403
2.96872
3.2346
3.25688
3.21486
3.13423
3.06171
2.99163
2.91934
2.85191
2.7712
2.68012
2.61834
2.58605
2.56648
2.58442
2.6965
2.97791
3.36959
3.61399
3.60888
3.56923
3.5411
3.49397
3.44182
3.38712
3.33863
3.28435
3.22532
3.16359
3.09798
3.0339
2.98268
2.9438
2.90899
2.87418
2.84003
2.8054
2.76842
2.72821
2.68178
2.62518
2.56789
2.52888
2.50267
2.49256
2.49149
2.51766
2.62906
2.79466
2.95778
3.05931
3.05261
3.02049
2.99329
3.34432
3.33285
3.31119
3.2929
3.28701
3.27484
3.2286
3.13025
2.99644
2.81989
2.67239
2.47991
2.50509
2.81428
3.51697
4.14101
4.23631
4.12175
3.91603
3.71061
3.52824
3.37562
3.24306
3.12031
3.00338
2.88778
2.77811
2.67442
2.58055
2.48953
2.39489
2.29771
2.22694
2.16336
2.10335
2.04081
1.99437
1.96746
2.02587
2.33816
2.88204
3.33528
3.42627
3.37956
3.27472
3.19318
3.13188
3.07819
3.01756
2.94472
2.86865
2.78515
2.70867
2.64748
2.60272
2.56069
2.53019
2.49779
2.52977
2.70897
3.0487
3.37566
3.49812
3.52682
3.49348
3.42623
3.36481
3.3202
3.27449
3.22069
3.15533
3.07885
3.00494
2.95138
2.91719
2.88659
2.85373
2.82163
2.7921
2.76056
2.72338
2.67658
2.6168
2.55218
2.50897
2.50472
2.50912
2.56991
2.73525
2.97225
3.12722
3.19207
3.18843