/*--------------------------------*- C++ -*----------------------------------*\
  =========                 |
  \\      /  F ield         | OpenFOAM: The Open Source CFD Toolbox
   \\    /   O peration     | Website:  https://openfoam.org
    \\  /    A nd           | Version:  7
     \\/     M anipulation  |
\*---------------------------------------------------------------------------*/
FoamFile
{
    version     2.0;
    format      ascii;
    class       volScalarField;
    location    "3.6";
    object      T;
}
// * * * * * * * * * * * * * * * * * * * * * * * * * * * * * * * * * * * * * //

dimensions      [0 0 0 1 0 0 0];

internalField   nonuniform List<scalar> 
4608
(
1
1
1
1
1
1
1
1
1
1
1
1
1
1
1
1
1
1
1
1
1
1
1
1
1
1
1
1
1
1
1
1
1
1
1
1
1
1
1
1
1
1
1
1
1
1
1
1
1
1
1
1
1
1
1
1
1
1
1
1
1
1
1
1
1
1
1
1
1
1
1
1
1
1
1
1
1
1
1
1
1
1
1
1
1
1
1
1
1
1
1
1
1
1
1
1
1
1
1
1
1
1
1
1
1
1
1
1
1
1
1
1
1
1
1
1
1
1
1
1
1
1
1
1
1
1
1
1
1
1
1
1
1
1
1
1
1
1
1
1
1
1
1
1
1
1
1
1
1
1
1
1
1
1
1
1
1
1
1
1
1
1
1
1
1
1
1
1
1
1
1
1
1
1
1
1
1
1
1
1
1
1
1
1
1
1
1
1
1
1
1
1
1
1
1
1
1
1
1
1
1
1
1
1
1
1
1
1
1
1
1
1
1
1
1
1
1
1
1
1
1
1
1
1
1
1
1
1
1
1
1
1
1
1
1
1
1
1
1
1
1
1
1
1
1
1
1
1
1
1
1
1
1
1
1
1
1
1
1
1
1
1
1
1
1
1
1
1
1
1
1
1
1
1
1
1
1
1
1
1
1
1
1
1
1
1
1
1
1
1
1
1
1
1
1
1
1
1
1
1
1
1
1
1
1
1
1
1
1
1
1
1
1
1
1
1
1
1
1
1
1
1
1
1
1
1
1
1
1
1
1
1
1
1
1
1
1
1
1
1
1
1
1
1
1
1
1
1
1
1
1
1
1
1
1
1
1
1
1
1
1
1
1
1
1
1
1
1
1
1
1
1
1
1
1
1
1
1
1
1
1
1
1
1
1
1
1
1
1
1
1
1
1
1
1
1
1
1
1
1
1
1
1
1
1
1
1
1
1
1
1
1
1
1
1
1
1
1
1
1
1
1
1
1
1
1
1
1
1
1
1
1
1
1
1
1
1
1
1
1
1
1
1
1
1
1
1
1
1
1
1
1
1
1
1
1
1
1
1
1
1
1
1
1
1
1
1
1
1
1
1
1
1
1
1
1
1
1
1
1
1
1
1
1
1
1
1
1
1
1
1
1
1
1
1
1
1
1
1
1
1
1
1
1
1
1
1
1
1
1
1
1
1
1
1
1
1
1
1
1
1
1
1
1
1
1
1
1
1
1
1
1
1
1
1
1
1
1
1
1
1
1
1
1
1
1
1
1
1
1
1
1
1
1
1
1
1
1
1
1
1
1
1
1
1
1
1
1
1
1
1
1
1
1
1
1
1
1
1
1
1
1
1
1
1
1
1
1
1
1
1
1
1
1
1
1
1
1
1
1
1
1
1
1
1
1
1
1
1
1
1
1
1
1
1
1
1
1
1
1
1
1
1
1
1
1
1
1
1
1
1
1
1
1
1
1
1
1
1
1
1
1
1
1
1
1
1
1
1
1
1
1
1
1
1
1
1
1
1
1
1
1
1
1
1
1
1
1
1
1
1
1
1
1
1
1
1
1
1
1
1
1
1
1
1
1
1
1
1
1
1
1
1
1
1
1
1
1
1
1
1
1
1
1
1
1
1
1
1
1
1
1
1
1
1
1
1
1
1
1
1
1
1
1
1
1
1
1
1
1
1
1
1
1
1
1
1
1
1
1
1
1
1
1
1
1
1
1
1
1
1
1
1
1
1
1
1
1
1
1
1
1
1
1
1
1
1
1
1.07827
1.18351
1.28602
1.38995
1.48806
1.56971
1.63899
1.68413
1.69795
1.68173
1.63823
1.58572
1.54298
1.52571
1.51412
1.51488
1.51961
1.52495
1.53056
1.5336
1.53505
1.53629
1.53829
1.5412
1.00079
1.00589
1.03058
1.07155
1.14597
1.23164
1.32393
1.4057
1.48201
1.51987
1.54753
1.56229
1.56081
1.55559
1.54207
1.53622
1.53266
1.53057
1.53247
1.5355
1.53718
1.53875
1.54026
1.54215
1
0.999982
1.00008
1.00008
1.00125
1.00825
1.03697
1.11741
1.26635
1.45328
1.56558
1.62302
1.62206
1.61264
1.59245
1.56337
1.53978
1.53665
1.53962
1.54396
1.54529
1.54596
1.5459
1.54635
1
0.999999
0.999999
1
0.999996
1.00001
0.999967
1.0007
1.01156
1.11203
1.30538
1.50819
1.59858
1.61048
1.60607
1.5958
1.57245
1.56033
1.56133
1.56004
1.55816
1.55755
1.55695
1.55703
1
1
1
1
1
1
0.999996
0.999997
0.999963
1.00057
1.01573
1.12629
1.35083
1.52281
1.62899
1.62762
1.61397
1.60204
1.59051
1.58012
1.57299
1.57125
1.56998
1.57111
1
1
1
1
1
1
1
1
0.999997
0.999997
0.999964
1.00093
1.03191
1.16485
1.40439
1.5514
1.61884
1.61836
1.61175
1.60044
1.58872
1.58371
1.57945
1.57983
1
1
1
1
1
1
1
1
1
1
0.999997
0.999994
1.00001
1.00287
1.06149
1.24651
1.47626
1.56191
1.59857
1.60378
1.6001
1.58768
1.58239
1.58025
1
1
1
1
1
1
1
1
1
1
1
0.999999
0.999999
0.99999
1.00043
1.01201
1.12538
1.33772
1.52984
1.58509
1.59108
1.58795
1.58448
1.58243
1
1
1
1
1
1
1
1
1
1
1
1
1
0.999998
0.999999
0.999989
1.00279
1.04609
1.22305
1.43173
1.55564
1.58966
1.58971
1.58756
1
1
1
1
1
1
1
1
1
1
1
1
1
1
1
0.999999
0.999991
1.00035
1.0142
1.13584
1.3599
1.50553
1.55298
1.57804
1
1
1
1
1
1
1
1
1
1
1
1
1
1
1
1
0.999999
0.999997
1.00005
1.00539
1.06813
1.27696
1.47915
1.55697
1
1
1
1
1
1
1
1
1
1
1
1
1
1
1
1
1
1
0.999999
1
1.00151
1.04278
1.21825
1.42709
1
1
1
1
1
1
1
1
1
1
1
1
1
1
1
1
1
1
1
1
0.999999
1.00088
1.02154
1.16156
1
1
1
1
1
1
1
1
1
1
1
1
1
1
1
1
1
1
1
1
1
0.999999
1.00028
1.01008
1
1
1
1
1
1
1
1
1
1
1
1
1
1
1
1
1
1
1
1
1
1
1
0.999997
1
1
1
1
1
1
1
1
1
1
1
1
1
1
1
1
1
1
1
1
1
1
1
0.999999
1
1
1
1
1
1
1
1
1
1
1
1
1
1
1
1
1
1
1
1
1
1
1
0.999999
1
1
1
1
1
1
1
1
1
1
1
1
1
1
1
1
1
1
1
1
1
1
1
1.00001
1
1
1
1
1
1
1
1
1
1
1
1
1
1
1
1
1
1
1
1
1
0.999999
1.00033
1.00865
1
1
1
1
1
1
1
1
1
1
1
1
1
1
1
1
1
1
1
1
0.999999
1.00077
1.0218
1.14865
1
1
1
1
1
1
1
1
1
1
1
1
1
1
1
1
1
1
0.999999
1
1.00155
1.0424
1.209
1.42721
1
1
1
1
1
1
1
1
1
1
1
1
1
1
1
1
0.999999
0.999997
1.00005
1.00522
1.06892
1.2782
1.46814
1.5602
1
1
1
1
1
1
1
1
1
1
1
1
1
1
1
0.999999
0.999991
1.00034
1.01426
1.13504
1.361
1.50246
1.55367
1.57964
1
1
1
1
1
1
1
1
1
1
1
1
1
0.999998
0.999999
0.999989
1.00279
1.04615
1.22197
1.43332
1.55526
1.58873
1.58939
1.58812
1
1
1
1
1
1
1
1
1
1
1
0.999999
0.999999
0.99999
1.00043
1.01199
1.12557
1.33776
1.52878
1.58605
1.59118
1.58771
1.58422
1.58261
1
1
1
1
1
1
1
1
1
1
0.999997
0.999994
1.00001
1.00287
1.06146
1.24647
1.47645
1.56163
1.59851
1.60397
1.60031
1.5876
1.58217
1.58035
1
1
1
1
1
1
1
1
0.999997
0.999997
0.999964
1.00093
1.03192
1.16486
1.40426
1.55151
1.6188
1.6183
1.61167
1.60055
1.58883
1.58361
1.57941
1.57984
1
1
1
1
1
1
0.999996
0.999997
0.999963
1.00057
1.01573
1.12628
1.35087
1.52272
1.62898
1.62765
1.61403
1.60201
1.59046
1.58017
1.573
1.57122
1.57001
1.57112
1
0.999999
0.999999
1
0.999996
1.00001
0.999967
1.0007
1.01156
1.11203
1.30536
1.50825
1.59854
1.61045
1.60608
1.59583
1.57256
1.5603
1.56127
1.56003
1.5582
1.55757
1.55697
1.55703
1
0.999982
1.00008
1.00008
1.00125
1.00825
1.03697
1.11741
1.26635
1.45329
1.56557
1.62302
1.62206
1.61264
1.59245
1.5634
1.53982
1.5366
1.53959
1.544
1.54529
1.54594
1.5459
1.54636
1.00079
1.00589
1.03058
1.07155
1.14596
1.23164
1.32393
1.4057
1.482
1.51988
1.54753
1.56228
1.5608
1.55559
1.54208
1.53622
1.53265
1.53057
1.53248
1.53551
1.53718
1.53875
1.54027
1.54215
1.07827
1.18351
1.28602
1.38994
1.48806
1.56973
1.63898
1.68412
1.69795
1.68173
1.63823
1.58572
1.54298
1.52572
1.51412
1.51488
1.5196
1.52495
1.53056
1.5336
1.53505
1.53629
1.5383
1.54121
1.39908
1.23573
1.11578
1.01742
0.96114
0.969557
1.01568
1.03262
1.03695
1.0521
1.06759
1.07769
1.08702
1.1028
1.11386
1.11484
1.1135
1.11078
1.11138
1.11056
1.10716
1.10651
1.10997
1.13374
1.25643
1.51877
1.76315
1.97348
2.13212
2.18361
2.13987
2.06131
2.00179
1.97354
1.95468
1.93771
1.91709
1.89506
1.87334
1.84989
1.82451
1.80049
1.78185
1.76729
1.75392
1.74108
1.72774
1.71197
1.69293
1.67212
1.65056
1.6276
1.60825
1.59554
1.58678
1.58057
1.57487
1.56828
1.55971
1.54672
1.52527
1.49425
1.47346
1.46619
1.46048
1.45421
1.44943
1.44541
1.43901
1.43074
1.42085
1.42335
1.44882
1.51879
1.62127
1.72136
1.79306
1.85382
1.88233
1.88077
1.87086
1.85224
1.82876
1.80832
1.78423
1.76922
1.76323
1.75851
1.75448
1.75046
1.74624
1.73901
1.72447
1.70427
1.69319
1.68335
1.49702
1.41186
1.32878
1.25677
1.16234
1.10871
1.10671
1.0898
1.06548
1.05618
1.04904
1.04931
1.0516
1.05907
1.06989
1.07898
1.08172
1.08218
1.08451
1.08866
1.08785
1.09109
1.1226
1.27581
1.47403
1.55743
1.63314
1.72587
1.86548
1.97266
2.03737
2.03362
2.01118
1.98547
1.96316
1.94192
1.92082
1.90011
1.87987
1.85677
1.83146
1.80866
1.79081
1.77556
1.76208
1.74944
1.73596
1.71982
1.70045
1.67929
1.65749
1.63546
1.61784
1.60671
1.59707
1.58834
1.58193
1.57493
1.56546
1.55123
1.52952
1.50162
1.48306
1.47622
1.46927
1.46218
1.45687
1.45263
1.44728
1.44482
1.45539
1.48574
1.54394
1.59208
1.62564
1.67203
1.72579
1.76795
1.80485
1.83011
1.84007
1.83857
1.82757
1.81067
1.78971
1.77419
1.7671
1.76166
1.75837
1.75427
1.74984
1.74274
1.72879
1.70969
1.69956
1.68944
1.53206
1.49266
1.42472
1.3587
1.29115
1.21036
1.16131
1.13176
1.09198
1.05569
1.05001
1.04344
1.0362
1.03724
1.04238
1.05095
1.05327
1.05421
1.05847
1.06585
1.07379
1.11382
1.29516
1.47819
1.5738
1.58972
1.58897
1.59322
1.63268
1.76759
1.93198
2.00781
2.0245
2.0065
1.96926
1.93851
1.91777
1.89792
1.87605
1.85192
1.82837
1.80643
1.78549
1.76611
1.74887
1.73373
1.72045
1.70696
1.69091
1.6725
1.65372
1.63733
1.62263
1.60752
1.59178
1.57708
1.56565
1.55741
1.54858
1.5358
1.51815
1.50152
1.48992
1.47698
1.46268
1.45333
1.44908
1.44812
1.45426
1.47711
1.5256
1.58866
1.62501
1.63712
1.64011
1.64601
1.66086
1.69058
1.74082
1.78893
1.81807
1.83023
1.82831
1.81574
1.79797
1.78336
1.7728
1.76526
1.75622
1.74741
1.74276
1.73773
1.72684
1.71176
1.6999
1.68722
1.55054
1.53329
1.49275
1.43439
1.38342
1.31628
1.24094
1.20784
1.17911
1.12551
1.10058
1.0924
1.07501
1.04798
1.04543
1.04921
1.04614
1.04216
1.04421
1.04985
1.1026
1.29976
1.49734
1.56
1.58158
1.58328
1.57319
1.56143
1.55014
1.5663
1.66043
1.83113
1.96427
1.97203
1.96664
1.94618
1.92355
1.90015
1.87604
1.85289
1.83144
1.81113
1.79053
1.76904
1.74749
1.72833
1.71312
1.7008
1.68855
1.67542
1.66169
1.64755
1.62984
1.61221
1.59525
1.57905
1.56405
1.55114
1.5398
1.52796
1.5178
1.50924
1.49781
1.48201
1.46679
1.45675
1.45568
1.46457
1.50548
1.577
1.6327
1.6606
1.66679
1.66309
1.65514
1.64589
1.6416
1.64368
1.65886
1.69193
1.73908
1.77933
1.79787
1.80653
1.80767
1.8009
1.78985
1.77677
1.7631
1.75073
1.7421
1.73598
1.72766
1.71587
1.70442
1.68957
1.5657
1.55782
1.53786
1.49794
1.44914
1.40195
1.33617
1.26986
1.24205
1.21287
1.1638
1.13489
1.1151
1.08298
1.05717
1.0553
1.05139
1.0455
1.05249
1.13087
1.32566
1.52578
1.56891
1.57187
1.5697
1.56027
1.54835
1.5366
1.52699
1.5129
1.5152
1.56392
1.72446
1.87394
1.94547
1.94456
1.92518
1.89522
1.86914
1.84948
1.83325
1.81578
1.79496
1.77087
1.74763
1.72825
1.71226
1.69769
1.68267
1.66669
1.6514
1.64047
1.63207
1.61978
1.60305
1.58485
1.56691
1.55106
1.53485
1.51888
1.506
1.49736
1.49217
1.48735
1.47795
1.47669
1.49722
1.5516
1.61992
1.67951
1.68914
1.68359
1.67694
1.6694
1.66064
1.65121
1.64135
1.63465
1.62331
1.6238
1.64279
1.68847
1.74066
1.78282
1.80606
1.80725
1.80213
1.78578
1.76548
1.74851
1.73734
1.72988
1.7224
1.7153
1.70984
1.69726
1.57775
1.57407
1.56666
1.54592
1.50719
1.46158
1.4151
1.35984
1.30564
1.27011
1.23221
1.19783
1.17562
1.14461
1.09807
1.08729
1.08671
1.09902
1.18697
1.3843
1.54951
1.59977
1.59267
1.57449
1.55583
1.54095
1.52941
1.51659
1.50325
1.49036
1.47976
1.46692
1.4882
1.60282
1.771
1.88458
1.89328
1.88703
1.87131
1.85219
1.83337
1.81402
1.79392
1.77216
1.74964
1.72826
1.71047
1.69611
1.68266
1.66914
1.6541
1.63782
1.62188
1.61053
1.60432
1.59463
1.57671
1.55107
1.52618
1.51237
1.50491
1.49842
1.49387
1.49394
1.50187
1.54041
1.60884
1.6731
1.70758
1.71361
1.70817
1.6949
1.68292
1.67397
1.66711
1.66007
1.65099
1.63764
1.61903
1.60571
1.60563
1.61609
1.65491
1.71483
1.76954
1.79001
1.78921
1.78592
1.77235
1.75048
1.73378
1.72471
1.71941
1.7159
1.71252
1.70292
1.58144
1.5812
1.57836
1.5723
1.55187
1.51709
1.47047
1.42406
1.38133
1.3424
1.29067
1.24473
1.22751
1.20919
1.1728
1.13761
1.15443
1.27564
1.47858
1.60835
1.63956
1.6249
1.60014
1.57518
1.55294
1.53637
1.52078
1.50398
1.48624
1.47393
1.46152
1.45078
1.43147
1.43336
1.48882
1.63953
1.78648
1.84784
1.85944
1.84872
1.82774
1.80677
1.78809
1.77049
1.75086
1.72982
1.71032
1.69314
1.67773
1.66256
1.64578
1.62964
1.61883
1.61049
1.60025
1.58661
1.56729
1.54373
1.52465
1.5141
1.5069
1.50311
1.50526
1.53139
1.59332
1.66367
1.71622
1.73223
1.72935
1.71874
1.7065
1.69644
1.6885
1.6812
1.67276
1.66204
1.64898
1.63263
1.61348
1.6024
1.59938
1.59848
1.60395
1.63298
1.68896
1.73717
1.7674
1.7764
1.7727
1.75309
1.73091
1.72383
1.72069
1.71848
1.71489
1.70389
1.58129
1.58123
1.58093
1.57773
1.56994
1.55127
1.52162
1.47768
1.42905
1.39935
1.3636
1.31833
1.26669
1.25175
1.23471
1.26375
1.41218
1.59979
1.6961
1.69243
1.67065
1.64175
1.613
1.58572
1.56071
1.53949
1.51858
1.49883
1.47937
1.46325
1.44733
1.43434
1.41859
1.40631
1.39055
1.40693
1.51118
1.66538
1.77655
1.80853
1.80954
1.79785
1.78033
1.76314
1.746
1.72651
1.70614
1.68667
1.66903
1.65292
1.63772
1.62471
1.61497
1.60564
1.59513
1.58181
1.56291
1.5408
1.52407
1.51555
1.51438
1.52551
1.57606
1.65573
1.7276
1.75466
1.75308
1.74793
1.73467
1.71861
1.70602
1.69733
1.69112
1.68439
1.67609
1.66536
1.64941
1.62753
1.60934
1.60142
1.59687
1.59326
1.59293
1.59427
1.61034
1.64513
1.68523
1.72372
1.74078
1.73539
1.72884
1.72395
1.72268
1.71981
1.71537
1.70476
1.58619
1.5846
1.5821
1.57974
1.57745
1.56999
1.55171
1.52176
1.48532
1.43835
1.40801
1.37386
1.33108
1.31628
1.37154
1.55081
1.72501
1.76914
1.75641
1.72368
1.68986
1.66034
1.63104
1.60074
1.57199
1.54697
1.52344
1.50136
1.48104
1.461
1.44216
1.42492
1.40797
1.39124
1.37655
1.35679
1.35624
1.40249
1.53751
1.68335
1.76381
1.78023
1.77183
1.75318
1.73411
1.71517
1.6967
1.67796
1.65851
1.64071
1.62795
1.61728
1.60798
1.59907
1.58938
1.57596
1.55784
1.53879
1.52552
1.5269
1.55767
1.63192
1.72013
1.76977
1.77611
1.77167
1.75958
1.7439
1.72922
1.71768
1.70765
1.69941
1.69226
1.68483
1.67625
1.66485
1.64658
1.62218
1.60827
1.60208
1.59658
1.59166
1.58741
1.58501
1.58195
1.58412
1.59698
1.62884
1.67045
1.70357
1.71615
1.72384
1.72238
1.71777
1.71315
1.70221
1.58273
1.58095
1.57967
1.57916
1.57937
1.57761
1.56919
1.55012
1.52333
1.48555
1.45181
1.40823
1.41802
1.51678
1.69352
1.83764
1.84834
1.82495
1.78511
1.74595
1.71132
1.68029
1.64982
1.61863
1.58821
1.55868
1.52945
1.50221
1.48004
1.45871
1.43959
1.42207
1.40533
1.38814
1.37216
1.35119
1.33501
1.32048
1.33676
1.43212
1.58771
1.69812
1.73262
1.73043
1.7177
1.7015
1.68505
1.66742
1.64773
1.62983
1.61775
1.6079
1.59866
1.58937
1.57971
1.56729
1.55623
1.54229
1.54978
1.59578
1.68845
1.76451
1.8057
1.80524
1.79843
1.78085
1.75893
1.73958
1.72232
1.71191
1.70415
1.69705
1.69023
1.68268
1.67359
1.66162
1.64376
1.62046
1.6058
1.59952
1.5943
1.58906
1.58354
1.5782
1.57227
1.56737
1.55816
1.55948
1.5826
1.62975
1.67588
1.70079
1.71429
1.71473
1.71036
1.69862
1.56758
1.56595
1.56956
1.57353
1.57591
1.57632
1.57276
1.56364
1.54322
1.52002
1.49122
1.525
1.67991
1.8512
1.91279
1.90544
1.87431
1.83677
1.79967
1.76435
1.72999
1.69616
1.66328
1.63166
1.6021
1.57325
1.5441
1.51485
1.48619
1.45714
1.43221
1.41532
1.40257
1.38865
1.37267
1.35321
1.33114
1.31404
1.29839
1.30008
1.35347
1.48057
1.61245
1.67412
1.68989
1.68487
1.67167
1.65732
1.63826
1.61915
1.60576
1.59596
1.5872
1.5771
1.56993
1.56256
1.56411
1.5879
1.65606
1.73968
1.80066
1.80527
1.80528
1.79977
1.78977
1.77609
1.75763
1.73621
1.71592
1.70424
1.6973
1.69038
1.68359
1.67672
1.66827
1.65723
1.64115
1.6191
1.60232
1.59569
1.59045
1.58482
1.57846
1.57208
1.56528
1.55865
1.5501
1.53464
1.53394
1.55332
1.59873
1.64797
1.68587
1.6989
1.69844
1.68955
1.51414
1.56179
1.5817
1.58112
1.57681
1.5723
1.5714
1.56977
1.55806
1.56218
1.64995
1.83503
1.9777
2.00601
1.98614
1.93646
1.88727
1.84545
1.80823
1.77291
1.7392
1.70679
1.67485
1.64304
1.61218
1.58155
1.55094
1.52122
1.49298
1.46669
1.44269
1.42027
1.40056
1.38255
1.36423
1.35003
1.33472
1.31633
1.29505
1.28359
1.27876
1.29508
1.37913
1.51436
1.60928
1.64744
1.64787
1.63734
1.62075
1.60504
1.59163
1.5797
1.57286
1.56678
1.56807
1.58664
1.64444
1.72637
1.79132
1.8277
1.82677
1.81571
1.79934
1.78481
1.77425
1.76444
1.75113
1.73246
1.7128
1.69946
1.69129
1.68358
1.67566
1.66808
1.65953
1.64893
1.63555
1.61863
1.60156
1.59222
1.58648
1.58057
1.57394
1.56674
1.55876
1.55016
1.54028
1.52753
1.51797
1.51786
1.53064
1.56828
1.61695
1.66086
1.67209
1.66837
1.36845
1.51125
1.56673
1.56819
1.56635
1.56467
1.56541
1.57102
1.61738
1.78068
1.98146
2.0514
2.04538
2.0255
1.99154
1.94802
1.90064
1.85441
1.81223
1.77429
1.74072
1.71076
1.68139
1.65056
1.61964
1.58855
1.55606
1.52431
1.49528
1.4709
1.45033
1.43081
1.41084
1.39165
1.372
1.35241
1.33089
1.31081
1.29943
1.2861
1.26793
1.255
1.25851
1.30364
1.4154
1.53224
1.60013
1.61712
1.6123
1.59591
1.57862
1.56547
1.56504
1.5753
1.62029
1.70512
1.79449
1.82851
1.82666
1.82181
1.81318
1.80467
1.79472
1.78121
1.76578
1.75309
1.74175
1.72852
1.71266
1.69832
1.68709
1.67736
1.66887
1.66146
1.65324
1.64227
1.6289
1.61529
1.6025
1.59175
1.5835
1.57613
1.56897
1.56181
1.55566
1.54782
1.53681
1.52483
1.51259
1.508
1.50542
1.51201
1.53807
1.57883
1.61903
1.64081
1.12555
1.32621
1.49052
1.53399
1.55569
1.56844
1.59087
1.68793
1.8874
2.05999
2.13091
2.12223
2.07651
2.0279
1.99177
1.95426
1.91025
1.86382
1.81996
1.78067
1.74395
1.70974
1.67977
1.65245
1.62495
1.59538
1.56334
1.53247
1.50577
1.48237
1.45719
1.42959
1.40499
1.38821
1.37385
1.3567
1.33833
1.31889
1.29814
1.27583
1.25664
1.24278
1.23619
1.23277
1.25262
1.33005
1.4574
1.54472
1.57404
1.57539
1.57012
1.57149
1.60537
1.6822
1.7726
1.83883
1.86554
1.86353
1.8474
1.82273
1.80395
1.79343
1.78324
1.77184
1.75765
1.74238
1.73046
1.72095
1.71117
1.69999
1.6875
1.67548
1.66495
1.6561
1.64678
1.63539
1.62245
1.61011
1.59993
1.59121
1.5829
1.57455
1.5664
1.55841
1.54971
1.54031
1.53054
1.5215
1.51285
1.50479
1.49938
1.49564
1.49746
1.50803
1.53232
1.58471
1.0094
1.07469
1.28316
1.43535
1.54902
1.65779
1.77532
1.95532
2.07663
2.11544
2.12028
2.11101
2.08356
2.04288
2.00219
1.95951
1.91376
1.86953
1.82995
1.7936
1.75652
1.71784
1.68222
1.6493
1.61805
1.5885
1.56394
1.54194
1.51949
1.49377
1.46405
1.436
1.41357
1.39355
1.37304
1.35196
1.33487
1.3191
1.29975
1.2774
1.25857
1.24661
1.23546
1.22625
1.21787
1.22181
1.2661
1.38015
1.47978
1.55058
1.599
1.64846
1.75124
1.83342
1.86835
1.86811
1.86194
1.85682
1.84431
1.82533
1.80849
1.79212
1.77613
1.76246
1.75251
1.74258
1.73034
1.71997
1.71108
1.70153
1.69002
1.67737
1.66404
1.65322
1.64496
1.63543
1.62471
1.61472
1.60595
1.59771
1.58939
1.58003
1.56946
1.55858
1.54789
1.53874
1.53006
1.52208
1.51649
1.51158
1.50524
1.49392
1.48555
1.47794
1.4807
1.51813
1.00013
1.00341
1.0608
1.23737
1.58124
1.83203
1.97071
2.10492
2.16894
2.14992
2.12571
2.10479
2.0869
2.05766
2.00981
1.95757
1.9109
1.87054
1.83318
1.79618
1.76589
1.73724
1.7007
1.66177
1.62691
1.59598
1.56845
1.54344
1.51637
1.48918
1.47229
1.45615
1.43401
1.40647
1.38151
1.36109
1.34415
1.32541
1.30024
1.28416
1.27289
1.26147
1.24892
1.23439
1.21356
1.20154
1.20369
1.22916
1.31879
1.51224
1.67908
1.77168
1.86873
1.92002
1.9144
1.89822
1.87135
1.84352
1.83138
1.82282
1.81135
1.7941
1.77442
1.75967
1.74746
1.73558
1.72575
1.71635
1.7068
1.69877
1.69083
1.68091
1.66693
1.65066
1.63758
1.6281
1.61938
1.61152
1.60354
1.59465
1.58556
1.57557
1.56402
1.55507
1.55018
1.54411
1.53689
1.52922
1.522
1.51196
1.50106
1.4897
1.47894
1.46722
1.46443
1.47639
1.00016
1.0061
1.05054
1.26647
1.52132
1.79922
2.0202
2.11096
2.16581
2.15442
2.12249
2.09817
2.07732
2.04326
1.99634
1.94962
1.91266
1.88066
1.84636
1.80919
1.76922
1.72757
1.68868
1.65016
1.61741
1.59973
1.58143
1.55713
1.52927
1.50012
1.47043
1.4418
1.41388
1.38444
1.3648
1.3602
1.35549
1.34106
1.31618
1.28656
1.26096
1.24522
1.2332
1.22227
1.20915
1.19916
1.2031
1.23028
1.33927
1.49554
1.66624
1.81311
1.87613
1.90891
1.91143
1.89359
1.86118
1.83914
1.82953
1.8235
1.81421
1.79771
1.77792
1.76171
1.74619
1.73171
1.72456
1.71791
1.70966
1.70143
1.69259
1.68181
1.66788
1.65107
1.63578
1.6259
1.61965
1.61294
1.60498
1.5956
1.58558
1.5753
1.56534
1.55525
1.54515
1.53877
1.53379
1.52832
1.52177
1.51244
1.50123
1.48993
1.47853
1.46681
1.46357
1.48089
1.00885
1.09946
1.26848
1.4657
1.50366
1.62552
1.83201
1.96919
2.08224
2.1204
2.1212
2.1086
2.078
2.03123
1.98846
1.95041
1.91119
1.87079
1.83295
1.79785
1.7613
1.72355
1.68792
1.65531
1.6237
1.59109
1.56069
1.53364
1.50788
1.48426
1.46208
1.43873
1.40941
1.37888
1.36376
1.35327
1.33856
1.32365
1.30578
1.28393
1.26252
1.24515
1.22991
1.22088
1.21549
1.22156
1.26794
1.36384
1.49479
1.53054
1.59169
1.70105
1.76139
1.82164
1.85448
1.86155
1.86016
1.85387
1.84319
1.82586
1.80754
1.79604
1.78431
1.76645
1.74881
1.73625
1.72555
1.71657
1.70854
1.70087
1.69214
1.6819
1.67023
1.65596
1.64176
1.62973
1.61873
1.60885
1.60253
1.59754
1.59016
1.58064
1.57068
1.55902
1.54673
1.53819
1.5348
1.53139
1.5255
1.51709
1.50624
1.49428
1.48357
1.47434
1.47838
1.52297
1.12782
1.35013
1.47408
1.54364
1.5553
1.5658
1.60306
1.69173
1.87261
2.05606
2.13131
2.11876
2.0695
2.01789
1.98297
1.952
1.9155
1.87438
1.83233
1.79043
1.74985
1.71226
1.67768
1.6461
1.61661
1.58598
1.55607
1.52931
1.50611
1.48335
1.45774
1.42962
1.40763
1.3935
1.37405
1.34963
1.327
1.3145
1.30672
1.29494
1.28032
1.25905
1.24202
1.23502
1.25275
1.33759
1.44919
1.53797
1.58193
1.57853
1.57474
1.58599
1.60808
1.66581
1.7515
1.8249
1.86005
1.86335
1.85184
1.8305
1.81206
1.79999
1.78765
1.76894
1.74894
1.73614
1.72783
1.72072
1.71297
1.70452
1.69496
1.68317
1.66787
1.6521
1.63907
1.6281
1.61811
1.61035
1.60334
1.59446
1.58454
1.57355
1.56335
1.55736
1.55154
1.54437
1.53592
1.5271
1.51865
1.51073
1.50302
1.49671
1.49244
1.50041
1.52862
1.58912
1.39524
1.51681
1.54892
1.56076
1.56486
1.5659
1.56975
1.57754
1.6169
1.77955
1.99296
2.05002
2.04015
2.01904
1.98699
1.95162
1.91063
1.86756
1.82351
1.77973
1.73922
1.70347
1.67193
1.64271
1.61392
1.58546
1.55713
1.52787
1.49885
1.47179
1.45052
1.43402
1.41361
1.38817
1.36326
1.3395
1.32274
1.31053
1.29652
1.2809
1.26989
1.25827
1.26065
1.30353
1.42108
1.53539
1.59019
1.61468
1.61289
1.60618
1.59208
1.57905
1.56373
1.56637
1.6033
1.69154
1.78089
1.83262
1.83791
1.83478
1.82772
1.81193
1.79152
1.77007
1.75366
1.74181
1.73499
1.72822
1.71965
1.71011
1.6994
1.68609
1.67055
1.65487
1.64108
1.63045
1.62291
1.61618
1.60803
1.59826
1.58686
1.57501
1.56479
1.55552
1.54747
1.5408
1.53425
1.5274
1.52013
1.51488
1.50949
1.51325
1.52818
1.56512
1.60379
1.63659
1.53393
1.56076
1.57445
1.57615
1.57447
1.57289
1.57153
1.5684
1.55741
1.56349
1.66096
1.83893
1.97831
2.00675
1.98697
1.94055
1.89309
1.85147
1.81179
1.77205
1.73344
1.69758
1.66525
1.63545
1.60703
1.57892
1.55119
1.52478
1.50056
1.47676
1.45155
1.42579
1.40074
1.37786
1.35904
1.34415
1.32863
1.31331
1.29831
1.28694
1.27855
1.29622
1.37981
1.51041
1.61793
1.63947
1.64743
1.6396
1.62594
1.61353
1.60161
1.586
1.56895
1.55776
1.55778
1.57499
1.63828
1.72915
1.80511
1.8419
1.83934
1.82265
1.79437
1.77313
1.76268
1.75395
1.74627
1.73681
1.72528
1.7136
1.70177
1.68819
1.67323
1.65904
1.64688
1.63687
1.62834
1.62072
1.6128
1.60348
1.59272
1.58111
1.56846
1.55709
1.5488
1.54205
1.53585
1.5292
1.52609
1.52769
1.53982
1.56444
1.60115
1.63708
1.64995
1.65794
1.57438
1.5708
1.5693
1.57083
1.57364
1.57584
1.57276
1.56296
1.54177
1.51823
1.49216
1.52807
1.68181
1.85292
1.92149
1.91122
1.87682
1.83868
1.80029
1.76104
1.72243
1.68665
1.6548
1.62635
1.60014
1.57396
1.54767
1.52084
1.49433
1.46761
1.44088
1.41799
1.40053
1.38293
1.36396
1.34466
1.32772
1.31525
1.30284
1.30689
1.35827
1.48456
1.61196
1.67177
1.68898
1.68214
1.66742
1.65368
1.64014
1.62628
1.6144
1.59965
1.58074
1.56608
1.55694
1.55446
1.56044
1.59257
1.66686
1.76003
1.80806
1.80521
1.79482
1.78763
1.77763
1.76632
1.7541
1.74295
1.73081
1.71833
1.70542
1.69104
1.6759
1.66269
1.65212
1.643
1.63467
1.62721
1.61981
1.61136
1.60138
1.58935
1.5748
1.56059
1.55115
1.54423
1.5397
1.53819
1.54501
1.57398
1.61585
1.65368
1.67455
1.67409
1.67095
1.66508
1.58338
1.58235
1.58056
1.57876
1.5786
1.57732
1.5694
1.55007
1.52218
1.48428
1.45129
1.40825
1.41853
1.51751
1.69861
1.83496
1.84424
1.82231
1.78324
1.74321
1.70676
1.67533
1.64708
1.61968
1.59217
1.56391
1.53663
1.51093
1.48823
1.46681
1.44393
1.41948
1.39983
1.38091
1.36335
1.34561
1.33109
1.32554
1.34624
1.44767
1.59555
1.70268
1.72917
1.72182
1.70552
1.69237
1.68045
1.66885
1.65645
1.64261
1.62876
1.61271
1.59614
1.5815
1.56947
1.55886
1.55183
1.5469
1.55716
1.60742
1.69255
1.764
1.7933
1.79608
1.78881
1.7727
1.75824
1.74745
1.73672
1.72497
1.71183
1.69604
1.67916
1.66523
1.65547
1.64719
1.63912
1.63174
1.62513
1.61783
1.60883
1.59698
1.58204
1.56528
1.55464
1.54993
1.55056
1.56569
1.60727
1.66565
1.7011
1.71479
1.71417
1.69793
1.67958
1.67101
1.58622
1.58465
1.58269
1.5799
1.57722
1.56986
1.55183
1.52153
1.4846
1.43746
1.40797
1.37352
1.33082
1.31588
1.37097
1.54294
1.71203
1.76578
1.7538
1.72157
1.6873
1.65809
1.63119
1.60451
1.57821
1.55343
1.53049
1.5099
1.48911
1.46757
1.44289
1.41503
1.3966
1.38184
1.36725
1.35386
1.35732
1.41753
1.56229
1.70733
1.76886
1.77516
1.76678
1.74501
1.72343
1.70779
1.69496
1.68299
1.67009
1.65442
1.63719
1.62074
1.60735
1.59437
1.58139
1.56788
1.55473
1.54425
1.534
1.53516
1.5613
1.63418
1.71006
1.75952
1.76742
1.76595
1.7632
1.75433
1.74369
1.73176
1.71741
1.70034
1.68237
1.6673
1.6573
1.64951
1.64175
1.63382
1.62666
1.61925
1.61048
1.60029
1.58649
1.57051
1.56135
1.5645
1.58756
1.6377
1.69492
1.73837
1.74531
1.7443
1.7336
1.70864
1.68803
1.67664
1.58134
1.58122
1.58086
1.57767
1.57025
1.55212
1.52236
1.47768
1.42918
1.39926
1.3632
1.31746
1.26677
1.25223
1.23439
1.2604
1.40118
1.5972
1.69642
1.69186
1.67142
1.64179
1.61279
1.58878
1.56673
1.54548
1.52341
1.5034
1.48413
1.46596
1.44426
1.41986
1.40195
1.39234
1.38341
1.40494
1.51313
1.68662
1.79921
1.82054
1.81322
1.79116
1.77
1.75145
1.73556
1.72171
1.70798
1.69358
1.67874
1.66182
1.64245
1.6249
1.61229
1.60135
1.58969
1.57626
1.56165
1.5467
1.53199
1.52589
1.52236
1.53296
1.57229
1.64334
1.7144
1.74198
1.75596
1.75696
1.74863
1.73633
1.72114
1.7042
1.68593
1.66995
1.65918
1.65026
1.64168
1.63287
1.62499
1.61745
1.60981
1.60171
1.59039
1.5806
1.58703
1.61754
1.66773
1.7164
1.75067
1.75913
1.75768
1.74898
1.73349
1.71353
1.69924
1.68525
1.58157
1.58133
1.57837
1.57227
1.55195
1.51726
1.47073
1.42426
1.38135
1.34199
1.28968
1.24498
1.22819
1.20944
1.17176
1.13727
1.15302
1.27565
1.48296
1.61081
1.64095
1.62671
1.6009
1.57737
1.55655
1.53801
1.522
1.50505
1.48815
1.47143
1.45327
1.43473
1.41725
1.42193
1.48563
1.64089
1.78569
1.86637
1.86962
1.8592
1.82789
1.79592
1.77347
1.7569
1.74351
1.73031
1.71694
1.70244
1.68509
1.66593
1.64472
1.6268
1.61444
1.60439
1.59406
1.58182
1.5663
1.55157
1.54091
1.52941
1.51627
1.5061
1.50382
1.52026
1.58197
1.654
1.70588
1.73455
1.73549
1.73115
1.72162
1.70544
1.68702
1.67063
1.65899
1.64994
1.64117
1.63149
1.62361
1.61564
1.61188
1.60548
1.60643
1.62279
1.66287
1.71313
1.74338
1.76219
1.76785
1.76153
1.75268
1.74152
1.72833
1.71791
1.71214
1.69747
1.57771
1.57408
1.56672
1.54596
1.50726
1.46189
1.41522
1.35951
1.30566
1.27007
1.23213
1.19823
1.17576
1.14373
1.09732
1.08774
1.0876
1.10037
1.1929
1.39051
1.54781
1.60239
1.59723
1.58113
1.56045
1.54034
1.52571
1.51181
1.5008
1.4878
1.47397
1.46032
1.4824
1.60006
1.7779
1.88516
1.90053
1.89482
1.87788
1.85439
1.82559
1.80006
1.77814
1.76099
1.74839
1.73605
1.72131
1.70793
1.69402
1.67275
1.6488
1.62952
1.61548
1.60374
1.59242
1.58168
1.57102
1.55947
1.54373
1.52694
1.51237
1.49932
1.49189
1.48318
1.48821
1.52679
1.5935
1.66934
1.71063
1.71817
1.71612
1.70384
1.68721
1.67322
1.66256
1.65058
1.63857
1.62837
1.62167
1.61715
1.61812
1.63208
1.66648
1.71464
1.75733
1.78159
1.78146
1.7727
1.76103
1.75251
1.74408
1.73731
1.73131
1.72534
1.72041
1.70509
1.56568
1.5578
1.53786
1.49794
1.4493
1.40203
1.33571
1.26984
1.24249
1.21291
1.16355
1.13512
1.11486
1.0822
1.05714
1.05546
1.0517
1.0457
1.05357
1.13169
1.33052
1.50635
1.58263
1.58075
1.57147
1.55365
1.53988
1.52777
1.52081
1.51059
1.51451
1.5696
1.73525
1.88978
1.95693
1.9486
1.92709
1.89286
1.86596
1.84251
1.82267
1.80216
1.78291
1.76603
1.75348
1.74336
1.73275
1.71444
1.68821
1.66483
1.64874
1.63514
1.62128
1.60732
1.59413
1.58198
1.56982
1.55724
1.54417
1.52825
1.51198
1.49914
1.48985
1.48202
1.47144
1.46843
1.48682
1.54462
1.62545
1.67575
1.69256
1.68956
1.67888
1.66548
1.65365
1.64171
1.63055
1.62651
1.62387
1.62966
1.65828
1.71013
1.76352
1.79572
1.81053
1.80912
1.79808
1.77619
1.75468
1.74281
1.73685
1.73145
1.72592
1.72078
1.71755
1.70751
1.55053
1.53326
1.49268
1.4345
1.38356
1.316
1.24066
1.208
1.17932
1.12546
1.10067
1.09249
1.07469
1.04774
1.04547
1.04928
1.04625
1.0423
1.04415
1.04933
1.10623
1.28667
1.4949
1.57462
1.58333
1.5796
1.56743
1.55291
1.5414
1.55776
1.65345
1.84227
1.98071
1.98326
1.97409
1.95079
1.91908
1.88879
1.86135
1.83656
1.82085
1.809
1.79634
1.78365
1.76975
1.75119
1.72673
1.70241
1.67962
1.66165
1.64773
1.63595
1.62469
1.61358
1.60275
1.59089
1.5782
1.56278
1.54351
1.52573
1.51158
1.49915
1.48754
1.47704
1.46797
1.46027
1.45641
1.46488
1.50829
1.57194
1.63299
1.66506
1.67068
1.66444
1.65162
1.6421
1.63406
1.63464
1.64668
1.68225
1.7372
1.79114
1.81492
1.81704
1.81518
1.80841
1.7948
1.7732
1.75077
1.7379
1.73254
1.72954
1.72674
1.72225
1.71645
1.70178
1.53207
1.4926
1.42472
1.35881
1.29105
1.21
1.16132
1.13181
1.09204
1.0555
1.05009
1.0436
1.03623
1.03721
1.04231
1.05087
1.05309
1.05415
1.05856
1.06584
1.07373
1.1127
1.27596
1.47814
1.58651
1.58783
1.58503
1.58857
1.62405
1.75874
1.93045
2.02227
2.03322
2.01363
1.96987
1.93479
1.90888
1.88638
1.86362
1.84259
1.82665
1.81083
1.79412
1.77671
1.75995
1.7415
1.71971
1.69667
1.67657
1.6619
1.65096
1.64074
1.63013
1.61809
1.60326
1.58596
1.56987
1.55519
1.53903
1.52375
1.51141
1.50137
1.49198
1.48175
1.47231
1.46266
1.45404
1.43962
1.4392
1.45878
1.51118
1.57863
1.63114
1.65078
1.65048
1.65178
1.66332
1.68459
1.72174
1.76712
1.80485
1.82832
1.832
1.82787
1.81544
1.80001
1.78514
1.76916
1.75494
1.73935
1.72644
1.72114
1.71788
1.71431
1.70921
1.6965
1.49703
1.41187
1.32886
1.25658
1.1619
1.10903
1.10706
1.08978
1.06511
1.05589
1.04912
1.04953
1.05177
1.05909
1.06975
1.07868
1.08146
1.08202
1.08462
1.08867
1.08808
1.09137
1.11798
1.27094
1.49467
1.55719
1.62655
1.72418
1.85987
1.96678
2.04414
2.04099
2.01663
1.98764
1.95855
1.93024
1.91078
1.89449
1.87768
1.86107
1.84305
1.82301
1.80218
1.78057
1.75772
1.73528
1.71616
1.70009
1.6855
1.6745
1.66458
1.65396
1.64237
1.62871
1.61198
1.59213
1.57063
1.55328
1.54085
1.52982
1.52082
1.5135
1.50608
1.49816
1.49002
1.47963
1.46385
1.44057
1.41811
1.41734
1.42867
1.47045
1.53916
1.60544
1.64588
1.69751
1.7503
1.77986
1.79161
1.80617
1.82382
1.83114
1.82585
1.8168
1.8064
1.79304
1.78064
1.77204
1.76135
1.7446
1.72965
1.71996
1.71347
1.70858
1.70528
1.69761
1.39906
1.23574
1.11578
1.0171
0.961186
0.969964
1.01621
1.03266
1.03647
1.05175
1.06731
1.07756
1.08738
1.10358
1.11385
1.11448
1.11306
1.11045
1.11128
1.11052
1.10745
1.10709
1.11017
1.13416
1.2754
1.5317
1.76073
1.9696
2.13215
2.1834
2.14295
2.06609
2.00539
1.97176
1.95031
1.92732
1.90463
1.88648
1.87094
1.85543
1.83786
1.81786
1.79654
1.77471
1.75184
1.72841
1.70651
1.68828
1.67545
1.66603
1.6566