/*--------------------------------*- C++ -*----------------------------------*\
  =========                 |
  \\      /  F ield         | OpenFOAM: The Open Source CFD Toolbox
   \\    /   O peration     | Website:  https://openfoam.org
    \\  /    A nd           | Version:  7
     \\/     M anipulation  |
\*---------------------------------------------------------------------------*/
FoamFile
{
    version     2.0;
    format      ascii;
    class       volVectorField;
    location    "3.6";
    object      U;
}
// * * * * * * * * * * * * * * * * * * * * * * * * * * * * * * * * * * * * * //

dimensions      [0 1 -1 0 0 0 0];

internalField   nonuniform List<vector> 
4608
(
(3 -5.7589e-18 0)
(3 -4.81204e-17 0)
(3 -1.22479e-16 0)
(3 2.71081e-16 0)
(3 -3.38473e-16 0)
(3 -5.40456e-16 0)
(3 -6.97696e-16 0)
(3 -4.4665e-16 0)
(3 2.4138e-16 0)
(3 6.15039e-16 0)
(3 9.15242e-16 0)
(3 1.1099e-15 0)
(3 1.02303e-15 0)
(3 3.29453e-16 0)
(3 2.0768e-16 0)
(3 5.99746e-16 0)
(3 -6.39225e-17 0)
(3 3.1808e-16 0)
(3 4.92073e-16 0)
(3 6.37775e-17 0)
(3 2.39985e-16 0)
(3 4.79824e-16 0)
(3 -2.23054e-16 0)
(3 -4.58371e-16 0)
(3 -8.91102e-17 0)
(3 4.4866e-17 0)
(3 -7.12348e-17 0)
(3 -2.84481e-16 0)
(3 -6.07729e-16 0)
(3 -6.93928e-16 0)
(3 -1.1251e-15 0)
(3 -4.6447e-16 0)
(3 -3.91086e-17 0)
(3 7.90889e-16 0)
(3 6.84877e-16 0)
(3 1.40604e-15 0)
(3 2.09079e-15 0)
(3 7.64857e-16 0)
(3 4.0139e-16 0)
(3 5.13235e-16 0)
(3 -7.01664e-18 0)
(3 -3.73852e-16 0)
(3 -1.77174e-16 0)
(3 -4.85042e-17 0)
(3 1.0599e-15 0)
(3 1.77806e-15 0)
(3 1.19954e-15 0)
(3 2.95707e-16 0)
(3 -8.87204e-17 0)
(3 2.36783e-16 0)
(3 9.28002e-17 0)
(3 -4.98058e-16 0)
(3 -6.08759e-16 0)
(3 -6.47087e-16 0)
(3 -1.27854e-15 0)
(3 -1.29677e-15 0)
(3 -2.07907e-16 0)
(3 3.37032e-16 0)
(3 9.36628e-16 0)
(3 1.74722e-15 0)
(3 1.91624e-15 0)
(3 2.00204e-15 0)
(3 1.09935e-15 0)
(3 3.75624e-16 0)
(3 2.24781e-16 0)
(3 -6.90021e-16 0)
(3 -1.53758e-15 0)
(3 -1.6267e-15 0)
(3 -6.76431e-16 0)
(3 -8.48349e-16 0)
(3 -3.42527e-16 0)
(3 8.93675e-16 0)
(3 1.19362e-17 0)
(3 3.28967e-16 0)
(3 2.2222e-16 0)
(3 2.36293e-16 0)
(3 -1.35591e-16 0)
(3 -8.68289e-16 0)
(3 -1.26433e-15 0)
(3 -1.76456e-15 0)
(3 -6.58332e-16 0)
(3 6.02954e-16 0)
(3 1.16582e-15 0)
(3 6.64568e-16 0)
(3 1.72726e-17 0)
(3 -3.40778e-17 0)
(3 6.29655e-17 0)
(3 -2.40792e-16 0)
(3 -2.43749e-16 0)
(3 -2.8333e-16 0)
(3 -1.10841e-16 0)
(3 -5.40536e-16 0)
(3 -1.05853e-15 0)
(3 -1.74666e-15 0)
(3 -1.37149e-15 0)
(3 5.00163e-16 0)
(3 2.73678e-16 0)
(3 -3.97336e-17 0)
(3 -1.50584e-16 0)
(3 -2.96711e-16 0)
(3 -1.07032e-15 0)
(3 -1.15679e-15 0)
(3 -2.58959e-16 0)
(3 4.51859e-16 0)
(3 1.31478e-15 0)
(3 1.81034e-15 0)
(3 1.18282e-15 0)
(3 -4.41652e-16 0)
(3 -1.50547e-15 0)
(3 -2.01546e-15 0)
(3 -1.77944e-15 0)
(3 -1.25081e-15 0)
(3 -1.05386e-15 0)
(3 -6.73737e-17 0)
(3 5.22431e-16 0)
(3 1.67697e-16 0)
(3 -6.68038e-16 0)
(3 -9.23801e-16 0)
(3 2.05633e-16 0)
(3 1.79242e-15 0)
(3 1.10248e-16 0)
(3 -4.79208e-16 0)
(3 -5.33969e-16 0)
(3 -9.69557e-16 0)
(3 -1.67797e-15 0)
(3 -1.22342e-15 0)
(3 -1.7719e-16 0)
(3 1.28122e-15 0)
(3 2.17786e-15 0)
(3 1.68574e-15 0)
(3 5.96748e-16 0)
(3 -2.74828e-16 0)
(3 -7.12569e-16 0)
(3 -1.3603e-15 0)
(3 -2.10575e-15 0)
(3 -2.09175e-15 0)
(3 -2.2292e-15 0)
(3 -1.10723e-15 0)
(3 -2.63219e-16 0)
(3 1.09582e-17 0)
(3 -2.23266e-16 0)
(3 -2.25236e-16 0)
(3 1.22826e-15 0)
(3 1.26072e-15 0)
(3 -4.14151e-17 0)
(3 2.0884e-16 0)
(3 -4.09547e-17 0)
(3 -1.02138e-16 0)
(3 -1.92557e-16 0)
(3 -3.34039e-16 0)
(3 -7.80078e-16 0)
(3 -1.62669e-16 0)
(3 -2.38086e-16 0)
(3 -4.44715e-16 0)
(3 -3.9772e-16 0)
(3 -7.10908e-16 0)
(3 -7.2866e-16 0)
(3 -9.83415e-16 0)
(3 -1.36261e-15 0)
(3 -1.38055e-15 0)
(3 -1.37425e-15 0)
(3 -1.04472e-15 0)
(3 -6.01253e-16 0)
(3 -3.17385e-16 0)
(3 2.5882e-16 0)
(3 3.36277e-16 0)
(3 -1.65695e-16 0)
(3 -1.23736e-15 0)
(3 -1.41936e-16 0)
(3 2.21352e-16 0)
(3 1.29851e-16 0)
(3 1.26575e-16 0)
(3 1.84271e-16 0)
(3 -2.23315e-16 0)
(3 -3.00445e-16 0)
(3 -9.38528e-16 0)
(3 -9.95107e-16 0)
(3 -8.7298e-16 0)
(3 2.16954e-17 0)
(3 4.07137e-16 0)
(3 1.00429e-16 0)
(3 -5.19567e-16 0)
(3 -5.53079e-16 0)
(3 -6.28824e-16 0)
(3 -5.44263e-16 0)
(3 -6.35341e-16 0)
(3 -2.59217e-16 0)
(3 -3.11048e-16 0)
(3 4.86689e-17 0)
(3 -2.28718e-16 0)
(3 -9.5092e-16 0)
(3 -2.61675e-15 0)
(3 -2.00523e-16 0)
(3 -4.41755e-16 0)
(3 -1.27986e-16 0)
(3 -1.24003e-17 0)
(3 2.14795e-16 0)
(3 -8.09719e-17 0)
(3 -4.27056e-17 0)
(3 -6.46125e-16 0)
(3 -9.36469e-16 0)
(3 -1.69329e-16 0)
(3 1.18047e-15 0)
(3 3.10195e-15 0)
(3 2.99275e-15 0)
(3 2.2716e-15 0)
(3 1.5767e-15 0)
(3 3.23755e-16 0)
(3 -6.93454e-17 0)
(3 -5.17472e-16 0)
(3 -3.43294e-16 0)
(3 -1.32567e-16 0)
(3 -8.83648e-16 0)
(3 -4.23941e-16 0)
(3 -3.31466e-16 0)
(3 -1.18189e-15 0)
(3 2.79371e-17 0)
(3 5.34401e-17 0)
(3 6.9265e-17 0)
(3 1.61605e-16 0)
(3 4.39592e-16 0)
(3 7.03352e-16 0)
(3 3.5258e-16 0)
(3 -2.90146e-16 0)
(3 -6.93546e-16 0)
(3 -6.48535e-16 0)
(3 3.28912e-16 0)
(3 9.64383e-16 0)
(3 2.16929e-15 0)
(3 2.18752e-15 0)
(3 1.45512e-15 0)
(3 9.12109e-16 0)
(3 9.03265e-16 0)
(3 9.33589e-16 0)
(3 7.69237e-16 0)
(3 7.09426e-16 0)
(3 4.66348e-16 0)
(3 5.11744e-16 0)
(3 -4.76922e-16 0)
(3 -7.65572e-16 0)
(3 2.54946e-17 0)
(3 2.16314e-16 0)
(3 1.49056e-16 0)
(3 -3.40405e-21 0)
(3 2.55474e-16 0)
(3 8.7742e-16 0)
(3 1.04076e-15 0)
(3 7.00865e-16 0)
(3 2.24389e-16 0)
(3 9.03256e-17 0)
(3 1.75934e-16 0)
(3 3.42191e-16 0)
(3 9.44239e-16 0)
(3 1.62271e-15 0)
(3 1.17441e-15 0)
(3 1.37625e-15 0)
(3 1.56923e-15 0)
(3 1.64108e-15 0)
(3 1.30871e-15 0)
(3 5.02094e-16 0)
(3 -6.53475e-17 0)
(3 -8.55511e-16 0)
(3 -1.24268e-15 0)
(3 -1.90707e-15 0)
(3 5.49685e-18 0)
(3 -3.37675e-16 0)
(3 -2.41477e-16 0)
(3 7.95817e-17 0)
(3 3.02294e-16 0)
(3 9.4541e-16 0)
(3 1.08437e-15 0)
(3 1.04378e-15 0)
(3 1.22614e-15 0)
(3 1.21765e-15 0)
(3 1.23239e-15 0)
(3 1.05257e-15 0)
(3 1.15239e-16 0)
(3 4.65507e-16 0)
(3 7.47741e-16 0)
(3 1.28174e-15 0)
(3 1.27751e-15 0)
(3 1.04898e-15 0)
(3 7.97168e-17 0)
(3 -4.75649e-16 0)
(3 -1.48715e-15 0)
(3 -1.99258e-15 0)
(3 -1.41487e-15 0)
(3 -1.72903e-15 0)
(3 1.06311e-17 0)
(3 5.79837e-18 0)
(3 -1.8103e-17 0)
(3 -4.16605e-17 0)
(3 -4.70705e-16 0)
(3 -4.13756e-16 0)
(3 -1.40492e-16 0)
(3 1.05998e-15 0)
(3 1.66106e-15 0)
(3 1.57455e-15 0)
(3 1.30347e-15 0)
(3 6.25152e-16 0)
(3 -1.19479e-17 0)
(3 -1.96804e-16 0)
(3 -6.79021e-17 0)
(3 5.33016e-16 0)
(3 5.29689e-16 0)
(3 -1.18099e-16 0)
(3 -2.00237e-16 0)
(3 -3.97936e-16 0)
(3 -1.91206e-15 0)
(3 -2.46921e-15 0)
(3 -2.63309e-15 0)
(3 -1.93881e-15 0)
(3 3.56792e-18 0)
(3 1.62161e-16 0)
(3 3.45887e-17 0)
(3 -4.00392e-16 0)
(3 -1.16597e-15 0)
(3 -1.89239e-15 0)
(3 -1.15828e-15 0)
(3 -4.28159e-17 0)
(3 4.9697e-16 0)
(3 3.36507e-16 0)
(3 -4.21763e-18 0)
(3 -1.96792e-16 0)
(3 -1.39776e-16 0)
(3 -1.18982e-17 0)
(3 3.17727e-16 0)
(3 2.18035e-16 0)
(3 -1.44652e-15 0)
(3 -2.35768e-15 0)
(3 -1.93127e-15 0)
(3 -1.51785e-15 0)
(3 -6.78634e-16 0)
(3 -1.06812e-15 0)
(3 -2.67718e-15 0)
(3 -2.25321e-15 0)
(3 -1.06104e-17 0)
(3 -2.56047e-17 0)
(3 -8.10582e-17 0)
(3 -3.41356e-16 0)
(3 -6.40434e-16 0)
(3 -3.00388e-16 0)
(3 3.0102e-17 0)
(3 2.48638e-16 0)
(3 -1.03791e-15 0)
(3 -1.68865e-15 0)
(3 -2.02501e-15 0)
(3 -2.21755e-15 0)
(3 -1.84191e-15 0)
(3 -7.43061e-16 0)
(3 -7.10233e-17 0)
(3 -4.55522e-16 0)
(3 -1.01853e-15 0)
(3 -1.89824e-15 0)
(3 -2.2106e-15 0)
(3 -2.03839e-15 0)
(3 -1.18032e-15 0)
(3 -5.78966e-16 0)
(3 -4.52556e-16 0)
(3 -1.52784e-15 0)
(3 2.14329e-17 0)
(3 1.18554e-16 0)
(3 -1.40832e-16 0)
(3 -3.42367e-16 0)
(3 1.5955e-16 0)
(3 6.45625e-16 0)
(3 3.95192e-16 0)
(3 -1.22041e-15 0)
(3 -1.86255e-15 0)
(3 -1.66382e-15 0)
(3 -1.60945e-15 0)
(3 -1.3071e-15 0)
(3 -1.7386e-15 0)
(3 -8.83245e-16 0)
(3 -1.05821e-15 0)
(3 -4.75468e-16 0)
(3 1.39193e-16 0)
(3 -1.4205e-16 0)
(3 -1.19093e-15 0)
(3 1.61877e-17 0)
(3 2.38568e-16 0)
(3 1.0323e-15 0)
(3 1.04863e-15 0)
(3 1.63155e-16 0)
(3 -4.49185e-17 0)
(3 -7.41889e-17 0)
(3 -9.28145e-17 0)
(3 1.84835e-16 0)
(3 8.31667e-16 0)
(3 9.04114e-16 0)
(3 2.19258e-17 0)
(3 -6.25761e-16 0)
(3 -1.34762e-16 0)
(3 2.94906e-17 0)
(3 -1.09843e-16 0)
(3 -6.03088e-16 0)
(3 -1.21904e-15 0)
(3 -1.25535e-15 0)
(3 -9.44085e-16 0)
(3 -5.2157e-16 0)
(3 -2.0562e-16 0)
(3 2.06355e-16 0)
(3 2.82768e-17 0)
(3 -4.92879e-16 0)
(3 -4.25253e-16 0)
(3 -4.40793e-16 0)
(3 2.70468e-16 0)
(3 1.98774e-16 0)
(3 3.30058e-17 0)
(3 -1.74366e-16 0)
(3 1.33132e-16 0)
(3 8.53437e-16 0)
(3 3.67437e-16 0)
(3 -5.94769e-17 0)
(3 -1.57468e-16 0)
(3 1.05229e-16 0)
(3 7.62526e-16 0)
(3 6.5762e-16 0)
(3 2.30258e-17 0)
(3 -8.87587e-16 0)
(3 -8.92058e-16 0)
(3 -8.94429e-16 0)
(3 -6.25972e-16 0)
(3 -6.50807e-16 0)
(3 -1.66821e-16 0)
(3 6.8884e-16 0)
(3 8.70038e-16 0)
(3 3.66047e-16 0)
(3 3.6256e-16 0)
(3 6.96344e-16 0)
(3 1.36476e-15 0)
(3 1.59879e-15 0)
(3 5.54991e-17 0)
(3 1.25977e-16 0)
(3 3.05755e-16 0)
(3 3.4076e-16 0)
(3 1.12481e-16 0)
(3 -3.11358e-16 0)
(3 -8.60878e-18 0)
(3 5.03729e-16 0)
(3 4.28631e-16 0)
(3 4.72485e-17 0)
(3 -4.05847e-16 0)
(3 -7.53835e-16 0)
(3 -1.27985e-15 0)
(3 -1.49397e-15 0)
(3 -1.54549e-15 0)
(3 -1.40984e-15 0)
(3 -1.08278e-15 0)
(3 -2.06797e-16 0)
(3 7.01773e-16 0)
(3 8.48904e-16 0)
(3 1.4004e-15 0)
(3 2.04822e-15 0)
(3 2.94626e-15 0)
(3 3.13934e-15 0)
(3 -6.7192e-17 0)
(3 7.8919e-17 0)
(3 -3.77733e-17 0)
(3 -5.15813e-16 0)
(3 -5.77597e-16 0)
(3 3.40222e-16 0)
(3 6.1745e-16 0)
(3 4.18028e-16 0)
(3 -1.90285e-16 0)
(3 -2.13006e-16 0)
(3 -4.52454e-16 0)
(3 -1.23922e-15 0)
(3 -1.57626e-15 0)
(3 -1.90963e-15 0)
(3 -1.6643e-15 0)
(3 -1.38681e-15 0)
(3 -1.50123e-15 0)
(3 -1.69841e-15 0)
(3 -1.08847e-15 0)
(3 -3.44181e-16 0)
(3 1.17847e-15 0)
(3 1.44273e-15 0)
(3 1.63284e-15 0)
(3 2.28553e-15 0)
(3 5.23248e-17 0)
(3 -5.3018e-17 0)
(3 -5.56142e-17 0)
(3 -2.66779e-16 0)
(3 -6.6505e-16 0)
(3 2.02286e-17 0)
(3 4.61858e-17 0)
(3 -2.10838e-16 0)
(3 -1.24446e-16 0)
(3 -1.95516e-16 0)
(3 -5.4397e-16 0)
(3 -5.74174e-16 0)
(3 1.4185e-16 0)
(3 1.32766e-16 0)
(3 -8.66279e-17 0)
(3 -1.67092e-16 0)
(3 -2.41526e-16 0)
(3 -6.12545e-16 0)
(3 -7.23971e-16 0)
(3 -2.42409e-16 0)
(3 1.81705e-16 0)
(3 4.89872e-16 0)
(3 3.26666e-16 0)
(3 3.56062e-16 0)
(3 5.71625e-17 0)
(3 -4.56183e-17 0)
(3 -6.11144e-17 0)
(3 4.6744e-16 0)
(3 7.33552e-16 0)
(3 1.50375e-16 0)
(3 2.17919e-19 0)
(3 -5.89372e-16 0)
(3 -8.74292e-16 0)
(3 -6.46799e-16 0)
(3 -1.25518e-16 0)
(3 1.03155e-15 0)
(3 2.0049e-15 0)
(3 2.34035e-15 0)
(3 1.93004e-15 0)
(3 1.58473e-15 0)
(3 1.10378e-15 0)
(3 1.99731e-16 0)
(3 1.02813e-16 0)
(3 5.10448e-17 0)
(3 -1.54591e-16 0)
(3 -6.4532e-16 0)
(3 -1.19249e-15 0)
(3 -1.27465e-15 0)
(3 1.69345e-16 0)
(3 2.66516e-16 0)
(3 1.47735e-16 0)
(3 6.53628e-16 0)
(3 1.69982e-15 0)
(3 8.82647e-16 0)
(3 4.54721e-16 0)
(3 -9.09325e-17 0)
(3 -3.39556e-16 0)
(3 -8.29063e-17 0)
(3 8.05344e-16 0)
(3 1.00169e-15 0)
(3 8.83629e-16 0)
(3 1.35708e-15 0)
(3 1.67427e-15 0)
(3 1.30015e-15 0)
(3 1.03962e-15 0)
(3 9.77251e-16 0)
(3 1.0306e-15 0)
(3 9.69991e-16 0)
(3 6.13193e-16 0)
(3 -7.19086e-16 0)
(3 -1.1822e-15 0)
(3 -1.01165e-15 0)
(3 5.85893e-18 0)
(3 2.44475e-17 0)
(3 9.36798e-17 0)
(3 4.56247e-16 0)
(3 6.27476e-16 0)
(3 1.03572e-15 0)
(3 1.48203e-15 0)
(3 2.2289e-15 0)
(3 2.24694e-15 0)
(3 1.6786e-15 0)
(3 1.60711e-15 0)
(3 9.97138e-16 0)
(3 -4.63212e-16 0)
(3 -1.01711e-15 0)
(3 -4.56989e-16 0)
(3 -5.18114e-16 0)
(3 -2.32804e-16 0)
(3 9.61384e-16 0)
(3 8.27302e-16 0)
(3 4.18303e-16 0)
(3 4.71121e-16 0)
(3 5.86884e-16 0)
(3 5.5076e-16 0)
(3 6.37652e-17 0)
(3 -1.86837e-16 0)
(3 -2.18139e-16 0)
(3 1.64416e-16 0)
(3 1.2108e-17 0)
(3 2.33159e-16 0)
(3 5.1467e-16 0)
(3 9.35181e-16 0)
(3 1.41611e-15 0)
(3 1.25917e-15 0)
(3 9.20187e-16 0)
(3 9.9147e-16 0)
(3 9.88325e-16 0)
(3 4.11788e-16 0)
(3 -8.92212e-16 0)
(3 -1.18721e-15 0)
(3 -1.37401e-15 0)
(3 -8.4585e-16 0)
(3 2.96997e-16 0)
(3 8.83609e-16 0)
(3 3.05402e-16 0)
(3 -1.01161e-16 0)
(3 1.27963e-17 0)
(3 2.0597e-17 0)
(3 5.29766e-17 0)
(3 7.65147e-17 0)
(3 3.69768e-16 0)
(3 5.42634e-16 0)
(3 4.25973e-16 0)
(3 5.01954e-16 0)
(3 3.43562e-16 0)
(3 -1.27255e-16 0)
(3 -1.39724e-16 0)
(3 -3.01774e-16 0)
(3 -1.25393e-15 0)
(3 -7.15363e-16 0)
(3 -1.23886e-16 0)
(3 1.29418e-16 0)
(3 2.1067e-16 0)
(3 -5.27366e-16 0)
(3 -5.66545e-16 0)
(3 -2.76965e-17 0)
(3 1.08238e-15 0)
(3 1.65669e-15 0)
(3 1.50596e-15 0)
(3 8.33185e-16 0)
(3 9.32118e-16 0)
(3 1.18467e-16 0)
(3 2.3023e-17 0)
(3 -2.13441e-17 0)
(3 -1.22545e-17 0)
(3 -2.02294e-16 0)
(3 -1.09397e-16 0)
(3 -3.48148e-16 0)
(3 -2.59281e-16 0)
(3 2.1943e-16 0)
(3 3.16576e-16 0)
(3 -1.94641e-16 0)
(3 -4.3174e-16 0)
(3 -3.24359e-16 0)
(3 -3.29596e-16 0)
(3 -3.58867e-16 0)
(3 -4.65097e-18 0)
(3 8.06479e-17 0)
(3 -3.86147e-16 0)
(3 -1.09236e-16 0)
(3 -1.15895e-17 0)
(3 2.17674e-16 0)
(3 -2.74299e-16 0)
(3 -5.62406e-16 0)
(3 -5.93863e-16 0)
(3 -1.71865e-15 0)
(3 -2.54997e-15 0)
(3 -1.13428e-16 0)
(3 -3.09532e-16 0)
(3 -3.28493e-16 0)
(3 -5.24046e-16 0)
(3 -5.07479e-16 0)
(3 -2.65971e-16 0)
(3 -1.38587e-16 0)
(3 -6.51819e-16 0)
(3 -7.22237e-16 0)
(3 -2.91775e-17 0)
(3 2.13017e-16 0)
(3 5.09545e-16 0)
(3 5.07551e-16 0)
(3 2.48565e-16 0)
(3 5.73768e-16 0)
(3 3.37814e-16 0)
(3 -5.34606e-16 0)
(3 -1.22604e-15 0)
(3 -1.63681e-15 0)
(3 -2.33832e-15 0)
(3 -2.46381e-15 0)
(3 -2.73875e-15 0)
(3 -3.05696e-15 0)
(3 -3.05577e-15 0)
(3 -5.77986e-17 0)
(3 2.94451e-16 0)
(3 4.42943e-16 0)
(3 2.8876e-16 0)
(3 3.5151e-16 0)
(3 2.96688e-16 0)
(3 -4.67722e-16 0)
(3 -8.19736e-16 0)
(3 1.6851e-16 0)
(3 9.26994e-16 0)
(3 8.27034e-16 0)
(3 6.66782e-16 0)
(3 7.74181e-16 0)
(3 7.31749e-16 0)
(3 8.84042e-16 0)
(3 1.10673e-15 0)
(3 5.78577e-16 0)
(3 -2.16828e-16 0)
(3 -1.28547e-15 0)
(3 -1.69171e-15 0)
(3 -2.42839e-15 0)
(3 -2.52392e-15 0)
(3 -2.13232e-15 0)
(3 -1.05742e-15 0)
(3 1.3956e-16 0)
(3 3.49752e-16 0)
(3 -5.09618e-18 0)
(3 -7.22372e-17 0)
(3 8.64029e-16 0)
(3 1.08394e-15 0)
(3 9.82547e-16 0)
(3 1.47792e-15 0)
(3 1.66678e-15 0)
(3 1.91798e-15 0)
(3 1.72704e-15 0)
(3 1.12006e-15 0)
(3 1.02109e-15 0)
(3 7.7201e-16 0)
(3 6.61704e-16 0)
(3 1.08812e-15 0)
(3 1.55386e-15 0)
(3 9.83346e-16 0)
(3 3.45578e-16 0)
(3 -4.81329e-16 0)
(3 -9.35134e-16 0)
(3 -2.41073e-16 0)
(3 2.20426e-16 0)
(3 8.01974e-16 0)
(3 6.14991e-17 0)
(3 -3.27322e-16 0)
(3 -4.74224e-16 0)
(3 -1.90817e-16 0)
(3 1.48426e-16 0)
(3 4.79582e-16 0)
(3 5.36735e-16 0)
(3 5.4454e-16 0)
(3 6.43561e-16 0)
(3 1.21873e-15 0)
(3 1.31661e-15 0)
(3 1.50976e-15 0)
(3 1.6066e-15 0)
(3 1.58478e-15 0)
(3 1.50577e-15 0)
(3 1.48554e-15 0)
(3 1.03989e-15 0)
(3 7.86406e-17 0)
(3 -1.17117e-17 0)
(3 -2.35804e-16 0)
(3 -2.91633e-16 0)
(3 -2.69033e-16 0)
(3 1.32531e-16 0)
(3 2.17749e-16 0)
(3 -1.09586e-16 0)
(3 -2.35019e-16 0)
(3 -1.34476e-16 0)
(3 6.94252e-17 0)
(3 -2.41285e-16 0)
(3 -1.90319e-16 0)
(3 -5.63548e-17 0)
(3 -2.52521e-17 0)
(3 2.03751e-16 0)
(3 5.0815e-16 0)
(3 4.80876e-16 0)
(3 4.50797e-16 0)
(3 8.55668e-16 0)
(3 8.29882e-16 0)
(3 5.39289e-16 0)
(3 4.59071e-16 0)
(3 -2.61024e-16 0)
(3 -3.66904e-16 0)
(3 -5.44514e-17 0)
(3 1.64189e-16 0)
(3 -1.54904e-17 0)
(3 -3.99438e-16 0)
(3 -2.69516e-16 0)
(3 -5.37982e-16 0)
(2.93167 0.0251841 0)
(2.8554 0.0356926 0)
(2.74603 0.177898 0)
(2.68184 0.22563 0)
(2.57169 0.352803 0)
(2.49894 0.447643 0)
(2.42737 0.541425 0)
(2.34766 0.625613 0)
(2.3123 0.725703 0)
(2.26012 0.798195 0)
(2.25006 0.855494 0)
(2.28019 0.887178 0)
(2.32377 0.891458 0)
(2.33891 0.886444 0)
(2.34788 0.877656 0)
(2.3482 0.870127 0)
(2.34592 0.857966 0)
(2.34589 0.849758 0)
(2.3463 0.847281 0)
(2.34125 0.847446 0)
(2.338 0.847833 0)
(2.33669 0.84844 0)
(2.33797 0.849567 0)
(2.34075 0.849471 0)
(2.99876 0.00128973 0)
(2.99111 0.0103263 0)
(2.95792 0.0516072 0)
(2.90399 0.132538 0)
(2.80227 0.275963 0)
(2.67856 0.46513 0)
(2.54237 0.67838 0)
(2.36637 0.91034 0)
(2.23248 1.06349 0)
(2.17765 1.10016 0)
(2.13994 1.04894 0)
(2.18043 1.00248 0)
(2.2582 0.94759 0)
(2.29902 0.897492 0)
(2.32498 0.858463 0)
(2.34905 0.834761 0)
(2.35269 0.836298 0)
(2.35868 0.837916 0)
(2.35765 0.838844 0)
(2.35275 0.841397 0)
(2.34746 0.84425 0)
(2.34403 0.846007 0)
(2.34198 0.847972 0)
(2.34192 0.848232 0)
(3 7.7623e-08 0)
(3.00003 -3.33516e-05 0)
(2.9999 0.000130887 0)
(2.9999 0.000149723 0)
(2.99862 0.00183116 0)
(2.99131 0.0129523 0)
(2.96665 0.051299 0)
(2.89297 0.182166 0)
(2.7895 0.395267 0)
(2.58825 0.705537 0)
(2.43664 0.859155 0)
(2.33901 0.929067 0)
(2.29974 0.916604 0)
(2.29945 0.899729 0)
(2.30899 0.885948 0)
(2.33913 0.870718 0)
(2.35088 0.866193 0)
(2.35577 0.852605 0)
(2.36029 0.844976 0)
(2.3613 0.842819 0)
(2.35763 0.844137 0)
(2.35257 0.847569 0)
(2.34828 0.851371 0)
(2.34544 0.852627 0)
(3 -7.31472e-09 0)
(3 -1.41516e-06 0)
(3 -1.48603e-06 0)
(3 -6.84997e-07 0)
(3 -8.0985e-06 0)
(2.99999 2.21534e-05 0)
(3.00007 -0.000141997 0)
(2.99917 0.00140787 0)
(2.99124 0.0163229 0)
(2.89732 0.160544 0)
(2.71472 0.453486 0)
(2.50986 0.72115 0)
(2.30741 0.935418 0)
(2.27133 0.955362 0)
(2.28493 0.936471 0)
(2.30476 0.913682 0)
(2.32331 0.895562 0)
(2.34235 0.871467 0)
(2.35878 0.849761 0)
(2.36336 0.842356 0)
(2.36233 0.843282 0)
(2.36018 0.843881 0)
(2.35484 0.846352 0)
(2.34968 0.852833 0)
(3 -1.11782e-10 0)
(3 3.02454e-09 0)
(3 -4.69145e-08 0)
(3 -6.31059e-08 0)
(3 -4.73393e-07 0)
(3 -7.00332e-07 0)
(3 -6.00185e-06 0)
(3 -5.29865e-06 0)
(3.00002 -4.8701e-05 0)
(2.99932 0.000631762 0)
(2.98306 0.0248075 0)
(2.8975 0.141589 0)
(2.59248 0.522651 0)
(2.42774 0.741573 0)
(2.37549 0.836008 0)
(2.30671 0.886991 0)
(2.30284 0.890732 0)
(2.32228 0.877055 0)
(2.34182 0.858639 0)
(2.35369 0.85748 0)
(2.35913 0.845229 0)
(2.35946 0.839674 0)
(2.35907 0.838414 0)
(2.35134 0.84373 0)
(3 6.07696e-13 0)
(3 1.29059e-10 0)
(3 2.05067e-10 0)
(3 -3.70263e-10 0)
(3 2.07187e-10 0)
(3 -4.00861e-08 0)
(3 -9.11208e-08 0)
(3 -3.63719e-07 0)
(3 -6.22712e-06 0)
(3 -6.05365e-06 0)
(3.00002 -5.12212e-05 0)
(2.99893 0.00144737 0)
(2.96366 0.0454409 0)
(2.85482 0.193538 0)
(2.54296 0.588105 0)
(2.32761 0.838336 0)
(2.31385 0.849595 0)
(2.31148 0.869626 0)
(2.31648 0.871929 0)
(2.33182 0.863979 0)
(2.34034 0.852203 0)
(2.347 0.838209 0)
(2.35195 0.83397 0)
(2.35101 0.836215 0)
(3 1.93065e-13 0)
(3 9.8419e-14 0)
(3 1.06061e-11 0)
(3 7.26126e-12 0)
(3 1.27603e-11 0)
(3 -4.27944e-10 0)
(3 -3.13597e-10 0)
(3 -2.67193e-10 0)
(3 -1.59555e-08 0)
(3 -3.65431e-07 0)
(3 -4.3151e-06 0)
(3.00001 -1.41026e-05 0)
(2.99996 5.64929e-05 0)
(2.99713 0.00435176 0)
(2.92962 0.0869226 0)
(2.7529 0.316897 0)
(2.4971 0.637829 0)
(2.28673 0.898963 0)
(2.27326 0.8769 0)
(2.30739 0.859115 0)
(2.31341 0.856512 0)
(2.32397 0.851473 0)
(2.33537 0.841881 0)
(2.34037 0.839724 0)
(3 1.48094e-15 0)
(3 7.66727e-16 0)
(3 -5.31239e-15 0)
(3 5.79725e-13 0)
(3 1.7809e-12 0)
(3 4.3414e-12 0)
(3 6.33333e-12 0)
(3 6.48697e-12 0)
(3 1.40418e-10 0)
(3 -3.25076e-10 0)
(3 -2.49387e-08 0)
(3 -1.58991e-06 0)
(3 -1.3388e-06 0)
(3.00001 -1.86286e-05 0)
(2.99943 0.000841139 0)
(2.98833 0.0183342 0)
(2.87158 0.166933 0)
(2.59463 0.519314 0)
(2.47481 0.683332 0)
(2.3305 0.846235 0)
(2.29181 0.872466 0)
(2.29902 0.863533 0)
(2.31567 0.850136 0)
(2.32324 0.841395 0)
(3 -5.30835e-16 0)
(3 8.91907e-16 0)
(3 -1.03957e-15 0)
(3 -8.22345e-16 0)
(3 4.75627e-14 0)
(3 5.29833e-13 0)
(3 1.87235e-12 0)
(3 2.63919e-12 0)
(3 1.99302e-11 0)
(3 1.99924e-11 0)
(3 1.98178e-10 0)
(3 -9.58418e-09 0)
(3 -1.13113e-07 0)
(3 -3.25422e-06 0)
(3 -2.25658e-06 0)
(3 -1.64599e-05 0)
(2.99673 0.00497623 0)
(2.95282 0.0655881 0)
(2.79246 0.306929 0)
(2.45125 0.714753 0)
(2.39176 0.783426 0)
(2.33576 0.827297 0)
(2.32392 0.835398 0)
(2.32222 0.836103 0)
(3 -7.88626e-16 0)
(3 -6.5162e-16 0)
(3 -1.09145e-15 0)
(3 -1.13822e-15 0)
(3 -3.02864e-16 0)
(3 5.29533e-15 0)
(3 6.3769e-14 0)
(3 1.94875e-13 0)
(3 8.31028e-13 0)
(3 3.21814e-12 0)
(3 3.33779e-11 0)
(3 7.44359e-11 0)
(3 -6.50506e-10 0)
(3 -5.25357e-08 0)
(3 -4.80912e-07 0)
(3 -1.28944e-06 0)
(3.00001 -1.78238e-05 0)
(2.9996 0.000782486 0)
(2.98636 0.020777 0)
(2.84385 0.210912 0)
(2.68739 0.482935 0)
(2.37103 0.823122 0)
(2.30576 0.875644 0)
(2.31154 0.83943 0)
(3 -2.35928e-15 0)
(3 -2.38353e-15 0)
(3 -1.71695e-15 0)
(3 -1.43455e-15 0)
(3 -1.99388e-15 0)
(3 -1.04507e-15 0)
(3 -3.10838e-17 0)
(3 3.8858e-15 0)
(3 2.08659e-15 0)
(3 3.08937e-14 0)
(3 1.03722e-12 0)
(3 1.36585e-11 0)
(3 1.02951e-11 0)
(3 2.49679e-10 0)
(3 -8.10029e-09 0)
(3 -9.02696e-08 0)
(3 -2.33976e-06 0)
(3 -4.62429e-06 0)
(2.99994 7.08816e-05 0)
(2.994 0.0104925 0)
(2.95054 0.0918884 0)
(2.66551 0.464103 0)
(2.51569 0.676227 0)
(2.37212 0.805173 0)
(3 -1.9018e-15 0)
(3 -1.48649e-15 0)
(3 -1.70682e-15 0)
(3 -1.274e-15 0)
(3 -1.38573e-15 0)
(3 -6.17506e-16 0)
(3 6.67977e-16 0)
(3 1.42959e-15 0)
(3 8.05602e-16 0)
(3 1.26395e-15 0)
(3 2.74829e-15 0)
(3 1.37477e-13 0)
(3 1.6993e-12 0)
(3 2.43172e-11 0)
(3 8.75231e-11 0)
(3 -2.36402e-10 0)
(3 -3.29569e-08 0)
(3 -9.72691e-07 0)
(3 -1.4209e-06 0)
(2.99999 9.76044e-06 0)
(2.99846 0.00289296 0)
(2.95334 0.0701243 0)
(2.81933 0.310806 0)
(2.50703 0.701644 0)
(3 -1.08225e-15 0)
(3 -8.89755e-16 0)
(3 -1.59734e-15 0)
(3 -2.14439e-15 0)
(3 -2.39642e-15 0)
(3 -2.38675e-15 0)
(3 -1.63608e-15 0)
(3 -1.27799e-15 0)
(3 -2.47102e-18 0)
(3 9.98768e-16 0)
(3 9.27664e-16 0)
(3 5.78057e-16 0)
(3 1.01241e-14 0)
(3 8.65832e-13 0)
(3 1.11433e-11 0)
(3 1.47151e-11 0)
(3 6.40263e-11 0)
(3 -1.76343e-08 0)
(3 -3.87078e-07 0)
(3 -5.28121e-07 0)
(3 -2.57864e-06 0)
(2.99909 0.00174034 0)
(2.98 0.0409977 0)
(2.87938 0.216948 0)
(3 -2.27573e-15 0)
(3 -2.22507e-15 0)
(3 -1.69617e-15 0)
(3 -2.21442e-15 0)
(3 -2.60004e-15 0)
(3 -2.60931e-15 0)
(3 -2.54195e-15 0)
(3 -2.91288e-15 0)
(3 -1.02507e-15 0)
(3 6.01054e-16 0)
(3 1.27732e-15 0)
(3 9.63701e-16 0)
(3 6.8031e-16 0)
(3 4.0341e-17 0)
(3 5.29019e-13 0)
(3 3.93687e-12 0)
(3 1.84864e-11 0)
(3 -4.47746e-12 0)
(3 -1.97477e-08 0)
(3 -1.10122e-07 0)
(3 -3.25178e-07 0)
(3 -3.31736e-06 0)
(2.99967 0.00069612 0)
(2.99372 0.0148264 0)
(3 -2.46881e-15 0)
(3 -2.46523e-15 0)
(3 -1.54996e-15 0)
(3 -1.39079e-15 0)
(3 -1.04497e-15 0)
(3 -6.04524e-16 0)
(3 -1.98648e-15 0)
(3 -2.37239e-15 0)
(3 -2.28321e-15 0)
(3 -2.49975e-15 0)
(3 -1.07132e-15 0)
(3 -1.66885e-16 0)
(3 -6.15031e-16 0)
(3 -9.0152e-16 0)
(3 1.8576e-15 0)
(3 2.00942e-13 0)
(3 2.45411e-12 0)
(3 2.66957e-12 0)
(3 -1.13232e-10 0)
(3 -1.15582e-08 0)
(3 -6.13734e-08 0)
(3 -6.14793e-07 0)
(3 3.49052e-06 0)
(3.00001 -8.32417e-05 0)
(3 -8.38683e-16 0)
(3 -1.53088e-15 0)
(3 -1.88913e-15 0)
(3 -1.76656e-15 0)
(3 -1.55978e-15 0)
(3 -1.17049e-15 0)
(3 -1.60814e-15 0)
(3 -1.91106e-15 0)
(3 -2.41801e-15 0)
(3 -3.83942e-15 0)
(3 -4.12811e-15 0)
(3 -3.21383e-15 0)
(3 -2.2412e-15 0)
(3 -1.37265e-15 0)
(3 2.21579e-16 0)
(3 3.19274e-15 0)
(3 8.82984e-14 0)
(3 8.83884e-13 0)
(3 5.0214e-13 0)
(3 -2.55735e-10 0)
(3 -2.87239e-09 0)
(3 -1.05984e-08 0)
(3 -4.95961e-07 0)
(3 -2.54301e-07 0)
(3 6.80367e-16 0)
(3 7.22412e-16 0)
(3 4.67211e-16 0)
(3 4.25486e-17 0)
(3 -5.4918e-16 0)
(3 -9.06755e-16 0)
(3 -1.31986e-15 0)
(3 -1.50757e-15 0)
(3 -2.01513e-15 0)
(3 -2.9554e-15 0)
(3 -3.80612e-15 0)
(3 -3.84894e-15 0)
(3 -1.74831e-15 0)
(3 -2.46404e-16 0)
(3 5.63493e-16 0)
(3 -4.98687e-15 0)
(3 -4.32632e-14 0)
(3 -8.59291e-13 0)
(3 -4.15312e-13 0)
(3 2.40867e-11 0)
(3 1.74026e-09 0)
(3 1.4759e-07 0)
(3 5.83391e-08 0)
(3 4.47596e-07 0)
(3 1.92111e-15 0)
(3 2.2616e-15 0)
(3 1.31147e-15 0)
(3 2.45557e-16 0)
(3 -3.49318e-16 0)
(3 -7.71116e-16 0)
(3 -1.67014e-15 0)
(3 -1.80885e-15 0)
(3 -2.52667e-15 0)
(3 -1.89051e-15 0)
(3 -1.69418e-15 0)
(3 -9.88795e-16 0)
(3 -3.98517e-16 0)
(3 2.06975e-16 0)
(3 -1.78318e-15 0)
(3 -3.79413e-13 0)
(3 -1.90931e-12 0)
(3 -2.49019e-12 0)
(3 1.16864e-10 0)
(3 1.07233e-08 0)
(3 4.75487e-08 0)
(3 7.19014e-07 0)
(3 4.46322e-06 0)
(2.99996 -7.5393e-05 0)
(3 2.78755e-15 0)
(3 2.32377e-15 0)
(3 7.0234e-17 0)
(3 -5.65635e-16 0)
(3 -6.95111e-16 0)
(3 -1.32473e-15 0)
(3 -1.37919e-15 0)
(3 -7.96194e-16 0)
(3 -5.48798e-16 0)
(3 -1.13678e-15 0)
(3 -1.09694e-15 0)
(3 1.29901e-15 0)
(3 1.97418e-15 0)
(3 -3.52031e-16 0)
(3 -6.11767e-13 0)
(3 -4.88066e-12 0)
(3 -1.58013e-11 0)
(3 3.2396e-11 0)
(3 3.09632e-08 0)
(3 1.83426e-07 0)
(3 2.61371e-07 0)
(3 2.36965e-06 0)
(2.99966 -0.000643865 0)
(2.99125 -0.0176864 0)
(3 2.10109e-15 0)
(3 4.86378e-16 0)
(3 -7.61785e-16 0)
(3 -8.31958e-16 0)
(3 -7.59478e-16 0)
(3 -5.72091e-16 0)
(3 -3.53421e-16 0)
(3 8.94858e-17 0)
(3 1.32132e-16 0)
(3 -1.51134e-16 0)
(3 -5.71654e-16 0)
(3 -5.5898e-16 0)
(3 -1.14792e-14 0)
(3 -9.6937e-13 0)
(3 -1.06804e-11 0)
(3 -1.76114e-11 0)
(3 -4.68393e-11 0)
(3 1.6752e-08 0)
(3 4.35752e-07 0)
(3 6.66783e-07 0)
(3 -7.51007e-07 0)
(2.99928 -0.00147735 0)
(2.97771 -0.0387462 0)
(2.85681 -0.233317 0)
(3 1.97345e-16 0)
(3 -1.18827e-15 0)
(3 -1.27609e-15 0)
(3 -1.29453e-15 0)
(3 -1.84665e-15 0)
(3 -1.34066e-15 0)
(3 -1.40635e-15 0)
(3 -2.0798e-15 0)
(3 -3.05001e-15 0)
(3 -3.01214e-15 0)
(3 -3.11102e-15 0)
(3 -1.32553e-13 0)
(3 -1.72261e-12 0)
(3 -2.26717e-11 0)
(3 -9.10104e-11 0)
(3 1.98035e-10 0)
(3 3.34161e-08 0)
(3 8.30636e-07 0)
(3 1.53008e-06 0)
(2.99999 -4.88327e-06 0)
(2.99829 -0.0033296 0)
(2.96077 -0.0598344 0)
(2.77064 -0.344531 0)
(2.55351 -0.639712 0)
(3 -8.06429e-16 0)
(3 -4.90499e-16 0)
(3 -3.18e-16 0)
(3 -2.25057e-16 0)
(3 9.50367e-17 0)
(3 7.01903e-17 0)
(3 -5.82711e-16 0)
(3 -6.61022e-15 0)
(3 -5.70251e-15 0)
(3 -3.77959e-14 0)
(3 -1.04225e-12 0)
(3 -1.36046e-11 0)
(3 -1.02942e-11 0)
(3 -2.51581e-10 0)
(3 7.93007e-09 0)
(3 9.20109e-08 0)
(3 2.2691e-06 0)
(3 4.35836e-06 0)
(2.99994 -6.92089e-05 0)
(2.99421 -0.0103698 0)
(2.94791 -0.0927734 0)
(2.67455 -0.456783 0)
(2.49145 -0.684417 0)
(2.38226 -0.791678 0)
(3 -7.3351e-16 0)
(3 9.32708e-16 0)
(3 2.83383e-15 0)
(3 2.77243e-15 0)
(3 2.46339e-15 0)
(3 -4.96401e-15 0)
(3 -6.34959e-14 0)
(3 -1.99373e-13 0)
(3 -8.37989e-13 0)
(3 -3.18564e-12 0)
(3 -3.399e-11 0)
(3 -7.34232e-11 0)
(3 6.31674e-10 0)
(3 5.54053e-08 0)
(3 4.58284e-07 0)
(3 1.499e-06 0)
(3.00001 1.5974e-05 0)
(2.99962 -0.000735603 0)
(2.98567 -0.0217498 0)
(2.84838 -0.204592 0)
(2.68199 -0.486244 0)
(2.36628 -0.831777 0)
(2.30551 -0.874324 0)
(2.31802 -0.837683 0)
(3 2.90963e-16 0)
(3 9.83138e-16 0)
(3 2.08712e-15 0)
(3 9.92848e-16 0)
(3 -4.78514e-14 0)
(3 -5.30671e-13 0)
(3 -1.86897e-12 0)
(3 -2.64112e-12 0)
(3 -1.98576e-11 0)
(3 -1.98291e-11 0)
(3 -2.01932e-10 0)
(3 9.37929e-09 0)
(3 1.12216e-07 0)
(3 3.25638e-06 0)
(3 2.2579e-06 0)
(3 1.71676e-05 0)
(2.99672 -0.00503286 0)
(2.95317 -0.0649588 0)
(2.78884 -0.309043 0)
(2.45568 -0.707404 0)
(2.39186 -0.787238 0)
(2.3341 -0.829984 0)
(2.32554 -0.835548 0)
(2.32424 -0.834371 0)
(3 -4.42682e-15 0)
(3 -2.61719e-15 0)
(3 5.62349e-15 0)
(3 -5.78226e-13 0)
(3 -1.77235e-12 0)
(3 -4.3306e-12 0)
(3 -6.3269e-12 0)
(3 -6.48865e-12 0)
(3 -1.42789e-10 0)
(3 3.41151e-10 0)
(3 2.51441e-08 0)
(3 1.58222e-06 0)
(3 1.32973e-06 0)
(3.00001 1.8553e-05 0)
(2.99943 -0.000835639 0)
(2.98833 -0.0184169 0)
(2.87193 -0.166459 0)
(2.59412 -0.520171 0)
(2.47354 -0.682953 0)
(2.33186 -0.844462 0)
(2.29241 -0.872992 0)
(2.29827 -0.864503 0)
(2.31478 -0.850446 0)
(2.32309 -0.840183 0)
(3 -1.9462e-13 0)
(3 -1.0073e-13 0)
(3 -1.06166e-11 0)
(3 -7.25479e-12 0)
(3 -1.27187e-11 0)
(3 4.27469e-10 0)
(3 3.13432e-10 0)
(3 2.31944e-10 0)
(3 1.64949e-08 0)
(3 3.60994e-07 0)
(3 4.36321e-06 0)
(3.00001 1.41314e-05 0)
(2.99996 -5.72041e-05 0)
(2.99714 -0.00434183 0)
(2.92953 -0.0870877 0)
(2.75375 -0.316195 0)
(2.49636 -0.638465 0)
(2.28671 -0.899679 0)
(2.27315 -0.876527 0)
(2.30767 -0.85883 0)
(2.31353 -0.85651 0)
(2.32366 -0.851816 0)
(2.33456 -0.841767 0)
(2.34006 -0.839094 0)
(3 -6.10252e-13 0)
(3 -1.29151e-10 0)
(3 -2.05267e-10 0)
(3 3.70747e-10 0)
(3 -2.04927e-10 0)
(3 4.00872e-08 0)
(3 9.11396e-08 0)
(3 3.63723e-07 0)
(3 6.2262e-06 0)
(3 6.0529e-06 0)
(3.00002 5.13046e-05 0)
(2.99893 -0.00144725 0)
(2.96365 -0.0454558 0)
(2.85483 -0.193509 0)
(2.54283 -0.588198 0)
(2.32788 -0.837895 0)
(2.31385 -0.849949 0)
(2.31128 -0.869717 0)
(2.31653 -0.871867 0)
(2.33208 -0.863545 0)
(2.34029 -0.852252 0)
(2.34675 -0.838782 0)
(2.35168 -0.833938 0)
(2.35098 -0.835898 0)
(3 1.11835e-10 0)
(3 -3.02434e-09 0)
(3 4.69334e-08 0)
(3 6.31706e-08 0)
(3 4.73574e-07 0)
(3 7.0046e-07 0)
(3 6.00124e-06 0)
(3 5.29873e-06 0)
(3.00002 4.8656e-05 0)
(2.99932 -0.000631433 0)
(2.98306 -0.0248056 0)
(2.89748 -0.14163 0)
(2.59261 -0.522486 0)
(2.42747 -0.741853 0)
(2.37549 -0.83589 0)
(2.30681 -0.886902 0)
(2.30296 -0.890743 0)
(2.32218 -0.877234 0)
(2.34183 -0.858607 0)
(2.35371 -0.857176 0)
(2.35929 -0.845222 0)
(2.35941 -0.839853 0)
(2.35891 -0.838442 0)
(2.35126 -0.843704 0)
(3 7.31898e-09 0)
(3 1.41537e-06 0)
(3 1.48661e-06 0)
(3 6.85551e-07 0)
(3 8.0981e-06 0)
(2.99999 -2.21535e-05 0)
(3.00007 0.000141971 0)
(2.99917 -0.00140764 0)
(2.99124 -0.0163264 0)
(2.89735 -0.160508 0)
(2.71459 -0.453618 0)
(2.51013 -0.720981 0)
(2.3073 -0.935487 0)
(2.27127 -0.955447 0)
(2.28491 -0.936483 0)
(2.30478 -0.913596 0)
(2.32349 -0.895514 0)
(2.3422 -0.871571 0)
(2.35874 -0.849904 0)
(2.36326 -0.842037 0)
(2.36251 -0.843326 0)
(2.36024 -0.844008 0)
(2.35483 -0.846411 0)
(2.34962 -0.852809 0)
(3 -7.77529e-08 0)
(3.00003 3.33477e-05 0)
(2.9999 -0.000130899 0)
(2.9999 -0.000149835 0)
(2.99862 -0.00183099 0)
(2.99132 -0.0129515 0)
(2.96664 -0.0513018 0)
(2.89298 -0.182163 0)
(2.78949 -0.395278 0)
(2.58827 -0.705522 0)
(2.43661 -0.859183 0)
(2.33901 -0.92904 0)
(2.29975 -0.916603 0)
(2.29946 -0.899737 0)
(2.30898 -0.885979 0)
(2.33922 -0.870571 0)
(2.35081 -0.866309 0)
(2.35579 -0.852622 0)
(2.3602 -0.845052 0)
(2.36134 -0.842767 0)
(2.35766 -0.844072 0)
(2.35259 -0.847611 0)
(2.34827 -0.851431 0)
(2.3454 -0.852617 0)
(2.99876 -0.00128996 0)
(2.99111 -0.0103244 0)
(2.95792 -0.0516045 0)
(2.90398 -0.132544 0)
(2.80228 -0.275965 0)
(2.67857 -0.465124 0)
(2.54236 -0.678383 0)
(2.36637 -0.910333 0)
(2.23248 -1.06349 0)
(2.17765 -1.10016 0)
(2.13994 -1.04895 0)
(2.18041 -1.00247 0)
(2.2582 -0.947591 0)
(2.29905 -0.897477 0)
(2.32497 -0.858494 0)
(2.34901 -0.834683 0)
(2.3527 -0.836322 0)
(2.35869 -0.837952 0)
(2.35763 -0.838882 0)
(2.35277 -0.841404 0)
(2.34748 -0.844239 0)
(2.34403 -0.846038 0)
(2.34195 -0.848016 0)
(2.34191 -0.84823 0)
(2.93167 -0.0252022 0)
(2.85542 -0.0356552 0)
(2.74603 -0.177897 0)
(2.68181 -0.22567 0)
(2.57171 -0.352772 0)
(2.49894 -0.447634 0)
(2.42736 -0.54144 0)
(2.34766 -0.625615 0)
(2.3123 -0.725701 0)
(2.26012 -0.798194 0)
(2.25006 -0.855497 0)
(2.28019 -0.887182 0)
(2.32377 -0.891456 0)
(2.33893 -0.886439 0)
(2.34787 -0.877664 0)