/*--------------------------------*- C++ -*----------------------------------*\
  =========                 |
  \\      /  F ield         | OpenFOAM: The Open Source CFD Toolbox
   \\    /   O peration     | Website:  https://openfoam.org
    \\  /    A nd           | Version:  7
     \\/     M anipulation  |
\*---------------------------------------------------------------------------*/
FoamFile
{
    version     2.0;
    format      ascii;
    class       volScalarField;
    location    "3.5";
    object      p;
}
// * * * * * * * * * * * * * * * * * * * * * * * * * * * * * * * * * * * * * //

dimensions      [1 -1 -2 0 0 0 0];

internalField   nonuniform List<scalar> 
18432
(
1
1
1
1
1
1
1
1
1
1
1
1
1
1
1
1
1
1
1
1
1
1
1
1
1
1
1
1
1
1
1
1
1
1
1
1
1
1
1
1
1
1
1
1
1
1
1
1
1
1
1
1
1
1
1
1
1
1
1
1
1
1
1
1
1
1
1
1
1
1
1
1
1
1
1
1
1
1
1
1
1
1
1
1
1
1
1
1
1
1
1
1
1
1
1
1
1
1
1
1
1
1
1
1
1
1
1
1
1
1
1
1
1
1
1
1
1
1
1
1
1
1
1
1
1
1
1
1
1
1
1
1
1
1
1
1
1
1
1
1
1
1
1
1
1
1
1
1
1
1
1
1
1
1
1
1
1
1
1
1
1
1
1
1
1
1
1
1
1
1
1
1
1
1
1
1
1
1
1
1
1
1
1
1
1
1
1
1
1
1
1
1
1
1
1
1
1
1
1
1
1
1
1
1
1
1
1
1
1
1
1
1
1
1
1
1
1
1
1
1
1
1
1
1
1
1
1
1
1
1
1
1
1
1
1
1
1
1
1
1
1
1
1
1
1
1
1
1
1
1
1
1
1
1
1
1
1
1
1
1
1
1
1
1
1
1
1
1
1
1
1
1
1
1
1
1
1
1
1
1
1
1
1
1
1
1
1
1
1
1
1
1
1
1
1
1
1
1
1
1
1
1
1
1
1
1
1
1
1
1
1
1
1
1
1
1
1
1
1
1
1
1
1
1
1
1
1
1
1
1
1
1
1
1
1
1
1
1
1
1
1
1
1
1
1
1
1
1
1
1
1
1
1
1
1
1
1
1
1
1
1
1
1
1
1
1
1
1
1
1
1
1
1
1
1
1
1
1
1
1
1
1
1
1
1
1
1
1
1
1
1
1
1
1
1
1
1
1
1
1
1
1
1
1
1
1
1
1
1
1
1
1
1
1
1
1
1
1
1
1
1
1
1
1
1
1
1
1
1
1
1
1
1
1
1
1
1
1
1
1
1
1
1
1
1
1
1
1
1
1
1
1
1
1
1
1
1
1
1
1
1
1
1
1
1
1
1
1
1
1
1
1
1
1
1
1
1
1
1
1
1
1
1
1
1
1
1
1
1
1
1
1
1
1
1
1
1
1
1
1
1
1
1
1
1
1
1
1
1
1
1
1
1
1
1
1
1
1
1
1
1
1
1
1
1
1
1
1
1
1
1
1
1
1
1
1
1
1
1
1
1
1
1
1
1
1
1
1
1
1
1
1
1
1
1
1
1
1
1
1
1
1
1
1
1
1
1
1
1
1
1
1
1
1
1
1
1
1
1
1
1
1
1
1
1
1
1
1
1
1
1
1
1
1
1
1
1
1
1
1
1
1
1
1
1
1
1
1
1
1
1
1
1
1
1
1
1
1
1
1
1
1
1
1
1
1
1
1
1
1
1
1
1
1
1
1
1
1
1
1
1
1
1
1
1
1
1
1
1
1
1
1
1
1
1
1
1
1
1
1
1
1
1
1
1
1
1
1
1
1
1
1
1
1
1
1
1
1
1
1
1
1
1
1
1
1
1
1
1
1
1
1
1
1
1
1
1
1
1
1
1
1
1
1
1
1
1
1
1
1
1
1
1
1
1
1
1
1
1
1
1
1
1
1
1
1
1
1
1
1
1
1
1
1
1
1
1
1
1
1
1
1
1
1
1
1
1
1
1
1
1
1
1
1
1
1
1
1
1
1
1
1
1
1
1
1
1
1
1
1
1
1
1
1
1
1
1
1
1
1
1
1
1
1
1
1
1
1
1
1
1
1
1
1
1
1
1
1
1
1
1
1
1
1
1
1
1
1
1
1
1
1
1
1
1
1
1
1
1
1
1
1
1
1
1
1
1
1
1
1
1
1
1
1
1
1
1
1
1
1
1
1
1
1
1
1
1
1
1
1
1
1
1
1
1
1
1
1
1
1
1
1
1
1
1
1
1
1
1
1
1
1
1
1
1
1
1
1
1
1
1
1
1
1
1
1
1
1
1
1
1
1
1
1
1
1
1
1
1
1
1
1
1
1
1
1
1
1
1
1
1
1
1
1
1
1
1
1
1
1
1
1
1
1
1
1
1
1
1
1
1
1
1
1
1
1
1
1
1
1
1
1
1
1
1
1
1
1
1
1
1
1
1
1
1
1
1
1
1
1
1
1
1
1
1
1
1
1
1
1
1
1
1
1
1
1
1
1
1
1
1
1
1
1
1
1
1
1
1
1
1
1
1
1
1
1
1
1
1
1
1
1
1
1
1
1
1
1
1
1
1
1
1
1
1
1
1
1
1
1
1
1
1
1
1
1
1
1
1
1
1
1
1
1
1
1
1
1
1
1
1
1
1
1
1
1
1
1
1
1
1
1
1
1
1
1
1
1
1
1
1
1
1
1
1
1
1
1
1
1
1
1
1
1
1
1
1
1
1
1
1
1
1
1
1
1
1
1
1
1
1
1
1
1
1
1
1
1
1
1
1
1
1
1
1
1
1
1
1
1
1
1
1
1
1
1
1
1
1
1
1
1
1
1
1
1
1
1
1
1
1
1
1
1
1
1
1
1
1
1
1
1
1
1
1
1
1
1
1
1
1
1
1
1
1
1
1
1
1
1
1
1
1
1
1
1
1
1
1
1
1
1
1
1
1
1
1
1
1
1
1
1
1
1
1
1
1
1
1
1
1
1
1
1
1
1
1
1
1
1
1
1
1
1
1
1
1
1
1
1
1
1
1
1
1
1
1
1
1
1
1
1
1
1
1
1
1
1
1
1
1
1
1
1
1
1
1
1
1
1
1
1
1
1
1
1
1
1
1
1
1
1
1
1
1
1
1
1
1
1
1
1
1
1
1
1
1
1
1
1
1
1
1
1
1
1
1
1
1
1
1
1
1
1
1
1
1
1
1
1
1
1
1
1
1
1
1
1
1
1
1
1
1
1
1
1
1
1
1
1
1
1
1
1
1
1
1
1
1
1
1
1
1
1
1
1
1
1
1
1
1
1
1
1
1
1
1
1
1
1
1
1
1
1
1
1
1
1
1
1
1
1
1
1
1
1
1
1
1
1
1
1
1
1
1
1
1
1
1
1
1
1
1
1
1
1
1
1
1
1
1
1
1
1
1
1
1
1
1
1
1
1
1
1
1
1
1
1
1
1
1
1
1
1
1
1
1
1
1
1
1
1
1
1
1
1
1
1
1
1
1
1
1
1
1
1
1
1
1
1
1
1
1
1
1
1
1
1
1
1
1
1
1
1
1
1
1
1
1
1
1
1
1
1
1
1
1
1
1
1
1
1
1
1
1
1
1
1
1
1
1
1
1
1
1
1
1
1
1
1
1
1
1
1
1
1
1
1
1
1
1
1
1
1
1
1
1
1
1
1
1
1
1
1
1
1
1
1
1
1
1
1
1
1
1
1
1
1
1
1
1
1
1
1
1
1
1
1
1
1
1
1
1
1
1
1
1
1
1
1
1
1
1
1
1
1
1
1
1
1
1
1
1
1
1
1
1
1
1
1
1
1
1
1
1
1
1
1
1
1
1
1
1
1
1
1
1
1
1
1
1
1
1
1
1
1
1
1
1
1
1
1
1
1
1
1
1
1
1
1
1
1
1
1
1
1
1
1
1
1
1
1
1
1
1
1
1
1
1
1
1
1
1
1
1
1
1
1
1
1
1
1
1
1
1
1
1
1
1
1
1
1
1
1
1
1
1
1
1
1
1
1
1
1
1
1
1
1
1
1
1
1
1
1
1
1
1
1
1
1
1
1
1
1
1
1
1
1
1
1
1
1
1
1
1
1
1
1
1
1
1
1
1
1
1
1
1
1
1
1
1
1
1
1
1
1
1
1
1
1
1
1
1
1
1
1
1
1
1
1
1
1
1
1
1
1
1
1
1
1
1
1
1
1
1
1
1
1
1
1
1
1
1
1
1
1
1
1
1
1
1
1
1
1
1
1
1
1
1
1
1
1
1
1
1
1
1
1
1
1
1
1
1
1
1
1
1
1
1
1
1
1
1
1
1
1
1
1
1
1
1
1
1
1
1
1
1
1
1
1
1
1
1
1
1
1
1
1
1
1
1
1
1
1
1
1
1
1
1
1
1
1
1
1
1
1
1
1
1
1
1
1
1
1
1
1
1
1
1
1
1
1
1
1
1
1
1
1
1
1
1
1
1
1
1
1
1
1
1
1
1
1
1
1
1
1
1
1
1
1
1
1
1
1
1
1
1
1
1
1
1
1
1
1
1
1
1
1
1
1
1
1
1
1
1
1
1
1
1
1
1
1
1
1
1
1
1
1
1
1
1
1
1
1
1
1
1
1
1
1
1
1
1
1
1
1
1
1
1
1
1
1
1
1
1
1
1
1
1
1
1
1
1
1
1
1
1
1
1
1
1
1
1
1
1
1
1
1
1
1
1
1
1
1
1
1
1
1
1
1
1
1
1
1
1
1
1
1
1
1
1
1
1
1
1
1
1
1
1
1
1
1
1
1
1
1
1
1
1
1
1
1
1
1
1
1
1
1
1
1
1
1
1
1
1
1
1
1
1
1
1
1
1
1
1
1
1
1
1
1
1
1
1
1
1
1
1
1
1
1
1
1
1
1
1
1
1
1
1
1
1
1
1
1
1
1
1
1
1
1
1
1
1
1
1
1
1
1
1
1
1
1
1
1
1
1
1
1
1
1
1
1
1
1
1
1
1
1
1
1
1
1
1
1
1
1
1
1
1
1
1
1
1
1
1
1
1
1
1
1
1
1
1
1
1
1
1
1
1
1
1
1
1
1
1
1
1
1
1
1
1
1
1
1
1
1
1
1
1
1
1
1
1
1
1
1
1
1
1
1
1
1
1
1
1
1
1
1
1
1
1
1
1
1
1
1
1
1
1
1
1
1
1
1
1
1
1
1
1
1
1
1
1
1
1
1
1
1
1
1
1
1
1
1
1
1
1
1
1
1
1
1
1
1
1
1
1
1
1
1
1
1
1
1
1
1
1
1
1
1
1
1
1
1
1
1
1
1
1
1
1
1
1
1
1
1
1
1
1
1
1
1
1
1
1
1
1
1
1
1
1
1
1
1
1
1
1
1
1
1
1
1
1
1
1
1
1
1
1
1
1
1
1
1
1
1
1
1
1
1
1
1
1
1
1
1
1
1
1
1
1
1
1
1
1
1
1
1
1
1
1
1
1
1
1
1
1
1
1
1
1
1
1
1
1
1
1
1
1
1
1
1
1
1
1
1
1
1
1
1
1
1
1
1
1
1
1
1
1
1
1
1
1
1
1
1
1
1
1
1
1
1
1
1
1
1
1
1
1
1
1
1
1
1
1
1
1
1
1
1
1
1
1
1
1
1
1
1
1
1
1
1
1
1
1
1
1
1
1
1
1
1
1
1
1
1
1
1
1
1
1
1
1
1
1
1
1
1
1
1
1
1
1
1
1
1
1
1
1
1
1
1
1
1
1
1
1
1
1
1
1
1
1
1
1
1
1
1
1
1
1
1
1
1
1
1
1
1
1
1
1
1
1
1
1
1
1
1
1
1
1
1
1
1
1
1
1
1
1
1
1
1
1
1
1
1
1
1
1
1
1
1
1
1
1
1
1
1
1
1
1
1
1
1
1
1
1
1
1
1
1
1
1
1
1
1
1
1
1
1
1
1
1
1
1
1
1
1
1
1
1
1
1
1
1
1
1
1
1
1
1
1
1
1
1
1
1
1
1
1
1
1
1
1
1
1
1
1
1
1
1
1
1
1
1
1
1
1
1
1
1
1
1
1
1
1
1
1
1
1
1
1
1
1
1
1
1
1
1
1
1
1
1
1
1
1
1
1
1
1
1
1
1
1
1
1
1
1
1
1
1
1
1
1
1
1
1
1
1
1
1
1
1
1
1
1
1
1
1
1
1
1
1
1
1
1
1
1
1
1
1
1
1
1
1
1
1
1
1
1
1
1
1
1
1
1
1
1
1
1
1
1
1
1
1
1
1
1
1
1
1
1
1
1
1
1
1
1
1
1
1
1
1
1
1
1
1
1
1
1
1
1
1
1
1
1
1
1
1
1
1
1
1
1
1
1
1
1
1
1
1
1
1
1
1
1
1
1
1
1
1
1
1
1
1
1
1
1
1
1
1
1
1
1
1
1
1
1
1
1
1
1
1
1
1
1
1
1
1
1
1
1
1
1
1
1
1
1
1
1
1
1
1
1
1
1
1
1
1
1
1
1
1
1
1
1
1
1
1
1
1
1
1
1
1
1
1
1
1
1
1
1
1
1
1
1
1
1
1
1
1
1
1
1
1
1
1
1
1
1
1
1
1
1
1
1
1
1
1
1
1
1
1
1
1
1
1
1
1
1
1
1
1
1
1
1
1
1
1
1
1
1
1
1
1
1
1
1
1
1
1
1
1
1
1
1
1
1
1
1
1
1
1
1
1
1
1
1
1
1
1
1
1
1
1
1
1
1
1
1
1
1
1
1
1
1
1
1
1
1
1
1
1
1
1
1
1
1
1
1
1
1
1
1
1
1
1
1
1
1
1
1
1
1
1
1
1
1
1
1
1
1
1
1
1
1
1
1
1
1
1
1
1
1
1
1
1
1
1
1
1
1
1
1
1
1
1
1
1
1
1
1
1
1
1
1
1
1
1
1
1
1
1
1
1
1
1
1
1
1
1
1
1
1
1
1
1
1
1
1
1
1
1
1
1
1
1
1
1
1
1
1
1
1
1
1
1
1
1
1
1
1
1
1
1
1
1
1
1
1
1
1
1
1
1
1
1
1
1
1
1
1
1
1
1
1
1
1
1
1
1
1
1
1
1
1
1
1
1
1
1
1
1
1
1
1
1
1
1
1
1
1
1
1
1
1
1
1
1
1
1
1
1
1
1
1
1
1
1
1
1
1
1
1
1
1
1
1
1
1
1
1
1.29305
1.739
2.32299
2.94677
3.50578
4.18773
4.69384
5.07039
5.33267
5.24636
4.95397
4.49819
4.06951
3.75424
3.65519
3.5842
3.56284
3.59166
3.63162
3.6685
3.69322
3.7115
3.72684
3.74457
3.76402
3.77028
3.77207
3.76928
3.76446
3.76195
3.75764
3.75438
3.7552
3.7607
3.77363
3.7891
3.79387
3.79314
3.79033
3.78338
3.77352
3.77026
3.7703
3.77104
3.77366
3.77602
3.77644
3.77451
1.00199
1.02061
1.0641
1.19756
1.42149
1.75164
2.22872
2.74439
3.344
3.71838
3.9161
4.05136
4.01584
3.93571
3.84148
3.78273
3.7215
3.7048
3.67306
3.66196
3.67243
3.69319
3.71456
3.7357
3.75905
3.77047
3.77485
3.77628
3.77286
3.76896
3.7677
3.76807
3.76973
3.77252
3.77474
3.77748
3.77775
3.77588
3.77219
3.76775
3.76561
3.76586
3.7669
3.7693
3.77434
3.77818
3.77875
3.77887
1
0.999995
0.999996
1.00001
1.00157
1.01233
1.06456
1.21965
1.60887
2.35299
3.31609
3.94831
4.27473
4.31195
4.24923
4.12711
3.97306
3.77694
3.66637
3.64089
3.64911
3.66754
3.68595
3.70884
3.73547
3.75639
3.76847
3.77683
3.78094
3.78161
3.78409
3.78536
3.78635
3.78757
3.78693
3.78362
3.77815
3.77226
3.76659
3.76212
3.76058
3.76064
3.76137
3.7642
3.7705
3.77586
3.77719
3.77987
1
1
1
1
0.999999
0.99998
1.00006
1.00012
1.00542
1.0774
1.39576
2.17164
3.04149
3.95851
4.0782
4.01509
3.99599
3.93961
3.82117
3.73984
3.71195
3.69415
3.67375
3.67935
3.69857
3.71575
3.73349
3.74932
3.75826
3.76493
3.77079
3.7752
3.77884
3.78215
3.78249
3.78099
3.7775
3.77298
3.76904
3.76659
3.76593
3.76639
3.76785
3.77094
3.77571
3.77833
3.7769
3.77828
1
1
1
1
1
0.999999
1
0.999999
1
0.999937
1.00142
1.04906
1.28269
1.99343
2.89654
3.57089
4.0551
4.08735
4.03734
3.93506
3.84263
3.75743
3.71506
3.69994
3.69776
3.70849
3.7212
3.73204
3.73978
3.74652
3.75024
3.75272
3.75526
3.76241
3.76974
3.77063
3.77058
3.77019
3.76916
3.76848
3.76924
3.77157
3.77541
3.78003
3.78394
3.78458
3.78174
3.78182
1
1
1
1
1
1
1
1
1
0.999997
0.999998
0.999952
1.00078
1.02623
1.25237
1.76969
2.74234
3.35318
3.81669
3.92305
3.91719
3.86769
3.80659
3.77511
3.75925
3.73712
3.71776
3.71394
3.71852
3.73248
3.74809
3.75848
3.7664
3.77344
3.77608
3.77616
3.77614
3.77577
3.77406
3.7726
3.77268
3.77412
3.77746
3.78133
3.78217
3.77973
3.77475
3.77212
1
1
1
1
1
1
1
1
1
1
1
0.999997
0.999998
0.999961
1.0008
1.01552
1.18446
1.70131
2.54847
3.28359
3.59927
3.80736
3.83305
3.82632
3.78278
3.73758
3.73002
3.72562
3.72222
3.72603
3.73987
3.76081
3.78194
3.78837
3.78634
3.78357
3.78212
3.78093
3.77792
3.77439
3.77274
3.77215
3.7749
3.77774
3.77647
3.77327
3.76712
3.76482
1
1
1
1
1
1
1
1
1
1
1
1
1
0.999997
0.999998
0.999976
1.00052
1.01627
1.13204
1.6312
2.33528
3.24988
3.56535
3.67768
3.7322
3.69278
3.69606
3.7071
3.70231
3.70493
3.71693
3.73759
3.75596
3.76946
3.77666
3.77665
3.7752
3.77146
3.76877
3.76774
3.76717
3.76968
3.77554
3.77781
3.77772
3.77664
3.77315
3.77132
1
1
1
1
1
1
1
1
1
1
1
1
1
1
1
0.999998
0.999998
0.999982
1.00025
1.01501
1.11286
1.52135
2.29918
3.05033
3.59122
3.69006
3.72111
3.72539
3.70999
3.70255
3.70458
3.71348
3.7253
3.73687
3.74904
3.75628
3.75978
3.76113
3.76236
3.7647
3.76621
3.77004
3.77533
3.77768
3.77935
3.77913
3.77676
3.77434
1
1
1
1
1
1
1
1
1
1
1
1
1
1
1
1
1
0.999999
0.999998
0.999985
1.00027
1.00942
1.12886
1.47741
2.2538
2.94469
3.49789
3.71571
3.74826
3.73923
3.74793
3.74824
3.74333
3.7415
3.74612
3.75368
3.7568
3.75878
3.76121
3.7638
3.76846
3.77389
3.77499
3.77569
3.77762
3.77782
3.77524
3.77226
1
1
1
1
1
1
1
1
1
1
1
1
1
1
1
1
1
1
1
0.999998
0.999998
0.999985
1.00052
1.00865
1.11368
1.49685
2.22156
2.94354
3.38128
3.63911
3.73862
3.75976
3.75861
3.76013
3.75483
3.75486
3.7635
3.77022
3.77636
3.78183
3.7877
3.78907
3.78654
3.78396
3.78201
3.77869
3.77424
3.77102
1
1
1
1
1
1
1
1
1
1
1
1
1
1
1
1
1
1
1
1
1
0.999998
0.999998
0.999988
1.00052
1.01192
1.10025
1.52386
2.21048
3.08692
3.41138
3.55617
3.65514
3.71699
3.72221
3.72923
3.74275
3.75727
3.76988
3.77856
3.78155
3.78285
3.78202
3.78099
3.78153
3.7813
3.77898
3.77698
1
1
1
1
1
1
1
1
1
1
1
1
1
1
1
1
1
1
1
1
1
1
1
0.999998
0.999999
0.999991
1.00043
1.017
1.11572
1.56572
2.31539
3.12639
3.57203
3.6303
3.67213
3.69271
3.70522
3.72398
3.74142
3.75366
3.76239
3.76841
3.77179
3.77081
3.76993
3.76998
3.76919
3.77004
1
1
1
1
1
1
1
1
1
1
1
1
1
1
1
1
1
1
1
1
1
1
1
1
1
0.999999
0.999998
1
1.00069
1.02056
1.16672
1.64556
2.47219
3.19006
3.62553
3.73274
3.74081
3.76439
3.76695
3.76294
3.76484
3.76778
3.76766
3.76545
3.76338
3.76154
3.76205
3.76454
1
1
1
1
1
1
1
1
1
1
1
1
1
1
1
1
1
1
1
1
1
1
1
1
1
1
1
1
0.999998
1.00002
1.00165
1.02759
1.24922
1.81204
2.67559
3.27585
3.62925
3.76363
3.78093
3.7878
3.78818
3.78445
3.78174
3.77661
3.77525
3.77481
3.77494
3.77656
1
1
1
1
1
1
1
1
1
1
1
1
1
1
1
1
1
1
1
1
1
1
1
1
1
1
1
1
1
1
0.999997
1.00006
1.00442
1.04837
1.37069
2.08097
3.01471
3.40363
3.57193
3.71444
3.75575
3.75594
3.75898
3.7666
3.7743
3.7791
3.78268
3.78432
1
1
1
1
1
1
1
1
1
1
1
1
1
1
1
1
1
1
1
1
1
1
1
1
1
1
1
1
1
1
1
1
0.999997
1.00022
1.01196
1.10353
1.58076
2.40302
3.30928
3.62789
3.68081
3.70225
3.7076
3.72343
3.74537
3.75982
3.7689
3.77451
1
1
1
1
1
1
1
1
1
1
1
1
1
1
1
1
1
1
1
1
1
1
1
1
1
1
1
1
1
1
1
1
1
0.999999
1.00001
1.00097
1.0313
1.22563
1.92895
2.83231
3.49063
3.72873
3.74095
3.77232
3.77659
3.7732
3.77119
3.77417
1
1
1
1
1
1
1
1
1
1
1
1
1
1
1
1
1
1
1
1
1
1
1
1
1
1
1
1
1
1
1
1
1
1
1
0.999998
1.00015
1.00452
1.09001
1.48892
2.39464
3.15019
3.60447
3.77745
3.79483
3.79613
3.7953
3.79423
1
1
1
1
1
1
1
1
1
1
1
1
1
1
1
1
1
1
1
1
1
1
1
1
1
1
1
1
1
1
1
1
1
1
1
1
1
1
1.00114
1.02082
1.2444
1.9501
3.0088
3.46771
3.61115
3.70437
3.75561
3.76268
1
1
1
1
1
1
1
1
1
1
1
1
1
1
1
1
1
1
1
1
1
1
1
1
1
1
1
1
1
1
1
1
1
1
1
1
1
1
0.999999
1.00008
1.0079
1.09818
1.60981
2.56274
3.42656
3.68343
3.72673
3.73505
1
1
1
1
1
1
1
1
1
1
1
1
1
1
1
1
1
1
1
1
1
1
1
1
1
1
1
1
1
1
1
1
1
1
1
1
1
1
1
1
1.00002
1.00139
1.04379
1.33848
2.23631
3.1742
3.68317
3.79484
1
1
1
1
1
1
1
1
1
1
1
1
1
1
1
1
1
1
1
1
1
1
1
1
1
1
1
1
1
1
1
1
1
1
1
1
1
1
1
1
1
1
1.00046
1.01344
1.21807
1.92746
2.94815
3.41531
1
1
1
1
1
1
1
1
1
1
1
1
1
1
1
1
1
1
1
1
1
1
1
1
1
1
1
1
1
1
1
1
1
1
1
1
1
1
1
1
1
1
0.999999
1.00008
1.00756
1.09587
1.69077
2.64148
1
1
1
1
1
1
1
1
1
1
1
1
1
1
1
1
1
1
1
1
1
1
1
1
1
1
1
1
1
1
1
1
1
1
1
1
1
1
1
1
1
1
1
1
1.00003
1.00179
1.07316
1.41996
1
1
1
1
1
1
1
1
1
1
1
1
1
1
1
1
1
1
1
1
1
1
1
1
1
1
1
1
1
1
1
1
1
1
1
1
1
1
1
1
1
1
1
1
1
1
1.00176
1.018
1
1
1
1
1
1
1
1
1
1
1
1
1
1
1
1
1
1
1
1
1
1
1
1
1
1
1
1
1
1
1
1
1
1
1
1
1
1
1
1
1
1
1
1
1
1
1.00002
0.999862
1
1
1
1
1
1
1
1
1
1
1
1
1
1
1
1
1
1
1
1
1
1
1
1
1
1
1
1
1
1
1
1
1
1
1
1
1
1
1
1
1
1
1
1
1
1
1
0.999952
1
1
1
1
1
1
1
1
1
1
1
1
1
1
1
1
1
1
1
1
1
1
1
1
1
1
1
1
1
1
1
1
1
1
1
1
1
1
1
1
1
1
1
1
1
1
1
0.999991
1
1
1
1
1
1
1
1
1
1
1
1
1
1
1
1
1
1
1
1
1
1
1
1
1
1
1
1
1
1
1
1
1
1
1
1
1
1
1
1
1
1
1
1
1
1
1
1
1
1
1
1
1
1
1
1
1
1
1
1
1
1
1
1
1
1
1
1
1
1
1
1
1
1
1
1
1
1
1
1
1
1
1
1
1
1
1
1
1
1
1
1
1
1
1
1
1
1
1
1
1
1
1
1
1
1
1
1
1
1
1
1
1
1
1
1
1
1
1
1
1
1
1
1
1
1
1
1
1
1
1
1
1
1
1
1
1
1
1
1
1
1
1
1
1
1
1
1
1
1
1
1
1
1
1
1
1
1
1
1
1
1
1
1
1
1
1
1
1
1
1
1
1
1
1
1
1
1
1
1
1
1
1
1
1
1
1
1
1
1
1
1
1
1
1
1
1
1
1
1
1
1
1
1
1
1
1
1
1
1
1
1
1
1
1
1
1
1
1
1
1
1
1
1
1
1
1
1
1
1
1
1
1
1
1
1
1
1
1
1
1
1
1
1
1
1
1
1
1
1
1
1
1
1
1
1
1
1
1
1
1
1
1
1
1
1
1
1
1
1
1
1
1
1
1
1
1
1
1
1
1
1
1
1
1
1
1
1
1
1
1
1
1
1
1
1
1
1
1
1
1
1
1
1
1
1
1
1
1
1
1
1
1
1
1
1
1
1
1
1
1
1
1
1
1
1
1
1
1
1
1
1
1
1
1
0.999991
1
1
1
1
1
1
1
1
1
1
1
1
1
1
1
1
1
1
1
1
1
1
1
1
1
1
1
1
1
1
1
1
1
1
1
1
1
1
1
1
1
1
1
1
1
1
1
0.999952
1
1
1
1
1
1
1
1
1
1
1
1
1
1
1
1
1
1
1
1
1
1
1
1
1
1
1
1
1
1
1
1
1
1
1
1
1
1
1
1
1
1
1
1
1
1
1.00002
0.999861
1
1
1
1
1
1
1
1
1
1
1
1
1
1
1
1
1
1
1
1
1
1
1
1
1
1
1
1
1
1
1
1
1
1
1
1
1
1
1
1
1
1
1
1
1
1
1.00177
1.01779
1
1
1
1
1
1
1
1
1
1
1
1
1
1
1
1
1
1
1
1
1
1
1
1
1
1
1
1
1
1
1
1
1
1
1
1
1
1
1
1
1
1
1
1
1.00003
1.00179
1.07317
1.41996
1
1
1
1
1
1
1
1
1
1
1
1
1
1
1
1
1
1
1
1
1
1
1
1
1
1
1
1
1
1
1
1
1
1
1
1
1
1
1
1
1
1
0.999999
1.00008
1.00757
1.0959
1.69067
2.64272
1
1
1
1
1
1
1
1
1
1
1
1
1
1
1
1
1
1
1
1
1
1
1
1
1
1
1
1
1
1
1
1
1
1
1
1
1
1
1
1
1
1
1.00046
1.01344
1.21811
1.92745
2.94892
3.41514
1
1
1
1
1
1
1
1
1
1
1
1
1
1
1
1
1
1
1
1
1
1
1
1
1
1
1
1
1
1
1
1
1
1
1
1
1
1
1
1
1.00002
1.00139
1.04379
1.33835
2.23649
3.17441
3.68351
3.79468
1
1
1
1
1
1
1
1
1
1
1
1
1
1
1
1
1
1
1
1
1
1
1
1
1
1
1
1
1
1
1
1
1
1
1
1
1
1
0.999999
1.00008
1.0079
1.09821
1.60976
2.56258
3.42682
3.68318
3.72651
3.73491
1
1
1
1
1
1
1
1
1
1
1
1
1
1
1
1
1
1
1
1
1
1
1
1
1
1
1
1
1
1
1
1
1
1
1
1
1
1
1.00114
1.02082
1.24439
1.9502
3.00859
3.468
3.61109
3.70414
3.75548
3.76272
1
1
1
1
1
1
1
1
1
1
1
1
1
1
1
1
1
1
1
1
1
1
1
1
1
1
1
1
1
1
1
1
1
1
1
0.999998
1.00015
1.00452
1.09001
1.48889
2.39471
3.15018
3.60436
3.77753
3.79475
3.79605
3.7953
3.79431
1
1
1
1
1
1
1
1
1
1
1
1
1
1
1
1
1
1
1
1
1
1
1
1
1
1
1
1
1
1
1
1
1
0.999999
1.00001
1.00097
1.0313
1.22564
1.92895
2.83228
3.49068
3.72873
3.74089
3.77233
3.77656
3.77317
3.7712
3.77422
1
1
1
1
1
1
1
1
1
1
1
1
1
1
1
1
1
1
1
1
1
1
1
1
1
1
1
1
1
1
1
1
0.999997
1.00022
1.01196
1.10353
1.58076
2.40303
3.30925
3.6279
3.68082
3.70224
3.70758
3.72341
3.74537
3.75982
3.76891
3.77453
1
1
1
1
1
1
1
1
1
1
1
1
1
1
1
1
1
1
1
1
1
1
1
1
1
1
1
1
1
1
0.999997
1.00006
1.00442
1.04837
1.37069
2.08096
3.01473
3.40363
3.57192
3.71444
3.75575
3.75594
3.75896
3.76659
3.77431
3.77911
3.78269
3.78433
1
1
1
1
1
1
1
1
1
1
1
1
1
1
1
1
1
1
1
1
1
1
1
1
1
1
1
1
0.999998
1.00002
1.00165
1.02759
1.24922
1.81204
2.67559
3.27584
3.62925
3.76363
3.78093
3.78779
3.78817
3.78445
3.78173
3.77661
3.77526
3.77482
3.77495
3.77656
1
1
1
1
1
1
1
1
1
1
1
1
1
1
1
1
1
1
1
1
1
1
1
1
1
0.999999
0.999998
1
1.00069
1.02056
1.16672
1.64556
2.47219
3.19006
3.62553
3.73274
3.74081
3.76439
3.76695
3.76294
3.76484
3.76778
3.76766
3.76545
3.76338
3.76155
3.76205
3.76454
1
1
1
1
1
1
1
1
1
1
1
1
1
1
1
1
1
1
1
1
1
1
1
0.999998
0.999999
0.999991
1.00043
1.017
1.11572
1.56572
2.31539
3.12639
3.57203
3.6303
3.67213
3.69271
3.70522
3.72398
3.74142
3.75366
3.76239
3.76841
3.77179
3.77081
3.76993
3.76998
3.76919
3.77005
1
1
1
1
1
1
1
1
1
1
1
1
1
1
1
1
1
1
1
1
1
0.999998
0.999998
0.999988
1.00052
1.01192
1.10025
1.52386
2.21048
3.08692
3.41138
3.55617
3.65514
3.71698
3.72221
3.72923
3.74274
3.75727
3.76988
3.77856
3.78155
3.78285
3.78202
3.78099
3.78153
3.7813
3.77898
3.77698
1
1
1
1
1
1
1
1
1
1
1
1
1
1
1
1
1
1
1
0.999998
0.999998
0.999985
1.00052
1.00865
1.11368
1.49685
2.22156
2.94354
3.38128
3.63911
3.73862
3.75976
3.75861
3.76013
3.75483
3.75486
3.7635
3.77022
3.77636
3.78183
3.7877
3.78907
3.78654
3.78396
3.78201
3.77869
3.77424
3.77102
1
1
1
1
1
1
1
1
1
1
1
1
1
1
1
1
1
0.999999
0.999998
0.999985
1.00027
1.00942
1.12886
1.47741
2.2538
2.94469
3.49789
3.71571
3.74826
3.73923
3.74793
3.74824
3.74333
3.7415
3.74612
3.75368
3.7568
3.75878
3.76121
3.7638
3.76846
3.77389
3.77499
3.77569
3.77762
3.77782
3.77524
3.77226
1
1
1
1
1
1
1
1
1
1
1
1
1
1
1
0.999998
0.999998
0.999982
1.00025
1.01501
1.11286
1.52135
2.29918
3.05033
3.59122
3.69006
3.72111
3.72539
3.70999
3.70255
3.70458
3.71348
3.7253
3.73687
3.74904
3.75628
3.75978
3.76113
3.76236
3.7647
3.76621
3.77004
3.77533
3.77768
3.77935
3.77913
3.77676
3.77434
1
1
1
1
1
1
1
1
1
1
1
1
1
0.999997
0.999998
0.999976
1.00052
1.01627
1.13204
1.6312
2.33528
3.24988
3.56535
3.67768
3.7322
3.69278
3.69606
3.7071
3.70231
3.70493
3.71693
3.73759
3.75596
3.76946
3.77666
3.77665
3.7752
3.77146
3.76877
3.76774
3.76717
3.76968
3.77554
3.77781
3.77772
3.77664
3.77315
3.77132
1
1
1
1
1
1
1
1
1
1
1
0.999997
0.999998
0.999961
1.0008
1.01552
1.18446
1.70131
2.54847
3.28359
3.59927
3.80736
3.83305
3.82632
3.78278
3.73758
3.73002
3.72562
3.72222
3.72603
3.73987
3.76081
3.78194
3.78837
3.78634
3.78357
3.78212
3.78093
3.77792
3.77439
3.77274
3.77215
3.7749
3.77774
3.77647
3.77328
3.76712
3.76482
1
1
1
1
1
1
1
1
1
0.999997
0.999998
0.999952
1.00078
1.02623
1.25237
1.76969
2.74234
3.35318
3.81669
3.92305
3.91719
3.86769
3.80659
3.77511
3.75925
3.73712
3.71776
3.71394
3.71852
3.73248
3.74809
3.75848
3.7664
3.77344
3.77608
3.77616
3.77614
3.77577
3.77406
3.7726
3.77268
3.77412
3.77746
3.78133
3.78217
3.77973
3.77475
3.77212
1
1
1
1
1
0.999999
1
0.999999
1
0.999937
1.00142
1.04906
1.28269
1.99343
2.89654
3.57089
4.0551
4.08735
4.03734
3.93506
3.84263
3.75743
3.71506
3.69994
3.69776
3.70849
3.7212
3.73204
3.73978
3.74652
3.75024
3.75272
3.75526
3.76241
3.76974
3.77063
3.77058
3.77019
3.76916
3.76848
3.76924
3.77157
3.77541
3.78003
3.78394
3.78458
3.78174
3.78182
1
1
1
1
0.999999
0.99998
1.00006
1.00012
1.00542
1.0774
1.39576
2.17164
3.04149
3.95851
4.0782
4.01509
3.99599
3.93961
3.82117
3.73984
3.71195
3.69415
3.67375
3.67935
3.69857
3.71575
3.73349
3.74932
3.75826
3.76493
3.77079
3.7752
3.77884
3.78215
3.78249
3.78099
3.7775
3.77298
3.76904
3.76659
3.76593
3.76639
3.76785
3.77094
3.77571
3.77833
3.7769
3.77828
1
0.999995
0.999996
1.00001
1.00157
1.01233
1.06456
1.21965
1.60887
2.35299
3.31609
3.94831
4.27473
4.31195
4.24923
4.12711
3.97306
3.77695
3.66637
3.64089
3.64911
3.66754
3.68595
3.70884
3.73547
3.75639
3.76847
3.77683
3.78094
3.78161
3.78409
3.78536
3.78635
3.78757
3.78693
3.78362
3.77815
3.77227
3.76659
3.76212
3.76058
3.76064
3.76137
3.7642
3.7705
3.77586
3.77719
3.77987
1.00199
1.02061
1.0641
1.19756
1.42149
1.75164
2.22872
2.74439
3.344
3.71838
3.9161
4.05136
4.01584
3.93571
3.84148
3.78273
3.7215
3.7048
3.67306
3.66196
3.67243
3.69319
3.71456
3.7357
3.75905
3.77047
3.77485
3.77628
3.77286
3.76896
3.7677
3.76807
3.76973
3.77252
3.77474
3.77748
3.77775
3.77588
3.77219
3.76775
3.76561
3.76586
3.7669
3.7693
3.77434
3.77818
3.77875
3.77887
1.29305
1.739
2.32299
2.94678
3.50578
4.18773
4.69384
5.07039
5.33267
5.24636
4.95397
4.49819
4.06951
3.75424
3.65519
3.5842
3.56284
3.59166
3.63162
3.6685
3.69322
3.7115
3.72684
3.74457
3.76402
3.77028
3.77207
3.76928
3.76446
3.76195
3.75764
3.75438
3.7552
3.7607
3.77363
3.7891
3.79387
3.79314
3.79033
3.78338
3.77352
3.77026
3.77031
3.77104
3.77366
3.77602
3.77644
3.77451
2.64516
1.73335
1.16617
0.742507
0.659122
0.709708
0.709368
0.713516
0.779464
0.879523
0.925374
0.940435
0.973378
1.01921
1.03471
1.04322
1.06217
1.07721
1.07557
1.06973
1.06635
1.0658
1.05598
1.05065
1.0551
1.0597
1.05822
1.05139
1.04213
1.03812
1.03866
1.03948
1.04075
1.04179
1.04237
1.04276
1.04253
1.04232
1.04287
1.04513
1.04971
1.05172
1.05185
1.05163
1.0508
1.04817
1.04537
1.04531
1.05492
1.22843
1.78163
3.15457
5.2355
7.76483
10.3515
10.3472
9.42886
8.34883
7.89795
7.76882
7.64412
7.5287
7.47738
7.38257
7.242
7.00546
6.66239
6.46261
6.38106
6.31215
6.23583
6.1387
6.03021
5.86498
5.59879
5.42305
5.36285
5.3322
5.31864
5.26677
5.19781
5.08024
4.87529
4.68588
4.59
4.52386
4.46261
4.41228
4.3655
4.28925
4.15815
4.07427
4.03723
4.00212
3.96087
3.90467
3.81442
3.67199
3.54934
3.49104
3.45421
3.42248
3.39486
3.3704
3.34242
3.30643
3.23645
3.12235
3.02998
2.9806
2.94444
2.91041
2.87742
2.84555
2.81247
2.77161
2.71801
2.66794
2.63748
2.61435
2.59238
2.56607
2.52182
2.43887
2.36868
2.3481
2.33577
2.32431
2.31241
2.29793
2.28089
2.25382
2.20228
2.13048
2.07414
2.04412
2.02826
2.01775
2.00648
1.99068
1.96854
1.94014
1.90681
1.88082
1.89437
1.99006
2.29119
2.91763
3.72908
4.4406
5.14246
5.65239
5.69392
5.61036
5.39917
5.13408
5.00994
4.98867
4.97396
4.97695
4.97269
4.95341
4.9236
4.84261
4.67932
4.58652
4.55922
4.5394
4.53926
4.53952
4.51341
4.48201
4.42944
4.33487
4.26244
4.23011
4.20757
4.18844
4.16995
4.1495
4.12419
4.0801
3.99541
3.92031
3.8919
3.87463
3.86142
3.85211
3.83879
3.82079
3.80187
3.7251
3.37448
2.72326
2.24486
1.76866
1.39585
1.27174
1.14742
1.01783
1.00662
0.986706
0.926784
0.905014
0.916768
0.942272
0.969026
0.983634
1.00462
1.02722
1.02561
1.02585
1.03003
1.04145
1.04627
1.05251
1.06072
1.06164
1.05915
1.05098
1.04468
1.04382
1.04407
1.04421
1.04569
1.04664
1.04689
1.04666
1.04573
1.04537
1.04553
1.04666
1.04867
1.04941
1.04968
1.0496
1.04863
1.04458
1.04385
1.05616
1.23867
1.9612
2.77146
3.2045
3.90284
4.75806
6.62761
8.14965
8.72521
8.49685
8.16651
7.84476
7.6443
7.52892
7.47122
7.37792
7.23248
7.03072
6.7367
6.47422
6.35736
6.28904
6.23576
6.15216
6.04719
5.90848
5.70711
5.49503
5.3754
5.32045
5.27593
5.22006
5.14477
5.04378
4.90195
4.73799
4.62049
4.5569
4.51101
4.45002
4.36153
4.26175
4.16663
4.08985
4.03117
3.98978
3.95431
3.91212
3.83333
3.69975
3.57314
3.50979
3.47117
3.43923
3.40865
3.37614
3.34266
3.30392
3.23709
3.13277
3.04446
2.99345
2.95805
2.92647
2.89502
2.86261
2.82768
2.77568
2.70045
2.66363
2.65275
2.6368
2.6138
2.58516
2.53984
2.46593
2.40003
2.37539
2.36158
2.34785
2.33225
2.3154
2.29617
2.2676
2.21438
2.14355
2.09338
2.06401
2.03979
2.01947
2.00738
1.99926
1.98548
1.95824
1.94394
1.97161
2.10504
2.40508
2.81928
3.12961
3.44246
3.87451
4.30065
4.7681
5.01407
5.21883
5.23974
5.16882
5.0732
5.02803
5.00425
4.99994
4.99412
4.97037
4.9303
4.84439
4.69751
4.60199
4.57301
4.55665
4.558
4.55186
4.52519
4.49266
4.43977
4.3507
4.28301
4.25379
4.23021
4.20896
4.18926
4.16679
4.13739
4.09026
4.01349
3.94319
3.91214
3.89143
3.86928
3.84578
3.82612
3.80707
3.78806
3.72202
3.66936
3.33196
2.86032
2.40797
1.95526
1.65901
1.45506
1.22095
1.08227
1.03629
0.96835
0.92095
0.926065
0.942746
0.946447
0.948202
0.96057
0.981295
0.988718
0.993513
1.00563
1.02604
1.037
1.0446
1.05192
1.05414
1.05353
1.05105
1.04887
1.04905
1.0494
1.05031
1.05117
1.05059
1.04919
1.04613
1.04415
1.04387
1.04408
1.04569
1.0474
1.04835
1.04851
1.04791
1.04495
1.04712
1.07209
1.25089
2.14769
3.00208
3.35965
3.40204
3.43597
3.49651
4.061
5.84973
7.99009
8.72917
8.49413
7.93474
7.57949
7.49242
7.40528
7.27013
7.12101
6.99056
6.82057
6.57804
6.34077
6.21379
6.12882
6.05337
5.96704
5.87107
5.76835
5.62332
5.43941
5.30195
5.22266
5.14288
5.05247
4.95419
4.85947
4.77481
4.69038
4.60543
4.51407
4.41734
4.31547
4.23453
4.18263
4.12511
4.05799
3.99211
3.92509
3.85431
3.7756
3.67827
3.58174
3.52337
3.49225
3.47074
3.44309
3.40747
3.35828
3.28287
3.18641
3.099
3.0399
2.99743
2.96089
2.93414
2.91345
2.89199
2.85102
2.77807
2.7105
2.67085
2.63979
2.61181
2.58325
2.55056
2.51035
2.46157
2.41427
2.36518
2.32949
2.31247
2.29754
2.2799
2.25852
2.22851
2.17999
2.12537
2.09309
2.07274
2.05326
2.0333
2.01025
1.99067
1.97286
1.96866
2.01594
2.24838
2.62133
3.01872
3.27883
3.27314
3.26347
3.34013
3.56094
3.9524
4.44686
4.90412
5.14219
5.17752
5.13576
5.06811
5.0056
4.98068
4.96566
4.92674
4.87439
4.80227
4.70852
4.64053
4.60068
4.56069
4.52651
4.5036
4.48032
4.45052
4.4053
4.34278
4.29292
4.25365
4.21883
4.18811
4.16422
4.14149
4.11198
4.06812
4.01744
3.97049
3.91849
3.86995
3.84561
3.8275
3.80776
3.78394
3.75515
3.6894
3.75584
3.6221
3.31457
2.92668
2.48225
2.11703
1.85578
1.58641
1.3739
1.29061
1.19071
1.05955
1.04459
1.02495
0.978783
0.954193
0.954201
0.947735
0.942161
0.94458
0.956974
0.987342
1.01376
1.02636
1.03526
1.04289
1.04449
1.04409
1.0445
1.04754
1.05323
1.05659
1.05673
1.0557
1.05317
1.04933
1.04744
1.04759
1.04927
1.0516
1.0514
1.05079
1.04942
1.0461
1.04939
1.11294
1.39505
2.09045
3.23389
3.48805
3.47963
3.45287
3.41485
3.29659
3.29043
3.61474
5.04111
7.30936
8.07394
7.88667
7.71807
7.57591
7.36257
7.15508
7.0427
6.96808
6.86781
6.6706
6.39027
6.16778
6.06358
5.99071
5.93965
5.88429
5.81392
5.70983
5.5209
5.28549
5.13667
5.04908
4.97854
4.91801
4.86934
4.82967
4.77122
4.66034
4.50191
4.37769
4.30071
4.23854
4.17081
4.09905
4.03295
3.96676
3.8916
3.80902
3.73282
3.67215
3.62217
3.5746
3.5168
3.45414
3.40911
3.36926
3.31375
3.22779
3.14458
3.08915
3.05101
3.02004
2.9915
2.96004
2.92471
2.88201
2.82872
2.75629
2.69154
2.65316
2.62357
2.59666
2.56707
2.53169
2.50471
2.48286
2.44345
2.38457
2.33274
2.30364
2.28707
2.27138
2.24903
2.20796
2.15527
2.12081
2.1017
2.08419
2.0655
2.04522
2.0262
1.99694
2.00442
2.09959
2.41653
2.89667
3.1971
3.35331
3.37564
3.35422
3.30304
3.27296
3.2819
3.37264
3.6257
4.07485
4.59446
4.94092
5.06131
5.0769
5.06519
5.04355
4.98382
4.89503
4.83025
4.77941
4.73203
4.68741
4.63936
4.58472
4.53357
4.49908
4.4694
4.43255
4.39193
4.35459
4.31246
4.2692
4.2281
4.19236
4.16124
4.1344
4.10562
4.07344
4.03777
3.99417
3.93835
3.88285
3.84199
3.81832
3.79478
3.76356
3.72327
3.66497
3.77029
3.73598
3.58729
3.32325
2.93142
2.55415
2.2693
1.94463
1.69049
1.55285
1.42483
1.24845
1.17115
1.11385
1.03764
0.971428
0.965141
0.951817
0.938961
0.942492
0.954672
0.968444
0.983933
0.993408
0.99939
1.01
1.01831
1.02596
1.03301
1.03854
1.04835
1.05278
1.05323
1.05201
1.04902
1.04838
1.04985
1.05353
1.05806
1.05882
1.05762
1.05492
1.04914
1.0496
1.12944
1.65993
2.37874
3.13711
3.54177
3.57994
3.52638
3.44235
3.40402
3.30517
3.19488
3.19171
3.34599
4.34421
6.25577
7.64938
7.82443
7.6333
7.28289
7.06513
6.99272
6.93016
6.81269
6.64965
6.4261
6.19032
6.03416
5.95579
5.90254
5.85738
5.77837
5.68814
5.54176
5.29279
5.08721
5.00839
4.95666
4.92087
4.8847
4.82698
4.74789
4.61784
4.45462
4.3571
4.29786
4.24076
4.17922
4.11393
4.03986
3.94457
3.84792
3.77496
3.71955
3.67294
3.63453
3.59261
3.538
3.47863
3.41085
3.33277
3.25285
3.18647
3.1377
3.09414
3.04688
3.01408
2.99877
2.98628
2.95376
2.89722
2.81522
2.74273
2.69504
2.65608
2.61671
2.58036
2.54998
2.52611
2.50006
2.46468
2.42601
2.38184
2.33681
2.30854
2.28407
2.25737
2.2288
2.19171
2.15121
2.12492
2.10823
2.09282
2.07445
2.06527
2.04243
2.07023
2.24305
2.58332
3.08902
3.30753
3.41129
3.46754
3.456
3.43386
3.38853
3.31659
3.23137
3.2096
3.23692
3.37966
3.77177
4.27434
4.78264
5.04027
5.09554
5.05785
4.9488
4.8412
4.80758
4.78123
4.73624
4.69003
4.6496
4.61648
4.5751
4.51721
4.46036
4.40939
4.36405
4.32576
4.2934
4.26265
4.23283
4.20562
4.1747
4.13329
4.08879
4.05079
4.01921
3.98669
3.9502
3.90659
3.85698
3.8059
3.76292
3.72383
3.69451
3.66167
3.77028
3.75385
3.7073
3.56744
3.29625
2.94049
2.64459
2.33585
2.04454
1.85479
1.6875
1.49466
1.38193
1.3022
1.20212
1.0971
1.07386
1.04144
0.995087
0.988675
0.990534
0.982881
0.968917
0.967229
0.966356
0.968265
0.977569
0.991662
1.01008
1.02603
1.03868
1.04608
1.04752
1.04699
1.04555
1.04601
1.0498
1.05684
1.05983
1.05985
1.05843
1.05366
1.05579
1.1309
1.73848
2.72717
3.229
3.49877
3.56367
3.52567
3.49387
3.43889
3.39133
3.30175
3.17157
3.10667
3.09687
3.16427
3.75776
5.38959
7.07062
7.35216
7.24586
7.12789
7.02187
6.89645
6.75489
6.62504
6.45941
6.25086
6.05621
5.92031
5.84446
5.79344
5.73435
5.65045
5.52597
5.31175
5.10241
5.00274
4.95238
4.91702
4.87417
4.81425
4.72822
4.57327
4.40694
4.33705
4.29194
4.24817
4.20377
4.1471
4.04708
3.89819
3.79244
3.74905
3.72227
3.70981
3.6844
3.64484
3.59158
3.49448
3.36404
3.26963
3.21809
3.17868
3.14023
3.10167
3.07015
3.04151
3.00037
2.95087
2.90851
2.85616
2.79209
2.74015
2.70355
2.66542
2.62022
2.58375
2.55565
2.52373
2.48971
2.45516
2.41988
2.38741
2.35976
2.32112
2.27183
2.22746
2.20022
2.18109
2.16645
2.15052
2.13562
2.12282
2.11126
2.11204
2.16999
2.44284
2.84615
3.16738
3.43474
3.50776
3.53703
3.53263
3.49698
3.44255
3.38155
3.30737
3.23363
3.20054
3.19382
3.19848
3.26983
3.51884
3.96289
4.50678
4.85022
4.91033
4.86633
4.8451
4.82491
4.79955
4.75194
4.70661
4.67877
4.64746
4.58917
4.50629
4.42915
4.38066
4.34593
4.31729
4.29195
4.26961
4.24903
4.21914
4.16794
4.11121
4.06838
4.0388
4.0154
3.9958
3.97481
3.93815
3.86473
3.77855
3.7262
3.69913
3.68434
3.66823
3.76286
3.75709
3.73235
3.67474
3.51844
3.27096
2.99086
2.66007
2.38703
2.16934
1.96714
1.7547
1.61445
1.49808
1.37235
1.2569
1.20407
1.15483
1.07192
1.03104
1.02101
0.998097
0.97578
0.974491
0.971244
0.96802
0.968923
0.974561
0.989267
1.00492
1.01358
1.02064