/*--------------------------------*- C++ -*----------------------------------*\
  =========                 |
  \\      /  F ield         | OpenFOAM: The Open Source CFD Toolbox
   \\    /   O peration     | Website:  https://openfoam.org
    \\  /    A nd           | Version:  7
     \\/     M anipulation  |
\*---------------------------------------------------------------------------*/
FoamFile
{
    version     2.0;
    format      ascii;
    class       volScalarField;
    location    "3.5";
    object      T;
}
// * * * * * * * * * * * * * * * * * * * * * * * * * * * * * * * * * * * * * //

dimensions      [0 0 0 1 0 0 0];

internalField   nonuniform List<scalar> 
18432
(
1
1
1
1
1
1
1
1
1
1
1
1
1
1
1
1
1
1
1
1
1
1
1
1
1
1
1
1
1
1
1
1
1
1
1
1
1
1
1
1
1
1
1
1
1
1
1
1
1
1
1
1
1
1
1
1
1
1
1
1
1
1
1
1
1
1
1
1
1
1
1
1
1
1
1
1
1
1
1
1
1
1
1
1
1
1
1
1
1
1
1
1
1
1
1
1
1
1
1
1
1
1
1
1
1
1
1
1
1
1
1
1
1
1
1
1
1
1
1
1
1
1
1
1
1
1
1
1
1
1
1
1
1
1
1
1
1
1
1
1
1
1
1
1
1
1
1
1
1
1
1
1
1
1
1
1
1
1
1
1
1
1
1
1
1
1
1
1
1
1
1
1
1
1
1
1
1
1
1
1
1
1
1
1
1
1
1
1
1
1
1
1
1
1
1
1
1
1
1
1
1
1
1
1
1
1
1
1
1
1
1
1
1
1
1
1
1
1
1
1
1
1
1
1
1
1
1
1
1
1
1
1
1
1
1
1
1
1
1
1
1
1
1
1
1
1
1
1
1
1
1
1
1
1
1
1
1
1
1
1
1
1
1
1
1
1
1
1
1
1
1
1
1
1
1
1
1
1
1
1
1
1
1
1
1
1
1
1
1
1
1
1
1
1
1
1
1
1
1
1
1
1
1
1
1
1
1
1
1
1
1
1
1
1
1
1
1
1
1
1
1
1
1
1
1
1
1
1
1
1
1
1
1
1
1
1
1
1
1
1
1
1
1
1
1
1
1
1
1
1
1
1
1
1
1
1
1
1
1
1
1
1
1
1
1
1
1
1
1
1
1
1
1
1
1
1
1
1
1
1
1
1
1
1
1
1
1
1
1
1
1
1
1
1
1
1
1
1
1
1
1
1
1
1
1
1
1
1
1
1
1
1
1
1
1
1
1
1
1
1
1
1
1
1
1
1
1
1
1
1
1
1
1
1
1
1
1
1
1
1
1
1
1
1
1
1
1
1
1
1
1
1
1
1
1
1
1
1
1
1
1
1
1
1
1
1
1
1
1
1
1
1
1
1
1
1
1
1
1
1
1
1
1
1
1
1
1
1
1
1
1
1
1
1
1
1
1
1
1
1
1
1
1
1
1
1
1
1
1
1
1
1
1
1
1
1
1
1
1
1
1
1
1
1
1
1
1
1
1
1
1
1
1
1
1
1
1
1
1
1
1
1
1
1
1
1
1
1
1
1
1
1
1
1
1
1
1
1
1
1
1
1
1
1
1
1
1
1
1
1
1
1
1
1
1
1
1
1
1
1
1
1
1
1
1
1
1
1
1
1
1
1
1
1
1
1
1
1
1
1
1
1
1
1
1
1
1
1
1
1
1
1
1
1
1
1
1
1
1
1
1
1
1
1
1
1
1
1
1
1
1
1
1
1
1
1
1
1
1
1
1
1
1
1
1
1
1
1
1
1
1
1
1
1
1
1
1
1
1
1
1
1
1
1
1
1
1
1
1
1
1
1
1
1
1
1
1
1
1
1
1
1
1
1
1
1
1
1
1
1
1
1
1
1
1
1
1
1
1
1
1
1
1
1
1
1
1
1
1
1
1
1
1
1
1
1
1
1
1
1
1
1
1
1
1
1
1
1
1
1
1
1
1
1
1
1
1
1
1
1
1
1
1
1
1
1
1
1
1
1
1
1
1
1
1
1
1
1
1
1
1
1
1
1
1
1
1
1
1
1
1
1
1
1
1
1
1
1
1
1
1
1
1
1
1
1
1
1
1
1
1
1
1
1
1
1
1
1
1
1
1
1
1
1
1
1
1
1
1
1
1
1
1
1
1
1
1
1
1
1
1
1
1
1
1
1
1
1
1
1
1
1
1
1
1
1
1
1
1
1
1
1
1
1
1
1
1
1
1
1
1
1
1
1
1
1
1
1
1
1
1
1
1
1
1
1
1
1
1
1
1
1
1
1
1
1
1
1
1
1
1
1
1
1
1
1
1
1
1
1
1
1
1
1
1
1
1
1
1
1
1
1
1
1
1
1
1
1
1
1
1
1
1
1
1
1
1
1
1
1
1
1
1
1
1
1
1
1
1
1
1
1
1
1
1
1
1
1
1
1
1
1
1
1
1
1
1
1
1
1
1
1
1
1
1
1
1
1
1
1
1
1
1
1
1
1
1
1
1
1
1
1
1
1
1
1
1
1
1
1
1
1
1
1
1
1
1
1
1
1
1
1
1
1
1
1
1
1
1
1
1
1
1
1
1
1
1
1
1
1
1
1
1
1
1
1
1
1
1
1
1
1
1
1
1
1
1
1
1
1
1
1
1
1
1
1
1
1
1
1
1
1
1
1
1
1
1
1
1
1
1
1
1
1
1
1
1
1
1
1
1
1
1
1
1
1
1
1
1
1
1
1
1
1
1
1
1
1
1
1
1
1
1
1
1
1
1
1
1
1
1
1
1
1
1
1
1
1
1
1
1
1
1
1
1
1
1
1
1
1
1
1
1
1
1
1
1
1
1
1
1
1
1
1
1
1
1
1
1
1
1
1
1
1
1
1
1
1
1
1
1
1
1
1
1
1
1
1
1
1
1
1
1
1
1
1
1
1
1
1
1
1
1
1
1
1
1
1
1
1
1
1
1
1
1
1
1
1
1
1
1
1
1
1
1
1
1
1
1
1
1
1
1
1
1
1
1
1
1
1
1
1
1
1
1
1
1
1
1
1
1
1
1
1
1
1
1
1
1
1
1
1
1
1
1
1
1
1
1
1
1
1
1
1
1
1
1
1
1
1
1
1
1
1
1
1
1
1
1
1
1
1
1
1
1
1
1
1
1
1
1
1
1
1
1
1
1
1
1
1
1
1
1
1
1
1
1
1
1
1
1
1
1
1
1
1
1
1
1
1
1
1
1
1
1
1
1
1
1
1
1
1
1
1
1
1
1
1
1
1
1
1
1
1
1
1
1
1
1
1
1
1
1
1
1
1
1
1
1
1
1
1
1
1
1
1
1
1
1
1
1
1
1
1
1
1
1
1
1
1
1
1
1
1
1
1
1
1
1
1
1
1
1
1
1
1
1
1
1
1
1
1
1
1
1
1
1
1
1
1
1
1
1
1
1
1
1
1
1
1
1
1
1
1
1
1
1
1
1
1
1
1
1
1
1
1
1
1
1
1
1
1
1
1
1
1
1
1
1
1
1
1
1
1
1
1
1
1
1
1
1
1
1
1
1
1
1
1
1
1
1
1
1
1
1
1
1
1
1
1
1
1
1
1
1
1
1
1
1
1
1
1
1
1
1
1
1
1
1
1
1
1
1
1
1
1
1
1
1
1
1
1
1
1
1
1
1
1
1
1
1
1
1
1
1
1
1
1
1
1
1
1
1
1
1
1
1
1
1
1
1
1
1
1
1
1
1
1
1
1
1
1
1
1
1
1
1
1
1
1
1
1
1
1
1
1
1
1
1
1
1
1
1
1
1
1
1
1
1
1
1
1
1
1
1
1
1
1
1
1
1
1
1
1
1
1
1
1
1
1
1
1
1
1
1
1
1
1
1
1
1
1
1
1
1
1
1
1
1
1
1
1
1
1
1
1
1
1
1
1
1
1
1
1
1
1
1
1
1
1
1
1
1
1
1
1
1
1
1
1
1
1
1
1
1
1
1
1
1
1
1
1
1
1
1
1
1
1
1
1
1
1
1
1
1
1
1
1
1
1
1
1
1
1
1
1
1
1
1
1
1
1
1
1
1
1
1
1
1
1
1
1
1
1
1
1
1
1
1
1
1
1
1
1
1
1
1
1
1
1
1
1
1
1
1
1
1
1
1
1
1
1
1
1
1
1
1
1
1
1
1
1
1
1
1
1
1
1
1
1
1
1
1
1
1
1
1
1
1
1
1
1
1
1
1
1
1
1
1
1
1
1
1
1
1
1
1
1
1
1
1
1
1
1
1
1
1
1
1
1
1
1
1
1
1
1
1
1
1
1
1
1
1
1
1
1
1
1
1
1
1
1
1
1
1
1
1
1
1
1
1
1
1
1
1
1
1
1
1
1
1
1
1
1
1
1
1
1
1
1
1
1
1
1
1
1
1
1
1
1
1
1
1
1
1
1
1
1
1
1
1
1
1
1
1
1
1
1
1
1
1
1
1
1
1
1
1
1
1
1
1
1
1
1
1
1
1
1
1
1
1
1
1
1
1
1
1
1
1
1
1
1
1
1
1
1
1
1
1
1
1
1
1
1
1
1
1
1
1
1
1
1
1
1
1
1
1
1
1
1
1
1
1
1
1
1
1
1
1
1
1
1
1
1
1
1
1
1
1
1
1
1
1
1
1
1
1
1
1
1
1
1
1
1
1
1
1
1
1
1
1
1
1
1
1
1
1
1
1
1
1
1
1
1
1
1
1
1
1
1
1
1
1
1
1
1
1
1
1
1
1
1
1
1
1
1
1
1
1
1
1
1
1
1
1
1
1
1
1
1
1
1
1
1
1
1
1
1
1
1
1
1
1
1
1
1
1
1
1
1
1
1
1
1
1
1
1
1
1
1
1
1
1
1
1
1
1
1
1
1
1
1
1
1
1
1
1
1
1
1
1
1
1
1
1
1
1
1
1
1
1
1
1
1
1
1
1
1
1
1
1
1
1
1
1
1
1
1
1
1
1
1
1
1
1
1
1
1
1
1
1
1
1
1
1
1
1
1
1
1
1
1
1
1
1
1
1
1
1
1
1
1
1
1
1
1
1
1
1
1
1
1
1
1
1
1
1
1
1
1
1
1
1
1
1
1
1
1
1
1
1
1
1
1
1
1
1
1
1
1
1
1
1
1
1
1
1
1
1
1
1
1
1
1
1
1
1
1
1
1
1
1
1
1
1
1
1
1
1
1
1
1
1
1
1
1
1
1
1
1
1
1
1
1
1
1
1
1
1
1
1
1
1
1
1
1
1
1
1
1
1
1
1
1
1
1
1
1
1
1
1
1
1
1
1
1
1
1
1
1
1
1
1
1
1
1
1
1
1
1
1
1
1
1
1
1
1
1
1
1
1
1
1
1
1
1
1
1
1
1
1
1
1
1
1
1
1
1
1
1
1
1
1
1
1
1
1
1
1
1
1
1
1
1
1
1
1
1
1
1
1
1
1
1
1
1
1
1
1
1
1
1
1
1
1
1
1
1
1
1
1
1
1
1
1
1
1
1
1
1
1
1
1
1
1
1
1
1
1
1
1
1
1
1
1
1
1
1
1
1
1
1
1
1
1
1
1
1
1
1
1
1
1
1
1
1
1
1
1
1
1
1
1
1
1
1
1
1
1
1
1
1
1
1
1
1
1
1
1
1
1
1
1
1
1
1
1
1
1
1
1
1
1
1
1
1
1
1
1
1
1
1
1
1
1
1
1
1
1
1
1
1
1
1
1
1
1
1
1
1
1
1
1
1
1
1
1
1
1
1
1
1
1
1
1
1
1
1
1
1
1
1
1
1
1
1
1
1
1
1
1
1
1
1
1
1
1
1
1
1
1
1
1
1
1
1
1
1
1
1
1
1
1
1
1
1
1
1
1
1
1
1
1
1
1
1
1
1
1
1
1
1
1
1
1
1
1
1
1
1
1
1
1
1
1
1
1
1
1
1
1
1
1
1
1
1
1
1
1
1
1
1
1
1
1
1
1
1
1
1
1
1
1
1
1
1
1
1
1
1
1
1
1
1
1
1
1
1
1
1
1
1
1
1
1
1
1
1
1
1
1
1
1
1
1
1
1
1
1
1
1
1
1
1
1
1
1
1
1
1
1
1
1
1
1
1
1
1
1
1
1
1
1
1
1
1
1
1
1
1
1
1
1
1
1
1
1
1
1
1
1
1
1
1
1
1
1
1
1
1
1
1
1
1
1
1
1
1
1
1
1
1
1
1
1
1
1
1
1
1
1
1
1
1
1
1
1
1
1
1
1
1
1
1
1
1
1
1
1
1
1
1
1
1
1
1
1
1
1
1
1
1
1
1
1
1
1
1
1
1
1
1
1
1
1
1
1
1
1
1
1
1
1
1
1
1
1
1
1
1
1
1
1
1
1
1
1
1
1
1
1
1
1
1
1
1
1
1
1
1
1
1
1
1
1
1
1
1
1
1
1
1
1
1
1
1
1
1
1
1
1
1
1
1
1
1
1
1
1
1
1
1
1
1
1
1
1
1
1
1
1
1
1
1
1
1
1
1
1
1
1
1
1
1
1
1
1
1
1
1
1
1
1
1
1
1
1
1
1
1
1
1
1
1
1
1
1
1
1
1
1
1
1
1
1
1
1
1
1
1
1
1
1
1
1
1
1
1
1
1
1
1
1
1
1
1
1
1
1
1
1
1
1
1
1
1
1
1
1
1
1
1
1
1
1
1
1
1
1
1
1
1
1
1
1
1
1
1
1
1
1
1
1
1
1
1
1
1
1
1
1
1
1
1
1
1
1
1
1
1
1
1
1
1
1
1
1
1
1
1
1
1
1
1
1
1
1
1
1
1
1
1
1
1
1
1
1
1
1
1
1
1
1
1
1
1
1
1
1
1
1
1
1
1
1
1
1
1
1
1
1
1
1
1
1
1
1
1
1
1
1
1
1
1
1
1
1
1
1
1
1
1
1
1
1
1
1
1
1
1
1
1
1
1
1
1
1
1
1
1
1
1
1
1
1
1
1
1
1
1
1
1
1
1
1
1
1
1
1
1
1
1
1
1
1
1
1
1
1
1
1
1
1
1
1
1
1
1
1
1
1
1
1
1
1
1
1
1
1
1
1
1
1
1
1
1
1
1
1
1
1
1
1
1
1
1
1
1
1
1
1
1
1
1
1
1
1
1
1
1
1
1
1
1
1
1
1
1
1
1
1
1
1
1
1
1
1
1
1
1
1
1
1
1
1
1
1
1
1
1
1
1
1.07865
1.17703
1.28589
1.38756
1.46985
1.55906
1.6217
1.66407
1.69446
1.68966
1.66332
1.61612
1.57066
1.53437
1.52406
1.51692
1.51441
1.51749
1.52205
1.52695
1.53092
1.53402
1.53614
1.53804
1.54002
1.54104
1.5418
1.5422
1.54222
1.54202
1.54146
1.54114
1.54141
1.54259
1.54465
1.54669
1.54731
1.54725
1.54695
1.54616
1.54524
1.54516
1.54536
1.54564
1.54607
1.54642
1.54654
1.5465
1.00063
1.00693
1.02202
1.06706
1.13295
1.21107
1.3015
1.37795
1.45552
1.50404
1.53312
1.5561
1.563
1.55975
1.55315
1.54813
1.54014
1.53683
1.53168
1.53168
1.5335
1.53659
1.53927
1.5415
1.54383
1.54512
1.54604
1.54668
1.54657
1.5462
1.54589
1.54583
1.54597
1.54649
1.54704
1.54757
1.54762
1.54741
1.54692
1.5464
1.54627
1.5464
1.5467
1.54713
1.54771
1.54811
1.54813
1.54865
1
0.999999
0.999997
1.00001
1.00055
1.00426
1.02242
1.07413
1.18382
1.3458
1.50252
1.58343
1.62064
1.62024
1.61304
1.59978
1.58202
1.55881
1.54374
1.5414
1.54254
1.54523
1.54772
1.55027
1.55281
1.55451
1.55559
1.55654
1.5571
1.55711
1.55713
1.55678
1.55628
1.55606
1.55582
1.55538
1.55469
1.55378
1.55274
1.55192
1.55158
1.55152
1.55155
1.55177
1.55227
1.55258
1.5524
1.5534
1
1
1
1
1
0.999993
1.00002
1.00004
1.00196
1.02954
1.14415
1.33904
1.48469
1.61308
1.61384
1.60147
1.60099
1.5953
1.58067
1.57039
1.56672
1.56426
1.5611
1.56152
1.56319
1.56445
1.56572
1.56697
1.56785
1.56849
1.56858
1.56829
1.56776
1.56744
1.56714
1.56672
1.56599
1.56487
1.56354
1.56248
1.56196
1.56174
1.56162
1.56157
1.56157
1.56139
1.56037
1.56119
1
1
1
1
1
1
1
1
1
0.999974
1.00053
1.01878
1.10424
1.30293
1.47039
1.56532
1.62678
1.62679
1.6197
1.60667
1.59541
1.58446
1.5784
1.57579
1.57398
1.57472
1.57566
1.57645
1.57714
1.57767
1.57728
1.57648
1.57589
1.57618
1.57678
1.57666
1.57619
1.57535
1.57421
1.57321
1.57283
1.57279
1.5728
1.5728
1.57262
1.57198
1.57041
1.57101
1
1
1
1
1
1
1
1
1
0.999999
0.999999
0.999981
1.00027
1.00983
1.09419
1.24617
1.43888
1.53021
1.59536
1.60818
1.60739
1.60131
1.59309
1.58834
1.58548
1.58236
1.58054
1.57979
1.58007
1.58117
1.58201
1.58243
1.58313
1.58393
1.58405
1.58381
1.58327
1.5825
1.5816
1.58094
1.58074
1.58064
1.58062
1.5806
1.58016
1.57915
1.57744
1.57773
1
1
1
1
1
1
1
1
1
1
1
0.999999
0.999999
0.999985
1.00027
1.00569
1.0675
1.22355
1.39924
1.51813
1.56105
1.58877
1.5922
1.59173
1.58711
1.58279
1.58254
1.58171
1.58007
1.58015
1.58129
1.58358
1.5867
1.5875
1.58714
1.58643
1.58578
1.58522
1.58449
1.58403
1.58382
1.58362
1.58368
1.58366
1.58317
1.58233
1.58105
1.58111
1
1
1
1
1
1
1
1
1
1
1
1
1
0.999999
0.999999
0.999991
1.00017
1.00581
1.04832
1.20296
1.35683
1.50363
1.55042
1.56547
1.5767
1.57325
1.57388
1.57487
1.57421
1.57451
1.5761
1.57896
1.58169
1.58373
1.58459
1.58448
1.58408
1.58339
1.58311
1.58314
1.58321
1.58362
1.58413
1.58414
1.58392
1.5836
1.58307
1.58301
1
1
1
1
1
1
1
1
1
1
1
1
1
1
1
0.999999
0.999999
0.999993
1.00008
1.00526
1.04077
1.16821
1.3456
1.47247
1.54828
1.56243
1.56766
1.56986
1.56899
1.56891
1.56983
1.57161
1.57326
1.57494
1.57685
1.57815
1.57881
1.5793
1.57993
1.58074
1.58137
1.5821
1.5827
1.58295
1.58316
1.58317
1.58306
1.58288
1
1
1
1
1
1
1
1
1
1
1
1
1
1
1
1
1
1
1
0.999994
1.00008
1.00323
1.04613
1.15624
1.3315
1.44881
1.52966
1.55876
1.56556
1.56677
1.56927
1.56931
1.56879
1.56895
1.57027
1.5721
1.5732
1.57424
1.57531
1.57632
1.57751
1.57865
1.57918
1.57966
1.58039
1.58082
1.5811
1.58088
1
1
1
1
1
1
1
1
1
1
1
1
1
1
1
1
1
1
1
0.999999
1
0.999995
1.00016
1.00298
1.03979
1.1605
1.32147
1.44369
1.5081
1.54616
1.56025
1.56359
1.56409
1.56547
1.56609
1.56673
1.56851
1.57001
1.57128
1.57242
1.5739
1.57487
1.57539
1.57593
1.57651
1.57681
1.57721
1.57696
1
1
1
1
1
1
1
1
1
1
1
1
1
1
1
1
1
1
1
1
1
0.999999
1
0.999996
1.00016
1.00408
1.035
1.16572
1.31903
1.46288
1.50985
1.53076
1.54494
1.55433
1.55622
1.55822
1.56109
1.5632
1.56467
1.5659
1.56715
1.56841
1.56944
1.57025
1.5711
1.57176
1.57249
1.5724
1
1
1
1
1
1
1
1
1
1
1
1
1
1
1
1
1
1
1
1
1
1
1
1
1
0.999996
1.00014
1.00576
1.04032
1.17504
1.33892
1.47027
1.52928
1.53647
1.54346
1.54905
1.55228
1.55463
1.55627
1.55764
1.55942
1.56166
1.56334
1.56398
1.56443
1.56486
1.56546
1.56587
1
1
1
1
1
1
1
1
1
1
1
1
1
1
1
1
1
1
1
1
1
1
1
1
1
1
1
1
1.00022
1.00693
1.05793
1.19431
1.36466
1.47682
1.53672
1.55181
1.5535
1.55611
1.55576
1.55501
1.55576
1.55761
1.55894
1.55958
1.55949
1.55923
1.55955
1.56032
1
1
1
1
1
1
1
1
1
1
1
1
1
1
1
1
1
1
1
1
1
1
1
1
1
1
1
1
0.999999
1
1.00053
1.00933
1.08476
1.23287
1.39895
1.48864
1.53798
1.55529
1.5559
1.55642
1.5571
1.55796
1.559
1.55893
1.55847
1.55787
1.55792
1.55853
1
1
1
1
1
1
1
1
1
1
1
1
1
1
1
1
1
1
1
1
1
1
1
1
1
1
1
1
1
1
0.999999
1.00002
1.00146
1.01649
1.12107
1.29123
1.45148
1.5073
1.52915
1.54664
1.55288
1.55413
1.55547
1.55652
1.55659
1.55655
1.55698
1.55774
1
1
1
1
1
1
1
1
1
1
1
1
1
1
1
1
1
1
1
1
1
1
1
1
1
1
1
1
1
1
1
1
0.999999
1.00006
1.00396
1.03554
1.17836
1.35417
1.4969
1.5362
1.54275
1.54737
1.54896
1.55069
1.5525
1.55358
1.55466
1.556
1
1
1
1
1
1
1
1
1
1
1
1
1
1
1
1
1
1
1
1
1
1
1
1
1
1
1
1
1
1
1
1
1
1
1
1.0003
1.01048
1.07579
1.26158
1.42549
1.52075
1.55213
1.55322
1.55649
1.55613
1.55497
1.55464
1.55573
1
1
1
1
1
1
1
1
1
1
1
1
1
1
1
1
1
1
1
1
1
1
1
1
1
1
1
1
1
1
1
1
1
1
1
0.999999
1.00004
1.00147
1.0306
1.15372
1.35162
1.47315
1.53678
1.55864
1.55862
1.55785
1.55786
1.55844
1
1
1
1
1
1
1
1
1
1
1
1
1
1
1
1
1
1
1
1
1
1
1
1
1
1
1
1
1
1
1
1
1
1
1
1
1
1
1.00035
1.00696
1.08098
1.26429
1.4531
1.51852
1.53594
1.54717
1.55399
1.55562
1
1
1
1
1
1
1
1
1
1
1
1
1
1
1
1
1
1
1
1
1
1
1
1
1
1
1
1
1
1
1
1
1
1
1
1
1
1
1
1.00002
1.00253
1.03326
1.18468
1.3826
1.51534
1.54612
1.55165
1.55328
1
1
1
1
1
1
1
1
1
1
1
1
1
1
1
1
1
1
1
1
1
1
1
1
1
1
1
1
1
1
1
1
1
1
1
1
1
1
1
1
1
1.00043
1.01456
1.10872
1.32518
1.47947
1.54844
1.561
1
1
1
1
1
1
1
1
1
1
1
1
1
1
1
1
1
1
1
1
1
1
1
1
1
1
1
1
1
1
1
1
1
1
1
1
1
1
1
1
1
1
1.00013
1.00436
1.07305
1.25652
1.44433
1.51083
1
1
1
1
1
1
1
1
1
1
1
1
1
1
1
1
1
1
1
1
1
1
1
1
1
1
1
1
1
1
1
1
1
1
1
1
1
1
1
1
1
1
1
1.00002
1.00242
1.03199
1.2043
1.39205
1
1
1
1
1
1
1
1
1
1
1
1
1
1
1
1
1
1
1
1
1
1
1
1
1
1
1
1
1
1
1
1
1
1
1
1
1
1
1
1
1
1
1
1
1.00001
1.00055
1.0241
1.13037
1
1
1
1
1
1
1
1
1
1
1
1
1
1
1
1
1
1
1
1
1
1
1
1
1
1
1
1
1
1
1
1
1
1
1
1
1
1
1
1
1
1
1
1
1
1
1.00052
1.00581
1
1
1
1
1
1
1
1
1
1
1
1
1
1
1
1
1
1
1
1
1
1
1
1
1
1
1
1
1
1
1
1
1
1
1
1
1
1
1
1
1
1
1
1
1
1
1
0.999952
1
1
1
1
1
1
1
1
1
1
1
1
1
1
1
1
1
1
1
1
1
1
1
1
1
1
1
1
1
1
1
1
1
1
1
1
1
1
1
1
1
1
1
1
1
1
1
0.999985
1
1
1
1
1
1
1
1
1
1
1
1
1
1
1
1
1
1
1
1
1
1
1
1
1
1
1
1
1
1
1
1
1
1
1
1
1
1
1
1
1
1
1
1
1
1
1
0.999998
1
1
1
1
1
1
1
1
1
1
1
1
1
1
1
1
1
1
1
1
1
1
1
1
1
1
1
1
1
1
1
1
1
1
1
1
1
1
1
1
1
1
1
1
1
1
1
1
1
1
1
1
1
1
1
1
1
1
1
1
1
1
1
1
1
1
1
1
1
1
1
1
1
1
1
1
1
1
1
1
1
1
1
1
1
1
1
1
1
1
1
1
1
1
1
1
1
1
1
1
1
1
1
1
1
1
1
1
1
1
1
1
1
1
1
1
1
1
1
1
1
1
1
1
1
1
1
1
1
1
1
1
1
1
1
1
1
1
1
1
1
1
1
1
1
1
1
1
1
1
1
1
1
1
1
1
1
1
1
1
1
1
1
1
1
1
1
1
1
1
1
1
1
1
1
1
1
1
1
1
1
1
1
1
1
1
1
1
1
1
1
1
1
1
1
1
1
1
1
1
1
1
1
1
1
1
1
1
1
1
1
1
1
1
1
1
1
1
1
1
1
1
1
1
1
1
1
1
1
1
1
1
1
1
1
1
1
1
1
1
1
1
1
1
1
1
1
1
1
1
1
1
1
1
1
1
1
1
1
1
1
1
1
1
1
1
1
1
1
1
1
1
1
1
1
1
1
1
1
1
1
1
1
1
1
1
1
1
1
1
1
1
1
1
1
1
1
1
1
1
1
1
1
1
1
1
1
1
1
1
1
1
1
1
1
1
1
1
1
1
1
1
1
1
1
1
1
1
1
1
1
1
1
1
1
0.999998
1
1
1
1
1
1
1
1
1
1
1
1
1
1
1
1
1
1
1
1
1
1
1
1
1
1
1
1
1
1
1
1
1
1
1
1
1
1
1
1
1
1
1
1
1
1
1
0.999985
1
1
1
1
1
1
1
1
1
1
1
1
1
1
1
1
1
1
1
1
1
1
1
1
1
1
1
1
1
1
1
1
1
1
1
1
1
1
1
1
1
1
1
1
1
1
1
0.999951
1
1
1
1
1
1
1
1
1
1
1
1
1
1
1
1
1
1
1
1
1
1
1
1
1
1
1
1
1
1
1
1
1
1
1
1
1
1
1
1
1
1
1
1
1
1
1.00053
1.00575
1
1
1
1
1
1
1
1
1
1
1
1
1
1
1
1
1
1
1
1
1
1
1
1
1
1
1
1
1
1
1
1
1
1
1
1
1
1
1
1
1
1
1
1
1.00001
1.00055
1.02411
1.13033
1
1
1
1
1
1
1
1
1
1
1
1
1
1
1
1
1
1
1
1
1
1
1
1
1
1
1
1
1
1
1
1
1
1
1
1
1
1
1
1
1
1
1
1.00002
1.00242
1.032
1.20431
1.39224
1
1
1
1
1
1
1
1
1
1
1
1
1
1
1
1
1
1
1
1
1
1
1
1
1
1
1
1
1
1
1
1
1
1
1
1
1
1
1
1
1
1
1.00013
1.00436
1.07306
1.25653
1.44444
1.51078
1
1
1
1
1
1
1
1
1
1
1
1
1
1
1
1
1
1
1
1
1
1
1
1
1
1
1
1
1
1
1
1
1
1
1
1
1
1
1
1
1
1.00043
1.01456
1.10868
1.32523
1.47951
1.54846
1.56097
1
1
1
1
1
1
1
1
1
1
1
1
1
1
1
1
1
1
1
1
1
1
1
1
1
1
1
1
1
1
1
1
1
1
1
1
1
1
1
1.00002
1.00253
1.03327
1.18466
1.38258
1.51539
1.54609
1.55162
1.55325
1
1
1
1
1
1
1
1
1
1
1
1
1
1
1
1
1
1
1
1
1
1
1
1
1
1
1
1
1
1
1
1
1
1
1
1
1
1
1.00035
1.00696
1.08098
1.26431
1.45306
1.51857
1.53594
1.54714
1.55397
1.55563
1
1
1
1
1
1
1
1
1
1
1
1
1
1
1
1
1
1
1
1
1
1
1
1
1
1
1
1
1
1
1
1
1
1
1
0.999999
1.00004
1.00147
1.0306
1.15372
1.35163
1.47315
1.53677
1.55864
1.55861
1.55784
1.55786
1.55845
1
1
1
1
1
1
1
1
1
1
1
1
1
1
1
1
1
1
1
1
1
1
1
1
1
1
1
1
1
1
1
1
1
1
1
1.0003
1.01048
1.07579
1.26158
1.42549
1.52076
1.55213
1.55322
1.55649
1.55613
1.55497
1.55464
1.55574
1
1
1
1
1
1
1
1
1
1
1
1
1
1
1
1
1
1
1
1
1
1
1
1
1
1
1
1
1
1
1
1
0.999999
1.00006
1.00396
1.03554
1.17836
1.35418
1.49689
1.5362
1.54275
1.54737
1.54896
1.55068
1.5525
1.55358
1.55466
1.556
1
1
1
1
1
1
1
1
1
1
1
1
1
1
1
1
1
1
1
1
1
1
1
1
1
1
1
1
1
1
0.999999
1.00002
1.00146
1.01649
1.12107
1.29123
1.45149
1.5073
1.52915
1.54664
1.55288
1.55413
1.55546
1.55652
1.55659
1.55655
1.55698
1.55774
1
1
1
1
1
1
1
1
1
1
1
1
1
1
1
1
1
1
1
1
1
1
1
1
1
1
1
1
0.999999
1
1.00053
1.00933
1.08476
1.23287
1.39895
1.48864
1.53798
1.55529
1.5559
1.55642
1.5571
1.55796
1.559
1.55893
1.55847
1.55788
1.55792
1.55853
1
1
1
1
1
1
1
1
1
1
1
1
1
1
1
1
1
1
1
1
1
1
1
1
1
1
1
1
1.00022
1.00693
1.05793
1.19431
1.36466
1.47682
1.53672
1.55181
1.5535
1.55611
1.55576
1.55501
1.55576
1.55761
1.55894
1.55958
1.55949
1.55924
1.55955
1.56033
1
1
1
1
1
1
1
1
1
1
1
1
1
1
1
1
1
1
1
1
1
1
1
1
1
0.999996
1.00014
1.00576
1.04032
1.17504
1.33892
1.47027
1.52928
1.53647
1.54346
1.54905
1.55228
1.55463
1.55627
1.55764
1.55942
1.56166
1.56334
1.56398
1.56443
1.56486
1.56546
1.56587
1
1
1
1
1
1
1
1
1
1
1
1
1
1
1
1
1
1
1
1
1
0.999999
1
0.999996
1.00016
1.00408
1.035
1.16572
1.31903
1.46288
1.50985
1.53076
1.54494
1.55433
1.55622
1.55822
1.56109
1.5632
1.56467
1.5659
1.56715
1.56841
1.56944
1.57025
1.5711
1.57176
1.57249
1.5724
1
1
1
1
1
1
1
1
1
1
1
1
1
1
1
1
1
1
1
0.999999
1
0.999995
1.00016
1.00298
1.03979
1.1605
1.32147
1.44369
1.5081
1.54616
1.56025
1.56359
1.56409
1.56547
1.56609
1.56673
1.56851
1.57001
1.57128
1.57242
1.5739
1.57487
1.57539
1.57593
1.57651
1.57681
1.57721
1.57696
1
1
1
1
1
1
1
1
1
1
1
1
1
1
1
1
1
1
1
0.999994
1.00008
1.00323
1.04613
1.15624
1.3315
1.44881
1.52966
1.55876
1.56556
1.56677
1.56927
1.56931
1.56879
1.56895
1.57027
1.5721
1.5732
1.57424
1.57531
1.57632
1.57751
1.57865
1.57918
1.57966
1.58039
1.58082
1.5811
1.58088
1
1
1
1
1
1
1
1
1
1
1
1
1
1
1
0.999999
0.999999
0.999993
1.00008
1.00526
1.04077
1.16821
1.3456
1.47247
1.54828
1.56243
1.56766
1.56986
1.56899
1.56891
1.56983
1.57161
1.57326
1.57494
1.57685
1.57815
1.57881
1.5793
1.57993
1.58074
1.58137
1.5821
1.5827
1.58295
1.58316
1.58317
1.58306
1.58288
1
1
1
1
1
1
1
1
1
1
1
1
1
0.999999
0.999999
0.999991
1.00017
1.00581
1.04832
1.20296
1.35683
1.50363
1.55042
1.56547
1.5767
1.57325
1.57388
1.57487
1.57421
1.57451
1.5761
1.57896
1.58169
1.58373
1.58459
1.58448
1.58408
1.58339
1.58311
1.58314
1.58321
1.58362
1.58413
1.58414
1.58392
1.5836
1.58307
1.58301
1
1
1
1
1
1
1
1
1
1
1
0.999999
0.999999
0.999985
1.00027
1.00569
1.0675
1.22355
1.39924
1.51813
1.56105
1.58877
1.5922
1.59173
1.58711
1.58279
1.58254
1.58171
1.58007
1.58015
1.58129
1.58358
1.5867
1.5875
1.58714
1.58643
1.58578
1.58522
1.58449
1.58403
1.58382
1.58362
1.58368
1.58366
1.58317
1.58233
1.58105
1.58111
1
1
1
1
1
1
1
1
1
0.999999
0.999999
0.999981
1.00027
1.00983
1.09419
1.24617
1.43888
1.53021
1.59536
1.60818
1.60739
1.60131
1.59309
1.58834
1.58548
1.58236
1.58054
1.57979
1.58007
1.58117
1.58201
1.58243
1.58313
1.58393
1.58405
1.58381
1.58327
1.5825
1.5816
1.58094
1.58074
1.58064
1.58062
1.5806
1.58016
1.57915
1.57744
1.57773
1
1
1
1
1
1
1
1
1
0.999974
1.00053
1.01878
1.10424
1.30293
1.47039
1.56532
1.62678
1.62679
1.6197
1.60667
1.59541
1.58446
1.5784
1.57579
1.57399
1.57472
1.57566
1.57645
1.57714
1.57767
1.57728
1.57648
1.57589
1.57618
1.57678
1.57666
1.57619
1.57535
1.57421
1.57321
1.57283
1.57279
1.5728
1.5728
1.57262
1.57198
1.57041
1.57101
1
1
1
1
1
0.999993
1.00002
1.00004
1.00196
1.02954
1.14415
1.33904
1.48469
1.61308
1.61384
1.60147
1.60099
1.5953
1.58067
1.57039
1.56672
1.56426
1.5611
1.56152
1.56319
1.56445
1.56572
1.56697
1.56785
1.56849
1.56858
1.56829
1.56776
1.56744
1.56714
1.56672
1.56599
1.56487
1.56354
1.56248
1.56196
1.56174
1.56162
1.56157
1.56157
1.56139
1.56037
1.56119
1
0.999999
0.999997
1.00001
1.00055
1.00426
1.02242
1.07413
1.18382
1.3458
1.50252
1.58343
1.62064
1.62024
1.61304
1.59978
1.58202
1.55881
1.54374
1.5414
1.54254
1.54523
1.54772
1.55027
1.55281
1.55451
1.55559
1.55654
1.5571
1.55711
1.55713
1.55678
1.55628
1.55606
1.55582
1.55538
1.55469
1.55378
1.55274
1.55192
1.55158
1.55152
1.55155
1.55177
1.55227
1.55258
1.5524
1.5534
1.00063
1.00693
1.02202
1.06706
1.13295
1.21107
1.3015
1.37795
1.45552
1.50405
1.53312
1.5561
1.563
1.55975
1.55315
1.54813
1.54014
1.53683
1.53168
1.53168
1.5335
1.53659
1.53927
1.5415
1.54383
1.54512
1.54604
1.54668
1.54657
1.5462
1.54589
1.54583
1.54597
1.54649
1.54704
1.54757
1.54762
1.54741
1.54692
1.5464
1.54627
1.5464
1.5467
1.54713
1.54771
1.54811
1.54813
1.54865
1.07865
1.17703
1.28589
1.38756
1.46985
1.55906
1.6217
1.66407
1.69446
1.68966
1.66332
1.61612
1.57066
1.53437
1.52406
1.51692
1.51441
1.51749
1.52205
1.52695
1.53092
1.53402
1.53614
1.53804
1.54002
1.54104
1.5418
1.5422
1.54222
1.54202
1.54146
1.54114
1.54141
1.54259
1.54465
1.54669
1.54731
1.54725
1.54695
1.54616
1.54524
1.54516
1.54536
1.54564
1.54607
1.54642
1.54654
1.5465
1.40175
1.24291
1.12098
0.99651
0.973417
1.00378
1.01038
1.01476
1.04446
1.08332
1.09117
1.08969
1.09419
1.1063
1.11337
1.11658
1.12265
1.12362
1.12166
1.11814
1.11745
1.11748
1.1145
1.11183
1.11252
1.11273
1.11193
1.1094
1.10649
1.1051
1.10493
1.10451
1.10424
1.10416
1.10412
1.10408
1.10381
1.10362
1.10364
1.10395
1.10486
1.10511
1.10502
1.10472
1.10408
1.10304
1.10161
1.10164
1.1048
1.16416
1.31918
1.56569
1.81458
2.04744
2.24584
2.24636
2.18243
2.10579
2.07902
2.07177
2.06382
2.05503
2.05093
2.04409
2.03413
2.01603
1.98766
1.96996
1.96264
1.95692
1.95066
1.94203
1.93155
1.91534
1.89014
1.87336
1.86757
1.86462
1.8634
1.85841
1.8517
1.84005
1.81881
1.79868
1.78832
1.78109
1.77465
1.76945
1.76444
1.75624
1.74122
1.73109
1.72632
1.72143
1.71588
1.70851
1.69679
1.67833
1.66255
1.65528
1.65061
1.64629
1.64224
1.63855
1.63443
1.62937
1.61975
1.60355
1.59023
1.58343
1.57857
1.57387
1.56905
1.56418
1.55906
1.55267
1.54377
1.53482
1.52936
1.52539
1.52185
1.51771
1.51047
1.49618
1.4838
1.48007
1.47771
1.47551
1.47325
1.47053
1.46735
1.46235
1.45281
1.43935
1.42874
1.42328
1.42048
1.41855
1.41629
1.41291
1.40802
1.40176
1.39424
1.38891
1.39203
1.41302
1.47408
1.5836
1.70127
1.78923
1.86703
1.91516
1.92461
1.91662
1.89535
1.86763
1.85403
1.85174
1.85071
1.85148
1.85131
1.84932
1.84576
1.8365
1.81891
1.8095
1.80695
1.80508
1.80523
1.80525
1.80213
1.7983
1.79191
1.78076
1.77292
1.77014
1.76851
1.76719
1.76568
1.76344
1.75996
1.75347
1.74165
1.7312
1.72693
1.72437
1.72266
1.72176
1.72072
1.71927
1.71758
1.70972
1.50173
1.41426
1.33976
1.25163
1.16446
1.1371
1.10737
1.07365
1.07749
1.07617
1.05976
1.0547
1.05845
1.0669
1.07606
1.08129
1.08848
1.09472
1.09385
1.0938
1.09559
1.10021
1.10219
1.10401
1.10565
1.1056
1.10466
1.1022
1.10073
1.10057
1.10049
1.10004
1.10007
1.10021
1.10035
1.10036
1.10009
1.09978
1.09972
1.09983
1.10019
1.10027
1.10025
1.1001
1.09954
1.09784
1.09799
1.10212
1.16184
1.36272
1.51692
1.56761
1.66198
1.76958
1.96251
2.09094
2.13515
2.1228
2.10394
2.08159
2.06843
2.06059
2.05551
2.04759
2.03603
2.02006
1.9958
1.97309
1.96276
1.95672
1.95231
1.9453
1.93584
1.92249
1.90313
1.88273
1.87112
1.86574
1.86134
1.85585
1.84846
1.83855
1.82383
1.80616
1.79332
1.78639
1.78153
1.77512
1.76575
1.75475
1.74391
1.73449
1.72663
1.7207
1.71563
1.70994
1.69997
1.68309
1.6668
1.65893
1.65426
1.65021
1.64576
1.64077
1.63557
1.62988
1.62066
1.60609
1.59332
1.58611
1.5813
1.57696
1.57248
1.56776
1.56231
1.55402
1.54166
1.53479
1.53228
1.52926
1.52555
1.52127
1.51422
1.50162
1.48993
1.48538
1.48254
1.47975
1.47679
1.47367
1.47012
1.46498
1.45531
1.44222
1.43283
1.42742
1.42291
1.41901
1.41661
1.41482
1.41176
1.4058
1.40241
1.40834
1.43638
1.49456
1.5662
1.61613
1.66393
1.72399
1.7762
1.82727
1.85351
1.87668
1.8793
1.87229
1.86263
1.85791
1.85575
1.85579
1.8554
1.85257
1.84778
1.83817
1.82227
1.81235
1.80959
1.80807
1.80823
1.80738
1.80407
1.80012
1.79391
1.78346
1.77603
1.77354
1.77174
1.77013
1.76842
1.76596
1.76211
1.7554
1.74445
1.73458
1.73008
1.72704
1.7241
1.72155
1.71976
1.71808
1.71627
1.70935
1.539
1.49696
1.43359
1.36388
1.28339
1.2265
1.18163
1.12319
1.0872
1.07458
1.05359
1.0413
1.04368
1.04953
1.05134
1.05225
1.05645
1.063
1.06584
1.06773
1.07182
1.0787
1.08309
1.08579
1.08802
1.08936
1.08948
1.08948
1.08938
1.08966
1.08992
1.09026
1.09052
1.09041
1.09023
1.08972
1.08935
1.08926
1.08931
1.08975
1.09028
1.09065
1.09074
1.09059
1.08978
1.09079
1.09936
1.15617
1.38159
1.54665
1.59908
1.59881
1.60191
1.61331
1.69697
1.90996
2.11287
2.15992
2.14021
2.0978
2.07138
2.06646
2.05989
2.04817
2.03478
2.02368
2.00942
1.98834
1.96744
1.95603
1.94853
1.94224
1.93504
1.92669
1.91652
1.90173
1.88358
1.87004
1.86193
1.85373
1.84446
1.83421
1.82439
1.81528
1.80598
1.7964
1.78573
1.7749
1.76379
1.75475
1.74886
1.74162
1.73248
1.72375
1.71495
1.70574
1.6956
1.68316
1.67068
1.66345
1.65986
1.65716
1.65285
1.64739
1.64018
1.62947
1.61594
1.6036
1.59524
1.58901
1.58369
1.57985
1.5769
1.57376
1.56726
1.55556
1.54433
1.53735
1.53168
1.5268
1.52213
1.51701
1.51067
1.50251
1.49373
1.48445
1.4779
1.4747
1.47178
1.4684
1.46434
1.45875
1.44977
1.43949
1.4335
1.42978
1.42616
1.42234
1.41778
1.41374
1.40976
1.40857
1.41873
1.46661
1.53613
1.5988
1.63902
1.64029
1.64058
1.65432
1.68604
1.73699
1.79677
1.84862
1.87545
1.87754
1.87293
1.86579
1.85902
1.85662
1.85564
1.85154
1.84567
1.83762
1.82721
1.81979
1.81559
1.81123
1.80729
1.80444
1.80139
1.79758
1.7922
1.78488
1.779
1.77481
1.77166
1.76915
1.767
1.76443
1.76055
1.75437
1.74673
1.73948
1.73205
1.72567
1.72294
1.72136
1.71971
1.71747
1.71437
1.70644
1.55634
1.53784
1.49764
1.44397
1.3763
1.31657
1.26698
1.20866
1.15957
1.13905
1.11244
1.07594
1.07199
1.06643
1.05344
1.04765
1.04781
1.04571
1.04442
1.04534
1.04928
1.05875
1.06684
1.07065
1.07327
1.07561
1.07696
1.07763
1.07838
1.07961
1.08132
1.08281
1.08301
1.08287
1.08236
1.08142
1.08107
1.08126
1.08196
1.08271
1.08269
1.08268
1.08251
1.08202
1.08332
1.10522
1.19348
1.354
1.56072
1.61638
1.62039
1.61713
1.61003
1.59393
1.59586
1.6487
1.84596
2.07823
2.12657
2.10881
2.0958
2.08528
2.06896
2.05197
2.04078
2.03287
2.02362
2.00661
1.98216
1.96235
1.95264
1.94581
1.94129
1.93637
1.92941
1.91881
1.89983
1.87615
1.86059
1.85102
1.84332
1.83668
1.83159
1.82736
1.8208
1.80823
1.79011
1.7758
1.76678
1.75947
1.75106
1.74202
1.73377
1.7255
1.7161
1.70555
1.69544
1.68725
1.68074
1.67451
1.66671
1.6579
1.65134
1.64561
1.63787
1.62561
1.61336
1.60539
1.60012
1.59564
1.59152
1.58678
1.58118
1.57408
1.56533
1.55339
1.54246
1.53632
1.53192
1.52768
1.52252
1.51622
1.51159
1.50804
1.50107
1.49036
1.48111
1.47584
1.4726
1.46949
1.46523
1.45735
1.44705
1.44031
1.43681
1.43357
1.42998
1.42596
1.42207
1.41593
1.41744
1.43712
1.49913
1.58286
1.63109
1.65086
1.65808
1.65612
1.65051
1.64789
1.64953
1.66299
1.69874
1.75773
1.82092
1.85877
1.8714
1.87104
1.86998
1.86793
1.86179
1.85325
1.84653
1.84058
1.83512
1.83019
1.82497
1.81897
1.81332
1.80914
1.8049
1.79953
1.79397
1.78928
1.78439
1.77988
1.77617
1.77321
1.7703
1.76699
1.76269
1.75768
1.75222
1.74554
1.73756
1.73057
1.72603
1.7238
1.72178
1.7188
1.71415
1.70609
1.5671
1.56031
1.53924
1.50329
1.44794
1.39211
1.34526
1.28377
1.23249
1.20374
1.17491
1.13045
1.1099
1.09371
1.07144
1.05199
1.05067
1.04672
1.04255
1.04366
1.04765
1.05215
1.05714
1.05993
1.06148
1.06429
1.0665
1.06891
1.07142
1.07335
1.07617
1.07787
1.07831
1.07814
1.07757
1.07745
1.078
1.0793
1.08089
1.08118
1.08095
1.08042
1.0791
1.0794
1.10614
1.26885
1.42257
1.53934
1.617
1.63466
1.63219
1.62607
1.62151
1.60553
1.59092
1.59149
1.61814
1.77066
1.9892
2.11238
2.11928
2.10348
2.07474
2.05583
2.04736
2.03983
2.02848
2.01478
1.99563
1.97422
1.95911
1.95087
1.94515
1.94036
1.93275
1.92428
1.90958
1.88354
1.86187
1.85328
1.8475
1.84351
1.83948
1.833
1.82406
1.8095
1.79094
1.77938
1.77239
1.76549
1.75772
1.7496
1.74037
1.72827
1.71584
1.70635
1.6994
1.6936
1.68865
1.68276
1.6747
1.66593
1.65675
1.64591
1.63416
1.62379
1.61588
1.60925
1.60234
1.59768
1.5955
1.59339
1.58822
1.57927
1.5661
1.55361
1.54539
1.53931
1.53333
1.52744
1.52213
1.51782
1.51333
1.50741
1.50104
1.49351
1.48522
1.47952
1.47465
1.46951
1.46411
1.45711
1.44933
1.44433
1.44108
1.43781
1.43386
1.43158
1.42651
1.43231
1.46762
1.53068
1.61304
1.64855
1.66534
1.6754
1.67448
1.67193
1.66621
1.65683
1.64438
1.64229
1.64675
1.668
1.7229
1.7876
1.84819
1.87517
1.8797
1.87558
1.86351
1.85239
1.84873
1.84584
1.84107
1.83631
1.83224
1.82879
1.824
1.81651
1.80862
1.80118
1.79462
1.78972
1.78646
1.78396
1.78177
1.77945
1.77606
1.77083
1.76449
1.75864
1.75374
1.74879
1.74354
1.73787
1.73194
1.72623
1.72175
1.71758
1.71415
1.7095
1.57522
1.57115
1.56286
1.54275
1.50527
1.45528
1.40981
1.35753
1.30645
1.27169
1.23682
1.19233
1.16651
1.14701
1.1206
1.09107
1.08462
1.07504
1.06075
1.05861
1.05937
1.05748
1.05425
1.05347
1.05272
1.05323
1.05609
1.06049
1.06608
1.07091
1.07446
1.07658
1.07736
1.07729
1.07703
1.07724
1.07827
1.08018
1.08144
1.08155
1.08133
1.08018
1.08094
1.10577
1.28282
1.5017
1.57748
1.61405
1.63404
1.6321
1.63256
1.63026
1.62679
1.6146
1.59383
1.58366
1.58316
1.59437
1.68936
1.90315
2.0661
2.08563
2.07652
2.06486
2.05421
2.04232
2.02944
2.01769
2.00339
1.98513
1.96689
1.95324
1.94502
1.93958
1.93388
1.92585
1.91346
1.89145
1.86891
1.85799
1.85242
1.84832
1.84356
1.83693
1.82722
1.80965
1.79029
1.7819
1.77649
1.77123
1.76591
1.75892
1.74618
1.72678
1.71255
1.70664
1.70332
1.70213
1.69909
1.69376
1.68637
1.67299
1.65496
1.6413
1.63334
1.62704
1.62085
1.61451
1.60945
1.60494
1.59827
1.59035
1.58402
1.57622
1.56621
1.55749
1.55111
1.54426
1.53632
1.53016
1.52557
1.52041
1.51463
1.50874
1.50281
1.49718
1.49196
1.48438
1.47489
1.46629
1.46088
1.45718
1.45465
1.45171
1.44864
1.4457
1.44301
1.44245
1.45419
1.50762
1.57835
1.62818
1.66802
1.68251
1.68866
1.68821
1.68382
1.67687
1.66849
1.65805
1.64762
1.64276
1.64247
1.64344
1.65455
1.69104
1.75214
1.82053
1.85848
1.86438
1.85945
1.85584
1.85381
1.85164
1.84698
1.84252
1.84
1.83664
1.82951
1.81888
1.80862
1.80156
1.79628
1.79253
1.79006
1.78847
1.78718
1.78446
1.77851
1.77128
1.76532
1.76069
1.75668
1.75317
1.74972
1.74472
1.73587
1.72582
1.71988
1.71713
1.71575
1.71315
1.57975
1.57769
1.57303
1.56396
1.54198
1.50782
1.46727
1.4157
1.37208
1.33504
1.29668
1.25288
1.22425
1.19835
1.16745
1.13763
1.12436
1.11124
1.08747
1.07507
1.07232
1.06591
1.05974
1.05892
1.05735
1.05612
1.05647
1.05828
1.06306
1.06816
1.07084
1.07294
1.07446
1.07573
1.07724
1.07857
1.08021
1.08219
1.08281
1.08308
1.08285
1.0863
1.12181
1.2831
1.53587
1.61499
1.63389
1.63664
1.63304
1.626
1.62507
1.62724
1.62691
1.61906
1.59941
1.58026
1.57207
1.568
1.57149
1.62257
1.79243
1.97415
2.05509
2.06314
2.05039
2.03345
2.02214
2.01358
2.00421
1.99097
1.97252