/*--------------------------------*- C++ -*----------------------------------*\
  =========                 |
  \\      /  F ield         | OpenFOAM: The Open Source CFD Toolbox
   \\    /   O peration     | Website:  https://openfoam.org
    \\  /    A nd           | Version:  7
     \\/     M anipulation  |
\*---------------------------------------------------------------------------*/
FoamFile
{
    version     2.0;
    format      ascii;
    class       volVectorField;
    location    "3.5";
    object      U;
}
// * * * * * * * * * * * * * * * * * * * * * * * * * * * * * * * * * * * * * //

dimensions      [0 1 -1 0 0 0 0];

internalField   nonuniform List<vector> 
18432
(
(3 -3.55349e-17 0)
(3 -5.64115e-17 0)
(3 -1.22341e-16 0)
(3 -7.50244e-17 0)
(3 1.15225e-17 0)
(3 2.31497e-16 0)
(3 3.31092e-16 0)
(3 3.12543e-16 0)
(3 1.08617e-16 0)
(3 -2.05704e-17 0)
(3 7.81574e-17 0)
(3 2.41747e-17 0)
(3 1.57681e-17 0)
(3 -8.10276e-17 0)
(3 -2.06589e-16 0)
(3 -3.87779e-16 0)
(3 -6.00768e-16 0)
(3 -8.49614e-16 0)
(3 -1.17746e-15 0)
(3 4.63393e-16 0)
(3 8.72512e-16 0)
(3 1.45756e-15 0)
(3 1.00496e-15 0)
(3 4.20053e-16 0)
(3 -8.28997e-17 0)
(3 -1.02925e-15 0)
(3 -9.77317e-16 0)
(3 -9.52693e-16 0)
(3 3.53724e-17 0)
(3 -7.18349e-17 0)
(3 -2.99669e-16 0)
(3 9.60549e-17 0)
(3 8.66701e-16 0)
(3 9.2942e-16 0)
(3 1.09027e-15 0)
(3 1.06529e-15 0)
(3 7.77094e-16 0)
(3 8.87506e-16 0)
(3 9.03898e-16 0)
(3 3.05781e-16 0)
(3 1.72202e-16 0)
(3 -2.87741e-16 0)
(3 -3.53071e-16 0)
(3 -7.28413e-17 0)
(3 -2.75849e-16 0)
(3 -2.89467e-16 0)
(3 -5.21345e-16 0)
(3 -6.6699e-16 0)
(3 -4.61162e-17 0)
(3 2.18148e-16 0)
(3 2.74705e-16 0)
(3 -8.77637e-18 0)
(3 1.26939e-16 0)
(3 1.89954e-16 0)
(3 1.0964e-16 0)
(3 3.95666e-17 0)
(3 -5.69469e-16 0)
(3 -4.66348e-16 0)
(3 -3.56481e-16 0)
(3 -2.97702e-16 0)
(3 -2.64421e-16 0)
(3 -3.52205e-16 0)
(3 1.00962e-16 0)
(3 1.54194e-16 0)
(3 -4.1116e-16 0)
(3 -8.96668e-16 0)
(3 -7.45584e-16 0)
(3 1.09427e-15 0)
(3 1.8449e-15 0)
(3 2.11751e-15 0)
(3 1.15731e-15 0)
(3 5.62391e-16 0)
(3 1.65737e-16 0)
(3 -1.43675e-18 0)
(3 1.47674e-16 0)
(3 -8.76128e-17 0)
(3 1.69569e-15 0)
(3 1.13524e-15 0)
(3 2.22965e-16 0)
(3 -9.11074e-16 0)
(3 -2.09762e-16 0)
(3 3.38529e-16 0)
(3 4.89393e-16 0)
(3 1.05856e-15 0)
(3 2.06921e-16 0)
(3 2.45997e-16 0)
(3 3.33678e-16 0)
(3 4.63581e-16 0)
(3 7.4845e-16 0)
(3 1.06718e-15 0)
(3 8.34662e-16 0)
(3 3.42961e-16 0)
(3 -7.30407e-16 0)
(3 -1.02164e-15 0)
(3 -1.44905e-15 0)
(3 -1.43589e-15 0)
(3 -5.01684e-17 0)
(3 1.29266e-16 0)
(3 6.87858e-17 0)
(3 9.18367e-17 0)
(3 3.01847e-16 0)
(3 2.79143e-16 0)
(3 4.11196e-17 0)
(3 -2.83037e-16 0)
(3 -2.15015e-16 0)
(3 -2.77009e-16 0)
(3 -4.5741e-16 0)
(3 -5.53627e-16 0)
(3 -2.95e-16 0)
(3 -2.94262e-16 0)
(3 -2.58882e-16 0)
(3 -3.28314e-16 0)
(3 -5.84222e-16 0)
(3 -6.63445e-16 0)
(3 -6.36584e-16 0)
(3 -4.63473e-16 0)
(3 3.78879e-16 0)
(3 6.96669e-16 0)
(3 7.59442e-16 0)
(3 8.66137e-16 0)
(3 1.59353e-17 0)
(3 5.97937e-17 0)
(3 -1.22612e-16 0)
(3 8.0033e-16 0)
(3 1.72571e-15 0)
(3 1.75231e-15 0)
(3 1.2429e-15 0)
(3 -4.48404e-17 0)
(3 -8.92881e-16 0)
(3 -5.63225e-16 0)
(3 -7.78199e-16 0)
(3 -9.3189e-16 0)
(3 -1.06646e-15 0)
(3 -1.04155e-15 0)
(3 -3.72716e-16 0)
(3 1.6907e-15 0)
(3 2.15318e-15 0)
(3 5.61529e-16 0)
(3 -6.34074e-16 0)
(3 -1.05545e-15 0)
(3 -9.79473e-16 0)
(3 -8.04471e-16 0)
(3 -8.90251e-16 0)
(3 -9.69458e-16 0)
(3 1.35261e-16 0)
(3 -3.01703e-16 0)
(3 -9.41459e-16 0)
(3 -7.69024e-16 0)
(3 -8.01258e-16 0)
(3 -3.45355e-16 0)
(3 1.76372e-16 0)
(3 4.50978e-16 0)
(3 1.22633e-15 0)
(3 1.69578e-15 0)
(3 1.47654e-15 0)
(3 4.06709e-16 0)
(3 3.83717e-16 0)
(3 2.2358e-16 0)
(3 -6.62916e-17 0)
(3 -2.06853e-16 0)
(3 -2.70835e-17 0)
(3 -2.89245e-17 0)
(3 -1.1315e-17 0)
(3 4.00002e-17 0)
(3 3.11381e-16 0)
(3 3.56126e-16 0)
(3 3.12013e-16 0)
(3 2.70128e-16 0)
(3 2.31536e-16 0)
(3 -1.26436e-16 0)
(3 6.26333e-16 0)
(3 1.69779e-15 0)
(3 2.45437e-15 0)
(3 2.33364e-15 0)
(3 2.80224e-15 0)
(3 3.06081e-15 0)
(3 9.56352e-17 0)
(3 -4.73917e-16 0)
(3 -8.17038e-16 0)
(3 -2.96879e-15 0)
(3 -2.99323e-15 0)
(3 -2.88775e-15 0)
(3 -2.27016e-15 0)
(3 -1.47381e-15 0)
(3 -6.87732e-16 0)
(3 -1.30416e-15 0)
(3 -1.3763e-15 0)
(3 -6.96005e-16 0)
(3 1.9129e-16 0)
(3 9.39614e-16 0)
(3 8.14446e-16 0)
(3 5.73022e-16 0)
(3 -8.79375e-18 0)
(3 -2.16198e-16 0)
(3 -3.04836e-16 0)
(3 -6.67475e-16 0)
(3 -7.00797e-16 0)
(3 -5.91954e-16 0)
(3 -5.31757e-16 0)
(3 1.58129e-16 0)
(3 5.55505e-16 0)
(3 6.92887e-16 0)
(3 6.72828e-16 0)
(3 5.38162e-16 0)
(3 4.50495e-16 0)
(3 6.55177e-16 0)
(3 4.28463e-16 0)
(3 6.80908e-17 0)
(3 9.06059e-18 0)
(3 1.81713e-17 0)
(3 1.46586e-16 0)
(3 8.64413e-16 0)
(3 1.64071e-15 0)
(3 1.15256e-15 0)
(3 7.8917e-16 0)
(3 8.74522e-16 0)
(3 1.28327e-15 0)
(3 1.48818e-15 0)
(3 2.84264e-15 0)
(3 3.772e-15 0)
(3 2.86653e-15 0)
(3 1.75672e-15 0)
(3 1.49169e-15 0)
(3 1.95272e-15 0)
(3 1.31545e-15 0)
(3 -3.36179e-16 0)
(3 -8.88224e-16 0)
(3 -1.45125e-15 0)
(3 -1.91486e-15 0)
(3 -2.46737e-15 0)
(3 -3.08894e-15 0)
(3 -5.26518e-15 0)
(3 -6.18662e-15 0)
(3 -2.57908e-15 0)
(3 -7.86072e-16 0)
(3 -1.94901e-16 0)
(3 -5.63288e-17 0)
(3 5.30044e-17 0)
(3 6.61624e-16 0)
(3 1.02609e-15 0)
(3 -7.18184e-17 0)
(3 3.72023e-17 0)
(3 4.73366e-16 0)
(3 2.11988e-16 0)
(3 -3.02332e-17 0)
(3 -4.93167e-16 0)
(3 -5.57926e-16 0)
(3 -3.62196e-16 0)
(3 -9.04039e-16 0)
(3 -1.19081e-15 0)
(3 -7.48888e-16 0)
(3 -8.40127e-17 0)
(3 5.75715e-16 0)
(3 8.608e-16 0)
(3 5.81659e-16 0)
(3 5.70479e-16 0)
(3 5.48626e-16 0)
(3 4.68294e-16 0)
(3 1.00052e-15 0)
(3 1.71304e-15 0)
(3 1.38514e-15 0)
(3 5.0938e-16 0)
(3 4.34322e-16 0)
(3 8.42375e-16 0)
(3 1.19482e-15 0)
(3 1.85821e-15 0)
(3 2.71203e-15 0)
(3 2.4118e-15 0)
(3 1.32905e-15 0)
(3 1.77345e-15 0)
(3 2.45897e-15 0)
(3 2.06113e-15 0)
(3 1.07426e-15 0)
(3 5.92076e-16 0)
(3 8.65001e-16 0)
(3 1.23252e-15 0)
(3 -3.43305e-16 0)
(3 -1.61919e-15 0)
(3 -4.41521e-15 0)
(3 -6.25194e-15 0)
(3 -7.00858e-15 0)
(3 -4.33109e-15 0)
(3 -1.23945e-15 0)
(3 3.41938e-16 0)
(3 3.07132e-16 0)
(3 1.5326e-16 0)
(3 6.23022e-17 0)
(3 8.8692e-16 0)
(3 7.42013e-17 0)
(3 3.02695e-16 0)
(3 4.74915e-16 0)
(3 4.92114e-16 0)
(3 -2.99039e-18 0)
(3 -3.96714e-16 0)
(3 -1.31917e-16 0)
(3 -1.09504e-16 0)
(3 7.63986e-17 0)
(3 1.35309e-16 0)
(3 3.71746e-16 0)
(3 3.90223e-16 0)
(3 4.17253e-16 0)
(3 2.72924e-17 0)
(3 -9.22186e-17 0)
(3 3.56847e-16 0)
(3 6.78602e-16 0)
(3 7.70578e-16 0)
(3 2.23308e-15 0)
(3 2.26667e-15 0)
(3 1.04745e-15 0)
(3 9.05956e-16 0)
(3 1.02382e-15 0)
(3 1.13506e-15 0)
(3 1.32513e-15 0)
(3 1.7809e-15 0)
(3 1.6992e-15 0)
(3 1.07182e-15 0)
(3 7.36101e-16 0)
(3 1.17111e-15 0)
(3 1.78315e-15 0)
(3 1.74138e-15 0)
(3 1.85394e-15 0)
(3 7.21639e-16 0)
(3 9.56922e-16 0)
(3 4.2657e-16 0)
(3 -1.57293e-15 0)
(3 -2.88271e-15 0)
(3 -3.63518e-15 0)
(3 -4.06005e-15 0)
(3 -3.73811e-15 0)
(3 -3.42764e-15 0)
(3 -2.08687e-15 0)
(3 -1.10836e-15 0)
(3 -4.06167e-16 0)
(3 3.13822e-16 0)
(3 2.37044e-16 0)
(3 3.2767e-16 0)
(3 2.77912e-16 0)
(3 1.57682e-16 0)
(3 2.30319e-16 0)
(3 4.69601e-16 0)
(3 4.02216e-16 0)
(3 4.22351e-16 0)
(3 1.82692e-16 0)
(3 1.9782e-16 0)
(3 9.40846e-16 0)
(3 1.53476e-15 0)
(3 8.00055e-16 0)
(3 3.80838e-16 0)
(3 -3.04505e-16 0)
(3 -4.58211e-16 0)
(3 -1.22693e-16 0)
(3 3.80523e-16 0)
(3 5.67465e-16 0)
(3 8.47817e-16 0)
(3 1.56296e-15 0)
(3 7.99756e-16 0)
(3 8.40336e-16 0)
(3 1.64941e-15 0)
(3 3.15244e-15 0)
(3 3.04392e-15 0)
(3 2.71755e-15 0)
(3 1.66786e-15 0)
(3 4.86393e-16 0)
(3 7.482e-17 0)
(3 1.04137e-15 0)
(3 1.21701e-15 0)
(3 8.58883e-16 0)
(3 9.40944e-16 0)
(3 9.50034e-16 0)
(3 -5.32159e-16 0)
(3 -1.38821e-15 0)
(3 -1.51358e-15 0)
(3 -4.48784e-16 0)
(3 -2.13141e-16 0)
(3 -2.66574e-16 0)
(3 -1.45175e-16 0)
(3 -1.59812e-16 0)
(3 4.20761e-17 0)
(3 1.95715e-16 0)
(3 3.92046e-16 0)
(3 2.17706e-16 0)
(3 7.16352e-16 0)
(3 1.47841e-15 0)
(3 1.56332e-15 0)
(3 4.86122e-17 0)
(3 -1.19594e-16 0)
(3 -3.22279e-16 0)
(3 -5.52213e-17 0)
(3 1.91591e-16 0)
(3 2.13863e-16 0)
(3 1.86465e-16 0)
(3 1.03614e-16 0)
(3 -3.26678e-16 0)
(3 -2.28895e-16 0)
(3 -2.94659e-16 0)
(3 -4.67033e-16 0)
(3 -7.95629e-16 0)
(3 -5.82607e-16 0)
(3 1.41056e-16 0)
(3 3.5714e-16 0)
(3 3.42784e-16 0)
(3 9.53914e-17 0)
(3 -1.04649e-15 0)
(3 -1.36762e-15 0)
(3 7.02883e-16 0)
(3 7.43226e-16 0)
(3 8.49256e-16 0)
(3 1.19084e-15 0)
(3 1.43857e-15 0)
(3 1.24975e-15 0)
(3 -2.18739e-16 0)
(3 -3.43284e-17 0)
(3 2.18203e-16 0)
(3 3.37467e-16 0)
(3 4.62223e-16 0)
(3 4.24678e-16 0)
(3 4.04249e-16 0)
(3 -1.16385e-15 0)
(3 -2.69714e-15 0)
(3 -2.84024e-15 0)
(3 -7.70653e-16 0)
(3 6.41781e-16 0)
(3 8.98496e-16 0)
(3 9.12693e-16 0)
(3 7.55316e-16 0)
(3 1.48385e-15 0)
(3 1.41353e-15 0)
(3 8.21065e-16 0)
(3 1.78917e-16 0)
(3 -3.65578e-17 0)
(3 2.37204e-16 0)
(3 1.33913e-16 0)
(3 -3.65412e-16 0)
(3 -3.44724e-16 0)
(3 -1.03323e-16 0)
(3 -8.87273e-17 0)
(3 2.3094e-16 0)
(3 4.58209e-16 0)
(3 5.98638e-17 0)
(3 -5.96317e-16 0)
(3 -1.48141e-15 0)
(3 -1.98855e-15 0)
(3 -1.39822e-15 0)
(3 -1.14675e-15 0)
(3 -9.31698e-16 0)
(3 -1.05393e-15 0)
(3 -1.48164e-15 0)
(3 -1.67434e-15 0)
(3 -1.63223e-15 0)
(3 -1.9311e-15 0)
(3 -2.98229e-15 0)
(3 -2.51381e-15 0)
(3 -1.10686e-15 0)
(3 -9.00417e-16 0)
(3 -1.60778e-15 0)
(3 -1.50534e-15 0)
(3 -1.20059e-15 0)
(3 -3.6805e-16 0)
(3 9.34165e-17 0)
(3 5.89318e-17 0)
(3 -1.8447e-16 0)
(3 -2.7427e-16 0)
(3 -2.63094e-16 0)
(3 -6.13649e-16 0)
(3 -8.28177e-16 0)
(3 -7.59256e-16 0)
(3 -1.21536e-15 0)
(3 -1.02443e-15 0)
(3 -6.86531e-16 0)
(3 -4.33562e-16 0)
(3 9.75118e-16 0)
(3 1.1862e-15 0)
(3 9.51212e-16 0)
(3 3.31171e-16 0)
(3 -3.03007e-16 0)
(3 -1.26197e-15 0)
(3 -1.83514e-15 0)
(3 -1.75053e-15 0)
(3 -8.29799e-16 0)
(3 -5.95525e-16 0)
(3 -8.14511e-18 0)
(3 -2.66506e-16 0)
(3 1.57392e-17 0)
(3 -3.65547e-17 0)
(3 1.32471e-16 0)
(3 1.94125e-16 0)
(3 -4.84421e-16 0)
(3 -1.32677e-15 0)
(3 -1.95233e-15 0)
(3 -2.1875e-15 0)
(3 -1.63432e-15 0)
(3 -9.40126e-16 0)
(3 -4.68646e-16 0)
(3 -6.19834e-16 0)
(3 -1.25316e-15 0)
(3 -1.59248e-15 0)
(3 -1.50201e-15 0)
(3 -1.53532e-15 0)
(3 -1.66247e-15 0)
(3 -1.75767e-15 0)
(3 -2.09588e-15 0)
(3 -1.52156e-15 0)
(3 -1.49673e-15 0)
(3 -1.56848e-15 0)
(3 -1.23694e-15 0)
(3 -1.03504e-15 0)
(3 -9.73852e-16 0)
(3 -1.29071e-15 0)
(3 -1.94682e-15 0)
(3 -1.61619e-15 0)
(3 -9.12476e-16 0)
(3 -1.72072e-15 0)
(3 -2.1018e-15 0)
(3 -6.38354e-16 0)
(3 -1.55435e-16 0)
(3 1.63273e-16 0)
(3 3.85342e-16 0)
(3 3.1548e-16 0)
(3 1.06207e-16 0)
(3 2.94783e-16 0)
(3 4.19426e-16 0)
(3 4.99543e-16 0)
(3 -6.90591e-16 0)
(3 -1.75244e-15 0)
(3 -1.97113e-15 0)
(3 -1.3753e-15 0)
(3 -1.96478e-16 0)
(3 -4.02656e-16 0)
(3 -7.88033e-17 0)
(3 -1.58888e-16 0)
(3 -3.9835e-16 0)
(3 -4.74935e-16 0)
(3 -7.12961e-16 0)
(3 -1.08528e-15 0)
(3 -1.00575e-15 0)
(3 -1.31097e-15 0)
(3 -2.42609e-15 0)
(3 -2.20788e-15 0)
(3 -8.53283e-16 0)
(3 3.34853e-17 0)
(3 1.13001e-16 0)
(3 1.76739e-16 0)
(3 5.37107e-16 0)
(3 -5.10899e-17 0)
(3 -5.01795e-16 0)
(3 -4.80263e-16 0)
(3 -1.10038e-16 0)
(3 -8.21525e-17 0)
(3 -1.117e-15 0)
(3 -1.08749e-15 0)
(3 -2.57035e-17 0)
(3 9.27583e-16 0)
(3 1.15928e-15 0)
(3 -7.23092e-16 0)
(3 -1.89466e-15 0)
(3 -1.89692e-15 0)
(3 -2.21511e-15 0)
(3 -1.98875e-15 0)
(3 -7.25415e-16 0)
(3 -4.48086e-16 0)
(3 -6.61255e-17 0)
(3 2.72009e-16 0)
(3 9.86214e-16 0)
(3 7.32151e-16 0)
(3 4.04913e-16 0)
(3 2.28648e-16 0)
(3 -5.02463e-16 0)
(3 -9.63223e-16 0)
(3 -5.07384e-16 0)
(3 -1.89531e-16 0)
(3 -3.82675e-16 0)
(3 -1.1212e-15 0)
(3 -1.17164e-15 0)
(3 -9.2803e-16 0)
(3 -6.39476e-16 0)
(3 8.78395e-17 0)
(3 -2.3832e-18 0)
(3 1.96433e-16 0)
(3 7.44768e-17 0)
(3 -4.44146e-17 0)
(3 -4.6501e-16 0)
(3 -6.06545e-16 0)
(3 -2.9378e-16 0)
(3 9.61808e-17 0)
(3 4.16606e-17 0)
(3 1.38466e-16 0)
(3 1.62723e-16 0)
(3 3.38665e-16 0)
(3 5.58084e-16 0)
(3 7.91536e-16 0)
(3 8.5376e-16 0)
(3 4.179e-16 0)
(3 6.67768e-16 0)
(3 1.4418e-15 0)
(3 1.51788e-15 0)
(3 1.60282e-15 0)
(3 1.75541e-16 0)
(3 7.99068e-17 0)
(3 9.85799e-16 0)
(3 1.97736e-15 0)
(3 1.63277e-15 0)
(3 2.96167e-16 0)
(3 -6.96514e-16 0)
(3 -1.23768e-15 0)
(3 -1.03987e-15 0)
(3 -8.11891e-16 0)
(3 -6.60913e-16 0)
(3 9.19325e-17 0)
(3 8.22281e-16 0)
(3 1.293e-16 0)
(3 1.47296e-16 0)
(3 7.2592e-16 0)
(3 6.74717e-16 0)
(3 3.2399e-16 0)
(3 1.05165e-18 0)
(3 -8.45678e-16 0)
(3 -6.47337e-16 0)
(3 -7.37364e-16 0)
(3 -6.48226e-16 0)
(3 -2.35771e-16 0)
(3 -1.77274e-17 0)
(3 -5.3851e-17 0)
(3 -3.99819e-16 0)
(3 6.28221e-16 0)
(3 2.05159e-16 0)
(3 1.57525e-16 0)
(3 2.97093e-16 0)
(3 3.87752e-16 0)
(3 5.16545e-16 0)
(3 8.15067e-16 0)
(3 5.78908e-16 0)
(3 4.06881e-16 0)
(3 8.35246e-16 0)
(3 9.20889e-16 0)
(3 2.24035e-16 0)
(3 -1.08649e-16 0)
(3 7.27189e-17 0)
(3 5.14277e-16 0)
(3 5.19123e-16 0)
(3 9.76194e-16 0)
(3 1.46648e-15 0)
(3 2.33851e-15 0)
(3 1.5405e-15 0)
(3 9.45601e-16 0)
(3 1.6829e-15 0)
(3 1.26545e-15 0)
(3 1.05576e-15 0)
(3 1.08455e-15 0)
(3 8.38144e-16 0)
(3 1.27625e-15 0)
(3 1.11868e-15 0)
(3 -3.48962e-17 0)
(3 -6.88019e-16 0)
(3 -8.44383e-16 0)
(3 -9.07687e-16 0)
(3 -7.08943e-16 0)
(3 -3.89561e-16 0)
(3 -9.4777e-16 0)
(3 -1.59884e-15 0)
(3 -1.72621e-15 0)
(3 -1.54818e-15 0)
(3 -1.0172e-15 0)
(3 -7.68746e-16 0)
(3 -5.60037e-16 0)
(3 -8.54754e-16 0)
(3 -7.226e-16 0)
(3 -3.78286e-16 0)
(3 1.71673e-17 0)
(3 -1.4122e-16 0)
(3 -7.16291e-16 0)
(3 -1.01299e-15 0)
(3 -4.32681e-16 0)
(3 -1.53668e-16 0)
(3 -1.55811e-16 0)
(3 9.65474e-17 0)
(3 7.94987e-16 0)
(3 1.12055e-15 0)
(3 1.05709e-15 0)
(3 7.10633e-16 0)
(3 5.17432e-16 0)
(3 7.97081e-16 0)
(3 9.1514e-16 0)
(3 7.70964e-16 0)
(3 3.08822e-16 0)
(3 1.35742e-16 0)
(3 -6.20698e-17 0)
(3 -4.50916e-16 0)
(3 -1.07085e-16 0)
(3 5.00605e-16 0)
(3 9.38208e-16 0)
(3 1.57357e-15 0)
(3 1.30532e-15 0)
(3 1.33421e-15 0)
(3 1.17487e-15 0)
(3 7.1444e-17 0)
(3 -7.59979e-16 0)
(3 -2.48996e-17 0)
(3 1.37885e-15 0)
(3 1.08419e-15 0)
(3 5.24924e-16 0)
(3 2.63285e-16 0)
(3 -3.48661e-16 0)
(3 -6.26151e-16 0)
(3 -3.7999e-16 0)
(3 -3.09911e-16 0)
(3 -2.19746e-16 0)
(3 -4.1237e-16 0)
(3 -8.38542e-16 0)
(3 -1.22564e-15 0)
(3 -8.81258e-16 0)
(3 -6.36882e-16 0)
(3 9.51354e-16 0)
(3 1.02627e-15 0)
(3 2.72475e-16 0)
(3 4.7083e-16 0)
(3 4.48564e-16 0)
(3 -4.20745e-17 0)
(3 -1.13862e-15 0)
(3 -1.46486e-15 0)
(3 -1.84551e-15 0)
(3 -1.34915e-16 0)
(3 -6.3025e-17 0)
(3 1.30487e-16 0)
(3 3.9658e-16 0)
(3 -5.5963e-18 0)
(3 3.37381e-16 0)
(3 8.82781e-16 0)
(3 1.42878e-15 0)
(3 1.37618e-15 0)
(3 1.26897e-15 0)
(3 1.6782e-15 0)
(3 1.81047e-15 0)
(3 1.51779e-15 0)
(3 1.13038e-15 0)
(3 9.63026e-16 0)
(3 4.3653e-16 0)
(3 4.04705e-16 0)
(3 5.07873e-16 0)
(3 1.47028e-15 0)
(3 1.71334e-15 0)
(3 1.28941e-15 0)
(3 2.03692e-15 0)
(3 1.07609e-15 0)
(3 -4.62678e-16 0)
(3 -3.90228e-16 0)
(3 2.12546e-16 0)
(3 6.54964e-16 0)
(3 9.67953e-16 0)
(3 5.31766e-16 0)
(3 1.63196e-16 0)
(3 6.12752e-17 0)
(3 3.96512e-16 0)
(3 4.53368e-16 0)
(3 6.38523e-16 0)
(3 1.37685e-15 0)
(3 2.23008e-15 0)
(3 2.59404e-15 0)
(3 2.17885e-15 0)
(3 1.67548e-15 0)
(3 1.37342e-15 0)
(3 5.38632e-16 0)
(3 3.54001e-16 0)
(3 6.16515e-16 0)
(3 4.43417e-16 0)
(3 4.13992e-16 0)
(3 4.38168e-16 0)
(3 1.73942e-16 0)
(3 -3.30747e-16 0)
(3 8.95381e-17 0)
(3 2.22566e-16 0)
(3 2.68001e-17 0)
(3 -4.20493e-16 0)
(3 -5.62804e-16 0)
(3 -3.24953e-16 0)
(3 2.53867e-16 0)
(3 7.75012e-16 0)
(3 5.46599e-16 0)
(3 2.54334e-16 0)
(3 2.84815e-16 0)
(3 1.11995e-15 0)
(3 1.30413e-15 0)
(3 1.01017e-15 0)
(3 8.84723e-16 0)
(3 6.13247e-16 0)
(3 5.98896e-16 0)
(3 7.58726e-16 0)
(3 6.38242e-16 0)
(3 9.33523e-16 0)
(3 1.30768e-15 0)
(3 1.41652e-15 0)
(3 1.47947e-15 0)
(3 1.37345e-15 0)
(3 2.69924e-16 0)
(3 -4.49107e-16 0)
(3 2.08223e-16 0)
(3 4.72416e-16 0)
(3 2.88873e-16 0)
(3 6.38579e-16 0)
(3 8.77165e-16 0)
(3 5.26674e-16 0)
(3 1.75408e-16 0)
(3 1.66955e-16 0)
(3 9.8221e-17 0)
(3 -2.18994e-16 0)
(3 -3.00692e-16 0)
(3 3.00787e-16 0)
(3 8.2722e-16 0)
(3 1.06992e-16 0)
(3 -6.25445e-17 0)
(3 1.07891e-15 0)
(3 8.77211e-16 0)
(3 1.2314e-15 0)
(3 1.05036e-15 0)
(3 1.14765e-15 0)
(3 1.59071e-15 0)
(3 1.87932e-15 0)
(3 3.40755e-17 0)
(3 -5.97183e-17 0)
(3 -1.38785e-16 0)
(3 -2.0269e-16 0)
(3 -1.23976e-16 0)
(3 -2.08089e-17 0)
(3 3.38285e-16 0)
(3 5.82874e-16 0)
(3 5.35056e-16 0)
(3 7.64093e-16 0)
(3 -4.84722e-16 0)
(3 -4.40552e-16 0)
(3 -1.69366e-16 0)
(3 5.16775e-16 0)
(3 3.45568e-16 0)
(3 -6.75379e-17 0)
(3 -2.39485e-16 0)
(3 -6.35386e-17 0)
(3 -2.31967e-16 0)
(3 -5.45468e-16 0)
(3 -3.30892e-16 0)
(3 -8.5578e-16 0)
(3 -8.81435e-16 0)
(3 -6.93111e-16 0)
(3 -6.09295e-16 0)
(3 -9.16285e-16 0)
(3 -8.11821e-16 0)
(3 1.54308e-16 0)
(3 1.18397e-15 0)
(3 1.1769e-15 0)
(3 1.52658e-15 0)
(3 1.38053e-15 0)
(3 4.84814e-16 0)
(3 -2.8914e-17 0)
(3 -1.65311e-15 0)
(3 -2.59824e-15 0)
(3 -2.93976e-15 0)
(3 -2.83074e-15 0)
(3 -2.07725e-15 0)
(3 -5.53122e-16 0)
(3 8.05743e-16 0)
(3 1.11743e-15 0)
(3 1.22033e-15 0)
(3 1.57674e-15 0)
(3 1.58495e-15 0)
(3 1.2685e-15 0)
(3 8.91048e-16 0)
(3 5.0463e-16 0)
(3 -2.0758e-17 0)
(3 1.32279e-16 0)
(3 1.83616e-16 0)
(3 4.88827e-16 0)
(3 5.63545e-16 0)
(3 6.6493e-16 0)
(3 1.28026e-15 0)
(3 1.16548e-15 0)
(3 7.71604e-16 0)
(3 7.60257e-16 0)
(3 3.0849e-16 0)
(3 -5.53847e-16 0)
(3 -1.47434e-16 0)
(3 3.24775e-16 0)
(3 8.10673e-16 0)
(3 1.00874e-15 0)
(3 5.3176e-16 0)
(3 -6.84414e-16 0)
(3 -1.23371e-15 0)
(3 -1.59462e-15 0)
(3 -1.91381e-15 0)
(3 -2.58703e-15 0)
(3 -3.1465e-15 0)
(3 -2.41737e-15 0)
(3 -5.4662e-16 0)
(3 8.89676e-17 0)
(3 2.94283e-17 0)
(3 3.52062e-16 0)
(3 9.39237e-16 0)
(3 1.07936e-15 0)
(3 6.40447e-16 0)
(3 7.02443e-16 0)
(3 1.01974e-15 0)
(3 1.13452e-15 0)
(3 7.89926e-16 0)
(3 5.96871e-16 0)
(3 4.61448e-16 0)
(3 -2.58751e-16 0)
(3 -8.67539e-16 0)
(3 -8.1007e-18 0)
(3 1.7118e-16 0)
(3 -3.69176e-16 0)
(3 5.32673e-16 0)
(3 1.05506e-15 0)
(3 1.35097e-15 0)
(3 1.08524e-15 0)
(3 2.25537e-16 0)
(3 -2.4088e-16 0)
(3 1.76338e-16 0)
(3 7.54425e-16 0)
(3 9.28519e-16 0)
(3 6.1572e-16 0)
(3 2.67425e-16 0)
(3 2.15672e-16 0)
(3 -4.94223e-18 0)
(3 8.33442e-17 0)
(3 9.70986e-16 0)
(3 9.09642e-16 0)
(3 1.50518e-15 0)
(3 8.78286e-16 0)
(3 1.22802e-16 0)
(3 -1.01122e-16 0)
(3 -1.03747e-16 0)
(3 9.98142e-16 0)
(3 1.32015e-15 0)
(3 4.28671e-16 0)
(3 -7.19395e-16 0)
(3 -1.11235e-15 0)
(3 -1.04389e-15 0)
(3 -3.61762e-16 0)
(3 8.29928e-17 0)
(3 5.60722e-16 0)
(3 9.68276e-16 0)
(3 1.29025e-15 0)
(3 1.67615e-15 0)
(3 1.75476e-15 0)
(3 1.7414e-15 0)
(3 1.92251e-15 0)
(3 1.57821e-15 0)
(3 1.3574e-15 0)
(3 1.72043e-15 0)
(3 2.80408e-15 0)
(3 3.47934e-15 0)
(3 2.14013e-15 0)
(3 1.59152e-15 0)
(3 1.31162e-15 0)
(3 7.22552e-16 0)
(3 5.6259e-16 0)
(3 -3.95404e-17 0)
(3 -5.45101e-16 0)
(3 -2.56955e-16 0)
(3 -1.28233e-17 0)
(3 3.63287e-16 0)
(3 5.22439e-16 0)
(3 -3.81828e-17 0)
(3 3.64656e-16 0)
(3 -2.44932e-17 0)
(3 1.71175e-16 0)
(3 2.83944e-18 0)
(3 -3.76034e-16 0)
(3 -3.02962e-16 0)
(3 -3.36182e-16 0)
(3 -9.15149e-16 0)
(3 -9.72698e-16 0)
(3 6.03331e-16 0)
(3 1.09398e-15 0)
(3 1.40528e-15 0)
(3 2.0137e-15 0)
(3 1.54633e-15 0)
(3 1.23132e-15 0)
(3 2.78968e-16 0)
(3 1.38625e-16 0)
(3 -2.19954e-17 0)
(3 3.23577e-16 0)
(3 -2.86955e-16 0)
(3 -1.42795e-15 0)
(3 -2.00029e-15 0)
(3 -7.48353e-16 0)
(3 -7.20673e-17 0)
(3 1.28877e-16 0)
(3 8.82405e-16 0)
(3 1.23498e-15 0)
(3 2.29103e-15 0)
(3 2.46096e-15 0)
(3 1.82762e-15 0)
(3 1.81938e-15 0)
(3 1.78074e-15 0)
(3 2.30928e-15 0)
(3 2.39626e-15 0)
(3 1.53863e-15 0)
(3 7.63982e-16 0)
(3 4.86214e-17 0)
(3 -8.60292e-17 0)
(3 2.24866e-16 0)
(3 3.24022e-16 0)
(3 1.26945e-16 0)
(3 -2.66203e-16 0)
(3 -2.06951e-16 0)
(3 -2.98723e-16 0)
(3 1.49408e-16 0)
(3 1.04726e-15 0)
(3 7.15328e-16 0)
(3 -7.35179e-16 0)
(3 -5.56379e-16 0)
(3 -3.11099e-16 0)
(3 -5.5176e-16 0)
(3 -7.35782e-16 0)
(3 -4.91981e-16 0)
(3 -2.5581e-16 0)
(3 -1.13795e-16 0)
(3 -2.67254e-16 0)
(3 -2.36708e-16 0)
(3 1.13584e-16 0)
(3 9.09428e-16 0)
(3 9.62829e-16 0)
(3 6.19825e-16 0)
(3 6.87541e-16 0)
(3 6.43477e-16 0)
(3 4.60701e-16 0)
(3 1.661e-17 0)
(3 -4.50733e-16 0)
(3 -6.07737e-16 0)
(3 -9.54051e-18 0)
(3 2.0846e-16 0)
(3 -1.06821e-16 0)
(3 -7.198e-16 0)
(3 -8.65865e-16 0)
(3 -4.17154e-16 0)
(3 -2.09916e-16 0)
(3 8.98867e-17 0)
(3 4.25192e-16 0)
(3 5.51683e-16 0)
(3 -1.11437e-16 0)
(3 -5.625e-16 0)
(3 -2.17094e-16 0)
(3 3.50672e-16 0)
(3 4.01419e-16 0)
(3 -3.66586e-16 0)
(3 -8.6981e-16 0)
(3 -3.91963e-16 0)
(3 -1.35946e-16 0)
(3 1.52463e-16 0)
(3 2.92808e-17 0)
(3 -2.86738e-16 0)
(3 -1.20888e-15 0)
(3 -1.60122e-15 0)
(3 -1.28402e-15 0)
(3 4.94375e-16 0)
(3 1.80382e-15 0)
(3 1.21431e-15 0)
(3 1.01496e-15 0)
(3 5.05265e-16 0)
(3 -8.49796e-17 0)
(3 -3.12401e-16 0)
(3 -2.37737e-16 0)
(3 -2.30241e-16 0)
(3 5.66839e-16 0)
(3 1.05018e-15 0)
(3 8.06355e-16 0)
(3 1.72172e-16 0)
(3 2.14403e-17 0)
(3 -5.45695e-17 0)
(3 -3.43272e-16 0)
(3 -1.17768e-15 0)
(3 -9.26277e-16 0)
(3 -1.64161e-16 0)
(3 5.02843e-16 0)
(3 1.95953e-16 0)
(3 -3.50024e-16 0)
(3 -7.09173e-16 0)
(3 6.90836e-16 0)
(3 1.25774e-15 0)
(3 1.20089e-15 0)
(3 9.25821e-16 0)
(3 7.40795e-16 0)
(3 6.00851e-16 0)
(3 2.57141e-16 0)
(3 -1.14612e-15 0)
(3 -2.29145e-15 0)
(3 -2.45818e-15 0)
(3 -1.31362e-15 0)
(3 -1.21039e-15 0)
(3 -1.85372e-16 0)
(3 -3.78208e-17 0)
(3 -2.90332e-16 0)
(3 -3.72626e-16 0)
(3 -1.73554e-16 0)
(3 3.4297e-16 0)
(3 9.6474e-16 0)
(3 5.73742e-16 0)
(3 7.31913e-16 0)
(3 7.05783e-16 0)
(3 6.08505e-16 0)
(3 8.83203e-17 0)
(3 -7.90384e-16 0)
(3 -8.27907e-16 0)
(3 -5.78776e-16 0)
(3 7.47904e-16 0)
(3 2.03245e-15 0)
(3 2.26225e-15 0)
(3 1.68063e-16 0)
(3 1.54411e-16 0)
(3 3.5972e-16 0)
(3 1.56098e-16 0)
(3 2.63175e-16 0)
(3 6.34998e-16 0)
(3 6.17769e-16 0)
(3 -2.21256e-16 0)
(3 -1.1499e-15 0)
(3 -2.11877e-15 0)
(3 -2.52263e-15 0)
(3 -2.69029e-15 0)
(3 -3.14998e-15 0)
(3 -2.99808e-15 0)
(3 -1.63686e-15 0)
(3 4.50841e-16 0)
(3 6.3976e-16 0)
(3 3.80096e-16 0)
(3 2.89958e-16 0)
(3 3.53186e-16 0)
(3 1.72653e-15 0)
(3 2.95002e-15 0)
(3 2.47159e-15 0)
(3 1.99655e-15 0)
(3 1.28438e-15 0)
(3 -2.75916e-16 0)
(3 -1.81315e-15 0)
(3 -2.90865e-15 0)
(3 -2.66134e-15 0)
(3 -1.89339e-15 0)
(3 1.7335e-16 0)
(3 -1.16348e-16 0)
(3 -7.62633e-16 0)
(3 -5.45741e-16 0)
(3 7.27534e-17 0)
(3 9.54337e-16 0)
(3 1.67725e-15 0)
(3 8.08305e-16 0)
(3 9.41147e-16 0)
(3 1.43597e-15 0)
(3 1.68679e-15 0)
(3 1.76514e-15 0)
(3 1.11465e-15 0)
(3 5.4997e-16 0)
(3 5.9196e-17 0)
(3 4.33818e-16 0)
(3 1.75703e-15 0)
(3 2.5942e-15 0)
(3 9.80291e-17 0)
(3 1.93784e-17 0)
(3 -2.23086e-17 0)
(3 -2.08905e-17 0)
(3 -7.74419e-16 0)
(3 -8.75784e-16 0)
(3 -1.98389e-16 0)
(3 -7.11301e-16 0)
(3 -1.51375e-15 0)
(3 -2.47417e-15 0)
(3 -3.18053e-15 0)
(3 -2.31691e-15 0)
(3 -2.38633e-15 0)
(3 -2.32914e-15 0)
(3 -2.64406e-15 0)
(3 -1.28992e-15 0)
(3 1.40043e-15 0)
(3 1.70337e-15 0)
(3 2.08159e-15 0)
(3 1.91483e-15 0)
(3 1.71622e-15 0)
(3 1.29165e-15 0)
(3 9.19826e-16 0)
(3 9.62037e-16 0)
(3 1.95735e-16 0)
(3 -8.83219e-16 0)
(3 -2.28924e-15 0)
(3 -2.37625e-15 0)
(3 -1.21513e-15 0)
(3 -4.57046e-16 0)
(3 -8.4641e-16 0)
(3 -1.29463e-15 0)
(3 -7.75076e-16 0)
(3 1.93386e-17 0)
(3 7.59261e-16 0)
(3 4.44915e-16 0)
(3 2.30629e-17 0)
(3 4.37948e-16 0)
(3 1.79736e-16 0)
(3 1.72221e-17 0)
(3 9.56194e-16 0)
(3 1.46761e-15 0)
(3 1.61636e-15 0)
(3 1.00864e-15 0)
(3 1.26549e-15 0)
(3 8.40782e-16 0)
(3 1.22942e-15 0)
(3 1.55149e-15 0)
(3 -3.56651e-17 0)
(3 -2.6625e-17 0)
(3 -3.57925e-16 0)
(3 9.62332e-17 0)
(3 2.2828e-16 0)
(3 -8.12751e-16 0)
(3 -1.29599e-15 0)
(3 -9.37898e-16 0)
(3 -8.79971e-16 0)
(3 -9.85335e-16 0)
(3 -2.02528e-15 0)
(3 -1.97273e-15 0)
(3 1.40877e-16 0)
(3 5.35527e-16 0)
(3 5.34068e-18 0)
(3 3.55497e-16 0)
(3 1.32802e-15 0)
(3 1.98806e-15 0)
(3 1.57415e-15 0)
(3 6.41107e-16 0)
(3 1.58669e-16 0)
(3 3.40985e-16 0)
(3 9.8804e-16 0)
(3 6.55604e-16 0)
(3 -6.93619e-16 0)
(3 -1.32656e-15 0)
(3 -1.52768e-15 0)
(3 -8.40572e-16 0)
(3 -5.55831e-16 0)
(3 -5.80531e-16 0)
(3 -1.52062e-15 0)
(3 -1.52313e-15 0)
(3 -6.05018e-16 0)
(3 -5.4092e-16 0)
(3 -7.70555e-16 0)
(3 -1.24677e-15 0)
(3 -1.4799e-15 0)
(3 -8.72832e-16 0)
(3 -3.1316e-16 0)
(3 2.41714e-17 0)
(3 -1.30024e-16 0)
(3 7.26925e-16 0)
(3 9.28535e-16 0)
(3 1.46863e-15 0)
(3 9.32298e-16 0)
(3 -1.62844e-16 0)
(3 -6.84489e-16 0)
(3 -3.20448e-16 0)
(3 -1.01611e-17 0)
(3 1.49155e-17 0)
(3 -1.40381e-16 0)
(3 6.42448e-18 0)
(3 -1.02811e-16 0)
(3 -5.31383e-16 0)
(3 -6.68582e-16 0)
(3 -3.60755e-16 0)
(3 -4.85299e-16 0)
(3 -6.13558e-16 0)
(3 -6.04234e-16 0)
(3 -5.58444e-16 0)
(3 5.32219e-16 0)
(3 8.34237e-16 0)
(3 1.04657e-15 0)
(3 5.46287e-16 0)
(3 9.38439e-16 0)
(3 1.22894e-15 0)
(3 1.08897e-15 0)
(3 9.92124e-16 0)
(3 7.6693e-16 0)
(3 8.47411e-16 0)
(3 5.82493e-16 0)
(3 3.37686e-16 0)
(3 -5.87533e-16 0)
(3 -4.41844e-16 0)
(3 5.06664e-16 0)
(3 5.61245e-16 0)
(3 -1.47207e-16 0)
(3 -4.38824e-16 0)
(3 -8.74272e-16 0)
(3 -4.73985e-16 0)
(3 -1.31104e-15 0)
(3 -2.00127e-15 0)
(3 -2.39615e-15 0)
(3 -2.08298e-15 0)
(3 -1.01587e-15 0)
(3 -5.34432e-16 0)
(3 5.75216e-17 0)
(3 4.49774e-16 0)
(3 2.50851e-16 0)
(3 -2.08384e-16 0)
(3 1.71585e-17 0)
(3 9.23833e-16 0)
(3 3.31262e-16 0)
(3 9.02157e-17 0)
(3 -1.12985e-15 0)
(3 -1.11074e-15 0)
(3 -1.1566e-16 0)
(3 1.79716e-16 0)
(3 3.74514e-16 0)
(3 1.69553e-16 0)
(3 3.68575e-16 0)
(3 5.69163e-16 0)
(3 9.62328e-16 0)
(3 8.28943e-16 0)
(3 1.30736e-15 0)
(3 1.59795e-15 0)
(3 1.6462e-15 0)
(3 1.48427e-15 0)
(3 1.19883e-15 0)
(3 8.90821e-16 0)
(3 4.18756e-16 0)
(3 -5.56334e-16 0)
(3 -3.05539e-16 0)
(3 -2.42092e-16 0)
(3 -9.77194e-17 0)
(3 5.50347e-16 0)
(3 7.58657e-16 0)
(3 4.64612e-16 0)
(3 3.66324e-18 0)
(3 2.90732e-16 0)
(3 6.06618e-16 0)
(3 3.17261e-16 0)
(3 6.57721e-16 0)
(3 1.19906e-15 0)
(3 1.54084e-15 0)
(3 1.14815e-16 0)
(3 -7.58976e-16 0)
(3 -7.26597e-16 0)
(3 -1.08242e-15 0)
(3 -1.28057e-15 0)
(3 -1.40074e-15 0)
(3 -1.5123e-15 0)
(3 -9.61822e-16 0)
(3 -2.21628e-16 0)
(3 1.3199e-17 0)
(3 5.95892e-16 0)
(3 6.07294e-16 0)
(3 3.69732e-16 0)
(3 1.41772e-16 0)
(3 3.88179e-16 0)
(3 6.51824e-16 0)
(3 1.10318e-15 0)
(3 5.47645e-16 0)
(3 1.7263e-16 0)
(3 5.03427e-17 0)
(3 2.61756e-16 0)
(3 6.21265e-16 0)
(3 7.95441e-16 0)
(3 9.60524e-16 0)
(3 1.16242e-15 0)
(3 6.41162e-16 0)
(3 1.20281e-15 0)
(3 1.99689e-15 0)
(3 3.5914e-15 0)
(3 4.12371e-15 0)
(3 3.52404e-15 0)
(3 2.71806e-15 0)
(3 1.03633e-15 0)
(3 4.62708e-16 0)
(3 -4.16125e-16 0)
(3 -9.57551e-16 0)
(3 -1.68026e-15 0)
(3 -1.33354e-15 0)
(3 -9.48383e-16 0)
(3 -7.10111e-16 0)
(3 -9.47757e-16 0)
(3 -9.26071e-16 0)
(3 -6.03211e-16 0)
(3 8.73543e-16 0)
(3 1.47793e-15 0)
(3 2.09444e-15 0)
(3 1.9661e-15 0)
(3 1.74256e-15 0)
(3 1.27955e-15 0)
(3 -7.30025e-17 0)
(3 -8.09197e-16 0)
(3 -8.15468e-16 0)
(3 -5.41669e-16 0)
(3 -4.74204e-16 0)
(3 -7.8502e-16 0)
(3 -1.49276e-15 0)
(3 -1.08027e-15 0)
(3 7.63335e-16 0)
(3 1.46596e-15 0)
(3 1.17392e-15 0)
(3 1.79338e-15 0)
(3 1.42436e-15 0)
(3 7.09858e-16 0)
(3 4.31699e-16 0)
(3 7.07654e-16 0)
(3 8.80031e-16 0)
(3 7.84077e-16 0)
(3 5.79242e-17 0)
(3 -7.94958e-17 0)
(3 -1.69775e-18 0)
(3 1.16297e-16 0)
(3 -5.25286e-17 0)
(3 5.29626e-16 0)
(3 6.68069e-16 0)
(3 1.10578e-15 0)
(3 1.21963e-15 0)
(3 1.703e-15 0)
(3 1.87393e-15 0)
(3 1.62199e-15 0)
(3 1.16237e-15 0)
(3 1.40353e-15 0)
(3 6.23663e-16 0)
(3 -6.66645e-16 0)
(3 -1.38128e-15 0)
(3 -1.49896e-15 0)
(3 -2.04871e-15 0)
(3 -2.75135e-15 0)
(3 -2.67122e-15 0)
(3 -1.81903e-15 0)
(3 -1.15985e-15 0)
(3 -4.09783e-16 0)
(3 1.01292e-15 0)
(3 1.7218e-15 0)
(3 1.55255e-15 0)
(3 1.31108e-15 0)
(3 7.60269e-16 0)
(3 2.38378e-16 0)
(3 1.77494e-16 0)
(3 -6.80006e-16 0)
(3 -1.30303e-15 0)
(3 -4.9875e-16 0)
(3 5.54894e-17 0)
(3 4.44047e-16 0)
(3 2.61328e-16 0)
(3 9.47378e-16 0)
(3 1.41844e-15 0)
(3 1.4465e-15 0)
(3 1.21984e-15 0)
(3 1.23548e-15 0)
(3 1.84559e-17 0)
(3 -1.11213e-15 0)
(3 -8.7355e-16 0)
(3 -5.36921e-16 0)
(3 1.52036e-15 0)
(3 1.22727e-15 0)
(3 -3.49009e-17 0)
(3 -4.00973e-16 0)
(3 -3.42482e-16 0)
(3 -1.28801e-16 0)
(3 -3.18341e-16 0)
(3 -3.87841e-16 0)
(3 -1.78629e-16 0)
(3 -1.17401e-16 0)
(3 -7.31825e-16 0)
(3 -1.49356e-15 0)
(3 -1.21249e-15 0)
(3 -9.32781e-16 0)
(3 -8.34276e-16 0)
(3 6.78202e-17 0)
(3 -2.5456e-16 0)
(3 -5.45362e-16 0)
(3 -3.49472e-16 0)
(3 -1.32294e-17 0)
(3 -1.03606e-15 0)
(3 -9.48249e-16 0)
(3 -4.2372e-16 0)
(3 -5.66565e-16 0)
(3 -1.20497e-18 0)
(3 6.97742e-16 0)
(3 1.10533e-15 0)
(3 1.35039e-15 0)
(3 6.66162e-16 0)
(3 -1.65243e-16 0)
(3 -5.71858e-16 0)
(3 -1.60181e-15 0)
(3 -1.83903e-15 0)
(3 -1.91543e-15 0)
(3 -2.14565e-15 0)
(3 -6.21475e-16 0)
(3 -1.48009e-16 0)
(3 6.6745e-16 0)
(3 8.50163e-16 0)
(3 4.69039e-16 0)
(3 -4.09862e-16 0)
(3 -8.64715e-16 0)
(3 -1.38303e-15 0)
(3 -1.85076e-15 0)
(3 -3.09222e-15 0)
(3 -3.31885e-15 0)
(3 -2.53069e-15 0)
(3 -1.00925e-15 0)
(3 1.20205e-15 0)
(3 1.79184e-15 0)
(3 -1.53878e-16 0)
(3 -1.82076e-16 0)
(3 -1.47082e-16 0)
(3 -3.89376e-16 0)
(3 -7.24262e-16 0)
(3 -1.20189e-15 0)
(3 -1.67179e-15 0)
(3 -1.72416e-15 0)
(3 -1.89239e-15 0)
(3 -2.15832e-15 0)
(3 -2.33575e-15 0)
(3 -1.43792e-15 0)
(3 -7.875e-16 0)
(3 -1.00553e-15 0)
(3 -3.77628e-16 0)
(3 -3.92425e-16 0)
(3 -1.33339e-16 0)
(3 -1.37662e-16 0)
(3 2.61462e-16 0)
(3 9.58306e-16 0)
(3 1.19241e-15 0)
(3 1.83729e-16 0)
(3 -8.35745e-17 0)
(3 -1.05026e-15 0)
(3 -9.88309e-16 0)
(3 1.09293e-16 0)
(3 4.19719e-16 0)
(3 -4.11886e-16 0)
(3 -7.61494e-16 0)
(3 -2.44528e-15 0)
(3 -3.48137e-15 0)
(3 -3.07888e-15 0)
(3 -1.36191e-15 0)
(3 -7.91144e-16 0)
(3 -4.17103e-16 0)
(3 3.26105e-16 0)
(3 3.97972e-16 0)
(3 -3.39516e-16 0)
(3 -9.52511e-16 0)
(3 -1.24396e-15 0)
(3 -1.05625e-15 0)
(3 -1.23375e-15 0)
(3 -7.63814e-16 0)
(3 -6.62199e-16 0)
(3 -6.02687e-16 0)
(3 -1.54689e-16 0)
(3 6.10286e-16 0)
(3 1.72286e-15 0)
(3 3.67e-16 0)
(3 5.54487e-16 0)
(3 -1.56342e-16 0)
(3 -7.6207e-16 0)
(3 -6.19973e-16 0)
(3 -4.08692e-16 0)
(3 -4.12663e-16 0)
(3 -7.03201e-16 0)
(3 -6.48666e-16 0)
(3 -7.0277e-16 0)
(3 -7.90538e-16 0)
(3 -1.02142e-15 0)
(3 -1.07279e-15 0)
(3 -1.28629e-15 0)
(3 -7.59342e-16 0)
(3 -4.49399e-16 0)
(3 8.16489e-17 0)
(3 1.52668e-16 0)
(3 1.8611e-16 0)
(3 -5.89306e-17 0)
(3 -1.44858e-16 0)
(3 -2.66735e-17 0)
(3 -8.47788e-16 0)
(3 -1.79405e-15 0)
(3 -1.32374e-15 0)
(3 -9.53032e-16 0)
(3 -3.89056e-16 0)
(3 -1.68007e-15 0)
(3 -2.33113e-15 0)
(3 -2.28829e-15 0)
(3 -2.41337e-15 0)
(3 -1.1493e-15 0)
(3 -2.4954e-16 0)
(3 -1.47421e-16 0)
(3 1.73051e-16 0)
(3 3.55018e-16 0)
(3 2.86077e-16 0)
(3 8.18268e-17 0)
(3 3.36452e-16 0)
(3 3.99751e-16 0)
(3 -4.67254e-16 0)
(3 -8.66202e-16 0)
(3 -7.87147e-16 0)
(3 -9.32534e-16 0)
(3 -4.56085e-16 0)
(3 -5.18327e-17 0)
(3 7.85444e-17 0)
(3 1.07065e-15 0)
(3 2.44296e-16 0)
(3 -9.18996e-17 0)
(3 -2.34909e-16 0)
(3 -9.9826e-17 0)
(3 2.01294e-16 0)
(3 4.76536e-16 0)
(3 1.6727e-16 0)
(3 -1.6718e-16 0)
(3 -3.37588e-16 0)
(3 -4.82319e-17 0)
(3 -3.68729e-16 0)
(3 -7.72325e-16 0)