1.15431 	0.799999 	1.41553e-16 	2.42899 	-0.838649 	0
1.16395 	0.799999 	1.41553e-16 	2.52179 	-0.792261 	0
1.17359 	0.799999 	1.39819e-16 	2.68327 	-0.679217 	0
1.18323 	0.799999 	1.39819e-16 	2.76523 	-0.711237 	0
1.19287 	0.799999 	1.41553e-16 	2.85518 	-0.50118 	0
1.2025 	0.799999 	1.41553e-16 	2.88625 	-0.37217 	0
1.21214 	0.799999 	1.41553e-16 	2.95705 	-0.235619 	0
1.22178 	0.799999 	1.41553e-16 	2.98028 	-0.0972335 	0
1.23142 	0.799999 	1.41553e-16 	3.01432 	-0.0435696 	0
1.24106 	0.799999 	1.41553e-16 	3.0052 	0.0230348 	0
1.25069 	0.799999 	1.41553e-16 	2.98777 	0.086015 	0
1.26033 	0.799999 	1.41553e-16 	2.99692 	0.0635027 	0
1.26997 	0.799999 	1.43288e-16 	2.99779 	0.0447779 	0
1.27961 	0.799999 	1.45023e-16 	2.97658 	0.0557084 	0
1.28925 	0.799999 	1.45023e-16 	2.95369 	0.0472602 	0
1.29888 	0.799999 	1.45023e-16 	2.95473 	0.0346294 	0
1.30852 	0.799999 	1.43288e-16 	2.96434 	0.0380665 	0
1.31816 	0.799999 	1.41553e-16 	2.9728 	0.0295192 	0
1.3278 	0.799999 	1.37043e-16 	2.96315 	0.0168378 	0
1.33744 	0.799999 	1.30798e-16 	2.95792 	0.0100538 	0
1.34707 	0.799999 	1.24553e-16 	2.94481 	0.00360442 	0
1.35671 	0.799999 	1.20043e-16 	2.93733 	0.00558864 	0
1.36635 	0.799999 	1.19002e-16 	2.93555 	0.00770264 	0
1.37599 	0.799999 	1.17961e-16 	2.94311 	0.00149586 	0
1.38563 	0.799999 	1.16226e-16 	2.94592 	-0.00525891 	0
1.39527 	0.799999 	1.12757e-16 	2.94504 	-0.0070181 	0
1.4049 	0.799999 	1.08247e-16 	2.94296 	-0.00461185 	0
1.41454 	0.799999 	1.05471e-16 	2.9439 	-0.00346811 	0
1.42418 	0.799999 	1.05471e-16 	2.94607 	-0.00290103 	0
1.43382 	0.799999 	1.05471e-16 	2.94418 	-0.00415191 	0
1.44346 	0.799999 	1.05471e-16 	2.93784 	-0.0046246 	0
1.45309 	0.799999 	1.05471e-16 	2.93591 	-0.004295 	0
1.46273 	0.799999 	1.05471e-16 	2.93529 	-0.00341809 	0
1.47237 	0.799999 	1.05471e-16 	2.93656 	-0.0019657 	0
1.48201 	0.799999 	1.05471e-16 	2.93872 	-0.000933996 	0
1.49165 	0.799999 	1.07206e-16 	2.93892 	-0.000204505 	0
1.50128 	0.799999 	1.08941e-16 	2.93776 	0.000635519 	0
1.51092 	0.799999 	1.08941e-16 	2.93683 	0.00118517 	0
1.52056 	0.799999 	1.08941e-16 	2.93622 	0.00143812 	0
1.5302 	0.799999 	1.08941e-16 	2.93567 	0.0012311 	0
1.53984 	0.799999 	1.08941e-16 	2.93445 	0.000543387 	0
1.54947 	0.799999 	1.08941e-16 	2.93348 	0.000283434 	0
1.55911 	0.799999 	1.08941e-16 	2.93342 	0.000635076 	0
1.56875 	0.799999 	1.10675e-16 	2.93311 	0.000771088 	0
1.57839 	0.799999 	1.1241e-16 	2.93286 	0.000787674 	0
1.58803 	0.799999 	1.1241e-16 	2.93274 	0.00068767 	0
1.59766 	0.799999 	1.1241e-16 	2.9321 	0.000131849 	0
1.6073 	0.799999 	1.10675e-16 	2.93081 	-0.000209402 	0
1.61694 	0.799999 	1.06165e-16 	2.92613 	0.00498262 	0
1.62658 	0.799999 	1.0339e-16 	2.85981 	0.0778762 	0
1.63622 	0.799999 	1.05124e-16 	2.72709 	0.226254 	0
1.64585 	0.799999 	1.06859e-16 	2.41168 	0.342549 	0
1.65549 	0.799999 	1.05124e-16 	2.10748 	0.400814 	0
1.66513 	0.799999 	1.0339e-16 	1.93729 	0.419261 	0
1.67477 	0.799999 	1.0339e-16 	1.74572 	0.226808 	0
1.68441 	0.799999 	1.0339e-16 	1.74749 	0.0823978 	0
1.69404 	0.799999 	1.0339e-16 	1.79294 	-0.00818613 	0
1.70368 	0.799999 	1.0339e-16 	1.86751 	-0.0242529 	0
1.71332 	0.799999 	1.0339e-16 	1.86574 	-0.0159881 	0
1.72296 	0.799999 	1.0339e-16 	1.85495 	-0.0133424 	0
1.7326 	0.799999 	1.0339e-16 	1.87337 	-0.0105348 	0
1.74223 	0.799999 	1.0339e-16 	1.90092 	-0.0102727 	0
1.75187 	0.799999 	1.0339e-16 	1.93079 	-0.00835947 	0
1.76151 	0.799999 	1.0339e-16 	1.95596 	-0.00588192 	0
1.77115 	0.799999 	1.01655e-16 	1.97894 	-0.00552199 	0
1.78079 	0.799999 	9.99201e-17 	2.00195 	-0.00602124 	0
1.79043 	0.799999 	9.71445e-17 	2.00731 	-0.00801991 	0
1.80006 	0.799999 	9.4369e-17 	1.99665 	-0.0112341 	0
1.8097 	0.799999 	9.71445e-17 	2.0082 	-0.0121434 	0
1.81934 	0.799999 	9.99201e-17 	2.02723 	-0.0120456 	0
1.82898 	0.799999 	9.71445e-17 	2.05071 	-0.0115261 	0
1.83862 	0.799999 	9.4369e-17 	2.08003 	-0.00997932 	0
1.84825 	0.799999 	9.4369e-17 	2.1025 	-0.00863832 	0
1.85789 	0.799999 	9.4369e-17 	2.12379 	-0.00798159 	0
1.86753 	0.799999 	9.4369e-17 	2.13378 	-0.00793767 	0
1.87717 	0.799999 	9.4369e-17 	2.12139 	-0.010582 	0
1.88681 	0.799999 	9.4369e-17 	2.12042 	-0.013523 	0
1.89644 	0.799999 	9.4369e-17 	2.13718 	-0.0140033 	0
1.90608 	0.799999 	9.4369e-17 	2.1551 	-0.0137397 	0
1.91572 	0.799999 	9.4369e-17 	2.18116 	-0.0111499 	0
1.92536 	0.799999 	9.4369e-17 	2.20245 	-0.00810097 	0
1.935 	0.799999 	9.4369e-17 	2.22302 	-0.00764405 	0
1.94463 	0.799999 	9.61037e-17 	2.24034 	-0.00707972 	0
1.95427 	0.799999 	9.95731e-17 	2.2398 	-0.00781706 	0
1.96391 	0.799999 	1.03043e-16 	2.21868 	-0.0134655 	0
1.97355 	0.799999 	1.06512e-16 	2.21949 	-0.0171438 	0
1.98319 	0.799999 	1.06512e-16 	2.23475 	-0.0179951 	0
1.99282 	0.799999 	1.06512e-16 	2.25132 	-0.018869 	0
2.00246 	0.799999 	1.08247e-16 	2.28119 	-0.0167099 	0
2.0121 	0.799999 	1.05471e-16 	2.30226 	-0.0116378 	0
2.02174 	0.799999 	1.0443e-16 	2.31875 	-0.0106171 	0
2.03138 	0.799999 	1.0339e-16 	2.33506 	-0.0095149 	0
2.04101 	0.799999 	9.88792e-17 	2.33763 	-0.00877073 	0
2.05065 	0.799999 	9.71445e-17 	2.32083 	-0.0109389 	0
2.06029 	0.799999 	9.71445e-17 	2.31545 	-0.013663 	0
2.06993 	0.799999 	9.4369e-17 	2.3271 	-0.0141394 	0
2.07957 	0.799999 	9.15934e-17 	2.34206 	-0.0136734 	0
2.0892 	0.799999 	9.15934e-17 	2.35762 	-0.012405 	0
2.09884 	0.799999 	9.15934e-17 	2.37256 	-0.0107389 	0
2.10848 	0.799999 	9.15934e-17 	2.38616 	-0.0104108 	0
2.11812 	0.799999 	9.15934e-17 	2.3903 	-0.0116929 	0
2.12776 	0.799999 	9.15934e-17 	2.3931 	-0.0135418 	0
2.13739 	0.799999 	9.15934e-17 	2.40601 	-0.0141213 	0
2.14703 	0.799999 	8.88178e-17 	2.41814 	-0.0133855 	0
2.15667 	0.799999 	8.7777e-17 	2.43037 	-0.0116489 	0
2.16631 	0.799999 	9.12465e-17 	2.44295 	-0.0106089 	0
2.17595 	0.799999 	9.47159e-17 	2.45027 	-0.0101307 	0
2.18559 	0.799999 	9.19403e-17 	2.44121 	-0.01033 	0
2.19522 	0.799999 	8.74301e-17 	2.42811 	-0.0107507 	0
2.20486 	0.799999 	8.74301e-17 	2.43393 	-0.0108937 	0
2.2145 	0.799999 	8.74301e-17 	2.44698 	-0.0109715 	0
2.22414 	0.799999 	8.74301e-17 	2.46114 	-0.0112268 	0
2.23378 	0.799999 	8.74301e-17 	2.47508 	-0.0114793 	0
2.24341 	0.799999 	8.74301e-17 	2.48881 	-0.0112351 	0
2.25305 	0.799999 	8.74301e-17 	2.50162 	-0.010731 	0
2.26269 	0.799999 	8.74301e-17 	2.51257 	-0.00984647 	0
2.27233 	0.799999 	8.74301e-17 	2.51223 	-0.00969721 	0
2.28197 	0.799999 	8.74301e-17 	2.50025 	-0.0101532 	0
2.2916 	0.799999 	8.74301e-17 	2.50415 	-0.0109415 	0
2.30124 	0.799999 	8.74301e-17 	2.51705 	-0.0114571 	0
2.31088 	0.799999 	8.74301e-17 	2.52885 	-0.0114461 	0
2.32052 	0.799999 	8.46545e-17 	2.54055 	-0.0108376 	0
2.33016 	0.799999 	8.18789e-17 	2.55273 	-0.0108092 	0
2.33979 	0.799999 	8.18789e-17 	2.56306 	-0.0111155 	0
2.34943 	0.799999 	8.18789e-17 	2.56513 	-0.010921 	0
2.35907 	0.799999 	8.18789e-17 	2.55397 	-0.0128539 	0
2.36871 	0.799999 	8.18789e-17 	2.55144 	-0.0159138 	0
2.37835 	0.799999 	8.01442e-17 	2.56212 	-0.0166093 	0
2.38798 	0.799999 	7.84095e-17 	2.57229 	-0.0158537 	0
2.39762 	0.799999 	7.84095e-17 	2.58427 	-0.0143998 	0
2.40726 	0.799999 	7.84095e-17 	2.5963 	-0.0137688 	0
2.4169 	0.799999 	7.38992e-17 	2.60724 	-0.0129242 	0
2.42654 	0.799999 	6.93889e-17 	2.61296 	-0.0124284 	0
2.43617 	0.799999 	6.93889e-17 	2.60665 	-0.0137012 	0
2.44581 	0.799999 	6.93889e-17 	2.59609 	-0.0165058 	0
2.45545 	0.799999 	6.93889e-17 	2.60059 	-0.0178567 	0
2.46509 	0.799999 	6.93889e-17 	2.60893 	-0.0177457 	0
2.47473 	0.799999 	6.66134e-17 	2.61767 	-0.0169265 	0
2.48436 	0.799999 	6.38378e-17 	2.62742 	-0.0159955 	0
2.494 	0.799999 	6.38378e-17 	2.63786 	-0.0149814 	0
2.50364 	0.799999 	6.38378e-17 	2.64645 	-0.0135286 	0
2.51328 	0.799999 	6.38378e-17 	2.65094 	-0.0121542 	0
2.52292 	0.799999 	6.10623e-17 	2.64288 	-0.0115921 	0
2.53255 	0.799999 	5.82867e-17 	2.63762 	-0.00895129 	0
2.54219 	0.799999 	5.82867e-17 	2.63394 	-0.0036708 	0
2.55183 	0.799999 	5.82867e-17 	2.61186 	0.0187761 	0
2.56147 	0.799999 	5.82867e-17 	2.54152 	0.0780051 	0
2.57111 	0.799999 	5.82867e-17 	2.42666 	0.119309 	0
2.58074 	0.799999 	5.82867e-17 	2.31747 	0.180929 	0
2.59038 	0.799999 	5.82867e-17 	2.26168 	0.16089 	0
2.60002 	0.799999 	5.82867e-17 	2.2252 	0.160359 	0
2.60966 	0.799999 	5.55112e-17 	2.14704 	0.0901183 	0
2.6193 	0.799999 	5.27356e-17 	2.11682 	0.0548485 	0
2.62894 	0.799999 	5.27356e-17 	2.1069 	0.027549 	0
2.63857 	0.799999 	5.27356e-17 	2.11915 	0.00484319 	0
2.64821 	0.799999 	4.996e-17 	2.12889 	-0.0127246 	0
2.65785 	0.799999 	4.71845e-17 	2.13385 	-0.0167872 	0
2.66749 	0.799999 	4.89192e-17 	2.14534 	-0.0141814 	0
2.67713 	0.799999 	4.78784e-17 	2.16541 	-0.00876509 	0
2.68676 	0.799999 	4.23273e-17 	2.18229 	-0.00767893 	0
2.6964 	0.799999 	3.95517e-17 	2.19291 	-0.007772 	0
2.70604 	0.799999 	4.12864e-17 	2.20027 	-0.00633048 	0
2.71568 	0.799999 	4.30211e-17 	2.2001 	-0.00500678 	0
2.72532 	0.799999 	4.19803e-17 	2.18541 	-0.00653319 	0
2.73495 	0.799999 	4.09395e-17 	2.18163 	-0.00803429 	0
2.74459 	0.799999 	3.92048e-17 	2.18953 	-0.00787221 	0
2.75423 	0.799999 	3.46945e-17 	2.19856 	-0.00712362 	0
2.76387 	0.799999 	3.19189e-17 	2.21181 	-0.00609982 	0
2.77351 	0.799999 	3.19189e-17 	2.2263 	-0.00586338 	0
2.78314 	0.799999 	3.36536e-17 	2.23724 	-0.00615264 	0
2.79278 	0.799999 	3.08781e-17 	2.24701 	-0.00636946 	0
2.80242 	0.799999 	2.81025e-17 	2.25343 	-0.00649851 	0
2.81206 	0.799999 	2.98372e-17 	2.25078 	-0.00658052 	0
2.8217 	0.799999 	2.98372e-17 	2.24475 	-0.00702209 	0
2.83133 	0.799999 	2.81025e-17 	2.25009 	-0.00742599 	0
2.84097 	0.799999 	2.63678e-17 	2.2589 	-0.00763909 	0
2.85061 	0.799999 	2.35922e-17 	2.26781 	-0.0076386 	0
2.86025 	0.799999 	1.80411e-17 	2.27667 	-0.00734311 	0
2.86989 	0.799999 	1.52656e-17 	2.28535 	-0.00647497 	0
2.87952 	0.799999 	1.70003e-17 	2.29352 	-0.00578648 	0
2.88916 	0.799999 	1.76942e-17 	2.30002 	-0.00506019 	0
2.8988 	0.799999 	1.66533e-17 	2.2986 	-0.00525274 	0
2.90844 	0.799999 	1.49186e-17 	2.2883 	-0.00718623 	0
2.91808 	0.799999 	1.14492e-17 	2.28875 	-0.00833481 	0
2.92771 	0.799999 	1.14492e-17 	2.29546 	-0.00862307 	0
2.93735 	0.799999 	1.21431e-17 	2.30204 	-0.00891769 	0
2.94699 	0.799999 	8.32667e-18 	2.31349 	-0.00888751 	0
2.95663 	0.799999 	5.55112e-18 	2.33076 	-0.00730178 	0
2.96627 	0.799999 	5.55112e-18 	2.33932 	-0.00584641 	0
2.9759 	0.799999 	5.55112e-18 	2.34766 	-0.00508372 	0
2.98554 	0.799999 	2.77556e-18 	2.35396 	-0.00409615 	0
2.99518 	0.799999 	0 	2.35184 	-0.00560955 	0
