/*--------------------------------*- C++ -*----------------------------------*\
  =========                 |
  \\      /  F ield         | OpenFOAM: The Open Source CFD Toolbox
   \\    /   O peration     | Website:  https://openfoam.org
    \\  /    A nd           | Version:  7
     \\/     M anipulation  |
\*---------------------------------------------------------------------------*/
FoamFile
{
    version     2.0;
    format      ascii;
    class       volScalarField;
    location    "3.3";
    object      p;
}
// * * * * * * * * * * * * * * * * * * * * * * * * * * * * * * * * * * * * * //

dimensions      [1 -1 -2 0 0 0 0];

internalField   nonuniform List<scalar> 
18432
(
1
1
1
1
1
1
1
1
1
1
1
1
1
1
1
1
1
1
1
1
1
1
1
1
1
1
1
1
1
1
1
1
1
1
1
1
1
1
1
1
1
1
1
1
1
1
1
1
1
1
1
1
1
1
1
1
1
1
1
1
1
1
1
1
1
1
1
1
1
1
1
1
1
1
1
1
1
1
1
1
1
1
1
1
1
1
1
1
1
1
1
1
1
1
1
1
1
1
1
1
1
1
1
1
1
1
1
1
1
1
1
1
1
1
1
1
1
1
1
1
1
1
1
1
1
1
1
1
1
1
1
1
1
1
1
1
1
1
1
1
1
1
1
1
1
1
1
1
1
1
1
1
1
1
1
1
1
1
1
1
1
1
1
1
1
1
1
1
1
1
1
1
1
1
1
1
1
1
1
1
1
1
1
1
1
1
1
1
1
1
1
1
1
1
1
1
1
1
1
1
1
1
1
1
1
1
1
1
1
1
1
1
1
1
1
1
1
1
1
1
1
1
1
1
1
1
1
1
1
1
1
1
1
1
1
1
1
1
1
1
1
1
1
1
1
1
1
1
1
1
1
1
1
1
1
1
1
1
1
1
1
1
1
1
1
1
1
1
1
1
1
1
1
1
1
1
1
1
1
1
1
1
1
1
1
1
1
1
1
1
1
1
1
1
1
1
1
1
1
1
1
1
1
1
1
1
1
1
1
1
1
1
1
1
1
1
1
1
1
1
1
1
1
1
1
1
1
1
1
1
1
1
1
1
1
1
1
1
1
1
1
1
1
1
1
1
1
1
1
1
1
1
1
1
1
1
1
1
1
1
1
1
1
1
1
1
1
1
1
1
1
1
1
1
1
1
1
1
1
1
1
1
1
1
1
1
1
1
1
1
1
1
1
1
1
1
1
1
1
1
1
1
1
1
1
1
1
1
1
1
1
1
1
1
1
1
1
1
1
1
1
1
1
1
1
1
1
1
1
1
1
1
1
1
1
1
1
1
1
1
1
1
1
1
1
1
1
1
1
1
1
1
1
1
1
1
1
1
1
1
1
1
1
1
1
1
1
1
1
1
1
1
1
1
1
1
1
1
1
1
1
1
1
1
1
1
1
1
1
1
1
1
1
1
1
1
1
1
1
1
1
1
1
1
1
1
1
1
1
1
1
1
1
1
1
1
1
1
1
1
1
1
1
1
1
1
1
1
1
1
1
1
1
1
1
1
1
1
1
1
1
1
1
1
1
1
1
1
1
1
1
1
1
1
1
1
1
1
1
1
1
1
1
1
1
1
1
1
1
1
1
1
1
1
1
1
1
1
1
1
1
1
1
1
1
1
1
1
1
1
1
1
1
1
1
1
1
1
1
1
1
1
1
1
1
1
1
1
1
1
1
1
1
1
1
1
1
1
1
1
1
1
1
1
1
1
1
1
1
1
1
1
1
1
1
1
1
1
1
1
1
1
1
1
1
1
1
1
1
1
1
1
1
1
1
1
1
1
1
1
1
1
1
1
1
1
1
1
1
1
1
1
1
1
1
1
1
1
1
1
1
1
1
1
1
1
1
1
1
1
1
1
1
1
1
1
1
1
1
1
1
1
1
1
1
1
1
1
1
1
1
1
1
1
1
1
1
1
1
1
1
1
1
1
1
1
1
1
1
1
1
1
1
1
1
1
1
1
1
1
1
1
1
1
1
1
1
1
1
1
1
1
1
1
1
1
1
1
1
1
1
1
1
1
1
1
1
1
1
1
1
1
1
1
1
1
1
1
1
1
1
1
1
1
1
1
1
1
1
1
1
1
1
1
1
1
1
1
1
1
1
1
1
1
1
1
1
1
1
1
1
1
1
1
1
1
1
1
1
1
1
1
1
1
1
1
1
1
1
1
1
1
1
1
1
1
1
1
1
1
1
1
1
1
1
1
1
1
1
1
1
1
1
1
1
1
1
1
1
1
1
1
1
1
1
1
1
1
1
1
1
1
1
1
1
1
1
1
1
1
1
1
1
1
1
1
1
1
1
1
1
1
1
1
1
1
1
1
1
1
1
1
1
1
1
1
1
1
1
1
1
1
1
1
1
1
1
1
1
1
1
1
1
1
1
1
1
1
1
1
1
1
1
1
1
1
1
1
1
1
1
1
1
1
1
1
1
1
1
1
1
1
1
1
1
1
1
1
1
1
1
1
1
1
1
1
1
1
1
1
1
1
1
1
1
1
1
1
1
1
1
1
1
1
1
1
1
1
1
1
1
1
1
1
1
1
1
1
1
1
1
1
1
1
1
1
1
1
1
1
1
1
1
1
1
1
1
1
1
1
1
1
1
1
1
1
1
1
1
1
1
1
1
1
1
1
1
1
1
1
1
1
1
1
1
1
1
1
1
1
1
1
1
1
1
1
1
1
1
1
1
1
1
1
1
1
1
1
1
1
1
1
1
1
1
1
1
1
1
1
1
1
1
1
1
1
1
1
1
1
1
1
1
1
1
1
1
1
1
1
1
1
1
1
1
1
1
1
1
1
1
1
1
1
1
1
1
1
1
1
1
1
1
1
1
1
1
1
1
1
1
1
1
1
1
1
1
1
1
1
1
1
1
1
1
1
1
1
1
1
1
1
1
1
1
1
1
1
1
1
1
1
1
1
1
1
1
1
1
1
1
1
1
1
1
1
1
1
1
1
1
1
1
1
1
1
1
1
1
1
1
1
1
1
1
1
1
1
1
1
1
1
1
1
1
1
1
1
1
1
1
1
1
1
1
1
1
1
1
1
1
1
1
1
1
1
1
1
1
1
1
1
1
1
1
1
1
1
1
1
1
1
1
1
1
1
1
1
1
1
1
1
1
1
1
1
1
1
1
1
1
1
1
1
1
1
1
1
1
1
1
1
1
1
1
1
1
1
1
1
1
1
1
1
1
1
1
1
1
1
1
1
1
1
1
1
1
1
1
1
1
1
1
1
1
1
1
1
1
1
1
1
1
1
1
1
1
1
1
1
1
1
1
1
1
1
1
1
1
1
1
1
1
1
1
1
1
1
1
1
1
1
1
1
1
1
1
1
1
1
1
1
1
1
1
1
1
1
1
1
1
1
1
1
1
1
1
1
1
1
1
1
1
1
1
1
1
1
1
1
1
1
1
1
1
1
1
1
1
1
1
1
1
1
1
1
1
1
1
1
1
1
1
1
1
1
1
1
1
1
1
1
1
1
1
1
1
1
1
1
1
1
1
1
1
1
1
1
1
1
1
1
1
1
1
1
1
1
1
1
1
1
1
1
1
1
1
1
1
1
1
1
1
1
1
1
1
1
1
1
1
1
1
1
1
1
1
1
1
1
1
1
1
1
1
1
1
1
1
1
1
1
1
1
1
1
1
1
1
1
1
1
1
1
1
1
1
1
1
1
1
1
1
1
1
1
1
1
1
1
1
1
1
1
1
1
1
1
1
1
1
1
1
1
1
1
1
1
1
1
1
1
1
1
1
1
1
1
1
1
1
1
1
1
1
1
1
1
1
1
1
1
1
1
1
1
1
1
1
1
1
1
1
1
1
1
1
1
1
1
1
1
1
1
1
1
1
1
1
1
1
1
1
1
1
1
1
1
1
1
1
1
1
1
1
1
1
1
1
1
1
1
1
1
1
1
1
1
1
1
1
1
1
1
1
1
1
1
1
1
1
1
1
1
1
1
1
1
1
1
1
1
1
1
1
1
1
1
1
1
1
1
1
1
1
1
1
1
1
1
1
1
1
1
1
1
1
1
1
1
1
1
1
1
1
1
1
1
1
1
1
1
1
1
1
1
1
1
1
1
1
1
1
1
1
1
1
1
1
1
1
1
1
1
1
1
1
1
1
1
1
1
1
1
1
1
1
1
1
1
1
1
1
1
1
1
1
1
1
1
1
1
1
1
1
1
1
1
1
1
1
1
1
1
1
1
1
1
1
1
1
1
1
1
1
1
1
1
1
1
1
1
1
1
1
1
1
1
1
1
1
1
1
1
1
1
1
1
1
1
1
1
1
1
1
1
1
1
1
1
1
1
1
1
1
1
1
1
1
1
1
1
1
1
1
1
1
1
1
1
1
1
1
1
1
1
1
1
1
1
1
1
1
1
1
1
1
1
1
1
1
1
1
1
1
1
1
1
1
1
1
1
1
1
1
1
1
1
1
1
1
1
1
1
1
1
1
1
1
1
1
1
1
1
1
1
1
1
1
1
1
1
1
1
1
1
1
1
1
1
1
1
1
1
1
1
1
1
1
1
1
1
1
1
1
1
1
1
1
1
1
1
1
1
1
1
1
1
1
1
1
1
1
1
1
1
1
1
1
1
1
1
1
1
1
1
1
1
1
1
1
1
1
1
1
1
1
1
1
1
1
1
1
1
1
1
1
1
1
1
1
1
1
1
1
1
1
1
1
1
1
1
1
1
1
1
1
1
1
1
1
1
1
1
1
1
1
1
1
1
1
1
1
1
1
1
1
1
1
1
1
1
1
1
1
1
1
1
1
1
1
1
1
1
1
1
1
1
1
1
1
1
1
1
1
1
1
1
1
1
1
1
1
1
1
1
1
1
1
1
1
1
1
1
1
1
1
1
1
1
1
1
1
1
1
1
1
1
1
1
1
1
1
1
1
1
1
1
1
1
1
1
1
1
1
1
1
1
1
1
1
1
1
1
1
1
1
1
1
1
1
1
1
1
1
1
1
1
1
1
1
1
1
1
1
1
1
1
1
1
1
1
1
1
1
1
1
1
1
1
1
1
1
1
1
1
1
1
1
1
1
1
1
1
1
1
1
1
1
1
1
1
1
1
1
1
1
1
1
1
1
1
1
1
1
1
1
1
1
1
1
1
1
1
1
1
1
1
1
1
1
1
1
1
1
1
1
1
1
1
1
1
1
1
1
1
1
1
1
1
1
1
1
1
1
1
1
1
1
1
1
1
1
1
1
1
1
1
1
1
1
1
1
1
1
1
1
1
1
1
1
1
1
1
1
1
1
1
1
1
1
1
1
1
1
1
1
1
1
1
1
1
1
1
1
1
1
1
1
1
1
1
1
1
1
1
1
1
1
1
1
1
1
1
1
1
1
1
1
1
1
1
1
1
1
1
1
1
1
1
1
1
1
1
1
1
1
1
1
1
1
1
1
1
1
1
1
1
1
1
1
1
1
1
1
1
1
1
1
1
1
1
1
1
1
1
1
1
1
1
1
1
1
1
1
1
1
1
1
1
1
1
1
1
1
1
1
1
1
1
1
1
1
1
1
1
1
1
1
1
1
1
1
1
1
1
1
1
1
1
1
1
1
1
1
1
1
1
1
1
1
1
1
1
1
1
1
1
1
1
1
1
1
1
1
1
1
1
1
1
1
1
1
1
1
1
1
1
1
1
1
1
1
1
1
1
1
1
1
1
1
1
1
1
1
1
1
1
1
1
1
1
1
1
1
1
1
1
1
1
1
1
1
1
1
1
1
1
1
1
1
1
1
1
1
1
1
1
1
1
1
1
1
1
1
1
1
1
1
1
1
1
1
1
1
1
1
1
1
1
1
1
1
1
1
1
1
1
1
1
1
1
1
1
1
1
1
1
1
1
1
1
1
1
1
1
1
1
1
1
1
1
1
1
1
1
1
1
1
1
1
1
1
1
1
1
1
1
1
1
1
1
1
1
1
1
1
1
1
1
1
1
1
1
1
1
1
1
1
1
1
1
1
1
1
1
1
1
1
1
1
1
1
1
1
1
1
1
1
1
1
1
1
1
1
1
1
1
1
1
1
1
1
1
1
1
1
1
1
1
1
1
1
1
1
1
1
1
1
1
1
1
1
1
1
1
1
1
1
1
1
1
1
1
1
1
1
1
1
1
1
1
1
1
1
1
1
1
1
1
1
1
1
1
1
1
1
1
1
1
1
1
1
1
1
1
1
1
1
1
1
1
1
1
1
1
1
1
1
1
1
1
1
1
1
1
1
1
1
1
1
1
1
1
1
1
1
1
1
1
1
1
1
1
1
1
1
1
1
1
1
1
1
1
1
1
1
1
1
1
1
1
1
1
1
1
1
1
1
1
1
1
1
1
1
1
1
1
1
1
1
1
1
1
1
1
1
1
1
1
1
1
1
1
1
1
1
1
1
1
1
1
1
1
1
1
1
1
1
1
1
1
1
1
1
1
1
1
1
1
1
1
1
1
1
1
1
1
1
1
1
1
1
1
1
1
1
1
1
1
1
1
1
1
1
1
1
1
1
1
1
1
1
1
1
1
1
1
1
1
1
1
1
1
1
1
1
1
1
1
1
1
1
1
1
1
1
1
1
1
1
1
1
1
1
1
1
1
1
1
1
1
1
1
1
1
1
1
1
1
1
1
1
1
1
1
1
1
1
1
1
1
1
1
1
1
1
1
1
1
1
1
1
1
1
1
1
1
1
1
1
1
1
1
1
1
1
1
1
1
1
1
1
1
1
1
1
1
1
1
1
1
1
1
1
1
1
1
1
1
1
1
1
1
1
1
1
1
1
1
1
1
1
1
1
1
1
1
1
1
1
1
1
1
1
1
1
1
1
1
1
1
1
1
1
1
1
1
1
1
1
1
1
1
1
1
1
1
1
1
1
1
1
1
1
1
1
1
1
1
1
1
1
1
1
1
1
1
1
1
1
1
1
1
1
1
1
1
1
1
1
1
1
1
1
1
1
1
1
1
1
1
1
1
1
1
1
1
1
1
1
1
1
1
1
1
1
1
1
1
1
1
1
1
1
1
1
1
1
1
1
1
1
1
1
1
1
1
1
1
1
1
1
1
1
1
1
1
1
1
1
1
1
1
1
1
1
1
1
1
1
1
1
1
1
1
1
1
1
1
1
1
1
1
1
1
1
1
1
1
1
1
1
1
1
1
1
1
1
1
1
1
1
1
1
1
1
1
1
1
1
1
1
1
1
1
1
1
1
1
1
1
1.29257
1.73915
2.32841
2.93964
3.50409
4.19439
4.68728
5.07184
5.33335
5.24797
4.9562
4.49714
4.06506
3.75523
3.6575
3.58563
3.56394
3.59294
3.63206
3.66694
3.69209
3.71079
3.72694
3.74606
3.76288
3.7671
3.76808
3.76493
3.763
3.76142
3.75704
3.75493
3.75699
3.76544
3.78098
3.79323
3.7948
3.79336
3.78905
3.78031
3.7716
3.76991
3.77016
3.77123
3.77398
3.7753
3.77551
3.77302
1.00212
1.01991
1.06358
1.19969
1.41983
1.75307
2.22788
2.74735
3.34055
3.71146
3.92058
4.04813
4.01623
3.93796
3.8444
3.78304
3.72119
3.70614
3.67359
3.66262
3.67286
3.69374
3.71545
3.73807
3.76068
3.76963
3.77382
3.77415
3.76996
3.7671
3.7667
3.76748
3.76977
3.77253
3.77477
3.77773
3.77745
3.77511
3.77103
3.76708
3.76598
3.76648
3.76772
3.77079
3.77602
3.77871
3.77884
3.77844
1
0.999992
0.999992
1.00004
1.00156
1.0124
1.06458
1.21926
1.61003
2.34697
3.32595
3.93946
4.27809
4.3138
4.25137
4.12668
3.97345
3.77059
3.66115
3.64191
3.65139
3.66978
3.68915
3.71406
3.74271
3.76188
3.77167
3.77825
3.78023
3.78121
3.78378
3.78511
3.78644
3.7869
3.78522
3.78057
3.77513
3.76949
3.76427
3.76089
3.76026
3.76059
3.76193
3.76619
3.77327
3.77747
3.77811
3.78065
1
1
1
1
0.999999
0.99998
1.00006
1.00011
1.00555
1.07569
1.39846
2.16619
3.05398
3.96665
4.06201
4.01368
3.99862
3.92816
3.81141
3.73958
3.71363
3.69326
3.6751
3.6818
3.70031
3.71686
3.73512
3.75029
3.75965
3.76636
3.77228
3.77688
3.78072
3.78269
3.78235
3.78027
3.77616
3.7716
3.76821
3.76625
3.76595
3.76679
3.76893
3.7728
3.77752
3.7788
3.77693
3.77788
1
1
1
1
1
0.999999
1
1
1
0.999935
1.00146
1.0493
1.28114
2.00033
2.88412
3.58932
4.05527
4.08286
4.02569
3.93159
3.83957
3.75234
3.71367
3.69756
3.69347
3.70369
3.71632
3.72726
3.73668
3.74437
3.74938
3.75244
3.75637
3.76496
3.77068
3.77119
3.77125
3.7707
3.76981
3.76942
3.77059
3.77342
3.7777
3.78217
3.78503
3.78445
3.78126
3.78052
1
1
1
1
1
1
1
1
1
0.999997
0.999998
0.999953
1.00075
1.02709
1.24866
1.76952
2.73654
3.35388
3.84318
3.92773
3.92215
3.86167
3.80482
3.77535
3.75621
3.73158
3.71324
3.71036
3.71497
3.73135
3.74798
3.75891
3.76739
3.77434
3.77605
3.77601
3.7761
3.77542
3.77356
3.77233
3.77276
3.77473
3.77853
3.78152
3.78086
3.77782
3.7726
3.76991
1
1
1
1
1
1
1
1
1
1
1
0.999997
0.999998
0.999961
1.00076
1.01535
1.18922
1.69533
2.55883
3.26496
3.60578
3.82531
3.83854
3.83099
3.78806
3.74716
3.73554
3.72774
3.72333
3.72746
3.74213
3.76403
3.78394
3.7875
3.78486
3.78257
3.78124
3.77985
3.77611
3.7731
3.77155
3.77164
3.77516
3.7768
3.77484
3.77136
3.76571
3.76439
1
1
1
1
1
1
1
1
1
1
1
1
1
0.999997
0.999998
0.999975
1.00056
1.01561
1.13304
1.63209
2.33137
3.256
3.54967
3.67434
3.7163
3.69152
3.70552
3.71055
3.70374
3.70735
3.72201
3.7414
3.75751
3.77034
3.77643
3.77608
3.7739
3.77014
3.76811
3.76732
3.76729
3.77181
3.777
3.77818
3.77762
3.77625
3.77265
3.77157
1
1
1
1
1
1
1
1
1
1
1
1
1
1
1
0.999998
0.999998
0.999982
1.00025
1.0151
1.11019
1.52788
2.29964
3.06222
3.59129
3.67433
3.72
3.71967
3.70416
3.7016
3.70394
3.71457
3.72486
3.73684
3.74872
3.75573
3.75942
3.76102
3.76305
3.76532
3.76751
3.77245
3.77671
3.77849
3.77982
3.77918
3.77628
3.77422
1
1
1
1
1
1
1
1
1
1
1
1
1
1
1
1
1
0.999999
0.999998
0.999985
1.00025
1.00994
1.12745
1.47649
2.25206
2.94908
3.51068
3.71508
3.73809
3.73904
3.74575
3.74316
3.73729
3.73623
3.74223
3.74985
3.75347
3.75714
3.76079
3.76441
3.77045
3.77467
3.77511
3.77606
3.77816
3.77763
3.77465
3.77223
1
1
1
1
1
1
1
1
1
1
1
1
1
1
1
1
1
1
1
0.999998
0.999998
0.999985
1.0005
1.00852
1.1162
1.49056
2.22375
2.93239
3.39318
3.64902
3.74457
3.76227
3.76124
3.75968
3.75315
3.75541
3.76499
3.77127
3.77762
3.78379
3.7889
3.78906
3.78557
3.78293
3.7807
3.77685
3.77251
3.76965
1
1
1
1
1
1
1
1
1
1
1
1
1
1
1
1
1
1
1
1
1
0.999998
0.999998
0.999988
1.00056
1.01136
1.10159
1.52512
2.21809
3.07804
3.40043
3.55463
3.66995
3.72628
3.7269
3.73391
3.74825
3.76166
3.77269
3.78023
3.78296
3.78371
3.78233
3.78136
3.78174
3.78065
3.7779
3.77615
1
1
1
1
1
1
1
1
1
1
1
1
1
1
1
1
1
1
1
1
1
1
1
0.999998
0.999999
0.999991
1.00046
1.01696
1.11509
1.5697
2.30718
3.14241
3.5582
3.61716
3.66307
3.68693
3.70569
3.72602
3.74251
3.75448
3.76347
3.76959
3.77231
3.77071
3.76994
3.76964
3.76936
3.77071
1
1
1
1
1
1
1
1
1
1
1
1
1
1
1
1
1
1
1
1
1
1
1
1
1
0.999999
0.999998
1
1.00068
1.02127
1.16232
1.64857
2.46837
3.19593
3.63251
3.72241
3.7386
3.75781
3.75792
3.75639
3.76087
3.76452
3.76398
3.76213
3.76145
3.76084
3.76221
3.76557
1
1
1
1
1
1
1
1
1
1
1
1
1
1
1
1
1
1
1
1
1
1
1
1
1
1
1
1
0.999998
1.00002
1.00156
1.02826
1.24721
1.81118
2.66949
3.29046
3.64116
3.76985
3.78281
3.78798
3.78624
3.78316
3.77994
3.77517
3.77515
3.77501
3.77579
3.77732
1
1
1
1
1
1
1
1
1
1
1
1
1
1
1
1
1
1
1
1
1
1
1
1
1
1
1
1
1
1
0.999997
1.00006
1.00425
1.04893
1.37344
2.08657
2.99769
3.39439
3.58204
3.73227
3.7592
3.75765
3.76214
3.77133
3.7777
3.78214
3.78519
3.78606
1
1
1
1
1
1
1
1
1
1
1
1
1
1
1
1
1
1
1
1
1
1
1
1
1
1
1
1
1
1
1
1
0.999996
1.00023
1.01192
1.10302
1.58105
2.4014
3.32551
3.60896
3.6713
3.69338
3.70503
3.72755
3.74917
3.76244
3.77114
3.77635
1
1
1
1
1
1
1
1
1
1
1
1
1
1
1
1
1
1
1
1
1
1
1
1
1
1
1
1
1
1
1
1
0.999999
0.999999
1.00001
1.00097
1.03164
1.22375
1.9309
2.82991
3.49302
3.71928
3.73856
3.76703
3.76906
3.76665
3.76767
3.77394
1
1
1
1
1
1
1
1
1
1
1
1
1
1
1
1
1
1
1
1
1
1
1
1
1
1
1
1
1
1
1
1
1
1
1
0.999998
1.00015
1.00452
1.09037
1.48365
2.39
3.16201
3.62188
3.78382
3.79644
3.79816
3.79619
3.79517
1
1
1
1
1
1
1
1
1
1
1
1
1
1
1
1
1
1
1
1
1
1
1
1
1
1
1
1
1
1
1
1
1
1
1
1
1
1
1.00113
1.02056
1.2486
1.95522
3.00395
3.45113
3.60696
3.72151
3.76226
3.76504
1
1
1
1
1
1
1
1
1
1
1
1
1
1
1
1
1
1
1
1
1
1
1
1
1
1
1
1
1
1
1
1
1
1
1
1
1
1
0.999999
1.00009
1.00806
1.09706
1.61005
2.56222
3.43905
3.67346
3.71487
3.72177
1
1
1
1
1
1
1
1
1
1
1
1
1
1
1
1
1
1
1
1
1
1
1
1
1
1
1
1
1
1
1
1
1
1
1
1
1
1
1
1
1.00002
1.00137
1.04378
1.3375
2.23918
3.18468
3.69309
3.78093
1
1
1
1
1
1
1
1
1
1
1
1
1
1
1
1
1
1
1
1
1
1
1
1
1
1
1
1
1
1
1
1
1
1
1
1
1
1
1
1
1
1
1.00045
1.01371
1.21663
1.92638
2.93503
3.41391
1
1
1
1
1
1
1
1
1
1
1
1
1
1
1
1
1
1
1
1
1
1
1
1
1
1
1
1
1
1
1
1
1
1
1
1
1
1
1
1
1
1
0.999999
1.00008
1.0073
1.09554
1.69643
2.64648
1
1
1
1
1
1
1
1
1
1
1
1
1
1
1
1
1
1
1
1
1
1
1
1
1
1
1
1
1
1
1
1
1
1
1
1
1
1
1
1
1
1
1
1
1.00003
1.00181
1.07452
1.42814
1
1
1
1
1
1
1
1
1
1
1
1
1
1
1
1
1
1
1
1
1
1
1
1
1
1
1
1
1
1
1
1
1
1
1
1
1
1
1
1
1
1
1
1
1
1
1.00184
1.01726
1
1
1
1
1
1
1
1
1
1
1
1
1
1
1
1
1
1
1
1
1
1
1
1
1
1
1
1
1
1
1
1
1
1
1
1
1
1
1
1
1
1
1
1
1
1
1.00002
0.999843
1
1
1
1
1
1
1
1
1
1
1
1
1
1
1
1
1
1
1
1
1
1
1
1
1
1
1
1
1
1
1
1
1
1
1
1
1
1
1
1
1
1
1
1
1
1
1
0.999944
1
1
1
1
1
1
1
1
1
1
1
1
1
1
1
1
1
1
1
1
1
1
1
1
1
1
1
1
1
1
1
1
1
1
1
1
1
1
1
1
1
1
1
1
1
1
1
0.999991
1
1
1
1
1
1
1
1
1
1
1
1
1
1
1
1
1
1
1
1
1
1
1
1
1
1
1
1
1
1
1
1
1
1
1
1
1
1
1
1
1
1
1
1
1
1
1
1
1
1
1
1
1
1
1
1
1
1
1
1
1
1
1
1
1
1
1
1
1
1
1
1
1
1
1
1
1
1
1
1
1
1
1
1
1
1
1
1
1
1
1
1
1
1
1
1
1
1
1
1
1
1
1
1
1
1
1
1
1
1
1
1
1
1
1
1
1
1
1
1
1
1
1
1
1
1
1
1
1
1
1
1
1
1
1
1
1
1
1
1
1
1
1
1
1
1
1
1
1
1
1
1
1
1
1
1
1
1
1
1
1
1
1
1
1
1
1
1
1
1
1
1
1
1
1
1
1
1
1
1
1
1
1
1
1
1
1
1
1
1
1
1
1
1
1
1
1
1
1
1
1
1
1
1
1
1
1
1
1
1
1
1
1
1
1
1
1
1
1
1
1
1
1
1
1
1
1
1
1
1
1
1
1
1
1
1
1
1
1
1
1
1
1
1
1
1
1
1
1
1
1
1
1
1
1
1
1
1
1
1
1
1
1
1
1
1
1
1
1
1
1
1
1
1
1
1
1
1
1
1
1
1
1
1
1
1
1
1
1
1
1
1
1
1
1
1
1
1
1
1
1
1
1
1
1
1
1
1
1
1
1
1
1
1
1
1
1
1
1
1
1
1
1
1
1
1
1
1
1
1
1
1
1
1
1
0.999991
1
1
1
1
1
1
1
1
1
1
1
1
1
1
1
1
1
1
1
1
1
1
1
1
1
1
1
1
1
1
1
1
1
1
1
1
1
1
1
1
1
1
1
1
1
1
1
0.999944
1
1
1
1
1
1
1
1
1
1
1
1
1
1
1
1
1
1
1
1
1
1
1
1
1
1
1
1
1
1
1
1
1
1
1
1
1
1
1
1
1
1
1
1
1
1
1.00002
0.99984
1
1
1
1
1
1
1
1
1
1
1
1
1
1
1
1
1
1
1
1
1
1
1
1
1
1
1
1
1
1
1
1
1
1
1
1
1
1
1
1
1
1
1
1
1
1
1.00183
1.01743
1
1
1
1
1
1
1
1
1
1
1
1
1
1
1
1
1
1
1
1
1
1
1
1
1
1
1
1
1
1
1
1
1
1
1
1
1
1
1
1
1
1
1
1
1.00003
1.00181
1.07446
1.42878
1
1
1
1
1
1
1
1
1
1
1
1
1
1
1
1
1
1
1
1
1
1
1
1
1
1
1
1
1
1
1
1
1
1
1
1
1
1
1
1
1
1
0.999999
1.00008
1.0073
1.0955
1.69705
2.64514
1
1
1
1
1
1
1
1
1
1
1
1
1
1
1
1
1
1
1
1
1
1
1
1
1
1
1
1
1
1
1
1
1
1
1
1
1
1
1
1
1
1
1.00045
1.01372
1.21661
1.92631
2.93538
3.41356
1
1
1
1
1
1
1
1
1
1
1
1
1
1
1
1
1
1
1
1
1
1
1
1
1
1
1
1
1
1
1
1
1
1
1
1
1
1
1
1
1.00002
1.00137
1.04378
1.33753
2.23939
3.18433
3.69316
3.78151
1
1
1
1
1
1
1
1
1
1
1
1
1
1
1
1
1
1
1
1
1
1
1
1
1
1
1
1
1
1
1
1
1
1
1
1
1
1
0.999999
1.00009
1.00806
1.09703
1.61005
2.56224
3.4393
3.67316
3.71468
3.72204
1
1
1
1
1
1
1
1
1
1
1
1
1
1
1
1
1
1
1
1
1
1
1
1
1
1
1
1
1
1
1
1
1
1
1
1
1
1
1.00113
1.02056
1.24861
1.95514
3.00394
3.45113
3.60708
3.72144
3.76205
3.7651
1
1
1
1
1
1
1
1
1
1
1
1
1
1
1
1
1
1
1
1
1
1
1
1
1
1
1
1
1
1
1
1
1
1
1
0.999998
1.00015
1.00452
1.09037
1.48367
2.38998
3.16198
3.62191
3.78384
3.79647
3.79814
3.79612
3.79515
1
1
1
1
1
1
1
1
1
1
1
1
1
1
1
1
1
1
1
1
1
1
1
1
1
1
1
1
1
1
1
1
0.999999
0.999999
1.00001
1.00097
1.03164
1.22375
1.9309
2.82992
3.49299
3.7193
3.73861
3.76703
3.76907
3.76665
3.76765
3.7739
1
1
1
1
1
1
1
1
1
1
1
1
1
1
1
1
1
1
1
1
1
1
1
1
1
1
1
1
1
1
1
1
0.999996
1.00023
1.01192
1.10302
1.58105
2.40139
3.32553
3.60894
3.67129
3.6934
3.70505
3.72755
3.74916
3.76242
3.77111
3.77632
1
1
1
1
1
1
1
1
1
1
1
1
1
1
1
1
1
1
1
1
1
1
1
1
1
1
1
1
1
1
0.999997
1.00006
1.00425
1.04893
1.37344
2.08658
2.99768
3.39438
3.58206
3.73226
3.75919
3.75767
3.76215
3.77133
3.77768
3.78213
3.78518
3.78605
1
1
1
1
1
1
1
1
1
1
1
1
1
1
1
1
1
1
1
1
1
1
1
1
1
1
1
1
0.999998
1.00002
1.00156
1.02826
1.24721
1.81118
2.66948
3.29046
3.64115
3.76985
3.78281
3.78798
3.78624
3.78316
3.77994
3.77517
3.77514
3.775
3.77579
3.77732
1
1
1
1
1
1
1
1
1
1
1
1
1
1
1
1
1
1
1
1
1
1
1
1
1
0.999999
0.999998
1
1.00068
1.02127
1.16232
1.64857
2.46837
3.19593
3.63251
3.72241
3.73859
3.75781
3.75792
3.75639
3.76087
3.76453
3.76398
3.76213
3.76144
3.76083
3.76221
3.76557
1
1
1
1
1
1
1
1
1
1
1
1
1
1
1
1
1
1
1
1
1
1
1
0.999998
0.999999
0.999991
1.00046
1.01696
1.11509
1.5697
2.30718
3.14241
3.55821
3.61716
3.66307
3.68693
3.70569
3.72602
3.74251
3.75448
3.76347
3.76959
3.77231
3.77071
3.76994
3.76964
3.76936
3.77071
1
1
1
1
1
1
1
1
1
1
1
1
1
1
1
1
1
1
1
1
1
0.999998
0.999998
0.999988
1.00056
1.01136
1.10159
1.52512
2.21809
3.07804
3.40044
3.55463
3.66995
3.72628
3.7269
3.73391
3.74825
3.76166
3.77269
3.78023
3.78296
3.78371
3.78233
3.78136
3.78174
3.78065
3.7779
3.77615
1
1
1
1
1
1
1
1
1
1
1
1
1
1
1
1
1
1
1
0.999998
0.999998
0.999985
1.0005
1.00852
1.1162
1.49056
2.22375
2.93239
3.39317
3.64902
3.74457
3.76227
3.76124
3.75968
3.75315
3.75541
3.76499
3.77127
3.77762
3.78379
3.7889
3.78906
3.78557
3.78293
3.7807
3.77685
3.77251
3.76965
1
1
1
1
1
1
1
1
1
1
1
1
1
1
1
1
1
0.999999
0.999998
0.999985
1.00025
1.00994
1.12745
1.47649
2.25206
2.94908
3.51068
3.71508
3.73809
3.73904
3.74575
3.74316
3.7373
3.73623
3.74223
3.74985
3.75347
3.75714
3.76079
3.76441
3.77045
3.77467
3.77511
3.77606
3.77816
3.77763
3.77465
3.77223
1
1
1
1
1
1
1
1
1
1
1
1
1
1
1
0.999998
0.999998
0.999982
1.00025
1.0151
1.11019
1.52788
2.29964
3.06222
3.59129
3.67433
3.72
3.71967
3.70416
3.7016
3.70394
3.71457
3.72486
3.73684
3.74872
3.75573
3.75942
3.76102
3.76305
3.76532
3.76751
3.77245
3.77671
3.77849
3.77982
3.77918
3.77628
3.77422
1
1
1
1
1
1
1
1
1
1
1
1
1
0.999997
0.999998
0.999975
1.00056
1.01561
1.13304
1.63209
2.33137
3.256
3.54967
3.67434
3.7163
3.69152
3.70552
3.71055
3.70374
3.70735
3.72201
3.7414
3.75751
3.77034
3.77643
3.77608
3.7739
3.77014
3.76811
3.76732
3.76729
3.77181
3.777
3.77818
3.77762
3.77625
3.77265
3.77157
1
1
1
1
1
1
1
1
1
1
1
0.999997
0.999998
0.999961
1.00076
1.01535
1.18922
1.69533
2.55883
3.26496
3.60578
3.82531
3.83854
3.83099
3.78806
3.74715
3.73554
3.72774
3.72333
3.72746
3.74213
3.76403
3.78394
3.7875
3.78486
3.78257
3.78124
3.77985
3.77611
3.7731
3.77155
3.77164
3.77516
3.7768
3.77484
3.77136
3.76571
3.76439
1
1
1
1
1
1
1
1
1
0.999997
0.999998
0.999953
1.00075
1.02709
1.24866
1.76952
2.73654
3.35388
3.84318
3.92773
3.92215
3.86167
3.80482
3.77535
3.75621
3.73158
3.71324
3.71036
3.71497
3.73135
3.74798
3.75891
3.76739
3.77434
3.77605
3.77601
3.7761
3.77542
3.77356
3.77233
3.77276
3.77473
3.77853
3.78152
3.78086
3.77782
3.7726
3.76991
1
1
1
1
1
0.999999
1
1
1
0.999935
1.00146
1.0493
1.28114
2.00033
2.88412
3.58931
4.05527
4.08286
4.02569
3.93159
3.83957
3.75234
3.71367
3.69756
3.69347
3.70369
3.71632
3.72726
3.73668
3.74437
3.74938
3.75244
3.75637
3.76496
3.77068
3.77119
3.77125
3.7707
3.76981
3.76942
3.77059
3.77341
3.7777
3.78217
3.78503
3.78445
3.78126
3.78052
1
1
1
1
0.999999
0.99998
1.00006
1.00011
1.00555
1.07569
1.39846
2.16619
3.05398
3.96665
4.06201
4.01368
3.99862
3.92816
3.81141
3.73958
3.71363
3.69326
3.6751
3.6818
3.70031
3.71686
3.73512
3.75029
3.75965
3.76636
3.77228
3.77688
3.78072
3.78269
3.78235
3.78027
3.77616
3.7716
3.76821
3.76625
3.76595
3.76679
3.76893
3.7728
3.77752
3.7788
3.77693
3.77788
1
0.999992
0.999992
1.00004
1.00156
1.0124
1.06458
1.21926
1.61003
2.34697
3.32595
3.93946
4.27809
4.3138
4.25137
4.12668
3.97345
3.77059
3.66115
3.64191
3.65139
3.66978
3.68915
3.71406
3.74271
3.76188
3.77167
3.77825
3.78023
3.78121
3.78378
3.78511
3.78644
3.7869
3.78522
3.78057
3.77513
3.76949
3.76427
3.76089
3.76026
3.76059
3.76193
3.76619
3.77327
3.77747
3.77811
3.78065
1.00212
1.01991
1.06358
1.19969
1.41983
1.75307
2.22788
2.74735
3.34055
3.71146
3.92058
4.04813
4.01623
3.93796
3.8444
3.78304
3.72119
3.70614
3.67359
3.66262
3.67286
3.69374
3.71545
3.73807
3.76068
3.76963
3.77382
3.77415
3.76996
3.7671
3.7667
3.76748
3.76977
3.77253
3.77477
3.77773
3.77745
3.77511
3.77103
3.76708
3.76598
3.76648
3.76772
3.77079
3.77602
3.77871
3.77884
3.77844
1.29257
1.73915
2.32841
2.93964
3.50409
4.19439
4.68728
5.07184
5.33335
5.24797
4.9562
4.49714
4.06506
3.75523
3.65749
3.58563
3.56394
3.59294
3.63206
3.66694
3.69209
3.71079
3.72694
3.74606
3.76288
3.7671
3.76808
3.76493
3.763
3.76142
3.75704
3.75493
3.75699
3.76544
3.78098
3.79323
3.7948
3.79336
3.78905
3.78031
3.7716
3.76991
3.77016
3.77123
3.77398
3.7753
3.77551
3.77302
2.66025
1.66945
1.15646
0.886523
0.660811
0.63287
0.673658
0.743892
0.773061
0.820892
0.937198
1.00628
0.999227
1.00261
1.03169
1.04141
1.04436
1.056
1.07717
1.07774
1.07278
1.06657
1.06572
1.05977
1.0498
1.04925
1.05175
1.05171
1.04953
1.04555
1.041
1.03627
1.03516
1.03565
1.03786
1.0432
1.04769
1.04866
1.0489
1.04831
1.04604
1.04608
1.04753
1.04978
1.0509
1.05065
1.0496
1.0488
1.0587
1.24589
1.82908
3.17436
5.26739
7.8013
10.2509
10.1525
9.35431
8.4245
8.10909
7.89875
7.64878
7.47177
7.37237
7.34397
7.26688
7.12281
6.92308
6.60501
6.25224
6.09275
6.01999
5.98905
5.99661
5.94707
5.86375
5.72012
5.45032
5.22931
5.14815
5.09002
5.04263
4.98629
4.91585
4.80237
4.61638
4.49628
4.45472
4.42287
4.40483
4.37077
4.32357
4.24582
4.07688
3.87143
3.78441
3.7481
3.7169
3.6882
3.65738
3.62142
3.58307
3.53871
3.44741
3.32296
3.25043
3.21219
3.17759
3.13674
3.08842
3.02221
2.95457
2.92055
2.89946
2.87812
2.85405
2.82181
2.76537
2.66717
2.5808
2.5477
2.52975
2.51519
2.50483
2.49063
2.46976
2.43288
2.35894
2.27012
2.23616
2.22423
2.21286
2.19951
2.18308
2.16446
2.13666
2.08536
2.02742
2.00168
1.98759
1.97293
1.95653
1.93435
1.89708
1.873
1.8881
2.00068
2.34867
3.03822
3.86459
4.58443
5.14113
5.55921
5.58941
5.44146
5.22819
5.16555
5.15465
5.14027
5.09
5.02724
4.92194
4.77425
4.70663
4.68259
4.66575
4.67961
4.69052
4.66476
4.63287
4.57862
4.47106
4.37984
4.35035
4.3298
4.31401
4.29508
4.2684
4.23891
4.18936
4.08461
3.97846
3.9441
3.93028
3.92378
3.94982
3.97851
3.96553
3.94305
3.90973
3.82865
3.69483
3.61738
3.38554
2.74389
2.13241
1.81207
1.48579
1.20257
1.14068
1.06234
0.973298
0.954006
0.95578
0.93642
0.920328
0.925784
0.951088
0.980295
0.994217
1.01082
1.03897
1.04279
1.03924
1.04085
1.04812
1.04919
1.04792
1.0491
1.05458
1.05536
1.05279
1.04932
1.04597
1.04302
1.04219
1.04175
1.04327
1.04731
1.04909
1.04922
1.04905
1.04805
1.04632
1.04565
1.04632
1.04791
1.04806
1.04683
1.0469
1.05696
1.23056
1.97946
2.77704
3.22665
3.97694
4.81568
6.61593
8.03187
8.62006
8.47063
8.25832
7.96474
7.6655
7.5018
7.40062
7.30376
7.20369
7.07515
6.9187
6.6837
6.38898
6.16417
6.04417
5.9732
5.9258
5.87799
5.79797
5.68714
5.50261
5.29031
5.17481
5.10627
5.04486
4.98474
4.9205
4.8328
4.68569
4.52293
4.44384
4.40302
4.36602
4.33071
4.28165
4.21303
4.0953
3.92649
3.80975
3.75817
3.72382
3.69095
3.66575
3.64524
3.60602
3.52715
3.42285
3.33026
3.26507
3.21628
3.1797
3.15239
3.11543
3.06009
2.99578
2.95009
2.92187
2.89819
2.87191
2.83587
2.77604
2.68679
2.60661
2.56636
2.54094
2.51877
2.49966
2.48363
2.46662
2.43904
2.37867
2.29677
2.24663
2.22659
2.21283
2.20518
2.20085
2.1842
2.15915
2.11616
2.0568
2.02216
2.00534
1.99019
1.97386
1.95254
1.93666
1.95609
2.08823
2.42323
2.84699
3.16714
3.49498
3.94995
4.33654
4.74156
4.92945
5.08511
5.17517
5.20018
5.20787
5.17612
5.11708
5.04206
4.94548
4.81413
4.72385
4.69284
4.67985
4.69338
4.70541
4.6799
4.64386
4.59101
4.49579
4.39631
4.36077
4.34132
4.32397
4.30286
4.27484
4.24197
4.19574
4.12214
4.02491
3.96005
3.93901
3.92893
3.92867
3.94103
3.9393
3.92208
3.89334
3.83192
3.73549
3.6454
3.66594
3.3462
2.84519
2.37854
1.99749
1.63104
1.42402
1.28249
1.09788
0.998188
0.987373
0.94808
0.918956
0.923034
0.935822
0.947356
0.955366
0.970783
0.998253
1.01478
1.01996
1.02462
1.03438
1.03993
1.04151
1.04748
1.05547
1.05772
1.05722
1.0544
1.04914
1.04607
1.0453
1.04525
1.04727
1.04872
1.04844
1.04806
1.04668
1.04481
1.04446
1.04471
1.04626
1.04794
1.04742
1.04944
1.07081
1.23659
2.09596
2.94313
3.32097
3.43995
3.49372
3.56541
4.11244
5.87932
7.85814
8.61277
8.47059
8.07268
7.72807
7.55407
7.37861
7.17875
7.03312
6.93283
6.83123
6.69964
6.52181
6.32295
6.11664
5.96403
5.88222
5.7984
5.69927
5.58986
5.47329
5.33509
5.21245
5.13481
5.06219
4.98646
4.90334
4.81075
4.70328
4.55965
4.43863
4.38684
4.34143
4.28652
4.21883
4.13961
4.05715
3.96918
3.86261
3.77921
3.73739
3.71027
3.67881
3.63482
3.56892
3.46907
3.37124
3.3199
3.28213
3.2364
3.1879
3.13535
3.08306
3.02707
2.97262
2.92654
2.8865
2.85129
2.82079
2.78605
2.73523
2.67079
2.61934
2.57968
2.55018
2.52885
2.50771
2.48133
2.44816
2.4048
2.34974
2.29328
2.25629
2.23577
2.2187
2.19997
2.18044
2.16281
2.13908
2.09975
2.04268
1.99716
1.98013
1.96998
1.96674
1.97331
2.02718
2.22939
2.60924
2.95664
3.22518
3.29305
3.35062
3.42794
3.60175
3.92498
4.41661
4.83107
5.06117
5.20374
5.22511
5.19157
5.11288
5.03422
4.95223
4.84755
4.7443
4.69448
4.67431
4.6618
4.66021
4.64119
4.60934
4.56982
4.51606
4.43838
4.35179
4.31076
4.28689
4.26483
4.24001
4.2102
4.17391
4.13553
4.08865
4.01311
3.9547
3.93572
3.92366
3.91282
3.89435
3.87106
3.84101
3.79708
3.75456
3.68907
3.75485
3.62594
3.31826
2.90103
2.50908
2.11297
1.82037
1.62792
1.41792
1.23588
1.18433
1.10983
1.00696
0.996359
0.990052
0.96626
0.946912
0.950098
0.953867
0.956353
0.961329
0.971699
0.993686
1.01713
1.02987
1.04074
1.04881
1.05006
1.05109
1.04925
1.04558
1.04581
1.04912
1.0552
1.05866
1.05835
1.0566
1.05341
1.04863
1.04654
1.04649
1.0467
1.04715
1.04809
1.05358
1.11724
1.37733
2.08997
3.20552
3.36419
3.43248
3.46598
3.49539
3.42392
3.35005
3.63201
4.95578
7.09171
7.87956
7.93523
7.84959
7.66674
7.40417
7.1195
6.91536
6.82991
6.75952
6.67013
6.56992
6.43479
6.24035
6.01822
5.84138
5.7357
5.63587
5.53928
5.45839
5.3802
5.26474
5.12837
5.03141
4.95506
4.88299
4.81583
4.73897
4.62655
4.48962
4.36545
4.28927
4.22275
4.15396
4.08658
4.03077
3.98207
3.92381
3.8482
3.76901
3.70547
3.64885
3.58512
3.5082
3.43104
3.37175
3.32222
3.27041
3.22582
3.19153
3.1467
3.08137
3.01747
2.96992
2.93065
2.89068
2.84505
2.79784
2.75667
2.72129
2.68816
2.65124
2.61274
2.57813
2.54043
2.49831
2.46013
2.42379
2.38323
2.33896
2.30105
2.2746
2.2549
2.23429
2.20769
2.17617
2.15165
2.12885
2.09565
2.04609
2.00088
1.98433
1.9822
2.00375
2.13847
2.44702
2.83549
3.18377
3.32953
3.36308
3.34198
3.30941
3.28417
3.29634
3.3774
3.65335
4.06994
4.59424
4.91537
5.04147
5.09791
5.09646
5.04213
4.96082
4.86854
4.78826
4.73558
4.69511
4.66793
4.64658
4.62223
4.59335
4.56453
4.53348
4.47146
4.37548
4.30265
4.26898
4.24121
4.21824
4.1981
4.1812
4.16544
4.13654
4.07911
3.99645
3.93471
3.9115
3.88948
3.86107
3.82816
3.80223
3.78684
3.77601
3.72707
3.76842
3.73623
3.58956
3.29938
2.96438
2.55585
2.22073
1.9931
1.73423
1.50333
1.3878
1.2889
1.14621
1.08642
1.05466
1.00305
0.956984
0.956975
0.955477
0.94712
0.949285
0.955548
0.96745
0.987509
1.00988
1.02419
1.03182
1.03433
1.03786
1.04016
1.03889
1.03899
1.04795
1.05727
1.05833
1.05784
1.05617
1.05335
1.05064
1.05049
1.05135
1.05231
1.05168
1.05513
1.14274
1.6639
2.37152
3.17364
3.53004
3.49671
3.42765
3.42823
3.4415
3.41823
3.31985
3.2311
3.3294
4.25101
6.05856
7.4759
7.86914
7.77358
7.45317
7.16462
6.89993
6.74865
6.65424
6.58361
6.5129
6.41877
6.30489
6.10094
5.85083
5.68877
5.5998
5.52089
5.44389
5.36002
5.2601
5.1169
4.99071
4.91851
4.85655
4.7908
4.72014
4.64187
4.52443
4.34987
4.21798
4.15152
4.10563
4.06735
4.02831
3.99601
3.9649
3.91747
3.81551
3.68332
3.59249
3.52491
3.46447
3.41262
3.36703
3.32221
3.28451
3.25054
3.19397
3.11917
3.05451
3.01098
2.97633
2.93811
2.89146
2.84221
2.78765
2.73571
2.69758
2.66814
2.64164
2.6149
2.58511
2.54644
2.50411
2.45626
2.40649
2.36703
2.33153
2.30094
2.28114
2.26202
2.23814
2.2079
2.18059
2.14915
2.1125
2.07658
2.04364
2.01524
2.01851
2.06854
2.26297
2.69068
3.08381
3.35575
3.44687
3.4228
3.36382
3.32612
3.29927
3.27483
3.26912
3.27688
3.31892
3.4629
3.76757
4.27309
4.69047
4.95238
5.05639
5.00934
4.94213
4.89289
4.85365
4.80601
4.74013
4.65648
4.60636
4.5848
4.57057
4.54719
4.51547
4.47361
4.39519
4.29628
4.2514
4.2273
4.20608
4.18861
4.17158
4.15247
4.13151
4.10149
4.04183
3.95533
3.8917
3.85963
3.83269
3.80796
3.78658
3.76515
3.74673
3.71246
3.76796
3.75288
3.70379
3.5479
3.30894
2.96816
2.60312
2.33843
2.07859
1.82736
1.66702
1.53436
1.36608
1.26889
1.21284
1.14457
1.05866
1.04222
1.01777
0.980518
0.9701
0.972902
0.971838
0.968312
0.97456
0.984662
0.989168
0.995727
1.00491
1.01742
1.02477
1.03055
1.04378
1.05406
1.05516
1.05539
1.05469
1.05147
1.05105
1.05181
1.05351
1.05475
1.0603
1.1418
1.77507
2.72744
3.2676
3.55403
3.57057
3.51869
3.41745
3.35058
3.33979
3.34565
3.3121
3.2343
3.13469
3.1533
3.67531
5.21447
6.86205
7.40773
7.41925
7.25886
6.99567
6.69955
6.54064
6.45919
6.4356
6.38507
6.28242
6.13582
5.89388
5.68283
5.58368
5.50829
5.4318
5.35257
5.25557
5.11015
4.94735
4.87134
4.82131
4.77433
4.72535
4.66591
4.55285
4.35939
4.18513
4.1202
4.08206
4.06192
4.06901
4.04886
4.00354
3.92693
3.78145
3.6176
3.54121
3.49906
3.45968
3.41931
3.38174
3.345
3.30517
3.24703
3.16046
3.08445
3.03906
3.00638
2.97678
2.94686
2.90932
2.84556
2.76681
2.71175
2.68338
2.6659
2.65442
2.63946
2.6148
2.57805
2.51659
2.43748
2.37819
2.34933
2.3351
2.32408
2.30797
2.28767
2.26302
2.22857
2.18005
2.12559
2.08803
2.06625
2.05811
2.07715
2.1809
2.44864
2.92663
3.31515
3.45019
3.50599
3.49466
3.44454
3.36628
3.31904
3.31146
3.30949
3.29777
3.27784
3.27643
3.27032
3.30471
3.45855
3.8544
4.34665
4.70818
4.82324
4.89537
4.94174
4.93123
4.8715
4.77991
4.66985
4.58774
4.56121
4.5491
4.5314
4.50234
4.46446
4.40061
4.30429
4.24163
4.21785
4.19617
4.17954
4.1677
4.15548
4.14057
4.11926
4.06991
3.97738
3.88628
3.84463
3.82165
3.79802
3.77396
3.75139
3.73596
3.70302
3.76306
3.75633
3.73248
3.67227
3.53124
3.26793
2.9693
2.69081
2.38725
2.13971
1.95357
1.79048
1.60987
1.48396
1.38874
1.28827
1.1779
1.13259
1.09343
1.03364
0.991461
0.992473
0.984671
0.972827
0.977334
0.979418
0.974858
0.972669
0.97565
0.984529
1.00035