/*--------------------------------*- C++ -*----------------------------------*\
  =========                 |
  \\      /  F ield         | OpenFOAM: The Open Source CFD Toolbox
   \\    /   O peration     | Website:  https://openfoam.org
    \\  /    A nd           | Version:  7
     \\/     M anipulation  |
\*---------------------------------------------------------------------------*/
FoamFile
{
    version     2.0;
    format      ascii;
    class       volScalarField;
    location    "3.3";
    object      T;
}
// * * * * * * * * * * * * * * * * * * * * * * * * * * * * * * * * * * * * * //

dimensions      [0 0 0 1 0 0 0];

internalField   nonuniform List<scalar> 
18432
(
1
1
1
1
1
1
1
1
1
1
1
1
1
1
1
1
1
1
1
1
1
1
1
1
1
1
1
1
1
1
1
1
1
1
1
1
1
1
1
1
1
1
1
1
1
1
1
1
1
1
1
1
1
1
1
1
1
1
1
1
1
1
1
1
1
1
1
1
1
1
1
1
1
1
1
1
1
1
1
1
1
1
1
1
1
1
1
1
1
1
1
1
1
1
1
1
1
1
1
1
1
1
1
1
1
1
1
1
1
1
1
1
1
1
1
1
1
1
1
1
1
1
1
1
1
1
1
1
1
1
1
1
1
1
1
1
1
1
1
1
1
1
1
1
1
1
1
1
1
1
1
1
1
1
1
1
1
1
1
1
1
1
1
1
1
1
1
1
1
1
1
1
1
1
1
1
1
1
1
1
1
1
1
1
1
1
1
1
1
1
1
1
1
1
1
1
1
1
1
1
1
1
1
1
1
1
1
1
1
1
1
1
1
1
1
1
1
1
1
1
1
1
1
1
1
1
1
1
1
1
1
1
1
1
1
1
1
1
1
1
1
1
1
1
1
1
1
1
1
1
1
1
1
1
1
1
1
1
1
1
1
1
1
1
1
1
1
1
1
1
1
1
1
1
1
1
1
1
1
1
1
1
1
1
1
1
1
1
1
1
1
1
1
1
1
1
1
1
1
1
1
1
1
1
1
1
1
1
1
1
1
1
1
1
1
1
1
1
1
1
1
1
1
1
1
1
1
1
1
1
1
1
1
1
1
1
1
1
1
1
1
1
1
1
1
1
1
1
1
1
1
1
1
1
1
1
1
1
1
1
1
1
1
1
1
1
1
1
1
1
1
1
1
1
1
1
1
1
1
1
1
1
1
1
1
1
1
1
1
1
1
1
1
1
1
1
1
1
1
1
1
1
1
1
1
1
1
1
1
1
1
1
1
1
1
1
1
1
1
1
1
1
1
1
1
1
1
1
1
1
1
1
1
1
1
1
1
1
1
1
1
1
1
1
1
1
1
1
1
1
1
1
1
1
1
1
1
1
1
1
1
1
1
1
1
1
1
1
1
1
1
1
1
1
1
1
1
1
1
1
1
1
1
1
1
1
1
1
1
1
1
1
1
1
1
1
1
1
1
1
1
1
1
1
1
1
1
1
1
1
1
1
1
1
1
1
1
1
1
1
1
1
1
1
1
1
1
1
1
1
1
1
1
1
1
1
1
1
1
1
1
1
1
1
1
1
1
1
1
1
1
1
1
1
1
1
1
1
1
1
1
1
1
1
1
1
1
1
1
1
1
1
1
1
1
1
1
1
1
1
1
1
1
1
1
1
1
1
1
1
1
1
1
1
1
1
1
1
1
1
1
1
1
1
1
1
1
1
1
1
1
1
1
1
1
1
1
1
1
1
1
1
1
1
1
1
1
1
1
1
1
1
1
1
1
1
1
1
1
1
1
1
1
1
1
1
1
1
1
1
1
1
1
1
1
1
1
1
1
1
1
1
1
1
1
1
1
1
1
1
1
1
1
1
1
1
1
1
1
1
1
1
1
1
1
1
1
1
1
1
1
1
1
1
1
1
1
1
1
1
1
1
1
1
1
1
1
1
1
1
1
1
1
1
1
1
1
1
1
1
1
1
1
1
1
1
1
1
1
1
1
1
1
1
1
1
1
1
1
1
1
1
1
1
1
1
1
1
1
1
1
1
1
1
1
1
1
1
1
1
1
1
1
1
1
1
1
1
1
1
1
1
1
1
1
1
1
1
1
1
1
1
1
1
1
1
1
1
1
1
1
1
1
1
1
1
1
1
1
1
1
1
1
1
1
1
1
1
1
1
1
1
1
1
1
1
1
1
1
1
1
1
1
1
1
1
1
1
1
1
1
1
1
1
1
1
1
1
1
1
1
1
1
1
1
1
1
1
1
1
1
1
1
1
1
1
1
1
1
1
1
1
1
1
1
1
1
1
1
1
1
1
1
1
1
1
1
1
1
1
1
1
1
1
1
1
1
1
1
1
1
1
1
1
1
1
1
1
1
1
1
1
1
1
1
1
1
1
1
1
1
1
1
1
1
1
1
1
1
1
1
1
1
1
1
1
1
1
1
1
1
1
1
1
1
1
1
1
1
1
1
1
1
1
1
1
1
1
1
1
1
1
1
1
1
1
1
1
1
1
1
1
1
1
1
1
1
1
1
1
1
1
1
1
1
1
1
1
1
1
1
1
1
1
1
1
1
1
1
1
1
1
1
1
1
1
1
1
1
1
1
1
1
1
1
1
1
1
1
1
1
1
1
1
1
1
1
1
1
1
1
1
1
1
1
1
1
1
1
1
1
1
1
1
1
1
1
1
1
1
1
1
1
1
1
1
1
1
1
1
1
1
1
1
1
1
1
1
1
1
1
1
1
1
1
1
1
1
1
1
1
1
1
1
1
1
1
1
1
1
1
1
1
1
1
1
1
1
1
1
1
1
1
1
1
1
1
1
1
1
1
1
1
1
1
1
1
1
1
1
1
1
1
1
1
1
1
1
1
1
1
1
1
1
1
1
1
1
1
1
1
1
1
1
1
1
1
1
1
1
1
1
1
1
1
1
1
1
1
1
1
1
1
1
1
1
1
1
1
1
1
1
1
1
1
1
1
1
1
1
1
1
1
1
1
1
1
1
1
1
1
1
1
1
1
1
1
1
1
1
1
1
1
1
1
1
1
1
1
1
1
1
1
1
1
1
1
1
1
1
1
1
1
1
1
1
1
1
1
1
1
1
1
1
1
1
1
1
1
1
1
1
1
1
1
1
1
1
1
1
1
1
1
1
1
1
1
1
1
1
1
1
1
1
1
1
1
1
1
1
1
1
1
1
1
1
1
1
1
1
1
1
1
1
1
1
1
1
1
1
1
1
1
1
1
1
1
1
1
1
1
1
1
1
1
1
1
1
1
1
1
1
1
1
1
1
1
1
1
1
1
1
1
1
1
1
1
1
1
1
1
1
1
1
1
1
1
1
1
1
1
1
1
1
1
1
1
1
1
1
1
1
1
1
1
1
1
1
1
1
1
1
1
1
1
1
1
1
1
1
1
1
1
1
1
1
1
1
1
1
1
1
1
1
1
1
1
1
1
1
1
1
1
1
1
1
1
1
1
1
1
1
1
1
1
1
1
1
1
1
1
1
1
1
1
1
1
1
1
1
1
1
1
1
1
1
1
1
1
1
1
1
1
1
1
1
1
1
1
1
1
1
1
1
1
1
1
1
1
1
1
1
1
1
1
1
1
1
1
1
1
1
1
1
1
1
1
1
1
1
1
1
1
1
1
1
1
1
1
1
1
1
1
1
1
1
1
1
1
1
1
1
1
1
1
1
1
1
1
1
1
1
1
1
1
1
1
1
1
1
1
1
1
1
1
1
1
1
1
1
1
1
1
1
1
1
1
1
1
1
1
1
1
1
1
1
1
1
1
1
1
1
1
1
1
1
1
1
1
1
1
1
1
1
1
1
1
1
1
1
1
1
1
1
1
1
1
1
1
1
1
1
1
1
1
1
1
1
1
1
1
1
1
1
1
1
1
1
1
1
1
1
1
1
1
1
1
1
1
1
1
1
1
1
1
1
1
1
1
1
1
1
1
1
1
1
1
1
1
1
1
1
1
1
1
1
1
1
1
1
1
1
1
1
1
1
1
1
1
1
1
1
1
1
1
1
1
1
1
1
1
1
1
1
1
1
1
1
1
1
1
1
1
1
1
1
1
1
1
1
1
1
1
1
1
1
1
1
1
1
1
1
1
1
1
1
1
1
1
1
1
1
1
1
1
1
1
1
1
1
1
1
1
1
1
1
1
1
1
1
1
1
1
1
1
1
1
1
1
1
1
1
1
1
1
1
1
1
1
1
1
1
1
1
1
1
1
1
1
1
1
1
1
1
1
1
1
1
1
1
1
1
1
1
1
1
1
1
1
1
1
1
1
1
1
1
1
1
1
1
1
1
1
1
1
1
1
1
1
1
1
1
1
1
1
1
1
1
1
1
1
1
1
1
1
1
1
1
1
1
1
1
1
1
1
1
1
1
1
1
1
1
1
1
1
1
1
1
1
1
1
1
1
1
1
1
1
1
1
1
1
1
1
1
1
1
1
1
1
1
1
1
1
1
1
1
1
1
1
1
1
1
1
1
1
1
1
1
1
1
1
1
1
1
1
1
1
1
1
1
1
1
1
1
1
1
1
1
1
1
1
1
1
1
1
1
1
1
1
1
1
1
1
1
1
1
1
1
1
1
1
1
1
1
1
1
1
1
1
1
1
1
1
1
1
1
1
1
1
1
1
1
1
1
1
1
1
1
1
1
1
1
1
1
1
1
1
1
1
1
1
1
1
1
1
1
1
1
1
1
1
1
1
1
1
1
1
1
1
1
1
1
1
1
1
1
1
1
1
1
1
1
1
1
1
1
1
1
1
1
1
1
1
1
1
1
1
1
1
1
1
1
1
1
1
1
1
1
1
1
1
1
1
1
1
1
1
1
1
1
1
1
1
1
1
1
1
1
1
1
1
1
1
1
1
1
1
1
1
1
1
1
1
1
1
1
1
1
1
1
1
1
1
1
1
1
1
1
1
1
1
1
1
1
1
1
1
1
1
1
1
1
1
1
1
1
1
1
1
1
1
1
1
1
1
1
1
1
1
1
1
1
1
1
1
1
1
1
1
1
1
1
1
1
1
1
1
1
1
1
1
1
1
1
1
1
1
1
1
1
1
1
1
1
1
1
1
1
1
1
1
1
1
1
1
1
1
1
1
1
1
1
1
1
1
1
1
1
1
1
1
1
1
1
1
1
1
1
1
1
1
1
1
1
1
1
1
1
1
1
1
1
1
1
1
1
1
1
1
1
1
1
1
1
1
1
1
1
1
1
1
1
1
1
1
1
1
1
1
1
1
1
1
1
1
1
1
1
1
1
1
1
1
1
1
1
1
1
1
1
1
1
1
1
1
1
1
1
1
1
1
1
1
1
1
1
1
1
1
1
1
1
1
1
1
1
1
1
1
1
1
1
1
1
1
1
1
1
1
1
1
1
1
1
1
1
1
1
1
1
1
1
1
1
1
1
1
1
1
1
1
1
1
1
1
1
1
1
1
1
1
1
1
1
1
1
1
1
1
1
1
1
1
1
1
1
1
1
1
1
1
1
1
1
1
1
1
1
1
1
1
1
1
1
1
1
1
1
1
1
1
1
1
1
1
1
1
1
1
1
1
1
1
1
1
1
1
1
1
1
1
1
1
1
1
1
1
1
1
1
1
1
1
1
1
1
1
1
1
1
1
1
1
1
1
1
1
1
1
1
1
1
1
1
1
1
1
1
1
1
1
1
1
1
1
1
1
1
1
1
1
1
1
1
1
1
1
1
1
1
1
1
1
1
1
1
1
1
1
1
1
1
1
1
1
1
1
1
1
1
1
1
1
1
1
1
1
1
1
1
1
1
1
1
1
1
1
1
1
1
1
1
1
1
1
1
1
1
1
1
1
1
1
1
1
1
1
1
1
1
1
1
1
1
1
1
1
1
1
1
1
1
1
1
1
1
1
1
1
1
1
1
1
1
1
1
1
1
1
1
1
1
1
1
1
1
1
1
1
1
1
1
1
1
1
1
1
1
1
1
1
1
1
1
1
1
1
1
1
1
1
1
1
1
1
1
1
1
1
1
1
1
1
1
1
1
1
1
1
1
1
1
1
1
1
1
1
1
1
1
1
1
1
1
1
1
1
1
1
1
1
1
1
1
1
1
1
1
1
1
1
1
1
1
1
1
1
1
1
1
1
1
1
1
1
1
1
1
1
1
1
1
1
1
1
1
1
1
1
1
1
1
1
1
1
1
1
1
1
1
1
1
1
1
1
1
1
1
1
1
1
1
1
1
1
1
1
1
1
1
1
1
1
1
1
1
1
1
1
1
1
1
1
1
1
1
1
1
1
1
1
1
1
1
1
1
1
1
1
1
1
1
1
1
1
1
1
1
1
1
1
1
1
1
1
1
1
1
1
1
1
1
1
1
1
1
1
1
1
1
1
1
1
1
1
1
1
1
1
1
1
1
1
1
1
1
1
1
1
1
1
1
1
1
1
1
1
1
1
1
1
1
1
1
1
1
1
1
1
1
1
1
1
1
1
1
1
1
1
1
1
1
1
1
1
1
1
1
1
1
1
1
1
1
1
1
1
1
1
1
1
1
1
1
1
1
1
1
1
1
1
1
1
1
1
1
1
1
1
1
1
1
1
1
1
1
1
1
1
1
1
1
1
1
1
1
1
1
1
1
1
1
1
1
1
1
1
1
1
1
1
1
1
1
1
1
1
1
1
1
1
1
1
1
1
1
1
1
1
1
1
1
1
1
1
1
1
1
1
1
1
1
1
1
1
1
1
1
1
1
1
1
1
1
1
1
1
1
1
1
1
1
1
1
1
1
1
1
1
1
1
1
1
1
1
1
1
1
1
1
1
1
1
1
1
1
1
1
1
1
1
1
1
1
1
1
1
1
1
1
1
1
1
1
1
1
1
1
1
1
1
1
1
1
1
1
1
1
1
1
1
1
1
1
1
1
1
1
1
1
1
1
1
1
1
1
1
1
1
1
1
1
1
1
1
1
1
1
1
1
1
1
1
1
1
1
1
1
1
1
1
1
1
1
1
1
1
1
1
1
1
1
1
1
1
1
1
1
1
1
1
1
1
1
1
1
1
1
1
1
1
1
1
1
1
1
1
1
1
1
1
1
1
1
1
1
1
1
1
1
1
1
1
1
1
1
1
1
1
1
1
1
1
1
1
1
1
1
1
1
1
1
1
1
1
1
1
1
1
1
1
1
1
1
1
1
1
1
1
1
1
1
1
1
1
1
1
1
1
1
1
1
1
1
1
1
1
1
1
1
1
1
1
1
1
1
1
1
1
1
1
1
1.07854
1.17711
1.28684
1.38653
1.46947
1.55972
1.62101
1.66428
1.69473
1.6899
1.66341
1.61588
1.57017
1.53452
1.5245
1.51708
1.5144
1.51749
1.52207
1.52687
1.53094
1.53399
1.53609
1.53807
1.53983
1.54071
1.54138
1.54182
1.54207
1.5419
1.54132
1.54117
1.54168
1.54325
1.54554
1.54712
1.54735
1.54723
1.54674
1.54577
1.54507
1.54512
1.54536
1.54568
1.54609
1.54633
1.54641
1.54633
1.00067
1.00669
1.02185
1.06778
1.13234
1.21136
1.30146
1.37841
1.45514
1.50329
1.53344
1.55534
1.56328
1.56017
1.55363
1.54816
1.53987
1.53678
1.53173
1.53182
1.53366
1.5367
1.53932
1.54167
1.54394
1.54505
1.54601
1.54646
1.54627
1.54592
1.54571
1.5457
1.54597
1.54653
1.54708
1.5476
1.54758
1.54731
1.54676
1.54633
1.54631
1.5465
1.54683
1.54731
1.54788
1.54815
1.54813
1.54864
1
0.999998
0.999996
1.00001
1.00054
1.00429
1.02244
1.07402
1.18418
1.34465
1.50356
1.5822
1.62103
1.62069
1.61355
1.59987
1.58197
1.55781
1.54306
1.54165
1.54296
1.54564
1.54813
1.55084
1.55354
1.55508
1.55599
1.55679
1.55707
1.55711
1.55707
1.55665
1.55622
1.55598
1.55564
1.55508
1.55438
1.55345
1.55246
1.55179
1.55157
1.55154
1.55164
1.552
1.55256
1.55274
1.55249
1.55352
1
1
1
1
1
0.999994
1.00002
1.00004
1.00201
1.02891
1.1447
1.33781
1.48742
1.6137
1.61195
1.60134
1.60125
1.59373
1.57928
1.57045
1.5671
1.56428
1.56135
1.56188
1.56338
1.56454
1.5659
1.56715
1.56813
1.56871
1.56874
1.56841
1.56792
1.56753
1.56721
1.5667
1.56585
1.56464
1.56337
1.56243
1.562
1.56183
1.56178
1.56178
1.56176
1.56144
1.56032
1.56114
1
1
1
1
1
1
1
1
1
0.999974
1.00054
1.01886
1.10395
1.30456
1.46759
1.56798
1.62663
1.6264
1.61822
1.6063
1.59509
1.58381
1.57819
1.57544
1.57338
1.57413
1.57508
1.57591
1.57682
1.57741
1.57707
1.57635
1.57603
1.57655
1.57698
1.5768
1.57626
1.57533
1.5742
1.5733
1.57305
1.57305
1.57309
1.57307
1.57273
1.57191
1.57032
1.5709
1
1
1
1
1
1
1
1
1
0.999999
0.999999
0.999981
1.00026
1.01015
1.09286
1.24567
1.43815
1.53089
1.59929
1.6088
1.60797
1.6004
1.59265
1.58821
1.585
1.58178
1.58013
1.57943
1.57966
1.58095
1.58187
1.58246
1.58336
1.58411
1.58411
1.58379
1.58321
1.58239
1.58151
1.58095
1.58081
1.58073
1.58073
1.58064
1.57996
1.57884
1.57719
1.57752
1
1
1
1
1
1
1
1
1
1
1
0.999999
0.999999
0.999985
1.00026
1.00562
1.06923
1.22209
1.40166
1.5155
1.56183
1.59089
1.59287
1.59238
1.5879
1.58417
1.58327
1.58184
1.58007
1.5802
1.58148
1.58404
1.58705
1.58741
1.58694
1.58625
1.58562
1.58502
1.58427
1.58394
1.58371
1.5836
1.58368
1.58357
1.58291
1.58206
1.58093
1.58107
1
1
1
1
1
1
1
1
1
1
1
1
1
0.999999
0.999999
0.999991
1.00018
1.00558
1.04868
1.20343
1.35566
1.50455
1.54805
1.56507
1.57477
1.57315
1.5749
1.57506
1.57426
1.57477
1.57679
1.57952
1.58196
1.58386
1.58452
1.58436
1.58385
1.58321
1.58306
1.58312
1.58326
1.5839
1.58425
1.58417
1.58388
1.58355
1.58307
1.58306
1
1
1
1
1
1
1
1
1
1
1
1
1
1
1
0.999999
0.999999
0.999993
1.00008
1.0053
1.03976
1.17007
1.34601
1.47407
1.54791
1.5603
1.56746
1.56907
1.56851
1.56889
1.56997
1.57171
1.57313
1.5749
1.57681
1.57804
1.57873
1.57931
1.58008
1.58088
1.58157
1.58232
1.5828
1.583
1.58318
1.58317
1.58306
1.58289
1
1
1
1
1
1
1
1
1
1
1
1
1
1
1
1
1
1
1
0.999994
1.00008
1.00341
1.04571
1.15574
1.33135
1.44985
1.53128
1.55885
1.56446
1.56692
1.56882
1.56845
1.56797
1.56826
1.56989
1.57167
1.57283
1.57409
1.57531
1.57642
1.57774
1.57872
1.57916
1.57969
1.58047
1.58082
1.58108
1.58088
1
1
1
1
1
1
1
1
1
1
1
1
1
1
1
1
1
1
1
0.999999
1
0.999995
1.00016
1.00293
1.04067
1.15881
1.32172
1.44201
1.51004
1.54762
1.56078
1.56379
1.56446
1.56556
1.56596
1.56681
1.56866
1.57009
1.57134
1.57259
1.57406
1.57485
1.57529
1.57582
1.57636
1.57661
1.57703
1.5768
1
1
1
1
1
1
1
1
1
1
1
1
1
1
1
1
1
1
1
1
1
0.999999
1
0.999996
1.00018
1.00389
1.03539
1.16621
1.32022
1.4617
1.50829
1.53065
1.5467
1.55551
1.55682
1.55895
1.56182
1.56362
1.56488
1.56606
1.56734
1.56858
1.56952
1.57029
1.5711
1.57166
1.57234
1.57232
1
1
1
1
1
1
1
1
1
1
1
1
1
1
1
1
1
1
1
1
1
1
1
0.999999
1
0.999996
1.00014
1.00576
1.04009
1.17642
1.3375
1.47193
1.52697
1.53455
1.54269
1.54888
1.55252
1.55471
1.55621
1.55767
1.5597
1.56201
1.56348
1.56396
1.56436
1.56474
1.56544
1.566
1
1
1
1
1
1
1
1
1
1
1
1
1
1
1
1
1
1
1
1
1
1
1
1
1
1
1
1
1.00022
1.00717
1.05636
1.19498
1.36383
1.47802
1.53791
1.55061
1.55303
1.55491
1.55438
1.5541
1.55543
1.55749
1.55864
1.5592
1.55913
1.559
1.55954
1.56057
1
1
1
1
1
1
1
1
1
1
1
1
1
1
1
1
1
1
1
1
1
1
1
1
1
1
1
1
0.999999
1.00001
1.0005
1.00954
1.08421
1.23246
1.39806
1.49076
1.53973
1.55579
1.556
1.55651
1.55703
1.55806
1.55887
1.55864
1.55823
1.5577
1.55795
1.55874
1
1
1
1
1
1
1
1
1
1
1
1
1
1
1
1
1
1
1
1
1
1
1
1
1
1
1
1
1
1
0.999999
1.00002
1.0014
1.01664
1.12208
1.29187
1.44933
1.50596
1.53028
1.54888
1.5535
1.55448
1.55593
1.5568
1.55675
1.55678
1.55734
1.55808
1
1
1
1
1
1
1
1
1
1
1
1
1
1
1
1
1
1
1
1
1
1
1
1
1
1
1
1
1
1
1
1
0.999999
1.00007
1.00396
1.03531
1.17865
1.35389
1.49849
1.5335
1.54173
1.54654
1.54875
1.55105
1.5528
1.55382
1.55499
1.55639
1
1
1
1
1
1
1
1
1
1
1
1
1
1
1
1
1
1
1
1
1
1
1
1
1
1
1
1
1
1
1
1
1
1
1
1.0003
1.0106
1.07501
1.26204
1.42503
1.52153
1.55106
1.55285
1.5557
1.55507
1.55405
1.5542
1.55595
1
1
1
1
1
1
1
1
1
1
1
1
1
1
1
1
1
1
1
1
1
1
1
1
1
1
1
1
1
1
1
1
1
1
1
0.999999
1.00004
1.00147
1.03074
1.15175
1.35132
1.47507
1.53934
1.55907
1.55865
1.55806
1.55805
1.55874
1
1
1
1
1
1
1
1
1
1
1
1
1
1
1
1
1
1
1
1
1
1
1
1
1
1
1
1
1
1
1
1
1
1
1
1
1
1
1.00035
1.00685
1.08251
1.26523
1.45242
1.51595
1.53526
1.54937
1.55506
1.55605
1
1
1
1
1
1
1
1
1
1
1
1
1
1
1
1
1
1
1
1
1
1
1
1
1
1
1
1
1
1
1
1
1
1
1
1
1
1
1
1.00002
1.00259
1.03284
1.18495
1.38277
1.51676
1.54477
1.55033
1.55167
1
1
1
1
1
1
1
1
1
1
1
1
1
1
1
1
1
1
1
1
1
1
1
1
1
1
1
1
1
1
1
1
1
1
1
1
1
1
1
1
1
1.00043
1.01458
1.10822
1.32565
1.481
1.54961
1.55926
1
1
1
1
1
1
1
1
1
1
1
1
1
1
1
1
1
1
1
1
1
1
1
1
1
1
1
1
1
1
1
1
1
1
1
1
1
1
1
1
1
1
1.00013
1.00444
1.07263
1.25583
1.44199
1.51083
1
1
1
1
1
1
1
1
1
1
1
1
1
1
1
1
1
1
1
1
1
1
1
1
1
1
1
1
1
1
1
1
1
1
1
1
1
1
1
1
1
1
1
1.00002
1.00233
1.03186
1.20551
1.39265
1
1
1
1
1
1
1
1
1
1
1
1
1
1
1
1
1
1
1
1
1
1
1
1
1
1
1
1
1
1
1
1
1
1
1
1
1
1
1
1
1
1
1
1
1.00001
1.00056
1.02461
1.13202
1
1
1
1
1
1
1
1
1
1
1
1
1
1
1
1
1
1
1
1
1
1
1
1
1
1
1
1
1
1
1
1
1
1
1
1
1
1
1
1
1
1
1
1
1
1
1.00055
1.0056
1
1
1
1
1
1
1
1
1
1
1
1
1
1
1
1
1
1
1
1
1
1
1
1
1
1
1
1
1
1
1
1
1
1
1
1
1
1
1
1
1
1
1
1
1
1
1.00001
0.999946
1
1
1
1
1
1
1
1
1
1
1
1
1
1
1
1
1
1
1
1
1
1
1
1
1
1
1
1
1
1
1
1
1
1
1
1
1
1
1
1
1
1
1
1
1
1
1
0.999983
1
1
1
1
1
1
1
1
1
1
1
1
1
1
1
1
1
1
1
1
1
1
1
1
1
1
1
1
1
1
1
1
1
1
1
1
1
1
1
1
1
1
1
1
1
1
1
0.999997
1
1
1
1
1
1
1
1
1
1
1
1
1
1
1
1
1
1
1
1
1
1
1
1
1
1
1
1
1
1
1
1
1
1
1
1
1
1
1
1
1
1
1
1
1
1
1
1
1
1
1
1
1
1
1
1
1
1
1
1
1
1
1
1
1
1
1
1
1
1
1
1
1
1
1
1
1
1
1
1
1
1
1
1
1
1
1
1
1
1
1
1
1
1
1
1
1
1
1
1
1
1
1
1
1
1
1
1
1
1
1
1
1
1
1
1
1
1
1
1
1
1
1
1
1
1
1
1
1
1
1
1
1
1
1
1
1
1
1
1
1
1
1
1
1
1
1
1
1
1
1
1
1
1
1
1
1
1
1
1
1
1
1
1
1
1
1
1
1
1
1
1
1
1
1
1
1
1
1
1
1
1
1
1
1
1
1
1
1
1
1
1
1
1
1
1
1
1
1
1
1
1
1
1
1
1
1
1
1
1
1
1
1
1
1
1
1
1
1
1
1
1
1
1
1
1
1
1
1
1
1
1
1
1
1
1
1
1
1
1
1
1
1
1
1
1
1
1
1
1
1
1
1
1
1
1
1
1
1
1
1
1
1
1
1
1
1
1
1
1
1
1
1
1
1
1
1
1
1
1
1
1
1
1
1
1
1
1
1
1
1
1
1
1
1
1
1
1
1
1
1
1
1
1
1
1
1
1
1
1
1
1
1
1
1
1
1
1
1
1
1
1
1
1
1
1
1
1
1
1
1
1
1
1
1
0.999997
1
1
1
1
1
1
1
1
1
1
1
1
1
1
1
1
1
1
1
1
1
1
1
1
1
1
1
1
1
1
1
1
1
1
1
1
1
1
1
1
1
1
1
1
1
1
1
0.999983
1
1
1
1
1
1
1
1
1
1
1
1
1
1
1
1
1
1
1
1
1
1
1
1
1
1
1
1
1
1
1
1
1
1
1
1
1
1
1
1
1
1
1
1
1
1
1.00001
0.999946
1
1
1
1
1
1
1
1
1
1
1
1
1
1
1
1
1
1
1
1
1
1
1
1
1
1
1
1
1
1
1
1
1
1
1
1
1
1
1
1
1
1
1
1
1
1
1.00055
1.00564
1
1
1
1
1
1
1
1
1
1
1
1
1
1
1
1
1
1
1
1
1
1
1
1
1
1
1
1
1
1
1
1
1
1
1
1
1
1
1
1
1
1
1
1
1.00001
1.00056
1.02459
1.13213
1
1
1
1
1
1
1
1
1
1
1
1
1
1
1
1
1
1
1
1
1
1
1
1
1
1
1
1
1
1
1
1
1
1
1
1
1
1
1
1
1
1
1
1.00002
1.00233
1.03184
1.20563
1.3924
1
1
1
1
1
1
1
1
1
1
1
1
1
1
1
1
1
1
1
1
1
1
1
1
1
1
1
1
1
1
1
1
1
1
1
1
1
1
1
1
1
1
1.00013
1.00444
1.07264
1.25579
1.44201
1.51078
1
1
1
1
1
1
1
1
1
1
1
1
1
1
1
1
1
1
1
1
1
1
1
1
1
1
1
1
1
1
1
1
1
1
1
1
1
1
1
1
1
1.00043
1.01458
1.10823
1.3257
1.48093
1.54962
1.55932
1
1
1
1
1
1
1
1
1
1
1
1
1
1
1
1
1
1
1
1
1
1
1
1
1
1
1
1
1
1
1
1
1
1
1
1
1
1
1
1.00002
1.00259
1.03283
1.18496
1.38278
1.5168
1.54473
1.55032
1.55171
1
1
1
1
1
1
1
1
1
1
1
1
1
1
1
1
1
1
1
1
1
1
1
1
1
1
1
1
1
1
1
1
1
1
1
1
1
1
1.00035
1.00685
1.08251
1.26521
1.45242
1.51595
1.53527
1.54936
1.55503
1.55607
1
1
1
1
1
1
1
1
1
1
1
1
1
1
1
1
1
1
1
1
1
1
1
1
1
1
1
1
1
1
1
1
1
1
1
0.999999
1.00004
1.00147
1.03074
1.15176
1.35131
1.47507
1.53934
1.55907
1.55865
1.55806
1.55805
1.55873
1
1
1
1
1
1
1
1
1
1
1
1
1
1
1
1
1
1
1
1
1
1
1
1
1
1
1
1
1
1
1
1
1
1
1
1.0003
1.0106
1.07501
1.26204
1.42503
1.52153
1.55106
1.55286
1.5557
1.55507
1.55405
1.5542
1.55594
1
1
1
1
1
1
1
1
1
1
1
1
1
1
1
1
1
1
1
1
1
1
1
1
1
1
1
1
1
1
1
1
0.999999
1.00007
1.00396
1.03531
1.17865
1.35389
1.49849
1.53349
1.54173
1.54654
1.54875
1.55105
1.5528
1.55382
1.55499
1.55638
1
1
1
1
1
1
1
1
1
1
1
1
1
1
1
1
1
1
1
1
1
1
1
1
1
1
1
1
1
1
0.999999
1.00002
1.0014
1.01664
1.12208
1.29187
1.44933
1.50596
1.53029
1.54888
1.55349
1.55448
1.55593
1.5568
1.55674
1.55678
1.55733
1.55808
1
1
1
1
1
1
1
1
1
1
1
1
1
1
1
1
1
1
1
1
1
1
1
1
1
1
1
1
0.999999
1.00001
1.0005
1.00954
1.08421
1.23246
1.39806
1.49076
1.53973
1.55579
1.556
1.55651
1.55703
1.55806
1.55888
1.55864
1.55823
1.55769
1.55795
1.55874
1
1
1
1
1
1
1
1
1
1
1
1
1
1
1
1
1
1
1
1
1
1
1
1
1
1
1
1
1.00022
1.00717
1.05636
1.19498
1.36383
1.47802
1.53791
1.55061
1.55303
1.55491
1.55438
1.5541
1.55543
1.55749
1.55864
1.5592
1.55913
1.559
1.55954
1.56057
1
1
1
1
1
1
1
1
1
1
1
1
1
1
1
1
1
1
1
1
1
1
1
0.999999
1
0.999996
1.00014
1.00576
1.04009
1.17642
1.3375
1.47193
1.52697
1.53455
1.54269
1.54888
1.55252
1.55471
1.55621
1.55767
1.5597
1.56201
1.56348
1.56396
1.56436
1.56474
1.56544
1.566
1
1
1
1
1
1
1
1
1
1
1
1
1
1
1
1
1
1
1
1
1
0.999999
1
0.999996
1.00018
1.00389
1.03539
1.16621
1.32022
1.4617
1.50829
1.53065
1.5467
1.55551
1.55682
1.55895
1.56182
1.56362
1.56488
1.56606
1.56734
1.56858
1.56952
1.57029
1.5711
1.57166
1.57234
1.57232
1
1
1
1
1
1
1
1
1
1
1
1
1
1
1
1
1
1
1
0.999999
1
0.999995
1.00016
1.00293
1.04067
1.15881
1.32172
1.44201
1.51004
1.54762
1.56078
1.56379
1.56446
1.56556
1.56596
1.56681
1.56866
1.57009
1.57134
1.57259
1.57406
1.57485
1.57529
1.57582
1.57636
1.57661
1.57703
1.5768
1
1
1
1
1
1
1
1
1
1
1
1
1
1
1
1
1
1
1
0.999994
1.00008
1.00341
1.04571
1.15574
1.33135
1.44985
1.53128
1.55885
1.56446
1.56692
1.56882
1.56845
1.56797
1.56826
1.56989
1.57167
1.57283
1.57409
1.57531
1.57642
1.57774
1.57872
1.57916
1.57969
1.58047
1.58082
1.58108
1.58088
1
1
1
1
1
1
1
1
1
1
1
1
1
1
1
0.999999
0.999999
0.999993
1.00008
1.0053
1.03976
1.17007
1.34601
1.47407
1.54791
1.5603
1.56746
1.56907
1.56851
1.56889
1.56997
1.57171
1.57313
1.5749
1.57681
1.57804
1.57873
1.57931
1.58008
1.58088
1.58157
1.58232
1.5828
1.583
1.58318
1.58317
1.58306
1.58289
1
1
1
1
1
1
1
1
1
1
1
1
1
0.999999
0.999999
0.999991
1.00018
1.00558
1.04868
1.20343
1.35566
1.50455
1.54805
1.56507
1.57477
1.57315
1.5749
1.57506
1.57426
1.57477
1.57679
1.57952
1.58196
1.58386
1.58452
1.58436
1.58385
1.58321
1.58306
1.58312
1.58326
1.5839
1.58425
1.58417
1.58388
1.58355
1.58307
1.58306
1
1
1
1
1
1
1
1
1
1
1
0.999999
0.999999
0.999985
1.00026
1.00562
1.06923
1.22209
1.40166
1.5155
1.56183
1.59089
1.59287
1.59238
1.5879
1.58417
1.58327
1.58184
1.58007
1.5802
1.58148
1.58404
1.58705
1.58741
1.58694
1.58625
1.58562
1.58502
1.58427
1.58394
1.58371
1.5836
1.58368
1.58357
1.58291
1.58206
1.58093
1.58107
1
1
1
1
1
1
1
1
1
0.999999
0.999999
0.999981
1.00026
1.01015
1.09286
1.24567
1.43815
1.53089
1.59929
1.6088
1.60797
1.6004
1.59265
1.58821
1.585
1.58178
1.58013
1.57943
1.57966
1.58095
1.58187
1.58246
1.58336
1.58411
1.58411
1.58379
1.58321
1.58239
1.58151
1.58095
1.58081
1.58073
1.58073
1.58064
1.57996
1.57884
1.57719
1.57752
1
1
1
1
1
1
1
1
1
0.999974
1.00054
1.01886
1.10395
1.30456
1.46759
1.56798
1.62663
1.6264
1.61822
1.6063
1.59509
1.58381
1.57819
1.57544
1.57338
1.57413
1.57508
1.57591
1.57682
1.57741
1.57707
1.57635
1.57603
1.57655
1.57698
1.5768
1.57626
1.57533
1.5742
1.5733
1.57305
1.57305
1.57309
1.57307
1.57273
1.57191
1.57032
1.5709
1
1
1
1
1
0.999994
1.00002
1.00004
1.00201
1.02891
1.1447
1.33781
1.48742
1.6137
1.61195
1.60134
1.60125
1.59373
1.57928
1.57045
1.5671
1.56428
1.56135
1.56188
1.56338
1.56454
1.5659
1.56715
1.56813
1.56871
1.56874
1.56841
1.56792
1.56753
1.56721
1.5667
1.56585
1.56464
1.56337
1.56243
1.562
1.56183
1.56178
1.56178
1.56176
1.56144
1.56032
1.56114
1
0.999998
0.999996
1.00001
1.00054
1.00429
1.02244
1.07402
1.18418
1.34465
1.50356
1.5822
1.62103
1.62069
1.61355
1.59987
1.58197
1.55781
1.54306
1.54165
1.54296
1.54564
1.54813
1.55084
1.55354
1.55508
1.55599
1.55679
1.55707
1.55711
1.55707
1.55665
1.55622
1.55598
1.55564
1.55508
1.55438
1.55345
1.55246
1.55179
1.55157
1.55154
1.55164
1.552
1.55256
1.55274
1.55249
1.55352
1.00067
1.00669
1.02185
1.06778
1.13234
1.21136
1.30146
1.37841
1.45514
1.50329
1.53344
1.55534
1.56328
1.56017
1.55363
1.54816
1.53987
1.53678
1.53173
1.53182
1.53366
1.5367
1.53932
1.54167
1.54394
1.54505
1.54601
1.54646
1.54627
1.54592
1.54571
1.5457
1.54597
1.54653
1.54708
1.5476
1.54758
1.54731
1.54676
1.54633
1.54631
1.54649
1.54683
1.54731
1.54788
1.54815
1.54813
1.54864
1.07854
1.17711
1.28684
1.38653
1.46947
1.55972
1.62101
1.66428
1.69473
1.6899
1.66341
1.61588
1.57017
1.53452
1.5245
1.51708
1.5144
1.51749
1.52207
1.52687
1.53094
1.53399
1.53609
1.53807
1.53983
1.54071
1.54138
1.54182
1.54207
1.5419
1.54132
1.54117
1.54168
1.54325
1.54554
1.54712
1.54735
1.54723
1.54674
1.54577
1.54507
1.54512
1.54536
1.54568
1.54609
1.54633
1.54641
1.54633
1.40388
1.23196
1.11264
1.04738
0.981185
0.977686
1.0013
1.02803
1.03435
1.05095
1.09593
1.11313
1.1082
1.10666
1.11044
1.11176
1.11336
1.11892
1.12392
1.12296
1.11969
1.11617
1.11567
1.11413
1.1111
1.11041
1.11043
1.11001
1.10874
1.10701
1.10545
1.10376
1.10288
1.10263
1.10274
1.1039
1.10519
1.1053
1.10524
1.10476
1.1037
1.10359
1.10366
1.10392
1.10411
1.10398
1.10332
1.10285
1.106
1.17034
1.33335
1.57317
1.81957
2.05084
2.24209
2.23744
2.17998
2.11176
2.09409
2.08076
2.06191
2.04806
2.04085
2.0396
2.03465
2.02406
2.00805
1.98074
1.94984
1.93622
1.93034
1.92796
1.92902
1.92506
1.91766
1.9043
1.87824
1.85631
1.84803
1.84192
1.83685
1.8309
1.82361
1.81151
1.79118
1.77754
1.77248
1.76863
1.76656
1.76287
1.7577
1.74892
1.72899
1.70413
1.69369
1.6895
1.68585
1.68237
1.67853
1.67409
1.66916
1.6633
1.65106
1.63376
1.62337
1.61772
1.61256
1.60656
1.59948
1.58968
1.57932
1.57381
1.57029
1.5668
1.56298
1.55795
1.54905
1.53328
1.51941
1.51427
1.51149
1.50913
1.50729
1.50468
1.50103
1.49463
1.4817
1.46605
1.46052
1.45877
1.45692
1.45443
1.451
1.44686
1.44082
1.4303
1.4186
1.41339
1.41062
1.40781
1.4046
1.40011
1.39244
1.38817
1.39163
1.4162
1.48619
1.60397
1.7187
1.80483
1.86614
1.90749
1.91433
1.89937
1.87718
1.87074
1.86992
1.86909
1.86481
1.85894
1.84788
1.83073
1.82235
1.81955
1.81762
1.8191
1.8205
1.81835
1.8161
1.81119
1.79962
1.78906
1.78542
1.78258
1.78004
1.77695
1.77299
1.76901
1.76315
1.7513
1.73898
1.73498
1.73337
1.73266
1.7361
1.73993
1.73846
1.73584
1.73189
1.72184
1.70505
1.6937
1.50336
1.41751
1.3176
1.25898
1.19239
1.1204
1.10723
1.0854
1.06346
1.06476
1.0694
1.06639
1.06211
1.06337
1.06984
1.07835
1.08387
1.09044
1.09945
1.1004
1.09899
1.0992
1.10105
1.1021
1.10217
1.10274
1.10398
1.104
1.10292
1.10176
1.1009
1.1
1.09943
1.099
1.09914
1.10008
1.1008
1.1009
1.10084
1.10031
1.09944
1.09906
1.09915
1.09945
1.09945
1.09877
1.09908
1.10244
1.15838
1.36955
1.52223
1.57138
1.66985
1.77517
1.96207
2.0847
2.12807
2.1203
2.10925
2.09003
2.06767
2.05555
2.04793
2.04036
2.03263
2.02307
2.01071
1.99072
1.96466
1.94501
1.93488
1.92897
1.92494
1.92077
1.91339
1.90296
1.88507
1.86386
1.85202
1.84502
1.83862
1.83231
1.82577
1.81662
1.80046
1.78205
1.77291
1.76806
1.76379
1.75977
1.75416
1.74633
1.73261
1.71225
1.69806
1.69196
1.68805
1.68419
1.68091
1.67804
1.67295
1.66268
1.64873
1.63564
1.62616
1.61878
1.61329
1.60918
1.60359
1.59553
1.58603
1.57893
1.57421
1.57017
1.56599
1.56059
1.55155
1.53731
1.52427
1.51789
1.51388
1.51025
1.50693
1.50383
1.50066
1.49583
1.48551
1.47124
1.46261
1.45942
1.45719
1.45564
1.45435
1.45055
1.44519
1.43657
1.42478
1.41772
1.41444
1.41164
1.40858
1.40425
1.40138
1.40579
1.43373
1.49963
1.57424
1.62321
1.66959
1.7307
1.77895
1.82528
1.84617
1.86276
1.87144
1.87519
1.87711
1.87474
1.86962
1.86232
1.85183
1.83647
1.82568
1.82191
1.82022
1.82148
1.82282
1.82069
1.81814
1.81359
1.80334
1.79168
1.78716
1.78425
1.78152
1.77831
1.77442
1.7703
1.76489
1.75639
1.74512
1.73748
1.73505
1.73389
1.73389
1.73553
1.73546
1.73357
1.73026
1.72276
1.71063
1.69801
1.53864
1.49866
1.43103
1.36055
1.29319
1.21774
1.1731
1.13935
1.09185
1.06379
1.06122
1.04959
1.04134
1.04285
1.04711
1.0518
1.05492
1.06028
1.06908
1.07424
1.07604
1.07773
1.08094
1.08397
1.08561
1.08809
1.09057
1.09157
1.09154
1.09106
1.08993
1.08914
1.08896
1.08896
1.08961
1.09017
1.09026
1.09045
1.09035
1.0897
1.08935
1.08939
1.08986
1.09058
1.09072
1.09173
1.09909
1.15208
1.36929
1.54235
1.59704
1.60275
1.60832
1.62092
1.70392
1.91675
2.10193
2.15013
2.13719
2.10695
2.08156
2.06916
2.05558
2.03963
2.02798
2.02013
2.01222
2.00138
1.98524
1.9665
1.94783
1.93446
1.92722
1.91929
1.90975
1.8989
1.88733
1.87302
1.86012
1.85203
1.84459
1.83689
1.8284
1.81884
1.80677
1.79017
1.77649
1.77063
1.76541
1.75903
1.7512
1.74193
1.73218
1.7215
1.70832
1.69789
1.69269
1.6893
1.68517
1.67921
1.67041
1.65705
1.64348
1.63615
1.63052
1.62345
1.6161
1.60816
1.60016
1.59183
1.58368
1.57664
1.57045
1.56497
1.56022
1.55488
1.54713
1.53673
1.52794
1.52135
1.51669
1.51332
1.50967
1.50472
1.49858
1.49089
1.48122
1.47125
1.4649
1.46165
1.45888
1.45546
1.45138
1.44726
1.44203
1.434
1.42247
1.4134
1.41008
1.40822
1.40777
1.40935
1.42138
1.46301
1.53263
1.59198
1.63542
1.64386
1.65127
1.66251
1.68754
1.73178
1.79434
1.84301
1.86635
1.88003
1.88364
1.88046
1.87276
1.86515
1.85643
1.84423
1.8318
1.82481
1.82166
1.82026
1.82037
1.81896
1.81684
1.81394
1.80828
1.79868
1.78787
1.78251
1.77915
1.77592
1.77243
1.76871
1.76463
1.76022
1.7547
1.74588
1.73899
1.73675
1.73522
1.73368
1.73129
1.72857
1.72516
1.71999
1.7146
1.70575
1.5562
1.53839
1.49805
1.44113
1.38113
1.31281
1.25987
1.22015
1.17087
1.12408
1.11076
1.09012
1.06068
1.05807
1.05676
1.05024
1.0455
1.04688
1.04806
1.0487
1.05019
1.05348
1.06045
1.06813
1.07258
1.07595
1.07812
1.07899
1.0799
1.07981
1.07926
1.07944
1.08065
1.0828
1.08407
1.08403
1.08365
1.08294
1.08176
1.08133
1.08138
1.08151
1.08183
1.08247
1.08466
1.10664
1.18821
1.35272
1.5548
1.60095
1.61618
1.61734
1.61945
1.60777
1.60572
1.65401
1.83823
2.0561
2.11186
2.11123
2.10514
2.09182
2.07094
2.04818
2.03197
2.02405
2.01749
2.00947
2.00039
1.98743
1.96877
1.94802
1.93185
1.92183
1.91191
1.90182
1.89314
1.88467
1.87256
1.85832
1.84831
1.84048
1.83279
1.82551
1.81705
1.8043
1.78868
1.77446
1.76548
1.75776
1.74974
1.74166
1.73474
1.7288
1.72152
1.71191
1.70131
1.69243
1.68505
1.67683
1.66628
1.65509
1.64625
1.63904
1.63137
1.62474
1.6193
1.61246
1.60297
1.59342
1.58625
1.5805
1.57478
1.56804
1.56062
1.55388
1.54806
1.54271
1.53648
1.52984
1.52396
1.51752
1.51014
1.50336
1.49683
1.4896
1.48151
1.4746
1.47005
1.46681
1.4633
1.45839
1.45224
1.44688
1.44184
1.43477
1.42442
1.41551
1.4121
1.4121
1.4168
1.44534
1.50541
1.57213
1.62732
1.6519
1.6576
1.65451
1.6492
1.64552
1.64799
1.66072
1.70114
1.75856
1.82255
1.85735
1.87017
1.87517
1.87545
1.87069
1.86279
1.85228
1.84167
1.83345
1.82788
1.82543
1.82381
1.82191
1.81966
1.81724
1.81401
1.80647
1.79454
1.78556
1.78098
1.77698
1.77357
1.77086
1.76909
1.76773
1.76461
1.75782
1.74769
1.73991
1.73682
1.73381
1.72997
1.72571
1.72258
1.7208
1.7196
1.71369
1.56691
1.56046
1.53956
1.50047
1.45299
1.39012
1.33623
1.29593
1.24288
1.19122
1.1647
1.14051
1.10304
1.08654
1.07724
1.06131
1.04755
1.04809
1.04797
1.04558
1.04618
1.04805
1.05176
1.05814
1.06497
1.06884
1.07055
1.07113
1.07222
1.07347
1.07354
1.07387
1.07681
1.07982
1.08024
1.08016
1.0798
1.07912
1.07857
1.07869
1.07934
1.07983
1.07982
1.08104
1.11033
1.271
1.42055
1.54023
1.61479
1.62138
1.62035
1.62252
1.62428
1.61999
1.60587
1.59892
1.6176
1.75896
1.9685
2.09905
2.12237
2.11331
2.08677
2.06416
2.04173
2.02746
2.01808
2.01079
2.00342
1.99472
1.98388
1.96461
1.94093
1.92536
1.91622
1.90776
1.8993
1.89029
1.87992
1.86498
1.85142
1.84348
1.83669
1.82949
1.82203
1.81332
1.79938
1.77898
1.76351
1.75535
1.74959
1.74491
1.74017
1.73607
1.732
1.72566
1.71226
1.69473
1.68243
1.67293
1.66405
1.65611
1.64924
1.64247
1.63668
1.63159
1.62322
1.61235
1.60297
1.59646
1.59138
1.58592
1.57906
1.57122
1.5625
1.55416
1.54775
1.54321
1.53929
1.53474
1.5292
1.52194
1.51407
1.50559
1.49683
1.48971
1.48344
1.47814
1.47464
1.47108
1.46649
1.46051
1.45483
1.44852
1.44121
1.43349
1.42617
1.42012
1.42085
1.43156
1.47165
1.55165
1.61562
1.6555
1.67093
1.66843
1.66105
1.65618
1.65257
1.64843
1.64785
1.64934
1.65663
1.67921
1.7236
1.78945
1.83778
1.86655
1.87808
1.87315
1.86544
1.85902
1.85315
1.84621
1.83793
1.82904
1.82471
1.82314
1.8221
1.81979
1.81625
1.8113
1.80152
1.78913
1.78306
1.77947
1.77634
1.77394
1.77215
1.77065
1.76894
1.76545
1.75752
1.74608
1.73762
1.73312
1.72944
1.72616
1.72337
1.72063
1.71848
1.71448
1.57499
1.5711
1.56247
1.54034
1.50695
1.45802
1.40377
1.36031
1.31224
1.26369
1.23239
1.20342
1.16234
1.13815
1.12353
1.10447
1.07931
1.0749
1.06802
1.05706
1.05363
1.05447
1.05417
1.05354
1.05556
1.05853
1.05978
1.06163
1.06434
1.06814
1.07066
1.07249
1.07631
1.0792
1.07953
1.07967
1.07958
1.07878
1.07868
1.07905
1.07997
1.08046
1.08225
1.10895
1.293
1.50484
1.58309
1.61817
1.6305
1.62866
1.62316
1.61965
1.619
1.6193
1.61281
1.60149
1.58951
1.59395
1.67884
1.88326
2.04844
2.08863
2.08907
2.07598
2.05321
2.02803
2.01427
2.00614
2.00223
1.99601
1.98634
1.9732
1.95079
1.92999
1.91963
1.91161
1.90343
1.89495
1.88461
1.86927
1.85185
1.84336
1.83776
1.83261
1.82721
1.82051
1.80744
1.78471
1.76377
1.75559
1.75055
1.74785
1.74865
1.74597
1.74009
1.73031
1.71187
1.69036
1.67936
1.67301
1.66717
1.66128
1.65567
1.65006
1.64391
1.63526
1.62298
1.61184
1.60485
1.59975
1.5951
1.59043
1.58457
1.57457
1.56218
1.55325
1.54862
1.54593
1.54429
1.54173
1.53706
1.53017
1.51904
1.50486
1.49399
1.48876
1.48654
1.48489
1.48199
1.47802
1.47313
1.46654
1.45723
1.44673
1.43877
1.43375
1.43124
1.43501
1.45619
1.50861
1.59222
1.65376
1.67299
1.68251
1.6816
1.67546
1.66458
1.65786
1.657
1.65682
1.65533
1.65277
1.65331
1.65351
1.65917
1.68296
1.73869
1.80104
1.84443
1.85762
1.86313
1.86659
1.86504
1.85768
1.84667
1.83421
1.82609
1.82424
1.82344
1.82187
1.8186
1.81378
1.80565
1.79336
1.78511
1.78171
1.77861
1.7764
1.77524
1.77434
1.77312
1.77081
1.76443
1.75201
1.73974
1.7341
1.731
1.72798
1.72496
1.72217
1.72024
1.71565
1.57978
1.57759
1.57302
1.56356
1.54357
1.5069
1.46456
1.42207
1.37102
1.328
1.2946
1.26191
1.22221
1.19445
1.17226
1.14656
1.1163
1.10436
1.09372
1.07673
1.06391
1.0642
1.06183
1.05824
1.05957
1.06002
1.05836
1.05761
1.05858
1.06163
1.06695
1.07204
1.0769
1.07985
1.08025
1.08055
1.08085
1.0808
1.08054
1.08104
1.08201
1.08698
1.12618
1.28712
1.53859
1.61578
1.63774
1.64592
1.63733
1.62265
1.62147
1.61986
1.61401
1.61115
1.60874
1.6015
1.58994
1.57262
1.56834
1.61131
1.7776
1.95991
2.06235
2.07242
2.05883
2.0267
2.00664