/*--------------------------------*- C++ -*----------------------------------*\
  =========                 |
  \\      /  F ield         | OpenFOAM: The Open Source CFD Toolbox
   \\    /   O peration     | Website:  https://openfoam.org
    \\  /    A nd           | Version:  7
     \\/     M anipulation  |
\*---------------------------------------------------------------------------*/
FoamFile
{
    version     2.0;
    format      ascii;
    class       volVectorField;
    location    "3.3";
    object      U;
}
// * * * * * * * * * * * * * * * * * * * * * * * * * * * * * * * * * * * * * //

dimensions      [0 1 -1 0 0 0 0];

internalField   nonuniform List<vector> 
18432
(
(3 -4.13638e-18 0)
(3 -3.35295e-17 0)
(3 1.19293e-16 0)
(3 3.44542e-16 0)
(3 -7.80851e-17 0)
(3 -6.4501e-16 0)
(3 -8.21991e-16 0)
(3 -7.38822e-16 0)
(3 -3.57642e-16 0)
(3 -9.52774e-16 0)
(3 -1.35656e-15 0)
(3 -1.25474e-15 0)
(3 -1.11074e-15 0)
(3 -2.23364e-16 0)
(3 -2.51065e-16 0)
(3 -1.18082e-15 0)
(3 -1.60393e-15 0)
(3 -1.19162e-15 0)
(3 8.19808e-16 0)
(3 -1.55434e-17 0)
(3 -1.31099e-15 0)
(3 -2.20338e-15 0)
(3 -1.71323e-15 0)
(3 -1.27623e-15 0)
(3 -1.20887e-15 0)
(3 -1.44494e-15 0)
(3 -9.59089e-16 0)
(3 -8.20399e-16 0)
(3 -1.78151e-16 0)
(3 5.46598e-16 0)
(3 1.14725e-16 0)
(3 -7.66912e-16 0)
(3 -1.2575e-15 0)
(3 -8.37103e-16 0)
(3 -3.78711e-16 0)
(3 2.91134e-16 0)
(3 6.30543e-16 0)
(3 1.22614e-15 0)
(3 1.57831e-15 0)
(3 1.03296e-15 0)
(3 6.22836e-16 0)
(3 4.05441e-16 0)
(3 3.5904e-16 0)
(3 1.82414e-16 0)
(3 -1.19076e-16 0)
(3 -5.16495e-16 0)
(3 -5.98968e-16 0)
(3 -4.01958e-16 0)
(3 -1.53092e-17 0)
(3 6.36154e-17 0)
(3 4.56395e-16 0)
(3 6.86718e-16 0)
(3 1.03806e-16 0)
(3 -3.22697e-16 0)
(3 -1.82969e-16 0)
(3 -4.11019e-16 0)
(3 -4.81214e-16 0)
(3 -9.47129e-16 0)
(3 -1.59843e-15 0)
(3 -1.54041e-15 0)
(3 -1.57646e-15 0)
(3 -9.40147e-16 0)
(3 -1.2138e-15 0)
(3 -1.70688e-15 0)
(3 -1.03393e-15 0)
(3 6.82589e-16 0)
(3 2.69949e-15 0)
(3 2.20309e-15 0)
(3 1.51268e-16 0)
(3 -2.65787e-15 0)
(3 -2.86855e-15 0)
(3 -2.99881e-15 0)
(3 -2.71789e-15 0)
(3 -1.35621e-16 0)
(3 1.46155e-15 0)
(3 1.5255e-15 0)
(3 1.72357e-15 0)
(3 1.36659e-15 0)
(3 8.35092e-16 0)
(3 1.08852e-16 0)
(3 -3.65066e-16 0)
(3 -4.72909e-16 0)
(3 -2.51576e-16 0)
(3 9.07111e-17 0)
(3 1.12487e-15 0)
(3 1.66388e-15 0)
(3 2.21774e-15 0)
(3 2.21708e-15 0)
(3 1.75961e-15 0)
(3 1.17046e-15 0)
(3 8.23014e-16 0)
(3 4.01262e-16 0)
(3 -2.88787e-16 0)
(3 -8.01108e-16 0)
(3 -1.80707e-15 0)
(3 -2.69879e-15 0)
(3 -8.90145e-17 0)
(3 1.69595e-16 0)
(3 4.51771e-16 0)
(3 7.38417e-16 0)
(3 9.87325e-16 0)
(3 1.75181e-15 0)
(3 2.08798e-15 0)
(3 1.24376e-15 0)
(3 7.07877e-17 0)
(3 -1.2399e-16 0)
(3 -3.11432e-16 0)
(3 -3.58559e-16 0)
(3 -9.37322e-16 0)
(3 -1.96214e-15 0)
(3 -1.96562e-15 0)
(3 -4.81995e-16 0)
(3 7.34004e-16 0)
(3 2.41222e-15 0)
(3 1.98274e-15 0)
(3 9.19683e-16 0)
(3 6.39258e-16 0)
(3 -4.0446e-16 0)
(3 -2.43197e-15 0)
(3 -3.12237e-15 0)
(3 -2.6345e-15 0)
(3 -9.7942e-16 0)
(3 1.16652e-16 0)
(3 2.7753e-16 0)
(3 4.67961e-16 0)
(3 1.12692e-15 0)
(3 9.00479e-16 0)
(3 7.46281e-16 0)
(3 8.37799e-16 0)
(3 3.86239e-16 0)
(3 -3.31293e-16 0)
(3 -5.65295e-16 0)
(3 1.30673e-16 0)
(3 8.16472e-17 0)
(3 5.67509e-16 0)
(3 1.33895e-15 0)
(3 1.46864e-15 0)
(3 1.84535e-15 0)
(3 1.67279e-15 0)
(3 6.45634e-16 0)
(3 1.59929e-16 0)
(3 -8.43699e-16 0)
(3 -3.7097e-15 0)
(3 -4.63542e-15 0)
(3 1.09182e-17 0)
(3 -3.40703e-17 0)
(3 4.04589e-16 0)
(3 4.34271e-16 0)
(3 1.15508e-15 0)
(3 2.45294e-15 0)
(3 3.30737e-15 0)
(3 2.6289e-15 0)
(3 1.90804e-15 0)
(3 7.03132e-16 0)
(3 -3.90434e-16 0)
(3 -1.77354e-15 0)
(3 -2.03502e-15 0)
(3 -2.26054e-15 0)
(3 -2.17422e-15 0)
(3 -1.17846e-15 0)
(3 4.32541e-16 0)
(3 9.75561e-16 0)
(3 3.20088e-16 0)
(3 -2.68152e-16 0)
(3 -1.57885e-16 0)
(3 5.72022e-17 0)
(3 -1.5359e-15 0)
(3 -1.41576e-15 0)
(3 4.1114e-16 0)
(3 1.37455e-15 0)
(3 1.9776e-15 0)
(3 2.20361e-15 0)
(3 2.78271e-15 0)
(3 2.91465e-15 0)
(3 3.34316e-15 0)
(3 2.91656e-15 0)
(3 1.71765e-15 0)
(3 1.17903e-15 0)
(3 1.13688e-15 0)
(3 9.69378e-16 0)
(3 9.06177e-16 0)
(3 1.24084e-16 0)
(3 -1.97801e-16 0)
(3 -3.41924e-16 0)
(3 -1.33693e-16 0)
(3 3.98853e-16 0)
(3 7.53913e-16 0)
(3 6.05624e-16 0)
(3 4.53442e-16 0)
(3 -1.23831e-15 0)
(3 -1.99386e-15 0)
(3 -1.8537e-15 0)
(3 4.19976e-18 0)
(3 -3.17021e-16 0)
(3 -8.77027e-17 0)
(3 2.10843e-16 0)
(3 2.1392e-16 0)
(3 9.00077e-16 0)
(3 1.12575e-15 0)
(3 1.85827e-15 0)
(3 1.08672e-15 0)
(3 2.30992e-16 0)
(3 -1.54752e-16 0)
(3 -1.14861e-15 0)
(3 -2.9411e-15 0)
(3 -2.93955e-15 0)
(3 -2.71216e-15 0)
(3 -2.02307e-15 0)
(3 -1.05887e-15 0)
(3 -4.3799e-16 0)
(3 4.88264e-16 0)
(3 8.45895e-16 0)
(3 8.3239e-16 0)
(3 1.241e-15 0)
(3 1.21363e-15 0)
(3 1.34691e-15 0)
(3 2.11014e-15 0)
(3 2.68372e-15 0)
(3 3.58634e-15 0)
(3 4.48917e-15 0)
(3 4.16966e-15 0)
(3 3.92106e-15 0)
(3 4.61072e-15 0)
(3 3.44396e-15 0)
(3 2.50347e-15 0)
(3 2.01328e-15 0)
(3 2.86969e-15 0)
(3 3.26306e-15 0)
(3 1.98683e-15 0)
(3 -2.27696e-16 0)
(3 -5.28413e-16 0)
(3 -3.17072e-16 0)
(3 -1.24891e-15 0)
(3 -2.32388e-15 0)
(3 -2.37685e-15 0)
(3 -2.18919e-15 0)
(3 -1.54251e-15 0)
(3 -1.16098e-16 0)
(3 8.84828e-16 0)
(3 4.95021e-16 0)
(3 -2.93193e-17 0)
(3 7.70759e-17 0)
(3 4.3147e-17 0)
(3 -2.68217e-16 0)
(3 -3.97933e-16 0)
(3 3.27855e-17 0)
(3 -5.38454e-17 0)
(3 -1.55795e-16 0)
(3 -9.8658e-17 0)
(3 5.11003e-17 0)
(3 -3.15768e-17 0)
(3 1.80371e-16 0)
(3 3.42222e-16 0)
(3 -7.23782e-17 0)
(3 -3.8196e-16 0)
(3 -8.83826e-16 0)
(3 -8.73467e-16 0)
(3 5.72223e-16 0)
(3 1.88126e-15 0)
(3 3.17975e-15 0)
(3 3.25314e-15 0)
(3 2.71657e-15 0)
(3 4.00312e-15 0)
(3 3.91023e-15 0)
(3 1.47868e-15 0)
(3 9.58564e-16 0)
(3 1.316e-15 0)
(3 1.94882e-15 0)
(3 1.34208e-15 0)
(3 1.38124e-15 0)
(3 1.04286e-15 0)
(3 1.22785e-15 0)
(3 6.38755e-16 0)
(3 3.12745e-16 0)
(3 -3.15997e-16 0)
(3 -6.11749e-16 0)
(3 -1.50287e-15 0)
(3 -2.14771e-15 0)
(3 -2.27583e-15 0)
(3 -1.72413e-15 0)
(3 -1.63116e-15 0)
(3 -1.11837e-15 0)
(3 -1.43246e-15 0)
(3 -2.03701e-15 0)
(3 -2.52684e-15 0)
(3 -4.67448e-16 0)
(3 1.33334e-15 0)
(3 9.37253e-16 0)
(3 2.1072e-16 0)
(3 -2.30474e-17 0)
(3 -3.91147e-16 0)
(3 -3.29556e-17 0)
(3 -4.99468e-17 0)
(3 -6.46462e-16 0)
(3 -1.2517e-15 0)
(3 -1.92526e-15 0)
(3 -1.01244e-15 0)
(3 -2.35104e-16 0)
(3 -8.27403e-17 0)
(3 -2.84396e-16 0)
(3 1.66001e-15 0)
(3 1.89297e-15 0)
(3 1.69942e-15 0)
(3 1.2242e-15 0)
(3 1.02766e-15 0)
(3 2.02204e-15 0)
(3 3.1911e-15 0)
(3 3.40512e-15 0)
(3 2.7121e-15 0)
(3 1.90696e-15 0)
(3 1.99732e-15 0)
(3 3.60139e-15 0)
(3 4.56939e-15 0)
(3 3.53703e-15 0)
(3 1.53541e-15 0)
(3 -2.80769e-16 0)
(3 -1.43909e-15 0)
(3 -1.08813e-15 0)
(3 -1.02122e-15 0)
(3 -4.61488e-16 0)
(3 -5.9393e-16 0)
(3 -1.41691e-15 0)
(3 -2.00858e-15 0)
(3 -2.60192e-15 0)
(3 -2.85534e-15 0)
(3 -2.67585e-15 0)
(3 -2.88203e-15 0)
(3 -2.70383e-15 0)
(3 -9.89585e-16 0)
(3 1.7549e-16 0)
(3 -2.04319e-16 0)
(3 -9.28686e-16 0)
(3 -1.4539e-15 0)
(3 -2.30173e-15 0)
(3 -1.6474e-15 0)
(3 -3.72771e-17 0)
(3 -6.05277e-18 0)
(3 -5.42122e-17 0)
(3 -2.33449e-16 0)
(3 1.21872e-16 0)
(3 3.83272e-16 0)
(3 -4.9642e-16 0)
(3 -2.31226e-15 0)
(3 -2.69196e-15 0)
(3 -2.28192e-15 0)
(3 -1.76509e-15 0)
(3 -1.51524e-15 0)
(3 -9.74142e-16 0)
(3 1.05358e-15 0)
(3 2.93871e-15 0)
(3 2.90291e-15 0)
(3 2.3674e-15 0)
(3 1.48864e-15 0)
(3 1.69746e-15 0)
(3 2.12343e-15 0)
(3 1.98917e-15 0)
(3 2.0536e-15 0)
(3 2.53642e-15 0)
(3 3.68831e-15 0)
(3 3.89263e-15 0)
(3 3.97754e-15 0)
(3 3.65473e-15 0)
(3 1.39738e-15 0)
(3 -1.24176e-15 0)
(3 -6.35307e-16 0)
(3 1.03317e-15 0)
(3 1.05e-15 0)
(3 -3.26673e-17 0)
(3 -1.87472e-16 0)
(3 -1.17389e-15 0)
(3 -1.71559e-15 0)
(3 -2.48432e-15 0)
(3 -3.08192e-15 0)
(3 -2.11988e-15 0)
(3 -1.60347e-15 0)
(3 -1.38248e-15 0)
(3 -2.3935e-16 0)
(3 -5.50288e-16 0)
(3 -8.62932e-16 0)
(3 -1.09137e-15 0)
(3 -1.48034e-15 0)
(3 -2.0882e-15 0)
(3 -2.75782e-15 0)
(3 -1.57399e-15 0)
(3 -1.29858e-17 0)
(3 8.95196e-17 0)
(3 3.36753e-16 0)
(3 -4.54555e-17 0)
(3 -2.90516e-16 0)
(3 -8.33478e-16 0)
(3 -9.5728e-16 0)
(3 -1.28832e-15 0)
(3 -1.5011e-15 0)
(3 -1.26433e-15 0)
(3 -5.96162e-16 0)
(3 1.57704e-15 0)
(3 2.27056e-15 0)
(3 2.1515e-15 0)
(3 1.80294e-15 0)
(3 6.00661e-16 0)
(3 4.38786e-16 0)
(3 5.2645e-16 0)
(3 1.18376e-15 0)
(3 1.63584e-15 0)
(3 1.94422e-15 0)
(3 3.35849e-15 0)
(3 3.22242e-15 0)
(3 2.57041e-15 0)
(3 1.66135e-15 0)
(3 1.24489e-15 0)
(3 -6.7601e-16 0)
(3 -8.52775e-16 0)
(3 3.59167e-16 0)
(3 3.65904e-16 0)
(3 2.84487e-16 0)
(3 -5.2868e-17 0)
(3 -1.02413e-16 0)
(3 -4.65967e-16 0)
(3 -1.13296e-15 0)
(3 -1.61687e-15 0)
(3 -1.61583e-15 0)
(3 -9.26245e-16 0)
(3 1.47519e-16 0)
(3 1.64243e-16 0)
(3 -8.57361e-17 0)
(3 1.41912e-17 0)
(3 1.70418e-16 0)
(3 -2.24297e-16 0)
(3 -3.73784e-16 0)
(3 -7.69711e-16 0)
(3 -1.05429e-15 0)
(3 -4.45434e-16 0)
(3 2.67845e-17 0)
(3 2.41002e-16 0)
(3 4.43665e-16 0)
(3 3.99441e-16 0)
(3 -2.81178e-16 0)
(3 -6.57937e-16 0)
(3 -3.50804e-16 0)
(3 4.75995e-16 0)
(3 6.51409e-16 0)
(3 1.09976e-15 0)
(3 1.61851e-15 0)
(3 1.83628e-15 0)
(3 1.83013e-15 0)
(3 1.51939e-15 0)
(3 5.66925e-16 0)
(3 -5.19292e-16 0)
(3 -7.30948e-16 0)
(3 -5.31458e-16 0)
(3 -2.53249e-16 0)
(3 -3.48624e-16 0)
(3 5.89917e-16 0)
(3 9.9326e-16 0)
(3 6.03793e-16 0)
(3 1.6484e-16 0)
(3 2.11709e-17 0)
(3 6.06956e-16 0)
(3 8.95504e-16 0)
(3 9.77951e-16 0)
(3 -2.62446e-16 0)
(3 -1.33851e-15 0)
(3 -1.70619e-15 0)
(3 -1.40969e-15 0)
(3 -1.20686e-15 0)
(3 -9.30875e-16 0)
(3 -1.32784e-15 0)
(3 -8.99144e-16 0)
(3 3.13703e-16 0)
(3 2.61057e-16 0)
(3 1.31239e-16 0)
(3 1.03364e-16 0)
(3 8.78845e-17 0)
(3 5.58886e-16 0)
(3 4.69254e-16 0)
(3 7.74763e-16 0)
(3 1.32254e-15 0)
(3 1.10008e-15 0)
(3 1.28208e-15 0)
(3 1.53804e-15 0)
(3 -6.13364e-17 0)
(3 1.93179e-16 0)
(3 1.20147e-16 0)
(3 2.73441e-17 0)
(3 -4.49047e-16 0)
(3 -2.5405e-16 0)
(3 -2.85607e-16 0)
(3 7.57544e-17 0)
(3 9.50611e-16 0)
(3 1.57778e-15 0)
(3 1.98962e-15 0)
(3 1.47851e-15 0)
(3 5.07116e-16 0)
(3 4.49957e-17 0)
(3 -2.87783e-17 0)
(3 2.52732e-16 0)
(3 2.54541e-16 0)
(3 1.71449e-19 0)
(3 -1.40543e-15 0)
(3 -2.31147e-15 0)
(3 -2.24667e-15 0)
(3 -1.76807e-15 0)
(3 -1.53709e-15 0)
(3 -1.2276e-15 0)
(3 -9.32854e-16 0)
(3 -1.71921e-16 0)
(3 5.1111e-16 0)
(3 5.41599e-16 0)
(3 -3.54415e-16 0)
(3 -2.52028e-15 0)
(3 -2.13003e-15 0)
(3 -1.99747e-15 0)
(3 -1.68165e-15 0)
(3 -1.58577e-15 0)
(3 -1.80841e-15 0)
(3 2.57533e-16 0)
(3 1.06415e-15 0)
(3 8.05016e-16 0)
(3 3.30633e-16 0)
(3 1.23347e-16 0)
(3 -2.69135e-16 0)
(3 -9.69895e-17 0)
(3 6.19325e-16 0)
(3 2.10217e-15 0)
(3 2.02395e-15 0)
(3 1.81608e-15 0)
(3 1.41456e-15 0)
(3 2.02212e-15 0)
(3 -2.85369e-17 0)
(3 -2.50833e-16 0)
(3 -2.02728e-16 0)
(3 -3.45725e-16 0)
(3 -1.61462e-16 0)
(3 7.53151e-16 0)
(3 8.53256e-16 0)
(3 9.23816e-16 0)
(3 1.25758e-15 0)
(3 1.20374e-15 0)
(3 1.44832e-15 0)
(3 1.36376e-15 0)
(3 8.87234e-16 0)
(3 3.61943e-16 0)
(3 9.69308e-16 0)
(3 1.64713e-15 0)
(3 1.9814e-15 0)
(3 -2.7753e-16 0)
(3 -1.51201e-15 0)
(3 -1.94458e-15 0)
(3 -2.30407e-15 0)
(3 -2.59342e-15 0)
(3 -2.47737e-15 0)
(3 -1.20205e-15 0)
(3 -1.0253e-15 0)
(3 -1.87774e-16 0)
(3 1.21392e-15 0)
(3 1.24477e-15 0)
(3 7.65887e-16 0)
(3 -7.57806e-16 0)
(3 -6.51176e-16 0)
(3 -6.21394e-16 0)
(3 -5.53771e-16 0)
(3 -7.61345e-16 0)
(3 -2.71703e-16 0)
(3 2.95339e-16 0)
(3 9.60938e-16 0)
(3 9.72893e-16 0)
(3 7.56152e-16 0)
(3 2.78733e-16 0)
(3 -6.60393e-16 0)
(3 -7.65782e-16 0)
(3 1.13219e-16 0)
(3 6.92655e-16 0)
(3 6.72028e-16 0)
(3 6.67415e-16 0)
(3 4.70048e-16 0)
(3 3.90218e-16 0)
(3 3.55954e-17 0)
(3 7.87387e-18 0)
(3 -1.39606e-16 0)
(3 -4.67514e-16 0)
(3 -2.21766e-16 0)
(3 4.75361e-16 0)
(3 1.27602e-15 0)
(3 1.011e-15 0)
(3 6.64212e-16 0)
(3 4.81562e-17 0)
(3 -7.34246e-16 0)
(3 -8.14272e-16 0)
(3 3.27499e-16 0)
(3 1.29945e-15 0)
(3 1.83983e-15 0)
(3 2.34985e-15 0)
(3 1.52267e-15 0)
(3 -2.71141e-16 0)
(3 -7.71444e-16 0)
(3 -1.14939e-15 0)
(3 -3.2264e-15 0)
(3 -3.48203e-15 0)
(3 -2.48651e-15 0)
(3 -6.46452e-16 0)
(3 -6.2427e-17 0)
(3 4.03437e-16 0)
(3 7.09465e-16 0)
(3 7.54959e-16 0)
(3 1.21151e-15 0)
(3 1.01264e-15 0)
(3 2.0945e-15 0)
(3 2.84366e-15 0)
(3 1.40453e-15 0)
(3 7.88336e-16 0)
(3 5.65843e-16 0)
(3 -1.9681e-16 0)
(3 6.59483e-16 0)
(3 1.23242e-15 0)
(3 2.08546e-16 0)
(3 -9.54773e-16 0)
(3 -1.1459e-15 0)
(3 -5.61144e-16 0)
(3 -1.57931e-15 0)
(3 -1.848e-15 0)
(3 -1.05705e-15 0)
(3 3.62832e-16 0)
(3 1.28425e-15 0)
(3 4.91498e-17 0)
(3 1.30253e-16 0)
(3 1.75838e-16 0)
(3 -2.58683e-16 0)
(3 -5.53469e-16 0)
(3 -8.21313e-16 0)
(3 -6.14424e-16 0)
(3 -5.93138e-16 0)
(3 -7.87607e-16 0)
(3 -1.15646e-15 0)
(3 -1.46818e-15 0)
(3 -2.00568e-15 0)
(3 -2.52005e-15 0)
(3 -2.02527e-15 0)
(3 -1.25167e-15 0)
(3 -1.2897e-15 0)
(3 -2.02605e-15 0)
(3 -2.20806e-15 0)
(3 -1.53499e-15 0)
(3 -9.14484e-16 0)
(3 -1.19453e-15 0)
(3 -2.44202e-15 0)
(3 -2.95156e-15 0)
(3 -2.62139e-15 0)
(3 -1.69705e-15 0)
(3 -9.73784e-16 0)
(3 -1.70264e-15 0)
(3 -1.81402e-15 0)
(3 -1.76679e-15 0)
(3 -1.00672e-15 0)
(3 4.05647e-16 0)
(3 1.03239e-15 0)
(3 1.02012e-15 0)
(3 8.36857e-16 0)
(3 9.83453e-16 0)
(3 6.17041e-16 0)
(3 3.95315e-18 0)
(3 -6.77967e-16 0)
(3 -4.38283e-16 0)
(3 -2.93406e-16 0)
(3 -1.15584e-16 0)
(3 1.50657e-15 0)
(3 1.17359e-15 0)
(3 3.32485e-16 0)
(3 -1.46965e-16 0)
(3 -1.6478e-16 0)
(3 1.2196e-15 0)
(3 2.57066e-15 0)
(3 2.36585e-15 0)
(3 4.308e-17 0)
(3 -9.90814e-17 0)
(3 -1.58445e-16 0)
(3 -8.90038e-17 0)
(3 -4.95417e-17 0)
(3 -2.01996e-16 0)
(3 -1.19577e-15 0)
(3 -1.49831e-15 0)
(3 -1.10904e-15 0)
(3 -1.19915e-15 0)
(3 -9.93902e-16 0)
(3 -5.62627e-16 0)
(3 -1.67057e-15 0)
(3 -2.66795e-15 0)
(3 -3.90839e-15 0)
(3 -4.15273e-15 0)
(3 -3.6934e-15 0)
(3 -3.22303e-15 0)
(3 -2.22254e-15 0)
(3 -9.71283e-16 0)
(3 -8.32051e-16 0)
(3 -9.96293e-16 0)
(3 -1.03131e-15 0)
(3 -2.05565e-15 0)
(3 -2.47756e-15 0)
(3 -2.41178e-15 0)
(3 -2.26423e-15 0)
(3 -2.16012e-15 0)
(3 -1.2639e-15 0)
(3 -7.05988e-17 0)
(3 3.98277e-17 0)
(3 -1.29271e-15 0)
(3 -7.06487e-16 0)
(3 -4.70314e-16 0)
(3 4.50598e-16 0)
(3 1.43071e-15 0)
(3 2.78067e-16 0)
(3 -5.92221e-16 0)
(3 -8.75682e-16 0)
(3 2.67e-16 0)
(3 2.02956e-15 0)
(3 2.57054e-15 0)
(3 2.98795e-15 0)
(3 2.84647e-15 0)
(3 2.46346e-15 0)
(3 1.91471e-15 0)
(3 2.00748e-15 0)
(3 2.02852e-15 0)
(3 -1.85348e-16 0)
(3 -5.93388e-18 0)
(3 -5.67784e-17 0)
(3 1.75029e-16 0)
(3 2.29422e-16 0)
(3 -5.34828e-17 0)
(3 1.4884e-16 0)
(3 4.4247e-16 0)
(3 1.26261e-15 0)
(3 1.63914e-15 0)
(3 2.12984e-15 0)
(3 1.77346e-15 0)
(3 6.37571e-16 0)
(3 -5.12187e-16 0)
(3 -7.01053e-16 0)
(3 -7.01351e-16 0)
(3 -4.57033e-16 0)
(3 2.6895e-16 0)
(3 7.32579e-16 0)
(3 1.53786e-15 0)
(3 2.14539e-15 0)
(3 2.38822e-15 0)
(3 1.82517e-15 0)
(3 3.11083e-17 0)
(3 -1.35422e-15 0)
(3 -1.92901e-15 0)
(3 -1.47901e-15 0)
(3 -9.29291e-16 0)
(3 -8.03445e-16 0)
(3 -4.42203e-16 0)
(3 -7.11443e-16 0)
(3 -4.88774e-16 0)
(3 -1.56279e-16 0)
(3 -1.79456e-16 0)
(3 4.57702e-16 0)
(3 1.06763e-15 0)
(3 8.81181e-16 0)
(3 3.8787e-16 0)
(3 -5.14838e-16 0)
(3 -6.91599e-16 0)
(3 -3.75246e-16 0)
(3 3.31608e-16 0)
(3 1.66165e-15 0)
(3 2.88078e-15 0)
(3 4.20624e-15 0)
(3 3.40758e-15 0)
(3 2.05366e-15 0)
(3 1.39169e-15 0)
(3 1.95364e-16 0)
(3 1.51908e-16 0)
(3 2.22182e-16 0)
(3 3.92809e-16 0)
(3 3.76144e-16 0)
(3 2.99594e-16 0)
(3 7.84248e-16 0)
(3 1.3893e-15 0)
(3 1.13772e-15 0)
(3 1.05921e-15 0)
(3 1.15263e-15 0)
(3 8.63475e-16 0)
(3 6.25672e-16 0)
(3 1.32707e-15 0)
(3 1.97927e-15 0)
(3 1.16589e-15 0)
(3 1.5564e-15 0)
(3 2.05149e-15 0)
(3 2.96013e-15 0)
(3 2.61982e-15 0)
(3 3.2187e-15 0)
(3 4.26377e-15 0)
(3 3.93138e-15 0)
(3 2.39552e-15 0)
(3 2.58697e-16 0)
(3 -5.08341e-16 0)
(3 -4.76855e-16 0)
(3 -3.93467e-16 0)
(3 -5.92591e-16 0)
(3 -1.33543e-15 0)
(3 -2.05616e-15 0)
(3 -1.02891e-15 0)
(3 7.54349e-16 0)
(3 9.93456e-16 0)
(3 9.56347e-16 0)
(3 3.51617e-16 0)
(3 1.94112e-16 0)
(3 2.39743e-17 0)
(3 -5.45279e-16 0)
(3 -2.15989e-15 0)
(3 -1.5755e-15 0)
(3 -1.09523e-15 0)
(3 -5.19176e-16 0)
(3 9.56348e-16 0)
(3 2.09268e-15 0)
(3 2.40599e-15 0)
(3 1.56506e-15 0)
(3 2.34643e-15 0)
(3 1.45774e-16 0)
(3 -6.10431e-18 0)
(3 6.60429e-16 0)
(3 6.1414e-16 0)
(3 6.20679e-17 0)
(3 -3.86761e-16 0)
(3 -5.03023e-16 0)
(3 -1.18026e-15 0)
(3 -1.9254e-15 0)
(3 -2.43835e-15 0)
(3 -2.58513e-15 0)
(3 -1.74595e-15 0)
(3 -5.476e-16 0)
(3 6.25492e-16 0)
(3 9.53819e-16 0)
(3 1.07234e-15 0)
(3 1.18639e-15 0)
(3 9.80124e-16 0)
(3 8.46906e-16 0)
(3 9.08062e-16 0)
(3 1.89156e-15 0)
(3 2.10834e-15 0)
(3 1.71708e-15 0)
(3 5.3787e-16 0)
(3 4.93098e-16 0)
(3 -6.03115e-16 0)
(3 -2.11443e-15 0)
(3 -1.83826e-15 0)
(3 -1.22109e-15 0)
(3 -1.50315e-15 0)
(3 -2.32419e-15 0)
(3 -2.12559e-15 0)
(3 3.18132e-16 0)
(3 1.11005e-15 0)
(3 1.08833e-15 0)
(3 9.58207e-16 0)
(3 7.42844e-16 0)
(3 8.24877e-16 0)
(3 1.01871e-15 0)
(3 -1.8179e-16 0)
(3 -9.12006e-16 0)
(3 -1.39882e-15 0)
(3 -1.5573e-15 0)
(3 -7.41251e-16 0)
(3 -8.21054e-16 0)
(3 -7.86187e-16 0)
(3 1.43634e-16 0)
(3 9.60638e-16 0)
(3 -3.29046e-16 0)
(3 -4.82107e-17 0)
(3 -2.59553e-16 0)
(3 -3.32726e-16 0)
(3 1.26877e-16 0)
(3 -2.43186e-18 0)
(3 -7.1878e-16 0)
(3 -9.12144e-16 0)
(3 -1.20859e-15 0)
(3 -1.39738e-15 0)
(3 -1.23036e-15 0)
(3 -8.14772e-16 0)
(3 2.53642e-16 0)
(3 2.96937e-16 0)
(3 -1.14159e-16 0)
(3 -3.33556e-16 0)
(3 -1.33965e-15 0)
(3 -1.86194e-15 0)
(3 -1.29946e-15 0)
(3 -4.38075e-16 0)
(3 2.18462e-16 0)
(3 5.22397e-16 0)
(3 5.06586e-16 0)
(3 1.15968e-16 0)
(3 4.34823e-16 0)
(3 -1.43686e-15 0)
(3 -2.48131e-15 0)
(3 -2.10658e-15 0)
(3 -9.59456e-16 0)
(3 -7.35899e-16 0)
(3 -1.6993e-15 0)
(3 -1.44486e-15 0)
(3 -4.39718e-16 0)
(3 4.46711e-16 0)
(3 3.99881e-16 0)
(3 1.55206e-15 0)
(3 1.63244e-15 0)
(3 1.65099e-15 0)
(3 1.77021e-15 0)
(3 2.28319e-15 0)
(3 1.24627e-15 0)
(3 -4.46225e-16 0)
(3 -4.93882e-16 0)
(3 -1.54611e-15 0)
(3 -1.8122e-15 0)
(3 -1.47014e-15 0)
(3 -4.23026e-16 0)
(3 -4.71938e-16 0)
(3 -7.67087e-17 0)
(3 -1.35806e-16 0)
(3 -2.23528e-16 0)
(3 -2.06123e-16 0)
(3 2.91399e-16 0)
(3 1.08876e-15 0)
(3 1.76675e-15 0)
(3 1.47914e-15 0)
(3 1.1849e-15 0)
(3 1.20367e-15 0)
(3 9.70697e-16 0)
(3 -1.8538e-16 0)
(3 -2.47858e-16 0)
(3 3.12507e-16 0)
(3 -3.08508e-16 0)
(3 -1.11387e-15 0)
(3 -1.50669e-15 0)
(3 -1.177e-15 0)
(3 -8.44134e-16 0)
(3 -5.48386e-16 0)
(3 -6.3661e-16 0)
(3 -3.81797e-16 0)
(3 8.98114e-17 0)
(3 3.04726e-16 0)
(3 1.98532e-16 0)
(3 -9.46996e-16 0)
(3 -1.28567e-15 0)
(3 -2.7139e-16 0)
(3 5.08839e-16 0)
(3 6.16029e-16 0)
(3 1.17911e-15 0)
(3 7.87774e-16 0)
(3 -5.69506e-16 0)
(3 9.66372e-17 0)
(3 8.97381e-16 0)
(3 1.4113e-15 0)
(3 1.83929e-15 0)
(3 1.24351e-15 0)
(3 6.5029e-16 0)
(3 3.99302e-16 0)
(3 3.68932e-16 0)
(3 2.27144e-17 0)
(3 -4.01637e-16 0)
(3 -9.12605e-16 0)
(3 -3.69247e-16 0)
(3 5.51239e-16 0)
(3 8.33484e-16 0)
(3 5.77045e-16 0)
(3 1.27769e-16 0)
(3 -7.68058e-17 0)
(3 2.84313e-17 0)
(3 1.81727e-16 0)
(3 -1.90023e-17 0)
(3 5.38912e-16 0)
(3 1.22385e-15 0)
(3 1.29074e-15 0)
(3 4.84265e-16 0)
(3 1.62878e-16 0)
(3 1.23948e-17 0)
(3 -1.46932e-15 0)
(3 -1.88822e-15 0)
(3 -1.96258e-15 0)
(3 -7.35887e-16 0)
(3 -2.8891e-16 0)
(3 -7.24699e-17 0)
(3 1.5457e-16 0)
(3 -4.54932e-16 0)
(3 -8.20639e-16 0)
(3 -8.34955e-16 0)
(3 -1.10159e-15 0)
(3 -5.68377e-16 0)
(3 -4.2437e-16 0)
(3 -3.98907e-16 0)
(3 -1.73318e-16 0)
(3 1.91714e-16 0)
(3 1.3542e-15 0)
(3 1.33047e-15 0)
(3 1.32401e-15 0)
(3 1.76722e-15 0)
(3 1.24999e-15 0)
(3 3.72191e-16 0)
(3 6.06631e-17 0)
(3 5.46464e-16 0)
(3 4.09298e-16 0)
(3 4.91183e-16 0)
(3 6.87862e-16 0)
(3 9.28759e-16 0)
(3 9.16226e-16 0)
(3 4.72861e-16 0)
(3 -7.23595e-16 0)
(3 -1.70879e-15 0)
(3 -2.10334e-15 0)
(3 -1.24384e-15 0)
(3 1.17243e-15 0)
(3 1.7548e-15 0)
(3 1.06255e-15 0)
(3 1.85277e-16 0)
(3 1.8504e-16 0)
(3 1.35511e-16 0)
(3 3.0432e-16 0)
(3 5.15915e-16 0)
(3 -3.92921e-16 0)
(3 -9.75302e-16 0)
(3 -1.06494e-15 0)
(3 -1.22565e-15 0)
(3 -1.31048e-15 0)
(3 -1.32038e-15 0)
(3 -1.13668e-15 0)
(3 -1.08506e-15 0)
(3 -1.45415e-15 0)
(3 -1.12259e-15 0)
(3 -3.10797e-16 0)
(3 -2.16853e-16 0)
(3 -5.26166e-16 0)
(3 -1.05688e-15 0)
(3 -1.25387e-15 0)
(3 -1.47084e-15 0)
(3 -1.71453e-15 0)
(3 -1.95378e-15 0)
(3 -1.11347e-15 0)
(3 2.57987e-16 0)
(3 1.46392e-15 0)
(3 2.48389e-15 0)
(3 2.13858e-15 0)
(3 1.9461e-15 0)
(3 1.64517e-15 0)
(3 7.38545e-16 0)
(3 -3.13628e-16 0)
(3 -5.22205e-16 0)
(3 -3.94585e-16 0)
(3 -3.67383e-16 0)
(3 -1.1341e-15 0)
(3 -2.46255e-16 0)
(3 8.98677e-16 0)
(3 1.90067e-15 0)
(3 2.65384e-15 0)
(3 2.12118e-15 0)
(3 5.96434e-16 0)
(3 -1.30498e-15 0)
(3 -2.3689e-15 0)
(3 -2.01214e-15 0)
(3 -3.73154e-16 0)
(3 7.47573e-17 0)
(3 1.603e-16 0)
(3 -1.08123e-16 0)
(3 -1.14683e-16 0)
(3 3.7878e-16 0)
(3 7.3978e-16 0)
(3 6.47395e-16 0)
(3 -2.756e-16 0)
(3 -1.707e-15 0)
(3 -1.65764e-15 0)
(3 -1.16872e-15 0)
(3 -1.11493e-16 0)
(3 6.55647e-16 0)
(3 1.09426e-15 0)
(3 1.46445e-16 0)
(3 -2.07979e-16 0)
(3 -3.68509e-17 0)
(3 2.8045e-16 0)
(3 3.19918e-16 0)
(3 2.42486e-17 0)
(3 -1.42924e-15 0)
(3 -2.40909e-15 0)
(3 -2.74994e-15 0)
(3 -3.11414e-15 0)
(3 -2.11713e-15 0)
(3 -8.11713e-16 0)
(3 1.17573e-15 0)
(3 2.71382e-15 0)
(3 3.0908e-15 0)
(3 2.72926e-15 0)
(3 1.531e-15 0)
(3 3.31928e-17 0)
(3 -3.25077e-16 0)
(3 -4.42436e-16 0)
(3 -1.83288e-16 0)
(3 4.90177e-16 0)
(3 1.07941e-15 0)
(3 1.37446e-15 0)
(3 2.40506e-15 0)
(3 2.91541e-15 0)
(3 2.87563e-15 0)
(3 3.03648e-15 0)
(3 2.93453e-15 0)
(3 1.76835e-15 0)
(3 7.16392e-16 0)
(3 5.00367e-16 0)
(3 -6.75138e-16 0)
(3 -1.56251e-15 0)
(3 -2.64724e-15 0)
(3 -1.16938e-15 0)
(3 -3.0651e-17 0)
(3 -1.29827e-16 0)
(3 6.67897e-17 0)
(3 2.0829e-16 0)
(3 2.18154e-16 0)
(3 4.8156e-16 0)
(3 6.08376e-16 0)
(3 1.0906e-15 0)
(3 1.263e-15 0)
(3 1.08388e-15 0)
(3 7.58913e-16 0)
(3 6.24833e-16 0)
(3 2.88589e-16 0)
(3 -4.18321e-16 0)
(3 -1.41951e-16 0)
(3 7.60313e-16 0)
(3 7.24702e-16 0)
(3 2.9461e-16 0)
(3 -9.11918e-16 0)
(3 -7.29295e-16 0)
(3 -3.08394e-16 0)
(3 7.24833e-16 0)
(3 1.13542e-15 0)
(3 1.17114e-15 0)
(3 1.9666e-15 0)
(3 2.52849e-15 0)
(3 2.55626e-15 0)
(3 1.66374e-15 0)
(3 7.81569e-17 0)
(3 -1.08779e-15 0)
(3 -1.8022e-15 0)
(3 -1.44335e-15 0)
(3 -1.6584e-15 0)
(3 -1.94021e-15 0)
(3 -1.15633e-15 0)
(3 -8.63478e-16 0)
(3 4.01794e-16 0)
(3 5.75045e-16 0)
(3 1.11186e-15 0)
(3 2.22319e-15 0)
(3 2.7494e-15 0)
(3 2.56313e-15 0)
(3 3.13314e-15 0)
(3 3.51367e-15 0)
(3 2.46726e-15 0)
(3 -3.86416e-16 0)
(3 -1.86037e-15 0)
(3 -7.49548e-16 0)
(3 5.76672e-17 0)
(3 1.58035e-16 0)
(3 -5.5735e-16 0)
(3 -1.07312e-15 0)
(3 -1.91067e-16 0)
(3 9.88727e-16 0)
(3 2.17352e-15 0)
(3 1.66914e-15 0)
(3 1.10958e-15 0)
(3 2.93224e-16 0)
(3 2.36086e-16 0)
(3 5.3321e-16 0)
(3 6.74047e-16 0)
(3 8.22006e-16 0)
(3 2.20857e-16 0)
(3 -3.2722e-16 0)
(3 -3.76653e-16 0)
(3 4.89381e-16 0)
(3 1.08971e-15 0)
(3 2.6094e-15 0)
(3 3.26389e-15 0)
(3 3.18392e-15 0)
(3 2.11309e-15 0)
(3 2.36879e-15 0)
(3 2.83924e-15 0)
(3 2.80479e-15 0)
(3 3.86749e-15 0)
(3 3.21771e-15 0)
(3 1.77852e-15 0)
(3 9.40083e-16 0)
(3 -1.08757e-15 0)
(3 -1.41466e-15 0)
(3 -2.24637e-15 0)
(3 -2.71643e-15 0)
(3 -3.11276e-15 0)
(3 -3.2214e-15 0)
(3 -3.40371e-15 0)
(3 -3.33414e-15 0)
(3 -2.76672e-15 0)
(3 -1.69521e-15 0)
(3 -6.39576e-16 0)
(3 8.76793e-17 0)
(3 7.70586e-16 0)
(3 1.13057e-15 0)
(3 1.34954e-15 0)
(3 1.3349e-15 0)
(3 1.13509e-15 0)
(3 1.36081e-15 0)
(3 1.013e-18 0)
(3 -2.49365e-16 0)
(3 -2.76439e-16 0)
(3 3.99382e-17 0)
(3 -2.33811e-16 0)
(3 -5.86553e-16 0)
(3 -3.6037e-16 0)
(3 -4.51553e-16 0)
(3 -2.12615e-16 0)
(3 1.57773e-16 0)
(3 3.65593e-16 0)
(3 6.66319e-16 0)
(3 6.30878e-16 0)
(3 -3.2525e-16 0)
(3 -7.75097e-16 0)
(3 -1.32678e-15 0)
(3 -6.59113e-16 0)
(3 3.07601e-16 0)
(3 2.40962e-15 0)
(3 4.03076e-15 0)
(3 3.33658e-15 0)
(3 2.1179e-15 0)
(3 1.48086e-15 0)
(3 2.38109e-15 0)
(3 2.41272e-15 0)
(3 2.26706e-15 0)
(3 2.62606e-15 0)
(3 2.54295e-15 0)
(3 1.78069e-15 0)
(3 1.47626e-15 0)
(3 8.70742e-16 0)
(3 -5.52208e-16 0)
(3 -6.9972e-16 0)
(3 -1.10914e-15 0)
(3 -3.29728e-15 0)
(3 -4.46428e-15 0)
(3 -4.43668e-15 0)
(3 -3.94237e-15 0)
(3 -3.44706e-15 0)
(3 -3.69285e-15 0)
(3 -2.3458e-15 0)
(3 -1.07337e-15 0)
(3 -1.12027e-15 0)
(3 -7.07977e-16 0)
(3 2.93764e-16 0)
(3 1.619e-15 0)
(3 2.85721e-15 0)
(3 2.693e-15 0)
(3 1.07078e-16 0)
(3 1.1661e-16 0)
(3 5.09898e-16 0)
(3 8.33224e-16 0)
(3 -1.21732e-16 0)
(3 -1.24452e-15 0)
(3 -2.10662e-15 0)
(3 -2.11943e-15 0)
(3 -1.70133e-15 0)
(3 -3.498e-16 0)
(3 5.25101e-16 0)
(3 5.98893e-16 0)
(3 4.7645e-16 0)
(3 5.14438e-16 0)
(3 6.28773e-16 0)
(3 7.59127e-16 0)
(3 1.00358e-15 0)
(3 1.14115e-15 0)
(3 1.90312e-15 0)
(3 1.72326e-15 0)
(3 1.38282e-15 0)
(3 6.8944e-16 0)
(3 6.97991e-16 0)
(3 9.98601e-16 0)
(3 1.79041e-15 0)
(3 1.76372e-15 0)
(3 9.05703e-16 0)
(3 9.45647e-17 0)
(3 -4.55253e-16 0)
(3 -9.01088e-16 0)
(3 -7.72179e-16 0)
(3 -5.41736e-16 0)
(3 -1.07952e-15 0)
(3 -1.90248e-15 0)
(3 -2.35508e-15 0)
(3 -1.82684e-15 0)
(3 -1.44202e-15 0)
(3 -9.10522e-16 0)
(3 -6.69085e-16 0)
(3 -1.18897e-15 0)
(3 -6.34092e-16 0)
(3 5.93307e-16 0)
(3 9.33536e-16 0)
(3 2.15406e-15 0)
(3 1.78855e-15 0)
(3 1.05635e-15 0)
(3 8.26957e-16 0)
(3 5.96919e-16 0)
(3 -1.077e-16 0)
(3 5.46244e-16 0)
(3 6.22185e-16 0)
(3 3.87696e-16 0)
(3 5.81842e-16 0)
(3 6.80038e-16 0)
(3 3.04202e-16 0)
(3 1.75391e-16 0)
(3 -6.90009e-16 0)
(3 -9.2654e-16 0)
(3 -9.7126e-16 0)
(3 -7.19471e-16 0)
(3 -1.56114e-16 0)
(3 9.21799e-16 0)
(3 1.15433e-15 0)
(3 2.21265e-15 0)
(3 1.28816e-15 0)
(3 5.27383e-16 0)
(3 -3.67933e-16 0)
(3 -1.41861e-15 0)
(3 -8.42392e-16 0)
(3 -3.17009e-16 0)
(3 4.25287e-16 0)
(3 5.54779e-16 0)
(3 1.50032e-15 0)
(3 2.10221e-15 0)
(3 5.95166e-16 0)
(3 -3.16908e-16 0)
(3 -6.13213e-16 0)
(3 -2.25085e-16 0)
(3 2.15146e-16 0)
(3 2.33468e-16 0)
(3 -1.8462e-16 0)
(3 -1.30383e-15 0)
(3 -1.18391e-15 0)
(3 -1.54244e-15 0)
(3 -1.69116e-15 0)
(3 -1.16911e-15 0)
(3 -8.08159e-16 0)
(3 2.90444e-16 0)
(3 5.1558e-17 0)
(3 1.16885e-15 0)
(3 2.92956e-15 0)
(3 4.31077e-15 0)
(3 3.95025e-15 0)
(3 2.52448e-15 0)
(3 4.31142e-16 0)
(3 -1.406e-15 0)
(3 -2.36774e-16 0)
(3 -1.97333e-16 0)
(3 -2.70249e-16 0)
(3 7.088e-17 0)
(3 1.32286e-16 0)
(3 4.46529e-16 0)
(3 6.46406e-16 0)
(3 7.65887e-16 0)
(3 3.53553e-17 0)
(3 -1.84148e-16 0)
(3 -1.41336e-15 0)
(3 -1.91644e-15 0)
(3 -1.42879e-15 0)
(3 -1.04402e-15 0)
(3 4.40677e-16 0)
(3 1.04612e-15 0)
(3 4.49138e-16 0)
(3 -4.02223e-16 0)
(3 -9.26283e-16 0)
(3 -1.64476e-15 0)
(3 -1.64857e-15 0)
(3 3.52097e-16 0)
(3 1.54453e-15 0)
(3 1.48073e-15 0)
(3 1.28022e-15 0)
(3 9.49023e-16 0)
(3 2.89527e-16 0)
(3 4.0342e-16 0)
(3 2.64864e-16 0)
(3 9.64822e-16 0)
(3 8.1703e-16 0)
(3 2.79128e-16 0)
(3 9.27088e-17 0)
(3 7.85856e-17 0)
(3 -3.57489e-16 0)
(3 -6.7105e-16 0)
(3 -1.10674e-15 0)
(3 -1.67499e-15 0)
(3 -1.80341e-15 0)
(3 -1.46053e-15 0)
(3 -1.24777e-15 0)
(3 8.52838e-16 0)
(3 4.03647e-15 0)
(3 4.16438e-15 0)
(3 3.8067e-15 0)
(3 2.4734e-15 0)
(3 1.93034e-15 0)
(3 4.64503e-17 0)
(3 1.88539e-17 0)
(3 -2.74586e-16 0)
(3 -6.04039e-16 0)
(3 -6.57746e-16 0)
(3 -7.76746e-16 0)
(3 -3.88594e-16 0)
(3 -4.16809e-16 0)
(3 4.22586e-16 0)
(3 1.33294e-15 0)
(3 1.37054e-15 0)
(3 1.3704e-15 0)
(3 6.94861e-16 0)
(3 4.56926e-16 0)
(3 4.54685e-17 0)
(3 -7.51561e-16 0)
(3 -1.40934e-15 0)
(3 -5.30291e-16 0)
(3 1.40544e-16 0)
(3 2.07148e-16 0)
(3 -3.34525e-16 0)
(3 -4.13064e-16 0)
(3 -4.67509e-18 0)
(3 6.79796e-16 0)
(3 1.24309e-15 0)
(3 8.71495e-16 0)
(3 7.86804e-16 0)
(3 3.83659e-16 0)
(3 5.65216e-16 0)
(3 1.00768e-15 0)
(3 5.9928e-16 0)
(3 1.8548e-16 0)
(3 4.50148e-16 0)
(3 1.09207e-15 0)
(3 2.43238e-15 0)
(3 2.38453e-15 0)
(3 2.81247e-15 0)
(3 1.76204e-15 0)
(3 3.34468e-16 0)
(3 -4.67856e-16 0)
(3 -3.84603e-16 0)
(3 5.48901e-16 0)
(3 1.59266e-15 0)
(3 2.33764e-15 0)
(3 2.15484e-15 0)
(3 1.43311e-15 0)
(3 8.89628e-16 0)
(3 1.37012e-16 0)
(3 -1.34425e-15 0)
(3 -2.95778e-17 0)
(3 4.50717e-17 0)
(3 -2.53616e-16 0)
(3 -1.16355e-15 0)
(3 -1.24347e-15 0)
(3 -9.36133e-16 0)
(3 -3.93193e-18 0)
(3 1.57307e-15 0)
(3 3.2227e-15 0)
(3 3.4762e-15 0)
(3 2.77274e-15 0)
(3 2.3331e-15 0)
(3 7.46138e-16 0)
(3 -2.36198e-16 0)
(3 -8.37857e-16 0)
(3 -2.02536e-15 0)
(3 -1.50805e-15 0)
(3 -1.03507e-15 0)
(3 -1.30342e-15 0)
(3 -1.75081e-15 0)
(3 -1.71745e-15 0)
(3 -1.91274e-15 0)
(3 -2.41704e-15 0)
(3 -1.26919e-15 0)
(3 -4.05774e-16 0)
(3 2.96599e-16 0)
(3 4.2934e-16 0)
(3 9.24812e-17 0)
(3 -3.72148e-17 0)
(3 -5.1493e-18 0)
(3 -4.53326e-17 0)
(3 3.6566e-16 0)
(3 8.26748e-16 0)
(3 1.52631e-15 0)
(3 1.7839e-15 0)
(3 2.52136e-15 0)
(3 2.55164e-15 0)
(3 1.99748e-15 0)
(3 1.7316e-15 0)
(3 1.79218e-15 0)
(3 1.01331e-15 0)
(3 5.96167e-16 0)
(3 -4.87432e-16 0)
(3 -1.58757e-15 0)
(3 -1.94311e-15 0)
(3 -2.26722e-15 0)
(3 -3.27684e-15 0)
(3 -4.5423e-15 0)
(3 2.28784e-17 0)
(3 -2.20945e-16 0)
(3 1.8541e-16 0)
(3 2.55011e-16 0)
(3 -2.52574e-16 0)
(3 -1.21824e-15 0)
(3 -9.32012e-16 0)
(3 6.92147e-17 0)
(3 4.77665e-16 0)
(3 7.19622e-16 0)
(3 7.76587e-16 0)
(3 3.59577e-16 0)
(3 -4.21453e-16 0)
(3 -3.78184e-16 0)
(3 -1.53498e-16 0)
(3 2.43719e-16 0)
(3 1.8582e-16 0)
(3 -7.55052e-16 0)
(3 -9.8572e-16 0)
(3 -9.47129e-16 0)
(3 -1.50965e-15 0)
(3 -1.61622e-15 0)
(3 -1.95419e-15 0)
(3 -1.97804e-15 0)
(3 -1.34366e-15 0)
(3 -1.18091e-15 0)
(3 -7.38773e-16 0)
(3 -8.50676e-16 0)
(3 -8.46408e-16 0)
(3 -2.62937e-16 0)
(3 -5.16276e-16 0)
(3 -1.21188e-15 0)
(3 -1.44037e-15 0)
(3 -1.62406e-15 0)
(3 -1.10703e-15 0)
(3 -8.40794e-16 0)
(3 1.14719e-15 0)
(3 2.45529e-15 0)
(3 2.95065e-15 0)
(3 8.82947e-16 0)
(3 -7.64821e-16 0)
(3 -1.46512e-15 0)
(3 -2.55438e-15 0)
(3 -3.78567e-15 0)
(3 -4.06324e-15 0)
(3 -3.95973e-15 0)
(3 -3.784e-15 0)
(3 -2.51413e-15 0)
(3 5.5903e-17 0)
(3 -7.97487e-17 0)
(3 8.56508e-17 0)
(3 6.55907e-17 0)
(3 -3.8844e-16 0)
(3 -4.5212e-16 0)
(3 -8.09824e-16 0)
(3 -6.56794e-16 0)
(3 -3.7604e-16 0)
(3 2.36004e-17 0)
(3 4.16757e-16 0)
(3 1.997e-16 0)
(3 -1.11801e-16 0)
(3 6.48873e-16 0)
(3 5.91098e-16 0)
(3 1.08104e-15 0)
(3 1.10467e-15 0)
(3 7.69625e-16 0)
(3 5.85325e-16 0)
(3 1.35142e-15 0)
(3 1.32562e-16 0)
(3 -3.46988e-16 0)
(3 -2.96035e-16 0)
(3 -4.04362e-16 0)
(3 -7.16486e-17 0)
(3 6.23679e-16 0)
(3 1.46344e-15 0)
(3 1.77909e-15 0)
(3 1.88619e-15 0)
(3 1.05963e-15 0)
(3 1.14085e-16 0)
(3 -6.58414e-16 0)
(3 -7.03944e-16 0)
(3 -6.69644e-17 0)
(3 1.1317e-16 0)
(3 6.45433e-17 0)
(3 1.09794e-15 0)
(3 1.54319e-15 0)
(3 2.11233e-15 0)
(3 1.34399e-15 0)
(3 4.40649e-16 0)
(3 1.04781e-16 0)
(3 -5.06979e-16 0)
(3 -1.34816e-15 0)
(3 -1.07193e-15 0)
(3 -5.46953e-16 0)
(3 1.49409e-17 0)
(3 1.11754e-15 0)
(3 -3.14831e-17 0)
(3 1.29965e-16 0)
(3 -3.85792e-17 0)
(3 -2.15368e-16 0)
(3 -2.14897e-17 0)
(3 7.09466e-16 0)
(3 1.40713e-15 0)
(3 1.4078e-15 0)
(3 1.31917e-15 0)
(3 3.93779e-18 0)
(3 -3.55121e-16 0)
(3 1.13153e-16 0)
(3 7.31678e-16 0)