/*--------------------------------*- C++ -*----------------------------------*\
  =========                 |
  \\      /  F ield         | OpenFOAM: The Open Source CFD Toolbox
   \\    /   O peration     | Website:  https://openfoam.org
    \\  /    A nd           | Version:  7
     \\/     M anipulation  |
\*---------------------------------------------------------------------------*/
FoamFile
{
    version     2.0;
    format      ascii;
    class       volScalarField;
    location    "2.5";
    object      p;
}
// * * * * * * * * * * * * * * * * * * * * * * * * * * * * * * * * * * * * * //

dimensions      [1 -1 -2 0 0 0 0];

internalField   nonuniform List<scalar> 
18432
(
1
1
1
1
1
1
1
1
1
1
1
1
1
1
1
1
1
1
1
1
1
1
1
1
1
1
1
1
1
1
1
1
1
1
1
1
1
1
1
1
1
1
1
1
1
1
1
1
1
1
1
1
1
1
1
1
1
1
1
1
1
1
1
1
1
1
1
1
1
1
1
1
1
1
1
1
1
1
1
1
1
1
1
1
1
1
1
1
1
1
1
1
1
1
1
1
1
1
1
1
1
1
1
1
1
1
1
1
1
1
1
1
1
1
1
1
1
1
1
1
1
1
1
1
1
1
1
1
1
1
1
1
1
1
1
1
1
1
1
1
1
1
1
1
1
1
1
1
1
1
1
1
1
1
1
1
1
1
1
1
1
1
1
1
1
1
1
1
1
1
1
1
1
1
1
1
1
1
1
1
1
1
1
1
1
1
1
1
1
1
1
1
1
1
1
1
1
1
1
1
1
1
1
1
1
1
1
1
1
1
1
1
1
1
1
1
1
1
1
1
1
1
1
1
1
1
1
1
1
1
1
1
1
1
1
1
1
1
1
1
1
1
1
1
1
1
1
1
1
1
1
1
1
1
1
1
1
1
1
1
1
1
1
1
1
1
1
1
1
1
1
1
1
1
1
1
1
1
1
1
1
1
1
1
1
1
1
1
1
1
1
1
1
1
1
1
1
1
1
1
1
1
1
1
1
1
1
1
1
1
1
1
1
1
1
1
1
1
1
1
1
1
1
1
1
1
1
1
1
1
1
1
1
1
1
1
1
1
1
1
1
1
1
1
1
1
1
1
1
1
1
1
1
1
1
1
1
1
1
1
1
1
1
1
1
1
1
1
1
1
1
1
1
1
1
1
1
1
1
1
1
1
1
1
1
1
1
1
1
1
1
1
1
1
1
1
1
1
1
1
1
1
1
1
1
1
1
1
1
1
1
1
1
1
1
1
1
1
1
1
1
1
1
1
1
1
1
1
1
1
1
1
1
1
1
1
1
1
1
1
1
1
1
1
1
1
1
1
1
1
1
1
1
1
1
1
1
1
1
1
1
1
1
1
1
1
1
1
1
1
1
1
1
1
1
1
1
1
1
1
1
1
1
1
1
1
1
1
1
1
1
1
1
1
1
1
1
1
1
1
1
1
1
1
1
1
1
1
1
1
1
1
1
1
1
1
1
1
1
1
1
1
1
1
1
1
1
1
1
1
1
1
1
1
1
1
1
1
1
1
1
1
1
1
1
1
1
1
1
1
1
1
1
1
1
1
1
1
1
1
1
1
1
1
1
1
1
1
1
1
1
1
1
1
1
1
1
1
1
1
1
1
1
1
1
1
1
1
1
1
1
1
1
1
1
1
1
1
1
1
1
1
1
1
1
1
1
1
1
1
1
1
1
1
1
1
1
1
1
1
1
1
1
1
1
1
1
1
1
1
1
1
1
1
1
1
1
1
1
1
1
1
1
1
1
1
1
1
1
1
1
1
1
1
1
1
1
1
1
1
1
1
1
1
1
1
1
1
1
1
1
1
1
1
1
1
1
1
1
1
1
1
1
1
1
1
1
1
1
1
1
1
1
1
1
1
1
1
1
1
1
1
1
1
1
1
1
1
1
1
1
1
1
1
1
1
1
1
1
1
1
1
1
1
1
1
1
1
1
1
1
1
1
1
1
1
1
1
1
1
1
1
1
1
1
1
1
1
1
1
1
1
1
1
1
1
1
1
1
1
1
1
1
1
1
1
1
1
1
1
1
1
1
1
1
1
1
1
1
1
1
1
1
1
1
1
1
1
1
1
1
1
1
1
1
1
1
1
1
1
1
1
1
1
1
1
1
1
1
1
1
1
1
1
1
1
1
1
1
1
1
1
1
1
1
1
1
1
1
1
1
1
1
1
1
1
1
1
1
1
1
1
1
1
1
1
1
1
1
1
1
1
1
1
1
1
1
1
1
1
1
1
1
1
1
1
1
1
1
1
1
1
1
1
1
1
1
1
1
1
1
1
1
1
1
1
1
1
1
1
1
1
1
1
1
1
1
1
1
1
1
1
1
1
1
1
1
1
1
1
1
1
1
1
1
1
1
1
1
1
1
1
1
1
1
1
1
1
1
1
1
1
1
1
1
1
1
1
1
1
1
1
1
1
1
1
1
1
1
1
1
1
1
1
1
1
1
1
1
1
1
1
1
1
1
1
1
1
1
1
1
1
1
1
1
1
1
1
1
1
1
1
1
1
1
1
1
1
1
1
1
1
1
1
1
1
1
1
1
1
1
1
1
1
1
1
1
1
1
1
1
1
1
1
1
1
1
1
1
1
1
1
1
1
1
1
1
1
1
1
1
1
1
1
1
1
1
1
1
1
1
1
1
1
1
1
1
1
1
1
1
1
1
1
1
1
1
1
1
1
1
1
1
1
1
1
1
1
1
1
1
1
1
1
1
1
1
1
1
1
1
1
1
1
1
1
1
1
1
1
1
1
1
1
1
1
1
1
1
1
1
1
1
1
1
1
1
1
1
1
1
1
1
1
1
1
1
1
1
1
1
1
1
1
1
1
1
1
1
1
1
1
1
1
1
1
1
1
1
1
1
1
1
1
1
1
1
1
1
1
1
1
1
1
1
1
1
1
1
1
1
1
1
1
1
1
1
1
1
1
1
1
1
1
1
1
1
1
1
1
1
1
1
1
1
1
1
1
1
1
1
1
1
1
1
1
1
1
1
1
1
1
1
1
1
1
1
1
1
1
1
1
1
1
1
1
1
1
1
1
1
1
1
1
1
1
1
1
1
1
1
1
1
1
1
1
1
1
1
1
1
1
1
1
1
1
1
1
1
1
1
1
1
1
1
1
1
1
1
1
1
1
1
1
1
1
1
1
1
1
1
1
1
1
1
1
1
1
1
1
1
1
1
1
1
1
1
1
1
1
1
1
1
1
1
1
1
1
1
1
1
1
1
1
1
1
1
1
1
1
1
1
1
1
1
1
1
1
1
1
1
1
1
1
1
1
1
1
1
1
1
1
1
1
1
1
1
1
1
1
1
1
1
1
1
1
1
1
1
1
1
1
1
1
1
1
1
1
1
1
1
1
1
1
1
1
1
1
1
1
1
1
1
1
1
1
1
1
1
1
1
1
1
1
1
1
1
1
1
1
1
1
1
1
1
1
1
1
1
1
1
1
1
1
1
1
1
1
1
1
1
1
1
1
1
1
1
1
1
1
1
1
1
1
1
1
1
1
1
1
1
1
1
1
1
1
1
1
1
1
1
1
1
1
1
1
1
1
1
1
1
1
1
1
1
1
1
1
1
1
1
1
1
1
1
1
1
1
1
1
1
1
1
1
1
1
1
1
1
1
1
1
1
1
1
1
1
1
1
1
1
1
1
1
1
1
1
1
1
1
1
1
1
1
1
1
1
1
1
1
1
1
1
1
1
1
1
1
1
1
1
1
1
1
1
1
1
1
1
1
1
1
1
1
1
1
1
1
1
1
1
1
1
1
1
1
1
1
1
1
1
1
1
1
1
1
1
1
1
1
1
1
1
1
1
1
1
1
1
1
1
1
1
1
1
1
1
1
1
1
1
1
1
1
1
1
1
1
1
1
1
1
1
1
1
1
1
1
1
1
1
1
1
1
1
1
1
1
1
1
1
1
1
1
1
1
1
1
1
1
1
1
1
1
1
1
1
1
1
1
1
1
1
1
1
1
1
1
1
1
1
1
1
1
1
1
1
1
1
1
1
1
1
1
1
1
1
1
1
1
1
1
1
1
1
1
1
1
1
1
1
1
1
1
1
1
1
1
1
1
1
1
1
1
1
1
1
1
1
1
1
1
1
1
1
1
1
1
1
1
1
1
1
1
1
1
1
1
1
1
1
1
1
1
1
1
1
1
1
1
1
1
1
1
1
1
1
1
1
1
1
1
1
1
1
1
1
1
1
1
1
1
1
1
1
1
1
1
1
1
1
1
1
1
1
1
1
1
1
1
1
1
1
1
1
1
1
1
1
1
1
1
1
1
1
1
1
1
1
1
1
1
1
1
1
1
1
1
1
1
1
1
1
1
1
1
1
1
1
1
1
1
1
1
1
1
1
1
1
1
1
1
1
1
1
1
1
1
1
1
1
1
1
1
1
1
1
1
1
1
1
1
1
1
1
1
1
1
1
1
1
1
1
1
1
1
1
1
1
1
1
1
1
1
1
1
1
1
1
1
1
1
1
1
1
1
1
1
1
1
1
1
1
1
1
1
1
1
1
1
1
1
1
1
1
1
1
1
1
1
1
1
1
1
1
1
1
1
1
1
1
1
1
1
1
1
1
1
1
1
1
1
1
1
1
1
1
1
1
1
1
1
1
1
1
1
1
1
1
1
1
1
1
1
1
1
1
1
1
1
1
1
1
1
1
1
1
1
1
1
1
1
1
1
1
1
1
1
1
1
1
1
1
1
1
1
1
1
1
1
1
1
1
1
1
1
1
1
1
1
1
1
1
1
1
1
1
1
1
1
1
1
1
1
1
1
1
1
1
1
1
1
1
1
1
1
1
1
1
1
1
1
1
1
1
1
1
1
1
1
1
1
1
1
1
1
1
1
1
1
1
1
1
1
1
1
1
1
1
1
1
1
1
1
1
1
1
1
1
1
1
1
1
1
1
1
1
1
1
1
1
1
1
1
1
1
1
1
1
1
1
1
1
1
1
1
1
1
1
1
1
1
1
1
1
1
1
1
1
1
1
1
1
1
1
1
1
1
1
1
1
1
1
1
1
1
1
1
1
1
1
1
1
1
1
1
1
1
1
1
1
1
1
1
1
1
1
1
1
1
1
1
1
1
1
1
1
1
1
1
1
1
1
1
1
1
1
1
1
1
1
1
1
1
1
1
1
1
1
1
1
1
1
1
1
1
1
1
1
1
1
1
1
1
1
1
1
1
1
1
1
1
1
1
1
1
1
1
1
1
1
1
1
1
1
1
1
1
1
1
1
1
1
1
1
1
1
1
1
1
1
1
1
1
1
1
1
1
1
1
1
1
1
1
1
1
1
1
1
1
1
1
1
1
1
1
1
1
1
1
1
1
1
1
1
1
1
1
1
1
1
1
1
1
1
1
1
1
1
1
1
1
1
1
1
1
1
1
1
1
1
1
1
1
1
1
1
1
1
1
1
1
1
1
1
1
1
1
1
1
1
1
1
1
1
1
1
1
1
1
1
1
1
1
1
1
1
1
1
1
1
1
1
1
1
1
1
1
1
1
1
1
1
1
1
1
1
1
1
1
1
1
1
1
1
1
1
1
1
1
1
1
1
1
1
1
1
1
1
1
1
1
1
1
1
1
1
1
1
1
1
1
1
1
1
1
1
1
1
1
1
1
1
1
1
1
1
1
1
1
1
1
1
1
1
1
1
1
1
1
1
1
1
1
1
1
1
1
1
1
1
1
1
1
1
1
1
1
1
1
1
1
1
1
1
1
1
1
1
1
1
1
1
1
1
1
1
1
1
1
1
1
1
1
1
1
1
1
1
1
1
1
1
1
1
1
1
1
1
1
1
1
1
1
1
1
1
1
1
1
1
1
1
1
1
1
1
1
1
1
1
1
1
1
1
1
1
1
1
1
1
1
1
1
1
1
1
1
1
1
1
1
1
1
1
1
1
1
1
1
1
1
1
1
1
1
1
1
1
1
1
1
1
1
1
1
1
1
1
1
1
1
1
1
1
1
1
1
1
1
1
1
1
1
1
1
1
1
1
1
1
1
1
1
1
1
1
1
1
1
1
1
1
1
1
1
1
1
1
1
1
1
1
1
1
1
1
1
1
1
1
1
1
1
1
1
1
1
1
1
1
1
1
1
1
1
1
1
1
1
1
1
1
1
1
1
1
1
1
1
1
1
1
1
1
1
1
1
1
1
1
1
1
1
1
1
1
1
1
1
1
1
1
1
1
1
1
1
1
1
1
1
1
1
1
1
1
1
1
1
1
1
1
1
1
1
1
1
1
1
1
1
1
1
1
1
1
1
1
1
1
1
1
1
1
1
1
1
1
1
1
1
1
1
1
1
1
1
1
1
1
1
1
1
1
1
1
1
1
1
1
1
1
1
1
1
1
1
1
1
1
1
1
1
1
1
1
1
1
1
1
1
1
1
1
1
1
1
1
1
1
1
1
1
1
1
1
1
1
1
1
1
1
1
1
1
1
1
1
1
1
1
1
1
1
1
1
1
1
1
1
1
1
1
1
1
1
1
1
1
1
1
1
1
1
1
1
1
1
1
1
1
1
1
1
1
1
1
1
1
1
1
1
1
1
1
1
1
1
1
1
1
1
1
1
1
1
1
1
1
1
1
1
1
1
1
1
1
1
1
1
1
1
1
1
1
1
1
1
1
1
1
1
1
1
1
1
1
1
1
1
1
1
1
1
1
1
1
1
1
1
1
1
1
1
1
1
1
1
1
1
1
1
1
1
1
1
1
1
1
1
1
1
1
1
1
1
1
1
1
1
1
1
1
1
1
1
1
1
1
1
1
1
1
1
1
1
1
1
1
1
1
1
1
1
1
1
1
1
1
1
1
1
1
1
1
1
1
1
1
1
1
1
1
1
1
1
1
1
1
1
1
1
1
1
1
1
1
1
1
1
1
1
1
1
1
1
1
1
1
1
1
1
1
1
1
1
1
1
1
1
1
1
1
1
1
1
1
1
1
1
1
1
1
1
1
1
1
1
1
1
1
1
1
1
1
1
1
1
1
1
1
1
1
1
1
1
1
1
1
1
1
1
1
1
1
1
1
1
1
1
1
1
1
1
1
1
1
1
1
1
1
1
1
1
1
1
1
1
1
1
1
1
1
1
1
1
1
1
1
1
1
1
1
1
1
1
1
1
1
1
1
1
1
1
1
1
1
1
1
1
1
1
1
1
1
1
1
1
1
1
1
1
1
1
1
1
1
1
1
1
1
1.29072
1.74394
2.33946
2.9082
3.51694
4.20483
4.66293
5.08324
5.33813
5.26149
4.95829
4.48115
4.05316
3.77043
3.66623
3.58732
3.56551
3.59142
3.62604
3.65596
3.68705
3.7093
3.72925
3.74465
3.74953
3.75197
3.7549
3.76039
3.76276
3.76136
3.76075
3.7657
3.77833
3.79225
3.7976
3.79705
3.79389
3.78635
3.77698
3.77025
3.76878
3.7689
3.76961
3.7711
3.77194
3.7722
3.77103
3.76709
1.00249
1.01676
1.06478
1.20626
1.41302
1.76078
2.22367
2.75551
3.31826
3.71916
3.92391
4.03342
4.02542
3.95335
3.8507
3.77839
3.72739
3.712
3.67546
3.66496
3.67442
3.69624
3.7207
3.74708
3.76044
3.76554
3.7656
3.7619
3.7623
3.76225
3.76258
3.76576
3.77033
3.77431
3.77775
3.77783
3.77556
3.77165
3.76828
3.76777
3.76825
3.7695
3.77299
3.77784
3.77908
3.77906
3.77717
3.77398
1
0.99998
1.00002
1.0001
1.00144
1.01283
1.06395
1.21876
1.61044
2.33285
3.34414
3.90897
4.29635
4.32276
4.26088
4.12903
3.96016
3.75842
3.65893
3.65312
3.66519
3.68267
3.70779
3.74306
3.76481
3.77148
3.77404
3.77411
3.7736
3.77696
3.77983
3.78194
3.78087
3.77797
3.77473
3.77028
3.76509
3.761
3.75938
3.75963
3.76086
3.76409
3.77079
3.77814
3.78143
3.78182
3.78128
3.78094
1
1
1
1
0.999999
0.999984
1.00006
1.00008
1.0059
1.06947
1.41506
2.14431
3.14241
3.91021
4.02447
4.02464
3.97664
3.88076
3.80659
3.74986
3.72596
3.70072
3.68728
3.69442
3.70864
3.72628
3.74349
3.75541
3.76497
3.77162
3.77762
3.78185
3.78251
3.78194
3.77991
3.77517
3.77075
3.76796
3.76616
3.766
3.76765
3.77122
3.77627
3.78036
3.78071
3.77876
3.77613
3.77402
1
1
1
1
1
1
1
1
1
0.999929
1.00179
1.04764
1.28337
2.00968
2.83539
3.67543
4.03328
4.04245
3.99168
3.92837
3.81713
3.73946
3.70491
3.68155
3.67792
3.68774
3.70029
3.71437
3.7301
3.7425
3.75193
3.75959
3.76869
3.77381
3.77475
3.77473
3.77444
3.77376
3.77312
3.77386
3.77675
3.78142
3.78526
3.78636
3.78458
3.78157
3.77594
3.77248
1
1
1
1
1
1
1
1
1
0.999997
0.999998
0.999956
1.00068
1.03095
1.22649
1.78905
2.71575
3.39149
3.91547
3.93631
3.90613
3.84082
3.7999
3.76549
3.7336
3.7053
3.69673
3.69719
3.70764
3.7322
3.75082
3.76372
3.77227
3.77513
3.77534
3.77526
3.77482
3.77292
3.77124
3.77133
3.77382
3.77793
3.77899
3.7768
3.77349
3.7693
3.76362
3.76301
1
1
1
1
1
1
1
1
1
1
1
0.999997
0.999998
0.999964
1.00057
1.01617
1.20352
1.67191
2.57582
3.22088
3.65528
3.86125
3.86094
3.85032
3.80299
3.76142
3.73935
3.72434
3.72301
3.7307
3.74668
3.7688
3.77876
3.77993
3.77846
3.77717
3.77559
3.77197
3.7688
3.76736
3.76838
3.77287
3.77382
3.77214
3.76927
3.76716
3.76454
3.76582
1
1
1
1
1
1
1
1
1
1
1
1
1
0.999997
0.999998
0.999973
1.00068
1.01313
1.14043
1.61993
2.35694
3.22916
3.5136
3.6533
3.71344
3.74718
3.75049
3.72748
3.72229
3.7294
3.73897
3.74952
3.76042
3.77142
3.77283
3.77067
3.7682
3.76691
3.76651
3.76847
3.77476
3.77852
3.77876
3.77794
3.77611
3.77413
3.77272
3.77305
1
1
1
1
1
1
1
1
1
1
1
1
1
1
1
0.999998
0.999998
0.999982
1.00032
1.01407
1.10706
1.55562
2.27967
3.11158
3.54734
3.62952
3.70176
3.69383
3.69351
3.70829
3.7114
3.71671
3.72666
3.73866
3.74857
3.75615
3.7604
3.7644
3.76765
3.77186
3.77744
3.77975
3.78049
3.78132
3.78023
3.77642
3.77441
3.77411
1
1
1
1
1
1
1
1
1
1
1
1
1
1
1
1
1
0.999998
0.999998
0.999985
1.00023
1.0124
1.11549
1.47979
2.23973
2.9655
3.53447
3.68622
3.70687
3.72037
3.72318
3.71575
3.71544
3.72018
3.72925
3.73935
3.74865
3.75753
3.76517
3.77221
3.77597
3.77599
3.77676
3.77883
3.77831
3.77497
3.77357
3.77282
1
1
1
1
1
1
1
1
1
1
1
1
1
1
1
1
1
1
1
0.999998
0.999999
0.999986
1.00038
1.00863
1.12354
1.46641
2.22505
2.92317
3.45142
3.69518
3.75786
3.75454
3.75673
3.75539
3.75126
3.75567
3.76343
3.77058
3.77978
3.78529
3.78605
3.78217
3.77889
3.77685
3.77346
3.7693
3.76754
3.76639
1
1
1
1
1
1
1
1
1
1
1
1
1
1
1
1
1
1
1
1
1
0.999998
0.999998
0.999987
1.00063
1.00951
1.11122
1.52194
2.24947
3.00116
3.38424
3.6207
3.72353
3.74375
3.74196
3.75968
3.76887
3.77321
3.78042
3.78442
3.78643
3.78521
3.78259
3.78141
3.7784
3.77488
3.77332
3.77266
1
1
1
1
1
1
1
1
1
1
1
1
1
1
1
1
1
1
1
1
1
1
1
0.999998
0.999999
0.99999
1.00062
1.01549
1.1157
1.57648
2.29273
3.1713
3.47208
3.58414
3.64132
3.70264
3.7217
3.736
3.75003
3.76284
3.77031
3.77382
3.77241
3.771
3.76988
3.77048
3.77297
3.77494
1
1
1
1
1
1
1
1
1
1
1
1
1
1
1
1
1
1
1
1
1
1
1
1
1
0.999998
0.999999
0.999998
1.0007
1.02321
1.14967
1.66162
2.45902
3.23049
3.62974
3.67772
3.70227
3.71749
3.72883
3.74303
3.75079
3.75138
3.75262
3.75661
3.76083
3.76523
3.76824
3.7713
1
1
1
1
1
1
1
1
1
1
1
1
1
1
1
1
1
1
1
1
1
1
1
1
1
1
1
1
0.999998
1.00003
1.00134
1.03193
1.23201
1.82042
2.67478
3.33733
3.68839
3.77229
3.77546
3.78185
3.7793
3.77185
3.76573
3.76887
3.77318
3.77649
3.77732
3.77826
1
1
1
1
1
1
1
1
1
1
1
1
1
1
1
1
1
1
1
1
1
1
1
1
1
1
1
1
1
1
0.999998
1.00009
1.00351
1.05373
1.37506
2.08955
2.92586
3.4043
3.67428
3.76048
3.76063
3.77113
3.78354
3.78677
3.78926
3.79065
3.7896
3.78827
1
1
1
1
1
1
1
1
1
1
1
1
1
1
1
1
1
1
1
1
1
1
1
1
1
1
1
1
1
1
1
1
0.999996
1.0003
1.01066
1.1035
1.58072
2.43243
3.30857
3.52893
3.61813
3.69377
3.72968
3.74648
3.76124
3.7736
3.78059
3.7829
1
1
1
1
1
1
1
1
1
1
1
1
1
1
1
1
1
1
1
1
1
1
1
1
1
1
1
1
1
1
1
1
0.999999
0.999999
1
1.00111
1.03172
1.22525
1.92132
2.82366
3.52879
3.68155
3.71297
3.72872
3.73915
3.75342
3.76852
3.77097
1
1
1
1
1
1
1
1
1
1
1
1
1
1
1
1
1
1
1
1
1
1
1
1
1
1
1
1
1
1
1
1
1
1
1
0.999998
1.00013
1.00474
1.08974
1.4756
2.39957
3.21621
3.66859
3.79254
3.79674
3.79494
3.7963
3.79107
1
1
1
1
1
1
1
1
1
1
1
1
1
1
1
1
1
1
1
1
1
1
1
1
1
1
1
1
1
1
1
1
1
1
1
1
0.999999
1
1.00106
1.0215
1.2599
1.95794
2.94656
3.41932
3.6663
3.7818
3.77998
3.78131
1
1
1
1
1
1
1
1
1
1
1
1
1
1
1
1
1
1
1
1
1
1
1
1
1
1
1
1
1
1
1
1
1
1
1
1
1
1
0.999999
1.00011
1.0078
1.09388
1.60393
2.58962
3.44507
3.60945
3.6685
3.70085
1
1
1
1
1
1
1
1
1
1
1
1
1
1
1
1
1
1
1
1
1
1
1
1
1
1
1
1
1
1
1
1
1
1
1
1
1
1
1
1
1.00001
1.00145
1.043
1.34498
2.23144
3.1994
3.683
3.73695
1
1
1
1
1
1
1
1
1
1
1
1
1
1
1
1
1
1
1
1
1
1
1
1
1
1
1
1
1
1
1
1
1
1
1
1
1
1
1
1
1
1
1.0004
1.01543
1.20268
1.91701
2.86917
3.5342
1
1
1
1
1
1
1
1
1
1
1
1
1
1
1
1
1
1
1
1
1
1
1
1
1
1
1
1
1
1
1
1
1
1
1
1
1
1
1
1
1
1
1
1.0001
1.00586
1.10061
1.69276
2.71477
1
1
1
1
1
1
1
1
1
1
1
1
1
1
1
1
1
1
1
1
1
1
1
1
1
1
1
1
1
1
1
1
1
1
1
1
1
1
1
1
1
1
1
1
1.00002
1.0022
1.07267
1.42769
1
1
1
1
1
1
1
1
1
1
1
1
1
1
1
1
1
1
1
1
1
1
1
1
1
1
1
1
1
1
1
1
1
1
1
1
1
1
1
1
1
1
1
1
1
1.00001
1.0015
1.01666
1
1
1
1
1
1
1
1
1
1
1
1
1
1
1
1
1
1
1
1
1
1
1
1
1
1
1
1
1
1
1
1
1
1
1
1
1
1
1
1
1
1
1
1
1
1
1.00001
0.99984
1
1
1
1
1
1
1
1
1
1
1
1
1
1
1
1
1
1
1
1
1
1
1
1
1
1
1
1
1
1
1
1
1
1
1
1
1
1
1
1
1
1
1
1
1
1
1
0.999941
1
1
1
1
1
1
1
1
1
1
1
1
1
1
1
1
1
1
1
1
1
1
1
1
1
1
1
1
1
1
1
1
1
1
1
1
1
1
1
1
1
1
1
1
1
1
1
0.999991
1
1
1
1
1
1
1
1
1
1
1
1
1
1
1
1
1
1
1
1
1
1
1
1
1
1
1
1
1
1
1
1
1
1
1
1
1
1
1
1
1
1
1
1
1
1
1
1
1
1
1
1
1
1
1
1
1
1
1
1
1
1
1
1
1
1
1
1
1
1
1
1
1
1
1
1
1
1
1
1
1
1
1
1
1
1
1
1
1
1
1
1
1
1
1
1
1
1
1
1
1
1
1
1
1
1
1
1
1
1
1
1
1
1
1
1
1
1
1
1
1
1
1
1
1
1
1
1
1
1
1
1
1
1
1
1
1
1
1
1
1
1
1
1
1
1
1
1
1
1
1
1
1
1
1
1
1
1
1
1
1
1
1
1
1
1
1
1
1
1
1
1
1
1
1
1
1
1
1
1
1
1
1
1
1
1
1
1
1
1
1
1
1
1
1
1
1
1
1
1
1
1
1
1
1
1
1
1
1
1
1
1
1
1
1
1
1
1
1
1
1
1
1
1
1
1
1
1
1
1
1
1
1
1
1
1
1
1
1
1
1
1
1
1
1
1
1
1
1
1
1
1
1
1
1
1
1
1
1
1
1
1
1
1
1
1
1
1
1
1
1
1
1
1
1
1
1
1
1
1
1
1
1
1
1
1
1
1
1
1
1
1
1
1
1
1
1
1
1
1
1
1
1
1
1
1
1
1
1
1
1
1
1
1
1
1
1
1
1
1
1
1
1
1
1
1
1
1
1
1
1
1
1
1
1
0.999991
1
1
1
1
1
1
1
1
1
1
1
1
1
1
1
1
1
1
1
1
1
1
1
1
1
1
1
1
1
1
1
1
1
1
1
1
1
1
1
1
1
1
1
1
1
1
1
0.999941
1
1
1
1
1
1
1
1
1
1
1
1
1
1
1
1
1
1
1
1
1
1
1
1
1
1
1
1
1
1
1
1
1
1
1
1
1
1
1
1
1
1
1
1
1
1
1.00001
0.999842
1
1
1
1
1
1
1
1
1
1
1
1
1
1
1
1
1
1
1
1
1
1
1
1
1
1
1
1
1
1
1
1
1
1
1
1
1
1
1
1
1
1
1
1
1
1.00001
1.00149
1.01662
1
1
1
1
1
1
1
1
1
1
1
1
1
1
1
1
1
1
1
1
1
1
1
1
1
1
1
1
1
1
1
1
1
1
1
1
1
1
1
1
1
1
1
1
1.00002
1.00221
1.07243
1.42729
1
1
1
1
1
1
1
1
1
1
1
1
1
1
1
1
1
1
1
1
1
1
1
1
1
1
1
1
1
1
1
1
1
1
1
1
1
1
1
1
1
1
1
1.0001
1.00585
1.10073
1.69176
2.7169
1
1
1
1
1
1
1
1
1
1
1
1
1
1
1
1
1
1
1
1
1
1
1
1
1
1
1
1
1
1
1
1
1
1
1
1
1
1
1
1
1
1
1.0004
1.01543
1.20271
1.91666
2.86895
3.53584
1
1
1
1
1
1
1
1
1
1
1
1
1
1
1
1
1
1
1
1
1
1
1
1
1
1
1
1
1
1
1
1
1
1
1
1
1
1
1
1
1.00001
1.00145
1.04299
1.34496
2.23176
3.19867
3.6832
3.73796
1
1
1
1
1
1
1
1
1
1
1
1
1
1
1
1
1
1
1
1
1
1
1
1
1
1
1
1
1
1
1
1
1
1
1
1
1
1
0.999999
1.00011
1.0078
1.09389
1.60386
2.58972
3.44508
3.60916
3.66842
3.70109
1
1
1
1
1
1
1
1
1
1
1
1
1
1
1
1
1
1
1
1
1
1
1
1
1
1
1
1
1
1
1
1
1
1
1
1
0.999999
1
1.00106
1.0215
1.25992
1.95797
2.94644
3.41941
3.66638
3.78178
3.77993
3.78132
1
1
1
1
1
1
1
1
1
1
1
1
1
1
1
1
1
1
1
1
1
1
1
1
1
1
1
1
1
1
1
1
1
1
1
0.999998
1.00013
1.00474
1.08974
1.47558
2.39964
3.21621
3.66851
3.79257
3.79677
3.79497
3.79629
3.79107
1
1
1
1
1
1
1
1
1
1
1
1
1
1
1
1
1
1
1
1
1
1
1
1
1
1
1
1
1
1
1
1
0.999999
0.999999
1
1.00111
1.03171
1.22526
1.92131
2.82366
3.52882
3.68154
3.71293
3.72869
3.73916
3.75345
3.76853
3.77097
1
1
1
1
1
1
1
1
1
1
1
1
1
1
1
1
1
1
1
1
1
1
1
1
1
1
1
1
1
1
1
1
0.999996
1.0003
1.01066
1.1035
1.58073
2.43243
3.30858
3.52896
3.61812
3.69376
3.72967
3.74647
3.76124
3.77362
3.78061
3.78291
1
1
1
1
1
1
1
1
1
1
1
1
1
1
1
1
1
1
1
1
1
1
1
1
1
1
1
1
1
1
0.999998
1.00009
1.00351
1.05373
1.37506
2.08954
2.92587
3.40429
3.67428
3.76049
3.76062
3.77112
3.78354
3.78677
3.78926
3.79066
3.78961
3.78828
1
1
1
1
1
1
1
1
1
1
1
1
1
1
1
1
1
1
1
1
1
1
1
1
1
1
1
1
0.999998
1.00003
1.00134
1.03193
1.232
1.82042
2.67478
3.33733
3.68839
3.77229
3.77546
3.78185
3.77929
3.77184
3.76573
3.76887
3.77318
3.77649
3.77732
3.77826
1
1
1
1
1
1
1
1
1
1
1
1
1
1
1
1
1
1
1
1
1
1
1
1
1
0.999998
0.999999
0.999998
1.0007
1.02321
1.14967
1.66161
2.45902
3.23049
3.62974
3.67772
3.70227
3.71749
3.72883
3.74303
3.75079
3.75138
3.75263
3.75661
3.76083
3.76523
3.76824
3.77131
1
1
1
1
1
1
1
1
1
1
1
1
1
1
1
1
1
1
1
1
1
1
1
0.999998
0.999999
0.99999
1.00062
1.01549
1.1157
1.57648
2.29273
3.1713
3.47208
3.58414
3.64132
3.70264
3.7217
3.736
3.75003
3.76284
3.77031
3.77382
3.77241
3.771
3.76988
3.77048
3.77297
3.77494
1
1
1
1
1
1
1
1
1
1
1
1
1
1
1
1
1
1
1
1
1
0.999998
0.999998
0.999987
1.00063
1.00951
1.11122
1.52194
2.24947
3.00116
3.38423
3.62069
3.72353
3.74375
3.74196
3.75968
3.76887
3.77321
3.78042
3.78442
3.78643
3.78521
3.78259
3.78141
3.7784
3.77488
3.77332
3.77265
1
1
1
1
1
1
1
1
1
1
1
1
1
1
1
1
1
1
1
0.999998
0.999999
0.999986
1.00038
1.00863
1.12354
1.46641
2.22505
2.92317
3.45142
3.69518
3.75786
3.75454
3.75673
3.75539
3.75126
3.75567
3.76343
3.77058
3.77978
3.7853
3.78605
3.78217
3.7789
3.77685
3.77346
3.7693
3.76754
3.76639
1
1
1
1
1
1
1
1
1
1
1
1
1
1
1
1
1
0.999998
0.999998
0.999985
1.00023
1.0124
1.11549
1.47979
2.23973
2.9655
3.53447
3.68622
3.70687
3.72037
3.72318
3.71575
3.71544
3.72018
3.72925
3.73935
3.74865
3.75753
3.76517
3.77221
3.77597
3.77599
3.77676
3.77883
3.77831
3.77497
3.77357
3.77282
1
1
1
1
1
1
1
1
1
1
1
1
1
1
1
0.999998
0.999998
0.999982
1.00032
1.01407
1.10706
1.55562
2.27967
3.11158
3.54734
3.62953
3.70176
3.69383
3.69351
3.70829
3.7114
3.71671
3.72666
3.73866
3.74857
3.75615
3.7604
3.7644
3.76765
3.77186
3.77744
3.77975
3.78049
3.78132
3.78023
3.77642
3.77441
3.77411
1
1
1
1
1
1
1
1
1
1
1
1
1
0.999997
0.999998
0.999973
1.00068
1.01313
1.14043
1.61993
2.35694
3.22916
3.5136
3.6533
3.71344
3.74717
3.75049
3.72748
3.72229
3.7294
3.73897
3.74952
3.76042
3.77142
3.77283
3.77067
3.7682
3.76691
3.76651
3.76847
3.77476
3.77852
3.77876
3.77794
3.77611
3.77413
3.77272
3.77305
1
1
1
1
1
1
1
1
1
1
1
0.999997
0.999998
0.999964
1.00057
1.01617
1.20352
1.67191
2.57582
3.22088
3.65528
3.86125
3.86094
3.85032
3.80299
3.76142
3.73935
3.72434
3.72301
3.7307
3.74668
3.7688
3.77876
3.77993
3.77846
3.77717
3.77559
3.77197
3.7688
3.76736
3.76838
3.77287
3.77381
3.77214
3.76927
3.76716
3.76454
3.76582
1
1
1
1
1
1
1
1
1
0.999997
0.999998
0.999956
1.00068
1.03095
1.22649
1.78905
2.71575
3.39149
3.91547
3.93631
3.90613
3.84082
3.7999
3.76549
3.7336
3.7053
3.69673
3.69719
3.70764
3.7322
3.75082
3.76372
3.77227
3.77513
3.77534
3.77526
3.77482
3.77292
3.77124
3.77133
3.77382
3.77793
3.77899
3.7768
3.77349
3.7693
3.76362
3.76301
1
1
1
1
1
1
1
1
1
0.999929
1.00179
1.04764
1.28337
2.00968
2.83539
3.67543
4.03328
4.04246
3.99168
3.92837
3.81713
3.73946
3.70491
3.68155
3.67792
3.68775
3.70029
3.71437
3.7301
3.7425
3.75193
3.75959
3.76869
3.77381
3.77475
3.77473
3.77444
3.77376
3.77312
3.77386
3.77675
3.78142
3.78526
3.78636
3.78458
3.78157
3.77594
3.77248
1
1
1
1
0.999999
0.999984
1.00006
1.00008
1.0059
1.06947
1.41506
2.14431
3.14241
3.91021
4.02447
4.02464
3.97664
3.88076
3.80659
3.74986
3.72596
3.70071
3.68728
3.69442
3.70864
3.72628
3.74349
3.75541
3.76497
3.77162
3.77762
3.78185
3.78251
3.78193
3.77991
3.77517
3.77075
3.76796
3.76616
3.766
3.76765
3.77122
3.77627
3.78036
3.78071
3.77876
3.77613
3.77402
1
0.99998
1.00002
1.0001
1.00144
1.01283
1.06395
1.21876
1.61044
2.33285
3.34414
3.90897
4.29635
4.32276
4.26088
4.12903
3.96016
3.75842
3.65893
3.65312
3.66519
3.68267
3.70778
3.74306
3.76481
3.77148
3.77404
3.77411
3.7736
3.77696
3.77983
3.78194
3.78087
3.77797
3.77473
3.77028
3.76509
3.761
3.75938
3.75963
3.76086
3.76409
3.77079
3.77814
3.78143
3.78182
3.78128
3.78094
1.00249
1.01676
1.06478
1.20626
1.41302
1.76078
2.22367
2.75551
3.31826
3.71916
3.92391
4.03342
4.02542
3.95335
3.8507
3.77839
3.72739
3.712
3.67546
3.66496
3.67442
3.69624
3.7207
3.74708
3.76044
3.76554
3.7656
3.7619
3.7623
3.76225
3.76258
3.76576
3.77033
3.77431
3.77775
3.77783
3.77556
3.77165
3.76828
3.76777
3.76825
3.7695
3.77299
3.77784
3.77908
3.77906
3.77717
3.77398
1.29072
1.74394
2.33946
2.9082
3.51694
4.20483
4.66293
5.08324
5.33813
5.26149
4.95829
4.48115
4.05316
3.77043
3.66623
3.58732
3.56551
3.59142
3.62604
3.65596
3.68705
3.7093
3.72925
3.74465
3.74953
3.75197
3.7549
3.76039
3.76276
3.76136
3.76075
3.7657
3.77833
3.79225
3.7976
3.79705
3.79389
3.78635
3.77698
3.77025
3.76878
3.7689
3.76961
3.7711
3.77194
3.7722
3.77103
3.76709
2.66254
1.70671
1.05116
0.853574
0.756728
0.66163
0.661725
0.723099
0.795116
0.833047
0.875312
0.958084
1.02415
1.02985
1.02878
1.04501
1.05721
1.05667
1.06006
1.06642
1.06768
1.06561
1.06613
1.0691
1.06758
1.0523
1.04159
1.04212
1.04434
1.04501
1.0437
1.04212
1.04061
1.03822
1.03739
1.03784
1.03996
1.04563
1.04991
1.05061
1.05076
1.05016
1.04728
1.04571
1.04614
1.04688
1.0481
1.05031
1.05943
1.22185
1.90725
3.26919
5.2446
7.86017
10.3544
10.1571
9.2667
8.22228
7.98495
7.98672
7.85142
7.62159
7.37923
7.17156
7.02338
6.91704
6.81709
6.70624
6.57615
6.35624
6.06593
5.90046
5.8232
5.77725
5.76675
5.70808
5.62091
5.46636
5.17783
4.93746
4.85784
4.81484
4.81673
4.85908
4.82453
4.76428
4.6535
4.42515
4.22341
4.15333
4.1115
4.07778
4.05366
4.0153
3.96133
3.86074
3.71442
3.63779
3.6032
3.56936
3.53156
3.48621
3.42653
3.3281
3.22272
3.17523
3.14916
3.1277
3.10922
3.08549
3.0465
2.97428
2.87284
2.80301
2.7657
2.73815
2.71574
2.69586
2.67668
2.65515
2.62098
2.54867
2.45245
2.40454
2.38572
2.36624
2.34526
2.32577
2.3037
2.27309
2.23158
2.1992
2.18175
2.16689
2.14933
2.12122
2.06172
1.97963
1.94643
1.93823
1.9306
1.92117
1.91479
1.91069
1.93789
2.05275
2.34095
2.88079
3.65178
4.33637
4.96683
5.5268
5.6509
5.61565
5.53349
5.3683
5.22431
5.1201
4.99059
4.89382
4.85786
4.83476
4.81696
4.79059
4.74979
4.66881
4.56915
4.53043
4.51172
4.50326
4.50695
4.48715
4.45588
4.41846
4.33929
4.19214
4.10484
4.08297
4.06857
4.06426
4.08346
4.08405
4.06213
4.0356
3.98757
3.87891
3.77817
3.74591
3.72773
3.71266
3.70344
3.6706
3.36176
2.78909
2.17009
1.69438
1.49584
1.28584
1.09806
1.0605
1.01073
0.9454
0.916861
0.930277
0.943528
0.946902
0.953418
0.975991
0.997341
1.005
1.01414
1.03141
1.04753
1.05197
1.05546
1.05811
1.05699
1.04874
1.04419
1.045
1.04702
1.04855
1.04794
1.0474
1.04679
1.04487
1.04411
1.04394
1.04518
1.04819
1.04907
1.04924
1.04931
1.04837
1.04599
1.04501
1.04456
1.04395
1.04604
1.05984
1.20559
1.92062
2.79341
3.17882
3.90768
4.8249
6.66682
8.07447
8.63055
8.41885
8.21287
8.04736
7.83923
7.6377
7.43768
7.23774
7.027
6.85354
6.76303
6.67184
6.54531
6.37304
6.15183
5.96581
5.85123
5.77738
5.71921
5.66071
5.57602
5.44917
5.24897
5.0355
4.91169
4.85484
4.81778
4.79789
4.77151
4.71169
4.61774
4.45501
4.27627
4.18172
4.13065
4.08966
4.04833
4.00597
3.96016
3.88854
3.76
3.64411
3.59377
3.56115
3.53331
3.50051
3.44868
3.36586
3.26524
3.20268
3.16633
3.13374
3.10572
3.08409
3.05544
2.9902
2.88893
2.81452
2.77724
2.74818
2.72161
2.69867
2.67565
2.65104
2.61236
2.55002
2.47193
2.41303
2.38934
2.37785
2.36762
2.34965
2.32724
2.29735
2.25696
2.22139
2.19949
2.18105
2.16018
2.13041
2.07933
2.00644
1.95556
1.94041
1.93146
1.92681
1.93168
1.97868
2.13975
2.48574
2.8459
3.13182
3.42093
3.84195
4.23691
4.66293
4.96819
5.22473
5.35616
5.32596
5.24869
5.14072
5.02742
4.93099
4.89328
4.86529
4.8374
4.80163
4.7588
4.69014
4.59433
4.53897
4.51991
4.50785
4.5059
4.48973
4.45759
4.41751
4.3519
4.2438
4.13493
4.08963
4.07223
4.06492
4.07923
4.08653
4.06554
4.03537
3.98693
3.90196
3.80899
3.76407
3.74521
3.73005
3.71792
3.68468
3.66512
3.33761
2.87606
2.35516
1.98044
1.68446
1.38634
1.23691
1.14814
1.02651
0.947291
0.948743
0.946522
0.930555
0.933086
0.942869
0.951667
0.961887
0.976167
1.00637
1.03494
1.03998
1.04181
1.04664
1.04753
1.04392
1.04463
1.04775
1.05264
1.05598
1.05572
1.05387
1.0496
1.04596
1.04537
1.04543
1.04712
1.04828
1.04807
1.04786
1.04671
1.04463
1.04435
1.04431
1.04414
1.04811
1.08119
1.25849
2.04606
3.00575
3.27642
3.33097
3.41376
3.54974
4.15165
5.92717
7.9405
8.66009
8.42205
7.96188
7.71113
7.62559
7.4967
7.31592
7.1042
6.88096
6.70415
6.57796
6.4343
6.2992
6.1968
6.06753
5.92689
5.78727
5.68117
5.58756
5.48303
5.36331
5.24777
5.14772
5.03372
4.90526
4.82581
4.76868
4.7001
4.61526
4.51656
4.41291
4.32415
4.23656
4.15489
4.10269
4.06038
4.00939
3.94205
3.84984
3.735
3.64524
3.59839
3.5602
3.51729
3.46946
3.41812
3.35503
3.27927
3.21147
3.17968
3.15778
3.12664
3.07856
3.01781
2.94854
2.87408
2.81434
2.78077
2.76016
2.742
2.7213
2.69264
2.64734
2.5858
2.51837
2.46252
2.4277
2.40407
2.37853
2.3478
2.32248
2.29795
2.26764
2.22791
2.1899
2.16761
2.14911
2.12763
2.09941
2.05785
2.00979
1.96898
1.95028
1.94833
1.95746
2.02193
2.24485
2.65512
3.07134
3.25308
3.26177
3.28025
3.35595
3.55579
3.92368
4.44346
4.93666
5.17684
5.29487
5.27248
5.19204
5.07957
4.98158
4.91255
4.85927
4.80892
4.77117
4.74089
4.70513
4.64553
4.55879
4.48629
4.45947
4.44354
4.43855
4.41404
4.37771
4.33515
4.28124
4.20996
4.12822
4.08112
4.05976
4.04396
4.03225
4.01351
3.98715
3.94868
3.90025
3.85378
3.80035
3.74421
3.70784
3.69048
3.65577
3.75115
3.61872
3.33094
2.90204
2.48665
2.14675
1.80553
1.58048
1.44944
1.28474
1.13731
1.10876
1.05912
0.981279
0.969311
0.968223
0.953113
0.941913
0.946757
0.964123
0.982436
0.992304
0.999804
1.01401
1.02598
1.03118
1.03738
1.0462
1.05075
1.05222
1.05266
1.05151
1.04936
1.04873
1.04971
1.05352
1.05703
1.05704
1.0558
1.05317
1.04794
1.04285
1.04194
1.04221
1.04773
1.12051
1.4621
2.13282
3.17304
3.47677
3.41813
3.39479
3.38519
3.3893
3.37756
3.6984
5.07625
7.32993
7.81766
7.73152
7.65765
7.6652
7.55689
7.37075
7.19006
6.97311
6.69978
6.49128
6.35942
6.2663
6.18427
6.11195
6.00478
5.83797
5.64034
5.49727
5.40202
5.33627
5.28597
5.2299
5.13514
5.0006
4.83072
4.69759
4.60427
4.52228
4.45993
4.4169
4.37709
4.30993
4.21878
4.11726
4.03788
3.97292
3.90128
3.82089
3.7427
3.66961
3.59874
3.54343
3.49974
3.45988
3.42113
3.3784
3.32026
3.2579
3.20113
3.1438
3.09171
3.03388
2.97149
2.91845
2.87789
2.84313
2.81129
2.77472
2.73014
2.69208
2.65575
2.60556
2.54818
2.51016
2.4882
2.46541
2.43476
2.3941
2.35071
2.3169
2.29081
2.26245
2.22666
2.18513
2.15534
2.13622
2.11673
2.08903
2.04812
2.01716
1.99797
1.98535
2.00397
2.12215
2.4097
2.85273
3.21756
3.28786
3.34269
3.34329
3.31434
3.30736
3.32333
3.40248
3.63338
4.06822
4.52286
4.95062
5.08294
5.11757
5.11068
5.05805
4.98095
4.88538
4.80419
4.7771
4.76142
4.73326
4.67667
4.58542
4.49704
4.44276
4.41961
4.40593
4.38262
4.34966
4.3217
4.30062
4.2611
4.19613
4.11379
4.06245
4.03577
4.00964
3.97927
3.95098
3.92928
3.91217
3.88489
3.83587
3.77072
3.71762
3.68664
3.64393
3.76188
3.73104
3.59951
3.30246
2.93228
2.59516
2.21296
1.93786
1.76332
1.56092
1.36101
1.26881
1.1859
1.06713
1.01099
1.00199
0.97325
0.947833
0.951335
0.963834
0.963929
0.962811
0.964708
0.973935
0.991042
1.00753
1.0213
1.03663
1.04275
1.04596
1.04774
1.04652
1.04368
1.04484
1.05205
1.05884
1.06012
1.05979
1.05817
1.05429
1.04793
1.0429
1.04248
1.04586
1.12359
1.67713
2.49066
3.18309
3.52219
3.54161
3.46022
3.3783
3.34555
3.33775
3.32438
3.26406
3.39049
4.35427
6.26278
7.29929
7.58418
7.5542
7.43399
7.31154
7.19521
7.03472
6.74103
6.45281
6.33077
6.2485
6.17417
6.08294
5.98212
5.83461
5.60333
5.43896
5.37358
5.32206
5.26968
5.20558
5.14407
5.04571
4.85125
4.63042
4.53629
4.48721
4.44646
4.40244
4.35453
4.31766
4.26714
4.16348
4.02594
3.92751
3.86071
3.80322
3.74516
3.67847
3.60674
3.54373
3.49437
3.45264
3.41121
3.36608
3.3183
3.26597
3.20105
3.12278
3.05153
2.99436
2.94699
2.90568
2.86926
2.84101
2.81482
2.78508
2.75378
2.69914
2.6311
2.57252
2.52962
2.49755
2.47419
2.4537
2.42766
2.39452
2.36348
2.3258
2.28421
2.24822
2.2176
2.18857
2.15971
2.12914
2.10014
2.07007
2.04131
2.0301
2.0373
2.0829
2.28044
2.66161
3.01034
3.33022
3.42927
3.4212
3.42248
3.41824
3.38904
3.33319
3.30062
3.25932
3.26327
3.35804
3.68269
4.22039
4.70362
4.98519
5.11036
5.07765
4.98046
4.87906
4.81259
4.77914
4.74502
4.7055
4.66044
4.60666
4.53367
4.44837
4.39001
4.36559
4.34464
4.33083
4.31376
4.29254
4.27573
4.24115
4.17307
4.0887
4.01869
3.97824
3.9515
3.92821
3.90665
3.88458
3.86369
3.84229
3.80303
3.7381
3.68113
3.63228
3.7621
3.74656
3.70298
3.55174
3.27721
2.98286
2.6336
2.30467
2.07928
1.86027
1.64519
1.51363
1.40569
1.25711
1.17053
1.1386
1.09057
1.02457
1.01843
1.0094
0.985792
0.965896
0.963219
0.962416
0.964856
0.973082
0.990804
1.01097
1.02042
1.02613
1.03281
1.03563
1.0357
1.03962
1.05227
1.05818
1.05882
1.05898
1.05802
1.05319
1.04609
1.04596
1.05235
1.12661
1.69819
2.7674
3.26085
3.53972
3.58375
3.50775
3.44725
3.38718
3.30375
3.27223
3.26036
3.23592
3.16952
3.21761
3.75774
5.23755
6.65798
7.09903
7.26891
7.31985
7.21054
7.01716
6.7486
6.46484
6.31433
6.23164
6.15645
6.06736
5.96801
5.83591
5.62615
5.42394
5.33964
5.28256
5.24332
5.19454
5.12664
5.03387
4.86361
4.63706
4.51091
4.46315
4.42442
4.40026
4.36866
4.32327
4.25546
4.13915
3.98042
3.8808
3.83118
3.79341
3.75864
3.71656
3.64116
3.53359
3.46666
3.43404
3.40534
3.37865
3.34728
3.29311
3.19542
3.08294
3.01198
2.96882
2.9312
2.89781
2.87347
2.85366
2.8355
2.81006
2.75081
2.66451
2.59371
2.55221
2.52134
2.49634
2.47493
2.45504
2.43845
2.41811
2.37028
2.30874
2.26612
2.2395
2.21672
2.1934
2.16132
2.11432
2.07978
2.0536
2.05288
2.07804
2.19762
2.47975
2.95871
3.27176
3.4326
3.49805
3.48659
3.43495
3.40458
3.39355
3.3766
3.34481
3.30214
3.2542
3.20463
3.17757
3.22167
3.42494
3.91983
4.41224
4.84654
4.94788
4.9482
4.9239
4.86936
4.807
4.74519
4.69677
4.65935
4.62031
4.56088
4.47341
4.38682
4.33676
4.31393
4.30378
4.30471
4.29205
4.26931
4.24513
4.20273
4.12046
4.02889
3.96255
3.93134
3.91083
3.89157
3.87277
3.85303
3.82974
3.8024
3.7505
3.68581
3.62854
3.76641
3.75514
3.73745
3.67809
3.52591
3.28967
2.96504
2.67083
2.41745
2.15498
1.92942
1.76875
1.6297
1.47509
1.36668
1.29661
1.21829
1.11515
1.08293
1.05496
1.00998
0.976643
0.975551
0.97131
0.96791
0.972372
0.98192
0.985908
0.987337
0.990736
0.997616
1.00756
1.01848
1.03305
1.04991
1.05485