/*--------------------------------*- C++ -*----------------------------------*\
  =========                 |
  \\      /  F ield         | OpenFOAM: The Open Source CFD Toolbox
   \\    /   O peration     | Website:  https://openfoam.org
    \\  /    A nd           | Version:  7
     \\/     M anipulation  |
\*---------------------------------------------------------------------------*/
FoamFile
{
    version     2.0;
    format      ascii;
    class       volScalarField;
    location    "2.5";
    object      T;
}
// * * * * * * * * * * * * * * * * * * * * * * * * * * * * * * * * * * * * * //

dimensions      [0 0 0 1 0 0 0];

internalField   nonuniform List<scalar> 
18432
(
1
1
1
1
1
1
1
1
1
1
1
1
1
1
1
1
1
1
1
1
1
1
1
1
1
1
1
1
1
1
1
1
1
1
1
1
1
1
1
1
1
1
1
1
1
1
1
1
1
1
1
1
1
1
1
1
1
1
1
1
1
1
1
1
1
1
1
1
1
1
1
1
1
1
1
1
1
1
1
1
1
1
1
1
1
1
1
1
1
1
1
1
1
1
1
1
1
1
1
1
1
1
1
1
1
1
1
1
1
1
1
1
1
1
1
1
1
1
1
1
1
1
1
1
1
1
1
1
1
1
1
1
1
1
1
1
1
1
1
1
1
1
1
1
1
1
1
1
1
1
1
1
1
1
1
1
1
1
1
1
1
1
1
1
1
1
1
1
1
1
1
1
1
1
1
1
1
1
1
1
1
1
1
1
1
1
1
1
1
1
1
1
1
1
1
1
1
1
1
1
1
1
1
1
1
1
1
1
1
1
1
1
1
1
1
1
1
1
1
1
1
1
1
1
1
1
1
1
1
1
1
1
1
1
1
1
1
1
1
1
1
1
1
1
1
1
1
1
1
1
1
1
1
1
1
1
1
1
1
1
1
1
1
1
1
1
1
1
1
1
1
1
1
1
1
1
1
1
1
1
1
1
1
1
1
1
1
1
1
1
1
1
1
1
1
1
1
1
1
1
1
1
1
1
1
1
1
1
1
1
1
1
1
1
1
1
1
1
1
1
1
1
1
1
1
1
1
1
1
1
1
1
1
1
1
1
1
1
1
1
1
1
1
1
1
1
1
1
1
1
1
1
1
1
1
1
1
1
1
1
1
1
1
1
1
1
1
1
1
1
1
1
1
1
1
1
1
1
1
1
1
1
1
1
1
1
1
1
1
1
1
1
1
1
1
1
1
1
1
1
1
1
1
1
1
1
1
1
1
1
1
1
1
1
1
1
1
1
1
1
1
1
1
1
1
1
1
1
1
1
1
1
1
1
1
1
1
1
1
1
1
1
1
1
1
1
1
1
1
1
1
1
1
1
1
1
1
1
1
1
1
1
1
1
1
1
1
1
1
1
1
1
1
1
1
1
1
1
1
1
1
1
1
1
1
1
1
1
1
1
1
1
1
1
1
1
1
1
1
1
1
1
1
1
1
1
1
1
1
1
1
1
1
1
1
1
1
1
1
1
1
1
1
1
1
1
1
1
1
1
1
1
1
1
1
1
1
1
1
1
1
1
1
1
1
1
1
1
1
1
1
1
1
1
1
1
1
1
1
1
1
1
1
1
1
1
1
1
1
1
1
1
1
1
1
1
1
1
1
1
1
1
1
1
1
1
1
1
1
1
1
1
1
1
1
1
1
1
1
1
1
1
1
1
1
1
1
1
1
1
1
1
1
1
1
1
1
1
1
1
1
1
1
1
1
1
1
1
1
1
1
1
1
1
1
1
1
1
1
1
1
1
1
1
1
1
1
1
1
1
1
1
1
1
1
1
1
1
1
1
1
1
1
1
1
1
1
1
1
1
1
1
1
1
1
1
1
1
1
1
1
1
1
1
1
1
1
1
1
1
1
1
1
1
1
1
1
1
1
1
1
1
1
1
1
1
1
1
1
1
1
1
1
1
1
1
1
1
1
1
1
1
1
1
1
1
1
1
1
1
1
1
1
1
1
1
1
1
1
1
1
1
1
1
1
1
1
1
1
1
1
1
1
1
1
1
1
1
1
1
1
1
1
1
1
1
1
1
1
1
1
1
1
1
1
1
1
1
1
1
1
1
1
1
1
1
1
1
1
1
1
1
1
1
1
1
1
1
1
1
1
1
1
1
1
1
1
1
1
1
1
1
1
1
1
1
1
1
1
1
1
1
1
1
1
1
1
1
1
1
1
1
1
1
1
1
1
1
1
1
1
1
1
1
1
1
1
1
1
1
1
1
1
1
1
1
1
1
1
1
1
1
1
1
1
1
1
1
1
1
1
1
1
1
1
1
1
1
1
1
1
1
1
1
1
1
1
1
1
1
1
1
1
1
1
1
1
1
1
1
1
1
1
1
1
1
1
1
1
1
1
1
1
1
1
1
1
1
1
1
1
1
1
1
1
1
1
1
1
1
1
1
1
1
1
1
1
1
1
1
1
1
1
1
1
1
1
1
1
1
1
1
1
1
1
1
1
1
1
1
1
1
1
1
1
1
1
1
1
1
1
1
1
1
1
1
1
1
1
1
1
1
1
1
1
1
1
1
1
1
1
1
1
1
1
1
1
1
1
1
1
1
1
1
1
1
1
1
1
1
1
1
1
1
1
1
1
1
1
1
1
1
1
1
1
1
1
1
1
1
1
1
1
1
1
1
1
1
1
1
1
1
1
1
1
1
1
1
1
1
1
1
1
1
1
1
1
1
1
1
1
1
1
1
1
1
1
1
1
1
1
1
1
1
1
1
1
1
1
1
1
1
1
1
1
1
1
1
1
1
1
1
1
1
1
1
1
1
1
1
1
1
1
1
1
1
1
1
1
1
1
1
1
1
1
1
1
1
1
1
1
1
1
1
1
1
1
1
1
1
1
1
1
1
1
1
1
1
1
1
1
1
1
1
1
1
1
1
1
1
1
1
1
1
1
1
1
1
1
1
1
1
1
1
1
1
1
1
1
1
1
1
1
1
1
1
1
1
1
1
1
1
1
1
1
1
1
1
1
1
1
1
1
1
1
1
1
1
1
1
1
1
1
1
1
1
1
1
1
1
1
1
1
1
1
1
1
1
1
1
1
1
1
1
1
1
1
1
1
1
1
1
1
1
1
1
1
1
1
1
1
1
1
1
1
1
1
1
1
1
1
1
1
1
1
1
1
1
1
1
1
1
1
1
1
1
1
1
1
1
1
1
1
1
1
1
1
1
1
1
1
1
1
1
1
1
1
1
1
1
1
1
1
1
1
1
1
1
1
1
1
1
1
1
1
1
1
1
1
1
1
1
1
1
1
1
1
1
1
1
1
1
1
1
1
1
1
1
1
1
1
1
1
1
1
1
1
1
1
1
1
1
1
1
1
1
1
1
1
1
1
1
1
1
1
1
1
1
1
1
1
1
1
1
1
1
1
1
1
1
1
1
1
1
1
1
1
1
1
1
1
1
1
1
1
1
1
1
1
1
1
1
1
1
1
1
1
1
1
1
1
1
1
1
1
1
1
1
1
1
1
1
1
1
1
1
1
1
1
1
1
1
1
1
1
1
1
1
1
1
1
1
1
1
1
1
1
1
1
1
1
1
1
1
1
1
1
1
1
1
1
1
1
1
1
1
1
1
1
1
1
1
1
1
1
1
1
1
1
1
1
1
1
1
1
1
1
1
1
1
1
1
1
1
1
1
1
1
1
1
1
1
1
1
1
1
1
1
1
1
1
1
1
1
1
1
1
1
1
1
1
1
1
1
1
1
1
1
1
1
1
1
1
1
1
1
1
1
1
1
1
1
1
1
1
1
1
1
1
1
1
1
1
1
1
1
1
1
1
1
1
1
1
1
1
1
1
1
1
1
1
1
1
1
1
1
1
1
1
1
1
1
1
1
1
1
1
1
1
1
1
1
1
1
1
1
1
1
1
1
1
1
1
1
1
1
1
1
1
1
1
1
1
1
1
1
1
1
1
1
1
1
1
1
1
1
1
1
1
1
1
1
1
1
1
1
1
1
1
1
1
1
1
1
1
1
1
1
1
1
1
1
1
1
1
1
1
1
1
1
1
1
1
1
1
1
1
1
1
1
1
1
1
1
1
1
1
1
1
1
1
1
1
1
1
1
1
1
1
1
1
1
1
1
1
1
1
1
1
1
1
1
1
1
1
1
1
1
1
1
1
1
1
1
1
1
1
1
1
1
1
1
1
1
1
1
1
1
1
1
1
1
1
1
1
1
1
1
1
1
1
1
1
1
1
1
1
1
1
1
1
1
1
1
1
1
1
1
1
1
1
1
1
1
1
1
1
1
1
1
1
1
1
1
1
1
1
1
1
1
1
1
1
1
1
1
1
1
1
1
1
1
1
1
1
1
1
1
1
1
1
1
1
1
1
1
1
1
1
1
1
1
1
1
1
1
1
1
1
1
1
1
1
1
1
1
1
1
1
1
1
1
1
1
1
1
1
1
1
1
1
1
1
1
1
1
1
1
1
1
1
1
1
1
1
1
1
1
1
1
1
1
1
1
1
1
1
1
1
1
1
1
1
1
1
1
1
1
1
1
1
1
1
1
1
1
1
1
1
1
1
1
1
1
1
1
1
1
1
1
1
1
1
1
1
1
1
1
1
1
1
1
1
1
1
1
1
1
1
1
1
1
1
1
1
1
1
1
1
1
1
1
1
1
1
1
1
1
1
1
1
1
1
1
1
1
1
1
1
1
1
1
1
1
1
1
1
1
1
1
1
1
1
1
1
1
1
1
1
1
1
1
1
1
1
1
1
1
1
1
1
1
1
1
1
1
1
1
1
1
1
1
1
1
1
1
1
1
1
1
1
1
1
1
1
1
1
1
1
1
1
1
1
1
1
1
1
1
1
1
1
1
1
1
1
1
1
1
1
1
1
1
1
1
1
1
1
1
1
1
1
1
1
1
1
1
1
1
1
1
1
1
1
1
1
1
1
1
1
1
1
1
1
1
1
1
1
1
1
1
1
1
1
1
1
1
1
1
1
1
1
1
1
1
1
1
1
1
1
1
1
1
1
1
1
1
1
1
1
1
1
1
1
1
1
1
1
1
1
1
1
1
1
1
1
1
1
1
1
1
1
1
1
1
1
1
1
1
1
1
1
1
1
1
1
1
1
1
1
1
1
1
1
1
1
1
1
1
1
1
1
1
1
1
1
1
1
1
1
1
1
1
1
1
1
1
1
1
1
1
1
1
1
1
1
1
1
1
1
1
1
1
1
1
1
1
1
1
1
1
1
1
1
1
1
1
1
1
1
1
1
1
1
1
1
1
1
1
1
1
1
1
1
1
1
1
1
1
1
1
1
1
1
1
1
1
1
1
1
1
1
1
1
1
1
1
1
1
1
1
1
1
1
1
1
1
1
1
1
1
1
1
1
1
1
1
1
1
1
1
1
1
1
1
1
1
1
1
1
1
1
1
1
1
1
1
1
1
1
1
1
1
1
1
1
1
1
1
1
1
1
1
1
1
1
1
1
1
1
1
1
1
1
1
1
1
1
1
1
1
1
1
1
1
1
1
1
1
1
1
1
1
1
1
1
1
1
1
1
1
1
1
1
1
1
1
1
1
1
1
1
1
1
1
1
1
1
1
1
1
1
1
1
1
1
1
1
1
1
1
1
1
1
1
1
1
1
1
1
1
1
1
1
1
1
1
1
1
1
1
1
1
1
1
1
1
1
1
1
1
1
1
1
1
1
1
1
1
1
1
1
1
1
1
1
1
1
1
1
1
1
1
1
1
1
1
1
1
1
1
1
1
1
1
1
1
1
1
1
1
1
1
1
1
1
1
1
1
1
1
1
1
1
1
1
1
1
1
1
1
1
1
1
1
1
1
1
1
1
1
1
1
1
1
1
1
1
1
1
1
1
1
1
1
1
1
1
1
1
1
1
1
1
1
1
1
1
1
1
1
1
1
1
1
1
1
1
1
1
1
1
1
1
1
1
1
1
1
1
1
1
1
1
1
1
1
1
1
1
1
1
1
1
1
1
1
1
1
1
1
1
1
1
1
1
1
1
1
1
1
1
1
1
1
1
1
1
1
1
1
1
1
1
1
1
1
1
1
1
1
1
1
1
1
1
1
1
1
1
1
1
1
1
1
1
1
1
1
1
1
1
1
1
1
1
1
1
1
1
1
1
1
1
1
1
1
1
1
1
1
1
1
1
1
1
1
1
1
1
1
1
1
1
1
1
1
1
1
1
1
1
1
1
1
1
1
1
1
1
1
1
1
1
1
1
1
1
1
1
1
1
1
1
1
1
1
1
1
1
1
1
1
1
1
1
1
1
1
1
1
1
1
1
1
1
1
1
1
1
1
1
1
1
1
1
1
1
1
1
1
1
1
1
1
1
1
1
1
1
1
1
1
1
1
1
1
1
1
1
1
1
1
1
1
1
1
1
1
1
1
1
1
1
1
1
1
1
1
1
1
1
1
1
1
1
1
1
1
1
1
1
1
1
1
1
1
1
1
1
1
1
1
1
1
1
1
1
1
1
1
1
1
1
1
1
1
1
1
1
1
1
1
1
1
1
1
1
1
1
1
1
1
1
1
1
1
1
1
1
1
1
1
1
1
1
1
1
1
1
1
1
1
1
1
1
1
1
1
1
1
1
1
1
1
1
1
1
1
1
1
1
1
1
1
1
1
1
1
1
1
1
1
1
1
1
1
1
1
1
1
1
1
1
1
1
1
1
1
1
1
1
1
1
1
1
1
1
1
1
1
1
1
1
1
1
1
1
1
1
1
1
1
1
1
1
1
1
1
1
1
1
1
1
1
1
1
1
1
1
1
1
1
1
1
1
1
1
1
1
1
1
1
1
1
1
1
1
1
1
1
1
1
1
1
1
1
1
1
1
1
1
1
1
1
1
1
1
1
1
1
1
1
1
1
1
1
1
1
1
1
1
1
1
1
1
1
1
1
1
1
1
1
1
1
1
1
1
1
1
1
1
1
1
1
1
1
1
1
1
1
1
1
1
1
1
1
1
1
1
1
1
1
1
1
1
1
1
1
1
1
1
1
1
1
1
1
1
1
1
1
1
1
1
1
1
1
1
1
1
1
1
1
1
1
1
1
1
1
1
1
1
1
1
1
1
1
1
1
1
1
1
1
1
1
1
1
1
1
1
1
1
1
1
1
1
1
1
1
1
1
1
1
1
1
1
1
1
1
1
1
1
1
1
1
1
1
1
1
1
1
1
1
1
1
1
1
1
1
1
1
1
1
1
1
1
1
1
1
1
1
1
1
1.07807
1.17838
1.28882
1.38167
1.47044
1.56089
1.61863
1.66598
1.69572
1.691
1.66314
1.61401
1.56891
1.53664
1.52619
1.51673
1.51407
1.517
1.52153
1.52613
1.53083
1.53377
1.53587
1.53746
1.53826
1.53909
1.54022
1.5416
1.54186
1.54163
1.54158
1.54249
1.54455
1.54656
1.54732
1.54734
1.54709
1.54617
1.54518
1.54472
1.54481
1.54511
1.54536
1.54561
1.54579
1.54591
1.54586
1.5457
1.00079
1.00562
1.02231
1.06985
1.12987
1.21336
1.30104
1.37969
1.45247
1.50423
1.53324
1.55308
1.56552
1.56246
1.55471
1.54699
1.53966
1.53683
1.5322
1.53249
1.53419
1.53694
1.53955
1.54226
1.54375
1.54478
1.54524
1.54524
1.54527
1.54509
1.54498
1.54535
1.54615
1.54693
1.54754
1.54759
1.54733
1.54678
1.54641
1.54643
1.54662
1.54699
1.54753
1.54804
1.54815
1.54815
1.5479
1.54823
1
0.999994
1
1.00003
1.00051
1.00444
1.02224
1.07382
1.18453
1.34166
1.50496
1.57872
1.62317
1.62288
1.6153
1.59999
1.57983
1.55541
1.5433
1.54346
1.54528
1.54751
1.55034
1.55394
1.55564
1.55615
1.55652
1.5566
1.55648
1.55655
1.55632
1.55589
1.55546
1.55505
1.5547
1.55412
1.55325
1.55236
1.55185
1.5517
1.55173
1.55205
1.55272
1.55331
1.55338
1.55322
1.5528
1.5537
1
1
1
1
1
0.999995
1.00002
1.00003
1.00213
1.02657
1.14898
1.3332
1.50364
1.60454
1.60598
1.60378
1.59837
1.58715
1.5787
1.57247
1.56922
1.56552
1.56326
1.56355
1.56428
1.56561
1.56702
1.56812
1.56918
1.56935
1.56918
1.56869
1.5681
1.5677
1.56717
1.56626
1.5651
1.56393
1.56295
1.56249
1.56241
1.5625
1.56265
1.56259
1.56206
1.56119
1.56008
1.56081
1
1
1
1
1
1
1
1
1
0.999972
1.00066
1.01825
1.10591
1.30569
1.45801
1.57999
1.6233
1.62155
1.61401
1.6063
1.59228
1.58204
1.57711
1.57308
1.57155
1.57228
1.57323
1.57458
1.57621
1.57692
1.57693
1.57699
1.5776
1.57794
1.5778
1.5773
1.57645
1.57535
1.57435
1.57399
1.57402
1.57414
1.57409
1.57358
1.5725
1.57133
1.56972
1.57025
1
1
1
1
1
1
1
1
1
0.999999
0.999999
0.999982
1.00024
1.01156
1.08459
1.24962
1.43633
1.53955
1.60915
1.60997
1.60549
1.59682
1.59139
1.58642
1.58219
1.57954
1.57847
1.57809
1.57867
1.58051
1.58189
1.58327
1.58436
1.58441
1.58414
1.58357
1.58278
1.58189
1.58123
1.58104
1.58107
1.58113
1.58089
1.57999
1.57879
1.57769
1.57637
1.57693
1
1
1
1
1
1
1
1
1
1
1
0.999999
0.999999
0.999986
1.00019
1.0059
1.07484
1.21684
1.40606
1.50781
1.56841
1.59546
1.59575
1.59499
1.59025
1.58651
1.58342
1.58043
1.57961
1.5802
1.58209
1.58513
1.58673
1.5865
1.58598
1.58534
1.58468
1.58395
1.58364
1.58349
1.5835
1.5837
1.5835
1.58284
1.58203
1.58154
1.58092
1.5813
1
1
1
1
1
1
1
1
1
1
1
1
1
0.999999
0.999999
0.99999
1.00022
1.0047
1.05119
1.20007
1.3589
1.50153
1.54205
1.5636
1.57479
1.57903
1.57913
1.57629
1.57635
1.57751
1.57907
1.58076
1.58242
1.58386
1.58388
1.5834
1.5829
1.58282
1.58296
1.5835
1.58432
1.58452
1.58436
1.58397
1.5836
1.58341
1.58321
1.58325
1
1
1
1
1
1
1
1
1
1
1
1
1
1
1
0.999999
0.999999
0.999993
1.0001
1.00493
1.0386
1.17857
1.3426
1.47897
1.54151
1.55352
1.56524
1.56654
1.56791
1.57029
1.57081
1.57171
1.57326
1.57518
1.5768
1.57798
1.5789
1.57994
1.58089
1.58183
1.58264
1.58295
1.58306
1.5832
1.5832
1.58303
1.58299
1.5829
1
1
1
1
1
1
1
1
1
1
1
1
1
1
1
1
1
1
1
0.999995
1.00007
1.00426
1.04142
1.15535
1.32941
1.45382
1.53405
1.55615
1.56062
1.56468
1.5653
1.56485
1.56537
1.56689
1.56873
1.57052
1.57246
1.57435
1.57592
1.57738
1.57836
1.57875
1.57928
1.58009
1.58052
1.58067
1.58104
1.58092
1
1
1
1
1
1
1
1
1
1
1
1
1
1
1
1
1
1
1
1
1
0.999995
1.00012
1.00295
1.0435
1.15184
1.32203
1.44116
1.51943
1.55355
1.56215
1.56275
1.56427
1.56514
1.56549
1.56657
1.56825
1.56969
1.57116
1.57271
1.57368
1.57409
1.57458
1.57517
1.57553
1.57577
1.57646
1.57637
1
1
1
1
1
1
1
1
1
1
1
1
1
1
1
1
1
1
1
1
1
0.999999
1
0.999995
1.0002
1.00325
1.03855
1.16606
1.32537
1.45127
1.50632
1.53882
1.55284
1.55738
1.55898
1.56263
1.56386
1.56435
1.56523
1.56656
1.56802
1.56904
1.56965
1.57022
1.57056
1.57083
1.5717
1.57198
1
1
1
1
1
1
1
1
1
1
1
1
1
1
1
1
1
1
1
1
1
1
1
0.999999
1
0.999996
1.00019
1.00529
1.04015
1.17894
1.33419
1.47336
1.51437
1.53081
1.54199
1.55219
1.55384
1.55508
1.55663
1.559
1.56147
1.56314
1.56365
1.56381
1.56401
1.56453
1.56589
1.56682
1
1
1
1
1
1
1
1
1
1
1
1
1
1
1
1
1
1
1
1
1
1
1
1
1
1
1
0.999998
1.00022
1.00786
1.05172
1.19847
1.36297
1.48387
1.53782
1.54447
1.54757
1.54905
1.55033
1.55283
1.55539
1.55674
1.55766
1.55821
1.55841
1.55914
1.56057
1.56184
1
1
1
1
1
1
1
1
1
1
1
1
1
1
1
1
1
1
1
1
1
1
1
1
1
1
1
1
0.999999
1.00001
1.00043
1.01079
1.07931
1.23485
1.39875
1.49809
1.54678
1.55503
1.55464
1.55603
1.5569
1.55728
1.55697
1.55712
1.55694
1.55736
1.55843
1.55954
1
1
1
1
1
1
1
1
1
1
1
1
1
1
1
1
1
1
1
1
1
1
1
1
1
1
1
1
1
1
0.999999
1.00003
1.00116
1.01822
1.1233
1.29129
1.4397
1.50711
1.54147
1.55315
1.55433
1.55672
1.55802
1.55774
1.55747
1.55771
1.5583
1.55906
1
1
1
1
1
1
1
1
1
1
1
1
1
1
1
1
1
1
1
1
1
1
1
1
1
1
1
1
1
1
1
1
0.999999
1.00009
1.00358
1.03516
1.17899
1.35811
1.49411
1.52273
1.53635
1.54763
1.55129
1.55256
1.55362
1.55498
1.55674
1.5578
1
1
1
1
1
1
1
1
1
1
1
1
1
1
1
1
1
1
1
1
1
1
1
1
1
1
1
1
1
1
1
1
1
1
1
1.00034
1.0107
1.07517
1.25926
1.42456
1.52749
1.54596
1.54921
1.55031
1.55064
1.55216
1.55516
1.5563
1
1
1
1
1
1
1
1
1
1
1
1
1
1
1
1
1
1
1
1
1
1
1
1
1
1
1
1
1
1
1
1
1
1
1
0.999999
1.00004
1.00153
1.03057
1.14792
1.35411
1.48325
1.5466
1.55887
1.55793
1.55785
1.55894
1.55899
1
1
1
1
1
1
1
1
1
1
1
1
1
1
1
1
1
1
1
1
1
1
1
1
1
1
1
1
1
1
1
1
1
1
1
1
1
1
1.00033
1.00709
1.08685
1.26396
1.44424
1.51111
1.54254
1.55794
1.5581
1.55855
1
1
1
1
1
1
1
1
1
1
1
1
1
1
1
1
1
1
1
1
1
1
1
1
1
1
1
1
1
1
1
1
1
1
1
1
1
1
1
1.00003
1.00254
1.03147
1.18362
1.38713
1.51622
1.53643
1.54486
1.54918
1
1
1
1
1
1
1
1
1
1
1
1
1
1
1
1
1
1
1
1
1
1
1
1
1
1
1
1
1
1
1
1
1
1
1
1
1
1
1
1
1
1.00045
1.01436
1.11042
1.32255
1.48235
1.5482
1.55378
1
1
1
1
1
1
1
1
1
1
1
1
1
1
1
1
1
1
1
1
1
1
1
1
1
1
1
1
1
1
1
1
1
1
1
1
1
1
1
1
1
1
1.00012
1.00498
1.06812
1.2527
1.43111
1.52932
1
1
1
1
1
1
1
1
1
1
1
1
1
1
1
1
1
1
1
1
1
1
1
1
1
1
1
1
1
1
1
1
1
1
1
1
1
1
1
1
1
1
1
1.00003
1.00188
1.03311
1.20468
1.4068
1
1
1
1
1
1
1
1
1
1
1
1
1
1
1
1
1
1
1
1
1
1
1
1
1
1
1
1
1
1
1
1
1
1
1
1
1
1
1
1
1
1
1
1
1
1.00068
1.02414
1.13225
1
1
1
1
1
1
1
1
1
1
1
1
1
1
1
1
1
1
1
1
1
1
1
1
1
1
1
1
1
1
1
1
1
1
1
1
1
1
1
1
1
1
1
1
1
1
1.00045
1.0054
1
1
1
1
1
1
1
1
1
1
1
1
1
1
1
1
1
1
1
1
1
1
1
1
1
1
1
1
1
1
1
1
1
1
1
1
1
1
1
1
1
1
1
1
1
1
1
0.999946
1
1
1
1
1
1
1
1
1
1
1
1
1
1
1
1
1
1
1
1
1
1
1
1
1
1
1
1
1
1
1
1
1
1
1
1
1
1
1
1
1
1
1
1
1
1
1
0.999982
1
1
1
1
1
1
1
1
1
1
1
1
1
1
1
1
1
1
1
1
1
1
1
1
1
1
1
1
1
1
1
1
1
1
1
1
1
1
1
1
1
1
1
1
1
1
1
0.999998
1
1
1
1
1
1
1
1
1
1
1
1
1
1
1
1
1
1
1
1
1
1
1
1
1
1
1
1
1
1
1
1
1
1
1
1
1
1
1
1
1
1
1
1
1
1
1
1
1
1
1
1
1
1
1
1
1
1
1
1
1
1
1
1
1
1
1
1
1
1
1
1
1
1
1
1
1
1
1
1
1
1
1
1
1
1
1
1
1
1
1
1
1
1
1
1
1
1
1
1
1
1
1
1
1
1
1
1
1
1
1
1
1
1
1
1
1
1
1
1
1
1
1
1
1
1
1
1
1
1
1
1
1
1
1
1
1
1
1
1
1
1
1
1
1
1
1
1
1
1
1
1
1
1
1
1
1
1
1
1
1
1
1
1
1
1
1
1
1
1
1
1
1
1
1
1
1
1
1
1
1
1
1
1
1
1
1
1
1
1
1
1
1
1
1
1
1
1
1
1
1
1
1
1
1
1
1
1
1
1
1
1
1
1
1
1
1
1
1
1
1
1
1
1
1
1
1
1
1
1
1
1
1
1
1
1
1
1
1
1
1
1
1
1
1
1
1
1
1
1
1
1
1
1
1
1
1
1
1
1
1
1
1
1
1
1
1
1
1
1
1
1
1
1
1
1
1
1
1
1
1
1
1
1
1
1
1
1
1
1
1
1
1
1
1
1
1
1
1
1
1
1
1
1
1
1
1
1
1
1
1
1
1
1
1
1
1
1
1
1
1
1
1
1
1
1
1
1
1
1
1
1
1
1
1
0.999997
1
1
1
1
1
1
1
1
1
1
1
1
1
1
1
1
1
1
1
1
1
1
1
1
1
1
1
1
1
1
1
1
1
1
1
1
1
1
1
1
1
1
1
1
1
1
1
0.999982
1
1
1
1
1
1
1
1
1
1
1
1
1
1
1
1
1
1
1
1
1
1
1
1
1
1
1
1
1
1
1
1
1
1
1
1
1
1
1
1
1
1
1
1
1
1
1
0.999946
1
1
1
1
1
1
1
1
1
1
1
1
1
1
1
1
1
1
1
1
1
1
1
1
1
1
1
1
1
1
1
1
1
1
1
1
1
1
1
1
1
1
1
1
1
1
1.00045
1.0054
1
1
1
1
1
1
1
1
1
1
1
1
1
1
1
1
1
1
1
1
1
1
1
1
1
1
1
1
1
1
1
1
1
1
1
1
1
1
1
1
1
1
1
1
1
1.00068
1.02406
1.13225
1
1
1
1
1
1
1
1
1
1
1
1
1
1
1
1
1
1
1
1
1
1
1
1
1
1
1
1
1
1
1
1
1
1
1
1
1
1
1
1
1
1
1
1.00003
1.00188
1.03314
1.20443
1.40718
1
1
1
1
1
1
1
1
1
1
1
1
1
1
1
1
1
1
1
1
1
1
1
1
1
1
1
1
1
1
1
1
1
1
1
1
1
1
1
1
1
1
1.00012
1.00498
1.06813
1.25262
1.43106
1.52955
1
1
1
1
1
1
1
1
1
1
1
1
1
1
1
1
1
1
1
1
1
1
1
1
1
1
1
1
1
1
1
1
1
1
1
1
1
1
1
1
1
1.00045
1.01436
1.11042
1.32262
1.48224
1.54822
1.5539
1
1
1
1
1
1
1
1
1
1
1
1
1
1
1
1
1
1
1
1
1
1
1
1
1
1
1
1
1
1
1
1
1
1
1
1
1
1
1
1.00003
1.00254
1.03147
1.18361
1.38715
1.51622
1.53639
1.54486
1.54921
1
1
1
1
1
1
1
1
1
1
1
1
1
1
1
1
1
1
1
1
1
1
1
1
1
1
1
1
1
1
1
1
1
1
1
1
1
1
1.00033
1.00708
1.08685
1.26397
1.44422
1.51113
1.54255
1.55794
1.55809
1.55855
1
1
1
1
1
1
1
1
1
1
1
1
1
1
1
1
1
1
1
1
1
1
1
1
1
1
1
1
1
1
1
1
1
1
1
0.999999
1.00004
1.00153
1.03057
1.14791
1.35412
1.48325
1.54659
1.55888
1.55793
1.55785
1.55893
1.559
1
1
1
1
1
1
1
1
1
1
1
1
1
1
1
1
1
1
1
1
1
1
1
1
1
1
1
1
1
1
1
1
1
1
1
1.00034
1.0107
1.07517
1.25925
1.42456
1.5275
1.54596
1.54921
1.55031
1.55064
1.55216
1.55517
1.5563
1
1
1
1
1
1
1
1
1
1
1
1
1
1
1
1
1
1
1
1
1
1
1
1
1
1
1
1
1
1
1
1
0.999999
1.00009
1.00358
1.03515
1.17899
1.35811
1.49411
1.52273
1.53635
1.54763
1.55129
1.55256
1.55362
1.55498
1.55674
1.5578
1
1
1
1
1
1
1
1
1
1
1
1
1
1
1
1
1
1
1
1
1
1
1
1
1
1
1
1
1
1
0.999999
1.00003
1.00116
1.01823
1.1233
1.29129
1.4397
1.50711
1.54147
1.55315
1.55433
1.55672
1.55802
1.55774
1.55747
1.55771
1.5583
1.55906
1
1
1
1
1
1
1
1
1
1
1
1
1
1
1
1
1
1
1
1
1
1
1
1
1
1
1
1
0.999999
1.00001
1.00043
1.01079
1.07931
1.23485
1.39875
1.49809
1.54678
1.55503
1.55464
1.55603
1.55689
1.55728
1.55697
1.55712
1.55694
1.55736
1.55843
1.55954
1
1
1
1
1
1
1
1
1
1
1
1
1
1
1
1
1
1
1
1
1
1
1
1
1
1
1
0.999998
1.00022
1.00786
1.05172
1.19847
1.36297
1.48387
1.53782
1.54447
1.54757
1.54905
1.55033
1.55283
1.55539
1.55674
1.55767
1.55821
1.55841
1.55914
1.56057
1.56184
1
1
1
1
1
1
1
1
1
1
1
1
1
1
1
1
1
1
1
1
1
1
1
0.999999
1
0.999996
1.00019
1.00529
1.04015
1.17894
1.33419
1.47336
1.51437
1.53081
1.54199
1.55219
1.55384
1.55508
1.55663
1.559
1.56147
1.56314
1.56365
1.56381
1.56401
1.56453
1.56589
1.56682
1
1
1
1
1
1
1
1
1
1
1
1
1
1
1
1
1
1
1
1
1
0.999999
1
0.999995
1.0002
1.00325
1.03855
1.16606
1.32537
1.45127
1.50632
1.53881
1.55284
1.55738
1.55898
1.56263
1.56386
1.56435
1.56523
1.56656
1.56802
1.56904
1.56965
1.57022
1.57056
1.57083
1.57169
1.57198
1
1
1
1
1
1
1
1
1
1
1
1
1
1
1
1
1
1
1
1
1
0.999995
1.00012
1.00295
1.0435
1.15184
1.32203
1.44116
1.51943
1.55355
1.56215
1.56275
1.56427
1.56514
1.56549
1.56657
1.56825
1.56969
1.57116
1.57271
1.57369
1.57409
1.57458
1.57517
1.57553
1.57577
1.57646
1.57637
1
1
1
1
1
1
1
1
1
1
1
1
1
1
1
1
1
1
1
0.999995
1.00007
1.00426
1.04142
1.15535
1.32941
1.45382
1.53405
1.55615
1.56062
1.56468
1.5653
1.56485
1.56537
1.56689
1.56873
1.57052
1.57246
1.57435
1.57592
1.57738
1.57836
1.57875
1.57928
1.58009
1.58052
1.58067
1.58104
1.58092
1
1
1
1
1
1
1
1
1
1
1
1
1
1
1
0.999999
0.999999
0.999993
1.0001
1.00493
1.0386
1.17857
1.3426
1.47897
1.54151
1.55352
1.56524
1.56654
1.56791
1.57029
1.57081
1.57171
1.57326
1.57518
1.5768
1.57798
1.5789
1.57994
1.58089
1.58183
1.58264
1.58295
1.58306
1.5832
1.5832
1.58303
1.58299
1.5829
1
1
1
1
1
1
1
1
1
1
1
1
1
0.999999
0.999999
0.99999
1.00022
1.0047
1.05119
1.20007
1.3589
1.50153
1.54205
1.5636
1.57479
1.57903
1.57913
1.57629
1.57635
1.57751
1.57907
1.58076
1.58242
1.58386
1.58388
1.5834
1.5829
1.58282
1.58296
1.5835
1.58432
1.58452
1.58436
1.58397
1.5836
1.58341
1.58321
1.58325
1
1
1
1
1
1
1
1
1
1
1
0.999999
0.999999
0.999986
1.00019
1.0059
1.07484
1.21684
1.40606
1.50781
1.56841
1.59546
1.59575
1.59499
1.59025
1.58651
1.58342
1.58043
1.57961
1.5802
1.58209
1.58513
1.58673
1.5865
1.58598
1.58534
1.58468
1.58395
1.58364
1.58349
1.5835
1.5837
1.5835
1.58284
1.58203
1.58154
1.58092
1.5813
1
1
1
1
1
1
1
1
1
0.999999
0.999999
0.999982
1.00024
1.01156
1.08459
1.24962
1.43633
1.53955
1.60915
1.60997
1.60549
1.59682
1.59139
1.58642
1.58219
1.57954
1.57847
1.57809
1.57867
1.58051
1.58189
1.58327
1.58436
1.58441
1.58414
1.58357
1.58278
1.58189
1.58123
1.58104
1.58107
1.58113
1.58089
1.57999
1.57879
1.57769
1.57637
1.57693
1
1
1
1
1
1
1
1
1
0.999972
1.00066
1.01825
1.10591
1.30569
1.45801
1.57999
1.6233
1.62155
1.61401
1.6063
1.59228
1.58204
1.57711
1.57308
1.57155
1.57228
1.57323
1.57458
1.57621
1.57692
1.57693
1.57699
1.5776
1.57794
1.5778
1.5773
1.57645
1.57535
1.57435
1.57399
1.57402
1.57414
1.57409
1.57358
1.5725
1.57133
1.56972
1.57025
1
1
1
1
1
0.999995
1.00002
1.00003
1.00213
1.02657
1.14898
1.3332
1.50364
1.60454
1.60598
1.60378
1.59837
1.58715
1.5787
1.57247
1.56922
1.56552
1.56326
1.56355
1.56428
1.56561
1.56702
1.56812
1.56918
1.56935
1.56918
1.56869
1.5681
1.5677
1.56717
1.56626
1.5651
1.56393
1.56295
1.56249
1.56241
1.5625
1.56265
1.56259
1.56206
1.56119
1.56008
1.56081
1
0.999994
1
1.00003
1.00051
1.00444
1.02224
1.07382
1.18453
1.34166
1.50496
1.57872
1.62317
1.62288
1.6153
1.59999
1.57983
1.55541
1.5433
1.54346
1.54528
1.54751
1.55034
1.55394
1.55564
1.55615
1.55652
1.5566
1.55648
1.55655
1.55632
1.55589
1.55546
1.55505
1.5547
1.55412
1.55325
1.55236
1.55185
1.5517
1.55173
1.55205
1.55272
1.55331
1.55338
1.55322
1.5528
1.5537
1.00079
1.00562
1.02231
1.06985
1.12987
1.21336
1.30104
1.37969
1.45247
1.50423
1.53324
1.55308
1.56552
1.56246
1.55471
1.54699
1.53966
1.53683
1.5322
1.53249
1.53419
1.53694
1.53955
1.54226
1.54375
1.54478
1.54524
1.54524
1.54527
1.54509
1.54498
1.54535
1.54615
1.54693
1.54754
1.54759
1.54733
1.54678
1.54641
1.54643
1.54662
1.54699
1.54753
1.54804
1.54815
1.54815
1.5479
1.54823
1.07807
1.17838
1.28882
1.38167
1.47044
1.56089
1.61863
1.66598
1.69572
1.691
1.66314
1.61401
1.56891
1.53664
1.52619
1.51673
1.51407
1.517
1.52153
1.52613
1.53083
1.53377
1.53587
1.53746
1.53826
1.53909
1.54022
1.5416
1.54186
1.54163
1.54158
1.54249
1.54455
1.54656
1.54732
1.54734
1.54709
1.54617
1.54518
1.54472
1.54481
1.54511
1.54536
1.54561
1.54579
1.54591
1.54586
1.5457
1.40333
1.24093
1.08349
1.0292
1.01331
0.992562
0.994913
1.0263
1.05207
1.05755
1.06666
1.09248
1.11433
1.11579
1.11439
1.11725
1.1168
1.11554
1.11694
1.11986
1.11931
1.11772
1.11663
1.11634
1.11536
1.11064
1.10733
1.10731
1.10726
1.10695
1.10592
1.10494
1.10432
1.10339
1.10292
1.10295
1.10324
1.10452
1.10542
1.10539
1.10523
1.10468
1.10336
1.10274
1.10276
1.10273
1.10261
1.10322
1.10616
1.16064
1.35141
1.58887
1.81691
2.051
2.24758
2.23966
2.1791
2.09839
2.08474
2.08794
2.07934
2.06042
2.0403
2.02518
2.01509
2.00692
1.99859
1.98905
1.97777
1.95871
1.93359
1.91932
1.91244
1.90802
1.90682
1.90132
1.89339
1.879
1.85055
1.8259
1.81747
1.81282
1.81303
1.81743
1.81372
1.80711
1.795
1.76945
1.74638
1.73858
1.73409
1.73056
1.728
1.7235
1.71717
1.70472
1.68541
1.6748
1.67004
1.66564
1.66095
1.65511
1.64697
1.63315
1.61852
1.61201
1.60831
1.605
1.60199
1.59826
1.59239
1.58144
1.56582
1.55517
1.54972
1.54571
1.5423
1.5392
1.53611
1.53247
1.52668
1.51451
1.49799
1.48974
1.48643
1.4829
1.47894
1.47513
1.47085
1.46501
1.45715
1.4511
1.44806
1.44566
1.4429
1.43824
1.42734
1.41128
1.40457
1.40285
1.40119
1.39908
1.39764
1.39677
1.40259
1.42719
1.48496
1.5785
1.6902
1.77499
1.84703
1.9047
1.91782
1.91397
1.90602
1.89016
1.87637
1.86625
1.8531
1.84314
1.83935
1.83692
1.83515
1.83255
1.82856
1.82046
1.80982
1.80526
1.80252
1.80083
1.80067
1.79773
1.79378
1.78952
1.78084
1.76456
1.75495
1.75281
1.75132
1.75087
1.75326
1.75317
1.75009
1.74647
1.74037
1.72685
1.71445
1.71083
1.70908
1.70776
1.70702
1.70285
1.50023
1.42469
1.32539
1.23169
1.19117
1.14428
1.09513
1.08997
1.07682
1.05842
1.0558
1.06168
1.06852
1.0704
1.07266
1.07875
1.0842
1.0868
1.09058
1.09741
1.10279
1.10363
1.10411
1.10436
1.10399
1.10179
1.10094
1.10125
1.10149
1.1015
1.101
1.10071
1.10065
1.10019
1.09981
1.09963
1.09981
1.10044
1.10058
1.10059
1.10052
1.09991
1.09884
1.09845
1.0983
1.09795
1.0988
1.10332
1.15056
1.34688
1.52777
1.57444
1.66662
1.77507
1.96119
2.08706
2.13237
2.11888
2.10662
2.09633
2.08233
2.06633
2.04986
2.03418
2.01807
2.00451
1.99687
1.98905
1.97828
1.96345
1.9441
1.92762
1.91737
1.91047
1.90479
1.89917
1.89129
1.87953
1.85973
1.83792
1.82504
1.81899
1.81493
1.81256
1.80952
1.8029
1.79262
1.77446
1.75389
1.74313
1.7375
1.73304
1.72835
1.72314
1.7174
1.70856
1.69208
1.67633
1.66945
1.6652
1.66187
1.65803
1.65151
1.64004
1.62582
1.61692
1.61169
1.60689
1.60235
1.59863
1.59416
1.5844
1.56912
1.55775
1.55229
1.54812
1.54416
1.54044
1.53657
1.53232
1.52585
1.5154
1.50186
1.49153
1.48736
1.48528
1.48313
1.47947
1.47515
1.46962
1.46213
1.45541
1.45143
1.44836
1.44502
1.44009
1.43097
1.41698
1.40676
1.40355
1.40162
1.40039
1.40135
1.41116
1.44446
1.51174
1.57301
1.61612
1.65799
1.71558
1.76619
1.81559
1.84829
1.87387
1.88866
1.88655
1.88045
1.87075
1.85912
1.84878
1.84468
1.84183
1.83879
1.83509
1.83072
1.82369
1.81351
1.8071
1.8041
1.80177
1.80077
1.79834
1.79462
1.79031
1.78326
1.77133
1.75913
1.75417
1.75227
1.75139
1.75291
1.75356
1.75074
1.74686
1.74089
1.73028
1.71871
1.7136
1.71186
1.71041
1.70918
1.70495
1.53859
1.4976
1.43511
1.35545
1.29129
1.23205
1.16309
1.12722
1.10446
1.07132
1.04872
1.05036
1.04994
1.04567
1.04667
1.05017
1.05349
1.05729
1.06227
1.07201
1.08095
1.08284
1.08353
1.08514
1.08644
1.08655
1.08744
1.08892
1.09055
1.09159
1.09153
1.09114
1.09016
1.08945
1.08944
1.0895
1.09002
1.09035
1.09035
1.09043
1.0902
1.08943
1.08929
1.08928
1.0894
1.09123
1.10268
1.15958
1.35373
1.5379
1.59486
1.5975
1.60339
1.6199
1.70419
1.91267
2.10798
2.15559
2.1356
2.09877
2.08075
2.07586
2.06634
2.05091
2.03228
2.01411
1.99974
1.98905
1.97671
1.96515
1.95612
1.94425
1.93106
1.91782
1.90767
1.8985
1.88823
1.87658
1.86544
1.855
1.84299
1.82946
1.82063
1.81405
1.80617
1.79685
1.78584
1.77417
1.76361
1.75314
1.74358
1.73735
1.73214
1.7259
1.7174
1.70555
1.69056
1.67863
1.67244
1.66744
1.6619
1.65613
1.65014
1.6421
1.63119
1.621
1.61596
1.61227
1.60719
1.59965
1.59039
1.57995
1.56865
1.55946
1.55452
1.5517
1.54903
1.54538
1.54049
1.53314
1.52299
1.51155
1.50171
1.49529
1.49096
1.48634
1.4807
1.4758
1.47104
1.46536
1.45799
1.45101
1.4469
1.44361
1.44002
1.43521
1.42757
1.41822
1.41027
1.40637
1.40568
1.40753
1.42093
1.46565
1.54115
1.6102
1.63665
1.63698
1.63961
1.65255
1.68246
1.73281
1.79762
1.85178
1.87572
1.88867
1.88702
1.87977
1.86871
1.85816
1.85087
1.84516
1.83918
1.83468
1.83153
1.82782
1.82129
1.81143
1.80259
1.79862
1.79607
1.79511
1.79221
1.78846
1.78422
1.77833
1.77019
1.76075
1.75518
1.75258
1.7504
1.74856
1.74593
1.74262
1.738
1.73201
1.72591
1.71933
1.71276
1.70883
1.70711
1.70271
1.55595
1.53756
1.49967
1.44055
1.37891
1.32064
1.25411
1.20849
1.17923
1.13823
1.09745
1.08982
1.07591
1.05369
1.05098
1.05116
1.04683
1.04435
1.04609
1.05137
1.05683
1.05982
1.06212
1.0664
1.07054
1.07313
1.07572
1.07851
1.07987
1.08082
1.08136
1.08123
1.08088
1.08083
1.08136
1.08281
1.08393
1.08396
1.08372
1.08315
1.08172
1.08041
1.08039
1.08068
1.08281
1.10752
1.21488
1.36703
1.54114
1.60886
1.61452
1.6137
1.61002
1.6071
1.60613
1.6573
1.84786
2.07802
2.10583
2.0956
2.08955
2.09141
2.08396
2.06891
2.05243
2.03382
2.01117
1.99314
1.98113
1.97251
1.96489
1.95804
1.9477
1.93168
1.91241
1.89775
1.88802
1.88136
1.87664
1.87114
1.8613
1.84666
1.82791
1.81273
1.80179
1.7924
1.78525
1.78041
1.77589
1.76789
1.75691
1.74433
1.73413
1.72606
1.71702
1.70624
1.6956
1.68601
1.67673
1.66952
1.66392
1.65902
1.65455
1.6495
1.64125
1.63166
1.6227
1.61354
1.60547
1.59665
1.58691
1.57857
1.57225
1.56692
1.56197
1.55621
1.54906
1.54269
1.53674
1.5286
1.51884
1.5121
1.50824
1.50414
1.49858
1.49126
1.4838
1.47775
1.47264
1.46711
1.46033
1.45271
1.44733
1.44391
1.44059
1.43571
1.42776
1.42127
1.41757
1.41487
1.41871
1.44321
1.49896
1.57421
1.63024
1.64246
1.65261
1.65341
1.64919
1.65006
1.65372
1.66663
1.70039
1.75731
1.81078
1.85799
1.87272
1.87723
1.87753
1.87286
1.86414
1.85288
1.84337
1.83988
1.83799
1.83478
1.82831
1.81794
1.80795
1.80144
1.79813
1.79612
1.7933
1.78981
1.78707
1.78498
1.78043
1.77255
1.76257
1.75624
1.75287
1.74917
1.74482
1.74097
1.7381
1.73599
1.73265
1.72676
1.71891
1.71303
1.70969
1.7039
1.56639
1.55987
1.54071
1.5004
1.44911
1.39765
1.33231
1.28353
1.25032
1.20649
1.15814
1.13524
1.11334
1.08038
1.06435
1.06166
1.0525
1.04501
1.04642
1.05079
1.05096
1.05055
1.05104
1.05371
1.05882
1.06378
1.0679
1.07238
1.07407
1.07496
1.07608
1.07604
1.07561
1.07607
1.07833
1.08048
1.081
1.08097
1.08071
1.0799
1.07825
1.07701
1.077
1.07817
1.10374
1.27145
1.45065
1.55238
1.60847
1.62381
1.62242
1.61898
1.61437
1.61131
1.60637
1.59948
1.62205
1.77058
1.98763
2.08061
2.10073
2.09606
2.08469
2.07402
2.06421
2.05077
2.02561
1.99981
1.98809
1.97984
1.97248
1.96379
1.95435
1.93983
1.91631
1.89901
1.89199
1.88684
1.88178
1.8756
1.86919
1.85798
1.83604
1.81112
1.79989
1.79385
1.78921
1.78434
1.77905
1.77474
1.76851
1.75598
1.73908
1.72648
1.71745
1.70968
1.7021
1.69321
1.68329
1.67452
1.66804
1.66278
1.65768
1.652
1.64545
1.63748
1.62724
1.61532
1.60423
1.59493
1.58698
1.5801
1.57445
1.57031
1.56633
1.56133
1.55593
1.54728
1.53612
1.52587
1.51797
1.51201
1.508
1.50466
1.50036
1.4946
1.48903
1.48232
1.47465
1.4676
1.46159
1.45602
1.45076
1.44529
1.44023
1.43487
1.42924
1.42645
1.42778
1.43698
1.47666
1.54635
1.60328
1.64963
1.66402
1.66562
1.6681
1.66814
1.66499
1.65795
1.6545
1.64951
1.65036
1.66446
1.71022
1.77947
1.8365
1.87102
1.88444
1.88071
1.86926
1.85703
1.84914
1.84526
1.84118
1.83652
1.83112
1.82466
1.81608
1.80616
1.79931
1.79629
1.79391
1.79264
1.79106
1.78878
1.78687
1.78258
1.77394
1.76309
1.75401
1.74849
1.74452
1.74113
1.73814
1.73551
1.73353
1.73153
1.72718
1.71933
1.71219
1.70484
1.57446
1.57036
1.56242
1.54065
1.50295
1.46033
1.40659
1.35425
1.31492
1.27129
1.22579
1.19811
1.17306
1.13494
1.11181
1.10309
1.08907
1.06901
1.06763
1.06553
1.05914
1.05292
1.05172
1.05134
1.05205
1.05457
1.06025
1.06633
1.06901
1.07061
1.07269
1.07396
1.07413
1.07533
1.07875
1.08029
1.0807
1.08092
1.08082
1.07979
1.07797
1.07786
1.07975
1.10362
1.26782
1.50691
1.58981
1.62487
1.63456
1.62587
1.62476
1.62437
1.61602
1.61018
1.60673
1.60058
1.59107
1.59995
1.6892
1.88339
2.02881
2.065
2.07564
2.07894
2.07006
2.05376
2.03059
2.00538
1.9913
1.98328
1.97599
1.96755
1.95805
1.94496
1.92367
1.9027
1.89366
1.88785
1.88417
1.87923
1.87175
1.86143
1.8423
1.81627
1.80152
1.79572
1.7911
1.78824
1.78455
1.77921
1.77132
1.75771
1.73833
1.72518
1.71821
1.71291
1.7082
1.70263
1.69246
1.67756
1.66818
1.6638
1.65996
1.65656
1.65266
1.64525
1.63089
1.61359
1.60183
1.5942
1.58767
1.5822
1.57842
1.57553
1.57286
1.56881
1.55922
1.54517
1.53266
1.52475
1.51889
1.51441
1.51075
1.50742
1.50474
1.50138
1.49303
1.48209
1.47418
1.46891
1.4644
1.4599
1.45376
1.44494
1.43849
1.43378
1.43373
1.4389
1.46289
1.5165
1.59743
1.64549
1.66957
1.6785
1.67727
1.67167
1.66911
1.66856
1.66721
1.66374
1.65818
1.65143
1.64396
1.64011
1.64667
1.67676
1.74474
1.8084
1.86106
1.87005
1.86969
1.8663
1.85969
1.85236
1.84558
1.83999
1.83521
1.82997
1.82241
1.81211
1.80256
1.79718
1.79463
1.79357
1.79379
1.79241
1.78978
1.78689
1.78133
1.77033
1.75808
1.74932
1.745
1.74209
1.73964
1.73759
1.73561
1.73318
1.73038
1.7241
1.7156
1.70678
1.58019
1.57738
1.57362
1.56414
1.54275
1.50975
1.46277
1.4191
1.37817
1.33095
1.28835
1.2576
1.22784
1.19155
1.16588
1.14896
1.1284
1.09902
1.0902
1.08258
1.07002
1.05989
1.05921
1.05746
1.05608
1.05751
1.06064
1.06205
1.06268
1.06384
1.06606
1.06921
1.07252
1.0767
1.08088
1.08187
1.08218
1.08268
1.08271
1.08117
1.07981
1.08484
1.12813
1.2738
1.51692
1.61487
1.63765
1.64334
1.64469
1.63091
1.6197
1.61953
1.61696
1.60732
1.6013
1.59763
1.58958
1.57955
1.57817
1.61858
1.7708
1.94911
2.03564
2.06741
2.0646
2.04931
2.02986
2.00782
1.99128
1.98141
1.97332
1.96512
1.95616