/*--------------------------------*- C++ -*----------------------------------*\
  =========                 |
  \\      /  F ield         | OpenFOAM: The Open Source CFD Toolbox
   \\    /   O peration     | Website:  https://openfoam.org
    \\  /    A nd           | Version:  7
     \\/     M anipulation  |
\*---------------------------------------------------------------------------*/
FoamFile
{
    version     2.0;
    format      ascii;
    class       volVectorField;
    location    "0.7";
    object      U;
}
// * * * * * * * * * * * * * * * * * * * * * * * * * * * * * * * * * * * * * //

dimensions      [0 1 -1 0 0 0 0];

internalField   nonuniform List<vector> 
73728
(
(3 1.54489e-17 0)
(3 -2.99767e-17 0)
(3 1.54317e-16 0)
(3 1.51828e-16 0)
(3 -1.41117e-16 0)
(3 -1.39627e-16 0)
(3 -5.44604e-16 0)
(3 -7.87152e-16 0)
(3 -1.81626e-16 0)
(3 1.83199e-16 0)
(3 -1.62782e-16 0)
(3 -7.55109e-16 0)
(3 2.74206e-16 0)
(3 2.07371e-15 0)
(3 1.97463e-15 0)
(3 5.58634e-16 0)
(3 1.96476e-16 0)
(3 1.42597e-16 0)
(3 2.9616e-16 0)
(3 1.37626e-15 0)
(3 1.23756e-15 0)
(3 -1.16292e-16 0)
(3 -5.54269e-16 0)
(3 -4.78634e-16 0)
(3 -6.1071e-16 0)
(3 -2.38574e-16 0)
(3 -1.88731e-16 0)
(3 -1.0761e-15 0)
(3 -3.13151e-16 0)
(3 2.92997e-16 0)
(3 1.16374e-16 0)
(3 -3.88328e-16 0)
(3 1.081e-15 0)
(3 1.77525e-15 0)
(3 1.00262e-15 0)
(3 3.99322e-16 0)
(3 -1.26995e-16 0)
(3 -3.24296e-16 0)
(3 -9.81889e-16 0)
(3 -1.28257e-15 0)
(3 -9.94519e-16 0)
(3 -2.70147e-16 0)
(3 -9.36443e-17 0)
(3 1.77104e-16 0)
(3 -2.83726e-16 0)
(3 -7.30851e-16 0)
(3 -1.62e-15 0)
(3 -1.33177e-15 0)
(3 -1.26148e-15 0)
(3 -8.42562e-16 0)
(3 -8.64948e-16 0)
(3 -1.15353e-15 0)
(3 -1.08639e-15 0)
(3 -1.63905e-15 0)
(3 4.21728e-16 0)
(3 6.99314e-17 0)
(3 -6.34867e-16 0)
(3 -5.46195e-16 0)
(3 1.94714e-16 0)
(3 2.6589e-16 0)
(3 5.27942e-16 0)
(3 -3.10257e-16 0)
(3 -1.17986e-15 0)
(3 -1.17979e-15 0)
(3 -1.17797e-15 0)
(3 -3.1435e-16 0)
(3 -1.38462e-16 0)
(3 -7.79387e-16 0)
(3 -1.26053e-15 0)
(3 -1.46835e-15 0)
(3 -1.67318e-15 0)
(3 -2.44268e-15 0)
(3 -1.98929e-15 0)
(3 -1.47119e-15 0)
(3 -1.04351e-15 0)
(3 -6.71343e-16 0)
(3 -8.85812e-16 0)
(3 -1.21136e-15 0)
(3 -4.49924e-16 0)
(3 3.72612e-16 0)
(3 8.64818e-16 0)
(3 1.01738e-15 0)
(3 1.13313e-15 0)
(3 1.01369e-15 0)
(3 7.99015e-16 0)
(3 4.62028e-16 0)
(3 1.39297e-16 0)
(3 -1.37526e-16 0)
(3 1.21751e-16 0)
(3 3.438e-16 0)
(3 1.70344e-16 0)
(3 1.89736e-16 0)
(3 7.99456e-16 0)
(3 8.76082e-16 0)
(3 -5.76634e-16 0)
(3 -6.97747e-16 0)
(3 2.08534e-16 0)
(3 -3.20016e-17 0)
(3 -1.71236e-16 0)
(3 -1.31928e-16 0)
(3 -3.51606e-16 0)
(3 -9.08953e-16 0)
(3 -1.04187e-15 0)
(3 -1.33705e-15 0)
(3 -5.97558e-16 0)
(3 -6.96121e-17 0)
(3 2.89861e-16 0)
(3 -1.51114e-16 0)
(3 8.13567e-16 0)
(3 3.26462e-15 0)
(3 1.10175e-15 0)
(3 3.07602e-16 0)
(3 2.37187e-16 0)
(3 8.43249e-16 0)
(3 2.44634e-15 0)
(3 3.71947e-15 0)
(3 3.26201e-15 0)
(3 1.53133e-15 0)
(3 6.63692e-16 0)
(3 2.23598e-16 0)
(3 2.25999e-17 0)
(3 3.20937e-16 0)
(3 -6.11431e-17 0)
(3 -7.44094e-16 0)
(3 1.16495e-16 0)
(3 5.70537e-16 0)
(3 9.92891e-16 0)
(3 9.93015e-16 0)
(3 1.57423e-15 0)
(3 2.81373e-15 0)
(3 2.60851e-15 0)
(3 2.25251e-15 0)
(3 1.19982e-15 0)
(3 6.42051e-16 0)
(3 -3.122e-16 0)
(3 -1.92083e-16 0)
(3 1.28362e-16 0)
(3 7.17108e-16 0)
(3 8.55288e-16 0)
(3 7.69977e-16 0)
(3 6.00193e-16 0)
(3 6.62265e-16 0)
(3 -6.20553e-16 0)
(3 -8.27125e-16 0)
(3 -5.47689e-16 0)
(3 -1.15375e-16 0)
(3 -2.60204e-16 0)
(3 -7.73756e-16 0)
(3 -7.23032e-16 0)
(3 -8.82374e-16 0)
(3 6.9187e-16 0)
(3 1.39999e-15 0)
(3 3.38272e-16 0)
(3 3.08484e-16 0)
(3 6.35977e-16 0)
(3 1.10287e-15 0)
(3 1.31138e-15 0)
(3 -1.53198e-15 0)
(3 -4.30159e-15 0)
(3 -3.42989e-15 0)
(3 -2.51292e-15 0)
(3 -1.1696e-15 0)
(3 -7.56092e-16 0)
(3 -1.02394e-15 0)
(3 -1.76306e-15 0)
(3 -2.61603e-15 0)
(3 -2.97443e-15 0)
(3 -3.35583e-15 0)
(3 -2.32743e-15 0)
(3 3.01119e-16 0)
(3 8.93169e-16 0)
(3 -1.06424e-15 0)
(3 -1.20878e-15 0)
(3 -9.34213e-16 0)
(3 1.48126e-15 0)
(3 3.53357e-15 0)
(3 2.38128e-15 0)
(3 1.60316e-15 0)
(3 8.19457e-16 0)
(3 1.17861e-15 0)
(3 1.37654e-15 0)
(3 1.48682e-15 0)
(3 1.10091e-15 0)
(3 1.68202e-16 0)
(3 1.30338e-16 0)
(3 5.64496e-16 0)
(3 4.69965e-16 0)
(3 4.84214e-16 0)
(3 1.02423e-15 0)
(3 7.85431e-16 0)
(3 -6.26681e-16 0)
(3 -1.50443e-15 0)
(3 -3.78019e-17 0)
(3 6.15018e-17 0)
(3 -6.005e-16 0)
(3 -5.50809e-16 0)
(3 -4.24495e-16 0)
(3 -3.63189e-16 0)
(3 -3.71435e-16 0)
(3 -7.36022e-16 0)
(3 -8.56908e-16 0)
(3 -7.82981e-16 0)
(3 -4.34333e-16 0)
(3 9.72499e-16 0)
(3 1.80558e-15 0)
(3 1.25503e-15 0)
(3 6.26166e-16 0)
(3 3.11657e-16 0)
(3 1.0055e-16 0)
(3 1.25879e-15 0)
(3 2.03519e-15 0)
(3 2.90578e-15 0)
(3 1.36202e-15 0)
(3 1.43092e-16 0)
(3 -6.25815e-16 0)
(3 -5.71571e-16 0)
(3 2.50335e-16 0)
(3 4.58262e-16 0)
(3 1.49896e-16 0)
(3 1.77277e-16 0)
(3 2.47346e-16 0)
(3 2.46813e-16 0)
(3 4.35956e-16 0)
(3 1.01507e-15 0)
(3 1.23283e-15 0)
(3 2.24963e-15 0)
(3 3.81849e-15 0)
(3 3.95252e-15 0)
(3 3.38939e-15 0)
(3 2.0916e-15 0)
(3 1.31285e-15 0)
(3 9.72322e-16 0)
(3 7.78126e-16 0)
(3 8.99472e-16 0)
(3 1.02873e-15 0)
(3 1.6503e-15 0)
(3 2.02289e-15 0)
(3 2.74773e-15 0)
(3 1.58843e-15 0)
(3 1.30214e-15 0)
(3 7.82068e-16 0)
(3 -4.72078e-16 0)
(3 -1.42274e-15 0)
(3 -6.27077e-16 0)
(3 -5.37333e-18 0)
(3 5.59938e-16 0)
(3 7.59251e-16 0)
(3 -1.19059e-16 0)
(3 -8.31074e-16 0)
(3 -1.50407e-15 0)
(3 -1.82996e-15 0)
(3 -1.66212e-15 0)
(3 -1.91227e-15 0)
(3 -3.40684e-15 0)
(3 -3.89527e-15 0)
(3 -3.04672e-15 0)
(3 -1.68029e-15 0)
(3 -1.22606e-15 0)
(3 -3.71073e-16 0)
(3 -1.19173e-15 0)
(3 -2.28113e-15 0)
(3 -1.56432e-15 0)
(3 -1.61238e-15 0)
(3 -1.76961e-15 0)
(3 -1.77451e-15 0)
(3 -6.0915e-16 0)
(3 -1.78719e-15 0)
(3 -4.17024e-15 0)
(3 -4.79411e-15 0)
(3 -3.54751e-15 0)
(3 4.2286e-16 0)
(3 2.45189e-15 0)
(3 1.04026e-15 0)
(3 2.78683e-16 0)
(3 2.05107e-16 0)
(3 8.06837e-16 0)
(3 1.41577e-15 0)
(3 1.94784e-15 0)
(3 1.7243e-15 0)
(3 1.92078e-15 0)
(3 2.10358e-15 0)
(3 1.76549e-15 0)
(3 1.64853e-15 0)
(3 1.79267e-15 0)
(3 1.98269e-15 0)
(3 9.13446e-16 0)
(3 -2.31856e-16 0)
(3 -1.06947e-15 0)
(3 -1.80477e-16 0)
(3 -2.85991e-16 0)
(3 -3.94529e-16 0)
(3 -5.18741e-16 0)
(3 -3.42709e-16 0)
(3 -5.44727e-16 0)
(3 -3.03666e-16 0)
(3 -3.51289e-16 0)
(3 -9.94416e-16 0)
(3 -1.01031e-15 0)
(3 -3.87946e-16 0)
(3 1.47708e-15 0)
(3 2.49822e-15 0)
(3 1.42486e-15 0)
(3 1.90703e-15 0)
(3 1.80406e-15 0)
(3 2.00163e-15 0)
(3 1.63791e-15 0)
(3 1.14202e-15 0)
(3 8.84105e-16 0)
(3 5.07643e-17 0)
(3 -2.60816e-16 0)
(3 -8.20555e-16 0)
(3 -1.20141e-15 0)
(3 -5.03877e-16 0)
(3 -4.78975e-16 0)
(3 -5.11771e-16 0)
(3 -9.12394e-16 0)
(3 -1.13438e-15 0)
(3 -6.20914e-16 0)
(3 -6.94591e-16 0)
(3 -4.66857e-16 0)
(3 -3.71501e-17 0)
(3 7.09e-16 0)
(3 1.67258e-15 0)
(3 1.29564e-15 0)
(3 4.13671e-16 0)
(3 -1.69778e-16 0)
(3 -8.55484e-16 0)
(3 -4.5911e-16 0)
(3 3.17467e-16 0)
(3 5.60471e-16 0)
(3 2.26589e-16 0)
(3 5.7468e-16 0)
(3 1.31037e-15 0)
(3 1.4217e-15 0)
(3 1.62017e-16 0)
(3 6.61837e-16 0)
(3 1.03056e-15 0)
(3 4.26772e-16 0)
(3 -3.13566e-16 0)
(3 -1.32656e-15 0)
(3 -1.04189e-15 0)
(3 -1.15684e-15 0)
(3 -8.32002e-16 0)
(3 -6.072e-16 0)
(3 -8.78307e-16 0)
(3 -1.39788e-15 0)
(3 -1.65198e-15 0)
(3 -1.79657e-15 0)
(3 -1.86735e-15 0)
(3 -2.20116e-15 0)
(3 -1.88044e-15 0)
(3 -1.43819e-15 0)
(3 -9.31171e-16 0)
(3 -6.19397e-16 0)
(3 -6.12085e-16 0)
(3 -2.46519e-15 0)
(3 -4.73992e-15 0)
(3 -3.43491e-15 0)
(3 -3.50969e-15 0)
(3 -3.0518e-15 0)
(3 -2.86973e-15 0)
(3 -3.133e-15 0)
(3 -3.31286e-15 0)
(3 -3.49881e-15 0)
(3 -4.30383e-15 0)
(3 -3.18828e-15 0)
(3 -5.48318e-16 0)
(3 -4.08121e-16 0)
(3 2.28746e-17 0)
(3 1.42353e-15 0)
(3 1.27915e-15 0)
(3 4.64718e-16 0)
(3 4.8129e-16 0)
(3 9.53974e-16 0)
(3 1.01081e-15 0)
(3 1.61295e-15 0)
(3 1.56116e-15 0)
(3 2.5392e-16 0)
(3 -3.19461e-16 0)
(3 1.4329e-16 0)
(3 2.94911e-16 0)
(3 -4.71066e-16 0)
(3 -1.62585e-15 0)
(3 3.85996e-16 0)
(3 1.6957e-16 0)
(3 -3.6814e-16 0)
(3 -4.5963e-16 0)
(3 -9.15333e-16 0)
(3 -1.1633e-15 0)
(3 -1.20699e-15 0)
(3 -7.3538e-16 0)
(3 -3.4227e-16 0)
(3 -7.68932e-16 0)
(3 -1.06911e-15 0)
(3 1.10731e-16 0)
(3 8.47795e-16 0)
(3 1.17759e-15 0)
(3 9.92152e-16 0)
(3 7.37429e-16 0)
(3 2.36603e-15 0)
(3 2.6298e-15 0)
(3 1.98231e-15 0)
(3 3.2231e-16 0)
(3 -5.7282e-16 0)
(3 5.71744e-16 0)
(3 1.33617e-15 0)
(3 1.66745e-15 0)
(3 1.12609e-15 0)
(3 3.8538e-17 0)
(3 -8.26343e-17 0)
(3 -5.8378e-17 0)
(3 -9.38061e-16 0)
(3 -1.62887e-15 0)
(3 -2.17826e-15 0)
(3 -2.28875e-15 0)
(3 -2.06204e-15 0)
(3 -2.18423e-15 0)
(3 -1.70796e-15 0)
(3 -1.67529e-15 0)
(3 -2.70683e-15 0)
(3 -3.20956e-15 0)
(3 -3.25209e-15 0)
(3 -2.85654e-15 0)
(3 -3.35254e-16 0)
(3 1.74379e-15 0)
(3 1.77726e-15 0)
(3 9.92553e-16 0)
(3 7.04202e-16 0)
(3 8.99332e-16 0)
(3 8.13164e-16 0)
(3 -2.53557e-18 0)
(3 7.7835e-16 0)
(3 1.45215e-15 0)
(3 6.39066e-16 0)
(3 4.22578e-16 0)
(3 4.88777e-16 0)
(3 -1.29208e-15 0)
(3 -1.76397e-15 0)
(3 -1.55092e-15 0)
(3 -1.39912e-15 0)
(3 -1.29495e-15 0)
(3 -1.05552e-15 0)
(3 -1.54372e-15 0)
(3 -1.70892e-15 0)
(3 -1.12434e-15 0)
(3 -1.0311e-15 0)
(3 -4.24564e-16 0)
(3 -5.22734e-16 0)
(3 -8.50159e-16 0)
(3 -9.29714e-16 0)
(3 -1.27511e-15 0)
(3 -1.76803e-15 0)
(3 -3.64359e-15 0)
(3 -4.75101e-15 0)
(3 -5.33191e-15 0)
(3 -5.06526e-15 0)
(3 -4.87363e-15 0)
(3 -5.34966e-15 0)
(3 -4.08519e-15 0)
(3 -3.1656e-15 0)
(3 -1.67629e-15 0)
(3 -1.27418e-15 0)
(3 -1.19392e-15 0)
(3 -1.1576e-15 0)
(3 9.7296e-16 0)
(3 2.89834e-15 0)
(3 2.61292e-15 0)
(3 6.40931e-16 0)
(3 5.63671e-16 0)
(3 1.23256e-15 0)
(3 1.35038e-15 0)
(3 5.4453e-17 0)
(3 -9.41712e-16 0)
(3 -7.27884e-16 0)
(3 -5.49707e-16 0)
(3 -2.23183e-16 0)
(3 -1.11196e-15 0)
(3 -1.65649e-15 0)
(3 -2.79321e-15 0)
(3 -5.65494e-16 0)
(3 5.6214e-17 0)
(3 4.04733e-16 0)
(3 5.81907e-16 0)
(3 3.57396e-16 0)
(3 -8.79948e-16 0)
(3 -5.41803e-16 0)
(3 -2.65263e-17 0)
(3 -1.85579e-17 0)
(3 -3.26079e-16 0)
(3 -3.48799e-16 0)
(3 7.24391e-16 0)
(3 1.6981e-15 0)
(3 1.70781e-15 0)
(3 1.33657e-15 0)
(3 1.1106e-15 0)
(3 1.56933e-15 0)
(3 1.51588e-15 0)
(3 1.51036e-15 0)
(3 9.80414e-16 0)
(3 1.10297e-15 0)
(3 1.27353e-15 0)
(3 2.0773e-15 0)
(3 2.83054e-15 0)
(3 3.08173e-15 0)
(3 7.77122e-16 0)
(3 4.12195e-16 0)
(3 1.80294e-16 0)
(3 -1.03736e-15 0)
(3 -2.47227e-15 0)
(3 -3.3761e-15 0)
(3 -3.52369e-15 0)
(3 -2.22563e-15 0)
(3 -1.741e-15 0)
(3 -1.85832e-15 0)
(3 -3.45836e-15 0)
(3 -4.83678e-15 0)
(3 -4.67771e-15 0)
(3 -3.63532e-15 0)
(3 -1.3053e-15 0)
(3 -6.85592e-16 0)
(3 -2.9757e-16 0)
(3 -8.86141e-16 0)
(3 5.25958e-16 0)
(3 3.4829e-15 0)
(3 4.10672e-15 0)
(3 3.43234e-15 0)
(3 1.96149e-15 0)
(3 1.45524e-15 0)
(3 1.25464e-15 0)
(3 6.04803e-16 0)
(3 2.42012e-16 0)
(3 9.87595e-16 0)
(3 1.07281e-15 0)
(3 -2.41671e-16 0)
(3 -1.343e-15 0)
(3 -2.19776e-15 0)
(3 -2.39158e-15 0)
(3 -1.83713e-15 0)
(3 -1.61737e-15 0)
(3 -1.75951e-15 0)
(3 -1.33124e-15 0)
(3 -4.08001e-16 0)
(3 -5.6227e-16 0)
(3 -1.32384e-15 0)
(3 -1.74971e-15 0)
(3 -1.8056e-15 0)
(3 -1.41849e-15 0)
(3 -1.29844e-15 0)
(3 -3.13401e-15 0)
(3 -4.02396e-15 0)
(3 -4.03919e-15 0)
(3 -4.07904e-15 0)
(3 -4.73362e-15 0)
(3 -4.72806e-15 0)
(3 -2.82551e-15 0)
(3 -6.29405e-16 0)
(3 -6.37256e-16 0)
(3 -6.76755e-16 0)
(3 -1.34229e-15 0)
(3 -8.14199e-16 0)
(3 2.11556e-15 0)
(3 3.6054e-15 0)
(3 3.3526e-15 0)
(3 6.41149e-16 0)
(3 -4.8724e-16 0)
(3 -7.86141e-16 0)
(3 -2.53683e-16 0)
(3 1.33122e-16 0)
(3 -2.16233e-16 0)
(3 3.12168e-16 0)
(3 1.17732e-15 0)
(3 1.51952e-15 0)
(3 9.78385e-16 0)
(3 1.47733e-15 0)
(3 6.26335e-16 0)
(3 -8.44115e-16 0)
(3 7.32948e-18 0)
(3 2.9199e-16 0)
(3 4.78127e-16 0)
(3 4.74171e-16 0)
(3 3.59577e-16 0)
(3 5.60302e-16 0)
(3 7.85936e-16 0)
(3 5.50484e-16 0)
(3 6.00853e-16 0)
(3 7.29634e-16 0)
(3 5.16372e-16 0)
(3 4.90929e-16 0)
(3 7.73178e-16 0)
(3 1.33206e-15 0)
(3 1.65246e-15 0)
(3 1.47111e-15 0)
(3 6.31047e-16 0)
(3 5.64187e-16 0)
(3 1.49294e-15 0)
(3 1.65958e-15 0)
(3 1.63732e-15 0)
(3 1.71996e-15 0)
(3 2.28935e-15 0)
(3 2.06194e-15 0)
(3 1.00405e-15 0)
(3 -1.70462e-15 0)
(3 -2.99861e-15 0)
(3 -3.20509e-15 0)
(3 -2.25022e-15 0)
(3 -2.06834e-15 0)
(3 -1.07358e-15 0)
(3 -1.76014e-15 0)
(3 -2.08691e-15 0)
(3 -2.81276e-15 0)
(3 -4.18209e-15 0)
(3 -4.51905e-15 0)
(3 -3.24276e-15 0)
(3 -2.0786e-15 0)
(3 -1.19843e-15 0)
(3 -1.64464e-15 0)
(3 -2.27188e-15 0)
(3 -1.78872e-15 0)
(3 -4.01971e-16 0)
(3 1.21615e-15 0)
(3 2.1274e-15 0)
(3 2.01134e-15 0)
(3 1.15479e-15 0)
(3 8.09669e-16 0)
(3 2.30875e-16 0)
(3 4.42217e-17 0)
(3 2.24317e-16 0)
(3 -5.14067e-18 0)
(3 2.5256e-16 0)
(3 1.18898e-16 0)
(3 -8.97794e-16 0)
(3 -2.20775e-15 0)
(3 -3.1476e-15 0)
(3 -2.83789e-15 0)
(3 -1.45939e-15 0)
(3 -3.59111e-16 0)
(3 3.05375e-16 0)
(3 4.80239e-16 0)
(3 -7.84443e-16 0)
(3 -1.42537e-15 0)
(3 -1.06493e-15 0)
(3 -1.15393e-15 0)
(3 -6.68018e-16 0)
(3 -1.21786e-15 0)
(3 -1.8271e-15 0)
(3 -1.57345e-15 0)
(3 -2.07655e-15 0)
(3 -2.58439e-15 0)
(3 -3.1369e-15 0)
(3 -2.48622e-15 0)
(3 -1.42779e-15 0)
(3 7.44878e-16 0)
(3 1.15455e-15 0)
(3 3.34104e-16 0)
(3 -2.49811e-16 0)
(3 4.99106e-16 0)
(3 1.39399e-15 0)
(3 2.73384e-15 0)
(3 1.98734e-15 0)
(3 3.75378e-16 0)
(3 -8.27295e-17 0)
(3 -1.13841e-15 0)
(3 -2.01377e-15 0)
(3 -1.92755e-15 0)
(3 7.60734e-16 0)
(3 1.63065e-15 0)
(3 1.73117e-15 0)
(3 1.42043e-15 0)
(3 1.33599e-15 0)
(3 1.96821e-15 0)
(3 2.01464e-15 0)
(3 1.04011e-15 0)
(3 -2.04933e-16 0)
(3 -1.9276e-16 0)
(3 1.21015e-16 0)
(3 2.32368e-16 0)
(3 5.75587e-16 0)
(3 9.75285e-16 0)
(3 9.59434e-16 0)
(3 1.57568e-15 0)
(3 2.61705e-15 0)
(3 2.61669e-15 0)
(3 2.01082e-15 0)
(3 5.32437e-16 0)
(3 2.35092e-16 0)
(3 1.29548e-15 0)
(3 1.3892e-15 0)
(3 1.64351e-15 0)
(3 1.27424e-15 0)
(3 1.13702e-15 0)
(3 1.10106e-15 0)
(3 1.13581e-15 0)
(3 1.60377e-15 0)
(3 1.1627e-15 0)
(3 6.53427e-16 0)
(3 5.22645e-16 0)
(3 -1.40365e-16 0)
(3 -1.02618e-15 0)
(3 -1.87002e-15 0)
(3 -2.04335e-15 0)
(3 -1.29925e-15 0)
(3 4.57433e-17 0)
(3 1.83265e-16 0)
(3 -6.63725e-17 0)
(3 -1.80915e-15 0)
(3 -3.76156e-15 0)
(3 -4.02755e-15 0)
(3 -2.94577e-15 0)
(3 -2.1974e-15 0)
(3 -9.34649e-16 0)
(3 -8.38104e-16 0)
(3 -1.50314e-15 0)
(3 -2.4183e-15 0)
(3 -2.25163e-15 0)
(3 -1.06854e-15 0)
(3 -1.89699e-16 0)
(3 6.60377e-16 0)
(3 1.04962e-15 0)
(3 8.57774e-16 0)
(3 1.05929e-16 0)
(3 -7.73461e-16 0)
(3 -1.57753e-15 0)
(3 -1.31483e-15 0)
(3 -6.22201e-16 0)
(3 -6.49876e-16 0)
(3 -8.88882e-16 0)
(3 -1.49327e-15 0)
(3 -1.23654e-15 0)
(3 -8.99744e-16 0)
(3 -1.00877e-15 0)
(3 -5.50743e-16 0)
(3 5.45979e-16 0)
(3 1.23174e-16 0)
(3 -4.07565e-16 0)
(3 -5.08033e-17 0)
(3 5.81336e-16 0)
(3 6.50669e-16 0)
(3 4.39111e-16 0)
(3 -2.62374e-16 0)
(3 7.42014e-16 0)
(3 1.62438e-15 0)
(3 1.31065e-15 0)
(3 1.3023e-16 0)
(3 -2.28029e-15 0)
(3 -2.92769e-15 0)
(3 -1.94685e-15 0)
(3 -1.71075e-15 0)
(3 -2.89425e-16 0)
(3 2.68297e-16 0)
(3 1.09509e-15 0)
(3 1.74787e-15 0)
(3 1.45749e-15 0)
(3 7.76733e-16 0)
(3 5.74835e-16 0)
(3 1.14332e-15 0)
(3 1.54267e-15 0)
(3 1.50871e-15 0)
(3 5.99101e-16 0)
(3 -5.06124e-16 0)
(3 -6.83805e-16 0)
(3 4.53981e-16 0)
(3 3.20854e-15 0)
(3 3.40689e-15 0)
(3 2.73462e-15 0)
(3 1.90447e-15 0)
(3 1.90948e-15 0)
(3 2.46606e-15 0)
(3 1.87025e-15 0)
(3 -8.50577e-17 0)
(3 4.14524e-16 0)
(3 6.35883e-16 0)
(3 9.56766e-16 0)
(3 1.14428e-15 0)
(3 5.80443e-16 0)
(3 6.17842e-16 0)
(3 5.46617e-16 0)
(3 1.09337e-15 0)
(3 1.89291e-15 0)
(3 3.13527e-15 0)
(3 2.1429e-15 0)
(3 5.66664e-16 0)
(3 7.13651e-16 0)
(3 1.47968e-15 0)
(3 2.22391e-15 0)
(3 3.05661e-15 0)
(3 2.79876e-15 0)
(3 1.89827e-15 0)
(3 6.74629e-16 0)
(3 -1.32388e-16 0)
(3 3.68912e-16 0)
(3 1.38712e-16 0)
(3 -2.47368e-16 0)
(3 -2.53391e-17 0)
(3 9.63907e-17 0)
(3 3.5477e-16 0)
(3 -4.44709e-17 0)
(3 -2.50191e-16 0)
(3 2.5664e-16 0)
(3 5.18555e-16 0)
(3 -3.48787e-17 0)
(3 -1.64649e-15 0)
(3 -2.62583e-15 0)
(3 -2.38035e-15 0)
(3 -2.32319e-15 0)
(3 -2.21018e-15 0)
(3 -1.35633e-15 0)
(3 -3.29972e-16 0)
(3 -8.90084e-16 0)
(3 -1.63422e-15 0)
(3 -1.46842e-15 0)
(3 -1.33621e-15 0)
(3 -1.54168e-15 0)
(3 -4.35602e-16 0)
(3 1.04733e-15 0)
(3 1.06854e-15 0)
(3 7.96066e-16 0)
(3 -3.77737e-16 0)
(3 -7.83478e-16 0)
(3 -6.21199e-16 0)
(3 -2.75042e-17 0)
(3 -6.65573e-16 0)
(3 -9.6584e-16 0)
(3 -3.83215e-17 0)
(3 1.97625e-15 0)
(3 2.35413e-15 0)
(3 2.62074e-15 0)
(3 2.34368e-15 0)
(3 1.88804e-15 0)
(3 3.16806e-16 0)
(3 -9.62654e-16 0)
(3 -6.08617e-16 0)
(3 -6.75774e-16 0)
(3 -8.65396e-16 0)
(3 -1.88585e-15 0)
(3 -2.4419e-15 0)
(3 -1.88225e-15 0)
(3 -7.30591e-16 0)
(3 3.55462e-16 0)
(3 -9.64521e-16 0)
(3 -1.29071e-15 0)
(3 -2.0175e-15 0)
(3 -1.73715e-15 0)
(3 -1.32844e-15 0)
(3 -2.41859e-16 0)
(3 5.4126e-16 0)
(3 1.03039e-15 0)
(3 3.44829e-16 0)
(3 8.60177e-17 0)
(3 -1.21893e-15 0)
(3 -2.53952e-15 0)
(3 -4.4423e-16 0)
(3 1.99699e-15 0)
(3 2.35049e-15 0)
(3 1.97782e-15 0)
(3 1.08663e-15 0)
(3 5.22061e-16 0)
(3 1.78363e-15 0)
(3 2.85828e-15 0)
(3 3.07518e-15 0)
(3 2.75185e-15 0)
(3 1.87091e-15 0)
(3 1.228e-15 0)
(3 1.48605e-15 0)
(3 1.8677e-15 0)
(3 1.4931e-16 0)
(3 1.16955e-16 0)
(3 -3.91561e-17 0)
(3 2.83177e-16 0)
(3 6.4069e-16 0)
(3 1.09576e-16 0)
(3 -6.91048e-17 0)
(3 6.3942e-17 0)
(3 8.74339e-17 0)
(3 8.58494e-16 0)
(3 8.05045e-16 0)
(3 3.82389e-16 0)
(3 2.73484e-16 0)
(3 8.47089e-16 0)
(3 1.23635e-15 0)
(3 1.31221e-15 0)
(3 1.66744e-15 0)
(3 1.072e-15 0)
(3 -2.22177e-18 0)
(3 -9.64053e-16 0)
(3 -1.44082e-15 0)
(3 -4.25628e-16 0)
(3 5.71435e-16 0)
(3 5.62115e-16 0)
(3 7.40517e-16 0)
(3 5.77263e-16 0)
(3 -4.27848e-16 0)
(3 -8.86319e-16 0)
(3 -4.14645e-16 0)
(3 -2.62634e-16 0)
(3 3.95508e-17 0)
(3 -2.87554e-17 0)
(3 -3.79572e-16 0)
(3 -1.37418e-15 0)
(3 -1.60711e-15 0)
(3 -1.25719e-15 0)
(3 -1.25338e-15 0)
(3 -1.63281e-15 0)
(3 -1.14235e-15 0)
(3 -1.60941e-15 0)
(3 -1.47533e-15 0)
(3 -2.20133e-15 0)
(3 -3.23283e-15 0)
(3 -3.58473e-15 0)
(3 -2.98281e-15 0)
(3 -1.69153e-15 0)
(3 -1.27422e-15 0)
(3 -1.91801e-15 0)
(3 -2.07051e-15 0)
(3 -9.422e-16 0)
(3 -4.58336e-17 0)
(3 -1.1167e-15 0)
(3 -1.38602e-15 0)
(3 -7.64797e-16 0)
(3 1.56537e-15 0)
(3 3.22274e-15 0)
(3 4.18426e-15 0)
(3 4.64123e-15 0)
(3 4.01897e-15 0)
(3 2.63632e-15 0)
(3 8.32241e-16 0)
(3 6.093e-16 0)
(3 -3.30379e-16 0)
(3 -1.64031e-15 0)
(3 -1.66867e-15 0)
(3 -2.00452e-15 0)
(3 -2.12184e-15 0)
(3 -1.84575e-15 0)
(3 -1.62295e-15 0)
(3 -1.20775e-15 0)
(3 -3.01026e-16 0)
(3 6.16918e-17 0)
(3 2.83495e-16 0)
(3 -1.40281e-17 0)
(3 3.1052e-16 0)
(3 2.37795e-16 0)
(3 1.51712e-17 0)
(3 1.94408e-16 0)
(3 9.48075e-17 0)
(3 -6.47415e-16 0)
(3 -2.01896e-15 0)
(3 -2.39124e-15 0)
(3 -2.11324e-15 0)
(3 -1.16442e-15 0)
(3 -4.53813e-16 0)
(3 -2.74076e-16 0)
(3 -4.32316e-16 0)
(3 1.36066e-16 0)
(3 1.12442e-16 0)
(3 -4.55558e-16 0)
(3 -2.11733e-16 0)
(3 -1.43036e-16 0)
(3 -6.85713e-16 0)
(3 -1.16543e-15 0)
(3 -1.01805e-15 0)
(3 -8.83748e-16 0)
(3 -1.01966e-16 0)
(3 -2.56915e-16 0)
(3 -4.99223e-16 0)
(3 -7.03278e-16 0)
(3 -4.04497e-16 0)
(3 -1.85824e-16 0)
(3 -6.906e-17 0)
(3 6.76456e-16 0)
(3 7.53029e-16 0)
(3 6.83308e-16 0)
(3 -1.03099e-16 0)
(3 1.70079e-17 0)
(3 -1.79976e-16 0)
(3 3.48726e-16 0)
(3 3.06883e-16 0)
(3 1.29351e-16 0)
(3 1.55899e-16 0)
(3 -1.82951e-16 0)
(3 -1.03451e-15 0)
(3 -1.26303e-15 0)
(3 -1.56292e-15 0)
(3 -1.49235e-15 0)
(3 -5.92306e-16 0)
(3 4.66349e-16 0)
(3 3.27504e-16 0)
(3 -7.7745e-16 0)
(3 -1.7475e-15 0)
(3 -1.77965e-15 0)
(3 -6.22576e-16 0)
(3 5.11368e-16 0)
(3 8.35878e-16 0)
(3 1.17585e-15 0)
(3 1.06555e-15 0)
(3 7.62142e-16 0)
(3 1.22816e-15 0)
(3 6.86506e-16 0)
(3 -3.41124e-16 0)
(3 -9.26111e-16 0)
(3 -8.06789e-16 0)
(3 -7.32964e-16 0)
(3 -5.88132e-16 0)
(3 -1.31257e-15 0)
(3 -2.73151e-15 0)
(3 -3.41533e-15 0)
(3 -3.36845e-15 0)
(3 -3.27052e-15 0)
(3 -2.75875e-15 0)
(3 -2.54631e-15 0)
(3 -2.39536e-15 0)
(3 -1.9124e-15 0)
(3 -1.84085e-16 0)
(3 -6.02693e-16 0)
(3 -6.4297e-16 0)
(3 1.68927e-15 0)
(3 2.62643e-15 0)
(3 3.36935e-15 0)
(3 4.60224e-15 0)
(3 3.76498e-15 0)
(3 2.35345e-15 0)
(3 1.08411e-15 0)
(3 4.6341e-16 0)
(3 4.41795e-16 0)
(3 -5.55001e-16 0)
(3 -1.46424e-15 0)
(3 -1.20339e-15 0)
(3 -9.68718e-16 0)
(3 -1.4433e-15 0)
(3 -5.95939e-16 0)
(3 5.75046e-16 0)
(3 1.76675e-16 0)
(3 9.54426e-16 0)
(3 1.30952e-15 0)
(3 1.37408e-15 0)
(3 1.44156e-15 0)
(3 1.50439e-15 0)
(3 1.09223e-15 0)
(3 1.16309e-15 0)
(3 9.63741e-16 0)
(3 8.02645e-16 0)
(3 -1.4462e-16 0)
(3 -8.79276e-16 0)
(3 -8.47216e-16 0)
(3 -1.54927e-15 0)
(3 -2.13852e-15 0)
(3 -2.09172e-15 0)
(3 -1.39004e-15 0)
(3 4.32702e-16 0)
(3 3.69362e-16 0)
(3 -3.53959e-16 0)
(3 6.96326e-18 0)
(3 -2.38116e-17 0)
(3 3.07223e-16 0)
(3 -1.8166e-15 0)
(3 -3.1616e-15 0)
(3 -3.89262e-15 0)
(3 -4.20162e-15 0)
(3 -4.14963e-17 0)
(3 -2.20329e-16 0)
(3 -3.5203e-16 0)
(3 -3.11417e-16 0)
(3 -2.68441e-16 0)
(3 1.16955e-16 0)
(3 8.47939e-17 0)
(3 -1.45341e-16 0)
(3 -7.99125e-17 0)
(3 -2.25435e-16 0)
(3 -1.9236e-16 0)
(3 6.02362e-16 0)
(3 3.43283e-16 0)
(3 -7.35695e-16 0)
(3 -5.57307e-16 0)
(3 -3.50324e-16 0)
(3 -1.6451e-16 0)
(3 -2.11719e-16 0)
(3 -7.40692e-16 0)
(3 -7.47585e-16 0)
(3 -1.38277e-15 0)
(3 -2.09655e-15 0)
(3 -1.62843e-15 0)
(3 -9.81177e-16 0)
(3 -9.6321e-16 0)
(3 -1.3767e-15 0)
(3 -9.10156e-16 0)
(3 -1.81939e-16 0)
(3 3.83567e-16 0)
(3 3.01458e-16 0)
(3 -9.89755e-17 0)
(3 -3.11397e-17 0)
(3 -3.59942e-17 0)
(3 3.97759e-16 0)
(3 5.45043e-16 0)
(3 7.50909e-16 0)
(3 5.71386e-16 0)
(3 2.42181e-16 0)
(3 1.65649e-16 0)
(3 9.25932e-16 0)
(3 -2.41565e-16 0)
(3 -2.61812e-15 0)
(3 -3.21687e-15 0)
(3 -3.16092e-15 0)
(3 -2.67492e-15 0)
(3 -2.20625e-15 0)
(3 -2.68246e-15 0)
(3 -1.96374e-15 0)
(3 -9.18594e-16 0)
(3 -5.39299e-16 0)
(3 9.74907e-17 0)
(3 1.61853e-15 0)
(3 1.5518e-15 0)
(3 1.58478e-15 0)
(3 2.02912e-15 0)
(3 2.02435e-15 0)
(3 2.26948e-15 0)
(3 2.07264e-15 0)
(3 1.72105e-15 0)
(3 2.41661e-16 0)
(3 6.05828e-16 0)
(3 -9.23149e-18 0)
(3 2.02779e-16 0)
(3 3.78348e-16 0)
(3 -8.11412e-16 0)
(3 -1.57372e-15 0)
(3 -2.23182e-15 0)
(3 -2.0569e-15 0)
(3 -1.61588e-15 0)
(3 -1.09589e-15 0)
(3 -1.96998e-16 0)
(3 6.20938e-17 0)
(3 4.29961e-17 0)
(3 3.26526e-16 0)
(3 6.46889e-16 0)
(3 5.44146e-16 0)
(3 3.38585e-16 0)
(3 4.0603e-16 0)
(3 3.82462e-17 0)
(3 -2.97163e-16 0)
(3 -7.51127e-16 0)
(3 -3.99892e-16 0)
(3 -6.54057e-16 0)
(3 -1.0175e-15 0)
(3 -8.255e-16 0)
(3 1.09172e-15 0)
(3 1.94119e-15 0)
(3 7.8726e-16 0)
(3 7.60127e-18 0)
(3 9.32075e-17 0)
(3 -2.09665e-19 0)
(3 -9.09602e-16 0)
(3 -1.45774e-15 0)
(3 -2.58926e-15 0)
(3 -3.41815e-15 0)
(3 -2.52141e-15 0)
(3 4.53158e-16 0)
(3 3.39338e-16 0)
(3 2.52647e-17 0)
(3 1.16982e-16 0)
(3 3.7363e-16 0)
(3 7.16569e-16 0)
(3 -2.94252e-16 0)
(3 -9.08604e-16 0)
(3 -8.45194e-16 0)
(3 -8.4576e-16 0)
(3 -3.83619e-16 0)
(3 -2.88619e-16 0)
(3 -7.06424e-16 0)
(3 -1.42389e-15 0)
(3 4.27353e-16 0)
(3 7.77707e-16 0)
(3 3.2267e-17 0)
(3 3.02154e-16 0)
(3 3.66254e-16 0)
(3 -2.93892e-16 0)
(3 -6.97769e-16 0)
(3 -8.48669e-16 0)
(3 -6.54198e-16 0)
(3 -8.84624e-16 0)
(3 -1.99349e-15 0)
(3 -8.10173e-16 0)
(3 2.66905e-17 0)
(3 2.18663e-16 0)
(3 4.31125e-16 0)
(3 1.27714e-16 0)
(3 2.30602e-16 0)
(3 2.26846e-16 0)
(3 7.32109e-16 0)
(3 6.57272e-16 0)
(3 -5.91208e-18 0)
(3 -2.51344e-16 0)
(3 1.02347e-15 0)
(3 1.32065e-15 0)
(3 1.08883e-15 0)
(3 1.2241e-15 0)
(3 6.35174e-18 0)
(3 -2.41909e-15 0)
(3 -3.98991e-15 0)
(3 -3.56012e-15 0)
(3 -1.98971e-15 0)
(3 -6.60799e-16 0)
(3 -3.12772e-16 0)
(3 -6.90974e-16 0)
(3 -5.59683e-16 0)
(3 3.84273e-16 0)
(3 7.55381e-16 0)
(3 5.28715e-16 0)
(3 5.24149e-16 0)
(3 8.60529e-16 0)
(3 2.03981e-15 0)
(3 2.9423e-15 0)
(3 2.61523e-15 0)
(3 3.06279e-15 0)
(3 3.48246e-15 0)
(3 2.67402e-15 0)
(3 2.15531e-15 0)
(3 1.76802e-15 0)
(3 1.36358e-15 0)
(3 1.18087e-15 0)
(3 -8.33454e-16 0)
(3 -1.89462e-15 0)
(3 -2.26122e-15 0)
(3 -2.36844e-15 0)
(3 -2.8055e-15 0)
(3 -2.39451e-15 0)
(3 -4.10481e-16 0)
(3 2.51156e-16 0)
(3 8.10504e-16 0)
(3 5.66206e-16 0)
(3 -9.21214e-17 0)
(3 -1.33717e-15 0)
(3 -1.23217e-15 0)
(3 -5.9294e-16 0)
(3 -9.25465e-16 0)
(3 -1.54059e-15 0)
(3 -2.03718e-15 0)
(3 -2.15244e-15 0)
(3 -1.20869e-15 0)
(3 3.1849e-18 0)
(3 7.50284e-16 0)
(3 1.51572e-15 0)
(3 1.29678e-15 0)
(3 1.3544e-15 0)
(3 7.72283e-16 0)
(3 -2.48579e-16 0)
(3 -1.27662e-15 0)
(3 -1.22085e-15 0)
(3 -9.4127e-16 0)
(3 -5.42631e-16 0)
(3 -3.91145e-16 0)
(3 -5.16299e-16 0)
(3 -9.71401e-17 0)
(3 -2.68977e-16 0)
(3 -1.06644e-16 0)
(3 -1.92121e-16 0)
(3 -1.40254e-16 0)
(3 1.41923e-16 0)
(3 8.30427e-17 0)
(3 2.26928e-16 0)
(3 2.93153e-16 0)
(3 3.24401e-18 0)
(3 -4.9929e-17 0)
(3 -7.66765e-16 0)
(3 -2.27507e-15 0)
(3 -2.34116e-15 0)
(3 -5.81147e-16 0)
(3 -3.99919e-16 0)
(3 -1.04287e-15 0)
(3 -4.52428e-16 0)
(3 8.012e-16 0)
(3 4.49377e-16 0)
(3 6.39962e-16 0)
(3 4.82523e-17 0)
(3 -3.28273e-16 0)
(3 -9.81313e-16 0)
(3 -2.72411e-15 0)
(3 -1.16113e-15 0)
(3 -1.1283e-15 0)
(3 -1.07921e-15 0)
(3 -7.39973e-16 0)
(3 -6.23074e-17 0)
(3 5.67971e-16 0)
(3 1.38191e-15 0)
(3 2.00688e-15 0)
(3 1.74675e-15 0)
(3 8.58667e-16 0)
(3 -6.82215e-16 0)
(3 3.31289e-16 0)
(3 1.93298e-15 0)
(3 2.35074e-15 0)
(3 2.58558e-15 0)
(3 2.46907e-15 0)
(3 -5.86907e-17 0)
(3 -2.91561e-15 0)
(3 -2.89032e-15 0)
(3 -2.3765e-15 0)
(3 -6.00354e-16 0)
(3 4.66466e-16 0)
(3 4.58998e-16 0)
(3 6.28771e-16 0)
(3 1.79059e-16 0)
(3 -1.0205e-16 0)
(3 2.19713e-16 0)
(3 7.01924e-16 0)
(3 8.49411e-16 0)
(3 5.3372e-16 0)
(3 9.11051e-16 0)
(3 1.16987e-15 0)
(3 9.4664e-16 0)
(3 5.99989e-16 0)
(3 1.09096e-15 0)
(3 2.88586e-15 0)
(3 2.82975e-15 0)
(3 7.9274e-16 0)
(3 2.42175e-16 0)
(3 -7.81416e-17 0)
(3 -6.72866e-16 0)
(3 -1.42975e-15 0)
(3 -1.6607e-15 0)
(3 -1.99476e-15 0)
(3 -1.19273e-15 0)
(3 5.63243e-16 0)
(3 2.18688e-15 0)
(3 3.49592e-15 0)
(3 1.8937e-15 0)
(3 -1.95508e-15 0)
(3 -2.60792e-15 0)
(3 -1.48124e-15 0)
(3 -1.14497e-15 0)
(3 -8.71108e-16 0)
(3 -1.00145e-15 0)
(3 -6.33151e-16 0)
(3 -2.49294e-16 0)
(3 4.37199e-16 0)
(3 1.74857e-15 0)
(3 2.60578e-15 0)
(3 2.28194e-15 0)
(3 2.3501e-15 0)
(3 2.99673e-15 0)
(3 2.3274e-15 0)
(3 -4.05936e-16 0)
(3 -9.44015e-16 0)
(3 -6.67793e-16 0)
(3 1.39397e-16 0)
(3 3.60735e-16 0)
(3 1.1522e-15 0)
(3 1.35796e-15 0)
(3 -2.85518e-18 0)
(3 -1.27022e-16 0)
(3 2.79486e-16 0)
(3 -1.4462e-16 0)
(3 -3.40789e-16 0)
(3 -7.08642e-16 0)
(3 -6.16814e-16 0)
(3 -1.76983e-16 0)
(3 3.89319e-16 0)
(3 9.65921e-16 0)
(3 1.13015e-15 0)
(3 2.99166e-16 0)
(3 -4.90626e-16 0)
(3 -2.87588e-17 0)
(3 2.42492e-16 0)
(3 1.45736e-16 0)
(3 -9.88026e-17 0)
(3 1.56211e-16 0)
(3 -4.78117e-17 0)
(3 1.34385e-15 0)
(3 1.72861e-15 0)
(3 1.39763e-15 0)
(3 -2.04005e-16 0)
(3 -1.91543e-15 0)
(3 -2.12564e-15 0)
(3 -1.60012e-15 0)
(3 -9.33219e-16 0)
(3 -4.63101e-16 0)
(3 -6.66968e-16 0)
(3 -6.13181e-16 0)
(3 -3.28725e-16 0)
(3 3.93745e-16 0)
(3 4.10744e-16 0)
(3 1.46026e-16 0)
(3 -4.21145e-16 0)
(3 -9.12674e-16 0)
(3 -7.35758e-17 0)
(3 1.00343e-15 0)
(3 1.88386e-15 0)
(3 2.20841e-15 0)
(3 1.80479e-15 0)
(3 5.91419e-16 0)
(3 1.06094e-16 0)
(3 -3.43693e-16 0)
(3 -1.48953e-15 0)
(3 -2.4959e-15 0)
(3 -2.63769e-15 0)
(3 -1.27811e-15 0)
(3 -1.36703e-15 0)
(3 -1.71585e-15 0)
(3 -5.40489e-16 0)
(3 -2.22826e-17 0)
(3 1.02812e-15 0)
(3 9.7681e-16 0)
(3 1.31821e-15 0)
(3 1.128e-15 0)
(3 1.0649e-15 0)
(3 -3.90061e-16 0)
(3 -1.38504e-15 0)
(3 -6.82308e-16 0)
(3 1.26729e-15 0)
(3 1.4304e-15 0)
(3 -8.4407e-17 0)
(3 -2.91696e-16 0)
(3 1.54368e-16 0)
(3 -4.20181e-16 0)
(3 -1.01992e-15 0)
(3 -1.96954e-15 0)
(3 -1.89053e-15 0)
(3 -1.85172e-15 0)
(3 -1.82535e-15 0)
(3 -1.1317e-15 0)
(3 -1.01049e-15 0)
(3 -1.31259e-15 0)
(3 -1.82265e-15 0)
(3 -1.69652e-15 0)
(3 -1.31473e-15 0)
(3 -1.46493e-15 0)
(3 -1.1744e-15 0)
(3 -2.70246e-16 0)
(3 2.5121e-16 0)
(3 9.14118e-16 0)
(3 3.28991e-15 0)
(3 4.1832e-15 0)
(3 3.88148e-15 0)
(3 3.09188e-15 0)
(3 3.46803e-15 0)
(3 3.05186e-15 0)
(3 1.048e-15 0)
(3 -1.5668e-16 0)
(3 -2.65849e-16 0)
(3 -1.78752e-16 0)
(3 8.80072e-16 0)
(3 1.0016e-15 0)
(3 1.53982e-15 0)
(3 1.65976e-15 0)
(3 -2.73688e-17 0)
(3 4.21011e-16 0)
(3 4.63517e-16 0)
(3 5.92597e-16 0)
(3 7.78905e-16 0)
(3 2.41059e-16 0)
(3 -3.09439e-16 0)
(3 -1.45109e-16 0)
(3 -8.28216e-17 0)
(3 3.14965e-16 0)
(3 2.70649e-17 0)
(3 2.48831e-16 0)
(3 1.27105e-15 0)
(3 1.10344e-15 0)
(3 -7.69104e-16 0)
(3 -8.82926e-16 0)
(3 -5.97475e-16 0)
(3 -5.13425e-16 0)
(3 -1.12251e-16 0)
(3 8.67729e-16 0)
(3 -5.2385e-18 0)
(3 -1.36135e-15 0)
(3 -2.44294e-15 0)
(3 -2.32577e-15 0)
(3 -1.73113e-15 0)
(3 -4.82571e-16 0)
(3 1.6754e-15 0)
(3 2.05658e-15 0)
(3 1.68601e-15 0)
(3 1.27235e-15 0)
(3 9.1402e-16 0)
(3 1.14902e-15 0)
(3 9.21827e-16 0)
(3 6.97742e-16 0)
(3 1.03774e-15 0)
(3 1.41427e-15 0)
(3 1.25299e-15 0)
(3 7.69753e-16 0)
(3 4.7258e-16 0)
(3 9.9449e-16 0)
(3 9.83375e-16 0)
(3 1.224e-15 0)
(3 1.73844e-15 0)
(3 5.00107e-16 0)
(3 -1.55954e-15 0)
(3 -1.95486e-15 0)
(3 -1.77184e-15 0)
(3 -8.84605e-16 0)
(3 -1.11984e-15 0)
(3 -1.05854e-15 0)
(3 -1.45986e-17 0)
(3 8.89074e-17 0)
(3 1.10517e-16 0)
(3 5.81099e-16 0)
(3 9.62655e-16 0)
(3 9.82748e-16 0)
(3 7.94354e-16 0)
(3 5.17412e-16 0)
(3 6.53388e-17 0)
(3 1.62974e-16 0)
(3 1.25639e-16 0)
(3 -5.18544e-16 0)
(3 -9.52163e-16 0)
(3 -9.71509e-16 0)
(3 -6.80551e-16 0)
(3 2.50268e-16 0)
(3 6.15351e-16 0)
(3 4.43045e-16 0)
(3 1.46276e-15 0)
(3 1.28586e-15 0)
(3 -2.76472e-16 0)
(3 -1.57808e-15 0)
(3 -3.14661e-15 0)
(3 -3.30609e-15 0)
(3 -1.70418e-15 0)
(3 -5.79502e-16 0)
(3 -2.954e-16 0)
(3 -3.24393e-16 0)
(3 -5.09704e-16 0)
(3 2.0039e-16 0)
(3 8.71732e-16 0)
(3 1.79734e-15 0)
(3 3.04339e-15 0)
(3 4.1236e-15 0)
(3 2.98436e-15 0)
(3 2.56684e-15 0)
(3 1.9758e-15 0)
(3 1.4763e-15 0)
(3 -4.37315e-17 0)
(3 -6.56618e-16 0)
(3 5.67735e-18 0)
(3 1.14177e-15 0)
(3 2.42154e-16 0)
(3 -1.35853e-16 0)
(3 -7.58351e-16 0)
(3 -5.96721e-16 0)
(3 -2.06133e-16 0)
(3 3.14065e-17 0)
(3 1.81346e-16 0)
(3 5.1316e-16 0)
(3 1.15421e-15 0)
(3 9.25369e-16 0)
(3 6.35689e-16 0)
(3 2.60332e-17 0)
(3 -2.17033e-16 0)
(3 -3.57565e-16 0)
(3 -5.14175e-16 0)
(3 5.60598e-16 0)
(3 1.6079e-15 0)
(3 8.00894e-16 0)
(3 9.67463e-17 0)
(3 -5.81388e-16 0)
(3 -7.60943e-16 0)
(3 -5.31792e-16 0)
(3 -4.04653e-17 0)
(3 3.01187e-18 0)
(3 -4.7008e-16 0)
(3 -2.31199e-15 0)
(3 -2.7085e-15 0)
(3 -2.02896e-15 0)
(3 -1.11654e-15 0)
(3 8.19898e-16 0)
(3 1.55657e-15 0)
(3 2.60596e-15 0)
(3 2.92237e-15 0)
(3 2.91569e-15 0)
(3 1.45561e-15 0)
(3 8.83552e-16 0)
(3 1.01423e-15 0)
(3 1.93139e-15 0)
(3 2.48137e-15 0)
(3 2.8422e-15 0)
(3 1.47266e-15 0)
(3 9.49681e-16 0)
(3 2.03634e-16 0)
(3 -5.00778e-17 0)
(3 1.47832e-16 0)
(3 1.5183e-16 0)
(3 5.53502e-16 0)
(3 3.19878e-16 0)
(3 -5.44357e-16 0)
(3 -7.80272e-16 0)
(3 -3.00166e-16 0)
(3 -3.28871e-16 0)
(3 1.11922e-16 0)
(3 3.67808e-16 0)
(3 5.0394e-16 0)
(3 -3.01432e-16 0)
(3 -1.19664e-15 0)
(3 -1.73015e-15 0)
(3 -1.76091e-15 0)
(3 -1.17622e-15 0)
(3 8.94999e-17 0)