/*--------------------------------*- C++ -*----------------------------------*\
  =========                 |
  \\      /  F ield         | OpenFOAM: The Open Source CFD Toolbox
   \\    /   O peration     | Website:  https://openfoam.org
    \\  /    A nd           | Version:  7
     \\/     M anipulation  |
\*---------------------------------------------------------------------------*/
FoamFile
{
    version     2.0;
    format      ascii;
    class       volVectorField;
    location    "1.6";
    object      U;
}
// * * * * * * * * * * * * * * * * * * * * * * * * * * * * * * * * * * * * * //

dimensions      [0 1 -1 0 0 0 0];

internalField   nonuniform List<vector> 
73728
(
(3 4.29305e-18 0)
(3 -1.8405e-18 0)
(3 -9.45341e-17 0)
(3 -3.38686e-16 0)
(3 -5.64016e-16 0)
(3 -3.97853e-16 0)
(3 4.10654e-16 0)
(3 7.30888e-16 0)
(3 8.54388e-16 0)
(3 6.73588e-16 0)
(3 4.49027e-16 0)
(3 5.47852e-16 0)
(3 -6.10809e-16 0)
(3 -1.44534e-15 0)
(3 -1.62595e-15 0)
(3 -1.42495e-15 0)
(3 -4.05028e-17 0)
(3 3.19652e-16 0)
(3 7.02087e-16 0)
(3 1.15306e-15 0)
(3 3.53868e-16 0)
(3 2.73697e-16 0)
(3 4.62507e-16 0)
(3 -8.70079e-17 0)
(3 -3.60407e-16 0)
(3 -7.41711e-16 0)
(3 -9.6101e-16 0)
(3 -8.78126e-16 0)
(3 -8.68981e-16 0)
(3 -8.35118e-16 0)
(3 7.44288e-16 0)
(3 9.46176e-16 0)
(3 6.0798e-16 0)
(3 2.27958e-16 0)
(3 -6.94272e-17 0)
(3 -3.91432e-16 0)
(3 -8.24874e-18 0)
(3 4.48498e-16 0)
(3 1.63204e-16 0)
(3 -3.70636e-16 0)
(3 -3.03958e-16 0)
(3 -5.40333e-16 0)
(3 -7.89566e-16 0)
(3 -1.0693e-15 0)
(3 -1.70562e-15 0)
(3 -8.44118e-16 0)
(3 -5.77525e-16 0)
(3 -2.83323e-16 0)
(3 3.03704e-16 0)
(3 2.48641e-16 0)
(3 -4.71907e-16 0)
(3 -3.60505e-16 0)
(3 9.19571e-16 0)
(3 9.54737e-16 0)
(3 5.77909e-16 0)
(3 3.58654e-16 0)
(3 5.23313e-16 0)
(3 8.90133e-16 0)
(3 1.28904e-15 0)
(3 1.04758e-15 0)
(3 1.03091e-15 0)
(3 1.04252e-15 0)
(3 3.78138e-16 0)
(3 -8.69459e-17 0)
(3 -2.6498e-16 0)
(3 -6.85955e-16 0)
(3 -7.04154e-16 0)
(3 -2.9998e-16 0)
(3 -2.87481e-18 0)
(3 -8.02974e-17 0)
(3 -3.87555e-16 0)
(3 -1.51544e-16 0)
(3 -7.32519e-17 0)
(3 -4.7889e-16 0)
(3 -4.50696e-16 0)
(3 -4.54575e-16 0)
(3 -6.46436e-16 0)
(3 -4.86211e-16 0)
(3 -3.90395e-16 0)
(3 -3.6741e-16 0)
(3 -3.03506e-16 0)
(3 2.16293e-16 0)
(3 3.64907e-16 0)
(3 9.19282e-16 0)
(3 9.18801e-16 0)
(3 7.41828e-16 0)
(3 4.61373e-16 0)
(3 3.695e-16 0)
(3 1.07642e-15 0)
(3 7.95402e-16 0)
(3 7.06148e-16 0)
(3 9.19427e-16 0)
(3 1.06317e-15 0)
(3 9.36105e-16 0)
(3 2.82726e-16 0)
(3 -2.39843e-16 0)
(3 -4.21753e-17 0)
(3 -9.71967e-17 0)
(3 -5.29076e-16 0)
(3 -3.30685e-16 0)
(3 1.60349e-16 0)
(3 1.04499e-15 0)
(3 1.43196e-15 0)
(3 1.55269e-15 0)
(3 1.01722e-15 0)
(3 5.38609e-16 0)
(3 2.10673e-16 0)
(3 6.51171e-16 0)
(3 5.59519e-16 0)
(3 -4.76146e-16 0)
(3 -7.12867e-16 0)
(3 -6.07106e-16 0)
(3 5.49574e-16 0)
(3 1.07208e-15 0)
(3 1.41962e-15 0)
(3 1.32473e-15 0)
(3 9.69423e-16 0)
(3 2.80326e-16 0)
(3 -9.63695e-17 0)
(3 -7.20633e-16 0)
(3 -1.0975e-15 0)
(3 -9.18316e-16 0)
(3 -4.67144e-16 0)
(3 -2.35287e-16 0)
(3 -2.96476e-16 0)
(3 1.95969e-16 0)
(3 7.43432e-16 0)
(3 1.2666e-16 0)
(3 -4.34477e-16 0)
(3 -2.71303e-16 0)
(3 -6.01505e-16 0)
(3 -1.48885e-15 0)
(3 -9.2978e-16 0)
(3 -1.43951e-16 0)
(3 -6.59206e-16 0)
(3 -1.86892e-15 0)
(3 -2.9232e-15 0)
(3 -3.47357e-15 0)
(3 -3.82306e-15 0)
(3 -3.52946e-15 0)
(3 -1.64551e-15 0)
(3 -3.87133e-16 0)
(3 3.0294e-16 0)
(3 7.12703e-16 0)
(3 9.04672e-16 0)
(3 6.99389e-16 0)
(3 -4.80743e-16 0)
(3 -2.80127e-16 0)
(3 1.63491e-15 0)
(3 1.70116e-15 0)
(3 8.63656e-16 0)
(3 6.6363e-16 0)
(3 6.45523e-16 0)
(3 2.02415e-15 0)
(3 2.14358e-15 0)
(3 1.72817e-15 0)
(3 2.3307e-15 0)
(3 2.8625e-15 0)
(3 2.01587e-15 0)
(3 1.34172e-15 0)
(3 4.65215e-16 0)
(3 -2.06413e-16 0)
(3 -1.82115e-16 0)
(3 1.71967e-16 0)
(3 2.3059e-16 0)
(3 -7.31084e-17 0)
(3 -6.91087e-16 0)
(3 -7.63179e-16 0)
(3 -7.89467e-16 0)
(3 -8.92593e-16 0)
(3 -5.61725e-16 0)
(3 -9.23711e-16 0)
(3 -8.26884e-16 0)
(3 -3.19795e-16 0)
(3 2.35958e-16 0)
(3 7.06263e-16 0)
(3 4.87658e-16 0)
(3 1.04437e-15 0)
(3 1.17175e-15 0)
(3 1.91531e-15 0)
(3 2.80994e-15 0)
(3 2.64683e-15 0)
(3 1.68589e-15 0)
(3 1.742e-15 0)
(3 1.30332e-15 0)
(3 8.70051e-16 0)
(3 7.13389e-16 0)
(3 1.58753e-15 0)
(3 1.26501e-15 0)
(3 6.94065e-16 0)
(3 -1.69992e-16 0)
(3 -1.38442e-15 0)
(3 -2.22703e-17 0)
(3 1.31059e-17 0)
(3 -3.66186e-16 0)
(3 -5.97534e-17 0)
(3 6.72907e-16 0)
(3 9.56471e-16 0)
(3 6.60066e-16 0)
(3 2.47085e-16 0)
(3 -4.45495e-16 0)
(3 -8.1545e-16 0)
(3 -9.69348e-16 0)
(3 -6.28101e-16 0)
(3 -4.58886e-17 0)
(3 3.93401e-16 0)
(3 4.85536e-16 0)
(3 4.54015e-16 0)
(3 3.43984e-16 0)
(3 1.1636e-16 0)
(3 -1.15962e-16 0)
(3 5.39513e-16 0)
(3 7.49564e-16 0)
(3 -8.82411e-18 0)
(3 -3.88925e-16 0)
(3 -5.46796e-16 0)
(3 6.44122e-17 0)
(3 4.56022e-16 0)
(3 1.64136e-15 0)
(3 1.83819e-15 0)
(3 1.4292e-15 0)
(3 1.02786e-15 0)
(3 2.16602e-16 0)
(3 -1.03199e-15 0)
(3 -9.49035e-16 0)
(3 -7.3074e-16 0)
(3 -5.54633e-16 0)
(3 -2.93979e-16 0)
(3 -7.76892e-17 0)
(3 -9.63761e-16 0)
(3 -2.57458e-15 0)
(3 -2.85131e-15 0)
(3 -2.98086e-15 0)
(3 -3.34578e-15 0)
(3 -3.00559e-15 0)
(3 -2.50372e-15 0)
(3 -1.32122e-15 0)
(3 -3.24179e-16 0)
(3 4.9485e-16 0)
(3 1.47161e-15 0)
(3 1.2667e-15 0)
(3 1.54847e-16 0)
(3 -2.36068e-16 0)
(3 -8.74983e-16 0)
(3 -7.50453e-16 0)
(3 -8.50214e-16 0)
(3 -7.05124e-16 0)
(3 -1.73158e-16 0)
(3 1.21023e-15 0)
(3 1.83309e-15 0)
(3 1.86269e-15 0)
(3 2.19557e-15 0)
(3 3.53052e-15 0)
(3 2.74618e-15 0)
(3 2.25893e-15 0)
(3 8.46321e-16 0)
(3 -2.55545e-16 0)
(3 -1.05001e-15 0)
(3 -1.20603e-15 0)
(3 -1.22196e-15 0)
(3 -1.0152e-15 0)
(3 -1.10785e-15 0)
(3 -1.2718e-15 0)
(3 -2.47949e-15 0)
(3 -2.61129e-15 0)
(3 -1.09498e-15 0)
(3 3.05757e-16 0)
(3 2.53909e-16 0)
(3 6.02119e-16 0)
(3 5.9207e-16 0)
(3 6.58905e-16 0)
(3 4.78575e-16 0)
(3 -8.11194e-18 0)
(3 1.50729e-16 0)
(3 9.66653e-16 0)
(3 2.45139e-15 0)
(3 2.67736e-15 0)
(3 2.05953e-15 0)
(3 1.22603e-15 0)
(3 8.42344e-16 0)
(3 6.63351e-16 0)
(3 1.35704e-15 0)
(3 2.1554e-15 0)
(3 2.11321e-15 0)
(3 1.89403e-15 0)
(3 1.96515e-15 0)
(3 1.6729e-15 0)
(3 7.72098e-17 0)
(3 8.77561e-17 0)
(3 2.65896e-16 0)
(3 8.57004e-17 0)
(3 1.29374e-16 0)
(3 6.79901e-17 0)
(3 -1.63668e-16 0)
(3 -2.36378e-16 0)
(3 -6.34921e-16 0)
(3 -1.04397e-15 0)
(3 -1.48183e-15 0)
(3 -2.08692e-15 0)
(3 -2.42935e-15 0)
(3 -1.97322e-15 0)
(3 -8.45785e-16 0)
(3 -6.87616e-16 0)
(3 -4.9256e-16 0)
(3 -4.3507e-16 0)
(3 -9.16874e-17 0)
(3 -4.375e-16 0)
(3 -7.14041e-16 0)
(3 -1.04088e-15 0)
(3 -9.0662e-16 0)
(3 -4.04452e-16 0)
(3 -4.05971e-18 0)
(3 3.27654e-16 0)
(3 9.95363e-16 0)
(3 1.63036e-15 0)
(3 1.69864e-15 0)
(3 1.42778e-15 0)
(3 3.2876e-16 0)
(3 -1.48888e-16 0)
(3 -2.41962e-18 0)
(3 5.43814e-16 0)
(3 4.47513e-16 0)
(3 4.30954e-16 0)
(3 1.2402e-15 0)
(3 9.69295e-16 0)
(3 -3.82286e-16 0)
(3 -1.60409e-15 0)
(3 -1.96559e-15 0)
(3 -2.25002e-15 0)
(3 -2.15139e-15 0)
(3 -1.9695e-15 0)
(3 -2.62548e-15 0)
(3 -1.92849e-15 0)
(3 -5.51597e-16 0)
(3 2.71138e-16 0)
(3 1.0377e-15 0)
(3 1.27618e-15 0)
(3 1.20975e-15 0)
(3 9.10984e-16 0)
(3 1.76416e-16 0)
(3 -5.14503e-16 0)
(3 -7.99128e-16 0)
(3 -8.30925e-16 0)
(3 -4.96441e-17 0)
(3 1.22446e-15 0)
(3 1.99552e-15 0)
(3 1.58293e-15 0)
(3 9.74648e-16 0)
(3 -3.03643e-16 0)
(3 -4.81379e-16 0)
(3 -4.85876e-16 0)
(3 -1.28344e-15 0)
(3 -1.77716e-15 0)
(3 -2.09994e-15 0)
(3 -2.76729e-15 0)
(3 -3.25334e-15 0)
(3 -2.84216e-15 0)
(3 -1.71906e-15 0)
(3 -2.17638e-15 0)
(3 -2.75433e-15 0)
(3 -2.56693e-15 0)
(3 -9.04005e-16 0)
(3 -6.43933e-16 0)
(3 2.2213e-17 0)
(3 4.80163e-16 0)
(3 -1.08425e-16 0)
(3 -5.86675e-16 0)
(3 -1.28725e-15 0)
(3 -9.18965e-16 0)
(3 1.03085e-16 0)
(3 1.00777e-15 0)
(3 2.55734e-15 0)
(3 2.20716e-15 0)
(3 3.16473e-16 0)
(3 6.44094e-16 0)
(3 1.18319e-15 0)
(3 1.47374e-15 0)
(3 1.87527e-15 0)
(3 1.93925e-15 0)
(3 2.38664e-15 0)
(3 2.86423e-15 0)
(3 3.1564e-15 0)
(3 3.55927e-15 0)
(3 1.73708e-15 0)
(3 5.76425e-17 0)
(3 -2.58801e-16 0)
(3 3.76874e-16 0)
(3 6.09813e-16 0)
(3 -2.68333e-16 0)
(3 -7.79496e-16 0)
(3 -5.82158e-16 0)
(3 -2.95822e-16 0)
(3 -2.73833e-16 0)
(3 -3.00029e-16 0)
(3 -4.06924e-16 0)
(3 -5.47252e-16 0)
(3 -1.0323e-15 0)
(3 -1.34686e-15 0)
(3 -1.3592e-15 0)
(3 -1.29937e-15 0)
(3 -6.40513e-16 0)
(3 -1.01825e-16 0)
(3 -4.82595e-16 0)
(3 -1.29492e-15 0)
(3 -1.25371e-15 0)
(3 -1.17196e-15 0)
(3 -1.22687e-15 0)
(3 -9.38719e-16 0)
(3 -3.45341e-16 0)
(3 -2.64238e-16 0)
(3 -6.20938e-16 0)
(3 -9.11614e-16 0)
(3 -8.27466e-16 0)
(3 -9.89518e-16 0)
(3 -9.72753e-16 0)
(3 -1.6492e-16 0)
(3 -5.52554e-17 0)
(3 -2.47722e-16 0)
(3 2.02425e-16 0)
(3 1.44886e-15 0)
(3 1.00083e-15 0)
(3 3.25699e-16 0)
(3 6.10722e-17 0)
(3 -7.75753e-16 0)
(3 -1.26266e-15 0)
(3 -2.09162e-15 0)
(3 -2.96238e-15 0)
(3 -3.38323e-15 0)
(3 -6.1111e-16 0)
(3 1.57489e-16 0)
(3 7.66252e-16 0)
(3 1.37829e-15 0)
(3 1.50834e-15 0)
(3 1.72007e-15 0)
(3 1.82761e-15 0)
(3 1.50013e-15 0)
(3 1.37096e-15 0)
(3 1.49923e-15 0)
(3 1.62721e-15 0)
(3 1.6837e-15 0)
(3 2.45167e-15 0)
(3 2.9446e-15 0)
(3 9.97779e-16 0)
(3 -1.77579e-15 0)
(3 -4.54796e-15 0)
(3 -4.84469e-15 0)
(3 -3.89362e-15 0)
(3 -3.35629e-15 0)
(3 -2.95397e-15 0)
(3 -1.98883e-15 0)
(3 -1.98372e-15 0)
(3 -2.25384e-15 0)
(3 -2.30276e-15 0)
(3 -2.44244e-15 0)
(3 -3.50553e-15 0)
(3 -3.51201e-15 0)
(3 -2.72975e-15 0)
(3 -2.04379e-15 0)
(3 -2.29056e-15 0)
(3 -1.60715e-15 0)
(3 -1.59353e-15 0)
(3 -1.53939e-15 0)
(3 -1.18898e-15 0)
(3 -1.3285e-15 0)
(3 -2.72877e-17 0)
(3 1.62407e-15 0)
(3 2.07053e-15 0)
(3 2.39258e-15 0)
(3 2.12062e-15 0)
(3 1.46604e-15 0)
(3 2.21145e-15 0)
(3 3.14191e-15 0)
(3 3.35555e-15 0)
(3 3.02861e-15 0)
(3 2.77738e-15 0)
(3 3.34772e-15 0)
(3 3.37696e-15 0)
(3 2.59114e-15 0)
(3 3.34403e-15 0)
(3 9.45563e-16 0)
(3 1.52363e-16 0)
(3 2.67572e-16 0)
(3 -1.20422e-16 0)
(3 -2.63975e-16 0)
(3 -5.52234e-16 0)
(3 -7.56332e-16 0)
(3 -5.67865e-16 0)
(3 -2.95252e-16 0)
(3 -1.22254e-16 0)
(3 1.79355e-16 0)
(3 8.7463e-16 0)
(3 3.12786e-16 0)
(3 -3.52169e-16 0)
(3 -3.89242e-16 0)
(3 -5.81085e-16 0)
(3 -9.73279e-16 0)
(3 -4.38561e-16 0)
(3 -1.4759e-16 0)
(3 -4.86119e-17 0)
(3 -7.0579e-17 0)
(3 -1.15144e-16 0)
(3 -1.96546e-16 0)
(3 -1.10547e-16 0)
(3 -3.2806e-17 0)
(3 3.56923e-18 0)
(3 -2.08435e-16 0)
(3 -1.00321e-15 0)
(3 -2.69586e-15 0)
(3 -2.865e-15 0)
(3 -1.72485e-15 0)
(3 -4.61847e-16 0)
(3 2.2616e-16 0)
(3 -1.66717e-17 0)
(3 3.5239e-16 0)
(3 4.81697e-16 0)
(3 2.01643e-15 0)
(3 1.98887e-15 0)
(3 1.65841e-15 0)
(3 1.2881e-15 0)
(3 1.08157e-15 0)
(3 -1.14022e-16 0)
(3 -1.56642e-15 0)
(3 -3.31989e-15 0)
(3 -3.27022e-15 0)
(3 -5.51741e-16 0)
(3 5.79863e-16 0)
(3 5.84005e-16 0)
(3 4.48088e-16 0)
(3 4.09117e-16 0)
(3 8.17112e-16 0)
(3 1.01566e-15 0)
(3 1.09401e-15 0)
(3 6.20104e-16 0)
(3 4.05297e-16 0)
(3 8.4077e-16 0)
(3 1.86341e-15 0)
(3 2.10522e-15 0)
(3 2.32095e-15 0)
(3 -2.54057e-16 0)
(3 -2.18232e-15 0)
(3 -3.16548e-15 0)
(3 -3.39773e-15 0)
(3 -3.05479e-15 0)
(3 -2.35745e-15 0)
(3 -1.97702e-15 0)
(3 -2.05817e-15 0)
(3 -1.58115e-15 0)
(3 -2.07967e-15 0)
(3 -3.51762e-15 0)
(3 -4.43736e-15 0)
(3 -4.2256e-15 0)
(3 -3.70062e-15 0)
(3 -3.0832e-15 0)
(3 -2.76104e-15 0)
(3 -2.22329e-15 0)
(3 -2.20572e-15 0)
(3 -2.42314e-15 0)
(3 -2.05502e-15 0)
(3 -8.56207e-16 0)
(3 1.01988e-15 0)
(3 2.01928e-15 0)
(3 2.99886e-15 0)
(3 3.20532e-15 0)
(3 2.35068e-15 0)
(3 1.76636e-15 0)
(3 1.49113e-15 0)
(3 2.07756e-15 0)
(3 1.50235e-15 0)
(3 1.26953e-15 0)
(3 1.48743e-15 0)
(3 2.74572e-15 0)
(3 3.78307e-15 0)
(3 2.77171e-15 0)
(3 2.13007e-15 0)
(3 2.3992e-15 0)
(3 5.09066e-16 0)
(3 4.47444e-17 0)
(3 2.0409e-16 0)
(3 2.13992e-16 0)
(3 -1.52699e-16 0)
(3 -3.15429e-16 0)
(3 -4.49643e-16 0)
(3 -7.26618e-16 0)
(3 -7.76896e-16 0)
(3 -3.20934e-16 0)
(3 -1.9946e-16 0)
(3 -1.98131e-16 0)
(3 -4.5657e-16 0)
(3 -6.29546e-16 0)
(3 -5.73869e-16 0)
(3 -7.46706e-16 0)
(3 -6.91254e-16 0)
(3 -4.35845e-16 0)
(3 -3.50307e-16 0)
(3 3.40642e-16 0)
(3 5.11872e-16 0)
(3 5.10293e-16 0)
(3 7.78208e-16 0)
(3 1.29445e-15 0)
(3 1.23211e-15 0)
(3 4.12995e-16 0)
(3 -1.43729e-16 0)
(3 -6.39871e-16 0)
(3 -1.87165e-15 0)
(3 -2.0645e-15 0)
(3 -2.10576e-15 0)
(3 -1.50516e-15 0)
(3 -5.89751e-16 0)
(3 3.94237e-16 0)
(3 6.60441e-16 0)
(3 1.3738e-15 0)
(3 1.33348e-15 0)
(3 1.40188e-15 0)
(3 1.9543e-15 0)
(3 2.19188e-15 0)
(3 1.78635e-15 0)
(3 1.00448e-15 0)
(3 -3.9615e-16 0)
(3 -1.37962e-15 0)
(3 -1.51024e-15 0)
(3 -9.06599e-16 0)
(3 4.31218e-16 0)
(3 3.88826e-16 0)
(3 -1.96899e-15 0)
(3 -2.31232e-15 0)
(3 -9.85436e-16 0)
(3 -4.40922e-16 0)
(3 -2.36349e-16 0)
(3 -4.51694e-16 0)
(3 -1.88981e-16 0)
(3 1.0525e-15 0)
(3 1.49255e-15 0)
(3 6.76835e-16 0)
(3 6.18252e-16 0)
(3 2.39277e-17 0)
(3 -8.34385e-16 0)
(3 -4.84792e-16 0)
(3 -5.47737e-16 0)
(3 -3.41741e-16 0)
(3 -3.89264e-16 0)
(3 -6.50429e-16 0)
(3 -1.13752e-15 0)
(3 -1.17466e-15 0)
(3 -1.99896e-15 0)
(3 -3.43972e-15 0)
(3 -2.98861e-15 0)
(3 -2.2523e-15 0)
(3 -1.63308e-15 0)
(3 -1.84249e-15 0)
(3 -1.89172e-15 0)
(3 -1.55348e-15 0)
(3 -1.39172e-15 0)
(3 -1.3302e-15 0)
(3 -8.73993e-16 0)
(3 -4.01807e-16 0)
(3 7.11167e-16 0)
(3 1.91731e-15 0)
(3 1.9113e-15 0)
(3 2.10578e-15 0)
(3 7.42981e-16 0)
(3 -1.99794e-16 0)
(3 -2.09693e-16 0)
(3 3.10377e-17 0)
(3 1.01799e-15 0)
(3 8.87188e-16 0)
(3 2.87946e-16 0)
(3 4.06283e-16 0)
(3 1.58264e-15 0)
(3 1.54547e-15 0)
(3 9.47667e-16 0)
(3 -3.29212e-16 0)
(3 -4.21797e-16 0)
(3 -2.00012e-16 0)
(3 -1.97262e-16 0)
(3 4.34244e-16 0)
(3 7.99085e-16 0)
(3 4.03621e-16 0)
(3 8.21573e-17 0)
(3 -7.78648e-16 0)
(3 -1.0264e-15 0)
(3 -1.00147e-15 0)
(3 -7.53863e-16 0)
(3 -2.31524e-16 0)
(3 -2.65423e-16 0)
(3 -1.54972e-16 0)
(3 -1.20122e-15 0)
(3 -1.33403e-15 0)
(3 -1.10358e-15 0)
(3 -1.31995e-15 0)
(3 -1.67289e-15 0)
(3 -5.99972e-16 0)
(3 -4.61501e-18 0)
(3 2.74484e-17 0)
(3 4.06546e-16 0)
(3 1.31279e-15 0)
(3 1.14923e-15 0)
(3 8.61759e-16 0)
(3 2.26225e-16 0)
(3 -7.17341e-16 0)
(3 -7.56518e-16 0)
(3 -1.17465e-15 0)
(3 -1.74677e-15 0)
(3 -1.46435e-15 0)
(3 -4.61544e-16 0)
(3 3.01799e-16 0)
(3 6.88052e-16 0)
(3 1.38232e-15 0)
(3 1.23292e-15 0)
(3 1.09193e-15 0)
(3 7.78064e-16 0)
(3 7.61512e-16 0)
(3 6.19875e-16 0)
(3 8.67621e-16 0)
(3 7.41472e-16 0)
(3 1.01434e-15 0)
(3 9.96667e-16 0)
(3 5.83703e-16 0)
(3 8.17773e-16 0)
(3 8.67351e-16 0)
(3 -1.95888e-15 0)
(3 -2.70189e-15 0)
(3 -3.04146e-15 0)
(3 -2.55494e-15 0)
(3 -1.68761e-15 0)
(3 -1.10425e-15 0)
(3 2.68335e-16 0)
(3 4.23304e-16 0)
(3 5.6761e-16 0)
(3 3.01598e-16 0)
(3 -9.88186e-16 0)
(3 -1.80699e-15 0)
(3 -1.00308e-15 0)
(3 -4.74592e-16 0)
(3 -1.58346e-16 0)
(3 2.73932e-16 0)
(3 -9.53059e-17 0)
(3 -5.5962e-16 0)
(3 -7.9006e-16 0)
(3 -1.32965e-15 0)
(3 -1.99437e-15 0)
(3 -2.45932e-15 0)
(3 -2.76713e-15 0)
(3 -2.029e-15 0)
(3 -1.98893e-15 0)
(3 -2.67944e-15 0)
(3 -2.73017e-15 0)
(3 -2.5002e-15 0)
(3 -1.38067e-15 0)
(3 -1.52323e-16 0)
(3 1.38203e-16 0)
(3 1.10994e-16 0)
(3 2.28175e-16 0)
(3 2.5068e-16 0)
(3 5.39612e-16 0)
(3 7.18036e-16 0)
(3 3.86855e-16 0)
(3 -7.75422e-16 0)
(3 -8.56287e-16 0)
(3 2.04851e-15 0)
(3 2.92764e-15 0)
(3 2.71219e-15 0)
(3 1.28315e-15 0)
(3 9.33911e-17 0)
(3 -2.53058e-17 0)
(3 8.25324e-16 0)
(3 9.96853e-16 0)
(3 -4.71933e-16 0)
(3 -1.31237e-15 0)
(3 -1.00721e-16 0)
(3 2.82833e-17 0)
(3 5.93186e-18 0)
(3 3.8621e-16 0)
(3 2.86861e-16 0)
(3 3.38875e-16 0)
(3 1.65663e-16 0)
(3 -4.29685e-16 0)
(3 -1.21525e-15 0)
(3 -9.77696e-16 0)
(3 -9.17819e-16 0)
(3 -6.70005e-16 0)
(3 -1.20253e-16 0)
(3 7.64985e-17 0)
(3 -6.78071e-17 0)
(3 -1.98104e-16 0)
(3 -8.74161e-16 0)
(3 -7.55983e-16 0)
(3 -1.21621e-15 0)
(3 -1.33455e-15 0)
(3 -1.25776e-15 0)
(3 -7.99685e-16 0)
(3 -2.1177e-16 0)
(3 -2.9909e-16 0)
(3 -8.32914e-16 0)
(3 -1.50048e-15 0)
(3 -1.38779e-15 0)
(3 -1.12917e-16 0)
(3 5.47292e-16 0)
(3 6.38497e-16 0)
(3 2.4776e-16 0)
(3 8.72836e-16 0)
(3 9.70243e-16 0)
(3 1.07574e-15 0)
(3 1.12683e-15 0)
(3 1.41854e-15 0)
(3 1.23582e-15 0)
(3 1.021e-15 0)
(3 6.54498e-16 0)
(3 8.56772e-16 0)
(3 1.35052e-15 0)
(3 2.08597e-15 0)
(3 2.44164e-15 0)
(3 2.40047e-15 0)
(3 1.88911e-15 0)
(3 7.93735e-16 0)
(3 5.73581e-16 0)
(3 -1.05685e-15 0)
(3 -2.0691e-15 0)
(3 -2.28022e-15 0)
(3 -3.01312e-15 0)
(3 -2.91522e-15 0)
(3 -1.49255e-15 0)
(3 -3.66367e-16 0)
(3 -1.29842e-16 0)
(3 -3.28941e-16 0)
(3 -6.79161e-16 0)
(3 -9.89908e-16 0)
(3 -1.02018e-15 0)
(3 1.17629e-16 0)
(3 1.00826e-15 0)
(3 1.30851e-15 0)
(3 1.03541e-15 0)
(3 9.13774e-16 0)
(3 3.99804e-16 0)
(3 1.12462e-16 0)
(3 -5.17141e-16 0)
(3 -1.55216e-15 0)
(3 -1.81787e-15 0)
(3 -1.99902e-15 0)
(3 -2.5861e-15 0)
(3 -3.04101e-15 0)
(3 -3.0924e-15 0)
(3 -2.8338e-15 0)
(3 -2.15222e-15 0)
(3 -2.02501e-15 0)
(3 -1.62182e-15 0)
(3 -1.34223e-15 0)
(3 -1.40492e-15 0)
(3 -1.4003e-15 0)
(3 -8.54677e-16 0)
(3 1.34193e-17 0)
(3 7.23497e-16 0)
(3 6.35003e-16 0)
(3 2.59564e-18 0)
(3 1.33147e-15 0)
(3 2.46187e-15 0)
(3 3.87878e-15 0)
(3 3.59187e-15 0)
(3 3.17294e-15 0)
(3 1.85104e-15 0)
(3 1.37934e-15 0)
(3 8.35749e-16 0)
(3 3.99912e-16 0)
(3 5.1238e-16 0)
(3 -4.88466e-16 0)
(3 6.17749e-17 0)
(3 -7.01076e-17 0)
(3 -5.39742e-16 0)
(3 -4.89843e-16 0)
(3 2.63965e-17 0)
(3 4.63352e-16 0)
(3 9.47019e-16 0)
(3 7.04033e-16 0)
(3 3.99922e-16 0)
(3 -4.13292e-16 0)
(3 -8.97008e-16 0)
(3 -4.83227e-16 0)
(3 -4.14845e-17 0)
(3 8.88644e-16 0)
(3 9.13803e-16 0)
(3 2.20318e-16 0)
(3 1.23326e-16 0)
(3 3.19017e-16 0)
(3 3.58932e-16 0)
(3 3.77004e-16 0)
(3 2.10155e-16 0)
(3 -1.99942e-18 0)
(3 -8.64649e-16 0)
(3 -9.86315e-16 0)
(3 -9.2124e-16 0)
(3 -1.2216e-15 0)
(3 -1.48849e-15 0)
(3 -1.258e-15 0)
(3 -5.06339e-17 0)
(3 3.15914e-16 0)
(3 4.50119e-16 0)
(3 3.29541e-18 0)
(3 2.82255e-16 0)
(3 7.55775e-16 0)
(3 1.2128e-15 0)
(3 1.51279e-15 0)
(3 1.51324e-15 0)
(3 2.03301e-15 0)
(3 2.03458e-15 0)
(3 2.17625e-15 0)
(3 2.37449e-15 0)
(3 2.57012e-15 0)
(3 3.0307e-15 0)
(3 2.98955e-15 0)
(3 3.22214e-15 0)
(3 1.60762e-15 0)
(3 8.59219e-16 0)
(3 -4.83779e-16 0)
(3 -8.31634e-16 0)
(3 -9.0722e-16 0)
(3 -1.46934e-15 0)
(3 -1.75928e-15 0)
(3 -6.6127e-16 0)
(3 1.76207e-16 0)
(3 2.63456e-16 0)
(3 -1.31746e-16 0)
(3 -5.96401e-16 0)
(3 -2.92128e-16 0)
(3 -5.36788e-16 0)
(3 6.16974e-16 0)
(3 1.92056e-15 0)
(3 2.20657e-15 0)
(3 1.88848e-15 0)
(3 1.17889e-15 0)
(3 1.58412e-15 0)
(3 1.95207e-15 0)
(3 2.30192e-15 0)
(3 7.71119e-16 0)
(3 -2.17381e-16 0)
(3 -3.32304e-16 0)
(3 -1.06012e-15 0)
(3 -1.77875e-15 0)
(3 -1.29438e-15 0)
(3 -1.35462e-15 0)
(3 -1.68072e-15 0)
(3 -1.98593e-15 0)
(3 -1.45721e-15 0)
(3 -7.60124e-16 0)
(3 -7.87604e-16 0)
(3 -2.49425e-16 0)
(3 5.90307e-16 0)
(3 1.25758e-15 0)
(3 1.4569e-15 0)
(3 6.8728e-16 0)
(3 1.41932e-16 0)
(3 2.13258e-15 0)
(3 2.98965e-15 0)
(3 3.74682e-15 0)
(3 3.69085e-15 0)
(3 3.20463e-15 0)
(3 1.58359e-15 0)
(3 5.47518e-16 0)
(3 3.12448e-16 0)
(3 4.6642e-16 0)
(3 6.64013e-16 0)
(3 4.13089e-16 0)
(3 -5.60271e-17 0)
(3 -1.03498e-16 0)
(3 -7.24075e-17 0)
(3 1.75888e-17 0)
(3 -6.35984e-18 0)
(3 -1.90412e-16 0)
(3 6.47462e-16 0)
(3 1.01123e-15 0)
(3 1.37803e-15 0)
(3 1.14655e-15 0)
(3 1.1701e-15 0)
(3 8.98021e-16 0)
(3 5.31406e-16 0)
(3 -2.24091e-16 0)
(3 2.77146e-16 0)
(3 2.8763e-16 0)
(3 1.37409e-16 0)
(3 -7.94986e-17 0)
(3 7.9912e-16 0)
(3 1.64357e-15 0)
(3 1.59539e-15 0)
(3 1.34333e-15 0)
(3 2.05143e-16 0)
(3 -3.98932e-16 0)
(3 -5.09849e-16 0)
(3 -3.39124e-16 0)
(3 -7.89317e-16 0)
(3 -1.27422e-15 0)
(3 -1.34262e-15 0)
(3 -7.93119e-16 0)
(3 4.99729e-16 0)
(3 4.44018e-16 0)
(3 2.60492e-16 0)
(3 2.74748e-16 0)
(3 5.20755e-16 0)
(3 1.19716e-15 0)
(3 1.85499e-15 0)
(3 2.23144e-15 0)
(3 2.31768e-15 0)
(3 2.45652e-15 0)
(3 2.80268e-15 0)
(3 2.44058e-15 0)
(3 2.29151e-15 0)
(3 2.76628e-15 0)
(3 2.23467e-15 0)
(3 1.19808e-15 0)
(3 -1.0074e-15 0)
(3 3.08395e-18 0)
(3 2.13019e-16 0)
(3 5.80425e-16 0)
(3 9.03885e-16 0)
(3 2.13536e-15 0)
(3 1.28316e-15 0)
(3 4.14634e-16 0)
(3 -7.55225e-16 0)
(3 -8.78113e-16 0)
(3 -3.69889e-16 0)
(3 -1.21337e-16 0)
(3 1.39428e-16 0)
(3 8.61079e-16 0)
(3 1.72287e-15 0)
(3 1.33348e-15 0)
(3 9.12191e-16 0)
(3 5.59469e-16 0)
(3 5.9096e-16 0)
(3 5.50077e-16 0)
(3 1.14144e-15 0)
(3 8.36716e-16 0)
(3 7.63329e-16 0)
(3 5.7067e-16 0)
(3 6.2183e-16 0)
(3 1.84492e-17 0)
(3 -6.53876e-16 0)
(3 -1.31422e-15 0)
(3 -1.74959e-15 0)
(3 -1.6467e-15 0)
(3 -8.6276e-16 0)
(3 -7.3703e-16 0)
(3 -9.46434e-16 0)
(3 -7.74604e-16 0)
(3 -3.52662e-16 0)
(3 8.65368e-16 0)
(3 9.2604e-16 0)
(3 -5.54722e-16 0)
(3 -8.12345e-16 0)
(3 3.6948e-16 0)
(3 1.06344e-15 0)
(3 1.48932e-15 0)
(3 2.37249e-15 0)
(3 2.43593e-15 0)
(3 1.97712e-15 0)
(3 4.93582e-16 0)
(3 1.74688e-16 0)
(3 3.07687e-16 0)
(3 2.796e-16 0)
(3 8.40152e-16 0)
(3 3.22505e-17 0)
(3 2.48311e-16 0)
(3 8.05441e-16 0)
(3 7.80647e-16 0)
(3 -1.19412e-16 0)
(3 -3.97725e-16 0)
(3 -3.13511e-16 0)
(3 6.54811e-17 0)
(3 6.72269e-16 0)
(3 1.01104e-15 0)
(3 1.52408e-15 0)
(3 1.86569e-15 0)
(3 1.2677e-15 0)
(3 2.90509e-16 0)
(3 1.04308e-16 0)
(3 4.47533e-16 0)
(3 -1.20785e-16 0)
(3 -3.65206e-16 0)
(3 -4.59938e-16 0)
(3 -1.77189e-16 0)
(3 -6.13419e-16 0)
(3 -3.2505e-16 0)
(3 -2.11846e-16 0)
(3 -5.25604e-16 0)
(3 -8.02401e-16 0)
(3 -3.87757e-16 0)
(3 -2.12762e-16 0)
(3 2.73269e-16 0)
(3 8.83895e-16 0)
(3 1.29293e-15 0)
(3 1.40583e-15 0)
(3 7.54109e-16 0)
(3 5.19505e-16 0)
(3 2.46188e-16 0)
(3 -4.31096e-16 0)
(3 -7.60809e-16 0)
(3 3.78912e-16 0)
(3 6.81863e-16 0)
(3 1.31669e-15 0)
(3 2.01389e-15 0)
(3 2.23922e-15 0)
(3 2.16903e-15 0)
(3 1.3559e-15 0)
(3 1.3595e-15 0)
(3 1.00779e-15 0)
(3 6.505e-16 0)
(3 1.64666e-16 0)
(3 6.03357e-16 0)
(3 6.59592e-16 0)
(3 1.22212e-15 0)
(3 1.91307e-15 0)
(3 1.9396e-15 0)
(3 1.63828e-15 0)
(3 1.09396e-15 0)
(3 5.09398e-16 0)
(3 4.87677e-16 0)
(3 7.94861e-16 0)
(3 1.99526e-15 0)
(3 2.85004e-15 0)
(3 2.8728e-15 0)
(3 2.91091e-15 0)
(3 2.14316e-15 0)
(3 1.2595e-15 0)
(3 7.1163e-16 0)
(3 2.41661e-16 0)
(3 7.64218e-17 0)
(3 7.0419e-17 0)
(3 4.83646e-16 0)
(3 1.29735e-15 0)
(3 7.32302e-16 0)
(3 7.01316e-16 0)
(3 4.01163e-16 0)
(3 -1.12584e-16 0)
(3 -1.77378e-15 0)
(3 -1.8538e-15 0)
(3 -1.75794e-15 0)
(3 -1.21233e-15 0)
(3 -1.15207e-15 0)
(3 -1.62569e-15 0)
(3 -1.75548e-15 0)
(3 -1.09452e-15 0)
(3 -1.80673e-16 0)
(3 -3.70537e-16 0)
(3 -9.18209e-16 0)
(3 -1.1108e-15 0)
(3 -3.86933e-16 0)
(3 -1.7465e-16 0)
(3 3.01233e-16 0)
(3 1.5712e-15 0)
(3 2.14731e-15 0)
(3 2.12619e-15 0)
(3 6.97213e-16 0)
(3 -1.35917e-15 0)
(3 -1.27813e-15 0)
(3 -2.73481e-16 0)
(3 -2.10235e-16 0)
(3 4.07649e-17 0)
(3 -8.39786e-18 0)
(3 -1.94066e-16 0)
(3 -2.08486e-16 0)
(3 4.25682e-16 0)
(3 1.12319e-17 0)
(3 -2.28954e-16 0)
(3 -1.65576e-17 0)
(3 4.80471e-16 0)
(3 1.06441e-15 0)
(3 9.27572e-16 0)
(3 1.0564e-15 0)
(3 1.64458e-15 0)
(3 1.30282e-15 0)
(3 8.96581e-16 0)
(3 5.02587e-16 0)
(3 6.27045e-16 0)
(3 8.99928e-16 0)
(3 4.55081e-16 0)
(3 -3.50089e-16 0)
(3 -8.6232e-16 0)
(3 -1.65097e-15 0)
(3 -1.81817e-15 0)
(3 -1.99054e-15 0)
(3 -1.34232e-15 0)
(3 -3.32909e-16 0)
(3 -1.43969e-16 0)
(3 1.10381e-16 0)
(3 6.39678e-16 0)
(3 1.26135e-15 0)
(3 9.73839e-16 0)
(3 5.78324e-16 0)
(3 4.47062e-16 0)
(3 5.85348e-18 0)
(3 -2.22707e-16 0)
(3 -4.91215e-16 0)
(3 -4.55787e-16 0)
(3 3.28446e-16 0)
(3 1.23743e-15 0)
(3 1.30799e-15 0)
(3 1.03227e-15 0)
(3 3.41465e-16 0)
(3 2.81185e-17 0)
(3 -6.36161e-16 0)
(3 -1.34295e-15 0)
(3 -1.99644e-15 0)
(3 4.76443e-16 0)
(3 8.82633e-16 0)
(3 7.24418e-16 0)
(3 1.00048e-15 0)
(3 2.02138e-15 0)
(3 1.69633e-15 0)
(3 1.45055e-15 0)
(3 1.64767e-15 0)
(3 1.86689e-15 0)
(3 3.29952e-15 0)
(3 4.05708e-15 0)
(3 3.91429e-15 0)
(3 3.51073e-15 0)
(3 3.59599e-15 0)
(3 2.84979e-15 0)
(3 2.07329e-15 0)
(3 1.93434e-15 0)
(3 1.78561e-15 0)
(3 2.08206e-15 0)
(3 1.38041e-15 0)
(3 1.02526e-15 0)
(3 7.39776e-16 0)
(3 1.01092e-15 0)
(3 8.97993e-16 0)
(3 7.52029e-16 0)
(3 4.75911e-16 0)
(3 2.82682e-16 0)
(3 -5.65775e-16 0)
(3 -1.62554e-15 0)
(3 -1.95337e-15 0)
(3 -2.42712e-15 0)
(3 -1.15323e-15 0)
(3 -5.7451e-16 0)
(3 -2.84073e-16 0)
(3 5.48806e-17 0)
(3 8.64323e-17 0)
(3 -2.38765e-16 0)
(3 3.63561e-16 0)
(3 -7.62241e-16 0)
(3 -1.09442e-15 0)
(3 -1.21524e-15 0)
(3 -1.22814e-15 0)
(3 -3.06514e-16 0)
(3 -2.53534e-16 0)
(3 3.59766e-16 0)
(3 -1.44135e-15 0)
(3 -1.78114e-15 0)
(3 -1.74556e-15 0)
(3 -1.16493e-15 0)
(3 -3.42632e-16 0)
(3 -7.36108e-18 0)
(3 -3.85966e-17 0)
(3 -4.17155e-16 0)
(3 -1.42637e-16 0)
(3 8.5136e-16 0)
(3 8.67809e-16 0)
(3 5.42708e-16 0)
(3 5.20137e-16 0)
(3 4.49504e-16 0)
(3 8.52041e-16 0)
(3 8.02497e-16 0)
(3 1.48535e-16 0)
(3 4.32214e-16 0)
(3 1.01402e-15 0)
(3 1.05475e-15 0)
(3 8.66757e-16 0)
(3 8.26899e-16 0)
(3 1.03602e-15 0)
(3 1.58412e-15 0)
(3 1.36411e-15 0)
(3 6.02092e-16 0)
(3 -5.60535e-16 0)
(3 -1.09694e-15 0)
(3 -1.44002e-15 0)
(3 -1.85055e-15 0)
(3 -5.02058e-16 0)
(3 4.20872e-16 0)
(3 1.90698e-16 0)
(3 2.35723e-16 0)
(3 -8.90277e-17 0)
(3 -4.02083e-16 0)
(3 -4.01586e-16 0)
(3 -3.64868e-16 0)
(3 -9.24363e-16 0)
(3 -1.13848e-15 0)
(3 -6.83358e-16 0)
(3 -6.33573e-16 0)
(3 -6.60747e-16 0)
(3 -1.49273e-15 0)
(3 -2.21116e-15 0)
(3 -2.2071e-15 0)
(3 -1.57221e-15 0)
(3 -1.13061e-15 0)
(3 -2.00747e-15 0)
(3 -3.92598e-15 0)
(3 -4.22976e-15 0)
(3 -2.83153e-15 0)
(3 -3.17275e-16 0)
(3 -1.45534e-16 0)
(3 -4.57594e-16 0)
(3 1.07407e-16 0)
(3 -2.41511e-16 0)
(3 6.81482e-16 0)
(3 1.61466e-15 0)
(3 2.78379e-15 0)
(3 2.94857e-15 0)
(3 2.51309e-15 0)
(3 1.94494e-15 0)
(3 2.94713e-15 0)
(3 2.1923e-15 0)
(3 1.27099e-15 0)
(3 2.4854e-15 0)
(3 3.09937e-15 0)
(3 3.10637e-15 0)
(3 2.70106e-15 0)
(3 2.77959e-15 0)
(3 2.55359e-15 0)
(3 2.63223e-15 0)
(3 1.98708e-15 0)
(3 1.22942e-15 0)
(3 9.53652e-16 0)
(3 8.80733e-16 0)
(3 5.15389e-16 0)
(3 4.19745e-16 0)
(3 -2.41664e-16 0)
(3 -7.2081e-16 0)
(3 -1.07659e-15 0)
(3 -1.19758e-15 0)
(3 -8.82318e-16 0)
(3 -2.31366e-16 0)
(3 -5.88837e-16 0)
(3 -1.00519e-15 0)
(3 -1.16972e-15 0)
(3 -1.37051e-15 0)
(3 -1.3678e-15 0)
(3 -2.04801e-15 0)
(3 -1.4833e-15 0)
(3 1.52896e-16 0)
(3 3.56969e-16 0)
(3 -8.11171e-17 0)
(3 -1.23688e-15 0)
(3 -2.4646e-15 0)
(3 -2.05836e-15 0)
(3 -2.02293e-15 0)
(3 -1.91561e-15 0)
(3 -1.71201e-15 0)
(3 -3.32449e-18 0)
(3 -1.32234e-17 0)
(3 2.22207e-16 0)
(3 1.58508e-16 0)
(3 -4.97557e-17 0)
(3 4.75784e-16 0)
(3 7.905e-16 0)
(3 4.13538e-16 0)
(3 4.02812e-16 0)
(3 3.08407e-16 0)
(3 5.08997e-16 0)
(3 3.39422e-16 0)
(3 -3.72622e-16 0)
(3 6.35312e-16 0)
(3 7.29555e-16 0)
(3 7.38189e-16 0)
(3 6.1548e-16 0)
(3 4.01678e-16 0)
(3 3.85775e-16 0)
(3 2.37343e-16 0)
(3 8.39915e-17 0)
(3 -3.21248e-16 0)
(3 -1.11454e-15 0)
(3 -7.79772e-16 0)
(3 -7.3569e-16 0)
(3 -6.79453e-16 0)
(3 -2.6468e-16 0)
(3 -9.10262e-16 0)
(3 -1.24286e-15 0)
(3 -1.80039e-15 0)
(3 -2.30569e-15 0)
(3 -2.55274e-15 0)
(3 -1.64497e-15 0)
(3 -1.02298e-15 0)
(3 -9.42283e-16 0)
(3 -9.91776e-16 0)
(3 -1.99808e-15 0)
(3 -3.63602e-15 0)
(3 -4.29137e-15 0)
(3 -4.48244e-15 0)
(3 -3.87706e-15 0)
(3 -2.1009e-15 0)
(3 -1.22078e-15 0)
(3 -1.78711e-15 0)
(3 -3.1535e-15 0)
(3 -2.12305e-15 0)
(3 -2.25404e-15 0)
(3 -1.99609e-15 0)
(3 -1.08145e-15 0)
(3 -8.06116e-16 0)
(3 -8.39515e-16 0)
(3 -1.09234e-15 0)
(3 -1.00938e-15 0)
(3 -5.86197e-16 0)
(3 1.64983e-16 0)
(3 7.68631e-16 0)
(3 1.24341e-15 0)
(3 1.70434e-15 0)
(3 1.84109e-15 0)
(3 1.19557e-15 0)
(3 1.95668e-15 0)
(3 2.23764e-15 0)
(3 1.78022e-15 0)
(3 1.55933e-15 0)
(3 1.54948e-15 0)
(3 1.74745e-15 0)
(3 1.82313e-15 0)
(3 1.86305e-15 0)
(3 1.49387e-15 0)
(3 1.06973e-15 0)
(3 -4.40531e-16 0)
(3 -3.59397e-16 0)
(3 1.70923e-16 0)
(3 2.0309e-16 0)
(3 4.35615e-16 0)
(3 1.16683e-15 0)
(3 1.15886e-15 0)
(3 1.35806e-17 0)
(3 -1.87959e-16 0)
(3 3.43076e-16 0)
(3 4.53688e-16 0)
(3 -4.99239e-16 0)
(3 -9.31064e-16 0)
(3 -1.2085e-15 0)
(3 -1.70474e-15 0)
(3 -2.0351e-15 0)
(3 -1.60184e-15 0)
(3 -1.00949e-15 0)
(3 -5.17951e-16 0)
(3 2.70651e-16 0)
(3 1.65753e-16 0)
(3 -1.68879e-15 0)
(3 -2.54232e-15 0)
(3 -2.15562e-15 0)
(3 -2.31852e-15 0)
(3 -2.95753e-15 0)
(3 -7.87693e-17 0)
(3 -6.83317e-17 0)
(3 -3.96118e-17 0)
(3 -3.81646e-16 0)
(3 -8.36161e-16 0)
(3 -6.37754e-16 0)
(3 -4.94729e-16 0)
(3 2.36926e-16 0)
(3 9.43325e-16 0)
(3 1.09023e-15 0)
(3 1.20244e-15 0)
(3 2.047e-16 0)
(3 -9.56302e-16 0)
(3 -7.75394e-16 0)
(3 -1.80049e-16 0)
(3 -5.04459e-17 0)
(3 -2.95229e-16 0)
(3 -9.61614e-16 0)
(3 -1.4313e-15 0)
(3 -1.31521e-15 0)
(3 -1.01082e-15 0)
(3 -5.55341e-16 0)
(3 -4.43008e-16 0)
(3 -6.02203e-16 0)
(3 -3.43899e-16 0)
(3 -3.14735e-16 0)
(3 -1.67557e-16 0)
(3 -7.91663e-16 0)
(3 -1.45509e-15 0)
(3 -1.78562e-15 0)
(3 -1.7606e-15 0)
(3 -1.65728e-15 0)
(3 -1.49443e-15 0)
(3 -1.19359e-15 0)
(3 -1.13212e-15 0)
(3 -1.81641e-15 0)
(3 -3.09234e-15 0)
(3 -4.09353e-15 0)
(3 -4.28747e-15 0)
(3 -4.26011e-15 0)
(3 -2.77891e-15 0)
(3 -2.47488e-15 0)
(3 -2.48301e-15 0)
(3 -1.71987e-15 0)
(3 -1.95461e-15 0)
(3 -1.83914e-15 0)
(3 -1.84083e-15 0)
(3 -2.12513e-15 0)
(3 -5.96995e-16 0)
(3 2.99264e-16 0)
(3 2.24242e-16 0)
(3 3.18976e-16 0)
(3 4.09149e-16 0)
(3 5.94754e-16 0)
(3 7.57731e-16 0)
(3 1.35984e-15 0)
(3 1.89302e-15 0)
(3 4.49221e-16 0)
(3 -1.01807e-15 0)
(3 -6.91817e-16 0)
(3 1.04278e-15 0)
(3 1.70229e-15 0)
(3 9.86536e-16 0)
(3 6.68514e-16 0)
(3 1.92875e-16 0)
(3 -8.45305e-17 0)
(3 9.68081e-17 0)
(3 8.4041e-17 0)
(3 -7.18386e-17 0)
(3 3.21562e-16 0)
(3 -4.99858e-16 0)
(3 -8.96073e-16 0)
(3 -6.05359e-16 0)
(3 -1.97572e-16 0)
(3 4.00037e-17 0)
(3 4.14428e-16 0)
(3 3.55784e-16 0)
(3 1.39238e-15 0)
(3 1.43725e-15 0)
(3 1.21354e-15 0)
(3 1.3389e-15 0)
(3 1.03758e-15 0)
(3 4.23701e-16 0)
(3 -1.07573e-16 0)
(3 -7.89915e-16 0)
(3 -1.01194e-15 0)
(3 -1.86599e-15 0)
(3 -3.33241e-15 0)
(3 -3.90857e-15 0)
(3 -2.79619e-15 0)
(3 -1.66496e-15 0)
(3 -2.38996e-15 0)
(3 -3.20968e-15 0)
(3 -3.99071e-15 0)
(3 -3.79096e-15 0)
(3 -2.78311e-15 0)
(3 -9.25597e-18 0)
(3 -1.14054e-16 0)
(3 -1.30062e-16 0)
(3 -2.61382e-16 0)
(3 -5.49409e-16 0)
(3 -5.78807e-16 0)
(3 1.7541e-16 0)
(3 5.63543e-16 0)
(3 9.21714e-17 0)
(3 2.94905e-16 0)
(3 9.25975e-17 0)
(3 -6.08388e-16 0)
(3 -9.30884e-16 0)
(3 -1.47127e-15 0)
(3 -1.12905e-15 0)
(3 -1.04311e-15 0)
(3 -8.17605e-16 0)
(3 -7.31928e-16 0)
(3 -9.21638e-16 0)
(3 -1.05011e-15 0)
(3 -8.62469e-16 0)
(3 -6.11961e-16 0)
(3 8.67515e-16 0)
(3 7.54221e-16 0)
(3 2.64432e-16 0)
(3 -2.29913e-16 0)
(3 -8.11274e-16 0)
(3 -6.64484e-16 0)
(3 -8.86609e-16 0)
(3 -1.13486e-15 0)
(3 -1.26906e-15 0)
(3 -1.06006e-15 0)
(3 -1.20828e-15 0)
(3 -1.80193e-15 0)
(3 -2.41375e-15 0)
(3 -2.46994e-15 0)
(3 -1.6249e-15 0)
(3 -2.00135e-15 0)
(3 -2.75276e-15 0)
(3 -1.62027e-15 0)
(3 -9.94047e-16 0)
(3 -1.29207e-15 0)
(3 -1.24171e-15 0)
(3 -1.51046e-15 0)
(3 -5.86544e-16 0)
(3 -4.90157e-16 0)
(3 -1.14093e-16 0)
(3 3.92165e-17 0)
(3 2.17718e-16 0)
(3 6.62125e-16 0)
(3 7.52464e-16 0)
(3 7.34139e-16 0)
(3 1.08853e-15 0)
(3 1.9145e-15 0)
(3 2.11814e-15 0)
(3 1.74251e-15 0)