/*--------------------------------*- C++ -*----------------------------------*\
  =========                 |
  \\      /  F ield         | OpenFOAM: The Open Source CFD Toolbox
   \\    /   O peration     | Website:  https://openfoam.org
    \\  /    A nd           | Version:  7
     \\/     M anipulation  |
\*---------------------------------------------------------------------------*/
FoamFile
{
    version     2.0;
    format      ascii;
    class       volScalarField;
    location    "3.8";
    object      p;
}
// * * * * * * * * * * * * * * * * * * * * * * * * * * * * * * * * * * * * * //

dimensions      [1 -1 -2 0 0 0 0];

internalField   nonuniform List<scalar> 
4608
(
1
1
1
1
1
1
1
1
1
1
1
1
1
1
1
1
1
1
1
1
1
1
1
1
1
1
1
1
1
1
1
1
1
1
1
1
1
1
1
1
1
1
1
1
1
1
1
1
1
1
1
1
1
1
1
1
1
1
1
1
1
1
1
1
1
1
1
1
1
1
1
1
1
1
1
1
1
1
1
1
1
1
1
1
1
1
1
1
1
1
1
1
1
1
1
1
1
1
1
1
1
1
1
1
1
1
1
1
1
1
1
1
1
1
1
1
1
1
1
1
1
1
1
1
1
1
1
1
1
1
1
1
1
1
1
1
1
1
1
1
1
1
1
1
1
1
1
1
1
1
1
1
1
1
1
1
1
1
1
1
1
1
1
1
1
1
1
1
1
1
1
1
1
1
1
1
1
1
1
1
1
1
1
1
1
1
1
1
1
1
1
1
1
1
1
1
1
1
1
1
1
1
1
1
1
1
1
1
1
1
1
1
1
1
1
1
1
1
1
1
1
1
1
1
1
1
1
1
1
1
1
1
1
1
1
1
1
1
1
1
1
1
1
1
1
1
1
1
1
1
1
1
1
1
1
1
1
1
1
1
1
1
1
1
1
1
1
1
1
1
1
1
1
1
1
1
1
1
1
1
1
1
1
1
1
1
1
1
1
1
1
1
1
1
1
1
1
1
1
1
1
1
1
1
1
1
1
1
1
1
1
1
1
1
1
1
1
1
1
1
1
1
1
1
1
1
1
1
1
1
1
1
1
1
1
1
1
1
1
1
1
1
1
1
1
1
1
1
1
1
1
1
1
1
1
1
1
1
1
1
1
1
1
1
1
1
1
1
1
1
1
1
1
1
1
1
1
1
1
1
1
1
1
1
1
1
1
1
1
1
1
1
1
1
1
1
1
1
1
1
1
1
1
1
1
1
1
1
1
1
1
1
1
1
1
1
1
1
1
1
1
1
1
1
1
1
1
1
1
1
1
1
1
1
1
1
1
1
1
1
1
1
1
1
1
1
1
1
1
1
1
1
1
1
1
1
1
1
1
1
1
1
1
1
1
1
1
1
1
1
1
1
1
1
1
1
1
1
1
1
1
1
1
1
1
1
1
1
1
1
1
1
1
1
1
1
1
1
1
1
1
1
1
1
1
1
1
1
1
1
1
1
1
1
1
1
1
1
1
1
1
1
1
1
1
1
1
1
1
1
1
1
1
1
1
1
1
1
1
1
1
1
1
1
1
1
1
1
1
1
1
1
1
1
1
1
1
1
1
1
1
1
1
1
1
1
1
1
1
1
1
1
1
1
1
1
1
1
1
1
1
1
1
1
1
1
1
1
1
1
1
1
1
1
1
1
1
1
1
1
1
1
1
1
1
1
1
1
1
1
1
1
1
1
1
1
1
1
1
1
1
1
1
1
1
1
1
1
1
1
1
1
1
1
1
1
1
1
1
1
1
1
1
1
1
1
1
1
1
1
1
1
1
1
1
1
1
1
1
1
1
1
1
1
1
1
1
1
1
1
1
1
1
1
1
1
1
1
1
1
1
1
1
1
1
1
1
1
1
1
1
1
1
1
1
1
1
1
1
1
1
1
1
1
1
1
1
1
1
1
1
1
1
1
1
1
1
1
1
1
1
1
1
1
1
1
1
1
1
1
1
1
1
1
1
1
1
1
1
1
1
1
1
1
1
1
1
1
1
1
1
1
1
1
1
1
1
1
1
1
1
1
1
1
1
1
1
1
1.2932
1.75315
2.33855
2.98292
3.618
4.33719
4.81685
5.28904
5.3653
5.17848
4.72558
4.19832
3.80912
3.66766
3.56583
3.56688
3.60934
3.66094
3.70561
3.71656
3.71877
3.7253
3.7367
3.76172
1.00263
1.02181
1.07847
1.22131
1.46812
1.85423
2.3709
2.99748
3.55253
3.85304
4.06044
4.00316
3.95492
3.88821
3.78239
3.70467
3.6953
3.68971
3.69688
3.71007
3.72453
3.73251
3.73939
3.75471
0.999999
1.00001
0.999974
1.00021
1.0035
1.02322
1.11114
1.35908
1.99655
2.98911
3.87314
4.27224
4.35952
4.28178
4.12959
3.87706
3.70986
3.68306
3.69006
3.71238
3.73513
3.74647
3.74853
3.75749
1
1
0.999997
0.999997
0.999985
1.00004
0.999984
1.00154
1.03702
1.28902
2.05694
3.08153
3.99102
4.1123
4.07203
4.02574
3.89856
3.76899
3.73893
3.73424
3.73137
3.73909
3.74468
3.75469
1
1
1
1
0.999999
0.999999
0.999998
0.999995
0.999897
1.00124
1.04116
1.3674
2.2231
3.27826
3.87391
4.13707
4.09028
3.96194
3.79459
3.72565
3.6972
3.69022
3.70511
3.72624
1
1
1
1
1
1
1
1
0.999988
0.99999
0.999898
1.00364
1.06535
1.5431
2.4703
3.60605
3.91469
3.89254
3.85564
3.79549
3.7132
3.6885
3.69156
3.70721
1
1
1
1
1
1
1
1
1
0.999999
0.999988
0.99999
0.999953
1.01323
1.14979
1.8059
2.84699
3.71164
3.94056
3.92135
3.82736
3.76191
3.74162
3.7281
1
1
1
1
1
1
1
1
1
1
1
0.999999
0.999994
0.999961
1.00073
1.03824
1.34848
2.28107
3.2052
3.76827
3.83963
3.82312
3.78362
3.75015
1
1
1
1
1
1
1
1
1
1
1
1
1
0.999996
0.999992
1.00002
1.00665
1.13497
1.75778
2.91863
3.50342
3.66478
3.72945
3.74699
1
1
1
1
1
1
1
1
1
1
1
1
1
1
0.999998
0.999999
0.999983
1.00153
1.04786
1.4133
2.3577
3.34496
3.74962
3.76942
1
1
1
1
1
1
1
1
1
1
1
1
1
1
1
1
0.999998
0.999991
1.00019
1.01464
1.2303
2.01209
3.02949
3.50698
1
1
1
1
1
1
1
1
1
1
1
1
1
1
1
1
1
0.999998
0.999997
1.00001
1.00633
1.10507
1.76211
2.73767
1
1
1
1
1
1
1
1
1
1
1
1
1
1
1
1
1
1
0.999999
0.999999
0.999998
1.00181
1.07327
1.50071
1
1
1
1
1
1
1
1
1
1
1
1
1
1
1
1
1
1
1
1
0.999999
0.999999
1.00116
1.03163
1
1
1
1
1
1
1
1
1
1
1
1
1
1
1
1
1
1
1
1
1
1
0.999996
1.00008
1
1
1
1
1
1
1
1
1
1
1
1
1
1
1
1
1
1
1
1
1
1
0.999999
0.999993
1
1
1
1
1
1
1
1
1
1
1
1
1
1
1
1
1
1
1
1
1
1
1
0.999988
1
1
1
1
1
1
1
1
1
1
1
1
1
1
1
1
1
1
1
1
1
0.999999
1.00001
0.999996
1
1
1
1
1
1
1
1
1
1
1
1
1
1
1
1
1
1
1
1
1
0.999998
1.00124
1.0252
1
1
1
1
1
1
1
1
1
1
1
1
1
1
1
1
1
1
0.999999
0.999999
0.999998
1.00187
1.06744
1.48249
1
1
1
1
1
1
1
1
1
1
1
1
1
1
1
1
1
0.999998
0.999997
1.00002
1.00608
1.10926
1.69864
2.84257
1
1
1
1
1
1
1
1
1
1
1
1
1
1
1
1
0.999998
0.999991
1.0002
1.01452
1.2327
2.00318
2.97905
3.61798
1
1
1
1
1
1
1
1
1
1
1
1
1
1
0.999998
0.999999
0.999983
1.00152
1.04794
1.41179
2.37547
3.31463
3.7524
3.79219
1
1
1
1
1
1
1
1
1
1
1
1
1
0.999995
0.999992
1.00002
1.00663
1.1351
1.75598
2.92335
3.51056
3.65511
3.71803
3.75072
1
1
1
1
1
1
1
1
1
1
1
0.999999
0.999994
0.999961
1.00073
1.03824
1.34838
2.28044
3.20338
3.77202
3.83926
3.82043
3.77984
3.75349
1
1
1
1
1
1
1
1
1
0.999999
0.999988
0.99999
0.999953
1.01323
1.14982
1.80593
2.84711
3.71098
3.94078
3.92167
3.8284
3.76015
3.74146
3.72808
1
1
1
1
1
1
1
1
0.999988
0.99999
0.999898
1.00364
1.06535
1.54296
2.47037
3.60615
3.9147
3.89246
3.85565
3.79567
3.71362
3.68795
3.69131
3.70746
1
1
1
1
0.999999
0.999999
0.999998
0.999995
0.999897
1.00124
1.04114
1.36753
2.22306
3.27828
3.87371
4.13704
4.09039
3.96185
3.79433
3.72589
3.69696
3.69012
3.70502
3.72634
1
1
0.999997
0.999997
0.999985
1.00004
0.999984
1.00154
1.03703
1.28905
2.05685
3.08174
3.99081
4.11222
4.0719
4.02589
3.89878
3.76881
3.73883
3.73432
3.73128
3.73917
3.74487
3.75486
0.999999
1.00001
0.999974
1.00021
1.00349
1.02322
1.11114
1.35905
1.99663
2.98896
3.8732
4.27225
4.35952
4.28169
4.12956
3.87751
3.70984
3.68294
3.69001
3.71243
3.73515
3.74654
3.74867
3.75757
1.00263
1.0218
1.07849
1.22129
1.4681
1.85426
2.37086
2.99746
3.55263
3.85295
4.06051
4.00321
3.95501
3.88794
3.78268
3.70479
3.69503
3.68957
3.69694
3.7102
3.72457
3.7325
3.73941
3.75471
1.2932
1.75317
2.33848
2.9829
3.61812
4.33715
4.81671
5.2891
5.36537
5.17853
4.72552
4.19843
3.80905
3.66757
3.56589
3.56683
3.60913
3.66086
3.70571
3.71673
3.71884
3.72527
3.73663
3.76161
2.65834
1.72422
1.09983
0.786707
0.736634
0.710495
0.678777
0.68733
0.751841
0.845301
0.901766
0.962411
1.02774
1.03414
1.01975
1.01098
1.02686
1.06625
1.08744
1.08684
1.07657
1.05143
1.04195
1.09698
1.5052
2.81322
4.64022
6.86358
8.87719
9.30351
8.60602
7.58969
6.91419
6.5756
6.36706
6.13989
5.8637
5.6024
5.37883
5.17819
4.99817
4.83658
4.68053
4.52999
4.38984
4.25521
4.10625
3.92266
3.71893
3.53553
3.41124
3.33813
3.27797
3.21994
3.164
3.10392
3.02602
2.92182
2.79502
2.6444
2.50624
2.44167
2.41015
2.37882
2.34521
2.3161
2.28379
2.22723
2.14123
2.01505
1.94205
1.96497
2.12222
2.51725
3.25403
4.0517
4.72907
5.30659
5.52571
5.45956
5.24195
4.90884
4.67866
4.52949
4.46682
4.42651
4.38074
4.32442
4.27276
4.21235
4.09662
3.92179
3.80908
3.76253
3.73811
3.68715
3.35514
2.76967
2.2274
1.69217
1.43173
1.31492
1.1471
1.00563
0.991254
0.972959
0.923881
0.91844
0.935318
0.944099
0.943176
0.947538
0.973507
1.01167
1.03606
1.04075
1.03488
1.03394
1.11048
1.57849
2.56066
3.07964
3.57744
4.28117
5.60251
6.70606
7.42583
7.42774
7.10982
6.75785
6.45871
6.16829
5.87487
5.64167
5.45692
5.26403
5.0699
4.90466
4.75229
4.60494
4.46177
4.31384
4.14926
3.96153
3.7726
3.61725
3.50193
3.41155
3.33475
3.26882
3.21247
3.1509
3.07085
2.96305
2.8292
2.68329
2.56093
2.49936
2.45985
2.42012
2.38369
2.34803
2.31093
2.25958
2.18488
2.10702
2.12805
2.2948
2.6254
2.98281
3.29392
3.67851
4.10598
4.55553
4.75457
4.86258
4.90871
4.83539
4.70446
4.58158
4.51037
4.45686
4.39738
4.34339
4.30049
4.23885
4.1207
3.94877
3.84087
3.79561
3.76994
3.71531
3.65705
3.33096
2.89028
2.4086
1.91383
1.65245
1.46018
1.22852
1.10044
1.04743
0.977591
0.91902
0.928398
0.935725
0.927771
0.925694
0.936535
0.959167
0.986061
1.00254
1.02088
1.15188
1.77478
2.65032
3.28605
3.3438
3.32361
3.3387
3.56159
4.55316
6.05963
7.1224
7.25704
7.03207
6.51863
6.1254
5.86309
5.64188
5.41058
5.16109
4.93325
4.76657
4.63327
4.50048
4.36563
4.22662
4.07405
3.91323
3.76676
3.62846
3.48977
3.36743
3.26196
3.16525
3.08594
3.03332
2.97368
2.88856
2.77573
2.66439
2.58511
2.51004
2.42666
2.35062
2.29656
2.26313
2.2422
2.22916
2.22707
2.30084
2.55416
2.90941
3.15617
3.33495
3.3894
3.42952
3.53754
3.76523
4.05982
4.38971
4.68209
4.75545
4.73386
4.65305
4.55941
4.47635
4.40932
4.3387
4.26149
4.18513
4.0818
3.96619
3.87638
3.7948
3.72448
3.65236
3.73746
3.61748
3.3278
2.96697
2.47874
2.0695
1.87364
1.64103
1.37142
1.27783
1.2012
1.05267
1.01579
1.01143
0.98499
0.95162
0.939379
0.938763
0.94276
0.95672
1.11246
1.82919
2.78037
3.25032
3.33798
3.31259
3.21755
3.08455
2.95755
3.04093
3.63072
5.08628
6.4379
6.55814
6.47593
6.201
5.95288
5.70757
5.42956
5.15401
4.91444
4.7196
4.56465
4.42825
4.3016
4.18938
4.08143
3.95777
3.82435
3.66569
3.50737
3.37576
3.25926
3.15237
3.04271
2.96518
2.91728
2.85788
2.78822
2.71435
2.63577
2.53772
2.43494
2.34927
2.28777
2.26522
2.26383
2.31624
2.53263
2.91946
3.29534
3.4608
3.50782
3.50352
3.44004
3.37106
3.31525
3.3192
3.39646
3.59157
3.98168
4.34689
4.53664
4.61257
4.61386
4.56524
4.5007
4.40058
4.27213
4.15974
4.07804
3.99484
3.90927
3.81793
3.73308
3.63869
3.74196
3.72024
3.58552
3.32545
2.98087
2.53255
2.21711
2.01674
1.77098
1.54022
1.38534
1.22848
1.12191
1.09251
1.06591
1.00468
0.955139
0.945943
0.964522
1.1637
1.9216
2.87089
3.26499
3.27622
3.24191
3.14862
3.02111
2.88735
2.80196
2.71269
2.72767
3.01878
4.13728
5.37531
6.15117
6.17358
5.99324
5.68003
5.37769
5.12543
4.87739
4.66614
4.50709
4.36567
4.23266
4.10521
3.98357
3.86006
3.73641
3.63514
3.53432
3.40745
3.27816
3.16481
3.05146
2.93252
2.85077
2.78351
2.71908
2.65838
2.59167
2.52057
2.43682
2.36706
2.32043
2.32748
2.43577
2.74841
3.18659
3.5756
3.69127
3.68338
3.63176
3.51649
3.41216
3.33279
3.26106
3.20873
3.16007
3.18143
3.32873
3.70139
4.10344
4.43092
4.57888
4.57357
4.48939
4.35284
4.22446
4.11669
4.03334
3.95907
3.90069
3.84188
3.77834
3.66382
3.72921
3.72435
3.69376
3.54964
3.29266
2.977
2.62633
2.29171
2.07392
1.88446
1.71396
1.50289
1.28761
1.24696
1.23736
1.18234
1.09461
1.10854
1.37342
2.19008
3.1155
3.39134
3.34218
3.21357
3.09994
2.9967
2.88161
2.7784
2.69795
2.62035
2.5447
2.48084
2.60143
3.21664
4.43987
5.43153
5.61633
5.56655
5.3659
5.14722
4.90871
4.66857
4.44616
4.28998
4.1852
4.0855
3.97325
3.84838
3.71548
3.57866
3.459
3.38253
3.31325
3.21727
3.08204
2.91194
2.78827
2.73383
2.69049
2.6482
2.60349
2.55059
2.49549
2.44893
2.47449
2.65154
3.04623
3.46972
3.77679
3.87146
3.85699
3.79303
3.67929
3.53598
3.41051
3.32073
3.25014
3.18128
3.11991
3.09864
3.10232
3.19589
3.49319
3.8634
4.24801
4.37812
4.36557
4.26839
4.18504
4.10292
4.02455
3.96308
3.905
3.85748
3.81862
3.71421
3.72755
3.73052
3.71422
3.66714
3.52762
3.26901
2.97929
2.70231
2.36236
2.08726
1.98146
1.84874
1.65236
1.40937
1.33825
1.30197
1.34899
1.69661
2.67006
3.56334
3.6879
3.55043
3.32905
3.15272
3.04847
2.94672
2.83147
2.73914
2.65903
2.58022
2.4845
2.40968
2.29895
2.30537
2.57966
3.50389
4.53947
5.18658
5.26384
5.19373
4.97866
4.70007
4.44496
4.26433
4.13382
4.02284
3.90418
3.77476
3.64861
3.54189
3.45457
3.36644
3.26669
3.16515
3.04041
2.89608
2.78817
2.71115
2.63807
2.58047
2.53972
2.52933
2.55173
2.65819
2.97354
3.43515
3.74987
3.88899
3.96193
3.93319
3.85988
3.77904
3.69033
3.58282
3.45693
3.3341
3.2459
3.17543
3.11542
3.07971
3.06763
3.06671
3.1234
3.28887
3.55817
3.89426
4.12361
4.15687
4.12198
4.07302
4.03823
3.99741
3.95244
3.91147
3.85627
3.70381
3.73757
3.73784
3.7338
3.71754
3.65816
3.51268
3.25021
2.99595
2.74348
2.46229
2.14182
2.0369
1.92683
1.74208
1.57503
1.6844
2.24562
3.31478
4.16208
4.16029
3.97085
3.68691
3.42134
3.23721
3.10078
2.9733
2.84001
2.74566
2.65707
2.5654
2.46709
2.38094
2.27697
2.19022
2.10276
2.19373
2.68525
3.68014
4.54713
4.86707
4.86783
4.71951
4.50182
4.28521
4.09216
3.94328
3.81733
3.70607
3.61136
3.51712
3.42016
3.32325
3.23449
3.14025
3.0274
2.90059
2.77365
2.6796
2.60961
2.58456
2.57613
2.64509
2.92213
3.39427
3.87833
4.05041
4.08648
4.08705
4.02893
3.94712
3.86294
3.78758
3.71521
3.62505
3.4944
3.34185
3.23463
3.17065
3.13022
3.09642
3.07214
3.04665
3.03493
3.01083
3.04656
3.17474
3.46982
3.75619
3.88813
3.98236
4.06608
4.06135
4.02553
3.97387
3.89779
3.71509
3.73048
3.7277
3.72316
3.71658
3.69935
3.63141
3.48453
3.23749
3.00833
2.77804
2.50666
2.26287
2.08468
2.01421
2.26254
3.20079
4.324
4.79781
4.70072
4.41109
4.09902
3.82353
3.58997
3.4038
3.2393
3.08256
2.92624
2.78867
2.65958
2.54734
2.46362
2.37917
2.28221
2.16979
2.07944
1.98392
1.98429
2.20497
2.9599
3.87924
4.54502
4.6177
4.55499
4.30871
4.0506
3.87164
3.75214
3.65911
3.57764
3.48603
3.38306
3.27823
3.18742
3.09714
2.99898
2.88011
2.75347
2.67676
2.63536
2.64987
2.82427
3.25449
3.81829
4.25405
4.32266
4.25964
4.16289
4.06457
3.99571
3.93272
3.86813
3.80137
3.73144
3.64422
3.51145
3.34964
3.24456
3.19497
3.15528
3.11267
3.07331
3.03774
3.00468
2.96857
2.88983
2.83201
2.90456
3.16665
3.50899
3.79365
3.99416
4.07414
4.05107
4.00893
3.93255
3.72155
3.75512
3.74562
3.72975
3.70357
3.69134
3.67293
3.60479
3.45292
3.25087
2.98372
2.76742
2.49566
2.52537
3.03477
4.2747
5.47848
5.6045
5.38941
5.0161
4.65507
4.33128
4.04265
3.78595
3.56153
3.36323
3.18483
3.02397
2.87697
2.73468
2.59455
2.4773
2.36168
2.2562
2.16016
2.07827
1.98758
1.9176
1.84921
1.92378
2.33669
3.22146
4.05993
4.27068
4.22386
4.04245
3.86089
3.73748
3.6444
3.55616
3.46041
3.35731
3.24807
3.13876
3.02885
2.93521
2.84292
2.77608
2.71211
2.7655
3.07921
3.70449
4.22215
4.57648
4.62691
4.5656
4.38144
4.15934
4.04133
3.97414
3.91552
3.85759
3.7984
3.73155
3.64861
3.53334
3.3921
3.2769
3.21488
3.1701
3.12617
3.08195
3.04135
3.00347
2.95847
2.86886
2.75741
2.72319
2.78352
3.00305
3.35707
3.73516
3.93761
3.93295
3.9071
3.85889
3.68808
3.78301
3.81816
3.78927
3.74078
3.70612
3.70098
3.68046
3.61364
3.44399
3.24192
3.00511
3.19307
4.22368
5.71151
6.43516
6.37642
6.03023
5.62451
5.25379
4.91288
4.59065
4.28235
3.99248
3.72951
3.49452
3.27901
3.08516
2.91725
2.77679
2.65257
2.53732
2.41457
2.29303
2.17518
2.06988
1.99054
1.90577
1.82634
1.75316
1.75703
1.96021
2.60969
3.392
3.87014
3.93029
3.87508
3.76351
3.64959
3.53649
3.42851
3.31962
3.20458
3.09589
2.98839
2.91076
2.84138
2.84173
2.99221
3.45016
4.14189
4.60432
4.7103
4.70154
4.65067
4.527
4.36235
4.18858
4.07275
3.98495
3.90493
3.83648
3.77378
3.70578
3.62782
3.54546
3.44897
3.34219
3.24808
3.18247
3.13224
3.08406
3.03721
2.99423
2.94802
2.87288
2.75348
2.67522
2.66867
2.70422
2.87229
3.18806
3.59604
3.78773
3.80012
3.77369
3.64985
3.58171
3.74856
3.72188
3.69143
3.70146
3.72222
3.71204
3.67061
3.54335
3.55568
4.15894
5.74614
7.20876
7.63714
7.42026
6.85532
6.30977
5.85418
5.46997
5.11726
4.78339
4.46715
4.16746
3.88875
3.6352
3.40263
3.19597
3.01554
2.84621
2.6826
2.5394
2.42805
2.33385
2.23625
2.13342
2.02034
1.90428
1.80576
1.72675
1.68297
1.65319
1.71851
2.09637
2.81432
3.45318
3.60497
3.61961
3.55293
3.44456
3.34603
3.24787
3.15508
3.05388
2.98065
2.92806
2.99855
3.35135
3.97257
4.55773
4.97541
5.00719
4.93084
4.77219
4.60495
4.46099
4.33347
4.21821
4.11757
4.0168
3.91786
3.82958
3.74666
3.6709
3.59625
3.5272
3.46599
3.39649
3.30295
3.20812
3.14221
3.08979
3.03732
2.98432
2.93197
2.86926
2.78543
2.68459
2.62795
2.62474
2.63938
2.74131
2.98766
3.32724
3.53303
3.60705
3.59199
2.51827
3.3959
3.67028
3.76427
3.77177
3.74981
3.69776
3.70192
3.95777
5.24301
7.49131
8.47406
8.3417
8.07293
7.60628
7.11436
6.59924
6.08959
5.641
5.26121
4.92612
4.61135
4.30547
4.01137
3.74217
3.50392
3.28895
3.08755
2.90564
2.75768
2.62151
2.47689
2.34092
2.22269
2.12657
2.05052
1.96323
1.84588
1.73093
1.64284
1.60379
1.58135
1.59828
1.77191
2.30851
2.94829
3.34315
3.43598
3.39787
3.30636
3.18887
3.12334
3.05157
3.08808
3.3072
3.86
4.5307
4.90878
5.03144
5.05622
5.00522
4.92615
4.80943
4.63075
4.45375
4.32809
4.24119
4.15984
4.06415
3.957
3.84525
3.72867
3.62524
3.5649
3.52276
3.48268
3.43232
3.35575
3.24948
3.1484
3.09044
3.0494
3.01165
2.96643
2.91203
2.83154
2.72815
2.64181
2.59359
2.58236
2.58464
2.6397
2.7925
3.02521
3.2537
3.43034
1.35133
2.26336
3.17252
3.64469
3.68361
3.69694
3.91116
4.74301
6.56987
8.71136
9.86595
9.75344
9.0241
8.27288
7.74551
7.27108
6.78666
6.28194
5.79418
5.37265
5.02763
4.72078
4.41075
4.10426
3.8213
3.57239
3.36325
3.17844
2.98126
2.78936
2.64685
2.54139
2.43021
2.31007
2.1868
2.05721
1.9396
1.85116
1.76851
1.66017
1.59856
1.56895
1.53034
1.51077
1.58179
1.90311
2.49589
2.96957
3.21291
3.21767
3.17634
3.19353
3.42893
3.89994
4.54596
5.13817
5.41095
5.40407
5.2909
5.1034
4.94557
4.85979
4.76775
4.62762
4.4648
4.32725
4.22693
4.15327
4.07534
3.97827
3.86187
3.74017
3.63926
3.56903
3.51255
3.46101
3.41404
3.36917
3.29364
3.19933
3.12086
3.04774
2.98067
2.92399
2.86578
2.80932
2.74988
2.67777
2.61755
2.57571
2.55107
2.53703
2.55226
2.61799
2.76755
3.11423
1.02137
1.2344
2.02749
3.07433
3.63444
4.08572
5.82694
7.85762
9.38686
10.0301
10.0029
9.8238
9.38421
8.67605
7.99302
7.38944
6.87472
6.41406
5.96585
5.52675
5.12974
4.77811
4.46516
4.16125
3.88316
3.64505
3.4489
3.26756
3.06339
2.86535
2.69549
2.53951
2.39344
2.26402
2.15167
2.03891
1.9493
1.87497
1.77942
1.6885
1.62091
1.56207
1.48756
1.43062
1.3931
1.41323
1.58916
2.04281
2.63383
3.05989
3.34708
3.81072
4.62486
5.1778
5.48906
5.57392
5.52929
5.45402
5.32646
5.15518
4.98685
4.84176
4.72333
4.59974
4.48443
4.38684
4.29645
4.20866
4.11176
3.98951
3.86831
3.7769
3.69984
3.61925
3.54271
3.47558
3.40695
3.33578
3.27434
3.21875
3.15475
3.06935
2.98356
2.91975
2.86529
2.79851
2.7433
2.71457
2.67678
2.62335
2.56206
2.5061
2.47492
2.4541
2.47956
2.72259
1.00028
1.01448
1.19233
1.98488
3.97882
5.70016
8.43044
9.89091
10.8828
10.6994
10.1311
9.75576
9.46605
8.90322
8.18196
7.4853
6.88481
6.39549
6.06032
5.7734
5.40063
4.9816
4.57886
4.21047
3.90666
3.6548
3.41339
3.22783
3.1348
3.0139
2.82322
2.60546
2.42377
2.28506
2.1814
2.08228
1.96011
1.86598
1.82965
1.77775
1.68664
1.58322
1.48749
1.42159
1.3776
1.34859
1.35808
1.45468
1.85347
2.82362
3.90831
4.81682
5.66708
6.03766
6.03815
5.92843
5.64838
5.36336
5.24018
5.1239
5.00503
4.85851
4.70293
4.57345
4.48039
4.38501
4.26635
4.14343
4.03438
3.93049
3.84061
3.76412
3.68278
3.59431
3.5054
3.44648
3.40824
3.36872
3.32526
3.27598
3.21153
3.12148
3.01424
2.91944
2.85556
2.80761
2.76574
2.71767
2.65999
2.60049
2.54939
2.49551
2.44664
2.41533
2.41179
2.4981
1.00064
1.01335
1.16372
1.87649
3.51738
6.29783
8.30771
9.71819
10.9441
10.5276
9.82114
9.57284
9.33501
8.92601
8.31495
7.64261
7.02569
6.5314
6.09764
5.66132
5.24935
4.83348
4.48455
4.25211
4.019
3.76214
3.51299
3.30055
3.11008
2.92774
2.7382
2.53182
2.4097
2.35727
2.28253
2.17789
2.03735
1.90087
1.79218
1.71259
1.62305
1.53764
1.50014
1.46549
1.4212
1.36968
1.37285
1.46595
1.84755
2.65857
3.92646
5.0676
5.57764
6.00388
6.08327
5.86394
5.49477
5.27926
5.19662
5.11005
5.0039
4.86383
4.73474
4.63946
4.53651
4.41361
4.26858
4.12771
4.00221
3.9153
3.85913
3.79264
3.69754
3.59301
3.51371
3.45389
3.38697
3.32677
3.28168
3.23531
3.18023
3.11297
3.03319
2.938
2.84954
2.79267
2.75137
2.70654
2.65784
2.59836
2.54589
2.50292
2.45822
2.41459
2.41693
2.50493
1.03042
1.27949
1.99788
2.97645
3.33563
4.48152
5.77272
7.82066
9.50541
9.85608
9.80536
9.6452
9.23837
8.61964
8.0266
7.48046
6.96882
6.50115
6.03782
5.58483
5.17688
4.81915
4.47329
4.12987
3.83939
3.60423
3.39807
3.20813
3.02819
2.87936
2.72858
2.57114
2.42857
2.29022
2.17004
2.06904
1.97971
1.88403
1.77475
1.68322
1.60971
1.53393
1.45918
1.42304
1.40681
1.42803
1.61561
2.06108
2.70704
2.93477
3.33718
4.02398
4.47933
5.17257
5.54688
5.51581
5.47009
5.39199
5.2858
5.13969
5.01493
4.89532
4.76337
4.6255
4.49542
4.36918
4.25127
4.13838
4.03489
3.9399
3.83193
3.74152
3.68523
3.62274
3.55305
3.47843
3.39882
3.32606
3.27232
3.22787
3.18272
3.13081
3.05695
2.95467
2.85644
2.79574
2.76094
2.72328
2.67905
2.62356
2.56083
2.50395
2.47529
2.46782
2.4984
2.73968
1.42519
2.27656
3.22961
3.6565
3.60823
3.66785
3.86782
4.68026
6.59575
8.86406
9.74614
9.62252
8.96977
8.27258
7.81688
7.37452
6.8806
6.35678
5.84888
5.39689
5.007
4.66581
4.34384
4.03715
3.769
3.55324
3.38034
3.21703
3.0359
2.83369
2.63388
2.47853
2.36498
2.26238
2.14796
2.02838
1.94849
1.88757
1.8099
1.70818
1.61772
1.54141
1.47552
1.45458
1.51983
1.86514
2.47117
2.99865
3.24144
3.21214
3.17743
3.21218
3.32773
3.76806
4.51
5.14338
5.38585
5.44157
5.32106
5.1345
4.97651
4.86811
4.7496
4.59663
4.44775
4.32782
4.23252
4.14574
4.05597
3.96258
3.85766
3.73532
3.6359
3.56541
3.50783
3.45841
3.40377
3.33366
3.25416
3.17948
3.11579
3.06323
3.01916
2.97541
2.91253
2.83732
2.74422
2.66598
2.61655
2.58038
2.55425
2.52578
2.53919
2.63566
2.81697
3.17303
2.71492
3.28416
3.60508
3.7527
3.74596
3.74303
3.7311
3.74942
4.03219
5.44932
7.61399
8.37076
8.36253
8.13911
7.72554
7.20022
6.6285
6.08317
5.60641
5.20109
4.84973
4.53118
4.23766
3.97769
3.75051
3.54413
3.3425
3.13886
2.93747
2.75002
2.5903
2.44828
2.3093
2.20252
2.12605
2.04336
1.95065
1.863
1.78226
1.68981
1.6089
1.55401
1.57423
1.77108
2.27805
2.93136
3.3571
3.46444
3.43889
3.37262
3.22192
3.0907
2.98191
3.01299
3.27148
3.94782
4.61296
5.07092
5.10954
5.09801
5.02085
4.89497
4.72576
4.54597
4.40084
4.30924
4.2472
4.18936
4.11456
4.00022
3.84685
3.70756
3.61728
3.5572
3.51098
3.46515
3.4061
3.32961
3.23935
3.15229
3.08774
3.04053
2.99223
2.93737
2.88363
2.82118
2.74291
2.66811
2.61433
2.58987
2.58989
2.62866
2.77984
3.04413
3.31326
3.51904
3.6828
3.67312
3.6042
3.62339
3.67484
3.72334
3.71816
3.68191
3.56548
3.59455
4.20819
5.6933
7.24403
7.67626
7.44535
6.85934
6.2835
5.80526
5.40492
5.04729
4.71511
4.40725
4.13097
3.88534
3.66346
3.46156
3.26874
3.07614
2.89103
2.71765
2.55476
2.40976
2.28938
2.19331
2.10366
2.01074
1.91242
1.82893
1.75252
1.69149
1.6547
1.72192
2.11851
2.80861
3.43129
3.661
3.67104
3.60183
3.49016
3.36931
3.22916
3.07392
2.96274
2.94036
2.93935
3.06259
3.47996
4.13033
4.68804
4.99424
4.98983
4.86976
4.67133
4.53532
4.43248
4.36167
4.27894
4.18421
4.0852
3.9642
3.81377
3.69152
3.61294
3.55602
3.50781
3.45648
3.39614
3.32559
3.24234
3.15314
3.0766
3.02072
2.97332
2.92156
2.86093
2.79232
2.73226
2.68782
2.65035
2.6566
2.72755
2.92338
3.24963
3.46473
3.57428
3.65083
3.80772
3.80344
3.7498
3.71774
3.71762
3.71846
3.68641
3.6034
3.42772
3.23825
3.00595
3.17502
4.19882
5.73639
6.44378
6.34139
5.98529
5.58696
5.20941
4.85887
4.54004
4.25401
3.99838
3.7649
3.54747
3.34872
3.16537
2.98018
2.80487
2.64385
2.50142
2.37159
2.2568
2.153
2.06205
1.97944
1.89614
1.83339
1.78186
1.78206
1.96621
2.59455
3.42346
3.81043
3.93206
3.90529
3.78813
3.66385
3.53624
3.40586
3.26089
3.09926
3.0038
2.94503
2.90272
2.88383
2.91362
3.08491
3.5596
4.12225
4.53151
4.58354
4.58773
4.57705
4.5084
4.41283
4.29062
4.17123
4.06028
3.9302
3.78747
3.67787
3.60204
3.54644
3.49795
3.44813
3.39377
3.33138
3.25316
3.16013
3.07659
3.01236
2.95299
2.88784
2.82269
2.7733
2.75172
2.73053
2.75582
2.88343
3.16082
3.46432
3.64086
3.66048
3.69711
3.70923
3.77753
3.74475
3.71287
3.69775
3.69029
3.67795
3.60978
3.45363
3.24628
2.98166
2.76558
2.49221
2.51932
3.02734
4.25409
5.40674
5.59136
5.38768
5.01573
4.65025
4.33344
4.06593
3.83027
3.6158
3.41281
3.22681
3.05711
2.87841
2.70358
2.54686
2.42243
2.31469
2.2246
2.13879
2.07092
1.99563
1.94586
1.89016
1.9492
2.37373
3.18649
3.98809
4.1829
4.1237
4.0232
3.91181
3.79972
3.69873
3.59176
3.4651
3.31436
3.16719
3.06789
2.99054
2.92695
2.86478
2.82779
2.77701
2.8145
3.06163
3.58401
4.12515
4.42772
4.5558
4.54734
4.4436
4.29991
4.17624
4.05761
3.91517
3.76932
3.65836
3.58565
3.53637
3.49138
3.44438
3.39292
3.33419
3.26721
3.18782
3.08484
2.98262
2.90644
2.84875
2.80125
2.78928
2.80214
2.8921
3.10953
3.44208
3.76205
3.85734
3.79024
3.72271
3.69219
3.66618
3.73597
3.72612
3.71904
3.71225
3.69763
3.63361
3.48862
3.23898
3.00527
2.77349
2.50459
2.26066
2.08185
2.01299
2.25451
3.1624
4.32107
4.80645
4.70837
4.42261
4.11585
3.85411
3.638
3.45166
3.26733
3.09403
2.93407
2.77516
2.61653
2.48861
2.3981
2.3266
2.25461
2.16949
2.10399
2.02749
2.0392
2.26943
2.95979
3.93851
4.41362
4.47923
4.413
4.22887
4.07131
3.94264
3.83163
3.73271
3.63694
3.51405
3.35924
3.22129
3.12553
3.04489
2.96846
2.88926
2.8136
2.74395
2.66371
2.6489
2.77302
3.19775
3.75646
4.15847
4.3477
4.36621
4.32224
4.21917
4.0845
3.91615
3.75162
3.63135
3.56742
3.52727
3.48519
3.44108
3.39419
3.34005
3.2755
3.18236
3.05207
2.93296
2.86831
2.83636
2.83321
2.86884
3.04293
3.38288
3.74137
4.02457
4.05873
4.00395
3.8481
3.73503
3.69644
3.63193
3.73912
3.73753
3.73142
3.71304
3.6574
3.51461
3.25278
2.99617
2.74015
2.45914
2.14221
2.03858
1.92626
1.73947
1.5738
1.68081
2.25829
3.35958
4.17165
4.16446
3.98631
3.71418
3.46285
3.26979
3.09727
2.95377
2.83263
2.72409
2.59962
2.49317
2.40081
2.34488
2.27542
2.21117
2.155
2.25982
2.82667
3.80832
4.62497
4.81627
4.7421
4.57321
4.39108
4.24598
4.1348
4.02802
3.91954
3.80484
3.6737
3.51619
3.36577
3.25608
3.17304
3.09733
3.01839
2.93072
2.84287
2.7535
2.64804
2.58228
2.55289
2.61359
2.87711
3.34386
3.83531
4.20972
4.25365
4.22867
4.11031
3.92447
3.75065
3.62133
3.55032
3.51327
3.47305
3.43169
3.38997
3.33953
3.26808
3.16428
3.02495
2.90772
2.87441
2.87758
2.9674
3.23263
3.64973
4.03454
4.19138
4.18746
4.12581
3.98175
3.84694
3.75894
3.71145
3.62815
3.73003
3.73186
3.71433
3.67
3.52868
3.26833
2.97837
2.70107
2.3585
2.08936
1.98481
1.8491
1.65063
1.40768
1.33866
1.30315
1.35153
1.72171
2.68649
3.55753
3.71227
3.57859
3.34603
3.16572
3.02964
2.91097
2.81516
2.73151
2.63373
2.53098
2.43786
2.38735
2.32264
2.34041
2.64187
3.59747
4.72757
5.27453
5.23365
5.06954
4.8066
4.58973
4.40741
4.28889
4.20103
4.11494
4.00793
3.86973
3.68339
3.49871
3.37231
3.28846
3.21084
3.13721
3.07021
3.00719
2.92452
2.81562
2.68946
2.57696
2.51247
2.48265
2.48642
2.60889
2.9402
3.47869
3.87757
4.02187
4.02146
3.95356
3.80951
3.65252
3.55549
3.50313
3.45587
3.40837
3.3621
3.30731
3.23508
3.1401
3.01709
2.92651
2.94663
3.09041
3.42417
3.84884
4.23393
4.35231
4.34146
4.25843
4.10903
3.96076
3.86656
3.79929
3.74611
3.64399
3.72839
3.72383
3.69331
3.54899
3.29227
2.97695
2.6259
2.29157
2.07477
1.8858
1.71532
1.50116
1.28817
1.24919
1.23862
1.18214
1.09356
1.10985
1.37606
2.17302
3.12051
3.40306
3.33599
3.18949
3.05275
2.93921
2.85287
2.78514
2.71426
2.61636
2.52924
2.48138
2.59702
3.26509
4.4766
5.55326
5.65012
5.54121
5.30838
5.05568
4.84291
4.64983
4.48942
4.37221
4.262
4.16946
4.06561
3.89042
3.6687
3.4884
3.38459
3.31332
3.25023
3.1891
3.11245
3.00965
2.89368
2.77692
2.69141
2.61368
2.53235
2.46457
2.41107
2.38687
2.43016
2.66551
3.12286
3.53736
3.84941
3.88968
3.84578
3.70054
3.57088
3.4806
3.42265
3.37276
3.3234
3.2727
3.21939
3.15006
3.06384
3.10529
3.32872
3.67723
4.04317
4.32492
4.42324
4.39874
4.3085
4.17716
4.0614
3.96952
3.89964
3.84888
3.79101
3.66572
3.7419
3.72018
3.58584
3.32629
2.98
2.53178
2.21991
2.01732
1.76924
1.54087
1.3857
1.22751
1.12292
1.09353
1.06624
1.00365
0.954765
0.945382
0.962718
1.15886
1.88174
2.9103
3.27809
3.23899
3.16562
3.0768
2.98355
2.90726
2.84662
2.75502
2.76531
3.08442
4.16526
5.46861
6.12415
6.09374
5.90058
5.57453
5.27259
5.06302
4.89409
4.72946
4.57921
4.46374
4.34499
4.19733
4.02977
3.84476
3.67673
3.54714
3.43896
3.34746
3.27117
3.19587
3.11791
3.02882
2.9045
2.77947
2.70298
2.64792
2.58453
2.50411
2.41342
2.33909
2.3149
2.34385
2.49346
2.79518
3.23202
3.60648
3.69149
3.66225
3.59312
3.49761
3.41013
3.32857
3.25984
3.24168
3.22339
3.25453
3.37817
3.6915
4.07308
4.34066
4.528
4.52481
4.44299
4.32419
4.20579
4.10954
4.03406
3.96829
3.91789
3.87816
3.82895
3.70047
3.73752
3.61729
3.32856
2.96675
2.4765
2.072
1.87593
1.63797
1.37193
1.28021
1.20036
1.05125
1.01715
1.01182
0.984261
0.951075
0.939396
0.938634
0.942401
0.955694
1.10933
1.77731
2.89586
3.23155
3.26966
3.24919
3.17654
3.06532
2.99592
3.10171
3.75485
5.25544
6.51271
6.55216
6.40621
6.08427
5.80771
5.55719
5.33436
5.19333
5.05
4.88224
4.71179
4.52312
4.32499
4.14881
3.98494
3.81556
3.68415
3.59931
3.51736
3.4371
3.35434
3.26642
3.15225
3.00822
2.87156
2.77517
2.71565
2.65928
2.60014
2.53095
2.44427
2.36371
2.29715
2.26705
2.25564
2.30387
2.49961
2.90856
3.26493
3.49183
3.54207
3.51645
3.43458
3.3323
3.28096
3.29113
3.4001
3.66853
4.05326
4.42842
4.62295
4.66887
4.63399
4.52673
4.36931
4.22936
4.14038
4.08775
4.05244
4.02335
3.99422
3.95895
3.90114
3.72527
3.65697
3.33105
2.89082
2.40698
1.91374
1.65461
1.46
1.22679
1.10232
1.04824
0.976046
0.919245
0.929542
0.935666
0.927031
0.925351
0.936853
0.95941
0.986333
1.00165
1.02
1.14261
1.77474
2.73865
3.29626
3.31687
3.30301
3.31308
3.54203
4.56953
6.21189
7.20278
7.24262
6.95149
6.37886
5.99355
5.78334
5.60946
5.42845
5.24692
5.04989
4.85599
4.67137
4.49434
4.31519
4.14156
3.97772
3.82867
3.73631
3.65405
3.5543
3.43799
3.31616
3.2082
3.10579
2.98298
2.86909
2.79581
2.74387
2.69119
2.63272
2.56184
2.48611
2.41274
2.32492
2.24074
2.17888
2.14619
2.15732
2.26247
2.57446
2.9634
3.31216
3.40164
3.38312
3.37946
3.44356
3.60262
3.95193
4.38679
4.71593
4.89203
4.90643
4.84981
4.69171
4.47953
4.2791
4.17946
4.12347
4.07959
4.03837
4.00399
3.97301
3.93522
3.88041
3.71877
3.35507
2.77062
2.22615
1.69045
1.4344
1.31594
1.14474
1.00553
0.991774
0.972764
0.923224
0.918836
0.936112
0.943896
0.942446
0.947263
0.973919
1.01204
1.03601
1.04056
1.03469
1.03333
1.11001
1.63795
2.59649
3.06607
3.6015
4.3101
5.57096
6.7545
7.55609
7.44334
7.07624
6.67771
6.35609
6.10458
5.90953
5.73953
5.57014
5.37766
5.15257
4.90898
4.67755
4.48397
4.33027
4.19398
4.06578
3.96394
3.87253
3.7658
3.64144
3.5048
3.3596
3.20892
3.08565
2.99879
2.92968
2.87629
2.82611
2.77142
2.71087
2.64499
2.57541
2.49371
2.38048
2.2493
2.1511
2.09541
2.07107
2.08111
2.1538
2.38124
2.79968
3.1554
3.35842
3.67305
4.03496
4.2524
4.50766
4.74251
4.95097
5.00502
4.94221
4.81055
4.63366
4.41183
4.23112
4.17631
4.14354
4.11478
4.08283
4.04264
4.00047
3.94586
3.87745
3.72818
2.65855
1.7239
1.09842
0.788564
0.738367
0.709499
0.677056
0.686547
0.752346
0.84569
0.901825
0.96328
1.02813
1.03391
1.01886
1.01048
1.02691
1.06647
1.08747
1.08697