/*--------------------------------*- C++ -*----------------------------------*\
  =========                 |
  \\      /  F ield         | OpenFOAM: The Open Source CFD Toolbox
   \\    /   O peration     | Website:  https://openfoam.org
    \\  /    A nd           | Version:  7
     \\/     M anipulation  |
\*---------------------------------------------------------------------------*/
FoamFile
{
    version     2.0;
    format      ascii;
    class       volScalarField;
    location    "3.8";
    object      rho;
}
// * * * * * * * * * * * * * * * * * * * * * * * * * * * * * * * * * * * * * //

dimensions      [1 -3 0 0 0 0 0];

internalField   nonuniform List<scalar> 
4608
(
1.40001
1.40001
1.40001
1.40001
1.40001
1.40001
1.40001
1.40001
1.40001
1.40001
1.40001
1.40001
1.40001
1.40001
1.40001
1.40001
1.40001
1.40001
1.40001
1.40001
1.40001
1.40001
1.40001
1.40001
1.40001
1.40001
1.40001
1.40001
1.40001
1.40001
1.40001
1.40001
1.40001
1.40001
1.40001
1.40001
1.40001
1.40001
1.40001
1.40001
1.40001
1.40001
1.40001
1.40001
1.40001
1.40001
1.40001
1.40001
1.40001
1.40001
1.40001
1.40001
1.40001
1.40001
1.40001
1.40001
1.40001
1.40001
1.40001
1.40001
1.40001
1.40001
1.40001
1.40001
1.40001
1.40001
1.40001
1.40001
1.40001
1.40001
1.40001
1.40001
1.40001
1.40001
1.40001
1.40001
1.40001
1.40001
1.40001
1.40001
1.40001
1.40001
1.40001
1.40001
1.40001
1.40001
1.40001
1.40001
1.40001
1.40001
1.40001
1.40001
1.40001
1.40001
1.40001
1.40001
1.40001
1.40001
1.40001
1.40001
1.40001
1.40001
1.40001
1.40001
1.40001
1.40001
1.40001
1.40001
1.40001
1.40001
1.40001
1.40001
1.40001
1.40001
1.40001
1.40001
1.40001
1.40001
1.40001
1.40001
1.40001
1.40001
1.40001
1.40001
1.40001
1.40001
1.40001
1.40001
1.40001
1.40001
1.40001
1.40001
1.40001
1.40001
1.40001
1.40001
1.40001
1.40001
1.40001
1.40001
1.40001
1.40001
1.40001
1.40001
1.40001
1.40001
1.40001
1.40001
1.40001
1.40001
1.40001
1.40001
1.40001
1.40001
1.40001
1.40001
1.40001
1.40001
1.40001
1.40001
1.40001
1.40001
1.40001
1.40001
1.40001
1.40001
1.40001
1.40001
1.40001
1.40001
1.40001
1.40001
1.40001
1.40001
1.40001
1.40001
1.40001
1.40001
1.40001
1.40001
1.40001
1.40001
1.40001
1.40001
1.40001
1.40001
1.40001
1.40001
1.40001
1.40001
1.40001
1.40001
1.40001
1.40001
1.40001
1.40001
1.40001
1.40001
1.40001
1.40001
1.40001
1.40001
1.40001
1.40001
1.40001
1.40001
1.40001
1.40001
1.40001
1.40001
1.40001
1.40001
1.40001
1.40001
1.40001
1.40001
1.40001
1.40001
1.40001
1.40001
1.40001
1.40001
1.40001
1.40001
1.40001
1.40001
1.40001
1.40001
1.40001
1.40001
1.40001
1.40001
1.40001
1.40001
1.40001
1.40001
1.40001
1.40001
1.40001
1.40001
1.40001
1.40001
1.40001
1.40001
1.40001
1.40001
1.40001
1.40001
1.40001
1.40001
1.40001
1.40001
1.40001
1.40001
1.40001
1.40001
1.40001
1.40001
1.40001
1.40001
1.40001
1.40001
1.40001
1.40001
1.40001
1.40001
1.40001
1.40001
1.40001
1.40001
1.40001
1.40001
1.40001
1.40001
1.40001
1.40001
1.40001
1.40001
1.40001
1.40001
1.40001
1.40001
1.40001
1.40001
1.40001
1.40001
1.40001
1.40001
1.40001
1.40001
1.40001
1.40001
1.40001
1.40001
1.40001
1.40001
1.40001
1.40001
1.40001
1.40001
1.40001
1.40001
1.40001
1.40001
1.40001
1.40001
1.40001
1.40001
1.40001
1.40001
1.40001
1.40001
1.40001
1.40001
1.40001
1.40001
1.40001
1.40001
1.40001
1.40001
1.40001
1.40001
1.40001
1.40001
1.40001
1.40001
1.40001
1.40001
1.40001
1.40001
1.40001
1.40001
1.40001
1.40001
1.40001
1.40001
1.40001
1.40001
1.40001
1.40001
1.40001
1.40001
1.40001
1.40001
1.40001
1.40001
1.40001
1.40001
1.40001
1.40001
1.40001
1.40001
1.40001
1.40001
1.40001
1.40001
1.40001
1.40001
1.40001
1.40001
1.40001
1.40001
1.40001
1.40001
1.40001
1.40001
1.40001
1.40001
1.40001
1.40001
1.40001
1.40001
1.40001
1.40001
1.40001
1.40001
1.40001
1.40001
1.40001
1.40001
1.40001
1.40001
1.40001
1.40001
1.40001
1.40001
1.40001
1.40001
1.40001
1.40001
1.40001
1.40001
1.40001
1.40001
1.40001
1.40001
1.40001
1.40001
1.40001
1.40001
1.40001
1.40001
1.40001
1.40001
1.40001
1.40001
1.40001
1.40001
1.40001
1.40001
1.40001
1.40001
1.40001
1.40001
1.40001
1.40001
1.40001
1.40001
1.40001
1.40001
1.40001
1.40001
1.40001
1.40001
1.40001
1.40001
1.40001
1.40001
1.40001
1.40001
1.40001
1.40001
1.40001
1.40001
1.40001
1.40001
1.40001
1.40001
1.40001
1.40001
1.40001
1.40001
1.40001
1.40001
1.40001
1.40001
1.40001
1.40001
1.40001
1.40001
1.40001
1.40001
1.40001
1.40001
1.40001
1.40001
1.40001
1.40001
1.40001
1.40001
1.40001
1.40001
1.40001
1.40001
1.40001
1.40001
1.40001
1.40001
1.40001
1.40001
1.40001
1.40001
1.40001
1.40001
1.40001
1.40001
1.40001
1.40001
1.40001
1.40001
1.40001
1.40001
1.40001
1.40001
1.40001
1.40001
1.40001
1.40001
1.40001
1.40001
1.40001
1.40001
1.40001
1.40001
1.40001
1.40001
1.40001
1.40001
1.40001
1.40001
1.40001
1.40001
1.40001
1.40001
1.40001
1.40001
1.40001
1.40001
1.40001
1.40001
1.40001
1.40001
1.40001
1.40001
1.40001
1.40001
1.40001
1.40001
1.40001
1.40001
1.40001
1.40001
1.40001
1.40001
1.40001
1.40001
1.40001
1.40001
1.40001
1.40001
1.40001
1.40001
1.40001
1.40001
1.40001
1.40001
1.40001
1.40001
1.40001
1.40001
1.40001
1.40001
1.40001
1.40001
1.40001
1.40001
1.40001
1.40001
1.40001
1.40001
1.40001
1.40001
1.40001
1.40001
1.40001
1.40001
1.40001
1.40001
1.40001
1.40001
1.40001
1.40001
1.40001
1.40001
1.40001
1.40001
1.40001
1.40001
1.40001
1.40001
1.40001
1.40001
1.40001
1.40001
1.40001
1.40001
1.40001
1.40001
1.40001
1.40001
1.40001
1.40001
1.40001
1.40001
1.40001
1.40001
1.40001
1.40001
1.40001
1.40001
1.40001
1.40001
1.40001
1.40001
1.40001
1.40001
1.40001
1.40001
1.40001
1.40001
1.40001
1.40001
1.40001
1.40001
1.40001
1.40001
1.40001
1.40001
1.40001
1.40001
1.40001
1.40001
1.40001
1.40001
1.40001
1.40001
1.40001
1.40001
1.40001
1.40001
1.40001
1.40001
1.40001
1.40001
1.40001
1.40001
1.40001
1.40001
1.40001
1.40001
1.40001
1.40001
1.40001
1.40001
1.40001
1.40001
1.40001
1.40001
1.40001
1.40001
1.40001
1.40001
1.40001
1.40001
1.40001
1.40001
1.40001
1.40001
1.40001
1.40001
1.40001
1.40001
1.40001
1.40001
1.40001
1.40001
1.40001
1.40001
1.40001
1.40001
1.40001
1.40001
1.40001
1.40001
1.40001
1.40001
1.40001
1.40001
1.40001
1.40001
1.40001
1.40001
1.40001
1.40001
1.40001
1.40001
1.40001
1.40001
1.40001
1.40001
1.40001
1.40001
1.40001
1.40001
1.40001
1.40001
1.40001
1.40001
1.40001
1.40001
1.40001
1.40001
1.40001
1.40001
1.40001
1.40001
1.40001
1.40001
1.40001
1.40001
1.40001
1.40001
1.40001
1.40001
1.40001
1.40001
1.40001
1.40001
1.40001
1.40001
1.40001
1.40001
1.40001
1.40001
1.40001
1.40001
1.40001
1.40001
1.40001
1.40001
1.40001
1.40001
1.40001
1.40001
1.40001
1.40001
1.40001
1.40001
1.40001
1.40001
1.40001
1.40001
1.40001
1.40001
1.40001
1.40001
1.40001
1.40001
1.40001
1.40001
1.40001
1.40001
1.40001
1.40001
1.40001
1.40001
1.40001
1.40001
1.40001
1.40001
1.40001
1.40001
1.40001
1.40001
1.40001
1.40001
1.40001
1.40001
1.40001
1.40001
1.40001
1.40001
1.40001
1.40001
1.40001
1.40001
1.40001
1.40001
1.67836
2.0799
2.5408
2.99883
3.41131
3.85148
4.1222
4.40785
4.42337
4.30728
4.03663
3.70799
3.46019
3.36929
3.29996
3.29973
3.32668
3.35988
3.38863
3.39511
3.39645
3.40089
3.40859
3.42334
1.40251
1.42016
1.47034
1.59215
1.79614
2.10854
2.50999
2.98044
3.36226
3.54803
3.66296
3.59289
3.55102
3.50147
3.43179
3.38081
3.37373
3.36955
3.37463
3.38412
3.39418
3.39994
3.40472
3.4137
1.4
1.40001
1.39998
1.40019
1.4032
1.42115
1.49862
1.70598
2.19812
2.88465
3.45065
3.69149
3.76822
3.72291
3.6276
3.46772
3.35895
3.3418
3.34859
3.36606
3.38382
3.39269
3.39431
3.39904
1.40001
1.4
1.4
1.4
1.39999
1.40004
1.4
1.40139
1.4323
1.63058
2.19525
2.90018
3.46839
3.57433
3.55142
3.52211
3.44279
3.35941
3.34556
3.34854
3.35344
3.36028
3.36466
3.37019
1.40001
1.40001
1.40001
1.4
1.4
1.4
1.4
1.4
1.39991
1.40113
1.43519
1.69259
2.30854
3.00706
3.37681
3.55032
3.52584
3.44956
3.34927
3.3137
3.30095
3.29913
3.30917
3.3211
1.40001
1.40001
1.40001
1.40001
1.40001
1.4
1.4
1.4
1.39999
1.4
1.39992
1.40332
1.45575
1.82528
2.47525
3.20793
3.40976
3.3989
3.37738
3.34255
3.29106
3.27528
3.27806
3.28797
1.40001
1.40001
1.40001
1.40001
1.40001
1.40001
1.40001
1.40001
1.4
1.4
1.39999
1.4
1.39998
1.41198
1.52587
2.02564
2.74143
3.28316
3.4254
3.41363
3.35463
3.31318
3.30121
3.29278
1.40001
1.40001
1.40001
1.40001
1.40001
1.40001
1.40001
1.40001
1.40001
1.40001
1.4
1.4
1.4
1.39997
1.4007
1.43433
1.68498
2.37097
2.98015
3.3277
3.36763
3.35619
3.33
3.30772
1.40001
1.40001
1.40001
1.40001
1.40001
1.40001
1.40001
1.40001
1.40001
1.40001
1.40001
1.40001
1.4
1.4
1.4
1.40004
1.40614
1.51752
1.9991
2.80699
3.1741
3.27115
3.30357
3.31313
1.40001
1.40001
1.40001
1.40001
1.40001
1.40001
1.40001
1.40001
1.40001
1.40001
1.40001
1.40001
1.40001
1.4
1.4
1.4
1.39999
1.40148
1.44305
1.74405
2.43711
3.08786
3.33924
3.33747
1.40001
1.40001
1.40001
1.40001
1.40001
1.40001
1.40001
1.40001
1.40001
1.40001
1.40001
1.40001
1.40001
1.40001
1.40001
1.4
1.4
1.4
1.4002
1.41364
1.5974
2.20351
2.89779
3.19825
1.40001
1.40001
1.40001
1.40001
1.40001
1.40001
1.40001
1.40001
1.40001
1.40001
1.40001
1.40001
1.40001
1.40001
1.40001
1.40001
1.4
1.4
1.4
1.40002
1.406
1.49399
2.01604
2.71741
1.40001
1.40001
1.40001
1.40001
1.40001
1.40001
1.40001
1.40001
1.40001
1.40001
1.40001
1.40001
1.40001
1.40001
1.40001
1.40001
1.40001
1.4
1.4
1.4
1.4
1.40175
1.4664
1.82425
1.40001
1.40001
1.40001
1.40001
1.40001
1.40001
1.40001
1.40001
1.40001
1.40001
1.40001
1.40001
1.40001
1.40001
1.40001
1.40001
1.40001
1.40001
1.40001
1.4
1.4
1.4
1.40115
1.42979
1.40001
1.40001
1.40001
1.40001
1.40001
1.40001
1.40001
1.40001
1.40001
1.40001
1.40001
1.40001
1.40001
1.40001
1.40001
1.40001
1.40001
1.40001
1.40001
1.40001
1.4
1.4
1.4
1.40009
1.40001
1.40001
1.40001
1.40001
1.40001
1.40001
1.40001
1.40001
1.40001
1.40001
1.40001
1.40001
1.40001
1.40001
1.40001
1.40001
1.40001
1.40001
1.40001
1.40001
1.40001
1.4
1.4
1.4
1.40001
1.40001
1.40001
1.40001
1.40001
1.40001
1.40001
1.40001
1.40001
1.40001
1.40001
1.40001
1.40001
1.40001
1.40001
1.40001
1.40001
1.40001
1.40001
1.40001
1.40001
1.4
1.4
1.39999
1.40001
1.40001
1.40001
1.40001
1.40001
1.40001
1.40001
1.40001
1.40001
1.40001
1.40001
1.40001
1.40001
1.40001
1.40001
1.40001
1.40001
1.40001
1.40001
1.40001
1.40001
1.4
1.40002
1.40001
1.40001
1.40001
1.40001
1.40001
1.40001
1.40001
1.40001
1.40001
1.40001
1.40001
1.40001
1.40001
1.40001
1.40001
1.40001
1.40001
1.40001
1.40001
1.40001
1.4
1.4
1.4
1.40123
1.42351
1.40001
1.40001
1.40001
1.40001
1.40001
1.40001
1.40001
1.40001
1.40001
1.40001
1.40001
1.40001
1.40001
1.40001
1.40001
1.40001
1.40001
1.4
1.4
1.4
1.4
1.40181
1.46165
1.80678
1.40001
1.40001
1.40001
1.40001
1.40001
1.40001
1.40001
1.40001
1.40001
1.40001
1.40001
1.40001
1.40001
1.40001
1.40001
1.40001
1.4
1.4
1.4
1.40003
1.40575
1.49821
1.96889
2.78042
1.40001
1.40001
1.40001
1.40001
1.40001
1.40001
1.40001
1.40001
1.40001
1.40001
1.40001
1.40001
1.40001
1.40001
1.40001
1.4
1.4
1.4
1.40021
1.41351
1.59928
2.19736
2.86511
3.26439
1.40001
1.40001
1.40001
1.40001
1.40001
1.40001
1.40001
1.40001
1.40001
1.40001
1.40001
1.40001
1.40001
1.4
1.4
1.4
1.39999
1.40148
1.44315
1.74219
2.44919
3.06998
3.33934
3.35248
1.40001
1.40001
1.40001
1.40001
1.40001
1.40001
1.40001
1.40001
1.40001
1.40001
1.40001
1.40001
1.4
1.4
1.4
1.40004
1.40612
1.51766
1.99785
2.80897
3.17903
3.26512
3.29648
3.31586
1.40001
1.40001
1.40001
1.40001
1.40001
1.40001
1.40001
1.40001
1.40001
1.40001
1.4
1.4
1.4
1.39997
1.40071
1.43433
1.6849
2.37058
2.97893
3.32979
3.36756
3.35455
3.32769
3.30989
1.40001
1.40001
1.40001
1.40001
1.40001
1.40001
1.40001
1.40001
1.4
1.4
1.39999
1.4
1.39998
1.41198
1.5259
2.02565
2.74154
3.28274
3.42551
3.41382
3.35531
3.31211
3.30109
3.29287
1.40001
1.40001
1.40001
1.40001
1.40001
1.4
1.4
1.4
1.39999
1.4
1.39992
1.40333
1.45575
1.82519
2.47529
3.208
3.40978
3.39885
3.37737
3.34267
3.29131
3.27497
3.27787
3.28819
1.40001
1.40001
1.40001
1.4
1.4
1.4
1.4
1.4
1.39991
1.40113
1.43517
1.69269
2.30851
3.00709
3.3767
3.5503
3.52591
3.44952
3.3491
3.31384
3.30077
3.29907
3.30913
3.3212
1.40001
1.4
1.4
1.4
1.39999
1.40004
1.4
1.40138
1.4323
1.63061
2.19519
2.90032
3.46824
3.5743
3.55136
3.5222
3.44292
3.35931
3.34551
3.34855
3.35336
3.36032
3.3648
3.37031
1.4
1.40001
1.39998
1.40019
1.40319
1.42115
1.49863
1.70596
2.19819
2.88455
3.45066
3.6915
3.76822
3.72286
3.62759
3.46802
3.3589
3.34176
3.34855
3.36608
3.38381
3.39273
3.3944
3.39908
1.40251
1.42016
1.47036
1.59213
1.79612
2.10856
2.50997
2.98043
3.36233
3.54797
3.66298
3.59291
3.55109
3.50129
3.43199
3.3809
3.37354
3.36947
3.37468
3.3842
3.39421
3.39993
3.40473
3.4137
1.67836
2.07992
2.54075
2.99882
3.41138
3.85146
4.12212
4.40789
4.42341
4.3073
4.03658
3.70806
3.46015
3.36923
3.3
3.2997
3.32655
3.35983
3.3887
3.39523
3.3965
3.40087
3.40854
3.42328
2.6641
1.94974
1.40243
1.10836
1.032
0.983532
0.949197
0.96168
1.02762
1.1162
1.17305
1.23444
1.29958
1.3068
1.2939
1.28545
1.2999
1.33773
1.3595
1.35937
1.3505
1.3301
1.3221
1.36889
1.68467
2.58242
3.67603
4.843
5.81885
5.97135
5.64604
5.16319
4.83425
4.6648
4.55902
4.44202
4.29792
4.15855
4.03762
3.92874
3.83072
3.74235
3.65614
3.57168
3.49202
3.41484
3.32883
3.22165
3.10068
2.98949
2.91345
2.86873
2.832
2.79662
2.76241
2.72512
2.67586
2.60901
2.52665
2.42769
2.33604
2.29311
2.27225
2.25148
2.22904
2.20938
2.18727
2.1483
2.08852
1.99932
1.94688
1.9628
2.07107
2.33527
2.79983
3.27377
3.6552
3.96829
4.07899
4.04321
3.92739
3.74708
3.62103
3.53939
3.50496
3.48201
3.45541
3.42206
3.39139
3.3567
3.29124
3.19096
3.1254
3.09833
3.08428
3.05503
3.14497
2.73817
2.3424
1.9355
1.71481
1.60255
1.453
1.32451
1.30359
1.28038
1.22502
1.21898
1.23554
1.24357
1.24212
1.24575
1.26877
1.30436
1.3277
1.33191
1.32671
1.3247
1.38872
1.74918
2.42317
2.76353
3.06939
3.47699
4.20643
4.7751
5.11231
5.09959
4.937
4.75675
4.60415
4.45481
4.30213
4.17756
4.0781
3.97463
3.86975
3.77962
3.69558
3.61308
3.53177
3.44696
3.35188
3.24263
3.13117
3.03768
2.96766
2.91292
2.86651
2.82644
2.79202
2.75389
2.70342
2.63443
2.5478
2.45266
2.37205
2.3312
2.30511
2.2789
2.25464
2.23063
2.20525
2.16996
2.11845
2.06348
2.07754
2.18989
2.40696
2.63397
2.82609
3.05623
3.30308
3.5554
3.66537
3.72547
3.74844
3.7078
3.6348
3.56648
3.52717
3.49702
3.4629
3.43087
3.40563
3.37066
3.30365
3.20543
3.14309
3.11689
3.10238
3.07141
3.33756
3.12329
2.82219
2.48034
2.10553
1.89436
1.73755
1.53867
1.41806
1.36628
1.29933
1.24154
1.25001
1.25671
1.24796
1.24498
1.25451
1.27581
1.30134
1.31662
1.33252
1.44338
1.91741
2.51115
2.90737
2.9436
2.93176
2.94037
3.06953
3.62189
4.40831
4.93334
4.9959
4.88535
4.62787
4.42693
4.29087
4.17373
4.04987
3.91507
3.79089
3.69968
3.62614
3.55178
3.47511
3.39495
3.30588
3.21125
3.12445
3.04255
2.95954
2.88529
2.82074
2.76136
2.71239
2.67931
2.64104
2.58583
2.51207
2.43915
2.38731
2.33806
2.2827
2.23159
2.19498
2.17204
2.15747
2.1489
2.14602
2.1942
2.35896
2.58554
2.73895
2.84724
2.8802
2.90429
2.96811
3.09942
3.26709
3.45261
3.61426
3.65632
3.64565
3.60208
3.54982
3.50355
3.46496
3.4241
3.38011
3.3367
3.27754
3.2122
3.16185
3.11502
3.07345
3.03113
3.36414
3.29332
3.10829
2.86832
2.52645
2.22258
2.07348
1.88937
1.66024
1.57884
1.51304
1.37891
1.3415
1.3361
1.31039
1.27679
1.26449
1.26407
1.26798
1.28077
1.41465
1.96584
2.60407
2.88807
2.94143
2.92522
2.86404
2.77738
2.69111
2.73942
3.08023
3.87918
4.55955
4.63682
4.59589
4.45613
4.3275
4.20103
4.05313
3.90237
3.77073
3.665
3.58096
3.50589
3.4352
3.37115
3.30806
3.23492
3.15565
3.06165
2.96708
2.88791
2.81706
2.75155
2.68341
2.63439
2.60347
2.56476
2.51901
2.47033
2.41902
2.35517
2.28729
2.2296
2.18785
2.17207
2.17096
2.20603
2.34759
2.5934
2.82463
2.9232
2.94849
2.94524
2.90682
2.86493
2.83096
2.82998
2.87344
2.98768
3.21391
3.42135
3.52805
3.57349
3.5746
3.54754
3.51145
3.45528
3.38206
3.31694
3.27056
3.22444
3.17731
3.12524
3.07449
3.01803
3.34044
3.33256
3.2547
3.09272
2.86764
2.55748
2.33051
2.18136
1.98588
1.79511
1.66741
1.53489
1.43781
1.40775
1.38184
1.3241
1.2793
1.27096
1.28723
1.45298
2.02725
2.65969
2.89556
2.89706
2.87445
2.81444
2.73169
2.64336
2.58587
2.52621
2.53565
2.71333
3.3521
4.01626
4.41107
4.42638
4.33504
4.17668
4.01774
3.88028
3.74429
3.62897
3.5423
3.46508
3.39159
3.31912
3.24796
3.1746
3.10065
3.0398
2.97949
2.9038
2.82597
2.75668
2.68609
2.61101
2.55881
2.51523
2.47285
2.43233
2.38802
2.3412
2.28613
2.24005
2.20868
2.21307
2.28376
2.48366
2.75435
2.98932
3.05643
3.05085
3.01862
2.94862
2.88581
2.83769
2.79351
2.76005
2.72745
2.74004
2.82879
3.04929
3.27988
3.46244
3.54723
3.54469
3.49883
3.42296
3.35002
3.28808
3.24125
3.19992
3.16761
3.13445
3.09696
3.02788
3.30948
3.31309
3.30118
3.21763
3.05785
2.85288
2.61396
2.37649
2.21492
2.06683
1.93046
1.76019
1.57901
1.54171
1.53231
1.48328
1.40573
1.41663
1.62451
2.20671
2.81079
2.96849
2.93583
2.8524
2.77949
2.7135
2.6385
2.57007
2.51649
2.46534
2.41656
2.37609
2.45343
2.82424
3.51243
4.03201
4.13729
4.11145
4.0056
3.88853
3.75938
3.6279
3.50523
3.41794
3.35872
3.30119
3.23537
3.16176
3.08368
3.00322
2.93228
2.88628
2.84424
2.78563
2.70189
2.59476
2.51577
2.48012
2.45145
2.42337
2.39363
2.35846
2.32246
2.29255
2.30905
2.42203
2.66779
2.92097
3.10115
3.15657
3.14796
3.11006
3.04232
2.95675
2.88169
2.82755
2.78424
2.74106
2.70098
2.68823
2.69083
2.7485
2.92689
3.1403
3.35611
3.43149
3.42471
3.36994
3.32312
3.27751
3.23371
3.19926
3.1668
3.14029
3.11746
3.05221
3.29595
3.30255
3.29697
3.27303
3.1905
3.0287
2.8408
2.65397
2.41367
2.21122
2.13159
2.02962
1.87258
1.67142
1.6132
1.58407
1.61982
1.87339
2.52163
3.07074
3.14303
3.05821
2.92134
2.81145
2.74633
2.68162
2.60708
2.54611
2.49356
2.44272
2.38044
2.33177
2.25887
2.26335
2.43615
2.98556
3.56953
3.91366
3.95115
3.91326
3.79718
3.64707
3.5066
3.40379
3.32752
3.26197
3.19184
3.11557
3.04184
2.97955
2.92805
2.87518
2.81431
2.75139
2.67319
2.58191
2.51286
2.46282
2.41517
2.37762
2.35058
2.34367
2.35821
2.4257
2.62194
2.90002
3.08265
3.16177
3.20503
3.18888
3.14653
3.09918
3.04659
2.98304
2.90861
2.83473
2.78067
2.73656
2.69858
2.67647
2.66994
2.67117
2.70653
2.80607
2.96276
3.1571
3.28934
3.30687
3.28691
3.25927
3.24087
3.21885
3.19394
3.17095
3.13861
3.04437
3.29952
3.30192
3.30135
3.29397
3.26019
3.17139
3.00441
2.83795
2.66718
2.47017
2.23861
2.16237
2.08013
1.9356
1.80168
1.87861
2.25694
2.93712
3.43207
3.42962
3.315
3.14299
2.98074
2.86824
2.78451
2.70488
2.61942
2.55806
2.50101
2.44057
2.37416
2.31722
2.24765
2.18999
2.13023
2.1901
2.50162
3.09858
3.57858
3.74594
3.74553
3.66498
3.54579
3.42301
3.30908
3.21915
3.14321
3.07677
3.02079
2.96525
2.9077
2.84904
2.79384
2.73439
2.66329
2.58316
2.50214
2.44161
2.39571
2.37927
2.37332
2.41736
2.59035
2.87505
3.15837
3.25274
3.27235
3.27465
3.24184
3.19576
3.14826
3.10501
3.06277
3.00985
2.93252
2.84074
2.77499
2.73552
2.71074
2.6901
2.67573
2.66139
2.65534
2.64058
2.66154
2.73763
2.91423
3.08327
3.15826
3.21051
3.26034
3.25861
3.23932
3.21056
3.16604
3.05264
3.30125
3.29853
3.29582
3.29231
3.28141
3.2382
3.14443
2.9846
2.83387
2.67896
2.49092
2.31774
2.19111
2.13536
2.30002
2.88302
3.53302
3.797
3.74284
3.57797
3.39682
3.23402
3.09417
2.98177
2.88112
2.7836
2.68464
2.59692
2.51276
2.43792
2.38221
2.32572
2.25927
2.18036
2.11758
2.05193
2.05218
2.19948
2.67569
3.2147
3.58411
3.62532
3.59132
3.44976
3.2959
3.1863
3.11273
3.05577
3.00658
2.95192
2.88986
2.82484
2.7668
2.70862
2.64601
2.57077
2.49039
2.44137
2.41277
2.42124
2.52952
2.79119
3.11983
3.37272
3.41101
3.37442
3.31936
3.26414
3.22579
3.19075
3.1547
3.11708
3.07698
3.02577
2.94649
2.84888
2.78523
2.75537
2.73176
2.70634
2.68279
2.66167
2.64175
2.61954
2.57019
2.53296
2.57793
2.73982
2.94615
3.11219
3.22699
3.2737
3.26108
3.23731
3.19241
3.06202
3.32618
3.31831
3.30674
3.28733
3.27697
3.2633
3.21855
3.1203
2.98904
2.81282
2.66706
2.47826
2.49443
2.80319
3.52422
4.17126
4.24582
4.13152
3.92888
3.72876
3.54556
3.37914
3.22807
3.09304
2.9713
2.86018
2.7592
2.6663
2.57452
2.48215
2.40288
2.32221
2.24794
2.18059
2.12345
2.059
2.01046
1.96016
2.00994
2.28356
2.83509
3.33603
3.44864
3.41928
3.30815
3.1954
3.1179
3.05949
3.00508
2.94681
2.88326
2.81401
2.74324
2.67124
2.61063
2.55204
2.50988
2.46634
2.4984
2.68986
3.05678
3.35458
3.55392
3.58853
3.55399
3.45127
3.32508
3.25811
3.22127
3.18957
3.15734
3.12355
3.0848
3.03625
2.96767
2.8822
2.81287
2.77607
2.7495
2.72373
2.69781
2.67353
2.65005
2.62106
2.56305
2.49307
2.4721
2.51062
2.64922
2.86693
3.09087
3.20875
3.20523
3.18824
3.15797
3.0522
3.36205
3.37378
3.35253
3.31719
3.28997
3.28551
3.27182
3.22809
3.11749
2.98505
2.82442
2.93166
3.51795
4.32316
4.69884
4.66958
4.49036
4.27696
4.07863
3.89308
3.7144
3.53956
3.37063
3.21276
3.06801
2.93302
2.81066
2.70418
2.61407
2.53257
2.45438
2.36889
2.28386
2.19985
2.12341
2.06664
2.0062
1.94839
1.89242
1.89365
2.03223
2.46275
2.95052
3.24066
3.25823
3.22203
3.15022
3.07799
3.00739
2.94058
2.87239
2.79849
2.72715
2.65622
2.60483
2.55931
2.55799
2.6484
2.92088
3.31879
3.57306
3.64543
3.64297
3.61636
3.54671
3.4543
3.35564
3.28995
3.24115
3.19691
3.15845
3.12187
3.0813
3.03488
2.98604
2.92849
2.86395
2.80698
2.76787
2.73826
2.71012
2.68256
2.65593
2.6255
2.57545
2.4966
2.44971
2.44711
2.47057
2.57863
2.77542
3.02068
3.1347
3.13807
3.12164
3.04331
3.25832
3.33873
3.31653
3.29424
3.29879
3.30821
3.30164
3.27431
3.18817
3.19085
3.52471
4.37838
5.1125
5.33377
5.23016
4.94798
4.66807
4.42783
4.22143
4.02951
3.84533
3.66737
3.49406
3.32764
3.17155
3.02518
2.89372
2.77861
2.67006
2.56277
2.4653
2.38682
2.31967
2.24957
2.17549
2.09414
2.00916
1.93602
1.87633
1.84208
1.81584
1.86157
2.1251
2.60095
2.99391
3.0838
3.07881
3.03588
2.96791
2.90559
2.84226
2.78169
2.71338
2.665
2.62562
2.667
2.87892
3.24031
3.56921
3.79838
3.82221
3.782
3.69772
3.60581
3.52485
3.45223
3.38792
3.33263
3.27654
3.22023
3.16905
3.11972
3.07343
3.02781
2.98678
2.95137
2.90954
2.85145
2.79332
2.75376
2.7222
2.6904
2.65737
2.62391
2.58325
2.52759
2.46206
2.42811
2.4279
2.43722
2.50276
2.65781
2.86672
2.98995
3.03563
3.0214
2.57042
3.13533
3.3009
3.3574
3.35618
3.34002
3.30061
3.29954
3.44504
4.15826
5.29949
5.78221
5.71909
5.59029
5.36393
5.1208
4.85694
4.58621
4.34147
4.1319
3.94587
3.76865
3.59223
3.4175
3.25265
3.10291
2.96541
2.83523
2.7169
2.61971
2.52821
2.42775
2.33013
2.24485
2.17592
2.12041
2.05621
1.96911
1.88161
1.81234
1.78044
1.76037
1.77214
1.89666
2.26746
2.68552
2.92821
2.97921
2.95458
2.89614
2.82016
2.77621
2.72377
2.74255
2.87097
3.19636
3.58068
3.78221
3.85406
3.87037
3.84318
3.8005
3.73681
3.63699
3.53574
3.46311
3.41531
3.37187
3.31932
3.25752
3.19041
3.11876
3.05514
3.01868
2.99367
2.96992
2.93994
2.89345
2.82691
2.76353
2.72786
2.70224
2.6783
2.65
2.61603
2.56476
2.4977
2.44213
2.41221
2.40512
2.4061
2.44058
2.53753
2.68357
2.8263
2.934
1.69909
2.38897
2.9992
3.2945
3.30953
3.31676
3.44138
3.91024
4.88689
5.96192
6.49489
6.4395
6.08521
5.71786
5.46197
5.22956
4.98491
4.71778
4.44946
4.2132
4.01882
3.84486
3.66561
3.48372
3.31173
3.15685
3.02356
2.90344
2.77343
2.6454
2.54841
2.47472
2.39542
2.30985
2.22206
2.12771
2.04063
1.97427
1.91098
1.82672
1.77706
1.75183
1.71964
1.70264
1.75577
1.98686
2.39168
2.69721
2.84983
2.85253
2.82482
2.83169
2.96729
3.2369
3.6015
3.93525
4.09017
4.07421
4.01052
3.90907
3.82369
3.77986
3.7295
3.64944
3.55456
3.47443
3.41795
3.37871
3.33638
3.27976
3.20876
3.13292
3.07014
3.02729
2.99342
2.96275
2.93528
2.90839
2.86099
2.80128
2.75226
2.70624
2.66385
2.62742
2.58981
2.55379
2.51634
2.47028
2.43145
2.40451
2.38769
2.37574
2.38461
2.42583
2.52211
2.7411
1.4199
1.60759
2.21654
2.929
3.28659
3.5655
4.5469
5.56361
6.30024
6.6277
6.60763
6.51181
6.29176
5.94305
5.60906
5.30976
5.04793
4.80502
4.56096
4.31517
4.08929
3.88719
3.7045
3.52303
3.35397
3.20659
3.08273
2.96624
2.83195
2.69846
2.58185
2.47351
2.3708
2.27865
2.19772
2.11506
2.04825
1.99225
1.91884
1.84785
1.79415
1.74662
1.68572
1.63888
1.6078
1.62295
1.75511
2.07961
2.47885
2.75891
2.93639
3.21978
3.67752
3.95941
4.12456
4.18705
4.16394
4.11928
4.04369
3.94707
3.85503
3.77737
3.71231
3.64075
3.57201
3.51428
3.4629
3.41546
3.3624
3.29165
3.21761
3.15991
3.11119
3.06152
3.01597
2.9767
2.93572
2.8922
2.85487
2.82083
2.7803
2.72563
2.67017
2.62811
2.59195
2.54843
2.51363
2.49643
2.47296
2.43801
2.39709
2.35843
2.33537
2.31886
2.33548
2.49364
1.40028
1.4139
1.56794
2.19085
3.49074
4.49371
5.91216
6.55679
7.01265
6.93474
6.6749
6.48961
6.34501
6.07074
5.71792
5.36919
5.05946
4.80089
4.61882
4.45844
4.24752
4.00826
3.77469
3.55548
3.37016
3.21348
3.06101
2.9419
2.87967
2.79711
2.66734
2.51857
2.3927
2.29403
2.21899
2.14655
2.05617
1.98529
1.95664
1.91595
1.84479
1.76299
1.68532
1.63083
1.59437
1.57088
1.57852
1.65293
1.94807
2.60539
3.27083
3.7968
4.24542
4.41821
4.42062
4.36817
4.2241
4.071
4.00281
3.93796
3.87254
3.79099
3.70302
3.62733
3.57203
3.51664
3.44943
3.38041
3.3187
3.25826
3.20298
3.15444
3.10334
3.04921
2.99586
2.96071
2.93783
2.9149
2.88967
2.85984
2.8189
2.76085
2.69082
2.62835
2.58596
2.55479
2.5286
2.49859
2.46203
2.42342
2.38949
2.3524
2.31808
2.29392
2.29123
2.34895
1.40064
1.41233
1.54856
2.11499
3.23146
4.78553
5.80358
6.50801
7.06501
6.85784
6.51844
6.39773
6.28273
6.08713
5.78862
5.45107
5.13151
4.87095
4.63694
4.39535
4.1623
3.92318
3.71973
3.58156
3.43962
3.2804
3.12377
2.98841
2.86365
2.74046
2.61062
2.46832
2.38315
2.3451
2.29098
2.21554
2.11307
2.01178
1.92886
1.86684
1.79612
1.72699
1.69489
1.66556
1.629
1.58795
1.59015
1.66239
1.9424
2.49236
3.27604
3.91006
4.18566
4.41585
4.45137
4.33278
4.13472
4.02131
3.9802
3.93468
3.87471
3.79435
3.71899
3.66291
3.60418
3.53542
3.45377
3.3733
3.30028
3.24835
3.21382
3.17282
3.11394
3.04952
3.00074
2.96454
2.92452
2.88896
2.86237
2.83382
2.79839
2.75415
2.70167
2.63943
2.58183
2.5452
2.51917
2.49117
2.46038
2.42179
2.38696
2.35719
2.32583
2.29384
2.29511
2.35352
1.42828
1.63905
2.20091
2.87747
3.11177
3.7804
4.48715
5.58827
6.41127
6.53331
6.49443
6.4151
6.22491
5.92859
5.63477
5.35754
5.09179
4.8451
4.5967
4.34813
4.11861
3.91258
3.70998
3.50417
3.32624
3.1802
3.05002
2.92779
2.80918
2.70832
2.60456
2.49549
2.39615
2.29778
2.21089
2.1371
2.07126
1.99939
1.91573
1.84441
1.78587
1.72425
1.66244
1.63191
1.61812
1.63454
1.77564
2.09767
2.53248
2.67872
2.92606
3.32028
3.58088
3.97957
4.17691
4.14585
4.1172
4.0772
4.0237
3.9473
3.87787
3.80742
3.72947
3.65058
3.57831
3.50829
3.44161
3.37673
3.31604
3.25975
3.19551
3.14158
3.1069
3.0673
3.02312
2.97717
2.92931
2.8862
2.85503
2.82843
2.79929
2.76406
2.71433
2.64745
2.58452
2.54626
2.52474
2.50147
2.47354
2.43715
2.39566
2.35741
2.33667
2.32941
2.34938
2.50526
1.75835
2.38963
3.04211
3.30594
3.26329
3.29511
3.41148
3.88283
4.92117
6.01692
6.42475
6.37105
6.06612
5.72993
5.5028
5.27873
5.02523
4.75123
4.4802
4.23329
4.01349
3.81509
3.62343
3.43777
3.27429
3.14247
3.03524
2.93106
2.81195
2.67566
2.53816
2.42978
2.34998
2.27703
2.19453
2.10704
2.04767
2.00119
1.94138
1.86256
1.79161
1.73043
1.67754
1.65738
1.70616
1.95796
2.37601
2.72261
2.86974
2.8478
2.82069
2.83812
2.90312
3.16487
3.59215
3.9319
4.05353
4.09657
4.03357
3.93456
3.84829
3.78369
3.71349
3.62643
3.5435
3.47759
3.42408
3.37298
3.3195
3.26534
3.20528
3.1336
3.07387
3.02957
2.99261
2.96124
2.92809
2.8869
2.83979
2.79422
2.75341
2.71793
2.6876
2.65825
2.61804
2.57068
2.51147
2.46096
2.42891
2.40566
2.38871
2.36877
2.37679
2.43885
2.55565
2.77776
2.69475
3.06635
3.27188
3.35487
3.33817
3.3321
3.32117
3.33037
3.49225
4.26195
5.3535
5.7375
5.73749
5.62968
5.42517
5.15962
4.86533
4.58045
4.32677
4.10525
3.90634
3.72007
3.54513
3.38959
3.25399
3.12962
3.00504
2.87455
2.74073
2.61272
2.50203
2.40369
2.30691
2.23163
2.17681
2.11627
2.04686
1.98014
1.91811
1.84677
1.78409
1.7402
1.75475
1.89642
2.24753
2.67342
2.94005
2.99905
2.98059
2.93541
2.83687
2.75255
2.67871
2.69507
2.85115
3.24807
3.61856
3.87398
3.90537
3.90063
3.85777
3.78449
3.68684
3.58578
3.50568
3.45556
3.42051
3.38628
3.3425
3.27705
3.1895
3.1083
3.05409
3.0169
2.98784
2.9592
2.92373
2.87883
2.82471
2.77046
2.72876
2.69771
2.66614
2.63061
2.59619
2.5564
2.5064
2.45784
2.42273
2.40787
2.40779
2.4324
2.5295
2.69578
2.86184
2.98579
3.30936
3.29983
3.24722
3.25467
3.28053
3.30848
3.30566
3.282
3.20263
3.21467
3.55003
4.35247
5.13255
5.35268
5.24203
4.94781
4.65199
4.40215
4.18936
3.99425
3.8072
3.62885
3.46609
3.32066
3.18891
3.06668
2.94631
2.8216
2.69838
2.58138
2.47051
2.37095
2.28746
2.22023
2.15647
2.08835
2.01409
1.95044
1.8919
1.84632
1.81797
1.86637
2.14193
2.59438
2.979
3.11771
3.11313
3.06817
2.99642
2.91937
2.82945
2.72892
2.65629
2.63856
2.63518
2.70829
2.95658
3.33012
3.64371
3.81422
3.81378
3.74994
3.64029
3.56489
3.50926
3.46989
3.42278
3.36868
3.31248
3.24353
3.15691
3.08596
3.03933
3.00476
2.97538
2.94457
2.90912
2.86808
2.81853
2.7632
2.71431
2.67819
2.64762
2.61416
2.57529
2.53175
2.49401
2.46643
2.44248
2.44637
2.49177
2.61608
2.81941
2.94723
3.01036
3.05427
3.37328
3.36858
3.32928
3.30291
3.29922
3.29732
3.27579
3.22199
3.10756
2.98298
2.82531
2.92136
3.50348
4.33072
4.70228
4.65234
4.4685
4.25872
4.05608
3.86361
3.68434
3.52003
3.37091
3.23317
3.10303
2.98134
2.86577
2.74542
2.62919
2.52183
2.42603
2.33743
2.25836
2.18552
2.12006
2.0591
1.99691
1.95001
1.9121
1.91146
2.03956
2.45726
2.97243
3.19862
3.2589
3.24068
3.16705
3.08857
3.00756
2.92529
2.834
2.73147
2.6698
2.63131
2.60245
2.58512
2.60186
2.70323
2.98295
3.30796
3.53999
3.57423
3.57983
3.57384
3.5349
3.48147
3.4135
3.34605
3.28285
3.20877
3.12699
3.06349
3.01901
2.98604
2.95726
2.92793
2.8962
2.85965
2.81282
2.75582
2.70441
2.66441
2.62663
2.58441
2.54237
2.51186
2.49942
2.48717
2.50348
2.58427
2.75685
2.94223
3.04734
3.0523
3.06844
3.07826
3.34118
3.31876
3.29656
3.2841
3.27705
3.26726
3.22193
3.12077
2.98618
2.81163
2.66604
2.4761
2.49056
2.79733
3.51239
4.14169
4.23927
4.13007
3.92746
3.72482
3.54575
3.39206
3.25466
3.12758
3.00477
2.88947
2.78167
2.66563
2.55028
2.44634
2.36319
2.28985
2.2283
2.16902
2.12111
2.06608
2.02878
1.98748
2.02796
2.3105
2.82589
3.29588
3.39879
3.35875
3.29246
3.22458
3.15711
3.0939
3.02599
2.94659
2.85357
2.76286
2.7009
2.65115
2.60914
2.56659
2.53954
2.50482
2.52796
2.68
2.9929
3.30678
3.47021
3.5459
3.54262
3.48671
3.40658
3.33647
3.26882
3.18754
3.10381
3.03968
2.99733
2.96842
2.9419
2.91408
2.88353
2.84866
2.80898
2.76187
2.69965
2.63645
2.58751
2.5509
2.52086
2.5146
2.52283
2.57974
2.71481
2.91647
3.10785
3.16263
3.12157
3.07605
3.05527
3.04189
3.30517
3.29763