/*--------------------------------*- C++ -*----------------------------------*\
  =========                 |
  \\      /  F ield         | OpenFOAM: The Open Source CFD Toolbox
   \\    /   O peration     | Website:  https://openfoam.org
    \\  /    A nd           | Version:  7
     \\/     M anipulation  |
\*---------------------------------------------------------------------------*/
FoamFile
{
    version     2.0;
    format      ascii;
    class       volScalarField;
    location    "3.8";
    object      T;
}
// * * * * * * * * * * * * * * * * * * * * * * * * * * * * * * * * * * * * * //

dimensions      [0 0 0 1 0 0 0];

internalField   nonuniform List<scalar> 
4608
(
1
1
1
1
1
1
1
1
1
1
1
1
1
1
1
1
1
1
1
1
1
1
1
1
1
1
1
1
1
1
1
1
1
1
1
1
1
1
1
1
1
1
1
1
1
1
1
1
1
1
1
1
1
1
1
1
1
1
1
1
1
1
1
1
1
1
1
1
1
1
1
1
1
1
1
1
1
1
1
1
1
1
1
1
1
1
1
1
1
1
1
1
1
1
1
1
1
1
1
1
1
1
1
1
1
1
1
1
1
1
1
1
1
1
1
1
1
1
1
1
1
1
1
1
1
1
1
1
1
1
1
1
1
1
1
1
1
1
1
1
1
1
1
1
1
1
1
1
1
1
1
1
1
1
1
1
1
1
1
1
1
1
1
1
1
1
1
1
1
1
1
1
1
1
1
1
1
1
1
1
1
1
1
1
1
1
1
1
1
1
1
1
1
1
1
1
1
1
1
1
1
1
1
1
1
1
1
1
1
1
1
1
1
1
1
1
1
1
1
1
1
1
1
1
1
1
1
1
1
1
1
1
1
1
1
1
1
1
1
1
1
1
1
1
1
1
1
1
1
1
1
1
1
1
1
1
1
1
1
1
1
1
1
1
1
1
1
1
1
1
1
1
1
1
1
1
1
1
1
1
1
1
1
1
1
1
1
1
1
1
1
1
1
1
1
1
1
1
1
1
1
1
1
1
1
1
1
1
1
1
1
1
1
1
1
1
1
1
1
1
1
1
1
1
1
1
1
1
1
1
1
1
1
1
1
1
1
1
1
1
1
1
1
1
1
1
1
1
1
1
1
1
1
1
1
1
1
1
1
1
1
1
1
1
1
1
1
1
1
1
1
1
1
1
1
1
1
1
1
1
1
1
1
1
1
1
1
1
1
1
1
1
1
1
1
1
1
1
1
1
1
1
1
1
1
1
1
1
1
1
1
1
1
1
1
1
1
1
1
1
1
1
1
1
1
1
1
1
1
1
1
1
1
1
1
1
1
1
1
1
1
1
1
1
1
1
1
1
1
1
1
1
1
1
1
1
1
1
1
1
1
1
1
1
1
1
1
1
1
1
1
1
1
1
1
1
1
1
1
1
1
1
1
1
1
1
1
1
1
1
1
1
1
1
1
1
1
1
1
1
1
1
1
1
1
1
1
1
1
1
1
1
1
1
1
1
1
1
1
1
1
1
1
1
1
1
1
1
1
1
1
1
1
1
1
1
1
1
1
1
1
1
1
1
1
1
1
1
1
1
1
1
1
1
1
1
1
1
1
1
1
1
1
1
1
1
1
1
1
1
1
1
1
1
1
1
1
1
1
1
1
1
1
1
1
1
1
1
1
1
1
1
1
1
1
1
1
1
1
1
1
1
1
1
1
1
1
1
1
1
1
1
1
1
1
1
1
1
1
1
1
1
1
1
1
1
1
1
1
1
1
1
1
1
1
1
1
1
1
1
1
1
1
1
1
1
1
1
1
1
1
1
1
1
1
1
1
1
1
1
1
1
1
1
1
1
1
1
1
1
1
1
1
1
1
1
1
1
1
1
1
1
1
1
1
1
1
1
1
1
1
1
1
1
1
1
1
1
1
1
1
1
1
1
1
1
1
1
1
1
1
1
1
1
1
1
1
1
1
1
1
1
1
1
1
1
1
1
1
1
1
1
1
1
1
1
1
1
1
1
1
1
1
1
1
1
1
1
1
1
1
1
1
1
1
1
1
1
1
1
1
1
1
1
1
1
1
1
1.07872
1.18007
1.28857
1.39258
1.48483
1.57656
1.63593
1.67989
1.69813
1.68317
1.63895
1.58514
1.54118
1.52398
1.5128
1.51335
1.51896
1.52545
1.53096
1.53256
1.53286
1.53355
1.53477
1.53839
1.00084
1.0073
1.02688
1.07392
1.14433
1.23115
1.32242
1.40801
1.47923
1.52036
1.55192
1.55987
1.55925
1.55464
1.54303
1.53412
1.53345
1.53303
1.53369
1.53485
1.53627
1.53695
1.53762
1.53986
1
1
0.999992
1.00008
1.00121
1.008
1.03802
1.11532
1.27162
1.4507
1.57142
1.62025
1.61969
1.61017
1.59374
1.56527
1.54626
1.54297
1.54277
1.54405
1.54536
1.54599
1.5461
1.54765
1
1
0.999999
0.999999
0.999995
1.00001
0.999991
1.00056
1.01364
1.10674
1.3118
1.48755
1.61096
1.61072
1.60524
1.6002
1.58534
1.5707
1.56461
1.56126
1.55778
1.55783
1.55813
1.55973
1
1
1
1
1
1
0.999999
0.999999
0.999962
1.00044
1.01564
1.13103
1.34819
1.52627
1.6061
1.63138
1.62413
1.60795
1.58615
1.57405
1.56806
1.56597
1.56752
1.57079
1
1
1
1
1
1
1
1
0.999996
0.999997
0.999959
1.00126
1.02455
1.18357
1.39721
1.57375
1.60732
1.60334
1.59826
1.58972
1.57958
1.57663
1.5766
1.57852
1
1
1
1
1
1
1
1
1
1
0.999996
0.999997
0.999975
1.00464
1.05495
1.24813
1.45391
1.58272
1.61056
1.60823
1.59729
1.58962
1.58678
1.58509
1
1
1
1
1
1
1
1
1
1
1
1
0.999998
0.999985
1.00023
1.01339
1.12042
1.34692
1.50573
1.58536
1.59623
1.59478
1.59072
1.58726
1
1
1
1
1
1
1
1
1
1
1
1
1
0.999999
0.999997
1
1.00226
1.04708
1.23101
1.45569
1.54526
1.56847
1.58048
1.58334
1
1
1
1
1
1
1
1
1
1
1
1
1
1
1
1
0.999994
1.00047
1.01661
1.1345
1.35439
1.51657
1.57206
1.5812
1
1
1
1
1
1
1
1
1
1
1
1
1
1
1
1
0.999999
0.999997
1.00005
1.00486
1.07827
1.27838
1.46363
1.53515
1
1
1
1
1
1
1
1
1
1
1
1
1
1
1
1
1
0.999999
0.999999
1
1.00203
1.03555
1.22366
1.41045
1
1
1
1
1
1
1
1
1
1
1
1
1
1
1
1
1
1
1
1
0.999999
1.00056
1.02468
1.15171
1
1
1
1
1
1
1
1
1
1
1
1
1
1
1
1
1
1
1
1
1
0.999999
1.00035
1.01014
1
1
1
1
1
1
1
1
1
1
1
1
1
1
1
1
1
1
1
1
1
1
0.999999
1.00001
1
1
1
1
1
1
1
1
1
1
1
1
1
1
1
1
1
1
1
1
1
1
1
0.999998
1
1
1
1
1
1
1
1
1
1
1
1
1
1
1
1
1
1
1
1
1
1
1
0.999996
1
1
1
1
1
1
1
1
1
1
1
1
1
1
1
1
1
1
1
1
1
1
1
0.999993
1
1
1
1
1
1
1
1
1
1
1
1
1
1
1
1
1
1
1
1
1
0.999999
1.00037
1.00827
1
1
1
1
1
1
1
1
1
1
1
1
1
1
1
1
1
1
1
1
0.999998
1.00057
1.02242
1.14872
1
1
1
1
1
1
1
1
1
1
1
1
1
1
1
1
1
0.999999
0.999999
1
1.00197
1.03655
1.20784
1.4313
1
1
1
1
1
1
1
1
1
1
1
1
1
1
1
1
0.999999
0.999997
1.00005
1.00483
1.0791
1.27629
1.45568
1.55165
1
1
1
1
1
1
1
1
1
1
1
1
1
1
1
1
0.999994
1.00047
1.01661
1.1345
1.35787
1.51157
1.57318
1.58363
1
1
1
1
1
1
1
1
1
1
1
1
1
0.999999
0.999997
1
1.00225
1.0471
1.23052
1.45701
1.54601
1.56722
1.57904
1.58361
1
1
1
1
1
1
1
1
1
1
1
1
0.999998
0.999985
1.00023
1.01339
1.12038
1.34677
1.50549
1.58594
1.59611
1.59443
1.59023
1.58764
1
1
1
1
1
1
1
1
1
1
0.999996
0.999997
0.999975
1.00463
1.05496
1.24815
1.45391
1.58264
1.61059
1.60827
1.5974
1.58939
1.58677
1.58504
1
1
1
1
1
1
1
1
0.999996
0.999997
0.999959
1.00126
1.02455
1.18352
1.39722
1.57376
1.60732
1.60333
1.59826
1.58974
1.57964
1.57655
1.57659
1.57852
1
1
1
1
1
1
0.999999
0.999999
0.999962
1.00044
1.01563
1.13107
1.34818
1.52626
1.60607
1.63138
1.62414
1.60794
1.58612
1.57409
1.56805
1.56595
1.5675
1.57079
1
1
0.999999
0.999999
0.999995
1.00001
0.999991
1.00056
1.01365
1.10675
1.31178
1.48758
1.61095
1.6107
1.60521
1.60021
1.58538
1.57067
1.5646
1.56129
1.55779
1.55784
1.55814
1.55975
1
1
0.999992
1.00008
1.00121
1.008
1.03802
1.11531
1.27164
1.45068
1.57144
1.62026
1.61969
1.61015
1.59373
1.56531
1.54628
1.54294
1.54277
1.54406
1.54537
1.546
1.54612
1.54766
1.00084
1.0073
1.02688
1.07391
1.14432
1.23116
1.32241
1.408
1.47924
1.52035
1.55194
1.55988
1.55925
1.55461
1.54306
1.53413
1.53342
1.53301
1.5337
1.53487
1.53627
1.53695
1.53762
1.53986
1.07872
1.18007
1.28855
1.39257
1.48485
1.57656
1.63591
1.67989
1.69813
1.68318
1.63895
1.58515
1.54117
1.52397
1.51281
1.51335
1.51894
1.52544
1.53097
1.53257
1.53287
1.53355
1.53476
1.53837
1.39698
1.23807
1.09793
0.993715
0.999316
1.01135
1.00115
1.00061
1.02429
1.06023
1.07623
1.09149
1.10716
1.1079
1.10337
1.10108
1.10594
1.11588
1.11984
1.11933
1.11603
1.10669
1.10335
1.12192
1.25086
1.52513
1.76721
1.98411
2.13584
2.18124
2.13397
2.05795
2.00236
1.97348
1.95522
1.93513
1.91004
1.88609
1.86506
1.84525
1.82667
1.80935
1.79227
1.77563
1.75996
1.74454
1.72696
1.70463
1.67915
1.65572
1.63921
1.62908
1.62047
1.61192
1.60353
1.59461
1.58321
1.56786
1.54871
1.52498
1.502
1.4907
1.48497
1.47919
1.47297
1.46763
1.46178
1.45144
1.43534
1.41102
1.39653
1.40155
1.43458
1.5091
1.62712
1.73268
1.81131
1.87215
1.89655
1.89043
1.86861
1.83407
1.80892
1.79164
1.7842
1.77976
1.77491
1.76917
1.76384
1.75688
1.74259
1.72065
1.70625
1.70013
1.69679
1.68969
1.49356
1.41611
1.33127
1.224
1.16889
1.14873
1.10526
1.06294
1.06457
1.06386
1.05585
1.05484
1.05982
1.06286
1.06306
1.06487
1.0742
1.08585
1.09249
1.09396
1.09205
1.09271
1.1195
1.26339
1.47944
1.56015
1.63174
1.7238
1.86466
1.96614
2.03356
2.03916
2.01616
1.98897
1.96393
1.9385
1.91181
1.89066
1.87335
1.85417
1.8342
1.81673
1.80032
1.78433
1.76866
1.75209
1.73305
1.71039
1.6868
1.66712
1.65205
1.63965
1.6287
1.61913
1.61083
1.60183
1.59028
1.57464
1.55463
1.53165
1.51149
1.50099
1.49399
1.48676
1.48014
1.47369
1.4671
1.45783
1.44391
1.42954
1.43404
1.46707
1.52706
1.58542
1.63176
1.68506
1.74031
1.79382
1.81603
1.82732
1.83335
1.82576
1.812
1.79848
1.79025
1.78427
1.7778
1.77237
1.76787
1.76061
1.74625
1.72466
1.71081
1.70486
1.70125
1.6935
1.53402
1.49309
1.43378
1.35951
1.27254
1.22122
1.17652
1.1178
1.08643
1.07329
1.05334
1.03632
1.0398
1.04242
1.0408
1.04096
1.04515
1.05254
1.06082
1.06603
1.07257
1.11727
1.29586
1.4776
1.58235
1.59034
1.58713
1.58966
1.62444
1.75998
1.92444
2.02123
2.03365
2.01519
1.97199
1.93714
1.91298
1.89247
1.87039
1.84557
1.82189
1.80373
1.78884
1.77395
1.75877
1.74297
1.72532
1.70604
1.68781
1.6696
1.65083
1.63395
1.61899
1.60478
1.59281
1.58498
1.57633
1.56391
1.54694
1.52928
1.516
1.50298
1.4883
1.47468
1.46479
1.45871
1.45499
1.4523
1.45288
1.46804
1.51585
1.57537
1.61326
1.63981
1.64752
1.65319
1.66859
1.70075
1.7397
1.77999
1.81363
1.82086
1.8179
1.80848
1.79818
1.78873
1.78157
1.77396
1.76506
1.75598
1.74355
1.72862
1.71638
1.70552
1.69656
1.68694
1.55536
1.53781
1.49888
1.44816
1.37357
1.30358
1.26507
1.21599
1.15646
1.13309
1.11147
1.06877
1.06009
1.05981
1.05235
1.04346
1.04005
1.03971
1.04092
1.04579
1.10094
1.30269
1.49479
1.57561
1.58875
1.5854
1.57281
1.55485
1.53861
1.5541
1.65021
1.83565
1.97675
1.98012
1.9727
1.9482
1.92584
1.90206
1.87544
1.84904
1.82465
1.80286
1.78458
1.76833
1.7531
1.73981
1.7273
1.71284
1.69667
1.67622
1.65493
1.6365
1.61977
1.60395
1.58746
1.5758
1.56876
1.56001
1.54963
1.5383
1.52544
1.50852
1.49038
1.47515
1.46395
1.46004
1.4599
1.46994
1.51035
1.57603
1.63331
1.65748
1.66559
1.66538
1.65682
1.64734
1.6395
1.64203
1.65483
1.68299
1.73445
1.77873
1.80023
1.80709
1.80703
1.80163
1.79442
1.78302
1.76845
1.75573
1.74566
1.7345
1.72253
1.71031
1.6999
1.68792
1.56828
1.56287
1.54231
1.50535
1.45528
1.38636
1.33189
1.29435
1.2485
1.20121
1.16317
1.12052
1.09242
1.0865
1.07993
1.06228
1.04526
1.04199
1.04903
1.12127
1.32705
1.51118
1.57863
1.58324
1.57898
1.56624
1.54833
1.52923
1.517
1.50335
1.50602
1.55761
1.72793
1.87375
1.95228
1.95262
1.93552
1.90392
1.87389
1.84925
1.82367
1.80013
1.78131
1.76387
1.74719
1.73158
1.71708
1.70229
1.68706
1.67419
1.66071
1.64283
1.62402
1.60728
1.59044
1.57239
1.55975
1.54934
1.5394
1.53012
1.51939
1.50726
1.49229
1.47938
1.47084
1.47238
1.49319
1.54924
1.61971
1.67458
1.69079
1.69027
1.68437
1.66963
1.65536
1.64427
1.63432
1.62759
1.62207
1.62553
1.64743
1.6994
1.75154
1.7916
1.80717
1.80637
1.79636
1.78033
1.76544
1.75281
1.74213
1.73214
1.72401
1.71598
1.70803
1.69405
1.57756
1.57379
1.56649
1.54446
1.50751
1.46092
1.40663
1.35006
1.31088
1.27647
1.24299
1.19536
1.14163
1.13234
1.13052
1.11597
1.09016
1.09554
1.18361
1.38945
1.55177
1.59943
1.59378
1.57727
1.56141
1.54612
1.529
1.51349
1.50096
1.48803
1.47424
1.46172
1.48446
1.59452
1.76967
1.88595
1.9005
1.89549
1.87545
1.85318
1.82802
1.8016
1.77582
1.7572
1.7445
1.73262
1.7193
1.70403
1.68685
1.66825
1.65148
1.64072
1.63086
1.61694
1.59698
1.57114
1.55165
1.54322
1.53652
1.52989
1.52275
1.51406
1.50431
1.49551
1.50031
1.53267
1.5986
1.66302
1.70502
1.71707
1.71533
1.70745
1.69313
1.67427
1.65692
1.64419
1.63427
1.62485
1.61715
1.61374
1.6141
1.6279
1.67088
1.72238
1.77206
1.78622
1.78462
1.77325
1.76313
1.75259
1.74239
1.73425
1.72635
1.71974
1.71489
1.70366
1.58333
1.58143
1.57719
1.56858
1.54794
1.51109
1.46826
1.4255
1.37025
1.32152
1.3014
1.27524
1.23536
1.18051
1.16139
1.15068
1.16593
1.26789
1.48241
1.62459
1.64271
1.62534
1.59539
1.56994
1.55403
1.53841
1.52051
1.50614
1.49291
1.47881
1.46121
1.44678
1.42484
1.426
1.48248
1.64306
1.78042
1.85536
1.86513
1.8581
1.83561
1.80422
1.77465
1.75395
1.73924
1.72657
1.71245
1.69622
1.67927
1.66423
1.65175
1.63921
1.62504
1.61055
1.59233
1.57036
1.55339
1.54117
1.52922
1.51945
1.51266
1.51091
1.51489
1.53419
1.58775
1.65834
1.70303
1.72201
1.73063
1.72677
1.7174
1.70712
1.69583
1.68149
1.66393
1.64663
1.63423
1.62453
1.61626
1.61093
1.60854
1.60732
1.61564
1.64088
1.68136
1.7269
1.75509
1.75986
1.75569
1.74955
1.74445
1.73863
1.73248
1.72695
1.72012
1.70326
1.58587
1.58483
1.58339
1.58003
1.5709
1.55067
1.51454
1.47795
1.44006
1.39554
1.33947
1.31877
1.29683
1.26003
1.22388
1.25528
1.39298
1.58002
1.69779
1.69827
1.67699
1.64229
1.60695
1.5801
1.55902
1.53894
1.5179
1.50268
1.48737
1.47161
1.45481
1.4385
1.41826
1.40016
1.38195
1.40233
1.50277
1.66276
1.77892
1.81901
1.8195
1.80283
1.77748
1.75264
1.73131
1.71492
1.70026
1.68635
1.67371
1.66056
1.64674
1.63303
1.62082
1.60781
1.59141
1.57204
1.55192
1.53646
1.525
1.5208
1.51964
1.5319
1.57932
1.65284
1.71914
1.74333
1.74831
1.74733
1.73992
1.72916
1.71782
1.70777
1.69824
1.68616
1.66825
1.64697
1.6319
1.6227
1.61665
1.61146
1.60741
1.60267
1.60014
1.59631
1.60253
1.62354
1.66691
1.70555
1.72354
1.73659
1.74599
1.74488
1.7398
1.73286
1.72358
1.70382
1.58204
1.58216
1.58153
1.58042
1.57832
1.57001
1.55143
1.51863
1.48619
1.45178
1.40885
1.36686
1.332
1.32058
1.3772
1.55431
1.71344
1.76902
1.7583
1.72599
1.68942
1.6552
1.62434
1.59816
1.57405
1.55036
1.526
1.50338
1.48181
1.46285
1.44785
1.43218
1.41422
1.39322
1.37478
1.3536
1.35369
1.4035
1.54872
1.68941
1.77535
1.78324
1.77567
1.74859
1.72058
1.70113
1.68759
1.67643
1.66592
1.65332
1.63894
1.62471
1.61284
1.60082
1.58676
1.56847
1.5479
1.53499
1.52916
1.5322
1.56314
1.63239
1.71344
1.76584
1.77418
1.76727
1.75578
1.74331
1.73415
1.72556
1.71661
1.70734
1.69778
1.68616
1.66844
1.64609
1.63089
1.62337
1.61706
1.6102
1.6038
1.59782
1.59234
1.58654
1.57411
1.56529
1.57739
1.61811
1.66746
1.70655
1.73284
1.74231
1.73915
1.7337
1.72459
1.70155
1.58055
1.58029
1.5791
1.57727
1.57704
1.57574
1.56801
1.54924
1.52264
1.48507
1.45269
1.40983
1.41737
1.51566
1.69813
1.83875
1.84801
1.82625
1.78742
1.7478
1.71026
1.6749
1.64195
1.61206
1.58467
1.55891
1.53435
1.51062
1.4871
1.46341
1.44337
1.4238
1.40515
1.38689
1.37022
1.35144
1.33534
1.32076
1.33999
1.43258
1.5908
1.7038
1.73372
1.72944
1.71076
1.69158
1.67821
1.66766
1.65674
1.64401
1.63019
1.61595
1.60186
1.58743
1.57407
1.55958
1.54849
1.53952
1.54967
1.60265
1.69666
1.76208
1.80282
1.80511
1.7985
1.77733
1.75126
1.73655
1.72721
1.71865
1.7105
1.70248
1.69353
1.68236
1.66686
1.64768
1.63096
1.6213
1.61417
1.60686
1.59935
1.59261
1.58672
1.58023
1.56704
1.54845
1.5422
1.55219
1.58699
1.63935
1.69183
1.71801
1.71787
1.71567
1.71074
1.69168
1.5753
1.5844
1.58239
1.57878
1.57709
1.57704
1.57486
1.56721
1.54663
1.52048
1.48957
1.52484
1.68085
1.84961
1.91733
1.91174
1.8801
1.84111
1.80338
1.76674
1.73027
1.6938
1.65829
1.62519
1.59463
1.56516
1.53674
1.51031
1.48715
1.46634
1.44731
1.427
1.40563
1.38431
1.36471
1.34845
1.32992
1.3123
1.29699
1.299
1.35039
1.48354
1.60949
1.67195
1.68878
1.68376
1.67256
1.65999
1.64631
1.63231
1.61798
1.60316
1.5893
1.57508
1.56443
1.5543
1.5553
1.58175
1.65369
1.74722
1.80408
1.80896
1.80681
1.80042
1.78696
1.76803
1.74751
1.73312
1.72129
1.71006
1.70055
1.69236
1.68374
1.67354
1.66229
1.64883
1.63379
1.62001
1.60971
1.60143
1.59317
1.5851
1.57833
1.57198
1.56169
1.54405
1.52888
1.52676
1.53241
1.55944
1.60815
1.66667
1.69166
1.69537
1.69244
1.67903
1.53896
1.57185
1.57112
1.56881
1.5709
1.57521
1.57403
1.56945
1.55598
1.56008
1.65192
1.83735
1.97404
2.00459
1.98625
1.93968
1.89237
1.85099
1.81408
1.77793
1.74153
1.70532
1.66983
1.63608
1.60467
1.57468
1.54624
1.51938
1.49237
1.46547
1.44209
1.42419
1.40856
1.39172
1.37293
1.35067
1.32692
1.30581
1.2884
1.27908
1.2746
1.29241
1.38108
1.51485
1.61477
1.63661
1.64592
1.63845
1.62485
1.61222
1.5998
1.58793
1.57569
1.56583
1.56127
1.57405
1.62974
1.71638
1.78775
1.83383
1.83404
1.82528
1.80681
1.78793
1.77182
1.75738
1.74311
1.72975
1.7163
1.7033
1.69181
1.68135
1.67216
1.66284
1.65332
1.64412
1.63431
1.62168
1.60791
1.59749
1.58905
1.58053
1.57225
1.56437
1.55501
1.54282
1.52655
1.51523
1.5135
1.51613
1.53344
1.57375
1.6249
1.6543
1.66354
1.6644
1.3716
1.51635
1.55667
1.56966
1.57336
1.57178
1.56846
1.57074
1.60837
1.76522
1.97904
2.05176
2.04201
2.02174
1.98527
1.94504
1.90222
1.85893
1.81907
1.78265
1.7478
1.71306
1.67798
1.64329
1.61071
1.58094
1.55275
1.5246
1.49726
1.47374
1.45167
1.42834
1.40649
1.38619
1.36826
1.35386
1.3367
1.31239
1.28789
1.26907
1.2611
1.25763
1.26266
1.30792
1.42535
1.53699
1.59839
1.61465
1.61005
1.5983
1.58304
1.57506
1.56849
1.57639
1.61273
1.69068
1.77145
1.81701
1.82769
1.82896
1.82332
1.81466
1.80186
1.78254
1.7635
1.74969
1.73855
1.72717
1.71416
1.70063
1.68736
1.67379
1.66125
1.65334
1.64744
1.64172
1.63447
1.62369
1.60928
1.59498
1.58609
1.57987
1.57425
1.56717
1.55841
1.54563
1.52917
1.51448
1.50527
1.50318
1.50389
1.51423
1.54068
1.57824
1.61172
1.63684
1.11346
1.3264
1.48091
1.54882
1.55825
1.56048
1.59112
1.69817
1.88215
2.04564
2.12665
2.12049
2.07615
2.0256
1.98532
1.94654
1.90602
1.86417
1.82312
1.78528
1.75144
1.71895
1.6846
1.64938
1.61542
1.58429
1.55729
1.53261
1.50491
1.47619
1.45409
1.43772
1.42034
1.40014
1.37779
1.35361
1.33069
1.3127
1.29563
1.27236
1.25938
1.25385
1.24589
1.24224
1.26127
1.34099
1.46101
1.54138
1.57837
1.57921
1.57422
1.5789
1.61781
1.68678
1.76714
1.82796
1.85209
1.85698
1.84696
1.82774
1.81077
1.79999
1.78975
1.77526
1.75851
1.74364
1.73137
1.72096
1.71009
1.69818
1.68496
1.67137
1.65953
1.65054
1.6428
1.63545
1.62836
1.62181
1.61172
1.59894
1.5875
1.57667
1.56651
1.55803
1.54919
1.54009
1.52994
1.5176
1.50716
1.49968
1.4958
1.49505
1.49843
1.5109
1.53625
1.59058
1.00706
1.075
1.2806
1.46947
1.54818
1.60427
1.79413
1.97726
2.0859
2.11872
2.11938
2.11207
2.08812
2.04382
1.99503
1.94835
1.90665
1.86882
1.83124
1.79309
1.75621
1.72088
1.68748
1.65363
1.6209
1.59144
1.5663
1.54222
1.51442
1.48659
1.46162
1.43736
1.41338
1.39102
1.37067
1.3496
1.33237
1.31759
1.29829
1.27927
1.26482
1.25208
1.23543
1.2221
1.21305
1.21909
1.26763
1.37523
1.48754
1.55273
1.59581
1.65696
1.76065
1.83082
1.86316
1.86373
1.85907
1.85364
1.84413
1.82852
1.81104
1.7945
1.78129
1.76877
1.75762
1.74761
1.737
1.72514
1.71201
1.69682
1.68313
1.67336
1.66489
1.65505
1.64452
1.63464
1.62473
1.61472
1.60571
1.5975
1.58855
1.57656
1.56432
1.55536
1.54765
1.53739
1.52792
1.52234
1.51539
1.50643
1.49636
1.48766
1.48366
1.48166
1.48637
1.52855
1.00008
1.00451
1.06462
1.26838
1.59575
1.77587
1.99634
2.1119
2.17263
2.16002
2.12493
2.10461
2.08865
2.05322
2.00331
1.95178
1.9051
1.86501
1.83693
1.81292
1.78008
1.73997
1.69827
1.65791
1.62287
1.59227
1.56117
1.53607
1.52404
1.50852
1.48183
1.4483
1.41818
1.39453
1.37629
1.35809
1.3346
1.31587
1.30915
1.29902
1.27998
1.25725
1.23567
1.22038
1.20966
1.20189
1.20449
1.23209
1.33202
1.51727
1.67286
1.77612
1.86882
1.91316
1.91227
1.90007
1.87206
1.84444
1.83278
1.82163
1.80942
1.79424
1.77804
1.76517
1.75602
1.74571
1.73156
1.71601
1.70192
1.68885
1.67871
1.67059
1.66141
1.65028
1.63812
1.62971
1.62417
1.61797
1.61104
1.60372
1.59501
1.58288
1.56827
1.55506
1.54596
1.53855
1.5313
1.52276
1.51257
1.5023
1.49369
1.48517
1.47765
1.47411
1.47367
1.4889
1.00019
1.00451
1.05209
1.24213
1.52388
1.84243
2.00408
2.09058
2.16869
2.14917
2.10935
2.09481
2.08015
2.05293
2.01101
1.96286
1.91678
1.87725
1.84103
1.80324
1.76564
1.72485
1.68786
1.66212
1.63583
1.6056
1.57444
1.54624
1.52048
1.49568
1.46843
1.43602
1.4156
1.40727
1.39484
1.37622
1.34983
1.32282
1.3008
1.28433
1.26511
1.2465
1.23914
1.23183
1.22142
1.20756
1.20869
1.23456
1.33164
1.49337
1.67796
1.81447
1.86559
1.90347
1.91326
1.89475
1.86051
1.83796
1.82787
1.81822
1.808
1.79461
1.78238
1.77325
1.76216
1.74776
1.73029
1.71311
1.69777
1.68745
1.68111
1.6735
1.66239
1.64951
1.63934
1.6311
1.62139
1.61217
1.60509
1.59836
1.59103
1.5824
1.5718
1.55837
1.54517
1.53613
1.52905
1.52104
1.51236
1.50208
1.49322
1.48656
1.4797
1.4737
1.47432
1.49007
1.01002
1.09288
1.27086
1.44816
1.50072
1.65965
1.8011
1.95928
2.07566
2.11203
2.11374
2.10493
2.07774
2.03548
1.99428
1.95476
1.9161
1.87852
1.83892
1.7982
1.75973
1.72439
1.68805
1.64999
1.61599
1.58668
1.55976
1.53406
1.50915
1.48842
1.46667
1.44245
1.41895
1.3954
1.37414
1.35542
1.33813
1.31923
1.29697
1.27765
1.2619
1.24547
1.22883
1.22082
1.21718
1.22312
1.27382
1.37559
1.49651
1.53382
1.59671
1.69672
1.75127
1.8197
1.85919
1.86262
1.86004
1.85147
1.83914
1.82291
1.81051
1.80003
1.78812
1.77389
1.75882
1.74355
1.72936
1.71579
1.7035
1.69212
1.67883
1.66736
1.66061
1.65352
1.64542
1.63572
1.6244
1.61337
1.60463
1.59772
1.59177
1.58576
1.57672
1.56246
1.5473
1.53718
1.53098
1.52415
1.51633
1.50709
1.49653
1.48703
1.48306
1.4832
1.4888
1.531
1.13475
1.33376
1.48629
1.54846
1.54799
1.55837
1.58728
1.68753
1.8764
2.06247
2.12376
2.1145
2.07014
2.02126
1.98875
1.95584
1.9169
1.8731
1.8277
1.78482
1.74657
1.71219
1.67835
1.6441
1.61153
1.58301
1.55918
1.5366
1.51151
1.48269
1.4528
1.42809
1.40894
1.391
1.37029
1.34774
1.3322
1.32052
1.30519
1.28396
1.26412
1.24707
1.23141
1.22869
1.24711
1.33364
1.45607
1.54195
1.58134
1.57912
1.57706
1.58452
1.60477
1.66683
1.75772
1.83137
1.86016
1.85966
1.84688
1.82697
1.81045
1.80125
1.79062
1.77456
1.75726
1.74229
1.73055
1.72075
1.71061
1.69894
1.68495
1.66883
1.65598
1.64763
1.64104
1.63506
1.62744
1.61666
1.60428
1.59303
1.58426
1.57787
1.57272
1.56704
1.55749
1.54522
1.52975
1.51664
1.50816
1.50169
1.49702
1.4928
1.49567
1.51298
1.54316
1.59922
1.41048
1.49945
1.54258
1.56602
1.57103
1.57266
1.57281
1.57616
1.61646
1.79004
1.99115
2.04255
2.04054
2.02406
1.99363
1.9537
1.90736
1.85931
1.81406
1.77372
1.73811
1.70526
1.67349
1.64291
1.61363
1.58543
1.55722
1.52873
1.5005
1.47358
1.44939
1.42598
1.40145
1.38174
1.36736
1.35177
1.3342
1.31718
1.30085
1.28101
1.26253
1.25021
1.25599
1.30748
1.41902
1.53508
1.5986
1.61726
1.61527
1.60853
1.59003
1.572
1.55847
1.56515
1.6064
1.70161
1.78473
1.83257
1.83168
1.82976
1.82209
1.81081
1.79451
1.77489
1.75749
1.74587
1.73837
1.73203
1.72338
1.70895
1.68855
1.66992
1.65817
1.65073
1.64513
1.63937
1.63098
1.61922
1.60551
1.59296
1.58418
1.57791
1.57123
1.56326
1.55501
1.54501
1.53211
1.51978
1.51073
1.50583
1.50589
1.51296
1.53856
1.58091
1.62084
1.65004
1.55799
1.55838
1.55391
1.55861
1.56828
1.57556
1.5747
1.57059
1.55862
1.56545
1.65956
1.83129
1.97595
2.00774
1.98845
1.94088
1.891
1.84623
1.80622
1.7691
1.73387
1.70031
1.66856
1.63807
1.60834
1.58028
1.55321
1.5263
1.49996
1.47391
1.44775
1.42292
1.40118
1.38303
1.36572
1.34798
1.32933
1.31279
1.29686
1.28261
1.27427
1.29165
1.3847
1.51561
1.61256
1.64397
1.6509
1.64352
1.63069
1.61578
1.59778
1.577
1.56152
1.56014
1.5616
1.58316
1.64784
1.73642
1.80126
1.83313
1.83172
1.81808
1.79653
1.78111
1.76832
1.75981
1.7502
1.73893
1.72659
1.71107
1.69131
1.67473
1.66422
1.65685
1.65053
1.64339
1.63438
1.62333
1.61052
1.59757
1.58687
1.57906
1.57223
1.56463
1.55529
1.54409
1.53375
1.52567
1.51915
1.52032
1.53248
1.56446
1.61363
1.64583
1.66226
1.67345
1.58031
1.58073
1.57684
1.57584
1.57755
1.57882
1.5755
1.56573
1.54424
1.51981
1.48952
1.52157
1.67787
1.85442
1.9185
1.90829
1.87522
1.83665
1.79809
1.76064
1.72516
1.69192
1.66061
1.63025
1.60052
1.57252
1.54637
1.51972
1.49355
1.46775
1.44351
1.42047
1.39904
1.37917
1.3617
1.34584
1.32936
1.31628
1.30464
1.30523
1.34965
1.47822
1.61244
1.66779
1.68919
1.68712
1.67456
1.66077
1.6461
1.63
1.61089
1.58851
1.57515
1.56692
1.56154
1.56177
1.56776
1.59768
1.67065
1.74463
1.79214
1.79535
1.79418
1.793
1.78556
1.77453
1.75974
1.74526
1.73154
1.71477
1.69572
1.68078
1.67038
1.66275
1.65597
1.64874
1.64053
1.63095
1.61917
1.6054
1.59268
1.58283
1.57395
1.56437
1.55437
1.54572
1.54132
1.53699
1.54112
1.56207
1.60515
1.64843
1.67268
1.67896
1.68684
1.68697
1.58284
1.57971
1.57681
1.57634
1.57655
1.57598
1.56853
1.54933
1.52195
1.48467
1.45228
1.40912
1.41617
1.51512
1.69564
1.82763
1.84653
1.82631
1.78793
1.74783
1.71102
1.67813
1.6476
1.61855
1.59012
1.56345
1.53864
1.51176
1.48416
1.45753
1.4351
1.41519
1.39768
1.3805
1.36688
1.35226
1.34278
1.33145
1.34564
1.43832
1.57865
1.69404
1.72299
1.71885
1.71073
1.69838
1.68496
1.6737
1.66176
1.64636
1.62608
1.60489
1.59023
1.57923
1.57054
1.56266
1.55891
1.55214
1.55869
1.59936
1.67651
1.74648
1.7863
1.79874
1.79706
1.78422
1.76714
1.75238
1.73783
1.71959
1.70019
1.68496
1.6748
1.66787
1.66149
1.65477
1.64732
1.63862
1.62839
1.61592
1.59976
1.58383
1.57256
1.56347
1.55572
1.55294
1.55501
1.56952
1.60356
1.65231
1.69471
1.70753
1.6999
1.69432
1.69186
1.68733
1.58248
1.58192
1.58087
1.57977
1.57806
1.57038
1.55218
1.51906
1.48586
1.45112
1.40849
1.36646
1.33144
1.32028
1.37528
1.54537
1.71303
1.77229
1.76138
1.72863
1.69154
1.65823
1.62937
1.60345
1.57714
1.5518
1.52766
1.50259
1.47644
1.4542
1.43648
1.42132
1.4069
1.39096
1.37872
1.36321
1.36626
1.41839
1.54913
1.69458
1.75158
1.76718
1.76131
1.74243
1.72519
1.70995
1.6964
1.68486
1.67409
1.65904
1.63788
1.61748
1.60292
1.59101
1.58022
1.56916
1.5587
1.54834
1.53492
1.53187
1.55301
1.62134
1.70436
1.75832
1.77769
1.77814
1.77308
1.76115
1.74511
1.72402
1.70242
1.68592
1.67683
1.67104
1.66514
1.65913
1.65269
1.64486
1.6348
1.61993
1.5998
1.58167
1.5715
1.56509
1.56467
1.57079
1.59894
1.65056
1.70021
1.73616
1.73931
1.73253
1.71407
1.70129
1.69674
1.68766
1.58618
1.58481
1.58299
1.57943
1.57083
1.55095
1.51494
1.47805
1.43962
1.39506
1.33955
1.31911
1.29677
1.25953
1.22352
1.254
1.39556
1.58974
1.70124
1.70001
1.67817
1.64381
1.6107
1.58374
1.55864
1.53697
1.51794
1.50036
1.47895
1.45952
1.44213
1.43035
1.41636
1.40378
1.39341
1.41617
1.52813
1.68402
1.78594
1.81032
1.80292
1.78555
1.76611
1.75076
1.73808
1.72506
1.71161
1.69769
1.68189
1.66228
1.64178
1.62531
1.61228
1.6007
1.58916
1.57639
1.56345
1.54976
1.53287
1.52084
1.51485
1.52553
1.57151
1.64648
1.71479
1.76188
1.76657
1.76385
1.74999
1.72696
1.70437
1.68668
1.67649
1.67107
1.6656
1.66029
1.65488
1.64783
1.63711
1.62117
1.59939
1.58115
1.57471
1.57521
1.58987
1.63117
1.69165
1.74333
1.76196
1.7611
1.7528
1.73456
1.71821
1.70762
1.70174
1.69042
1.58374
1.58172
1.57727
1.56898
1.54807
1.51096
1.46808
1.42531
1.36964
1.32195
1.30206
1.27534
1.23504
1.18014
1.16147
1.15097
1.16676
1.27567
1.48741
1.62346
1.64399
1.62704
1.59694
1.57214
1.55243
1.53439
1.51882
1.50401
1.48719
1.46925
1.45221
1.44256
1.42976
1.43341
1.49387
1.65594
1.80396
1.86625
1.86148
1.8437
1.81557
1.79199
1.77169
1.75824
1.74763
1.73685
1.72348
1.70666
1.68355
1.65989
1.64275
1.63042
1.61843
1.60677
1.59653
1.58738
1.57548
1.55884
1.53841
1.5193
1.50773
1.5016
1.5025
1.52528
1.58198
1.66402
1.71864
1.7379
1.73823
1.73036
1.71204
1.69083
1.67728
1.67008
1.66389
1.65792
1.65203
1.64459
1.63401
1.61936
1.59957
1.58503
1.58841
1.61126
1.66092
1.71931
1.76997
1.78394
1.78243
1.77201
1.75289
1.73392
1.7223
1.71413
1.70749
1.69408
1.57749
1.57372
1.56646
1.5444
1.50747
1.46091
1.40654
1.35
1.31107
1.27677
1.24324
1.1949
1.14182
1.13296
1.13086
1.11586
1.08986
1.09616
1.18506
1.38521
1.55025
1.60004
1.59249
1.57423
1.55563
1.53868
1.52495
1.51393
1.50218
1.48599
1.4712
1.46281
1.48535
1.6032
1.77161
1.89577
1.90445
1.89392
1.87037
1.84363
1.82021
1.79873
1.7807
1.7671
1.7538
1.74272
1.73019
1.70865
1.68061
1.65663
1.64231
1.63214
1.62264
1.6131
1.60139
1.58614
1.5688
1.55064
1.53678
1.52408
1.51024
1.49814
1.48798
1.48366
1.49184
1.53431
1.60965
1.67071
1.71398
1.72055
1.71493
1.69612
1.67864
1.66637
1.65868
1.65249
1.64611
1.63915
1.63118
1.62035
1.60711
1.61381
1.64786
1.69666
1.74455
1.77912
1.79169
1.78902
1.77839
1.76188
1.74653
1.73439
1.72564
1.71953
1.71236
1.6966
1.56828
1.56287
1.54236
1.50547
1.45517
1.38624
1.33233
1.29446
1.24821
1.20133
1.16315
1.1202
1.09279
1.08682
1.08003
1.06193
1.04509
1.04178
1.04842
1.11905
1.31802
1.51842
1.58179
1.57741
1.56844
1.55633
1.54279
1.53155
1.52272
1.50951
1.51214
1.57033
1.73535
1.88403
1.94614
1.94347
1.92581
1.8943
1.86439
1.84296
1.82408
1.80512
1.78801
1.77515
1.76188
1.74447
1.72394
1.70054
1.6791
1.66174
1.64676
1.6338
1.62285
1.61202
1.60069
1.58757
1.56839
1.54896
1.53699
1.52821
1.51776
1.50401
1.48779
1.47441
1.46958
1.47481
1.50238
1.55511
1.62523
1.67985
1.69277
1.68912
1.67997
1.66693
1.65509
1.64422
1.63509
1.6328
1.63041
1.63508
1.65367
1.69786
1.74752
1.77922
1.80078
1.80062
1.7918
1.77846
1.76417
1.75169
1.74159
1.73265
1.72569
1.72054
1.71447
1.69945
1.55537
1.53778
1.49898
1.44812
1.37323
1.30404
1.2655
1.2153
1.15664
1.13365
1.11121
1.06835
1.06051
1.05993
1.05212
1.04335
1.04005
1.03964
1.04077
1.04542
1.09927
1.29239
1.51882
1.57348
1.57805
1.57595
1.56689
1.55139
1.54366
1.56221
1.6662
1.85655
1.98336
1.98061
1.96573
1.93659
1.91148
1.88785
1.86649
1.85275
1.83758
1.81909
1.80028
1.77917
1.75659
1.73576
1.71578
1.69454
1.67751
1.66652
1.65568
1.64476
1.63338
1.62104
1.60431
1.5828
1.56187
1.54682
1.53752
1.52862
1.51907
1.50741
1.49234
1.47792
1.46565
1.45958
1.45746
1.46722
1.50491
1.57573
1.63097
1.66314
1.67082
1.66729
1.65616
1.6416
1.63558
1.63753
1.65408
1.69236
1.74307
1.78821
1.80991
1.81277
1.80874
1.79748
1.78031
1.76429
1.75342
1.74684
1.74221
1.73788
1.73347
1.72873
1.72138
1.70076
1.53401
1.49311
1.43385
1.35924
1.27259
1.22168
1.1764
1.11731
1.08698
1.07354
1.05286
1.03639
1.04015
1.04239
1.04062
1.04087
1.04527
1.05256
1.06086
1.06578
1.07233
1.11417
1.29796
1.49825
1.5805
1.58539
1.58376
1.58592
1.62204
1.76118
1.9391
2.02893
2.03222
2.00838
1.96016
1.92503
1.90556
1.8894
1.87217
1.85418
1.83431
1.8139
1.79376
1.77359
1.7525
1.73197
1.7124
1.69421
1.68271
1.67251
1.65964
1.64407
1.62713
1.61157
1.59629
1.57782
1.56052
1.5491
1.54099
1.53274
1.52337
1.51159
1.4986
1.48568
1.46993
1.45443
1.44229
1.43711
1.43983
1.46145
1.51965
1.58358
1.63642
1.64923
1.64598
1.6458
1.65564
1.67851
1.72539
1.77957
1.81767
1.83623
1.83622
1.83005
1.8127
1.78907
1.76641
1.75518
1.74869
1.7435
1.7383
1.73356
1.72921
1.72415
1.717
1.69772
1.49356
1.41626
1.33101
1.22358
1.16972
1.14906
1.1044
1.06286
1.06472
1.06388
1.0557
1.05495
1.06004
1.06279
1.06287
1.06483
1.07433
1.08589
1.09244
1.0939
1.09199
1.09258
1.11946
1.28292
1.48657
1.5556
1.63203
1.7258
1.86191
1.97049
2.04597
2.03992
2.01404
1.9827
1.95531
1.93335
1.91599
1.90019
1.88431
1.86558
1.84325
1.81804
1.79275
1.77089
1.75311
1.7371
1.72209
1.71024
1.69953
1.68639
1.67031
1.65194
1.63174
1.61032
1.59265
1.58
1.56962
1.56155
1.5539
1.54539
1.53574
1.525
1.51338
1.49941
1.47956
1.45578
1.43744
1.42695
1.4228
1.42501
1.43973
1.48308
1.55578
1.61197
1.64075
1.68368
1.73131
1.75776
1.78791
1.81524
1.83857
1.84429
1.83756
1.82369
1.80441
1.77945
1.75847
1.75223
1.74887
1.74568
1.74172
1.7365
1.73091
1.72361
1.71478
1.69733
1.397
1.23806
1.09739
0.99447
1.00027
1.01114
1.00021
1.00009
1.02459
1.06045
1.07623
1.09168
1.10719
1.10787
1.10315
1.10094
1.10595
1.11588
1.11983
1.11936
1.11606
1.10655
1.1033
1.12626
1.25744
1.51339
1.75883
1.98125
2.13675
2.18131
2.13533
2.05613
1.99609
1.9673
1.94916
1.92968
1.91144
1.89442
1.8777
1.85895
1.83651
1.81166
1.78621
1.76295
1.74323
1.72652
1.7131
1.70246
1.69191
1.67887