/*--------------------------------*- C++ -*----------------------------------*\
  =========                 |
  \\      /  F ield         | OpenFOAM: The Open Source CFD Toolbox
   \\    /   O peration     | Website:  https://openfoam.org
    \\  /    A nd           | Version:  7
     \\/     M anipulation  |
\*---------------------------------------------------------------------------*/
FoamFile
{
    version     2.0;
    format      ascii;
    class       volVectorField;
    location    "3.8";
    object      U;
}
// * * * * * * * * * * * * * * * * * * * * * * * * * * * * * * * * * * * * * //

dimensions      [0 1 -1 0 0 0 0];

internalField   nonuniform List<vector> 
4608
(
(3 3.92058e-17 0)
(3 -1.21699e-16 0)
(3 -6.21178e-16 0)
(3 -6.28212e-16 0)
(3 -6.24612e-16 0)
(3 -5.36368e-16 0)
(3 -4.97399e-16 0)
(3 -3.81247e-16 0)
(3 -3.34985e-16 0)
(3 -5.13165e-16 0)
(3 -1.14496e-15 0)
(3 -6.80514e-16 0)
(3 4.63014e-16 0)
(3 9.58958e-16 0)
(3 5.71485e-16 0)
(3 5.7522e-16 0)
(3 9.41651e-16 0)
(3 9.92551e-16 0)
(3 1.46086e-15 0)
(3 1.73156e-15 0)
(3 1.99108e-16 0)
(3 -7.50574e-16 0)
(3 -6.93139e-16 0)
(3 2.80651e-17 0)
(3 1.30823e-17 0)
(3 -2.61711e-16 0)
(3 -1.26076e-15 0)
(3 -1.57211e-15 0)
(3 -1.34351e-15 0)
(3 -1.3684e-15 0)
(3 -1.30088e-15 0)
(3 -1.59676e-15 0)
(3 -1.54747e-15 0)
(3 -1.52275e-15 0)
(3 -1.17094e-15 0)
(3 1.42941e-16 0)
(3 9.66676e-16 0)
(3 1.27176e-16 0)
(3 -5.38781e-16 0)
(3 1.00378e-16 0)
(3 7.90085e-16 0)
(3 1.70679e-15 0)
(3 2.45939e-15 0)
(3 3.45465e-15 0)
(3 7.36971e-16 0)
(3 -2.57609e-16 0)
(3 -2.43418e-16 0)
(3 -4.19332e-16 0)
(3 -1.21422e-16 0)
(3 -2.57828e-16 0)
(3 -6.30723e-16 0)
(3 -1.10304e-15 0)
(3 -7.64091e-16 0)
(3 -4.87667e-16 0)
(3 -6.24506e-16 0)
(3 -1.4194e-15 0)
(3 -1.44648e-15 0)
(3 -1.10184e-15 0)
(3 2.53983e-16 0)
(3 1.53057e-15 0)
(3 3.38393e-16 0)
(3 -4.46493e-16 0)
(3 -2.6594e-16 0)
(3 1.46713e-16 0)
(3 6.94866e-16 0)
(3 1.59091e-15 0)
(3 2.50516e-15 0)
(3 2.37516e-15 0)
(3 1.41647e-15 0)
(3 1.38762e-15 0)
(3 9.32835e-16 0)
(3 9.24655e-16 0)
(3 -5.75547e-17 0)
(3 2.64771e-17 0)
(3 -7.20947e-17 0)
(3 -1.72477e-16 0)
(3 2.79172e-17 0)
(3 -9.87251e-18 0)
(3 1.29572e-16 0)
(3 7.82077e-16 0)
(3 1.57355e-15 0)
(3 2.06218e-18 0)
(3 -7.10437e-16 0)
(3 -7.53863e-16 0)
(3 -1.021e-15 0)
(3 -5.65479e-16 0)
(3 -6.60557e-16 0)
(3 -5.6372e-16 0)
(3 6.51457e-16 0)
(3 9.67506e-16 0)
(3 1.38526e-15 0)
(3 1.42156e-15 0)
(3 2.49531e-16 0)
(3 -7.07042e-17 0)
(3 4.7615e-16 0)
(3 1.02878e-15 0)
(3 7.33809e-17 0)
(3 1.36037e-16 0)
(3 1.64169e-16 0)
(3 2.26514e-16 0)
(3 2.92669e-17 0)
(3 -1.34869e-16 0)
(3 7.58878e-16 0)
(3 1.80489e-15 0)
(3 2.12006e-15 0)
(3 1.21353e-15 0)
(3 -1.91974e-15 0)
(3 -3.63006e-15 0)
(3 -2.82989e-15 0)
(3 -1.97867e-15 0)
(3 -1.87346e-15 0)
(3 -1.67593e-15 0)
(3 -1.57709e-15 0)
(3 -6.80529e-16 0)
(3 -9.24615e-16 0)
(3 -8.37877e-16 0)
(3 -9.70528e-16 0)
(3 -6.82627e-16 0)
(3 9.70033e-16 0)
(3 1.18243e-15 0)
(3 -8.29542e-18 0)
(3 2.5249e-16 0)
(3 1.36413e-16 0)
(3 6.87186e-17 0)
(3 1.65586e-16 0)
(3 6.48751e-16 0)
(3 1.56826e-15 0)
(3 1.62459e-15 0)
(3 7.02205e-16 0)
(3 -1.16338e-15 0)
(3 -1.82726e-15 0)
(3 -2.61708e-15 0)
(3 -3.6598e-15 0)
(3 -3.5186e-15 0)
(3 -3.52418e-15 0)
(3 -2.8398e-15 0)
(3 -2.4622e-15 0)
(3 -1.58958e-15 0)
(3 -9.009e-16 0)
(3 -1.61186e-15 0)
(3 -1.93192e-15 0)
(3 -1.15314e-15 0)
(3 -5.29448e-16 0)
(3 7.15906e-17 0)
(3 1.22093e-16 0)
(3 3.19208e-16 0)
(3 2.41097e-16 0)
(3 3.22982e-16 0)
(3 5.30965e-16 0)
(3 4.42624e-16 0)
(3 5.36161e-16 0)
(3 1.2762e-15 0)
(3 -9.17468e-18 0)
(3 -1.95308e-15 0)
(3 -2.17996e-15 0)
(3 -2.26423e-15 0)
(3 -1.98767e-15 0)
(3 -3.46056e-15 0)
(3 -4.1259e-15 0)
(3 -4.54851e-15 0)
(3 -3.20146e-15 0)
(3 -9.22088e-16 0)
(3 2.82531e-17 0)
(3 -1.86579e-16 0)
(3 -1.33599e-16 0)
(3 -1.01266e-15 0)
(3 -1.43697e-15 0)
(3 -1.96768e-15 0)
(3 1.40115e-16 0)
(3 -4.65382e-16 0)
(3 -3.36573e-17 0)
(3 3.10521e-16 0)
(3 2.2106e-16 0)
(3 1.03701e-16 0)
(3 1.94167e-16 0)
(3 3.85886e-16 0)
(3 -2.71584e-16 0)
(3 -4.60122e-16 0)
(3 -1.33637e-16 0)
(3 -3.40912e-16 0)
(3 -1.3257e-16 0)
(3 -4.01024e-16 0)
(3 -1.21529e-15 0)
(3 -2.17397e-15 0)
(3 -1.86459e-15 0)
(3 -1.49785e-15 0)
(3 -1.28932e-15 0)
(3 -1.8433e-16 0)
(3 4.86053e-16 0)
(3 4.74366e-16 0)
(3 3.73494e-16 0)
(3 -7.67878e-16 0)
(3 -1.10594e-16 0)
(3 -2.08756e-16 0)
(3 -2.57936e-17 0)
(3 2.04248e-16 0)
(3 2.84286e-16 0)
(3 1.76553e-16 0)
(3 2.26976e-17 0)
(3 -2.74144e-16 0)
(3 -3.8463e-16 0)
(3 -3.08311e-16 0)
(3 -1.43949e-16 0)
(3 -3.11277e-16 0)
(3 -6.20772e-16 0)
(3 -4.99859e-16 0)
(3 -5.08022e-16 0)
(3 -1.09468e-15 0)
(3 -1.36515e-15 0)
(3 -8.69014e-16 0)
(3 -1.63435e-16 0)
(3 6.68622e-16 0)
(3 6.61502e-16 0)
(3 6.10246e-16 0)
(3 6.78196e-16 0)
(3 3.2817e-16 0)
(3 -2.50026e-16 0)
(3 1.22931e-16 0)
(3 1.59194e-16 0)
(3 2.18832e-16 0)
(3 1.86155e-16 0)
(3 -1.01924e-16 0)
(3 -1.00862e-15 0)
(3 -1.49602e-15 0)
(3 -6.56756e-16 0)
(3 -3.0108e-16 0)
(3 -6.27609e-16 0)
(3 -1.21436e-15 0)
(3 -1.54234e-15 0)
(3 -1.79799e-15 0)
(3 -1.4308e-15 0)
(3 -4.69533e-16 0)
(3 -8.34008e-16 0)
(3 -7.21929e-16 0)
(3 9.12306e-16 0)
(3 1.249e-15 0)
(3 1.25936e-15 0)
(3 9.00076e-16 0)
(3 -1.58081e-16 0)
(3 -4.85853e-16 0)
(3 4.18454e-17 0)
(3 2.01045e-17 0)
(3 -3.08025e-17 0)
(3 -2.3709e-16 0)
(3 -3.61769e-16 0)
(3 -6.79993e-16 0)
(3 -8.19143e-16 0)
(3 -8.19759e-16 0)
(3 -5.48186e-16 0)
(3 1.27115e-16 0)
(3 2.65863e-16 0)
(3 1.1328e-16 0)
(3 -7.64419e-16 0)
(3 -1.5657e-15 0)
(3 -1.05338e-15 0)
(3 -1.52549e-16 0)
(3 3.06131e-16 0)
(3 5.90542e-16 0)
(3 6.17892e-16 0)
(3 8.00497e-16 0)
(3 7.44017e-16 0)
(3 4.11675e-16 0)
(3 2.85963e-17 0)
(3 -1.09423e-15 0)
(3 1.97619e-16 0)
(3 1.24235e-16 0)
(3 -7.38813e-17 0)
(3 -1.28891e-16 0)
(3 -4.25316e-16 0)
(3 -6.32441e-16 0)
(3 -5.05746e-16 0)
(3 3.07995e-16 0)
(3 4.07047e-17 0)
(3 -2.90708e-16 0)
(3 -1.49249e-16 0)
(3 3.45402e-16 0)
(3 1.23414e-16 0)
(3 -6.99487e-16 0)
(3 -9.69093e-16 0)
(3 -5.08673e-16 0)
(3 1.24776e-16 0)
(3 -3.53101e-16 0)
(3 -8.11402e-16 0)
(3 -4.30684e-16 0)
(3 -5.23646e-17 0)
(3 -1.16686e-15 0)
(3 -1.34129e-15 0)
(3 -1.5108e-15 0)
(3 -1.63203e-18 0)
(3 1.20254e-16 0)
(3 4.19281e-16 0)
(3 5.38793e-16 0)
(3 4.04063e-16 0)
(3 6.85835e-16 0)
(3 9.42748e-16 0)
(3 8.96475e-16 0)
(3 5.77824e-16 0)
(3 9.88888e-17 0)
(3 -9.86067e-17 0)
(3 -5.74939e-17 0)
(3 2.45577e-16 0)
(3 1.09774e-16 0)
(3 -1.61919e-16 0)
(3 -1.00396e-15 0)
(3 -1.21576e-15 0)
(3 -8.90674e-16 0)
(3 -1.24669e-15 0)
(3 -1.59972e-15 0)
(3 -4.52754e-16 0)
(3 -6.66534e-16 0)
(3 -1.01437e-15 0)
(3 -6.02187e-16 0)
(3 -8.69518e-18 0)
(3 2.11213e-16 0)
(3 3.41166e-16 0)
(3 8.19563e-17 0)
(3 7.66895e-17 0)
(3 1.63724e-16 0)
(3 1.02455e-15 0)
(3 1.86614e-15 0)
(3 1.84182e-15 0)
(3 1.18266e-15 0)
(3 6.70253e-16 0)
(3 6.24836e-16 0)
(3 8.73974e-16 0)
(3 4.90889e-16 0)
(3 1.74658e-16 0)
(3 -8.07978e-16 0)
(3 -1.2871e-15 0)
(3 -1.16407e-15 0)
(3 -9.09344e-16 0)
(3 -4.50964e-16 0)
(3 -7.44037e-16 0)
(3 -6.67525e-16 0)
(3 -7.02823e-16 0)
(3 -6.83995e-16 0)
(3 2.61788e-17 0)
(3 1.50166e-16 0)
(3 -1.42374e-16 0)
(3 -5.86618e-16 0)
(3 -8.20293e-16 0)
(3 -9.66683e-16 0)
(3 -8.28315e-16 0)
(3 -3.48166e-16 0)
(3 2.82413e-16 0)
(3 4.32863e-16 0)
(3 1.25121e-16 0)
(3 6.56102e-16 0)
(3 1.55088e-15 0)
(3 1.78722e-15 0)
(3 1.50683e-15 0)
(3 7.25823e-16 0)
(3 -4.78952e-16 0)
(3 -1.10932e-15 0)
(3 -4.65155e-16 0)
(3 -3.25642e-16 0)
(3 -8.45126e-16 0)
(3 -1.27388e-15 0)
(3 -1.21287e-15 0)
(3 -2.71471e-16 0)
(3 8.27484e-17 0)
(3 -2.04374e-16 0)
(3 -3.53392e-16 0)
(3 -2.89227e-16 0)
(3 2.46557e-17 0)
(3 7.33476e-17 0)
(3 -5.40891e-16 0)
(3 -2.05839e-15 0)
(3 -2.48388e-15 0)
(3 -1.8682e-15 0)
(3 -2.04683e-15 0)
(3 -1.16812e-15 0)
(3 5.18143e-17 0)
(3 9.80746e-16 0)
(3 1.78274e-15 0)
(3 1.6297e-15 0)
(3 1.48405e-15 0)
(3 1.54617e-15 0)
(3 1.63775e-15 0)
(3 1.36922e-15 0)
(3 1.23597e-15 0)
(3 1.05273e-15 0)
(3 1.159e-15 0)
(3 1.31294e-15 0)
(3 4.1339e-18 0)
(3 -6.95519e-16 0)
(3 -6.32391e-16 0)
(3 1.72394e-17 0)
(3 5.86405e-16 0)
(3 6.13887e-16 0)
(3 -4.03195e-16 0)
(3 -8.50585e-16 0)
(3 -1.66765e-15 0)
(3 -1.99801e-15 0)
(3 -1.39747e-15 0)
(3 -6.76667e-16 0)
(3 -6.91724e-16 0)
(3 -2.9883e-16 0)
(3 8.54503e-16 0)
(3 1.32198e-15 0)
(3 1.18011e-15 0)
(3 1.35091e-15 0)
(3 1.65109e-15 0)
(3 1.47739e-15 0)
(3 2.30124e-15 0)
(3 2.36337e-15 0)
(3 2.10585e-15 0)
(3 1.2651e-15 0)
(3 3.04186e-19 0)
(3 1.36299e-16 0)
(3 1.04518e-16 0)
(3 -1.43961e-16 0)
(3 -7.52593e-16 0)
(3 -9.62858e-16 0)
(3 -8.97342e-16 0)
(3 -7.45012e-16 0)
(3 -6.76344e-16 0)
(3 -4.54234e-16 0)
(3 3.86831e-16 0)
(3 3.26459e-16 0)
(3 4.77321e-16 0)
(3 5.97581e-16 0)
(3 9.27353e-16 0)
(3 1.83451e-15 0)
(3 2.14682e-15 0)
(3 1.95603e-15 0)
(3 1.02946e-15 0)
(3 6.44011e-16 0)
(3 1.03294e-15 0)
(3 1.59155e-15 0)
(3 1.76944e-15 0)
(3 1.84882e-15 0)
(3 3.50606e-17 0)
(3 4.97957e-16 0)
(3 5.83719e-16 0)
(3 7.50598e-17 0)
(3 -8.27689e-16 0)
(3 -1.19021e-15 0)
(3 -1.1409e-15 0)
(3 -1.04142e-15 0)
(3 -6.62784e-16 0)
(3 -2.14364e-16 0)
(3 1.5726e-15 0)
(3 2.11982e-15 0)
(3 2.35411e-15 0)
(3 2.24627e-15 0)
(3 2.46863e-15 0)
(3 2.51435e-15 0)
(3 2.22008e-15 0)
(3 1.77574e-15 0)
(3 1.08193e-15 0)
(3 8.77518e-16 0)
(3 8.36295e-16 0)
(3 1.47185e-15 0)
(3 1.00051e-15 0)
(3 8.54919e-16 0)
(3 3.90881e-17 0)
(3 -4.3712e-17 0)
(3 2.81067e-16 0)
(3 1.30043e-16 0)
(3 -1.60652e-16 0)
(3 -1.91179e-16 0)
(3 -1.51038e-16 0)
(3 4.87519e-16 0)
(3 1.14231e-15 0)
(3 9.35638e-16 0)
(3 2.23316e-15 0)
(3 2.64818e-15 0)
(3 3.19408e-15 0)
(3 3.30627e-15 0)
(3 3.12649e-15 0)
(3 2.73359e-15 0)
(3 1.98967e-15 0)
(3 1.70664e-15 0)
(3 8.98153e-16 0)
(3 7.75848e-16 0)
(3 9.20946e-16 0)
(3 1.10753e-15 0)
(3 8.7685e-17 0)
(3 -8.66064e-16 0)
(3 -1.71661e-17 0)
(3 -1.63386e-16 0)
(3 -4.11244e-16 0)
(3 -7.6139e-16 0)
(3 -5.21981e-16 0)
(3 -5.335e-17 0)
(3 -1.82725e-16 0)
(3 8.27437e-16 0)
(3 1.98481e-15 0)
(3 1.59898e-15 0)
(3 1.2587e-15 0)
(3 1.11813e-15 0)
(3 1.42947e-15 0)
(3 1.49806e-15 0)
(3 7.96315e-16 0)
(3 8.13956e-16 0)
(3 1.23413e-15 0)
(3 9.36693e-16 0)
(3 -2.08863e-17 0)
(3 -5.6125e-16 0)
(3 -1.45311e-16 0)
(3 3.42715e-16 0)
(3 1.32406e-15 0)
(3 1.2271e-15 0)
(3 -1.18609e-16 0)
(3 -1.80512e-16 0)
(3 -3.14552e-16 0)
(3 -4.76098e-17 0)
(3 2.63467e-16 0)
(3 5.75495e-16 0)
(3 4.21251e-16 0)
(3 9.27164e-16 0)
(3 1.57015e-15 0)
(3 2.29634e-15 0)
(3 2.0614e-15 0)
(3 1.66923e-15 0)
(3 1.30182e-15 0)
(3 1.02002e-15 0)
(3 5.72925e-16 0)
(3 -3.52844e-16 0)
(3 -5.51741e-16 0)
(3 -1.17782e-15 0)
(3 -1.71213e-15 0)
(3 -1.42053e-15 0)
(3 -7.84096e-16 0)
(3 3.73253e-17 0)
(3 1.82014e-15 0)
(3 2.46614e-15 0)
(3 -1.86888e-17 0)
(3 -2.37109e-17 0)
(3 2.66279e-16 0)
(3 9.60206e-16 0)
(3 1.3074e-15 0)
(3 1.14426e-15 0)
(3 1.05561e-15 0)
(3 1.06997e-15 0)
(3 1.20968e-15 0)
(3 1.57261e-15 0)
(3 1.73734e-15 0)
(3 8.70881e-16 0)
(3 3.19526e-16 0)
(3 4.084e-17 0)
(3 -6.39372e-16 0)
(3 -1.45087e-15 0)
(3 -2.39813e-15 0)
(3 -2.19889e-15 0)
(3 -1.80627e-15 0)
(3 -9.51228e-16 0)
(3 -1.36117e-15 0)
(3 -1.84729e-15 0)
(3 -1.70951e-15 0)
(3 -1.73351e-16 0)
(3 3.03851e-17 0)
(3 -1.06359e-16 0)
(3 -1.43407e-16 0)
(3 2.43687e-16 0)
(3 2.71846e-16 0)
(3 -3.52618e-17 0)
(3 6.36677e-18 0)
(3 -1.82846e-16 0)
(3 -2.22033e-16 0)
(3 -4.75617e-16 0)
(3 -7.80105e-16 0)
(3 -1.07941e-15 0)
(3 -1.13768e-15 0)
(3 -1.45449e-15 0)
(3 -1.38081e-15 0)
(3 -9.75936e-16 0)
(3 -1.07896e-15 0)
(3 -9.6801e-16 0)
(3 -9.67198e-16 0)
(3 -8.32533e-16 0)
(3 -1.17213e-15 0)
(3 -2.46663e-15 0)
(3 -3.12817e-15 0)
(3 -2.69399e-15 0)
(3 9.37214e-18 0)
(3 3.21437e-16 0)
(3 5.07783e-16 0)
(3 4.49492e-16 0)
(3 -2.43663e-17 0)
(3 -4.29588e-16 0)
(3 -4.21935e-16 0)
(3 -8.23954e-16 0)
(3 -8.62347e-16 0)
(3 -6.74016e-16 0)
(3 2.6773e-17 0)
(3 5.05976e-16 0)
(3 2.07403e-16 0)
(3 -1.33572e-17 0)
(3 -5.86615e-18 0)
(3 7.02543e-16 0)
(3 6.58423e-16 0)
(3 2.11156e-16 0)
(3 -1.09702e-16 0)
(3 -2.91402e-16 0)
(3 -3.5051e-16 0)
(3 -1.95747e-15 0)
(3 -3.28226e-15 0)
(3 -2.71513e-15 0)
(3 -2.56778e-17 0)
(3 -1.4937e-16 0)
(3 1.01162e-16 0)
(3 1.72536e-16 0)
(3 5.2648e-16 0)
(3 1.18739e-16 0)
(3 -2.70324e-16 0)
(3 -4.38126e-16 0)
(3 -8.08649e-16 0)
(3 4.1867e-17 0)
(3 7.15332e-16 0)
(3 1.39265e-15 0)
(3 8.07976e-16 0)
(3 8.80394e-17 0)
(3 -5.15103e-16 0)
(3 -7.01439e-16 0)
(3 -1.25801e-16 0)
(3 -2.05245e-16 0)
(3 -6.69208e-16 0)
(3 -1.47806e-15 0)
(3 -2.29799e-15 0)
(3 -2.2195e-15 0)
(3 -1.79866e-15 0)
(3 -1.50316e-15 0)
(3 -1.31687e-17 0)
(3 -8.16679e-18 0)
(3 -6.33123e-17 0)
(3 1.84918e-16 0)
(3 3.67199e-16 0)
(3 2.23068e-16 0)
(3 1.37676e-16 0)
(3 7.74399e-16 0)
(3 7.25092e-16 0)
(3 7.20991e-16 0)
(3 5.54497e-16 0)
(3 1.1665e-15 0)
(3 -1.13605e-16 0)
(3 -1.84412e-15 0)
(3 -2.62541e-15 0)
(3 -3.13717e-15 0)
(3 -2.25119e-15 0)
(3 -2.28026e-15 0)
(3 -2.59875e-15 0)
(3 -3.42183e-15 0)
(3 -2.76976e-15 0)
(3 -1.12935e-15 0)
(3 1.82131e-16 0)
(3 -9.22171e-17 0)
(3 6.64312e-17 0)
(3 6.34726e-16 0)
(3 4.80872e-16 0)
(3 5.01966e-16 0)
(3 6.32989e-16 0)
(3 5.14779e-16 0)
(3 4.90918e-16 0)
(3 1.37159e-15 0)
(3 2.51522e-15 0)
(3 2.06372e-15 0)
(3 1.00194e-15 0)
(3 -6.84063e-16 0)
(3 -1.55674e-15 0)
(3 -1.65221e-15 0)
(3 -1.61724e-15 0)
(3 -1.76735e-15 0)
(3 -1.63829e-15 0)
(3 -1.52853e-15 0)
(3 -1.273e-15 0)
(3 -1.23055e-15 0)
(3 -3.42299e-16 0)
(3 1.72093e-15 0)
(3 2.20391e-15 0)
(3 1.33136e-15 0)
(3 -1.35465e-16 0)
(3 -1.10232e-16 0)
(3 -2.15177e-16 0)
(3 -6.02359e-16 0)
(3 -3.14785e-16 0)
(3 1.53618e-16 0)
(3 -2.67425e-16 0)
(3 -1.03714e-17 0)
(3 -1.29892e-16 0)
(3 -7.03998e-16 0)
(3 -1.54792e-15 0)
(3 -2.85681e-15 0)
(3 -3.34213e-15 0)
(3 -2.5098e-15 0)
(3 -1.05761e-15 0)
(3 5.21003e-17 0)
(3 7.37998e-16 0)
(3 1.38964e-15 0)
(3 1.88658e-15 0)
(3 2.28563e-15 0)
(3 2.16618e-15 0)
(3 1.28172e-15 0)
(3 4.06139e-16 0)
(3 1.40294e-16 0)
(3 8.75334e-18 0)
(3 -1.16246e-16 0)
(3 -4.62918e-16 0)
(3 -9.63356e-16 0)
(3 -6.68858e-16 0)
(3 -4.03982e-16 0)
(3 -1.00407e-15 0)
(3 -2.01297e-15 0)
(3 -2.87466e-15 0)
(3 -2.68068e-15 0)
(3 -2.40153e-15 0)
(3 -2.65288e-15 0)
(3 -2.61696e-15 0)
(3 -1.91361e-15 0)
(3 -5.85044e-16 0)
(3 8.14242e-16 0)
(3 1.28408e-15 0)
(3 1.72731e-15 0)
(3 2.35264e-15 0)
(3 2.29422e-15 0)
(3 1.85268e-15 0)
(3 1.21415e-15 0)
(3 -6.70693e-16 0)
(3 -1.06639e-15 0)
(3 1.88218e-16 0)
(3 1.26413e-16 0)
(3 -6.95421e-17 0)
(3 1.93426e-16 0)
(3 3.48723e-16 0)
(3 2.58846e-16 0)
(3 -7.64199e-17 0)
(3 -1.33171e-15 0)
(3 -2.18104e-15 0)
(3 -2.80766e-15 0)
(3 -2.95095e-15 0)
(3 -2.91313e-15 0)
(3 -2.22357e-15 0)
(3 -1.02726e-15 0)
(3 -3.0917e-16 0)
(3 -2.39467e-16 0)
(3 -4.97082e-16 0)
(3 -3.21954e-16 0)
(3 -3.06026e-16 0)
(3 2.98963e-17 0)
(3 2.96995e-16 0)
(3 1.59905e-15 0)
(3 2.38485e-15 0)
(3 1.00964e-15 0)
(3 3.3484e-17 0)
(3 2.06753e-18 0)
(3 2.17066e-16 0)
(3 2.32933e-16 0)
(3 2.36976e-16 0)
(3 3.53345e-16 0)
(3 4.99254e-17 0)
(3 -2.25549e-16 0)
(3 -7.69122e-16 0)
(3 -1.23321e-15 0)
(3 -1.37494e-15 0)
(3 -1.31509e-15 0)
(3 -1.36395e-15 0)
(3 -8.09285e-16 0)
(3 -3.10952e-16 0)
(3 -3.46206e-16 0)
(3 -8.98706e-16 0)
(3 -9.14655e-16 0)
(3 -9.29219e-16 0)
(3 -5.14369e-16 0)
(3 4.50507e-16 0)
(3 1.44411e-15 0)
(3 1.90923e-15 0)
(3 1.64076e-15 0)
(2.93293 0.0191332 0)
(2.8444 0.077755 0)
(2.76125 0.132103 0)
(2.66386 0.245052 0)
(2.57485 0.35029 0)
(2.51264 0.435602 0)
(2.41461 0.549975 0)
(2.35287 0.62823 0)
(2.31119 0.724464 0)
(2.25729 0.795773 0)
(2.24923 0.85372 0)
(2.28291 0.886024 0)
(2.32793 0.89383 0)
(2.33662 0.891009 0)
(2.34392 0.881503 0)
(2.34529 0.869038 0)
(2.34498 0.857736 0)
(2.34537 0.848712 0)
(2.34795 0.848413 0)
(2.345 0.84931 0)
(2.3409 0.850154 0)
(2.33678 0.850843 0)
(2.33382 0.850223 0)
(2.3356 0.849607 0)
(2.99866 0.00132592 0)
(2.9893 0.0128938 0)
(2.96255 0.0484075 0)
(2.90147 0.130894 0)
(2.80223 0.275794 0)
(2.6895 0.456344 0)
(2.51759 0.693631 0)
(2.39997 0.893747 0)
(2.21431 1.07772 0)
(2.17027 1.09724 0)
(2.14419 1.03901 0)
(2.18236 0.998631 0)
(2.2567 0.95116 0)
(2.29934 0.899039 0)
(2.32939 0.85682 0)
(2.3487 0.837654 0)
(2.35266 0.833953 0)
(2.35885 0.834187 0)
(2.35864 0.836853 0)
(2.35509 0.84242 0)
(2.34915 0.847713 0)
(2.34164 0.850531 0)
(2.33776 0.852695 0)
(2.33675 0.852197 0)
(3 -3.11615e-06 0)
(3 1.08794e-05 0)
(3.00003 -2.88195e-05 0)
(2.99989 8.3208e-05 0)
(2.99861 0.00193524 0)
(2.99173 0.0117185 0)
(2.96338 0.0569532 0)
(2.90595 0.164983 0)
(2.75725 0.425094 0)
(2.60199 0.699362 0)
(2.44936 0.844197 0)
(2.33764 0.935532 0)
(2.28854 0.914166 0)
(2.29965 0.897813 0)
(2.31633 0.884193 0)
(2.3443 0.87586 0)
(2.35059 0.86259 0)
(2.35993 0.842331 0)
(2.36299 0.839137 0)
(2.36171 0.840299 0)
(2.35723 0.843778 0)
(2.35022 0.847424 0)
(2.34622 0.851155 0)
(2.34369 0.850888 0)
(3 -9.53855e-09 0)
(3 -7.44457e-08 0)
(3 -1.49044e-06 0)
(3 -1.65294e-06 0)
(3.00001 -9.02696e-06 0)
(2.99999 2.20684e-05 0)
(3 -1.32028e-05 0)
(2.9994 0.000984848 0)
(2.98826 0.0192342 0)
(2.90428 0.160849 0)
(2.76615 0.414128 0)
(2.41384 0.816522 0)
(2.34723 0.878194 0)
(2.29012 0.942779 0)
(2.29349 0.941656 0)
(2.30882 0.920574 0)
(2.33062 0.887064 0)
(2.34101 0.857621 0)
(2.35566 0.843385 0)
(2.36387 0.836795 0)
(2.36366 0.838217 0)
(2.36161 0.841979 0)
(2.35761 0.845181 0)
(2.35292 0.848433 0)
(3 -1.25833e-11 0)
(3 -3.45176e-09 0)
(3 -7.39987e-09 0)
(3 -8.90815e-08 0)
(3 -7.6894e-07 0)
(3 -7.55589e-07 0)
(3 -1.60871e-06 0)
(3 -2.9863e-06 0)
(3.00004 -9.0675e-05 0)
(2.99935 0.000858545 0)
(2.98602 0.0195618 0)
(2.85549 0.185563 0)
(2.70675 0.431631 0)
(2.37839 0.79308 0)
(2.30292 0.891861 0)
(2.30405 0.888137 0)
(2.31124 0.882835 0)
(2.31671 0.877576 0)
(2.33177 0.867083 0)
(2.35083 0.852562 0)
(2.35754 0.850135 0)
(2.35994 0.847041 0)
(2.35908 0.846137 0)
(2.354 0.851337 0)
(3 -7.06616e-13 0)
(3 1.26909e-11 0)
(3 1.7501e-10 0)
(3 -1.92193e-10 0)
(3 -1.84581e-09 0)
(3 -5.49463e-08 0)
(3 -5.37081e-08 0)
(3 -2.55779e-07 0)
(3 -6.38966e-06 0)
(3 -6.03943e-06 0)
(3.00003 -7.59129e-05 0)
(2.99842 0.00226557 0)
(2.97835 0.0312433 0)
(2.79729 0.246545 0)
(2.55573 0.552926 0)
(2.42246 0.751778 0)
(2.27745 0.906012 0)
(2.27693 0.906507 0)
(2.29929 0.88558 0)
(2.31795 0.86359 0)
(2.3317 0.857152 0)
(2.34351 0.85251 0)
(2.34946 0.844752 0)
(2.35208 0.841297 0)
(3 -3.4133e-15 0)
(3 8.74365e-13 0)
(3 2.62662e-11 0)
(3 2.65216e-11 0)
(3 3.20812e-11 0)
(3 -4.00649e-11 0)
(3 -7.29071e-10 0)
(3 -6.1482e-10 0)
(3 -2.5605e-08 0)
(3 -3.92474e-07 0)
(3 -7.37111e-06 0)
(3 -4.84325e-06 0)
(3.00001 -4.48589e-05 0)
(2.99445 0.00770894 0)
(2.94671 0.0685771 0)
(2.74079 0.339002 0)
(2.43529 0.707466 0)
(2.39438 0.776276 0)
(2.3266 0.838862 0)
(2.31665 0.848864 0)
(2.31712 0.849012 0)
(2.32752 0.843181 0)
(2.33735 0.836085 0)
(2.34259 0.838089 0)
(3 -3.41932e-16 0)
(3 -2.60595e-14 0)
(3 9.62157e-14 0)
(3 2.02921e-12 0)
(3 6.38576e-12 0)
(3 6.07185e-12 0)
(3 3.67557e-12 0)
(3 2.40949e-12 0)
(3 1.40974e-10 0)
(3 2.94255e-12 0)
(3 -3.6648e-08 0)
(3 -5.72873e-07 0)
(3 -2.76714e-06 0)
(3.00001 -2.45774e-05 0)
(2.99973 0.000450384 0)
(2.98478 0.0205015 0)
(2.8759 0.158953 0)
(2.66289 0.470309 0)
(2.3479 0.837583 0)
(2.32348 0.83591 0)
(2.31039 0.840966 0)
(2.30609 0.842393 0)
(2.31724 0.839273 0)
(2.33104 0.837319 0)
(3 -5.30835e-16 0)
(3 -9.20922e-16 0)
(3 8.60677e-16 0)
(3 7.7237e-15 0)
(3 6.85625e-14 0)
(3 6.51967e-13 0)
(3 7.70155e-13 0)
(3 1.11964e-12 0)
(3 1.35608e-11 0)
(3 1.33965e-11 0)
(3 1.91653e-10 0)
(3 -1.15173e-08 0)
(3 -3.16764e-08 0)
(3 -2.884e-06 0)
(3 -4.96692e-06 0)
(2.99999 5.96327e-06 0)
(2.99767 0.00400397 0)
(2.95277 0.0669576 0)
(2.73911 0.348841 0)
(2.5797 0.597208 0)
(2.32635 0.854085 0)
(2.28266 0.876976 0)
(2.29823 0.85215 0)
(2.31976 0.843426 0)
(3 -7.97628e-16 0)
(3 -3.54059e-16 0)
(3 1.6607e-16 0)
(3 3.83291e-16 0)
(3 3.00819e-17 0)
(3 4.05213e-15 0)
(3 1.39324e-14 0)
(3 7.75815e-14 0)
(3 2.30558e-13 0)
(3 2.52051e-12 0)
(3 1.00629e-11 0)
(3 3.02006e-11 0)
(3 1.04299e-10 0)
(3 -2.19038e-08 0)
(3 -9.69539e-07 0)
(3 -8.78075e-07 0)
(3 -1.0302e-05 0)
(2.99943 0.000857424 0)
(2.98253 0.0279562 0)
(2.89011 0.181666 0)
(2.56088 0.594506 0)
(2.45864 0.719792 0)
(2.35968 0.806645 0)
(2.33154 0.844539 0)
(3 -1.27006e-15 0)
(3 -5.47814e-16 0)
(3 3.23019e-16 0)
(3 -1.453e-16 0)
(3 -1.18323e-15 0)
(3 -1.31093e-16 0)
(3 -2.81368e-16 0)
(3 1.99331e-15 0)
(3 4.94663e-15 0)
(3 2.26475e-14 0)
(3 2.39434e-13 0)
(3 9.00795e-12 0)
(3 1.7903e-11 0)
(3 1.05011e-10 0)
(3 -1.83086e-08 0)
(3 -1.05537e-07 0)
(3 -1.55778e-06 0)
(3 -5.42458e-06 0)
(2.99993 0.000122815 0)
(2.99526 0.00813491 0)
(2.91305 0.126483 0)
(2.77859 0.378869 0)
(2.42 0.779779 0)
(2.3367 0.868476 0)
(3 -2.85975e-16 0)
(3 6.42215e-16 0)
(3 7.38349e-16 0)
(3 6.03e-16 0)
(3 3.41729e-16 0)
(3 5.22505e-16 0)
(3 -4.63308e-16 0)
(3 5.57316e-16 0)
(3 1.86122e-15 0)
(3 2.05941e-15 0)
(3 1.93135e-15 0)
(3 4.21852e-13 0)
(3 2.69846e-12 0)
(3 1.14946e-11 0)
(3 1.04047e-10 0)
(3 -2.02832e-09 0)
(3 -2.22086e-08 0)
(3 -1.47403e-06 0)
(3 -1.25572e-06 0)
(3 -6.23543e-06 0)
(2.99779 0.0042585 0)
(2.97224 0.0556857 0)
(2.7801 0.331128 0)
(2.50909 0.676184 0)
(3 -3.89113e-16 0)
(3 4.41274e-17 0)
(3 5.21804e-16 0)
(3 5.2891e-16 0)
(3 -2.15382e-16 0)
(3 -1.11406e-15 0)
(3 -3.04563e-16 0)
(3 3.08431e-16 0)
(3 1.74476e-15 0)
(3 1.47604e-15 0)
(3 3.21723e-16 0)
(3 1.71001e-15 0)
(3 5.33957e-14 0)
(3 9.23333e-13 0)
(3 1.94157e-11 0)
(3 1.04802e-11 0)
(3 -1.33647e-11 0)
(3 -3.14404e-08 0)
(3 -4.72101e-07 0)
(3 -3.86423e-07 0)
(3 -5.85709e-06 0)
(2.99936 0.00130245 0)
(2.97816 0.037893 0)
(2.84383 0.240466 0)
(3 -1.01788e-16 0)
(3 5.30802e-16 0)
(3 8.84063e-16 0)
(3 1.00871e-15 0)
(3 9.24758e-17 0)
(3 -3.63686e-16 0)
(3 -2.09302e-16 0)
(3 1.26487e-15 0)
(3 1.81417e-15 0)
(3 6.22266e-16 0)
(3 8.12046e-16 0)
(3 1.70914e-15 0)
(3 1.06933e-15 0)
(3 3.8184e-15 0)
(3 6.97524e-13 0)
(3 3.34737e-12 0)
(3 5.16455e-12 0)
(3 3.30452e-11 0)
(3 -1.56575e-08 0)
(3 -9.67809e-08 0)
(3 -7.08034e-07 0)
(3 -6.5336e-07 0)
(2.99966 0.000709866 0)
(2.99012 0.0185203 0)
(3 1.32996e-15 0)
(3 2.14925e-15 0)
(3 1.28178e-15 0)
(3 3.29792e-16 0)
(3 -1.23337e-16 0)
(3 -7.38292e-17 0)
(3 1.96004e-16 0)
(3 4.02571e-16 0)
(3 -2.23976e-16 0)
(3 -8.2398e-16 0)
(3 6.70762e-16 0)
(3 1.92033e-15 0)
(3 1.6007e-15 0)
(3 -2.33449e-16 0)
(3 2.8935e-15 0)
(3 7.90036e-14 0)
(3 2.12583e-12 0)
(3 3.14151e-12 0)
(3 -5.26129e-11 0)
(3 -5.52037e-09 0)
(3 -1.30696e-07 0)
(3 -1.22854e-07 0)
(3 -1.26956e-06 0)
(2.99999 -1.57432e-05 0)
(3 1.5243e-15 0)
(3 1.63242e-15 0)
(3 -1.37926e-16 0)
(3 -5.86326e-16 0)
(3 -9.75918e-16 0)
(3 -7.33157e-16 0)
(3 -5.76969e-16 0)
(3 -1.5999e-15 0)
(3 -3.28643e-15 0)
(3 -2.38639e-15 0)
(3 -1.45006e-15 0)
(3 5.90647e-16 0)
(3 1.28818e-15 0)
(3 6.6036e-16 0)
(3 -2.31628e-16 0)
(3 1.30908e-15 0)
(3 1.76434e-13 0)
(3 1.04099e-12 0)
(3 2.67621e-13 0)
(3 -1.7204e-10 0)
(3 -1.61455e-09 0)
(3 -3.23967e-08 0)
(3 -1.4234e-06 0)
(3 2.22452e-06 0)
(3 -1.74807e-16 0)
(3 -1.13162e-15 0)
(3 -1.42838e-15 0)
(3 -9.48091e-16 0)
(3 2.37344e-16 0)
(3 6.31277e-16 0)
(3 -5.34215e-17 0)
(3 -1.57388e-15 0)
(3 -2.61314e-15 0)
(3 -2.06448e-15 0)
(3 -1.38013e-16 0)
(3 8.61099e-16 0)
(3 1.28493e-15 0)
(3 1.2222e-15 0)
(3 1.044e-16 0)
(3 -1.0691e-15 0)
(3 -3.96986e-14 0)
(3 -2.01273e-12 0)
(3 -1.99411e-12 0)
(3 -1.51222e-11 0)
(3 1.37939e-09 0)
(3 7.60261e-08 0)
(3 2.23102e-08 0)
(3 6.78372e-06 0)
(3 4.85319e-16 0)
(3 1.38976e-19 0)
(3 8.17776e-16 0)
(3 1.52059e-15 0)
(3 1.98613e-15 0)
(3 1.78408e-15 0)
(3 1.48845e-15 0)
(3 1.01713e-15 0)
(3 8.48182e-16 0)
(3 8.72382e-16 0)
(3 5.67284e-16 0)
(3 6.40118e-16 0)
(3 2.72403e-16 0)
(3 2.2515e-15 0)
(3 -2.21873e-15 0)
(3 -1.28351e-13 0)
(3 -1.14313e-12 0)
(3 -4.40276e-12 0)
(3 7.52094e-11 0)
(3 5.5835e-09 0)
(3 2.10771e-08 0)
(3 5.83692e-07 0)
(3 -6.83009e-06 0)
(2.99999 8.49725e-06 0)
(3 8.43152e-16 0)
(3 9.54991e-16 0)
(3 1.79815e-15 0)
(3 2.80917e-15 0)
(3 3.05415e-15 0)
(3 2.82747e-15 0)
(3 3.43628e-15 0)
(3 3.64681e-15 0)
(3 3.94408e-15 0)
(3 3.339e-15 0)
(3 1.42962e-15 0)
(3 -1.20234e-15 0)
(3 -4.42238e-17 0)
(3 -2.99552e-15 0)
(3 -6.62845e-13 0)
(3 -5.79312e-12 0)
(3 -4.22881e-12 0)
(3 5.91107e-11 0)
(3 1.78179e-08 0)
(3 1.45482e-07 0)
(3 2.21478e-07 0)
(3 2.6645e-06 0)
(2.99957 -0.00094807 0)
(2.99355 -0.0130646 0)
(3 3.86239e-16 0)
(3 1.07692e-15 0)
(3 1.10586e-15 0)
(3 1.58065e-15 0)
(3 1.62905e-15 0)
(3 2.04207e-15 0)
(3 2.57491e-15 0)
(3 2.6349e-15 0)
(3 2.00416e-15 0)
(3 1.59887e-15 0)
(3 1.19207e-15 0)
(3 -6.91501e-16 0)
(3 -5.11086e-14 0)
(3 -1.00731e-12 0)
(3 -2.02589e-11 0)
(3 -2.59807e-11 0)
(3 4.96912e-11 0)
(3 3.2931e-08 0)
(3 5.37645e-07 0)
(3 4.96718e-07 0)
(3 -8.75773e-07 0)
(2.99945 -0.00105052 0)
(2.97585 -0.040068 0)
(2.8708 -0.227665 0)
(3 8.04968e-16 0)
(3 4.55179e-16 0)
(3 3.4471e-16 0)
(3 -1.47577e-17 0)
(3 -6.74103e-16 0)
(3 -5.00398e-16 0)
(3 8.01155e-16 0)
(3 -2.8424e-16 0)
(3 -1.45359e-15 0)
(3 -1.19849e-15 0)
(3 -1.10384e-15 0)
(3 -4.07149e-13 0)
(3 -2.78125e-12 0)
(3 -1.10628e-11 0)
(3 -1.03267e-10 0)
(3 1.92306e-09 0)
(3 2.36674e-08 0)
(3 1.25281e-06 0)
(3 1.81406e-06 0)
(2.99999 -2.35056e-06 0)
(2.99791 -0.00415205 0)
(2.97197 -0.051648 0)
(2.74902 -0.358071 0)
(2.59835 -0.599931 0)
(3 9.75932e-16 0)
(3 -9.84907e-16 0)
(3 -1.73387e-15 0)
(3 -2.11154e-15 0)
(3 -2.44307e-15 0)
(3 -2.06242e-15 0)
(3 -4.6758e-16 0)
(3 5.21026e-16 0)
(3 -4.35049e-15 0)
(3 -2.29685e-14 0)
(3 -2.42597e-13 0)
(3 -8.99894e-12 0)
(3 -1.79577e-11 0)
(3 -1.05957e-10 0)
(3 1.74917e-08 0)
(3 1.07984e-07 0)
(3 1.47701e-06 0)
(3 5.14732e-06 0)
(2.99994 -0.000109568 0)
(2.99503 -0.00874217 0)
(2.91799 -0.118878 0)
(2.74835 -0.395155 0)
(2.41729 -0.771695 0)
(2.37794 -0.832985 0)
(3 -2.68669e-17 0)
(3 -1.22804e-15 0)
(3 -1.66528e-15 0)
(3 -1.25648e-15 0)
(3 -1.30999e-15 0)
(3 -6.16298e-15 0)
(3 -1.71933e-14 0)
(3 -7.74583e-14 0)
(3 -2.29559e-13 0)
(3 -2.51877e-12 0)
(3 -1.01673e-11 0)
(3 -2.94297e-11 0)
(3 -1.06161e-10 0)
(3 2.21082e-08 0)
(3 9.70436e-07 0)
(3 8.7412e-07 0)
(3 9.56289e-06 0)
(2.99944 -0.000828393 0)
(2.98238 -0.0281996 0)
(2.88945 -0.182316 0)
(2.56823 -0.586854 0)
(2.44405 -0.733805 0)
(2.35836 -0.798956 0)
(2.33937 -0.840084 0)
(3 -1.84247e-15 0)
(3 -1.43855e-15 0)
(3 -1.34543e-15 0)
(3 -8.73343e-15 0)
(3 -6.82962e-14 0)
(3 -6.54505e-13 0)
(3 -7.73596e-13 0)
(3 -1.12474e-12 0)
(3 -1.35686e-11 0)
(3 -1.34439e-11 0)
(3 -1.91088e-10 0)
(3 1.15807e-08 0)
(3 3.145e-08 0)
(3 2.87431e-06 0)
(3 5.03899e-06 0)
(2.99999 -6.57164e-06 0)
(2.99768 -0.00399972 0)
(2.95286 -0.0667047 0)
(2.73827 -0.349815 0)
(2.58083 -0.596455 0)
(2.32955 -0.851939 0)
(2.28293 -0.881831 0)
(2.29237 -0.852136 0)
(2.32108 -0.841524 0)
(3 -1.90631e-15 0)
(3 2.83154e-14 0)
(3 -9.68222e-14 0)
(3 -2.03092e-12 0)
(3 -6.3887e-12 0)
(3 -6.07691e-12 0)
(3 -3.67826e-12 0)
(3 -2.40823e-12 0)
(3 -1.39959e-10 0)
(3 -9.25643e-12 0)
(3 3.65784e-08 0)
(3 5.72606e-07 0)
(3 2.76546e-06 0)
(3.00001 2.45134e-05 0)
(2.99973 -0.000449235 0)
(2.98475 -0.0205565 0)
(2.87628 -0.158538 0)
(2.66211 -0.47078 0)
(2.34784 -0.837398 0)
(2.32444 -0.835856 0)
(2.31083 -0.840725 0)
(2.30498 -0.842737 0)
(2.316 -0.83925 0)
(2.33226 -0.836306 0)
(3 1.43124e-16 0)
(3 -8.90497e-13 0)
(3 -2.61616e-11 0)
(3 -2.64769e-11 0)
(3 -3.19982e-11 0)
(3 3.80965e-11 0)
(3 7.38015e-10 0)
(3 6.17261e-10 0)
(3 2.56576e-08 0)
(3 3.92749e-07 0)
(3 7.36973e-06 0)
(3 4.83798e-06 0)
(3.00001 4.48101e-05 0)
(2.99445 -0.00770403 0)
(2.9467 -0.0685896 0)
(2.74071 -0.339051 0)
(2.43543 -0.707391 0)
(2.39425 -0.776223 0)
(2.3266 -0.838788 0)
(2.31672 -0.848844 0)
(2.31732 -0.849263 0)
(2.3271 -0.843447 0)
(2.33719 -0.836078 0)
(2.34284 -0.837769 0)
(3 7.06671e-13 0)
(3 -1.26058e-11 0)
(3 -1.73645e-10 0)
(3 1.88609e-10 0)
(3 1.83015e-09 0)
(3 5.51099e-08 0)
(3 5.36509e-08 0)
(3 2.55315e-07 0)
(3 6.3917e-06 0)
(3 6.0423e-06 0)
(3.00003 7.58872e-05 0)
(2.99842 -0.00226739 0)
(2.97835 -0.031249 0)
(2.79734 -0.246477 0)
(2.55571 -0.552912 0)
(2.42239 -0.751793 0)
(2.27746 -0.906036 0)
(2.27693 -0.906488 0)
(2.2993 -0.88551 0)
(2.31806 -0.86347 0)
(2.3317 -0.857388 0)
(2.34341 -0.852528 0)
(2.34942 -0.844739 0)
(2.35213 -0.841272 0)
(3 3.12025e-12 0)
(3 3.41211e-09 0)
(3 7.33599e-09 0)
(3 8.8452e-08 0)
(3 7.68239e-07 0)
(3 7.55498e-07 0)
(3 1.60388e-06 0)
(3 2.97686e-06 0)
(3.00004 9.06824e-05 0)
(2.99935 -0.000858704 0)
(2.98603 -0.0195563 0)
(2.85544 -0.185623 0)
(2.7067 -0.431659 0)
(2.37852 -0.792895 0)
(2.30286 -0.891928 0)
(2.30404 -0.888171 0)
(2.31121 -0.882885 0)
(2.31674 -0.877552 0)
(2.33174 -0.867014 0)
(2.35094 -0.852439 0)
(2.3575 -0.850374 0)
(2.3599 -0.847197 0)
(2.35907 -0.846162 0)
(2.35398 -0.851187 0)
(3 9.95534e-09 0)
(3 7.29582e-08 0)
(3 1.4773e-06 0)
(3 1.64375e-06 0)
(3.00001 9.01866e-06 0)
(2.99999 -2.20679e-05 0)
(3 1.32892e-05 0)
(2.9994 -0.000985624 0)
(2.98826 -0.0192255 0)
(2.90422 -0.160934 0)
(2.76638 -0.413997 0)
(2.41378 -0.816591 0)
(2.34711 -0.878283 0)
(2.29009 -0.942788 0)
(2.29349 -0.941636 0)
(2.30889 -0.92052 0)
(2.33056 -0.887155 0)
(2.34102 -0.857628 0)
(2.35564 -0.84329 0)
(2.36395 -0.836804 0)
(2.36366 -0.83828 0)
(2.3616 -0.842043 0)
(2.3576 -0.845149 0)
(2.35291 -0.848364 0)
(3 3.17746e-06 0)
(3 -1.09261e-05 0)
(3.00003 2.82628e-05 0)
(2.99989 -8.28131e-05 0)
(2.99861 -0.00193463 0)
(2.99173 -0.0117169 0)
(2.96337 -0.0569646 0)
(2.90597 -0.164964 0)
(2.75726 -0.425075 0)
(2.60186 -0.699495 0)
(2.44946 -0.844128 0)
(2.33765 -0.935519 0)
(2.28852 -0.914185 0)
(2.29963 -0.897838 0)
(2.31633 -0.88418 0)
(2.34441 -0.875706 0)
(2.35061 -0.862704 0)
(2.35978 -0.842357 0)
(2.36298 -0.839082 0)
(2.3618 -0.840265 0)
(2.35728 -0.84378 0)
(2.35023 -0.847429 0)
(2.34621 -0.851107 0)
(2.34369 -0.85085 0)
(2.99866 -0.00132531 0)
(2.9893 -0.0128929 0)
(2.96254 -0.0484169 0)
(2.90148 -0.130893 0)
(2.80223 -0.275793 0)
(2.68953 -0.456316 0)
(2.51754 -0.693668 0)
(2.40002 -0.893734 0)
(2.21434 -1.07771 0)
(2.17025 -1.09727 0)
(2.14417 -1.03899 0)
(2.1824 -0.998602 0)
(2.25671 -0.951149 0)
(2.29926 -0.89909 0)
(2.3295 -0.856751 0)
(2.34869 -0.837579 0)
(2.35267 -0.834027 0)
(2.35876 -0.834235 0)
(2.35865 -0.83687 0)
(2.35514 -0.842385 0)
(2.34916 -0.847696 0)
(2.34164 -0.850536 0)
(2.33776 -0.852663 0)
(2.33674 -0.85217 0)
(2.93293 -0.0191168 0)
(2.84441 -0.0777241 0)
(2.76121 -0.132205 0)
(2.66388 -0.244995 0)
(2.57485 -0.350262 0)
(2.51264 -0.435624 0)
(2.4146 -0.549987 0)
(2.35287 -0.628226 0)
(2.31121 -0.724458 0)
(2.2573 -0.795767 0)
(2.24922 -0.853729 0)
(2.28292 -0.885993 0)
(2.32793 -0.893867 0)
(2.33661 -0.890999 0)
(2.34391 -0.881522 0)
(2.34527 -0.869003 0)
(2.34498 -0.857774 0)
(2.34534 -0.848734 0)