0.003125 	1e-06 	3.29565e-18 	3 	-3.64089e-18 	0
0.009375 	1e-06 	3.29565e-18 	3 	-2.18497e-17 	0
0.015625 	1e-06 	1.73489e-19 	3 	-2.72453e-16 	0
0.021875 	1e-06 	1.72811e-19 	3 	-4.36478e-16 	0
0.028125 	1e-06 	1.55957e-18 	3 	-4.72777e-16 	0
0.034375 	1e-06 	1.55957e-18 	3 	-5.10903e-16 	0
0.040625 	1e-06 	1.72134e-19 	3 	-7.37566e-16 	0
0.046875 	1e-06 	-1.21531e-18 	3 	-5.58118e-16 	0
0.053125 	1e-06 	-1.21531e-18 	3 	1.62783e-16 	0
0.059375 	1e-06 	-2.60385e-18 	3 	-2.29478e-16 	0
0.065625 	1e-06 	-3.99239e-18 	3 	-3.70586e-16 	0
0.071875 	1e-06 	-2.25767e-18 	3 	-1.1052e-16 	0
0.078125 	1e-06 	8.64922e-19 	3 	7.75756e-17 	0
0.084375 	1e-06 	3.98751e-18 	3 	-6.45301e-16 	0
0.090625 	1e-06 	5.72223e-18 	3 	-2.03473e-17 	0
0.096875 	1e-06 	4.33437e-18 	3 	1.36024e-16 	0
0.103125 	1e-06 	2.94651e-18 	3 	-5.87179e-16 	0
0.109375 	1e-06 	4.33437e-18 	3 	-3.68488e-16 	0
0.115625 	1e-06 	5.72223e-18 	3 	1.54812e-16 	0
0.121875 	1e-06 	5.72223e-18 	3 	-2.13474e-16 	0
0.128125 	1e-06 	5.72223e-18 	3 	-9.24982e-16 	0
0.134375 	1e-06 	5.72223e-18 	3 	-4.01288e-16 	0
0.140625 	1e-06 	5.72223e-18 	3 	5.82716e-17 	0
0.146875 	1e-06 	5.72223e-18 	3 	-8.4754e-18 	0
0.153125 	1e-06 	5.72223e-18 	3 	-3.52943e-16 	0
0.159375 	1e-06 	7.45696e-18 	3 	-6.76848e-16 	0
0.165625 	1e-06 	9.19168e-18 	3 	2.27468e-16 	0
0.171875 	1e-06 	1.23138e-17 	3 	4.10664e-16 	0
0.178125 	1e-06 	1.71707e-17 	3 	-2.89954e-16 	0
0.184375 	1e-06 	1.71707e-17 	3 	2.39284e-16 	0
0.190625 	1e-06 	1.5436e-17 	3 	7.40393e-16 	0
0.196875 	1e-06 	1.5436e-17 	3 	5.68078e-16 	0
0.203125 	1e-06 	1.5436e-17 	3 	1.34183e-16 	0
0.209375 	1e-06 	1.5436e-17 	3 	-1.85257e-16 	0
0.215625 	1e-06 	1.5436e-17 	3 	2.80923e-17 	0
0.221875 	1e-06 	1.5436e-17 	3 	1.26387e-16 	0
0.228125 	1e-06 	1.5436e-17 	3 	1.1194e-15 	0
0.234375 	1e-06 	1.40486e-17 	3 	8.08411e-16 	0
0.240625 	1e-06 	1.26611e-17 	3 	5.07728e-16 	0
0.246875 	1e-06 	1.26611e-17 	3 	1.23978e-16 	0
0.253125 	1e-06 	1.26611e-17 	3 	-8.04733e-17 	0
0.259375 	1e-06 	1.26604e-17 	3 	1.12748e-17 	0
0.265625 	1e-06 	1.26598e-17 	3 	4.60175e-16 	0
0.271875 	1e-06 	1.26598e-17 	3 	5.88149e-16 	0
0.278125 	1e-06 	1.26598e-17 	3 	5.4301e-16 	0
0.284375 	1e-06 	1.12719e-17 	3 	6.95864e-16 	0
0.290625 	1e-06 	9.88404e-18 	3 	1.09848e-15 	0
0.296875 	1e-06 	6.76146e-18 	3 	9.90287e-16 	0
0.303125 	1e-06 	3.63887e-18 	3 	3.526e-16 	0
0.309375 	1e-06 	3.63887e-18 	3 	-7.92538e-16 	0
0.315625 	1e-06 	1.90415e-18 	3 	-1.0782e-15 	0
0.321875 	1e-06 	1.55729e-18 	3 	-7.45767e-16 	0
0.328125 	1e-06 	4.33301e-18 	3 	-4.13675e-16 	0
0.334375 	1e-06 	5.72088e-18 	3 	-8.9085e-17 	0
0.340625 	1e-06 	4.33301e-18 	3 	2.70917e-16 	0
0.346875 	1e-06 	1.55729e-18 	3 	2.79793e-16 	0
0.353125 	1e-06 	1.55729e-18 	3 	1.13429e-15 	0
0.359375 	1e-06 	4.67987e-18 	3 	1.08199e-15 	0
0.365625 	1e-06 	7.80246e-18 	3 	7.31644e-16 	0
0.371875 	1e-06 	9.19032e-18 	3 	3.95461e-16 	0
0.378125 	1e-06 	9.19032e-18 	3 	7.96649e-16 	0
0.384375 	1e-06 	9.19032e-18 	3 	1.48636e-15 	0
0.390625 	1e-06 	9.19032e-18 	3 	1.63178e-15 	0
0.396875 	1e-06 	9.19032e-18 	3 	1.31891e-15 	0
0.403125 	1e-06 	9.19032e-18 	3 	1.04483e-15 	0
0.409375 	1e-06 	9.19032e-18 	3 	7.32446e-16 	0
0.415625 	1e-06 	1.05778e-17 	3 	5.86366e-17 	0
0.421875 	1e-06 	1.19645e-17 	3 	-8.67637e-16 	0
0.428125 	1e-06 	1.19638e-17 	3 	-1.56132e-15 	0
0.434375 	1e-06 	1.19638e-17 	3 	-2.03052e-15 	0
0.440625 	1e-06 	1.33517e-17 	3 	-1.6921e-15 	0
0.446875 	1e-06 	1.47396e-17 	3 	7.57854e-16 	0
0.453125 	1e-06 	1.64743e-17 	3 	1.46568e-15 	0
0.459375 	1e-06 	1.8209e-17 	3 	1.72301e-15 	0
0.465625 	1e-06 	1.85559e-17 	3 	1.66023e-15 	0
0.471875 	1e-06 	2.06375e-17 	3 	1.72246e-15 	0
0.478125 	1e-06 	2.23729e-17 	3 	2.06363e-15 	0
0.484375 	1e-06 	2.09861e-17 	3 	1.44108e-15 	0
0.490625 	1e-06 	2.13334e-17 	3 	5.64478e-16 	0
0.496875 	1e-06 	2.30681e-17 	3 	4.96681e-16 	0
0.503125 	1e-06 	2.30681e-17 	3 	5.3181e-16 	0
0.509375 	1e-06 	2.30681e-17 	3 	1.0911e-15 	0
0.515625 	1e-06 	2.16802e-17 	3 	2.27629e-16 	0
0.521875 	1e-06 	2.02924e-17 	3 	8.20831e-17 	0
0.528125 	1e-06 	2.02931e-17 	3 	-1.6945e-16 	0
0.534375 	1e-06 	2.02937e-17 	3 	-6.45371e-17 	0
0.540625 	1e-06 	1.8559e-17 	3 	1.73291e-16 	0
0.546875 	1e-06 	1.54364e-17 	3 	-3.0985e-16 	0
0.553125 	1e-06 	1.40486e-17 	3 	-4.89104e-16 	0
0.559375 	1e-06 	1.40486e-17 	3 	-3.26846e-16 	0
0.565625 	1e-06 	1.5784e-17 	3 	-4.16198e-17 	0
0.571875 	1e-06 	1.92548e-17 	3 	-6.12556e-17 	0
0.578125 	1e-06 	2.09902e-17 	3 	1.65738e-16 	0
0.584375 	1e-06 	1.96023e-17 	3 	2.18253e-16 	0
0.590625 	1e-06 	1.82144e-17 	3 	-6.35679e-16 	0
0.596875 	1e-06 	1.82138e-17 	3 	-1.0551e-15 	0
