0.602862 	0.998957 	-4.50993e-18 	2.93661 	0.000833755 	0
0.608586 	0.996874 	-9.36715e-18 	2.84075 	-0.109923 	0
0.61431 	0.994791 	-1.14488e-17 	2.76683 	-0.126177 	0
0.620034 	0.992707 	-1.24896e-17 	2.6895 	-0.209044 	0
0.625758 	0.990624 	-1.07549e-17 	2.57921 	-0.367586 	0
0.631481 	0.988541 	-9.71409e-18 	2.53323 	-0.423966 	0
0.637205 	0.986457 	-1.28366e-17 	2.45421 	-0.521406 	0
0.642929 	0.984374 	-1.35305e-17 	2.37769 	-0.610471 	0
0.648653 	0.982291 	-1.52652e-17 	2.33948 	-0.684432 	0
0.654377 	0.980207 	-1.69999e-17 	2.29957 	-0.751967 	0
0.660101 	0.978124 	-1.38774e-17 	2.25351 	-0.811121 	0
0.665825 	0.976041 	-1.28366e-17 	2.2499 	-0.860216 	0
0.671549 	0.973957 	-1.73469e-17 	2.28782 	-0.880287 	0
0.677273 	0.971874 	-1.73469e-17 	2.31927 	-0.906873 	0
0.682997 	0.969791 	-9.71407e-18 	2.33329 	-0.891926 	0
0.688721 	0.967707 	-6.24462e-18 	2.33029 	-0.883145 	0
0.694444 	0.965624 	-6.93851e-18 	2.34396 	-0.872177 	0
0.700168 	0.963541 	-6.93851e-18 	2.34883 	-0.865468 	0
0.705892 	0.961457 	-1.0061e-17 	2.34969 	-0.855949 	0
0.711616 	0.959374 	-1.31835e-17 	2.3481 	-0.851816 	0
0.71734 	0.957291 	-7.63239e-18 	2.34482 	-0.850182 	0
0.723064 	0.955207 	-2.42822e-18 	2.34257 	-0.846906 	0
0.728788 	0.953124 	-2.77517e-18 	2.34245 	-0.846238 	0
0.734512 	0.951041 	-2.08127e-18 	2.34373 	-0.847712 	0
0.740236 	0.948957 	-4.50989e-18 	2.34457 	-0.848874 	0
0.74596 	0.946874 	-5.89766e-18 	2.34407 	-0.849521 	0
0.751684 	0.944791 	-2.77516e-18 	2.34132 	-0.850302 	0
0.757407 	0.942707 	-2.08127e-18 	2.33755 	-0.84989 	0
0.763131 	0.940624 	-2.77515e-18 	2.33564 	-0.849581 	0
0.768855 	0.938541 	-5.89765e-18 	2.33514 	-0.849812 	0
0.774579 	0.936457 	-1.04079e-17 	2.33562 	-0.851444 	0
0.780303 	0.934374 	-1.11018e-17 	2.33716 	-0.852941 	0
0.786027 	0.932291 	-7.63237e-18 	2.33871 	-0.852514 	0
0.791751 	0.930207 	-5.89765e-18 	2.34031 	-0.85106 	0
0.797475 	0.928124 	-6.93848e-18 	2.34176 	-0.849669 	0
0.803199 	0.926041 	-9.36709e-18 	2.34305 	-0.849517 	0
0.808923 	0.923957 	-9.36709e-18 	2.3436 	-0.850189 	0
0.814646 	0.921874 	-1.14488e-17 	2.34156 	-0.850581 	0
0.82037 	0.919791 	-1.31835e-17 	2.33823 	-0.850401 	0
0.826094 	0.917707 	-1.38774e-17 	2.33698 	-0.850387 	0
0.831818 	0.915624 	-1.6306e-17 	2.33691 	-0.850558 	0
0.837542 	0.913541 	-1.87346e-17 	2.3372 	-0.851214 	0
0.843266 	0.911457 	-1.73468e-17 	2.33799 	-0.852349 	0
0.84899 	0.909374 	-1.31835e-17 	2.33924 	-0.852775 	0
0.854714 	0.907291 	-1.31835e-17 	2.34014 	-0.852345 	0
0.860438 	0.905207 	-1.49182e-17 	2.34044 	-0.851695 	0
0.866162 	0.903124 	-1.73468e-17 	2.34055 	-0.851009 	0
0.871886 	0.901041 	-1.69998e-17 	2.34032 	-0.850546 	0
0.877609 	0.898957 	-1.5959e-17 	2.33944 	-0.850847 	0
0.883333 	0.896874 	-1.87346e-17 	2.33913 	-0.851097 	0
0.889057 	0.894791 	-2.11632e-17 	2.33918 	-0.851164 	0
0.894781 	0.892707 	-2.04693e-17 	2.33959 	-0.851267 	0
0.900505 	0.890624 	-1.83876e-17 	2.34018 	-0.851347 	0
0.906229 	0.888541 	-1.69998e-17 	2.34041 	-0.85148 	0
0.911953 	0.886457 	-1.83876e-17 	2.34039 	-0.851831 	0
0.917677 	0.884374 	-2.11632e-17 	2.3399 	-0.852078 	0
0.923401 	0.882291 	-2.11632e-17 	2.33937 	-0.851988 	0
0.929125 	0.880207 	-1.87345e-17 	2.33899 	-0.851823 	0
0.934849 	0.878124 	-1.76937e-17 	2.33888 	-0.851799 	0
0.940572 	0.876041 	-1.76937e-17 	2.33891 	-0.851833 	0
0.946296 	0.873957 	-1.94284e-17 	2.33923 	-0.851872 	0
0.95202 	0.871874 	-2.08162e-17 	2.34017 	-0.851724 	0
0.957744 	0.869791 	-1.97754e-17 	2.34104 	-0.851496 	0
0.963468 	0.867707 	-1.69998e-17 	2.34123 	-0.851386 	0
0.969192 	0.865624 	-1.87345e-17 	2.34133 	-0.851252 	0
0.974916 	0.863541 	-2.08162e-17 	2.34101 	-0.851149 	0
0.98064 	0.861457 	-2.11631e-17 	2.33994 	-0.851194 	0
0.986364 	0.859374 	-2.46326e-17 	2.33916 	-0.851348 	0
0.992088 	0.857291 	-2.74081e-17 	2.33912 	-0.851373 	0
0.997811 	0.855207 	-2.8102e-17 	2.33926 	-0.851471 	0
1.00354 	0.853124 	-2.8102e-17 	2.33962 	-0.851815 	0
1.00926 	0.851041 	-2.67142e-17 	2.34013 	-0.852124 	0
1.01498 	0.848957 	-2.49795e-17 	2.3404 	-0.852158 	0
1.02071 	0.846874 	-2.1857e-17 	2.34038 	-0.852136 	0
1.02643 	0.844791 	-1.80406e-17 	2.34019 	-0.852003 	0
1.03215 	0.842707 	-1.83876e-17 	2.33978 	-0.851764 	0
1.03788 	0.840624 	-1.90814e-17 	2.33934 	-0.851643 	0
1.0436 	0.838541 	-2.01223e-17 	2.33923 	-0.851653 	0
1.04933 	0.836457 	-2.04692e-17 	2.33928 	-0.851693 	0
1.05505 	0.834374 	-2.32448e-17 	2.33965 	-0.851728 	0
1.06077 	0.832291 	-2.67142e-17 	2.34051 	-0.851615 	0
1.0665 	0.830207 	-2.53264e-17 	2.34108 	-0.851516 	0
1.07222 	0.828124 	-2.46325e-17 	2.3413 	-0.851507 	0
1.07795 	0.826041 	-2.46325e-17 	2.34142 	-0.851473 	0
1.08367 	0.823957 	-2.08161e-17 	2.34107 	-0.851392 	0
1.08939 	0.821874 	-1.31833e-17 	2.34012 	-0.851306 	0
1.09512 	0.819791 	-9.02001e-18 	2.33932 	-0.851397 	0
1.10084 	0.817707 	-7.28528e-18 	2.33907 	-0.851631 	0
1.10657 	0.815624 	-1.21425e-17 	2.33902 	-0.85184 	0
1.11229 	0.813541 	-1.38772e-17 	2.33913 	-0.852162 	0
1.11801 	0.811457 	-8.3261e-18 	2.33964 	-0.85246 	0
1.12374 	0.809374 	-5.55054e-18 	2.34024 	-0.852475 	0
1.12946 	0.807291 	-4.5097e-18 	2.34046 	-0.852288 	0
1.13519 	0.805207 	-3.81581e-18 	2.34047 	-0.851989 	0
1.14091 	0.803124 	-1.73414e-18 	2.34042 	-0.851676 	0
1.14663 	0.801041 	5.90094e-22 	2.34004 	-0.85141 	0
