/*--------------------------------*- C++ -*----------------------------------*\
  =========                 |
  \\      /  F ield         | OpenFOAM: The Open Source CFD Toolbox
   \\    /   O peration     | Website:  https://openfoam.org
    \\  /    A nd           | Version:  7
     \\/     M anipulation  |
\*---------------------------------------------------------------------------*/
FoamFile
{
    version     2.0;
    format      ascii;
    class       volVectorField;
    location    "2.2";
    object      U;
}
// * * * * * * * * * * * * * * * * * * * * * * * * * * * * * * * * * * * * * //

dimensions      [0 1 -1 0 0 0 0];

internalField   nonuniform List<vector> 
73728
(
(3 1.22881e-17 0)
(3 6.29986e-18 0)
(3 7.82629e-19 0)
(3 1.02017e-16 0)
(3 -2.32675e-19 0)
(3 5.87187e-17 0)
(3 -5.23204e-18 0)
(3 -4.17354e-16 0)
(3 -6.94847e-16 0)
(3 -1.217e-15 0)
(3 -1.14432e-15 0)
(3 -1.18416e-15 0)
(3 -9.67038e-16 0)
(3 -4.54976e-16 0)
(3 -2.78284e-16 0)
(3 -4.73854e-16 0)
(3 -5.84242e-17 0)
(3 -6.14637e-16 0)
(3 -6.77829e-16 0)
(3 -6.24954e-16 0)
(3 -4.96355e-16 0)
(3 -3.22509e-16 0)
(3 -5.51276e-16 0)
(3 -2.11433e-16 0)
(3 -1.1259e-16 0)
(3 -4.81955e-16 0)
(3 -6.47588e-16 0)
(3 -2.2759e-16 0)
(3 1.5881e-16 0)
(3 8.92569e-17 0)
(3 8.74715e-16 0)
(3 1.51819e-15 0)
(3 2.25666e-15 0)
(3 2.83619e-15 0)
(3 1.16771e-15 0)
(3 2.84051e-16 0)
(3 -3.05232e-17 0)
(3 -5.72939e-17 0)
(3 -9.86203e-17 0)
(3 -5.07668e-16 0)
(3 -4.43258e-16 0)
(3 -5.25076e-16 0)
(3 -8.1045e-16 0)
(3 -1.42407e-15 0)
(3 -1.7144e-15 0)
(3 -1.31773e-15 0)
(3 -8.54069e-16 0)
(3 -9.72162e-16 0)
(3 -9.7601e-16 0)
(3 -8.85995e-16 0)
(3 -5.84988e-16 0)
(3 -2.58871e-16 0)
(3 -6.38703e-16 0)
(3 -7.8176e-16 0)
(3 -7.98546e-16 0)
(3 -1.15744e-15 0)
(3 -1.29895e-15 0)
(3 -5.34558e-16 0)
(3 -3.87791e-16 0)
(3 -1.06748e-16 0)
(3 7.44227e-17 0)
(3 8.89239e-16 0)
(3 1.01626e-15 0)
(3 6.92321e-16 0)
(3 4.35159e-16 0)
(3 -2.88723e-16 0)
(3 -2.01571e-15 0)
(3 -2.2329e-15 0)
(3 -2.1885e-15 0)
(3 -1.3195e-15 0)
(3 -4.77068e-16 0)
(3 -2.07503e-16 0)
(3 -4.17175e-16 0)
(3 -1.09487e-16 0)
(3 1.10169e-15 0)
(3 1.48894e-15 0)
(3 1.26264e-15 0)
(3 1.26084e-15 0)
(3 1.33039e-15 0)
(3 1.34935e-15 0)
(3 1.30046e-15 0)
(3 1.34238e-15 0)
(3 1.18808e-15 0)
(3 1.16955e-15 0)
(3 1.49839e-15 0)
(3 8.315e-16 0)
(3 4.98666e-16 0)
(3 4.49019e-16 0)
(3 3.53596e-16 0)
(3 6.76307e-16 0)
(3 6.07411e-16 0)
(3 1.61575e-16 0)
(3 -2.06186e-16 0)
(3 -3.62178e-16 0)
(3 8.50702e-16 0)
(3 1.21706e-15 0)
(3 3.00237e-18 0)
(3 2.0308e-16 0)
(3 3.56913e-16 0)
(3 6.57282e-16 0)
(3 4.66248e-16 0)
(3 3.0749e-16 0)
(3 6.60479e-17 0)
(3 -3.52137e-16 0)
(3 -7.0046e-16 0)
(3 -1.19917e-15 0)
(3 -1.3475e-15 0)
(3 -1.44785e-15 0)
(3 -1.60929e-15 0)
(3 -1.50865e-15 0)
(3 -1.5019e-15 0)
(3 -1.60907e-15 0)
(3 -9.43969e-16 0)
(3 -8.05999e-16 0)
(3 -5.74463e-16 0)
(3 -6.37159e-16 0)
(3 -9.63946e-16 0)
(3 -1.09475e-15 0)
(3 -1.11271e-15 0)
(3 -5.1622e-16 0)
(3 -3.86298e-16 0)
(3 -1.04709e-15 0)
(3 -1.15472e-15 0)
(3 -2.33418e-16 0)
(3 7.92654e-16 0)
(3 1.04512e-15 0)
(3 2.1338e-15 0)
(3 2.38084e-15 0)
(3 2.93935e-15 0)
(3 2.23251e-15 0)
(3 1.54316e-15 0)
(3 5.82449e-16 0)
(3 -4.35429e-16 0)
(3 -1.13787e-15 0)
(3 -1.48854e-15 0)
(3 -1.30052e-15 0)
(3 -5.16181e-16 0)
(3 -1.50784e-15 0)
(3 -1.98848e-15 0)
(3 -2.64026e-15 0)
(3 -2.99564e-15 0)
(3 -2.71132e-15 0)
(3 -1.52691e-15 0)
(3 -1.0346e-15 0)
(3 -1.18149e-15 0)
(3 -8.95986e-16 0)
(3 -6.83715e-16 0)
(3 -9.66493e-16 0)
(3 -1.03028e-15 0)
(3 -9.63012e-16 0)
(3 -1.3802e-15 0)
(3 -2.02446e-15 0)
(3 -2.44214e-15 0)
(3 -1.29062e-15 0)
(3 -3.9045e-16 0)
(3 4.42035e-16 0)
(3 3.13293e-16 0)
(3 2.80706e-16 0)
(3 1.29771e-16 0)
(3 -1.38974e-16 0)
(3 -1.10446e-15 0)
(3 -1.78366e-15 0)
(3 -2.27304e-15 0)
(3 -2.56413e-15 0)
(3 -2.64564e-15 0)
(3 -1.61842e-15 0)
(3 -1.39898e-16 0)
(3 5.38748e-16 0)
(3 6.81126e-16 0)
(3 1.09347e-15 0)
(3 1.80185e-15 0)
(3 1.83166e-15 0)
(3 1.37468e-15 0)
(3 9.01531e-16 0)
(3 9.96177e-16 0)
(3 1.16694e-15 0)
(3 1.43157e-15 0)
(3 2.04195e-15 0)
(3 1.4721e-15 0)
(3 1.64148e-15 0)
(3 1.67497e-15 0)
(3 5.38698e-16 0)
(3 3.79067e-16 0)
(3 4.91899e-16 0)
(3 2.95982e-16 0)
(3 3.55476e-16 0)
(3 2.07918e-16 0)
(3 -3.31811e-16 0)
(3 -2.50742e-16 0)
(3 -5.95247e-16 0)
(3 3.15632e-16 0)
(3 1.19022e-15 0)
(3 5.10474e-17 0)
(3 2.64755e-16 0)
(3 4.10433e-16 0)
(3 3.0141e-16 0)
(3 7.89123e-17 0)
(3 -3.32557e-17 0)
(3 -2.43446e-16 0)
(3 -5.58613e-16 0)
(3 -4.37799e-16 0)
(3 9.19682e-17 0)
(3 1.96268e-16 0)
(3 1.74119e-16 0)
(3 -8.14927e-16 0)
(3 -1.6144e-15 0)
(3 -1.99944e-15 0)
(3 -1.46164e-15 0)
(3 -5.06475e-16 0)
(3 -1.15356e-15 0)
(3 -1.47698e-15 0)
(3 -1.24799e-15 0)
(3 -6.98597e-16 0)
(3 -4.37742e-16 0)
(3 -1.80747e-16 0)
(3 -3.83293e-16 0)
(3 -9.40758e-16 0)
(3 -1.71819e-15 0)
(3 -1.27895e-15 0)
(3 -3.54797e-16 0)
(3 1.28666e-15 0)
(3 1.93199e-15 0)
(3 1.97488e-15 0)
(3 1.71853e-15 0)
(3 1.23147e-15 0)
(3 6.95761e-16 0)
(3 8.46543e-16 0)
(3 1.58172e-15 0)
(3 1.42573e-15 0)
(3 7.2521e-16 0)
(3 -1.24649e-16 0)
(3 -2.64995e-16 0)
(3 -1.28074e-15 0)
(3 -2.3439e-15 0)
(3 -2.00584e-15 0)
(3 -1.42777e-15 0)
(3 -1.12042e-15 0)
(3 -7.24069e-16 0)
(3 -7.80132e-16 0)
(3 -7.68509e-17 0)
(3 5.96946e-16 0)
(3 7.72661e-16 0)
(3 4.40163e-16 0)
(3 -1.18457e-16 0)
(3 6.64091e-16 0)
(3 1.79419e-16 0)
(3 -1.10397e-15 0)
(3 -1.93506e-15 0)
(3 -2.44729e-15 0)
(3 -2.47749e-15 0)
(3 -2.12004e-15 0)
(3 -1.74512e-16 0)
(3 1.15896e-15 0)
(3 7.73969e-17 0)
(3 -6.94095e-16 0)
(3 -1.15186e-15 0)
(3 -1.11883e-15 0)
(3 -1.87918e-15 0)
(3 -2.40176e-15 0)
(3 -3.63351e-15 0)
(3 -4.06934e-15 0)
(3 -3.11759e-15 0)
(3 -1.78808e-15 0)
(3 -1.64945e-15 0)
(3 -1.39644e-15 0)
(3 -9.02303e-16 0)
(3 5.94409e-16 0)
(3 1.62678e-15 0)
(3 1.9908e-15 0)
(3 1.48754e-15 0)
(3 9.46572e-16 0)
(3 1.00114e-15 0)
(3 1.73199e-15 0)
(3 2.82147e-15 0)
(3 2.94661e-15 0)
(3 2.93711e-15 0)
(3 1.38164e-15 0)
(3 2.94535e-16 0)
(3 5.55553e-16 0)
(3 4.05615e-16 0)
(3 5.60347e-16 0)
(3 -7.80624e-18 0)
(3 -6.83165e-18 0)
(3 5.47966e-16 0)
(3 7.37326e-16 0)
(3 3.55495e-16 0)
(3 3.16013e-17 0)
(3 1.27133e-15 0)
(3 2.5281e-16 0)
(3 6.1146e-16 0)
(3 4.69587e-16 0)
(3 -1.50133e-16 0)
(3 -8.88176e-16 0)
(3 -6.85924e-16 0)
(3 -3.16377e-16 0)
(3 -3.13824e-16 0)
(3 -1.02204e-16 0)
(3 -2.12506e-18 0)
(3 7.0476e-16 0)
(3 1.12486e-15 0)
(3 3.88897e-16 0)
(3 -7.52032e-16 0)
(3 -8.4225e-16 0)
(3 -2.13593e-16 0)
(3 -3.71601e-16 0)
(3 -1.29154e-15 0)
(3 -1.72139e-15 0)
(3 -9.10206e-16 0)
(3 3.42496e-17 0)
(3 5.82159e-16 0)
(3 2.45953e-16 0)
(3 -4.54509e-16 0)
(3 -1.21669e-15 0)
(3 -1.52608e-15 0)
(3 -1.64844e-15 0)
(3 6.54311e-16 0)
(3 1.22678e-15 0)
(3 1.47654e-15 0)
(3 1.23606e-15 0)
(3 6.65496e-16 0)
(3 4.39488e-16 0)
(3 1.89272e-16 0)
(3 7.44759e-16 0)
(3 1.41225e-15 0)
(3 1.98843e-15 0)
(3 2.32137e-15 0)
(3 2.21443e-15 0)
(3 1.10604e-15 0)
(3 -6.15746e-16 0)
(3 -5.8775e-16 0)
(3 -1.55919e-16 0)
(3 3.99358e-16 0)
(3 -1.33874e-17 0)
(3 7.44225e-16 0)
(3 1.25692e-15 0)
(3 1.53083e-15 0)
(3 2.00504e-15 0)
(3 1.58263e-15 0)
(3 1.50651e-15 0)
(3 2.20249e-15 0)
(3 2.02436e-15 0)
(3 1.33722e-15 0)
(3 1.39114e-15 0)
(3 8.09525e-16 0)
(3 -3.10228e-16 0)
(3 -1.4752e-16 0)
(3 6.43052e-16 0)
(3 6.8761e-16 0)
(3 7.53224e-16 0)
(3 4.8261e-16 0)
(3 -8.993e-16 0)
(3 -1.43102e-15 0)
(3 -1.41207e-15 0)
(3 -1.67544e-15 0)
(3 -2.46616e-15 0)
(3 -3.14994e-15 0)
(3 -3.27573e-15 0)
(3 -2.62881e-15 0)
(3 -2.70451e-15 0)
(3 -3.15096e-15 0)
(3 -2.92215e-15 0)
(3 -2.9804e-15 0)
(3 -1.67169e-15 0)
(3 -1.01825e-16 0)
(3 1.15287e-15 0)
(3 1.63702e-15 0)
(3 1.8473e-15 0)
(3 2.03319e-15 0)
(3 2.68926e-15 0)
(3 2.97647e-15 0)
(3 3.06293e-15 0)
(3 2.92919e-15 0)
(3 2.13985e-15 0)
(3 1.04286e-15 0)
(3 2.1354e-15 0)
(3 2.92669e-15 0)
(3 3.16287e-15 0)
(3 2.33709e-15 0)
(3 1.65005e-15 0)
(3 1.8639e-15 0)
(3 1.43486e-15 0)
(3 1.0315e-15 0)
(3 3.60181e-16 0)
(3 3.70635e-16 0)
(3 -1.18465e-17 0)
(3 -2.57717e-17 0)
(3 -4.1577e-16 0)
(3 -3.53258e-16 0)
(3 -4.7879e-16 0)
(3 -6.72512e-16 0)
(3 -6.23486e-16 0)
(3 1.25247e-16 0)
(3 1.33712e-16 0)
(3 3.04857e-16 0)
(3 1.63724e-16 0)
(3 9.74522e-17 0)
(3 -3.47696e-16 0)
(3 -8.10335e-16 0)
(3 -8.38897e-16 0)
(3 -7.30422e-16 0)
(3 -1.00594e-15 0)
(3 -1.02847e-15 0)
(3 -1.0928e-15 0)
(3 -1.43351e-15 0)
(3 -1.39858e-15 0)
(3 -6.53259e-16 0)
(3 -4.62998e-16 0)
(3 -4.38831e-17 0)
(3 5.989e-17 0)
(3 -6.97674e-16 0)
(3 -1.28139e-15 0)
(3 -8.543e-16 0)
(3 -1.41766e-15 0)
(3 -1.5825e-15 0)
(3 -5.43278e-16 0)
(3 2.59668e-16 0)
(3 6.37822e-17 0)
(3 -2.61824e-17 0)
(3 -1.17635e-16 0)
(3 -9.07094e-16 0)
(3 -8.45134e-16 0)
(3 4.80238e-16 0)
(3 8.26726e-16 0)
(3 3.02638e-16 0)
(3 7.699e-16 0)
(3 8.56312e-16 0)
(3 4.13681e-16 0)
(3 3.24083e-16 0)
(3 1.05508e-15 0)
(3 1.95975e-15 0)
(3 2.06956e-15 0)
(3 1.43857e-15 0)
(3 1.00657e-15 0)
(3 1.12906e-15 0)
(3 1.95673e-15 0)
(3 3.04223e-15 0)
(3 2.66158e-15 0)
(3 2.63493e-15 0)
(3 2.39402e-15 0)
(3 1.26467e-15 0)
(3 6.64687e-16 0)
(3 6.06913e-16 0)
(3 1.00426e-15 0)
(3 4.71409e-16 0)
(3 1.71285e-16 0)
(3 -3.72239e-16 0)
(3 -1.40283e-15 0)
(3 -1.64851e-15 0)
(3 -8.87838e-16 0)
(3 -2.10106e-16 0)
(3 -6.60623e-16 0)
(3 -1.27204e-15 0)
(3 -1.79549e-15 0)
(3 -2.85285e-15 0)
(3 -4.03373e-15 0)
(3 -5.1624e-15 0)
(3 -5.62343e-15 0)
(3 -4.29608e-15 0)
(3 -3.20795e-15 0)
(3 -1.86982e-15 0)
(3 -8.26135e-16 0)
(3 1.56065e-15 0)
(3 2.56885e-15 0)
(3 3.11585e-15 0)
(3 2.82352e-15 0)
(3 2.97456e-15 0)
(3 2.88345e-15 0)
(3 2.64277e-15 0)
(3 2.40678e-15 0)
(3 2.09071e-15 0)
(3 2.89995e-15 0)
(3 4.36032e-15 0)
(3 4.46512e-15 0)
(3 3.00462e-15 0)
(3 2.68803e-15 0)
(3 2.00017e-15 0)
(3 1.29354e-15 0)
(3 5.20507e-16 0)
(3 1.91894e-16 0)
(3 -4.10971e-17 0)
(3 -3.60553e-17 0)
(3 -8.12877e-17 0)
(3 -3.60137e-16 0)
(3 -2.8554e-16 0)
(3 -4.86121e-17 0)
(3 -6.8343e-16 0)
(3 -6.20035e-16 0)
(3 -2.43744e-16 0)
(3 -4.68317e-17 0)
(3 7.73446e-17 0)
(3 -5.45783e-16 0)
(3 -9.12595e-16 0)
(3 -6.39973e-16 0)
(3 -2.38904e-16 0)
(3 -1.63508e-16 0)
(3 -1.59974e-16 0)
(3 5.36204e-18 0)
(3 2.28703e-16 0)
(3 6.87207e-16 0)
(3 2.95841e-16 0)
(3 -6.7972e-16 0)
(3 -4.5821e-16 0)
(3 6.4625e-16 0)
(3 1.40005e-15 0)
(3 1.20927e-15 0)
(3 -6.03295e-16 0)
(3 -1.35785e-15 0)
(3 -1.83369e-15 0)
(3 -1.41146e-15 0)
(3 -1.71365e-15 0)
(3 -1.79627e-15 0)
(3 -1.1712e-15 0)
(3 -7.87684e-16 0)
(3 -5.34888e-16 0)
(3 -1.51575e-15 0)
(3 -2.32039e-15 0)
(3 -2.27434e-15 0)
(3 -1.89509e-15 0)
(3 -1.2288e-15 0)
(3 1.0994e-16 0)
(3 1.36787e-15 0)
(3 2.0651e-15 0)
(3 2.16636e-15 0)
(3 2.30224e-15 0)
(3 2.58996e-15 0)
(3 2.17351e-15 0)
(3 2.00344e-15 0)
(3 1.17626e-15 0)
(3 6.42652e-16 0)
(3 4.28122e-16 0)
(3 6.42719e-16 0)
(3 9.3988e-16 0)
(3 1.19219e-15 0)
(3 8.59491e-16 0)
(3 5.36565e-16 0)
(3 1.22451e-15 0)
(3 1.31617e-15 0)
(3 1.02124e-15 0)
(3 -2.12768e-16 0)
(3 -6.25662e-16 0)
(3 -1.08555e-15 0)
(3 -1.12492e-15 0)
(3 -5.79087e-16 0)
(3 -1.65049e-16 0)
(3 3.3014e-16 0)
(3 4.97866e-16 0)
(3 1.62488e-16 0)
(3 -7.79758e-16 0)
(3 -2.2622e-15 0)
(3 -2.30525e-15 0)
(3 -2.56165e-15 0)
(3 -2.89537e-15 0)
(3 -2.57991e-15 0)
(3 -2.31068e-15 0)
(3 -1.95291e-15 0)
(3 -1.62432e-15 0)
(3 -1.31308e-15 0)
(3 8.93617e-16 0)
(3 1.53827e-15 0)
(3 1.80135e-15 0)
(3 2.28536e-15 0)
(3 2.67119e-15 0)
(3 3.26238e-15 0)
(3 3.33675e-15 0)
(3 4.02617e-15 0)
(3 4.30417e-15 0)
(3 3.95286e-15 0)
(3 3.97498e-15 0)
(3 3.22115e-15 0)
(3 3.35275e-15 0)
(3 3.58993e-15 0)
(3 2.47575e-15 0)
(3 1.68425e-15 0)
(3 2.29477e-15 0)
(3 1.76438e-15 0)
(3 6.41936e-16 0)
(3 1.9335e-17 0)
(3 1.69796e-16 0)
(3 5.31483e-16 0)
(3 2.28383e-16 0)
(3 1.91727e-16 0)
(3 1.99965e-16 0)
(3 -8.05733e-17 0)
(3 -1.16959e-16 0)
(3 -4.02583e-16 0)
(3 -1.7878e-15 0)
(3 -1.23979e-15 0)
(3 -8.80916e-16 0)
(3 8.52033e-16 0)
(3 1.53042e-15 0)
(3 1.26692e-15 0)
(3 1.10548e-15 0)
(3 8.77369e-16 0)
(3 7.18375e-16 0)
(3 6.56331e-16 0)
(3 9.69343e-16 0)
(3 7.90877e-16 0)
(3 1.61869e-15 0)
(3 2.1116e-15 0)
(3 1.98926e-15 0)
(3 7.99358e-16 0)
(3 7.13389e-17 0)
(3 -3.79765e-16 0)
(3 -1.42446e-15 0)
(3 -7.90184e-16 0)
(3 -6.73128e-16 0)
(3 -1.26503e-15 0)
(3 -1.88501e-15 0)
(3 -1.12597e-15 0)
(3 -1.06129e-15 0)
(3 -1.27035e-15 0)
(3 -1.46767e-15 0)
(3 -1.6937e-15 0)
(3 -2.41473e-15 0)
(3 -1.87333e-15 0)
(3 -2.80783e-16 0)
(3 1.05263e-15 0)
(3 2.48466e-15 0)
(3 2.57615e-15 0)
(3 2.64041e-15 0)
(3 2.29327e-15 0)
(3 1.40079e-15 0)
(3 1.39181e-15 0)
(3 6.33611e-16 0)
(3 1.2211e-15 0)
(3 8.1558e-16 0)
(3 3.1785e-16 0)
(3 -8.52911e-16 0)
(3 -1.20942e-15 0)
(3 -2.01827e-15 0)
(3 -1.6192e-15 0)
(3 5.11062e-16 0)
(3 1.27277e-15 0)
(3 2.12235e-15 0)
(3 1.99401e-15 0)
(3 1.57137e-15 0)
(3 4.5924e-16 0)
(3 -7.12779e-16 0)
(3 -1.26236e-16 0)
(3 1.24467e-15 0)
(3 8.79932e-16 0)
(3 -2.10601e-16 0)
(3 -3.99531e-16 0)
(3 -6.97571e-16 0)
(3 -1.05609e-15 0)
(3 -1.20731e-15 0)
(3 1.60233e-16 0)
(3 8.32371e-16 0)
(3 3.28322e-16 0)
(3 -6.92746e-16 0)
(3 -1.33339e-15 0)
(3 -2.18226e-15 0)
(3 -2.23369e-15 0)
(3 3.14674e-16 0)
(3 8.44533e-16 0)
(3 3.8242e-16 0)
(3 1.34475e-15 0)
(3 2.47742e-15 0)
(3 2.90285e-15 0)
(3 3.6592e-15 0)
(3 4.64581e-15 0)
(3 5.77514e-15 0)
(3 5.96132e-15 0)
(3 4.56639e-15 0)
(3 4.44193e-15 0)
(3 3.82729e-15 0)
(3 2.92311e-15 0)
(3 3.20679e-15 0)
(3 2.6885e-15 0)
(3 2.21882e-15 0)
(3 1.1339e-15 0)
(3 3.10827e-16 0)
(3 -2.58698e-16 0)
(3 -5.38517e-16 0)
(3 -5.05795e-17 0)
(3 1.20703e-16 0)
(3 7.85069e-16 0)
(3 1.09264e-15 0)
(3 1.2209e-16 0)
(3 -9.42507e-16 0)
(3 -3.81917e-16 0)
(3 -1.69124e-16 0)
(3 -2.91617e-16 0)
(3 1.91803e-16 0)
(3 5.2057e-16 0)
(3 9.71233e-16 0)
(3 7.70828e-16 0)
(3 -1.17655e-15 0)
(3 -6.77454e-16 0)
(3 -7.15777e-17 0)
(3 3.33777e-17 0)
(3 6.10877e-17 0)
(3 1.96896e-16 0)
(3 2.47031e-16 0)
(3 -2.64312e-17 0)
(3 -5.31926e-16 0)
(3 -5.39646e-16 0)
(3 1.74947e-16 0)
(3 2.94019e-17 0)
(3 -8.81368e-16 0)
(3 -1.23497e-15 0)
(3 -7.23724e-16 0)
(3 -8.40958e-16 0)
(3 -8.78439e-16 0)
(3 -6.53554e-16 0)
(3 -3.6796e-16 0)
(3 3.35787e-16 0)
(3 -1.057e-16 0)
(3 -7.09533e-16 0)
(3 -1.17421e-15 0)
(3 -1.01021e-15 0)
(3 -6.32334e-16 0)
(3 -1.5575e-16 0)
(3 2.02141e-16 0)
(3 7.9093e-16 0)
(3 1.25491e-15 0)
(3 1.11485e-15 0)
(3 9.57656e-16 0)
(3 4.35202e-17 0)
(3 -3.46522e-16 0)
(3 -3.85542e-16 0)
(3 -3.20647e-17 0)
(3 -6.12244e-16 0)
(3 -2.27034e-15 0)
(3 -2.54766e-15 0)
(3 -2.41845e-15 0)
(3 -2.94384e-15 0)
(3 -1.30377e-15 0)
(3 1.20023e-15 0)
(3 1.95543e-15 0)
(3 1.84232e-15 0)
(3 1.78256e-15 0)
(3 1.83387e-15 0)
(3 1.37543e-15 0)
(3 1.44642e-15 0)
(3 1.4141e-15 0)
(3 1.89183e-15 0)
(3 2.16253e-15 0)
(3 1.4016e-15 0)
(3 9.31512e-16 0)
(3 1.28374e-15 0)
(3 1.84924e-15 0)
(3 2.60208e-15 0)
(3 3.29655e-15 0)
(3 3.33208e-15 0)
(3 1.94253e-15 0)
(3 1.22322e-15 0)
(3 -2.91497e-16 0)
(3 -4.58496e-16 0)
(3 6.71367e-17 0)
(3 -3.25912e-16 0)
(3 -9.61781e-16 0)
(3 8.04996e-17 0)
(3 2.35506e-15 0)
(3 4.07084e-15 0)
(3 4.91857e-15 0)
(3 5.53616e-15 0)
(3 6.1395e-15 0)
(3 6.597e-15 0)
(3 6.70814e-15 0)
(3 5.70864e-15 0)
(3 3.7974e-15 0)
(3 3.47881e-15 0)
(3 5.0183e-15 0)
(3 4.70187e-15 0)
(3 4.18587e-15 0)
(3 2.49455e-15 0)
(3 1.99911e-15 0)
(3 3.99376e-17 0)
(3 -8.78483e-17 0)
(3 -2.59582e-16 0)
(3 2.7288e-16 0)
(3 5.55871e-16 0)
(3 5.84509e-16 0)
(3 4.8686e-16 0)
(3 -4.48463e-17 0)
(3 2.91386e-16 0)
(3 9.09048e-16 0)
(3 7.37151e-16 0)
(3 2.16941e-16 0)
(3 -1.15125e-16 0)
(3 1.26014e-16 0)
(3 -1.75606e-16 0)
(3 -9.15714e-16 0)
(3 -8.83185e-16 0)
(3 -2.3648e-16 0)
(3 2.85592e-16 0)
(3 2.84568e-16 0)
(3 1.93045e-16 0)
(3 -7.20553e-16 0)
(3 -2.25345e-15 0)
(3 -2.43028e-15 0)
(3 -2.55133e-15 0)
(3 -1.0193e-15 0)
(3 -4.34853e-16 0)
(3 -5.20315e-16 0)
(3 -8.10317e-16 0)
(3 -9.04064e-16 0)
(3 -1.06905e-15 0)
(3 -5.64715e-16 0)
(3 -3.44796e-16 0)
(3 -5.54175e-16 0)
(3 -3.95885e-16 0)
(3 -2.1717e-16 0)
(3 5.09782e-17 0)
(3 3.31511e-16 0)
(3 5.50628e-16 0)
(3 3.07814e-16 0)
(3 8.63812e-16 0)
(3 8.16543e-16 0)
(3 8.32567e-16 0)
(3 -2.28634e-16 0)
(3 -9.56364e-17 0)
(3 -4.84717e-18 0)
(3 -1.34281e-15 0)
(3 -1.77444e-15 0)
(3 -2.44533e-15 0)
(3 -2.57981e-15 0)
(3 -2.31047e-15 0)
(3 -2.30032e-15 0)
(3 -2.76294e-15 0)
(3 -3.12112e-15 0)
(3 -2.81971e-15 0)
(3 -1.09383e-15 0)
(3 9.01012e-17 0)
(3 6.66435e-16 0)
(3 2.7218e-16 0)
(3 3.24926e-16 0)
(3 8.21798e-16 0)
(3 2.28514e-15 0)
(3 2.3241e-15 0)
(3 2.05812e-15 0)
(3 2.34262e-15 0)
(3 3.64787e-15 0)
(3 4.65231e-15 0)
(3 4.91007e-15 0)
(3 4.32343e-15 0)
(3 2.74022e-15 0)
(3 2.88698e-15 0)
(3 2.81262e-15 0)
(3 2.39696e-15 0)
(3 1.95617e-15 0)
(3 6.4663e-16 0)
(3 -1.10704e-16 0)
(3 -8.33711e-16 0)
(3 -1.17946e-15 0)
(3 -8.7084e-16 0)
(3 -6.39381e-16 0)
(3 -8.7798e-16 0)
(3 1.65839e-15 0)
(3 4.55055e-15 0)
(3 6.87765e-15 0)
(3 7.63293e-15 0)
(3 7.587e-15 0)
(3 6.81016e-15 0)
(3 6.14444e-15 0)
(3 5.31662e-15 0)
(3 4.8556e-15 0)
(3 4.87254e-15 0)
(3 5.55565e-15 0)
(3 5.87459e-15 0)
(3 4.88251e-15 0)
(3 2.96813e-15 0)
(3 1.83463e-15 0)
(3 6.31076e-17 0)
(3 2.19968e-16 0)
(3 -1.52662e-16 0)
(3 -9.97538e-17 0)
(3 -6.39526e-17 0)
(3 3.60811e-16 0)
(3 7.15525e-16 0)
(3 1.44186e-15 0)
(3 1.20099e-15 0)
(3 1.04428e-15 0)
(3 1.07522e-15 0)
(3 3.94153e-16 0)
(3 1.13384e-16 0)
(3 -3.48778e-16 0)
(3 -6.9775e-16 0)
(3 -1.02125e-15 0)
(3 -9.58922e-16 0)
(3 -1.17323e-15 0)
(3 -2.6886e-17 0)
(3 8.6811e-16 0)
(3 5.86457e-16 0)
(3 -4.24977e-16 0)
(3 -1.31283e-15 0)
(3 -2.05501e-15 0)
(3 -2.81556e-15 0)
(3 -1.92367e-15 0)
(3 -7.22581e-16 0)
(3 -7.36208e-17 0)
(3 -9.0348e-16 0)
(3 -9.26476e-16 0)
(3 -5.62598e-16 0)
(3 -2.02763e-16 0)
(3 -1.7376e-16 0)
(3 -3.66391e-16 0)
(3 -4.22452e-16 0)
(3 -3.90476e-16 0)
(3 -7.20041e-16 0)
(3 -1.14501e-16 0)
(3 -1.29596e-16 0)
(3 -6.93626e-17 0)
(3 3.87434e-16 0)
(3 1.26487e-15 0)
(3 6.43638e-16 0)
(3 -9.40306e-16 0)
(3 -1.41728e-15 0)
(3 -1.33609e-15 0)
(3 -1.3973e-15 0)
(3 -1.97202e-15 0)
(3 -2.57807e-15 0)
(3 -2.35756e-15 0)
(3 -1.51695e-15 0)
(3 -1.17776e-15 0)
(3 -2.04437e-15 0)
(3 -2.7347e-15 0)
(3 -2.27552e-15 0)
(3 -1.04353e-15 0)
(3 -1.32503e-15 0)
(3 -1.15372e-15 0)
(3 -5.63418e-16 0)
(3 -6.29931e-16 0)
(3 -2.99905e-17 0)
(3 1.26243e-15 0)
(3 1.40504e-15 0)
(3 9.23685e-16 0)
(3 4.21259e-16 0)
(3 7.85137e-16 0)
(3 2.23919e-15 0)
(3 2.5955e-15 0)
(3 2.18663e-15 0)
(3 1.99288e-15 0)
(3 2.2885e-15 0)
(3 8.58585e-16 0)
(3 3.51676e-16 0)
(3 3.23104e-16 0)
(3 5.10316e-16 0)
(3 -4.66058e-16 0)
(3 -1.99339e-15 0)
(3 -1.93395e-15 0)
(3 -9.681e-16 0)
(3 -7.75498e-16 0)
(3 -6.47027e-16 0)
(3 1.95917e-15 0)
(3 5.45394e-15 0)
(3 7.80972e-15 0)
(3 8.66276e-15 0)
(3 8.79594e-15 0)
(3 8.68531e-15 0)
(3 5.5308e-15 0)
(3 4.94006e-15 0)
(3 5.17931e-15 0)
(3 5.30084e-15 0)
(3 3.49164e-15 0)
(3 3.80487e-15 0)
(3 3.59028e-15 0)
(3 2.84978e-15 0)
(3 2.35257e-15 0)
(3 -9.81952e-17 0)
(3 -1.09942e-16 0)
(3 -1.16679e-16 0)
(3 -2.77799e-16 0)
(3 -9.819e-17 0)
(3 -1.3238e-16 0)
(3 7.71028e-17 0)
(3 5.56066e-16 0)
(3 5.1943e-16 0)
(3 2.45957e-16 0)
(3 -9.42296e-17 0)
(3 -7.45464e-16 0)
(3 -1.03199e-15 0)
(3 -1.14384e-15 0)
(3 -9.81718e-16 0)
(3 -5.95882e-16 0)
(3 -8.83324e-17 0)
(3 2.84045e-16 0)
(3 9.10325e-16 0)
(3 8.98453e-16 0)
(3 2.52913e-16 0)
(3 -2.21971e-16 0)
(3 -3.66679e-16 0)
(3 -8.62169e-16 0)
(3 -1.21514e-15 0)
(3 2.86945e-16 0)
(3 1.50588e-15 0)
(3 1.14201e-15 0)
(3 -2.93791e-16 0)
(3 -3.1496e-16 0)
(3 -3.83886e-16 0)
(3 -1.03616e-15 0)
(3 -1.85241e-15 0)
(3 -1.79813e-15 0)
(3 -1.49285e-15 0)
(3 -5.94899e-16 0)
(3 -1.16249e-15 0)
(3 -1.0006e-15 0)
(3 -1.08612e-15 0)
(3 -6.40269e-16 0)
(3 -1.04045e-15 0)
(3 -1.30453e-15 0)
(3 -2.26669e-15 0)
(3 -2.64464e-15 0)
(3 -2.98066e-15 0)
(3 -2.85137e-15 0)
(3 -2.52645e-15 0)
(3 -1.80193e-15 0)
(3 -8.47548e-16 0)
(3 -5.34053e-16 0)
(3 -4.00006e-16 0)
(3 -3.13195e-16 0)
(3 -4.96092e-16 0)
(3 -4.52803e-16 0)
(3 -1.19975e-15 0)
(3 -7.60488e-16 0)
(3 -1.54747e-15 0)
(3 -1.39251e-15 0)
(3 -7.93765e-16 0)
(3 -2.18481e-16 0)
(3 -1.57316e-16 0)
(3 -6.90436e-16 0)
(3 1.27033e-17 0)
(3 -2.94037e-16 0)
(3 -1.58316e-15 0)
(3 -1.80836e-15 0)
(3 -7.23414e-16 0)
(3 -3.53974e-16 0)
(3 -3.22562e-17 0)
(3 1.78799e-16 0)
(3 -7.62461e-17 0)
(3 -7.5131e-16 0)
(3 -9.59131e-16 0)
(3 -6.67531e-16 0)
(3 -2.01704e-16 0)
(3 4.63173e-16 0)
(3 5.41887e-16 0)
(3 2.33762e-16 0)
(3 -2.42833e-16 0)
(3 -3.43486e-16 0)
(3 1.27043e-15 0)
(3 2.15672e-15 0)
(3 4.46263e-15 0)
(3 6.21074e-15 0)
(3 6.66524e-15 0)
(3 6.41076e-15 0)
(3 7.19392e-15 0)
(3 6.09277e-15 0)
(3 3.92742e-15 0)
(3 4.37826e-15 0)
(3 4.03841e-15 0)
(3 2.20873e-15 0)
(3 1.87021e-15 0)
(3 2.68148e-15 0)
(3 2.60478e-15 0)
(3 2.06997e-15 0)
(3 1.62422e-16 0)
(3 -4.13431e-17 0)
(3 -1.33124e-16 0)
(3 -6.18725e-16 0)
(3 -1.02764e-15 0)
(3 -6.78492e-16 0)
(3 -6.27334e-16 0)
(3 -1.12898e-15 0)
(3 -7.34347e-16 0)
(3 -1.21298e-15 0)
(3 -1.77298e-15 0)
(3 -1.41778e-15 0)
(3 -8.91632e-16 0)
(3 -7.15575e-16 0)
(3 -4.05225e-16 0)
(3 4.59382e-16 0)
(3 7.5456e-16 0)
(3 1.09939e-15 0)
(3 1.13453e-15 0)
(3 9.612e-16 0)
(3 3.82937e-16 0)
(3 2.95266e-16 0)
(3 6.98707e-16 0)
(3 1.43275e-15 0)
(3 1.4694e-15 0)
(3 2.33793e-15 0)
(3 3.66916e-15 0)
(3 3.02748e-15 0)
(3 8.06958e-16 0)
(3 4.19145e-17 0)
(3 5.95457e-16 0)
(3 3.45795e-16 0)
(3 -3.05637e-16 0)
(3 -6.0057e-16 0)
(3 -6.73787e-16 0)
(3 -3.23743e-16 0)
(3 3.246e-16 0)
(3 8.05388e-16 0)
(3 5.74533e-16 0)
(3 1.29733e-16 0)
(3 -7.32413e-16 0)
(3 -1.23323e-15 0)
(3 -1.43941e-15 0)
(3 -2.78833e-15 0)
(3 -2.99447e-15 0)
(3 -3.19361e-15 0)
(3 -2.85121e-15 0)
(3 -1.49601e-15 0)
(3 2.77888e-16 0)
(3 1.33784e-15 0)
(3 1.06291e-15 0)
(3 1.375e-15 0)
(3 1.3833e-15 0)
(3 1.26627e-15 0)
(3 2.41361e-16 0)
(3 -7.49536e-16 0)
(3 -3.72842e-16 0)
(3 6.23691e-16 0)
(3 1.49881e-15 0)
(3 1.97284e-15 0)
(3 1.8768e-15 0)
(3 8.93383e-16 0)
(3 8.52397e-17 0)
(3 -6.21893e-16 0)
(3 -2.15206e-15 0)
(3 -2.77553e-15 0)
(3 -2.47715e-15 0)
(3 -1.04298e-15 0)
(3 -5.17133e-16 0)
(3 -1.16193e-18 0)
(3 -3.4018e-16 0)
(3 -1.21496e-15 0)
(3 -1.32146e-15 0)
(3 -1.1552e-15 0)
(3 -4.34055e-16 0)
(3 9.88807e-16 0)
(3 2.26382e-15 0)
(3 2.18627e-15 0)
(3 1.24999e-15 0)
(3 8.02743e-16 0)
(3 1.11981e-15 0)
(3 1.19848e-15 0)
(3 1.50919e-15 0)
(3 2.50542e-15 0)
(3 2.83235e-15 0)
(3 1.20013e-15 0)
(3 8.52397e-16 0)
(3 2.30592e-15 0)
(3 2.61789e-15 0)
(3 2.67474e-15 0)
(3 2.66666e-15 0)
(3 2.54694e-15 0)
(3 1.5337e-15 0)
(3 1.86854e-15 0)
(3 2.397e-15 0)
(3 1.60676e-15 0)
(3 1.4766e-17 0)
(3 -6.54554e-17 0)
(3 -5.35163e-17 0)
(3 3.99179e-16 0)
(3 4.02775e-16 0)
(3 6.34612e-16 0)
(3 5.49331e-16 0)
(3 2.38362e-16 0)
(3 -3.56058e-16 0)
(3 -3.8366e-16 0)
(3 -1.55196e-17 0)
(3 6.48796e-16 0)
(3 8.24694e-16 0)
(3 5.37224e-16 0)
(3 4.18349e-16 0)
(3 8.06272e-16 0)
(3 8.9661e-16 0)
(3 9.45644e-16 0)
(3 4.10464e-16 0)
(3 2.60723e-16 0)
(3 -4.65331e-16 0)
(3 6.52109e-16 0)
(3 1.09212e-15 0)
(3 2.28969e-15 0)
(3 2.58782e-15 0)
(3 2.93405e-15 0)
(3 2.6222e-15 0)
(3 1.82698e-15 0)
(3 7.69293e-16 0)
(3 -1.44084e-17 0)
(3 -2.82911e-16 0)
(3 2.89471e-16 0)
(3 7.88236e-16 0)
(3 1.45851e-15 0)
(3 9.30414e-16 0)
(3 5.02369e-16 0)
(3 1.41538e-15 0)
(3 1.46586e-15 0)
(3 1.44025e-15 0)
(3 3.87658e-16 0)
(3 -1.26302e-17 0)
(3 3.03124e-16 0)
(3 4.98943e-16 0)
(3 -1.03328e-15 0)
(3 -1.46365e-15 0)
(3 -1.37868e-15 0)
(3 -5.70117e-16 0)
(3 -3.49267e-16 0)
(3 5.68311e-17 0)
(3 5.01416e-16 0)
(3 1.35182e-15 0)
(3 1.73809e-15 0)
(3 1.94905e-15 0)
(3 1.07028e-15 0)
(3 8.46687e-16 0)
(3 -1.86006e-16 0)
(3 3.68469e-16 0)
(3 9.62394e-16 0)
(3 1.79413e-15 0)
(3 2.04315e-15 0)
(3 2.27663e-15 0)
(3 1.06122e-15 0)
(3 -5.94671e-16 0)
(3 -8.38945e-16 0)
(3 -1.47277e-15 0)
(3 -1.88905e-15 0)
(3 -1.64574e-15 0)
(3 -1.02276e-15 0)
(3 2.81966e-16 0)
(3 7.83386e-16 0)
(3 8.92401e-16 0)
(3 5.77028e-16 0)
(3 -3.80109e-16 0)
(3 -5.22745e-16 0)
(3 -7.67676e-16 0)
(3 3.89361e-16 0)
(3 1.33279e-15 0)
(3 1.83282e-15 0)
(3 2.35472e-15 0)
(3 1.64328e-15 0)
(3 9.93564e-16 0)
(3 2.88741e-16 0)
(3 -8.14551e-16 0)
(3 -8.23465e-16 0)
(3 -5.9422e-16 0)
(3 -4.9372e-16 0)
(3 2.1701e-17 0)
(3 7.05955e-16 0)
(3 2.43966e-15 0)
(3 2.75624e-15 0)
(3 3.6988e-15 0)
(3 4.58786e-15 0)
(3 4.09524e-15 0)
(3 3.27182e-15 0)
(3 3.90408e-15 0)
(3 2.16537e-15 0)
(3 -1.56216e-16 0)
(3 -1.33937e-16 0)
(3 3.09944e-16 0)
(3 8.43592e-16 0)
(3 1.39137e-15 0)
(3 1.03533e-15 0)
(3 7.92872e-16 0)
(3 3.12349e-16 0)
(3 -1.94186e-16 0)
(3 -1.42969e-16 0)
(3 5.72595e-17 0)
(3 2.91724e-18 0)
(3 -1.48637e-16 0)
(3 -1.95643e-16 0)
(3 -2.63728e-16 0)
(3 3.74818e-16 0)
(3 1.32852e-15 0)
(3 9.59155e-16 0)
(3 -6.71378e-16 0)
(3 -1.01717e-15 0)
(3 -5.4578e-16 0)
(3 6.25497e-17 0)
(3 2.89476e-16 0)
(3 6.23924e-16 0)
(3 6.97172e-16 0)
(3 5.88686e-16 0)
(3 -6.23969e-16 0)
(3 -1.29205e-15 0)
(3 -6.66721e-16 0)
(3 -2.55012e-16 0)
(3 -1.23591e-15 0)
(3 -6.00086e-17 0)
(3 1.92387e-15 0)
(3 2.86386e-15 0)
(3 2.00482e-15 0)
(3 1.41457e-15 0)
(3 1.44448e-15 0)
(3 1.44044e-15 0)
(3 7.03275e-16 0)
(3 2.73762e-16 0)
(3 6.40746e-16 0)
(3 6.90179e-16 0)
(3 7.81818e-16 0)
(3 1.33865e-15 0)
(3 2.13333e-15 0)
(3 3.13708e-15 0)
(3 2.74213e-15 0)
(3 2.43349e-15 0)
(3 2.05035e-15 0)
(3 1.36815e-15 0)
(3 1.40231e-15 0)
(3 9.06908e-16 0)
(3 1.90635e-16 0)
(3 8.97598e-16 0)
(3 7.59375e-16 0)
(3 8.4592e-16 0)
(3 -4.78416e-16 0)
(3 -9.46346e-16 0)
(3 -9.38933e-16 0)
(3 -2.20102e-16 0)
(3 1.04587e-15 0)
(3 1.13516e-15 0)
(3 1.29933e-15 0)
(3 7.27535e-16 0)
(3 -7.97801e-17 0)
(3 -6.07288e-16 0)
(3 -1.59628e-15 0)
(3 -2.09616e-15 0)
(3 -1.50055e-15 0)
(3 -9.30488e-16 0)
(3 -8.77668e-16 0)
(3 -1.08393e-15 0)
(3 -8.66154e-16 0)
(3 -2.03729e-16 0)
(3 -2.25688e-16 0)
(3 -9.5365e-16 0)
(3 9.08481e-17 0)
(3 1.83198e-15 0)
(3 2.52755e-15 0)
(3 2.46872e-15 0)
(3 1.82946e-15 0)
(3 6.41258e-16 0)
(3 -4.5388e-16 0)
(3 -1.56492e-15 0)
(3 -1.36243e-15 0)
(3 -1.03859e-15 0)
(3 2.89297e-17 0)
(3 3.70921e-17 0)
(3 2.86734e-15 0)
(3 3.61754e-15 0)
(3 4.52198e-15 0)
(3 4.48817e-15 0)
(3 4.16049e-15 0)
(3 3.06464e-15 0)
(3 2.66035e-15 0)
(3 1.88059e-15 0)
(3 -2.95401e-18 0)
(3 1.75908e-17 0)
(3 5.01731e-17 0)
(3 -4.83721e-17 0)
(3 3.32982e-16 0)
(3 -9.42233e-17 0)
(3 -1.85606e-16 0)
(3 -2.62606e-16 0)
(3 4.04569e-16 0)
(3 9.97622e-16 0)
(3 8.44898e-16 0)
(3 7.23732e-16 0)
(3 3.98596e-16 0)
(3 1.20512e-16 0)
(3 -1.43377e-16 0)
(3 -3.34366e-16 0)
(3 -1.12429e-16 0)
(3 -6.01717e-16 0)
(3 -1.47287e-15 0)
(3 -1.61418e-15 0)
(3 -4.7343e-16 0)
(3 7.5149e-17 0)
(3 3.60205e-17 0)
(3 -3.30885e-16 0)
(3 -4.55765e-16 0)
(3 -8.72318e-16 0)
(3 -1.48282e-15 0)
(3 -1.37847e-15 0)
(3 -1.17779e-15 0)
(3 -4.18018e-16 0)
(3 8.0944e-16 0)
(3 1.9267e-15 0)
(3 2.19613e-15 0)
(3 2.09121e-15 0)
(3 2.0668e-15 0)
(3 1.73113e-15 0)
(3 9.45965e-16 0)
(3 2.36176e-16 0)
(3 -1.14838e-15 0)
(3 -1.67078e-15 0)
(3 -1.48604e-15 0)
(3 -1.8335e-15 0)
(3 -6.53583e-16 0)
(3 2.30238e-15 0)
(3 3.18386e-15 0)
(3 4.01237e-15 0)
(3 4.21272e-15 0)
(3 3.81782e-15 0)
(3 2.76674e-15 0)
(3 1.89149e-16 0)
(3 -4.21159e-16 0)
(3 -6.79264e-16 0)
(3 -2.17288e-16 0)
(3 5.54829e-16 0)
(3 3.0951e-16 0)
(3 1.06647e-16 0)
(3 -1.25455e-16 0)
(3 -1.53764e-15 0)
(3 -1.34148e-15 0)
(3 -9.27457e-16 0)
(3 -7.52788e-16 0)
(3 -1.63204e-15 0)
(3 -1.94458e-15 0)
(3 -1.88071e-15 0)
(3 -1.7573e-15 0)
(3 -1.81678e-15 0)
(3 -2.57358e-15 0)
(3 -3.09463e-15 0)
(3 -2.22875e-15 0)
(3 -1.52073e-15 0)
(3 -1.61442e-15 0)
(3 -1.75765e-15 0)
(3 -1.01764e-15 0)
(3 -7.95865e-16 0)
(3 -4.9357e-16 0)
(3 -6.48825e-16 0)
(3 1.3331e-16 0)
(3 1.06065e-15 0)
(3 1.15544e-15 0)
(3 9.42928e-16 0)
(3 9.77455e-16 0)
(3 8.37299e-16 0)
(3 5.01671e-16 0)
(3 4.74481e-16 0)
(3 3.63655e-17 0)
(3 1.27708e-16 0)
(3 3.33096e-16 0)
(3 4.35011e-16 0)
(3 1.78284e-15 0)
(3 2.58115e-15 0)
(3 2.57006e-15 0)
(3 2.79717e-15 0)
(3 3.04172e-15 0)
(3 1.47903e-15 0)
(3 1.9159e-16 0)
(3 -2.89704e-16 0)
(3 -3.91579e-17 0)
(3 -7.0591e-17 0)
(3 -1.90573e-16 0)
(3 -1.84274e-16 0)
(3 3.87718e-16 0)
(3 5.87875e-16 0)
(3 6.4247e-16 0)
(3 1.08782e-15 0)
(3 1.34731e-15 0)
(3 1.72501e-15 0)
(3 1.20302e-15 0)
(3 1.01466e-15 0)
(3 5.26628e-16 0)
(3 2.20652e-16 0)
(3 2.90001e-16 0)
(3 -2.33651e-16 0)
(3 -8.55979e-16 0)
(3 -1.06979e-15 0)
(3 -7.44276e-16 0)
(3 -3.98825e-16 0)
(3 1.61917e-16 0)
(3 4.87392e-16 0)
(3 7.05043e-17 0)
(3 -1.3044e-16 0)
(3 -1.40129e-15 0)
(3 -1.39932e-15 0)
(3 -1.51817e-15 0)
(3 -2.30614e-15 0)
(3 6.3912e-16 0)
(3 2.05163e-15 0)
(3 2.97546e-15 0)
(3 2.32449e-15 0)
(3 1.06674e-15 0)
(3 7.62027e-16 0)
(3 6.41862e-16 0)
(3 1.14264e-15 0)
(3 3.28152e-16 0)
(3 -5.36033e-16 0)
(3 -1.43193e-15 0)
(3 -1.60874e-15 0)
(3 -1.80126e-15 0)
(3 -1.34063e-15 0)
(3 -1.19587e-15 0)
(3 -1.88247e-16 0)
(3 2.43651e-15 0)
(3 4.11308e-15 0)
(3 5.30879e-15 0)
(3 5.15474e-15 0)
(3 3.51076e-15 0)
(3 1.93018e-15 0)
(3 7.5211e-16 0)
(3 -1.43079e-16 0)
(3 6.6197e-16 0)
(3 1.41748e-15 0)
(3 1.13475e-15 0)
(3 -7.62285e-16 0)
(3 -1.02754e-15 0)
(3 -1.75049e-15 0)
(3 -2.14924e-15 0)
(3 -3.61573e-15 0)
(3 -4.75032e-15 0)
(3 -4.85595e-15 0)
(3 -3.77047e-15 0)
(3 -2.98915e-15 0)
(3 -2.47319e-15 0)
(3 -2.0711e-15 0)
(3 -1.86794e-15 0)
(3 -2.00804e-15 0)
(3 -1.46651e-15 0)
(3 -1.01459e-15 0)
(3 -2.80991e-16 0)
(3 5.44035e-16 0)
(3 5.10435e-16 0)
(3 -1.02179e-16 0)
(3 -8.4473e-16 0)
(3 -7.44521e-16 0)
(3 3.24534e-16 0)
(3 2.99866e-16 0)
(3 5.5706e-17 0)
(3 -5.13342e-16 0)
(3 -1.28419e-15 0)
(3 -1.15405e-15 0)
(3 -3.34583e-16 0)
(3 6.47151e-16 0)
(3 1.15262e-15 0)
(3 7.78294e-16 0)
(3 3.68291e-16 0)
(3 6.1007e-16 0)
(3 1.24177e-15 0)
(3 1.27215e-15 0)
(3 7.54061e-16 0)
(3 3.97671e-16 0)
(3 2.52091e-16 0)
(3 6.83354e-16 0)
(3 -4.98754e-17 0)
(3 -1.90654e-16 0)
(3 6.43148e-18 0)
(3 1.19803e-16 0)
(3 2.5108e-16 0)
(3 1.59574e-16 0)
(3 -2.71884e-16 0)
(3 -4.95547e-16 0)
(3 -1.2663e-16 0)
(3 5.51435e-16 0)
(3 5.78527e-16 0)
(3 3.13111e-16 0)
(3 2.7689e-16 0)
(3 1.57673e-16 0)
(3 -4.26934e-16 0)
(3 -4.63496e-16 0)
(3 -4.16242e-17 0)
(3 3.02367e-16 0)
(3 -3.12315e-16 0)
(3 -6.29949e-16 0)
(3 -1.72266e-16 0)
(3 1.31496e-17 0)
(3 -1.32661e-16 0)
(3 -3.18748e-16 0)
(3 -4.37398e-16 0)
(3 -6.03716e-16 0)
(3 -1.13501e-15 0)
(3 -1.59363e-15 0)
(3 -1.53989e-15 0)
(3 -8.54344e-16 0)
(3 1.90976e-15 0)
(3 2.06052e-15 0)
(3 1.76418e-15 0)
(3 4.20311e-16 0)
(3 -6.64741e-16 0)
(3 -4.92618e-16 0)
(3 7.07224e-16 0)
(3 2.8488e-15 0)
(3 2.24049e-15 0)
(3 1.14285e-15 0)
(3 6.69703e-16 0)
(3 2.59017e-16 0)
(3 -1.56934e-16 0)
(3 -1.16802e-16 0)
(3 2.92634e-16 0)
(3 1.4848e-15 0)
(3 3.0807e-15 0)
(3 3.83445e-15 0)
(3 5.37732e-15 0)
(3 2.26313e-15 0)
(3 9.18537e-16 0)
(3 -7.68384e-16 0)
(3 -1.59923e-15 0)
(3 -2.93769e-15 0)
(3 -2.40086e-15 0)
(3 -7.21518e-16 0)
(3 -7.16219e-17 0)
(3 -1.94163e-15 0)
(3 -2.45347e-15 0)
(3 -3.2051e-15 0)
(3 -3.35755e-15 0)
(3 -3.58084e-15 0)