/*--------------------------------*- C++ -*----------------------------------*\
  =========                 |
  \\      /  F ield         | OpenFOAM: The Open Source CFD Toolbox
   \\    /   O peration     | Website:  https://openfoam.org
    \\  /    A nd           | Version:  7
     \\/     M anipulation  |
\*---------------------------------------------------------------------------*/
FoamFile
{
    version     2.0;
    format      ascii;
    class       volScalarField;
    location    "1.4";
    object      p;
}
// * * * * * * * * * * * * * * * * * * * * * * * * * * * * * * * * * * * * * //

dimensions      [1 -1 -2 0 0 0 0];

internalField   nonuniform List<scalar> 
4608
(
1
1
1
1
1
1
1
1
1
1
1
1
1
1
1
1
1
1
1
1
1
1
1
1
1
1
1
1
1
1
1
1
1
1
1
1
1
1
1
1
1
1
1
1
1
1
1
1
1
1
1
1
1
1
1
1
1
1
1
1
1
1
1
1
1
1
1
1
1
1
1
1
1
1
1
1
1
1
1
1
1
1
1
1
1
1
1
1
1
1
1
1
1
1
1
1
1
1
1
1
1
1
1
1
1
1
1
1
1
1
1
1
1
1
1
1
1
1
1
1
1
1
1
1
1
1
1
1
1
1
1
1
1
1
1
1
1
1
1
1
1
1
1
1
1
1
1
1
1
1
1
1
1
1
1
1
1
1
1
1
1
1
1
1
1
1
1
1
1
1
1
1
1
1
1
1
1
1
1
1
1
1
1
1
1
1
1
1
1
1
1
1
1
1
1
1
1
1
1
1
1
1
1
1
1
1
1
1
1
1
1
1
1
1
1
1
1
1
1
1
1
1
1
1
1
1
1
1
1
1
1
1
1
1
1
1
1
1
1
1
1
1
1
1
1
1
1
1
1
1
1
1
1
1
1
1
1
1
1
1
1
1
1
1
1
1
1
1
1
1
1
1
1
1
1
1
1
1
1
1
1
1
1
1
1
1
1
1
1
1
1
1
1
1
1
1
1
1
1
1
1
1
1
1
1
1
1
1
1
1
1
1
1
1
1
1
1
1
1
1
1
1
1
1
1
1
1
1
1
1
1
1
1
1
1
1
1
1
1
1
1
1
1
1
1
1
1
1
1
1
1
1
1
1
1
1
1
1
1
1
1
1
1
1
1
1
1
1
1
1
1
1
1
1
1
1
1
1
1
1
1
1
1
1
1
1
1
1
1
1
1
1
1
1
1
1
1
1
1
1
1
1
1
1
1
1
1
1
1
1
1
1
1
1
1
1
1
1
1
1
1
1
1
1
1
1
1
1
1
1
1
1
1
1
1
1
1
1
1
1
1
1
1
1
1
1
1
1
1
1
1
1
1
1
1
1
1
1
1
1
1
1
1
1
1
1
1
1
1
1
1
1
1
1
1
1
1
1
1
1
1
1
1
1
1
1
1
1
1
1
1
1
1
1
1
1
1
1
1
1
1
1
1
1
1
1
1
1
1
1
1
1
1
1
1
1
1
1
1
1
1
1
1
1
1
1
1
1
1
1
1
1
1
1
1
1
1
1
1
1
1
1
1
1
1
1
1
1
1
1
1
1
1
1
1
1
1
1
1
1
1
1
1
1
1
1
1
1
1
1
1
1
1
1
1
1
1
1
1
1
1
1
1
1
1
1
1
1
1
1
1
1
1
1
1
1
1
1
1
1
1
1
1
1
1
1
1
1
1
1
1
1
1
1
1
1
1
1
1
1
1
1
1
1
1
1
1
1
1
1
1
1
1
1
1
1
1
1
1
1
1
1
1
1
1
1
1
1
1
1
1
1
1
1
1
1
1
1
1
1
1
1
1
1
1
1
1
1
1
1
1
1
1
1
1
1
1
1
1
1
1
1
1
1
1
1
1
1
1
1
1
1
1
1
1
1
1
1
1
1
1
1
1
1
1
1
1
1
1
1
1
1
1
1
1
1
1
1
1
1
1
1
1
1
1
1
1
1
1
1
1
1
1
1
1
1
1
1
1
1
1
1
1
1
1
1
1
1
1
1
1
1
1
1
1
1
1
1
1
1
1
1
1
1
1
1
1
1
1.29161
1.75683
2.34575
2.9669
3.64134
4.30527
4.80054
5.32204
5.38211
5.16029
4.6965
4.21674
3.80021
3.65836
3.56945
3.58158
3.61945
3.65627
3.68009
3.69795
3.71909
3.74908
3.76943
3.77318
1.00318
1.0193
1.07944
1.22281
1.46438
1.86347
2.3604
3.00739
3.56542
3.8419
4.01207
4.05423
3.98982
3.85197
3.76044
3.72622
3.71051
3.68863
3.68492
3.69394
3.71483
3.73464
3.75442
3.76691
1
0.999972
1.00001
1.00033
1.0034
1.02454
1.10869
1.36155
1.99101
3.0039
3.82458
4.30294
4.37863
4.28148
4.10521
3.83902
3.73613
3.70439
3.68319
3.69317
3.70849
3.72021
3.73519
3.76228
1
0.999999
0.999998
0.999998
0.999986
1.00004
0.999946
1.00162
1.03658
1.28742
2.05402
3.06989
4.05333
4.13108
4.06464
3.98595
3.8821
3.80732
3.75842
3.71993
3.71161
3.71664
3.72729
3.7576
1
1
1
1
0.999999
0.999999
0.999994
0.999991
0.999904
1.00106
1.04592
1.34161
2.25044
3.2618
3.94902
4.11723
4.07364
3.95954
3.85947
3.78576
3.73085
3.70511
3.71223
3.73296
1
1
1
1
1
1
1
0.999999
0.99999
0.999991
0.999907
1.00292
1.07014
1.54375
2.51724
3.52312
3.85959
3.86248
3.83162
3.76399
3.71131
3.71011
3.69834
3.70647
1
1
1
1
1
1
1
1
1
0.999999
0.999991
0.999988
0.999974
1.01277
1.14646
1.80861
2.86937
3.76788
3.88994
3.83971
3.7894
3.77086
3.73889
3.71154
1
1
1
1
1
1
1
1
1
1
1
0.999998
0.999996
0.999966
1.00069
1.04196
1.3362
2.29384
3.26797
3.78998
3.86448
3.85154
3.80501
3.74836
1
1
1
1
1
1
1
1
1
1
1
1
1
0.999996
0.999992
1.00004
1.00615
1.14613
1.74858
2.87627
3.43799
3.72557
3.80494
3.78063
1
1
1
1
1
1
1
1
1
1
1
1
1
1
0.999999
0.999999
0.999984
1.00185
1.04113
1.42482
2.33312
3.40642
3.72194
3.74167
1
1
1
1
1
1
1
1
1
1
1
1
1
1
1
1
0.999997
0.99999
1.00013
1.01708
1.20881
2.00887
2.98473
3.64831
1
1
1
1
1
1
1
1
1
1
1
1
1
1
1
1
1
0.999998
0.999997
1.00003
1.00483
1.10871
1.71362
2.83871
1
1
1
1
1
1
1
1
1
1
1
1
1
1
1
1
1
1
0.999999
0.999999
0.999999
1.00188
1.07047
1.48864
1
1
1
1
1
1
1
1
1
1
1
1
1
1
1
1
1
1
1
1
1
0.999998
1.00131
1.02712
1
1
1
1
1
1
1
1
1
1
1
1
1
1
1
1
1
1
1
1
1
0.999999
1.00001
1.00002
1
1
1
1
1
1
1
1
1
1
1
1
1
1
1
1
1
1
1
1
1
1
1
0.999994
1
1
1
1
1
1
1
1
1
1
1
1
1
1
1
1
1
1
1
1
1
1
1
0.999994
1
1
1
1
1
1
1
1
1
1
1
1
1
1
1
1
1
1
1
1
1
0.999999
1.00001
1.00002
1
1
1
1
1
1
1
1
1
1
1
1
1
1
1
1
1
1
1
1
1
0.999998
1.00131
1.02711
1
1
1
1
1
1
1
1
1
1
1
1
1
1
1
1
1
1
0.999999
0.999999
0.999999
1.00188
1.07047
1.48865
1
1
1
1
1
1
1
1
1
1
1
1
1
1
1
1
1
0.999998
0.999997
1.00003
1.00483
1.10871
1.71362
2.83871
1
1
1
1
1
1
1
1
1
1
1
1
1
1
1
1
0.999997
0.99999
1.00013
1.01708
1.20881
2.00887
2.98474
3.64831
1
1
1
1
1
1
1
1
1
1
1
1
1
1
0.999999
0.999999
0.999984
1.00185
1.04113
1.42482
2.33312
3.40642
3.72194
3.74166
1
1
1
1
1
1
1
1
1
1
1
1
1
0.999996
0.999992
1.00004
1.00615
1.14613
1.74858
2.87627
3.43799
3.72557
3.80494
3.78063
1
1
1
1
1
1
1
1
1
1
1
0.999998
0.999996
0.999966
1.00069
1.04196
1.3362
2.29384
3.26797
3.78998
3.86448
3.85154
3.80501
3.74836
1
1
1
1
1
1
1
1
1
0.999999
0.999991
0.999988
0.999974
1.01277
1.14646
1.80861
2.86937
3.76788
3.88994
3.83971
3.7894
3.77086
3.73889
3.71154
1
1
1
1
1
1
1
0.999999
0.99999
0.999991
0.999907
1.00292
1.07014
1.54375
2.51724
3.52312
3.85959
3.86248
3.83162
3.76399
3.71131
3.71011
3.69834
3.70647
1
1
1
1
0.999999
0.999999
0.999994
0.999991
0.999904
1.00106
1.04592
1.34161
2.25044
3.2618
3.94902
4.11723
4.07364
3.95954
3.85947
3.78576
3.73085
3.70511
3.71223
3.73296
1
0.999999
0.999998
0.999998
0.999986
1.00004
0.999946
1.00162
1.03658
1.28742
2.05402
3.06989
4.05333
4.13108
4.06464
3.98595
3.8821
3.80732
3.75842
3.71993
3.71161
3.71664
3.72729
3.7576
1
0.999972
1.00001
1.00033
1.0034
1.02454
1.10869
1.36155
1.99101
3.0039
3.82458
4.30294
4.37863
4.28148
4.10521
3.83902
3.73613
3.70439
3.68319
3.69317
3.70849
3.72021
3.73519
3.76228
1.00318
1.0193
1.07944
1.22281
1.46438
1.86347
2.3604
3.00739
3.56542
3.8419
4.01207
4.05423
3.98982
3.85197
3.76044
3.72622
3.71051
3.68863
3.68492
3.69394
3.71483
3.73464
3.75442
3.76691
1.29161
1.75683
2.34575
2.9669
3.64134
4.30527
4.80054
5.32204
5.38211
5.16029
4.6965
4.21674
3.80021
3.65836
3.56945
3.58158
3.61945
3.65627
3.68009
3.69795
3.71909
3.74908
3.76943
3.77318
2.6622
1.72822
1.06981
0.790849
0.756391
0.71403
0.678998
0.691186
0.767721
0.871452
0.931991
0.954205
0.979117
1.00869
1.02168
1.02748
1.05889
1.07975
1.0797
1.07075
1.05305
1.04869
1.05636
1.1458
1.5541
2.75753
4.59926
6.76229
8.85113
9.38834
8.72415
7.60762
6.83147
6.43381
6.24582
6.06723
5.86836
5.67223
5.46828
5.24523
5.01142
4.78778
4.58351
4.40308
4.24647
4.10425
3.96483
3.82527
3.68829
3.55758
3.43168
3.3078
3.18849
3.07682
2.97509
2.88178
2.79659
2.71685
2.64361
2.5745
2.50601
2.43311
2.35558
2.27489
2.19029
2.10928
2.04985
2.01371
1.98003
1.94323
1.90022
1.8483
1.78068
1.71287
1.66915
1.63274
1.61696
1.61044
1.62743
1.68271
1.82608
2.05559
2.31875
2.65321
2.94809
3.19603
3.40216
3.5759
3.77684
3.89621
3.88333
3.84334
3.77432
3.67124
3.52636
3.28517
3.35798
2.76969
2.21717
1.68278
1.45172
1.32438
1.14288
1.00294
1.00132
0.983671
0.92438
0.910264
0.910317
0.9241
0.946268
0.976334
1.00445
1.02424
1.02906
1.02852
1.02037
1.02575
1.12418
1.70066
2.61472
3.08468
3.58964
4.28225
5.59833
6.86726
7.58202
7.4455
7.0243
6.62431
6.32628
6.09072
5.90374
5.72921
5.53388
5.30929
5.07097
4.85067
4.65773
4.48645
4.33129
4.1842
4.0388
3.89497
3.75622
3.6233
3.49419
3.36869
3.2499
3.14058
3.04102
2.94866
2.8605
2.77528
2.69559
2.62221
2.55138
2.47712
2.39804
2.32046
2.24408
2.1681
2.10013
2.05151
2.01181
1.97275
1.93135
1.88537
1.83193
1.76077
1.70546
1.6825
1.6956
1.74352
1.86912
2.05466
2.25813
2.38448
2.49236
2.58252
2.69389
2.80804
2.90735
3.00991
3.15008
3.27354
3.34373
3.39677
3.40312
3.38814
3.37668
3.30583
3.66294
3.33548
2.89006
2.37657
1.90943
1.67034
1.4729
1.22308
1.07145
1.0299
0.982636
0.92539
0.907918
0.91252
0.941735
0.965228
0.968439
0.973959
0.984145
0.994422
1.00843
1.12646
1.80417
2.77773
3.28926
3.31957
3.31297
3.33641
3.59351
4.64651
6.24482
7.19919
7.19888
6.92259
6.40818
6.04629
5.81521
5.61255
5.40167
5.1737
4.94779
4.74683
4.56945
4.40624
4.25403
4.10684
3.96372
3.82292
3.68301
3.54724
3.41733
3.29482
3.18342
3.08442
2.99338
2.90448
2.81562
2.72628
2.63638
2.5523
2.47833
2.41141
2.34128
2.26739
2.19763
2.13053
2.06526
2.00255
1.95545
1.92194
1.89085
1.85674
1.82481
1.78209
1.76563
1.79621
1.90749
2.08642
2.29814
2.4681
2.60904
2.62142
2.6131
2.57246
2.49307
2.45561
2.4635
2.51438
2.63491
2.80432
2.9532
3.0985
3.19408
3.22819
3.25892
3.24955
3.74639
3.62655
3.33627
2.9527
2.45217
2.0696
1.88242
1.6492
1.33582
1.23282
1.19913
1.12442
1.00772
0.966888
0.981663
0.984682
0.956369
0.93968
0.944853
0.963104
1.12557
1.80332
2.93308
3.2196
3.27557
3.26929
3.21125
3.08961
3.00496
3.11336
3.7612
5.2284
6.49351
6.53817
6.41492
6.12858
5.84485
5.56895
5.32248
5.11677
4.94581
4.76061
4.56121
4.37232
4.20831
4.06625
3.93324
3.80159
3.66569
3.52801
3.39811
3.27736
3.16651
3.06895
2.98161
2.89519
2.80645
2.71979
2.63174
2.54198
2.45861
2.38382
2.32087
2.25505
2.18669
2.1228
2.06451
2.00281
1.94874
1.91715
1.89821
1.87508
1.8779
1.94319
2.07594
2.26705
2.45307
2.59401
2.70856
2.74212
2.73635
2.70431
2.64273
2.55954
2.47859
2.41555
2.38636
2.37342
2.37252
2.38382
2.42189
2.4894
2.59075
2.69712
2.81479
2.96022
3.75406
3.7319
3.59203
3.32808
2.97395
2.51061
2.2089
2.03257
1.78572
1.44949
1.32866
1.29175
1.21873
1.0964
1.02002
0.994638
0.960823
0.942575
0.959498
1.1893
1.897
2.94939
3.30793
3.24761
3.13152
3.07172
3.02003
2.91458
2.84572
2.76859
2.78905
3.09242
4.1878
5.48755
6.13318
6.0979
5.89839
5.57889
5.30775
5.08035
4.87432
4.67958
4.49275
4.317
4.15893
4.01704
3.88791
3.77271
3.65892
3.52572
3.37304
3.23067
3.1138
3.01713
2.93728
2.86853
2.79482
2.71207
2.63682
2.56571
2.48402
2.38723
2.29988
2.25262
2.20814
2.1558
2.09877
2.03741
1.97634
1.9355
1.94745
2.03879
2.21235
2.46189
2.66165
2.83985
2.88627
2.86097
2.81972
2.78956
2.73538
2.67171
2.63073
2.59204
2.53085
2.45517
2.39493
2.35663
2.32164
2.28847
2.25248
2.21625
2.21447
2.24258
2.30703
2.51192
3.72787
3.72455
3.69662
3.54935
3.30388
2.98046
2.56209
2.30266
2.14819
1.89975
1.57228
1.45448
1.42624
1.34094
1.2057
1.10983
1.06639
1.09675
1.37561
2.20348
3.08623
3.39456
3.34119
3.1846
3.02542
2.94928
2.88479
2.78523
2.71034
2.63655
2.55301
2.48139
2.60431
3.27701
4.49553
5.48259
5.56571
5.48174
5.27094
5.0508
4.82633
4.61651
4.43264
4.26901
4.12449
3.99463
3.87528
3.76207
3.64549
3.50958
3.35258
3.20358
3.08623
2.9999
2.92698
2.85418
2.77985
2.70412
2.6173
2.51976
2.43302
2.36736
2.30666
2.23064
2.16101
2.11855
2.08856
2.05963
2.06707
2.13084
2.29822
2.54238
2.80061
3.01681
3.04384
3.05939
3.04392
2.99164
2.91444
2.84165
2.77697
2.70793
2.62142
2.53951
2.48474
2.44524
2.40432
2.36025
2.31585
2.27714
2.23209
2.18116
2.11598
2.0881
2.0828
2.13025
3.71649
3.72143
3.70584
3.67085
3.52173
3.28879
2.97638
2.61283
2.39534
2.21585
1.94377
1.71465
1.62064
1.51329
1.38809
1.27751
1.31639
1.70743
2.68524
3.5149
3.67438
3.55802
3.34796
3.15656
3.02176
2.93871
2.84656
2.73442
2.63849
2.55781
2.45958
2.3817
2.30094
2.32525
2.64297
3.56722
4.66877
5.2095
5.13401
4.98046
4.75454
4.5361
4.36435
4.23334
4.11505
3.98731
3.84434
3.69495
3.56012
3.4447
3.33516
3.22281
3.1063
2.99675
2.90826
2.83035
2.74935
2.66383
2.57832
2.4982
2.42544
2.35324
2.27355
2.21426
2.17186
2.13937
2.16351
2.27176
2.47704
2.7527
2.98169
3.08519
3.18084
3.18017
3.14263
3.11724
3.07988
3.01289
2.91826
2.83468
2.76036
2.675
2.5871
2.51746
2.46868
2.43645
2.40893
2.37999
2.34664
2.30614
2.23873
2.15297
2.08966
2.05833
2.04635
2.03024
3.72801
3.72978
3.72315
3.70403
3.64872
3.5021
3.27931
2.96916
2.67805
2.48354
2.25398
2.00742
1.8275
1.71455
1.59039
1.68398
2.2832
3.40853
4.16453
4.13508
3.93729
3.67469
3.43871
3.24735
3.10284
2.98456
2.85748
2.73368
2.62185
2.5299
2.4181
2.32832
2.24993
2.19779
2.14235
2.24205
2.78323
3.75523
4.54924
4.66446
4.63659
4.53065
4.37954
4.2397
4.1014
3.96157
3.80509
3.642
3.49817
3.38364
3.27743
3.17404
3.07304
2.96979
2.87679
2.79878
2.72548
2.65236
2.57513
2.48764
2.39743
2.32202
2.26939
2.23158
2.25623
2.3716
2.65277
2.96919
3.23459
3.34203
3.38887
3.37222
3.35132
3.30525
3.24494
3.16163
3.07388
2.98995
2.9054
2.83368
2.76241
2.66281
2.56438
2.5166
2.48336
2.44946
2.42084
2.3963
2.37036
2.32632
2.2339
2.13787
2.08406
2.05586
2.04319
2.01753
3.73501
3.72739
3.72567
3.72385
3.70678
3.63232
3.49063
3.27059
2.99531
2.73753
2.5364
2.29054
2.0666
1.989
2.22744
3.11792
4.32655
4.79921
4.69202
4.39609
4.09205
3.83736
3.61401
3.4159
3.24639
3.0943
2.94327
2.79961
2.66895
2.54532
2.41616
2.30767
2.23124
2.14517
2.07415
2.00333
2.01377
2.23543
2.91701
3.74013
4.2784
4.43678
4.39594
4.25847
4.08504
3.91807
3.76507
3.61229
3.47182
3.35227
3.23572
3.12714
3.03174
2.94041
2.85219
2.77493
2.70308
2.63145
2.55971
2.4823
2.42348
2.34082
2.34205
2.46116
2.7273
3.13238
3.50592
3.61447
3.58681
3.50273
3.43277
3.39971
3.35121
3.28873
3.22559
3.16001
3.07733
2.99178
2.91393
2.8421
2.76299
2.66719
2.57195
2.52735
2.50123
2.47527
2.45109
2.42483
2.38759
2.32588
2.22774
2.14077
2.08891
2.05962
2.04586
2.01406
3.72581
3.70892
3.70112
3.70229
3.70873
3.68892
3.61131
3.4603
3.25276
2.98929
2.76761
2.5069
2.54854
3.06379
4.29079
5.43452
5.59179
5.38291
5.00331
4.63929
4.3296
4.0648
3.82462
3.6018
3.39773
3.20642
3.03228
2.87893
2.74669
2.60868
2.47387
2.34574
2.24383
2.13597
2.04151
1.94798
1.90375
1.87601
1.94303
2.31125
3.03109
3.78923
4.10062
4.07517
3.98369
3.85468
3.72209
3.58414
3.45111
3.33912
3.22887
3.09841
2.97651
2.87267
2.80265
2.74176
2.68535
2.62536
2.57809
2.52038
2.49592
2.57469
2.82124
3.21494
3.57261
3.88324
3.94093
3.9108
3.80096
3.60706
3.45124
3.36677
3.31652
3.26459
3.21194
3.15708
3.08071
3.00215
2.935
2.86385
2.77829
2.69141
2.61119
2.54942
2.51345
2.48441
2.45603
2.42527
2.38409
2.32287
2.2361
2.15653
2.10852
2.07839
2.05966
2.02201
3.81034
3.79551
3.73009
3.71396
3.7224
3.72532
3.69101
3.60196
3.41985
3.21737
3.0047
3.21413
4.25061
5.76792
6.45647
6.37598
6.01735
5.59356
5.20657
4.86501
4.55766
4.27192
4.00919
3.76906
3.5495
3.33792
3.13831
2.95479
2.79539
2.64647
2.51494
2.39236
2.2797
2.16361
2.05361
1.96413
1.89297
1.83264
1.77524
1.76104
1.91241
2.41244
3.21628
3.73082
3.81983
3.79907
3.70241
3.58469
3.45942
3.34321
3.2188
3.07051
2.94393
2.83466
2.76019
2.70724
2.67297
2.647
2.65455
2.7539
3.01434
3.3809
3.67851
3.92181
4.02899
4.03554
3.99635
3.91855
3.76897
3.6104
3.4901
3.39413
3.31831
3.25145
3.19646
3.14297
3.07847
3.01069
2.94989
2.88278
2.8018
2.7197
2.64732
2.58387
2.53186
2.48959
2.45336
2.42113
2.39163
2.3484
2.27204
2.18798
2.13476
2.10102
2.07381
2.02822
3.63904
3.61224
3.60251
3.66234
3.73042
3.75785
3.73274
3.66594
3.53514
3.54605
4.19207
5.77939
7.27523
7.70113
7.47863
6.88604
6.30174
5.81348
5.40871
5.05805
4.74101
4.44498
4.16793
3.90788
3.66819
3.44519
3.24135
3.05872
2.89441
2.72958
2.56325
2.41091
2.2754
2.16152
2.06375
1.99108
1.91936
1.84067
1.76012
1.70853
1.64405
1.67629
1.96785
2.62313
3.19534
3.52918
3.57362
3.5324
3.40392
3.25053
3.12074
3.00429
2.90355
2.81338
2.75423
2.73793
2.76717
2.90109
3.18947
3.57967
3.98503
4.15398
4.2406
4.2742
4.23674
4.13029
3.98548
3.85941
3.72152
3.5832
3.4885
3.40794
3.33409
3.26857
3.2099
3.15131
3.08815
3.01854
2.95175
2.88403
2.80825
2.73024
2.66352
2.60772
2.55471
2.50654
2.46705
2.42636
2.37286
2.31053
2.25479
2.20156
2.15669
2.12214
2.09308
2.03949
2.64853
3.2911
3.64719
3.76546
3.76211
3.7187
3.6861
3.69526
3.95381
5.31838
7.64885
8.43245
8.3479
8.11856
7.69822
7.1847
6.61459
6.07264
5.60807
5.21957
4.88736
4.5894
4.30778
4.03404
3.77191
3.5257
3.29624
3.08926
2.92163
2.78607
2.6408
2.48616
2.34711
2.21209
2.07417
1.97499
1.91642
1.86771
1.80533
1.72931
1.64648
1.56419
1.54394
1.66047
2.06065
2.64047
3.19022
3.38663
3.37205
3.25777
3.07258
2.92115
2.8412
2.81632
2.85344
3.01779
3.40873
3.88825
4.31122
4.46494
4.39533
4.34411
4.30161
4.26841
4.21784
4.1593
4.03998
3.87434
3.71152
3.56889
3.47068
3.40133
3.34502
3.29558
3.24269
3.18101
3.11143
3.03426
2.95709
2.88067
2.79908
2.72334
2.65987
2.60577
2.56571
2.53732
2.50615
2.45785
2.37925
2.29421
2.24143
2.20444
2.17162
2.14208
2.10902
2.04703
1.39325
2.31757
3.21955
3.67924
3.67913
3.65472
3.82006
4.5903
6.47096
8.85754
9.90239
9.68748
8.94318
8.24427
7.78561
7.34902
6.85552
6.33392
5.83719
5.39585
5.00876
4.66931
4.36936
4.09978
3.85067
3.61843
3.40156
3.19565
2.98825
2.79238
2.64341
2.52958
2.39818
2.25173
2.1204
2.0338
1.95706
1.86096
1.7468
1.66515
1.61434
1.54452
1.50333
1.46296
1.48737
1.67518
2.17284
2.75767
3.14277
3.14287
3.05738
2.93434
2.94275
3.05066
3.43281
4.00582
4.56645
4.88988
4.96079
4.90544
4.72306
4.50365
4.34205
4.2339
4.15796
4.07014
3.97235
3.84815
3.71671
3.59898
3.49886
3.4261
3.3622
3.29939
3.23688
3.16775
3.09492
3.0225
2.95228
2.87766
2.79178
2.71957
2.67113
2.63018
2.58928
2.53865
2.47376
2.41273
2.34792
2.27762
2.23449
2.20473
2.17906
2.15891
2.13516
2.06352
1.0273
1.29146
2.01302
3.00877
3.44642
4.27143
5.77537
7.7762
9.36215
9.98431
9.91492
9.67807
9.24674
8.62338
8.03542
7.49237
6.97686
6.48983
6.0217
5.57059
5.1426
4.75223
4.40822
4.11425
3.864
3.64673
3.44771
3.25415
3.07001
2.89805
2.72139
2.51378
2.34565
2.28132
2.23978
2.16659
2.05804
1.92476
1.77468
1.66093
1.62507
1.59904
1.55675
1.50289
1.41034
1.35809
1.45048
1.78347
2.35324
2.79737
2.94368
3.32374
3.81246
4.14376
4.59083
4.92995
5.00862
5.02153
4.95892
4.86492
4.75715
4.62266
4.46098
4.31079
4.15422
4.0181
3.90655
3.82803
3.75146
3.66268
3.5604
3.47738
3.40936
3.33848
3.26036
3.18489
3.11674
3.05358
2.99018
2.91706
2.83669
2.77673
2.7318
2.68828
2.64043
2.57738
2.48046
2.3774
2.33186
2.30095
2.27491
2.25345
2.23128
2.20992
2.18412
2.09728
1.00059
1.0166
1.17739
1.8939
3.67452
5.99502
8.2665
10.0751
11.0323
10.5868
9.84848
9.55573
9.29312
8.84568
8.21819
7.57542
7.01217
6.53012
6.08386
5.63498
5.18131
4.76014
4.40179
4.11142
3.87249
3.6669
3.47414
3.27435
3.05569
2.82615
2.61298
2.46167
2.38405
2.31006
2.20532
2.09576
1.97316
1.83402
1.72891
1.67638
1.63029
1.5717
1.51136
1.44627
1.3683
1.29504
1.28565
1.32855
1.56516
2.21445
3.09128
4.08628
4.80807
5.09858
5.35356
5.48564
5.3746
5.15407
4.92894
4.73725
4.6168
4.54259
4.47113
4.36452
4.20447
4.03303
3.87077
3.74294
3.66635
3.61193
3.57383
3.51905
3.42533
3.31655
3.22326
3.1444
3.07392
3.00567
2.93551
2.86381
2.79993
2.75208
2.70885
2.66384
2.61662
2.56135
2.47259
2.35977
2.2972
2.26798
2.24554
2.22636
2.20933
2.18884
2.16374
2.08078
1.00059
1.01658
1.17758
1.89255
3.67695
5.99644
8.26446
10.0748
11.0323
10.5849
9.84721
9.55501
9.29393
8.84706
8.21964
7.57694
7.01356
6.53087
6.08364
5.63406
5.18033
4.75948
4.40142
4.11136
3.87294
3.66788
3.47586
3.27722
3.05846
2.82778
2.61338
2.46332
2.38583
2.31183
2.20633
2.09584
1.97305
1.83424
1.72799
1.67578
1.62926
1.57131
1.51149
1.44615
1.3683
1.295
1.28503
1.32931
1.56185
2.11017
3.185
4.00162
4.66822
5.18695
5.39407
5.47105
5.42322
5.24685
4.99094
4.74238
4.5828
4.52203
4.4526
4.35202
4.21328
4.04374
3.87666
3.74596
3.672
3.62545
3.57149
3.49711
3.4066
3.31205
3.22526
3.14723
3.0776
3.00959
2.93538
2.85946
2.79763
2.75127
2.70915
2.66517
2.61537
2.55754
2.46829
2.36071
2.29953
2.26734
2.24528
2.22596
2.20961
2.19056
2.16462
2.07973
1.02731
1.29136
2.01332
3.00718
3.44823
4.2726
5.77307
7.77525
9.36166
9.9839
9.91468
9.6785
9.24772
8.6245
8.03633
7.49304
6.97736
6.49029
6.0222
5.57113
5.14303
4.75255
4.40853
4.11455
3.86393
3.64589
3.4464
3.25447
3.07444
2.90072
2.72539
2.52017
2.34599
2.27824
2.23804
2.16584
2.05802
1.92126
1.76526
1.66206
1.63133
1.60315
1.55829
1.5023
1.40783
1.36095
1.43853
1.80579
2.34307
2.73556
3.03655
3.29586
3.65908
4.23639
4.63195
4.90576
5.07278
5.07074
5.0132
4.83681
4.66973
4.5466
4.42687
4.32815
4.21495
4.0853
3.96672
3.84907
3.74701
3.65347
3.56577
3.49388
3.42494
3.35099
3.27435
3.19786
3.12835
3.05785
2.9793
2.90058
2.83419
2.78223
2.73828
2.69381
2.63909
2.56109
2.46105
2.37587
2.33674
2.30226
2.27468
2.25491
2.23769
2.21583
2.18413
2.09281
1.39323
2.31762
3.21963
3.67909
3.67927
3.65472
3.81957
4.58982
6.4719
8.85769
9.90254
9.68819
8.94431
8.24527
7.78615
7.34916
6.85539
6.33369
5.8369
5.39553
5.00847
4.6691
4.36909
4.09949
3.85063
3.61902
3.40249
3.19623
2.98808
2.79288
2.64047
2.52594
2.3966
2.25227
2.12121
2.03435
1.95679
1.85789
1.74275
1.66682
1.61519
1.54506
1.5032
1.4622
1.48686
1.68082
2.14716
2.80923
3.11842
3.11816
3.0628
2.9405
2.92807
3.08324
3.47732
3.99361
4.54577
4.89732
4.96828
4.86571
4.64821
4.44833
4.32737
4.2584
4.18387
4.10886
4.00356
3.85522
3.7022
3.58156
3.49017
3.42052
3.36452
3.30849
3.24052
3.1656
3.09476
3.02298
2.94507
2.86634
2.79371
2.73087
2.68045
2.63764
2.59336
2.53353
2.4584
2.40185
2.34785
2.28982
2.24085
2.20788
2.18487
2.16323
2.13638
2.06457
2.64845
3.29116
3.64723
3.76543
3.76208
3.71867
3.68609
3.69524
3.95411
5.31867
7.64892
8.43281
8.34819
8.11866
7.69816
7.18429
6.61399
6.07206
5.60765
5.2193
4.88715
4.5893
4.30775
4.03425
3.77238
3.52637
3.29671
3.08888
2.92002
2.78477
2.64131
2.48787
2.34734
2.21188
2.07405
1.97499
1.91646
1.8678
1.80601
1.72952
1.64612
1.56383
1.5436
1.6566
2.07497
2.63408
3.1756
3.38867
3.37546
3.27202
3.09725
2.93998
2.83705
2.81678
2.8588
3.02356
3.36992
3.85946
4.28044
4.42476
4.37303
4.35533
4.34292
4.32345
4.2435
4.15731
4.02585
3.84823
3.66695
3.54895
3.47665
3.41476
3.36144
3.30645
3.23666
3.16245
3.09155
3.01728
2.93935
2.86596
2.79989
2.73957
2.67851
2.61572
2.56481
2.52802
2.49136
2.44265
2.37602
2.30904
2.25137
2.20721
2.17332
2.14194
2.11338
2.05876
3.63903
3.61223
3.60251
3.66234
3.73043
3.75786
3.73275
3.66596
3.53515
3.54606
4.19194
5.77936
7.27509
7.70108
7.47845
6.88567
6.30131
5.81305
5.4084
5.05787
4.74095
4.44508
4.1682
3.90835
3.66851
3.44516
3.24102
3.05833
2.8944
2.72982
2.56357
2.4108
2.2751
2.16121
2.06335
1.9905
1.91877
1.84049
1.76128
1.70922
1.64405
1.67654
1.96308
2.62645
3.21313
3.52007
3.5663
3.53009
3.40765
3.25437
3.12383
3.00439
2.9014
2.81773
2.7555
2.73568
2.75854
2.89067
3.18508
3.57865
3.97576
4.18071
4.30513
4.32239
4.26667
4.13715
3.98596
3.84185
3.68616
3.57309
3.49912
3.42342
3.35046
3.28659
3.2163
3.1425
3.07022
3.0016
2.93593
2.87721
2.82244
2.75492
2.67473
2.60154
2.54339
2.4969
2.45778
2.42054
2.3809
2.32772
2.25816
2.19804
2.1563
2.12165
2.09308
2.03702
3.81034
3.79551
3.73009
3.71396
3.72241
3.72532
3.69101
3.60196
3.41984
3.21737
3.00467
3.21404
4.25039
5.76763
6.45622
6.37582
6.01714
5.59335
5.20648
4.86505
4.55782
4.27218
4.00949
3.76931
3.54959
3.3379
3.13819
2.95457
2.79532
2.64649
2.51486
2.39212
2.27951
2.16344
2.05348
1.96399
1.89292
1.833
1.77629
1.76083
1.91267
2.41855
3.1948
3.74773
3.82683
3.797
3.69312
3.57384
3.45168
3.33692
3.217
3.06849
2.94268
2.83725
2.76376
2.70861
2.67171
2.64687
2.65559
2.75847
3.02202
3.38484
3.69586
3.95057
4.02428
4.02681
3.99002
3.89711
3.74173
3.60758
3.50693
3.41006
3.32903
3.26409
3.20058
3.13328
3.06196
2.99497
2.94022
2.88885
2.82524
2.74038
2.64454
2.56846
2.51915
2.48069
2.44732
2.42223
2.40118
2.36236
2.2783
2.18204
2.12565
2.08834
2.06377
2.01953
3.72581
3.70891
3.70112
3.70229
3.70873
3.68892
3.61131
3.4603
3.25276
2.98929
2.7676
2.50689
2.54851
3.06373
4.29079
5.43444
5.59171
5.38292
5.00341
4.63945
4.32981
4.06501
3.82478
3.60185
3.39767
3.20633
3.03206
2.87867
2.74667
2.60877
2.47379
2.34562
2.2438
2.13593
2.04143
1.94794
1.90393
1.87639
1.94385
2.30844
3.03465
3.7882
4.09449
4.07988
3.98581
3.84704
3.71851
3.58756
3.45415
3.33788
3.22624
3.09672
2.97735
2.87068
2.79893
2.73906
2.68487
2.62622
2.57966
2.52205
2.49172
2.5678
2.80911
3.20247
3.55447
3.85624
3.92246
3.89427
3.79578
3.61764
3.47658
3.38406
3.3187
3.2595
3.20633
3.14876
3.07688
3.00113
2.9378
2.87567
2.79757
2.69817
2.59719
2.53856
2.50772
2.47924
2.45247
2.42674
2.39565
2.34504
2.25235
2.14967
2.09817
2.06385
2.04512
2.00946
3.73501
3.72739
3.72567
3.72385
3.70678
3.63232
3.49063
3.27059
2.99531
2.73753
2.53639
2.29054
2.0666
1.98902
2.2275
3.11807
4.32665
4.79931
4.69212
4.39621
4.09217
3.83744
3.61403
3.41584
3.24627
3.09419
2.94311
2.79941
2.66887
2.54534
2.41614
2.30766
2.23133
2.14523
2.0742
2.00344
2.01389
2.23587
2.91649
3.73897
4.2828
4.43625
4.39575
4.25573
4.08534
3.92089
3.76849
3.61516
3.47303
3.35263
3.23525
3.1258
3.02933
2.93661
2.85032
2.77516
2.70399
2.63199
2.56014
2.48227
2.42143
2.33782
2.33726
2.44696
2.72182
3.10704
3.50546
3.63224
3.5977
3.49941
3.4367
3.40336
3.34607
3.27478
3.21368
3.15758
3.0851
3.00104
2.92296
2.85499
2.77954
2.66511
2.55848
2.52264
2.49862
2.47406
2.44965
2.42604
2.39799
2.34556
2.24126
2.13818
2.09186
2.05706
2.03643
2.00434
3.72801
3.72978
3.72315
3.70403
3.64872
3.5021
3.27931
2.96916
2.67805
2.48354
2.25398
2.00742
1.8275
1.71456
1.5904
1.68403
2.2833
3.40865
4.16461
4.13515
3.93734
3.67468
3.43866
3.24724
3.10271
2.98446
2.85737
2.73354
2.62181
2.52996
2.41813
2.32842
2.25007
2.19795
2.14246
2.24218
2.78227
3.75822
4.54577
4.66532
4.63797
4.52906
4.37856
4.23929
4.10229
3.96281
3.80594
3.64285
3.49867
3.38344
3.27741
3.17428
3.0723
2.96955
2.87838
2.80079
2.72728
2.65353
2.57485
2.48518
2.39481
2.32074
2.26984
2.23011
2.25487
2.3702
2.66206
2.98195
3.25551
3.34848
3.38819
3.37793
3.349
3.28943
3.21597
3.14446
3.07338
2.9994
2.92038
2.84516
2.76699
2.6594
2.55543
2.51792
2.48989
2.46023
2.43007
2.40095
2.37078
2.32581
2.23524
2.13718
2.09097
2.05868
2.03554
2.00658
3.71649
3.72143
3.70584
3.67085
3.52173
3.28879
2.97638
2.61283
2.39534
2.21585
1.94377
1.71465
1.62064
1.51329
1.38809
1.27752
1.3164
1.70745
2.68526
3.51492
3.67437
3.55796
3.3479
3.15646
3.02167
2.93867
2.84652
2.73436
2.63851
2.55791
2.45969
2.38185
2.30107
2.32536
2.64325
3.56643
4.66885
5.21102
5.13334
4.98091
4.75531
4.53634
4.36447
4.23425
4.11554
3.98658
3.84341
3.69458
3.55954
3.44421
3.33552
3.22363
3.10735
2.99893
2.91049
2.83089
2.74859
2.66357
2.57821
2.49684
2.424
2.35181
2.27284
2.21369
2.17163
2.13893
2.16359
2.27542
2.4802
2.74991
2.96497
3.10368
3.18137
3.18331
3.15599
3.10314
3.05783
3.0068
2.92834
2.83926
2.75552
2.66407
2.57383
2.51949
2.48045
2.44721
2.42136
2.39526
2.3588
2.3038
2.22435
2.14444
2.09929
2.06999
2.04671
2.02498
3.72787
3.72455
3.69662
3.54935
3.30388
2.98046
2.56209
2.30266
2.14819
1.89975
1.57228
1.45448
1.42624
1.34093
1.2057
1.10983
1.06639
1.09675
1.37559
2.20342
3.08621
3.39448
3.34111
3.18451
3.02534
2.94928
2.88479
2.78522
2.71043
2.63667
2.55313
2.48148
2.60438
3.27684
4.49633
5.48169
5.56644
5.48127
5.27011
5.05083
4.82684
4.61687
4.43248
4.269
4.12423
3.99397
3.87457
3.76131
3.6448
3.50939
3.35301
3.20421
3.08719
3.0016
2.92844
2.8538
2.77768
2.70251
2.617
2.51883
2.43361
2.3694
2.3081
2.23144
2.16107
2.11809
2.08719
2.05852
2.06284
2.13013
2.29026
2.53804
2.78267
3.00903
3.07902
3.07274
3.0452
2.98905
2.90659
2.82083
2.74645
2.67719
2.60243
2.53819
2.48578
2.44646
2.41298
2.37618
2.32864
2.26995
2.20642
2.16007
2.12307
2.09976
2.08797
2.12978
3.75406
3.7319
3.59203
3.32808
2.97395
2.51061
2.2089
2.03257
1.78572
1.44949
1.32866
1.29175
1.21873
1.0964
1.02002
0.994638
0.960822
0.942574
0.959495
1.18926
1.89695
2.94938
3.30786
3.24752
3.1315
3.07178
3.02007
2.91461
2.84581
2.76869
2.78912
3.09255
4.1875
5.48771
6.13356
6.09776
5.89665
5.57694
5.3069
5.08028
4.8747
4.67958
4.4924
4.31673
4.15862
4.01667
3.88771
3.77273
3.65907
3.52571
3.37305
3.23121
3.11477
3.01744
2.93725
2.86987
2.79782
2.71329
2.63446
2.56413
2.48404
2.38826
2.30055
2.25267
2.20803
2.15517
2.097
2.03606
1.97602
1.93496
1.94652
2.03743
2.21513
2.46627
2.67342
2.83491
2.90748
2.886
2.8224
2.78375
2.74072
2.68502
2.62128
2.55424
2.49376
2.43769
2.38905
2.35294
2.3222
2.27833
2.23233
2.20124
2.20924
2.24262
2.30996
2.51082
3.74639
3.62655
3.33627
2.9527
2.45217
2.0696
1.88242
1.6492
1.33582
1.23283
1.19913
1.12442
1.00772
0.966888
0.981663
0.984682
0.956369
0.939679
0.944853
0.963102
1.12555
1.80333
2.93306
3.21956
3.27555
3.26936
3.21133
3.08967
3.00502
3.11345
3.76131
5.2284
6.49312
6.53837
6.41495
6.12822
5.84453
5.56903
5.3227
5.11696
4.94609
4.76062
4.56104
4.37242
4.20868
4.06666
3.93356
3.80171
3.66539
3.52746
3.39782
3.27756
3.16698
3.0695
2.98238
2.89546
2.80555
2.71849
2.6316
2.54248
2.45933
2.38442
2.32126
2.25539
2.18666
2.12207
2.06376
2.00292
1.94852
1.91643
1.8983
1.87544
1.88018
1.94519
2.08868
2.26672
2.45791
2.60316
2.68834
2.72376
2.72646
2.71391
2.68018
2.6053
2.50868
2.4179
2.37371
2.35418
2.35368
2.38893
2.44311
2.50274
2.58772
2.70173
2.82351
2.95736
3.66294
3.33548
2.89006
2.37657
1.90943
1.67034
1.4729
1.22308
1.07145
1.0299
0.982636
0.92539
0.907918
0.91252
0.941735
0.965228
0.968439
0.973959
0.984145
0.994421
1.00843
1.12646
1.80421
2.77779
3.28921
3.3196
3.31309
3.33646
3.5935
4.64646
6.24503
7.199
7.19868
6.92245
6.40818
6.04612
5.81526
5.6129
5.40197
5.174
4.94798
4.74673
4.56935
4.40643
4.2544
4.10719
3.96398
3.82303
3.6828
3.5468
3.41686
3.2944
3.1832
3.0845
2.99352
2.90414
2.81491
2.72602
2.63662
2.5526
2.47873
2.41197
2.34179
2.2677
2.19763
2.13002
2.06504
2.00313
1.95568
1.92191
1.8911
1.85733
1.82544
1.78253
1.76738
1.79895
1.90097
2.08193
2.30851
2.45083
2.57919
2.61186
2.60759
2.58994
2.52421
2.45999
2.46558
2.50009
2.60196
2.78056
2.95251
3.089
3.18582
3.23605
3.25697
3.24499
3.35798
2.76969
2.21717
1.68278
1.45172
1.32438
1.14288
1.00294
1.00132
0.983671
0.92438
0.910264
0.910317
0.9241
0.946268
0.976335
1.00445
1.02424
1.02906
1.02852
1.02037
1.02575
1.12419
1.70069
2.61472
3.08469
3.58966
4.28228
5.59836
6.86709
7.5821
7.4455
7.02424
6.62432
6.32632
6.09082
5.90395
5.72933
5.53391
5.30931
5.07091
4.85053
4.65769
4.4865
4.33142
4.18435
4.03891
3.89505
3.7562
3.62313
3.49383
3.36819
3.24941
3.14013
3.0406
2.94839
2.86052
2.77545
2.69571
2.62242
2.55174
2.47749
2.39817
2.32041
2.24404
2.16824
2.10073
2.05212
2.01226
1.97312
1.93156
1.88562
1.83225
1.76123
1.70618
1.68246
1.6949
1.74324
1.86701
2.05049
2.25982
2.3953
2.48863
2.57667
2.68019
2.80293
2.90272
3.01042
3.15715
3.2912
3.36934
3.39641
3.40367
3.3891
3.3736
3.30327
2.6622
1.72822
1.06981
0.790849
0.756391
0.71403
0.678998
0.691186
0.767721
0.871452
0.931991
0.954205
0.979117
1.00869
1.02168
1.02748
1.05889
1.07975
1.0797