/*--------------------------------*- C++ -*----------------------------------*\
  =========                 |
  \\      /  F ield         | OpenFOAM: The Open Source CFD Toolbox
   \\    /   O peration     | Website:  https://openfoam.org
    \\  /    A nd           | Version:  7
     \\/     M anipulation  |
\*---------------------------------------------------------------------------*/
FoamFile
{
    version     2.0;
    format      ascii;
    class       volScalarField;
    location    "1.4";
    object      rho;
}
// * * * * * * * * * * * * * * * * * * * * * * * * * * * * * * * * * * * * * //

dimensions      [1 -3 0 0 0 0 0];

internalField   nonuniform List<scalar> 
4608
(
1.40001
1.40001
1.40001
1.40001
1.40001
1.40001
1.40001
1.40001
1.40001
1.40001
1.40001
1.40001
1.40001
1.40001
1.40001
1.40001
1.40001
1.40001
1.40001
1.40001
1.40001
1.40001
1.40001
1.40001
1.40001
1.40001
1.40001
1.40001
1.40001
1.40001
1.40001
1.40001
1.40001
1.40001
1.40001
1.40001
1.40001
1.40001
1.40001
1.40001
1.40001
1.40001
1.40001
1.40001
1.40001
1.40001
1.40001
1.40001
1.40001
1.40001
1.40001
1.40001
1.40001
1.40001
1.40001
1.40001
1.40001
1.40001
1.40001
1.40001
1.40001
1.40001
1.40001
1.40001
1.40001
1.40001
1.40001
1.40001
1.40001
1.40001
1.40001
1.40001
1.40001
1.40001
1.40001
1.40001
1.40001
1.40001
1.40001
1.40001
1.40001
1.40001
1.40001
1.40001
1.40001
1.40001
1.40001
1.40001
1.40001
1.40001
1.40001
1.40001
1.40001
1.40001
1.40001
1.40001
1.40001
1.40001
1.40001
1.40001
1.40001
1.40001
1.40001
1.40001
1.40001
1.40001
1.40001
1.40001
1.40001
1.40001
1.40001
1.40001
1.40001
1.40001
1.40001
1.40001
1.40001
1.40001
1.40001
1.40001
1.40001
1.40001
1.40001
1.40001
1.40001
1.40001
1.40001
1.40001
1.40001
1.40001
1.40001
1.40001
1.40001
1.40001
1.40001
1.40001
1.40001
1.40001
1.40001
1.40001
1.40001
1.40001
1.40001
1.40001
1.40001
1.40001
1.40001
1.40001
1.40001
1.40001
1.40001
1.40001
1.40001
1.40001
1.40001
1.40001
1.40001
1.40001
1.40001
1.40001
1.40001
1.40001
1.40001
1.40001
1.40001
1.40001
1.40001
1.40001
1.40001
1.40001
1.40001
1.40001
1.40001
1.40001
1.40001
1.40001
1.40001
1.40001
1.40001
1.40001
1.40001
1.40001
1.40001
1.40001
1.40001
1.40001
1.40001
1.40001
1.40001
1.40001
1.40001
1.40001
1.40001
1.40001
1.40001
1.40001
1.40001
1.40001
1.40001
1.40001
1.40001
1.40001
1.40001
1.40001
1.40001
1.40001
1.40001
1.40001
1.40001
1.40001
1.40001
1.40001
1.40001
1.40001
1.40001
1.40001
1.40001
1.40001
1.40001
1.40001
1.40001
1.40001
1.40001
1.40001
1.40001
1.40001
1.40001
1.40001
1.40001
1.40001
1.40001
1.40001
1.40001
1.40001
1.40001
1.40001
1.40001
1.40001
1.40001
1.40001
1.40001
1.40001
1.40001
1.40001
1.40001
1.40001
1.40001
1.40001
1.40001
1.40001
1.40001
1.40001
1.40001
1.40001
1.40001
1.40001
1.40001
1.40001
1.40001
1.40001
1.40001
1.40001
1.40001
1.40001
1.40001
1.40001
1.40001
1.40001
1.40001
1.40001
1.40001
1.40001
1.40001
1.40001
1.40001
1.40001
1.40001
1.40001
1.40001
1.40001
1.40001
1.40001
1.40001
1.40001
1.40001
1.40001
1.40001
1.40001
1.40001
1.40001
1.40001
1.40001
1.40001
1.40001
1.40001
1.40001
1.40001
1.40001
1.40001
1.40001
1.40001
1.40001
1.40001
1.40001
1.40001
1.40001
1.40001
1.40001
1.40001
1.40001
1.40001
1.40001
1.40001
1.40001
1.40001
1.40001
1.40001
1.40001
1.40001
1.40001
1.40001
1.40001
1.40001
1.40001
1.40001
1.40001
1.40001
1.40001
1.40001
1.40001
1.40001
1.40001
1.40001
1.40001
1.40001
1.40001
1.40001
1.40001
1.40001
1.40001
1.40001
1.40001
1.40001
1.40001
1.40001
1.40001
1.40001
1.40001
1.40001
1.40001
1.40001
1.40001
1.40001
1.40001
1.40001
1.40001
1.40001
1.40001
1.40001
1.40001
1.40001
1.40001
1.40001
1.40001
1.40001
1.40001
1.40001
1.40001
1.40001
1.40001
1.40001
1.40001
1.40001
1.40001
1.40001
1.40001
1.40001
1.40001
1.40001
1.40001
1.40001
1.40001
1.40001
1.40001
1.40001
1.40001
1.40001
1.40001
1.40001
1.40001
1.40001
1.40001
1.40001
1.40001
1.40001
1.40001
1.40001
1.40001
1.40001
1.40001
1.40001
1.40001
1.40001
1.40001
1.40001
1.40001
1.40001
1.40001
1.40001
1.40001
1.40001
1.40001
1.40001
1.40001
1.40001
1.40001
1.40001
1.40001
1.40001
1.40001
1.40001
1.40001
1.40001
1.40001
1.40001
1.40001
1.40001
1.40001
1.40001
1.40001
1.40001
1.40001
1.40001
1.40001
1.40001
1.40001
1.40001
1.40001
1.40001
1.40001
1.40001
1.40001
1.40001
1.40001
1.40001
1.40001
1.40001
1.40001
1.40001
1.40001
1.40001
1.40001
1.40001
1.40001
1.40001
1.40001
1.40001
1.40001
1.40001
1.40001
1.40001
1.40001
1.40001
1.40001
1.40001
1.40001
1.40001
1.40001
1.40001
1.40001
1.40001
1.40001
1.40001
1.40001
1.40001
1.40001
1.40001
1.40001
1.40001
1.40001
1.40001
1.40001
1.40001
1.40001
1.40001
1.40001
1.40001
1.40001
1.40001
1.40001
1.40001
1.40001
1.40001
1.40001
1.40001
1.40001
1.40001
1.40001
1.40001
1.40001
1.40001
1.40001
1.40001
1.40001
1.40001
1.40001
1.40001
1.40001
1.40001
1.40001
1.40001
1.40001
1.40001
1.40001
1.40001
1.40001
1.40001
1.40001
1.40001
1.40001
1.40001
1.40001
1.40001
1.40001
1.40001
1.40001
1.40001
1.40001
1.40001
1.40001
1.40001
1.40001
1.40001
1.40001
1.40001
1.40001
1.40001
1.40001
1.40001
1.40001
1.40001
1.40001
1.40001
1.40001
1.40001
1.40001
1.40001
1.40001
1.40001
1.40001
1.40001
1.40001
1.40001
1.40001
1.40001
1.40001
1.40001
1.40001
1.40001
1.40001
1.40001
1.40001
1.40001
1.40001
1.40001
1.40001
1.40001
1.40001
1.40001
1.40001
1.40001
1.40001
1.40001
1.40001
1.40001
1.40001
1.40001
1.40001
1.40001
1.40001
1.40001
1.40001
1.40001
1.40001
1.40001
1.40001
1.40001
1.40001
1.40001
1.40001
1.40001
1.40001
1.40001
1.40001
1.40001
1.40001
1.40001
1.40001
1.40001
1.40001
1.40001
1.40001
1.40001
1.40001
1.40001
1.40001
1.40001
1.40001
1.40001
1.40001
1.40001
1.40001
1.40001
1.40001
1.40001
1.40001
1.40001
1.40001
1.40001
1.40001
1.40001
1.40001
1.40001
1.40001
1.40001
1.40001
1.40001
1.40001
1.40001
1.40001
1.40001
1.40001
1.40001
1.40001
1.40001
1.40001
1.40001
1.40001
1.40001
1.40001
1.40001
1.40001
1.40001
1.40001
1.40001
1.40001
1.40001
1.40001
1.40001
1.40001
1.40001
1.40001
1.40001
1.40001
1.40001
1.40001
1.40001
1.40001
1.40001
1.40001
1.40001
1.40001
1.40001
1.40001
1.40001
1.40001
1.40001
1.40001
1.40001
1.40001
1.40001
1.40001
1.40001
1.40001
1.40001
1.40001
1.40001
1.40001
1.40001
1.40001
1.40001
1.40001
1.40001
1.40001
1.40001
1.40001
1.40001
1.40001
1.40001
1.40001
1.40001
1.40001
1.40001
1.40001
1.40001
1.40001
1.40001
1.40001
1.40001
1.40001
1.40001
1.40001
1.40001
1.40001
1.40001
1.40001
1.40001
1.40001
1.40001
1.40001
1.40001
1.40001
1.40001
1.40001
1.40001
1.40001
1.40001
1.40001
1.40001
1.40001
1.40001
1.40001
1.40001
1.40001
1.40001
1.40001
1.40001
1.40001
1.40001
1.40001
1.40001
1.40001
1.40001
1.40001
1.40001
1.40001
1.40001
1.40001
1.40001
1.40001
1.40001
1.40001
1.40001
1.40001
1.40001
1.40001
1.40001
1.40001
1.40001
1.40001
1.40001
1.40001
1.40001
1.40001
1.40001
1.40001
1.40001
1.40001
1.40001
1.40001
1.40001
1.40001
1.40001
1.40001
1.40001
1.40001
1.40001
1.40001
1.67694
2.08274
2.54571
2.9873
3.42766
3.8322
4.11354
4.42668
4.43315
4.29438
4.01813
3.72196
3.45649
3.36242
3.30103
3.3083
3.33309
3.357
3.37191
3.38344
3.39774
3.41723
3.42907
3.42969
1.40304
1.41787
1.47108
1.59332
1.79382
2.11526
2.5028
2.98774
3.37087
3.53806
3.63657
3.62382
3.57506
3.47843
3.41582
3.39279
3.38332
3.36991
3.36779
3.37398
3.38818
3.40114
3.4136
3.42028
1.40001
1.39998
1.40001
1.40031
1.40312
1.42233
1.49653
1.70825
2.19383
2.89244
3.42025
3.71499
3.77954
3.71989
3.61013
3.44207
3.37535
3.35633
3.34804
3.35626
3.36705
3.37422
3.38351
3.40058
1.40001
1.4
1.4
1.4
1.39999
1.40004
1.39996
1.40145
1.43188
1.62916
2.19212
2.89169
3.50847
3.57729
3.54481
3.49865
3.43203
3.38507
3.3625
3.3451
3.3402
3.34342
3.35009
3.37049
1.40001
1.40001
1.4
1.4
1.4
1.4
1.4
1.4
1.39992
1.40095
1.4393
1.67364
2.32504
2.99576
3.41931
3.53987
3.51604
3.44979
3.39415
3.35353
3.31922
3.30466
3.31016
3.32415
1.40001
1.40001
1.40001
1.40001
1.40001
1.4
1.4
1.4
1.4
1.4
1.39993
1.40268
1.45986
1.82424
2.50966
3.16248
3.37791
3.38272
3.36344
3.32026
3.28523
3.28562
3.28157
3.2877
1.40001
1.40001
1.40001
1.40001
1.40001
1.40001
1.40001
1.40001
1.40001
1.4
1.4
1.39999
1.4
1.41151
1.52352
2.02596
2.75403
3.31903
3.39437
3.36223
3.32983
3.31841
3.29897
3.28373
1.40001
1.40001
1.40001
1.40001
1.40001
1.40001
1.40001
1.40001
1.40001
1.40001
1.40001
1.4
1.4
1.39998
1.40067
1.43755
1.67707
2.37543
3.01637
3.33946
3.38306
3.37413
3.34311
3.30742
1.40001
1.40001
1.40001
1.40001
1.40001
1.40001
1.40001
1.40001
1.40001
1.40001
1.40001
1.40001
1.4
1.4
1.4
1.40005
1.40569
1.52632
1.99363
2.77989
3.13783
3.30814
3.35257
3.33728
1.40001
1.40001
1.40001
1.40001
1.40001
1.40001
1.40001
1.40001
1.40001
1.40001
1.40001
1.40001
1.40001
1.4
1.4
1.4
1.39999
1.40179
1.43712
1.75233
2.42287
3.12903
3.31766
3.31999
1.40001
1.40001
1.40001
1.40001
1.40001
1.40001
1.40001
1.40001
1.40001
1.40001
1.40001
1.40001
1.40001
1.40001
1.40001
1.4
1.4
1.4
1.40014
1.41591
1.58033
2.20015
2.86327
3.28923
1.40001
1.40001
1.40001
1.40001
1.40001
1.40001
1.40001
1.40001
1.40001
1.40001
1.40001
1.40001
1.40001
1.40001
1.40001
1.40001
1.4
1.4
1.4
1.40004
1.40459
1.49761
1.97854
2.78349
1.40001
1.40001
1.40001
1.40001
1.40001
1.40001
1.40001
1.40001
1.40001
1.40001
1.40001
1.40001
1.40001
1.40001
1.40001
1.40001
1.40001
1.4
1.4
1.4
1.4
1.40182
1.4644
1.81203
1.40001
1.40001
1.40001
1.40001
1.40001
1.40001
1.40001
1.40001
1.40001
1.40001
1.40001
1.40001
1.40001
1.40001
1.40001
1.40001
1.40001
1.40001
1.40001
1.4
1.4
1.4
1.4013
1.42528
1.40001
1.40001
1.40001
1.40001
1.40001
1.40001
1.40001
1.40001
1.40001
1.40001
1.40001
1.40001
1.40001
1.40001
1.40001
1.40001
1.40001
1.40001
1.40001
1.40001
1.4
1.4
1.40002
1.40004
1.40001
1.40001
1.40001
1.40001
1.40001
1.40001
1.40001
1.40001
1.40001
1.40001
1.40001
1.40001
1.40001
1.40001
1.40001
1.40001
1.40001
1.40001
1.40001
1.40001
1.40001
1.4
1.4
1.4
1.40001
1.40001
1.40001
1.40001
1.40001
1.40001
1.40001
1.40001
1.40001
1.40001
1.40001
1.40001
1.40001
1.40001
1.40001
1.40001
1.40001
1.40001
1.40001
1.40001
1.40001
1.4
1.4
1.4
1.40001
1.40001
1.40001
1.40001
1.40001
1.40001
1.40001
1.40001
1.40001
1.40001
1.40001
1.40001
1.40001
1.40001
1.40001
1.40001
1.40001
1.40001
1.40001
1.40001
1.4
1.4
1.40002
1.40004
1.40001
1.40001
1.40001
1.40001
1.40001
1.40001
1.40001
1.40001
1.40001
1.40001
1.40001
1.40001
1.40001
1.40001
1.40001
1.40001
1.40001
1.40001
1.40001
1.4
1.4
1.4
1.4013
1.42528
1.40001
1.40001
1.40001
1.40001
1.40001
1.40001
1.40001
1.40001
1.40001
1.40001
1.40001
1.40001
1.40001
1.40001
1.40001
1.40001
1.40001
1.4
1.4
1.4
1.4
1.40182
1.4644
1.81204
1.40001
1.40001
1.40001
1.40001
1.40001
1.40001
1.40001
1.40001
1.40001
1.40001
1.40001
1.40001
1.40001
1.40001
1.40001
1.40001
1.4
1.4
1.4
1.40004
1.40459
1.49761
1.97854
2.78349
1.40001
1.40001
1.40001
1.40001
1.40001
1.40001
1.40001
1.40001
1.40001
1.40001
1.40001
1.40001
1.40001
1.40001
1.40001
1.4
1.4
1.4
1.40014
1.41591
1.58033
2.20015
2.86328
3.28923
1.40001
1.40001
1.40001
1.40001
1.40001
1.40001
1.40001
1.40001
1.40001
1.40001
1.40001
1.40001
1.40001
1.4
1.4
1.4
1.39999
1.40179
1.43712
1.75233
2.42287
3.12903
3.31766
3.31999
1.40001
1.40001
1.40001
1.40001
1.40001
1.40001
1.40001
1.40001
1.40001
1.40001
1.40001
1.40001
1.4
1.4
1.4
1.40005
1.40569
1.52632
1.99363
2.77989
3.13783
3.30814
3.35257
3.33728
1.40001
1.40001
1.40001
1.40001
1.40001
1.40001
1.40001
1.40001
1.40001
1.40001
1.40001
1.4
1.4
1.39998
1.40067
1.43755
1.67707
2.37543
3.01637
3.33946
3.38306
3.37413
3.34311
3.30742
1.40001
1.40001
1.40001
1.40001
1.40001
1.40001
1.40001
1.40001
1.40001
1.4
1.4
1.39999
1.4
1.41151
1.52352
2.02596
2.75403
3.31903
3.39437
3.36223
3.32983
3.31841
3.29897
3.28373
1.40001
1.40001
1.40001
1.40001
1.40001
1.4
1.4
1.4
1.4
1.4
1.39993
1.40268
1.45986
1.82424
2.50966
3.16248
3.37791
3.38272
3.36344
3.32026
3.28523
3.28562
3.28157
3.2877
1.40001
1.40001
1.4
1.4
1.4
1.4
1.4
1.4
1.39992
1.40095
1.4393
1.67364
2.32504
2.99576
3.41931
3.53987
3.51604
3.44979
3.39415
3.35353
3.31922
3.30466
3.31016
3.32415
1.40001
1.4
1.4
1.4
1.39999
1.40004
1.39996
1.40145
1.43188
1.62916
2.19212
2.89169
3.50847
3.57729
3.54481
3.49865
3.43203
3.38507
3.3625
3.3451
3.3402
3.34342
3.35009
3.37049
1.40001
1.39998
1.40001
1.40031
1.40312
1.42233
1.49653
1.70825
2.19383
2.89244
3.42025
3.71499
3.77954
3.71989
3.61013
3.44207
3.37535
3.35633
3.34804
3.35626
3.36705
3.37422
3.38351
3.40058
1.40304
1.41787
1.47108
1.59332
1.79382
2.11526
2.5028
2.98774
3.37087
3.53806
3.63657
3.62382
3.57506
3.47843
3.41582
3.39279
3.38332
3.36991
3.36779
3.37398
3.38818
3.40114
3.4136
3.42028
1.67694
2.08274
2.54571
2.9873
3.42766
3.8322
4.11354
4.42668
4.43315
4.29438
4.01813
3.72196
3.45649
3.36242
3.30103
3.3083
3.33309
3.357
3.37191
3.38344
3.39774
3.41723
3.42907
3.42969
2.66639
1.95303
1.37494
1.10951
1.05239
0.989924
0.951823
0.966128
1.03943
1.13671
1.20397
1.23087
1.25762
1.28372
1.29337
1.29878
1.32914
1.3542
1.35624
1.3499
1.33134
1.3271
1.33391
1.41069
1.72691
2.55805
3.66397
4.7884
5.80042
6.01767
5.70631
5.17322
4.79231
4.59486
4.50029
4.40677
4.30032
4.19457
4.08489
3.965
3.83823
3.71548
3.60191
3.50006
3.41048
3.32852
3.24761
3.16542
3.08324
3.0039
2.92738
2.85218
2.77942
2.71047
2.64655
2.58683
2.5314
2.47895
2.43061
2.38514
2.34021
2.29221
2.2406
2.18612
2.12822
2.07225
2.03101
2.00572
1.98166
1.9549
1.92331
1.88507
1.83534
1.78585
1.75442
1.72818
1.7171
1.7128
1.7255
1.76596
1.86894
2.03007
2.21148
2.4348
2.62586
2.78192
2.90774
3.01242
3.13321
3.2082
3.20152
3.17762
3.13612
3.0741
2.98607
2.83814
3.14619
2.73787
2.33531
1.92596
1.72957
1.6121
1.45322
1.31932
1.31002
1.28926
1.23045
1.2119
1.21192
1.22462
1.24405
1.27127
1.2969
1.31763
1.32453
1.32411
1.31491
1.31743
1.39943
1.83591
2.4668
2.7756
3.08182
3.47781
4.2006
4.85898
5.18719
5.11213
4.89474
4.69109
4.53954
4.4164
4.31631
4.22316
4.11882
3.99902
3.87022
3.74972
3.64338
3.54722
3.45859
3.37411
3.29038
3.20645
3.12378
3.04354
2.96545
2.88967
2.81763
2.75047
2.68824
2.62953
2.57256
2.51672
2.46426
2.41615
2.37
2.32148
2.26918
2.21711
2.16518
2.113
2.06594
2.03217
2.00407
1.97585
1.94538
1.91156
1.87255
1.82097
1.78108
1.76569
1.77573
1.81138
1.90228
2.03291
2.17207
2.25771
2.33018
2.39039
2.46298
2.53466
2.59678
2.66135
2.75133
2.83369
2.88137
2.91568
2.91718
2.90684
2.89726
2.85145
3.33922
3.1256
2.82329
2.45785
2.10235
1.91022
1.74901
1.53269
1.39023
1.35058
1.30493
1.24741
1.22888
1.23353
1.26243
1.28334
1.28513
1.28957
1.29939
1.30933
1.32134
1.42099
1.93574
2.58815
2.91771
2.93043
2.92533
2.93842
3.0873
3.67435
4.50474
4.96691
4.96894
4.83369
4.57412
4.38816
4.26643
4.15737
4.04465
3.92228
3.7993
3.6887
3.59064
3.49902
3.41222
3.32751
3.24449
3.1616
3.0778
2.99571
2.91698
2.84263
2.77475
2.71375
2.65676
2.60017
2.54273
2.48417
2.42467
2.369
2.32023
2.27623
2.22947
2.17937
2.13184
2.08587
2.04064
1.9964
1.96264
1.93815
1.91533
1.89036
1.86726
1.83634
1.82529
1.84741
1.92679
2.05286
2.19746
2.311
2.40326
2.41242
2.40747
2.38221
2.33086
2.30214
2.30648
2.33937
2.41884
2.531
2.62884
2.72117
2.78031
2.8006
2.81672
2.81022
3.36811
3.29913
3.11627
2.86141
2.50863
2.22372
2.08074
1.8953
1.63009
1.5402
1.51133
1.44267
1.33142
1.29244
1.30699
1.30978
1.28243
1.26424
1.26895
1.28565
1.42577
1.94259
2.69575
2.87061
2.90457
2.8979
2.85993
2.78077
2.72159
2.78583
3.15884
3.95006
4.58748
4.62557
4.56813
4.42247
4.27275
4.12553
3.99492
3.88385
3.79045
3.68867
3.57812
3.4729
3.38083
3.29992
3.22216
3.14372
3.06203
2.979
2.90033
2.82698
2.75951
2.69988
2.6458
2.59125
2.53428
2.47794
2.41997
2.36048
2.30501
2.25515
2.213
2.16853
2.12197
2.07812
2.03778
1.99438
1.9558
1.9328
1.91921
1.90275
1.90463
1.9504
2.0423
2.17284
2.29941
2.39411
2.4663
2.48705
2.48332
2.46288
2.4235
2.36974
2.3161
2.27369
2.25319
2.24358
2.24266
2.2511
2.27772
2.32341
2.39019
2.45878
2.53345
2.62199
3.34864
3.3413
3.26163
3.09808
2.86571
2.5433
2.32454
2.19224
1.99657
1.71807
1.61876
1.58821
1.52254
1.40723
1.33654
1.31647
1.2884
1.26742
1.28142
1.47338
2.00525
2.70369
2.92067
2.88191
2.8053
2.76451
2.72983
2.6604
2.61444
2.5631
2.57578
2.75723
3.37508
4.07174
4.40735
4.38947
4.28622
4.12111
3.9796
3.85774
3.74534
3.63812
3.53407
3.43574
3.34704
3.26657
3.1913
3.12268
3.05434
2.97396
2.88124
2.79442
2.72303
2.66395
2.61473
2.57169
2.52478
2.47145
2.42239
2.37545
2.32087
2.25565
2.19716
2.16592
2.13562
2.09925
2.05954
2.01716
1.97431
1.94496
1.95306
2.01667
2.13536
2.30115
2.43156
2.5461
2.57852
2.56278
2.53563
2.51451
2.478
2.43746
2.41269
2.38862
2.34848
2.29773
2.25679
2.23064
2.20673
2.18488
2.16161
2.1388
2.137
2.15526
2.19781
2.32881
3.31037
3.316
3.305
3.2191
3.0669
2.85656
2.5694
2.38327
2.2679
2.07493
1.81328
1.71932
1.69621
1.62181
1.5006
1.41753
1.38212
1.40747
1.62825
2.21554
2.78519
2.96936
2.9352
2.83482
2.73176
2.68173
2.63913
2.57338
2.52439
2.47632
2.42198
2.37487
2.45206
2.85604
3.54591
4.05616
4.10989
4.06635
3.95489
3.83734
3.71606
3.60032
3.49784
3.40544
3.32318
3.24848
3.17906
3.11246
3.04333
2.96195
2.86705
2.77608
2.70395
2.65077
2.60561
2.56011
2.51309
2.46449
2.40788
2.34339
2.28537
2.24118
2.20056
2.14937
2.1019
2.07256
2.05159
2.03169
2.03623
2.07842
2.19063
2.35157
2.51635
2.65126
2.67049
2.68249
2.67334
2.64092
2.59188
2.5446
2.50237
2.45865
2.40415
2.35188
2.31609
2.28927
2.26098
2.23076
2.2009
2.17563
2.14614
2.11215
2.06768
2.04807
2.04391
2.07528
3.29045
3.29859
3.29328
3.27643
3.18746
3.04168
2.83762
2.58904
2.43487
2.30478
2.10006
1.92267
1.84861
1.76183
1.65736
1.56238
1.59082
1.87565
2.52995
3.03996
3.13535
3.06429
2.9338
2.81393
2.72808
2.6746
2.61502
2.54249
2.48082
2.42863
2.36417
2.31243
2.25802
2.27387
2.4748
3.02053
3.63607
3.92439
3.8838
3.80107
3.67761
3.55619
3.45988
3.38558
3.3174
3.24269
3.15863
3.07045
2.99062
2.92199
2.85614
2.78763
2.71569
2.64725
2.59172
2.54264
2.49113
2.43578
2.37939
2.32584
2.27779
2.23017
2.17678
2.13661
2.10817
2.08588
2.10176
2.17334
2.30703
2.48369
2.62801
2.69226
2.75148
2.75147
2.72927
2.71493
2.69297
2.65197
2.59244
2.53893
2.49104
2.43638
2.38052
2.33608
2.30435
2.28271
2.26366
2.24356
2.22109
2.19471
2.15004
2.09224
2.04899
2.02725
2.01895
2.00806
3.29584
3.29911
3.29685
3.28684
3.25395
3.16255
3.02047
2.81656
2.61938
2.48524
2.32219
2.14031
2.00417
1.91848
1.81843
1.88168
2.2848
2.99186
3.43026
3.41229
3.29473
3.1374
2.99368
2.8754
2.78458
2.70939
2.62785
2.54772
2.47433
2.41556
2.34292
2.28333
2.22986
2.19428
2.15549
2.22042
2.55925
3.13552
3.58722
3.64375
3.62387
3.56152
3.47498
3.39479
3.31426
3.23211
3.13968
3.04263
2.95621
2.88675
2.82201
2.7587
2.69594
2.63074
2.57141
2.52109
2.47333
2.42551
2.37527
2.31777
2.25819
2.20827
2.17339
2.14803
2.16428
2.23967
2.4197
2.61717
2.78042
2.84699
2.87571
2.86758
2.85627
2.8284
2.79169
2.74142
2.68855
2.63705
2.58374
2.53828
2.49336
2.42961
2.36626
2.33598
2.31468
2.29237
2.27322
2.25658
2.23884
2.20926
2.14772
2.08305
2.04649
2.02712
2.0184
2.00119
3.30617
3.29988
3.29753
3.29527
3.28364
3.23566
3.14564
3.00471
2.82436
2.65177
2.51474
2.33999
2.17859
2.11915
2.27626
2.82955
3.53179
3.79459
3.73474
3.56707
3.392
3.2428
3.1095
2.98916
2.8846
2.78948
2.69367
2.60145
2.51666
2.43513
2.34801
2.27478
2.22463
2.16607
2.11507
2.06387
2.07026
2.2172
2.65236
3.14391
3.4511
3.52604
3.49967
3.41776
3.31562
3.21659
3.12568
3.0346
2.94907
2.8747
2.80195
2.73414
2.67402
2.61563
2.55812
2.50684
2.45897
2.4121
2.36593
2.31622
2.27752
2.22187
2.22214
2.29898
2.46837
2.71864
2.94302
3.00867
2.9932
2.94432
2.90608
2.88864
2.86028
2.82255
2.78433
2.74424
2.6931
2.63975
2.59113
2.54646
2.49709
2.43599
2.37446
2.34594
2.32918
2.31228
2.29629
2.27868
2.2537
2.21205
2.1461
2.08779
2.05288
2.03287
2.02343
2.00194
3.30899
3.2948
3.28571
3.28308
3.28662
3.27357
3.22345
3.12623
2.99107
2.81684
2.66796
2.48819
2.51252
2.82418
3.53677
4.14636
4.23631
4.12573
3.92016
3.71879
3.5438
3.39115
3.2498
3.11619
2.9918
2.87327
2.76386
2.66643
2.58128
2.48959
2.39809
2.31064
2.24105
2.16568
2.0987
2.03008
1.99799
1.97779
2.02513
2.27114
2.72892
3.18239
3.35171
3.33341
3.27564
3.19523
3.11415
3.0313
2.94996
2.87909
2.80839
2.72491
2.64666
2.57872
2.53152
2.49049
2.45298
2.41356
2.38241
2.34569
2.32707
2.37618
2.53054
2.77203
2.98811
3.17174
3.20884
3.19046
3.12509
3.0121
2.92345
2.87472
2.8458
2.81524
2.78321
2.74866
2.70018
2.65071
2.60939
2.56598
2.51303
2.45838
2.40696
2.36664
2.34275
2.3231
2.30367
2.28267
2.25519
2.21464
2.15666
2.10312
2.0708
2.05014
2.03719
2.01159
3.37168
3.3589
3.31176
3.29873
3.30273
3.30427
3.28109
3.22161
3.10172
2.96869
2.82507
2.94722
3.53342
4.34757
4.70527
4.66562
4.48113
4.25924
4.0527
3.86638
3.69475
3.5313
3.37769
3.23461
3.10159
2.97094
2.84567
2.72942
2.62702
2.52799
2.43769
2.35262
2.27412
2.19309
2.11561
2.04994
1.99551
1.94954
1.90862
1.89492
2.00058
2.33755
2.84396
3.15691
3.19972
3.18431
3.1216
3.04775
2.96962
2.8956
2.81525
2.71956
2.63714
2.56464
2.51374
2.47701
2.45349
2.43573
2.43966
2.50208
2.66079
2.88029
3.05759
3.20085
3.27242
3.27743
3.25527
3.20852
3.11978
3.02837
2.95943
2.90307
2.85768
2.81661
2.7819
2.7478
2.70704
2.6647
2.6272
2.58593
2.53574
2.48453
2.43896
2.39797
2.36296
2.33318
2.30706
2.28384
2.26301
2.23494
2.18576
2.12997
2.09385
2.07055
2.05153
2.02025
3.28105
3.25616
3.24532
3.28055
3.31899
3.33334
3.31638
3.27064
3.18115
3.18308
3.54069
4.39786
5.14318
5.36081
5.25518
4.95905
4.65976
4.40425
4.18882
3.99836
3.82182
3.65272
3.49116
3.33675
3.19185
3.0544
2.9264
2.81016
2.70442
2.59602
2.48243
2.3752
2.27843
2.19739
2.12769
2.07531
2.02196
1.96246
1.89975
1.8589
1.80812
1.83119
2.03575
2.47671
2.8407
3.04504
3.06097
3.03372
2.95181
2.8539
2.7685
2.69041
2.62352
2.56378
2.52258
2.50685
2.52418
2.60801
2.78546
3.01986
3.25388
3.3501
3.40227
3.4257
3.40514
3.34496
3.26067
3.18652
3.10638
3.02706
2.9725
2.92488
2.87975
2.83854
2.80107
2.76384
2.72453
2.68134
2.63946
2.59663
2.54841
2.49906
2.45736
2.4217
2.38612
2.35223
2.32302
2.29306
2.25556
2.21448
2.17866
2.14386
2.11358
2.08966
2.06926
2.03147
2.65112
3.06423
3.30035
3.36239
3.34829
3.31491
3.28953
3.29313
3.44222
4.19508
5.37473
5.76508
5.72391
5.61351
5.40926
5.15225
4.8589
4.57425
4.32574
4.11343
3.92727
3.7565
3.59205
3.42936
3.271
3.11991
2.97598
2.84224
2.73115
2.64048
2.54181
2.4342
2.33533
2.23824
2.1385
2.06691
2.02409
1.98653
1.93694
1.87664
1.81144
1.74837
1.73
1.81508
2.09985
2.49215
2.8367
2.95727
2.94806
2.87563
2.75334
2.64979
2.59441
2.57437
2.59687
2.69916
2.93534
3.21747
3.46535
3.55578
3.51401
3.4839
3.46054
3.44234
3.41277
3.37882
3.3084
3.21044
3.11409
3.02963
2.9719
2.93147
2.89793
2.86694
2.83275
2.7932
2.74967
2.70173
2.65331
2.60471
2.55208
2.50268
2.46119
2.42585
2.39868
2.37804
2.35473
2.32063
2.2677
2.21041
2.17479
2.14997
2.1279
2.10763
2.08434
2.03998
1.73389
2.41735
3.03733
3.31651
3.30731
3.28542
3.38016
3.82402
4.8448
6.02802
6.50523
6.40193
6.0468
5.71031
5.48659
5.26885
5.01513
4.74062
4.47401
4.23197
4.01432
3.81869
3.64216
3.48076
3.32987
3.18753
3.05207
2.91962
2.78193
2.64864
2.54632
2.46676
2.37433
2.27019
2.17527
2.11235
2.0558
1.98263
1.89398
1.82929
1.78838
1.73193
1.69923
1.66735
1.68544
1.82366
2.17443
2.56264
2.81292
2.81367
2.75725
2.66847
2.66824
2.73189
2.96975
3.31295
3.62745
3.80615
3.85101
3.82062
3.71849
3.59351
3.49756
3.43364
3.39154
3.34141
3.28282
3.20775
3.12914
3.0584
2.99863
2.95588
2.91718
2.87683
2.83571
2.79098
2.74496
2.70012
2.65675
2.6098
2.55457
2.50727
2.47489
2.44707
2.41849
2.38232
2.33675
2.29489
2.25092
2.20283
2.17377
2.15419
2.13729
2.12349
2.10648
2.05308
1.42546
1.65007
2.20902
2.89261
3.17673
3.66709
4.5025
5.54742
6.32583
6.60543
6.56088
6.4358
6.22741
5.92858
5.64098
5.36722
5.09948
4.84076
4.58785
4.34003
4.09985
3.87511
3.67216
3.4956
3.34339
3.20965
3.08511
2.96083
2.83872
2.72175
2.60086
2.45685
2.33884
2.29312
2.26296
2.21001
2.13066
2.03106
1.91658
1.8274
1.79756
1.77569
1.74152
1.69914
1.62596
1.58176
1.65246
1.89772
2.29742
2.59808
2.69356
2.92195
3.20194
3.39749
3.66583
3.85124
3.88641
3.89468
3.86264
3.81319
3.75389
3.67419
3.57585
3.48466
3.39398
3.31638
3.25129
3.20383
3.15715
3.10384
3.04305
2.99322
2.95048
2.90429
2.85316
2.80436
2.76119
2.72221
2.68345
2.63784
2.58653
2.54783
2.51824
2.48845
2.455
2.41083
2.34415
2.2731
2.24128
2.22008
2.20309
2.18971
2.17562
2.16118
2.14285
2.07729
1.40058
1.41557
1.55747
2.12882
3.32493
4.64419
5.79776
6.67477
7.10489
6.89197
6.53568
6.39345
6.26736
6.0527
5.74482
5.41947
5.1256
4.86813
4.62597
4.37896
4.12444
3.88207
3.67042
3.4957
3.35011
3.22351
3.10288
2.97464
2.83016
2.67472
2.52745
2.42129
2.36656
2.31412
2.23892
2.15958
2.06916
1.96379
1.88193
1.83955
1.80194
1.75453
1.70631
1.65452
1.59154
1.5314
1.522
1.55583
1.73799
2.20799
2.78723
3.38623
3.78168
3.93868
4.08221
4.14793
4.08664
3.9683
3.84776
3.74585
3.67839
3.63148
3.58612
3.52096
3.42654
3.32685
3.23221
3.15622
3.10879
3.07565
3.05323
3.02003
2.9615
2.89206
2.83163
2.78059
2.73564
2.69289
2.64923
2.6043
2.56363
2.5324
2.50332
2.47244
2.43967
2.4012
2.33975
2.26159
2.21793
2.19778
2.18306
2.17108
2.16045
2.1468
2.12904
2.06634
1.40058
1.41555
1.55766
2.12778
3.32628
4.64463
5.79682
6.67488
7.10489
6.89107
6.53504
6.39308
6.26776
6.05341
5.74556
5.42024
5.12632
4.86852
4.62583
4.37844
4.12388
3.88168
3.67019
3.49566
3.3504
3.22413
3.10397
2.9765
2.83197
2.67578
2.52771
2.42244
2.36779
2.31538
2.23965
2.15965
2.06911
1.96402
1.88127
1.8391
1.80108
1.75417
1.7064
1.65441
1.59152
1.53138
1.52149
1.55641
1.73379
2.13321
2.83929
3.3329
3.71369
3.99319
4.08614
4.1401
4.11775
4.02464
3.8842
3.7474
3.65707
3.619
3.57626
3.5151
3.43234
3.33294
3.23523
3.15799
3.11293
3.08468
3.05201
3.00623
2.94954
2.88921
2.83315
2.78279
2.73835
2.69552
2.64908
2.60147
2.56233
2.53219
2.50378
2.47338
2.43872
2.39851
2.33656
2.26187
2.21902
2.19684
2.18264
2.17081
2.16073
2.14807
2.12963
2.06584
1.42547
1.64998
2.20925
2.89158
3.17786
3.66765
4.50139
5.54728
6.32546
6.60529
6.56068
6.43589
6.22791
5.92921
5.64149
5.36756
5.09972
4.84098
4.5881
4.34032
4.10009
3.87529
3.67234
3.49578
3.34336
3.20914
3.08429
2.96105
2.8416
2.72345
2.60355
2.46131
2.33906
2.29095
2.26175
2.20949
2.13069
2.02858
1.90953
1.82825
1.80237
1.77879
1.74268
1.69866
1.62387
1.58407
1.64327
1.91342
2.29199
2.55708
2.75019
2.90591
3.12295
3.45346
3.66749
3.8293
3.93166
3.93127
3.89771
3.79531
3.69932
3.62784
3.55679
3.49777
3.43026
3.35414
3.28509
3.21602
3.15591
3.10046
3.04746
3.0031
2.95946
2.91189
2.86246
2.81355
2.7697
2.72563
2.67651
2.62707
2.58508
2.55182
2.52289
2.49224
2.45385
2.39951
2.33062
2.27136
2.24358
2.21987
2.20223
2.19061
2.18015
2.16536
2.14267
2.07416
1.73387
2.41738
3.03738
3.31643
3.3074
3.28542
3.37988
3.8238
4.84521
6.02802
6.50526
6.40226
6.04738
5.71085
5.48689
5.26891
5.01503
4.74049
4.47386
4.23181
4.01416
3.81857
3.642
3.48057
3.32982
3.18787
3.05267
2.92001
2.78179
2.64893
2.54428
2.46426
2.37319
2.27058
2.17587
2.11277
2.05562
1.98036
1.89097
1.83061
1.789
1.7323
1.69908
1.66671
1.68492
1.82753
2.15721
2.59339
2.80049
2.79896
2.75949
2.67325
2.65983
2.75184
2.99134
3.30117
3.62259
3.82083
3.85592
3.79694
3.67314
3.56019
3.49066
3.45117
3.40753
3.36201
3.29907
3.21175
3.12166
3.0502
2.99571
2.95364
2.91842
2.88217
2.83824
2.79042
2.74593
2.70117
2.65233
2.6026
2.55637
2.5156
2.48184
2.45216
2.42072
2.37824
2.32611
2.28723
2.25019
2.21041
2.17751
2.15617
2.14124
2.1262
2.10665
2.05265
2.65106
3.06427
3.30037
3.36237
3.34827
3.31489
3.28952
3.29311
3.44239
4.1952
5.37478
5.76528
5.72408
5.61357
5.40921
5.15202
4.85858
4.57395
4.32553
4.11329
3.92715
3.75643
3.59202
3.42947
3.27127
3.12032
2.97629
2.84198
2.73006
2.63955
2.54211
2.43537
2.33548
2.23811
2.13846
2.06695
2.02414
1.9866
1.93746
1.87681
1.81114
1.74805
1.72975
1.81212
2.10959
2.48862
2.82809
2.95786
2.94939
2.88385
2.76942
2.66256
2.59271
2.57473
2.59999
2.70225
2.91362
3.20436
3.44734
3.53208
3.5015
3.4927
3.48691
3.47589
3.42843
3.37698
3.29913
3.19548
3.089
3.01943
2.97722
2.94071
2.90814
2.87336
2.82885
2.7818
2.73734
2.69106
2.64237
2.59614
2.55388
2.51444
2.47382
2.4318
2.39696
2.37081
2.34426
2.31034
2.2654
2.2204
2.18173
2.15205
2.12901
2.1071
2.08661
2.04705
3.28104
3.25615
3.24532
3.28055
3.31899
3.33335
3.31639
3.27065
3.18115
3.18308
3.54062
4.39785
5.14312
5.36077
5.25507
4.95885
4.65953
4.40403
4.18866
3.99827
3.82178
3.65277
3.49131
3.33704
3.19206
3.0544
2.92618
2.80988
2.70438
2.59618
2.48267
2.37512
2.27822
2.19719
2.12743
2.07491
2.02155
1.96231
1.90062
1.85942
1.80809
1.83135
2.03252
2.47882
2.85129
3.04052
3.05678
3.03238
2.95403
2.85632
2.77062
2.69049
2.62225
2.56702
2.52396
2.50571
2.51905
2.60177
2.78294
3.01973
3.25017
3.36609
3.43915
3.45299
3.42197
3.34885
3.26072
3.17683
3.08701
3.02213
2.97912
2.93425
2.88997
2.85004
2.8053
2.75842
2.71301
2.67047
2.62983
2.59315
2.55858
2.51571
2.46412
2.41616
2.37707
2.34474
2.31621
2.2888
2.26105
2.22626
2.18133
2.14177
2.11334
2.08908
2.06881
2.02917
3.37168
3.3589
3.31175
3.29873
3.30274
3.30427
3.28109
3.22162
3.10171
2.96869
2.82505
2.94716
3.53331
4.34742
4.70514
4.66553
4.48102
4.25913
4.05266
3.8664
3.69485
3.53145
3.37787
3.23478
3.10166
2.97094
2.84559
2.72927
2.62695
2.52801
2.43764
2.35245
2.27401
2.19301
2.11556
2.04986
1.99548
1.94981
1.90934
1.89481
2.00072
2.34169
2.83095
3.16723
3.20328
3.18289
3.11629
3.04135
2.96492
2.89173
2.81409
2.71817
2.63623
2.56656
2.51638
2.47803
2.45282
2.43577
2.4405
2.50517
2.66564
2.88176
3.06691
3.21623
3.26997
3.27232
3.2513
3.19596
3.1042
3.02685
2.96945
2.9128
2.86445
2.82462
2.78481
2.74218
2.69705
2.65507
2.6214
2.59035
2.55137
2.49805
2.43644
2.38673
2.3537
2.32691
2.30283
2.28427
2.26919
2.24416
2.19001
2.12596
2.08759
2.06159
2.04415
2.01338
3.30899
3.2948
3.28571
3.28308
3.28662
3.27357
3.22345
3.12623
2.99107
2.81684
2.66795
2.48819
2.5125
2.82415
3.53678
4.1463
4.23625
4.12573
3.92022
3.71888
3.54393
3.39127
3.24991
3.11623
2.99177
2.87321
2.76371
2.66625
2.58126
2.48964
2.39803
2.31057
2.24106
2.16569
2.09867
2.03008
1.99812
1.97807
2.02572
2.26926
2.73098
3.18195
3.34824
3.33636
3.27671
3.19068
3.11209
3.0331
2.95148
2.87823
2.80678
2.72388
2.64714
2.57734
2.52902
2.48865
2.45274
2.41425
2.38358
2.3469
2.32428
2.37148
2.5223
2.76423
2.97846
3.15587
3.19763
3.18046
3.12218
3.01865
2.93848
2.88506
2.84692
2.81166
2.77954
2.74389
2.69869
2.65083
2.61164
2.57402
2.5256
2.46199
2.39685
2.3591
2.3389
2.31975
2.3013
2.28343
2.2625
2.22916
2.16759
2.09859