/*--------------------------------*- C++ -*----------------------------------*\
  =========                 |
  \\      /  F ield         | OpenFOAM: The Open Source CFD Toolbox
   \\    /   O peration     | Website:  https://openfoam.org
    \\  /    A nd           | Version:  7
     \\/     M anipulation  |
\*---------------------------------------------------------------------------*/
FoamFile
{
    version     2.0;
    format      ascii;
    class       volScalarField;
    location    "1.4";
    object      T;
}
// * * * * * * * * * * * * * * * * * * * * * * * * * * * * * * * * * * * * * //

dimensions      [0 0 0 1 0 0 0];

internalField   nonuniform List<scalar> 
4608
(
1
1
1
1
1
1
1
1
1
1
1
1
1
1
1
1
1
1
1
1
1
1
1
1
1
1
1
1
1
1
1
1
1
1
1
1
1
1
1
1
1
1
1
1
1
1
1
1
1
1
1
1
1
1
1
1
1
1
1
1
1
1
1
1
1
1
1
1
1
1
1
1
1
1
1
1
1
1
1
1
1
1
1
1
1
1
1
1
1
1
1
1
1
1
1
1
1
1
1
1
1
1
1
1
1
1
1
1
1
1
1
1
1
1
1
1
1
1
1
1
1
1
1
1
1
1
1
1
1
1
1
1
1
1
1
1
1
1
1
1
1
1
1
1
1
1
1
1
1
1
1
1
1
1
1
1
1
1
1
1
1
1
1
1
1
1
1
1
1
1
1
1
1
1
1
1
1
1
1
1
1
1
1
1
1
1
1
1
1
1
1
1
1
1
1
1
1
1
1
1
1
1
1
1
1
1
1
1
1
1
1
1
1
1
1
1
1
1
1
1
1
1
1
1
1
1
1
1
1
1
1
1
1
1
1
1
1
1
1
1
1
1
1
1
1
1
1
1
1
1
1
1
1
1
1
1
1
1
1
1
1
1
1
1
1
1
1
1
1
1
1
1
1
1
1
1
1
1
1
1
1
1
1
1
1
1
1
1
1
1
1
1
1
1
1
1
1
1
1
1
1
1
1
1
1
1
1
1
1
1
1
1
1
1
1
1
1
1
1
1
1
1
1
1
1
1
1
1
1
1
1
1
1
1
1
1
1
1
1
1
1
1
1
1
1
1
1
1
1
1
1
1
1
1
1
1
1
1
1
1
1
1
1
1
1
1
1
1
1
1
1
1
1
1
1
1
1
1
1
1
1
1
1
1
1
1
1
1
1
1
1
1
1
1
1
1
1
1
1
1
1
1
1
1
1
1
1
1
1
1
1
1
1
1
1
1
1
1
1
1
1
1
1
1
1
1
1
1
1
1
1
1
1
1
1
1
1
1
1
1
1
1
1
1
1
1
1
1
1
1
1
1
1
1
1
1
1
1
1
1
1
1
1
1
1
1
1
1
1
1
1
1
1
1
1
1
1
1
1
1
1
1
1
1
1
1
1
1
1
1
1
1
1
1
1
1
1
1
1
1
1
1
1
1
1
1
1
1
1
1
1
1
1
1
1
1
1
1
1
1
1
1
1
1
1
1
1
1
1
1
1
1
1
1
1
1
1
1
1
1
1
1
1
1
1
1
1
1
1
1
1
1
1
1
1
1
1
1
1
1
1
1
1
1
1
1
1
1
1
1
1
1
1
1
1
1
1
1
1
1
1
1
1
1
1
1
1
1
1
1
1
1
1
1
1
1
1
1
1
1
1
1
1
1
1
1
1
1
1
1
1
1
1
1
1
1
1
1
1
1
1
1
1
1
1
1
1
1
1
1
1
1
1
1
1
1
1
1
1
1
1
1
1
1
1
1
1
1
1
1
1
1
1
1
1
1
1
1
1
1
1
1
1
1
1
1
1
1
1
1
1
1
1
1
1
1
1
1
1
1
1
1
1
1
1
1
1
1
1
1
1
1
1
1
1
1
1
1
1
1
1
1
1
1
1
1
1
1
1
1
1
1
1
1
1
1
1
1
1
1
1
1
1
1
1
1
1
1
1
1
1
1
1
1
1
1
1
1
1
1
1
1
1
1
1
1
1
1
1
1
1
1
1
1
1
1
1
1
1
1
1
1
1
1
1
1
1
1
1.07831
1.18093
1.29004
1.39044
1.48728
1.57283
1.63382
1.68318
1.69969
1.6823
1.63636
1.58612
1.53922
1.52322
1.51385
1.51565
1.52028
1.52481
1.52796
1.53015
1.53241
1.53596
1.53897
1.54022
1.00101
1.00646
1.02729
1.07445
1.14289
1.23336
1.32035
1.40921
1.48081
1.52023
1.54457
1.56628
1.56243
1.55035
1.54125
1.53759
1.53539
1.53242
1.53184
1.53277
1.53498
1.53729
1.53979
1.54189
1
0.999991
1
1.00011
1.00118
1.00846
1.03718
1.11586
1.27057
1.45395
1.56551
1.62158
1.62192
1.61136
1.59199
1.56146
1.54965
1.54519
1.54015
1.54054
1.54198
1.54356
1.54552
1.54891
1
1
0.999999
0.999999
0.999995
1.00001
0.999979
1.00058
1.0135
1.10633
1.31181
1.48628
1.61742
1.61673
1.60531
1.595
1.5836
1.57464
1.56485
1.55688
1.55568
1.55628
1.55764
1.5608
1
1
1
1
1
1
0.999998
0.999997
0.999964
1.00039
1.01737
1.12226
1.35509
1.52433
1.61689
1.62835
1.62203
1.60687
1.59194
1.58045
1.57363
1.56965
1.57006
1.57218
1
1
1
1
1
1
1
1
0.999997
0.999997
0.999962
1.00101
1.02626
1.18474
1.40423
1.55966
1.59964
1.59856
1.59488
1.58711
1.58158
1.58088
1.57781
1.57833
1
1
1
1
1
1
1
1
1
1
0.999997
0.999998
0.99998
1.00451
1.05351
1.24981
1.45863
1.58934
1.6044
1.59882
1.59323
1.59089
1.5867
1.5824
1
1
1
1
1
1
1
1
1
1
1
1
0.999999
0.999987
1.00021
1.01475
1.11545
1.35192
1.51678
1.58887
1.59923
1.59809
1.59343
1.58665
1
1
1
1
1
1
1
1
1
1
1
1
1
0.999999
0.999998
1
1.00208
1.05128
1.22792
1.44855
1.53393
1.57666
1.58891
1.58599
1
1
1
1
1
1
1
1
1
1
1
1
1
1
1
1
0.999994
1.00057
1.01424
1.13834
1.34814
1.52411
1.57061
1.57782
1
1
1
1
1
1
1
1
1
1
1
1
1
1
1
1
0.999999
0.999997
1.00004
1.00565
1.07088
1.27829
1.45939
1.55284
1
1
1
1
1
1
1
1
1
1
1
1
1
1
1
1
1
0.999999
0.999999
1.00001
1.00155
1.03645
1.21255
1.42778
1
1
1
1
1
1
1
1
1
1
1
1
1
1
1
1
1
1
1
1
0.999999
1.00058
1.0234
1.15015
1
1
1
1
1
1
1
1
1
1
1
1
1
1
1
1
1
1
1
1
1
0.999999
1.00039
1.0089
1
1
1
1
1
1
1
1
1
1
1
1
1
1
1
1
1
1
1
1
1
1
1
0.999999
1
1
1
1
1
1
1
1
1
1
1
1
1
1
1
1
1
1
1
1
1
1
1
0.999998
1
1
1
1
1
1
1
1
1
1
1
1
1
1
1
1
1
1
1
1
1
1
1
0.999998
1
1
1
1
1
1
1
1
1
1
1
1
1
1
1
1
1
1
1
1
1
1
1
0.999999
1
1
1
1
1
1
1
1
1
1
1
1
1
1
1
1
1
1
1
1
1
0.999999
1.00039
1.0089
1
1
1
1
1
1
1
1
1
1
1
1
1
1
1
1
1
1
1
1
0.999999
1.00058
1.0234
1.15015
1
1
1
1
1
1
1
1
1
1
1
1
1
1
1
1
1
0.999999
0.999999
1.00001
1.00155
1.03645
1.21255
1.42778
1
1
1
1
1
1
1
1
1
1
1
1
1
1
1
1
0.999999
0.999997
1.00004
1.00565
1.07088
1.27829
1.45939
1.55284
1
1
1
1
1
1
1
1
1
1
1
1
1
1
1
1
0.999994
1.00057
1.01424
1.13834
1.34814
1.52411
1.57061
1.57782
1
1
1
1
1
1
1
1
1
1
1
1
1
0.999999
0.999998
1
1.00208
1.05128
1.22792
1.44855
1.53393
1.57666
1.58891
1.58599
1
1
1
1
1
1
1
1
1
1
1
1
0.999999
0.999987
1.00021
1.01475
1.11545
1.35192
1.51678
1.58887
1.59923
1.59809
1.59343
1.58665
1
1
1
1
1
1
1
1
1
1
0.999997
0.999998
0.99998
1.00451
1.05351
1.24981
1.45863
1.58934
1.6044
1.59882
1.59323
1.59089
1.5867
1.5824
1
1
1
1
1
1
1
1
0.999997
0.999997
0.999962
1.00101
1.02626
1.18474
1.40423
1.55966
1.59964
1.59856
1.59488
1.58711
1.58158
1.58088
1.57781
1.57833
1
1
1
1
1
1
0.999998
0.999997
0.999964
1.00039
1.01737
1.12226
1.35509
1.52433
1.61689
1.62835
1.62203
1.60687
1.59194
1.58045
1.57363
1.56965
1.57006
1.57218
1
1
0.999999
0.999999
0.999995
1.00001
0.999979
1.00058
1.0135
1.10633
1.31181
1.48628
1.61742
1.61673
1.60531
1.595
1.5836
1.57464
1.56485
1.55688
1.55568
1.55628
1.55764
1.5608
1
0.999991
1
1.00011
1.00118
1.00846
1.03718
1.11586
1.27057
1.45395
1.56551
1.62158
1.62192
1.61136
1.59199
1.56146
1.54965
1.54519
1.54015
1.54054
1.54198
1.54356
1.54552
1.54891
1.00101
1.00646
1.02729
1.07445
1.14289
1.23336
1.32035
1.40921
1.48081
1.52023
1.54457
1.56628
1.56243
1.55035
1.54125
1.53759
1.53539
1.53242
1.53184
1.53277
1.53498
1.53729
1.53979
1.54189
1.07831
1.18093
1.29004
1.39044
1.48728
1.57283
1.63382
1.68318
1.69969
1.6823
1.63636
1.58612
1.53922
1.52322
1.51385
1.51565
1.52028
1.52481
1.52796
1.53015
1.53241
1.53596
1.53897
1.54022
1.3978
1.23885
1.08931
0.997908
1.00623
1.00982
0.998716
1.00159
1.03404
1.0733
1.08374
1.08533
1.08997
1.10006
1.10591
1.10757
1.11534
1.11627
1.11454
1.1105
1.10737
1.1063
1.1087
1.13713
1.25991
1.50918
1.75738
1.97712
2.13633
2.18419
2.14041
2.05882
1.99572
1.96031
1.94303
1.92753
1.91049
1.8932
1.87413
1.85204
1.82793
1.80405
1.78154
1.76121
1.74318
1.72628
1.70919
1.69185
1.67474
1.65805
1.64118
1.62365
1.60605
1.58923
1.5738
1.55963
1.54667
1.53437
1.52269
1.51116
1.49919
1.48606
1.47185
1.45685
1.44084
1.42502
1.41299
1.40558
1.39885
1.39164
1.3832
1.3727
1.35831
1.34279
1.33196
1.32269
1.31836
1.31634
1.32043
1.33401
1.3679
1.41761
1.46791
1.52559
1.5718
1.6084
1.63806
1.66188
1.6876
1.70024
1.69816
1.69331
1.68491
1.67195
1.65331
1.62052
1.49425
1.41627
1.32918
1.22323
1.1751
1.15014
1.10103
1.06428
1.0701
1.06817
1.05176
1.05155
1.05159
1.05645
1.06489
1.0752
1.08431
1.08827
1.0877
1.08747
1.08641
1.09004
1.12464
1.29687
1.48395
1.5559
1.6307
1.72383
1.86585
1.97864
2.04636
2.03902
2.00911
1.97695
1.95104
1.93077
1.91489
1.89927
1.88099
1.85871
1.83436
1.81106
1.78978
1.7707
1.75327
1.73613
1.71844
1.70063
1.68345
1.66669
1.64963
1.63209
1.61479
1.59858
1.58373
1.56992
1.55671
1.54384
1.53143
1.5194
1.50715
1.49387
1.47951
1.46527
1.45102
1.43651
1.42317
1.41333
1.40541
1.39781
1.38991
1.38082
1.36964
1.35373
1.34056
1.33405
1.33682
1.34756
1.3756
1.41499
1.45548
1.47862
1.49745
1.51253
1.53126
1.55101
1.56744
1.58337
1.60291
1.61732
1.62466
1.63101
1.63321
1.63181
1.63167
1.62309
1.53573
1.49401
1.43312
1.3537
1.27154
1.2242
1.179
1.1172
1.07898
1.0676
1.05423
1.03859
1.03434
1.03568
1.04436
1.05297
1.055
1.05736
1.06035
1.06329
1.06847
1.10982
1.30485
1.50256
1.57828
1.58592
1.58552
1.58962
1.62956
1.77042
1.94079
2.02921
2.02829
2.00502
1.96136
1.92902
1.90823
1.89004
1.86972
1.84668
1.82321
1.8016
1.78165
1.763
1.74539
1.7279
1.71035
1.69285
1.6753
1.65776
1.64015
1.62271
1.6062
1.59123
1.57739
1.56385
1.55025
1.53645
1.52225
1.50833
1.4954
1.48315
1.47022
1.45655
1.44322
1.42998
1.4169
1.40431
1.39488
1.3883
1.38211
1.37511
1.36818
1.35864
1.35424
1.36121
1.38598
1.42289
1.46415
1.49517
1.51988
1.52129
1.51958
1.51181
1.49744
1.49334
1.49531
1.50474
1.52507
1.55119
1.57274
1.59413
1.60836
1.61376
1.61979
1.61887
1.55725
1.53895
1.49884
1.44467
1.3685
1.30298
1.26657
1.21822
1.14727
1.12061
1.1108
1.09116
1.05963
1.04736
1.05152
1.05251
1.04405
1.04059
1.04244
1.04877
1.10523
1.29963
1.52326
1.57021
1.57883
1.57942
1.57199
1.55549
1.54577
1.5646
1.66697
1.85308
1.98169
1.97888
1.966
1.9401
1.91512
1.88983
1.86524
1.84443
1.82674
1.80685
1.78465
1.76258
1.74267
1.72513
1.70896
1.69298
1.676
1.65802
1.64028
1.62305
1.60649
1.59138
1.57769
1.56422
1.55036
1.53665
1.52252
1.50765
1.4933
1.47988
1.46824
1.45586
1.44271
1.43011
1.41836
1.40592
1.39495
1.38867
1.38469
1.37965
1.38036
1.39483
1.42306
1.46071
1.49356
1.5169
1.53753
1.54359
1.54265
1.53724
1.52665
1.51214
1.49822
1.48735
1.48275
1.48102
1.48108
1.48255
1.48862
1.50003
1.51748
1.53571
1.55547
1.5806
1.5695
1.56366
1.54182
1.50394
1.45288
1.38201
1.33036
1.29804
1.25216
1.18115
1.14911
1.13868
1.12065
1.09077
1.06845
1.05775
1.04405
1.04118
1.04829
1.13007
1.32443
1.52723
1.58563
1.57766
1.56281
1.55558
1.54883
1.53377
1.52385
1.51225
1.51592
1.5702
1.73713
1.88681
1.94822
1.9449
1.92659
1.89524
1.86724
1.8437
1.82201
1.80078
1.77978
1.7591
1.73961
1.72164
1.70561
1.69144
1.67712
1.65975
1.63897
1.61857
1.60092
1.58561
1.57271
1.5616
1.54975
1.53631
1.52393
1.51214
1.49842
1.48167
1.46546
1.45605
1.44755
1.43772
1.42667
1.41406
1.40145
1.3932
1.39598
1.41536
1.45048
1.4978
1.53248
1.56153
1.5671
1.5629
1.55686
1.55314
1.54542
1.53455
1.52653
1.51923
1.50872
1.49594
1.4857
1.47908
1.47291
1.46638
1.45886
1.4507
1.45076
1.45673
1.46958
1.51008
1.57657
1.5725
1.56589
1.54363
1.50819
1.46073
1.39602
1.35265
1.32611
1.28181
1.21394
1.18435
1.17718
1.15755
1.12487
1.09611
1.08019
1.09093
1.18279
1.39238
1.55132
1.60048
1.59365
1.57275
1.55051
1.53968
1.53032
1.51526
1.50313
1.49059
1.47574
1.4628
1.48693
1.60636
1.77493
1.89235
1.89592
1.88731
1.86588
1.84272
1.81829
1.79515
1.77416
1.75502
1.73758
1.72157
1.70661
1.69221
1.67701
1.65885
1.6371
1.6156
1.59793
1.5844
1.57267
1.56082
1.54861
1.53613
1.52177
1.50538
1.49046
1.47883
1.46751
1.45294
1.43938
1.43107
1.42524
1.41925
1.42121
1.43531
1.46876
1.5136
1.55815
1.59304
1.59573
1.59671
1.59407
1.58593
1.57424
1.56344
1.55364
1.54195
1.52652
1.5117
1.50195
1.49539
1.48877
1.48127
1.47312
1.46533
1.45607
1.44575
1.43271
1.42737
1.42664
1.43709
1.58127
1.57947
1.57539
1.56854
1.54683
1.51374
1.46847
1.41287
1.37728
1.34599
1.29581
1.24853
1.22736
1.20251
1.17254
1.14474
1.15849
1.27444
1.48594
1.61873
1.6407
1.62558
1.59764
1.57047
1.55072
1.53825
1.52397
1.50569
1.48899
1.47447
1.4565
1.44194
1.42661
1.43164
1.49514
1.65339
1.79763
1.85846
1.85067
1.8344
1.80998
1.78578
1.76599
1.75057
1.73663
1.72149
1.70393
1.68475
1.66661
1.65045
1.63481
1.61856
1.60138
1.58484
1.571
1.55842
1.54513
1.53108
1.51705
1.50375
1.49076
1.47726
1.46224
1.45088
1.4423
1.43591
1.44114
1.46341
1.50317
1.55164
1.58842
1.60433
1.61847
1.61814
1.61204
1.60747
1.60115
1.59054
1.57596
1.56309
1.55136
1.53712
1.5215
1.50871
1.49984
1.4943
1.48985
1.48514
1.47914
1.47109
1.45775
1.44065
1.42779
1.42147
1.419
1.41547
1.58358
1.58277
1.58103
1.57771
1.56985
1.55031
1.51998
1.47586
1.43136
1.39905
1.35888
1.31308
1.27659
1.25119
1.22444
1.25291
1.39902
1.59498
1.69968
1.69655
1.67304
1.63976
1.60812
1.5811
1.56002
1.54219
1.52234
1.50219
1.48347
1.46627
1.44493
1.42759
1.41261
1.40225
1.39147
1.41365
1.52253
1.67671
1.77546
1.79218
1.79125
1.78096
1.76444
1.74845
1.73251
1.71597
1.69671
1.67579
1.65667
1.64098
1.62594
1.61078
1.59583
1.58044
1.56627
1.55421
1.54273
1.53095
1.5178
1.50261
1.48633
1.47212
1.46185
1.45446
1.45948
1.48247
1.53486
1.58832
1.62869
1.64344
1.64983
1.64638
1.64265
1.63604
1.6273
1.6146
1.60065
1.58736
1.5743
1.56294
1.55107
1.53438
1.51722
1.50825
1.50203
1.49594
1.49091
1.48669
1.48224
1.47418
1.45618
1.43685
1.42571
1.41985
1.4172
1.41143
1.5816
1.58138
1.58178
1.58209
1.58042
1.57163
1.55354
1.52389
1.48475
1.44528
1.41206
1.37042
1.32804
1.31402
1.36998
1.54269
1.71505
1.77066
1.75885
1.72538
1.68894
1.65669
1.62715
1.59988
1.5756
1.55299
1.52973
1.50664
1.48472
1.46335
1.44064
1.42025
1.40417
1.3865
1.37292
1.35894
1.36181
1.41152
1.53969
1.66551
1.73562
1.76161
1.75855
1.74439
1.72489
1.70532
1.68639
1.66652
1.64817
1.63259
1.61674
1.60124
1.5873
1.57384
1.56094
1.54972
1.53899
1.52732
1.51468
1.50039
1.48973
1.47496
1.47555
1.49877
1.54687
1.61307
1.66778
1.6819
1.67765
1.66553
1.65374
1.6477
1.6403
1.63123
1.62188
1.61212
1.59974
1.5867
1.57442
1.56254
1.54908
1.53288
1.51645
1.50826
1.50342
1.49869
1.49438
1.4898
1.48318
1.47205
1.45326
1.43554
1.42458
1.41843
1.41553
1.40848
1.57636
1.57597
1.57701
1.57877
1.57981
1.57764
1.56846
1.54961
1.52249
1.48572
1.4523
1.41053
1.42007
1.51879
1.69848
1.83495
1.84796
1.82661
1.78683
1.74654
1.71044
1.67812
1.64763
1.61817
1.58996
1.56234
1.53597
1.51158
1.48972
1.46698
1.44425
1.42127
1.40174
1.3808
1.36186
1.34339
1.33397
1.32796
1.34325
1.42473
1.55503
1.66697
1.71282
1.71153
1.70263
1.68895
1.67331
1.65534
1.63784
1.6237
1.60962
1.5919
1.57449
1.55959
1.54995
1.54125
1.53263
1.52286
1.51499
1.50427
1.50159
1.51697
1.56083
1.62369
1.67386
1.71406
1.71941
1.7161
1.70278
1.67654
1.65276
1.63964
1.63158
1.62347
1.61567
1.60803
1.5973
1.58562
1.5747
1.56252
1.54778
1.53271
1.5188
1.50813
1.50201
1.49722
1.4926
1.48746
1.48003
1.46842
1.45158
1.43556
1.4255
1.4193
1.41545
1.40726
1.58215
1.58199
1.57685
1.57623
1.5779
1.5784
1.57491
1.56529
1.5436
1.51728
1.48902
1.52679
1.68417
1.85739
1.92106
1.91323
1.87995
1.83859
1.79861
1.76161
1.72698
1.69363
1.66175
1.63132
1.60219
1.57294
1.54398
1.5156
1.48974
1.46562
1.44437
1.42365
1.40344
1.38118
1.35897
1.3414
1.32806
1.31606
1.30217
1.30109
1.3383
1.44486
1.58329
1.65452
1.67133
1.67029
1.66049
1.64665
1.63091
1.61642
1.60069
1.58067
1.56288
1.54741
1.53727
1.53013
1.52525
1.52144
1.52332
1.54091
1.58603
1.64333
1.68432
1.71534
1.72368
1.72385
1.71872
1.70982
1.69133
1.66907
1.65104
1.63682
1.62567
1.61614
1.60863
1.60134
1.5921
1.58178
1.57196
1.56072
1.5469
1.53252
1.51961
1.50854
1.50007
1.49385
1.48878
1.48416
1.47958
1.47108
1.45527
1.43814
1.42736
1.4206
1.41521
1.40553
1.55276
1.55311
1.55409
1.56294
1.57356
1.5783
1.57577
1.56922
1.5558
1.55965
1.65756
1.8398
1.98036
2.01119
1.99234
1.94402
1.89333
1.84796
1.80772
1.77105
1.73672
1.70366
1.6714
1.63963
1.60893
1.57913
1.55068
1.52384
1.49836
1.47203
1.44558
1.42105
1.39815
1.37715
1.35793
1.34319
1.32896
1.31312
1.29711
1.28675
1.27297
1.28158
1.35331
1.48277
1.57478
1.62259
1.63448
1.63014
1.61443
1.59458
1.57813
1.56334
1.54944
1.5363
1.52857
1.52906
1.53478
1.55734
1.60306
1.65953
1.71459
1.73594
1.74497
1.74677
1.74191
1.7287
1.71121
1.69564
1.67724
1.65721
1.64303
1.63122
1.62089
1.6121
1.60434
1.59628
1.58685
1.57607
1.56564
1.55496
1.54275
1.52951
1.51746
1.50755
1.49893
1.49185
1.48681
1.48139
1.47282
1.46073
1.44892
1.43769
1.42856
1.42176
1.41612
1.40553
1.39864
1.50366
1.54714
1.56783
1.57303
1.57054
1.56878
1.57097
1.60808
1.77488
1.99237
2.04776
2.0418
2.02476
1.99243
1.95228
1.90587
1.85861
1.81503
1.77648
1.74226
1.71042
1.67896
1.64686
1.6144
1.5821
1.55067
1.52168
1.49764
1.4772
1.45453
1.42989
1.40707
1.38365
1.35789
1.33774
1.32553
1.31627
1.30487
1.2901
1.27251
1.25253
1.24944
1.28075
1.37387
1.48333
1.57447
1.60326
1.60136
1.58605
1.56233
1.54337
1.53317
1.53158
1.53833
1.56527
1.62579
1.69188
1.74174
1.75797
1.75113
1.74568
1.74027
1.73597
1.73027
1.7234
1.70958
1.68951
1.66859
1.6492
1.63497
1.6244
1.616
1.60932
1.6026
1.59438
1.5842
1.57231
1.56029
1.54833
1.5355
1.52344
1.51302
1.50384
1.4975
1.49378
1.49003
1.48279
1.46888
1.45308
1.4429
1.43548
1.42877
1.42288
1.41658
1.40484
1.12496
1.34222
1.484
1.55312
1.5574
1.55738
1.58221
1.68054
1.86992
2.05716
2.13112
2.1185
2.0706
2.02126
1.98664
1.95273
1.91376
1.87054
1.82657
1.78503
1.74682
1.71186
1.67953
1.64898
1.61897
1.58926
1.56032
1.53236
1.50384
1.47598
1.45339
1.43566
1.41407
1.38862
1.36469
1.34795
1.33276
1.31409
1.29121
1.27438
1.26376
1.24851
1.2386
1.22838
1.23548
1.28602
1.39898
1.50655
1.56417
1.56381
1.5524
1.5395
1.54404
1.56336
1.6183
1.6928
1.76241
1.79863
1.80346
1.79752
1.77822
1.75459
1.73804
1.7263
1.71638
1.70533
1.69407
1.6795
1.66289
1.64746
1.63355
1.62272
1.61358
1.60564
1.59807
1.589
1.57849
1.56716
1.55574
1.54369
1.53001
1.51855
1.51102
1.50477
1.49887
1.49188
1.48209
1.47189
1.46033
1.44754
1.43911
1.43285
1.42737
1.42336
1.41906
1.40713
1.00896
1.09574
1.27579
1.45623
1.51886
1.63073
1.79579
1.96248
2.07199
2.11615
2.11571
2.10531
2.07879
2.03637
1.99427
1.95434
1.91542
1.87694
1.83755
1.79696
1.75608
1.71689
1.68063
1.64778
1.618
1.59065
1.56455
1.5387
1.51407
1.49069
1.46488
1.43245
1.40408
1.3928
1.38567
1.3725
1.35229
1.32673
1.29635
1.27247
1.26567
1.26073
1.25147
1.2383
1.21435
1.20203
1.22888
1.31572
1.43402
1.50739
1.53001
1.59251
1.66695
1.70752
1.75327
1.79214
1.80426
1.80507
1.79735
1.78615
1.77417
1.76141
1.74655
1.73191
1.7136
1.69623
1.68216
1.67277
1.66355
1.65207
1.63802
1.62646
1.61774
1.6093
1.59981
1.58997
1.58028
1.57043
1.56003
1.5482
1.53541
1.52578
1.51874
1.51243
1.50575
1.49672
1.48141
1.46425
1.45659
1.451
1.44564
1.44076
1.43582
1.43158
1.42697
1.41348
1.00017
1.00543
1.05835
1.24551
1.5472
1.80722
1.99614
2.1132
2.17389
2.15055
2.10964
2.09246
2.0759
2.04603
2.00276
1.95695
1.91531
1.87797
1.84122
1.80157
1.75875
1.71667
1.67897
1.6466
1.6183
1.59257
1.56752
1.54106
1.51156
1.47927
1.44738
1.42335
1.41035
1.39755
1.379
1.35863
1.33505
1.30749
1.28617
1.27582
1.26665
1.25412
1.24005
1.22379
1.20363
1.18393
1.1826
1.19549
1.26079
1.4041
1.55273
1.68943
1.77999
1.81229
1.83602
1.85151
1.84124
1.81834
1.79339
1.77054
1.75717
1.75125
1.74551
1.73542
1.71785
1.69718
1.67659
1.66026
1.6511
1.64412
1.63872
1.63134
1.61927
1.60549
1.59363
1.58318
1.57312
1.56262
1.55129
1.53951
1.52905
1.52145
1.51495
1.50838
1.50155
1.49338
1.47949
1.46078
1.45004
1.44473
1.44007
1.43565
1.43168
1.42742
1.42283
1.40979
1.00017
1.00542
1.0584
1.24523
1.5476
1.80747
1.99597
2.11311
2.1739
2.15045
2.10957
2.09243
2.07595
2.04611
2.00286
1.95706
1.91541
1.87804
1.84121
1.80149
1.75866
1.7166
1.67894
1.64659
1.61835
1.59269
1.56774
1.54145
1.51197
1.47953
1.44745
1.42363
1.41067
1.39786
1.37918
1.35864
1.33501
1.30749
1.28594
1.27568
1.26645
1.25406
1.2401
1.22377
1.20365
1.18391
1.18242
1.19572
1.26117
1.38489
1.57047
1.68091
1.75985
1.81854
1.84813
1.85008
1.84386
1.82516
1.79892
1.77172
1.75439
1.74934
1.74307
1.73334
1.71854
1.69858
1.67758
1.66066
1.65144
1.64544
1.6383
1.62861
1.61694
1.6049
1.59377
1.58335
1.57345
1.56313
1.55131
1.53885
1.52857
1.52113
1.51484
1.50856
1.50141
1.49283
1.47893
1.46118
1.4508
1.44493
1.44018
1.43557
1.43168
1.4277
1.42301
1.40942
1.00896
1.09571
1.27584
1.45598
1.51911
1.63092
1.79552
1.96229
2.072
2.11611
2.11573
2.10537
2.07884
2.03642
1.99431
1.95439
1.91546
1.87698
1.8376
1.79701
1.75612
1.71693
1.68067
1.64781
1.61799
1.59054
1.56437
1.53874
1.51472
1.49113
1.46552
1.43348
1.40415
1.39224
1.38533
1.37235
1.35225
1.32594
1.29423
1.27275
1.26715
1.26177
1.25188
1.23817
1.21375
1.20281
1.22558
1.32126
1.43121
1.49772
1.54578
1.58787
1.64035
1.7174
1.76817
1.79356
1.80634
1.80579
1.80067
1.78419
1.76726
1.75456
1.74248
1.73237
1.72027
1.70519
1.69049
1.67558
1.66223
1.64972
1.63812
1.6288
1.62021
1.61112
1.60146
1.59124
1.58129
1.57065
1.55838
1.54576
1.53491
1.52641
1.51953
1.51323
1.50569
1.49427
1.47835
1.46442
1.45814
1.45196
1.44607
1.4411
1.43696
1.43264
1.42709
1.41259
1.12496
1.34223
1.48401
1.5531
1.55741
1.55737
1.58213
1.68047
1.87003
2.05719
2.13114
2.11855
2.07066
2.02131
1.98667
1.95275
1.91376
1.87052
1.82654
1.785
1.74679
1.71183
1.67951
1.64896
1.61898
1.58935
1.56044
1.53244
1.50382
1.47609
1.45293
1.43505
1.41382
1.38872
1.36483
1.34804
1.33269
1.31343
1.29027
1.27474
1.26399
1.24868
1.23861
1.22822
1.23544
1.28762
1.39348
1.51653
1.55894
1.55967
1.55389
1.53996
1.54119
1.5686
1.62746
1.69366
1.75678
1.79445
1.80388
1.79408
1.77165
1.74925
1.73559
1.72747
1.71897
1.71101
1.69896
1.68049
1.66037
1.64389
1.63108
1.6213
1.614
1.60709
1.59844
1.58824
1.57786
1.5668
1.55452
1.54188
1.52998
1.51981
1.51204
1.5059
1.49985
1.49142
1.47963
1.47016
1.46077
1.4503
1.44073
1.43358
1.42853
1.42439
1.41976
1.40814
1.39863
1.50367
1.54714
1.56783
1.57303
1.57054
1.56878
1.57096
1.60812
1.77492
1.99237
2.04777
2.04182
2.02477
1.99243
1.95226
1.90583
1.85855
1.81498
1.77645
1.74224
1.71041
1.67896
1.64689
1.61446
1.58219
1.55072
1.52163
1.49742
1.47703
1.45464
1.43018
1.40712
1.3836
1.35784
1.33772
1.32552
1.31628
1.30502
1.29014
1.27245
1.25246
1.24935
1.27985
1.37703
1.48184
1.57203
1.60391
1.60225
1.58844
1.56573
1.54588
1.53195
1.53162
1.53937
1.56648
1.61926
1.68622
1.73834
1.75384
1.74847
1.74578
1.7437
1.74138
1.73284
1.72351
1.70839
1.68599
1.66195
1.64553
1.63486
1.62569
1.61823
1.61103
1.60183
1.59157
1.58117
1.56972
1.55735
1.54551
1.53487
1.52536
1.51584
1.50589
1.49804
1.49284
1.48786
1.48018
1.46837
1.4559
1.44469
1.43589
1.42914
1.42315
1.41796
1.40802
1.55276
1.55311
1.55409
1.56294
1.57356
1.5783
1.57577
1.56922
1.5558
1.55965
1.65755
1.8398
1.98035
2.01119
1.99234
1.94399
1.8933
1.84792
1.80769
1.77103
1.73672
1.70368
1.67143
1.63969
1.60897
1.57912
1.55064
1.5238
1.49838
1.47207
1.44563
1.42103
1.39809
1.37708
1.35783
1.34305
1.32883
1.31309
1.29737
1.28692
1.27299
1.28166
1.35217
1.48338
1.57767
1.62081
1.63336
1.62979
1.61499
1.59511
1.57848
1.56334
1.54904
1.53674
1.52844
1.5285
1.53311
1.55546
1.60231
1.65913
1.71255
1.73882
1.75253
1.7525
1.74559
1.72956
1.71139
1.69307
1.67173
1.65523
1.64437
1.6334
1.62308
1.61445
1.60512
1.59494
1.58433
1.5736
1.56296
1.55336
1.54439
1.53313
1.51966
1.50742
1.49796
1.49086
1.48558
1.48059
1.47422
1.46381
1.44932
1.43679
1.42846
1.42183
1.41642
1.40542
1.58215
1.58199
1.57685
1.57623
1.5779
1.5784
1.57491
1.56529
1.5436
1.51728
1.48902
1.52678
1.68414
1.85735
1.92103
1.91322
1.87993
1.83857
1.7986
1.76161
1.72699
1.69366
1.66179
1.63135
1.60219
1.57293
1.54397
1.51558
1.48974
1.46562
1.44436
1.42361
1.40339
1.38112
1.35893
1.34136
1.32805
1.31614
1.30245
1.30101
1.33839
1.44596
1.57994
1.6566
1.67253
1.67012
1.65915
1.64512
1.62985
1.61554
1.60045
1.58044
1.56275
1.54766
1.53764
1.53028
1.52494
1.52134
1.52339
1.54156
1.58718
1.64441
1.68711
1.71966
1.72296
1.7228
1.7181
1.70715
1.68753
1.66861
1.65341
1.63901
1.62707
1.61782
1.60902
1.59968
1.58942
1.57923
1.57028
1.56133
1.55029
1.53582
1.51958
1.5066
1.49841
1.49253
1.48785
1.48456
1.48144
1.47375
1.45645
1.43694
1.42553
1.41817
1.41345
1.40428
1.57636
1.57597
1.57701
1.57877
1.57981
1.57764
1.56846
1.54961
1.52249
1.48572
1.4523
1.41053
1.42007
1.51877
1.69847
1.83495
1.84796
1.82661
1.78684
1.74656
1.71046
1.67814
1.64765
1.61817
1.58995
1.56232
1.53595
1.51155
1.48972
1.467
1.44424
1.42124
1.40172
1.38077
1.36182
1.34336
1.33401
1.32804
1.34342
1.42418
1.55568
1.66674
1.71203
1.712
1.70297
1.688
1.67281
1.65593
1.63844
1.62359
1.60923
1.59163
1.57465
1.55935
1.54942
1.54088
1.5325
1.52293
1.51517
1.50449
1.50086
1.5159
1.5592
1.62196
1.67076
1.7107
1.71735
1.71422
1.70205
1.67781
1.65638
1.64215
1.63201
1.62299
1.61497
1.60658
1.5962
1.58502
1.57485
1.56407
1.55077
1.53431
1.51703
1.50651
1.50106
1.49626
1.49197
1.48787
1.4824
1.47278
1.45475
1.43408
1.42317
1.41618
1.41251
1.40471
1.5816
1.58138
1.58178
1.58209
1.58042
1.57163
1.55354
1.52389
1.48474
1.44528
1.41206
1.37042
1.32803
1.31403
1.36999
1.54271
1.71507
1.77067
1.75886
1.72539
1.68895
1.6567
1.62715
1.59987
1.57558
1.55297
1.52971
1.50662
1.48472
1.46336
1.44064
1.42023
1.40416
1.3865
1.37293
1.35896
1.36183
1.4116
1.53961
1.66537
1.73608
1.76156
1.75853
1.74412
1.72498
1.70565
1.68678
1.66694
1.6484
1.63268
1.6167
1.60103
1.58693
1.57331
1.5607
1.54976
1.53912
1.52737
1.51466
1.50038
1.48936
1.47437
1.47462
1.49606
1.54558
1.6088
1.66908
1.68428
1.67876
1.6643
1.65454
1.64882
1.63991
1.62917
1.62002
1.61148
1.60051
1.58771
1.57554
1.56457
1.55199
1.53274
1.51415
1.50741
1.50285
1.49831
1.49392
1.48989
1.48504
1.47565
1.45595
1.43483
1.42472
1.41745
1.41329
1.40615
1.58358
1.58277
1.58103
1.57771
1.56985
1.55031
1.51998
1.47586
1.43136
1.39905
1.35888
1.31308
1.27659
1.25119
1.22444
1.25293
1.39905
1.595
1.69969
1.69656
1.67304
1.63975
1.60812
1.58109
1.56
1.54218
1.52232
1.50217
1.48347
1.46628
1.44493
1.42761
1.41264
1.40228
1.39149
1.41367
1.52238
1.67713
1.77501
1.79242
1.79126
1.78073
1.76435
1.74847
1.73266
1.71612
1.6968
1.67589
1.65673
1.64099
1.62597
1.61083
1.59571
1.58036
1.56646
1.55448
1.543
1.53112
1.51777
1.50225
1.48587
1.47184
1.46188
1.45416
1.45921
1.48213
1.53702
1.59078
1.63192
1.64385
1.65026
1.64774
1.64246
1.63356
1.62265
1.6115
1.60018
1.58863
1.57664
1.56497
1.55196
1.53345
1.51521
1.50823
1.50304
1.49776
1.49237
1.48723
1.48195
1.47382
1.45655
1.43672
1.42688
1.42006
1.41535
1.40887
1.58127
1.57947
1.57539
1.56854
1.54683
1.51374
1.46847
1.41287
1.37728
1.34599
1.29581
1.24853
1.22736
1.20251
1.17254
1.14474
1.15849
1.27445
1.48594
1.61873
1.64069
1.62557
1.59764
1.57046
1.55071
1.53825
1.52396
1.50568
1.48899
1.47449
1.45652
1.44197
1.42664
1.43166
1.4952
1.65327
1.79767
1.85863
1.85061
1.83445
1.81005
1.78582
1.766
1.75068
1.73669
1.72142
1.70384
1.68472
1.66653
1.65039
1.63487
1.61869
1.60153
1.58514
1.57129
1.55846
1.54497
1.53104
1.51708
1.50355
1.4905
1.47698
1.46208
1.45075
1.44226
1.43582
1.4412
1.46431
1.50409
1.55094
1.58578
1.60773
1.61877
1.61858
1.61367
1.60494
1.59752
1.58963
1.57787
1.56416
1.5505
1.53503
1.51895
1.50884
1.50189
1.49628
1.49206
1.48768
1.48114
1.47056
1.45483
1.43888
1.42969
1.42381
1.41914
1.41446
1.57657
1.5725
1.56589
1.54363
1.50819
1.46073
1.39602
1.35265
1.32611
1.28181
1.21394
1.18436
1.17718
1.15755
1.12487
1.09611
1.08019
1.09093
1.18278
1.39237
1.55132
1.60047
1.59364
1.57274
1.5505
1.53968
1.53032
1.51526
1.50314
1.49061
1.47576
1.46281
1.48694
1.60634
1.77504
1.89223
1.896
1.88728
1.8658
1.84272
1.81835
1.7952
1.77414
1.75502
1.73755
1.72151
1.70653
1.69211
1.67692
1.65882
1.63716
1.61569
1.59808
1.58466
1.57291
1.56076
1.54828
1.53592
1.52175
1.50519
1.49054
1.47919
1.46777
1.45309
1.43938
1.43097
1.42495
1.41899
1.42048
1.43519
1.46699
1.5128
1.55505
1.59274
1.60053
1.59896
1.59414
1.5855
1.57329
1.56035
1.54856
1.53679
1.52332
1.51148
1.50222
1.49578
1.49054
1.48431
1.47545
1.46383
1.45093
1.44155
1.43424
1.43005
1.42807
1.43744
1.5695
1.56366
1.54182
1.50394
1.45288
1.38201
1.33036
1.29804
1.25216
1.18115
1.14911
1.13868
1.12065
1.09077
1.06845
1.05775
1.04405
1.04118
1.04829
1.13006
1.32441
1.52723
1.58563
1.57765
1.56281
1.55559
1.54884
1.53377
1.52386
1.51226
1.51593
1.57022
1.73709
1.88684
1.94825
1.94488
1.92641
1.89504
1.86716
1.84369
1.82206
1.80078
1.77975
1.75907
1.73957
1.72159
1.70558
1.69143
1.67714
1.65974
1.63896
1.61863
1.60105
1.58566
1.57273
1.56186
1.55028
1.53657
1.52355
1.51184
1.49841
1.48187
1.4656
1.45606
1.44752
1.43759
1.42632
1.4138
1.40139
1.39309
1.39577
1.41503
1.45099
1.49894
1.53434
1.56071
1.57074
1.56697
1.55726
1.55222
1.54614
1.53656
1.52478
1.5126
1.50234
1.4931
1.48499
1.47867
1.47284
1.46436
1.45486
1.44839
1.45001
1.45702
1.47035
1.51001
1.55725
1.53895
1.49884
1.44467
1.3685
1.30298
1.26657
1.21822
1.14727
1.12061
1.1108
1.09116
1.05963
1.04736
1.05152
1.05251
1.04405
1.04059
1.04244
1.04877
1.10522
1.29963
1.52326
1.57021
1.57882
1.57944
1.572
1.5555
1.54578
1.56462
1.66699
1.85307
1.98167
1.97889
1.966
1.94006
1.91508
1.88983
1.86526
1.84445
1.82677
1.80686
1.78464
1.76259
1.74271
1.72517
1.709
1.69299
1.67597
1.65794
1.64023
1.62306
1.60655
1.59147
1.57784
1.56433
1.55029
1.53647
1.52248
1.50772
1.49343
1.48001
1.46833
1.45592
1.4427
1.42998
1.41825
1.40597
1.39491
1.38853
1.3847
1.37971
1.38084
1.39534
1.42579
1.46061
1.4947
1.51827
1.53333
1.54093
1.54127
1.53883
1.53245
1.51924
1.50294
1.48771
1.48042
1.47741
1.47734
1.48306
1.49198
1.50243
1.51739
1.53697
1.55681
1.57991
1.53573
1.49401
1.43312
1.3537
1.27154
1.2242
1.179
1.1172
1.07898
1.0676
1.05423
1.03859
1.03434
1.03568
1.04436
1.05297
1.055
1.05736
1.06035
1.06329
1.06847
1.10982
1.30486
1.50257
1.57827
1.58592
1.58554
1.58963
1.62956
1.77041
1.94082
2.02919
2.02827
2.00501
1.96136
1.929
1.90823
1.89007
1.86974
1.84671
1.82323
1.8016
1.78164
1.76302
1.74544
1.72794
1.71038
1.69286
1.67528
1.6577
1.64008
1.62265
1.60618
1.59126
1.57745
1.56384
1.55016
1.53639
1.52226
1.50837
1.49547
1.48325
1.47031
1.4566
1.44321
1.42989
1.41687
1.40444
1.39492
1.38829
1.38216
1.37522
1.3683
1.35875
1.35465
1.36185
1.38448
1.42199
1.46583
1.49206
1.51527
1.51954
1.51843
1.51488
1.50277
1.49381
1.4956
1.5023
1.51962
1.54759
1.57288
1.59295
1.60734
1.61494
1.61924
1.61776
1.49425
1.41627
1.32918
1.22323
1.1751
1.15014
1.10103
1.06428
1.0701
1.06817
1.05176
1.05155
1.05159
1.05645
1.06489
1.0752
1.08431
1.08827
1.0877
1.08747
1.08641
1.09004
1.12465
1.29688
1.48396
1.5559
1.6307
1.72384
1.86585
1.97863
2.04637
2.03902
2.0091
1.97695
1.95104
1.93078
1.91491
1.89928
1.88099
1.85871
1.83436
1.81105
1.78977
1.77071
1.75328
1.73615
1.71846
1.70063
1.68344
1.66666
1.64958
1.63202
1.61472
1.59852
1.58368
1.56988
1.55668
1.54383
1.53144
1.51944
1.50722
1.49393
1.47952
1.46526
1.45101
1.43653
1.42326
1.41343
1.40549
1.39788
1.38994
1.38086
1.36969
1.35382
1.34072
1.33404
1.33664
1.34747
1.37512
1.41417
1.45591
1.48073
1.49662
1.51107
1.52848
1.54992
1.56652
1.58318
1.60355
1.61976
1.62807
1.63091
1.63319
1.63207
1.63131
1.62241
1.3978
1.23885
1.08931
0.997908
1.00623
1.00982
0.998716
1.00159
1.03404
1.0733
1.08374
1.08533
1.08997
1.10006
1.10591
1.10757
1.11534
1.11627
1.11454
1.1105
1.10737
1.1063
1.10871
1.13713
1.25991
1.50918
1.75738
1.97711
2.13633
2.18418
2.14041
2.05882
1.99571
1.96032
1.94303
1.92753
1.91051
1.89321
1.87413
1.85204
1.82792
1.80404
1.78153
1.76121
1.7432
1.7263
1.70919