/*--------------------------------*- C++ -*----------------------------------*\
  =========                 |
  \\      /  F ield         | OpenFOAM: The Open Source CFD Toolbox
   \\    /   O peration     | Website:  https://openfoam.org
    \\  /    A nd           | Version:  7
     \\/     M anipulation  |
\*---------------------------------------------------------------------------*/
FoamFile
{
    version     2.0;
    format      ascii;
    class       volVectorField;
    location    "1.4";
    object      U;
}
// * * * * * * * * * * * * * * * * * * * * * * * * * * * * * * * * * * * * * //

dimensions      [0 1 -1 0 0 0 0];

internalField   nonuniform List<vector> 
4608
(
(3 -1.52107e-16 0)
(3 -6.13814e-17 0)
(3 -2.24771e-17 0)
(3 6.18571e-16 0)
(3 7.65202e-16 0)
(3 3.956e-16 0)
(3 2.03803e-16 0)
(3 1.72725e-16 0)
(3 8.13344e-16 0)
(3 9.72954e-16 0)
(3 6.1491e-16 0)
(3 4.07251e-16 0)
(3 2.45771e-16 0)
(3 -2.05998e-16 0)
(3 -2.61271e-16 0)
(3 1.0985e-16 0)
(3 7.87439e-16 0)
(3 1.29723e-15 0)
(3 5.75493e-16 0)
(3 8.63331e-16 0)
(3 5.86975e-16 0)
(3 2.24159e-16 0)
(3 -4.54543e-16 0)
(3 -1.10185e-15 0)
(3 -6.05042e-17 0)
(3 -3.52092e-16 0)
(3 -1.4928e-16 0)
(3 2.95183e-16 0)
(3 5.43205e-16 0)
(3 3.23186e-16 0)
(3 2.71352e-16 0)
(3 4.87934e-16 0)
(3 9.82368e-16 0)
(3 1.28468e-15 0)
(3 1.58553e-15 0)
(3 6.17309e-16 0)
(3 6.16973e-16 0)
(3 8.7756e-16 0)
(3 5.73756e-16 0)
(3 8.03122e-16 0)
(3 1.6061e-15 0)
(3 1.93771e-15 0)
(3 -4.56145e-18 0)
(3 4.45731e-17 0)
(3 5.08674e-16 0)
(3 5.25261e-16 0)
(3 -1.25353e-16 0)
(3 -9.01087e-16 0)
(3 -1.39146e-17 0)
(3 -1.03744e-16 0)
(3 -2.36869e-16 0)
(3 -7.87575e-16 0)
(3 -8.57512e-16 0)
(3 -1.25059e-17 0)
(3 -8.87397e-17 0)
(3 -2.22532e-16 0)
(3 -1.76656e-16 0)
(3 -2.0553e-16 0)
(3 -3.14009e-16 0)
(3 -4.4889e-16 0)
(3 -4.53536e-16 0)
(3 -1.21288e-16 0)
(3 1.1677e-16 0)
(3 4.87041e-16 0)
(3 1.49245e-15 0)
(3 1.63172e-15 0)
(3 1.93571e-15 0)
(3 1.6052e-15 0)
(3 1.23444e-15 0)
(3 9.62182e-16 0)
(3 2.13594e-16 0)
(3 -8.24918e-16 0)
(3 1.31062e-16 0)
(3 3.84932e-16 0)
(3 -1.46056e-17 0)
(3 -4.7441e-16 0)
(3 -5.8604e-16 0)
(3 -1.29027e-16 0)
(3 -2.33923e-18 0)
(3 -9.10953e-17 0)
(3 -3.95529e-16 0)
(3 -8.64912e-16 0)
(3 -1.32567e-15 0)
(3 -7.49161e-16 0)
(3 -8.29062e-16 0)
(3 -1.0745e-15 0)
(3 -7.42451e-16 0)
(3 -3.03022e-16 0)
(3 -3.33622e-16 0)
(3 -3.15901e-16 0)
(3 -2.04928e-16 0)
(3 3.12929e-17 0)
(3 6.15091e-16 0)
(3 1.60011e-15 0)
(3 5.51168e-16 0)
(3 -4.07317e-16 0)
(3 2.8107e-17 0)
(3 2.47984e-16 0)
(3 1.82086e-16 0)
(3 -2.42301e-16 0)
(3 -4.12193e-16 0)
(3 -9.63173e-16 0)
(3 -6.14157e-16 0)
(3 -2.31353e-16 0)
(3 -1.0086e-16 0)
(3 1.28959e-16 0)
(3 5.06747e-16 0)
(3 -2.95488e-16 0)
(3 -5.45635e-16 0)
(3 -9.10945e-16 0)
(3 -1.24978e-15 0)
(3 -1.32243e-15 0)
(3 -5.22376e-16 0)
(3 -2.51876e-16 0)
(3 -4.85275e-16 0)
(3 -5.0072e-17 0)
(3 2.00654e-16 0)
(3 7.81433e-16 0)
(3 1.29958e-15 0)
(3 1.01958e-15 0)
(3 -3.189e-16 0)
(3 5.26982e-17 0)
(3 1.52976e-16 0)
(3 9.62427e-17 0)
(3 -8.24813e-16 0)
(3 -1.43928e-15 0)
(3 -1.94842e-15 0)
(3 -2.11604e-15 0)
(3 -1.1312e-15 0)
(3 -1.47636e-16 0)
(3 5.7353e-16 0)
(3 2.91276e-16 0)
(3 8.02722e-19 0)
(3 9.12852e-18 0)
(3 -7.14185e-17 0)
(3 -2.28466e-16 0)
(3 3.57139e-16 0)
(3 6.32502e-16 0)
(3 6.48759e-16 0)
(3 9.74482e-16 0)
(3 7.60441e-16 0)
(3 9.00506e-16 0)
(3 1.76625e-15 0)
(3 2.13521e-15 0)
(3 2.51828e-17 0)
(3 2.87102e-16 0)
(3 -1.35018e-16 0)
(3 3.8477e-17 0)
(3 -7.9793e-16 0)
(3 -1.16814e-15 0)
(3 -1.37897e-15 0)
(3 -1.09687e-15 0)
(3 -1.03575e-15 0)
(3 -4.21677e-16 0)
(3 -8.97724e-17 0)
(3 3.69169e-16 0)
(3 7.26991e-16 0)
(3 9.43315e-16 0)
(3 1.22143e-15 0)
(3 1.10542e-15 0)
(3 1.27842e-15 0)
(3 1.89868e-15 0)
(3 1.96035e-15 0)
(3 1.99713e-15 0)
(3 1.84128e-15 0)
(3 1.547e-15 0)
(3 1.79436e-15 0)
(3 1.32462e-15 0)
(3 1.93764e-17 0)
(3 3.13524e-16 0)
(3 5.53212e-17 0)
(3 -2.43383e-16 0)
(3 -2.93956e-16 0)
(3 -4.2641e-16 0)
(3 -2.04649e-17 0)
(3 -1.1992e-16 0)
(3 -4.45927e-16 0)
(3 -4.95635e-16 0)
(3 -5.61455e-16 0)
(3 -2.49191e-16 0)
(3 -3.42928e-16 0)
(3 -7.89669e-16 0)
(3 -7.4249e-16 0)
(3 -3.77593e-16 0)
(3 4.53216e-16 0)
(3 8.83093e-16 0)
(3 1.94799e-15 0)
(3 2.18207e-15 0)
(3 1.5866e-15 0)
(3 4.65854e-16 0)
(3 2.58033e-16 0)
(3 4.10735e-16 0)
(3 5.55518e-17 0)
(3 -1.20017e-16 0)
(3 3.71084e-17 0)
(3 -1.32113e-16 0)
(3 3.52705e-17 0)
(3 3.9794e-16 0)
(3 1.23131e-15 0)
(3 1.17458e-15 0)
(3 -2.15421e-17 0)
(3 -4.89976e-16 0)
(3 1.04897e-16 0)
(3 -1.27864e-16 0)
(3 -1.0303e-15 0)
(3 -1.8748e-15 0)
(3 -2.11098e-15 0)
(3 -1.70365e-15 0)
(3 -4.37035e-16 0)
(3 -5.3873e-16 0)
(3 -3.33458e-16 0)
(3 1.45498e-15 0)
(3 2.11916e-15 0)
(3 1.09991e-15 0)
(3 -6.44618e-16 0)
(3 -8.88176e-16 0)
(3 -3.03831e-17 0)
(3 -8.02561e-16 0)
(3 -5.59141e-16 0)
(3 -3.13251e-16 0)
(3 2.32076e-16 0)
(3 1.23951e-15 0)
(3 1.59175e-15 0)
(3 1.43566e-15 0)
(3 1.10777e-15 0)
(3 8.33818e-16 0)
(3 8.83595e-16 0)
(3 -2.28177e-16 0)
(3 -6.92049e-16 0)
(3 -5.1754e-16 0)
(3 -2.56974e-16 0)
(3 3.35594e-16 0)
(3 4.36636e-16 0)
(3 -2.36613e-16 0)
(3 -1.22442e-15 0)
(3 -4.99681e-16 0)
(3 7.60427e-16 0)
(3 1.04688e-16 0)
(3 -7.56055e-16 0)
(3 -7.62374e-16 0)
(3 -1.44494e-16 0)
(3 -1.79303e-16 0)
(3 -3.29525e-16 0)
(3 -1.07348e-16 0)
(3 3.38632e-16 0)
(3 4.39167e-16 0)
(3 3.38641e-16 0)
(3 4.63312e-16 0)
(3 9.24964e-16 0)
(3 1.21547e-15 0)
(3 5.86906e-16 0)
(3 -3.8284e-16 0)
(3 -3.58334e-16 0)
(3 2.07589e-16 0)
(3 4.68654e-16 0)
(3 1.61284e-16 0)
(3 -3.51879e-18 0)
(3 -1.35629e-15 0)
(3 -1.87627e-15 0)
(3 -2.21222e-15 0)
(3 -1.461e-15 0)
(3 -6.97512e-16 0)
(3 -2.4437e-16 0)
(3 7.85028e-17 0)
(3 3.41923e-16 0)
(3 3.06673e-16 0)
(3 3.14325e-16 0)
(3 7.73221e-16 0)
(3 7.67629e-16 0)
(3 7.6073e-16 0)
(3 9.45781e-16 0)
(3 9.72419e-16 0)
(3 9.86454e-16 0)
(3 8.4158e-16 0)
(3 1.20908e-16 0)
(3 2.05365e-17 0)
(3 3.91387e-16 0)
(3 5.82451e-16 0)
(3 7.11434e-16 0)
(3 1.12961e-16 0)
(3 -2.99001e-16 0)
(3 -5.40651e-16 0)
(3 -4.7556e-16 0)
(3 -1.53083e-15 0)
(3 -1.75699e-15 0)
(3 -7.0632e-16 0)
(3 1.56673e-16 0)
(3 1.02347e-16 0)
(3 1.06517e-16 0)
(3 2.45069e-18 0)
(3 5.26615e-16 0)
(3 7.34573e-16 0)
(3 1.00413e-15 0)
(3 5.83577e-16 0)
(3 2.80173e-16 0)
(3 -1.14759e-16 0)
(3 -1.30899e-17 0)
(3 4.38338e-16 0)
(3 2.83909e-16 0)
(3 4.81417e-16 0)
(3 1.72098e-15 0)
(3 1.37015e-15 0)
(3 9.54512e-16 0)
(3 6.92603e-16 0)
(3 -5.63893e-18 0)
(3 5.60193e-17 0)
(3 -4.58412e-17 0)
(3 -7.16773e-16 0)
(3 -1.45544e-15 0)
(3 -1.31671e-15 0)
(3 -3.77059e-16 0)
(3 3.43569e-16 0)
(3 -5.91548e-17 0)
(3 -1.8839e-16 0)
(3 -5.33628e-16 0)
(3 -6.36946e-16 0)
(3 -7.91964e-16 0)
(3 -1.50657e-15 0)
(3 -1.89012e-15 0)
(3 -1.3739e-15 0)
(3 5.20388e-18 0)
(3 1.28723e-16 0)
(3 1.48071e-16 0)
(3 9.50741e-17 0)
(3 -1.95564e-16 0)
(3 -4.89516e-16 0)
(3 -6.28207e-16 0)
(3 -1.85831e-16 0)
(3 -3.73168e-16 0)
(3 1.95314e-17 0)
(3 5.10101e-16 0)
(3 8.31564e-16 0)
(3 5.07899e-16 0)
(3 6.67759e-16 0)
(3 1.09634e-15 0)
(3 8.1707e-16 0)
(3 -8.85177e-17 0)
(3 -1.10273e-16 0)
(3 -4.3487e-16 0)
(3 -1.13744e-15 0)
(3 -1.25891e-15 0)
(3 -7.19602e-16 0)
(3 -6.70927e-16 0)
(3 -7.42721e-17 0)
(3 8.80331e-17 0)
(3 4.80995e-17 0)
(3 3.58061e-16 0)
(3 -2.27717e-16 0)
(3 -1.14948e-15 0)
(3 -1.66054e-15 0)
(3 -1.66028e-15 0)
(3 -6.47999e-16 0)
(3 7.77513e-16 0)
(3 1.72156e-15 0)
(3 1.60006e-15 0)
(3 1.45818e-15 0)
(3 1.45659e-15 0)
(3 1.42303e-15 0)
(3 1.2674e-15 0)
(3 1.44174e-16 0)
(3 -1.306e-16 0)
(3 2.22366e-16 0)
(3 6.36951e-16 0)
(3 3.33867e-16 0)
(3 -4.45613e-16 0)
(3 -2.41468e-16 0)
(3 -4.74981e-17 0)
(3 -1.34613e-16 0)
(3 -5.76949e-16 0)
(3 -1.45245e-16 0)
(3 -4.12488e-16 0)
(3 -7.5612e-16 0)
(3 -7.38622e-16 0)
(3 -6.40361e-16 0)
(3 -3.12871e-16 0)
(3 -4.04068e-16 0)
(3 -2.10247e-17 0)
(3 1.07809e-16 0)
(3 1.43315e-16 0)
(3 -2.70369e-17 0)
(3 2.12442e-16 0)
(3 -2.4309e-16 0)
(3 -4.48885e-16 0)
(3 1.21316e-16 0)
(3 -5.32313e-18 0)
(3 -1.46377e-16 0)
(3 -1.31824e-17 0)
(3 -3.50178e-17 0)
(3 -3.75193e-16 0)
(3 -3.04096e-16 0)
(3 2.6051e-16 0)
(3 -2.24733e-17 0)
(3 -4.19607e-16 0)
(3 -7.33979e-16 0)
(3 -1.18923e-15 0)
(3 -1.01656e-15 0)
(3 -8.30008e-16 0)
(3 -3.42905e-16 0)
(3 -5.91059e-16 0)
(3 -1.43091e-15 0)
(3 -2.04353e-15 0)
(3 -2.14619e-15 0)
(3 -1.72264e-15 0)
(3 -1.49208e-15 0)
(3 -9.15897e-16 0)
(3 -1.28754e-15 0)
(3 -1.16328e-15 0)
(3 -8.7461e-16 0)
(3 3.96885e-17 0)
(3 -1.95012e-16 0)
(3 -4.78327e-16 0)
(3 -3.21129e-16 0)
(3 3.59064e-16 0)
(3 2.88185e-16 0)
(3 8.41492e-17 0)
(3 -7.64634e-16 0)
(3 -1.5326e-15 0)
(3 -1.56314e-15 0)
(3 -1.29765e-15 0)
(3 -5.67171e-16 0)
(3 -2.25861e-16 0)
(3 -3.98937e-16 0)
(3 -7.64625e-16 0)
(3 -7.31122e-16 0)
(3 -1.45606e-15 0)
(3 -1.87103e-15 0)
(3 -1.73749e-15 0)
(3 -1.17723e-15 0)
(3 -6.05762e-16 0)
(3 -8.57137e-16 0)
(3 -1.34897e-15 0)
(3 -1.789e-15 0)
(3 -6.76572e-17 0)
(3 2.7417e-16 0)
(3 7.28609e-16 0)
(3 7.66657e-16 0)
(3 1.12635e-15 0)
(3 6.31768e-16 0)
(3 -1.13917e-15 0)
(3 -1.71295e-15 0)
(3 -1.87441e-15 0)
(3 -1.35203e-15 0)
(3 -8.13481e-16 0)
(3 -5.50771e-16 0)
(3 -3.42815e-16 0)
(3 -5.93979e-16 0)
(3 -5.50581e-16 0)
(3 -2.90113e-16 0)
(3 -4.25346e-16 0)
(3 -1.48794e-16 0)
(3 -2.00716e-16 0)
(3 2.5093e-16 0)
(3 8.1109e-16 0)
(3 3.89708e-16 0)
(3 -2.55102e-16 0)
(3 -9.54957e-16 0)
(3 -1.49523e-17 0)
(3 1.97247e-17 0)
(3 3.54333e-16 0)
(3 4.28047e-16 0)
(3 8.56027e-17 0)
(3 -2.85989e-16 0)
(3 -3.92395e-16 0)
(3 -4.18913e-16 0)
(3 -3.12417e-16 0)
(3 -5.00796e-16 0)
(3 -7.64064e-16 0)
(3 -5.87178e-16 0)
(3 -3.68597e-16 0)
(3 -2.40719e-16 0)
(3 -4.06393e-16 0)
(3 2.2277e-17 0)
(3 -4.76614e-17 0)
(3 -1.14731e-16 0)
(3 -6.23643e-16 0)
(3 -7.41752e-16 0)
(3 2.45426e-17 0)
(3 6.1941e-16 0)
(3 6.20942e-16 0)
(3 4.33131e-16 0)
(3 1.03776e-16 0)
(3 -3.31695e-16 0)
(3 -7.46454e-16 0)
(3 -3.37376e-16 0)
(3 -5.08881e-16 0)
(3 -9.50783e-16 0)
(3 -4.91427e-16 0)
(3 6.92925e-17 0)
(3 1.4779e-16 0)
(3 9.76027e-17 0)
(3 -2.71543e-16 0)
(3 3.28729e-17 0)
(3 5.49652e-16 0)
(3 7.55781e-16 0)
(3 8.43498e-16 0)
(3 9.92711e-16 0)
(3 -5.4881e-16 0)
(3 -1.44139e-15 0)
(3 -1.54427e-15 0)
(3 -2.06539e-15 0)
(3 -1.9952e-15 0)
(3 -8.09547e-16 0)
(3 9.89812e-17 0)
(3 1.32305e-15 0)
(3 3.33556e-17 0)
(3 2.26214e-16 0)
(3 8.26348e-17 0)
(3 2.38232e-16 0)
(3 1.05193e-16 0)
(3 -1.24727e-16 0)
(3 -4.68378e-16 0)
(3 -3.70487e-16 0)
(3 -2.06109e-17 0)
(3 3.54033e-17 0)
(3 4.24268e-16 0)
(3 3.18544e-16 0)
(3 -7.02669e-17 0)
(3 3.23459e-16 0)
(3 7.43252e-16 0)
(3 2.73475e-16 0)
(3 -1.12592e-15 0)
(3 -2.08819e-15 0)
(3 -1.42849e-15 0)
(3 -1.38414e-15 0)
(3 -1.18278e-15 0)
(3 -8.63906e-16 0)
(3 3.06249e-16 0)
(3 1.9678e-15 0)
(3 1.67421e-16 0)
(3 4.38519e-16 0)
(3 8.48799e-16 0)
(3 9.12304e-16 0)
(3 8.72158e-16 0)
(3 7.32013e-16 0)
(3 2.7888e-16 0)
(3 -2.79872e-16 0)
(3 -1.72456e-16 0)
(3 -3.19523e-16 0)
(3 2.23667e-17 0)
(3 -1.32655e-16 0)
(3 -1.04251e-15 0)
(3 -6.06758e-16 0)
(3 -4.33851e-16 0)
(3 -1.02495e-15 0)
(3 -5.98861e-16 0)
(3 -5.95325e-16 0)
(3 -5.79436e-16 0)
(3 -3.69878e-16 0)
(3 -6.18127e-16 0)
(3 -6.56618e-16 0)
(3 7.21777e-17 0)
(3 1.12276e-15 0)
(3 -3.16963e-17 0)
(3 1.21838e-16 0)
(3 3.32283e-16 0)
(3 1.33261e-16 0)
(3 -4.19184e-17 0)
(3 -1.48971e-17 0)
(3 -2.12731e-16 0)
(3 -4.24113e-16 0)
(3 -5.94998e-16 0)
(3 -5.58223e-16 0)
(3 -6.19209e-16 0)
(3 -2.75979e-16 0)
(3 -3.59673e-17 0)
(3 1.30918e-16 0)
(3 -5.58041e-17 0)
(3 -6.12674e-16 0)
(3 1.36847e-16 0)
(3 7.78763e-16 0)
(3 8.04692e-16 0)
(3 7.76356e-16 0)
(3 4.06252e-16 0)
(3 -5.0133e-17 0)
(3 -2.76428e-16 0)
(3 -8.12932e-16 0)
(3 -3.56051e-18 0)
(3 3.46271e-16 0)
(3 9.41222e-17 0)
(3 -6.39469e-17 0)
(3 -6.92459e-16 0)
(3 -9.46347e-16 0)
(3 -3.59282e-16 0)
(3 3.17773e-16 0)
(3 6.00481e-16 0)
(3 8.22865e-16 0)
(3 5.82148e-16 0)
(3 5.85298e-16 0)
(3 9.29733e-16 0)
(3 -8.37496e-17 0)
(3 -8.6956e-16 0)
(3 -1.11432e-15 0)
(3 6.97859e-16 0)
(3 1.9315e-15 0)
(3 1.96377e-15 0)
(3 1.82281e-15 0)
(3 1.58926e-15 0)
(3 1.08523e-15 0)
(3 -3.96214e-17 0)
(3 2.85832e-17 0)
(3 -1.60199e-17 0)
(3 -5.50673e-17 0)
(3 -4.33824e-16 0)
(3 -3.33513e-16 0)
(3 -2.74174e-16 0)
(3 -2.99656e-16 0)
(3 -2.6882e-16 0)
(3 2.35921e-16 0)
(3 1.19134e-15 0)
(3 2.38596e-15 0)
(3 2.27095e-15 0)
(3 1.69991e-15 0)
(3 1.261e-15 0)
(3 -7.74693e-16 0)
(3 -1.33723e-15 0)
(3 -1.12149e-15 0)
(3 1.81236e-16 0)
(3 4.29688e-16 0)
(3 3.99194e-16 0)
(3 3.2645e-16 0)
(3 5.0226e-16 0)
(3 5.60359e-16 0)
(3 3.02523e-17 0)
(3 -9.80347e-16 0)
(3 -3.73849e-17 0)
(3 -1.83946e-16 0)
(3 -5.47836e-17 0)
(3 -1.54997e-16 0)
(3 -6.84863e-16 0)
(3 -4.69594e-16 0)
(3 -5.35002e-16 0)
(3 -1.28415e-16 0)
(3 2.87776e-16 0)
(3 1.05692e-15 0)
(3 2.18069e-15 0)
(3 1.95525e-15 0)
(3 1.25319e-15 0)
(3 5.16815e-16 0)
(3 3.59267e-16 0)
(3 8.88196e-16 0)
(3 -7.12934e-17 0)
(3 -7.43518e-16 0)
(3 -7.03265e-16 0)
(3 -8.67163e-16 0)
(3 -9.33731e-16 0)
(3 -8.9075e-16 0)
(3 -3.33708e-16 0)
(3 -1.12774e-15 0)
(3 8.29959e-17 0)
(3 -1.54461e-16 0)
(3 3.45705e-16 0)
(3 4.10417e-16 0)
(3 2.59946e-16 0)
(3 -5.0138e-16 0)
(3 -8.11642e-17 0)
(3 1.7581e-16 0)
(3 -3.18835e-16 0)
(3 -4.76305e-16 0)
(3 6.4537e-16 0)
(3 1.64151e-15 0)
(3 2.13056e-15 0)
(3 2.48622e-15 0)
(3 2.81505e-15 0)
(3 2.46758e-15 0)
(3 1.09008e-15 0)
(3 1.07354e-15 0)
(3 8.95482e-16 0)
(3 8.56459e-16 0)
(3 3.82491e-16 0)
(3 -3.175e-17 0)
(3 8.06644e-16 0)
(3 1.72539e-16 0)
(3 -2.41773e-17 0)
(3 -3.49961e-16 0)
(3 -4.43075e-16 0)
(3 6.41545e-17 0)
(3 8.14396e-16 0)
(3 8.7158e-16 0)
(3 1.03617e-15 0)
(3 5.1636e-16 0)
(3 -4.60099e-16 0)
(3 -1.28833e-15 0)
(3 -1.30502e-15 0)
(3 7.68296e-16 0)
(3 2.59846e-15 0)
(3 3.93873e-15 0)
(3 4.19932e-15 0)
(3 2.03827e-15 0)
(3 1.70228e-15 0)
(3 1.78592e-15 0)
(3 1.55401e-15 0)
(3 2.0298e-15 0)
(3 1.8149e-15 0)
(3 1.03459e-15 0)
(3 5.35328e-16 0)
(3 -1.48936e-16 0)
(3 -6.85215e-17 0)
(3 -1.85989e-16 0)
(3 -3.5235e-16 0)
(3 -4.32666e-16 0)
(3 7.99666e-17 0)
(3 9.76176e-16 0)
(3 8.84329e-16 0)
(3 3.78501e-16 0)
(3 -1.55346e-16 0)
(3 -1.65158e-15 0)
(3 -1.45881e-15 0)
(3 -1.15659e-15 0)
(3 -5.82455e-16 0)
(3 8.98418e-16 0)
(3 1.44168e-15 0)
(3 7.59644e-16 0)
(3 -7.45126e-16 0)
(3 -5.26876e-16 0)
(3 1.87501e-16 0)
(3 3.20938e-16 0)
(3 5.70871e-16 0)
(3 5.13522e-16 0)
(3 -1.35315e-15 0)
(3 -9.87283e-16 0)
(3 1.0151e-16 0)
(3 -4.47007e-17 0)
(3 -1.87545e-16 0)
(3 -4.82414e-16 0)
(3 -2.36204e-16 0)
(3 2.87713e-16 0)
(3 2.53335e-17 0)
(3 -1.72198e-16 0)
(3 -7.30534e-16 0)
(3 -8.31411e-16 0)
(3 -7.48785e-16 0)
(3 -1.26007e-15 0)
(3 -1.98134e-15 0)
(3 -1.88768e-15 0)
(3 -1.67649e-15 0)
(3 -3.47875e-16 0)
(3 -5.80855e-16 0)
(3 -1.24377e-15 0)
(3 -1.66221e-15 0)
(3 -2.06196e-15 0)
(3 -1.66585e-15 0)
(3 -9.81349e-16 0)
(3 -1.41542e-15 0)
(3 -1.24413e-15 0)
(3 1.17638e-16 0)
(3 4.42357e-17 0)
(3 7.3117e-17 0)
(3 -1.39406e-17 0)
(3 -4.42978e-16 0)
(3 -2.53251e-16 0)
(3 -1.89217e-16 0)
(3 -2.0639e-16 0)
(3 -3.0629e-16 0)
(3 -9.46526e-17 0)
(3 -2.21879e-17 0)
(3 -5.21906e-16 0)
(3 -9.25689e-16 0)
(3 -1.09826e-15 0)
(3 -1.11221e-15 0)
(3 -8.49707e-17 0)
(3 1.69794e-16 0)
(3 -7.29935e-16 0)
(3 -1.85191e-15 0)
(3 -2.09181e-15 0)
(3 -1.69816e-15 0)
(3 -1.34422e-15 0)
(3 -1.20079e-15 0)
(3 -3.91202e-16 0)
(2.9318 0.0318529 0)
(2.84936 0.0575129 0)
(2.75802 0.137108 0)
(2.66188 0.251283 0)
(2.58616 0.338132 0)
(2.49702 0.446697 0)
(2.42105 0.546708 0)
(2.35218 0.628176 0)
(2.31239 0.721267 0)
(2.25768 0.796467 0)
(2.24816 0.857227 0)
(2.28569 0.883473 0)
(2.32757 0.899769 0)
(2.33502 0.88899 0)
(2.34362 0.879722 0)
(2.34583 0.868605 0)
(2.34852 0.85524 0)
(2.34978 0.850514 0)
(2.34546 0.850384 0)
(2.34026 0.850581 0)
(2.33673 0.850557 0)
(2.33701 0.849572 0)
(2.33899 0.848919 0)
(2.33874 0.84906 0)
(2.99846 0.0016129 0)
(2.99036 0.0119401 0)
(2.96248 0.0470301 0)
(2.89908 0.133977 0)
(2.8082 0.270533 0)
(2.67824 0.464195 0)
(2.52623 0.688452 0)
(2.39844 0.894958 0)
(2.21683 1.07565 0)
(2.16596 1.09796 0)
(2.13264 1.04194 0)
(2.20106 1.00186 0)
(2.24866 0.947103 0)
(2.29476 0.90157 0)
(2.33043 0.862129 0)
(2.3481 0.832541 0)
(2.35392 0.828043 0)
(2.36161 0.834502 0)
(2.35594 0.843158 0)
(2.35037 0.849038 0)
(2.34363 0.85098 0)
(2.33989 0.85169 0)
(2.34092 0.850186 0)
(2.34059 0.84918 0)
(3 5.493e-07 0)
(3.00003 1.38062e-05 0)
(3.00001 -8.4638e-05 0)
(2.99982 0.000196294 0)
(2.99866 0.00183313 0)
(2.99117 0.0127323 0)
(2.96506 0.0547347 0)
(2.90371 0.166594 0)
(2.75495 0.428963 0)
(2.61395 0.687848 0)
(2.43668 0.854014 0)
(2.33579 0.931814 0)
(2.29243 0.913738 0)
(2.30497 0.895579 0)
(2.31035 0.896635 0)
(2.33699 0.878082 0)
(2.35687 0.849151 0)
(2.36397 0.846366 0)
(2.36208 0.84764 0)
(2.358 0.848053 0)
(2.35131 0.849551 0)
(2.34748 0.851465 0)
(2.34683 0.850603 0)
(2.34556 0.849676 0)
(3 -2.30351e-10 0)
(3 -4.49679e-07 0)
(3 -1.25679e-06 0)
(3 -1.61719e-06 0)
(3.00001 -8.88919e-06 0)
(2.99999 2.3602e-05 0)
(3 -1.14935e-05 0)
(2.99943 0.00081023 0)
(2.98725 0.0216098 0)
(2.92054 0.141193 0)
(2.71365 0.45891 0)
(2.44279 0.781805 0)
(2.36458 0.869311 0)
(2.29786 0.945541 0)
(2.2839 0.946843 0)
(2.29968 0.923024 0)
(2.32646 0.884234 0)
(2.35008 0.852078 0)
(2.36013 0.84145 0)
(2.36262 0.836707 0)
(2.3622 0.838594 0)
(2.35981 0.842145 0)
(2.35636 0.846542 0)
(2.35213 0.848034 0)
(3 -7.21828e-11 0)
(3 1.44746e-09 0)
(3 -6.1284e-08 0)
(3 -1.50798e-07 0)
(3 -7.26269e-07 0)
(3 -6.74789e-07 0)
(3 -3.46587e-06 0)
(3 -5.17384e-06 0)
(3.00004 -7.97549e-05 0)
(2.99942 0.000761204 0)
(2.98347 0.0214304 0)
(2.86819 0.17015 0)
(2.69551 0.440728 0)
(2.35694 0.826827 0)
(2.33288 0.85776 0)
(2.30454 0.884466 0)
(2.30716 0.880329 0)
(2.31512 0.873496 0)
(2.34185 0.85858 0)
(2.35742 0.846568 0)
(2.36232 0.843066 0)
(2.36149 0.840517 0)
(2.35987 0.84248 0)
(2.35377 0.849354 0)
(3 -1.33578e-12 0)
(3 8.02236e-11 0)
(3 3.37641e-10 0)
(3 -1.43672e-09 0)
(3 -1.75498e-09 0)
(3 -3.44065e-08 0)
(3 -7.06553e-08 0)
(3 -3.23201e-07 0)
(3 -6.03726e-06 0)
(3 -5.68043e-06 0)
(3.00003 -6.56181e-05 0)
(2.99872 0.0017981 0)
(2.97616 0.0319926 0)
(2.78446 0.263155 0)
(2.6248 0.509223 0)
(2.36335 0.808128 0)
(2.25375 0.924854 0)
(2.27054 0.902312 0)
(2.30616 0.876426 0)
(2.32173 0.868674 0)
(2.33814 0.858317 0)
(2.34888 0.8488 0)
(2.35212 0.842485 0)
(2.35032 0.842232 0)
(3 8.00255e-15 0)
(3 -5.68137e-14 0)
(3 2.74037e-11 0)
(3 2.30746e-11 0)
(3 2.74505e-11 0)
(3 -8.04383e-11 0)
(3 -5.46734e-10 0)
(3 -7.30289e-10 0)
(3 -1.65228e-08 0)
(3 -2.9113e-07 0)
(3 -6.33867e-06 0)
(3.00001 -3.3483e-06 0)
(3 -4.62821e-05 0)
(2.99464 0.00766819 0)
(2.95532 0.0647996 0)
(2.7015 0.376966 0)
(2.50974 0.631807 0)
(2.39583 0.77917 0)
(2.30509 0.857142 0)
(2.29017 0.86961 0)
(2.30989 0.863396 0)
(2.32731 0.845545 0)
(2.33563 0.843073 0)
(2.34031 0.842525 0)
(3 2.82349e-15 0)
(3 4.78719e-15 0)
(3 4.71524e-14 0)
(3 1.89782e-12 0)
(3 4.40577e-12 0)
(3 3.56301e-12 0)
(3 2.19683e-12 0)
(3 2.67858e-12 0)
(3 1.08419e-10 0)
(3 -1.17927e-09 0)
(3 -1.02048e-08 0)
(3 -9.98465e-07 0)
(3 -2.91141e-06 0)
(3.00001 -1.87546e-05 0)
(2.99973 0.000384649 0)
(2.98281 0.0234744 0)
(2.90264 0.143303 0)
(2.59882 0.53477 0)
(2.37686 0.784879 0)
(2.34563 0.809741 0)
(2.31657 0.840003 0)
(2.31678 0.840952 0)
(2.32498 0.840948 0)
(2.33303 0.838353 0)
(3 -6.61013e-16 0)
(3 -1.66359e-16 0)
(3 -2.15557e-15 0)
(3 2.73406e-15 0)
(3 4.24045e-14 0)
(3 3.48692e-13 0)
(3 5.81096e-13 0)
(3 1.17515e-12 0)
(3 8.05273e-12 0)
(3 1.59073e-11 0)
(3 4.09004e-11 0)
(3 -1.90249e-08 0)
(3 -7.03264e-08 0)
(3 -3.24841e-06 0)
(3 -4.59298e-06 0)
(2.99998 2.50377e-05 0)
(2.99805 0.00347911 0)
(2.94131 0.0799651 0)
(2.78914 0.297388 0)
(2.51252 0.64528 0)
(2.31246 0.88936 0)
(2.29598 0.855537 0)
(2.31933 0.843696 0)
(2.32324 0.843449 0)
(3 -5.60446e-16 0)
(3 2.30507e-16 0)
(3 -1.03137e-15 0)
(3 -1.43106e-15 0)
(3 -5.98225e-16 0)
(3 2.42673e-15 0)
(3 1.94936e-14 0)
(3 1.13497e-13 0)
(3 2.38667e-13 0)
(3 3.41577e-12 0)
(3 4.36082e-12 0)
(3 8.89172e-11 0)
(3 -8.93872e-10 0)
(3 -3.31509e-08 0)
(3 -7.93491e-07 0)
(3 -6.93814e-07 0)
(3 -1.18366e-05 0)
(2.99931 0.00113475 0)
(2.98733 0.0235207 0)
(2.8626 0.195691 0)
(2.58743 0.558084 0)
(2.46995 0.712572 0)
(2.34741 0.835859 0)
(2.32121 0.856009 0)
(3 7.4636e-16 0)
(3 9.92746e-16 0)
(3 -6.34623e-16 0)
(3 -1.76477e-15 0)
(3 -1.87481e-15 0)
(3 -1.63577e-15 0)
(3 -2.3721e-15 0)
(3 1.89518e-15 0)
(3 1.01812e-14 0)
(3 4.42886e-14 0)
(3 3.45347e-13 0)
(3 1.68884e-11 0)
(3 1.64199e-11 0)
(3 2.04932e-10 0)
(3 -9.37069e-09 0)
(3 -7.53846e-08 0)
(3 -1.8181e-06 0)
(3 -5.13093e-06 0)
(2.99995 6.72147e-05 0)
(2.99377 0.0104809 0)
(2.93104 0.103112 0)
(2.73555 0.410337 0)
(2.42737 0.782994 0)
(2.38266 0.802127 0)
(3 2.84384e-16 0)
(3 -1.43522e-17 0)
(3 -9.48154e-16 0)
(3 -6.39216e-16 0)
(3 3.23716e-16 0)
(3 1.16544e-15 0)
(3 6.30228e-16 0)
(3 4.17139e-16 0)
(3 1.17002e-15 0)
(3 1.94832e-15 0)
(3 2.96318e-15 0)
(3 4.87877e-13 0)
(3 3.10564e-12 0)
(3 2.86245e-11 0)
(3 6.65784e-11 0)
(3 -1.7141e-09 0)
(3 -3.54156e-08 0)
(3 -1.38389e-06 0)
(3 -1.5587e-06 0)
(2.99999 2.74653e-06 0)
(2.99837 0.00351851 0)
(2.97129 0.048652 0)
(2.74775 0.359924 0)
(2.57344 0.609317 0)
(3 -9.26393e-16 0)
(3 -2.01663e-15 0)
(3 -8.12309e-16 0)
(3 7.5042e-16 0)
(3 1.22788e-15 0)
(3 1.03424e-15 0)
(3 1.30525e-15 0)
(3 2.23129e-15 0)
(3 2.51073e-15 0)
(3 2.63673e-15 0)
(3 2.23379e-15 0)
(3 9.15675e-16 0)
(3 4.18685e-14 0)
(3 1.05936e-12 0)
(3 1.52522e-11 0)
(3 1.08924e-11 0)
(3 -1.43345e-11 0)
(3 -3.1172e-08 0)
(3 -3.8099e-07 0)
(3 -5.01307e-07 0)
(3 1.10849e-07 0)
(2.99942 0.00112051 0)
(2.97542 0.0392767 0)
(2.85503 0.243008 0)
(3 4.55871e-16 0)
(3 3.93304e-16 0)
(3 6.38903e-16 0)
(3 1.00413e-15 0)
(3 4.00623e-16 0)
(3 -5.69795e-16 0)
(3 1.00758e-16 0)
(3 1.04592e-15 0)
(3 2.04495e-15 0)
(3 2.3411e-15 0)
(3 1.33709e-15 0)
(3 -6.28645e-16 0)
(3 -4.96419e-16 0)
(3 2.84678e-15 0)
(3 7.72205e-13 0)
(3 2.16897e-12 0)
(3 6.41371e-12 0)
(3 3.55563e-11 0)
(3 -1.74866e-08 0)
(3 -1.53033e-07 0)
(3 -1.8199e-07 0)
(3 -1.98223e-06 0)
(2.99956 0.000885007 0)
(2.99189 0.0161732 0)
(3 1.12799e-15 0)
(3 1.90294e-15 0)
(3 1.52563e-15 0)
(3 4.42242e-16 0)
(3 -3.4283e-16 0)
(3 5.63665e-16 0)
(3 1.24937e-15 0)
(3 1.22609e-15 0)
(3 8.30909e-16 0)
(3 2.62386e-16 0)
(3 5.73959e-16 0)
(3 7.39369e-16 0)
(3 8.46594e-16 0)
(3 2.09153e-15 0)
(3 6.11086e-15 0)
(3 1.37616e-13 0)
(3 1.73698e-12 0)
(3 6.17055e-12 0)
(3 -5.14323e-11 0)
(3 -1.28805e-08 0)
(3 -3.22805e-08 0)
(3 -6.05571e-07 0)
(3 9.32947e-06 0)
(2.99999 -1.61963e-05 0)
(3 4.68152e-16 0)
(3 1.61064e-15 0)
(3 1.94666e-15 0)
(3 8.97846e-16 0)
(3 9.89152e-16 0)
(3 2.38236e-15 0)
(3 2.42478e-15 0)
(3 2.80166e-15 0)
(3 1.79985e-15 0)
(3 4.92159e-16 0)
(3 1.30357e-15 0)
(3 2.96844e-15 0)
(3 3.6341e-15 0)
(3 3.62088e-15 0)
(3 2.6491e-15 0)
(3 4.89235e-15 0)
(3 2.59146e-14 0)
(3 7.55063e-13 0)
(3 3.12853e-13 0)
(3 -1.21547e-10 0)
(3 -3.01153e-09 0)
(3 -1.50761e-07 0)
(3 -1.07785e-07 0)
(3 -1.73802e-06 0)
(3 -3.52335e-16 0)
(3 1.37417e-16 0)
(3 3.8396e-16 0)
(3 1.04003e-15 0)
(3 1.83651e-15 0)
(3 2.28834e-15 0)
(3 2.76199e-15 0)
(3 3.30047e-15 0)
(3 1.47255e-15 0)
(3 6.60889e-16 0)
(3 4.16147e-16 0)
(3 1.50202e-15 0)
(3 2.51779e-15 0)
(3 2.35418e-15 0)
(3 2.241e-15 0)
(3 7.79148e-16 0)
(3 -5.43157e-14 0)
(3 -7.40463e-13 0)
(3 -4.29121e-13 0)
(3 9.52814e-11 0)
(3 2.64121e-09 0)
(3 1.53328e-07 0)
(3 7.28244e-08 0)
(3 1.70381e-06 0)
(3 -1.97733e-15 0)
(3 -1.69082e-15 0)
(3 -1.40237e-15 0)
(3 -5.89558e-16 0)
(3 -5.80607e-16 0)
(3 -5.55749e-16 0)
(3 1.0348e-15 0)
(3 2.45365e-15 0)
(3 2.56696e-15 0)
(3 2.02034e-15 0)
(3 1.27375e-15 0)
(3 4.57904e-16 0)
(3 -1.12667e-16 0)
(3 4.3884e-16 0)
(3 -2.49761e-15 0)
(3 -1.25241e-13 0)
(3 -1.77192e-12 0)
(3 -6.13617e-12 0)
(3 5.1267e-11 0)
(3 1.29287e-08 0)
(3 3.20171e-08 0)
(3 6.14723e-07 0)
(3 -9.27326e-06 0)
(2.99999 1.66116e-05 0)
(3 -1.53241e-15 0)
(3 -1.53637e-15 0)
(3 -1.60328e-15 0)
(3 -3.52444e-16 0)
(3 7.03597e-16 0)
(3 1.233e-15 0)
(3 1.36288e-15 0)
(3 9.75982e-16 0)
(3 1.15902e-15 0)
(3 8.24821e-16 0)
(3 -8.9568e-17 0)
(3 -1.13846e-15 0)
(3 -1.62871e-15 0)
(3 -2.85091e-15 0)
(3 -7.76662e-13 0)
(3 -2.16684e-12 0)
(3 -6.42912e-12 0)
(3 -3.55049e-11 0)
(3 1.74813e-08 0)
(3 1.53046e-07 0)
(3 1.82023e-07 0)
(3 1.98604e-06 0)
(2.99956 -0.000885554 0)
(2.9919 -0.0161598 0)
(3 1.12527e-16 0)
(3 -1.41723e-16 0)
(3 -4.91661e-17 0)
(3 -3.98794e-17 0)
(3 1.13055e-16 0)
(3 7.60145e-16 0)
(3 7.5395e-16 0)
(3 -1.49315e-15 0)
(3 -1.51136e-15 0)
(3 -1.34817e-15 0)
(3 -1.90966e-15 0)
(3 -2.53827e-15 0)
(3 -4.54829e-14 0)
(3 -1.06108e-12 0)
(3 -1.52538e-11 0)
(3 -1.08906e-11 0)
(3 1.4219e-11 0)
(3 3.11842e-08 0)
(3 3.80936e-07 0)
(3 5.01248e-07 0)
(3 -1.10197e-07 0)
(2.99942 -0.00112054 0)
(2.97541 -0.039277 0)
(2.85504 -0.242998 0)
(3 1.62867e-15 0)
(3 1.58437e-15 0)
(3 1.62942e-15 0)
(3 5.6367e-16 0)
(3 2.07888e-17 0)
(3 -4.62676e-17 0)
(3 -4.34492e-16 0)
(3 -1.91127e-15 0)
(3 -1.739e-15 0)
(3 -1.40588e-15 0)
(3 -2.94942e-15 0)
(3 -4.87772e-13 0)
(3 -3.10719e-12 0)
(3 -2.86251e-11 0)
(3 -6.65807e-11 0)
(3 1.71415e-09 0)
(3 3.54137e-08 0)
(3 1.38396e-06 0)
(3 1.55863e-06 0)
(2.99999 -2.7463e-06 0)
(2.99837 -0.0035185 0)
(2.97129 -0.0486522 0)
(2.74775 -0.359923 0)
(2.57344 -0.609319 0)
(3 1.15101e-15 0)
(3 1.0272e-15 0)
(3 9.64306e-16 0)
(3 3.09857e-16 0)
(3 -1.48322e-17 0)
(3 -7.61956e-16 0)
(3 4.84915e-16 0)
(3 -3.89955e-15 0)
(3 -4.97465e-15 0)
(3 -3.60486e-14 0)
(3 -3.36754e-13 0)
(3 -1.68866e-11 0)
(3 -1.64202e-11 0)
(3 -2.04936e-10 0)
(3 9.37055e-09 0)
(3 7.53843e-08 0)
(3 1.81808e-06 0)
(3 5.13107e-06 0)
(2.99995 -6.72166e-05 0)
(2.99377 -0.0104808 0)
(2.93104 -0.103113 0)
(2.73555 -0.410335 0)
(2.42737 -0.782993 0)
(2.38266 -0.802128 0)
(3 8.8507e-16 0)
(3 8.18943e-16 0)
(3 7.30811e-16 0)
(3 1.18541e-15 0)
(3 1.39519e-15 0)
(3 -1.65913e-15 0)
(3 -1.76379e-14 0)
(3 -1.11595e-13 0)
(3 -2.35641e-13 0)
(3 -3.41471e-12 0)
(3 -4.35739e-12 0)
(3 -8.89188e-11 0)
(3 8.93855e-10 0)
(3 3.31513e-08 0)
(3 7.93486e-07 0)
(3 6.9381e-07 0)
(3 1.18366e-05 0)
(2.99931 -0.00113475 0)
(2.98733 -0.0235206 0)
(2.8626 -0.195691 0)
(2.58743 -0.558084 0)
(2.46995 -0.712572 0)
(2.34741 -0.835858 0)
(2.32121 -0.856009 0)
(3 1.06074e-15 0)
(3 1.55442e-15 0)
(3 2.48051e-15 0)
(3 -1.16454e-15 0)
(3 -3.8897e-14 0)
(3 -3.46185e-13 0)
(3 -5.77872e-13 0)
(3 -1.17213e-12 0)
(3 -8.05269e-12 0)
(3 -1.5905e-11 0)
(3 -4.08964e-11 0)
(3 1.90248e-08 0)
(3 7.03263e-08 0)
(3 3.24843e-06 0)
(3 4.59296e-06 0)
(2.99998 -2.50377e-05 0)
(2.99805 -0.00347911 0)
(2.94131 -0.0799652 0)
(2.78914 -0.297387 0)
(2.51252 -0.645281 0)
(2.31246 -0.88936 0)
(2.29598 -0.855536 0)
(2.31934 -0.843696 0)
(2.32324 -0.84345 0)
(3 -8.82369e-16 0)
(3 -3.37079e-15 0)
(3 -4.63322e-14 0)
(3 -1.89539e-12 0)
(3 -4.40574e-12 0)
(3 -3.56522e-12 0)
(3 -2.19807e-12 0)
(3 -2.67963e-12 0)
(3 -1.08419e-10 0)
(3 1.17927e-09 0)
(3 1.02048e-08 0)
(3 9.98464e-07 0)
(3 2.91141e-06 0)
(3.00001 1.87546e-05 0)
(2.99973 -0.000384649 0)
(2.98281 -0.0234744 0)
(2.90264 -0.143303 0)
(2.59882 -0.53477 0)
(2.37686 -0.784878 0)
(2.34563 -0.809742 0)
(2.31657 -0.840003 0)
(2.31678 -0.840952 0)
(2.32498 -0.840948 0)
(2.33303 -0.838353 0)
(3 -7.1838e-15 0)
(3 5.89484e-14 0)
(3 -2.74022e-11 0)
(3 -2.30717e-11 0)
(3 -2.74523e-11 0)
(3 8.04363e-11 0)
(3 5.46735e-10 0)
(3 7.30292e-10 0)
(3 1.65228e-08 0)
(3 2.9113e-07 0)
(3 6.33867e-06 0)
(3.00001 3.3483e-06 0)
(3 4.62821e-05 0)
(2.99464 -0.00766819 0)
(2.95532 -0.0647996 0)
(2.7015 -0.376966 0)
(2.50974 -0.631807 0)
(2.39583 -0.77917 0)
(2.30509 -0.857142 0)
(2.29017 -0.86961 0)
(2.30989 -0.863396 0)
(2.32731 -0.845545 0)
(2.33563 -0.843073 0)
(2.34031 -0.842525 0)
(3 1.3351e-12 0)
(3 -8.02261e-11 0)
(3 -3.37643e-10 0)
(3 1.43672e-09 0)
(3 1.75498e-09 0)
(3 3.44065e-08 0)
(3 7.06553e-08 0)
(3 3.23201e-07 0)
(3 6.03726e-06 0)
(3 5.68043e-06 0)
(3.00003 6.56181e-05 0)
(2.99872 -0.0017981 0)
(2.97616 -0.0319926 0)
(2.78446 -0.263155 0)
(2.6248 -0.509223 0)
(2.36335 -0.808127 0)
(2.25375 -0.924854 0)
(2.27054 -0.902312 0)
(2.30616 -0.876426 0)
(2.32173 -0.868674 0)
(2.33814 -0.858317 0)
(2.34888 -0.8488 0)
(2.35212 -0.842485 0)
(2.35032 -0.842232 0)
(3 7.21824e-11 0)
(3 -1.44746e-09 0)
(3 6.1284e-08 0)
(3 1.50798e-07 0)
(3 7.26268e-07 0)
(3 6.74789e-07 0)
(3 3.46587e-06 0)
(3 5.17384e-06 0)
(3.00004 7.97549e-05 0)
(2.99942 -0.000761204 0)
(2.98347 -0.0214304 0)
(2.86819 -0.17015 0)
(2.69551 -0.440728 0)
(2.35694 -0.826827 0)
(2.33288 -0.85776 0)
(2.30454 -0.884466 0)
(2.30716 -0.880329 0)
(2.31512 -0.873496 0)
(2.34185 -0.85858 0)
(2.35742 -0.846568 0)
(2.36232 -0.843066 0)
(2.36149 -0.840517 0)
(2.35987 -0.84248 0)
(2.35377 -0.849354 0)
(3 2.30349e-10 0)
(3 4.4968e-07 0)
(3 1.25679e-06 0)
(3 1.61719e-06 0)
(3.00001 8.88919e-06 0)
(2.99999 -2.3602e-05 0)
(3 1.14935e-05 0)
(2.99943 -0.00081023 0)
(2.98725 -0.0216098 0)
(2.92054 -0.141193 0)
(2.71365 -0.45891 0)
(2.44279 -0.781805 0)
(2.36458 -0.869311 0)
(2.29786 -0.945541 0)
(2.2839 -0.946843 0)
(2.29968 -0.923024 0)
(2.32646 -0.884234 0)
(2.35008 -0.852078 0)
(2.36013 -0.84145 0)
(2.36262 -0.836707 0)
(2.3622 -0.838594 0)
(2.35981 -0.842145 0)
(2.35636 -0.846542 0)
(2.35213 -0.848034 0)
(3 -5.493e-07 0)
(3.00003 -1.38062e-05 0)
(3.00001 8.4638e-05 0)
(2.99982 -0.000196294 0)
(2.99866 -0.00183313 0)
(2.99117 -0.0127323 0)
(2.96506 -0.0547347 0)
(2.90371 -0.166594 0)
(2.75495 -0.428963 0)
(2.61395 -0.687848 0)
(2.43668 -0.854014 0)
(2.33579 -0.931814 0)
(2.29243 -0.913738 0)
(2.30497 -0.895579 0)
(2.31035 -0.896635 0)
(2.33699 -0.878082 0)
(2.35687 -0.849151 0)
(2.36397 -0.846366 0)
(2.36208 -0.84764 0)
(2.358 -0.848053 0)
(2.35131 -0.849551 0)
(2.34748 -0.851465 0)
(2.34683 -0.850603 0)
(2.34556 -0.849676 0)
(2.99846 -0.0016129 0)
(2.99036 -0.0119401 0)
(2.96248 -0.0470301 0)
(2.89908 -0.133977 0)
(2.8082 -0.270533 0)
(2.67824 -0.464195 0)
(2.52623 -0.688452 0)
(2.39844 -0.894958 0)
(2.21683 -1.07565 0)
(2.16596 -1.09796 0)
(2.13264 -1.04194 0)
(2.20106 -1.00186 0)
(2.24866 -0.947103 0)
(2.29476 -0.90157 0)
(2.33043 -0.862129 0)
(2.3481 -0.832541 0)
(2.35392 -0.828043 0)
(2.36161 -0.834502 0)
(2.35594 -0.843158 0)
(2.35037 -0.849038 0)
(2.34363 -0.85098 0)
(2.33989 -0.85169 0)
(2.34092 -0.850186 0)
(2.34059 -0.84918 0)
(2.9318 -0.0318529 0)
(2.84936 -0.0575129 0)
(2.75802 -0.137108 0)
(2.66188 -0.251283 0)
(2.58616 -0.338132 0)
(2.49702 -0.446697 0)
(2.42105 -0.546708 0)
(2.35218 -0.628176 0)
(2.31239 -0.721267 0)
(2.25768 -0.796467 0)
(2.24816 -0.857227 0)
(2.28569 -0.883473 0)
(2.32757 -0.899769 0)
(2.33502 -0.88899 0)
(2.34362 -0.879722 0)
(2.34583 -0.868605 0)
(2.34852 -0.85524 0)
(2.34978 -0.850514 0)