/*--------------------------------*- C++ -*----------------------------------*\
  =========                 |
  \\      /  F ield         | OpenFOAM: The Open Source CFD Toolbox
   \\    /   O peration     | Website:  https://openfoam.org
    \\  /    A nd           | Version:  7
     \\/     M anipulation  |
\*---------------------------------------------------------------------------*/
FoamFile
{
    version     2.0;
    format      ascii;
    class       volVectorField;
    location    "0.7";
    object      U;
}
// * * * * * * * * * * * * * * * * * * * * * * * * * * * * * * * * * * * * * //

dimensions      [0 1 -1 0 0 0 0];

internalField   nonuniform List<vector> 
73728
(
(3 -1.06511e-16 0)
(3 -2.33531e-16 0)
(3 -2.71822e-16 0)
(3 -3.88802e-16 0)
(3 -1.82713e-16 0)
(3 1.0697e-18 0)
(3 2.52332e-16 0)
(3 4.45141e-16 0)
(3 -7.6908e-16 0)
(3 -1.18061e-15 0)
(3 -2.16743e-15 0)
(3 -2.03361e-15 0)
(3 -1.82938e-15 0)
(3 -1.42312e-15 0)
(3 -1.18401e-15 0)
(3 -1.21573e-15 0)
(3 -1.09617e-15 0)
(3 -6.90199e-16 0)
(3 -3.16641e-16 0)
(3 -5.67167e-16 0)
(3 -7.07267e-16 0)
(3 -3.96733e-16 0)
(3 -8.40222e-17 0)
(3 -5.11424e-18 0)
(3 6.32067e-16 0)
(3 8.06781e-16 0)
(3 6.90765e-16 0)
(3 7.41364e-16 0)
(3 9.69525e-16 0)
(3 2.37988e-16 0)
(3 2.73617e-16 0)
(3 1.26219e-16 0)
(3 1.26489e-16 0)
(3 1.76627e-16 0)
(3 2.32348e-16 0)
(3 3.07148e-16 0)
(3 6.29555e-16 0)
(3 1.09383e-15 0)
(3 1.34127e-15 0)
(3 2.08192e-15 0)
(3 2.50827e-15 0)
(3 1.82759e-15 0)
(3 1.12518e-15 0)
(3 4.82367e-17 0)
(3 1.62665e-16 0)
(3 7.88659e-16 0)
(3 -5.46899e-16 0)
(3 -1.38536e-15 0)
(3 -1.97249e-15 0)
(3 -7.3729e-16 0)
(3 -1.55997e-16 0)
(3 1.49703e-17 0)
(3 -6.39713e-16 0)
(3 -6.89686e-16 0)
(3 -5.50595e-16 0)
(3 -6.07612e-16 0)
(3 -3.02054e-16 0)
(3 1.18383e-15 0)
(3 2.14546e-15 0)
(3 1.0814e-15 0)
(3 5.52664e-16 0)
(3 9.33548e-18 0)
(3 -8.48225e-16 0)
(3 -1.39414e-15 0)
(3 -1.26403e-15 0)
(3 -9.8047e-16 0)
(3 -1.23451e-15 0)
(3 -1.65833e-15 0)
(3 -2.47691e-15 0)
(3 -2.81999e-15 0)
(3 -2.36048e-15 0)
(3 -1.52965e-15 0)
(3 -1.10401e-15 0)
(3 -6.20065e-16 0)
(3 4.99997e-16 0)
(3 1.80202e-15 0)
(3 2.54092e-15 0)
(3 2.58837e-15 0)
(3 2.17299e-15 0)
(3 1.5218e-15 0)
(3 1.31999e-15 0)
(3 1.10397e-15 0)
(3 3.64791e-16 0)
(3 -4.73251e-16 0)
(3 -1.63616e-15 0)
(3 -1.64771e-15 0)
(3 -1.37311e-15 0)
(3 -1.24713e-15 0)
(3 -1.152e-15 0)
(3 -1.43871e-15 0)
(3 -1.82552e-15 0)
(3 -2.03859e-15 0)
(3 -2.12518e-15 0)
(3 -2.0785e-15 0)
(3 -9.14292e-16 0)
(3 5.18831e-17 0)
(3 -8.44979e-17 0)
(3 -4.74763e-16 0)
(3 -5.19285e-16 0)
(3 -4.51441e-16 0)
(3 9.56975e-17 0)
(3 3.89929e-16 0)
(3 3.12313e-16 0)
(3 1.72984e-16 0)
(3 -1.60675e-16 0)
(3 -5.47507e-16 0)
(3 -1.40886e-15 0)
(3 -1.35608e-15 0)
(3 -1.44487e-15 0)
(3 -1.3202e-15 0)
(3 -1.10427e-15 0)
(3 -5.48542e-16 0)
(3 -2.95106e-16 0)
(3 -4.90632e-16 0)
(3 -2.08302e-16 0)
(3 -5.69678e-16 0)
(3 -9.96516e-16 0)
(3 -9.28355e-16 0)
(3 -6.57187e-16 0)
(3 -6.60391e-16 0)
(3 4.70956e-17 0)
(3 1.23729e-15 0)
(3 1.23766e-15 0)
(3 1.04514e-15 0)
(3 9.23939e-16 0)
(3 -6.65645e-17 0)
(3 4.32704e-16 0)
(3 5.66771e-16 0)
(3 5.3894e-16 0)
(3 6.72576e-16 0)
(3 9.63725e-16 0)
(3 1.70493e-15 0)
(3 3.23867e-15 0)
(3 3.90265e-15 0)
(3 3.24167e-15 0)
(3 3.16681e-15 0)
(3 3.21818e-15 0)
(3 2.50651e-15 0)
(3 8.54337e-16 0)
(3 -4.98517e-18 0)
(3 3.15441e-16 0)
(3 1.29003e-16 0)
(3 -8.44478e-16 0)
(3 -2.73202e-15 0)
(3 -3.19864e-15 0)
(3 -2.8694e-15 0)
(3 -1.19606e-15 0)
(3 -1.33921e-15 0)
(3 -2.22197e-15 0)
(3 -2.50935e-15 0)
(3 -1.48106e-15 0)
(3 -1.23749e-15 0)
(3 -4.94806e-16 0)
(3 3.55698e-16 0)
(3 1.01475e-15 0)
(3 8.52768e-16 0)
(3 4.00187e-16 0)
(3 -1.12484e-15 0)
(3 -2.12159e-15 0)
(3 -3.61362e-15 0)
(3 -3.38619e-15 0)
(3 -2.19625e-15 0)
(3 -1.96892e-15 0)
(3 -2.78742e-15 0)
(3 -3.97665e-15 0)
(3 -3.05555e-15 0)
(3 -2.57546e-15 0)
(3 -1.04958e-15 0)
(3 -6.0896e-16 0)
(3 -2.16829e-16 0)
(3 1.99889e-15 0)
(3 4.2429e-15 0)
(3 6.06904e-15 0)
(3 6.7521e-15 0)
(3 6.07888e-15 0)
(3 4.36554e-15 0)
(3 3.5431e-15 0)
(3 2.76463e-15 0)
(3 9.9019e-17 0)
(3 -1.60114e-15 0)
(3 -2.52829e-15 0)
(3 -2.4549e-15 0)
(3 -2.52004e-15 0)
(3 -2.72146e-15 0)
(3 -1.42553e-15 0)
(3 -1.32658e-15 0)
(3 -1.61638e-15 0)
(3 -1.96028e-15 0)
(3 -1.48548e-15 0)
(3 -9.82614e-16 0)
(3 -8.69097e-17 0)
(3 1.32785e-16 0)
(3 8.71129e-17 0)
(3 -1.38811e-16 0)
(3 -5.28567e-18 0)
(3 1.9725e-16 0)
(3 5.20982e-16 0)
(3 1.19067e-15 0)
(3 1.18298e-15 0)
(3 7.15166e-16 0)
(3 8.01566e-16 0)
(3 1.07071e-15 0)
(3 1.14916e-15 0)
(3 3.39752e-16 0)
(3 -3.0618e-16 0)
(3 -5.20024e-16 0)
(3 -4.02013e-16 0)
(3 3.95517e-16 0)
(3 4.73627e-16 0)
(3 -8.6153e-16 0)
(3 -7.54849e-16 0)
(3 -2.97123e-16 0)
(3 -1.15653e-17 0)
(3 6.18409e-16 0)
(3 1.49143e-15 0)
(3 1.10775e-15 0)
(3 8.38303e-16 0)
(3 1.29053e-15 0)
(3 1.381e-15 0)
(3 7.26093e-16 0)
(3 4.66775e-16 0)
(3 6.40719e-16 0)
(3 4.93377e-16 0)
(3 5.10216e-16 0)
(3 5.16308e-17 0)
(3 -5.34434e-16 0)
(3 4.80322e-16 0)
(3 1.12521e-15 0)
(3 1.14406e-15 0)
(3 1.47162e-15 0)
(3 2.12762e-15 0)
(3 2.53675e-15 0)
(3 2.28667e-15 0)
(3 1.56915e-15 0)
(3 1.14696e-15 0)
(3 1.33203e-15 0)
(3 9.96514e-16 0)
(3 -1.67732e-16 0)
(3 -5.0157e-16 0)
(3 -1.06881e-15 0)
(3 -2.38757e-15 0)
(3 -2.71805e-15 0)
(3 -3.26366e-15 0)
(3 -3.25518e-15 0)
(3 -3.06487e-15 0)
(3 -3.33046e-15 0)
(3 -2.38774e-15 0)
(3 -4.58147e-16 0)
(3 -2.23794e-16 0)
(3 -5.33854e-16 0)
(3 -3.66298e-16 0)
(3 3.33313e-16 0)
(3 -7.3988e-17 0)
(3 -1.18061e-15 0)
(3 -1.98665e-15 0)
(3 -2.25559e-15 0)
(3 -2.00445e-15 0)
(3 -1.52609e-15 0)
(3 -1.25857e-16 0)
(3 -2.87943e-16 0)
(3 -4.68743e-16 0)
(3 1.09932e-17 0)
(3 2.64779e-16 0)
(3 3.08186e-16 0)
(3 3.80496e-16 0)
(3 1.65014e-16 0)
(3 1.46851e-15 0)
(3 2.68007e-15 0)
(3 3.21885e-15 0)
(3 3.48899e-15 0)
(3 3.17772e-15 0)
(3 2.28828e-15 0)
(3 1.17653e-15 0)
(3 9.01832e-16 0)
(3 -4.61525e-16 0)
(3 -1.12112e-15 0)
(3 -1.95319e-15 0)
(3 -3.65859e-15 0)
(3 -3.97125e-15 0)
(3 -3.70802e-15 0)
(3 -2.35333e-15 0)
(3 -9.38093e-16 0)
(3 -7.9158e-16 0)
(3 1.71447e-17 0)
(3 1.70516e-15 0)
(3 1.94608e-15 0)
(3 1.68399e-15 0)
(3 7.21405e-16 0)
(3 1.68489e-16 0)
(3 2.04403e-16 0)
(3 4.97381e-16 0)
(3 1.9807e-16 0)
(3 -1.87117e-16 0)
(3 -2.73022e-16 0)
(3 -2.59999e-16 0)
(3 -5.13476e-16 0)
(3 6.03362e-17 0)
(3 1.79608e-17 0)
(3 -1.5693e-16 0)
(3 -3.80518e-16 0)
(3 1.25389e-16 0)
(3 8.06764e-16 0)
(3 4.94141e-16 0)
(3 8.803e-17 0)
(3 -4.30631e-16 0)
(3 -1.30182e-15 0)
(3 -2.18127e-15 0)
(3 -2.65478e-15 0)
(3 -1.6791e-15 0)
(3 1.14034e-15 0)
(3 2.52959e-15 0)
(3 2.24705e-15 0)
(3 1.38091e-15 0)
(3 6.35642e-16 0)
(3 8.53594e-17 0)
(3 1.34383e-16 0)
(3 8.68284e-16 0)
(3 2.23293e-15 0)
(3 1.83037e-15 0)
(3 4.01054e-16 0)
(3 -5.74934e-16 0)
(3 -2.0065e-15 0)
(3 -2.30967e-15 0)
(3 -2.087e-15 0)
(3 -2.16446e-15 0)
(3 -1.39284e-15 0)
(3 -3.21862e-16 0)
(3 4.9445e-16 0)
(3 9.53845e-16 0)
(3 5.8393e-16 0)
(3 7.2798e-16 0)
(3 1.69975e-15 0)
(3 1.66019e-15 0)
(3 1.3776e-15 0)
(3 6.02763e-16 0)
(3 -1.28539e-15 0)
(3 -1.97152e-15 0)
(3 -1.83918e-15 0)
(3 -2.3037e-15 0)
(3 -2.72114e-15 0)
(3 -2.07963e-15 0)
(3 -1.16155e-15 0)
(3 -7.75292e-16 0)
(3 -3.95697e-16 0)
(3 2.39637e-17 0)
(3 7.17611e-16 0)
(3 1.5851e-15 0)
(3 1.09309e-15 0)
(3 4.19254e-16 0)
(3 -5.51055e-16 0)
(3 -1.04678e-15 0)
(3 -1.19147e-15 0)
(3 -1.47954e-15 0)
(3 -1.00647e-15 0)
(3 3.21382e-17 0)
(3 1.29097e-15 0)
(3 2.48056e-15 0)
(3 2.65916e-15 0)
(3 2.81731e-15 0)
(3 2.76512e-15 0)
(3 2.7692e-15 0)
(3 1.48255e-15 0)
(3 1.86257e-15 0)
(3 2.38912e-15 0)
(3 1.23186e-15 0)
(3 1.23543e-16 0)
(3 -1.92054e-16 0)
(3 -7.71849e-16 0)
(3 -1.19981e-15 0)
(3 -1.28614e-15 0)
(3 -1.16085e-15 0)
(3 -1.38068e-15 0)
(3 -2.125e-15 0)
(3 -3.10187e-15 0)
(3 -3.05169e-15 0)
(3 -2.5686e-15 0)
(3 -1.71812e-15 0)
(3 -4.91628e-16 0)
(3 -1.83934e-16 0)
(3 1.16229e-15 0)
(3 2.68756e-15 0)
(3 3.11745e-15 0)
(3 2.48252e-15 0)
(3 -4.59827e-16 0)
(3 1.41296e-16 0)
(3 2.41532e-16 0)
(3 2.19536e-16 0)
(3 -2.33546e-16 0)
(3 -1.30345e-15 0)
(3 -2.42592e-15 0)
(3 -2.60789e-15 0)
(3 -1.56409e-15 0)
(3 -1.02817e-15 0)
(3 -5.31298e-16 0)
(3 -3.21698e-16 0)
(3 -1.54887e-16 0)
(3 -5.0865e-17 0)
(3 4.35581e-17 0)
(3 2.06714e-17 0)
(3 4.74594e-16 0)
(3 -1.7359e-16 0)
(3 -7.06072e-16 0)
(3 -1.00573e-15 0)
(3 -1.40099e-16 0)
(3 4.7667e-16 0)
(3 2.92787e-16 0)
(3 2.97288e-16 0)
(3 5.19213e-16 0)
(3 6.74666e-18 0)
(3 -7.17977e-16 0)
(3 -8.6138e-16 0)
(3 4.07465e-16 0)
(3 1.20073e-15 0)
(3 1.68916e-15 0)
(3 1.03768e-15 0)
(3 7.65569e-17 0)
(3 1.65916e-16 0)
(3 -2.04322e-16 0)
(3 -2.20741e-15 0)
(3 -3.18758e-15 0)
(3 -3.15681e-15 0)
(3 -2.3916e-15 0)
(3 -1.66404e-15 0)
(3 -8.14791e-16 0)
(3 -4.10107e-17 0)
(3 4.56484e-16 0)
(3 1.33636e-15 0)
(3 2.23026e-15 0)
(3 2.78421e-15 0)
(3 2.7735e-15 0)
(3 1.89672e-15 0)
(3 8.17437e-16 0)
(3 3.88064e-16 0)
(3 2.2937e-17 0)
(3 3.01689e-16 0)
(3 4.80694e-16 0)
(3 3.69341e-16 0)
(3 4.63915e-16 0)
(3 7.99983e-16 0)
(3 2.43458e-16 0)
(3 -2.25497e-16 0)
(3 -4.41875e-16 0)
(3 1.38457e-17 0)
(3 -3.1728e-16 0)
(3 -4.29634e-16 0)
(3 -1.9608e-16 0)
(3 4.12879e-16 0)
(3 7.47991e-16 0)
(3 4.67526e-16 0)
(3 5.58444e-16 0)
(3 8.71136e-16 0)
(3 1.68911e-15 0)
(3 2.39538e-15 0)
(3 3.69447e-15 0)
(3 4.7766e-15 0)
(3 4.82151e-15 0)
(3 4.6299e-15 0)
(3 4.64475e-15 0)
(3 4.51196e-15 0)
(3 4.98662e-15 0)
(3 2.51836e-15 0)
(3 -1.86941e-15 0)
(3 -2.48564e-15 0)
(3 -2.68985e-15 0)
(3 -2.11481e-15 0)
(3 -1.94002e-15 0)
(3 -1.05655e-15 0)
(3 -5.34631e-16 0)
(3 -5.06558e-16 0)
(3 -8.29789e-17 0)
(3 2.86112e-16 0)
(3 3.10893e-17 0)
(3 6.16156e-16 0)
(3 1.1585e-15 0)
(3 1.4124e-15 0)
(3 2.01078e-15 0)
(3 2.82628e-15 0)
(3 2.2571e-15 0)
(3 2.87266e-17 0)
(3 -3.08985e-15 0)
(3 -6.82217e-17 0)
(3 3.4905e-17 0)
(3 -1.41254e-16 0)
(3 -6.33005e-16 0)
(3 -1.10577e-15 0)
(3 -1.42175e-15 0)
(3 -1.30001e-15 0)
(3 -6.0513e-16 0)
(3 -2.824e-16 0)
(3 1.91513e-16 0)
(3 7.89835e-16 0)
(3 7.69592e-16 0)
(3 4.79954e-16 0)
(3 -8.11359e-16 0)
(3 -9.69461e-16 0)
(3 -1.30255e-15 0)
(3 -6.85195e-16 0)
(3 -4.33881e-16 0)
(3 9.44979e-17 0)
(3 5.77852e-16 0)
(3 7.12211e-16 0)
(3 3.26553e-16 0)
(3 2.15381e-16 0)
(3 1.20676e-16 0)
(3 1.9891e-16 0)
(3 7.56006e-16 0)
(3 9.59303e-16 0)
(3 1.55969e-15 0)
(3 1.83348e-15 0)
(3 1.22637e-15 0)
(3 3.34689e-17 0)
(3 3.05331e-16 0)
(3 1.49615e-15 0)
(3 1.55526e-15 0)
(3 6.01542e-16 0)
(3 -5.56684e-16 0)
(3 -4.3326e-16 0)
(3 -3.93651e-16 0)
(3 -7.60923e-16 0)
(3 -1.17702e-15 0)
(3 -1.31053e-15 0)
(3 -1.31941e-15 0)
(3 -1.13194e-15 0)
(3 -6.89378e-16 0)
(3 3.34163e-16 0)
(3 1.00661e-15 0)
(3 1.52877e-15 0)
(3 1.98032e-15 0)
(3 8.9235e-16 0)
(3 1.68996e-16 0)
(3 5.69762e-16 0)
(3 1.69351e-15 0)
(3 2.52019e-15 0)
(3 1.82883e-15 0)
(3 1.52553e-15 0)
(3 1.64729e-15 0)
(3 9.6149e-16 0)
(3 -9.34593e-17 0)
(3 -4.336e-16 0)
(3 -4.4428e-16 0)
(3 -1.59285e-15 0)
(3 -1.65826e-15 0)
(3 -3.72133e-16 0)
(3 8.21631e-16 0)
(3 7.264e-16 0)
(3 7.85048e-16 0)
(3 1.11143e-15 0)
(3 1.15695e-15 0)
(3 1.20693e-15 0)
(3 1.69864e-15 0)
(3 2.0306e-15 0)
(3 3.77188e-15 0)
(3 5.33471e-15 0)
(3 5.87802e-15 0)
(3 5.10248e-15 0)
(3 4.05602e-15 0)
(3 1.99834e-15 0)
(3 7.90984e-17 0)
(3 -1.57882e-15 0)
(3 -1.38913e-15 0)
(3 -1.53264e-15 0)
(3 -1.79494e-15 0)
(3 -1.94558e-15 0)
(3 -1.41514e-15 0)
(3 -1.055e-15 0)
(3 -1.38772e-15 0)
(3 -1.62189e-15 0)
(3 -3.58559e-16 0)
(3 6.42559e-16 0)
(3 7.8446e-16 0)
(3 1.23772e-15 0)
(3 1.06582e-15 0)
(3 1.56516e-15 0)
(3 1.11009e-15 0)
(3 4.58508e-17 0)
(3 -8.33331e-17 0)
(3 -7.62721e-18 0)
(3 3.33906e-16 0)
(3 1.57814e-16 0)
(3 1.86824e-16 0)
(3 4.82719e-16 0)
(3 1.24378e-16 0)
(3 -5.30554e-16 0)
(3 -8.2366e-16 0)
(3 -2.74795e-16 0)
(3 9.81954e-17 0)
(3 4.17749e-16 0)
(3 7.64774e-16 0)
(3 1.18599e-15 0)
(3 1.13564e-15 0)
(3 5.35602e-16 0)
(3 -1.48007e-15 0)
(3 -1.5866e-15 0)
(3 -1.44144e-15 0)
(3 -5.56014e-16 0)
(3 -4.7742e-16 0)
(3 -4.79575e-16 0)
(3 3.72743e-16 0)
(3 1.12869e-15 0)
(3 1.12104e-15 0)
(3 9.47689e-16 0)
(3 9.24248e-16 0)
(3 1.27277e-15 0)
(3 1.25503e-15 0)
(3 6.74299e-16 0)
(3 5.52425e-17 0)
(3 -3.27045e-16 0)
(3 -1.45745e-16 0)
(3 5.02202e-16 0)
(3 7.42934e-16 0)
(3 4.43225e-16 0)
(3 8.22042e-17 0)
(3 3.84235e-16 0)
(3 8.36106e-16 0)
(3 -5.55263e-17 0)
(3 -1.63258e-15 0)
(3 -1.65322e-15 0)
(3 -2.13834e-15 0)
(3 -2.42822e-15 0)
(3 -2.16957e-15 0)
(3 -1.57829e-15 0)
(3 -8.26254e-16 0)
(3 8.97357e-17 0)
(3 3.2629e-16 0)
(3 -1.00727e-16 0)
(3 -5.29581e-16 0)
(3 -7.93584e-16 0)
(3 -8.76699e-17 0)
(3 1.92709e-16 0)
(3 1.38221e-15 0)
(3 2.3755e-15 0)
(3 2.6643e-15 0)
(3 2.82458e-15 0)
(3 1.3342e-15 0)
(3 6.78971e-16 0)
(3 5.2703e-17 0)
(3 -3.10425e-16 0)
(3 -2.25885e-16 0)
(3 -5.01464e-16 0)
(3 4.96504e-17 0)
(3 8.13098e-16 0)
(3 1.31476e-15 0)
(3 1.00722e-15 0)
(3 6.81398e-16 0)
(3 9.22804e-16 0)
(3 1.15797e-15 0)
(3 5.44651e-16 0)
(3 1.21865e-15 0)
(3 2.47208e-15 0)
(3 3.83153e-15 0)
(3 3.52461e-15 0)
(3 1.41623e-15 0)
(3 9.9134e-16 0)
(3 -5.83192e-16 0)
(3 -7.54971e-16 0)
(3 -1.10262e-15 0)
(3 -2.0126e-15 0)
(3 -2.25289e-15 0)
(3 -2.1318e-15 0)
(3 -1.70098e-15 0)
(3 -1.21352e-15 0)
(3 -1.08826e-15 0)
(3 -4.93273e-16 0)
(3 -1.9236e-16 0)
(3 -4.24237e-16 0)
(3 7.52321e-16 0)
(3 1.18645e-15 0)
(3 1.08229e-15 0)
(3 9.95748e-16 0)
(3 6.26813e-16 0)
(3 -3.73853e-16 0)
(3 -1.85549e-16 0)
(3 -4.53632e-17 0)
(3 -3.21029e-16 0)
(3 -1.52723e-16 0)
(3 2.9417e-16 0)
(3 5.93545e-16 0)
(3 5.72678e-16 0)
(3 1.36856e-16 0)
(3 -4.60801e-16 0)
(3 -2.29709e-16 0)
(3 -3.5782e-16 0)
(3 5.29192e-16 0)
(3 8.13215e-16 0)
(3 9.3074e-16 0)
(3 1.39613e-15 0)
(3 1.41607e-15 0)
(3 1.1358e-15 0)
(3 5.16199e-16 0)
(3 3.92101e-16 0)
(3 3.21052e-16 0)
(3 2.06014e-16 0)
(3 1.57651e-16 0)
(3 8.51754e-16 0)
(3 1.22195e-15 0)
(3 1.28502e-15 0)
(3 1.21751e-15 0)
(3 -2.66998e-16 0)
(3 -9.898e-16 0)
(3 -1.37382e-15 0)
(3 -1.39018e-15 0)
(3 -1.48594e-15 0)
(3 -1.07705e-15 0)
(3 -9.93678e-16 0)
(3 -7.41305e-16 0)
(3 -4.18224e-16 0)
(3 -4.52007e-17 0)
(3 1.29242e-16 0)
(3 -6.03824e-16 0)
(3 -1.03103e-15 0)
(3 -1.37231e-15 0)
(3 -1.67088e-15 0)
(3 -1.71383e-15 0)
(3 -1.5043e-15 0)
(3 -1.46381e-15 0)
(3 -2.04532e-15 0)
(3 -2.84136e-15 0)
(3 -2.243e-15 0)
(3 -1.5818e-15 0)
(3 -1.06004e-15 0)
(3 -2.33587e-16 0)
(3 2.06874e-16 0)
(3 9.34414e-17 0)
(3 -6.74956e-16 0)
(3 -2.06215e-15 0)
(3 -9.13918e-16 0)
(3 -2.64379e-16 0)
(3 -5.45915e-17 0)
(3 8.41899e-16 0)
(3 6.10212e-16 0)
(3 2.05449e-16 0)
(3 -3.28501e-16 0)
(3 4.23034e-16 0)
(3 6.49277e-16 0)
(3 -3.77549e-17 0)
(3 -3.01448e-16 0)
(3 -1.1529e-16 0)
(3 3.06004e-17 0)
(3 1.28272e-16 0)
(3 8.04983e-16 0)
(3 1.58529e-15 0)
(3 1.31574e-15 0)
(3 -1.79295e-16 0)
(3 -1.12264e-15 0)
(3 -1.3725e-15 0)
(3 -4.19301e-16 0)
(3 4.5339e-16 0)
(3 1.39263e-15 0)
(3 1.06419e-15 0)
(3 2.88442e-16 0)
(3 2.60234e-16 0)
(3 -8.76506e-16 0)
(3 -6.40323e-16 0)
(3 -3.97001e-16 0)
(3 -5.78294e-16 0)
(3 -8.73361e-16 0)
(3 -5.756e-16 0)
(3 -4.74026e-16 0)
(3 -1.10682e-15 0)
(3 -1.76721e-15 0)
(3 -1.82413e-15 0)
(3 -8.25569e-16 0)
(3 5.50901e-17 0)
(3 -1.53727e-16 0)
(3 -1.03977e-15 0)
(3 -2.50087e-15 0)
(3 -2.9285e-15 0)
(3 -3.1711e-15 0)
(3 -4.27934e-16 0)
(3 -7.48095e-16 0)
(3 -6.07006e-16 0)
(3 -2.45574e-16 0)
(3 2.69588e-16 0)
(3 8.76099e-16 0)
(3 1.26303e-15 0)
(3 8.23086e-16 0)
(3 6.00996e-17 0)
(3 -5.1269e-16 0)
(3 -1.55786e-16 0)
(3 2.55044e-16 0)
(3 5.47008e-16 0)
(3 8.60589e-16 0)
(3 1.33348e-15 0)
(3 1.88685e-15 0)
(3 1.76396e-15 0)
(3 1.51964e-15 0)
(3 1.53692e-15 0)
(3 1.75037e-15 0)
(3 2.25862e-15 0)
(3 1.92478e-15 0)
(3 1.21185e-15 0)
(3 5.80976e-16 0)
(3 1.3718e-16 0)
(3 -6.89419e-16 0)
(3 -1.90866e-15 0)
(3 -2.81454e-15 0)
(3 -2.84915e-15 0)
(3 -2.23097e-15 0)
(3 -1.99003e-16 0)
(3 2.17286e-16 0)
(3 -1.77143e-16 0)
(3 -7.33474e-16 0)
(3 -3.44383e-16 0)
(3 2.41251e-16 0)
(3 1.21449e-16 0)
(3 -4.29743e-16 0)
(3 -5.37209e-16 0)
(3 -3.34904e-16 0)
(3 -9.53651e-16 0)
(3 -1.26254e-15 0)
(3 -2.00038e-15 0)
(3 -2.37584e-15 0)
(3 -2.34307e-15 0)
(3 -1.77746e-15 0)
(3 -2.19896e-15 0)
(3 -2.44961e-15 0)
(3 -1.82125e-15 0)
(3 -8.53419e-16 0)
(3 -3.68541e-16 0)
(3 -4.86241e-16 0)
(3 -7.81236e-16 0)
(3 -1.08439e-15 0)
(3 -2.52962e-15 0)
(3 -3.18202e-15 0)
(3 -2.76911e-15 0)
(3 -2.3736e-15 0)
(3 -2.24658e-15 0)
(3 -1.95012e-15 0)
(3 -1.27108e-15 0)
(3 -1.16532e-15 0)
(3 -1.61221e-15 0)
(3 -1.37593e-15 0)
(3 -1.69045e-15 0)
(3 -2.5382e-15 0)
(3 -2.0852e-15 0)
(3 -1.08411e-15 0)
(3 -1.07663e-15 0)
(3 -1.73251e-15 0)
(3 -2.15201e-15 0)
(3 -2.04691e-15 0)
(3 -2.58867e-15 0)
(3 -3.11777e-15 0)
(3 -1.85676e-15 0)
(3 1.16854e-15 0)
(3 1.73547e-15 0)
(3 1.33425e-15 0)
(3 1.49685e-15 0)
(3 3.50756e-16 0)
(3 -2.30937e-15 0)
(3 -2.66274e-15 0)
(3 -3.46288e-15 0)
(3 -4.31912e-15 0)
(3 -4.84393e-15 0)
(3 -4.7717e-15 0)
(3 -4.47947e-15 0)
(3 -3.74066e-15 0)
(3 -2.61608e-15 0)
(3 -3.0714e-15 0)
(3 -3.2151e-15 0)
(3 -3.40504e-15 0)
(3 -4.93432e-15 0)
(3 -5.70051e-15 0)
(3 -5.10778e-15 0)
(3 -3.9397e-15 0)
(3 6.38959e-17 0)
(3 2.10418e-16 0)
(3 1.42525e-16 0)
(3 -1.37957e-19 0)
(3 6.5641e-17 0)
(3 9.45911e-16 0)
(3 1.35232e-15 0)
(3 7.15062e-16 0)
(3 -6.67746e-16 0)
(3 -1.39883e-15 0)
(3 -1.65647e-15 0)
(3 -1.37494e-15 0)
(3 -7.93784e-16 0)
(3 -4.3354e-16 0)
(3 -1.24626e-17 0)
(3 6.31198e-16 0)
(3 1.91828e-15 0)
(3 2.08155e-15 0)
(3 1.97143e-15 0)
(3 2.09985e-15 0)
(3 2.19387e-15 0)
(3 1.94182e-15 0)
(3 8.27922e-16 0)
(3 1.09124e-16 0)
(3 -5.07834e-16 0)
(3 -9.45417e-16 0)
(3 -9.87205e-16 0)
(3 -1.04845e-15 0)
(3 -1.44402e-15 0)
(3 -1.50905e-15 0)
(3 -1.38067e-15 0)
(3 1.52134e-16 0)
(3 1.38552e-16 0)
(3 -2.83026e-16 0)
(3 -6.55072e-16 0)
(3 -1.13042e-15 0)
(3 -9.90065e-16 0)
(3 -5.89238e-16 0)
(3 3.64925e-17 0)
(3 4.45085e-16 0)
(3 1.82847e-16 0)
(3 -1.00167e-15 0)
(3 -2.39709e-15 0)
(3 -2.41589e-15 0)
(3 -2.146e-15 0)
(3 -2.14735e-15 0)
(3 -1.90064e-15 0)
(3 -1.9872e-15 0)
(3 -1.94817e-15 0)
(3 -2.00165e-15 0)
(3 -1.89615e-15 0)
(3 -7.95382e-16 0)
(3 -1.9089e-16 0)
(3 -2.31255e-16 0)
(3 -2.74413e-16 0)
(3 -4.30151e-16 0)
(3 -3.96842e-16 0)
(3 -2.75661e-16 0)
(3 -1.38441e-16 0)
(3 -3.63424e-16 0)
(3 -3.78863e-16 0)
(3 -1.72198e-16 0)
(3 -5.84019e-16 0)
(3 -1.32275e-15 0)
(3 -1.54692e-15 0)
(3 -1.05227e-15 0)
(3 -2.96497e-16 0)
(3 -1.67685e-16 0)
(3 -6.09107e-16 0)
(3 -1.98951e-15 0)
(3 -1.14529e-15 0)
(3 -1.03855e-15 0)
(3 -8.02315e-16 0)
(3 -9.74157e-16 0)
(3 -6.95672e-16 0)
(3 -2.70753e-16 0)
(3 5.25838e-16 0)
(3 6.86762e-16 0)
(3 1.25008e-15 0)
(3 7.56153e-16 0)
(3 -4.82255e-16 0)
(3 -1.74353e-15 0)
(3 -2.59063e-15 0)
(3 -2.9382e-15 0)
(3 -3.54767e-15 0)
(3 -4.51904e-15 0)
(3 -4.32233e-15 0)
(3 -4.40453e-15 0)
(3 -4.24834e-15 0)
(3 -3.19513e-15 0)
(3 -3.09533e-15 0)
(3 -3.58919e-15 0)
(3 -3.44909e-15 0)
(3 -2.97591e-15 0)
(3 -3.03781e-15 0)
(3 -3.13043e-15 0)
(3 1.09818e-16 0)
(3 3.46473e-16 0)
(3 4.39454e-16 0)
(3 5.31939e-16 0)
(3 2.94792e-16 0)
(3 5.04696e-16 0)
(3 -2.91963e-17 0)
(3 -4.33394e-16 0)
(3 -4.09934e-16 0)
(3 -3.40872e-17 0)
(3 -1.40762e-15 0)
(3 -2.20854e-15 0)
(3 -2.088e-15 0)
(3 -1.9506e-15 0)
(3 -1.80461e-15 0)
(3 -4.48144e-16 0)
(3 -2.13526e-16 0)
(3 2.29601e-16 0)
(3 3.84597e-16 0)
(3 6.72032e-16 0)
(3 6.26368e-16 0)
(3 3.88745e-16 0)
(3 -6.03246e-16 0)
(3 -1.42323e-15 0)
(3 -1.46204e-15 0)
(3 -1.16585e-15 0)
(3 -3.92145e-16 0)
(3 -1.30855e-16 0)
(3 -2.54773e-16 0)
(3 -5.04567e-16 0)
(3 -1.15122e-15 0)
(3 -1.19739e-15 0)
(3 -6.50919e-16 0)
(3 6.21246e-16 0)
(3 2.74099e-16 0)
(3 1.74531e-16 0)
(3 -1.48047e-16 0)
(3 -1.01354e-15 0)
(3 -9.90179e-16 0)
(3 -1.06868e-15 0)
(3 -2.01599e-15 0)
(3 -2.41311e-15 0)
(3 -2.16398e-15 0)
(3 -1.43015e-15 0)
(3 -1.36571e-15 0)
(3 -1.14004e-15 0)
(3 1.51407e-16 0)
(3 6.05698e-16 0)
(3 6.18053e-17 0)
(3 -2.18301e-16 0)
(3 6.82891e-17 0)
(3 3.35067e-16 0)
(3 1.03537e-15 0)
(3 1.30827e-15 0)
(3 1.80579e-15 0)
(3 1.40778e-15 0)
(3 5.35296e-16 0)
(3 -1.35093e-16 0)
(3 -9.73658e-16 0)
(3 -7.75625e-16 0)
(3 2.07966e-16 0)
(3 3.73342e-16 0)
(3 1.6175e-16 0)
(3 -5.66362e-16 0)
(3 -7.53635e-16 0)
(3 1.22781e-16 0)
(3 3.26894e-16 0)
(3 -1.29625e-16 0)
(3 -5.51991e-16 0)
(3 -1.44369e-15 0)
(3 -1.28951e-15 0)
(3 -9.94252e-16 0)
(3 -1.59318e-16 0)
(3 5.69627e-16 0)
(3 1.17815e-16 0)
(3 1.56535e-16 0)
(3 5.2779e-16 0)
(3 1.62265e-15 0)
(3 1.14895e-15 0)
(3 6.51456e-16 0)
(3 5.105e-17 0)
(3 -3.76869e-16 0)
(3 -1.32698e-15 0)
(3 -1.67065e-15 0)
(3 -1.98348e-15 0)
(3 -2.21242e-15 0)
(3 -3.27536e-15 0)
(3 -4.15582e-15 0)
(3 -4.91285e-15 0)
(3 -5.18458e-15 0)
(3 -4.90762e-15 0)
(3 -3.68991e-15 0)
(3 -2.38746e-15 0)
(3 -1.89239e-15 0)
(3 -2.37679e-15 0)
(3 -2.49439e-15 0)
(3 -2.24894e-16 0)
(3 -3.2983e-16 0)
(3 -6.63526e-17 0)
(3 8.09093e-16 0)
(3 1.02697e-15 0)
(3 3.70855e-16 0)
(3 -9.19409e-16 0)
(3 -8.84374e-16 0)
(3 -4.2675e-16 0)
(3 6.83094e-16 0)
(3 5.11322e-16 0)
(3 5.37734e-16 0)
(3 2.15678e-16 0)
(3 -7.542e-17 0)
(3 -5.55107e-16 0)
(3 -7.57628e-16 0)
(3 -1.16186e-15 0)
(3 -8.43443e-16 0)
(3 -4.68448e-16 0)
(3 -2.36622e-16 0)
(3 1.13863e-16 0)
(3 1.4774e-16 0)
(3 -1.37158e-16 0)
(3 -5.68571e-16 0)
(3 -4.79723e-16 0)
(3 1.16976e-16 0)
(3 4.36389e-16 0)
(3 6.18721e-16 0)
(3 5.50525e-16 0)
(3 6.52232e-16 0)
(3 4.6501e-16 0)
(3 2.63151e-16 0)
(3 1.65255e-16 0)
(3 4.77176e-16 0)
(3 1.14369e-15 0)
(3 1.37972e-15 0)
(3 1.14858e-15 0)
(3 -2.05292e-16 0)
(3 -8.75378e-16 0)
(3 -1.53418e-15 0)
(3 -1.94233e-15 0)
(3 -1.57149e-15 0)
(3 -4.53733e-16 0)
(3 2.29073e-16 0)
(3 5.78527e-16 0)
(3 8.13026e-16 0)
(3 1.26164e-15 0)
(3 1.98103e-15 0)
(3 1.76658e-15 0)
(3 7.55417e-16 0)
(3 -3.47259e-17 0)
(3 -8.91034e-17 0)
(3 1.47635e-15 0)
(3 1.96625e-15 0)
(3 2.63391e-15 0)
(3 2.19509e-15 0)
(3 7.5285e-16 0)
(3 -5.42992e-16 0)
(3 -2.20306e-15 0)
(3 -2.47193e-15 0)
(3 -1.5219e-15 0)
(3 -6.3083e-16 0)
(3 -2.33433e-16 0)
(3 -2.6967e-16 0)
(3 -5.56908e-16 0)
(3 -4.12925e-16 0)
(3 1.06016e-16 0)
(3 -1.127e-15 0)
(3 -2.45126e-15 0)
(3 -2.90024e-15 0)
(3 -3.2808e-15 0)
(3 -2.14596e-15 0)
(3 -5.02779e-16 0)
(3 -6.02718e-16 0)
(3 -4.84526e-16 0)
(3 -4.38169e-16 0)
(3 -2.40553e-16 0)
(3 4.87084e-16 0)
(3 2.35489e-16 0)
(3 -7.59707e-16 0)
(3 -1.69589e-15 0)
(3 -1.95519e-15 0)
(3 -1.79786e-15 0)
(3 -1.46555e-15 0)
(3 -1.2545e-15 0)
(3 -1.69223e-15 0)
(3 -2.8281e-15 0)
(3 -3.39846e-15 0)
(3 -3.49958e-15 0)
(3 -3.94521e-15 0)
(3 -4.81896e-15 0)
(3 -5.27085e-15 0)
(3 -5.2247e-15 0)
(3 -3.91115e-15 0)
(3 -3.58682e-15 0)
(3 -3.75855e-15 0)
(3 -1.16777e-16 0)
(3 -2.55322e-16 0)
(3 -2.87012e-16 0)
(3 2.68014e-16 0)
(3 3.96649e-16 0)
(3 -5.42251e-16 0)
(3 -7.23329e-16 0)
(3 -5.24733e-16 0)
(3 2.07983e-16 0)
(3 9.65169e-16 0)
(3 1.78586e-15 0)
(3 2.04886e-15 0)
(3 1.55727e-15 0)
(3 3.30764e-16 0)
(3 -1.17971e-15 0)
(3 -1.26492e-15 0)
(3 -7.08316e-16 0)
(3 2.8127e-16 0)
(3 7.20102e-16 0)
(3 7.9148e-16 0)
(3 4.68448e-16 0)
(3 1.83175e-16 0)
(3 6.83897e-16 0)
(3 7.31628e-16 0)
(3 1.42716e-15 0)
(3 1.65201e-15 0)
(3 1.71895e-15 0)
(3 1.27347e-15 0)
(3 1.4372e-15 0)
(3 1.51548e-15 0)
(3 2.24837e-15 0)
(3 1.86334e-15 0)
(3 1.07009e-15 0)
(3 5.27116e-16 0)
(3 6.78114e-16 0)
(3 1.05823e-16 0)
(3 3.86379e-18 0)
(3 -1.32719e-16 0)
(3 -8.02067e-16 0)
(3 -9.92761e-16 0)
(3 1.19725e-17 0)
(3 -7.05471e-17 0)
(3 4.25718e-17 0)
(3 -1.12652e-16 0)
(3 -7.89573e-16 0)
(3 -8.77337e-16 0)
(3 -8.65266e-16 0)
(3 -9.81291e-17 0)
(3 3.52853e-16 0)
(3 6.40674e-16 0)
(3 -5.62674e-16 0)
(3 -1.14101e-15 0)
(3 -4.94872e-16 0)
(3 1.85974e-16 0)
(3 2.98455e-16 0)
(3 -1.23501e-16 0)
(3 -1.07784e-15 0)
(3 -1.18681e-15 0)
(3 -1.54023e-15 0)
(3 -2.04123e-15 0)
(3 -1.6478e-15 0)
(3 -9.5583e-16 0)
(3 -4.51212e-16 0)
(3 -6.02189e-16 0)
(3 -9.88431e-16 0)
(3 -1.08724e-15 0)
(3 -2.28811e-15 0)
(3 -3.21946e-15 0)
(3 -3.18066e-15 0)
(3 -3.14077e-15 0)
(3 -3.34536e-15 0)
(3 -1.65805e-15 0)
(3 -1.26691e-15 0)
(3 -8.58517e-16 0)
(3 -5.36094e-16 0)
(3 -1.09146e-15 0)
(3 -1.66576e-15 0)
(3 -1.52932e-15 0)
(3 -9.35013e-16 0)
(3 -9.29891e-16 0)
(3 -1.28738e-15 0)
(3 -1.83849e-15 0)
(3 -1.73331e-15 0)
(3 -1.17188e-15 0)
(3 -1.16641e-15 0)
(3 -1.92151e-15 0)
(3 -2.87917e-15 0)
(3 -3.1979e-15 0)
(3 -2.25902e-15 0)
(3 -2.70179e-15 0)
(3 -4.16998e-15 0)
(3 -5.82347e-15 0)
(3 -5.73067e-15 0)
(3 -4.37967e-15 0)
(3 -3.5304e-15 0)
(3 -4.19443e-15 0)
(3 1.73949e-16 0)
(3 2.52035e-16 0)
(3 8.34859e-17 0)
(3 4.52754e-17 0)
(3 -6.74499e-19 0)
(3 1.39906e-16 0)
(3 6.4444e-16 0)
(3 1.05697e-15 0)
(3 1.71976e-15 0)
(3 2.10759e-15 0)
(3 1.70337e-15 0)
(3 6.651e-16 0)
(3 -6.53309e-16 0)
(3 -8.21883e-16 0)
(3 -1.36342e-15 0)
(3 -2.08621e-15 0)
(3 -7.00723e-16 0)
(3 -4.07169e-16 0)
(3 -1.68467e-16 0)
(3 2.16709e-16 0)
(3 3.50016e-16 0)
(3 -4.71065e-17 0)
(3 7.16245e-17 0)
(3 2.47123e-16 0)
(3 1.02714e-15 0)
(3 1.26082e-15 0)
(3 9.13636e-16 0)
(3 7.06758e-16 0)
(3 9.3487e-16 0)
(3 1.05037e-15 0)
(3 1.24412e-15 0)
(3 5.41403e-16 0)
(3 -1.52603e-16 0)
(3 -4.59929e-16 0)
(3 -3.43573e-16 0)
(3 -3.62478e-16 0)
(3 1.01836e-16 0)
(3 3.78315e-16 0)
(3 2.47663e-16 0)
(3 2.36369e-16 0)
(3 1.9027e-16 0)
(3 7.63139e-17 0)
(3 -3.17182e-16 0)
(3 -8.4591e-16 0)
(3 -1.1191e-15 0)
(3 -1.6195e-15 0)
(3 -1.5953e-15 0)
(3 -1.48301e-15 0)
(3 -7.41252e-16 0)
(3 1.22784e-15 0)
(3 8.63916e-16 0)
(3 -6.28623e-16 0)
(3 -6.15795e-16 0)
(3 -6.41229e-16 0)
(3 -1.25694e-15 0)
(3 -1.79806e-15 0)
(3 -2.99355e-15 0)
(3 -3.47582e-15 0)
(3 -2.90046e-15 0)
(3 -1.06782e-15 0)
(3 -8.31558e-16 0)
(3 -2.10465e-15 0)
(3 -2.05574e-15 0)
(3 -1.69289e-15 0)
(3 -2.00172e-15 0)
(3 -2.09972e-15 0)
(3 -1.96751e-15 0)
(3 -2.00824e-15 0)
(3 -1.70472e-15 0)
(3 -1.67307e-15 0)
(3 -1.61456e-15 0)
(3 -1.24364e-15 0)
(3 -1.33693e-15 0)
(3 -1.10867e-15 0)
(3 -8.21717e-16 0)
(3 -9.49333e-16 0)
(3 -1.44946e-15 0)
(3 -1.87337e-15 0)
(3 -1.90761e-15 0)
(3 -2.07914e-15 0)
(3 -8.28005e-16 0)
(3 -4.59255e-16 0)
(3 -9.55983e-17 0)
(3 -8.57916e-17 0)
(3 -9.48693e-16 0)
(3 -1.48615e-15 0)
(3 -1.39436e-15 0)
(3 -1.88889e-15 0)
(3 -1.19955e-15 0)
(3 -1.71392e-15 0)
(3 -2.91298e-15 0)
(3 -3.81271e-15 0)
(3 -4.0126e-15 0)
(3 -4.16115e-15 0)
(3 -3.95838e-15 0)
(3 -4.00703e-15 0)
(3 2.26916e-16 0)
(3 2.63312e-16 0)
(3 2.42928e-16 0)
(3 5.22955e-17 0)
(3 2.67283e-16 0)
(3 1.30908e-15 0)
(3 1.47447e-15 0)
(3 1.56169e-15 0)
(3 1.2367e-15 0)
(3 9.96368e-16 0)
(3 -5.04644e-16 0)
(3 -1.11896e-15 0)
(3 -1.23145e-15 0)
(3 -2.74138e-16 0)
(3 1.00148e-15 0)
(3 8.56541e-16 0)
(3 -1.04506e-15 0)
(3 -1.79874e-15 0)
(3 -1.67383e-15 0)
(3 -1.47201e-15 0)
(3 -2.81457e-16 0)
(3 -2.96507e-18 0)
(3 -1.83558e-16 0)
(3 4.56922e-17 0)
(3 6.44711e-17 0)
(3 1.16982e-16 0)
(3 8.57902e-17 0)
(3 1.55229e-16 0)
(3 -7.22272e-17 0)
(3 -1.74526e-16 0)
(3 -3.52269e-16 0)
(3 -3.15831e-16 0)
(3 3.47302e-17 0)
(3 -6.3067e-17 0)
(3 -1.04431e-16 0)
(3 -5.00109e-17 0)
(3 2.0819e-16 0)
(3 -1.48742e-16 0)
(3 1.87258e-16 0)
(3 3.24027e-16 0)
(3 4.47266e-16 0)
(3 7.12635e-16 0)
(3 4.99212e-16 0)
(3 9.88082e-16 0)
(3 1.06143e-15 0)
(3 9.47284e-16 0)
(3 7.12814e-16 0)
(3 1.09128e-15 0)
(3 1.43891e-15 0)
(3 1.94128e-15 0)
(3 1.58618e-15 0)
(3 1.07907e-15 0)
(3 3.81309e-16 0)
(3 -9.24341e-18 0)
(3 -5.56038e-16 0)
(3 -5.73706e-16 0)
(3 -4.28406e-16 0)
(3 -9.19625e-16 0)
(3 -5.8187e-16 0)
(3 -1.75573e-17 0)
(3 -1.15381e-16 0)
(3 -3.58583e-16 0)
(3 -9.14963e-16 0)
(3 -1.11125e-15 0)
(3 -1.18153e-15 0)
(3 -1.12798e-15 0)
(3 -6.1658e-16 0)
(3 -9.59245e-16 0)
(3 -1.65134e-15 0)
(3 -1.5245e-15 0)
(3 -6.85595e-16 0)
(3 -1.72084e-15 0)
(3 -2.86239e-15 0)
(3 -2.83836e-15 0)
(3 -2.398e-15 0)
(3 -1.52431e-15 0)
(3 -9.17781e-16 0)
(3 -1.70357e-15 0)
(3 -2.22821e-15 0)
(3 -1.73778e-15 0)
(3 -2.86256e-16 0)
(3 1.4817e-15 0)
(3 1.9443e-15 0)
(3 1.37425e-15 0)
(3 1.44716e-15 0)
(3 1.89629e-15 0)
(3 1.87547e-15 0)
(3 1.45861e-15 0)
(3 8.85279e-16 0)
(3 5.4029e-16 0)
(3 -9.33718e-16 0)
(3 -1.31548e-15 0)
(3 -1.81084e-15 0)
(3 -2.22932e-15 0)
(3 -2.75687e-15 0)
(3 -2.50655e-15 0)
(3 2.51393e-17 0)
(3 4.41478e-16 0)
(3 7.41173e-16 0)
(3 2.46679e-17 0)
(3 -3.74433e-16 0)
(3 -3.80339e-17 0)
(3 3.87529e-16 0)
(3 5.53631e-16 0)
(3 1.50375e-16 0)
(3 -3.04589e-16 0)
(3 -1.56575e-15 0)
(3 -1.87599e-15 0)
(3 -1.64499e-15 0)
(3 -1.48507e-15 0)
(3 -6.40099e-16 0)
(3 -9.11594e-17 0)
(3 -1.11474e-15 0)
(3 -1.49773e-15 0)
(3 -1.05461e-15 0)
(3 -1.15866e-15 0)
(3 -7.19439e-16 0)
(3 1.85242e-16 0)
(3 2.87967e-16 0)
(3 1.87347e-16 0)
(3 -2.86049e-16 0)
(3 -5.45512e-16 0)
(3 -2.79444e-16 0)
(3 -5.46006e-16 0)
(3 -9.11815e-16 0)
(3 -1.26335e-15 0)
(3 -1.64231e-15 0)
(3 -1.36375e-15 0)
(3 -6.68718e-16 0)
(3 -1.28203e-16 0)
(3 9.01192e-16 0)
(3 1.47647e-15 0)
(3 6.97531e-16 0)
(3 -5.06358e-16 0)
(3 -1.12156e-15 0)
(3 -8.58603e-16 0)
(3 -1.52518e-16 0)
(3 5.67858e-16 0)
(3 1.13999e-15 0)
(3 2.10219e-15 0)
(3 2.46322e-15 0)
(3 1.81775e-15 0)
(3 1.58276e-15 0)
(3 1.74597e-15 0)
(3 7.62489e-16 0)
(3 1.43776e-16 0)
(3 3.34999e-16 0)
(3 1.02796e-17 0)
(3 -6.84411e-16 0)
(3 -2.03838e-15 0)
(3 -3.07073e-15 0)
(3 -3.07693e-15 0)
(3 -2.05867e-15 0)
(3 -1.12272e-15 0)
(3 -7.43321e-16 0)
(3 -6.79993e-16 0)
(3 -9.61115e-16 0)
(3 -3.8368e-16 0)
(3 -2.49719e-16 0)
(3 -5.75151e-16 0)
(3 -1.12037e-15 0)
(3 -1.30556e-15 0)
(3 -2.03785e-15 0)
(3 -1.54853e-15 0)
(3 -1.80454e-15 0)
(3 -1.45717e-15 0)
(3 -8.39494e-16 0)
(3 -2.15513e-16 0)
(3 -2.27565e-16 0)
(3 -5.65519e-16 0)
(3 -1.15248e-15 0)
(3 -1.47377e-15 0)
(3 -1.06449e-15 0)
(3 -1.10987e-15 0)
(3 -1.00964e-15 0)
(3 -3.47481e-16 0)
(3 1.60953e-16 0)
(3 1.05398e-15 0)
(3 1.11449e-15 0)
(3 1.1762e-15 0)
(3 1.83629e-15 0)
(3 2.93319e-15 0)
(3 3.67381e-15 0)
(3 4.47336e-15 0)
(3 3.84355e-15 0)
(3 2.79764e-15 0)
(3 5.19076e-16 0)
(3 3.33607e-16 0)
(3 -5.77314e-16 0)
(3 -1.40556e-15 0)
(3 -1.40085e-15 0)
(3 -1.21302e-15 0)
(3 -3.37497e-17 0)
(3 -1.68767e-16 0)
(3 -6.6361e-17 0)
(3 -4.06815e-18 0)
(3 -4.07353e-16 0)
(3 -9.76631e-16 0)
(3 -1.26979e-15 0)
(3 -1.25529e-15 0)
(3 -1.21499e-15 0)
(3 -1.48264e-15 0)
(3 -1.30622e-15 0)
(3 -7.06684e-16 0)
(3 -5.48421e-16 0)
(3 -4.28396e-16 0)
(3 -2.03678e-16 0)
(3 1.74028e-16 0)
(3 1.1105e-16 0)
(3 -3.42297e-16 0)
(3 -5.78545e-16 0)
(3 -8.64383e-16 0)
(3 -1.82132e-15 0)
(3 -1.44277e-15 0)
(3 -1.0534e-15 0)
(3 -7.2699e-16 0)
(3 -6.97219e-16 0)
(3 -5.00556e-16 0)
(3 -4.23086e-16 0)
(3 -2.23316e-16 0)
(3 -4.62801e-16 0)
(3 -3.75555e-16 0)
(3 -7.53041e-16 0)
(3 -7.96207e-16 0)
(3 -1.97967e-16 0)
(3 5.73689e-16 0)
(3 1.12573e-15 0)
(3 1.39866e-15 0)
(3 4.49991e-16 0)
(3 2.38556e-16 0)
(3 2.86236e-16 0)
(3 1.95536e-16 0)
(3 -2.6766e-16 0)
(3 -5.32072e-16 0)
(3 1.29375e-16 0)
(3 1.66699e-15 0)
(3 2.47191e-15 0)
(3 3.50911e-15 0)
(3 4.16707e-15 0)
(3 3.74542e-15 0)
(3 2.71749e-15 0)
(3 6.14363e-16 0)
(3 2.33334e-16 0)