/*--------------------------------*- C++ -*----------------------------------*\
  =========                 |
  \\      /  F ield         | OpenFOAM: The Open Source CFD Toolbox
   \\    /   O peration     | Website:  https://openfoam.org
    \\  /    A nd           | Version:  7
     \\/     M anipulation  |
\*---------------------------------------------------------------------------*/
FoamFile
{
    version     2.0;
    format      ascii;
    class       volScalarField;
    location    "1.5";
    object      p;
}
// * * * * * * * * * * * * * * * * * * * * * * * * * * * * * * * * * * * * * //

dimensions      [1 -1 -2 0 0 0 0];

internalField   nonuniform List<scalar> 
18432
(
1
1
1
1
1
1
1
1
1
1
1
1
1
1
1
1
1
1
1
1
1
1
1
1
1
1
1
1
1
1
1
1
1
1
1
1
1
1
1
1
1
1
1
1
1
1
1
1
1
1
1
1
1
1
1
1
1
1
1
1
1
1
1
1
1
1
1
1
1
1
1
1
1
1
1
1
1
1
1
1
1
1
1
1
1
1
1
1
1
1
1
1
1
1
1
1
1
1
1
1
1
1
1
1
1
1
1
1
1
1
1
1
1
1
1
1
1
1
1
1
1
1
1
1
1
1
1
1
1
1
1
1
1
1
1
1
1
1
1
1
1
1
1
1
1
1
1
1
1
1
1
1
1
1
1
1
1
1
1
1
1
1
1
1
1
1
1
1
1
1
1
1
1
1
1
1
1
1
1
1
1
1
1
1
1
1
1
1
1
1
1
1
1
1
1
1
1
1
1
1
1
1
1
1
1
1
1
1
1
1
1
1
1
1
1
1
1
1
1
1
1
1
1
1
1
1
1
1
1
1
1
1
1
1
1
1
1
1
1
1
1
1
1
1
1
1
1
1
1
1
1
1
1
1
1
1
1
1
1
1
1
1
1
1
1
1
1
1
1
1
1
1
1
1
1
1
1
1
1
1
1
1
1
1
1
1
1
1
1
1
1
1
1
1
1
1
1
1
1
1
1
1
1
1
1
1
1
1
1
1
1
1
1
1
1
1
1
1
1
1
1
1
1
1
1
1
1
1
1
1
1
1
1
1
1
1
1
1
1
1
1
1
1
1
1
1
1
1
1
1
1
1
1
1
1
1
1
1
1
1
1
1
1
1
1
1
1
1
1
1
1
1
1
1
1
1
1
1
1
1
1
1
1
1
1
1
1
1
1
1
1
1
1
1
1
1
1
1
1
1
1
1
1
1
1
1
1
1
1
1
1
1
1
1
1
1
1
1
1
1
1
1
1
1
1
1
1
1
1
1
1
1
1
1
1
1
1
1
1
1
1
1
1
1
1
1
1
1
1
1
1
1
1
1
1
1
1
1
1
1
1
1
1
1
1
1
1
1
1
1
1
1
1
1
1
1
1
1
1
1
1
1
1
1
1
1
1
1
1
1
1
1
1
1
1
1
1
1
1
1
1
1
1
1
1
1
1
1
1
1
1
1
1
1
1
1
1
1
1
1
1
1
1
1
1
1
1
1
1
1
1
1
1
1
1
1
1
1
1
1
1
1
1
1
1
1
1
1
1
1
1
1
1
1
1
1
1
1
1
1
1
1
1
1
1
1
1
1
1
1
1
1
1
1
1
1
1
1
1
1
1
1
1
1
1
1
1
1
1
1
1
1
1
1
1
1
1
1
1
1
1
1
1
1
1
1
1
1
1
1
1
1
1
1
1
1
1
1
1
1
1
1
1
1
1
1
1
1
1
1
1
1
1
1
1
1
1
1
1
1
1
1
1
1
1
1
1
1
1
1
1
1
1
1
1
1
1
1
1
1
1
1
1
1
1
1
1
1
1
1
1
1
1
1
1
1
1
1
1
1
1
1
1
1
1
1
1
1
1
1
1
1
1
1
1
1
1
1
1
1
1
1
1
1
1
1
1
1
1
1
1
1
1
1
1
1
1
1
1
1
1
1
1
1
1
1
1
1
1
1
1
1
1
1
1
1
1
1
1
1
1
1
1
1
1
1
1
1
1
1
1
1
1
1
1
1
1
1
1
1
1
1
1
1
1
1
1
1
1
1
1
1
1
1
1
1
1
1
1
1
1
1
1
1
1
1
1
1
1
1
1
1
1
1
1
1
1
1
1
1
1
1
1
1
1
1
1
1
1
1
1
1
1
1
1
1
1
1
1
1
1
1
1
1
1
1
1
1
1
1
1
1
1
1
1
1
1
1
1
1
1
1
1
1
1
1
1
1
1
1
1
1
1
1
1
1
1
1
1
1
1
1
1
1
1
1
1
1
1
1
1
1
1
1
1
1
1
1
1
1
1
1
1
1
1
1
1
1
1
1
1
1
1
1
1
1
1
1
1
1
1
1
1
1
1
1
1
1
1
1
1
1
1
1
1
1
1
1
1
1
1
1
1
1
1
1
1
1
1
1
1
1
1
1
1
1
1
1
1
1
1
1
1
1
1
1
1
1
1
1
1
1
1
1
1
1
1
1
1
1
1
1
1
1
1
1
1
1
1
1
1
1
1
1
1
1
1
1
1
1
1
1
1
1
1
1
1
1
1
1
1
1
1
1
1
1
1
1
1
1
1
1
1
1
1
1
1
1
1
1
1
1
1
1
1
1
1
1
1
1
1
1
1
1
1
1
1
1
1
1
1
1
1
1
1
1
1
1
1
1
1
1
1
1
1
1
1
1
1
1
1
1
1
1
1
1
1
1
1
1
1
1
1
1
1
1
1
1
1
1
1
1
1
1
1
1
1
1
1
1
1
1
1
1
1
1
1
1
1
1
1
1
1
1
1
1
1
1
1
1
1
1
1
1
1
1
1
1
1
1
1
1
1
1
1
1
1
1
1
1
1
1
1
1
1
1
1
1
1
1
1
1
1
1
1
1
1
1
1
1
1
1
1
1
1
1
1
1
1
1
1
1
1
1
1
1
1
1
1
1
1
1
1
1
1
1
1
1
1
1
1
1
1
1
1
1
1
1
1
1
1
1
1
1
1
1
1
1
1
1
1
1
1
1
1
1
1
1
1
1
1
1
1
1
1
1
1
1
1
1
1
1
1
1
1
1
1
1
1
1
1
1
1
1
1
1
1
1
1
1
1
1
1
1
1
1
1
1
1
1
1
1
1
1
1
1
1
1
1
1
1
1
1
1
1
1
1
1
1
1
1
1
1
1
1
1
1
1
1
1
1
1
1
1
1
1
1
1
1
1
1
1
1
1
1
1
1
1
1
1
1
1
1
1
1
1
1
1
1
1
1
1
1
1
1
1
1
1
1
1
1
1
1
1
1
1
1
1
1
1
1
1
1
1
1
1
1
1
1
1
1
1
1
1
1
1
1
1
1
1
1
1
1
1
1
1
1
1
1
1
1
1
1
1
1
1
1
1
1
1
1
1
1
1
1
1
1
1
1
1
1
1
1
1
1
1
1
1
1
1
1
1
1
1
1
1
1
1
1
1
1
1
1
1
1
1
1
1
1
1
1
1
1
1
1
1
1
1
1
1
1
1
1
1
1
1
1
1
1
1
1
1
1
1
1
1
1
1
1
1
1
1
1
1
1
1
1
1
1
1
1
1
1
1
1
1
1
1
1
1
1
1
1
1
1
1
1
1
1
1
1
1
1
1
1
1
1
1
1
1
1
1
1
1
1
1
1
1
1
1
1
1
1
1
1
1
1
1
1
1
1
1
1
1
1
1
1
1
1
1
1
1
1
1
1
1
1
1
1
1
1
1
1
1
1
1
1
1
1
1
1
1
1
1
1
1
1
1
1
1
1
1
1
1
1
1
1
1
1
1
1
1
1
1
1
1
1
1
1
1
1
1
1
1
1
1
1
1
1
1
1
1
1
1
1
1
1
1
1
1
1
1
1
1
1
1
1
1
1
1
1
1
1
1
1
1
1
1
1
1
1
1
1
1
1
1
1
1
1
1
1
1
1
1
1
1
1
1
1
1
1
1
1
1
1
1
1
1
1
1
1
1
1
1
1
1
1
1
1
1
1
1
1
1
1
1
1
1
1
1
1
1
1
1
1
1
1
1
1
1
1
1
1
1
1
1
1
1
1
1
1
1
1
1
1
1
1
1
1
1
1
1
1
1
1
1
1
1
1
1
1
1
1
1
1
1
1
1
1
1
1
1
1
1
1
1
1
1
1
1
1
1
1
1
1
1
1
1
1
1
1
1
1
1
1
1
1
1
1
1
1
1
1
1
1
1
1
1
1
1
1
1
1
1
1
1
1
1
1
1
1
1
1
1
1
1
1
1
1
1
1
1
1
1
1
1
1
1
1
1
1
1
1
1
1
1
1
1
1
1
1
1
1
1
1
1
1
1
1
1
1
1
1
1
1
1
1
1
1
1
1
1
1
1
1
1
1
1
1
1
1
1
1
1
1
1
1
1
1
1
1
1
1
1
1
1
1
1
1
1
1
1
1
1
1
1
1
1
1
1
1
1
1
1
1
1
1
1
1
1
1
1
1
1
1
1
1
1
1
1
1
1
1
1
1
1
1
1
1
1
1
1
1
1
1
1
1
1
1
1
1
1
1
1
1
1
1
1
1
1
1
1
1
1
1
1
1
1
1
1
1
1
1
1
1
1
1
1
1
1
1
1
1
1
1
1
1
1
1
1
1
1
1
1
1
1
1
1
1
1
1
1
1
1
1
1
1
1
1
1
1
1
1
1
1
1
1
1
1
1
1
1
1
1
1
1
1
1
1
1
1
1
1
1
1
1
1
1
1
1
1
1
1
1
1
1
1
1
1
1
1
1
1
1
1
1
1
1
1
1
1
1
1
1
1
1
1
1
1
1
1
1
1
1
1
1
1
1
1
1
1
1
1
1
1
1
1
1
1
1
1
1
1
1
1
1
1
1
1
1
1
1
1
1
1
1
1
1
1
1
1
1
1
1
1
1
1
1
1
1
1
1
1
1
1
1
1
1
1
1
1
1
1
1
1
1
1
1
1
1
1
1
1
1
1
1
1
1
1
1
1
1
1
1
1
1
1
1
1
1
1
1
1
1
1
1
1
1
1
1
1
1
1
1
1
1
1
1
1
1
1
1
1
1
1
1
1
1
1
1
1
1
1
1
1
1
1
1
1
1
1
1
1
1
1
1
1
1
1
1
1
1
1
1
1
1
1
1
1
1
1
1
1
1
1
1
1
1
1
1
1
1
1
1
1
1
1
1
1
1
1
1
1
1
1
1
1
1
1
1
1
1
1
1
1
1
1
1
1
1
1
1
1
1
1
1
1
1
1
1
1
1
1
1
1
1
1
1
1
1
1
1
1
1
1
1
1
1
1
1
1
1
1
1
1
1
1
1
1
1
1
1
1
1
1
1
1
1
1
1
1
1
1
1
1
1
1
1
1
1
1
1
1
1
1
1
1
1
1
1
1
1
1
1
1
1
1
1
1
1
1
1
1
1
1
1
1
1
1
1
1
1
1
1
1
1
1
1
1
1
1
1
1
1
1
1
1
1
1
1
1
1
1
1
1
1
1
1
1
1
1
1
1
1
1
1
1
1
1
1
1
1
1
1
1
1
1
1
1
1
1
1
1
1
1
1
1
1
1
1
1
1
1
1
1
1
1
1
1
1
1
1
1
1
1
1
1
1
1
1
1
1
1
1
1
1
1
1
1
1
1
1
1
1
1
1
1
1
1
1
1
1
1
1
1
1
1
1
1
1
1
1
1
1
1
1
1
1
1
1
1
1
1
1
1
1
1
1
1
1
1
1
1
1
1
1
1
1
1
1
1
1
1
1
1
1
1
1
1
1
1
1
1
1
1
1
1
1
1
1
1
1
1
1
1
1
1
1
1
1
1
1
1
1
1
1
1
1
1
1
1
1
1
1
1
1
1
1
1
1
1
1
1
1
1
1
1
1
1
1
1
1
1
1
1
1
1
1
1
1
1
1
1
1
1
1
1
1
1
1
1
1
1
1
1
1
1
1
1
1
1
1
1
1
1
1
1
1
1
1
1
1
1
1
1
1
1
1
1
1
1
1
1
1
1
1
1
1
1
1
1
1
1
1
1
1
1
1
1
1
1
1
1
1
1
1
1
1
1
1
1
1
1
1
1
1
1
1
1
1
1
1
1
1
1
1
1
1
1
1
1
1
1
1
1
1
1
1
1
1
1
1
1
1
1
1
1
1
1
1
1
1
1
1
1
1
1
1
1
1
1
1
1
1
1
1
1
1
1
1
1
1
1
1
1
1
1
1
1
1
1
1
1
1
1
1
1
1
1
1
1
1
1
1
1
1
1
1
1
1
1
1
1
1
1
1
1
1
1
1
1
1
1
1
1
1
1
1
1
1
1
1
1
1
1
1
1
1
1
1
1
1
1
1
1
1
1
1
1
1
1
1
1
1
1
1
1
1
1
1
1
1
1
1
1
1
1
1
1
1
1
1
1
1
1
1
1
1
1
1
1
1
1
1
1
1
1
1
1
1
1
1
1
1
1
1
1
1
1
1
1
1
1
1
1
1
1
1
1
1
1
1
1
1
1
1
1
1
1
1
1
1
1
1
1
1
1
1
1
1
1
1
1
1
1
1
1
1
1
1
1
1
1
1
1
1
1
1
1
1
1
1
1
1
1
1
1
1
1
1
1
1
1
1
1
1
1
1
1
1
1
1
1
1
1
1
1
1
1
1
1
1
1
1
1
1
1
1
1
1
1
1
1
1
1
1
1
1
1
1
1
1
1
1
1
1
1
1
1
1
1
1
1
1
1
1
1
1
1
1
1
1
1
1
1
1
1
1
1
1
1
1
1
1
1
1
1
1
1
1
1
1
1
1
1
1
1
1
1
1
1
1
1
1
1
1
1
1
1
1
1
1
1
1
1
1
1
1
1
1
1
1
1
1
1
1
1
1
1
1
1
1
1
1
1
1
1
1
1
1
1
1
1
1
1
1
1
1
1
1
1
1
1
1
1
1
1
1
1
1
1
1
1
1
1
1
1
1
1
1
1
1
1
1
1
1
1
1
1
1
1
1
1
1
1
1
1
1
1
1
1
1
1
1
1
1
1
1
1
1
1
1
1
1
1
1
1
1
1
1
1
1
1
1
1
1
1
1
1
1
1
1
1
1
1
1
1
1
1
1
1
1
1
1
1
1
1
1
1
1
1
1
1
1
1
1
1
1
1
1
1
1
1
1
1
1
1
1
1
1
1
1
1
1
1
1
1
1
1
1
1
1
1
1
1
1
1
1
1
1
1
1
1
1
1
1
1
1
1
1
1
1
1.28939
1.75588
2.32627
2.87928
3.56632
4.18022
4.6498
5.11006
5.34686
5.26364
4.93134
4.4651
4.07409
3.79326
3.66671
3.58024
3.55878
3.57588
3.60976
3.64756
3.68625
3.70903
3.72125
3.72898
3.73784
3.74847
3.75859
3.76444
3.76752
3.77247
3.7832
3.79521
3.79975
3.79887
3.79511
3.78704
3.77707
3.77049
3.76744
3.76652
3.76615
3.76654
3.76905
3.76977
3.76983
3.76878
3.76586
3.76575
1.00229
1.01417
1.07242
1.20625
1.40825
1.76881
2.21692
2.75465
3.31318
3.74061
3.89397
4.04524
4.0514
3.9637
3.84188
3.78113
3.74462
3.70517
3.67288
3.66727
3.67732
3.70203
3.7297
3.74492
3.74968
3.74876
3.75337
3.75658
3.75757
3.75978
3.76507
3.77184
3.77717
3.77999
3.77952
3.77667
3.77248
3.76972
3.76956
3.77066
3.77349
3.77729
3.77921
3.77902
3.77791
3.77469
3.76866
3.76801
1
0.999977
1.00006
1.00009
1.00131
1.01335
1.06205
1.22065
1.60466
2.34642
3.31948
3.91173
4.31671
4.32686
4.25582
4.11263
3.96402
3.78641
3.67537
3.67188
3.68154
3.70435
3.73903
3.75683
3.7612
3.76159
3.75809
3.76019
3.76244
3.76498
3.76736
3.77031
3.77053
3.76907
3.76567
3.76189
3.75985
3.76005
3.76191
3.76566
3.77228
3.78065
3.7853
3.78588
3.78503
3.78199
3.77589
3.77457
1
1
1
1
0.999998
1
1.00002
1.00007
1.00572
1.0681
1.436
2.12125
3.22393
3.78564
4.03476
4.02308
3.92725
3.88967
3.84173
3.76809
3.75386
3.72502
3.71046
3.71319
3.72594
3.73553
3.74584
3.75921
3.76839
3.77378
3.77858
3.77915
3.77845
3.77635
3.77208
3.76959
3.76746
3.76609
3.76697
3.77016
3.77573
3.781
3.78312
3.78173
3.77898
3.77379
3.77001
3.77079
1
1
1
1
1
1
1
0.999999
1
0.999922
1.00233
1.04162
1.29537
1.99132
2.82941
3.75862
3.93899
4.01527
3.97856
3.92354
3.80982
3.73117
3.68318
3.666
3.67056
3.68146
3.69617
3.71759
3.73908
3.75644
3.77129
3.77841
3.78019
3.78016
3.77846
3.77817
3.77746
3.77635
3.77691
3.77978
3.78393
3.78586
3.78463
3.78177
3.7767
3.76935
3.76577
3.7664
1
1
1
1
1
1
1
1
1
0.999997
0.999998
0.999954
1.00073
1.03267
1.20487
1.82986
2.69122
3.4687
3.91127
3.89783
3.86372
3.82227
3.7684
3.73113
3.70003
3.6874
3.6848
3.69502
3.71691
3.73847
3.75605
3.76953
3.77352
3.77424
3.77374
3.77314
3.77122
3.76932
3.76983
3.77322
3.77564
3.77446
3.77191
3.76893
3.76514
3.7621
3.76004
3.76381
1
1
1
1
1
1
1
1
1
1
1
0.999998
0.999998
0.999969
1.00041
1.01955
1.19828
1.66052
2.55175
3.20663
3.7499
3.87996
3.87686
3.83336
3.786
3.75569
3.72871
3.7139
3.71643
3.72737
3.74068
3.75738
3.76536
3.76966
3.76818
3.76588
3.76396
3.76251
3.76433
3.77039
3.77254
3.77207
3.77084
3.76969
3.76915
3.76893
3.76763
3.7715
1
1
1
1
1
1
1
1
1
1
1
1
1
0.999998
0.999998
0.999971
1.00059
1.01174
1.15394
1.58717
2.41996
3.12885
3.50179
3.73945
3.78505
3.78856
3.76534
3.74256
3.74185
3.74347
3.74726
3.7499
3.75569
3.76026
3.76251
3.76416
3.7648
3.76692
3.77238
3.778
3.77944
3.77905
3.77714
3.77529
3.77446
3.77415
3.77364
3.77474
1
1
1
1
1
1
1
1
1
1
1
1
1
1
1
0.999998
0.999998
0.999981
1.00045
1.01173
1.11437
1.57617
2.25499
3.13615
3.45581
3.60663
3.66488
3.72232
3.73598
3.72532
3.71947
3.72566
3.73315
3.74375
3.75504
3.76323
3.7697
3.77536
3.78127
3.78433
3.78397
3.78322
3.78176
3.77805
3.77414
3.77295
3.77279
3.77295
1
1
1
1
1
1
1
1
1
1
1
1
1
1
1
1
1
0.999998
0.999998
0.999985
1.00027
1.01422
1.10207
1.50226
2.23431
3.00029
3.5458
3.62163
3.68894
3.6971
3.69346
3.70147
3.70823
3.71669
3.72938
3.74346
3.75773
3.76993
3.77622
3.77841
3.77838
3.7784
3.77901
3.77759
3.77465
3.77323
3.77388
3.77384
1
1
1
1
1
1
1
1
1
1
1
1
1
1
1
1
1
1
1
0.999999
0.999999
0.999988
1.00029
1.01053
1.11703
1.4557
2.22834
2.9428
3.49979
3.69853
3.7231
3.73304
3.73665
3.73043
3.73338
3.74179
3.7508
3.76322
3.77175
3.77418
3.77256
3.77088
3.77086
3.76926
3.76685
3.76595
3.76771
3.7685
1
1
1
1
1
1
1
1
1
1
1
1
1
1
1
1
1
1
1
1
1
0.999998
0.999999
0.999988
1.0005
1.00885
1.1249
1.49591
2.25688
2.95077
3.43977
3.6798
3.74725
3.75061
3.76705
3.77101
3.76958
3.77541
3.78298
3.78568
3.78379
3.78028
3.77654
3.77136
3.76888
3.76925
3.76986
3.77055
1
1
1
1
1
1
1
1
1
1
1
1
1
1
1
1
1
1
1
1
1
1
1
0.999998
0.999999
0.999989
1.00082
1.01255
1.12491
1.57512
2.33268
3.09752
3.41272
3.59154
3.71845
3.74552
3.74626
3.7592
3.76983
3.77581
3.7777
3.77492
3.77311
3.77342
3.77498
3.77756
3.77917
3.77861
1
1
1
1
1
1
1
1
1
1
1
1
1
1
1
1
1
1
1
1
1
1
1
1
1
0.999998
0.999999
0.999994
1.00092
1.02177
1.14834
1.67009
2.44269
3.30063
3.55103
3.62965
3.66546
3.70479
3.73098
3.73931
3.74304
3.74806
3.75778
3.77055
3.77575
3.77663
3.77807
3.77801
1
1
1
1
1
1
1
1
1
1
1
1
1
1
1
1
1
1
1
1
1
1
1
1
1
1
1
0.999999
0.999997
1.00002
1.00132
1.03558
1.21479
1.84162
2.67473
3.36417
3.69732
3.72952
3.74365
3.74474
3.73698
3.74267
3.755
3.76624
3.77194
3.77394
3.77656
3.77679
1
1
1
1
1
1
1
1
1
1
1
1
1
1
1
1
1
1
1
1
1
1
1
1
1
1
1
1
1
1
0.999997
1.00011
1.00307
1.06021
1.35245
2.08327
2.91592
3.47637
3.72474
3.76885
3.77173
3.78758
3.7906
3.7918
3.7909
3.78817
3.78474
3.78203
1
1
1
1
1
1
1
1
1
1
1
1
1
1
1
1
1
1
1
1
1
1
1
1
1
1
1
1
1
1
1
1
0.999996
1.00039
1.0086
1.11469
1.58095
2.46673
3.18532
3.48892
3.67331
3.76473
3.76252
3.77418
3.78463
3.78858
3.78881
3.78424
1
1
1
1
1
1
1
1
1
1
1
1
1
1
1
1
1
1
1
1
1
1
1
1
1
1
1
1
1
1
1
1
0.999999
0.999999
1
1.00148
1.0277
1.23148
1.90039
2.88417
3.52031
3.60995
3.65867
3.70764
3.74488
3.76357
3.76873
3.76627
1
1
1
1
1
1
1
1
1
1
1
1
1
1
1
1
1
1
1
1
1
1
1
1
1
1
1
1
1
1
1
1
1
1
1
0.999998
1.00008
1.00556
1.08566
1.49776
2.39581
3.23748
3.69931
3.75908
3.77098
3.77456
3.7649
3.7576
1
1
1
1
1
1
1
1
1
1
1
1
1
1
1
1
1
1
1
1
1
1
1
1
1
1
1
1
1
1
1
1
1
1
1
1
1
1
1.0009
1.02454
1.24913
1.94382
2.89737
3.48438
3.7573
3.80089
3.79858
3.79013
1
1
1
1
1
1
1
1
1
1
1
1
1
1
1
1
1
1
1
1
1
1
1
1
1
1
1
1
1
1
1
1
1
1
1
1
1
1
0.999999
1.00014
1.00645
1.09897
1.60943
2.6246
3.34943
3.5612
3.69999
3.75229
1
1
1
1
1
1
1
1
1
1
1
1
1
1
1
1
1
1
1
1
1
1
1
1
1
1
1
1
1
1
1
1
1
1
1
1
1
1
1
0.999999
1.00001
1.00181
1.04058
1.35404
2.1957
3.22896
3.62916
3.69897
1
1
1
1
1
1
1
1
1
1
1
1
1
1
1
1
1
1
1
1
1
1
1
1
1
1
1
1
1
1
1
1
1
1
1
1
1
1
1
1
1
1
1.00032
1.01701
1.1826
1.92448
2.92373
3.61077
1
1
1
1
1
1
1
1
1
1
1
1
1
1
1
1
1
1
1
1
1
1
1
1
1
1
1
1
1
1
1
1
1
1
1
1
1
1
1
1
1
1
1
1.00012
1.00482
1.11489
1.67901
2.7954
1
1
1
1
1
1
1
1
1
1
1
1
1
1
1
1
1
1
1
1
1
1
1
1
1
1
1
1
1
1
1
1
1
1
1
1
1
1
1
1
1
1
1
1
1.00002
1.00298
1.06048
1.45403
1
1
1
1
1
1
1
1
1
1
1
1
1
1
1
1
1
1
1
1
1
1
1
1
1
1
1
1
1
1
1
1
1
1
1
1
1
1
1
1
1
1
1
1
1
1.00001
1.00098
1.01997
1
1
1
1
1
1
1
1
1
1
1
1
1
1
1
1
1
1
1
1
1
1
1
1
1
1
1
1
1
1
1
1
1
1
1
1
1
1
1
1
1
1
1
1
1
1
1.00001
0.999807
1
1
1
1
1
1
1
1
1
1
1
1
1
1
1
1
1
1
1
1
1
1
1
1
1
1
1
1
1
1
1
1
1
1
1
1
1
1
1
1
1
1
1
1
1
1
1
0.99993
1
1
1
1
1
1
1
1
1
1
1
1
1
1
1
1
1
1
1
1
1
1
1
1
1
1
1
1
1
1
1
1
1
1
1
1
1
1
1
1
1
1
1
1
1
1
1
0.999992
1
1
1
1
1
1
1
1
1
1
1
1
1
1
1
1
1
1
1
1
1
1
1
1
1
1
1
1
1
1
1
1
1
1
1
1
1
1
1
1
1
1
1
1
1
1
1
1
1
1
1
1
1
1
1
1
1
1
1
1
1
1
1
1
1
1
1
1
1
1
1
1
1
1
1
1
1
1
1
1
1
1
1
1
1
1
1
1
1
1
1
1
1
1
1
1
1
1
1
1
1
1
1
1
1
1
1
1
1
1
1
1
1
1
1
1
1
1
1
1
1
1
1
1
1
1
1
1
1
1
1
1
1
1
1
1
1
1
1
1
1
1
1
1
1
1
1
1
1
1
1
1
1
1
1
1
1
1
1
1
1
1
1
1
1
1
1
1
1
1
1
1
1
1
1
1
1
1
1
1
1
1
1
1
1
1
1
1
1
1
1
1
1
1
1
1
1
1
1
1
1
1
1
1
1
1
1
1
1
1
1
1
1
1
1
1
1
1
1
1
1
1
1
1
1
1
1
1
1
1
1
1
1
1
1
1
1
1
1
1
1
1
1
1
1
1
1
1
1
1
1
1
1
1
1
1
1
1
1
1
1
1
1
1
1
1
1
1
1
1
1
1
1
1
1
1
1
1
1
1
1
1
1
1
1
1
1
1
1
1
1
1
1
1
1
1
1
1
1
1
1
1
1
1
1
1
1
1
1
1
1
1
1
1
1
1
1
1
1
1
1
1
1
1
1
1
1
1
1
1
1
1
1
1
1
0.999992
1
1
1
1
1
1
1
1
1
1
1
1
1
1
1
1
1
1
1
1
1
1
1
1
1
1
1
1
1
1
1
1
1
1
1
1
1
1
1
1
1
1
1
1
1
1
1
0.99993
1
1
1
1
1
1
1
1
1
1
1
1
1
1
1
1
1
1
1
1
1
1
1
1
1
1
1
1
1
1
1
1
1
1
1
1
1
1
1
1
1
1
1
1
1
1
1.00001
0.999807
1
1
1
1
1
1
1
1
1
1
1
1
1
1
1
1
1
1
1
1
1
1
1
1
1
1
1
1
1
1
1
1
1
1
1
1
1
1
1
1
1
1
1
1
1
1.00001
1.00098
1.01996
1
1
1
1
1
1
1
1
1
1
1
1
1
1
1
1
1
1
1
1
1
1
1
1
1
1
1
1
1
1
1
1
1
1
1
1
1
1
1
1
1
1
1
1
1.00002
1.00298
1.06049
1.45408
1
1
1
1
1
1
1
1
1
1
1
1
1
1
1
1
1
1
1
1
1
1
1
1
1
1
1
1
1
1
1
1
1
1
1
1
1
1
1
1
1
1
1
1.00012
1.00482
1.11488
1.6792
2.79552
1
1
1
1
1
1
1
1
1
1
1
1
1
1
1
1
1
1
1
1
1
1
1
1
1
1
1
1
1
1
1
1
1
1
1
1
1
1
1
1
1
1
1.00032
1.01701
1.18255
1.92443
2.92402
3.61071
1
1
1
1
1
1
1
1
1
1
1
1
1
1
1
1
1
1
1
1
1
1
1
1
1
1
1
1
1
1
1
1
1
1
1
1
1
1
1
0.999999
1.00001
1.00181
1.04058
1.35403
2.19557
3.22902
3.62924
3.69903
1
1
1
1
1
1
1
1
1
1
1
1
1
1
1
1
1
1
1
1
1
1
1
1
1
1
1
1
1
1
1
1
1
1
1
1
1
1
0.999999
1.00014
1.00645
1.09897
1.60948
2.6245
3.34952
3.56122
3.69994
3.75236
1
1
1
1
1
1
1
1
1
1
1
1
1
1
1
1
1
1
1
1
1
1
1
1
1
1
1
1
1
1
1
1
1
1
1
1
1
1
1.0009
1.02454
1.24913
1.94381
2.89743
3.48429
3.75735
3.80089
3.79858
3.79014
1
1
1
1
1
1
1
1
1
1
1
1
1
1
1
1
1
1
1
1
1
1
1
1
1
1
1
1
1
1
1
1
1
1
1
0.999998
1.00008
1.00556
1.08566
1.49776
2.39579
3.2375
3.69932
3.75904
3.77097
3.77455
3.76489
3.75759
1
1
1
1
1
1
1
1
1
1
1
1
1
1
1
1
1
1
1
1
1
1
1
1
1
1
1
1
1
1
1
1
0.999999
0.999999
1
1.00148
1.0277
1.23148
1.90039
2.88416
3.52032
3.60997
3.65868
3.70763
3.74487
3.76357
3.76872
3.76627
1
1
1
1
1
1
1
1
1
1
1
1
1
1
1
1
1
1
1
1
1
1
1
1
1
1
1
1
1
1
1
1
0.999996
1.00039
1.0086
1.11469
1.58095
2.46673
3.18532
3.48892
3.67331
3.76473
3.76252
3.77418
3.78463
3.78858
3.78881
3.78424
1
1
1
1
1
1
1
1
1
1
1
1
1
1
1
1
1
1
1
1
1
1
1
1
1
1
1
1
1
1
0.999997
1.00011
1.00307
1.06021
1.35245
2.08327
2.91592
3.47637
3.72474
3.76884
3.77174
3.78758
3.7906
3.7918
3.7909
3.78817
3.78475
3.78203
1
1
1
1
1
1
1
1
1
1
1
1
1
1
1
1
1
1
1
1
1
1
1
1
1
1
1
0.999999
0.999997
1.00002
1.00132
1.03558
1.21479
1.84162
2.67473
3.36417
3.69732
3.72952
3.74366
3.74474
3.73698
3.74267
3.755
3.76624
3.77194
3.77394
3.77656
3.77679
1
1
1
1
1
1
1
1
1
1
1
1
1
1
1
1
1
1
1
1
1
1
1
1
1
0.999998
0.999999
0.999994
1.00092
1.02177
1.14834
1.67009
2.44269
3.30063
3.55103
3.62965
3.66546
3.70479
3.73098
3.73931
3.74304
3.74806
3.75778
3.77055
3.77575
3.77663
3.77807
3.77801
1
1
1
1
1
1
1
1
1
1
1
1
1
1
1
1
1
1
1
1
1
1
1
0.999998
0.999999
0.999989
1.00082
1.01255
1.12491
1.57512
2.33268
3.09752
3.41272
3.59154
3.71845
3.74552
3.74626
3.7592
3.76983
3.77581
3.7777
3.77492
3.77311
3.77342
3.77498
3.77756
3.77917
3.77861
1
1
1
1
1
1
1
1
1
1
1
1
1
1
1
1
1
1
1
1
1
0.999998
0.999999
0.999988
1.0005
1.00885
1.1249
1.49591
2.25688
2.95077
3.43977
3.6798
3.74725
3.75061
3.76705
3.77101
3.76958
3.77541
3.78298
3.78568
3.78379
3.78028
3.77654
3.77136
3.76888
3.76925
3.76986
3.77055
1
1
1
1
1
1
1
1
1
1
1
1
1
1
1
1
1
1
1
0.999999
0.999999
0.999988
1.00029
1.01053
1.11703
1.4557
2.22834
2.9428
3.49979
3.69853
3.7231
3.73304
3.73665
3.73043
3.73338
3.74179
3.7508
3.76322
3.77175
3.77418
3.77256
3.77088
3.77086
3.76926
3.76685
3.76595
3.76771
3.7685
1
1
1
1
1
1
1
1
1
1
1
1
1
1
1
1
1
0.999998
0.999998
0.999985
1.00027
1.01422
1.10207
1.50226
2.23431
3.00029
3.5458
3.62163
3.68894
3.69711
3.69346
3.70147
3.70823
3.71669
3.72938
3.74346
3.75772
3.76993
3.77622
3.77841
3.77838
3.7784
3.77901
3.77759
3.77465
3.77323
3.77388
3.77384
1
1
1
1
1
1
1
1
1
1
1
1
1
1
1
0.999998
0.999998
0.999981
1.00045
1.01173
1.11437
1.57617
2.25499
3.13615
3.45581
3.60663
3.66488
3.72232
3.73598
3.72532
3.71947
3.72566
3.73315
3.74375
3.75504
3.76323
3.7697
3.77536
3.78127
3.78433
3.78397
3.78322
3.78176
3.77805
3.77414
3.77295
3.77279
3.77295
1
1
1
1
1
1
1
1
1
1
1
1
1
0.999998
0.999998
0.999971
1.00059
1.01174
1.15394
1.58717
2.41996
3.12885
3.50179
3.73944
3.78505
3.78856
3.76534
3.74256
3.74185
3.74347
3.74726
3.7499
3.75569
3.76026
3.76251
3.76416
3.7648
3.76692
3.77238
3.778
3.77944
3.77905
3.77714
3.77529
3.77446
3.77415
3.77364
3.77474
1
1
1
1
1
1
1
1
1
1
1
0.999998
0.999998
0.999969
1.00041
1.01955
1.19828
1.66052
2.55175
3.20663
3.7499
3.87996
3.87686
3.83336
3.786
3.75569
3.72871
3.7139
3.71643
3.72738
3.74068
3.75738
3.76536
3.76966
3.76818
3.76588
3.76396
3.76251
3.76433
3.77039
3.77254
3.77207
3.77084
3.76969
3.76915
3.76893
3.76763
3.7715
1
1
1
1
1
1
1
1
1
0.999997
0.999998
0.999954
1.00073
1.03267
1.20487
1.82986
2.69122
3.4687
3.91127
3.89783
3.86372
3.82227
3.7684
3.73113
3.70003
3.6874
3.6848
3.69502
3.71691
3.73847
3.75605
3.76953
3.77352
3.77424
3.77374
3.77314
3.77122
3.76932
3.76983
3.77322
3.77564
3.77446
3.77191
3.76893
3.76514
3.7621
3.76004
3.76381
1
1
1
1
1
1
1
0.999999
1
0.999922
1.00233
1.04162
1.29537
1.99132
2.82941
3.75862
3.93899
4.01527
3.97856
3.92354
3.80982
3.73117
3.68318
3.666
3.67056
3.68146
3.69617
3.71759
3.73908
3.75644
3.77129
3.77841
3.78019
3.78016
3.77846
3.77817
3.77746
3.77635
3.77691
3.77978
3.78393
3.78586
3.78463
3.78177
3.7767
3.76935
3.76577
3.7664
1
1
1
1
0.999998
1
1.00002
1.00007
1.00572
1.0681
1.436
2.12125
3.22393
3.78564
4.03476
4.02308
3.92725
3.88967
3.84173
3.76809
3.75386
3.72502
3.71046
3.71319
3.72594
3.73553
3.74584
3.75921
3.76839
3.77378
3.77858
3.77915
3.77845
3.77635
3.77208
3.76959
3.76746
3.76609
3.76697
3.77016
3.77573
3.781
3.78312
3.78173
3.77898
3.77379
3.77001
3.77079
1
0.999977
1.00006
1.00009
1.00131
1.01335
1.06205
1.22065
1.60466
2.34642
3.31948
3.91173
4.31671
4.32686
4.25582
4.11263
3.96402
3.78641
3.67537
3.67188
3.68154
3.70435
3.73903
3.75683
3.7612
3.76159
3.75809
3.76019
3.76244
3.76498
3.76736
3.77031
3.77053
3.76907
3.76567
3.76189
3.75985
3.76005
3.76191
3.76566
3.77228
3.78065
3.7853
3.78588
3.78503
3.78199
3.7759
3.77457
1.00229
1.01417
1.07242
1.20625
1.40825
1.76881
2.21692
2.75465
3.31318
3.74061
3.89397
4.04524
4.0514
3.9637
3.84188
3.78113
3.74462
3.70517
3.67288
3.66727
3.67731
3.70203
3.7297
3.74492
3.74968
3.74876
3.75337
3.75658
3.75757
3.75978
3.76507
3.77184
3.77717
3.77999
3.77952
3.77667
3.77248
3.76972
3.76956
3.77066
3.77349
3.77729
3.77921
3.77902
3.77791
3.77469
3.76866
3.76801
1.28939
1.75588
2.32627
2.87928
3.56632
4.18022
4.6498
5.11006
5.34686
5.26364
4.93134
4.4651
4.07409
3.79326
3.66671
3.58024
3.55878
3.57588
3.60976
3.64756
3.68625
3.70903
3.72125
3.72898
3.73784
3.74847
3.75859
3.76444
3.76752
3.77247
3.7832
3.79521
3.79975
3.79887
3.79511
3.78704
3.77707
3.77049
3.76744
3.76652
3.76615
3.76654
3.76905
3.76977
3.76983
3.76878
3.76586
3.76575
2.65155
1.67441
1.17135
0.874971
0.650034
0.637047
0.694494
0.748963
0.770761
0.830211
0.956625
0.994726
0.985115
0.995889
1.02795
1.03616
1.04112
1.05924
1.08142
1.08156
1.07811
1.0741
1.06926
1.05601
1.04683
1.04802
1.05114
1.05071
1.04766
1.04286
1.03817
1.03622
1.03622
1.03739
1.04122
1.04626
1.04774
1.04831
1.04815
1.04528
1.04348
1.044
1.04596
1.04993
1.05231
1.0521
1.0512
1.05065
1.05609
1.19481
1.91297
3.33267
5.19782
7.74773
10.0879
10.0394
9.34992
8.48679
8.17302
7.97742
7.63794
7.39689
7.29214
7.24212
7.17981
7.04335
6.88758
6.67234
6.3435
6.10998
6.02801
5.97801
5.95347
5.8961
5.81338
5.69447
5.48284
5.25373
5.1397
5.07392
5.01279
4.94926
4.8636
4.71472
4.55748
4.48598
4.44373
4.41216
4.37907
4.3336
4.26542
4.12429
3.9223
3.78874
3.73193
3.69453
3.66563
3.65609
3.63879
3.60778
3.56623
3.46525
3.30383
3.19864
3.15333
3.12568
3.10164
3.07406
3.03662
2.97755
2.88978
2.83731
2.81625
2.80018
2.78248
2.7594
2.72209
2.64832
2.53266
2.45465
2.42489
2.40682
2.39309
2.38729
2.37928
2.36244
2.33764
2.29447
2.21899
2.14699
2.10947
2.08653
2.06884
2.05431
2.03909
2.02038
1.99472
1.96302
1.93255
1.90511
1.87265
1.824
1.78031
1.76359
1.7539
1.74489
1.73609
1.72662
1.71439
1.68959
1.63428
1.57975
1.56804
1.56682
1.57351
1.61499
1.74013
2.0086
2.37007
2.78094
3.16798
3.49894
3.78996
4.03945
4.27484
4.49443
4.5015
4.46768
4.39893
4.25787
4.07218
3.95287
3.91296
3.89325
3.87706
3.85733
3.82781
3.79089
3.72599
3.6354
3.56804
3.52038
3.48521
3.46598
3.44918
3.43344
3.42656
3.43905
3.44334
3.42323
3.39277
3.31716
3.3773
2.72479
2.15164
1.82729
1.46075
1.21553
1.15539
1.05885
0.97256
0.965332
0.954736
0.922299
0.911576
0.919683
0.950531
0.979187
0.994004
1.01636
1.04302
1.04488
1.04217
1.04365
1.04955
1.04905
1.04738
1.04932
1.05391
1.05351
1.05008
1.04641
1.0439
1.04324
1.04303
1.04398
1.04753
1.04926
1.04937
1.04932
1.04792
1.04506
1.04362
1.0435
1.0444
1.0475
1.04929
1.04843
1.0493
1.06366
1.18083
1.8827
2.87726
3.23468
3.94516
4.81614
6.48482
7.93746
8.58041
8.55072
8.35281
8.06032
7.69129
7.4396
7.33112
7.23957
7.1564
7.04308
6.90666
6.73143
6.47581
6.19148
6.01678
5.93702
5.88507
5.84123
5.76505
5.66774
5.52208
5.32639
5.17355
5.07791
5.00821
4.93658
4.85145
4.74289
4.613
4.50857
4.44196
4.39432
4.35183
4.30319
4.22959
4.10836
3.95735
3.83981
3.77318
3.73057
3.69625
3.66017
3.62425
3.58597
3.52626
3.43308
3.32508
3.24463
3.18621
3.13335
3.09819
3.076
3.04908
3.0002
2.92815
2.85791
2.8144
2.78747
2.76837
2.74984
2.7194
2.65675
2.563
2.48495
2.4443
2.41968
2.40162
2.38584
2.37217
2.36629
2.34873
2.30404
2.23098
2.16766
2.13396
2.11277
2.09396
2.07635
2.05956
2.0398
2.01415
1.98292
1.95104
1.92015
1.88566
1.84166
1.80467
1.78766
1.77398
1.76146
1.74968
1.73826
1.72437
1.70025
1.6517
1.6064
1.60658
1.63113
1.71198
1.89916
2.15644
2.39988
2.57358
2.70603
2.88221
3.08646
3.26341
3.42231
3.59109
3.82694
3.96366
4.0571
4.12686
4.12008
4.0745
4.01364
3.95428
3.92038
3.89451
3.8664
3.83783
3.80486
3.74954
3.67837
3.62099
3.57497
3.52887
3.48914
3.46475
3.44897
3.43407
3.43051
3.43869
3.4228
3.39214
3.31928
3.6626
3.34277
2.84082
2.38948
1.99351
1.63335
1.43637
1.28294
1.08535
1.00959
0.985693
0.931948
0.913514
0.920871
0.935963
0.947923
0.95637
0.975069
1.00597
1.01612
1.01875
1.02516
1.03727
1.04028
1.04051
1.04608
1.05366
1.05515
1.05399
1.0508
1.0481
1.04763
1.04773
1.04963
1.05157
1.05133
1.05014
1.0476
1.0438
1.04248
1.04243
1.04289
1.04484
1.04758
1.0476
1.0502
1.0895
1.30159
1.90144
2.99929
3.45165
3.40369
3.41193
3.52719
4.08024
5.80014
7.75956
8.7066
8.59427
8.20427
7.80273
7.52286
7.29443
7.12665
7.00144
6.92148
6.83913
6.72759
6.57321
6.32974
6.06818
5.92733
5.85116
5.76871
5.6741
5.57268
5.47132
5.36182
5.23101
5.11665
5.00885
4.9068
4.802
4.70447
4.62423
4.54142
4.46238
4.39323
4.32073
4.23759
4.13782
4.02894
3.9395
3.88495
3.83048
3.76716
3.71313
3.67765
3.62914
3.55461
3.45023
3.35546
3.31056
3.27945
3.23072
3.17037
3.11146
3.05457
3.00816
2.96227
2.9099
2.86331
2.8258
2.79447
2.7579
2.71534
2.66869
2.61321
2.55823
2.51894
2.47955
2.43888
2.41152
2.39288
2.37428
2.34752
2.3126
2.26431
2.20927
2.17769
2.15616
2.12656
2.08569
2.05163
2.03063
2.01009
1.98311
1.95195
1.92493
1.89921
1.86925
1.83824
1.81333
1.78795
1.76127
1.7429
1.7266
1.71493
1.70226
1.68833
1.65711
1.6577
1.72028
1.87489
2.11831
2.35821
2.56473
2.68904
2.71128
2.70743
2.6973
2.71531
2.77414
2.87694
3.04623
3.2911
3.57366
3.78637
3.94981
4.02374
4.02332
3.99468
3.97968
3.95047
3.91745
3.8759
3.83429
3.79347
3.74061
3.68843
3.64112
3.59608
3.55574
3.5163
3.4623
3.41571
3.40183
3.39361
3.39577
3.38435
3.35627
3.29482
3.74954
3.62526
3.31504
2.90638
2.51334
2.10993
1.82975
1.63097
1.40009
1.2432
1.18716
1.09716
1.00265
1.00144
0.991749
0.964765
0.94887
0.953597
0.956124
0.956528
0.9592
0.971263
0.998435
1.01817
1.02914
1.03857
1.04577
1.04728
1.04771
1.0455
1.04566
1.04951
1.05665
1.06139
1.06178
1.06104
1.05807
1.05127
1.04493
1.04392
1.04392
1.04513
1.04688
1.04804
1.05192
1.10483
1.51202
2.19168
2.97456
3.47938
3.5534
3.51203
3.42438
3.37234
3.35126
3.6251
4.97566
7.11627
7.99989
8.0343
7.8856
7.63698
7.31243
7.01728
6.8925
6.82544
6.78971
6.70025
6.58265
6.4296
6.18551
5.93762
5.80453
5.71285
5.62003
5.53281
5.45722
5.38377
5.27893
5.11729
4.97206
4.87155
4.79154
4.71898
4.6466
4.57125
4.49041
4.3814
4.26035
4.14818
4.05823
3.99865
3.96372
3.934
3.89315
3.84208
3.77171
3.67368
3.57532
3.4789
3.40325
3.35257
3.3129
3.27195
3.23494
3.19578
3.13799
3.04889
2.98125
2.94877
2.92488
2.89661
2.86078
2.8099
2.74339
2.67609
2.6311
2.60716
2.58875
2.56126
2.52291
2.48137
2.44048
2.39806
2.35587
2.30925
2.26746
2.24374
2.22913
2.21389
2.19091
2.15274
2.10061
2.05576
2.02602
2.00295
1.97288
1.93816
1.91193
1.89456
1.87834
1.85843
1.83186
1.79864
1.76702
1.74749
1.73223
1.72366
1.70971
1.71705
1.77847
1.91349
2.14971
2.38661
2.61654
2.68885
2.69603
2.73434
2.746
2.73001
2.71197
2.70252
2.67328
2.64548
2.66161
2.72832
2.87974
3.08664
3.34201
3.57549
3.73415
3.84213
3.88104
3.88824
3.87128
3.86322
3.85027
3.82125
3.78279
3.74181
3.69476
3.64988
3.6048
3.55267
3.48784
3.42162
3.39699
3.38457
3.37328
3.35234
3.32534
3.28604
3.76001
3.73253
3.58712
3.30326
2.96226
2.54827
2.22708
1.99674
1.7167
1.50755
1.39549
1.28586
1.13955
1.09352
1.05746
0.999002
0.95815
0.960435
0.955328
0.947231
0.950557
0.956593
0.969992
0.990789
1.00754
1.01784
1.02501
1.02896
1.0338
1.0373
1.03791
1.04551
1.05705
1.05893
1.05901
1.05827
1.05542
1.05068
1.04763
1.04753
1.04846
1.05115
1.05134
1.05421
1.1044
1.57328
2.55966
3.10728
3.43859
3.52903
3.49953
3.46494
3.39234
3.36004
3.30936
3.22606
3.33103
4.29135
6.11556
7.57875
7.90231
7.75247
7.37075
7.05796
6.86454
6.75671
6.68537
6.63562
6.53653
6.42486
6.25788
5.99756
5.78048
5.67442
5.59645
5.52499
5.45377
5.36895
5.23834
5.05448
4.92058
4.85189
4.79834
4.75683
4.70444
4.62609
4.49152
4.31352
4.17834
4.10669
4.05984
4.02079
3.99553
3.95985
3.9093
3.84643
3.75377
3.62085
3.49497
3.42378
3.38393
3.35538
3.33499
3.31285
3.28183
3.23417
3.1476
3.04312
2.97361
2.93111
2.89701
2.86775
2.83441
2.78618
2.71861
2.65854
2.62219
2.59619
2.57253
2.54674
2.52018
2.49445
2.46268
2.41432
2.34171
2.27858
2.24303
2.22273
2.20733
2.19253
2.17399
2.14916
2.11761
2.07633
2.02725
1.98815
1.96064
1.93669
1.91124
1.88434
1.86171
1.84442
1.82369
1.80275
1.77881
1.76037
1.74422
1.75315
1.8064
1.94666
2.19797
2.46536
2.66895
2.73785
2.78761
2.80306
2.79085
2.7874
2.78445
2.76904
2.73739
2.69897
2.66311
2.63629
2.59245
2.56322
2.57165
2.6209
2.73175
2.93498
3.17917
3.4257
3.63806
3.81265
3.84561
3.86017
3.83556
3.78503
3.7387
3.69837
3.67653
3.64964
3.61878
3.5819
3.53242
3.465
3.39311
3.35652
3.33231
3.30986
3.2967
3.26581
3.76247
3.74989
3.70046
3.55255
3.31279
2.95904
2.60622
2.34346
2.0694
1.82753
1.67162
1.52891
1.35745
1.27417
1.21691
1.13927
1.06211
1.04694
1.01663
0.978713
0.973642
0.975663
0.971883
0.967553
0.972404
0.976868
0.982444
0.992056
1.00343
1.01732
1.02599
1.03802
1.052
1.05498
1.05564
1.05566
1.05319
1.04806
1.04737
1.04838
1.0518
1.05447
1.06364
1.14482
1.58101
2.77353
3.31918
3.4838
3.50948
3.45449
3.38784
3.36194
3.34154
3.3202
3.29964
3.22523
3.11065
3.13858
3.6887
5.22099
6.87824
7.44616
7.40362
7.18144
6.94932
6.71422
6.57955
6.50517
6.47423
6.38883
6.26752
6.05629
5.80885
5.67182
5.59386
5.51902
5.43886
5.3427
5.20097
5.01189
4.90327
4.84907
4.79891
4.74731
4.68633
4.60777
4.45945
4.25139
4.1404
4.09682
4.07022
4.07141
4.05406
4.00619
3.95025
3.85662
3.69936
3.54422
3.46499
3.4224
3.38993
3.36076
3.33059
3.29648
3.25799
3.20551
3.12013
3.02309
2.96428
2.92704
2.89506
2.86379
2.82939
2.78157
2.70702
2.63731
2.6064
2.58826
2.5743
2.56387
2.54697
2.52287
2.48165
2.40451
2.31439
2.26087
2.23395
2.21459
2.19905
2.18539
2.17386
2.16331
2.14593
2.10863
2.03917
1.9769
1.94976
1.92898
1.90609
1.8833
1.86175
1.8457
1.82831
1.81777
1.80844
1.80694
1.84304
1.97917
2.22019
2.50663
2.70498
2.85929
2.94153
2.93492
2.91044
2.85396
2.80217
2.7722
2.758
2.74462
2.72249
2.69251
2.66345
2.64071
2.61134
2.56699
2.51578
2.50252
2.50686
2.53898
2.62149
2.78183
2.99919
3.24868
3.4349
3.57575
3.59992
3.62726
3.65343
3.69127
3.70644
3.69101
3.66331
3.63035
3.58261
3.50056
3.40264
3.34079
3.30844
3.28771
3.28352
3.26224
3.77148
3.76396
3.75512
3.69236
3.5411
3.27142
2.97817
2.69453
2.38172
2.14505
1.9558
1.78519
1.60072
1.48345
1.38936
1.28109
1.18298
1.14046
1.09636
1.02892
0.998468
0.997434
0.98372
0.971249
0.974917
0.974792
0.971383
0.971878
0.975958
0.987299