/*--------------------------------*- C++ -*----------------------------------*\
  =========                 |
  \\      /  F ield         | OpenFOAM: The Open Source CFD Toolbox
   \\    /   O peration     | Website:  https://openfoam.org
    \\  /    A nd           | Version:  7
     \\/     M anipulation  |
\*---------------------------------------------------------------------------*/
FoamFile
{
    version     2.0;
    format      ascii;
    class       volScalarField;
    location    "1.5";
    object      T;
}
// * * * * * * * * * * * * * * * * * * * * * * * * * * * * * * * * * * * * * //

dimensions      [0 0 0 1 0 0 0];

internalField   nonuniform List<scalar> 
18432
(
1
1
1
1
1
1
1
1
1
1
1
1
1
1
1
1
1
1
1
1
1
1
1
1
1
1
1
1
1
1
1
1
1
1
1
1
1
1
1
1
1
1
1
1
1
1
1
1
1
1
1
1
1
1
1
1
1
1
1
1
1
1
1
1
1
1
1
1
1
1
1
1
1
1
1
1
1
1
1
1
1
1
1
1
1
1
1
1
1
1
1
1
1
1
1
1
1
1
1
1
1
1
1
1
1
1
1
1
1
1
1
1
1
1
1
1
1
1
1
1
1
1
1
1
1
1
1
1
1
1
1
1
1
1
1
1
1
1
1
1
1
1
1
1
1
1
1
1
1
1
1
1
1
1
1
1
1
1
1
1
1
1
1
1
1
1
1
1
1
1
1
1
1
1
1
1
1
1
1
1
1
1
1
1
1
1
1
1
1
1
1
1
1
1
1
1
1
1
1
1
1
1
1
1
1
1
1
1
1
1
1
1
1
1
1
1
1
1
1
1
1
1
1
1
1
1
1
1
1
1
1
1
1
1
1
1
1
1
1
1
1
1
1
1
1
1
1
1
1
1
1
1
1
1
1
1
1
1
1
1
1
1
1
1
1
1
1
1
1
1
1
1
1
1
1
1
1
1
1
1
1
1
1
1
1
1
1
1
1
1
1
1
1
1
1
1
1
1
1
1
1
1
1
1
1
1
1
1
1
1
1
1
1
1
1
1
1
1
1
1
1
1
1
1
1
1
1
1
1
1
1
1
1
1
1
1
1
1
1
1
1
1
1
1
1
1
1
1
1
1
1
1
1
1
1
1
1
1
1
1
1
1
1
1
1
1
1
1
1
1
1
1
1
1
1
1
1
1
1
1
1
1
1
1
1
1
1
1
1
1
1
1
1
1
1
1
1
1
1
1
1
1
1
1
1
1
1
1
1
1
1
1
1
1
1
1
1
1
1
1
1
1
1
1
1
1
1
1
1
1
1
1
1
1
1
1
1
1
1
1
1
1
1
1
1
1
1
1
1
1
1
1
1
1
1
1
1
1
1
1
1
1
1
1
1
1
1
1
1
1
1
1
1
1
1
1
1
1
1
1
1
1
1
1
1
1
1
1
1
1
1
1
1
1
1
1
1
1
1
1
1
1
1
1
1
1
1
1
1
1
1
1
1
1
1
1
1
1
1
1
1
1
1
1
1
1
1
1
1
1
1
1
1
1
1
1
1
1
1
1
1
1
1
1
1
1
1
1
1
1
1
1
1
1
1
1
1
1
1
1
1
1
1
1
1
1
1
1
1
1
1
1
1
1
1
1
1
1
1
1
1
1
1
1
1
1
1
1
1
1
1
1
1
1
1
1
1
1
1
1
1
1
1
1
1
1
1
1
1
1
1
1
1
1
1
1
1
1
1
1
1
1
1
1
1
1
1
1
1
1
1
1
1
1
1
1
1
1
1
1
1
1
1
1
1
1
1
1
1
1
1
1
1
1
1
1
1
1
1
1
1
1
1
1
1
1
1
1
1
1
1
1
1
1
1
1
1
1
1
1
1
1
1
1
1
1
1
1
1
1
1
1
1
1
1
1
1
1
1
1
1
1
1
1
1
1
1
1
1
1
1
1
1
1
1
1
1
1
1
1
1
1
1
1
1
1
1
1
1
1
1
1
1
1
1
1
1
1
1
1
1
1
1
1
1
1
1
1
1
1
1
1
1
1
1
1
1
1
1
1
1
1
1
1
1
1
1
1
1
1
1
1
1
1
1
1
1
1
1
1
1
1
1
1
1
1
1
1
1
1
1
1
1
1
1
1
1
1
1
1
1
1
1
1
1
1
1
1
1
1
1
1
1
1
1
1
1
1
1
1
1
1
1
1
1
1
1
1
1
1
1
1
1
1
1
1
1
1
1
1
1
1
1
1
1
1
1
1
1
1
1
1
1
1
1
1
1
1
1
1
1
1
1
1
1
1
1
1
1
1
1
1
1
1
1
1
1
1
1
1
1
1
1
1
1
1
1
1
1
1
1
1
1
1
1
1
1
1
1
1
1
1
1
1
1
1
1
1
1
1
1
1
1
1
1
1
1
1
1
1
1
1
1
1
1
1
1
1
1
1
1
1
1
1
1
1
1
1
1
1
1
1
1
1
1
1
1
1
1
1
1
1
1
1
1
1
1
1
1
1
1
1
1
1
1
1
1
1
1
1
1
1
1
1
1
1
1
1
1
1
1
1
1
1
1
1
1
1
1
1
1
1
1
1
1
1
1
1
1
1
1
1
1
1
1
1
1
1
1
1
1
1
1
1
1
1
1
1
1
1
1
1
1
1
1
1
1
1
1
1
1
1
1
1
1
1
1
1
1
1
1
1
1
1
1
1
1
1
1
1
1
1
1
1
1
1
1
1
1
1
1
1
1
1
1
1
1
1
1
1
1
1
1
1
1
1
1
1
1
1
1
1
1
1
1
1
1
1
1
1
1
1
1
1
1
1
1
1
1
1
1
1
1
1
1
1
1
1
1
1
1
1
1
1
1
1
1
1
1
1
1
1
1
1
1
1
1
1
1
1
1
1
1
1
1
1
1
1
1
1
1
1
1
1
1
1
1
1
1
1
1
1
1
1
1
1
1
1
1
1
1
1
1
1
1
1
1
1
1
1
1
1
1
1
1
1
1
1
1
1
1
1
1
1
1
1
1
1
1
1
1
1
1
1
1
1
1
1
1
1
1
1
1
1
1
1
1
1
1
1
1
1
1
1
1
1
1
1
1
1
1
1
1
1
1
1
1
1
1
1
1
1
1
1
1
1
1
1
1
1
1
1
1
1
1
1
1
1
1
1
1
1
1
1
1
1
1
1
1
1
1
1
1
1
1
1
1
1
1
1
1
1
1
1
1
1
1
1
1
1
1
1
1
1
1
1
1
1
1
1
1
1
1
1
1
1
1
1
1
1
1
1
1
1
1
1
1
1
1
1
1
1
1
1
1
1
1
1
1
1
1
1
1
1
1
1
1
1
1
1
1
1
1
1
1
1
1
1
1
1
1
1
1
1
1
1
1
1
1
1
1
1
1
1
1
1
1
1
1
1
1
1
1
1
1
1
1
1
1
1
1
1
1
1
1
1
1
1
1
1
1
1
1
1
1
1
1
1
1
1
1
1
1
1
1
1
1
1
1
1
1
1
1
1
1
1
1
1
1
1
1
1
1
1
1
1
1
1
1
1
1
1
1
1
1
1
1
1
1
1
1
1
1
1
1
1
1
1
1
1
1
1
1
1
1
1
1
1
1
1
1
1
1
1
1
1
1
1
1
1
1
1
1
1
1
1
1
1
1
1
1
1
1
1
1
1
1
1
1
1
1
1
1
1
1
1
1
1
1
1
1
1
1
1
1
1
1
1
1
1
1
1
1
1
1
1
1
1
1
1
1
1
1
1
1
1
1
1
1
1
1
1
1
1
1
1
1
1
1
1
1
1
1
1
1
1
1
1
1
1
1
1
1
1
1
1
1
1
1
1
1
1
1
1
1
1
1
1
1
1
1
1
1
1
1
1
1
1
1
1
1
1
1
1
1
1
1
1
1
1
1
1
1
1
1
1
1
1
1
1
1
1
1
1
1
1
1
1
1
1
1
1
1
1
1
1
1
1
1
1
1
1
1
1
1
1
1
1
1
1
1
1
1
1
1
1
1
1
1
1
1
1
1
1
1
1
1
1
1
1
1
1
1
1
1
1
1
1
1
1
1
1
1
1
1
1
1
1
1
1
1
1
1
1
1
1
1
1
1
1
1
1
1
1
1
1
1
1
1
1
1
1
1
1
1
1
1
1
1
1
1
1
1
1
1
1
1
1
1
1
1
1
1
1
1
1
1
1
1
1
1
1
1
1
1
1
1
1
1
1
1
1
1
1
1
1
1
1
1
1
1
1
1
1
1
1
1
1
1
1
1
1
1
1
1
1
1
1
1
1
1
1
1
1
1
1
1
1
1
1
1
1
1
1
1
1
1
1
1
1
1
1
1
1
1
1
1
1
1
1
1
1
1
1
1
1
1
1
1
1
1
1
1
1
1
1
1
1
1
1
1
1
1
1
1
1
1
1
1
1
1
1
1
1
1
1
1
1
1
1
1
1
1
1
1
1
1
1
1
1
1
1
1
1
1
1
1
1
1
1
1
1
1
1
1
1
1
1
1
1
1
1
1
1
1
1
1
1
1
1
1
1
1
1
1
1
1
1
1
1
1
1
1
1
1
1
1
1
1
1
1
1
1
1
1
1
1
1
1
1
1
1
1
1
1
1
1
1
1
1
1
1
1
1
1
1
1
1
1
1
1
1
1
1
1
1
1
1
1
1
1
1
1
1
1
1
1
1
1
1
1
1
1
1
1
1
1
1
1
1
1
1
1
1
1
1
1
1
1
1
1
1
1
1
1
1
1
1
1
1
1
1
1
1
1
1
1
1
1
1
1
1
1
1
1
1
1
1
1
1
1
1
1
1
1
1
1
1
1
1
1
1
1
1
1
1
1
1
1
1
1
1
1
1
1
1
1
1
1
1
1
1
1
1
1
1
1
1
1
1
1
1
1
1
1
1
1
1
1
1
1
1
1
1
1
1
1
1
1
1
1
1
1
1
1
1
1
1
1
1
1
1
1
1
1
1
1
1
1
1
1
1
1
1
1
1
1
1
1
1
1
1
1
1
1
1
1
1
1
1
1
1
1
1
1
1
1
1
1
1
1
1
1
1
1
1
1
1
1
1
1
1
1
1
1
1
1
1
1
1
1
1
1
1
1
1
1
1
1
1
1
1
1
1
1
1
1
1
1
1
1
1
1
1
1
1
1
1
1
1
1
1
1
1
1
1
1
1
1
1
1
1
1
1
1
1
1
1
1
1
1
1
1
1
1
1
1
1
1
1
1
1
1
1
1
1
1
1
1
1
1
1
1
1
1
1
1
1
1
1
1
1
1
1
1
1
1
1
1
1
1
1
1
1
1
1
1
1
1
1
1
1
1
1
1
1
1
1
1
1
1
1
1
1
1
1
1
1
1
1
1
1
1
1
1
1
1
1
1
1
1
1
1
1
1
1
1
1
1
1
1
1
1
1
1
1
1
1
1
1
1
1
1
1
1
1
1
1
1
1
1
1
1
1
1
1
1
1
1
1
1
1
1
1
1
1
1
1
1
1
1
1
1
1
1
1
1
1
1
1
1
1
1
1
1
1
1
1
1
1
1
1
1
1
1
1
1
1
1
1
1
1
1
1
1
1
1
1
1
1
1
1
1
1
1
1
1
1
1
1
1
1
1
1
1
1
1
1
1
1
1
1
1
1
1
1
1
1
1
1
1
1
1
1
1
1
1
1
1
1
1
1
1
1
1
1
1
1
1
1
1
1
1
1
1
1
1
1
1
1
1
1
1
1
1
1
1
1
1
1
1
1
1
1
1
1
1
1
1
1
1
1
1
1
1
1
1
1
1
1
1
1
1
1
1
1
1
1
1
1
1
1
1
1
1
1
1
1
1
1
1
1
1
1
1
1
1
1
1
1
1
1
1
1
1
1
1
1
1
1
1
1
1
1
1
1
1
1
1
1
1
1
1
1
1
1
1
1
1
1
1
1
1
1
1
1
1
1
1
1
1
1
1
1
1
1
1
1
1
1
1
1
1
1
1
1
1
1
1
1
1
1
1
1
1
1
1
1
1
1
1
1
1
1
1
1
1
1
1
1
1
1
1
1
1
1
1
1
1
1
1
1
1
1
1
1
1
1
1
1
1
1
1
1
1
1
1
1
1
1
1
1
1
1
1
1
1
1
1
1
1
1
1
1
1
1
1
1
1
1
1
1
1
1
1
1
1
1
1
1
1
1
1
1
1
1
1
1
1
1
1
1
1
1
1
1
1
1
1
1
1
1
1
1
1
1
1
1
1
1
1
1
1
1
1
1
1
1
1
1
1
1
1
1
1
1
1
1
1
1
1
1
1
1
1
1
1
1
1
1
1
1
1
1
1
1
1
1
1
1
1
1
1
1
1
1
1
1
1
1
1
1
1
1
1
1
1
1
1
1
1
1
1
1
1
1
1
1
1
1
1
1
1
1
1
1
1
1
1
1
1
1
1
1
1
1
1
1
1
1
1
1
1
1
1
1
1
1
1
1
1
1
1
1
1
1
1
1
1
1
1
1
1
1
1
1
1
1
1
1
1
1
1
1
1
1
1
1
1
1
1
1
1
1
1
1
1
1
1
1
1
1
1
1
1
1
1
1
1
1
1
1
1
1
1
1
1
1
1
1
1
1
1
1
1
1
1
1
1
1
1
1
1
1
1
1
1
1
1
1
1
1
1
1
1
1
1
1
1
1
1
1
1
1
1
1
1
1
1
1
1
1
1
1
1
1
1
1
1
1
1
1
1
1
1
1
1
1
1
1
1
1
1
1
1
1
1
1
1
1
1
1
1
1
1
1
1
1
1
1
1
1
1
1
1
1
1
1
1
1
1
1
1
1
1
1
1
1
1
1
1
1
1
1
1
1
1
1
1
1
1
1
1
1
1
1
1
1
1
1
1
1
1
1
1
1
1
1
1
1
1
1
1
1
1
1
1
1
1
1
1
1
1
1
1
1
1
1
1
1
1
1
1
1
1
1
1
1
1
1
1
1
1
1
1
1
1
1
1
1
1
1
1
1
1
1
1
1
1
1
1
1
1
1
1
1
1
1
1
1
1
1
1
1
1
1
1
1
1
1
1
1
1
1
1
1
1
1
1
1
1
1
1
1
1
1
1
1
1
1
1
1
1
1
1
1
1
1
1
1
1
1
1
1
1
1
1
1
1
1
1
1
1
1
1
1
1
1
1
1
1
1
1
1
1
1
1
1
1
1
1
1
1
1
1
1
1
1
1
1
1
1
1
1
1
1
1
1
1
1
1
1
1
1
1
1
1
1
1
1
1
1
1.07773
1.1809
1.28665
1.37683
1.47618
1.55876
1.61779
1.66939
1.69628
1.69064
1.6602
1.61241
1.57134
1.54007
1.52666
1.51435
1.51303
1.51541
1.52029
1.52573
1.5307
1.53311
1.53437
1.53548
1.53712
1.53925
1.54109
1.54182
1.54203
1.54261
1.54431
1.54625
1.54703
1.54709
1.54693
1.54606
1.54484
1.54426
1.54421
1.54439
1.54465
1.54487
1.54525
1.5454
1.54552
1.54551
1.54539
1.54551
1.00073
1.00474
1.025
1.06954
1.12818
1.21601
1.2999
1.37961
1.45158
1.50692
1.52918
1.55606
1.56903
1.56362
1.55356
1.54594
1.54075
1.5356
1.53311
1.53321
1.53445
1.53711
1.53997
1.54165
1.54267
1.5431
1.5442
1.54452
1.5444
1.54449
1.5452
1.5463
1.54722
1.54774
1.54773
1.54738
1.54677
1.54648
1.54654
1.54688
1.54747
1.54798
1.54814
1.5481
1.54796
1.54763
1.54704
1.54742
1
0.999993
1.00002
1.00003
1.00046
1.00463
1.02161
1.07427
1.18324
1.34401
1.50115
1.58039
1.62557
1.62429
1.61438
1.59709
1.57937
1.55831
1.5465
1.54636
1.54754
1.55008
1.55371
1.55484
1.5551
1.55519
1.55497
1.55518
1.55504
1.55476
1.55446
1.55453
1.55459
1.55439
1.55388
1.55313
1.55243
1.55217
1.55217
1.55249
1.55325
1.55405
1.55428
1.55409
1.55366
1.55312
1.55229
1.55304
1
1
1
1
0.999999
1
1
1.00003
1.00207
1.02608
1.15562
1.32978
1.51676
1.58504
1.60707
1.60414
1.59207
1.58847
1.5836
1.5754
1.57297
1.56897
1.56649
1.56554
1.56623
1.56673
1.56759
1.56907
1.56959
1.5694
1.56897
1.56834
1.5679
1.56732
1.56642
1.5655
1.56443
1.56347
1.56313
1.56318
1.56349
1.56362
1.56337
1.56254
1.56148
1.5605
1.55968
1.56062
1
1
1
1
1
1
1
1
1
0.999969
1.00086
1.01603
1.11026
1.30051
1.45769
1.59034
1.61153
1.61817
1.61304
1.60564
1.59109
1.58105
1.57431
1.57089
1.57099
1.57171
1.57311
1.57535
1.57711
1.57802
1.57886
1.57932
1.57933
1.57909
1.57833
1.57748
1.57637
1.57533
1.57496
1.575
1.57509
1.57486
1.57399
1.57272
1.57125
1.56996
1.56893
1.56977
1
1
1
1
1
1
1
1
1
0.999999
0.999999
0.999981
1.00026
1.01221
1.07682
1.26035
1.43387
1.55324
1.60758
1.60416
1.5991
1.59398
1.58698
1.58221
1.57943
1.57811
1.57708
1.57755
1.57896
1.58068
1.58267
1.58459
1.58473
1.58446
1.58382
1.58297
1.58207
1.58144
1.58138
1.5815
1.58147
1.5809
1.57988
1.57878
1.57774
1.57705
1.57631
1.57721
1
1
1
1
1
1
1
1
1
1
1
0.999999
0.999999
0.999988
1.00014
1.0071
1.07351
1.21342
1.40214
1.5053
1.58125
1.59803
1.59783
1.59355
1.58932
1.58558
1.58079
1.57846
1.57874
1.58017
1.58212
1.58442
1.58516
1.58503
1.58441
1.58362
1.58327
1.58317
1.58345
1.58397
1.58395
1.58351
1.58282
1.58233
1.58205
1.58188
1.58146
1.58204
1
1
1
1
1
1
1
1
1
1
1
1
1
0.999999
0.999999
0.999989
1.00019
1.00419
1.05591
1.19067
1.37042
1.48757
1.54144
1.57669
1.58271
1.58293
1.58012
1.57836
1.57888
1.57932
1.58004
1.58061
1.58155
1.58216
1.58221
1.58227
1.5825
1.58309
1.58402
1.58463
1.58467
1.5844
1.58382
1.58357
1.58354
1.58351
1.58335
1.58343
1
1
1
1
1
1
1
1
1
1
1
1
1
1
1
0.999999
0.999999
0.999993
1.00014
1.00411
1.04114
1.18532
1.33644
1.48146
1.52837
1.5504
1.56123
1.57039
1.57267
1.57157
1.57178
1.57297
1.57427
1.5759
1.57755
1.57893
1.58025
1.5815
1.58261
1.58315
1.58317
1.58315
1.58308
1.58289
1.58275
1.58279
1.58284
1.58276
1
1
1
1
1
1
1
1
1
1
1
1
1
1
1
1
1
0.999999
0.999999
0.999995
1.00008
1.00492
1.03641
1.16122
1.32973
1.45792
1.53487
1.54793
1.55823
1.56138
1.56209
1.56392
1.56525
1.56668
1.56875
1.5713
1.57382
1.57582
1.57718
1.578
1.57842
1.57895
1.57963
1.58005
1.58029
1.58056
1.58108
1.58099
1
1
1
1
1
1
1
1
1
1
1
1
1
1
1
1
1
1
1
1
1
0.999995
1.00009
1.00358
1.04166
1.14725
1.32424
1.44664
1.5272
1.55356
1.55726
1.55967
1.56148
1.56187
1.56307
1.56485
1.56643
1.56829
1.57012
1.5715
1.57222
1.57292
1.57375
1.57428
1.57474
1.57532
1.5764
1.57663
1
1
1
1
1
1
1
1
1
1
1
1
1
1
1
1
1
1
1
1
1
1
1
0.999995
1.00016
1.00301
1.04344
1.15917
1.32686
1.44327
1.51359
1.54551
1.55618
1.55911
1.56298
1.56342
1.56314
1.56383
1.5655
1.56713
1.56808
1.56856
1.56871
1.56874
1.56912
1.57001
1.57142
1.57187
1
1
1
1
1
1
1
1
1
1
1
1
1
1
1
1
1
1
1
1
1
1
1
0.999999
1
0.999996
1.00026
1.00429
1.04302
1.17918
1.33927
1.46232
1.50725
1.53394
1.55285
1.55614
1.5557
1.55711
1.55946
1.56155
1.56297
1.5633
1.5633
1.56351
1.56422
1.56537
1.56712
1.56767
1
1
1
1
1
1
1
1
1
1
1
1
1
1
1
1
1
1
1
1
1
1
1
1
1
0.999999
1
0.999997
1.00029
1.00744
1.05105
1.2017
1.36043
1.49218
1.52703
1.53737
1.54207
1.54726
1.5515
1.55388
1.55549
1.55681
1.55785
1.5588
1.55979
1.5607
1.56252
1.56323
1
1
1
1
1
1
1
1
1
1
1
1
1
1
1
1
1
1
1
1
1
1
1
1
1
1
1
1
0.999999
1
1.00043
1.01208
1.07292
1.24072
1.39935
1.50423
1.54642
1.54858
1.55049
1.5522
1.55266
1.55391
1.55494
1.55556
1.55641
1.5576
1.55942
1.55995
1
1
1
1
1
1
1
1
1
1
1
1
1
1
1
1
1
1
1
1
1
1
1
1
1
1
1
1
1
1
0.999999
1.00003
1.001
1.02046
1.11628
1.29173
1.43795
1.51608
1.54864
1.55539
1.55667
1.55853
1.55806
1.55756
1.55749
1.55786
1.55857
1.5587
1
1
1
1
1
1
1
1
1
1
1
1
1
1
1
1
1
1
1
1
1
1
1
1
1
1
1
1
1
1
1
1
0.999999
1.00012
1.00288
1.0389
1.17998
1.36238
1.47686
1.51852
1.54504
1.55547
1.55422
1.55485
1.55596
1.55729
1.55837
1.55839
1
1
1
1
1
1
1
1
1
1
1
1
1
1
1
1
1
1
1
1
1
1
1
1
1
1
1
1
1
1
1
1
1
1
1
1.00046
1.00945
1.07692
1.2541
1.43313
1.52593
1.53578
1.5414
1.54643
1.55121
1.5547
1.55634
1.55617
1
1
1
1
1
1
1
1
1
1
1
1
1
1
1
1
1
1
1
1
1
1
1
1
1
1
1
1
1
1
1
1
1
1
1
0.999999
1.00002
1.00178
1.02924
1.15431
1.35205
1.48795
1.5497
1.55361
1.55505
1.55688
1.55625
1.55527
1
1
1
1
1
1
1
1
1
1
1
1
1
1
1
1
1
1
1
1
1
1
1
1
1
1
1
1
1
1
1
1
1
1
1
1
1
1
1.00028
1.0081
1.08343
1.26091
1.4371
1.52044
1.55503
1.56112
1.56079
1.55946
1
1
1
1
1
1
1
1
1
1
1
1
1
1
1
1
1
1
1
1
1
1
1
1
1
1
1
1
1
1
1
1
1
1
1
1
1
1
1
1.00004
1.00211
1.03303
1.18582
1.39228
1.50166
1.53024
1.54948
1.55511
1
1
1
1
1
1
1
1
1
1
1
1
1
1
1
1
1
1
1
1
1
1
1
1
1
1
1
1
1
1
1
1
1
1
1
1
1
1
1
1
1
1.00055
1.01368
1.11401
1.3143
1.48587
1.54138
1.54869
1
1
1
1
1
1
1
1
1
1
1
1
1
1
1
1
1
1
1
1
1
1
1
1
1
1
1
1
1
1
1
1
1
1
1
1
1
1
1
1
1
1
1.0001
1.0055
1.06097
1.25705
1.44064
1.54092
1
1
1
1
1
1
1
1
1
1
1
1
1
1
1
1
1
1
1
1
1
1
1
1
1
1
1
1
1
1
1
1
1
1
1
1
1
1
1
1
1
1
1
1.00003
1.00154
1.03798
1.20178
1.41997
1
1
1
1
1
1
1
1
1
1
1
1
1
1
1
1
1
1
1
1
1
1
1
1
1
1
1
1
1
1
1
1
1
1
1
1
1
1
1
1
1
1
1
1
1
1.00091
1.02019
1.13852
1
1
1
1
1
1
1
1
1
1
1
1
1
1
1
1
1
1
1
1
1
1
1
1
1
1
1
1
1
1
1
1
1
1
1
1
1
1
1
1
1
1
1
1
1
1
1.00029
1.00638
1
1
1
1
1
1
1
1
1
1
1
1
1
1
1
1
1
1
1
1
1
1
1
1
1
1
1
1
1
1
1
1
1
1
1
1
1
1
1
1
1
1
1
1
1
1
1
0.999935
1
1
1
1
1
1
1
1
1
1
1
1
1
1
1
1
1
1
1
1
1
1
1
1
1
1
1
1
1
1
1
1
1
1
1
1
1
1
1
1
1
1
1
1
1
1
1
0.999979
1
1
1
1
1
1
1
1
1
1
1
1
1
1
1
1
1
1
1
1
1
1
1
1
1
1
1
1
1
1
1
1
1
1
1
1
1
1
1
1
1
1
1
1
1
1
1
0.999998
1
1
1
1
1
1
1
1
1
1
1
1
1
1
1
1
1
1
1
1
1
1
1
1
1
1
1
1
1
1
1
1
1
1
1
1
1
1
1
1
1
1
1
1
1
1
1
1
1
1
1
1
1
1
1
1
1
1
1
1
1
1
1
1
1
1
1
1
1
1
1
1
1
1
1
1
1
1
1
1
1
1
1
1
1
1
1
1
1
1
1
1
1
1
1
1
1
1
1
1
1
1
1
1
1
1
1
1
1
1
1
1
1
1
1
1
1
1
1
1
1
1
1
1
1
1
1
1
1
1
1
1
1
1
1
1
1
1
1
1
1
1
1
1
1
1
1
1
1
1
1
1
1
1
1
1
1
1
1
1
1
1
1
1
1
1
1
1
1
1
1
1
1
1
1
1
1
1
1
1
1
1
1
1
1
1
1
1
1
1
1
1
1
1
1
1
1
1
1
1
1
1
1
1
1
1
1
1
1
1
1
1
1
1
1
1
1
1
1
1
1
1
1
1
1
1
1
1
1
1
1
1
1
1
1
1
1
1
1
1
1
1
1
1
1
1
1
1
1
1
1
1
1
1
1
1
1
1
1
1
1
1
1
1
1
1
1
1
1
1
1
1
1
1
1
1
1
1
1
1
1
1
1
1
1
1
1
1
1
1
1
1
1
1
1
1
1
1
1
1
1
1
1
1
1
1
1
1
1
1
1
1
1
1
1
1
1
1
1
1
1
1
1
1
1
1
1
1
1
1
1
1
1
1
1
0.999998
1
1
1
1
1
1
1
1
1
1
1
1
1
1
1
1
1
1
1
1
1
1
1
1
1
1
1
1
1
1
1
1
1
1
1
1
1
1
1
1
1
1
1
1
1
1
1
0.999979
1
1
1
1
1
1
1
1
1
1
1
1
1
1
1
1
1
1
1
1
1
1
1
1
1
1
1
1
1
1
1
1
1
1
1
1
1
1
1
1
1
1
1
1
1
1
1
0.999935
1
1
1
1
1
1
1
1
1
1
1
1
1
1
1
1
1
1
1
1
1
1
1
1
1
1
1
1
1
1
1
1
1
1
1
1
1
1
1
1
1
1
1
1
1
1
1.00029
1.00638
1
1
1
1
1
1
1
1
1
1
1
1
1
1
1
1
1
1
1
1
1
1
1
1
1
1
1
1
1
1
1
1
1
1
1
1
1
1
1
1
1
1
1
1
1
1.00091
1.0202
1.13854
1
1
1
1
1
1
1
1
1
1
1
1
1
1
1
1
1
1
1
1
1
1
1
1
1
1
1
1
1
1
1
1
1
1
1
1
1
1
1
1
1
1
1
1.00003
1.00154
1.03797
1.20184
1.41997
1
1
1
1
1
1
1
1
1
1
1
1
1
1
1
1
1
1
1
1
1
1
1
1
1
1
1
1
1
1
1
1
1
1
1
1
1
1
1
1
1
1
1.0001
1.0055
1.06096
1.25704
1.4407
1.54089
1
1
1
1
1
1
1
1
1
1
1
1
1
1
1
1
1
1
1
1
1
1
1
1
1
1
1
1
1
1
1
1
1
1
1
1
1
1
1
1
1
1.00055
1.01369
1.11401
1.31428
1.48588
1.54139
1.54869
1
1
1
1
1
1
1
1
1
1
1
1
1
1
1
1
1
1
1
1
1
1
1
1
1
1
1
1
1
1
1
1
1
1
1
1
1
1
1
1.00004
1.00211
1.03302
1.18584
1.39226
1.50167
1.53024
1.54948
1.55512
1
1
1
1
1
1
1
1
1
1
1
1
1
1
1
1
1
1
1
1
1
1
1
1
1
1
1
1
1
1
1
1
1
1
1
1
1
1
1.00028
1.0081
1.08343
1.26091
1.43711
1.52043
1.55504
1.56112
1.56079
1.55946
1
1
1
1
1
1
1
1
1
1
1
1
1
1
1
1
1
1
1
1
1
1
1
1
1
1
1
1
1
1
1
1
1
1
1
0.999999
1.00002
1.00178
1.02924
1.15431
1.35205
1.48796
1.5497
1.55361
1.55505
1.55688
1.55625
1.55527
1
1
1
1
1
1
1
1
1
1
1
1
1
1
1
1
1
1
1
1
1
1
1
1
1
1
1
1
1
1
1
1
1
1
1
1.00046
1.00945
1.07692
1.2541
1.43312
1.52593
1.53578
1.5414
1.54643
1.55121
1.5547
1.55634
1.55617
1
1
1
1
1
1
1
1
1
1
1
1
1
1
1
1
1
1
1
1
1
1
1
1
1
1
1
1
1
1
1
1
0.999999
1.00012
1.00288
1.0389
1.17998
1.36238
1.47686
1.51852
1.54505
1.55547
1.55422
1.55485
1.55596
1.55729
1.55837
1.55839
1
1
1
1
1
1
1
1
1
1
1
1
1
1
1
1
1
1
1
1
1
1
1
1
1
1
1
1
1
1
0.999999
1.00003
1.001
1.02046
1.11628
1.29173
1.43795
1.51608
1.54864
1.55539
1.55668
1.55853
1.55806
1.55756
1.55749
1.55786
1.55857
1.5587
1
1
1
1
1
1
1
1
1
1
1
1
1
1
1
1
1
1
1
1
1
1
1
1
1
1
1
1
0.999999
1
1.00043
1.01208
1.07292
1.24072
1.39935
1.50423
1.54642
1.54858
1.55049
1.5522
1.55266
1.55391
1.55494
1.55556
1.55641
1.5576
1.55942
1.55995
1
1
1
1
1
1
1
1
1
1
1
1
1
1
1
1
1
1
1
1
1
1
1
1
1
0.999999
1
0.999997
1.00029
1.00744
1.05105
1.2017
1.36043
1.49218
1.52703
1.53737
1.54207
1.54726
1.5515
1.55388
1.55549
1.55681
1.55785
1.5588
1.55979
1.5607
1.56252
1.56323
1
1
1
1
1
1
1
1
1
1
1
1
1
1
1
1
1
1
1
1
1
1
1
0.999999
1
0.999996
1.00026
1.00429
1.04302
1.17918
1.33927
1.46232
1.50725
1.53394
1.55285
1.55614
1.5557
1.55711
1.55946
1.56155
1.56297
1.5633
1.5633
1.56351
1.56422
1.56537
1.56712
1.56767
1
1
1
1
1
1
1
1
1
1
1
1
1
1
1
1
1
1
1
1
1
1
1
0.999995
1.00016
1.00301
1.04344
1.15917
1.32686
1.44327
1.51359
1.54551
1.55618
1.55911
1.56298
1.56342
1.56314
1.56383
1.5655
1.56713
1.56808
1.56856
1.56871
1.56874
1.56912
1.57001
1.57142
1.57187
1
1
1
1
1
1
1
1
1
1
1
1
1
1
1
1
1
1
1
1
1
0.999995
1.00009
1.00358
1.04166
1.14725
1.32424
1.44664
1.5272
1.55356
1.55726
1.55967
1.56148
1.56187
1.56307
1.56485
1.56643
1.56829
1.57012
1.5715
1.57222
1.57292
1.57375
1.57428
1.57474
1.57532
1.5764
1.57663
1
1
1
1
1
1
1
1
1
1
1
1
1
1
1
1
1
0.999999
0.999999
0.999995
1.00008
1.00492
1.03641
1.16122
1.32973
1.45792
1.53487
1.54793
1.55823
1.56138
1.56209
1.56392
1.56525
1.56668
1.56875
1.5713
1.57382
1.57582
1.57718
1.578
1.57842
1.57895
1.57963
1.58005
1.58029
1.58056
1.58108
1.58099
1
1
1
1
1
1
1
1
1
1
1
1
1
1
1
0.999999
0.999999
0.999993
1.00014
1.00411
1.04114
1.18532
1.33644
1.48146
1.52837
1.5504
1.56123
1.57039
1.57267
1.57157
1.57178
1.57296
1.57427
1.5759
1.57755
1.57893
1.58025
1.5815
1.58261
1.58315
1.58317
1.58315
1.58308
1.58289
1.58275
1.58279
1.58284
1.58276
1
1
1
1
1
1
1
1
1
1
1
1
1
0.999999
0.999999
0.999989
1.00019
1.00419
1.05591
1.19067
1.37042
1.48757
1.54144
1.57669
1.58271
1.58293
1.58012
1.57836
1.57888
1.57932
1.58004
1.58061
1.58155
1.58216
1.58221
1.58227
1.5825
1.58309
1.58402
1.58463
1.58467
1.5844
1.58382
1.58357
1.58354
1.58351
1.58335
1.58343
1
1
1
1
1
1
1
1
1
1
1
0.999999
0.999999
0.999988
1.00014
1.0071
1.07351
1.21342
1.40214
1.5053
1.58125
1.59803
1.59783
1.59355
1.58932
1.58558
1.58079
1.57846
1.57874
1.58017
1.58212
1.58442
1.58516
1.58503
1.58441
1.58362
1.58327
1.58317
1.58345
1.58397
1.58395
1.58351
1.58282
1.58233
1.58205
1.58188
1.58146
1.58204
1
1
1
1
1
1
1
1
1
0.999999
0.999999
0.999981
1.00026
1.01221
1.07682
1.26035
1.43387
1.55324
1.60758
1.60416
1.5991
1.59398
1.58698
1.58221
1.57943
1.57811
1.57708
1.57755
1.57896
1.58068
1.58267
1.58459
1.58473
1.58446
1.58382
1.58297
1.58207
1.58144
1.58138
1.5815
1.58147
1.5809
1.57988
1.57878
1.57774
1.57705
1.57631
1.57721
1
1
1
1
1
1
1
1
1
0.999969
1.00086
1.01603
1.11026
1.30051
1.45769
1.59034
1.61153
1.61817
1.61304
1.60564
1.59109
1.58105
1.57431
1.57089
1.57099
1.57171
1.57311
1.57535
1.57711
1.57802
1.57885
1.57932
1.57933
1.57909
1.57833
1.57748
1.57637
1.57533
1.57496
1.575
1.57509
1.57486
1.57399
1.57272
1.57125
1.56996
1.56893
1.56977
1
1
1
1
0.999999
1
1
1.00003
1.00207
1.02608
1.15562
1.32978
1.51676
1.58505
1.60707
1.60414
1.59207
1.58847
1.5836
1.5754
1.57297
1.56897
1.56649
1.56554
1.56623
1.56673
1.56759
1.56907
1.56959
1.5694
1.56897
1.56834
1.5679
1.56732
1.56642
1.5655
1.56443
1.56347
1.56313
1.56318
1.56349
1.56362
1.56337
1.56254
1.56148
1.5605
1.55968
1.56062
1
0.999993
1.00002
1.00003
1.00046
1.00463
1.02161
1.07427
1.18324
1.34401
1.50115
1.58039
1.62557
1.62429
1.61438
1.59709
1.57937
1.55831
1.5465
1.54636
1.54754
1.55008
1.55371
1.55484
1.5551
1.55519
1.55497
1.55518
1.55504
1.55476
1.55446
1.55453
1.55459
1.55439
1.55388
1.55313
1.55243
1.55217
1.55217
1.55249
1.55325
1.55405
1.55428
1.55409
1.55366
1.55312
1.55229
1.55304
1.00073
1.00474
1.025
1.06954
1.12818
1.21601
1.2999
1.37961
1.45158
1.50692
1.52918
1.55606
1.56903
1.56362
1.55356
1.54594
1.54075
1.5356
1.53311
1.53321
1.53445
1.53711
1.53997
1.54165
1.54267
1.5431
1.5442
1.54452
1.5444
1.54449
1.5452
1.5463
1.54722
1.54774
1.54773
1.54738
1.54677
1.54648
1.54654
1.54688
1.54746
1.54798
1.54814
1.5481
1.54796
1.54763
1.54704
1.54742
1.07773
1.1809
1.28665
1.37683
1.47618
1.55876
1.61779
1.66939
1.69628
1.69064
1.6602
1.61241
1.57134
1.54007
1.52666
1.51435
1.51303
1.51541
1.52029
1.52573
1.5307
1.53311
1.53437
1.53548
1.53712
1.53925
1.54109
1.54182
1.54203
1.54261
1.54431
1.54625
1.54703
1.54709
1.54693
1.54606
1.54484
1.54426
1.54421
1.54439
1.54465
1.54487
1.54525
1.5454
1.54552
1.54551
1.54539
1.54551
1.40267
1.23232
1.11716
1.04471
0.977574
0.977613
1.01012
1.02769
1.03325
1.05625
1.10293
1.10913
1.10305
1.1033
1.10867
1.1112
1.11367
1.12082
1.12464
1.12338
1.12071
1.11832
1.1167
1.1135
1.11025
1.11013
1.1101
1.10949
1.10783
1.10597
1.1045
1.10361
1.10335
1.10337
1.10401
1.10522
1.10536
1.10531
1.10499
1.10357
1.10276
1.10279
1.10306
1.10403
1.10467
1.10454
1.10384
1.10332
1.10498
1.15168
1.35498
1.60449
1.81414
2.0349
2.21945
2.23046
2.18509
2.11889
2.09555
2.08445
2.06228
2.04551
2.03753
2.03348
2.02849
2.01795
2.00565
1.98781
1.95928
1.93817
1.93084
1.92659
1.92486
1.91992
1.91192
1.9002
1.87935
1.85695
1.84578
1.83917
1.83295
1.82657
1.81786
1.80181
1.78452
1.77666
1.7718
1.76803
1.76433
1.75951
1.75208
1.73572
1.71084
1.69388
1.68649
1.6816
1.67794
1.67682
1.67456
1.67082
1.66588
1.65273
1.63046
1.61565
1.60922
1.6052
1.60158
1.59736
1.59157
1.5823
1.56836
1.56014
1.55688
1.55425
1.55152
1.54817
1.54255
1.53062
1.51103
1.49764
1.49261
1.48972
1.48768
1.48699
1.4858
1.48296
1.47852
1.4704
1.45592
1.44194
1.43459
1.43007
1.42659
1.42372
1.42072
1.41694
1.41161
1.40491
1.39838
1.39241
1.38532
1.37484
1.3656
1.36211
1.36
1.35802
1.35609
1.35398
1.35114
1.34533
1.33246
1.31954
1.3172
1.31732
1.31915
1.32965
1.35997
1.41991
1.49013
1.55885
1.61685
1.6631
1.70272
1.73551
1.76477
1.78905
1.78905
1.78468
1.77702
1.76131
1.74052
1.72612
1.72081
1.71824
1.71633
1.71414
1.7106
1.70538
1.69552
1.68157
1.67017
1.663
1.66005
1.65912
1.65794
1.65598
1.65453
1.65549
1.65546
1.65162
1.64711
1.63909
1.50224
1.41447
1.32135
1.26303
1.18648
1.12366
1.11098
1.08358
1.0643
1.06846
1.06881
1.06197
1.05869
1.06085
1.06958
1.07878
1.08454
1.09265
1.10037
1.10053
1.09933
1.09965
1.10166
1.10236
1.10231
1.10285
1.10363
1.10325
1.1018
1.1007
1.10018
1.09998
1.0998
1.09987
1.10059
1.10104
1.10108
1.10103
1.10037
1.09907
1.09836
1.09828
1.09851
1.09946
1.09994
1.09941
1.09989
1.1046
1.14222
1.3341
1.53883
1.58657
1.67654
1.77547
1.9416
2.0707
2.12787
2.12899
2.11754
2.09713
2.06985
2.05243
2.04455
2.03689
2.02963
2.02039
2.00949
1.99507
1.97284
1.94761
1.93199
1.92503
1.92067
1.91681
1.90955
1.90003
1.88566
1.86626
1.85091
1.84136
1.8344
1.82734
1.81873
1.80696
1.79245
1.7807
1.77303
1.76757
1.76287
1.75763
1.74941
1.7353
1.71668
1.70175
1.69318
1.68761
1.68317
1.6786
1.67385
1.66895
1.66141
1.64923
1.63414
1.62267
1.61436
1.60678
1.60159
1.59815
1.59405
1.58673
1.57546
1.56415
1.5572
1.55297
1.55011
1.54746
1.54294
1.53303
1.51706
1.50353
1.49656
1.49249
1.4896
1.48709
1.48482
1.48392
1.48086
1.47261
1.45863
1.44615
1.4395
1.43539
1.43174
1.42819
1.42479
1.42086
1.41568
1.40922
1.40256
1.39613
1.38872
1.37908
1.37119
1.36768
1.36469
1.36184
1.35921
1.3567
1.35357
1.34801
1.33657
1.3263
1.32657
1.33289
1.35259
1.3955
1.44934
1.49542
1.52458
1.54552
1.57358
1.6056
1.63283
1.65633
1.67931
1.70884
1.72415
1.73482
1.74491
1.745
1.74094
1.73449
1.7275
1.72323
1.72019
1.71698
1.71344
1.70857
1.69983
1.68841
1.67874
1.67194
1.66689
1.6633
1.66117
1.65915
1.65676
1.6555
1.65582
1.65277
1.64816
1.64009
1.53824
1.4982
1.43064
1.36251
1.29201
1.21845
1.17646
1.13957
1.08794
1.06706
1.06044
1.04422
1.03956
1.04215
1.04747
1.05236
1.05551
1.06171
1.07119
1.07448
1.07547
1.07768
1.08179
1.0844
1.08554
1.08777
1.09006
1.09075
1.09052
1.08996
1.0895
1.08953
1.08972
1.09042
1.09103
1.09101
1.09088
1.09041
1.08922
1.08858
1.08852
1.08871
1.08948
1.09063
1.09083
1.09202
1.10554
1.17374
1.32102
1.52811
1.6115
1.60653
1.60748
1.62315
1.70027
1.89942
2.08529
2.16083
2.15089
2.1193
2.08702
2.06668
2.04995
2.03681
2.02581
2.0182
2.01119
2.00198
1.98862
1.96653
1.94285
1.93035
1.92338
1.91565
1.9067
1.89683
1.88706
1.87605
1.8624
1.85037
1.83935
1.82897
1.81796
1.80756
1.79859
1.78901
1.7799
1.77188
1.76369
1.75443
1.74292
1.72934
1.71809
1.71099
1.70401
1.69595
1.68882
1.6838
1.67765
1.66808
1.65415
1.64108
1.63475
1.63005
1.62278
1.61392
1.60521
1.59677
1.58989
1.58318
1.57536
1.56785
1.56164
1.55659
1.55076
1.54422
1.53705
1.52826
1.51885
1.51142
1.50417
1.49717
1.49249
1.48926
1.48605
1.48139
1.47518
1.46631
1.45572
1.44915
1.44446
1.43837
1.43051
1.42401
1.41995
1.41594
1.41058
1.40418
1.39841
1.39297
1.38656
1.37962
1.37378
1.36814
1.36243
1.3584
1.35476
1.35206
1.34906
1.34559
1.33838
1.3389
1.35463
1.39078
1.44239
1.48842
1.52587
1.5469
1.54849
1.54707
1.54498
1.54848
1.55957
1.5783
1.60611
1.64242
1.68162
1.70928
1.73
1.74025
1.74024
1.73669
1.73455
1.73063
1.72648
1.72141
1.71602
1.7099
1.70159
1.69304
1.68542
1.67897
1.67402
1.66973
1.66305
1.65694
1.65507
1.65356
1.65314
1.65076
1.64631
1.63865
1.55588
1.53842
1.49756
1.44165
1.3814
1.31254
1.2623
1.22054
1.16588
1.12623
1.11143
1.08646
1.0595
1.05962
1.05723
1.04995
1.04628
1.04795
1.04863
1.04872
1.04954
1.05338
1.0619
1.0685
1.07229
1.07519
1.07717
1.07823
1.07896
1.0789
1.07925
1.08076
1.08308
1.08474
1.08493
1.0848
1.08415
1.08232
1.08052
1.0804
1.08053
1.08103
1.08177
1.08249
1.08412
1.10185
1.23041
1.38607
1.512
1.59996
1.62679
1.62422
1.61693
1.61017
1.6095
1.65218
1.83246
2.05587
2.12316
2.12166
2.10827
2.08917
2.06364
2.04047
2.02992
2.02228
2.01785
2.00952
1.99958
1.98591
1.96331
1.9401
1.9276
1.91889
1.90995
1.90126
1.89354
1.88576
1.87475
1.85795
1.84285
1.83218
1.8237
1.81618
1.80819
1.79923
1.78949
1.77675
1.76278
1.74958
1.73855
1.73083
1.72648
1.7225
1.7169
1.70995
1.70042
1.68754
1.67508
1.66251
1.65197
1.64481
1.63952
1.63351
1.62753
1.62112
1.61211
1.59879
1.58865
1.58363
1.58006
1.57582
1.57025
1.56228
1.55176
1.54108
1.53388
1.52997
1.52698
1.52176
1.51446
1.50696
1.49962
1.492
1.48442
1.47606
1.46836
1.46372
1.46069
1.4575
1.45268
1.44487
1.43487
1.4265
1.42096
1.41649
1.41047
1.40322
1.3975
1.39362
1.39006
1.38576
1.37964
1.37211
1.36534
1.36109
1.35748
1.35513
1.35148
1.35318
1.36793
1.39875
1.44846
1.49417
1.53567
1.54902
1.54979
1.5558
1.55753
1.55476
1.55161
1.55037
1.54604
1.54364
1.54713
1.55928
1.58489
1.6176
1.65549
1.6882
1.70956
1.72327
1.72652
1.72713
1.72507
1.72411
1.72185
1.71675
1.71033
1.70377
1.69694
1.69101
1.68541
1.67903
1.67063
1.662
1.65862
1.6565
1.65444
1.65088
1.64648
1.64043
1.5661
1.55995
1.53892
1.50059
1.45222
1.38904
1.33765
1.29646
1.23862
1.1926
1.16686
1.14014
1.10131
1.08854
1.0778
1.05977
1.0479
1.04927
1.04817
1.04569
1.04661
1.04837
1.05253
1.059
1.06397
1.06681
1.0685
1.06958
1.07126
1.07293
1.07358
1.07607
1.07936
1.08015
1.08023
1.08012
1.07954
1.07843
1.0778
1.07792
1.07853
1.07952
1.07966
1.08064
1.09712
1.23833
1.46641
1.55211
1.59693
1.62105
1.62143
1.62263
1.61916
1.61726
1.61146
1.59954
1.61664
1.76052
1.97035
2.10926
2.12482
2.11149
2.08031
2.05497
2.03756
2.02631
2.01846
2.01287
2.00359
1.99429
1.97937
1.95472
1.93397
1.92378
1.91591
1.90837
1.90059
1.89134
1.87793
1.85917
1.84491
1.83733
1.83137
1.82672
1.82066
1.81145
1.79585
1.77531
1.75905
1.7501
1.74442
1.73998
1.73683
1.73185
1.72444
1.71506
1.70235
1.68518
1.66826
1.65825
1.65273
1.649
1.6463
1.64289
1.6377
1.62987
1.61671
1.60096
1.59017
1.5833
1.57786
1.57339
1.56844
1.56132
1.55095
1.54116
1.53492
1.53047
1.52668
1.52237
1.51752
1.51236
1.5061
1.49715
1.48423
1.47271
1.46584
1.46164
1.45837
1.45532
1.45174
1.44697
1.44078
1.43278
1.42319
1.41543
1.40982
1.40476
1.39922
1.39324
1.3884
1.38497
1.38084
1.37622
1.37062
1.36602
1.36139
1.3632
1.37539
1.40706
1.46012
1.50968
1.54517
1.55723
1.56654
1.57177
1.56989
1.56818
1.56707
1.5644
1.55955
1.55394
1.5486
1.54461
1.53703
1.53335
1.53526
1.54458
1.56413
1.59786
1.63542
1.6706
1.69931
1.72265
1.72742
1.72967
1.72599
1.71759
1.70899
1.70174
1.69834
1.69496
1.69181
1.68787
1.68205
1.67291
1.66225
1.65642
1.65264
1.64916
1.64661
1.64069
1.57446
1.57067
1.56185
1.54062
1.50708
1.45668
1.40443
1.36094
1.31045
1.26458
1.23382
1.20203
1.15975
1.1393
1.12431
1.10272
1.08032
1.07652
1.0681
1.05672
1.05475
1.05527
1.05416
1.05299
1.0545
1.05589
1.0577
1.06071
1.06424
1.06864
1.07143
1.0747
1.0782
1.07899
1.07931
1.07944
1.07909
1.078
1.07791
1.07839
1.07961
1.08035
1.08325
1.11008
1.23816
1.49685
1.59958
1.62272
1.62792
1.62129
1.61473
1.61531
1.61673
1.61651
1.61518
1.60443
1.5863
1.59069
1.67777
1.88081
2.04901
2.09227
2.08857
2.06927
2.04795
2.02749
2.01584
2.00811
2.00383
1.99539
1.98469
1.96587
1.94263
1.92899
1.92098
1.9131
1.90455
1.89442
1.87967
1.85963
1.84756
1.84123
1.83526
1.82911
1.82215
1.81351
1.79703
1.77256
1.75877
1.75328
1.75021
1.75037
1.74793
1.7414
1.73355
1.72074
1.69973
1.67834
1.6669
1.66073
1.65633
1.6522
1.64759
1.64241
1.63661
1.62869
1.61611
1.60159
1.59228
1.58624
1.58121
1.57633
1.57092
1.56337
1.55144
1.53982
1.53453
1.53145
1.52907
1.52734
1.52422
1.51931
1.51147
1.49765
1.48163
1.47172
1.46648
1.4626
1.45931
1.45626
1.45373
1.45165
1.44819
1.44112
1.42796
1.4157
1.40999
1.40567
1.40076
1.39566
1.39084
1.38749
1.38415
1.38185
1.37935
1.37802
1.38595
1.4159
1.46613
1.52024
1.55432
1.57843
1.59324
1.59313
1.59099
1.58344
1.57483
1.56906
1.56617
1.56379
1.56046
1.55624
1.55204
1.54816
1.54271
1.53519
1.52703
1.52572
1.52664
1.53238
1.54643
1.57314
1.60782
1.64622
1.6741
1.69512
1.69839
1.70118
1.70186
1.70425
1.70553
1.70379
1.70101
1.69772
1.69219
1.68138
1.66679
1.65684
1.65162
1.64835
1.64714
1.64258
1.58071
1.57838
1.57564
1.56573
1.54451
1.5073
1.46591
1.42261
1.37024
1.32983
1.29533
1.26059
1.21985
1.19426
1.17216
1.14425
1.11772
1.10683
1.09498
1.07579
1.06614
1.06559
1.06121
1.05727
1.05836
1.05827
1.05741
1.05762
1.05904
1.06298
1.06912
1.07431
1.07825
1.07953
1.07981
1.08015
1.08026
1.07999
1.07988
1.08065
1.08199
1.088
1.15187
1.29553
1.49333
1.62793
1.65278
1.64828
1.63705
1.62293
1.61678
1.61222
1.61082
1.60979
1.60879
1.60488
1.59031
1.56917
1.56794
1.61125
1.77683
1.96412
2.06594
2.07029
2.05729
2.02823
2.00741
1.99896
1.99474