/*--------------------------------*- C++ -*----------------------------------*\
  =========                 |
  \\      /  F ield         | OpenFOAM: The Open Source CFD Toolbox
   \\    /   O peration     | Website:  https://openfoam.org
    \\  /    A nd           | Version:  7
     \\/     M anipulation  |
\*---------------------------------------------------------------------------*/
FoamFile
{
    version     2.0;
    format      ascii;
    class       volVectorField;
    location    "1.5";
    object      U;
}
// * * * * * * * * * * * * * * * * * * * * * * * * * * * * * * * * * * * * * //

dimensions      [0 1 -1 0 0 0 0];

internalField   nonuniform List<vector> 
18432
(
(3 8.75681e-17 0)
(3 -1.1084e-16 0)
(3 -4.52013e-16 0)
(3 -3.72854e-16 0)
(3 -4.30511e-16 0)
(3 -2.68351e-16 0)
(3 -1.45963e-16 0)
(3 -2.06573e-16 0)
(3 1.21089e-16 0)
(3 -2.53798e-16 0)
(3 5.29273e-17 0)
(3 3.12551e-16 0)
(3 6.9568e-16 0)
(3 8.97614e-16 0)
(3 5.60337e-16 0)
(3 1.35838e-16 0)
(3 -1.04571e-16 0)
(3 -6.65607e-16 0)
(3 -8.78216e-16 0)
(3 -2.45502e-16 0)
(3 1.19129e-16 0)
(3 -4.1808e-16 0)
(3 -6.13139e-16 0)
(3 -1.47448e-16 0)
(3 3.44017e-16 0)
(3 -7.72881e-16 0)
(3 -1.43246e-15 0)
(3 -1.18537e-15 0)
(3 -4.97737e-16 0)
(3 1.36775e-16 0)
(3 1.14231e-15 0)
(3 2.0493e-15 0)
(3 7.47229e-16 0)
(3 7.16012e-17 0)
(3 -1.1178e-15 0)
(3 -1.74841e-15 0)
(3 3.68938e-17 0)
(3 4.54805e-16 0)
(3 -1.25881e-16 0)
(3 -6.21294e-16 0)
(3 -9.74237e-16 0)
(3 7.07872e-17 0)
(3 2.52475e-16 0)
(3 3.43665e-16 0)
(3 2.13359e-16 0)
(3 -5.16561e-16 0)
(3 -1.102e-15 0)
(3 -1.50136e-15 0)
(3 6.95714e-17 0)
(3 3.44286e-17 0)
(3 -4.12517e-16 0)
(3 -7.01383e-16 0)
(3 -1.01292e-15 0)
(3 -7.55713e-16 0)
(3 -6.87933e-16 0)
(3 -1.2485e-15 0)
(3 -8.79259e-16 0)
(3 -4.14833e-16 0)
(3 4.60046e-16 0)
(3 6.24951e-16 0)
(3 9.59135e-16 0)
(3 1.13744e-15 0)
(3 1.82603e-16 0)
(3 -8.05097e-16 0)
(3 -1.29603e-15 0)
(3 -1.40498e-15 0)
(3 -9.70227e-16 0)
(3 -4.39103e-17 0)
(3 -3.40453e-16 0)
(3 -1.61229e-15 0)
(3 -2.01133e-15 0)
(3 -1.95348e-15 0)
(3 -8.1214e-16 0)
(3 -1.93145e-15 0)
(3 -2.72336e-15 0)
(3 -1.68481e-15 0)
(3 3.93587e-16 0)
(3 1.18275e-15 0)
(3 1.26294e-15 0)
(3 2.19094e-15 0)
(3 2.44099e-15 0)
(3 8.2025e-16 0)
(3 -1.48641e-15 0)
(3 -1.37905e-15 0)
(3 1.04382e-15 0)
(3 2.00508e-15 0)
(3 1.45856e-15 0)
(3 1.81416e-16 0)
(3 -9.19069e-16 0)
(3 -1.1451e-16 0)
(3 4.55134e-16 0)
(3 3.20894e-16 0)
(3 -1.91675e-16 0)
(3 -1.85531e-15 0)
(3 -2.58124e-15 0)
(3 -2.53671e-15 0)
(3 -9.33914e-17 0)
(3 -6.6091e-18 0)
(3 -3.73327e-16 0)
(3 -8.59321e-16 0)
(3 -9.48848e-16 0)
(3 -9.41152e-16 0)
(3 -1.38859e-15 0)
(3 -1.23687e-15 0)
(3 -1.49151e-15 0)
(3 2.15517e-16 0)
(3 1.20192e-15 0)
(3 1.38558e-15 0)
(3 1.04044e-15 0)
(3 8.78158e-16 0)
(3 7.10495e-16 0)
(3 1.30765e-16 0)
(3 -5.22572e-16 0)
(3 3.60849e-16 0)
(3 6.241e-16 0)
(3 2.68559e-16 0)
(3 2.75501e-17 0)
(3 1.03019e-16 0)
(3 3.62772e-17 0)
(3 -2.799e-17 0)
(3 -3.19229e-16 0)
(3 -8.24914e-16 0)
(3 -8.05833e-16 0)
(3 -5.1091e-17 0)
(3 -5.60666e-16 0)
(3 -1.16827e-16 0)
(3 1.61924e-15 0)
(3 1.63447e-15 0)
(3 -5.00541e-16 0)
(3 -1.01254e-15 0)
(3 -1.99884e-15 0)
(3 -2.00095e-15 0)
(3 -1.89898e-15 0)
(3 -2.8684e-16 0)
(3 -5.47853e-16 0)
(3 -7.47007e-16 0)
(3 -5.44672e-16 0)
(3 -1.37274e-16 0)
(3 -5.51452e-17 0)
(3 -1.38787e-16 0)
(3 -1.9121e-16 0)
(3 5.57701e-17 0)
(3 -3.70254e-16 0)
(3 -1.28707e-15 0)
(3 -9.87943e-17 0)
(3 -1.23012e-16 0)
(3 -3.16246e-16 0)
(3 -5.65131e-16 0)
(3 -4.80355e-16 0)
(3 -4.37368e-16 0)
(3 -4.31571e-16 0)
(3 -6.18524e-17 0)
(3 3.44072e-16 0)
(3 6.96219e-16 0)
(3 7.97745e-16 0)
(3 6.26265e-16 0)
(3 -6.1498e-17 0)
(3 -3.00801e-16 0)
(3 -1.04147e-16 0)
(3 6.82624e-16 0)
(3 7.28468e-16 0)
(3 4.29202e-16 0)
(3 8.31446e-17 0)
(3 -7.93381e-17 0)
(3 8.73198e-17 0)
(3 3.63109e-16 0)
(3 2.01459e-16 0)
(3 -1.76171e-16 0)
(3 -1.10278e-15 0)
(3 -8.49871e-16 0)
(3 -5.04262e-16 0)
(3 3.74704e-16 0)
(3 9.94833e-16 0)
(3 1.03006e-15 0)
(3 1.1346e-15 0)
(3 6.66779e-16 0)
(3 -1.45203e-15 0)
(3 -1.68856e-15 0)
(3 -1.97753e-15 0)
(3 -2.04021e-15 0)
(3 -2.3429e-15 0)
(3 -2.95613e-15 0)
(3 -2.70228e-15 0)
(3 -2.28526e-15 0)
(3 -1.81061e-15 0)
(3 -1.49737e-15 0)
(3 -7.44599e-18 0)
(3 7.72719e-16 0)
(3 1.43131e-15 0)
(3 2.24193e-15 0)
(3 2.4714e-15 0)
(3 3.26055e-16 0)
(3 -2.84882e-17 0)
(3 -1.8477e-16 0)
(3 1.90908e-17 0)
(3 -1.46244e-16 0)
(3 -3.59764e-16 0)
(3 -5.2807e-16 0)
(3 1.5116e-16 0)
(3 6.18202e-16 0)
(3 7.44104e-16 0)
(3 5.74235e-16 0)
(3 2.63355e-16 0)
(3 -4.28009e-16 0)
(3 -8.02736e-16 0)
(3 -9.08918e-16 0)
(3 -1.10225e-16 0)
(3 6.40127e-16 0)
(3 5.20632e-16 0)
(3 4.98227e-16 0)
(3 6.26652e-16 0)
(3 9.94641e-16 0)
(3 8.08944e-16 0)
(3 4.98447e-16 0)
(3 -3.39814e-16 0)
(3 -5.44966e-16 0)
(3 -5.62473e-16 0)
(3 -1.63003e-17 0)
(3 3.07049e-16 0)
(3 4.95155e-16 0)
(3 7.89644e-16 0)
(3 1.16694e-15 0)
(3 5.28256e-16 0)
(3 -8.79445e-16 0)
(3 -5.45818e-17 0)
(3 6.36408e-17 0)
(3 -3.89857e-16 0)
(3 -7.77411e-16 0)
(3 -5.36537e-16 0)
(3 -6.27037e-16 0)
(3 -1.05285e-15 0)
(3 -1.25418e-15 0)
(3 -1.07014e-15 0)
(3 -1.13235e-15 0)
(3 -7.75943e-16 0)
(3 -3.23181e-17 0)
(3 2.53902e-16 0)
(3 2.13512e-16 0)
(3 2.75867e-16 0)
(3 1.34289e-16 0)
(3 7.26717e-17 0)
(3 2.27116e-17 0)
(3 -1.60461e-16 0)
(3 -2.42262e-16 0)
(3 -5.62535e-16 0)
(3 -6.79491e-16 0)
(3 -1.61725e-16 0)
(3 5.13808e-16 0)
(3 9.69644e-16 0)
(3 2.39912e-16 0)
(3 -5.41687e-17 0)
(3 1.45106e-16 0)
(3 1.46312e-16 0)
(3 3.84599e-16 0)
(3 5.55749e-16 0)
(3 8.07239e-16 0)
(3 9.31699e-16 0)
(3 1.13703e-15 0)
(3 1.71723e-15 0)
(3 1.73752e-15 0)
(3 1.60743e-15 0)
(3 7.90083e-16 0)
(3 1.78912e-16 0)
(3 6.78482e-16 0)
(3 1.54323e-15 0)
(3 1.8007e-15 0)
(3 1.4962e-15 0)
(3 1.16038e-15 0)
(3 -9.27552e-17 0)
(3 7.9248e-17 0)
(3 -2.51271e-16 0)
(3 -1.15982e-15 0)
(3 -7.28086e-16 0)
(3 1.89744e-16 0)
(3 5.9241e-16 0)
(3 4.67101e-16 0)
(3 5.78781e-16 0)
(3 9.12434e-16 0)
(3 2.10812e-16 0)
(3 -6.67571e-16 0)
(3 -6.18474e-16 0)
(3 -8.86799e-16 0)
(3 -2.30492e-15 0)
(3 -1.54494e-15 0)
(3 -2.39148e-15 0)
(3 -2.95493e-15 0)
(3 -3.00293e-15 0)
(3 -1.16375e-15 0)
(3 2.8904e-16 0)
(3 4.2363e-16 0)
(3 2.97448e-16 0)
(3 2.2134e-16 0)
(3 3.15505e-17 0)
(3 -1.87878e-16 0)
(3 -1.89338e-16 0)
(3 -1.09825e-16 0)
(3 1.83346e-16 0)
(3 3.84631e-17 0)
(3 -3.57783e-16 0)
(3 4.75057e-16 0)
(3 8.4891e-16 0)
(3 1.00108e-15 0)
(3 4.78586e-16 0)
(3 6.63376e-16 0)
(3 6.16333e-16 0)
(3 5.51345e-16 0)
(3 8.24446e-16 0)
(3 9.53369e-16 0)
(3 1.0441e-15 0)
(3 1.14065e-15 0)
(3 9.13324e-16 0)
(3 1.47557e-15 0)
(3 1.74294e-15 0)
(3 2.13772e-15 0)
(3 2.30757e-15 0)
(3 1.95305e-15 0)
(3 1.3751e-15 0)
(3 8.03761e-16 0)
(3 3.91211e-16 0)
(3 8.03731e-16 0)
(3 8.75948e-16 0)
(3 7.89143e-16 0)
(3 6.61275e-16 0)
(3 6.89137e-16 0)
(3 5.83018e-16 0)
(3 6.65875e-16 0)
(3 6.42856e-16 0)
(3 -1.75304e-16 0)
(3 -9.83092e-16 0)
(3 -1.11523e-15 0)
(3 -1.58181e-15 0)
(3 -2.95088e-15 0)
(3 -3.08132e-15 0)
(3 -3.80697e-15 0)
(3 -8.26042e-16 0)
(3 9.3194e-16 0)
(3 7.84684e-17 0)
(3 -4.61205e-17 0)
(3 -8.50518e-17 0)
(3 3.53924e-17 0)
(3 3.6681e-16 0)
(3 6.06371e-16 0)
(3 5.10264e-16 0)
(3 3.21376e-16 0)
(3 2.97498e-16 0)
(3 1.46631e-16 0)
(3 3.80927e-16 0)
(3 4.74855e-16 0)
(3 3.77726e-16 0)
(3 -2.21414e-16 0)
(3 -1.2499e-17 0)
(3 8.22606e-17 0)
(3 -1.89414e-16 0)
(3 -1.17786e-16 0)
(3 5.33749e-16 0)
(3 6.96501e-16 0)
(3 8.78015e-16 0)
(3 1.41496e-15 0)
(3 1.14559e-15 0)
(3 1.0035e-15 0)
(3 1.25266e-15 0)
(3 1.68462e-15 0)
(3 1.63281e-15 0)
(3 1.63503e-15 0)
(3 2.52771e-15 0)
(3 1.05358e-15 0)
(3 -8.6798e-16 0)
(3 -3.43489e-16 0)
(3 -1.56701e-16 0)
(3 -3.04689e-16 0)
(3 -4.0732e-16 0)
(3 1.91811e-17 0)
(3 2.83771e-16 0)
(3 4.72503e-16 0)
(3 6.70102e-16 0)
(3 7.29458e-16 0)
(3 1.50171e-17 0)
(3 -2.62376e-16 0)
(3 -1.28838e-15 0)
(3 -2.52646e-15 0)
(3 -2.81917e-15 0)
(3 -2.18328e-15 0)
(3 -1.79224e-15 0)
(3 -1.37706e-15 0)
(3 -2.31926e-16 0)
(3 -2.61428e-16 0)
(3 -2.46515e-16 0)
(3 -4.4888e-17 0)
(3 3.50345e-17 0)
(3 2.88078e-16 0)
(3 4.64607e-16 0)
(3 5.41743e-16 0)
(3 2.96366e-16 0)
(3 5.01806e-16 0)
(3 6.42602e-17 0)
(3 8.39003e-17 0)
(3 -1.47586e-16 0)
(3 -7.21603e-16 0)
(3 -1.09621e-15 0)
(3 -6.19182e-16 0)
(3 -3.67642e-16 0)
(3 1.09134e-16 0)
(3 5.90069e-16 0)
(3 1.38902e-15 0)
(3 1.46564e-15 0)
(3 9.6999e-16 0)
(3 7.60105e-16 0)
(3 2.59889e-16 0)
(3 2.94503e-16 0)
(3 5.56676e-16 0)
(3 1.12294e-15 0)
(3 1.16884e-15 0)
(3 9.78431e-16 0)
(3 -3.35864e-16 0)
(3 -1.38945e-15 0)
(3 -1.65628e-15 0)
(3 -1.22913e-15 0)
(3 -5.58947e-16 0)
(3 2.7153e-16 0)
(3 7.804e-16 0)
(3 1.07075e-15 0)
(3 1.16464e-15 0)
(3 1.47183e-15 0)
(3 2.03216e-15 0)
(3 2.42126e-15 0)
(3 2.3251e-15 0)
(3 1.04303e-15 0)
(3 2.12446e-16 0)
(3 -4.65252e-16 0)
(3 -6.04463e-17 0)
(3 -6.14117e-16 0)
(3 -9.90953e-16 0)
(3 -3.17822e-17 0)
(3 -1.06048e-16 0)
(3 1.84997e-16 0)
(3 5.59429e-16 0)
(3 6.32207e-16 0)
(3 6.02595e-16 0)
(3 2.40644e-16 0)
(3 9.19242e-17 0)
(3 -6.72751e-16 0)
(3 -6.35396e-16 0)
(3 -6.78e-16 0)
(3 -7.70167e-16 0)
(3 -6.5881e-16 0)
(3 -4.06258e-16 0)
(3 -3.66007e-16 0)
(3 7.5839e-17 0)
(3 4.96437e-16 0)
(3 8.52543e-16 0)
(3 1.41148e-15 0)
(3 1.91845e-15 0)
(3 1.96246e-15 0)
(3 1.42593e-15 0)
(3 1.20495e-15 0)
(3 3.45863e-16 0)
(3 -1.52634e-15 0)
(3 -2.33697e-15 0)
(3 -3.07802e-16 0)
(3 -1.14223e-17 0)
(3 -4.62135e-16 0)
(3 -5.35681e-16 0)
(3 -3.09581e-16 0)
(3 -9.58561e-16 0)
(3 -1.32379e-15 0)
(3 -6.87017e-16 0)
(3 8.32789e-16 0)
(3 8.71161e-16 0)
(3 3.76819e-16 0)
(3 7.72602e-16 0)
(3 1.14021e-15 0)
(3 1.58745e-15 0)
(3 1.90496e-15 0)
(3 2.405e-15 0)
(3 2.25641e-15 0)
(3 1.81128e-15 0)
(3 1.27276e-15 0)
(3 1.03007e-15 0)
(3 1.86076e-16 0)
(3 -8.7946e-16 0)
(3 -4.09507e-18 0)
(3 3.04913e-18 0)
(3 9.00431e-18 0)
(3 9.18933e-17 0)
(3 5.61884e-16 0)
(3 5.33661e-16 0)
(3 5.06625e-16 0)
(3 -2.57534e-16 0)
(3 -5.47569e-16 0)
(3 -3.35779e-16 0)
(3 -6.56746e-17 0)
(3 2.07609e-17 0)
(3 4.45334e-16 0)
(3 1.24564e-15 0)
(3 1.72842e-15 0)
(3 1.58835e-15 0)
(3 1.71876e-15 0)
(3 1.64502e-15 0)
(3 1.59185e-15 0)
(3 4.43764e-16 0)
(3 3.51212e-16 0)
(3 6.07708e-16 0)
(3 7.18956e-16 0)
(3 -1.0851e-16 0)
(3 -1.29966e-15 0)
(3 -1.28342e-15 0)
(3 -2.4566e-15 0)
(3 -2.72281e-15 0)
(3 -2.50553e-15 0)
(3 -1.80757e-15 0)
(3 -1.32368e-15 0)
(3 -1.30512e-15 0)
(3 -1.0235e-15 0)
(3 -8.10434e-16 0)
(3 -8.70322e-16 0)
(3 -2.59493e-16 0)
(3 7.13195e-16 0)
(3 8.41473e-16 0)
(3 6.54699e-16 0)
(3 2.49565e-16 0)
(3 -3.18737e-17 0)
(3 8.7183e-17 0)
(3 3.37655e-16 0)
(3 3.87066e-16 0)
(3 6.15678e-16 0)
(3 7.55686e-17 0)
(3 -2.89713e-16 0)
(3 -1.23124e-15 0)
(3 -2.46765e-17 0)
(3 7.41041e-17 0)
(3 -9.77648e-17 0)
(3 -1.71418e-16 0)
(3 -3.38823e-16 0)
(3 -7.93531e-17 0)
(3 7.63887e-17 0)
(3 -2.03732e-16 0)
(3 1.63245e-18 0)
(3 5.52863e-16 0)
(3 8.08152e-16 0)
(3 9.31344e-16 0)
(3 8.05804e-16 0)
(3 6.99493e-16 0)
(3 1.00488e-15 0)
(3 7.61541e-16 0)
(3 2.21026e-17 0)
(3 7.72371e-17 0)
(3 -4.90903e-16 0)
(3 -1.14247e-15 0)
(3 -7.2965e-16 0)
(3 -4.70276e-16 0)
(3 -3.86886e-16 0)
(3 -7.32051e-16 0)
(3 1.00493e-15 0)
(3 9.32755e-16 0)
(3 -1.30845e-15 0)
(3 -2.70595e-15 0)
(3 -2.56321e-15 0)
(3 -2.23006e-15 0)
(3 -1.21153e-15 0)
(3 4.47498e-16 0)
(3 2.02543e-15 0)
(3 1.92159e-15 0)
(3 1.65345e-15 0)
(3 2.37594e-15 0)
(3 3.19111e-15 0)
(3 2.62698e-15 0)
(3 1.74563e-15 0)
(3 8.95714e-16 0)
(3 3.18377e-16 0)
(3 1.99303e-16 0)
(3 3.7346e-16 0)
(3 5.93338e-16 0)
(3 6.77102e-16 0)
(3 5.83626e-16 0)
(3 2.64913e-16 0)
(3 -1.80324e-16 0)
(3 1.64654e-17 0)
(3 -1.18233e-16 0)
(3 -1.34516e-17 0)
(3 1.00734e-16 0)
(3 5.50283e-17 0)
(3 2.22468e-16 0)
(3 -9.421e-17 0)
(3 2.79185e-17 0)
(3 -3.83757e-17 0)
(3 7.44955e-17 0)
(3 5.05532e-16 0)
(3 7.69195e-16 0)
(3 6.53628e-16 0)
(3 1.34936e-16 0)
(3 -2.68878e-16 0)
(3 -1.08732e-15 0)
(3 -1.22805e-15 0)
(3 -1.73139e-15 0)
(3 -2.24348e-15 0)
(3 -1.81609e-15 0)
(3 -9.38434e-16 0)
(3 9.65819e-17 0)
(3 4.34306e-16 0)
(3 1.10432e-15 0)
(3 1.42945e-15 0)
(3 -1.05424e-16 0)
(3 -6.99132e-16 0)
(3 -3.79386e-16 0)
(3 5.39742e-17 0)
(3 1.49187e-16 0)
(3 1.06127e-15 0)
(3 1.30448e-15 0)
(3 1.27984e-15 0)
(3 1.59934e-15 0)
(3 1.61341e-15 0)
(3 1.54962e-15 0)
(3 1.53921e-15 0)
(3 1.64889e-15 0)
(3 2.05951e-15 0)
(3 2.16602e-15 0)
(3 1.72703e-15 0)
(3 5.24966e-16 0)
(3 2.42323e-16 0)
(3 -1.43181e-16 0)
(3 3.56325e-16 0)
(3 2.22551e-15 0)
(3 1.54008e-15 0)
(3 6.25806e-16 0)
(3 8.13695e-17 0)
(3 8.00207e-17 0)
(3 2.55876e-16 0)
(3 4.54138e-16 0)
(3 4.56714e-16 0)
(3 -3.88713e-16 0)
(3 -3.7286e-16 0)
(3 -6.019e-16 0)
(3 -1.03403e-15 0)
(3 -1.62994e-15 0)
(3 -1.24148e-15 0)
(3 -4.95982e-16 0)
(3 3.41756e-16 0)
(3 -2.50029e-16 0)
(3 -1.26021e-15 0)
(3 -1.15762e-15 0)
(3 -1.48665e-15 0)
(3 -2.28838e-15 0)
(3 -1.46203e-15 0)
(3 -7.12103e-16 0)
(3 3.60227e-16 0)
(3 1.19737e-15 0)
(3 2.43043e-15 0)
(3 4.48655e-15 0)
(3 5.20647e-15 0)
(3 4.24917e-15 0)
(3 2.39344e-15 0)
(3 2.75577e-15 0)
(3 3.06045e-15 0)
(3 1.69467e-15 0)
(3 7.14157e-16 0)
(3 5.13718e-16 0)
(3 -2.86095e-16 0)
(3 -4.3891e-16 0)
(3 -3.33561e-16 0)
(3 -2.95932e-16 0)
(3 -6.05146e-16 0)
(3 4.68612e-16 0)
(3 9.09177e-16 0)
(3 2.00138e-15 0)
(3 1.82027e-15 0)
(3 1.31055e-15 0)
(3 1.30521e-15 0)
(3 9.8062e-16 0)
(3 9.42982e-16 0)
(3 1.2767e-15 0)
(3 4.01074e-16 0)
(3 2.4914e-16 0)
(3 -3.77838e-17 0)
(3 2.36513e-16 0)
(3 2.19243e-16 0)
(3 3.15279e-16 0)
(3 5.39735e-16 0)
(3 2.5609e-16 0)
(3 8.86267e-17 0)
(3 -2.01005e-16 0)
(3 -4.85632e-16 0)
(3 -3.39436e-16 0)
(3 -1.52565e-16 0)
(3 -8.72929e-16 0)
(3 -1.41555e-15 0)
(3 -1.53277e-15 0)
(3 -1.18786e-15 0)
(3 -8.50646e-16 0)
(3 -6.3648e-16 0)
(3 -4.27863e-16 0)
(3 -1.71963e-16 0)
(3 1.03648e-16 0)
(3 -2.1824e-16 0)
(3 3.90301e-17 0)
(3 2.15181e-15 0)
(3 3.45008e-15 0)
(3 4.56652e-15 0)
(3 4.2699e-15 0)
(3 3.62143e-15 0)
(3 3.09275e-15 0)
(3 2.44323e-15 0)
(3 2.02149e-15 0)
(3 4.28707e-16 0)
(3 5.62822e-18 0)
(3 -7.89958e-16 0)
(3 -1.41845e-15 0)
(3 -1.1074e-15 0)
(3 -2.1743e-16 0)
(3 9.81451e-16 0)
(3 8.83552e-16 0)
(3 6.54795e-16 0)
(3 7.5694e-16 0)
(3 3.10518e-16 0)
(3 -2.02961e-16 0)
(3 1.72656e-15 0)
(3 2.00936e-15 0)
(3 1.8793e-15 0)
(3 1.14514e-15 0)
(3 -2.33751e-16 0)
(3 -1.71021e-16 0)
(3 -1.1343e-18 0)
(3 -3.07163e-17 0)
(3 -1.41191e-16 0)
(3 -6.38357e-16 0)
(3 -4.97817e-16 0)
(3 -3.6207e-16 0)
(3 -5.07544e-16 0)
(3 -2.02939e-16 0)
(3 1.10554e-16 0)
(3 7.17798e-16 0)
(3 7.11794e-16 0)
(3 -4.69581e-16 0)
(3 -4.44414e-16 0)
(3 -9.95659e-17 0)
(3 1.58105e-16 0)
(3 4.19245e-16 0)
(3 6.83827e-16 0)
(3 1.00219e-15 0)
(3 1.57794e-16 0)
(3 -1.02982e-15 0)
(3 -1.61166e-15 0)
(3 -1.79429e-15 0)
(3 -5.02455e-16 0)
(3 -3.19164e-16 0)
(3 -3.90917e-16 0)
(3 -3.42377e-16 0)
(3 -2.5997e-16 0)
(3 2.11642e-16 0)
(3 5.20099e-16 0)
(3 2.07156e-15 0)
(3 2.61205e-15 0)
(3 2.81641e-15 0)
(3 2.64526e-15 0)
(3 2.56575e-15 0)
(3 1.78441e-15 0)
(3 4.18933e-16 0)
(3 4.13176e-16 0)
(3 -2.88948e-16 0)
(3 3.77234e-16 0)
(3 8.47528e-16 0)
(3 6.279e-16 0)
(3 -3.02769e-16 0)
(3 1.00914e-15 0)
(3 1.47251e-15 0)
(3 8.72187e-16 0)
(3 1.98804e-16 0)
(3 -4.26607e-16 0)
(3 4.49879e-16 0)
(3 9.67708e-17 0)
(3 1.15915e-16 0)
(3 -1.88111e-16 0)
(3 -5.28679e-16 0)
(3 -6.32812e-16 0)
(3 -8.12375e-16 0)
(3 -1.2826e-15 0)
(3 -1.22575e-15 0)
(3 -1.14108e-16 0)
(3 -3.33544e-16 0)
(3 -6.27675e-16 0)
(3 -2.57148e-16 0)
(3 9.35691e-16 0)
(3 1.34108e-15 0)
(3 1.15899e-15 0)
(3 4.05609e-16 0)
(3 -1.53928e-17 0)
(3 -1.47113e-16 0)
(3 -3.93585e-16 0)
(3 -9.11966e-16 0)
(3 -1.31782e-15 0)
(3 -1.41617e-15 0)
(3 -2.02195e-15 0)
(3 -2.4263e-15 0)
(3 -1.58826e-15 0)
(3 -4.9988e-16 0)
(3 1.13674e-16 0)
(3 9.02067e-16 0)
(3 1.48715e-15 0)
(3 1.81957e-15 0)
(3 1.54226e-15 0)
(3 2.61375e-15 0)
(3 3.88033e-15 0)
(3 4.00638e-15 0)
(3 3.32029e-15 0)
(3 3.21481e-16 0)
(3 -2.66742e-16 0)
(3 -1.77869e-16 0)
(3 -2.44119e-16 0)
(3 -4.04055e-17 0)
(3 1.09657e-15 0)
(3 3.01128e-15 0)
(3 2.21997e-15 0)
(3 3.42214e-16 0)
(3 -6.25915e-16 0)
(3 -9.70736e-16 0)
(3 -9.33161e-16 0)
(3 -2.10274e-15 0)
(3 -5.50824e-17 0)
(3 8.10341e-17 0)
(3 1.67204e-17 0)
(3 8.68596e-18 0)
(3 2.03827e-16 0)
(3 1.37356e-16 0)
(3 -2.89419e-17 0)
(3 2.68039e-17 0)
(3 3.36073e-16 0)
(3 3.40639e-17 0)
(3 -2.75759e-16 0)
(3 -2.22505e-16 0)
(3 -3.73826e-16 0)
(3 -4.24319e-16 0)
(3 -2.24194e-16 0)
(3 -5.46313e-16 0)
(3 -1.47056e-15 0)
(3 -1.64532e-15 0)
(3 -9.53738e-16 0)
(3 1.62784e-16 0)
(3 1.57974e-16 0)
(3 -1.34231e-15 0)
(3 -3.57841e-15 0)
(3 -3.08133e-15 0)
(3 -2.10231e-15 0)
(3 -6.06493e-16 0)
(3 2.25119e-15 0)
(3 2.90403e-15 0)
(3 2.86481e-15 0)
(3 1.56229e-15 0)
(3 5.37123e-16 0)
(3 6.88707e-16 0)
(3 8.58811e-16 0)
(3 3.04156e-16 0)
(3 -3.64477e-16 0)
(3 -6.28735e-16 0)
(3 -1.04582e-15 0)
(3 -9.32425e-16 0)
(3 -6.11291e-16 0)
(3 -3.11564e-16 0)
(3 5.357e-16 0)
(3 7.8529e-16 0)
(3 2.22463e-16 0)
(3 -2.46194e-16 0)
(3 5.63118e-17 0)
(3 1.14909e-15 0)
(3 1.58285e-15 0)
(3 1.04183e-15 0)
(3 -3.1867e-17 0)
(3 -2.45732e-16 0)
(3 1.10062e-16 0)
(3 1.61858e-16 0)
(3 -6.09286e-17 0)
(3 -1.48212e-16 0)
(3 -1.77974e-16 0)
(3 1.7611e-16 0)
(3 4.50039e-16 0)
(3 1.31831e-15 0)
(3 1.34611e-15 0)
(3 2.74045e-16 0)
(3 -6.90073e-16 0)
(3 -1.24909e-15 0)
(3 -1.39027e-15 0)
(3 -1.28856e-15 0)
(3 -7.69299e-16 0)
(3 -8.10907e-16 0)
(3 -5.04918e-16 0)
(3 -1.24997e-16 0)
(3 -6.1154e-16 0)
(3 -2.60181e-15 0)
(3 -3.22758e-15 0)
(3 -3.03229e-15 0)
(3 -2.06152e-15 0)
(3 -1.16003e-15 0)
(3 -1.56587e-16 0)
(3 1.95296e-16 0)
(3 4.37675e-16 0)
(3 -6.44042e-16 0)
(3 -9.44184e-16 0)
(3 -8.66519e-16 0)
(3 -1.41419e-15 0)
(3 -2.43832e-15 0)
(3 -3.54511e-15 0)
(3 -2.83309e-15 0)
(3 -1.85828e-15 0)
(3 -1.59486e-15 0)
(3 -2.6365e-16 0)
(3 2.41374e-17 0)
(3 -4.19567e-16 0)
(3 -1.43764e-15 0)
(3 -2.19336e-15 0)
(3 -2.21817e-15 0)
(3 -1.17039e-15 0)
(3 2.69995e-16 0)
(3 1.26933e-15 0)
(3 2.21792e-15 0)
(3 5.79963e-17 0)
(3 2.58144e-16 0)
(3 3.76762e-16 0)
(3 3.55989e-16 0)
(3 -2.94565e-16 0)
(3 -1.8186e-16 0)
(3 2.83161e-17 0)
(3 1.924e-16 0)
(3 4.41897e-16 0)
(3 6.18323e-16 0)
(3 6.25271e-16 0)
(3 6.47696e-16 0)
(3 5.49791e-16 0)
(3 2.27128e-16 0)
(3 -4.96664e-16 0)
(3 -4.77663e-16 0)
(3 -2.79319e-16 0)
(3 -2.9448e-16 0)
(3 -3.78422e-16 0)
(3 -6.63043e-16 0)
(3 -1.4355e-15 0)
(3 -1.85027e-15 0)
(3 -2.71416e-15 0)
(3 -2.79128e-15 0)
(3 -2.65215e-15 0)
(3 -1.88036e-15 0)
(3 -2.01844e-15 0)
(3 -2.04057e-15 0)
(3 -1.66715e-15 0)
(3 -1.32745e-15 0)
(3 -1.55202e-15 0)
(3 -2.89538e-15 0)
(3 -3.47701e-15 0)
(3 -2.90025e-15 0)
(3 -1.88717e-15 0)
(3 -1.09374e-15 0)
(3 -5.46324e-17 0)
(3 1.2688e-15 0)
(3 1.38276e-15 0)
(3 -1.13051e-16 0)
(3 -4.65211e-16 0)
(3 -6.77428e-16 0)
(3 -1.25754e-15 0)
(3 -2.39985e-15 0)
(3 -2.68497e-15 0)
(3 -3.01347e-15 0)
(3 -1.86502e-15 0)
(3 1.50593e-15 0)
(3 -1.4577e-17 0)
(3 4.16303e-16 0)
(3 4.21084e-16 0)
(3 3.43884e-16 0)
(3 1.11803e-16 0)
(3 4.11658e-16 0)
(3 4.90921e-16 0)
(3 6.14604e-16 0)
(3 -1.55157e-16 0)
(3 -9.0057e-16 0)
(3 -5.36058e-16 0)
(3 7.46126e-17 0)
(3 2.49568e-16 0)
(3 7.49638e-18 0)
(3 -8.54303e-17 0)
(3 -2.43357e-16 0)
(3 -6.20138e-16 0)
(3 -3.41937e-16 0)
(3 -2.65756e-16 0)
(3 -5.06626e-16 0)
(3 -5.01692e-16 0)
(3 -7.69732e-16 0)
(3 -6.68476e-16 0)
(3 -8.98951e-16 0)
(3 -6.93417e-16 0)
(3 -1.31112e-15 0)
(3 -2.60464e-15 0)
(3 -3.12375e-15 0)
(3 -2.84386e-15 0)
(3 -2.43536e-15 0)
(3 -2.38867e-15 0)
(3 -2.39855e-15 0)
(3 -2.32679e-15 0)
(3 1.51793e-16 0)
(3 1.58425e-15 0)
(3 2.5909e-15 0)
(3 3.6393e-15 0)
(3 3.08893e-15 0)
(3 1.52814e-15 0)
(3 4.66726e-16 0)
(3 -1.76696e-16 0)
(3 -5.97649e-16 0)
(3 -7.62225e-16 0)
(3 -6.85851e-16 0)
(3 -7.70289e-16 0)
(3 -1.27643e-15 0)
(3 -1.85365e-15 0)
(3 -8.72816e-16 0)
(3 3.71723e-17 0)
(3 -1.36896e-16 0)
(3 -2.51942e-16 0)
(3 -1.79587e-16 0)
(3 2.38564e-16 0)
(3 2.46114e-16 0)
(3 1.15476e-16 0)
(3 -6.01185e-17 0)
(3 -7.01409e-16 0)
(3 -1.06285e-15 0)
(3 -1.01721e-15 0)
(3 -6.9514e-16 0)
(3 -4.89496e-16 0)
(3 -4.7813e-16 0)
(3 -3.54259e-16 0)
(3 -5.52872e-16 0)
(3 -5.8841e-16 0)
(3 -1.58517e-16 0)
(3 -7.36256e-17 0)
(3 -1.88081e-16 0)
(3 -6.91473e-16 0)
(3 -6.26041e-16 0)
(3 5.02037e-16 0)
(3 6.68867e-16 0)
(3 1.51707e-15 0)
(3 1.66569e-15 0)
(3 1.56994e-15 0)
(3 -4.80509e-17 0)
(3 -5.82865e-16 0)
(3 -1.33031e-16 0)
(3 -3.90395e-16 0)
(3 -5.65635e-17 0)
(3 7.56726e-16 0)
(3 1.9175e-15 0)
(3 2.36675e-15 0)
(3 2.58447e-15 0)
(3 2.52789e-15 0)
(3 2.19011e-15 0)
(3 1.67215e-15 0)
(3 1.58509e-15 0)
(3 -1.51956e-17 0)
(3 -1.5564e-15 0)
(3 -1.20293e-15 0)
(3 1.4333e-15 0)
(3 1.34251e-15 0)
(3 9.41505e-16 0)
(3 2.64978e-17 0)
(3 -1.39237e-15 0)
(3 1.52121e-17 0)
(3 -1.69237e-16 0)
(3 -6.39089e-17 0)
(3 4.2985e-16 0)
(3 4.46905e-16 0)
(3 4.95261e-16 0)
(3 9.78001e-16 0)
(3 8.05963e-16 0)
(3 2.56916e-16 0)
(3 -6.11678e-17 0)
(3 -4.09338e-16 0)
(3 -3.36595e-16 0)
(3 -3.59066e-16 0)
(3 3.98649e-16 0)
(3 7.1483e-16 0)
(3 5.58392e-16 0)
(3 1.04952e-17 0)
(3 -1.38068e-16 0)
(3 -1.55856e-16 0)
(3 -2.34741e-16 0)
(3 -2.65034e-16 0)
(3 -1.05534e-16 0)
(3 2.78223e-16 0)
(3 4.72864e-16 0)
(3 1.49863e-15 0)
(3 2.65171e-15 0)
(3 1.44479e-15 0)
(3 1.97504e-16 0)
(3 -5.30515e-16 0)
(3 -5.79424e-16 0)
(3 -6.08587e-16 0)
(3 -3.99596e-16 0)
(3 1.20264e-15 0)
(3 2.17636e-15 0)
(3 2.83549e-15 0)
(3 2.46309e-15 0)
(3 2.36053e-15 0)
(3 2.93656e-15 0)
(3 3.30431e-15 0)
(3 2.33421e-15 0)
(3 9.96433e-16 0)
(3 1.1866e-15 0)
(3 1.55827e-15 0)
(3 1.54767e-15 0)
(3 1.10502e-15 0)
(3 1.00767e-15 0)
(3 4.94185e-17 0)
(3 -7.98009e-16 0)
(3 -9.14489e-17 0)
(3 -1.31897e-16 0)
(3 -7.69557e-17 0)
(3 4.11788e-16 0)
(3 5.90432e-16 0)
(3 7.56733e-16 0)
(3 9.12361e-16 0)
(3 7.20889e-16 0)
(3 3.85805e-17 0)
(3 -2.06557e-16 0)
(3 1.54274e-16 0)
(3 8.6941e-17 0)
(3 -2.21203e-16 0)
(3 -2.52382e-16 0)
(3 5.41536e-16 0)
(3 6.25829e-16 0)
(3 7.69529e-16 0)
(3 4.43776e-16 0)
(3 5.59505e-16 0)
(3 8.15377e-16 0)
(3 1.94179e-15 0)
(3 2.03376e-15 0)
(3 9.99706e-16 0)
(3 1.70888e-16 0)
(3 -6.41437e-16 0)
(3 -3.51908e-16 0)
(3 -2.10068e-16 0)
(3 -2.73498e-16 0)
(3 -3.76022e-16 0)
(3 -6.37365e-16 0)
(3 -9.17609e-17 0)
(3 5.11106e-16 0)
(3 1.76764e-15 0)
(3 2.98399e-15 0)
(3 4.58037e-15 0)
(3 4.48591e-15 0)
(3 3.92193e-15 0)
(3 3.94794e-15 0)
(3 3.00701e-15 0)
(3 2.18628e-15 0)
(3 2.33847e-15 0)
(3 3.02756e-15 0)
(3 3.43562e-15 0)
(3 2.95255e-15 0)
(3 2.22181e-15 0)
(3 1.7779e-15 0)
(3 1.1306e-15 0)
(3 8.72807e-16 0)
(3 -3.00489e-17 0)
(3 -2.43321e-16 0)
(3 1.99095e-17 0)
(3 3.39476e-16 0)
(3 9.60434e-16 0)
(3 7.09743e-16 0)
(3 3.46883e-16 0)
(3 -2.14034e-16 0)
(3 -1.13152e-15 0)
(3 -1.298e-15 0)
(3 -6.40685e-16 0)
(3 -6.86979e-16 0)
(3 -6.28587e-16 0)
(3 -6.37409e-16 0)
(3 -2.52993e-16 0)
(3 -3.05798e-16 0)
(3 2.38388e-16 0)
(3 6.49366e-16 0)
(3 1.16988e-15 0)
(3 2.11677e-15 0)
(3 2.22774e-15 0)
(3 1.00796e-15 0)
(3 5.27878e-16 0)
(3 -6.68627e-16 0)
(3 -1.55219e-15 0)
(3 -1.82968e-15 0)
(3 -1.40876e-15 0)
(3 -1.3669e-15 0)
(3 -1.19708e-15 0)
(3 2.29729e-15 0)
(3 3.83925e-15 0)
(3 4.25775e-15 0)
(3 3.75882e-15 0)
(3 2.87209e-15 0)
(3 3.54649e-15 0)
(3 3.87303e-15 0)
(3 2.40487e-15 0)
(3 1.09368e-15 0)
(3 3.11023e-16 0)
(3 8.3128e-16 0)
(3 1.91644e-15 0)
(3 2.42636e-15 0)
(3 2.15501e-15 0)
(3 2.37436e-15 0)
(3 2.51431e-15 0)
(3 2.77774e-15 0)
(3 3.5532e-15 0)
(3 2.77622e-15 0)
(3 8.96158e-19 0)
(3 4.94097e-17 0)
(3 3.6336e-16 0)
(3 9.86089e-17 0)
(3 -6.09294e-17 0)
(3 2.68866e-16 0)
(3 6.8954e-16 0)
(3 2.5076e-16 0)
(3 2.47754e-17 0)
(3 1.81436e-16 0)
(3 3.0274e-16 0)
(3 1.7664e-17 0)
(3 -5.73259e-16 0)
(3 -3.33128e-16 0)
(3 -1.76429e-16 0)
(3 -1.0073e-16 0)
(3 1.12812e-15 0)
(3 1.25784e-15 0)
(3 7.2349e-16 0)
(3 9.58468e-16 0)
(3 4.70163e-16 0)
(3 1.48217e-16 0)
(3 3.15689e-16 0)
(3 3.62899e-16 0)
(3 -3.96407e-16 0)
(3 -3.18298e-16 0)
(3 -1.96766e-16 0)
(3 2.76229e-17 0)
(3 6.74489e-16 0)
(3 1.43829e-15 0)
(3 2.14831e-15 0)
(3 2.87006e-15 0)
(3 1.7501e-15 0)
(3 4.49561e-16 0)
(3 4.44889e-16 0)
(3 1.04468e-15 0)
(3 1.37181e-15 0)
(3 9.56472e-16 0)
(3 7.54687e-16 0)
(3 8.90833e-16 0)
(3 7.63881e-16 0)
(3 9.41069e-16 0)
(3 -3.11702e-16 0)
(3 -5.70711e-16 0)
(3 -5.17323e-16 0)
(3 -2.10414e-16 0)
(3 1.14584e-15 0)
(3 3.17359e-16 0)
(3 1.59957e-17 0)
(3 1.56706e-16 0)
(3 9.37664e-17 0)
(3 -2.58241e-16 0)
(3 -3.82278e-16 0)
(3 2.68594e-16 0)
(3 5.94943e-16 0)
(3 -2.01486e-16 0)
(3 3.74477e-16 0)
(3 4.81864e-16 0)
(3 -4.85961e-17 0)
(3 -2.47147e-16 0)
(3 -2.87448e-16 0)
(3 -1.87512e-16 0)
(3 2.95405e-16 0)
(3 6.31033e-16 0)
(3 1.05591e-15 0)
(3 1.24854e-15 0)
(3 -2.44379e-16 0)
(3 -1.46073e-15 0)
(3 -6.30671e-16 0)
(3 -6.26809e-18 0)
(3 2.65997e-16 0)
(3 7.33089e-16 0)
(3 1.01572e-15 0)
(3 1.15311e-15 0)
(3 1.47411e-15 0)
(3 1.42823e-15 0)
(3 1.09123e-15 0)
(3 1.18633e-15 0)
(3 1.61503e-15 0)
(3 1.39803e-15 0)
(3 8.09532e-16 0)
(3 5.36915e-16 0)
(3 -9.08293e-16 0)
(3 -1.51117e-15 0)
(3 -2.21744e-15 0)
(3 -1.6678e-15 0)
(3 -1.34256e-15 0)
(3 -1.73747e-15 0)
(3 -1.9586e-15 0)
(3 -2.21273e-15 0)
(3 -4.33376e-15 0)
(3 -4.25162e-15 0)
(3 -3.75274e-15 0)
(3 -3.79538e-15 0)
(3 -2.87207e-15 0)
(3 -1.70789e-15 0)
(3 3.5934e-17 0)
(3 7.71536e-17 0)
(3 2.06552e-16 0)
(3 1.69617e-16 0)
(3 3.7773e-16 0)
(3 -9.8597e-17 0)
(3 -5.84617e-16 0)
(3 -4.70303e-16 0)
(3 -5.43346e-16 0)
(3 -2.44418e-16 0)
(3 -7.52569e-16 0)
(3 -1.09247e-15 0)
(3 -6.93425e-16 0)
(3 -3.51006e-16 0)
(3 -2.37061e-16 0)
(3 2.36637e-16 0)
(3 2.32127e-16 0)
(3 1.77888e-16 0)
(3 1.96904e-16 0)
(3 3.43035e-16 0)
(3 5.04974e-16 0)
(3 1.38051e-15 0)
(3 2.27469e-15 0)
(3 1.69737e-15 0)
(3 1.26532e-15 0)
(3 1.1179e-15 0)
(3 9.88366e-16 0)
(3 1.49924e-15 0)
(3 1.90484e-15 0)
(3 1.7545e-15 0)
(3 1.38697e-15 0)
(3 6.07495e-16 0)
(3 6.73145e-16 0)
(3 1.4484e-15 0)
(3 2.42814e-18 0)
(3 -1.30379e-15 0)
(3 -1.87935e-15 0)
(3 -1.74212e-15 0)
(3 -1.64218e-15 0)
(3 -2.07461e-15 0)
(3 -2.78465e-15 0)
(3 -2.73509e-15 0)
(3 -2.65291e-15 0)
(3 -3.22207e-15 0)
(3 -3.27941e-15 0)
(3 -3.72783e-15 0)
(3 -3.9808e-15 0)
(3 -2.69133e-15 0)
(3 1.06055e-16 0)
(3 1.01795e-16 0)
(3 -1.24244e-16 0)
(3 -1.05639e-16 0)
(3 -3.88005e-17 0)
(3 -3.32451e-16 0)
(3 -6.95571e-16 0)
(3 -1.02592e-16 0)
(3 3.21936e-18 0)
(3 8.10173e-17 0)
(3 2.725e-17 0)
(3 -3.9346e-18 0)
(3 -6.84138e-16 0)
(3 -9.84053e-16 0)
(3 -1.13164e-15 0)
(3 -5.69791e-16 0)
(3 -1.76264e-16 0)
(3 3.00356e-16 0)
(3 8.61622e-16 0)
(3 1.2709e-15 0)
(3 1.17615e-15 0)
(3 1.61181e-15 0)
(3 2.82568e-15 0)
(3 3.01778e-15 0)
(3 2.4195e-15 0)
(3 2.12491e-15 0)
(3 3.4703e-15 0)
(3 3.29691e-15 0)
(3 2.52825e-15 0)
(3 2.11528e-15 0)
(3 5.95904e-16 0)
(3 1.55516e-16 0)
(3 -6.53698e-16 0)
(3 -9.13577e-16 0)
(3 -1.72787e-16 0)
(3 2.62654e-16 0)
(3 4.96274e-16 0)
(3 1.28913e-16 0)
(3 -7.42049e-17 0)
(3 -5.04275e-16 0)
(3 -1.4459e-15 0)
(3 -1.51696e-15 0)
(3 -1.28558e-15 0)
(3 -1.97875e-15 0)
(3 -2.63482e-15 0)
(3 -2.4714e-15 0)
(3 -2.02263e-15 0)
(3 -1.7423e-15 0)
(3 9.58496e-18 0)
(3 -1.27078e-16 0)
(3 -3.86717e-16 0)
(3 -1.01299e-16 0)
(3 -2.37552e-16 0)
(3 -2.64343e-16 0)
(3 -5.55799e-16 0)
(3 -3.42487e-16 0)
(3 3.59194e-16 0)
(3 -1.36605e-16 0)
(3 -8.18112e-16 0)
(3 -7.37117e-16 0)
(3 -7.593e-16 0)
(3 -5.12851e-16 0)
(3 4.05961e-16 0)
(3 6.19745e-16 0)
(3 4.42066e-16 0)
(3 5.19491e-16 0)
(3 1.17357e-15 0)
(3 1.008e-15 0)
(3 1.28906e-15 0)
(3 2.17676e-15 0)
(3 3.27885e-15 0)
(3 4.23651e-15 0)
(3 3.84951e-15 0)
(3 3.17927e-15 0)
(3 2.87962e-15 0)
(3 2.64077e-15 0)
(3 2.61391e-15 0)
(3 1.68948e-15 0)
(3 -3.00972e-16 0)
(3 -3.30748e-16 0)
(3 -1.35758e-15 0)
(3 -2.56265e-15 0)
(3 -2.30253e-15 0)
(3 -1.68168e-15 0)
(3 -4.76256e-16 0)
(3 5.76898e-17 0)
(3 4.08661e-16 0)
(3 1.27623e-15 0)
(3 1.64487e-15 0)
(3 1.21392e-15 0)
(3 1.22529e-15 0)
(3 1.20464e-15 0)
(3 1.15315e-15 0)
(3 8.67895e-16 0)
(3 2.94209e-16 0)
(3 2.44754e-17 0)
(3 -5.81411e-17 0)
(3 5.02189e-17 0)
(3 -6.28786e-16 0)
(3 -9.40008e-16 0)
(3 -9.57072e-16 0)
(3 -1.68301e-15 0)
(3 -2.19148e-15 0)
(3 -2.02512e-15 0)
(3 -1.28155e-15 0)
(3 -7.24931e-16 0)
(3 -5.71085e-16 0)
(3 -3.06468e-16 0)
(3 7.32238e-17 0)
(3 1.89865e-15 0)
(3 2.07833e-15 0)
(3 1.73715e-15 0)
(3 9.1657e-16 0)
(3 7.16667e-16 0)
(3 1.07494e-15 0)
(3 1.32415e-15 0)
(3 2.06835e-15 0)
(3 2.31262e-15 0)
(3 2.52983e-15 0)
(3 2.92997e-15 0)
(3 3.06596e-15 0)
(3 2.01192e-15 0)
(3 1.20619e-15 0)
(3 1.43444e-15 0)
(3 1.84745e-15 0)
(3 5.37974e-16 0)
(3 -5.19515e-16 0)
(3 -6.2604e-16 0)
(3 -2.01394e-15 0)
(3 -2.37116e-15 0)
(3 -2.39587e-15 0)
(3 -1.12018e-15 0)
(3 8.95071e-16 0)
(3 2.48e-15 0)
(3 2.92242e-15 0)
(3 2.65327e-15 0)
(3 2.41293e-15 0)
(3 2.20053e-15 0)
(3 1.70598e-15 0)
(3 2.05906e-15 0)
(3 2.91226e-15 0)
(3 2.29173e-15 0)
(3 1.86672e-15 0)
(3 9.0329e-16 0)
(3 -1.49057e-17 0)
(3 2.93982e-16 0)
(3 -8.61857e-17 0)
(3 -6.4079e-16 0)
(3 -8.67224e-16 0)
(3 -7.61555e-16 0)
(3 -2.07984e-16 0)
(3 -1.98045e-16 0)
(3 -3.2944e-16 0)
(3 -4.59339e-17 0)
(3 3.405e-16 0)
(3 1.85746e-15 0)
(3 2.33801e-15 0)
(3 2.58584e-15 0)
(3 1.99651e-15 0)
(3 1.20873e-15 0)
(3 7.71356e-16 0)
(3 6.40896e-16 0)
(3 2.03406e-16 0)
(3 3.2242e-16 0)
(3 1.14514e-15 0)
(3 8.86518e-16 0)
(3 1.16612e-16 0)
(3 5.26957e-16 0)
(3 2.21906e-17 0)
(3 -1.23293e-15 0)
(3 -1.77794e-15 0)
(3 -1.46851e-15 0)
(3 -9.16755e-16 0)
(3 -6.12832e-16 0)
(3 7.99512e-17 0)
(3 3.0539e-18 0)
(3 -2.605e-16 0)
(3 -2.41193e-16 0)
(3 3.6558e-16 0)
(3 3.38481e-16 0)
(3 1.80576e-16 0)
(3 1.06583e-16 0)
(3 -4.01489e-16 0)
(3 3.30565e-16 0)
(3 1.93393e-15 0)
(3 2.21454e-15 0)
(3 2.4183e-15 0)
(3 2.95886e-15 0)
(3 1.92002e-15 0)
(3 1.35533e-15 0)
(3 1.21865e-15 0)
(3 1.05315e-15 0)
(3 4.27716e-18 0)
(3 -1.18711e-16 0)
(3 -9.29109e-18 0)
(3 3.3932e-17 0)
(3 -5.62937e-18 0)
(3 3.56628e-16 0)
(3 9.92817e-16 0)
(3 1.45973e-15 0)
(3 1.77016e-15 0)
(3 1.64423e-15 0)
(3 1.26166e-15 0)
(3 1.16596e-15 0)
(3 1.14311e-15 0)
(3 7.21571e-16 0)
(3 6.45979e-16 0)
(3 1.09781e-15 0)
(3 1.80992e-15 0)
(3 1.17419e-15 0)
(3 1.19502e-15 0)
(3 1.08055e-15 0)
(3 8.21751e-16 0)
(3 -3.12225e-17 0)
(3 -1.37679e-15 0)
(3 -2.39271e-15 0)
(3 -2.25082e-15 0)
(3 -1.10064e-15 0)
(3 -4.8633e-17 0)
(3 -2.14865e-16 0)
(3 -6.60234e-16 0)
(3 -8.70306e-16 0)
(3 -8.59272e-16 0)
(3 -5.44005e-16 0)
(3 1.08354e-16 0)
(3 3.06313e-16 0)
(3 1.06773e-15 0)
(3 -6.6226e-16 0)
(3 -2.24526e-15 0)
(3 -2.79824e-15 0)
(3 -3.0313e-15 0)
(3 -2.50516e-15 0)
(3 -7.44086e-16 0)
(3 9.54599e-16 0)
(3 2.79996e-15 0)
(3 3.56269e-15 0)
(3 2.32998e-15 0)
(3 1.46617e-15 0)
(3 4.00033e-16 0)
(3 2.48771e-16 0)
(3 -6.86516e-17 0)
(3 -5.27103e-16 0)
(3 -2.25359e-16 0)
(3 4.92243e-16 0)
(3 6.38996e-16 0)
(3 5.37981e-16 0)
(3 4.92188e-16 0)
(3 7.0221e-16 0)
(3 1.37728e-15 0)
(3 1.23077e-15 0)
(3 7.4927e-17 0)
(3 -5.00841e-16 0)
(3 -1.37224e-16 0)