/*--------------------------------*- C++ -*----------------------------------*\
  =========                 |
  \\      /  F ield         | OpenFOAM: The Open Source CFD Toolbox
   \\    /   O peration     | Website:  https://openfoam.org
    \\  /    A nd           | Version:  7
     \\/     M anipulation  |
\*---------------------------------------------------------------------------*/
FoamFile
{
    version     2.0;
    format      ascii;
    class       volVectorField;
    location    "0.5";
    object      U;
}
// * * * * * * * * * * * * * * * * * * * * * * * * * * * * * * * * * * * * * //

dimensions      [0 1 -1 0 0 0 0];

internalField   nonuniform List<vector> 
73728
(
(3 8.84124e-17 0)
(3 -2.63098e-17 0)
(3 -1.04299e-16 0)
(3 -6.58694e-17 0)
(3 6.52032e-17 0)
(3 -1.82012e-16 0)
(3 -7.22499e-17 0)
(3 -2.55225e-16 0)
(3 -3.59878e-16 0)
(3 -1.97926e-16 0)
(3 2.85917e-16 0)
(3 6.45784e-16 0)
(3 3.12815e-16 0)
(3 -1.46426e-16 0)
(3 4.51158e-17 0)
(3 4.40016e-16 0)
(3 4.34253e-16 0)
(3 1.83018e-16 0)
(3 -2.50814e-16 0)
(3 -4.37296e-16 0)
(3 -6.88734e-16 0)
(3 -6.06533e-16 0)
(3 -6.73415e-16 0)
(3 -5.59203e-16 0)
(3 -2.07448e-16 0)
(3 2.02584e-16 0)
(3 7.83616e-16 0)
(3 1.25876e-16 0)
(3 -4.81402e-16 0)
(3 -1.08248e-15 0)
(3 -4.22398e-17 0)
(3 5.60334e-16 0)
(3 1.17895e-15 0)
(3 1.74023e-15 0)
(3 1.13271e-15 0)
(3 8.23812e-16 0)
(3 7.441e-16 0)
(3 5.44258e-16 0)
(3 4.86313e-16 0)
(3 5.05572e-16 0)
(3 3.21679e-16 0)
(3 -1.03902e-17 0)
(3 2.6766e-16 0)
(3 1.0415e-15 0)
(3 8.92121e-16 0)
(3 5.875e-16 0)
(3 1.06991e-15 0)
(3 9.86881e-16 0)
(3 -3.41491e-16 0)
(3 -1.31735e-15 0)
(3 -1.20408e-15 0)
(3 -1.28637e-15 0)
(3 -7.84731e-16 0)
(3 -1.42203e-16 0)
(3 1.32954e-16 0)
(3 -1.05624e-16 0)
(3 -8.75946e-16 0)
(3 -1.32031e-15 0)
(3 -1.57771e-15 0)
(3 -1.75226e-15 0)
(3 -1.4474e-15 0)
(3 -6.46325e-16 0)
(3 -2.7362e-16 0)
(3 4.33277e-16 0)
(3 2.03996e-15 0)
(3 3.04321e-15 0)
(3 1.81999e-15 0)
(3 -1.1591e-16 0)
(3 -4.28296e-16 0)
(3 -2.3983e-16 0)
(3 2.54929e-16 0)
(3 1.42811e-15 0)
(3 1.10572e-15 0)
(3 -3.80504e-16 0)
(3 -6.9705e-16 0)
(3 -8.57014e-16 0)
(3 -8.81112e-16 0)
(3 -1.46884e-15 0)
(3 -2.05246e-15 0)
(3 -1.80334e-15 0)
(3 -1.28449e-15 0)
(3 -1.97387e-15 0)
(3 -2.17903e-15 0)
(3 -2.02521e-15 0)
(3 -1.00595e-15 0)
(3 3.23098e-16 0)
(3 3.28392e-16 0)
(3 -6.22288e-17 0)
(3 -2.4562e-16 0)
(3 -9.79591e-16 0)
(3 -1.48658e-15 0)
(3 -1.30006e-15 0)
(3 -7.47036e-16 0)
(3 2.35029e-16 0)
(3 7.59834e-16 0)
(3 9.26766e-16 0)
(3 -2.94371e-16 0)
(3 2.60771e-16 0)
(3 3.67846e-16 0)
(3 6.05944e-16 0)
(3 8.34055e-16 0)
(3 3.62449e-16 0)
(3 3.12148e-16 0)
(3 -2.69802e-16 0)
(3 -1.1626e-15 0)
(3 -1.14312e-15 0)
(3 -5.91602e-16 0)
(3 2.46401e-16 0)
(3 1.77319e-16 0)
(3 -2.87656e-17 0)
(3 3.20552e-16 0)
(3 5.99152e-16 0)
(3 8.82467e-16 0)
(3 8.99328e-16 0)
(3 -2.96482e-16 0)
(3 -8.84603e-16 0)
(3 -8.97736e-16 0)
(3 -5.41892e-16 0)
(3 -9.43445e-16 0)
(3 -7.6646e-16 0)
(3 -1.72063e-16 0)
(3 2.61825e-16 0)
(3 6.5525e-16 0)
(3 -9.14052e-16 0)
(3 -1.82719e-15 0)
(3 -1.74219e-15 0)
(3 -3.43831e-16 0)
(3 1.13763e-15 0)
(3 2.26032e-15 0)
(3 2.57038e-15 0)
(3 1.61282e-15 0)
(3 5.37697e-16 0)
(3 3.67982e-16 0)
(3 -8.72585e-17 0)
(3 -3.59086e-16 0)
(3 -5.35043e-16 0)
(3 -5.80176e-16 0)
(3 -6.67274e-16 0)
(3 1.00387e-15 0)
(3 2.70189e-15 0)
(3 2.50464e-15 0)
(3 -1.52895e-16 0)
(3 -2.88758e-15 0)
(3 -3.17116e-15 0)
(3 -3.31498e-15 0)
(3 -2.81258e-15 0)
(3 -2.3417e-15 0)
(3 -1.96763e-15 0)
(3 -1.45607e-15 0)
(3 3.63337e-16 0)
(3 8.92368e-16 0)
(3 9.70429e-16 0)
(3 8.97655e-16 0)
(3 8.05886e-16 0)
(3 5.4601e-16 0)
(3 -3.76923e-16 0)
(3 -7.89637e-16 0)
(3 -1.07092e-15 0)
(3 -2.67313e-16 0)
(3 5.02873e-16 0)
(3 1.15042e-15 0)
(3 1.8061e-15 0)
(3 1.21213e-15 0)
(3 3.34355e-16 0)
(3 7.0194e-16 0)
(3 1.21035e-15 0)
(3 1.94529e-15 0)
(3 2.36088e-15 0)
(3 1.57608e-15 0)
(3 1.61782e-18 0)
(3 -9.38639e-16 0)
(3 -6.27108e-16 0)
(3 -6.80536e-16 0)
(3 -1.80962e-15 0)
(3 -2.57329e-15 0)
(3 -2.51189e-15 0)
(3 -2.01514e-15 0)
(3 -1.76366e-15 0)
(3 -1.83337e-15 0)
(3 -1.07431e-15 0)
(3 -8.73895e-16 0)
(3 -3.97111e-16 0)
(3 -1.41278e-15 0)
(3 -1.55301e-15 0)
(3 -1.92228e-15 0)
(3 -2.64272e-15 0)
(3 -2.7836e-15 0)
(3 -2.24437e-15 0)
(3 -1.28022e-15 0)
(3 -8.12975e-16 0)
(3 5.27505e-16 0)
(3 9.23352e-16 0)
(3 -1.30115e-17 0)
(3 8.12581e-17 0)
(3 -1.34496e-16 0)
(3 3.97603e-16 0)
(3 8.6142e-16 0)
(3 1.37518e-15 0)
(3 1.19594e-15 0)
(3 5.37887e-16 0)
(3 -7.4998e-17 0)
(3 -5.54079e-16 0)
(3 -1.01911e-15 0)
(3 -1.33723e-15 0)
(3 -7.75474e-16 0)
(3 -1.89359e-16 0)
(3 1.4666e-16 0)
(3 1.16097e-16 0)
(3 2.01968e-16 0)
(3 9.96053e-17 0)
(3 -2.75676e-16 0)
(3 -3.50898e-17 0)
(3 3.80913e-16 0)
(3 9.61961e-17 0)
(3 -1.37741e-16 0)
(3 -4.94257e-16 0)
(3 -5.73013e-16 0)
(3 -5.71975e-16 0)
(3 -1.94152e-15 0)
(3 -2.86715e-15 0)
(3 -3.35329e-15 0)
(3 -3.07428e-15 0)
(3 -9.76107e-16 0)
(3 -1.45931e-16 0)
(3 9.41205e-16 0)
(3 1.34347e-15 0)
(3 2.65872e-15 0)
(3 2.55536e-15 0)
(3 1.94955e-15 0)
(3 1.51993e-15 0)
(3 1.04155e-15 0)
(3 4.39199e-16 0)
(3 7.96932e-16 0)
(3 2.21871e-15 0)
(3 3.64518e-15 0)
(3 4.33745e-15 0)
(3 5.20185e-15 0)
(3 4.33586e-15 0)
(3 3.66319e-16 0)
(3 -1.22321e-15 0)
(3 -1.39423e-15 0)
(3 -2.09849e-15 0)
(3 -2.22473e-15 0)
(3 -1.33176e-15 0)
(3 1.48742e-17 0)
(3 3.49104e-16 0)
(3 4.48548e-16 0)
(3 1.13106e-15 0)
(3 1.3683e-15 0)
(3 1.58207e-15 0)
(3 1.17416e-15 0)
(3 8.32706e-16 0)
(3 1.8792e-16 0)
(3 2.18274e-16 0)
(3 8.99291e-17 0)
(3 -5.41516e-16 0)
(3 -1.10315e-15 0)
(3 4.76813e-16 0)
(3 1.31675e-15 0)
(3 2.37532e-15 0)
(3 3.69432e-15 0)
(3 3.85543e-15 0)
(3 1.98383e-15 0)
(3 1.39725e-15 0)
(3 9.12449e-16 0)
(3 6.11013e-16 0)
(3 -3.47836e-16 0)
(3 -7.97327e-16 0)
(3 -1.96419e-15 0)
(3 -2.25252e-15 0)
(3 -2.61431e-15 0)
(3 -3.17136e-15 0)
(3 -3.09099e-15 0)
(3 -2.06322e-15 0)
(3 -2.06571e-15 0)
(3 -2.43424e-15 0)
(3 -2.37122e-15 0)
(3 -2.49752e-15 0)
(3 -2.60485e-15 0)
(3 -3.10417e-15 0)
(3 -3.42131e-15 0)
(3 -2.03507e-15 0)
(3 -1.70684e-15 0)
(3 -1.5525e-15 0)
(3 -1.22729e-15 0)
(3 -1.16637e-15 0)
(3 -7.65202e-16 0)
(3 3.8302e-16 0)
(3 3.21869e-16 0)
(3 2.34058e-16 0)
(3 7.9431e-18 0)
(3 -2.56536e-16 0)
(3 -2.14497e-16 0)
(3 1.61186e-16 0)
(3 2.78393e-16 0)
(3 2.63991e-16 0)
(3 1.27825e-15 0)
(3 9.43068e-16 0)
(3 4.80821e-16 0)
(3 -4.28123e-16 0)
(3 -9.94116e-16 0)
(3 -9.94604e-16 0)
(3 -4.6113e-16 0)
(3 -4.15636e-16 0)
(3 -4.66967e-16 0)
(3 -1.9354e-16 0)
(3 -2.06047e-16 0)
(3 -3.72118e-16 0)
(3 1.24196e-16 0)
(3 -1.65529e-16 0)
(3 -9.28106e-17 0)
(3 -2.42863e-16 0)
(3 -1.06398e-15 0)
(3 -2.2001e-15 0)
(3 -3.15668e-15 0)
(3 -3.68072e-15 0)
(3 -3.04884e-15 0)
(3 -2.2957e-15 0)
(3 -1.85314e-15 0)
(3 -1.83504e-15 0)
(3 -8.21496e-17 0)
(3 1.13602e-15 0)
(3 1.90907e-15 0)
(3 2.50866e-15 0)
(3 2.61373e-15 0)
(3 2.55119e-15 0)
(3 2.26251e-15 0)
(3 1.88477e-15 0)
(3 2.27567e-15 0)
(3 3.25435e-15 0)
(3 4.13023e-15 0)
(3 4.88759e-15 0)
(3 4.55903e-15 0)
(3 3.4151e-15 0)
(3 1.72009e-15 0)
(3 6.53217e-16 0)
(3 1.43986e-16 0)
(3 -7.09651e-16 0)
(3 -3.64126e-16 0)
(3 -2.07737e-16 0)
(3 -5.18275e-16 0)
(3 -2.62915e-16 0)
(3 -3.7762e-16 0)
(3 5.05064e-16 0)
(3 1.21497e-15 0)
(3 1.65545e-15 0)
(3 2.55467e-15 0)
(3 2.59187e-15 0)
(3 1.88612e-15 0)
(3 1.16432e-15 0)
(3 3.93046e-16 0)
(3 -1.06983e-15 0)
(3 -1.40988e-15 0)
(3 -9.47526e-16 0)
(3 -1.20791e-16 0)
(3 3.40579e-16 0)
(3 -6.08786e-17 0)
(3 -1.00523e-15 0)
(3 -1.05237e-15 0)
(3 -7.51598e-16 0)
(3 -5.61351e-16 0)
(3 -3.18465e-16 0)
(3 -5.98486e-16 0)
(3 -2.16413e-15 0)
(3 -3.58724e-15 0)
(3 -4.11126e-15 0)
(3 -4.24819e-15 0)
(3 -4.21857e-15 0)
(3 -3.45702e-15 0)
(3 -2.23681e-15 0)
(3 -2.28159e-15 0)
(3 -2.77299e-15 0)
(3 -2.60619e-15 0)
(3 -1.73375e-15 0)
(3 -1.07206e-15 0)
(3 -1.76561e-15 0)
(3 -1.21153e-15 0)
(3 1.44086e-16 0)
(3 -1.43124e-16 0)
(3 -6.30036e-16 0)
(3 -5.43547e-16 0)
(3 -2.93217e-16 0)
(3 -3.69694e-16 0)
(3 6.58934e-16 0)
(3 1.17081e-16 0)
(3 3.1601e-16 0)
(3 2.26416e-16 0)
(3 -1.09586e-16 0)
(3 -8.22001e-16 0)
(3 -1.39213e-15 0)
(3 -1.21524e-15 0)
(3 -5.46661e-16 0)
(3 -2.18632e-16 0)
(3 -2.6796e-16 0)
(3 -6.01236e-16 0)
(3 -1.05227e-15 0)
(3 -8.08781e-16 0)
(3 -1.17408e-15 0)
(3 -8.73922e-16 0)
(3 -4.95324e-16 0)
(3 -2.08232e-16 0)
(3 -4.28291e-17 0)
(3 -7.92158e-16 0)
(3 -1.17277e-15 0)
(3 -1.15072e-15 0)
(3 -9.24866e-16 0)
(3 -5.74886e-16 0)
(3 -7.12429e-16 0)
(3 -1.00052e-15 0)
(3 -2.12933e-15 0)
(3 -2.40858e-15 0)
(3 -3.25537e-15 0)
(3 -3.18699e-15 0)
(3 -2.94497e-15 0)
(3 -3.16652e-15 0)
(3 -2.87648e-15 0)
(3 -1.72104e-15 0)
(3 -5.16386e-16 0)
(3 -5.91192e-16 0)
(3 -6.66744e-16 0)
(3 2.21655e-16 0)
(3 2.06167e-15 0)
(3 2.88949e-15 0)
(3 2.30732e-15 0)
(3 1.24513e-15 0)
(3 1.21043e-15 0)
(3 1.17145e-15 0)
(3 1.4936e-15 0)
(3 1.06925e-15 0)
(3 4.21563e-16 0)
(3 2.9265e-16 0)
(3 -1.13751e-15 0)
(3 -1.25253e-15 0)
(3 9.69984e-16 0)
(3 2.61102e-15 0)
(3 1.30959e-15 0)
(3 9.87145e-16 0)
(3 1.19356e-15 0)
(3 8.02976e-16 0)
(3 5.08893e-16 0)
(3 2.01228e-15 0)
(3 1.94932e-15 0)
(3 2.76529e-15 0)
(3 2.65215e-15 0)
(3 2.29181e-15 0)
(3 -1.57954e-16 0)
(3 -1.83279e-15 0)
(3 -1.99789e-15 0)
(3 -1.76088e-15 0)
(3 -1.40071e-15 0)
(3 -1.99939e-15 0)
(3 -3.64114e-15 0)
(3 -4.28909e-15 0)
(3 -4.0486e-15 0)
(3 -2.32583e-15 0)
(3 -1.28166e-15 0)
(3 -1.07393e-15 0)
(3 -1.3277e-15 0)
(3 -2.32258e-15 0)
(3 -3.77561e-15 0)
(3 -5.19352e-15 0)
(3 -5.31458e-15 0)
(3 -5.70216e-15 0)
(3 -2.54864e-15 0)
(3 -1.07711e-15 0)
(3 -8.45619e-16 0)
(3 -6.63575e-16 0)
(3 -1.0671e-15 0)
(3 -1.82076e-15 0)
(3 -6.86599e-16 0)
(3 -4.95004e-16 0)
(3 4.08289e-17 0)
(3 4.75976e-16 0)
(3 4.68345e-16 0)
(3 4.94534e-16 0)
(3 6.18961e-16 0)
(3 4.86915e-16 0)
(3 9.90561e-16 0)
(3 1.26133e-15 0)
(3 1.94948e-15 0)
(3 -3.1966e-17 0)
(3 -1.60922e-16 0)
(3 -3.51169e-16 0)
(3 -3.31463e-16 0)
(3 -4.40015e-16 0)
(3 -6.02942e-16 0)
(3 -4.18379e-16 0)
(3 -4.64605e-17 0)
(3 -3.72639e-16 0)
(3 -1.93923e-15 0)
(3 -3.23681e-15 0)
(3 -2.37909e-15 0)
(3 -1.55581e-15 0)
(3 -1.01186e-15 0)
(3 -7.43159e-16 0)
(3 -3.63166e-16 0)
(3 4.84596e-16 0)
(3 5.45167e-16 0)
(3 -2.05315e-16 0)
(3 -2.5502e-16 0)
(3 -7.27169e-16 0)
(3 -6.99285e-16 0)
(3 -3.5452e-16 0)
(3 -3.08358e-16 0)
(3 -3.40854e-16 0)
(3 -2.58807e-16 0)
(3 -7.76066e-16 0)
(3 -6.78145e-16 0)
(3 -1.15111e-15 0)
(3 -2.0036e-15 0)
(3 -2.37057e-15 0)
(3 -2.04732e-15 0)
(3 -1.91358e-15 0)
(3 -1.48046e-15 0)
(3 -1.3031e-15 0)
(3 -1.87076e-15 0)
(3 -1.63434e-15 0)
(3 -2.9344e-16 0)
(3 1.85594e-15 0)
(3 3.36434e-15 0)
(3 3.27313e-15 0)
(3 2.43439e-15 0)
(3 1.59233e-15 0)
(3 1.12246e-15 0)
(3 -2.89933e-16 0)
(3 -6.75649e-16 0)
(3 -1.12672e-15 0)
(3 -1.50326e-15 0)
(3 2.02713e-16 0)
(3 5.69786e-16 0)
(3 4.4311e-16 0)
(3 2.21739e-16 0)
(3 9.7391e-16 0)
(3 8.11939e-16 0)
(3 1.44114e-16 0)
(3 2.21391e-16 0)
(3 -2.05169e-16 0)
(3 -6.66333e-16 0)
(3 -4.69623e-16 0)
(3 1.4149e-16 0)
(3 6.91711e-16 0)
(3 -1.59596e-17 0)
(3 -1.53563e-15 0)
(3 -5.26039e-16 0)
(3 -7.9959e-16 0)
(3 -9.39489e-16 0)
(3 -1.55667e-15 0)
(3 -3.20863e-15 0)
(3 -6.24713e-16 0)
(3 4.81941e-16 0)
(3 6.28594e-16 0)
(3 3.68885e-17 0)
(3 -9.27159e-16 0)
(3 -2.08845e-15 0)
(3 -2.84739e-15 0)
(3 -2.88578e-15 0)
(3 -2.9698e-15 0)
(3 -2.45079e-15 0)
(3 -2.035e-15 0)
(3 -4.1408e-16 0)
(3 -4.67204e-16 0)
(3 -3.62451e-16 0)
(3 1.17271e-15 0)
(3 1.08251e-15 0)
(3 -1.85443e-15 0)
(3 -2.9896e-15 0)
(3 -3.2743e-15 0)
(3 -1.25033e-15 0)
(3 -4.81652e-16 0)
(3 -4.30455e-16 0)
(3 2.69375e-17 0)
(3 1.38106e-15 0)
(3 3.41824e-15 0)
(3 4.2359e-15 0)
(3 4.17049e-15 0)
(3 4.08432e-15 0)
(3 1.1817e-16 0)
(3 -8.66334e-17 0)
(3 -1.77888e-16 0)
(3 -7.58906e-17 0)
(3 4.20367e-16 0)
(3 7.05019e-16 0)
(3 9.13459e-16 0)
(3 9.50563e-16 0)
(3 1.79627e-17 0)
(3 -8.38246e-16 0)
(3 -1.53533e-15 0)
(3 -1.0098e-15 0)
(3 -8.50946e-16 0)
(3 -3.32759e-16 0)
(3 3.09105e-16 0)
(3 6.68237e-16 0)
(3 7.367e-16 0)
(3 4.58642e-16 0)
(3 8.27011e-16 0)
(3 5.33361e-16 0)
(3 -3.32245e-16 0)
(3 -6.48432e-16 0)
(3 -8.92358e-16 0)
(3 -8.73113e-16 0)
(3 -6.55419e-16 0)
(3 -5.14163e-16 0)
(3 -4.29709e-16 0)
(3 -1.0758e-16 0)
(3 -6.05025e-16 0)
(3 -8.39208e-16 0)
(3 -7.11447e-16 0)
(3 -2.896e-16 0)
(3 -2.11972e-16 0)
(3 -9.37647e-16 0)
(3 -1.13563e-15 0)
(3 -1.41789e-15 0)
(3 -1.3132e-15 0)
(3 -1.29121e-15 0)
(3 -3.97452e-16 0)
(3 8.369e-16 0)
(3 1.77007e-15 0)
(3 1.15462e-15 0)
(3 -2.32327e-17 0)
(3 -1.27038e-15 0)
(3 -2.8978e-15 0)
(3 -2.82555e-15 0)
(3 -1.94186e-15 0)
(3 -3.42368e-16 0)
(3 1.19594e-15 0)
(3 1.1765e-15 0)
(3 1.21879e-15 0)
(3 -8.29622e-16 0)
(3 -2.39845e-15 0)
(3 -3.50596e-15 0)
(3 -2.70274e-15 0)
(3 -2.00432e-15 0)
(3 -2.30748e-15 0)
(3 -1.46101e-15 0)
(3 -8.62392e-16 0)
(3 -3.83031e-16 0)
(3 -4.42117e-16 0)
(3 -1.38886e-15 0)
(3 -1.85427e-15 0)
(3 -1.13188e-15 0)
(3 -8.28037e-16 0)
(3 -1.19557e-16 0)
(3 1.33998e-15 0)
(3 4.80816e-16 0)
(3 -5.37677e-16 0)
(3 -4.74096e-16 0)
(3 -5.1846e-16 0)
(3 -5.46821e-16 0)
(3 -7.23874e-16 0)
(3 -7.58319e-16 0)
(3 -8.11645e-16 0)
(3 -2.8065e-16 0)
(3 1.83266e-16 0)
(3 -5.95212e-17 0)
(3 4.57838e-17 0)
(3 -3.99297e-16 0)
(3 -5.22926e-16 0)
(3 3.25716e-16 0)
(3 3.30165e-16 0)
(3 2.33128e-16 0)
(3 -6.05025e-17 0)
(3 -3.51275e-16 0)
(3 2.05226e-15 0)
(3 2.62948e-15 0)
(3 2.54264e-15 0)
(3 3.02994e-15 0)
(3 3.86748e-15 0)
(3 4.42057e-15 0)
(3 6.73676e-15 0)
(3 7.94611e-15 0)
(3 8.14092e-15 0)
(3 7.61824e-15 0)
(3 -1.24045e-17 0)
(3 -5.62035e-17 0)
(3 8.04697e-17 0)
(3 2.41695e-16 0)
(3 7.82009e-16 0)
(3 1.08743e-15 0)
(3 1.07165e-15 0)
(3 6.69501e-16 0)
(3 1.15902e-15 0)
(3 2.02378e-15 0)
(3 2.54463e-15 0)
(3 1.44426e-15 0)
(3 1.0635e-15 0)
(3 9.90659e-16 0)
(3 7.62315e-16 0)
(3 4.11586e-16 0)
(3 -7.78116e-17 0)
(3 -3.13492e-16 0)
(3 3.72479e-17 0)
(3 -3.56564e-16 0)
(3 -8.3913e-16 0)
(3 -1.38323e-15 0)
(3 -2.21496e-15 0)
(3 -2.18018e-15 0)
(3 -2.00416e-15 0)
(3 -1.9235e-15 0)
(3 -8.70663e-16 0)
(3 -1.06709e-15 0)
(3 -5.18484e-16 0)
(3 -1.10234e-16 0)
(3 -1.313e-16 0)
(3 -4.576e-16 0)
(3 -3.65161e-16 0)
(3 -6.85642e-16 0)
(3 -4.46749e-16 0)
(3 2.79463e-16 0)
(3 9.93244e-16 0)
(3 1.49489e-15 0)
(3 1.70518e-15 0)
(3 1.65144e-15 0)
(3 1.12578e-15 0)
(3 9.40231e-17 0)
(3 -8.56951e-16 0)
(3 -3.20915e-15 0)
(3 -4.26841e-15 0)
(3 -3.21096e-15 0)
(3 -9.71962e-16 0)
(3 7.01785e-16 0)
(3 3.45502e-16 0)
(3 5.66733e-16 0)
(3 8.35846e-16 0)
(3 -1.25501e-15 0)
(3 -2.71594e-15 0)
(3 -3.14921e-15 0)
(3 -3.20638e-15 0)
(3 -3.64169e-15 0)
(3 -3.3592e-15 0)
(3 -3.13179e-15 0)
(3 -2.90714e-15 0)
(3 -2.41945e-15 0)
(3 -2.13141e-15 0)
(3 -2.50631e-15 0)
(3 -2.20167e-15 0)
(3 -1.95795e-15 0)
(3 -1.55321e-15 0)
(3 3.21503e-16 0)
(3 2.3968e-15 0)
(3 2.64043e-15 0)
(3 8.00715e-16 0)
(3 6.53407e-16 0)
(3 8.57356e-16 0)
(3 8.80639e-16 0)
(3 1.12611e-15 0)
(3 1.36109e-15 0)
(3 1.34701e-15 0)
(3 3.11552e-16 0)
(3 -2.67348e-16 0)
(3 -5.8061e-18 0)
(3 1.0511e-15 0)
(3 9.0414e-16 0)
(3 4.59942e-16 0)
(3 2.85282e-16 0)
(3 1.30265e-16 0)
(3 5.61813e-16 0)
(3 1.16935e-15 0)
(3 1.35908e-15 0)
(3 2.15441e-15 0)
(3 2.72581e-15 0)
(3 2.85623e-15 0)
(3 3.57189e-15 0)
(3 4.8118e-15 0)
(3 5.65018e-15 0)
(3 5.83187e-15 0)
(3 5.09675e-15 0)
(3 5.55028e-15 0)
(3 5.64803e-15 0)
(3 -2.29936e-17 0)
(3 -2.13268e-17 0)
(3 -1.12944e-16 0)
(3 -1.48575e-16 0)
(3 -1.28236e-16 0)
(3 1.48144e-17 0)
(3 -7.51228e-17 0)
(3 -1.70217e-16 0)
(3 3.49986e-16 0)
(3 2.04597e-15 0)
(3 2.86993e-15 0)
(3 2.32623e-15 0)
(3 1.83894e-15 0)
(3 1.72128e-15 0)
(3 1.40448e-15 0)
(3 3.63533e-16 0)
(3 -1.35908e-16 0)
(3 -2.63813e-16 0)
(3 -6.36889e-16 0)
(3 -1.02783e-15 0)
(3 -1.22131e-15 0)
(3 -1.55051e-15 0)
(3 -1.38956e-15 0)
(3 -1.39023e-15 0)
(3 -1.6636e-15 0)
(3 -1.18111e-15 0)
(3 -4.2201e-16 0)
(3 2.2037e-16 0)
(3 7.64576e-16 0)
(3 8.86221e-16 0)
(3 5.19665e-16 0)
(3 -3.76947e-17 0)
(3 -6.77895e-16 0)
(3 -9.0107e-16 0)
(3 -7.70552e-16 0)
(3 -2.94025e-16 0)
(3 -4.54083e-17 0)
(3 1.33859e-15 0)
(3 2.0321e-15 0)
(3 2.09007e-15 0)
(3 1.57046e-15 0)
(3 4.22448e-16 0)
(3 -1.36308e-16 0)
(3 -9.07195e-16 0)
(3 -1.37249e-15 0)
(3 -2.46562e-15 0)
(3 -2.71291e-15 0)
(3 -1.23922e-15 0)
(3 3.72152e-16 0)
(3 2.84528e-16 0)
(3 -1.74273e-15 0)
(3 -2.46645e-15 0)
(3 -3.05734e-15 0)
(3 -3.22172e-15 0)
(3 -4.03451e-15 0)
(3 -4.03364e-15 0)
(3 -3.63111e-15 0)
(3 -3.62321e-15 0)
(3 -2.90399e-15 0)
(3 -2.25694e-15 0)
(3 -1.48494e-15 0)
(3 -1.37283e-15 0)
(3 -1.08573e-15 0)
(3 9.67153e-16 0)
(3 1.41751e-15 0)
(3 1.3347e-15 0)
(3 1.35033e-15 0)
(3 1.62069e-15 0)
(3 2.0204e-15 0)
(3 1.67037e-15 0)
(3 1.5671e-15 0)
(3 1.14562e-15 0)
(3 5.20701e-16 0)
(3 6.07593e-16 0)
(3 8.39547e-16 0)
(3 7.94263e-16 0)
(3 1.63807e-16 0)
(3 8.69799e-17 0)
(3 6.67936e-16 0)
(3 1.93814e-15 0)
(3 1.64477e-15 0)
(3 1.65454e-15 0)
(3 3.09561e-15 0)
(3 3.68727e-15 0)
(3 3.62896e-15 0)
(3 2.53684e-15 0)
(3 4.14479e-16 0)
(3 1.08264e-16 0)
(3 8.89368e-16 0)
(3 2.18835e-15 0)
(3 3.83152e-15 0)
(3 5.4829e-15 0)
(3 4.59417e-15 0)
(3 3.79576e-15 0)
(3 3.7001e-15 0)
(3 4.03076e-15 0)
(3 8.99664e-18 0)
(3 -1.91555e-16 0)
(3 -2.01684e-16 0)
(3 -6.2521e-16 0)
(3 -7.56891e-16 0)
(3 -5.94983e-16 0)
(3 -5.51396e-16 0)
(3 -3.76343e-18 0)
(3 -4.66628e-17 0)
(3 8.06344e-16 0)
(3 1.40006e-15 0)
(3 1.43508e-15 0)
(3 8.08372e-16 0)
(3 7.43126e-16 0)
(3 1.05989e-15 0)
(3 -1.73249e-16 0)
(3 -5.85688e-16 0)
(3 -7.59366e-16 0)
(3 -1.1819e-15 0)
(3 -1.26875e-15 0)
(3 -1.0157e-15 0)
(3 -1.10124e-15 0)
(3 -1.33227e-16 0)
(3 3.4178e-16 0)
(3 -1.60742e-16 0)
(3 -1.49079e-16 0)
(3 4.10795e-16 0)
(3 1.18262e-15 0)
(3 1.36435e-15 0)
(3 1.2178e-15 0)
(3 9.69924e-16 0)
(3 6.87623e-17 0)
(3 -5.8276e-16 0)
(3 -4.39237e-16 0)
(3 -8.67714e-16 0)
(3 -1.48087e-15 0)
(3 -1.99779e-15 0)
(3 -1.57384e-15 0)
(3 -1.05618e-15 0)
(3 -6.77422e-16 0)
(3 1.91041e-16 0)
(3 4.88941e-16 0)
(3 2.62678e-17 0)
(3 7.26205e-16 0)
(3 1.42297e-15 0)
(3 5.53477e-16 0)
(3 -8.04465e-16 0)
(3 -7.65755e-16 0)
(3 -1.23791e-16 0)
(3 5.57761e-16 0)
(3 -1.21521e-15 0)
(3 -2.01806e-15 0)
(3 -2.54043e-15 0)
(3 -2.80803e-15 0)
(3 -3.65203e-15 0)
(3 -3.85065e-15 0)
(3 -3.20323e-15 0)
(3 -1.75118e-15 0)
(3 -1.30214e-15 0)
(3 -1.72321e-15 0)
(3 -1.74254e-15 0)
(3 -1.44355e-15 0)
(3 -3.16935e-16 0)
(3 2.14042e-15 0)
(3 2.06149e-15 0)
(3 1.21454e-15 0)
(3 1.08649e-15 0)
(3 1.81058e-17 0)
(3 1.04537e-15 0)
(3 2.24799e-15 0)
(3 2.12475e-15 0)
(3 2.27251e-15 0)
(3 2.06068e-15 0)
(3 1.87943e-15 0)
(3 1.45597e-15 0)
(3 2.22619e-15 0)
(3 2.64726e-15 0)
(3 1.92335e-15 0)
(3 1.75387e-15 0)
(3 1.77675e-15 0)
(3 1.86551e-15 0)
(3 2.0641e-15 0)
(3 2.09215e-15 0)
(3 2.40513e-15 0)
(3 2.92396e-15 0)
(3 3.32349e-15 0)
(3 3.46557e-15 0)
(3 3.08324e-15 0)
(3 3.19591e-15 0)
(3 3.03812e-15 0)
(3 3.61559e-15 0)
(3 4.55051e-15 0)
(3 4.45774e-15 0)
(3 5.24295e-15 0)
(3 5.86187e-15 0)
(3 5.70145e-15 0)
(3 -2.13596e-16 0)
(3 2.00474e-17 0)
(3 2.50207e-16 0)
(3 5.08834e-16 0)
(3 3.14276e-16 0)
(3 1.23309e-16 0)
(3 3.15791e-16 0)
(3 5.50567e-16 0)
(3 -2.49055e-17 0)
(3 -1.06209e-16 0)
(3 1.26733e-16 0)
(3 4.86984e-17 0)
(3 9.43116e-17 0)
(3 -1.79298e-16 0)
(3 -4.80127e-16 0)
(3 -1.7314e-15 0)
(3 -1.65328e-15 0)
(3 -1.1405e-15 0)
(3 -8.67608e-16 0)
(3 -6.82737e-16 0)
(3 -4.60185e-16 0)
(3 -1.9927e-17 0)
(3 8.4634e-16 0)
(3 1.36887e-15 0)
(3 2.45047e-16 0)
(3 -4.62537e-16 0)
(3 -8.41107e-17 0)
(3 -2.6272e-17 0)
(3 2.59341e-16 0)
(3 9.76736e-16 0)
(3 4.1309e-16 0)
(3 -3.16451e-16 0)
(3 -2.54263e-16 0)
(3 -8.86825e-17 0)
(3 -8.49942e-16 0)
(3 -1.81095e-15 0)
(3 -1.34198e-15 0)
(3 -1.39049e-15 0)
(3 -1.75531e-15 0)
(3 -1.52658e-15 0)
(3 -1.20351e-15 0)
(3 -5.90008e-16 0)
(3 -4.98645e-16 0)
(3 1.36336e-16 0)
(3 2.09897e-15 0)
(3 2.64067e-15 0)
(3 1.56471e-15 0)
(3 5.21213e-16 0)
(3 -2.406e-16 0)
(3 -5.99529e-16 0)
(3 -1.11065e-15 0)
(3 -1.5129e-15 0)
(3 -1.70141e-15 0)
(3 -1.99784e-15 0)
(3 -2.33436e-15 0)
(3 -2.35192e-15 0)
(3 -2.40066e-15 0)
(3 -2.05946e-15 0)
(3 -2.88685e-15 0)
(3 -3.17133e-15 0)
(3 -2.82176e-15 0)
(3 -1.74641e-15 0)
(3 -7.14901e-16 0)
(3 -5.48019e-16 0)
(3 -3.47785e-17 0)
(3 -4.4614e-16 0)
(3 -1.63583e-15 0)
(3 -1.4248e-15 0)
(3 -3.51013e-17 0)
(3 2.15462e-15 0)
(3 2.79152e-15 0)
(3 3.5528e-15 0)
(3 3.39343e-15 0)
(3 3.28697e-15 0)
(3 2.58256e-15 0)
(3 2.54352e-15 0)
(3 2.88879e-15 0)
(3 3.52351e-15 0)
(3 3.36573e-15 0)
(3 1.66733e-15 0)
(3 1.25665e-15 0)
(3 1.09191e-15 0)
(3 7.57039e-16 0)
(3 1.1106e-15 0)
(3 3.08611e-15 0)
(3 3.85265e-15 0)
(3 4.9436e-15 0)
(3 5.25592e-15 0)
(3 5.01608e-15 0)
(3 3.6809e-15 0)
(3 2.52842e-15 0)
(3 2.01979e-15 0)
(3 3.05821e-15 0)
(3 4.46192e-15 0)
(3 5.31918e-15 0)
(3 5.24725e-15 0)
(3 2.00159e-16 0)
(3 2.14359e-16 0)
(3 2.3435e-16 0)
(3 4.69774e-16 0)
(3 3.88249e-16 0)
(3 2.17754e-16 0)
(3 5.45466e-16 0)
(3 2.66607e-16 0)
(3 -5.81146e-17 0)
(3 -6.42419e-16 0)
(3 -1.20865e-15 0)
(3 -9.80158e-16 0)
(3 -6.75834e-16 0)
(3 -7.37748e-16 0)
(3 -1.00808e-15 0)
(3 -8.61965e-16 0)
(3 -6.04551e-16 0)
(3 -4.98845e-16 0)
(3 -5.54766e-16 0)
(3 -3.33927e-16 0)
(3 -2.55728e-17 0)
(3 2.26557e-16 0)
(3 6.54495e-16 0)
(3 -2.94008e-16 0)
(3 -9.0476e-16 0)
(3 -6.2628e-16 0)
(3 -7.00678e-16 0)
(3 -8.17086e-16 0)
(3 -1.12342e-15 0)
(3 -1.52898e-15 0)
(3 -2.15254e-15 0)
(3 -1.6456e-15 0)
(3 -1.16884e-15 0)
(3 -1.73325e-15 0)
(3 -2.56888e-15 0)
(3 -2.64857e-15 0)
(3 -1.78935e-15 0)
(3 -1.39482e-15 0)
(3 -1.31358e-15 0)
(3 -1.27573e-15 0)
(3 -1.59949e-15 0)
(3 -1.74214e-15 0)
(3 -8.95133e-16 0)
(3 -4.71171e-16 0)
(3 -6.58315e-17 0)
(3 3.99482e-16 0)
(3 1.20587e-16 0)
(3 -9.51995e-16 0)
(3 -1.65419e-15 0)
(3 -2.0482e-15 0)
(3 -3.21535e-15 0)
(3 -3.1094e-15 0)
(3 -2.93777e-15 0)
(3 -2.65089e-15 0)
(3 -2.0808e-15 0)
(3 -2.02042e-15 0)
(3 -2.51518e-15 0)
(3 -4.55695e-15 0)
(3 -5.44999e-15 0)
(3 -4.91114e-15 0)
(3 -2.78795e-15 0)
(3 -1.56482e-15 0)
(3 -1.40832e-15 0)
(3 -2.53584e-15 0)
(3 -1.61467e-15 0)
(3 -7.47468e-16 0)
(3 -4.20794e-16 0)
(3 2.2201e-16 0)
(3 1.78229e-15 0)
(3 2.3861e-15 0)
(3 3.41716e-15 0)
(3 4.10225e-15 0)
(3 4.81038e-15 0)
(3 4.62862e-15 0)
(3 4.9026e-15 0)
(3 4.36484e-15 0)
(3 4.51577e-15 0)
(3 4.926e-15 0)
(3 4.56604e-15 0)
(3 3.23288e-15 0)
(3 1.80281e-15 0)
(3 8.72553e-16 0)
(3 6.09986e-17 0)
(3 1.84548e-16 0)
(3 2.20525e-15 0)
(3 2.54295e-15 0)
(3 1.7237e-15 0)
(3 1.96248e-15 0)
(3 3.16892e-15 0)
(3 3.35263e-15 0)
(3 2.71226e-15 0)
(3 1.30072e-15 0)
(3 1.41327e-15 0)
(3 2.79341e-15 0)
(3 3.18554e-15 0)
(3 2.55683e-15 0)
(3 -1.98294e-17 0)
(3 5.3282e-17 0)
(3 -1.942e-16 0)
(3 -6.00461e-16 0)
(3 -3.86494e-16 0)
(3 -1.11742e-16 0)
(3 -2.82732e-16 0)
(3 -4.33186e-16 0)
(3 -1.08392e-16 0)
(3 -1.81383e-16 0)
(3 -1.92568e-16 0)
(3 -3.63165e-16 0)
(3 -4.9851e-16 0)
(3 -1.03256e-15 0)
(3 -1.00177e-15 0)
(3 2.38563e-16 0)
(3 9.42591e-16 0)
(3 1.22835e-15 0)
(3 9.85386e-16 0)
(3 9.56653e-16 0)
(3 1.34412e-15 0)
(3 8.87208e-16 0)
(3 3.54137e-16 0)
(3 -3.94222e-16 0)
(3 -3.09423e-16 0)
(3 -1.37497e-16 0)
(3 -6.66366e-16 0)
(3 -6.58277e-16 0)
(3 -1.38042e-15 0)
(3 -2.0789e-15 0)
(3 -2.12881e-15 0)
(3 -1.45879e-15 0)
(3 -2.14435e-15 0)
(3 -2.66768e-15 0)
(3 -3.14452e-15 0)
(3 -2.7012e-15 0)
(3 -2.9328e-15 0)
(3 -2.51346e-15 0)
(3 -2.39717e-15 0)
(3 -2.53371e-15 0)
(3 -3.33324e-15 0)
(3 -3.29388e-15 0)
(3 -2.64908e-15 0)
(3 -1.52601e-15 0)
(3 -2.26676e-15 0)
(3 -2.65039e-15 0)
(3 -1.50352e-15 0)
(3 -1.37484e-15 0)
(3 -2.5505e-15 0)
(3 -3.89784e-15 0)
(3 -4.39655e-15 0)
(3 -4.19021e-15 0)
(3 -2.77764e-15 0)
(3 -2.28665e-15 0)
(3 -1.71861e-15 0)
(3 -2.69105e-15 0)
(3 -3.03187e-15 0)
(3 -2.44697e-15 0)
(3 -1.81431e-15 0)
(3 -2.08599e-15 0)
(3 -2.48579e-15 0)
(3 -1.61104e-15 0)
(3 -1.14474e-15 0)
(3 -2.0108e-15 0)
(3 -9.42849e-16 0)
(3 4.33435e-16 0)
(3 1.87532e-15 0)
(3 2.74742e-15 0)
(3 3.26207e-15 0)
(3 3.24694e-15 0)
(3 3.79461e-15 0)
(3 4.30614e-15 0)
(3 5.76256e-15 0)
(3 6.01978e-15 0)
(3 5.85644e-15 0)
(3 5.01529e-15 0)
(3 4.42882e-15 0)
(3 4.41301e-15 0)
(3 4.24353e-15 0)
(3 2.94404e-15 0)
(3 1.14525e-15 0)
(3 7.69925e-16 0)
(3 1.03394e-15 0)
(3 1.41822e-15 0)
(3 2.20309e-15 0)
(3 3.37801e-15 0)
(3 2.94598e-15 0)
(3 9.88852e-16 0)
(3 1.92082e-15 0)
(3 3.51044e-15 0)
(3 3.51589e-15 0)
(3 3.19751e-15 0)
(3 3.40807e-15 0)
(3 3.46917e-15 0)
(3 1.72767e-15 0)
(3 1.4292e-15 0)
(3 -1.72978e-16 0)
(3 6.15587e-17 0)
(3 5.40326e-17 0)
(3 2.62999e-16 0)
(3 2.01425e-16 0)
(3 -5.97228e-17 0)
(3 -1.20045e-15 0)
(3 -2.11077e-15 0)
(3 -2.74825e-15 0)
(3 -2.31038e-15 0)
(3 -1.29227e-15 0)
(3 -4.58284e-16 0)
(3 -1.57264e-16 0)
(3 1.37469e-16 0)
(3 5.01803e-16 0)
(3 9.218e-16 0)
(3 1.23268e-15 0)
(3 1.51354e-15 0)
(3 1.48901e-15 0)
(3 1.47913e-15 0)
(3 1.53149e-15 0)
(3 8.26398e-16 0)
(3 1.8276e-16 0)
(3 1.12497e-15 0)
(3 1.41243e-15 0)
(3 8.6603e-16 0)
(3 1.06052e-16 0)
(3 -7.62561e-16 0)
(3 -8.76097e-16 0)
(3 -8.95613e-16 0)
(3 -6.40946e-16 0)
(3 -5.33993e-16 0)
(3 -1.21192e-15 0)
(3 -1.27273e-15 0)
(3 -1.40118e-15 0)
(3 -1.83146e-15 0)
(3 -2.01195e-15 0)
(3 -2.1781e-15 0)
(3 -3.05273e-15 0)
(3 -3.5898e-15 0)
(3 -3.82569e-15 0)
(3 -4.01904e-15 0)
(3 -3.82751e-15 0)
(3 -3.68237e-15 0)
(3 -4.42492e-15 0)
(3 -4.21078e-15 0)
(3 -2.93902e-15 0)
(3 -2.19466e-15 0)
(3 -2.37578e-15 0)
(3 -2.70183e-15 0)
(3 -2.76895e-15 0)
(3 -2.17111e-15 0)
(3 -1.32515e-15 0)
(3 -8.6759e-16 0)
(3 -7.54217e-16 0)
(3 -8.45747e-16 0)
(3 -9.38418e-16 0)
(3 -1.16126e-15 0)
(3 -1.31297e-15 0)
(3 -1.66862e-15 0)
(3 -1.92847e-15 0)
(3 -6.90597e-16 0)
(3 2.62204e-15 0)
(3 3.34436e-15 0)
(3 2.61022e-15 0)
(3 1.65666e-15 0)
(3 7.57314e-16 0)
(3 1.09528e-15 0)
(3 8.44271e-16 0)
(3 2.51051e-16 0)
(3 3.42628e-16 0)
(3 9.7847e-16 0)
(3 1.35516e-15 0)
(3 2.50692e-15 0)
(3 3.42978e-15 0)
(3 4.03305e-15 0)
(3 3.21163e-15 0)
(3 1.96151e-15 0)
(3 1.06626e-15 0)
(3 -3.22455e-17 0)
(3 -1.04849e-15 0)
(3 -6.72195e-16 0)
(3 -2.01865e-16 0)
(3 3.26246e-16 0)
(3 3.30048e-16 0)
(3 2.08402e-15 0)
(3 4.84515e-15 0)
(3 5.53978e-15 0)
(3 4.59633e-15 0)
(3 4.64248e-15 0)
(3 4.55902e-15 0)
(3 3.91319e-15 0)
(3 2.41941e-15 0)
(3 1.72358e-15 0)
(3 1.29849e-15 0)
(3 1.2274e-15 0)
(3 -8.9184e-17 0)
(3 -1.88021e-16 0)
(3 4.10261e-16 0)
(3 8.53202e-16 0)
(3 8.93066e-16 0)
(3 6.03157e-16 0)
(3 1.40398e-16 0)
(3 -9.49117e-16 0)
(3 -1.1873e-15 0)
(3 -8.98463e-16 0)
(3 -4.6289e-16 0)
(3 2.81558e-16 0)
(3 6.24664e-16 0)
(3 1.23758e-15 0)
(3 1.29384e-15 0)
(3 1.34834e-15 0)
(3 6.10198e-16 0)
(3 2.8936e-16 0)
(3 -3.9419e-16 0)
(3 -5.19059e-16 0)
(3 -6.3134e-16 0)
(3 -4.22308e-16 0)
(3 1.04338e-16 0)
(3 6.22381e-16 0)
(3 4.83225e-16 0)
(3 6.83342e-16 0)
(3 8.32822e-16 0)
(3 7.63688e-16 0)
(3 2.58838e-16 0)
(3 -1.00446e-15 0)
(3 -1.51123e-15 0)
(3 -1.41173e-15 0)
(3 -1.26021e-15 0)
(3 -9.9953e-16 0)
(3 -1.69653e-16 0)
(3 -1.15893e-16 0)
(3 -6.84425e-16 0)
(3 -1.46278e-15 0)
(3 -2.10175e-15 0)
(3 -2.25159e-15 0)
(3 -1.86453e-15 0)
(3 -1.11087e-15 0)
(3 -1.17274e-15 0)
(3 -2.30649e-15 0)
(3 -3.03485e-15 0)
(3 -3.09262e-15 0)
(3 -2.62915e-15 0)
(3 -1.75763e-15 0)
(3 -3.30465e-16 0)
(3 4.81149e-16 0)
(3 1.0847e-16 0)
(3 -1.15423e-16 0)
(3 -9.30012e-17 0)
(3 4.00466e-16 0)
(3 7.84992e-17 0)
(3 1.62492e-16 0)
(3 4.68396e-16 0)
(3 4.81277e-16 0)
(3 6.08648e-16 0)
(3 2.63225e-16 0)
(3 8.85302e-16 0)
(3 2.99119e-15 0)
(3 4.14413e-15 0)
(3 4.39592e-15 0)
(3 4.32979e-15 0)
(3 2.6028e-15 0)
(3 5.90176e-16 0)
(3 3.0376e-16 0)
(3 1.67275e-16 0)
(3 -1.71108e-15 0)
(3 -2.7861e-15 0)
(3 -2.6665e-15 0)
(3 -1.91657e-15 0)
(3 -1.02397e-15 0)
(3 -1.90625e-16 0)
(3 1.36224e-15 0)
(3 2.35961e-15 0)
(3 2.27879e-15 0)
(3 7.65868e-16 0)
(3 -1.62012e-16 0)
(3 -4.44412e-16 0)
(3 -5.49878e-16 0)
(3 -2.72693e-16 0)
(3 -7.15985e-16 0)
(3 -1.44966e-15 0)
(3 -4.06527e-16 0)
(3 2.25503e-15 0)
(3 3.01809e-15 0)
(3 2.07683e-15 0)
(3 1.37614e-15 0)
(3 5.9739e-16 0)
(3 -2.31547e-16 0)
(3 -3.99449e-16 0)
(3 -3.78683e-16 0)
(3 6.80575e-16 0)
(3 2.85075e-15 0)
(3 -3.38547e-17 0)
(3 -3.85507e-16 0)
(3 -2.15489e-16 0)
(3 -4.00133e-16 0)
(3 -2.47355e-16 0)
(3 -1.63654e-16 0)
(3 6.19337e-17 0)
(3 7.79667e-16 0)
(3 3.10068e-15 0)
(3 3.0718e-15 0)
(3 2.67232e-15 0)
(3 2.12761e-15 0)
(3 1.28189e-15 0)
(3 7.10592e-16 0)
(3 8.26444e-16 0)
(3 2.79094e-16 0)
(3 9.08142e-17 0)
(3 1.41553e-16 0)
(3 5.34026e-17 0)
(3 -2.79821e-16 0)
(3 -7.21598e-16 0)
(3 -3.98528e-16 0)
(3 -4.63035e-16 0)
(3 -3.76987e-16 0)
(3 -2.8718e-17 0)
(3 1.18392e-15 0)
(3 2.15743e-15 0)
(3 1.61076e-15 0)
(3 9.52788e-16 0)
(3 3.54711e-16 0)
(3 -3.31721e-17 0)
(3 -1.04394e-15 0)
(3 -9.91019e-16 0)
(3 -8.52937e-16 0)
(3 1.17164e-15 0)
(3 2.41579e-15 0)
(3 2.06151e-15 0)
(3 9.26875e-16 0)
(3 1.64407e-16 0)
(3 -2.91778e-16 0)
(3 1.39031e-16 0)
(3 1.02316e-16 0)
(3 -5.32082e-16 0)
(3 -1.33277e-15 0)
(3 -1.3158e-15 0)
(3 -1.22648e-15 0)
(3 -1.64215e-15 0)
(3 -1.58432e-15 0)
(3 -7.47542e-16 0)
(3 4.5208e-16 0)
(3 2.30425e-15 0)
(3 2.11515e-15 0)
(3 1.37738e-15 0)
(3 5.65401e-16 0)
(3 3.9199e-16 0)
(3 1.00645e-15 0)
(3 1.6827e-15 0)
(3 2.06636e-15 0)
(3 2.17118e-15 0)
(3 2.56133e-15 0)
(3 3.06028e-15 0)
(3 2.38976e-15 0)
(3 2.2676e-15 0)
(3 3.86615e-15 0)
(3 4.32602e-15 0)
(3 4.02231e-15 0)
(3 3.56039e-15 0)
(3 2.5227e-15 0)
(3 5.13042e-16 0)
(3 -2.42158e-16 0)
(3 -9.9622e-16 0)
(3 -8.09426e-16 0)
(3 1.27333e-15 0)
(3 1.84441e-15 0)
(3 1.71564e-15 0)
(3 1.65167e-15 0)
(3 2.18868e-15 0)
(3 9.65646e-16 0)
(3 6.15449e-16 0)
(3 9.94882e-16 0)
(3 1.03842e-15 0)
(3 1.31841e-15 0)
(3 1.23682e-15 0)
(3 3.77037e-16 0)
(3 -1.59589e-17 0)
(3 -3.06726e-16 0)
(3 1.05008e-17 0)
(3 7.04399e-17 0)
(3 -3.25418e-16 0)
(3 -9.07396e-16 0)
(3 -1.02662e-15 0)
(3 -6.67464e-16 0)
(3 -3.60611e-17 0)
(3 3.81938e-16 0)
(3 8.53892e-16 0)
(3 1.56387e-15 0)
(3 2.94771e-17 0)
(3 2.34841e-16 0)
(3 2.54857e-18 0)
(3 -5.05171e-16 0)
(3 -1.25614e-15 0)
(3 -7.33786e-16 0)
(3 -2.72934e-16 0)
(3 1.04713e-15 0)
(3 1.6174e-15 0)
(3 2.02667e-15 0)
(3 2.12525e-15 0)
(3 1.86881e-15 0)
(3 1.55912e-15 0)
(3 1.31768e-15 0)
(3 1.05048e-15 0)
(3 1.82341e-16 0)
(3 1.89777e-16 0)
(3 4.79668e-16 0)
(3 7.92122e-16 0)
(3 6.62629e-16 0)
(3 -8.44041e-17 0)
(3 -9.44273e-16 0)
(3 -1.39023e-15 0)
(3 -2.08057e-15 0)
(3 -1.30282e-15 0)
(3 4.25879e-17 0)
(3 5.34046e-16 0)
(3 -1.73782e-16 0)
(3 2.96862e-16 0)
(3 1.18074e-15 0)
(3 2.23496e-15 0)
(3 2.17983e-15 0)
(3 1.59723e-15 0)
(3 1.37689e-15 0)
(3 1.4492e-15 0)
(3 1.27827e-15 0)
(3 9.59993e-16 0)
(3 1.42861e-15 0)
(3 1.82831e-15 0)
(3 1.14051e-15 0)
(3 1.31863e-15 0)
(3 1.37204e-15 0)
(3 5.57146e-16 0)
(3 3.20971e-16 0)
(3 -4.21837e-17 0)
(3 -7.27924e-16 0)
(3 -1.84169e-15 0)
(3 -2.04172e-15 0)
(3 -1.7218e-15 0)
(3 -1.00527e-15 0)
(3 1.94551e-16 0)
(3 1.42943e-15 0)
(3 1.58142e-15 0)
(3 1.29229e-15 0)
(3 1.93832e-15 0)