2.91517 	0.200001 	0.0458283 	2.27978 	0.0156945 	0
2.93253 	0.200001 	0.0364496 	2.29626 	0.0164864 	0
2.95181 	0.200001 	0.0260354 	2.31297 	0.0169969 	0
2.97109 	0.200001 	0.0156212 	2.33 	0.0161525 	0
