2.91517 	0.200001 	0.0458283 	3.87945
2.93253 	0.200001 	0.0364496 	3.83833
2.95181 	0.200001 	0.0260354 	3.80349
2.97109 	0.200001 	0.0156212 	3.78175
