/*--------------------------------*- C++ -*----------------------------------*\
  =========                 |
  \\      /  F ield         | OpenFOAM: The Open Source CFD Toolbox
   \\    /   O peration     | Website:  https://openfoam.org
    \\  /    A nd           | Version:  7
     \\/     M anipulation  |
\*---------------------------------------------------------------------------*/
FoamFile
{
    version     2.0;
    format      ascii;
    class       volVectorField;
    location    "0.5";
    object      U;
}
// * * * * * * * * * * * * * * * * * * * * * * * * * * * * * * * * * * * * * //

dimensions      [0 1 -1 0 0 0 0];

internalField   nonuniform List<vector> 
73728
(
(3 -6.2836e-18 0)
(3 1.32588e-16 0)
(3 3.38788e-16 0)
(3 9.45881e-17 0)
(3 -2.63951e-16 0)
(3 -6.50722e-16 0)
(3 -4.4724e-16 0)
(3 -6.44912e-17 0)
(3 -1.00552e-16 0)
(3 -1.28698e-16 0)
(3 4.0456e-16 0)
(3 8.51299e-16 0)
(3 3.5527e-16 0)
(3 -4.9212e-16 0)
(3 -7.50006e-16 0)
(3 -4.44139e-16 0)
(3 -2.2557e-16 0)
(3 3.21379e-16 0)
(3 7.70767e-16 0)
(3 1.07993e-15 0)
(3 8.29668e-16 0)
(3 4.5379e-16 0)
(3 1.91594e-16 0)
(3 3.04862e-16 0)
(3 3.9698e-17 0)
(3 -6.60244e-16 0)
(3 -1.39789e-15 0)
(3 -1.58704e-15 0)
(3 -1.22664e-15 0)
(3 -1.13648e-15 0)
(3 -3.21305e-16 0)
(3 -1.45838e-16 0)
(3 7.26216e-17 0)
(3 -9.07198e-17 0)
(3 -3.58892e-16 0)
(3 -1.04569e-15 0)
(3 -1.69455e-15 0)
(3 -2.57562e-15 0)
(3 -1.14607e-15 0)
(3 -5.89384e-16 0)
(3 -6.02975e-16 0)
(3 -1.32366e-15 0)
(3 -9.18166e-16 0)
(3 7.71115e-16 0)
(3 1.43908e-15 0)
(3 8.03163e-16 0)
(3 1.53426e-15 0)
(3 1.32331e-15 0)
(3 1.16346e-15 0)
(3 9.34036e-16 0)
(3 1.06418e-15 0)
(3 7.03145e-16 0)
(3 9.4361e-16 0)
(3 9.2684e-16 0)
(3 6.98337e-16 0)
(3 1.06746e-15 0)
(3 1.46453e-15 0)
(3 1.75348e-15 0)
(3 1.75539e-15 0)
(3 1.43099e-15 0)
(3 1.55273e-15 0)
(3 1.92554e-15 0)
(3 2.47228e-15 0)
(3 1.14919e-15 0)
(3 7.21164e-16 0)
(3 2.75858e-16 0)
(3 -9.75694e-16 0)
(3 -1.99519e-15 0)
(3 -1.50878e-15 0)
(3 -1.84322e-15 0)
(3 -3.04368e-15 0)
(3 -2.90783e-15 0)
(3 -2.4675e-15 0)
(3 -6.40639e-16 0)
(3 3.5511e-16 0)
(3 8.68648e-16 0)
(3 1.25521e-15 0)
(3 2.39371e-15 0)
(3 2.46327e-15 0)
(3 2.22965e-15 0)
(3 2.36277e-15 0)
(3 2.23382e-15 0)
(3 1.26608e-15 0)
(3 6.79256e-16 0)
(3 1.87222e-16 0)
(3 3.96921e-16 0)
(3 6.58383e-16 0)
(3 1.23275e-15 0)
(3 1.54962e-15 0)
(3 -6.64573e-16 0)
(3 -1.4392e-15 0)
(3 -1.90732e-15 0)
(3 -1.67335e-15 0)
(3 -1.86649e-15 0)
(3 -1.65277e-15 0)
(3 -1.3607e-15 0)
(3 5.50033e-17 0)
(3 3.21939e-16 0)
(3 3.38341e-16 0)
(3 -3.35869e-17 0)
(3 -3.65766e-16 0)
(3 -8.32815e-16 0)
(3 -4.0196e-16 0)
(3 3.64732e-16 0)
(3 5.77276e-16 0)
(3 6.84001e-16 0)
(3 7.13966e-16 0)
(3 1.08905e-15 0)
(3 9.53614e-16 0)
(3 -9.21779e-16 0)
(3 -1.30132e-15 0)
(3 -1.40478e-15 0)
(3 -1.09254e-15 0)
(3 -5.45995e-16 0)
(3 1.60978e-16 0)
(3 5.74241e-17 0)
(3 -4.88509e-16 0)
(3 -9.75887e-16 0)
(3 -8.82421e-16 0)
(3 -5.60793e-16 0)
(3 -8.09734e-16 0)
(3 -1.14366e-15 0)
(3 -1.099e-15 0)
(3 -7.42283e-16 0)
(3 1.50071e-16 0)
(3 -2.73476e-16 0)
(3 -7.55961e-16 0)
(3 -5.23782e-16 0)
(3 -4.18419e-16 0)
(3 -8.87544e-16 0)
(3 -3.02871e-16 0)
(3 5.34162e-16 0)
(3 6.08303e-16 0)
(3 -1.20134e-16 0)
(3 -3.25164e-17 0)
(3 2.26081e-16 0)
(3 -1.80135e-15 0)
(3 -2.68157e-15 0)
(3 -1.75819e-15 0)
(3 1.28581e-15 0)
(3 3.40419e-15 0)
(3 3.58078e-15 0)
(3 3.07888e-15 0)
(3 1.61002e-15 0)
(3 8.94833e-16 0)
(3 9.12902e-16 0)
(3 1.26632e-15 0)
(3 5.48961e-16 0)
(3 4.74034e-16 0)
(3 -1.58527e-17 0)
(3 -1.87893e-16 0)
(3 -2.75e-16 0)
(3 -6.86721e-17 0)
(3 1.146e-15 0)
(3 2.25788e-15 0)
(3 2.18407e-15 0)
(3 7.47872e-16 0)
(3 -1.50158e-16 0)
(3 3.04345e-16 0)
(3 -4.1755e-16 0)
(3 -1.46846e-15 0)
(3 -2.60454e-15 0)
(3 -4.5685e-15 0)
(3 -4.92274e-15 0)
(3 -3.69308e-15 0)
(3 -2.38358e-15 0)
(3 -1.68507e-15 0)
(3 -1.29614e-15 0)
(3 -2.73461e-16 0)
(3 2.89122e-15 0)
(3 3.48073e-15 0)
(3 3.32854e-15 0)
(3 2.95699e-15 0)
(3 1.95641e-15 0)
(3 1.30075e-15 0)
(3 1.09266e-15 0)
(3 1.45014e-15 0)
(3 1.78566e-15 0)
(3 8.1837e-16 0)
(3 1.29741e-16 0)
(3 -7.0775e-17 0)
(3 1.12608e-17 0)
(3 2.4535e-16 0)
(3 2.43038e-16 0)
(3 2.69982e-16 0)
(3 -1.56113e-15 0)
(3 -3.82215e-15 0)
(3 -3.52987e-15 0)
(3 -2.82107e-15 0)
(3 -3.3773e-15 0)
(3 -2.99757e-15 0)
(3 -2.59461e-15 0)
(3 1.01896e-17 0)
(3 -9.18221e-17 0)
(3 -3.47294e-16 0)
(3 -6.27177e-16 0)
(3 -5.67385e-16 0)
(3 -1.26114e-16 0)
(3 1.65133e-16 0)
(3 1.54543e-16 0)
(3 5.20503e-16 0)
(3 6.08263e-16 0)
(3 3.48556e-16 0)
(3 2.18691e-16 0)
(3 7.63671e-16 0)
(3 3.17064e-16 0)
(3 5.83139e-17 0)
(3 7.23891e-17 0)
(3 -5.70387e-17 0)
(3 -1.32117e-16 0)
(3 -3.32961e-16 0)
(3 -6.83404e-16 0)
(3 -8.36028e-16 0)
(3 -7.60891e-16 0)
(3 -1.01648e-15 0)
(3 -1.3936e-15 0)
(3 -1.6762e-15 0)
(3 -1.3839e-15 0)
(3 -3.05794e-16 0)
(3 1.7264e-16 0)
(3 -2.62229e-16 0)
(3 -2.5475e-17 0)
(3 3.7771e-16 0)
(3 5.15076e-16 0)
(3 -2.35699e-16 0)
(3 -8.60551e-16 0)
(3 -5.35195e-16 0)
(3 2.557e-16 0)
(3 1.02458e-15 0)
(3 1.51637e-15 0)
(3 1.32023e-15 0)
(3 9.75598e-16 0)
(3 4.61289e-16 0)
(3 1.37045e-15 0)
(3 1.57479e-15 0)
(3 1.53628e-15 0)
(3 4.58853e-15 0)
(3 5.36004e-15 0)
(3 4.98454e-15 0)
(3 3.78979e-15 0)
(3 3.10413e-15 0)
(3 2.48498e-15 0)
(3 1.88876e-15 0)
(3 1.13699e-15 0)
(3 6.19519e-16 0)
(3 8.10858e-16 0)
(3 5.37772e-16 0)
(3 4.42128e-16 0)
(3 5.65045e-16 0)
(3 1.25914e-15 0)
(3 1.44202e-15 0)
(3 -3.37943e-16 0)
(3 -1.8348e-15 0)
(3 -1.76863e-15 0)
(3 -1.42582e-15 0)
(3 -1.22243e-15 0)
(3 -8.84829e-16 0)
(3 -1.94232e-15 0)
(3 -3.8615e-15 0)
(3 -4.80353e-15 0)
(3 -5.11679e-15 0)
(3 -3.13245e-15 0)
(3 -2.29323e-15 0)
(3 -1.37087e-15 0)
(3 -1.78131e-16 0)
(3 8.43441e-16 0)
(3 2.27701e-15 0)
(3 1.72336e-15 0)
(3 7.83633e-16 0)
(3 -6.92783e-16 0)
(3 -2.26634e-15 0)
(3 -2.32321e-15 0)
(3 -2.13094e-15 0)
(3 -2.07404e-15 0)
(3 -1.70375e-15 0)
(3 -2.57499e-15 0)
(3 -2.36614e-15 0)
(3 -1.23578e-15 0)
(3 -6.92469e-16 0)
(3 -1.12098e-15 0)
(3 -1.87998e-15 0)
(3 -2.36642e-15 0)
(3 -2.50287e-15 0)
(3 -2.40123e-15 0)
(3 -2.73931e-15 0)
(3 -3.45543e-15 0)
(3 -3.18874e-15 0)
(3 -3.68219e-16 0)
(3 -3.31946e-17 0)
(3 -1.72268e-16 0)
(3 -6.07575e-16 0)
(3 -6.58999e-16 0)
(3 -6.31886e-16 0)
(3 -1.47343e-16 0)
(3 2.07347e-16 0)
(3 -2.78188e-17 0)
(3 -4.81067e-16 0)
(3 -8.78712e-16 0)
(3 -1.10784e-15 0)
(3 -1.10003e-15 0)
(3 -7.47694e-16 0)
(3 -4.43741e-16 0)
(3 -3.25218e-17 0)
(3 3.47273e-16 0)
(3 5.04986e-16 0)
(3 4.7649e-16 0)
(3 -4.6965e-16 0)
(3 -1.02164e-15 0)
(3 -1.67435e-15 0)
(3 -2.37075e-15 0)
(3 -1.60008e-15 0)
(3 -7.85086e-16 0)
(3 -2.58389e-16 0)
(3 7.85195e-17 0)
(3 1.41961e-15 0)
(3 2.06948e-15 0)
(3 2.59738e-15 0)
(3 3.60486e-15 0)
(3 4.17411e-15 0)
(3 2.59696e-15 0)
(3 1.1415e-15 0)
(3 1.89272e-16 0)
(3 -1.65257e-16 0)
(3 4.61376e-16 0)
(3 1.89929e-15 0)
(3 2.14308e-15 0)
(3 1.79843e-15 0)
(3 1.73005e-15 0)
(3 2.1403e-15 0)
(3 2.03087e-15 0)
(3 1.90183e-15 0)
(3 1.79224e-15 0)
(3 2.60894e-15 0)
(3 3.06941e-15 0)
(3 3.99069e-15 0)
(3 4.39088e-15 0)
(3 4.48623e-15 0)
(3 3.65895e-15 0)
(3 9.15924e-16 0)
(3 6.79609e-16 0)
(3 1.37064e-15 0)
(3 1.64922e-15 0)
(3 1.82201e-15 0)
(3 2.28041e-15 0)
(3 1.91467e-15 0)
(3 1.40879e-15 0)
(3 4.42477e-16 0)
(3 -2.02015e-15 0)
(3 -3.22484e-15 0)
(3 -2.76002e-15 0)
(3 -2.6079e-15 0)
(3 -2.75704e-15 0)
(3 -2.90895e-15 0)
(3 -4.14548e-15 0)
(3 -4.41248e-15 0)
(3 -4.45368e-15 0)
(3 -5.13662e-15 0)
(3 -4.27426e-15 0)
(3 -4.49111e-15 0)
(3 -4.23926e-15 0)
(3 -3.65388e-15 0)
(3 -3.58213e-15 0)
(3 -2.23998e-15 0)
(3 -1.803e-15 0)
(3 -1.32831e-15 0)
(3 -8.73881e-16 0)
(3 -1.16875e-15 0)
(3 -2.00803e-15 0)
(3 -3.93714e-15 0)
(3 -3.89879e-15 0)
(3 -1.76572e-15 0)
(3 -8.52016e-16 0)
(3 -3.30193e-16 0)
(3 -4.05736e-16 0)
(3 -4.05214e-16 0)
(3 -4.1079e-17 0)
(3 -1.07149e-15 0)
(3 -2.66985e-15 0)
(3 -3.34575e-15 0)
(3 -4.54335e-15 0)
(3 -4.0141e-15 0)
(3 -3.69687e-15 0)
(3 -2.39958e-15 0)
(3 -1.51724e-15 0)
(3 -1.9385e-16 0)
(3 -1.1863e-16 0)
(3 -1.07479e-16 0)
(3 -2.64114e-16 0)
(3 3.00762e-17 0)
(3 -2.30504e-16 0)
(3 -2.89194e-16 0)
(3 -4.13334e-16 0)
(3 -1.44117e-15 0)
(3 -1.70832e-15 0)
(3 -2.22832e-15 0)
(3 -1.86372e-15 0)
(3 -1.74429e-15 0)
(3 6.2537e-17 0)
(3 6.24557e-16 0)
(3 9.67036e-16 0)
(3 9.66379e-16 0)
(3 4.49793e-17 0)
(3 -1.05565e-15 0)
(3 -1.35922e-15 0)
(3 -2.26031e-15 0)
(3 -2.67015e-15 0)
(3 -1.44359e-15 0)
(3 -1.62991e-15 0)
(3 3.68181e-16 0)
(3 1.38608e-15 0)
(3 9.24938e-16 0)
(3 1.13288e-15 0)
(3 3.03213e-15 0)
(3 2.94901e-15 0)
(3 2.32049e-15 0)
(3 8.65107e-16 0)
(3 5.68934e-16 0)
(3 2.59823e-16 0)
(3 7.17972e-17 0)
(3 3.81786e-16 0)
(3 9.22896e-16 0)
(3 1.48311e-15 0)
(3 -3.21008e-16 0)
(3 -8.59953e-16 0)
(3 1.53318e-16 0)
(3 1.05317e-15 0)
(3 1.03769e-15 0)
(3 -1.92211e-16 0)
(3 -1.00638e-15 0)
(3 -1.46859e-15 0)
(3 -2.51913e-16 0)
(3 6.25128e-16 0)
(3 1.21086e-15 0)
(3 1.32592e-15 0)
(3 1.04671e-15 0)
(3 7.80193e-16 0)
(3 6.63258e-16 0)
(3 6.70039e-16 0)
(3 1.13857e-15 0)
(3 1.22382e-15 0)
(3 1.2887e-15 0)
(3 7.03486e-16 0)
(3 7.19574e-17 0)
(3 -4.08892e-16 0)
(3 -8.87304e-16 0)
(3 -9.55392e-16 0)
(3 -1.04997e-15 0)
(3 -1.97166e-15 0)
(3 -4.22704e-15 0)
(3 -5.97106e-15 0)
(3 -5.69728e-15 0)
(3 -3.96494e-15 0)
(3 -3.51895e-15 0)
(3 -3.64772e-15 0)
(3 -3.27972e-15 0)
(3 -3.60238e-15 0)
(3 -4.24912e-15 0)
(3 -5.4401e-15 0)
(3 -4.37797e-15 0)
(3 -1.15667e-15 0)
(3 -1.53838e-16 0)
(3 -2.0738e-16 0)
(3 -6.77492e-16 0)
(3 -1.75738e-15 0)
(3 -3.11944e-15 0)
(3 -2.8904e-15 0)
(3 -2.07149e-15 0)
(3 -6.77858e-16 0)
(3 -3.4555e-16 0)
(3 -1.89903e-16 0)
(3 -6.324e-16 0)
(3 -1.63464e-15 0)
(3 -1.99041e-15 0)
(3 -2.50376e-15 0)
(3 -3.55579e-15 0)
(3 -4.11736e-15 0)
(3 -4.49713e-15 0)
(3 -3.48728e-15 0)
(3 -1.33842e-15 0)
(3 -2.94798e-16 0)
(3 -8.06275e-17 0)
(3 1.23002e-16 0)
(3 5.94451e-16 0)
(3 2.75327e-16 0)
(3 1.85392e-16 0)
(3 2.9725e-17 0)
(3 -8.39182e-16 0)
(3 -9.79185e-16 0)
(3 -9.4199e-16 0)
(3 -6.13524e-16 0)
(3 -6.27499e-16 0)
(3 -4.63159e-16 0)
(3 -6.0283e-16 0)
(3 -4.57581e-17 0)
(3 1.29252e-15 0)
(3 1.37034e-15 0)
(3 6.85088e-16 0)
(3 1.84131e-16 0)
(3 8.17676e-17 0)
(3 6.55514e-17 0)
(3 2.78582e-16 0)
(3 1.17514e-16 0)
(3 -3.15766e-16 0)
(3 -5.49987e-16 0)
(3 3.77253e-16 0)
(3 8.71301e-16 0)
(3 9.63617e-16 0)
(3 1.56866e-15 0)
(3 1.38545e-15 0)
(3 9.49537e-16 0)
(3 1.63326e-17 0)
(3 -2.27754e-16 0)
(3 -1.07958e-16 0)
(3 1.25914e-15 0)
(3 3.35748e-15 0)
(3 3.526e-15 0)
(3 2.74375e-15 0)
(3 7.42097e-16 0)
(3 -1.8751e-15 0)
(3 -1.38323e-15 0)
(3 -3.22157e-16 0)
(3 1.24423e-15 0)
(3 1.42349e-15 0)
(3 6.75351e-16 0)
(3 -7.60383e-16 0)
(3 -2.96344e-15 0)
(3 -2.45006e-15 0)
(3 -1.20092e-15 0)
(3 -1.15881e-15 0)
(3 -1.23591e-15 0)
(3 -9.06165e-16 0)
(3 -8.95008e-16 0)
(3 6.30276e-17 0)
(3 3.02339e-16 0)
(3 8.48571e-16 0)
(3 8.27079e-16 0)
(3 7.70158e-16 0)
(3 5.68089e-16 0)
(3 2.99812e-16 0)
(3 -5.69946e-16 0)
(3 -6.13827e-16 0)
(3 -5.52911e-16 0)
(3 -6.90517e-16 0)
(3 -8.33632e-16 0)
(3 -1.30417e-15 0)
(3 -1.01016e-15 0)
(3 -2.31233e-16 0)
(3 4.85423e-17 0)
(3 -2.45308e-16 0)
(3 -9.56936e-16 0)
(3 -1.7482e-15 0)
(3 -3.56767e-15 0)
(3 -4.61166e-15 0)
(3 -5.15216e-15 0)
(3 -3.31236e-15 0)
(3 -1.5166e-15 0)
(3 -7.63359e-16 0)
(3 -1.20871e-15 0)
(3 -1.71179e-15 0)
(3 -3.47303e-15 0)
(3 -3.6836e-15 0)
(3 -4.37122e-15 0)
(3 -5.05033e-15 0)
(3 -3.68337e-15 0)
(3 -2.57423e-15 0)
(3 -2.54509e-15 0)
(3 -2.23896e-15 0)
(3 -2.16113e-15 0)
(3 -2.40238e-15 0)
(3 -5.54749e-16 0)
(3 1.46726e-16 0)
(3 -1.54013e-16 0)
(3 2.02225e-16 0)
(3 2.40739e-16 0)
(3 2.89782e-16 0)
(3 8.10201e-16 0)
(3 4.46485e-16 0)
(3 6.71233e-16 0)
(3 -5.16695e-17 0)
(3 1.3181e-16 0)
(3 -3.95141e-16 0)
(3 -4.76047e-16 0)
(3 -5.52296e-16 0)
(3 -6.40682e-16 0)
(3 -3.61725e-16 0)
(3 -1.42346e-16 0)
(3 2.57094e-16 0)
(3 3.89392e-16 0)
(3 -6.74565e-16 0)
(3 -1.2962e-15 0)
(3 -1.56713e-15 0)
(3 -1.14541e-15 0)
(3 -9.05519e-16 0)
(3 -1.32211e-16 0)
(3 -7.91101e-17 0)
(3 -6.32464e-17 0)
(3 5.56873e-16 0)
(3 1.00953e-15 0)
(3 5.81293e-16 0)
(3 4.84946e-16 0)
(3 3.35064e-16 0)
(3 2.3477e-16 0)
(3 1.02426e-15 0)
(3 1.80702e-15 0)
(3 1.26014e-15 0)
(3 6.08322e-16 0)
(3 -8.41594e-16 0)
(3 -3.91837e-16 0)
(3 1.65979e-15 0)
(3 4.31338e-15 0)
(3 4.87689e-15 0)
(3 5.18844e-15 0)
(3 2.61123e-15 0)
(3 -4.49839e-16 0)
(3 -1.05617e-15 0)
(3 -1.00137e-15 0)
(3 -9.15975e-16 0)
(3 -1.09225e-15 0)
(3 -9.41343e-16 0)
(3 -6.9508e-16 0)
(3 -9.38218e-16 0)
(3 -1.90127e-15 0)
(3 -3.03198e-15 0)
(3 -2.64987e-15 0)
(3 -1.96953e-15 0)
(3 -1.94047e-15 0)
(3 -1.29789e-15 0)
(3 -4.29475e-16 0)
(3 -1.91689e-16 0)
(3 2.83318e-17 0)
(3 3.34552e-16 0)
(3 5.22205e-16 0)
(3 5.85615e-16 0)
(3 3.02322e-16 0)
(3 -1.91705e-17 0)
(3 -3.26659e-16 0)
(3 -9.96784e-16 0)
(3 -1.81966e-15 0)
(3 -2.05027e-15 0)
(3 -1.05079e-15 0)
(3 -6.02093e-16 0)
(3 4.09695e-16 0)
(3 1.1345e-15 0)
(3 1.74276e-15 0)
(3 2.39825e-15 0)
(3 5.12436e-16 0)
(3 -4.34063e-16 0)
(3 -2.77055e-15 0)
(3 -3.6386e-15 0)
(3 -3.66051e-15 0)
(3 -2.67799e-15 0)
(3 -1.64368e-15 0)
(3 -2.66084e-15 0)
(3 -3.49253e-15 0)
(3 -3.7204e-15 0)
(3 -3.38022e-15 0)
(3 -3.29076e-15 0)
(3 -3.73669e-15 0)
(3 -4.47014e-15 0)
(3 -3.55778e-15 0)
(3 -3.03547e-15 0)
(3 -3.4513e-15 0)
(3 -2.62626e-15 0)
(3 -1.55114e-15 0)
(3 -1.24102e-15 0)
(3 2.37943e-17 0)
(3 2.9707e-16 0)
(3 7.03323e-16 0)
(3 1.51476e-15 0)
(3 1.25681e-15 0)
(3 6.4361e-16 0)
(3 9.44765e-17 0)
(3 2.16738e-16 0)
(3 -4.67944e-16 0)
(3 -9.23452e-16 0)
(3 -2.47017e-16 0)
(3 -2.40091e-16 0)
(3 -3.22531e-16 0)
(3 1.74091e-16 0)
(3 2.4237e-16 0)
(3 3.01524e-16 0)
(3 -5.02646e-17 0)
(3 -9.10424e-17 0)
(3 -7.19157e-17 0)
(3 -2.74301e-16 0)
(3 -5.2565e-16 0)
(3 -1.1012e-15 0)
(3 -1.61113e-15 0)
(3 -1.44632e-15 0)
(3 -7.58732e-16 0)
(3 -9.88068e-16 0)
(3 -7.30069e-16 0)
(3 1.22609e-16 0)
(3 5.1075e-16 0)
(3 1.07122e-17 0)
(3 -4.90609e-17 0)
(3 -1.45925e-16 0)
(3 -9.05929e-16 0)
(3 -6.50324e-16 0)
(3 -1.46081e-15 0)
(3 -1.83298e-15 0)
(3 -2.26146e-15 0)
(3 -2.57184e-15 0)
(3 -1.70674e-15 0)
(3 2.02449e-15 0)
(3 3.66211e-15 0)
(3 2.87269e-15 0)
(3 1.26489e-15 0)
(3 -1.71612e-15 0)
(3 -2.84566e-15 0)
(3 -2.98253e-15 0)
(3 -3.13581e-15 0)
(3 -3.42809e-15 0)
(3 -3.36363e-15 0)
(3 -3.01999e-15 0)
(3 -1.672e-15 0)
(3 -2.10178e-15 0)
(3 -2.51897e-15 0)
(3 -3.51854e-15 0)
(3 -4.26888e-15 0)
(3 -2.44329e-15 0)
(3 -1.90038e-15 0)
(3 -9.35392e-16 0)
(3 -2.38592e-16 0)
(3 3.38128e-17 0)
(3 6.12455e-16 0)
(3 6.33083e-16 0)
(3 3.37972e-16 0)
(3 7.91995e-18 0)
(3 -5.55471e-16 0)
(3 -1.21087e-15 0)
(3 -1.49721e-15 0)
(3 -1.20075e-15 0)
(3 -1.27662e-15 0)
(3 -1.27248e-15 0)
(3 1.8837e-16 0)
(3 5.6952e-16 0)
(3 1.52367e-15 0)
(3 2.02561e-15 0)
(3 2.28725e-15 0)
(3 1.29117e-15 0)
(3 7.38646e-16 0)
(3 1.64749e-15 0)
(3 1.5211e-15 0)
(3 1.10719e-15 0)
(3 2.11639e-16 0)
(3 -1.40654e-15 0)
(3 -9.78651e-16 0)
(3 -1.92938e-15 0)
(3 -3.9295e-15 0)
(3 -4.41541e-15 0)
(3 -3.35011e-15 0)
(3 -1.30495e-15 0)
(3 -8.65278e-16 0)
(3 -2.6752e-16 0)
(3 -7.68098e-16 0)
(3 -1.1571e-15 0)
(3 -1.49721e-15 0)
(3 -1.94971e-15 0)
(3 -1.97972e-15 0)
(3 -1.69406e-15 0)
(3 -1.72584e-15 0)
(3 -1.98128e-15 0)
(3 -8.7266e-16 0)
(3 6.6809e-16 0)
(3 1.40011e-15 0)
(3 1.33938e-15 0)
(3 3.66108e-17 0)
(3 -2.49782e-16 0)
(3 -8.53004e-16 0)
(3 -3.19011e-16 0)
(3 2.28308e-16 0)
(3 5.74443e-16 0)
(3 5.1765e-16 0)
(3 4.34859e-16 0)
(3 9.25847e-17 0)
(3 -1.06049e-16 0)
(3 -1.82971e-16 0)
(3 -3.51154e-16 0)
(3 1.61226e-16 0)
(3 7.09461e-16 0)
(3 5.90307e-16 0)
(3 2.77544e-16 0)
(3 -4.36563e-16 0)
(3 -8.90613e-16 0)
(3 -1.17993e-15 0)
(3 -8.10141e-16 0)
(3 -6.14305e-16 0)
(3 1.33615e-16 0)
(3 5.57184e-16 0)
(3 2.38875e-16 0)
(3 1.06625e-16 0)
(3 -6.86723e-16 0)
(3 -3.06219e-15 0)
(3 -3.60691e-15 0)
(3 -3.92637e-15 0)
(3 -4.04923e-15 0)
(3 -4.4327e-15 0)
(3 -4.45653e-15 0)
(3 -1.9056e-15 0)
(3 2.97786e-16 0)
(3 1.38843e-15 0)
(3 1.29786e-15 0)
(3 4.84842e-16 0)
(3 -4.46745e-16 0)
(3 -2.85071e-16 0)
(3 -4.15103e-16 0)
(3 -1.85394e-15 0)
(3 -3.3074e-15 0)
(3 -3.05752e-15 0)
(3 -2.53263e-15 0)
(3 -2.36438e-15 0)
(3 -3.09683e-15 0)
(3 -3.50005e-15 0)
(3 -2.93998e-15 0)
(3 -3.44961e-15 0)
(3 -4.38794e-15 0)
(3 -1.0495e-15 0)
(3 -3.75293e-16 0)
(3 -4.39434e-16 0)
(3 -1.14609e-16 0)
(3 1.24696e-15 0)
(3 1.60408e-15 0)
(3 1.18307e-15 0)
(3 -1.0762e-15 0)
(3 -2.81391e-15 0)
(3 -3.16359e-15 0)
(3 -3.03656e-15 0)
(3 -2.05682e-15 0)
(3 -3.78046e-16 0)
(3 5.18926e-16 0)
(3 1.26325e-15 0)
(3 2.27948e-15 0)
(3 2.90129e-15 0)
(3 5.55383e-16 0)
(3 -1.07746e-15 0)
(3 -8.39514e-16 0)
(3 7.60474e-16 0)
(3 2.86098e-15 0)
(3 3.27692e-15 0)
(3 3.2624e-15 0)
(3 2.66932e-15 0)
(3 -3.48816e-16 0)
(3 -1.99388e-15 0)
(3 -2.39745e-15 0)
(3 -1.89633e-15 0)
(3 -1.93686e-15 0)
(3 -1.04796e-15 0)
(3 1.55492e-15 0)
(3 2.17468e-15 0)
(3 3.25053e-15 0)
(3 3.26359e-15 0)
(3 1.76425e-15 0)
(3 -1.01706e-16 0)
(3 -3.58533e-16 0)
(3 3.46336e-16 0)
(3 2.53961e-16 0)
(3 -1.92202e-16 0)
(3 -6.76702e-16 0)
(3 -6.7703e-16 0)
(3 1.21067e-16 0)
(3 7.11293e-16 0)
(3 6.7638e-16 0)
(3 -1.9805e-16 0)
(3 2.96785e-17 0)
(3 4.91075e-17 0)
(3 1.44486e-16 0)
(3 2.41966e-16 0)
(3 3.78055e-16 0)
(3 7.80532e-16 0)
(3 6.15237e-16 0)
(3 -1.62738e-16 0)
(3 -8.04761e-16 0)
(3 -5.82604e-16 0)
(3 1.66272e-17 0)
(3 9.06733e-16 0)
(3 1.28712e-15 0)
(3 3.60663e-16 0)
(3 -8.64896e-16 0)
(3 -1.33697e-15 0)
(3 -1.51979e-15 0)
(3 -1.58181e-15 0)
(3 -1.21548e-15 0)
(3 -8.03347e-16 0)
(3 -4.38703e-16 0)
(3 4.96181e-16 0)
(3 7.22636e-16 0)
(3 4.35928e-17 0)
(3 -1.54154e-15 0)
(3 -2.78911e-15 0)
(3 -5.05723e-15 0)
(3 -5.27742e-15 0)
(3 -5.11184e-15 0)
(3 -4.41425e-15 0)
(3 -3.63065e-15 0)
(3 -3.2931e-15 0)
(3 -1.68921e-15 0)
(3 -8.56685e-16 0)
(3 -1.51076e-15 0)
(3 -1.90222e-15 0)
(3 -1.5372e-15 0)
(3 -1.88253e-15 0)
(3 -2.05363e-15 0)
(3 -2.08997e-15 0)
(3 -1.25431e-15 0)
(3 -1.75861e-15 0)
(3 -1.97869e-15 0)
(3 -1.74632e-15 0)
(3 -2.34587e-15 0)
(3 -2.38725e-15 0)
(3 -1.3193e-15 0)
(3 -2.57003e-15 0)
(3 -4.04152e-15 0)
(3 -2.48013e-15 0)
(3 -1.24209e-15 0)
(3 -8.32327e-16 0)
(3 -1.16407e-15 0)
(3 -6.78005e-17 0)
(3 8.96538e-16 0)
(3 4.08777e-16 0)
(3 -5.78442e-16 0)
(3 -2.94776e-15 0)
(3 -3.62404e-15 0)
(3 -2.13424e-15 0)
(3 1.9287e-16 0)
(3 2.4956e-15 0)
(3 2.9725e-15 0)
(3 1.46969e-15 0)
(3 8.96696e-16 0)
(3 1.30886e-15 0)
(3 4.52583e-16 0)
(3 -1.026e-15 0)
(3 -1.9055e-16 0)
(3 4.77427e-16 0)
(3 1.21876e-15 0)
(3 1.52717e-15 0)
(3 9.90544e-16 0)
(3 4.67963e-16 0)
(3 1.20861e-15 0)
(3 4.8853e-16 0)
(3 8.66424e-17 0)
(3 1.00781e-15 0)
(3 1.37194e-15 0)
(3 2.92399e-15 0)
(3 3.48333e-15 0)
(3 3.71235e-15 0)
(3 5.42794e-15 0)
(3 4.76024e-15 0)
(3 1.75407e-15 0)
(3 5.27801e-16 0)
(3 3.65171e-16 0)
(3 7.87574e-16 0)
(3 1.36686e-15 0)
(3 4.28657e-16 0)
(3 4.87043e-16 0)
(3 4.4587e-16 0)
(3 5.10244e-16 0)
(3 9.27089e-16 0)
(3 7.02887e-16 0)
(3 -3.2976e-16 0)
(3 8.00936e-17 0)
(3 3.17208e-16 0)
(3 4.44187e-16 0)
(3 4.01927e-16 0)
(3 9.71543e-16 0)
(3 1.08593e-15 0)
(3 1.51827e-15 0)
(3 1.70009e-15 0)
(3 1.38116e-15 0)
(3 8.84825e-16 0)
(3 1.21203e-16 0)
(3 -3.51743e-16 0)
(3 -1.38114e-15 0)
(3 -1.35556e-15 0)
(3 -1.72087e-15 0)
(3 -2.06676e-15 0)
(3 -2.5138e-15 0)
(3 -3.06258e-15 0)
(3 -3.09374e-15 0)
(3 -2.70818e-15 0)
(3 -1.95712e-15 0)
(3 -1.3437e-15 0)
(3 -1.33984e-15 0)
(3 -1.79447e-15 0)
(3 -1.41572e-15 0)
(3 -1.34365e-15 0)
(3 -1.46189e-15 0)
(3 -1.68832e-15 0)
(3 -1.45638e-15 0)
(3 -9.16685e-16 0)
(3 -2.98456e-16 0)
(3 4.57013e-16 0)
(3 -1.62379e-16 0)
(3 -2.97187e-15 0)
(3 -4.34176e-15 0)
(3 -4.82554e-15 0)
(3 -2.02793e-15 0)
(3 -1.54661e-15 0)
(3 -9.37546e-16 0)
(3 -4.06265e-16 0)
(3 -5.87301e-16 0)
(3 -7.84526e-16 0)
(3 -1.27496e-15 0)
(3 3.49125e-16 0)
(3 1.68085e-15 0)
(3 1.79528e-15 0)
(3 3.44741e-16 0)
(3 -2.43708e-15 0)
(3 -2.70101e-15 0)
(3 -2.61409e-15 0)
(3 -2.2609e-15 0)
(3 -1.79151e-15 0)
(3 -1.79611e-15 0)
(3 -2.62941e-15 0)
(3 -1.69748e-15 0)
(3 -8.83062e-16 0)
(3 1.87129e-16 0)
(3 7.72957e-16 0)
(3 7.66261e-16 0)
(3 9.66396e-16 0)
(3 2.29415e-15 0)
(3 3.14277e-15 0)
(3 3.60448e-15 0)
(3 1.864e-15 0)
(3 1.62232e-15 0)
(3 1.38227e-15 0)
(3 1.63148e-15 0)
(3 3.74038e-16 0)
(3 -4.03691e-16 0)
(3 -1.11379e-15 0)
(3 -6.37113e-16 0)
(3 -3.83589e-16 0)
(3 -8.66273e-16 0)
(3 -9.64679e-16 0)
(3 -9.37145e-16 0)
(3 -1.30486e-15 0)
(3 2.15024e-16 0)
(3 1.51893e-15 0)
(3 2.30521e-15 0)
(3 3.48972e-15 0)
(3 2.9456e-15 0)
(3 2.88102e-15 0)
(3 3.85719e-15 0)
(3 2.5781e-15 0)
(3 -2.21159e-16 0)
(3 -2.04499e-16 0)
(3 -4.50208e-16 0)
(3 -3.03342e-16 0)
(3 3.09642e-16 0)
(3 -1.04469e-15 0)
(3 4.62262e-18 0)
(3 5.55842e-16 0)
(3 9.00763e-16 0)
(3 7.50016e-16 0)
(3 -3.22128e-16 0)
(3 -7.29854e-16 0)
(3 -1.64441e-16 0)
(3 6.6373e-17 0)
(3 4.87172e-16 0)
(3 5.69867e-16 0)
(3 4.54384e-16 0)
(3 7.18063e-17 0)
(3 3.75342e-17 0)
(3 4.90472e-16 0)
(3 1.1154e-15 0)
(3 9.30196e-16 0)
(3 -7.25538e-16 0)
(3 -1.54407e-15 0)
(3 -1.63079e-15 0)
(3 -1.95617e-15 0)
(3 -2.2884e-15 0)
(3 -2.81296e-15 0)
(3 -3.36094e-15 0)
(3 -4.99957e-15 0)
(3 -5.43244e-15 0)
(3 -5.18605e-15 0)
(3 -3.4057e-15 0)
(3 -1.73648e-15 0)
(3 -1.38504e-15 0)
(3 -3.6499e-16 0)
(3 9.45672e-16 0)
(3 1.20505e-15 0)
(3 1.7897e-15 0)
(3 2.22519e-15 0)
(3 2.2927e-15 0)
(3 2.11081e-15 0)
(3 2.46749e-15 0)
(3 2.9347e-15 0)
(3 1.1281e-15 0)
(3 -3.41605e-15 0)
(3 -6.50903e-15 0)
(3 -5.00382e-15 0)
(3 -2.60231e-15 0)
(3 -8.10354e-16 0)
(3 -7.91923e-17 0)
(3 2.11449e-16 0)
(3 -1.01099e-15 0)
(3 -4.6065e-16 0)
(3 6.5548e-16 0)
(3 3.78978e-15 0)
(3 4.14079e-15 0)
(3 3.85994e-15 0)
(3 3.37776e-15 0)
(3 1.50519e-15 0)
(3 -5.20697e-16 0)
(3 -1.3662e-15 0)
(3 -1.12113e-15 0)
(3 -1.45534e-15 0)
(3 2.31851e-16 0)
(3 2.00253e-16 0)
(3 -8.5502e-17 0)
(3 -5.15532e-16 0)
(3 2.55778e-15 0)
(3 4.60176e-15 0)
(3 3.87228e-15 0)
(3 2.25142e-15 0)
(3 1.50165e-15 0)
(3 9.78813e-16 0)
(3 9.3954e-16 0)
(3 1.97444e-15 0)
(3 2.32373e-15 0)
(3 1.68912e-15 0)
(3 -4.79688e-17 0)
(3 -8.34976e-16 0)
(3 -1.60172e-15 0)
(3 -1.46462e-15 0)
(3 -9.60477e-16 0)
(3 -7.20947e-16 0)
(3 -6.52872e-16 0)
(3 -1.66407e-15 0)
(3 -1.74151e-15 0)
(3 -1.77095e-15 0)
(3 -2.69364e-16 0)
(3 1.04968e-15 0)
(3 2.28258e-15 0)
(3 3.75194e-15 0)
(3 4.54444e-15 0)
(3 2.85137e-15 0)
(3 2.08863e-15 0)
(3 -1.66208e-15 0)
(3 -3.89434e-15 0)
(3 -3.95167e-15 0)
(3 -1.89622e-15 0)
(3 -5.7641e-16 0)
(3 6.41853e-16 0)
(3 1.709e-15 0)
(3 1.38521e-15 0)
(3 -2.57393e-16 0)
(3 -4.90619e-16 0)
(3 -5.54922e-17 0)
(3 -4.4448e-16 0)
(3 -1.35389e-15 0)
(3 4.07664e-17 0)
(3 -5.43123e-17 0)
(3 -2.31805e-16 0)
(3 -3.5112e-16 0)
(3 -4.29239e-16 0)
(3 -9.62558e-16 0)
(3 -1.62356e-15 0)
(3 -1.9011e-15 0)
(3 -1.71551e-15 0)
(3 -8.03381e-16 0)
(3 -6.3953e-16 0)
(3 -1.75789e-16 0)
(3 7.54121e-16 0)
(3 2.58648e-16 0)
(3 -4.09951e-16 0)
(3 -1.77149e-15 0)
(3 -2.20487e-15 0)
(3 -3.03614e-15 0)
(3 -3.58618e-15 0)
(3 -3.32362e-15 0)
(3 -2.75708e-15 0)
(3 -1.66936e-15 0)
(3 -5.4591e-16 0)
(3 2.25998e-15 0)
(3 2.56182e-15 0)
(3 2.44375e-15 0)
(3 2.12076e-15 0)
(3 2.12041e-15 0)
(3 1.98017e-15 0)
(3 2.14363e-15 0)
(3 1.58541e-15 0)
(3 1.01377e-15 0)
(3 -8.01506e-16 0)
(3 -3.64872e-15 0)
(3 -6.13428e-15 0)
(3 -5.86774e-15 0)
(3 -4.03357e-15 0)
(3 -1.20104e-15 0)
(3 -3.01784e-16 0)
(3 1.23453e-15 0)
(3 1.05339e-15 0)
(3 8.75133e-16 0)
(3 1.86954e-15 0)
(3 2.17592e-15 0)
(3 1.70841e-15 0)
(3 1.6448e-15 0)
(3 1.22763e-15 0)
(3 8.83897e-16 0)
(3 4.0598e-16 0)
(3 -1.87205e-15 0)
(3 -1.27422e-15 0)
(3 5.64355e-16 0)
(3 8.75599e-16 0)
(3 1.37857e-15 0)
(3 8.39259e-16 0)
(3 2.07715e-16 0)
(3 1.90621e-15 0)
(3 5.7539e-15 0)
(3 5.7722e-15 0)
(3 3.49174e-15 0)
(3 1.66876e-16 0)
(3 -1.37911e-15 0)
(3 -1.36354e-15 0)
(3 -1.15095e-15 0)
(3 -1.07534e-15 0)
(3 -5.37023e-16 0)
(3 2.6715e-16 0)
(3 3.06973e-16 0)
(3 -7.83256e-17 0)
(3 -3.37711e-17 0)
(3 -6.15625e-16 0)
(3 -1.02757e-15 0)
(3 -1.04869e-15 0)
(3 -1.17647e-15 0)
(3 -1.20968e-15 0)
(3 -4.09224e-16 0)
(3 5.75068e-16 0)
(3 4.99346e-17 0)
(3 4.45548e-16 0)
(3 8.85553e-16 0)
(3 6.4813e-16 0)
(3 -9.51852e-16 0)
(3 -2.41915e-15 0)
(3 -4.04752e-15 0)
(3 -4.14514e-15 0)
(3 -4.27493e-15 0)
(3 -1.09632e-15 0)
(3 -1.63202e-16 0)
(3 1.6745e-15 0)
(3 3.62539e-15 0)
(3 3.01907e-15 0)
(3 2.61182e-15 0)
(3 1.20176e-15 0)
(3 3.48623e-16 0)
(3 -4.11991e-16 0)
(3 -1.25064e-15 0)
(3 3.32157e-17 0)
(3 -6.70785e-17 0)
(3 -5.29499e-16 0)
(3 -7.57293e-16 0)
(3 -7.88956e-16 0)
(3 -3.57546e-16 0)
(3 -2.06288e-16 0)
(3 -2.11374e-16 0)
(3 -5.61907e-16 0)
(3 -7.33551e-16 0)
(3 -1.61887e-16 0)
(3 6.23214e-16 0)
(3 1.06596e-15 0)
(3 1.38667e-15 0)
(3 9.28578e-16 0)
(3 -3.27194e-16 0)
(3 -5.4723e-16 0)
(3 -3.03723e-16 0)
(3 -7.56808e-16 0)
(3 -1.17317e-15 0)
(3 -1.64151e-15 0)
(3 -1.46033e-15 0)
(3 -8.35972e-16 0)
(3 -8.84102e-16 0)
(3 2.66308e-16 0)
(3 9.00691e-16 0)
(3 7.72627e-16 0)
(3 8.39987e-16 0)
(3 6.33301e-16 0)
(3 3.65284e-16 0)
(3 5.66799e-17 0)
(3 8.72293e-16 0)
(3 2.70985e-16 0)
(3 -1.37792e-15 0)
(3 -2.11068e-15 0)
(3 -1.98034e-15 0)
(3 -4.68414e-16 0)
(3 2.30959e-15 0)
(3 4.58477e-15 0)
(3 5.65585e-15 0)
(3 5.57712e-15 0)
(3 4.64225e-15 0)
(3 2.19698e-15 0)
(3 1.26807e-15 0)
(3 5.13873e-16 0)
(3 7.22751e-16 0)
(3 9.0353e-16 0)
(3 5.6889e-16 0)
(3 1.08834e-15 0)
(3 -8.12173e-16 0)
(3 -1.44659e-15 0)
(3 -1.39599e-15 0)
(3 -1.6034e-15 0)
(3 -1.68016e-15 0)
(3 -1.8481e-15 0)
(3 -2.12185e-15 0)
(3 -4.8213e-16 0)
(3 1.27483e-15 0)
(3 2.72342e-15 0)
(3 3.11167e-15 0)
(3 2.9959e-15 0)
(3 2.86234e-15 0)
(3 2.48421e-15 0)
(3 9.46681e-16 0)
(3 9.85087e-17 0)
(3 -4.27071e-17 0)
(3 9.40622e-16 0)
(3 2.12705e-15 0)
(3 2.53323e-15 0)
(3 1.07526e-15 0)
(3 -9.14812e-16 0)
(3 -1.91594e-15 0)
(3 -2.07703e-15 0)
(3 -8.01739e-16 0)
(3 1.40863e-15 0)
(3 1.61668e-15 0)
(3 2.18203e-15 0)
(3 1.82827e-15 0)
(3 4.77229e-16 0)
(3 2.66111e-16 0)
(3 -1.13146e-16 0)
(3 -2.89852e-15 0)
(3 -6.21484e-15 0)
(3 -5.96642e-15 0)
(3 -4.81306e-15 0)
(3 -3.63121e-15 0)
(3 -1.4531e-15 0)
(3 1.40026e-15 0)
(3 3.35763e-15 0)
(3 5.05499e-15 0)
(3 4.84513e-15 0)
(3 4.07588e-15 0)
(3 3.59963e-15 0)
(3 5.12877e-16 0)
(3 -2.33128e-16 0)
(3 5.12868e-16 0)
(3 -6.66836e-18 0)
(3 1.03021e-16 0)
(3 2.28462e-16 0)
(3 -1.96946e-16 0)
(3 -1.90742e-16 0)
(3 -6.45085e-17 0)
(3 1.4969e-17 0)
(3 1.38544e-16 0)
(3 2.11423e-16 0)
(3 -4.98244e-17 0)
(3 -5.70269e-16 0)
(3 -7.84294e-16 0)
(3 -7.86281e-16 0)
(3 -1.35779e-16 0)
(3 4.88062e-16 0)
(3 8.17082e-16 0)
(3 6.15584e-16 0)
(3 9.17452e-16 0)
(3 1.31289e-15 0)
(3 1.01929e-15 0)
(3 4.66301e-16 0)
(3 6.77203e-17 0)
(3 -9.85426e-16 0)
(3 -2.36263e-15 0)
(3 -2.62866e-15 0)
(3 -1.19175e-15 0)
(3 -5.20804e-16 0)
(3 -2.38161e-16 0)
(3 -2.34347e-16 0)
(3 -6.0745e-16 0)
(3 -5.68584e-16 0)
(3 -2.09049e-16 0)
(3 8.77535e-16 0)
(3 1.68634e-15 0)
(3 1.45022e-15 0)
(3 1.50963e-17 0)
(3 -3.50343e-16 0)
(3 -3.72977e-16 0)
(3 -1.67795e-16 0)
(3 2.90901e-15 0)
(3 3.82176e-15 0)
(3 3.89403e-15 0)
(3 1.79046e-15 0)
(3 3.33775e-16 0)
(3 -1.88766e-16 0)
(3 -2.9999e-16 0)
(3 1.12082e-16 0)
(3 1.10899e-16 0)
(3 9.35564e-16 0)
(3 1.44577e-16 0)
(3 -8.70595e-16 0)
(3 -1.34042e-15 0)
(3 -2.99562e-15 0)
(3 -4.45954e-15 0)
(3 -4.88315e-15 0)
(3 -3.92342e-15 0)
(3 -2.8035e-15 0)
(3 -1.55621e-15 0)
(3 -6.46899e-16 0)
(3 8.36859e-16 0)
(3 3.45186e-15 0)
(3 4.78635e-15 0)
(3 5.13125e-15 0)
(3 2.49851e-15 0)
(3 1.70447e-15 0)
(3 1.42956e-15 0)
(3 1.67606e-16 0)
(3 -3.23726e-16 0)
(3 -4.3843e-16 0)
(3 -1.00072e-15 0)
(3 -1.1947e-15 0)
(3 -6.21063e-16 0)
(3 -6.67684e-17 0)
(3 -2.31284e-16 0)
(3 5.76163e-16 0)
(3 2.94295e-15 0)
(3 3.35737e-15 0)
(3 4.69328e-15 0)
(3 4.13435e-15 0)
(3 2.27638e-15 0)
(3 1.73147e-15 0)
(3 -9.08445e-16 0)
(3 -2.88953e-15 0)
(3 -3.41816e-15 0)
(3 -2.99826e-15 0)
(3 -1.53261e-15 0)
(3 3.25667e-16 0)
(3 2.03218e-15 0)
(3 2.2917e-15 0)
(3 2.18e-15 0)
(3 2.20977e-15 0)
(3 1.21857e-15 0)
(3 -1.23349e-15 0)
(3 -1.86388e-15 0)
(3 -2.88018e-15 0)
(3 -2.57468e-15 0)
(3 7.22726e-17 0)
(3 2.59821e-17 0)
(3 1.43718e-16 0)
(3 3.0602e-16 0)
(3 1.57428e-16 0)
(3 -4.00142e-16 0)
(3 -1.56115e-16 0)
(3 3.11524e-16 0)
(3 5.93296e-16 0)
(3 8.4842e-16 0)
(3 1.22145e-16 0)
(3 1.86362e-16 0)
(3 8.90634e-16 0)
(3 6.55231e-16 0)
(3 7.76581e-16 0)
(3 8.24939e-16 0)
(3 6.85476e-16 0)
(3 7.87384e-16 0)
(3 1.01261e-15 0)
(3 1.1092e-15 0)
(3 9.30788e-16 0)
(3 1.45672e-16 0)
(3 -7.83796e-16 0)
(3 -8.99311e-16 0)
(3 -8.10709e-16 0)
(3 -7.01021e-16 0)
(3 -4.63299e-16 0)
(3 -4.30397e-16 0)
(3 -6.1633e-16 0)
(3 -6.37559e-16 0)
(3 -7.3146e-16 0)
(3 -1.23757e-15 0)
(3 -1.38101e-15 0)
(3 -7.16284e-16 0)
(3 3.63286e-16 0)
(3 5.96633e-16 0)
(3 1.23445e-15 0)
(3 1.69629e-15 0)
(3 1.37983e-15 0)
(3 1.12874e-15 0)
(3 1.69395e-15 0)
(3 2.08028e-15 0)
(3 8.50735e-16 0)
(3 -7.15684e-16 0)
(3 -6.38967e-16 0)
(3 -5.1129e-16 0)
(3 -8.86741e-16 0)
(3 5.37808e-16 0)
(3 1.23386e-15 0)
(3 2.47619e-15 0)
(3 1.35012e-15 0)
(3 -5.21943e-16 0)
(3 -1.10606e-15 0)
(3 -1.1937e-15 0)
(3 -2.56846e-15 0)
(3 -2.3966e-15 0)
(3 -1.3804e-15 0)
(3 -1.1822e-15 0)
(3 -1.6738e-15 0)
(3 -6.70251e-16 0)
(3 1.6755e-15 0)
(3 3.05561e-15 0)
(3 3.02308e-15 0)
(3 3.57411e-15 0)
(3 3.51434e-15 0)
(3 2.96928e-15 0)
(3 9.62389e-16 0)
(3 -2.16775e-15 0)
(3 -2.27253e-15 0)
(3 7.37116e-17 0)
(3 2.07391e-15 0)
(3 3.53037e-15 0)
(3 4.03907e-15 0)
(3 1.80328e-15 0)
(3 -6.44155e-16 0)
(3 -3.1737e-16 0)
(3 2.73865e-17 0)
(3 1.27674e-15 0)
(3 1.41887e-15 0)
(3 1.65584e-15 0)
(3 1.82101e-15 0)
(3 2.17772e-15 0)
(3 2.23575e-15 0)
(3 2.35575e-15 0)
(3 2.1295e-15 0)
(3 1.49145e-15 0)
(3 9.44016e-16 0)
(3 7.66072e-16 0)
(3 4.09753e-16 0)
(3 3.58421e-16 0)
(3 3.56625e-16 0)
(3 -1.05835e-15 0)
(3 -5.29343e-15 0)
(3 -6.99792e-15 0)
(3 -7.99487e-15 0)
(3 -6.70501e-15 0)
(3 8.07185e-17 0)
(3 -3.1849e-16 0)
(3 -2.31785e-16 0)
(3 7.41441e-17 0)
(3 3.26923e-17 0)
(3 3.73611e-16 0)
(3 2.93092e-16 0)
(3 3.62003e-16 0)
(3 3.77952e-16 0)
(3 3.24254e-16 0)
(3 6.07467e-16 0)
(3 1.20883e-15 0)
(3 2.1174e-15 0)
(3 1.66483e-15 0)
(3 1.25468e-15 0)
(3 4.23621e-17 0)
(3 -3.01172e-16 0)
(3 -2.36228e-16 0)
(3 4.40602e-16 0)
(3 1.16088e-15 0)
(3 9.85358e-16 0)
(3 5.54124e-16 0)
(3 6.77537e-17 0)
(3 -1.98852e-16 0)
(3 -3.17858e-16 0)
(3 -5.58902e-17 0)
(3 3.06141e-16 0)
(3 3.67677e-16 0)
(3 1.1202e-16 0)
(3 -4.18053e-17 0)
(3 1.47167e-17 0)
(3 -1.36842e-16 0)
(3 -3.8245e-16 0)
(3 -1.6947e-16 0)
(3 1.10466e-15 0)
(3 2.69651e-15 0)
(3 3.15051e-15 0)
(3 3.49032e-15 0)
(3 1.49057e-15 0)
(3 -7.81001e-16 0)
(3 -4.72654e-16 0)
(3 2.73205e-16 0)
(3 3.11206e-16 0)
(3 8.125e-16 0)
(3 1.01923e-15 0)
(3 1.34212e-15 0)
(3 1.16525e-15 0)
(3 2.62714e-15 0)
(3 3.56687e-15 0)
(3 3.46597e-15 0)
(3 2.80971e-15 0)
(3 1.32267e-15 0)
(3 3.10616e-16 0)
(3 -2.16367e-16 0)
(3 2.86655e-17 0)