/*--------------------------------*- C++ -*----------------------------------*\
  =========                 |
  \\      /  F ield         | OpenFOAM: The Open Source CFD Toolbox
   \\    /   O peration     | Website:  https://openfoam.org
    \\  /    A nd           | Version:  7
     \\/     M anipulation  |
\*---------------------------------------------------------------------------*/
FoamFile
{
    version     2.0;
    format      ascii;
    class       volVectorField;
    location    "2.7";
    object      U;
}
// * * * * * * * * * * * * * * * * * * * * * * * * * * * * * * * * * * * * * //

dimensions      [0 1 -1 0 0 0 0];

internalField   nonuniform List<vector> 
73728
(
(3 7.07911e-17 0)
(3 1.51459e-16 0)
(3 3.80272e-16 0)
(3 4.46159e-16 0)
(3 1.77167e-16 0)
(3 -9.73218e-18 0)
(3 1.03981e-17 0)
(3 4.77808e-16 0)
(3 8.46855e-16 0)
(3 1.39576e-15 0)
(3 2.96294e-15 0)
(3 3.5264e-15 0)
(3 2.48477e-15 0)
(3 1.5962e-15 0)
(3 1.44066e-15 0)
(3 1.10068e-15 0)
(3 -7.47564e-18 0)
(3 -9.69614e-16 0)
(3 -1.59281e-15 0)
(3 -6.25549e-16 0)
(3 -8.24648e-16 0)
(3 -4.81228e-16 0)
(3 -3.58723e-16 0)
(3 8.61335e-18 0)
(3 7.04913e-16 0)
(3 1.33565e-15 0)
(3 2.56015e-15 0)
(3 1.28041e-15 0)
(3 4.85194e-16 0)
(3 5.24618e-16 0)
(3 9.58322e-16 0)
(3 2.04603e-15 0)
(3 2.26004e-15 0)
(3 5.81111e-16 0)
(3 -1.98734e-17 0)
(3 -3.01186e-16 0)
(3 -7.09547e-16 0)
(3 -4.92946e-16 0)
(3 -1.90337e-16 0)
(3 2.31508e-16 0)
(3 7.21143e-16 0)
(3 1.25404e-15 0)
(3 3.25991e-16 0)
(3 -7.90275e-18 0)
(3 -5.00902e-16 0)
(3 -6.30027e-16 0)
(3 -7.66114e-16 0)
(3 -5.41007e-16 0)
(3 -3.14912e-16 0)
(3 -1.23594e-16 0)
(3 3.82076e-16 0)
(3 -7.27223e-16 0)
(3 -1.01767e-15 0)
(3 -1.11559e-15 0)
(3 -1.37344e-15 0)
(3 -1.18081e-15 0)
(3 -7.58817e-16 0)
(3 -7.0706e-16 0)
(3 -5.57924e-16 0)
(3 -3.43822e-17 0)
(3 -1.19115e-16 0)
(3 -4.8753e-16 0)
(3 -5.23626e-16 0)
(3 -2.57008e-16 0)
(3 -2.58943e-18 0)
(3 3.43403e-16 0)
(3 1.5881e-16 0)
(3 -1.09768e-16 0)
(3 -2.04394e-16 0)
(3 -1.45126e-15 0)
(3 -1.73208e-15 0)
(3 -1.54575e-15 0)
(3 -1.45945e-15 0)
(3 -4.35798e-16 0)
(3 -2.99162e-16 0)
(3 -2.79741e-16 0)
(3 -2.02006e-16 0)
(3 9.90002e-16 0)
(3 2.48977e-15 0)
(3 3.97761e-15 0)
(3 4.59546e-15 0)
(3 1.67337e-15 0)
(3 1.039e-15 0)
(3 -4.0178e-16 0)
(3 -1.52311e-15 0)
(3 -1.91788e-15 0)
(3 -1.86549e-15 0)
(3 -1.31993e-15 0)
(3 3.70653e-19 0)
(3 4.33314e-19 0)
(3 -1.12159e-16 0)
(3 -1.20099e-16 0)
(3 -6.53774e-16 0)
(3 -1.33293e-15 0)
(3 -8.84166e-16 0)
(3 -1.08144e-15 0)
(3 9.76257e-17 0)
(3 5.04658e-16 0)
(3 7.80805e-16 0)
(3 9.31492e-16 0)
(3 6.98236e-16 0)
(3 6.48274e-16 0)
(3 -1.4861e-16 0)
(3 -3.57779e-16 0)
(3 7.57767e-17 0)
(3 9.42925e-16 0)
(3 2.14554e-15 0)
(3 3.17955e-15 0)
(3 3.2692e-15 0)
(3 2.95553e-15 0)
(3 1.87421e-15 0)
(3 1.00682e-15 0)
(3 -8.71456e-16 0)
(3 -1.60932e-15 0)
(3 -2.21957e-15 0)
(3 -1.51124e-15 0)
(3 -1.11832e-15 0)
(3 -1.07064e-15 0)
(3 -6.73273e-16 0)
(3 -2.80134e-16 0)
(3 8.75657e-16 0)
(3 1.86799e-15 0)
(3 2.94023e-15 0)
(3 2.24401e-15 0)
(3 1.2022e-15 0)
(3 1.45324e-15 0)
(3 1.57061e-15 0)
(3 1.70168e-15 0)
(3 1.14822e-15 0)
(3 5.06332e-16 0)
(3 -1.50825e-15 0)
(3 -3.08156e-15 0)
(3 -3.70625e-15 0)
(3 -3.40358e-15 0)
(3 -2.84343e-15 0)
(3 -1.88107e-15 0)
(3 -6.02831e-16 0)
(3 4.61083e-16 0)
(3 4.21827e-16 0)
(3 2.35142e-16 0)
(3 -5.26569e-16 0)
(3 -1.27907e-15 0)
(3 -2.26632e-15 0)
(3 -1.80947e-15 0)
(3 -1.04394e-15 0)
(3 -4.31617e-16 0)
(3 -4.75449e-16 0)
(3 -1.52185e-15 0)
(3 -1.82959e-15 0)
(3 -1.81717e-15 0)
(3 -2.12125e-15 0)
(3 -2.20757e-15 0)
(3 -2.12294e-15 0)
(3 -2.43169e-15 0)
(3 -2.24083e-15 0)
(3 -1.33027e-15 0)
(3 -1.05879e-15 0)
(3 -4.66225e-16 0)
(3 1.10307e-16 0)
(3 6.74608e-16 0)
(3 1.01632e-15 0)
(3 1.10287e-15 0)
(3 7.29074e-16 0)
(3 6.76841e-16 0)
(3 2.5716e-16 0)
(3 -3.77067e-16 0)
(3 -4.08004e-16 0)
(3 -1.39076e-15 0)
(3 -1.81892e-15 0)
(3 -1.50521e-15 0)
(3 -5.58751e-18 0)
(3 3.41688e-16 0)
(3 1.75913e-15 0)
(3 3.67267e-15 0)
(3 4.89052e-15 0)
(3 4.59103e-15 0)
(3 3.44406e-15 0)
(3 4.71977e-16 0)
(3 6.26769e-16 0)
(3 -7.27868e-16 0)
(3 -1.55019e-15 0)
(3 -1.57459e-15 0)
(3 -1.82176e-15 0)
(3 -1.95692e-15 0)
(3 -9.45675e-17 0)
(3 2.74168e-16 0)
(3 5.90229e-17 0)
(3 -3.1482e-16 0)
(3 -1.77837e-15 0)
(3 -1.91624e-15 0)
(3 -1.00453e-15 0)
(3 -5.53396e-16 0)
(3 2.1857e-17 0)
(3 2.98238e-17 0)
(3 7.10197e-17 0)
(3 3.30153e-16 0)
(3 2.01645e-16 0)
(3 4.32995e-16 0)
(3 -3.35183e-16 0)
(3 -5.19604e-16 0)
(3 -2.55507e-16 0)
(3 -5.79503e-17 0)
(3 1.79241e-16 0)
(3 2.27667e-16 0)
(3 1.08422e-15 0)
(3 1.95331e-15 0)
(3 2.19432e-15 0)
(3 1.08531e-15 0)
(3 7.48428e-16 0)
(3 -4.91202e-16 0)
(3 -8.7603e-16 0)
(3 -1.02394e-15 0)
(3 -1.2617e-15 0)
(3 -1.82096e-15 0)
(3 -1.79482e-15 0)
(3 -9.83395e-16 0)
(3 1.69907e-16 0)
(3 5.21629e-16 0)
(3 6.21449e-16 0)
(3 1.58786e-15 0)
(3 2.24513e-15 0)
(3 1.67563e-15 0)
(3 9.02076e-16 0)
(3 6.30531e-16 0)
(3 -9.92985e-17 0)
(3 -8.18839e-16 0)
(3 -1.41434e-15 0)
(3 -2.83387e-15 0)
(3 -3.80349e-15 0)
(3 -3.8674e-15 0)
(3 -3.77757e-15 0)
(3 -3.1695e-15 0)
(3 -2.74629e-15 0)
(3 -7.06402e-16 0)
(3 4.68734e-16 0)
(3 1.33903e-16 0)
(3 -3.34451e-16 0)
(3 -9.95841e-16 0)
(3 -1.69931e-15 0)
(3 -1.0638e-15 0)
(3 -2.23993e-16 0)
(3 9.88513e-16 0)
(3 9.99961e-16 0)
(3 1.01997e-15 0)
(3 1.39495e-15 0)
(3 1.56348e-15 0)
(3 2.22019e-15 0)
(3 1.558e-15 0)
(3 5.71219e-16 0)
(3 -6.9457e-16 0)
(3 -1.00289e-15 0)
(3 -1.63319e-15 0)
(3 -1.48678e-15 0)
(3 -6.97382e-16 0)
(3 -3.18798e-17 0)
(3 1.12361e-16 0)
(3 1.77162e-16 0)
(3 -1.16911e-16 0)
(3 -5.52907e-16 0)
(3 -1.31088e-15 0)
(3 -1.46901e-15 0)
(3 -1.08947e-15 0)
(3 -9.00481e-16 0)
(3 -1.46356e-15 0)
(3 -1.94181e-15 0)
(3 -2.21288e-15 0)
(3 -1.6539e-15 0)
(3 1.61703e-15 0)
(3 3.76001e-15 0)
(3 3.59786e-15 0)
(3 3.67011e-15 0)
(3 2.8917e-15 0)
(3 1.59444e-15 0)
(3 9.15492e-16 0)
(3 1.04233e-15 0)
(3 1.44834e-15 0)
(3 1.64777e-15 0)
(3 5.05904e-16 0)
(3 -1.13639e-15 0)
(3 -3.46442e-15 0)
(3 -2.83973e-15 0)
(3 -1.50257e-15 0)
(3 -3.09966e-16 0)
(3 -4.43936e-16 0)
(3 -1.57412e-15 0)
(3 -1.79035e-15 0)
(3 -2.31224e-15 0)
(3 -2.18558e-15 0)
(3 -2.29927e-17 0)
(3 -1.19388e-15 0)
(3 -1.41823e-15 0)
(3 -1.84538e-15 0)
(3 -1.10757e-15 0)
(3 -9.84395e-16 0)
(3 -2.39121e-16 0)
(3 3.03442e-16 0)
(3 8.37542e-16 0)
(3 9.40373e-16 0)
(3 8.6458e-16 0)
(3 6.39625e-16 0)
(3 4.6621e-16 0)
(3 4.25021e-16 0)
(3 1.85183e-16 0)
(3 1.45695e-16 0)
(3 7.86281e-16 0)
(3 1.95657e-15 0)
(3 1.88624e-15 0)
(3 3.95692e-16 0)
(3 -1.92198e-16 0)
(3 -1.00174e-15 0)
(3 -1.691e-15 0)
(3 -2.11272e-15 0)
(3 -1.99291e-15 0)
(3 -1.38917e-15 0)
(3 -5.67859e-16 0)
(3 1.73973e-15 0)
(3 2.51983e-15 0)
(3 2.04179e-15 0)
(3 5.88721e-16 0)
(3 -6.38829e-17 0)
(3 -2.4875e-16 0)
(3 -7.69364e-16 0)
(3 -1.25799e-15 0)
(3 -1.18217e-15 0)
(3 -1.80232e-15 0)
(3 -2.63139e-15 0)
(3 -3.1807e-15 0)
(3 -3.16811e-15 0)
(3 -2.48309e-15 0)
(3 -1.58961e-15 0)
(3 -1.60258e-15 0)
(3 -1.46828e-15 0)
(3 -1.00712e-15 0)
(3 -5.80606e-16 0)
(3 5.8869e-16 0)
(3 1.10128e-15 0)
(3 1.40454e-15 0)
(3 2.12196e-15 0)
(3 2.23452e-15 0)
(3 2.84982e-15 0)
(3 2.3078e-15 0)
(3 1.91606e-15 0)
(3 1.86354e-15 0)
(3 1.65988e-15 0)
(3 1.67072e-15 0)
(3 2.26004e-15 0)
(3 4.03723e-16 0)
(3 -7.64613e-18 0)
(3 -5.79786e-16 0)
(3 -3.77121e-16 0)
(3 -4.74057e-16 0)
(3 -6.37796e-16 0)
(3 -4.20383e-16 0)
(3 -1.28654e-17 0)
(3 -7.59996e-17 0)
(3 -1.19138e-15 0)
(3 -1.79407e-15 0)
(3 -1.97068e-15 0)
(3 -2.20688e-15 0)
(3 -2.28459e-15 0)
(3 -1.96424e-15 0)
(3 -1.59781e-15 0)
(3 -9.0465e-16 0)
(3 -1.03671e-15 0)
(3 -1.04746e-15 0)
(3 -1.34645e-15 0)
(3 -8.02592e-16 0)
(3 7.5947e-16 0)
(3 8.88329e-16 0)
(3 1.62564e-15 0)
(3 3.0918e-15 0)
(3 3.91564e-15 0)
(3 4.49254e-15 0)
(3 2.83682e-15 0)
(3 -6.72586e-16 0)
(3 -3.25006e-15 0)
(3 -3.45899e-15 0)
(3 -2.36743e-15 0)
(3 -1.29682e-15 0)
(3 2.33076e-16 0)
(3 -3.50423e-16 0)
(3 -1.10768e-15 0)
(3 -1.74534e-15 0)
(3 -2.25482e-15 0)
(3 -5.08618e-17 0)
(3 -2.78537e-16 0)
(3 -8.8818e-16 0)
(3 -1.68166e-15 0)
(3 -5.04684e-16 0)
(3 -2.57521e-16 0)
(3 7.44456e-16 0)
(3 3.75307e-16 0)
(3 8.47719e-16 0)
(3 1.63716e-15 0)
(3 2.32959e-15 0)
(3 2.16174e-15 0)
(3 1.5926e-15 0)
(3 -4.23231e-16 0)
(3 -1.0677e-15 0)
(3 -8.39476e-16 0)
(3 -1.16748e-16 0)
(3 4.67848e-16 0)
(3 5.72916e-16 0)
(3 3.16203e-16 0)
(3 2.32243e-16 0)
(3 -3.95371e-16 0)
(3 -1.21149e-15 0)
(3 -1.88349e-15 0)
(3 -2.19386e-15 0)
(3 -2.14086e-15 0)
(3 -1.26122e-15 0)
(3 -7.65542e-17 0)
(3 1.14005e-15 0)
(3 6.01986e-16 0)
(3 -4.88997e-16 0)
(3 -1.2459e-15 0)
(3 -1.73588e-15 0)
(3 -2.09733e-15 0)
(3 -1.82912e-15 0)
(3 -1.66704e-15 0)
(3 -1.64814e-15 0)
(3 -2.15469e-15 0)
(3 -1.33404e-15 0)
(3 -1.39772e-15 0)
(3 -1.96992e-15 0)
(3 -2.97134e-15 0)
(3 -3.32929e-15 0)
(3 -3.05959e-15 0)
(3 -1.35895e-15 0)
(3 2.21087e-16 0)
(3 9.22774e-16 0)
(3 1.13503e-15 0)
(3 6.97105e-16 0)
(3 3.47861e-16 0)
(3 1.91568e-16 0)
(3 3.90525e-16 0)
(3 -2.6312e-17 0)
(3 3.87368e-16 0)
(3 4.73517e-16 0)
(3 6.42889e-16 0)
(3 1.05889e-15 0)
(3 2.41308e-15 0)
(3 1.93984e-15 0)
(3 2.04744e-15 0)
(3 1.52404e-15 0)
(3 4.26334e-16 0)
(3 -3.51442e-17 0)
(3 5.50207e-16 0)
(3 4.6662e-16 0)
(3 2.60905e-16 0)
(3 1.88347e-16 0)
(3 -4.29711e-16 0)
(3 -6.4247e-16 0)
(3 -8.65122e-16 0)
(3 -1.01686e-15 0)
(3 -1.30354e-15 0)
(3 -7.33932e-16 0)
(3 -1.41243e-15 0)
(3 -1.71128e-15 0)
(3 -2.51767e-15 0)
(3 -2.82056e-15 0)
(3 -2.70904e-15 0)
(3 -1.69834e-15 0)
(3 -6.67461e-16 0)
(3 6.70423e-16 0)
(3 2.47003e-15 0)
(3 3.69906e-15 0)
(3 3.46648e-15 0)
(3 3.20445e-15 0)
(3 2.27801e-15 0)
(3 1.62231e-15 0)
(3 1.03707e-15 0)
(3 8.90983e-16 0)
(3 1.12851e-15 0)
(3 1.47808e-15 0)
(3 1.67024e-15 0)
(3 1.67867e-15 0)
(3 1.39667e-15 0)
(3 3.92031e-16 0)
(3 -2.03807e-16 0)
(3 5.87688e-17 0)
(3 4.04408e-16 0)
(3 2.58006e-16 0)
(3 -2.38779e-16 0)
(3 -5.18058e-16 0)
(3 -2.8741e-16 0)
(3 -1.91998e-16 0)
(3 2.54568e-18 0)
(3 4.12774e-17 0)
(3 2.34776e-16 0)
(3 -8.56737e-17 0)
(3 -4.79023e-16 0)
(3 -7.74322e-16 0)
(3 -9.5854e-16 0)
(3 -9.98434e-16 0)
(3 -5.0108e-16 0)
(3 -5.30206e-16 0)
(3 -8.53412e-16 0)
(3 -9.74998e-16 0)
(3 -9.31734e-16 0)
(3 -9.764e-16 0)
(3 -7.73406e-16 0)
(3 -7.97402e-16 0)
(3 -7.79457e-16 0)
(3 -9.32258e-16 0)
(3 -1.33357e-15 0)
(3 -2.13159e-15 0)
(3 -3.25486e-15 0)
(3 -3.51429e-15 0)
(3 -2.60221e-15 0)
(3 -1.25443e-15 0)
(3 -1.2627e-16 0)
(3 -1.06176e-15 0)
(3 -2.66609e-15 0)
(3 -3.28613e-15 0)
(3 -3.51199e-15 0)
(3 -3.28435e-15 0)
(3 -1.78504e-15 0)
(3 -1.42548e-15 0)
(3 -1.51419e-15 0)
(3 -1.88786e-15 0)
(3 -1.81456e-15 0)
(3 -1.65962e-15 0)
(3 -1.02199e-15 0)
(3 -3.22129e-16 0)
(3 1.23207e-15 0)
(3 2.86569e-15 0)
(3 2.35852e-15 0)
(3 9.5152e-16 0)
(3 1.01074e-16 0)
(3 -1.04677e-15 0)
(3 -2.0605e-15 0)
(3 -2.31597e-15 0)
(3 -1.61088e-15 0)
(3 -1.0074e-15 0)
(3 2.83921e-16 0)
(3 1.16305e-15 0)
(3 1.97806e-15 0)
(3 2.27541e-15 0)
(3 2.78717e-15 0)
(3 2.81398e-15 0)
(3 1.40349e-15 0)
(3 -1.56102e-17 0)
(3 -4.97703e-16 0)
(3 -1.05148e-15 0)
(3 -1.9086e-15 0)
(3 -1.77568e-15 0)
(3 -1.75776e-15 0)
(3 -1.85719e-15 0)
(3 -1.5605e-15 0)
(3 -1.25829e-15 0)
(3 -5.22866e-16 0)
(3 -5.28835e-16 0)
(3 -7.4544e-16 0)
(3 -8.49243e-16 0)
(3 -6.89016e-16 0)
(3 -1.03967e-15 0)
(3 -6.7518e-16 0)
(3 3.66416e-16 0)
(3 2.43284e-16 0)
(3 8.63392e-16 0)
(3 1.87766e-15 0)
(3 2.78235e-15 0)
(3 2.57549e-15 0)
(3 2.18706e-15 0)
(3 1.37442e-15 0)
(3 1.5258e-15 0)
(3 3.57178e-15 0)
(3 4.77872e-15 0)
(3 4.78367e-15 0)
(3 4.50239e-15 0)
(3 3.71274e-15 0)
(3 3.6271e-15 0)
(3 3.48634e-15 0)
(3 2.75308e-15 0)
(3 2.2992e-15 0)
(3 1.41543e-17 0)
(3 4.57813e-16 0)
(3 4.94574e-16 0)
(3 -1.22877e-17 0)
(3 -1.09177e-15 0)
(3 -1.54237e-15 0)
(3 -1.65373e-15 0)
(3 -1.2335e-15 0)
(3 -1.66571e-15 0)
(3 -3.02409e-15 0)
(3 -3.24887e-15 0)
(3 -2.95553e-15 0)
(3 -2.59305e-15 0)
(3 -1.8558e-15 0)
(3 -8.3818e-16 0)
(3 -5.13451e-16 0)
(3 -9.69596e-16 0)
(3 -1.24781e-15 0)
(3 -1.43439e-15 0)
(3 -1.90899e-15 0)
(3 -1.47876e-15 0)
(3 -8.65891e-16 0)
(3 -5.62929e-16 0)
(3 -6.833e-16 0)
(3 -5.59002e-16 0)
(3 -5.41167e-16 0)
(3 -1.18539e-15 0)
(3 -3.1971e-15 0)
(3 -4.8998e-15 0)
(3 -4.49877e-15 0)
(3 -2.96206e-15 0)
(3 -2.08903e-15 0)
(3 -1.84907e-15 0)
(3 -2.55999e-15 0)
(3 -3.31687e-15 0)
(3 -3.50909e-15 0)
(3 -2.98216e-15 0)
(3 -1.9066e-15 0)
(3 -2.02779e-15 0)
(3 -1.90562e-15 0)
(3 -1.53287e-15 0)
(3 -5.2289e-16 0)
(3 3.734e-16 0)
(3 1.12402e-15 0)
(3 1.5827e-15 0)
(3 1.85193e-15 0)
(3 2.08441e-15 0)
(3 2.08755e-15 0)
(3 9.26155e-16 0)
(3 4.70166e-16 0)
(3 -5.22195e-16 0)
(3 -2.14741e-15 0)
(3 -2.32946e-15 0)
(3 -2.07346e-15 0)
(3 -1.4529e-15 0)
(3 -1.44385e-15 0)
(3 -4.35662e-16 0)
(3 -1.23775e-16 0)
(3 1.76311e-15 0)
(3 1.29414e-15 0)
(3 1.19579e-15 0)
(3 3.22968e-16 0)
(3 -5.83306e-16 0)
(3 -2.3402e-15 0)
(3 -3.14655e-15 0)
(3 -2.95221e-15 0)
(3 -2.71095e-15 0)
(3 -2.64797e-15 0)
(3 -2.9385e-15 0)
(3 -2.86637e-15 0)
(3 -2.02942e-15 0)
(3 -9.36752e-16 0)
(3 -4.0922e-16 0)
(3 7.89474e-16 0)
(3 1.54037e-15 0)
(3 2.17429e-15 0)
(3 2.56985e-15 0)
(3 3.15614e-15 0)
(3 2.18784e-15 0)
(3 2.19015e-15 0)
(3 2.58259e-15 0)
(3 2.8629e-15 0)
(3 2.78748e-15 0)
(3 3.13088e-15 0)
(3 2.29339e-15 0)
(3 2.89269e-15 0)
(3 3.10408e-15 0)
(3 3.73088e-15 0)
(3 4.49869e-15 0)
(3 4.72919e-15 0)
(3 4.66959e-15 0)
(3 5.519e-15 0)
(3 6.1712e-15 0)
(3 6.13622e-15 0)
(3 5.43617e-15 0)
(3 4.53222e-15 0)
(3 1.85842e-17 0)
(3 7.96147e-16 0)
(3 8.31003e-16 0)
(3 5.31344e-16 0)
(3 1.47583e-16 0)
(3 4.23271e-17 0)
(3 -5.03504e-16 0)
(3 -1.06595e-15 0)
(3 -2.04799e-15 0)
(3 -2.43978e-15 0)
(3 -1.9073e-15 0)
(3 -1.08892e-15 0)
(3 -1.02428e-15 0)
(3 -1.22541e-15 0)
(3 -1.14842e-15 0)
(3 -2.22068e-15 0)
(3 -2.75794e-15 0)
(3 -3.11776e-15 0)
(3 -2.90731e-15 0)
(3 -2.01817e-15 0)
(3 -1.64032e-15 0)
(3 -1.31376e-15 0)
(3 -1.01747e-15 0)
(3 -1.03872e-15 0)
(3 -1.37034e-15 0)
(3 -9.85319e-16 0)
(3 -4.50906e-16 0)
(3 -6.45581e-16 0)
(3 -1.23138e-15 0)
(3 -6.18817e-16 0)
(3 -6.90108e-16 0)
(3 -1.5385e-15 0)
(3 -2.3452e-15 0)
(3 -2.65776e-15 0)
(3 -2.75515e-15 0)
(3 -3.33909e-15 0)
(3 -2.56928e-15 0)
(3 -1.79678e-15 0)
(3 -1.17146e-15 0)
(3 -4.09458e-16 0)
(3 1.08167e-15 0)
(3 1.43859e-15 0)
(3 2.10847e-15 0)
(3 1.83007e-15 0)
(3 1.61308e-15 0)
(3 1.31765e-15 0)
(3 1.0638e-16 0)
(3 -9.51519e-16 0)
(3 -8.29554e-16 0)
(3 -1.27443e-15 0)
(3 -1.3363e-15 0)
(3 -9.99122e-16 0)
(3 -7.40854e-16 0)
(3 -9.27755e-16 0)
(3 -1.06235e-15 0)
(3 -1.59447e-15 0)
(3 -1.85142e-15 0)
(3 -1.41118e-15 0)
(3 -4.72235e-16 0)
(3 -4.52026e-16 0)
(3 -4.59618e-16 0)
(3 -4.5049e-16 0)
(3 -4.50441e-16 0)
(3 -8.75424e-16 0)
(3 -9.87999e-16 0)
(3 -7.70091e-16 0)
(3 -1.4336e-15 0)
(3 -1.90865e-15 0)
(3 -1.86852e-15 0)
(3 -1.80934e-15 0)
(3 -6.13016e-17 0)
(3 1.25876e-15 0)
(3 2.3512e-15 0)
(3 2.58408e-15 0)
(3 2.90927e-15 0)
(3 3.45771e-15 0)
(3 4.30495e-15 0)
(3 5.43786e-15 0)
(3 5.59763e-15 0)
(3 5.62693e-15 0)
(3 4.98659e-15 0)
(3 3.89265e-15 0)
(3 3.34692e-15 0)
(3 3.2201e-15 0)
(3 2.76526e-15 0)
(3 3.20632e-15 0)
(3 4.27489e-15 0)
(3 4.67984e-15 0)
(3 4.54541e-15 0)
(3 4.22289e-15 0)
(3 4.35071e-15 0)
(3 5.0196e-15 0)
(3 4.93374e-15 0)
(3 5.18894e-15 0)
(3 4.2591e-15 0)
(3 3.50275e-15 0)
(3 3.33172e-16 0)
(3 3.40008e-16 0)
(3 1.88798e-16 0)
(3 3.09053e-16 0)
(3 1.05729e-15 0)
(3 1.69489e-15 0)
(3 1.25688e-15 0)
(3 1.49107e-16 0)
(3 -3.3027e-16 0)
(3 -1.28584e-16 0)
(3 4.10634e-16 0)
(3 5.57025e-16 0)
(3 4.23571e-16 0)
(3 2.99335e-16 0)
(3 2.06944e-16 0)
(3 -5.02841e-16 0)
(3 5.08365e-17 0)
(3 -5.83157e-17 0)
(3 -3.43205e-17 0)
(3 -3.70545e-16 0)
(3 -6.99579e-16 0)
(3 -1.2976e-15 0)
(3 -1.45701e-15 0)
(3 -1.70879e-15 0)
(3 -1.86931e-15 0)
(3 -1.31317e-15 0)
(3 -1.75579e-17 0)
(3 7.44613e-16 0)
(3 7.80635e-16 0)
(3 1.04014e-16 0)
(3 -1.80293e-16 0)
(3 -1.15559e-15 0)
(3 -1.72129e-15 0)
(3 -1.66457e-15 0)
(3 -1.94839e-15 0)
(3 -1.7195e-15 0)
(3 -6.68649e-16 0)
(3 -4.15793e-16 0)
(3 -3.97694e-16 0)
(3 -3.45198e-16 0)
(3 -2.21012e-17 0)
(3 9.43497e-16 0)
(3 7.12565e-16 0)
(3 1.55865e-16 0)
(3 -1.15294e-15 0)
(3 -1.42661e-15 0)
(3 -1.77475e-15 0)
(3 -2.04246e-15 0)
(3 -2.05997e-15 0)
(3 -2.60547e-15 0)
(3 -2.38322e-15 0)
(3 -1.35988e-15 0)
(3 -9.96916e-16 0)
(3 -1.52528e-15 0)
(3 -1.13235e-15 0)
(3 -1.01896e-15 0)
(3 -1.33602e-15 0)
(3 -1.74524e-15 0)
(3 -2.24724e-15 0)
(3 -1.96955e-15 0)
(3 -2.04267e-15 0)
(3 -1.97309e-15 0)
(3 -1.8211e-15 0)
(3 -1.86137e-15 0)
(3 -2.16615e-15 0)
(3 -2.89802e-15 0)
(3 -1.39111e-15 0)
(3 -6.08611e-17 0)
(3 9.20932e-16 0)
(3 2.27597e-15 0)
(3 2.6158e-15 0)
(3 2.48592e-15 0)
(3 3.40507e-15 0)
(3 5.04379e-15 0)
(3 5.17119e-15 0)
(3 5.50373e-15 0)
(3 5.12876e-15 0)
(3 5.42708e-15 0)
(3 6.24852e-15 0)
(3 6.06197e-15 0)
(3 4.68852e-15 0)
(3 3.61121e-15 0)
(3 2.33218e-15 0)
(3 2.40434e-15 0)
(3 2.96038e-15 0)
(3 3.04829e-15 0)
(3 3.65907e-15 0)
(3 4.04467e-15 0)
(3 4.51347e-15 0)
(3 4.42719e-15 0)
(3 3.90057e-15 0)
(3 2.67339e-15 0)
(3 1.51411e-15 0)
(3 1.88094e-15 0)
(3 2.13947e-15 0)
(3 1.96706e-15 0)
(3 1.10588e-16 0)
(3 -3.17114e-16 0)
(3 -1.55591e-16 0)
(3 9.24961e-16 0)
(3 1.56125e-15 0)
(3 1.50021e-15 0)
(3 1.3794e-15 0)
(3 8.32749e-16 0)
(3 4.37919e-16 0)
(3 8.27929e-16 0)
(3 1.10644e-15 0)
(3 9.3256e-16 0)
(3 1.11775e-15 0)
(3 1.37587e-15 0)
(3 1.98746e-15 0)
(3 2.96243e-15 0)
(3 3.66621e-15 0)
(3 3.2859e-15 0)
(3 2.89302e-15 0)
(3 1.64702e-15 0)
(3 1.14753e-15 0)
(3 5.46622e-16 0)
(3 -4.65819e-16 0)
(3 -1.25639e-15 0)
(3 -1.17313e-15 0)
(3 -7.78474e-16 0)
(3 -1.1312e-15 0)
(3 -9.45933e-16 0)
(3 -9.87138e-16 0)
(3 -1.32647e-15 0)
(3 -1.49705e-15 0)
(3 -1.90024e-15 0)
(3 -1.25547e-15 0)
(3 1.90114e-16 0)
(3 1.57841e-15 0)
(3 1.68128e-15 0)
(3 5.7426e-16 0)
(3 -5.4659e-16 0)
(3 -6.4798e-16 0)
(3 -7.37915e-16 0)
(3 -1.53319e-15 0)
(3 -1.39864e-15 0)
(3 -1.88007e-15 0)
(3 -1.95265e-15 0)
(3 -3.26593e-15 0)
(3 -4.39781e-15 0)
(3 -4.51909e-15 0)
(3 -3.98928e-15 0)
(3 -3.75294e-15 0)
(3 -3.53573e-15 0)
(3 -3.1397e-15 0)
(3 -2.25122e-15 0)
(3 -2.12941e-15 0)
(3 -1.27225e-15 0)
(3 -1.39589e-15 0)
(3 -1.43569e-15 0)
(3 -1.8825e-15 0)
(3 -2.344e-15 0)
(3 -2.62504e-15 0)
(3 -1.4001e-15 0)
(3 -1.16827e-15 0)
(3 -6.33941e-16 0)
(3 -5.05745e-16 0)
(3 -7.65561e-16 0)
(3 -1.87157e-15 0)
(3 -1.96352e-15 0)
(3 6.92375e-16 0)
(3 1.70259e-15 0)
(3 3.22066e-15 0)
(3 5.59258e-15 0)
(3 6.08909e-15 0)
(3 6.16644e-15 0)
(3 5.9979e-15 0)
(3 6.12999e-15 0)
(3 5.47919e-15 0)
(3 5.66839e-15 0)
(3 6.17667e-15 0)
(3 5.86389e-15 0)
(3 5.70969e-15 0)
(3 5.64477e-15 0)
(3 4.43676e-15 0)
(3 4.29344e-15 0)
(3 3.30027e-15 0)
(3 2.80216e-15 0)
(3 2.45219e-15 0)
(3 2.66867e-15 0)
(3 3.77132e-15 0)
(3 4.45846e-15 0)
(3 3.44042e-15 0)
(3 2.73766e-15 0)
(3 2.08363e-15 0)
(3 5.47381e-16 0)
(3 6.82162e-16 0)
(3 1.43606e-15 0)
(3 2.3997e-15 0)
(3 2.60036e-15 0)
(3 -2.62274e-16 0)
(3 -1.60987e-16 0)
(3 2.76149e-16 0)
(3 5.26634e-16 0)
(3 5.14023e-16 0)
(3 5.96103e-16 0)
(3 9.25448e-16 0)
(3 1.26049e-15 0)
(3 6.71677e-16 0)
(3 5.48109e-16 0)
(3 6.54906e-17 0)
(3 1.17507e-16 0)
(3 5.22727e-16 0)
(3 5.12388e-16 0)
(3 6.30793e-16 0)
(3 1.93375e-15 0)
(3 1.79236e-15 0)
(3 1.63148e-15 0)
(3 1.58358e-15 0)
(3 2.0479e-15 0)
(3 2.07383e-15 0)
(3 1.68392e-15 0)
(3 7.27208e-16 0)
(3 1.44364e-16 0)
(3 -5.87889e-16 0)
(3 -1.96182e-15 0)
(3 -3.27014e-15 0)
(3 -3.2904e-15 0)
(3 -2.87783e-15 0)
(3 -2.50956e-15 0)
(3 -1.64067e-15 0)
(3 -8.15268e-16 0)
(3 5.37245e-16 0)
(3 1.87062e-15 0)
(3 2.58689e-15 0)
(3 2.64414e-15 0)
(3 1.69983e-15 0)
(3 3.10729e-16 0)
(3 5.15788e-16 0)
(3 6.32223e-16 0)
(3 -2.11378e-16 0)
(3 -1.48699e-15 0)
(3 -3.00601e-15 0)
(3 -3.40707e-15 0)
(3 -3.53514e-15 0)
(3 -4.34106e-15 0)
(3 -4.1616e-15 0)
(3 -3.71787e-15 0)
(3 -3.29692e-15 0)
(3 -2.6519e-15 0)
(3 -2.12732e-15 0)
(3 -1.606e-15 0)
(3 -1.79878e-15 0)
(3 -1.69481e-15 0)
(3 -2.35358e-15 0)
(3 -2.70597e-15 0)
(3 -2.3232e-15 0)
(3 -9.06645e-16 0)
(3 -2.28543e-16 0)
(3 -9.82722e-17 0)
(3 9.12885e-16 0)
(3 1.53952e-15 0)
(3 1.56093e-15 0)
(3 2.01436e-15 0)
(3 3.03054e-15 0)
(3 3.95436e-15 0)
(3 3.34805e-15 0)
(3 3.49736e-15 0)
(3 4.37397e-15 0)
(3 5.51414e-15 0)
(3 6.61983e-15 0)
(3 7.17061e-15 0)
(3 6.93679e-15 0)
(3 6.70034e-15 0)
(3 5.6155e-15 0)
(3 5.0891e-15 0)
(3 4.7195e-15 0)
(3 4.0873e-15 0)
(3 3.69691e-15 0)
(3 4.13475e-15 0)
(3 4.90765e-15 0)
(3 5.29354e-15 0)
(3 5.44167e-15 0)
(3 4.54799e-15 0)
(3 4.08745e-15 0)
(3 4.31687e-15 0)
(3 4.60512e-15 0)
(3 4.72666e-15 0)
(3 3.6116e-15 0)
(3 2.1538e-15 0)
(3 9.63715e-16 0)
(3 2.25413e-16 0)
(3 -2.77986e-16 0)
(3 -1.97155e-16 0)
(3 -1.11529e-16 0)
(3 8.69965e-16 0)
(3 3.89836e-16 0)
(3 4.43517e-16 0)
(3 5.4435e-16 0)
(3 -3.48327e-16 0)
(3 -4.55293e-16 0)
(3 -5.05282e-16 0)
(3 -5.65519e-16 0)
(3 -5.77795e-16 0)
(3 -5.29584e-18 0)
(3 -5.3673e-18 0)
(3 -4.49459e-16 0)
(3 -4.02222e-16 0)
(3 -4.08713e-16 0)
(3 3.0784e-16 0)
(3 2.61622e-16 0)
(3 7.21813e-16 0)
(3 1.08583e-15 0)
(3 1.26197e-15 0)
(3 1.40834e-15 0)
(3 1.53922e-15 0)
(3 5.5632e-16 0)
(3 -3.5714e-16 0)
(3 -9.1214e-16 0)
(3 -6.14614e-16 0)
(3 -1.03603e-15 0)
(3 -2.07548e-15 0)
(3 -2.95538e-15 0)
(3 -3.61942e-15 0)
(3 -3.23114e-15 0)
(3 -3.06194e-15 0)
(3 -2.35021e-15 0)
(3 -8.76887e-16 0)
(3 1.06342e-15 0)
(3 1.7317e-15 0)
(3 2.12643e-15 0)
(3 3.07042e-15 0)
(3 3.53061e-15 0)
(3 3.3981e-15 0)
(3 1.87207e-15 0)
(3 1.08274e-15 0)
(3 6.8617e-16 0)
(3 -1.36558e-16 0)
(3 -6.60572e-16 0)
(3 -2.50345e-15 0)
(3 -3.38487e-15 0)
(3 -3.2823e-15 0)
(3 -2.81786e-15 0)
(3 -2.49916e-15 0)
(3 -2.24225e-15 0)
(3 -1.27617e-15 0)
(3 -4.90674e-16 0)
(3 -4.66725e-17 0)
(3 -4.78635e-16 0)
(3 -1.79183e-15 0)
(3 -1.79136e-15 0)
(3 -1.4167e-15 0)
(3 -7.78881e-16 0)
(3 1.63043e-16 0)
(3 4.26858e-16 0)
(3 5.69992e-16 0)
(3 1.82672e-15 0)
(3 2.28509e-15 0)
(3 2.17357e-15 0)
(3 2.8435e-15 0)
(3 4.90835e-15 0)
(3 4.86354e-15 0)
(3 4.32638e-15 0)
(3 4.0549e-15 0)
(3 5.20326e-15 0)
(3 4.89853e-15 0)
(3 4.55259e-15 0)
(3 4.20156e-15 0)
(3 3.40822e-15 0)
(3 2.5202e-15 0)
(3 1.83416e-15 0)
(3 1.77907e-15 0)
(3 1.07234e-15 0)
(3 5.07627e-16 0)
(3 3.29123e-16 0)
(3 1.03961e-15 0)
(3 3.75281e-15 0)
(3 5.12921e-15 0)
(3 6.36267e-15 0)
(3 7.14576e-15 0)
(3 7.76418e-15 0)
(3 6.8119e-15 0)
(3 6.31047e-15 0)
(3 4.82734e-15 0)
(3 2.46385e-15 0)
(3 1.43362e-15 0)
(3 9.68849e-16 0)
(3 4.0141e-16 0)
(3 4.28129e-17 0)
(3 -1.17124e-15 0)
(3 -2.26239e-15 0)
(3 -2.03677e-15 0)
(3 -3.85915e-18 0)
(3 -7.81664e-18 0)
(3 -1.71611e-18 0)
(3 -1.19934e-16 0)
(3 2.14259e-16 0)
(3 1.29077e-16 0)
(3 9.19885e-17 0)
(3 2.93518e-16 0)
(3 4.58728e-16 0)
(3 2.79799e-16 0)
(3 3.50559e-16 0)
(3 4.85736e-16 0)
(3 2.69789e-16 0)
(3 3.55913e-16 0)
(3 5.58894e-16 0)
(3 3.75519e-17 0)
(3 4.41394e-16 0)
(3 1.02731e-15 0)
(3 6.60437e-16 0)
(3 -4.02293e-17 0)
(3 -4.28274e-16 0)
(3 -5.72478e-16 0)
(3 -1.0641e-15 0)
(3 -1.60738e-15 0)
(3 -1.13471e-15 0)
(3 -6.75581e-16 0)
(3 -1.38138e-16 0)
(3 -1.52372e-16 0)
(3 -4.65108e-16 0)
(3 -3.05615e-16 0)
(3 1.11576e-16 0)
(3 1.04065e-15 0)
(3 2.21259e-15 0)
(3 2.19992e-15 0)
(3 2.33521e-15 0)
(3 2.2209e-15 0)
(3 3.07953e-15 0)
(3 3.18857e-15 0)
(3 2.80901e-15 0)
(3 1.63833e-15 0)
(3 8.86266e-16 0)
(3 -3.43093e-16 0)
(3 -6.40649e-16 0)
(3 -1.63915e-15 0)
(3 -2.46851e-15 0)
(3 -1.98078e-15 0)
(3 -1.57687e-15 0)
(3 -8.88143e-16 0)
(3 -4.32193e-16 0)
(3 5.03196e-16 0)
(3 1.28353e-15 0)
(3 1.42702e-15 0)
(3 2.13978e-15 0)
(3 2.11217e-15 0)
(3 1.61374e-15 0)
(3 1.67212e-15 0)
(3 1.01929e-15 0)
(3 5.95949e-16 0)
(3 4.38722e-16 0)
(3 1.02168e-15 0)
(3 1.82689e-15 0)
(3 3.00911e-15 0)
(3 4.61687e-15 0)
(3 4.96873e-15 0)
(3 4.85406e-15 0)
(3 4.22501e-15 0)
(3 4.12609e-15 0)
(3 3.56265e-15 0)
(3 3.23933e-15 0)
(3 3.11296e-15 0)
(3 2.69646e-15 0)
(3 2.23225e-15 0)
(3 1.37124e-15 0)
(3 2.5122e-16 0)
(3 -1.45272e-15 0)
(3 -2.47456e-15 0)
(3 -2.38192e-15 0)
(3 -2.08879e-15 0)
(3 -1.91998e-15 0)
(3 -1.66509e-15 0)
(3 9.38861e-16 0)
(3 4.4641e-15 0)
(3 7.64342e-15 0)
(3 8.49882e-15 0)
(3 8.81306e-15 0)
(3 8.44765e-15 0)
(3 6.89927e-15 0)
(3 5.02094e-15 0)
(3 2.15005e-15 0)
(3 9.62827e-16 0)
(3 1.14372e-15 0)
(3 3.78541e-16 0)
(3 -5.43451e-16 0)
(3 -1.09319e-15 0)
(3 -1.27968e-15 0)
(3 -1.73149e-15 0)
(3 -4.23425e-16 0)
(3 -4.09855e-16 0)
(3 -2.80573e-16 0)
(3 2.33231e-16 0)
(3 7.03959e-16 0)
(3 1.07639e-15 0)
(3 1.17155e-15 0)
(3 1.22463e-15 0)
(3 1.04556e-15 0)
(3 6.04216e-16 0)
(3 7.97692e-16 0)
(3 1.02566e-15 0)
(3 4.92062e-16 0)
(3 2.54873e-16 0)
(3 -2.40688e-16 0)
(3 -7.35957e-16 0)
(3 -5.23156e-16 0)
(3 -3.91695e-17 0)
(3 -1.97152e-16 0)
(3 -1.76746e-16 0)
(3 4.25773e-16 0)
(3 5.50349e-16 0)
(3 1.45389e-15 0)
(3 1.54956e-15 0)
(3 1.63979e-15 0)
(3 1.86052e-15 0)
(3 2.07731e-15 0)
(3 2.11801e-15 0)
(3 1.41275e-15 0)
(3 1.44981e-15 0)
(3 2.51902e-15 0)
(3 3.2535e-15 0)
(3 2.79181e-15 0)
(3 2.54793e-15 0)
(3 2.37649e-15 0)
(3 2.79301e-15 0)
(3 2.77846e-15 0)
(3 2.79008e-15 0)
(3 1.67007e-15 0)
(3 9.9855e-16 0)
(3 4.09348e-16 0)
(3 -1.56427e-15 0)
(3 -2.59606e-15 0)
(3 -2.25907e-15 0)
(3 -1.96895e-15 0)
(3 -1.44606e-15 0)
(3 -9.41492e-16 0)
(3 1.34583e-16 0)
(3 7.83408e-16 0)
(3 1.05974e-15 0)
(3 1.59113e-15 0)
(3 1.83451e-15 0)
(3 2.81721e-15 0)
(3 3.64469e-15 0)
(3 3.51094e-15 0)
(3 3.10567e-15 0)
(3 2.62527e-15 0)
(3 2.33038e-15 0)
(3 1.98826e-15 0)
(3 1.85492e-15 0)
(3 1.56714e-15 0)
(3 1.61119e-15 0)
(3 2.83103e-15 0)
(3 3.72676e-15 0)
(3 3.54082e-15 0)
(3 2.81704e-15 0)
(3 2.64739e-15 0)
(3 2.32765e-15 0)
(3 1.00553e-15 0)
(3 6.29476e-16 0)
(3 5.19054e-16 0)
(3 2.69583e-16 0)
(3 -2.45136e-16 0)
(3 7.22474e-17 0)
(3 -8.26007e-16 0)
(3 -2.95964e-15 0)
(3 -4.05992e-15 0)
(3 -3.74975e-15 0)
(3 -3.16736e-15 0)
(3 -1.7325e-15 0)
(3 -1.79317e-16 0)
(3 1.29039e-15 0)
(3 3.60962e-15 0)
(3 4.80645e-15 0)
(3 4.69277e-15 0)
(3 4.12581e-15 0)
(3 3.39269e-15 0)
(3 1.96426e-15 0)
(3 1.17695e-15 0)
(3 7.21112e-16 0)
(3 1.79507e-16 0)
(3 -6.12532e-16 0)
(3 -1.0534e-15 0)
(3 -1.50689e-15 0)
(3 -1.57454e-15 0)
(3 -2.14e-15 0)
(3 -5.07579e-17 0)
(3 -8.85841e-17 0)
(3 -8.9362e-17 0)
(3 1.75558e-16 0)
(3 3.17021e-16 0)
(3 7.55587e-16 0)
(3 4.83686e-16 0)
(3 3.98266e-16 0)
(3 4.11224e-16 0)
(3 8.89151e-16 0)
(3 9.33657e-16 0)
(3 -1.10322e-16 0)
(3 -8.00532e-16 0)
(3 -8.8857e-16 0)
(3 -9.30694e-16 0)
(3 -1.15852e-15 0)
(3 -8.76737e-16 0)
(3 -4.23331e-16 0)
(3 -1.77782e-16 0)
(3 -1.46977e-16 0)
(3 -1.56555e-16 0)
(3 2.96273e-16 0)
(3 2.62983e-15 0)
(3 3.00773e-15 0)
(3 2.55614e-15 0)
(3 2.16681e-15 0)
(3 1.51545e-15 0)
(3 1.23258e-15 0)
(3 1.29084e-15 0)
(3 1.60905e-15 0)
(3 2.27933e-15 0)
(3 2.01468e-15 0)
(3 1.74195e-15 0)
(3 2.25011e-15 0)
(3 2.42419e-15 0)
(3 2.64925e-15 0)
(3 1.40072e-15 0)
(3 4.5178e-16 0)
(3 -8.33845e-16 0)
(3 -1.40913e-15 0)
(3 -1.44628e-15 0)
(3 -2.56931e-15 0)
(3 -1.98046e-15 0)
(3 -8.49877e-16 0)
(3 7.92718e-16 0)
(3 1.38362e-15 0)
(3 1.69451e-15 0)
(3 1.57214e-15 0)
(3 1.01222e-15 0)
(3 -8.6328e-18 0)
(3 4.50823e-17 0)
(3 6.70657e-16 0)
(3 1.99841e-15 0)
(3 3.09479e-15 0)
(3 2.58501e-15 0)
(3 2.3856e-15 0)
(3 2.39809e-15 0)
(3 2.66462e-15 0)
(3 2.91128e-15 0)
(3 2.46262e-15 0)
(3 2.06024e-15 0)
(3 1.52249e-15 0)
(3 1.61092e-15 0)
(3 2.41192e-15 0)
(3 3.274e-15 0)
(3 3.38369e-15 0)
(3 3.79387e-15 0)
(3 2.24642e-15 0)
(3 1.81587e-15 0)
(3 -7.74986e-17 0)
(3 -2.10163e-15 0)
(3 -3.36693e-15 0)
(3 -2.5711e-15 0)
(3 -2.76991e-15 0)
(3 -2.64487e-15 0)
(3 -2.96378e-15 0)
(3 -3.58374e-15 0)
(3 -3.3535e-15 0)
(3 -2.1105e-15 0)
(3 1.13608e-16 0)
(3 3.61688e-16 0)
(3 -3.86966e-17 0)
(3 -1.78763e-16 0)
(3 8.68663e-16 0)
(3 1.58463e-15 0)
(3 9.83833e-16 0)
(3 3.11659e-16 0)
(3 -3.57228e-16 0)
(3 -9.45396e-16 0)
(3 -1.23995e-15 0)
(3 -1.90099e-15 0)
(3 -1.84898e-15 0)
(3 -3.73917e-16 0)
(3 -5.20146e-16 0)
(3 -9.5317e-16 0)
(3 -9.95327e-16 0)
(3 -1.53662e-16 0)
(3 -3.18487e-16 0)
(3 -6.37196e-16 0)
(3 -9.41031e-16 0)
(3 -7.83818e-16 0)
(3 -8.74852e-16 0)
(3 -8.12981e-16 0)
(3 -2.77212e-17 0)
(3 6.71399e-16 0)
(3 1.01957e-15 0)
(3 8.48025e-16 0)
(3 1.61683e-16 0)
(3 4.45151e-16 0)
(3 3.03676e-16 0)
(3 1.58905e-16 0)
(3 -7.90985e-16 0)
(3 -1.53484e-15 0)
(3 -1.41001e-15 0)
(3 -7.10631e-16 0)
(3 -2.85603e-16 0)
(3 7.77762e-16 0)
(3 1.16476e-15 0)
(3 9.08156e-16 0)
(3 1.20597e-15 0)
(3 1.64469e-15 0)
(3 1.33402e-15 0)
(3 1.02494e-15 0)
(3 8.695e-16 0)
(3 1.00493e-15 0)
(3 1.0477e-15 0)
(3 7.77114e-16 0)
(3 5.02053e-16 0)
(3 1.14373e-15 0)
(3 1.35544e-15 0)
(3 1.68996e-15 0)
(3 1.06161e-15 0)
(3 -3.45638e-16 0)
(3 -1.92185e-15 0)
(3 -2.20314e-15 0)
(3 -1.39999e-15 0)
(3 -6.59192e-16 0)
(3 1.6822e-17 0)
(3 7.14203e-16 0)
(3 2.76778e-15 0)
(3 4.74036e-15 0)
(3 5.22028e-15 0)
(3 5.13897e-15 0)
(3 3.66194e-15 0)
(3 1.84777e-15 0)
(3 9.52873e-16 0)
(3 5.81299e-16 0)
(3 1.30378e-15 0)
(3 1.81612e-15 0)
(3 2.09458e-15 0)
(3 2.72893e-15 0)
(3 2.51201e-15 0)
(3 2.57775e-15 0)
(3 2.77135e-15 0)
(3 3.01941e-15 0)
(3 2.93615e-15 0)
(3 2.80169e-15 0)
(3 2.84106e-15 0)
(3 2.45303e-15 0)
(3 1.75494e-15 0)
(3 1.80075e-15 0)
(3 2.9501e-15 0)
(3 3.23358e-15 0)
(3 1.78561e-15 0)
(3 8.01642e-16 0)
(3 -4.98655e-16 0)
(3 -2.34332e-15 0)
(3 -3.23455e-15 0)
(3 -3.10562e-15 0)
(3 -2.53261e-15 0)
(3 -2.15174e-15 0)
(3 -1.02605e-15 0)
(3 -6.88297e-16 0)
(3 3.4932e-16 0)
(3 7.52037e-16 0)
(3 7.68339e-16 0)
(3 3.13232e-16 0)
(3 -1.22402e-15 0)
(3 -1.90472e-15 0)
(3 -1.44055e-15 0)
(3 -3.98202e-16 0)
(3 -2.88101e-16 0)
(3 -6.53923e-16 0)
(3 -1.18558e-15 0)
(3 -1.85618e-15 0)
(3 -1.40965e-15 0)
(3 -9.464e-16 0)
(3 1.57285e-17 0)
(3 1.41689e-15 0)
(3 2.04615e-15 0)
(3 1.88343e-15 0)
(3 1.33511e-15 0)
(3 -2.74497e-18 0)
(3 1.80681e-16 0)
(3 2.10337e-16 0)
(3 5.80347e-17 0)
(3 -4.25239e-16 0)
(3 -8.7242e-16 0)
(3 -5.99129e-16 0)
(3 2.12489e-17 0)
(3 2.41242e-16 0)
(3 1.54619e-16 0)
(3 6.79214e-16 0)
(3 1.26558e-15 0)
(3 1.55155e-15 0)
(3 9.56279e-16 0)
(3 1.40974e-16 0)
(3 -4.07558e-16 0)
(3 -8.2747e-16 0)
(3 -9.02487e-16 0)
(3 -5.06921e-16 0)
(3 2.85516e-16 0)
(3 5.47099e-16 0)
(3 6.89659e-16 0)
(3 5.01828e-16 0)
(3 6.29935e-16 0)
(3 2.67401e-16 0)
(3 2.42315e-16 0)
(3 9.29875e-18 0)
(3 1.54264e-16 0)
(3 4.99872e-16 0)
(3 5.28067e-16 0)
(3 -1.09249e-16 0)
(3 1.68653e-17 0)
(3 -7.07498e-17 0)
(3 -9.94002e-16 0)
(3 -1.13506e-15 0)
(3 -1.61678e-15 0)
(3 -1.9898e-15 0)
(3 -9.82089e-16 0)
(3 3.54028e-16 0)
(3 2.0761e-15 0)
(3 3.05039e-15 0)
(3 4.6643e-15 0)
(3 5.92804e-15 0)
(3 6.61483e-15 0)
(3 7.42569e-15 0)
(3 7.57844e-15 0)
(3 6.6237e-15 0)
(3 5.82024e-15 0)
(3 5.5493e-15 0)
(3 4.88087e-15 0)
(3 4.10671e-15 0)
(3 2.03129e-15 0)
(3 1.30737e-15 0)
(3 1.14007e-15 0)
(3 2.24417e-15 0)
(3 2.67855e-15 0)
(3 2.94192e-15 0)
(3 2.80338e-15 0)
(3 2.66254e-15 0)
(3 2.46242e-15 0)