/*--------------------------------*- C++ -*----------------------------------*\
  =========                 |
  \\      /  F ield         | OpenFOAM: The Open Source CFD Toolbox
   \\    /   O peration     | Website:  https://openfoam.org
    \\  /    A nd           | Version:  7
     \\/     M anipulation  |
\*---------------------------------------------------------------------------*/
FoamFile
{
    version     2.0;
    format      ascii;
    class       volVectorField;
    location    "1.4";
    object      U;
}
// * * * * * * * * * * * * * * * * * * * * * * * * * * * * * * * * * * * * * //

dimensions      [0 1 -1 0 0 0 0];

internalField   nonuniform List<vector> 
73728
(
(3 -4.90298e-17 0)
(3 -4.62838e-17 0)
(3 2.59146e-16 0)
(3 3.52578e-16 0)
(3 1.4934e-16 0)
(3 -2.88718e-16 0)
(3 -3.27383e-16 0)
(3 -3.10673e-16 0)
(3 -2.96888e-16 0)
(3 -6.32313e-16 0)
(3 -3.96036e-16 0)
(3 5.85405e-17 0)
(3 2.47025e-16 0)
(3 3.0162e-16 0)
(3 -4.07464e-16 0)
(3 -8.82809e-16 0)
(3 -6.05592e-16 0)
(3 4.91485e-16 0)
(3 8.51542e-16 0)
(3 9.07461e-16 0)
(3 3.51324e-16 0)
(3 3.02847e-16 0)
(3 -1.11529e-17 0)
(3 -8.74682e-16 0)
(3 -4.12447e-16 0)
(3 9.3739e-17 0)
(3 2.77979e-16 0)
(3 7.29574e-16 0)
(3 7.82743e-16 0)
(3 7.75959e-16 0)
(3 3.53512e-16 0)
(3 3.60513e-16 0)
(3 6.74212e-16 0)
(3 1.22258e-15 0)
(3 1.53146e-15 0)
(3 1.32004e-15 0)
(3 8.93293e-16 0)
(3 6.25663e-16 0)
(3 6.75575e-16 0)
(3 6.08806e-16 0)
(3 5.51554e-16 0)
(3 9.63675e-16 0)
(3 1.26232e-15 0)
(3 4.89319e-16 0)
(3 -3.48468e-16 0)
(3 -9.38984e-16 0)
(3 -7.36512e-16 0)
(3 -2.64512e-16 0)
(3 4.85083e-16 0)
(3 4.81552e-16 0)
(3 4.16314e-16 0)
(3 7.81006e-16 0)
(3 1.04195e-15 0)
(3 1.0675e-15 0)
(3 8.05995e-16 0)
(3 9.65007e-16 0)
(3 1.49047e-15 0)
(3 1.66001e-15 0)
(3 9.69887e-16 0)
(3 5.29679e-16 0)
(3 5.47766e-16 0)
(3 2.87042e-16 0)
(3 -2.85865e-16 0)
(3 -7.50722e-16 0)
(3 -8.05632e-16 0)
(3 -7.43734e-16 0)
(3 -5.48795e-16 0)
(3 -6.89585e-16 0)
(3 -6.81956e-16 0)
(3 -5.40353e-16 0)
(3 -6.44917e-16 0)
(3 -8.6797e-16 0)
(3 -7.59929e-16 0)
(3 -5.12379e-16 0)
(3 -1.15628e-16 0)
(3 -3.89799e-17 0)
(3 -1.40963e-16 0)
(3 -3.99415e-16 0)
(3 -3.40274e-16 0)
(3 -6.58084e-16 0)
(3 -8.24421e-16 0)
(3 -1.54486e-15 0)
(3 -1.33525e-15 0)
(3 -6.61328e-16 0)
(3 -2.17551e-16 0)
(3 -3.98808e-16 0)
(3 -6.52614e-16 0)
(3 -7.17779e-16 0)
(3 -1.50673e-16 0)
(3 3.04235e-16 0)
(3 7.47268e-16 0)
(3 1.00715e-15 0)
(3 9.73416e-16 0)
(3 5.05668e-16 0)
(3 -1.86279e-15 0)
(3 -1.98743e-15 0)
(3 -3.45079e-17 0)
(3 1.00302e-16 0)
(3 6.60095e-16 0)
(3 6.10664e-16 0)
(3 5.83852e-17 0)
(3 -4.01971e-16 0)
(3 -3.95776e-16 0)
(3 -2.30222e-16 0)
(3 -2.08731e-16 0)
(3 -5.92523e-17 0)
(3 -2.38137e-16 0)
(3 -2.07562e-16 0)
(3 2.79113e-16 0)
(3 4.52435e-16 0)
(3 -3.37789e-16 0)
(3 -7.24664e-16 0)
(3 -4.18299e-16 0)
(3 5.04623e-16 0)
(3 5.53706e-16 0)
(3 7.08222e-16 0)
(3 -2.99213e-16 0)
(3 -1.15138e-15 0)
(3 -1.21145e-15 0)
(3 -1.1338e-15 0)
(3 -5.19034e-16 0)
(3 4.78169e-17 0)
(3 6.56504e-16 0)
(3 1.0472e-15 0)
(3 1.00761e-15 0)
(3 8.33735e-16 0)
(3 7.97244e-16 0)
(3 4.31831e-16 0)
(3 5.14594e-16 0)
(3 1.20191e-15 0)
(3 1.39699e-15 0)
(3 1.53291e-15 0)
(3 1.11636e-15 0)
(3 4.06092e-16 0)
(3 -2.45179e-16 0)
(3 -8.2218e-16 0)
(3 -8.32114e-16 0)
(3 5.75388e-17 0)
(3 5.45771e-16 0)
(3 5.09843e-16 0)
(3 -5.01531e-16 0)
(3 -9.76982e-16 0)
(3 -1.05376e-15 0)
(3 -4.73202e-16 0)
(3 -8.15573e-17 0)
(3 -5.03e-16 0)
(3 -8.22332e-16 0)
(3 -3.16358e-17 0)
(3 4.62135e-16 0)
(3 6.83242e-16 0)
(3 8.71984e-16 0)
(3 6.96238e-16 0)
(3 7.64393e-16 0)
(3 5.92597e-16 0)
(3 -5.34224e-16 0)
(3 -7.37095e-16 0)
(3 -8.76023e-16 0)
(3 -8.70891e-16 0)
(3 -1.63665e-15 0)
(3 -2.29272e-15 0)
(3 -2.70473e-15 0)
(3 -2.71378e-15 0)
(3 -2.54194e-15 0)
(3 -2.45639e-15 0)
(3 -2.2012e-15 0)
(3 -1.71949e-15 0)
(3 -1.53164e-15 0)
(3 -1.69514e-15 0)
(3 -9.40134e-16 0)
(3 -5.96703e-16 0)
(3 1.27431e-17 0)
(3 2.15073e-16 0)
(3 7.74846e-18 0)
(3 -6.66512e-16 0)
(3 -9.53284e-16 0)
(3 -1.80595e-15 0)
(3 -1.74967e-15 0)
(3 -1.5805e-15 0)
(3 -1.55786e-15 0)
(3 7.88969e-17 0)
(3 -1.21362e-16 0)
(3 -7.62792e-16 0)
(3 -1.08291e-15 0)
(3 -1.58347e-15 0)
(3 -1.10838e-15 0)
(3 4.37757e-16 0)
(3 1.10214e-15 0)
(3 9.52305e-16 0)
(3 4.11626e-16 0)
(3 -1.70667e-15 0)
(3 -3.57039e-15 0)
(3 -3.10699e-15 0)
(3 3.79641e-18 0)
(3 1.64741e-16 0)
(3 1.02821e-16 0)
(3 1.24972e-17 0)
(3 4.10148e-17 0)
(3 1.00178e-16 0)
(3 3.28302e-16 0)
(3 4.66973e-16 0)
(3 7.15127e-16 0)
(3 8.85869e-16 0)
(3 1.15643e-15 0)
(3 7.43087e-16 0)
(3 2.85613e-16 0)
(3 2.19044e-17 0)
(3 -1.62067e-16 0)
(3 -2.65479e-16 0)
(3 -2.38782e-16 0)
(3 3.80129e-16 0)
(3 7.50474e-16 0)
(3 6.98849e-16 0)
(3 2.71401e-16 0)
(3 -3.8213e-16 0)
(3 -2.0137e-16 0)
(3 -2.2919e-16 0)
(3 -5.15532e-16 0)
(3 -5.34009e-16 0)
(3 -5.51978e-16 0)
(3 -2.10759e-16 0)
(3 2.3133e-16 0)
(3 2.15795e-16 0)
(3 1.88945e-16 0)
(3 7.21038e-16 0)
(3 7.78681e-16 0)
(3 4.32957e-16 0)
(3 8.16646e-16 0)
(3 1.27324e-15 0)
(3 1.30536e-15 0)
(3 7.84244e-16 0)
(3 -4.25923e-16 0)
(3 -9.79787e-16 0)
(3 -1.18636e-15 0)
(3 -1.70871e-15 0)
(3 -2.12408e-15 0)
(3 -1.81748e-15 0)
(3 -2.27402e-15 0)
(3 -2.15561e-15 0)
(3 -1.42209e-15 0)
(3 -1.93068e-16 0)
(3 5.05372e-16 0)
(3 8.74809e-16 0)
(3 4.525e-16 0)
(3 -1.43433e-16 0)
(3 -3.30002e-17 0)
(3 4.72203e-16 0)
(3 1.46206e-15 0)
(3 1.4935e-15 0)
(3 1.34415e-15 0)
(3 8.93411e-16 0)
(3 9.80364e-16 0)
(3 1.4158e-15 0)
(3 1.94336e-15 0)
(3 1.73393e-15 0)
(3 2.77596e-17 0)
(3 -9.38258e-16 0)
(3 -1.67097e-15 0)
(3 -2.07145e-15 0)
(3 -1.58713e-15 0)
(3 -3.14646e-16 0)
(3 1.06337e-16 0)
(3 2.64679e-17 0)
(3 -1.02301e-15 0)
(3 -1.40644e-15 0)
(3 -9.73631e-16 0)
(3 -1.04455e-15 0)
(3 -6.11826e-16 0)
(3 -8.27221e-17 0)
(3 -3.73861e-16 0)
(3 -1.15767e-15 0)
(3 -2.12147e-15 0)
(3 -1.87278e-15 0)
(3 -1.95186e-15 0)
(3 -1.24008e-15 0)
(3 -7.46574e-16 0)
(3 -9.76732e-18 0)
(3 3.36872e-17 0)
(3 3.8357e-16 0)
(3 7.46023e-17 0)
(3 -5.7542e-16 0)
(3 -1.45043e-15 0)
(3 -8.78446e-16 0)
(3 4.45458e-16 0)
(3 -5.68389e-16 0)
(3 -2.22413e-15 0)
(3 -1.88773e-15 0)
(3 -7.36332e-16 0)
(3 -4.16145e-16 0)
(3 2.21916e-17 0)
(3 1.29873e-16 0)
(3 5.33307e-17 0)
(3 -3.48073e-16 0)
(3 -2.5577e-16 0)
(3 1.69023e-16 0)
(3 7.00305e-16 0)
(3 1.37354e-15 0)
(3 1.11028e-15 0)
(3 3.66141e-16 0)
(3 6.65229e-16 0)
(3 6.57609e-16 0)
(3 5.31006e-16 0)
(3 -2.02816e-16 0)
(3 -6.08506e-16 0)
(3 -7.07414e-16 0)
(3 -5.0809e-16 0)
(3 -3.02427e-17 0)
(3 1.97436e-16 0)
(3 -3.35997e-16 0)
(3 -3.47484e-16 0)
(3 1.0631e-16 0)
(3 4.38428e-16 0)
(3 1.66526e-16 0)
(3 -5.08796e-16 0)
(3 -7.3917e-16 0)
(3 -6.78987e-16 0)
(3 -5.31436e-16 0)
(3 -6.05662e-16 0)
(3 -5.35613e-16 0)
(3 -1.86018e-16 0)
(3 4.04716e-16 0)
(3 6.35101e-16 0)
(3 3.84586e-16 0)
(3 6.85656e-16 0)
(3 9.41525e-16 0)
(3 1.17351e-15 0)
(3 7.14697e-16 0)
(3 7.74496e-17 0)
(3 -1.72945e-16 0)
(3 8.71766e-17 0)
(3 -4.61521e-16 0)
(3 -1.39097e-15 0)
(3 -1.97764e-15 0)
(3 -2.46042e-15 0)
(3 -2.94925e-15 0)
(3 -2.50018e-15 0)
(3 -1.20433e-15 0)
(3 7.59565e-16 0)
(3 1.08212e-15 0)
(3 1.07344e-15 0)
(3 7.71682e-16 0)
(3 4.90948e-16 0)
(3 7.34754e-16 0)
(3 7.20896e-16 0)
(3 1.00748e-15 0)
(3 1.21697e-15 0)
(3 1.1727e-15 0)
(3 9.92202e-16 0)
(3 8.56368e-16 0)
(3 1.53669e-15 0)
(3 1.52725e-15 0)
(3 1.091e-15 0)
(3 1.5965e-18 0)
(3 -1.00068e-15 0)
(3 -1.37264e-15 0)
(3 1.83415e-16 0)
(3 1.30295e-15 0)
(3 1.653e-15 0)
(3 8.89317e-16 0)
(3 -3.60152e-16 0)
(3 -1.06965e-15 0)
(3 -1.35861e-15 0)
(3 -1.50192e-15 0)
(3 -1.57516e-15 0)
(3 -1.60152e-15 0)
(3 -1.27511e-15 0)
(3 -1.10747e-15 0)
(3 -1.17658e-15 0)
(3 -8.14945e-16 0)
(3 -7.21734e-16 0)
(3 -6.12476e-16 0)
(3 3.3696e-18 0)
(3 -1.46681e-15 0)
(3 -1.59125e-15 0)
(3 -8.91604e-17 0)
(3 4.90433e-16 0)
(3 3.76049e-16 0)
(3 -4.61953e-16 0)
(3 -5.24868e-16 0)
(3 -3.31322e-16 0)
(3 -7.65099e-16 0)
(3 -6.70012e-16 0)
(3 2.26277e-16 0)
(3 7.43141e-16 0)
(3 1.0493e-15 0)
(3 -5.47095e-17 0)
(3 -2.11766e-16 0)
(3 -3.09687e-16 0)
(3 -4.52221e-16 0)
(3 -5.17266e-17 0)
(3 3.35448e-16 0)
(3 4.58122e-16 0)
(3 3.29257e-16 0)
(3 1.50859e-16 0)
(3 3.52095e-17 0)
(3 -8.7313e-16 0)
(3 -9.88213e-16 0)
(3 -3.34043e-16 0)
(3 -2.18768e-16 0)
(3 -5.37114e-16 0)
(3 -5.94266e-16 0)
(3 -5.77483e-16 0)
(3 -9.01943e-16 0)
(3 -1.34157e-15 0)
(3 -2.32365e-15 0)
(3 -1.46113e-15 0)
(3 -1.19627e-15 0)
(3 -5.29812e-16 0)
(3 1.56547e-16 0)
(3 1.12587e-15 0)
(3 7.17876e-16 0)
(3 -1.36848e-16 0)
(3 -7.50705e-16 0)
(3 -1.23931e-15 0)
(3 -1.06315e-15 0)
(3 -7.70285e-16 0)
(3 -1.32869e-16 0)
(3 6.85033e-17 0)
(3 -3.06574e-17 0)
(3 -3.17788e-16 0)
(3 -2.90857e-16 0)
(3 -4.5825e-16 0)
(3 -3.51321e-16 0)
(3 3.32728e-16 0)
(3 1.65216e-16 0)
(3 4.29505e-16 0)
(3 1.30603e-15 0)
(3 4.11053e-16 0)
(3 -2.08678e-15 0)
(3 -2.37167e-15 0)
(3 -2.03901e-15 0)
(3 -1.79897e-16 0)
(3 7.58137e-16 0)
(3 1.68513e-15 0)
(3 1.42029e-15 0)
(3 1.03866e-15 0)
(3 1.16463e-15 0)
(3 1.0876e-15 0)
(3 6.71733e-16 0)
(3 -2.98998e-16 0)
(3 -2.19627e-16 0)
(3 -9.76171e-17 0)
(3 4.90489e-17 0)
(3 -9.88103e-17 0)
(3 -5.70817e-16 0)
(3 -2.12884e-16 0)
(3 1.35367e-15 0)
(3 1.8336e-15 0)
(3 1.17607e-15 0)
(3 -1.78182e-15 0)
(3 -3.35212e-15 0)
(3 -1.34275e-15 0)
(3 5.28621e-18 0)
(3 -7.41145e-17 0)
(3 -8.51631e-16 0)
(3 -4.63346e-16 0)
(3 -6.26486e-16 0)
(3 -1.63704e-15 0)
(3 -2.12073e-15 0)
(3 -2.50152e-15 0)
(3 -2.72103e-15 0)
(3 -1.86927e-15 0)
(3 -7.49411e-16 0)
(3 -3.51705e-16 0)
(3 -4.87065e-16 0)
(3 -5.13682e-16 0)
(3 -4.48005e-16 0)
(3 -4.88967e-16 0)
(3 -2.21177e-15 0)
(3 -2.88887e-15 0)
(3 -1.92936e-15 0)
(3 -2.42126e-16 0)
(3 -2.37564e-16 0)
(3 -4.44599e-16 0)
(3 -3.62841e-16 0)
(3 -2.25406e-16 0)
(3 7.48051e-16 0)
(3 2.20929e-15 0)
(3 3.13829e-15 0)
(3 2.42259e-15 0)
(3 1.96386e-15 0)
(3 -3.18685e-18 0)
(3 -1.70989e-16 0)
(3 -7.3706e-17 0)
(3 6.12536e-17 0)
(3 3.51039e-16 0)
(3 2.52286e-16 0)
(3 -3.88558e-16 0)
(3 -9.84868e-16 0)
(3 -8.51104e-16 0)
(3 -1.21306e-17 0)
(3 -2.08507e-17 0)
(3 -4.19133e-16 0)
(3 -5.35258e-16 0)
(3 -5.91552e-16 0)
(3 -7.95807e-16 0)
(3 -3.534e-16 0)
(3 -5.78809e-16 0)
(3 -1.3312e-15 0)
(3 -1.54966e-15 0)
(3 -2.19033e-15 0)
(3 -2.07056e-15 0)
(3 -8.84829e-16 0)
(3 3.29689e-16 0)
(3 5.60479e-16 0)
(3 9.16263e-16 0)
(3 1.08964e-15 0)
(3 4.07889e-16 0)
(3 -1.75856e-17 0)
(3 -5.74116e-16 0)
(3 -8.53827e-16 0)
(3 -4.40021e-16 0)
(3 -3.65695e-16 0)
(3 -3.67973e-16 0)
(3 -9.10037e-16 0)
(3 -9.08067e-16 0)
(3 -9.73811e-16 0)
(3 -4.48149e-16 0)
(3 -2.94688e-17 0)
(3 3.72563e-16 0)
(3 9.17223e-16 0)
(3 9.70499e-16 0)
(3 1.49308e-15 0)
(3 1.14246e-15 0)
(3 -1.22739e-16 0)
(3 -8.42678e-16 0)
(3 4.33433e-17 0)
(3 3.04131e-15 0)
(3 3.02331e-15 0)
(3 2.86687e-15 0)
(3 2.5101e-15 0)
(3 7.74123e-16 0)
(3 2.25014e-16 0)
(3 1.38708e-16 0)
(3 -6.67219e-17 0)
(3 -4.46733e-16 0)
(3 -1.64014e-15 0)
(3 -1.14071e-15 0)
(3 -3.39027e-16 0)
(3 -5.06423e-16 0)
(3 -6.52307e-16 0)
(3 -6.01781e-16 0)
(3 -8.68962e-18 0)
(3 1.27731e-16 0)
(3 1.67971e-16 0)
(3 -9.5638e-16 0)
(3 -1.49344e-15 0)
(3 -6.4484e-16 0)
(3 4.95338e-16 0)
(3 8.59722e-17 0)
(3 7.31679e-17 0)
(3 9.92965e-17 0)
(3 -1.55655e-16 0)
(3 -1.723e-15 0)
(3 -2.30318e-15 0)
(3 -2.49972e-15 0)
(3 -1.78988e-15 0)
(3 -1.4391e-15 0)
(3 -3.80941e-16 0)
(3 -6.9643e-16 0)
(3 -1.24824e-15 0)
(3 -1.20168e-15 0)
(3 -1.15341e-15 0)
(3 -1.56411e-15 0)
(3 -1.83083e-15 0)
(3 -2.21916e-15 0)
(3 -1.8746e-15 0)
(3 -1.47652e-15 0)
(3 -2.37129e-15 0)
(3 -2.16296e-15 0)
(3 -1.7447e-15 0)
(3 -1.26881e-15 0)
(3 1.35153e-15 0)
(3 2.29915e-15 0)
(3 5.51694e-15 0)
(3 8.49607e-15 0)
(3 6.73778e-15 0)
(3 -1.25216e-16 0)
(3 -4.14736e-17 0)
(3 2.46227e-16 0)
(3 6.64053e-16 0)
(3 4.25868e-16 0)
(3 1.643e-18 0)
(3 -7.12277e-17 0)
(3 -1.48926e-16 0)
(3 -2.94825e-16 0)
(3 3.30639e-16 0)
(3 7.12314e-16 0)
(3 7.57986e-16 0)
(3 5.24922e-16 0)
(3 2.10519e-16 0)
(3 1.20366e-16 0)
(3 2.20441e-16 0)
(3 8.23906e-17 0)
(3 -7.83011e-16 0)
(3 -1.50362e-15 0)
(3 -1.38915e-15 0)
(3 -7.57338e-16 0)
(3 5.22746e-16 0)
(3 1.84428e-15 0)
(3 9.60223e-16 0)
(3 -1.01651e-15 0)
(3 -1.25642e-15 0)
(3 -9.17521e-16 0)
(3 -6.03746e-16 0)
(3 -8.72087e-16 0)
(3 -5.67007e-16 0)
(3 -3.8961e-16 0)
(3 -4.89243e-16 0)
(3 -7.26501e-16 0)
(3 -8.97039e-16 0)
(3 -7.78553e-16 0)
(3 -7.77739e-16 0)
(3 -6.47143e-16 0)
(3 -7.0654e-16 0)
(3 -2.94364e-16 0)
(3 7.28016e-16 0)
(3 1.45533e-15 0)
(3 2.3396e-15 0)
(3 2.63254e-15 0)
(3 2.52387e-15 0)
(3 2.13562e-15 0)
(3 2.21036e-15 0)
(3 1.0725e-15 0)
(3 7.78471e-16 0)
(3 6.27961e-16 0)
(3 3.17966e-16 0)
(3 -1.00461e-16 0)
(3 -9.79148e-18 0)
(3 4.30066e-16 0)
(3 3.60498e-16 0)
(3 1.90755e-16 0)
(3 7.85456e-17 0)
(3 -7.65537e-16 0)
(3 -9.08545e-16 0)
(3 -1.58099e-15 0)
(3 -1.48312e-15 0)
(3 -9.13344e-16 0)
(3 -6.20055e-16 0)
(3 -3.14452e-16 0)
(3 -3.47352e-16 0)
(3 6.48804e-16 0)
(3 1.14203e-15 0)
(3 1.2352e-15 0)
(3 1.07426e-15 0)
(3 3.31153e-16 0)
(3 -3.22672e-16 0)
(3 -1.1437e-15 0)
(3 -1.93211e-15 0)
(3 -1.94585e-15 0)
(3 -1.1334e-15 0)
(3 -1.32247e-15 0)
(3 -1.77981e-15 0)
(3 -2.45119e-15 0)
(3 -1.89941e-15 0)
(3 -5.70345e-16 0)
(3 -4.9758e-17 0)
(3 -2.75391e-16 0)
(3 -6.48556e-16 0)
(3 -2.24196e-16 0)
(3 6.34803e-16 0)
(3 4.97574e-16 0)
(3 -1.51841e-15 0)
(3 -2.8632e-15 0)
(3 -2.6232e-15 0)
(3 -1.67101e-15 0)
(3 -5.3444e-16 0)
(3 -5.07354e-16 0)
(3 1.45235e-16 0)
(3 8.85461e-16 0)
(3 4.35135e-15 0)
(3 7.00128e-15 0)
(3 8.60142e-15 0)
(3 1.40508e-17 0)
(3 -6.33505e-17 0)
(3 -1.37546e-16 0)
(3 2.19275e-16 0)
(3 -1.63502e-17 0)
(3 1.83551e-17 0)
(3 6.90533e-17 0)
(3 -2.68152e-17 0)
(3 -4.12762e-16 0)
(3 -1.63171e-16 0)
(3 3.06939e-16 0)
(3 4.43883e-16 0)
(3 2.95286e-16 0)
(3 2.61696e-16 0)
(3 4.59325e-16 0)
(3 -4.02034e-17 0)
(3 -7.50391e-16 0)
(3 -4.97435e-16 0)
(3 8.88974e-17 0)
(3 1.88109e-16 0)
(3 5.25445e-16 0)
(3 9.14087e-16 0)
(3 5.12119e-16 0)
(3 6.0666e-16 0)
(3 -1.60131e-15 0)
(3 -1.69711e-15 0)
(3 -1.32859e-15 0)
(3 -8.21272e-16 0)
(3 -7.37419e-16 0)
(3 -4.00983e-16 0)
(3 -3.91322e-16 0)
(3 -5.69132e-16 0)
(3 -8.26436e-16 0)
(3 -3.10124e-16 0)
(3 -5.91877e-16 0)
(3 -8.87187e-16 0)
(3 -1.14488e-15 0)
(3 -8.77833e-16 0)
(3 2.38934e-16 0)
(3 6.04525e-16 0)
(3 8.32333e-16 0)
(3 9.44683e-16 0)
(3 1.51924e-15 0)
(3 1.775e-15 0)
(3 1.39479e-15 0)
(3 2.59608e-16 0)
(3 -1.45717e-15 0)
(3 -1.79292e-15 0)
(3 -1.89733e-15 0)
(3 -5.47356e-16 0)
(3 1.14142e-15 0)
(3 2.00531e-15 0)
(3 1.77778e-15 0)
(3 1.46131e-16 0)
(3 -8.05002e-16 0)
(3 -5.33236e-17 0)
(3 2.68642e-16 0)
(3 -5.50646e-17 0)
(3 1.29459e-16 0)
(3 -2.56758e-17 0)
(3 4.26221e-16 0)
(3 1.5155e-15 0)
(3 1.66799e-15 0)
(3 1.88952e-15 0)
(3 2.49336e-15 0)
(3 2.55023e-15 0)
(3 1.22838e-15 0)
(3 4.4918e-16 0)
(3 4.39663e-16 0)
(3 -6.91986e-17 0)
(3 -8.44729e-16 0)
(3 -1.19831e-15 0)
(3 -1.14413e-15 0)
(3 -1.10362e-15 0)
(3 -1.26619e-15 0)
(3 -1.64144e-15 0)
(3 -2.64788e-15 0)
(3 -3.05972e-15 0)
(3 -3.09363e-15 0)
(3 -2.20433e-15 0)
(3 -1.76412e-15 0)
(3 -1.9304e-15 0)
(3 -2.86127e-15 0)
(3 -2.78219e-15 0)
(3 -1.98177e-15 0)
(3 -1.51563e-15 0)
(3 -1.53935e-15 0)
(3 -1.49132e-15 0)
(3 -7.65651e-16 0)
(3 -1.1862e-15 0)
(3 -8.43285e-16 0)
(3 -8.19955e-16 0)
(3 -4.53143e-16 0)
(3 9.63471e-16 0)
(3 1.46071e-15 0)
(3 1.91817e-15 0)
(3 1.34928e-16 0)
(3 1.92737e-16 0)
(3 2.50377e-17 0)
(3 -3.3118e-16 0)
(3 -3.32444e-16 0)
(3 -1.24316e-16 0)
(3 4.57105e-17 0)
(3 -1.67846e-16 0)
(3 -7.99882e-16 0)
(3 -8.75829e-16 0)
(3 -8.22887e-16 0)
(3 -1.16861e-16 0)
(3 2.6527e-16 0)
(3 3.89582e-16 0)
(3 4.46727e-16 0)
(3 4.24231e-16 0)
(3 2.00127e-16 0)
(3 -2.32252e-16 0)
(3 1.85455e-16 0)
(3 3.459e-16 0)
(3 9.64211e-17 0)
(3 -9.54349e-18 0)
(3 -5.28299e-16 0)
(3 -1.25403e-15 0)
(3 -2.14266e-15 0)
(3 -1.43022e-15 0)
(3 -1.35037e-15 0)
(3 -9.71797e-16 0)
(3 1.11101e-16 0)
(3 5.42856e-16 0)
(3 2.43343e-16 0)
(3 -1.25684e-16 0)
(3 1.32164e-17 0)
(3 -1.86218e-17 0)
(3 -2.34424e-16 0)
(3 -7.50322e-16 0)
(3 -9.49443e-16 0)
(3 -7.03185e-16 0)
(3 -6.68383e-16 0)
(3 -4.41833e-16 0)
(3 -5.53305e-16 0)
(3 -6.61225e-16 0)
(3 -9.25637e-16 0)
(3 -5.20058e-16 0)
(3 -1.44914e-16 0)
(3 -5.07599e-17 0)
(3 -1.11495e-15 0)
(3 -1.53701e-15 0)
(3 -1.04937e-15 0)
(3 -3.25459e-16 0)
(3 8.46646e-16 0)
(3 1.65515e-15 0)
(3 1.83892e-15 0)
(3 1.86804e-15 0)
(3 2.37649e-15 0)
(3 1.91815e-15 0)
(3 1.25713e-15 0)
(3 5.09204e-16 0)
(3 4.54703e-16 0)
(3 5.4665e-16 0)
(3 5.22374e-16 0)
(3 -1.96662e-16 0)
(3 -5.43106e-16 0)
(3 -5.44108e-16 0)
(3 -2.57947e-16 0)
(3 -2.69599e-16 0)
(3 -1.30939e-15 0)
(3 -1.80077e-15 0)
(3 -1.04918e-15 0)
(3 -1.35318e-15 0)
(3 -1.15708e-15 0)
(3 -9.50565e-16 0)
(3 -8.96045e-16 0)
(3 -1.39653e-15 0)
(3 -1.29006e-15 0)
(3 -1.42571e-15 0)
(3 -1.83917e-15 0)
(3 -2.0852e-15 0)
(3 -1.82508e-15 0)
(3 -1.68535e-15 0)
(3 -1.2895e-15 0)
(3 -8.87784e-16 0)
(3 -1.11145e-15 0)
(3 -1.23283e-15 0)
(3 -1.42515e-15 0)
(3 -1.20354e-15 0)
(3 1.40005e-16 0)
(3 3.10059e-16 0)
(3 8.87226e-16 0)
(3 9.51944e-16 0)
(3 9.72622e-16 0)
(3 8.4281e-16 0)
(3 1.13291e-15 0)
(3 4.28782e-16 0)
(3 -2.30474e-15 0)
(3 -2.79806e-15 0)
(3 -1.59056e-16 0)
(3 3.19994e-16 0)
(3 3.31446e-16 0)
(3 -1.02715e-16 0)
(3 -2.04404e-16 0)
(3 -3.22635e-16 0)
(3 -1.30863e-16 0)
(3 -2.44901e-17 0)
(3 3.47108e-16 0)
(3 -4.19145e-16 0)
(3 -1.02368e-15 0)
(3 -9.58001e-16 0)
(3 -2.67275e-16 0)
(3 2.90072e-16 0)
(3 4.2439e-16 0)
(3 4.37206e-16 0)
(3 3.00424e-16 0)
(3 -3.9358e-16 0)
(3 -8.09843e-16 0)
(3 -9.87611e-16 0)
(3 -9.5048e-16 0)
(3 -4.0111e-16 0)
(3 -2.3706e-16 0)
(3 -1.27576e-15 0)
(3 -1.03657e-15 0)
(3 -1.04747e-15 0)
(3 -1.17478e-15 0)
(3 -7.15212e-16 0)
(3 4.59998e-16 0)
(3 8.66059e-16 0)
(3 3.01417e-16 0)
(3 -3.75028e-16 0)
(3 -9.40536e-17 0)
(3 1.28062e-16 0)
(3 -5.99275e-18 0)
(3 -2.43345e-16 0)
(3 -2.48027e-16 0)
(3 -3.86124e-16 0)
(3 -2.62228e-16 0)
(3 -6.52747e-16 0)
(3 -6.92546e-16 0)
(3 -3.25801e-16 0)
(3 -4.5226e-17 0)
(3 7.95067e-17 0)
(3 4.03323e-16 0)
(3 7.31161e-16 0)
(3 8.0221e-16 0)
(3 -6.98782e-16 0)
(3 -7.9452e-16 0)
(3 8.48059e-16 0)
(3 1.70953e-15 0)
(3 2.10036e-15 0)
(3 2.70495e-15 0)
(3 4.90779e-15 0)
(3 5.39128e-15 0)
(3 4.16299e-15 0)
(3 2.5486e-15 0)
(3 1.27743e-15 0)
(3 1.26458e-15 0)
(3 1.39411e-15 0)
(3 3.74527e-16 0)
(3 -4.944e-16 0)
(3 -9.80123e-16 0)
(3 -1.4618e-15 0)
(3 -1.42265e-15 0)
(3 -2.25054e-15 0)
(3 -2.94725e-15 0)
(3 -3.43283e-15 0)
(3 -3.86885e-15 0)
(3 -4.07435e-15 0)
(3 -2.92482e-15 0)
(3 -2.22169e-15 0)
(3 -2.16537e-15 0)
(3 -1.17119e-15 0)
(3 -1.4354e-15 0)
(3 -1.07729e-15 0)
(3 -7.9079e-16 0)
(3 -8.78205e-16 0)
(3 -1.96935e-16 0)
(3 4.99981e-16 0)
(3 2.65848e-16 0)
(3 7.73476e-16 0)
(3 7.7607e-16 0)
(3 -1.88068e-16 0)
(3 -1.68314e-15 0)
(3 -8.21734e-16 0)
(3 2.19276e-16 0)
(3 8.75708e-16 0)
(3 1.36256e-15 0)
(3 9.61226e-16 0)
(3 5.76974e-16 0)
(3 1.20315e-16 0)
(3 1.7151e-16 0)
(3 -1.24186e-15 0)
(3 -3.7081e-15 0)
(3 -1.0686e-15 0)
(3 1.07454e-16 0)
(3 -8.49327e-17 0)
(3 3.0045e-16 0)
(3 6.76647e-16 0)
(3 4.01238e-16 0)
(3 -2.76929e-16 0)
(3 -8.59509e-16 0)
(3 -6.63799e-16 0)
(3 -3.33605e-16 0)
(3 -7.82381e-16 0)
(3 -1.13286e-15 0)
(3 -1.36916e-15 0)
(3 -1.30312e-15 0)
(3 -9.31683e-16 0)
(3 -6.06226e-16 0)
(3 -5.30105e-16 0)
(3 -5.30551e-16 0)
(3 -5.5919e-16 0)
(3 -1.29302e-15 0)
(3 -1.30332e-15 0)
(3 -1.26334e-15 0)
(3 -1.23478e-15 0)
(3 -1.17198e-15 0)
(3 -8.10711e-16 0)
(3 -2.43732e-16 0)
(3 -2.46335e-16 0)
(3 7.5568e-17 0)
(3 2.15085e-16 0)
(3 -1.78857e-16 0)
(3 -1.52125e-16 0)
(3 -5.71912e-16 0)
(3 -1.08448e-15 0)
(3 -1.09704e-15 0)
(3 -5.0006e-16 0)
(3 -2.24323e-16 0)
(3 2.76571e-16 0)
(3 7.43557e-16 0)
(3 7.76647e-16 0)
(3 6.76142e-16 0)
(3 3.94418e-16 0)
(3 4.08949e-16 0)
(3 -1.20528e-16 0)
(3 2.48177e-17 0)
(3 7.22061e-16 0)
(3 1.16587e-15 0)
(3 1.46363e-15 0)
(3 2.0479e-15 0)
(3 2.08218e-15 0)
(3 2.14873e-15 0)
(3 2.22437e-15 0)
(3 2.22899e-15 0)
(3 2.17798e-15 0)
(3 3.29933e-15 0)
(3 5.22264e-15 0)
(3 3.40832e-15 0)
(3 2.41899e-15 0)
(3 1.72355e-15 0)
(3 2.32296e-15 0)
(3 3.20305e-15 0)
(3 2.71352e-15 0)
(3 -6.06543e-16 0)
(3 -1.87449e-15 0)
(3 -2.62215e-15 0)
(3 -2.45235e-15 0)
(3 -1.72103e-15 0)
(3 -2.39679e-15 0)
(3 -2.75542e-15 0)
(3 -3.47346e-15 0)
(3 -3.95788e-15 0)
(3 -2.94029e-15 0)
(3 -2.61541e-15 0)
(3 -1.51652e-15 0)
(3 -8.13672e-16 0)
(3 -6.58865e-16 0)
(3 -8.70938e-16 0)
(3 -3.52026e-16 0)
(3 5.36212e-16 0)
(3 8.80941e-16 0)
(3 1.14656e-15 0)
(3 1.89566e-15 0)
(3 2.02144e-15 0)
(3 1.73675e-15 0)
(3 1.44605e-16 0)
(3 -2.43471e-15 0)
(3 -3.03798e-15 0)
(3 -1.59447e-15 0)
(3 -9.93345e-16 0)
(3 -1.10261e-17 0)
(3 6.25664e-16 0)
(3 6.52908e-16 0)
(3 7.43085e-16 0)
(3 8.58786e-16 0)
(3 5.9166e-16 0)
(3 -8.63111e-16 0)
(3 -1.66748e-15 0)
(3 -1.48368e-15 0)
(3 4.67089e-17 0)
(3 -2.06113e-16 0)
(3 -4.89143e-16 0)
(3 -1.99463e-16 0)
(3 1.53199e-16 0)
(3 2.33129e-17 0)
(3 -3.1405e-16 0)
(3 -1.09289e-16 0)
(3 -5.83537e-16 0)
(3 -6.25814e-16 0)
(3 -3.88819e-16 0)
(3 -1.62249e-16 0)
(3 1.7184e-16 0)
(3 3.63504e-16 0)
(3 -1.94795e-16 0)
(3 -8.46107e-16 0)
(3 -1.19954e-15 0)
(3 -1.38864e-15 0)
(3 -9.69572e-16 0)
(3 -4.80609e-16 0)
(3 -8.61496e-16 0)
(3 -1.44665e-15 0)
(3 -1.41786e-15 0)
(3 -5.53309e-16 0)
(3 5.56495e-17 0)
(3 1.76606e-16 0)
(3 8.31799e-16 0)
(3 5.80439e-16 0)
(3 -6.06804e-16 0)
(3 -1.36379e-15 0)
(3 -1.55859e-15 0)
(3 -8.90993e-16 0)
(3 -3.99896e-16 0)
(3 -4.07078e-16 0)
(3 1.36256e-16 0)
(3 1.0144e-15 0)
(3 1.49454e-15 0)
(3 1.21974e-15 0)
(3 5.88577e-16 0)
(3 1.66315e-16 0)
(3 3.16682e-16 0)
(3 -3.16342e-17 0)
(3 -1.92235e-16 0)
(3 6.68592e-16 0)
(3 2.84375e-15 0)
(3 3.8173e-15 0)
(3 3.4466e-15 0)
(3 3.70654e-15 0)
(3 3.71489e-15 0)
(3 2.89625e-15 0)
(3 2.11366e-15 0)
(3 1.17667e-15 0)
(3 1.17644e-15 0)
(3 1.41423e-15 0)
(3 1.98004e-15 0)
(3 1.97604e-15 0)
(3 1.99225e-15 0)
(3 1.85784e-15 0)
(3 1.27242e-15 0)
(3 6.54583e-16 0)
(3 -5.8977e-17 0)
(3 -1.00397e-15 0)
(3 -2.25092e-15 0)
(3 -2.72211e-15 0)
(3 -1.74285e-15 0)
(3 -1.80867e-15 0)
(3 -1.45208e-15 0)
(3 -2.33158e-15 0)
(3 -2.62577e-15 0)
(3 -2.54607e-15 0)
(3 -2.38197e-15 0)
(3 -1.42548e-15 0)
(3 -9.3346e-16 0)
(3 -9.38149e-16 0)
(3 -1.02965e-15 0)
(3 -1.01716e-15 0)
(3 -3.90892e-16 0)
(3 2.71113e-16 0)
(3 6.35288e-16 0)
(3 1.39846e-15 0)
(3 1.96171e-15 0)
(3 1.45518e-15 0)
(3 -7.87015e-16 0)
(3 -1.50906e-15 0)
(3 -1.45195e-15 0)
(3 -1.20958e-15 0)
(3 -8.70497e-16 0)
(3 -1.51958e-16 0)
(3 2.33275e-16 0)
(3 7.43917e-16 0)
(3 1.95713e-15 0)
(3 2.8321e-15 0)
(3 2.30759e-15 0)
(3 1.38372e-15 0)
(3 -1.64637e-15 0)
(3 -2.21138e-15 0)
(3 -3.20046e-17 0)
(3 -1.19596e-16 0)
(3 -3.43289e-16 0)
(3 -4.74344e-16 0)
(3 -3.7528e-16 0)
(3 -1.21948e-17 0)
(3 4.16688e-16 0)
(3 3.09265e-16 0)
(3 1.72804e-16 0)
(3 4.87517e-16 0)
(3 1.80967e-16 0)
(3 6.49547e-17 0)
(3 7.02794e-16 0)
(3 8.8602e-16 0)
(3 7.31957e-16 0)
(3 -4.91809e-16 0)
(3 -8.74426e-16 0)
(3 -6.86086e-16 0)
(3 -4.49754e-16 0)
(3 -2.52346e-16 0)
(3 -4.90374e-16 0)
(3 -1.1837e-15 0)
(3 -1.29833e-15 0)
(3 -3.17476e-16 0)
(3 9.85643e-16 0)
(3 1.58261e-15 0)
(3 1.65452e-15 0)
(3 1.29776e-15 0)
(3 -1.08033e-17 0)
(3 -1.01773e-15 0)
(3 -1.0124e-15 0)
(3 -1.07192e-16 0)
(3 1.04434e-15 0)
(3 8.50454e-16 0)
(3 7.8232e-16 0)
(3 8.1289e-16 0)
(3 6.35493e-16 0)
(3 -5.01307e-16 0)
(3 -9.15298e-16 0)
(3 -7.3612e-16 0)
(3 -4.27004e-16 0)
(3 1.39284e-16 0)
(3 3.47624e-16 0)
(3 9.35545e-17 0)
(3 2.57217e-15 0)
(3 3.43754e-15 0)
(3 4.2391e-15 0)
(3 3.52358e-15 0)
(3 2.86907e-15 0)
(3 2.39939e-15 0)
(3 2.10288e-15 0)
(3 1.46569e-15 0)
(3 6.0192e-16 0)
(3 2.64704e-16 0)
(3 8.58113e-16 0)
(3 3.21007e-15 0)
(3 3.54154e-15 0)
(3 2.9793e-15 0)
(3 1.50363e-15 0)
(3 -2.07355e-16 0)
(3 2.41758e-17 0)
(3 -2.29525e-16 0)
(3 -5.8401e-16 0)
(3 -1.46718e-15 0)
(3 -1.65446e-15 0)
(3 -7.75644e-16 0)
(3 -1.08907e-15 0)
(3 -9.51144e-16 0)
(3 -1.2749e-15 0)
(3 -8.59494e-16 0)
(3 -9.26193e-16 0)
(3 -9.02362e-16 0)
(3 -6.75218e-16 0)
(3 -4.91081e-16 0)
(3 5.60817e-17 0)
(3 1.28948e-16 0)
(3 -7.58044e-18 0)
(3 -6.84886e-17 0)
(3 2.85571e-17 0)
(3 9.95791e-17 0)
(3 9.28648e-16 0)
(3 -3.37239e-16 0)
(3 -1.48636e-15 0)
(3 -1.53077e-15 0)
(3 -3.65561e-16 0)
(3 -5.15284e-16 0)
(3 -8.09375e-16 0)
(3 -8.05842e-16 0)
(3 -7.32874e-16 0)
(3 1.52274e-16 0)
(3 7.06769e-16 0)
(3 1.24167e-15 0)
(3 2.92029e-15 0)
(3 5.17271e-16 0)
(3 -1.4586e-15 0)
(3 -1.86979e-15 0)
(3 1.24432e-17 0)
(3 1.34704e-16 0)
(3 6.31516e-16 0)
(3 6.34299e-16 0)
(3 2.82487e-16 0)
(3 -1.47483e-16 0)
(3 -1.61369e-16 0)
(3 -1.07988e-16 0)
(3 -4.90894e-17 0)
(3 -4.65098e-17 0)
(3 -6.37882e-16 0)
(3 -1.60038e-16 0)
(3 1.80159e-16 0)
(3 5.7466e-16 0)
(3 5.99415e-16 0)
(3 1.80802e-16 0)
(3 2.07565e-17 0)
(3 -1.62792e-16 0)
(3 -1.284e-16 0)
(3 2.91432e-16 0)
(3 4.92252e-16 0)
(3 -5.22811e-17 0)
(3 -1.22731e-16 0)
(3 -4.46756e-16 0)
(3 3.79491e-16 0)
(3 1.55607e-15 0)
(3 1.38739e-15 0)
(3 1.0679e-15 0)
(3 5.8412e-16 0)
(3 -3.32394e-16 0)
(3 -5.53901e-16 0)
(3 -1.71221e-17 0)
(3 3.99935e-16 0)
(3 1.15922e-15 0)
(3 1.76738e-15 0)
(3 3.03644e-16 0)
(3 -4.10524e-16 0)
(3 -9.03186e-16 0)
(3 -1.25253e-15 0)
(3 -1.529e-15 0)
(3 -1.63526e-15 0)
(3 -1.51221e-15 0)
(3 -8.69608e-16 0)
(3 7.27199e-17 0)
(3 1.83595e-15 0)
(3 2.7079e-15 0)
(3 2.68275e-15 0)
(3 2.25635e-15 0)
(3 2.30494e-15 0)
(3 2.12169e-15 0)
(3 1.7767e-15 0)
(3 1.56264e-15 0)
(3 1.48393e-15 0)
(3 1.25835e-15 0)
(3 1.22652e-15 0)
(3 2.22861e-15 0)
(3 1.97888e-15 0)
(3 1.4981e-15 0)
(3 7.73623e-16 0)
(3 5.03726e-16 0)
(3 -1.19781e-16 0)
(3 -6.53756e-16 0)
(3 1.9336e-17 0)
(3 -2.52095e-16 0)
(3 -9.87424e-16 0)
(3 -7.16575e-16 0)
(3 -2.17205e-16 0)
(3 8.2741e-17 0)
(3 1.97689e-17 0)
(3 2.57274e-16 0)
(3 4.86565e-16 0)
(3 -2.60247e-17 0)
(3 -6.0396e-16 0)
(3 -4.0838e-16 0)
(3 7.00785e-16 0)
(3 1.01984e-15 0)
(3 1.12951e-15 0)
(3 4.7807e-16 0)
(3 7.16299e-17 0)
(3 -1.10398e-15 0)
(3 -1.57576e-15 0)
(3 -1.25012e-15 0)
(3 -1.1727e-15 0)
(3 -1.12257e-15 0)
(3 -1.00164e-15 0)
(3 -8.15995e-16 0)
(3 -1.30551e-15 0)
(3 -1.5208e-15 0)
(3 -1.10706e-15 0)
(3 -7.6436e-16 0)
(3 -1.4805e-15 0)
(3 -1.93549e-15 0)
(3 -8.83767e-16 0)
(3 -1.84991e-15 0)
(3 -1.11264e-15 0)
(3 -9.75281e-16 0)
(3 8.94462e-17 0)
(3 2.76417e-18 0)
(3 1.93539e-16 0)
(3 4.50687e-16 0)
(3 3.42789e-16 0)
(3 -1.31739e-16 0)
(3 -3.64466e-16 0)
(3 -4.37655e-16 0)
(3 -2.62269e-16 0)
(3 -2.24635e-16 0)
(3 6.3192e-16 0)
(3 8.73415e-16 0)
(3 7.68211e-16 0)
(3 1.01216e-15 0)
(3 9.16094e-16 0)
(3 7.96415e-16 0)
(3 5.47425e-16 0)
(3 2.73002e-16 0)
(3 1.14069e-15 0)
(3 1.82951e-15 0)
(3 1.02196e-15 0)
(3 -4.41987e-16 0)
(3 -1.28936e-15 0)
(3 -2.26406e-15 0)
(3 -8.10568e-16 0)
(3 1.82342e-15 0)
(3 2.29441e-15 0)
(3 1.21207e-15 0)
(3 9.16175e-16 0)
(3 7.21598e-16 0)
(3 -2.19108e-16 0)
(3 -5.8133e-16 0)
(3 -4.97778e-16 0)
(3 -2.15062e-16 0)
(3 -1.64271e-18 0)
(3 -1.04489e-16 0)
(3 -8.44379e-16 0)
(3 -1.32578e-15 0)
(3 -1.24153e-15 0)
(3 -1.32137e-15 0)
(3 -9.9753e-16 0)
(3 -5.0883e-16 0)
(3 -2.74551e-16 0)
(3 8.62597e-16 0)
(3 2.07104e-15 0)
(3 3.35823e-15 0)
(3 2.97013e-15 0)
(3 1.51532e-15 0)
(3 4.51295e-16 0)
(3 5.19579e-17 0)
(3 5.71264e-17 0)
(3 7.92476e-16 0)
(3 1.35361e-15 0)
(3 1.55672e-15 0)
(3 1.45224e-15 0)
(3 1.45712e-15 0)
(3 1.59995e-15 0)
(3 1.18842e-15 0)
(3 4.42104e-16 0)
(3 8.03206e-16 0)
(3 1.00167e-16 0)
(3 -5.872e-16 0)
(3 -5.77799e-16 0)
(3 7.55342e-16 0)
(3 9.85592e-16 0)
(3 -2.18729e-16 0)
(3 -8.28439e-16 0)
(3 -8.66686e-16 0)
(3 -8.47973e-16 0)
(3 -9.21894e-16 0)
(3 -6.48885e-16 0)
(3 2.06083e-17 0)
(3 4.98542e-16 0)
(3 1.50951e-15 0)
(3 1.27943e-15 0)
(3 1.00187e-15 0)
(3 2.61136e-16 0)
(3 -2.93138e-16 0)
(3 -1.54173e-15 0)
(3 -1.96187e-15 0)
(3 -2.07332e-15 0)
(3 -1.3693e-15 0)
(3 -1.47146e-15 0)
(3 -1.2835e-15 0)
(3 -1.15203e-15 0)
(3 -8.92405e-16 0)
(3 -9.27938e-16 0)
(3 -7.81126e-16 0)
(3 -5.75099e-16 0)
(3 -5.62719e-16 0)
(3 -7.77511e-17 0)
(3 5.73889e-16 0)
(3 -3.5474e-19 0)
(3 -8.48903e-16 0)
(3 -2.3922e-15 0)
(3 -3.4579e-15 0)
(3 2.9985e-17 0)
(3 -3.88965e-16 0)
(3 -4.19579e-16 0)
(3 -3.92871e-16 0)
(3 1.54356e-16 0)
(3 6.69988e-16 0)
(3 5.99532e-16 0)
(3 4.95596e-17 0)
(3 1.62707e-16 0)
(3 6.57051e-16 0)
(3 1.01752e-15 0)
(3 8.73893e-16 0)
(3 8.55861e-16 0)
(3 2.35244e-16 0)
(3 1.95803e-16 0)
(3 1.52263e-15 0)
(3 1.62415e-15 0)
(3 2.05493e-15 0)
(3 2.29844e-15 0)
(3 2.50646e-15 0)
(3 1.34976e-15 0)
(3 7.52028e-16 0)
(3 -1.13504e-15 0)
(3 -1.13992e-15 0)
(3 -1.3003e-16 0)
(3 3.35595e-16 0)
(3 2.68925e-16 0)
(3 5.78177e-17 0)
(3 7.89583e-17 0)
(3 5.8768e-16 0)
(3 4.33006e-16 0)
(3 -1.17682e-16 0)
(3 -9.00803e-16 0)
(3 -1.44813e-15 0)
(3 -9.75569e-16 0)
(3 -1.08323e-15 0)
(3 -9.98076e-16 0)
(3 -1.34951e-15 0)
(3 -1.41354e-15 0)
(3 -9.14711e-16 0)
(3 -1.82387e-16 0)
(3 1.73559e-16 0)
(3 8.901e-16 0)
(3 1.14153e-15 0)
(3 1.36075e-15 0)
(3 2.07604e-15 0)
(3 2.06114e-15 0)
(3 1.38589e-15 0)
(3 1.3396e-16 0)
(3 -1.05552e-15 0)
(3 1.46732e-17 0)
(3 9.76794e-16 0)
(3 7.31798e-16 0)
(3 1.14931e-15 0)
(3 1.98655e-15 0)
(3 1.5503e-15 0)
(3 1.11039e-15 0)
(3 1.27692e-15 0)
(3 1.19837e-15 0)
(3 9.25782e-16 0)
(3 9.36078e-16 0)
(3 7.18102e-16 0)
(3 5.66213e-16 0)
(3 1.63392e-15 0)
(3 2.20628e-15 0)
(3 3.00675e-16 0)
(3 -2.28306e-15 0)
(3 -1.90852e-15 0)
(3 -1.00123e-15 0)
(3 -4.32771e-16 0)
(3 -1.74762e-17 0)
(3 3.00462e-16 0)
(3 1.41731e-15 0)
(3 1.83313e-15 0)
(3 1.38654e-15 0)
(3 9.89075e-16 0)
(3 -3.8099e-16 0)
(3 -9.43373e-16 0)
(3 -1.25197e-15 0)
(3 -1.1571e-15 0)
(3 -1.19129e-15 0)
(3 -1.07162e-15 0)
(3 -1.04549e-15 0)
(3 -7.09902e-16 0)
(3 -5.71022e-16 0)
(3 -9.61116e-16 0)
(3 -7.18486e-16 0)
(3 -6.76666e-16 0)
(3 -1.29079e-15 0)
(3 -1.39033e-15 0)
(3 5.94732e-18 0)
(3 3.21826e-17 0)
(3 1.35216e-16 0)
(3 -1.05899e-15 0)
(3 -2.82508e-15 0)
(3 -2.66504e-15 0)
(3 -1.28439e-17 0)
(3 2.13926e-16 0)
(3 2.57368e-16 0)
(3 2.79315e-19 0)
(3 -4.58994e-17 0)
(3 5.07035e-18 0)
(3 1.40082e-16 0)
(3 4.50982e-16 0)
(3 9.19945e-16 0)
(3 1.04657e-15 0)
(3 6.99615e-16 0)
(3 9.84047e-16 0)
(3 8.61034e-16 0)
(3 1.33925e-16 0)
(3 4.51304e-17 0)
(3 9.66953e-16 0)
(3 1.481e-15 0)
(3 2.2236e-15 0)
(3 2.24813e-15 0)
(3 2.10748e-15 0)
(3 1.98462e-15 0)
(3 1.89136e-15 0)
(3 1.29585e-15 0)
(3 1.05084e-15 0)
(3 7.5747e-16 0)
(3 -2.43909e-16 0)
(3 -5.31851e-16 0)
(3 -7.01271e-16 0)
(3 -5.8821e-16 0)
(3 2.52039e-16 0)
(3 1.49365e-15 0)
(3 1.13518e-15 0)
(3 7.81701e-16 0)
(3 -7.83249e-17 0)
(3 -9.99853e-16 0)
(3 -9.78809e-16 0)
(3 -8.63739e-16 0)
(3 -6.25479e-16 0)
(3 -8.40496e-16 0)
(3 -1.06293e-15 0)
(3 -1.29894e-15 0)
(3 -9.61047e-16 0)
(3 -4.01351e-16 0)
(3 -3.15033e-16 0)
(3 -1.67514e-16 0)
(3 2.21227e-16 0)
(3 -5.055e-17 0)
(3 6.60873e-16 0)
(3 9.30025e-16 0)
(3 5.4073e-16 0)
(3 9.69503e-16 0)
(3 1.44278e-15 0)
(3 8.26626e-16 0)
(3 4.17996e-16 0)