/*--------------------------------*- C++ -*----------------------------------*\
  =========                 |
  \\      /  F ield         | OpenFOAM: The Open Source CFD Toolbox
   \\    /   O peration     | Website:  https://openfoam.org
    \\  /    A nd           | Version:  7
     \\/     M anipulation  |
\*---------------------------------------------------------------------------*/
FoamFile
{
    version     2.0;
    format      ascii;
    class       volVectorField;
    location    "3.7";
    object      U;
}
// * * * * * * * * * * * * * * * * * * * * * * * * * * * * * * * * * * * * * //

dimensions      [0 1 -1 0 0 0 0];

internalField   nonuniform List<vector> 
73728
(
(3 -8.26745e-18 0)
(3 3.07098e-17 0)
(3 7.65823e-17 0)
(3 5.49667e-17 0)
(3 1.1652e-16 0)
(3 1.30904e-16 0)
(3 6.33114e-16 0)
(3 1.16292e-15 0)
(3 1.09287e-15 0)
(3 7.06263e-16 0)
(3 4.66359e-16 0)
(3 1.06602e-16 0)
(3 -1.57929e-16 0)
(3 -2.4185e-16 0)
(3 -4.79701e-16 0)
(3 -2.06514e-16 0)
(3 4.60519e-16 0)
(3 4.12056e-16 0)
(3 1.98858e-16 0)
(3 2.74346e-16 0)
(3 6.40141e-16 0)
(3 9.4663e-16 0)
(3 5.65573e-16 0)
(3 6.2537e-16 0)
(3 6.74947e-16 0)
(3 1.05034e-15 0)
(3 1.16635e-15 0)
(3 2.8431e-16 0)
(3 -7.5518e-16 0)
(3 -8.66335e-16 0)
(3 -4.37007e-16 0)
(3 4.43458e-20 0)
(3 -3.81599e-16 0)
(3 -4.25296e-16 0)
(3 -5.78878e-16 0)
(3 -9.57918e-16 0)
(3 -1.12442e-15 0)
(3 -6.33478e-16 0)
(3 4.50165e-17 0)
(3 -2.3791e-16 0)
(3 -1.12261e-15 0)
(3 -1.65307e-15 0)
(3 -6.75411e-16 0)
(3 1.64799e-16 0)
(3 3.73818e-16 0)
(3 5.10879e-16 0)
(3 8.17675e-16 0)
(3 1.20173e-15 0)
(3 1.25919e-15 0)
(3 1.42633e-15 0)
(3 1.24259e-15 0)
(3 8.30017e-16 0)
(3 3.16512e-16 0)
(3 -1.05958e-16 0)
(3 -9.54399e-16 0)
(3 -6.00895e-16 0)
(3 -8.32591e-19 0)
(3 3.75553e-16 0)
(3 2.09082e-16 0)
(3 4.12603e-16 0)
(3 5.71365e-16 0)
(3 1.24811e-15 0)
(3 1.63673e-15 0)
(3 1.12414e-15 0)
(3 7.50875e-16 0)
(3 5.25131e-16 0)
(3 5.2171e-16 0)
(3 6.24318e-16 0)
(3 7.44365e-16 0)
(3 1.3317e-15 0)
(3 1.67115e-15 0)
(3 8.8512e-16 0)
(3 1.38822e-15 0)
(3 2.02476e-15 0)
(3 1.85071e-15 0)
(3 1.63092e-15 0)
(3 1.6681e-15 0)
(3 1.64266e-15 0)
(3 1.96305e-15 0)
(3 2.03469e-15 0)
(3 1.16189e-15 0)
(3 1.08403e-15 0)
(3 8.58336e-16 0)
(3 1.07199e-15 0)
(3 1.1129e-15 0)
(3 1.10389e-15 0)
(3 5.21169e-16 0)
(3 -1.15412e-16 0)
(3 -8.15853e-16 0)
(3 -7.73194e-16 0)
(3 -8.25779e-16 0)
(3 -3.56277e-16 0)
(3 -1.18903e-16 0)
(3 1.04697e-16 0)
(3 2.71211e-16 0)
(3 4.35316e-16 0)
(3 3.23039e-17 0)
(3 1.14274e-16 0)
(3 5.40726e-16 0)
(3 5.55889e-16 0)
(3 5.79214e-16 0)
(3 5.46441e-16 0)
(3 1.3139e-15 0)
(3 1.51333e-15 0)
(3 1.1353e-15 0)
(3 5.20257e-16 0)
(3 -2.36185e-17 0)
(3 1.63772e-16 0)
(3 3.65948e-17 0)
(3 5.86032e-17 0)
(3 -2.18363e-16 0)
(3 1.37392e-16 0)
(3 4.45431e-16 0)
(3 3.47495e-16 0)
(3 1.61302e-16 0)
(3 -2.47387e-16 0)
(3 -3.68458e-16 0)
(3 -7.7399e-17 0)
(3 4.94812e-16 0)
(3 8.55633e-16 0)
(3 9.36732e-16 0)
(3 1.42457e-15 0)
(3 1.13538e-15 0)
(3 -3.45908e-16 0)
(3 -6.73344e-16 0)
(3 -4.10465e-16 0)
(3 2.38411e-16 0)
(3 3.78667e-16 0)
(3 2.63403e-16 0)
(3 6.37615e-16 0)
(3 -5.96009e-17 0)
(3 -6.78041e-16 0)
(3 -6.9659e-16 0)
(3 -5.32563e-16 0)
(3 3.10561e-16 0)
(3 4.48121e-17 0)
(3 -6.66156e-16 0)
(3 -9.09468e-16 0)
(3 -7.09785e-16 0)
(3 3.72274e-16 0)
(3 6.62636e-16 0)
(3 1.19052e-15 0)
(3 1.29022e-15 0)
(3 1.69519e-15 0)
(3 1.57624e-15 0)
(3 9.58934e-16 0)
(3 5.0632e-16 0)
(3 4.6972e-16 0)
(3 1.98295e-16 0)
(3 2.90392e-16 0)
(3 3.38149e-16 0)
(3 4.55309e-16 0)
(3 6.7661e-16 0)
(3 9.85211e-16 0)
(3 7.19426e-16 0)
(3 6.94808e-16 0)
(3 7.70373e-16 0)
(3 1.60894e-15 0)
(3 2.51664e-15 0)
(3 1.31615e-15 0)
(3 1.35531e-15 0)
(3 1.59649e-15 0)
(3 1.78407e-15 0)
(3 1.99586e-15 0)
(3 1.83285e-15 0)
(3 1.75797e-15 0)
(3 2.30084e-15 0)
(3 1.97179e-15 0)
(3 1.78491e-15 0)
(3 2.51274e-15 0)
(3 2.35505e-15 0)
(3 1.30695e-15 0)
(3 6.13085e-16 0)
(3 1.01262e-15 0)
(3 1.9318e-15 0)
(3 3.23793e-15 0)
(3 2.61422e-15 0)
(3 2.23683e-15 0)
(3 1.6478e-15 0)
(3 1.52328e-15 0)
(3 1.5306e-15 0)
(3 1.62501e-15 0)
(3 9.61966e-16 0)
(3 1.07966e-15 0)
(3 1.39191e-16 0)
(3 -5.11887e-16 0)
(3 -1.60164e-15 0)
(3 -8.28726e-16 0)
(3 -1.67968e-16 0)
(3 9.20349e-16 0)
(3 7.63521e-16 0)
(3 4.96139e-16 0)
(3 1.77359e-16 0)
(3 8.20853e-17 0)
(3 4.49586e-16 0)
(3 4.02826e-16 0)
(3 6.90677e-16 0)
(3 1.01048e-15 0)
(3 1.17417e-15 0)
(3 8.67555e-16 0)
(3 -1.04698e-16 0)
(3 -4.99399e-16 0)
(3 -9.22133e-16 0)
(3 -6.60693e-16 0)
(3 1.15608e-16 0)
(3 6.90856e-16 0)
(3 9.64624e-16 0)
(3 4.75591e-16 0)
(3 -1.42394e-16 0)
(3 4.86957e-17 0)
(3 -2.54478e-17 0)
(3 -5.29944e-16 0)
(3 -1.14222e-15 0)
(3 -1.36058e-15 0)
(3 -9.84071e-16 0)
(3 -8.63823e-16 0)
(3 3.17839e-16 0)
(3 7.71612e-16 0)
(3 1.84015e-16 0)
(3 -9.42853e-16 0)
(3 6.62041e-17 0)
(3 1.01552e-15 0)
(3 1.01076e-15 0)
(3 3.85628e-17 0)
(3 -7.76658e-16 0)
(3 -1.24755e-15 0)
(3 -1.0931e-15 0)
(3 -1.13672e-15 0)
(3 -1.67081e-15 0)
(3 -1.8498e-15 0)
(3 -1.08303e-15 0)
(3 -1.6513e-16 0)
(3 1.86692e-16 0)
(3 1.11453e-16 0)
(3 2.49189e-16 0)
(3 6.03323e-16 0)
(3 1.48075e-15 0)
(3 1.65468e-15 0)
(3 1.93637e-15 0)
(3 1.89241e-15 0)
(3 1.47055e-15 0)
(3 7.87964e-16 0)
(3 5.685e-16 0)
(3 4.92903e-16 0)
(3 3.38849e-16 0)
(3 5.30369e-16 0)
(3 8.25685e-16 0)
(3 8.39909e-16 0)
(3 1.19168e-15 0)
(3 1.61098e-15 0)
(3 1.71458e-15 0)
(3 1.68252e-15 0)
(3 1.30119e-15 0)
(3 1.88922e-15 0)
(3 2.08432e-15 0)
(3 1.27701e-15 0)
(3 1.19425e-15 0)
(3 1.5171e-15 0)
(3 1.53371e-15 0)
(3 1.08961e-15 0)
(3 7.13828e-16 0)
(3 1.68389e-15 0)
(3 2.32013e-15 0)
(3 3.83622e-15 0)
(3 3.9448e-15 0)
(3 3.71729e-15 0)
(3 3.43348e-15 0)
(3 2.0326e-15 0)
(3 1.15973e-15 0)
(3 1.0713e-15 0)
(3 1.03574e-15 0)
(3 1.5336e-15 0)
(3 2.35895e-15 0)
(3 2.24036e-15 0)
(3 1.82136e-15 0)
(3 1.52862e-15 0)
(3 1.91535e-15 0)
(3 1.94003e-15 0)
(3 1.49704e-15 0)
(3 1.22229e-15 0)
(3 7.3181e-16 0)
(3 8.52951e-17 0)
(3 -2.1245e-16 0)
(3 -3.27979e-17 0)
(3 8.10398e-16 0)
(3 8.43024e-16 0)
(3 1.21808e-15 0)
(3 1.194e-15 0)
(3 2.52718e-16 0)
(3 5.19852e-16 0)
(3 5.1732e-16 0)
(3 -1.0673e-16 0)
(3 3.82625e-17 0)
(3 3.79108e-16 0)
(3 6.86205e-16 0)
(3 7.414e-16 0)
(3 1.10441e-16 0)
(3 -3.07082e-16 0)
(3 -1.34508e-16 0)
(3 -1.20635e-16 0)
(3 3.87935e-17 0)
(3 1.96703e-16 0)
(3 3.14061e-16 0)
(3 -1.0541e-16 0)
(3 -1.94508e-16 0)
(3 3.27518e-16 0)
(3 -3.8404e-17 0)
(3 -2.21107e-16 0)
(3 -2.51706e-16 0)
(3 -2.85053e-17 0)
(3 -1.16631e-16 0)
(3 -3.18524e-16 0)
(3 2.11108e-16 0)
(3 1.28661e-16 0)
(3 -5.20679e-17 0)
(3 5.49479e-16 0)
(3 2.81297e-16 0)
(3 -3.09187e-16 0)
(3 -7.24527e-16 0)
(3 -9.26579e-16 0)
(3 -1.2771e-15 0)
(3 -2.37595e-15 0)
(3 -2.06005e-15 0)
(3 -2.25918e-15 0)
(3 -2.9809e-15 0)
(3 -1.94584e-15 0)
(3 -1.12097e-15 0)
(3 -5.70717e-16 0)
(3 1.78464e-16 0)
(3 2.66704e-16 0)
(3 1.01627e-15 0)
(3 1.35691e-15 0)
(3 1.56144e-15 0)
(3 1.34782e-15 0)
(3 1.24135e-15 0)
(3 1.07424e-15 0)
(3 1.1158e-15 0)
(3 1.21639e-15 0)
(3 1.37877e-15 0)
(3 1.55737e-15 0)
(3 1.93277e-15 0)
(3 1.55564e-15 0)
(3 1.14574e-15 0)
(3 5.27364e-16 0)
(3 4.69137e-16 0)
(3 1.20567e-15 0)
(3 1.60814e-15 0)
(3 2.06695e-15 0)
(3 1.93359e-15 0)
(3 1.65224e-15 0)
(3 1.63308e-15 0)
(3 1.75376e-15 0)
(3 1.06942e-15 0)
(3 5.47432e-16 0)
(3 6.8499e-16 0)
(3 7.02706e-16 0)
(3 6.34786e-16 0)
(3 1.27645e-15 0)
(3 1.62894e-15 0)
(3 2.02882e-15 0)
(3 2.08337e-15 0)
(3 1.91266e-15 0)
(3 1.86639e-15 0)
(3 2.02834e-15 0)
(3 2.15758e-15 0)
(3 1.28681e-15 0)
(3 4.7328e-16 0)
(3 -3.5028e-16 0)
(3 -2.55866e-16 0)
(3 3.89425e-16 0)
(3 6.98027e-16 0)
(3 7.34661e-16 0)
(3 1.15532e-15 0)
(3 1.0727e-15 0)
(3 7.50741e-16 0)
(3 -2.68122e-16 0)
(3 -9.85929e-16 0)
(3 -1.43316e-16 0)
(3 5.09637e-16 0)
(3 9.48455e-16 0)
(3 8.85895e-16 0)
(3 8.243e-16 0)
(3 1.22428e-15 0)
(3 1.23023e-15 0)
(3 9.89896e-17 0)
(3 3.66579e-16 0)
(3 2.78424e-16 0)
(3 2.14986e-16 0)
(3 6.53832e-17 0)
(3 -1.3693e-16 0)
(3 -9.01403e-17 0)
(3 1.0045e-16 0)
(3 2.42868e-16 0)
(3 1.77366e-16 0)
(3 2.2972e-16 0)
(3 1.14999e-17 0)
(3 -7.39683e-16 0)
(3 -1.2612e-15 0)
(3 -1.16197e-15 0)
(3 -1.18879e-15 0)
(3 -2.76911e-16 0)
(3 1.12548e-16 0)
(3 2.04616e-16 0)
(3 8.00343e-16 0)
(3 1.05586e-15 0)
(3 9.98179e-16 0)
(3 6.97164e-16 0)
(3 6.79271e-16 0)
(3 -2.72057e-16 0)
(3 -4.45905e-16 0)
(3 -2.46177e-16 0)
(3 -5.0142e-16 0)
(3 -1.34029e-15 0)
(3 -2.03785e-15 0)
(3 -1.94819e-15 0)
(3 -2.13969e-15 0)
(3 -2.43451e-15 0)
(3 -2.5268e-15 0)
(3 -2.45939e-15 0)
(3 -2.16502e-15 0)
(3 -1.99564e-15 0)
(3 -1.32138e-15 0)
(3 5.62465e-18 0)
(3 5.12748e-16 0)
(3 9.40493e-16 0)
(3 1.5084e-15 0)
(3 1.84412e-15 0)
(3 1.6743e-15 0)
(3 1.39306e-15 0)
(3 1.36151e-15 0)
(3 9.92701e-16 0)
(3 7.80649e-16 0)
(3 9.7801e-16 0)
(3 5.55331e-16 0)
(3 2.45856e-16 0)
(3 1.28544e-15 0)
(3 1.97743e-15 0)
(3 2.32032e-15 0)
(3 2.1944e-15 0)
(3 1.79434e-15 0)
(3 9.43346e-16 0)
(3 9.07597e-16 0)
(3 1.22592e-15 0)
(3 1.27102e-15 0)
(3 1.44365e-15 0)
(3 6.87828e-16 0)
(3 8.83711e-16 0)
(3 1.56417e-15 0)
(3 1.32938e-15 0)
(3 5.13843e-16 0)
(3 5.16786e-16 0)
(3 2.76694e-16 0)
(3 4.02769e-16 0)
(3 4.62771e-16 0)
(3 2.08527e-16 0)
(3 2.12296e-16 0)
(3 1.0221e-15 0)
(3 1.13769e-15 0)
(3 1.07534e-15 0)
(3 1.55788e-15 0)
(3 1.53207e-15 0)
(3 7.05168e-16 0)
(3 -1.96766e-16 0)
(3 -8.84517e-16 0)
(3 -1.62197e-15 0)
(3 -1.86857e-15 0)
(3 -1.67302e-15 0)
(3 -1.29154e-15 0)
(3 -1.1486e-15 0)
(3 -1.40748e-15 0)
(3 -3.9678e-16 0)
(3 3.81114e-17 0)
(3 -8.40988e-16 0)
(3 -4.07208e-16 0)
(3 -2.59964e-16 0)
(3 8.22061e-17 0)
(3 1.11307e-15 0)
(3 2.2751e-15 0)
(3 1.4499e-15 0)
(3 1.21069e-15 0)
(3 -1.49697e-16 0)
(3 -3.93768e-16 0)
(3 -5.77306e-16 0)
(3 -1.9629e-16 0)
(3 5.99236e-16 0)
(3 6.98136e-16 0)
(3 2.06756e-16 0)
(3 -2.03522e-16 0)
(3 -2.01262e-16 0)
(3 -4.52894e-16 0)
(3 -6.13808e-16 0)
(3 -4.74469e-16 0)
(3 -1.12826e-15 0)
(3 -1.31642e-15 0)
(3 -1.40472e-15 0)
(3 -9.11379e-16 0)
(3 -2.92671e-16 0)
(3 -3.02521e-16 0)
(3 2.94831e-16 0)
(3 1.20149e-15 0)
(3 1.20732e-15 0)
(3 7.76628e-16 0)
(3 -3.01482e-18 0)
(3 4.87498e-17 0)
(3 -2.51043e-16 0)
(3 -2.57486e-16 0)
(3 -1.93043e-16 0)
(3 -8.42867e-16 0)
(3 -4.01385e-16 0)
(3 -3.54628e-16 0)
(3 -5.75474e-16 0)
(3 -1.00704e-15 0)
(3 -1.52484e-15 0)
(3 -1.36679e-15 0)
(3 -1.36029e-15 0)
(3 -1.04703e-15 0)
(3 -8.66925e-16 0)
(3 -3.18657e-16 0)
(3 6.77431e-16 0)
(3 1.54261e-15 0)
(3 2.75108e-15 0)
(3 4.31762e-15 0)
(3 3.81678e-15 0)
(3 3.126e-15 0)
(3 2.03912e-15 0)
(3 1.04656e-15 0)
(3 5.11277e-16 0)
(3 -2.2414e-16 0)
(3 -1.90792e-16 0)
(3 2.61852e-16 0)
(3 4.97017e-16 0)
(3 6.29436e-16 0)
(3 8.26779e-16 0)
(3 4.9839e-16 0)
(3 1.0003e-15 0)
(3 1.54473e-15 0)
(3 2.48438e-15 0)
(3 2.75093e-15 0)
(3 2.53246e-15 0)
(3 5.94415e-16 0)
(3 3.3892e-16 0)
(3 5.76473e-16 0)
(3 8.5204e-16 0)
(3 1.21471e-15 0)
(3 1.75859e-15 0)
(3 1.60445e-15 0)
(3 1.29938e-15 0)
(3 4.17772e-16 0)
(3 -5.2138e-16 0)
(3 -7.56973e-16 0)
(3 -3.08388e-16 0)
(3 1.00099e-15 0)
(3 1.70196e-15 0)
(3 1.60753e-15 0)
(3 1.59594e-15 0)
(3 1.71758e-15 0)
(3 1.85383e-15 0)
(3 1.53338e-15 0)
(3 5.03496e-16 0)
(3 -2.13838e-16 0)
(3 -1.82181e-15 0)
(3 -2.83171e-15 0)
(3 -2.24606e-15 0)
(3 -7.98942e-16 0)
(3 -9.50711e-16 0)
(3 -1.45799e-16 0)
(3 1.80042e-17 0)
(3 1.22411e-15 0)
(3 1.89521e-15 0)
(3 1.03034e-15 0)
(3 9.82485e-16 0)
(3 1.03594e-15 0)
(3 1.17227e-15 0)
(3 1.50056e-15 0)
(3 1.38939e-15 0)
(3 1.23641e-15 0)
(3 -1.05098e-16 0)
(3 1.77428e-17 0)
(3 3.84639e-16 0)
(3 2.27333e-16 0)
(3 1.12791e-16 0)
(3 -2.65381e-16 0)
(3 -4.5489e-16 0)
(3 -6.59905e-16 0)
(3 -4.14197e-16 0)
(3 -4.80507e-16 0)
(3 -1.37884e-15 0)
(3 -1.22764e-15 0)
(3 -5.15648e-16 0)
(3 -4.78461e-16 0)
(3 -4.23022e-16 0)
(3 -6.69754e-17 0)
(3 -5.09979e-17 0)
(3 2.50445e-16 0)
(3 9.41856e-16 0)
(3 7.26906e-16 0)
(3 4.8176e-16 0)
(3 9.21727e-16 0)
(3 1.24499e-15 0)
(3 1.11169e-15 0)
(3 7.92902e-16 0)
(3 4.304e-16 0)
(3 -1.23674e-16 0)
(3 -5.99131e-16 0)
(3 -2.80268e-16 0)
(3 -2.72796e-16 0)
(3 -1.96231e-16 0)
(3 -7.05647e-17 0)
(3 -1.65879e-16 0)
(3 -2.9798e-16 0)
(3 -7.59363e-16 0)
(3 -1.00813e-15 0)
(3 -1.9112e-16 0)
(3 5.26753e-16 0)
(3 4.68594e-16 0)
(3 -1.78341e-16 0)
(3 -3.67095e-16 0)
(3 8.64261e-16 0)
(3 3.29962e-15 0)
(3 2.92015e-15 0)
(3 1.36716e-15 0)
(3 2.75574e-16 0)
(3 -1.3757e-16 0)
(3 1.56337e-16 0)
(3 3.09577e-16 0)
(3 4.30412e-16 0)
(3 2.56903e-16 0)
(3 2.42268e-16 0)
(3 -4.52352e-17 0)
(3 8.05199e-16 0)
(3 1.81394e-15 0)
(3 2.02348e-15 0)
(3 2.13819e-15 0)
(3 1.70527e-15 0)
(3 1.30673e-15 0)
(3 8.03357e-16 0)
(3 7.44834e-17 0)
(3 2.00628e-15 0)
(3 2.07288e-15 0)
(3 1.78851e-15 0)
(3 2.63734e-15 0)
(3 2.92055e-15 0)
(3 2.86111e-15 0)
(3 1.91793e-15 0)
(3 1.16213e-15 0)
(3 8.73994e-16 0)
(3 8.17665e-16 0)
(3 1.20545e-15 0)
(3 7.92043e-16 0)
(3 9.87074e-16 0)
(3 7.61407e-16 0)
(3 3.12093e-16 0)
(3 1.3965e-16 0)
(3 2.21881e-16 0)
(3 2.18083e-17 0)
(3 -1.40983e-15 0)
(3 -2.93546e-15 0)
(3 -3.51095e-15 0)
(3 -2.93379e-15 0)
(3 -1.50432e-15 0)
(3 -1.4819e-15 0)
(3 -1.68701e-15 0)
(3 -1.18702e-15 0)
(3 -5.05523e-16 0)
(3 1.21225e-15 0)
(3 2.25613e-15 0)
(3 2.38854e-15 0)
(3 1.79099e-15 0)
(3 1.48783e-15 0)
(3 1.36009e-15 0)
(3 1.259e-15 0)
(3 6.31027e-16 0)
(3 6.55145e-18 0)
(3 -8.47482e-17 0)
(3 1.77853e-16 0)
(3 4.64285e-16 0)
(3 -6.08172e-16 0)
(3 -1.17049e-15 0)
(3 -1.05265e-15 0)
(3 -6.85015e-17 0)
(3 3.70535e-16 0)
(3 6.27026e-16 0)
(3 8.36818e-17 0)
(3 -6.4016e-16 0)
(3 -4.02752e-16 0)
(3 -1.8312e-16 0)
(3 -3.53823e-16 0)
(3 -6.45116e-16 0)
(3 -5.52176e-16 0)
(3 5.89676e-17 0)
(3 4.49656e-16 0)
(3 3.24658e-16 0)
(3 7.60031e-16 0)
(3 1.08513e-15 0)
(3 1.54818e-15 0)
(3 8.96511e-16 0)
(3 1.05446e-15 0)
(3 1.23329e-15 0)
(3 1.10215e-15 0)
(3 9.35372e-16 0)
(3 5.53575e-16 0)
(3 3.23155e-16 0)
(3 4.58142e-16 0)
(3 8.16995e-16 0)
(3 9.35001e-16 0)
(3 8.84054e-16 0)
(3 8.18193e-16 0)
(3 1.58788e-16 0)
(3 1.13333e-16 0)
(3 2.96468e-16 0)
(3 6.35575e-16 0)
(3 4.22692e-16 0)
(3 -1.90494e-16 0)
(3 9.71416e-18 0)
(3 2.09213e-15 0)
(3 2.37432e-15 0)
(3 1.15572e-15 0)
(3 1.35554e-15 0)
(3 9.46624e-16 0)
(3 1.37449e-15 0)
(3 1.12183e-15 0)
(3 1.27518e-16 0)
(3 -3.46842e-16 0)
(3 -4.7557e-16 0)
(3 -4.8849e-16 0)
(3 4.29035e-17 0)
(3 3.75408e-16 0)
(3 9.96871e-16 0)
(3 1.2165e-15 0)
(3 9.86805e-16 0)
(3 6.02758e-16 0)
(3 7.21231e-16 0)
(3 8.79843e-16 0)
(3 6.45816e-16 0)
(3 7.44813e-16 0)
(3 3.91585e-16 0)
(3 1.58835e-15 0)
(3 2.91793e-15 0)
(3 2.60934e-15 0)
(3 2.07561e-15 0)
(3 1.78651e-15 0)
(3 1.55824e-15 0)
(3 1.54983e-15 0)
(3 6.51419e-16 0)
(3 -1.8214e-16 0)
(3 -5.06177e-16 0)
(3 -4.01567e-16 0)
(3 -9.4582e-16 0)
(3 -2.19418e-15 0)
(3 -2.56018e-15 0)
(3 -2.3178e-15 0)
(3 -3.085e-15 0)
(3 -3.95479e-15 0)
(3 -3.67733e-15 0)
(3 -2.8384e-15 0)
(3 -2.0522e-15 0)
(3 -1.98781e-15 0)
(3 -2.01144e-15 0)
(3 -1.32945e-15 0)
(3 6.59792e-18 0)
(3 6.25813e-16 0)
(3 1.7108e-15 0)
(3 1.87512e-15 0)
(3 1.7312e-15 0)
(3 1.6662e-15 0)
(3 1.358e-15 0)
(3 6.81064e-16 0)
(3 8.31665e-16 0)
(3 2.64372e-16 0)
(3 -1.09098e-16 0)
(3 -3.4833e-16 0)
(3 -1.61308e-16 0)
(3 1.0794e-17 0)
(3 -2.67397e-16 0)
(3 -5.95709e-16 0)
(3 -5.97421e-16 0)
(3 -3.35165e-16 0)
(3 2.57304e-16 0)
(3 7.90149e-16 0)
(3 5.14976e-17 0)
(3 -3.64869e-16 0)
(3 -2.35741e-16 0)
(3 -2.43848e-16 0)
(3 -5.44153e-16 0)
(3 -4.31309e-16 0)
(3 -3.21033e-16 0)
(3 -4.27684e-16 0)
(3 -4.52187e-16 0)
(3 4.74168e-17 0)
(3 -3.3648e-16 0)
(3 -1.02148e-15 0)
(3 -7.29386e-16 0)
(3 2.20075e-16 0)
(3 1.71535e-15 0)
(3 2.23614e-15 0)
(3 1.96664e-15 0)
(3 1.48405e-15 0)
(3 1.74943e-15 0)
(3 1.55449e-15 0)
(3 1.29751e-15 0)
(3 1.1823e-15 0)
(3 1.05976e-15 0)
(3 1.27153e-15 0)
(3 1.82989e-15 0)
(3 7.42809e-16 0)
(3 1.03809e-16 0)
(3 4.57953e-17 0)
(3 5.33369e-17 0)
(3 -2.30068e-16 0)
(3 3.06574e-16 0)
(3 7.63351e-17 0)
(3 6.57277e-16 0)
(3 1.31734e-15 0)
(3 1.90971e-15 0)
(3 1.84011e-15 0)
(3 1.9361e-15 0)
(3 1.62376e-15 0)
(3 1.02677e-15 0)
(3 7.35619e-16 0)
(3 2.09364e-16 0)
(3 -8.94591e-16 0)
(3 -1.63651e-15 0)
(3 -1.66432e-15 0)
(3 -1.51547e-15 0)
(3 -8.01098e-16 0)
(3 -1.87146e-16 0)
(3 -4.5188e-16 0)
(3 -5.86654e-16 0)
(3 -5.7841e-16 0)
(3 -9.59695e-16 0)
(3 -1.43415e-15 0)
(3 -1.02332e-15 0)
(3 -2.6269e-16 0)
(3 4.07856e-16 0)
(3 5.84225e-16 0)
(3 5.96996e-16 0)
(3 6.71139e-16 0)
(3 5.68872e-16 0)
(3 4.43333e-16 0)
(3 3.89436e-16 0)
(3 4.19954e-16 0)
(3 -4.24246e-16 0)
(3 -1.0127e-15 0)
(3 -1.63135e-15 0)
(3 -1.83828e-15 0)
(3 -3.13416e-15 0)
(3 -3.96293e-15 0)
(3 -4.3279e-15 0)
(3 -4.00569e-15 0)
(3 -2.86306e-15 0)
(3 -2.59687e-15 0)
(3 -3.2126e-15 0)
(3 -4.15358e-15 0)
(3 -3.50321e-15 0)
(3 -1.79737e-15 0)
(3 -8.8754e-16 0)
(3 3.23548e-17 0)
(3 7.66723e-16 0)
(3 1.1526e-15 0)
(3 1.34266e-15 0)
(3 1.16442e-15 0)
(3 2.76997e-16 0)
(3 9.63749e-16 0)
(3 2.64034e-15 0)
(3 1.13774e-16 0)
(3 1.2745e-16 0)
(3 -6.24517e-17 0)
(3 2.06083e-16 0)
(3 1.63174e-16 0)
(3 -1.41861e-16 0)
(3 -2.23768e-16 0)
(3 -6.10603e-16 0)
(3 -4.69135e-16 0)
(3 -3.65375e-16 0)
(3 -2.87136e-16 0)
(3 -8.9209e-17 0)
(3 3.75603e-16 0)
(3 4.23608e-16 0)
(3 1.01494e-15 0)
(3 1.15785e-15 0)
(3 7.76145e-16 0)
(3 6.54334e-16 0)
(3 -5.39819e-16 0)
(3 -7.64281e-16 0)
(3 -3.11229e-19 0)
(3 4.9183e-16 0)
(3 -5.39092e-17 0)
(3 -5.37522e-16 0)
(3 -4.55131e-16 0)
(3 9.82895e-17 0)
(3 1.09789e-15 0)
(3 9.06286e-16 0)
(3 3.08375e-16 0)
(3 5.15374e-16 0)
(3 3.04602e-16 0)
(3 3.96963e-16 0)
(3 1.48348e-15 0)
(3 2.25213e-15 0)
(3 1.83442e-15 0)
(3 1.22293e-15 0)
(3 -2.62247e-16 0)
(3 -4.46485e-16 0)
(3 -2.69689e-16 0)
(3 5.94281e-18 0)
(3 -2.17502e-16 0)
(3 -1.71073e-15 0)
(3 -2.50441e-15 0)
(3 -2.43649e-15 0)
(3 -1.26032e-15 0)
(3 1.70298e-16 0)
(3 1.41836e-15 0)
(3 1.62103e-15 0)
(3 1.84467e-15 0)
(3 1.90104e-15 0)
(3 1.87887e-15 0)
(3 4.50596e-16 0)
(3 -1.09513e-15 0)
(3 -1.67283e-15 0)
(3 -2.52724e-15 0)
(3 -2.9312e-15 0)
(3 -2.69837e-15 0)
(3 -2.06791e-15 0)
(3 -1.55021e-15 0)
(3 -1.08772e-15 0)
(3 -1.18917e-15 0)
(3 -1.26926e-15 0)
(3 -1.5192e-15 0)
(3 -1.69667e-15 0)
(3 -2.1178e-15 0)
(3 -2.20312e-15 0)
(3 -2.32061e-15 0)
(3 -1.84568e-15 0)
(3 -1.07798e-15 0)
(3 -7.66684e-16 0)
(3 -8.58819e-16 0)
(3 -4.3211e-16 0)
(3 5.58207e-16 0)
(3 8.26796e-16 0)
(3 4.0271e-16 0)
(3 -5.05197e-16 0)
(3 -1.36009e-15 0)
(3 -2.78442e-15 0)
(3 -5.47032e-15 0)
(3 -4.64253e-15 0)
(3 -2.74762e-15 0)
(3 -1.6382e-15 0)
(3 -2.00676e-15 0)
(3 -3.42864e-15 0)
(3 -3.88278e-15 0)
(3 -3.42084e-15 0)
(3 -2.68147e-15 0)
(3 -2.33666e-15 0)
(3 -1.50797e-15 0)
(3 -2.24356e-16 0)
(3 2.73076e-16 0)
(3 1.1267e-15 0)
(3 8.83398e-16 0)
(3 1.58915e-15 0)
(3 2.19991e-15 0)
(3 1.67104e-15 0)
(3 -4.52985e-16 0)
(3 -4.23143e-16 0)
(3 -4.66445e-16 0)
(3 -6.04723e-16 0)
(3 -4.37748e-16 0)
(3 5.18651e-16 0)
(3 7.45061e-16 0)
(3 5.62946e-16 0)
(3 4.2772e-16 0)
(3 2.70776e-16 0)
(3 -6.81405e-18 0)
(3 2.738e-16 0)
(3 3.94815e-16 0)
(3 9.30665e-16 0)
(3 1.00284e-15 0)
(3 1.1098e-15 0)
(3 5.00523e-16 0)
(3 2.2446e-16 0)
(3 3.8134e-16 0)
(3 5.27041e-16 0)
(3 4.60012e-16 0)
(3 4.80859e-16 0)
(3 1.14494e-15 0)
(3 8.5353e-16 0)
(3 4.65695e-16 0)
(3 -8.32587e-17 0)
(3 -5.17581e-16 0)
(3 -7.51246e-16 0)
(3 -3.26099e-16 0)
(3 -1.15099e-16 0)
(3 -2.18424e-16 0)
(3 -6.65576e-17 0)
(3 1.33579e-15 0)
(3 1.72324e-15 0)
(3 1.31979e-15 0)
(3 1.10824e-15 0)
(3 -6.99081e-17 0)
(3 -6.32664e-16 0)
(3 -7.88546e-16 0)
(3 -8.83194e-16 0)
(3 -9.27867e-16 0)
(3 -2.22074e-15 0)
(3 -2.73467e-15 0)
(3 -2.9867e-15 0)
(3 -1.44496e-15 0)
(3 1.86732e-16 0)
(3 1.19579e-15 0)
(3 1.14257e-15 0)
(3 1.20178e-15 0)
(3 1.13404e-15 0)
(3 4.43914e-16 0)
(3 4.69525e-16 0)
(3 3.17804e-16 0)
(3 8.18466e-18 0)
(3 -1.80419e-15 0)
(3 -2.5472e-15 0)
(3 -2.10872e-15 0)
(3 -1.39656e-15 0)
(3 -9.62053e-16 0)
(3 -8.81142e-16 0)
(3 -8.26753e-16 0)
(3 -1.00983e-15 0)
(3 -1.17383e-15 0)
(3 -1.5437e-15 0)
(3 -2.2471e-15 0)
(3 -2.20474e-15 0)
(3 -2.00262e-15 0)
(3 -1.42519e-15 0)
(3 -9.65387e-16 0)
(3 -4.26986e-16 0)
(3 1.31885e-16 0)
(3 1.41674e-16 0)
(3 2.96155e-16 0)
(3 8.22552e-16 0)
(3 -6.41607e-17 0)
(3 -6.89665e-16 0)
(3 -1.02966e-15 0)
(3 -2.69135e-15 0)
(3 -3.89149e-15 0)
(3 -3.62856e-15 0)
(3 -3.51795e-15 0)
(3 -2.76563e-15 0)
(3 -2.17021e-15 0)
(3 -1.95394e-15 0)
(3 -1.82615e-15 0)
(3 -2.26649e-15 0)
(3 -1.72963e-15 0)
(3 4.61924e-17 0)
(3 7.91333e-16 0)
(3 1.97598e-15 0)
(3 2.3532e-15 0)
(3 2.31781e-15 0)
(3 1.75315e-15 0)
(3 1.61784e-15 0)
(3 1.43694e-15 0)
(3 5.70545e-16 0)
(3 -2.64964e-17 0)
(3 1.55776e-16 0)
(3 1.84562e-16 0)
(3 -2.22964e-16 0)
(3 -1.53373e-17 0)
(3 4.6493e-16 0)
(3 5.34697e-16 0)
(3 3.05897e-16 0)
(3 3.75909e-16 0)
(3 5.44155e-16 0)
(3 5.85162e-16 0)
(3 4.0653e-16 0)
(3 -5.58476e-17 0)
(3 -2.07421e-16 0)
(3 -4.37657e-16 0)
(3 -4.19982e-16 0)
(3 -2.36275e-16 0)
(3 4.33094e-16 0)
(3 5.90031e-16 0)
(3 -2.90955e-16 0)
(3 -5.37583e-16 0)
(3 -7.62307e-16 0)
(3 -1.02148e-15 0)
(3 -7.4668e-16 0)
(3 -6.906e-16 0)
(3 -7.99454e-16 0)
(3 -9.7421e-16 0)
(3 -1.3192e-15 0)
(3 -9.81044e-16 0)
(3 -8.27227e-16 0)
(3 -9.95699e-16 0)
(3 -9.7337e-16 0)
(3 -4.17621e-16 0)
(3 -3.8809e-16 0)
(3 4.64761e-16 0)
(3 7.9479e-16 0)
(3 2.40367e-16 0)
(3 -3.47792e-16 0)
(3 -7.66968e-16 0)
(3 -1.71408e-15 0)
(3 -3.08352e-15 0)
(3 -3.0136e-15 0)
(3 -2.54495e-15 0)
(3 -1.77368e-15 0)
(3 -1.12214e-15 0)
(3 2.28418e-16 0)
(3 -2.44176e-16 0)
(3 -5.54949e-16 0)
(3 -8.50569e-16 0)
(3 -4.5963e-16 0)
(3 -5.63743e-16 0)
(3 -2.26391e-17 0)
(3 1.96046e-16 0)
(3 2.39425e-16 0)
(3 -3.02104e-16 0)
(3 -7.23103e-16 0)
(3 -8.91213e-16 0)
(3 -6.84202e-16 0)
(3 -7.99546e-16 0)
(3 -1.43075e-15 0)
(3 -1.44957e-15 0)
(3 -1.27408e-15 0)
(3 -7.13771e-16 0)
(3 -5.68984e-16 0)
(3 -1.09985e-15 0)
(3 -1.05813e-15 0)
(3 -4.963e-16 0)
(3 -2.33554e-16 0)
(3 -2.10642e-16 0)
(3 -1.22245e-15 0)
(3 -1.68164e-15 0)
(3 -1.92206e-15 0)
(3 -1.66288e-15 0)
(3 -1.40282e-15 0)
(3 -2.3083e-15 0)
(3 -2.39201e-15 0)
(3 -2.09546e-15 0)
(3 -1.56942e-15 0)
(3 -1.04076e-15 0)
(3 -4.55808e-16 0)
(3 -1.76999e-15 0)
(3 -3.32502e-15 0)
(3 -3.37555e-15 0)
(3 -1.80123e-15 0)
(3 -1.1431e-15 0)
(3 -1.34438e-15 0)
(3 -9.07955e-16 0)
(3 -4.30965e-16 0)
(3 1.69117e-16 0)
(3 8.44105e-16 0)
(3 6.75689e-16 0)
(3 2.194e-16 0)
(3 4.45322e-16 0)
(3 6.79674e-16 0)
(3 1.51233e-16 0)
(3 1.92665e-16 0)
(3 2.12469e-17 0)
(3 -1.4393e-17 0)
(3 -6.86218e-17 0)
(3 4.03129e-17 0)
(3 -2.83096e-16 0)
(3 -2.40181e-16 0)
(3 -7.64287e-17 0)
(3 2.92162e-16 0)
(3 3.11575e-16 0)
(3 4.63542e-16 0)
(3 -1.89698e-16 0)
(3 -5.27456e-16 0)
(3 -8.62714e-16 0)
(3 -1.04746e-15 0)
(3 -1.31834e-15 0)
(3 -6.98159e-16 0)
(3 4.64521e-16 0)
(3 6.52057e-16 0)
(3 4.73473e-18 0)
(3 -1.17506e-15 0)
(3 -1.37299e-15 0)
(3 -1.06478e-15 0)
(3 -1.88383e-15 0)
(3 -2.00067e-15 0)
(3 -1.87365e-15 0)
(3 -2.07871e-15 0)
(3 -1.12414e-15 0)
(3 -3.75376e-16 0)
(3 -5.35872e-16 0)
(3 -7.52189e-16 0)
(3 -1.26301e-16 0)
(3 -3.62258e-16 0)
(3 -1.07712e-15 0)
(3 -4.27053e-16 0)
(3 -2.70716e-16 0)
(3 -8.00216e-16 0)
(3 -7.39377e-16 0)
(3 -7.20689e-16 0)
(3 -9.65486e-16 0)
(3 -1.92206e-15 0)
(3 -2.64782e-15 0)
(3 -2.5046e-15 0)
(3 -1.57117e-15 0)
(3 -1.13887e-15 0)
(3 -9.99046e-16 0)
(3 -9.24731e-16 0)
(3 -1.03026e-15 0)
(3 -4.75047e-16 0)
(3 -3.32107e-16 0)
(3 -4.2092e-16 0)
(3 -1.19025e-15 0)
(3 -3.96189e-16 0)
(3 1.98443e-17 0)
(3 3.89147e-16 0)
(3 5.7186e-16 0)
(3 1.70649e-16 0)
(3 -7.30525e-16 0)
(3 -1.2875e-15 0)
(3 -1.39771e-15 0)
(3 -1.83906e-15 0)
(3 -2.60259e-15 0)
(3 -2.24731e-15 0)
(3 -2.3464e-15 0)
(3 -2.58138e-15 0)
(3 -2.35351e-15 0)
(3 -1.56016e-15 0)
(3 -6.17739e-16 0)
(3 -1.96562e-17 0)
(3 -2.8304e-16 0)
(3 -1.07932e-15 0)
(3 -2.53006e-15 0)
(3 -3.2269e-15 0)
(3 -3.28193e-15 0)
(3 -3.25516e-15 0)
(3 -2.80266e-15 0)
(3 -2.81707e-15 0)
(3 -2.73243e-15 0)
(3 -1.93005e-15 0)
(3 -6.75951e-16 0)
(3 -2.24059e-16 0)
(3 -1.51483e-15 0)
(3 -2.05756e-15 0)
(3 -3.37776e-15 0)
(3 -4.01018e-15 0)
(3 -3.46249e-15 0)
(3 -2.09331e-15 0)
(3 -1.5349e-15 0)
(3 -1.6876e-15 0)
(3 -1.01732e-15 0)
(3 -1.0644e-15 0)
(3 -1.36214e-15 0)
(3 -1.25869e-15 0)
(3 -9.12257e-16 0)
(3 -5.04657e-16 0)
(3 -5.94894e-16 0)
(3 -8.82551e-16 0)
(3 4.33936e-17 0)
(3 -2.31506e-17 0)
(3 -1.27243e-16 0)
(3 2.83326e-17 0)
(3 2.90549e-16 0)
(3 4.64901e-16 0)
(3 7.63332e-16 0)
(3 7.66442e-16 0)
(3 5.2527e-17 0)
(3 -4.7044e-16 0)
(3 -3.39691e-16 0)
(3 -5.84265e-16 0)
(3 -8.43151e-16 0)
(3 -2.71842e-16 0)
(3 -1.05735e-17 0)
(3 1.59033e-15 0)
(3 1.91614e-15 0)
(3 1.08845e-15 0)
(3 4.46305e-16 0)
(3 6.4327e-17 0)
(3 -1.15838e-15 0)
(3 -1.74119e-15 0)
(3 -1.36543e-15 0)
(3 -1.09141e-15 0)
(3 -5.27915e-16 0)
(3 -1.21975e-15 0)
(3 -1.5823e-15 0)
(3 -1.05127e-15 0)
(3 -5.63424e-16 0)
(3 -6.89441e-16 0)
(3 -5.45933e-16 0)
(3 -2.44922e-16 0)
(3 -2.53581e-16 0)
(3 -7.19353e-16 0)
(3 -9.33047e-16 0)
(3 -1.60067e-15 0)
(3 -1.32534e-15 0)
(3 -6.52609e-16 0)
(3 -1.19568e-16 0)
(3 -1.02793e-16 0)
(3 -1.16692e-15 0)
(3 -1.03285e-15 0)
(3 -4.8539e-16 0)
(3 -2.37229e-16 0)
(3 -9.69153e-16 0)
(3 -1.41665e-15 0)
(3 -7.32256e-16 0)
(3 -2.67085e-16 0)
(3 -2.97907e-16 0)
(3 -1.13203e-15 0)
(3 -6.78083e-16 0)
(3 -4.74734e-16 0)
(3 1.30346e-16 0)
(3 2.45999e-16 0)
(3 5.80441e-16 0)
(3 2.94982e-16 0)
(3 -1.42888e-16 0)
(3 -1.43875e-15 0)
(3 -2.02195e-15 0)
(3 -2.02805e-15 0)
(3 -1.88934e-15 0)
(3 -1.98847e-15 0)
(3 -2.88455e-15 0)
(3 -3.04077e-15 0)
(3 -2.14788e-15 0)
(3 -1.1648e-15 0)
(3 -7.84134e-16 0)
(3 -1.0959e-15 0)
(3 -1.57851e-15 0)
(3 -1.87706e-15 0)
(3 -2.23153e-15 0)
(3 -3.08776e-15 0)
(3 -3.64839e-15 0)
(3 -3.91732e-15 0)
(3 -2.40223e-15 0)
(3 -1.27385e-15 0)
(3 -5.71425e-16 0)
(3 -3.36873e-16 0)
(3 3.87989e-17 0)
(3 -1.2991e-16 0)
(3 -1.62571e-16 0)
(3 1.3456e-15 0)
(3 -9.05004e-18 0)
(3 -2.64691e-15 0)
(3 -3.92833e-15 0)
(3 -3.38135e-15 0)
(3 -2.65583e-15 0)
(3 -1.83059e-15 0)
(3 -1.41705e-15 0)
(3 -1.47199e-15 0)
(3 -1.46798e-15 0)
(3 -1.61126e-15 0)
(3 -1.57529e-15 0)
(3 -1.86396e-15 0)
(3 -1.32474e-15 0)
(3 -5.38714e-16 0)
(3 -3.17428e-18 0)
(3 -6.74146e-17 0)
(3 -8.08021e-17 0)
(3 -4.87435e-17 0)
(3 5.05048e-16 0)
(3 4.08096e-17 0)
(3 -2.01274e-16 0)
(3 -3.39818e-16 0)
(3 -1.39335e-16 0)
(3 3.55036e-16 0)
(3 5.34891e-16 0)
(3 3.95461e-16 0)
(3 6.00326e-16 0)
(3 9.88661e-16 0)
(3 1.08655e-15 0)
(3 8.5379e-16 0)
(3 9.94301e-16 0)
(3 4.23206e-17 0)
(3 2.00756e-16 0)
(3 -3.09032e-16 0)
(3 -1.25363e-15 0)
(3 -1.94747e-15 0)
(3 -1.25269e-15 0)
(3 -5.47287e-16 0)
(3 6.10011e-18 0)
(3 8.25441e-17 0)
(3 -4.65945e-16 0)
(3 -4.46017e-16 0)
(3 -6.60106e-16 0)
(3 -6.5209e-16 0)
(3 -7.03707e-16 0)
(3 -4.51228e-16 0)
(3 -7.99342e-16 0)
(3 -1.85487e-15 0)
(3 -2.4703e-15 0)
(3 -2.02289e-15 0)
(3 -1.12703e-15 0)
(3 -3.51999e-16 0)
(3 3.0639e-16 0)
(3 3.0999e-16 0)
(3 -3.99447e-17 0)
(3 -2.01569e-16 0)
(3 -5.53983e-16 0)
(3 -9.89851e-16 0)
(3 -1.07222e-15 0)
(3 -1.56401e-15 0)
(3 -1.76501e-15 0)
(3 -2.0205e-15 0)
(3 -2.0731e-15 0)
(3 -1.61798e-15 0)
(3 -1.35151e-15 0)
(3 -1.35038e-15 0)
(3 -8.55453e-16 0)
(3 -2.9769e-16 0)
(3 3.65311e-16 0)
(3 5.28981e-16 0)
(3 4.81875e-16 0)
(3 -2.99244e-16 0)
(3 -1.07977e-15 0)
(3 -1.89069e-15 0)
(3 -2.02784e-15 0)
(3 -2.67023e-15 0)
(3 -2.43965e-15 0)
(3 -2.14696e-15 0)
(3 -1.7824e-15 0)
(3 -1.78756e-15 0)
(3 -2.22022e-15 0)
(3 -2.57343e-15 0)
(3 -2.59418e-15 0)
(3 -2.30298e-15 0)
(3 -2.38472e-15 0)
(3 -2.99679e-15 0)
(3 -3.19693e-15 0)
(3 -3.16124e-15 0)
(3 -1.98004e-15 0)
(3 -1.44398e-15 0)
(3 -6.7762e-16 0)
(3 1.571e-16 0)
(3 5.47635e-16 0)
(3 6.67285e-16 0)
(3 1.03472e-15 0)
(3 3.60916e-16 0)
(3 1.09683e-16 0)
(3 -2.31999e-16 0)
(3 -1.75665e-15 0)
(3 -3.18137e-15 0)
(3 -3.14839e-15 0)
(3 -1.8927e-15 0)
(3 -1.73089e-15 0)
(3 -1.78392e-15 0)
(3 -1.83011e-15 0)
(3 -1.27645e-15 0)
(3 -9.73267e-16 0)
(3 -9.20252e-16 0)
(3 -6.67707e-16 0)
(3 -3.80928e-16 0)
(3 -1.71256e-16 0)
(3 -4.17318e-16 0)
(3 -4.31993e-16 0)
(3 -2.00253e-16 0)
(3 -1.12613e-16 0)
(3 -2.95395e-16 0)
(3 -9.20425e-16 0)
(3 -1.27218e-15 0)
(3 -4.21192e-16 0)
(3 -1.73068e-16 0)
(3 -1.07193e-16 0)
(3 1.33931e-16 0)
(3 4.97966e-16 0)
(3 9.63695e-16 0)
(3 1.14767e-15 0)
(3 -2.98119e-16 0)
(3 -5.80428e-16 0)
(3 -2.72496e-16 0)
(3 -6.87883e-16 0)
(3 -3.77675e-16 0)
(3 -7.81151e-16 0)
(3 -8.68301e-16 0)
(3 -9.66254e-16 0)
(3 6.46554e-18 0)
(3 -4.88819e-17 0)
(3 1.29466e-16 0)
(3 5.24489e-16 0)
(3 7.66187e-16 0)
(3 8.88048e-16 0)
(3 8.51482e-16 0)
(3 8.85452e-16 0)
(3 6.68252e-16 0)
(3 1.73211e-16 0)
(3 -8.43603e-16 0)
(3 -1.58847e-15 0)
(3 -1.7206e-15 0)
(3 -1.32772e-15 0)
(3 -1.76549e-16 0)
(3 1.10329e-16 0)
(3 2.20154e-16 0)
(3 2.37079e-16 0)
(3 -2.28859e-16 0)
(3 -1.18828e-15 0)
(3 -1.92494e-15 0)
(3 -1.72417e-15 0)
(3 -1.47899e-15 0)
(3 -1.91354e-15 0)
(3 -2.92182e-15 0)
(3 -2.87774e-15 0)
(3 -2.33252e-15 0)
(3 -1.70013e-15 0)
(3 -1.51034e-15 0)
(3 -1.01825e-15 0)
(3 -4.15103e-16 0)
(3 -2.65349e-16 0)
(3 -2.22791e-16 0)
(3 -2.07867e-16 0)
(3 3.75842e-16 0)
(3 4.49797e-16 0)
(3 -4.02786e-16 0)
(3 -1.29405e-15 0)
(3 -1.57727e-15 0)
(3 -1.52476e-15 0)
(3 -1.51858e-15 0)
(3 -2.17416e-15 0)
(3 -2.93092e-15 0)
(3 -2.74667e-15 0)
(3 -2.56932e-15 0)
(3 -2.73379e-15 0)
(3 -2.40701e-15 0)
(3 -2.29035e-15 0)
(3 -2.65082e-15 0)
(3 -2.79505e-15 0)
(3 -2.85755e-15 0)
(3 -2.04368e-15 0)
(3 -2.19644e-15 0)
(3 -1.97134e-15 0)
(3 -1.71389e-15 0)
(3 -1.36115e-15 0)
(3 -1.03838e-15 0)
(3 -9.66682e-16 0)
(3 -1.22721e-15 0)
(3 -1.22436e-15 0)
(3 -1.20411e-15 0)
(3 -1.44116e-15 0)
(3 -1.77154e-15 0)
(3 -1.77668e-15 0)
(3 -1.35404e-15 0)
(3 -1.15052e-15 0)
(3 -1.05224e-15 0)
(3 -1.14251e-15 0)
(3 -9.35356e-16 0)
(3 -2.99877e-16 0)
(3 4.9776e-16 0)
(3 9.985e-16 0)
(3 1.52807e-15 0)
(3 -1.47492e-17 0)
(3 7.13214e-17 0)
(3 1.24248e-16 0)
(3 2.56356e-17 0)
(3 -5.94814e-16 0)
(3 -1.54008e-16 0)
(3 3.06116e-17 0)
(3 3.76679e-17 0)
(3 -6.49869e-16 0)
(3 -1.1645e-15 0)
(3 -7.81368e-16 0)
(3 -2.73133e-16 0)
(3 -1.70435e-16 0)
(3 -3.90208e-17 0)
(3 -3.90049e-16 0)
(3 -7.82051e-16 0)
(3 -1.15929e-15 0)
(3 -1.12924e-15 0)
(3 -7.62405e-16 0)
(3 -1.34475e-16 0)
(3 2.18905e-16 0)
(3 4.52705e-16 0)
(3 8.03065e-16 0)
(3 8.52809e-16 0)
(3 4.5958e-16 0)
(3 3.38704e-16 0)
(3 5.23302e-16 0)
(3 6.28124e-16 0)
(3 1.13405e-15 0)
(3 9.57454e-16 0)
(3 9.73817e-16 0)
(3 7.63876e-16 0)
(3 3.21258e-16 0)
(3 4.3019e-16 0)
(3 1.73191e-16 0)
(3 2.81171e-16 0)
(3 3.79992e-16 0)
(3 2.45762e-16 0)
(3 1.18609e-16 0)
(3 5.37455e-17 0)
(3 7.15291e-17 0)
(3 9.9049e-17 0)
(3 -2.47517e-16 0)
(3 -3.45401e-16 0)
(3 -1.17367e-15 0)
(3 -1.36891e-15 0)
(3 -1.76458e-15 0)
(3 -1.91984e-15 0)
(3 -2.07769e-15 0)
(3 -1.53981e-15 0)
(3 -9.28501e-16 0)
(3 -4.77857e-16 0)
(3 -3.53651e-16 0)
(3 -1.33434e-16 0)
(3 -1.30097e-16 0)
(3 -2.84461e-16 0)
(3 -6.89307e-16 0)
(3 -7.54022e-16 0)