/*--------------------------------*- C++ -*----------------------------------*\
  =========                 |
  \\      /  F ield         | OpenFOAM: The Open Source CFD Toolbox
   \\    /   O peration     | Website:  https://openfoam.org
    \\  /    A nd           | Version:  7
     \\/     M anipulation  |
\*---------------------------------------------------------------------------*/
FoamFile
{
    version     2.0;
    format      ascii;
    class       volVectorField;
    location    "1.3";
    object      U;
}
// * * * * * * * * * * * * * * * * * * * * * * * * * * * * * * * * * * * * * //

dimensions      [0 1 -1 0 0 0 0];

internalField   nonuniform List<vector> 
73728
(
(3 -6.2836e-18 0)
(3 -4.94154e-17 0)
(3 -2.88937e-16 0)
(3 -7.11426e-16 0)
(3 -2.7138e-16 0)
(3 3.74438e-16 0)
(3 2.21343e-16 0)
(3 -3.91354e-16 0)
(3 -7.08367e-17 0)
(3 5.65885e-16 0)
(3 4.78847e-16 0)
(3 -7.35743e-17 0)
(3 -8.67371e-17 0)
(3 -1.09542e-16 0)
(3 -1.02115e-15 0)
(3 -1.51016e-15 0)
(3 -1.98246e-15 0)
(3 -1.85523e-15 0)
(3 -6.36971e-16 0)
(3 -3.35235e-16 0)
(3 2.50229e-16 0)
(3 7.80652e-16 0)
(3 -1.83556e-16 0)
(3 -3.82293e-16 0)
(3 -3.65166e-16 0)
(3 1.60627e-16 0)
(3 3.59e-16 0)
(3 1.40672e-15 0)
(3 1.3474e-15 0)
(3 1.18128e-15 0)
(3 5.06995e-16 0)
(3 -5.98989e-16 0)
(3 -5.84818e-16 0)
(3 -8.11304e-16 0)
(3 -1.19091e-15 0)
(3 -1.20169e-15 0)
(3 -7.84536e-16 0)
(3 -5.58731e-16 0)
(3 -3.43767e-16 0)
(3 -2.73664e-16 0)
(3 -4.76687e-16 0)
(3 -4.61932e-16 0)
(3 -2.27297e-16 0)
(3 7.28175e-17 0)
(3 5.34152e-18 0)
(3 -8.01436e-16 0)
(3 -2.00552e-15 0)
(3 -1.37703e-15 0)
(3 -1.08373e-15 0)
(3 -5.96276e-16 0)
(3 -1.65266e-16 0)
(3 -2.81157e-16 0)
(3 -4.15842e-16 0)
(3 -1.05662e-15 0)
(3 2.93473e-16 0)
(3 3.72872e-16 0)
(3 -4.81789e-16 0)
(3 -8.05706e-16 0)
(3 -3.06076e-16 0)
(3 -1.66177e-16 0)
(3 -4.08443e-16 0)
(3 4.02659e-16 0)
(3 8.0454e-16 0)
(3 6.55178e-16 0)
(3 -1.29422e-16 0)
(3 -1.31017e-15 0)
(3 -2.65829e-15 0)
(3 -2.61548e-15 0)
(3 -1.83193e-15 0)
(3 -1.01492e-15 0)
(3 -1.05633e-16 0)
(3 6.54226e-16 0)
(3 1.43629e-15 0)
(3 1.69197e-15 0)
(3 1.52142e-15 0)
(3 1.52237e-15 0)
(3 1.38521e-15 0)
(3 1.48741e-15 0)
(3 1.43068e-15 0)
(3 1.2862e-15 0)
(3 1.5419e-15 0)
(3 1.66182e-15 0)
(3 1.28837e-15 0)
(3 9.50404e-16 0)
(3 1.33867e-15 0)
(3 1.33665e-15 0)
(3 1.94355e-15 0)
(3 3.11592e-15 0)
(3 3.0465e-15 0)
(3 1.25203e-15 0)
(3 3.77121e-16 0)
(3 -1.13845e-15 0)
(3 -1.55078e-15 0)
(3 -1.50248e-15 0)
(3 -1.29248e-15 0)
(3 -1.2567e-15 0)
(3 -1.55694e-17 0)
(3 4.70772e-17 0)
(3 1.71195e-16 0)
(3 2.59847e-16 0)
(3 2.17387e-16 0)
(3 8.60928e-16 0)
(3 1.00578e-15 0)
(3 2.94159e-16 0)
(3 9.78426e-16 0)
(3 1.41573e-15 0)
(3 1.16712e-15 0)
(3 2.90467e-16 0)
(3 3.89033e-16 0)
(3 -5.91202e-16 0)
(3 -2.68306e-15 0)
(3 -4.13111e-15 0)
(3 -4.69175e-15 0)
(3 -2.13202e-15 0)
(3 4.91555e-16 0)
(3 1.98146e-15 0)
(3 2.3084e-15 0)
(3 1.93245e-15 0)
(3 1.38705e-15 0)
(3 1.33724e-15 0)
(3 1.55631e-15 0)
(3 2.51126e-15 0)
(3 2.4742e-15 0)
(3 2.31834e-15 0)
(3 1.34238e-15 0)
(3 -1.3976e-16 0)
(3 -1.45797e-15 0)
(3 -2.09495e-15 0)
(3 -1.00157e-15 0)
(3 7.7277e-16 0)
(3 1.06401e-15 0)
(3 5.60163e-16 0)
(3 2.33154e-16 0)
(3 1.51418e-15 0)
(3 2.13295e-15 0)
(3 1.90125e-15 0)
(3 1.46357e-15 0)
(3 2.15451e-15 0)
(3 3.08904e-15 0)
(3 4.04186e-15 0)
(3 3.18504e-15 0)
(3 5.1273e-16 0)
(3 -1.95035e-15 0)
(3 -1.99662e-15 0)
(3 -1.35978e-15 0)
(3 -3.79691e-16 0)
(3 5.97736e-16 0)
(3 6.56678e-16 0)
(3 3.18032e-16 0)
(3 -1.35673e-15 0)
(3 1.50113e-16 0)
(3 -2.26713e-16 0)
(3 -9.08115e-16 0)
(3 -1.30919e-15 0)
(3 -9.17888e-16 0)
(3 -8.91416e-16 0)
(3 -4.59292e-16 0)
(3 5.96426e-16 0)
(3 1.30351e-15 0)
(3 1.55106e-15 0)
(3 1.2133e-15 0)
(3 4.18945e-16 0)
(3 -1.05844e-15 0)
(3 -1.4944e-15 0)
(3 -1.7059e-15 0)
(3 -4.59544e-16 0)
(3 9.8555e-16 0)
(3 1.49334e-15 0)
(3 2.29315e-15 0)
(3 2.58293e-15 0)
(3 2.38129e-15 0)
(3 1.85023e-15 0)
(3 2.28841e-15 0)
(3 2.83299e-15 0)
(3 2.68621e-15 0)
(3 1.67209e-15 0)
(3 1.88843e-15 0)
(3 2.39852e-15 0)
(3 2.95412e-15 0)
(3 2.7595e-15 0)
(3 2.21355e-15 0)
(3 2.60759e-15 0)
(3 3.78141e-15 0)
(3 5.20541e-15 0)
(3 4.99463e-15 0)
(3 1.71493e-15 0)
(3 -4.38379e-16 0)
(3 -1.86212e-15 0)
(3 -2.99193e-15 0)
(3 -3.65587e-15 0)
(3 -2.74128e-15 0)
(3 -3.13858e-15 0)
(3 -1.49527e-16 0)
(3 -1.88395e-16 0)
(3 3.1386e-16 0)
(3 5.83701e-16 0)
(3 7.73496e-16 0)
(3 4.7561e-16 0)
(3 8.1143e-16 0)
(3 1.75914e-15 0)
(3 1.1668e-15 0)
(3 6.37978e-16 0)
(3 5.26845e-16 0)
(3 5.56697e-16 0)
(3 4.66523e-16 0)
(3 -1.21229e-16 0)
(3 -1.394e-15 0)
(3 -2.73194e-15 0)
(3 -3.07309e-15 0)
(3 -2.55016e-15 0)
(3 -7.26682e-16 0)
(3 1.15181e-16 0)
(3 2.6342e-16 0)
(3 3.02657e-17 0)
(3 1.25599e-18 0)
(3 5.56437e-16 0)
(3 1.52928e-15 0)
(3 2.82074e-15 0)
(3 2.56168e-15 0)
(3 1.4058e-15 0)
(3 -6.22521e-16 0)
(3 -1.24007e-15 0)
(3 -7.77453e-16 0)
(3 -7.92198e-17 0)
(3 -1.44286e-15 0)
(3 -1.14284e-15 0)
(3 -2.67761e-16 0)
(3 -1.17061e-15 0)
(3 -2.14747e-15 0)
(3 -1.6252e-16 0)
(3 4.65933e-16 0)
(3 4.55589e-16 0)
(3 9.33011e-16 0)
(3 1.25531e-15 0)
(3 2.15052e-15 0)
(3 2.71002e-15 0)
(3 2.28935e-15 0)
(3 -9.32072e-16 0)
(3 -2.83788e-15 0)
(3 -2.7809e-15 0)
(3 -1.31966e-15 0)
(3 -2.07928e-16 0)
(3 1.12732e-15 0)
(3 1.423e-15 0)
(3 1.47753e-15 0)
(3 6.43712e-16 0)
(3 -9.03396e-16 0)
(3 -1.65276e-15 0)
(3 -1.06927e-15 0)
(3 -1.62319e-15 0)
(3 -1.95661e-15 0)
(3 -1.53025e-15 0)
(3 -9.1736e-16 0)
(3 -4.12897e-16 0)
(3 -4.0809e-16 0)
(3 -3.38399e-17 0)
(3 1.03289e-17 0)
(3 -1.96579e-16 0)
(3 -1.0683e-15 0)
(3 -2.14406e-15 0)
(3 -2.25302e-15 0)
(3 -1.40528e-15 0)
(3 -3.20912e-16 0)
(3 1.10289e-15 0)
(3 2.18791e-15 0)
(3 3.34691e-15 0)
(3 4.13418e-15 0)
(3 3.94454e-15 0)
(3 2.96767e-15 0)
(3 2.67613e-15 0)
(3 2.11659e-15 0)
(3 2.08201e-15 0)
(3 2.39685e-15 0)
(3 3.11119e-15 0)
(3 4.36549e-15 0)
(3 4.92057e-15 0)
(3 3.95568e-15 0)
(3 4.1426e-15 0)
(3 5.20963e-15 0)
(3 5.30113e-15 0)
(3 4.38613e-15 0)
(3 2.38052e-15 0)
(3 5.2432e-16 0)
(3 3.90997e-17 0)
(3 -1.53586e-15 0)
(3 -2.37827e-15 0)
(3 -2.58701e-15 0)
(3 -1.20136e-15 0)
(3 -1.07482e-16 0)
(3 9.14509e-17 0)
(3 5.88446e-16 0)
(3 3.36447e-16 0)
(3 1.02471e-15 0)
(3 1.32725e-15 0)
(3 1.48137e-15 0)
(3 1.39478e-15 0)
(3 9.19242e-16 0)
(3 -3.55542e-17 0)
(3 -5.7669e-16 0)
(3 -2.16016e-16 0)
(3 -5.68251e-17 0)
(3 -2.69167e-16 0)
(3 -7.41963e-16 0)
(3 -1.40219e-15 0)
(3 -1.4339e-15 0)
(3 -1.44383e-15 0)
(3 -1.46881e-15 0)
(3 -1.05878e-15 0)
(3 -1.46263e-15 0)
(3 -1.58331e-15 0)
(3 -1.68922e-15 0)
(3 -1.65796e-15 0)
(3 2.39334e-16 0)
(3 6.05957e-16 0)
(3 4.35311e-16 0)
(3 2.64304e-16 0)
(3 2.87052e-16 0)
(3 8.93383e-16 0)
(3 1.80807e-15 0)
(3 2.00638e-15 0)
(3 1.56865e-15 0)
(3 -1.74735e-16 0)
(3 -3.17545e-16 0)
(3 -7.64359e-16 0)
(3 -1.16876e-15 0)
(3 -1.06983e-15 0)
(3 -7.19903e-16 0)
(3 3.52026e-16 0)
(3 9.73996e-16 0)
(3 9.68562e-16 0)
(3 5.27521e-16 0)
(3 4.29073e-16 0)
(3 -1.99105e-16 0)
(3 -2.87355e-15 0)
(3 -3.28944e-15 0)
(3 -3.39439e-15 0)
(3 -6.32146e-16 0)
(3 2.39236e-15 0)
(3 3.5234e-15 0)
(3 3.95567e-15 0)
(3 4.46098e-15 0)
(3 4.34584e-15 0)
(3 7.41129e-16 0)
(3 -2.60207e-16 0)
(3 -1.69083e-16 0)
(3 -9.79534e-16 0)
(3 -2.00899e-15 0)
(3 -2.00158e-15 0)
(3 -1.21167e-15 0)
(3 -9.13985e-16 0)
(3 -1.75002e-16 0)
(3 -3.39e-16 0)
(3 3.09715e-18 0)
(3 -1.67416e-16 0)
(3 -1.24043e-15 0)
(3 -1.01048e-15 0)
(3 -1.03598e-15 0)
(3 1.49525e-16 0)
(3 1.79357e-15 0)
(3 2.06399e-15 0)
(3 2.19993e-15 0)
(3 3.12599e-15 0)
(3 4.87671e-15 0)
(3 5.51799e-15 0)
(3 4.87094e-15 0)
(3 3.64277e-15 0)
(3 2.54931e-15 0)
(3 2.70548e-15 0)
(3 3.58071e-15 0)
(3 4.29507e-15 0)
(3 5.09468e-15 0)
(3 5.44381e-15 0)
(3 5.42333e-15 0)
(3 5.26608e-15 0)
(3 4.84688e-15 0)
(3 4.79129e-15 0)
(3 4.41832e-15 0)
(3 4.25741e-15 0)
(3 1.48662e-15 0)
(3 7.94168e-16 0)
(3 3.87409e-16 0)
(3 2.62697e-18 0)
(3 3.60359e-18 0)
(3 -7.01642e-16 0)
(3 1.62728e-16 0)
(3 -1.8343e-17 0)
(3 -8.89072e-17 0)
(3 6.49616e-16 0)
(3 7.02373e-16 0)
(3 1.31095e-15 0)
(3 1.16312e-15 0)
(3 5.0411e-16 0)
(3 3.86288e-16 0)
(3 -3.78583e-16 0)
(3 -4.7143e-16 0)
(3 -8.49707e-16 0)
(3 -8.56562e-16 0)
(3 -5.28045e-16 0)
(3 -4.7489e-16 0)
(3 -1.3984e-16 0)
(3 2.01223e-16 0)
(3 -1.18818e-15 0)
(3 -3.0094e-15 0)
(3 -3.45411e-15 0)
(3 -3.21861e-15 0)
(3 -3.16787e-15 0)
(3 -2.64704e-15 0)
(3 -2.06449e-15 0)
(3 -8.87269e-16 0)
(3 -7.23674e-16 0)
(3 -4.64228e-16 0)
(3 -1.15144e-16 0)
(3 5.10083e-16 0)
(3 5.56967e-16 0)
(3 7.93888e-16 0)
(3 2.0537e-15 0)
(3 3.10583e-15 0)
(3 9.02405e-16 0)
(3 -1.39921e-16 0)
(3 -4.83658e-16 0)
(3 2.03093e-17 0)
(3 -1.95773e-16 0)
(3 -2.5415e-16 0)
(3 -1.35655e-16 0)
(3 -1.73544e-16 0)
(3 1.20871e-16 0)
(3 -5.89193e-16 0)
(3 -1.69652e-15 0)
(3 -2.01297e-15 0)
(3 -1.94403e-15 0)
(3 -1.83051e-15 0)
(3 -2.0232e-15 0)
(3 1.14771e-15 0)
(3 3.23509e-15 0)
(3 4.70906e-15 0)
(3 6.218e-15 0)
(3 6.76965e-15 0)
(3 5.1384e-15 0)
(3 3.58633e-15 0)
(3 3.12928e-15 0)
(3 2.75215e-15 0)
(3 3.54337e-16 0)
(3 -1.30235e-15 0)
(3 -2.52236e-15 0)
(3 -2.59962e-15 0)
(3 -1.51997e-15 0)
(3 -8.71678e-16 0)
(3 -4.93349e-16 0)
(3 4.15899e-16 0)
(3 6.33051e-16 0)
(3 5.42826e-16 0)
(3 9.86287e-16 0)
(3 1.14627e-15 0)
(3 3.12354e-15 0)
(3 4.14155e-15 0)
(3 3.85604e-15 0)
(3 3.18701e-15 0)
(3 2.7909e-15 0)
(3 3.0693e-15 0)
(3 3.83913e-15 0)
(3 4.4371e-15 0)
(3 3.97126e-15 0)
(3 2.98857e-15 0)
(3 1.97183e-15 0)
(3 2.03979e-15 0)
(3 2.21683e-15 0)
(3 2.12944e-15 0)
(3 2.35677e-15 0)
(3 2.44393e-15 0)
(3 2.90786e-15 0)
(3 2.62137e-15 0)
(3 2.61457e-15 0)
(3 3.0351e-15 0)
(3 2.77062e-15 0)
(3 1.52915e-15 0)
(3 3.21284e-16 0)
(3 4.87529e-16 0)
(3 3.79362e-16 0)
(3 3.5904e-16 0)
(3 1.30615e-16 0)
(3 6.79464e-17 0)
(3 -3.48721e-16 0)
(3 -5.19854e-16 0)
(3 -1.96395e-16 0)
(3 -3.79189e-16 0)
(3 -2.63709e-16 0)
(3 -4.60318e-16 0)
(3 -2.21458e-16 0)
(3 -1.06261e-16 0)
(3 -5.65238e-16 0)
(3 -5.53212e-16 0)
(3 -4.78016e-16 0)
(3 -3.39111e-16 0)
(3 5.52252e-16 0)
(3 1.27023e-15 0)
(3 1.96835e-15 0)
(3 2.01111e-15 0)
(3 9.15858e-16 0)
(3 -7.13103e-16 0)
(3 -2.53821e-15 0)
(3 -3.0829e-15 0)
(3 -2.29681e-15 0)
(3 -1.37064e-15 0)
(3 -1.76087e-15 0)
(3 -1.8885e-15 0)
(3 -1.46131e-15 0)
(3 -7.56127e-16 0)
(3 -3.07089e-16 0)
(3 3.93715e-16 0)
(3 7.34105e-16 0)
(3 6.92344e-16 0)
(3 1.93771e-15 0)
(3 1.87179e-15 0)
(3 1.15514e-15 0)
(3 2.78281e-16 0)
(3 2.38802e-16 0)
(3 3.0342e-16 0)
(3 6.26952e-16 0)
(3 2.79221e-16 0)
(3 -3.58068e-16 0)
(3 -7.32958e-17 0)
(3 -7.50244e-18 0)
(3 -1.58885e-15 0)
(3 -3.299e-15 0)
(3 -3.275e-15 0)
(3 -1.10255e-15 0)
(3 -7.78603e-16 0)
(3 -1.05606e-15 0)
(3 1.73839e-15 0)
(3 3.87504e-15 0)
(3 4.50936e-15 0)
(3 5.20395e-15 0)
(3 5.59741e-15 0)
(3 4.96013e-15 0)
(3 5.16464e-15 0)
(3 5.4143e-15 0)
(3 5.30909e-15 0)
(3 1.88297e-15 0)
(3 9.49823e-16 0)
(3 3.17783e-16 0)
(3 -2.59729e-15 0)
(3 -2.3618e-15 0)
(3 -1.45567e-15 0)
(3 -1.13048e-16 0)
(3 2.37281e-16 0)
(3 3.15863e-16 0)
(3 4.89351e-16 0)
(3 2.006e-15 0)
(3 3.49876e-15 0)
(3 3.06199e-15 0)
(3 3.00616e-15 0)
(3 3.1813e-15 0)
(3 1.82531e-15 0)
(3 1.09538e-15 0)
(3 2.04745e-15 0)
(3 2.88862e-15 0)
(3 3.50071e-15 0)
(3 4.2551e-15 0)
(3 4.14203e-15 0)
(3 3.27595e-15 0)
(3 8.73911e-16 0)
(3 -1.14345e-15 0)
(3 -2.30914e-15 0)
(3 -2.66936e-15 0)
(3 -2.32908e-15 0)
(3 -2.53023e-15 0)
(3 -2.61039e-15 0)
(3 -2.49913e-15 0)
(3 -1.90837e-15 0)
(3 -1.48705e-15 0)
(3 -1.29444e-15 0)
(3 -1.52461e-15 0)
(3 -1.39866e-15 0)
(3 -6.13562e-16 0)
(3 1.5978e-16 0)
(3 -2.55986e-17 0)
(3 6.39072e-17 0)
(3 2.5894e-16 0)
(3 1.56334e-16 0)
(3 -6.1336e-17 0)
(3 -1.02287e-15 0)
(3 -1.41206e-15 0)
(3 -1.10573e-15 0)
(3 3.32478e-16 0)
(3 8.04581e-16 0)
(3 -1.83204e-16 0)
(3 3.79472e-17 0)
(3 7.60827e-16 0)
(3 1.05632e-15 0)
(3 1.12556e-15 0)
(3 1.78692e-15 0)
(3 3.56438e-15 0)
(3 4.458e-15 0)
(3 3.68985e-15 0)
(3 2.69179e-15 0)
(3 1.38164e-15 0)
(3 3.31493e-17 0)
(3 1.40375e-16 0)
(3 -2.02435e-16 0)
(3 -2.16339e-15 0)
(3 -2.52499e-15 0)
(3 -2.12013e-15 0)
(3 -1.65007e-15 0)
(3 3.06422e-16 0)
(3 1.18585e-15 0)
(3 1.57777e-15 0)
(3 1.61359e-15 0)
(3 1.30191e-15 0)
(3 6.6063e-16 0)
(3 2.38737e-16 0)
(3 -1.63478e-16 0)
(3 3.41218e-16 0)
(3 6.9834e-16 0)
(3 2.81888e-16 0)
(3 -3.24443e-16 0)
(3 -6.3736e-16 0)
(3 -1.98199e-15 0)
(3 -2.01341e-15 0)
(3 -2.07051e-15 0)
(3 -2.09167e-15 0)
(3 -1.77023e-15 0)
(3 -7.83251e-16 0)
(3 2.06928e-16 0)
(3 7.89613e-16 0)
(3 1.4551e-15 0)
(3 1.14244e-15 0)
(3 3.66136e-16 0)
(3 4.13682e-16 0)
(3 2.08149e-15 0)
(3 3.37125e-15 0)
(3 3.69232e-15 0)
(3 3.85769e-15 0)
(3 3.84681e-15 0)
(3 1.91064e-15 0)
(3 1.35142e-15 0)
(3 1.43766e-15 0)
(3 -4.24775e-16 0)
(3 -1.03964e-15 0)
(3 -8.90926e-17 0)
(3 5.79805e-16 0)
(3 8.09359e-16 0)
(3 1.84343e-15 0)
(3 1.61365e-15 0)
(3 1.45675e-15 0)
(3 1.8931e-15 0)
(3 1.54503e-15 0)
(3 1.27454e-15 0)
(3 1.02923e-15 0)
(3 1.19005e-15 0)
(3 9.67568e-16 0)
(3 1.41523e-15 0)
(3 1.75124e-15 0)
(3 2.11952e-15 0)
(3 3.01501e-15 0)
(3 3.62287e-15 0)
(3 3.05675e-15 0)
(3 1.33732e-15 0)
(3 -2.00625e-16 0)
(3 -2.03724e-15 0)
(3 -3.08235e-15 0)
(3 -4.03463e-15 0)
(3 -4.62875e-15 0)
(3 -4.40543e-15 0)
(3 -4.03975e-15 0)
(3 -3.88935e-15 0)
(3 -2.53539e-15 0)
(3 -1.4561e-15 0)
(3 -8.12132e-16 0)
(3 -1.31557e-15 0)
(3 -1.09438e-15 0)
(3 4.91322e-16 0)
(3 1.08203e-15 0)
(3 -1.02696e-16 0)
(3 -2.04225e-16 0)
(3 -7.658e-17 0)
(3 -1.17015e-16 0)
(3 -7.15528e-16 0)
(3 -1.64855e-15 0)
(3 -9.625e-16 0)
(3 -4.07641e-16 0)
(3 -2.742e-16 0)
(3 -1.54266e-16 0)
(3 2.84107e-16 0)
(3 4.88951e-16 0)
(3 5.79999e-16 0)
(3 4.62367e-16 0)
(3 1.06798e-15 0)
(3 2.58608e-15 0)
(3 2.88089e-15 0)
(3 3.13019e-15 0)
(3 3.042e-15 0)
(3 3.378e-15 0)
(3 3.1498e-15 0)
(3 2.53507e-15 0)
(3 1.55217e-15 0)
(3 -4.72497e-16 0)
(3 -9.40796e-16 0)
(3 -1.03965e-15 0)
(3 -7.84041e-16 0)
(3 3.97904e-17 0)
(3 1.42822e-15 0)
(3 1.99518e-15 0)
(3 2.05252e-15 0)
(3 1.37246e-15 0)
(3 8.13614e-16 0)
(3 1.52049e-16 0)
(3 7.66652e-16 0)
(3 1.33547e-15 0)
(3 -4.53243e-16 0)
(3 -7.09912e-16 0)
(3 -7.83639e-16 0)
(3 -7.21478e-16 0)
(3 -2.30636e-15 0)
(3 -3.55307e-15 0)
(3 -3.07571e-15 0)
(3 -1.80943e-15 0)
(3 -1.32176e-15 0)
(3 -9.25519e-16 0)
(3 2.70095e-16 0)
(3 6.94851e-17 0)
(3 -2.59254e-16 0)
(3 -1.38037e-15 0)
(3 -2.53628e-15 0)
(3 -2.57492e-15 0)
(3 -1.21792e-15 0)
(3 -8.58424e-17 0)
(3 1.97768e-15 0)
(3 2.21372e-15 0)
(3 2.24024e-15 0)
(3 2.11886e-15 0)
(3 1.54889e-15 0)
(3 3.33966e-16 0)
(3 5.96995e-16 0)
(3 6.54845e-16 0)
(3 1.04527e-15 0)
(3 9.68383e-16 0)
(3 5.10091e-16 0)
(3 1.64624e-15 0)
(3 1.97733e-15 0)
(3 9.87228e-16 0)
(3 7.34016e-16 0)
(3 3.67211e-16 0)
(3 -4.99696e-17 0)
(3 -5.51512e-16 0)
(3 -5.08555e-16 0)
(3 4.82081e-17 0)
(3 -2.9595e-16 0)
(3 2.13655e-16 0)
(3 1.42839e-15 0)
(3 1.21858e-15 0)
(3 1.1004e-15 0)
(3 1.28911e-15 0)
(3 1.9451e-15 0)
(3 2.65964e-15 0)
(3 3.30568e-15 0)
(3 2.24795e-15 0)
(3 -5.36805e-16 0)
(3 -7.20907e-16 0)
(3 -1.51514e-15 0)
(3 -2.45887e-15 0)
(3 -2.67836e-15 0)
(3 -2.1567e-15 0)
(3 -4.80684e-16 0)
(3 1.43395e-15 0)
(3 2.23555e-15 0)
(3 1.94241e-15 0)
(3 1.83711e-15 0)
(3 1.80358e-15 0)
(3 -6.77786e-17 0)
(3 -9.89914e-17 0)
(3 -2.33581e-16 0)
(3 -5.88849e-16 0)
(3 -1.07844e-15 0)
(3 -1.05723e-15 0)
(3 -1.07688e-15 0)
(3 -5.31426e-16 0)
(3 -1.98908e-16 0)
(3 -1.34685e-16 0)
(3 -3.02867e-16 0)
(3 -1.52137e-15 0)
(3 -1.9983e-15 0)
(3 -1.05515e-15 0)
(3 9.79557e-16 0)
(3 1.71033e-15 0)
(3 2.07344e-15 0)
(3 2.787e-15 0)
(3 3.43165e-15 0)
(3 3.33405e-15 0)
(3 2.61109e-15 0)
(3 1.84606e-15 0)
(3 1.10432e-15 0)
(3 6.11776e-16 0)
(3 1.41577e-16 0)
(3 1.3616e-15 0)
(3 2.48091e-15 0)
(3 2.55517e-15 0)
(3 2.08316e-15 0)
(3 2.65428e-15 0)
(3 2.7233e-15 0)
(3 1.44846e-15 0)
(3 7.47222e-16 0)
(3 5.93559e-16 0)
(3 7.44421e-16 0)
(3 -3.51667e-17 0)
(3 -8.81324e-16 0)
(3 -9.53654e-16 0)
(3 -5.22819e-16 0)
(3 -9.40208e-16 0)
(3 -1.95167e-15 0)
(3 -2.61552e-15 0)
(3 -1.32176e-15 0)
(3 -3.92018e-17 0)
(3 1.16082e-16 0)
(3 4.74304e-16 0)
(3 9.45228e-16 0)
(3 4.20738e-16 0)
(3 -3.02477e-15 0)
(3 -3.31525e-15 0)
(3 -3.27249e-15 0)
(3 -2.89462e-15 0)
(3 -2.65522e-15 0)
(3 -3.16197e-15 0)
(3 -9.9225e-16 0)
(3 2.2008e-15 0)
(3 2.34471e-15 0)
(3 2.47532e-15 0)
(3 2.0365e-15 0)
(3 7.44647e-16 0)
(3 9.22085e-16 0)
(3 6.434e-16 0)
(3 1.32633e-16 0)
(3 4.08846e-18 0)
(3 -4.24566e-16 0)
(3 5.68679e-16 0)
(3 1.63254e-15 0)
(3 1.36287e-15 0)
(3 1.00216e-16 0)
(3 -1.90399e-16 0)
(3 -3.03644e-16 0)
(3 4.17188e-17 0)
(3 -3.29375e-16 0)
(3 -1.01581e-16 0)
(3 2.04622e-16 0)
(3 1.45586e-16 0)
(3 -3.51263e-17 0)
(3 -4.96018e-16 0)
(3 -1.26456e-15 0)
(3 -1.1111e-15 0)
(3 5.00043e-16 0)
(3 2.44583e-15 0)
(3 1.93937e-15 0)
(3 1.26898e-15 0)
(3 8.87668e-16 0)
(3 2.77158e-16 0)
(3 9.18735e-18 0)
(3 -4.33678e-16 0)
(3 -4.44336e-16 0)
(3 -6.49067e-16 0)
(3 -1.15835e-16 0)
(3 2.4616e-15 0)
(3 3.99513e-15 0)
(3 4.03935e-15 0)
(3 3.65529e-15 0)
(3 3.00937e-15 0)
(3 7.05363e-17 0)
(3 1.90253e-16 0)
(3 -2.08377e-16 0)
(3 -7.72051e-16 0)
(3 -6.58249e-16 0)
(3 -4.15488e-16 0)
(3 -9.0489e-17 0)
(3 8.24091e-17 0)
(3 4.21105e-17 0)
(3 -2.96599e-16 0)
(3 -1.17939e-15 0)
(3 -1.29959e-15 0)
(3 -1.29064e-15 0)
(3 -1.04708e-15 0)
(3 -7.72037e-16 0)
(3 -3.5205e-18 0)
(3 -2.86625e-16 0)
(3 1.08881e-15 0)
(3 1.90458e-15 0)
(3 2.1347e-15 0)
(3 2.03877e-15 0)
(3 1.42105e-15 0)
(3 1.16464e-15 0)
(3 1.72248e-15 0)
(3 1.56366e-15 0)
(3 1.82783e-15 0)
(3 2.3529e-15 0)
(3 1.87641e-15 0)
(3 1.48856e-15 0)
(3 1.65871e-15 0)
(3 1.23143e-15 0)
(3 9.06705e-17 0)
(3 -1.29187e-16 0)
(3 -3.06962e-16 0)
(3 -8.45888e-16 0)
(3 -2.64509e-15 0)
(3 -2.64036e-15 0)
(3 -2.47683e-15 0)
(3 -2.33963e-15 0)
(3 -2.09368e-15 0)
(3 -1.93032e-15 0)
(3 -1.07889e-15 0)
(3 2.31346e-16 0)
(3 1.13973e-15 0)
(3 1.57648e-15 0)
(3 2.01054e-15 0)
(3 2.08675e-15 0)
(3 1.70518e-15 0)
(3 5.49411e-16 0)
(3 -9.20103e-16 0)
(3 -1.91067e-15 0)
(3 -3.38408e-15 0)
(3 -3.34068e-15 0)
(3 -2.4487e-15 0)
(3 -4.51771e-16 0)
(3 1.48222e-15 0)
(3 2.25932e-15 0)
(3 2.17805e-15 0)
(3 9.48323e-16 0)
(3 1.54668e-15 0)
(3 1.82347e-15 0)
(3 1.08414e-15 0)
(3 -2.627e-16 0)
(3 -5.17483e-16 0)
(3 -1.15363e-15 0)
(3 -1.22433e-15 0)
(3 -9.99727e-16 0)
(3 -4.46557e-16 0)
(3 -6.58558e-16 0)
(3 -9.11739e-16 0)
(3 -5.93839e-16 0)
(3 9.96016e-16 0)
(3 1.59227e-15 0)
(3 2.27685e-15 0)
(3 2.20777e-15 0)
(3 9.67681e-16 0)
(3 1.21235e-18 0)
(3 -8.79204e-17 0)
(3 -5.14949e-16 0)
(3 -7.64355e-16 0)
(3 -5.05882e-16 0)
(3 -4.88583e-16 0)
(3 -4.32938e-17 0)
(3 -2.91279e-16 0)
(3 -2.29393e-16 0)
(3 2.26939e-16 0)
(3 2.31454e-16 0)
(3 2.26707e-16 0)
(3 1.89411e-16 0)
(3 7.03519e-16 0)
(3 1.73135e-15 0)
(3 3.0162e-15 0)
(3 3.16229e-15 0)
(3 3.1817e-15 0)
(3 3.40322e-15 0)
(3 3.44363e-15 0)
(3 -9.81952e-17 0)
(3 -2.77088e-16 0)
(3 -2.46682e-16 0)
(3 8.24928e-17 0)
(3 8.7497e-16 0)
(3 8.3335e-16 0)
(3 7.234e-16 0)
(3 -5.17381e-16 0)
(3 -4.98302e-16 0)
(3 1.41955e-16 0)
(3 3.36635e-16 0)
(3 5.76845e-16 0)
(3 1.18548e-15 0)
(3 6.24187e-16 0)
(3 -6.28855e-16 0)
(3 -1.04532e-15 0)
(3 -1.51836e-15 0)
(3 -1.39855e-15 0)
(3 -2.26266e-16 0)
(3 3.56158e-16 0)
(3 1.21493e-15 0)
(3 2.19607e-15 0)
(3 1.92136e-15 0)
(3 1.28473e-15 0)
(3 8.01751e-16 0)
(3 -1.7448e-15 0)
(3 -1.50646e-15 0)
(3 -6.89162e-16 0)
(3 -4.86937e-16 0)
(3 -8.57255e-16 0)
(3 -1.36076e-15 0)
(3 -5.57005e-16 0)
(3 -2.4038e-16 0)
(3 -4.75826e-16 0)
(3 -6.45981e-16 0)
(3 -4.38897e-16 0)
(3 -2.56189e-16 0)
(3 -1.61718e-15 0)
(3 -2.92472e-15 0)
(3 -2.5903e-15 0)
(3 -1.56046e-15 0)
(3 -1.20425e-15 0)
(3 -1.56468e-15 0)
(3 -1.67891e-15 0)
(3 -8.33764e-16 0)
(3 3.3183e-16 0)
(3 1.02075e-15 0)
(3 9.0955e-16 0)
(3 1.6647e-16 0)
(3 -1.71522e-15 0)
(3 -1.98603e-15 0)
(3 -2.08494e-15 0)
(3 -1.90383e-15 0)
(3 -1.44512e-16 0)
(3 1.22943e-15 0)
(3 2.96129e-15 0)
(3 2.73517e-15 0)
(3 1.93183e-15 0)
(3 1.46827e-15 0)
(3 1.16697e-15 0)
(3 7.15556e-16 0)
(3 1.07759e-15 0)
(3 1.25701e-15 0)
(3 9.16841e-16 0)
(3 1.36583e-16 0)
(3 -1.35521e-15 0)
(3 -2.87774e-15 0)
(3 -2.82773e-15 0)
(3 -1.74457e-15 0)
(3 -1.84181e-15 0)
(3 -5.10825e-16 0)
(3 1.07244e-15 0)
(3 1.44034e-15 0)
(3 1.97337e-15 0)
(3 1.96748e-15 0)
(3 2.06406e-15 0)
(3 2.1131e-16 0)
(3 -5.79681e-16 0)
(3 5.55752e-16 0)
(3 1.69941e-15 0)
(3 2.1173e-15 0)
(3 1.89672e-15 0)
(3 2.27859e-15 0)
(3 2.67839e-15 0)
(3 2.88032e-15 0)
(3 1.48182e-15 0)
(3 4.26378e-16 0)
(3 -2.92199e-16 0)
(3 -2.02938e-16 0)
(3 7.75344e-16 0)
(3 3.32897e-15 0)
(3 4.38905e-15 0)
(3 3.6791e-15 0)
(3 4.15236e-15 0)
(3 4.01995e-15 0)
(3 2.67871e-15 0)
(3 1.38477e-17 0)
(3 5.523e-17 0)
(3 4.88791e-17 0)
(3 3.06148e-16 0)
(3 3.72668e-16 0)
(3 1.01521e-16 0)
(3 -8.72481e-16 0)
(3 -1.17727e-15 0)
(3 -4.96628e-16 0)
(3 -3.02968e-16 0)
(3 -2.53816e-16 0)
(3 1.49678e-16 0)
(3 3.00674e-16 0)
(3 -2.21566e-16 0)
(3 -1.34496e-15 0)
(3 -1.30865e-15 0)
(3 -5.23176e-16 0)
(3 -5.12639e-16 0)
(3 -5.55499e-16 0)
(3 3.52047e-16 0)
(3 1.05152e-15 0)
(3 8.00418e-16 0)
(3 -1.40736e-16 0)
(3 -1.00757e-15 0)
(3 -1.24951e-15 0)
(3 -2.39044e-15 0)
(3 -3.10582e-15 0)
(3 -2.38804e-15 0)
(3 -3.33083e-15 0)
(3 -4.06616e-15 0)
(3 -4.53406e-15 0)
(3 -2.64426e-15 0)
(3 -1.11537e-15 0)
(3 -2.06849e-16 0)
(3 2.65943e-16 0)
(3 9.31707e-16 0)
(3 1.29033e-15 0)
(3 6.53099e-16 0)
(3 -1.1675e-15 0)
(3 -1.20743e-15 0)
(3 -1.86404e-16 0)
(3 -3.93791e-16 0)
(3 -7.89401e-16 0)
(3 -8.123e-16 0)
(3 -4.65001e-16 0)
(3 -8.57287e-16 0)
(3 -7.86028e-16 0)
(3 -7.12278e-16 0)
(3 -8.7356e-16 0)
(3 -5.63902e-16 0)
(3 -5.30549e-16 0)
(3 -5.41607e-16 0)
(3 2.42994e-16 0)
(3 1.23284e-15 0)
(3 1.80882e-15 0)
(3 2.13651e-15 0)
(3 2.2532e-15 0)
(3 2.00543e-15 0)
(3 1.00109e-15 0)
(3 -6.86631e-16 0)
(3 -1.56269e-15 0)
(3 -2.01124e-15 0)
(3 -1.22964e-15 0)
(3 9.54597e-18 0)
(3 1.95406e-16 0)
(3 -8.36637e-16 0)
(3 -2.19486e-15 0)
(3 -2.88158e-15 0)
(3 -2.45231e-15 0)
(3 -1.53147e-15 0)
(3 4.6112e-17 0)
(3 8.87367e-16 0)
(3 9.36869e-16 0)
(3 9.35975e-16 0)
(3 1.2374e-15 0)
(3 1.72796e-15 0)
(3 8.67227e-16 0)
(3 6.70812e-16 0)
(3 2.11544e-15 0)
(3 2.22162e-15 0)
(3 2.16725e-15 0)
(3 2.0565e-15 0)
(3 1.98834e-15 0)
(3 2.81371e-15 0)
(3 2.79149e-15 0)
(3 2.01357e-15 0)
(3 5.18105e-16 0)
(3 -3.08977e-16 0)
(3 -4.44375e-18 0)
(3 3.82982e-16 0)
(3 1.55978e-15 0)
(3 2.42437e-15 0)
(3 2.99716e-15 0)
(3 3.35799e-15 0)
(3 2.71272e-15 0)
(3 1.54952e-15 0)
(3 -1.12345e-17 0)
(3 1.62603e-17 0)
(3 -1.42661e-16 0)
(3 -4.77408e-16 0)
(3 -9.9382e-16 0)
(3 -1.11856e-15 0)
(3 -1.40813e-15 0)
(3 -1.31795e-15 0)
(3 -1.37379e-15 0)
(3 -1.85454e-15 0)
(3 -1.92098e-15 0)
(3 -7.92371e-16 0)
(3 -2.74754e-16 0)
(3 -5.95652e-16 0)
(3 -1.33482e-15 0)
(3 -2.15778e-15 0)
(3 -2.29402e-15 0)
(3 -2.34898e-15 0)
(3 -1.43185e-15 0)
(3 -3.03858e-16 0)
(3 -3.16757e-16 0)
(3 -9.85919e-16 0)
(3 9.91642e-20 0)
(3 7.59383e-17 0)
(3 -3.09372e-16 0)
(3 -3.45722e-16 0)
(3 -2.02074e-15 0)
(3 -3.51797e-15 0)
(3 -4.57194e-15 0)
(3 -3.51704e-15 0)
(3 -3.20982e-15 0)
(3 -2.19914e-15 0)
(3 -8.86936e-16 0)
(3 1.28022e-15 0)
(3 2.4273e-15 0)
(3 2.5564e-15 0)
(3 2.50369e-15 0)
(3 2.29045e-15 0)
(3 2.14969e-15 0)
(3 1.01538e-15 0)
(3 1.46197e-15 0)
(3 2.62459e-15 0)
(3 2.63098e-15 0)
(3 2.27249e-15 0)
(3 1.17354e-15 0)
(3 -2.17727e-15 0)
(3 -2.99187e-15 0)
(3 -2.15444e-15 0)
(3 -1.19119e-15 0)
(3 3.3427e-16 0)
(3 7.79814e-16 0)
(3 1.19951e-15 0)
(3 1.58504e-15 0)
(3 1.48629e-15 0)
(3 1.12155e-15 0)
(3 8.91155e-16 0)
(3 9.25622e-16 0)
(3 7.72962e-16 0)
(3 4.86684e-16 0)
(3 -4.00893e-16 0)
(3 -3.34561e-16 0)
(3 -3.35375e-16 0)
(3 1.77913e-16 0)
(3 9.848e-16 0)
(3 5.51549e-16 0)
(3 5.92139e-16 0)
(3 7.42587e-16 0)
(3 -3.72753e-16 0)
(3 -1.63092e-15 0)
(3 -9.5493e-16 0)
(3 4.16964e-16 0)
(3 7.44173e-16 0)
(3 1.59592e-15 0)
(3 1.62786e-15 0)
(3 1.43122e-15 0)
(3 2.09425e-15 0)
(3 2.40624e-15 0)
(3 2.66855e-15 0)
(3 7.05552e-16 0)
(3 -6.33616e-16 0)
(3 -4.92176e-16 0)
(3 8.44517e-17 0)
(3 1.03891e-15 0)
(3 1.61686e-15 0)
(3 1.91297e-15 0)
(3 1.51946e-15 0)
(3 1.15829e-15 0)
(3 1.11453e-15 0)
(3 -8.98131e-17 0)
(3 3.90416e-18 0)
(3 3.336e-16 0)
(3 2.5321e-16 0)
(3 1.12005e-15 0)
(3 1.36264e-15 0)
(3 1.63833e-15 0)
(3 1.72217e-15 0)
(3 2.95014e-17 0)
(3 2.22641e-16 0)
(3 3.87945e-16 0)
(3 -8.12809e-17 0)
(3 -4.95522e-16 0)
(3 -5.76693e-16 0)
(3 -4.58864e-16 0)
(3 -3.11661e-16 0)
(3 -1.00763e-15 0)
(3 -1.27956e-15 0)
(3 -6.37324e-16 0)
(3 -2.12515e-16 0)
(3 8.35666e-16 0)
(3 5.50941e-16 0)
(3 -1.11527e-17 0)
(3 -7.28344e-16 0)
(3 -1.46839e-15 0)
(3 -8.68305e-16 0)
(3 2.42352e-16 0)
(3 3.94284e-16 0)
(3 3.30806e-16 0)
(3 9.01993e-16 0)
(3 2.03151e-15 0)
(3 1.96109e-15 0)
(3 9.05176e-16 0)
(3 -3.9039e-17 0)
(3 -1.15512e-15 0)
(3 -2.12035e-15 0)
(3 -2.15989e-15 0)
(3 -2.16047e-15 0)
(3 -2.12736e-15 0)
(3 -1.82804e-15 0)
(3 3.60129e-16 0)
(3 2.00213e-15 0)
(3 2.91483e-15 0)
(3 3.36832e-15 0)
(3 2.6145e-15 0)
(3 2.17588e-15 0)
(3 2.9876e-15 0)
(3 3.40867e-15 0)
(3 4.33281e-15 0)
(3 5.73055e-15 0)
(3 5.83705e-15 0)
(3 3.40754e-15 0)
(3 5.06445e-16 0)
(3 -1.283e-15 0)
(3 -1.78194e-15 0)
(3 -8.68564e-16 0)
(3 1.48894e-17 0)
(3 1.44615e-15 0)
(3 3.08863e-15 0)
(3 3.48095e-15 0)
(3 2.85382e-15 0)
(3 1.9079e-15 0)
(3 1.08252e-15 0)
(3 6.59067e-17 0)
(3 8.06749e-16 0)
(3 1.33426e-15 0)
(3 2.13283e-15 0)
(3 2.06794e-15 0)
(3 1.60673e-15 0)
(3 1.23545e-15 0)
(3 3.85605e-16 0)
(3 4.19244e-16 0)
(3 2.02626e-15 0)
(3 3.38564e-15 0)
(3 2.71237e-15 0)
(3 1.98219e-15 0)
(3 8.76632e-16 0)
(3 5.47823e-16 0)
(3 -2.87087e-16 0)
(3 -5.50537e-17 0)
(3 5.30442e-16 0)
(3 3.94282e-16 0)
(3 5.87754e-16 0)
(3 8.96096e-16 0)
(3 1.43916e-15 0)
(3 1.22283e-15 0)
(3 2.24654e-16 0)
(3 -3.72757e-16 0)
(3 -2.87721e-16 0)
(3 3.21044e-17 0)
(3 5.56423e-16 0)
(3 3.70256e-16 0)
(3 -2.18412e-16 0)
(3 1.4257e-16 0)
(3 1.23981e-15 0)
(3 1.29254e-15 0)
(3 1.60074e-15 0)
(3 1.00264e-15 0)
(3 2.65335e-16 0)
(3 -2.14197e-16 0)
(3 3.45855e-16 0)
(3 1.04403e-15 0)
(3 2.24434e-15 0)
(3 2.62633e-15 0)
(3 1.19034e-17 0)
(3 1.03021e-16 0)
(3 4.6618e-16 0)
(3 1.22194e-15 0)
(3 8.82705e-16 0)
(3 3.84928e-16 0)
(3 6.79838e-16 0)
(3 9.81701e-16 0)
(3 -1.4144e-16 0)
(3 -7.40693e-16 0)
(3 -1.12371e-15 0)
(3 -9.96012e-16 0)
(3 9.03054e-17 0)
(3 1.59511e-15 0)
(3 2.70181e-15 0)
(3 2.53311e-15 0)
(3 1.73732e-15 0)
(3 1.73832e-15 0)
(3 1.50233e-15 0)
(3 6.47043e-17 0)
(3 -8.22579e-16 0)
(3 2.9801e-16 0)
(3 1.6109e-15 0)
(3 1.51515e-15 0)
(3 1.21569e-15 0)
(3 1.45414e-16 0)
(3 6.45502e-16 0)
(3 1.5113e-15 0)
(3 7.94528e-16 0)
(3 -3.92018e-16 0)
(3 -4.60868e-16 0)
(3 -3.27908e-16 0)
(3 6.76961e-16 0)
(3 1.25548e-15 0)
(3 1.1085e-15 0)
(3 1.07955e-16 0)
(3 -8.62289e-18 0)
(3 1.40248e-15 0)
(3 2.8074e-15 0)
(3 3.16159e-15 0)
(3 3.48747e-15 0)
(3 4.10574e-15 0)
(3 4.78051e-15 0)
(3 3.88841e-15 0)
(3 2.04356e-15 0)
(3 1.4569e-15 0)
(3 1.37496e-15 0)
(3 2.35808e-15 0)
(3 3.85876e-15 0)
(3 4.00007e-15 0)
(3 2.8549e-15 0)
(3 1.13705e-15 0)
(3 1.13473e-15 0)
(3 1.63199e-15 0)
(3 1.79525e-15 0)
(3 -1.60786e-16 0)
(3 -2.62886e-16 0)
(3 6.61252e-16 0)
(3 1.916e-15 0)
(3 3.37376e-15 0)
(3 3.73043e-15 0)
(3 3.76862e-15 0)
(3 2.65749e-15 0)
(3 1.93022e-15 0)
(3 3.16421e-15 0)
(3 4.11132e-15 0)
(3 3.68509e-15 0)
(3 3.60606e-15 0)
(3 4.00765e-15 0)
(3 3.34879e-15 0)
(3 1.86221e-15 0)
(3 2.55524e-16 0)
(3 4.2724e-16 0)
(3 -4.02144e-16 0)
(3 -9.65292e-16 0)
(3 -1.9377e-15 0)
(3 -1.64215e-15 0)
(3 -1.1271e-15 0)
(3 -1.03724e-16 0)
(3 -6.83957e-16 0)
(3 -1.44279e-16 0)
(3 2.83861e-16 0)
(3 7.61675e-16 0)
(3 7.53058e-16 0)
(3 -3.05355e-16 0)
(3 1.75995e-16 0)
(3 1.2654e-15 0)
(3 1.89846e-15 0)
(3 2.12084e-15 0)
(3 1.57827e-15 0)
(3 1.28489e-15 0)
(3 1.174e-15 0)
(3 1.43341e-15 0)
(3 1.3156e-15 0)
(3 1.5659e-15 0)
(3 1.73598e-15 0)
(3 -6.51583e-17 0)
(3 -1.67164e-16 0)
(3 -9.0286e-17 0)
(3 3.02306e-16 0)
(3 2.42858e-16 0)
(3 7.10449e-16 0)
(3 1.38534e-15 0)
(3 6.71816e-16 0)
(3 8.90444e-16 0)
(3 7.14704e-16 0)
(3 2.52147e-16 0)
(3 -1.96216e-16 0)
(3 1.09121e-15 0)
(3 1.97754e-15 0)
(3 2.51861e-15 0)
(3 1.28923e-15 0)
(3 1.07177e-15 0)
(3 -1.78347e-16 0)
(3 -1.15657e-15 0)
(3 -9.89407e-16 0)
(3 -1.17525e-15 0)
(3 -8.90632e-16 0)
(3 -6.46365e-16 0)
(3 -2.30728e-16 0)
(3 3.48168e-16 0)
(3 4.9278e-17 0)
(3 4.95003e-16 0)
(3 8.9934e-16 0)
(3 3.01114e-16 0)
(3 5.73319e-16 0)
(3 1.41543e-15 0)
(3 1.78591e-15 0)
(3 1.77618e-15 0)
(3 1.41947e-15 0)
(3 4.22716e-16 0)
(3 -1.38683e-15 0)
(3 -1.9636e-15 0)
(3 1.80836e-16 0)
(3 6.62958e-16 0)
(3 1.64503e-15 0)
(3 2.36253e-15 0)
(3 2.97916e-15 0)
(3 3.13135e-15 0)
(3 4.18354e-15 0)
(3 4.12654e-15 0)
(3 4.39908e-15 0)
(3 4.86679e-15 0)
(3 5.67847e-15 0)
(3 4.93336e-15 0)
(3 3.89507e-15 0)
(3 1.0864e-15 0)
(3 -2.69367e-16 0)
(3 -3.33475e-16 0)
(3 -4.58263e-16 0)
(3 2.58164e-16 0)
(3 -5.54282e-16 0)
(3 -1.65527e-15 0)
(3 -9.81625e-16 0)
(3 1.12311e-15 0)
(3 2.27894e-15 0)
(3 3.78525e-15 0)
(3 5.26565e-15 0)
(3 5.32969e-15 0)
(3 3.82668e-15 0)
(3 2.97576e-15 0)
(3 3.00642e-15 0)
(3 3.09071e-15 0)
(3 3.14005e-15 0)
(3 3.23585e-15 0)
(3 3.53549e-15 0)
(3 2.73878e-15 0)
(3 2.15606e-15 0)
(3 9.71014e-16 0)
(3 4.1783e-16 0)
(3 -1.25702e-15 0)
(3 -3.04742e-15 0)
(3 -3.07781e-15 0)
(3 -2.18503e-15 0)
(3 -1.7309e-15 0)
(3 -1.32307e-15 0)
(3 -1.2619e-15 0)
(3 -7.49186e-16 0)
(3 8.68866e-16 0)
(3 1.84689e-15 0)
(3 2.56036e-15 0)
(3 3.07748e-15 0)
(3 4.00464e-15 0)
(3 4.28728e-15 0)
(3 3.63381e-15 0)
(3 2.72446e-15 0)
(3 1.69379e-15 0)
(3 1.24454e-15 0)
(3 1.52983e-15 0)
(3 1.08822e-15 0)
(3 3.62417e-16 0)
(3 9.8442e-16 0)
(3 1.01458e-17 0)
(3 1.12374e-16 0)
(3 1.95365e-16 0)
(3 2.85862e-16 0)
(3 6.49274e-16 0)
(3 7.59903e-16 0)
(3 9.61675e-16 0)
(3 1.0603e-15 0)
(3 7.71673e-16 0)
(3 8.10834e-16 0)
(3 1.20176e-15 0)
(3 1.39455e-15 0)
(3 1.55281e-15 0)
(3 8.06812e-16 0)
(3 2.33238e-16 0)
(3 1.63617e-17 0)
(3 2.56912e-17 0)
(3 -7.82237e-16 0)
(3 -1.11571e-15 0)
(3 -2.03717e-15 0)
(3 -2.33898e-15 0)
(3 -2.19449e-15 0)
(3 -2.23514e-15 0)
(3 -1.83688e-15 0)
(3 -1.16844e-15 0)
(3 -8.28475e-16 0)
(3 -1.1796e-15 0)
(3 -1.9319e-16 0)
(3 5.91171e-16 0)
(3 1.51451e-15 0)
(3 2.91191e-15 0)
(3 2.15491e-15 0)
(3 1.95759e-15 0)
(3 1.56885e-15 0)
(3 1.90929e-16 0)
(3 -1.49699e-15 0)
(3 -2.68102e-15 0)
(3 -2.98008e-15 0)
(3 -2.69178e-15 0)
(3 -1.41244e-15 0)
(3 1.12452e-15 0)
(3 1.75523e-15 0)
(3 2.01238e-15 0)
(3 3.78769e-15 0)
(3 5.29073e-15 0)
(3 5.91077e-15 0)
(3 5.71161e-15 0)
(3 4.44345e-15 0)
(3 3.31801e-15 0)
(3 2.61167e-15 0)
(3 1.58769e-15 0)
(3 1.00324e-15 0)
(3 9.79199e-16 0)
(3 8.23651e-16 0)
(3 -4.13342e-16 0)
(3 -1.3399e-15 0)
(3 -2.25289e-15 0)
(3 -1.70079e-15 0)
(3 5.38802e-16 0)
(3 1.54867e-15 0)
(3 1.11161e-15 0)
(3 1.02713e-15 0)
(3 1.23197e-15 0)
(3 1.51257e-15 0)
(3 1.58349e-15 0)
(3 9.15648e-16 0)