/*--------------------------------*- C++ -*----------------------------------*\
  =========                 |
  \\      /  F ield         | OpenFOAM: The Open Source CFD Toolbox
   \\    /   O peration     | Website:  https://openfoam.org
    \\  /    A nd           | Version:  7
     \\/     M anipulation  |
\*---------------------------------------------------------------------------*/
FoamFile
{
    version     2.0;
    format      ascii;
    class       volVectorField;
    location    "2.7";
    object      U;
}
// * * * * * * * * * * * * * * * * * * * * * * * * * * * * * * * * * * * * * //

dimensions      [0 1 -1 0 0 0 0];

internalField   nonuniform List<vector> 
73728
(
(3 -1.36286e-16 0)
(3 -5.68441e-17 0)
(3 1.19642e-16 0)
(3 -4.88565e-16 0)
(3 -1.00682e-15 0)
(3 -1.01844e-15 0)
(3 -1.98378e-16 0)
(3 4.74089e-16 0)
(3 5.1603e-16 0)
(3 1.31306e-16 0)
(3 -4.68312e-16 0)
(3 -1.44045e-15 0)
(3 -1.05247e-15 0)
(3 -1.61543e-16 0)
(3 -6.28517e-17 0)
(3 -3.02994e-16 0)
(3 -4.41002e-16 0)
(3 1.21282e-15 0)
(3 1.66593e-15 0)
(3 3.59349e-16 0)
(3 -2.43779e-16 0)
(3 -1.13967e-15 0)
(3 -1.58758e-15 0)
(3 -1.40002e-15 0)
(3 -1.32347e-15 0)
(3 -3.81668e-16 0)
(3 -2.46439e-16 0)
(3 6.4141e-18 0)
(3 3.25222e-17 0)
(3 -4.27038e-16 0)
(3 -2.76733e-16 0)
(3 5.47369e-17 0)
(3 -7.96667e-17 0)
(3 -4.13868e-16 0)
(3 -9.68045e-16 0)
(3 -5.03391e-16 0)
(3 -2.83099e-16 0)
(3 -1.87296e-16 0)
(3 -2.80623e-16 0)
(3 -1.08339e-15 0)
(3 -1.55756e-15 0)
(3 -1.25309e-15 0)
(3 -5.43017e-16 0)
(3 3.06822e-16 0)
(3 1.23851e-15 0)
(3 1.82461e-15 0)
(3 2.67456e-15 0)
(3 2.75333e-15 0)
(3 1.84318e-15 0)
(3 1.32033e-15 0)
(3 6.22176e-16 0)
(3 7.36574e-16 0)
(3 -1.78124e-16 0)
(3 -2.58037e-16 0)
(3 9.6612e-17 0)
(3 6.7002e-16 0)
(3 8.77663e-16 0)
(3 1.2149e-15 0)
(3 9.87883e-17 0)
(3 -8.90475e-16 0)
(3 -8.98737e-16 0)
(3 -9.34507e-16 0)
(3 -1.24207e-15 0)
(3 -1.69229e-15 0)
(3 -9.57722e-16 0)
(3 -2.81295e-16 0)
(3 -1.58537e-16 0)
(3 -6.37235e-17 0)
(3 1.84966e-16 0)
(3 3.22247e-16 0)
(3 1.58086e-16 0)
(3 -4.93508e-16 0)
(3 -6.80893e-16 0)
(3 -1.41694e-15 0)
(3 -1.52064e-15 0)
(3 -1.34139e-15 0)
(3 -1.00312e-15 0)
(3 -4.25478e-16 0)
(3 3.46088e-16 0)
(3 5.39619e-16 0)
(3 -3.41279e-16 0)
(3 -5.92795e-16 0)
(3 -4.87088e-16 0)
(3 -2.12187e-16 0)
(3 -2.91929e-16 0)
(3 -3.34806e-16 0)
(3 -4.73435e-17 0)
(3 1.18446e-15 0)
(3 1.17818e-15 0)
(3 1.25575e-15 0)
(3 1.18314e-15 0)
(3 8.41301e-16 0)
(3 9.48976e-16 0)
(3 5.3298e-16 0)
(3 2.30406e-16 0)
(3 3.33044e-16 0)
(3 -1.00999e-16 0)
(3 -1.31212e-16 0)
(3 9.69085e-17 0)
(3 -3.53021e-16 0)
(3 -8.78346e-16 0)
(3 -1.25997e-15 0)
(3 -9.07112e-16 0)
(3 -6.98468e-17 0)
(3 3.17271e-16 0)
(3 -7.00123e-17 0)
(3 -5.48912e-16 0)
(3 -8.60981e-16 0)
(3 -4.35553e-16 0)
(3 9.59526e-17 0)
(3 1.80702e-16 0)
(3 7.60689e-16 0)
(3 1.09892e-15 0)
(3 1.10318e-15 0)
(3 8.29561e-16 0)
(3 -2.80582e-16 0)
(3 -9.93661e-16 0)
(3 -2.18305e-15 0)
(3 -2.49073e-15 0)
(3 -1.9871e-15 0)
(3 -1.34831e-15 0)
(3 -3.33935e-16 0)
(3 -5.71566e-16 0)
(3 -7.23712e-16 0)
(3 -6.89372e-16 0)
(3 -8.71487e-16 0)
(3 -3.58525e-16 0)
(3 -9.66318e-17 0)
(3 -7.63853e-16 0)
(3 -2.15042e-15 0)
(3 -2.85463e-15 0)
(3 -1.7093e-15 0)
(3 -5.61717e-16 0)
(3 -1.72135e-16 0)
(3 -7.15957e-16 0)
(3 -1.40452e-15 0)
(3 -2.05392e-15 0)
(3 -1.24783e-15 0)
(3 -1.09017e-16 0)
(3 4.24081e-16 0)
(3 2.17474e-15 0)
(3 4.01908e-15 0)
(3 4.76148e-15 0)
(3 3.15519e-15 0)
(3 2.51429e-15 0)
(3 2.18692e-15 0)
(3 8.42883e-16 0)
(3 2.15238e-17 0)
(3 -6.21699e-16 0)
(3 -1.07816e-15 0)
(3 -6.22472e-16 0)
(3 9.65593e-16 0)
(3 1.03449e-15 0)
(3 1.80715e-15 0)
(3 1.18815e-15 0)
(3 2.7489e-16 0)
(3 -2.58717e-16 0)
(3 -1.1196e-15 0)
(3 -1.53797e-15 0)
(3 -1.43157e-15 0)
(3 -1.23868e-16 0)
(3 3.48373e-16 0)
(3 1.8215e-16 0)
(3 6.71067e-16 0)
(3 1.08729e-15 0)
(3 1.17848e-15 0)
(3 9.48406e-16 0)
(3 2.75029e-16 0)
(3 -6.00324e-16 0)
(3 -1.58457e-15 0)
(3 -1.26992e-15 0)
(3 -9.31816e-16 0)
(3 -2.96778e-16 0)
(3 5.56097e-16 0)
(3 1.7019e-15 0)
(3 1.81324e-15 0)
(3 9.18988e-16 0)
(3 8.79356e-16 0)
(3 1.19352e-15 0)
(3 1.24405e-15 0)
(3 6.1638e-16 0)
(3 2.19264e-16 0)
(3 5.09069e-16 0)
(3 1.23848e-15 0)
(3 1.10943e-15 0)
(3 1.14663e-15 0)
(3 1.63051e-15 0)
(3 2.5951e-15 0)
(3 3.86104e-15 0)
(3 2.66224e-15 0)
(3 1.22193e-15 0)
(3 1.10626e-15 0)
(3 9.19053e-17 0)
(3 1.12467e-16 0)
(3 3.80718e-16 0)
(3 5.16843e-16 0)
(3 -8.45191e-17 0)
(3 -9.06128e-16 0)
(3 -7.07739e-16 0)
(3 -5.54898e-16 0)
(3 -1.04695e-15 0)
(3 -6.73188e-16 0)
(3 -6.76605e-16 0)
(3 9.61177e-17 0)
(3 2.43662e-16 0)
(3 4.43352e-16 0)
(3 3.77748e-16 0)
(3 5.73826e-16 0)
(3 7.30403e-16 0)
(3 8.26185e-16 0)
(3 4.80482e-16 0)
(3 8.17521e-17 0)
(3 -6.34432e-17 0)
(3 -1.03451e-16 0)
(3 -4.89038e-16 0)
(3 9.21438e-17 0)
(3 8.53272e-16 0)
(3 8.96709e-16 0)
(3 -8.81518e-16 0)
(3 -2.30112e-15 0)
(3 -2.02283e-15 0)
(3 -1.4815e-15 0)
(3 -6.47451e-16 0)
(3 -6.95802e-16 0)
(3 -1.17172e-15 0)
(3 -1.52542e-15 0)
(3 -1.40807e-15 0)
(3 -5.09456e-16 0)
(3 -4.29536e-18 0)
(3 3.68632e-16 0)
(3 4.99362e-16 0)
(3 -1.27564e-16 0)
(3 -7.19874e-16 0)
(3 -7.83872e-16 0)
(3 7.46491e-16 0)
(3 9.97703e-16 0)
(3 1.48334e-15 0)
(3 2.39227e-15 0)
(3 1.95734e-15 0)
(3 1.50546e-15 0)
(3 2.0604e-15 0)
(3 1.41153e-15 0)
(3 2.39588e-16 0)
(3 2.08406e-16 0)
(3 8.57238e-16 0)
(3 5.54568e-16 0)
(3 -9.36674e-17 0)
(3 1.04122e-16 0)
(3 -1.66682e-16 0)
(3 5.27414e-16 0)
(3 3.31428e-16 0)
(3 8.54929e-17 0)
(3 1.89516e-16 0)
(3 2.03685e-16 0)
(3 5.9107e-16 0)
(3 1.14361e-15 0)
(3 1.0652e-15 0)
(3 7.91438e-16 0)
(3 6.7744e-16 0)
(3 1.38086e-15 0)
(3 1.43161e-15 0)
(3 9.68191e-16 0)
(3 4.21958e-16 0)
(3 1.40871e-16 0)
(3 -9.65573e-16 0)
(3 -1.00003e-16 0)
(3 -2.33891e-16 0)
(3 -4.09607e-17 0)
(3 3.52769e-16 0)
(3 1.64726e-15 0)
(3 1.66344e-15 0)
(3 1.07171e-15 0)
(3 1.13026e-15 0)
(3 1.95603e-15 0)
(3 2.2186e-15 0)
(3 1.90452e-15 0)
(3 1.17364e-15 0)
(3 6.13969e-16 0)
(3 9.86417e-16 0)
(3 1.92478e-15 0)
(3 2.27638e-15 0)
(3 2.16509e-15 0)
(3 2.46693e-15 0)
(3 3.98745e-15 0)
(3 4.31053e-15 0)
(3 4.39671e-15 0)
(3 4.21767e-15 0)
(3 3.4716e-15 0)
(3 1.5092e-17 0)
(3 9.51652e-17 0)
(3 2.28154e-16 0)
(3 2.91875e-16 0)
(3 3.52417e-16 0)
(3 2.01805e-16 0)
(3 -3.31234e-16 0)
(3 -4.51255e-16 0)
(3 -1.79595e-15 0)
(3 -1.28729e-15 0)
(3 -1.03356e-15 0)
(3 -8.01278e-18 0)
(3 -9.39686e-17 0)
(3 -5.51458e-16 0)
(3 -8.31107e-16 0)
(3 -1.56562e-15 0)
(3 -1.13089e-17 0)
(3 3.98489e-16 0)
(3 3.36364e-16 0)
(3 -4.83055e-16 0)
(3 -5.71189e-16 0)
(3 6.6016e-16 0)
(3 1.41597e-15 0)
(3 1.68867e-15 0)
(3 1.58764e-15 0)
(3 1.59397e-15 0)
(3 1.08161e-15 0)
(3 7.32312e-16 0)
(3 9.96493e-16 0)
(3 -1.65207e-16 0)
(3 -2.10686e-15 0)
(3 -1.88255e-15 0)
(3 -1.56255e-15 0)
(3 -1.2779e-15 0)
(3 -1.12727e-15 0)
(3 -5.63784e-16 0)
(3 -3.0332e-16 0)
(3 4.23333e-16 0)
(3 1.55328e-15 0)
(3 1.55547e-15 0)
(3 8.21707e-16 0)
(3 6.56557e-16 0)
(3 9.50957e-16 0)
(3 1.01965e-15 0)
(3 6.44052e-16 0)
(3 1.90787e-16 0)
(3 -1.09956e-16 0)
(3 4.98245e-16 0)
(3 1.20646e-15 0)
(3 7.13471e-16 0)
(3 2.99342e-16 0)
(3 4.82748e-16 0)
(3 9.39775e-16 0)
(3 9.5464e-16 0)
(3 3.88266e-16 0)
(3 5.92267e-17 0)
(3 7.97788e-17 0)
(3 4.5049e-16 0)
(3 8.39913e-16 0)
(3 9.21614e-16 0)
(3 1.31038e-15 0)
(3 2.46979e-15 0)
(3 3.59135e-15 0)
(3 3.44592e-15 0)
(3 2.95229e-15 0)
(3 2.16148e-15 0)
(3 1.60476e-15 0)
(3 1.86443e-15 0)
(3 1.64578e-15 0)
(3 1.09297e-15 0)
(3 1.03538e-16 0)
(3 -8.18345e-16 0)
(3 -1.4847e-15 0)
(3 -8.22365e-16 0)
(3 -6.53953e-16 0)
(3 -4.76975e-16 0)
(3 2.42856e-16 0)
(3 5.11571e-16 0)
(3 1.13414e-15 0)
(3 1.59861e-15 0)
(3 1.71982e-15 0)
(3 1.63931e-15 0)
(3 6.15176e-16 0)
(3 -3.11451e-17 0)
(3 3.19818e-16 0)
(3 1.39201e-15 0)
(3 1.08795e-15 0)
(3 1.1438e-15 0)
(3 1.26855e-15 0)
(3 1.58679e-15 0)
(3 1.39747e-15 0)
(3 1.28075e-15 0)
(3 1.63172e-15 0)
(3 2.06409e-15 0)
(3 3.30566e-15 0)
(3 4.00562e-15 0)
(3 -2.4585e-16 0)
(3 -2.93205e-16 0)
(3 -1.52051e-16 0)
(3 2.11323e-16 0)
(3 7.17231e-16 0)
(3 9.09801e-16 0)
(3 -3.7091e-16 0)
(3 -7.03053e-16 0)
(3 -1.37803e-15 0)
(3 -1.01374e-15 0)
(3 -2.48569e-16 0)
(3 1.19738e-16 0)
(3 -2.73409e-16 0)
(3 -1.0592e-15 0)
(3 -9.98614e-16 0)
(3 -5.63276e-16 0)
(3 -6.86506e-16 0)
(3 -1.05447e-15 0)
(3 -1.11137e-15 0)
(3 -1.2255e-15 0)
(3 -1.25372e-15 0)
(3 -1.51499e-15 0)
(3 -3.84997e-16 0)
(3 5.68985e-16 0)
(3 4.16468e-16 0)
(3 4.16631e-16 0)
(3 8.20937e-16 0)
(3 1.60831e-15 0)
(3 1.02266e-15 0)
(3 3.48964e-16 0)
(3 -1.91387e-15 0)
(3 -3.20211e-15 0)
(3 -3.12684e-15 0)
(3 -2.55937e-15 0)
(3 -2.33139e-15 0)
(3 -1.69082e-15 0)
(3 -1.19057e-15 0)
(3 -4.18634e-16 0)
(3 3.25289e-16 0)
(3 1.37609e-15 0)
(3 1.43477e-15 0)
(3 7.18882e-16 0)
(3 1.61105e-16 0)
(3 6.39803e-16 0)
(3 7.63336e-18 0)
(3 -5.88291e-16 0)
(3 2.30953e-16 0)
(3 8.9999e-16 0)
(3 1.12914e-15 0)
(3 1.52278e-15 0)
(3 2.22416e-15 0)
(3 1.93536e-15 0)
(3 1.23898e-15 0)
(3 1.39805e-15 0)
(3 2.50844e-16 0)
(3 -8.36339e-17 0)
(3 4.71541e-16 0)
(3 1.19007e-15 0)
(3 1.95885e-15 0)
(3 3.46146e-15 0)
(3 4.28307e-15 0)
(3 4.4007e-15 0)
(3 4.46956e-15 0)
(3 4.22759e-15 0)
(3 2.49222e-15 0)
(3 1.75107e-15 0)
(3 -2.91833e-17 0)
(3 -1.52833e-15 0)
(3 -1.07491e-15 0)
(3 -1.41911e-15 0)
(3 -1.03254e-15 0)
(3 -1.07291e-15 0)
(3 -6.3506e-16 0)
(3 -1.47317e-15 0)
(3 -1.94135e-15 0)
(3 -9.63521e-16 0)
(3 -5.17844e-16 0)
(3 -1.88808e-16 0)
(3 7.65207e-17 0)
(3 1.36938e-16 0)
(3 -2.33387e-16 0)
(3 -1.24123e-15 0)
(3 -1.57377e-15 0)
(3 -1.03072e-15 0)
(3 3.19318e-16 0)
(3 1.20298e-15 0)
(3 1.03041e-16 0)
(3 1.92817e-16 0)
(3 -3.66666e-17 0)
(3 -4.08863e-16 0)
(3 -3.91168e-16 0)
(3 -2.04365e-17 0)
(3 1.43097e-15 0)
(3 2.70454e-15 0)
(3 3.75024e-15 0)
(3 4.25612e-15 0)
(3 -1.37692e-17 0)
(3 -3.67155e-17 0)
(3 -2.5985e-16 0)
(3 -3.52398e-16 0)
(3 -2.6326e-17 0)
(3 1.59727e-16 0)
(3 -4.05969e-17 0)
(3 2.74033e-17 0)
(3 -5.66841e-16 0)
(3 -1.20039e-15 0)
(3 -1.13265e-15 0)
(3 -1.35832e-15 0)
(3 -1.09684e-15 0)
(3 -8.62915e-16 0)
(3 -4.60656e-16 0)
(3 1.85461e-16 0)
(3 -1.13866e-15 0)
(3 -1.85133e-15 0)
(3 -1.92027e-15 0)
(3 -1.55762e-15 0)
(3 -6.57434e-16 0)
(3 -4.65639e-16 0)
(3 -1.93193e-16 0)
(3 1.96597e-16 0)
(3 5.59256e-16 0)
(3 1.61861e-16 0)
(3 -2.81143e-17 0)
(3 2.50064e-16 0)
(3 -1.02517e-15 0)
(3 -1.06735e-15 0)
(3 -4.96248e-16 0)
(3 -1.21949e-15 0)
(3 -1.71627e-15 0)
(3 -2.26578e-15 0)
(3 -2.05062e-15 0)
(3 -1.49951e-15 0)
(3 -9.07457e-16 0)
(3 -3.46207e-16 0)
(3 -1.04982e-17 0)
(3 3.84802e-16 0)
(3 1.53873e-15 0)
(3 1.93072e-16 0)
(3 -4.55973e-16 0)
(3 -7.84388e-16 0)
(3 -1.62373e-16 0)
(3 -4.02438e-17 0)
(3 1.10457e-15 0)
(3 2.05285e-15 0)
(3 1.70867e-15 0)
(3 2.24072e-15 0)
(3 2.53704e-15 0)
(3 2.39219e-15 0)
(3 2.13935e-15 0)
(3 2.15208e-15 0)
(3 1.32029e-15 0)
(3 8.5308e-16 0)
(3 7.73872e-16 0)
(3 9.20952e-16 0)
(3 1.08354e-15 0)
(3 1.84067e-15 0)
(3 3.62796e-15 0)
(3 3.33973e-15 0)
(3 2.40725e-15 0)
(3 1.6067e-15 0)
(3 1.55588e-15 0)
(3 1.02902e-15 0)
(3 1.64823e-15 0)
(3 8.39699e-16 0)
(3 -1.79419e-15 0)
(3 -1.25037e-15 0)
(3 -1.03505e-15 0)
(3 -5.66476e-16 0)
(3 -4.47875e-16 0)
(3 -1.04037e-15 0)
(3 -1.5109e-15 0)
(3 -2.11461e-15 0)
(3 -1.32423e-15 0)
(3 -3.69262e-16 0)
(3 5.68825e-16 0)
(3 -6.61263e-16 0)
(3 -8.79262e-16 0)
(3 -1.6226e-15 0)
(3 -1.47342e-15 0)
(3 -1.45105e-15 0)
(3 -1.40792e-15 0)
(3 -1.50507e-15 0)
(3 -1.5518e-15 0)
(3 -1.13597e-15 0)
(3 -1.2695e-15 0)
(3 -1.50562e-15 0)
(3 -1.3613e-15 0)
(3 -8.04024e-16 0)
(3 5.14231e-16 0)
(3 1.1359e-15 0)
(3 1.95753e-15 0)
(3 2.69107e-15 0)
(3 7.50503e-17 0)
(3 -6.79228e-17 0)
(3 -1.77957e-16 0)
(3 -2.80483e-16 0)
(3 -4.47142e-16 0)
(3 -2.12328e-16 0)
(3 5.24866e-16 0)
(3 4.32765e-16 0)
(3 2.45672e-17 0)
(3 -1.14894e-15 0)
(3 -1.10979e-15 0)
(3 -1.0592e-15 0)
(3 -6.4485e-16 0)
(3 -1.41037e-16 0)
(3 -2.26253e-16 0)
(3 -7.5679e-17 0)
(3 -6.30657e-16 0)
(3 -1.33566e-15 0)
(3 -9.6684e-16 0)
(3 -1.96963e-16 0)
(3 -2.37998e-16 0)
(3 1.1066e-16 0)
(3 6.70437e-16 0)
(3 8.93524e-16 0)
(3 1.39365e-15 0)
(3 1.50879e-15 0)
(3 1.12083e-15 0)
(3 4.36425e-16 0)
(3 2.46119e-16 0)
(3 -2.68317e-17 0)
(3 -6.26162e-16 0)
(3 -9.56418e-16 0)
(3 -1.39341e-15 0)
(3 -2.21273e-15 0)
(3 -1.63065e-15 0)
(3 -6.80228e-16 0)
(3 5.94722e-17 0)
(3 1.18456e-16 0)
(3 3.99855e-16 0)
(3 -2.02781e-16 0)
(3 -8.11973e-16 0)
(3 -1.01797e-15 0)
(3 -1.29792e-15 0)
(3 -1.07023e-15 0)
(3 6.81238e-16 0)
(3 1.81679e-15 0)
(3 2.78469e-15 0)
(3 2.91794e-15 0)
(3 2.7737e-15 0)
(3 1.84445e-15 0)
(3 1.5473e-15 0)
(3 9.03976e-16 0)
(3 4.88037e-16 0)
(3 1.14635e-15 0)
(3 1.694e-15 0)
(3 1.20936e-15 0)
(3 3.47897e-16 0)
(3 -1.47114e-16 0)
(3 2.54017e-17 0)
(3 4.86783e-16 0)
(3 9.08677e-16 0)
(3 3.82954e-16 0)
(3 -1.29254e-15 0)
(3 -1.89024e-15 0)
(3 -2.19555e-15 0)
(3 -2.31292e-15 0)
(3 -1.49155e-15 0)
(3 -1.12844e-15 0)
(3 -1.46095e-15 0)
(3 -1.30017e-15 0)
(3 1.34233e-16 0)
(3 8.99229e-16 0)
(3 3.39465e-16 0)
(3 3.69558e-16 0)
(3 6.35214e-16 0)
(3 1.57782e-16 0)
(3 -1.15653e-15 0)
(3 -1.78393e-15 0)
(3 -1.8558e-15 0)
(3 -1.10703e-15 0)
(3 -1.39644e-15 0)
(3 -2.27695e-15 0)
(3 -2.79496e-15 0)
(3 -3.32749e-15 0)
(3 -4.82207e-15 0)
(3 -4.50989e-15 0)
(3 -2.67454e-15 0)
(3 -2.31258e-15 0)
(3 -2.41847e-15 0)
(3 -2.54282e-15 0)
(3 -2.39212e-15 0)
(3 -2.43159e-15 0)
(3 -8.32706e-16 0)
(3 1.20215e-16 0)
(3 1.05962e-15 0)
(3 2.08525e-15 0)
(3 1.98779e-17 0)
(3 -1.59653e-16 0)
(3 7.57084e-17 0)
(3 4.64163e-17 0)
(3 -2.88378e-16 0)
(3 1.56621e-16 0)
(3 5.19525e-16 0)
(3 4.31802e-16 0)
(3 9.99821e-16 0)
(3 7.33463e-16 0)
(3 7.63258e-16 0)
(3 6.55152e-17 0)
(3 -6.16021e-16 0)
(3 3.47222e-16 0)
(3 4.9968e-16 0)
(3 5.8405e-16 0)
(3 -1.27731e-16 0)
(3 -1.34931e-15 0)
(3 -1.44865e-15 0)
(3 -1.10522e-15 0)
(3 -4.90259e-16 0)
(3 4.27417e-17 0)
(3 6.9979e-18 0)
(3 2.14658e-16 0)
(3 3.81513e-16 0)
(3 3.16092e-16 0)
(3 7.12842e-16 0)
(3 1.14667e-15 0)
(3 1.95937e-15 0)
(3 2.07318e-15 0)
(3 8.11928e-16 0)
(3 -7.52151e-16 0)
(3 -7.31556e-16 0)
(3 -6.91108e-16 0)
(3 -4.36797e-16 0)
(3 4.44024e-16 0)
(3 1.19221e-15 0)
(3 7.53542e-16 0)
(3 6.69471e-17 0)
(3 -1.85807e-15 0)
(3 -3.97782e-15 0)
(3 -2.96991e-15 0)
(3 -1.89826e-15 0)
(3 -3.42259e-16 0)
(3 1.83915e-15 0)
(3 2.25768e-15 0)
(3 3.47186e-15 0)
(3 2.55438e-15 0)
(3 1.11134e-15 0)
(3 -1.06352e-16 0)
(3 -1.18797e-15 0)
(3 -1.28975e-15 0)
(3 -1.19192e-15 0)
(3 -1.11472e-15 0)
(3 -7.59798e-16 0)
(3 -7.83761e-16 0)
(3 -1.01724e-15 0)
(3 -1.34291e-15 0)
(3 -4.90289e-16 0)
(3 -5.01762e-16 0)
(3 -2.47106e-15 0)
(3 -4.47839e-15 0)
(3 -4.64511e-15 0)
(3 -4.0497e-15 0)
(3 -4.13656e-15 0)
(3 -3.44613e-15 0)
(3 -3.28219e-15 0)
(3 -3.69657e-15 0)
(3 -3.55977e-15 0)
(3 -3.45114e-15 0)
(3 -1.532e-15 0)
(3 -2.98936e-16 0)
(3 -2.11407e-16 0)
(3 4.38215e-16 0)
(3 4.84063e-16 0)
(3 1.91483e-15 0)
(3 5.22092e-16 0)
(3 -1.47803e-15 0)
(3 -1.64451e-15 0)
(3 -1.56351e-15 0)
(3 -1.75067e-15 0)
(3 -2.24702e-15 0)
(3 -3.63643e-15 0)
(3 -4.48988e-15 0)
(3 -4.69316e-15 0)
(3 -2.66351e-15 0)
(3 -2.40658e-15 0)
(3 -2.75231e-15 0)
(3 -3.44352e-15 0)
(3 -3.32301e-15 0)
(3 -3.11044e-15 0)
(3 -2.92298e-15 0)
(3 -2.74168e-15 0)
(3 -1.9428e-15 0)
(3 -3.87788e-16 0)
(3 5.33637e-16 0)
(3 -3.06351e-17 0)
(3 3.10108e-17 0)
(3 -1.77866e-16 0)
(3 -2.91701e-16 0)
(3 2.99581e-16 0)
(3 2.27931e-16 0)
(3 1.33997e-16 0)
(3 2.89445e-16 0)
(3 1.27197e-15 0)
(3 2.44307e-15 0)
(3 1.00458e-15 0)
(3 3.098e-16 0)
(3 -3.82558e-16 0)
(3 -7.70286e-18 0)
(3 5.85835e-16 0)
(3 2.87735e-16 0)
(3 9.74036e-17 0)
(3 1.68384e-16 0)
(3 -4.72135e-16 0)
(3 -9.0031e-16 0)
(3 -4.38395e-16 0)
(3 2.8975e-16 0)
(3 -3.40564e-16 0)
(3 -6.6596e-16 0)
(3 -9.83871e-16 0)
(3 -7.44435e-16 0)
(3 7.40124e-17 0)
(3 1.12143e-15 0)
(3 9.39142e-16 0)
(3 7.19107e-16 0)
(3 2.9412e-16 0)
(3 1.78155e-16 0)
(3 4.35217e-16 0)
(3 7.38419e-16 0)
(3 1.153e-15 0)
(3 1.59915e-15 0)
(3 1.29157e-15 0)
(3 2.34938e-16 0)
(3 -1.12826e-15 0)
(3 -2.00623e-15 0)
(3 -2.78368e-15 0)
(3 -2.23665e-15 0)
(3 -5.15742e-16 0)
(3 8.15099e-16 0)
(3 1.84697e-15 0)
(3 2.35748e-15 0)
(3 2.49411e-15 0)
(3 1.39018e-15 0)
(3 1.65853e-16 0)
(3 -3.8463e-16 0)
(3 -1.88332e-15 0)
(3 -2.15918e-15 0)
(3 -2.22065e-15 0)
(3 -2.63082e-15 0)
(3 -2.80485e-15 0)
(3 -1.79955e-15 0)
(3 -9.90774e-16 0)
(3 -1.25017e-15 0)
(3 -2.49872e-15 0)
(3 -2.77284e-15 0)
(3 -4.99116e-15 0)
(3 -6.17615e-15 0)
(3 -6.22262e-15 0)
(3 -5.63058e-15 0)
(3 -5.14922e-15 0)
(3 -4.90256e-15 0)
(3 -4.979e-15 0)
(3 -5.2561e-15 0)
(3 -5.67931e-15 0)
(3 -4.98191e-15 0)
(3 -3.47198e-15 0)
(3 -1.42173e-15 0)
(3 -4.37091e-16 0)
(3 9.86724e-16 0)
(3 2.0098e-15 0)
(3 2.38534e-15 0)
(3 1.69205e-15 0)
(3 9.37721e-16 0)
(3 4.29182e-16 0)
(3 1.14631e-16 0)
(3 1.80609e-16 0)
(3 -4.27861e-17 0)
(3 -9.39256e-16 0)
(3 -2.9208e-15 0)
(3 -4.35328e-15 0)
(3 -3.39262e-15 0)
(3 -2.18228e-15 0)
(3 -2.07913e-15 0)
(3 -3.60153e-15 0)
(3 -3.72455e-15 0)
(3 -3.90076e-15 0)
(3 -3.88994e-15 0)
(3 -3.73814e-15 0)
(3 -3.06991e-15 0)
(3 -1.68595e-15 0)
(3 -8.75144e-16 0)
(3 -2.60368e-17 0)
(3 1.45681e-16 0)
(3 1.37058e-16 0)
(3 3.0511e-16 0)
(3 8.83206e-16 0)
(3 1.04425e-15 0)
(3 8.93814e-16 0)
(3 8.51279e-16 0)
(3 4.80404e-16 0)
(3 3.16268e-16 0)
(3 -1.6909e-16 0)
(3 -1.10999e-16 0)
(3 -3.1748e-16 0)
(3 -2.41061e-16 0)
(3 -2.52028e-16 0)
(3 -5.94102e-16 0)
(3 -8.99493e-16 0)
(3 -1.1398e-15 0)
(3 -1.4012e-15 0)
(3 -5.80486e-16 0)
(3 -2.04699e-16 0)
(3 4.44181e-16 0)
(3 6.03776e-16 0)
(3 1.47595e-16 0)
(3 -1.0661e-15 0)
(3 -1.36651e-15 0)
(3 -2.28632e-15 0)
(3 -2.34309e-15 0)
(3 -2.73465e-15 0)
(3 -2.76879e-15 0)
(3 -1.97777e-15 0)
(3 -1.55479e-15 0)
(3 -7.68055e-16 0)
(3 -9.81384e-18 0)
(3 1.067e-15 0)
(3 1.42955e-15 0)
(3 1.15199e-15 0)
(3 -3.07647e-16 0)
(3 -1.82334e-15 0)
(3 -2.02311e-15 0)
(3 -1.93775e-15 0)
(3 -1.3166e-15 0)
(3 -1.0666e-16 0)
(3 2.07428e-16 0)
(3 9.599e-16 0)
(3 1.88054e-15 0)
(3 1.97532e-15 0)
(3 1.23718e-15 0)
(3 5.60554e-16 0)
(3 4.54206e-16 0)
(3 -1.06751e-15 0)
(3 -2.19921e-15 0)
(3 -2.01837e-15 0)
(3 -1.5164e-15 0)
(3 -1.41379e-15 0)
(3 -1.80498e-15 0)
(3 -1.63703e-15 0)
(3 -1.56973e-15 0)
(3 -1.74087e-15 0)
(3 -2.16024e-15 0)
(3 -3.12404e-15 0)
(3 -3.62194e-15 0)
(3 -4.08848e-15 0)
(3 -4.56241e-15 0)
(3 -5.03883e-15 0)
(3 -4.59324e-15 0)
(3 -3.26177e-15 0)
(3 -2.70117e-15 0)
(3 -2.53802e-15 0)
(3 -2.67606e-15 0)
(3 -2.91902e-15 0)
(3 -2.53262e-15 0)
(3 -1.50921e-15 0)
(3 -8.91891e-17 0)
(3 1.36833e-15 0)
(3 1.65855e-15 0)
(3 2.04782e-15 0)
(3 2.77584e-15 0)
(3 2.66453e-15 0)
(3 2.32227e-15 0)
(3 2.09788e-15 0)
(3 1.66203e-15 0)
(3 6.44224e-17 0)
(3 -1.26072e-15 0)
(3 -1.82285e-15 0)
(3 -1.31823e-15 0)
(3 4.94511e-17 0)
(3 8.18478e-17 0)
(3 -8.09749e-16 0)
(3 -1.29109e-15 0)
(3 -1.97186e-15 0)
(3 -2.01303e-15 0)
(3 -1.85951e-15 0)
(3 -1.59867e-15 0)
(3 -1.33258e-15 0)
(3 -1.18694e-15 0)
(3 3.18071e-17 0)
(3 7.20611e-17 0)
(3 2.10183e-16 0)
(3 2.79353e-16 0)
(3 2.10101e-16 0)
(3 1.69508e-15 0)
(3 1.50713e-15 0)
(3 1.18751e-15 0)
(3 4.11714e-16 0)
(3 -4.04054e-16 0)
(3 -8.40814e-16 0)
(3 -5.22603e-16 0)
(3 -5.71411e-16 0)
(3 -5.56976e-16 0)
(3 -5.1371e-16 0)
(3 -3.65592e-16 0)
(3 -4.67196e-16 0)
(3 -6.03684e-16 0)
(3 -3.93412e-16 0)
(3 -4.16427e-16 0)
(3 -5.271e-16 0)
(3 -2.44258e-16 0)
(3 2.16474e-16 0)
(3 -2.67873e-16 0)
(3 -1.30429e-15 0)
(3 -2.4431e-15 0)
(3 -4.01364e-15 0)
(3 -5.05724e-15 0)
(3 -4.91073e-15 0)
(3 -3.91788e-15 0)
(3 -2.61621e-15 0)
(3 -1.19587e-15 0)
(3 7.90542e-17 0)
(3 2.26186e-16 0)
(3 3.75465e-16 0)
(3 2.29686e-16 0)
(3 -2.56189e-16 0)
(3 -2.02576e-15 0)
(3 -2.62015e-15 0)
(3 -2.54202e-15 0)
(3 -1.90961e-15 0)
(3 -6.69381e-16 0)
(3 -2.12654e-16 0)
(3 -1.07719e-15 0)
(3 -5.32901e-16 0)
(3 -1.39892e-16 0)
(3 9.39037e-16 0)
(3 2.04243e-15 0)
(3 1.18049e-15 0)
(3 7.36255e-16 0)
(3 -5.67152e-16 0)
(3 -1.49436e-15 0)
(3 -1.57325e-15 0)
(3 -1.55225e-15 0)
(3 -1.69005e-15 0)
(3 -1.52936e-15 0)
(3 -5.78027e-16 0)
(3 5.98015e-17 0)
(3 -2.86093e-17 0)
(3 -1.17678e-15 0)
(3 -1.46477e-15 0)
(3 -2.1056e-15 0)
(3 -3.43421e-15 0)
(3 -4.6324e-15 0)
(3 -4.84807e-15 0)
(3 -4.19669e-15 0)
(3 -2.52487e-15 0)
(3 -8.29411e-16 0)
(3 -7.04553e-16 0)
(3 -8.68647e-16 0)
(3 -1.16826e-15 0)
(3 -8.40454e-16 0)
(3 -1.20799e-15 0)
(3 -8.86677e-16 0)
(3 2.58876e-16 0)
(3 7.60321e-16 0)
(3 1.1139e-15 0)
(3 1.78265e-15 0)
(3 2.72122e-15 0)
(3 2.50171e-15 0)
(3 1.19615e-15 0)
(3 2.99546e-16 0)
(3 -1.39452e-16 0)
(3 -6.68237e-16 0)
(3 -8.30312e-16 0)
(3 -7.57937e-16 0)
(3 -8.99644e-16 0)
(3 -1.3025e-15 0)
(3 8.92795e-16 0)
(3 1.36964e-15 0)
(3 8.58923e-16 0)
(3 8.7899e-16 0)
(3 1.15334e-15 0)
(3 1.42603e-15 0)
(3 7.88462e-16 0)
(3 5.53129e-16 0)
(3 6.41901e-18 0)
(3 -1.41631e-16 0)
(3 -4.00557e-16 0)
(3 -4.33007e-16 0)
(3 -8.41969e-17 0)
(3 -4.70529e-17 0)
(3 1.52481e-17 0)
(3 4.83044e-16 0)
(3 3.24243e-16 0)
(3 -4.21827e-16 0)
(3 -9.63256e-16 0)
(3 -8.12338e-16 0)
(3 -4.1991e-16 0)
(3 -4.14712e-16 0)
(3 -4.42369e-16 0)
(3 -1.34914e-16 0)
(3 3.31124e-16 0)
(3 1.27396e-15 0)
(3 2.88027e-15 0)
(3 2.64751e-15 0)
(3 1.61982e-15 0)
(3 9.45278e-16 0)
(3 6.94993e-16 0)
(3 8.07315e-17 0)
(3 -6.9607e-16 0)
(3 -1.23156e-15 0)
(3 -1.27464e-15 0)
(3 -1.18087e-15 0)
(3 -1.98623e-15 0)
(3 -2.4207e-15 0)
(3 -2.19031e-15 0)
(3 -4.89933e-16 0)
(3 2.06783e-15 0)
(3 2.07748e-15 0)
(3 3.77374e-16 0)
(3 -1.25976e-15 0)
(3 -2.80288e-15 0)
(3 -3.09839e-15 0)
(3 -3.6264e-15 0)
(3 -4.10091e-15 0)
(3 -3.63332e-15 0)
(3 -2.27697e-15 0)
(3 -1.39113e-15 0)
(3 -1.55517e-15 0)
(3 -1.33787e-15 0)
(3 -9.35288e-16 0)
(3 3.48427e-17 0)
(3 7.43747e-16 0)
(3 1.07647e-15 0)
(3 6.20975e-16 0)
(3 -1.99972e-16 0)
(3 -6.12179e-16 0)
(3 -1.65132e-15 0)
(3 -2.53722e-15 0)
(3 -2.14325e-15 0)
(3 -8.42395e-16 0)
(3 -3.11219e-17 0)
(3 -1.67465e-16 0)
(3 9.35927e-18 0)
(3 -9.35492e-16 0)
(3 -1.88212e-15 0)
(3 -2.03724e-15 0)
(3 -2.72281e-15 0)
(3 -3.13651e-15 0)
(3 -3.19208e-15 0)
(3 -3.48125e-15 0)
(3 -2.98602e-15 0)
(3 -9.31549e-16 0)
(3 -3.42673e-17 0)
(3 -1.2305e-17 0)
(3 1.26829e-17 0)
(3 1.11068e-16 0)
(3 -7.08587e-16 0)
(3 1.81962e-16 0)
(3 2.4567e-16 0)
(3 1.49364e-16 0)
(3 -1.09023e-15 0)
(3 -7.40641e-16 0)
(3 1.76545e-16 0)
(3 1.78732e-16 0)
(3 -2.95362e-16 0)
(3 -7.36693e-16 0)
(3 -1.58858e-15 0)
(3 -1.20893e-15 0)
(3 -9.15431e-16 0)
(3 -1.01362e-15 0)
(3 -1.86279e-15 0)
(3 -2.6453e-15 0)
(3 -1.42704e-15 0)
(3 2.31073e-15 0)
(3 3.39096e-15 0)
(3 4.08097e-15 0)
(3 3.74745e-15 0)
(3 3.33942e-15 0)
(3 2.34128e-15 0)
(3 2.03753e-15 0)
(3 3.62294e-18 0)
(3 4.96895e-17 0)
(3 -1.57518e-16 0)
(3 8.34592e-17 0)
(3 -3.06666e-16 0)
(3 -7.95412e-16 0)
(3 -1.29299e-15 0)
(3 -7.97942e-16 0)
(3 -1.2475e-15 0)
(3 -1.62797e-15 0)
(3 -1.76498e-15 0)
(3 -1.8101e-15 0)
(3 -1.28134e-15 0)
(3 -5.62223e-16 0)
(3 3.20564e-17 0)
(3 3.82836e-16 0)
(3 8.40894e-16 0)
(3 1.29851e-15 0)
(3 3.4748e-15 0)
(3 4.1645e-15 0)
(3 4.09218e-15 0)
(3 3.60873e-15 0)
(3 2.51843e-15 0)
(3 1.63597e-15 0)
(3 8.56933e-16 0)
(3 3.97148e-16 0)
(3 3.3416e-16 0)
(3 8.79817e-16 0)
(3 1.57159e-15 0)
(3 1.37847e-15 0)
(3 4.00529e-16 0)
(3 4.04615e-16 0)
(3 1.11881e-15 0)
(3 2.47253e-15 0)
(3 7.33554e-16 0)
(3 -1.55167e-15 0)
(3 -1.80867e-15 0)
(3 -1.36076e-15 0)
(3 -9.5551e-16 0)
(3 -1.32466e-15 0)
(3 -1.79923e-15 0)
(3 -2.25235e-15 0)
(3 -2.06767e-15 0)
(3 -1.13728e-15 0)
(3 -4.71918e-16 0)
(3 -2.9409e-16 0)
(3 1.98754e-16 0)
(3 5.12462e-16 0)
(3 9.7799e-16 0)
(3 1.48572e-15 0)
(3 1.18096e-15 0)
(3 7.6493e-16 0)
(3 4.78164e-16 0)
(3 5.39131e-16 0)
(3 7.79829e-16 0)
(3 2.74573e-16 0)
(3 -6.9012e-16 0)
(3 -1.67851e-15 0)
(3 -2.91937e-15 0)
(3 -2.74836e-15 0)
(3 -1.59373e-15 0)
(3 -4.95092e-16 0)
(3 1.38508e-15 0)
(3 2.03225e-15 0)
(3 1.2127e-15 0)
(3 1.64147e-17 0)
(3 -4.38577e-16 0)
(3 -4.02468e-16 0)
(3 -2.64043e-16 0)
(3 -1.00629e-16 0)
(3 -5.63624e-16 0)
(3 -1.54758e-15 0)
(3 -1.53534e-16 0)
(3 2.79555e-16 0)
(3 1.42339e-16 0)
(3 -7.58373e-16 0)
(3 -1.12982e-15 0)
(3 -1.56581e-15 0)
(3 -1.65677e-15 0)
(3 -1.55849e-15 0)
(3 -1.29819e-15 0)
(3 -1.50158e-15 0)
(3 -1.61314e-15 0)
(3 -1.71491e-15 0)
(3 -1.81253e-15 0)
(3 -2.09832e-15 0)
(3 -2.40005e-15 0)
(3 -2.89325e-15 0)
(3 -2.49671e-15 0)
(3 9.73349e-16 0)
(3 2.19449e-15 0)
(3 2.62668e-15 0)
(3 2.93636e-15 0)
(3 2.69238e-15 0)
(3 1.85376e-15 0)
(3 1.72784e-15 0)
(3 -2.62139e-17 0)
(3 -7.64888e-18 0)
(3 1.57656e-16 0)
(3 5.94731e-16 0)
(3 5.25924e-16 0)
(3 -4.16976e-16 0)
(3 -7.00297e-16 0)
(3 -1.80483e-15 0)
(3 -1.86936e-15 0)
(3 -1.40956e-15 0)
(3 -5.55608e-16 0)
(3 -2.90516e-16 0)
(3 2.63656e-16 0)
(3 8.70375e-16 0)
(3 7.80004e-16 0)
(3 1.40814e-16 0)
(3 2.32783e-16 0)
(3 1.04459e-15 0)
(3 2.42639e-15 0)
(3 2.76032e-15 0)
(3 2.78599e-15 0)
(3 2.35802e-15 0)
(3 2.52333e-16 0)
(3 -9.36103e-16 0)
(3 -2.20373e-15 0)
(3 -2.32708e-15 0)
(3 -1.52656e-15 0)
(3 1.71404e-16 0)
(3 1.04559e-15 0)
(3 1.26044e-15 0)
(3 1.26756e-15 0)
(3 1.38487e-15 0)
(3 1.10671e-15 0)
(3 8.46972e-16 0)
(3 1.29166e-15 0)
(3 1.26228e-15 0)
(3 9.3561e-16 0)
(3 7.12423e-16 0)
(3 7.10704e-16 0)
(3 8.04913e-16 0)
(3 9.63894e-16 0)
(3 1.44169e-16 0)
(3 -7.4478e-16 0)
(3 -7.78532e-16 0)
(3 -2.6614e-16 0)
(3 -2.75478e-17 0)
(3 -2.81348e-16 0)
(3 -1.85123e-16 0)
(3 4.0861e-16 0)
(3 1.17872e-15 0)
(3 1.78861e-15 0)
(3 1.56063e-15 0)
(3 1.92524e-15 0)
(3 2.26076e-15 0)
(3 2.63884e-15 0)
(3 2.37623e-15 0)
(3 5.31887e-16 0)
(3 -2.4062e-16 0)
(3 -9.57505e-16 0)
(3 -1.37898e-15 0)
(3 -4.43587e-16 0)
(3 1.33202e-15 0)
(3 2.12763e-15 0)
(3 1.76012e-15 0)
(3 1.80711e-15 0)
(3 1.87018e-15 0)
(3 9.81479e-16 0)
(3 5.07596e-16 0)
(3 4.97769e-16 0)
(3 -1.87618e-16 0)
(3 -5.91663e-16 0)
(3 -1.98652e-15 0)
(3 -3.52563e-15 0)
(3 -3.55407e-15 0)
(3 -2.56573e-15 0)
(3 -1.25451e-15 0)
(3 -4.14303e-16 0)
(3 -2.62908e-16 0)
(3 -1.4988e-15 0)
(3 -1.81021e-15 0)
(3 -2.59805e-15 0)
(3 -2.05907e-15 0)
(3 -1.4679e-15 0)
(3 -1.19348e-15 0)
(3 -1.49243e-15 0)
(3 -1.73318e-15 0)
(3 -1.93225e-15 0)
(3 -1.88323e-15 0)
(3 2.71006e-16 0)
(3 7.6492e-16 0)
(3 8.11344e-16 0)
(3 1.57983e-15 0)
(3 2.60789e-15 0)
(3 2.71549e-15 0)
(3 2.1552e-15 0)
(3 7.86358e-16 0)
(3 6.39043e-17 0)
(3 -8.40963e-18 0)
(3 1.88659e-18 0)
(3 9.61931e-16 0)
(3 9.7185e-16 0)
(3 -2.5394e-16 0)
(3 -5.16183e-16 0)
(3 -1.40291e-15 0)
(3 -1.37832e-15 0)
(3 -9.44983e-16 0)
(3 6.48851e-17 0)
(3 2.10918e-15 0)
(3 2.54178e-15 0)
(3 1.50968e-15 0)
(3 5.69778e-16 0)
(3 5.94221e-16 0)
(3 1.01673e-15 0)
(3 1.04745e-15 0)
(3 1.4169e-15 0)
(3 1.31644e-15 0)
(3 3.02869e-16 0)
(3 -1.00573e-15 0)
(3 -1.49429e-15 0)
(3 -1.41176e-15 0)
(3 -1.25064e-15 0)
(3 -1.31804e-15 0)
(3 -1.04081e-15 0)
(3 -4.53594e-16 0)
(3 -3.9035e-16 0)
(3 -1.69157e-16 0)
(3 5.04863e-16 0)
(3 7.67825e-16 0)
(3 5.54387e-16 0)
(3 -1.15117e-16 0)
(3 3.99059e-16 0)
(3 1.54541e-15 0)
(3 1.49197e-15 0)
(3 1.27991e-15 0)
(3 1.06537e-15 0)
(3 1.16699e-15 0)
(3 1.062e-15 0)
(3 7.25686e-16 0)
(3 4.79293e-16 0)
(3 -3.49665e-16 0)
(3 -6.12202e-16 0)
(3 -9.46287e-16 0)
(3 -1.10623e-15 0)
(3 -1.27455e-15 0)
(3 -8.39895e-16 0)
(3 -5.57435e-16 0)
(3 7.26575e-16 0)
(3 1.1482e-15 0)
(3 6.37012e-16 0)
(3 1.20855e-15 0)
(3 2.42669e-15 0)
(3 2.56555e-15 0)
(3 1.95458e-15 0)
(3 9.73258e-16 0)
(3 3.70832e-16 0)
(3 3.91137e-16 0)
(3 3.16945e-16 0)
(3 8.30572e-16 0)
(3 4.14027e-16 0)
(3 1.09449e-15 0)
(3 2.04619e-15 0)
(3 2.61815e-15 0)
(3 2.92365e-15 0)
(3 2.56232e-15 0)
(3 2.46248e-15 0)
(3 8.93602e-16 0)
(3 2.87323e-16 0)
(3 -4.46489e-16 0)
(3 -1.67508e-15 0)
(3 -1.71331e-15 0)
(3 -8.27861e-16 0)
(3 -1.58531e-16 0)
(3 4.89887e-16 0)
(3 2.17493e-16 0)
(3 -1.51518e-15 0)
(3 -2.44084e-15 0)
(3 -3.26805e-15 0)
(3 -2.53533e-15 0)
(3 -1.69351e-15 0)
(3 -5.02393e-16 0)
(3 6.78948e-16 0)
(3 3.20854e-16 0)
(3 -2.50057e-16 0)
(3 -8.79869e-16 0)
(3 6.5739e-16 0)
(3 1.48541e-15 0)
(3 1.77519e-15 0)
(3 1.82029e-15 0)
(3 1.29969e-15 0)
(3 1.67218e-15 0)
(3 1.4359e-15 0)
(3 -1.66544e-16 0)
(3 1.27988e-16 0)
(3 2.89701e-16 0)
(3 6.57167e-17 0)
(3 7.77742e-16 0)
(3 8.96584e-16 0)
(3 4.35587e-16 0)
(3 3.93608e-16 0)
(3 2.92952e-16 0)
(3 -9.01444e-17 0)
(3 6.84068e-17 0)
(3 8.353e-16 0)
(3 2.22554e-15 0)
(3 2.58438e-15 0)
(3 2.25983e-15 0)
(3 2.58918e-15 0)
(3 2.25496e-15 0)
(3 1.93721e-15 0)
(3 1.38539e-15 0)
(3 4.10886e-16 0)
(3 2.62329e-16 0)
(3 -1.65069e-15 0)
(3 -2.51752e-15 0)
(3 -2.67069e-15 0)
(3 -1.84647e-15 0)
(3 -9.33282e-16 0)
(3 -2.44156e-16 0)
(3 6.7853e-17 0)
(3 -3.59825e-16 0)
(3 -1.33465e-16 0)
(3 5.43604e-16 0)
(3 4.49703e-16 0)
(3 1.88739e-16 0)
(3 -4.67285e-16 0)
(3 -1.52601e-15 0)
(3 -1.70561e-15 0)
(3 -6.73675e-16 0)
(3 7.59016e-16 0)
(3 1.49572e-15 0)
(3 1.29811e-15 0)
(3 9.13306e-16 0)
(3 3.01066e-16 0)
(3 9.3106e-17 0)
(3 8.2102e-16 0)
(3 3.28048e-16 0)
(3 -3.81326e-18 0)
(3 5.36157e-16 0)
(3 4.87569e-16 0)
(3 4.44949e-16 0)
(3 1.56702e-16 0)
(3 -6.44258e-17 0)
(3 2.84102e-16 0)
(3 1.02694e-15 0)
(3 1.40484e-15 0)
(3 1.28748e-15 0)
(3 1.36875e-15 0)
(3 1.01317e-15 0)
(3 7.59061e-16 0)
(3 5.22687e-16 0)
(3 2.57663e-16 0)
(3 3.40052e-16 0)
(3 9.84633e-16 0)
(3 9.31003e-16 0)
(3 5.97608e-16 0)
(3 1.00006e-15 0)
(3 1.1743e-15 0)
(3 1.49839e-15 0)
(3 2.28841e-15 0)
(3 2.81319e-15 0)
(3 2.57841e-15 0)
(3 1.86031e-15 0)
(3 1.18618e-15 0)
(3 -3.54035e-17 0)
(3 5.29007e-16 0)
(3 8.52409e-16 0)
(3 5.96438e-16 0)
(3 1.13494e-16 0)
(3 -4.07192e-16 0)
(3 -1.28616e-15 0)
(3 -2.01319e-15 0)
(3 -2.32594e-15 0)
(3 -1.91934e-15 0)
(3 -1.21348e-15 0)
(3 -9.14021e-16 0)
(3 1.21916e-15 0)
(3 1.64663e-15 0)
(3 1.2983e-15 0)
(3 1.20773e-15 0)
(3 1.4978e-15 0)
(3 2.28179e-15 0)
(3 2.95104e-15 0)
(3 2.37723e-15 0)
(3 5.79674e-16 0)
(3 -2.0106e-16 0)
(3 -8.76673e-16 0)
(3 -1.06761e-15 0)
(3 -2.21071e-16 0)
(3 7.70041e-17 0)
(3 2.69441e-17 0)
(3 8.39344e-17 0)
(3 -2.67576e-16 0)
(3 -4.09315e-16 0)
(3 -3.32115e-16 0)
(3 -4.83207e-16 0)
(3 -3.14008e-16 0)
(3 -2.31981e-17 0)
(3 7.32833e-16 0)
(3 1.61034e-15 0)
(3 1.78827e-15 0)
(3 1.75339e-15 0)
(3 2.17369e-15 0)
(3 2.20184e-15 0)
(3 2.31554e-15 0)
(3 1.94601e-15 0)
(3 9.93222e-16 0)
(3 -2.87411e-16 0)
(3 -1.85517e-15 0)
(3 -2.1867e-15 0)
(3 -2.15735e-15 0)
(3 -1.33998e-15 0)
(3 -5.62859e-16 0)
(3 -4.7386e-16 0)
(3 -8.73047e-16 0)
(3 -9.56738e-16 0)
(3 -7.39199e-16 0)
(3 -2.81701e-16 0)
(3 -9.44392e-16 0)
(3 -1.26673e-15 0)
(3 -1.87887e-15 0)
(3 -2.39934e-15 0)
(3 -3.31552e-15 0)
(3 -4.21429e-15 0)
(3 -3.40617e-15 0)
(3 -4.18983e-16 0)
(3 9.90558e-16 0)
(3 1.52772e-15 0)
(3 6.23023e-16 0)
(3 -2.23793e-16 0)
(3 -3.39663e-16 0)
(3 -5.28006e-17 0)
(3 1.73632e-16 0)
(3 4.13793e-16 0)
(3 4.39533e-16 0)
(3 5.0038e-16 0)
(3 6.02815e-16 0)
(3 -2.81197e-16 0)
(3 -4.86094e-16 0)
(3 -3.73491e-16 0)
(3 -3.15359e-16 0)
(3 5.26048e-16 0)
(3 2.77642e-16 0)
(3 -8.64793e-17 0)