/*--------------------------------*- C++ -*----------------------------------*\
  =========                 |
  \\      /  F ield         | OpenFOAM: The Open Source CFD Toolbox
   \\    /   O peration     | Website:  https://openfoam.org
    \\  /    A nd           | Version:  7
     \\/     M anipulation  |
\*---------------------------------------------------------------------------*/
FoamFile
{
    version     2.0;
    format      ascii;
    class       volVectorField;
    location    "3.7";
    object      U;
}
// * * * * * * * * * * * * * * * * * * * * * * * * * * * * * * * * * * * * * //

dimensions      [0 1 -1 0 0 0 0];

internalField   nonuniform List<vector> 
73728
(
(3 -1.07111e-17 0)
(3 -2.77379e-17 0)
(3 1.57505e-16 0)
(3 2.32126e-16 0)
(3 1.15332e-16 0)
(3 -2.65042e-16 0)
(3 -2.44243e-17 0)
(3 5.83918e-17 0)
(3 -2.04922e-16 0)
(3 -7.08701e-16 0)
(3 -1.01783e-15 0)
(3 -1.01529e-15 0)
(3 -5.13014e-16 0)
(3 -6.77217e-17 0)
(3 3.55896e-16 0)
(3 5.80564e-17 0)
(3 -3.47509e-16 0)
(3 -2.04101e-16 0)
(3 6.30117e-17 0)
(3 5.15022e-16 0)
(3 1.04907e-15 0)
(3 1.4696e-15 0)
(3 7.42699e-16 0)
(3 3.39057e-16 0)
(3 4.44015e-16 0)
(3 1.7166e-16 0)
(3 -2.56593e-16 0)
(3 -4.2779e-17 0)
(3 1.39256e-16 0)
(3 5.28937e-16 0)
(3 8.94545e-16 0)
(3 1.36453e-15 0)
(3 1.26489e-16 0)
(3 -3.485e-16 0)
(3 7.26811e-17 0)
(3 1.79414e-16 0)
(3 4.87629e-16 0)
(3 1.04416e-15 0)
(3 6.77766e-16 0)
(3 5.23688e-17 0)
(3 -3.55091e-16 0)
(3 -6.02901e-16 0)
(3 -9.25653e-16 0)
(3 -1.28232e-15 0)
(3 -3.30529e-16 0)
(3 1.35798e-16 0)
(3 7.73016e-16 0)
(3 4.98717e-16 0)
(3 5.18319e-16 0)
(3 4.12313e-16 0)
(3 7.34591e-16 0)
(3 9.48136e-16 0)
(3 1.0705e-15 0)
(3 3.64117e-16 0)
(3 -1.42557e-16 0)
(3 -8.0276e-16 0)
(3 -1.13942e-15 0)
(3 -1.45955e-15 0)
(3 -1.28916e-15 0)
(3 -8.52343e-16 0)
(3 3.43322e-16 0)
(3 5.34463e-16 0)
(3 9.25855e-16 0)
(3 4.64102e-17 0)
(3 -5.50851e-16 0)
(3 -1.09756e-15 0)
(3 -1.29128e-15 0)
(3 -8.70634e-16 0)
(3 -2.09636e-16 0)
(3 -9.85502e-17 0)
(3 -7.53168e-16 0)
(3 -7.8099e-16 0)
(3 2.37194e-16 0)
(3 -4.78139e-16 0)
(3 -4.79295e-16 0)
(3 -1.6011e-16 0)
(3 2.2752e-16 0)
(3 1.39619e-15 0)
(3 9.02753e-16 0)
(3 -5.71616e-16 0)
(3 -1.37306e-15 0)
(3 -1.69198e-15 0)
(3 -2.04086e-15 0)
(3 1.19292e-16 0)
(3 9.68186e-16 0)
(3 1.31145e-15 0)
(3 9.61576e-16 0)
(3 8.6757e-16 0)
(3 1.40622e-15 0)
(3 2.54588e-15 0)
(3 1.9852e-15 0)
(3 9.06379e-16 0)
(3 6.5303e-16 0)
(3 3.20052e-16 0)
(3 3.9143e-16 0)
(3 8.85701e-16 0)
(3 -2.89024e-18 0)
(3 -2.01555e-16 0)
(3 -4.738e-17 0)
(3 3.39798e-16 0)
(3 -1.91703e-16 0)
(3 -8.62571e-16 0)
(3 -6.31497e-16 0)
(3 -5.26003e-16 0)
(3 -2.91957e-16 0)
(3 -8.17167e-16 0)
(3 -9.93724e-16 0)
(3 -1.18222e-15 0)
(3 -8.70066e-16 0)
(3 1.38097e-16 0)
(3 1.34041e-16 0)
(3 -1.58244e-16 0)
(3 -8.41522e-16 0)
(3 -1.34219e-15 0)
(3 -1.23372e-15 0)
(3 -5.12908e-16 0)
(3 3.94363e-16 0)
(3 1.19699e-15 0)
(3 6.73373e-16 0)
(3 4.21798e-16 0)
(3 4.87067e-16 0)
(3 5.09915e-16 0)
(3 -3.41272e-16 0)
(3 -4.37991e-16 0)
(3 5.12352e-16 0)
(3 8.80794e-16 0)
(3 1.0217e-15 0)
(3 1.35801e-15 0)
(3 1.09245e-15 0)
(3 3.42598e-16 0)
(3 3.78279e-16 0)
(3 1.26495e-15 0)
(3 2.34453e-15 0)
(3 2.12147e-15 0)
(3 1.69113e-15 0)
(3 8.42764e-16 0)
(3 8.01881e-16 0)
(3 3.77615e-16 0)
(3 -5.54282e-16 0)
(3 -1.00202e-15 0)
(3 -2.73553e-16 0)
(3 5.0156e-16 0)
(3 6.13815e-16 0)
(3 -2.12825e-16 0)
(3 -8.33587e-17 0)
(3 -6.635e-17 0)
(3 1.80629e-16 0)
(3 1.05934e-15 0)
(3 1.18072e-15 0)
(3 3.11364e-17 0)
(3 -1.19721e-15 0)
(3 -1.10621e-15 0)
(3 -1.87859e-15 0)
(3 -1.1984e-15 0)
(3 -7.94815e-16 0)
(3 -2.36271e-17 0)
(3 5.77594e-16 0)
(3 6.03117e-16 0)
(3 2.02454e-16 0)
(3 -2.07383e-16 0)
(3 -1.20052e-15 0)
(3 -2.09336e-15 0)
(3 -2.23503e-15 0)
(3 -1.40719e-15 0)
(3 -3.53981e-16 0)
(3 -3.76693e-16 0)
(3 -1.03911e-15 0)
(3 -1.26956e-15 0)
(3 8.52881e-16 0)
(3 -1.38769e-16 0)
(3 -4.84009e-17 0)
(3 1.37684e-16 0)
(3 1.48482e-15 0)
(3 2.29916e-15 0)
(3 2.25751e-15 0)
(3 -3.07389e-16 0)
(3 -2.30427e-15 0)
(3 -2.23828e-15 0)
(3 -2.19309e-15 0)
(3 -1.06182e-15 0)
(3 2.14439e-16 0)
(3 1.43389e-15 0)
(3 1.58873e-15 0)
(3 1.89115e-15 0)
(3 2.38165e-15 0)
(3 2.76799e-15 0)
(3 2.64496e-15 0)
(3 1.96044e-15 0)
(3 1.89947e-15 0)
(3 1.69979e-15 0)
(3 1.75104e-15 0)
(3 1.80069e-15 0)
(3 -2.64282e-17 0)
(3 4.56932e-17 0)
(3 5.14849e-17 0)
(3 3.00146e-16 0)
(3 -6.80129e-17 0)
(3 -3.38588e-16 0)
(3 -1.02397e-15 0)
(3 -8.85054e-16 0)
(3 -8.94454e-16 0)
(3 -8.27556e-16 0)
(3 -5.07827e-16 0)
(3 -9.02103e-16 0)
(3 -1.619e-15 0)
(3 -1.31481e-15 0)
(3 -6.78769e-16 0)
(3 -3.77982e-16 0)
(3 -1.18916e-16 0)
(3 -9.46686e-16 0)
(3 -1.92219e-15 0)
(3 -1.38286e-15 0)
(3 -1.79274e-15 0)
(3 -1.35792e-15 0)
(3 4.1634e-16 0)
(3 2.10063e-16 0)
(3 -9.70668e-18 0)
(3 -5.75805e-16 0)
(3 -1.2269e-15 0)
(3 -1.16508e-15 0)
(3 -7.07665e-16 0)
(3 -6.79197e-16 0)
(3 1.42109e-16 0)
(3 6.9472e-16 0)
(3 1.56669e-15 0)
(3 1.39931e-15 0)
(3 1.56251e-15 0)
(3 2.30675e-15 0)
(3 2.89685e-15 0)
(3 2.09964e-15 0)
(3 3.8193e-16 0)
(3 2.33998e-16 0)
(3 5.44519e-16 0)
(3 6.85654e-16 0)
(3 6.18283e-16 0)
(3 1.13334e-15 0)
(3 1.5926e-15 0)
(3 1.47152e-15 0)
(3 3.53536e-16 0)
(3 -3.27495e-17 0)
(3 4.11927e-16 0)
(3 4.85936e-16 0)
(3 -3.22236e-16 0)
(3 -8.31789e-16 0)
(3 -2.6107e-15 0)
(3 -3.0679e-15 0)
(3 -3.83894e-15 0)
(3 -3.53795e-15 0)
(3 -1.71757e-15 0)
(3 -8.07063e-16 0)
(3 -2.03083e-16 0)
(3 7.8393e-16 0)
(3 7.49185e-16 0)
(3 2.98971e-16 0)
(3 -8.86722e-16 0)
(3 -1.40404e-15 0)
(3 -1.67802e-15 0)
(3 -1.86671e-15 0)
(3 -1.36771e-15 0)
(3 -9.19516e-16 0)
(3 -1.1358e-15 0)
(3 -1.99017e-15 0)
(3 -2.55601e-15 0)
(3 -3.28965e-15 0)
(3 -1.87968e-15 0)
(3 -1.10878e-15 0)
(3 -4.97166e-16 0)
(3 -2.36513e-16 0)
(3 2.70325e-16 0)
(3 2.92101e-16 0)
(3 2.68233e-16 0)
(3 6.7742e-16 0)
(3 4.06584e-16 0)
(3 -1.37254e-15 0)
(3 -2.39172e-15 0)
(3 -1.56464e-15 0)
(3 4.16978e-16 0)
(3 2.25264e-15 0)
(3 3.24926e-15 0)
(3 3.83537e-15 0)
(3 4.56558e-15 0)
(3 2.8265e-15 0)
(3 1.99727e-15 0)
(3 2.34119e-15 0)
(3 2.64188e-15 0)
(3 3.54985e-15 0)
(3 3.57516e-15 0)
(3 2.83932e-15 0)
(3 1.79134e-16 0)
(3 7.36627e-16 0)
(3 3.87389e-16 0)
(3 -1.95776e-16 0)
(3 -9.48644e-17 0)
(3 -3.68822e-16 0)
(3 -7.74482e-16 0)
(3 -1.16279e-15 0)
(3 -1.18862e-15 0)
(3 -3.54596e-16 0)
(3 -4.23042e-16 0)
(3 -3.30844e-16 0)
(3 -5.16828e-16 0)
(3 -8.14744e-16 0)
(3 -5.4547e-16 0)
(3 -1.56793e-16 0)
(3 2.29326e-16 0)
(3 1.74214e-16 0)
(3 3.34374e-16 0)
(3 1.19885e-16 0)
(3 -3.13064e-16 0)
(3 -7.36639e-16 0)
(3 2.2329e-16 0)
(3 4.37491e-16 0)
(3 -3.12588e-17 0)
(3 -1.42939e-15 0)
(3 -1.2381e-15 0)
(3 -1.26714e-15 0)
(3 -1.16481e-15 0)
(3 -1.30141e-16 0)
(3 7.37539e-16 0)
(3 2.11482e-15 0)
(3 1.94426e-15 0)
(3 2.01711e-15 0)
(3 2.25682e-15 0)
(3 1.78759e-15 0)
(3 -2.59097e-16 0)
(3 -9.03191e-16 0)
(3 -1.26567e-15 0)
(3 -1.17318e-15 0)
(3 -8.59265e-16 0)
(3 -5.16e-16 0)
(3 6.74758e-16 0)
(3 1.14624e-15 0)
(3 7.66058e-16 0)
(3 7.42475e-16 0)
(3 9.61127e-16 0)
(3 1.07769e-15 0)
(3 9.45063e-16 0)
(3 6.51624e-16 0)
(3 -4.08979e-16 0)
(3 -2.24923e-15 0)
(3 -3.18311e-15 0)
(3 -3.5743e-15 0)
(3 -4.08927e-15 0)
(3 -3.78064e-15 0)
(3 -2.70457e-15 0)
(3 -6.20045e-16 0)
(3 -7.60234e-16 0)
(3 3.01851e-16 0)
(3 4.2635e-16 0)
(3 4.53074e-16 0)
(3 -1.07162e-17 0)
(3 -1.18437e-15 0)
(3 -2.6114e-15 0)
(3 -2.91183e-15 0)
(3 -1.49002e-15 0)
(3 -5.6472e-16 0)
(3 -6.13439e-16 0)
(3 -1.39283e-15 0)
(3 -2.87039e-15 0)
(3 -2.92613e-15 0)
(3 -3.04978e-15 0)
(3 -3.53455e-15 0)
(3 -2.07944e-15 0)
(3 -1.41806e-15 0)
(3 -2.10696e-15 0)
(3 -2.45242e-15 0)
(3 -1.13232e-15 0)
(3 -3.17685e-16 0)
(3 -5.7301e-17 0)
(3 -4.45222e-16 0)
(3 -6.81848e-16 0)
(3 -3.33976e-16 0)
(3 4.47413e-16 0)
(3 7.94008e-16 0)
(3 2.30248e-15 0)
(3 4.10548e-15 0)
(3 4.09022e-15 0)
(3 2.87912e-15 0)
(3 2.59427e-15 0)
(3 2.61704e-15 0)
(3 2.09502e-15 0)
(3 2.08139e-15 0)
(3 3.42988e-15 0)
(3 3.47525e-15 0)
(3 1.73229e-16 0)
(3 9.60577e-17 0)
(3 -1.13991e-16 0)
(3 -1.16457e-16 0)
(3 -8.31541e-16 0)
(3 -7.15704e-16 0)
(3 -6.13827e-16 0)
(3 -1.0638e-15 0)
(3 -1.14881e-15 0)
(3 -9.21595e-16 0)
(3 -8.25537e-16 0)
(3 -3.14554e-16 0)
(3 5.45226e-16 0)
(3 8.02864e-16 0)
(3 6.80629e-16 0)
(3 8.68439e-16 0)
(3 1.36631e-15 0)
(3 1.48669e-15 0)
(3 1.75119e-15 0)
(3 4.95022e-16 0)
(3 1.53787e-16 0)
(3 -4.42886e-17 0)
(3 -1.21068e-15 0)
(3 -3.78479e-17 0)
(3 8.33468e-16 0)
(3 5.16782e-16 0)
(3 4.62083e-16 0)
(3 1.12967e-16 0)
(3 5.8219e-17 0)
(3 3.16023e-16 0)
(3 1.42798e-15 0)
(3 2.36512e-15 0)
(3 1.95064e-15 0)
(3 1.61943e-15 0)
(3 7.37559e-16 0)
(3 -5.15815e-16 0)
(3 -1.79076e-15 0)
(3 -2.04743e-15 0)
(3 -1.47599e-15 0)
(3 -8.82207e-16 0)
(3 -9.84821e-16 0)
(3 -5.83127e-16 0)
(3 1.97403e-16 0)
(3 3.35541e-16 0)
(3 -2.10436e-16 0)
(3 -5.05e-16 0)
(3 1.22256e-15 0)
(3 1.36031e-15 0)
(3 -2.04479e-16 0)
(3 -6.90243e-16 0)
(3 -7.84048e-16 0)
(3 -1.47331e-16 0)
(3 2.16213e-17 0)
(3 -5.61503e-16 0)
(3 -1.46374e-15 0)
(3 -1.61933e-15 0)
(3 -1.29704e-15 0)
(3 1.61312e-16 0)
(3 6.7068e-17 0)
(3 -3.35021e-16 0)
(3 -2.16744e-16 0)
(3 5.22908e-17 0)
(3 3.7385e-16 0)
(3 -1.99367e-16 0)
(3 -8.09811e-16 0)
(3 -4.173e-16 0)
(3 -1.06971e-15 0)
(3 -7.2719e-16 0)
(3 -3.79279e-16 0)
(3 -8.08146e-16 0)
(3 -1.51429e-15 0)
(3 -2.80348e-15 0)
(3 -4.71241e-15 0)
(3 -5.63072e-15 0)
(3 -4.07459e-15 0)
(3 -1.55619e-15 0)
(3 -1.72524e-15 0)
(3 -1.79845e-15 0)
(3 -1.16572e-15 0)
(3 -7.63199e-16 0)
(3 -6.31681e-16 0)
(3 8.59813e-17 0)
(3 9.02033e-16 0)
(3 5.75942e-16 0)
(3 7.92545e-18 0)
(3 3.428e-16 0)
(3 1.5599e-15 0)
(3 2.28062e-15 0)
(3 3.08922e-15 0)
(3 3.22708e-15 0)
(3 3.71161e-15 0)
(3 3.38747e-15 0)
(3 2.53888e-15 0)
(3 5.75272e-16 0)
(3 6.49654e-16 0)
(3 8.70388e-16 0)
(3 -5.75772e-17 0)
(3 -1.35407e-16 0)
(3 1.10665e-16 0)
(3 2.39842e-16 0)
(3 -1.64872e-17 0)
(3 -3.08694e-17 0)
(3 3.17955e-16 0)
(3 7.822e-16 0)
(3 8.17529e-16 0)
(3 5.35685e-16 0)
(3 4.77597e-16 0)
(3 4.36065e-16 0)
(3 2.03198e-16 0)
(3 2.88571e-16 0)
(3 8.93323e-16 0)
(3 7.83765e-16 0)
(3 5.88594e-16 0)
(3 5.2767e-16 0)
(3 5.27373e-16 0)
(3 4.92696e-16 0)
(3 3.60943e-16 0)
(3 5.8202e-16 0)
(3 3.21826e-16 0)
(3 -1.98658e-16 0)
(3 -1.16876e-16 0)
(3 5.85694e-16 0)
(3 7.81896e-16 0)
(3 1.14811e-15 0)
(3 6.59038e-16 0)
(3 2.25785e-16 0)
(3 -4.77466e-16 0)
(3 -1.03232e-15 0)
(3 7.68912e-17 0)
(3 -3.71394e-16 0)
(3 -1.50961e-15 0)
(3 -1.9795e-15 0)
(3 -1.64318e-15 0)
(3 -1.95839e-15 0)
(3 -2.00987e-15 0)
(3 -1.43249e-15 0)
(3 -6.4348e-16 0)
(3 1.31785e-16 0)
(3 -2.02319e-16 0)
(3 -1.14577e-16 0)
(3 -2.05157e-16 0)
(3 4.45996e-16 0)
(3 1.46136e-15 0)
(3 1.85614e-15 0)
(3 9.70409e-16 0)
(3 4.13819e-16 0)
(3 3.17843e-16 0)
(3 1.03931e-16 0)
(3 7.55055e-17 0)
(3 1.86032e-16 0)
(3 -2.48554e-16 0)
(3 -4.92254e-16 0)
(3 -8.55168e-16 0)
(3 -8.42121e-16 0)
(3 -2.66836e-16 0)
(3 -4.30827e-18 0)
(3 5.36047e-16 0)
(3 7.68682e-16 0)
(3 1.15358e-15 0)
(3 7.22283e-16 0)
(3 7.68978e-16 0)
(3 1.04406e-15 0)
(3 2.9535e-16 0)
(3 6.41192e-17 0)
(3 4.8311e-16 0)
(3 -2.19724e-15 0)
(3 -3.43712e-15 0)
(3 -3.87441e-15 0)
(3 -4.04662e-15 0)
(3 -4.2839e-15 0)
(3 -5.1375e-15 0)
(3 -4.32474e-15 0)
(3 -2.61427e-15 0)
(3 -1.28694e-15 0)
(3 -7.08545e-17 0)
(3 4.20431e-16 0)
(3 2.49993e-17 0)
(3 -4.75027e-16 0)
(3 -5.36957e-16 0)
(3 -2.15858e-16 0)
(3 6.44569e-16 0)
(3 9.64708e-16 0)
(3 8.86663e-16 0)
(3 7.59111e-16 0)
(3 1.48347e-15 0)
(3 2.45919e-15 0)
(3 2.20636e-15 0)
(3 1.57675e-15 0)
(3 1.15003e-15 0)
(3 6.80762e-16 0)
(3 -2.66387e-16 0)
(3 -4.41873e-16 0)
(3 3.84989e-17 0)
(3 3.79356e-19 0)
(3 6.91097e-17 0)
(3 -1.43155e-16 0)
(3 2.84022e-16 0)
(3 8.05625e-16 0)
(3 8.60324e-16 0)
(3 7.33982e-16 0)
(3 1.75475e-15 0)
(3 1.81196e-15 0)
(3 1.7696e-15 0)
(3 1.28635e-15 0)
(3 2.7766e-16 0)
(3 -1.73636e-16 0)
(3 -2.94668e-16 0)
(3 -1.3887e-16 0)
(3 -4.36998e-16 0)
(3 -6.21819e-16 0)
(3 -5.41822e-16 0)
(3 -5.98058e-16 0)
(3 8.45821e-17 0)
(3 1.53654e-15 0)
(3 1.44803e-15 0)
(3 -1.77591e-16 0)
(3 -1.10315e-15 0)
(3 -2.07615e-16 0)
(3 9.1235e-17 0)
(3 1.72838e-16 0)
(3 -1.20489e-16 0)
(3 -7.92768e-16 0)
(3 -2.48078e-15 0)
(3 -3.04459e-15 0)
(3 -2.95016e-15 0)
(3 -2.84071e-15 0)
(3 -2.78205e-15 0)
(3 -2.40151e-15 0)
(3 -1.02084e-15 0)
(3 -9.13136e-16 0)
(3 -1.65929e-15 0)
(3 -1.3842e-15 0)
(3 1.56337e-16 0)
(3 9.09525e-16 0)
(3 7.47383e-16 0)
(3 5.37671e-16 0)
(3 6.67698e-16 0)
(3 9.51373e-16 0)
(3 1.18257e-15 0)
(3 1.68523e-15 0)
(3 1.80109e-15 0)
(3 1.49287e-15 0)
(3 3.27634e-16 0)
(3 -1.56725e-15 0)
(3 -1.33655e-15 0)
(3 2.8583e-16 0)
(3 1.62329e-15 0)
(3 2.35206e-15 0)
(3 1.46918e-15 0)
(3 1.52665e-16 0)
(3 -3.64188e-16 0)
(3 -1.01529e-15 0)
(3 -2.35913e-16 0)
(3 5.83096e-16 0)
(3 7.58132e-16 0)
(3 1.53988e-15 0)
(3 2.14721e-15 0)
(3 1.97117e-15 0)
(3 1.07818e-15 0)
(3 -5.95939e-16 0)
(3 -1.82702e-15 0)
(3 -3.08563e-15 0)
(3 -3.38671e-15 0)
(3 -2.56723e-15 0)
(3 -2.21149e-15 0)
(3 -2.4842e-15 0)
(3 -2.93659e-15 0)
(3 -2.67835e-15 0)
(3 -2.08846e-15 0)
(3 -1.62635e-15 0)
(3 -1.89748e-15 0)
(3 -1.98966e-15 0)
(3 -1.96648e-15 0)
(3 -1.95485e-15 0)
(3 -2.05729e-15 0)
(3 -6.50727e-16 0)
(3 5.31763e-17 0)
(3 3.41645e-16 0)
(3 4.71827e-16 0)
(3 4.64049e-16 0)
(3 4.55707e-16 0)
(3 1.3768e-15 0)
(3 1.74706e-15 0)
(3 1.41227e-15 0)
(3 7.75762e-16 0)
(3 6.65843e-16 0)
(3 5.13187e-16 0)
(3 4.02863e-16 0)
(3 -1.97934e-16 0)
(3 -6.19074e-16 0)
(3 -7.84296e-16 0)
(3 -6.60285e-16 0)
(3 4.7128e-17 0)
(3 3.34952e-16 0)
(3 3.17812e-16 0)
(3 2.63023e-16 0)
(3 4.47989e-16 0)
(3 7.5985e-16 0)
(3 1.74376e-16 0)
(3 -3.78967e-16 0)
(3 -3.50146e-16 0)
(3 -3.81497e-16 0)
(3 -7.16374e-16 0)
(3 -6.38282e-16 0)
(3 -2.14722e-16 0)
(3 5.58864e-16 0)
(3 1.57837e-16 0)
(3 3.58585e-16 0)
(3 -4.98759e-16 0)
(3 -1.04651e-15 0)
(3 -7.7212e-16 0)
(3 -2.54879e-16 0)
(3 -4.00448e-16 0)
(3 -1.17975e-16 0)
(3 -5.67569e-16 0)
(3 -5.40005e-16 0)
(3 -3.75409e-16 0)
(3 -3.29236e-16 0)
(3 -7.00943e-16 0)
(3 -2.12554e-15 0)
(3 -4.09786e-15 0)
(3 -4.12605e-15 0)
(3 -3.53304e-15 0)
(3 -2.31899e-15 0)
(3 -9.83477e-16 0)
(3 -2.04308e-16 0)
(3 8.94963e-16 0)
(3 6.28324e-16 0)
(3 -8.12595e-16 0)
(3 -9.22403e-16 0)
(3 -9.9191e-16 0)
(3 -1.22236e-17 0)
(3 6.67771e-16 0)
(3 6.94878e-16 0)
(3 1.04384e-15 0)
(3 1.20014e-15 0)
(3 1.87757e-15 0)
(3 1.77161e-15 0)
(3 7.7114e-16 0)
(3 1.51765e-16 0)
(3 8.2605e-16 0)
(3 2.65198e-15 0)
(3 4.26662e-15 0)
(3 4.22094e-15 0)
(3 3.49592e-15 0)
(3 1.5895e-15 0)
(3 -1.29542e-15 0)
(3 -1.82937e-15 0)
(3 -1.02816e-15 0)
(3 -6.06771e-16 0)
(3 -9.5318e-16 0)
(3 -7.30776e-16 0)
(3 -6.29773e-16 0)
(3 -1.19351e-15 0)
(3 -7.87153e-16 0)
(3 -9.12326e-16 0)
(3 -1.67902e-15 0)
(3 -1.61858e-15 0)
(3 -1.14439e-15 0)
(3 -1.75067e-15 0)
(3 -2.13181e-15 0)
(3 -1.98759e-15 0)
(3 -1.04748e-15 0)
(3 -6.36916e-16 0)
(3 -1.43016e-15 0)
(3 -2.28397e-15 0)
(3 -3.01472e-15 0)
(3 -2.59027e-15 0)
(3 -2.09152e-15 0)
(3 -8.68906e-16 0)
(3 -9.29562e-16 0)
(3 -1.40913e-15 0)
(3 -1.26749e-15 0)
(3 -8.78516e-16 0)
(3 -4.78794e-16 0)
(3 -2.34404e-16 0)
(3 -1.9198e-16 0)
(3 -5.98487e-16 0)
(3 -5.2326e-16 0)
(3 3.99786e-16 0)
(3 1.10332e-15 0)
(3 1.14309e-15 0)
(3 1.90329e-16 0)
(3 -3.19777e-16 0)
(3 -5.66312e-16 0)
(3 -7.40999e-16 0)
(3 -6.07006e-16 0)
(3 -1.10744e-16 0)
(3 -3.26503e-16 0)
(3 -5.57357e-16 0)
(3 -3.30094e-16 0)
(3 6.27937e-16 0)
(3 7.94569e-16 0)
(3 7.3981e-16 0)
(3 -2.19653e-16 0)
(3 -6.39092e-16 0)
(3 2.89764e-17 0)
(3 5.37706e-16 0)
(3 1.90977e-16 0)
(3 -2.20761e-16 0)
(3 3.16307e-16 0)
(3 1.18611e-15 0)
(3 1.18566e-15 0)
(3 9.13003e-16 0)
(3 5.23568e-16 0)
(3 -4.79952e-17 0)
(3 -4.13203e-16 0)
(3 -2.93074e-17 0)
(3 1.58468e-16 0)
(3 -4.19759e-16 0)
(3 -8.86789e-16 0)
(3 -7.81444e-16 0)
(3 -6.49294e-16 0)
(3 -9.14327e-17 0)
(3 4.58205e-17 0)
(3 -6.3782e-16 0)
(3 -8.86774e-16 0)
(3 -6.69607e-16 0)
(3 -7.34681e-16 0)
(3 -3.61936e-16 0)
(3 2.84665e-16 0)
(3 6.45349e-16 0)
(3 1.25106e-15 0)
(3 1.28661e-15 0)
(3 -5.03035e-16 0)
(3 -1.52511e-15 0)
(3 -1.52847e-15 0)
(3 -9.24641e-16 0)
(3 5.30937e-16 0)
(3 1.9623e-15 0)
(3 3.33617e-15 0)
(3 2.8265e-15 0)
(3 2.2343e-15 0)
(3 2.10929e-15 0)
(3 2.54095e-15 0)
(3 2.6255e-15 0)
(3 2.66048e-15 0)
(3 2.91084e-15 0)
(3 3.92803e-15 0)
(3 4.07042e-15 0)
(3 2.90795e-15 0)
(3 7.55874e-16 0)
(3 2.93898e-16 0)
(3 -7.33101e-16 0)
(3 -1.25334e-15 0)
(3 -1.86431e-15 0)
(3 -2.47086e-15 0)
(3 -3.18904e-15 0)
(3 -3.74484e-15 0)
(3 -4.06036e-15 0)
(3 -4.17152e-15 0)
(3 -3.88006e-15 0)
(3 -2.73362e-15 0)
(3 -9.76754e-16 0)
(3 -6.4404e-16 0)
(3 -1.51469e-15 0)
(3 -1.80807e-15 0)
(3 -8.07916e-16 0)
(3 -3.70082e-16 0)
(3 -8.82297e-16 0)
(3 -1.9759e-15 0)
(3 -2.47648e-15 0)
(3 -2.47709e-15 0)
(3 -2.27133e-15 0)
(3 -1.17751e-15 0)
(3 -1.75485e-16 0)
(3 -4.25657e-16 0)
(3 -4.87106e-16 0)
(3 -4.32674e-17 0)
(3 -8.15502e-16 0)
(3 -5.76497e-16 0)
(3 -5.05723e-17 0)
(3 -8.62376e-17 0)
(3 -1.28902e-17 0)
(3 1.56072e-15 0)
(3 2.24363e-15 0)
(3 1.75041e-15 0)
(3 -1.33449e-16 0)
(3 -1.27577e-15 0)
(3 -9.38784e-16 0)
(3 6.74441e-17 0)
(3 4.97819e-16 0)
(3 5.07985e-16 0)
(3 5.67568e-16 0)
(3 -8.69299e-17 0)
(3 -2.10789e-16 0)
(3 8.91712e-17 0)
(3 5.30557e-16 0)
(3 8.68607e-16 0)
(3 9.67796e-16 0)
(3 7.52728e-16 0)
(3 5.05588e-16 0)
(3 -1.97693e-16 0)
(3 -2.27746e-16 0)
(3 -2.14708e-16 0)
(3 -3.40998e-16 0)
(3 -4.73182e-16 0)
(3 1.22966e-16 0)
(3 2.96701e-16 0)
(3 -5.3288e-16 0)
(3 -5.16923e-16 0)
(3 -5.91563e-16 0)
(3 -1.0526e-15 0)
(3 -1.29595e-15 0)
(3 -9.12324e-16 0)
(3 -1.23637e-15 0)
(3 -9.1979e-16 0)
(3 -4.98487e-16 0)
(3 -8.19548e-16 0)
(3 -9.41347e-16 0)
(3 -3.30414e-16 0)
(3 6.38232e-16 0)
(3 1.03624e-15 0)
(3 1.24623e-15 0)
(3 1.77897e-15 0)
(3 2.35387e-15 0)
(3 1.86975e-15 0)
(3 1.27e-15 0)
(3 8.59665e-16 0)
(3 7.85708e-16 0)
(3 6.90234e-16 0)
(3 -2.94744e-17 0)
(3 5.23041e-16 0)
(3 1.21388e-15 0)
(3 1.97696e-15 0)
(3 2.81652e-15 0)
(3 3.25839e-15 0)
(3 3.38117e-15 0)
(3 3.5976e-15 0)
(3 3.33833e-15 0)
(3 3.61769e-15 0)
(3 3.81013e-15 0)
(3 2.62635e-15 0)
(3 1.35122e-15 0)
(3 8.21968e-16 0)
(3 1.02814e-15 0)
(3 1.05436e-15 0)
(3 1.21733e-16 0)
(3 -1.3661e-15 0)
(3 -2.76908e-15 0)
(3 -4.28539e-15 0)
(3 -4.66062e-15 0)
(3 -3.97606e-15 0)
(3 -3.86323e-15 0)
(3 -2.38428e-15 0)
(3 -1.33258e-15 0)
(3 -1.66963e-15 0)
(3 -1.08311e-15 0)
(3 -3.42995e-16 0)
(3 7.19659e-17 0)
(3 2.10107e-16 0)
(3 5.42839e-17 0)
(3 -7.59737e-16 0)
(3 -8.35779e-16 0)
(3 -6.6019e-16 0)
(3 -2.0058e-15 0)
(3 -3.41262e-15 0)
(3 -3.46813e-15 0)
(3 -3.64993e-15 0)
(3 -3.54422e-15 0)
(3 -3.16466e-15 0)
(3 -2.11608e-15 0)
(3 -7.81068e-16 0)
(3 2.30304e-16 0)
(3 6.8174e-16 0)
(3 -2.89632e-16 0)
(3 -1.27801e-15 0)
(3 -1.29989e-15 0)
(3 -5.33412e-16 0)
(3 2.46583e-16 0)
(3 -1.71644e-16 0)
(3 -2.18439e-16 0)
(3 -1.48696e-15 0)
(3 -2.7985e-15 0)
(3 -3.05909e-15 0)
(3 -2.39418e-15 0)
(3 3.51093e-16 0)
(3 3.35829e-16 0)
(3 2.90431e-16 0)
(3 1.27449e-16 0)
(3 1.91896e-16 0)
(3 7.53067e-16 0)
(3 7.8688e-16 0)
(3 3.72039e-16 0)
(3 3.60017e-16 0)
(3 8.49072e-18 0)
(3 4.6226e-16 0)
(3 8.71258e-16 0)
(3 -6.55444e-17 0)
(3 3.99164e-17 0)
(3 7.5006e-16 0)
(3 1.49625e-15 0)
(3 1.57829e-15 0)
(3 1.17341e-15 0)
(3 9.02628e-16 0)
(3 7.60736e-16 0)
(3 -1.01998e-15 0)
(3 -2.33624e-15 0)
(3 -2.50861e-15 0)
(3 -2.32091e-15 0)
(3 -1.97652e-15 0)
(3 -6.58467e-16 0)
(3 1.54272e-16 0)
(3 3.33953e-16 0)
(3 4.47763e-16 0)
(3 7.23096e-16 0)
(3 1.28992e-15 0)
(3 1.90725e-15 0)
(3 2.02794e-15 0)
(3 1.83472e-15 0)
(3 1.1363e-15 0)
(3 1.9582e-16 0)
(3 -4.24803e-16 0)
(3 4.80239e-16 0)
(3 3.82959e-16 0)
(3 -5.36461e-16 0)
(3 1.08155e-15 0)
(3 2.32368e-15 0)
(3 2.43088e-15 0)
(3 2.51895e-15 0)
(3 2.4805e-15 0)
(3 2.31232e-15 0)
(3 1.70905e-15 0)
(3 2.39752e-15 0)
(3 3.2587e-15 0)
(3 3.81596e-15 0)
(3 3.37517e-15 0)
(3 2.69814e-15 0)
(3 1.81952e-15 0)
(3 8.00885e-16 0)
(3 2.80081e-16 0)
(3 -4.58556e-16 0)
(3 -1.3133e-15 0)
(3 -1.71757e-15 0)
(3 -3.08836e-15 0)
(3 -4.46926e-15 0)
(3 -4.9617e-15 0)
(3 -4.56215e-15 0)
(3 -3.798e-15 0)
(3 -2.6172e-15 0)
(3 -2.21902e-15 0)
(3 -1.97418e-15 0)
(3 -1.20236e-15 0)
(3 -1.0415e-15 0)
(3 -1.07002e-15 0)
(3 -8.65336e-16 0)
(3 5.16508e-16 0)
(3 1.03884e-15 0)
(3 3.05491e-16 0)
(3 -1.48831e-15 0)
(3 -2.33751e-15 0)
(3 -4.12964e-15 0)
(3 -4.53543e-15 0)
(3 -4.29568e-15 0)
(3 -3.96394e-15 0)
(3 -4.09598e-15 0)
(3 -4.00095e-15 0)
(3 -3.4957e-15 0)
(3 -2.29563e-15 0)
(3 -2.93962e-16 0)
(3 1.77353e-16 0)
(3 -6.8671e-16 0)
(3 -1.32742e-15 0)
(3 -1.98435e-15 0)
(3 -1.34341e-15 0)
(3 -7.42282e-16 0)
(3 -2.00877e-15 0)
(3 -2.72127e-15 0)
(3 -2.67131e-15 0)
(3 -2.0698e-15 0)
(3 -2.00423e-15 0)
(3 -3.08263e-15 0)
(3 -9.00643e-17 0)
(3 -6.27875e-16 0)
(3 -7.58244e-16 0)
(3 -9.04668e-16 0)
(3 -2.71652e-16 0)
(3 2.39573e-16 0)
(3 3.79217e-16 0)
(3 -9.51789e-16 0)
(3 -1.04413e-15 0)
(3 -5.76502e-16 0)
(3 3.8004e-16 0)
(3 1.26865e-15 0)
(3 1.78751e-15 0)
(3 1.37223e-15 0)
(3 1.29348e-15 0)
(3 1.22224e-15 0)
(3 1.56313e-15 0)
(3 9.80311e-16 0)
(3 4.93103e-16 0)
(3 6.57514e-16 0)
(3 4.19004e-16 0)
(3 -1.38152e-15 0)
(3 -2.20219e-15 0)
(3 -1.90268e-15 0)
(3 -3.80374e-16 0)
(3 8.15963e-16 0)
(3 1.64631e-15 0)
(3 1.35319e-15 0)
(3 1.45885e-15 0)
(3 1.72023e-15 0)
(3 1.81331e-15 0)
(3 2.2927e-15 0)
(3 1.95708e-15 0)
(3 8.95859e-16 0)
(3 -2.50734e-16 0)
(3 -1.0827e-15 0)
(3 -1.15418e-15 0)
(3 -1.16684e-15 0)
(3 2.9403e-17 0)
(3 7.61482e-16 0)
(3 1.46745e-15 0)
(3 2.54437e-15 0)
(3 2.83541e-15 0)
(3 2.68795e-15 0)
(3 1.93747e-15 0)
(3 1.4375e-15 0)
(3 1.85773e-15 0)
(3 2.6126e-15 0)
(3 1.9298e-15 0)
(3 1.57149e-15 0)
(3 1.49453e-15 0)
(3 1.26984e-15 0)
(3 3.1255e-16 0)
(3 7.50818e-17 0)
(3 -4.03316e-16 0)
(3 -1.42403e-15 0)
(3 -2.70306e-15 0)
(3 -2.6435e-15 0)
(3 -2.65723e-15 0)
(3 -2.03551e-15 0)
(3 -1.73125e-15 0)
(3 -1.92591e-15 0)
(3 -1.91171e-15 0)
(3 -1.62507e-15 0)
(3 -1.17429e-15 0)
(3 -1.2361e-15 0)
(3 -3.76534e-16 0)
(3 -5.19055e-17 0)
(3 -5.13969e-16 0)
(3 -1.17938e-15 0)
(3 -7.04834e-16 0)
(3 9.64759e-17 0)
(3 -1.16274e-15 0)
(3 -2.02198e-15 0)
(3 -3.44724e-15 0)
(3 -3.57829e-15 0)
(3 -3.8171e-15 0)
(3 -4.11133e-15 0)
(3 -3.43686e-15 0)
(3 -2.89925e-15 0)
(3 -2.68938e-15 0)
(3 -1.8452e-15 0)
(3 -4.42462e-16 0)
(3 1.52909e-15 0)
(3 1.97433e-15 0)
(3 -1.48779e-16 0)
(3 -4.82771e-16 0)
(3 -6.37996e-16 0)
(3 -1.37424e-15 0)
(3 -1.51827e-15 0)
(3 -1.70367e-15 0)
(3 -2.92197e-15 0)
(3 -3.56062e-15 0)
(3 -2.69058e-15 0)
(3 -9.46994e-16 0)
(3 -1.30073e-15 0)
(3 4.6438e-17 0)
(3 -1.6307e-16 0)
(3 -3.72168e-16 0)
(3 -1.18735e-16 0)
(3 2.86656e-16 0)
(3 1.60285e-16 0)
(3 -1.66268e-16 0)
(3 -7.05689e-16 0)
(3 -7.53569e-16 0)
(3 -8.05363e-16 0)
(3 -7.26232e-16 0)
(3 -3.85176e-16 0)
(3 9.89757e-17 0)
(3 2.77541e-16 0)
(3 1.11822e-16 0)
(3 -5.58833e-16 0)
(3 -1.20151e-15 0)
(3 -7.51244e-16 0)
(3 -5.6788e-16 0)
(3 -6.27784e-16 0)
(3 -8.90497e-16 0)
(3 -4.59041e-16 0)
(3 -3.27328e-16 0)
(3 3.87456e-16 0)
(3 6.5011e-16 0)
(3 9.24637e-16 0)
(3 9.73837e-16 0)
(3 5.81577e-16 0)
(3 4.72096e-16 0)
(3 8.3778e-16 0)
(3 1.33649e-15 0)
(3 6.03748e-16 0)
(3 2.33875e-17 0)
(3 5.87588e-17 0)
(3 -1.02481e-16 0)
(3 -2.1706e-16 0)
(3 -6.48998e-16 0)
(3 -1.6194e-15 0)
(3 -1.60395e-15 0)
(3 -6.13108e-16 0)
(3 -1.65435e-16 0)
(3 4.47484e-16 0)
(3 1.03251e-15 0)
(3 1.01921e-15 0)
(3 1.82897e-15 0)
(3 1.58863e-15 0)
(3 1.65038e-15 0)
(3 1.13663e-15 0)
(3 6.43802e-16 0)
(3 1.86509e-16 0)
(3 -2.50436e-16 0)
(3 -5.05889e-16 0)
(3 -6.68732e-16 0)
(3 -1.08523e-16 0)
(3 -8.47461e-17 0)
(3 -1.45051e-15 0)
(3 -2.39775e-15 0)
(3 -2.15191e-15 0)
(3 -6.81572e-16 0)
(3 1.03148e-15 0)
(3 1.78327e-15 0)
(3 1.34693e-15 0)
(3 -5.73665e-17 0)
(3 -4.03492e-16 0)
(3 -4.02985e-16 0)
(3 -5.33726e-16 0)
(3 -8.68849e-16 0)
(3 -4.51897e-16 0)
(3 4.49106e-16 0)
(3 1.14186e-15 0)
(3 1.29918e-15 0)
(3 1.31531e-15 0)
(3 1.62994e-16 0)
(3 -1.34693e-16 0)
(3 -7.80917e-16 0)
(3 -1.15887e-15 0)
(3 -2.18379e-15 0)
(3 -2.87762e-15 0)
(3 -3.29809e-15 0)
(3 -2.48044e-15 0)
(3 -1.39382e-15 0)
(3 -9.76292e-16 0)
(3 -1.15353e-16 0)
(3 8.15088e-16 0)
(3 1.35633e-15 0)
(3 1.01637e-15 0)
(3 2.82243e-16 0)
(3 -8.31276e-16 0)
(3 -1.36488e-15 0)
(3 -1.40317e-15 0)
(3 -1.00147e-15 0)
(3 -1.28537e-15 0)
(3 -1.59351e-15 0)
(3 -1.73629e-15 0)
(3 -7.06067e-16 0)
(3 -4.39616e-16 0)
(3 2.20075e-16 0)
(3 -3.43217e-18 0)
(3 5.86488e-17 0)
(3 7.58455e-16 0)
(3 9.07654e-16 0)
(3 6.22456e-16 0)
(3 6.69277e-16 0)
(3 7.44734e-16 0)
(3 2.47278e-16 0)
(3 -9.89951e-16 0)
(3 -8.01635e-16 0)
(3 -5.09341e-16 0)
(3 -3.801e-16 0)
(3 1.68053e-16 0)
(3 5.49036e-16 0)
(3 4.3653e-16 0)
(3 -5.94278e-16 0)
(3 -1.09906e-15 0)
(3 -9.24225e-16 0)
(3 -2.72937e-16 0)
(3 -6.32824e-16 0)
(3 -2.25406e-15 0)
(3 -2.05372e-15 0)
(3 -1.25375e-15 0)
(3 -1.2153e-15 0)
(3 -3.89072e-16 0)
(3 4.07884e-17 0)
(3 2.88075e-16 0)
(3 2.85557e-16 0)
(3 2.27195e-16 0)
(3 4.03206e-16 0)
(3 -6.25941e-16 0)
(3 -8.48042e-16 0)
(3 -9.99249e-16 0)
(3 -1.19513e-15 0)
(3 -1.51918e-15 0)
(3 -1.94545e-15 0)
(3 -2.50279e-15 0)
(3 -3.07341e-15 0)
(3 -3.18406e-15 0)
(3 -1.57671e-15 0)
(3 -1.20457e-15 0)
(3 -9.34561e-16 0)
(3 -1.11912e-15 0)
(3 -8.03313e-16 0)
(3 -6.89535e-17 0)
(3 3.77474e-16 0)
(3 7.84259e-16 0)
(3 1.31313e-15 0)
(3 6.6368e-16 0)
(3 9.75134e-17 0)
(3 -3.30577e-16 0)
(3 3.81237e-16 0)
(3 7.60294e-16 0)
(3 3.53921e-16 0)
(3 -2.69283e-18 0)
(3 -1.15995e-16 0)
(3 -1.22808e-16 0)
(3 1.1267e-15 0)
(3 1.86651e-15 0)
(3 1.63441e-15 0)
(3 1.81607e-15 0)
(3 1.47113e-15 0)
(3 1.07113e-15 0)
(3 1.14549e-15 0)
(3 1.06524e-15 0)
(3 8.74564e-16 0)
(3 9.04802e-16 0)
(3 2.35438e-15 0)
(3 3.81238e-15 0)
(3 3.55866e-15 0)
(3 3.36187e-15 0)
(3 3.32535e-15 0)
(3 2.6985e-15 0)
(3 1.53426e-15 0)
(3 -8.3934e-16 0)
(3 -1.14077e-15 0)
(3 -2.75686e-15 0)
(3 -3.56815e-15 0)
(3 -2.77458e-15 0)
(3 -1.1367e-15 0)
(3 -6.29567e-16 0)
(3 -7.41363e-16 0)
(3 -1.39861e-15 0)
(3 -2.74543e-16 0)
(3 8.37891e-16 0)
(3 5.67772e-16 0)
(3 1.29736e-15 0)
(3 7.66133e-16 0)
(3 -5.03998e-16 0)
(3 -1.17083e-15 0)
(3 -7.54202e-16 0)
(3 -8.47917e-17 0)
(3 -4.17361e-17 0)
(3 -2.68297e-16 0)
(3 -5.46079e-16 0)
(3 -1.08107e-17 0)
(3 2.59764e-16 0)
(3 6.58062e-16 0)
(3 7.86764e-16 0)
(3 4.90817e-16 0)
(3 1.09801e-16 0)
(3 4.41951e-16 0)
(3 8.73349e-16 0)
(3 4.20619e-16 0)
(3 -4.26444e-16 0)
(3 -4.40778e-16 0)
(3 5.54803e-17 0)
(3 1.59432e-16 0)
(3 -3.996e-17 0)
(3 -2.29732e-16 0)
(3 -6.69168e-16 0)
(3 -1.37149e-15 0)
(3 -2.21033e-15 0)
(3 -5.56163e-16 0)
(3 1.67236e-16 0)
(3 3.00441e-16 0)
(3 1.88636e-16 0)
(3 2.70606e-16 0)
(3 -1.4236e-16 0)
(3 -5.06783e-16 0)
(3 -3.58471e-16 0)
(3 -5.56427e-16 0)
(3 -5.15373e-16 0)
(3 -9.27334e-16 0)
(3 -1.88119e-15 0)
(3 -2.55922e-15 0)
(3 -1.65349e-15 0)
(3 -1.11133e-15 0)
(3 -1.67038e-15 0)
(3 -2.06656e-15 0)
(3 -1.98021e-15 0)
(3 -3.06321e-15 0)
(3 -4.22203e-15 0)
(3 -3.23317e-15 0)
(3 -1.43586e-15 0)
(3 7.73696e-16 0)
(3 1.03907e-15 0)
(3 3.32449e-16 0)
(3 -4.98596e-16 0)
(3 -1.32293e-15 0)
(3 -1.05388e-15 0)
(3 -3.80019e-16 0)
(3 1.61905e-17 0)
(3 4.34776e-16 0)
(3 -2.37293e-16 0)
(3 -4.04342e-16 0)
(3 -3.50841e-16 0)
(3 -8.64095e-16 0)
(3 -1.71591e-15 0)
(3 -1.44663e-15 0)
(3 -1.76312e-16 0)
(3 5.11856e-16 0)
(3 1.35829e-15 0)
(3 1.16028e-15 0)
(3 1.22785e-15 0)
(3 8.74555e-16 0)
(3 1.75218e-17 0)
(3 1.22103e-15 0)
(3 2.50433e-15 0)
(3 3.84621e-15 0)
(3 3.65494e-15 0)
(3 4.01377e-15 0)
(3 4.05076e-15 0)
(3 4.43021e-15 0)
(3 4.35835e-15 0)
(3 3.64316e-15 0)
(3 2.48372e-15 0)
(3 2.41727e-15 0)
(3 2.20712e-15 0)
(3 1.18209e-15 0)
(3 1.28583e-15 0)
(3 1.37788e-15 0)
(3 7.12724e-16 0)
(3 -6.067e-16 0)
(3 -2.15622e-16 0)
(3 1.18978e-15 0)
(3 9.67222e-16 0)
(3 1.84409e-16 0)
(3 -5.87883e-16 0)
(3 -9.90423e-16 0)
(3 -4.70337e-16 0)
(3 -2.8891e-16 0)
(3 7.56073e-16 0)
(3 1.20107e-15 0)
(3 1.03348e-15 0)
(3 1.03551e-15 0)
(3 9.76632e-16 0)
(3 -1.90166e-17 0)
(3 -2.74283e-16 0)
(3 -3.83151e-16 0)
(3 -1.51614e-15 0)
(3 -1.03423e-17 0)
(3 2.32136e-16 0)
(3 1.80563e-16 0)
(3 -2.84022e-16 0)
(3 -1.57996e-16 0)
(3 1.64211e-16 0)
(3 -2.19206e-16 0)
(3 -5.46298e-16 0)
(3 -2.04441e-16 0)
(3 5.00843e-16 0)
(3 8.05991e-17 0)
(3 2.93762e-17 0)
(3 -3.67653e-16 0)
(3 -7.3996e-16 0)
(3 -1.24683e-15 0)
(3 -1.61332e-15 0)
(3 -1.87404e-15 0)
(3 -1.23517e-15 0)
(3 2.83042e-16 0)
(3 1.19022e-15 0)
(3 1.59041e-15 0)
(3 2.0906e-15 0)
(3 2.02302e-15 0)
(3 1.19857e-15 0)
(3 6.79051e-16 0)
(3 4.70308e-17 0)
(3 -1.25519e-15 0)
(3 -1.87302e-15 0)
(3 -1.53274e-15 0)
(3 -1.92686e-15 0)
(3 -2.67482e-15 0)
(3 -1.92081e-15 0)
(3 -7.71615e-16 0)
(3 -4.29797e-16 0)
(3 -7.34509e-16 0)
(3 -8.93701e-16 0)
(3 -2.07358e-15 0)
(3 -2.53591e-15 0)
(3 -1.95537e-15 0)
(3 -9.57491e-17 0)
(3 -3.93792e-16 0)
(3 -1.84134e-15 0)
(3 -5.38287e-16 0)
(3 9.56139e-16 0)
(3 1.4236e-15 0)
(3 1.27489e-15 0)
(3 4.22516e-16 0)
(3 4.40244e-16 0)
(3 4.3251e-16 0)
(3 9.41022e-17 0)
(3 -3.81729e-16 0)
(3 -1.02933e-15 0)
(3 -1.6779e-15 0)
(3 -1.99935e-15 0)
(3 -1.47761e-15 0)
(3 -8.55784e-16 0)
(3 -5.86188e-16 0)
(3 1.58161e-16 0)
(3 7.14973e-16 0)
(3 1.95629e-15 0)
(3 1.21036e-15 0)
(3 1.84026e-16 0)
(3 9.673e-16 0)
(3 1.68148e-15 0)
(3 1.73944e-15 0)
(3 2.59032e-15 0)
(3 3.24891e-15 0)
(3 3.48631e-15 0)
(3 3.47512e-15 0)
(3 3.35768e-15 0)
(3 2.7406e-15 0)
(3 1.92048e-15 0)
(3 1.81263e-15 0)
(3 2.22333e-15 0)
(3 2.88533e-15 0)
(3 2.6492e-15 0)
(3 2.55109e-15 0)
(3 1.74285e-15 0)
(3 2.14477e-16 0)
(3 1.24919e-15 0)
(3 2.77949e-15 0)
(3 2.38809e-15 0)
(3 1.65736e-15 0)
(3 7.78807e-16 0)
(3 2.32518e-16 0)
(3 8.18489e-16 0)
(3 1.26106e-15 0)
(3 1.87965e-15 0)
(3 1.83529e-15 0)
(3 1.10517e-15 0)
(3 1.32326e-16 0)
(3 -1.02817e-16 0)
(3 -9.95997e-16 0)
(3 -1.83844e-15 0)
(3 -2.22048e-15 0)
(3 -2.29206e-15 0)
(3 5.14061e-17 0)
(3 2.32175e-16 0)
(3 -1.01843e-16 0)
(3 -1.81476e-16 0)
(3 -3.25745e-16 0)
(3 -5.11822e-16 0)
(3 -1.03206e-15 0)
(3 -1.14529e-15 0)
(3 -6.72118e-16 0)
(3 -4.91813e-17 0)
(3 -1.56621e-16 0)
(3 -2.48972e-16 0)
(3 -4.17139e-16 0)
(3 -4.31944e-16 0)
(3 -4.27212e-16 0)
(3 -5.0367e-16 0)
(3 -5.92612e-17 0)
(3 6.19254e-16 0)
(3 5.56866e-16 0)
(3 9.91304e-16 0)
(3 2.04618e-15 0)
(3 2.04152e-15 0)
(3 1.07194e-15 0)
(3 9.79675e-16 0)
(3 6.40438e-16 0)
(3 -4.15401e-16 0)
(3 -1.27819e-15 0)
(3 -1.2097e-15 0)
(3 -8.28262e-16 0)
(3 -8.43912e-16 0)
(3 -7.7433e-16 0)
(3 -8.56525e-16 0)
(3 -2.05063e-16 0)
(3 1.18042e-15 0)
(3 1.42022e-15 0)
(3 1.06514e-15 0)
(3 1.62088e-15 0)
(3 2.02328e-15 0)
(3 1.19456e-15 0)
(3 -4.92807e-16 0)
(3 -9.91484e-16 0)
(3 -2.65387e-15 0)
(3 -2.44304e-15 0)
(3 -1.54054e-15 0)
(3 -6.22084e-16 0)
(3 -8.51771e-17 0)
(3 -2.14909e-16 0)
(3 -7.24036e-17 0)
(3 3.6861e-16 0)
(3 3.26963e-16 0)
(3 -1.42771e-16 0)
(3 -6.28598e-16 0)
(3 -9.42443e-16 0)
(3 -8.10563e-16 0)