/*--------------------------------*- C++ -*----------------------------------*\
  =========                 |
  \\      /  F ield         | OpenFOAM: The Open Source CFD Toolbox
   \\    /   O peration     | Website:  https://openfoam.org
    \\  /    A nd           | Version:  7
     \\/     M anipulation  |
\*---------------------------------------------------------------------------*/
FoamFile
{
    version     2.0;
    format      ascii;
    class       volScalarField;
    location    "3.1";
    object      p;
}
// * * * * * * * * * * * * * * * * * * * * * * * * * * * * * * * * * * * * * //

dimensions      [1 -1 -2 0 0 0 0];

internalField   nonuniform List<scalar> 
18432
(
1
1
1
1
1
1
1
1
1
1
1
1
1
1
1
1
1
1
1
1
1
1
1
1
1
1
1
1
1
1
1
1
1
1
1
1
1
1
1
1
1
1
1
1
1
1
1
1
1
1
1
1
1
1
1
1
1
1
1
1
1
1
1
1
1
1
1
1
1
1
1
1
1
1
1
1
1
1
1
1
1
1
1
1
1
1
1
1
1
1
1
1
1
1
1
1
1
1
1
1
1
1
1
1
1
1
1
1
1
1
1
1
1
1
1
1
1
1
1
1
1
1
1
1
1
1
1
1
1
1
1
1
1
1
1
1
1
1
1
1
1
1
1
1
1
1
1
1
1
1
1
1
1
1
1
1
1
1
1
1
1
1
1
1
1
1
1
1
1
1
1
1
1
1
1
1
1
1
1
1
1
1
1
1
1
1
1
1
1
1
1
1
1
1
1
1
1
1
1
1
1
1
1
1
1
1
1
1
1
1
1
1
1
1
1
1
1
1
1
1
1
1
1
1
1
1
1
1
1
1
1
1
1
1
1
1
1
1
1
1
1
1
1
1
1
1
1
1
1
1
1
1
1
1
1
1
1
1
1
1
1
1
1
1
1
1
1
1
1
1
1
1
1
1
1
1
1
1
1
1
1
1
1
1
1
1
1
1
1
1
1
1
1
1
1
1
1
1
1
1
1
1
1
1
1
1
1
1
1
1
1
1
1
1
1
1
1
1
1
1
1
1
1
1
1
1
1
1
1
1
1
1
1
1
1
1
1
1
1
1
1
1
1
1
1
1
1
1
1
1
1
1
1
1
1
1
1
1
1
1
1
1
1
1
1
1
1
1
1
1
1
1
1
1
1
1
1
1
1
1
1
1
1
1
1
1
1
1
1
1
1
1
1
1
1
1
1
1
1
1
1
1
1
1
1
1
1
1
1
1
1
1
1
1
1
1
1
1
1
1
1
1
1
1
1
1
1
1
1
1
1
1
1
1
1
1
1
1
1
1
1
1
1
1
1
1
1
1
1
1
1
1
1
1
1
1
1
1
1
1
1
1
1
1
1
1
1
1
1
1
1
1
1
1
1
1
1
1
1
1
1
1
1
1
1
1
1
1
1
1
1
1
1
1
1
1
1
1
1
1
1
1
1
1
1
1
1
1
1
1
1
1
1
1
1
1
1
1
1
1
1
1
1
1
1
1
1
1
1
1
1
1
1
1
1
1
1
1
1
1
1
1
1
1
1
1
1
1
1
1
1
1
1
1
1
1
1
1
1
1
1
1
1
1
1
1
1
1
1
1
1
1
1
1
1
1
1
1
1
1
1
1
1
1
1
1
1
1
1
1
1
1
1
1
1
1
1
1
1
1
1
1
1
1
1
1
1
1
1
1
1
1
1
1
1
1
1
1
1
1
1
1
1
1
1
1
1
1
1
1
1
1
1
1
1
1
1
1
1
1
1
1
1
1
1
1
1
1
1
1
1
1
1
1
1
1
1
1
1
1
1
1
1
1
1
1
1
1
1
1
1
1
1
1
1
1
1
1
1
1
1
1
1
1
1
1
1
1
1
1
1
1
1
1
1
1
1
1
1
1
1
1
1
1
1
1
1
1
1
1
1
1
1
1
1
1
1
1
1
1
1
1
1
1
1
1
1
1
1
1
1
1
1
1
1
1
1
1
1
1
1
1
1
1
1
1
1
1
1
1
1
1
1
1
1
1
1
1
1
1
1
1
1
1
1
1
1
1
1
1
1
1
1
1
1
1
1
1
1
1
1
1
1
1
1
1
1
1
1
1
1
1
1
1
1
1
1
1
1
1
1
1
1
1
1
1
1
1
1
1
1
1
1
1
1
1
1
1
1
1
1
1
1
1
1
1
1
1
1
1
1
1
1
1
1
1
1
1
1
1
1
1
1
1
1
1
1
1
1
1
1
1
1
1
1
1
1
1
1
1
1
1
1
1
1
1
1
1
1
1
1
1
1
1
1
1
1
1
1
1
1
1
1
1
1
1
1
1
1
1
1
1
1
1
1
1
1
1
1
1
1
1
1
1
1
1
1
1
1
1
1
1
1
1
1
1
1
1
1
1
1
1
1
1
1
1
1
1
1
1
1
1
1
1
1
1
1
1
1
1
1
1
1
1
1
1
1
1
1
1
1
1
1
1
1
1
1
1
1
1
1
1
1
1
1
1
1
1
1
1
1
1
1
1
1
1
1
1
1
1
1
1
1
1
1
1
1
1
1
1
1
1
1
1
1
1
1
1
1
1
1
1
1
1
1
1
1
1
1
1
1
1
1
1
1
1
1
1
1
1
1
1
1
1
1
1
1
1
1
1
1
1
1
1
1
1
1
1
1
1
1
1
1
1
1
1
1
1
1
1
1
1
1
1
1
1
1
1
1
1
1
1
1
1
1
1
1
1
1
1
1
1
1
1
1
1
1
1
1
1
1
1
1
1
1
1
1
1
1
1
1
1
1
1
1
1
1
1
1
1
1
1
1
1
1
1
1
1
1
1
1
1
1
1
1
1
1
1
1
1
1
1
1
1
1
1
1
1
1
1
1
1
1
1
1
1
1
1
1
1
1
1
1
1
1
1
1
1
1
1
1
1
1
1
1
1
1
1
1
1
1
1
1
1
1
1
1
1
1
1
1
1
1
1
1
1
1
1
1
1
1
1
1
1
1
1
1
1
1
1
1
1
1
1
1
1
1
1
1
1
1
1
1
1
1
1
1
1
1
1
1
1
1
1
1
1
1
1
1
1
1
1
1
1
1
1
1
1
1
1
1
1
1
1
1
1
1
1
1
1
1
1
1
1
1
1
1
1
1
1
1
1
1
1
1
1
1
1
1
1
1
1
1
1
1
1
1
1
1
1
1
1
1
1
1
1
1
1
1
1
1
1
1
1
1
1
1
1
1
1
1
1
1
1
1
1
1
1
1
1
1
1
1
1
1
1
1
1
1
1
1
1
1
1
1
1
1
1
1
1
1
1
1
1
1
1
1
1
1
1
1
1
1
1
1
1
1
1
1
1
1
1
1
1
1
1
1
1
1
1
1
1
1
1
1
1
1
1
1
1
1
1
1
1
1
1
1
1
1
1
1
1
1
1
1
1
1
1
1
1
1
1
1
1
1
1
1
1
1
1
1
1
1
1
1
1
1
1
1
1
1
1
1
1
1
1
1
1
1
1
1
1
1
1
1
1
1
1
1
1
1
1
1
1
1
1
1
1
1
1
1
1
1
1
1
1
1
1
1
1
1
1
1
1
1
1
1
1
1
1
1
1
1
1
1
1
1
1
1
1
1
1
1
1
1
1
1
1
1
1
1
1
1
1
1
1
1
1
1
1
1
1
1
1
1
1
1
1
1
1
1
1
1
1
1
1
1
1
1
1
1
1
1
1
1
1
1
1
1
1
1
1
1
1
1
1
1
1
1
1
1
1
1
1
1
1
1
1
1
1
1
1
1
1
1
1
1
1
1
1
1
1
1
1
1
1
1
1
1
1
1
1
1
1
1
1
1
1
1
1
1
1
1
1
1
1
1
1
1
1
1
1
1
1
1
1
1
1
1
1
1
1
1
1
1
1
1
1
1
1
1
1
1
1
1
1
1
1
1
1
1
1
1
1
1
1
1
1
1
1
1
1
1
1
1
1
1
1
1
1
1
1
1
1
1
1
1
1
1
1
1
1
1
1
1
1
1
1
1
1
1
1
1
1
1
1
1
1
1
1
1
1
1
1
1
1
1
1
1
1
1
1
1
1
1
1
1
1
1
1
1
1
1
1
1
1
1
1
1
1
1
1
1
1
1
1
1
1
1
1
1
1
1
1
1
1
1
1
1
1
1
1
1
1
1
1
1
1
1
1
1
1
1
1
1
1
1
1
1
1
1
1
1
1
1
1
1
1
1
1
1
1
1
1
1
1
1
1
1
1
1
1
1
1
1
1
1
1
1
1
1
1
1
1
1
1
1
1
1
1
1
1
1
1
1
1
1
1
1
1
1
1
1
1
1
1
1
1
1
1
1
1
1
1
1
1
1
1
1
1
1
1
1
1
1
1
1
1
1
1
1
1
1
1
1
1
1
1
1
1
1
1
1
1
1
1
1
1
1
1
1
1
1
1
1
1
1
1
1
1
1
1
1
1
1
1
1
1
1
1
1
1
1
1
1
1
1
1
1
1
1
1
1
1
1
1
1
1
1
1
1
1
1
1
1
1
1
1
1
1
1
1
1
1
1
1
1
1
1
1
1
1
1
1
1
1
1
1
1
1
1
1
1
1
1
1
1
1
1
1
1
1
1
1
1
1
1
1
1
1
1
1
1
1
1
1
1
1
1
1
1
1
1
1
1
1
1
1
1
1
1
1
1
1
1
1
1
1
1
1
1
1
1
1
1
1
1
1
1
1
1
1
1
1
1
1
1
1
1
1
1
1
1
1
1
1
1
1
1
1
1
1
1
1
1
1
1
1
1
1
1
1
1
1
1
1
1
1
1
1
1
1
1
1
1
1
1
1
1
1
1
1
1
1
1
1
1
1
1
1
1
1
1
1
1
1
1
1
1
1
1
1
1
1
1
1
1
1
1
1
1
1
1
1
1
1
1
1
1
1
1
1
1
1
1
1
1
1
1
1
1
1
1
1
1
1
1
1
1
1
1
1
1
1
1
1
1
1
1
1
1
1
1
1
1
1
1
1
1
1
1
1
1
1
1
1
1
1
1
1
1
1
1
1
1
1
1
1
1
1
1
1
1
1
1
1
1
1
1
1
1
1
1
1
1
1
1
1
1
1
1
1
1
1
1
1
1
1
1
1
1
1
1
1
1
1
1
1
1
1
1
1
1
1
1
1
1
1
1
1
1
1
1
1
1
1
1
1
1
1
1
1
1
1
1
1
1
1
1
1
1
1
1
1
1
1
1
1
1
1
1
1
1
1
1
1
1
1
1
1
1
1
1
1
1
1
1
1
1
1
1
1
1
1
1
1
1
1
1
1
1
1
1
1
1
1
1
1
1
1
1
1
1
1
1
1
1
1
1
1
1
1
1
1
1
1
1
1
1
1
1
1
1
1
1
1
1
1
1
1
1
1
1
1
1
1
1
1
1
1
1
1
1
1
1
1
1
1
1
1
1
1
1
1
1
1
1
1
1
1
1
1
1
1
1
1
1
1
1
1
1
1
1
1
1
1
1
1
1
1
1
1
1
1
1
1
1
1
1
1
1
1
1
1
1
1
1
1
1
1
1
1
1
1
1
1
1
1
1
1
1
1
1
1
1
1
1
1
1
1
1
1
1
1
1
1
1
1
1
1
1
1
1
1
1
1
1
1
1
1
1
1
1
1
1
1
1
1
1
1
1
1
1
1
1
1
1
1
1
1
1
1
1
1
1
1
1
1
1
1
1
1
1
1
1
1
1
1
1
1
1
1
1
1
1
1
1
1
1
1
1
1
1
1
1
1
1
1
1
1
1
1
1
1
1
1
1
1
1
1
1
1
1
1
1
1
1
1
1
1
1
1
1
1
1
1
1
1
1
1
1
1
1
1
1
1
1
1
1
1
1
1
1
1
1
1
1
1
1
1
1
1
1
1
1
1
1
1
1
1
1
1
1
1
1
1
1
1
1
1
1
1
1
1
1
1
1
1
1
1
1
1
1
1
1
1
1
1
1
1
1
1
1
1
1
1
1
1
1
1
1
1
1
1
1
1
1
1
1
1
1
1
1
1
1
1
1
1
1
1
1
1
1
1
1
1
1
1
1
1
1
1
1
1
1
1
1
1
1
1
1
1
1
1
1
1
1
1
1
1
1
1
1
1
1
1
1
1
1
1
1
1
1
1
1
1
1
1
1
1
1
1
1
1
1
1
1
1
1
1
1
1
1
1
1
1
1
1
1
1
1
1
1
1
1
1
1
1
1
1
1
1
1
1
1
1
1
1
1
1
1
1
1
1
1
1
1
1
1
1
1
1
1
1
1
1
1
1
1
1
1
1
1
1
1
1
1
1
1
1
1
1
1
1
1
1
1
1
1
1
1
1
1
1
1
1
1
1
1
1
1
1
1
1
1
1
1
1
1
1
1
1
1
1
1
1
1
1
1
1
1
1
1
1
1
1
1
1
1
1
1
1
1
1
1
1
1
1
1
1
1
1
1
1
1
1
1
1
1
1
1
1
1
1
1
1
1
1
1
1
1
1
1
1
1
1
1
1
1
1
1
1
1
1
1
1
1
1
1
1
1
1
1
1
1
1
1
1
1
1
1
1
1
1
1
1
1
1
1
1
1
1
1
1
1
1
1
1
1
1
1
1
1
1
1
1
1
1
1
1
1
1
1
1
1
1
1
1
1
1
1
1
1
1
1
1
1
1
1
1
1
1
1
1
1
1
1
1
1
1
1
1
1
1
1
1
1
1
1
1
1
1
1
1
1
1
1
1
1
1
1
1
1
1
1
1
1
1
1
1
1
1
1
1
1
1
1
1
1
1
1
1
1
1
1
1
1
1
1
1
1
1
1
1
1
1
1
1
1
1
1
1
1
1
1
1
1
1
1
1
1
1
1
1
1
1
1
1
1
1
1
1
1
1
1
1
1
1
1
1
1
1
1
1
1
1
1
1
1
1
1
1
1
1
1
1
1
1
1
1
1
1
1
1
1
1
1
1
1
1
1
1
1
1
1
1
1
1
1
1
1
1
1
1
1
1
1
1
1
1
1
1
1
1
1
1
1
1
1
1
1
1
1
1
1
1
1
1
1
1
1
1
1
1
1
1
1
1
1
1
1
1
1
1
1
1
1
1
1
1
1
1
1
1
1
1
1
1
1
1
1
1
1
1
1
1
1
1
1
1
1
1
1
1
1
1
1
1
1
1
1
1
1
1
1
1
1
1
1
1
1
1
1
1
1
1
1
1
1
1
1
1
1
1
1
1
1
1
1
1
1
1
1.29209
1.73972
2.33296
2.93197
3.5043
4.19963
4.68072
5.07386
5.3341
5.25058
4.95825
4.49481
4.0607
3.75746
3.65985
3.58669
3.56481
3.59368
3.63179
3.66472
3.6908
3.71011
3.72731
3.74725
3.76048
3.76365
3.76366
3.76183
3.76247
3.76098
3.7569
3.75607
3.76018
3.77199
3.78785
3.79545
3.79529
3.79289
3.7868
3.77709
3.77043
3.76964
3.77002
3.77147
3.77371
3.77443
3.77447
3.77151
1.00225
1.01915
1.06337
1.2017
1.41808
1.75477
2.22695
2.75018
3.33535
3.70877
3.92456
4.04397
4.01715
3.94102
3.84707
3.78258
3.72137
3.70778
3.67423
3.66333
3.67323
3.69429
3.71647
3.74061
3.76139
3.76873
3.7727
3.77151
3.76711
3.76569
3.76571
3.76697
3.76974
3.77226
3.77546
3.77787
3.77708
3.77422
3.76994
3.76686
3.76651
3.76716
3.76869
3.77251
3.77743
3.77895
3.7788
3.77782
1
0.999988
0.999994
1.00006
1.00153
1.01249
1.06453
1.21897
1.61073
2.34162
3.33408
3.93057
4.28194
4.31584
4.2537
4.12786
3.9723
3.76469
3.6579
3.6438
3.65425
3.67257
3.69287
3.72027
3.74996
3.76618
3.77385
3.77863
3.77899
3.7806
3.78314
3.78474
3.78608
3.78565
3.78249
3.77766
3.77238
3.76689
3.76228
3.76013
3.76012
3.76078
3.76311
3.76889
3.77591
3.77876
3.77901
3.78126
1
1
1
1
0.999999
0.99998
1.00007
1.0001
1.00568
1.07394
1.40181
2.16064
3.07156
3.96715
4.04618
4.01375
3.99898
3.91491
3.80509
3.74092
3.71585
3.69305
3.67746
3.68463
3.70208
3.71832
3.73712
3.7516
3.76117
3.76779
3.77379
3.77852
3.78202
3.78278
3.78206
3.77939
3.77474
3.77038
3.76749
3.76599
3.76609
3.76747
3.77041
3.77492
3.77901
3.77898
3.77691
3.7772
1
1
1
1
1
0.999999
1
1
1
0.999934
1.00152
1.04928
1.28056
2.00538
2.8716
3.60802
4.05308
4.07597
4.01375
3.93036
3.83565
3.74786
3.7121
3.69435
3.68901
3.69903
3.71163
3.72304
3.73404
3.74285
3.74902
3.7528
3.75839
3.76769
3.77161
3.77194
3.77201
3.77134
3.77057
3.77039
3.77197
3.77536
3.78001
3.78403
3.78563
3.78406
3.78062
3.77881
1
1
1
1
1
1
1
1
1
0.999997
0.999998
0.999954
1.00073
1.02803
1.24391
1.77141
2.73041
3.35846
3.86788
3.93107
3.9238
3.85459
3.80397
3.77503
3.75165
3.72548
3.7086
3.70673
3.7124
3.73075
3.74826
3.75967
3.76885
3.7749
3.77602
3.77595
3.77603
3.77497
3.77298
3.772
3.77276
3.77544
3.77945
3.78113
3.77923
3.77578
3.77032
3.76766
1
1
1
1
1
1
1
1
1
1
1
0.999997
0.999998
0.999962
1.00071
1.01534
1.19379
1.68914
2.56701
3.24973
3.61527
3.83862
3.84322
3.83575
3.79401
3.75491
3.73977
3.72853
3.72371
3.72863
3.74405
3.76674
3.78392
3.78602
3.78338
3.78152
3.78026
3.77845
3.77418
3.77172
3.7703
3.77142
3.77526
3.77565
3.77323
3.76967
3.76483
3.7643
1
1
1
1
1
1
1
1
1
1
1
1
1
0.999997
0.999998
0.999975
1.00061
1.01495
1.13435
1.6314
2.33149
3.25731
3.53791
3.66863
3.70318
3.69749
3.71596
3.71327
3.70659
3.71241
3.7272
3.7444
3.75852
3.77106
3.77596
3.77523
3.77243
3.76907
3.76759
3.76697
3.76809
3.77417
3.77795
3.77834
3.77748
3.77566
3.77236
3.77194
1
1
1
1
1
1
1
1
1
1
1
1
1
1
1
0.999998
0.999998
0.999982
1.00026
1.01502
1.10829
1.53516
2.29782
3.0743
3.5883
3.66022
3.7179
3.71386
3.69947
3.70008
3.70532
3.71545
3.72464
3.73717
3.7485
3.75553
3.75932
3.76123
3.76393
3.76615
3.76942
3.77482
3.77781
3.77932
3.78016
3.77893
3.77558
3.77418
1
1
1
1
1
1
1
1
1
1
1
1
1
1
1
1
1
0.999999
0.999998
0.999985
1.00024
1.01051
1.12512
1.47663
2.25003
2.95295
3.52011
3.71136
3.72795
3.73787
3.74136
3.73688
3.73096
3.73126
3.73846
3.74606
3.75099
3.75612
3.76091
3.7658
3.77238
3.77511
3.77532
3.77671
3.77861
3.77713
3.77412
3.77233
1
1
1
1
1
1
1
1
1
1
1
1
1
1
1
1
1
1
1
0.999998
0.999998
0.999985
1.00047
1.00845
1.11844
1.48398
2.22517
2.92508
3.40635
3.65938
3.75046
3.76344
3.76153
3.75838
3.75236
3.75667
3.76585
3.77182
3.77864
3.78532
3.7893
3.78806
3.78421
3.7817
3.77914
3.77482
3.77088
3.76845
1
1
1
1
1
1
1
1
1
1
1
1
1
1
1
1
1
1
1
1
1
0.999998
0.999998
0.999988
1.00059
1.01084
1.10338
1.52576
2.22696
3.06332
3.38892
3.56409
3.69043
3.73374
3.73068
3.73872
3.75437
3.76546
3.77501
3.78157
3.78403
3.78426
3.78249
3.78166
3.78161
3.77959
3.77671
3.77532
1
1
1
1
1
1
1
1
1
1
1
1
1
1
1
1
1
1
1
1
1
1
1
0.999998
0.999999
0.999991
1.00049
1.01679
1.11484
1.57209
2.2997
3.15609
3.53454
3.60789
3.65543
3.68397
3.70848
3.72853
3.74393
3.75589
3.76503
3.77089
3.77256
3.77052
3.76983
3.76938
3.76987
3.77164
1
1
1
1
1
1
1
1
1
1
1
1
1
1
1
1
1
1
1
1
1
1
1
1
1
0.999999
0.999999
1
1.00067
1.02192
1.15827
1.651
2.46567
3.20313
3.63671
3.7111
3.73507
3.74894
3.74799
3.75114
3.75783
3.76157
3.76025
3.75963
3.76013
3.7606
3.76312
3.76692
1
1
1
1
1
1
1
1
1
1
1
1
1
1
1
1
1
1
1
1
1
1
1
1
1
1
1
1
0.999998
1.00003
1.00149
1.02905
1.24465
1.81111
2.66697
3.30501
3.65155
3.77392
3.78375
3.78679
3.78451
3.78206
3.77783
3.77352
3.77458
3.77516
3.77651
3.77787
1
1
1
1
1
1
1
1
1
1
1
1
1
1
1
1
1
1
1
1
1
1
1
1
1
1
1
1
1
1
0.999997
1.00007
1.00406
1.04978
1.37551
2.0904
2.97896
3.38942
3.6003
3.74607
3.76156
3.7593
3.76643
3.77584
3.78074
3.78516
3.7871
3.78747
1
1
1
1
1
1
1
1
1
1
1
1
1
1
1
1
1
1
1
1
1
1
1
1
1
1
1
1
1
1
1
1
0.999996
1.00025
1.01175
1.10263
1.58072
2.40353
3.33558
3.58894
3.65978
3.68588
3.70723
3.73286
3.75248
3.76501
3.77327
3.77819
1
1
1
1
1
1
1
1
1
1
1
1
1
1
1
1
1
1
1
1
1
1
1
1
1
1
1
1
1
1
1
1
0.999999
0.999999
1.00001
1.00098
1.03187
1.22297
1.93034
2.82698
3.49629
3.71005
3.73732
3.75875
3.76035
3.76086
3.76567
3.77442
1
1
1
1
1
1
1
1
1
1
1
1
1
1
1
1
1
1
1
1
1
1
1
1
1
1
1
1
1
1
1
1
1
1
1
0.999998
1.00015
1.00454
1.09048
1.47942
2.38933
3.17615
3.63536
3.7889
3.79691
3.79873
3.79637
3.79535
1
1
1
1
1
1
1
1
1
1
1
1
1
1
1
1
1
1
1
1
1
1
1
1
1
1
1
1
1
1
1
1
1
1
1
1
0.999999
1
1.00112
1.02052
1.25277
1.95859
2.99412
3.4378
3.6069
3.7381
3.76604
3.76907
1
1
1
1
1
1
1
1
1
1
1
1
1
1
1
1
1
1
1
1
1
1
1
1
1
1
1
1
1
1
1
1
1
1
1
1
1
1
0.999999
1.00009
1.00813
1.09595
1.60881
2.56503
3.45515
3.65848
3.69945
3.71246
1
1
1
1
1
1
1
1
1
1
1
1
1
1
1
1
1
1
1
1
1
1
1
1
1
1
1
1
1
1
1
1
1
1
1
1
1
1
1
1
1.00002
1.00137
1.04361
1.33804
2.24551
3.18631
3.69398
3.77788
1
1
1
1
1
1
1
1
1
1
1
1
1
1
1
1
1
1
1
1
1
1
1
1
1
1
1
1
1
1
1
1
1
1
1
1
1
1
1
1
1
1
1.00044
1.01415
1.21397
1.92583
2.89866
3.44729
1
1
1
1
1
1
1
1
1
1
1
1
1
1
1
1
1
1
1
1
1
1
1
1
1
1
1
1
1
1
1
1
1
1
1
1
1
1
1
1
1
1
0.999999
1.00009
1.0069
1.09633
1.69291
2.64953
1
1
1
1
1
1
1
1
1
1
1
1
1
1
1
1
1
1
1
1
1
1
1
1
1
1
1
1
1
1
1
1
1
1
1
1
1
1
1
1
1
1
1
1
1.00002
1.00188
1.07438
1.41946
1
1
1
1
1
1
1
1
1
1
1
1
1
1
1
1
1
1
1
1
1
1
1
1
1
1
1
1
1
1
1
1
1
1
1
1
1
1
1
1
1
1
1
1
1
1
1.0017
1.01744
1
1
1
1
1
1
1
1
1
1
1
1
1
1
1
1
1
1
1
1
1
1
1
1
1
1
1
1
1
1
1
1
1
1
1
1
1
1
1
1
1
1
1
1
1
1
1.00002
0.999848
1
1
1
1
1
1
1
1
1
1
1
1
1
1
1
1
1
1
1
1
1
1
1
1
1
1
1
1
1
1
1
1
1
1
1
1
1
1
1
1
1
1
1
1
1
1
1
0.999942
1
1
1
1
1
1
1
1
1
1
1
1
1
1
1
1
1
1
1
1
1
1
1
1
1
1
1
1
1
1
1
1
1
1
1
1
1
1
1
1
1
1
1
1
1
1
1
0.999991
1
1
1
1
1
1
1
1
1
1
1
1
1
1
1
1
1
1
1
1
1
1
1
1
1
1
1
1
1
1
1
1
1
1
1
1
1
1
1
1
1
1
1
1
1
1
1
1
1
1
1
1
1
1
1
1
1
1
1
1
1
1
1
1
1
1
1
1
1
1
1
1
1
1
1
1
1
1
1
1
1
1
1
1
1
1
1
1
1
1
1
1
1
1
1
1
1
1
1
1
1
1
1
1
1
1
1
1
1
1
1
1
1
1
1
1
1
1
1
1
1
1
1
1
1
1
1
1
1
1
1
1
1
1
1
1
1
1
1
1
1
1
1
1
1
1
1
1
1
1
1
1
1
1
1
1
1
1
1
1
1
1
1
1
1
1
1
1
1
1
1
1
1
1
1
1
1
1
1
1
1
1
1
1
1
1
1
1
1
1
1
1
1
1
1
1
1
1
1
1
1
1
1
1
1
1
1
1
1
1
1
1
1
1
1
1
1
1
1
1
1
1
1
1
1
1
1
1
1
1
1
1
1
1
1
1
1
1
1
1
1
1
1
1
1
1
1
1
1
1
1
1
1
1
1
1
1
1
1
1
1
1
1
1
1
1
1
1
1
1
1
1
1
1
1
1
1
1
1
1
1
1
1
1
1
1
1
1
1
1
1
1
1
1
1
1
1
1
1
1
1
1
1
1
1
1
1
1
1
1
1
1
1
1
1
1
1
1
1
1
1
1
1
1
1
1
1
1
1
1
1
1
1
1
1
0.999991
1
1
1
1
1
1
1
1
1
1
1
1
1
1
1
1
1
1
1
1
1
1
1
1
1
1
1
1
1
1
1
1
1
1
1
1
1
1
1
1
1
1
1
1
1
1
1
0.999946
1
1
1
1
1
1
1
1
1
1
1
1
1
1
1
1
1
1
1
1
1
1
1
1
1
1
1
1
1
1
1
1
1
1
1
1
1
1
1
1
1
1
1
1
1
1
1.00001
0.999857
1
1
1
1
1
1
1
1
1
1
1
1
1
1
1
1
1
1
1
1
1
1
1
1
1
1
1
1
1
1
1
1
1
1
1
1
1
1
1
1
1
1
1
1
1
1
1.00167
1.01777
1
1
1
1
1
1
1
1
1
1
1
1
1
1
1
1
1
1
1
1
1
1
1
1
1
1
1
1
1
1
1
1
1
1
1
1
1
1
1
1
1
1
1
1
1.00002
1.00188
1.07434
1.4175
1
1
1
1
1
1
1
1
1
1
1
1
1
1
1
1
1
1
1
1
1
1
1
1
1
1
1
1
1
1
1
1
1
1
1
1
1
1
1
1
1
1
0.999999
1.00009
1.00689
1.09644
1.69256
2.64789
1
1
1
1
1
1
1
1
1
1
1
1
1
1
1
1
1
1
1
1
1
1
1
1
1
1
1
1
1
1
1
1
1
1
1
1
1
1
1
1
1
1
1.00044
1.01415
1.21393
1.92605
2.89759
3.44832
1
1
1
1
1
1
1
1
1
1
1
1
1
1
1
1
1
1
1
1
1
1
1
1
1
1
1
1
1
1
1
1
1
1
1
1
1
1
1
1
1.00002
1.00137
1.04361
1.33797
2.24556
3.18629
3.6937
3.77809
1
1
1
1
1
1
1
1
1
1
1
1
1
1
1
1
1
1
1
1
1
1
1
1
1
1
1
1
1
1
1
1
1
1
1
1
1
1
0.999999
1.00009
1.00813
1.09597
1.60882
2.5649
3.45513
3.65873
3.69952
3.71238
1
1
1
1
1
1
1
1
1
1
1
1
1
1
1
1
1
1
1
1
1
1
1
1
1
1
1
1
1
1
1
1
1
1
1
1
0.999999
1
1.00112
1.02051
1.25277
1.95868
2.99409
3.43773
3.60689
3.7383
3.76613
3.76898
1
1
1
1
1
1
1
1
1
1
1
1
1
1
1
1
1
1
1
1
1
1
1
1
1
1
1
1
1
1
1
1
1
1
1
0.999998
1.00015
1.00454
1.09049
1.47939
2.38935
3.1762
3.63533
3.78888
3.79693
3.79878
3.79643
3.79533
1
1
1
1
1
1
1
1
1
1
1
1
1
1
1
1
1
1
1
1
1
1
1
1
1
1
1
1
1
1
1
1
0.999999
0.999999
1.00001
1.00098
1.03186
1.22298
1.93034
2.82697
3.49631
3.71002
3.73729
3.75874
3.76034
3.76087
3.76569
3.77444
1
1
1
1
1
1
1
1
1
1
1
1
1
1
1
1
1
1
1
1
1
1
1
1
1
1
1
1
1
1
1
1
0.999996
1.00025
1.01175
1.10263
1.58072
2.40354
3.33556
3.58897
3.65978
3.68586
3.70721
3.73287
3.75249
3.76502
3.77329
3.7782
1
1
1
1
1
1
1
1
1
1
1
1
1
1
1
1
1
1
1
1
1
1
1
1
1
1
1
1
1
1
0.999997
1.00007
1.00406
1.04978
1.37551
2.0904
2.97897
3.38942
3.60027
3.74608
3.76157
3.75929
3.76642
3.77584
3.78075
3.78517
3.78711
3.78748
1
1
1
1
1
1
1
1
1
1
1
1
1
1
1
1
1
1
1
1
1
1
1
1
1
1
1
1
0.999998
1.00003
1.00149
1.02905
1.24465
1.81111
2.66697
3.30501
3.65155
3.77392
3.78375
3.78679
3.78451
3.78206
3.77782
3.77353
3.77459
3.77516
3.77651
3.77787
1
1
1
1
1
1
1
1
1
1
1
1
1
1
1
1
1
1
1
1
1
1
1
1
1
0.999999
0.999999
1
1.00067
1.02192
1.15827
1.651
2.46567
3.20313
3.63671
3.71109
3.73507
3.74894
3.74799
3.75114
3.75783
3.76157
3.76025
3.75963
3.76013
3.76061
3.76312
3.76692
1
1
1
1
1
1
1
1
1
1
1
1
1
1
1
1
1
1
1
1
1
1
1
0.999998
0.999999
0.999991
1.00049
1.01679
1.11484
1.57209
2.2997
3.15609
3.53454
3.60789
3.65543
3.68397
3.70848
3.72853
3.74393
3.75589
3.76503
3.77089
3.77256
3.77052
3.76983
3.76938
3.76987
3.77164
1
1
1
1
1
1
1
1
1
1
1
1
1
1
1
1
1
1
1
1
1
0.999998
0.999998
0.999988
1.00059
1.01084
1.10338
1.52576
2.22696
3.06332
3.38892
3.56408
3.69043
3.73374
3.73068
3.73872
3.75437
3.76546
3.77501
3.78157
3.78404
3.78426
3.78249
3.78166
3.78161
3.77959
3.77671
3.77532
1
1
1
1
1
1
1
1
1
1
1
1
1
1
1
1
1
1
1
0.999998
0.999998
0.999985
1.00047
1.00845
1.11844
1.48398
2.22517
2.92508
3.40635
3.65938
3.75046
3.76344
3.76153
3.75838
3.75236
3.75667
3.76585
3.77182
3.77864
3.78532
3.7893
3.78806
3.78422
3.7817
3.77914
3.77482
3.77088
3.76845
1
1
1
1
1
1
1
1
1
1
1
1
1
1
1
1
1
0.999999
0.999998
0.999985
1.00024
1.01051
1.12512
1.47663
2.25003
2.95295
3.52011
3.71136
3.72795
3.73787
3.74136
3.73688
3.73096
3.73126
3.73846
3.74606
3.75099
3.75612
3.76091
3.7658
3.77238
3.77511
3.77532
3.7767
3.77861
3.77713
3.77412
3.77233
1
1
1
1
1
1
1
1
1
1
1
1
1
1
1
0.999998
0.999998
0.999982
1.00026
1.01502
1.10829
1.53516
2.29782
3.0743
3.5883
3.66022
3.7179
3.71386
3.69947
3.70008
3.70532
3.71545
3.72464
3.73717
3.7485
3.75553
3.75932
3.76123
3.76393
3.76615
3.76942
3.77482
3.77781
3.77932
3.78016
3.77893
3.77558
3.77418
1
1
1
1
1
1
1
1
1
1
1
1
1
0.999997
0.999998
0.999975
1.00061
1.01495
1.13435
1.6314
2.33149
3.25731
3.53791
3.66864
3.70318
3.69749
3.71596
3.71327
3.70659
3.71241
3.7272
3.7444
3.75852
3.77106
3.77596
3.77523
3.77243
3.76907
3.76759
3.76697
3.76809
3.77417
3.77795
3.77834
3.77748
3.77566
3.77236
3.77194
1
1
1
1
1
1
1
1
1
1
1
0.999997
0.999998
0.999962
1.00071
1.01534
1.19379
1.68914
2.56701
3.24973
3.61527
3.83862
3.84322
3.83575
3.79401
3.75491
3.73977
3.72853
3.72371
3.72863
3.74405
3.76674
3.78392
3.78602
3.78338
3.78152
3.78026
3.77845
3.77419
3.77172
3.7703
3.77142
3.77526
3.77565
3.77323
3.76967
3.76483
3.7643
1
1
1
1
1
1
1
1
1
0.999997
0.999998
0.999954
1.00073
1.02803
1.24391
1.77141
2.73041
3.35846
3.86787
3.93107
3.9238
3.85459
3.80397
3.77503
3.75165
3.72548
3.7086
3.70673
3.7124
3.73075
3.74826
3.75967
3.76885
3.7749
3.77602
3.77594
3.77603
3.77497
3.77298
3.772
3.77276
3.77544
3.77945
3.78113
3.77923
3.77578
3.77032
3.76766
1
1
1
1
1
0.999999
1
1
1
0.999934
1.00152
1.04928
1.28056
2.00538
2.8716
3.60802
4.05308
4.07597
4.01375
3.93036
3.83565
3.74786
3.7121
3.69435
3.68901
3.69903
3.71163
3.72304
3.73404
3.74285
3.74902
3.7528
3.75839
3.76769
3.77161
3.77194
3.77201
3.77134
3.77057
3.77039
3.77197
3.77536
3.78001
3.78403
3.78563
3.78406
3.78062
3.77881
1
1
1
1
0.999999
0.99998
1.00007
1.0001
1.00568
1.07394
1.40181
2.16064
3.07156
3.96715
4.04618
4.01375
3.99898
3.91491
3.80509
3.74092
3.71585
3.69305
3.67746
3.68463
3.70208
3.71832
3.73712
3.7516
3.76117
3.76779
3.77379
3.77852
3.78202
3.78278
3.78206
3.77939
3.77474
3.77038
3.76749
3.76599
3.76609
3.76747
3.77041
3.77492
3.77901
3.77898
3.77691
3.7772
1
0.999988
0.999994
1.00006
1.00153
1.01249
1.06453
1.21897
1.61073
2.34162
3.33408
3.93057
4.28194
4.31584
4.2537
4.12786
3.9723
3.76469
3.6579
3.6438
3.65425
3.67257
3.69287
3.72027
3.74996
3.76618
3.77385
3.77863
3.77899
3.7806
3.78314
3.78474
3.78608
3.78565
3.7825
3.77766
3.77238
3.76689
3.76228
3.76013
3.76012
3.76078
3.76311
3.76889
3.77591
3.77876
3.77901
3.78126
1.00225
1.01915
1.06337
1.20169
1.41808
1.75477
2.22695
2.75018
3.33535
3.70877
3.92456
4.04397
4.01715
3.94102
3.84707
3.78258
3.72137
3.70778
3.67423
3.66333
3.67323
3.69429
3.71647
3.74061
3.76139
3.76873
3.7727
3.77151
3.76711
3.76569
3.76571
3.76697
3.76974
3.77226
3.77546
3.77787
3.77708
3.77422
3.76994
3.76686
3.76651
3.76716
3.76869
3.77251
3.77743
3.77895
3.7788
3.77782
1.29209
1.73972
2.33296
2.93197
3.5043
4.19963
4.68072
5.07386
5.3341
5.25058
4.95825
4.49481
4.0607
3.75746
3.65985
3.58669
3.56481
3.59368
3.63179
3.66472
3.6908
3.71011
3.72731
3.74725
3.76048
3.76365
3.76366
3.76183
3.76247
3.76098
3.7569
3.75607
3.76018
3.77199
3.78785
3.79545
3.79529
3.79289
3.7868
3.77709
3.77043
3.76964
3.77002
3.77147
3.77371
3.77443
3.77447
3.77151
2.66512
1.71265
1.0493
0.845629
0.757432
0.664804
0.661126
0.719545
0.793369
0.833592
0.874475
0.954277
1.02277
1.03314
1.03205
1.04695
1.05968
1.05835
1.06081
1.0665
1.06637
1.06301
1.0627
1.06637
1.06642
1.05525
1.04351
1.04318
1.04453
1.04484
1.04353
1.04209
1.04085
1.03835
1.03695
1.03722
1.03896
1.04439
1.05005
1.0511
1.05131
1.05097
1.0485
1.04611
1.04638
1.04687
1.0475
1.04944
1.06007
1.23384
1.85899
3.23458
5.27562
7.872
10.3772
10.1976
9.27395
8.19741
7.92307
7.9399
7.82042
7.63204
7.44068
7.22586
7.02203
6.89817
6.79332
6.68959
6.57285
6.38514
6.12257
5.93154
5.84049
5.78208
5.75109
5.68837
5.60143
5.44604
5.17062
4.94078
4.8588
4.81465
4.81241
4.85203
4.81827
4.75872
4.64622
4.41753
4.2221
4.15668
4.11964
4.09216
4.05704
4.01168
3.95341
3.84506
3.70103
3.6297
3.59441
3.56077
3.52645
3.48845
3.43584
3.34564
3.24094
3.1925
3.16668
3.14177
3.11564
3.08553
3.04285
2.97111
2.87596
2.80548
2.76575
2.73516
2.70737
2.68168
2.65724
2.63164
2.60436
2.57842
2.52744
2.44306
2.37716
2.34259
2.31984
2.30342
2.28934
2.27357
2.25304
2.22072
2.17751
2.1442
2.12257
2.10147
2.07249
2.02625
1.96528
1.92641
1.91221
1.90219
1.89509
1.89502
1.92072
2.03804
2.37781
2.97551
3.70062
4.35288
4.96425
5.51073
5.64907
5.61474
5.50994
5.34015
5.20832
5.09936
4.98586
4.91772
4.88526
4.86517
4.84736
4.81893
4.76759
4.67341
4.56218
4.51601
4.49136
4.47075
4.46247
4.45254
4.42944
4.40481
4.36602
4.27286
4.16759
4.13197
4.11188
4.09421
4.08392
4.06665
4.04298
4.01514
3.96441
3.87034
3.80576
3.78595
3.77107
3.75916
3.74793
3.71113
3.36524
2.79081
2.17979
1.68952
1.48981
1.28866
1.09642
1.05687
1.00994
0.946422
0.916412
0.928246
0.945322
0.949916
0.956236
0.977321
0.998749
1.00554
1.0135
1.02946
1.04536
1.04992
1.05405
1.05799
1.0574
1.05033
1.04527
1.04569
1.04727
1.04861
1.04798
1.04732
1.04675
1.04449
1.0434
1.04311
1.04402
1.04757
1.04958
1.04978
1.04989
1.04936
1.0472
1.04566
1.04496
1.04407
1.04551
1.0594
1.22395
1.94567
2.7708
3.16467
3.91372
4.82902
6.70418
8.10448
8.62747
8.3975
8.16199
8.00352
7.80051
7.63548
7.47469
7.28056
7.05765
6.84595
6.7393
6.64515
6.52407
6.37378
6.18698
6.01295
5.87171
5.77999
5.71583
5.65195
5.56393
5.43188
5.23624
5.03894
4.91712
4.85566
4.81643
4.79271
4.76583
4.70533
4.60836
4.45075
4.28223
4.18215
4.12584
4.08767
4.0689
4.03578
3.97597
3.87437
3.74285
3.66916
3.63025
3.5953
3.55917
3.51911
3.46715
3.38915
3.29347
3.23073
3.19753
3.16932
3.14012
3.10733
3.06179
2.98685
2.88703
2.81124
2.77015
2.74247
2.71826
2.69243
2.66587
2.64558
2.62329
2.57142
2.5082
2.44807
2.39548
2.36374
2.34348
2.32682
2.31273
2.29622
2.27458
2.24402
2.20364
2.16628
2.13955
2.1163
2.08472
2.03574
1.97923
1.93988
1.92177
1.91581
1.91761
1.95989
2.11454
2.44071
2.85698
3.13002
3.40937
3.82467
4.22562
4.6305
4.94987
5.22165
5.34626
5.31519
5.23934
5.13168
5.01738
4.93819
4.91574
4.8939
4.86577
4.82761
4.77119
4.68469
4.58149
4.53237
4.51175
4.49178
4.47948
4.46673
4.44142
4.41386
4.37312
4.28745
4.18635
4.15049
4.13227
4.11358
4.09991
4.08054
4.05568
4.02537
3.97397
3.89005
3.82791
3.80712
3.79137
3.77591
3.76122
3.72453
3.66651
3.3374
2.87789
2.35655
1.97666
1.68628
1.38782
1.23139
1.14573
1.0297
0.947067
0.947278
0.948873
0.933444
0.934773
0.944061
0.952684
0.961898
0.974765
1.00262
1.03212
1.0384
1.04096
1.04623
1.04801
1.04525
1.04556
1.04838
1.05286
1.05612
1.05592
1.05416
1.04967
1.04499
1.04404
1.044
1.0457
1.04815
1.04831
1.04829
1.04776
1.04576
1.04498
1.04498
1.04477
1.04819
1.07766
1.25998
2.11222
2.97211
3.28193
3.34458
3.42428
3.54874
4.15163
5.9378
7.98006
8.65
8.38586
7.91022
7.67389
7.62474
7.50741
7.3344
7.13374
6.90569
6.69809
6.55412
6.40931
6.28291
6.19892
6.09807
5.95476
5.80654
5.68076
5.5806
5.47494
5.35057
5.23075
5.1413
5.0441
4.92208
4.82563
4.7625
4.69391
4.60925
4.50911
4.40858
4.32708
4.24823
4.16546
4.09386
4.03815
3.98762
3.92681
3.844
3.75441
3.66507
3.59508
3.55215
3.51622
3.47805
3.43156
3.36717
3.28453
3.21148
3.16518
3.13159
3.09798
3.05873
3.00747
2.94286
2.87369
2.82051
2.78216
2.74805
2.71935
2.70019
2.68829
2.66353
2.60881
2.52688
2.46205
2.42802
2.41072
2.39131
2.35933
2.31086
2.27705
2.26192
2.24446
2.22052
2.18872
2.15524
2.12043
2.08636
2.05255
2.01203
1.98058
1.96079
1.9476
1.95596
2.01941
2.28075
2.65583
3.01394
3.24565
3.28063
3.30217
3.36949
3.5448
3.89698
4.41022
4.93262
5.18276
5.2824
5.2652
5.19016
5.07722
4.98947
4.94358
4.8884
4.82613
4.7817
4.73833
4.68072
4.61228
4.54323
4.48994
4.46117
4.44142
4.4312
4.41101
4.38389
4.34841
4.28987
4.21085
4.14882
4.11569
4.0926
4.07225
4.05152
4.02748
3.99811
3.95202
3.90073
3.85475
3.80533
3.77137
3.75098
3.73307
3.6971
3.75412
3.61924
3.32999
2.90295
2.48435
2.14601
1.80795
1.57532
1.44723
1.29048
1.13521
1.10768
1.06217
0.984731
0.968709
0.968096
0.953321
0.940976
0.945138
0.961844
0.981291
0.99289
1.00081
1.01478
1.02834
1.03283
1.03813
1.04706
1.05183
1.05291
1.05329
1.05207
1.04897
1.0475
1.04776
1.05063
1.05577
1.05683
1.05591
1.05385
1.04976
1.04407
1.04261
1.04297
1.04847
1.11844
1.42649
2.14337
3.23311
3.45039
3.39922
3.38755
3.38686
3.36676
3.36075
3.69211
5.08836
7.34912
7.81179
7.71865
7.64112
7.65505
7.57551
7.39222
7.21573
6.99511
6.69051
6.46731
6.34523
6.25428
6.17144
6.09201
6.0091
5.86441
5.65238
5.48256
5.38858
5.32821
5.28431
5.23182
5.14333
5.01791
4.84939
4.69246
4.58616
4.50971
4.45817
4.41807
4.37978
4.3213
4.23461
4.12462
4.0191
3.94778
3.89741
3.85094
3.78674
3.69487
3.60232
3.54239
3.50253
3.46454
3.42185
3.36711
3.29438
3.22236
3.17629
3.13668
3.08947
3.02947
2.96587
2.91825
2.88907
2.85951
2.82322
2.78904
2.76113
2.72951
2.68405
2.62972
2.56617
2.50659
2.46285
2.43854
2.41813
2.39594
2.36644
2.322
2.27197
2.2468
2.2327
2.21575
2.19413
2.16624
2.12728
2.0768
2.03486
2.00997
1.99884
1.9971
2.0224
2.13354
2.4465
2.92181
3.20126
3.31677
3.35156
3.33393
3.31118
3.29619
3.29948
3.36496
3.60225
4.06304
4.55058
4.92535
5.11442
5.12906
5.11811
5.0788
5.00716
4.90053
4.80876
4.76735
4.74146
4.69925
4.63416
4.5596
4.4988
4.45579
4.43131
4.41482
4.39507
4.36783
4.33779
4.29991
4.23646
4.16834
4.12316
4.09123
4.06765
4.04447
4.01401
3.97798
3.94944
3.92287
3.88192
3.82533
3.77855
3.75022
3.72678
3.68412
3.76659
3.73288
3.59927
3.30339
2.93042
2.59558
2.21572
1.93463
1.76011
1.56587
1.36064
1.26775
1.1873
1.0725
1.00802
0.999364
0.973362
0.946851
0.949487
0.962244
0.963858
0.96324
0.965222
0.974474
0.992115
1.00892
1.02235
1.03742
1.04369
1.04651
1.04829
1.04724
1.04331
1.04337
1.04878
1.05723
1.06043
1.06033
1.05907
1.05574
1.04986
1.04403
1.04339
1.04703
1.13356
1.67343
2.4365
3.20099
3.53393
3.54234
3.4549
3.37867
3.35038
3.35069
3.29483
3.25347
3.38902
4.36748
6.27672
7.32636
7.58493
7.55942
7.45225
7.32625
7.20468
7.03505
6.72855
6.43649
6.31796
6.23785
6.17227
6.08675
5.98549
5.84696
5.6163
5.4247
5.35643
5.30673
5.26739
5.21424
5.15228
5.06072
4.87466
4.63494
4.5223
4.47456
4.43683
4.40038
4.35373
4.30975
4.25908
4.15794
4.01712
3.92406
3.8632
3.80648
3.75028
3.68639
3.60493
3.53722
3.49649
3.45989
3.41981
3.3718
3.3103
3.234
3.15747
3.09727
3.04581
2.99703
2.95472
2.91831
2.87923
2.83872
2.80221
2.77122
2.74497
2.71311
2.65582
2.57742
2.52665
2.50646
2.49136
2.47139
2.44901
2.42592
2.39974
2.35773
2.29365
2.23675
2.20871
2.19056
2.17163
2.15014
2.12021
2.07583
2.03353
2.02397
2.0279
2.08026
2.28788
2.63951
3.13516
3.30914
3.36941
3.40211
3.40981
3.39384
3.37136
3.33148
3.29622
3.24007
3.24087
3.35785
3.71792
4.21912
4.73735
5.05396
5.11523
5.08457
4.99297
4.90048
4.81627
4.76813
4.73013
4.67668
4.62311
4.58208
4.53775
4.47736
4.4106
4.38523
4.36839
4.34763
4.32151
4.28654
4.2461
4.2059
4.16116
4.10571
4.04736
4.01055
3.98248
3.95782
3.93452
3.90962
3.88149
3.84582
3.7943
3.73737
3.70718
3.66882
3.76598
3.74971
3.70833
3.55548
3.27671
2.98127
2.63617
2.30415
2.07743
1.86301
1.64562
1.51271
1.40659
1.26263
1.16784
1.13612
1.0907
1.02421
1.01621
1.00848
0.986017
0.966043
0.963204
0.962813
0.965307
0.973297
0.991567
1.01265
1.02116
1.02635
1.03281
1.03594
1.03556
1.03781
1.04878
1.05803
1.05922
1.05951
1.05903
1.05516
1.04783
1.04688
1.05238
1.13116
1.74717
2.74631
3.25421
3.54376
3.57312
3.51944
3.46917
3.37853
3.29634
3.27453
3.26241
3.21539
3.16498
3.22268
3.7733
5.27211
6.66885
7.10693
7.2765
7.3199
7.20954
7.01606
6.74279
6.45755
6.30948
6.22695
6.15681
6.07223
5.97227
5.84512
5.63677
5.41625
5.32303
5.27032
5.23867
5.20485
5.13829
5.04869
4.88663
4.64787
4.50152
4.45092
4.41292
4.39084
4.36068
4.31856
4.25874
4.15203
3.9992
3.89178
3.83365
3.78482
3.7379
3.68673
3.62227
3.53968
3.47346
3.4377
3.41008
3.38345
3.34152
3.25509
3.13144
3.05162
3.01112
2.97936
2.95
2.92054
2.88695
2.84771
2.81051
2.78545
2.74627
2.67864
2.60315
2.5539
2.52466
2.50057
2.47728
2.45537
2.43316
2.40792
2.37855
2.33881
2.28315
2.22754
2.18907
2.16835
2.15615
2.14097
2.11974
2.08284
2.04779
2.06075
2.1713
2.50391
2.90233
3.26497
3.48253
3.46868
3.45876
3.45734
3.43867
3.40516
3.37521
3.34477
3.2997
3.24525
3.182
3.16857
3.22315
3.44942
3.91015
4.49605
4.83183
4.95589
4.95906
4.94464
4.86967
4.78652
4.72622
4.66934
4.63099
4.6039
4.56706
4.50756
4.42665
4.36443
4.33879
4.31675
4.30196
4.28702
4.26698
4.2383
4.19423
4.1305
4.05643
3.99432
3.96581
3.94518
3.92642
3.90948
3.89095
3.8634
3.81125
3.73226
3.68579
3.65518
3.76375
3.75579
3.73144
3.6713
3.5218
3.2887
2.96545
2.66864
2.41553
2.15833
1.9291
1.76904
1.63017
1.47813
1.36552
1.2952
1.21999
1.11565
1.08033
1.05348
1.00998
0.9761
0.975184
0.972157
0.968443
0.972478