/*--------------------------------*- C++ -*----------------------------------*\
  =========                 |
  \\      /  F ield         | OpenFOAM: The Open Source CFD Toolbox
   \\    /   O peration     | Website:  https://openfoam.org
    \\  /    A nd           | Version:  7
     \\/     M anipulation  |
\*---------------------------------------------------------------------------*/
FoamFile
{
    version     2.0;
    format      ascii;
    class       volScalarField;
    location    "3.1";
    object      T;
}
// * * * * * * * * * * * * * * * * * * * * * * * * * * * * * * * * * * * * * //

dimensions      [0 0 0 1 0 0 0];

internalField   nonuniform List<scalar> 
18432
(
1
1
1
1
1
1
1
1
1
1
1
1
1
1
1
1
1
1
1
1
1
1
1
1
1
1
1
1
1
1
1
1
1
1
1
1
1
1
1
1
1
1
1
1
1
1
1
1
1
1
1
1
1
1
1
1
1
1
1
1
1
1
1
1
1
1
1
1
1
1
1
1
1
1
1
1
1
1
1
1
1
1
1
1
1
1
1
1
1
1
1
1
1
1
1
1
1
1
1
1
1
1
1
1
1
1
1
1
1
1
1
1
1
1
1
1
1
1
1
1
1
1
1
1
1
1
1
1
1
1
1
1
1
1
1
1
1
1
1
1
1
1
1
1
1
1
1
1
1
1
1
1
1
1
1
1
1
1
1
1
1
1
1
1
1
1
1
1
1
1
1
1
1
1
1
1
1
1
1
1
1
1
1
1
1
1
1
1
1
1
1
1
1
1
1
1
1
1
1
1
1
1
1
1
1
1
1
1
1
1
1
1
1
1
1
1
1
1
1
1
1
1
1
1
1
1
1
1
1
1
1
1
1
1
1
1
1
1
1
1
1
1
1
1
1
1
1
1
1
1
1
1
1
1
1
1
1
1
1
1
1
1
1
1
1
1
1
1
1
1
1
1
1
1
1
1
1
1
1
1
1
1
1
1
1
1
1
1
1
1
1
1
1
1
1
1
1
1
1
1
1
1
1
1
1
1
1
1
1
1
1
1
1
1
1
1
1
1
1
1
1
1
1
1
1
1
1
1
1
1
1
1
1
1
1
1
1
1
1
1
1
1
1
1
1
1
1
1
1
1
1
1
1
1
1
1
1
1
1
1
1
1
1
1
1
1
1
1
1
1
1
1
1
1
1
1
1
1
1
1
1
1
1
1
1
1
1
1
1
1
1
1
1
1
1
1
1
1
1
1
1
1
1
1
1
1
1
1
1
1
1
1
1
1
1
1
1
1
1
1
1
1
1
1
1
1
1
1
1
1
1
1
1
1
1
1
1
1
1
1
1
1
1
1
1
1
1
1
1
1
1
1
1
1
1
1
1
1
1
1
1
1
1
1
1
1
1
1
1
1
1
1
1
1
1
1
1
1
1
1
1
1
1
1
1
1
1
1
1
1
1
1
1
1
1
1
1
1
1
1
1
1
1
1
1
1
1
1
1
1
1
1
1
1
1
1
1
1
1
1
1
1
1
1
1
1
1
1
1
1
1
1
1
1
1
1
1
1
1
1
1
1
1
1
1
1
1
1
1
1
1
1
1
1
1
1
1
1
1
1
1
1
1
1
1
1
1
1
1
1
1
1
1
1
1
1
1
1
1
1
1
1
1
1
1
1
1
1
1
1
1
1
1
1
1
1
1
1
1
1
1
1
1
1
1
1
1
1
1
1
1
1
1
1
1
1
1
1
1
1
1
1
1
1
1
1
1
1
1
1
1
1
1
1
1
1
1
1
1
1
1
1
1
1
1
1
1
1
1
1
1
1
1
1
1
1
1
1
1
1
1
1
1
1
1
1
1
1
1
1
1
1
1
1
1
1
1
1
1
1
1
1
1
1
1
1
1
1
1
1
1
1
1
1
1
1
1
1
1
1
1
1
1
1
1
1
1
1
1
1
1
1
1
1
1
1
1
1
1
1
1
1
1
1
1
1
1
1
1
1
1
1
1
1
1
1
1
1
1
1
1
1
1
1
1
1
1
1
1
1
1
1
1
1
1
1
1
1
1
1
1
1
1
1
1
1
1
1
1
1
1
1
1
1
1
1
1
1
1
1
1
1
1
1
1
1
1
1
1
1
1
1
1
1
1
1
1
1
1
1
1
1
1
1
1
1
1
1
1
1
1
1
1
1
1
1
1
1
1
1
1
1
1
1
1
1
1
1
1
1
1
1
1
1
1
1
1
1
1
1
1
1
1
1
1
1
1
1
1
1
1
1
1
1
1
1
1
1
1
1
1
1
1
1
1
1
1
1
1
1
1
1
1
1
1
1
1
1
1
1
1
1
1
1
1
1
1
1
1
1
1
1
1
1
1
1
1
1
1
1
1
1
1
1
1
1
1
1
1
1
1
1
1
1
1
1
1
1
1
1
1
1
1
1
1
1
1
1
1
1
1
1
1
1
1
1
1
1
1
1
1
1
1
1
1
1
1
1
1
1
1
1
1
1
1
1
1
1
1
1
1
1
1
1
1
1
1
1
1
1
1
1
1
1
1
1
1
1
1
1
1
1
1
1
1
1
1
1
1
1
1
1
1
1
1
1
1
1
1
1
1
1
1
1
1
1
1
1
1
1
1
1
1
1
1
1
1
1
1
1
1
1
1
1
1
1
1
1
1
1
1
1
1
1
1
1
1
1
1
1
1
1
1
1
1
1
1
1
1
1
1
1
1
1
1
1
1
1
1
1
1
1
1
1
1
1
1
1
1
1
1
1
1
1
1
1
1
1
1
1
1
1
1
1
1
1
1
1
1
1
1
1
1
1
1
1
1
1
1
1
1
1
1
1
1
1
1
1
1
1
1
1
1
1
1
1
1
1
1
1
1
1
1
1
1
1
1
1
1
1
1
1
1
1
1
1
1
1
1
1
1
1
1
1
1
1
1
1
1
1
1
1
1
1
1
1
1
1
1
1
1
1
1
1
1
1
1
1
1
1
1
1
1
1
1
1
1
1
1
1
1
1
1
1
1
1
1
1
1
1
1
1
1
1
1
1
1
1
1
1
1
1
1
1
1
1
1
1
1
1
1
1
1
1
1
1
1
1
1
1
1
1
1
1
1
1
1
1
1
1
1
1
1
1
1
1
1
1
1
1
1
1
1
1
1
1
1
1
1
1
1
1
1
1
1
1
1
1
1
1
1
1
1
1
1
1
1
1
1
1
1
1
1
1
1
1
1
1
1
1
1
1
1
1
1
1
1
1
1
1
1
1
1
1
1
1
1
1
1
1
1
1
1
1
1
1
1
1
1
1
1
1
1
1
1
1
1
1
1
1
1
1
1
1
1
1
1
1
1
1
1
1
1
1
1
1
1
1
1
1
1
1
1
1
1
1
1
1
1
1
1
1
1
1
1
1
1
1
1
1
1
1
1
1
1
1
1
1
1
1
1
1
1
1
1
1
1
1
1
1
1
1
1
1
1
1
1
1
1
1
1
1
1
1
1
1
1
1
1
1
1
1
1
1
1
1
1
1
1
1
1
1
1
1
1
1
1
1
1
1
1
1
1
1
1
1
1
1
1
1
1
1
1
1
1
1
1
1
1
1
1
1
1
1
1
1
1
1
1
1
1
1
1
1
1
1
1
1
1
1
1
1
1
1
1
1
1
1
1
1
1
1
1
1
1
1
1
1
1
1
1
1
1
1
1
1
1
1
1
1
1
1
1
1
1
1
1
1
1
1
1
1
1
1
1
1
1
1
1
1
1
1
1
1
1
1
1
1
1
1
1
1
1
1
1
1
1
1
1
1
1
1
1
1
1
1
1
1
1
1
1
1
1
1
1
1
1
1
1
1
1
1
1
1
1
1
1
1
1
1
1
1
1
1
1
1
1
1
1
1
1
1
1
1
1
1
1
1
1
1
1
1
1
1
1
1
1
1
1
1
1
1
1
1
1
1
1
1
1
1
1
1
1
1
1
1
1
1
1
1
1
1
1
1
1
1
1
1
1
1
1
1
1
1
1
1
1
1
1
1
1
1
1
1
1
1
1
1
1
1
1
1
1
1
1
1
1
1
1
1
1
1
1
1
1
1
1
1
1
1
1
1
1
1
1
1
1
1
1
1
1
1
1
1
1
1
1
1
1
1
1
1
1
1
1
1
1
1
1
1
1
1
1
1
1
1
1
1
1
1
1
1
1
1
1
1
1
1
1
1
1
1
1
1
1
1
1
1
1
1
1
1
1
1
1
1
1
1
1
1
1
1
1
1
1
1
1
1
1
1
1
1
1
1
1
1
1
1
1
1
1
1
1
1
1
1
1
1
1
1
1
1
1
1
1
1
1
1
1
1
1
1
1
1
1
1
1
1
1
1
1
1
1
1
1
1
1
1
1
1
1
1
1
1
1
1
1
1
1
1
1
1
1
1
1
1
1
1
1
1
1
1
1
1
1
1
1
1
1
1
1
1
1
1
1
1
1
1
1
1
1
1
1
1
1
1
1
1
1
1
1
1
1
1
1
1
1
1
1
1
1
1
1
1
1
1
1
1
1
1
1
1
1
1
1
1
1
1
1
1
1
1
1
1
1
1
1
1
1
1
1
1
1
1
1
1
1
1
1
1
1
1
1
1
1
1
1
1
1
1
1
1
1
1
1
1
1
1
1
1
1
1
1
1
1
1
1
1
1
1
1
1
1
1
1
1
1
1
1
1
1
1
1
1
1
1
1
1
1
1
1
1
1
1
1
1
1
1
1
1
1
1
1
1
1
1
1
1
1
1
1
1
1
1
1
1
1
1
1
1
1
1
1
1
1
1
1
1
1
1
1
1
1
1
1
1
1
1
1
1
1
1
1
1
1
1
1
1
1
1
1
1
1
1
1
1
1
1
1
1
1
1
1
1
1
1
1
1
1
1
1
1
1
1
1
1
1
1
1
1
1
1
1
1
1
1
1
1
1
1
1
1
1
1
1
1
1
1
1
1
1
1
1
1
1
1
1
1
1
1
1
1
1
1
1
1
1
1
1
1
1
1
1
1
1
1
1
1
1
1
1
1
1
1
1
1
1
1
1
1
1
1
1
1
1
1
1
1
1
1
1
1
1
1
1
1
1
1
1
1
1
1
1
1
1
1
1
1
1
1
1
1
1
1
1
1
1
1
1
1
1
1
1
1
1
1
1
1
1
1
1
1
1
1
1
1
1
1
1
1
1
1
1
1
1
1
1
1
1
1
1
1
1
1
1
1
1
1
1
1
1
1
1
1
1
1
1
1
1
1
1
1
1
1
1
1
1
1
1
1
1
1
1
1
1
1
1
1
1
1
1
1
1
1
1
1
1
1
1
1
1
1
1
1
1
1
1
1
1
1
1
1
1
1
1
1
1
1
1
1
1
1
1
1
1
1
1
1
1
1
1
1
1
1
1
1
1
1
1
1
1
1
1
1
1
1
1
1
1
1
1
1
1
1
1
1
1
1
1
1
1
1
1
1
1
1
1
1
1
1
1
1
1
1
1
1
1
1
1
1
1
1
1
1
1
1
1
1
1
1
1
1
1
1
1
1
1
1
1
1
1
1
1
1
1
1
1
1
1
1
1
1
1
1
1
1
1
1
1
1
1
1
1
1
1
1
1
1
1
1
1
1
1
1
1
1
1
1
1
1
1
1
1
1
1
1
1
1
1
1
1
1
1
1
1
1
1
1
1
1
1
1
1
1
1
1
1
1
1
1
1
1
1
1
1
1
1
1
1
1
1
1
1
1
1
1
1
1
1
1
1
1
1
1
1
1
1
1
1
1
1
1
1
1
1
1
1
1
1
1
1
1
1
1
1
1
1
1
1
1
1
1
1
1
1
1
1
1
1
1
1
1
1
1
1
1
1
1
1
1
1
1
1
1
1
1
1
1
1
1
1
1
1
1
1
1
1
1
1
1
1
1
1
1
1
1
1
1
1
1
1
1
1
1
1
1
1
1
1
1
1
1
1
1
1
1
1
1
1
1
1
1
1
1
1
1
1
1
1
1
1
1
1
1
1
1
1
1
1
1
1
1
1
1
1
1
1
1
1
1
1
1
1
1
1
1
1
1
1
1
1
1
1
1
1
1
1
1
1
1
1
1
1
1
1
1
1
1
1
1
1
1
1
1
1
1
1
1
1
1
1
1
1
1
1
1
1
1
1
1
1
1
1
1
1
1
1
1
1
1
1
1
1
1
1
1
1
1
1
1
1
1
1
1
1
1
1
1
1
1
1
1
1
1
1
1
1
1
1
1
1
1
1
1
1
1
1
1
1
1
1
1
1
1
1
1
1
1
1
1
1
1
1
1
1
1
1
1
1
1
1
1
1
1
1
1
1
1
1
1
1
1
1
1
1
1
1
1
1
1
1
1
1
1
1
1
1
1
1
1
1
1
1
1
1
1
1
1
1
1
1
1
1
1
1
1
1
1
1
1
1
1
1
1
1
1
1
1
1
1
1
1
1
1
1
1
1
1
1
1
1
1
1
1
1
1
1
1
1
1
1
1
1
1
1
1
1
1
1
1
1
1
1
1
1
1
1
1
1
1
1
1
1
1
1
1
1
1
1
1
1
1
1
1
1
1
1
1
1
1
1
1
1
1
1
1
1
1
1
1
1
1
1
1
1
1
1
1
1
1
1
1
1
1
1
1
1
1
1
1
1
1
1
1
1
1
1
1
1
1
1
1
1
1
1
1
1
1
1
1
1
1
1
1
1
1
1
1
1
1
1
1
1
1
1
1
1
1
1
1
1
1
1
1
1
1
1
1
1
1
1
1
1
1
1
1
1
1
1
1
1
1
1
1
1
1
1
1
1
1
1
1
1
1
1
1
1
1
1
1
1
1
1
1
1
1
1
1
1
1
1
1
1
1
1
1
1
1
1
1
1
1
1
1
1
1
1
1
1
1
1
1
1
1
1
1
1
1
1
1
1
1
1
1
1
1
1
1
1
1
1
1
1
1
1
1
1
1
1
1
1
1
1
1
1
1
1
1
1
1
1
1
1
1
1
1
1
1
1
1
1
1
1
1
1
1
1
1
1
1
1
1
1
1
1
1
1
1
1
1
1
1
1
1
1
1
1
1
1
1
1
1
1
1
1
1
1
1
1
1
1
1
1
1
1
1
1
1
1
1
1
1
1
1
1
1
1
1
1
1
1
1
1
1
1
1
1
1
1
1
1
1
1
1
1
1
1
1
1
1
1
1
1
1
1
1
1
1
1
1
1
1
1
1
1
1
1
1
1
1
1
1
1
1
1
1
1
1
1
1
1
1
1.07841
1.1773
1.28763
1.38539
1.46933
1.56025
1.62034
1.66459
1.69499
1.69017
1.66348
1.61555
1.5697
1.53485
1.52495
1.51715
1.51436
1.51745
1.52203
1.52673
1.53093
1.53395
1.53604
1.53807
1.53953
1.54033
1.54094
1.54156
1.54199
1.54178
1.54126
1.54127
1.54214
1.54412
1.54633
1.54733
1.54735
1.54713
1.54641
1.5454
1.54497
1.54511
1.54537
1.54571
1.54603
1.54622
1.54627
1.54617
1.00071
1.00643
1.02179
1.06844
1.1317
1.21175
1.30139
1.37885
1.45454
1.503
1.53372
1.55458
1.56366
1.56068
1.55407
1.54803
1.53963
1.53678
1.53182
1.53199
1.5338
1.53679
1.53936
1.54185
1.54396
1.54498
1.54596
1.54619
1.54594
1.54569
1.54554
1.54558
1.54597
1.54654
1.5472
1.54761
1.54754
1.54718
1.5466
1.54632
1.54637
1.5466
1.54698
1.5475
1.54801
1.54817
1.54811
1.5486
1
0.999997
0.999996
1.00002
1.00054
1.00432
1.02242
1.07393
1.18442
1.34358
1.50436
1.58106
1.62149
1.6212
1.61405
1.60007
1.5817
1.55686
1.54271
1.54199
1.54347
1.5461
1.54859
1.55153
1.55427
1.55554
1.55629
1.55693
1.55699
1.55705
1.55695
1.5565
1.55613
1.55583
1.55537
1.55481
1.55409
1.55313
1.55221
1.55171
1.55159
1.55159
1.55179
1.55231
1.55282
1.55288
1.55259
1.55361
1
1
1
1
1
0.999994
1.00002
1.00003
1.00205
1.02825
1.14546
1.33656
1.49092
1.61343
1.60957
1.60165
1.60122
1.59188
1.57839
1.57076
1.56754
1.56436
1.56172
1.56228
1.56358
1.56469
1.56615
1.56738
1.56843
1.56891
1.56889
1.56852
1.56802
1.5676
1.56725
1.56665
1.56568
1.56442
1.56322
1.5624
1.56207
1.56197
1.56197
1.56201
1.56193
1.56142
1.56026
1.56107
1
1
1
1
1
1
1
1
1
0.999973
1.00057
1.01885
1.10405
1.30558
1.46486
1.57068
1.62617
1.62569
1.6167
1.60622
1.59465
1.58323
1.57798
1.57497
1.5728
1.57358
1.57453
1.57545
1.57655
1.5772
1.57692
1.57632
1.57627
1.57696
1.57718
1.57693
1.57632
1.57533
1.57421
1.57343
1.57329
1.57332
1.57339
1.5733
1.57278
1.5718
1.57022
1.57076
1
1
1
1
1
1
1
1
1
0.999999
0.999999
0.999981
1.00025
1.01048
1.09112
1.2457
1.4375
1.53229
1.60281
1.60923
1.60812
1.59929
1.59234
1.58802
1.58435
1.5812
1.5797
1.57908
1.57936
1.58077
1.58179
1.58256
1.58366
1.58423
1.58416
1.58377
1.58314
1.58228
1.58142
1.58096
1.58086
1.58082
1.58084
1.58061
1.5797
1.57853
1.57695
1.57731
1
1
1
1
1
1
1
1
1
1
1
0.999999
0.999999
0.999985
1.00024
1.00561
1.07093
1.22066
1.40365
1.51313
1.56302
1.59247
1.59343
1.59306
1.58875
1.58528
1.5838
1.58175
1.57998
1.58021
1.58167
1.58446
1.58715
1.58724
1.58672
1.58606
1.58545
1.58479
1.58407
1.58383
1.58361
1.5836
1.58367
1.58343
1.58265
1.58183
1.58087
1.58107
1
1
1
1
1
1
1
1
1
1
1
1
1
0.999999
0.999999
0.999991
1.0002
1.00535
1.04913
1.20337
1.35524
1.50487
1.5461
1.5645
1.57312
1.57389
1.57591
1.57506
1.57457
1.57539
1.57749
1.57996
1.58214
1.58395
1.58441
1.5842
1.58361
1.58307
1.58302
1.5831
1.58343
1.58417
1.58433
1.58418
1.58382
1.58349
1.58309
1.58311
1
1
1
1
1
1
1
1
1
1
1
1
1
1
1
0.999999
0.999999
0.999993
1.00008
1.00527
1.03904
1.17224
1.34591
1.47545
1.5472
1.55829
1.56713
1.5684
1.56813
1.56889
1.57025
1.57173
1.57304
1.57493
1.57678
1.57798
1.5787
1.57938
1.58025
1.58104
1.58182
1.58253
1.58288
1.58305
1.5832
1.58317
1.58303
1.58289
1
1
1
1
1
1
1
1
1
1
1
1
1
1
1
1
1
1
1
0.999994
1.00007
1.0036
1.04492
1.15551
1.33113
1.45088
1.53245
1.55863
1.56333
1.56685
1.56805
1.5675
1.56716
1.56769
1.56956
1.57125
1.57258
1.57402
1.57536
1.57661
1.57797
1.57875
1.57916
1.57978
1.58054
1.58079
1.58105
1.58088
1
1
1
1
1
1
1
1
1
1
1
1
1
1
1
1
1
1
1
0.999999
1
0.999995
1.00015
1.0029
1.04147
1.15699
1.32191
1.44092
1.5122
1.54904
1.56138
1.56387
1.5646
1.56552
1.56588
1.56694
1.56871
1.57009
1.57136
1.57272
1.57411
1.57473
1.57515
1.57569
1.57618
1.57639
1.57685
1.57665
1
1
1
1
1
1
1
1
1
1
1
1
1
1
1
1
1
1
1
1
1
0.999999
1
0.999996
1.00019
1.00371
1.03595
1.16654
1.32164
1.45974
1.50679
1.53188
1.54914
1.55639
1.55734
1.55972
1.56254
1.56393
1.565
1.56619
1.5675
1.56871
1.56958
1.57031
1.57106
1.57151
1.57216
1.57223
1
1
1
1
1
1
1
1
1
1
1
1
1
1
1
1
1
1
1
1
1
1
1
0.999999
1
0.999996
1.00015
1.00571
1.03999
1.17728
1.33611
1.47316
1.52353
1.53325
1.54219
1.5491
1.5529
1.5548
1.5562
1.55782
1.56008
1.56236
1.56357
1.56393
1.56428
1.56462
1.56546
1.56616
1
1
1
1
1
1
1
1
1
1
1
1
1
1
1
1
1
1
1
1
1
1
1
1
1
1
1
0.999999
1.00021
1.0074
1.05489
1.19549
1.36338
1.4794
1.5386
1.54915
1.55232
1.55351
1.55296
1.55337
1.55532
1.55737
1.55833
1.55886
1.55885
1.55882
1.55966
1.56086
1
1
1
1
1
1
1
1
1
1
1
1
1
1
1
1
1
1
1
1
1
1
1
1
1
1
1
1
0.999999
1.00001
1.00048
1.0098
1.08348
1.23234
1.39765
1.4928
1.54133
1.55604
1.55603
1.55643
1.557
1.55815
1.55865
1.55827
1.55791
1.55752
1.55801
1.55895
1
1
1
1
1
1
1
1
1
1
1
1
1
1
1
1
1
1
1
1
1
1
1
1
1
1
1
1
1
1
0.999999
1.00002
1.00134
1.0169
1.12291
1.29216
1.44698
1.50525
1.53245
1.55069
1.55395
1.55484
1.55648
1.55703
1.5569
1.55705
1.55764
1.55842
1
1
1
1
1
1
1
1
1
1
1
1
1
1
1
1
1
1
1
1
1
1
1
1
1
1
1
1
1
1
1
1
0.999999
1.00007
1.00392
1.03512
1.1787
1.35414
1.49917
1.53069
1.54058
1.54591
1.54904
1.55152
1.55304
1.55405
1.55535
1.5568
1
1
1
1
1
1
1
1
1
1
1
1
1
1
1
1
1
1
1
1
1
1
1
1
1
1
1
1
1
1
1
1
1
1
1
1.00031
1.01068
1.07463
1.26177
1.42459
1.52247
1.54993
1.55259
1.55455
1.5538
1.55324
1.55402
1.55629
1
1
1
1
1
1
1
1
1
1
1
1
1
1
1
1
1
1
1
1
1
1
1
1
1
1
1
1
1
1
1
1
1
1
1
0.999999
1.00004
1.00147
1.03079
1.15008
1.35172
1.47725
1.54141
1.55938
1.55849
1.5581
1.55821
1.55896
1
1
1
1
1
1
1
1
1
1
1
1
1
1
1
1
1
1
1
1
1
1
1
1
1
1
1
1
1
1
1
1
1
1
1
1
1
1
1.00034
1.00681
1.08405
1.2656
1.45109
1.51393
1.53508
1.55156
1.55581
1.55671
1
1
1
1
1
1
1
1
1
1
1
1
1
1
1
1
1
1
1
1
1
1
1
1
1
1
1
1
1
1
1
1
1
1
1
1
1
1
1
1.00003
1.00262
1.03241
1.1848
1.38347
1.51856
1.54279
1.54866
1.55061
1
1
1
1
1
1
1
1
1
1
1
1
1
1
1
1
1
1
1
1
1
1
1
1
1
1
1
1
1
1
1
1
1
1
1
1
1
1
1
1
1
1.00042
1.01453
1.10831
1.32669
1.4809
1.54962
1.55887
1
1
1
1
1
1
1
1
1
1
1
1
1
1
1
1
1
1
1
1
1
1
1
1
1
1
1
1
1
1
1
1
1
1
1
1
1
1
1
1
1
1
1.00013
1.00457
1.07185
1.25504
1.43583
1.51603
1
1
1
1
1
1
1
1
1
1
1
1
1
1
1
1
1
1
1
1
1
1
1
1
1
1
1
1
1
1
1
1
1
1
1
1
1
1
1
1
1
1
1
1.00002
1.00221
1.03197
1.20444
1.39404
1
1
1
1
1
1
1
1
1
1
1
1
1
1
1
1
1
1
1
1
1
1
1
1
1
1
1
1
1
1
1
1
1
1
1
1
1
1
1
1
1
1
1
1
1.00001
1.00058
1.02458
1.1298
1
1
1
1
1
1
1
1
1
1
1
1
1
1
1
1
1
1
1
1
1
1
1
1
1
1
1
1
1
1
1
1
1
1
1
1
1
1
1
1
1
1
1
1
1
1
1.00051
1.00563
1
1
1
1
1
1
1
1
1
1
1
1
1
1
1
1
1
1
1
1
1
1
1
1
1
1
1
1
1
1
1
1
1
1
1
1
1
1
1
1
1
1
1
1
1
1
1
0.999948
1
1
1
1
1
1
1
1
1
1
1
1
1
1
1
1
1
1
1
1
1
1
1
1
1
1
1
1
1
1
1
1
1
1
1
1
1
1
1
1
1
1
1
1
1
1
1
0.999982
1
1
1
1
1
1
1
1
1
1
1
1
1
1
1
1
1
1
1
1
1
1
1
1
1
1
1
1
1
1
1
1
1
1
1
1
1
1
1
1
1
1
1
1
1
1
1
0.999997
1
1
1
1
1
1
1
1
1
1
1
1
1
1
1
1
1
1
1
1
1
1
1
1
1
1
1
1
1
1
1
1
1
1
1
1
1
1
1
1
1
1
1
1
1
1
1
1
1
1
1
1
1
1
1
1
1
1
1
1
1
1
1
1
1
1
1
1
1
1
1
1
1
1
1
1
1
1
1
1
1
1
1
1
1
1
1
1
1
1
1
1
1
1
1
1
1
1
1
1
1
1
1
1
1
1
1
1
1
1
1
1
1
1
1
1
1
1
1
1
1
1
1
1
1
1
1
1
1
1
1
1
1
1
1
1
1
1
1
1
1
1
1
1
1
1
1
1
1
1
1
1
1
1
1
1
1
1
1
1
1
1
1
1
1
1
1
1
1
1
1
1
1
1
1
1
1
1
1
1
1
1
1
1
1
1
1
1
1
1
1
1
1
1
1
1
1
1
1
1
1
1
1
1
1
1
1
1
1
1
1
1
1
1
1
1
1
1
1
1
1
1
1
1
1
1
1
1
1
1
1
1
1
1
1
1
1
1
1
1
1
1
1
1
1
1
1
1
1
1
1
1
1
1
1
1
1
1
1
1
1
1
1
1
1
1
1
1
1
1
1
1
1
1
1
1
1
1
1
1
1
1
1
1
1
1
1
1
1
1
1
1
1
1
1
1
1
1
1
1
1
1
1
1
1
1
1
1
1
1
1
1
1
1
1
1
1
1
1
1
1
1
1
1
1
1
1
1
1
1
1
1
1
1
1
0.999997
1
1
1
1
1
1
1
1
1
1
1
1
1
1
1
1
1
1
1
1
1
1
1
1
1
1
1
1
1
1
1
1
1
1
1
1
1
1
1
1
1
1
1
1
1
1
1
0.999984
1
1
1
1
1
1
1
1
1
1
1
1
1
1
1
1
1
1
1
1
1
1
1
1
1
1
1
1
1
1
1
1
1
1
1
1
1
1
1
1
1
1
1
1
1
1
1
0.99995
1
1
1
1
1
1
1
1
1
1
1
1
1
1
1
1
1
1
1
1
1
1
1
1
1
1
1
1
1
1
1
1
1
1
1
1
1
1
1
1
1
1
1
1
1
1
1.0005
1.00573
1
1
1
1
1
1
1
1
1
1
1
1
1
1
1
1
1
1
1
1
1
1
1
1
1
1
1
1
1
1
1
1
1
1
1
1
1
1
1
1
1
1
1
1
1.00001
1.00058
1.02456
1.12948
1
1
1
1
1
1
1
1
1
1
1
1
1
1
1
1
1
1
1
1
1
1
1
1
1
1
1
1
1
1
1
1
1
1
1
1
1
1
1
1
1
1
1
1.00002
1.00221
1.032
1.20434
1.39385
1
1
1
1
1
1
1
1
1
1
1
1
1
1
1
1
1
1
1
1
1
1
1
1
1
1
1
1
1
1
1
1
1
1
1
1
1
1
1
1
1
1
1.00013
1.00457
1.07184
1.25509
1.43566
1.51619
1
1
1
1
1
1
1
1
1
1
1
1
1
1
1
1
1
1
1
1
1
1
1
1
1
1
1
1
1
1
1
1
1
1
1
1
1
1
1
1
1
1.00042
1.01453
1.10829
1.3267
1.48091
1.54957
1.55891
1
1
1
1
1
1
1
1
1
1
1
1
1
1
1
1
1
1
1
1
1
1
1
1
1
1
1
1
1
1
1
1
1
1
1
1
1
1
1
1.00003
1.00262
1.03241
1.1848
1.38344
1.51856
1.54282
1.54866
1.5506
1
1
1
1
1
1
1
1
1
1
1
1
1
1
1
1
1
1
1
1
1
1
1
1
1
1
1
1
1
1
1
1
1
1
1
1
1
1
1.00034
1.00681
1.08404
1.26562
1.45108
1.51392
1.53508
1.55159
1.55582
1.5567
1
1
1
1
1
1
1
1
1
1
1
1
1
1
1
1
1
1
1
1
1
1
1
1
1
1
1
1
1
1
1
1
1
1
1
0.999999
1.00004
1.00147
1.03079
1.15007
1.35172
1.47726
1.54141
1.55938
1.55849
1.55811
1.55822
1.55896
1
1
1
1
1
1
1
1
1
1
1
1
1
1
1
1
1
1
1
1
1
1
1
1
1
1
1
1
1
1
1
1
1
1
1
1.00031
1.01068
1.07463
1.26177
1.42459
1.52247
1.54993
1.55259
1.55455
1.5538
1.55324
1.55402
1.55629
1
1
1
1
1
1
1
1
1
1
1
1
1
1
1
1
1
1
1
1
1
1
1
1
1
1
1
1
1
1
1
1
0.999999
1.00007
1.00392
1.03512
1.1787
1.35415
1.49917
1.53069
1.54058
1.5459
1.54904
1.55152
1.55304
1.55405
1.55535
1.55681
1
1
1
1
1
1
1
1
1
1
1
1
1
1
1
1
1
1
1
1
1
1
1
1
1
1
1
1
1
1
0.999999
1.00002
1.00134
1.0169
1.12291
1.29216
1.44699
1.50525
1.53245
1.55069
1.55395
1.55484
1.55647
1.55703
1.5569
1.55705
1.55764
1.55842
1
1
1
1
1
1
1
1
1
1
1
1
1
1
1
1
1
1
1
1
1
1
1
1
1
1
1
1
0.999999
1.00001
1.00048
1.0098
1.08348
1.23234
1.39765
1.4928
1.54133
1.55604
1.55602
1.55643
1.557
1.55815
1.55865
1.55827
1.55791
1.55752
1.55801
1.55895
1
1
1
1
1
1
1
1
1
1
1
1
1
1
1
1
1
1
1
1
1
1
1
1
1
1
1
0.999999
1.00021
1.0074
1.05489
1.19549
1.36338
1.4794
1.5386
1.54915
1.55232
1.55351
1.55296
1.55337
1.55532
1.55737
1.55833
1.55886
1.55885
1.55882
1.55966
1.56086
1
1
1
1
1
1
1
1
1
1
1
1
1
1
1
1
1
1
1
1
1
1
1
0.999999
1
0.999996
1.00015
1.00571
1.03999
1.17728
1.33611
1.47316
1.52353
1.53325
1.54219
1.5491
1.5529
1.5548
1.5562
1.55782
1.56008
1.56236
1.56357
1.56393
1.56428
1.56462
1.56546
1.56616
1
1
1
1
1
1
1
1
1
1
1
1
1
1
1
1
1
1
1
1
1
0.999999
1
0.999996
1.00019
1.00371
1.03595
1.16654
1.32164
1.45974
1.50679
1.53188
1.54914
1.55639
1.55734
1.55972
1.56254
1.56393
1.565
1.56619
1.5675
1.56871
1.56958
1.57031
1.57106
1.57151
1.57216
1.57223
1
1
1
1
1
1
1
1
1
1
1
1
1
1
1
1
1
1
1
0.999999
1
0.999995
1.00015
1.0029
1.04147
1.15699
1.32191
1.44092
1.5122
1.54904
1.56138
1.56387
1.5646
1.56552
1.56588
1.56694
1.56871
1.57009
1.57136
1.57272
1.57411
1.57473
1.57515
1.57569
1.57618
1.57639
1.57685
1.57665
1
1
1
1
1
1
1
1
1
1
1
1
1
1
1
1
1
1
1
0.999994
1.00007
1.0036
1.04492
1.15551
1.33113
1.45088
1.53245
1.55863
1.56333
1.56685
1.56805
1.5675
1.56716
1.56769
1.56956
1.57125
1.57258
1.57402
1.57536
1.57661
1.57797
1.57875
1.57916
1.57978
1.58054
1.58079
1.58105
1.58088
1
1
1
1
1
1
1
1
1
1
1
1
1
1
1
0.999999
0.999999
0.999993
1.00008
1.00527
1.03904
1.17224
1.34591
1.47545
1.5472
1.55829
1.56713
1.5684
1.56813
1.56889
1.57025
1.57173
1.57304
1.57493
1.57678
1.57798
1.5787
1.57938
1.58025
1.58104
1.58182
1.58253
1.58288
1.58305
1.5832
1.58317
1.58303
1.58289
1
1
1
1
1
1
1
1
1
1
1
1
1
0.999999
0.999999
0.999991
1.0002
1.00535
1.04913
1.20337
1.35524
1.50487
1.5461
1.5645
1.57312
1.57389
1.57591
1.57506
1.57457
1.57539
1.57749
1.57996
1.58214
1.58395
1.58441
1.5842
1.58361
1.58307
1.58302
1.5831
1.58343
1.58417
1.58433
1.58418
1.58382
1.58349
1.58309
1.58311
1
1
1
1
1
1
1
1
1
1
1
0.999999
0.999999
0.999985
1.00024
1.00561
1.07093
1.22066
1.40365
1.51313
1.56302
1.59247
1.59343
1.59306
1.58875
1.58528
1.5838
1.58175
1.57998
1.58021
1.58167
1.58446
1.58715
1.58724
1.58672
1.58606
1.58545
1.58479
1.58407
1.58383
1.58361
1.5836
1.58367
1.58343
1.58265
1.58183
1.58087
1.58107
1
1
1
1
1
1
1
1
1
0.999999
0.999999
0.999981
1.00025
1.01048
1.09112
1.2457
1.4375
1.53229
1.60281
1.60923
1.60812
1.59929
1.59235
1.58802
1.58435
1.5812
1.5797
1.57908
1.57936
1.58077
1.58179
1.58256
1.58366
1.58424
1.58416
1.58377
1.58314
1.58228
1.58142
1.58096
1.58086
1.58082
1.58084
1.58061
1.5797
1.57853
1.57695
1.57731
1
1
1
1
1
1
1
1
1
0.999973
1.00057
1.01885
1.10405
1.30558
1.46486
1.57068
1.62617
1.62569
1.6167
1.60622
1.59465
1.58323
1.57798
1.57497
1.5728
1.57358
1.57453
1.57545
1.57655
1.5772
1.57692
1.57632
1.57627
1.57696
1.57718
1.57693
1.57632
1.57533
1.57421
1.57343
1.57329
1.57332
1.57339
1.5733
1.57278
1.5718
1.57022
1.57076
1
1
1
1
1
0.999994
1.00002
1.00003
1.00205
1.02825
1.14546
1.33656
1.49092
1.61343
1.60957
1.60165
1.60122
1.59188
1.57839
1.57076
1.56754
1.56436
1.56172
1.56228
1.56358
1.56469
1.56615
1.56738
1.56843
1.56891
1.56889
1.56852
1.56802
1.5676
1.56725
1.56665
1.56568
1.56442
1.56322
1.5624
1.56207
1.56197
1.56197
1.56201
1.56193
1.56142
1.56026
1.56107
1
0.999997
0.999996
1.00002
1.00054
1.00432
1.02242
1.07393
1.18442
1.34358
1.50436
1.58106
1.62149
1.6212
1.61405
1.60007
1.5817
1.55686
1.54271
1.54199
1.54347
1.5461
1.54859
1.55153
1.55427
1.55554
1.55629
1.55693
1.55699
1.55705
1.55695
1.5565
1.55613
1.55583
1.55537
1.55481
1.55409
1.55313
1.55221
1.55171
1.55159
1.55159
1.55179
1.55231
1.55282
1.55288
1.55259
1.55361
1.00071
1.00643
1.02179
1.06844
1.1317
1.21175
1.30139
1.37885
1.45454
1.503
1.53372
1.55458
1.56366
1.56068
1.55407
1.54803
1.53963
1.53678
1.53182
1.53199
1.5338
1.53679
1.53936
1.54185
1.54396
1.54498
1.54596
1.54619
1.54594
1.54569
1.54554
1.54558
1.54597
1.54654
1.5472
1.54761
1.54754
1.54718
1.5466
1.54632
1.54637
1.5466
1.54698
1.5475
1.54801
1.54817
1.54811
1.5486
1.07841
1.1773
1.28763
1.38539
1.46933
1.56025
1.62034
1.66459
1.69499
1.69017
1.66348
1.61555
1.5697
1.53485
1.52495
1.51715
1.51436
1.51745
1.52203
1.52673
1.53093
1.53395
1.53604
1.53807
1.53953
1.54033
1.54094
1.54156
1.54199
1.54178
1.54126
1.54127
1.54214
1.54412
1.54633
1.54733
1.54735
1.54713
1.54641
1.5454
1.54497
1.54511
1.54537
1.54571
1.54604
1.54622
1.54627
1.54617
1.40375
1.24205
1.08344
1.02595
1.01315
0.993849
0.99444
1.02445
1.05176
1.05825
1.06673
1.09095
1.11368
1.11667
1.1154
1.11812
1.11769
1.11604
1.11706
1.11973
1.11912
1.1171
1.1156
1.11547
1.11499
1.11138
1.10782
1.10757
1.10745
1.10708
1.10601
1.10501
1.1044
1.10342
1.10271
1.10269
1.10289
1.10408
1.10544
1.10549
1.10538
1.10497
1.10372
1.10282
1.10282
1.10274
1.10244
1.10296
1.10639
1.16517
1.33829
1.58011
1.81967
2.05522
2.25018
2.24166
2.17702
2.09517
2.08177
2.08549
2.07719
2.06155
2.04556
2.02968
2.01509
2.00538
1.99618
1.98718
1.97755
1.96214
1.93965
1.92273
1.91403
1.90801
1.90473
1.89905
1.89152
1.87723
1.84987
1.82619
1.8175
1.81275
1.81255
1.81682
1.81336
1.80705
1.79484
1.76919
1.74689
1.73975
1.73588
1.73309
1.72923
1.72381
1.71647
1.70255
1.68407
1.67507
1.67052
1.66615
1.66165
1.65652
1.64925
1.63667
1.62189
1.61492
1.61118
1.60771
1.60417
1.59997
1.59353
1.58215
1.56671
1.55526
1.54879
1.54394
1.53976
1.53606
1.53255
1.52881
1.52473
1.52056
1.51193
1.49716
1.48534
1.47904
1.47485
1.47179
1.46916
1.4663
1.46257
1.45657
1.44836
1.442
1.43795
1.43403
1.42854
1.41943
1.40716
1.39934
1.39647
1.39437
1.39296
1.39319
1.39906
1.42408
1.49141
1.59372
1.69652
1.77636
1.84505
1.9033
1.9198
1.91621
1.90521
1.8877
1.87417
1.86322
1.85193
1.8453
1.84201
1.84018
1.83883
1.83623
1.83098
1.82098
1.80889
1.80375
1.80076
1.79776
1.79612
1.79451
1.79188
1.7894
1.78543
1.7752
1.76333
1.75967
1.75747
1.75506
1.75327
1.75056
1.74728
1.74381
1.73776
1.72638
1.71852
1.71613
1.71413
1.71239
1.71071
1.70571
1.50064
1.425
1.32729
1.23051
1.18949
1.14484
1.09435
1.08886
1.07687
1.0587
1.05575
1.06104
1.06896
1.07129
1.0735
1.07926
1.08467
1.08687
1.0902
1.09672
1.10225
1.10314
1.10379
1.10428
1.10402
1.10209
1.10118
1.10143
1.10168
1.10167
1.10117
1.10076
1.10063
1.10005
1.09955
1.0993
1.09941
1.10021
1.10072
1.10073
1.1007
1.10027
1.09921
1.09861
1.09839
1.09796
1.09864
1.10322
1.15637
1.35583
1.51972
1.56723
1.66545
1.77676
1.96772
2.09119
2.13082
2.11627
2.10279
2.09342
2.0801
2.06683
2.05325
2.03783
2.02063
2.00377
1.99475
1.98676
1.9767
1.96414
1.94801
1.93217
1.91894
1.91005
1.90385
1.89808
1.89033
1.8783
1.8587
1.83832
1.82551
1.81893
1.81468
1.81209
1.80924
1.80273
1.79221
1.77454
1.75506
1.7436
1.73733
1.73313
1.73102
1.72712
1.7199
1.70719
1.69024
1.68082
1.67566
1.67105
1.6664
1.66121
1.6543
1.64369
1.63036
1.62142
1.61653
1.61231
1.60815
1.60373
1.59721
1.58572
1.56967
1.55713
1.55035
1.54597
1.54236
1.53866
1.5349
1.53189
1.52838
1.51986
1.50913
1.49831
1.48864
1.48294
1.47942
1.47634
1.47352
1.47053
1.46678
1.46143
1.45402
1.44691
1.44176
1.43735
1.43149
1.42201
1.41047
1.40243
1.39881
1.3976
1.39804
1.40739
1.44001
1.50239
1.57366
1.61636
1.65753
1.71416
1.76416
1.81092
1.84688
1.87646
1.88921
1.88615
1.8791
1.86878
1.85722
1.84903
1.84681
1.84478
1.8421
1.83843
1.83289
1.82375
1.81224
1.80654
1.80373
1.80063
1.79845
1.79656
1.79378
1.79113
1.78715
1.77785
1.76649
1.76274
1.76061
1.75794
1.75561
1.75253
1.74905
1.74537
1.73946
1.72932
1.72181
1.71936
1.71717
1.71488
1.71268
1.70778
1.53874
1.49762
1.43538
1.35548
1.29045
1.23251
1.1635
1.12576
1.1038
1.07225
1.04876
1.05001
1.05074
1.04658
1.04721
1.05054
1.0537
1.05717
1.06175
1.07092
1.08022
1.08247
1.08337
1.08495
1.08656
1.08681
1.08764
1.08911
1.09068
1.09171
1.09167
1.09127
1.09019
1.08911
1.08902
1.08903
1.08958
1.09032
1.09045
1.09058
1.09053
1.08984
1.08947
1.08945
1.08954
1.09118
1.10143
1.15989
1.36885
1.53814
1.59278
1.59563
1.60239
1.61954
1.70573
1.91785
2.11436
2.15389
2.13172
2.09419
2.07849
2.07639
2.06756
2.05267
2.03504
2.01636
1.9996
1.98736
1.97473
1.96363
1.9562
1.9467
1.93316
1.91896
1.907
1.89759
1.88771
1.87589
1.86418
1.85452
1.84396
1.83096
1.82041
1.81329
1.80555
1.79638
1.78528
1.77398
1.76413
1.75443
1.74462
1.73616
1.72946
1.72333
1.71597
1.70567
1.69363
1.68151
1.67242
1.66701
1.66244
1.65744
1.65117
1.64226
1.63058
1.62032
1.6139
1.60899
1.60415
1.59878
1.59158
1.58187
1.5709
1.56184
1.55517
1.54942
1.54477
1.54185
1.54019
1.53661
1.52785
1.51401
1.50237
1.49607
1.4927
1.48897
1.48304
1.47414
1.46798
1.4652
1.46215
1.45806
1.45235
1.44606
1.43946
1.43311
1.42674
1.41869
1.41199
1.4076
1.40503
1.40691
1.42057
1.4745
1.54318
1.59942
1.6337
1.64069
1.64426
1.65518
1.68091
1.72864
1.79313
1.85323
1.87937
1.88807
1.88599
1.87823
1.86693
1.85788
1.85357
1.84792
1.84121
1.8367
1.83272
1.82699
1.81889
1.81015
1.80314
1.79893
1.79588
1.79437
1.79216
1.7897
1.7866
1.78073
1.77175
1.76418
1.75994
1.75678
1.75369
1.75045
1.74705
1.74343
1.73815
1.73208
1.72641
1.72015
1.71573
1.71301
1.71054
1.70569
1.55616
1.53753
1.49955
1.44066
1.37858
1.32066
1.25466
1.20715
1.17868
1.13983
1.09696
1.08956
1.07682
1.05473
1.05084
1.05117
1.04684
1.044
1.04556
1.05071
1.05652
1.06002
1.06244
1.06662
1.0712
1.0736
1.07592
1.07877
1.08023
1.08106
1.08154
1.08137
1.08075
1.0805
1.08071
1.0819
1.0836
1.08393
1.08374
1.08333
1.08228
1.08076
1.0806
1.0809
1.08301
1.10683
1.20341
1.36741
1.55225
1.60924
1.61272
1.61116
1.60798
1.60215
1.60318
1.65775
1.85291
2.08228
2.104
2.0936
2.08837
2.09087
2.08542
2.07059
2.05472
2.03592
2.01057
1.99124
1.98
1.97139
1.96343
1.95589
1.94765
1.93355
1.91303
1.89604
1.88675
1.88092
1.87701
1.87166
1.86207
1.84812
1.82954
1.81193
1.79954
1.79077
1.78483
1.78031
1.77591
1.76874
1.75815
1.74459
1.73152
1.7225
1.71587
1.70958
1.70096
1.68872
1.67692
1.66932
1.66418
1.65909
1.65321
1.64543
1.63493
1.62475
1.61857
1.61341
1.60691
1.59808
1.58842
1.58099
1.57627
1.57109
1.5646
1.5585
1.55361
1.5486
1.54179
1.53372
1.52369
1.51342
1.50533
1.50081
1.49688
1.49234
1.48641
1.47815
1.46907
1.46431
1.46168
1.45857
1.45482
1.45001
1.44301
1.43348
1.42516
1.41992
1.41721
1.41651
1.42188
1.44502
1.506
1.58942
1.6326
1.64676
1.65289
1.6512
1.64919
1.64815
1.64988
1.66116
1.69596
1.75758
1.81642
1.85743
1.87606
1.8765
1.87611
1.87283
1.86574
1.85428
1.8443
1.84044
1.83819
1.83393
1.82606
1.81614
1.80797
1.8022
1.79864
1.79631
1.79419
1.79179
1.78931
1.7858
1.77842
1.76956
1.76351
1.7592
1.75575
1.75231
1.74831
1.74383
1.74057
1.73776
1.7328
1.7255
1.71958
1.71596
1.7129
1.70696
1.56676
1.56004
1.54076
1.50062
1.44896
1.39793
1.33286
1.28275
1.24957
1.20769
1.15799
1.13491
1.11369
1.08195
1.06347
1.06092
1.05263
1.04466
1.04577
1.05021
1.05087
1.05067
1.0512
1.05392
1.05919
1.06422
1.06825
1.07265
1.07434
1.0751
1.07616
1.07616
1.0755
1.07565
1.07744
1.08005
1.08113
1.08115
1.08094
1.08024
1.07876
1.07735
1.0773
1.07856
1.10731
1.27113
1.43654
1.55193
1.61317
1.6266
1.6247
1.61953
1.61378
1.61105
1.60002
1.59863
1.62383
1.77579
1.99142
2.08278
2.10047
2.0959
2.08597
2.07507
2.06482
2.0506
2.02428
1.99837
1.9873
1.97928
1.97259
1.96411
1.95404
1.94022
1.91704
1.89749
1.89048
1.8857
1.88209
1.87689
1.87005
1.85922
1.83803
1.81113
1.79795
1.79203
1.78765
1.78356
1.77849
1.77354
1.7672
1.75449
1.7367
1.72444
1.71606
1.70838
1.70127
1.69303
1.68206
1.67278
1.66725
1.66245
1.65739
1.65114
1.64245
1.63114
1.61983
1.61146
1.60402
1.59616
1.58897
1.58276
1.57602
1.56898
1.5627
1.55757
1.55326
1.54856
1.54011
1.52765
1.51916
1.51572
1.51303
1.50912
1.50456
1.49978
1.49444
1.48665
1.47499
1.46466
1.45935
1.4558
1.45257
1.44918
1.44393
1.43492
1.42609
1.42396
1.42472
1.43564
1.47771
1.54228
1.62269
1.65076
1.65991
1.6646
1.66589
1.66396
1.66174
1.65719
1.65315
1.6465
1.64747
1.66556
1.71656
1.78104
1.84191
1.87718
1.8826
1.87924
1.86911
1.85891
1.84983
1.84572
1.8423
1.83653
1.82979
1.82385
1.81729
1.80907
1.80068
1.79748
1.79569
1.79399
1.79202
1.78884
1.78415
1.77846
1.77179
1.76391
1.75602
1.75111
1.7476
1.7449
1.74259
1.74025
1.73727
1.73268
1.72578
1.71818
1.71401
1.70831
1.57482
1.57071
1.56308
1.54121
1.503
1.46026
1.40699
1.35399
1.31457
1.27191
1.22568
1.19778
1.17331
1.13657
1.11114
1.10248
1.08919
1.06892
1.06684
1.06506
1.05901
1.05295
1.0518
1.05158
1.0523
1.05473
1.06055
1.06684
1.06914
1.07055
1.07252
1.07393
1.07407
1.07489
1.07802
1.08035
1.08082
1.08108
1.08106
1.08022
1.0784
1.07809
1.07976
1.10521
1.28259
1.50363
1.58479
1.62408
1.63423
1.62982
1.63027
1.62529
1.61432
1.60924
1.6052
1.59613
1.59208
1.603
1.69412
1.88917
2.02945
2.06414
2.07573
2.07877
2.06993
2.05371
2.03009
2.00467
1.99104
1.98318
1.97625
1.96783
1.95785
1.94507
1.92419
1.90195
1.89253
1.88725
1.88421
1.88057
1.8729
1.8626
1.84431
1.81698
1.79997
1.79391
1.78932
1.78679
1.78346
1.77877
1.77181
1.75909
1.73997
1.72579
1.71775
1.71124
1.70517
1.69829
1.68917
1.67755
1.66823
1.66332
1.65973
1.65639
1.65086
1.63868
1.62059
1.6084
1.60191
1.59641
1.59102
1.58554
1.57959
1.57308
1.56699
1.56285
1.55696
1.54649
1.53395
1.52532
1.52015
1.5158
1.51142
1.50715
1.50288
1.49811
1.49238
1.48506
1.47509
1.4649
1.45778
1.45418
1.45215
1.44964
1.44579
1.43809
1.43044
1.43312
1.45601
1.51986
1.58849
1.64448
1.67732
1.67663
1.67606
1.67632
1.67412
1.66945
1.66542
1.66224
1.65731
1.6504
1.64139
1.63971
1.64791
1.68136
1.74471
1.81859
1.85751
1.86909
1.86878
1.86708
1.85923
1.85086
1.84532
1.83948
1.83462
1.83045
1.82476
1.81649
1.80651
1.79942
1.79656
1.79439
1.7933
1.79211
1.79002
1.78612
1.77955
1.77011
1.75982
1.75183
1.74855
1.7467
1.74527
1.74396
1.74217
1.73878
1.73166
1.72083
1.71448
1.70949
1.57986
1.57751
1.57293
1.56343
1.54237
1.50973
1.46282
1.41866
1.3778
1.33156
1.28803
1.25757
1.22804
1.19245
1.16563
1.14866
1.12894
1.09922
1.08934
1.08198
1.06983
1.05965
1.05916
1.05793
1.05642
1.05767
1.06077
1.06232
1.06283
1.06381
1.0659
1.06896
1.07214
1.07588
1.08026
1.08198
1.08224
1.08268
1.08289
1.08184
1.08017
1.08444
1.12206
1.27894
1.52712
1.60973
1.63316
1.6434
1.64254
1.62966
1.62575
1.62527
1.61647
1.60601
1.6008
1.5964
1.58743
1.57991
1.57955
1.62076
1.77369
1.95044
2.03311
2.06649
2.06402
2.04959