/*--------------------------------*- C++ -*----------------------------------*\
  =========                 |
  \\      /  F ield         | OpenFOAM: The Open Source CFD Toolbox
   \\    /   O peration     | Website:  https://openfoam.org
    \\  /    A nd           | Version:  7
     \\/     M anipulation  |
\*---------------------------------------------------------------------------*/
FoamFile
{
    version     2.0;
    format      ascii;
    class       volVectorField;
    location    "3.1";
    object      U;
}
// * * * * * * * * * * * * * * * * * * * * * * * * * * * * * * * * * * * * * //

dimensions      [0 1 -1 0 0 0 0];

internalField   nonuniform List<vector> 
18432
(
(3 -4.01702e-18 0)
(3 9.24205e-19 0)
(3 -2.48889e-17 0)
(3 -3.63844e-17 0)
(3 -1.95354e-16 0)
(3 -9.27316e-17 0)
(3 2.68761e-16 0)
(3 2.14463e-16 0)
(3 2.01688e-16 0)
(3 7.97638e-16 0)
(3 1.21997e-15 0)
(3 1.18076e-15 0)
(3 9.39767e-16 0)
(3 6.73995e-16 0)
(3 -8.2026e-18 0)
(3 -9.54408e-16 0)
(3 -7.61123e-16 0)
(3 -8.75527e-16 0)
(3 -4.86043e-16 0)
(3 -1.57409e-16 0)
(3 -1.94492e-16 0)
(3 -5.97649e-16 0)
(3 -5.31221e-16 0)
(3 -1.49525e-16 0)
(3 -7.81181e-17 0)
(3 1.23747e-16 0)
(3 4.92086e-16 0)
(3 2.37419e-16 0)
(3 1.32304e-16 0)
(3 5.26416e-17 0)
(3 4.43755e-17 0)
(3 -2.39987e-16 0)
(3 -3.49796e-16 0)
(3 -3.37012e-16 0)
(3 -5.82123e-16 0)
(3 -7.02709e-16 0)
(3 -1.5314e-15 0)
(3 -1.39303e-15 0)
(3 -1.15387e-15 0)
(3 -9.65207e-16 0)
(3 -8.76685e-16 0)
(3 -1.19875e-15 0)
(3 -6.78889e-16 0)
(3 -1.29159e-16 0)
(3 -1.68604e-16 0)
(3 -2.79257e-16 0)
(3 -4.56655e-16 0)
(3 2.24515e-16 0)
(3 -8.6931e-17 0)
(3 -1.34014e-16 0)
(3 5.76663e-17 0)
(3 1.10584e-16 0)
(3 7.56468e-17 0)
(3 5.01391e-17 0)
(3 4.13766e-16 0)
(3 3.80836e-16 0)
(3 1.98258e-16 0)
(3 7.0985e-16 0)
(3 1.37408e-15 0)
(3 1.96443e-15 0)
(3 1.57908e-15 0)
(3 1.20771e-15 0)
(3 5.92936e-16 0)
(3 -6.4151e-16 0)
(3 -7.94716e-16 0)
(3 -5.90229e-16 0)
(3 1.10535e-16 0)
(3 5.27865e-16 0)
(3 3.32493e-16 0)
(3 -4.08025e-16 0)
(3 -9.04473e-17 0)
(3 5.06109e-16 0)
(3 6.46082e-16 0)
(3 7.26885e-16 0)
(3 1.29539e-15 0)
(3 3.3961e-16 0)
(3 1.15723e-16 0)
(3 -2.01026e-16 0)
(3 -6.04996e-16 0)
(3 -6.84308e-16 0)
(3 -6.10624e-16 0)
(3 -1.19749e-15 0)
(3 -2.09037e-15 0)
(3 -1.72373e-15 0)
(3 -1.61939e-15 0)
(3 -1.03275e-15 0)
(3 -5.64639e-16 0)
(3 -6.06822e-16 0)
(3 -6.36391e-16 0)
(3 -9.76161e-16 0)
(3 -7.85296e-16 0)
(3 -5.34389e-16 0)
(3 -5.33409e-16 0)
(3 -1.05379e-15 0)
(3 -1.48114e-15 0)
(3 -4.21002e-16 0)
(3 -9.65773e-17 0)
(3 -5.33488e-17 0)
(3 -1.0948e-16 0)
(3 -1.1166e-17 0)
(3 3.80101e-16 0)
(3 5.30071e-16 0)
(3 3.23741e-16 0)
(3 4.04435e-16 0)
(3 9.39972e-16 0)
(3 4.83149e-16 0)
(3 4.245e-16 0)
(3 1.04125e-15 0)
(3 1.55347e-15 0)
(3 1.18111e-15 0)
(3 9.95054e-16 0)
(3 6.4348e-16 0)
(3 4.06356e-16 0)
(3 6.11921e-16 0)
(3 4.78952e-16 0)
(3 7.58917e-16 0)
(3 -1.35277e-16 0)
(3 -1.14582e-15 0)
(3 -1.02218e-15 0)
(3 4.80477e-16 0)
(3 1.13121e-15 0)
(3 1.15193e-15 0)
(3 6.68413e-16 0)
(3 8.77045e-16 0)
(3 7.84777e-16 0)
(3 1.94221e-16 0)
(3 -5.1513e-16 0)
(3 -2.72507e-16 0)
(3 -5.13345e-16 0)
(3 -1.52565e-15 0)
(3 -2.21255e-15 0)
(3 -2.23539e-15 0)
(3 -1.29046e-15 0)
(3 -1.17461e-15 0)
(3 -5.92498e-16 0)
(3 -2.70468e-16 0)
(3 -6.03998e-16 0)
(3 -6.92766e-16 0)
(3 -7.38118e-16 0)
(3 -1.02716e-15 0)
(3 -7.89597e-16 0)
(3 -4.89153e-16 0)
(3 -1.71286e-16 0)
(3 3.95198e-16 0)
(3 2.23707e-16 0)
(3 1.26137e-16 0)
(3 -2.42117e-16 0)
(3 -2.8087e-16 0)
(3 -1.15452e-16 0)
(3 -1.26926e-16 0)
(3 -4.31287e-16 0)
(3 -3.29713e-16 0)
(3 1.96537e-16 0)
(3 2.7377e-16 0)
(3 -1.02202e-16 0)
(3 -2.61136e-16 0)
(3 3.76724e-16 0)
(3 1.03655e-15 0)
(3 1.22431e-15 0)
(3 1.54925e-15 0)
(3 1.53545e-15 0)
(3 3.13055e-16 0)
(3 8.09836e-17 0)
(3 3.29285e-16 0)
(3 5.02504e-16 0)
(3 6.80228e-16 0)
(3 2.45269e-16 0)
(3 -7.42237e-17 0)
(3 1.98967e-16 0)
(3 1.30993e-15 0)
(3 9.83521e-16 0)
(3 9.69583e-16 0)
(3 4.76137e-16 0)
(3 -8.58933e-17 0)
(3 6.11287e-16 0)
(3 4.66146e-16 0)
(3 -3.42457e-16 0)
(3 -5.68003e-16 0)
(3 -1.20637e-15 0)
(3 -2.28717e-15 0)
(3 -2.15939e-15 0)
(3 -2.32353e-15 0)
(3 -2.55234e-15 0)
(3 -2.18385e-15 0)
(3 -1.46902e-15 0)
(3 -1.40639e-15 0)
(3 -5.57535e-16 0)
(3 -6.84218e-16 0)
(3 -5.43551e-16 0)
(3 -1.8885e-16 0)
(3 7.80671e-16 0)
(3 6.03767e-16 0)
(3 1.77676e-16 0)
(3 -1.01472e-16 0)
(3 -2.72705e-16 0)
(3 -2.44319e-16 0)
(3 -3.05586e-16 0)
(3 -1.09757e-16 0)
(3 -2.15593e-16 0)
(3 -5.88772e-17 0)
(3 -1.39019e-16 0)
(3 1.56348e-16 0)
(3 1.33674e-16 0)
(3 5.14057e-16 0)
(3 8.7659e-16 0)
(3 1.00004e-15 0)
(3 1.08687e-15 0)
(3 1.3898e-15 0)
(3 8.78012e-16 0)
(3 1.28831e-17 0)
(3 -6.73347e-16 0)
(3 -5.33034e-16 0)
(3 5.73535e-16 0)
(3 1.2436e-15 0)
(3 8.69951e-16 0)
(3 -4.10127e-16 0)
(3 -3.20384e-16 0)
(3 -1.01581e-16 0)
(3 5.06131e-16 0)
(3 -3.53634e-16 0)
(3 -1.03628e-15 0)
(3 -7.87704e-16 0)
(3 9.97387e-18 0)
(3 4.2732e-17 0)
(3 -3.80272e-17 0)
(3 2.77278e-16 0)
(3 -7.01018e-16 0)
(3 -1.36451e-15 0)
(3 -1.76286e-15 0)
(3 -1.24355e-15 0)
(3 -1.57079e-15 0)
(3 -2.52006e-15 0)
(3 -2.45074e-15 0)
(3 -1.1407e-15 0)
(3 -1.31576e-15 0)
(3 -1.13402e-15 0)
(3 -1.45337e-15 0)
(3 -2.22773e-15 0)
(3 -2.48747e-15 0)
(3 -2.47264e-15 0)
(3 -3.81202e-16 0)
(3 -5.66242e-17 0)
(3 -8.61549e-17 0)
(3 -1.51853e-16 0)
(3 2.3466e-18 0)
(3 2.7006e-16 0)
(3 3.688e-16 0)
(3 1.35455e-16 0)
(3 1.86839e-16 0)
(3 3.62958e-16 0)
(3 1.25654e-15 0)
(3 1.32088e-15 0)
(3 6.83057e-16 0)
(3 2.27367e-16 0)
(3 6.15398e-16 0)
(3 7.57846e-16 0)
(3 4.41577e-16 0)
(3 3.1973e-17 0)
(3 -1.94764e-16 0)
(3 -5.09674e-16 0)
(3 -1.36116e-16 0)
(3 -1.20073e-16 0)
(3 -8.0038e-16 0)
(3 -1.58944e-15 0)
(3 -2.11784e-15 0)
(3 -2.57509e-15 0)
(3 -2.48988e-15 0)
(3 -2.02535e-15 0)
(3 -1.71325e-15 0)
(3 -1.29753e-15 0)
(3 -1.46613e-15 0)
(3 -1.41862e-15 0)
(3 -1.1989e-15 0)
(3 -1.30359e-15 0)
(3 -1.71729e-15 0)
(3 -1.95905e-15 0)
(3 -1.65085e-15 0)
(3 -6.40238e-16 0)
(3 -4.87568e-16 0)
(3 -1.82306e-15 0)
(3 -2.36893e-15 0)
(3 -1.48098e-15 0)
(3 -7.71419e-16 0)
(3 -4.20327e-16 0)
(3 -5.01907e-16 0)
(3 -3.50522e-16 0)
(3 -5.6695e-16 0)
(3 -1.02069e-15 0)
(3 4.91038e-17 0)
(3 1.06297e-16 0)
(3 5.81226e-16 0)
(3 1.41773e-16 0)
(3 1.98416e-16 0)
(3 -8.64156e-17 0)
(3 2.88413e-17 0)
(3 -1.88121e-16 0)
(3 -3.81709e-16 0)
(3 7.83029e-17 0)
(3 6.36997e-16 0)
(3 5.30333e-16 0)
(3 9.06834e-17 0)
(3 2.68379e-16 0)
(3 8.87907e-16 0)
(3 5.59524e-16 0)
(3 -4.8327e-16 0)
(3 -5.07815e-16 0)
(3 1.24919e-16 0)
(3 -3.76849e-16 0)
(3 -8.30867e-16 0)
(3 -6.3532e-16 0)
(3 -8.53278e-16 0)
(3 -1.6299e-15 0)
(3 -1.99872e-15 0)
(3 -2.04232e-15 0)
(3 -2.48113e-15 0)
(3 -2.58457e-15 0)
(3 -2.50665e-15 0)
(3 -2.17649e-15 0)
(3 -2.83547e-15 0)
(3 -3.16193e-15 0)
(3 -3.25851e-15 0)
(3 -3.92525e-15 0)
(3 -3.32752e-15 0)
(3 -1.20443e-15 0)
(3 -7.5251e-16 0)
(3 -1.09064e-15 0)
(3 -6.56675e-16 0)
(3 -8.35889e-16 0)
(3 -7.25319e-16 0)
(3 -2.02226e-16 0)
(3 7.74815e-16 0)
(3 1.14719e-15 0)
(3 1.24994e-15 0)
(3 1.06754e-15 0)
(3 8.23459e-16 0)
(3 -8.27032e-17 0)
(3 1.21191e-16 0)
(3 3.34169e-17 0)
(3 -7.16987e-17 0)
(3 -3.57039e-16 0)
(3 -4.62799e-16 0)
(3 -2.44327e-16 0)
(3 2.60221e-16 0)
(3 2.73613e-16 0)
(3 -2.79133e-16 0)
(3 -5.52155e-16 0)
(3 -4.75336e-16 0)
(3 -1.6928e-16 0)
(3 2.02513e-16 0)
(3 4.05663e-16 0)
(3 4.88251e-16 0)
(3 4.45681e-16 0)
(3 3.87521e-16 0)
(3 3.6983e-16 0)
(3 1.35045e-16 0)
(3 4.8787e-16 0)
(3 -8.57259e-16 0)
(3 -9.95442e-16 0)
(3 -2.3331e-16 0)
(3 -3.64097e-16 0)
(3 -8.67034e-16 0)
(3 -6.86969e-16 0)
(3 -1.2113e-15 0)
(3 -1.63746e-15 0)
(3 -1.7583e-15 0)
(3 -2.03169e-15 0)
(3 -1.7214e-15 0)
(3 -1.9587e-15 0)
(3 -2.68841e-15 0)
(3 -2.65709e-15 0)
(3 -2.51909e-15 0)
(3 -1.12537e-15 0)
(3 -1.97189e-17 0)
(3 -9.29445e-17 0)
(3 -2.83274e-16 0)
(3 -3.50708e-16 0)
(3 -3.34704e-16 0)
(3 -8.18579e-16 0)
(3 -3.0709e-16 0)
(3 1.49691e-16 0)
(3 7.10281e-16 0)
(3 7.07491e-16 0)
(3 7.59317e-16 0)
(3 5.4158e-16 0)
(3 -1.22391e-16 0)
(3 -3.49319e-17 0)
(3 -7.07924e-16 0)
(3 -7.0042e-16 0)
(3 -7.41078e-16 0)
(3 -4.91345e-16 0)
(3 -7.3459e-16 0)
(3 -8.64137e-16 0)
(3 -4.40279e-16 0)
(3 -5.51241e-16 0)
(3 -6.593e-16 0)
(3 -5.92525e-16 0)
(3 -4.94172e-16 0)
(3 -5.61696e-16 0)
(3 -5.4752e-16 0)
(3 8.37101e-16 0)
(3 2.34217e-15 0)
(3 2.43061e-15 0)
(3 1.45661e-15 0)
(3 1.27014e-15 0)
(3 5.52892e-16 0)
(3 1.49057e-17 0)
(3 4.02141e-17 0)
(3 4.10329e-16 0)
(3 -1.08081e-15 0)
(3 -1.70839e-15 0)
(3 -1.22086e-15 0)
(3 -4.59422e-16 0)
(3 -3.35948e-16 0)
(3 -6.14105e-16 0)
(3 -1.73932e-16 0)
(3 -1.56766e-16 0)
(3 -4.93621e-16 0)
(3 -2.03344e-16 0)
(3 -3.27076e-16 0)
(3 -5.54835e-16 0)
(3 -4.92087e-16 0)
(3 -4.97642e-16 0)
(3 -1.04355e-15 0)
(3 -1.52884e-15 0)
(3 -1.91007e-15 0)
(3 -2.69603e-15 0)
(3 -2.45094e-15 0)
(3 -1.94592e-15 0)
(3 -1.23435e-15 0)
(3 -8.16633e-16 0)
(3 -5.6983e-16 0)
(3 -3.24977e-16 0)
(3 -1.39587e-16 0)
(3 -1.6804e-16 0)
(3 3.78665e-17 0)
(3 2.29713e-16 0)
(3 3.48868e-16 0)
(3 3.20707e-16 0)
(3 -1.03289e-16 0)
(3 -3.24551e-16 0)
(3 -3.46339e-16 0)
(3 -4.09206e-16 0)
(3 -9.1299e-16 0)
(3 -1.18653e-15 0)
(3 -1.20422e-15 0)
(3 -1.28673e-15 0)
(3 -6.19389e-16 0)
(3 9.71508e-16 0)
(3 1.15666e-15 0)
(3 9.24119e-16 0)
(3 5.36053e-16 0)
(3 8.71141e-17 0)
(3 6.69179e-16 0)
(3 1.03914e-15 0)
(3 8.85946e-16 0)
(3 1.23598e-15 0)
(3 2.81233e-16 0)
(3 -4.01671e-16 0)
(3 -1.20594e-15 0)
(3 -1.35121e-15 0)
(3 -8.98072e-16 0)
(3 -4.4457e-16 0)
(3 -3.06894e-16 0)
(3 1.3367e-16 0)
(3 4.00756e-16 0)
(3 4.26767e-16 0)
(3 4.88792e-16 0)
(3 -3.77897e-18 0)
(3 2.20426e-17 0)
(3 -2.42152e-16 0)
(3 -8.80164e-16 0)
(3 -9.35698e-16 0)
(3 -1.44756e-15 0)
(3 -2.90246e-15 0)
(3 -3.25006e-15 0)
(3 -2.26462e-15 0)
(3 -1.76661e-15 0)
(3 -1.51262e-15 0)
(3 -1.6338e-15 0)
(3 -1.68338e-15 0)
(3 2.24366e-17 0)
(3 -2.57862e-17 0)
(3 4.41034e-16 0)
(3 7.67518e-16 0)
(3 1.01049e-15 0)
(3 5.87792e-16 0)
(3 4.96317e-16 0)
(3 -4.9378e-17 0)
(3 -6.17857e-16 0)
(3 -1.07796e-15 0)
(3 -1.23747e-15 0)
(3 -1.25189e-15 0)
(3 -1.26104e-15 0)
(3 -7.06207e-16 0)
(3 5.20761e-16 0)
(3 1.03223e-15 0)
(3 6.52982e-16 0)
(3 -4.4399e-16 0)
(3 -5.09215e-16 0)
(3 -2.58998e-16 0)
(3 3.88572e-16 0)
(3 1.32427e-15 0)
(3 1.53034e-15 0)
(3 1.18192e-15 0)
(3 8.62772e-16 0)
(3 2.96744e-16 0)
(3 -1.47249e-17 0)
(3 -1.64518e-17 0)
(3 4.30996e-16 0)
(3 3.11566e-16 0)
(3 -2.95572e-16 0)
(3 -8.20474e-16 0)
(3 -7.08766e-16 0)
(3 -6.93395e-16 0)
(3 -7.28891e-16 0)
(3 -6.21986e-16 0)
(3 -3.83476e-16 0)
(3 -6.15954e-16 0)
(3 -6.33799e-16 0)
(3 -2.63477e-16 0)
(3 -5.15865e-17 0)
(3 -8.82039e-16 0)
(3 -1.87045e-15 0)
(3 -1.23377e-15 0)
(3 -3.25341e-16 0)
(3 1.07031e-16 0)
(3 1.56438e-16 0)
(3 4.4186e-17 0)
(3 2.85194e-17 0)
(3 -1.88449e-16 0)
(3 -8.65948e-17 0)
(3 -1.10957e-16 0)
(3 -7.01648e-16 0)
(3 -8.33046e-16 0)
(3 -7.41897e-16 0)
(3 -9.50321e-16 0)
(3 -1.34702e-15 0)
(3 -1.59818e-15 0)
(3 -1.79012e-15 0)
(3 -1.69706e-15 0)
(3 -1.49002e-15 0)
(3 -1.04332e-15 0)
(3 1.61255e-16 0)
(3 5.68622e-16 0)
(3 1.56786e-16 0)
(3 -3.79126e-16 0)
(3 -8.13165e-18 0)
(3 3.77032e-16 0)
(3 3.12739e-16 0)
(3 6.69195e-16 0)
(3 6.25412e-16 0)
(3 3.81636e-16 0)
(3 6.46436e-16 0)
(3 6.74483e-16 0)
(3 8.45008e-16 0)
(3 7.3504e-16 0)
(3 6.71701e-16 0)
(3 9.97919e-17 0)
(3 -8.40943e-16 0)
(3 -1.36615e-15 0)
(3 -1.71769e-15 0)
(3 -1.5789e-15 0)
(3 -1.19257e-15 0)
(3 -4.4277e-16 0)
(3 -6.03043e-16 0)
(3 -1.72973e-15 0)
(3 -1.42264e-15 0)
(3 -1.02128e-15 0)
(3 -2.53531e-16 0)
(3 4.38912e-16 0)
(3 5.18734e-16 0)
(3 6.19738e-16 0)
(3 8.16884e-16 0)
(3 1.16022e-15 0)
(3 1.01383e-15 0)
(3 4.2296e-16 0)
(3 -2.13551e-18 0)
(3 3.15231e-17 0)
(3 6.7637e-17 0)
(3 -1.22722e-16 0)
(3 -5.97514e-16 0)
(3 -9.29431e-17 0)
(3 -3.76198e-17 0)
(3 2.63525e-16 0)
(3 2.58374e-16 0)
(3 3.82243e-16 0)
(3 3.57732e-16 0)
(3 -6.2034e-17 0)
(3 -7.42289e-16 0)
(3 -1.43384e-15 0)
(3 2.5839e-17 0)
(3 -2.63919e-16 0)
(3 -6.17217e-16 0)
(3 -1.27501e-16 0)
(3 1.50159e-16 0)
(3 8.79606e-16 0)
(3 1.08157e-15 0)
(3 5.99578e-16 0)
(3 -2.25746e-16 0)
(3 -1.50539e-16 0)
(3 4.92533e-16 0)
(3 2.11381e-15 0)
(3 1.4606e-15 0)
(3 6.44419e-16 0)
(3 -1.29373e-16 0)
(3 -1.03928e-16 0)
(3 -5.68263e-16 0)
(3 -8.6507e-16 0)
(3 -1.03207e-15 0)
(3 -1.24295e-15 0)
(3 -1.03669e-15 0)
(3 -1.01235e-15 0)
(3 -7.15566e-16 0)
(3 -2.45213e-16 0)
(3 5.66326e-16 0)
(3 5.82335e-16 0)
(3 7.63234e-16 0)
(3 1.18238e-15 0)
(3 1.22862e-15 0)
(3 1.54168e-15 0)
(3 1.24436e-15 0)
(3 1.28995e-15 0)
(3 8.49009e-16 0)
(3 -5.31765e-17 0)
(3 2.50438e-16 0)
(3 3.49481e-16 0)
(3 3.54542e-16 0)
(3 1.60593e-16 0)
(3 2.4793e-16 0)
(3 1.32841e-16 0)
(3 3.93457e-16 0)
(3 1.20182e-15 0)
(3 1.46285e-15 0)
(3 1.51806e-15 0)
(3 1.27942e-15 0)
(3 8.81796e-16 0)
(3 5.40228e-16 0)
(3 3.68411e-16 0)
(3 5.34956e-16 0)
(3 8.66429e-16 0)
(3 1.07834e-15 0)
(3 6.649e-16 0)
(3 2.51279e-16 0)
(3 4.19957e-16 0)
(3 7.4459e-16 0)
(3 3.50814e-16 0)
(3 1.51948e-17 0)
(3 9.80344e-16 0)
(3 1.82538e-15 0)
(3 1.78667e-15 0)
(3 6.93587e-16 0)
(3 1.10068e-15 0)
(3 1.44527e-15 0)
(3 1.24311e-15 0)
(3 1.22756e-15 0)
(3 8.22533e-16 0)
(3 5.04111e-16 0)
(3 -1.02991e-16 0)
(3 -4.42723e-16 0)
(3 -8.58742e-16 0)
(3 -6.30399e-16 0)
(3 -3.73023e-16 0)
(3 -5.57878e-16 0)
(3 -6.46741e-17 0)
(3 1.61127e-16 0)
(3 3.74066e-16 0)
(3 -7.94174e-17 0)
(3 -2.67776e-16 0)
(3 1.70448e-16 0)
(3 1.69147e-16 0)
(3 1.18709e-16 0)
(3 8.49158e-17 0)
(3 6.94053e-17 0)
(3 2.18278e-16 0)
(3 9.00394e-17 0)
(3 1.456e-16 0)
(3 2.56875e-16 0)
(3 1.24567e-16 0)
(3 7.46264e-17 0)
(3 6.71835e-17 0)
(3 -2.45348e-17 0)
(3 -1.91723e-16 0)
(3 -2.10394e-16 0)
(3 4.37807e-17 0)
(3 5.90873e-16 0)
(3 9.29683e-16 0)
(3 3.08757e-16 0)
(3 9.92116e-16 0)
(3 1.68707e-15 0)
(3 1.43425e-15 0)
(3 4.16943e-16 0)
(3 -3.65169e-16 0)
(3 -3.14722e-16 0)
(3 3.71714e-16 0)
(3 8.46898e-16 0)
(3 1.68874e-15 0)
(3 1.69137e-15 0)
(3 1.16138e-15 0)
(3 1.50894e-15 0)
(3 1.18206e-15 0)
(3 1.9673e-15 0)
(3 1.61517e-15 0)
(3 1.71312e-15 0)
(3 1.53496e-15 0)
(3 1.05407e-15 0)
(3 5.40309e-16 0)
(3 -2.59358e-16 0)
(3 -7.02288e-16 0)
(3 -8.48294e-16 0)
(3 -7.44119e-16 0)
(3 -9.44767e-16 0)
(3 -1.18549e-15 0)
(3 -7.99873e-16 0)
(3 -5.55749e-16 0)
(3 -7.49373e-16 0)
(3 -1.02599e-15 0)
(3 -8.0908e-16 0)
(3 -7.3793e-16 0)
(3 -1.62571e-16 0)
(3 2.41716e-16 0)
(3 -2.97392e-17 0)
(3 -1.96835e-17 0)
(3 -1.26975e-16 0)
(3 5.97776e-17 0)
(3 4.38136e-16 0)
(3 5.17979e-16 0)
(3 2.12447e-16 0)
(3 -3.14146e-16 0)
(3 -3.5997e-16 0)
(3 -6.03197e-16 0)
(3 -4.27227e-16 0)
(3 2.26865e-16 0)
(3 5.78886e-16 0)
(3 5.3451e-16 0)
(3 3.85075e-16 0)
(3 1.71761e-16 0)
(3 -5.2415e-16 0)
(3 -5.15244e-16 0)
(3 -6.61215e-16 0)
(3 -1.10856e-15 0)
(3 -8.75044e-16 0)
(3 -7.97784e-16 0)
(3 -4.3393e-16 0)
(3 -1.42995e-16 0)
(3 2.71684e-16 0)
(3 9.04238e-16 0)
(3 1.51766e-15 0)
(3 1.39776e-15 0)
(3 1.13302e-15 0)
(3 5.18653e-16 0)
(3 5.76665e-16 0)
(3 1.31993e-16 0)
(3 1.00279e-16 0)
(3 3.08043e-18 0)
(3 3.63344e-17 0)
(3 3.71362e-16 0)
(3 4.90384e-17 0)
(3 -8.44375e-17 0)
(3 2.96782e-16 0)
(3 -4.71552e-16 0)
(3 -4.48295e-16 0)
(3 -9.3543e-16 0)
(3 -1.01699e-15 0)
(3 -1.19334e-15 0)
(3 -1.30866e-15 0)
(3 -1.09566e-15 0)
(3 -3.76905e-16 0)
(3 5.0741e-17 0)
(3 -6.10766e-17 0)
(3 -3.73236e-16 0)
(3 -6.08648e-17 0)
(3 5.29553e-18 0)
(3 1.0335e-16 0)
(3 3.43755e-16 0)
(3 5.12395e-16 0)
(3 6.6753e-16 0)
(3 4.90804e-16 0)
(3 5.64131e-16 0)
(3 9.42844e-17 0)
(3 2.78981e-16 0)
(3 6.26082e-16 0)
(3 4.74469e-16 0)
(3 6.15745e-17 0)
(3 -6.9165e-16 0)
(3 -1.20522e-15 0)
(3 -1.09821e-15 0)
(3 -6.82814e-16 0)
(3 -1.654e-15 0)
(3 -1.93852e-15 0)
(3 -2.03204e-15 0)
(3 -1.49412e-15 0)
(3 -3.79421e-16 0)
(3 1.57763e-16 0)
(3 1.74681e-15 0)
(3 2.0786e-15 0)
(3 1.65817e-15 0)
(3 1.02792e-15 0)
(3 4.83629e-16 0)
(3 -7.39536e-16 0)
(3 -1.61373e-15 0)
(3 -1.07224e-15 0)
(3 -4.32643e-16 0)
(3 -7.78089e-17 0)
(3 8.88987e-17 0)
(3 -1.92996e-16 0)
(3 -4.9058e-16 0)
(3 -6.42412e-16 0)
(3 2.12611e-16 0)
(3 1.67435e-16 0)
(3 -3.38955e-16 0)
(3 -3.9621e-16 0)
(3 -7.68599e-16 0)
(3 -1.00644e-15 0)
(3 -6.79221e-16 0)
(3 -4.29292e-16 0)
(3 -2.68419e-16 0)
(3 -2.33734e-16 0)
(3 -3.15472e-16 0)
(3 6.24089e-17 0)
(3 1.75157e-16 0)
(3 3.77088e-16 0)
(3 6.73681e-16 0)
(3 8.89855e-16 0)
(3 9.79826e-16 0)
(3 8.41871e-16 0)
(3 6.59135e-16 0)
(3 3.54074e-16 0)
(3 6.25847e-17 0)
(3 5.17369e-16 0)
(3 1.0164e-16 0)
(3 -1.28964e-15 0)
(3 -1.69447e-15 0)
(3 -1.55349e-15 0)
(3 -8.54517e-16 0)
(3 -3.37522e-16 0)
(3 -1.13455e-16 0)
(3 -1.69397e-15 0)
(3 -1.57025e-15 0)
(3 -1.46257e-15 0)
(3 -1.41099e-15 0)
(3 -7.8809e-16 0)
(3 1.55311e-16 0)
(3 1.04694e-15 0)
(3 7.51681e-16 0)
(3 5.96208e-16 0)
(3 -5.51411e-17 0)
(3 -1.83788e-15 0)
(3 -2.16435e-15 0)
(3 -1.55537e-15 0)
(3 -9.59461e-16 0)
(3 -1.20839e-15 0)
(3 -1.31609e-15 0)
(3 -4.3057e-16 0)
(3 -4.10308e-17 0)
(3 3.601e-16 0)
(3 3.1947e-16 0)
(3 4.55948e-16 0)
(3 2.7857e-16 0)
(3 -6.64873e-17 0)
(3 -2.09357e-16 0)
(3 -1.10548e-15 0)
(3 -1.0675e-15 0)
(3 -1.07952e-15 0)
(3 -1.49838e-15 0)
(3 1.92877e-17 0)
(3 2.29911e-16 0)
(3 1.5546e-16 0)
(3 2.37132e-16 0)
(3 4.15447e-16 0)
(3 1.41627e-16 0)
(3 -4.07008e-17 0)
(3 -2.42432e-16 0)
(3 9.29069e-17 0)
(3 3.48393e-16 0)
(3 4.79634e-16 0)
(3 3.5911e-16 0)
(3 6.28906e-16 0)
(3 -4.74151e-16 0)
(3 -1.75125e-15 0)
(3 -2.0701e-15 0)
(3 -1.19712e-15 0)
(3 -1.11098e-16 0)
(3 5.26841e-16 0)
(3 7.38236e-16 0)
(3 -2.47991e-17 0)
(3 -2.13006e-16 0)
(3 -7.6561e-16 0)
(3 -1.39686e-15 0)
(3 -7.8633e-16 0)
(3 5.22468e-17 0)
(3 -2.99446e-16 0)
(3 3.47333e-17 0)
(3 3.14003e-16 0)
(3 1.62569e-16 0)
(3 4.40145e-16 0)
(3 5.685e-16 0)
(3 -1.06587e-16 0)
(3 -2.15815e-16 0)
(3 -3.79736e-16 0)
(3 -9.31549e-16 0)
(3 -9.53722e-16 0)
(3 -5.33738e-16 0)
(3 2.27921e-16 0)
(3 5.31353e-16 0)
(3 6.11021e-16 0)
(3 6.02431e-16 0)
(3 5.90549e-16 0)
(3 -2.20262e-16 0)
(3 -2.30526e-16 0)
(3 -4.71169e-16 0)
(3 -1.42904e-16 0)
(3 -1.61555e-16 0)
(3 1.52105e-16 0)
(3 3.21736e-16 0)
(3 1.13009e-16 0)
(3 8.88946e-17 0)
(3 -2.07212e-16 0)
(3 -4.11598e-16 0)
(3 -4.75781e-16 0)
(3 -5.25628e-16 0)
(3 -4.35661e-16 0)
(3 -1.06782e-17 0)
(3 -3.88786e-17 0)
(3 6.6254e-16 0)
(3 3.68713e-16 0)
(3 -3.10251e-16 0)
(3 -5.35363e-16 0)
(3 -5.50574e-16 0)
(3 -4.96017e-16 0)
(3 2.7759e-16 0)
(3 4.27801e-16 0)
(3 7.39461e-17 0)
(3 8.72888e-17 0)
(3 -6.93075e-17 0)
(3 -7.0905e-16 0)
(3 -8.14037e-16 0)
(3 -6.89872e-16 0)
(3 -3.77365e-16 0)
(3 -8.7215e-16 0)
(3 -9.57997e-16 0)
(3 -8.41458e-16 0)
(3 -2.46522e-16 0)
(3 1.09329e-15 0)
(3 5.90275e-16 0)
(3 1.27238e-16 0)
(3 -1.06356e-16 0)
(3 -5.39662e-16 0)
(3 -7.99212e-16 0)
(3 -1.0959e-15 0)
(3 -6.79198e-16 0)
(3 -4.84508e-16 0)
(3 2.66287e-17 0)
(3 -2.32554e-16 0)
(3 2.6826e-16 0)
(3 4.66029e-16 0)
(3 1.03547e-15 0)
(3 1.34464e-15 0)
(3 9.31546e-16 0)
(3 9.44912e-16 0)
(3 1.02854e-15 0)
(3 -8.14698e-17 0)
(3 -1.14559e-16 0)
(3 -3.44174e-16 0)
(3 -6.40905e-16 0)
(3 -7.20318e-16 0)
(3 -3.07325e-16 0)
(3 1.29173e-17 0)
(3 6.23206e-17 0)
(3 -1.08253e-16 0)
(3 -2.00867e-16 0)
(3 1.8351e-16 0)
(3 2.00625e-16 0)
(3 -1.31664e-16 0)
(3 3.68134e-18 0)
(3 6.40164e-16 0)
(3 4.55653e-16 0)
(3 -4.49098e-16 0)
(3 7.92573e-16 0)
(3 1.49508e-15 0)
(3 1.67733e-15 0)
(3 1.64756e-15 0)
(3 1.20959e-15 0)
(3 4.34136e-16 0)
(3 1.18645e-16 0)
(3 -2.40744e-16 0)
(3 -1.35147e-15 0)
(3 -1.27441e-15 0)
(3 -1.01253e-15 0)
(3 -8.78005e-16 0)
(3 -1.84268e-16 0)
(3 -1.75036e-16 0)
(3 3.62761e-17 0)
(3 -1.25882e-16 0)
(3 -2.56324e-17 0)
(3 -1.90033e-16 0)
(3 -6.58472e-16 0)
(3 -1.51724e-16 0)
(3 -6.10451e-16 0)
(3 -1.74312e-15 0)
(3 -2.21781e-15 0)
(3 -1.19777e-15 0)
(3 -6.07084e-17 0)
(3 3.62912e-16 0)
(3 9.44141e-16 0)
(3 1.36198e-15 0)
(3 1.7956e-15 0)
(3 1.35167e-15 0)
(3 7.4517e-16 0)
(3 -2.1782e-16 0)
(3 -3.32049e-16 0)
(3 -5.08447e-16 0)
(3 -5.03872e-16 0)
(3 -4.06789e-16 0)
(3 -6.26448e-17 0)
(3 -1.9489e-16 0)
(3 -4.97163e-16 0)
(3 -7.73492e-16 0)
(3 -7.00032e-16 0)
(3 -5.38993e-16 0)
(3 -6.2028e-16 0)
(3 -4.29112e-16 0)
(3 -6.06352e-18 0)
(3 1.9693e-16 0)
(3 2.40835e-16 0)
(3 2.40092e-16 0)
(3 1.68503e-16 0)
(3 7.32526e-16 0)
(3 2.26668e-15 0)
(3 2.79515e-15 0)
(3 2.86268e-15 0)
(3 2.66636e-15 0)
(3 1.80894e-15 0)
(3 1.02616e-15 0)
(3 6.91161e-16 0)
(3 6.18036e-16 0)
(3 3.41893e-16 0)
(3 5.2899e-17 0)
(3 1.23251e-16 0)
(3 -1.66534e-17 0)
(3 5.6872e-17 0)
(3 1.41609e-16 0)
(3 -1.53108e-16 0)
(3 5.18179e-16 0)
(3 7.77665e-16 0)
(3 5.40451e-16 0)
(3 -1.58778e-16 0)
(3 -1.12401e-15 0)
(3 -1.46943e-15 0)
(3 -1.0125e-15 0)
(3 -4.34002e-17 0)
(3 7.79561e-16 0)
(3 7.72663e-16 0)
(3 1.22293e-15 0)
(3 9.57866e-16 0)
(3 3.63254e-16 0)
(3 3.99243e-16 0)
(3 8.21604e-18 0)
(3 -6.54143e-17 0)
(3 -2.53413e-16 0)
(3 6.03473e-17 0)
(3 6.51191e-17 0)
(3 2.68769e-17 0)
(3 -3.22412e-16 0)
(3 -7.14297e-16 0)
(3 -3.13848e-16 0)
(3 -3.07519e-16 0)
(3 -3.806e-16 0)
(3 -4.892e-16 0)
(3 -1.66202e-16 0)
(3 1.23186e-16 0)
(3 8.47063e-17 0)
(3 -4.63766e-17 0)
(3 1.03639e-16 0)
(3 -5.34421e-17 0)
(3 1.20883e-16 0)
(3 5.60878e-16 0)
(3 1.22554e-15 0)
(3 1.40715e-15 0)
(3 1.85799e-15 0)
(3 1.9892e-15 0)
(3 2.08011e-15 0)
(3 2.00257e-15 0)
(3 1.37251e-15 0)
(3 3.72765e-17 0)
(3 -2.63968e-16 0)
(3 -2.73271e-16 0)
(3 -3.02654e-16 0)
(3 5.42224e-17 0)
(3 4.53524e-16 0)
(3 6.85489e-16 0)
(3 2.00399e-16 0)
(3 -5.43603e-16 0)
(3 -6.13877e-16 0)
(3 -7.51678e-16 0)
(3 -8.93495e-16 0)
(3 -1.0201e-15 0)
(3 -1.32533e-15 0)
(3 -1.11798e-15 0)
(3 -1.61903e-16 0)
(3 -7.30527e-17 0)
(3 1.4204e-16 0)
(3 -2.86119e-16 0)
(3 -7.06568e-16 0)
(3 -9.97749e-16 0)
(3 2.64009e-17 0)
(3 -1.40089e-16 0)
(3 1.88976e-16 0)
(3 2.11743e-16 0)
(3 -9.26461e-17 0)
(3 -1.20339e-16 0)
(3 7.65308e-17 0)
(3 6.47995e-16 0)
(3 1.02726e-15 0)
(3 5.54919e-16 0)
(3 9.17981e-16 0)
(3 9.28958e-16 0)
(3 5.65176e-16 0)
(3 1.54434e-16 0)
(3 -3.01274e-16 0)
(3 -5.56434e-16 0)
(3 -5.51137e-16 0)
(3 -1.21382e-16 0)
(3 -1.72022e-16 0)
(3 -3.71998e-16 0)
(3 -1.32465e-16 0)
(3 -1.03193e-16 0)
(3 5.67932e-16 0)
(3 1.43257e-15 0)
(3 1.56233e-15 0)
(3 1.57848e-15 0)
(3 1.59125e-15 0)
(3 1.55984e-15 0)
(3 1.38884e-15 0)
(3 1.20277e-15 0)
(3 1.34189e-15 0)
(3 9.8336e-16 0)
(3 7.36995e-16 0)
(3 1.34703e-15 0)
(3 1.17709e-15 0)
(3 8.14304e-16 0)
(3 2.59756e-16 0)
(3 -1.1511e-16 0)
(3 1.39094e-16 0)
(3 -2.1883e-17 0)
(3 -2.2714e-16 0)
(3 -7.53536e-16 0)
(3 -6.08031e-16 0)
(3 -4.39621e-16 0)
(3 -6.32551e-16 0)
(3 -4.85095e-16 0)
(3 -4.25573e-16 0)
(3 -4.1994e-16 0)
(3 7.30194e-17 0)
(3 9.05847e-17 0)
(3 3.50426e-16 0)
(3 2.89329e-16 0)
(3 2.56192e-16 0)
(3 -3.78322e-16 0)
(3 -5.03384e-16 0)
(3 2.05745e-16 0)
(3 7.95945e-17 0)
(3 4.03824e-16 0)
(3 5.57188e-16 0)
(3 7.48933e-16 0)
(3 4.55486e-16 0)
(3 1.18822e-16 0)
(3 3.10072e-17 0)
(3 5.38902e-17 0)
(3 -1.4385e-16 0)
(3 -5.23361e-16 0)
(3 -1.08921e-15 0)
(3 -1.20894e-15 0)
(3 -9.24963e-16 0)
(3 1.23148e-17 0)
(3 -2.04936e-16 0)
(3 -1.76369e-16 0)
(3 -1.99465e-16 0)
(3 -2.20747e-16 0)
(3 1.00936e-15 0)
(3 2.26826e-15 0)
(3 2.8372e-15 0)
(3 3.15892e-15 0)
(3 3.07829e-15 0)
(3 2.45828e-15 0)
(3 1.14554e-15 0)
(3 8.02867e-16 0)
(3 1.15075e-15 0)
(3 1.87818e-15 0)
(3 1.83077e-15 0)
(3 1.737e-15 0)
(3 2.09436e-15 0)
(3 1.93357e-15 0)
(3 8.6692e-16 0)
(3 -8.29018e-16 0)
(3 -1.97401e-15 0)
(3 -1.54247e-15 0)
(3 -1.29335e-15 0)
(3 -8.02687e-16 0)
(3 1.83005e-17 0)
(3 1.28921e-15 0)
(3 9.27705e-17 0)
(3 8.52858e-16 0)
(3 4.97513e-16 0)
(3 4.53715e-16 0)
(3 3.66193e-16 0)
(3 -3.54297e-16 0)
(3 -5.18797e-16 0)
(3 -1.42525e-16 0)
(3 6.40608e-17 0)
(3 6.53732e-16 0)
(3 6.43244e-16 0)
(3 6.7403e-16 0)
(3 7.0985e-16 0)
(3 8.86199e-16 0)
(3 1.85103e-15 0)
(3 1.58822e-15 0)
(3 1.2131e-15 0)
(3 3.906e-16 0)
(3 -7.58396e-16 0)
(3 -1.10248e-15 0)
(3 -1.28133e-15 0)
(3 -8.58495e-16 0)
(3 -1.00453e-15 0)
(3 -9.81889e-16 0)
(3 -5.65884e-16 0)
(3 -1.12704e-16 0)
(3 2.68386e-16 0)
(3 7.06706e-16 0)
(3 7.69228e-16 0)
(3 6.96533e-16 0)
(3 6.12466e-16 0)
(3 7.95694e-16 0)
(3 7.15415e-16 0)
(3 6.9174e-17 0)
(3 -7.63369e-17 0)
(3 1.93741e-16 0)
(3 9.94356e-16 0)
(3 1.75694e-15 0)
(3 1.67786e-15 0)
(3 1.86968e-15 0)
(3 1.07856e-15 0)
(3 1.47396e-16 0)
(3 -7.48778e-16 0)
(3 -1.34141e-15 0)
(3 -1.25755e-15 0)
(3 -6.09353e-16 0)
(3 -4.73039e-16 0)
(3 -2.49031e-16 0)
(3 1.67846e-16 0)
(3 2.01562e-16 0)
(3 -1.4514e-16 0)
(3 -1.40394e-16 0)
(3 -1.90189e-16 0)
(3 1.06806e-16 0)
(3 3.19444e-16 0)
(3 4.20993e-16 0)
(3 1.71038e-16 0)
(3 -3.06489e-16 0)
(3 -6.42658e-16 0)
(3 -3.90155e-16 0)
(3 -3.52114e-17 0)
(3 2.0327e-16 0)
(3 4.7857e-16 0)
(3 1.10703e-15 0)
(3 1.39437e-15 0)
(3 1.66721e-15 0)
(3 6.44455e-16 0)
(3 4.61708e-16 0)
(3 -1.22065e-16 0)
(3 -7.44753e-16 0)
(3 -6.60857e-16 0)
(3 -4.04028e-16 0)
(3 -4.63601e-16 0)
(3 -3.90531e-16 0)
(3 -1.76713e-16 0)
(3 -3.26721e-16 0)
(3 -6.95864e-16 0)
(3 -8.72914e-16 0)
(3 -8.49557e-16 0)
(3 -6.06618e-16 0)
(3 -3.6814e-16 0)
(3 -4.13427e-16 0)
(3 -3.88683e-16 0)
(3 -2.73195e-16 0)
(3 1.48952e-17 0)
(3 2.5803e-16 0)
(3 1.33399e-16 0)
(3 7.21212e-16 0)
(3 8.07161e-16 0)
(3 8.20516e-16 0)
(3 7.54779e-16 0)
(3 -4.16026e-17 0)
(3 -3.90553e-16 0)
(3 -4.45367e-16 0)
(3 -7.38938e-16 0)
(3 -1.15281e-15 0)
(3 1.549e-17 0)
(3 -1.76475e-16 0)
(3 -3.85509e-16 0)
(3 -4.05806e-16 0)
(3 -4.99261e-16 0)
(3 2.3778e-17 0)
(3 3.03278e-16 0)
(3 1.50637e-16 0)
(3 2.13943e-16 0)
(3 -2.39362e-16 0)
(3 -5.45688e-16 0)
(3 -1.0995e-15 0)
(3 -1.33503e-15 0)
(3 -9.68423e-16 0)
(3 -5.67914e-16 0)
(3 2.92531e-16 0)
(3 8.9525e-16 0)
(3 1.0653e-15 0)
(3 1.25782e-15 0)
(3 1.39194e-15 0)
(3 4.55876e-16 0)
(3 1.62673e-16 0)
(3 4.58343e-16 0)
(3 5.40589e-16 0)
(3 -1.58175e-16 0)
(3 -9.50378e-16 0)
(3 -7.91358e-16 0)
(3 -3.87422e-16 0)
(3 -8.49286e-16 0)
(3 -1.28602e-15 0)
(3 -8.00143e-16 0)
(3 -2.83683e-16 0)
(3 -2.10174e-16 0)
(3 -9.40331e-17 0)
(3 7.91044e-17 0)
(3 2.26408e-16 0)
(3 1.57046e-16 0)
(3 6.8142e-16 0)
(3 1.09058e-15 0)
(3 9.50794e-16 0)
(3 1.82205e-15 0)
(3 7.79681e-16 0)
(3 2.62719e-16 0)
(3 2.81941e-16 0)
(3 -1.53946e-16 0)
(3 -4.96222e-16 0)
(3 -3.62177e-17 0)
(3 9.58267e-16 0)
(3 -2.28328e-16 0)
(3 -3.69097e-16 0)
(3 -1.81091e-16 0)
(3 1.06089e-17 0)
(3 1.63645e-16 0)
(3 -2.62785e-17 0)
(3 -1.10684e-16 0)
(3 -3.82928e-16 0)
(3 -1.25441e-16 0)
(3 -1.97782e-17 0)
(3 1.51077e-16 0)
(3 -2.11803e-16 0)
(3 -7.41169e-16 0)
(3 -7.97812e-16 0)
(3 -6.43214e-16 0)
(3 -4.86822e-16 0)
(3 -2.99878e-16 0)
(3 3.37422e-16 0)
(3 9.06269e-16 0)
(3 8.01489e-16 0)
(3 -1.8447e-16 0)
(3 -3.01849e-16 0)
(3 -1.56457e-16 0)
(3 -2.38574e-16 0)
(3 -3.95132e-16 0)
(3 -7.29325e-16 0)
(3 -1.26797e-15 0)
(3 -1.34078e-15 0)
(3 -1.07688e-15 0)
(3 -1.3472e-15 0)
(3 -7.1179e-16 0)
(3 1.38292e-16 0)
(3 4.63852e-16 0)
(3 8.56829e-16 0)
(3 9.52138e-16 0)
(3 1.11137e-15 0)
(3 1.24532e-15 0)
(3 1.80549e-15 0)
(3 2.37407e-15 0)
(3 1.96061e-15 0)
(3 1.77085e-15 0)
(3 6.52507e-16 0)
(3 -2.07473e-17 0)
(3 3.02317e-17 0)
(3 1.1888e-16 0)
(3 -4.03511e-16 0)
(3 -1.31686e-16 0)
(3 1.76659e-15 0)
(3 1.86258e-17 0)
(3 3.12056e-17 0)
(3 1.70888e-16 0)
(3 3.49097e-16 0)
(3 5.30621e-16 0)
(3 4.46963e-16 0)
(3 -1.39168e-16 0)
(3 -4.87854e-16 0)
(3 -4.97152e-16 0)
(3 -2.6498e-16 0)
(3 -6.74414e-16 0)
(3 -1.06497e-15 0)
(3 -1.3548e-15 0)
(3 -1.50919e-15 0)
(3 -1.87984e-15 0)
(3 -1.32146e-15 0)
(3 -1.42979e-15 0)
(3 -7.81727e-16 0)
(3 5.86955e-16 0)
(3 7.36936e-16 0)
(3 7.69016e-16 0)
(3 5.59672e-16 0)
(3 -3.02035e-16 0)
(3 -6.66724e-16 0)
(3 -1.50639e-15 0)
(3 -1.77632e-15 0)
(3 -2.34567e-15 0)
(3 -2.17854e-15 0)
(3 -8.78961e-16 0)
(3 4.05323e-16 0)
(3 6.30517e-16 0)
(3 6.75358e-16 0)
(3 1.03246e-15 0)
(3 1.32071e-15 0)
(3 2.11142e-15 0)
(3 1.90263e-15 0)
(3 2.69008e-15 0)
(3 1.814e-15 0)
(3 1.15835e-15 0)
(3 1.73664e-15 0)
(3 1.81469e-15 0)
(3 1.51749e-15 0)
(3 1.0182e-15 0)
(3 7.61959e-16 0)
(3 7.75777e-16 0)
(3 1.35541e-15 0)
(3 1.70379e-15 0)
(3 2.10723e-15 0)
(3 2.06896e-16 0)
(3 3.24729e-16 0)
(3 1.96702e-16 0)
(3 -1.79514e-16 0)
(3 -3.27379e-16 0)
(3 1.51225e-16 0)
(3 1.5081e-16 0)
(3 5.43438e-17 0)
(3 2.29226e-16 0)
(3 -1.89896e-16 0)
(3 -4.58565e-16 0)
(3 -1.10555e-15 0)
(3 -1.94894e-15 0)
(3 -2.00796e-15 0)
(3 -1.99665e-15 0)
(3 -1.6565e-15 0)
(3 -1.08373e-15 0)
(3 -9.01778e-16 0)
(3 -4.08532e-16 0)
(3 4.99952e-16 0)
(3 1.56316e-15 0)
(3 1.33601e-15 0)
(3 1.76721e-16 0)
(3 -1.27846e-15 0)
(3 -1.53547e-15 0)
(3 -1.83065e-15 0)
(3 -1.83364e-15 0)
(3 -9.63517e-16 0)
(3 -5.69581e-17 0)
(3 9.289e-16 0)
(3 1.17885e-15 0)
(3 5.66746e-16 0)
(3 3.23215e-16 0)
(3 8.52184e-16 0)
(3 1.45259e-15 0)
(3 1.28123e-15 0)
(3 1.85697e-15 0)
(3 2.21376e-15 0)
(3 1.67936e-15 0)
(3 1.13436e-15 0)
(3 6.58202e-16 0)
(3 4.5408e-16 0)
(3 4.42977e-16 0)
(3 5.56603e-16 0)
(3 7.59731e-16 0)
(3 1.36085e-15 0)
(3 2.09868e-15 0)
(3 2.39238e-15 0)
(3 3.52599e-17 0)
(3 6.73007e-17 0)
(3 -3.59048e-16 0)
(3 -5.10551e-16 0)
(3 -1.85363e-16 0)
(3 -9.43659e-17 0)
(3 3.22191e-16 0)
(3 5.81939e-16 0)
(3 -9.25362e-17 0)
(3 -2.57511e-16 0)
(3 -1.11219e-16 0)
(3 -8.21477e-16 0)
(3 -1.27309e-15 0)
(3 -9.9971e-16 0)
(3 -5.04853e-17 0)
(3 -6.7544e-17 0)
(3 8.35057e-16 0)
(3 1.2814e-15 0)
(3 3.70812e-16 0)
(3 4.72739e-16 0)
(3 6.37816e-16 0)
(3 2.90742e-16 0)
(3 -8.56192e-16 0)
(3 -1.4741e-15 0)
(3 -1.29245e-15 0)
(3 -1.14802e-15 0)
(3 -1.20059e-15 0)
(3 -1.28607e-15 0)
(3 -9.60414e-16 0)
(3 -2.44939e-16 0)
(3 1.02487e-16 0)
(3 2.74205e-16 0)
(3 1.12765e-16 0)
(3 -5.49682e-17 0)
(3 -2.64148e-16 0)
(3 2.7292e-16 0)
(3 1.60578e-16 0)
(3 3.02147e-16 0)
(3 -5.03214e-17 0)
(3 -5.04519e-16 0)
(3 -1.45995e-15 0)
(3 -1.12654e-15 0)
(3 -4.17811e-16 0)
(3 2.98571e-16 0)
(3 8.7255e-16 0)
(3 3.3631e-16 0)
(3 3.73969e-16 0)
(3 1.19817e-15 0)
(3 -1.39342e-16 0)
(3 -5.18421e-16 0)
(3 -7.85726e-17 0)
(3 -1.00515e-16 0)
(3 -2.17248e-16 0)
(3 -2.22414e-16 0)
(3 -3.93498e-17 0)
(3 -5.62783e-16 0)
(3 -1.06784e-15 0)
(3 -7.4731e-16 0)
(3 -1.32054e-15 0)
(3 -8.6269e-16 0)
(3 -5.58705e-16 0)
(3 -1.73245e-16 0)
(3 1.94128e-16 0)
(3 4.47709e-16 0)
(3 1.45428e-15 0)
(3 2.0737e-15 0)
(3 1.60353e-15 0)
(3 8.44246e-16 0)
(3 3.06606e-16 0)
(3 -3.00038e-16 0)
(3 -4.45688e-16 0)
(3 -8.2678e-16 0)
(3 -1.00674e-15 0)
(3 -7.77673e-16 0)
(3 -1.01827e-15 0)
(3 -1.26207e-15 0)
(3 -1.52209e-15 0)
(3 -1.41854e-15 0)
(3 -5.39591e-16 0)
(3 8.15934e-16 0)
(3 1.03172e-15 0)
(3 2.05164e-16 0)
(3 -1.91146e-16 0)
(3 -3.54569e-16 0)
(3 -5.58708e-16 0)
(3 -1.37882e-15 0)
(3 -7.61946e-16 0)
(3 -6.28561e-16 0)
(3 -7.86604e-16 0)
(3 3.76938e-16 0)
(3 8.9262e-16 0)
(3 7.04959e-16 0)
(3 4.68132e-16 0)
(3 -4.48029e-16 0)
(3 -7.02562e-16 0)
(3 -8.02201e-16 0)
(3 -2.4685e-17 0)
(3 -1.67861e-16 0)
(3 1.72434e-16 0)
(3 -6.59105e-17 0)
(3 -4.14386e-16 0)
(3 -2.39284e-16 0)
(3 -1.73079e-16 0)