/*--------------------------------*- C++ -*----------------------------------*\
  =========                 |
  \\      /  F ield         | OpenFOAM: The Open Source CFD Toolbox
   \\    /   O peration     | Website:  https://openfoam.org
    \\  /    A nd           | Version:  7
     \\/     M anipulation  |
\*---------------------------------------------------------------------------*/
FoamFile
{
    version     2.0;
    format      ascii;
    class       volVectorField;
    location    "3.8";
    object      U;
}
// * * * * * * * * * * * * * * * * * * * * * * * * * * * * * * * * * * * * * //

dimensions      [0 1 -1 0 0 0 0];

internalField   nonuniform List<vector> 
73728
(
(3 7.02972e-18 0)
(3 -1.69664e-16 0)
(3 -1.97311e-16 0)
(3 7.24588e-17 0)
(3 4.73696e-16 0)
(3 1.85574e-16 0)
(3 1.24598e-16 0)
(3 2.7483e-16 0)
(3 4.6568e-16 0)
(3 3.20266e-16 0)
(3 -3.8271e-16 0)
(3 -5.71772e-16 0)
(3 -6.69133e-16 0)
(3 -5.5382e-16 0)
(3 -7.68871e-16 0)
(3 -7.50924e-16 0)
(3 -7.91029e-16 0)
(3 -5.05694e-16 0)
(3 -8.55139e-19 0)
(3 -7.62315e-16 0)
(3 -1.55883e-15 0)
(3 -5.81237e-16 0)
(3 6.57543e-16 0)
(3 6.90325e-16 0)
(3 1.67258e-16 0)
(3 6.52152e-17 0)
(3 2.82727e-16 0)
(3 -9.60014e-17 0)
(3 -3.25553e-16 0)
(3 -2.23273e-16 0)
(3 -1.09584e-16 0)
(3 -4.48582e-16 0)
(3 -3.20579e-16 0)
(3 -3.62622e-17 0)
(3 2.07511e-16 0)
(3 5.87765e-17 0)
(3 -1.33299e-16 0)
(3 -3.60916e-16 0)
(3 -3.512e-16 0)
(3 -2.21426e-17 0)
(3 -5.99914e-16 0)
(3 -3.79367e-16 0)
(3 1.52988e-16 0)
(3 8.8915e-16 0)
(3 1.08873e-15 0)
(3 1.51602e-17 0)
(3 -7.98819e-16 0)
(3 -1.27536e-15 0)
(3 -1.26641e-15 0)
(3 -2.12107e-15 0)
(3 -2.42682e-15 0)
(3 -2.23811e-15 0)
(3 -8.59699e-16 0)
(3 2.20486e-18 0)
(3 5.56431e-16 0)
(3 6.09407e-16 0)
(3 4.00482e-16 0)
(3 1.2406e-15 0)
(3 1.99998e-15 0)
(3 2.49712e-15 0)
(3 2.11385e-15 0)
(3 1.77277e-15 0)
(3 1.69226e-15 0)
(3 1.98371e-15 0)
(3 9.57117e-16 0)
(3 8.78765e-16 0)
(3 1.06115e-15 0)
(3 6.94104e-16 0)
(3 3.04847e-16 0)
(3 1.60465e-16 0)
(3 -3.28922e-17 0)
(3 -1.10393e-17 0)
(3 -6.56942e-16 0)
(3 -4.28465e-16 0)
(3 -3.05435e-16 0)
(3 3.11795e-16 0)
(3 1.84942e-16 0)
(3 6.20785e-17 0)
(3 3.27951e-16 0)
(3 4.89284e-16 0)
(3 5.32303e-16 0)
(3 4.58205e-16 0)
(3 9.6443e-16 0)
(3 1.14471e-15 0)
(3 -4.97204e-16 0)
(3 -1.47385e-15 0)
(3 -1.97275e-15 0)
(3 -5.90723e-16 0)
(3 6.11436e-16 0)
(3 5.48263e-16 0)
(3 -3.74321e-16 0)
(3 -1.59507e-15 0)
(3 -1.23459e-15 0)
(3 -9.07611e-16 0)
(3 -9.92352e-16 0)
(3 -5.65497e-16 0)
(3 -8.09497e-17 0)
(3 1.42617e-16 0)
(3 -3.31874e-17 0)
(3 1.16264e-16 0)
(3 2.23431e-16 0)
(3 3.97026e-16 0)
(3 6.95515e-16 0)
(3 8.25846e-16 0)
(3 3.5026e-16 0)
(3 2.6857e-16 0)
(3 6.00793e-17 0)
(3 -4.61941e-16 0)
(3 -4.08805e-16 0)
(3 -6.3895e-16 0)
(3 -1.48747e-15 0)
(3 -1.90394e-15 0)
(3 -1.70373e-15 0)
(3 -5.19018e-16 0)
(3 1.14581e-16 0)
(3 -5.59034e-16 0)
(3 -4.53647e-16 0)
(3 1.23247e-15 0)
(3 1.59235e-15 0)
(3 1.49334e-15 0)
(3 8.41883e-16 0)
(3 8.39894e-16 0)
(3 7.44464e-16 0)
(3 7.36449e-16 0)
(3 4.16552e-16 0)
(3 3.16637e-16 0)
(3 1.45303e-16 0)
(3 -1.49471e-15 0)
(3 -1.54383e-15 0)
(3 -9.73769e-16 0)
(3 -1.68138e-16 0)
(3 -3.03333e-16 0)
(3 -5.72053e-16 0)
(3 -4.86428e-16 0)
(3 -7.58579e-17 0)
(3 2.64414e-16 0)
(3 -3.54819e-16 0)
(3 -1.55968e-15 0)
(3 -1.62228e-15 0)
(3 -6.54298e-16 0)
(3 5.74457e-16 0)
(3 -9.09825e-17 0)
(3 -1.59314e-15 0)
(3 -3.41681e-15 0)
(3 -3.38315e-15 0)
(3 -2.56425e-15 0)
(3 -1.79215e-15 0)
(3 -1.19374e-15 0)
(3 -9.05602e-16 0)
(3 2.65315e-16 0)
(3 1.31844e-15 0)
(3 1.94166e-15 0)
(3 1.6199e-15 0)
(3 1.64723e-15 0)
(3 2.19628e-15 0)
(3 3.19455e-15 0)
(3 3.25291e-15 0)
(3 2.23172e-15 0)
(3 1.16046e-15 0)
(3 7.61264e-16 0)
(3 9.45569e-17 0)
(3 -3.86693e-16 0)
(3 3.09124e-19 0)
(3 4.62692e-16 0)
(3 2.98881e-16 0)
(3 5.26347e-17 0)
(3 5.1144e-16 0)
(3 3.90974e-16 0)
(3 -5.98316e-16 0)
(3 -7.63245e-16 0)
(3 -4.67084e-16 0)
(3 -1.78102e-16 0)
(3 4.84238e-16 0)
(3 7.30871e-16 0)
(3 1.60465e-15 0)
(3 2.09117e-15 0)
(3 1.62e-15 0)
(3 1.34181e-15 0)
(3 2.23501e-15 0)
(3 4.19655e-15 0)
(3 3.06361e-15 0)
(3 8.55536e-16 0)
(3 -3.41472e-16 0)
(3 -1.77425e-16 0)
(3 6.25311e-16 0)
(3 -5.35342e-16 0)
(3 -2.16635e-15 0)
(3 -3.07795e-15 0)
(3 -2.79475e-15 0)
(3 -1.22034e-15 0)
(3 -8.3912e-16 0)
(3 -3.76214e-16 0)
(3 -1.11584e-16 0)
(3 2.69227e-16 0)
(3 3.74367e-16 0)
(3 1.15642e-16 0)
(3 -4.15732e-16 0)
(3 -1.75373e-16 0)
(3 -1.9725e-16 0)
(3 -4.8766e-16 0)
(3 -3.79971e-16 0)
(3 -3.66295e-16 0)
(3 1.06005e-16 0)
(3 2.43952e-16 0)
(3 1.01858e-16 0)
(3 -4.24223e-16 0)
(3 -1.01584e-15 0)
(3 -1.71564e-15 0)
(3 -1.81139e-15 0)
(3 -5.56389e-16 0)
(3 -3.81211e-17 0)
(3 -3.00671e-16 0)
(3 3.96473e-16 0)
(3 5.75831e-16 0)
(3 5.1214e-16 0)
(3 8.87762e-16 0)
(3 2.02694e-15 0)
(3 2.45787e-15 0)
(3 1.39874e-15 0)
(3 9.28338e-16 0)
(3 7.11598e-16 0)
(3 3.99444e-16 0)
(3 -6.9132e-18 0)
(3 -7.28092e-16 0)
(3 -8.74439e-16 0)
(3 4.39155e-17 0)
(3 2.21307e-16 0)
(3 4.90089e-16 0)
(3 6.11834e-16 0)
(3 8.6843e-16 0)
(3 1.48186e-15 0)
(3 1.29845e-15 0)
(3 5.12586e-16 0)
(3 -1.25874e-15 0)
(3 -2.80214e-15 0)
(3 -2.67029e-15 0)
(3 -1.80298e-15 0)
(3 -1.87795e-15 0)
(3 -2.35016e-15 0)
(3 -3.38576e-15 0)
(3 -3.95231e-15 0)
(3 -3.66186e-15 0)
(3 -2.26308e-15 0)
(3 -2.3575e-15 0)
(3 -1.80172e-15 0)
(3 -7.474e-16 0)
(3 6.04858e-17 0)
(3 4.43085e-16 0)
(3 3.43912e-16 0)
(3 -2.32261e-16 0)
(3 2.156e-16 0)
(3 9.96819e-16 0)
(3 1.54397e-15 0)
(3 1.15763e-15 0)
(3 9.90254e-16 0)
(3 8.06468e-16 0)
(3 -2.48108e-16 0)
(3 -8.98063e-16 0)
(3 -3.77776e-16 0)
(3 3.15244e-16 0)
(3 3.18949e-16 0)
(3 -5.28736e-17 0)
(3 -2.31963e-16 0)
(3 1.91097e-16 0)
(3 8.41756e-16 0)
(3 7.75297e-16 0)
(3 8.12105e-16 0)
(3 2.31844e-16 0)
(3 5.36437e-16 0)
(3 9.66252e-16 0)
(3 5.84019e-16 0)
(3 7.19998e-16 0)
(3 1.92165e-15 0)
(3 2.16498e-15 0)
(3 3.4379e-15 0)
(3 4.84333e-15 0)
(3 3.37614e-15 0)
(3 1.21303e-15 0)
(3 -1.76784e-15 0)
(3 -2.47681e-15 0)
(3 -2.0269e-15 0)
(3 -2.43896e-15 0)
(3 -3.05176e-15 0)
(3 -3.78293e-15 0)
(3 -2.96421e-15 0)
(3 -1.00599e-15 0)
(3 5.41479e-16 0)
(3 -7.0552e-17 0)
(3 2.43001e-16 0)
(3 1.54729e-16 0)
(3 6.10923e-16 0)
(3 8.97057e-16 0)
(3 8.73783e-16 0)
(3 4.50803e-16 0)
(3 -3.87732e-16 0)
(3 -1.44664e-15 0)
(3 -6.91874e-16 0)
(3 -3.68789e-16 0)
(3 -5.04849e-17 0)
(3 2.93632e-16 0)
(3 1.46678e-16 0)
(3 -7.50878e-16 0)
(3 -1.5496e-15 0)
(3 -2.08344e-15 0)
(3 -1.61217e-15 0)
(3 -1.20247e-15 0)
(3 -1.02102e-15 0)
(3 -4.54917e-16 0)
(3 -1.74685e-16 0)
(3 -5.20202e-16 0)
(3 1.39486e-17 0)
(3 3.84268e-16 0)
(3 1.22479e-15 0)
(3 1.41624e-15 0)
(3 1.2669e-15 0)
(3 5.17584e-16 0)
(3 -5.77857e-17 0)
(3 2.5306e-16 0)
(3 7.58828e-16 0)
(3 9.2973e-16 0)
(3 1.36946e-15 0)
(3 1.77229e-15 0)
(3 1.76007e-15 0)
(3 1.88694e-15 0)
(3 1.07146e-15 0)
(3 1.18667e-15 0)
(3 1.75736e-15 0)
(3 1.00605e-16 0)
(3 -6.42827e-16 0)
(3 -1.50594e-15 0)
(3 -1.74509e-15 0)
(3 -1.64971e-15 0)
(3 -3.12272e-15 0)
(3 -3.16405e-15 0)
(3 -3.05184e-15 0)
(3 -2.43854e-15 0)
(3 -2.15603e-15 0)
(3 -1.37438e-15 0)
(3 -1.626e-15 0)
(3 -1.31962e-15 0)
(3 -1.00454e-15 0)
(3 -7.93651e-17 0)
(3 2.25289e-16 0)
(3 -4.24082e-16 0)
(3 -1.16822e-15 0)
(3 -1.55321e-15 0)
(3 -1.08667e-15 0)
(3 -8.61945e-16 0)
(3 -4.42949e-16 0)
(3 1.19547e-16 0)
(3 6.20856e-16 0)
(3 1.32418e-15 0)
(3 5.60656e-16 0)
(3 1.8926e-16 0)
(3 3.3728e-16 0)
(3 -2.18515e-17 0)
(3 -1.55727e-16 0)
(3 1.00941e-16 0)
(3 -5.53442e-16 0)
(3 2.70764e-16 0)
(3 1.31801e-15 0)
(3 1.50739e-15 0)
(3 1.2397e-16 0)
(3 -4.84699e-17 0)
(3 -1.94502e-16 0)
(3 -6.18023e-16 0)
(3 -1.08264e-15 0)
(3 -5.44767e-16 0)
(3 1.08521e-15 0)
(3 1.65884e-15 0)
(3 1.99346e-15 0)
(3 1.61751e-15 0)
(3 9.90282e-16 0)
(3 -7.17425e-17 0)
(3 -7.20554e-16 0)
(3 -1.2345e-15 0)
(3 -1.81392e-15 0)
(3 -2.44312e-15 0)
(3 -1.96866e-15 0)
(3 -1.01273e-15 0)
(3 5.48299e-17 0)
(3 1.29724e-15 0)
(3 1.52452e-15 0)
(3 8.26478e-16 0)
(3 3.61282e-16 0)
(3 8.54132e-17 0)
(3 3.79203e-16 0)
(3 6.92523e-16 0)
(3 9.74472e-16 0)
(3 7.14204e-16 0)
(3 2.76761e-16 0)
(3 1.67414e-16 0)
(3 -3.85951e-16 0)
(3 -3.89371e-16 0)
(3 -4.1395e-16 0)
(3 8.32824e-18 0)
(3 3.99751e-16 0)
(3 1.14521e-16 0)
(3 -5.3639e-16 0)
(3 -7.35329e-16 0)
(3 -2.09072e-16 0)
(3 -3.86738e-16 0)
(3 -4.91248e-16 0)
(3 1.82777e-18 0)
(3 -7.68429e-17 0)
(3 -2.11052e-16 0)
(3 1.69554e-16 0)
(3 2.56649e-16 0)
(3 6.84445e-16 0)
(3 8.14828e-16 0)
(3 9.51729e-16 0)
(3 9.57429e-16 0)
(3 9.52355e-16 0)
(3 1.17468e-15 0)
(3 1.91408e-15 0)
(3 2.75542e-15 0)
(3 3.60408e-15 0)
(3 2.28294e-15 0)
(3 2.59325e-15 0)
(3 3.1104e-15 0)
(3 1.73965e-15 0)
(3 1.60363e-15 0)
(3 6.99034e-16 0)
(3 -1.47738e-16 0)
(3 -1.42479e-15 0)
(3 -1.00536e-15 0)
(3 5.80277e-18 0)
(3 -3.81188e-16 0)
(3 -8.59749e-16 0)
(3 -1.06561e-15 0)
(3 -1.25405e-15 0)
(3 -8.89228e-16 0)
(3 -8.02931e-17 0)
(3 1.25834e-16 0)
(3 -3.61817e-16 0)
(3 -3.2119e-16 0)
(3 -8.47678e-16 0)
(3 -8.84385e-16 0)
(3 -1.04861e-15 0)
(3 -1.95285e-15 0)
(3 -3.23079e-15 0)
(3 -2.55658e-15 0)
(3 -2.46277e-15 0)
(3 -2.31135e-15 0)
(3 -2.05824e-15 0)
(3 -1.12925e-15 0)
(3 -1.83211e-16 0)
(3 7.23154e-16 0)
(3 6.20097e-16 0)
(3 7.394e-16 0)
(3 7.68239e-16 0)
(3 3.01776e-16 0)
(3 -2.55093e-16 0)
(3 -6.87508e-16 0)
(3 3.9808e-17 0)
(3 4.076e-16 0)
(3 1.10303e-15 0)
(3 1.40883e-15 0)
(3 -2.95798e-16 0)
(3 -3.74649e-16 0)
(3 -4.479e-16 0)
(3 -6.27553e-16 0)
(3 2.96119e-16 0)
(3 7.87347e-16 0)
(3 8.1242e-16 0)
(3 7.35294e-16 0)
(3 5.01091e-16 0)
(3 6.50075e-17 0)
(3 5.50794e-16 0)
(3 8.00513e-16 0)
(3 1.12703e-15 0)
(3 1.29778e-15 0)
(3 5.38097e-16 0)
(3 -8.14275e-16 0)
(3 -1.0976e-16 0)
(3 6.27003e-16 0)
(3 5.19978e-16 0)
(3 4.54634e-16 0)
(3 4.01283e-16 0)
(3 3.84054e-16 0)
(3 7.72528e-17 0)
(3 5.61939e-17 0)
(3 -6.67426e-17 0)
(3 3.42739e-16 0)
(3 4.97996e-16 0)
(3 1.4299e-16 0)
(3 -7.23425e-17 0)
(3 2.49976e-16 0)
(3 2.14342e-16 0)
(3 3.46069e-18 0)
(3 -1.36235e-16 0)
(3 -1.38736e-16 0)
(3 -1.19685e-16 0)
(3 8.31439e-16 0)
(3 1.16298e-15 0)
(3 6.48935e-16 0)
(3 -5.36229e-17 0)
(3 -2.35184e-16 0)
(3 5.98336e-16 0)
(3 1.4578e-15 0)
(3 1.44668e-15 0)
(3 9.36836e-16 0)
(3 2.82796e-16 0)
(3 -8.51172e-17 0)
(3 -1.0978e-16 0)
(3 1.56367e-16 0)
(3 4.19983e-16 0)
(3 1.23681e-15 0)
(3 1.13804e-15 0)
(3 8.43164e-16 0)
(3 9.27605e-16 0)
(3 1.99425e-15 0)
(3 2.53931e-15 0)
(3 3.18386e-15 0)
(3 3.951e-15 0)
(3 4.63072e-15 0)
(3 3.87066e-15 0)
(3 1.32366e-15 0)
(3 -8.32244e-17 0)
(3 1.89017e-16 0)
(3 8.3965e-16 0)
(3 1.00818e-15 0)
(3 9.89863e-16 0)
(3 8.04397e-16 0)
(3 9.51543e-16 0)
(3 1.50335e-15 0)
(3 2.08228e-15 0)
(3 2.22869e-15 0)
(3 2.32935e-15 0)
(3 1.6947e-15 0)
(3 5.5279e-17 0)
(3 -6.23442e-16 0)
(3 -1.09894e-15 0)
(3 -1.59514e-15 0)
(3 -2.44841e-15 0)
(3 -2.36568e-15 0)
(3 -3.53403e-15 0)
(3 -4.58188e-15 0)
(3 -5.02492e-15 0)
(3 -3.98889e-15 0)
(3 -4.22203e-15 0)
(3 -2.74045e-15 0)
(3 -1.50045e-15 0)
(3 -1.29307e-15 0)
(3 -2.84825e-16 0)
(3 1.20728e-15 0)
(3 1.73945e-15 0)
(3 1.3521e-15 0)
(3 1.29564e-15 0)
(3 1.26222e-15 0)
(3 1.49128e-15 0)
(3 1.2101e-15 0)
(3 1.00596e-15 0)
(3 1.15188e-15 0)
(3 3.44402e-16 0)
(3 -1.7339e-16 0)
(3 -4.60533e-16 0)
(3 -3.21844e-16 0)
(3 2.62672e-16 0)
(3 2.18186e-16 0)
(3 -8.83329e-16 0)
(3 -1.75946e-15 0)
(3 -1.58721e-15 0)
(3 -1.48443e-16 0)
(3 1.62741e-15 0)
(3 1.59628e-15 0)
(3 1.76661e-15 0)
(3 1.84485e-15 0)
(3 1.77797e-15 0)
(3 1.93406e-15 0)
(3 1.82316e-15 0)
(3 1.23258e-15 0)
(3 -2.19564e-16 0)
(3 -1.53056e-16 0)
(3 -6.41422e-17 0)
(3 -2.41142e-16 0)
(3 1.01136e-17 0)
(3 3.6584e-16 0)
(3 -1.2498e-17 0)
(3 -2.24763e-16 0)
(3 -3.26261e-16 0)
(3 -9.20593e-17 0)
(3 -4.44563e-17 0)
(3 -3.02081e-16 0)
(3 4.88059e-16 0)
(3 1.03491e-15 0)
(3 1.13803e-15 0)
(3 9.31537e-16 0)
(3 4.87001e-16 0)
(3 3.21575e-17 0)
(3 -5.99809e-16 0)
(3 -1.06139e-15 0)
(3 -1.874e-15 0)
(3 -1.17888e-15 0)
(3 1.12226e-15 0)
(3 1.22215e-15 0)
(3 6.6648e-16 0)
(3 -1.75541e-17 0)
(3 -9.54221e-17 0)
(3 1.75578e-17 0)
(3 -2.33848e-16 0)
(3 -8.03705e-16 0)
(3 -9.05798e-16 0)
(3 -6.00661e-16 0)
(3 -4.59776e-17 0)
(3 5.16943e-17 0)
(3 -1.42541e-16 0)
(3 -4.97013e-16 0)
(3 6.08646e-16 0)
(3 1.88544e-15 0)
(3 3.39175e-15 0)
(3 4.55643e-15 0)
(3 3.92885e-15 0)
(3 3.13531e-15 0)
(3 2.304e-15 0)
(3 2.13912e-15 0)
(3 3.26098e-15 0)
(3 2.63393e-15 0)
(3 9.31887e-16 0)
(3 1.29632e-16 0)
(3 -1.02253e-16 0)
(3 3.62379e-16 0)
(3 1.17192e-15 0)
(3 1.80232e-15 0)
(3 1.56336e-15 0)
(3 5.31318e-16 0)
(3 -8.75005e-17 0)
(3 -5.09901e-16 0)
(3 -9.81731e-16 0)
(3 -1.36052e-15 0)
(3 -2.18034e-15 0)
(3 -2.39538e-15 0)
(3 -3.53372e-15 0)
(3 -4.63735e-15 0)
(3 -4.59005e-15 0)
(3 -3.96027e-15 0)
(3 -3.59957e-15 0)
(3 -3.31278e-15 0)
(3 -2.20103e-15 0)
(3 -1.62863e-15 0)
(3 -5.97496e-17 0)
(3 8.1092e-16 0)
(3 1.34074e-15 0)
(3 2.33129e-15 0)
(3 2.95945e-15 0)
(3 2.43885e-15 0)
(3 1.94617e-15 0)
(3 1.20801e-15 0)
(3 8.86057e-16 0)
(3 4.04004e-16 0)
(3 -4.91908e-16 0)
(3 -5.67193e-16 0)
(3 -1.04176e-15 0)
(3 -2.95336e-15 0)
(3 -3.27416e-15 0)
(3 -3.01508e-15 0)
(3 -2.90674e-15 0)
(3 -4.27534e-15 0)
(3 -3.49074e-15 0)
(3 -3.73971e-16 0)
(3 1.18504e-15 0)
(3 2.45635e-15 0)
(3 2.72491e-15 0)
(3 2.2949e-15 0)
(3 2.17656e-15 0)
(3 3.17926e-15 0)
(3 3.28696e-15 0)
(3 2.34189e-15 0)
(3 1.33282e-15 0)
(3 1.60965e-15 0)
(3 1.36475e-15 0)
(3 1.0103e-16 0)
(3 -3.15023e-16 0)
(3 -2.92644e-16 0)
(3 -5.85599e-16 0)
(3 -9.08656e-16 0)
(3 -1.19473e-15 0)
(3 -7.96911e-16 0)
(3 1.26707e-17 0)
(3 4.2269e-16 0)
(3 1.0086e-15 0)
(3 1.6327e-15 0)
(3 1.60783e-15 0)
(3 1.27093e-15 0)
(3 7.5688e-16 0)
(3 -8.46306e-16 0)
(3 -2.42304e-15 0)
(3 -3.22134e-15 0)
(3 -9.56287e-16 0)
(3 3.88552e-16 0)
(3 9.17143e-16 0)
(3 1.14273e-15 0)
(3 9.41794e-16 0)
(3 6.42413e-16 0)
(3 3.91677e-16 0)
(3 7.35057e-16 0)
(3 1.09687e-15 0)
(3 1.24097e-15 0)
(3 6.1042e-16 0)
(3 7.73742e-17 0)
(3 1.60363e-16 0)
(3 6.81577e-17 0)
(3 -4.80814e-17 0)
(3 -3.65654e-16 0)
(3 -6.00588e-17 0)
(3 5.32683e-16 0)
(3 9.12802e-16 0)
(3 2.2262e-15 0)
(3 2.33405e-15 0)
(3 1.64073e-15 0)
(3 1.65782e-15 0)
(3 1.74954e-15 0)
(3 1.58951e-15 0)
(3 1.31294e-15 0)
(3 2.01338e-15 0)
(3 2.76244e-15 0)
(3 1.95575e-15 0)
(3 -3.23443e-16 0)
(3 -1.98274e-15 0)
(3 -2.35157e-15 0)
(3 -1.70252e-15 0)
(3 -1.42528e-15 0)
(3 -7.40376e-16 0)
(3 -8.06238e-16 0)
(3 -1.57251e-15 0)
(3 -1.96417e-15 0)
(3 -2.19458e-15 0)
(3 -2.81151e-15 0)
(3 -2.83754e-15 0)
(3 -1.63932e-15 0)
(3 -6.17724e-16 0)
(3 -1.39295e-15 0)
(3 -2.62838e-15 0)
(3 -2.32763e-15 0)
(3 -1.52089e-15 0)
(3 -5.07242e-16 0)
(3 -6.56161e-17 0)
(3 3.32194e-16 0)
(3 1.53334e-15 0)
(3 2.20651e-15 0)
(3 1.73431e-15 0)
(3 1.04253e-15 0)
(3 7.07744e-16 0)
(3 -2.27126e-17 0)
(3 -2.01612e-16 0)
(3 -1.85122e-16 0)
(3 -4.08813e-16 0)
(3 1.04649e-16 0)
(3 -4.75708e-16 0)
(3 -1.70917e-15 0)
(3 -2.10639e-15 0)
(3 -1.76355e-15 0)
(3 -1.90702e-15 0)
(3 -2.82394e-15 0)
(3 -3.31038e-15 0)
(3 -1.8562e-15 0)
(3 -1.81391e-15 0)
(3 1.61095e-16 0)
(3 2.21426e-15 0)
(3 3.36343e-15 0)
(3 3.97356e-15 0)
(3 3.92187e-15 0)
(3 4.49739e-15 0)
(3 2.88705e-15 0)
(3 1.06429e-15 0)
(3 8.16663e-16 0)
(3 8.4319e-16 0)
(3 9.32383e-16 0)
(3 -5.53774e-17 0)
(3 -2.79738e-16 0)
(3 -4.2605e-16 0)
(3 -1.60418e-16 0)
(3 -4.50688e-16 0)
(3 -2.59312e-16 0)
(3 1.87937e-16 0)
(3 1.05017e-15 0)
(3 1.37647e-15 0)
(3 1.54879e-15 0)
(3 1.56862e-15 0)
(3 5.49541e-16 0)
(3 2.31222e-16 0)
(3 -1.61281e-16 0)
(3 -7.49285e-16 0)
(3 -6.96214e-16 0)
(3 2.17909e-15 0)
(3 2.43152e-15 0)
(3 1.7782e-15 0)
(3 1.4062e-15 0)
(3 1.58092e-15 0)
(3 1.18676e-15 0)
(3 1.02735e-15 0)
(3 6.76776e-16 0)
(3 5.70055e-16 0)
(3 7.26297e-16 0)
(3 1.934e-15 0)
(3 2.46157e-15 0)
(3 2.18214e-15 0)
(3 1.32073e-15 0)
(3 7.16423e-16 0)
(3 9.97882e-16 0)
(3 1.33792e-15 0)
(3 1.51961e-15 0)
(3 1.06069e-15 0)
(3 2.09317e-16 0)
(3 2.77568e-16 0)
(3 -1.81567e-17 0)
(3 -1.21846e-15 0)
(3 -1.4029e-15 0)
(3 -1.95068e-15 0)
(3 -1.46834e-15 0)
(3 -1.58884e-16 0)
(3 8.77823e-16 0)
(3 1.2796e-15 0)
(3 9.33337e-16 0)
(3 -6.41321e-16 0)
(3 -2.28285e-15 0)
(3 -2.74732e-15 0)
(3 -2.46783e-15 0)
(3 -2.03618e-15 0)
(3 -2.16807e-15 0)
(3 -2.26791e-15 0)
(3 -2.2127e-15 0)
(3 -2.06481e-15 0)
(3 -1.21634e-15 0)
(3 -8.81487e-16 0)
(3 -1.13425e-16 0)
(3 7.83544e-16 0)
(3 2.46191e-16 0)
(3 -8.94971e-16 0)
(3 -1.15468e-15 0)
(3 -2.6391e-16 0)
(3 3.30735e-16 0)
(3 5.30695e-16 0)
(3 6.94175e-16 0)
(3 4.69471e-16 0)
(3 5.1756e-18 0)
(3 3.74919e-17 0)
(3 3.50258e-16 0)
(3 6.68779e-16 0)
(3 -1.06066e-16 0)
(3 -9.84899e-16 0)
(3 -9.56939e-16 0)
(3 -2.35252e-16 0)
(3 5.0869e-17 0)
(3 -2.40854e-16 0)
(3 -3.0855e-16 0)
(3 -3.9077e-16 0)
(3 -1.95661e-16 0)
(3 5.72542e-17 0)
(3 9.0196e-18 0)
(3 -6.27902e-16 0)
(3 -1.23222e-15 0)
(3 -1.45898e-15 0)
(3 -1.86931e-15 0)
(3 -1.93899e-15 0)
(3 3.39725e-16 0)
(3 3.39451e-15 0)
(3 4.19877e-15 0)
(3 4.54827e-15 0)
(3 4.4293e-15 0)
(3 2.74389e-15 0)
(3 1.05518e-15 0)
(3 -4.66788e-16 0)
(3 -2.06632e-16 0)
(3 1.88081e-16 0)
(3 6.13955e-17 0)
(3 -1.62617e-16 0)
(3 1.73722e-16 0)
(3 2.32404e-16 0)
(3 1.7596e-16 0)
(3 1.14008e-16 0)
(3 -2.18104e-16 0)
(3 -2.90773e-17 0)
(3 5.59758e-16 0)
(3 1.20334e-15 0)
(3 1.25425e-15 0)
(3 1.06545e-15 0)
(3 1.65278e-15 0)
(3 2.25126e-15 0)
(3 3.02621e-15 0)
(3 2.89402e-15 0)
(3 2.29799e-15 0)
(3 1.81531e-15 0)
(3 1.21281e-15 0)
(3 7.1074e-16 0)
(3 1.5941e-15 0)
(3 1.96333e-15 0)
(3 1.91514e-15 0)
(3 1.41882e-15 0)
(3 1.22606e-15 0)
(3 9.39445e-16 0)
(3 9.95288e-16 0)
(3 1.51159e-15 0)
(3 1.88654e-15 0)
(3 1.81977e-15 0)
(3 1.53237e-15 0)
(3 1.38396e-15 0)
(3 6.67881e-16 0)
(3 -1.29944e-16 0)
(3 -9.60106e-16 0)
(3 -7.38146e-16 0)
(3 -1.21371e-15 0)
(3 -1.50341e-15 0)
(3 -2.04927e-15 0)
(3 -2.57762e-15 0)
(3 -2.21159e-15 0)
(3 -1.48877e-15 0)
(3 -9.29213e-16 0)
(3 -6.38035e-16 0)
(3 -3.30695e-16 0)
(3 3.66589e-17 0)
(3 -3.69236e-16 0)
(3 -9.01463e-16 0)
(3 -1.63974e-15 0)
(3 -2.14097e-15 0)
(3 -2.1082e-15 0)
(3 -2.24173e-15 0)
(3 -2.21468e-15 0)
(3 -1.51272e-15 0)
(3 -3.98217e-16 0)
(3 -3.25878e-16 0)
(3 -4.17588e-16 0)
(3 -3.47783e-16 0)
(3 -4.02454e-16 0)
(3 -4.14344e-16 0)
(3 -5.12822e-16 0)
(3 -5.84019e-16 0)
(3 -4.78289e-16 0)
(3 -6.42135e-16 0)
(3 -9.17445e-16 0)
(3 -1.16934e-15 0)
(3 -8.98606e-16 0)
(3 -2.25906e-16 0)
(3 3.5227e-16 0)
(3 4.9396e-16 0)
(3 2.63625e-16 0)
(3 -2.23965e-16 0)
(3 -7.47075e-16 0)
(3 -5.67938e-16 0)
(3 -4.8719e-16 0)
(3 -4.81839e-16 0)
(3 -1.47056e-16 0)
(3 -7.33839e-17 0)
(3 -1.00728e-15 0)
(3 -5.887e-16 0)
(3 9.67269e-16 0)
(3 1.16687e-15 0)
(3 2.72882e-16 0)
(3 -2.63224e-15 0)
(3 -3.89101e-15 0)
(3 -4.25846e-15 0)
(3 -8.35084e-16 0)
(3 2.72025e-15 0)
(3 3.14543e-15 0)
(3 2.89751e-15 0)
(3 2.13399e-15 0)
(3 1.4793e-15 0)
(3 -4.46074e-16 0)
(3 -6.92472e-16 0)
(3 -7.21735e-16 0)
(3 -1.31457e-16 0)
(3 -3.0284e-16 0)
(3 -5.01925e-17 0)
(3 -1.80255e-17 0)
(3 1.81251e-16 0)
(3 -9.84914e-17 0)
(3 -4.33889e-17 0)
(3 -4.33394e-16 0)
(3 -9.42158e-16 0)
(3 -3.00199e-16 0)
(3 1.42926e-16 0)
(3 1.68734e-15 0)
(3 1.72273e-15 0)
(3 1.61175e-15 0)
(3 1.72226e-15 0)
(3 9.28542e-16 0)
(3 1.45411e-15 0)
(3 9.85358e-16 0)
(3 7.94554e-17 0)
(3 -3.75999e-17 0)
(3 6.22103e-17 0)
(3 5.94539e-16 0)
(3 7.87632e-16 0)
(3 6.02771e-16 0)
(3 3.90103e-16 0)
(3 1.78898e-16 0)
(3 -1.72159e-16 0)
(3 -7.83717e-16 0)
(3 -6.0604e-16 0)
(3 -2.95225e-16 0)
(3 -3.03206e-16 0)
(3 -2.32286e-16 0)
(3 1.94218e-18 0)
(3 -1.59349e-16 0)
(3 -6.41326e-16 0)
(3 -1.05313e-15 0)
(3 -1.08831e-15 0)
(3 -1.35416e-15 0)
(3 -2.28526e-15 0)
(3 -2.56956e-15 0)
(3 -1.88116e-15 0)
(3 -2.15409e-15 0)
(3 -2.3343e-15 0)
(3 -2.34558e-15 0)
(3 -2.95174e-15 0)
(3 -3.16249e-15 0)
(3 -2.61261e-15 0)
(3 -2.32153e-15 0)
(3 -2.42191e-15 0)
(3 -2.86168e-15 0)
(3 -2.3693e-15 0)
(3 -1.9393e-15 0)
(3 -1.19997e-15 0)
(3 -1.17899e-15 0)
(3 -8.3759e-16 0)
(3 2.0495e-16 0)
(3 1.76932e-16 0)
(3 -4.40234e-16 0)
(3 -1.3817e-15 0)
(3 -1.47106e-15 0)
(3 -1.03034e-15 0)
(3 -9.43025e-16 0)
(3 -1.33912e-15 0)
(3 -1.38953e-15 0)
(3 -8.81368e-16 0)
(3 -8.49414e-16 0)
(3 -7.12716e-16 0)
(3 1.1165e-16 0)
(3 6.43739e-16 0)
(3 1.2813e-15 0)
(3 1.49935e-15 0)
(3 1.45043e-15 0)
(3 1.48348e-15 0)
(3 1.62698e-15 0)
(3 1.52643e-15 0)
(3 1.32033e-15 0)
(3 1.46805e-15 0)
(3 1.19332e-15 0)
(3 1.33346e-15 0)
(3 4.10181e-16 0)
(3 -1.18371e-15 0)
(3 -1.83871e-15 0)
(3 -1.7776e-15 0)
(3 -2.41221e-15 0)
(3 -3.19695e-15 0)
(3 -3.33719e-15 0)
(3 -2.2251e-15 0)
(3 -1.07372e-16 0)
(3 1.2432e-15 0)
(3 2.54331e-15 0)
(3 1.17393e-15 0)
(3 8.80115e-16 0)
(3 7.14165e-17 0)
(3 -3.31203e-16 0)
(3 -1.98215e-16 0)
(3 -9.60313e-16 0)
(3 -8.45659e-18 0)
(3 -5.66218e-17 0)
(3 3.38138e-16 0)
(3 -3.08577e-16 0)
(3 -1.90044e-16 0)
(3 -3.71834e-17 0)
(3 1.8052e-16 0)
(3 5.41986e-16 0)
(3 2.97074e-16 0)
(3 -1.93301e-16 0)
(3 -3.57977e-16 0)
(3 -8.63789e-16 0)
(3 -1.29584e-15 0)
(3 -1.12922e-15 0)
(3 -9.20567e-16 0)
(3 -6.12154e-16 0)
(3 -4.5932e-16 0)
(3 -3.57345e-16 0)
(3 -6.56501e-16 0)
(3 -1.74459e-15 0)
(3 -1.4012e-15 0)
(3 -1.02315e-15 0)
(3 -1.07032e-15 0)
(3 -8.84357e-16 0)
(3 -7.03257e-16 0)
(3 -1.36615e-15 0)
(3 -2.25666e-15 0)
(3 -2.37238e-15 0)
(3 -3.01183e-15 0)
(3 -2.23952e-15 0)
(3 -2.2174e-15 0)
(3 -1.55351e-15 0)
(3 -1.20433e-15 0)
(3 -8.35643e-16 0)
(3 -6.62299e-17 0)
(3 4.03976e-16 0)
(3 4.70878e-16 0)
(3 -4.56246e-17 0)
(3 -1.71984e-15 0)
(3 -2.39283e-15 0)
(3 -1.36043e-15 0)
(3 -1.58214e-15 0)
(3 -2.56489e-15 0)
(3 -3.50004e-15 0)
(3 -3.57637e-15 0)
(3 -3.21414e-15 0)
(3 -4.35155e-15 0)
(3 -5.02304e-15 0)
(3 -4.89331e-15 0)
(3 -4.65907e-15 0)
(3 -3.34871e-15 0)
(3 -2.54798e-15 0)
(3 -2.03988e-15 0)
(3 -1.24838e-15 0)
(3 -5.80724e-16 0)
(3 -2.56688e-16 0)
(3 2.24175e-16 0)
(3 2.47135e-17 0)
(3 -7.48315e-16 0)
(3 -1.16266e-15 0)
(3 -1.38353e-15 0)
(3 -1.67754e-15 0)
(3 -1.30498e-15 0)
(3 -1.18864e-15 0)
(3 -1.11752e-15 0)
(3 -8.99023e-16 0)
(3 -5.46845e-16 0)
(3 2.28399e-16 0)
(3 9.01747e-16 0)
(3 1.18724e-15 0)
(3 7.49912e-16 0)
(3 5.71929e-16 0)
(3 8.02944e-16 0)
(3 6.46234e-16 0)
(3 9.52479e-16 0)
(3 1.70492e-15 0)
(3 3.59501e-15 0)
(3 3.84719e-15 0)
(3 2.99241e-15 0)
(3 1.94044e-15 0)
(3 -5.66435e-17 0)
(3 -1.56489e-15 0)
(3 -1.44659e-15 0)
(3 -1.11429e-15 0)
(3 -1.17999e-15 0)
(3 -1.61772e-15 0)
(3 -1.60044e-15 0)
(3 -1.8905e-15 0)
(3 -2.55577e-15 0)
(3 -2.22435e-15 0)
(3 -1.30628e-15 0)
(3 -9.42101e-16 0)
(3 -6.40483e-16 0)
(3 -7.53287e-16 0)
(3 -1.95112e-15 0)
(3 -1.88674e-15 0)
(3 3.11974e-19 0)
(3 -2.11433e-17 0)
(3 2.73597e-16 0)
(3 2.32533e-16 0)
(3 5.20834e-16 0)
(3 8.30887e-16 0)
(3 8.09476e-16 0)
(3 6.56804e-16 0)
(3 3.35716e-16 0)
(3 -6.52792e-16 0)
(3 -1.54586e-15 0)
(3 -2.52117e-15 0)
(3 -3.17243e-15 0)
(3 -2.65324e-15 0)
(3 -9.24241e-16 0)
(3 4.45296e-16 0)
(3 -8.32501e-16 0)
(3 -1.51055e-15 0)
(3 -1.56491e-15 0)
(3 -1.70642e-15 0)
(3 -1.94785e-15 0)
(3 -2.26151e-15 0)
(3 -1.99141e-15 0)
(3 -1.40436e-15 0)
(3 -1.39718e-15 0)
(3 -9.48791e-16 0)
(3 -1.45665e-15 0)
(3 -2.45565e-15 0)
(3 -2.15709e-15 0)
(3 -1.77012e-15 0)
(3 -1.45946e-15 0)
(3 -1.61385e-15 0)
(3 -1.72586e-15 0)
(3 -6.15391e-16 0)
(3 8.8036e-16 0)
(3 7.19654e-16 0)
(3 2.94813e-16 0)
(3 -1.14978e-16 0)
(3 4.185e-16 0)
(3 1.35554e-16 0)
(3 -1.63083e-15 0)
(3 -1.64593e-15 0)
(3 -1.44056e-15 0)
(3 -1.59933e-15 0)
(3 -1.94982e-15 0)
(3 -2.24693e-15 0)
(3 -4.36375e-15 0)
(3 -5.28199e-15 0)
(3 -4.61457e-15 0)
(3 -3.71647e-15 0)
(3 -2.32966e-15 0)
(3 -8.5006e-16 0)
(3 -4.55842e-16 0)
(3 -3.42702e-16 0)
(3 -5.63748e-16 0)
(3 -5.52829e-16 0)
(3 8.24104e-17 0)
(3 6.05013e-16 0)
(3 8.54781e-16 0)
(3 -3.1682e-16 0)
(3 -1.09784e-15 0)
(3 -1.04099e-15 0)
(3 -1.00118e-15 0)
(3 -6.66056e-16 0)
(3 -1.52775e-15 0)
(3 -1.49528e-15 0)
(3 -9.07878e-16 0)
(3 -1.78689e-16 0)
(3 5.58628e-18 0)
(3 -2.7386e-16 0)
(3 -7.8004e-16 0)
(3 -5.33283e-16 0)
(3 1.04232e-17 0)
(3 8.02021e-16 0)
(3 1.24153e-15 0)
(3 2.30413e-15 0)
(3 2.31527e-15 0)
(3 2.52622e-15 0)
(3 3.0886e-15 0)
(3 2.34506e-15 0)
(3 1.10408e-15 0)
(3 1.11712e-15 0)
(3 7.39754e-16 0)
(3 6.41229e-16 0)
(3 4.97675e-16 0)
(3 -3.99349e-16 0)
(3 -1.36765e-15 0)
(3 -2.15119e-15 0)
(3 -2.72028e-15 0)
(3 -2.64148e-15 0)
(3 -2.17946e-15 0)
(3 -1.92049e-15 0)
(3 -9.58393e-16 0)
(3 -8.56346e-16 0)
(3 -1.34474e-15 0)
(3 -1.44436e-15 0)
(3 -9.21627e-17 0)
(3 -1.87936e-16 0)
(3 7.99378e-17 0)
(3 1.11327e-15 0)
(3 1.35827e-15 0)
(3 1.04114e-15 0)
(3 7.04758e-16 0)
(3 5.99397e-17 0)
(3 -2.84946e-16 0)
(3 -1.29864e-15 0)
(3 -2.11091e-15 0)
(3 -2.47502e-15 0)
(3 -1.67518e-15 0)
(3 -3.28689e-16 0)
(3 1.58739e-16 0)
(3 -6.49207e-16 0)
(3 -1.04844e-15 0)
(3 -1.62419e-15 0)
(3 -1.60902e-15 0)
(3 -1.35867e-15 0)
(3 -1.86049e-15 0)
(3 -2.26471e-15 0)
(3 -1.38312e-15 0)
(3 -9.34414e-16 0)
(3 -9.63377e-16 0)
(3 -7.04858e-16 0)
(3 3.49478e-16 0)
(3 1.21312e-16 0)
(3 1.68468e-16 0)
(3 5.33355e-17 0)
(3 3.0031e-16 0)
(3 2.07876e-16 0)
(3 5.00259e-16 0)
(3 5.76134e-16 0)
(3 3.87348e-16 0)
(3 -2.52485e-16 0)
(3 -1.0868e-15 0)
(3 -5.7614e-16 0)
(3 1.10632e-15 0)
(3 1.12341e-15 0)
(3 5.89886e-17 0)
(3 -2.96243e-16 0)
(3 -5.44264e-16 0)
(3 -7.57206e-16 0)
(3 -1.5023e-15 0)
(3 -2.82942e-15 0)
(3 -3.35164e-15 0)
(3 -3.38128e-15 0)
(3 -3.90266e-15 0)
(3 -2.48354e-15 0)
(3 -1.7014e-15 0)
(3 -4.72504e-16 0)
(3 -5.41284e-16 0)
(3 -1.57794e-15 0)
(3 -1.80336e-15 0)
(3 -6.83939e-16 0)
(3 -5.3113e-16 0)
(3 1.57497e-16 0)
(3 4.09625e-17 0)
(3 -3.97219e-16 0)
(3 -3.56105e-16 0)
(3 -4.40562e-16 0)
(3 -5.37131e-16 0)
(3 -3.3749e-16 0)
(3 4.11025e-16 0)
(3 4.37213e-16 0)
(3 2.92666e-16 0)
(3 -1.98675e-16 0)
(3 -4.55767e-16 0)
(3 -2.82193e-16 0)
(3 6.0659e-16 0)
(3 1.1762e-15 0)
(3 1.2071e-15 0)
(3 1.28634e-15 0)
(3 2.48872e-15 0)
(3 2.40723e-15 0)
(3 1.20102e-15 0)
(3 3.83263e-16 0)
(3 2.03545e-16 0)
(3 1.03615e-15 0)
(3 2.18793e-15 0)
(3 3.63177e-15 0)
(3 3.64061e-15 0)
(3 2.47243e-15 0)
(3 1.59889e-15 0)
(3 2.63089e-16 0)
(3 -1.45113e-15 0)
(3 -2.08758e-15 0)
(3 -1.53662e-15 0)
(3 -7.45272e-16 0)
(3 -1.66701e-16 0)
(3 -1.65207e-16 0)
(3 7.48754e-17 0)
(3 7.28214e-16 0)
(3 1.35321e-15 0)
(3 1.48996e-15 0)
(3 -1.66219e-19 0)
(3 9.30004e-17 0)
(3 -4.44731e-17 0)
(3 -5.76975e-17 0)
(3 -3.78591e-17 0)
(3 -3.97586e-16 0)
(3 -4.87667e-16 0)
(3 3.05643e-16 0)
(3 -1.50635e-16 0)
(3 -7.45778e-16 0)
(3 -1.78908e-15 0)
(3 -2.04503e-15 0)
(3 -1.6182e-15 0)
(3 -1.24988e-15 0)
(3 -1.49997e-15 0)
(3 -1.97489e-15 0)
(3 -2.13435e-15 0)
(3 -1.87326e-15 0)
(3 -1.81221e-15 0)
(3 -2.0823e-15 0)
(3 -2.54163e-15 0)
(3 -2.07154e-15 0)
(3 -1.09544e-15 0)
(3 -4.97176e-16 0)
(3 5.11539e-16 0)
(3 2.82781e-17 0)
(3 4.67605e-17 0)
(3 6.62615e-16 0)
(3 9.14161e-16 0)
(3 1.04959e-15 0)
(3 1.40407e-15 0)
(3 2.28497e-15 0)
(3 2.31265e-15 0)
(3 1.71811e-15 0)
(3 1.14452e-15 0)
(3 1.11024e-15 0)
(3 -2.03396e-16 0)
(3 -6.24195e-16 0)
(3 -3.41418e-16 0)
(3 -4.85295e-17 0)
(3 -4.07841e-16 0)
(3 -7.64138e-18 0)
(3 -1.18616e-15 0)
(3 -1.85754e-15 0)
(3 -2.64285e-15 0)
(3 -3.28922e-15 0)
(3 -3.1121e-15 0)
(3 -2.38946e-15 0)
(3 -2.13409e-15 0)
(3 -1.53592e-15 0)
(3 -1.40492e-15 0)
(3 -1.06047e-15 0)
(3 -1.86113e-15 0)
(3 -2.6065e-15 0)
(3 -2.43301e-15 0)
(3 -2.2236e-15 0)
(3 -2.10314e-15 0)
(3 -1.49797e-15 0)
(3 -1.16377e-15 0)
(3 -9.82657e-16 0)
(3 -8.1082e-16 0)
(3 -9.75963e-16 0)
(3 -1.17398e-15 0)
(3 -8.02555e-16 0)
(3 4.25789e-16 0)
(3 1.22799e-15 0)
(3 1.33136e-15 0)
(3 9.28376e-16 0)
(3 1.72415e-16 0)
(3 1.46681e-16 0)
(3 2.1209e-16 0)
(3 -2.94484e-16 0)
(3 -3.89324e-16 0)
(3 -1.28782e-15 0)
(3 -8.36808e-16 0)
(3 -5.87597e-16 0)
(3 -6.55217e-16 0)
(3 -9.90392e-16 0)
(3 -2.04725e-15 0)
(3 -2.11389e-15 0)
(3 -1.33296e-15 0)
(3 3.07264e-16 0)
(3 1.73496e-15 0)
(3 2.28967e-15 0)
(3 1.55361e-15 0)
(3 3.31547e-16 0)
(3 -1.12273e-15 0)
(3 -1.73828e-15 0)
(3 -2.2371e-15 0)
(3 -1.86536e-15 0)
(3 -1.26724e-15 0)
(3 -8.40026e-16 0)
(3 -5.65433e-16 0)
(3 5.34698e-16 0)
(3 6.49363e-16 0)
(3 1.18615e-15 0)
(3 -1.91298e-16 0)
(3 1.61173e-16 0)
(3 2.79925e-17 0)
(3 -2.80474e-16 0)
(3 -4.17011e-16 0)
(3 -4.56717e-16 0)
(3 -1.80177e-16 0)
(3 5.25246e-16 0)
(3 7.71303e-16 0)
(3 -1.37825e-16 0)
(3 -3.52276e-16 0)
(3 -6.76707e-16 0)
(3 -1.08438e-15 0)
(3 -1.47798e-15 0)
(3 -2.24032e-15 0)
(3 -2.64583e-15 0)
(3 -1.69309e-15 0)
(3 -1.4658e-15 0)
(3 -1.60103e-15 0)
(3 -1.79023e-15 0)
(3 -1.03877e-15 0)
(3 1.74598e-16 0)
(3 -2.65546e-16 0)
(3 -1.95854e-16 0)
(3 -3.67656e-16 0)
(3 -4.39067e-16 0)
(3 -1.55678e-15 0)
(3 -1.38337e-15 0)
(3 1.9521e-16 0)
(3 8.47803e-16 0)
(3 9.62039e-16 0)
(3 2.51084e-15 0)
(3 2.56011e-15 0)
(3 2.31648e-15 0)
(3 1.0715e-15 0)
(3 8.94572e-16 0)
(3 1.04989e-16 0)
(3 -7.08603e-16 0)
(3 -1.43025e-15 0)
(3 -1.64275e-15 0)
(3 -1.18858e-15 0)
(3 -3.29826e-16 0)
(3 3.06175e-16 0)
(3 1.94254e-17 0)
(3 -7.47869e-16 0)
(3 -1.02077e-15 0)
(3 -1.45446e-15 0)
(3 -1.8909e-15 0)
(3 -1.9625e-15 0)
(3 -2.13059e-15 0)
(3 -2.25161e-15 0)
(3 -2.2428e-15 0)
(3 -2.41946e-15 0)
(3 -1.78646e-15 0)
(3 -1.64792e-15 0)
(3 -1.53703e-15 0)
(3 -8.16819e-16 0)
(3 -4.91152e-16 0)
(3 -5.23335e-16 0)
(3 2.70913e-16 0)
(3 1.88489e-16 0)
(3 -2.27561e-16 0)
(3 -4.62609e-16 0)
(3 -2.16787e-16 0)
(3 -1.3347e-17 0)
(3 2.14549e-17 0)
(3 2.57813e-16 0)
(3 7.18741e-16 0)
(3 1.35687e-15 0)
(3 1.12944e-15 0)
(3 -2.39855e-16 0)
(3 -1.11675e-15 0)
(3 -1.55458e-15 0)
(3 -2.92504e-15 0)
(3 -2.20983e-15 0)
(3 -9.23801e-16 0)
(3 -3.15827e-16 0)
(3 2.84561e-16 0)
(3 4.55752e-16 0)
(3 4.11826e-16 0)
(3 2.6385e-16 0)
(3 1.17264e-16 0)
(3 3.01964e-16 0)
(3 -7.98472e-17 0)
(3 -5.40981e-16 0)
(3 -1.21815e-15 0)
(3 -1.24039e-15 0)
(3 -1.36336e-15 0)
(3 -1.93995e-15 0)
(3 -2.31171e-15 0)
(3 -1.91141e-15 0)
(3 -9.18894e-16 0)
(3 -1.01374e-15 0)
(3 -1.51555e-15 0)
(3 -1.52149e-15 0)
(3 -1.00981e-15 0)
(3 -5.85868e-17 0)
(3 5.09244e-18 0)
(3 3.29874e-17 0)
(3 7.04432e-17 0)
(3 -2.4059e-16 0)
(3 -3.76992e-16 0)
(3 -3.50815e-16 0)
(3 3.62424e-17 0)
(3 3.35559e-16 0)
(3 -1.16596e-16 0)
(3 -4.05018e-18 0)
(3 -2.27683e-16 0)
(3 -4.3488e-16 0)
(3 -1.56026e-15 0)
(3 -2.2829e-15 0)
(3 -2.55805e-15 0)
(3 -2.48975e-15 0)
(3 -3.14179e-15 0)
(3 -3.46675e-15 0)
(3 -3.34809e-15 0)
(3 -1.98098e-15 0)
(3 -6.97658e-16 0)
(3 -3.8635e-16 0)
(3 -1.25921e-15 0)
(3 -1.88585e-15 0)
(3 -1.10729e-15 0)
(3 -9.76599e-16 0)
(3 -1.11036e-15 0)
(3 -1.97787e-15 0)
(3 -7.48112e-16 0)
(3 -1.28565e-16 0)
(3 5.37901e-16 0)
(3 1.85234e-16 0)
(3 -1.88539e-17 0)
(3 -8.8608e-16 0)
(3 -1.08505e-15 0)
(3 -8.87665e-16 0)
(3 -1.05652e-15 0)
(3 -1.17206e-15 0)
(3 -1.32308e-15 0)
(3 -1.47758e-15 0)
(3 -3.47567e-16 0)
(3 7.97007e-17 0)
(3 1.23542e-16 0)
(3 -1.85661e-16 0)
(3 -1.38399e-16 0)
(3 -1.1055e-15 0)
(3 -1.6265e-15 0)
(3 -1.68577e-15 0)
(3 -1.77e-15 0)
(3 -1.55139e-15 0)
(3 -1.12534e-15 0)