/*--------------------------------*- C++ -*----------------------------------*\
  =========                 |
  \\      /  F ield         | OpenFOAM: The Open Source CFD Toolbox
   \\    /   O peration     | Website:  https://openfoam.org
    \\  /    A nd           | Version:  7
     \\/     M anipulation  |
\*---------------------------------------------------------------------------*/
FoamFile
{
    version     2.0;
    format      ascii;
    class       volVectorField;
    location    "0.3";
    object      U;
}
// * * * * * * * * * * * * * * * * * * * * * * * * * * * * * * * * * * * * * //

dimensions      [0 1 -1 0 0 0 0];

internalField   nonuniform List<vector> 
73728
(
(3 7.59075e-18 0)
(3 -2.91129e-17 0)
(3 -7.71784e-17 0)
(3 -2.85159e-16 0)
(3 3.27088e-17 0)
(3 4.02575e-16 0)
(3 1.39808e-16 0)
(3 1.04626e-16 0)
(3 -6.33838e-16 0)
(3 -7.3499e-16 0)
(3 -8.38111e-16 0)
(3 -9.39753e-16 0)
(3 -2.90023e-16 0)
(3 1.10264e-15 0)
(3 1.98539e-15 0)
(3 1.91024e-15 0)
(3 1.80427e-15 0)
(3 1.03474e-15 0)
(3 2.93267e-17 0)
(3 -2.79452e-16 0)
(3 -3.03998e-16 0)
(3 -9.11592e-16 0)
(3 -1.32779e-15 0)
(3 -1.33665e-15 0)
(3 -1.24226e-15 0)
(3 -3.25619e-16 0)
(3 7.7281e-17 0)
(3 -2.24363e-16 0)
(3 -3.69516e-16 0)
(3 -6.94245e-16 0)
(3 -4.23057e-16 0)
(3 1.04882e-16 0)
(3 2.6773e-16 0)
(3 4.48692e-16 0)
(3 -8.30737e-17 0)
(3 1.38416e-15 0)
(3 2.20369e-15 0)
(3 2.79347e-15 0)
(3 2.73193e-15 0)
(3 2.14257e-15 0)
(3 2.37338e-15 0)
(3 2.5662e-15 0)
(3 1.9391e-15 0)
(3 1.13271e-15 0)
(3 -6.81474e-16 0)
(3 -1.39746e-15 0)
(3 -1.15434e-15 0)
(3 -1.07971e-15 0)
(3 -8.14496e-16 0)
(3 -7.91712e-16 0)
(3 -6.80292e-16 0)
(3 -8.0848e-16 0)
(3 -8.19041e-16 0)
(3 -7.15325e-16 0)
(3 -3.83304e-16 0)
(3 -9.55092e-16 0)
(3 -2.46823e-15 0)
(3 -3.18391e-15 0)
(3 -2.66761e-15 0)
(3 -1.73477e-15 0)
(3 -1.16343e-15 0)
(3 -1.62213e-15 0)
(3 -1.85986e-15 0)
(3 -1.90624e-15 0)
(3 -1.4562e-15 0)
(3 -1.04399e-15 0)
(3 -9.60739e-16 0)
(3 -2.72283e-16 0)
(3 1.03554e-15 0)
(3 1.76895e-15 0)
(3 2.40604e-15 0)
(3 1.98745e-15 0)
(3 1.00838e-15 0)
(3 -4.92979e-16 0)
(3 -1.28629e-15 0)
(3 -1.95605e-15 0)
(3 -2.48324e-15 0)
(3 -2.04963e-15 0)
(3 -1.21798e-15 0)
(3 5.61781e-16 0)
(3 1.79057e-15 0)
(3 1.43261e-15 0)
(3 1.27976e-15 0)
(3 5.82339e-16 0)
(3 -9.65921e-17 0)
(3 -5.19706e-17 0)
(3 -2.36514e-17 0)
(3 2.96197e-16 0)
(3 -1.74183e-16 0)
(3 -4.05854e-16 0)
(3 -4.07094e-16 0)
(3 -7.28026e-16 0)
(3 -4.49125e-16 0)
(3 2.13608e-17 0)
(3 -4.44773e-16 0)
(3 -1.03629e-15 0)
(3 -7.3918e-17 0)
(3 -2.44717e-16 0)
(3 -8.29332e-17 0)
(3 -2.75333e-16 0)
(3 -2.70627e-17 0)
(3 2.93149e-16 0)
(3 -1.90744e-16 0)
(3 -3.84865e-16 0)
(3 -1.20328e-15 0)
(3 -6.34073e-16 0)
(3 -2.65103e-16 0)
(3 -9.78371e-17 0)
(3 -5.03172e-17 0)
(3 -1.26241e-16 0)
(3 6.91463e-16 0)
(3 1.43417e-15 0)
(3 1.76189e-15 0)
(3 2.07435e-15 0)
(3 1.18722e-15 0)
(3 6.52623e-16 0)
(3 1.08768e-15 0)
(3 5.51502e-16 0)
(3 -8.34028e-17 0)
(3 -3.46343e-16 0)
(3 -7.1037e-16 0)
(3 -2.80821e-16 0)
(3 6.5298e-16 0)
(3 2.48688e-16 0)
(3 6.90581e-16 0)
(3 2.76506e-16 0)
(3 5.08241e-16 0)
(3 7.35237e-17 0)
(3 -1.48887e-16 0)
(3 4.28629e-17 0)
(3 6.13476e-16 0)
(3 1.50498e-15 0)
(3 2.67096e-15 0)
(3 4.33997e-15 0)
(3 4.58111e-15 0)
(3 2.95225e-15 0)
(3 2.62039e-15 0)
(3 2.20662e-15 0)
(3 1.73098e-15 0)
(3 7.43754e-16 0)
(3 -2.39758e-17 0)
(3 -1.74254e-15 0)
(3 -9.3911e-16 0)
(3 -1.16542e-15 0)
(3 -1.32082e-15 0)
(3 -1.37661e-15 0)
(3 -8.81736e-16 0)
(3 -8.38683e-16 0)
(3 -1.74346e-16 0)
(3 -1.82989e-16 0)
(3 -1.01851e-16 0)
(3 -1.43713e-15 0)
(3 -4.50048e-15 0)
(3 -5.12523e-15 0)
(3 -4.29936e-15 0)
(3 -2.23615e-15 0)
(3 -4.86975e-16 0)
(3 -1.45335e-15 0)
(3 -2.15889e-15 0)
(3 -2.08815e-15 0)
(3 -1.50868e-15 0)
(3 -8.17212e-16 0)
(3 -3.45331e-16 0)
(3 -4.5448e-17 0)
(3 3.56475e-16 0)
(3 5.46861e-16 0)
(3 1.08172e-15 0)
(3 9.35613e-16 0)
(3 3.11836e-16 0)
(3 -4.60895e-16 0)
(3 -8.51268e-16 0)
(3 -1.69577e-15 0)
(3 -2.94779e-15 0)
(3 -3.20412e-15 0)
(3 -2.38956e-15 0)
(3 -1.12882e-16 0)
(3 1.59319e-15 0)
(3 1.8353e-15 0)
(3 1.54769e-15 0)
(3 9.48446e-16 0)
(3 5.08851e-17 0)
(3 1.55891e-16 0)
(3 3.18019e-16 0)
(3 7.8477e-16 0)
(3 2.90654e-16 0)
(3 -3.18712e-16 0)
(3 4.09657e-17 0)
(3 4.6766e-16 0)
(3 3.16267e-16 0)
(3 1.4228e-16 0)
(3 -3.45446e-16 0)
(3 1.70461e-16 0)
(3 -1.42575e-17 0)
(3 1.29139e-16 0)
(3 2.2867e-17 0)
(3 -1.45354e-16 0)
(3 -1.14357e-16 0)
(3 -1.26779e-16 0)
(3 -3.89355e-16 0)
(3 -2.2467e-16 0)
(3 6.38326e-16 0)
(3 9.29179e-16 0)
(3 1.01288e-15 0)
(3 4.86488e-16 0)
(3 -4.77732e-16 0)
(3 -1.60998e-15 0)
(3 -2.10631e-15 0)
(3 -1.66541e-15 0)
(3 -1.07234e-15 0)
(3 -4.18973e-16 0)
(3 5.98644e-16 0)
(3 1.19409e-15 0)
(3 1.68764e-15 0)
(3 1.51662e-15 0)
(3 1.19065e-15 0)
(3 2.80611e-16 0)
(3 -2.84534e-16 0)
(3 -5.9491e-16 0)
(3 -5.10138e-16 0)
(3 1.58329e-16 0)
(3 -6.01746e-17 0)
(3 -6.59774e-16 0)
(3 -1.62293e-15 0)
(3 -1.90952e-15 0)
(3 -2.07958e-15 0)
(3 -1.90528e-15 0)
(3 -8.75629e-16 0)
(3 -2.27604e-16 0)
(3 8.22176e-16 0)
(3 2.3473e-15 0)
(3 3.03001e-15 0)
(3 3.611e-15 0)
(3 3.38414e-15 0)
(3 3.25716e-15 0)
(3 2.58444e-15 0)
(3 1.50023e-15 0)
(3 1.42914e-15 0)
(3 9.84436e-16 0)
(3 1.63526e-15 0)
(3 1.18132e-15 0)
(3 8.05269e-16 0)
(3 -2.00255e-16 0)
(3 -3.72389e-16 0)
(3 -2.10933e-16 0)
(3 -1.27879e-16 0)
(3 4.19853e-16 0)
(3 -1.57344e-16 0)
(3 -7.05171e-16 0)
(3 -1.93573e-15 0)
(3 -4.44747e-15 0)
(3 -6.10105e-15 0)
(3 -5.00688e-15 0)
(3 -3.33464e-15 0)
(3 -2.32449e-17 0)
(3 1.71967e-15 0)
(3 1.33122e-15 0)
(3 1.08604e-15 0)
(3 6.38483e-16 0)
(3 -1.25552e-16 0)
(3 -1.57873e-15 0)
(3 -2.79923e-15 0)
(3 -3.49108e-15 0)
(3 -3.52781e-15 0)
(3 -3.02852e-15 0)
(3 -2.28189e-15 0)
(3 -2.65705e-16 0)
(3 5.49086e-16 0)
(3 9.1882e-16 0)
(3 -8.50603e-16 0)
(3 -1.3107e-15 0)
(3 -1.87948e-15 0)
(3 -1.89647e-15 0)
(3 -1.43617e-15 0)
(3 -9.50422e-16 0)
(3 4.25376e-16 0)
(3 1.01196e-15 0)
(3 5.91422e-16 0)
(3 3.49408e-16 0)
(3 1.03541e-16 0)
(3 2.55366e-16 0)
(3 8.37922e-16 0)
(3 8.11765e-16 0)
(3 1.35732e-15 0)
(3 1.94263e-15 0)
(3 1.89889e-15 0)
(3 1.38773e-15 0)
(3 5.82936e-16 0)
(3 1.18207e-15 0)
(3 3.89314e-16 0)
(3 1.14152e-15 0)
(3 8.05821e-16 0)
(3 7.60882e-16 0)
(3 4.03216e-16 0)
(3 -7.55139e-17 0)
(3 4.38026e-16 0)
(3 3.45576e-16 0)
(3 5.03483e-16 0)
(3 1.0974e-16 0)
(3 -2.03806e-16 0)
(3 -2.4217e-16 0)
(3 -8.15258e-17 0)
(3 1.36105e-16 0)
(3 -1.248e-16 0)
(3 -4.35146e-16 0)
(3 -5.68011e-16 0)
(3 -6.94836e-16 0)
(3 1.43055e-17 0)
(3 1.82015e-16 0)
(3 4.21748e-16 0)
(3 6.50497e-16 0)
(3 9.66421e-16 0)
(3 9.20897e-16 0)
(3 1.20021e-15 0)
(3 2.69087e-16 0)
(3 -4.11892e-17 0)
(3 -4.18112e-16 0)
(3 -7.78625e-16 0)
(3 -1.01289e-15 0)
(3 -1.81891e-15 0)
(3 -2.5287e-15 0)
(3 -2.36446e-15 0)
(3 -2.11463e-15 0)
(3 -1.81777e-15 0)
(3 -1.62156e-15 0)
(3 -1.14022e-15 0)
(3 -6.30048e-16 0)
(3 -2.91538e-16 0)
(3 4.91487e-16 0)
(3 -1.11572e-16 0)
(3 4.89981e-16 0)
(3 1.36938e-16 0)
(3 -1.65148e-16 0)
(3 8.43744e-16 0)
(3 1.29735e-15 0)
(3 7.30138e-16 0)
(3 1.53278e-16 0)
(3 -9.16284e-19 0)
(3 -2.34507e-16 0)
(3 -8.68314e-16 0)
(3 -9.33166e-16 0)
(3 -1.74304e-15 0)
(3 -8.04561e-16 0)
(3 -5.62151e-16 0)
(3 1.66759e-17 0)
(3 1.84006e-16 0)
(3 -5.08736e-16 0)
(3 -1.66082e-15 0)
(3 -2.11131e-15 0)
(3 -1.6241e-15 0)
(3 -5.60703e-16 0)
(3 5.56222e-17 0)
(3 -7.88273e-16 0)
(3 -2.22912e-15 0)
(3 -3.31734e-15 0)
(3 -4.10276e-15 0)
(3 -4.12568e-15 0)
(3 -3.57572e-15 0)
(3 -2.37396e-15 0)
(3 -1.62604e-15 0)
(3 -7.91858e-16 0)
(3 6.29979e-16 0)
(3 1.19203e-15 0)
(3 2.0587e-16 0)
(3 9.28521e-16 0)
(3 8.30493e-16 0)
(3 8.26441e-16 0)
(3 1.0027e-16 0)
(3 -1.21178e-15 0)
(3 -1.40494e-15 0)
(3 -1.101e-15 0)
(3 -1.58504e-16 0)
(3 -8.10304e-17 0)
(3 -4.82233e-16 0)
(3 -1.45779e-15 0)
(3 -1.82223e-15 0)
(3 -2.38332e-15 0)
(3 -2.92955e-16 0)
(3 1.64128e-15 0)
(3 2.33569e-15 0)
(3 2.30063e-15 0)
(3 2.15652e-15 0)
(3 2.31115e-15 0)
(3 1.89319e-15 0)
(3 5.25777e-16 0)
(3 4.8453e-17 0)
(3 -2.8745e-17 0)
(3 2.07008e-17 0)
(3 2.17389e-17 0)
(3 -3.51959e-17 0)
(3 3.14291e-16 0)
(3 3.47197e-16 0)
(3 4.62583e-16 0)
(3 4.08326e-16 0)
(3 8.72741e-16 0)
(3 1.05656e-15 0)
(3 1.31606e-15 0)
(3 2.49546e-15 0)
(3 2.87221e-15 0)
(3 3.08246e-15 0)
(3 2.94953e-15 0)
(3 2.62193e-15 0)
(3 1.94252e-15 0)
(3 1.39452e-15 0)
(3 9.45197e-16 0)
(3 1.02074e-15 0)
(3 1.5518e-15 0)
(3 1.48506e-15 0)
(3 1.95668e-15 0)
(3 1.9894e-15 0)
(3 1.96115e-15 0)
(3 1.7724e-15 0)
(3 1.01591e-15 0)
(3 7.69881e-16 0)
(3 -3.33981e-16 0)
(3 -1.27852e-16 0)
(3 -5.98851e-16 0)
(3 -4.83912e-16 0)
(3 -3.48783e-16 0)
(3 -5.3495e-17 0)
(3 -1.47223e-16 0)
(3 -3.41996e-16 0)
(3 -9.61639e-17 0)
(3 4.26536e-16 0)
(3 7.09339e-17 0)
(3 -4.41078e-16 0)
(3 -1.08135e-15 0)
(3 -8.07296e-16 0)
(3 -1.76454e-16 0)
(3 1.48507e-15 0)
(3 1.23831e-15 0)
(3 7.00069e-16 0)
(3 5.93314e-16 0)
(3 4.17218e-16 0)
(3 1.01078e-16 0)
(3 5.01201e-17 0)
(3 -1.57627e-17 0)
(3 4.01043e-16 0)
(3 -3.09583e-17 0)
(3 -6.79137e-16 0)
(3 -7.65576e-16 0)
(3 -9.97779e-17 0)
(3 1.50119e-15 0)
(3 2.22575e-15 0)
(3 2.5977e-16 0)
(3 3.23237e-16 0)
(3 4.44391e-16 0)
(3 6.69088e-16 0)
(3 5.71274e-16 0)
(3 3.88372e-16 0)
(3 -1.18297e-16 0)
(3 -2.04774e-15 0)
(3 -3.2978e-15 0)
(3 -2.23753e-15 0)
(3 -5.76207e-16 0)
(3 2.65204e-16 0)
(3 1.63979e-15 0)
(3 2.25755e-15 0)
(3 4.62508e-16 0)
(3 -2.68938e-15 0)
(3 -3.03532e-15 0)
(3 -2.05312e-15 0)
(3 -1.11699e-15 0)
(3 -7.20244e-16 0)
(3 -1.13394e-15 0)
(3 -1.13229e-15 0)
(3 -5.696e-16 0)
(3 -6.88849e-16 0)
(3 -1.94768e-15 0)
(3 -2.38427e-15 0)
(3 -3.11208e-15 0)
(3 -3.10267e-15 0)
(3 -2.89037e-15 0)
(3 -1.77848e-15 0)
(3 -4.57515e-16 0)
(3 2.56207e-16 0)
(3 1.35725e-15 0)
(3 1.85322e-15 0)
(3 1.74277e-15 0)
(3 1.7072e-15 0)
(3 1.42094e-15 0)
(3 -1.34601e-17 0)
(3 -4.83406e-16 0)
(3 -9.45809e-16 0)
(3 -9.4602e-16 0)
(3 -7.46783e-16 0)
(3 2.78383e-16 0)
(3 -2.64735e-17 0)
(3 1.95156e-16 0)
(3 1.01336e-15 0)
(3 1.33326e-15 0)
(3 1.50336e-15 0)
(3 1.40495e-15 0)
(3 7.99667e-16 0)
(3 7.4486e-16 0)
(3 1.82752e-15 0)
(3 2.73116e-15 0)
(3 2.67495e-15 0)
(3 2.49019e-15 0)
(3 2.02551e-15 0)
(3 1.8882e-15 0)
(3 1.58773e-15 0)
(3 1.27308e-15 0)
(3 8.18721e-16 0)
(3 7.88513e-16 0)
(3 7.35027e-16 0)
(3 6.16611e-16 0)
(3 -7.60713e-17 0)
(3 -8.14128e-16 0)
(3 -1.44674e-15 0)
(3 -1.77759e-15 0)
(3 -1.69684e-15 0)
(3 -5.777e-16 0)
(3 -2.67246e-16 0)
(3 1.20742e-16 0)
(3 3.64443e-16 0)
(3 8.00683e-16 0)
(3 8.38717e-16 0)
(3 6.10552e-16 0)
(3 6.14987e-16 0)
(3 6.64714e-16 0)
(3 5.95012e-16 0)
(3 1.44649e-16 0)
(3 4.01912e-16 0)
(3 1.63772e-16 0)
(3 2.88807e-16 0)
(3 5.82006e-16 0)
(3 7.4998e-16 0)
(3 5.01638e-16 0)
(3 6.8668e-16 0)
(3 6.78905e-16 0)
(3 8.40208e-16 0)
(3 6.84199e-16 0)
(3 1.37905e-18 0)
(3 -1.07819e-15 0)
(3 -1.55814e-15 0)
(3 -1.05532e-15 0)
(3 7.83849e-16 0)
(3 2.05931e-15 0)
(3 3.00071e-15 0)
(3 2.62466e-15 0)
(3 1.29416e-15 0)
(3 7.50419e-16 0)
(3 5.50183e-16 0)
(3 1.23579e-15 0)
(3 1.30499e-15 0)
(3 4.99029e-16 0)
(3 -3.91295e-16 0)
(3 -3.52304e-16 0)
(3 1.46233e-15 0)
(3 2.36394e-15 0)
(3 2.69925e-15 0)
(3 1.63497e-15 0)
(3 1.32504e-15 0)
(3 -6.52144e-16 0)
(3 -4.85193e-15 0)
(3 -5.90154e-15 0)
(3 -5.94221e-15 0)
(3 -4.4672e-15 0)
(3 -1.68308e-15 0)
(3 -5.54244e-16 0)
(3 -9.48351e-16 0)
(3 -1.09576e-15 0)
(3 -2.82141e-15 0)
(3 -4.84002e-15 0)
(3 -4.81012e-15 0)
(3 -3.46191e-15 0)
(3 -3.37373e-15 0)
(3 -1.8484e-15 0)
(3 -1.2855e-15 0)
(3 -8.44165e-16 0)
(3 -7.73329e-16 0)
(3 -9.49036e-16 0)
(3 -6.55997e-17 0)
(3 -2.48496e-16 0)
(3 2.76232e-16 0)
(3 2.14691e-15 0)
(3 1.71638e-17 0)
(3 1.24014e-17 0)
(3 3.2905e-16 0)
(3 8.81545e-16 0)
(3 1.43925e-15 0)
(3 1.16922e-15 0)
(3 1.24445e-15 0)
(3 1.15908e-15 0)
(3 1.05792e-15 0)
(3 8.34143e-16 0)
(3 7.71875e-16 0)
(3 3.91075e-16 0)
(3 -8.38488e-16 0)
(3 -7.33238e-16 0)
(3 -6.33532e-16 0)
(3 -8.80615e-16 0)
(3 -7.58928e-16 0)
(3 -9.81654e-17 0)
(3 7.03844e-17 0)
(3 2.24777e-16 0)
(3 -2.05727e-16 0)
(3 -2.00783e-16 0)
(3 -6.93646e-17 0)
(3 -5.17775e-16 0)
(3 -9.26166e-16 0)
(3 -1.32365e-15 0)
(3 -1.74517e-15 0)
(3 -2.74567e-15 0)
(3 -2.6276e-15 0)
(3 -2.52151e-15 0)
(3 -2.04415e-15 0)
(3 -1.28247e-15 0)
(3 -3.89439e-16 0)
(3 -2.6371e-16 0)
(3 -6.38379e-16 0)
(3 -8.66712e-16 0)
(3 -9.80819e-16 0)
(3 -1.30469e-15 0)
(3 -7.63783e-16 0)
(3 -5.66375e-16 0)
(3 -1.18978e-15 0)
(3 -7.42586e-16 0)
(3 -6.85958e-16 0)
(3 -8.08108e-16 0)
(3 -1.02958e-15 0)
(3 -6.18897e-16 0)
(3 2.78682e-16 0)
(3 8.32573e-16 0)
(3 1.56418e-15 0)
(3 1.40312e-15 0)
(3 1.28654e-15 0)
(3 1.12998e-15 0)
(3 1.04423e-15 0)
(3 9.36084e-16 0)
(3 1.52655e-15 0)
(3 2.72135e-15 0)
(3 3.04638e-15 0)
(3 3.14759e-15 0)
(3 2.7382e-15 0)
(3 2.76279e-15 0)
(3 2.95336e-15 0)
(3 1.32514e-15 0)
(3 1.23935e-16 0)
(3 -2.39537e-16 0)
(3 -5.49316e-16 0)
(3 -1.68386e-16 0)
(3 1.22251e-15 0)
(3 2.83842e-15 0)
(3 1.8557e-15 0)
(3 1.12127e-15 0)
(3 1.46766e-15 0)
(3 -4.85321e-16 0)
(3 -3.38866e-15 0)
(3 -3.53222e-15 0)
(3 -3.90087e-15 0)
(3 -4.47679e-15 0)
(3 -4.5116e-15 0)
(3 -2.82382e-15 0)
(3 -1.21595e-15 0)
(3 -1.00297e-15 0)
(3 -1.63076e-15 0)
(3 -2.79804e-15 0)
(3 -4.19165e-15 0)
(3 -3.95057e-15 0)
(3 -2.9101e-15 0)
(3 -1.92257e-15 0)
(3 -1.79545e-15 0)
(3 -1.80968e-15 0)
(3 -1.54146e-15 0)
(3 -1.28688e-15 0)
(3 -9.49221e-16 0)
(3 -1.00869e-15 0)
(3 -7.08609e-16 0)
(3 -4.53698e-17 0)
(3 -1.7963e-16 0)
(3 -1.27569e-16 0)
(3 -2.10141e-16 0)
(3 -6.45807e-17 0)
(3 3.34429e-16 0)
(3 2.45438e-16 0)
(3 2.92041e-16 0)
(3 1.95814e-16 0)
(3 6.31092e-16 0)
(3 1.48915e-15 0)
(3 1.03979e-15 0)
(3 1.36389e-16 0)
(3 -7.0048e-16 0)
(3 -1.3658e-15 0)
(3 -1.5058e-15 0)
(3 -1.6949e-15 0)
(3 -2.22583e-15 0)
(3 -3.13558e-15 0)
(3 -2.69775e-15 0)
(3 -2.04034e-15 0)
(3 -8.15676e-16 0)
(3 -6.48833e-16 0)
(3 -1.95742e-16 0)
(3 1.33827e-16 0)
(3 4.03033e-16 0)
(3 4.72073e-16 0)
(3 1.52482e-16 0)
(3 4.99627e-17 0)
(3 4.45937e-16 0)
(3 -8.58064e-17 0)
(3 -2.71338e-16 0)
(3 4.49569e-16 0)
(3 1.3955e-15 0)
(3 1.90742e-15 0)
(3 2.48812e-15 0)
(3 2.26885e-15 0)
(3 1.21744e-15 0)
(3 -4.36439e-17 0)
(3 -9.56162e-16 0)
(3 -1.54699e-15 0)
(3 -9.99918e-16 0)
(3 -5.20811e-16 0)
(3 -7.57154e-16 0)
(3 -1.34824e-15 0)
(3 -1.75578e-15 0)
(3 -1.49547e-15 0)
(3 -1.40248e-15 0)
(3 -9.21445e-16 0)
(3 2.26762e-16 0)
(3 1.07691e-15 0)
(3 1.80981e-15 0)
(3 1.51842e-15 0)
(3 1.82372e-15 0)
(3 2.63339e-15 0)
(3 2.81642e-15 0)
(3 3.3157e-15 0)
(3 3.98164e-15 0)
(3 3.99425e-15 0)
(3 3.80952e-15 0)
(3 2.80519e-15 0)
(3 1.36659e-15 0)
(3 7.18685e-16 0)
(3 -3.60304e-16 0)
(3 -3.75251e-16 0)
(3 -5.07622e-16 0)
(3 -6.76795e-16 0)
(3 -2.38624e-16 0)
(3 1.22824e-15 0)
(3 3.24021e-15 0)
(3 4.24586e-15 0)
(3 2.70297e-15 0)
(3 -3.6718e-17 0)
(3 -8.40772e-16 0)
(3 -2.52724e-15 0)
(3 -5.35322e-15 0)
(3 -4.94278e-15 0)
(3 -3.87724e-15 0)
(3 -3.17832e-15 0)
(3 -3.28812e-15 0)
(3 -2.94672e-15 0)
(3 -2.18504e-15 0)
(3 -2.00225e-15 0)
(3 -2.7389e-15 0)
(3 -3.19181e-15 0)
(3 -2.32305e-15 0)
(3 -9.36073e-16 0)
(3 4.02767e-16 0)
(3 4.10458e-16 0)
(3 6.45425e-17 0)
(3 -1.47768e-15 0)
(3 -1.53988e-15 0)
(3 -1.03779e-15 0)
(3 -1.17179e-15 0)
(3 -3.76508e-16 0)
(3 -1.85488e-16 0)
(3 -4.38901e-16 0)
(3 -2.03987e-15 0)
(3 -3.29637e-15 0)
(3 -1.57383e-16 0)
(3 4.5073e-17 0)
(3 -2.1749e-16 0)
(3 -4.5537e-16 0)
(3 -9.98226e-16 0)
(3 -1.68783e-15 0)
(3 -1.50588e-15 0)
(3 -7.14631e-16 0)
(3 1.51256e-16 0)
(3 -1.11571e-15 0)
(3 -2.28591e-15 0)
(3 -2.02215e-15 0)
(3 -2.57092e-15 0)
(3 -2.70419e-15 0)
(3 -2.52271e-15 0)
(3 -1.28532e-15 0)
(3 -1.01153e-15 0)
(3 -1.99764e-16 0)
(3 7.51169e-16 0)
(3 2.18455e-15 0)
(3 2.45743e-15 0)
(3 1.80825e-15 0)
(3 1.73912e-15 0)
(3 2.19759e-15 0)
(3 1.64583e-15 0)
(3 1.12155e-15 0)
(3 1.44957e-16 0)
(3 1.69791e-16 0)
(3 1.18536e-16 0)
(3 1.18143e-15 0)
(3 1.34253e-15 0)
(3 2.01646e-15 0)
(3 2.15199e-15 0)
(3 2.43141e-15 0)
(3 2.11148e-15 0)
(3 1.22985e-15 0)
(3 -1.18328e-15 0)
(3 -2.51344e-15 0)
(3 -2.45622e-15 0)
(3 -2.18102e-15 0)
(3 -1.43658e-15 0)
(3 -9.91636e-16 0)
(3 -1.1383e-15 0)
(3 -1.27668e-15 0)
(3 -4.45698e-16 0)
(3 6.31916e-16 0)
(3 1.20771e-15 0)
(3 1.52384e-15 0)
(3 1.38595e-15 0)
(3 1.02704e-15 0)
(3 1.1259e-15 0)
(3 1.58947e-15 0)
(3 1.67856e-15 0)
(3 1.9989e-15 0)
(3 1.77486e-15 0)
(3 1.04859e-15 0)
(3 1.31237e-15 0)
(3 1.28537e-15 0)
(3 3.83098e-16 0)
(3 -2.02071e-15 0)
(3 -3.01174e-15 0)
(3 -2.37637e-15 0)
(3 -2.04682e-15 0)
(3 -1.80419e-15 0)
(3 -9.74377e-16 0)
(3 2.22871e-16 0)
(3 1.40475e-15 0)
(3 1.13393e-15 0)
(3 1.41149e-15 0)
(3 5.7935e-17 0)
(3 -1.35077e-15 0)
(3 -2.06451e-15 0)
(3 -3.23097e-15 0)
(3 -5.0171e-15 0)
(3 -4.90475e-15 0)
(3 -3.16074e-15 0)
(3 -2.21452e-15 0)
(3 -2.63548e-15 0)
(3 -2.4972e-15 0)
(3 -2.90044e-15 0)
(3 -3.52752e-15 0)
(3 -3.47325e-15 0)
(3 -5.14845e-16 0)
(3 1.94388e-15 0)
(3 2.51497e-15 0)
(3 2.35008e-15 0)
(3 7.30785e-16 0)
(3 3.97111e-16 0)
(3 4.35542e-16 0)
(3 4.09454e-16 0)
(3 -1.11934e-15 0)
(3 -1.10659e-15 0)
(3 -1.94987e-15 0)
(3 -2.77783e-15 0)
(3 -3.72913e-15 0)
(3 -4.1135e-15 0)
(3 -1.15128e-16 0)
(3 -7.33409e-17 0)
(3 1.29427e-17 0)
(3 2.32767e-16 0)
(3 -1.87295e-16 0)
(3 -1.49013e-16 0)
(3 -1.49449e-16 0)
(3 -4.8242e-16 0)
(3 -2.06122e-16 0)
(3 -4.81221e-16 0)
(3 -8.85878e-16 0)
(3 -6.59487e-16 0)
(3 7.64465e-17 0)
(3 3.2253e-16 0)
(3 6.96365e-16 0)
(3 1.25e-15 0)
(3 1.6438e-15 0)
(3 2.12723e-15 0)
(3 2.22791e-15 0)
(3 1.57179e-15 0)
(3 1.49363e-15 0)
(3 1.71733e-15 0)
(3 1.6529e-15 0)
(3 1.19638e-15 0)
(3 6.7473e-16 0)
(3 3.56123e-16 0)
(3 -7.30933e-16 0)
(3 4.23408e-16 0)
(3 4.06279e-16 0)
(3 1.72284e-16 0)
(3 -1.78872e-16 0)
(3 2.63621e-16 0)
(3 4.47926e-16 0)
(3 2.02152e-16 0)
(3 4.16725e-16 0)
(3 6.09885e-16 0)
(3 6.07365e-16 0)
(3 -5.4358e-16 0)
(3 -1.49968e-15 0)
(3 -1.97183e-15 0)
(3 -1.52417e-15 0)
(3 -1.7959e-15 0)
(3 -2.50305e-15 0)
(3 -2.43116e-15 0)
(3 -1.28566e-15 0)
(3 -5.63659e-16 0)
(3 5.0082e-16 0)
(3 7.17635e-16 0)
(3 4.87498e-16 0)
(3 2.11142e-16 0)
(3 3.33309e-16 0)
(3 3.97175e-16 0)
(3 7.47713e-16 0)
(3 1.20761e-15 0)
(3 8.61263e-16 0)
(3 7.13118e-16 0)
(3 -5.61312e-16 0)
(3 -1.58259e-15 0)
(3 -1.84557e-15 0)
(3 -1.86658e-15 0)
(3 -1.33981e-15 0)
(3 -1.30206e-15 0)
(3 -8.72908e-16 0)
(3 -6.57217e-16 0)
(3 -1.65158e-16 0)
(3 2.51502e-16 0)
(3 9.27119e-16 0)
(3 8.93028e-16 0)
(3 6.56537e-16 0)
(3 1.21671e-15 0)
(3 1.79448e-15 0)
(3 1.75144e-15 0)
(3 6.34905e-16 0)
(3 -1.41493e-15 0)
(3 -2.63452e-15 0)
(3 -2.75531e-15 0)
(3 -2.64429e-15 0)
(3 -2.77649e-15 0)
(3 -3.06913e-15 0)
(3 -3.71189e-15 0)
(3 -3.62579e-15 0)
(3 -2.58637e-15 0)
(3 -1.41568e-15 0)
(3 -2.10038e-15 0)
(3 -2.38715e-15 0)
(3 -1.50858e-15 0)
(3 1.53855e-16 0)
(3 7.20615e-16 0)
(3 2.89433e-16 0)
(3 8.62567e-17 0)
(3 -3.11962e-16 0)
(3 -1.09583e-15 0)
(3 -3.00151e-15 0)
(3 -3.56279e-15 0)
(3 -4.06178e-15 0)
(3 -4.05925e-15 0)
(3 3.57691e-16 0)
(3 2.03167e-16 0)
(3 -5.81569e-16 0)
(3 -6.65144e-16 0)
(3 -7.0785e-16 0)
(3 9.78315e-16 0)
(3 1.13311e-15 0)
(3 8.21098e-16 0)
(3 8.19145e-16 0)
(3 1.35768e-15 0)
(3 1.72977e-15 0)
(3 1.67946e-15 0)
(3 3.24335e-15 0)
(3 3.01331e-15 0)
(3 3.02639e-15 0)
(3 2.65303e-15 0)
(3 3.29713e-15 0)
(3 2.18825e-15 0)
(3 5.72373e-16 0)
(3 -8.29224e-16 0)
(3 -8.96583e-16 0)
(3 -5.85275e-16 0)
(3 -4.85637e-16 0)
(3 -5.32782e-16 0)
(3 -4.03876e-18 0)
(3 6.05312e-16 0)
(3 2.16208e-15 0)
(3 2.53005e-15 0)
(3 2.39187e-15 0)
(3 1.43595e-15 0)
(3 1.28761e-15 0)
(3 7.19597e-16 0)
(3 8.59266e-16 0)
(3 7.14961e-16 0)
(3 8.0223e-16 0)
(3 1.1153e-15 0)
(3 1.83225e-15 0)
(3 1.4694e-15 0)
(3 1.36586e-16 0)
(3 -1.04108e-15 0)
(3 -1.22258e-15 0)
(3 -2.04677e-15 0)
(3 -2.371e-15 0)
(3 -2.4049e-15 0)
(3 -1.89193e-15 0)
(3 -2.03877e-15 0)
(3 -1.92852e-15 0)
(3 -1.72254e-15 0)
(3 -1.65973e-15 0)
(3 -6.89685e-16 0)
(3 8.64158e-16 0)
(3 1.60819e-15 0)
(3 1.52375e-15 0)
(3 1.00174e-15 0)
(3 1.03215e-15 0)
(3 8.69365e-16 0)
(3 1.26566e-16 0)
(3 -1.11731e-15 0)
(3 -9.32775e-16 0)
(3 -1.46159e-15 0)
(3 -1.20884e-15 0)
(3 -1.73787e-15 0)
(3 -1.26202e-15 0)
(3 -1.12459e-15 0)
(3 -1.32727e-15 0)
(3 -1.27622e-15 0)
(3 -1.04287e-15 0)
(3 -1.38161e-16 0)
(3 1.01378e-17 0)
(3 -3.33395e-16 0)
(3 -9.16053e-16 0)
(3 -1.61123e-15 0)
(3 -1.43575e-15 0)
(3 -4.98473e-16 0)
(3 -5.05906e-16 0)
(3 -1.57402e-15 0)
(3 -2.42514e-15 0)
(3 -2.13342e-15 0)
(3 -2.56895e-15 0)
(3 -2.57653e-15 0)
(3 -1.78858e-15 0)
(3 -9.84361e-16 0)
(3 -4.51007e-16 0)
(3 -1.39886e-15 0)
(3 -2.3319e-15 0)
(3 -2.51478e-15 0)
(3 -1.69084e-15 0)
(3 9.91824e-16 0)
(3 9.42135e-16 0)
(3 -1.2141e-16 0)
(3 -4.32711e-16 0)
(3 -1.60439e-15 0)
(3 -3.32966e-15 0)
(3 -4.58506e-15 0)
(3 -5.10436e-15 0)
(3 -5.24414e-15 0)
(3 6.17965e-17 0)
(3 -1.43343e-16 0)
(3 -2.35121e-16 0)
(3 -5.71033e-16 0)
(3 -5.66646e-16 0)
(3 4.48742e-16 0)
(3 6.50335e-16 0)
(3 1.32456e-16 0)
(3 6.41755e-16 0)
(3 1.10816e-15 0)
(3 2.536e-15 0)
(3 2.55315e-15 0)
(3 3.37428e-15 0)
(3 2.82682e-15 0)
(3 1.79047e-15 0)
(3 1.60963e-15 0)
(3 8.54098e-16 0)
(3 -1.70572e-16 0)
(3 -1.53198e-15 0)
(3 -1.53352e-15 0)
(3 -1.95665e-15 0)
(3 -2.28625e-15 0)
(3 -1.91131e-15 0)
(3 -1.63786e-15 0)
(3 -7.14014e-16 0)
(3 3.38169e-16 0)
(3 2.45277e-15 0)
(3 3.06477e-15 0)
(3 3.11598e-15 0)
(3 2.5027e-15 0)
(3 1.54714e-15 0)
(3 -1.87702e-16 0)
(3 -8.50651e-16 0)
(3 -1.23872e-15 0)
(3 -1.41881e-15 0)
(3 -9.9246e-16 0)
(3 -9.32534e-16 0)
(3 4.69818e-16 0)
(3 3.52253e-16 0)
(3 -9.00551e-16 0)
(3 -1.92912e-15 0)
(3 -1.70754e-15 0)
(3 -9.82593e-16 0)
(3 -3.21531e-16 0)
(3 -3.30185e-16 0)
(3 -1.65715e-15 0)
(3 -3.13988e-15 0)
(3 -3.12515e-15 0)
(3 -1.96838e-15 0)
(3 1.17245e-16 0)
(3 2.35033e-15 0)
(3 2.83647e-15 0)
(3 2.47673e-15 0)
(3 8.7763e-16 0)
(3 6.52384e-16 0)
(3 1.18655e-15 0)
(3 2.16746e-15 0)
(3 2.34195e-15 0)
(3 2.59975e-15 0)
(3 1.4247e-15 0)
(3 1.12851e-15 0)
(3 7.86335e-16 0)
(3 -2.32449e-18 0)
(3 -5.09125e-16 0)
(3 -1.12276e-15 0)
(3 -2.13363e-15 0)
(3 -2.15015e-15 0)
(3 -1.54886e-15 0)
(3 -1.23113e-15 0)
(3 -2.21301e-15 0)
(3 -2.94116e-15 0)
(3 -2.20575e-15 0)
(3 -1.16327e-15 0)
(3 -2.88787e-17 0)
(3 -5.01245e-16 0)
(3 -1.75714e-15 0)
(3 -2.3164e-15 0)
(3 -1.80972e-15 0)
(3 -1.37127e-15 0)
(3 -1.1724e-15 0)
(3 -8.33731e-16 0)
(3 -9.01909e-16 0)
(3 -7.45863e-16 0)
(3 -1.1024e-16 0)
(3 2.25284e-16 0)
(3 -3.17921e-17 0)
(3 -2.80423e-16 0)
(3 5.2069e-16 0)
(3 1.04335e-15 0)
(3 3.35133e-16 0)
(3 -6.11159e-16 0)
(3 -3.8107e-16 0)
(3 -8.38982e-16 0)
(3 -2.08313e-15 0)
(3 -3.83036e-15 0)
(3 -5.11416e-15 0)
(3 3.22553e-17 0)
(3 1.87803e-16 0)
(3 1.60799e-16 0)
(3 1.62963e-16 0)
(3 3.88812e-16 0)
(3 6.37689e-16 0)
(3 5.67496e-16 0)
(3 4.25938e-16 0)
(3 -2.30456e-16 0)
(3 -1.2047e-16 0)
(3 4.19779e-16 0)
(3 5.70003e-16 0)
(3 1.67465e-16 0)
(3 1.87379e-16 0)
(3 4.74627e-16 0)
(3 3.17439e-16 0)
(3 -3.01963e-16 0)
(3 -3.78141e-16 0)
(3 -6.6376e-16 0)
(3 -1.05143e-15 0)
(3 -6.75056e-16 0)
(3 -6.38661e-17 0)
(3 8.1084e-16 0)
(3 8.27341e-16 0)
(3 2.85791e-16 0)
(3 7.5395e-16 0)
(3 1.14693e-15 0)
(3 1.15979e-15 0)
(3 1.461e-15 0)
(3 1.44895e-15 0)
(3 4.66702e-16 0)
(3 -1.95083e-15 0)
(3 -3.11129e-15 0)
(3 -2.79592e-15 0)
(3 -2.25434e-15 0)
(3 -1.34541e-15 0)
(3 -3.96489e-16 0)
(3 7.08713e-16 0)
(3 1.15677e-15 0)
(3 3.95388e-16 0)
(3 1.09805e-16 0)
(3 4.69483e-16 0)
(3 5.87243e-16 0)
(3 3.23074e-16 0)
(3 -3.31736e-16 0)
(3 -4.9708e-16 0)
(3 -1.24883e-15 0)
(3 -8.97172e-16 0)
(3 -2.99774e-16 0)
(3 1.63118e-16 0)
(3 6.93663e-16 0)
(3 9.39471e-16 0)
(3 7.43357e-16 0)
(3 3.42566e-16 0)
(3 1.45083e-16 0)
(3 4.44224e-16 0)
(3 5.28733e-16 0)
(3 1.39649e-15 0)
(3 2.76209e-15 0)
(3 3.9319e-15 0)
(3 3.61155e-15 0)
(3 2.89174e-15 0)
(3 1.88421e-15 0)
(3 5.47717e-16 0)
(3 -2.62156e-16 0)
(3 -8.4305e-16 0)
(3 -2.04949e-15 0)
(3 -3.86489e-15 0)
(3 -4.68478e-15 0)
(3 -4.40186e-15 0)
(3 -1.20992e-15 0)
(3 -6.05743e-16 0)
(3 1.46362e-16 0)
(3 2.85145e-17 0)
(3 2.79742e-17 0)
(3 -2.89634e-16 0)
(3 -1.28043e-15 0)
(3 -2.93447e-15 0)
(3 -2.45868e-15 0)
(3 -2.10148e-15 0)
(3 -2.73579e-15 0)
(3 -2.81297e-15 0)
(3 -2.80269e-15 0)
(3 -2.53716e-15 0)
(3 -1.33511e-15 0)
(3 6.67995e-16 0)
(3 1.39482e-15 0)
(3 1.28911e-15 0)
(3 -6.7983e-17 0)
(3 -6.05143e-16 0)
(3 -1.30604e-15 0)
(3 -9.51676e-16 0)
(3 -3.59869e-16 0)
(3 -5.96618e-16 0)
(3 -4.49051e-16 0)
(3 -8.37734e-16 0)
(3 1.75473e-16 0)
(3 3.90683e-16 0)
(3 3.15315e-16 0)
(3 6.45538e-16 0)
(3 5.08339e-16 0)
(3 3.90213e-16 0)
(3 -2.2187e-16 0)
(3 -9.7534e-16 0)
(3 -1.53061e-15 0)
(3 -1.44829e-15 0)
(3 -1.21268e-15 0)
(3 -5.99488e-16 0)
(3 -8.47183e-16 0)
(3 -7.91863e-17 0)
(3 4.36459e-16 0)
(3 -5.2792e-17 0)
(3 -1.86087e-16 0)
(3 -6.92649e-17 0)
(3 2.33212e-16 0)
(3 8.52516e-16 0)
(3 1.02166e-15 0)
(3 8.51303e-16 0)
(3 8.39939e-16 0)
(3 6.04569e-16 0)
(3 -5.06011e-16 0)
(3 -3.84592e-16 0)
(3 -4.35655e-16 0)
(3 2.70153e-16 0)
(3 1.69866e-15 0)
(3 1.81095e-15 0)
(3 1.89003e-15 0)
(3 1.02644e-15 0)
(3 9.22527e-17 0)
(3 -2.99092e-16 0)
(3 -6.48101e-16 0)
(3 -1.01406e-15 0)
(3 -6.6746e-16 0)
(3 -1.42929e-15 0)
(3 -1.47791e-15 0)
(3 -9.00469e-16 0)
(3 -4.30314e-16 0)
(3 3.981e-17 0)
(3 3.563e-16 0)
(3 1.48559e-16 0)
(3 3.99558e-16 0)
(3 2.24235e-16 0)
(3 2.26209e-16 0)
(3 4.56604e-16 0)
(3 4.49349e-16 0)
(3 -1.36294e-15 0)
(3 -1.81867e-15 0)
(3 -2.0508e-15 0)
(3 -3.66878e-16 0)
(3 5.56902e-16 0)
(3 1.952e-15 0)
(3 1.64905e-15 0)
(3 1.02721e-15 0)
(3 1.93011e-15 0)
(3 2.54503e-15 0)
(3 3.33862e-15 0)
(3 3.79119e-15 0)
(3 3.72088e-15 0)
(3 3.11092e-15 0)
(3 2.50488e-15 0)
(3 2.49951e-15 0)
(3 2.12485e-15 0)
(3 2.60826e-16 0)
(3 -1.39816e-15 0)
(3 -2.90988e-15 0)
(3 -2.69005e-15 0)
(3 -2.26477e-15 0)
(3 -1.10578e-15 0)
(3 -9.73445e-16 0)
(3 -1.08643e-15 0)
(3 -1.00056e-15 0)
(3 -6.39288e-16 0)
(3 4.81037e-17 0)
(3 -1.74841e-15 0)
(3 -2.55943e-15 0)
(3 -2.27121e-15 0)
(3 -2.28298e-15 0)
(3 -1.46635e-15 0)
(3 -1.70824e-15 0)
(3 -1.90482e-15 0)
(3 -1.28719e-15 0)
(3 -2.22978e-16 0)
(3 4.19262e-16 0)
(3 -5.84825e-16 0)
(3 -1.08923e-15 0)
(3 -1.88214e-15 0)
(3 -1.67437e-15 0)
(3 -2.021e-15 0)
(3 -1.6523e-15 0)
(3 -1.12468e-15 0)
(3 5.96368e-17 0)
(3 3.18916e-16 0)
(3 -6.58056e-17 0)
(3 -1.8188e-16 0)
(3 1.18296e-16 0)
(3 2.80892e-16 0)
(3 -1.10333e-16 0)
(3 -7.10059e-16 0)
(3 -1.25282e-15 0)
(3 -1.45862e-15 0)
(3 -1.43964e-15 0)
(3 -1.29878e-15 0)
(3 -7.42656e-16 0)
(3 -5.8282e-16 0)
(3 -5.92874e-16 0)
(3 -7.26055e-16 0)
(3 -8.79532e-16 0)
(3 -1.01105e-15 0)
(3 -1.00013e-15 0)
(3 -1.0132e-15 0)
(3 -7.61632e-16 0)
(3 -5.52836e-18 0)
(3 1.14304e-16 0)
(3 -1.03996e-16 0)
(3 -6.80662e-16 0)
(3 -1.83161e-15 0)
(3 -1.48868e-15 0)
(3 -1.30018e-15 0)
(3 -1.03363e-15 0)
(3 -7.08571e-16 0)
(3 -4.33624e-16 0)
(3 -4.82578e-16 0)
(3 1.43967e-15 0)
(3 2.21932e-15 0)
(3 2.11513e-15 0)
(3 8.98823e-16 0)
(3 3.80709e-16 0)
(3 1.00173e-16 0)
(3 -5.82569e-16 0)
(3 -1.95585e-15 0)
(3 -3.74106e-15 0)
(3 -4.71059e-15 0)
(3 -4.12778e-15 0)
(3 -4.16135e-15 0)
(3 -2.4349e-15 0)
(3 -2.47969e-16 0)
(3 7.44565e-16 0)
(3 6.10166e-16 0)
(3 1.0926e-15 0)
(3 7.53549e-16 0)
(3 -1.37425e-16 0)
(3 -5.38312e-16 0)
(3 -8.75837e-16 0)
(3 -1.27952e-15 0)
(3 1.11426e-16 0)
(3 8.22588e-16 0)
(3 1.20364e-15 0)
(3 1.54293e-15 0)
(3 1.8955e-15 0)
(3 2.64355e-15 0)
(3 2.37258e-15 0)
(3 2.51078e-15 0)
(3 2.97815e-15 0)
(3 3.69237e-15 0)
(3 3.54003e-15 0)
(3 2.92956e-15 0)
(3 2.1364e-15 0)
(3 8.76746e-16 0)
(3 -5.60931e-16 0)
(3 -2.75574e-16 0)
(3 3.3217e-16 0)
(3 -1.64775e-16 0)
(3 -8.61698e-16 0)
(3 -2.15108e-15 0)
(3 -2.69449e-15 0)
(3 -2.22518e-15 0)
(3 -2.25664e-15 0)
(3 -2.04286e-15 0)
(3 -1.44396e-15 0)
(3 -1.48758e-15 0)
(3 -6.05731e-16 0)
(3 -8.50215e-17 0)
(3 1.96163e-16 0)
(3 4.4283e-16 0)
(3 4.83335e-16 0)
(3 1.16278e-16 0)
(3 -4.25738e-16 0)
(3 -6.9549e-16 0)
(3 -2.41799e-15 0)
(3 -3.06581e-15 0)
(3 -2.96781e-15 0)
(3 -2.78987e-15 0)
(3 -1.78362e-15 0)
(3 -2.37565e-15 0)
(3 -1.84558e-15 0)
(3 -4.2986e-16 0)
(3 2.32589e-16 0)
(3 5.67679e-16 0)
(3 -1.50652e-16 0)
(3 -4.68964e-16 0)
(3 -3.45271e-16 0)
(3 -5.92364e-17 0)
(3 -2.12005e-16 0)
(3 -8.11652e-16 0)
(3 -3.31455e-16 0)
(3 1.64889e-16 0)
(3 4.45683e-16 0)
(3 4.83868e-16 0)
(3 1.37773e-16 0)
(3 -8.79618e-16 0)
(3 -1.34853e-15 0)
(3 -1.43584e-15 0)
(3 -1.33383e-15 0)
(3 -6.85652e-16 0)
(3 -4.33352e-16 0)
(3 -4.49966e-16 0)
(3 -6.98593e-16 0)
(3 -9.23625e-16 0)
(3 -1.03398e-15 0)
(3 -1.32112e-15 0)
(3 -1.92081e-15 0)
(3 -2.09549e-15 0)
(3 -1.83734e-15 0)
(3 -1.9855e-15 0)
(3 -2.43302e-15 0)
(3 -3.32279e-15 0)
(3 -3.43414e-15 0)
(3 -1.9498e-15 0)
(3 -3.87577e-16 0)
(3 2.22166e-16 0)
(3 6.02009e-16 0)
(3 4.58596e-16 0)
(3 5.40312e-16 0)
(3 1.16092e-15 0)
(3 -1.56037e-16 0)
(3 -1.48547e-15 0)
(3 -2.23625e-15 0)
(3 -2.83253e-15 0)
(3 -2.79897e-15 0)
(3 -2.48411e-15 0)
(3 -2.61435e-15 0)
(3 -2.64036e-15 0)
(3 -1.92878e-15 0)
(3 2.42498e-16 0)
(3 1.47636e-15 0)
(3 1.43789e-15 0)
(3 1.35721e-15 0)
(3 1.99417e-15 0)
(3 1.51426e-15 0)
(3 9.81761e-16 0)
(3 1.52721e-15 0)
(3 1.67023e-15 0)
(3 2.63609e-17 0)
(3 3.75238e-16 0)
(3 1.52743e-15 0)
(3 1.50734e-15 0)
(3 1.53872e-15 0)
(3 8.98688e-16 0)
(3 1.31798e-15 0)
(3 2.08266e-15 0)
(3 1.30941e-15 0)
(3 4.78896e-16 0)
(3 -6.79111e-16 0)
(3 -1.72071e-15 0)
(3 -2.92694e-15 0)
(3 -2.37357e-15 0)
(3 -6.1886e-16 0)
(3 -1.01396e-16 0)
(3 1.0344e-16 0)
(3 6.08979e-17 0)
(3 -4.81303e-16 0)
(3 -1.58894e-18 0)
(3 2.04727e-16 0)
(3 -3.18812e-16 0)
(3 -6.58202e-16 0)
(3 -1.29088e-15 0)
(3 -1.14397e-15 0)
(3 -1.0103e-15 0)
(3 -7.61173e-16 0)
(3 -4.68627e-16 0)
(3 -2.3743e-16 0)
(3 -3.30034e-16 0)
(3 -2.01733e-15 0)
(3 -3.10202e-15 0)
(3 -5.10202e-15 0)
(3 -5.59757e-15 0)
(3 -4.99513e-15 0)
(3 -4.73519e-15 0)
(3 -3.30889e-15 0)
(3 -2.17823e-15 0)
(3 -1.68293e-15 0)
(3 -4.84877e-16 0)
(3 2.04104e-16 0)
(3 -3.32775e-16 0)
(3 -1.0206e-16 0)
(3 1.71652e-16 0)
(3 2.67518e-16 0)
(3 9.71587e-17 0)
(3 -7.05126e-16 0)
(3 -9.86782e-16 0)
(3 -9.42217e-16 0)
(3 -9.92966e-16 0)
(3 -8.30153e-16 0)
(3 -3.49816e-17 0)
(3 6.22581e-17 0)
(3 -2.39194e-16 0)
(3 -5.1901e-16 0)
(3 -1.06914e-15 0)
(3 -1.4902e-15 0)
(3 -1.43381e-15 0)
(3 -8.09413e-16 0)
(3 -9.02487e-16 0)
(3 -1.27736e-15 0)
(3 -1.84223e-15 0)
(3 -2.18857e-15 0)
(3 -3.20468e-15 0)
(3 -3.7988e-15 0)
(3 -3.46003e-15 0)
(3 -3.013e-15 0)
(3 -3.32098e-15 0)
(3 -3.05441e-15 0)
(3 -3.1773e-15 0)
(3 -3.04236e-15 0)
(3 -1.38299e-15 0)
(3 -7.26205e-16 0)
(3 -7.59596e-16 0)
(3 -5.22181e-16 0)
(3 4.72983e-17 0)
(3 1.28944e-16 0)
(3 -7.89072e-17 0)
(3 -3.52609e-16 0)
(3 -8.52463e-17 0)
(3 1.19284e-16 0)
(3 -2.41247e-16 0)
(3 -2.0267e-15 0)
(3 -3.16953e-15 0)
(3 -3.18184e-15 0)
(3 -2.92842e-15 0)
(3 -2.55394e-15 0)
(3 -1.31474e-15 0)
(3 5.83552e-16 0)
(3 2.54586e-15 0)
(3 2.5518e-15 0)
(3 2.56353e-15 0)
(3 2.56883e-15 0)
(3 2.70844e-15 0)