/*--------------------------------*- C++ -*----------------------------------*\
  =========                 |
  \\      /  F ield         | OpenFOAM: The Open Source CFD Toolbox
   \\    /   O peration     | Website:  https://openfoam.org
    \\  /    A nd           | Version:  7
     \\/     M anipulation  |
\*---------------------------------------------------------------------------*/
FoamFile
{
    version     2.0;
    format      ascii;
    class       volVectorField;
    location    "0.4";
    object      U;
}
// * * * * * * * * * * * * * * * * * * * * * * * * * * * * * * * * * * * * * //

dimensions      [0 1 -1 0 0 0 0];

internalField   nonuniform List<vector> 
73728
(
(3 9.25992e-17 0)
(3 4.41778e-16 0)
(3 7.17166e-16 0)
(3 1.02517e-15 0)
(3 8.28391e-16 0)
(3 4.56377e-16 0)
(3 3.94959e-16 0)
(3 3.93878e-16 0)
(3 -7.66633e-18 0)
(3 -2.38547e-16 0)
(3 -6.4357e-17 0)
(3 2.61658e-16 0)
(3 3.41544e-16 0)
(3 4.00402e-16 0)
(3 7.38828e-17 0)
(3 1.77277e-16 0)
(3 2.36084e-16 0)
(3 -1.45888e-17 0)
(3 6.07864e-16 0)
(3 1.52419e-15 0)
(3 1.44684e-15 0)
(3 9.71391e-16 0)
(3 5.53312e-17 0)
(3 -6.69245e-16 0)
(3 -1.20629e-16 0)
(3 -2.65565e-16 0)
(3 -1.27264e-15 0)
(3 -1.81978e-15 0)
(3 -1.46194e-15 0)
(3 -1.14965e-16 0)
(3 1.61461e-15 0)
(3 1.59935e-15 0)
(3 1.20729e-15 0)
(3 1.09381e-15 0)
(3 6.3215e-16 0)
(3 4.4966e-16 0)
(3 7.97123e-16 0)
(3 9.37169e-16 0)
(3 9.73922e-16 0)
(3 9.64032e-16 0)
(3 1.23858e-15 0)
(3 1.7383e-15 0)
(3 2.1871e-15 0)
(3 1.27488e-15 0)
(3 7.52177e-16 0)
(3 8.09681e-16 0)
(3 7.82324e-16 0)
(3 8.51794e-16 0)
(3 6.11558e-16 0)
(3 8.25017e-16 0)
(3 1.79169e-15 0)
(3 2.19465e-15 0)
(3 1.769e-15 0)
(3 -1.12929e-15 0)
(3 -1.31843e-15 0)
(3 -1.01353e-15 0)
(3 -1.28734e-15 0)
(3 -1.32516e-15 0)
(3 -2.08392e-16 0)
(3 2.90536e-16 0)
(3 2.59176e-16 0)
(3 -1.48707e-16 0)
(3 -3.99297e-16 0)
(3 4.59701e-16 0)
(3 8.23125e-16 0)
(3 1.12213e-15 0)
(3 1.37401e-16 0)
(3 -1.87074e-16 0)
(3 -3.08925e-16 0)
(3 -4.66774e-16 0)
(3 -9.48391e-16 0)
(3 -1.61289e-15 0)
(3 -1.60221e-16 0)
(3 1.62559e-15 0)
(3 1.97819e-15 0)
(3 2.02702e-15 0)
(3 1.59389e-15 0)
(3 1.2408e-15 0)
(3 5.96457e-16 0)
(3 1.00835e-15 0)
(3 4.34413e-16 0)
(3 1.82161e-16 0)
(3 -5.26306e-16 0)
(3 -1.05572e-15 0)
(3 -1.08006e-15 0)
(3 -5.72138e-17 0)
(3 8.79583e-16 0)
(3 1.40566e-15 0)
(3 1.18358e-15 0)
(3 -1.2133e-15 0)
(3 -1.48847e-15 0)
(3 -8.89863e-16 0)
(3 -8.11612e-16 0)
(3 -1.0276e-15 0)
(3 -1.22167e-15 0)
(3 -1.02019e-15 0)
(3 -2.09502e-17 0)
(3 2.04257e-17 0)
(3 6.57368e-16 0)
(3 6.07269e-16 0)
(3 -7.68624e-17 0)
(3 2.11223e-17 0)
(3 7.30505e-16 0)
(3 1.17787e-15 0)
(3 3.30216e-16 0)
(3 -6.74586e-17 0)
(3 7.5952e-16 0)
(3 1.46849e-15 0)
(3 1.35699e-15 0)
(3 9.20136e-16 0)
(3 6.37202e-16 0)
(3 1.90941e-16 0)
(3 -3.79539e-16 0)
(3 2.10686e-16 0)
(3 1.4498e-15 0)
(3 3.39054e-15 0)
(3 3.7978e-15 0)
(3 2.79284e-15 0)
(3 2.43203e-16 0)
(3 -1.18882e-15 0)
(3 -8.34325e-16 0)
(3 -8.92176e-16 0)
(3 -1.19785e-15 0)
(3 -1.62867e-15 0)
(3 -1.28645e-15 0)
(3 5.70828e-17 0)
(3 1.57497e-15 0)
(3 2.13717e-15 0)
(3 1.80206e-15 0)
(3 1.0989e-15 0)
(3 4.62152e-16 0)
(3 2.35121e-16 0)
(3 1.25757e-15 0)
(3 2.00474e-15 0)
(3 2.51087e-15 0)
(3 2.79271e-15 0)
(3 3.2861e-15 0)
(3 3.66337e-15 0)
(3 2.48343e-15 0)
(3 8.48918e-16 0)
(3 1.01071e-15 0)
(3 7.88237e-16 0)
(3 3.4918e-16 0)
(3 3.18316e-16 0)
(3 2.01295e-16 0)
(3 4.62998e-16 0)
(3 1.3065e-15 0)
(3 1.84117e-15 0)
(3 1.60298e-15 0)
(3 3.04362e-16 0)
(3 -5.18675e-16 0)
(3 -1.79425e-15 0)
(3 -3.19297e-15 0)
(3 -2.93047e-15 0)
(3 -2.00032e-15 0)
(3 8.07836e-17 0)
(3 1.21831e-15 0)
(3 8.4241e-16 0)
(3 5.14038e-16 0)
(3 7.44217e-16 0)
(3 4.87575e-16 0)
(3 1.48463e-16 0)
(3 -2.64573e-16 0)
(3 -8.95568e-16 0)
(3 -1.19198e-15 0)
(3 -1.92358e-15 0)
(3 -2.63606e-15 0)
(3 -2.15411e-15 0)
(3 -2.56774e-16 0)
(3 1.89135e-15 0)
(3 2.25613e-15 0)
(3 2.4526e-15 0)
(3 2.74392e-15 0)
(3 1.31182e-15 0)
(3 6.43225e-16 0)
(3 9.20308e-16 0)
(3 3.89794e-16 0)
(3 -5.05044e-16 0)
(3 -6.22471e-16 0)
(3 -7.63069e-16 0)
(3 -5.97648e-16 0)
(3 -3.57338e-16 0)
(3 1.05096e-15 0)
(3 1.69204e-15 0)
(3 1.13048e-15 0)
(3 -1.23092e-15 0)
(3 -1.49298e-15 0)
(3 -7.66956e-16 0)
(3 -1.10538e-15 0)
(3 -1.17796e-15 0)
(3 -1.19855e-15 0)
(3 -1.28452e-15 0)
(3 -1.26595e-16 0)
(3 -4.52413e-16 0)
(3 -4.84881e-16 0)
(3 -4.26461e-16 0)
(3 -6.26952e-16 0)
(3 -6.46038e-16 0)
(3 -3.70085e-17 0)
(3 8.46613e-16 0)
(3 1.22408e-15 0)
(3 1.27833e-15 0)
(3 1.63843e-15 0)
(3 1.59704e-15 0)
(3 2.28348e-15 0)
(3 2.07668e-15 0)
(3 1.76608e-15 0)
(3 1.7179e-16 0)
(3 -7.74695e-16 0)
(3 1.27745e-16 0)
(3 1.06712e-15 0)
(3 1.48772e-15 0)
(3 1.33331e-15 0)
(3 1.03109e-15 0)
(3 7.25099e-16 0)
(3 -3.17095e-16 0)
(3 -7.92426e-16 0)
(3 -4.80604e-16 0)
(3 -2.88432e-16 0)
(3 -2.40241e-16 0)
(3 -7.56873e-16 0)
(3 -7.58343e-16 0)
(3 -9.22608e-16 0)
(3 -6.95777e-16 0)
(3 -1.00779e-15 0)
(3 -1.6333e-15 0)
(3 -1.08531e-15 0)
(3 -6.26216e-16 0)
(3 -3.2756e-16 0)
(3 7.16859e-17 0)
(3 4.09809e-16 0)
(3 6.14579e-16 0)
(3 8.14845e-16 0)
(3 8.12124e-16 0)
(3 6.2018e-16 0)
(3 4.68198e-16 0)
(3 8.93557e-16 0)
(3 1.27448e-15 0)
(3 1.44921e-15 0)
(3 1.42322e-15 0)
(3 1.24177e-15 0)
(3 7.83287e-16 0)
(3 9.11185e-16 0)
(3 1.09791e-15 0)
(3 3.76312e-16 0)
(3 -4.28169e-16 0)
(3 -4.00496e-16 0)
(3 -1.29597e-15 0)
(3 -1.57908e-15 0)
(3 -1.283e-15 0)
(3 -1.32237e-15 0)
(3 -7.3815e-16 0)
(3 -6.24443e-17 0)
(3 1.24786e-15 0)
(3 2.43641e-15 0)
(3 2.37421e-15 0)
(3 2.27717e-15 0)
(3 1.73339e-15 0)
(3 1.05539e-15 0)
(3 5.20155e-16 0)
(3 -9.8512e-16 0)
(3 -1.93266e-15 0)
(3 -2.61054e-15 0)
(3 -1.30191e-15 0)
(3 -4.97756e-16 0)
(3 5.06825e-17 0)
(3 3.40346e-16 0)
(3 7.61088e-16 0)
(3 1.69703e-15 0)
(3 2.31384e-15 0)
(3 2.57107e-15 0)
(3 6.23922e-16 0)
(3 2.44459e-16 0)
(3 -9.37956e-16 0)
(3 -1.29757e-15 0)
(3 -1.31718e-15 0)
(3 -1.49789e-15 0)
(3 -2.10854e-15 0)
(3 -1.45875e-15 0)
(3 3.46784e-16 0)
(3 1.42429e-15 0)
(3 8.98249e-16 0)
(3 -1.4797e-15 0)
(3 -2.22535e-15 0)
(3 -2.86137e-15 0)
(3 -2.90038e-15 0)
(3 -2.20002e-15 0)
(3 -1.67602e-15 0)
(3 -1.22434e-16 0)
(3 -5.34971e-17 0)
(3 -5.6573e-16 0)
(3 -1.62087e-16 0)
(3 -7.3439e-18 0)
(3 2.98564e-16 0)
(3 4.44784e-16 0)
(3 1.02821e-15 0)
(3 1.85146e-15 0)
(3 2.21784e-15 0)
(3 1.84243e-15 0)
(3 1.90118e-15 0)
(3 2.46479e-15 0)
(3 2.64682e-15 0)
(3 2.53014e-15 0)
(3 1.87426e-15 0)
(3 4.47869e-16 0)
(3 3.48799e-16 0)
(3 1.59156e-16 0)
(3 -5.03356e-16 0)
(3 -7.4156e-16 0)
(3 -3.96697e-16 0)
(3 1.01471e-17 0)
(3 5.51899e-17 0)
(3 -9.23442e-17 0)
(3 -3.47266e-16 0)
(3 -8.66117e-16 0)
(3 -1.81826e-16 0)
(3 -8.08495e-16 0)
(3 -2.30546e-15 0)
(3 -4.15409e-15 0)
(3 -4.77333e-15 0)
(3 -3.06602e-15 0)
(3 -1.4979e-15 0)
(3 -8.39297e-16 0)
(3 -1.16201e-15 0)
(3 -2.74546e-15 0)
(3 -3.30924e-15 0)
(3 -3.6908e-15 0)
(3 -3.19369e-15 0)
(3 -2.75456e-15 0)
(3 -2.09409e-15 0)
(3 -1.39945e-16 0)
(3 2.54299e-16 0)
(3 4.5753e-16 0)
(3 8.18045e-16 0)
(3 1.63808e-15 0)
(3 1.78921e-15 0)
(3 1.89879e-15 0)
(3 2.08845e-15 0)
(3 1.65471e-15 0)
(3 1.41051e-15 0)
(3 -8.27674e-17 0)
(3 -1.93711e-15 0)
(3 -1.83397e-15 0)
(3 -1.71735e-15 0)
(3 -1.94928e-15 0)
(3 -1.79437e-15 0)
(3 -8.66892e-16 0)
(3 -5.06443e-17 0)
(3 -2.3857e-16 0)
(3 -5.23649e-17 0)
(3 2.69653e-15 0)
(3 4.23177e-15 0)
(3 4.34462e-15 0)
(3 2.44321e-15 0)
(3 1.52983e-15 0)
(3 2.83846e-16 0)
(3 -5.54676e-16 0)
(3 3.91325e-16 0)
(3 1.27717e-15 0)
(3 2.61951e-16 0)
(3 -4.57678e-16 0)
(3 -1.54576e-15 0)
(3 -1.99785e-15 0)
(3 -1.1755e-15 0)
(3 3.28509e-16 0)
(3 1.56633e-15 0)
(3 1.38116e-15 0)
(3 1.02553e-15 0)
(3 6.21461e-16 0)
(3 2.99596e-16 0)
(3 -8.21475e-16 0)
(3 -2.65853e-15 0)
(3 -3.23761e-15 0)
(3 -3.34982e-15 0)
(3 -3.01103e-15 0)
(3 -1.40714e-15 0)
(3 1.12813e-15 0)
(3 1.30122e-15 0)
(3 -1.07816e-15 0)
(3 -2.79508e-15 0)
(3 -3.6427e-15 0)
(3 -3.76869e-15 0)
(3 -2.59222e-15 0)
(3 -1.2244e-15 0)
(3 -3.95861e-17 0)
(3 2.73684e-16 0)
(3 5.95748e-16 0)
(3 6.9727e-16 0)
(3 1.06436e-15 0)
(3 1.30466e-15 0)
(3 7.60245e-16 0)
(3 3.30455e-16 0)
(3 5.72711e-16 0)
(3 1.6228e-15 0)
(3 1.55817e-15 0)
(3 1.57691e-15 0)
(3 7.95086e-16 0)
(3 6.22719e-16 0)
(3 1.95086e-15 0)
(3 3.09567e-15 0)
(3 2.68431e-15 0)
(3 1.07229e-15 0)
(3 3.45071e-16 0)
(3 -1.26524e-16 0)
(3 -4.8941e-16 0)
(3 -7.48737e-17 0)
(3 -1.66181e-16 0)
(3 -1.93574e-16 0)
(3 -2.73647e-16 0)
(3 -1.40505e-15 0)
(3 -1.99887e-15 0)
(3 -7.24088e-16 0)
(3 8.26696e-17 0)
(3 -1.04532e-15 0)
(3 -2.15838e-15 0)
(3 -1.14812e-15 0)
(3 -3.25553e-16 0)
(3 4.72572e-16 0)
(3 7.1664e-16 0)
(3 6.98103e-16 0)
(3 1.13839e-15 0)
(3 2.85616e-16 0)
(3 -1.31314e-16 0)
(3 -8.63265e-16 0)
(3 -1.04571e-15 0)
(3 -1.52212e-15 0)
(3 -1.45708e-15 0)
(3 -2.10062e-16 0)
(3 -1.33482e-16 0)
(3 -2.58066e-16 0)
(3 5.55993e-16 0)
(3 8.05276e-16 0)
(3 1.36534e-15 0)
(3 1.82971e-15 0)
(3 1.93207e-15 0)
(3 1.41883e-15 0)
(3 -8.98812e-16 0)
(3 -2.33735e-15 0)
(3 -3.08813e-15 0)
(3 -3.8885e-15 0)
(3 -3.60287e-15 0)
(3 -2.56019e-15 0)
(3 -8.80974e-16 0)
(3 -6.78293e-16 0)
(3 -7.61169e-16 0)
(3 -1.86723e-15 0)
(3 -1.26233e-15 0)
(3 -7.51318e-16 0)
(3 -4.63686e-16 0)
(3 -6.44317e-16 0)
(3 -1.34654e-15 0)
(3 -3.79182e-16 0)
(3 -2.20793e-16 0)
(3 5.65415e-16 0)
(3 1.3755e-15 0)
(3 7.34774e-16 0)
(3 4.52196e-16 0)
(3 -9.81159e-16 0)
(3 -1.0644e-15 0)
(3 -3.81849e-16 0)
(3 -2.0829e-16 0)
(3 -3.52249e-16 0)
(3 2.66572e-17 0)
(3 -2.02112e-16 0)
(3 -1.34334e-15 0)
(3 -1.10291e-15 0)
(3 -8.05098e-16 0)
(3 -5.71738e-16 0)
(3 -6.48435e-16 0)
(3 -4.34421e-16 0)
(3 -6.29735e-16 0)
(3 -1.05846e-15 0)
(3 -1.01305e-15 0)
(3 -8.70416e-16 0)
(3 -1.22723e-15 0)
(3 -1.42363e-15 0)
(3 -1.62243e-15 0)
(3 -1.67073e-15 0)
(3 -1.71144e-15 0)
(3 -1.74374e-15 0)
(3 -2.91939e-17 0)
(3 1.92218e-16 0)
(3 6.4177e-16 0)
(3 4.83113e-16 0)
(3 2.96364e-16 0)
(3 4.67881e-16 0)
(3 4.95293e-16 0)
(3 6.8018e-16 0)
(3 6.7847e-16 0)
(3 8.19861e-16 0)
(3 9.87126e-16 0)
(3 1.06136e-15 0)
(3 7.74095e-16 0)
(3 3.90292e-16 0)
(3 5.67613e-16 0)
(3 9.76447e-16 0)
(3 1.22969e-15 0)
(3 1.18761e-15 0)
(3 2.11838e-16 0)
(3 -2.07441e-16 0)
(3 -8.08872e-16 0)
(3 -5.12914e-16 0)
(3 7.5887e-16 0)
(3 4.25195e-16 0)
(3 -4.05291e-16 0)
(3 -1.17779e-15 0)
(3 -1.48172e-15 0)
(3 -4.37065e-16 0)
(3 4.63821e-16 0)
(3 2.05646e-15 0)
(3 2.39629e-15 0)
(3 1.87657e-15 0)
(3 4.84204e-16 0)
(3 -8.18227e-16 0)
(3 -7.24249e-16 0)
(3 -4.65266e-16 0)
(3 4.75341e-16 0)
(3 3.55185e-16 0)
(3 1.08183e-16 0)
(3 -2.81552e-17 0)
(3 -6.75742e-16 0)
(3 -1.30709e-15 0)
(3 -1.13426e-15 0)
(3 -1.10821e-15 0)
(3 -1.1352e-15 0)
(3 -9.40274e-16 0)
(3 -4.70014e-16 0)
(3 1.23546e-15 0)
(3 1.21946e-15 0)
(3 3.58099e-16 0)
(3 -6.5802e-17 0)
(3 -1.64281e-15 0)
(3 -2.5342e-15 0)
(3 -2.91264e-15 0)
(3 -4.03717e-15 0)
(3 -4.98579e-15 0)
(3 -3.66589e-15 0)
(3 -9.95674e-16 0)
(3 3.17274e-16 0)
(3 5.26277e-16 0)
(3 9.2353e-16 0)
(3 1.09347e-15 0)
(3 1.12602e-15 0)
(3 1.31292e-15 0)
(3 1.82234e-15 0)
(3 2.19382e-15 0)
(3 1.41893e-15 0)
(3 1.57282e-17 0)
(3 -5.65124e-16 0)
(3 -3.22832e-16 0)
(3 -7.65333e-17 0)
(3 3.80114e-16 0)
(3 1.36595e-15 0)
(3 1.91289e-15 0)
(3 7.05724e-16 0)
(3 -1.18808e-16 0)
(3 -1.02194e-15 0)
(3 -1.48225e-15 0)
(3 -9.12958e-16 0)
(3 -5.43577e-16 0)
(3 -1.44281e-16 0)
(3 -6.80747e-16 0)
(3 3.98332e-16 0)
(3 7.73894e-16 0)
(3 1.0829e-15 0)
(3 1.8138e-15 0)
(3 2.36214e-15 0)
(3 8.7623e-16 0)
(3 -5.21093e-16 0)
(3 -1.27096e-15 0)
(3 -9.60827e-16 0)
(3 -5.96416e-16 0)
(3 1.4427e-16 0)
(3 -2.62119e-17 0)
(3 -9.22708e-16 0)
(3 -1.27022e-15 0)
(3 9.66308e-17 0)
(3 5.88931e-17 0)
(3 -3.86984e-16 0)
(3 -1.25492e-15 0)
(3 -1.90386e-15 0)
(3 -1.54647e-15 0)
(3 -7.47267e-16 0)
(3 -4.25605e-16 0)
(3 -2.21163e-16 0)
(3 1.15875e-16 0)
(3 7.97792e-16 0)
(3 1.15234e-15 0)
(3 7.82981e-16 0)
(3 9.51344e-17 0)
(3 2.28899e-16 0)
(3 1.618e-16 0)
(3 6.76542e-16 0)
(3 6.40623e-16 0)
(3 3.18259e-16 0)
(3 -9.41501e-16 0)
(3 -9.74378e-16 0)
(3 5.40689e-16 0)
(3 1.58744e-15 0)
(3 1.56808e-15 0)
(3 8.11188e-16 0)
(3 -1.18682e-16 0)
(3 2.95071e-16 0)
(3 1.51082e-15 0)
(3 1.80043e-15 0)
(3 1.03481e-15 0)
(3 5.52214e-16 0)
(3 7.20466e-17 0)
(3 1.23367e-17 0)
(3 -1.78972e-15 0)
(3 -2.97466e-15 0)
(3 -3.49738e-15 0)
(3 -3.52453e-15 0)
(3 -2.72639e-15 0)
(3 -1.93252e-15 0)
(3 -4.34061e-16 0)
(3 -1.27426e-16 0)
(3 -6.82914e-16 0)
(3 -2.74974e-16 0)
(3 -5.15295e-17 0)
(3 -2.86832e-16 0)
(3 -7.98273e-16 0)
(3 -4.56694e-16 0)
(3 1.72602e-16 0)
(3 7.24555e-16 0)
(3 -2.50471e-16 0)
(3 -1.59252e-15 0)
(3 -2.62196e-15 0)
(3 -3.12459e-15 0)
(3 -3.14981e-15 0)
(3 -3.00233e-15 0)
(3 -3.00672e-15 0)
(3 -2.80499e-15 0)
(3 -3.85137e-17 0)
(3 -3.11447e-16 0)
(3 1.68379e-15 0)
(3 3.47329e-15 0)
(3 3.92637e-15 0)
(3 3.76029e-15 0)
(3 4.04572e-15 0)
(3 3.53303e-15 0)
(3 2.9517e-15 0)
(3 2.60086e-15 0)
(3 1.87554e-15 0)
(3 6.17559e-16 0)
(3 -1.98785e-16 0)
(3 8.64918e-16 0)
(3 2.19976e-15 0)
(3 1.66588e-15 0)
(3 -1.65115e-16 0)
(3 -1.57294e-15 0)
(3 -2.22428e-15 0)
(3 -2.19235e-15 0)
(3 -1.59496e-15 0)
(3 -1.26899e-15 0)
(3 -7.18659e-16 0)
(3 1.04008e-15 0)
(3 1.24096e-15 0)
(3 8.08974e-16 0)
(3 5.09621e-16 0)
(3 9.16539e-16 0)
(3 1.07665e-15 0)
(3 1.32362e-15 0)
(3 1.31525e-15 0)
(3 3.40342e-16 0)
(3 1.81473e-16 0)
(3 5.95695e-16 0)
(3 8.47624e-16 0)
(3 6.68842e-17 0)
(3 -6.94773e-16 0)
(3 -7.6169e-16 0)
(3 -7.61943e-16 0)
(3 1.58883e-16 0)
(3 -4.14111e-17 0)
(3 -8.04325e-16 0)
(3 -8.5498e-16 0)
(3 -2.83871e-16 0)
(3 -4.41959e-16 0)
(3 -3.36739e-16 0)
(3 -1.02965e-15 0)
(3 -1.22051e-15 0)
(3 -1.1083e-15 0)
(3 -1.24478e-15 0)
(3 -1.50985e-15 0)
(3 -1.57654e-15 0)
(3 -2.2322e-15 0)
(3 -9.15527e-16 0)
(3 5.81717e-17 0)
(3 1.02656e-16 0)
(3 2.39272e-16 0)
(3 3.21105e-16 0)
(3 -7.89943e-17 0)
(3 8.79273e-16 0)
(3 1.68663e-15 0)
(3 1.40285e-15 0)
(3 8.64499e-16 0)
(3 5.22578e-16 0)
(3 6.38742e-16 0)
(3 8.6617e-16 0)
(3 6.78292e-16 0)
(3 6.70083e-16 0)
(3 5.44242e-16 0)
(3 2.56825e-16 0)
(3 -3.73373e-16 0)
(3 -3.80681e-16 0)
(3 -6.70072e-16 0)
(3 -1.41404e-15 0)
(3 -2.19722e-15 0)
(3 -1.96084e-15 0)
(3 -1.40684e-15 0)
(3 -3.92744e-16 0)
(3 7.34238e-16 0)
(3 6.67158e-16 0)
(3 6.15977e-16 0)
(3 4.07926e-16 0)
(3 4.33879e-17 0)
(3 -3.19339e-17 0)
(3 3.04409e-16 0)
(3 3.8181e-16 0)
(3 -7.5019e-16 0)
(3 -6.06039e-16 0)
(3 -3.58352e-16 0)
(3 -1.32974e-15 0)
(3 -5.20456e-16 0)
(3 -7.98127e-16 0)
(3 -1.44258e-15 0)
(3 -1.1166e-15 0)
(3 -6.41498e-16 0)
(3 -2.05525e-15 0)
(3 -3.27714e-15 0)
(3 -2.69818e-15 0)
(3 -1.67506e-15 0)
(3 -1.94598e-16 0)
(3 1.04061e-15 0)
(3 1.68087e-15 0)
(3 2.5435e-15 0)
(3 1.58993e-15 0)
(3 1.34491e-15 0)
(3 1.71252e-15 0)
(3 3.01508e-15 0)
(3 3.19075e-15 0)
(3 2.88206e-15 0)
(3 2.28842e-15 0)
(3 1.98935e-15 0)
(3 3.85981e-16 0)
(3 -1.62083e-15 0)
(3 -1.7115e-15 0)
(3 -1.72211e-15 0)
(3 -1.89318e-15 0)
(3 -1.14791e-15 0)
(3 -1.22047e-15 0)
(3 -3.72552e-17 0)
(3 1.60831e-15 0)
(3 1.84652e-15 0)
(3 1.72283e-15 0)
(3 1.20508e-15 0)
(3 8.19111e-16 0)
(3 -1.86983e-16 0)
(3 -1.41229e-16 0)
(3 2.43322e-16 0)
(3 4.30946e-16 0)
(3 5.05397e-16 0)
(3 7.27546e-16 0)
(3 -6.03381e-16 0)
(3 -2.07647e-15 0)
(3 -2.04121e-15 0)
(3 -2.05688e-15 0)
(3 -1.59175e-15 0)
(3 -1.21758e-16 0)
(3 1.79811e-19 0)
(3 1.82627e-16 0)
(3 4.05657e-16 0)
(3 5.35049e-16 0)
(3 3.6181e-16 0)
(3 7.34889e-17 0)
(3 -2.86559e-16 0)
(3 -5.33659e-16 0)
(3 -8.72595e-16 0)
(3 -1.15689e-15 0)
(3 -1.90025e-15 0)
(3 -2.0163e-15 0)
(3 -2.21107e-15 0)
(3 -2.66951e-15 0)
(3 -2.37072e-15 0)
(3 -1.15433e-15 0)
(3 -3.79469e-16 0)
(3 9.61417e-16 0)
(3 1.56745e-15 0)
(3 8.23811e-16 0)
(3 -1.35922e-15 0)
(3 -1.51165e-15 0)
(3 -1.69388e-15 0)
(3 -1.67379e-15 0)
(3 1.56705e-17 0)
(3 -3.1198e-17 0)
(3 6.32548e-16 0)
(3 1.21458e-15 0)
(3 2.20628e-15 0)
(3 2.74176e-15 0)
(3 3.20203e-15 0)
(3 4.98947e-16 0)
(3 9.62265e-17 0)
(3 -5.25012e-16 0)
(3 -8.2689e-16 0)
(3 -9.35791e-16 0)
(3 -9.49337e-16 0)
(3 -7.25516e-16 0)
(3 -1.30564e-15 0)
(3 -1.22713e-15 0)
(3 -9.59612e-16 0)
(3 -5.56053e-16 0)
(3 3.54738e-16 0)
(3 8.59559e-16 0)
(3 1.31711e-15 0)
(3 8.85759e-16 0)
(3 2.41704e-16 0)
(3 3.52744e-17 0)
(3 -5.07835e-16 0)
(3 -2.63613e-16 0)
(3 -4.77557e-16 0)
(3 4.16758e-16 0)
(3 1.75963e-15 0)
(3 2.30318e-15 0)
(3 8.37503e-16 0)
(3 -3.261e-16 0)
(3 -1.59792e-15 0)
(3 -1.71004e-15 0)
(3 -1.54852e-15 0)
(3 -1.22438e-15 0)
(3 -1.02112e-15 0)
(3 -7.01316e-16 0)
(3 1.93166e-18 0)
(3 1.05013e-16 0)
(3 1.7034e-16 0)
(3 7.62238e-16 0)
(3 1.90467e-15 0)
(3 2.57453e-15 0)
(3 3.14625e-15 0)
(3 3.04998e-15 0)
(3 1.1262e-15 0)
(3 -1.9081e-17 0)
(3 -2.7731e-16 0)
(3 6.23221e-17 0)
(3 -2.35182e-16 0)
(3 -1.36424e-15 0)
(3 -1.3139e-15 0)
(3 -9.66728e-16 0)
(3 -1.16567e-16 0)
(3 8.3017e-16 0)
(3 6.79449e-16 0)
(3 2.93164e-16 0)
(3 1.89624e-16 0)
(3 -2.61557e-16 0)
(3 -8.97388e-16 0)
(3 -7.17711e-16 0)
(3 -5.83392e-16 0)
(3 -3.60283e-16 0)
(3 -5.62813e-16 0)
(3 -7.82497e-16 0)
(3 -8.30573e-16 0)
(3 -9.85114e-16 0)
(3 -1.59453e-15 0)
(3 -1.61301e-15 0)
(3 -4.21173e-16 0)
(3 -1.51395e-16 0)
(3 -3.70406e-16 0)
(3 2.91664e-16 0)
(3 4.69677e-16 0)
(3 -1.81267e-16 0)
(3 -2.0464e-16 0)
(3 -4.13775e-16 0)
(3 -5.98311e-16 0)
(3 -5.59756e-16 0)
(3 -7.51647e-16 0)
(3 -1.09824e-15 0)
(3 -1.18072e-15 0)
(3 -1.66242e-15 0)
(3 -1.75936e-15 0)
(3 -1.86016e-15 0)
(3 -2.2842e-15 0)
(3 -2.28347e-15 0)
(3 -2.30298e-15 0)
(3 -1.81909e-15 0)
(3 -5.23242e-17 0)
(3 4.75167e-16 0)
(3 -5.03357e-16 0)
(3 -1.24242e-15 0)
(3 -1.08493e-15 0)
(3 -4.74174e-16 0)
(3 5.25974e-16 0)
(3 1.39176e-15 0)
(3 2.69571e-15 0)
(3 3.32097e-15 0)
(3 2.72942e-15 0)
(3 2.30717e-15 0)
(3 2.42126e-15 0)
(3 1.60218e-15 0)
(3 9.81853e-16 0)
(3 1.43424e-16 0)
(3 -5.9821e-16 0)
(3 -1.04648e-15 0)
(3 -1.48491e-15 0)
(3 -1.8713e-15 0)
(3 -1.93399e-15 0)
(3 -1.33075e-15 0)
(3 -1.87595e-15 0)
(3 -1.53701e-15 0)
(3 5.37185e-16 0)
(3 1.51952e-15 0)
(3 1.40406e-15 0)
(3 1.70123e-15 0)
(3 6.9404e-16 0)
(3 -2.11434e-15 0)
(3 -2.18567e-15 0)
(3 1.15458e-15 0)
(3 1.09035e-15 0)
(3 1.8649e-15 0)
(3 1.78748e-15 0)
(3 5.93176e-16 0)
(3 -3.89102e-16 0)
(3 -1.17399e-15 0)
(3 -9.1105e-16 0)
(3 -1.40356e-15 0)
(3 -1.43099e-15 0)
(3 -1.22956e-15 0)
(3 -9.72404e-16 0)
(3 -1.64459e-15 0)
(3 -1.80074e-15 0)
(3 3.14879e-16 0)
(3 4.76708e-16 0)
(3 3.87654e-16 0)
(3 7.54379e-16 0)
(3 1.83262e-15 0)
(3 2.67891e-15 0)
(3 2.65572e-15 0)
(3 6.95416e-16 0)
(3 4.32554e-16 0)
(3 1.22248e-16 0)
(3 -4.10196e-16 0)
(3 -9.0289e-16 0)
(3 -1.19684e-15 0)
(3 -1.39556e-15 0)
(3 -9.37254e-16 0)
(3 -2.09767e-15 0)
(3 -2.92574e-15 0)
(3 -3.18465e-15 0)
(3 -1.99755e-15 0)
(3 -1.24443e-15 0)
(3 -1.20925e-15 0)
(3 -5.90574e-16 0)
(3 -5.43517e-16 0)
(3 -7.18706e-16 0)
(3 -1.67903e-15 0)
(3 -2.6435e-15 0)
(3 -1.93733e-15 0)
(3 -4.04095e-16 0)
(3 1.35186e-16 0)
(3 -3.87667e-16 0)
(3 -4.08004e-16 0)
(3 -5.84675e-17 0)
(3 1.69112e-16 0)
(3 -2.72452e-16 0)
(3 5.37174e-17 0)
(3 2.8727e-16 0)
(3 1.15132e-16 0)
(3 -1.43747e-16 0)
(3 -1.36806e-16 0)
(3 -1.4212e-16 0)
(3 -9.55176e-16 0)
(3 -1.57274e-15 0)
(3 -2.12709e-15 0)
(3 -2.99956e-15 0)
(3 -3.82184e-15 0)
(3 -3.21521e-15 0)
(3 -2.69409e-15 0)
(3 -2.74945e-15 0)
(3 -4.19021e-15 0)
(3 -5.10147e-15 0)
(3 -4.59745e-15 0)
(3 -3.39861e-15 0)
(3 -6.3275e-16 0)
(3 1.38463e-15 0)
(3 1.61668e-15 0)
(3 1.01622e-16 0)
(3 -1.44028e-16 0)
(3 1.44518e-15 0)
(3 2.2406e-15 0)
(3 1.56656e-15 0)
(3 3.90824e-16 0)
(3 -1.63187e-16 0)
(3 -2.97958e-16 0)
(3 -4.13814e-16 0)
(3 -5.38076e-16 0)
(3 -8.2014e-16 0)
(3 7.99406e-16 0)
(3 1.89532e-15 0)
(3 1.7436e-15 0)
(3 1.34841e-15 0)
(3 1.3487e-15 0)
(3 1.62295e-15 0)
(3 9.57155e-16 0)
(3 -9.6292e-17 0)
(3 -2.71993e-16 0)
(3 5.14613e-16 0)
(3 9.39062e-16 0)
(3 1.6312e-15 0)
(3 2.89255e-15 0)
(3 2.60439e-15 0)
(3 1.24595e-15 0)
(3 1.29187e-15 0)
(3 2.06137e-15 0)
(3 1.83283e-15 0)
(3 1.23632e-15 0)
(3 6.10472e-16 0)
(3 -4.64273e-16 0)
(3 -1.10068e-15 0)
(3 -2.2065e-15 0)
(3 -1.45517e-15 0)
(3 -1.58382e-15 0)
(3 -1.60105e-15 0)
(3 -1.02629e-15 0)
(3 -1.96991e-16 0)
(3 -6.14813e-16 0)
(3 -1.56141e-15 0)
(3 3.87655e-16 0)
(3 9.41292e-16 0)
(3 1.87138e-16 0)
(3 1.05541e-15 0)
(3 1.65262e-15 0)
(3 1.53274e-15 0)
(3 6.56621e-16 0)
(3 -8.65415e-16 0)
(3 -9.13334e-16 0)
(3 -1.64207e-15 0)
(3 -2.44387e-15 0)
(3 -2.35917e-15 0)
(3 -1.89471e-15 0)
(3 -9.82486e-16 0)
(3 -1.27909e-15 0)
(3 -1.64207e-15 0)
(3 -1.61057e-15 0)
(3 -1.09218e-15 0)
(3 6.35455e-16 0)
(3 -1.32918e-16 0)
(3 -2.96695e-17 0)
(3 1.04273e-15 0)
(3 1.13942e-15 0)
(3 6.5896e-16 0)
(3 2.00331e-16 0)
(3 2.06202e-16 0)
(3 3.13318e-16 0)
(3 -5.14114e-16 0)
(3 -1.677e-15 0)
(3 5.68403e-16 0)
(3 1.23127e-15 0)
(3 7.35756e-16 0)
(3 2.85859e-17 0)
(3 1.08237e-16 0)
(3 4.84343e-17 0)
(3 -2.12582e-16 0)
(3 -7.65821e-16 0)
(3 -8.95398e-16 0)
(3 -1.11919e-15 0)
(3 -5.55246e-16 0)
(3 -4.85587e-16 0)
(3 -7.06223e-16 0)
(3 -1.74489e-15 0)
(3 -2.65631e-15 0)
(3 -2.91491e-15 0)
(3 -3.10293e-15 0)
(3 -3.09061e-15 0)
(3 -3.10328e-15 0)
(3 -2.74327e-15 0)
(3 -2.47705e-15 0)
(3 -2.07368e-15 0)
(3 -1.71947e-15 0)
(3 -1.33501e-15 0)
(3 -1.72228e-16 0)
(3 1.03972e-15 0)
(3 1.42955e-15 0)
(3 1.12321e-15 0)
(3 -9.44214e-16 0)
(3 -1.472e-15 0)
(3 -2.75359e-15 0)
(3 -4.29766e-15 0)
(3 -4.4709e-15 0)
(3 -3.45261e-15 0)
(3 -2.10387e-15 0)
(3 -1.57136e-15 0)
(3 -8.5888e-16 0)
(3 3.38536e-16 0)
(3 1.54197e-15 0)
(3 1.61333e-15 0)
(3 1.7168e-15 0)
(3 1.68026e-15 0)
(3 1.36977e-15 0)
(3 8.30156e-16 0)
(3 9.44422e-16 0)
(3 1.14369e-15 0)
(3 1.27403e-15 0)
(3 1.23068e-15 0)
(3 1.87904e-15 0)
(3 1.24743e-15 0)
(3 -1.28344e-16 0)
(3 2.11533e-16 0)
(3 1.93678e-15 0)
(3 1.45586e-15 0)
(3 1.12072e-15 0)
(3 4.65757e-16 0)
(3 1.74043e-16 0)
(3 -7.1485e-18 0)
(3 -3.19091e-16 0)
(3 -4.74757e-16 0)
(3 6.46499e-17 0)
(3 -6.43148e-17 0)
(3 -2.26927e-16 0)
(3 -1.01252e-15 0)
(3 -1.31923e-15 0)
(3 -4.40169e-16 0)
(3 -5.74307e-16 0)
(3 -3.48777e-16 0)
(3 8.9251e-16 0)
(3 1.28306e-15 0)
(3 7.06976e-16 0)
(3 1.9566e-17 0)
(3 -1.76349e-16 0)
(3 -4.5484e-16 0)
(3 -1.0531e-15 0)
(3 -1.56391e-15 0)
(3 -1.16221e-15 0)
(3 -7.79029e-16 0)
(3 1.72197e-17 0)
(3 3.79461e-16 0)
(3 3.55865e-16 0)
(3 -6.80067e-16 0)
(3 -6.97419e-16 0)
(3 -8.32224e-16 0)
(3 -1.00231e-15 0)
(3 -8.58506e-16 0)
(3 -4.75816e-16 0)
(3 -5.42902e-16 0)
(3 -2.38978e-16 0)
(3 9.68097e-16 0)
(3 2.17897e-15 0)
(3 2.43803e-15 0)
(3 2.14373e-15 0)
(3 1.01917e-15 0)
(3 5.62677e-16 0)
(3 6.20537e-16 0)
(3 1.61008e-15 0)
(3 2.79819e-15 0)
(3 3.18016e-15 0)
(3 -1.18147e-16 0)
(3 2.44292e-16 0)
(3 2.83248e-16 0)
(3 2.52943e-17 0)
(3 -1.33686e-16 0)
(3 -5.68257e-16 0)
(3 -1.02086e-15 0)
(3 -1.27185e-15 0)
(3 -1.4246e-15 0)
(3 -1.27917e-15 0)
(3 -1.23141e-15 0)
(3 -5.32349e-16 0)
(3 -4.34854e-17 0)
(3 1.10079e-16 0)
(3 7.99902e-17 0)
(3 -2.93663e-17 0)
(3 4.9289e-17 0)
(3 3.77982e-16 0)
(3 -1.81981e-17 0)
(3 -2.54906e-16 0)
(3 -2.8522e-16 0)
(3 -1.3614e-15 0)
(3 -1.23003e-15 0)
(3 -1.20528e-15 0)
(3 -1.11536e-15 0)
(3 -1.04877e-15 0)
(3 -2.19848e-15 0)
(3 -3.92249e-15 0)
(3 -4.80952e-15 0)
(3 -5.37517e-15 0)
(3 -4.68306e-15 0)
(3 -3.01569e-15 0)
(3 -1.98621e-15 0)
(3 -9.13792e-16 0)
(3 8.70826e-17 0)
(3 9.05791e-16 0)
(3 2.00351e-15 0)
(3 1.83005e-15 0)
(3 6.4581e-16 0)
(3 -4.79441e-16 0)
(3 1.12215e-16 0)
(3 7.97462e-16 0)
(3 1.68049e-15 0)
(3 1.75138e-15 0)
(3 1.63609e-15 0)
(3 8.37425e-16 0)
(3 -1.46447e-15 0)
(3 -1.3281e-15 0)
(3 -6.31781e-16 0)
(3 -5.07253e-16 0)
(3 2.71888e-17 0)
(3 5.13252e-16 0)
(3 5.04048e-16 0)
(3 4.2633e-16 0)
(3 7.17283e-16 0)
(3 4.44709e-16 0)
(3 5.22485e-16 0)
(3 1.66711e-16 0)
(3 2.87491e-16 0)
(3 1.38813e-16 0)
(3 9.85014e-17 0)
(3 -9.30937e-16 0)
(3 -6.83831e-16 0)
(3 -9.46882e-17 0)
(3 -7.07935e-16 0)
(3 -8.03968e-16 0)
(3 -6.04486e-16 0)
(3 -5.17786e-17 0)
(3 -5.88973e-16 0)
(3 -1.27332e-15 0)
(3 -2.04399e-15 0)
(3 -2.12511e-15 0)
(3 -2.0697e-15 0)
(3 -1.4904e-15 0)
(3 -3.97396e-16 0)
(3 9.77497e-16 0)
(3 1.98458e-15 0)
(3 1.06682e-15 0)
(3 -1.13797e-15 0)
(3 -2.60103e-15 0)
(3 -3.07218e-15 0)
(3 -3.53745e-15 0)
(3 -2.79773e-15 0)
(3 -1.9671e-15 0)
(3 -8.89897e-16 0)
(3 -5.31908e-16 0)
(3 -1.24146e-16 0)
(3 -1.25088e-16 0)
(3 8.77372e-16 0)
(3 7.61011e-16 0)
(3 7.55331e-16 0)
(3 1.13591e-15 0)
(3 1.5531e-15 0)
(3 2.80434e-15 0)
(3 2.7498e-15 0)
(3 8.52125e-16 0)
(3 1.33565e-16 0)
(3 3.72309e-16 0)
(3 2.9849e-16 0)
(3 7.0469e-16 0)
(3 6.10072e-16 0)
(3 4.93744e-16 0)
(3 2.02104e-16 0)
(3 -9.08061e-16 0)
(3 -2.03079e-15 0)
(3 -2.41167e-15 0)
(3 -2.1133e-15 0)
(3 -1.01664e-15 0)
(3 -1.6186e-16 0)
(3 1.66612e-16 0)
(3 6.63402e-16 0)
(3 7.13413e-16 0)
(3 6.9517e-16 0)
(3 8.64504e-16 0)
(3 7.0071e-16 0)
(3 6.28434e-16 0)
(3 -4.20763e-16 0)
(3 -1.85797e-15 0)
(3 -2.24456e-15 0)
(3 -1.88078e-15 0)
(3 -8.64344e-16 0)
(3 -8.79952e-16 0)
(3 -1.54611e-15 0)
(3 -1.46716e-15 0)
(3 -1.25675e-15 0)
(3 -1.79072e-15 0)
(3 -2.03215e-15 0)
(3 -1.67198e-15 0)
(3 2.36232e-16 0)
(3 1.40236e-15 0)
(3 1.71282e-15 0)
(3 1.6582e-15 0)
(3 2.00305e-15 0)
(3 2.63733e-15 0)
(3 2.45992e-15 0)
(3 2.06653e-15 0)
(3 2.34015e-16 0)
(3 1.48954e-16 0)
(3 -3.38685e-17 0)
(3 2.43457e-16 0)
(3 -3.82673e-16 0)
(3 -2.71682e-15 0)
(3 -2.21665e-15 0)
(3 -1.55702e-15 0)
(3 -1.01042e-15 0)
(3 -5.95795e-16 0)
(3 9.47418e-16 0)
(3 2.03061e-15 0)
(3 1.41015e-15 0)
(3 4.74257e-16 0)
(3 -8.7732e-16 0)
(3 -7.89058e-16 0)
(3 5.38862e-16 0)
(3 1.18656e-15 0)
(3 1.31385e-15 0)
(3 1.41755e-15 0)
(3 1.15976e-15 0)
(3 1.40824e-15 0)
(3 7.88435e-16 0)
(3 2.18504e-17 0)
(3 -1.93099e-15 0)
(3 -3.22759e-15 0)
(3 -2.57913e-15 0)
(3 -1.57675e-15 0)
(3 -2.01077e-16 0)
(3 2.15476e-17 0)
(3 -2.6903e-16 0)
(3 -3.35471e-16 0)
(3 -2.85407e-16 0)
(3 -6.55764e-16 0)
(3 2.08169e-17 0)
(3 8.26817e-16 0)
(3 1.00993e-15 0)
(3 9.61308e-16 0)
(3 -4.09602e-16 0)
(3 -2.63153e-15 0)
(3 -2.84807e-15 0)
(3 -2.3553e-15 0)
(3 -1.64523e-15 0)
(3 -9.96109e-16 0)
(3 -2.26528e-16 0)
(3 6.46587e-16 0)
(3 6.64772e-17 0)
(3 -9.8988e-17 0)
(3 6.43889e-16 0)
(3 1.11799e-15 0)
(3 1.49007e-15 0)
(3 1.43198e-15 0)
(3 1.09708e-15 0)
(3 1.27923e-15 0)
(3 3.6692e-16 0)
(3 -5.28602e-16 0)
(3 3.78225e-16 0)
(3 1.07508e-16 0)
(3 6.81333e-17 0)
(3 4.92818e-16 0)
(3 3.4866e-16 0)
(3 3.297e-16 0)
(3 2.44048e-16 0)
(3 1.94777e-16 0)
(3 2.43084e-16 0)
(3 -3.53554e-16 0)
(3 -6.83488e-16 0)
(3 -1.00868e-15 0)
(3 -1.19165e-15 0)
(3 -9.73308e-16 0)
(3 -1.45195e-16 0)
(3 1.52387e-16 0)
(3 -4.06947e-17 0)
(3 4.07803e-17 0)
(3 -1.95809e-16 0)
(3 -2.91356e-16 0)
(3 -1.46835e-16 0)
(3 -9.89826e-17 0)
(3 -1.02025e-16 0)
(3 -2.53846e-17 0)
(3 3.03617e-16 0)
(3 2.23874e-16 0)
(3 2.32467e-16 0)
(3 2.18715e-16 0)
(3 1.28055e-16 0)
(3 3.82301e-16 0)
(3 -1.40081e-15 0)
(3 -1.68759e-15 0)
(3 -8.31501e-16 0)
(3 3.7688e-16 0)
(3 9.85936e-16 0)
(3 7.73309e-16 0)
(3 4.52483e-16 0)
(3 5.78001e-16 0)
(3 7.1979e-16 0)
(3 8.58144e-16 0)
(3 6.16756e-16 0)
(3 -1.09961e-15 0)
(3 -1.1865e-15 0)
(3 -1.09223e-15 0)
(3 -1.50938e-15 0)
(3 -3.56869e-15 0)
(3 -3.45081e-15 0)
(3 -2.10457e-15 0)
(3 -1.51357e-15 0)
(3 -1.08295e-15 0)
(3 3.01828e-16 0)
(3 1.22384e-15 0)
(3 1.62088e-15 0)
(3 -2.10699e-17 0)
(3 -1.04425e-15 0)
(3 -1.09375e-15 0)
(3 -4.49358e-16 0)
(3 4.55861e-16 0)
(3 1.37285e-15 0)
(3 9.8868e-16 0)
(3 8.11476e-16 0)
(3 8.59271e-16 0)
(3 8.27752e-16 0)
(3 2.47341e-16 0)
(3 -3.74894e-16 0)
(3 -5.28429e-16 0)
(3 -3.7103e-16 0)
(3 -8.19569e-16 0)
(3 5.13403e-16 0)
(3 1.03298e-15 0)
(3 1.95431e-15 0)
(3 2.7726e-15 0)
(3 2.40817e-15 0)
(3 1.89802e-15 0)
(3 1.05486e-15 0)
(3 8.57122e-16 0)
(3 8.46523e-16 0)
(3 8.79576e-16 0)
(3 4.79224e-16 0)
(3 -8.67599e-16 0)
(3 -6.79991e-16 0)
(3 -8.98201e-16 0)
(3 -9.12407e-16 0)
(3 -9.37163e-16 0)
(3 -1.26323e-15 0)
(3 -9.18793e-16 0)
(3 -9.57459e-17 0)
(3 5.84699e-17 0)
(3 1.07891e-16 0)
(3 1.85818e-17 0)
(3 -2.90187e-16 0)
(3 -5.67641e-16 0)
(3 -1.57953e-16 0)
(3 -2.07555e-16 0)
(3 -2.28033e-16 0)
(3 1.39473e-16 0)
(3 -1.21715e-17 0)
(3 -6.31161e-16 0)
(3 -8.43418e-16 0)
(3 -6.47307e-16 0)
(3 -2.04944e-17 0)
(3 5.00575e-16 0)
(3 1.0553e-15 0)
(3 1.58673e-15 0)
(3 2.41368e-15 0)
(3 2.64638e-15 0)
(3 2.3443e-15 0)
(3 1.76291e-15 0)
(3 9.06269e-16 0)
(3 8.10176e-16 0)
(3 5.03694e-16 0)
(3 2.18255e-16 0)
(3 -1.64557e-16 0)
(3 -1.13946e-16 0)
(3 1.78897e-16 0)
(3 1.56847e-16 0)
(3 -1.39865e-16 0)
(3 -5.56661e-16 0)
(3 -8.63023e-16 0)
(3 -6.59439e-16 0)
(3 -1.9416e-16 0)
(3 1.60747e-16 0)
(3 -1.7356e-16 0)
(3 -5.90479e-16 0)
(3 -1.05557e-15 0)
(3 -6.82333e-16 0)
(3 -6.79038e-16 0)
(3 6.89875e-17 0)
(3 8.4123e-16 0)
(3 9.88245e-16 0)
(3 8.9499e-16 0)
(3 4.17007e-16 0)
(3 2.6679e-16 0)
(3 -8.4845e-16 0)
(3 -1.13673e-15 0)
(3 -1.46868e-15 0)
(3 -1.30542e-15 0)
(3 -1.45904e-15 0)
(3 -7.62498e-16 0)
(3 -7.0857e-16 0)
(3 -1.44357e-15 0)
(3 -2.07755e-15 0)
(3 -1.84654e-15 0)
(3 -1.26192e-15 0)
(3 -9.58635e-16 0)
(3 -2.96261e-16 0)
(3 -9.68388e-17 0)
(3 3.57272e-19 0)
(3 1.54619e-15 0)
(3 3.95329e-16 0)
(3 -4.40022e-16 0)
(3 -1.98516e-16 0)
(3 3.70443e-16 0)
(3 1.87656e-15 0)
(3 1.73369e-15 0)
(3 1.54917e-15 0)
(3 1.71587e-15 0)
(3 -5.34008e-17 0)
(3 -3.14933e-16 0)
(3 -2.97972e-16 0)
(3 2.19639e-16 0)
(3 7.80298e-16 0)
(3 -5.3467e-16 0)
(3 -4.40217e-16 0)
(3 1.05296e-16 0)
(3 3.42212e-16 0)
(3 5.94578e-16 0)
(3 1.37371e-15 0)
(3 1.84003e-15 0)
(3 1.84161e-15 0)
(3 4.86469e-16 0)
(3 1.08535e-16 0)
(3 2.76551e-16 0)
(3 -3.6296e-16 0)
(3 -6.41572e-16 0)
(3 -1.35043e-15 0)
(3 -1.44126e-15 0)
(3 -9.89582e-16 0)
(3 -1.45486e-15 0)
(3 -1.8259e-15 0)
(3 -2.04696e-15 0)
(3 -1.74766e-15 0)
(3 -1.10239e-15 0)
(3 -9.15647e-16 0)
(3 -6.61291e-16 0)
(3 -1.12806e-15 0)
(3 -1.69651e-15 0)
(3 -1.89904e-15 0)
(3 -1.69727e-15 0)
(3 -1.4333e-15 0)
(3 -8.78774e-16 0)
(3 -3.03364e-16 0)
(3 -4.56282e-16 0)
(3 -5.69279e-16 0)
(3 -7.31667e-16 0)
(3 -6.25692e-16 0)
(3 -6.07163e-17 0)
(3 8.07949e-16 0)
(3 1.01821e-15 0)
(3 9.39243e-16 0)
(3 1.40306e-15 0)
(3 1.41641e-15 0)
(3 1.58015e-15 0)
(3 1.74512e-15 0)
(3 1.807e-15 0)
(3 1.23865e-15 0)
(3 4.72496e-16 0)
(3 1.6255e-16 0)
(3 -8.75486e-17 0)
(3 -8.09781e-16 0)
(3 -1.17672e-15 0)
(3 -2.00119e-15 0)
(3 -2.98361e-15 0)
(3 -2.94289e-15 0)
(3 -2.81208e-15 0)
(3 -1.98013e-15 0)
(3 -1.12295e-15 0)
(3 -1.30627e-15 0)
(3 -2.69655e-15 0)
(3 -3.68008e-15 0)
(3 -3.25503e-15 0)
(3 -2.8713e-15 0)
(3 4.15874e-16 0)
(3 1.5989e-15 0)
(3 1.82613e-15 0)
(3 1.70706e-15 0)
(3 1.30998e-15 0)
(3 9.23007e-17 0)
(3 -1.30602e-15 0)
(3 -2.72036e-15 0)
(3 -3.25843e-15 0)
(3 -3.12749e-15 0)
(3 -1.81578e-15 0)
(3 -1.25647e-15 0)
(3 -8.60247e-16 0)
(3 -3.18507e-16 0)
(3 -2.91128e-16 0)
(3 4.29139e-16 0)
(3 -2.65898e-16 0)
(3 -6.74001e-17 0)
(3 4.79318e-16 0)
(3 5.7398e-16 0)
(3 2.24357e-16 0)
(3 -6.90553e-16 0)
(3 -6.33891e-16 0)
(3 -1.52212e-16 0)
(3 2.15276e-16 0)