/*--------------------------------*- C++ -*----------------------------------*\
  =========                 |
  \\      /  F ield         | OpenFOAM: The Open Source CFD Toolbox
   \\    /   O peration     | Website:  https://openfoam.org
    \\  /    A nd           | Version:  7
     \\/     M anipulation  |
\*---------------------------------------------------------------------------*/
FoamFile
{
    version     2.0;
    format      ascii;
    class       volScalarField;
    location    "3.4";
    object      p;
}
// * * * * * * * * * * * * * * * * * * * * * * * * * * * * * * * * * * * * * //

dimensions      [1 -1 -2 0 0 0 0];

internalField   nonuniform List<scalar> 
4608
(
1
1
1
1
1
1
1
1
1
1
1
1
1
1
1
1
1
1
1
1
1
1
1
1
1
1
1
1
1
1
1
1
1
1
1
1
1
1
1
1
1
1
1
1
1
1
1
1
1
1
1
1
1
1
1
1
1
1
1
1
1
1
1
1
1
1
1
1
1
1
1
1
1
1
1
1
1
1
1
1
1
1
1
1
1
1
1
1
1
1
1
1
1
1
1
1
1
1
1
1
1
1
1
1
1
1
1
1
1
1
1
1
1
1
1
1
1
1
1
1
1
1
1
1
1
1
1
1
1
1
1
1
1
1
1
1
1
1
1
1
1
1
1
1
1
1
1
1
1
1
1
1
1
1
1
1
1
1
1
1
1
1
1
1
1
1
1
1
1
1
1
1
1
1
1
1
1
1
1
1
1
1
1
1
1
1
1
1
1
1
1
1
1
1
1
1
1
1
1
1
1
1
1
1
1
1
1
1
1
1
1
1
1
1
1
1
1
1
1
1
1
1
1
1
1
1
1
1
1
1
1
1
1
1
1
1
1
1
1
1
1
1
1
1
1
1
1
1
1
1
1
1
1
1
1
1
1
1
1
1
1
1
1
1
1
1
1
1
1
1
1
1
1
1
1
1
1
1
1
1
1
1
1
1
1
1
1
1
1
1
1
1
1
1
1
1
1
1
1
1
1
1
1
1
1
1
1
1
1
1
1
1
1
1
1
1
1
1
1
1
1
1
1
1
1
1
1
1
1
1
1
1
1
1
1
1
1
1
1
1
1
1
1
1
1
1
1
1
1
1
1
1
1
1
1
1
1
1
1
1
1
1
1
1
1
1
1
1
1
1
1
1
1
1
1
1
1
1
1
1
1
1
1
1
1
1
1
1
1
1
1
1
1
1
1
1
1
1
1
1
1
1
1
1
1
1
1
1
1
1
1
1
1
1
1
1
1
1
1
1
1
1
1
1
1
1
1
1
1
1
1
1
1
1
1
1
1
1
1
1
1
1
1
1
1
1
1
1
1
1
1
1
1
1
1
1
1
1
1
1
1
1
1
1
1
1
1
1
1
1
1
1
1
1
1
1
1
1
1
1
1
1
1
1
1
1
1
1
1
1
1
1
1
1
1
1
1
1
1
1
1
1
1
1
1
1
1
1
1
1
1
1
1
1
1
1
1
1
1
1
1
1
1
1
1
1
1
1
1
1
1
1
1
1
1
1
1
1
1
1
1
1
1
1
1
1
1
1
1
1
1
1
1
1
1
1
1
1
1
1
1
1
1
1
1
1
1
1
1
1
1
1
1
1
1
1
1
1
1
1
1
1
1
1
1
1
1
1
1
1
1
1
1
1
1
1
1
1
1
1
1
1
1
1
1
1
1
1
1
1
1
1
1
1
1
1
1
1
1
1
1
1
1
1
1
1
1
1
1
1
1
1
1
1
1
1
1
1
1
1
1
1
1
1
1
1
1
1
1
1
1
1
1
1
1
1
1
1
1
1
1
1
1
1
1
1
1
1
1
1
1
1
1
1
1
1
1
1
1
1
1
1
1
1
1
1
1
1
1
1
1
1
1
1
1
1
1
1
1
1
1
1
1
1
1
1
1
1
1
1
1
1
1
1
1
1
1
1
1
1
1
1
1
1
1
1
1
1
1
1
1
1
1
1
1
1
1
1
1
1
1
1
1
1
1
1
1
1
1
1
1
1
1
1
1
1
1
1
1
1
1
1
1
1
1
1
1
1
1.29294
1.7533
2.3406
2.97975
3.62148
4.33489
4.81094
5.29248
5.36987
5.18019
4.71885
4.19781
3.81247
3.66544
3.56513
3.56918
3.6126
3.66263
3.70318
3.71189
3.71566
3.72542
3.74089
3.7671
1.00274
1.02146
1.07831
1.22191
1.46683
1.8562
2.36931
2.99767
3.55505
3.85923
4.04733
4.00366
3.96541
3.88686
3.7735
3.70519
3.69893
3.69153
3.69589
3.70726
3.72092
3.73029
3.74003
3.75702
1
1
0.999969
1.00023
1.00347
1.02345
1.11093
1.35909
1.99542
2.99372
3.86199
4.27431
4.36349
4.28429
4.12686
3.86813
3.70686
3.68747
3.69334
3.71292
3.73241
3.74265
3.74483
3.75607
1
1
0.999996
0.999997
0.999986
1.00004
0.99998
1.00154
1.03707
1.28802
2.05873
3.0764
3.99941
4.11472
4.07902
4.02472
3.88996
3.76934
3.74925
3.73829
3.73118
3.7366
3.74137
3.75386
1
1
1
1
0.999999
0.999999
0.999998
0.999995
0.999899
1.0012
1.04211
1.3637
2.22614
3.2696
3.89312
4.13674
4.08624
3.95648
3.80031
3.73511
3.70361
3.69354
3.70729
3.72703
1
1
1
1
1
1
1
1
0.999988
0.99999
0.999899
1.00351
1.06565
1.54502
2.4753
3.60295
3.90317
3.88553
3.84956
3.78571
3.7078
3.68954
3.69296
3.70712
1
1
1
1
1
1
1
1
1
0.999999
0.999988
0.99999
0.999954
1.0134
1.14798
1.80884
2.8481
3.72023
3.93746
3.91083
3.81122
3.7602
3.74223
3.7266
1
1
1
1
1
1
1
1
1
1
1
0.999999
0.999994
0.999961
1.0007
1.03916
1.34487
2.28229
3.21458
3.78163
3.84232
3.82603
3.79007
3.75579
1
1
1
1
1
1
1
1
1
1
1
1
1
0.999996
0.999992
1.00003
1.00646
1.13747
1.75697
2.92714
3.48369
3.65626
3.73938
3.75545
1
1
1
1
1
1
1
1
1
1
1
1
1
1
0.999999
0.999999
0.999984
1.00159
1.04681
1.41494
2.36286
3.32934
3.76438
3.77808
1
1
1
1
1
1
1
1
1
1
1
1
1
1
1
1
0.999998
0.999991
1.00019
1.01459
1.23149
1.9924
3.04688
3.54934
1
1
1
1
1
1
1
1
1
1
1
1
1
1
1
1
1
0.999998
0.999997
1.00001
1.00624
1.10447
1.73017
2.80232
1
1
1
1
1
1
1
1
1
1
1
1
1
1
1
1
1
1
0.999999
0.999999
0.999998
1.00181
1.06925
1.50221
1
1
1
1
1
1
1
1
1
1
1
1
1
1
1
1
1
1
1
1
0.999999
0.999999
1.00137
1.0253
1
1
1
1
1
1
1
1
1
1
1
1
1
1
1
1
1
1
1
1
1
0.999999
1.00001
0.999979
1
1
1
1
1
1
1
1
1
1
1
1
1
1
1
1
1
1
1
1
1
1
1
0.999981
1
1
1
1
1
1
1
1
1
1
1
1
1
1
1
1
1
1
1
1
1
1
0.999999
0.999994
1
1
1
1
1
1
1
1
1
1
1
1
1
1
1
1
1
1
1
1
1
1
0.999996
1.0001
1
1
1
1
1
1
1
1
1
1
1
1
1
1
1
1
1
1
1
1
0.999999
0.999999
1.00114
1.03074
1
1
1
1
1
1
1
1
1
1
1
1
1
1
1
1
1
1
0.999999
0.999999
0.999999
1.00177
1.07232
1.47991
1
1
1
1
1
1
1
1
1
1
1
1
1
1
1
1
1
0.999998
0.999997
1.00002
1.00632
1.10663
1.74785
2.72241
1
1
1
1
1
1
1
1
1
1
1
1
1
1
1
1
0.999998
0.999991
1.00019
1.01468
1.23168
2.02234
2.99973
3.52925
1
1
1
1
1
1
1
1
1
1
1
1
1
1
0.999998
0.999999
0.999984
1.00159
1.04696
1.41272
2.3638
3.34912
3.74366
3.76542
1
1
1
1
1
1
1
1
1
1
1
1
1
0.999996
0.999992
1.00003
1.00643
1.13804
1.75626
2.92356
3.49407
3.66091
3.72873
3.7498
1
1
1
1
1
1
1
1
1
1
1
0.999999
0.999994
0.999961
1.0007
1.03921
1.34454
2.28496
3.20954
3.78104
3.84676
3.82677
3.78455
3.75694
1
1
1
1
1
1
1
1
1
0.999999
0.999988
0.99999
0.999954
1.01341
1.14799
1.8083
2.84903
3.71999
3.93681
3.91048
3.81287
3.75977
3.74167
3.72778
1
1
1
1
1
1
1
1
0.999988
0.99999
0.999899
1.00351
1.06565
1.54516
2.4751
3.60226
3.90429
3.8862
3.84933
3.78611
3.70825
3.69005
3.69322
3.70808
1
1
1
1
0.999999
0.999999
0.999998
0.999995
0.999899
1.0012
1.04211
1.36364
2.22617
3.26991
3.89265
4.13669
4.08632
3.95698
3.79986
3.73471
3.70393
3.69338
3.7072
3.72709
1
1
0.999996
0.999997
0.999986
1.00004
0.99998
1.00154
1.03706
1.28803
2.05874
3.07632
3.99951
4.11475
4.07893
4.02446
3.89018
3.76958
3.74894
3.73814
3.73127
3.73648
3.74109
3.75365
1
1
0.999969
1.00023
1.00347
1.02345
1.11093
1.35911
1.99536
2.99379
3.86208
4.27429
4.36341
4.28437
4.12695
3.86771
3.70721
3.68743
3.69321
3.71287
3.73246
3.7426
3.74472
3.75603
1.00274
1.02146
1.0783
1.22193
1.46686
1.85614
2.36937
2.99765
3.55496
3.85923
4.04748
4.00353
3.96518
3.88714
3.77331
3.70521
3.69926
3.69149
3.69585
3.70722
3.72102
3.73033
3.73999
3.75698
1.29294
1.75328
2.34063
2.97979
3.62132
4.33501
4.81113
5.29234
5.36975
5.18015
4.71902
4.19763
3.81258
3.66556
3.56508
3.56922
3.61273
3.66262
3.70304
3.71181
3.71573
3.72547
3.74091
3.76713
2.66755
1.7045
1.08693
0.849812
0.752986
0.665858
0.643947
0.68534
0.784672
0.855228
0.907285
0.988953
1.02211
1.01338
1.00022
1.00982
1.04592
1.08091
1.08636
1.08461
1.07052
1.04105
1.03717
1.10522
1.51399
2.75719
4.63491
6.85186
8.84297
9.30779
8.6213
7.54448
6.7996
6.49553
6.30319
6.10062
5.90568
5.70949
5.51508
5.30902
5.07408
4.82549
4.59345
4.40423
4.25267
4.12672
4.02393
3.93525
3.84001
3.72578
3.59469
3.44778
3.27488
3.11092
3.00973
2.94395
2.89315
2.84986
2.80994
2.75987
2.69555
2.61028
2.50637
2.39798
2.30091
2.2142
2.13637
2.08011
2.05208
2.03346
2.0316
2.08331
2.28569
2.74919
3.41455
4.06579
4.60007
5.05877
5.27604
5.24494
5.16425
5.03896
4.88722
4.7421
4.60185
4.40113
4.22614
4.16594
4.12252
4.08505
4.04681
4.01007
3.97085
3.91995
3.86409
3.73056
3.3608
2.78725
2.16959
1.69243
1.50059
1.31091
1.08277
1.02738
1.00992
0.965458
0.919397
0.930289
0.936065
0.926415
0.926206
0.947608
0.988729
1.02492
1.03477
1.03692
1.02903
1.02864
1.10878
1.64767
2.57455
3.05504
3.58934
4.29544
5.58165
6.79885
7.5604
7.42991
7.04853
6.65013
6.36315
6.13061
5.93754
5.75875
5.57899
5.37628
5.13744
4.88036
4.65499
4.48208
4.34144
4.20768
4.08909
3.9944
3.89629
3.77894
3.64139
3.48775
3.3196
3.17201
3.07804
3.00794
2.95151
2.90215
2.85495
2.80074
2.73341
2.64868
2.55007
2.44965
2.35444
2.26984
2.19716
2.13441
2.09428
2.10337
2.17648
2.40068
2.77793
3.13076
3.34452
3.6432
4.02664
4.27812
4.54825
4.78355
4.96463
4.97967
4.90415
4.77151
4.61393
4.43506
4.26087
4.1872
4.13919
4.09564
4.06612
4.03882
4.00145
3.94753
3.88787
3.75521
3.65473
3.34077
2.89402
2.35943
1.93909
1.69073
1.43287
1.22113
1.13288
1.04589
0.948026
0.934188
0.936977
0.921902
0.915268
0.922648
0.943389
0.969369
0.987292
0.996598
1.01807
1.14518
1.79314
2.74426
3.27107
3.30781
3.31073
3.33407
3.58123
4.62877
6.26568
7.16935
7.2002
6.88353
6.34245
5.99827
5.80846
5.64204
5.45989
5.26367
5.04617
4.8388
4.64996
4.47414
4.29978
4.1348
3.9737
3.84598
3.76213
3.67173
3.55962
3.4294
3.30523
3.19603
3.07727
2.96102
2.87855
2.82048
2.76756
2.71119
2.64626
2.56737
2.47404
2.38726
2.313
2.24321
2.19896
2.16757
2.17327
2.28086
2.58776
2.99825
3.27376
3.33105
3.34756
3.36837
3.45137
3.64926
4.01178
4.44814
4.72366
4.86472
4.86165
4.78918
4.62762
4.47278
4.32007
4.22201
4.15008
4.08466
4.02793
3.98821
3.95505
3.90136
3.83382
3.70374
3.73747
3.61803
3.34738
2.94208
2.44664
2.1325
1.89351
1.57279
1.39545
1.30815
1.15053
1.05091
1.04088
1.01738
0.970646
0.940867
0.941433
0.937461
0.938451
0.952349
1.1179
1.79839
2.9127
3.22108
3.27083
3.25702
3.1858
3.06953
3.00621
3.11832
3.78781
5.24659
6.47415
6.49286
6.35426
6.08427
5.83428
5.59834
5.37968
5.2255
5.05325
4.86798
4.68641
4.49195
4.306
4.13753
3.97057
3.80896
3.70004
3.61431
3.53127
3.45002
3.35975
3.25148
3.10686
2.96925
2.86717
2.80042
2.74384
2.67876
2.60703
2.52738
2.44264
2.36374
2.30088
2.25781
2.24873
2.30253
2.50252
2.90693
3.28097
3.48933
3.50898
3.47132
3.39481
3.32737
3.31519
3.32737
3.445
3.70756
4.06283
4.39872
4.5519
4.59149
4.58048
4.51989
4.42109
4.30595
4.19707
4.12066
4.05557
4.00032
3.95433
3.89519
3.81768
3.67663
3.74314
3.72148
3.59288
3.33273
2.94761
2.53781
2.27175
2.01176
1.73068
1.53401
1.36861
1.21689
1.15448
1.12173
1.06853
0.978074
0.95186
0.941291
0.9537
1.15763
1.88102
2.92578
3.29437
3.2447
3.14821
3.0683
2.98298
2.89575
2.83928
2.76122
2.77868
3.09761
4.16621
5.46032
6.0685
6.08987
5.90579
5.57594
5.2793
5.07537
4.90167
4.73164
4.58769
4.47434
4.34423
4.18889
4.01131
3.8185
3.66117
3.5439
3.4418
3.35593
3.27837
3.19703
3.11325
3.00857
2.88755
2.78354
2.72362
2.66609
2.5788
2.47502
2.41035
2.35744
2.32729
2.35717
2.50836
2.82242
3.24028
3.60905
3.69098
3.64334
3.54479
3.45479
3.39242
3.3474
3.29931
3.27842
3.24361
3.25151
3.35089
3.62803
4.00902
4.26656
4.46709
4.53993
4.49954
4.38447
4.26648
4.15393
4.04576
3.96086
3.90707
3.84851
3.77223
3.65016
3.72739
3.7237
3.69173
3.54835
3.2951
2.97863
2.6057
2.30941
2.09131
1.89365
1.68716
1.44678
1.3225
1.29739
1.26427
1.16072
1.06823
1.09026
1.35912
2.17541
3.09881
3.38745
3.3294
3.18034
3.03909
2.94296
2.85451
2.77279
2.70578
2.6199
2.54195
2.49461
2.60972
3.28925
4.47742
5.50665
5.6706
5.54288
5.29896
5.05968
4.85122
4.65834
4.50477
4.39302
4.28544
4.18402
4.04366
3.8381
3.62509
3.49081
3.40423
3.32986
3.26239
3.19026
3.0976
2.99598
2.88354
2.78278
2.70562
2.61785
2.52482
2.4497
2.40746
2.39962
2.43926
2.67846
3.15833
3.58789
3.8666
3.88853
3.82068
3.64862
3.527
3.45428
3.41313
3.39816
3.36337
3.31859
3.25611
3.15284
3.03747
3.06936
3.28618
3.6592
4.05077
4.35767
4.42262
4.41771
4.36057
4.23645
4.08996
3.96177
3.87802
3.81027
3.737
3.63288
3.72841
3.73083
3.71355
3.66835
3.52402
3.2743
2.98988
2.68481
2.32313
2.14857
2.01324
1.83665
1.59694
1.40286
1.37559
1.32334
1.35386
1.72301
2.70144
3.55278
3.69827
3.57125
3.34827
3.16715
3.03314
2.9257
2.81582
2.71745
2.62457
2.53489
2.44323
2.39832
2.33378
2.35336
2.6473
3.55203
4.74271
5.26295
5.20317
5.0642
4.81068
4.58279
4.40054
4.30127
4.22607
4.14595
4.04224
3.87092
3.65469
3.48158
3.37632
3.28967
3.21104
3.1534
3.0985
3.02855
2.93803
2.82471
2.68284
2.5658
2.50625
2.45917
2.46205
2.59708
2.95531
3.50037
3.92183
4.0311
4.02608
3.94566
3.76056
3.59749
3.53513
3.49859
3.45868
3.41053
3.35898
3.30797
3.24492
3.13912
2.99716
2.92562
2.94284
3.09056
3.4327
3.89303
4.25122
4.36704
4.36142
4.29046
4.11681
3.94717
3.84542
3.7843
3.72934
3.6427
3.73752
3.73615
3.7307
3.71311
3.65684
3.50837
3.25786
3.00712
2.73408
2.41249
2.17586
2.09181
1.9225
1.70812
1.56808
1.67691
2.26614
3.40325
4.1921
4.17194
3.97483
3.70082
3.45621
3.26475
3.1027
2.96444
2.82909
2.70968
2.59564
2.50279
2.40453
2.35197
2.28719
2.21928
2.15039
2.24816
2.80168
3.77677
4.62119
4.82747
4.73143
4.54991
4.38869
4.26542
4.16058
4.05316
3.94052
3.81679
3.66118
3.4763
3.34261
3.25663
3.17938
3.10355
3.02427
2.94623
2.86416
2.7667
2.64398
2.56972
2.53941
2.5943
2.84513
3.34137
3.83997
4.202
4.25978
4.23145
4.10884
3.91394
3.71488
3.59265
3.55108
3.52639
3.48421
3.43103
3.37583
3.31964
3.25089
3.14441
3.00343
2.91064
2.89529
2.8952
2.97605
3.25008
3.67524
4.04446
4.18073
4.17189
4.07184
3.91466
3.82339
3.77657
3.73917
3.66298
3.73024
3.72266
3.72045
3.71424
3.70191
3.63559
3.48501
3.23853
3.02702
2.75704
2.49885
2.26322
2.10288
2.01959
2.25534
3.14386
4.32568
4.81959
4.7169
4.42489
4.11186
3.85407
3.64458
3.45737
3.27243
3.08998
2.91205
2.74764
2.61043
2.50003
2.40941
2.34113
2.27475
2.1828
2.10419
2.01822
2.02708
2.25016
2.94217
3.91377
4.4002
4.47395
4.42106
4.25155
4.10181
3.97043
3.8548
3.74532
3.6221
3.46197
3.30879
3.20958
3.13016
3.0528
2.98356
2.9122
2.83335
2.74564
2.64746
2.63474
2.77096
3.20398
3.75775
4.17949
4.33352
4.34823
4.30538
4.21045
4.07182
3.88322
3.72127
3.63485
3.59377
3.55598
3.50792
3.45463
3.39405
3.32063
3.23371
3.12748
3.01532
2.94348
2.89968
2.86379
2.85818
2.8931
3.0697
3.38084
3.72409
3.95956
3.98889
3.89878
3.80102
3.76416
3.75393
3.68983
3.75488
3.72907
3.7123
3.70111
3.6961
3.68028
3.60699
3.45605
3.24719
2.98983
2.76718
2.48599
2.52339
3.02772
4.24724
5.40342
5.60321
5.39737
5.02147
4.65133
4.33134
4.06342
3.83352
3.62684
3.43016
3.23767
3.04883
2.85735
2.68563
2.53421
2.41309
2.31951
2.24622
2.16426
2.09201
2.00432
1.94593
1.87786
1.93292
2.34197
3.18015
3.94155
4.17214
4.16271
4.0605
3.92346
3.80678
3.70272
3.58132
3.42729
3.2672
3.15915
3.08203
3.00618
2.94576
2.87709
2.83432
2.7612
2.79312
3.05492
3.62376
4.15931
4.4743
4.57154
4.53923
4.42724
4.28631
4.16742
4.04062
3.86603
3.73394
3.67664
3.62652
3.57656
3.52755
3.47459
3.41051
3.32455
3.21156
3.10004
3.0233
2.97987
2.93593
2.89073
2.84061
2.81523
2.82084
2.88272
3.06465
3.36732
3.67225
3.75054
3.75154
3.75952
3.77998
3.73175
3.78011
3.80018
3.77421
3.73954
3.72198
3.7128
3.6796
3.59956
3.428
3.2414
3.00184
3.17558
4.2119
5.74096
6.43051
6.32885
5.98129
5.58818
5.21032
4.85855
4.54212
4.25896
4.00572
3.77469
3.56186
3.36173
3.1694
2.97693
2.79841
2.63352
2.49033
2.36865
2.26089
2.15372
2.06281
1.99122
1.91607
1.84862
1.77441
1.76834
1.96295
2.59024
3.38727
3.85289
3.94183
3.90115
3.77948
3.65719
3.5219
3.37683
3.22304
3.10154
3.03364
2.97193
2.92565
2.88534
2.89591
3.04599
3.51959
4.12994
4.56627
4.61131
4.60813
4.58754
4.52087
4.42943
4.3026
4.16917
4.03127
3.85204
3.73621
3.6894
3.63809
3.58832
3.54283
3.49367
3.43111
3.33687
3.19923
3.08036
3.03271
3.00192
2.96833
2.92769
2.86938
2.80895
2.76008
2.70809
2.724
2.83522
3.09976
3.41946
3.62078
3.71249
3.79646
3.76718
3.59349
3.69066
3.69333
3.7036
3.72267
3.72765
3.71661
3.68625
3.56147
3.5832
4.19511
5.70107
7.26395
7.67553
7.44027
6.84935
6.27179
5.79609
5.39861
5.04259
4.71269
4.41047
4.14364
3.90429
3.68456
3.47604
3.27156
3.06978
2.87729
2.6974
2.5404
2.41749
2.30775
2.20304
2.10301
2.00869
1.9093
1.82064
1.74132
1.69725
1.67918
1.7474
2.11211
2.81309
3.42005
3.66525
3.68314
3.59831
3.46856
3.3421
3.20223
3.06263
2.9796
2.96053
2.94679
3.04935
3.4368
4.08321
4.67643
5.00315
4.98815
4.86796
4.67729
4.54263
4.46521
4.39917
4.31148
4.19513
4.04748
3.8669
3.73679
3.68239
3.63427
3.58819
3.54616
3.50187
3.44284
3.34429
3.20546
3.10689
3.05624
3.01495
2.9783
2.94043
2.89416
2.82677
2.74294
2.6661
2.62843
2.63476
2.70947
2.92379
3.25645
3.51568
3.65979
3.67991
2.61292
3.23217
3.65521
3.79955
3.79717
3.76426
3.70804
3.71371
3.99325
5.41225
7.5954
8.40967
8.39124
8.15097
7.7236
7.19051
6.61534
6.06871
5.59245
5.18946
4.83965
4.52237
4.23937
3.99491
3.77626
3.56377
3.34817
3.13472
2.92529
2.73332
2.57166
2.4356
2.32066
2.23594
2.15335
2.05713
1.95602
1.8501
1.75114
1.6789
1.63466
1.58559
1.59918
1.76815
2.27382
2.91797
3.36929
3.4692
3.44345
3.3493
3.18653
3.05795
2.9862
3.02649
3.26682
3.88313
4.60042
5.0853
5.11194
5.07744
4.98946
4.86956
4.72453
4.5718
4.44983
4.36718
4.29166
4.19643
4.06406
3.89595
3.75227
3.67757
3.62727
3.58374
3.54641
3.50832
3.45184
3.35429
3.22907
3.13636
3.081
3.03661
2.99489
2.95277
2.90449
2.83767
2.73858
2.64306
2.59037
2.57617
2.57826
2.62321
2.78916
3.06598
3.35299
3.5422
1.4098
2.19748
3.20892
3.69165
3.66117
3.70502
3.86816
4.63766
6.52546
8.79266
9.74871
9.66447
9.00716
8.29358
7.82391
7.37876
6.88103
6.34549
5.82908
5.37295
4.98629
4.64902
4.32977
4.03494
3.78334
3.58029
3.40481
3.22476
3.01752
2.79912
2.61979
2.49427
2.38067
2.25996
2.13747
2.03706
1.96548
1.89657
1.81053
1.71597
1.62204
1.52747
1.47395
1.46075
1.53004
1.86169
2.47288
3.01529
3.2477
3.23384
3.16044
3.16497
3.34177
3.78417
4.46873
5.11536
5.46881
5.4719
5.32389
5.09503
4.9137
4.82004
4.72772
4.60905
4.4763
4.35995
4.26282
4.16569
4.06148
3.9421
3.80954
3.7026
3.63008
3.57407
3.53216
3.48469
3.41934
3.34465
3.27084
3.17608
3.09112
3.0571
3.03075
2.99066
2.93504
2.85731
2.75267
2.6543
2.59624
2.56578
2.54708
2.52874
2.54525
2.64563
2.83256
3.17724
1.02916
1.23051
1.98822
2.98632
3.38657
4.56585
5.76042
7.82193
9.41112
9.81841
9.79088
9.67801
9.26946
8.63397
8.04027
7.50085
6.99661
6.50724
6.01401
5.5525
5.15287
4.8007
4.45199
4.11858
3.84814
3.61711
3.406
3.2028
3.02404
2.87072
2.71918
2.57226
2.42475
2.28359
2.17523
2.07773
1.97525
1.86837
1.76776
1.68367
1.60416
1.51733
1.45765
1.43049
1.41548
1.43555
1.61489
2.08733
2.66334
3.02022
3.31549
3.86881
4.57207
5.12801
5.52842
5.56393
5.52815
5.4454
5.30868
5.14194
4.96642
4.84395
4.73395
4.63114
4.52604
4.41442
4.29653
4.17884
4.07386
3.97175
3.85466
3.74638
3.67167
3.61101
3.55943
3.50786
3.44592
3.38149
3.30766
3.22028
3.14244
3.07557
3.00547
2.94219
2.88577
2.821
2.74915
2.69919
2.65946
2.60468
2.55707
2.507
2.49116
2.48372
2.51572
2.7475
1.00056
1.00969
1.18807
1.88947
3.59366
6.34787
8.19781
9.72687
10.9488
10.4889
9.82941
9.60676
9.37023
8.96738
8.3255
7.63262
7.02195
6.533
6.07397
5.64038
5.21787
4.80538
4.51057
4.28665
4.02797
3.75522
3.50654
3.28956
3.08984
2.90735
2.71161
2.52658
2.44196
2.38108
2.29296
2.16711
2.01734
1.89094
1.79192
1.70369
1.60217
1.5485
1.51352
1.47353
1.42154
1.36966
1.36733
1.46647
1.83124
2.81462
3.91273
4.90728
5.63995
6.07421
6.06307
5.90661
5.61673
5.33499
5.20594
5.12881
5.01055
4.85997
4.72482
4.62289
4.49239
4.34428
4.22834
4.1275
4.02933
3.93882
3.86421
3.79243
3.70208
3.5885
3.49265
3.43751
3.39048
3.33758
3.27812
3.22037
3.16309
3.09249
3.00885
2.92677
2.86376
2.82591
2.79424
2.74019
2.65517
2.57451
2.53494
2.51133
2.47509
2.43848
2.43618
2.51562
1.00031
1.01756
1.1697
1.99125
3.91555
5.66034
8.42268
9.84904
10.9121
10.7086
10.1431
9.75798
9.42011
8.8367
8.13859
7.46258
6.87543
6.43819
6.12982
5.78871
5.3712
4.93978
4.54687
4.19569
3.91033
3.64804
3.40608
3.27163
3.16708
3.00213
2.79421
2.59153
2.42617
2.2916
2.18278
2.07417
1.9491
1.87723
1.84026
1.77203
1.66792
1.56111
1.47678
1.41771
1.3792
1.34673
1.35377
1.4422
1.86234
2.70462
3.94347
5.00004
5.57621
6.06161
6.08111
5.82581
5.47395
5.25445
5.17053
5.11428
5.0364
4.9236
4.79738
4.67487
4.51239
4.32906
4.19528
4.11677
4.05568
3.99319
3.93338
3.85562
3.73635
3.60644
3.4938
3.41778
3.37726
3.34494
3.30687
3.25932
3.19358
3.10381
3.01522
2.94005
2.87284
2.80873
2.75574
2.70171
2.63824
2.58036
2.53797
2.48939
2.45158
2.433
2.43289
2.52116
1.02161
1.26793
2.03072
3.10338
3.57556
4.0434
5.87255
7.85054
9.41661
10.0629
10.0469
9.85427
9.35985
8.60265
7.9282
7.36939
6.89186
6.43267
5.96659
5.52305
5.12244
4.78125
4.46742
4.16763
3.89401
3.66074
3.45946
3.24874
3.02723
2.84124
2.68202
2.53941
2.40158
2.27638
2.14845
2.03325
1.95711
1.87715
1.77116
1.69023
1.62622
1.55422
1.477
1.42674
1.39443
1.41515
1.58963
2.01995
2.65727
2.90008
3.33187
3.97742
4.51655
5.20238
5.51894
5.51647
5.48899
5.3903
5.27601
5.14839
5.00427
4.8982
4.78689
4.64508
4.48633
4.34159
4.22103
4.11587
4.02154
3.93935
3.86664
3.79634
3.72554
3.63651
3.53924
3.45341
3.37583
3.30543
3.25249
3.20521
3.16127
3.11771
3.05679
2.98637
2.91244
2.83461
2.74942
2.67411
2.62267
2.5826
2.541
2.4927
2.46912
2.46912
2.50768
2.75635
1.35967
2.32247
3.14807
3.6536
3.69655
3.69936
3.90739
4.72722
6.5629
8.74521
9.90917
9.7832
9.00744
8.22629
7.69449
7.25084
6.7965
6.3021
5.81655
5.39874
5.04734
4.71854
4.39357
4.09129
3.81821
3.5789
3.37063
3.16377
2.953
2.77359
2.6444
2.53626
2.42785
2.30662
2.1764
2.04665
1.93521
1.85125
1.76107
1.66489
1.61793
1.58255
1.53272
1.50722
1.57533
1.91009
2.46508
2.9464
3.22304
3.20638
3.19798
3.22522
3.38408
3.83471
4.53893
5.15928
5.43195
5.43847
5.32961
5.13622
4.96
4.88234
4.78986
4.62949
4.44803
4.31321
4.21824
4.13916
4.06241
3.97082
3.86599
3.76213
3.66652
3.58624
3.51933
3.45194
3.38006
3.31574
3.2537
3.1919
3.13343
3.07699
3.01986
2.95051
2.87264
2.79738
2.7235
2.66339
2.61932
2.58713
2.55814
2.54196
2.55673
2.62295
2.78174
3.12624
2.57426
3.42257
3.61772
3.74568
3.77312
3.73836
3.69384
3.70728
3.97937
5.29318
7.56322
8.48724
8.31716
8.03888
7.56607
7.0898
6.59884
6.11417
5.67583
5.2858
4.93
4.5965
4.28376
3.99686
3.73995
3.50649
3.28735
3.08145
2.90263
2.75599
2.61414
2.47019
2.33865
2.23626
2.15342
2.05458
1.92607
1.8131
1.75036
1.68183
1.62458
1.58298
1.59949
1.77359
2.30907
2.96634
3.31955
3.43926
3.41996
3.32247
3.19885
3.12505
3.04775
3.07311
3.30384
3.91176
4.54079
4.97272
5.10566
5.0858
5.01205
4.90899
4.76894
4.57887
4.41683
4.31513
4.24558
4.17214
4.07777
3.96437
3.84189
3.72625
3.63806
3.58351
3.53628
3.48125
3.40887
3.31967
3.23461
3.16828
3.11481
3.06929
3.02442
2.96097
2.85473
2.73873
2.68819
2.6666
2.63653
2.61319
2.62054
2.67094
2.7955
3.01863
3.24091
3.40977
3.64158
3.75069
3.70692
3.66946
3.67853
3.69952
3.70568
3.67156
3.55063
3.57031
4.17852
5.72013
7.1888
7.63202
7.41794
6.85634
6.31674
5.86675
5.48223
5.12148
4.77597
4.45101
4.15084
3.87798
3.62907
3.40025
3.19585
3.01046
2.83661
2.69147
2.57654
2.46879
2.35346
2.23971
2.11772
1.99542
1.89104
1.80962
1.73122
1.69277
1.66286
1.72195
2.10452
2.79398
3.47715
3.65251
3.62309
3.54623
3.44035
3.34368
3.23523
3.13192
3.03405
2.98098
2.93437
3.00958
3.3541
3.95725
4.61681
5.0214
5.02467
4.92364
4.73099
4.54265
4.41218
4.32504
4.24668
4.15755
4.05312
3.94028
3.83071
3.7328
3.65131
3.58067
3.51504
3.45147
3.38126
3.29745
3.21981
3.16309
3.11723
3.07404
3.02343
2.9449
2.82515
2.70737
2.66201
2.63835
2.64421
2.66895
2.77875
3.01236
3.30679
3.51986
3.57997
3.55209
3.81096
3.82525
3.79198
3.73385
3.70248
3.70158
3.68237
3.61289
3.44034
3.2426
3.00342
3.18578
4.21357
5.69469
6.44083
6.38829
6.04589
5.64479
5.27181
4.91811
4.58014
4.26227
3.97457
3.71873
3.4883
3.2782
3.09651
2.94221
2.80211
2.66915
2.54421
2.41429
2.28473
2.16223
2.07653
2.00361
1.90738
1.82055
1.74779
1.7551
1.96368
2.60464
3.38109
3.86006
3.94503
3.90065
3.79491
3.66275
3.52824
3.41793
3.30812
3.1947
3.0899
2.99068
2.91623
2.83721
2.82443
2.96924
3.44191
4.18799
4.62647
4.71178
4.69359
4.6128
4.47808
4.36032
4.24407
4.12818
4.02337
3.92809
3.83654
3.74751
3.66038
3.57858
3.50631
3.43602
3.35715
3.27354
3.20343
3.15432
3.11221
3.06758
3.01156
2.92457
2.788
2.69149
2.67374
2.67673
2.7193
2.90525
3.25737
3.60119
3.79896
3.81105
3.74827
3.57967
3.75438
3.74879
3.73332
3.70364
3.68888
3.67011
3.60321
3.456
3.24914
2.9902
2.76837
2.49133
2.53101
3.0383
4.28823
5.48121
5.60936
5.40437
5.0323
4.65592
4.31717
4.02661
3.78241
3.57114
3.37956
3.20194
3.03764
2.88132
2.72863
2.59012
2.47756
2.36851
2.27111
2.17361
2.07963
1.98226
1.90525
1.84081
1.91819
2.35842
3.24659
4.04886
4.24457
4.19602
4.04021
3.88323
3.76593
3.66278
3.55902
3.45271
3.34101
3.23338
3.13475
3.03725
2.94354
2.84713
2.7594
2.69987
2.7559
3.0928
3.69071
4.24897
4.60531
4.61751
4.50878
4.33224
4.19525
4.08711
4.00587
3.93326
3.85225
3.76731
3.68263
3.59421
3.49679
3.40276
3.32191
3.25086
3.19178
3.14543
3.1007
3.05073
2.98992
2.90522
2.78159
2.72267
2.72637
2.80062
3.03178
3.44254
3.83436
3.9631
3.96269
3.90539
3.77765
3.59234
3.73725
3.73378
3.72538
3.71412
3.69748
3.63148
3.48135
3.23666
3.02765
2.75601
2.49843
2.26784
2.10978
2.02427
2.27206
3.18112
4.31432
4.80926
4.70662
4.40625
4.08442
3.81104
3.59368
3.41791
3.25079
3.08457
2.92467
2.78836
2.6634
2.56354
2.48422
2.39404
2.2819
2.15412
2.05927
1.97711
1.98064
2.21449
2.9861
3.94278
4.5721
4.58876
4.50437
4.26805
4.04995
3.89479
3.78235
3.68509
3.58876
3.48101
3.36589
3.25735
3.17561
3.10026
3.00921
2.88409
2.75031
2.67333
2.63715
2.65058
2.82398
3.25613
3.88423
4.27934
4.29091
4.2271
4.17261
4.08756
4.0127
3.94214
3.86267
3.78037
3.69562
3.60065
3.48407
3.36672
3.28772
3.23099
3.17939
3.13002
3.08247
3.0331
2.97563
2.90895
2.81128
2.81024
2.92139
3.19047
3.56988
3.93479
4.06911
4.06896
4.02975
3.93499
3.81715
3.64442
3.74218
3.73945
3.73191
3.71206
3.65556
3.50639
3.25644
3.00624
2.73409
2.40922
2.17749
2.09491
1.92402
1.70983
1.56979
1.67931
2.24139
3.35675
4.1832
4.16413
3.94939
3.6596
3.41237
3.25228
3.11583
2.97819
2.84921
2.75752
2.65467
2.55545
2.4652
2.38296
2.27234
2.1714
2.08593
2.18056
2.66937
3.68825
4.65393
4.91764
4.89058
4.68061
4.44146
4.2524
4.08902
3.95913
3.84316
3.73506
3.62745
3.51545
3.40909
3.30883
3.2198
3.12431
3.01255
2.88869
2.76922
2.68711
2.6195
2.59495
2.58516
2.65569
2.93889
3.41001
3.86284
4.05275
4.0892
4.08676
4.03099
3.9489
3.86427
3.78357
3.69918
3.59976
3.47752
3.35328
3.25866
3.19837
3.15191
3.10748
3.07088
3.03059
2.99413
2.95653
2.99732
3.15571
3.45612
3.76187
4.00909
4.09846
4.07725
4.03161
3.97614
3.91142
3.84661
3.70599
3.72604
3.72955
3.71249
3.66698
3.5233
3.27479
2.99047
2.68339
2.32343
2.14989
2.01194
1.83551
1.59407
1.40551
1.37841
1.32384
1.35
1.69497
2.69016
3.55415
3.6655
3.53359
3.32444
3.16931
3.06644
2.94904
2.82907
2.74058
2.65083
2.56507
2.4801
2.40927
2.2941
2.2938
2.56847
3.49391
4.52003
5.20884
5.31308
5.22425
4.93561
4.62139
4.39352
4.25106
4.14125
4.03511
3.91316
3.7881
3.6708
3.55516
3.44745
3.3502
3.25235
3.14406
3.012
2.88603
2.79512
2.72551
2.65269
2.59535
2.55079
2.53028
2.54815
2.65542
2.96247
3.40875
3.74769
3.87773
3.95467
3.92308
3.85509
3.77784
3.6888
3.58378
3.46481
3.34655
3.24544
3.17024
3.12099
3.08206
3.06541
3.04975
3.09986
3.25143
3.53182
3.86098
4.1202
4.19377
4.15023
4.08206
4.01905
3.96729
3.92699
3.88313
3.84253
3.74169
3.72872
3.72369
3.69148
3.54839
3.29539
2.97833
2.60513
2.31127
2.09143
1.89219
1.68343
1.44526
1.32437
1.29916
1.26539
1.15981
1.06767
1.08741
1.36092
2.18789
3.10183
3.38737
3.34589
3.22718
3.11838
2.99891
2.87129
2.77341
2.68875
2.60789
2.54269
2.48603
2.60795
3.21058
4.47099
5.40028
5.62669
5.57638
5.37006
5.13383
4.86811
4.61893
4.43092
4.30582
4.20698
4.10278
3.97649
3.82989
3.69728
3.60656
3.52595
3.42678
3.31497
3.18199
3.02329
2.881
2.80652
2.76056
2.71388
2.66677
2.61704
2.55002
2.48805
2.43209
2.45427
2.63016
3.04073
3.48034
3.76217
3.86621
3.84715
3.78968
3.69383
3.56746
3.44556
3.34026
3.24671
3.16158
3.10705
3.08762
3.09272
3.20094
3.5156
3.89265
4.23007
4.39267
4.40308
4.32045
4.15667
4.04368
3.98786
3.95834
3.93476
3.90476
3.87689
3.78517
3.74311
3.72135
3.59284
3.33222
2.94548
2.53963
2.27392
2.01052
1.72843
1.53289
1.36772
1.21692
1.15584
1.12299
1.06878
0.977996
0.952487
0.941607
0.955803
1.1584
1.93443
2.87666
3.27932
3.28628
3.25249
3.1481
3.00497
2.87771
2.79432
2.71049
2.72924
3.03045
4.14244
5.37328
6.16599
6.15615
5.98867
5.68464
5.38087
5.09584
4.82742
4.66281
4.52601
4.38345
4.24761
4.12142
3.9998
3.87074
3.73817
3.61407
3.49042
3.37404
3.26072
3.1556
3.03871
2.93193
2.86026
2.79405
2.73642
2.67584
2.60348
2.51908
2.42417
2.35572
2.31956
2.32682
2.43608
2.7596
3.18171
3.57265
3.69135
3.67664
3.63617
3.54117
3.43188
3.33886
3.25515
3.18378
3.14784
3.17154
3.31942
3.71579
4.14098
4.46332
4.6017
4.60299
4.54227
4.37782
4.16595
4.0416
3.99121
3.95289
3.90939
3.86056
3.82202
3.73205
3.73737
3.61812
3.34812
2.93995
2.44667
2.13599
1.89237
1.5701
1.39694
1.30854
1.14761
1.05166
1.04167
1.01765
0.970239
0.940934
0.941886
0.937747
0.938798
0.952652
1.1227
1.84125
2.78314
3.26322
3.34362
3.31149
3.20374
3.07267
2.95979
3.04718
3.64144
5.11453
6.4142
6.54785
6.47205
6.22981
5.9904
5.72854
5.42247
5.12779
4.87611
4.71046
4.58478
4.46184
4.34164
4.2279
4.10649
3.97238
3.82293
3.65194
3.49754
3.3721
3.25904
3.14771
3.04504
2.98324
2.93103
2.86593
2.7965
2.728
2.64272
2.52877
2.41881
2.33638
2.28467
2.26728
2.26865
2.32317
2.53116
2.90808
3.31
3.4757
3.52391
3.50376
3.4271
3.36109
3.30812
3.30442
3.37993
3.57202
3.97629
4.37788
4.54118
4.62739
4.6321
4.58779
4.49026
4.36166
4.20334
4.08641
4.00535
3.96567
3.92954
3.88062
3.81172
3.68293
3.65461
3.34141
2.89368
2.35716
1.94186
1.69181
1.43036
1.22215
1.13393
1.04478
0.947389
0.935293
0.936564
0.92098
0.914814
0.922705
0.94401
0.970167
0.987782
0.997114
1.01831
1.15278
1.76217
2.64758
3.29099
3.34152
3.3191
3.33587
3.56913
4.56688
6.08369
7.13478
7.2484
7.01102
6.49844
6.12762
5.87043
5.6497
5.40648
5.14353
4.92478
4.78218
4.65224
4.51555
4.37262
4.22121
4.06164
3.90973
3.76694
3.6246
3.48916
3.37335
3.2693
3.17535
3.10242
3.04134
2.96878
2.87273
2.76258
2.66795
2.59032
2.50305
2.41779
2.35039
2.30439
2.27301
2.24975
2.22769
2.2157
2.28936
2.55593
2.9249
3.17688
3.34244
3.38054
3.42119
3.53204
3.7541
4.0397
4.36259
4.67751
4.75088
4.72121
4.639
4.5554
4.4736
4.39969
4.30825
4.21979
4.15368
4.06629
3.94623
3.87359
3.82303
3.76158
3.65987
3.36119
2.78735
2.16597
1.69535
1.50372
1.30853
1.08024
1.02901
1.01052
0.964977
0.920207
0.93105
0.935333
0.925268
0.925582
0.947893
0.989667
1.02564
1.03521
1.03729
1.0292
1.0285
1.10142
1.56431
2.56443
3.07777
3.57212
4.28179
5.6019
6.69957
7.43714
7.43492
7.10944
6.75325
6.45808
6.16025
5.86315
5.63677
5.45313
5.26245
5.08492
4.92575
4.7666
4.60995
4.4553
4.29432
4.11434
3.92292
3.75929
3.63197
3.52605
3.43495
3.35654
3.28705
3.22009
3.14274
3.04731
2.93322
2.80552
2.66376
2.5543
2.50684
2.47194
2.43416
2.397
2.35925
2.31663
2.25744
2.1691
2.08594
2.11352
2.29088
2.61819
2.98704
3.30785
3.69789
4.12652
4.57686
4.76147
4.85469
4.89799
4.8182
4.67856
4.5599
4.48748
4.42524
4.37265
4.33405
4.30061
4.25106
4.15076
3.98739
3.83067
3.75528
3.72935
3.68584
2.66775
1.70313
1.08809
0.852926
0.752177
0.66262
0.642766
0.686592
0.78628
0.855447
0.908354
0.990509
1.02105
1.01197
0.999563
1.01018
1.04719
1.08164
1.08657
1.08497