/*--------------------------------*- C++ -*----------------------------------*\
  =========                 |
  \\      /  F ield         | OpenFOAM: The Open Source CFD Toolbox
   \\    /   O peration     | Website:  https://openfoam.org
    \\  /    A nd           | Version:  7
     \\/     M anipulation  |
\*---------------------------------------------------------------------------*/
FoamFile
{
    version     2.0;
    format      ascii;
    class       volScalarField;
    location    "3.4";
    object      rho;
}
// * * * * * * * * * * * * * * * * * * * * * * * * * * * * * * * * * * * * * //

dimensions      [1 -3 0 0 0 0 0];

internalField   nonuniform List<scalar> 
4608
(
1.40001
1.40001
1.40001
1.40001
1.40001
1.40001
1.40001
1.40001
1.40001
1.40001
1.40001
1.40001
1.40001
1.40001
1.40001
1.40001
1.40001
1.40001
1.40001
1.40001
1.40001
1.40001
1.40001
1.40001
1.40001
1.40001
1.40001
1.40001
1.40001
1.40001
1.40001
1.40001
1.40001
1.40001
1.40001
1.40001
1.40001
1.40001
1.40001
1.40001
1.40001
1.40001
1.40001
1.40001
1.40001
1.40001
1.40001
1.40001
1.40001
1.40001
1.40001
1.40001
1.40001
1.40001
1.40001
1.40001
1.40001
1.40001
1.40001
1.40001
1.40001
1.40001
1.40001
1.40001
1.40001
1.40001
1.40001
1.40001
1.40001
1.40001
1.40001
1.40001
1.40001
1.40001
1.40001
1.40001
1.40001
1.40001
1.40001
1.40001
1.40001
1.40001
1.40001
1.40001
1.40001
1.40001
1.40001
1.40001
1.40001
1.40001
1.40001
1.40001
1.40001
1.40001
1.40001
1.40001
1.40001
1.40001
1.40001
1.40001
1.40001
1.40001
1.40001
1.40001
1.40001
1.40001
1.40001
1.40001
1.40001
1.40001
1.40001
1.40001
1.40001
1.40001
1.40001
1.40001
1.40001
1.40001
1.40001
1.40001
1.40001
1.40001
1.40001
1.40001
1.40001
1.40001
1.40001
1.40001
1.40001
1.40001
1.40001
1.40001
1.40001
1.40001
1.40001
1.40001
1.40001
1.40001
1.40001
1.40001
1.40001
1.40001
1.40001
1.40001
1.40001
1.40001
1.40001
1.40001
1.40001
1.40001
1.40001
1.40001
1.40001
1.40001
1.40001
1.40001
1.40001
1.40001
1.40001
1.40001
1.40001
1.40001
1.40001
1.40001
1.40001
1.40001
1.40001
1.40001
1.40001
1.40001
1.40001
1.40001
1.40001
1.40001
1.40001
1.40001
1.40001
1.40001
1.40001
1.40001
1.40001
1.40001
1.40001
1.40001
1.40001
1.40001
1.40001
1.40001
1.40001
1.40001
1.40001
1.40001
1.40001
1.40001
1.40001
1.40001
1.40001
1.40001
1.40001
1.40001
1.40001
1.40001
1.40001
1.40001
1.40001
1.40001
1.40001
1.40001
1.40001
1.40001
1.40001
1.40001
1.40001
1.40001
1.40001
1.40001
1.40001
1.40001
1.40001
1.40001
1.40001
1.40001
1.40001
1.40001
1.40001
1.40001
1.40001
1.40001
1.40001
1.40001
1.40001
1.40001
1.40001
1.40001
1.40001
1.40001
1.40001
1.40001
1.40001
1.40001
1.40001
1.40001
1.40001
1.40001
1.40001
1.40001
1.40001
1.40001
1.40001
1.40001
1.40001
1.40001
1.40001
1.40001
1.40001
1.40001
1.40001
1.40001
1.40001
1.40001
1.40001
1.40001
1.40001
1.40001
1.40001
1.40001
1.40001
1.40001
1.40001
1.40001
1.40001
1.40001
1.40001
1.40001
1.40001
1.40001
1.40001
1.40001
1.40001
1.40001
1.40001
1.40001
1.40001
1.40001
1.40001
1.40001
1.40001
1.40001
1.40001
1.40001
1.40001
1.40001
1.40001
1.40001
1.40001
1.40001
1.40001
1.40001
1.40001
1.40001
1.40001
1.40001
1.40001
1.40001
1.40001
1.40001
1.40001
1.40001
1.40001
1.40001
1.40001
1.40001
1.40001
1.40001
1.40001
1.40001
1.40001
1.40001
1.40001
1.40001
1.40001
1.40001
1.40001
1.40001
1.40001
1.40001
1.40001
1.40001
1.40001
1.40001
1.40001
1.40001
1.40001
1.40001
1.40001
1.40001
1.40001
1.40001
1.40001
1.40001
1.40001
1.40001
1.40001
1.40001
1.40001
1.40001
1.40001
1.40001
1.40001
1.40001
1.40001
1.40001
1.40001
1.40001
1.40001
1.40001
1.40001
1.40001
1.40001
1.40001
1.40001
1.40001
1.40001
1.40001
1.40001
1.40001
1.40001
1.40001
1.40001
1.40001
1.40001
1.40001
1.40001
1.40001
1.40001
1.40001
1.40001
1.40001
1.40001
1.40001
1.40001
1.40001
1.40001
1.40001
1.40001
1.40001
1.40001
1.40001
1.40001
1.40001
1.40001
1.40001
1.40001
1.40001
1.40001
1.40001
1.40001
1.40001
1.40001
1.40001
1.40001
1.40001
1.40001
1.40001
1.40001
1.40001
1.40001
1.40001
1.40001
1.40001
1.40001
1.40001
1.40001
1.40001
1.40001
1.40001
1.40001
1.40001
1.40001
1.40001
1.40001
1.40001
1.40001
1.40001
1.40001
1.40001
1.40001
1.40001
1.40001
1.40001
1.40001
1.40001
1.40001
1.40001
1.40001
1.40001
1.40001
1.40001
1.40001
1.40001
1.40001
1.40001
1.40001
1.40001
1.40001
1.40001
1.40001
1.40001
1.40001
1.40001
1.40001
1.40001
1.40001
1.40001
1.40001
1.40001
1.40001
1.40001
1.40001
1.40001
1.40001
1.40001
1.40001
1.40001
1.40001
1.40001
1.40001
1.40001
1.40001
1.40001
1.40001
1.40001
1.40001
1.40001
1.40001
1.40001
1.40001
1.40001
1.40001
1.40001
1.40001
1.40001
1.40001
1.40001
1.40001
1.40001
1.40001
1.40001
1.40001
1.40001
1.40001
1.40001
1.40001
1.40001
1.40001
1.40001
1.40001
1.40001
1.40001
1.40001
1.40001
1.40001
1.40001
1.40001
1.40001
1.40001
1.40001
1.40001
1.40001
1.40001
1.40001
1.40001
1.40001
1.40001
1.40001
1.40001
1.40001
1.40001
1.40001
1.40001
1.40001
1.40001
1.40001
1.40001
1.40001
1.40001
1.40001
1.40001
1.40001
1.40001
1.40001
1.40001
1.40001
1.40001
1.40001
1.40001
1.40001
1.40001
1.40001
1.40001
1.40001
1.40001
1.40001
1.40001
1.40001
1.40001
1.40001
1.40001
1.40001
1.40001
1.40001
1.40001
1.40001
1.40001
1.40001
1.40001
1.40001
1.40001
1.40001
1.40001
1.40001
1.40001
1.40001
1.40001
1.40001
1.40001
1.40001
1.40001
1.40001
1.40001
1.40001
1.40001
1.40001
1.40001
1.40001
1.40001
1.40001
1.40001
1.40001
1.40001
1.40001
1.40001
1.40001
1.40001
1.40001
1.40001
1.40001
1.40001
1.40001
1.40001
1.40001
1.40001
1.40001
1.40001
1.40001
1.40001
1.40001
1.40001
1.40001
1.40001
1.40001
1.40001
1.40001
1.40001
1.40001
1.40001
1.40001
1.40001
1.40001
1.40001
1.40001
1.40001
1.40001
1.40001
1.40001
1.40001
1.40001
1.40001
1.40001
1.40001
1.40001
1.40001
1.40001
1.40001
1.40001
1.40001
1.40001
1.40001
1.40001
1.40001
1.40001
1.40001
1.40001
1.40001
1.40001
1.40001
1.40001
1.40001
1.40001
1.40001
1.40001
1.40001
1.40001
1.40001
1.40001
1.40001
1.40001
1.40001
1.40001
1.40001
1.40001
1.40001
1.40001
1.40001
1.40001
1.40001
1.40001
1.40001
1.40001
1.40001
1.40001
1.40001
1.40001
1.40001
1.40001
1.40001
1.40001
1.40001
1.40001
1.40001
1.40001
1.40001
1.40001
1.40001
1.40001
1.40001
1.40001
1.40001
1.40001
1.40001
1.40001
1.40001
1.40001
1.40001
1.40001
1.40001
1.40001
1.40001
1.40001
1.40001
1.40001
1.40001
1.40001
1.40001
1.40001
1.40001
1.40001
1.40001
1.40001
1.40001
1.40001
1.40001
1.40001
1.40001
1.40001
1.40001
1.40001
1.40001
1.40001
1.40001
1.40001
1.40001
1.40001
1.40001
1.40001
1.40001
1.40001
1.40001
1.40001
1.40001
1.40001
1.40001
1.40001
1.40001
1.40001
1.40001
1.40001
1.40001
1.40001
1.40001
1.40001
1.40001
1.40001
1.40001
1.40001
1.40001
1.40001
1.40001
1.40001
1.40001
1.40001
1.40001
1.40001
1.40001
1.40001
1.40001
1.40001
1.40001
1.40001
1.40001
1.40001
1.40001
1.40001
1.40001
1.40001
1.40001
1.40001
1.40001
1.40001
1.40001
1.40001
1.40001
1.40001
1.40001
1.40001
1.40001
1.40001
1.40001
1.67812
2.08
2.54227
2.99649
3.41366
3.8502
4.11896
4.40996
4.42596
4.30806
4.03224
3.70778
3.46292
3.36794
3.29927
3.30099
3.3287
3.36105
3.38706
3.39213
3.39452
3.40115
3.41141
3.4266
1.40262
1.41984
1.47019
1.59261
1.79521
2.11003
2.50891
2.98063
3.36414
3.55151
3.65538
3.59262
3.55797
3.50077
3.42614
3.38071
3.3759
3.37083
3.37425
3.38246
3.39191
3.39855
3.40508
3.41497
1.40001
1.40001
1.39998
1.40021
1.40317
1.42136
1.49844
1.70605
2.19737
2.88738
3.44346
3.69327
3.77108
3.72417
3.62549
3.46168
3.35677
3.34459
3.35134
3.36685
3.38231
3.39016
3.39168
3.398
1.40001
1.4
1.4
1.4
1.39999
1.40004
1.39999
1.40138
1.43234
1.62967
2.19641
2.8972
3.47408
3.57456
3.55451
3.52134
3.4376
3.35969
3.35246
3.35176
3.35371
3.35842
3.36206
3.36932
1.40001
1.40001
1.40001
1.4
1.4
1.4
1.4
1.4
1.39992
1.40109
1.436
1.6899
2.31084
3.00111
3.38709
3.55054
3.5236
3.44629
3.35337
3.32021
3.30474
3.30061
3.30992
3.32118
1.40001
1.40001
1.40001
1.40001
1.40001
1.4
1.4
1.4
1.39999
1.4
1.39992
1.40321
1.45603
1.82629
2.47848
3.2073
3.40316
3.39479
3.37422
3.33675
3.28699
3.27532
3.27871
3.28783
1.40001
1.40001
1.40001
1.40001
1.40001
1.40001
1.40001
1.40001
1.4
1.4
1.39999
1.39999
1.39998
1.41212
1.52449
2.02731
2.74172
3.28811
3.42361
3.40708
3.3445
3.31202
3.30146
3.29209
1.40001
1.40001
1.40001
1.40001
1.40001
1.40001
1.40001
1.40001
1.40001
1.40001
1.4
1.4
1.4
1.39997
1.40068
1.43513
1.68242
2.37083
2.98542
3.33551
3.36923
3.35796
3.33408
3.3112
1.40001
1.40001
1.40001
1.40001
1.40001
1.40001
1.40001
1.40001
1.40001
1.40001
1.40001
1.40001
1.4
1.4
1.4
1.40004
1.40597
1.51952
1.99806
2.81183
3.16313
3.2658
3.30961
3.31916
1.40001
1.40001
1.40001
1.40001
1.40001
1.40001
1.40001
1.40001
1.40001
1.40001
1.40001
1.40001
1.40001
1.4
1.4
1.4
1.39999
1.40154
1.44211
1.74491
2.44128
3.07972
3.34376
3.34478
1.40001
1.40001
1.40001
1.40001
1.40001
1.40001
1.40001
1.40001
1.40001
1.40001
1.40001
1.40001
1.40001
1.40001
1.40001
1.4
1.4
1.4
1.4002
1.41356
1.59852
2.18893
2.9061
3.22382
1.40001
1.40001
1.40001
1.40001
1.40001
1.40001
1.40001
1.40001
1.40001
1.40001
1.40001
1.40001
1.40001
1.40001
1.40001
1.40001
1.4
1.4
1.4
1.40002
1.40592
1.49369
1.99117
2.75787
1.40001
1.40001
1.40001
1.40001
1.40001
1.40001
1.40001
1.40001
1.40001
1.40001
1.40001
1.40001
1.40001
1.40001
1.40001
1.40001
1.40001
1.4
1.4
1.4
1.4
1.40175
1.463
1.82493
1.40001
1.40001
1.40001
1.40001
1.40001
1.40001
1.40001
1.40001
1.40001
1.40001
1.40001
1.40001
1.40001
1.40001
1.40001
1.40001
1.40001
1.40001
1.40001
1.4
1.4
1.4
1.40136
1.42366
1.40001
1.40001
1.40001
1.40001
1.40001
1.40001
1.40001
1.40001
1.40001
1.40001
1.40001
1.40001
1.40001
1.40001
1.40001
1.40001
1.40001
1.40001
1.40001
1.40001
1.4
1.4
1.40002
1.39999
1.40001
1.40001
1.40001
1.40001
1.40001
1.40001
1.40001
1.40001
1.40001
1.40001
1.40001
1.40001
1.40001
1.40001
1.40001
1.40001
1.40001
1.40001
1.40001
1.40001
1.40001
1.4
1.4
1.39999
1.40001
1.40001
1.40001
1.40001
1.40001
1.40001
1.40001
1.40001
1.40001
1.40001
1.40001
1.40001
1.40001
1.40001
1.40001
1.40001
1.40001
1.40001
1.40001
1.40001
1.40001
1.4
1.4
1.4
1.40001
1.40001
1.40001
1.40001
1.40001
1.40001
1.40001
1.40001
1.40001
1.40001
1.40001
1.40001
1.40001
1.40001
1.40001
1.40001
1.40001
1.40001
1.40001
1.40001
1.4
1.4
1.4
1.40012
1.40001
1.40001
1.40001
1.40001
1.40001
1.40001
1.40001
1.40001
1.40001
1.40001
1.40001
1.40001
1.40001
1.40001
1.40001
1.40001
1.40001
1.40001
1.40001
1.4
1.4
1.4
1.40112
1.42899
1.40001
1.40001
1.40001
1.40001
1.40001
1.40001
1.40001
1.40001
1.40001
1.40001
1.40001
1.40001
1.40001
1.40001
1.40001
1.40001
1.40001
1.4
1.4
1.4
1.40001
1.40171
1.46572
1.80775
1.40001
1.40001
1.40001
1.40001
1.40001
1.40001
1.40001
1.40001
1.40001
1.40001
1.40001
1.40001
1.40001
1.40001
1.40001
1.40001
1.4
1.4
1.4
1.40002
1.40598
1.49539
2.00548
2.70755
1.40001
1.40001
1.40001
1.40001
1.40001
1.40001
1.40001
1.40001
1.40001
1.40001
1.40001
1.40001
1.40001
1.40001
1.40001
1.4
1.4
1.4
1.40019
1.41367
1.59835
2.21123
2.87903
3.21245
1.40001
1.40001
1.40001
1.40001
1.40001
1.40001
1.40001
1.40001
1.40001
1.40001
1.40001
1.40001
1.40001
1.4
1.4
1.4
1.39999
1.40154
1.44225
1.7432
2.44111
3.09091
3.33574
3.33452
1.40001
1.40001
1.40001
1.40001
1.40001
1.40001
1.40001
1.40001
1.40001
1.40001
1.40001
1.40001
1.4
1.4
1.4
1.40004
1.40594
1.52001
1.99782
2.80923
3.16865
3.26869
3.30296
3.31506
1.40001
1.40001
1.40001
1.40001
1.40001
1.40001
1.40001
1.40001
1.40001
1.40001
1.4
1.4
1.4
1.39997
1.40068
1.43517
1.68211
2.37283
2.98253
3.3349
3.37186
3.35839
3.33045
3.31208
1.40001
1.40001
1.40001
1.40001
1.40001
1.40001
1.40001
1.40001
1.4
1.4
1.39999
1.39999
1.39998
1.41213
1.5245
2.02691
2.74216
3.28819
3.4232
3.40676
3.34543
3.31168
3.30109
3.29272
1.40001
1.40001
1.40001
1.40001
1.40001
1.4
1.4
1.4
1.39999
1.4
1.39992
1.40321
1.45602
1.82639
2.47838
3.20679
3.40384
3.39521
3.37405
3.33694
3.28727
3.27556
3.27886
3.28843
1.40001
1.40001
1.40001
1.4
1.4
1.4
1.4
1.4
1.39992
1.40109
1.436
1.68986
2.31085
3.0013
3.38683
3.55049
3.52363
3.44658
3.35306
3.32
3.30498
3.30049
3.30983
3.32123
1.40001
1.4
1.4
1.4
1.39999
1.40004
1.39999
1.40138
1.43234
1.62968
2.19641
2.89714
3.47416
3.57458
3.55446
3.52118
3.43774
3.3598
3.35226
3.35174
3.3538
3.35835
3.36187
3.36918
1.40001
1.40001
1.39998
1.40021
1.40317
1.42135
1.49844
1.70606
2.19733
2.88743
3.44353
3.69324
3.77103
3.72423
3.62555
3.46141
3.35704
3.34451
3.35124
3.36684
3.38237
3.39013
3.39162
3.39798
1.40262
1.41984
1.47018
1.59262
1.79523
2.10998
2.50895
2.98062
3.36407
3.55152
3.65548
3.59255
3.55781
3.50096
3.426
3.38072
3.37613
3.37079
3.37421
3.38242
3.39197
3.39858
3.40505
3.41495
1.67813
2.07998
2.5423
2.99652
3.41356
3.85027
4.11907
4.40987
4.42589
4.30805
4.03235
3.70766
3.46298
3.36802
3.29924
3.30102
3.3288
3.36104
3.38696
3.39207
3.39456
3.40119
3.41142
3.42662
2.67074
1.93171
1.39637
1.16382
1.04114
0.937729
0.920904
0.961255
1.05646
1.1271
1.18048
1.26059
1.29464
1.28679
1.27474
1.28367
1.31834
1.35307
1.35871
1.35726
1.34448
1.32056
1.318
1.37536
1.69186
2.55089
3.67606
4.83397
5.79609
5.97402
5.65251
5.13808
4.7729
4.62143
4.52482
4.42052
4.31831
4.21434
4.11031
3.99931
3.87182
3.73563
3.60712
3.50101
3.41513
3.34261
3.28206
3.22885
3.1716
3.10339
3.02551
2.93777
2.83253
2.73025
2.66607
2.62396
2.59104
2.56269
2.53643
2.50359
2.46149
2.4056
2.33702
2.26472
2.19919
2.13984
2.0858
2.04613
2.02572
2.01205
2.00993
2.04578
2.18326
2.48547
2.89818
3.28264
3.58473
3.83464
3.94509
3.92645
3.88262
3.81616
3.7346
3.6557
3.57831
3.46577
3.36655
3.33223
3.30713
3.28453
3.2618
3.24063
3.21845
3.18972
3.1579
3.07684
3.14842
2.75033
2.3016
1.93497
1.76653
1.59835
1.40221
1.34359
1.32004
1.26976
1.2211
1.23179
1.23717
1.22613
1.22511
1.24477
1.28363
1.31806
1.32687
1.32835
1.32076
1.31965
1.38681
1.79509
2.43489
2.75255
3.07852
3.48453
4.19403
4.82089
5.1711
5.10091
4.9052
4.70154
4.55428
4.43353
4.33237
4.23862
4.14298
4.03446
3.90497
3.76451
3.64025
3.54391
3.465
3.38874
3.31957
3.26294
3.20398
3.13393
3.05209
2.96035
2.85876
2.7676
2.70853
2.66417
2.62806
2.59593
2.56502
2.52959
2.48572
2.43045
2.36572
2.29919
2.23537
2.17775
2.12757
2.08371
2.05475
2.06072
2.11051
2.26066
2.50497
2.72555
2.85764
3.03606
3.25705
3.4009
3.5517
3.67953
3.77696
3.78508
3.744
3.67077
3.58351
3.4835
3.38486
3.34284
3.31493
3.28859
3.27113
3.25598
3.23554
3.20544
3.17159
3.09093
3.33553
3.1294
2.82536
2.44385
2.12309
1.9272
1.71746
1.53057
1.44648
1.36361
1.27088
1.25673
1.25916
1.24327
1.23493
1.24144
1.26138
1.28646
1.30294
1.31093
1.32947
1.43706
1.92719
2.56691
2.90452
2.92203
2.92356
2.93705
3.08146
3.66694
4.51125
4.95508
4.96975
4.81256
4.53817
4.36121
4.26173
4.1734
4.07585
3.9703
3.85188
3.73846
3.63435
3.53693
3.43878
3.34417
3.2501
3.17452
3.12379
3.06889
3.00111
2.92228
2.84692
2.78056
2.70724
2.63367
2.58062
2.54294
2.50824
2.47106
2.42826
2.37637
2.31456
2.2566
2.20676
2.15936
2.12911
2.10625
2.1094
2.18065
2.38112
2.64138
2.81072
2.84615
2.85672
2.86819
2.91624
3.03226
3.24083
3.48511
3.63667
3.71582
3.71488
3.67622
3.58753
3.50101
3.41445
3.35825
3.3165
3.27853
3.24588
3.22401
3.20601
3.17581
3.1371
3.0585
3.36379
3.29331
3.12131
2.85166
2.50256
2.27171
2.09036
1.83177
1.67989
1.60634
1.46835
1.37634
1.36525
1.34223
1.29652
1.26603
1.26695
1.26338
1.26426
1.2766
1.4199
1.93754
2.67949
2.87151
2.90228
2.89057
2.84349
2.76837
2.72322
2.78961
3.17292
3.95948
4.58162
4.60343
4.53723
4.3985
4.26757
4.14293
4.02539
3.94205
3.84975
3.74974
3.65007
3.54143
3.43598
3.33973
3.24311
3.14883
3.08435
3.03277
2.98249
2.93315
2.87816
2.8123
2.72303
2.63643
2.57099
2.52778
2.49086
2.44814
2.4009
2.34848
2.29222
2.23948
2.1974
2.16911
2.1622
2.19755
2.32749
2.58296
2.81231
2.93789
2.94876
2.92613
2.87976
2.83868
2.8289
2.83519
2.90356
3.05671
3.26054
3.4509
3.53792
3.56249
3.5564
3.52135
3.46476
3.3993
3.33755
3.29478
3.25802
3.227
3.20076
3.16667
3.12163
3.03806
3.34099
3.33335
3.25954
3.0981
2.84514
2.56249
2.37258
2.1754
1.95103
1.79188
1.6565
1.52447
1.46494
1.43362
1.3841
1.30036
1.277
1.26696
1.2774
1.44968
1.9991
2.68832
2.91018
2.87833
2.81536
2.76268
2.70703
2.64985
2.61188
2.55855
2.56831
2.7584
3.36369
4.06243
4.37681
4.38748
4.29245
4.12046
3.96304
3.85371
3.7613
3.66936
3.5898
3.52568
3.45198
3.36381
3.26218
3.1496
3.05653
2.98696
2.92556
2.87356
2.8262
2.77597
2.72368
2.65851
2.58202
2.5146
2.47523
2.43741
2.38031
2.31199
2.26935
2.23409
2.21432
2.23463
2.33386
2.53353
2.78839
3.00487
3.05153
3.02337
2.96541
2.912
2.87345
2.84535
2.81483
2.80133
2.7796
2.78359
2.84281
3.00652
3.22814
3.37536
3.48717
3.52554
3.50277
3.43806
3.37193
3.30948
3.24908
3.20068
3.16928
3.1349
3.09
3.01848
3.30828
3.31305
3.30022
3.21707
3.05992
2.85433
2.60039
2.38931
2.22631
2.07288
1.91042
1.71484
1.60811
1.58503
1.55589
1.46499
1.38206
1.39984
1.6121
2.20209
2.80562
2.96719
2.92781
2.83034
2.73881
2.67724
2.62051
2.56754
2.52389
2.46694
2.41476
2.38328
2.45612
2.8663
3.53879
4.07536
4.16349
4.09636
3.96867
3.84187
3.72975
3.62354
3.53773
3.47586
3.41591
3.35813
3.27707
3.1564
3.02963
2.94926
2.89711
2.85244
2.81219
2.7688
2.71162
2.64765
2.57601
2.51103
2.46081
2.40342
2.34281
2.29355
2.26687
2.2613
2.28703
2.44093
2.73785
2.99322
3.15234
3.16277
3.12318
3.02227
2.95095
2.90785
2.88282
2.87314
2.85151
2.82401
2.78576
2.72226
2.65166
2.67143
2.80301
3.02467
3.24888
3.42003
3.45692
3.45403
3.42206
3.35317
3.2716
3.19843
3.14971
3.11007
3.06688
3.00602
3.29646
3.30277
3.29669
3.27396
3.18841
3.03251
2.84818
2.64103
2.38431
2.25713
2.1562
2.01932
1.82615
1.66675
1.6462
1.60317
1.62347
1.88643
2.53405
3.06549
3.15282
3.07465
2.93491
2.81992
2.73427
2.66567
2.59557
2.5335
2.47349
2.41452
2.35381
2.32414
2.28175
2.29463
2.47985
3.01497
3.67356
3.95022
3.92063
3.84776
3.70883
3.58101
3.47781
3.42189
3.38032
3.33551
3.27533
3.17392
3.04463
2.9399
2.87683
2.82523
2.77839
2.74377
2.70972
2.66507
2.60696
2.53454
2.44332
2.36763
2.32924
2.29899
2.30095
2.38773
2.61217
2.94057
3.1842
3.24415
3.24046
3.19298
3.0854
2.9906
2.95437
2.93287
2.90913
2.87989
2.84834
2.81725
2.77881
2.71371
2.62619
2.58348
2.59428
2.68484
2.88989
3.15691
3.35791
3.42474
3.42224
3.38334
3.28589
3.18889
3.13023
3.09465
3.06223
3.01153
3.2997
3.30137
3.29996
3.29161
3.25956
3.16856
3.00908
2.84454
2.65956
2.43454
2.26499
2.20368
2.07545
1.90805
1.79761
1.87481
2.27335
2.98803
3.44571
3.43436
3.31877
3.15514
3.00594
2.88728
2.7852
2.69705
2.61002
2.53232
2.4582
2.39782
2.33321
2.29993
2.25713
2.21065
2.16206
2.22632
2.5726
3.14698
3.62196
3.73285
3.67789
3.57169
3.47732
3.40549
3.34599
3.28469
3.21867
3.14413
3.04933
2.93697
2.85712
2.80636
2.75987
2.7129
2.6628
2.61237
2.55876
2.49583
2.41657
2.36968
2.3505
2.38549
2.54283
2.84332
3.13514
3.34104
3.37386
3.35729
3.28663
3.17437
3.05902
2.9881
2.96433
2.95033
2.92541
2.89326
2.85953
2.8252
2.78373
2.71942
2.63309
2.57494
2.56739
2.56753
2.61701
2.78302
3.03305
3.24522
3.32556
3.32131
3.26456
3.1732
3.11993
3.09264
3.07074
3.02629
3.30171
3.29563
3.29464
3.29091
3.28271
3.24011
3.14381
2.98446
2.84591
2.66405
2.48597
2.31836
2.20461
2.1399
2.29623
2.85071
3.52953
3.80378
3.74753
3.58385
3.40472
3.25437
3.13019
3.0172
2.90313
2.78817
2.67409
2.56723
2.47679
2.40445
2.34596
2.30193
2.25686
2.19212
2.13607
2.07546
2.0807
2.22673
2.66261
3.24188
3.52019
3.54362
3.51009
3.40991
3.32264
3.24573
3.17629
3.10861
3.03199
2.93424
2.84178
2.7821
2.73355
2.68477
2.63947
2.59178
2.53944
2.48258
2.42003
2.41214
2.49814
2.76249
3.08663
3.32622
3.41691
3.42614
3.40199
3.34789
3.26861
3.16045
3.06737
3.01802
2.99428
2.97199
2.94341
2.91152
2.8751
2.831
2.77912
2.71555
2.64735
2.60228
2.57452
2.55268
2.55004
2.5712
2.67979
2.86731
3.07121
3.21172
3.22679
3.17348
3.11347
3.09107
3.08555
3.04855
3.32827
3.309
3.29572
3.28576
3.2798
3.26803
3.21988
3.1224
2.98698
2.81729
2.66699
2.47156
2.4935
2.79776
3.51057
4.13992
4.24499
4.13494
3.93058
3.72555
3.54483
3.39108
3.25716
3.13463
3.01546
2.89585
2.77557
2.65113
2.53842
2.43833
2.35705
2.29367
2.24456
2.18769
2.13583
2.07119
2.02819
1.97855
2.01616
2.2894
2.82138
3.27057
3.38838
3.37964
3.31658
3.2335
3.16135
3.09564
3.01944
2.92428
2.82592
2.75922
2.71075
2.66125
2.62029
2.57344
2.54427
2.4959
2.51552
2.67645
3.01533
3.32153
3.49589
3.55622
3.53906
3.47749
3.39751
3.33015
3.25894
3.15937
3.08352
3.05105
3.02201
2.99241
2.96317
2.9316
2.89364
2.84288
2.77574
2.70835
2.66139
2.6349
2.60684
2.57735
2.54585
2.53065
2.5342
2.57343
2.68704
2.87322
3.05676
3.10111
3.09665
3.09725
3.10869
3.08147
3.36201
3.36227
3.34314
3.31715
3.30105
3.29358
3.27157
3.21973
3.1077
2.98498
2.82229
2.9216
3.51149
4.33399
4.69665
4.64661
4.46666
4.25939
4.05642
3.86318
3.68542
3.52312
3.37582
3.23979
3.11234
2.98946
2.86773
2.74254
2.62474
2.51502
2.41872
2.33616
2.2621
2.18628
2.12013
2.06713
2.0116
1.9617
1.9072
1.90145
2.03742
2.45677
2.94779
3.22406
3.2663
3.23972
3.16264
3.08439
2.99857
2.90776
2.81132
2.73387
2.68932
2.64851
2.61574
2.58649
2.59056
2.67909
2.96028
3.31525
3.56024
3.58679
3.58909
3.57973
3.54249
3.49105
3.4195
3.34409
3.266
3.1635
3.09733
3.07069
3.04093
3.0114
2.98395
2.95439
2.91721
2.86122
2.77819
2.70573
2.67692
2.65796
2.63668
2.61042
2.57289
2.53522
2.50466
2.47212
2.48267
2.55406
2.72058
2.91654
3.03424
3.08342
3.12963
3.11247
3.26748
3.30749
3.30063
3.30329
3.31171
3.3116
3.3052
3.28473
3.19987
3.20736
3.54242
4.35653
5.14171
5.35209
5.23915
4.94251
4.64606
4.39779
4.18634
3.99164
3.80548
3.6305
3.47396
3.33321
3.20296
3.07626
2.94787
2.81669
2.68864
2.56745
2.46078
2.37696
2.30138
2.22819
2.15624
2.08598
2.01096
1.94419
1.88424
1.85211
1.83726
1.88623
2.13761
2.59627
2.97207
3.12084
3.1205
3.06612
2.98259
2.902
2.81239
2.72264
2.66635
2.65297
2.63862
2.69859
2.92803
3.30037
3.63649
3.82027
3.81291
3.74736
3.64307
3.56786
3.52578
3.48935
3.44053
3.37493
3.29032
3.18628
3.11218
3.08135
3.05314
3.02518
2.99905
2.97173
2.93608
2.87675
2.79223
2.7323
2.70146
2.67528
2.65154
2.6271
2.59749
2.55474
2.50178
2.45219
2.42796
2.43209
2.48049
2.6173
2.82411
2.9792
3.06462
3.07225
2.63716
3.04146
3.29993
3.37565
3.37201
3.34835
3.30624
3.30702
3.4672
4.24221
5.34778
5.75843
5.75133
5.63492
5.42342
5.15377
4.85823
4.57345
4.32033
4.09934
3.90022
3.71412
3.54582
3.40071
3.27107
3.14313
3.00918
2.8713
2.73164
2.60084
2.4896
2.3956
2.31541
2.25572
2.19651
2.12572
2.05006
1.96998
1.89475
1.83901
1.80421
1.76531
1.77472
1.89442
2.24258
2.66394
2.94819
3.00064
2.98201
2.92012
2.81522
2.73474
2.68158
2.70345
2.84723
3.20923
3.60974
3.88146
3.90365
3.88737
3.83841
3.7693
3.68648
3.59977
3.53189
3.48726
3.44568
3.39115
3.31421
3.21631
3.13294
3.08987
3.06039
3.03386
3.01049
2.98681
2.9524
2.89323
2.81723
2.7602
2.72544
2.69705
2.66975
2.64193
2.61061
2.56797
2.50395
2.44157
2.40689
2.39849
2.39975
2.42873
2.53593
2.71071
2.88815
3.00011
1.74679
2.34382
3.02868
3.31709
3.29512
3.3221
3.41558
3.85814
4.87837
5.9764
6.42736
6.39323
6.08631
5.74121
5.50569
5.2794
5.02427
4.74526
4.47082
4.22126
4.002
3.8048
3.61421
3.43606
3.28379
3.1604
3.05137
2.93591
2.79936
2.65199
2.52852
2.44099
2.3608
2.2747
2.18647
2.11315
2.05964
2.00713
1.94155
1.86887
1.79512
1.7195
1.67632
1.66237
1.71417
1.95605
2.37966
2.73177
2.8709
2.85968
2.81012
2.81035
2.91215
3.1706
3.56175
3.91749
4.10757
4.11164
4.03328
3.91172
3.81074
3.75533
3.70166
3.63461
3.56023
3.49547
3.44073
3.38445
3.3237
3.25357
3.1748
3.11129
3.06777
3.03358
3.0078
2.97888
2.93959
2.8952
2.85099
2.79223
2.73762
2.7145
2.69636
2.6698
2.63414
2.58485
2.51746
2.4538
2.41569
2.3954
2.38263
2.37005
2.38063
2.44583
2.56637
2.78021
1.42712
1.60116
2.19982
2.87164
3.13841
3.82857
4.49197
5.60046
6.35699
6.50426
6.48452
6.43277
6.24337
5.93733
5.6409
5.36566
5.10423
4.84787
4.58421
4.3312
4.10566
3.90238
3.69749
3.49687
3.33142
3.18825
3.05509
2.92424
2.80608
2.70221
2.59812
2.49663
2.39328
2.29244
2.21423
2.14334
2.06756
1.98701
1.90994
1.84452
1.78127
1.71059
1.66098
1.63792
1.62536
1.64087
1.7763
2.11503
2.49973
2.72775
2.90914
3.24472
3.64366
3.94116
4.15279
4.1768
4.15777
4.11188
4.03711
3.94737
3.84889
3.77706
3.71364
3.65556
3.59666
3.53356
3.46634
3.39898
3.33807
3.27749
3.207
3.14143
3.09545
3.05813
3.02667
2.99582
2.95931
2.92177
2.87739
2.82306
2.7729
2.72862
2.68237
2.6412
2.60516
2.56429
2.51901
2.48697
2.46074
2.42382
2.39178
2.35849
2.34711
2.34029
2.36111
2.50984
1.40055
1.40907
1.57185
2.11632
3.27441
4.80455
5.75294
6.51986
7.06028
6.83271
6.51936
6.41356
6.30176
6.10922
5.79337
5.44379
5.12809
4.87142
4.62379
4.38376
4.14491
3.90784
3.73566
3.60198
3.44435
3.2756
3.11993
2.98154
2.84991
2.72662
2.59294
2.46541
2.40552
2.36131
2.29808
2.20761
2.09819
2.00396
1.92829
1.85983
1.77949
1.73484
1.70496
1.67185
1.62949
1.58833
1.58547
1.66194
1.92845
2.59207
3.26692
3.84089
4.23009
4.44458
4.43837
4.35754
4.20575
4.05583
3.98811
3.94545
3.87907
3.79261
3.7139
3.65512
3.58128
3.49723
3.43077
3.37276
3.31552
3.26183
3.21662
3.17189
3.11598
3.04652
2.9886
2.95558
2.92764
2.89612
2.85985
2.82353
2.78648
2.74042
2.68596
2.63277
2.59235
2.56875
2.54958
2.51484
2.45878
2.40514
2.3787
2.36237
2.33712
2.31089
2.30794
2.35985
1.40031
1.41681
1.54512
2.18976
3.45582
4.48382
5.90027
6.52796
7.02651
6.94036
6.68032
6.49003
6.3227
6.03935
5.69676
5.3569
5.05413
4.82368
4.65623
4.46635
4.23112
3.98499
3.75617
3.5464
3.37202
3.20904
3.05681
2.97038
2.90027
2.78903
2.64842
2.50995
2.39453
2.29837
2.21963
2.14029
2.04763
1.99322
1.96432
1.9115
1.83039
1.74527
1.67637
1.62764
1.59596
1.56935
1.57475
1.64313
1.95626
2.53246
3.2974
3.88552
4.18925
4.43997
4.44955
4.31575
4.12878
4.01198
3.96849
3.93718
3.89316
3.82879
3.75535
3.68516
3.59384
3.48985
3.41254
3.36669
3.33142
3.29515
3.25946
3.21087
3.13696
3.05807
2.99072
2.9449
2.9204
2.90114
2.8781
2.84781
2.80477
2.74646
2.6894
2.64111
2.59799
2.55719
2.52392
2.48947
2.44804
2.40961
2.38103
2.34769
2.32118
2.307
2.30579
2.3632
1.42008
1.63458
2.21899
2.95273
3.25526
3.54492
4.56491
5.54791
6.31857
6.64765
6.62887
6.52661
6.27891
5.90716
5.57802
5.30016
5.05657
4.81403
4.56012
4.31242
4.08548
3.88974
3.70611
3.52697
3.36068
3.21624
3.0895
2.95408
2.8079
2.68229
2.573
2.47387
2.37675
2.28742
2.19501
2.11044
2.05366
1.99333
1.91196
1.84896
1.79824
1.74008
1.67697
1.63579
1.60906
1.62453
1.75448
2.06307
2.4968
2.6587
2.92905
3.30505
3.6076
3.98474
4.15244
4.15266
4.13801
4.08174
4.018
3.94876
3.86865
3.80871
3.7455
3.66533
3.57574
3.4934
3.4243
3.36401
3.30967
3.26127
3.2173
3.17355
3.12881
3.07381
3.01552
2.96475
2.91846
2.87552
2.84251
2.81211
2.78287
2.75369
2.71437
2.66986
2.62277
2.57246
2.51734
2.46902
2.43624
2.4104
2.38261
2.3495
2.33146
2.33026
2.35493
2.51489
1.70593
2.42416
2.98062
3.30563
3.31897
3.31743
3.4355
3.89723
4.88509
5.98265
6.51691
6.45398
6.07655
5.69561
5.43789
5.21986
4.98907
4.72611
4.45983
4.22754
4.03108
3.84487
3.65618
3.47611
3.30968
3.16035
3.02747
2.89319
2.75485
2.63522
2.5467
2.47054
2.39379
2.30789
2.2144
2.11966
2.0372
1.97396
1.90464
1.82971
1.79171
1.76194
1.72101
1.69991
1.75097
1.99198
2.36959
2.68135
2.85628
2.84545
2.8387
2.85063
2.93894
3.20084
3.60051
3.94036
4.09366
4.09342
4.03404
3.92945
3.83337
3.79047
3.73894
3.64791
3.54404
3.46739
3.41419
3.37014
3.3267
3.27346
3.21011
3.14644
3.08784
3.03815
2.99719
2.95773
2.91615
2.87765
2.83878
2.79957
2.7624
2.72629
2.68961
2.64528
2.59528
2.54582
2.49674
2.45738
2.42996
2.41057
2.39286
2.37974
2.38836
2.42992
2.5318
2.74823
2.60489
3.14723
3.26661
3.34984
3.35814
3.33328
3.2965
3.30198
3.45858
4.18744
5.33459
5.78957
5.70788
5.5746
5.34438
5.10828
4.85554
4.59786
4.36
4.14626
3.94928
3.76114
3.57982
3.40835
3.25031
3.10341
2.96359
2.83124
2.71554
2.6192
2.52305
2.42203
2.32844
2.25539
2.19521
2.12277
2.02862
1.94437
1.89559
1.84166
1.7959
1.761
1.77253
1.89769
2.26803
2.69729
2.91392
2.98053
2.96744
2.90537
2.82645
2.7774
2.72175
2.73382
2.86894
3.22276
3.58195
3.82329
3.89804
3.88669
3.84637
3.79059
3.71405
3.60557
3.51174
3.4542
3.41685
3.37733
3.32491
3.25992
3.18693
3.11621
3.06204
3.02878
3.00017
2.96804
2.92613
2.87312
2.8211
2.77976
2.74616
2.71749
2.68888
2.64786
2.57902
2.50333
2.46951
2.45539
2.43652
2.42405
2.42933
2.4613
2.54007
2.67979
2.81697
2.92048
3.29159
3.33909
3.30723
3.28164
3.28618
3.29507
3.29761
3.27505
3.19288
3.20002
3.53504
4.36524
5.10382
5.33118
5.22865
4.9483
4.67139
4.43433
4.22833
4.03259
3.842
3.65857
3.48409
3.32033
3.16669
3.0229
2.89355
2.77603
2.66458
2.56896
2.49051
2.41546
2.33345
2.25192
2.1641
2.07515
1.99905
1.93903
1.87904
1.84809
1.82246
1.86375
2.13075
2.58688
3.00656
3.11022
3.08507
3.03186
2.96391
2.90304
2.83414
2.7671
2.70139
2.66582
2.62987
2.67344
2.87914
3.23248
3.60089
3.82564
3.82988
3.77861
3.67515
3.56993
3.49475
3.44453
3.40191
3.35466
3.29748
3.2329
3.1684
3.10947
3.05935
3.01649
2.97761
2.94049
2.89945
2.84951
2.80304
2.76887
2.74068
2.71344
2.68105
2.63023
2.55236
2.47611
2.4478
2.43389
2.43812
2.45504
2.52597
2.67288
2.85376
2.98247
3.01514
2.99661
3.37727
3.37885
3.35431
3.31251
3.28841
3.28669
3.27353
3.22778
3.11521
2.98565
2.82332
2.92789
3.51469
4.3149
4.70093
4.67474
4.4985
4.28854
4.08935
3.89667
3.70883
3.52792
3.35959
3.20556
3.06362
2.93239
2.81829
2.72099
2.63151
2.54401
2.45931
2.3699
2.278
2.18923
2.12836
2.07672
2.00725
1.94324
1.88734
1.89084
2.03406
2.46149
2.94425
3.2316
3.26613
3.23673
3.16923
3.08637
3.00272
2.93414
2.86491
2.79197
2.72369
2.65859
2.60954
2.55801
2.54595
2.63372
2.91486
3.34374
3.58798
3.64605
3.63736
3.59379
3.51818
3.45175
3.38611
3.32155
3.26394
3.21076
3.15775
3.10474
3.05239
3.0035
2.96069
2.91912
2.87222
2.82237
2.78083
2.75203
2.72703
2.69964
2.66415
2.60797
2.52042
2.45747
2.44981
2.45251
2.4807
2.59967
2.81778
3.02368
3.1393
3.14481
3.10521
3.00061
3.326
3.32062
3.30895
3.28704
3.27503
3.2613
3.2173
3.12229
2.98811
2.81732
2.66754
2.47519
2.49882
2.80615
3.53156
4.17216
4.24894
4.14034
3.93839
3.72932
3.53725
3.36951
3.22579
3.09878
2.98142
2.87123
2.76853
2.6695
2.57084
2.47916
2.40238
2.32654
2.25888
2.19028
2.12458
2.05572
2.00133
1.95266
2.00454
2.29605
2.85318
3.33582
3.43261
3.40086
3.30474
3.20765
3.13502
3.07176
3.00838
2.94308
2.87319
2.80438
2.74066
2.67743
2.61737
2.55566
2.50061
2.4579
2.4917
2.69755
3.05028
3.36967
3.57159
3.58033
3.52093
3.42366
3.3465
3.28508
3.2404
3.20041
3.15432
3.10482
3.05501
3.00258
2.94457
2.88833
2.83962
2.7968
2.76174
2.73489
2.70877
2.67867
2.64086
2.58724
2.50855
2.47155
2.47434
2.52246
2.66889
2.92047
3.15147