/*--------------------------------*- C++ -*----------------------------------*\
  =========                 |
  \\      /  F ield         | OpenFOAM: The Open Source CFD Toolbox
   \\    /   O peration     | Website:  https://openfoam.org
    \\  /    A nd           | Version:  7
     \\/     M anipulation  |
\*---------------------------------------------------------------------------*/
FoamFile
{
    version     2.0;
    format      ascii;
    class       volScalarField;
    location    "3.4";
    object      T;
}
// * * * * * * * * * * * * * * * * * * * * * * * * * * * * * * * * * * * * * //

dimensions      [0 0 0 1 0 0 0];

internalField   nonuniform List<scalar> 
4608
(
1
1
1
1
1
1
1
1
1
1
1
1
1
1
1
1
1
1
1
1
1
1
1
1
1
1
1
1
1
1
1
1
1
1
1
1
1
1
1
1
1
1
1
1
1
1
1
1
1
1
1
1
1
1
1
1
1
1
1
1
1
1
1
1
1
1
1
1
1
1
1
1
1
1
1
1
1
1
1
1
1
1
1
1
1
1
1
1
1
1
1
1
1
1
1
1
1
1
1
1
1
1
1
1
1
1
1
1
1
1
1
1
1
1
1
1
1
1
1
1
1
1
1
1
1
1
1
1
1
1
1
1
1
1
1
1
1
1
1
1
1
1
1
1
1
1
1
1
1
1
1
1
1
1
1
1
1
1
1
1
1
1
1
1
1
1
1
1
1
1
1
1
1
1
1
1
1
1
1
1
1
1
1
1
1
1
1
1
1
1
1
1
1
1
1
1
1
1
1
1
1
1
1
1
1
1
1
1
1
1
1
1
1
1
1
1
1
1
1
1
1
1
1
1
1
1
1
1
1
1
1
1
1
1
1
1
1
1
1
1
1
1
1
1
1
1
1
1
1
1
1
1
1
1
1
1
1
1
1
1
1
1
1
1
1
1
1
1
1
1
1
1
1
1
1
1
1
1
1
1
1
1
1
1
1
1
1
1
1
1
1
1
1
1
1
1
1
1
1
1
1
1
1
1
1
1
1
1
1
1
1
1
1
1
1
1
1
1
1
1
1
1
1
1
1
1
1
1
1
1
1
1
1
1
1
1
1
1
1
1
1
1
1
1
1
1
1
1
1
1
1
1
1
1
1
1
1
1
1
1
1
1
1
1
1
1
1
1
1
1
1
1
1
1
1
1
1
1
1
1
1
1
1
1
1
1
1
1
1
1
1
1
1
1
1
1
1
1
1
1
1
1
1
1
1
1
1
1
1
1
1
1
1
1
1
1
1
1
1
1
1
1
1
1
1
1
1
1
1
1
1
1
1
1
1
1
1
1
1
1
1
1
1
1
1
1
1
1
1
1
1
1
1
1
1
1
1
1
1
1
1
1
1
1
1
1
1
1
1
1
1
1
1
1
1
1
1
1
1
1
1
1
1
1
1
1
1
1
1
1
1
1
1
1
1
1
1
1
1
1
1
1
1
1
1
1
1
1
1
1
1
1
1
1
1
1
1
1
1
1
1
1
1
1
1
1
1
1
1
1
1
1
1
1
1
1
1
1
1
1
1
1
1
1
1
1
1
1
1
1
1
1
1
1
1
1
1
1
1
1
1
1
1
1
1
1
1
1
1
1
1
1
1
1
1
1
1
1
1
1
1
1
1
1
1
1
1
1
1
1
1
1
1
1
1
1
1
1
1
1
1
1
1
1
1
1
1
1
1
1
1
1
1
1
1
1
1
1
1
1
1
1
1
1
1
1
1
1
1
1
1
1
1
1
1
1
1
1
1
1
1
1
1
1
1
1
1
1
1
1
1
1
1
1
1
1
1
1
1
1
1
1
1
1
1
1
1
1
1
1
1
1
1
1
1
1
1
1
1
1
1
1
1
1
1
1
1
1
1
1
1
1
1
1
1
1
1
1
1
1
1
1
1
1
1
1
1
1
1
1
1
1
1
1
1
1
1
1
1
1
1
1
1
1
1
1
1
1
1
1
1
1
1
1
1
1
1
1
1
1
1
1
1
1
1
1
1
1
1
1
1
1
1
1
1
1
1
1
1
1
1
1
1
1
1
1
1
1
1.07865
1.18011
1.28894
1.39218
1.48524
1.57625
1.63521
1.68017
1.69858
1.68342
1.6384
1.58503
1.54132
1.52367
1.51282
1.51375
1.51941
1.52563
1.53067
1.53198
1.53245
1.53348
1.53522
1.53912
1.00087
1.00719
1.02683
1.07414
1.14391
1.23159
1.32211
1.408
1.47945
1.52131
1.55012
1.56018
1.56032
1.55441
1.54195
1.53438
1.53397
1.5332
1.53346
1.53444
1.5358
1.53666
1.53772
1.54023
1
1
0.99999
1.00008
1.0012
1.00808
1.03795
1.11529
1.27133
1.45157
1.57017
1.62026
1.61994
1.61057
1.59361
1.56438
1.54602
1.54353
1.54288
1.54391
1.54492
1.54557
1.54578
1.54753
1
1
0.999999
0.999999
0.999995
1.00001
0.99999
1.00056
1.01365
1.1065
1.31225
1.4866
1.6117
1.61156
1.60659
1.60014
1.58423
1.57071
1.5657
1.56146
1.55758
1.55766
1.55795
1.55979
1
1
1
1
1
1
0.999999
0.999998
0.999963
1.00043
1.01599
1.12976
1.34869
1.52525
1.60917
1.63115
1.62355
1.60726
1.5866
1.57495
1.56898
1.56667
1.56808
1.57109
1
1
1
1
1
1
1
1
0.999996
0.999997
0.999959
1.00122
1.02465
1.18439
1.39821
1.57271
1.6057
1.60238
1.59723
1.58838
1.57924
1.57706
1.57689
1.57855
1
1
1
1
1
1
1
1
1
1
0.999996
0.999997
0.999975
1.0047
1.05424
1.24914
1.45433
1.58399
1.61013
1.607
1.59537
1.58946
1.58692
1.58478
1
1
1
1
1
1
1
1
1
1
1
1
0.999998
0.999985
1.00022
1.01373
1.11912
1.34772
1.50747
1.58726
1.59658
1.59515
1.59148
1.58798
1
1
1
1
1
1
1
1
1
1
1
1
1
0.999999
0.999997
1
1.00219
1.048
1.23107
1.45741
1.54189
1.56739
1.5818
1.58403
1
1
1
1
1
1
1
1
1
1
1
1
1
1
1
1
0.999994
1.00049
1.01625
1.13526
1.35503
1.51348
1.57612
1.58137
1
1
1
1
1
1
1
1
1
1
1
1
1
1
1
1
0.999999
0.999997
1.00005
1.00485
1.07856
1.2743
1.46783
1.54137
1
1
1
1
1
1
1
1
1
1
1
1
1
1
1
1
1
0.999999
0.999999
1
1.00201
1.0352
1.2165
1.42257
1
1
1
1
1
1
1
1
1
1
1
1
1
1
1
1
1
1
1
1
0.999998
1.00056
1.02321
1.15243
1
1
1
1
1
1
1
1
1
1
1
1
1
1
1
1
1
1
1
1
1
0.999999
1.0004
1.00827
1
1
1
1
1
1
1
1
1
1
1
1
1
1
1
1
1
1
1
1
1
1
1
0.999988
1
1
1
1
1
1
1
1
1
1
1
1
1
1
1
1
1
1
1
1
1
1
1
0.999994
1
1
1
1
1
1
1
1
1
1
1
1
1
1
1
1
1
1
1
1
1
1
1
0.999999
1
1
1
1
1
1
1
1
1
1
1
1
1
1
1
1
1
1
1
1
1
1
0.999999
1.00002
1
1
1
1
1
1
1
1
1
1
1
1
1
1
1
1
1
1
1
1
1
0.999999
1.00034
1.00983
1
1
1
1
1
1
1
1
1
1
1
1
1
1
1
1
1
1
1
1
0.999999
1.00055
1.02424
1.14611
1
1
1
1
1
1
1
1
1
1
1
1
1
1
1
1
1
0.999999
0.999999
1
1.00204
1.03604
1.22016
1.40769
1
1
1
1
1
1
1
1
1
1
1
1
1
1
1
1
0.999999
0.999997
1.00005
1.00487
1.07883
1.28042
1.4587
1.53807
1
1
1
1
1
1
1
1
1
1
1
1
1
1
1
1
0.999994
1.00049
1.01629
1.13458
1.35566
1.51696
1.57121
1.58092
1
1
1
1
1
1
1
1
1
1
1
1
1
0.999999
0.999997
1
1.00218
1.04819
1.23073
1.45699
1.54379
1.56799
1.58047
1.5836
1
1
1
1
1
1
1
1
1
1
1
1
0.999998
0.999985
1.00022
1.01374
1.11905
1.34816
1.50656
1.5873
1.59718
1.59526
1.59089
1.58805
1
1
1
1
1
1
1
1
1
1
0.999996
0.999997
0.999975
1.0047
1.05424
1.24901
1.45457
1.58385
1.61006
1.607
1.59562
1.58943
1.58685
1.58498
1
1
1
1
1
1
1
1
0.999996
0.999997
0.999959
1.00122
1.02465
1.18443
1.39816
1.57266
1.60584
1.60246
1.59722
1.58845
1.5793
1.57716
1.57693
1.57867
1
1
1
1
1
1
0.999999
0.999998
0.999963
1.00043
1.01599
1.12974
1.3487
1.5253
1.6091
1.63115
1.62357
1.60733
1.58656
1.57488
1.569
1.56666
1.56808
1.57109
1
1
0.999999
0.999999
0.999995
1.00001
0.999989
1.00056
1.01365
1.1065
1.31225
1.48659
1.61171
1.61157
1.60658
1.6001
1.58426
1.57076
1.56567
1.5614
1.55757
1.55764
1.55792
1.55976
1
1
0.99999
1.00008
1.0012
1.00807
1.03795
1.1153
1.27132
1.45157
1.57017
1.62026
1.61993
1.61057
1.59362
1.56434
1.54604
1.54355
1.54287
1.54389
1.54491
1.54556
1.54576
1.54753
1.00087
1.00719
1.02683
1.07414
1.14392
1.23158
1.32212
1.408
1.47944
1.5213
1.55014
1.56016
1.56031
1.55444
1.54193
1.53438
1.534
1.5332
1.53346
1.53444
1.53582
1.53666
1.53772
1.54022
1.07866
1.18011
1.28895
1.39219
1.48521
1.57626
1.63523
1.68016
1.69857
1.68342
1.63841
1.58502
1.54134
1.52368
1.51281
1.51375
1.51942
1.52562
1.53066
1.53197
1.53247
1.53349
1.53522
1.53913
1.39833
1.23534
1.08976
1.02227
1.01253
0.994108
0.978962
0.998153
1.03984
1.06231
1.07601
1.09833
1.1053
1.10254
1.0985
1.10134
1.11071
1.11841
1.11938
1.11876
1.11473
1.10368
1.1017
1.12503
1.25282
1.51323
1.76518
1.98442
2.13596
2.18127
2.13531
2.05569
1.99448
1.96774
1.95024
1.9321
1.91463
1.8967
1.87848
1.85849
1.83473
1.80846
1.78282
1.76119
1.74334
1.72842
1.71646
1.70629
1.69505
1.68078
1.66338
1.64305
1.61864
1.5952
1.58047
1.57074
1.56324
1.55688
1.55097
1.54332
1.53313
1.51913
1.50145
1.48238
1.46476
1.44865
1.43395
1.42325
1.41822
1.4149
1.4151
1.42568
1.46569
1.54855
1.64945
1.73401
1.79654
1.84693
1.87232
1.87012
1.86214
1.84861
1.83209
1.81606
1.80046
1.77784
1.75748
1.75028
1.74518
1.74122
1.73694
1.73242
1.72729
1.72051
1.71309
1.69746
1.49444
1.4188
1.31971
1.22452
1.18924
1.14824
1.08106
1.07051
1.0711
1.06449
1.0541
1.05733
1.05927
1.05779
1.05843
1.06578
1.07837
1.08864
1.09181
1.09286
1.09077
1.09128
1.11934
1.28504
1.4803
1.55386
1.63231
1.72581
1.86321
1.97441
2.04687
2.03923
2.01174
1.98025
1.95606
1.9359
1.91872
1.9021
1.88527
1.86563
1.84187
1.81499
1.79027
1.77063
1.75412
1.73834
1.72455
1.71385
1.70252
1.68815
1.67032
1.64942
1.62569
1.60458
1.591
1.58065
1.57231
1.56515
1.55825
1.55007
1.53951
1.52571
1.5091
1.49162
1.47458
1.45921
1.4458
1.43407
1.42694
1.42898
1.44377
1.48672
1.55256
1.60815
1.63854
1.67997
1.7308
1.76112
1.79282
1.82007
1.84024
1.84186
1.83382
1.81982
1.80257
1.78244
1.76233
1.75363
1.74812
1.74358
1.74025
1.73661
1.73141
1.72412
1.71619
1.70088
1.53398
1.49456
1.43403
1.35164
1.27867
1.22822
1.16802
1.11696
1.09649
1.0738
1.04434
1.04069
1.04178
1.03813
1.03761
1.04049
1.04707
1.05493
1.06084
1.06432
1.07208
1.11565
1.30262
1.49673
1.57669
1.58484
1.58541
1.58926
1.62707
1.76722
1.94447
2.02563
2.02834
2.00247
1.95662
1.92552
1.90812
1.89267
1.87541
1.85607
1.83408
1.81207
1.79123
1.77097
1.75054
1.731
1.7117
1.69613
1.68609
1.67502
1.66055
1.64296
1.62538
1.60919
1.59136
1.57402
1.56164
1.5528
1.54475
1.53605
1.52569
1.51252
1.49647
1.48106
1.4674
1.45437
1.44594
1.44076
1.44239
1.46434
1.5215
1.58916
1.63064
1.63852
1.64055
1.64415
1.65691
1.68488
1.73305
1.78687
1.81846
1.83287
1.83218
1.82385
1.80589
1.7886
1.77133
1.7601
1.75189
1.74424
1.73732
1.73185
1.7271
1.71985
1.71093
1.69536
1.55553
1.53805
1.5014
1.4444
1.36872
1.31421
1.26817
1.20207
1.16296
1.14012
1.09698
1.06898
1.06738
1.06117
1.04812
1.04044
1.0403
1.03884
1.03921
1.04441
1.10224
1.29946
1.52185
1.57044
1.57779
1.57749
1.56854
1.55231
1.54549
1.56497
1.67132
1.8551
1.97831
1.97462
1.96067
1.93657
1.91397
1.89183
1.87102
1.85582
1.83767
1.81751
1.7975
1.77577
1.7545
1.73444
1.71404
1.69351
1.67947
1.66846
1.65761
1.64671
1.63426
1.61863
1.59734
1.57674
1.56129
1.55101
1.54219
1.53188
1.5202
1.50665
1.49188
1.47769
1.46593
1.45726
1.45603
1.46689
1.50529
1.5756
1.63331
1.66278
1.66598
1.66085
1.6504
1.64102
1.64067
1.64304
1.66107
1.6981
1.74449
1.78453
1.80125
1.80439
1.80314
1.797
1.78643
1.77341
1.76055
1.75093
1.74272
1.7355
1.72961
1.72209
1.71217
1.69427
1.56852
1.56302
1.54318
1.50603
1.45042
1.38652
1.34051
1.29469
1.24189
1.19853
1.15669
1.11753
1.1033
1.09543
1.0808
1.05302
1.04355
1.04013
1.04524
1.11797
1.31731
1.52367
1.58483
1.57821
1.56552
1.55488
1.54272
1.52992
1.52189
1.5109
1.51468
1.57217
1.73402
1.88175
1.94112
1.94322
1.9262
1.89454
1.86499
1.84382
1.82447
1.8053
1.78918
1.7767
1.76187
1.7434
1.7215
1.69733
1.67695
1.66104
1.64704
1.63502
1.62399
1.61236
1.60025
1.58435
1.56567
1.54974
1.5405
1.53135
1.51675
1.49873
1.48699
1.47731
1.47143
1.47678
1.50469
1.55964
1.62689
1.6815
1.69338
1.68709
1.67354
1.66096
1.65286
1.64703
1.64097
1.63843
1.63372
1.63534
1.65022
1.68942
1.73866
1.76965
1.79341
1.80282
1.7984
1.78539
1.77142
1.75723
1.74329
1.73251
1.72592
1.71869
1.70911
1.69298
1.57736
1.57353
1.56609
1.54417
1.50761
1.46097
1.40286
1.35319
1.31511
1.27895
1.23639
1.18116
1.15136
1.14595
1.1376
1.10923
1.0821
1.09039
1.18031
1.38304
1.54631
1.5983
1.59203
1.57313
1.5535
1.53896
1.52502
1.51192
1.5009
1.48682
1.47374
1.4654
1.48756
1.60659
1.77134
1.8917
1.90678
1.89438
1.86928
1.84378
1.82096
1.79982
1.7827
1.76942
1.75638
1.74432
1.7275
1.70237
1.67517
1.65708
1.64507
1.63433
1.62413
1.61311
1.59929
1.58419
1.56714
1.55151
1.53928
1.52491
1.50877
1.49532
1.48683
1.48564
1.49319
1.53624
1.61502
1.67815
1.71722
1.72127
1.71267
1.69015
1.6733
1.66309
1.65754
1.65583
1.65131
1.64519
1.63638
1.62144
1.6037
1.60854
1.64133
1.69371
1.74555
1.78383
1.7911
1.79061
1.78396
1.76879
1.7502
1.73413
1.72373
1.7152
1.70591
1.69196
1.58345
1.58145
1.57703
1.56865
1.54737
1.51163
1.46966
1.42321
1.36408
1.33267
1.30719
1.27336
1.22428
1.17835
1.16987
1.15563
1.16751
1.27873
1.49248
1.62255
1.64221
1.62613
1.59718
1.57239
1.55303
1.53658
1.5188
1.50166
1.48552
1.4698
1.45319
1.44469
1.43193
1.43584
1.49454
1.64939
1.80747
1.86525
1.85798
1.84261
1.81593
1.79166
1.77145
1.75979
1.75028
1.74017
1.72781
1.70745
1.68053
1.65796
1.64308
1.63015
1.61801
1.60902
1.60087
1.59095
1.5778
1.56028
1.53724
1.51719
1.5064
1.49755
1.49803
1.52275
1.58391
1.66652
1.72432
1.73961
1.73942
1.73003
1.70636
1.68412
1.67521
1.67005
1.66447
1.65796
1.65099
1.64387
1.63484
1.61947
1.59777
1.58541
1.58811
1.61157
1.66297
1.72645
1.77245
1.78521
1.78422
1.77537
1.75403
1.73291
1.71988
1.712
1.70499
1.69342
1.58576
1.58438
1.58274
1.57928
1.57064
1.55015
1.51575
1.48002
1.43924
1.38732
1.34492
1.32894
1.29684
1.25331
1.22125
1.25223
1.39556
1.59455
1.70327
1.70068
1.67676
1.64213
1.60972
1.58303
1.5596
1.53881
1.51751
1.49806
1.47828
1.46129
1.44279
1.43168
1.41865
1.40547
1.39245
1.41374
1.52467
1.68018
1.78624
1.81054
1.80104
1.78344
1.76694
1.75352
1.74084
1.72754
1.71399
1.69952
1.68092
1.6571
1.6379
1.62463
1.61281
1.6016
1.59005
1.57893
1.5671
1.55195
1.53175
1.51819
1.51252
1.52256
1.56644
1.64524
1.71475
1.76078
1.76762
1.76453
1.75024
1.72618
1.70017
1.68326
1.67712
1.67336
1.66743
1.66023
1.65278
1.64502
1.63495
1.6188
1.59692
1.58253
1.57881
1.57867
1.59208
1.63496
1.69643
1.7448
1.76002
1.75854
1.74621
1.72714
1.71567
1.70961
1.70475
1.69455
1.58171
1.58141
1.58095
1.58009
1.57879
1.57089
1.55194
1.51919
1.4891
1.44887
1.40726
1.36671
1.3354
1.3213
1.37507
1.54397
1.7158
1.77388
1.76215
1.72855
1.69078
1.65799
1.63007
1.60425
1.5781
1.55155
1.52459
1.49839
1.47554
1.45566
1.43787
1.42385
1.41111
1.39406
1.37911
1.36139
1.36393
1.41474
1.547
1.69016
1.74999
1.76755
1.76335
1.74556
1.72831
1.71259
1.69907
1.68676
1.67249
1.6518
1.63007
1.61512
1.60313
1.59192
1.58251
1.57308
1.56204
1.54836
1.53157
1.52921
1.5529
1.62375
1.7044
1.75914
1.77557
1.77679
1.77177
1.76071
1.74403
1.72017
1.69846
1.68614
1.68031
1.6751
1.66851
1.66116
1.6527
1.64214
1.62901
1.61238
1.59459
1.58357
1.57683
1.57063
1.56918
1.57528
1.60371
1.65074
1.69762
1.72599
1.73066
1.71998
1.70917
1.70486
1.70327
1.6945
1.57945
1.57773
1.57697
1.57697
1.57771
1.57661
1.56832
1.5496
1.52197
1.48575
1.4526
1.40818
1.41678
1.51508
1.69379
1.82728
1.84795
1.82744
1.78856
1.7479
1.71063
1.67758
1.64774
1.61984
1.59254
1.56525
1.53784
1.50891
1.4812
1.45505
1.43329
1.41578
1.40104
1.38501
1.37128
1.3548
1.34322
1.32875
1.34221
1.43215
1.57803
1.68723
1.72384
1.72439
1.71403
1.69873
1.68584
1.67455
1.66053
1.64082
1.61862
1.60293
1.59176
1.58146
1.5739
1.5652
1.55961
1.54882
1.5545
1.59798
1.6825
1.75313
1.79183
1.79971
1.79566
1.78236
1.76625
1.75199
1.7358
1.71315
1.69532
1.68707
1.68005
1.6733
1.66666
1.65931
1.65008
1.63721
1.61982
1.60248
1.59038
1.5833
1.57674
1.57023
1.5621
1.55744
1.55836
1.56827
1.59675
1.64076
1.6819
1.69319
1.69608
1.69936
1.70232
1.69545
1.57411
1.58235
1.58053
1.57827
1.57853
1.5782
1.57462
1.56517
1.5443
1.52027
1.48907
1.52171
1.67925
1.8545
1.91684
1.90686
1.87474
1.83676
1.79825
1.76072
1.72545
1.69241
1.66124
1.63115
1.60221
1.57435
1.54728
1.51965
1.49264
1.46597
1.44146
1.41948
1.39925
1.37916
1.36215
1.34859
1.33352
1.3193
1.30253
1.302
1.34883
1.47607
1.60873
1.67307
1.68955
1.68583
1.67306
1.66
1.64434
1.62585
1.60504
1.58829
1.57925
1.57096
1.56587
1.56177
1.56503
1.59174
1.66452
1.74404
1.79561
1.7999
1.79751
1.79415
1.78667
1.77632
1.76156
1.74543
1.72804
1.70472
1.68878
1.68209
1.67493
1.66822
1.66222
1.65556
1.64663
1.63274
1.61218
1.59384
1.58608
1.58117
1.5761
1.57016
1.56134
1.55117
1.54277
1.53364
1.53609
1.55412
1.59513
1.64141
1.67064
1.68563
1.69831
1.6945
1.53969
1.56219
1.56658
1.56966
1.57374
1.57589
1.57427
1.57114
1.55821
1.56406
1.65796
1.83208
1.97786
2.00777
1.98819
1.94013
1.88989
1.84515
1.80541
1.76861
1.73376
1.70078
1.66989
1.63987
1.61051
1.58195
1.55373
1.5258
1.49824
1.47087
1.4453
1.42387
1.40388
1.3842
1.36544
1.34813
1.32923
1.31104
1.29382
1.28295
1.27955
1.29696
1.3833
1.51692
1.61103
1.64423
1.65243
1.643
1.62812
1.61232
1.59407
1.57483
1.56448
1.56231
1.56352
1.58197
1.64327
1.73209
1.80037
1.83349
1.83153
1.81866
1.79745
1.7825
1.77303
1.76505
1.75441
1.74024
1.72217
1.69906
1.68099
1.67308
1.66648
1.66056
1.65541
1.64976
1.64164
1.62754
1.60719
1.59194
1.58386
1.57776
1.57254
1.56698
1.55991
1.54908
1.53496
1.52213
1.5156
1.51667
1.52924
1.56394
1.61433
1.65211
1.67189
1.67691
1.38714
1.48779
1.55073
1.57581
1.57652
1.5739
1.57014
1.57218
1.61242
1.78614
1.98841
2.04458
2.04262
2.02512
1.99378
1.95328
1.90636
1.85773
1.81224
1.7723
1.73722
1.70467
1.67384
1.64463
1.61622
1.58737
1.55772
1.52845
1.49925
1.47132
1.44615
1.42338
1.40318
1.38773
1.3725
1.35483
1.33578
1.31481
1.29389
1.27812
1.26844
1.25747
1.26153
1.30669
1.41951
1.53351
1.59997
1.61862
1.61665
1.60577
1.58466
1.56547
1.55904
1.5673
1.60632
1.69399
1.78423
1.83422
1.83335
1.8286
1.81984
1.80867
1.79422
1.77804
1.76387
1.75326
1.74373
1.73245
1.71676
1.69584
1.67676
1.66629
1.65933
1.65375
1.64923
1.64445
1.63683
1.62311
1.60467
1.5908
1.58265
1.57627
1.5705
1.56472
1.55761
1.54704
1.53119
1.51554
1.50673
1.50372
1.50414
1.51211
1.53981
1.58349
1.62533
1.65297
1.12992
1.3126
1.48332
1.55809
1.55553
1.56137
1.58552
1.68287
1.87269
2.05973
2.12346
2.11635
2.07187
2.0224
1.98949
1.95672
1.91739
1.87212
1.82533
1.78197
1.74434
1.71064
1.67718
1.64402
1.61298
1.58601
1.56217
1.53774
1.50911
1.47767
1.45054
1.43056
1.41179
1.39093
1.36863
1.34959
1.336
1.32289
1.30553
1.28547
1.26502
1.24366
1.23099
1.2302
1.24962
1.33247
1.45484
1.54531
1.58376
1.58318
1.57454
1.57667
1.60654
1.67093
1.75651
1.82809
1.86396
1.86317
1.84799
1.82351
1.80522
1.79693
1.78807
1.77535
1.76023
1.74624
1.73451
1.72317
1.71077
1.69628
1.67991
1.66608
1.65662
1.64944
1.64408
1.63772
1.62849
1.61734
1.60618
1.59247
1.58078
1.57671
1.57363
1.56826
1.55993
1.54758
1.53081
1.5144
1.50464
1.49958
1.49664
1.49375
1.49681
1.51437
1.54521
1.59993
1.00961
1.07592
1.26534
1.45592
1.5107
1.66961
1.79534
1.95533
2.07262
2.11336
2.11385
2.10629
2.07857
2.03587
1.9955
1.95712
1.91905
1.87921
1.83666
1.79478
1.7571
1.72228
1.68568
1.64891
1.61715
1.58832
1.56081
1.53337
1.50875
1.48731
1.46524
1.44242
1.41841
1.3946
1.37534
1.35715
1.3375
1.31641
1.29579
1.27792
1.26081
1.24183
1.22862
1.22271
1.21922
1.22482
1.27279
1.38167
1.49164
1.55011
1.59556
1.66928
1.75673
1.82161
1.86376
1.86495
1.86144
1.85404
1.84097
1.82368
1.8065
1.79546
1.78465
1.77363
1.76177
1.749
1.73531
1.72122
1.7086
1.69656
1.68274
1.66961
1.66062
1.65311
1.64644
1.63929
1.63021
1.62029
1.60936
1.59699
1.58658
1.57802
1.56864
1.55955
1.5508
1.54016
1.52791
1.51947
1.51306
1.50447
1.49675
1.48816
1.48592
1.48581
1.49168
1.53257
1.00016
1.00319
1.05818
1.24994
1.53651
1.84972
1.99498
2.08864
2.17108
2.14915
2.11082
2.09704
2.0817
2.05499
2.01191
1.96292
1.91704
1.87753
1.8391
1.80132
1.76241
1.72155
1.69041
1.66612
1.63722
1.605
1.57349
1.54464
1.51787
1.4928
1.46408
1.43474
1.42121
1.41173
1.39689
1.37432
1.34606
1.32105
1.30099
1.28247
1.2605
1.24963
1.2428
1.23393
1.22134
1.20726
1.20738
1.23534
1.32944
1.52021
1.67676
1.78871
1.86662
1.91332
1.91249
1.89769
1.86969
1.84155
1.82752
1.81991
1.80837
1.79401
1.78109
1.77068
1.75618
1.73909
1.72548
1.71329
1.70142
1.69057
1.68186
1.6739
1.66334
1.64907
1.63613
1.62829
1.62134
1.61341
1.60476
1.59677
1.58922
1.57987
1.56831
1.55634
1.54658
1.54016
1.53435
1.52546
1.51183
1.4986
1.49197
1.48829
1.48265
1.4773
1.47779
1.49242
1.00009
1.00549
1.05984
1.27309
1.58625
1.76735
1.99852
2.11225
2.17419
2.16013
2.12571
2.10495
2.08585
2.04847
2.0001
1.95032
1.90451
1.8686
1.84308
1.81451
1.77724
1.73544
1.69472
1.65632
1.6235
1.59153
1.55997
1.54199
1.5288
1.50698
1.47707
1.44551
1.41851
1.39588
1.37676
1.35675
1.33264
1.31853
1.31159
1.29785
1.27574
1.25227
1.23332
1.21944
1.20986
1.20141
1.20355
1.22881
1.33279
1.49518
1.67431
1.80158
1.86351
1.91134
1.91336
1.88986
1.85613
1.83357
1.82406
1.81857
1.81112
1.80032
1.78848
1.776
1.75783
1.73667
1.72113
1.71192
1.70437
1.69658
1.68947
1.68113
1.66751
1.65105
1.63551
1.62482
1.61902
1.61417
1.60858
1.6023
1.59408
1.58216
1.56961
1.55847
1.54811
1.53772
1.52859
1.51936
1.50878
1.49921
1.49228
1.4845
1.47865
1.47647
1.47717
1.49358
1.00716
1.08597
1.28122
1.47143
1.53776
1.59687
1.80104
1.98107
2.08644
2.11927
2.12188
2.11381
2.08696
2.03884
1.98987
1.94658
1.90814
1.87073
1.83181
1.79303
1.75535
1.72088
1.68759
1.65431
1.62218
1.59349
1.56765
1.53965
1.50936
1.48297
1.45932
1.43709
1.41463
1.39325
1.37031
1.3488
1.33418
1.31841
1.2969
1.27982
1.26608
1.25047
1.23306
1.22109
1.21326
1.21956
1.26846
1.37074
1.48998
1.52711
1.59254
1.68482
1.75274
1.82781
1.86073
1.85979
1.85708
1.84883
1.83834
1.82533
1.81097
1.80048
1.78926
1.77423
1.75653
1.73992
1.72574
1.71291
1.70113
1.69109
1.68257
1.67475
1.66701
1.65629
1.64315
1.63076
1.61941
1.60931
1.60193
1.59571
1.59037
1.58508
1.57662
1.56598
1.55463
1.54267
1.52908
1.5163
1.50714
1.50002
1.49307
1.48533
1.48267
1.48343
1.49082
1.53442
1.11584
1.34128
1.47866
1.54738
1.55928
1.56118
1.5923
1.69816
1.88085
2.04647
2.12875
2.12218
2.07527
2.02206
1.98098
1.94473
1.9072
1.86686
1.8259
1.78786
1.75296
1.71813
1.68236
1.64777
1.61511
1.58542
1.55869
1.53094
1.5007
1.47352
1.45371
1.43725
1.41993
1.39923
1.37598
1.35178
1.32991
1.31297
1.29448
1.2739
1.26422
1.25746
1.24683
1.24132
1.25957
1.34245
1.45642
1.5384
1.57977
1.57759
1.5772
1.58397
1.61205
1.67725
1.7649
1.83309
1.85769
1.86003
1.84963
1.82996
1.81147
1.80329
1.79351
1.77672
1.75711
1.74152
1.72971
1.71947
1.70962
1.69825
1.68605
1.67396
1.66238
1.65257
1.6439
1.63393
1.62272
1.61314
1.60464
1.5962
1.58805
1.5801
1.57191
1.56154
1.54963
1.53835
1.52716
1.51737
1.5091
1.50255
1.49671
1.49544
1.4987
1.51122
1.53821
1.59257
1.38354
1.52249
1.55049
1.56544
1.57301
1.57014
1.56875
1.57185
1.61082
1.76969
1.98488
2.05234
2.04
2.01889
1.982
1.94307
1.90265
1.86171
1.82252
1.78478
1.74767
1.71095
1.6753
1.64174
1.61091
1.58184
1.55295
1.52373
1.49646
1.47312
1.45055
1.42784
1.40614
1.38813
1.37336
1.35503
1.32923
1.30548
1.29274
1.27851
1.26646
1.25848
1.26333
1.30845
1.42534
1.53965
1.59489
1.61548
1.6135
1.60099
1.58446
1.57525
1.56769
1.57376
1.61223
1.69932
1.77477
1.8209
1.83373
1.83193
1.82429
1.81307
1.79764
1.77793
1.76083
1.74894
1.73957
1.72948
1.717
1.70254
1.68773
1.67408
1.66337
1.65642
1.65018
1.64208
1.63097
1.6176
1.60522
1.59568
1.58794
1.58125
1.57471
1.56555
1.54967
1.53165
1.52398
1.52043
1.51493
1.50925
1.5102
1.51925
1.54079
1.57703
1.6107
1.63456
1.54886
1.57258
1.5692
1.56546
1.56716
1.57185
1.57325
1.5695
1.55687
1.562
1.65484
1.83454
1.97193
2.00422
1.9862
1.93984
1.89311
1.85225
1.81517
1.77804
1.74034
1.70324
1.66792
1.63514
1.60443
1.57477
1.54627
1.51823
1.49039
1.46677
1.44837
1.43092
1.41201
1.39241
1.37
1.34622
1.32436
1.30657
1.28987
1.28234
1.2774
1.29349
1.38277
1.51209
1.61914
1.64411
1.64416
1.63752
1.62505
1.61251
1.59814
1.58458
1.57241
1.56552
1.56211
1.57603
1.63096
1.71391
1.79499
1.8376
1.83676
1.82425
1.80221
1.78148
1.76753
1.75788
1.74766
1.73508
1.72082
1.70634
1.69266
1.68065
1.67089
1.66185
1.65269
1.64329
1.63265
1.62008
1.60816
1.59933
1.59236
1.58606
1.57879
1.5675
1.54964
1.53076
1.52252
1.51761
1.51834
1.52199
1.5401
1.57781
1.62226
1.65226
1.66227
1.65952
1.57978
1.58497
1.58268
1.57808
1.57629
1.57673
1.57486
1.56704
1.54612
1.52049
1.48931
1.52332
1.67839
1.84769
1.91817
1.91318
1.88158
1.84276
1.80482
1.76699
1.72891
1.69142
1.65628
1.62413
1.59407
1.56511
1.53821
1.51383
1.49076
1.46887
1.44834
1.42623
1.40414
1.38274
1.36591
1.35072
1.33034
1.31161
1.29649
1.2995
1.35156
1.48142
1.60772
1.67227
1.69101
1.68717
1.6764
1.66146
1.64502
1.63084
1.61659
1.60195
1.58824
1.57488
1.56454
1.55281
1.55314
1.57836
1.65315
1.75349
1.80522
1.80922
1.80654
1.79697
1.78198
1.76852
1.75473
1.73999
1.72575
1.71279
1.70095
1.68984
1.67886
1.66806
1.65801
1.64791
1.63637
1.6238
1.61276
1.60466
1.59775
1.59081
1.58257
1.56996
1.54864
1.53333
1.52798
1.528
1.53466
1.56457
1.61842
1.6674
1.69419
1.6966
1.68993
1.67018
1.58032
1.58053
1.57955
1.57745
1.57692
1.5755
1.56793
1.54964
1.5223
1.48591
1.45292
1.40913
1.41804
1.51583
1.69997
1.83927
1.84826
1.82742
1.78886
1.74786
1.70869
1.67302
1.64158
1.61342
1.58696
1.56126
1.53609
1.51109
1.48593
1.46267
1.44382
1.42526
1.40758
1.38935
1.37039
1.34998
1.3328
1.31981
1.33969
1.43804
1.59305
1.69926
1.73117
1.72734
1.71158
1.69486
1.68175
1.66937
1.65626
1.64243
1.62796
1.61417
1.60132
1.58815
1.57447
1.55967
1.54489
1.53783
1.54845
1.60513
1.69395
1.76533
1.80521
1.80557
1.7928
1.77154
1.75507
1.74181
1.73072
1.72059
1.70978
1.69873
1.68762
1.67586
1.66256
1.64936
1.63779
1.62729
1.618
1.61016
1.60257
1.59446
1.58506
1.57207
1.55239
1.54225
1.54261
1.55439
1.59036
1.65027
1.70337
1.72144
1.72185
1.71532
1.70062
1.6782
1.58264
1.58256
1.58154
1.58014
1.57827
1.57029
1.55129
1.51873
1.4891
1.44873
1.40721
1.36753
1.33672
1.32228
1.37901
1.55286
1.71299
1.76999
1.75883
1.72567
1.68809
1.65393
1.62482
1.59995
1.57559
1.55062
1.52559
1.50316
1.48248
1.46551
1.45148
1.43514
1.41465
1.39021
1.37069
1.352
1.35283
1.40602
1.55477
1.69958
1.77595
1.77801
1.76931
1.745
1.72158
1.70467
1.69175
1.67953
1.66658
1.65197
1.63659
1.6222
1.61134
1.60099
1.58775
1.56876
1.54731
1.53474
1.52961
1.5324
1.56284
1.63264
1.72207
1.76931
1.77197
1.76439
1.7569
1.74559
1.73579
1.72654
1.716
1.70499
1.69359
1.68085
1.66511
1.64889
1.63751
1.62905
1.62104
1.61309
1.60532
1.59713
1.58763
1.57707
1.56191
1.56178
1.57981
1.62103
1.67493
1.72313
1.74117
1.74109
1.73639
1.72524
1.71134
1.69076
1.58653
1.58496
1.58289
1.5791
1.57049
1.54993
1.51555
1.47986
1.43919
1.38674
1.34516
1.32951
1.29719
1.25371
1.22168
1.25306
1.38967
1.58393
1.70047
1.69934
1.67519
1.63921
1.60553
1.5818
1.56087
1.53961
1.51948
1.5046
1.48736
1.47066
1.45452
1.43875
1.4171
1.39588
1.37832
1.39985
1.49926
1.66461
1.7935
1.82447
1.82127
1.79768
1.77
1.74882
1.73142
1.71739
1.7039
1.69027
1.67558
1.65977
1.64494
1.63122
1.61902
1.60557
1.58912
1.57018
1.55147
1.53791
1.52677
1.52262
1.52111
1.53361
1.58226
1.65543
1.71804
1.7435
1.74863
1.74727
1.74012
1.72941
1.71819
1.70741
1.69619
1.68282
1.6662
1.64918
1.63587
1.62696
1.61996
1.61331
1.60731
1.60022
1.59369
1.58866
1.59579
1.62089
1.66447
1.70624
1.73891
1.74952
1.74694
1.74096
1.73375
1.7258
1.71804
1.70245
1.58306
1.58121
1.57684
1.56846
1.54731
1.51175
1.46979
1.42303
1.36411
1.33286
1.30689
1.27315
1.22368
1.17894
1.17052
1.15571
1.16619
1.26998
1.48903
1.62388
1.64011
1.62319
1.59459
1.57218
1.5566
1.5388
1.52054
1.50674
1.49166
1.47599
1.46
1.44628
1.42358
1.42368
1.48113
1.64175
1.77764
1.85843
1.87047
1.86136
1.83085
1.79509
1.7689
1.75272
1.74049
1.72838
1.71374
1.69787
1.68223
1.666
1.65067
1.63694
1.62321
1.60775
1.58811
1.56869
1.55464
1.54362
1.53172
1.52197
1.51453
1.51098
1.51416
1.53357
1.58582
1.65389
1.70232
1.72073
1.72989
1.72563
1.71681
1.70665
1.69496
1.681
1.66484
1.64847
1.63441
1.62403
1.61723
1.61157
1.60827
1.60495
1.61266
1.63648
1.67846
1.72292
1.75428
1.76456
1.75929
1.75041
1.74179
1.73468
1.7291
1.72326
1.7184
1.70834
1.57747
1.57351
1.56602
1.54416
1.50765
1.46095
1.40279
1.35355
1.31517
1.27866
1.23551
1.18076
1.15185
1.14642
1.13789
1.10895
1.0819
1.08928
1.18035
1.3863
1.54879
1.59917
1.59459
1.57929
1.56394
1.54642
1.52754
1.51286
1.49952
1.48585
1.47368
1.4625
1.48555
1.59402
1.77402
1.88225
1.90172
1.89668
1.87613
1.85197
1.82386
1.79624
1.77418
1.75914
1.7473
1.73512
1.72021
1.70204
1.68477
1.67237
1.66116
1.64706
1.63104
1.61173
1.5881
1.56614
1.55452
1.54757
1.54035
1.53292
1.52498
1.51386
1.50267
1.49218
1.49635
1.5284
1.59712
1.66436
1.70312
1.71647
1.71412
1.70693
1.69467
1.67807
1.66142
1.64674
1.63385
1.62236
1.61531
1.61221
1.61287
1.62906
1.67463
1.72674
1.77001
1.78784
1.78854
1.77949
1.76011
1.7457
1.73807
1.73364
1.72991
1.72585
1.72273
1.71392
1.56851
1.563
1.54317
1.50596
1.45011
1.38678
1.34089
1.29459
1.24146
1.19815
1.15638
1.11761
1.10374
1.09581
1.08086
1.05293
1.04375
1.04025
1.04597
1.11904
1.3295
1.51318
1.58164
1.58403
1.57984
1.56584
1.54617
1.52813
1.51599
1.50301
1.50627
1.55931
1.72774
1.8735
1.95294
1.95105
1.93428
1.90403
1.87454
1.84648
1.81831
1.7997
1.78326
1.76562
1.74878
1.73377
1.7197
1.70429
1.68756
1.67138
1.65451
1.63785
1.62125
1.60573
1.58836
1.57199
1.56087
1.55071
1.54207
1.5329
1.52124
1.50677
1.48975
1.4771
1.47024
1.47171
1.49264
1.55073
1.61861
1.67408
1.69087
1.68942
1.68483
1.67281
1.6578
1.64494
1.63361
1.62442
1.62059
1.6243
1.64633
1.70169
1.7566
1.79562
1.80986
1.80993
1.80299
1.78438
1.75991
1.74412
1.73696
1.73133
1.7249
1.71829
1.71379
1.7045
1.55552
1.53806
1.5015
1.44409
1.36873
1.31479
1.26792
1.20161
1.16328
1.14019
1.09616
1.06925
1.06759
1.06123
1.04804
1.04047
1.04044
1.03892
1.03931
1.04453
1.10446
1.30619
1.49572
1.57657
1.58916
1.58505
1.57107
1.5535
1.53905
1.55507
1.65178
1.83882
1.97337
1.97928
1.97243
1.95053
1.92876
1.90389
1.87491
1.84648
1.82028
1.80149
1.78682
1.77219
1.75779
1.74459
1.73074
1.71504
1.6964
1.6741
1.65319
1.63576
1.61943
1.60291
1.58746
1.57824
1.57059
1.561
1.55077
1.5403
1.52628
1.50666
1.48741
1.47256
1.46299
1.45987
1.46029
1.47085
1.50974
1.57395
1.63594
1.65947
1.66722
1.66488
1.65486
1.64612
1.63834
1.64039
1.65281
1.68048
1.7338
1.78237
1.80094
1.80893
1.80914
1.80444
1.79387
1.77935
1.76161
1.74754
1.7365
1.73029
1.72485
1.71796
1.70925
1.69425
1.53397
1.49465
1.43396
1.3513
1.27924
1.22834
1.16735
1.11738
1.09685
1.07354
1.04415
1.04099
1.04159
1.03788
1.0375
1.04055
1.04726
1.05514
1.06098
1.06447
1.07218
1.11802
1.29321
1.47595
1.58343
1.59008
1.58647
1.58923
1.62518
1.76116
1.92702
2.02263
2.03294
2.01343
1.97023
1.93764
1.91364
1.89315
1.86981
1.84363
1.82084
1.80536
1.79108
1.77592
1.7599
1.74264
1.72392
1.70562
1.6876
1.66888
1.65065
1.63466
1.61981
1.60593
1.59498
1.58605
1.57549
1.56139
1.54463
1.52951
1.51649
1.50143
1.48648
1.47435
1.46594
1.46027
1.45609
1.45175
1.45061
1.46577
1.51646
1.57813
1.61587
1.63942
1.64601
1.65243
1.66844
1.69997
1.73755
1.77686
1.81308
1.82028
1.81659
1.80705
1.79777
1.78844
1.7805
1.77056
1.76058
1.75262
1.7414
1.72559
1.7156
1.70865
1.7008
1.68798
1.4945
1.41881
1.31898
1.22527
1.19014
1.14753
1.0801
1.07113
1.07136
1.06449
1.05429
1.05748
1.05894
1.0575
1.05828
1.06589
1.07861
1.0888
1.09194
1.09296
1.09078
1.09121
1.11679
1.25893
1.48015
1.56043
1.63162
1.72394
1.86411
1.9658
2.03562
2.03984
2.01656
1.98904
1.96411
1.93776
1.91068
1.89008
1.87279
1.85386
1.8357
1.81894
1.80194
1.78513
1.76815
1.74983
1.72853
1.70518
1.68502
1.66905
1.65512
1.64261
1.63157
1.62156
1.61178
1.60052
1.58667
1.56996
1.55057
1.52802
1.50996
1.5019
1.4957
1.48897
1.48232
1.47555
1.46796
1.45722
1.44079
1.42534
1.43124
1.46654
1.52559
1.58529
1.6335
1.68812
1.74366
1.79677
1.81687
1.82652
1.83235
1.82404
1.80926
1.79607
1.78776
1.78076
1.77545
1.77203
1.76848
1.76261
1.74998
1.72907
1.70871
1.69898
1.69589
1.68994
1.39837
1.23508
1.08991
1.02374
1.01258
0.992346
0.97831
0.998728
1.04051
1.06226
1.07628
1.09873
1.10498
1.10214
1.09834
1.10146
1.111
1.11855
1.11944
1.11887
1.1149
1.10357
1.10103
1.11901
1.25139
1.53053
1.77165
1.9852
2.13396
2.17969
2.13354
2.05875
2.00294
1.97461
1.95626
1.93474
1.90843
1.8843
1.86374
1.84556
1.82894
1.81203
1.79442
1.77713
1.76051
1.74328
1.7228
1.69858
1.67518
1.65632
1.64316