/*--------------------------------*- C++ -*----------------------------------*\
  =========                 |
  \\      /  F ield         | OpenFOAM: The Open Source CFD Toolbox
   \\    /   O peration     | Website:  https://openfoam.org
    \\  /    A nd           | Version:  7
     \\/     M anipulation  |
\*---------------------------------------------------------------------------*/
FoamFile
{
    version     2.0;
    format      ascii;
    class       volVectorField;
    location    "3.4";
    object      U;
}
// * * * * * * * * * * * * * * * * * * * * * * * * * * * * * * * * * * * * * //

dimensions      [0 1 -1 0 0 0 0];

internalField   nonuniform List<vector> 
4608
(
(3 8.36793e-17 0)
(3 -3.32583e-17 0)
(3 -6.41535e-17 0)
(3 -2.67283e-16 0)
(3 3.35429e-16 0)
(3 7.88121e-16 0)
(3 1.11464e-16 0)
(3 -6.49274e-16 0)
(3 -8.1246e-16 0)
(3 -9.09006e-16 0)
(3 -8.75402e-16 0)
(3 -3.79446e-16 0)
(3 -2.94321e-16 0)
(3 -8.37746e-17 0)
(3 -3.8123e-16 0)
(3 5.03361e-16 0)
(3 9.21422e-16 0)
(3 9.2814e-16 0)
(3 1.09541e-15 0)
(3 9.50069e-16 0)
(3 9.46556e-16 0)
(3 1.02453e-15 0)
(3 1.44292e-15 0)
(3 5.4147e-16 0)
(3 5.76364e-17 0)
(3 -1.83688e-16 0)
(3 -3.91041e-16 0)
(3 -6.91311e-16 0)
(3 -1.05349e-16 0)
(3 5.03642e-16 0)
(3 1.15609e-16 0)
(3 -2.04203e-16 0)
(3 2.42918e-17 0)
(3 -6.31499e-17 0)
(3 -2.02621e-16 0)
(3 2.26011e-16 0)
(3 3.08606e-16 0)
(3 1.1184e-16 0)
(3 -5.24451e-16 0)
(3 -5.15352e-17 0)
(3 1.61376e-15 0)
(3 1.83206e-15 0)
(3 1.62421e-15 0)
(3 1.28832e-15 0)
(3 7.6142e-16 0)
(3 1.95657e-16 0)
(3 2.97057e-16 0)
(3 -1.55974e-15 0)
(3 1.05515e-16 0)
(3 3.78076e-16 0)
(3 2.29464e-16 0)
(3 6.91899e-17 0)
(3 -8.91442e-17 0)
(3 -6.27329e-17 0)
(3 1.74641e-16 0)
(3 1.23826e-15 0)
(3 1.56419e-15 0)
(3 1.77583e-15 0)
(3 1.71798e-15 0)
(3 8.64831e-16 0)
(3 7.12173e-16 0)
(3 5.48174e-16 0)
(3 4.44928e-16 0)
(3 8.52624e-16 0)
(3 1.27235e-15 0)
(3 8.54462e-16 0)
(3 2.58286e-16 0)
(3 2.23251e-16 0)
(3 4.02432e-16 0)
(3 7.90483e-16 0)
(3 1.74274e-16 0)
(3 -2.16175e-15 0)
(3 2.82815e-17 0)
(3 5.88181e-17 0)
(3 1.04612e-16 0)
(3 3.96164e-18 0)
(3 4.59362e-16 0)
(3 5.97969e-16 0)
(3 8.7312e-16 0)
(3 1.07279e-15 0)
(3 1.44748e-15 0)
(3 1.82121e-15 0)
(3 1.63367e-15 0)
(3 4.42703e-16 0)
(3 -1.18832e-16 0)
(3 -2.28771e-16 0)
(3 7.48258e-16 0)
(3 1.4428e-15 0)
(3 1.90067e-15 0)
(3 1.78068e-15 0)
(3 1.12422e-15 0)
(3 -1.04997e-16 0)
(3 -6.65354e-16 0)
(3 9.13409e-17 0)
(3 -2.79426e-16 0)
(3 -6.05276e-16 0)
(3 -2.82334e-16 0)
(3 -4.08883e-16 0)
(3 -4.55307e-16 0)
(3 -6.82461e-16 0)
(3 -2.01428e-16 0)
(3 1.05545e-16 0)
(3 2.98619e-16 0)
(3 3.20373e-16 0)
(3 4.4358e-16 0)
(3 1.01393e-15 0)
(3 1.23225e-15 0)
(3 1.6625e-15 0)
(3 1.59146e-15 0)
(3 5.93393e-16 0)
(3 8.15492e-16 0)
(3 1.09189e-15 0)
(3 1.25709e-15 0)
(3 9.38468e-16 0)
(3 3.73495e-16 0)
(3 -5.85708e-16 0)
(3 -1.10026e-15 0)
(3 -8.45453e-16 0)
(3 -6.35649e-16 0)
(3 2.67786e-16 0)
(3 -4.95752e-17 0)
(3 -3.18275e-16 0)
(3 -1.63139e-16 0)
(3 9.89572e-17 0)
(3 6.20601e-16 0)
(3 5.41416e-16 0)
(3 4.06012e-16 0)
(3 1.48896e-16 0)
(3 -4.16639e-16 0)
(3 -8.25324e-16 0)
(3 -5.43847e-16 0)
(3 -1.32177e-16 0)
(3 -1.00201e-18 0)
(3 9.61613e-16 0)
(3 1.40445e-15 0)
(3 1.48257e-15 0)
(3 1.00045e-15 0)
(3 8.20934e-16 0)
(3 5.37583e-16 0)
(3 7.01492e-16 0)
(3 7.59067e-16 0)
(3 7.496e-16 0)
(3 1.25116e-15 0)
(3 1.96204e-15 0)
(3 1.08257e-16 0)
(3 3.50894e-17 0)
(3 1.71863e-16 0)
(3 7.2221e-16 0)
(3 1.27588e-15 0)
(3 1.06984e-15 0)
(3 5.30772e-16 0)
(3 5.16787e-16 0)
(3 -4.4476e-16 0)
(3 -2.29394e-15 0)
(3 -2.89199e-15 0)
(3 -1.75565e-15 0)
(3 -1.22396e-15 0)
(3 6.52003e-16 0)
(3 1.17512e-15 0)
(3 1.09932e-15 0)
(3 5.66499e-17 0)
(3 2.338e-16 0)
(3 5.21718e-16 0)
(3 1.54653e-15 0)
(3 1.53252e-15 0)
(3 1.61345e-15 0)
(3 1.77123e-15 0)
(3 1.80193e-15 0)
(3 5.30185e-17 0)
(3 1.81606e-16 0)
(3 1.93637e-16 0)
(3 -4.31383e-17 0)
(3 1.10314e-17 0)
(3 -9.24097e-16 0)
(3 -9.43861e-16 0)
(3 -2.1293e-16 0)
(3 -1.05395e-15 0)
(3 -2.7182e-15 0)
(3 -2.59334e-15 0)
(3 -1.5717e-15 0)
(3 -5.65891e-16 0)
(3 -3.63659e-16 0)
(3 -5.85698e-16 0)
(3 -1.56332e-15 0)
(3 -8.91941e-16 0)
(3 -1.67594e-17 0)
(3 6.78615e-16 0)
(3 1.67859e-15 0)
(3 2.05436e-15 0)
(3 2.43496e-15 0)
(3 2.19612e-15 0)
(3 2.28266e-15 0)
(3 -5.67027e-18 0)
(3 -1.07053e-16 0)
(3 -1.50825e-16 0)
(3 -4.64178e-16 0)
(3 -6.23916e-16 0)
(3 -9.36911e-16 0)
(3 -1.33639e-15 0)
(3 -1.4451e-15 0)
(3 -1.7374e-15 0)
(3 -1.77862e-15 0)
(3 -1.18673e-15 0)
(3 -1.44925e-15 0)
(3 -1.6993e-15 0)
(3 -2.08517e-15 0)
(3 -2.3915e-15 0)
(3 -1.85566e-15 0)
(3 1.61194e-16 0)
(3 5.33015e-16 0)
(3 1.68729e-15 0)
(3 2.51084e-15 0)
(3 2.84005e-15 0)
(3 2.6395e-15 0)
(3 2.00561e-15 0)
(3 1.51591e-15 0)
(3 -1.24821e-16 0)
(3 9.30386e-17 0)
(3 3.88555e-16 0)
(3 3.05965e-16 0)
(3 -2.05196e-16 0)
(3 -1.04767e-16 0)
(3 -4.1596e-16 0)
(3 -7.72074e-16 0)
(3 -6.83584e-16 0)
(3 -5.52469e-16 0)
(3 -4.27792e-16 0)
(3 -2.08514e-15 0)
(3 -2.43654e-15 0)
(3 -2.39952e-15 0)
(3 -2.0729e-15 0)
(3 -1.00727e-15 0)
(3 4.68578e-16 0)
(3 1.17352e-15 0)
(3 1.7814e-15 0)
(3 2.08546e-15 0)
(3 2.91698e-15 0)
(3 2.35834e-15 0)
(3 8.27402e-16 0)
(3 6.83909e-16 0)
(3 4.31493e-17 0)
(3 2.80333e-16 0)
(3 5.27335e-16 0)
(3 3.34304e-16 0)
(3 2.12869e-16 0)
(3 3.20769e-16 0)
(3 2.082e-16 0)
(3 -1.75116e-16 0)
(3 -2.44384e-16 0)
(3 -2.30845e-16 0)
(3 -4.89091e-16 0)
(3 -1.68492e-15 0)
(3 -2.23527e-15 0)
(3 -2.3272e-15 0)
(3 -1.78483e-15 0)
(3 -9.97366e-16 0)
(3 -4.23782e-17 0)
(3 1.60136e-15 0)
(3 2.5479e-15 0)
(3 2.73566e-15 0)
(3 2.70663e-15 0)
(3 1.52174e-15 0)
(3 6.26328e-16 0)
(3 4.59314e-16 0)
(3 1.29472e-17 0)
(3 -1.28218e-16 0)
(3 -6.52235e-16 0)
(3 -7.76974e-16 0)
(3 -6.02094e-16 0)
(3 -3.18956e-16 0)
(3 -1.52666e-16 0)
(3 -1.81656e-17 0)
(3 -7.69405e-17 0)
(3 -3.2604e-16 0)
(3 -1.66157e-16 0)
(3 3.17214e-16 0)
(3 -2.40291e-16 0)
(3 -7.11799e-16 0)
(3 -1.30303e-15 0)
(3 -1.38016e-15 0)
(3 -4.82544e-16 0)
(3 -1.27027e-16 0)
(3 6.15552e-16 0)
(3 1.54055e-15 0)
(3 2.04295e-15 0)
(3 4.57982e-16 0)
(3 -1.31589e-16 0)
(3 -2.14372e-17 0)
(3 8.00799e-18 0)
(3 -1.15333e-16 0)
(3 -9.07703e-17 0)
(3 -2.27495e-17 0)
(3 -2.01646e-16 0)
(3 -6.89623e-16 0)
(3 -6.3299e-16 0)
(3 8.22241e-18 0)
(3 2.32965e-16 0)
(3 4.93024e-16 0)
(3 1.13699e-15 0)
(3 9.29877e-16 0)
(3 5.67621e-16 0)
(3 2.24873e-16 0)
(3 -7.19339e-16 0)
(3 -1.22584e-15 0)
(3 -9.86614e-16 0)
(3 -1.08899e-15 0)
(3 -1.14501e-15 0)
(3 -1.20923e-15 0)
(3 -1.27559e-15 0)
(3 -8.16034e-17 0)
(3 2.71346e-16 0)
(3 -2.397e-16 0)
(3 1.51817e-16 0)
(3 3.37542e-16 0)
(3 7.56475e-16 0)
(3 8.47884e-16 0)
(3 6.78162e-16 0)
(3 1.88746e-16 0)
(3 -1.57051e-17 0)
(3 -2.91303e-16 0)
(3 -6.37422e-17 0)
(3 1.20331e-15 0)
(3 1.57765e-15 0)
(3 1.1756e-15 0)
(3 6.09839e-17 0)
(3 -4.97823e-16 0)
(3 -6.18445e-16 0)
(3 -9.5959e-16 0)
(3 -1.05387e-15 0)
(3 -1.1105e-15 0)
(3 -1.9108e-15 0)
(3 -2.46231e-15 0)
(3 -2.09806e-15 0)
(3 7.7407e-16 0)
(3 1.44648e-15 0)
(3 1.61093e-15 0)
(3 3.60713e-17 0)
(3 6.60591e-17 0)
(3 1.65539e-16 0)
(3 1.14275e-16 0)
(3 2.13092e-16 0)
(3 5.38404e-16 0)
(3 3.05829e-16 0)
(3 -1.66304e-16 0)
(3 -1.20379e-16 0)
(3 5.43821e-16 0)
(3 6.81529e-16 0)
(3 1.31907e-15 0)
(3 1.40207e-15 0)
(3 5.78965e-16 0)
(3 3.35314e-16 0)
(3 1.60022e-17 0)
(3 -7.10516e-16 0)
(3 -2.16574e-15 0)
(3 -2.35295e-15 0)
(3 -3.03956e-15 0)
(3 -2.87432e-15 0)
(3 -1.60732e-15 0)
(3 -5.08465e-16 0)
(3 1.38624e-15 0)
(3 -6.86707e-17 0)
(3 -1.50774e-16 0)
(3 -4.05842e-16 0)
(3 -1.05896e-16 0)
(3 1.56099e-16 0)
(3 -4.83627e-16 0)
(3 -1.24972e-15 0)
(3 -1.4537e-15 0)
(3 -1.5645e-15 0)
(3 -3.60358e-16 0)
(3 -4.79717e-17 0)
(3 1.6076e-16 0)
(3 4.56485e-16 0)
(3 4.18725e-16 0)
(3 3.62513e-16 0)
(3 2.49613e-16 0)
(3 -9.43839e-16 0)
(3 -2.49486e-15 0)
(3 -2.83558e-15 0)
(3 -3.20434e-15 0)
(3 -2.83192e-15 0)
(3 -2.25508e-15 0)
(3 -6.35892e-16 0)
(3 3.49841e-16 0)
(3 2.59833e-17 0)
(3 -2.37706e-16 0)
(3 -1.14419e-15 0)
(3 -1.09396e-15 0)
(3 -9.0211e-16 0)
(3 -9.31544e-16 0)
(3 -1.05112e-15 0)
(3 -1.04696e-15 0)
(3 -1.40291e-16 0)
(3 4.50172e-16 0)
(3 4.31003e-16 0)
(3 -9.63489e-16 0)
(3 -9.27896e-16 0)
(3 -5.53707e-16 0)
(3 -1.1327e-15 0)
(3 -1.63194e-15 0)
(3 -1.75035e-15 0)
(3 -1.69026e-15 0)
(3 -1.3505e-15 0)
(3 -1.21553e-15 0)
(3 -3.88763e-16 0)
(3 -3.431e-16 0)
(3 -3.03983e-16 0)
(3 -3.11098e-16 0)
(3 -1.96033e-17 0)
(3 -3.05666e-16 0)
(3 -3.82612e-16 0)
(3 -4.39244e-16 0)
(3 -5.88602e-16 0)
(3 -5.13961e-16 0)
(3 6.48213e-18 0)
(3 -3.98251e-16 0)
(3 4.96713e-16 0)
(3 5.69548e-16 0)
(3 6.0599e-17 0)
(3 -1.07731e-15 0)
(3 -1.21154e-15 0)
(3 -1.53694e-15 0)
(3 -2.01251e-15 0)
(3 -1.88735e-15 0)
(3 -1.12108e-15 0)
(3 -2.47242e-16 0)
(3 1.01414e-15 0)
(3 1.47946e-15 0)
(3 8.86639e-16 0)
(3 2.87261e-16 0)
(3 -1.30519e-15 0)
(3 -2.45416e-15 0)
(3 -4.33216e-17 0)
(3 1.09471e-16 0)
(3 4.70811e-16 0)
(3 6.17781e-16 0)
(3 6.67152e-16 0)
(3 -1.76539e-17 0)
(3 7.52476e-17 0)
(3 7.17741e-16 0)
(3 9.53662e-16 0)
(3 9.36645e-16 0)
(3 4.23395e-16 0)
(3 -4.69672e-17 0)
(3 -3.85604e-16 0)
(3 -1.14889e-15 0)
(3 -1.55427e-15 0)
(3 -1.20892e-15 0)
(3 -1.04125e-16 0)
(3 7.38538e-16 0)
(3 1.71342e-15 0)
(3 2.50621e-15 0)
(3 1.83889e-15 0)
(3 5.27186e-16 0)
(3 -1.41904e-15 0)
(3 -4.27325e-15 0)
(3 -6.50403e-17 0)
(3 1.65916e-16 0)
(3 6.39797e-16 0)
(3 4.92367e-16 0)
(3 2.31274e-17 0)
(3 8.06361e-16 0)
(3 1.31782e-15 0)
(3 2.14416e-15 0)
(3 9.3359e-16 0)
(3 -6.37217e-17 0)
(3 2.33267e-16 0)
(3 8.7737e-16 0)
(3 1.02204e-15 0)
(3 1.26432e-15 0)
(3 1.03845e-15 0)
(3 3.9759e-16 0)
(3 -3.82094e-17 0)
(3 6.45482e-16 0)
(3 6.00466e-16 0)
(3 1.30767e-15 0)
(3 1.09843e-15 0)
(3 -3.803e-16 0)
(3 -2.24715e-15 0)
(3 -4.42232e-15 0)
(3 9.87787e-18 0)
(3 6.24861e-17 0)
(3 -1.54606e-16 0)
(3 -5.21751e-16 0)
(3 -7.8852e-16 0)
(3 7.7233e-16 0)
(3 1.50172e-15 0)
(3 7.36186e-16 0)
(3 1.20592e-16 0)
(3 1.2642e-16 0)
(3 3.64758e-16 0)
(3 1.22769e-15 0)
(3 1.43294e-15 0)
(3 1.43606e-15 0)
(3 1.61313e-15 0)
(3 1.26091e-15 0)
(3 6.90947e-16 0)
(3 7.15816e-16 0)
(3 1.41512e-16 0)
(3 2.67232e-16 0)
(3 9.12587e-16 0)
(3 -1.36609e-15 0)
(3 -2.58727e-15 0)
(3 -3.04131e-15 0)
(3 3.2195e-16 0)
(3 3.08454e-16 0)
(3 -4.55133e-17 0)
(3 -2.12984e-16 0)
(3 8.04822e-17 0)
(3 5.01343e-16 0)
(3 3.40301e-16 0)
(3 -7.94534e-17 0)
(3 1.07334e-16 0)
(3 6.29395e-16 0)
(3 1.00666e-15 0)
(3 1.15141e-15 0)
(3 6.51173e-16 0)
(3 3.83189e-16 0)
(3 1.13218e-15 0)
(3 2.88724e-15 0)
(3 3.60972e-15 0)
(3 3.03535e-15 0)
(3 2.78839e-15 0)
(3 2.64597e-15 0)
(3 1.12275e-15 0)
(3 -4.31703e-16 0)
(3 -1.07274e-15 0)
(3 -1.38511e-15 0)
(3 -1.45873e-17 0)
(3 -1.09369e-16 0)
(3 5.5443e-16 0)
(3 7.72424e-16 0)
(3 4.81675e-16 0)
(3 2.97209e-16 0)
(3 -2.21166e-16 0)
(3 -8.67521e-16 0)
(3 -1.35756e-15 0)
(3 -1.49203e-15 0)
(3 -1.19684e-15 0)
(3 -1.3247e-15 0)
(3 -1.2808e-15 0)
(3 -5.92892e-16 0)
(3 9.3501e-16 0)
(3 1.79277e-15 0)
(3 1.94716e-15 0)
(3 1.34206e-15 0)
(3 1.10981e-15 0)
(3 6.38411e-16 0)
(3 2.19565e-16 0)
(3 6.5416e-16 0)
(3 3.08858e-16 0)
(3 5.49081e-16 0)
(3 -1.20815e-16 0)
(3 -6.97229e-17 0)
(3 1.8282e-16 0)
(3 2.98801e-16 0)
(3 3.02359e-16 0)
(3 2.80954e-16 0)
(3 3.11448e-16 0)
(3 3.28464e-16 0)
(3 9.12576e-17 0)
(3 -8.76106e-17 0)
(3 -5.69747e-17 0)
(3 -1.41106e-15 0)
(3 -1.9073e-15 0)
(3 -1.61119e-15 0)
(3 -4.21368e-16 0)
(3 -2.65716e-16 0)
(3 -9.34687e-17 0)
(3 4.78742e-16 0)
(3 1.46535e-16 0)
(3 -5.08131e-16 0)
(3 1.45748e-16 0)
(3 2.98648e-16 0)
(3 4.08964e-16 0)
(3 5.06034e-16 0)
(3 2.69066e-17 0)
(3 2.76505e-16 0)
(3 -1.83587e-16 0)
(3 -2.92079e-16 0)
(3 4.66842e-16 0)
(3 8.23527e-16 0)
(3 1.00552e-15 0)
(3 1.61099e-15 0)
(3 2.19849e-15 0)
(3 2.26528e-15 0)
(3 1.51952e-15 0)
(3 1.51732e-16 0)
(3 -4.45642e-16 0)
(3 -1.21631e-15 0)
(3 -1.36307e-15 0)
(3 -6.38591e-16 0)
(3 -1.13938e-16 0)
(3 7.20095e-16 0)
(3 9.05624e-16 0)
(3 -3.64089e-16 0)
(3 -3.45547e-16 0)
(3 5.75295e-16 0)
(3 3.4809e-16 0)
(3 1.32686e-16 0)
(3 -6.13245e-17 0)
(3 -2.19895e-16 0)
(3 -3.3871e-16 0)
(3 7.58189e-17 0)
(3 1.35709e-16 0)
(3 -5.02405e-16 0)
(3 -4.01859e-16 0)
(3 -1.07284e-16 0)
(3 -2.75706e-16 0)
(3 -4.61188e-16 0)
(3 -8.07505e-16 0)
(3 4.47122e-17 0)
(3 1.51336e-16 0)
(3 -6.79105e-16 0)
(3 -1.69919e-15 0)
(3 -1.18867e-15 0)
(3 -1.0029e-16 0)
(3 1.63349e-16 0)
(3 -5.24919e-16 0)
(3 -2.33939e-16 0)
(3 7.64184e-16 0)
(3 2.10108e-15 0)
(3 2.18362e-15 0)
(3 1.18292e-15 0)
(3 -9.69099e-17 0)
(3 -1.85801e-16 0)
(3 2.18564e-16 0)
(3 5.51211e-16 0)
(3 -5.30839e-16 0)
(3 -1.24618e-15 0)
(3 -1.25284e-15 0)
(3 -1.15566e-15 0)
(3 -7.38287e-16 0)
(3 -3.45246e-16 0)
(3 -2.19601e-16 0)
(3 8.2903e-16 0)
(3 1.22332e-15 0)
(3 8.17441e-16 0)
(3 4.23733e-16 0)
(3 4.08423e-16 0)
(3 9.64192e-16 0)
(3 1.06125e-15 0)
(3 1.19776e-16 0)
(3 -4.0647e-16 0)
(3 -1.80652e-16 0)
(3 7.33038e-16 0)
(3 1.97128e-15 0)
(3 1.8998e-15 0)
(3 -9.29792e-17 0)
(3 2.95873e-17 0)
(3 3.25374e-16 0)
(3 1.62159e-16 0)
(3 4.94893e-17 0)
(3 9.73095e-17 0)
(3 -1.72219e-16 0)
(3 -2.45691e-16 0)
(3 -2.65576e-16 0)
(3 -1.97178e-16 0)
(3 3.1483e-16 0)
(3 1.75798e-15 0)
(3 2.91548e-15 0)
(3 2.93921e-15 0)
(3 2.61327e-15 0)
(3 1.247e-15 0)
(3 1.34991e-15 0)
(3 2.76001e-15 0)
(3 2.85956e-15 0)
(3 -2.57017e-16 0)
(3 -7.61693e-16 0)
(3 -8.95687e-17 0)
(3 6.09843e-16 0)
(3 1.90854e-15 0)
(3 -1.2257e-16 0)
(3 -1.48224e-16 0)
(3 -4.55995e-16 0)
(3 -6.65436e-16 0)
(3 3.30615e-16 0)
(3 4.3341e-16 0)
(3 -4.45511e-16 0)
(3 -1.18143e-15 0)
(3 -1.08783e-15 0)
(3 -8.24751e-16 0)
(3 -3.66236e-17 0)
(3 4.91401e-16 0)
(3 1.43857e-15 0)
(3 1.49548e-15 0)
(3 1.8345e-15 0)
(3 4.69047e-16 0)
(3 1.22024e-16 0)
(3 4.98464e-16 0)
(3 2.98981e-16 0)
(3 -3.31897e-16 0)
(3 -6.37615e-16 0)
(3 -2.86708e-16 0)
(3 2.96113e-16 0)
(3 8.48349e-16 0)
(3 6.77485e-17 0)
(3 -8.33766e-17 0)
(3 -3.81005e-16 0)
(3 -5.49833e-16 0)
(3 -3.81622e-16 0)
(3 -2.90462e-16 0)
(3 -6.16558e-16 0)
(3 -1.23473e-15 0)
(3 -9.68445e-16 0)
(3 -7.55366e-16 0)
(3 -6.12335e-16 0)
(3 -8.91541e-16 0)
(3 -1.32872e-15 0)
(3 -1.25879e-15 0)
(3 -1.15047e-15 0)
(3 -4.65656e-16 0)
(3 -1.12663e-15 0)
(3 -2.02944e-15 0)
(3 -3.05235e-15 0)
(3 -1.5139e-15 0)
(3 -8.19723e-16 0)
(3 -6.2323e-16 0)
(3 -8.26824e-17 0)
(3 8.30939e-16 0)
(3 2.24557e-16 0)
(3 2.14059e-16 0)
(3 -9.29604e-17 0)
(3 -5.11412e-16 0)
(3 -2.29342e-16 0)
(3 -3.65078e-16 0)
(3 -5.25487e-16 0)
(3 -2.28996e-16 0)
(3 -1.08491e-15 0)
(3 -9.50035e-16 0)
(3 -1.13619e-15 0)
(3 -1.86586e-15 0)
(3 -1.98902e-15 0)
(3 -1.41921e-15 0)
(3 -9.3956e-16 0)
(3 -1.00528e-15 0)
(3 -1.08073e-15 0)
(3 -2.15223e-15 0)
(3 -3.52444e-15 0)
(3 -2.33503e-15 0)
(3 -9.64628e-16 0)
(3 -8.87827e-16 0)
(3 4.78495e-17 0)
(3 1.87526e-15 0)
(3 5.32988e-17 0)
(3 1.33564e-16 0)
(3 6.07089e-18 0)
(3 -2.99186e-17 0)
(3 1.35499e-16 0)
(3 -4.5815e-16 0)
(3 -5.39236e-16 0)
(3 -4.23365e-16 0)
(3 -5.58363e-16 0)
(3 -5.86946e-16 0)
(3 -5.60751e-16 0)
(3 -5.98737e-16 0)
(3 -5.12643e-16 0)
(3 -5.13096e-16 0)
(3 -3.95084e-16 0)
(3 -4.32704e-16 0)
(3 -6.09051e-16 0)
(3 -1.08308e-15 0)
(3 -2.0732e-15 0)
(3 -2.34532e-15 0)
(3 -1.1259e-15 0)
(3 -3.3278e-16 0)
(3 2.65805e-16 0)
(3 7.27046e-16 0)
(2.93268 0.0213947 0)
(2.84495 0.0752433 0)
(2.76132 0.131515 0)
(2.66272 0.247262 0)
(2.57711 0.347408 0)
(2.51031 0.437042 0)
(2.41513 0.550098 0)
(2.35275 0.628164 0)
(2.31159 0.724333 0)
(2.25785 0.795219 0)
(2.24887 0.854394 0)
(2.28321 0.885471 0)
(2.32814 0.894096 0)
(2.33644 0.891127 0)
(2.3437 0.880487 0)
(2.34542 0.869495 0)
(2.34523 0.857044 0)
(2.34632 0.84867 0)
(2.34819 0.84886 0)
(2.3445 0.84933 0)
(2.33999 0.850595 0)
(2.3359 0.850683 0)
(2.33401 0.849974 0)
(2.33673 0.849486 0)
(2.99862 0.0013776 0)
(2.98944 0.0128071 0)
(2.9627 0.0480212 0)
(2.90089 0.13147 0)
(2.80333 0.274867 0)
(2.68804 0.457171 0)
(2.51822 0.693315 0)
(2.39982 0.893719 0)
(2.21506 1.07784 0)
(2.17164 1.09531 0)
(2.14002 1.04075 0)
(2.18421 1.00007 0)
(2.25795 0.950187 0)
(2.29776 0.899212 0)
(2.32898 0.858033 0)
(2.34836 0.838275 0)
(2.35298 0.832941 0)
(2.35954 0.833563 0)
(2.35866 0.836955 0)
(2.35451 0.843635 0)
(2.34799 0.84869 0)
(2.34087 0.851404 0)
(2.33747 0.852963 0)
(2.3375 0.85186 0)
(3 -1.84245e-06 0)
(3 9.91615e-06 0)
(3.00003 -4.06209e-05 0)
(2.99987 9.94006e-05 0)
(2.99862 0.00191108 0)
(2.99162 0.0118703 0)
(2.96354 0.0568251 0)
(2.90613 0.164624 0)
(2.75582 0.426412 0)
(2.60529 0.69664 0)
(2.44563 0.845908 0)
(2.33779 0.93569 0)
(2.28881 0.914001 0)
(2.30057 0.896764 0)
(2.31614 0.885519 0)
(2.34223 0.878042 0)
(2.35054 0.860634 0)
(2.3606 0.841839 0)
(2.36345 0.8398 0)
(2.36176 0.841434 0)
(2.35631 0.844948 0)
(2.3493 0.848687 0)
(2.3459 0.851576 0)
(2.34352 0.850885 0)
(3 -6.42722e-11 0)
(3 -1.08664e-07 0)
(3 -1.61832e-06 0)
(3 -1.64935e-06 0)
(3.00001 -8.9746e-06 0)
(2.99999 2.23955e-05 0)
(2.99999 -4.14996e-06 0)
(2.99941 0.000931369 0)
(2.98795 0.019718 0)
(2.90688 0.157574 0)
(2.75919 0.418853 0)
(2.4153 0.815443 0)
(2.35059 0.87591 0)
(2.29196 0.941954 0)
(2.2941 0.940868 0)
(2.30814 0.920663 0)
(2.32845 0.887524 0)
(2.34181 0.856781 0)
(2.35747 0.842198 0)
(2.36407 0.835982 0)
(2.36355 0.837884 0)
(2.36155 0.841604 0)
(2.35738 0.84495 0)
(2.35279 0.848238 0)
(3 -1.48649e-11 0)
(3 -2.85633e-09 0)
(3 -9.78079e-09 0)
(3 -9.75139e-08 0)
(3 -7.6896e-07 0)
(3 -7.47193e-07 0)
(3 -1.78621e-06 0)
(3 -3.37043e-06 0)
(3.00004 -9.11052e-05 0)
(2.99936 0.000842177 0)
(2.98553 0.0199373 0)
(2.85734 0.183393 0)
(2.70783 0.431344 0)
(2.37187 0.802098 0)
(2.30811 0.885514 0)
(2.30489 0.887512 0)
(2.31037 0.882587 0)
(2.31511 0.877655 0)
(2.33254 0.865921 0)
(2.35172 0.852006 0)
(2.35847 0.849969 0)
(2.36041 0.845866 0)
(2.35945 0.844997 0)
(2.35417 0.850662 0)
(3 -8.46215e-13 0)
(3 2.44774e-11 0)
(3 2.13164e-10 0)
(3 -4.70434e-10 0)
(3 -2.18139e-09 0)
(3 -5.03808e-08 0)
(3 -5.45603e-08 0)
(3 -2.73274e-07 0)
(3 -6.33323e-06 0)
(3 -5.97015e-06 0)
(3.00003 -7.555e-05 0)
(2.99847 0.00221172 0)
(2.97852 0.0307539 0)
(2.79253 0.252432 0)
(2.56807 0.54285 0)
(2.41663 0.757679 0)
(2.27278 0.911237 0)
(2.27464 0.908282 0)
(2.29901 0.883739 0)
(2.31706 0.864597 0)
(2.33311 0.858575 0)
(2.34386 0.852573 0)
(2.35037 0.844127 0)
(2.35214 0.841487 0)
(3 9.03561e-16 0)
(3 3.96357e-13 0)
(3 2.7458e-11 0)
(3 2.62866e-11 0)
(3 3.15165e-11 0)
(3 -4.12369e-11 0)
(3 -6.74603e-10 0)
(3 -5.03858e-10 0)
(3 -2.57759e-08 0)
(3 -3.77287e-07 0)
(3 -7.18544e-06 0)
(3 -4.76789e-06 0)
(3.00001 -4.63959e-05 0)
(2.99436 0.00785142 0)
(2.94892 0.0669835 0)
(2.73188 0.346871 0)
(2.44474 0.697684 0)
(2.39807 0.773439 0)
(2.32749 0.838784 0)
(2.31394 0.851466 0)
(2.31464 0.850785 0)
(2.32723 0.844686 0)
(2.3374 0.836271 0)
(2.34294 0.838881 0)
(3 2.94362e-15 0)
(3 -1.06183e-14 0)
(3 9.29249e-14 0)
(3 2.0185e-12 0)
(3 6.11527e-12 0)
(3 5.71024e-12 0)
(3 3.22185e-12 0)
(3 2.42731e-12 0)
(3 1.58828e-10 0)
(3 -1.87582e-10 0)
(3 -3.38174e-08 0)
(3 -5.76213e-07 0)
(3 -2.84994e-06 0)
(3.00001 -2.40165e-05 0)
(2.99973 0.0004318 0)
(2.98425 0.0211733 0)
(2.88046 0.154771 0)
(2.65261 0.480197 0)
(2.3506 0.833928 0)
(2.32945 0.829965 0)
(2.31035 0.840339 0)
(2.30631 0.841779 0)
(2.31897 0.838129 0)
(2.33358 0.837079 0)
(3 2.73489e-15 0)
(3 2.55859e-15 0)
(3 1.69544e-15 0)
(3 6.95635e-15 0)
(3 6.19598e-14 0)
(3 5.89243e-13 0)
(3 7.05401e-13 0)
(3 1.09721e-12 0)
(3 1.19706e-11 0)
(3 1.35807e-11 0)
(3 1.55103e-10 0)
(3 -1.32984e-08 0)
(3 -3.07623e-08 0)
(3 -2.8975e-06 0)
(3 -5.03096e-06 0)
(2.99999 1.16073e-05 0)
(2.99778 0.003824 0)
(2.95037 0.0694711 0)
(2.74451 0.342447 0)
(2.57285 0.599726 0)
(2.3231 0.866078 0)
(2.28018 0.876567 0)
(2.30037 0.847965 0)
(2.32218 0.843161 0)
(3 5.28009e-16 0)
(3 4.16025e-16 0)
(3 -6.9476e-16 0)
(3 -2.49185e-16 0)
(3 3.14772e-16 0)
(3 7.88004e-15 0)
(3 2.20809e-14 0)
(3 8.51786e-14 0)
(3 2.24708e-13 0)
(3 2.64704e-12 0)
(3 8.67112e-12 0)
(3 3.78993e-11 0)
(3 7.39764e-11 0)
(3 -2.27174e-08 0)
(3 -9.49597e-07 0)
(3 -8.45446e-07 0)
(3 -9.67345e-06 0)
(2.99942 0.000864651 0)
(2.98296 0.0278761 0)
(2.88816 0.181003 0)
(2.56543 0.592582 0)
(2.45183 0.720514 0)
(2.36153 0.802964 0)
(2.3379 0.846632 0)
(3 7.21437e-16 0)
(3 9.14971e-16 0)
(3 -2.42488e-16 0)
(3 1.00276e-15 0)
(3 2.82322e-15 0)
(3 4.31191e-15 0)
(3 3.41932e-15 0)
(3 4.32753e-15 0)
(3 6.54004e-15 0)
(3 2.57998e-14 0)
(3 2.48483e-13 0)
(3 1.09392e-11 0)
(3 1.63272e-11 0)
(3 1.17574e-10 0)
(3 -1.6196e-08 0)
(3 -1.07087e-07 0)
(3 -1.35495e-06 0)
(3 -5.97671e-06 0)
(2.99993 0.000121311 0)
(2.99526 0.00821863 0)
(2.91463 0.124025 0)
(2.75892 0.386451 0)
(2.43112 0.758622 0)
(2.35231 0.860755 0)
(3 5.0044e-16 0)
(3 8.23704e-16 0)
(3 9.28698e-16 0)
(3 1.62875e-15 0)
(3 3.07649e-15 0)
(3 3.69946e-15 0)
(3 2.10319e-15 0)
(3 -1.76856e-15 0)
(3 -2.81177e-15 0)
(3 -2.98881e-15 0)
(3 1.23167e-15 0)
(3 4.19517e-13 0)
(3 3.20293e-12 0)
(3 1.28889e-11 0)
(3 1.03688e-10 0)
(3 -1.97875e-09 0)
(3 -2.13532e-08 0)
(3 -1.67571e-06 0)
(3 -1.47265e-06 0)
(2.99999 -7.30065e-07 0)
(2.99787 0.00398399 0)
(2.96971 0.0565562 0)
(2.77959 0.324484 0)
(2.52248 0.653862 0)
(3 -1.21383e-15 0)
(3 -2.86333e-16 0)
(3 1.84007e-15 0)
(3 2.75703e-15 0)
(3 2.94066e-15 0)
(3 2.2218e-15 0)
(3 1.73279e-15 0)
(3 1.14084e-15 0)
(3 2.42115e-16 0)
(3 -9.34939e-16 0)
(3 -1.14515e-15 0)
(3 -6.39068e-16 0)
(3 5.52669e-14 0)
(3 1.08666e-12 0)
(3 1.97311e-11 0)
(3 2.53955e-11 0)
(3 -8.72215e-11 0)
(3 -3.83963e-08 0)
(3 -5.21584e-07 0)
(3 -4.64565e-07 0)
(3 -1.21754e-06 0)
(2.99947 0.000973582 0)
(2.97435 0.0467622 0)
(2.88892 0.193814 0)
(3 1.57023e-16 0)
(3 -1.96419e-16 0)
(3 9.77042e-16 0)
(3 1.25772e-15 0)
(3 -6.85305e-17 0)
(3 -1.09485e-15 0)
(3 -1.00743e-15 0)
(3 1.2434e-15 0)
(3 1.75848e-15 0)
(3 1.60903e-15 0)
(3 5.52937e-16 0)
(3 -3.68798e-16 0)
(3 -2.92868e-16 0)
(3 5.02434e-15 0)
(3 5.58007e-13 0)
(3 5.53004e-12 0)
(3 3.52624e-12 0)
(3 2.9473e-11 0)
(3 -2.05532e-08 0)
(3 -9.7779e-08 0)
(3 -5.67543e-07 0)
(3 -2.23093e-06 0)
(2.99952 0.00102871 0)
(2.99543 0.013279 0)
(3 1.61065e-15 0)
(3 1.19184e-15 0)
(3 7.01002e-16 0)
(3 -6.17826e-16 0)
(3 -2.61713e-15 0)
(3 -2.47795e-15 0)
(3 -2.43332e-15 0)
(3 -1.36861e-15 0)
(3 -7.36451e-16 0)
(3 -2.77219e-16 0)
(3 -8.7654e-16 0)
(3 -1.66936e-15 0)
(3 3.40548e-16 0)
(3 1.07397e-15 0)
(3 4.5564e-15 0)
(3 9.87833e-14 0)
(3 1.35953e-12 0)
(3 9.59135e-12 0)
(3 -2.86765e-11 0)
(3 -4.15547e-09 0)
(3 -9.03558e-08 0)
(3 -5.13608e-07 0)
(3 7.25712e-06 0)
(3 -4.63446e-05 0)
(3 6.18917e-16 0)
(3 9.66448e-17 0)
(3 -9.15173e-16 0)
(3 -1.6965e-15 0)
(3 -1.46421e-15 0)
(3 -1.639e-15 0)
(3 -2.06124e-15 0)
(3 -1.56838e-15 0)
(3 -7.62575e-16 0)
(3 -1.07287e-15 0)
(3 -1.13075e-15 0)
(3 -1.99519e-15 0)
(3 -1.65508e-15 0)
(3 -1.27478e-15 0)
(3 -8.48773e-16 0)
(3 5.75239e-16 0)
(3 4.78388e-14 0)
(3 3.39829e-12 0)
(3 2.677e-12 0)
(3 -1.00885e-11 0)
(3 -4.97469e-09 0)
(3 -3.70779e-08 0)
(3 -6.63982e-08 0)
(3 -1.08184e-05 0)
(3 -7.76575e-16 0)
(3 -1.27945e-15 0)
(3 -1.51086e-15 0)
(3 -1.6289e-15 0)
(3 -6.02187e-16 0)
(3 -6.86137e-16 0)
(3 -6.79242e-16 0)
(3 1.59437e-16 0)
(3 6.74946e-16 0)
(3 1.82844e-15 0)
(3 2.19085e-15 0)
(3 1.63262e-15 0)
(3 -1.45435e-15 0)
(3 -2.57797e-15 0)
(3 -2.65997e-15 0)
(3 -1.97212e-15 0)
(3 -5.79056e-14 0)
(3 -1.37764e-12 0)
(3 -1.08189e-12 0)
(3 1.96119e-10 0)
(3 8.01874e-10 0)
(3 7.26884e-08 0)
(3 1.25165e-06 0)
(3 -1.73077e-06 0)
(3 -1.88453e-15 0)
(3 -1.53239e-15 0)
(3 -4.13644e-16 0)
(3 3.36797e-16 0)
(3 -3.18527e-16 0)
(3 -5.99088e-16 0)
(3 1.38384e-16 0)
(3 3.88542e-16 0)
(3 6.79213e-16 0)
(3 2.07081e-15 0)
(3 1.96234e-15 0)
(3 2.23389e-15 0)
(3 1.52535e-15 0)
(3 -2.35462e-16 0)
(3 -4.06826e-15 0)
(3 -7.74291e-14 0)
(3 -1.38349e-12 0)
(3 -3.79023e-12 0)
(3 5.06399e-11 0)
(3 8.8414e-09 0)
(3 8.38773e-08 0)
(3 6.96719e-08 0)
(3 4.39366e-06 0)
(2.99997 -4.56654e-05 0)
(3 -4.40362e-15 0)
(3 -3.44292e-15 0)
(3 -2.23348e-15 0)
(3 -1.54974e-15 0)
(3 -1.1427e-15 0)
(3 -4.44562e-16 0)
(3 -1.75459e-16 0)
(3 1.04624e-16 0)
(3 4.72882e-16 0)
(3 2.84637e-16 0)
(3 -1.86122e-16 0)
(3 6.19328e-16 0)
(3 1.30933e-15 0)
(3 -2.44449e-15 0)
(3 -6.26508e-13 0)
(3 -4.22358e-12 0)
(3 -4.6402e-12 0)
(3 -5.15677e-12 0)
(3 2.28021e-08 0)
(3 1.09379e-07 0)
(3 4.59793e-07 0)
(3 7.2689e-07 0)
(2.99968 -0.000669615 0)
(2.98952 -0.0193626 0)
(3 -4.54254e-15 0)
(3 -4.52045e-15 0)
(3 -3.93044e-15 0)
(3 -3.769e-15 0)
(3 -2.84176e-15 0)
(3 -1.96448e-15 0)
(3 -2.61713e-15 0)
(3 -1.92523e-15 0)
(3 -5.51762e-16 0)
(3 -4.03799e-17 0)
(3 -4.24142e-16 0)
(3 -1.93377e-17 0)
(3 -5.57135e-14 0)
(3 -9.38884e-13 0)
(3 -1.92905e-11 0)
(3 -1.49116e-11 0)
(3 1.80286e-11 0)
(3 3.56452e-08 0)
(3 4.87129e-07 0)
(3 3.84214e-07 0)
(3 5.21645e-06 0)
(2.99938 -0.00130197 0)
(2.9789 -0.0352628 0)
(2.83679 -0.24994 0)
(3 -3.23177e-15 0)
(3 -3.71241e-15 0)
(3 -3.35182e-15 0)
(3 -3.47553e-15 0)
(3 -3.56252e-15 0)
(3 -3.01534e-15 0)
(3 -2.21177e-15 0)
(3 -2.53121e-15 0)
(3 -1.72688e-15 0)
(3 -8.21473e-16 0)
(3 -1.75108e-15 0)
(3 -4.68428e-13 0)
(3 -3.33419e-12 0)
(3 -1.25785e-11 0)
(3 -1.02606e-10 0)
(3 1.98194e-09 0)
(3 2.29941e-08 0)
(3 1.42479e-06 0)
(3 1.40331e-06 0)
(3 6.34713e-06 0)
(2.99776 -0.00440947 0)
(2.97352 -0.0531795 0)
(2.7671 -0.343449 0)
(2.52561 -0.655881 0)
(3 -1.61613e-15 0)
(3 -9.14533e-16 0)
(3 -1.69937e-15 0)
(3 -1.55934e-15 0)
(3 -2.45927e-15 0)
(3 -2.35743e-15 0)
(3 -1.49468e-15 0)
(3 -2.35058e-15 0)
(3 -7.86412e-15 0)
(3 -2.78547e-14 0)
(3 -2.59751e-13 0)
(3 -1.14619e-11 0)
(3 -1.60973e-11 0)
(3 -1.04813e-10 0)
(3 1.81264e-08 0)
(3 1.02549e-07 0)
(3 1.57251e-06 0)
(3 5.23413e-06 0)
(2.99994 -0.00011013 0)
(2.99514 -0.00835309 0)
(2.91359 -0.12537 0)
(2.7743 -0.383742 0)
(2.41388 -0.789641 0)
(2.3482 -0.848284 0)
(3 1.45243e-16 0)
(3 -8.51792e-16 0)
(3 -1.27004e-15 0)
(3 -1.13316e-15 0)
(3 -8.41e-16 0)
(3 -6.71127e-15 0)
(3 -1.76093e-14 0)
(3 -8.42995e-14 0)
(3 -2.17809e-13 0)
(3 -2.72137e-12 0)
(3 -7.97754e-12 0)
(3 -4.86057e-11 0)
(3 -4.5213e-11 0)
(3 2.1722e-08 0)
(3 9.57338e-07 0)
(3 8.64623e-07 0)
(3 9.8048e-06 0)
(2.99942 -0.000881326 0)
(2.98291 -0.0276 0)
(2.8884 -0.181687 0)
(2.56386 -0.592202 0)
(2.45869 -0.721573 0)
(2.35713 -0.807736 0)
(2.33079 -0.844363 0)
(3 6.39582e-16 0)
(3 -3.22415e-16 0)
(3 -1.84627e-15 0)
(3 -8.83126e-15 0)
(3 -6.48724e-14 0)
(3 -5.93021e-13 0)
(3 -7.09499e-13 0)
(3 -1.10085e-12 0)
(3 -1.21466e-11 0)
(3 -1.33853e-11 0)
(3 -1.56652e-10 0)
(3 1.28295e-08 0)
(3 3.32407e-08 0)
(3 2.8029e-06 0)
(3 4.97972e-06 0)
(2.99999 -1.04211e-05 0)
(2.99778 -0.00386898 0)
(2.95086 -0.0686875 0)
(2.74152 -0.345867 0)
(2.57653 -0.598292 0)
(2.32528 -0.860791 0)
(2.28168 -0.879022 0)
(2.29592 -0.852163 0)
(2.32029 -0.842299 0)
(3 -1.20324e-15 0)
(3 1.20112e-14 0)
(3 -9.10111e-14 0)
(3 -2.01445e-12 0)
(3 -6.11575e-12 0)
(3 -5.71479e-12 0)
(3 -3.23113e-12 0)
(3 -2.42691e-12 0)
(3 -1.58925e-10 0)
(3 1.81913e-10 0)
(3 3.42619e-08 0)
(3 5.73272e-07 0)
(3 2.88999e-06 0)
(3.00001 2.3588e-05 0)
(2.99974 -0.000426518 0)
(2.98418 -0.0212999 0)
(2.88107 -0.154099 0)
(2.65264 -0.481041 0)
(2.34961 -0.836039 0)
(2.3303 -0.829148 0)
(2.31199 -0.839224 0)
(2.3067 -0.842229 0)
(2.31674 -0.839752 0)
(2.33208 -0.835795 0)
(3 3.1091e-16 0)
(3 -3.93165e-13 0)
(3 -2.7456e-11 0)
(3 -2.62934e-11 0)
(3 -3.15487e-11 0)
(3 4.23306e-11 0)
(3 6.70216e-10 0)
(3 5.0072e-10 0)
(3 2.57302e-08 0)
(3 3.77353e-07 0)
(3 7.1978e-06 0)
(3 4.7827e-06 0)
(3.00001 4.65976e-05 0)
(2.99436 -0.00786769 0)
(2.94901 -0.0668433 0)
(2.73149 -0.347331 0)
(2.44517 -0.696818 0)
(2.39841 -0.774232 0)
(2.32697 -0.839185 0)
(2.31379 -0.851256 0)
(2.31499 -0.850395 0)
(2.32732 -0.844748 0)
(2.33744 -0.837008 0)
(2.34217 -0.838183 0)
(3 8.47685e-13 0)
(3 -2.4354e-11 0)
(3 -2.12785e-10 0)
(3 4.65541e-10 0)
(3 2.1849e-09 0)
(3 5.03612e-08 0)
(3 5.46248e-08 0)
(3 2.73276e-07 0)
(3 6.33232e-06 0)
(3 5.9686e-06 0)
(3.00003 7.5625e-05 0)
(2.99847 -0.00221148 0)
(2.97851 -0.0307651 0)
(2.79261 -0.252348 0)
(2.56771 -0.543149 0)
(2.41691 -0.757554 0)
(2.27287 -0.91085 0)
(2.2747 -0.908141 0)
(2.29883 -0.884075 0)
(2.31701 -0.864615 0)
(2.33301 -0.858223 0)
(2.344 -0.852669 0)
(2.35017 -0.844161 0)
(2.35201 -0.84135 0)
(3 1.48298e-11 0)
(3 2.85656e-09 0)
(3 9.69606e-09 0)
(3 9.74071e-08 0)
(3 7.69024e-07 0)
(3 7.47319e-07 0)
(3 1.78747e-06 0)
(3 3.37113e-06 0)
(3.00004 9.10906e-05 0)
(2.99936 -0.000842622 0)
(2.98554 -0.0199311 0)
(2.85734 -0.183396 0)
(2.70787 -0.431328 0)
(2.37192 -0.802063 0)
(2.308 -0.885654 0)
(2.30488 -0.887479 0)
(2.31044 -0.882503 0)
(2.31508 -0.877689 0)
(2.33246 -0.866072 0)
(2.35159 -0.852052 0)
(2.35852 -0.849509 0)
(2.36042 -0.845795 0)
(2.35937 -0.845072 0)
(2.3541 -0.850852 0)
(3 6.40486e-11 0)
(3 1.08522e-07 0)
(3 1.62056e-06 0)
(3 1.6505e-06 0)
(3.00001 8.97592e-06 0)
(2.99999 -2.23912e-05 0)
(2.99999 4.29864e-06 0)
(2.99941 -0.000931871 0)
(2.98795 -0.019715 0)
(2.90688 -0.157568 0)
(2.75912 -0.418886 0)
(2.41535 -0.815366 0)
(2.35062 -0.875892 0)
(2.29195 -0.94198 0)
(2.29409 -0.940931 0)
(2.30806 -0.920724 0)
(2.32869 -0.887334 0)
(2.34173 -0.856833 0)
(2.35734 -0.842384 0)
(2.36399 -0.835977 0)
(2.36358 -0.837773 0)
(2.36158 -0.84157 0)
(2.35739 -0.845062 0)
(2.35278 -0.848322 0)
(3 1.84529e-06 0)
(3 -9.91827e-06 0)
(3.00003 4.07287e-05 0)
(2.99987 -9.94275e-05 0)
(2.99862 -0.00191173 0)
(2.99163 -0.0118686 0)
(2.96354 -0.0568186 0)
(2.90611 -0.16465 0)
(2.75585 -0.426386 0)
(2.60532 -0.696598 0)
(2.4456 -0.845946 0)
(2.33778 -0.935689 0)
(2.28884 -0.913982 0)
(2.30057 -0.896774 0)
(2.31614 -0.885512 0)
(2.34212 -0.878156 0)
(2.35059 -0.860514 0)
(2.36083 -0.841837 0)
(2.36337 -0.839854 0)
(2.36163 -0.841427 0)
(2.35627 -0.844913 0)
(2.34932 -0.848677 0)
(2.34593 -0.85164 0)
(2.34353 -0.850919 0)
(2.99862 -0.00137734 0)
(2.98944 -0.0128086 0)
(2.9627 -0.0480192 0)
(2.90089 -0.131463 0)
(2.80331 -0.274886 0)
(2.68805 -0.457174 0)
(2.51824 -0.693295 0)
(2.39978 -0.893731 0)
(2.21504 -1.07784 0)
(2.17166 -1.09531 0)
(2.1401 -1.04076 0)
(2.18411 -1.00006 0)
(2.25798 -0.950197 0)
(2.29783 -0.899193 0)
(2.32888 -0.858082 0)
(2.34839 -0.838322 0)
(2.35299 -0.832847 0)
(2.35959 -0.833525 0)
(2.35865 -0.836959 0)
(2.35446 -0.843651 0)
(2.34801 -0.848667 0)
(2.34087 -0.851388 0)
(2.33748 -0.853013 0)
(2.33748 -0.851901 0)
(2.93269 -0.0213774 0)
(2.84494 -0.0752977 0)
(2.76135 -0.131439 0)
(2.66272 -0.24729 0)
(2.57708 -0.347469 0)
(2.51037 -0.436993 0)
(2.41512 -0.550094 0)
(2.35275 -0.62817 0)
(2.31157 -0.724342 0)
(2.25784 -0.795229 0)
(2.24889 -0.854372 0)
(2.28318 -0.885521 0)
(2.32815 -0.894033 0)
(2.33647 -0.891137 0)
(2.34372 -0.880482 0)
(2.34544 -0.869519 0)
(2.34522 -0.857011 0)
(2.34634 -0.848654 0)