0.602954 	0.000521833 	-1.99144e-18 	2.96972 	0.0122952 	0
0.608861 	0.0015635 	-3.63536e-18 	2.93129 	0.0287957 	0
0.614769 	0.00260517 	-7.96243e-18 	2.90511 	0.0289569 	0
0.620677 	0.00364683 	-1.18286e-17 	2.86332 	0.116409 	0
0.626584 	0.0046885 	-1.40756e-17 	2.8321 	0.165866 	0
0.632492 	0.00573017 	-1.54004e-17 	2.82614 	0.161707 	0
0.638399 	0.00677183 	-1.52039e-17 	2.78118 	0.231026 	0
0.644307 	0.0078135 	-1.62398e-17 	2.75928 	0.285202 	0
0.650214 	0.00885517 	-1.4506e-17 	2.76046 	0.315566 	0
0.656122 	0.00989683 	-1.36819e-17 	2.72511 	0.355327 	0
0.66203 	0.0109385 	-1.55407e-17 	2.71283 	0.390367 	0
0.667937 	0.0119802 	-1.38385e-17 	2.70023 	0.424572 	0
0.673845 	0.0130218 	-1.49307e-17 	2.68979 	0.458253 	0
0.679752 	0.0140635 	-1.44409e-17 	2.68484 	0.48969 	0
0.68566 	0.0151052 	-1.22786e-17 	2.68391 	0.500936 	0
0.691568 	0.0161468 	-1.62557e-17 	2.69564 	0.497448 	0
0.697475 	0.0171885 	-1.38512e-17 	2.70335 	0.5042 	0
0.703383 	0.0182302 	-5.69203e-18 	2.70443 	0.505519 	0
0.70929 	0.0192718 	-5.29195e-19 	2.70584 	0.501688 	0
0.715198 	0.0203135 	2.6111e-18 	2.70572 	0.498156 	0
0.721105 	0.0213552 	5.57698e-18 	2.71335 	0.493004 	0
0.727013 	0.0223968 	7.62934e-18 	2.71682 	0.49096 	0
0.732921 	0.0234385 	1.16504e-17 	2.72118 	0.488533 	0
0.738828 	0.0244802 	1.83855e-17 	2.72262 	0.485811 	0
0.744736 	0.0255218 	1.97513e-17 	2.72436 	0.482089 	0
0.750643 	0.0265635 	1.59005e-17 	2.72608 	0.477785 	0
0.756551 	0.0276052 	1.11445e-17 	2.72722 	0.476948 	0
0.762459 	0.0286468 	9.33036e-18 	2.72676 	0.477489 	0
0.768366 	0.0296885 	9.90431e-18 	2.72571 	0.477772 	0
0.774274 	0.0307302 	9.37356e-18 	2.72498 	0.47789 	0
0.780181 	0.0317718 	9.18383e-18 	2.7265 	0.47784 	0
0.786089 	0.0328135 	1.05649e-17 	2.72969 	0.478273 	0
0.791996 	0.0338552 	9.20348e-18 	2.73072 	0.478662 	0
0.797904 	0.0348968 	4.07529e-18 	2.73031 	0.478548 	0
0.803812 	0.0359385 	3.46255e-18 	2.72995 	0.478286 	0
0.809719 	0.0369802 	3.04801e-18 	2.72923 	0.478146 	0
0.815627 	0.0380218 	3.28552e-18 	2.72901 	0.479093 	0
0.821534 	0.0390635 	5.27079e-18 	2.72986 	0.480024 	0
0.827442 	0.0401052 	5.23463e-18 	2.73055 	0.480904 	0
0.83335 	0.0411468 	7.48621e-18 	2.73212 	0.482029 	0
0.839257 	0.0421885 	1.06947e-17 	2.73329 	0.482137 	0
0.845165 	0.0432302 	1.12078e-17 	2.73361 	0.482027 	0
0.851072 	0.0442718 	8.93455e-18 	2.73412 	0.482013 	0
0.85698 	0.0453135 	9.68147e-18 	2.73388 	0.481762 	0
0.862887 	0.0463552 	8.71602e-18 	2.7337 	0.481582 	0
0.868795 	0.0473968 	6.62072e-18 	2.73364 	0.481331 	0
0.874703 	0.0484385 	8.75922e-18 	2.73402 	0.48103 	0
0.88061 	0.0494802 	9.29396e-18 	2.7351 	0.481009 	0
0.886518 	0.0505218 	8.40618e-18 	2.73576 	0.481148 	0
0.892425 	0.0515635 	7.48918e-18 	2.7359 	0.481283 	0
0.898333 	0.0526052 	8.95099e-18 	2.7359 	0.481696 	0
0.904241 	0.0536468 	1.26468e-17 	2.73555 	0.482295 	0
0.910148 	0.0546885 	1.60096e-17 	2.7354 	0.482658 	0
0.916056 	0.0557302 	1.42635e-17 	2.73545 	0.48273 	0
0.921963 	0.0567718 	1.23432e-17 	2.73567 	0.482766 	0
0.927871 	0.0578135 	1.47601e-17 	2.73624 	0.482573 	0
0.933778 	0.0588552 	1.72483e-17 	2.7372 	0.482186 	0
0.939686 	0.0598968 	1.62231e-17 	2.73771 	0.482021 	0
0.945594 	0.0609385 	1.02594e-17 	2.73795 	0.482022 	0
0.951501 	0.0619802 	9.15327e-18 	2.73808 	0.482069 	0
0.957409 	0.0630218 	1.29539e-17 	2.73779 	0.482132 	0
0.963316 	0.0640635 	1.10519e-17 	2.73716 	0.482337 	0
0.969224 	0.0651052 	4.40989e-18 	2.737 	0.482719 	0
0.975132 	0.0661468 	6.34172e-18 	2.73716 	0.482917 	0
0.981039 	0.0671885 	1.17654e-17 	2.73751 	0.483115 	0
0.986947 	0.0682302 	1.24554e-17 	2.73847 	0.483285 	0
0.992854 	0.0692718 	1.30002e-17 	2.73922 	0.483223 	0
0.998762 	0.0703135 	1.22433e-17 	2.73916 	0.483012 	0
1.00467 	0.0713552 	1.19508e-17 	2.73902 	0.482763 	0
1.01058 	0.0723968 	1.29284e-17 	2.73889 	0.482459 	0
1.01648 	0.0734385 	8.13896e-18 	2.73881 	0.482295 	0
1.02239 	0.0744802 	7.7351e-18 	2.73879 	0.482345 	0
1.0283 	0.0755218 	1.62109e-17 	2.73894 	0.482449 	0
1.03421 	0.0765635 	1.99857e-17 	2.7391 	0.482541 	0
1.04011 	0.0776052 	2.00714e-17 	2.73944 	0.48277 	0
1.04602 	0.0786468 	1.79209e-17 	2.73989 	0.483129 	0
1.05193 	0.0796885 	1.32772e-17 	2.73997 	0.483236 	0
1.05784 	0.0807302 	9.48567e-18 	2.73996 	0.483288 	0
1.06375 	0.0817718 	1.08663e-17 	2.73982 	0.48326 	0
1.06965 	0.0828135 	1.47266e-17 	2.73973 	0.483229 	0
1.07556 	0.0838552 	1.96416e-17 	2.73961 	0.483147 	0
1.08147 	0.0848968 	1.65911e-17 	2.73971 	0.483012 	0
1.08738 	0.0859385 	1.40065e-17 	2.74017 	0.482837 	0
1.09328 	0.0869802 	1.884e-17 	2.74053 	0.482746 	0
1.09919 	0.0880218 	2.04668e-17 	2.74062 	0.48275 	0
1.1051 	0.0890635 	2.35271e-17 	2.74066 	0.482774 	0
1.11101 	0.0901052 	2.78946e-17 	2.7405 	0.482798 	0
1.11691 	0.0911468 	2.99764e-17 	2.74021 	0.482971 	0
1.12282 	0.0921885 	3.06942e-17 	2.74008 	0.483258 	0
1.12873 	0.0932302 	3.32873e-17 	2.74009 	0.483384 	0
1.13464 	0.0942718 	3.06934e-17 	2.74018 	0.483466 	0
1.14054 	0.0953135 	2.71599e-17 	2.74058 	0.483471 	0
1.14645 	0.0963552 	2.62568e-17 	2.74097 	0.483318 	0
1.15236 	0.0973968 	2.30931e-17 	2.74106 	0.483151 	0
1.15827 	0.0984385 	2.24885e-17 	2.74107 	0.483037 	0
1.16417 	0.0994802 	2.22601e-17 	2.74109 	0.482952 	0
1.17008 	0.100522 	2.18964e-17 	2.7411 	0.48289 	0
1.17599 	0.101564 	2.36491e-17 	2.74098 	0.482926 	0
1.1819 	0.102605 	2.33848e-17 	2.74089 	0.483101 	0
1.1878 	0.103647 	2.19022e-17 	2.74097 	0.483259 	0
1.19371 	0.104689 	2.40955e-17 	2.7411 	0.483372 	0
1.19962 	0.10573 	2.69375e-17 	2.74139 	0.483518 	0
1.20553 	0.106772 	2.44568e-17 	2.74149 	0.483579 	0
1.21143 	0.107814 	2.17399e-17 	2.74151 	0.483573 	0
1.21734 	0.108855 	2.24734e-17 	2.74148 	0.483494 	0
1.22325 	0.109897 	2.36439e-17 	2.7415 	0.48342 	0
1.22916 	0.110939 	2.3054e-17 	2.74158 	0.48337 	0
1.23507 	0.11198 	2.18705e-17 	2.74171 	0.483325 	0
1.24097 	0.113022 	2.02606e-17 	2.74184 	0.483292 	0
1.24688 	0.114064 	1.47505e-17 	2.74189 	0.483293 	0
1.25279 	0.115105 	1.12091e-17 	2.74194 	0.483316 	0
1.2587 	0.116147 	1.02812e-17 	2.74194 	0.483364 	0
1.2646 	0.117189 	8.26598e-18 	2.74189 	0.483445 	0
1.27051 	0.11823 	7.14722e-18 	2.74183 	0.48355 	0
1.27642 	0.119272 	9.19213e-18 	2.74182 	0.483599 	0
1.28233 	0.120314 	1.09013e-17 	2.74184 	0.483608 	0
1.28823 	0.121355 	1.29047e-17 	2.74194 	0.483607 	0
1.29414 	0.122397 	1.24679e-17 	2.74213 	0.48354 	0
1.30005 	0.123439 	6.87889e-18 	2.74232 	0.483428 	0
1.30596 	0.12448 	5.37439e-18 	2.74238 	0.483384 	0
1.31186 	0.125522 	4.79011e-18 	2.74243 	0.483372 	0
1.31777 	0.126564 	9.81979e-18 	2.74241 	0.483382 	0
1.32368 	0.127605 	1.36843e-17 	2.74227 	0.483416 	0
1.32959 	0.128647 	1.21571e-17 	2.74221 	0.483471 	0
1.33549 	0.129689 	1.18147e-17 	2.74222 	0.483501 	0
1.3414 	0.13073 	1.16599e-17 	2.74228 	0.483552 	0
1.34731 	0.131772 	8.40373e-18 	2.74247 	0.483625 	0
1.35322 	0.132814 	2.31724e-19 	2.74264 	0.48364 	0
1.35912 	0.133855 	-2.89213e-18 	2.74262 	0.483626 	0
1.36503 	0.134897 	-1.1901e-18 	2.74259 	0.483605 	0
1.37094 	0.135939 	1.28679e-18 	2.74256 	0.483545 	0
1.37685 	0.13698 	-1.452e-19 	2.74255 	0.483501 	0
1.38275 	0.138022 	-1.17248e-18 	2.74256 	0.483514 	0
1.38866 	0.139064 	1.09994e-18 	2.7426 	0.48355 	0
1.39457 	0.140105 	-2.25457e-20 	2.74265 	0.483571 	0
1.40048 	0.141147 	-2.22347e-18 	2.74271 	0.483603 	0
1.40639 	0.142189 	-2.61684e-18 	2.74278 	0.483634 	0
1.41229 	0.14323 	-1.3556e-18 	2.7428 	0.483639 	0
1.4182 	0.144272 	-1.79419e-18 	2.7428 	0.483637 	0
1.42411 	0.145314 	-3.66563e-18 	2.74277 	0.483624 	0
1.43002 	0.146355 	-6.08746e-18 	2.74275 	0.483611 	0
1.43592 	0.147397 	-9.90622e-18 	2.74275 	0.483606 	0
1.44183 	0.148439 	-1.07251e-17 	2.74275 	0.483601 	0
1.44774 	0.14948 	-4.81284e-18 	2.74279 	0.483604 	0
1.45365 	0.150522 	-2.46182e-18 	2.74286 	0.483612 	0
1.45955 	0.151564 	-3.4215e-18 	2.74291 	0.483616 	0
1.46546 	0.152605 	-3.11572e-18 	2.74293 	0.483619 	0
1.47137 	0.153647 	-5.66495e-18 	2.74295 	0.483632 	0
1.47728 	0.154689 	-6.83148e-18 	2.74296 	0.483646 	0
1.48318 	0.15573 	-2.57328e-18 	2.74297 	0.483651 	0
1.48909 	0.156772 	4.77812e-18 	2.74299 	0.483649 	0
1.495 	0.157814 	8.68362e-18 	2.74302 	0.483646 	0
1.50091 	0.158855 	5.70851e-18 	2.74306 	0.483648 	0
1.50681 	0.159897 	2.81064e-18 	2.74307 	0.483652 	0
1.51272 	0.160939 	4.43203e-18 	2.74307 	0.483656 	0
1.51863 	0.16198 	7.32211e-18 	2.74305 	0.483662 	0
1.52454 	0.163022 	1.36752e-17 	2.74301 	0.483672 	0
1.53044 	0.164064 	1.81609e-17 	2.74298 	0.483675 	0
1.53635 	0.165105 	1.56325e-17 	2.74295 	0.48367 	0
1.54226 	0.166147 	8.70278e-18 	2.74294 	0.483668 	0
1.54817 	0.167189 	4.76476e-18 	2.74296 	0.483669 	0
1.55407 	0.16823 	4.15625e-18 	2.74302 	0.483662 	0
1.55998 	0.169272 	8.25589e-18 	2.74305 	0.483655 	0
1.56589 	0.170314 	1.26257e-17 	2.74307 	0.483651 	0
1.5718 	0.171355 	1.1271e-17 	2.74308 	0.483649 	0
1.57771 	0.172397 	8.7919e-18 	2.74307 	0.483653 	0
1.58361 	0.173439 	4.99499e-18 	2.74308 	0.483664 	0
1.58952 	0.17448 	2.83302e-18 	2.74309 	0.483674 	0
1.59543 	0.175522 	1.80032e-18 	2.7431 	0.483682 	0
1.60134 	0.176564 	4.54559e-19 	2.74312 	0.483693 	0
1.60724 	0.177605 	2.85946e-18 	2.74317 	0.483701 	0
1.61315 	0.178647 	5.25148e-18 	2.74321 	0.483705 	0
1.61906 	0.179689 	3.95654e-18 	2.74321 	0.483697 	0
1.62497 	0.18073 	7.66782e-19 	2.74321 	0.483686 	0
1.63087 	0.181772 	-2.16683e-18 	2.74322 	0.483676 	0
1.63678 	0.182814 	-6.19616e-18 	2.74323 	0.483671 	0
1.64269 	0.183855 	-8.52686e-18 	2.74324 	0.483678 	0
1.6486 	0.184897 	-6.79332e-18 	2.74326 	0.48369 	0
1.6545 	0.185939 	-6.17685e-18 	2.74329 	0.483696 	0
1.66041 	0.18698 	-5.60143e-20 	2.74332 	0.483712 	0
1.66632 	0.188022 	4.13324e-18 	2.74335 	0.483733 	0
1.67223 	0.189064 	4.26403e-18 	2.74337 	0.483747 	0
1.67813 	0.190105 	5.18611e-18 	2.74338 	0.483758 	0
1.68404 	0.191147 	3.7182e-18 	2.74337 	0.483763 	0
1.68995 	0.192189 	1.89387e-18 	2.74335 	0.483763 	0
1.69586 	0.19323 	6.26536e-19 	2.74333 	0.483758 	0
1.70176 	0.194272 	-7.06522e-19 	2.74331 	0.483744 	0
1.70767 	0.195314 	-3.68604e-18 	2.74333 	0.483718 	0
1.71358 	0.196355 	-4.61947e-18 	2.74335 	0.48369 	0
1.71949 	0.197397 	-1.45394e-18 	2.74335 	0.483678 	0
1.72539 	0.198439 	5.32187e-19 	2.74335 	0.483667 	0
