/*--------------------------------*- C++ -*----------------------------------*\
  =========                 |
  \\      /  F ield         | OpenFOAM: The Open Source CFD Toolbox
   \\    /   O peration     | Website:  https://openfoam.org
    \\  /    A nd           | Version:  7
     \\/     M anipulation  |
\*---------------------------------------------------------------------------*/
FoamFile
{
    version     2.0;
    format      ascii;
    class       volVectorField;
    location    "0.1";
    object      U;
}
// * * * * * * * * * * * * * * * * * * * * * * * * * * * * * * * * * * * * * //

dimensions      [0 1 -1 0 0 0 0];

internalField   nonuniform List<vector> 
73728
(
(3 -1.4067e-16 0)
(3 -3.04052e-16 0)
(3 -2.87311e-16 0)
(3 -3.07999e-16 0)
(3 -3.3736e-16 0)
(3 -3.66043e-16 0)
(3 -5.96256e-16 0)
(3 2.70583e-18 0)
(3 6.19038e-16 0)
(3 5.08444e-16 0)
(3 9.07678e-16 0)
(3 1.55779e-15 0)
(3 1.30833e-15 0)
(3 3.46645e-16 0)
(3 2.38517e-16 0)
(3 7.64286e-16 0)
(3 1.38909e-15 0)
(3 6.52076e-16 0)
(3 -3.17881e-16 0)
(3 -3.14104e-16 0)
(3 6.76326e-16 0)
(3 4.84053e-16 0)
(3 -1.13359e-16 0)
(3 -4.65693e-16 0)
(3 -7.31238e-16 0)
(3 -4.4606e-17 0)
(3 -3.46484e-16 0)
(3 -1.09642e-15 0)
(3 -4.63939e-17 0)
(3 1.62471e-16 0)
(3 -2.69221e-16 0)
(3 -1.58954e-16 0)
(3 2.50196e-16 0)
(3 2.52569e-16 0)
(3 -1.27523e-16 0)
(3 -2.52751e-16 0)
(3 -1.24438e-15 0)
(3 -1.42163e-15 0)
(3 -1.98282e-15 0)
(3 -2.60226e-15 0)
(3 -1.6668e-15 0)
(3 -1.77285e-15 0)
(3 -8.04107e-16 0)
(3 -3.10262e-16 0)
(3 8.74356e-17 0)
(3 -4.27114e-16 0)
(3 -1.34341e-16 0)
(3 1.16065e-15 0)
(3 1.31979e-15 0)
(3 7.95034e-16 0)
(3 -2.42668e-16 0)
(3 -1.89115e-16 0)
(3 -1.36303e-16 0)
(3 2.32077e-16 0)
(3 1.83199e-16 0)
(3 3.88549e-16 0)
(3 3.08569e-16 0)
(3 -1.14615e-15 0)
(3 -1.29547e-15 0)
(3 4.30305e-19 0)
(3 2.42666e-16 0)
(3 1.64271e-15 0)
(3 1.7925e-15 0)
(3 2.1434e-16 0)
(3 3.06486e-16 0)
(3 9.97817e-16 0)
(3 3.41856e-16 0)
(3 6.69865e-16 0)
(3 9.43255e-16 0)
(3 1.78096e-15 0)
(3 2.08266e-15 0)
(3 1.95484e-15 0)
(3 1.47576e-15 0)
(3 3.58258e-17 0)
(3 -3.796e-16 0)
(3 -1.17274e-15 0)
(3 -1.69375e-15 0)
(3 -1.39259e-15 0)
(3 -9.00875e-16 0)
(3 -1.15172e-17 0)
(3 4.03104e-16 0)
(3 8.8963e-16 0)
(3 1.23186e-15 0)
(3 1.68488e-15 0)
(3 1.68693e-15 0)
(3 -8.77733e-16 0)
(3 -1.5252e-15 0)
(3 -1.53599e-15 0)
(3 -8.17822e-16 0)
(3 -8.85608e-16 0)
(3 -2.10904e-15 0)
(3 -1.36984e-15 0)
(3 -9.04837e-17 0)
(3 7.74928e-16 0)
(3 -4.21676e-16 0)
(3 -1.5949e-15 0)
(3 -1.11696e-16 0)
(3 -5.38555e-16 0)
(3 -6.63228e-16 0)
(3 -7.80277e-16 0)
(3 -1.13895e-16 0)
(3 3.13994e-16 0)
(3 -1.63607e-16 0)
(3 -1.12586e-16 0)
(3 2.32158e-16 0)
(3 3.82643e-16 0)
(3 1.14894e-15 0)
(3 1.00387e-15 0)
(3 6.97078e-16 0)
(3 9.95602e-16 0)
(3 1.29329e-15 0)
(3 2.10278e-15 0)
(3 2.24571e-15 0)
(3 8.19641e-16 0)
(3 -2.80288e-16 0)
(3 4.29871e-16 0)
(3 2.02218e-15 0)
(3 9.63922e-16 0)
(3 -7.378e-16 0)
(3 -2.2576e-15 0)
(3 -2.52751e-15 0)
(3 -7.06031e-16 0)
(3 -7.71982e-16 0)
(3 -1.58726e-15 0)
(3 -6.46852e-16 0)
(3 2.57134e-16 0)
(3 -2.0444e-16 0)
(3 -2.10485e-16 0)
(3 1.95198e-16 0)
(3 5.33887e-16 0)
(3 2.89079e-16 0)
(3 2.13764e-16 0)
(3 -2.00048e-15 0)
(3 -2.13859e-15 0)
(3 -3.30358e-15 0)
(3 -3.66721e-15 0)
(3 -3.68134e-15 0)
(3 -3.75085e-15 0)
(3 -8.7038e-16 0)
(3 1.92768e-15 0)
(3 2.65001e-15 0)
(3 2.12157e-15 0)
(3 2.48909e-15 0)
(3 2.71693e-15 0)
(3 1.96543e-15 0)
(3 2.59739e-16 0)
(3 -7.39289e-16 0)
(3 -5.46034e-16 0)
(3 -3.02806e-16 0)
(3 -8.41828e-16 0)
(3 -1.15637e-15 0)
(3 -8.04121e-16 0)
(3 -3.37637e-16 0)
(3 -1.50997e-15 0)
(3 -7.38356e-16 0)
(3 7.18661e-16 0)
(3 5.40112e-16 0)
(3 1.09287e-15 0)
(3 1.42099e-15 0)
(3 -4.57498e-16 0)
(3 1.30768e-15 0)
(3 2.96112e-15 0)
(3 1.88897e-15 0)
(3 1.07501e-15 0)
(3 1.07449e-15 0)
(3 1.35681e-15 0)
(3 2.30425e-15 0)
(3 2.41298e-15 0)
(3 9.43181e-16 0)
(3 -2.34859e-15 0)
(3 -3.03851e-15 0)
(3 -2.05942e-15 0)
(3 -1.80632e-15 0)
(3 -9.58371e-16 0)
(3 -9.05831e-17 0)
(3 4.72639e-16 0)
(3 7.53786e-16 0)
(3 1.91999e-15 0)
(3 2.18471e-15 0)
(3 1.98668e-15 0)
(3 1.81004e-15 0)
(3 -1.56009e-15 0)
(3 -3.33692e-15 0)
(3 -3.60203e-15 0)
(3 -3.20486e-15 0)
(3 -3.22038e-15 0)
(3 -2.84364e-15 0)
(3 -3.05883e-16 0)
(3 7.4004e-16 0)
(3 1.44392e-15 0)
(3 -3.00292e-16 0)
(3 -2.23231e-15 0)
(3 2.16631e-17 0)
(3 -3.82474e-17 0)
(3 -7.00227e-16 0)
(3 -6.3776e-16 0)
(3 -5.149e-16 0)
(3 -5.21227e-16 0)
(3 -3.98288e-16 0)
(3 -6.82251e-16 0)
(3 -1.27447e-15 0)
(3 -1.00989e-15 0)
(3 -8.80904e-16 0)
(3 -9.64296e-16 0)
(3 -1.34294e-15 0)
(3 -2.35564e-16 0)
(3 -1.36954e-16 0)
(3 6.28858e-16 0)
(3 4.88611e-16 0)
(3 -1.49555e-15 0)
(3 -9.04246e-16 0)
(3 -2.89528e-16 0)
(3 1.41998e-15 0)
(3 2.20269e-15 0)
(3 1.55892e-15 0)
(3 5.97467e-16 0)
(3 -6.41978e-16 0)
(3 -1.31208e-15 0)
(3 -1.0906e-15 0)
(3 -9.30329e-16 0)
(3 -9.57706e-16 0)
(3 -5.86316e-16 0)
(3 -7.8862e-16 0)
(3 -6.79457e-16 0)
(3 -3.54911e-16 0)
(3 2.09938e-16 0)
(3 1.34447e-15 0)
(3 1.94842e-15 0)
(3 -2.42304e-16 0)
(3 -1.09226e-15 0)
(3 -2.39518e-15 0)
(3 -3.11663e-15 0)
(3 -4.65404e-15 0)
(3 -4.22169e-15 0)
(3 -2.0553e-15 0)
(3 1.19745e-16 0)
(3 1.8415e-15 0)
(3 2.86073e-15 0)
(3 3.37462e-15 0)
(3 3.03077e-15 0)
(3 9.39418e-16 0)
(3 -1.07824e-15 0)
(3 -7.62646e-16 0)
(3 -2.97233e-17 0)
(3 -3.71735e-16 0)
(3 -2.11763e-15 0)
(3 -1.8629e-15 0)
(3 -1.80029e-15 0)
(3 -1.91141e-15 0)
(3 -2.49891e-15 0)
(3 1.51292e-15 0)
(3 2.38655e-15 0)
(3 2.16098e-15 0)
(3 2.12223e-15 0)
(3 2.58686e-15 0)
(3 2.2037e-15 0)
(3 2.25905e-15 0)
(3 2.66909e-15 0)
(3 3.58369e-15 0)
(3 1.29466e-15 0)
(3 3.88829e-16 0)
(3 -1.1578e-16 0)
(3 -6.57334e-16 0)
(3 -1.74034e-15 0)
(3 -2.08979e-15 0)
(3 -1.4206e-15 0)
(3 -3.56644e-15 0)
(3 -3.73148e-15 0)
(3 -3.26302e-15 0)
(3 -1.0935e-15 0)
(3 6.07818e-16 0)
(3 1.10947e-15 0)
(3 2.73904e-16 0)
(3 1.4261e-15 0)
(3 2.75018e-15 0)
(3 3.29342e-15 0)
(3 3.35164e-15 0)
(3 7.00035e-16 0)
(3 -1.29204e-15 0)
(3 -1.82154e-15 0)
(3 -2.56044e-15 0)
(3 -1.85067e-15 0)
(3 -8.53351e-16 0)
(3 -4.47821e-16 0)
(3 -2.31265e-16 0)
(3 -5.29523e-16 0)
(3 -2.03333e-15 0)
(3 -2.8765e-15 0)
(3 1.80262e-17 0)
(3 9.60078e-17 0)
(3 1.9302e-16 0)
(3 3.19939e-16 0)
(3 -1.25137e-16 0)
(3 -1.34773e-15 0)
(3 -1.2688e-15 0)
(3 -1.19507e-15 0)
(3 -1.04926e-15 0)
(3 -8.86839e-16 0)
(3 -9.84052e-16 0)
(3 -8.81211e-16 0)
(3 -1.87649e-15 0)
(3 -1.95812e-15 0)
(3 -2.07408e-15 0)
(3 -1.18894e-15 0)
(3 -9.79896e-16 0)
(3 -1.84362e-15 0)
(3 -1.66044e-15 0)
(3 -1.25073e-15 0)
(3 -5.76497e-16 0)
(3 -1.83125e-16 0)
(3 3.44632e-18 0)
(3 -1.90067e-16 0)
(3 -1.22597e-15 0)
(3 -1.64795e-15 0)
(3 -8.8196e-16 0)
(3 3.60132e-16 0)
(3 -8.35169e-17 0)
(3 -1.14974e-15 0)
(3 -9.37981e-16 0)
(3 -6.68572e-16 0)
(3 -7.83152e-16 0)
(3 -3.37841e-16 0)
(3 8.8093e-16 0)
(3 1.17607e-15 0)
(3 3.88243e-17 0)
(3 -7.09137e-16 0)
(3 -1.09271e-15 0)
(3 -1.20156e-15 0)
(3 -1.15549e-15 0)
(3 -9.61143e-16 0)
(3 -1.17922e-15 0)
(3 -1.45854e-15 0)
(3 -4.54051e-17 0)
(3 1.28683e-15 0)
(3 2.04403e-15 0)
(3 1.47381e-15 0)
(3 -3.32286e-16 0)
(3 -1.79949e-15 0)
(3 -1.02182e-15 0)
(3 -4.38295e-16 0)
(3 -1.81193e-15 0)
(3 -2.24192e-15 0)
(3 -2.13756e-15 0)
(3 -2.13889e-15 0)
(3 -1.77408e-15 0)
(3 -1.01952e-15 0)
(3 6.57429e-16 0)
(3 1.34628e-15 0)
(3 2.29799e-15 0)
(3 2.56079e-15 0)
(3 2.60445e-15 0)
(3 2.70461e-15 0)
(3 1.09303e-15 0)
(3 1.20759e-15 0)
(3 2.54491e-15 0)
(3 2.08239e-15 0)
(3 6.84526e-16 0)
(3 -1.98901e-16 0)
(3 -1.72511e-15 0)
(3 -3.6036e-15 0)
(3 -4.9718e-15 0)
(3 -4.97773e-15 0)
(3 -4.89503e-15 0)
(3 -4.72801e-15 0)
(3 -2.48117e-15 0)
(3 6.32759e-16 0)
(3 9.52947e-16 0)
(3 1.55552e-16 0)
(3 -9.89876e-16 0)
(3 9.60102e-16 0)
(3 2.04761e-15 0)
(3 3.50252e-15 0)
(3 3.60354e-15 0)
(3 2.25108e-15 0)
(3 8.41231e-17 0)
(3 -2.03042e-15 0)
(3 -2.32934e-15 0)
(3 -1.00418e-15 0)
(3 2.15742e-15 0)
(3 8.19461e-16 0)
(3 -5.97928e-16 0)
(3 -2.13296e-15 0)
(3 -2.94988e-15 0)
(3 -3.34256e-15 0)
(3 -3.91023e-17 0)
(3 -4.17479e-16 0)
(3 -2.10235e-16 0)
(3 -4.3854e-16 0)
(3 -5.72331e-16 0)
(3 -2.32141e-16 0)
(3 -3.33532e-16 0)
(3 -2.22401e-16 0)
(3 -6.33198e-17 0)
(3 9.98414e-17 0)
(3 -3.85635e-16 0)
(3 -9.28589e-16 0)
(3 -1.08458e-15 0)
(3 -1.13246e-15 0)
(3 -5.06878e-16 0)
(3 -1.11234e-15 0)
(3 -1.9806e-15 0)
(3 -1.81102e-15 0)
(3 -1.53667e-15 0)
(3 -1.30223e-15 0)
(3 -6.91958e-16 0)
(3 -6.82611e-16 0)
(3 -6.53832e-16 0)
(3 -7.87821e-16 0)
(3 -1.48279e-15 0)
(3 -1.64027e-15 0)
(3 -4.71935e-18 0)
(3 1.36888e-15 0)
(3 -5.30171e-18 0)
(3 -8.42819e-16 0)
(3 -6.31377e-16 0)
(3 -1.01694e-15 0)
(3 -1.16207e-15 0)
(3 -3.86703e-16 0)
(3 -1.92751e-16 0)
(3 -3.69013e-16 0)
(3 -3.27999e-16 0)
(3 7.13518e-17 0)
(3 6.62765e-16 0)
(3 8.83801e-16 0)
(3 1.93157e-15 0)
(3 1.96221e-15 0)
(3 -5.98361e-17 0)
(3 -2.22149e-15 0)
(3 -2.83498e-15 0)
(3 -2.41551e-15 0)
(3 -5.56975e-17 0)
(3 1.09576e-15 0)
(3 9.42793e-16 0)
(3 1.83554e-15 0)
(3 1.98908e-15 0)
(3 1.37437e-15 0)
(3 -6.28946e-16 0)
(3 -1.02709e-15 0)
(3 -2.13522e-15 0)
(3 -1.89469e-15 0)
(3 -1.23843e-15 0)
(3 -5.22856e-16 0)
(3 5.62113e-16 0)
(3 2.1627e-15 0)
(3 1.4419e-15 0)
(3 3.78793e-16 0)
(3 1.01917e-15 0)
(3 1.591e-15 0)
(3 2.05244e-15 0)
(3 1.59127e-15 0)
(3 4.30336e-16 0)
(3 2.254e-16 0)
(3 2.55559e-16 0)
(3 1.34727e-16 0)
(3 -4.22541e-16 0)
(3 -1.57133e-15 0)
(3 -3.31994e-15 0)
(3 -4.07359e-15 0)
(3 -4.55015e-15 0)
(3 -3.26875e-15 0)
(3 -1.14416e-15 0)
(3 -2.23433e-17 0)
(3 -3.47844e-16 0)
(3 -2.22432e-15 0)
(3 -2.18095e-15 0)
(3 -1.44309e-15 0)
(3 1.39327e-15 0)
(3 4.49977e-15 0)
(3 4.7972e-15 0)
(3 4.6019e-15 0)
(3 2.58441e-15 0)
(3 4.23336e-16 0)
(3 6.8848e-16 0)
(3 1.48021e-15 0)
(3 3.28211e-15 0)
(3 3.04085e-15 0)
(3 4.27894e-16 0)
(3 -1.84029e-15 0)
(3 -1.85908e-15 0)
(3 -2.1715e-15 0)
(3 -2.47157e-16 0)
(3 -7.09485e-16 0)
(3 -9.923e-16 0)
(3 -1.20448e-15 0)
(3 -1.15155e-15 0)
(3 -4.33532e-16 0)
(3 -7.43884e-17 0)
(3 2.19863e-17 0)
(3 1.73942e-16 0)
(3 -7.44517e-17 0)
(3 -1.50925e-15 0)
(3 -2.15458e-15 0)
(3 -1.55537e-15 0)
(3 9.60779e-17 0)
(3 5.80992e-16 0)
(3 9.40893e-16 0)
(3 6.65864e-17 0)
(3 -2.27993e-15 0)
(3 -2.53936e-15 0)
(3 -2.23433e-15 0)
(3 -5.06236e-16 0)
(3 8.10353e-17 0)
(3 -1.31609e-15 0)
(3 -2.23136e-15 0)
(3 -2.34483e-15 0)
(3 -1.57883e-15 0)
(3 -7.90507e-16 0)
(3 -7.45769e-16 0)
(3 -7.07097e-16 0)
(3 -5.81882e-16 0)
(3 -7.66231e-16 0)
(3 -6.77103e-16 0)
(3 -5.69997e-17 0)
(3 -9.87042e-16 0)
(3 -9.18731e-16 0)
(3 -2.95502e-16 0)
(3 1.07536e-15 0)
(3 1.3756e-15 0)
(3 1.79167e-15 0)
(3 2.40585e-15 0)
(3 2.89518e-15 0)
(3 3.7364e-15 0)
(3 3.63593e-15 0)
(3 -5.54002e-17 0)
(3 -3.06413e-15 0)
(3 -2.66146e-15 0)
(3 -1.775e-15 0)
(3 5.13407e-16 0)
(3 1.97304e-15 0)
(3 4.67328e-15 0)
(3 5.73491e-15 0)
(3 4.93457e-15 0)
(3 1.66296e-15 0)
(3 8.15546e-16 0)
(3 2.09516e-16 0)
(3 -7.13568e-16 0)
(3 -9.02389e-16 0)
(3 -1.18958e-15 0)
(3 -1.33091e-15 0)
(3 -1.1826e-15 0)
(3 -1.06001e-15 0)
(3 -1.11284e-15 0)
(3 -9.3012e-16 0)
(3 2.17014e-16 0)
(3 1.55653e-15 0)
(3 1.0422e-15 0)
(3 -1.52398e-15 0)
(3 -1.39261e-15 0)
(3 -1.28012e-15 0)
(3 -1.47661e-15 0)
(3 -1.68832e-15 0)
(3 -1.42531e-15 0)
(3 -8.94968e-16 0)
(3 -5.18034e-16 0)
(3 -4.14206e-16 0)
(3 -1.58992e-15 0)
(3 -2.83416e-15 0)
(3 -2.87475e-15 0)
(3 -3.39745e-15 0)
(3 -4.23582e-15 0)
(3 -4.55294e-15 0)
(3 -3.35481e-15 0)
(3 5.50944e-16 0)
(3 2.73145e-15 0)
(3 4.27752e-15 0)
(3 5.22437e-15 0)
(3 3.71857e-15 0)
(3 1.99592e-15 0)
(3 2.10997e-15 0)
(3 2.57155e-15 0)
(3 3.28617e-15 0)
(3 3.87789e-15 0)
(3 1.50211e-15 0)
(3 1.02295e-15 0)
(3 7.65449e-16 0)
(3 4.37181e-16 0)
(3 7.82507e-17 0)
(3 -3.0305e-17 0)
(3 -2.76316e-16 0)
(3 -5.40925e-16 0)
(3 -7.52712e-16 0)
(3 -1.2264e-15 0)
(3 -8.01631e-16 0)
(3 -6.64827e-16 0)
(3 -6.40051e-16 0)
(3 -8.6679e-16 0)
(3 -1.60405e-15 0)
(3 -1.72222e-15 0)
(3 -1.87471e-15 0)
(3 -1.75716e-15 0)
(3 -9.78131e-16 0)
(3 3.67601e-16 0)
(3 1.14522e-15 0)
(3 -1.52142e-15 0)
(3 -3.41621e-15 0)
(3 -2.94248e-15 0)
(3 -2.15235e-15 0)
(3 -1.6006e-15 0)
(3 -9.48266e-16 0)
(3 -1.23404e-15 0)
(3 -1.48768e-15 0)
(3 -1.5972e-15 0)
(3 -1.71151e-15 0)
(3 -1.23741e-15 0)
(3 2.12464e-17 0)
(3 6.89121e-16 0)
(3 9.83169e-16 0)
(3 9.55577e-16 0)
(3 4.44289e-16 0)
(3 -5.49303e-16 0)
(3 -4.64525e-16 0)
(3 8.10464e-16 0)
(3 1.59848e-15 0)
(3 1.76135e-15 0)
(3 2.33985e-15 0)
(3 2.3033e-15 0)
(3 1.99356e-15 0)
(3 2.66808e-15 0)
(3 2.65114e-15 0)
(3 5.08238e-16 0)
(3 -1.65786e-15 0)
(3 -2.98853e-15 0)
(3 -3.20621e-15 0)
(3 -1.7755e-15 0)
(3 9.07872e-16 0)
(3 1.5976e-15 0)
(3 2.59682e-15 0)
(3 3.93324e-15 0)
(3 4.85782e-15 0)
(3 5.17112e-15 0)
(3 3.51429e-15 0)
(3 3.44416e-16 0)
(3 -1.29658e-15 0)
(3 -1.72947e-15 0)
(3 -3.66764e-15 0)
(3 -4.29676e-15 0)
(3 -3.16393e-15 0)
(3 -2.21321e-15 0)
(3 -1.93825e-15 0)
(3 -9.56477e-16 0)
(3 3.09776e-16 0)
(3 6.45766e-16 0)
(3 2.80893e-16 0)
(3 1.08987e-16 0)
(3 -2.21692e-15 0)
(3 -2.2037e-15 0)
(3 -1.89464e-15 0)
(3 -1.25919e-15 0)
(3 -1.21619e-15 0)
(3 -9.58296e-16 0)
(3 -1.03484e-15 0)
(3 -3.30675e-15 0)
(3 -5.20581e-15 0)
(3 -6.75321e-15 0)
(3 -6.5216e-15 0)
(3 -4.39099e-15 0)
(3 -3.62825e-15 0)
(3 -1.58473e-16 0)
(3 1.76749e-15 0)
(3 2.57612e-15 0)
(3 3.96524e-15 0)
(3 3.89384e-15 0)
(3 2.38112e-15 0)
(3 -2.41352e-16 0)
(3 -1.33159e-16 0)
(3 4.42634e-16 0)
(3 1.19064e-15 0)
(3 4.60207e-15 0)
(3 5.6625e-15 0)
(3 3.62427e-15 0)
(3 2.5001e-15 0)
(3 2.14331e-15 0)
(3 4.77225e-16 0)
(3 4.6053e-16 0)
(3 3.45496e-16 0)
(3 3.75148e-16 0)
(3 4.02101e-16 0)
(3 2.33177e-16 0)
(3 3.70971e-16 0)
(3 3.50354e-16 0)
(3 3.31856e-16 0)
(3 -1.96048e-16 0)
(3 -5.87752e-16 0)
(3 -4.60994e-16 0)
(3 -1.23409e-15 0)
(3 -1.48254e-15 0)
(3 -7.26256e-16 0)
(3 9.21767e-17 0)
(3 -3.38574e-16 0)
(3 -4.88911e-16 0)
(3 -1.22065e-15 0)
(3 -1.6565e-15 0)
(3 -1.03291e-15 0)
(3 -8.41835e-16 0)
(3 -4.99947e-16 0)
(3 -4.48764e-16 0)
(3 -1.37135e-16 0)
(3 1.87805e-16 0)
(3 8.36491e-17 0)
(3 6.26664e-16 0)
(3 8.61636e-16 0)
(3 1.64925e-15 0)
(3 2.48438e-15 0)
(3 1.97756e-15 0)
(3 1.08406e-15 0)
(3 1.07044e-15 0)
(3 7.58536e-16 0)
(3 8.17569e-16 0)
(3 1.25343e-15 0)
(3 1.51149e-15 0)
(3 1.69175e-15 0)
(3 1.95182e-15 0)
(3 9.69204e-16 0)
(3 9.08344e-16 0)
(3 1.16605e-15 0)
(3 1.27268e-15 0)
(3 -1.41639e-15 0)
(3 -3.59311e-15 0)
(3 -4.35466e-15 0)
(3 -3.5298e-15 0)
(3 -2.87051e-15 0)
(3 -2.18361e-15 0)
(3 -9.01407e-16 0)
(3 1.70201e-15 0)
(3 3.46095e-15 0)
(3 4.02132e-15 0)
(3 3.51262e-15 0)
(3 2.30284e-15 0)
(3 -9.55393e-16 0)
(3 -1.92156e-15 0)
(3 -2.63572e-15 0)
(3 -3.42044e-15 0)
(3 -4.38236e-15 0)
(3 -3.34112e-15 0)
(3 -2.05387e-15 0)
(3 -1.11101e-15 0)
(3 -3.80381e-16 0)
(3 1.6722e-15 0)
(3 2.98664e-15 0)
(3 2.18334e-15 0)
(3 1.18289e-15 0)
(3 5.08566e-16 0)
(3 2.69489e-16 0)
(3 6.83762e-16 0)
(3 6.38695e-16 0)
(3 -1.35094e-15 0)
(3 -2.16805e-15 0)
(3 -3.4216e-15 0)
(3 -5.48403e-15 0)
(3 -6.23244e-15 0)
(3 -5.37025e-15 0)
(3 -4.28119e-15 0)
(3 -2.74285e-15 0)
(3 1.64783e-16 0)
(3 2.51101e-15 0)
(3 2.33291e-15 0)
(3 2.38291e-15 0)
(3 2.37435e-15 0)
(3 1.67271e-15 0)
(3 4.25156e-16 0)
(3 1.78499e-16 0)
(3 7.0883e-16 0)
(3 9.61956e-16 0)
(3 2.56651e-15 0)
(3 4.26531e-15 0)
(3 4.42769e-15 0)
(3 3.59276e-15 0)
(3 3.59322e-15 0)
(3 4.36946e-17 0)
(3 2.04241e-17 0)
(3 2.94055e-16 0)
(3 7.5048e-16 0)
(3 1.23343e-15 0)
(3 1.47394e-15 0)
(3 1.5125e-15 0)
(3 1.57673e-15 0)
(3 1.12566e-15 0)
(3 6.32584e-16 0)
(3 5.02444e-16 0)
(3 4.33625e-16 0)
(3 7.9911e-16 0)
(3 7.53275e-16 0)
(3 2.564e-16 0)
(3 -9.25675e-16 0)
(3 -1.26483e-15 0)
(3 5.2835e-16 0)
(3 1.03127e-15 0)
(3 2.10645e-16 0)
(3 -3.39623e-16 0)
(3 -2.3228e-16 0)
(3 -7.99532e-16 0)
(3 -9.57363e-16 0)
(3 -1.12478e-15 0)
(3 5.1635e-16 0)
(3 1.52853e-15 0)
(3 1.98025e-15 0)
(3 1.26144e-15 0)
(3 8.611e-16 0)
(3 1.12802e-15 0)
(3 2.20486e-15 0)
(3 3.05738e-15 0)
(3 2.57136e-15 0)
(3 2.17876e-15 0)
(3 1.61591e-15 0)
(3 1.2632e-15 0)
(3 1.1585e-15 0)
(3 3.61258e-16 0)
(3 4.1034e-16 0)
(3 2.01988e-16 0)
(3 -1.461e-15 0)
(3 -2.97727e-15 0)
(3 -1.14862e-15 0)
(3 -1.03303e-15 0)
(3 -1.97824e-15 0)
(3 -2.03024e-15 0)
(3 -3.92831e-15 0)
(3 -4.18191e-15 0)
(3 -3.484e-15 0)
(3 -1.90469e-15 0)
(3 7.92142e-16 0)
(3 1.85104e-15 0)
(3 1.9828e-15 0)
(3 1.7884e-15 0)
(3 1.76169e-15 0)
(3 1.98501e-16 0)
(3 -1.66708e-15 0)
(3 -2.23206e-15 0)
(3 -2.34542e-15 0)
(3 -2.84779e-15 0)
(3 -2.91819e-15 0)
(3 -1.67269e-15 0)
(3 7.98782e-16 0)
(3 1.46207e-15 0)
(3 2.21757e-15 0)
(3 2.98901e-15 0)
(3 2.64108e-15 0)
(3 2.62131e-15 0)
(3 4.92714e-16 0)
(3 -4.72451e-16 0)
(3 1.95599e-16 0)
(3 1.19362e-15 0)
(3 -1.25959e-15 0)
(3 -1.66993e-15 0)
(3 -2.28452e-15 0)
(3 -2.7698e-15 0)
(3 -3.71396e-15 0)
(3 -3.31327e-15 0)
(3 -2.61321e-15 0)
(3 -1.22849e-15 0)
(3 6.62881e-16 0)
(3 1.39014e-15 0)
(3 1.33824e-15 0)
(3 1.79548e-15 0)
(3 1.80249e-15 0)
(3 6.20474e-16 0)
(3 2.12965e-16 0)
(3 -1.4423e-16 0)
(3 1.4767e-15 0)
(3 2.09835e-15 0)
(3 1.96081e-15 0)
(3 9.46066e-16 0)
(3 1.28676e-15 0)
(3 3.03584e-15 0)
(3 3.75893e-15 0)
(3 -2.74556e-16 0)
(3 -1.04629e-17 0)
(3 2.22673e-16 0)
(3 4.48396e-16 0)
(3 8.56289e-16 0)
(3 1.0268e-15 0)
(3 7.36748e-16 0)
(3 6.11824e-16 0)
(3 5.57812e-16 0)
(3 7.06869e-16 0)
(3 1.24202e-15 0)
(3 1.91934e-15 0)
(3 2.32332e-15 0)
(3 8.66589e-16 0)
(3 -7.55745e-16 0)
(3 -2.29484e-15 0)
(3 -1.68204e-15 0)
(3 2.62282e-15 0)
(3 3.20666e-15 0)
(3 2.37989e-15 0)
(3 1.50657e-15 0)
(3 1.1059e-15 0)
(3 -4.79987e-16 0)
(3 -3.08654e-16 0)
(3 -1.58085e-15 0)
(3 -8.85584e-16 0)
(3 1.39571e-15 0)
(3 2.98452e-15 0)
(3 2.99841e-15 0)
(3 2.88577e-15 0)
(3 2.65745e-15 0)
(3 3.09363e-15 0)
(3 2.74817e-15 0)
(3 1.66124e-15 0)
(3 1.84012e-15 0)
(3 1.1444e-15 0)
(3 -2.30392e-16 0)
(3 -4.50759e-16 0)
(3 -1.20217e-16 0)
(3 -6.97041e-16 0)
(3 -1.33198e-15 0)
(3 -3.1592e-15 0)
(3 -5.68689e-15 0)
(3 -6.23161e-15 0)
(3 -5.71294e-15 0)
(3 -3.33993e-15 0)
(3 -1.31088e-15 0)
(3 -2.1233e-15 0)
(3 -2.85416e-15 0)
(3 -2.74476e-15 0)
(3 -1.12036e-15 0)
(3 -1.02382e-15 0)
(3 -1.13869e-15 0)
(3 -1.12385e-15 0)
(3 -3.9029e-16 0)
(3 4.22704e-17 0)
(3 -6.28946e-16 0)
(3 -1.28607e-15 0)
(3 -1.25181e-15 0)
(3 -5.83416e-16 0)
(3 6.49007e-16 0)
(3 1.55985e-15 0)
(3 1.62245e-15 0)
(3 5.70835e-16 0)
(3 3.53911e-16 0)
(3 9.16137e-17 0)
(3 6.99747e-16 0)
(3 -8.1772e-17 0)
(3 -1.38223e-15 0)
(3 -2.79217e-15 0)
(3 -3.02761e-15 0)
(3 -2.53552e-15 0)
(3 -2.54093e-15 0)
(3 -1.05529e-15 0)
(3 6.40957e-16 0)
(3 5.12443e-16 0)
(3 -7.42226e-16 0)
(3 -1.95382e-15 0)
(3 -2.07683e-15 0)
(3 9.84341e-16 0)
(3 1.38808e-15 0)
(3 1.15077e-15 0)
(3 5.9509e-16 0)
(3 1.05099e-15 0)
(3 1.81869e-15 0)
(3 2.23898e-15 0)
(3 1.78274e-15 0)
(3 1.2101e-15 0)
(3 5.69663e-16 0)
(3 4.08324e-16 0)
(3 8.03152e-16 0)
(3 5.16407e-16 0)
(3 -6.4984e-16 0)
(3 -9.2108e-16 0)
(3 5.32134e-16 0)
(3 1.55259e-15 0)
(3 -4.7161e-17 0)
(3 3.11965e-16 0)
(3 3.27482e-17 0)
(3 1.61678e-17 0)
(3 7.04346e-16 0)
(3 9.64553e-16 0)
(3 5.67485e-16 0)
(3 7.36571e-17 0)
(3 7.94815e-16 0)
(3 8.05752e-16 0)
(3 8.68194e-16 0)
(3 1.86007e-15 0)
(3 2.30268e-15 0)
(3 -3.34208e-16 0)
(3 -1.13236e-15 0)
(3 -2.25422e-15 0)
(3 -1.38112e-15 0)
(3 4.57325e-16 0)
(3 2.45856e-15 0)
(3 2.58939e-15 0)
(3 2.26663e-15 0)
(3 1.07549e-15 0)
(3 6.74994e-16 0)
(3 4.69486e-16 0)
(3 -4.47685e-16 0)
(3 4.57658e-17 0)
(3 1.37455e-15 0)
(3 2.72253e-15 0)
(3 3.53781e-15 0)
(3 3.56467e-15 0)
(3 2.95459e-15 0)
(3 5.94589e-16 0)
(3 -8.32153e-16 0)
(3 9.88642e-16 0)
(3 1.84831e-15 0)
(3 3.06948e-15 0)
(3 1.92004e-15 0)
(3 -1.51781e-17 0)
(3 -8.19659e-16 0)
(3 -1.38138e-15 0)
(3 -3.21967e-15 0)
(3 -3.69254e-15 0)
(3 -4.78415e-15 0)
(3 -6.19861e-15 0)
(3 -5.83019e-15 0)
(3 -2.30331e-15 0)
(3 -6.78557e-16 0)
(3 -6.96704e-16 0)
(3 -9.2817e-16 0)
(3 -1.52257e-15 0)
(3 -2.05666e-15 0)
(3 -2.7263e-15 0)
(3 -2.39992e-15 0)
(3 -1.99942e-15 0)
(3 -7.10255e-16 0)
(3 -6.90128e-16 0)
(3 -8.07288e-16 0)
(3 -8.67564e-16 0)
(3 -5.81492e-16 0)
(3 -5.34568e-16 0)
(3 8.45111e-16 0)
(3 1.34939e-15 0)
(3 1.591e-16 0)
(3 -1.41325e-15 0)
(3 -3.12795e-15 0)
(3 -2.77594e-15 0)
(3 -2.17302e-15 0)
(3 -2.47702e-15 0)
(3 -2.72776e-15 0)
(3 -1.0383e-15 0)
(3 -8.42864e-16 0)
(3 -9.54312e-16 0)
(3 -9.61664e-16 0)
(3 -5.9445e-16 0)
(3 1.69115e-15 0)
(3 2.29803e-15 0)
(3 1.69243e-15 0)
(3 2.70235e-15 0)
(3 2.59015e-15 0)
(3 2.47986e-15 0)
(3 2.53056e-15 0)
(3 9.92945e-16 0)
(3 -8.0824e-16 0)
(3 -1.00261e-15 0)
(3 -7.98501e-16 0)
(3 -1.00043e-15 0)
(3 -3.32721e-16 0)
(3 1.15528e-16 0)
(3 1.5942e-15 0)
(3 1.68093e-15 0)
(3 -6.44316e-16 0)
(3 -2.26169e-15 0)
(3 -3.49803e-15 0)
(3 -3.35468e-15 0)
(3 -1.32831e-15 0)
(3 4.42268e-16 0)
(3 1.72517e-16 0)
(3 -6.7094e-17 0)
(3 -2.73786e-16 0)
(3 -3.18509e-16 0)
(3 -2.55825e-16 0)
(3 -1.68153e-16 0)
(3 7.92449e-17 0)
(3 1.69697e-16 0)
(3 2.51564e-16 0)
(3 5.25407e-16 0)
(3 7.44901e-16 0)
(3 1.23196e-15 0)
(3 1.31832e-15 0)
(3 3.78401e-16 0)
(3 -9.85753e-17 0)
(3 -9.43248e-16 0)
(3 -1.34144e-15 0)
(3 -1.31549e-15 0)
(3 -8.90404e-16 0)
(3 1.90754e-18 0)
(3 -3.89287e-16 0)
(3 -1.01032e-16 0)
(3 5.57501e-16 0)
(3 8.23811e-16 0)
(3 1.68269e-15 0)
(3 1.86425e-15 0)
(3 2.14315e-15 0)
(3 1.63141e-15 0)
(3 5.09077e-16 0)
(3 5.61528e-17 0)
(3 -3.95052e-16 0)
(3 -2.4849e-15 0)
(3 -2.30712e-15 0)
(3 1.25805e-15 0)
(3 3.51513e-15 0)
(3 3.71587e-15 0)
(3 2.47344e-15 0)
(3 1.22787e-15 0)
(3 -2.06389e-15 0)
(3 -3.46025e-15 0)
(3 -4.01416e-15 0)
(3 -4.47303e-15 0)
(3 -4.14681e-15 0)
(3 -3.13772e-15 0)
(3 -1.21235e-15 0)
(3 2.78881e-15 0)
(3 3.09055e-15 0)
(3 2.09175e-15 0)
(3 8.06891e-16 0)
(3 4.60193e-16 0)
(3 -3.08773e-16 0)
(3 -1.79389e-15 0)
(3 -1.52226e-15 0)
(3 3.94339e-16 0)
(3 8.58777e-16 0)
(3 9.42961e-16 0)
(3 8.43822e-16 0)
(3 3.34955e-16 0)
(3 1.34911e-16 0)
(3 4.80325e-16 0)
(3 1.11122e-15 0)
(3 1.4984e-15 0)
(3 7.93922e-16 0)
(3 -5.58973e-17 0)
(3 -2.74872e-15 0)
(3 -4.5734e-15 0)
(3 -4.77862e-15 0)
(3 -3.50959e-15 0)
(3 -2.4809e-15 0)
(3 -2.45747e-15 0)
(3 -2.23302e-15 0)
(3 -2.37783e-15 0)
(3 -1.99688e-15 0)
(3 -1.21625e-15 0)
(3 -1.65849e-16 0)
(3 1.60526e-15 0)
(3 2.4025e-15 0)
(3 3.94573e-15 0)
(3 2.00349e-15 0)
(3 1.19113e-15 0)
(3 1.86109e-15 0)
(3 1.01816e-15 0)
(3 -1.45631e-15 0)
(3 -1.6836e-15 0)
(3 -2.76219e-15 0)
(3 -3.43377e-15 0)
(3 -2.61983e-15 0)
(3 -9.0601e-16 0)
(3 1.31896e-15 0)
(3 6.85609e-16 0)
(3 -1.37066e-15 0)
(3 -2.5344e-15 0)
(3 -2.88689e-15 0)
(3 -2.31146e-15 0)
(3 -2.79739e-16 0)
(3 1.22969e-15 0)
(3 1.04635e-16 0)
(3 6.68519e-17 0)
(3 8.66187e-17 0)
(3 4.50443e-17 0)
(3 -2.26846e-16 0)
(3 3.76247e-16 0)
(3 3.43235e-16 0)
(3 4.96892e-16 0)
(3 6.21987e-17 0)
(3 9.74391e-17 0)
(3 3.66183e-16 0)
(3 -1.29438e-16 0)
(3 -4.38391e-16 0)
(3 1.06838e-15 0)
(3 1.49495e-15 0)
(3 2.59389e-15 0)
(3 8.57749e-16 0)
(3 -1.69072e-15 0)
(3 -1.75251e-15 0)
(3 -2.17686e-15 0)
(3 -2.48023e-15 0)
(3 -2.50104e-15 0)
(3 -5.96131e-16 0)
(3 1.09818e-15 0)
(3 2.02451e-15 0)
(3 1.97679e-15 0)
(3 1.94003e-15 0)
(3 1.77431e-15 0)
(3 1.19858e-15 0)
(3 1.74735e-16 0)
(3 -9.46857e-16 0)
(3 -3.25037e-15 0)
(3 -2.22593e-15 0)
(3 -2.70767e-16 0)
(3 7.32245e-16 0)
(3 6.68641e-16 0)
(3 4.23154e-16 0)
(3 -6.36854e-17 0)
(3 -2.24184e-15 0)
(3 -3.78236e-15 0)
(3 -4.94053e-15 0)
(3 -5.39376e-15 0)
(3 -4.48938e-15 0)
(3 -3.63493e-15 0)
(3 -2.07142e-15 0)
(3 3.06961e-17 0)
(3 7.01772e-17 0)
(3 4.84572e-16 0)
(3 7.90596e-16 0)
(3 8.4393e-16 0)
(3 -8.616e-16 0)
(3 -1.52574e-15 0)
(3 -1.41299e-15 0)
(3 -9.62073e-16 0)
(3 3.75812e-16 0)
(3 1.37969e-15 0)
(3 1.63318e-15 0)
(3 1.50277e-15 0)
(3 1.55414e-15 0)
(3 1.81315e-15 0)
(3 1.23398e-15 0)
(3 9.00795e-16 0)
(3 1.19797e-15 0)
(3 9.01297e-16 0)
(3 8.99316e-16 0)
(3 7.42401e-16 0)
(3 -3.5555e-16 0)
(3 -1.3358e-15 0)
(3 -2.49816e-15 0)
(3 -3.90351e-15 0)
(3 -3.59921e-15 0)
(3 -3.21721e-15 0)
(3 -3.78279e-15 0)
(3 -3.12706e-15 0)
(3 -1.2511e-15 0)
(3 9.23928e-16 0)
(3 1.25472e-15 0)
(3 -4.86925e-17 0)
(3 6.05862e-16 0)
(3 1.83322e-15 0)
(3 1.94494e-15 0)
(3 1.08476e-15 0)
(3 -1.71332e-15 0)
(3 -2.51161e-15 0)
(3 -3.47275e-15 0)
(3 -3.15958e-15 0)
(3 -2.78465e-15 0)
(3 -1.59779e-15 0)
(3 3.81219e-17 0)
(3 1.95323e-16 0)
(3 -3.26877e-16 0)
(3 -8.14741e-16 0)
(3 -5.30101e-16 0)
(3 1.06395e-16 0)
(3 2.31135e-15 0)
(3 3.60286e-15 0)
(3 -1.418e-16 0)
(3 7.53099e-17 0)
(3 3.77043e-16 0)
(3 4.25302e-16 0)
(3 4.18002e-16 0)
(3 5.83042e-16 0)
(3 7.93043e-16 0)
(3 6.90723e-16 0)
(3 -4.7451e-16 0)
(3 -6.64976e-16 0)
(3 -1.06392e-15 0)
(3 -1.02728e-15 0)
(3 5.64378e-17 0)
(3 5.98113e-16 0)
(3 2.5417e-15 0)
(3 2.2084e-15 0)
(3 1.27794e-15 0)
(3 -1.01992e-15 0)
(3 -2.25073e-15 0)
(3 -3.34255e-15 0)
(3 -3.05962e-15 0)
(3 -3.46504e-15 0)
(3 -3.92133e-16 0)
(3 1.38577e-15 0)
(3 1.6975e-15 0)
(3 1.85554e-15 0)
(3 1.41589e-15 0)
(3 7.44973e-16 0)
(3 5.03111e-16 0)
(3 4.09836e-16 0)
(3 -9.17149e-16 0)
(3 -2.0034e-15 0)
(3 -1.43865e-15 0)
(3 2.39643e-16 0)
(3 1.8148e-15 0)
(3 2.36831e-15 0)
(3 2.53824e-15 0)
(3 1.96314e-15 0)
(3 5.56053e-16 0)
(3 -9.89255e-16 0)
(3 -2.27824e-15 0)
(3 -1.82088e-15 0)
(3 -2.50011e-15 0)
(3 -2.18236e-15 0)
(3 -2.29321e-15 0)
(3 -3.03083e-15 0)
(3 -2.98697e-15 0)
(3 -2.87819e-15 0)
(3 -2.25549e-15 0)
(3 -1.76707e-15 0)
(3 -2.28104e-15 0)
(3 -2.53926e-15 0)
(3 -2.09554e-15 0)
(3 -1.8899e-15 0)
(3 -1.27591e-15 0)
(3 -7.53325e-16 0)
(3 -4.39894e-16 0)
(3 -2.75075e-16 0)
(3 8.83434e-16 0)
(3 1.69931e-15 0)
(3 1.53553e-15 0)
(3 7.37628e-17 0)
(3 -5.23132e-16 0)
(3 1.53472e-16 0)
(3 1.2733e-15 0)
(3 -3.18547e-16 0)
(3 -1.83717e-15 0)
(3 -1.83142e-15 0)
(3 -1.67089e-15 0)
(3 -1.93675e-15 0)
(3 -3.34084e-15 0)
(3 -3.03561e-15 0)
(3 -2.7163e-15 0)
(3 -3.46799e-15 0)
(3 -2.63626e-15 0)
(3 -1.12244e-15 0)
(3 -1.90067e-16 0)
(3 7.25901e-17 0)
(3 3.65453e-16 0)
(3 1.55156e-15 0)
(3 1.53031e-15 0)
(3 -1.80033e-15 0)
(3 -2.4097e-15 0)
(3 -2.98893e-15 0)
(3 -2.52479e-15 0)
(3 -2.18044e-15 0)
(3 -2.20946e-15 0)
(3 -2.56342e-15 0)
(3 -2.01628e-15 0)
(3 -1.07394e-16 0)
(3 1.06264e-15 0)
(3 1.32838e-15 0)
(3 1.23382e-15 0)
(3 -1.10706e-16 0)
(3 -3.14898e-16 0)
(3 1.041e-15 0)
(3 3.80672e-17 0)
(3 4.04003e-16 0)
(3 6.74563e-16 0)
(3 6.18752e-16 0)
(3 5.64968e-16 0)
(3 4.23038e-16 0)
(3 7.87029e-16 0)
(3 2.11694e-16 0)
(3 -6.41935e-17 0)
(3 -1.31184e-16 0)
(3 -8.59479e-16 0)
(3 -3.28013e-16 0)
(3 4.68071e-16 0)
(3 6.26519e-16 0)
(3 1.74306e-15 0)
(3 1.48742e-15 0)
(3 -8.83326e-16 0)
(3 -2.27198e-15 0)
(3 -1.78225e-15 0)
(3 -1.01401e-15 0)
(3 -8.82158e-16 0)
(3 -1.05472e-15 0)
(3 9.62804e-16 0)
(3 1.91706e-15 0)
(3 1.94211e-15 0)
(3 1.53217e-15 0)
(3 1.15694e-15 0)
(3 6.08783e-16 0)
(3 -5.22179e-17 0)
(3 -8.03076e-16 0)
(3 -9.97722e-16 0)
(3 7.16023e-17 0)
(3 9.51925e-16 0)
(3 3.60191e-15 0)
(3 4.14567e-15 0)
(3 3.13612e-15 0)
(3 1.86536e-15 0)
(3 1.16565e-15 0)
(3 -2.72182e-16 0)
(3 -3.92071e-16 0)
(3 7.09735e-16 0)
(3 1.23085e-15 0)
(3 6.96475e-16 0)
(3 7.93923e-16 0)
(3 -1.29898e-15 0)
(3 -2.21479e-15 0)
(3 -2.39701e-15 0)
(3 -2.50734e-15 0)
(3 -2.24894e-15 0)
(3 -2.02173e-15 0)
(3 -1.88176e-15 0)
(3 -1.98342e-15 0)
(3 -1.46322e-15 0)
(3 -1.16309e-15 0)
(3 -1.55809e-15 0)
(3 -1.27279e-15 0)
(3 -1.49553e-15 0)
(3 -1.28556e-15 0)
(3 -3.84558e-16 0)
(3 6.18282e-16 0)
(3 4.25364e-16 0)
(3 6.48782e-16 0)
(3 -1.0397e-16 0)
(3 -6.14437e-16 0)
(3 -1.02087e-15 0)
(3 -1.18476e-15 0)
(3 -1.21738e-15 0)
(3 -1.42402e-15 0)
(3 -1.71028e-15 0)
(3 -1.28522e-15 0)
(3 -1.60754e-15 0)
(3 -1.48743e-15 0)
(3 -3.69011e-16 0)
(3 -1.20112e-15 0)
(3 -1.17194e-15 0)
(3 -1.15442e-16 0)
(3 5.33567e-16 0)
(3 -7.05605e-18 0)
(3 -9.7442e-16 0)
(3 -2.20826e-15 0)
(3 -2.1658e-15 0)
(3 -1.75746e-15 0)
(3 -1.33455e-15 0)
(3 -9.14211e-16 0)
(3 -7.78545e-16 0)
(3 -1.36775e-15 0)
(3 -1.21987e-15 0)
(3 -1.38902e-15 0)
(3 -3.15707e-15 0)
(3 -1.02776e-15 0)
(3 2.81485e-16 0)
(3 5.03382e-16 0)
(3 8.80767e-17 0)
(3 -9.13747e-16 0)
(3 -1.55174e-15 0)
(3 -1.79978e-15 0)
(3 3.68495e-17 0)
(3 2.80117e-16 0)
(3 1.60462e-16 0)
(3 1.03632e-16 0)
(3 -6.01739e-17 0)
(3 -2.01198e-17 0)
(3 -2.80858e-16 0)
(3 -2.05705e-16 0)
(3 -1.90271e-16 0)
(3 -1.46378e-16 0)
(3 4.47805e-16 0)
(3 5.86364e-16 0)
(3 3.96661e-16 0)
(3 6.1335e-16 0)
(3 4.67436e-16 0)
(3 5.52276e-16 0)
(3 5.69617e-17 0)
(3 -1.02721e-15 0)
(3 -6.24664e-16 0)
(3 4.71826e-16 0)
(3 4.14239e-16 0)
(3 7.26859e-16 0)
(3 3.54666e-16 0)
(3 3.51458e-16 0)
(3 7.96944e-16 0)
(3 5.65756e-16 0)
(3 9.06189e-16 0)
(3 1.30283e-15 0)
(3 1.0217e-15 0)
(3 -2.22865e-16 0)
(3 3.37283e-16 0)
(3 1.17747e-15 0)
(3 1.69519e-15 0)
(3 1.87346e-15 0)
(3 2.38381e-15 0)
(3 1.85999e-15 0)
(3 -8.83906e-16 0)
(3 -1.02572e-15 0)
(3 -7.01258e-16 0)
(3 -3.50122e-16 0)
(3 -2.82954e-16 0)
(3 -1.86416e-16 0)
(3 2.13558e-16 0)
(3 1.37254e-15 0)
(3 9.91305e-16 0)
(3 -1.62083e-16 0)
(3 -9.02534e-16 0)
(3 -1.11892e-15 0)
(3 -1.44268e-15 0)
(3 -1.68314e-15 0)
(3 -1.31555e-15 0)
(3 -7.2882e-16 0)
(3 -1.50603e-16 0)
(3 5.10879e-16 0)
(3 1.02535e-15 0)
(3 1.38083e-15 0)
(3 3.22058e-16 0)
(3 -4.36052e-16 0)
(3 -9.72495e-16 0)
(3 -1.09029e-15 0)
(3 -1.09463e-15 0)
(3 -3.66851e-16 0)
(3 3.30002e-16 0)
(3 4.40928e-16 0)
(3 8.63915e-16 0)
(3 5.64184e-16 0)
(3 -1.13301e-15 0)
(3 -2.16809e-15 0)
(3 -2.49647e-15 0)
(3 -2.29047e-15 0)
(3 -1.25297e-15 0)
(3 -5.67716e-16 0)
(3 -4.85735e-16 0)
(3 -1.39521e-17 0)
(3 1.33803e-16 0)
(3 4.67474e-16 0)
(3 1.29128e-15 0)
(3 1.14486e-15 0)
(3 -2.28184e-16 0)
(3 -2.73651e-15 0)
(3 -3.17587e-15 0)
(3 -1.86868e-15 0)
(3 -1.4933e-15 0)
(3 -1.5905e-15 0)
(3 -1.60099e-15 0)
(3 1.42282e-16 0)
(3 1.66281e-15 0)
(3 1.14292e-15 0)
(3 -7.87224e-16 0)
(3 -2.24837e-15 0)
(3 -1.08314e-15 0)
(3 -7.0413e-16 0)
(3 -1.03372e-15 0)
(3 -7.10144e-16 0)
(3 -5.62289e-16 0)
(3 -2.39092e-15 0)
(3 -7.56687e-17 0)
(3 -6.29058e-16 0)
(3 -5.64484e-16 0)
(3 -6.86041e-16 0)
(3 -5.60929e-16 0)
(3 -1.04192e-15 0)
(3 -1.15438e-15 0)
(3 -9.23883e-16 0)
(3 -7.44316e-16 0)
(3 -4.36888e-16 0)
(3 1.98146e-17 0)
(3 9.49813e-16 0)
(3 4.56862e-16 0)
(3 -4.99458e-17 0)
(3 -1.1997e-15 0)
(3 -1.86908e-15 0)
(3 -2.23436e-15 0)
(3 -1.12098e-15 0)
(3 -2.8072e-16 0)
(3 -3.60064e-17 0)
(3 -6.22348e-16 0)
(3 -8.20415e-16 0)
(3 -3.23753e-16 0)
(3 3.45652e-17 0)
(3 -3.38167e-16 0)
(3 3.91576e-16 0)
(3 4.15256e-16 0)
(3 2.56154e-16 0)
(3 2.39643e-16 0)
(3 2.7379e-16 0)
(3 1.49e-16 0)
(3 7.74378e-16 0)
(3 1.60049e-15 0)
(3 2.16388e-15 0)
(3 1.5425e-15 0)
(3 1.01771e-15 0)
(3 -6.61789e-16 0)
(3 -8.85465e-16 0)
(3 -7.66954e-16 0)
(3 -6.17345e-16 0)
(3 -4.04409e-16 0)
(3 6.46406e-16 0)
(3 2.62182e-15 0)
(3 3.19478e-15 0)
(3 1.92183e-15 0)
(3 5.88029e-16 0)
(3 -5.89437e-16 0)
(3 -7.40301e-16 0)
(3 -9.1667e-16 0)
(3 -1.38342e-15 0)
(3 -1.08366e-15 0)
(3 -5.55859e-16 0)
(3 -1.37505e-16 0)
(3 8.58403e-16 0)