/*--------------------------------*- C++ -*----------------------------------*\
  =========                 |
  \\      /  F ield         | OpenFOAM: The Open Source CFD Toolbox
   \\    /   O peration     | Website:  https://openfoam.org
    \\  /    A nd           | Version:  7
     \\/     M anipulation  |
\*---------------------------------------------------------------------------*/
FoamFile
{
    version     2.0;
    format      ascii;
    class       volScalarField;
    location    "1.9";
    object      p;
}
// * * * * * * * * * * * * * * * * * * * * * * * * * * * * * * * * * * * * * //

dimensions      [1 -1 -2 0 0 0 0];

internalField   nonuniform List<scalar> 
4608
(
1
1
1
1
1
1
1
1
1
1
1
1
1
1
1
1
1
1
1
1
1
1
1
1
1
1
1
1
1
1
1
1
1
1
1
1
1
1
1
1
1
1
1
1
1
1
1
1
1
1
1
1
1
1
1
1
1
1
1
1
1
1
1
1
1
1
1
1
1
1
1
1
1
1
1
1
1
1
1
1
1
1
1
1
1
1
1
1
1
1
1
1
1
1
1
1
1
1
1
1
1
1
1
1
1
1
1
1
1
1
1
1
1
1
1
1
1
1
1
1
1
1
1
1
1
1
1
1
1
1
1
1
1
1
1
1
1
1
1
1
1
1
1
1
1
1
1
1
1
1
1
1
1
1
1
1
1
1
1
1
1
1
1
1
1
1
1
1
1
1
1
1
1
1
1
1
1
1
1
1
1
1
1
1
1
1
1
1
1
1
1
1
1
1
1
1
1
1
1
1
1
1
1
1
1
1
1
1
1
1
1
1
1
1
1
1
1
1
1
1
1
1
1
1
1
1
1
1
1
1
1
1
1
1
1
1
1
1
1
1
1
1
1
1
1
1
1
1
1
1
1
1
1
1
1
1
1
1
1
1
1
1
1
1
1
1
1
1
1
1
1
1
1
1
1
1
1
1
1
1
1
1
1
1
1
1
1
1
1
1
1
1
1
1
1
1
1
1
1
1
1
1
1
1
1
1
1
1
1
1
1
1
1
1
1
1
1
1
1
1
1
1
1
1
1
1
1
1
1
1
1
1
1
1
1
1
1
1
1
1
1
1
1
1
1
1
1
1
1
1
1
1
1
1
1
1
1
1
1
1
1
1
1
1
1
1
1
1
1
1
1
1
1
1
1
1
1
1
1
1
1
1
1
1
1
1
1
1
1
1
1
1
1
1
1
1
1
1
1
1
1
1
1
1
1
1
1
1
1
1
1
1
1
1
1
1
1
1
1
1
1
1
1
1
1
1
1
1
1
1
1
1
1
1
1
1
1
1
1
1
1
1
1
1
1
1
1
1
1
1
1
1
1
1
1
1
1
1
1
1
1
1
1
1
1
1
1
1
1
1
1
1
1
1
1
1
1
1
1
1
1
1
1
1
1
1
1
1
1
1
1
1
1
1
1
1
1
1
1
1
1
1
1
1
1
1
1
1
1
1
1
1
1
1
1
1
1
1
1
1
1
1
1
1
1
1
1
1
1
1
1
1
1
1
1
1
1
1
1
1
1
1
1
1
1
1
1
1
1
1
1
1
1
1
1
1
1
1
1
1
1
1
1
1
1
1
1
1
1
1
1
1
1
1
1
1
1
1
1
1
1
1
1
1
1
1
1
1
1
1
1
1
1
1
1
1
1
1
1
1
1
1
1
1
1
1
1
1
1
1
1
1
1
1
1
1
1
1
1
1
1
1
1
1
1
1
1
1
1
1
1
1
1
1
1
1
1
1
1
1
1
1
1
1
1
1
1
1
1
1
1
1
1
1
1
1
1
1
1
1
1
1
1
1
1
1
1
1
1
1
1
1
1
1
1
1
1
1
1
1
1
1
1
1
1
1
1
1
1
1
1
1
1
1
1
1
1
1
1
1
1
1
1
1
1
1
1
1
1
1
1
1
1
1
1
1
1
1
1
1
1
1
1
1
1
1
1
1
1
1
1
1
1
1
1
1
1
1
1
1
1
1
1
1
1
1
1
1
1
1
1
1
1
1
1
1
1
1
1
1
1
1
1
1
1
1
1
1
1.29401
1.7552
2.32602
2.99685
3.61348
4.32392
4.84559
5.29093
5.35457
5.15621
4.73645
4.22001
3.79396
3.66571
3.57427
3.57074
3.59744
3.64336
3.69644
3.73182
3.74097
3.74147
3.73705
3.74509
1.00217
1.02261
1.08099
1.21681
1.47533
1.84831
2.3737
2.99624
3.56545
3.8154
4.08485
4.03838
3.92935
3.85879
3.81076
3.73247
3.69138
3.68075
3.69026
3.7157
3.73689
3.74976
3.75162
3.75424
0.999995
1.00001
1.00005
1.00012
1.00364
1.02257
1.11091
1.35934
2.00198
2.97032
3.89218
4.28344
4.35087
4.26385
4.12473
3.8999
3.74017
3.683
3.6776
3.69378
3.72907
3.75732
3.76193
3.76633
1
1
0.999999
0.999997
0.999985
1.00003
0.99998
1.00164
1.03614
1.29885
2.0437
3.10821
3.96323
4.11092
4.03535
3.99233
3.91698
3.7996
3.71634
3.69496
3.70042
3.72676
3.74933
3.76018
1
1
1
1
0.999999
0.999999
0.999997
0.999997
0.999893
1.0015
1.03761
1.37711
2.2019
3.36238
3.82462
4.09291
4.07936
3.9901
3.80187
3.72165
3.68461
3.67837
3.69514
3.72199
1
1
1
1
1
1
1
1
0.999988
0.999989
0.999897
1.00402
1.06644
1.53052
2.47537
3.57691
3.95788
3.92664
3.88234
3.81891
3.764
3.70073
3.69199
3.70491
1
1
1
1
1
1
1
1
1
0.999999
0.999987
0.999992
0.999965
1.01139
1.16287
1.79234
2.85073
3.67313
3.93535
3.93202
3.88373
3.79551
3.74237
3.72582
1
1
1
1
1
1
1
1
1
1
1
0.999999
0.999995
0.99996
1.00094
1.03387
1.36369
2.27328
3.2136
3.67226
3.82591
3.81085
3.7416
3.70809
1
1
1
1
1
1
1
1
1
1
1
1
1
0.999995
0.999992
0.999995
1.00794
1.12381
1.75731
2.84668
3.63698
3.69769
3.72525
3.70554
1
1
1
1
1
1
1
1
1
1
1
1
1
1
0.999999
0.999998
0.999982
1.00114
1.0528
1.4018
2.37101
3.32486
3.75979
3.77811
1
1
1
1
1
1
1
1
1
1
1
1
1
1
1
1
0.999998
0.999992
1.00028
1.01345
1.23348
2.00427
3.12959
3.44921
1
1
1
1
1
1
1
1
1
1
1
1
1
1
1
1
1
0.999998
0.999997
1.00001
1.00725
1.1068
1.75094
2.736
1
1
1
1
1
1
1
1
1
1
1
1
1
1
1
1
1
1
0.999999
0.999999
1
1.00191
1.06798
1.51438
1
1
1
1
1
1
1
1
1
1
1
1
1
1
1
1
1
1
1
1
1
0.999999
1.0011
1.03253
1
1
1
1
1
1
1
1
1
1
1
1
1
1
1
1
1
1
1
1
1
1
0.999997
1.00006
1
1
1
1
1
1
1
1
1
1
1
1
1
1
1
1
1
1
1
1
1
1
0.999999
0.999999
1
1
1
1
1
1
1
1
1
1
1
1
1
1
1
1
1
1
1
1
1
1
1
0.999999
1
1
1
1
1
1
1
1
1
1
1
1
1
1
1
1
1
1
1
1
1
0.999999
1.00001
1.00001
1
1
1
1
1
1
1
1
1
1
1
1
1
1
1
1
1
1
1
1
1
0.999999
1.00117
1.03044
1
1
1
1
1
1
1
1
1
1
1
1
1
1
1
1
1
1
0.999999
0.999999
1
1.00192
1.06717
1.52365
1
1
1
1
1
1
1
1
1
1
1
1
1
1
1
1
1
0.999998
0.999997
1.00001
1.00727
1.10646
1.74434
2.76583
1
1
1
1
1
1
1
1
1
1
1
1
1
1
1
1
0.999998
0.999992
1.00028
1.01345
1.23453
1.99837
3.13648
3.45627
1
1
1
1
1
1
1
1
1
1
1
1
1
1
0.999999
0.999998
0.999982
1.00115
1.05262
1.4026
2.37155
3.32171
3.76055
3.77892
1
1
1
1
1
1
1
1
1
1
1
1
1
0.999995
0.999992
0.999995
1.00793
1.1239
1.75627
2.85061
3.63349
3.69573
3.72365
3.70604
1
1
1
1
1
1
1
1
1
1
1
0.999999
0.999995
0.99996
1.00094
1.03386
1.36373
2.27298
3.21312
3.67402
3.82596
3.81003
3.74117
3.7092
1
1
1
1
1
1
1
1
1
0.999999
0.999987
0.999992
0.999965
1.01139
1.16288
1.79232
2.85094
3.67265
3.93548
3.93226
3.88382
3.79533
3.74271
3.72615
1
1
1
1
1
1
1
1
0.999988
0.999989
0.999897
1.00402
1.06644
1.53052
2.47534
3.57697
3.9579
3.92658
3.88234
3.81904
3.76396
3.70069
3.69214
3.705
1
1
1
1
0.999999
0.999999
0.999997
0.999997
0.999893
1.0015
1.03761
1.37711
2.2019
3.36239
3.82461
4.09292
4.07936
3.99009
3.80184
3.72175
3.68457
3.67838
3.69518
3.72202
1
1
0.999999
0.999997
0.999985
1.00003
0.99998
1.00164
1.03614
1.29885
2.0437
3.10821
3.96323
4.11092
4.03535
3.99233
3.91698
3.79959
3.71633
3.69499
3.70042
3.72673
3.74933
3.76022
0.999995
1.00001
1.00005
1.00012
1.00364
1.02257
1.11091
1.35934
2.00198
2.97032
3.89218
4.28344
4.35087
4.26385
4.12473
3.8999
3.74017
3.683
3.6776
3.69378
3.72907
3.75731
3.76193
3.76634
1.00217
1.02261
1.08099
1.21681
1.47533
1.84831
2.3737
2.99624
3.56545
3.8154
4.08484
4.03838
3.92935
3.85879
3.81076
3.73247
3.69138
3.68075
3.69026
3.7157
3.73689
3.74976
3.75162
3.75424
1.29401
1.7552
2.32602
2.99685
3.61348
4.32392
4.84559
5.29093
5.35457
5.15621
4.73645
4.22001
3.79396
3.66571
3.57427
3.57074
3.59744
3.64336
3.69644
3.73182
3.74097
3.74147
3.73706
3.74509
2.64527
1.71408
1.07404
0.812613
0.752921
0.688322
0.663972
0.695135
0.768748
0.830017
0.88522
0.949067
1.01561
1.04288
1.04092
1.0376
1.04684
1.05615
1.05848
1.071
1.07573
1.07644
1.07036
1.12415
1.48561
2.72173
4.5568
6.79492
8.96935
9.46848
8.71682
7.5095
6.8156
6.5126
6.34906
6.17264
5.94904
5.68283
5.40284
5.16308
4.97309
4.80848
4.64717
4.4863
4.32931
4.18162
4.04311
3.90864
3.76883
3.61865
3.46134
3.32141
3.22024
3.14823
3.08487
3.02427
2.95888
2.8807
2.78063
2.64993
2.5096
2.42507
2.38896
2.35443
2.31619
2.27516
2.22948
2.17525
2.09735
1.97832
1.91428
1.92598
2.02831
2.36258
2.99584
3.73176
4.34888
4.83739
5.03274
5.04076
4.84962
4.61514
4.48384
4.39043
4.31896
4.27119
4.20477
4.08164
3.92286
3.74772
3.66348
3.63509
3.60031
3.54958
3.50072
3.4104
3.34432
2.76889
2.21191
1.68813
1.46574
1.31074
1.11256
1.02602
0.995568
0.963097
0.917637
0.910478
0.929373
0.958738
0.964338
0.964974
0.978882
0.998937
1.01054
1.0297
1.04114
1.04919
1.14607
1.64587
2.55468
3.08308
3.57558
4.28335
5.6584
6.86077
7.47161
7.34036
6.98946
6.698
6.45057
6.21847
5.96572
5.70158
5.45682
5.23698
5.04151
4.87767
4.72438
4.56871
4.41399
4.26584
4.12413
3.9851
3.84253
3.69228
3.53933
3.40244
3.2968
3.21362
3.14216
3.07883
3.01266
2.9296
2.8229
2.69631
2.57001
2.48468
2.43666
2.39868
2.35769
2.31321
2.26923
2.21238
2.14437
2.06459
2.06794
2.18185
2.45719
2.82777
3.12637
3.41705
3.79041
4.16233
4.36034
4.40521
4.38647
4.41874
4.44919
4.42995
4.37182
4.2967
4.21245
4.09044
3.9498
3.79029
3.70545
3.6721
3.62683
3.56557
3.5124
3.42235
3.66118
3.3316
2.88879
2.38969
1.94519
1.68476
1.4351
1.19867
1.11503
1.06102
0.964433
0.913087
0.926803
0.947651
0.942108
0.934363
0.93836
0.952662
0.969859
0.99331
1.0183
1.14512
1.81627
2.67915
3.28509
3.35544
3.33722
3.35498
3.59621
4.57931
6.12132
7.05909
7.17329
6.96264
6.50624
6.13889
5.88874
5.65294
5.40627
5.15059
4.92036
4.74893
4.61183
4.47658
4.33411
4.19156
4.0557
3.92383
3.78675
3.63712
3.48915
3.35966
3.24964
3.15703
3.07121
2.99075
2.92756
2.8612
2.77168
2.67365
2.58172
2.4805
2.38226
2.32977
2.29188
2.2621
2.23355
2.22029
2.20069
2.24857
2.43953
2.74477
2.98879
3.20285
3.26591
3.29752
3.33366
3.45504
3.6474
3.84216
4.08988
4.24906
4.35454
4.40778
4.39395
4.34259
4.24407
4.11551
3.99015
3.84632
3.70692
3.63793
3.58802
3.52445
3.47675
3.40772
3.74052
3.61433
3.33031
2.94526
2.46274
2.12846
1.89144
1.56304
1.37308
1.32311
1.22871
1.05663
1.00138
1.00522
0.991852
0.960614
0.946234
0.942542
0.943594
0.957561
1.09553
1.77789
2.82698
3.17114
3.32677
3.31943
3.22456
3.11469
3.0061
3.08366
3.68128
5.13627
6.38748
6.50614
6.43413
6.17488
5.91669
5.65906
5.4012
5.1564
4.94183
4.74337
4.57417
4.42603
4.28853
4.15862
4.03747
3.91789
3.78846
3.6428
3.49054
3.36099
3.24899
3.15615
3.06979
2.9774
2.88945
2.83101
2.77779
2.70574
2.61985
2.50766
2.38685
2.31362
2.27639
2.2614
2.25238
2.31867
2.50953
2.85623
3.18992
3.30202
3.35215
3.37261
3.32936
3.2593
3.20797
3.17366
3.19694
3.27583
3.46692
3.72472
3.94641
4.15867
4.22299
4.22583
4.2146
4.15699
4.05135
3.90322
3.74305
3.63273
3.57624
3.52242
3.4972
3.44386
3.73824
3.71381
3.58174
3.32439
2.94194
2.53264
2.26621
2.00916
1.71004
1.53056
1.4325
1.30561
1.13178
1.02859
1.0271
1.00671
0.977448
0.957743
0.978816
1.19346
1.8741
2.90984
3.2531
3.23065
3.19302
3.10334
3.0226
2.93928
2.85969
2.7397
2.74092
3.03913
4.13773
5.41553
6.07304
6.14406
5.96125
5.6678
5.40498
5.15874
4.90365
4.67037
4.49063
4.35256
4.23263
4.11466
3.9976
3.87896
3.75123
3.59885
3.41802
3.31275
3.26675
3.20394
3.12303
3.02211
2.9009
2.78072
2.68793
2.61779
2.54863
2.47994
2.40586
2.34413
2.31351
2.32246
2.44512
2.75484
3.16823
3.53869
3.61327
3.55565
3.49318
3.40915
3.32592
3.24242
3.17555
3.11802
3.0885
3.05511
3.07088
3.16265
3.37416
3.67556
3.91701
4.07462
4.12587
4.09953
4.03127
3.93223
3.80458
3.69868
3.62125
3.55353
3.48636
3.39183
3.73109
3.72817
3.69636
3.55595
3.289
2.95315
2.62844
2.35298
2.06018
1.80062
1.65293
1.56016
1.40846
1.20289
1.14171
1.1287
1.10412
1.13329
1.40155
2.17788
3.09192
3.41256
3.34817
3.20449
3.05386
2.9506
2.89062
2.80998
2.71783
2.61441
2.53668
2.47411
2.5973
3.24223
4.43668
5.43109
5.61502
5.57051
5.39398
5.16639
4.90081
4.6403
4.42109
4.27768
4.18324
4.09846
4.00243
3.88171
3.73017
3.5563
3.39831
3.29239
3.20711
3.1325
3.06262
2.98603
2.88415
2.76219
2.65051
2.57209
2.51686
2.46529
2.43062
2.3969
2.43855
2.65117
3.07512
3.46752
3.75958
3.79918
3.76313
3.65953
3.54442
3.4272
3.32281
3.24072
3.17659
3.1177
3.06642
3.01134
2.97601
2.94037
2.97368
3.10422
3.33901
3.57425
3.78393
3.84671
3.84765
3.83891
3.83139
3.77409
3.69819
3.60939
3.50893
3.37724
3.73204
3.73732
3.72295
3.67335
3.52952
3.2801
2.96286
2.69234
2.43919
2.11715
1.85531
1.77011
1.68363
1.52027
1.32623
1.24407
1.30342
1.69094
2.62646
3.48684
3.70355
3.57992
3.36011
3.16745
3.01432
2.92606
2.84714
2.75024
2.64062
2.55053
2.47056
2.40525
2.30361
2.32053
2.61901
3.53891
4.62468
5.27437
5.26584
5.1374
4.87707
4.62042
4.40835
4.25703
4.14165
4.04382
3.93879
3.81216
3.66944
3.53082
3.40461
3.28367
3.18145
3.10482
3.04125
2.98038
2.90122
2.79205
2.6621
2.54609
2.49385
2.47794
2.50984
2.64568
2.97383
3.47483
3.79508
3.89893
3.89654
3.8481
3.74497
3.64967
3.56062
3.46257
3.36323
3.2751
3.19562
3.12597
3.06395
3.00264
2.94153
2.90208
2.88161
2.85944
2.90531
3.00452
3.21403
3.4654
3.58936
3.68885
3.77434
3.79635
3.76292
3.67381
3.57516
3.40221
3.71426
3.73057
3.73702
3.72203
3.65843
3.51816
3.27714
2.96238
2.73653
2.50848
2.21378
1.95757
1.84898
1.76652
1.61625
1.70624
2.29565
3.33932
4.12425
4.12231
3.96864
3.71695
3.46543
3.25813
3.09176
2.97166
2.85359
2.73989
2.61314
2.51861
2.43777
2.36366
2.2694
2.21333
2.14379
2.23551
2.75684
3.78444
4.60869
4.84446
4.81464
4.65228
4.46464
4.28289
4.10739
3.95753
3.83995
3.72674
3.61812
3.51205
3.40297
3.28667
3.17466
3.07627
2.99398
2.916
2.82884
2.73873
2.64048
2.55738
2.54276
2.59356
2.85781
3.35402
3.80068
4.09821
4.13016
4.08521
3.96575
3.85661
3.77209
3.69253
3.59912
3.4951
3.3943
3.3019
3.21262
3.13006
3.05953
2.99795
2.93948
2.89887
2.86186
2.82966
2.78916
2.73581
2.75321
2.88378
3.10205
3.30719
3.51967
3.66481
3.68726
3.68033
3.63526
3.4526
3.70267
3.7244
3.73177
3.72291
3.69591
3.62216
3.48293
3.25206
2.9813
2.75579
2.54292
2.27518
2.07794
2.00432
2.23497
3.1513
4.35571
4.79891
4.70607
4.42782
4.1219
3.84892
3.60475
3.39592
3.22344
3.07707
2.93505
2.79545
2.65204
2.52683
2.42558
2.33187
2.25523
2.1737
2.1067
2.00708
2.00138
2.23341
2.97772
3.90839
4.50187
4.56531
4.51289
4.32071
4.09149
3.89017
3.74969
3.64964
3.56851
3.48582
3.3962
3.29263
3.17107
3.03315
2.92314
2.85227
2.7849
2.72782
2.66019
2.65406
2.78356
3.18379
3.7534
4.17196
4.23089
4.224
4.16854
4.06821
3.97754
3.89052
3.79616
3.6947
3.59629
3.49856
3.40739
3.32115
3.22888
3.13705
3.06114
3.00111
2.9502
2.91197
2.87093
2.83023
2.77992
2.70751
2.59493
2.58317
2.6483
2.8126
3.07322
3.34463
3.55935
3.59454
3.58629
3.46606
3.7586
3.75786
3.75642
3.74473
3.71996
3.67117
3.59157
3.44926
3.24573
2.9953
2.76343
2.50294
2.54246
3.0544
4.2541
5.41652
5.61055
5.41602
5.05645
4.6897
4.3528
4.05796
3.79645
3.56149
3.35681
3.17624
3.01453
2.86088
2.71632
2.58317
2.46759
2.35018
2.2485
2.15234
2.06667
1.97428
1.91555
1.85965
1.93797
2.38728
3.27045
4.03707
4.26651
4.23967
4.08351
3.87108
3.70987
3.6118
3.53745
3.45951
3.37334
3.27559
3.1547
3.01252
2.89318
2.8184
2.79037
2.76653
2.83065
3.12685
3.67518
4.22277
4.54282
4.53342
4.4599
4.29292
4.14496
4.04141
3.9604
3.87804
3.78502
3.69043
3.60215
3.51777
3.43589
3.34981
3.25069
3.14716
3.06174
3.00134
2.9602
2.9244
2.88603
2.84353
2.79173
2.70993
2.5846
2.52253
2.5093
2.52844
2.62847
2.83542
3.12296
3.33287
3.38027
3.32946
3.635
3.78304
3.80123
3.78147
3.74332
3.69954
3.65336
3.59022
3.43351
3.24312
3.01668
3.20196
4.22195
5.70352
6.39602
6.32662
6.00277
5.62779
5.27025
4.92764
4.59694
4.28447
3.99698
3.73452
3.50225
3.29497
3.10815
2.93084
2.76757
2.62644
2.50975
2.3944
2.28715
2.18445
2.07973
1.97422
1.87881
1.81528
1.75631
1.7681
2.00347
2.6535
3.50963
3.9549
3.95273
3.85993
3.70301
3.57943
3.48259
3.41534
3.3465
3.2571
3.14545
3.02069
2.90451
2.82777
2.84037
3.05417
3.56249
4.19685
4.67692
4.72165
4.6814
4.57475
4.42606
4.28378
4.14779
4.03821
3.94916
3.86357
3.76861
3.67744
3.60683
3.54444
3.47434
3.38594
3.2774
3.16363
3.06809
3.00946
2.96722
2.92448
2.88311
2.84232
2.79621
2.72483
2.60039
2.50643
2.47491
2.46568
2.46168
2.49798
2.61413
2.81768
2.98731
3.10199
3.53985
3.7875
3.78402
3.73911
3.70969
3.69551
3.68001
3.65627
3.5471
3.55278
4.15707
5.73016
7.23353
7.60586
7.36361
6.79706
6.27044
5.82998
5.45625
5.11814
4.79338
4.47753
4.17807
3.89742
3.64076
3.41074
3.20527
3.01788
2.84888
2.69514
2.54889
2.41649
2.31603
2.22768
2.12496
2.01675
1.90974
1.82241
1.74166
1.68336
1.65349
1.73519
2.14969
2.88685
3.52582
3.65866
3.57872
3.48921
3.40184
3.32632
3.24359
3.16985
3.09648
3.04007
2.95118
3.00088
3.33664
4.00617
4.58439
4.99308
5.07385
4.99467
4.80187
4.57793
4.39634
4.26803
4.15465
4.05136
3.95016
3.85575
3.76197
3.68253
3.61581
3.54924
3.48252
3.40216
3.29548
3.17489
3.08505
3.02998
2.983
2.93456
2.8856
2.838
2.78854
2.72006
2.61593
2.51774
2.4723
2.44378
2.42594
2.41412
2.40639
2.44702
2.52642
2.72361
2.52431
3.46435
3.6307
3.7194
3.75834
3.75232
3.71783
3.71983
3.97968
5.26732
7.54904
8.47226
8.31598
8.01986
7.56741
7.09282
6.59308
6.09838
5.64909
5.26384
4.92888
4.61548
4.3113
4.01593
3.73576
3.48613
3.27437
3.08828
2.91747
2.76615
2.62505
2.49133
2.36173
2.22734
2.09728
2.02279
1.96921
1.8898
1.80154
1.69599
1.61727
1.57164
1.59081
1.78766
2.33704
3.01717
3.35351
3.41361
3.39306
3.29816
3.19215
3.14502
3.11162
3.17311
3.36591
3.87738
4.55882
4.89025
4.99956
5.06151
5.04607
4.96553
4.822
4.62864
4.42972
4.27809
4.16965
4.06794
3.9632
3.86333
3.77152
3.69773
3.63384
3.57739
3.51571
3.42452
3.30484
3.18952
3.1116
3.05322
2.99986
2.94963
2.90224
2.85981
2.81747
2.7521
2.65482
2.55495
2.49309
2.44922
2.41638
2.38789
2.35994
2.34266
2.33697
2.39818
1.35512
2.30854
3.1611
3.64708
3.68199
3.70399
3.88942
4.7155
6.6017
8.84225
9.94674
9.79102
9.01721
8.24866
7.73976
7.28106
6.79242
6.2922
5.8208
5.38858
5.02365
4.71154
4.42107
4.1295
3.83748
3.55824
3.31261
3.12191
2.95818
2.80499
2.664
2.52915
2.39593
2.26872
2.15449
2.03929
1.91858
1.81776
1.74557
1.67885
1.62301
1.56999
1.50518
1.4732
1.55087
1.89577
2.56232
2.97201
3.20268
3.21027
3.17445
3.22589
3.54285
4.00101
4.57919
5.19038
5.4405
5.36382
5.21398
5.04293
4.92884
4.8522
4.75961
4.63539
4.47549
4.30563
4.17778
4.0764
3.98271
3.89396
3.81183
3.7329
3.64584
3.54598
3.43888
3.33716
3.24916
3.18563
3.13844
3.09385
3.04696
2.9935
2.926
2.84127
2.75028
2.67282
2.61584
2.56624
2.51446
2.47192
2.43626
2.39884
2.36015
2.31936
2.27091
2.22767
1.02259
1.24024
2.03574
3.01578
3.62638
4.08542
5.66621
7.82903
9.36595
10.0442
9.99068
9.80557
9.37
8.68848
8.02277
7.41515
6.87539
6.40271
5.96963
5.54287
5.1337
4.77575
4.45835
4.17421
3.9032
3.65186
3.41445
3.21318
3.04052
2.86897
2.71201
2.56684
2.42746
2.28916
2.15251
2.02696
1.90649
1.80474
1.74198
1.69623
1.63925
1.57189
1.49436
1.44338
1.39168
1.40293
1.60556
2.08676
2.68149
3.02795
3.24348
3.94203
4.7904
5.25039
5.5336
5.60058
5.55435
5.38028
5.22771
5.09699
4.95007
4.83045
4.72872
4.6261
4.51108
4.37529
4.21929
4.08439
3.98357
3.90405
3.83588
3.76642
3.68268
3.56722
3.40681
3.2787
3.22356
3.19138
3.16049
3.12731
3.08908
3.04039
2.96677
2.86051
2.72211
2.62556
2.58553
2.56296
2.54729
2.52501
2.49247
2.45147
2.39691
2.32226
2.25244
2.17534
1.00039
1.01394
1.16562
1.90559
3.93708
5.70352
8.28146
9.96506
10.8527
10.6781
10.1272
9.75576
9.49482
8.95622
8.21632
7.48966
6.88627
6.37438
5.9466
5.65857
5.38118
5.0309
4.66284
4.30656
3.96434
3.66928
3.40499
3.15525
3.03921
2.97155
2.85842
2.71122
2.54326
2.37022
2.19792
2.05653
1.94715
1.85015
1.74241
1.69424
1.67361
1.63198
1.56163
1.4691
1.38253
1.33867
1.35128
1.45425
1.88084
2.86024
3.80856
4.97534
5.72495
6.07189
6.04399
5.90299
5.61162
5.32502
5.18958
5.10015
4.97389
4.82133
4.70573
4.63545
4.54031
4.37739
4.19255
4.04952
3.95197
3.8844
3.82937
3.77049
3.68722
3.55106
3.37596
3.26923
3.23509
3.20493
3.16938
3.1288
3.08554
3.03538
2.96419
2.8514
2.70651
2.61468
2.58836
2.5684
2.54369
2.51223
2.47526
2.43277
2.38079
2.31291
2.23888
2.1506
1.00043
1.01062
1.19123
1.99959
3.53151
6.20721
8.39851
9.74867
10.8914
10.5466
9.85703
9.57526
9.3421
8.90483
8.2726
7.59032
6.96967
6.45789
6.04237
5.64237
5.24513
4.88465
4.52869
4.22328
4.00349
3.76953
3.50137
3.25324
3.06123
2.9011
2.76408
2.62548
2.46874
2.3167
2.22702
2.14584
2.05173
1.9405
1.81502
1.71412
1.63746
1.57798
1.50289
1.43119
1.39004
1.35222
1.36602
1.49402
1.91302
2.73378
4.03954
5.07183
5.59171
6.08209
6.06901
5.78284
5.49119
5.35972
5.24265
5.13403
4.99193
4.8422
4.71596
4.60731
4.48663
4.32329
4.17593
4.07922
4.00257
3.93851
3.88239
3.81899
3.72263
3.55683
3.37633
3.31468
3.28339
3.24776
3.20579
3.16236
3.11799
3.06504
2.97864
2.84758
2.71631
2.65278
2.62098
2.59232
2.55959
2.52258
2.48138
2.43369
2.38243
2.31833
2.22863
2.14242
1.02516
1.22836
2.03829
3.09885
3.34191
4.38718
5.83258
7.65619
9.43197
9.9349
9.8645
9.67111
9.24282
8.61746
8.01129
7.45232
6.91798
6.43483
5.99533
5.5692
5.18076
4.84494
4.54179
4.22826
3.8998
3.60886
3.37215
3.17464
2.99192
2.83854
2.73097
2.62899
2.50421
2.35198
2.18554
2.04456
1.94652
1.86848
1.7852
1.69692
1.61822
1.55416
1.4903
1.44509
1.40915
1.42575
1.60838
2.10289
2.68292
2.91388
3.38806
3.98589
4.58406
5.25678
5.47644
5.50971
5.49535
5.42068
5.26568
5.15091
5.03049
4.90368
4.78601
4.64013
4.4714
4.30519
4.15653
4.03862
3.95497
3.88571
3.82405
3.76047
3.68232
3.57184
3.42154
3.28501
3.22006
3.18429
3.14441
3.10314
3.06172
3.01794
2.96576
2.87569
2.74681
2.63263
2.58096
2.54893
2.51831
2.49372
2.47255
2.44567
2.40273
2.33293
2.23969
2.15385
1.37842
2.22808
3.24552
3.65696
3.65895
3.71634
3.90471
4.58365
6.44004
8.84353
9.8368
9.67339
8.96532
8.23026
7.76384
7.34247
6.86676
6.36004
5.86428
5.41586
5.0277
4.69023
4.38436
4.08774
3.79139
3.52615
3.32015
3.16075
3.01471
2.86325
2.6925
2.52609
2.38836
2.27101
2.15069
2.0229
1.90979
1.83789
1.78816
1.71967
1.64492
1.57693
1.53082
1.48255
1.54435
1.91065
2.49477
3.03209
3.19318
3.18067
3.19199
3.23264
3.43872
3.94571
4.6284
5.19333
5.48393
5.4489
5.29655
5.09583
4.94173
4.85547
4.76552
4.62186
4.43723
4.27348
4.15218
4.05909
3.98293
3.90884
3.83088
3.74367
3.63944
3.53075
3.42854
3.31698
3.2231
3.17164
3.13426
3.094
3.04852
2.99643
2.93435
2.85907
2.75677
2.64179
2.57513
2.54738
2.51813
2.48111
2.43807
2.39677
2.35717
2.31186
2.26258
2.2192
2.52673
3.40038
3.67786
3.7292
3.75618
3.75732
3.72722
3.71916
3.95723
5.32486
7.64738
8.46749
8.35911
8.09091
7.65559
7.15533
6.63163
6.12387
5.65857
5.24654
4.88306
4.55792
4.25704
3.97457
3.72036
3.49588
3.28897
3.09607
2.92446
2.77038
2.61716
2.47496
2.34209
2.21288
2.10566
2.02408
1.94355
1.85506
1.76915
1.68821
1.63284
1.59078
1.61289
1.79025
2.34065
3.01065
3.33038
3.43686
3.401
3.31925
3.21199
3.16238
3.09997
3.15622
3.3969
3.94649
4.59637
4.92868
5.0347
5.06563
5.01886
4.90325
4.74672
4.56418
4.39789
4.27004
4.17821
4.1003
4.01193
3.9122
3.80489
3.7003
3.60159
3.51532
3.44048
3.36069
3.26444
3.17863
3.12139
3.07516
3.02683
2.97306
2.91453
2.85323
2.78241
2.69191
2.60415
2.53888
2.49493
2.45534
2.41937
2.38839
2.35974
2.33927
2.32626
2.38859
3.52494
3.77381
3.77858
3.73995
3.70868
3.69789
3.68495
3.66172
3.55055
3.56504
4.21567
5.74556
7.2694
7.66441
7.42557
6.83182
6.27427
5.82127
5.44026
5.09071
4.75493
4.43257
4.13572
3.86998
3.63433
3.42048
3.22615
3.04537
2.8779
2.72272
2.57514
2.43522
2.31572
2.20907
2.1
1.99965
1.90498
1.81897
1.73918
1.68923
1.66293
1.74342
2.16299
2.85914
3.52845
3.63047
3.593
3.51855
3.42298
3.34365
3.26343
3.18439
3.08854
3.01949
2.95278
3.01649
3.34223
3.96333
4.55522
4.97297
5.01546
4.92058
4.72746
4.5421
4.4107
4.30097
4.19406
4.09174
3.98959
3.8804
3.76354
3.66069
3.58309
3.51481
3.44148
3.3614
3.28041
3.20067
3.1263
3.06314
3.00411
2.9438
2.88396
2.82513
2.76263
2.69059
2.6006
2.51776
2.4778
2.44991
2.43013
2.4155
2.40605
2.45061
2.51473
2.70739
3.62955
3.7697
3.79961
3.77914
3.7396
3.69744
3.65359
3.5908
3.43322
3.24318
3.01768
3.19567
4.1982
5.70629
6.40616
6.31115
5.96841
5.59266
5.23752
4.89577
4.5644
4.25408
3.98028
3.74186
3.53082
3.33236
3.14444
2.96046
2.79322
2.64563
2.51453
2.38541
2.27569
2.17311
2.06454
1.96572
1.87554
1.81029
1.76501
1.78327
2.01162
2.67259
3.48876
3.92118
3.9435
3.86177
3.70523
3.58073
3.49054
3.4036
3.31666
3.22168
3.11924
3.00439
2.91919
2.83656
2.83775
3.0023
3.47563
4.12816
4.62604
4.68132
4.66291
4.59348
4.4737
4.34197
4.20194
4.07139
3.96145
3.85498
3.74302
3.6426
3.56621
3.50478
3.44774
3.38937
3.3142
3.21435
3.11533
3.0364
2.96909
2.90793
2.85342
2.80436
2.76
2.707
2.62406
2.52905
2.48668
2.47659
2.46934
2.50121
2.61052
2.7974
2.94183
3.0849
3.75717
3.7563
3.75635
3.74446
3.71819
3.66957
3.59111
3.44942
3.2441
2.99525
2.76287
2.5014
2.53505
3.03521
4.22321
5.38988
5.59509
5.39075
5.02457
4.66072
4.33337
4.05418
3.81148
3.59315
3.39666
3.21537
3.04653
2.87804
2.7206
2.57587
2.44999
2.32707
2.22945
2.13789
2.051
1.96351
1.91408
1.87203
1.95575
2.40938
3.28572
4.05632
4.25024
4.21893
4.05851
3.85262
3.70829
3.61587
3.5429
3.46089
3.36749
3.26411
3.1513
3.02715
2.91692
2.82039
2.78326
2.74663
2.79337
3.09555
3.69238
4.23505
4.55067
4.56048
4.50742
4.35108
4.17708
4.04516
3.94481
3.85071
3.74727
3.64966
3.57144
3.50774
3.44419
3.37298
3.2907
3.18887
3.08277
3.00003
2.93993
2.89148
2.84766
2.80516
2.7613
2.7081
2.62274
2.54829
2.52387
2.54054
2.63258
2.83128
3.09744
3.29929
3.36771
3.32565
3.70462
3.72546
3.73094
3.72192
3.69542
3.62222
3.48266
3.25164
2.98041
2.75625
2.54483
2.27512
2.07773
2.00173
2.22163
3.13421
4.35049
4.79335
4.70107
4.42221
4.12352
3.8617
3.62658
3.42457
3.25361
3.10365
2.95281
2.79835
2.64397
2.51333
2.40562
2.30718
2.22953
2.15288
2.08856
2.00557
2.01178
2.25633
3.0036
3.93084
4.51665
4.55518
4.49365
4.28066
4.05615
3.87765
3.7531
3.65494
3.57662
3.50472
3.42341
3.31257
3.18168
3.04926
2.94033
2.85055
2.77927
2.71912
2.65872
2.66212
2.81907
3.26036
3.81471
4.19648
4.27318
4.23711
4.16078
4.05583
3.9487
3.8502
3.75309
3.66468
3.58206
3.50427
3.43365
3.3626
3.27611
3.16559
3.05225
2.96847
2.92088
2.88396
2.84534
2.80565
2.76641
2.72487
2.64153
2.60703
2.65762
2.81538
3.06913
3.32758
3.54704
3.58117
3.57558
3.46222
3.71532
3.73116
3.73689
3.72181
3.65847
3.51821
3.27707
2.96228
2.73649
2.50892
2.21442
1.95807
1.84912
1.76619
1.61533
1.70504
2.30452
3.34636
4.12485
4.128
3.98062
3.73587
3.48778
3.27805
3.10549
2.97778
2.85067
2.72741
2.5898
2.49214
2.40685
2.33582
2.2553
2.20165
2.1388
2.23853
2.77406
3.827
4.64741
4.84444
4.79534
4.62724
4.43551
4.25009
4.08993
3.9673
3.85792
3.74714
3.63877
3.52488
3.40867
3.29169
3.17934
3.0786
2.98843
2.90471
2.8212
2.73211
2.642
2.58078
2.55495
2.62385
2.89335
3.3495
3.79949
4.08707
4.10917
4.07154
3.9553
3.8367
3.74424
3.66819
3.59337
3.51692
3.43391
3.34235
3.24486
3.13939
3.04134
2.95597
2.89891
2.86861
2.84378
2.8207
2.80438
2.77354
2.7821
2.88859
3.09547
3.2971
3.48581
3.63877
3.6738
3.66581
3.62151
3.45988
3.73203
3.73718
3.72282
3.67343
3.52966
3.28021
2.96283
2.69229
2.43918
2.11739
1.85555
1.77012
1.68364
1.51992
1.32601
1.2447
1.3057
1.69993
2.63356
3.49608
3.71587
3.59431
3.37389
3.17674
3.01595
2.91937
2.8352
2.73251
2.61282
2.51991
2.44579
2.38835
2.30252
2.32299
2.6327
3.56422
4.66
5.29819
5.2777
5.1275
4.84106
4.58295
4.385
4.25077
4.1584
4.06745
3.96314
3.83847
3.69163
3.53908
3.39937
3.27847
3.17947
3.10255
3.02995
2.9546
2.87227
2.78084
2.6788
2.57532
2.51586
2.48944
2.50057
2.60306
2.90945
3.41153
3.76326
3.87935
3.88864
3.84161
3.75783
3.68068
3.59424
3.4897
3.38912
3.29986
3.21459
3.12371
3.03652
2.95841
2.90444
2.88369
2.87633
2.8739
2.93913
3.04074
3.21998
3.45328
3.58187
3.67383
3.74551
3.77763
3.75131
3.67384
3.58544
3.43056
3.73093
3.72799
3.6962
3.55581
3.28899
2.95315
2.6284
2.35299
2.06015
1.80058
1.65296
1.56016
1.40849
1.20292
1.14146
1.12888
1.10449
1.13444
1.40512
2.18439
3.10045
3.42244
3.35169
3.20229
3.04882
2.93873
2.87543
2.79157
2.69568
2.59556
2.52863
2.47524
2.60069
3.25665
4.47134
5.48643
5.63526
5.57945
5.39331
5.13754
4.85507
4.6041
4.41859
4.30352
4.21397
4.12138
4.01832
3.89534
3.7372
3.55345
3.38044
3.2711
3.19652
3.12215
3.05481
2.98662
2.90012
2.79495
2.70412
2.62787
2.54613
2.47364
2.42922
2.37924
2.41263
2.61411
3.05553
3.46368
3.7446
3.80534
3.78425
3.7004
3.57935
3.45087
3.34046
3.24684
3.18025
3.11311
3.04888
2.99252
2.94662
2.93322
2.97886
3.13428
3.38299
3.60715
3.81408
3.83351
3.80718
3.79405
3.78977
3.74786
3.68382
3.61404
3.55239
3.44691
3.73823
3.71378
3.58177
3.32444
2.94195
2.53264
2.26623
2.00916
1.70998
1.53056
1.43249
1.30557
1.13179
1.02853
1.02703
1.00671
0.977507
0.957697
0.979007
1.19439
1.87039
2.92218
3.24976
3.21961
3.17966
3.08842
3.00573
2.925
2.84703
2.7367
2.74448
3.05617
4.16646
5.45198
6.1433
6.14857
5.97059
5.65873
5.36629
5.0944
4.85395
4.65893
4.50354
4.37407
4.26057
4.15773
4.04954
3.92156
3.76336
3.58182
3.3999
3.27989
3.23048
3.18527
3.12085
3.03936
2.94066
2.83465
2.73128
2.63247
2.5424
2.45672
2.37945
2.33087
2.31489
2.32257
2.44866
2.76672
3.19343
3.51824
3.61464
3.582
3.51178
3.41862
3.3323
3.23952
3.1498
3.08567
3.06842
3.05746
3.08357
3.19011
3.42603
3.74025
3.9627
4.08598
4.12504
4.08063
3.96872
3.86436
3.76366
3.68625
3.62834
3.57303
3.52333
3.42919
3.74055
3.61435
3.33034
2.94526
2.46276
2.1285
1.89144
1.563
1.37309
1.32311
1.22869
1.0566
1.00139
1.00521
0.991817
0.960607
0.94624
0.942544
0.943558
0.957427
1.09366
1.77208
2.81687
3.16679
3.31977
3.31036
3.21375
3.10646
3.00608
3.08833
3.69422
5.17957
6.43073
6.53154
6.44432
6.16929
5.8947
5.61552
5.35029
5.1203
4.92754
4.75765
4.60422
4.45397
4.30117
4.15254
4.01362
3.88003
3.7467
3.60658
3.46501
3.34944
3.25161
3.15843
3.07561
2.99266
2.9181
2.85089
2.77481
2.68022
2.57808
2.46857
2.36154
2.31589
2.28416
2.26935
2.26162
2.32465
2.51423
2.83583
3.18994
3.311
3.35423
3.36527
3.31785
3.24633
3.1776
3.15232
3.18462
3.26881
3.47754
3.76807
4.01833
4.20784
4.22795
4.21181
4.19276
4.13212
4.02621
3.89041
3.74192
3.65114
3.60449
3.55995
3.52744
3.45446
3.66119
3.33163
2.8888
2.38969
1.94521
1.68478
1.43509
1.19867
1.11505
1.06102
0.96442
0.913084
0.926809
0.947651
0.942093
0.93435
0.93836
0.952651
0.969814
0.993273
1.01805
1.14272
1.80952
2.67453
3.27501
3.3484
3.33494
3.35402
3.59815
4.58931
6.13758
7.08944
7.18233
6.96101
6.49094
6.12453
5.87231
5.63716
5.38789
5.13823
4.92826
4.77042
4.62925
4.48438
4.3314
4.17923
4.03797
3.90332
3.76622
3.62013
3.47882
3.36067
3.25658
3.16358
3.08207
3.00961
2.9414
2.8622
2.76785
2.6656
2.56232
2.45852
2.38326
2.3443
2.30391
2.27329
2.24155
2.22287
2.20005
2.24137
2.42303
2.73196
2.97892
3.19698
3.2573
3.28582
3.32005
3.44113
3.64355
3.84926
4.09708
4.26725
4.38238
4.405
4.3795
4.32701
4.23529
4.11228
3.98785
3.86786
3.73318
3.64834
3.58755
3.51924
3.47815
3.4132
3.34432
2.76889
2.21189
1.68813
1.46576
1.31073
1.11254
1.02603
0.995573
0.963096
0.917636
0.910479
0.929377
0.958739
0.964332
0.964964
0.978886
0.99892
1.01053
1.02971
1.04117
1.04904
1.14546
1.64369
2.55337
3.08141
3.5816
4.29638
5.67576
6.86705
7.48677
7.34028
6.98159
6.67909
6.42276
6.19236
5.96012
5.72926
5.49737
5.26982
5.06957
4.89563
4.72937
4.56552
4.40573
4.25356
4.11076
3.97417
3.83659
3.69357
3.54826
3.4148
3.30737
3.22231
3.14832
3.07854
3.00301
2.91436
2.8104
2.69479
2.57971
2.49925
2.4568
2.41603
2.37184
2.3246
2.27605
2.22109
2.15179
2.07028
2.07025
2.18177
2.45426
2.82147
3.11466
3.40718
3.76738
4.16373
4.38341
4.436
4.40677
4.42821
4.44013
4.4065
4.34571
4.27749
4.20507
4.09859
3.98535
3.86716
3.75637
3.67682
3.60727
3.5342
3.47343
3.38895
2.64527
1.71408
1.07402
0.812637
0.752928
0.688305
0.663961
0.695136
0.768756
0.830018
0.885222
0.949074
1.01562
1.04288
1.04092
1.0376
1.04685
1.05615
1.05849
1.07101
1.07573
1.07641
1.07042
1.12475
1.48958