/*--------------------------------*- C++ -*----------------------------------*\
  =========                 |
  \\      /  F ield         | OpenFOAM: The Open Source CFD Toolbox
   \\    /   O peration     | Website:  https://openfoam.org
    \\  /    A nd           | Version:  7
     \\/     M anipulation  |
\*---------------------------------------------------------------------------*/
FoamFile
{
    version     2.0;
    format      ascii;
    class       volScalarField;
    location    "1.9";
    object      rho;
}
// * * * * * * * * * * * * * * * * * * * * * * * * * * * * * * * * * * * * * //

dimensions      [1 -3 0 0 0 0 0];

internalField   nonuniform List<scalar> 
4608
(
1.40001
1.40001
1.40001
1.40001
1.40001
1.40001
1.40001
1.40001
1.40001
1.40001
1.40001
1.40001
1.40001
1.40001
1.40001
1.40001
1.40001
1.40001
1.40001
1.40001
1.40001
1.40001
1.40001
1.40001
1.40001
1.40001
1.40001
1.40001
1.40001
1.40001
1.40001
1.40001
1.40001
1.40001
1.40001
1.40001
1.40001
1.40001
1.40001
1.40001
1.40001
1.40001
1.40001
1.40001
1.40001
1.40001
1.40001
1.40001
1.40001
1.40001
1.40001
1.40001
1.40001
1.40001
1.40001
1.40001
1.40001
1.40001
1.40001
1.40001
1.40001
1.40001
1.40001
1.40001
1.40001
1.40001
1.40001
1.40001
1.40001
1.40001
1.40001
1.40001
1.40001
1.40001
1.40001
1.40001
1.40001
1.40001
1.40001
1.40001
1.40001
1.40001
1.40001
1.40001
1.40001
1.40001
1.40001
1.40001
1.40001
1.40001
1.40001
1.40001
1.40001
1.40001
1.40001
1.40001
1.40001
1.40001
1.40001
1.40001
1.40001
1.40001
1.40001
1.40001
1.40001
1.40001
1.40001
1.40001
1.40001
1.40001
1.40001
1.40001
1.40001
1.40001
1.40001
1.40001
1.40001
1.40001
1.40001
1.40001
1.40001
1.40001
1.40001
1.40001
1.40001
1.40001
1.40001
1.40001
1.40001
1.40001
1.40001
1.40001
1.40001
1.40001
1.40001
1.40001
1.40001
1.40001
1.40001
1.40001
1.40001
1.40001
1.40001
1.40001
1.40001
1.40001
1.40001
1.40001
1.40001
1.40001
1.40001
1.40001
1.40001
1.40001
1.40001
1.40001
1.40001
1.40001
1.40001
1.40001
1.40001
1.40001
1.40001
1.40001
1.40001
1.40001
1.40001
1.40001
1.40001
1.40001
1.40001
1.40001
1.40001
1.40001
1.40001
1.40001
1.40001
1.40001
1.40001
1.40001
1.40001
1.40001
1.40001
1.40001
1.40001
1.40001
1.40001
1.40001
1.40001
1.40001
1.40001
1.40001
1.40001
1.40001
1.40001
1.40001
1.40001
1.40001
1.40001
1.40001
1.40001
1.40001
1.40001
1.40001
1.40001
1.40001
1.40001
1.40001
1.40001
1.40001
1.40001
1.40001
1.40001
1.40001
1.40001
1.40001
1.40001
1.40001
1.40001
1.40001
1.40001
1.40001
1.40001
1.40001
1.40001
1.40001
1.40001
1.40001
1.40001
1.40001
1.40001
1.40001
1.40001
1.40001
1.40001
1.40001
1.40001
1.40001
1.40001
1.40001
1.40001
1.40001
1.40001
1.40001
1.40001
1.40001
1.40001
1.40001
1.40001
1.40001
1.40001
1.40001
1.40001
1.40001
1.40001
1.40001
1.40001
1.40001
1.40001
1.40001
1.40001
1.40001
1.40001
1.40001
1.40001
1.40001
1.40001
1.40001
1.40001
1.40001
1.40001
1.40001
1.40001
1.40001
1.40001
1.40001
1.40001
1.40001
1.40001
1.40001
1.40001
1.40001
1.40001
1.40001
1.40001
1.40001
1.40001
1.40001
1.40001
1.40001
1.40001
1.40001
1.40001
1.40001
1.40001
1.40001
1.40001
1.40001
1.40001
1.40001
1.40001
1.40001
1.40001
1.40001
1.40001
1.40001
1.40001
1.40001
1.40001
1.40001
1.40001
1.40001
1.40001
1.40001
1.40001
1.40001
1.40001
1.40001
1.40001
1.40001
1.40001
1.40001
1.40001
1.40001
1.40001
1.40001
1.40001
1.40001
1.40001
1.40001
1.40001
1.40001
1.40001
1.40001
1.40001
1.40001
1.40001
1.40001
1.40001
1.40001
1.40001
1.40001
1.40001
1.40001
1.40001
1.40001
1.40001
1.40001
1.40001
1.40001
1.40001
1.40001
1.40001
1.40001
1.40001
1.40001
1.40001
1.40001
1.40001
1.40001
1.40001
1.40001
1.40001
1.40001
1.40001
1.40001
1.40001
1.40001
1.40001
1.40001
1.40001
1.40001
1.40001
1.40001
1.40001
1.40001
1.40001
1.40001
1.40001
1.40001
1.40001
1.40001
1.40001
1.40001
1.40001
1.40001
1.40001
1.40001
1.40001
1.40001
1.40001
1.40001
1.40001
1.40001
1.40001
1.40001
1.40001
1.40001
1.40001
1.40001
1.40001
1.40001
1.40001
1.40001
1.40001
1.40001
1.40001
1.40001
1.40001
1.40001
1.40001
1.40001
1.40001
1.40001
1.40001
1.40001
1.40001
1.40001
1.40001
1.40001
1.40001
1.40001
1.40001
1.40001
1.40001
1.40001
1.40001
1.40001
1.40001
1.40001
1.40001
1.40001
1.40001
1.40001
1.40001
1.40001
1.40001
1.40001
1.40001
1.40001
1.40001
1.40001
1.40001
1.40001
1.40001
1.40001
1.40001
1.40001
1.40001
1.40001
1.40001
1.40001
1.40001
1.40001
1.40001
1.40001
1.40001
1.40001
1.40001
1.40001
1.40001
1.40001
1.40001
1.40001
1.40001
1.40001
1.40001
1.40001
1.40001
1.40001
1.40001
1.40001
1.40001
1.40001
1.40001
1.40001
1.40001
1.40001
1.40001
1.40001
1.40001
1.40001
1.40001
1.40001
1.40001
1.40001
1.40001
1.40001
1.40001
1.40001
1.40001
1.40001
1.40001
1.40001
1.40001
1.40001
1.40001
1.40001
1.40001
1.40001
1.40001
1.40001
1.40001
1.40001
1.40001
1.40001
1.40001
1.40001
1.40001
1.40001
1.40001
1.40001
1.40001
1.40001
1.40001
1.40001
1.40001
1.40001
1.40001
1.40001
1.40001
1.40001
1.40001
1.40001
1.40001
1.40001
1.40001
1.40001
1.40001
1.40001
1.40001
1.40001
1.40001
1.40001
1.40001
1.40001
1.40001
1.40001
1.40001
1.40001
1.40001
1.40001
1.40001
1.40001
1.40001
1.40001
1.40001
1.40001
1.40001
1.40001
1.40001
1.40001
1.40001
1.40001
1.40001
1.40001
1.40001
1.40001
1.40001
1.40001
1.40001
1.40001
1.40001
1.40001
1.40001
1.40001
1.40001
1.40001
1.40001
1.40001
1.40001
1.40001
1.40001
1.40001
1.40001
1.40001
1.40001
1.40001
1.40001
1.40001
1.40001
1.40001
1.40001
1.40001
1.40001
1.40001
1.40001
1.40001
1.40001
1.40001
1.40001
1.40001
1.40001
1.40001
1.40001
1.40001
1.40001
1.40001
1.40001
1.40001
1.40001
1.40001
1.40001
1.40001
1.40001
1.40001
1.40001
1.40001
1.40001
1.40001
1.40001
1.40001
1.40001
1.40001
1.40001
1.40001
1.40001
1.40001
1.40001
1.40001
1.40001
1.40001
1.40001
1.40001
1.40001
1.40001
1.40001
1.40001
1.40001
1.40001
1.40001
1.40001
1.40001
1.40001
1.40001
1.40001
1.40001
1.40001
1.40001
1.40001
1.40001
1.40001
1.40001
1.40001
1.40001
1.40001
1.40001
1.40001
1.40001
1.40001
1.40001
1.40001
1.40001
1.40001
1.40001
1.40001
1.40001
1.40001
1.40001
1.40001
1.40001
1.40001
1.40001
1.40001
1.40001
1.40001
1.40001
1.40001
1.40001
1.40001
1.40001
1.40001
1.40001
1.40001
1.40001
1.40001
1.40001
1.40001
1.40001
1.40001
1.40001
1.40001
1.40001
1.40001
1.40001
1.40001
1.40001
1.40001
1.40001
1.40001
1.40001
1.40001
1.40001
1.40001
1.40001
1.40001
1.40001
1.40001
1.40001
1.40001
1.40001
1.40001
1.40001
1.40001
1.40001
1.40001
1.40001
1.40001
1.40001
1.40001
1.40001
1.40001
1.40001
1.40001
1.40001
1.40001
1.40001
1.40001
1.40001
1.40001
1.40001
1.40001
1.40001
1.40001
1.40001
1.40001
1.40001
1.40001
1.40001
1.40001
1.40001
1.40001
1.40001
1.40001
1.40001
1.40001
1.40001
1.40001
1.40001
1.40001
1.40001
1.40001
1.40001
1.40001
1.40001
1.40001
1.40001
1.40001
1.40001
1.40001
1.40001
1.40001
1.40001
1.40001
1.40001
1.40001
1.40001
1.40001
1.40001
1.40001
1.40001
1.40001
1.40001
1.40001
1.40001
1.40001
1.40001
1.40001
1.67908
2.08163
2.53152
3.00942
3.40853
3.84276
4.13757
4.40829
4.4173
4.2942
4.04445
3.72286
3.44834
3.36646
3.30656
3.30264
3.31991
3.34876
3.38247
3.4049
3.4105
3.41087
3.40816
3.41303
1.40207
1.42089
1.47258
1.58868
1.80154
2.10389
2.51179
2.97924
3.36998
3.52485
3.67495
3.61841
3.533
3.48174
3.44959
3.39983
3.37323
3.36389
3.36991
3.38681
3.4015
3.41068
3.4124
3.41357
1.4
1.40002
1.40005
1.40011
1.40332
1.42055
1.49846
1.70603
2.20202
2.87271
3.46287
3.69846
3.75982
3.71149
3.62595
3.48412
3.37971
3.34225
3.33978
3.35177
3.37774
3.39897
3.4034
3.40513
1.4
1.4
1.4
1.4
1.39999
1.40004
1.39999
1.40147
1.43146
1.63859
2.18559
2.91565
3.44719
3.57683
3.53567
3.50416
3.45371
3.37906
3.32881
3.32187
3.33011
3.35176
3.36957
3.37546
1.40001
1.40001
1.40001
1.4
1.4
1.4
1.4
1.4
1.39991
1.40136
1.43209
1.6999
2.29085
3.06047
3.35552
3.52398
3.51825
3.46662
3.35237
3.30808
3.29163
3.29351
3.30589
3.32087
1.40001
1.40001
1.40001
1.40001
1.40001
1.4
1.4
1.4
1.39999
1.39999
1.39992
1.40368
1.45666
1.81649
2.48087
3.18709
3.43351
3.41846
3.39235
3.35431
3.32386
3.2864
3.28054
3.28717
1.40001
1.40001
1.40001
1.40001
1.40001
1.40001
1.40001
1.40001
1.4
1.4
1.39999
1.4
1.39999
1.41033
1.53608
2.01738
2.74429
3.26157
3.42199
3.42011
3.39036
3.3349
3.30211
3.29158
1.40001
1.40001
1.40001
1.40001
1.40001
1.40001
1.40001
1.40001
1.40001
1.40001
1.4
1.4
1.4
1.39997
1.4009
1.43045
1.69639
2.36874
2.9867
3.27036
3.35878
3.34885
3.30436
3.28234
1.40001
1.40001
1.40001
1.40001
1.40001
1.40001
1.40001
1.40001
1.40001
1.40001
1.40001
1.40001
1.4
1.4
1.4
1.40001
1.40734
1.5081
2.00055
2.75908
3.25796
3.28975
3.30235
3.288
1.40001
1.40001
1.40001
1.40001
1.40001
1.40001
1.40001
1.40001
1.40001
1.40001
1.40001
1.40001
1.40001
1.4
1.4
1.4
1.39999
1.40111
1.44769
1.73544
2.44574
3.07113
3.34913
3.34336
1.40001
1.40001
1.40001
1.40001
1.40001
1.40001
1.40001
1.40001
1.40001
1.40001
1.40001
1.40001
1.40001
1.40001
1.40001
1.4
1.4
1.4
1.40029
1.41251
1.60089
2.19344
2.96655
3.16053
1.40001
1.40001
1.40001
1.40001
1.40001
1.40001
1.40001
1.40001
1.40001
1.40001
1.40001
1.40001
1.40001
1.40001
1.40001
1.40001
1.4
1.4
1.4
1.40002
1.4069
1.49544
2.00967
2.71378
1.40001
1.40001
1.40001
1.40001
1.40001
1.40001
1.40001
1.40001
1.40001
1.40001
1.40001
1.40001
1.40001
1.40001
1.40001
1.40001
1.40001
1.4
1.4
1.4
1.40001
1.40186
1.46189
1.8334
1.40001
1.40001
1.40001
1.40001
1.40001
1.40001
1.40001
1.40001
1.40001
1.40001
1.40001
1.40001
1.40001
1.40001
1.40001
1.40001
1.40001
1.40001
1.40001
1.4
1.4
1.4
1.40108
1.43054
1.40001
1.40001
1.40001
1.40001
1.40001
1.40001
1.40001
1.40001
1.40001
1.40001
1.40001
1.40001
1.40001
1.40001
1.40001
1.40001
1.40001
1.40001
1.40001
1.40001
1.4
1.4
1.4
1.40008
1.40001
1.40001
1.40001
1.40001
1.40001
1.40001
1.40001
1.40001
1.40001
1.40001
1.40001
1.40001
1.40001
1.40001
1.40001
1.40001
1.40001
1.40001
1.40001
1.40001
1.40001
1.4
1.4
1.4
1.40001
1.40001
1.40001
1.40001
1.40001
1.40001
1.40001
1.40001
1.40001
1.40001
1.40001
1.40001
1.40001
1.40001
1.40001
1.40001
1.40001
1.40001
1.40001
1.40001
1.40001
1.4
1.4
1.4
1.40001
1.40001
1.40001
1.40001
1.40001
1.40001
1.40001
1.40001
1.40001
1.40001
1.40001
1.40001
1.40001
1.40001
1.40001
1.40001
1.40001
1.40001
1.40001
1.40001
1.4
1.4
1.40001
1.40002
1.40001
1.40001
1.40001
1.40001
1.40001
1.40001
1.40001
1.40001
1.40001
1.40001
1.40001
1.40001
1.40001
1.40001
1.40001
1.40001
1.40001
1.40001
1.40001
1.4
1.4
1.4
1.40115
1.42852
1.40001
1.40001
1.40001
1.40001
1.40001
1.40001
1.40001
1.40001
1.40001
1.40001
1.40001
1.40001
1.40001
1.40001
1.40001
1.40001
1.40001
1.4
1.4
1.4
1.40001
1.40186
1.46113
1.84169
1.40001
1.40001
1.40001
1.40001
1.40001
1.40001
1.40001
1.40001
1.40001
1.40001
1.40001
1.40001
1.40001
1.40001
1.40001
1.40001
1.4
1.4
1.4
1.40002
1.40692
1.4952
2.00424
2.7333
1.40001
1.40001
1.40001
1.40001
1.40001
1.40001
1.40001
1.40001
1.40001
1.40001
1.40001
1.40001
1.40001
1.40001
1.40001
1.4
1.4
1.4
1.40029
1.4125
1.60177
2.18897
2.9707
3.16466
1.40001
1.40001
1.40001
1.40001
1.40001
1.40001
1.40001
1.40001
1.40001
1.40001
1.40001
1.40001
1.40001
1.4
1.4
1.4
1.39999
1.40111
1.44753
1.73602
2.44611
3.06937
3.34937
3.34378
1.40001
1.40001
1.40001
1.40001
1.40001
1.40001
1.40001
1.40001
1.40001
1.40001
1.40001
1.40001
1.4
1.4
1.4
1.40001
1.40733
1.50819
1.99978
2.76163
3.2558
3.28866
3.30145
3.28824
1.40001
1.40001
1.40001
1.40001
1.40001
1.40001
1.40001
1.40001
1.40001
1.40001
1.4
1.4
1.4
1.39997
1.4009
1.43045
1.69643
2.36854
2.98639
3.27144
3.35882
3.34836
3.30413
3.28304
1.40001
1.40001
1.40001
1.40001
1.40001
1.40001
1.40001
1.40001
1.4
1.4
1.39999
1.4
1.39999
1.41033
1.53609
2.01736
2.74443
3.26128
3.42207
3.42026
3.39042
3.33478
3.30233
3.29181
1.40001
1.40001
1.40001
1.40001
1.40001
1.4
1.4
1.4
1.39999
1.39999
1.39992
1.40368
1.45666
1.81649
2.48086
3.18712
3.43352
3.41843
3.39235
3.35439
3.32384
3.28636
3.28065
3.28725
1.40001
1.40001
1.40001
1.4
1.4
1.4
1.4
1.4
1.39991
1.40136
1.43209
1.6999
2.29085
3.06048
3.35552
3.52399
3.51825
3.46662
3.35236
3.30815
3.2916
3.29351
3.30592
3.32091
1.4
1.4
1.4
1.4
1.39999
1.40004
1.39999
1.40147
1.43146
1.6386
2.18559
2.91566
3.44719
3.57683
3.53567
3.50417
3.45371
3.37905
3.32881
3.32189
3.33011
3.35174
3.36957
3.37548
1.4
1.40002
1.40005
1.40011
1.40332
1.42055
1.49846
1.70603
2.20202
2.87271
3.46287
3.69846
3.75982
3.71149
3.62595
3.48412
3.37971
3.34225
3.33978
3.35177
3.37773
3.39897
3.4034
3.40513
1.40207
1.42089
1.47258
1.58868
1.80154
2.10389
2.51179
2.97924
3.36998
3.52485
3.67495
3.61841
3.533
3.48174
3.44959
3.39984
3.37323
3.36389
3.36991
3.38681
3.4015
3.41068
3.4124
3.41357
1.67908
2.08163
2.53152
3.00942
3.40853
3.84276
4.13757
4.40829
4.4173
4.2942
4.04445
3.72286
3.44834
3.36646
3.30656
3.30264
3.31991
3.34876
3.38247
3.4049
3.4105
3.41087
3.40816
3.41303
2.65568
1.9415
1.38115
1.1301
1.04733
0.962796
0.937014
0.967422
1.04013
1.1046
1.16222
1.2226
1.28509
1.31469
1.31389
1.31204
1.32113
1.33089
1.33473
1.34758
1.3516
1.35309
1.34833
1.39266
1.66895
2.52293
3.63414
4.80711
5.86019
6.04951
5.69929
5.12417
4.78391
4.63251
4.54985
4.45838
4.34135
4.20051
4.05037
3.92
3.81542
3.72416
3.63442
3.54448
3.45593
3.37175
3.29185
3.21324
3.13039
3.04021
2.94452
2.85837
2.79551
2.75056
2.71108
2.67343
2.63258
2.58295
2.51825
2.43234
2.33863
2.28162
2.25731
2.23423
2.20883
2.18149
2.15059
2.11321
2.05848
1.9737
1.92798
1.93623
2.0078
2.2349
2.64189
3.08868
3.44706
3.71995
3.82949
3.82183
3.71513
3.58545
3.51336
3.4624
3.42416
3.39796
3.36053
3.29008
3.19813
3.09537
3.04467
3.02733
3.00635
2.97556
2.94562
2.89066
3.13888
2.73824
2.33145
1.93065
1.74222
1.60072
1.42288
1.33894
1.30681
1.27353
1.22206
1.21218
1.22898
1.25726
1.26289
1.26328
1.27577
1.2943
1.30581
1.32321
1.3336
1.33955
1.42011
1.79778
2.4223
2.76842
3.07057
3.47978
4.23453
4.85466
5.13522
5.06189
4.87513
4.72425
4.59851
4.47929
4.34778
4.20847
4.07786
3.95906
3.85215
3.76215
3.6774
3.59065
3.50354
3.41925
3.33787
3.25697
3.17293
3.08324
2.9908
2.90711
2.84213
2.79071
2.74653
2.70736
2.66611
2.61347
2.54466
2.46196
2.37821
2.32097
2.28891
2.26374
2.23666
2.20701
2.17729
2.1383
2.09088
2.03438
2.0364
2.1142
2.29926
2.53842
2.72351
2.90073
3.12333
3.33881
3.45163
3.47394
3.46096
3.47715
3.49465
3.48467
3.45264
3.41032
3.36225
3.29257
3.21151
3.11831
3.06749
3.0475
3.02036
2.98319
2.95085
2.89658
3.34167
3.12562
2.82262
2.46646
2.12837
1.92043
1.71564
1.50929
1.43166
1.38013
1.28476
1.23404
1.24797
1.26959
1.26367
1.25322
1.25569
1.26914
1.28645
1.30895
1.33102
1.43925
1.94864
2.53079
2.91125
2.95069
2.93925
2.94931
3.08888
3.63694
4.44331
4.90233
4.95288
4.84864
4.62
4.43282
4.30345
4.17966
4.04811
3.9092
3.78216
3.68739
3.61133
3.5359
3.45568
3.37446
3.29616
3.21906
3.13781
3.0481
2.95852
2.87947
2.81193
2.75461
2.70122
2.65112
2.61165
2.56911
2.51074
2.44628
2.38539
2.31794
2.25191
2.21658
2.19111
2.17136
2.15229
2.14333
2.12873
2.15934
2.28371
2.48209
2.63795
2.76858
2.80443
2.82459
2.84713
2.92008
3.03298
3.14484
3.28483
3.37362
3.43339
3.46696
3.45986
3.43148
3.37582
3.30178
3.22956
3.14591
3.06477
3.02392
2.99383
2.95522
2.92599
2.88476
3.36781
3.2933
3.11124
2.85333
2.5129
2.2659
2.08626
1.82439
1.66305
1.61998
1.53596
1.37786
1.32786
1.33136
1.31817
1.28559
1.269
1.26702
1.26863
1.28191
1.40028
1.92692
2.6329
2.84274
2.93468
2.92873
2.86676
2.79531
2.72246
2.76739
3.1118
3.90207
4.533
4.60992
4.57434
4.44219
4.30793
4.1738
4.03802
3.90488
3.78561
3.67535
3.58203
3.50046
3.42439
3.35137
3.28164
3.21185
3.13504
3.04769
2.95605
2.87751
2.8087
2.75149
2.69814
2.64087
2.58598
2.5486
2.5138
2.46646
2.40982
2.33537
2.25418
2.2045
2.17904
2.1695
2.164
2.20869
2.33335
2.55152
2.7583
2.82776
2.85709
2.86594
2.83918
2.79616
2.76454
2.74347
2.75707
2.80293
2.91537
3.06628
3.19535
3.31578
3.35651
3.35945
3.35353
3.32046
3.25866
3.17199
3.07974
3.01554
2.98219
2.94995
2.93452
2.90319
3.34012
3.3299
3.25236
3.09088
2.83839
2.55505
2.3661
2.17489
1.93774
1.79038
1.70959
1.60133
1.44476
1.34853
1.34741
1.3283
1.29922
1.28017
1.29908
1.47777
1.99089
2.68214
2.88899
2.87195
2.84356
2.78372
2.73121
2.6766
2.62371
2.5437
2.54354
2.72252
3.3473
4.03635
4.37239
4.41107
4.31738
4.16688
4.03061
3.89837
3.7583
3.62848
3.5287
3.4527
3.38725
3.32171
3.25439
3.18488
3.10867
3.01699
2.90822
2.84498
2.81718
2.77918
2.72985
2.66683
2.58992
2.51319
2.45341
2.40735
2.36121
2.31501
2.26536
2.22345
2.20334
2.20939
2.29074
2.49011
2.74504
2.96443
3.00892
2.97432
2.93527
2.88312
2.83241
2.78181
2.74108
2.70562
2.68638
2.66404
2.67307
2.72837
2.85594
3.03333
3.17364
3.26432
3.29463
3.28001
3.24043
3.18297
3.10899
3.04818
3.00407
2.96488
2.92547
2.86942
3.31137
3.31487
3.30145
3.21987
3.05364
2.83464
2.6144
2.42049
2.20419
2.00336
1.88544
1.80995
1.68154
1.50118
1.44754
1.43686
1.41427
1.43802
1.65074
2.20251
2.7947
2.98151
2.93942
2.84622
2.74899
2.68252
2.64365
2.59082
2.52985
2.46086
2.40977
2.36914
2.44758
2.83676
3.51392
4.03115
4.13447
4.11229
4.01975
3.89813
3.75377
3.60994
3.4875
3.40685
3.35447
3.30734
3.25261
3.18177
3.09161
2.98752
2.89258
2.82943
2.77855
2.73332
2.69003
2.64102
2.57514
2.49681
2.42515
2.3736
2.33652
2.30195
2.27876
2.25639
2.28377
2.42095
2.68652
2.92184
3.09189
3.11249
3.09133
3.03005
2.96098
2.8904
2.82748
2.77783
2.73888
2.70265
2.67026
2.63483
2.61217
2.59014
2.61108
2.69133
2.83223
2.97109
3.09483
3.12953
3.13072
3.12589
3.12164
3.08903
3.04631
2.99543
2.93687
2.85764
3.298
3.30562
3.30069
3.27525
3.19037
3.03496
2.82922
2.64756
2.47026
2.23477
2.03678
1.97075
1.90099
1.76487
1.60001
1.53223
1.57913
1.86785
2.49931
3.02999
3.15517
3.07823
2.94015
2.81915
2.72261
2.66674
2.61714
2.55537
2.48333
2.42313
2.36989
2.32668
2.25915
2.27067
2.4604
3.00605
3.61188
3.95649
3.95209
3.88312
3.74067
3.60015
3.48193
3.39614
3.32963
3.27344
3.21293
3.13837
3.05359
2.97093
2.8951
2.82201
2.76002
2.71299
2.67307
2.63433
2.58368
2.51384
2.42986
2.35368
2.31857
2.30753
2.32822
2.41534
2.6198
2.92037
3.10913
3.16855
3.16651
3.13767
3.07705
3.02123
2.96887
2.91047
2.85094
2.7976
2.74917
2.70627
2.66755
2.62901
2.5907
2.56639
2.55474
2.54173
2.57024
2.63077
2.75802
2.90832
2.98119
3.03724
3.08803
3.10297
3.08419
3.0334
2.97599
2.86984
3.28574
3.29612
3.30163
3.2946
3.25882
3.17421
3.02247
2.81677
2.665
2.50635
2.29342
2.103
2.0205
1.95671
1.83432
1.89513
2.28995
2.94629
3.40839
3.40668
3.31529
3.16352
3.00899
2.88074
2.77714
2.70214
2.62709
2.55334
2.46978
2.40858
2.35558
2.3057
2.24125
2.20395
2.15659
2.21617
2.54311
3.15134
3.61452
3.73392
3.71529
3.62371
3.51985
3.41791
3.31568
3.22676
3.15679
3.08914
3.02409
2.96037
2.89464
2.82391
2.7548
2.69344
2.64147
2.59219
2.53656
2.47844
2.41423
2.35991
2.34938
2.38149
2.54738
2.84725
3.1094
3.27615
3.2997
3.27425
3.20632
3.14298
3.09298
3.04638
2.9923
2.93127
2.8712
2.81546
2.76089
2.70993
2.66614
2.62822
2.59264
2.56818
2.54565
2.52613
2.50167
2.46748
2.47777
2.55885
2.69354
2.81766
2.94335
3.0299
3.04434
3.0409
3.01458
2.90146
3.28344
3.29475
3.3
3.29538
3.27922
3.23336
3.14533
2.9964
2.81771
2.66552
2.51831
2.32674
2.1852
2.12706
2.27724
2.85083
3.55566
3.79811
3.74526
3.58632
3.40933
3.24903
3.10327
2.97666
2.8706
2.77938
2.68924
2.59942
2.5063
2.42341
2.35534
2.29286
2.24111
2.18377
2.13605
2.06611
2.06124
2.21485
2.68742
3.23434
3.56434
3.59053
3.56202
3.45271
3.31825
3.19719
3.11132
3.04974
3.00002
2.9496
2.89488
2.83117
2.75532
2.66817
2.59817
2.55284
2.50949
2.47213
2.42773
2.42177
2.50226
2.74714
3.08294
3.32038
3.35816
3.35517
3.32464
3.26745
3.21591
3.16641
3.11222
3.05283
2.99496
2.9375
2.88359
2.8318
2.77544
2.71882
2.67207
2.63563
2.60531
2.58297
2.55817
2.53283
2.50111
2.45504
2.3827
2.37502
2.41708
2.52171
2.68371
2.84882
2.97799
2.99826
2.993
2.91698
3.32757
3.3239
3.32157
3.31327
3.29683
3.26448
3.21184
3.11877
2.9854
2.82002
2.66405
2.48354
2.50619
2.81629
3.51185
4.14078
4.25024
4.14649
3.95042
3.74632
3.55538
3.38591
3.23305
3.09263
2.96743
2.85471
2.75226
2.65384
2.56037
2.4728
2.39566
2.31545
2.24375
2.17492
2.11409
2.04778
2.0063
1.96638
2.02059
2.3198
2.86988
3.3199
3.44251
3.42547
3.33181
3.2022
3.10109
3.03877
2.99223
2.94407
2.89064
2.82953
2.7533
2.66169
2.5845
2.53599
2.5171
2.49953
2.53831
2.71683
3.03908
3.35499
3.53584
3.53312
3.49559
3.40311
3.31821
3.259
3.21355
3.16802
3.11564
3.06018
3.0077
2.95809
2.90961
2.8575
2.79681
2.73321
2.6811
2.64476
2.62043
2.59932
2.57622
2.54986
2.51653
2.4632
2.38169
2.34271
2.33553
2.34836
2.41383
2.54636
2.72575
2.85481
2.883
2.8475
3.26598
3.35239
3.36095
3.34616
3.31822
3.28692
3.25438
3.21161
3.109
2.98495
2.83245
2.93893
3.51541
4.31417
4.67583
4.64304
4.47706
4.27974
4.08713
3.89899
3.71455
3.53743
3.3711
3.21521
3.0733
2.94365
2.82511
2.71146
2.60567
2.51296
2.43495
2.35583
2.28094
2.20837
2.13186
2.0531
1.98247
1.93765
1.89515
1.90329
2.06562
2.49327
3.01801
3.2894
3.27569
3.21277
3.11258
3.03393
2.9726
2.93061
2.88795
2.83146
2.75946
2.67684
2.60035
2.54887
2.55546
2.68565
2.98651
3.34772
3.61767
3.65082
3.62984
3.57371
3.4922
3.4115
3.3334
3.27088
3.22101
3.17318
3.11898
3.06571
3.02378
2.98622
2.94357
2.88975
2.82348
2.75367
2.69518
2.66016
2.6354
2.60992
2.58467
2.55895
2.52891
2.48161
2.3995
2.33884
2.31894
2.31416
2.31369
2.33822
2.41455
2.54569
2.65338
2.71951
3.23599
3.36545
3.35778
3.32437
3.30365
3.2926
3.28001
3.26272
3.18966
3.18921
3.52486
4.37236
5.12286
5.31576
5.19956
4.91651
4.64654
4.41466
4.21356
4.02865
3.84852
3.67039
3.49787
3.3318
3.17521
3.03094
2.89988
2.77925
2.66968
2.56882
2.47114
2.38017
2.30924
2.24575
2.17062
2.09118
2.01234
1.94766
1.8864
1.84442
1.81769
1.87527
2.16092
2.64672
3.03714
3.11315
3.05868
2.99664
2.93913
2.89143
2.84005
2.79323
2.74305
2.70275
2.63863
2.66658
2.86843
3.25938
3.58431
3.80965
3.85958
3.81682
3.71352
3.59141
3.49011
3.41777
3.35371
3.29537
3.23801
3.1842
3.13025
3.08397
3.04392
3.00253
2.9606
2.91091
2.84545
2.77096
2.71558
2.68246
2.65454
2.62521
2.59475
2.56427
2.53206
2.48737
2.41865
2.35284
2.32302
2.30511
2.2951
2.28858
2.28405
2.31129
2.36345
2.48724
2.5772
3.18454
3.27202
3.32546
3.34606
3.34117
3.31417
3.31139
3.45868
4.16782
5.32782
5.78566
5.71008
5.56467
5.34134
5.10469
4.85036
4.59129
4.34803
4.13438
3.94657
3.76898
3.59357
3.41906
3.24846
3.09176
2.95619
2.83563
2.72388
2.62412
2.53005
2.43867
2.34707
2.24955
2.15483
2.1
2.06003
2.00065
1.93455
1.85441
1.79293
1.75449
1.76768
1.90886
2.28525
2.72878
2.93755
2.96497
2.95059
2.88962
2.82313
2.79346
2.76423
2.79865
2.90864
3.20552
3.59007
3.77259
3.83916
3.87763
3.86885
3.82388
3.74538
3.63741
3.52347
3.43737
3.37706
3.31981
3.26011
3.20273
3.14956
3.10601
3.06696
3.03078
2.99179
2.93533
2.86118
2.78946
2.74117
2.70536
2.67253
2.64118
2.61102
2.58329
2.55572
2.51353
2.44997
2.38355
2.34224
2.31342
2.29222
2.27422
2.2568
2.24577
2.24096
2.2791
1.70288
2.42029
2.98392
3.29986
3.30962
3.31982
3.42896
3.89816
4.89834
6.01041
6.53451
6.4631
6.09082
5.71052
5.45596
5.22765
4.98263
4.72387
4.46895
4.22628
4.01782
3.8387
3.67053
3.49838
3.32168
3.14835
2.9917
2.86749
2.75892
2.65636
2.56128
2.46874
2.37464
2.28252
2.19926
2.11429
2.02388
1.94791
1.89334
1.84195
1.79753
1.75429
1.70253
1.67326
1.73093
1.98044
2.43859
2.70054
2.84324
2.84644
2.82369
2.85304
3.03947
3.30306
3.62977
3.96623
4.09389
4.05144
3.9713
3.88017
3.82012
3.77968
3.72755
3.65589
3.56333
3.46594
3.39323
3.33542
3.28166
3.2304
3.18252
3.13561
3.08252
3.02035
2.95373
2.89001
2.83446
2.79448
2.76537
2.73809
2.70913
2.67556
2.63228
2.57685
2.51682
2.46548
2.42811
2.39589
2.362
2.33413
2.3108
2.2864
2.26092
2.23335
2.19995
2.16669
1.42109
1.61081
2.22015
2.89609
3.2875
3.5653
4.46523
5.55748
6.28146
6.6273
6.60549
6.51385
6.29733
5.9566
5.623
5.3173
5.04438
4.79927
4.56645
4.32935
4.09561
3.88781
3.70154
3.53203
3.36682
3.21069
3.05993
2.93041
2.81816
2.70414
2.59774
2.49739
2.39907
2.29963
2.19948
2.10632
2.01593
1.93884
1.89092
1.85543
1.81
1.75553
1.69238
1.65063
1.60727
1.61465
1.76689
2.1108
2.50879
2.734
2.8709
3.29793
3.77221
4.00776
4.16691
4.19937
4.17304
4.07554
3.99114
3.91963
3.84035
3.776
3.71855
3.6583
3.5909
3.5125
3.42336
3.34646
3.2884
3.2421
3.20207
3.16084
3.11031
3.03994
2.93987
2.85813
2.82251
2.80221
2.78336
2.76338
2.74022
2.71
2.663
2.59384
2.50206
2.4372
2.41048
2.39599
2.38656
2.373
2.35268
2.32604
2.28918
2.23792
2.18853
2.1322
1.40039
1.41333
1.54195
2.12905
3.46554
4.49183
5.84503
6.598
6.99353
6.9219
6.67889
6.50156
6.36983
6.10146
5.73441
5.36975
5.06064
4.79141
4.55993
4.39995
4.24158
4.03937
3.82485
3.61432
3.40599
3.22124
3.05285
2.89264
2.81867
2.77407
2.69744
2.59647
2.47969
2.3571
2.23187
2.12737
2.04587
1.97316
1.89138
1.85367
1.83633
1.8022
1.74551
1.67084
1.5995
1.56271
1.57269
1.65113
1.965
2.6242
3.21092
3.89186
4.28655
4.44871
4.43169
4.35567
4.20181
4.04955
3.97783
3.9288
3.85948
3.77426
3.70754
3.66597
3.61071
3.5167
3.41031
3.32825
3.27223
3.23338
3.20158
3.16689
3.11651
3.03272
2.92253
2.85407
2.83202
2.81317
2.79122
2.76645
2.74008
2.70883
2.66315
2.58939
2.493
2.43099
2.41304
2.39996
2.38432
2.36484
2.34185
2.31454
2.2797
2.23273
2.17955
2.11556
1.40043
1.40995
1.57147
2.2067
3.24306
4.7541
5.84991
6.505
7.03156
6.86785
6.54707
6.41108
6.29346
6.07756
5.76585
5.42551
5.10605
4.835
4.61071
4.38864
4.16268
3.95429
3.74588
3.56484
3.43049
3.28356
3.11339
2.95533
2.83232
2.72706
2.63425
2.53819
2.42753
2.31823
2.25177
2.19144
2.12247
2.04062
1.94656
1.86928
1.80855
1.76037
1.69926
1.64022
1.60523
1.57343
1.5845
1.68472
1.99008
2.5463
3.33917
3.92231
4.21599
4.46455
4.44519
4.28605
4.13316
4.06873
4.01069
3.95086
3.86957
3.78299
3.71042
3.64864
3.58064
3.48714
3.40122
3.34486
3.30109
3.26531
3.23432
3.1978
3.13903
3.03596
2.92226
2.88267
2.86334
2.84145
2.81565
2.7892
2.762
2.72845
2.67245
2.58672
2.4994
2.4564
2.43502
2.41606
2.39523
2.37211
2.34624
2.31547
2.2811
2.2366
2.17249
2.11016
1.42349
1.5998
2.22639
2.94968
3.11302
3.73274
4.51592
5.48516
6.36291
6.57893
6.53632
6.43598
6.22793
5.92562
5.62567
5.34469
5.06952
4.81435
4.57684
4.34034
4.12066
3.92795
3.7517
3.56566
3.36482
3.18172
3.03048
2.90371
2.78553
2.68478
2.61218
2.54094
2.45223
2.34307
2.22175
2.1176
2.04511
1.98724
1.92439
1.85628
1.79388
1.74197
1.68951
1.65184
1.62104
1.63287
1.76914
2.12492
2.51437
2.6669
2.95815
3.30916
3.66057
4.03438
4.12695
4.14055
4.13486
4.09887
4.01885
3.95688
3.88643
3.81087
3.74339
3.6621
3.5684
3.47422
3.38802
3.31878
3.27032
3.23106
3.19657
3.16027
3.11299
3.04357
2.94872
2.86255
2.82161
2.79964
2.77546
2.75045
2.72501
2.69729
2.66321
2.60396
2.51875
2.44242
2.4076
2.3865
2.36715
2.35239
2.33998
2.32322
2.2944
2.24614
2.17988
2.118
1.72226
2.36341
3.03791
3.30334
3.29663
3.32745
3.43608
3.82582
4.83498
6.00767
6.46811
6.39508
6.06234
5.7072
5.4754
5.26359
5.0212
4.75653
4.48904
4.24162
4.02372
3.83045
3.65143
3.47281
3.29004
3.12384
2.99365
2.89257
2.7988
2.69957
2.58433
2.46826
2.36964
2.28395
2.1953
2.10075
2.01721
1.96395
1.92641
1.87318
1.814
1.75937
1.72228
1.68159
1.72634
1.98957
2.39069
2.7387
2.83981
2.82842
2.83447
2.85637
2.9783
3.27544
3.65327
3.95398
4.11716
4.1018
4.02253
3.91446
3.82762
3.77619
3.72399
3.64372
3.54084
3.4484
3.37838
3.32349
3.27895
3.23726
3.19354
3.14327
3.08104
3.01321
2.94804
2.87751
2.81803
2.78613
2.76381
2.73965
2.71185
2.67946
2.63973
2.59033
2.52313
2.44669
2.40158
2.38356
2.36507
2.34168
2.31399
2.28719
2.26113
2.22985
2.1945
2.16142
2.58047
3.14568
3.30149
3.33133
3.34497
3.34358
3.32057
3.31049
3.44764
4.19706
5.3637
5.78209
5.73355
5.60502
5.39047
5.13742
4.86779
4.60115
4.35205
4.12703
3.92413
3.73779
3.56055
3.39021
3.23475
3.09647
2.96773
2.84553
2.73411
2.63125
2.52596
2.42612
2.33161
2.2382
2.15993
2.10012
2.04105
1.97515
1.90986
1.84744
1.80393
1.76948
1.78521
1.91224
2.29144
2.72633
2.922
2.97856
2.95414
2.90092
2.833
2.80077
2.75569
2.78748
2.92726
3.2426
3.61173
3.80095
3.86217
3.8786
3.85206
3.7869
3.70027
3.59884
3.50561
3.43325
3.38024
3.33509
3.28444
3.2282
3.1675
3.10683
3.04734
2.99326
2.94511
2.89472
2.83547
2.78309
2.74853
2.72049
2.69068
2.65704
2.61998
2.58057
2.53439
2.47495
2.41693
2.37395
2.34563
2.32045
2.29744
2.27757
2.25923
2.24488
2.23371
2.27256
3.22645
3.35834
3.3542
3.32516
3.3025
3.29366
3.28292
3.26614
3.19195
3.19652
3.55461
4.3782
5.14386
5.34561
5.23099
4.93243
4.64512
4.40759
4.20488
4.0152
3.82862
3.64469
3.47081
3.31188
3.16905
3.03799
2.91682
2.80112
2.6914
2.5877
2.48732
2.39042
2.30621
2.23025
2.1515
2.07858
2.00892
1.94464
1.88349
1.84636
1.82457
1.88187
2.17113
2.63057
3.04117
3.09718
3.06546
3.01407
2.95175
2.90068
2.85002
2.79998
2.73639
2.68941
2.64139
2.67802
2.87257
3.23592
3.56744
3.7971
3.82589
3.77543
3.67211
3.57093
3.49823
3.43544
3.37372
3.31574
3.25838
3.19624
3.12883
3.06876
3.02201
2.97917
2.93247
2.88258
2.83399
2.78662
2.74151
2.70268
2.66611
2.62856
2.59111
2.55364
2.51276
2.46588
2.40811
2.35404
2.32846
2.31159
2.30068
2.2923
2.28492
2.31406
2.3552
2.47629
3.26233
3.34416
3.35976
3.34472
3.3158
3.28527
3.25413
3.21173
3.10876
2.98502
2.83295
2.93449
3.50158
4.3129
4.67957
4.63368
4.45734
4.25973
4.06917
3.88193
3.69658
3.51941
3.3598
3.2181
3.09065
2.96869
2.85075
2.73243
2.62262
2.52427
2.43603
2.34722
2.27036
2.19802
2.11991
2.04764
1.98104
1.93368
1.90057
1.91333
2.07077
2.50498
3.00557
3.27377
3.26819
3.21397
3.1143
3.03485
2.97718
2.9226
2.86846
2.80845
2.74228
2.66693
2.61039
2.55477
2.55407
2.65333
2.93425
3.30933
3.5874
3.62929
3.62036
3.58399
3.51752
3.44316
3.36352
3.28892
3.22687
3.16679
3.1024
3.04319
2.99753
2.96047
2.92573
2.89009
2.84453
2.78368
2.7229
2.67472
2.63384
2.59647
2.56259
2.53138
2.50266
2.46838
2.41517
2.35405
2.32734
2.32265
2.32005
2.34151
2.41274
2.53214
2.62309
2.70841
3.32665
3.32302
3.3215
3.31314
3.2958
3.2635
3.21153
3.1189
2.9844
2.82007
2.66369
2.4825
2.50128
2.80362
3.49408
4.12964
4.24198
4.13237
3.93221
3.7296
3.54395
3.38324
3.24139
3.11152
2.99252
2.88055
2.77412
2.6656
2.56249
2.46623
2.38166
2.29759
2.22951
2.16501
2.10392
2.04126
2.0056
1.97467
2.03269
2.33496
2.88057
3.33072
3.43374
3.41467
3.3181
3.19131
3.09992
3.0412
2.99527
2.94429
2.88611
2.82183
2.75108
2.67157
2.59995
2.53684
2.51262
2.48697
2.51487
2.69869
3.05031
3.36143
3.53924
3.54862
3.52061
3.43467
3.33724
3.26202
3.20509
3.1518
3.09237
3.03523
2.98908
2.95206
2.91536
2.87258
2.82154
2.75783
2.69222
2.64221
2.60652
2.57775
2.55085
2.52406
2.49624
2.46184
2.40587
2.35803
2.34465
2.35618
2.41664
2.54407
2.71041
2.83461
2.87539
2.84571