/*--------------------------------*- C++ -*----------------------------------*\
  =========                 |
  \\      /  F ield         | OpenFOAM: The Open Source CFD Toolbox
   \\    /   O peration     | Website:  https://openfoam.org
    \\  /    A nd           | Version:  7
     \\/     M anipulation  |
\*---------------------------------------------------------------------------*/
FoamFile
{
    version     2.0;
    format      ascii;
    class       volScalarField;
    location    "1.9";
    object      T;
}
// * * * * * * * * * * * * * * * * * * * * * * * * * * * * * * * * * * * * * //

dimensions      [0 0 0 1 0 0 0];

internalField   nonuniform List<scalar> 
4608
(
1
1
1
1
1
1
1
1
1
1
1
1
1
1
1
1
1
1
1
1
1
1
1
1
1
1
1
1
1
1
1
1
1
1
1
1
1
1
1
1
1
1
1
1
1
1
1
1
1
1
1
1
1
1
1
1
1
1
1
1
1
1
1
1
1
1
1
1
1
1
1
1
1
1
1
1
1
1
1
1
1
1
1
1
1
1
1
1
1
1
1
1
1
1
1
1
1
1
1
1
1
1
1
1
1
1
1
1
1
1
1
1
1
1
1
1
1
1
1
1
1
1
1
1
1
1
1
1
1
1
1
1
1
1
1
1
1
1
1
1
1
1
1
1
1
1
1
1
1
1
1
1
1
1
1
1
1
1
1
1
1
1
1
1
1
1
1
1
1
1
1
1
1
1
1
1
1
1
1
1
1
1
1
1
1
1
1
1
1
1
1
1
1
1
1
1
1
1
1
1
1
1
1
1
1
1
1
1
1
1
1
1
1
1
1
1
1
1
1
1
1
1
1
1
1
1
1
1
1
1
1
1
1
1
1
1
1
1
1
1
1
1
1
1
1
1
1
1
1
1
1
1
1
1
1
1
1
1
1
1
1
1
1
1
1
1
1
1
1
1
1
1
1
1
1
1
1
1
1
1
1
1
1
1
1
1
1
1
1
1
1
1
1
1
1
1
1
1
1
1
1
1
1
1
1
1
1
1
1
1
1
1
1
1
1
1
1
1
1
1
1
1
1
1
1
1
1
1
1
1
1
1
1
1
1
1
1
1
1
1
1
1
1
1
1
1
1
1
1
1
1
1
1
1
1
1
1
1
1
1
1
1
1
1
1
1
1
1
1
1
1
1
1
1
1
1
1
1
1
1
1
1
1
1
1
1
1
1
1
1
1
1
1
1
1
1
1
1
1
1
1
1
1
1
1
1
1
1
1
1
1
1
1
1
1
1
1
1
1
1
1
1
1
1
1
1
1
1
1
1
1
1
1
1
1
1
1
1
1
1
1
1
1
1
1
1
1
1
1
1
1
1
1
1
1
1
1
1
1
1
1
1
1
1
1
1
1
1
1
1
1
1
1
1
1
1
1
1
1
1
1
1
1
1
1
1
1
1
1
1
1
1
1
1
1
1
1
1
1
1
1
1
1
1
1
1
1
1
1
1
1
1
1
1
1
1
1
1
1
1
1
1
1
1
1
1
1
1
1
1
1
1
1
1
1
1
1
1
1
1
1
1
1
1
1
1
1
1
1
1
1
1
1
1
1
1
1
1
1
1
1
1
1
1
1
1
1
1
1
1
1
1
1
1
1
1
1
1
1
1
1
1
1
1
1
1
1
1
1
1
1
1
1
1
1
1
1
1
1
1
1
1
1
1
1
1
1
1
1
1
1
1
1
1
1
1
1
1
1
1
1
1
1
1
1
1
1
1
1
1
1
1
1
1
1
1
1
1
1
1
1
1
1
1
1
1
1
1
1
1
1
1
1
1
1
1
1
1
1
1
1
1
1
1
1
1
1
1
1
1
1
1
1
1
1
1
1
1
1
1
1
1
1
1
1
1
1
1
1
1
1
1
1
1
1
1
1
1
1
1
1
1
1
1
1
1
1
1
1
1
1
1
1
1
1
1
1
1
1
1
1
1
1
1
1
1
1
1
1
1
1
1
1
1
1
1
1
1
1
1
1
1
1
1
1
1
1
1
1
1
1
1
1
1
1
1
1
1
1
1
1
1
1
1
1
1
1
1
1.07894
1.18047
1.28636
1.39416
1.48418
1.5753
1.63958
1.68032
1.69706
1.68104
1.63954
1.58696
1.54032
1.52445
1.51335
1.51365
1.51704
1.52317
1.52996
1.53443
1.53566
1.5357
1.53511
1.53621
1.00069
1.00758
1.02771
1.0723
1.1465
1.22993
1.32304
1.40799
1.48121
1.51541
1.55616
1.5625
1.55706
1.55161
1.54659
1.53698
1.53205
1.53188
1.53309
1.53596
1.53804
1.53919
1.53918
1.53972
0.999998
1.00001
1.00002
1.00005
1.00127
1.00778
1.03792
1.11551
1.27282
1.44757
1.57357
1.62144
1.62009
1.60836
1.59259
1.56708
1.54932
1.54274
1.54162
1.54286
1.54563
1.5476
1.54748
1.54851
1
1
1
0.999999
0.999995
1.00001
0.999989
1.00059
1.01337
1.10973
1.30912
1.49246
1.60959
1.60905
1.59786
1.59504
1.5878
1.57424
1.56299
1.55725
1.55569
1.55664
1.55779
1.55957
1
1
1
1
1
1
0.999999
0.999999
0.999961
1.00053
1.01436
1.13416
1.34565
1.53811
1.59572
1.62603
1.62328
1.61141
1.58772
1.57503
1.56715
1.5636
1.56485
1.56911
1
1
1
1
1
1
1
1
0.999996
0.999997
0.999959
1.0014
1.02496
1.1796
1.3969
1.57124
1.61382
1.60813
1.60222
1.59392
1.58539
1.57651
1.57559
1.57792
1
1
1
1
1
1
1
1
1
1
0.999996
0.999997
0.999978
1.00399
1.05986
1.24383
1.4543
1.57667
1.61003
1.60955
1.60374
1.59337
1.58666
1.5847
1
1
1
1
1
1
1
1
1
1
1
1
0.999998
0.999985
1.0003
1.01186
1.12543
1.34359
1.50637
1.57205
1.59471
1.59315
1.58526
1.5816
1
1
1
1
1
1
1
1
1
1
1
1
1
0.999998
0.999998
0.999993
1.00269
1.04326
1.22978
1.44446
1.56288
1.57361
1.57929
1.57779
1
1
1
1
1
1
1
1
1
1
1
1
1
1
1
0.999999
0.999993
1.00035
1.01813
1.13086
1.35723
1.51567
1.57167
1.58205
1
1
1
1
1
1
1
1
1
1
1
1
1
1
1
1
0.999999
0.999998
1.00008
1.00448
1.0787
1.27926
1.47695
1.52788
1
1
1
1
1
1
1
1
1
1
1
1
1
1
1
1
1
1
0.999999
1
1.00231
1.03617
1.21976
1.41146
1
1
1
1
1
1
1
1
1
1
1
1
1
1
1
1
1
1
1
1
0.999999
1.00059
1.02277
1.1564
1
1
1
1
1
1
1
1
1
1
1
1
1
1
1
1
1
1
1
1
1
0.999999
1.00033
1.01049
1
1
1
1
1
1
1
1
1
1
1
1
1
1
1
1
1
1
1
1
1
1
0.999999
1.00001
1
1
1
1
1
1
1
1
1
1
1
1
1
1
1
1
1
1
1
1
1
1
1
1
1
1
1
1
1
1
1
1
1
1
1
1
1
1
1
1
1
1
1
1
1
1
1
0.999999
1
1
1
1
1
1
1
1
1
1
1
1
1
1
1
1
1
1
1
1
1
1
1
0.999995
1
1
1
1
1
1
1
1
1
1
1
1
1
1
1
1
1
1
1
1
1
0.999999
1.00035
1.00987
1
1
1
1
1
1
1
1
1
1
1
1
1
1
1
1
1
1
1
1
0.999999
1.00059
1.02253
1.15824
1
1
1
1
1
1
1
1
1
1
1
1
1
1
1
1
1
1
0.999999
1
1.00232
1.03602
1.21846
1.41667
1
1
1
1
1
1
1
1
1
1
1
1
1
1
1
1
0.999999
0.999998
1.00008
1.00448
1.07903
1.2781
1.47814
1.52901
1
1
1
1
1
1
1
1
1
1
1
1
1
1
1
0.999999
0.999993
1.00036
1.01806
1.13112
1.35733
1.5151
1.57187
1.58219
1
1
1
1
1
1
1
1
1
1
1
1
1
0.999998
0.999998
0.999993
1.00269
1.04328
1.22953
1.44512
1.56241
1.57329
1.57904
1.57789
1
1
1
1
1
1
1
1
1
1
1
1
0.999998
0.999985
1.0003
1.01186
1.12544
1.34352
1.50629
1.57229
1.59472
1.59304
1.58518
1.58173
1
1
1
1
1
1
1
1
1
1
0.999996
0.999997
0.999978
1.00399
1.05986
1.24383
1.45434
1.5766
1.61005
1.60958
1.60375
1.59335
1.5867
1.58473
1
1
1
1
1
1
1
1
0.999996
0.999997
0.999959
1.0014
1.02496
1.1796
1.39689
1.57125
1.61382
1.60812
1.60222
1.59393
1.58539
1.57651
1.57561
1.57792
1
1
1
1
1
1
0.999999
0.999999
0.999961
1.00053
1.01436
1.13416
1.34565
1.53811
1.59572
1.62603
1.62328
1.61141
1.58772
1.57504
1.56715
1.56361
1.56485
1.5691
1
1
1
0.999999
0.999995
1.00001
0.999989
1.00059
1.01337
1.10973
1.30912
1.49246
1.60959
1.60905
1.59786
1.59504
1.5878
1.57424
1.56299
1.55725
1.55569
1.55664
1.55779
1.55958
0.999998
1.00001
1.00002
1.00005
1.00127
1.00778
1.03792
1.11551
1.27282
1.44757
1.57357
1.62144
1.62009
1.60836
1.59258
1.56708
1.54932
1.54274
1.54162
1.54286
1.54563
1.5476
1.54749
1.54852
1.00069
1.00758
1.02771
1.0723
1.1465
1.22993
1.32304
1.40799
1.48121
1.51541
1.55616
1.5625
1.55706
1.55161
1.54659
1.53698
1.53205
1.53188
1.53309
1.53596
1.53804
1.53919
1.53918
1.53972
1.07894
1.18047
1.28636
1.39416
1.48418
1.5753
1.63958
1.68032
1.69706
1.68104
1.63954
1.58696
1.54032
1.52445
1.51335
1.51365
1.51704
1.52317
1.52996
1.53443
1.53566
1.5357
1.53511
1.53621
1.39451
1.23602
1.0887
1.00669
1.00646
1.00089
0.99205
1.00596
1.03473
1.05199
1.06634
1.08679
1.10643
1.11056
1.10914
1.10717
1.10934
1.111
1.11025
1.11266
1.11425
1.11377
1.11138
1.13008
1.24621
1.51032
1.75545
1.97893
2.14279
2.19124
2.14125
2.05172
1.99458
1.96819
1.95363
1.93831
1.91846
1.89405
1.86749
1.84396
1.82479
1.80763
1.79012
1.77201
1.75381
1.73628
1.71951
1.70299
1.68553
1.66637
1.64573
1.62679
1.61271
1.60241
1.59303
1.58373
1.57353
1.56139
1.54587
1.52525
1.50235
1.48803
1.48166
1.47532
1.46805
1.46012
1.45136
1.44111
1.42644
1.40328
1.39006
1.3926
1.41431
1.47999
1.58757
1.69149
1.76627
1.82055
1.8399
1.84652
1.82752
1.80207
1.78672
1.77525
1.76585
1.75979
1.75171
1.73683
1.71726
1.69505
1.68454
1.68106
1.6766
1.67008
1.66384
1.65173
1.49164
1.41567
1.32822
1.22414
1.17783
1.14638
1.09468
1.07282
1.06657
1.05875
1.05126
1.05156
1.05871
1.06759
1.06903
1.06941
1.07421
1.08052
1.08344
1.08946
1.09298
1.09655
1.12985
1.28171
1.47652
1.55913
1.63026
1.7233
1.87076
1.97854
2.03697
2.03018
2.00718
1.98492
1.96386
1.94359
1.92099
1.89671
1.87343
1.8519
1.83226
1.81512
1.7986
1.78135
1.76382
1.74664
1.72979
1.71299
1.69546
1.67655
1.65678
1.63854
1.62397
1.61217
1.60167
1.59209
1.58198
1.56935
1.55308
1.53327
1.51291
1.49875
1.49037
1.48346
1.47576
1.46737
1.45913
1.4485
1.43582
1.42079
1.42169
1.4448
1.49617
1.55959
1.60709
1.6492
1.69902
1.74532
1.76858
1.77531
1.77439
1.77912
1.78241
1.77978
1.77272
1.76388
1.75402
1.73926
1.72185
1.7017
1.69117
1.68694
1.68112
1.67332
1.66643
1.65413
1.53386
1.49227
1.43282
1.35643
1.27951
1.2282
1.17108
1.11187
1.09038
1.0763
1.05095
1.03588
1.03971
1.04499
1.04375
1.0438
1.0462
1.05089
1.05547
1.06241
1.07108
1.1139
1.3049
1.48207
1.57978
1.59205
1.58957
1.59257
1.62994
1.76276
1.92871
2.01593
2.02764
2.01041
1.97159
1.93883
1.91573
1.89349
1.86971
1.84459
1.82132
1.80305
1.78787
1.77246
1.75589
1.73901
1.72261
1.70652
1.68955
1.67055
1.6511
1.63348
1.61793
1.60453
1.59177
1.57936
1.56935
1.55917
1.54551
1.53013
1.51523
1.49819
1.48104
1.47149
1.46439
1.45851
1.45287
1.45027
1.44733
1.45786
1.49553
1.54817
1.5862
1.61961
1.63038
1.63441
1.63924
1.65648
1.68362
1.71043
1.74312
1.7633
1.77562
1.77992
1.77798
1.77173
1.76008
1.74504
1.72972
1.71171
1.69334
1.68428
1.67787
1.66967
1.66353
1.6538
1.55494
1.53648
1.49858
1.44511
1.37206
1.31509
1.26927
1.19945
1.1559
1.14344
1.11995
1.07361
1.05578
1.05705
1.05343
1.04611
1.04391
1.04147
1.04131
1.04578
1.09531
1.29172
1.5032
1.56173
1.58705
1.58677
1.57474
1.55997
1.54587
1.56
1.65622
1.84282
1.97276
1.97587
1.96921
1.94608
1.92282
1.8982
1.87263
1.84871
1.8276
1.80683
1.78777
1.77018
1.75329
1.73722
1.72246
1.70776
1.6918
1.67338
1.65314
1.63524
1.61947
1.6059
1.59284
1.57841
1.5643
1.55514
1.54703
1.53583
1.52202
1.50329
1.48241
1.4693
1.46255
1.45931
1.45718
1.46972
1.50571
1.5672
1.61907
1.63481
1.64259
1.64751
1.64171
1.63189
1.62457
1.61954
1.62337
1.6362
1.66486
1.70064
1.72907
1.75589
1.76141
1.76106
1.75948
1.75271
1.74057
1.72275
1.70154
1.68655
1.67888
1.67169
1.66845
1.66073
1.56688
1.56141
1.54179
1.50577
1.45108
1.38773
1.3409
1.29332
1.23549
1.19684
1.17309
1.14147
1.09672
1.06785
1.0672
1.06105
1.05327
1.0474
1.05486
1.13066
1.31788
1.51886
1.57645
1.57486
1.57206
1.56075
1.54937
1.5374
1.52592
1.50788
1.50865
1.56281
1.7306
1.87837
1.94454
1.95003
1.93307
1.90429
1.87738
1.85263
1.82666
1.80201
1.78165
1.76488
1.74942
1.73421
1.71973
1.70511
1.68939
1.67001
1.64542
1.63019
1.62342
1.61398
1.60165
1.58652
1.56811
1.54904
1.53383
1.52239
1.51113
1.49974
1.48683
1.47599
1.47001
1.47165
1.49436
1.54884
1.61584
1.67121
1.6812
1.67364
1.66611
1.65544
1.64394
1.63182
1.62191
1.6134
1.60957
1.60552
1.60835
1.62285
1.65404
1.69642
1.72793
1.74753
1.75323
1.7498
1.74168
1.72956
1.71323
1.69878
1.68763
1.67796
1.66842
1.6549
1.57746
1.57456
1.56747
1.54613
1.50791
1.45854
1.40753
1.36096
1.30853
1.25833
1.22736
1.20679
1.17265
1.12182
1.10422
1.09975
1.09298
1.10333
1.18866
1.38435
1.5489
1.60241
1.59469
1.57623
1.55527
1.53992
1.53079
1.51843
1.50403
1.48736
1.47374
1.46204
1.48564
1.60011
1.76765
1.8862
1.90135
1.89645
1.87863
1.8555
1.8278
1.7996
1.77478
1.75786
1.7459
1.73489
1.72274
1.70798
1.68917
1.66654
1.64478
1.62908
1.61594
1.60447
1.59392
1.58289
1.568
1.54881
1.5301
1.51708
1.50806
1.49934
1.4933
1.48718
1.49489
1.53314
1.60252
1.66147
1.70233
1.70888
1.70425
1.69085
1.67587
1.66001
1.64526
1.6333
1.62375
1.61501
1.60771
1.60006
1.59501
1.58931
1.59442
1.61478
1.65051
1.68422
1.71173
1.72084
1.7206
1.71935
1.71832
1.71049
1.69959
1.68696
1.67271
1.65457
1.58425
1.58284
1.57911
1.57018
1.54883
1.51309
1.46614
1.42368
1.3824
1.32632
1.27527
1.25748
1.23993
1.20597
1.16045
1.13671
1.15557
1.2674
1.47123
1.61109
1.64333
1.62818
1.59998
1.57297
1.55001
1.53615
1.52304
1.50677
1.48868
1.47361
1.45948
1.44728
1.42756
1.43075
1.49026
1.64818
1.79258
1.86634
1.86539
1.85222
1.82532
1.79676
1.7725
1.7549
1.74143
1.72948
1.71629
1.70058
1.68236
1.66385
1.64639
1.62904
1.61377
1.60221
1.59284
1.58391
1.57207
1.55495
1.53381
1.51445
1.50584
1.5034
1.50922
1.53351
1.5892
1.66581
1.70888
1.72272
1.72277
1.71699
1.7039
1.69121
1.67905
1.66558
1.65157
1.63896
1.62736
1.61712
1.60805
1.59897
1.58959
1.58313
1.57913
1.575
1.58252
1.5989
1.63148
1.66817
1.68561
1.70036
1.71115
1.71285
1.7081
1.69557
1.68187
1.65971
1.58259
1.58454
1.58462
1.58163
1.57168
1.55171
1.51797
1.47237
1.43758
1.4012
1.35139
1.30319
1.28116
1.26392
1.23357
1.26047
1.40349
1.58676
1.69405
1.6941
1.6759
1.64492
1.61238
1.58341
1.55861
1.53964
1.52071
1.50229
1.48127
1.46396
1.44886
1.4352
1.41759
1.40596
1.39169
1.41222
1.51766
1.68127
1.78508
1.81639
1.81426
1.79739
1.77579
1.75431
1.73429
1.71707
1.70298
1.68897
1.67501
1.66091
1.64586
1.62943
1.61338
1.599
1.58684
1.57489
1.56132
1.54703
1.53121
1.51715
1.51524
1.52467
1.57061
1.64918
1.71125
1.7513
1.75236
1.74676
1.7316
1.71788
1.7074
1.69695
1.68392
1.66929
1.65507
1.64189
1.62907
1.61705
1.60657
1.59695
1.5873
1.58028
1.5739
1.56822
1.5609
1.55225
1.55564
1.57778
1.61233
1.64324
1.67413
1.69338
1.69567
1.69439
1.68825
1.66594
1.57876
1.58258
1.58318
1.58164
1.57791
1.56835
1.55027
1.51945
1.48128
1.44742
1.41369
1.36898
1.33129
1.31922
1.37402
1.54756
1.71502
1.76891
1.75917
1.7285
1.69261
1.6585
1.62624
1.5972
1.57209
1.54995
1.52797
1.50558
1.48142
1.45975
1.44176
1.42383
1.40883
1.39355
1.38077
1.36001
1.35935
1.41174
1.55124
1.69178
1.76825
1.78009
1.77373
1.75196
1.72624
1.70345
1.68725
1.67539
1.6653
1.65452
1.64245
1.6282
1.61125
1.59152
1.57512
1.56421
1.55365
1.5448
1.53406
1.53429
1.55739
1.62253
1.70447
1.75907
1.76384
1.76254
1.75537
1.74311
1.73157
1.72016
1.70767
1.69436
1.6811
1.66741
1.65431
1.64193
1.62874
1.61536
1.60385
1.59415
1.58534
1.57832
1.57117
1.56439
1.55607
1.54397
1.5247
1.5227
1.53393
1.5615
1.6032
1.64366
1.67331
1.67843
1.67752
1.66354
1.58135
1.58278
1.58329
1.58232
1.57969
1.57442
1.56553
1.54836
1.52209
1.48702
1.45223
1.41094
1.42027
1.51837
1.69591
1.83133
1.84808
1.82864
1.79198
1.75255
1.714
1.67788
1.64397
1.61226
1.58371
1.55769
1.53341
1.50923
1.48528
1.46249
1.44204
1.421
1.40297
1.38547
1.3686
1.34976
1.33668
1.32402
1.34276
1.44073
1.59541
1.70244
1.73511
1.73277
1.71587
1.69244
1.67484
1.66401
1.65511
1.64511
1.63379
1.62071
1.60411
1.58453
1.56722
1.55591
1.552
1.54955
1.56124
1.61129
1.69304
1.76212
1.79872
1.79638
1.78622
1.76606
1.74882
1.73611
1.72538
1.71378
1.70079
1.68834
1.6767
1.66489
1.65324
1.64121
1.62721
1.61204
1.59877
1.58876
1.58153
1.57509
1.56837
1.56125
1.5531
1.54024
1.51928
1.50747
1.50417
1.50736
1.52449
1.55893
1.60402
1.63445
1.64148
1.63697
1.55819
1.57985
1.5834
1.58214
1.57936
1.57576
1.57164
1.56505
1.54613
1.52109
1.49106
1.5253
1.68139
1.85087
1.91505
1.90765
1.8771
1.84098
1.80527
1.76936
1.73257
1.69566
1.65993
1.62613
1.59541
1.5671
1.54026
1.51328
1.48699
1.46323
1.44302
1.42292
1.40381
1.38484
1.36577
1.34621
1.3268
1.31159
1.29744
1.30056
1.35788
1.48997
1.62806
1.68325
1.68937
1.68202
1.66557
1.65172
1.64019
1.63157
1.6223
1.61046
1.59584
1.57984
1.56376
1.5532
1.55609
1.59211
1.67001
1.75511
1.80993
1.81064
1.80558
1.79216
1.77438
1.75797
1.74205
1.72844
1.71649
1.7046
1.6916
1.67936
1.66996
1.66171
1.65245
1.6404
1.62508
1.60844
1.59371
1.58383
1.57628
1.56874
1.56166
1.55504
1.54799
1.53722
1.51722
1.50032
1.49417
1.49167
1.48955
1.49566
1.51572
1.54959
1.5762
1.59691
1.53147
1.57557
1.57772
1.57466
1.57207
1.57132
1.57073
1.56887
1.55689
1.5596
1.65111
1.83476
1.97682
2.00314
1.98268
1.9355
1.88929
1.84884
1.8129
1.77862
1.74372
1.70787
1.67225
1.63767
1.60528
1.57544
1.54744
1.52021
1.49398
1.46885
1.44405
1.42137
1.40412
1.38874
1.37056
1.35018
1.32862
1.30997
1.29259
1.27775
1.27354
1.29543
1.39273
1.52702
1.62526
1.64532
1.63804
1.63013
1.62041
1.61057
1.59893
1.58877
1.58039
1.57473
1.56584
1.57552
1.62852
1.72077
1.79063
1.8349
1.84047
1.83204
1.81031
1.78457
1.76353
1.74829
1.73435
1.72118
1.70791
1.69527
1.68254
1.67173
1.66304
1.65493
1.64681
1.63627
1.62143
1.60409
1.59049
1.58138
1.57323
1.56498
1.55694
1.54946
1.54182
1.53097
1.51419
1.49812
1.48997
1.48422
1.47981
1.4768
1.47499
1.48222
1.49654
1.53305
1.37127
1.52302
1.55347
1.56585
1.5725
1.57228
1.57052
1.57269
1.6109
1.76934
1.98368
2.0501
2.03892
2.0177
1.98348
1.94527
1.90302
1.85956
1.81893
1.78247
1.74847
1.71444
1.67962
1.64441
1.61002
1.57858
1.55069
1.52475
1.4995
1.47578
1.45258
1.43024
1.40875
1.38618
1.36261
1.34853
1.33828
1.32244
1.30375
1.2804
1.26284
1.2541
1.25993
1.31111
1.43173
1.54797
1.59825
1.61185
1.60995
1.59794
1.58301
1.5762
1.57595
1.58733
1.6201
1.69344
1.77779
1.81477
1.82316
1.82744
1.826
1.81799
1.80244
1.78152
1.76009
1.74242
1.72859
1.7155
1.70194
1.68877
1.67647
1.66671
1.65877
1.6525
1.64517
1.63332
1.61709
1.60079
1.58919
1.58002
1.57148
1.5635
1.55615
1.54987
1.54339
1.53288
1.51706
1.50068
1.49017
1.48219
1.47584
1.46998
1.46399
1.4604
1.45999
1.47315
1.1141
1.33536
1.48313
1.54732
1.55752
1.56201
1.58801
1.69355
1.88685
2.05963
2.13107
2.12088
2.07265
2.02226
1.98603
1.94992
1.90851
1.86481
1.82351
1.78503
1.75049
1.71834
1.68627
1.65257
1.6174
1.58227
1.55018
1.52422
1.50111
1.47834
1.45615
1.43427
1.41256
1.39154
1.3715
1.35034
1.32716
1.30647
1.29074
1.27604
1.26408
1.25292
1.23772
1.23262
1.25437
1.34015
1.47104
1.54074
1.57699
1.57895
1.57391
1.58296
1.63187
1.69583
1.7662
1.83211
1.86051
1.8535
1.83809
1.81954
1.80633
1.79727
1.78763
1.7751
1.75839
1.73919
1.7237
1.71102
1.69908
1.68758
1.67684
1.66668
1.65585
1.64365
1.62995
1.61662
1.60484
1.59597
1.58887
1.58191
1.57458
1.56637
1.55622
1.54366
1.52987
1.51774
1.50824
1.49955
1.49037
1.48265
1.47601
1.46885
1.46145
1.45392
1.44516
1.43941
1.00742
1.07793
1.28372
1.45787
1.54432
1.60424
1.77655
1.97224
2.08747
2.12181
2.11748
2.10749
2.08311
2.04209
1.9975
1.95235
1.90818
1.86775
1.8302
1.79243
1.75486
1.71975
1.68625
1.65455
1.62304
1.59238
1.56221
1.5351
1.51047
1.48534
1.46159
1.43894
1.41657
1.39363
1.37011
1.34726
1.324
1.30317
1.28973
1.27988
1.26793
1.25355
1.2362
1.22422
1.21222
1.21643
1.27217
1.38406
1.49638
1.55053
1.58169
1.67343
1.77789
1.83409
1.85919
1.86715
1.86342
1.84821
1.83377
1.82053
1.80455
1.79096
1.78033
1.77038
1.75876
1.74389
1.7255
1.70872
1.69597
1.68585
1.67712
1.66823
1.65764
1.64284
1.62236
1.60602
1.59893
1.59444
1.5897
1.58438
1.57824
1.57069
1.55971
1.54394
1.52313
1.50821
1.50167
1.49757
1.49429
1.48969
1.48319
1.4755
1.46589
1.45277
1.44089
1.42833
1.00011
1.00438
1.05832
1.25306
1.5905
1.77767
1.98358
2.11445
2.17256
2.15971
2.12283
2.10075
2.08684
2.05504
2.00594
1.95271
1.90506
1.86253
1.82575
1.80048
1.77615
1.74366
1.70673
1.66814
1.62951
1.59473
1.5615
1.5271
1.50954
1.49967
1.48356
1.46188
1.43589
1.4078
1.37871
1.35338
1.33245
1.31273
1.28974
1.2796
1.27595
1.26777
1.25252
1.23097
1.2101
1.19929
1.20291
1.23307
1.34004
1.52593
1.66058
1.78976
1.86979
1.91082
1.90934
1.89734
1.86974
1.84096
1.82648
1.81741
1.80425
1.7884
1.77693
1.77024
1.76045
1.74265
1.72113
1.7034
1.69083
1.68189
1.67453
1.66684
1.65638
1.63929
1.61722
1.60365
1.59926
1.59497
1.58968
1.58338
1.57651
1.56877
1.55826
1.54167
1.51991
1.50579
1.50172
1.49826
1.49358
1.48726
1.47976
1.47152
1.46208
1.45028
1.43812
1.4232
1.00013
1.00349
1.06125
1.26861
1.52453
1.82792
2.00994
2.09811
2.16851
2.14991
2.1078
2.09097
2.07819
2.05129
2.00867
1.95861
1.91098
1.86993
1.83472
1.79995
1.76406
1.7294
1.69258
1.65859
1.63385
1.60721
1.57447
1.54113
1.51315
1.48935
1.46901
1.44815
1.42377
1.39908
1.38461
1.37087
1.35334
1.33131
1.3054
1.2838
1.26756
1.25496
1.23822
1.22159
1.21233
1.20318
1.20696
1.24153
1.34579
1.50309
1.69364
1.81031
1.85684
1.90724
1.91142
1.88892
1.86001
1.84422
1.83004
1.81927
1.80607
1.79199
1.77941
1.76785
1.75424
1.7357
1.71889
1.70738
1.69751
1.68864
1.68053
1.67196
1.66029
1.6402
1.61755
1.60982
1.60539
1.6002
1.59399
1.58731
1.58045
1.57272
1.56041
1.54119
1.5215
1.51193
1.50692
1.50214
1.49607
1.48881
1.48064
1.47148
1.46219
1.45117
1.43618
1.42141
1.00825
1.07495
1.28172
1.4708
1.50295
1.64546
1.80819
1.95413
2.07528
2.11416
2.11286
2.10373
2.07774
2.03599
1.99369
1.95208
1.91048
1.87124
1.8339
1.79638
1.76018
1.72684
1.69484
1.66016
1.6226
1.58795
1.55785
1.53063
1.50374
1.48019
1.46367
1.44852
1.42968
1.40533
1.37719
1.35171
1.33251
1.31634
1.29875
1.27982
1.26291
1.24907
1.23493
1.22478
1.21701
1.22243
1.27279
1.38549
1.49385
1.52966
1.60347
1.68631
1.7532
1.8242
1.8578
1.86295
1.86065
1.85148
1.83435
1.82247
1.81213
1.80147
1.78994
1.77391
1.75428
1.73486
1.71757
1.70366
1.6931
1.68367
1.67482
1.66589
1.65605
1.643
1.62449
1.60662
1.59771
1.59235
1.58611
1.57952
1.57299
1.56644
1.55905
1.5461
1.52677
1.50904
1.50081
1.49529
1.48941
1.48412
1.47932
1.4738
1.46611
1.4541
1.43841
1.4237
1.1205
1.31984
1.49568
1.54988
1.55388
1.56363
1.59095
1.67732
1.86476
2.06086
2.12915
2.11769
2.0704
2.01892
1.98514
1.95294
1.91458
1.87197
1.8289
1.78758
1.74932
1.71425
1.68102
1.6479
1.61334
1.58031
1.55269
1.52981
1.50801
1.48489
1.4586
1.4328
1.41106
1.39207
1.37155
1.34812
1.32545
1.31014
1.29953
1.28527
1.26951
1.25483
1.24437
1.2343
1.25242
1.34447
1.46095
1.54998
1.57422
1.57436
1.57659
1.58443
1.61643
1.6865
1.77369
1.83883
1.86476
1.85979
1.84342
1.82252
1.8075
1.80014
1.79156
1.77583
1.75443
1.73497
1.72067
1.70987
1.70058
1.69044
1.67941
1.66742
1.65374
1.64047
1.62819
1.61382
1.60124
1.59372
1.58765
1.58108
1.57382
1.56562
1.55626
1.54525
1.52964
1.51164
1.50118
1.49623
1.49061
1.48337
1.47507
1.46708
1.45947
1.4515
1.44344
1.43743
1.37085
1.51336
1.55961
1.56721
1.57211
1.57324
1.57145
1.57283
1.60694
1.7762
1.99608
2.05022
2.04111
2.02092
1.9883
1.94991
1.9073
1.86333
1.8203
1.77978
1.74212
1.70719
1.67387
1.64132
1.61018
1.58059
1.55155
1.52327
1.49747
1.47403
1.45056
1.42819
1.4063
1.38417
1.36482
1.34931
1.33313
1.31489
1.29686
1.27934
1.26722
1.25862
1.26487
1.31069
1.43007
1.54601
1.59567
1.61542
1.61178
1.6019
1.58729
1.58076
1.57492
1.58521
1.62462
1.70391
1.78168
1.81538
1.82504
1.82847
1.82407
1.81272
1.79593
1.77554
1.75635
1.74123
1.7305
1.72122
1.7101
1.69664
1.68173
1.66744
1.65464
1.64418
1.63549
1.62536
1.61181
1.59898
1.58993
1.58253
1.57491
1.56652
1.5574
1.54793
1.53701
1.52273
1.50845
1.49727
1.48911
1.48139
1.47431
1.46812
1.46229
1.45887
1.45801
1.47148
1.52952
1.5732
1.57714
1.57464
1.57219
1.57183
1.57145
1.56957
1.55729
1.56141
1.66037
1.83724
1.97851
2.00729
1.98736
1.93912
1.89102
1.84904
1.81132
1.77501
1.73873
1.70265
1.66821
1.63593
1.60555
1.57627
1.54847
1.52208
1.49702
1.47305
1.44943
1.42625
1.40578
1.38671
1.36649
1.34684
1.32757
1.30953
1.29274
1.28086
1.27598
1.297
1.39475
1.52165
1.62432
1.64107
1.64093
1.63433
1.62351
1.61381
1.60308
1.59222
1.58018
1.57183
1.56505
1.57694
1.6289
1.71472
1.78765
1.83355
1.8353
1.82465
1.80236
1.78076
1.76518
1.75272
1.74043
1.72766
1.71418
1.69968
1.68401
1.67005
1.65994
1.65172
1.64301
1.63256
1.62054
1.60803
1.59651
1.58672
1.57749
1.5679
1.55824
1.54885
1.53922
1.52758
1.51191
1.49737
1.48979
1.48378
1.47878
1.47525
1.47422
1.48261
1.49483
1.53066
1.55759
1.57815
1.58329
1.58184
1.57894
1.57565
1.57186
1.56524
1.54612
1.52108
1.4913
1.52461
1.67853
1.85231
1.91655
1.90683
1.87462
1.83808
1.80198
1.76564
1.72868
1.69226
1.65856
1.62786
1.59939
1.57151
1.54423
1.51684
1.49107
1.46731
1.44512
1.42278
1.40329
1.38414
1.36344
1.344
1.32545
1.31067
1.30015
1.30484
1.36002
1.49368
1.62508
1.67686
1.68929
1.68219
1.66565
1.65183
1.64141
1.63042
1.61876
1.606
1.59245
1.57716
1.56562
1.55443
1.5555
1.58414
1.65831
1.74641
1.80534
1.80583
1.80316
1.79434
1.78058
1.76546
1.74898
1.73308
1.71871
1.70425
1.68909
1.67576
1.66561
1.65741
1.64979
1.64186
1.63116
1.61661
1.60178
1.58932
1.57821
1.56794
1.55889
1.55098
1.54397
1.53534
1.5211
1.50408
1.49586
1.49279
1.49009
1.49549
1.51477
1.54667
1.57013
1.59462
1.58119
1.58255
1.58329
1.58226
1.57943
1.57421
1.56547
1.54837
1.52183
1.48697
1.45213
1.41067
1.4189
1.51565
1.69215
1.82725
1.84658
1.82633
1.78892
1.74952
1.71186
1.67764
1.64624
1.61671
1.58908
1.56274
1.53748
1.51158
1.48639
1.46224
1.44017
1.41797
1.39997
1.38247
1.3648
1.34668
1.33611
1.32724
1.34701
1.44463
1.59691
1.705
1.73291
1.72975
1.71241
1.69012
1.67476
1.66455
1.65597
1.64565
1.63351
1.61944
1.60368
1.58634
1.57068
1.55649
1.55081
1.54618
1.55504
1.60588
1.6947
1.76386
1.80009
1.7992
1.79242
1.77354
1.75233
1.73611
1.72312
1.71045
1.6965
1.68341
1.67277
1.66353
1.65396
1.64389
1.6328
1.61882
1.6031
1.5896
1.57909
1.5704
1.5629
1.55592
1.54867
1.54005
1.5262
1.51296
1.50701
1.50955
1.5251
1.55806
1.59991
1.62951
1.63971
1.63612
1.57905
1.58269
1.58305
1.58149
1.57784
1.56835
1.55022
1.51938
1.48114
1.44749
1.41401
1.36898
1.33133
1.31858
1.37087
1.54337
1.71384
1.76893
1.75929
1.72839
1.69308
1.66022
1.62915
1.60105
1.57612
1.55345
1.53029
1.50606
1.48067
1.45831
1.43922
1.42007
1.40399
1.38868
1.37623
1.35939
1.36124
1.41661
1.55593
1.69449
1.76914
1.77868
1.77129
1.7474
1.7222
1.70202
1.68773
1.67602
1.66624
1.65688
1.64583
1.63063
1.61244
1.59345
1.57746
1.56395
1.55287
1.54333
1.53397
1.53505
1.56287
1.63435
1.71391
1.76325
1.76845
1.76395
1.75465
1.74147
1.72782
1.71519
1.70245
1.69042
1.67894
1.66779
1.65752
1.64766
1.63584
1.61999
1.60272
1.58909
1.58072
1.57411
1.56738
1.56072
1.55418
1.54742
1.53374
1.52751
1.53599
1.56222
1.60275
1.6413
1.67165
1.6758
1.67525
1.66223
1.58274
1.58461
1.58461
1.58158
1.57169
1.55173
1.51796
1.47236
1.43758
1.40127
1.35151
1.30329
1.28119
1.26386
1.23332
1.25998
1.40497
1.58845
1.69521
1.69532
1.67764
1.64719
1.615
1.58587
1.56035
1.54038
1.52017
1.50041
1.478
1.46041
1.44389
1.43005
1.41433
1.40298
1.39038
1.41281
1.52069
1.6876
1.78959
1.81611
1.81186
1.79438
1.7723
1.75065
1.73252
1.71827
1.70511
1.6914
1.67749
1.66236
1.64635
1.63001
1.61397
1.59921
1.58569
1.573
1.56026
1.54602
1.53126
1.52071
1.51672
1.52929
1.57644
1.64941
1.71085
1.74783
1.75023
1.74554
1.73094
1.7157
1.70351
1.69316
1.6828
1.67231
1.66097
1.64817
1.63421
1.61843
1.6031
1.58947
1.58004
1.57498
1.57074
1.56672
1.56395
1.55912
1.56095
1.57893
1.61146
1.64189
1.66979
1.69034
1.69378
1.69242
1.68597
1.66597
1.58425
1.58283
1.57911
1.5702
1.54886
1.5131
1.46613
1.42368
1.3824
1.32636
1.27532
1.25748
1.23992
1.20589
1.16039
1.13691
1.15629
1.26998
1.47307
1.61301
1.64472
1.62964
1.6014
1.574
1.55017
1.53531
1.5216
1.50419
1.48414
1.46833
1.45514
1.44424
1.4272
1.43104
1.49269
1.65217
1.79699
1.86918
1.86671
1.85116
1.82134
1.7925
1.76995
1.75436
1.74326
1.73202
1.71921
1.7038
1.68518
1.66512
1.646
1.62857
1.61375
1.60207
1.59115
1.57985
1.56731
1.55287
1.53612
1.51859
1.50883
1.50448
1.50692
1.52645
1.57924
1.6555
1.7044
1.72037
1.72196
1.71599
1.705
1.69473
1.68312
1.66937
1.65602
1.64336
1.63053
1.61663
1.60315
1.59088
1.58238
1.57904
1.57787
1.57736
1.58783
1.60445
1.63242
1.66649
1.68467
1.69819
1.70751
1.71051
1.70673
1.69575
1.68299
1.66316
1.57744
1.57454
1.56745
1.54612
1.50791
1.45854
1.40752
1.36096
1.30853
1.25832
1.22736
1.20679
1.17266
1.12183
1.10415
1.0998
1.09309
1.10372
1.18982
1.3861
1.54992
1.6032
1.59471
1.5756
1.55454
1.53843
1.52882
1.51584
1.50045
1.48398
1.47225
1.46236
1.48657
1.60263
1.77227
1.89158
1.90311
1.89717
1.87861
1.85255
1.82309
1.79557
1.77434
1.76067
1.74931
1.7374
1.72468
1.70981
1.69039
1.66671
1.64283
1.62644
1.61471
1.60318
1.59311
1.58299
1.56984
1.55332
1.5386
1.52621
1.51297
1.50084
1.4931
1.48418
1.49031
1.5266
1.59947
1.66119
1.70131
1.70971
1.70683
1.69581
1.68009
1.66334
1.64838
1.63478
1.62462
1.61433
1.60475
1.59644
1.58963
1.58765
1.59498
1.61916
1.65633
1.68819
1.71549
1.71888
1.71575
1.71344
1.71251
1.7069
1.69801
1.68792
1.67904
1.6651
1.56688
1.56141
1.5418
1.50578
1.45108
1.38773
1.34091
1.29332
1.23548
1.19683
1.17309
1.14146
1.09672
1.06783
1.06717
1.06105
1.05329
1.04738
1.05493
1.13107
1.31726
1.52067
1.57476
1.57315
1.57071
1.55928
1.54735
1.53548
1.52395
1.5072
1.50905
1.56549
1.73476
1.88264
1.95102
1.95018
1.93353
1.90265
1.87303
1.84613
1.82181
1.80092
1.78295
1.76705
1.75268
1.73971
1.72655
1.71126
1.69193
1.66858
1.64357
1.62585
1.61818
1.61136
1.60171
1.58944
1.57427
1.55762
1.54118
1.52551
1.51084
1.49622
1.4824
1.4742
1.47057
1.47193
1.49528
1.55139
1.62057
1.66916
1.68134
1.6767
1.66781
1.65659
1.64523
1.63196
1.61866
1.6087
1.6062
1.60534
1.60985
1.62682
1.66177
1.70537
1.73376
1.7485
1.75299
1.74743
1.73361
1.72062
1.7077
1.69729
1.68915
1.68133
1.67419
1.6611
1.55494
1.53648
1.49859
1.44511
1.37207
1.31509
1.26927
1.19944
1.1559
1.14345
1.11995
1.07361
1.05578
1.05705
1.05341
1.04611
1.04391
1.04147
1.0413
1.04574
1.09472
1.29028
1.5
1.56121
1.58671
1.58606
1.57346
1.55868
1.54562
1.56045
1.65766
1.84773
1.97715
1.97786
1.96985
1.94549
1.92062
1.89384
1.86763
1.84539
1.8263
1.80849
1.79124
1.77343
1.75496
1.73717
1.72038
1.70395
1.68711
1.6689
1.64981
1.63368
1.61988
1.60652
1.59413
1.58123
1.56937
1.55875
1.54694
1.53217
1.51552
1.49689
1.47805
1.46992
1.46423
1.46106
1.45898
1.47096
1.50696
1.56453
1.61949
1.63554
1.64205
1.6466
1.64057
1.63086
1.62117
1.61658
1.62126
1.6345
1.66596
1.70657
1.73896
1.76216
1.76165
1.75932
1.75673
1.74955
1.73717
1.72087
1.70155
1.68924
1.68315
1.67746
1.67301
1.66313
1.53387
1.49227
1.43283
1.35643
1.27952
1.22821
1.17108
1.11187
1.09038
1.0763
1.05094
1.03588
1.03971
1.04499
1.04375
1.0438
1.0462
1.05089
1.05546
1.06239
1.07101
1.11307
1.30278
1.48095
1.57967
1.59123
1.58917
1.59223
1.62987
1.76326
1.92995
2.01878
2.02826
2.01011
1.9701
1.93744
1.91421
1.89221
1.86813
1.84327
1.82193
1.80539
1.78996
1.77345
1.7556
1.73757
1.72036
1.70359
1.68626
1.6675
1.64896
1.63317
1.61883
1.60546
1.5933
1.58215
1.57156
1.55945
1.54502
1.52887
1.51195
1.49434
1.48118
1.47407
1.46656
1.46048
1.4541
1.45051
1.44711
1.45643
1.4925
1.54588
1.58434
1.61861
1.62929
1.63354
1.63844
1.65536
1.68292
1.71062
1.74335
1.76591
1.77971
1.77951
1.77618
1.76967
1.75872
1.7445
1.72984
1.71485
1.69697
1.68561
1.67777
1.66902
1.66371
1.6547
1.49164
1.41567
1.32822
1.22414
1.17784
1.14638
1.09467
1.07282
1.06657
1.05874
1.05126
1.05156
1.05871
1.06759
1.06903
1.06941
1.07421
1.08051
1.08343
1.08946
1.09299
1.0965
1.12961
1.28066
1.47687
1.55974
1.63155
1.72477
1.87183
1.97848
2.03845
2.03048
2.00645
1.98314
1.96126
1.94115
1.92063
1.89955
1.87738
1.85495
1.83488
1.81701
1.79929
1.78109
1.76271
1.74467
1.72738
1.7107
1.69378
1.67588
1.65725
1.63972
1.62508
1.61295
1.60202
1.59154
1.58016
1.56688
1.55114
1.53311
1.51454
1.50106
1.49372
1.48643
1.47816
1.46914
1.45999
1.44976
1.43697
1.42173
1.42196
1.44457
1.49542
1.55829
1.60538
1.64838
1.69698
1.74614
1.77067
1.77849
1.77669
1.78083
1.78192
1.77745
1.76966
1.76126
1.75278
1.74024
1.72652
1.71184
1.69771
1.68711
1.67782
1.66838
1.66087
1.64927
1.39451
1.23602
1.0887
1.0067
1.00647
1.00088
0.992044
1.00597
1.03473
1.05199
1.06633
1.08679
1.10643
1.11056
1.10914
1.10717
1.10934
1.111
1.11025
1.11267
1.11425
1.11376
1.1114
1.13022
1.24733
1.51344
1.75818
1.98142
2.14283
2.19106
2.14071
2.05071
1.99234
1.96597
1.9521
1.93678
1.91752
1.89443
1.86987
1.84736
1.8277
1.80926
1.79068
1.77174
1.75255
1.73398
1.7168