/*--------------------------------*- C++ -*----------------------------------*\
  =========                 |
  \\      /  F ield         | OpenFOAM: The Open Source CFD Toolbox
   \\    /   O peration     | Website:  https://openfoam.org
    \\  /    A nd           | Version:  7
     \\/     M anipulation  |
\*---------------------------------------------------------------------------*/
FoamFile
{
    version     2.0;
    format      ascii;
    class       volVectorField;
    location    "1.9";
    object      U;
}
// * * * * * * * * * * * * * * * * * * * * * * * * * * * * * * * * * * * * * //

dimensions      [0 1 -1 0 0 0 0];

internalField   nonuniform List<vector> 
4608
(
(3 -1.31433e-16 0)
(3 -1.39296e-16 0)
(3 9.24484e-17 0)
(3 2.71922e-16 0)
(3 4.04163e-16 0)
(3 1.55669e-16 0)
(3 -2.28295e-16 0)
(3 -5.03783e-16 0)
(3 -9.89213e-16 0)
(3 -6.85396e-16 0)
(3 -2.05965e-16 0)
(3 3.53699e-16 0)
(3 9.20536e-16 0)
(3 1.38161e-15 0)
(3 5.88967e-16 0)
(3 6.65281e-16 0)
(3 1.21941e-15 0)
(3 1.40563e-15 0)
(3 1.52023e-15 0)
(3 1.38482e-15 0)
(3 9.25493e-16 0)
(3 6.15758e-16 0)
(3 1.14497e-16 0)
(3 2.46161e-16 0)
(3 -4.86995e-17 0)
(3 2.87353e-17 0)
(3 9.70203e-17 0)
(3 2.75205e-16 0)
(3 2.14108e-16 0)
(3 3.4235e-16 0)
(3 4.22327e-17 0)
(3 -3.2943e-16 0)
(3 -9.31651e-16 0)
(3 -6.41437e-16 0)
(3 -4.58358e-16 0)
(3 2.41464e-16 0)
(3 8.18824e-16 0)
(3 9.74487e-16 0)
(3 3.19025e-16 0)
(3 2.28201e-16 0)
(3 3.69837e-16 0)
(3 5.37388e-16 0)
(3 6.18725e-16 0)
(3 -1.01939e-16 0)
(3 -5.04008e-16 0)
(3 -9.49391e-17 0)
(3 2.27648e-16 0)
(3 6.74786e-16 0)
(3 1.04432e-16 0)
(3 9.49329e-17 0)
(3 -1.08491e-16 0)
(3 -4.97841e-16 0)
(3 -6.54725e-16 0)
(3 -1.70535e-16 0)
(3 1.42382e-16 0)
(3 1.019e-16 0)
(3 -3.58145e-16 0)
(3 -1.52783e-16 0)
(3 -4.28987e-16 0)
(3 6.48159e-17 0)
(3 2.8935e-16 0)
(3 -1.20853e-16 0)
(3 2.17172e-16 0)
(3 -1.17897e-16 0)
(3 -1.43145e-15 0)
(3 -1.73147e-15 0)
(3 -2.22342e-15 0)
(3 -2.30991e-15 0)
(3 -2.2539e-15 0)
(3 -1.63e-15 0)
(3 -2.07409e-16 0)
(3 6.57968e-16 0)
(3 5.25466e-17 0)
(3 -4.48969e-17 0)
(3 -3.32064e-16 0)
(3 -9.65535e-16 0)
(3 -8.17937e-16 0)
(3 -8.17447e-16 0)
(3 -7.93368e-16 0)
(3 -1.26477e-15 0)
(3 -9.19544e-16 0)
(3 -8.59086e-16 0)
(3 -3.89642e-16 0)
(3 -1.18295e-16 0)
(3 -2.50193e-16 0)
(3 -8.56493e-16 0)
(3 -7.13118e-16 0)
(3 -9.13042e-16 0)
(3 -2.42114e-16 0)
(3 -8.39195e-17 0)
(3 5.94327e-17 0)
(3 3.95607e-17 0)
(3 -4.09459e-16 0)
(3 -5.52109e-16 0)
(3 -9.21976e-16 0)
(3 -6.77312e-16 0)
(3 -3.12622e-17 0)
(3 -2.05205e-16 0)
(3 -2.75643e-16 0)
(3 -2.77459e-16 0)
(3 1.42726e-16 0)
(3 -5.79759e-16 0)
(3 -1.15186e-15 0)
(3 -1.51175e-15 0)
(3 -1.5103e-15 0)
(3 -1.38347e-15 0)
(3 -9.73316e-16 0)
(3 -2.31502e-16 0)
(3 -3.0067e-16 0)
(3 -2.50671e-16 0)
(3 -4.11495e-16 0)
(3 -6.35706e-17 0)
(3 7.25218e-16 0)
(3 9.71174e-16 0)
(3 9.73252e-16 0)
(3 7.57775e-16 0)
(3 -2.13923e-16 0)
(3 -7.70821e-16 0)
(3 -4.76141e-16 0)
(3 -5.01399e-16 0)
(3 3.57846e-17 0)
(3 5.32901e-16 0)
(3 4.3896e-16 0)
(3 3.20171e-16 0)
(3 4.08127e-16 0)
(3 2.98272e-16 0)
(3 1.42181e-16 0)
(3 -9.81984e-17 0)
(3 -3.99194e-16 0)
(3 -2.22707e-16 0)
(3 -2.29113e-16 0)
(3 1.76083e-16 0)
(3 5.10925e-16 0)
(3 1.36252e-15 0)
(3 1.90614e-15 0)
(3 1.95004e-15 0)
(3 1.48369e-15 0)
(3 1.11231e-15 0)
(3 6.30398e-16 0)
(3 8.58158e-16 0)
(3 1.03916e-15 0)
(3 4.58694e-16 0)
(3 6.14026e-16 0)
(3 1.01945e-15 0)
(3 -3.8586e-17 0)
(3 5.81035e-17 0)
(3 2.22721e-16 0)
(3 3.00881e-16 0)
(3 2.75086e-17 0)
(3 -6.91049e-17 0)
(3 7.86488e-17 0)
(3 4.12493e-16 0)
(3 6.8261e-16 0)
(3 9.59264e-16 0)
(3 8.66709e-16 0)
(3 7.58396e-16 0)
(3 1.0735e-15 0)
(3 1.40103e-15 0)
(3 1.03523e-15 0)
(3 9.71719e-16 0)
(3 1.25603e-15 0)
(3 1.53919e-15 0)
(3 1.53314e-15 0)
(3 1.17303e-15 0)
(3 1.0077e-15 0)
(3 1.05774e-15 0)
(3 9.94555e-16 0)
(3 1.06771e-15 0)
(3 -1.14395e-16 0)
(3 -6.04231e-16 0)
(3 -3.18636e-16 0)
(3 3.7325e-17 0)
(3 2.25923e-16 0)
(3 1.09208e-16 0)
(3 -7.95312e-17 0)
(3 -6.0242e-17 0)
(3 4.05365e-16 0)
(3 4.10756e-16 0)
(3 3.6934e-16 0)
(3 -1.31743e-16 0)
(3 -1.8439e-16 0)
(3 -5.49719e-16 0)
(3 -6.15485e-16 0)
(3 -6.3369e-16 0)
(3 6.38327e-16 0)
(3 1.72658e-15 0)
(3 2.1501e-15 0)
(3 9.0987e-16 0)
(3 8.36095e-16 0)
(3 1.52605e-15 0)
(3 1.56262e-15 0)
(3 1.39979e-15 0)
(3 1.24225e-16 0)
(3 2.83834e-16 0)
(3 2.21696e-16 0)
(3 1.26472e-16 0)
(3 -2.71601e-17 0)
(3 1.7737e-17 0)
(3 8.37767e-18 0)
(3 -3.92717e-16 0)
(3 -5.45127e-16 0)
(3 -1.22222e-15 0)
(3 -1.32805e-15 0)
(3 -1.13928e-15 0)
(3 -1.30225e-15 0)
(3 -1.34787e-15 0)
(3 -8.45199e-16 0)
(3 -7.96354e-16 0)
(3 -7.92658e-16 0)
(3 -6.71845e-16 0)
(3 1.83254e-16 0)
(3 8.27029e-16 0)
(3 1.66505e-15 0)
(3 2.26005e-15 0)
(3 1.80379e-15 0)
(3 1.24085e-15 0)
(3 7.89069e-17 0)
(3 3.37147e-16 0)
(3 4.03831e-16 0)
(3 2.77438e-16 0)
(3 -9.86606e-17 0)
(3 -2.59419e-16 0)
(3 -2.15793e-16 0)
(3 -4.67127e-16 0)
(3 -1.09934e-15 0)
(3 -1.29052e-15 0)
(3 -1.18508e-15 0)
(3 -1.51091e-15 0)
(3 -1.94764e-15 0)
(3 -1.57706e-15 0)
(3 -7.91646e-16 0)
(3 4.02946e-17 0)
(3 -1.00885e-15 0)
(3 -1.57139e-15 0)
(3 -9.62475e-16 0)
(3 5.99528e-16 0)
(3 1.63601e-15 0)
(3 1.23977e-15 0)
(3 8.85217e-16 0)
(3 7.95108e-16 0)
(3 -1.58033e-17 0)
(3 -2.56808e-16 0)
(3 -1.92742e-16 0)
(3 1.77768e-16 0)
(3 3.42728e-16 0)
(3 1.95116e-16 0)
(3 1.81072e-17 0)
(3 -5.85145e-16 0)
(3 -9.94757e-16 0)
(3 -7.04089e-16 0)
(3 -4.14117e-16 0)
(3 -6.24143e-16 0)
(3 -9.38203e-16 0)
(3 -1.19782e-15 0)
(3 -9.76172e-16 0)
(3 -6.15338e-16 0)
(3 -3.96946e-16 0)
(3 -3.93231e-16 0)
(3 -7.30966e-17 0)
(3 -3.16144e-16 0)
(3 -1.12489e-15 0)
(3 -1.4313e-15 0)
(3 -1.06811e-15 0)
(3 1.68546e-16 0)
(3 -1.58252e-16 0)
(3 -5.11575e-17 0)
(3 2.44248e-16 0)
(3 4.32618e-16 0)
(3 5.98464e-16 0)
(3 5.92639e-16 0)
(3 5.22793e-16 0)
(3 6.03949e-16 0)
(3 6.66448e-16 0)
(3 -1.27974e-16 0)
(3 -3.33775e-16 0)
(3 -3.67551e-16 0)
(3 -3.5617e-16 0)
(3 -8.11933e-16 0)
(3 -1.17064e-15 0)
(3 -1.65661e-15 0)
(3 -1.46346e-15 0)
(3 -5.3739e-16 0)
(3 1.16165e-16 0)
(3 -9.33092e-16 0)
(3 -2.2887e-15 0)
(3 -2.41055e-15 0)
(3 -2.25282e-15 0)
(3 -1.78519e-15 0)
(3 2.37418e-16 0)
(3 4.91052e-16 0)
(3 4.53528e-16 0)
(3 2.30449e-16 0)
(3 7.38474e-17 0)
(3 -1.44838e-16 0)
(3 -1.48312e-16 0)
(3 7.29519e-16 0)
(3 8.15307e-16 0)
(3 -1.60945e-16 0)
(3 -7.80232e-16 0)
(3 -4.56953e-16 0)
(3 -2.34183e-16 0)
(3 -4.54813e-16 0)
(3 -5.29341e-16 0)
(3 -9.20506e-16 0)
(3 -6.7526e-16 0)
(3 -6.93805e-16 0)
(3 -9.12853e-16 0)
(3 -1.10204e-15 0)
(3 -7.24333e-16 0)
(3 -9.90007e-16 0)
(3 -1.60309e-15 0)
(3 -2.52411e-15 0)
(3 1.61146e-16 0)
(3 3.98149e-17 0)
(3 -1.51566e-16 0)
(3 -1.49911e-16 0)
(3 -1.69773e-16 0)
(3 -2.10278e-16 0)
(3 -9.16857e-17 0)
(3 -5.02725e-17 0)
(3 -2.03553e-16 0)
(3 3.73423e-16 0)
(3 -1.23727e-16 0)
(3 4.00345e-16 0)
(3 8.03641e-16 0)
(3 8.88739e-16 0)
(3 3.52213e-16 0)
(3 2.62558e-16 0)
(3 6.19029e-16 0)
(3 1.67438e-16 0)
(3 -5.19575e-16 0)
(3 -3.55432e-16 0)
(3 3.27882e-16 0)
(3 -2.66654e-16 0)
(3 -1.06353e-15 0)
(3 -2.30194e-15 0)
(3 -1.41235e-17 0)
(3 1.35802e-16 0)
(3 3.83456e-16 0)
(3 5.0232e-16 0)
(3 1.55247e-16 0)
(3 -1.4173e-17 0)
(3 5.43947e-16 0)
(3 3.00274e-16 0)
(3 2.11299e-17 0)
(3 3.99498e-16 0)
(3 8.453e-17 0)
(3 6.60598e-17 0)
(3 2.78074e-16 0)
(3 6.31551e-16 0)
(3 8.06315e-16 0)
(3 1.10581e-15 0)
(3 6.73791e-16 0)
(3 2.61545e-16 0)
(3 8.03899e-17 0)
(3 -6.19196e-17 0)
(3 -6.76505e-18 0)
(3 -1.26122e-16 0)
(3 -4.68481e-16 0)
(3 -4.65139e-16 0)
(3 -1.94162e-16 0)
(3 -3.77897e-16 0)
(3 -2.95964e-16 0)
(3 -5.9537e-17 0)
(3 9.60476e-17 0)
(3 -1.125e-16 0)
(3 -3.88739e-16 0)
(3 -6.03194e-16 0)
(3 -1.05461e-15 0)
(3 -1.0128e-15 0)
(3 -9.09888e-16 0)
(3 -1.05955e-15 0)
(3 -9.15468e-16 0)
(3 -3.81614e-17 0)
(3 8.66395e-16 0)
(3 9.12982e-16 0)
(3 1.56829e-16 0)
(3 -2.98251e-16 0)
(3 -9.56581e-17 0)
(3 3.08977e-16 0)
(3 6.09572e-16 0)
(3 9.4371e-16 0)
(3 9.19575e-16 0)
(3 1.04236e-15 0)
(3 -2.21128e-16 0)
(3 -8.60986e-16 0)
(3 -1.08341e-15 0)
(3 -9.20053e-16 0)
(3 -2.91846e-16 0)
(3 -1.19532e-16 0)
(3 -6.68365e-16 0)
(3 -7.31061e-16 0)
(3 -3.47375e-17 0)
(3 2.4963e-16 0)
(3 1.079e-17 0)
(3 -1.33653e-16 0)
(3 1.2896e-17 0)
(3 5.33337e-16 0)
(3 3.43848e-16 0)
(3 -8.68244e-16 0)
(3 -1.05277e-15 0)
(3 -4.45448e-16 0)
(3 -4.58282e-17 0)
(3 6.38981e-16 0)
(3 -1.30979e-16 0)
(3 1.90061e-16 0)
(3 1.60773e-15 0)
(3 2.94285e-15 0)
(3 6.70598e-18 0)
(3 2.43163e-16 0)
(3 3.49557e-17 0)
(3 -1.45023e-16 0)
(3 -2.65622e-16 0)
(3 -4.75997e-16 0)
(3 -2.98135e-16 0)
(3 -1.83722e-16 0)
(3 6.75379e-16 0)
(3 1.29133e-15 0)
(3 2.07733e-15 0)
(3 2.03254e-15 0)
(3 1.45788e-15 0)
(3 -3.93624e-16 0)
(3 -1.56969e-15 0)
(3 -1.50268e-15 0)
(3 -8.51815e-16 0)
(3 -4.23165e-16 0)
(3 -7.37338e-16 0)
(3 -4.7494e-16 0)
(3 8.19687e-17 0)
(3 1.04205e-15 0)
(3 2.63699e-15 0)
(3 4.31386e-15 0)
(3 6.03738e-17 0)
(3 1.83793e-16 0)
(3 -3.88442e-16 0)
(3 -4.33146e-16 0)
(3 -4.53987e-16 0)
(3 1.26554e-16 0)
(3 5.20017e-16 0)
(3 3.10886e-16 0)
(3 4.0574e-16 0)
(3 4.59079e-16 0)
(3 3.71604e-16 0)
(3 -2.50341e-16 0)
(3 -4.99958e-16 0)
(3 -1.10972e-15 0)
(3 -1.19933e-15 0)
(3 -3.63282e-16 0)
(3 -3.23304e-16 0)
(3 -9.68479e-16 0)
(3 -5.31952e-16 0)
(3 1.26007e-16 0)
(3 1.6528e-15 0)
(3 2.46507e-15 0)
(3 3.08571e-15 0)
(3 2.96082e-15 0)
(3 2.64315e-16 0)
(3 -4.1513e-17 0)
(3 -3.02115e-16 0)
(3 -1.03562e-15 0)
(3 1.87871e-17 0)
(3 6.45721e-16 0)
(3 1.04064e-15 0)
(3 1.01173e-15 0)
(3 4.3512e-16 0)
(3 -3.792e-16 0)
(3 -1.31685e-15 0)
(3 -1.37255e-15 0)
(3 -1.46727e-15 0)
(3 -1.53725e-15 0)
(3 -1.70135e-15 0)
(3 -8.36524e-16 0)
(3 -6.13576e-16 0)
(3 -5.1651e-16 0)
(3 3.62165e-17 0)
(3 3.36761e-16 0)
(3 1.05694e-15 0)
(3 2.22874e-15 0)
(3 1.80919e-15 0)
(3 8.46072e-16 0)
(3 6.8512e-17 0)
(3 6.3557e-16 0)
(3 1.1454e-15 0)
(3 9.90261e-16 0)
(3 1.38816e-15 0)
(3 1.652e-15 0)
(3 1.50633e-15 0)
(3 1.62296e-15 0)
(3 6.49375e-16 0)
(3 -2.37585e-17 0)
(3 -1.06045e-16 0)
(3 -5.03378e-16 0)
(3 -1.15295e-15 0)
(3 -1.25624e-15 0)
(3 -1.5698e-15 0)
(3 -6.56336e-16 0)
(3 -2.95396e-16 0)
(3 -2.45948e-16 0)
(3 -4.22751e-16 0)
(3 -6.11236e-16 0)
(3 -2.86022e-16 0)
(3 4.20416e-16 0)
(3 -5.03423e-16 0)
(3 -7.92012e-16 0)
(3 -1.93985e-16 0)
(3 4.44847e-16 0)
(3 1.30401e-15 0)
(3 1.67609e-15 0)
(3 1.33568e-15 0)
(3 1.13574e-15 0)
(3 9.42043e-16 0)
(3 8.09377e-16 0)
(3 1.02188e-15 0)
(3 5.64035e-16 0)
(3 7.05617e-16 0)
(3 -4.35391e-18 0)
(3 -4.01859e-16 0)
(3 6.89453e-16 0)
(3 1.14958e-15 0)
(3 5.06665e-16 0)
(3 -1.32158e-16 0)
(3 -4.59057e-17 0)
(3 -3.90375e-16 0)
(3 -1.16885e-15 0)
(3 -1.90718e-15 0)
(3 -2.63301e-15 0)
(3 -1.9561e-15 0)
(3 -1.78161e-15 0)
(3 -2.33772e-18 0)
(3 -9.4874e-17 0)
(3 7.18319e-18 0)
(3 4.63261e-17 0)
(3 -4.95101e-16 0)
(3 -1.03814e-15 0)
(3 -1.16515e-15 0)
(3 -7.69697e-16 0)
(3 -1.48253e-17 0)
(3 3.96973e-16 0)
(3 8.21278e-16 0)
(3 9.99932e-16 0)
(3 1.50352e-15 0)
(3 1.41803e-15 0)
(3 1.07335e-15 0)
(3 4.66037e-16 0)
(3 9.49353e-17 0)
(3 -2.1367e-18 0)
(3 -3.38175e-16 0)
(3 -2.20766e-15 0)
(3 -3.39407e-15 0)
(3 -2.85907e-15 0)
(3 -1.4736e-15 0)
(3 -5.07554e-16 0)
(3 -3.09485e-17 0)
(3 -3.95808e-16 0)
(3 -6.94577e-16 0)
(3 -8.17e-16 0)
(3 -6.67842e-16 0)
(3 -3.06344e-16 0)
(3 -8.46942e-17 0)
(3 -1.28482e-16 0)
(3 -2.0972e-16 0)
(3 5.75933e-16 0)
(3 1.40719e-15 0)
(3 1.93716e-15 0)
(3 2.16022e-15 0)
(3 1.59621e-15 0)
(3 1.35716e-15 0)
(3 1.55778e-15 0)
(3 5.20341e-16 0)
(3 -3.08651e-16 0)
(3 -1.06335e-15 0)
(3 -1.90696e-15 0)
(3 -2.46178e-15 0)
(3 -3.48226e-15 0)
(3 -3.19524e-15 0)
(3 -2.69477e-15 0)
(3 -1.07667e-16 0)
(3 -6.80532e-16 0)
(3 -9.57607e-16 0)
(3 -8.75835e-16 0)
(3 -3.24373e-16 0)
(3 -5.63936e-16 0)
(3 -6.59415e-16 0)
(3 -7.37651e-16 0)
(3 -7.53289e-16 0)
(3 -4.2613e-17 0)
(3 5.4321e-16 0)
(3 1.06452e-15 0)
(3 1.26746e-15 0)
(3 9.13397e-16 0)
(3 9.05256e-16 0)
(3 2.0322e-16 0)
(3 -8.1052e-16 0)
(3 -9.05257e-16 0)
(3 -6.48622e-16 0)
(3 -6.14183e-16 0)
(3 -1.19683e-15 0)
(3 -1.86345e-15 0)
(3 -2.18453e-15 0)
(3 -2.05484e-15 0)
(3 2.55176e-17 0)
(3 -2.50433e-16 0)
(3 -1.4401e-16 0)
(3 -7.26261e-17 0)
(3 -2.60585e-16 0)
(3 -9.43818e-16 0)
(3 -1.2853e-15 0)
(3 -1.64094e-15 0)
(3 -1.56643e-15 0)
(3 -1.81698e-15 0)
(3 -2.11243e-15 0)
(3 -1.41192e-15 0)
(3 -1.03644e-15 0)
(3 -9.66324e-16 0)
(3 -9.64504e-16 0)
(3 -5.32519e-16 0)
(3 -1.04848e-15 0)
(3 -1.60944e-15 0)
(3 -1.74216e-15 0)
(3 -2.52391e-16 0)
(3 3.13065e-16 0)
(3 2.28472e-16 0)
(3 -9.38634e-16 0)
(3 -1.47719e-15 0)
(3 3.50186e-16 0)
(3 7.33638e-16 0)
(3 1.02738e-15 0)
(3 8.03618e-16 0)
(3 3.19025e-16 0)
(3 9.32647e-17 0)
(3 -3.17258e-16 0)
(3 -6.43399e-16 0)
(3 -1.11256e-15 0)
(3 -1.87036e-15 0)
(3 -1.99928e-15 0)
(3 -1.28155e-15 0)
(3 -1.24658e-15 0)
(3 -8.13938e-16 0)
(3 -3.63631e-16 0)
(3 3.1862e-16 0)
(3 7.37187e-16 0)
(3 1.69106e-16 0)
(3 -7.23103e-16 0)
(3 -5.25567e-16 0)
(3 9.18125e-16 0)
(3 3.44442e-16 0)
(3 -7.36153e-16 0)
(3 -1.85779e-15 0)
(3 1.64812e-16 0)
(3 4.503e-16 0)
(3 5.22534e-16 0)
(3 5.32292e-16 0)
(3 4.4304e-16 0)
(3 5.35558e-17 0)
(3 9.13967e-17 0)
(3 -1.87883e-16 0)
(3 -7.40908e-16 0)
(3 -5.04089e-16 0)
(3 -4.10617e-16 0)
(3 -4.86742e-16 0)
(3 -5.22779e-16 0)
(3 -1.30407e-16 0)
(3 4.33705e-16 0)
(3 4.66494e-16 0)
(3 1.63209e-15 0)
(3 2.19529e-15 0)
(3 1.56537e-15 0)
(3 -1.30477e-17 0)
(3 -8.10704e-17 0)
(3 -4.02414e-16 0)
(3 -8.32703e-16 0)
(3 -1.07338e-15 0)
(3 -4.02905e-16 0)
(3 -1.59539e-16 0)
(3 -8.0036e-17 0)
(3 2.45199e-16 0)
(3 3.50416e-16 0)
(3 -4.6908e-16 0)
(3 -8.31275e-16 0)
(3 -1.12352e-15 0)
(3 -2.8118e-16 0)
(3 4.71504e-16 0)
(3 1.32679e-15 0)
(3 1.61686e-15 0)
(3 1.93066e-15 0)
(3 1.82844e-15 0)
(3 1.29188e-15 0)
(3 5.16764e-16 0)
(3 -1.51179e-16 0)
(3 3.96197e-17 0)
(3 5.54568e-16 0)
(3 5.26536e-16 0)
(3 -8.85952e-16 0)
(3 -8.37298e-16 0)
(3 7.00556e-16 0)
(3 1.61102e-16 0)
(3 -4.28623e-18 0)
(3 2.15974e-16 0)
(3 1.44925e-16 0)
(3 -2.81906e-17 0)
(3 -2.9928e-16 0)
(3 -4.29858e-16 0)
(3 -3.45317e-16 0)
(3 3.13221e-16 0)
(3 4.69727e-16 0)
(3 3.27428e-16 0)
(3 8.15129e-16 0)
(3 2.05081e-15 0)
(3 1.84386e-15 0)
(3 1.54678e-15 0)
(3 9.78699e-16 0)
(3 3.07214e-16 0)
(3 -1.02212e-15 0)
(3 -8.92729e-16 0)
(3 -5.7981e-16 0)
(3 5.96886e-17 0)
(3 -1.69092e-16 0)
(3 -5.88606e-16 0)
(3 -1.31287e-16 0)
(3 4.49373e-16 0)
(3 2.15863e-16 0)
(3 1.21787e-16 0)
(3 -1.61705e-16 0)
(3 -5.89853e-16 0)
(3 -1.02796e-15 0)
(3 -1.65631e-16 0)
(3 1.2195e-15 0)
(3 1.43557e-15 0)
(3 1.23697e-15 0)
(3 9.25632e-16 0)
(3 1.59106e-15 0)
(3 1.39548e-15 0)
(3 2.18462e-16 0)
(3 1.2189e-16 0)
(3 6.18549e-16 0)
(3 4.55311e-16 0)
(3 1.80064e-16 0)
(3 -3.69658e-16 0)
(3 -5.21201e-16 0)
(3 -6.71613e-16 0)
(3 -2.01397e-16 0)
(3 4.69767e-18 0)
(3 -5.76052e-16 0)
(3 -4.50413e-16 0)
(3 8.23433e-17 0)
(3 -1.17932e-16 0)
(3 -2.84464e-16 0)
(3 -5.75639e-16 0)
(3 -7.24684e-16 0)
(3 -1.59448e-16 0)
(3 2.97174e-16 0)
(3 7.39132e-16 0)
(3 1.21258e-15 0)
(3 1.51744e-15 0)
(3 1.83224e-15 0)
(3 1.422e-15 0)
(3 7.82051e-16 0)
(3 9.0541e-16 0)
(3 6.99007e-16 0)
(3 5.48522e-16 0)
(3 4.15258e-16 0)
(3 -1.99754e-16 0)
(3 -3.40683e-16 0)
(3 -8.02436e-16 0)
(3 -5.68701e-16 0)
(3 -3.51457e-16 0)
(3 -6.48201e-16 0)
(3 -7.63945e-16 0)
(2.93399 0.0103517 0)
(2.84363 0.0814698 0)
(2.75727 0.143383 0)
(2.67311 0.230379 0)
(2.56635 0.362988 0)
(2.51712 0.433678 0)
(2.41513 0.547031 0)
(2.35312 0.62864 0)
(2.3116 0.723904 0)
(2.25386 0.79843 0)
(2.24828 0.852217 0)
(2.28324 0.88618 0)
(2.32799 0.895041 0)
(2.33625 0.889178 0)
(2.34522 0.885141 0)
(2.34663 0.86683 0)
(2.34547 0.85916 0)
(2.34241 0.850653 0)
(2.34216 0.847162 0)
(2.34562 0.849049 0)
(2.34396 0.849195 0)
(2.34159 0.849363 0)
(2.33713 0.850508 0)
(2.33406 0.850231 0)
(2.99884 0.00110433 0)
(2.98902 0.0128258 0)
(2.96111 0.0506393 0)
(2.90438 0.128805 0)
(2.79807 0.278915 0)
(2.69309 0.454976 0)
(2.51713 0.693892 0)
(2.39941 0.895024 0)
(2.21823 1.07067 0)
(2.16203 1.10657 0)
(2.15198 1.03243 0)
(2.18503 0.995809 0)
(2.24777 0.950757 0)
(2.30024 0.902752 0)
(2.33439 0.853048 0)
(2.35211 0.828625 0)
(2.35303 0.83467 0)
(2.35517 0.837768 0)
(2.35519 0.838249 0)
(2.3544 0.840225 0)
(2.35294 0.843785 0)
(2.34686 0.846039 0)
(2.34144 0.84836 0)
(2.33729 0.850454 0)
(3 -5.02956e-06 0)
(2.99999 5.92934e-06 0)
(3.00001 5.62728e-05 0)
(2.99993 1.67822e-05 0)
(2.99854 0.00203254 0)
(2.99202 0.0114166 0)
(2.96356 0.0561575 0)
(2.90288 0.168961 0)
(2.76898 0.414243 0)
(2.58037 0.717476 0)
(2.46627 0.840156 0)
(2.33687 0.931152 0)
(2.29015 0.914476 0)
(2.29631 0.901102 0)
(2.3133 0.885363 0)
(2.34871 0.866644 0)
(2.35671 0.865455 0)
(2.35872 0.847852 0)
(2.36109 0.839762 0)
(2.3596 0.839501 0)
(2.3586 0.840164 0)
(2.35381 0.843398 0)
(2.34868 0.846045 0)
(2.3447 0.849373 0)
(3 -9.28583e-08 0)
(3 -6.40309e-08 0)
(3 -3.86687e-07 0)
(3 -1.30085e-06 0)
(3.00001 -9.21104e-06 0)
(2.99999 2.0484e-05 0)
(3.00003 -8.32071e-05 0)
(2.99929 0.00125145 0)
(2.98985 0.0172944 0)
(2.89376 0.173079 0)
(2.78529 0.406766 0)
(2.41975 0.807271 0)
(2.33402 0.889365 0)
(2.28179 0.945947 0)
(2.28815 0.947867 0)
(2.30735 0.924365 0)
(2.33642 0.885774 0)
(2.34725 0.860144 0)
(2.35354 0.84383 0)
(2.35814 0.839994 0)
(2.36008 0.842429 0)
(2.36036 0.84644 0)
(2.35807 0.848748 0)
(2.35304 0.850243 0)
(3 2.79272e-10 0)
(3 -2.41516e-09 0)
(3 -2.78174e-08 0)
(3 -7.88656e-08 0)
(3 -7.60912e-07 0)
(3 -7.74128e-07 0)
(3 -2.04867e-06 0)
(3 -1.97383e-06 0)
(3.00004 -8.45246e-05 0)
(2.99927 0.000962444 0)
(2.98767 0.0183659 0)
(2.85269 0.187247 0)
(2.67609 0.447745 0)
(2.43364 0.738923 0)
(2.29044 0.916633 0)
(2.28877 0.897174 0)
(2.30874 0.882377 0)
(2.32141 0.876767 0)
(2.3371 0.869273 0)
(2.34939 0.854361 0)
(2.35657 0.84822 0)
(2.35634 0.850354 0)
(2.35654 0.851239 0)
(2.35263 0.856073 0)
(3 4.87998e-12 0)
(3 3.54696e-13 0)
(3 4.89967e-11 0)
(3 -9.71896e-11 0)
(3 6.34336e-10 0)
(3 -6.8305e-08 0)
(3 -7.21386e-08 0)
(3 -2.02581e-07 0)
(3 -6.54667e-06 0)
(3 -6.28529e-06 0)
(3.00003 -6.84951e-05 0)
(2.9983 0.00224148 0)
(2.97527 0.0351862 0)
(2.82546 0.219821 0)
(2.51459 0.593705 0)
(2.42235 0.739146 0)
(2.29866 0.884163 0)
(2.28717 0.895375 0)
(2.30227 0.886837 0)
(2.32521 0.861234 0)
(2.33586 0.847807 0)
(2.34257 0.847603 0)
(2.34619 0.844118 0)
(2.34965 0.841635 0)
(3 -7.60911e-15 0)
(3 6.65708e-13 0)
(3 1.48845e-11 0)
(3 2.40153e-11 0)
(3 3.08036e-11 0)
(3 -5.92474e-11 0)
(3 -6.59778e-10 0)
(3 -1.35064e-09 0)
(3 -2.20125e-08 0)
(3 -4.36985e-07 0)
(3 -7.92689e-06 0)
(3 -4.89686e-06 0)
(3 -2.84742e-05 0)
(2.99537 0.00632749 0)
(2.93478 0.0803125 0)
(2.7807 0.306281 0)
(2.40999 0.734271 0)
(2.36828 0.796331 0)
(2.31797 0.845925 0)
(2.31687 0.844884 0)
(2.32356 0.843156 0)
(2.33241 0.839782 0)
(2.33731 0.83677 0)
(2.34222 0.83531 0)
(3 1.63143e-15 0)
(3 -7.26962e-15 0)
(3 1.09293e-13 0)
(3 1.91338e-12 0)
(3 7.1776e-12 0)
(3 7.34754e-12 0)
(3 6.41279e-12 0)
(3 2.51606e-12 0)
(3 7.10316e-11 0)
(3 -2.84806e-10 0)
(3 -3.83345e-08 0)
(3 -5.72301e-07 0)
(3 -2.12034e-06 0)
(3.00001 -2.64932e-05 0)
(2.99965 0.000622403 0)
(2.988 0.0172167 0)
(2.85669 0.180886 0)
(2.7025 0.436944 0)
(2.35207 0.821501 0)
(2.28474 0.876739 0)
(2.3073 0.85016 0)
(2.30907 0.84678 0)
(2.31335 0.843211 0)
(2.32451 0.840444 0)
(3 1.18075e-15 0)
(3 -2.54933e-15 0)
(3 -1.49648e-15 0)
(3 7.02559e-15 0)
(3 8.69925e-14 0)
(3 8.79553e-13 0)
(3 1.22028e-12 0)
(3 1.39453e-12 0)
(3 1.52393e-11 0)
(3 1.52669e-11 0)
(3 3.23627e-10 0)
(3 -5.72149e-09 0)
(3 -3.77633e-08 0)
(3 -3.33998e-06 0)
(3 -2.95202e-06 0)
(3 -2.27439e-05 0)
(2.99697 0.00513523 0)
(2.96522 0.0566467 0)
(2.72087 0.369895 0)
(2.5778 0.59492 0)
(2.384 0.791547 0)
(2.29846 0.872732 0)
(2.29242 0.862405 0)
(2.30493 0.847839 0)
(3 1.00429e-15 0)
(3 1.42371e-15 0)
(3 1.45229e-15 0)
(3 1.80468e-15 0)
(3 1.78965e-15 0)
(3 9.93257e-15 0)
(3 2.60972e-14 0)
(3 9.46594e-14 0)
(3 2.47964e-13 0)
(3 2.38075e-12 0)
(3 2.80122e-11 0)
(3 1.79831e-11 0)
(3 1.07241e-10 0)
(3 -2.30135e-08 0)
(3 -9.68744e-07 0)
(3 -1.21503e-06 0)
(3 -9.87574e-06 0)
(2.99959 0.000635252 0)
(2.9796 0.0307054 0)
(2.90445 0.174264 0)
(2.56417 0.594005 0)
(2.43051 0.760571 0)
(2.35123 0.80525 0)
(2.33596 0.829758 0)
(3 -5.28545e-17 0)
(3 3.29442e-16 0)
(3 7.61177e-16 0)
(3 1.4199e-15 0)
(3 1.67286e-15 0)
(3 1.16513e-15 0)
(3 9.50769e-16 0)
(3 2.1922e-15 0)
(3 2.85036e-15 0)
(3 9.4655e-15 0)
(3 4.40374e-13 0)
(3 2.72924e-12 0)
(3 1.89445e-11 0)
(3 8.45863e-11 0)
(3 -2.23742e-08 0)
(3 -1.11301e-07 0)
(3 -1.51322e-06 0)
(3 -4.98886e-06 0)
(2.9999 0.000192772 0)
(2.99622 0.00737757 0)
(2.90979 0.129673 0)
(2.75897 0.38484 0)
(2.46456 0.720618 0)
(2.32904 0.904888 0)
(3 -1.23842e-15 0)
(3 -9.57497e-16 0)
(3 -5.78917e-16 0)
(3 3.97995e-16 0)
(3 1.44799e-15 0)
(3 2.35555e-15 0)
(3 2.73391e-15 0)
(3 2.86778e-15 0)
(3 2.76314e-15 0)
(3 4.2672e-15 0)
(3 5.03197e-15 0)
(3 1.45909e-13 0)
(3 1.94892e-12 0)
(3 5.03705e-12 0)
(3 1.04424e-10 0)
(3 -2.53344e-09 0)
(3 -1.8112e-08 0)
(3 -1.36602e-06 0)
(3 -1.15375e-06 0)
(2.99999 -9.41799e-07 0)
(2.99746 0.00445097 0)
(2.96939 0.0608408 0)
(2.79611 0.316036 0)
(2.5075 0.696806 0)
(3 -2.57971e-15 0)
(3 -1.66563e-15 0)
(3 -4.45914e-16 0)
(3 -1.70347e-16 0)
(3 1.01346e-15 0)
(3 1.80543e-15 0)
(3 2.35977e-15 0)
(3 3.25464e-15 0)
(3 3.99781e-15 0)
(3 3.53514e-15 0)
(3 9.84297e-16 0)
(3 3.03385e-15 0)
(3 1.00492e-14 0)
(3 5.28878e-13 0)
(3 1.87023e-11 0)
(3 2.56279e-11 0)
(3 -4.44106e-11 0)
(3 -2.87689e-08 0)
(3 -5.86674e-07 0)
(3 -4.37158e-07 0)
(3 -5.26028e-06 0)
(2.99935 0.00133276 0)
(2.97994 0.0360561 0)
(2.84104 0.244244 0)
(3 -1.9891e-15 0)
(3 -1.617e-15 0)
(3 -3.0071e-16 0)
(3 6.29962e-16 0)
(3 5.39934e-16 0)
(3 5.93864e-16 0)
(3 8.96138e-16 0)
(3 1.57695e-15 0)
(3 2.25422e-15 0)
(3 1.96711e-15 0)
(3 7.98888e-16 0)
(3 -7.32786e-16 0)
(3 -7.59513e-16 0)
(3 4.5056e-15 0)
(3 8.66217e-13 0)
(3 7.30871e-12 0)
(3 6.09936e-12 0)
(3 -1.83884e-11 0)
(3 -2.36968e-08 0)
(3 -1.07615e-07 0)
(3 -2.79806e-07 0)
(3 -8.84335e-07 0)
(2.99965 0.000710949 0)
(2.99042 0.0177709 0)
(3 -8.01188e-16 0)
(3 -1.74714e-16 0)
(3 3.04069e-16 0)
(3 2.62447e-16 0)
(3 -2.56904e-16 0)
(3 6.97456e-17 0)
(3 -1.08956e-16 0)
(3 -5.19952e-16 0)
(3 3.9664e-16 0)
(3 1.16457e-15 0)
(3 1.11265e-15 0)
(3 2.71044e-16 0)
(3 3.57785e-16 0)
(3 1.26836e-15 0)
(3 5.22209e-15 0)
(3 2.20703e-13 0)
(3 1.3609e-12 0)
(3 2.16573e-12 0)
(3 -7.09442e-11 0)
(3 -6.00634e-09 0)
(3 -6.28377e-08 0)
(3 -2.15194e-07 0)
(3 1.85905e-06 0)
(3.00001 -3.75663e-05 0)
(3 8.58155e-16 0)
(3 1.11559e-15 0)
(3 1.3521e-15 0)
(3 1.24701e-15 0)
(3 1.4166e-15 0)
(3 8.51092e-16 0)
(3 -5.71281e-17 0)
(3 -3.86118e-16 0)
(3 -3.21049e-16 0)
(3 -5.76462e-16 0)
(3 -8.0057e-16 0)
(3 3.84477e-16 0)
(3 1.38673e-15 0)
(3 2.83764e-15 0)
(3 3.99185e-15 0)
(3 4.94965e-15 0)
(3 5.52051e-14 0)
(3 5.33738e-13 0)
(3 1.36342e-12 0)
(3 -1.29446e-10 0)
(3 -3.169e-09 0)
(3 -1.08814e-08 0)
(3 -5.25407e-07 0)
(3 -5.094e-07 0)
(3 2.98336e-15 0)
(3 1.59635e-15 0)
(3 2.08538e-15 0)
(3 2.25329e-15 0)
(3 1.94075e-15 0)
(3 4.53816e-16 0)
(3 3.18347e-17 0)
(3 -1.50263e-16 0)
(3 -4.21301e-16 0)
(3 -1.42407e-15 0)
(3 -2.57518e-15 0)
(3 -1.99384e-17 0)
(3 7.72228e-16 0)
(3 3.01174e-15 0)
(3 4.20806e-15 0)
(3 3.80504e-15 0)
(3 -3.16422e-14 0)
(3 -9.12309e-13 0)
(3 -3.69546e-13 0)
(3 7.28939e-11 0)
(3 2.67762e-09 0)
(3 1.23064e-07 0)
(3 3.34622e-08 0)
(3 -5.83691e-09 0)
(3 3.52932e-15 0)
(3 2.32373e-15 0)
(3 1.09974e-15 0)
(3 6.36332e-16 0)
(3 -3.52552e-16 0)
(3 -2.31691e-16 0)
(3 -2.16139e-17 0)
(3 -8.37935e-16 0)
(3 -1.35786e-15 0)
(3 -2.46259e-15 0)
(3 -2.2484e-15 0)
(3 -5.58968e-16 0)
(3 1.44284e-15 0)
(3 2.20579e-15 0)
(3 -1.58916e-16 0)
(3 -1.84424e-13 0)
(3 -1.27072e-12 0)
(3 -2.33087e-12 0)
(3 5.78944e-11 0)
(3 5.7304e-09 0)
(3 5.39741e-08 0)
(3 3.91925e-07 0)
(3 -1.30358e-05 0)
(2.99999 3.35461e-06 0)
(3 2.59165e-15 0)
(3 2.28436e-15 0)
(3 6.49399e-17 0)
(3 -7.15864e-16 0)
(3 -2.31385e-15 0)
(3 -2.32409e-15 0)
(3 -1.70652e-15 0)
(3 -1.60417e-15 0)
(3 -1.94033e-15 0)
(3 -1.70168e-15 0)
(3 -5.74589e-16 0)
(3 3.36838e-16 0)
(3 1.08548e-15 0)
(3 -4.55477e-15 0)
(3 -1.02901e-12 0)
(3 -6.81691e-12 0)
(3 -5.60183e-12 0)
(3 3.82761e-11 0)
(3 1.84579e-08 0)
(3 1.463e-07 0)
(3 1.8781e-07 0)
(3 1.96271e-06 0)
(2.99959 -0.000866855 0)
(2.99262 -0.0153824 0)
(3 9.57996e-16 0)
(3 7.7886e-16 0)
(3 -1.07409e-15 0)
(3 -2.20108e-15 0)
(3 -2.51853e-15 0)
(3 -3.08091e-15 0)
(3 -3.76112e-15 0)
(3 -1.98218e-15 0)
(3 -7.4278e-16 0)
(3 -7.28503e-16 0)
(3 4.52035e-16 0)
(3 -1.50861e-15 0)
(3 -9.17339e-15 0)
(3 -5.31776e-13 0)
(3 -1.97948e-11 0)
(3 -2.44657e-11 0)
(3 4.91195e-11 0)
(3 3.1114e-08 0)
(3 5.76107e-07 0)
(3 4.3931e-07 0)
(3 4.31342e-06 0)
(2.99937 -0.00123976 0)
(2.97802 -0.0397045 0)
(2.86292 -0.221803 0)
(3 -7.69301e-16 0)
(3 -7.07893e-16 0)
(3 -8.94718e-16 0)
(3 -4.26021e-16 0)
(3 2.03504e-16 0)
(3 5.01613e-16 0)
(3 -7.08408e-16 0)
(3 -7.64443e-16 0)
(3 -1.55299e-16 0)
(3 8.79211e-17 0)
(3 -5.59176e-16 0)
(3 -1.34331e-13 0)
(3 -1.91387e-12 0)
(3 -4.96698e-12 0)
(3 -1.05738e-10 0)
(3 2.54365e-09 0)
(3 1.78451e-08 0)
(3 1.40454e-06 0)
(3 1.19225e-06 0)
(2.99999 6.82447e-08 0)
(2.99747 -0.00439867 0)
(2.96887 -0.061052 0)
(2.79591 -0.315573 0)
(2.51315 -0.689584 0)
(3 -2.1227e-15 0)
(3 -1.57144e-15 0)
(3 -3.97485e-16 0)
(3 1.73705e-15 0)
(3 1.42704e-15 0)
(3 2.20177e-15 0)
(3 2.32598e-16 0)
(3 -1.97939e-15 0)
(3 -4.65037e-15 0)
(3 -1.26203e-14 0)
(3 -4.36599e-13 0)
(3 -2.77286e-12 0)
(3 -1.86383e-11 0)
(3 -8.5195e-11 0)
(3 2.2218e-08 0)
(3 1.12491e-07 0)
(3 1.49193e-06 0)
(3 5.06832e-06 0)
(2.9999 -0.00019314 0)
(2.99623 -0.0073753 0)
(2.90977 -0.129664 0)
(2.75456 -0.387106 0)
(2.47109 -0.714448 0)
(2.33102 -0.903528 0)
(3 -7.93631e-16 0)
(3 -1.02017e-15 0)
(3 -3.94993e-17 0)
(3 6.61607e-16 0)
(3 5.78586e-16 0)
(3 -6.97733e-15 0)
(3 -2.60661e-14 0)
(3 -9.89781e-14 0)
(3 -2.57157e-13 0)
(3 -2.37104e-12 0)
(3 -2.81467e-11 0)
(3 -1.76276e-11 0)
(3 -1.06575e-10 0)
(3 2.30755e-08 0)
(3 9.86201e-07 0)
(3 1.20097e-06 0)
(3 9.82094e-06 0)
(2.99958 -0.000634841 0)
(2.97965 -0.0306648 0)
(2.90502 -0.174312 0)
(2.56333 -0.595018 0)
(2.42979 -0.76021 0)
(2.35216 -0.804086 0)
(2.33673 -0.829652 0)
(3 -2.70405e-15 0)
(3 -3.08926e-16 0)
(3 2.73152e-16 0)
(3 -7.33984e-15 0)
(3 -8.50979e-14 0)
(3 -8.78577e-13 0)
(3 -1.22017e-12 0)
(3 -1.39082e-12 0)
(3 -1.52565e-11 0)
(3 -1.52624e-11 0)
(3 -3.24144e-10 0)
(3 5.7524e-09 0)
(3 3.78117e-08 0)
(3 3.31635e-06 0)
(3 3.032e-06 0)
(3 2.21231e-05 0)
(2.99697 -0.00511761 0)
(2.96506 -0.0567809 0)
(2.721 -0.369556 0)
(2.57963 -0.594397 0)
(2.38232 -0.793014 0)
(2.29727 -0.873341 0)
(2.29191 -0.86189 0)
(2.30551 -0.847468 0)
(3 -2.20262e-15 0)
(3 6.06929e-15 0)
(3 -1.10944e-13 0)
(3 -1.91521e-12 0)
(3 -7.18018e-12 0)
(3 -7.35349e-12 0)
(3 -6.41289e-12 0)
(3 -2.51585e-12 0)
(3 -7.26161e-11 0)
(3 2.90475e-10 0)
(3 3.82291e-08 0)
(3 5.72803e-07 0)
(3 2.11764e-06 0)
(3.00001 2.64865e-05 0)
(2.99965 -0.000622019 0)
(2.98799 -0.0172316 0)
(2.85678 -0.180742 0)
(2.70202 -0.43712 0)
(2.35192 -0.821422 0)
(2.28534 -0.875985 0)
(2.3075 -0.850488 0)
(2.30889 -0.847024 0)
(2.31305 -0.842956 0)
(2.32465 -0.84023 0)
(3 7.68098e-15 0)
(3 -6.63892e-13 0)
(3 -1.48848e-11 0)
(3 -2.40149e-11 0)
(3 -3.08059e-11 0)
(3 5.94327e-11 0)
(3 6.5929e-10 0)
(3 1.35075e-09 0)
(3 2.2012e-08 0)
(3 4.36976e-07 0)
(3 7.92662e-06 0)
(3 4.89657e-06 0)
(3 2.84117e-05 0)
(2.99537 -0.00632539 0)
(2.93477 -0.0803273 0)
(2.78072 -0.306265 0)
(2.41005 -0.734197 0)
(2.36809 -0.796458 0)
(2.31797 -0.845886 0)
(2.31694 -0.844802 0)
(2.32365 -0.843173 0)
(2.33231 -0.84001 0)
(2.33724 -0.836563 0)
(2.3423 -0.83523 0)
(3 -4.88073e-12 0)
(3 -3.54812e-13 0)
(3 -4.9009e-11 0)
(3 9.73364e-11 0)
(3 -6.34539e-10 0)
(3 6.83047e-08 0)
(3 7.21426e-08 0)
(3 2.02578e-07 0)
(3 6.54664e-06 0)
(3 6.28528e-06 0)
(3.00003 6.84931e-05 0)
(2.9983 -0.00224142 0)
(2.97527 -0.0351875 0)
(2.82547 -0.219813 0)
(2.51458 -0.593726 0)
(2.42236 -0.739131 0)
(2.29867 -0.884157 0)
(2.28716 -0.8954 0)
(2.30227 -0.886835 0)
(2.32523 -0.861191 0)
(2.33585 -0.847834 0)
(2.34259 -0.847591 0)
(2.34619 -0.844084 0)
(2.34964 -0.841646 0)
(3 -2.79273e-10 0)
(3 2.41514e-09 0)
(3 2.78176e-08 0)
(3 7.88661e-08 0)
(3 7.60908e-07 0)
(3 7.74126e-07 0)
(3 2.04954e-06 0)
(3 1.97308e-06 0)
(3.00004 8.45223e-05 0)
(2.99927 -0.000962447 0)
(2.98767 -0.018366 0)
(2.85269 -0.187246 0)
(2.67609 -0.447747 0)
(2.43364 -0.73892 0)
(2.29044 -0.916635 0)
(2.28877 -0.89717 0)
(2.30873 -0.882377 0)
(2.32142 -0.876774 0)
(2.3371 -0.869277 0)
(2.34941 -0.854334 0)
(2.35657 -0.848232 0)
(2.35634 -0.850368 0)
(2.35655 -0.851237 0)
(2.35262 -0.856054 0)
(3 9.28592e-08 0)
(3 6.40308e-08 0)
(3 3.86656e-07 0)
(3 1.30078e-06 0)
(3.00001 9.21103e-06 0)
(2.99999 -2.04839e-05 0)
(3.00003 8.32155e-05 0)
(2.99929 -0.00125148 0)
(2.98985 -0.0172942 0)
(2.89375 -0.17308 0)
(2.78529 -0.406766 0)
(2.41975 -0.807268 0)
(2.33402 -0.889367 0)
(2.28179 -0.945948 0)
(2.28814 -0.947867 0)
(2.30735 -0.924364 0)
(2.33642 -0.885773 0)
(2.34724 -0.86015 0)
(2.35354 -0.843829 0)
(2.35814 -0.839987 0)
(2.36008 -0.842433 0)
(2.36035 -0.846446 0)
(2.35807 -0.848749 0)
(2.35303 -0.850237 0)
(3 5.0295e-06 0)
(2.99999 -5.92711e-06 0)
(3.00001 -5.62825e-05 0)
(2.99993 -1.67759e-05 0)
(2.99854 -0.00203255 0)
(2.99202 -0.0114166 0)
(2.96356 -0.0561575 0)
(2.90288 -0.168962 0)
(2.76899 -0.41424 0)
(2.58037 -0.717478 0)
(2.46627 -0.840157 0)
(2.33687 -0.931151 0)
(2.29015 -0.914475 0)
(2.29631 -0.901102 0)
(2.3133 -0.885364 0)
(2.34871 -0.866642 0)
(2.35671 -0.865454 0)
(2.35872 -0.847854 0)
(2.36109 -0.839761 0)
(2.3596 -0.8395 0)
(2.3586 -0.840164 0)
(2.35381 -0.843399 0)
(2.34867 -0.846045 0)
(2.3447 -0.849369 0)
(2.99884 -0.00110433 0)
(2.98902 -0.0128258 0)
(2.96111 -0.0506394 0)
(2.90438 -0.128805 0)
(2.79807 -0.278916 0)
(2.69309 -0.454975 0)
(2.51713 -0.693893 0)
(2.39941 -0.895025 0)
(2.21823 -1.07067 0)
(2.16203 -1.10657 0)
(2.15198 -1.03243 0)
(2.18503 -0.995808 0)
(2.24777 -0.950756 0)
(2.30024 -0.902753 0)
(2.33439 -0.853048 0)
(2.35211 -0.828623 0)
(2.35303 -0.83467 0)
(2.35517 -0.837768 0)
(2.35519 -0.838249 0)
(2.3544 -0.840225 0)
(2.35294 -0.843785 0)
(2.34686 -0.846039 0)
(2.34144 -0.84836 0)
(2.33729 -0.850453 0)
(2.93399 -0.0103517 0)
(2.84363 -0.0814696 0)
(2.75727 -0.143384 0)
(2.67311 -0.230378 0)
(2.56635 -0.362989 0)
(2.51712 -0.433678 0)
(2.41513 -0.547031 0)
(2.35312 -0.62864 0)
(2.3116 -0.723904 0)
(2.25386 -0.79843 0)
(2.24828 -0.852217 0)
(2.28324 -0.88618 0)
(2.32799 -0.89504 0)
(2.33625 -0.889178 0)
(2.34522 -0.885141 0)
(2.34663 -0.86683 0)
(2.34547 -0.85916 0)
(2.34241 -0.850653 0)