/*--------------------------------*- C++ -*----------------------------------*\
  =========                 |
  \\      /  F ield         | OpenFOAM: The Open Source CFD Toolbox
   \\    /   O peration     | Website:  https://openfoam.org
    \\  /    A nd           | Version:  7
     \\/     M anipulation  |
\*---------------------------------------------------------------------------*/
FoamFile
{
    version     2.0;
    format      ascii;
    class       volScalarField;
    location    "1.9";
    object      p;
}
// * * * * * * * * * * * * * * * * * * * * * * * * * * * * * * * * * * * * * //

dimensions      [1 -1 -2 0 0 0 0];

internalField   nonuniform List<scalar> 
18432
(
1
1
1
1
1
1
1
1
1
1
1
1
1
1
1
1
1
1
1
1
1
1
1
1
1
1
1
1
1
1
1
1
1
1
1
1
1
1
1
1
1
1
1
1
1
1
1
1
1
1
1
1
1
1
1
1
1
1
1
1
1
1
1
1
1
1
1
1
1
1
1
1
1
1
1
1
1
1
1
1
1
1
1
1
1
1
1
1
1
1
1
1
1
1
1
1
1
1
1
1
1
1
1
1
1
1
1
1
1
1
1
1
1
1
1
1
1
1
1
1
1
1
1
1
1
1
1
1
1
1
1
1
1
1
1
1
1
1
1
1
1
1
1
1
1
1
1
1
1
1
1
1
1
1
1
1
1
1
1
1
1
1
1
1
1
1
1
1
1
1
1
1
1
1
1
1
1
1
1
1
1
1
1
1
1
1
1
1
1
1
1
1
1
1
1
1
1
1
1
1
1
1
1
1
1
1
1
1
1
1
1
1
1
1
1
1
1
1
1
1
1
1
1
1
1
1
1
1
1
1
1
1
1
1
1
1
1
1
1
1
1
1
1
1
1
1
1
1
1
1
1
1
1
1
1
1
1
1
1
1
1
1
1
1
1
1
1
1
1
1
1
1
1
1
1
1
1
1
1
1
1
1
1
1
1
1
1
1
1
1
1
1
1
1
1
1
1
1
1
1
1
1
1
1
1
1
1
1
1
1
1
1
1
1
1
1
1
1
1
1
1
1
1
1
1
1
1
1
1
1
1
1
1
1
1
1
1
1
1
1
1
1
1
1
1
1
1
1
1
1
1
1
1
1
1
1
1
1
1
1
1
1
1
1
1
1
1
1
1
1
1
1
1
1
1
1
1
1
1
1
1
1
1
1
1
1
1
1
1
1
1
1
1
1
1
1
1
1
1
1
1
1
1
1
1
1
1
1
1
1
1
1
1
1
1
1
1
1
1
1
1
1
1
1
1
1
1
1
1
1
1
1
1
1
1
1
1
1
1
1
1
1
1
1
1
1
1
1
1
1
1
1
1
1
1
1
1
1
1
1
1
1
1
1
1
1
1
1
1
1
1
1
1
1
1
1
1
1
1
1
1
1
1
1
1
1
1
1
1
1
1
1
1
1
1
1
1
1
1
1
1
1
1
1
1
1
1
1
1
1
1
1
1
1
1
1
1
1
1
1
1
1
1
1
1
1
1
1
1
1
1
1
1
1
1
1
1
1
1
1
1
1
1
1
1
1
1
1
1
1
1
1
1
1
1
1
1
1
1
1
1
1
1
1
1
1
1
1
1
1
1
1
1
1
1
1
1
1
1
1
1
1
1
1
1
1
1
1
1
1
1
1
1
1
1
1
1
1
1
1
1
1
1
1
1
1
1
1
1
1
1
1
1
1
1
1
1
1
1
1
1
1
1
1
1
1
1
1
1
1
1
1
1
1
1
1
1
1
1
1
1
1
1
1
1
1
1
1
1
1
1
1
1
1
1
1
1
1
1
1
1
1
1
1
1
1
1
1
1
1
1
1
1
1
1
1
1
1
1
1
1
1
1
1
1
1
1
1
1
1
1
1
1
1
1
1
1
1
1
1
1
1
1
1
1
1
1
1
1
1
1
1
1
1
1
1
1
1
1
1
1
1
1
1
1
1
1
1
1
1
1
1
1
1
1
1
1
1
1
1
1
1
1
1
1
1
1
1
1
1
1
1
1
1
1
1
1
1
1
1
1
1
1
1
1
1
1
1
1
1
1
1
1
1
1
1
1
1
1
1
1
1
1
1
1
1
1
1
1
1
1
1
1
1
1
1
1
1
1
1
1
1
1
1
1
1
1
1
1
1
1
1
1
1
1
1
1
1
1
1
1
1
1
1
1
1
1
1
1
1
1
1
1
1
1
1
1
1
1
1
1
1
1
1
1
1
1
1
1
1
1
1
1
1
1
1
1
1
1
1
1
1
1
1
1
1
1
1
1
1
1
1
1
1
1
1
1
1
1
1
1
1
1
1
1
1
1
1
1
1
1
1
1
1
1
1
1
1
1
1
1
1
1
1
1
1
1
1
1
1
1
1
1
1
1
1
1
1
1
1
1
1
1
1
1
1
1
1
1
1
1
1
1
1
1
1
1
1
1
1
1
1
1
1
1
1
1
1
1
1
1
1
1
1
1
1
1
1
1
1
1
1
1
1
1
1
1
1
1
1
1
1
1
1
1
1
1
1
1
1
1
1
1
1
1
1
1
1
1
1
1
1
1
1
1
1
1
1
1
1
1
1
1
1
1
1
1
1
1
1
1
1
1
1
1
1
1
1
1
1
1
1
1
1
1
1
1
1
1
1
1
1
1
1
1
1
1
1
1
1
1
1
1
1
1
1
1
1
1
1
1
1
1
1
1
1
1
1
1
1
1
1
1
1
1
1
1
1
1
1
1
1
1
1
1
1
1
1
1
1
1
1
1
1
1
1
1
1
1
1
1
1
1
1
1
1
1
1
1
1
1
1
1
1
1
1
1
1
1
1
1
1
1
1
1
1
1
1
1
1
1
1
1
1
1
1
1
1
1
1
1
1
1
1
1
1
1
1
1
1
1
1
1
1
1
1
1
1
1
1
1
1
1
1
1
1
1
1
1
1
1
1
1
1
1
1
1
1
1
1
1
1
1
1
1
1
1
1
1
1
1
1
1
1
1
1
1
1
1
1
1
1
1
1
1
1
1
1
1
1
1
1
1
1
1
1
1
1
1
1
1
1
1
1
1
1
1
1
1
1
1
1
1
1
1
1
1
1
1
1
1
1
1
1
1
1
1
1
1
1
1
1
1
1
1
1
1
1
1
1
1
1
1
1
1
1
1
1
1
1
1
1
1
1
1
1
1
1
1
1
1
1
1
1
1
1
1
1
1
1
1
1
1
1
1
1
1
1
1
1
1
1
1
1
1
1
1
1
1
1
1
1
1
1
1
1
1
1
1
1
1
1
1
1
1
1
1
1
1
1
1
1
1
1
1
1
1
1
1
1
1
1
1
1
1
1
1
1
1
1
1
1
1
1
1
1
1
1
1
1
1
1
1
1
1
1
1
1
1
1
1
1
1
1
1
1
1
1
1
1
1
1
1
1
1
1
1
1
1
1
1
1
1
1
1
1
1
1
1
1
1
1
1
1
1
1
1
1
1
1
1
1
1
1
1
1
1
1
1
1
1
1
1
1
1
1
1
1
1
1
1
1
1
1
1
1
1
1
1
1
1
1
1
1
1
1
1
1
1
1
1
1
1
1
1
1
1
1
1
1
1
1
1
1
1
1
1
1
1
1
1
1
1
1
1
1
1
1
1
1
1
1
1
1
1
1
1
1
1
1
1
1
1
1
1
1
1
1
1
1
1
1
1
1
1
1
1
1
1
1
1
1
1
1
1
1
1
1
1
1
1
1
1
1
1
1
1
1
1
1
1
1
1
1
1
1
1
1
1
1
1
1
1
1
1
1
1
1
1
1
1
1
1
1
1
1
1
1
1
1
1
1
1
1
1
1
1
1
1
1
1
1
1
1
1
1
1
1
1
1
1
1
1
1
1
1
1
1
1
1
1
1
1
1
1
1
1
1
1
1
1
1
1
1
1
1
1
1
1
1
1
1
1
1
1
1
1
1
1
1
1
1
1
1
1
1
1
1
1
1
1
1
1
1
1
1
1
1
1
1
1
1
1
1
1
1
1
1
1
1
1
1
1
1
1
1
1
1
1
1
1
1
1
1
1
1
1
1
1
1
1
1
1
1
1
1
1
1
1
1
1
1
1
1
1
1
1
1
1
1
1
1
1
1
1
1
1
1
1
1
1
1
1
1
1
1
1
1
1
1
1
1
1
1
1
1
1
1
1
1
1
1
1
1
1
1
1
1
1
1
1
1
1
1
1
1
1
1
1
1
1
1
1
1
1
1
1
1
1
1
1
1
1
1
1
1
1
1
1
1
1
1
1
1
1
1
1
1
1
1
1
1
1
1
1
1
1
1
1
1
1
1
1
1
1
1
1
1
1
1
1
1
1
1
1
1
1
1
1
1
1
1
1
1
1
1
1
1
1
1
1
1
1
1
1
1
1
1
1
1
1
1
1
1
1
1
1
1
1
1
1
1
1
1
1
1
1
1
1
1
1
1
1
1
1
1
1
1
1
1
1
1
1
1
1
1
1
1
1
1
1
1
1
1
1
1
1
1
1
1
1
1
1
1
1
1
1
1
1
1
1
1
1
1
1
1
1
1
1
1
1
1
1
1
1
1
1
1
1
1
1
1
1
1
1
1
1
1
1
1
1
1
1
1
1
1
1
1
1
1
1
1
1
1
1
1
1
1
1
1
1
1
1
1
1
1
1
1
1
1
1
1
1
1
1
1
1
1
1
1
1
1
1
1
1
1
1
1
1
1
1
1
1
1
1
1
1
1
1
1
1
1
1
1
1
1
1
1
1
1
1
1
1
1
1
1
1
1
1
1
1
1
1
1
1
1
1
1
1
1
1
1
1
1
1
1
1
1
1
1
1
1
1
1
1
1
1
1
1
1
1
1
1
1
1
1
1
1
1
1
1
1
1
1
1
1
1
1
1
1
1
1
1
1
1
1
1
1
1
1
1
1
1
1
1
1
1
1
1
1
1
1
1
1
1
1
1
1
1
1
1
1
1
1
1
1
1
1
1
1
1
1
1
1
1
1
1
1
1
1
1
1
1
1
1
1
1
1
1
1
1
1
1
1
1
1
1
1
1
1
1
1
1
1
1
1
1
1
1
1
1
1
1
1
1
1
1
1
1
1
1
1
1
1
1
1
1
1
1
1
1
1
1
1
1
1
1
1
1
1
1
1
1
1
1
1
1
1
1
1
1
1
1
1
1
1
1
1
1
1
1
1
1
1
1
1
1
1
1
1
1
1
1
1
1
1
1
1
1
1
1
1
1
1
1
1
1
1
1
1
1
1
1
1
1
1
1
1
1
1
1
1
1
1
1
1
1
1
1
1
1
1
1
1
1
1
1
1
1
1
1
1
1
1
1
1
1
1
1
1
1
1
1
1
1
1
1
1
1
1
1
1
1
1
1
1
1
1
1
1
1
1
1
1
1
1
1
1
1
1
1
1
1
1
1
1
1
1
1
1
1
1
1
1
1
1
1
1
1
1
1
1
1
1
1
1
1
1
1
1
1
1
1
1
1
1
1
1
1
1
1
1
1
1
1
1
1
1
1
1
1
1
1
1
1
1
1
1
1
1
1
1
1
1
1
1
1
1
1
1
1
1
1
1
1
1
1
1
1
1
1
1
1
1
1
1
1
1
1
1
1
1
1
1
1
1
1
1
1
1
1
1
1
1
1
1
1
1
1
1
1
1
1
1
1
1
1
1
1
1
1
1
1
1
1
1
1
1
1
1
1
1
1
1
1
1
1
1
1
1
1
1
1
1
1
1
1
1
1
1
1
1
1
1
1
1
1
1
1
1
1
1
1
1
1
1
1
1
1
1
1
1
1
1
1
1
1
1
1
1
1
1
1
1
1
1
1
1
1
1
1
1
1
1
1
1
1
1
1
1
1
1
1
1
1
1
1
1
1
1
1
1
1
1
1
1
1
1
1
1
1
1
1
1
1
1
1
1
1
1
1
1
1
1
1
1
1
1
1
1
1
1
1
1
1
1
1
1
1
1
1
1
1
1
1
1
1
1
1
1
1
1
1
1
1
1
1
1
1
1
1
1
1
1
1
1
1
1
1
1
1
1
1
1
1
1
1
1
1
1
1
1
1
1
1
1
1
1
1
1
1
1
1
1
1
1
1
1
1
1
1
1
1
1
1
1
1
1
1
1
1
1
1
1
1
1
1
1
1
1
1
1
1
1
1
1
1
1
1
1
1
1
1
1
1
1
1
1
1
1
1
1
1
1
1
1
1
1
1
1
1
1
1
1
1
1
1
1
1
1
1
1
1
1
1
1
1
1
1
1
1
1
1
1
1
1
1
1
1
1
1
1
1
1
1
1
1
1
1
1
1
1
1
1
1
1
1
1
1
1
1
1
1
1
1
1
1
1
1
1
1
1
1
1
1
1
1
1
1
1
1
1
1
1
1
1
1
1
1
1
1
1
1
1
1
1
1
1
1
1
1
1
1
1
1
1
1
1
1
1
1
1
1
1
1
1
1
1
1
1
1
1
1
1
1
1
1
1
1
1
1
1
1
1
1
1
1
1
1
1
1
1
1
1
1
1
1
1
1
1
1
1
1
1
1
1
1
1
1
1
1
1
1
1
1
1
1
1
1
1
1
1
1
1
1
1
1
1
1
1
1
1
1
1
1
1
1
1
1
1
1
1
1
1
1
1
1
1
1
1
1
1
1
1
1
1
1
1
1
1
1
1
1
1
1
1
1
1
1
1
1
1
1
1
1
1
1
1
1
1
1
1
1
1
1
1
1
1
1
1
1
1
1
1
1
1
1
1
1
1
1
1
1
1
1
1
1
1
1
1
1
1
1
1
1
1
1
1
1
1
1
1
1
1
1
1
1
1
1
1
1
1
1
1
1
1
1
1
1
1
1
1
1
1
1
1
1
1
1
1
1
1
1
1
1
1
1
1
1
1
1
1
1
1
1
1
1
1
1
1
1
1
1
1
1
1
1
1
1
1
1
1
1
1
1
1
1
1
1
1
1
1
1
1
1
1
1
1
1
1
1
1
1
1
1
1
1
1
1
1
1
1
1
1
1
1
1
1
1
1
1
1
1
1
1
1
1
1
1
1
1
1
1
1
1
1
1
1
1
1
1
1
1
1
1
1
1
1
1
1
1
1
1
1
1
1
1
1
1
1
1
1
1
1
1
1
1
1
1
1
1
1
1
1
1
1
1
1
1
1
1
1
1
1
1
1
1
1
1
1
1
1
1
1
1
1
1
1
1
1
1
1
1
1
1
1
1
1
1
1
1
1
1.28975
1.7509
2.33451
2.888
3.54471
4.19382
4.65148
5.09825
5.34426
5.26715
4.9448
4.46718
4.06118
3.78603
3.6686
3.58399
3.56243
3.58312
3.61573
3.649
3.68565
3.7101
3.72669
3.73428
3.73991
3.74699
3.75593
3.76276
3.76481
3.76622
3.77205
3.78446
3.79585
3.79906
3.79786
3.79371
3.78496
3.7756
3.76993
3.76778
3.7676
3.76748
3.76868
3.77023
3.77053
3.7701
3.76707
3.76508
1.00246
1.01487
1.06886
1.20752
1.40943
1.76635
2.2196
2.75573
3.3111
3.737
3.90625
4.03503
4.04113
3.96275
3.84632
3.77764
3.73878
3.71056
3.67422
3.66632
3.67601
3.69881
3.72685
3.74842
3.75614
3.75683
3.75513
3.75831
3.75924
3.75982
3.76283
3.76874
3.7738
3.77793
3.77905
3.7774
3.7738
3.77008
3.76884
3.76921
3.7705
3.77401
3.77814
3.77912
3.77887
3.77731
3.77256
3.7696
1
0.999978
1.00005
1.0001
1.00135
1.01317
1.06289
1.21954
1.60752
2.33752
3.33294
3.9037
4.31134
4.32748
4.26108
4.11931
3.95668
3.77203
3.66866
3.66495
3.67522
3.69462
3.72841
3.75721
3.76533
3.76752
3.76666
3.76498
3.76738
3.77057
3.77242
3.77409
3.77354
3.7721
3.76882
3.7642
3.76053
3.75925
3.75982
3.76175
3.76591
3.77319
3.78091
3.784
3.7843
3.78342
3.77976
3.77711
1
1
1
1
0.999998
0.999995
1.00004
1.00007
1.00587
1.06759
1.42924
2.129
3.20187
3.82853
4.03002
4.02687
3.93299
3.87919
3.82701
3.76066
3.74114
3.71552
3.70092
3.70528
3.71913
3.7347
3.74609
3.75785
3.76772
3.77385
3.77909
3.7812
3.78066
3.77934
3.77531
3.77101
3.76853
3.76649
3.76604
3.76774
3.77168
3.77728
3.78158
3.78216
3.78021
3.7769
3.77257
3.77123
1
1
1
1
1
1
1
1
1
0.999925
1.00214
1.04424
1.28982
2.00196
2.81905
3.74203
3.98452
4.01936
3.98499
3.92136
3.8067
3.73668
3.69257
3.67029
3.671
3.68146
3.69515
3.71371
3.73327
3.74874
3.76187
3.77209
3.77692
3.77812
3.77764
3.77713
3.77671
3.7757
3.77549
3.77748
3.78165
3.78551
3.78633
3.78442
3.78111
3.77511
3.76869
3.76783
1
1
1
1
1
1
1
1
1
0.999997
0.999998
0.999955
1.00069
1.03273
1.21109
1.81537
2.70377
3.43726
3.92119
3.92384
3.87419
3.82989
3.78414
3.74347
3.71109
3.6929
3.68801
3.69217
3.71245
3.73632
3.75398
3.76736
3.77321
3.77464
3.77439
3.77413
3.77283
3.77064
3.76994
3.77186
3.77592
3.77684
3.77465
3.77174
3.76803
3.76358
3.76011
3.76247
1
1
1
1
1
1
1
1
1
1
1
0.999998
0.999998
0.999967
1.00046
1.01792
1.20379
1.66041
2.56571
3.20694
3.71382
3.878
3.87648
3.84861
3.79184
3.75786
3.73525
3.71867
3.71971
3.72932
3.74392
3.7634
3.77024
3.77378
3.77274
3.771
3.7684
3.76554
3.76422
3.7668
3.77167
3.77273
3.77162
3.76985
3.76832
3.76781
3.76614
3.76885
1
1
1
1
1
1
1
1
1
1
1
1
1
0.999998
0.999998
0.999971
1.00065
1.012
1.14891
1.60001
2.3986
3.16575
3.49217
3.69989
3.771
3.77884
3.76352
3.73752
3.73697
3.74056
3.746
3.7515
3.76024
3.76656
3.76626
3.766
3.76582
3.76585
3.76872
3.77485
3.77878
3.77919
3.77835
3.77631
3.77477
3.77413
3.77341
3.774
1
1
1
1
1
1
1
1
1
1
1
1
1
1
1
0.999998
0.999998
0.999981
1.0004
1.01266
1.11029
1.57061
2.25811
3.13195
3.48203
3.61941
3.67924
3.69313
3.71584
3.7179
3.71488
3.72057
3.72994
3.74035
3.75181
3.75971
3.76516
3.77004
3.77492
3.78081
3.78241
3.78234
3.78234
3.78086
3.77669
3.77404
3.77358
3.77347
1
1
1
1
1
1
1
1
1
1
1
1
1
1
1
1
1
0.999998
0.999998
0.999985
1.00024
1.01391
1.1061
1.48916
2.24043
2.98417
3.54182
3.64603
3.69896
3.70834
3.70229
3.7045
3.70818
3.71567
3.72716
3.74006
3.75241
3.76416
3.77245
3.77685
3.77756
3.7774
3.77873
3.77881
3.77604
3.77349
3.77372
3.77332
1
1
1
1
1
1
1
1
1
1
1
1
1
1
1
1
1
1
1
0.999999
0.999999
0.999987
1.00032
1.00958
1.12263
1.45533
2.22763
2.9372
3.48666
3.70415
3.74242
3.74477
3.74881
3.74313
3.74074
3.748
3.75629
3.76646
3.7763
3.77936
3.77803
3.77476
3.77351
3.77179
3.76865
3.76625
3.76688
3.76692
1
1
1
1
1
1
1
1
1
1
1
1
1
1
1
1
1
1
1
1
1
0.999998
0.999999
0.999987
1.00057
1.00886
1.12027
1.50749
2.25635
2.96008
3.41251
3.65682
3.73911
3.74839
3.76068
3.77014
3.77161
3.77487
3.78224
3.78669
3.78675
3.78339
3.78058
3.7765
3.77201
3.77074
3.77085
3.77082
1
1
1
1
1
1
1
1
1
1
1
1
1
1
1
1
1
1
1
1
1
1
1
0.999998
0.999999
0.999989
1.00075
1.01365
1.11993
1.57802
2.31375
3.14272
3.43054
3.56455
3.67959
3.73596
3.73624
3.74778
3.76223
3.77068
3.77572
3.77489
3.77251
3.77165
3.77197
3.77431
3.77701
3.77766
1
1
1
1
1
1
1
1
1
1
1
1
1
1
1
1
1
1
1
1
1
1
1
1
1
0.999998
0.999999
0.999995
1.0008
1.02287
1.14763
1.66976
2.44257
3.27719
3.59428
3.64554
3.67682
3.70163
3.72602
3.73973
3.7439
3.74728
3.75288
3.76183
3.76989
3.77219
3.77407
3.7762
1
1
1
1
1
1
1
1
1
1
1
1
1
1
1
1
1
1
1
1
1
1
1
1
1
1
1
0.999999
0.999997
1.00002
1.00129
1.03446
1.21935
1.83714
2.67779
3.35321
3.70018
3.75048
3.76366
3.76758
3.75661
3.75102
3.75704
3.76621
3.77366
3.7753
3.77635
3.7775
1
1
1
1
1
1
1
1
1
1
1
1
1
1
1
1
1
1
1
1
1
1
1
1
1
1
1
1
1
1
0.999998
1.00011
1.00318
1.05771
1.36294
2.08177
2.90738
3.4493
3.70594
3.76693
3.76689
3.7855
3.78977
3.79115
3.79194
3.79092
3.78834
3.78579
1
1
1
1
1
1
1
1
1
1
1
1
1
1
1
1
1
1
1
1
1
1
1
1
1
1
1
1
1
1
1
1
0.999996
1.00036
1.00933
1.10886
1.58324
2.46371
3.23268
3.48727
3.62891
3.74225
3.74927
3.76116
3.77555
3.78325
3.78668
3.78498
1
1
1
1
1
1
1
1
1
1
1
1
1
1
1
1
1
1
1
1
1
1
1
1
1
1
1
1
1
1
1
1
0.999999
0.999999
1
1.00133
1.02981
1.2289
1.90645
2.84971
3.5489
3.64117
3.67404
3.70705
3.73633
3.75859
3.76788
3.76792
1
1
1
1
1
1
1
1
1
1
1
1
1
1
1
1
1
1
1
1
1
1
1
1
1
1
1
1
1
1
1
1
1
1
1
0.999998
1.0001
1.00513
1.08756
1.48772
2.40741
3.22952
3.69486
3.77783
3.78582
3.79046
3.78385
3.77008
1
1
1
1
1
1
1
1
1
1
1
1
1
1
1
1
1
1
1
1
1
1
1
1
1
1
1
1
1
1
1
1
1
1
1
1
0.999999
1
1.00097
1.02335
1.25539
1.94761
2.90399
3.45043
3.72907
3.79401
3.79465
3.79334
1
1
1
1
1
1
1
1
1
1
1
1
1
1
1
1
1
1
1
1
1
1
1
1
1
1
1
1
1
1
1
1
1
1
1
1
1
1
0.999999
1.00013
1.00699
1.09562
1.60577
2.61697
3.38959
3.57181
3.67374
3.73047
1
1
1
1
1
1
1
1
1
1
1
1
1
1
1
1
1
1
1
1
1
1
1
1
1
1
1
1
1
1
1
1
1
1
1
1
1
1
1
0.999999
1.00001
1.00165
1.04195
1.352
2.21063
3.20825
3.6528
3.71533
1
1
1
1
1
1
1
1
1
1
1
1
1
1
1
1
1
1
1
1
1
1
1
1
1
1
1
1
1
1
1
1
1
1
1
1
1
1
1
1
1
1
1.00036
1.01651
1.18947
1.91642
2.89389
3.60056
1
1
1
1
1
1
1
1
1
1
1
1
1
1
1
1
1
1
1
1
1
1
1
1
1
1
1
1
1
1
1
1
1
1
1
1
1
1
1
1
1
1
1
1.00012
1.00505
1.10926
1.68611
2.78517
1
1
1
1
1
1
1
1
1
1
1
1
1
1
1
1
1
1
1
1
1
1
1
1
1
1
1
1
1
1
1
1
1
1
1
1
1
1
1
1
1
1
1
1
1.00002
1.00266
1.06646
1.44058
1
1
1
1
1
1
1
1
1
1
1
1
1
1
1
1
1
1
1
1
1
1
1
1
1
1
1
1
1
1
1
1
1
1
1
1
1
1
1
1
1
1
1
1
1
1.00001
1.00122
1.01708
1
1
1
1
1
1
1
1
1
1
1
1
1
1
1
1
1
1
1
1
1
1
1
1
1
1
1
1
1
1
1
1
1
1
1
1
1
1
1
1
1
1
1
1
1
1
1.00001
0.999833
1
1
1
1
1
1
1
1
1
1
1
1
1
1
1
1
1
1
1
1
1
1
1
1
1
1
1
1
1
1
1
1
1
1
1
1
1
1
1
1
1
1
1
1
1
1
1
0.999941
1
1
1
1
1
1
1
1
1
1
1
1
1
1
1
1
1
1
1
1
1
1
1
1
1
1
1
1
1
1
1
1
1
1
1
1
1
1
1
1
1
1
1
1
1
1
1
0.999992
1
1
1
1
1
1
1
1
1
1
1
1
1
1
1
1
1
1
1
1
1
1
1
1
1
1
1
1
1
1
1
1
1
1
1
1
1
1
1
1
1
1
1
1
1
1
1
1
1
1
1
1
1
1
1
1
1
1
1
1
1
1
1
1
1
1
1
1
1
1
1
1
1
1
1
1
1
1
1
1
1
1
1
1
1
1
1
1
1
1
1
1
1
1
1
1
1
1
1
1
1
1
1
1
1
1
1
1
1
1
1
1
1
1
1
1
1
1
1
1
1
1
1
1
1
1
1
1
1
1
1
1
1
1
1
1
1
1
1
1
1
1
1
1
1
1
1
1
1
1
1
1
1
1
1
1
1
1
1
1
1
1
1
1
1
1
1
1
1
1
1
1
1
1
1
1
1
1
1
1
1
1
1
1
1
1
1
1
1
1
1
1
1
1
1
1
1
1
1
1
1
1
1
1
1
1
1
1
1
1
1
1
1
1
1
1
1
1
1
1
1
1
1
1
1
1
1
1
1
1
1
1
1
1
1
1
1
1
1
1
1
1
1
1
1
1
1
1
1
1
1
1
1
1
1
1
1
1
1
1
1
1
1
1
1
1
1
1
1
1
1
1
1
1
1
1
1
1
1
1
1
1
1
1
1
1
1
1
1
1
1
1
1
1
1
1
1
1
1
1
1
1
1
1
1
1
1
1
1
1
1
1
1
1
1
1
1
1
1
1
1
1
1
1
1
1
1
1
1
1
1
1
1
1
1
0.999992
1
1
1
1
1
1
1
1
1
1
1
1
1
1
1
1
1
1
1
1
1
1
1
1
1
1
1
1
1
1
1
1
1
1
1
1
1
1
1
1
1
1
1
1
1
1
1
0.99994
1
1
1
1
1
1
1
1
1
1
1
1
1
1
1
1
1
1
1
1
1
1
1
1
1
1
1
1
1
1
1
1
1
1
1
1
1
1
1
1
1
1
1
1
1
1
1.00001
0.999833
1
1
1
1
1
1
1
1
1
1
1
1
1
1
1
1
1
1
1
1
1
1
1
1
1
1
1
1
1
1
1
1
1
1
1
1
1
1
1
1
1
1
1
1
1
1.00001
1.00122
1.01708
1
1
1
1
1
1
1
1
1
1
1
1
1
1
1
1
1
1
1
1
1
1
1
1
1
1
1
1
1
1
1
1
1
1
1
1
1
1
1
1
1
1
1
1
1.00002
1.00266
1.06639
1.4407
1
1
1
1
1
1
1
1
1
1
1
1
1
1
1
1
1
1
1
1
1
1
1
1
1
1
1
1
1
1
1
1
1
1
1
1
1
1
1
1
1
1
1
1.00012
1.00505
1.10927
1.68575
2.78567
1
1
1
1
1
1
1
1
1
1
1
1
1
1
1
1
1
1
1
1
1
1
1
1
1
1
1
1
1
1
1
1
1
1
1
1
1
1
1
1
1
1
1.00036
1.01651
1.18952
1.91623
2.89394
3.60075
1
1
1
1
1
1
1
1
1
1
1
1
1
1
1
1
1
1
1
1
1
1
1
1
1
1
1
1
1
1
1
1
1
1
1
1
1
1
1
0.999999
1.00001
1.00165
1.04194
1.35204
2.21073
3.20786
3.65316
3.71547
1
1
1
1
1
1
1
1
1
1
1
1
1
1
1
1
1
1
1
1
1
1
1
1
1
1
1
1
1
1
1
1
1
1
1
1
1
1
0.999999
1.00013
1.00699
1.09563
1.60571
2.61718
3.38928
3.57164
3.67397
3.73067
1
1
1
1
1
1
1
1
1
1
1
1
1
1
1
1
1
1
1
1
1
1
1
1
1
1
1
1
1
1
1
1
1
1
1
1
0.999999
1
1.00097
1.02335
1.2554
1.94758
2.90402
3.4505
3.72898
3.79401
3.79472
3.79343
1
1
1
1
1
1
1
1
1
1
1
1
1
1
1
1
1
1
1
1
1
1
1
1
1
1
1
1
1
1
1
1
1
1
1
0.999998
1.0001
1.00513
1.08756
1.48772
2.40743
3.22949
3.69485
3.77787
3.78581
3.79046
3.78387
3.77011
1
1
1
1
1
1
1
1
1
1
1
1
1
1
1
1
1
1
1
1
1
1
1
1
1
1
1
1
1
1
1
1
0.999999
0.999999
1
1.00133
1.02981
1.2289
1.90645
2.84971
3.5489
3.64116
3.67403
3.70705
3.73633
3.7586
3.76789
3.76793
1
1
1
1
1
1
1
1
1
1
1
1
1
1
1
1
1
1
1
1
1
1
1
1
1
1
1
1
1
1
1
1
0.999996
1.00036
1.00933
1.10886
1.58324
2.4637
3.23268
3.48727
3.62891
3.74225
3.74927
3.76116
3.77556
3.78326
3.78668
3.78498
1
1
1
1
1
1
1
1
1
1
1
1
1
1
1
1
1
1
1
1
1
1
1
1
1
1
1
1
1
1
0.999998
1.00011
1.00318
1.05771
1.36294
2.08177
2.90739
3.4493
3.70594
3.76693
3.76689
3.7855
3.78977
3.79115
3.79195
3.79093
3.78834
3.78579
1
1
1
1
1
1
1
1
1
1
1
1
1
1
1
1
1
1
1
1
1
1
1
1
1
1
1
0.999999
0.999997
1.00002
1.00129
1.03446
1.21935
1.83714
2.67779
3.35321
3.70018
3.75049
3.76366
3.76758
3.75661
3.75102
3.75704
3.76621
3.77366
3.7753
3.77635
3.7775
1
1
1
1
1
1
1
1
1
1
1
1
1
1
1
1
1
1
1
1
1
1
1
1
1
0.999998
0.999999
0.999995
1.0008
1.02287
1.14763
1.66976
2.44257
3.27719
3.59429
3.64554
3.67682
3.70163
3.72602
3.73973
3.7439
3.74728
3.75288
3.76183
3.76989
3.77219
3.77407
3.7762
1
1
1
1
1
1
1
1
1
1
1
1
1
1
1
1
1
1
1
1
1
1
1
0.999998
0.999999
0.999989
1.00075
1.01365
1.11993
1.57802
2.31375
3.14272
3.43054
3.56455
3.67959
3.73596
3.73624
3.74778
3.76223
3.77068
3.77572
3.77489
3.77251
3.77165
3.77197
3.77431
3.77701
3.77766
1
1
1
1
1
1
1
1
1
1
1
1
1
1
1
1
1
1
1
1
1
0.999998
0.999999
0.999987
1.00057
1.00886
1.12027
1.50749
2.25635
2.96009
3.41251
3.65682
3.73911
3.74839
3.76068
3.77014
3.77161
3.77487
3.78224
3.78669
3.78675
3.78339
3.78058
3.7765
3.77201
3.77074
3.77085
3.77082
1
1
1
1
1
1
1
1
1
1
1
1
1
1
1
1
1
1
1
0.999999
0.999999
0.999987
1.00032
1.00958
1.12263
1.45533
2.22763
2.9372
3.48666
3.70415
3.74242
3.74477
3.74881
3.74313
3.74074
3.748
3.75629
3.76646
3.7763
3.77936
3.77803
3.77476
3.77351
3.77179
3.76865
3.76625
3.76688
3.76692
1
1
1
1
1
1
1
1
1
1
1
1
1
1
1
1
1
0.999998
0.999998
0.999985
1.00024
1.01391
1.1061
1.48916
2.24043
2.98417
3.54182
3.64603
3.69896
3.70834
3.70229
3.7045
3.70818
3.71567
3.72716
3.74006
3.75241
3.76416
3.77245
3.77685
3.77756
3.7774
3.77873
3.77881
3.77604
3.77349
3.77372
3.77332
1
1
1
1
1
1
1
1
1
1
1
1
1
1
1
0.999998
0.999998
0.999981
1.0004
1.01266
1.11029
1.57061
2.25811
3.13195
3.48203
3.61941
3.67924
3.69313
3.71584
3.7179
3.71488
3.72056
3.72994
3.74035
3.75181
3.75971
3.76516
3.77004
3.77492
3.78081
3.78241
3.78234
3.78234
3.78086
3.77669
3.77404
3.77358
3.77347
1
1
1
1
1
1
1
1
1
1
1
1
1
0.999998
0.999998
0.999971
1.00065
1.012
1.14891
1.60002
2.3986
3.16575
3.49217
3.69989
3.771
3.77884
3.76352
3.73752
3.73697
3.74056
3.746
3.7515
3.76024
3.76656
3.76626
3.766
3.76582
3.76585
3.76872
3.77485
3.77878
3.77919
3.77835
3.77631
3.77477
3.77413
3.77341
3.774
1
1
1
1
1
1
1
1
1
1
1
0.999998
0.999998
0.999967
1.00046
1.01792
1.20379
1.66041
2.56571
3.20694
3.71382
3.878
3.87648
3.84861
3.79184
3.75786
3.73525
3.71867
3.71971
3.72932
3.74392
3.7634
3.77024
3.77378
3.77274
3.771
3.7684
3.76554
3.76422
3.7668
3.77167
3.77273
3.77162
3.76985
3.76832
3.76781
3.76614
3.76885
1
1
1
1
1
1
1
1
1
0.999997
0.999998
0.999955
1.00069
1.03273
1.21109
1.81536
2.70377
3.43726
3.92119
3.92384
3.87419
3.82989
3.78414
3.74347
3.71109
3.6929
3.68801
3.69217
3.71245
3.73632
3.75398
3.76736
3.77321
3.77464
3.77439
3.77413
3.77283
3.77064
3.76994
3.77186
3.77592
3.77684
3.77465
3.77174
3.76803
3.76358
3.76011
3.76247
1
1
1
1
1
1
1
1
1
0.999925
1.00214
1.04424
1.28982
2.00196
2.81905
3.74203
3.98452
4.01936
3.98499
3.92136
3.8067
3.73668
3.69257
3.67029
3.671
3.68146
3.69515
3.71371
3.73327
3.74874
3.76187
3.77209
3.77692
3.77812
3.77764
3.77713
3.77671
3.7757
3.77549
3.77748
3.78165
3.78551
3.78633
3.78442
3.78111
3.77511
3.76869
3.76783
1
1
1
1
0.999998
0.999995
1.00004
1.00007
1.00587
1.06759
1.42924
2.129
3.20187
3.82853
4.03002
4.02687
3.93299
3.87919
3.82701
3.76066
3.74114
3.71552
3.70092
3.70528
3.71913
3.7347
3.74609
3.75785
3.76772
3.77385
3.77909
3.7812
3.78066
3.77934
3.77531
3.77101
3.76853
3.76649
3.76604
3.76774
3.77168
3.77728
3.78158
3.78216
3.78021
3.7769
3.77257
3.77123
1
0.999978
1.00005
1.0001
1.00135
1.01317
1.06289
1.21954
1.60753
2.33752
3.33294
3.9037
4.31134
4.32748
4.26108
4.11931
3.95668
3.77203
3.66866
3.66495
3.67522
3.69462
3.72841
3.75721
3.76533
3.76752
3.76666
3.76498
3.76738
3.77057
3.77242
3.77409
3.77354
3.7721
3.76882
3.7642
3.76053
3.75925
3.75982
3.76175
3.76591
3.77318
3.78091
3.784
3.7843
3.78342
3.77976
3.77711
1.00246
1.01487
1.06886
1.20752
1.40943
1.76635
2.2196
2.75573
3.3111
3.737
3.90625
4.03503
4.04113
3.96275
3.84632
3.77764
3.73878
3.71056
3.67422
3.66632
3.67601
3.69881
3.72685
3.74842
3.75614
3.75683
3.75513
3.75831
3.75924
3.75982
3.76283
3.76874
3.7738
3.77793
3.77905
3.7774
3.7738
3.77008
3.76884
3.76921
3.7705
3.77401
3.77814
3.77912
3.77887
3.77731
3.77256
3.7696
1.28975
1.7509
2.33451
2.888
3.54471
4.19382
4.65148
5.09825
5.34426
5.26715
4.9448
4.46718
4.06118
3.78603
3.6686
3.58399
3.56243
3.58312
3.61573
3.649
3.68565
3.7101
3.72669
3.73428
3.73991
3.74699
3.75593
3.76276
3.76481
3.76622
3.77205
3.78446
3.79585
3.79906
3.79786
3.79371
3.78497
3.7756
3.76993
3.76778
3.7676
3.76748
3.76868
3.77023
3.77053
3.7701
3.76707
3.76508
2.66301
1.70243
1.05473
0.861652
0.756346
0.659192
0.662839
0.726188
0.795089
0.831235
0.875314
0.96086
1.02382
1.02607
1.02584
1.04463
1.05606
1.05605
1.06023
1.0674
1.06953
1.06829
1.06856
1.07082
1.06706
1.04898
1.04019
1.04142
1.04432
1.04535
1.04408
1.04253
1.04118
1.03898
1.03803
1.03847
1.04057
1.04586
1.04943
1.05
1.05008
1.04924
1.04661
1.04593
1.04654
1.0476
1.04931
1.05137
1.05864
1.20771
1.93382
3.3058
5.22085
7.87065
10.2993
10.0733
9.24254
8.26052
8.07806
8.02275
7.85272
7.57581
7.31039
7.15052
7.03521
6.94033
6.84754
6.73832
6.60252
6.35746
6.05067
5.89923
5.82535
5.77804
5.7583
5.69675
5.60885
5.44895
5.16087
4.95101
4.88404
4.84405
4.85098
4.87251
4.82884
4.76772
4.64979
4.41157
4.21075
4.13961
4.09443
4.05626
4.03252
4.00155
3.95987
3.88504
3.75426
3.65172
3.61013
3.57597
3.54008
3.49858
3.43618
3.325
3.21296
3.17035
3.14741
3.12904
3.11244
3.08881
3.05058
2.97992
2.8782
2.80351
2.76482
2.7372
2.71352
2.6925
2.67155
2.64048
2.58395
2.50467
2.44636
2.41688
2.39549
2.37501
2.35178
2.31785
2.2583
2.21044
2.19689
2.18959
2.181
2.16691
2.14809
2.1108
2.02812
1.95387
1.93532
1.9252
1.91306
1.90172
1.89288
1.88932
1.88466
1.89384
1.94958
2.16285
2.63349
3.30325
3.98115
4.53437
5.04849
5.42855
5.40339
5.31381
5.16593
4.9769
4.81429
4.66047
4.57088
4.53303
4.50182
4.47916
4.45599
4.42766
4.35932
4.26442
4.22841
4.20965
4.20142
4.19559
4.17736
4.15414
4.11608
4.01552
3.86636
3.80192
3.78038
3.7664
3.77445
3.80198
3.78862
3.76799
3.74504
3.69107
3.58877
3.52566
3.50214
3.48227
3.46561
3.42922
3.36052
2.7891
2.16244
1.70096
1.50247
1.28343
1.101
1.06348
1.00982
0.94292
0.916977
0.931414
0.941306
0.943994
0.951194
0.97582
0.996966
1.00522
1.01547
1.03431
1.04991
1.05292
1.0552
1.05726
1.05577
1.04671
1.04316
1.0444
1.04694
1.04871
1.04815
1.04784
1.0474
1.04561
1.0447
1.04453
1.04574
1.04784
1.04824
1.04843
1.04843
1.04721
1.04532
1.04495
1.04476
1.04463
1.04733
1.06084
1.1857
1.89968
2.81438
3.18594
3.90007
4.83805
6.63408
8.02
8.61232
8.43231
8.26338
8.08037
7.84092
7.6045
7.39413
7.20532
7.01375
6.87627
6.78918
6.69624
6.56843
6.38463
6.13658
5.93932
5.83608
5.77061
5.718
5.65818
5.57255
5.44702
5.2429
5.02835
4.91968
4.87088
4.83565
4.8154
4.77865
4.71733
4.61983
4.44608
4.26107
4.1722
4.12415
4.08198
4.03963
3.99874
3.95812
3.90248
3.7974
3.691
3.63729
3.60026
3.56204
3.51791
3.45746
3.3649
3.25953
3.19393
3.15715
3.1285
3.10271
3.08032
3.05311
2.99601
2.89918
2.81854
2.77675
2.74712
2.71998
2.6941
2.66795
2.64134
2.59227
2.51998
2.47051
2.44557
2.42252
2.39969
2.3737
2.33798
2.28337
2.23472
2.21738
2.20769
2.1961
2.1798
2.15739
2.12062
2.05757
1.97946
1.93789
1.9258
1.92186
1.91577
1.91213
1.9149
1.95858
2.08911
2.34277
2.66858
2.9151
3.16331
3.51578
3.9152
4.23173
4.63236
4.82488
4.94408
4.98381
4.93459
4.84295
4.70607
4.60846
4.56617
4.53788
4.51601
4.4885
4.45097
4.38246
4.28556
4.2378
4.21709
4.20661
4.20404
4.183
4.15572
4.11577
4.03592
3.90901
3.82095
3.79199
3.77763
3.77691
3.78803
3.77693
3.75641
3.73121
3.68569
3.60694
3.54744
3.52359
3.50218
3.48295
3.44437
3.66247
3.3386
2.87479
2.3541
1.98418
1.68266
1.38608
1.24225
1.14974
1.02174
0.947377
0.949986
0.944033
0.928512
0.932153
0.942453
0.951524
0.962401
0.978188
1.01077
1.03773
1.04042
1.04149
1.04586
1.04608
1.04241
1.04365
1.04717
1.05271
1.05614
1.05586
1.05412
1.05025
1.04698
1.04647
1.04647
1.04755
1.04771
1.04725
1.04689
1.04527
1.04385
1.04385
1.04388
1.04394
1.04888
1.08989
1.27163
1.96342
3.031
3.29936
3.32669
3.40515
3.55424
4.1582
5.91564
7.89296
8.63953
8.44347
8.04471
7.74168
7.62664
7.48611
7.28412
7.06329
6.84824
6.7217
6.60785
6.46264
6.31803
6.18953
6.03114
5.87351
5.76591
5.68698
5.59495
5.48939
5.37676
5.26706
5.14364
4.99816
4.89242
4.83749
4.78065
4.70956
4.62335
4.52498
4.42
4.31734
4.22083
4.15815
4.1188
4.07625
4.02113
3.95
3.85743
3.75515
3.66478
3.59803
3.55064
3.51037
3.46667
3.41168
3.34987
3.28359
3.213
3.16403
3.13349
3.10583
3.0681
3.01598
2.95115
2.87521
2.81583
2.78482
2.76395
2.74401
2.7175
2.67965
2.62473
2.55956
2.50118
2.46846
2.44234
2.41072
2.37602
2.34969
2.32086
2.28811
2.25145
2.20548
2.1699
2.15594
2.14189
2.12069
2.0898
2.04741
2.00387
1.96415
1.93536
1.92541
1.92545
1.93747
2.02246
2.24512
2.59525
2.89877
3.10732
3.15551
3.14373
3.17118
3.30675
3.5549
3.94597
4.3664
4.68001
4.84816
4.90542
4.85725
4.74907
4.63305
4.58047
4.562
4.53825
4.49986
4.45272
4.39282
4.30168
4.2274
4.19801
4.17771
4.16345
4.13904
4.11349
4.08069
4.02876
3.95314
3.8698
3.82019
3.79964
3.78666
3.77223
3.74967
3.72354
3.69386
3.65464
3.61185
3.57126
3.52687
3.49082
3.46771
3.42538
3.74966
3.61901
3.33139
2.90085
2.48881
2.1472
1.80354
1.58513
1.45089
1.27779
1.1394
1.1098
1.05603
0.978918
0.970724
0.968991
0.953086
0.943015
0.94868
0.966623
0.982929
0.990805
0.997807
1.01204
1.02343
1.02973
1.03687
1.04516
1.05031
1.05226
1.05279
1.0518
1.05045
1.05027
1.05198
1.05565
1.05727
1.05674
1.05498
1.05161
1.04582
1.04223
1.04166
1.04188
1.04732
1.11894
1.51804
2.16743
3.10527
3.48687
3.44933
3.40139
3.38653
3.39254
3.39754
3.72092
5.08024
7.26894
7.81151
7.76543
7.73086
7.68813
7.53825
7.33348
7.13123
6.91809
6.69832
6.53585
6.39362
6.27566
6.18575
6.09776
5.95945
5.77613
5.63132
5.52329
5.42945
5.35899
5.3024
5.22869
5.10816
4.95681
4.80883
4.71605
4.63001
4.54065
4.46722
4.4193
4.37342
4.30284
4.20996
4.10804
4.03989
3.98281
3.90979
3.82133
3.73558
3.6649
3.60692
3.55149
3.4979
3.44776
3.39843
3.34609
3.29151
3.24188
3.19435
3.14596
3.08994
3.03255
2.97187
2.91496
2.87486
2.84575
2.81558
2.77795
2.73229
2.69096
2.6456
2.58707
2.54239
2.51726
2.49232
2.46292
2.42449
2.37743
2.34309
2.32841
2.31106
2.2772
2.22401
2.17131
2.13866
2.12113
2.10337
2.08416
2.0603
2.03221
1.9976
1.95894
1.95229
1.984
2.12592
2.43509
2.80765
3.15285
3.21035
3.21281
3.19074
3.15156
3.14618
3.15207
3.19528
3.3115
3.56801
3.91975
4.28519
4.60393
4.70332
4.67579
4.66627
4.64597
4.63774
4.60146
4.53834
4.48026
4.41889
4.33098
4.24073
4.19268
4.15884
4.13206
4.10584
4.08386
4.06077
4.03115
3.99456
3.94532
3.87614
3.80415
3.77435
3.75559
3.72685
3.69125
3.66376
3.64661
3.62848
3.59429
3.54012
3.49436
3.46837
3.42553
3.76028
3.73059
3.59916
3.30044
2.93381
2.59445
2.21075
1.94091
1.76597
1.5552
1.36105
1.2696
1.18443
1.06279
1.01516
1.00508
0.973154
0.949002
0.953479
0.96529
0.963546
0.961683
0.963647
0.972965
0.989808
1.0063
1.02072
1.03573
1.04241
1.0462
1.0479
1.04667
1.04471
1.04698
1.0548
1.0589
1.05933
1.05879
1.05675
1.05239
1.04612
1.04244
1.0422
1.04576
1.10878
1.64788
2.54613
3.17633
3.51686
3.53998
3.47803
3.39255
3.34086
3.32943
3.3399
3.28905
3.40809
4.34567
6.15811
7.2681
7.70257
7.61184
7.44544
7.29067
7.15794
6.98834
6.71496
6.47486
6.35679
6.26949
6.1771
6.07716
5.96116
5.78455
5.57243
5.46862
5.40619
5.34543
5.27704
5.21042
5.14163
5.00708
4.79635
4.63889
4.56571
4.50913
4.46166
4.41507
4.37047
4.33314
4.26671
4.14305
4.01119
3.92772
3.86335
3.80212
3.74263
3.68482
3.61635
3.53446
3.46804
3.42307
3.38905
3.3611
3.33442
3.29788
3.2387
3.14569
3.05508
2.99036
2.9413
2.89853
2.86221
2.83589
2.81187
2.78303
2.7491
2.69275
2.62265
2.56776
2.53137
2.50191
2.47397
2.44437
2.42031
2.39455
2.35869
2.31936
2.28648
2.25683
2.223
2.18079
2.14003
2.1073
2.08283
2.05821
2.03557
2.02244
2.0108
2.02255
2.09138
2.32653
2.69248
3.03895
3.17625
3.26316
3.29431
3.28567
3.25668
3.22008
3.19359
3.17013
3.13073
3.08744
3.11437
3.22755
3.51672
3.93461
4.3381
4.59296
4.65354
4.66578
4.62328
4.55425
4.49544
4.45862
4.41497
4.36108
4.2869
4.21588
4.14713
4.09341
4.07227
4.05792
4.04783
4.02855
4.00641
3.97815
3.92728
3.84126
3.76743
3.73585
3.70315
3.66792
3.6439
3.62287
3.6017
3.58199
3.55971
3.52201
3.47931
3.41901
3.76137
3.74647
3.70305
3.55108
3.28008
2.98513
2.63032
2.3045
2.08038
1.8572
1.64486
1.51418
1.40436
1.25268
1.1743
1.14168
1.09045
1.02533
1.02063
1.00978
0.984329
0.965002
0.962901
0.961636
0.963934
0.972496
0.990331
1.01022
1.02023
1.02635
1.03337
1.0359
1.03648
1.04226
1.05406
1.05714
1.05765
1.05786
1.05653
1.05109
1.04523
1.04564
1.05414
1.13093
1.62691
2.75676
3.24954
3.50981
3.60397
3.54249
3.42729
3.37042
3.30567
3.26156
3.24864
3.25049
3.18873
3.22844
3.72426
5.15918
6.6485
7.12436
7.27358
7.30125
7.18404
6.98916
6.722
6.45782
6.33573
6.25555
6.17039
6.07289
5.96164
5.80173
5.58109
5.42847
5.36137
5.30736
5.26424
5.20298
5.12722
5.01124
4.80921
4.61406
4.53638
4.49114
4.45339
4.42601
4.38704
4.33331
4.24956
4.10894
3.95853
3.87927
3.83392
3.79798
3.76252
3.7116
3.62233
3.51839
3.459
3.42111
3.38473
3.34756
3.3094
3.26668
3.2063
3.10783
3.01412
2.96086
2.92199
2.88852
2.86322
2.842
2.82202
2.79762
2.7457
2.66345
2.59414
2.55449
2.52616
2.50179
2.478
2.45097
2.41669
2.38092
2.34456
2.30407
2.27215
2.24787
2.22465
2.19523
2.14571
2.08946
2.06326
2.0452
2.03596
2.03951
2.0829
2.24766
2.56589
2.96426
3.23432
3.35687
3.35065
3.35587
3.36269
3.34956
3.32367
3.28767
3.24175
3.1813
3.09957
3.02613
3.0103
3.0122
3.06251
3.23281
3.59447
4.0531
4.34175
4.49361
4.53367
4.51971
4.51601
4.49781
4.44891
4.37874
4.30828
4.24035
4.16669
4.08934
4.05283
4.03771
4.03241
4.03468
4.01325
3.98709
3.94947
3.87743
3.77844
3.71133
3.67629
3.65141
3.63306
3.61546
3.59686
3.57755
3.55119
3.51501
3.47216
3.40653
3.76917
3.75869
3.74783
3.6857
3.52979
3.29138
2.96558
2.67299
2.4188
2.15131
1.92937
1.76814
1.62902
1.47281
1.36893
1.2986
1.21642
1.11589
1.08547
1.05585
1.00878
0.97669
0.97546
0.969986
0.967116
0.972058
0.981709
0.985501
0.987147
0.99093
0.998335
1.00882
1.02029
1.03636
1.05116
1.05379