/*--------------------------------*- C++ -*----------------------------------*\
  =========                 |
  \\      /  F ield         | OpenFOAM: The Open Source CFD Toolbox
   \\    /   O peration     | Website:  https://openfoam.org
    \\  /    A nd           | Version:  7
     \\/     M anipulation  |
\*---------------------------------------------------------------------------*/
FoamFile
{
    version     2.0;
    format      ascii;
    class       volScalarField;
    location    "1.9";
    object      T;
}
// * * * * * * * * * * * * * * * * * * * * * * * * * * * * * * * * * * * * * //

dimensions      [0 0 0 1 0 0 0];

internalField   nonuniform List<scalar> 
18432
(
1
1
1
1
1
1
1
1
1
1
1
1
1
1
1
1
1
1
1
1
1
1
1
1
1
1
1
1
1
1
1
1
1
1
1
1
1
1
1
1
1
1
1
1
1
1
1
1
1
1
1
1
1
1
1
1
1
1
1
1
1
1
1
1
1
1
1
1
1
1
1
1
1
1
1
1
1
1
1
1
1
1
1
1
1
1
1
1
1
1
1
1
1
1
1
1
1
1
1
1
1
1
1
1
1
1
1
1
1
1
1
1
1
1
1
1
1
1
1
1
1
1
1
1
1
1
1
1
1
1
1
1
1
1
1
1
1
1
1
1
1
1
1
1
1
1
1
1
1
1
1
1
1
1
1
1
1
1
1
1
1
1
1
1
1
1
1
1
1
1
1
1
1
1
1
1
1
1
1
1
1
1
1
1
1
1
1
1
1
1
1
1
1
1
1
1
1
1
1
1
1
1
1
1
1
1
1
1
1
1
1
1
1
1
1
1
1
1
1
1
1
1
1
1
1
1
1
1
1
1
1
1
1
1
1
1
1
1
1
1
1
1
1
1
1
1
1
1
1
1
1
1
1
1
1
1
1
1
1
1
1
1
1
1
1
1
1
1
1
1
1
1
1
1
1
1
1
1
1
1
1
1
1
1
1
1
1
1
1
1
1
1
1
1
1
1
1
1
1
1
1
1
1
1
1
1
1
1
1
1
1
1
1
1
1
1
1
1
1
1
1
1
1
1
1
1
1
1
1
1
1
1
1
1
1
1
1
1
1
1
1
1
1
1
1
1
1
1
1
1
1
1
1
1
1
1
1
1
1
1
1
1
1
1
1
1
1
1
1
1
1
1
1
1
1
1
1
1
1
1
1
1
1
1
1
1
1
1
1
1
1
1
1
1
1
1
1
1
1
1
1
1
1
1
1
1
1
1
1
1
1
1
1
1
1
1
1
1
1
1
1
1
1
1
1
1
1
1
1
1
1
1
1
1
1
1
1
1
1
1
1
1
1
1
1
1
1
1
1
1
1
1
1
1
1
1
1
1
1
1
1
1
1
1
1
1
1
1
1
1
1
1
1
1
1
1
1
1
1
1
1
1
1
1
1
1
1
1
1
1
1
1
1
1
1
1
1
1
1
1
1
1
1
1
1
1
1
1
1
1
1
1
1
1
1
1
1
1
1
1
1
1
1
1
1
1
1
1
1
1
1
1
1
1
1
1
1
1
1
1
1
1
1
1
1
1
1
1
1
1
1
1
1
1
1
1
1
1
1
1
1
1
1
1
1
1
1
1
1
1
1
1
1
1
1
1
1
1
1
1
1
1
1
1
1
1
1
1
1
1
1
1
1
1
1
1
1
1
1
1
1
1
1
1
1
1
1
1
1
1
1
1
1
1
1
1
1
1
1
1
1
1
1
1
1
1
1
1
1
1
1
1
1
1
1
1
1
1
1
1
1
1
1
1
1
1
1
1
1
1
1
1
1
1
1
1
1
1
1
1
1
1
1
1
1
1
1
1
1
1
1
1
1
1
1
1
1
1
1
1
1
1
1
1
1
1
1
1
1
1
1
1
1
1
1
1
1
1
1
1
1
1
1
1
1
1
1
1
1
1
1
1
1
1
1
1
1
1
1
1
1
1
1
1
1
1
1
1
1
1
1
1
1
1
1
1
1
1
1
1
1
1
1
1
1
1
1
1
1
1
1
1
1
1
1
1
1
1
1
1
1
1
1
1
1
1
1
1
1
1
1
1
1
1
1
1
1
1
1
1
1
1
1
1
1
1
1
1
1
1
1
1
1
1
1
1
1
1
1
1
1
1
1
1
1
1
1
1
1
1
1
1
1
1
1
1
1
1
1
1
1
1
1
1
1
1
1
1
1
1
1
1
1
1
1
1
1
1
1
1
1
1
1
1
1
1
1
1
1
1
1
1
1
1
1
1
1
1
1
1
1
1
1
1
1
1
1
1
1
1
1
1
1
1
1
1
1
1
1
1
1
1
1
1
1
1
1
1
1
1
1
1
1
1
1
1
1
1
1
1
1
1
1
1
1
1
1
1
1
1
1
1
1
1
1
1
1
1
1
1
1
1
1
1
1
1
1
1
1
1
1
1
1
1
1
1
1
1
1
1
1
1
1
1
1
1
1
1
1
1
1
1
1
1
1
1
1
1
1
1
1
1
1
1
1
1
1
1
1
1
1
1
1
1
1
1
1
1
1
1
1
1
1
1
1
1
1
1
1
1
1
1
1
1
1
1
1
1
1
1
1
1
1
1
1
1
1
1
1
1
1
1
1
1
1
1
1
1
1
1
1
1
1
1
1
1
1
1
1
1
1
1
1
1
1
1
1
1
1
1
1
1
1
1
1
1
1
1
1
1
1
1
1
1
1
1
1
1
1
1
1
1
1
1
1
1
1
1
1
1
1
1
1
1
1
1
1
1
1
1
1
1
1
1
1
1
1
1
1
1
1
1
1
1
1
1
1
1
1
1
1
1
1
1
1
1
1
1
1
1
1
1
1
1
1
1
1
1
1
1
1
1
1
1
1
1
1
1
1
1
1
1
1
1
1
1
1
1
1
1
1
1
1
1
1
1
1
1
1
1
1
1
1
1
1
1
1
1
1
1
1
1
1
1
1
1
1
1
1
1
1
1
1
1
1
1
1
1
1
1
1
1
1
1
1
1
1
1
1
1
1
1
1
1
1
1
1
1
1
1
1
1
1
1
1
1
1
1
1
1
1
1
1
1
1
1
1
1
1
1
1
1
1
1
1
1
1
1
1
1
1
1
1
1
1
1
1
1
1
1
1
1
1
1
1
1
1
1
1
1
1
1
1
1
1
1
1
1
1
1
1
1
1
1
1
1
1
1
1
1
1
1
1
1
1
1
1
1
1
1
1
1
1
1
1
1
1
1
1
1
1
1
1
1
1
1
1
1
1
1
1
1
1
1
1
1
1
1
1
1
1
1
1
1
1
1
1
1
1
1
1
1
1
1
1
1
1
1
1
1
1
1
1
1
1
1
1
1
1
1
1
1
1
1
1
1
1
1
1
1
1
1
1
1
1
1
1
1
1
1
1
1
1
1
1
1
1
1
1
1
1
1
1
1
1
1
1
1
1
1
1
1
1
1
1
1
1
1
1
1
1
1
1
1
1
1
1
1
1
1
1
1
1
1
1
1
1
1
1
1
1
1
1
1
1
1
1
1
1
1
1
1
1
1
1
1
1
1
1
1
1
1
1
1
1
1
1
1
1
1
1
1
1
1
1
1
1
1
1
1
1
1
1
1
1
1
1
1
1
1
1
1
1
1
1
1
1
1
1
1
1
1
1
1
1
1
1
1
1
1
1
1
1
1
1
1
1
1
1
1
1
1
1
1
1
1
1
1
1
1
1
1
1
1
1
1
1
1
1
1
1
1
1
1
1
1
1
1
1
1
1
1
1
1
1
1
1
1
1
1
1
1
1
1
1
1
1
1
1
1
1
1
1
1
1
1
1
1
1
1
1
1
1
1
1
1
1
1
1
1
1
1
1
1
1
1
1
1
1
1
1
1
1
1
1
1
1
1
1
1
1
1
1
1
1
1
1
1
1
1
1
1
1
1
1
1
1
1
1
1
1
1
1
1
1
1
1
1
1
1
1
1
1
1
1
1
1
1
1
1
1
1
1
1
1
1
1
1
1
1
1
1
1
1
1
1
1
1
1
1
1
1
1
1
1
1
1
1
1
1
1
1
1
1
1
1
1
1
1
1
1
1
1
1
1
1
1
1
1
1
1
1
1
1
1
1
1
1
1
1
1
1
1
1
1
1
1
1
1
1
1
1
1
1
1
1
1
1
1
1
1
1
1
1
1
1
1
1
1
1
1
1
1
1
1
1
1
1
1
1
1
1
1
1
1
1
1
1
1
1
1
1
1
1
1
1
1
1
1
1
1
1
1
1
1
1
1
1
1
1
1
1
1
1
1
1
1
1
1
1
1
1
1
1
1
1
1
1
1
1
1
1
1
1
1
1
1
1
1
1
1
1
1
1
1
1
1
1
1
1
1
1
1
1
1
1
1
1
1
1
1
1
1
1
1
1
1
1
1
1
1
1
1
1
1
1
1
1
1
1
1
1
1
1
1
1
1
1
1
1
1
1
1
1
1
1
1
1
1
1
1
1
1
1
1
1
1
1
1
1
1
1
1
1
1
1
1
1
1
1
1
1
1
1
1
1
1
1
1
1
1
1
1
1
1
1
1
1
1
1
1
1
1
1
1
1
1
1
1
1
1
1
1
1
1
1
1
1
1
1
1
1
1
1
1
1
1
1
1
1
1
1
1
1
1
1
1
1
1
1
1
1
1
1
1
1
1
1
1
1
1
1
1
1
1
1
1
1
1
1
1
1
1
1
1
1
1
1
1
1
1
1
1
1
1
1
1
1
1
1
1
1
1
1
1
1
1
1
1
1
1
1
1
1
1
1
1
1
1
1
1
1
1
1
1
1
1
1
1
1
1
1
1
1
1
1
1
1
1
1
1
1
1
1
1
1
1
1
1
1
1
1
1
1
1
1
1
1
1
1
1
1
1
1
1
1
1
1
1
1
1
1
1
1
1
1
1
1
1
1
1
1
1
1
1
1
1
1
1
1
1
1
1
1
1
1
1
1
1
1
1
1
1
1
1
1
1
1
1
1
1
1
1
1
1
1
1
1
1
1
1
1
1
1
1
1
1
1
1
1
1
1
1
1
1
1
1
1
1
1
1
1
1
1
1
1
1
1
1
1
1
1
1
1
1
1
1
1
1
1
1
1
1
1
1
1
1
1
1
1
1
1
1
1
1
1
1
1
1
1
1
1
1
1
1
1
1
1
1
1
1
1
1
1
1
1
1
1
1
1
1
1
1
1
1
1
1
1
1
1
1
1
1
1
1
1
1
1
1
1
1
1
1
1
1
1
1
1
1
1
1
1
1
1
1
1
1
1
1
1
1
1
1
1
1
1
1
1
1
1
1
1
1
1
1
1
1
1
1
1
1
1
1
1
1
1
1
1
1
1
1
1
1
1
1
1
1
1
1
1
1
1
1
1
1
1
1
1
1
1
1
1
1
1
1
1
1
1
1
1
1
1
1
1
1
1
1
1
1
1
1
1
1
1
1
1
1
1
1
1
1
1
1
1
1
1
1
1
1
1
1
1
1
1
1
1
1
1
1
1
1
1
1
1
1
1
1
1
1
1
1
1
1
1
1
1
1
1
1
1
1
1
1
1
1
1
1
1
1
1
1
1
1
1
1
1
1
1
1
1
1
1
1
1
1
1
1
1
1
1
1
1
1
1
1
1
1
1
1
1
1
1
1
1
1
1
1
1
1
1
1
1
1
1
1
1
1
1
1
1
1
1
1
1
1
1
1
1
1
1
1
1
1
1
1
1
1
1
1
1
1
1
1
1
1
1
1
1
1
1
1
1
1
1
1
1
1
1
1
1
1
1
1
1
1
1
1
1
1
1
1
1
1
1
1
1
1
1
1
1
1
1
1
1
1
1
1
1
1
1
1
1
1
1
1
1
1
1
1
1
1
1
1
1
1
1
1
1
1
1
1
1
1
1
1
1
1
1
1
1
1
1
1
1
1
1
1
1
1
1
1
1
1
1
1
1
1
1
1
1
1
1
1
1
1
1
1
1
1
1
1
1
1
1
1
1
1
1
1
1
1
1
1
1
1
1
1
1
1
1
1
1
1
1
1
1
1
1
1
1
1
1
1
1
1
1
1
1
1
1
1
1
1
1
1
1
1
1
1
1
1
1
1
1
1
1
1
1
1
1
1
1
1
1
1
1
1
1
1
1
1
1
1
1
1
1
1
1
1
1
1
1
1
1
1
1
1
1
1
1
1
1
1
1
1
1
1
1
1
1
1
1
1
1
1
1
1
1
1
1
1
1
1
1
1
1
1
1
1
1
1
1
1
1
1
1
1
1
1
1
1
1
1
1
1
1
1
1
1
1
1
1
1
1
1
1
1
1
1
1
1
1
1
1
1
1
1
1
1
1
1
1
1
1
1
1
1
1
1
1
1
1
1
1
1
1
1
1
1
1
1
1
1
1
1
1
1
1
1
1
1
1
1
1
1
1
1
1
1
1
1
1
1
1
1
1
1
1
1
1
1
1
1
1
1
1
1
1
1
1
1
1
1
1
1
1
1
1
1
1
1
1
1
1
1
1
1
1
1
1
1
1
1
1
1
1
1
1
1
1
1
1
1
1
1
1
1
1
1
1
1
1
1
1
1
1
1
1
1
1
1
1
1
1
1
1
1
1
1
1
1
1
1
1
1
1
1
1
1
1
1
1
1
1
1
1
1
1
1
1
1
1
1
1
1
1
1
1
1
1
1
1
1
1
1
1
1
1
1
1
1
1
1
1
1
1
1
1
1
1
1
1
1
1
1
1
1
1
1
1
1
1
1
1
1
1
1
1
1
1
1
1
1
1
1
1
1
1
1
1
1
1
1
1
1
1
1
1
1
1
1
1
1
1
1
1
1
1
1
1
1
1
1
1
1
1
1
1
1
1
1
1
1
1
1
1
1
1
1
1
1
1
1
1
1
1
1
1
1
1
1
1
1
1
1
1
1
1
1
1
1
1
1
1
1
1
1
1
1
1
1
1
1
1
1
1
1
1
1
1
1
1
1
1
1
1
1
1
1
1
1
1
1
1
1
1
1
1
1
1
1
1
1
1
1
1
1
1
1
1
1
1
1
1
1
1
1
1
1
1
1
1
1
1
1
1
1
1
1
1
1
1
1
1
1
1
1
1
1
1
1
1
1
1
1
1
1
1
1
1
1
1
1
1
1
1
1
1
1
1
1
1
1
1
1
1
1
1
1
1
1
1
1
1
1
1
1
1
1
1
1
1
1
1
1
1
1
1
1
1
1
1
1
1
1
1
1
1
1
1
1
1
1.07781
1.17991
1.28805
1.37834
1.47357
1.55999
1.61773
1.66798
1.69625
1.69118
1.66161
1.61258
1.56985
1.53889
1.52683
1.51545
1.51348
1.5161
1.52069
1.52572
1.53074
1.53352
1.53518
1.53612
1.5372
1.5388
1.54069
1.54178
1.54189
1.54199
1.54289
1.54492
1.54666
1.54721
1.54721
1.54692
1.54587
1.54482
1.54446
1.54449
1.54477
1.54498
1.54523
1.54546
1.54561
1.54564
1.54548
1.54546
1.00078
1.00498
1.02375
1.07009
1.12858
1.21511
1.3004
1.37977
1.45145
1.5064
1.53087
1.55389
1.56794
1.56361
1.55418
1.5461
1.54042
1.53629
1.53268
1.53299
1.53441
1.53696
1.53989
1.54213
1.54332
1.54389
1.54424
1.54484
1.54473
1.5446
1.54489
1.54581
1.54673
1.54746
1.5477
1.54752
1.54701
1.54652
1.54647
1.54662
1.54702
1.54761
1.54806
1.54814
1.5481
1.54794
1.54743
1.54772
1
0.999993
1.00001
1.00004
1.00047
1.00457
1.02189
1.07398
1.18391
1.34232
1.50309
1.57887
1.62489
1.62412
1.61526
1.59831
1.57883
1.55661
1.54515
1.54535
1.54673
1.54895
1.55267
1.55515
1.55558
1.55582
1.55583
1.55569
1.55574
1.55559
1.55516
1.55488
1.55477
1.55462
1.55419
1.55345
1.55261
1.55208
1.55192
1.55198
1.55241
1.5532
1.55384
1.5539
1.55367
1.55331
1.55262
1.55337
1
1
1
1
0.999999
0.999999
1.00001
1.00003
1.00212
1.02587
1.15332
1.33071
1.51351
1.59195
1.60657
1.60442
1.59261
1.58698
1.5816
1.57439
1.57132
1.56761
1.56526
1.56472
1.56549
1.56661
1.56749
1.56873
1.56958
1.56951
1.56914
1.56854
1.56803
1.56758
1.56676
1.56573
1.56467
1.56359
1.56295
1.56284
1.56297
1.56323
1.56321
1.56273
1.56178
1.56081
1.55981
1.56063
1
1
1
1
1
1
1
1
1
0.99997
1.00079
1.017
1.10847
1.30336
1.45565
1.58852
1.61712
1.61852
1.61372
1.60548
1.59076
1.58166
1.57558
1.5714
1.57095
1.5716
1.57278
1.57475
1.57657
1.57733
1.57784
1.5785
1.57878
1.57871
1.57826
1.57749
1.57647
1.57534
1.57467
1.57462
1.57473
1.57473
1.57427
1.5732
1.57187
1.57055
1.56912
1.56987
1
1
1
1
1
1
1
1
1
0.999999
0.999999
0.999982
1.00024
1.01223
1.07895
1.25662
1.43541
1.54812
1.60933
1.60814
1.6007
1.59508
1.58911
1.58354
1.58012
1.57864
1.57744
1.57746
1.57879
1.5806
1.58227
1.5841
1.58462
1.58447
1.58399
1.58324
1.58236
1.58155
1.58123
1.58127
1.58138
1.58117
1.58032
1.5792
1.57806
1.57713
1.57618
1.577
1
1
1
1
1
1
1
1
1
1
1
0.999999
0.999999
0.999987
1.00015
1.00653
1.07539
1.21369
1.4046
1.50531
1.57638
1.59776
1.59773
1.595
1.58966
1.58608
1.58221
1.57913
1.57903
1.58013
1.58216
1.58494
1.58578
1.58563
1.58512
1.58436
1.58372
1.58338
1.5833
1.58356
1.58384
1.58368
1.58306
1.58238
1.58191
1.58168
1.58121
1.58171
1
1
1
1
1
1
1
1
1
1
1
1
1
0.999999
0.999999
0.999989
1.00021
1.00428
1.05416
1.19423
1.36633
1.49299
1.53948
1.57087
1.58151
1.58211
1.58009
1.57753
1.57817
1.57897
1.57996
1.58094
1.58223
1.58308
1.58286
1.58257
1.58257
1.58279
1.58349
1.58434
1.58463
1.58453
1.58412
1.58365
1.58353
1.58348
1.58332
1.58336
1
1
1
1
1
1
1
1
1
1
1
1
1
1
1
0.999999
0.999999
0.999993
1.00013
1.00443
1.03973
1.18341
1.33773
1.48082
1.53255
1.55185
1.56287
1.56687
1.57067
1.57094
1.57115
1.57224
1.5738
1.57549
1.57718
1.57845
1.57961
1.58078
1.58185
1.58281
1.58309
1.58312
1.58317
1.58315
1.58294
1.58288
1.58292
1.58283
1
1
1
1
1
1
1
1
1
1
1
1
1
1
1
1
1
0.999999
0.999999
0.999995
1.00007
1.0048
1.03791
1.15722
1.33048
1.45649
1.53451
1.5513
1.55946
1.56293
1.56283
1.56386
1.56514
1.56662
1.56843
1.57074
1.57311
1.57518
1.57676
1.5779
1.5784
1.57884
1.57955
1.58013
1.58037
1.58058
1.58107
1.58096
1
1
1
1
1
1
1
1
1
1
1
1
1
1
1
1
1
1
1
1
1
0.999995
1.0001
1.00326
1.04359
1.14779
1.32344
1.44474
1.52509
1.55453
1.55996
1.56137
1.56317
1.56343
1.56388
1.56557
1.56724
1.56886
1.5706
1.57205
1.57279
1.57331
1.57403
1.5746
1.57497
1.57538
1.57633
1.57644
1
1
1
1
1
1
1
1
1
1
1
1
1
1
1
1
1
1
1
1
1
0.999999
1
0.999995
1.00018
1.00302
1.04176
1.16241
1.32654
1.44499
1.51004
1.54285
1.55469
1.5583
1.56195
1.56366
1.56374
1.56409
1.56531
1.56709
1.56832
1.56896
1.56934
1.56948
1.56962
1.57019
1.57146
1.57185
1
1
1
1
1
1
1
1
1
1
1
1
1
1
1
1
1
1
1
1
1
1
1
0.999999
1
0.999996
1.00024
1.00467
1.0414
1.17972
1.33664
1.4685
1.50897
1.5297
1.54793
1.55557
1.555
1.55603
1.55822
1.5606
1.56263
1.56338
1.56347
1.56356
1.56396
1.56493
1.56663
1.56741
1
1
1
1
1
1
1
1
1
1
1
1
1
1
1
1
1
1
1
1
1
1
1
1
1
0.999999
1
0.999997
1.00025
1.00779
1.0509
1.20136
1.36062
1.48978
1.53301
1.5397
1.54378
1.54673
1.55028
1.55339
1.55529
1.55662
1.55757
1.55821
1.55911
1.56006
1.56169
1.56284
1
1
1
1
1
1
1
1
1
1
1
1
1
1
1
1
1
1
1
1
1
1
1
1
1
1
1
1
0.999999
1.00001
1.00042
1.01168
1.0747
1.23952
1.39928
1.50183
1.54773
1.55156
1.55286
1.55475
1.55465
1.55478
1.55563
1.55597
1.55656
1.55742
1.55896
1.5599
1
1
1
1
1
1
1
1
1
1
1
1
1
1
1
1
1
1
1
1
1
1
1
1
1
1
1
1
1
1
0.999999
1.00003
1.00104
1.01959
1.11966
1.29033
1.43687
1.51283
1.54572
1.55458
1.55572
1.55857
1.55838
1.55773
1.55767
1.55793
1.5587
1.5591
1
1
1
1
1
1
1
1
1
1
1
1
1
1
1
1
1
1
1
1
1
1
1
1
1
1
1
1
1
1
1
1
0.999999
1.00011
1.00313
1.03683
1.18028
1.36227
1.48352
1.51786
1.53874
1.55321
1.55313
1.55377
1.55496
1.55641
1.55787
1.55827
1
1
1
1
1
1
1
1
1
1
1
1
1
1
1
1
1
1
1
1
1
1
1
1
1
1
1
1
1
1
1
1
1
1
1
1.00041
1.01014
1.07622
1.25554
1.42843
1.52972
1.54011
1.54392
1.54687
1.54994
1.55342
1.55592
1.55624
1
1
1
1
1
1
1
1
1
1
1
1
1
1
1
1
1
1
1
1
1
1
1
1
1
1
1
1
1
1
1
1
1
1
1
0.999999
1.00003
1.00165
1.02984
1.15122
1.35473
1.48597
1.54983
1.55618
1.55648
1.55821
1.55815
1.55693
1
1
1
1
1
1
1
1
1
1
1
1
1
1
1
1
1
1
1
1
1
1
1
1
1
1
1
1
1
1
1
1
1
1
1
1
1
1
1.0003
1.0077
1.08549
1.26118
1.43787
1.5156
1.55095
1.56012
1.56026
1.55998
1
1
1
1
1
1
1
1
1
1
1
1
1
1
1
1
1
1
1
1
1
1
1
1
1
1
1
1
1
1
1
1
1
1
1
1
1
1
1
1.00004
1.00229
1.03189
1.18445
1.39111
1.50805
1.5315
1.54576
1.55267
1
1
1
1
1
1
1
1
1
1
1
1
1
1
1
1
1
1
1
1
1
1
1
1
1
1
1
1
1
1
1
1
1
1
1
1
1
1
1
1
1
1.00051
1.0141
1.11303
1.3176
1.48312
1.54443
1.55081
1
1
1
1
1
1
1
1
1
1
1
1
1
1
1
1
1
1
1
1
1
1
1
1
1
1
1
1
1
1
1
1
1
1
1
1
1
1
1
1
1
1
1.00011
1.00533
1.06352
1.25383
1.43561
1.53915
1
1
1
1
1
1
1
1
1
1
1
1
1
1
1
1
1
1
1
1
1
1
1
1
1
1
1
1
1
1
1
1
1
1
1
1
1
1
1
1
1
1
1
1.00003
1.00162
1.03595
1.20348
1.41905
1
1
1
1
1
1
1
1
1
1
1
1
1
1
1
1
1
1
1
1
1
1
1
1
1
1
1
1
1
1
1
1
1
1
1
1
1
1
1
1
1
1
1
1
1
1.00082
1.02213
1.13598
1
1
1
1
1
1
1
1
1
1
1
1
1
1
1
1
1
1
1
1
1
1
1
1
1
1
1
1
1
1
1
1
1
1
1
1
1
1
1
1
1
1
1
1
1
1
1.00036
1.00553
1
1
1
1
1
1
1
1
1
1
1
1
1
1
1
1
1
1
1
1
1
1
1
1
1
1
1
1
1
1
1
1
1
1
1
1
1
1
1
1
1
1
1
1
1
1
1
0.999943
1
1
1
1
1
1
1
1
1
1
1
1
1
1
1
1
1
1
1
1
1
1
1
1
1
1
1
1
1
1
1
1
1
1
1
1
1
1
1
1
1
1
1
1
1
1
1
0.999982
1
1
1
1
1
1
1
1
1
1
1
1
1
1
1
1
1
1
1
1
1
1
1
1
1
1
1
1
1
1
1
1
1
1
1
1
1
1
1
1
1
1
1
1
1
1
1
0.999998
1
1
1
1
1
1
1
1
1
1
1
1
1
1
1
1
1
1
1
1
1
1
1
1
1
1
1
1
1
1
1
1
1
1
1
1
1
1
1
1
1
1
1
1
1
1
1
1
1
1
1
1
1
1
1
1
1
1
1
1
1
1
1
1
1
1
1
1
1
1
1
1
1
1
1
1
1
1
1
1
1
1
1
1
1
1
1
1
1
1
1
1
1
1
1
1
1
1
1
1
1
1
1
1
1
1
1
1
1
1
1
1
1
1
1
1
1
1
1
1
1
1
1
1
1
1
1
1
1
1
1
1
1
1
1
1
1
1
1
1
1
1
1
1
1
1
1
1
1
1
1
1
1
1
1
1
1
1
1
1
1
1
1
1
1
1
1
1
1
1
1
1
1
1
1
1
1
1
1
1
1
1
1
1
1
1
1
1
1
1
1
1
1
1
1
1
1
1
1
1
1
1
1
1
1
1
1
1
1
1
1
1
1
1
1
1
1
1
1
1
1
1
1
1
1
1
1
1
1
1
1
1
1
1
1
1
1
1
1
1
1
1
1
1
1
1
1
1
1
1
1
1
1
1
1
1
1
1
1
1
1
1
1
1
1
1
1
1
1
1
1
1
1
1
1
1
1
1
1
1
1
1
1
1
1
1
1
1
1
1
1
1
1
1
1
1
1
1
1
1
1
1
1
1
1
1
1
1
1
1
1
1
1
1
1
1
1
1
1
1
1
1
1
1
1
1
1
1
1
1
1
1
1
1
1
0.999998
1
1
1
1
1
1
1
1
1
1
1
1
1
1
1
1
1
1
1
1
1
1
1
1
1
1
1
1
1
1
1
1
1
1
1
1
1
1
1
1
1
1
1
1
1
1
1
0.999982
1
1
1
1
1
1
1
1
1
1
1
1
1
1
1
1
1
1
1
1
1
1
1
1
1
1
1
1
1
1
1
1
1
1
1
1
1
1
1
1
1
1
1
1
1
1
1
0.999943
1
1
1
1
1
1
1
1
1
1
1
1
1
1
1
1
1
1
1
1
1
1
1
1
1
1
1
1
1
1
1
1
1
1
1
1
1
1
1
1
1
1
1
1
1
1
1.00036
1.00553
1
1
1
1
1
1
1
1
1
1
1
1
1
1
1
1
1
1
1
1
1
1
1
1
1
1
1
1
1
1
1
1
1
1
1
1
1
1
1
1
1
1
1
1
1
1.00082
1.02211
1.13603
1
1
1
1
1
1
1
1
1
1
1
1
1
1
1
1
1
1
1
1
1
1
1
1
1
1
1
1
1
1
1
1
1
1
1
1
1
1
1
1
1
1
1
1.00003
1.00162
1.03596
1.20338
1.41915
1
1
1
1
1
1
1
1
1
1
1
1
1
1
1
1
1
1
1
1
1
1
1
1
1
1
1
1
1
1
1
1
1
1
1
1
1
1
1
1
1
1
1.00011
1.00533
1.06353
1.25379
1.43562
1.53919
1
1
1
1
1
1
1
1
1
1
1
1
1
1
1
1
1
1
1
1
1
1
1
1
1
1
1
1
1
1
1
1
1
1
1
1
1
1
1
1
1
1.00051
1.01409
1.11304
1.31761
1.48306
1.54448
1.55083
1
1
1
1
1
1
1
1
1
1
1
1
1
1
1
1
1
1
1
1
1
1
1
1
1
1
1
1
1
1
1
1
1
1
1
1
1
1
1
1.00004
1.00229
1.03189
1.18444
1.39115
1.508
1.53148
1.54578
1.55269
1
1
1
1
1
1
1
1
1
1
1
1
1
1
1
1
1
1
1
1
1
1
1
1
1
1
1
1
1
1
1
1
1
1
1
1
1
1
1.0003
1.0077
1.08549
1.26118
1.43787
1.51561
1.55093
1.56012
1.56027
1.55999
1
1
1
1
1
1
1
1
1
1
1
1
1
1
1
1
1
1
1
1
1
1
1
1
1
1
1
1
1
1
1
1
1
1
1
0.999999
1.00003
1.00165
1.02984
1.15122
1.35474
1.48596
1.54983
1.55618
1.55648
1.55821
1.55815
1.55694
1
1
1
1
1
1
1
1
1
1
1
1
1
1
1
1
1
1
1
1
1
1
1
1
1
1
1
1
1
1
1
1
1
1
1
1.00041
1.01014
1.07622
1.25554
1.42843
1.52972
1.54011
1.54391
1.54687
1.54994
1.55343
1.55592
1.55625
1
1
1
1
1
1
1
1
1
1
1
1
1
1
1
1
1
1
1
1
1
1
1
1
1
1
1
1
1
1
1
1
0.999999
1.00011
1.00313
1.03683
1.18028
1.36227
1.48352
1.51786
1.53874
1.55321
1.55313
1.55377
1.55496
1.55641
1.55787
1.55827
1
1
1
1
1
1
1
1
1
1
1
1
1
1
1
1
1
1
1
1
1
1
1
1
1
1
1
1
1
1
0.999999
1.00003
1.00104
1.01959
1.11966
1.29033
1.43687
1.51283
1.54572
1.55458
1.55572
1.55857
1.55838
1.55773
1.55767
1.55793
1.5587
1.5591
1
1
1
1
1
1
1
1
1
1
1
1
1
1
1
1
1
1
1
1
1
1
1
1
1
1
1
1
0.999999
1.00001
1.00042
1.01168
1.0747
1.23952
1.39928
1.50183
1.54773
1.55156
1.55286
1.55475
1.55465
1.55478
1.55563
1.55597
1.55656
1.55742
1.55896
1.5599
1
1
1
1
1
1
1
1
1
1
1
1
1
1
1
1
1
1
1
1
1
1
1
1
1
0.999999
1
0.999997
1.00025
1.00779
1.0509
1.20136
1.36062
1.48978
1.53301
1.5397
1.54378
1.54673
1.55028
1.55339
1.55529
1.55662
1.55757
1.55821
1.55911
1.56006
1.56168
1.56284
1
1
1
1
1
1
1
1
1
1
1
1
1
1
1
1
1
1
1
1
1
1
1
0.999999
1
0.999996
1.00024
1.00467
1.0414
1.17972
1.33664
1.4685
1.50897
1.5297
1.54793
1.55557
1.555
1.55603
1.55822
1.5606
1.56263
1.56338
1.56347
1.56356
1.56396
1.56493
1.56663
1.56741
1
1
1
1
1
1
1
1
1
1
1
1
1
1
1
1
1
1
1
1
1
0.999999
1
0.999995
1.00018
1.00302
1.04175
1.16241
1.32654
1.44499
1.51004
1.54285
1.55469
1.5583
1.56195
1.56366
1.56374
1.56409
1.56531
1.56709
1.56832
1.56896
1.56934
1.56948
1.56962
1.57019
1.57146
1.57185
1
1
1
1
1
1
1
1
1
1
1
1
1
1
1
1
1
1
1
1
1
0.999995
1.0001
1.00326
1.04359
1.14779
1.32344
1.44474
1.52509
1.55453
1.55996
1.56137
1.56317
1.56343
1.56388
1.56557
1.56724
1.56886
1.5706
1.57205
1.57279
1.57331
1.57403
1.5746
1.57497
1.57538
1.57633
1.57644
1
1
1
1
1
1
1
1
1
1
1
1
1
1
1
1
1
0.999999
0.999999
0.999995
1.00007
1.0048
1.03791
1.15722
1.33048
1.45649
1.53451
1.5513
1.55946
1.56293
1.56283
1.56386
1.56514
1.56662
1.56843
1.57074
1.57311
1.57518
1.57676
1.5779
1.5784
1.57884
1.57955
1.58013
1.58037
1.58058
1.58107
1.58096
1
1
1
1
1
1
1
1
1
1
1
1
1
1
1
0.999999
0.999999
0.999993
1.00013
1.00443
1.03973
1.18341
1.33773
1.48082
1.53255
1.55185
1.56287
1.56687
1.57067
1.57094
1.57115
1.57224
1.5738
1.57549
1.57718
1.57845
1.57961
1.58078
1.58185
1.58281
1.58309
1.58312
1.58317
1.58315
1.58294
1.58288
1.58292
1.58283
1
1
1
1
1
1
1
1
1
1
1
1
1
0.999999
0.999999
0.999989
1.00021
1.00428
1.05416
1.19423
1.36633
1.49299
1.53948
1.57087
1.58151
1.58211
1.58009
1.57753
1.57817
1.57897
1.57996
1.58094
1.58223
1.58308
1.58286
1.58257
1.58257
1.58279
1.58349
1.58434
1.58463
1.58453
1.58412
1.58365
1.58353
1.58348
1.58332
1.58336
1
1
1
1
1
1
1
1
1
1
1
0.999999
0.999999
0.999987
1.00015
1.00653
1.07539
1.21369
1.4046
1.50531
1.57638
1.59776
1.59773
1.595
1.58966
1.58608
1.58221
1.57913
1.57903
1.58013
1.58216
1.58494
1.58578
1.58563
1.58512
1.58436
1.58372
1.58338
1.5833
1.58356
1.58384
1.58368
1.58306
1.58238
1.58191
1.58168
1.58121
1.58171
1
1
1
1
1
1
1
1
1
0.999999
0.999999
0.999982
1.00024
1.01223
1.07895
1.25662
1.43541
1.54812
1.60933
1.60814
1.6007
1.59508
1.58911
1.58354
1.58012
1.57864
1.57744
1.57746
1.57879
1.5806
1.58227
1.5841
1.58462
1.58447
1.58399
1.58324
1.58236
1.58155
1.58123
1.58127
1.58138
1.58117
1.58032
1.5792
1.57806
1.57713
1.57618
1.577
1
1
1
1
1
1
1
1
1
0.99997
1.00079
1.017
1.10847
1.30336
1.45565
1.58852
1.61712
1.61852
1.61372
1.60548
1.59076
1.58166
1.57558
1.5714
1.57095
1.5716
1.57278
1.57475
1.57657
1.57733
1.57784
1.5785
1.57878
1.57871
1.57826
1.57749
1.57647
1.57534
1.57467
1.57462
1.57473
1.57473
1.57427
1.5732
1.57187
1.57055
1.56912
1.56987
1
1
1
1
0.999999
0.999999
1.00001
1.00003
1.00212
1.02587
1.15332
1.33071
1.51351
1.59195
1.60657
1.60442
1.59261
1.58698
1.5816
1.57439
1.57132
1.56761
1.56526
1.56472
1.56549
1.56661
1.56749
1.56873
1.56958
1.56951
1.56914
1.56854
1.56803
1.56758
1.56676
1.56573
1.56467
1.56359
1.56295
1.56284
1.56297
1.56323
1.56321
1.56273
1.56178
1.56081
1.55981
1.56063
1
0.999993
1.00001
1.00004
1.00047
1.00457
1.02189
1.07398
1.18391
1.34232
1.50309
1.57887
1.62489
1.62412
1.61526
1.59831
1.57883
1.55661
1.54515
1.54535
1.54673
1.54895
1.55267
1.55515
1.55558
1.55582
1.55583
1.55569
1.55574
1.55559
1.55516
1.55488
1.55477
1.55462
1.55419
1.55345
1.55261
1.55208
1.55192
1.55198
1.55241
1.5532
1.55384
1.5539
1.55367
1.55331
1.55262
1.55337
1.00078
1.00498
1.02375
1.07009
1.12858
1.21511
1.3004
1.37977
1.45145
1.5064
1.53087
1.55389
1.56794
1.56361
1.55418
1.5461
1.54042
1.53629
1.53268
1.53299
1.53441
1.53696
1.53989
1.54213
1.54332
1.54389
1.54424
1.54484
1.54473
1.5446
1.54489
1.54581
1.54673
1.54746
1.5477
1.54752
1.54701
1.54652
1.54647
1.54662
1.54702
1.54761
1.54806
1.54814
1.5481
1.54794
1.54743
1.54772
1.07781
1.17991
1.28805
1.37834
1.47357
1.55999
1.61773
1.66798
1.69625
1.69118
1.66161
1.61258
1.56985
1.53889
1.52683
1.51545
1.51348
1.5161
1.52069
1.52572
1.53074
1.53352
1.53518
1.53612
1.5372
1.5388
1.54069
1.54178
1.54189
1.54199
1.54289
1.54492
1.54666
1.54721
1.54721
1.54692
1.54587
1.54482
1.54446
1.54449
1.54477
1.54498
1.54523
1.54546
1.54561
1.54564
1.54548
1.54546
1.40336
1.24017
1.08417
1.03243
1.01359
0.991636
0.995784
1.02789
1.05142
1.05633
1.06637
1.09387
1.11449
1.1148
1.11361
1.11678
1.11621
1.11529
1.11708
1.12015
1.11974
1.11853
1.11742
1.11699
1.1153
1.10988
1.10702
1.10715
1.10711
1.10687
1.10592
1.10505
1.10459
1.10376
1.10316
1.10317
1.10345
1.10461
1.10525
1.10519
1.105
1.10437
1.10321
1.10289
1.1029
1.10291
1.10294
1.10352
1.10581
1.15561
1.35964
1.59903
1.81589
2.04703
2.24062
2.23276
2.17863
2.10243
2.09002
2.08913
2.07866
2.05702
2.03524
2.02329
2.01528
2.0083
2.00131
1.99241
1.98057
1.95868
1.93167
1.91887
1.91289
1.90922
1.90784
1.90227
1.8937
1.87779
1.84863
1.82673
1.81953
1.81529
1.8161
1.81847
1.81402
1.80749
1.79452
1.76755
1.74433
1.73623
1.73124
1.72705
1.72449
1.7211
1.71674
1.70846
1.69227
1.67835
1.67221
1.66716
1.66205
1.6564
1.64805
1.63294
1.61759
1.61162
1.60819
1.60518
1.60221
1.59835
1.59255
1.58202
1.56674
1.55552
1.54991
1.54584
1.54222
1.53894
1.53554
1.53037
1.52073
1.50689
1.4968
1.49189
1.48815
1.48442
1.48014
1.47374
1.46267
1.45408
1.45182
1.4506
1.44915
1.44658
1.44289
1.43536
1.41867
1.4038
1.40034
1.39851
1.39632
1.39434
1.39292
1.39244
1.39153
1.39324
1.40523
1.44991
1.53621
1.64017
1.73192
1.79914
1.85663
1.89734
1.89498
1.88507
1.86841
1.84818
1.8313
1.81558
1.80634
1.80254
1.7994
1.79702
1.7942
1.79064
1.78256
1.77141
1.76665
1.76376
1.76237
1.76165
1.76024
1.75862
1.75499
1.74267
1.72306
1.7139
1.71061
1.70855
1.70946
1.71306
1.71168
1.71006
1.70847
1.70288
1.68986
1.68116
1.6776
1.67419
1.67113
1.66561
1.50001
1.42469
1.32395
1.23325
1.19301
1.14387
1.09638
1.0908
1.076
1.05765
1.05571
1.06213
1.06802
1.06957
1.07203
1.07858
1.08401
1.0869
1.09109
1.0983
1.10336
1.10382
1.10404
1.10424
1.10379
1.10139
1.1007
1.10107
1.10132
1.10136
1.10091
1.10083
1.1009
1.10052
1.10004
1.09985
1.1
1.10035
1.10035
1.10034
1.10021
1.09952
1.09869
1.09851
1.09841
1.09818
1.09915
1.10359
1.14413
1.33899
1.53454
1.58095
1.66809
1.77468
1.9546
2.08048
2.13151
2.12046
2.11035
2.09883
2.08211
2.06344
2.04632
2.03156
2.0169
2.00639
1.99938
1.99174
1.98067
1.96426
1.94204
1.92469
1.91606
1.91068
1.90621
1.90063
1.89215
1.8795
1.85858
1.8364
1.82504
1.81998
1.81635
1.81424
1.81035
1.8036
1.79273
1.77306
1.75169
1.74151
1.73619
1.7317
1.72696
1.72209
1.71727
1.7109
1.69818
1.68431
1.67663
1.67105
1.66559
1.65978
1.65203
1.6397
1.62516
1.61582
1.6103
1.60578
1.60147
1.59762
1.59332
1.58494
1.57078
1.55861
1.55248
1.54815
1.54403
1.53979
1.53539
1.53095
1.5228
1.51039
1.50168
1.49739
1.49327
1.48908
1.4845
1.47815
1.4681
1.45924
1.45613
1.45419
1.45206
1.44918
1.44502
1.43791
1.42519
1.40934
1.40105
1.39897
1.39854
1.39758
1.39719
1.39799
1.40745
1.43489
1.48479
1.5419
1.58096
1.61993
1.67238
1.72722
1.76594
1.8124
1.83323
1.84539
1.84992
1.84492
1.83605
1.82256
1.81239
1.80793
1.80494
1.80257
1.79931
1.7947
1.78649
1.77499
1.7689
1.76577
1.76393
1.7634
1.76136
1.75931
1.75564
1.74619
1.72976
1.71768
1.71331
1.71107
1.71078
1.71209
1.71091
1.70921
1.70728
1.70269
1.69271
1.68452
1.68092
1.67729
1.67387
1.66809
1.53826
1.49772
1.43498
1.35545
1.29208
1.23156
1.16298
1.12857
1.10481
1.06991
1.04865
1.05067
1.04917
1.04506
1.04639
1.05008
1.05353
1.05751
1.06291
1.07326
1.08173
1.08286
1.08334
1.08494
1.08605
1.08619
1.0872
1.08871
1.09044
1.09152
1.09148
1.09118
1.09039
1.08982
1.08983
1.08984
1.09013
1.09017
1.09011
1.09015
1.08974
1.0892
1.08919
1.08921
1.08939
1.09148
1.10566
1.16423
1.33528
1.53499
1.5984
1.59935
1.60473
1.62187
1.7046
1.90975
2.10097
2.15473
2.13861
2.10643
2.083
2.07515
2.06481
2.04817
2.02943
2.01197
2.00159
1.99195
1.9793
1.96654
1.95467
1.93996
1.92566
1.91615
1.90906
1.90012
1.88935
1.87775
1.86638
1.85316
1.83817
1.82739
1.82168
1.81564
1.80782
1.79825
1.78686
1.77471
1.76258
1.75133
1.74399
1.73941
1.73427
1.72763
1.719
1.7075
1.69429
1.68221
1.67321
1.6668
1.66137
1.6557
1.64879
1.64081
1.63145
1.62115
1.61361
1.60856
1.6039
1.59772
1.5896
1.58003
1.56889
1.56
1.55537
1.55239
1.54929
1.5446
1.5383
1.52946
1.51884
1.50898
1.50304
1.49793
1.49192
1.48582
1.48135
1.47652
1.47076
1.46382
1.45504
1.44853
1.44592
1.44327
1.4393
1.43343
1.42494
1.41554
1.40732
1.40175
1.40008
1.40021
1.40303
1.4214
1.46708
1.53208
1.58217
1.61217
1.61976
1.61907
1.62501
1.64755
1.6834
1.73534
1.78737
1.82279
1.842
1.84727
1.84211
1.83079
1.81875
1.813
1.81105
1.80868
1.80455
1.79876
1.7908
1.77904
1.76975
1.76608
1.76325
1.76126
1.75857
1.75647
1.75359
1.74797
1.73841
1.72734
1.72021
1.71688
1.71464
1.71253
1.70979
1.70718
1.70441
1.70027
1.6949
1.68904
1.68238
1.6767
1.67288
1.66681
1.55587
1.53761
1.49967
1.44036
1.37921
1.32058
1.25367
1.20969
1.17957
1.13632
1.09799
1.09009
1.075
1.05298
1.05135
1.05136
1.0469
1.04474
1.04669
1.05211
1.05694
1.05931
1.06147
1.06578
1.06981
1.07273
1.07558
1.07816
1.07965
1.08078
1.08141
1.08133
1.08118
1.08128
1.08215
1.08347
1.08397
1.08386
1.08349
1.08269
1.0811
1.08028
1.08033
1.08062
1.08271
1.10667
1.23278
1.37851
1.52959
1.60419
1.61464
1.61373
1.61166
1.61069
1.61148
1.6614
1.84654
2.06839
2.10844
2.09925
2.09571
2.09325
2.08269
2.06578
2.04794
2.02991
2.01149
1.997
1.98391
1.97293
1.96448
1.9561
1.94314
1.92595
1.91183
1.90087
1.89101
1.88323
1.87716
1.86941
1.85704
1.84133
1.82568
1.8154
1.80569
1.79542
1.78676
1.78113
1.77572
1.76745
1.75629
1.74331
1.73451
1.72771
1.71884
1.70713
1.69511
1.68535
1.67788
1.67112
1.66449
1.65805
1.65179
1.64505
1.63735
1.62983
1.62223
1.61411
1.60514
1.59622
1.58679
1.57802
1.57193
1.56767
1.56291
1.55677
1.54923
1.54225
1.53482
1.52521
1.51759
1.51328
1.50891
1.50337
1.49648
1.48837
1.482
1.47937
1.47657
1.47064
1.46094
1.45144
1.44521
1.44168
1.43809
1.43413
1.4295
1.42348
1.41604
1.40829
1.40736
1.41433
1.44404
1.50377
1.56965
1.623
1.63112
1.63064
1.62812
1.62442
1.62505
1.62703
1.63491
1.65317
1.69047
1.73753
1.78336
1.8205
1.83107
1.82756
1.8272
1.82543
1.82427
1.82001
1.81322
1.80631
1.79801
1.78629
1.77496
1.76935
1.76557
1.76235
1.75928
1.75717
1.75517
1.75237
1.74814
1.74159
1.73195
1.72168
1.71721
1.71445
1.71067
1.70638
1.70337
1.70149
1.69939
1.69474
1.68685
1.6799
1.67586
1.66992
1.5662
1.55975
1.54052
1.50002
1.44926
1.39736
1.33189
1.2843
1.251
1.20514
1.15821
1.13544
1.11292
1.07906
1.06557
1.06254
1.0524
1.04547
1.0472
1.05132
1.0509
1.05018
1.05067
1.05334
1.05838
1.06339
1.06774
1.07213
1.07398
1.07506
1.07619
1.07612
1.07585
1.07662
1.07907
1.08052
1.08077
1.08072
1.08039
1.07945
1.07775
1.07684
1.07688
1.07811
1.09853
1.26023
1.46685
1.55876
1.60481
1.62078
1.61949
1.61737
1.61416
1.61241
1.61285
1.60523
1.62467
1.76685
1.97563
2.08029
2.11118
2.10212
2.08609
2.07245
2.06177
2.04778
2.02402
2.00168
1.98981
1.98113
1.97237
1.96324
1.9525
1.93521
1.91378
1.90246
1.89548
1.88882
1.88156
1.87487
1.86769
1.85328
1.83066
1.81316
1.80442
1.79761
1.79222
1.78687
1.78142
1.77662
1.76852
1.75357
1.73752
1.72701
1.71835
1.70984
1.70163
1.69363
1.6841
1.67308
1.66443
1.65864
1.6543
1.65084
1.64721
1.64159
1.63254
1.61843
1.60453
1.59432
1.58635
1.5793
1.57356
1.56964
1.56591
1.56097
1.55498
1.54584
1.53404
1.52406
1.51713
1.51173
1.50692
1.50211
1.49837
1.49374
1.48707
1.48002
1.47443
1.46948
1.46366
1.45576
1.44786
1.44131
1.43624
1.43117
1.42654
1.42388
1.42131
1.4238
1.43841
1.48599
1.55217
1.60785
1.62927
1.64088
1.6473
1.64656
1.64327
1.63939
1.63621
1.63323
1.62843
1.62338
1.62774
1.64503
1.6873
1.74395
1.79453
1.82492
1.83271
1.8333
1.82789
1.81908
1.81191
1.8073
1.80177
1.79476
1.78531
1.77644
1.76835
1.76229
1.76004
1.75871
1.75816
1.75662
1.75424
1.75035
1.74293
1.73087
1.72083
1.71635
1.71175
1.70701
1.70386
1.70109
1.69854
1.69619
1.69303
1.68746
1.68133
1.67305
1.57439
1.5703
1.56233
1.54046
1.50324
1.46053
1.4061
1.35443
1.31518
1.27061
1.22587
1.19827
1.17263
1.13356
1.1128
1.1039
1.08902
1.06934
1.06847
1.06585
1.0588
1.05262
1.05151
1.05093
1.05162
1.05433
1.06013
1.0662
1.06906
1.07078
1.07298
1.07405
1.07428
1.07588
1.07904
1.07999
1.0804
1.08068
1.08053
1.07935
1.07772
1.07772
1.08025
1.10497
1.24666
1.49878
1.59366
1.62506
1.63724
1.62939
1.61775
1.61851
1.61573
1.61033
1.60737
1.60598
1.59474
1.60132
1.68222
1.87363
2.02858
2.068
2.07625
2.07799
2.06847
2.05204
2.02873
2.00458
1.99268
1.98466
1.97651
1.96761
1.95732
1.94196
1.91978
1.90356
1.89591
1.89009
1.88544
1.87889
1.87085
1.85881
1.83682
1.81484
1.80577
1.8003
1.7956
1.79197
1.78693
1.78012
1.77009
1.75362
1.73529
1.72491
1.71875
1.71388
1.70906
1.70187
1.68934
1.67477
1.66637
1.66112
1.65603
1.65085
1.64569
1.63969
1.63103
1.61667
1.60193
1.59298
1.58649
1.5811
1.57707
1.57381
1.57077
1.56683
1.55831
1.54467
1.53203
1.52409
1.51845
1.51393
1.5099
1.50572
1.50017
1.49381
1.4877
1.48095
1.47529
1.47087
1.46661
1.46104
1.45133
1.43995
1.43451
1.43086
1.42877
1.42957
1.43853
1.47174
1.53113
1.5984
1.64008
1.65872
1.65878
1.66024
1.66212
1.66063
1.65767
1.65333
1.64725
1.63864
1.62689
1.61612
1.61363
1.61394
1.6218
1.64794
1.70077
1.76339
1.79993
1.82
1.82135
1.81902
1.81744
1.81475
1.80906
1.80076
1.79192
1.78318
1.77383
1.76483
1.76123
1.75996
1.7596
1.76009
1.75765
1.75416
1.74884
1.73896
1.7254
1.71627
1.71146
1.708
1.70546
1.70319
1.70092
1.69844
1.6948
1.68967
1.68363
1.67453
1.58049
1.57774
1.57482
1.56495
1.54315
1.50992
1.46292
1.4196
1.37848
1.33028
1.28851
1.25747
1.22753
1.19082
1.16643
1.14945
1.12785
1.09926
1.09108
1.083
1.06976
1.05988
1.05905
1.05679
1.05574
1.05737
1.06065
1.06205
1.06274
1.064
1.06635
1.06958
1.07295
1.07741
1.08104
1.08161
1.082
1.08251
1.08238
1.08057
1.07957
1.08493
1.14171
1.27773
1.50191
1.61631
1.64131
1.64477
1.64586
1.6382
1.61888
1.61122
1.6104
1.6071
1.60245
1.59852
1.59342
1.583
1.57628
1.61276
1.76519
1.94672