/*--------------------------------*- C++ -*----------------------------------*\
  =========                 |
  \\      /  F ield         | OpenFOAM: The Open Source CFD Toolbox
   \\    /   O peration     | Website:  https://openfoam.org
    \\  /    A nd           | Version:  7
     \\/     M anipulation  |
\*---------------------------------------------------------------------------*/
FoamFile
{
    version     2.0;
    format      ascii;
    class       volVectorField;
    location    "1.9";
    object      U;
}
// * * * * * * * * * * * * * * * * * * * * * * * * * * * * * * * * * * * * * //

dimensions      [0 1 -1 0 0 0 0];

internalField   nonuniform List<vector> 
18432
(
(3 1.02181e-16 0)
(3 2.7518e-16 0)
(3 5.20727e-16 0)
(3 8.61886e-16 0)
(3 6.10128e-16 0)
(3 3.68812e-16 0)
(3 -4.13373e-16 0)
(3 3.36178e-16 0)
(3 8.40984e-16 0)
(3 1.0193e-15 0)
(3 2.3464e-16 0)
(3 -9.71189e-16 0)
(3 -1.0196e-15 0)
(3 -1.79203e-16 0)
(3 7.15181e-18 0)
(3 1.27628e-16 0)
(3 -1.50869e-16 0)
(3 -7.58455e-17 0)
(3 3.94338e-16 0)
(3 6.22178e-16 0)
(3 8.31694e-16 0)
(3 3.44005e-16 0)
(3 2.25807e-16 0)
(3 4.71478e-16 0)
(3 2.64741e-16 0)
(3 -2.70384e-16 0)
(3 -1.07902e-16 0)
(3 -2.76634e-16 0)
(3 -4.4382e-16 0)
(3 -4.83759e-16 0)
(3 1.37762e-16 0)
(3 -8.89916e-17 0)
(3 -2.68653e-16 0)
(3 -4.75324e-16 0)
(3 -7.39152e-16 0)
(3 -1.04277e-15 0)
(3 -1.32721e-15 0)
(3 -1.95583e-15 0)
(3 -1.43616e-15 0)
(3 -1.07734e-15 0)
(3 -8.76316e-16 0)
(3 -1.01032e-15 0)
(3 -1.52161e-15 0)
(3 -1.60414e-15 0)
(3 -1.31596e-15 0)
(3 -1.42017e-15 0)
(3 -9.13183e-16 0)
(3 -2.88529e-16 0)
(3 3.14222e-17 0)
(3 -4.39035e-17 0)
(3 5.67821e-18 0)
(3 4.39554e-16 0)
(3 6.61728e-16 0)
(3 3.57291e-16 0)
(3 -8.50332e-16 0)
(3 -2.05326e-16 0)
(3 7.36065e-16 0)
(3 5.2518e-16 0)
(3 2.03358e-16 0)
(3 -6.60057e-16 0)
(3 -1.05756e-15 0)
(3 -5.18636e-16 0)
(3 -4.53629e-16 0)
(3 -6.05369e-16 0)
(3 -1.18861e-15 0)
(3 -1.15496e-15 0)
(3 -3.86756e-16 0)
(3 3.17439e-16 0)
(3 1.49739e-15 0)
(3 5.35765e-16 0)
(3 3.32475e-16 0)
(3 -1.25398e-16 0)
(3 -1.72175e-16 0)
(3 -9.19921e-17 0)
(3 -8.00911e-17 0)
(3 -5.84775e-16 0)
(3 -4.76534e-16 0)
(3 3.08455e-16 0)
(3 9.44794e-16 0)
(3 7.65051e-16 0)
(3 3.59347e-16 0)
(3 -9.04171e-16 0)
(3 -1.97499e-15 0)
(3 -3.4312e-15 0)
(3 -4.2528e-15 0)
(3 -3.74557e-15 0)
(3 -1.82947e-15 0)
(3 -1.02021e-15 0)
(3 4.15722e-17 0)
(3 -1.04567e-15 0)
(3 -3.92705e-15 0)
(3 -3.72304e-15 0)
(3 -2.00692e-15 0)
(3 -1.81421e-15 0)
(3 -1.5688e-15 0)
(3 -6.58769e-16 0)
(3 -1.66396e-16 0)
(3 -2.48793e-16 0)
(3 -2.74238e-16 0)
(3 -2.02859e-16 0)
(3 -1.9082e-16 0)
(3 -3.24871e-16 0)
(3 -4.54671e-16 0)
(3 -3.91635e-16 0)
(3 1.02632e-17 0)
(3 3.04323e-16 0)
(3 8.9984e-16 0)
(3 7.11315e-16 0)
(3 6.20259e-16 0)
(3 -4.03754e-16 0)
(3 -5.70607e-16 0)
(3 -1.47336e-15 0)
(3 -1.84774e-15 0)
(3 -1.74777e-15 0)
(3 -6.63058e-16 0)
(3 5.44109e-16 0)
(3 1.03862e-15 0)
(3 1.32496e-15 0)
(3 6.03351e-16 0)
(3 3.33339e-16 0)
(3 7.6036e-16 0)
(3 6.78003e-16 0)
(3 6.12744e-17 0)
(3 2.62432e-17 0)
(3 5.31305e-16 0)
(3 1.30083e-15 0)
(3 1.13347e-15 0)
(3 5.28053e-16 0)
(3 -5.36854e-16 0)
(3 -1.1972e-15 0)
(3 -1.62375e-15 0)
(3 -3.13212e-15 0)
(3 -4.46511e-15 0)
(3 -4.68968e-15 0)
(3 -3.8818e-15 0)
(3 -2.58231e-15 0)
(3 -2.22443e-15 0)
(3 -2.98877e-15 0)
(3 -3.31677e-15 0)
(3 -2.66004e-15 0)
(3 -1.55766e-15 0)
(3 -1.36879e-15 0)
(3 -1.53274e-15 0)
(3 -1.37013e-15 0)
(3 -1.12936e-16 0)
(3 -1.70071e-16 0)
(3 3.0909e-17 0)
(3 -2.00506e-16 0)
(3 -8.04527e-16 0)
(3 -1.21495e-15 0)
(3 -1.14323e-15 0)
(3 -5.46152e-16 0)
(3 1.48384e-17 0)
(3 9.51272e-16 0)
(3 1.31676e-15 0)
(3 8.36965e-16 0)
(3 2.4073e-16 0)
(3 -3.54653e-16 0)
(3 -9.01865e-16 0)
(3 -7.21356e-16 0)
(3 -4.22355e-16 0)
(3 -6.17133e-16 0)
(3 -6.92284e-16 0)
(3 -2.30687e-16 0)
(3 2.93981e-16 0)
(3 9.66057e-16 0)
(3 1.28658e-15 0)
(3 2.05456e-15 0)
(3 1.69095e-15 0)
(3 8.97218e-16 0)
(3 5.69411e-16 0)
(3 9.11889e-16 0)
(3 8.79271e-16 0)
(3 4.53634e-16 0)
(3 -3.60154e-16 0)
(3 -3.27562e-16 0)
(3 -1.53746e-19 0)
(3 1.59991e-16 0)
(3 -2.93148e-16 0)
(3 -9.01466e-16 0)
(3 -2.52718e-15 0)
(3 -3.73464e-15 0)
(3 -5.1844e-15 0)
(3 -5.08179e-15 0)
(3 -4.56138e-15 0)
(3 -3.49677e-15 0)
(3 -2.33311e-15 0)
(3 -2.0214e-15 0)
(3 -1.9276e-15 0)
(3 -1.52005e-15 0)
(3 -1.26792e-15 0)
(3 -1.27063e-15 0)
(3 -1.16516e-16 0)
(3 -7.32428e-16 0)
(3 -1.18609e-15 0)
(3 -1.54321e-15 0)
(3 -1.7155e-15 0)
(3 -2.03264e-15 0)
(3 -2.02648e-15 0)
(3 -1.34599e-15 0)
(3 -1.08013e-15 0)
(3 -8.3863e-16 0)
(3 -3.63526e-16 0)
(3 3.25032e-17 0)
(3 -4.78124e-16 0)
(3 -5.05608e-16 0)
(3 -1.23203e-16 0)
(3 8.95444e-16 0)
(3 1.55006e-15 0)
(3 1.33296e-15 0)
(3 -1.32044e-16 0)
(3 -1.02204e-15 0)
(3 -8.24243e-16 0)
(3 -5.85397e-16 0)
(3 -3.57769e-17 0)
(3 2.35798e-16 0)
(3 4.33719e-16 0)
(3 1.19258e-15 0)
(3 2.13956e-15 0)
(3 2.07696e-15 0)
(3 1.81105e-15 0)
(3 1.70652e-15 0)
(3 2.43988e-15 0)
(3 2.54009e-15 0)
(3 2.42497e-15 0)
(3 1.99904e-15 0)
(3 1.00931e-15 0)
(3 1.53605e-16 0)
(3 -9.62925e-16 0)
(3 -1.65773e-15 0)
(3 -2.56027e-15 0)
(3 -3.40045e-15 0)
(3 -3.32682e-15 0)
(3 -2.39017e-15 0)
(3 -2.05421e-15 0)
(3 -1.82953e-15 0)
(3 -1.20655e-15 0)
(3 -5.38099e-16 0)
(3 -2.28226e-16 0)
(3 -8.6412e-16 0)
(3 3.62934e-17 0)
(3 5.1074e-17 0)
(3 -1.74502e-16 0)
(3 -5.07612e-16 0)
(3 -1.00215e-15 0)
(3 -1.80951e-15 0)
(3 -1.6907e-15 0)
(3 -1.54354e-15 0)
(3 -1.11415e-15 0)
(3 -1.15978e-15 0)
(3 -1.32001e-15 0)
(3 -4.33723e-17 0)
(3 4.825e-16 0)
(3 4.94028e-16 0)
(3 1.0292e-15 0)
(3 8.2471e-16 0)
(3 9.55834e-16 0)
(3 1.77732e-15 0)
(3 1.34872e-15 0)
(3 8.98837e-17 0)
(3 -1.59148e-15 0)
(3 -2.26313e-15 0)
(3 -2.00388e-15 0)
(3 -6.82767e-16 0)
(3 -2.72462e-16 0)
(3 -4.1113e-16 0)
(3 7.21682e-16 0)
(3 1.21693e-15 0)
(3 1.2185e-15 0)
(3 1.42863e-15 0)
(3 1.74611e-15 0)
(3 2.18468e-15 0)
(3 2.19778e-15 0)
(3 8.79115e-16 0)
(3 1.00717e-16 0)
(3 4.23635e-16 0)
(3 6.21081e-16 0)
(3 1.18285e-16 0)
(3 -4.93948e-16 0)
(3 -1.67509e-15 0)
(3 -2.94332e-15 0)
(3 -3.38871e-15 0)
(3 -2.53812e-15 0)
(3 -1.42322e-15 0)
(3 -3.81963e-16 0)
(3 2.41319e-16 0)
(3 9.09901e-17 0)
(3 -3.3033e-16 0)
(3 1.27096e-16 0)
(3 5.68871e-16 0)
(3 6.8472e-16 0)
(3 6.98852e-16 0)
(3 2.19413e-16 0)
(3 -2.18404e-16 0)
(3 -4.62746e-16 0)
(3 -7.51e-16 0)
(3 -7.39305e-16 0)
(3 -5.8152e-16 0)
(3 -4.75234e-16 0)
(3 1.11077e-16 0)
(3 1.00863e-15 0)
(3 1.55355e-15 0)
(3 4.65785e-16 0)
(3 -3.09297e-16 0)
(3 -1.67006e-16 0)
(3 2.26041e-16 0)
(3 6.72302e-16 0)
(3 -3.00636e-18 0)
(3 -3.32634e-16 0)
(3 -8.49507e-16 0)
(3 -1.10769e-15 0)
(3 -1.7142e-15 0)
(3 -2.38737e-15 0)
(3 -1.35424e-15 0)
(3 -1.93998e-16 0)
(3 8.5702e-16 0)
(3 1.45565e-15 0)
(3 1.37223e-15 0)
(3 1.37211e-15 0)
(3 1.25749e-15 0)
(3 1.77144e-16 0)
(3 -2.72168e-16 0)
(3 -5.70065e-16 0)
(3 -6.72129e-16 0)
(3 -2.92801e-16 0)
(3 -4.43477e-16 0)
(3 -9.26973e-16 0)
(3 -1.46551e-15 0)
(3 -2.89721e-15 0)
(3 -3.17622e-15 0)
(3 -2.16978e-15 0)
(3 -1.20041e-15 0)
(3 3.55864e-16 0)
(3 8.35159e-17 0)
(3 -5.02873e-17 0)
(3 4.43687e-16 0)
(3 -1.85744e-16 0)
(3 1.92543e-16 0)
(3 9.04329e-16 0)
(3 8.32799e-16 0)
(3 9.2991e-16 0)
(3 1.13727e-15 0)
(3 9.14701e-16 0)
(3 2.34035e-16 0)
(3 -2.25457e-16 0)
(3 -1.30996e-16 0)
(3 3.91991e-16 0)
(3 7.19038e-16 0)
(3 1.05556e-15 0)
(3 1.21399e-15 0)
(3 9.87947e-16 0)
(3 3.91916e-16 0)
(3 -3.26383e-16 0)
(3 -7.90904e-16 0)
(3 -4.66266e-16 0)
(3 3.01104e-16 0)
(3 1.08146e-15 0)
(3 1.1804e-15 0)
(3 2.8234e-16 0)
(3 -2.23151e-15 0)
(3 -3.60709e-15 0)
(3 -3.12535e-15 0)
(3 -2.14534e-15 0)
(3 -5.19899e-16 0)
(3 -2.96069e-16 0)
(3 4.09769e-16 0)
(3 9.93295e-16 0)
(3 6.79223e-16 0)
(3 -6.61913e-16 0)
(3 -1.06589e-15 0)
(3 -1.2013e-15 0)
(3 -1.49338e-15 0)
(3 -1.34059e-15 0)
(3 -9.99298e-16 0)
(3 -1.01632e-15 0)
(3 -7.39113e-16 0)
(3 -1.3454e-15 0)
(3 -1.59941e-15 0)
(3 -1.39772e-15 0)
(3 -1.04504e-15 0)
(3 -7.44575e-16 0)
(3 -3.16926e-16 0)
(3 1.66391e-16 0)
(3 1.43401e-15 0)
(3 1.26687e-16 0)
(3 2.99875e-16 0)
(3 5.38597e-16 0)
(3 7.63977e-16 0)
(3 9.01833e-16 0)
(3 1.36873e-15 0)
(3 1.32126e-15 0)
(3 8.25571e-16 0)
(3 7.30233e-16 0)
(3 5.00653e-16 0)
(3 6.3728e-16 0)
(3 1.05753e-15 0)
(3 9.64535e-16 0)
(3 7.80833e-16 0)
(3 9.76476e-16 0)
(3 1.1214e-15 0)
(3 1.02222e-15 0)
(3 1.67069e-16 0)
(3 -3.31851e-16 0)
(3 -5.2487e-16 0)
(3 -3.00596e-16 0)
(3 -1.18891e-16 0)
(3 -6.29693e-16 0)
(3 -6.87458e-16 0)
(3 -1.17518e-15 0)
(3 -2.45205e-15 0)
(3 -2.7292e-15 0)
(3 -2.32021e-15 0)
(3 -2.49822e-15 0)
(3 -2.40562e-15 0)
(3 -1.79936e-15 0)
(3 -1.26249e-15 0)
(3 -1.20911e-15 0)
(3 -6.14205e-16 0)
(3 -3.84251e-16 0)
(3 -2.08572e-16 0)
(3 -4.55133e-16 0)
(3 -4.30131e-16 0)
(3 8.35032e-17 0)
(3 4.88857e-16 0)
(3 4.17588e-16 0)
(3 6.84165e-17 0)
(3 -1.54326e-16 0)
(3 9.4606e-17 0)
(3 6.31856e-16 0)
(3 9.67451e-16 0)
(3 2.1956e-15 0)
(3 2.40973e-15 0)
(3 2.25827e-17 0)
(3 -1.2156e-16 0)
(3 -4.94328e-16 0)
(3 -2.72716e-16 0)
(3 6.12353e-17 0)
(3 2.76505e-16 0)
(3 4.25963e-16 0)
(3 1.41432e-15 0)
(3 1.44793e-15 0)
(3 1.11574e-15 0)
(3 1.23955e-15 0)
(3 1.45179e-15 0)
(3 1.10454e-15 0)
(3 6.95269e-16 0)
(3 1.26974e-15 0)
(3 1.79741e-15 0)
(3 1.95382e-15 0)
(3 1.32986e-15 0)
(3 1.45492e-16 0)
(3 -7.93962e-16 0)
(3 -7.43171e-16 0)
(3 -6.26918e-16 0)
(3 -4.58178e-16 0)
(3 -3.40551e-17 0)
(3 4.71625e-16 0)
(3 8.1831e-16 0)
(3 -9.54821e-16 0)
(3 -2.36257e-15 0)
(3 -2.83275e-15 0)
(3 -2.23868e-15 0)
(3 -2.04144e-15 0)
(3 -1.37172e-15 0)
(3 -8.5524e-16 0)
(3 -8.55147e-16 0)
(3 -2.39915e-16 0)
(3 5.07969e-16 0)
(3 1.53979e-16 0)
(3 -1.10337e-16 0)
(3 6.51303e-16 0)
(3 1.53218e-15 0)
(3 1.35069e-15 0)
(3 9.40541e-16 0)
(3 3.35933e-16 0)
(3 -2.78256e-16 0)
(3 -4.16173e-16 0)
(3 -9.01373e-16 0)
(3 -4.51106e-16 0)
(3 6.54517e-16 0)
(3 -7.01377e-17 0)
(3 -3.06865e-16 0)
(3 -4.70785e-16 0)
(3 -5.46189e-16 0)
(3 -4.69272e-16 0)
(3 -2.13199e-16 0)
(3 3.77042e-16 0)
(3 1.13931e-15 0)
(3 9.86271e-16 0)
(3 5.91025e-16 0)
(3 7.70621e-16 0)
(3 1.55999e-15 0)
(3 1.81609e-15 0)
(3 1.7367e-15 0)
(3 1.74725e-15 0)
(3 2.26864e-15 0)
(3 2.76262e-15 0)
(3 2.62641e-15 0)
(3 1.90725e-15 0)
(3 1.7063e-15 0)
(3 1.2367e-15 0)
(3 9.01963e-16 0)
(3 3.21074e-16 0)
(3 2.40607e-16 0)
(3 7.16832e-16 0)
(3 7.76539e-16 0)
(3 3.03946e-16 0)
(3 -1.30703e-15 0)
(3 -1.77347e-15 0)
(3 -1.86381e-15 0)
(3 -1.83506e-15 0)
(3 -2.34924e-15 0)
(3 -7.51561e-16 0)
(3 -3.02984e-16 0)
(3 -7.7256e-17 0)
(3 3.06489e-16 0)
(3 3.92705e-16 0)
(3 4.22949e-16 0)
(3 7.99202e-16 0)
(3 7.49373e-16 0)
(3 6.03587e-16 0)
(3 4.3848e-16 0)
(3 -3.06029e-16 0)
(3 -6.43571e-16 0)
(3 -8.6036e-16 0)
(3 -8.21904e-16 0)
(3 -1.14542e-15 0)
(3 -9.4338e-16 0)
(3 2.71546e-16 0)
(3 2.66454e-16 0)
(3 9.36316e-17 0)
(3 -1.61483e-17 0)
(3 -1.12587e-16 0)
(3 1.47698e-17 0)
(3 2.25217e-16 0)
(3 4.32666e-16 0)
(3 4.23146e-17 0)
(3 2.77508e-16 0)
(3 4.29348e-16 0)
(3 4.19597e-16 0)
(3 5.57007e-16 0)
(3 7.99418e-16 0)
(3 4.72493e-16 0)
(3 4.50532e-16 0)
(3 1.61304e-15 0)
(3 3.71369e-15 0)
(3 3.95327e-15 0)
(3 2.76596e-15 0)
(3 1.66819e-15 0)
(3 4.64979e-16 0)
(3 1.74416e-16 0)
(3 4.87362e-16 0)
(3 1.00239e-17 0)
(3 -2.52747e-16 0)
(3 2.4652e-17 0)
(3 -9.06809e-17 0)
(3 -2.94997e-17 0)
(3 -2.99962e-16 0)
(3 -6.92155e-16 0)
(3 -1.68207e-15 0)
(3 -1.84379e-16 0)
(3 1.30112e-15 0)
(3 1.05222e-15 0)
(3 3.28007e-17 0)
(3 5.79838e-17 0)
(3 4.98203e-16 0)
(3 1.82501e-16 0)
(3 1.13882e-15 0)
(3 6.96683e-16 0)
(3 7.83106e-16 0)
(3 5.99775e-16 0)
(3 2.28308e-16 0)
(3 -2.54744e-16 0)
(3 -4.90776e-16 0)
(3 -6.43062e-16 0)
(3 -5.37658e-16 0)
(3 8.80913e-18 0)
(3 -1.42786e-16 0)
(3 -1.36696e-16 0)
(3 5.13093e-17 0)
(3 1.87304e-16 0)
(3 3.96387e-16 0)
(3 4.157e-16 0)
(3 2.92264e-16 0)
(3 3.19657e-16 0)
(3 5.82383e-16 0)
(3 4.45259e-16 0)
(3 8.15682e-17 0)
(3 1.18371e-16 0)
(3 7.07076e-16 0)
(3 1.57729e-15 0)
(3 1.54353e-15 0)
(3 6.50086e-16 0)
(3 1.31744e-15 0)
(3 1.57288e-15 0)
(3 1.17709e-15 0)
(3 5.03426e-16 0)
(3 -2.37248e-17 0)
(3 -2.68129e-16 0)
(3 -8.46634e-16 0)
(3 -1.19561e-15 0)
(3 7.13677e-16 0)
(3 1.33732e-15 0)
(3 1.29519e-15 0)
(3 1.09416e-15 0)
(3 7.18599e-16 0)
(3 -1.70304e-16 0)
(3 -4.4743e-16 0)
(3 -6.99272e-17 0)
(3 6.00654e-16 0)
(3 1.15204e-15 0)
(3 8.21219e-16 0)
(3 8.895e-16 0)
(3 1.05946e-15 0)
(3 9.91156e-16 0)
(3 9.60043e-16 0)
(3 6.11069e-16 0)
(3 8.88187e-16 0)
(3 7.20783e-16 0)
(3 2.41129e-16 0)
(3 7.76184e-17 0)
(3 -4.72037e-16 0)
(3 -5.67593e-16 0)
(3 -2.57244e-16 0)
(3 -2.64766e-16 0)
(3 -4.06927e-16 0)
(3 -2.22855e-16 0)
(3 -5.40906e-18 0)
(3 -5.32811e-17 0)
(3 3.28639e-16 0)
(3 2.23712e-16 0)
(3 9.04045e-17 0)
(3 4.72078e-16 0)
(3 2.45928e-16 0)
(3 3.17775e-17 0)
(3 -4.59252e-16 0)
(3 -5.79484e-16 0)
(3 -1.01632e-16 0)
(3 6.04395e-16 0)
(3 1.44137e-15 0)
(3 1.08399e-15 0)
(3 9.10061e-17 0)
(3 -2.9566e-16 0)
(3 -1.97132e-16 0)
(3 4.31418e-16 0)
(3 5.32541e-16 0)
(3 9.84227e-16 0)
(3 5.10309e-16 0)
(3 2.17997e-17 0)
(3 3.08511e-16 0)
(3 3.4788e-16 0)
(3 6.37485e-16 0)
(3 5.94509e-16 0)
(3 -2.90777e-16 0)
(3 -2.40995e-16 0)
(3 -2.3063e-17 0)
(3 5.80033e-16 0)
(3 3.36387e-16 0)
(3 6.30235e-16 0)
(3 1.82123e-15 0)
(3 1.96611e-15 0)
(3 1.94001e-15 0)
(3 1.29831e-15 0)
(3 1.01209e-15 0)
(3 1.24614e-15 0)
(3 2.22707e-17 0)
(3 -4.3592e-16 0)
(3 -2.49062e-16 0)
(3 1.51052e-16 0)
(3 -7.07039e-16 0)
(3 -1.30427e-15 0)
(3 -1.3346e-15 0)
(3 -1.36375e-17 0)
(3 6.29546e-16 0)
(3 1.00917e-15 0)
(3 8.50375e-16 0)
(3 4.2637e-16 0)
(3 3.83849e-16 0)
(3 2.14687e-16 0)
(3 -3.67228e-16 0)
(3 -4.08125e-16 0)
(3 -5.42862e-16 0)
(3 -1.35955e-15 0)
(3 -2.10629e-15 0)
(3 -2.00702e-15 0)
(3 -1.36004e-15 0)
(3 -3.57504e-16 0)
(3 5.97547e-16 0)
(3 1.51768e-15 0)
(3 1.39858e-15 0)
(3 6.23386e-16 0)
(3 9.30967e-17 0)
(3 3.66714e-16 0)
(3 2.44027e-16 0)
(3 -1.56518e-16 0)
(3 1.58316e-16 0)
(3 2.7502e-16 0)
(3 -1.7884e-16 0)
(3 2.52621e-16 0)
(3 1.00684e-15 0)
(3 6.30309e-16 0)
(3 2.54402e-16 0)
(3 4.43831e-16 0)
(3 7.98306e-16 0)
(3 2.40172e-15 0)
(3 2.32104e-15 0)
(3 1.90636e-15 0)
(3 2.07605e-15 0)
(3 2.38604e-15 0)
(3 2.20986e-15 0)
(3 2.05007e-15 0)
(3 1.78884e-15 0)
(3 1.75371e-15 0)
(3 3.94191e-16 0)
(3 -7.62042e-16 0)
(3 -4.47746e-16 0)
(3 -1.2173e-15 0)
(3 -1.71831e-15 0)
(3 -1.84532e-15 0)
(3 -1.53089e-15 0)
(3 -2.75506e-17 0)
(3 1.591e-16 0)
(3 6.04002e-16 0)
(3 5.2624e-16 0)
(3 5.47348e-16 0)
(3 5.56389e-16 0)
(3 8.52148e-16 0)
(3 1.21761e-15 0)
(3 -1.89812e-16 0)
(3 -1.56557e-15 0)
(3 -1.8835e-15 0)
(3 -1.43654e-15 0)
(3 -8.27561e-16 0)
(3 -1.09772e-16 0)
(3 4.35592e-16 0)
(3 4.34491e-16 0)
(3 7.90001e-16 0)
(3 8.31618e-16 0)
(3 5.29711e-16 0)
(3 8.71636e-16 0)
(3 2.45683e-15 0)
(3 2.48643e-15 0)
(3 1.68664e-15 0)
(3 1.37412e-15 0)
(3 4.91411e-16 0)
(3 -3.31594e-16 0)
(3 -3.31091e-16 0)
(3 3.98338e-16 0)
(3 2.92243e-16 0)
(3 8.3408e-16 0)
(3 7.05423e-16 0)
(3 1.23551e-15 0)
(3 1.69225e-15 0)
(3 1.65616e-15 0)
(3 1.44818e-15 0)
(3 1.19351e-15 0)
(3 2.11132e-15 0)
(3 2.40292e-15 0)
(3 2.04452e-15 0)
(3 1.64955e-15 0)
(3 1.25695e-15 0)
(3 8.58512e-16 0)
(3 -5.49414e-17 0)
(3 -4.17406e-16 0)
(3 -1.12685e-15 0)
(3 -1.56378e-15 0)
(3 -1.42498e-15 0)
(3 -1.3831e-15 0)
(3 1.18225e-16 0)
(3 -7.0731e-18 0)
(3 1.02954e-16 0)
(3 9.39716e-17 0)
(3 2.07292e-16 0)
(3 3.62865e-16 0)
(3 4.66093e-16 0)
(3 1.1857e-15 0)
(3 2.96861e-16 0)
(3 -2.55354e-16 0)
(3 -4.35924e-16 0)
(3 -7.61154e-16 0)
(3 -1.29999e-15 0)
(3 -1.21591e-15 0)
(3 -8.60231e-16 0)
(3 -1.49164e-16 0)
(3 3.38406e-16 0)
(3 1.31228e-15 0)
(3 1.36801e-15 0)
(3 1.64989e-15 0)
(3 1.54948e-15 0)
(3 1.32836e-15 0)
(3 1.72285e-15 0)
(3 2.15231e-15 0)
(3 1.3664e-15 0)
(3 2.59178e-16 0)
(3 3.90737e-16 0)
(3 -5.77246e-17 0)
(3 1.57354e-15 0)
(3 1.22653e-15 0)
(3 -1.51131e-17 0)
(3 -1.68914e-16 0)
(3 1.0204e-15 0)
(3 1.29286e-15 0)
(3 1.34169e-15 0)
(3 1.02326e-15 0)
(3 1.48607e-15 0)
(3 1.85612e-15 0)
(3 1.86199e-15 0)
(3 2.25462e-15 0)
(3 4.23568e-16 0)
(3 7.02316e-16 0)
(3 1.09312e-15 0)
(3 7.01653e-16 0)
(3 9.80484e-16 0)
(3 7.77441e-16 0)
(3 7.86329e-16 0)
(3 1.52478e-16 0)
(3 7.62453e-17 0)
(3 3.60626e-16 0)
(3 1.35603e-17 0)
(3 -1.6429e-16 0)
(3 -2.24974e-17 0)
(3 -2.25251e-17 0)
(3 -6.37642e-17 0)
(3 -3.36505e-16 0)
(3 -3.54984e-16 0)
(3 -2.0917e-16 0)
(3 -1.69346e-16 0)
(3 -5.11797e-16 0)
(3 -9.88822e-16 0)
(3 -7.22557e-16 0)
(3 -3.94452e-16 0)
(3 1.10918e-18 0)
(3 3.49797e-16 0)
(3 1.99489e-15 0)
(3 2.01426e-15 0)
(3 1.1966e-15 0)
(3 -1.02217e-15 0)
(3 -9.82182e-16 0)
(3 1.2843e-16 0)
(3 1.09357e-15 0)
(3 7.47237e-16 0)
(3 7.81216e-16 0)
(3 9.70971e-16 0)
(3 9.51076e-16 0)
(3 8.22311e-16 0)
(3 -4.45056e-16 0)
(3 -7.61722e-16 0)
(3 -8.99256e-18 0)
(3 7.5849e-16 0)
(3 1.47648e-15 0)
(3 1.3536e-15 0)
(3 1.22549e-15 0)
(3 1.28037e-15 0)
(3 9.00901e-16 0)
(3 6.71916e-16 0)
(3 3.58858e-16 0)
(3 1.49107e-17 0)
(3 5.77985e-16 0)
(3 1.31394e-15 0)
(3 2.05409e-15 0)
(3 2.43797e-15 0)
(3 2.50283e-15 0)
(3 2.19877e-15 0)
(3 2.10936e-15 0)
(3 -4.95479e-16 0)
(3 -2.88575e-16 0)
(3 -3.89565e-16 0)
(3 -2.23233e-16 0)
(3 -3.32694e-16 0)
(3 -3.16873e-16 0)
(3 -1.85783e-16 0)
(3 -3.3075e-17 0)
(3 -3.82409e-18 0)
(3 -4.61702e-16 0)
(3 -4.92017e-16 0)
(3 1.84341e-16 0)
(3 6.41877e-16 0)
(3 5.55768e-16 0)
(3 5.78164e-16 0)
(3 3.99266e-16 0)
(3 4.17057e-16 0)
(3 6.87478e-16 0)
(3 9.64144e-16 0)
(3 3.30143e-16 0)
(3 -8.89119e-17 0)
(3 3.06961e-16 0)
(3 4.64122e-16 0)
(3 3.09556e-16 0)
(3 6.73189e-16 0)
(3 6.62077e-16 0)
(3 -2.04264e-17 0)
(3 -9.18173e-17 0)
(3 -8.69811e-16 0)
(3 -1.05936e-15 0)
(3 -7.49617e-16 0)
(3 -1.25066e-16 0)
(3 -4.02168e-16 0)
(3 -8.78792e-16 0)
(3 -1.03941e-15 0)
(3 -8.36854e-16 0)
(3 -9.7505e-16 0)
(3 -2.03208e-15 0)
(3 -2.24905e-15 0)
(3 -1.20233e-15 0)
(3 -2.0204e-16 0)
(3 6.29943e-16 0)
(3 1.85456e-15 0)
(3 1.99455e-15 0)
(3 1.64063e-15 0)
(3 2.14117e-15 0)
(3 1.83226e-15 0)
(3 1.71846e-15 0)
(3 1.83999e-17 0)
(3 4.16573e-17 0)
(3 3.07714e-16 0)
(3 6.83479e-16 0)
(3 5.96947e-16 0)
(3 3.84891e-16 0)
(3 1.44786e-16 0)
(3 2.37713e-16 0)
(3 -8.83901e-17 0)
(3 -2.19951e-16 0)
(3 2.12649e-16 0)
(3 4.52749e-16 0)
(3 -6.76521e-17 0)
(3 -4.70856e-16 0)
(3 -7.53531e-16 0)
(3 -4.42157e-16 0)
(3 -3.25528e-16 0)
(3 -3.46578e-16 0)
(3 -9.33858e-16 0)
(3 -7.65545e-16 0)
(3 -4.20759e-16 0)
(3 3.15038e-16 0)
(3 1.25605e-16 0)
(3 -4.69008e-16 0)
(3 1.00127e-17 0)
(3 -3.68161e-18 0)
(3 4.74115e-17 0)
(3 -2.62993e-16 0)
(3 -7.39155e-16 0)
(3 -4.29558e-16 0)
(3 6.021e-16 0)
(3 1.81356e-17 0)
(3 -5.67556e-16 0)
(3 -1.29412e-15 0)
(3 -1.40512e-15 0)
(3 -1.67946e-15 0)
(3 -1.947e-15 0)
(3 -1.60921e-15 0)
(3 -1.49331e-15 0)
(3 -8.442e-16 0)
(3 3.76655e-16 0)
(3 7.75341e-16 0)
(3 2.87898e-15 0)
(3 3.16752e-15 0)
(3 2.87359e-15 0)
(3 2.5238e-15 0)
(3 1.84149e-15 0)
(3 7.96509e-16 0)
(3 2.24145e-16 0)
(3 3.651e-16 0)
(3 3.82693e-16 0)
(3 4.29487e-16 0)
(3 4.14639e-16 0)
(3 1.05678e-16 0)
(3 -2.64563e-16 0)
(3 -6.46461e-16 0)
(3 -5.56304e-16 0)
(3 -4.22333e-16 0)
(3 -9.72697e-17 0)
(3 1.72556e-18 0)
(3 -3.50067e-16 0)
(3 -1.10764e-15 0)
(3 -2.04005e-15 0)
(3 -2.32924e-15 0)
(3 -1.75652e-15 0)
(3 -9.13969e-16 0)
(3 -8.40024e-16 0)
(3 -4.50991e-16 0)
(3 -2.61979e-16 0)
(3 -6.68802e-16 0)
(3 -1.16443e-15 0)
(3 -1.1073e-15 0)
(3 -1.1423e-15 0)
(3 -6.86204e-16 0)
(3 -6.06258e-16 0)
(3 -3.27611e-16 0)
(3 -7.73573e-17 0)
(3 5.49229e-17 0)
(3 5.80304e-16 0)
(3 -8.04898e-16 0)
(3 -1.9437e-15 0)
(3 -1.83754e-15 0)
(3 -9.29351e-16 0)
(3 -4.8809e-16 0)
(3 7.37671e-18 0)
(3 2.22326e-16 0)
(3 3.88885e-16 0)
(3 2.66649e-17 0)
(3 9.29757e-16 0)
(3 1.91151e-15 0)
(3 1.73537e-15 0)
(3 1.93169e-15 0)
(3 2.2918e-15 0)
(3 1.66567e-15 0)
(3 9.59277e-16 0)
(3 4.49496e-16 0)
(3 1.42084e-17 0)
(3 -1.2685e-16 0)
(3 -3.41584e-16 0)
(3 -5.84919e-16 0)
(3 -9.83392e-16 0)
(3 -1.49868e-15 0)
(3 -1.53825e-15 0)
(3 -1.30175e-16 0)
(3 1.05175e-15 0)
(3 5.19963e-16 0)
(3 -4.14093e-17 0)
(3 1.53916e-16 0)
(3 2.13423e-16 0)
(3 3.56259e-17 0)
(3 -6.77724e-16 0)
(3 -1.31409e-15 0)
(3 -9.71528e-16 0)
(3 -1.17917e-15 0)
(3 -6.05058e-16 0)
(3 4.84889e-16 0)
(3 2.88334e-16 0)
(3 -3.97297e-16 0)
(3 -5.687e-16 0)
(3 -4.69822e-17 0)
(3 3.07324e-17 0)
(3 -3.49215e-16 0)
(3 -1.40616e-15 0)
(3 -1.78821e-15 0)
(3 -9.41679e-16 0)
(3 -3.09814e-16 0)
(3 -9.01001e-16 0)
(3 -1.42203e-15 0)
(3 -1.56581e-15 0)
(3 -1.20365e-15 0)
(3 5.26924e-16 0)
(3 9.58356e-16 0)
(3 9.711e-16 0)
(3 8.19062e-16 0)
(3 6.69414e-16 0)
(3 5.33048e-16 0)
(3 8.56932e-16 0)
(3 1.07267e-15 0)
(3 1.13995e-15 0)
(3 8.11169e-16 0)
(3 7.34984e-16 0)
(3 9.3417e-16 0)
(3 1.0681e-15 0)
(3 4.04724e-16 0)
(3 5.88508e-17 0)
(3 -1.40071e-16 0)
(3 -5.42023e-16 0)
(3 -5.9141e-16 0)
(3 -1.07384e-15 0)
(3 -1.71977e-15 0)
(3 -1.64208e-15 0)
(3 -5.95126e-16 0)
(3 6.58902e-16 0)
(3 1.25775e-15 0)
(3 7.93931e-16 0)
(3 7.22571e-16 0)
(3 9.16719e-16 0)
(3 1.20818e-15 0)
(3 8.80055e-16 0)
(3 1.05512e-16 0)
(3 -4.03991e-16 0)
(3 -1.26605e-15 0)
(3 -1.05918e-15 0)
(3 -6.19472e-16 0)
(3 -2.21746e-16 0)
(3 4.99213e-16 0)
(3 1.83328e-15 0)
(3 1.37015e-15 0)
(3 5.61991e-16 0)
(3 2.6606e-16 0)
(3 8.75592e-19 0)
(3 2.35848e-16 0)
(3 6.57725e-16 0)
(3 9.80816e-16 0)
(3 4.44389e-16 0)
(3 -1.05659e-16 0)
(3 -5.13869e-16 0)
(3 9.17394e-16 0)
(3 1.0244e-15 0)
(3 1.58252e-15 0)
(3 8.16818e-16 0)
(3 7.43404e-16 0)
(3 5.04314e-16 0)
(3 1.02779e-15 0)
(3 1.11319e-15 0)
(3 8.07275e-16 0)
(3 3.82005e-16 0)
(3 -1.5059e-16 0)
(3 -1.07287e-15 0)
(3 -1.01825e-15 0)
(3 -2.97351e-17 0)
(3 2.93494e-16 0)
(3 1.91086e-16 0)
(3 -1.5291e-16 0)
(3 -1.04877e-16 0)
(3 5.72793e-16 0)
(3 2.01666e-16 0)
(3 -1.93128e-16 0)
(3 2.52588e-16 0)
(3 8.54127e-16 0)
(3 8.20016e-16 0)
(3 4.15877e-16 0)
(3 -9.85655e-17 0)
(3 -1.92857e-16 0)
(3 1.30574e-16 0)
(3 7.72127e-16 0)
(3 2.13751e-16 0)
(3 -3.94275e-16 0)
(3 -1.56691e-15 0)
(3 -2.99108e-15 0)
(3 -3.01136e-15 0)
(3 -1.51863e-15 0)
(3 -1.00175e-15 0)
(3 -2.05657e-16 0)
(3 1.13034e-16 0)
(3 -2.46044e-17 0)
(3 -1.07163e-16 0)
(3 9.82198e-16 0)
(3 1.91322e-15 0)
(3 1.93823e-15 0)
(3 2.00108e-15 0)
(3 2.05394e-15 0)
(3 2.62823e-15 0)
(3 2.30541e-15 0)
(3 1.70988e-15 0)
(3 7.22148e-16 0)
(3 2.21465e-16 0)
(3 7.39798e-16 0)
(3 1.81311e-16 0)
(3 -6.51837e-16 0)
(3 -5.02744e-16 0)
(3 -3.13231e-16 0)
(3 -3.28335e-16 0)
(3 -6.64108e-16 0)
(3 -1.16233e-15 0)
(3 -9.63997e-16 0)
(3 -4.21748e-16 0)
(3 6.81287e-17 0)
(3 -1.43e-16 0)
(3 -7.0964e-16 0)
(3 -9.21088e-17 0)
(3 -1.1118e-16 0)
(3 2.84314e-16 0)
(3 5.03152e-16 0)
(3 7.4739e-16 0)
(3 1.08442e-15 0)
(3 1.61781e-15 0)
(3 1.33698e-15 0)
(3 9.90602e-16 0)
(3 -2.53625e-16 0)
(3 -5.04343e-16 0)
(3 -4.72154e-16 0)
(3 -3.98699e-16 0)
(3 -1.07853e-16 0)
(3 -6.10385e-16 0)
(3 -1.66842e-15 0)
(3 -2.52029e-15 0)
(3 -2.27697e-15 0)
(3 -1.83036e-15 0)
(3 -1.71841e-15 0)
(3 -5.91534e-16 0)
(3 -1.02434e-15 0)
(3 -1.26478e-15 0)
(3 -9.23275e-16 0)
(3 -5.28723e-16 0)
(3 8.41912e-16 0)
(3 1.4206e-15 0)
(3 1.32043e-15 0)
(3 1.08423e-15 0)
(3 1.34906e-15 0)
(3 1.71203e-15 0)
(3 1.80394e-15 0)
(3 9.96663e-16 0)
(3 -6.24001e-17 0)
(3 -6.03197e-16 0)
(3 -1.21391e-15 0)
(3 -1.07339e-15 0)
(3 -1.23542e-15 0)
(3 -8.37412e-16 0)
(3 -1.10359e-15 0)
(3 -1.45747e-15 0)
(3 -1.40217e-15 0)
(3 -9.6659e-16 0)
(3 -4.11035e-16 0)
(3 -3.87004e-16 0)
(3 -1.02168e-15 0)
(3 -2.53766e-15 0)
(3 -2.48752e-15 0)
(3 -3.05598e-16 0)
(3 -1.46673e-16 0)
(3 -1.51577e-16 0)
(3 -3.5705e-16 0)
(3 3.25195e-16 0)
(3 9.56284e-16 0)
(3 8.26298e-16 0)
(3 -6.65578e-16 0)
(3 -1.58701e-15 0)
(3 -1.03076e-15 0)
(3 -7.13641e-16 0)
(3 -6.62649e-16 0)
(3 -4.06872e-16 0)
(3 -7.4467e-16 0)
(3 -5.5551e-16 0)
(3 -4.31232e-16 0)
(3 -1.6629e-16 0)
(3 3.07731e-16 0)
(3 9.45374e-16 0)
(3 -3.84325e-16 0)
(3 -4.84341e-16 0)
(3 -8.45092e-16 0)
(3 -1.21608e-15 0)
(3 -1.18735e-15 0)
(3 -1.13572e-15 0)
(3 6.63311e-16 0)
(3 1.12859e-15 0)
(3 1.38919e-15 0)
(3 1.13874e-15 0)
(3 7.66608e-16 0)
(3 1.03562e-15 0)
(3 1.10469e-15 0)
(3 -9.26947e-16 0)
(3 -2.02481e-15 0)
(3 -2.78921e-15 0)
(3 -1.70223e-15 0)
(3 -7.82999e-16 0)
(3 -1.36254e-16 0)
(3 7.37805e-18 0)
(3 -4.24563e-16 0)
(3 -6.93713e-16 0)
(3 -8.04058e-16 0)
(3 -1.20128e-15 0)
(3 -9.99413e-16 0)
(3 -1.481e-15 0)
(3 -1.99525e-15 0)
(3 -2.29223e-15 0)
(3 -1.15974e-15 0)
(3 6.05653e-17 0)
(3 1.43121e-16 0)
(3 -4.75672e-16 0)
(3 -1.09977e-15 0)
(3 -6.94172e-16 0)
(3 5.57906e-16 0)
(3 6.9652e-16 0)
(3 3.23458e-16 0)
(3 -4.73152e-16 0)
(3 -7.24056e-16 0)
(3 -6.26201e-16 0)
(3 -8.68656e-16 0)
(3 -1.15679e-15 0)
(3 -8.65936e-18 0)
(3 1.10648e-15 0)
(3 1.33785e-15 0)
(3 6.28804e-16 0)
(3 -4.00089e-16 0)
(3 -5.48967e-16 0)
(3 -4.7526e-16 0)
(3 -9.4021e-16 0)
(3 -2.10305e-15 0)
(3 -2.43634e-15 0)
(3 -2.20388e-15 0)
(3 -1.41511e-15 0)
(3 3.04772e-17 0)
(3 3.70329e-16 0)
(3 2.47075e-16 0)
(3 1.1111e-17 0)
(3 2.61732e-17 0)
(3 -1.91926e-16 0)
(3 -2.75027e-16 0)
(3 2.89064e-17 0)
(3 -2.62069e-16 0)
(3 -1.0005e-15 0)
(3 -1.37191e-15 0)
(3 -1.43351e-15 0)
(3 -9.91024e-16 0)
(3 -6.65781e-16 0)
(3 -1.2764e-16 0)
(3 -1.26902e-16 0)
(3 -7.61063e-16 0)
(3 -1.66801e-15 0)
(3 -2.41072e-15 0)
(3 -1.75835e-15 0)
(3 -7.32387e-16 0)
(3 1.1911e-16 0)
(3 2.82012e-17 0)
(3 1.48047e-16 0)
(3 9.84904e-18 0)
(3 -8.1973e-17 0)
(3 -3.33416e-16 0)
(3 4.28007e-16 0)
(3 1.11377e-15 0)
(3 1.10923e-15 0)
(3 1.02975e-15 0)
(3 8.74664e-17 0)
(3 1.46712e-16 0)
(3 3.18011e-16 0)
(3 6.625e-16 0)
(3 8.8324e-16 0)
(3 1.16691e-15 0)
(3 9.70847e-16 0)
(3 6.08003e-16 0)
(3 -2.43476e-16 0)
(3 -7.22461e-16 0)
(3 -1.61315e-15 0)
(3 -1.35261e-15 0)
(3 -1.31756e-15 0)
(3 -1.2599e-15 0)
(3 -8.53247e-16 0)
(3 1.14584e-16 0)
(3 1.0022e-15 0)
(3 -6.07062e-17 0)
(3 -7.27192e-16 0)
(3 -5.7805e-16 0)
(3 2.44492e-16 0)
(3 1.1498e-16 0)
(3 -2.3729e-15 0)
(3 -2.95725e-15 0)
(3 -1.8273e-15 0)
(3 2.13865e-16 0)
(3 5.58611e-16 0)
(3 2.29395e-16 0)
(3 -1.89323e-15 0)
(3 -2.12243e-15 0)
(3 -1.22474e-15 0)
(3 -6.45833e-16 0)
(3 -1.16436e-15 0)
(3 -1.76906e-15 0)
(3 -1.79168e-15 0)
(3 -1.85794e-15 0)
(3 -1.34054e-15 0)
(3 -3.16359e-17 0)
(3 1.39925e-15 0)
(3 1.21159e-15 0)
(3 -1.85766e-17 0)
(3 4.93236e-17 0)
(3 9.70509e-16 0)
(3 1.27653e-15 0)
(3 9.5771e-16 0)
(3 3.18601e-16 0)
(3 -1.61715e-16 0)
(3 1.2282e-16 0)
(3 6.77554e-16 0)
(3 7.04855e-16 0)
(3 8.638e-16 0)
(3 1.63179e-15 0)
(3 2.60308e-15 0)
(3 1.75629e-15 0)
(3 7.74131e-16 0)
(3 4.76669e-16 0)
(3 2.73527e-16 0)
(3 3.96822e-17 0)
(3 -2.22436e-16 0)
(3 -4.71077e-16 0)
(3 -2.09571e-16 0)
(3 1.79548e-16 0)
(3 1.30006e-15 0)
(3 1.60401e-15 0)
(3 4.53013e-16 0)
(3 -1.2459e-16 0)
(3 -1.51984e-17 0)
(3 1.17821e-16 0)
(3 2.51308e-16 0)
(3 -1.51947e-15 0)
(3 -1.76529e-15 0)
(3 -1.12732e-15 0)
(3 -3.41585e-16 0)
(3 1.13819e-15 0)
(3 2.2686e-15 0)
(3 1.946e-15 0)
(3 1.48501e-16 0)
(3 -1.27e-15 0)
(3 -1.18806e-15 0)
(3 -1.63262e-15 0)
(3 -1.45669e-15 0)
(3 -1.07574e-15 0)
(3 1.16552e-16 0)
(3 5.67215e-16 0)
(3 7.58821e-16 0)
(3 1.08945e-15 0)
(3 2.15282e-15 0)
(3 2.27437e-15 0)
(3 -1.43857e-16 0)
(3 -2.67154e-17 0)
(3 1.19744e-16 0)
(3 1.16452e-17 0)
(3 -6.52353e-16 0)
(3 -1.02964e-15 0)
(3 -7.91936e-16 0)
(3 -7.26592e-16 0)
(3 4.31587e-16 0)
(3 7.32908e-16 0)
(3 9.53967e-16 0)
(3 1.09775e-15 0)
(3 5.70718e-16 0)
(3 5.97704e-16 0)
(3 6.48052e-16 0)
(3 6.58927e-16 0)
(3 6.36197e-16 0)
(3 1.00394e-15 0)
(3 6.06153e-16 0)
(3 4.02068e-16 0)
(3 4.92887e-16 0)
(3 5.35543e-16 0)
(3 1.02284e-15 0)
(3 5.78237e-16 0)
(3 -3.70944e-16 0)
(3 -5.32998e-16 0)
(3 8.87278e-17 0)
(3 -1.88898e-16 0)
(3 -1.34877e-15 0)
(3 -1.73017e-15 0)
(3 -1.43029e-15 0)
(3 -1.09944e-15 0)
(3 -3.11744e-16 0)
(3 4.76649e-16 0)
(3 2.0878e-15 0)
(3 2.42711e-15 0)
(3 1.89885e-15 0)
(3 6.03207e-16 0)
(3 -5.44286e-16 0)
(3 -8.44927e-16 0)
(3 -1.09209e-16 0)
(3 1.19143e-15 0)
(3 1.71787e-15 0)
(3 2.80093e-15 0)
(3 2.70715e-15 0)
(3 3.01289e-15 0)
(3 3.11406e-15 0)
(3 2.69077e-15 0)
(3 -3.23114e-17 0)
(3 -4.00862e-16 0)
(3 -1.05997e-15 0)
(3 -1.54869e-15 0)
(3 -1.51082e-15 0)
(3 1.87293e-16 0)
(3 4.747e-16 0)
(3 8.28942e-16 0)
(3 1.82779e-16 0)
(3 2.14335e-16 0)
(3 2.37956e-16 0)
(3 -1.30733e-16 0)
(3 -2.80053e-16 0)
(3 7.28954e-17 0)
(3 6.48984e-17 0)
(3 1.78654e-16 0)
(3 1.10195e-15 0)
(3 1.19175e-15 0)
(3 1.00707e-15 0)
(3 7.76214e-16 0)
(3 9.55063e-16 0)
(3 7.02663e-16 0)
(3 -7.65013e-17 0)
(3 -7.624e-16 0)
(3 -9.32532e-16 0)
(3 -1.39204e-15 0)
(3 -1.49044e-15 0)
(3 -9.54341e-16 0)
(3 -4.27682e-16 0)
(3 -1.81766e-16 0)
(3 -1.74005e-16 0)
(3 -4.93592e-17 0)
(3 3.02117e-16 0)
(3 5.34724e-16 0)
(3 1.93071e-15 0)
(3 1.23841e-15 0)
(3 1.40172e-15 0)
(3 8.92545e-16 0)
(3 8.55433e-16 0)
(3 4.96378e-16 0)
(3 4.31979e-16 0)
(3 4.10622e-16 0)
(3 4.68753e-16 0)
(3 2.04469e-15 0)
(3 2.77945e-15 0)
(3 2.68897e-15 0)
(3 2.44235e-15 0)
(3 2.96065e-15 0)
(3 1.51443e-16 0)
(3 -4.90534e-17 0)
(3 -3.22093e-16 0)
(3 -5.82318e-16 0)
(3 3.08461e-16 0)
(3 6.65369e-16 0)
(3 4.09705e-16 0)
(3 1.92172e-16 0)
(3 2.70878e-16 0)
(3 7.08162e-16 0)
(3 8.64016e-16 0)
(3 5.02704e-16 0)
(3 5.37392e-16 0)
(3 -1.91224e-16 0)
(3 6.7379e-18 0)
(3 6.79023e-16 0)
(3 4.12893e-16 0)
(3 3.00506e-16 0)
(3 2.97361e-16 0)
(3 3.11721e-16 0)
(3 3.56964e-16 0)
(3 2.21149e-16 0)
(3 -5.00828e-16 0)
(3 -3.76404e-16 0)
(3 -1.37572e-16 0)
(3 -7.25951e-16 0)
(3 -9.93516e-16 0)
(3 -5.78165e-16 0)
(3 2.76229e-16 0)
(3 8.50722e-16 0)
(3 1.52685e-15 0)
(3 2.50446e-15 0)
(3 2.32087e-15 0)
(3 2.247e-15 0)
(3 1.18564e-15 0)
(3 -3.7295e-17 0)
(3 1.64125e-16 0)
(3 8.58561e-16 0)
(3 1.57743e-15 0)
(3 1.50832e-15 0)
(3 5.64873e-16 0)
(3 -3.53733e-16 0)
(3 -1.28267e-15 0)
(3 -1.1687e-15 0)
(3 -8.08688e-17 0)
(3 1.43537e-16 0)
(3 1.62354e-16 0)
(3 7.87234e-16 0)
(3 1.37789e-16 0)
(3 9.58649e-17 0)
(3 4.26443e-16 0)
(3 8.06777e-16 0)
(3 7.96124e-16 0)
(3 5.93152e-16 0)
(3 -9.74219e-17 0)
(3 -1.15429e-15 0)
(3 -1.93081e-17 0)
(3 3.36404e-16 0)
(3 6.64204e-16 0)
(3 4.5587e-16 0)
(3 1.76715e-16 0)
(3 -2.79193e-17 0)
(3 -3.5819e-17 0)
(3 3.61725e-17 0)
(3 2.57315e-16 0)
(3 7.19007e-16 0)
(3 9.43936e-16 0)
(3 3.12696e-16 0)
(3 2.02851e-16 0)
(3 2.93859e-16 0)
(3 4.96889e-16 0)
(3 6.21492e-16 0)
(3 4.98058e-16 0)
(3 5.75744e-16 0)
(3 8.51026e-16 0)
(3 7.54444e-16 0)
(3 4.18681e-16 0)
(3 7.59267e-17 0)
(3 1.72805e-16 0)
(3 6.90108e-16 0)
(3 -8.31569e-16 0)
(3 -1.20054e-15 0)
(3 2.03627e-16 0)
(3 1.95519e-15 0)
(3 1.61484e-15 0)
(3 1.67268e-15 0)
(3 1.82305e-15 0)
(3 2.45086e-15 0)
(3 2.29681e-15 0)
(3 9.4773e-16 0)
(3 -3.4983e-16 0)
(3 -1.06704e-15 0)
(3 -1.68914e-15 0)
(3 -1.55593e-15 0)
(3 -1.24644e-15 0)
(3 -6.54877e-16 0)
(3 -1.3427e-16 0)
(3 -1.60288e-16 0)
(3 -1.41871e-16 0)
(3 -6.07316e-16 0)
(3 -1.0051e-15 0)
(3 -6.86409e-16 0)
(3 -3.65676e-16 0)
(3 6.6765e-16 0)
(3 5.87628e-16 0)
(3 -4.0571e-16 0)
(3 -4.78174e-16 0)
(3 -6.57618e-16 0)