/*--------------------------------*- C++ -*----------------------------------*\
  =========                 |
  \\      /  F ield         | OpenFOAM: The Open Source CFD Toolbox
   \\    /   O peration     | Website:  https://openfoam.org
    \\  /    A nd           | Version:  7
     \\/     M anipulation  |
\*---------------------------------------------------------------------------*/
FoamFile
{
    version     2.0;
    format      ascii;
    class       volVectorField;
    location    "0.5";
    object      U;
}
// * * * * * * * * * * * * * * * * * * * * * * * * * * * * * * * * * * * * * //

dimensions      [0 1 -1 0 0 0 0];

internalField   nonuniform List<vector> 
73728
(
(3 -3.61475e-18 0)
(3 -1.44827e-16 0)
(3 -1.19252e-16 0)
(3 -1.29786e-16 0)
(3 -2.30462e-17 0)
(3 -3.44119e-17 0)
(3 2.27495e-16 0)
(3 2.39348e-16 0)
(3 4.40843e-16 0)
(3 4.40903e-16 0)
(3 4.93686e-16 0)
(3 -2.31148e-16 0)
(3 -4.88177e-16 0)
(3 -8.62509e-16 0)
(3 -7.65323e-16 0)
(3 -8.3608e-16 0)
(3 -7.66192e-16 0)
(3 -4.80857e-16 0)
(3 1.0559e-16 0)
(3 3.48258e-16 0)
(3 2.79121e-16 0)
(3 1.00009e-16 0)
(3 5.15617e-16 0)
(3 7.29355e-16 0)
(3 1.59007e-15 0)
(3 1.89252e-15 0)
(3 1.63812e-15 0)
(3 1.0607e-15 0)
(3 2.70537e-16 0)
(3 3.37336e-16 0)
(3 3.37484e-16 0)
(3 5.55547e-16 0)
(3 1.19803e-15 0)
(3 1.30139e-15 0)
(3 7.36187e-16 0)
(3 9.81298e-16 0)
(3 1.22565e-15 0)
(3 8.09977e-16 0)
(3 4.50684e-16 0)
(3 4.67503e-16 0)
(3 1.0074e-15 0)
(3 2.55753e-16 0)
(3 7.4553e-16 0)
(3 1.11978e-15 0)
(3 9.92934e-16 0)
(3 8.20592e-16 0)
(3 4.32393e-16 0)
(3 6.61933e-16 0)
(3 1.26698e-15 0)
(3 1.23194e-15 0)
(3 1.30939e-15 0)
(3 1.57616e-15 0)
(3 1.42886e-15 0)
(3 1.16245e-15 0)
(3 5.35142e-16 0)
(3 6.69726e-16 0)
(3 8.90128e-16 0)
(3 6.05475e-16 0)
(3 1.01719e-16 0)
(3 -1.0723e-16 0)
(3 -1.28583e-16 0)
(3 -5.33533e-16 0)
(3 -8.1984e-16 0)
(3 -7.09348e-16 0)
(3 3.39737e-16 0)
(3 1.9397e-16 0)
(3 -1.34577e-16 0)
(3 -2.49706e-16 0)
(3 -2.41569e-16 0)
(3 5.25926e-16 0)
(3 1.79796e-15 0)
(3 2.75652e-15 0)
(3 2.38383e-15 0)
(3 2.07299e-15 0)
(3 1.6496e-15 0)
(3 4.21788e-16 0)
(3 -1.27296e-16 0)
(3 -1.75813e-15 0)
(3 -2.96119e-15 0)
(3 -2.47343e-15 0)
(3 -1.84142e-15 0)
(3 -1.74875e-15 0)
(3 -1.30994e-15 0)
(3 -6.08081e-16 0)
(3 1.62754e-16 0)
(3 -9.71675e-17 0)
(3 -4.08014e-16 0)
(3 -7.71679e-16 0)
(3 -4.74301e-16 0)
(3 7.57604e-16 0)
(3 1.60555e-15 0)
(3 1.60891e-15 0)
(3 1.14977e-15 0)
(3 -3.15068e-16 0)
(3 -1.46426e-15 0)
(3 -1.82154e-15 0)
(3 1.13024e-17 0)
(3 -2.83162e-16 0)
(3 3.21629e-16 0)
(3 4.10761e-16 0)
(3 6.4921e-16 0)
(3 1.41558e-16 0)
(3 1.59743e-16 0)
(3 6.59082e-16 0)
(3 1.12021e-15 0)
(3 5.84356e-16 0)
(3 -8.23412e-16 0)
(3 -1.55477e-15 0)
(3 -2.2432e-15 0)
(3 -3.58392e-15 0)
(3 -3.65894e-15 0)
(3 -3.85897e-15 0)
(3 -3.93552e-15 0)
(3 -2.98854e-15 0)
(3 -1.77659e-15 0)
(3 -1.5951e-15 0)
(3 -1.01071e-15 0)
(3 -7.40302e-16 0)
(3 -2.06571e-16 0)
(3 -5.01072e-17 0)
(3 1.32798e-15 0)
(3 1.92208e-15 0)
(3 1.7273e-15 0)
(3 1.38576e-15 0)
(3 1.54841e-15 0)
(3 2.01975e-15 0)
(3 2.58289e-15 0)
(3 3.00081e-15 0)
(3 3.37037e-15 0)
(3 2.23022e-15 0)
(3 1.24048e-15 0)
(3 1.58429e-15 0)
(3 1.75909e-15 0)
(3 1.23088e-15 0)
(3 8.99886e-16 0)
(3 8.92439e-16 0)
(3 1.13541e-15 0)
(3 1.21853e-15 0)
(3 1.43978e-15 0)
(3 1.52782e-15 0)
(3 1.27344e-15 0)
(3 1.90308e-15 0)
(3 1.40151e-15 0)
(3 7.91304e-16 0)
(3 1.27559e-15 0)
(3 2.18673e-15 0)
(3 2.21372e-15 0)
(3 2.06702e-15 0)
(3 1.10975e-15 0)
(3 9.25272e-16 0)
(3 9.70718e-16 0)
(3 1.39524e-15 0)
(3 1.53119e-15 0)
(3 1.27112e-15 0)
(3 7.87664e-16 0)
(3 4.58923e-16 0)
(3 -1.78163e-16 0)
(3 -8.3034e-16 0)
(3 -1.25939e-15 0)
(3 -1.36408e-15 0)
(3 -1.12956e-15 0)
(3 -1.58597e-15 0)
(3 -1.8128e-15 0)
(3 -1.02044e-15 0)
(3 -8.89753e-16 0)
(3 -1.28321e-16 0)
(3 3.08031e-15 0)
(3 5.01068e-15 0)
(3 4.35137e-15 0)
(3 3.02974e-15 0)
(3 1.18281e-15 0)
(3 -1.78102e-16 0)
(3 -8.28581e-16 0)
(3 -1.42286e-15 0)
(3 -2.19898e-15 0)
(3 -2.57821e-15 0)
(3 -3.52838e-15 0)
(3 -3.08629e-15 0)
(3 -5.14813e-16 0)
(3 1.41003e-16 0)
(3 1.04826e-15 0)
(3 3.87179e-16 0)
(3 -9.44659e-16 0)
(3 -1.42283e-15 0)
(3 -1.10974e-15 0)
(3 -1.98267e-16 0)
(3 3.59941e-16 0)
(3 -1.69331e-18 0)
(3 -1.11647e-15 0)
(3 -3.54438e-15 0)
(3 -4.01472e-15 0)
(3 -3.9348e-15 0)
(3 -2.288e-17 0)
(3 -5.72034e-17 0)
(3 3.06952e-16 0)
(3 1.29835e-16 0)
(3 1.83906e-16 0)
(3 1.65251e-16 0)
(3 3.66908e-16 0)
(3 1.61995e-15 0)
(3 9.8607e-16 0)
(3 1.94314e-16 0)
(3 -1.79581e-15 0)
(3 -2.0659e-15 0)
(3 -2.29315e-15 0)
(3 -2.5815e-15 0)
(3 -3.00281e-15 0)
(3 -3.51101e-15 0)
(3 -3.34774e-15 0)
(3 -2.72077e-15 0)
(3 -3.05406e-15 0)
(3 -2.09959e-15 0)
(3 -1.54082e-15 0)
(3 -1.19115e-15 0)
(3 -3.64255e-16 0)
(3 1.7813e-16 0)
(3 2.93231e-17 0)
(3 -3.52271e-16 0)
(3 -3.15023e-16 0)
(3 3.57084e-16 0)
(3 9.3868e-16 0)
(3 2.28352e-15 0)
(3 2.87774e-15 0)
(3 1.92948e-15 0)
(3 1.54541e-15 0)
(3 1.77542e-15 0)
(3 2.24376e-15 0)
(3 2.4948e-15 0)
(3 2.04884e-15 0)
(3 1.13809e-15 0)
(3 7.15457e-16 0)
(3 -1.43731e-17 0)
(3 -1.40276e-16 0)
(3 3.2729e-16 0)
(3 7.56661e-16 0)
(3 1.14753e-15 0)
(3 7.65884e-16 0)
(3 2.97076e-16 0)
(3 4.0321e-16 0)
(3 7.23008e-16 0)
(3 1.17123e-15 0)
(3 2.14647e-15 0)
(3 1.85633e-15 0)
(3 1.52774e-15 0)
(3 1.29582e-15 0)
(3 1.22892e-15 0)
(3 1.6678e-15 0)
(3 1.2769e-15 0)
(3 6.31312e-16 0)
(3 1.75777e-16 0)
(3 -1.17927e-16 0)
(3 -4.79215e-16 0)
(3 -1.26617e-15 0)
(3 -2.46859e-15 0)
(3 -2.82402e-15 0)
(3 -3.83098e-15 0)
(3 -6.1416e-15 0)
(3 -6.75253e-15 0)
(3 -6.95606e-15 0)
(3 -3.30033e-15 0)
(3 -1.10379e-16 0)
(3 1.74959e-15 0)
(3 1.54566e-15 0)
(3 1.55714e-15 0)
(3 1.95588e-15 0)
(3 1.76169e-15 0)
(3 8.05009e-16 0)
(3 -3.39409e-16 0)
(3 -5.81233e-16 0)
(3 -7.15576e-16 0)
(3 -7.6783e-16 0)
(3 -1.55082e-15 0)
(3 -3.79444e-15 0)
(3 -4.4275e-15 0)
(3 -3.46327e-15 0)
(3 -2.2246e-15 0)
(3 -9.24226e-16 0)
(3 -1.01522e-15 0)
(3 -1.84945e-15 0)
(3 -8.97878e-16 0)
(3 -3.30879e-16 0)
(3 5.66327e-16 0)
(3 7.27032e-16 0)
(3 -6.25072e-16 0)
(3 -2.40715e-15 0)
(3 -3.98289e-15 0)
(3 -4.14919e-15 0)
(3 -4.81217e-15 0)
(3 8.68818e-17 0)
(3 5.98249e-16 0)
(3 5.11574e-16 0)
(3 2.69033e-16 0)
(3 -1.65828e-16 0)
(3 7.38203e-16 0)
(3 1.6702e-15 0)
(3 1.23222e-15 0)
(3 2.8387e-16 0)
(3 -5.32004e-16 0)
(3 -3.55627e-16 0)
(3 1.87187e-16 0)
(3 3.52472e-16 0)
(3 -4.27995e-16 0)
(3 -2.86454e-16 0)
(3 8.09337e-17 0)
(3 -4.27083e-16 0)
(3 -1.48632e-15 0)
(3 -2.28772e-15 0)
(3 -2.53769e-15 0)
(3 -1.68265e-15 0)
(3 -1.47466e-15 0)
(3 -1.71046e-15 0)
(3 -1.38272e-15 0)
(3 -1.1099e-15 0)
(3 -7.83621e-16 0)
(3 -7.69747e-16 0)
(3 -5.04286e-16 0)
(3 3.44664e-17 0)
(3 1.43067e-16 0)
(3 2.05316e-16 0)
(3 5.46529e-16 0)
(3 6.42085e-16 0)
(3 1.20104e-15 0)
(3 1.52944e-15 0)
(3 1.56051e-15 0)
(3 1.85915e-15 0)
(3 1.52375e-15 0)
(3 8.06453e-16 0)
(3 6.75406e-16 0)
(3 -7.70639e-18 0)
(3 -3.49236e-16 0)
(3 -1.30674e-16 0)
(3 1.66945e-16 0)
(3 6.70704e-17 0)
(3 -6.98077e-16 0)
(3 -7.0296e-16 0)
(3 -1.21591e-16 0)
(3 1.07634e-15 0)
(3 1.77284e-15 0)
(3 2.05344e-15 0)
(3 2.44143e-15 0)
(3 3.09004e-15 0)
(3 2.85851e-15 0)
(3 2.20161e-15 0)
(3 1.31097e-15 0)
(3 1.62342e-16 0)
(3 -1.00325e-15 0)
(3 -1.66147e-15 0)
(3 -1.78092e-15 0)
(3 -1.65642e-15 0)
(3 -2.05547e-15 0)
(3 -2.91311e-15 0)
(3 -3.4339e-15 0)
(3 -4.16904e-15 0)
(3 -5.45941e-15 0)
(3 -4.63014e-15 0)
(3 -2.96682e-15 0)
(3 -5.81506e-16 0)
(3 6.82839e-16 0)
(3 1.70382e-16 0)
(3 -1.5246e-15 0)
(3 -1.71567e-15 0)
(3 -7.45695e-16 0)
(3 -2.15335e-19 0)
(3 -2.93293e-16 0)
(3 -5.17385e-16 0)
(3 -3.02236e-16 0)
(3 -4.08492e-16 0)
(3 -1.46019e-15 0)
(3 -2.22168e-15 0)
(3 -2.53864e-15 0)
(3 -2.72204e-15 0)
(3 -1.50487e-15 0)
(3 -6.38323e-16 0)
(3 5.208e-16 0)
(3 8.29992e-16 0)
(3 6.85058e-16 0)
(3 1.34394e-15 0)
(3 1.52018e-15 0)
(3 2.04431e-15 0)
(3 2.08127e-15 0)
(3 1.36055e-15 0)
(3 -3.34911e-16 0)
(3 -4.83736e-16 0)
(3 -1.14693e-15 0)
(3 9.16215e-17 0)
(3 1.09309e-15 0)
(3 7.23374e-16 0)
(3 4.8673e-16 0)
(3 -5.09461e-17 0)
(3 -3.32503e-16 0)
(3 -3.79649e-16 0)
(3 -5.96685e-17 0)
(3 3.0594e-16 0)
(3 5.79276e-16 0)
(3 9.66284e-16 0)
(3 2.22238e-15 0)
(3 2.75218e-15 0)
(3 2.12988e-15 0)
(3 1.44703e-15 0)
(3 7.5135e-16 0)
(3 -4.32606e-16 0)
(3 -1.30216e-15 0)
(3 -1.23636e-15 0)
(3 -1.75806e-15 0)
(3 -1.94317e-15 0)
(3 -2.20157e-15 0)
(3 -2.48447e-15 0)
(3 -2.66349e-15 0)
(3 -3.00209e-15 0)
(3 -1.79307e-15 0)
(3 -9.67825e-16 0)
(3 -1.18921e-15 0)
(3 -8.25273e-16 0)
(3 -4.57476e-16 0)
(3 5.83929e-17 0)
(3 1.30777e-15 0)
(3 1.53905e-15 0)
(3 9.84312e-16 0)
(3 6.59499e-16 0)
(3 7.65071e-16 0)
(3 1.58354e-15 0)
(3 1.62137e-15 0)
(3 1.2419e-15 0)
(3 1.11541e-15 0)
(3 4.2025e-16 0)
(3 -6.71831e-16 0)
(3 -1.01252e-15 0)
(3 -1.31081e-15 0)
(3 -6.85889e-16 0)
(3 -6.14802e-17 0)
(3 2.18436e-16 0)
(3 8.24533e-16 0)
(3 1.37445e-15 0)
(3 1.48478e-15 0)
(3 3.03377e-15 0)
(3 3.18439e-15 0)
(3 3.144e-15 0)
(3 2.9086e-15 0)
(3 2.05958e-15 0)
(3 4.74089e-16 0)
(3 -2.184e-16 0)
(3 -4.7026e-16 0)
(3 -1.14285e-15 0)
(3 -1.93169e-15 0)
(3 -1.66439e-15 0)
(3 -1.6047e-15 0)
(3 -1.57054e-15 0)
(3 -1.26736e-15 0)
(3 -6.0047e-16 0)
(3 -6.05352e-16 0)
(3 -5.26839e-16 0)
(3 -5.95909e-16 0)
(3 -1.13167e-16 0)
(3 -1.09158e-16 0)
(3 -1.18786e-15 0)
(3 -1.35938e-15 0)
(3 -1.43036e-15 0)
(3 -1.15294e-15 0)
(3 -1.25025e-15 0)
(3 -1.94648e-15 0)
(3 -2.67969e-15 0)
(3 -2.02553e-15 0)
(3 -1.31475e-15 0)
(3 -8.66095e-16 0)
(3 3.53734e-17 0)
(3 1.25011e-16 0)
(3 -2.6886e-16 0)
(3 -5.52372e-16 0)
(3 -2.29801e-16 0)
(3 1.09856e-15 0)
(3 1.57055e-15 0)
(3 1.4468e-15 0)
(3 1.12709e-15 0)
(3 8.85294e-16 0)
(3 1.57916e-15 0)
(3 2.58559e-15 0)
(3 2.47501e-15 0)
(3 2.25e-15 0)
(3 1.6183e-15 0)
(3 1.09985e-15 0)
(3 -8.95106e-17 0)
(3 2.47795e-16 0)
(3 4.72578e-16 0)
(3 4.98858e-16 0)
(3 5.0864e-16 0)
(3 1.28798e-16 0)
(3 -1.32661e-16 0)
(3 7.96646e-17 0)
(3 5.12388e-16 0)
(3 9.6856e-16 0)
(3 1.17658e-15 0)
(3 8.68941e-16 0)
(3 7.99289e-16 0)
(3 1.08691e-15 0)
(3 1.14879e-15 0)
(3 8.5118e-16 0)
(3 1.0676e-15 0)
(3 1.17344e-15 0)
(3 8.96382e-16 0)
(3 9.18475e-16 0)
(3 5.09966e-16 0)
(3 -1.3116e-16 0)
(3 -2.67168e-16 0)
(3 -8.1249e-16 0)
(3 -1.30196e-15 0)
(3 -2.13574e-15 0)
(3 -2.5924e-15 0)
(3 -1.90331e-15 0)
(3 -1.02989e-15 0)
(3 -3.17084e-16 0)
(3 3.81189e-16 0)
(3 7.24014e-16 0)
(3 7.19108e-16 0)
(3 2.35341e-16 0)
(3 3.99297e-16 0)
(3 9.22898e-16 0)
(3 4.89261e-16 0)
(3 4.47262e-16 0)
(3 9.63483e-16 0)
(3 7.56722e-16 0)
(3 6.26761e-16 0)
(3 1.23171e-15 0)
(3 1.61789e-15 0)
(3 1.64531e-15 0)
(3 1.77472e-15 0)
(3 1.92558e-15 0)
(3 1.83036e-15 0)
(3 1.77808e-15 0)
(3 1.19749e-15 0)
(3 -1.92916e-16 0)
(3 7.65679e-17 0)
(3 6.43251e-16 0)
(3 1.01932e-15 0)
(3 7.35997e-16 0)
(3 7.55575e-16 0)
(3 4.72845e-16 0)
(3 1.14954e-15 0)
(3 8.18418e-16 0)
(3 6.80522e-16 0)
(3 2.01485e-16 0)
(3 -4.46793e-16 0)
(3 -3.73826e-16 0)
(3 -9.53761e-17 0)
(3 8.00342e-16 0)
(3 6.90919e-16 0)
(3 9.97938e-16 0)
(3 1.09723e-15 0)
(3 9.01485e-16 0)
(3 6.39229e-16 0)
(3 -1.42854e-16 0)
(3 -4.31825e-16 0)
(3 -2.37545e-16 0)
(3 6.19208e-16 0)
(3 3.85474e-16 0)
(3 -9.40032e-16 0)
(3 -1.84812e-15 0)
(3 -2.81296e-15 0)
(3 -2.73104e-15 0)
(3 -1.54689e-15 0)
(3 6.56151e-17 0)
(3 4.4723e-16 0)
(3 -3.82775e-16 0)
(3 -7.28557e-16 0)
(3 -5.95511e-16 0)
(3 3.85553e-16 0)
(3 1.95819e-15 0)
(3 1.95821e-15 0)
(3 1.49713e-15 0)
(3 1.0364e-15 0)
(3 1.30959e-15 0)
(3 1.51447e-15 0)
(3 1.98124e-15 0)
(3 1.90933e-15 0)
(3 1.87649e-15 0)
(3 2.05411e-15 0)
(3 2.17692e-15 0)
(3 -1.60198e-16 0)
(3 -1.69932e-16 0)
(3 1.89747e-16 0)
(3 3.74876e-16 0)
(3 2.80474e-16 0)
(3 3.65653e-16 0)
(3 -2.04123e-16 0)
(3 -8.27208e-16 0)
(3 -4.52203e-16 0)
(3 -1.64368e-16 0)
(3 2.72275e-16 0)
(3 1.91939e-18 0)
(3 -8.78003e-17 0)
(3 5.8567e-16 0)
(3 1.29491e-15 0)
(3 1.6565e-15 0)
(3 1.69899e-15 0)
(3 1.62771e-15 0)
(3 2.61959e-15 0)
(3 2.80108e-15 0)
(3 2.88763e-15 0)
(3 3.11192e-15 0)
(3 1.32739e-15 0)
(3 -1.63398e-16 0)
(3 -8.26391e-16 0)
(3 -9.74017e-16 0)
(3 -9.0225e-16 0)
(3 -1.02289e-15 0)
(3 -6.81098e-16 0)
(3 1.79428e-16 0)
(3 1.73246e-16 0)
(3 -2.87672e-16 0)
(3 1.61039e-17 0)
(3 2.67481e-16 0)
(3 5.39026e-16 0)
(3 5.00887e-16 0)
(3 -3.07656e-16 0)
(3 -3.31238e-16 0)
(3 7.57556e-17 0)
(3 4.99868e-16 0)
(3 1.12853e-15 0)
(3 2.37846e-15 0)
(3 2.4434e-15 0)
(3 2.28336e-15 0)
(3 1.80311e-15 0)
(3 2.22516e-15 0)
(3 2.00219e-15 0)
(3 1.48654e-15 0)
(3 5.09557e-16 0)
(3 -1.74765e-16 0)
(3 -1.27613e-15 0)
(3 -1.31888e-15 0)
(3 -1.30816e-15 0)
(3 -7.25395e-16 0)
(3 3.95625e-16 0)
(3 2.23142e-15 0)
(3 3.66194e-15 0)
(3 2.91668e-15 0)
(3 2.42467e-15 0)
(3 4.32356e-16 0)
(3 -9.38449e-16 0)
(3 -1.12002e-15 0)
(3 -1.39552e-16 0)
(3 3.1931e-16 0)
(3 2.56037e-16 0)
(3 7.08024e-16 0)
(3 8.79484e-16 0)
(3 4.11738e-16 0)
(3 -8.48732e-17 0)
(3 -6.44496e-16 0)
(3 -3.06907e-16 0)
(3 2.8194e-16 0)
(3 3.04159e-16 0)
(3 7.05597e-16 0)
(3 1.09057e-15 0)
(3 9.01745e-16 0)
(3 8.63606e-16 0)
(3 2.82559e-16 0)
(3 -2.68873e-16 0)
(3 -2.02514e-15 0)
(3 -2.46677e-15 0)
(3 -3.07252e-15 0)
(3 -3.25302e-15 0)
(3 -2.3432e-15 0)
(3 -1.32706e-15 0)
(3 1.28755e-16 0)
(3 9.89858e-16 0)
(3 1.09207e-15 0)
(3 1.09438e-15 0)
(3 6.92003e-16 0)
(3 2.71022e-16 0)
(3 1.07874e-15 0)
(3 1.68409e-15 0)
(3 1.80835e-15 0)
(3 2.67047e-15 0)
(3 2.7338e-15 0)
(3 1.42689e-16 0)
(3 -1.68458e-16 0)
(3 -4.54317e-16 0)
(3 -7.48989e-16 0)
(3 -9.96031e-16 0)
(3 -9.5303e-16 0)
(3 -1.3924e-15 0)
(3 -7.62395e-16 0)
(3 2.10263e-16 0)
(3 3.24772e-17 0)
(3 -2.86885e-16 0)
(3 3.37761e-16 0)
(3 8.3494e-16 0)
(3 7.11336e-16 0)
(3 4.5097e-16 0)
(3 9.61868e-17 0)
(3 5.58777e-16 0)
(3 7.75302e-16 0)
(3 4.87815e-16 0)
(3 6.3889e-16 0)
(3 8.35349e-16 0)
(3 1.40527e-15 0)
(3 8.77774e-16 0)
(3 -3.48931e-17 0)
(3 -3.79159e-16 0)
(3 6.21049e-18 0)
(3 8.4105e-16 0)
(3 8.09224e-17 0)
(3 -9.86523e-17 0)
(3 1.49765e-16 0)
(3 7.2556e-17 0)
(3 6.72219e-17 0)
(3 2.91209e-16 0)
(3 3.94304e-16 0)
(3 3.55741e-16 0)
(3 1.64723e-16 0)
(3 6.32298e-17 0)
(3 -3.28494e-16 0)
(3 -2.58189e-16 0)
(3 4.0479e-16 0)
(3 1.29146e-15 0)
(3 1.2881e-15 0)
(3 8.88615e-16 0)
(3 5.55482e-16 0)
(3 4.83267e-16 0)
(3 7.55197e-16 0)
(3 1.22834e-15 0)
(3 2.42138e-16 0)
(3 -2.06972e-17 0)
(3 -9.1171e-17 0)
(3 -3.78464e-16 0)
(3 -7.99142e-16 0)
(3 -1.87765e-15 0)
(3 -1.86837e-15 0)
(3 -1.01304e-15 0)
(3 4.31506e-16 0)
(3 1.86022e-15 0)
(3 1.73143e-15 0)
(3 1.16345e-15 0)
(3 1.4101e-15 0)
(3 1.23201e-15 0)
(3 1.15666e-15 0)
(3 3.59639e-16 0)
(3 1.52716e-16 0)
(3 8.17876e-16 0)
(3 1.61663e-15 0)
(3 1.43754e-15 0)
(3 2.23085e-16 0)
(3 7.26634e-16 0)
(3 1.18801e-15 0)
(3 6.72263e-16 0)
(3 4.66933e-16 0)
(3 8.62836e-16 0)
(3 9.75126e-16 0)
(3 1.80879e-15 0)
(3 2.30806e-15 0)
(3 2.12864e-15 0)
(3 1.06904e-15 0)
(3 -8.50339e-16 0)
(3 -2.5193e-15 0)
(3 -2.76212e-15 0)
(3 -1.66369e-15 0)
(3 -1.28793e-15 0)
(3 -1.63622e-15 0)
(3 -8.02682e-16 0)
(3 2.74636e-16 0)
(3 1.14626e-15 0)
(3 2.16415e-15 0)
(3 2.36979e-15 0)
(3 1.61202e-15 0)
(3 1.29695e-15 0)
(3 1.74454e-15 0)
(3 2.73548e-15 0)
(3 3.22231e-15 0)
(3 3.20981e-15 0)
(3 3.31336e-15 0)
(3 -1.05052e-16 0)
(3 -2.79738e-16 0)
(3 -2.20257e-16 0)
(3 -5.04589e-16 0)
(3 -5.53585e-16 0)
(3 -3.69305e-16 0)
(3 2.34063e-16 0)
(3 1.38015e-15 0)
(3 1.19906e-15 0)
(3 2.25327e-16 0)
(3 -2.51586e-16 0)
(3 -1.52994e-16 0)
(3 1.63806e-16 0)
(3 2.68046e-16 0)
(3 -4.29951e-16 0)
(3 -7.63629e-16 0)
(3 -1.98176e-16 0)
(3 -5.57432e-17 0)
(3 -1.09936e-15 0)
(3 -7.40439e-16 0)
(3 -8.1054e-16 0)
(3 1.25865e-16 0)
(3 1.08412e-15 0)
(3 1.1132e-15 0)
(3 1.21937e-15 0)
(3 1.03499e-15 0)
(3 8.44713e-16 0)
(3 1.14166e-15 0)
(3 1.04318e-15 0)
(3 8.73667e-16 0)
(3 6.27719e-16 0)
(3 5.29525e-16 0)
(3 4.57978e-16 0)
(3 6.18375e-16 0)
(3 5.56849e-16 0)
(3 5.92519e-16 0)
(3 5.18843e-16 0)
(3 2.55052e-16 0)
(3 3.49831e-16 0)
(3 7.96959e-16 0)
(3 6.03991e-16 0)
(3 2.27683e-16 0)
(3 8.59385e-17 0)
(3 1.68192e-16 0)
(3 3.03855e-16 0)
(3 4.27495e-17 0)
(3 6.47627e-17 0)
(3 3.53433e-16 0)
(3 2.43782e-16 0)
(3 1.23321e-17 0)
(3 4.30458e-17 0)
(3 -2.30773e-16 0)
(3 -1.33475e-15 0)
(3 -1.87563e-15 0)
(3 -1.72774e-15 0)
(3 -1.64212e-15 0)
(3 -1.39242e-15 0)
(3 -3.15671e-16 0)
(3 9.14826e-16 0)
(3 2.11962e-15 0)
(3 2.30192e-15 0)
(3 1.7903e-15 0)
(3 5.20233e-16 0)
(3 -7.02068e-17 0)
(3 9.10348e-16 0)
(3 1.91119e-15 0)
(3 2.15839e-15 0)
(3 2.72661e-15 0)
(3 2.36508e-15 0)
(3 1.86887e-15 0)
(3 1.7829e-15 0)
(3 1.93058e-15 0)
(3 2.23683e-15 0)
(3 9.02297e-16 0)
(3 3.64387e-16 0)
(3 6.78893e-16 0)
(3 2.06214e-16 0)
(3 -9.15285e-16 0)
(3 -1.66456e-15 0)
(3 -1.45171e-15 0)
(3 -1.11719e-15 0)
(3 -1.57744e-16 0)
(3 9.54577e-16 0)
(3 1.22311e-15 0)
(3 1.30858e-15 0)
(3 1.21405e-15 0)
(3 1.43886e-15 0)
(3 1.79802e-15 0)
(3 2.22361e-15 0)
(3 2.35373e-15 0)
(3 1.97231e-15 0)
(3 1.84624e-15 0)
(3 1.9633e-15 0)
(3 1.91029e-15 0)
(3 1.53437e-15 0)
(3 6.50224e-16 0)
(3 -4.25489e-17 0)
(3 1.501e-16 0)
(3 1.14139e-16 0)
(3 -7.81975e-17 0)
(3 -3.31753e-16 0)
(3 -6.17664e-17 0)
(3 2.41742e-16 0)
(3 7.93121e-16 0)
(3 4.64117e-16 0)
(3 7.65551e-16 0)
(3 6.95957e-16 0)
(3 4.13336e-16 0)
(3 4.1259e-16 0)
(3 4.78337e-16 0)
(3 8.71029e-16 0)
(3 2.58641e-16 0)
(3 -2.56745e-16 0)
(3 -4.97962e-16 0)
(3 -1.78752e-16 0)
(3 3.68353e-16 0)
(3 5.51073e-16 0)
(3 1.27122e-15 0)
(3 1.75399e-15 0)
(3 1.98965e-15 0)
(3 1.70622e-15 0)
(3 1.148e-15 0)
(3 9.74927e-16 0)
(3 1.96394e-15 0)
(3 2.22832e-15 0)
(3 1.82622e-15 0)
(3 1.78074e-15 0)
(3 1.35851e-15 0)
(3 1.34847e-15 0)
(3 1.36332e-15 0)
(3 1.3177e-15 0)
(3 1.20072e-15 0)
(3 1.14238e-15 0)
(3 1.80932e-15 0)
(3 1.9454e-15 0)
(3 1.10149e-15 0)
(3 -1.23016e-17 0)
(3 -1.18178e-16 0)
(3 4.62722e-16 0)
(3 5.1134e-16 0)
(3 3.12871e-16 0)
(3 4.14418e-16 0)
(3 4.26956e-16 0)
(3 1.0997e-15 0)
(3 2.76526e-16 0)
(3 -1.88456e-15 0)
(3 -2.45321e-15 0)
(3 -2.53043e-15 0)
(3 -2.25237e-15 0)
(3 -1.85276e-15 0)
(3 -1.8498e-15 0)
(3 -2.21487e-15 0)
(3 -1.92965e-15 0)
(3 -4.60166e-16 0)
(3 9.9697e-16 0)
(3 1.98901e-15 0)
(3 1.70391e-15 0)
(3 1.19384e-15 0)
(3 1.0233e-15 0)
(3 1.16451e-15 0)
(3 3.76186e-16 0)
(3 1.57648e-16 0)
(3 1.77918e-15 0)
(3 2.66375e-15 0)
(3 2.74036e-15 0)
(3 2.75437e-15 0)
(3 2.57318e-15 0)
(3 1.57999e-15 0)
(3 7.94357e-16 0)
(3 -3.56777e-16 0)
(3 -9.65332e-16 0)
(3 -5.72346e-16 0)
(3 -1.81595e-15 0)
(3 -3.30492e-15 0)
(3 -3.58606e-15 0)
(3 -1.42951e-15 0)
(3 -7.4127e-16 0)
(3 -8.6713e-16 0)
(3 1.53943e-15 0)
(3 2.86659e-15 0)
(3 2.82838e-15 0)
(3 1.60508e-15 0)
(3 1.74148e-15 0)
(3 2.26601e-15 0)
(3 1.4642e-15 0)
(3 8.7106e-16 0)
(3 7.6507e-16 0)
(3 2.88948e-16 0)
(3 7.76763e-16 0)
(3 1.32276e-16 0)
(3 -6.25057e-16 0)
(3 -1.38737e-15 0)
(3 8.49808e-17 0)
(3 3.89051e-16 0)
(3 2.44305e-16 0)
(3 2.90664e-16 0)
(3 3.94141e-16 0)
(3 3.73414e-16 0)
(3 -3.59175e-16 0)
(3 -1.51203e-15 0)
(3 -1.06989e-15 0)
(3 -3.28584e-16 0)
(3 6.84144e-17 0)
(3 1.08404e-16 0)
(3 1.11864e-16 0)
(3 3.69895e-16 0)
(3 8.56505e-16 0)
(3 1.3969e-15 0)
(3 1.07091e-15 0)
(3 2.29601e-16 0)
(3 6.64902e-16 0)
(3 1.23974e-15 0)
(3 1.72275e-15 0)
(3 1.8222e-15 0)
(3 6.3861e-16 0)
(3 6.34506e-17 0)
(3 3.36881e-16 0)
(3 5.62099e-16 0)
(3 8.00037e-16 0)
(3 3.19761e-16 0)
(3 -2.76905e-17 0)
(3 1.73132e-16 0)
(3 2.99982e-16 0)
(3 1.36722e-16 0)
(3 -3.35394e-17 0)
(3 2.274e-16 0)
(3 2.81195e-16 0)
(3 5.75473e-16 0)
(3 1.20735e-15 0)
(3 1.57662e-15 0)
(3 1.50063e-15 0)
(3 1.25181e-15 0)
(3 1.15961e-15 0)
(3 1.88371e-15 0)
(3 2.28896e-15 0)
(3 2.11091e-15 0)
(3 2.15406e-15 0)
(3 1.89364e-15 0)
(3 1.76582e-15 0)
(3 1.4679e-15 0)
(3 2.56954e-16 0)
(3 -2.82168e-16 0)
(3 -6.05861e-16 0)
(3 -5.73262e-16 0)
(3 -4.19371e-16 0)
(3 -4.83549e-16 0)
(3 -7.52434e-16 0)
(3 -4.65652e-16 0)
(3 1.4145e-16 0)
(3 7.12917e-16 0)
(3 1.3291e-15 0)
(3 1.61583e-15 0)
(3 1.78335e-15 0)
(3 1.75358e-15 0)
(3 2.13807e-15 0)
(3 1.68317e-15 0)
(3 2.93072e-16 0)
(3 -8.3877e-16 0)
(3 -6.34031e-17 0)
(3 6.36778e-16 0)
(3 1.46336e-15 0)
(3 1.71772e-15 0)
(3 1.22259e-15 0)
(3 -4.05257e-16 0)
(3 -1.10313e-15 0)
(3 -1.09091e-15 0)
(3 -1.30854e-15 0)
(3 -1.95817e-15 0)
(3 -3.36099e-15 0)
(3 -3.89474e-15 0)
(3 -3.33592e-15 0)
(3 -2.10192e-15 0)
(3 -1.45692e-15 0)
(3 -1.48744e-15 0)
(3 -2.80278e-16 0)
(3 8.69834e-16 0)
(3 1.38373e-15 0)
(3 1.77926e-15 0)
(3 2.13558e-15 0)
(3 1.96475e-15 0)
(3 1.10837e-15 0)
(3 7.72782e-16 0)
(3 9.89421e-16 0)
(3 1.43718e-15 0)
(3 -7.4058e-17 0)
(3 -1.21824e-15 0)
(3 -2.67483e-15 0)
(3 -2.47367e-15 0)
(3 -1.64576e-16 0)
(3 -1.38229e-16 0)
(3 -8.05452e-17 0)
(3 3.05254e-16 0)
(3 1.10503e-15 0)
(3 1.1479e-15 0)
(3 9.18537e-16 0)
(3 -3.84083e-16 0)
(3 -1.67215e-15 0)
(3 -2.28317e-15 0)
(3 -1.50403e-15 0)
(3 -8.31856e-16 0)
(3 -6.53621e-16 0)
(3 -2.03154e-16 0)
(3 -2.88995e-16 0)
(3 -6.44087e-16 0)
(3 -5.05446e-16 0)
(3 1.78427e-16 0)
(3 5.32132e-16 0)
(3 8.95241e-16 0)
(3 5.78672e-16 0)
(3 -5.44151e-16 0)
(3 -1.24418e-15 0)
(3 -1.41303e-15 0)
(3 -1.31354e-15 0)
(3 -1.26326e-15 0)
(3 -1.39801e-15 0)
(3 -1.16246e-15 0)
(3 -1.10647e-15 0)
(3 -1.17507e-15 0)
(3 -1.27004e-15 0)
(3 -9.29031e-16 0)
(3 -7.25333e-16 0)
(3 -8.10806e-16 0)
(3 -5.55876e-16 0)
(3 -7.50255e-17 0)
(3 7.12153e-16 0)
(3 4.44021e-16 0)
(3 5.26145e-16 0)
(3 6.08911e-16 0)
(3 6.54926e-16 0)
(3 4.82891e-16 0)
(3 7.41997e-16 0)
(3 1.50286e-15 0)
(3 1.96586e-15 0)
(3 1.46234e-15 0)
(3 1.24744e-15 0)
(3 1.20753e-15 0)
(3 1.09592e-16 0)
(3 4.32535e-16 0)
(3 4.47824e-16 0)
(3 3.4732e-16 0)
(3 3.22458e-17 0)
(3 -8.90018e-16 0)
(3 2.28256e-16 0)
(3 8.89368e-16 0)
(3 1.28507e-15 0)
(3 1.08206e-15 0)
(3 8.30616e-16 0)
(3 6.93026e-16 0)
(3 1.6537e-15 0)
(3 2.79669e-15 0)
(3 3.58084e-15 0)
(3 3.28913e-15 0)
(3 2.37032e-15 0)
(3 1.20504e-15 0)
(3 4.75024e-16 0)
(3 3.63229e-16 0)
(3 -5.17517e-16 0)
(3 -1.3355e-15 0)
(3 -4.20981e-16 0)
(3 -2.37051e-16 0)
(3 2.84912e-16 0)
(3 1.1401e-16 0)
(3 -8.71275e-16 0)
(3 -1.48842e-15 0)
(3 -1.51079e-15 0)
(3 -1.78019e-15 0)
(3 -1.40376e-15 0)
(3 -9.90338e-16 0)
(3 -1.27721e-15 0)
(3 -1.30587e-15 0)
(3 -1.70206e-15 0)
(3 -1.44781e-15 0)
(3 -9.17422e-16 0)
(3 -4.43277e-16 0)
(3 -6.74371e-16 0)
(3 -1.23409e-15 0)
(3 -1.31037e-15 0)
(3 -1.09249e-15 0)
(3 -5.32782e-16 0)
(3 -1.95792e-17 0)
(3 -7.93054e-16 0)
(3 -1.96676e-15 0)
(3 -1.12795e-15 0)
(3 -1.28204e-15 0)
(3 1.10305e-16 0)
(3 -1.48877e-16 0)
(3 -6.59569e-16 0)
(3 -6.97085e-16 0)
(3 -5.93288e-16 0)
(3 -3.75487e-16 0)
(3 2.8881e-17 0)
(3 7.84542e-17 0)
(3 -1.25544e-16 0)
(3 -1.36242e-15 0)
(3 -1.97873e-15 0)
(3 -1.18706e-15 0)
(3 -1.07192e-15 0)
(3 -1.45041e-15 0)
(3 -1.52388e-15 0)
(3 -1.68005e-15 0)
(3 -1.3115e-15 0)
(3 -8.00918e-16 0)
(3 -4.18857e-16 0)
(3 -8.40673e-16 0)
(3 -9.57912e-16 0)
(3 -9.84169e-16 0)
(3 -5.40218e-16 0)
(3 -3.68302e-16 0)
(3 -5.8465e-16 0)
(3 -7.32353e-16 0)
(3 -8.21531e-16 0)
(3 -4.58034e-16 0)
(3 -2.02054e-16 0)
(3 -3.65046e-16 0)
(3 -3.87912e-16 0)
(3 5.60815e-19 0)
(3 -1.00798e-16 0)
(3 -6.7571e-16 0)
(3 -3.89881e-16 0)
(3 -5.43491e-16 0)
(3 -1.06129e-16 0)
(3 6.24301e-17 0)
(3 2.4464e-16 0)
(3 3.20058e-16 0)
(3 2.21314e-16 0)
(3 -1.37962e-16 0)
(3 1.73854e-16 0)
(3 8.20514e-16 0)
(3 7.43232e-16 0)
(3 4.49675e-16 0)
(3 2.91434e-16 0)
(3 -3.11019e-16 0)
(3 -3.81616e-16 0)
(3 -8.14072e-16 0)
(3 -1.91807e-15 0)
(3 -2.61704e-15 0)
(3 -2.80472e-15 0)
(3 -2.59578e-15 0)
(3 -1.74174e-15 0)
(3 -1.76724e-16 0)
(3 1.67566e-16 0)
(3 2.89227e-16 0)
(3 2.9772e-16 0)
(3 5.7022e-16 0)
(3 1.35749e-15 0)
(3 1.77625e-15 0)
(3 2.13894e-15 0)
(3 2.7863e-15 0)
(3 2.75843e-15 0)
(3 3.02508e-15 0)
(3 8.05882e-16 0)
(3 -5.2286e-16 0)
(3 -1.62657e-15 0)
(3 -8.77047e-16 0)
(3 -1.44919e-16 0)
(3 1.22306e-15 0)
(3 1.07842e-15 0)
(3 4.86235e-16 0)
(3 -8.02206e-16 0)
(3 -9.74368e-16 0)
(3 -1.34643e-15 0)
(3 -1.44417e-15 0)
(3 -1.36434e-15 0)
(3 -1.32019e-15 0)
(3 -1.35124e-15 0)
(3 -1.36659e-15 0)
(3 -2.00297e-15 0)
(3 -2.4847e-15 0)
(3 -1.82992e-15 0)
(3 -4.7386e-16 0)
(3 -1.25795e-16 0)
(3 -1.35837e-16 0)
(3 -3.53658e-16 0)
(3 -1.31092e-15 0)
(3 -2.48815e-15 0)
(3 -2.68335e-15 0)
(3 -2.2996e-15 0)
(3 -1.28213e-15 0)
(3 -6.88326e-16 0)
(3 1.39725e-17 0)
(3 1.73949e-16 0)
(3 4.97902e-17 0)
(3 -2.18108e-16 0)
(3 -9.69498e-16 0)
(3 -1.45542e-15 0)
(3 -1.71578e-15 0)
(3 -1.21834e-15 0)
(3 -1.00451e-15 0)
(3 -1.85598e-16 0)
(3 5.71239e-16 0)
(3 4.2248e-16 0)
(3 -1.43881e-16 0)
(3 2.08894e-16 0)
(3 5.80603e-17 0)
(3 -1.42855e-16 0)
(3 -2.69554e-16 0)
(3 -1.89788e-16 0)
(3 -1.33961e-16 0)
(3 -3.56519e-16 0)
(3 -1.20255e-15 0)
(3 -1.29988e-15 0)
(3 -6.14812e-16 0)
(3 -6.38007e-16 0)
(3 -9.76992e-16 0)
(3 -4.9502e-16 0)
(3 2.85078e-16 0)
(3 6.58168e-16 0)
(3 1.85178e-16 0)
(3 3.06846e-16 0)
(3 3.76218e-16 0)
(3 1.12257e-16 0)
(3 -9.20438e-16 0)
(3 -1.13189e-15 0)
(3 -9.44683e-17 0)
(3 5.73693e-17 0)
(3 -1.14107e-16 0)
(3 2.37762e-17 0)
(3 1.58329e-16 0)
(3 -9.65087e-17 0)
(3 -5.22938e-16 0)
(3 -3.77435e-16 0)
(3 4.66611e-16 0)
(3 9.42415e-16 0)
(3 8.74948e-16 0)
(3 9.35285e-16 0)
(3 1.08775e-15 0)
(3 7.85512e-16 0)
(3 1.73976e-16 0)
(3 3.83515e-16 0)
(3 1.421e-16 0)
(3 -8.93139e-18 0)
(3 -5.68304e-16 0)
(3 -8.961e-16 0)
(3 -1.33312e-15 0)
(3 -6.36015e-16 0)
(3 1.32137e-16 0)
(3 9.68941e-17 0)
(3 1.57497e-16 0)
(3 5.0932e-16 0)
(3 8.16252e-16 0)
(3 9.67358e-16 0)
(3 7.26782e-16 0)
(3 5.73774e-18 0)
(3 -3.02008e-16 0)
(3 8.11967e-16 0)
(3 7.95577e-16 0)
(3 9.04212e-17 0)
(3 -1.00766e-15 0)
(3 -1.0696e-15 0)
(3 -6.44105e-16 0)
(3 -1.0659e-16 0)
(3 1.46006e-15 0)
(3 1.45192e-15 0)
(3 1.14441e-15 0)
(3 3.91753e-16 0)
(3 -1.72286e-16 0)
(3 -8.88847e-16 0)
(3 -1.06084e-15 0)
(3 -9.99281e-16 0)
(3 -4.68274e-16 0)
(3 -5.90279e-16 0)
(3 -9.02775e-16 0)
(3 -9.93283e-16 0)
(3 -1.49796e-15 0)
(3 -2.0983e-15 0)
(3 -1.50744e-15 0)
(3 -1.515e-15 0)
(3 -1.88179e-15 0)
(3 -2.84589e-15 0)
(3 -2.51935e-15 0)
(3 -2.93781e-15 0)
(3 -3.2663e-15 0)
(3 -2.84526e-15 0)
(3 -1.81582e-15 0)
(3 -1.44274e-15 0)
(3 -9.6223e-16 0)
(3 -6.75812e-17 0)
(3 2.06541e-16 0)
(3 7.25477e-16 0)
(3 5.6323e-16 0)
(3 -9.46297e-17 0)
(3 -4.01134e-16 0)
(3 -5.26696e-16 0)
(3 -2.05292e-16 0)
(3 3.2127e-16 0)
(3 6.91226e-16 0)
(3 9.96227e-16 0)
(3 -2.17728e-16 0)
(3 -7.16963e-16 0)
(3 -3.98324e-16 0)
(3 -4.60362e-16 0)
(3 -6.05301e-16 0)
(3 -5.41223e-16 0)
(3 -4.398e-16 0)
(3 -7.51311e-16 0)
(3 -1.35138e-15 0)
(3 -1.45945e-15 0)
(3 -1.73801e-15 0)
(3 -2.24504e-15 0)
(3 -2.14707e-15 0)
(3 -1.98282e-15 0)
(3 -1.09649e-15 0)
(3 -7.40931e-16 0)
(3 3.11348e-16 0)
(3 2.29366e-16 0)
(3 4.71239e-16 0)
(3 4.17681e-16 0)
(3 7.09187e-17 0)
(3 3.22131e-16 0)
(3 5.43668e-16 0)
(3 8.3938e-16 0)
(3 7.94451e-16 0)
(3 -5.79218e-17 0)
(3 -1.35512e-15 0)
(3 -1.56908e-15 0)
(3 -1.80842e-15 0)
(3 -1.07844e-15 0)
(3 -7.10177e-16 0)
(3 -4.69435e-16 0)
(3 -4.95048e-16 0)
(3 1.63744e-16 0)
(3 7.45039e-16 0)
(3 3.65094e-16 0)
(3 4.49066e-16 0)
(3 9.17326e-16 0)
(3 1.34519e-15 0)
(3 2.26387e-15 0)
(3 2.50898e-15 0)
(3 1.71187e-15 0)
(3 1.4526e-15 0)
(3 1.45222e-15 0)
(3 1.59422e-15 0)
(3 1.51953e-15 0)
(3 1.70956e-15 0)
(3 1.94797e-15 0)
(3 2.47325e-15 0)
(3 2.28317e-15 0)
(3 2.43027e-15 0)
(3 2.07259e-15 0)
(3 1.92598e-15 0)
(3 1.51507e-15 0)
(3 -5.64392e-17 0)
(3 1.17889e-16 0)
(3 1.51329e-16 0)
(3 2.50474e-16 0)
(3 -4.81343e-16 0)
(3 -5.08187e-16 0)
(3 3.90427e-17 0)
(3 4.76427e-16 0)
(3 1.04332e-15 0)
(3 1.23886e-15 0)
(3 9.48756e-16 0)
(3 3.70201e-16 0)
(3 4.82094e-16 0)
(3 2.0228e-16 0)
(3 -9.18157e-16 0)
(3 -1.09524e-15 0)
(3 -1.68325e-15 0)
(3 -1.12841e-15 0)
(3 -9.53344e-16 0)
(3 -1.29557e-15 0)
(3 -1.77606e-15 0)
(3 -1.26111e-15 0)
(3 -1.28057e-15 0)
(3 -1.272e-15 0)
(3 -1.19831e-15 0)
(3 -2.11526e-15 0)
(3 -2.15284e-15 0)
(3 -1.84277e-15 0)
(3 -1.5871e-15 0)
(3 -1.49018e-15 0)
(3 -1.37439e-15 0)
(3 -1.38905e-17 0)
(3 1.68269e-16 0)
(3 8.12136e-16 0)
(3 1.24523e-15 0)
(3 1.24708e-15 0)
(3 8.31265e-16 0)
(3 6.89122e-16 0)
(3 1.07166e-15 0)
(3 1.43126e-15 0)
(3 1.35595e-15 0)
(3 1.05989e-15 0)
(3 4.2677e-16 0)
(3 -5.80543e-16 0)
(3 -9.5285e-16 0)
(3 -6.68484e-16 0)
(3 -5.06294e-16 0)
(3 -6.57024e-16 0)
(3 -1.48354e-15 0)
(3 -1.57264e-15 0)
(3 -8.96095e-16 0)
(3 -9.57166e-16 0)
(3 -1.33337e-15 0)
(3 -8.47444e-16 0)
(3 2.22828e-16 0)
(3 6.16709e-17 0)
(3 -1.37473e-16 0)
(3 -4.39112e-16 0)
(3 -9.78882e-16 0)
(3 -1.55758e-15 0)
(3 -2.29941e-15 0)
(3 -2.30936e-15 0)
(3 -1.25376e-15 0)
(3 -7.14844e-16 0)
(3 -8.2719e-16 0)
(3 -7.87732e-16 0)
(3 -4.78566e-16 0)
(3 -4.69813e-16 0)
(3 -7.19248e-16 0)
(3 -8.05771e-16 0)
(3 -6.67003e-16 0)
(3 -3.93792e-16 0)
(3 -1.80804e-16 0)
(3 -3.07657e-16 0)
(3 -6.65369e-16 0)
(3 -5.95298e-16 0)
(3 -5.09839e-16 0)
(3 -4.57427e-16 0)
(3 -2.45649e-17 0)
(3 -7.13287e-17 0)
(3 1.70497e-15 0)
(3 1.80039e-15 0)
(3 1.57857e-15 0)
(3 1.6964e-15 0)
(3 2.06329e-15 0)
(3 1.92153e-15 0)
(3 1.45762e-15 0)
(3 1.48594e-15 0)
(3 1.87547e-15 0)
(3 2.22649e-15 0)
(3 2.79011e-15 0)
(3 3.07669e-15 0)
(3 3.54768e-15 0)
(3 5.09026e-15 0)
(3 5.17641e-15 0)
(3 3.51707e-15 0)
(3 1.80263e-15 0)
(3 1.06324e-15 0)
(3 7.32934e-16 0)
(3 9.98501e-16 0)
(3 1.02654e-15 0)
(3 9.94905e-16 0)
(3 1.0157e-15 0)
(3 1.41444e-16 0)
(3 4.59899e-16 0)
(3 7.10308e-16 0)
(3 6.87064e-16 0)
(3 5.92502e-16 0)
(3 4.68342e-17 0)
(3 -5.8031e-16 0)
(3 -1.44741e-15 0)
(3 -2.00959e-16 0)
(3 3.69183e-16 0)
(3 3.58516e-17 0)
(3 -3.77893e-16 0)
(3 -6.19041e-16 0)
(3 -8.9882e-16 0)
(3 -3.35611e-16 0)
(3 8.96813e-16 0)
(3 1.22501e-15 0)
(3 9.77432e-16 0)
(3 1.09388e-15 0)
(3 2.49167e-17 0)
(3 -5.45381e-16 0)
(3 1.62725e-16 0)
(3 4.44188e-16 0)
(3 -4.59822e-16 0)
(3 2.30208e-17 0)
(3 -2.39731e-16 0)
(3 -3.46666e-16 0)
(3 2.33659e-16 0)
(3 9.33851e-16 0)
(3 1.39709e-15 0)
(3 1.43036e-15 0)
(3 1.39164e-15 0)
(3 1.33614e-15 0)
(3 1.31331e-15 0)
(3 1.0533e-15 0)
(3 8.0838e-16 0)
(3 8.10524e-16 0)
(3 -3.80984e-17 0)
(3 -7.78479e-16 0)
(3 -7.98168e-16 0)
(3 4.41029e-16 0)
(3 4.31202e-16 0)
(3 -3.23077e-16 0)
(3 -5.02471e-16 0)
(3 -6.53971e-16 0)
(3 -6.47984e-16 0)
(3 -4.43121e-16 0)
(3 7.10014e-16 0)
(3 4.59481e-16 0)
(3 -3.65726e-16 0)
(3 -1.49878e-16 0)
(3 -4.75235e-16 0)
(3 -7.60847e-16 0)
(3 -9.68098e-16 0)
(3 -1.26398e-15 0)
(3 -1.06587e-15 0)
(3 -1.40434e-15 0)
(3 -1.48779e-15 0)
(3 -1.44669e-15 0)
(3 -4.74764e-16 0)
(3 1.28381e-15 0)
(3 1.93103e-15 0)
(3 1.5139e-15 0)
(3 7.91626e-16 0)
(3 1.03806e-15 0)
(3 1.22072e-15 0)
(3 8.53199e-16 0)
(3 3.15143e-16 0)
(3 2.57859e-16 0)
(3 8.267e-16 0)
(3 1.86786e-15 0)
(3 1.652e-15 0)
(3 1.09598e-15 0)
(3 1.26722e-15 0)
(3 1.31552e-15 0)
(3 1.17032e-15 0)
(3 1.39225e-15 0)
(3 1.24027e-15 0)
(3 1.80284e-15 0)
(3 1.15062e-15 0)
(3 8.68066e-16 0)
(3 8.91433e-16 0)
(3 1.09269e-15 0)
(3 1.52008e-15 0)
(3 2.67745e-15 0)
(3 4.50588e-15 0)
(3 4.87232e-15 0)