/*--------------------------------*- C++ -*----------------------------------*\
  =========                 |
  \\      /  F ield         | OpenFOAM: The Open Source CFD Toolbox
   \\    /   O peration     | Website:  https://openfoam.org
    \\  /    A nd           | Version:  7
     \\/     M anipulation  |
\*---------------------------------------------------------------------------*/
FoamFile
{
    version     2.0;
    format      ascii;
    class       volScalarField;
    location    "1.2";
    object      p;
}
// * * * * * * * * * * * * * * * * * * * * * * * * * * * * * * * * * * * * * //

dimensions      [1 -1 -2 0 0 0 0];

internalField   nonuniform List<scalar> 
4608
(
1
1
1
1
1
1
1
1
1
1
1
1
1
1
1
1
1
1
1
1
1
1
1
1
1
1
1
1
1
1
1
1
1
1
1
1
1
1
1
1
1
1
1
1
1
1
1
1
1
1
1
1
1
1
1
1
1
1
1
1
1
1
1
1
1
1
1
1
1
1
1
1
1
1
1
1
1
1
1
1
1
1
1
1
1
1
1
1
1
1
1
1
1
1
1
1
1
1
1
1
1
1
1
1
1
1
1
1
1
1
1
1
1
1
1
1
1
1
1
1
1
1
1
1
1
1
1
1
1
1
1
1
1
1
1
1
1
1
1
1
1
1
1
1
1
1
1
1
1
1
1
1
1
1
1
1
1
1
1
1
1
1
1
1
1
1
1
1
1
1
1
1
1
1
1
1
1
1
1
1
1
1
1
1
1
1
1
1
1
1
1
1
1
1
1
1
1
1
1
1
1
1
1
1
1
1
1
1
1
1
1
1
1
1
1
1
1
1
1
1
1
1
1
1
1
1
1
1
1
1
1
1
1
1
1
1
1
1
1
1
1
1
1
1
1
1
1
1
1
1
1
1
1
1
1
1
1
1
1
1
1
1
1
1
1
1
1
1
1
1
1
1
1
1
1
1
1
1
1
1
1
1
1
1
1
1
1
1
1
1
1
1
1
1
1
1
1
1
1
1
1
1
1
1
1
1
1
1
1
1
1
1
1
1
1
1
1
1
1
1
1
1
1
1
1
1
1
1
1
1
1
1
1
1
1
1
1
1
1
1
1
1
1
1
1
1
1
1
1
1
1
1
1
1
1
1
1
1
1
1
1
1
1
1
1
1
1
1
1
1
1
1
1
1
1
1
1
1
1
1
1
1
1
1
1
1
1
1
1
1
1
1
1
1
1
1
1
1
1
1
1
1
1
1
1
1
1
1
1
1
1
1
1
1
1
1
1
1
1
1
1
1
1
1
1
1
1
1
1
1
1
1
1
1
1
1
1
1
1
1
1
1
1
1
1
1
1
1
1
1
1
1
1
1
1
1
1
1
1
1
1
1
1
1
1
1
1
1
1
1
1
1
1
1
1
1
1
1
1
1
1
1
1
1
1
1
1
1
1
1
1
1
1
1
1
1
1
1
1
1
1
1
1
1
1
1
1
1
1
1
1
1
1
1
1
1
1
1
1
1
1
1
1
1
1
1
1
1
1
1
1
1
1
1
1
1
1
1
1
1
1
1
1
1
1
1
1
1
1
1
1
1
1
1
1
1
1
1
1
1
1
1
1
1
1
1
1
1
1
1
1
1
1
1
1
1
1
1
1
1
1
1
1
1
1
1
1
1
1
1
1
1
1
1
1
1
1
1
1
1
1
1
1
1
1
1
1
1
1
1
1
1
1
1
1
1
1
1
1
1
1
1
1
1
1
1
1
1
1
1
1
1
1
1
1
1
1
1
1
1
1
1
1
1
1
1
1
1
1
1
1
1
1
1
1
1
1
1
1
1
1
1
1
1
1
1
1
1
1
1
1
1
1
1
1
1
1
1
1
1
1
1
1
1
1
1
1
1
1
1
1
1
1
1
1
1
1
1
1
1
1
1
1
1
1
1
1
1
1
1
1
1
1
1
1
1
1
1
1
1
1
1
1
1
1
1
1
1
1
1
1
1
1
1
1
1
1
1
1
1
1
1
1
1
1
1
1
1
1
1
1
1
1
1
1
1
1
1
1
1
1
1
1
1
1
1
1
1
1.29293
1.76495
2.31438
2.99257
3.63732
4.28218
4.85144
5.30643
5.37059
5.16432
4.71579
4.22308
3.81575
3.65506
3.56568
3.58284
3.62279
3.65656
3.68671
3.7112
3.73251
3.76189
3.77375
3.77332
1.00197
1.02024
1.08789
1.21201
1.47935
1.85091
2.37877
2.9712
3.60067
3.82992
4.0338
4.0568
3.98686
3.83804
3.7613
3.74295
3.71347
3.69542
3.69493
3.70493
3.72453
3.75036
3.76828
3.77366
0.999999
0.999951
1.00023
1.00015
1.0037
1.02311
1.10942
1.36008
1.98946
2.99271
3.83346
4.30319
4.36565
4.27011
4.09621
3.85559
3.71009
3.70153
3.69527
3.69623
3.70475
3.72037
3.74544
3.76654
1
0.999998
0.999999
0.999999
0.999986
1.00003
0.999928
1.00185
1.03235
1.3131
2.02617
3.15735
3.91032
4.12604
4.05207
3.93762
3.83377
3.79988
3.75501
3.70187
3.68786
3.6946
3.71171
3.736
1
1
1
1
0.999999
0.999999
0.99999
0.999994
0.999894
1.00179
1.03796
1.36925
2.19308
3.37833
3.95111
4.06324
4.01048
3.95843
3.83547
3.73029
3.70678
3.70167
3.71075
3.72719
1
1
1
1
1
1
1
1
0.999989
0.99999
0.999905
1.0034
1.07676
1.50309
2.51423
3.52868
3.99335
3.97748
3.91248
3.83192
3.77711
3.75488
3.7268
3.72695
1
1
1
1
1
1
1
1
1
0.999999
0.999988
0.999985
1.00002
1.00878
1.17973
1.79242
2.89133
3.60567
3.92306
3.91167
3.85465
3.79099
3.75157
3.71945
1
1
1
1
1
1
1
1
1
1
1
0.999999
0.999998
0.999968
1.00143
1.03109
1.37402
2.21516
3.37117
3.68619
3.76086
3.75445
3.74096
3.7045
1
1
1
1
1
1
1
1
1
1
1
1
1
0.999994
0.999994
0.999978
1.00942
1.11593
1.75088
2.79293
3.60325
3.7994
3.78807
3.75722
1
1
1
1
1
1
1
1
1
1
1
1
1
1
0.999999
0.999995
0.999978
1.00091
1.04888
1.39364
2.41049
3.23201
3.72365
3.7962
1
1
1
1
1
1
1
1
1
1
1
1
1
1
1
1
0.999997
0.999993
1.00028
1.01335
1.22504
1.99684
3.16603
3.60206
1
1
1
1
1
1
1
1
1
1
1
1
1
1
1
1
1
0.999999
0.999997
1.00002
1.00601
1.12168
1.73103
2.72199
1
1
1
1
1
1
1
1
1
1
1
1
1
1
1
1
1
1
0.999999
0.999999
0.999999
1.00238
1.05979
1.50593
1
1
1
1
1
1
1
1
1
1
1
1
1
1
1
1
1
1
1
1
1
0.999998
1.00083
1.03487
1
1
1
1
1
1
1
1
1
1
1
1
1
1
1
1
1
1
1
1
1
0.999999
1
1.00012
1
1
1
1
1
1
1
1
1
1
1
1
1
1
1
1
1
1
1
1
1
1
1
0.999999
1
1
1
1
1
1
1
1
1
1
1
1
1
1
1
1
1
1
1
1
1
1
1
0.999999
1
1
1
1
1
1
1
1
1
1
1
1
1
1
1
1
1
1
1
1
1
0.999999
1
1.00012
1
1
1
1
1
1
1
1
1
1
1
1
1
1
1
1
1
1
1
1
1
0.999998
1.00083
1.03487
1
1
1
1
1
1
1
1
1
1
1
1
1
1
1
1
1
1
0.999999
0.999999
0.999999
1.00238
1.05979
1.50593
1
1
1
1
1
1
1
1
1
1
1
1
1
1
1
1
1
0.999999
0.999997
1.00002
1.00601
1.12168
1.73103
2.72199
1
1
1
1
1
1
1
1
1
1
1
1
1
1
1
1
0.999997
0.999993
1.00028
1.01335
1.22504
1.99684
3.16603
3.60206
1
1
1
1
1
1
1
1
1
1
1
1
1
1
0.999999
0.999995
0.999978
1.00091
1.04888
1.39364
2.41049
3.23201
3.72365
3.7962
1
1
1
1
1
1
1
1
1
1
1
1
1
0.999994
0.999994
0.999978
1.00942
1.11593
1.75088
2.79293
3.60325
3.7994
3.78807
3.75722
1
1
1
1
1
1
1
1
1
1
1
0.999999
0.999998
0.999968
1.00143
1.03109
1.37402
2.21516
3.37117
3.68619
3.76086
3.75445
3.74096
3.7045
1
1
1
1
1
1
1
1
1
0.999999
0.999988
0.999985
1.00002
1.00878
1.17973
1.79242
2.89133
3.60567
3.92306
3.91167
3.85465
3.79099
3.75157
3.71945
1
1
1
1
1
1
1
1
0.999989
0.99999
0.999905
1.0034
1.07676
1.50309
2.51423
3.52868
3.99335
3.97748
3.91248
3.83192
3.77711
3.75488
3.7268
3.72695
1
1
1
1
0.999999
0.999999
0.99999
0.999994
0.999894
1.00179
1.03796
1.36925
2.19308
3.37833
3.95111
4.06324
4.01048
3.95843
3.83547
3.73029
3.70678
3.70167
3.71075
3.72719
1
0.999998
0.999999
0.999999
0.999986
1.00003
0.999928
1.00185
1.03235
1.3131
2.02617
3.15735
3.91032
4.12604
4.05207
3.93762
3.83377
3.79988
3.75501
3.70187
3.68786
3.6946
3.71171
3.736
0.999999
0.999951
1.00023
1.00015
1.0037
1.02311
1.10942
1.36008
1.98946
2.99271
3.83346
4.30319
4.36565
4.27011
4.09621
3.85559
3.71009
3.70153
3.69527
3.69623
3.70475
3.72037
3.74544
3.76654
1.00197
1.02024
1.08789
1.21201
1.47935
1.85091
2.37877
2.9712
3.60067
3.82992
4.0338
4.0568
3.98686
3.83804
3.7613
3.74295
3.71347
3.69542
3.69493
3.70493
3.72453
3.75036
3.76828
3.77366
1.29293
1.76495
2.31438
2.99257
3.63732
4.28218
4.85144
5.30643
5.37059
5.16432
4.71579
4.22308
3.81575
3.65506
3.56568
3.58284
3.62279
3.65656
3.68671
3.7112
3.73251
3.76189
3.77375
3.77332
2.6636
1.66939
1.1471
0.875919
0.663154
0.627567
0.651242
0.716409
0.801833
0.868254
0.909981
0.940912
0.968984
0.995994
1.02346
1.0589
1.06953
1.07474
1.0762
1.0683
1.04939
1.04198
1.05065
1.14534
1.58622
2.7984
4.60703
6.71323
8.73716
9.20145
8.63618
7.67114
6.81576
6.39131
6.11904
5.91879
5.70579
5.4872
5.27943
5.08208
4.89773
4.71225
4.51314
4.30608
4.09993
3.92086
3.78677
3.67785
3.57874
3.4854
3.39235
3.2823
3.13776
2.97422
2.83023
2.73794
2.68697
2.63933
2.58599
2.52739
2.45878
2.36296
2.23652
2.13956
2.0829
2.04196
2.01847
2.00048
1.97801
1.94253
1.88814
1.80743
1.69778
1.61246
1.58209
1.55934
1.53427
1.513
1.49532
1.47626
1.44724
1.39909
1.33093
1.28257
1.26119
1.24971
1.24387
1.25246
1.28975
1.36884
1.48656
1.59483
1.7199
1.85101
2.01188
2.28083
3.38208
2.74863
2.12783
1.79536
1.48988
1.22991
1.11338
1.04209
1.00028
0.958303
0.919753
0.906197
0.913222
0.928993
0.958218
0.997671
1.0103
1.01766
1.02283
1.02208
1.01348
1.01801
1.10629
1.6755
2.61714
3.05912
3.55532
4.25684
5.53557
6.66062
7.42953
7.35025
6.9547
6.55083
6.24309
5.97918
5.73855
5.54161
5.35144
5.15617
4.96427
4.76849
4.55998
4.35099
4.1594
4.00365
3.87225
3.7536
3.649
3.55196
3.45339
3.3412
3.19985
3.04413
2.91319
2.81775
2.74984
2.69199
2.63414
2.57286
2.50216
2.41014
2.29541
2.1961
2.13457
2.08737
2.05868
2.03869
2.01172
1.97246
1.9188
1.84755
1.75484
1.66807
1.62382
1.59575
1.56895
1.5459
1.52735
1.50618
1.47925
1.43249
1.37733
1.329
1.31948
1.33029
1.36615
1.44116
1.56096
1.69535
1.78568
1.85599
1.88615
1.92493
1.95629
2.0587
3.66014
3.3514
2.85173
2.35351
2.00366
1.68496
1.43389
1.25188
1.09181
1.01086
0.976081
0.934935
0.915949
0.916598
0.933279
0.959308
0.965264
0.972354
0.980923
0.992008
1.00759
1.11835
1.75905
2.74005
3.25329
3.28719
3.28934
3.32523
3.5832
4.55188
6.05284
6.89706
7.00195
6.77275
6.35031
5.96487
5.69058
5.47388
5.25679
5.02955
4.81186
4.62468
4.45295
4.29167
4.13897
3.98478
3.82678
3.68325
3.56151
3.45846
3.36094
3.25287
3.12808
2.99687
2.87973
2.78648
2.71022
2.64019
2.57017
2.50304
2.43467
2.35343
2.26188
2.18315
2.11989
2.0613
2.00123
1.9698
1.94718
1.91377
1.86547
1.80285
1.72378
1.64636
1.60365
1.5767
1.54889
1.52331
1.50898
1.49423
1.47754
1.45721
1.4251
1.43396
1.49152
1.58173
1.7079
1.83041
1.92946
2.00296
1.9834
1.9806
1.97553
1.96624
1.94844
1.92324
3.72549
3.61389
3.3339
2.89295
2.49034
2.16796
1.84824
1.60766
1.39452
1.24266
1.18777
1.13204
1.04831
0.983125
0.964283
0.950935
0.935364
0.93401
0.944821
0.964078
1.13408
1.77944
2.90951
3.2129
3.25078
3.25003
3.17968
3.08456
2.99223
3.07725
3.62248
4.87077
6.11708
6.30436
6.24293
6.04958
5.79108
5.51621
5.22239
4.94733
4.72491
4.56494
4.44134
4.31386
4.16432
3.98995
3.81459
3.65983
3.53037
3.42245
3.32533
3.218
3.09145
2.98017
2.87949
2.78981
2.71101
2.63738
2.55992
2.48043
2.41123
2.34792
2.27938
2.20842
2.13639
2.06989
2.00024
1.94451
1.91406
1.884
1.84085
1.7848
1.71924
1.64895
1.60868
1.5837
1.56039
1.53745
1.52424
1.51608
1.54141
1.60581
1.70582
1.84241
1.95958
2.06571
2.16615
2.17983
2.1675
2.15094
2.10095
2.06671
2.05089
2.02868
1.99513
1.91883
3.73213
3.70655
3.58096
3.31289
2.92154
2.56698
2.26744
1.97827
1.723
1.50418
1.35127
1.2896
1.22433
1.13295
1.01627
0.956164
0.94052
0.936499
0.957662
1.19699
1.91732
2.92157
3.32443
3.27495
3.18021
3.07428
2.98406
2.90883
2.8344
2.73923
2.75274
2.99703
3.86138
5.00893
5.80903
5.89487
5.79251
5.52839
5.19752
4.93002
4.70743
4.5238
4.3627
4.19186
4.0209
3.87867
3.76311
3.64661
3.52872
3.41599
3.30897
3.18563
3.02898
2.92605
2.88532
2.83443
2.76851
2.68757
2.58904
2.48314
2.3766
2.28711
2.21825
2.15952
2.10501
2.05577
1.99769
1.94267
1.90357
1.86565
1.80686
1.75155
1.71724
1.67885
1.64536
1.62609
1.61326
1.61985
1.66328
1.76307
1.90638
2.05746
2.19901
2.25416
2.28921
2.32996
2.32737
2.30516
2.25812
2.19081
2.11021
2.05458
2.02476
1.99316
1.95404
1.89224
3.73806
3.73288
3.69842
3.56172
3.30581
2.94785
2.61476
2.34318
2.10242
1.87068
1.61211
1.44479
1.4064
1.36059
1.23249
1.06356
1.03182
1.07041
1.36289
2.19437
3.05231
3.40344
3.36027
3.21501
3.08425
2.95584
2.86629
2.78856
2.70172
2.59838
2.54273
2.47248
2.53771
2.98245
3.96262
4.97326
5.41336
5.32393
5.17147
4.96296
4.7345
4.52735
4.34834
4.16841
3.98208
3.82617
3.70864
3.62197
3.55196
3.45503
3.31818
3.15274
3.01168
2.91862
2.8345
2.76548
2.70839
2.64388
2.55978
2.44938
2.34527
2.2672
2.20446
2.14937
2.09984
2.05531
2.00837
1.95739
1.89774
1.83634
1.78249
1.75117
1.72806
1.70805
1.70883
1.752
1.85845
2.01328
2.17516
2.30465
2.42771
2.4761
2.44715
2.44032
2.46028
2.46831
2.44586
2.39707
2.31885
2.20374
2.10044
2.04301
2.00831
1.96762
1.92886
1.87918
3.72689
3.73256
3.72362
3.68535
3.53709
3.29254
3.00127
2.65805
2.39075
2.2088
2.01429
1.74901
1.53498
1.4902
1.42959
1.29063
1.31712
1.71311
2.68902
3.46717
3.66528
3.5699
3.37268
3.20835
3.07788
2.93594
2.84104
2.74573
2.63643
2.52883
2.45162
2.37221
2.29484
2.25682
2.41449
3.00641
4.06272
4.74379
4.94432
4.87215
4.72078
4.52889
4.3461
4.16452
3.97387
3.8118
3.68194
3.57556
3.47786
3.38136
3.26368
3.12471
2.99436
2.8887
2.80733
2.74127
2.68469
2.6351
2.57632
2.4646
2.3088
2.2381
2.2108
2.17409
2.13064
2.09395
2.05189
1.98684
1.91025
1.852
1.80358
1.77677
1.8015
1.898
2.07618
2.27404
2.45555
2.62201
2.68809
2.66336
2.61188
2.56592
2.5202
2.50572
2.50222
2.47249
2.42296
2.36056
2.27951
2.19925
2.12211
2.06604
2.02345
1.97601
1.93953
1.88848
3.69697
3.69806
3.7013
3.69868
3.65314
3.49741
3.27534
3.02728
2.70967
2.41759
2.27915
2.11284
1.85787
1.66964
1.58959
1.70912
2.33273
3.47351
4.18021
4.13538
3.92133
3.67969
3.46963
3.29687
3.13827
2.98785
2.86909
2.74942
2.61936
2.51227
2.42217
2.32816
2.22257
2.16254
2.09961
2.11999
2.39465
3.09259
3.98904
4.32956
4.39767
4.37687
4.26775
4.11577
3.96087
3.79909
3.64193
3.50798
3.3945
3.29535
3.19238
3.07609
2.96404
2.87189
2.79901
2.73795
2.67967
2.61323
2.52701
2.40453
2.26949
2.21115
2.16728
2.12171
2.08343
2.05687
2.0256
1.99489
1.93613
1.88328
1.92172
2.04565
2.26175
2.53212
2.7252
2.85568
2.91229
2.90548
2.87901
2.82728
2.75343
2.67934
2.62551
2.56897
2.50525
2.44186
2.38259
2.3261
2.26276
2.19848
2.14546
2.09534
2.0436
1.98462
1.94193
1.88912
3.71419
3.70396
3.70153
3.70296
3.69747
3.63163
3.47396
3.25022
3.01818
2.74035
2.48145
2.29383
2.12236
2.00893
2.25173
3.13768
4.37061
4.81636
4.69731
4.40116
4.10554
3.86312
3.65731
3.46086
3.25505
3.06775
2.92181
2.79321
2.66588
2.55503
2.44192
2.3261
2.20149
2.12421
2.04668
1.99516
1.94783
2.01806
2.36301
3.06194
3.69887
4.15922
4.1869
4.12597
3.95464
3.77795
3.62055
3.48788
3.35366
3.22573
3.11383
3.00838
2.92536
2.86702
2.81585
2.75773
2.68235
2.59162
2.49374
2.35904
2.22984
2.18747
2.15342
2.11563
2.09228
2.0787
2.06503
2.07299
2.14681
2.26381
2.48923
2.72182
2.9533
3.07814
3.05254
3.02951
2.99637
2.95019
2.88855
2.82592
2.76094
2.68441
2.61222
2.55541
2.50399
2.44338
2.3742
2.31795
2.282
2.23807
2.17623
2.11274
2.0532
1.9905
1.95027
1.89672
3.77373
3.73829
3.72756
3.733
3.73786
3.7126
3.62447
3.46237
3.25059
2.99942
2.75667
2.49138
2.52612
3.03709
4.28821
5.44317
5.60136
5.38756
5.01736
4.66257
4.35216
4.08052
3.83605
3.61194
3.39569
3.20691
3.03817
2.87698
2.71953
2.57964
2.44557
2.32384
2.21346
2.12876
2.04577
1.9687
1.89318
1.84296
1.8098
1.93277
2.31997
3.05032
3.56181
3.83503
3.83409
3.78217
3.68554
3.53689
3.3699
3.20735
3.07622
2.98677
2.91625
2.84903
2.78196
2.71197
2.63284
2.54803
2.4598
2.33659
2.22251
2.18547
2.16162
2.14487
2.15749
2.23613
2.41399
2.63007
2.84648
3.03487
3.17503
3.2952
3.31694
3.29729
3.24095
3.16226
3.06372
2.95668
2.85914
2.79395
2.72759
2.66262
2.60978
2.56018
2.50903
2.45264
2.38791
2.32122
2.26333
2.22193
2.1743
2.1191
2.06612
2.01663
1.98273
1.91434
3.62124
3.6642
3.69515
3.71649
3.73768
3.73186
3.68494
3.59719
3.42811
3.23311
3.01299
3.20813
4.24554
5.72614
6.40327
6.33171
5.9883
5.59413
5.23645
4.91088
4.59876
4.2949
4.0042
3.74089
3.50704
3.31531
3.14579
2.9841
2.82215
2.66309
2.5003
2.34721
2.22263
2.13046
2.05358
1.97212
1.88895
1.81332
1.76505
1.69959
1.70277
1.85923
2.34792
2.91354
3.42253
3.55736
3.53942
3.49478
3.39369
3.21218
3.04709
2.9639
2.90368
2.83519
2.75383
2.67463
2.6015
2.52198
2.42553
2.31886
2.23573
2.2229
2.24689
2.35941
2.59351
2.95285
3.2174
3.42292
3.418
3.41714
3.3801
3.36755
3.35375
3.30721
3.23723
3.15036
3.05488
2.95215
2.86037
2.78675
2.70914
2.64749
2.61117
2.56866
2.51541
2.46323
2.39756
2.32445
2.25912
2.20944
2.18516
2.15721
2.1153
2.06925
2.02398
1.92319
3.51266
3.78882
3.79545
3.73283
3.70251
3.7092
3.70506
3.67038
3.54899
3.55709
4.18067
5.75879
7.28531
7.67344
7.43008
6.81834
6.26142
5.8144
5.44161
5.10254
4.77649
4.45861
4.15551
3.88392
3.64455
3.43807
3.24619
3.06326
2.88579
2.71748
2.55684
2.40599
2.27541
2.15566
2.05895
1.98464
1.92461
1.85177
1.76808
1.68292
1.62444
1.5714
1.61753
1.81632
2.29647
2.84266
3.20848
3.29914
3.26337
3.15268
2.99789
2.90203
2.83576
2.76921
2.69238
2.6288
2.56497
2.51412
2.42792
2.35607
2.3868
2.55288
2.84223
3.21364
3.5387
3.80314
3.82724
3.77134
3.70521
3.62573
3.51618
3.4102
3.33385
3.27388
3.21069
3.12897
3.02783
2.91926
2.84227
2.78636
2.71868
2.66105
2.62633
2.58088
2.52642
2.46792
2.39124
2.31931
2.26455
2.21525
2.17681
2.14207
2.10325
2.06574
2.02524
1.92832
2.5662
3.54805
3.66104
3.63231
3.65851
3.69281
3.72557
3.75143
3.99684
5.32342
7.63349
8.51611
8.404
8.0798
7.59504
7.07254
6.55521
6.07679
5.64978
5.27065
4.92777
4.60163
4.28504
3.99275
3.73423
3.51074
3.30598
3.11663
2.93839
2.76836
2.60325
2.4467
2.31827
2.2051
2.1008
1.99692
1.89697
1.80391
1.72731
1.65695
1.59359
1.54481
1.50653
1.45183
1.50053
1.77128
2.22506
2.72545
3.06553
3.06188
2.99641
2.89876
2.80809
2.72903
2.66631
2.62931
2.58166
2.56409
2.63198
2.79681
3.11619
3.48085
3.8219
4.00619
3.99821
3.96138
3.8609
3.76288
3.67169
3.61379
3.5585
3.47228
3.3904
3.3183
3.23296
3.12799
3.01005
2.89228
2.81416
2.76992
2.71802
2.67727
2.64699
2.5984
2.5427
2.48035
2.40022
2.32935
2.26963
2.21479
2.17835
2.14442
2.10586
2.06995
2.03653
1.94422
1.38574
2.39601
3.14043
3.58146
3.68882
3.75405
3.92981
4.61619
6.47771
8.89301
9.98191
9.77016
8.99667
8.23123
7.71415
7.27569
6.8125
6.32738
5.8596
5.4334
5.04952
4.69744
4.37421
4.08291
3.82233
3.5897
3.3724
3.16933
2.97809
2.79855
2.63772
2.49667
2.37853
2.26136
2.13335
2.00484
1.90289
1.81098
1.73096
1.67052
1.61577
1.55653
1.4795
1.42439
1.36454
1.36549
1.45079
1.7532
2.27863
2.68043
2.81679
2.82212
2.75842
2.71858
2.70391
2.76163
2.91443
3.17863
3.52816
3.85685
4.13586
4.29897
4.3383
4.31483
4.24165
4.064
3.86127
3.71385
3.61784
3.57224
3.53108
3.46306
3.38334
3.31284
3.23135
3.12325
3.00584
2.90173
2.82535
2.77863
2.73224
2.68892
2.64662
2.58942
2.52988
2.47543
2.41579
2.36174
2.29902
2.22426
2.16715
2.12712
2.09149
2.05769
2.02313
1.9463
1.02573
1.2716
2.03405
2.98167
3.43675
4.2787
5.74781
7.68465
9.39311
10.0419
9.95758
9.75828
9.27612
8.58094
7.96208
7.42642
6.93269
6.46851
6.02464
5.59214
5.17274
4.77689
4.42263
4.11734
3.85445
3.62415
3.41572
3.2275
3.04628
2.86485
2.68682
2.51795
2.3646
2.22571
2.14957
2.08711
2.007
1.91602
1.82093
1.70033
1.59455
1.55497
1.51595
1.46219
1.40182
1.32396
1.26509
1.29078
1.45246
1.82067
2.25257
2.57439
2.64401
2.82852
3.18885
3.60668
3.92255
4.26097
4.43011
4.47251
4.45443
4.39888
4.34722
4.2749
4.17018
4.07081
3.95826
3.84314
3.73101
3.63803
3.56164
3.47259
3.37591
3.30158
3.24644
3.15788
3.05903
2.97345
2.89628
2.83634
2.7829
2.72565
2.66562
2.60186
2.542
2.48796
2.43713
2.3788
2.31625
2.25035
2.17934
2.12386
2.08527
2.05646
2.02907
1.95297
1.00044
1.01482
1.18612
1.87378
3.65768
6.01889
8.20395
9.99874
11.0324
10.6334
9.91807
9.64191
9.33485
8.80455
8.12364
7.47957
6.93932
6.48373
6.06599
5.64628
5.22125
4.8134
4.44916
4.13692
3.87197
3.63865
3.42021
3.21799
3.0299
2.85377
2.68746
2.52972
2.38625
2.26044
2.14333
2.03261
1.94054
1.84882
1.75172
1.66669
1.60248
1.53796
1.46799
1.40771
1.34858
1.28508
1.2386
1.21223
1.22051
1.28144
1.50239
2.02036
2.74602
3.41794
4.11074
4.55836
4.77677
4.975
4.98353
4.90083
4.73918
4.48209
4.24423
4.11475
4.02315
3.953
3.89163
3.80888
3.7171
3.62684
3.52899
3.428
3.33756
3.25719
3.18574
3.10799
3.0249
2.94746
2.87079
2.79942
2.74031
2.68419
2.62498
2.56389
2.50733
2.46311
2.43167
2.39945
2.33858
2.24368
2.16164
2.10989
2.07179
2.04394
2.02448
1.97168
1.00044
1.01482
1.18612
1.87376
3.6575
6.01924
8.20397
9.99866
11.0324
10.6332
9.91784
9.64168
9.33465
8.80445
8.12362
7.47959
6.93935
6.48378
6.06606
5.64635
5.22128
4.81333
4.44902
4.13677
3.87187
3.63856
3.42008
3.21787
3.03
2.85416
2.68745
2.52911
2.38561
2.25985
2.14283
2.0324
1.94044
1.84876
1.75165
1.66659
1.60251
1.53798
1.46799
1.40771
1.34852
1.28512
1.23864
1.21231
1.22053
1.28587
1.54045
2.02987
2.763
3.45857
4.01029
4.53991
4.83315
4.97294
4.97172
4.91033
4.7329
4.44362
4.20944
4.08729
3.99888
3.93742
3.89061
3.81407
3.7158
3.62463
3.52404
3.42387
3.34309
3.26212
3.18025
3.10412
3.02445
2.94103
2.86316
2.79371
2.73459
2.68085
2.62219
2.5618
2.50809
2.46903
2.4376
2.39378
2.32501
2.2356
2.15924
2.10907
2.07293
2.0503
2.02901
1.96241
1.02573
1.2716
2.03407
2.98164
3.43663
4.27895
5.74785
7.68462
9.3931
10.0418
9.95748
9.75813
9.27602
8.58091
7.96209
7.42645
6.93272
6.46854
6.02467
5.59217
5.17276
4.77693
4.42269
4.11743
3.85451
3.62416
3.41561
3.22722
3.04588
2.86443
2.68613
2.51731
2.36438
2.22592
2.14972
2.08691
2.00664
1.91562
1.82058
1.69993
1.59446
1.55495
1.51595
1.4622
1.40179
1.32411
1.26484
1.29321
1.44832
1.82142
2.2673
2.53945
2.66431
2.86393
3.11063
3.58148
4.01638
4.25125
4.45772
4.50447
4.46762
4.37758
4.30223
4.24262
4.15532
4.07933
3.9871
3.86009
3.72585
3.61817
3.51805
3.45102
3.39674
3.32547
3.24669
3.16483
3.06831
2.96419
2.86302
2.78719
2.75333
2.71266
2.65664
2.59956
2.54996
2.50698
2.46353
2.40918
2.33199
2.24344
2.18191
2.14311
2.11302
2.0845
2.05267
1.97207
1.38574
2.396
3.14046
3.58144
3.68881
3.75406
3.92983
4.61614
6.47767
8.89301
9.98183
9.7701
8.99666
8.23125
7.71417
7.27573
6.81254
6.32743
5.85964
5.43343
5.04953
4.69744
4.37418
4.08287
3.82229
3.58965
3.37239
3.16936
2.97811
2.79855
2.63788
2.49694
2.37833
2.26082
2.13279
2.00457
1.90274
1.81079
1.73095
1.67113
1.61635
1.55665
1.47946
1.42434
1.36451
1.36587
1.44665
1.76875
2.23879
2.71929
2.82792
2.79107
2.74561
2.72481
2.70308
2.76024
2.958
3.19404
3.51788
3.85061
4.1288
4.27914
4.33202
4.3218
4.26714
4.09947
3.8947
3.7257
3.61628
3.56605
3.50788
3.44953
3.3954
3.31647
3.22453
3.12774
3.01357
2.91086
2.84218
2.77244
2.72084
2.68581
2.64181
2.59066
2.53611
2.48014
2.42774
2.36657
2.28598
2.21468
2.16994
2.13492
2.10243
2.07082
2.04039
1.95561
2.5662
3.54805
3.66104
3.63232
3.65852
3.69281
3.72557
3.75143
3.99684
5.32345
7.63353
8.51613
8.40403
8.07983
7.59507
7.07257
6.55523
6.0768
5.64978
5.27063
4.92774
4.6016
4.285
3.99272
3.7342
3.51074
3.30605
3.11676
2.93852
2.76838
2.60323
2.44669
2.31841
2.20529
2.10083
1.99685
1.89686
1.80395
1.72749
1.65682
1.59336
1.54458
1.50646
1.45173
1.50174
1.7665
2.23575
2.72813
3.03481
3.06283
3.01505
2.91264
2.80552
2.73332
2.67099
2.62959
2.58142
2.56355
2.62194
2.79202
3.12208
3.48833
3.81083
4.02149
4.02722
3.9853
3.85575
3.75008
3.66714
3.60263
3.53735
3.46691
3.40167
3.32191
3.23395
3.13753
3.01009
2.8969
2.82901
2.76631
2.71672
2.68502
2.65171
2.61058
2.55837
2.49345
2.41947
2.33522
2.24733
2.20628
2.18594
2.15825
2.12503
2.08943
2.05276
1.95287
3.51266
3.78881
3.79545
3.73283
3.70251
3.7092
3.70506
3.67038
3.54899
3.55709
4.1807
5.75883
7.28534
7.67346
7.4301
6.81836
6.26142
5.81439
5.44159
5.10251
4.77646
4.45858
4.15548
3.88391
3.64456
3.4381
3.24624
3.06327
2.88578
2.71748
2.55687
2.40603
2.27553
2.15577
2.05901
1.98473
1.9247
1.8518
1.76792
1.6827
1.62435
1.57137
1.61736
1.81531
2.29773
2.83359
3.22554
3.2952
3.25722
3.15383
3.01212
2.90422
2.83294
2.77007
2.69239
2.62797
2.56569
2.51218
2.42267
2.35672
2.39249
2.56206
2.8462
3.21717
3.54845
3.77048
3.81603
3.77121
3.68692
3.61645
3.53681
3.44587
3.3577
3.28355
3.21183
3.1275
3.0148
2.91933
2.8499
2.7803
2.71706
2.67062
2.6339
2.59324
2.53875
2.46864
2.38585
2.30428
2.24739
2.20918
2.1711
2.1366
2.1037
2.06801
2.02914
1.93096
3.62124
3.6642
3.69515
3.71649
3.73768
3.73186
3.68494
3.59719
3.42811
3.23311
3.01299
3.20813
4.24554
5.72614
6.40327
6.3317
5.98829
5.59411
5.23642
4.91085
4.59874
4.29489
4.0042
3.7409
3.50706
3.31533
3.14582
2.98411
2.82217
2.66311
2.50028
2.34718
2.22263
2.13051
2.05365
1.97219
1.88901
1.81335
1.76501
1.69956
1.70263
1.86006
2.34507
2.91723
3.41938
3.55251
3.54246
3.49589
3.39302
3.21107
3.04961
2.96686
2.90387
2.83271
2.74946
2.67212
2.60063
2.52071
2.42386
2.31788
2.23582
2.22267
2.24735
2.35395
2.58916
2.91418
3.21564
3.41698
3.40027
3.39242
3.38985
3.39563
3.36785
3.31553
3.23861
3.13895
3.03639
2.947
2.85989
2.77775
2.71085
2.66317
2.6243
2.58537
2.5306
2.45688
2.37656
2.29956
2.24664
2.2042
2.16637
2.13261
2.09733
2.06384
2.02316
1.91581
3.77373
3.73829
3.72756
3.733
3.73786
3.7126
3.62447
3.46236
3.25059
2.99942
2.75667
2.49138
2.52612
3.03708
4.2882
5.44316
5.60135
5.38755
5.01734
4.66255
4.35216
4.08052
3.83606
3.61196
3.3957
3.20693
3.03819
2.87698
2.71953
2.57963
2.44554
2.32382
2.21348
2.12879
2.04581
1.96876
1.89324
1.84297
1.80987
1.93267
2.31978
3.0513
3.55925
3.83758
3.83439
3.7829
3.68603
3.53718
3.36965
3.20652
3.07657
2.98689
2.91543
2.84718
2.77947
2.71037
2.6322
2.54824
2.46036
2.33648
2.22184
2.18489
2.16045
2.14355
2.15567
2.23334
2.40764
2.63402
2.86466
3.02031
3.16431
3.3065
3.31733
3.29619
3.2408
3.16382
3.08055
2.97387
2.86623
2.77827
2.71072
2.66255
2.61709
2.57203
2.5211
2.45616
2.37886
2.30297
2.24683
2.2048
2.17047
2.13411
2.08577
2.0298
1.9824
1.90044
3.71419
3.70396
3.70153
3.70296
3.69747
3.63163
3.47396
3.25022
3.01818
2.74035
2.48145
2.29383
2.12236
2.00893
2.25173
3.13768
4.3706
4.81635
4.69731
4.40116
4.10555
3.86313
3.65732
3.46088
3.25506
3.06776
2.92182
2.79319
2.66588
2.55502
2.4419
2.3261
2.20151
2.12422
2.0467
1.99519
1.94787
2.01795
2.36354
3.06074
3.70065
4.16042
4.18615
4.124
3.95362
3.77818
3.62065
3.4882
3.35354
3.22512
3.11277
3.0074
2.92561
2.8683
2.81703
2.75831
2.68278
2.59187
2.49353
2.35865
2.22962
2.18704
2.15262
2.11452
2.09198
2.07895
2.06502
2.07508
2.14509
2.27242
2.47243
2.73738
2.92308
3.04119
3.0445
3.02883
3.01118
2.97929
2.90618
2.81131
2.73375
2.67641
2.62202
2.56565
2.51179
2.45164
2.37814
2.30063
2.24483
2.20934
2.17728
2.13395
2.07524
1.99811
1.94432
1.88579
3.69697
3.69806
3.7013
3.69868
3.65314
3.49741
3.27534
3.02728
2.70967
2.41759
2.27915
2.11284
1.85787
1.66964
1.58959
1.70912
2.33274
3.47352
4.18021
4.13538
3.92134
3.6797
3.46964
3.29687
3.13827
2.98785
2.86909
2.74941
2.61936
2.51226
2.42216
2.32816
2.22258
2.16255
2.09961
2.11998
2.39467
3.09313
3.98831
4.3286
4.39867
4.37713
4.26698
4.11569
3.96143
3.79938
3.64242
3.50859
3.39445
3.29481
3.19171
3.07579
2.96404
2.8718
2.7991
2.73848
2.6805
2.61399
2.52714
2.404
2.26939
2.21083
2.16655
2.12112
2.08342
2.05719
2.02563
1.99485
1.93564
1.88397
1.91459
2.03343
2.2526
2.51249
2.70755
2.82753
2.91294
2.91872
2.90056
2.83826
2.75774
2.68001
2.62036
2.56301
2.50133
2.44295
2.38098
2.31584
2.25339
2.19769
2.14855
2.10186
2.04952
1.98518
1.93613
1.88231
3.72689
3.73256
3.72362
3.68535
3.53709
3.29254
3.00127
2.65805
2.39075
2.2088
2.01429
1.74901
1.53498
1.4902
1.42959
1.29064
1.31712
1.71312
2.68903
3.46718
3.66528
3.56991
3.37268
3.20836
3.07788
2.93594
2.84104
2.74572
2.63643
2.52882
2.45162
2.37221
2.29484
2.25682
2.41449
3.0065
4.06186
4.74562
4.94383
4.87145
4.72073
4.52908
4.34631
4.16487
3.97445
3.81206
3.68224
3.57579
3.47776
3.38104
3.26346
3.12474
2.9944
2.8887
2.80766
2.74167
2.68466
2.63484
2.57603
2.46393
2.30841
2.23864
2.21133
2.17429
2.13072
2.09411
2.05184
1.98714
1.91031
1.85098
1.80338
1.77541
1.79858
1.88874
2.07271
2.28367
2.45583
2.59502
2.68829
2.67484
2.62407
2.57574
2.5287
2.51178
2.50159
2.46915
2.41955
2.35963
2.28066
2.20287
2.13661
2.08045
2.0246
1.96627
1.9315
1.88461
3.73806
3.73288
3.69842
3.56172
3.30581
2.94785
2.61476
2.34318
2.10242
1.87068
1.61211
1.44479
1.4064
1.36059
1.23249
1.06356
1.03182
1.07041
1.36289
2.19438
3.05232
3.40344
3.36027
3.21501
3.08425
2.95584
2.86628
2.78855
2.70172
2.59838
2.54273
2.47248
2.53771
2.98249
3.96259
4.97336
5.41323
5.32434
5.17116
4.9626
4.73435
4.52736
4.34846
4.16875
3.9825
3.8262
3.70851
3.62182
3.55182
3.45495
3.31813
3.15273
3.01177
2.91868
2.83457
2.76539
2.70812
2.64362
2.55955
2.44931
2.34552
2.26726
2.20441
2.1494
2.09979
2.05528
2.00829
1.95774
1.89768
1.83561
1.78224
1.75115
1.72799
1.70832
1.70925
1.75107
1.85559
1.99899
2.17789
2.30147
2.40588
2.48
2.45632
2.4459
2.4624
2.46602
2.44325
2.39835
2.32813
2.22625
2.11778
2.05037
2.00499
1.95458
1.91861
1.87491
3.73213
3.70655
3.58096
3.31289
2.92154
2.56698
2.26744
1.97827
1.723
1.50418
1.35127
1.2896
1.22433
1.13295
1.01627
0.956164
0.94052
0.936499
0.957662
1.19699
1.91733
2.92156
3.32443
3.27495
3.1802
3.07427
2.98406
2.90882
2.8344
2.73924
2.75274
2.99705
3.86136
5.00902
5.80896
5.89486
5.79249
5.52822
5.19756
4.92998
4.7074
4.52384
4.36268
4.19186
4.02098
3.87862
3.76297
3.64654
3.52871
3.41602
3.30899
3.1856
3.02894
2.92605
2.88529
2.8343
2.76832
2.68732
2.58883
2.48323
2.37681
2.28712
2.21827
2.1595
2.10489
2.0556
1.99758
1.94295
1.90363
1.8656
1.8068
1.75187
1.7185
1.67982
1.64574
1.62654
1.61268
1.61803
1.66216
1.76549
1.89536
2.048
2.19578
2.24419
2.285
2.33025
2.3255
2.30531
2.26651
2.20058
2.11378
2.05094
2.0179
1.98279
1.94451
1.88874
3.72549
3.61389
3.3339
2.89295
2.49034
2.16796
1.84824
1.60766
1.39452
1.24266
1.18777
1.13204
1.04831
0.983125
0.964283
0.950936
0.935364
0.93401
0.944821
0.964078
1.13408
1.77943
2.90951
3.2129
3.25077
3.25003
3.17968
3.08456
2.99224
3.07726
3.6225
4.87077
6.11709
6.3044
6.24292
6.04956
5.79109
5.51615
5.22242
4.94731
4.72492
4.56493
4.44124
4.31374
4.16424
3.98985
3.81451
3.65983
3.53044
3.42254
3.32534
3.21793
3.09133
2.98004
2.8794
2.78973
2.7109
2.63732
2.55992
2.4806
2.41136
2.34801
2.27943
2.20826
2.13601
2.0695
2.00005
1.94472
1.91422
1.88407
1.84084
1.78508
1.71972
1.64935
1.6089
1.58404
1.56056
1.53749
1.52409
1.51564
1.53834
1.59932
1.70119
1.83809
1.94971
2.06145
2.16972
2.19709
2.18291
2.15225
2.09587
2.0589
2.04448
2.02334
1.99216
1.92176
3.66014
3.3514
2.85173
2.35351
2.00366
1.68496
1.43389
1.25188
1.09181
1.01086
0.976081
0.934935
0.915949
0.916598
0.933279
0.959308
0.965264
0.972354
0.980923
0.992008
1.00759
1.11835
1.75905
2.74005
3.25329
3.28719
3.28934
3.32524
3.58321
4.55187
6.05288
6.89706
7.00194
6.77274
6.35032
5.96487
5.6906
5.47386
5.25679
5.02954
4.81184
4.6247
4.45295
4.29163
4.13895
3.98477
3.82676
3.68325
3.56157
3.4585
3.36092
3.25283
3.12807
2.99685
2.87969
2.78641
2.71016
2.64021
2.57024
2.50313
2.43474
2.35358
2.26209
2.18319
2.11978
2.06105
2.00123
1.96987
1.9472
1.91375
1.86539
1.80288
1.72416
1.64662
1.60366
1.57652
1.54878
1.52341
1.50901
1.49371
1.47671
1.45625
1.42364
1.4328
1.48834
1.57949
1.71226
1.84619
1.92916
1.99626
1.98284
1.97509
1.96763
1.9619
1.94747
1.9263
3.38208
2.74863
2.12783
1.79536
1.48988
1.22991
1.11338
1.04209
1.00028
0.958303
0.919753
0.906197
0.913222
0.928993
0.958218
0.997671
1.0103
1.01766
1.02283
1.02208
1.01348
1.01801
1.10629
1.6755
2.61714
3.05912
3.55532
4.25684
5.53558
6.66061
7.42955
7.35025
6.95469
6.55081
6.24308
5.97918
5.73856
5.54161
5.35143
5.15616
4.96427
4.76852
4.56001
4.35099
4.15942
4.00369
3.87226
3.75361
3.64901
3.55195
3.45337
3.34121
3.19989
3.04416
2.91315
2.81769
2.74986
2.69204
2.63413
2.57278
2.50211
2.4102
2.29564
2.19627
2.13453
2.08738
2.0587
2.03853
2.01154
1.97224
1.91848
1.8474
1.75494
1.66819
1.62358
1.59517
1.56852
1.54572
1.52705
1.50567
1.47855
1.43195
1.37718
1.32845
1.31849
1.32944
1.36626
1.44053
1.55693
1.68668
1.77771
1.85507
1.88524
1.92568
1.9565
2.06048
2.6636
1.66939
1.1471
0.875919
0.663154
0.627567
0.651242
0.716409
0.801833
0.868254
0.909981
0.940912
0.968984
0.995994
1.02346
1.0589
1.06953
1.07474
1.0762
1.0683
1.04939