/*--------------------------------*- C++ -*----------------------------------*\
  =========                 |
  \\      /  F ield         | OpenFOAM: The Open Source CFD Toolbox
   \\    /   O peration     | Website:  https://openfoam.org
    \\  /    A nd           | Version:  7
     \\/     M anipulation  |
\*---------------------------------------------------------------------------*/
FoamFile
{
    version     2.0;
    format      ascii;
    class       volScalarField;
    location    "1.2";
    object      rho;
}
// * * * * * * * * * * * * * * * * * * * * * * * * * * * * * * * * * * * * * //

dimensions      [1 -3 0 0 0 0 0];

internalField   nonuniform List<scalar> 
4608
(
1.40001
1.40001
1.40001
1.40001
1.40001
1.40001
1.40001
1.40001
1.40001
1.40001
1.40001
1.40001
1.40001
1.40001
1.40001
1.40001
1.40001
1.40001
1.40001
1.40001
1.40001
1.40001
1.40001
1.40001
1.40001
1.40001
1.40001
1.40001
1.40001
1.40001
1.40001
1.40001
1.40001
1.40001
1.40001
1.40001
1.40001
1.40001
1.40001
1.40001
1.40001
1.40001
1.40001
1.40001
1.40001
1.40001
1.40001
1.40001
1.40001
1.40001
1.40001
1.40001
1.40001
1.40001
1.40001
1.40001
1.40001
1.40001
1.40001
1.40001
1.40001
1.40001
1.40001
1.40001
1.40001
1.40001
1.40001
1.40001
1.40001
1.40001
1.40001
1.40001
1.40001
1.40001
1.40001
1.40001
1.40001
1.40001
1.40001
1.40001
1.40001
1.40001
1.40001
1.40001
1.40001
1.40001
1.40001
1.40001
1.40001
1.40001
1.40001
1.40001
1.40001
1.40001
1.40001
1.40001
1.40001
1.40001
1.40001
1.40001
1.40001
1.40001
1.40001
1.40001
1.40001
1.40001
1.40001
1.40001
1.40001
1.40001
1.40001
1.40001
1.40001
1.40001
1.40001
1.40001
1.40001
1.40001
1.40001
1.40001
1.40001
1.40001
1.40001
1.40001
1.40001
1.40001
1.40001
1.40001
1.40001
1.40001
1.40001
1.40001
1.40001
1.40001
1.40001
1.40001
1.40001
1.40001
1.40001
1.40001
1.40001
1.40001
1.40001
1.40001
1.40001
1.40001
1.40001
1.40001
1.40001
1.40001
1.40001
1.40001
1.40001
1.40001
1.40001
1.40001
1.40001
1.40001
1.40001
1.40001
1.40001
1.40001
1.40001
1.40001
1.40001
1.40001
1.40001
1.40001
1.40001
1.40001
1.40001
1.40001
1.40001
1.40001
1.40001
1.40001
1.40001
1.40001
1.40001
1.40001
1.40001
1.40001
1.40001
1.40001
1.40001
1.40001
1.40001
1.40001
1.40001
1.40001
1.40001
1.40001
1.40001
1.40001
1.40001
1.40001
1.40001
1.40001
1.40001
1.40001
1.40001
1.40001
1.40001
1.40001
1.40001
1.40001
1.40001
1.40001
1.40001
1.40001
1.40001
1.40001
1.40001
1.40001
1.40001
1.40001
1.40001
1.40001
1.40001
1.40001
1.40001
1.40001
1.40001
1.40001
1.40001
1.40001
1.40001
1.40001
1.40001
1.40001
1.40001
1.40001
1.40001
1.40001
1.40001
1.40001
1.40001
1.40001
1.40001
1.40001
1.40001
1.40001
1.40001
1.40001
1.40001
1.40001
1.40001
1.40001
1.40001
1.40001
1.40001
1.40001
1.40001
1.40001
1.40001
1.40001
1.40001
1.40001
1.40001
1.40001
1.40001
1.40001
1.40001
1.40001
1.40001
1.40001
1.40001
1.40001
1.40001
1.40001
1.40001
1.40001
1.40001
1.40001
1.40001
1.40001
1.40001
1.40001
1.40001
1.40001
1.40001
1.40001
1.40001
1.40001
1.40001
1.40001
1.40001
1.40001
1.40001
1.40001
1.40001
1.40001
1.40001
1.40001
1.40001
1.40001
1.40001
1.40001
1.40001
1.40001
1.40001
1.40001
1.40001
1.40001
1.40001
1.40001
1.40001
1.40001
1.40001
1.40001
1.40001
1.40001
1.40001
1.40001
1.40001
1.40001
1.40001
1.40001
1.40001
1.40001
1.40001
1.40001
1.40001
1.40001
1.40001
1.40001
1.40001
1.40001
1.40001
1.40001
1.40001
1.40001
1.40001
1.40001
1.40001
1.40001
1.40001
1.40001
1.40001
1.40001
1.40001
1.40001
1.40001
1.40001
1.40001
1.40001
1.40001
1.40001
1.40001
1.40001
1.40001
1.40001
1.40001
1.40001
1.40001
1.40001
1.40001
1.40001
1.40001
1.40001
1.40001
1.40001
1.40001
1.40001
1.40001
1.40001
1.40001
1.40001
1.40001
1.40001
1.40001
1.40001
1.40001
1.40001
1.40001
1.40001
1.40001
1.40001
1.40001
1.40001
1.40001
1.40001
1.40001
1.40001
1.40001
1.40001
1.40001
1.40001
1.40001
1.40001
1.40001
1.40001
1.40001
1.40001
1.40001
1.40001
1.40001
1.40001
1.40001
1.40001
1.40001
1.40001
1.40001
1.40001
1.40001
1.40001
1.40001
1.40001
1.40001
1.40001
1.40001
1.40001
1.40001
1.40001
1.40001
1.40001
1.40001
1.40001
1.40001
1.40001
1.40001
1.40001
1.40001
1.40001
1.40001
1.40001
1.40001
1.40001
1.40001
1.40001
1.40001
1.40001
1.40001
1.40001
1.40001
1.40001
1.40001
1.40001
1.40001
1.40001
1.40001
1.40001
1.40001
1.40001
1.40001
1.40001
1.40001
1.40001
1.40001
1.40001
1.40001
1.40001
1.40001
1.40001
1.40001
1.40001
1.40001
1.40001
1.40001
1.40001
1.40001
1.40001
1.40001
1.40001
1.40001
1.40001
1.40001
1.40001
1.40001
1.40001
1.40001
1.40001
1.40001
1.40001
1.40001
1.40001
1.40001
1.40001
1.40001
1.40001
1.40001
1.40001
1.40001
1.40001
1.40001
1.40001
1.40001
1.40001
1.40001
1.40001
1.40001
1.40001
1.40001
1.40001
1.40001
1.40001
1.40001
1.40001
1.40001
1.40001
1.40001
1.40001
1.40001
1.40001
1.40001
1.40001
1.40001
1.40001
1.40001
1.40001
1.40001
1.40001
1.40001
1.40001
1.40001
1.40001
1.40001
1.40001
1.40001
1.40001
1.40001
1.40001
1.40001
1.40001
1.40001
1.40001
1.40001
1.40001
1.40001
1.40001
1.40001
1.40001
1.40001
1.40001
1.40001
1.40001
1.40001
1.40001
1.40001
1.40001
1.40001
1.40001
1.40001
1.40001
1.40001
1.40001
1.40001
1.40001
1.40001
1.40001
1.40001
1.40001
1.40001
1.40001
1.40001
1.40001
1.40001
1.40001
1.40001
1.40001
1.40001
1.40001
1.40001
1.40001
1.40001
1.40001
1.40001
1.40001
1.40001
1.40001
1.40001
1.40001
1.40001
1.40001
1.40001
1.40001
1.40001
1.40001
1.40001
1.40001
1.40001
1.40001
1.40001
1.40001
1.40001
1.40001
1.40001
1.40001
1.40001
1.40001
1.40001
1.40001
1.40001
1.40001
1.40001
1.40001
1.40001
1.40001
1.40001
1.40001
1.40001
1.40001
1.40001
1.40001
1.40001
1.40001
1.40001
1.40001
1.40001
1.40001
1.40001
1.40001
1.40001
1.40001
1.40001
1.40001
1.40001
1.40001
1.40001
1.40001
1.40001
1.40001
1.40001
1.40001
1.40001
1.40001
1.40001
1.40001
1.40001
1.40001
1.40001
1.40001
1.40001
1.40001
1.40001
1.40001
1.40001
1.40001
1.40001
1.40001
1.40001
1.40001
1.40001
1.40001
1.40001
1.40001
1.40001
1.40001
1.40001
1.40001
1.40001
1.40001
1.40001
1.40001
1.40001
1.40001
1.40001
1.40001
1.40001
1.40001
1.40001
1.40001
1.40001
1.40001
1.40001
1.40001
1.40001
1.40001
1.40001
1.40001
1.40001
1.40001
1.40001
1.40001
1.40001
1.40001
1.40001
1.40001
1.40001
1.40001
1.40001
1.40001
1.40001
1.40001
1.40001
1.40001
1.40001
1.40001
1.40001
1.40001
1.40001
1.40001
1.40001
1.40001
1.40001
1.40001
1.40001
1.40001
1.40001
1.40001
1.40001
1.40001
1.40001
1.40001
1.40001
1.40001
1.40001
1.40001
1.40001
1.40001
1.40001
1.40001
1.40001
1.40001
1.40001
1.40001
1.40001
1.40001
1.40001
1.40001
1.40001
1.40001
1.40001
1.40001
1.40001
1.40001
1.40001
1.40001
1.40001
1.40001
1.40001
1.40001
1.40001
1.40001
1.40001
1.40001
1.40001
1.40001
1.40001
1.40001
1.40001
1.40001
1.40001
1.40001
1.40001
1.40001
1.40001
1.40001
1.40001
1.40001
1.40001
1.40001
1.40001
1.40001
1.40001
1.40001
1.40001
1.40001
1.40001
1.40001
1.40001
1.40001
1.40001
1.40001
1.40001
1.40001
1.40001
1.40001
1.67803
2.08957
2.52276
3.00752
3.42488
3.81757
4.14019
4.41372
4.42787
4.2996
4.03163
3.72558
3.46424
3.35755
3.29874
3.31048
3.33768
3.35937
3.37735
3.39179
3.40463
3.42323
3.43125
3.43085
1.40187
1.41872
1.47852
1.58504
1.80489
2.10536
2.51579
2.96054
3.39363
3.53432
3.64785
3.62364
3.57002
3.46628
3.41629
3.40649
3.38874
3.37618
3.37422
3.37998
3.39237
3.40921
3.42263
3.42559
1.4
1.39996
1.40022
1.40014
1.40337
1.42101
1.49712
1.70676
2.19376
2.88888
3.42542
3.71128
3.76659
3.71201
3.60698
3.45703
3.36391
3.35582
3.35157
3.3527
3.35963
3.37162
3.39141
3.40631
1.4
1.4
1.4
1.4
1.39999
1.40004
1.39994
1.40168
1.42813
1.64996
2.17114
2.94764
3.41061
3.58481
3.54582
3.47564
3.40752
3.38301
3.354
3.32177
3.32026
3.32779
3.34321
3.36251
1.40001
1.40001
1.40001
1.4
1.4
1.4
1.4
1.4
1.39991
1.40163
1.43233
1.69533
2.28557
3.0603
3.43261
3.51263
3.48113
3.44921
3.37314
3.30968
3.30125
3.3059
3.31619
3.32759
1.40001
1.40001
1.40001
1.40001
1.40001
1.4
1.4
1.4
1.39999
1.4
1.39993
1.40309
1.46564
1.79437
2.50541
3.16064
3.45333
3.44619
3.40917
3.35996
3.32742
3.31871
3.30573
3.30514
1.40001
1.40001
1.40001
1.40001
1.40001
1.40001
1.40001
1.40001
1.4
1.4
1.39999
1.39999
1.40004
1.4079
1.54973
2.01554
2.76594
3.22046
3.41578
3.40825
3.37179
3.3325
3.30908
3.2899
1.40001
1.40001
1.40001
1.40001
1.40001
1.40001
1.40001
1.40001
1.40001
1.40001
1.4
1.4
1.4
1.39998
1.40138
1.42774
1.70466
2.32437
3.0868
3.28164
3.31888
3.31278
3.30425
3.28115
1.40001
1.40001
1.40001
1.40001
1.40001
1.40001
1.40001
1.40001
1.40001
1.40001
1.40001
1.40001
1.4
1.4
1.4
1.39999
1.40875
1.50108
1.99637
2.72353
3.23657
3.35123
3.34264
3.32166
1.40001
1.40001
1.40001
1.40001
1.40001
1.40001
1.40001
1.40001
1.40001
1.40001
1.40001
1.40001
1.40001
1.4
1.4
1.4
1.39999
1.40088
1.44439
1.72693
2.47637
3.01318
3.32399
3.35695
1.40001
1.40001
1.40001
1.40001
1.40001
1.40001
1.40001
1.40001
1.40001
1.40001
1.40001
1.40001
1.40001
1.40001
1.40001
1.4
1.4
1.4
1.40029
1.41242
1.59488
2.18674
2.98567
3.25671
1.40001
1.40001
1.40001
1.40001
1.40001
1.40001
1.40001
1.40001
1.40001
1.40001
1.40001
1.40001
1.40001
1.40001
1.40001
1.40001
1.4
1.4
1.4
1.40002
1.40572
1.50834
1.99525
2.70168
1.40001
1.40001
1.40001
1.40001
1.40001
1.40001
1.40001
1.40001
1.40001
1.40001
1.40001
1.40001
1.40001
1.40001
1.40001
1.40001
1.40001
1.4
1.4
1.4
1.40001
1.40231
1.45465
1.82646
1.40001
1.40001
1.40001
1.40001
1.40001
1.40001
1.40001
1.40001
1.40001
1.40001
1.40001
1.40001
1.40001
1.40001
1.40001
1.40001
1.40001
1.40001
1.40001
1.4
1.4
1.4
1.40082
1.43269
1.40001
1.40001
1.40001
1.40001
1.40001
1.40001
1.40001
1.40001
1.40001
1.40001
1.40001
1.40001
1.40001
1.40001
1.40001
1.40001
1.40001
1.40001
1.40001
1.40001
1.4
1.4
1.40001
1.40013
1.40001
1.40001
1.40001
1.40001
1.40001
1.40001
1.40001
1.40001
1.40001
1.40001
1.40001
1.40001
1.40001
1.40001
1.40001
1.40001
1.40001
1.40001
1.40001
1.40001
1.40001
1.4
1.4
1.4
1.40001
1.40001
1.40001
1.40001
1.40001
1.40001
1.40001
1.40001
1.40001
1.40001
1.40001
1.40001
1.40001
1.40001
1.40001
1.40001
1.40001
1.40001
1.40001
1.40001
1.40001
1.4
1.40001
1.4
1.40001
1.40001
1.40001
1.40001
1.40001
1.40001
1.40001
1.40001
1.40001
1.40001
1.40001
1.40001
1.40001
1.40001
1.40001
1.40001
1.40001
1.40001
1.40001
1.40001
1.4
1.4
1.40001
1.40013
1.40001
1.40001
1.40001
1.40001
1.40001
1.40001
1.40001
1.40001
1.40001
1.40001
1.40001
1.40001
1.40001
1.40001
1.40001
1.40001
1.40001
1.40001
1.40001
1.4
1.4
1.4
1.40082
1.43269
1.40001
1.40001
1.40001
1.40001
1.40001
1.40001
1.40001
1.40001
1.40001
1.40001
1.40001
1.40001
1.40001
1.40001
1.40001
1.40001
1.40001
1.4
1.4
1.4
1.40001
1.40231
1.45465
1.82646
1.40001
1.40001
1.40001
1.40001
1.40001
1.40001
1.40001
1.40001
1.40001
1.40001
1.40001
1.40001
1.40001
1.40001
1.40001
1.40001
1.4
1.4
1.4
1.40002
1.40572
1.50834
1.99525
2.70168
1.40001
1.40001
1.40001
1.40001
1.40001
1.40001
1.40001
1.40001
1.40001
1.40001
1.40001
1.40001
1.40001
1.40001
1.40001
1.4
1.4
1.4
1.40029
1.41242
1.59488
2.18674
2.98567
3.25671
1.40001
1.40001
1.40001
1.40001
1.40001
1.40001
1.40001
1.40001
1.40001
1.40001
1.40001
1.40001
1.40001
1.4
1.4
1.4
1.39999
1.40088
1.44439
1.72693
2.47637
3.01318
3.32399
3.35695
1.40001
1.40001
1.40001
1.40001
1.40001
1.40001
1.40001
1.40001
1.40001
1.40001
1.40001
1.40001
1.4
1.4
1.4
1.39999
1.40875
1.50108
1.99637
2.72353
3.23657
3.35123
3.34264
3.32166
1.40001
1.40001
1.40001
1.40001
1.40001
1.40001
1.40001
1.40001
1.40001
1.40001
1.4
1.4
1.4
1.39998
1.40138
1.42774
1.70466
2.32437
3.0868
3.28164
3.31888
3.31278
3.30425
3.28115
1.40001
1.40001
1.40001
1.40001
1.40001
1.40001
1.40001
1.40001
1.4
1.4
1.39999
1.39999
1.40004
1.4079
1.54973
2.01554
2.76594
3.22046
3.41578
3.40825
3.37179
3.3325
3.30908
3.2899
1.40001
1.40001
1.40001
1.40001
1.40001
1.4
1.4
1.4
1.39999
1.4
1.39993
1.40309
1.46564
1.79437
2.50541
3.16064
3.45333
3.44619
3.40917
3.35996
3.32742
3.31871
3.30573
3.30514
1.40001
1.40001
1.40001
1.4
1.4
1.4
1.4
1.4
1.39991
1.40163
1.43233
1.69533
2.28557
3.0603
3.43261
3.51263
3.48113
3.44921
3.37314
3.30968
3.30125
3.3059
3.31619
3.32759
1.4
1.4
1.4
1.4
1.39999
1.40004
1.39994
1.40168
1.42813
1.64996
2.17114
2.94764
3.41061
3.58481
3.54582
3.47564
3.40752
3.38301
3.354
3.32177
3.32026
3.32779
3.34321
3.36251
1.4
1.39996
1.40022
1.40014
1.40337
1.42101
1.49712
1.70676
2.19376
2.88888
3.42542
3.71128
3.76659
3.71201
3.60698
3.45703
3.36391
3.35582
3.35157
3.3527
3.35963
3.37162
3.39141
3.40631
1.40187
1.41872
1.47852
1.58504
1.80489
2.10536
2.51579
2.96054
3.39363
3.53432
3.64785
3.62364
3.57002
3.46628
3.41629
3.40649
3.38874
3.37618
3.37422
3.37998
3.39237
3.40921
3.42263
3.42559
1.67803
2.08957
2.52276
3.00752
3.42488
3.81757
4.14019
4.41372
4.42787
4.2996
4.03163
3.72558
3.46424
3.35755
3.29874
3.31048
3.33768
3.35937
3.37735
3.39179
3.40463
3.42323
3.43125
3.43085
2.66717
1.90559
1.45259
1.18053
0.950242
0.905269
0.928745
0.994105
1.07538
1.13943
1.18348
1.2164
1.24414
1.26999
1.29754
1.33278
1.34359
1.3486
1.34984
1.34286
1.32658
1.32312
1.33116
1.41181
1.74741
2.57295
3.65849
4.76862
5.74679
5.92767
5.66443
5.20725
4.78824
4.57307
4.43401
4.33234
4.22123
4.10501
3.99378
3.88751
3.78719
3.68467
3.57237
3.45365
3.33441
3.2307
3.15334
3.09014
3.03146
2.97493
2.91788
2.8503
2.7611
2.65861
2.56655
2.50667
2.47343
2.44242
2.40787
2.37013
2.32569
2.26216
2.17603
2.1087
2.06866
2.03931
2.02243
2.00977
1.99431
1.96996
1.93211
1.87444
1.79378
1.73032
1.708
1.69097
1.67171
1.65499
1.64092
1.62586
1.60319
1.56554
1.51169
1.4736
1.45686
1.44791
1.44299
1.44984
1.47947
1.54113
1.63043
1.71102
1.80342
1.8994
2.0167
2.20081
3.16324
2.72581
2.27281
2.01085
1.75692
1.53564
1.42922
1.35676
1.30908
1.26628
1.2284
1.20886
1.21366
1.22812
1.25725
1.29521
1.30624
1.31206
1.31582
1.31504
1.30774
1.3115
1.38768
1.82243
2.46275
2.75183
3.05583
3.46276
4.16969
4.75338
5.11728
5.07257
4.86673
4.65584
4.49576
4.36052
4.23526
4.13119
4.03093
3.92676
3.82305
3.71579
3.59809
3.47799
3.36751
3.27831
3.20356
3.13539
3.07377
3.01511
2.9547
2.88592
2.79915
2.70234
2.61928
2.55785
2.51397
2.47667
2.43943
2.39999
2.35416
2.29328
2.21581
2.1476
2.10459
2.07107
2.05073
2.03677
2.01819
1.9913
1.95423
1.90386
1.83635
1.77218
1.73954
1.71863
1.69815
1.6801
1.66541
1.64877
1.62791
1.59175
1.54883
1.5111
1.5043
1.513
1.54144
1.60028
1.69267
1.79269
1.85708
1.90702
1.92867
1.95656
1.97934
2.04916
3.34065
3.13962
2.79869
2.43938
2.17611
1.92497
1.71406
1.55391
1.40666
1.33284
1.29985
1.25772
1.23683
1.23745
1.25483
1.28047
1.28388
1.2884
1.2954
1.30586
1.32008
1.41473
1.90727
2.57247
2.89333
2.90617
2.90708
2.92859
3.08093
3.6228
4.40831
4.83623
4.87687
4.76133
4.5463
4.34661
4.2048
4.09122
3.97594
3.85384
3.735
3.63141
3.53393
3.44097
3.35303
3.26474
3.17398
3.09033
3.01817
2.95613
2.89658
2.8301
2.753
2.67116
2.59704
2.53713
2.4874
2.44151
2.39595
2.35261
2.30795
2.25378
2.19173
2.13772
2.09364
2.05213
2.00928
1.98711
1.97135
1.94813
1.9145
1.87016
1.81269
1.7555
1.72383
1.70363
1.68226
1.66211
1.6506
1.63893
1.62615
1.61087
1.58606
1.59262
1.63636
1.70506
1.80029
1.89265
1.96479
2.01454
1.99856
1.99535
1.9914
1.98479
1.97239
1.95347
3.36029
3.29448
3.11585
2.81889
2.53526
2.2977
2.04985
1.85682
1.67943
1.54936
1.50241
1.45147
1.37174
1.30933
1.29116
1.27904
1.26196
1.25874
1.26817
1.28612
1.43209
1.92301
2.68391
2.87325
2.89033
2.88232
2.83575
2.77359
2.71215
2.76258
3.07824
3.77074
4.41034
4.51186
4.48118
4.38305
4.25032
4.10662
3.94973
3.80057
3.67787
3.58811
3.51962
3.44861
3.36382
3.26347
3.16131
3.06983
2.99296
2.92899
2.87137
2.8064
2.72787
2.65807
2.59414
2.53648
2.48515
2.43709
2.38706
2.33593
2.29097
2.24926
2.20307
2.15445
2.1043
2.05725
2.00744
1.96752
1.94592
1.92474
1.89442
1.85479
1.80763
1.756
1.72638
1.70785
1.69003
1.67188
1.66105
1.65429
1.67349
1.72223
1.79639
1.89685
1.98271
2.0592
2.1309
2.14238
2.13194
2.11745
2.07912
2.05388
2.04265
2.02727
2.00381
1.94861
3.34008
3.32926
3.255
3.08537
2.82559
2.57953
2.36214
2.1447
1.94681
1.77026
1.64183
1.58799
1.52967
1.44541
1.33582
1.2807
1.2665
1.26064
1.27901
1.48191
2.02324
2.68626
2.933
2.90134
2.83829
2.76591
2.70464
2.65484
2.60612
2.54342
2.55169
2.701
3.19871
3.82927
4.23155
4.2943
4.24206
4.10438
3.92888
3.78363
3.66107
3.55875
3.4693
3.3736
3.27591
3.19319
3.12562
3.05723
2.98744
2.92086
2.85783
2.78328
2.6857
2.6207
2.5946
2.56193
2.51984
2.46799
2.40442
2.33556
2.2655
2.20561
2.15864
2.11835
2.08064
2.04606
2.00444
1.9646
1.9365
1.90951
1.86751
1.82836
1.80435
1.77678
1.75277
1.73884
1.72892
1.73268
1.7626
1.83505
1.93899
2.04668
2.14635
2.18691
2.21262
2.24167
2.23988
2.22444
2.19092
2.14205
2.08309
2.04274
2.02173
1.99965
1.97191
1.92754
3.31871
3.32047
3.3044
3.22373
3.06348
2.82843
2.60125
2.40986
2.2332
2.05715
1.85287
1.7163
1.68329
1.64221
1.52638
1.37315
1.34755
1.38059
1.61678
2.21853
2.77157
2.9776
2.94861
2.85506
2.76973
2.68586
2.62735
2.57631
2.51957
2.45134
2.41443
2.36752
2.40881
2.6805
3.24461
3.79962
4.03894
3.99307
3.9118
3.79885
3.67389
3.5592
3.45875
3.35643
3.249
3.1583
3.08964
3.03939
2.99888
2.94209
2.86007
2.75869
2.67097
2.61275
2.55993
2.51615
2.4797
2.43792
2.38278
2.30984
2.24053
2.1879
2.14501
2.10744
2.07368
2.04298
2.00981
1.97365
1.93096
1.88679
1.84823
1.82685
1.81153
1.79857
1.79903
1.83013
1.90567
2.0128
2.1243
2.21319
2.29671
2.33103
2.31305
2.31022
2.32515
2.33096
2.31626
2.28317
2.22849
2.14677
2.07338
2.03277
2.00854
1.97989
1.95215
1.91689
3.29604
3.30259
3.29912
3.27988
3.19216
3.04018
2.85172
2.62081
2.43526
2.30495
2.15939
1.95347
1.78204
1.74398
1.6916
1.56915
1.58624
1.86994
2.52471
3.01719
3.13323
3.07363
2.9497
2.84561
2.76312
2.67256
2.61149
2.55113
2.48092
2.41002
2.35831
2.30443
2.25235
2.22649
2.32808
2.69344
3.31056
3.68935
3.79217
3.75185
3.66707
3.55956
3.45708
3.35437
3.24502
3.15087
3.07429
3.0112
2.9534
2.8957
2.82412
2.73868
2.65766
2.59154
2.54045
2.49848
2.46213
2.43
2.39141
2.31704
2.21226
2.16499
2.14682
2.12183
2.0921
2.06708
2.03837
1.99331
1.93897
1.8972
1.86269
1.84511
1.86351
1.93298
2.0578
2.19302
2.31435
2.42204
2.46587
2.45015
2.41753
2.38834
2.35902
2.35102
2.34994
2.33132
2.29822
2.25476
2.19741
2.14052
2.08646
2.04779
2.01848
1.98526
1.95925
1.92271
3.27439
3.27555
3.27982
3.27878
3.25229
3.1572
3.01837
2.85898
2.64648
2.44366
2.34546
2.22294
2.02742
1.8804
1.81411
1.8984
2.32149
3.0339
3.44149
3.41441
3.28618
3.13996
3.01148
2.9051
2.8066
2.71192
2.63709
2.56015
2.47415
2.40268
2.34332
2.28102
2.2094
2.16858
2.12595
2.13964
2.31822
2.75142
3.2772
3.47
3.49933
3.48493
3.41974
3.33157
3.24286
3.14951
3.05747
2.9764
2.90556
2.84354
2.77985
2.70795
2.63854
2.58113
2.5349
2.49564
2.45783
2.41448
2.35742
2.27489
2.18361
2.14447
2.11508
2.08419
2.05828
2.04052
2.01937
1.99831
1.956
1.91812
1.94537
2.03241
2.18052
2.36117
2.48814
2.57143
2.60836
2.60438
2.58812
2.55531
2.50789
2.46037
2.42648
2.39098
2.3505
2.30925
2.26882
2.22894
2.18384
2.13857
2.10195
2.06787
2.03258
1.99147
1.96105
1.92315
3.29129
3.28306
3.28117
3.28173
3.27826
3.23722
3.13863
2.99646
2.84514
2.6576
2.47788
2.34365
2.22012
2.12998
2.28766
2.83275
3.55274
3.80781
3.74161
3.57231
3.39947
3.25598
3.13362
3.01571
2.88988
2.7734
2.68173
2.59912
2.51552
2.44202
2.36645
2.28735
2.20108
2.14873
2.09552
2.05948
2.02483
2.07281
2.29872
2.74038
3.12148
3.38202
3.39065
3.35424
3.25274
3.14911
3.05743
2.9755
2.88846
2.80601
2.73516
2.66931
2.6175
2.58024
2.54701
2.50931
2.46047
2.40125
2.33613
2.2445
2.15638
2.1281
2.10526
2.07973
2.06436
2.0556
2.04666
2.05044
2.09883
2.17647
2.32708
2.48015
2.62809
2.70734
2.69216
2.67974
2.66079
2.63306
2.59482
2.55523
2.51352
2.46388
2.41745
2.38157
2.34903
2.30943
2.26249
2.22291
2.19699
2.16619
2.1241
2.08104
2.04049
1.99696
1.96833
1.92942
3.33944
3.31278
3.30317
3.30447
3.30633
3.28996
3.23383
3.13019
2.99221
2.82515
2.66024
2.47557
2.49454
2.80165
3.53064
4.14976
4.24489
4.13176
3.93037
3.7322
3.555
3.39777
3.25479
3.12197
2.99129
2.87513
2.76934
2.66618
2.56366
2.47066
2.37939
2.29583
2.21921
2.16014
2.10139
2.04643
1.99134
1.95478
1.92834
2.01364
2.27423
2.74089
3.04952
3.20718
3.2018
3.16955
3.11037
3.01688
2.91013
2.80514
2.72026
2.66339
2.61846
2.57442
2.53027
2.48436
2.43257
2.37634
2.31676
2.23247
2.15349
2.12845
2.11222
2.10114
2.10997
2.16338
2.28057
2.41658
2.55332
2.67437
2.76537
2.84142
2.85723
2.8453
2.81063
2.76262
2.70283
2.63742
2.57729
2.53685
2.49438
2.45166
2.41672
2.38477
2.35236
2.31579
2.27214
2.22576
2.18537
2.15695
2.12498
2.08783
2.05182
2.01754
1.99331
1.94302
3.2502
3.27357
3.29136
3.30067
3.31291
3.30956
3.27788
3.21823
3.10589
2.97757
2.8289
2.94119
3.52882
4.32428
4.67893
4.64395
4.46806
4.26195
4.07012
3.89127
3.71636
3.54288
3.37371
3.2176
3.0762
2.95818
2.85199
2.7489
2.64376
2.53836
2.4284
2.3231
2.23533
2.16949
2.11444
2.05569
1.99403
1.93637
1.89923
1.84979
1.85142
1.96079
2.29236
2.65834
2.97426
3.05417
3.03933
3.00688
2.93955
2.81953
2.7113
2.65817
2.62041
2.57663
2.52288
2.46953
2.42003
2.36615
2.29986
2.22571
2.16584
2.15633
2.17243
2.24724
2.40078
2.62963
2.79054
2.91193
2.91403
2.9205
2.90053
2.89409
2.88656
2.85769
2.81337
2.75914
2.7015
2.63946
2.58284
2.53641
2.4858
2.44455
2.42015
2.39236
2.35797
2.32388
2.27963
2.22914
2.18395
2.15045
2.13472
2.11627
2.08785
2.05604
2.02397
1.95023
3.20388
3.37197
3.36923
3.32339
3.29891
3.30056
3.29591
3.27058
3.18796
3.1886
3.5324
4.38104
5.14492
5.34794
5.23153
4.92609
4.64078
4.4063
4.20682
4.02194
3.84075
3.66045
3.48456
3.32326
3.17794
3.05019
2.92942
2.81233
2.69668
2.58503
2.47677
2.37319
2.28174
2.19602
2.12492
2.06931
2.02391
1.96862
1.9051
1.83971
1.79447
1.75269
1.78663
1.92837
2.2602
2.61857
2.85358
2.90075
2.8739
2.79751
2.69476
2.63226
2.58931
2.54548
2.49383
2.44969
2.4053
2.36984
2.31059
2.25476
2.27307
2.3797
2.56309
2.79631
2.9975
3.15735
3.16798
3.13582
3.09915
3.05439
2.99111
2.92832
2.88072
2.84202
2.80164
2.75151
2.6909
2.62515
2.57699
2.54074
2.49587
2.45733
2.4343
2.40414
2.36785
2.32831
2.27597
2.2267
2.18964
2.15684
2.13105
2.10734
2.08042
2.05416
2.02565
1.95494
2.59587
3.23311
3.29627
3.27225
3.28436
3.30053
3.31615
3.32899
3.4699
4.19797
5.35904
5.80077
5.74897
5.59491
5.35777
5.09582
4.82914
4.57732
4.34831
4.14116
3.95029
3.76506
3.58085
3.40624
3.24802
3.10861
2.97881
2.85687
2.74029
2.62731
2.51583
2.40847
2.319
2.23791
2.16029
2.08138
2.00534
1.93478
1.87661
1.82213
1.77199
1.73317
1.70405
1.65931
1.69405
1.88935
2.21013
2.54374
2.75781
2.75395
2.71026
2.64523
2.58386
2.5305
2.48756
2.46022
2.42763
2.40841
2.44931
2.55043
2.7491
2.97124
3.17297
3.28742
3.28531
3.26622
3.20672
3.14789
3.09383
3.06052
3.0289
2.97623
2.92319
2.87568
2.8215
2.75721
2.68511
2.61175
2.56244
2.53354
2.49904
2.47173
2.45134
2.41858
2.3807
2.33779
2.28295
2.23518
2.19529
2.1586
2.13416
2.11082
2.0835
2.05768
2.03411
1.96714
1.72657
2.47521
2.97283
3.26142
3.32002
3.35097
3.45039
3.84299
4.84665
6.0351
6.53984
6.44179
6.07459
5.70398
5.44998
5.23032
4.99277
4.73794
4.48693
4.25369
4.03917
3.83766
3.64792
3.47265
3.31238
3.16679
3.029
2.89846
2.77352
2.65395
2.54472
2.44748
2.36483
2.28119
2.18757
2.09103
2.01318
1.94265
1.88096
1.83393
1.79092
1.74431
1.68273
1.63831
1.58848
1.5881
1.65147
1.87458
2.24151
2.5108
2.60677
2.60631
2.56317
2.53625
2.51939
2.55286
2.64823
2.80961
3.01891
3.21262
3.37504
3.46772
3.49092
3.47818
3.4368
3.3337
3.21452
3.12682
3.07036
3.04453
3.02011
2.97737
2.92536
2.87853
2.8264
2.75948
2.68743
2.62265
2.57378
2.54246
2.51098
2.48154
2.45276
2.41413
2.37349
2.33578
2.29475
2.25843
2.21663
2.16638
2.12768
2.09985
2.07409
2.04928
2.02459
1.9695
1.42391
1.63437
2.21541
2.87764
3.17698
3.67746
4.48682
5.49064
6.3269
6.63152
6.58473
6.48223
6.2471
5.90691
5.60012
5.32934
5.07431
4.82937
4.59095
4.3545
4.12018
3.89309
3.68422
3.49965
3.3373
3.19266
3.06003
2.93901
2.82118
2.70136
2.58136
2.46486
2.35663
2.25685
2.20063
2.15312
2.09209
2.02274
1.95024
1.85759
1.77523
1.74399
1.7123
1.66849
1.61905
1.55603
1.50374
1.52275
1.64697
1.91879
2.22696
2.44875
2.49601
2.61165
2.82916
3.08006
3.27365
3.47296
3.56472
3.58184
3.56963
3.53588
3.50637
3.46554
3.40509
3.34606
3.27843
3.20847
3.14157
3.0873
3.04216
2.98735
2.92521
2.87573
2.83942
2.78419
2.72438
2.67239
2.62285
2.5821
2.54526
2.50637
2.466
2.42326
2.38262
2.3453
2.31002
2.2702
2.2285
2.18489
2.137
2.09828
2.07009
2.04857
2.02868
1.97415
1.40044
1.41393
1.56367
2.11352
3.31844
4.66349
5.76495
6.61016
7.09394
6.9133
6.5804
6.44553
6.29219
6.02976
5.69067
5.36436
5.08412
4.84278
4.61798
4.38842
4.15093
3.91698
3.70218
3.51326
3.34957
3.20298
3.06374
2.93334
2.81078
2.69449
2.58264
2.47388
2.37265
2.28233
2.19642
2.11337
2.04318
1.97271
1.89782
1.83204
1.78194
1.73066
1.67414
1.62502
1.57626
1.52301
1.4826
1.45781
1.46405
1.51201
1.68308
2.06633
2.55924
2.98218
3.38695
3.63975
3.76517
3.87439
3.87259
3.82288
3.72798
3.57977
3.44596
3.37576
3.32453
3.28146
3.24163
3.18996
3.1353
3.08294
3.02489
2.96238
2.90319
2.84943
2.80244
2.75402
2.70398
2.65669
2.60732
2.55894
2.51793
2.47952
2.43975
2.39881
2.36018
2.32922
2.30689
2.2844
2.24335
2.17998
2.12491
2.08891
2.06097
2.03992
2.0255
1.9871
1.40044
1.41393
1.56367
2.11351
3.31835
4.66365
5.76493
6.61013
7.09395
6.91324
6.58029
6.44542
6.29209
6.02971
5.69066
5.36437
5.08413
4.8428
4.61802
4.38846
4.15095
3.91694
3.70209
3.51317
3.3495
3.20292
3.06366
2.93327
2.81085
2.69476
2.58264
2.47346
2.37221
2.28191
2.19606
2.11322
2.04311
1.97266
1.89777
1.83196
1.78195
1.73067
1.67414
1.62502
1.57621
1.52303
1.48265
1.45786
1.46407
1.51612
1.71353
2.07385
2.5702
3.00382
3.32956
3.63703
3.79406
3.87086
3.86529
3.82756
3.72295
3.55619
3.42503
3.35916
3.31055
3.27292
3.24146
3.193
3.13422
3.08174
3.02216
2.95994
2.90678
2.8524
2.79868
2.75164
2.70413
2.65312
2.60293
2.55561
2.51439
2.47746
2.4381
2.39782
2.36133
2.33385
2.31128
2.28055
2.23386
2.17407
2.12305
2.08861
2.06239
2.04501
2.0289
1.97979
1.42391
1.63436
2.21543
2.87761
3.17691
3.6776
4.48682
5.49063
6.32691
6.6315
6.58468
6.48215
6.24705
5.90689
5.60012
5.32936
5.07432
4.82939
4.59096
4.35452
4.12019
3.89311
3.68425
3.4997
3.33734
3.19267
3.05996
2.93884
2.82092
2.70107
2.58089
2.46442
2.35649
2.25702
2.20075
2.15298
2.09183
2.02244
1.94998
1.85727
1.77515
1.74396
1.7123
1.66849
1.61902
1.55611
1.50355
1.5247
1.64387
1.91916
2.23706
2.42497
2.50962
2.63342
2.78472
3.07206
3.32424
3.45863
3.57988
3.60049
3.57563
3.52111
3.47772
3.44548
3.3968
3.35213
3.29647
3.21855
3.13804
3.07514
3.01595
2.97429
2.93808
2.89009
2.83878
2.78876
2.73137
2.66751
2.60214
2.55057
2.52616
2.49792
2.46039
2.42261
2.38942
2.35972
2.32902
2.29103
2.23847
2.17914
2.13847
2.11248
2.0912
2.06986
2.04594
1.98615
1.72657
2.4752
2.97285
3.2614
3.32001
3.35099
3.4504
3.84296
4.84663
6.03509
6.5398
6.44175
6.07458
5.70399
5.45
5.23034
4.99279
4.73796
4.48695
4.25371
4.03918
3.83766
3.6479
3.47263
3.31235
3.16676
3.02899
2.89848
2.77352
2.65394
2.54482
2.44768
2.36469
2.28082
2.18717
2.09084
2.01307
1.94251
1.88095
1.83439
1.79136
1.7444
1.68269
1.63826
1.58844
1.58843
1.64827
1.8857
2.21493
2.53459
2.61227
2.58734
2.55557
2.54039
2.51891
2.55269
2.67423
2.81675
3.01241
3.21112
3.37043
3.45176
3.48545
3.4818
3.45271
3.3557
3.23483
3.13338
3.06883
3.04021
3.00661
2.96993
2.93323
2.88048
2.82146
2.76251
2.69342
2.6298
2.58563
2.5393
2.50392
2.47956
2.44988
2.41595
2.37955
2.34132
2.3046
2.2617
2.20637
2.15877
2.12961
2.10648
2.08382
2.06042
2.03741
1.97359
2.59587
3.23311
3.29627
3.27225
3.28436
3.30053
3.31615
3.32899
3.4699
4.19798
5.35905
5.80078
5.74899
5.59492
5.35779
5.09584
4.82915
4.57733
4.34831
4.14115
3.95028
3.76505
3.58082
3.40622
3.248
3.10861
2.97886
2.85695
2.74038
2.62733
2.51582
2.40846
2.3191
2.23805
2.16032
2.08134
2.00527
1.93481
1.87675
1.82202
1.7718
1.73299
1.70398
1.65924
1.69496
1.88575
2.21728
2.54538
2.74115
2.75256
2.72105
2.65383
2.5827
2.53385
2.49081
2.46028
2.4274
2.40782
2.44288
2.54793
2.75272
2.97388
3.16642
3.29721
3.30376
3.28091
3.20235
3.13881
3.09072
3.05375
3.01576
2.97298
2.93076
2.87833
2.8219
2.76298
2.68597
2.61644
2.57363
2.53238
2.49861
2.47676
2.45449
2.42763
2.39332
2.34946
2.29807
2.23915
2.17888
2.1524
2.14011
2.12231
2.09958
2.07374
2.04633
1.97095
3.20388
3.37197
3.36923
3.32339
3.29891
3.30055
3.29591
3.27058
3.18796
3.18861
3.53241
4.38106
5.14493
5.34796
5.23154
4.9261
4.64078
4.40629
4.20681
4.02193
3.84074
3.66043
3.48454
3.32325
3.17794
3.05021
2.92945
2.81234
2.69668
2.58503
2.47678
2.37321
2.28182
2.1961
2.12497
2.06937
2.02399
1.96865
1.90498
1.83953
1.7944
1.75266
1.7865
1.92764
2.2612
2.6124
2.86474
2.89794
2.8699
2.7983
2.70383
2.63352
2.58756
2.54625
2.49392
2.44914
2.40581
2.36865
2.30759
2.25516
2.27682
2.3855
2.56578
2.79847
3.00403
3.1387
3.16026
3.13409
3.08769
3.04943
3.0038
2.94995
2.8956
2.84779
2.80215
2.7507
2.6838
2.62673
2.58309
2.53708
2.49426
2.46306
2.43919
2.41337
2.37812
2.33098
2.27364
2.2168
2.17799
2.15275
2.12806
2.10567
2.0834
2.0579
2.02903
1.95531
3.2502
3.27357
3.29136
3.30067
3.31291
3.30956
3.27788
3.21823
3.10589
2.97757
2.8289
2.9412
3.52881
4.32428
4.67893
4.64395
4.46805
4.26194
4.07011
3.89126
3.71635
3.54287
3.37371
3.21761
3.07621
2.95819
2.85201
2.74891
2.64378
2.53837
2.42839
2.32308
2.23534
2.16952
2.11449
2.05575
1.99408
1.9364
1.8992
1.84976
1.85131
1.9614
2.2905
2.6605
2.97269
3.05125
3.04081
3.00775
2.93923
2.81887
2.71302
2.66008
2.6206
2.5752
2.52012
2.46789
2.41946
2.36533
2.29881
2.22507
2.16592
2.15616
2.17272
2.24356
2.398
2.60611
2.78948
2.90893
2.90372
2.90518
2.90843
2.91247
2.89504
2.8618
2.81348
2.75233
2.69078
2.63748
2.58361
2.53044
2.48568
2.45385
2.42877
2.40451
2.36976
2.32098
2.26582
2.21218
2.17555
2.14681
2.12199
2.10022
2.07665
2.05319
2.02349
1.94429
3.33944
3.31278
3.30317
3.30447
3.30633
3.28996
3.23382
3.13019
2.99221
2.82515
2.66024
2.47557
2.49454
2.80164
3.53063
4.14975
4.24488
4.13176
3.93036
3.73219
3.55499
3.39777
3.2548
3.12198
2.9913
2.87514
2.76936
2.66618
2.56366
2.47065
2.37937
2.29581
2.21923
2.16016
2.10142
2.04647
1.99138
1.95479
1.92839
2.01357
2.27409
2.74153
3.04821
3.20844
3.20214
3.16997
3.11063
3.01709
2.91002
2.80467
2.72054
2.66347
2.61787
2.57317
2.52867
2.48336
2.43219
2.3765
2.3171
2.23234
2.153
2.12805
2.1114
2.10025
2.10874
2.16165
2.27655
2.41898
2.56458
2.66575
2.75957
2.84944
2.8571
2.84412
2.81019
2.76354
2.71364
2.64908
2.5829
2.52686
2.48243
2.45068
2.42153
2.39339
2.36153
2.31917
2.26633
2.21312
2.17378
2.14501
2.12225