/*--------------------------------*- C++ -*----------------------------------*\
  =========                 |
  \\      /  F ield         | OpenFOAM: The Open Source CFD Toolbox
   \\    /   O peration     | Website:  https://openfoam.org
    \\  /    A nd           | Version:  7
     \\/     M anipulation  |
\*---------------------------------------------------------------------------*/
FoamFile
{
    version     2.0;
    format      ascii;
    class       volScalarField;
    location    "1.2";
    object      T;
}
// * * * * * * * * * * * * * * * * * * * * * * * * * * * * * * * * * * * * * //

dimensions      [0 0 0 1 0 0 0];

internalField   nonuniform List<scalar> 
4608
(
1
1
1
1
1
1
1
1
1
1
1
1
1
1
1
1
1
1
1
1
1
1
1
1
1
1
1
1
1
1
1
1
1
1
1
1
1
1
1
1
1
1
1
1
1
1
1
1
1
1
1
1
1
1
1
1
1
1
1
1
1
1
1
1
1
1
1
1
1
1
1
1
1
1
1
1
1
1
1
1
1
1
1
1
1
1
1
1
1
1
1
1
1
1
1
1
1
1
1
1
1
1
1
1
1
1
1
1
1
1
1
1
1
1
1
1
1
1
1
1
1
1
1
1
1
1
1
1
1
1
1
1
1
1
1
1
1
1
1
1
1
1
1
1
1
1
1
1
1
1
1
1
1
1
1
1
1
1
1
1
1
1
1
1
1
1
1
1
1
1
1
1
1
1
1
1
1
1
1
1
1
1
1
1
1
1
1
1
1
1
1
1
1
1
1
1
1
1
1
1
1
1
1
1
1
1
1
1
1
1
1
1
1
1
1
1
1
1
1
1
1
1
1
1
1
1
1
1
1
1
1
1
1
1
1
1
1
1
1
1
1
1
1
1
1
1
1
1
1
1
1
1
1
1
1
1
1
1
1
1
1
1
1
1
1
1
1
1
1
1
1
1
1
1
1
1
1
1
1
1
1
1
1
1
1
1
1
1
1
1
1
1
1
1
1
1
1
1
1
1
1
1
1
1
1
1
1
1
1
1
1
1
1
1
1
1
1
1
1
1
1
1
1
1
1
1
1
1
1
1
1
1
1
1
1
1
1
1
1
1
1
1
1
1
1
1
1
1
1
1
1
1
1
1
1
1
1
1
1
1
1
1
1
1
1
1
1
1
1
1
1
1
1
1
1
1
1
1
1
1
1
1
1
1
1
1
1
1
1
1
1
1
1
1
1
1
1
1
1
1
1
1
1
1
1
1
1
1
1
1
1
1
1
1
1
1
1
1
1
1
1
1
1
1
1
1
1
1
1
1
1
1
1
1
1
1
1
1
1
1
1
1
1
1
1
1
1
1
1
1
1
1
1
1
1
1
1
1
1
1
1
1
1
1
1
1
1
1
1
1
1
1
1
1
1
1
1
1
1
1
1
1
1
1
1
1
1
1
1
1
1
1
1
1
1
1
1
1
1
1
1
1
1
1
1
1
1
1
1
1
1
1
1
1
1
1
1
1
1
1
1
1
1
1
1
1
1
1
1
1
1
1
1
1
1
1
1
1
1
1
1
1
1
1
1
1
1
1
1
1
1
1
1
1
1
1
1
1
1
1
1
1
1
1
1
1
1
1
1
1
1
1
1
1
1
1
1
1
1
1
1
1
1
1
1
1
1
1
1
1
1
1
1
1
1
1
1
1
1
1
1
1
1
1
1
1
1
1
1
1
1
1
1
1
1
1
1
1
1
1
1
1
1
1
1
1
1
1
1
1
1
1
1
1
1
1
1
1
1
1
1
1
1
1
1
1
1
1
1
1
1
1
1
1
1
1
1
1
1
1
1
1
1
1
1
1
1
1
1
1
1
1
1
1
1
1
1
1
1
1
1
1
1
1
1
1
1
1
1
1
1
1
1
1
1
1
1
1
1
1
1
1
1
1
1
1
1
1
1
1
1
1
1
1
1
1
1
1
1
1
1
1
1
1
1
1
1
1
1
1
1
1
1
1
1
1
1
1
1
1
1
1
1
1
1
1
1
1
1
1
1
1
1
1
1
1
1
1
1
1
1
1
1
1
1
1
1
1
1.07871
1.18251
1.28437
1.39305
1.48684
1.57039
1.64051
1.68316
1.69807
1.68157
1.63759
1.58696
1.54206
1.52406
1.5133
1.51519
1.51959
1.52386
1.52824
1.53185
1.53483
1.53851
1.53975
1.53975
1.00063
1.00679
1.03012
1.07052
1.14749
1.2308
1.32376
1.40505
1.48542
1.5171
1.54813
1.56736
1.56347
1.55016
1.54139
1.53829
1.53416
1.53239
1.53307
1.5346
1.53709
1.5401
1.54139
1.54226
1
0.999984
1.00008
1.00005
1.00129
1.00798
1.03745
1.11563
1.26963
1.45033
1.56677
1.62329
1.62267
1.6105
1.58989
1.56141
1.54408
1.54423
1.54357
1.54346
1.54382
1.54482
1.54615
1.54806
1
1
1
1
0.999995
1.00001
0.999974
1.00065
1.01202
1.11417
1.30652
1.49961
1.60513
1.61138
1.59989
1.58609
1.57513
1.57252
1.56739
1.56021
1.55501
1.55432
1.55432
1.55551
1
1
1
1
1
1
0.999997
0.999998
0.999961
1.00063
1.01454
1.13073
1.34335
1.5455
1.61148
1.61946
1.6129
1.60669
1.59189
1.57793
1.57198
1.56761
1.56658
1.56813
1
1
1
1
1
1
1
1
0.999997
0.999997
0.999962
1.00119
1.02854
1.17274
1.40493
1.56303
1.61893
1.61584
1.60669
1.59666
1.58921
1.584
1.57833
1.57868
1
1
1
1
1
1
1
1
1
1
0.999996
0.999998
0.999994
1.00312
1.06575
1.24502
1.46347
1.56746
1.60792
1.60679
1.60049
1.59262
1.58721
1.5828
1
1
1
1
1
1
1
1
1
1
1
1
0.999999
0.999988
1.00046
1.01106
1.12846
1.33422
1.52898
1.57259
1.58645
1.58666
1.58504
1.58064
1
1
1
1
1
1
1
1
1
1
1
1
1
0.999998
0.999998
0.999988
1.00315
1.04079
1.22785
1.43568
1.55862
1.58723
1.58657
1.58358
1
1
1
1
1
1
1
1
1
1
1
1
1
1
1
0.999999
0.999991
1.00028
1.01665
1.12981
1.36276
1.50168
1.56834
1.58319
1
1
1
1
1
1
1
1
1
1
1
1
1
1
1
1
0.999999
0.999998
1.00008
1.00445
1.07535
1.27843
1.48457
1.54847
1
1
1
1
1
1
1
1
1
1
1
1
1
1
1
1
1
1
0.999999
1
1.00192
1.04112
1.21461
1.41053
1
1
1
1
1
1
1
1
1
1
1
1
1
1
1
1
1
1
1
1
0.999999
1.00073
1.01998
1.15431
1
1
1
1
1
1
1
1
1
1
1
1
1
1
1
1
1
1
1
1
1
0.999999
1.00025
1.01126
1
1
1
1
1
1
1
1
1
1
1
1
1
1
1
1
1
1
1
1
1
1
1
1.00002
1
1
1
1
1
1
1
1
1
1
1
1
1
1
1
1
1
1
1
1
1
1
1
1
1
1
1
1
1
1
1
1
1
1
1
1
1
1
1
1
1
1
1
1
1
1
1
1
1
1
1
1
1
1
1
1
1
1
1
1
1
1
1
1
1
1
1
1
1
1
1
1.00002
1
1
1
1
1
1
1
1
1
1
1
1
1
1
1
1
1
1
1
1
1
0.999999
1.00025
1.01126
1
1
1
1
1
1
1
1
1
1
1
1
1
1
1
1
1
1
1
1
0.999999
1.00073
1.01998
1.15431
1
1
1
1
1
1
1
1
1
1
1
1
1
1
1
1
1
1
0.999999
1
1.00192
1.04112
1.21461
1.41053
1
1
1
1
1
1
1
1
1
1
1
1
1
1
1
1
0.999999
0.999998
1.00008
1.00445
1.07535
1.27843
1.48457
1.54847
1
1
1
1
1
1
1
1
1
1
1
1
1
1
1
0.999999
0.999991
1.00028
1.01665
1.12981
1.36276
1.50168
1.56834
1.58319
1
1
1
1
1
1
1
1
1
1
1
1
1
0.999998
0.999998
0.999988
1.00315
1.04079
1.22785
1.43568
1.55862
1.58723
1.58657
1.58358
1
1
1
1
1
1
1
1
1
1
1
1
0.999999
0.999988
1.00046
1.01106
1.12846
1.33422
1.52898
1.57259
1.58645
1.58666
1.58504
1.58064
1
1
1
1
1
1
1
1
1
1
0.999996
0.999998
0.999994
1.00312
1.06575
1.24502
1.46347
1.56746
1.60792
1.60679
1.60049
1.59262
1.58721
1.5828
1
1
1
1
1
1
1
1
0.999997
0.999997
0.999962
1.00119
1.02854
1.17274
1.40493
1.56303
1.61893
1.61584
1.60669
1.59666
1.58921
1.584
1.57833
1.57868
1
1
1
1
1
1
0.999997
0.999998
0.999961
1.00063
1.01454
1.13073
1.34335
1.5455
1.61148
1.61946
1.6129
1.60669
1.59189
1.57793
1.57198
1.56761
1.56658
1.56813
1
1
1
1
0.999995
1.00001
0.999974
1.00065
1.01202
1.11417
1.30652
1.49961
1.60513
1.61138
1.59989
1.58609
1.57513
1.57252
1.56739
1.56021
1.55501
1.55432
1.55432
1.55551
1
0.999984
1.00008
1.00005
1.00129
1.00798
1.03745
1.11563
1.26963
1.45033
1.56677
1.62329
1.62267
1.6105
1.58989
1.56141
1.54408
1.54423
1.54357
1.54346
1.54382
1.54482
1.54615
1.54806
1.00063
1.00679
1.03012
1.07052
1.14749
1.2308
1.32376
1.40505
1.48542
1.5171
1.54813
1.56736
1.56347
1.55016
1.54139
1.53829
1.53416
1.53239
1.53307
1.5346
1.53709
1.5401
1.54139
1.54226
1.07871
1.18251
1.28437
1.39305
1.48684
1.57039
1.64051
1.68316
1.69807
1.68157
1.63759
1.58696
1.54206
1.52406
1.5133
1.51519
1.51959
1.52386
1.52824
1.53185
1.53483
1.53851
1.53975
1.53975
1.39813
1.22647
1.10558
1.03876
0.977034
0.970537
0.981692
1.00892
1.04388
1.06681
1.07647
1.08293
1.09038
1.09796
1.10428
1.11231
1.11444
1.1157
1.11619
1.11377
1.10747
1.10252
1.10499
1.13576
1.27086
1.52268
1.76299
1.97092
2.1285
2.17321
2.1345
2.06244
1.99282
1.95664
1.93204
1.91267
1.89237
1.8714
1.85068
1.83021
1.81053
1.79044
1.76869
1.74555
1.72142
1.69908
1.68123
1.66627
1.65275
1.64024
1.62766
1.61219
1.59099
1.5662
1.54384
1.52917
1.52087
1.51288
1.50357
1.4929
1.48012
1.46239
1.43892
1.4205
1.40964
1.40182
1.39727
1.39353
1.38857
1.38051
1.36814
1.34995
1.32508
1.30464
1.2968
1.29102
1.28491
1.27989
1.27578
1.27119
1.26382
1.25115
1.23259
1.21852
1.21197
1.20836
1.20681
1.20941
1.22047
1.2435
1.27646
1.30494
1.33517
1.36434
1.39666
1.45091
1.49686
1.41173
1.3107
1.24998
1.18722
1.12128
1.09062
1.07531
1.06976
1.05951
1.04824
1.04948
1.05344
1.05901
1.06702
1.07839
1.08282
1.08587
1.08826
1.08812
1.08499
1.08671
1.11612
1.28713
1.48777
1.55634
1.62884
1.72106
1.85861
1.96174
2.0326
2.02863
2.00065
1.96983
1.94413
1.9197
1.89693
1.87797
1.85864
1.83833
1.81792
1.79663
1.77427
1.75141
1.72922
1.70976
1.69223
1.67605
1.662
1.64928
1.63629
1.62087
1.60041
1.57707
1.5571
1.54226
1.53136
1.52172
1.51175
1.50084
1.48802
1.47135
1.4503
1.43162
1.41995
1.41103
1.40544
1.40132
1.39552
1.38676
1.37463
1.3586
1.33786
1.31776
1.30687
1.2999
1.29349
1.28817
1.28394
1.27893
1.27215
1.25993
1.24499
1.23129
1.228
1.23095
1.2408
1.2608
1.29107
1.32399
1.34618
1.36254
1.36914
1.37738
1.3837
1.40652
1.5339
1.49444
1.42654
1.35072
1.28906
1.22545
1.17117
1.12789
1.08665
1.0618
1.05129
1.0407
1.03679
1.03701
1.04125
1.04886
1.05257
1.05658
1.06013
1.06353
1.0686
1.10671
1.2912
1.49121
1.57418
1.58356
1.58409
1.58962
1.62824
1.75904
1.92228
1.99658
2.01005
1.99144
1.95554
1.92123
1.8947
1.87315
1.85102
1.82711
1.80365
1.78293
1.76408
1.74612
1.72816
1.70878
1.68795
1.66861
1.65204
1.6379
1.62444
1.60914
1.59075
1.57072
1.5524
1.5376
1.52542
1.51393
1.50181
1.48952
1.47687
1.46191
1.44481
1.42975
1.41756
1.40626
1.3944
1.38781
1.38284
1.37531
1.36415
1.34962
1.33133
1.31297
1.3024
1.2957
1.28901
1.28309
1.27989
1.2764
1.27206
1.26646
1.25793
1.26053
1.27608
1.29874
1.32815
1.35396
1.37484
1.39196
1.38938
1.38965
1.38885
1.38692
1.383
1.37834
1.55216
1.53574
1.49798
1.43679
1.3752
1.32095
1.26231
1.21215
1.1625
1.12287
1.10681
1.0919
1.06991
1.05121
1.04557
1.04087
1.03769
1.03883
1.04304
1.04945
1.10867
1.29548
1.51768
1.5655
1.5746
1.57861
1.56981
1.55697
1.54458
1.55947
1.64753
1.80843
1.94179
1.95621
1.95041
1.93232
1.90751
1.88056
1.8511
1.82244
1.79857
1.78114
1.76664
1.75126
1.73317
1.71166
1.68931
1.66907
1.65138
1.63587
1.62134
1.60534
1.5866
1.56966
1.554
1.53983
1.52724
1.51506
1.50139
1.48661
1.47349
1.46142
1.4485
1.43508
1.42135
1.40861
1.39498
1.38363
1.37708
1.37037
1.36041
1.34718
1.33155
1.31466
1.30455
1.29823
1.29261
1.28744
1.2847
1.28304
1.28951
1.30537
1.32942
1.35982
1.38367
1.40443
1.42317
1.42448
1.42336
1.42215
1.4147
1.40874
1.40565
1.40098
1.39394
1.37861
1.56434
1.55866
1.5402
1.50324
1.44755
1.39319
1.34387
1.29136
1.23906
1.18958
1.15224
1.13694
1.12055
1.09736
1.0651
1.04523
1.03966
1.04003
1.04826
1.13083
1.32672
1.52264
1.58685
1.58029
1.56866
1.55609
1.54464
1.53394
1.52264
1.50779
1.51032
1.55345
1.69004
1.8313
1.92191
1.92181
1.9117
1.88574
1.85207
1.82419
1.80013
1.77965
1.76053
1.73957
1.71839
1.70054
1.68555
1.6699
1.65366
1.63733
1.62101
1.60239
1.57895
1.56313
1.55688
1.54891
1.53817
1.52457
1.5075
1.48847
1.46867
1.45174
1.43866
1.42722
1.4164
1.40665
1.39529
1.38438
1.3762
1.36785
1.35454
1.34119
1.33242
1.32284
1.31421
1.30923
1.30634
1.30884
1.32112
1.34509
1.37646
1.40738
1.43436
1.44306
1.44847
1.45515
1.45469
1.45081
1.44295
1.43188
1.41823
1.40812
1.40211
1.39546
1.38732
1.37437
1.57691
1.57389
1.56694
1.54679
1.51075
1.45911
1.40727
1.36127
1.31802
1.2731
1.21809
1.17853
1.16971
1.15992
1.13045
1.08436
1.07198
1.08546
1.18016
1.38476
1.54182
1.60022
1.59546
1.57651
1.55899
1.54073
1.52733
1.51534
1.50122
1.48398
1.4744
1.46207
1.47492
1.55771
1.70981
1.83244
1.87642
1.86661
1.85083
1.82902
1.80417
1.78083
1.76008
1.73869
1.71589
1.69606
1.68049
1.66835
1.65821
1.64409
1.62425
1.59998
1.57859
1.5639
1.55017
1.53874
1.52912
1.51828
1.504
1.48458
1.46545
1.45075
1.43881
1.42786
1.41767
1.40846
1.39901
1.38847
1.37592
1.36257
1.35021
1.34201
1.3355
1.32954
1.32981
1.34024
1.36531
1.40034
1.43353
1.45786
1.47986
1.48713
1.48117
1.47884
1.48137
1.4825
1.47834
1.46985
1.45678
1.43715
1.41828
1.40706
1.39984
1.39133
1.3833
1.37246
1.58301
1.58227
1.58015
1.57308
1.55128
1.51622
1.47343
1.4199
1.37442
1.34161
1.30593
1.25347
1.20591
1.19628
1.18316
1.15151
1.16248
1.28259
1.49112
1.6088
1.63774
1.62605
1.60076
1.57847
1.55949
1.53798
1.52307
1.5068
1.48776
1.46902
1.4554
1.44118
1.42642
1.41907
1.45197
1.56268
1.71809
1.80013
1.82536
1.81805
1.80229
1.78125
1.76003
1.73814
1.71446
1.69367
1.67672
1.6624
1.64862
1.63481
1.61791
1.59734
1.57737
1.56053
1.54708
1.53605
1.52656
1.51817
1.50826
1.48916
1.4611
1.44728
1.44173
1.43449
1.42579
1.41821
1.40929
1.39546
1.37927
1.36666
1.35558
1.34815
1.35342
1.37467
1.41251
1.45173
1.48542
1.51559
1.52617
1.52183
1.51256
1.5041
1.49566
1.49213
1.49073
1.48478
1.47599
1.4657
1.45231
1.43842
1.42393
1.41248
1.40345
1.39348
1.38591
1.37509
1.58068
1.58059
1.57992
1.5793
1.57256
1.55086
1.5192
1.48242
1.43343
1.38507
1.36043
1.33067
1.28292
1.24309
1.22673
1.26042
1.40679
1.60286
1.70052
1.69562
1.6706
1.64065
1.61299
1.5888
1.56545
1.54245
1.52317
1.5035
1.48217
1.46386
1.44711
1.42893
1.40835
1.39611
1.38266
1.38714
1.44616
1.57361
1.7041
1.7468
1.75941
1.75833
1.74717
1.72955
1.70998
1.68875
1.66763
1.65004
1.63559
1.62245
1.60777
1.59034
1.57271
1.55772
1.54587
1.53594
1.52637
1.51525
1.50072
1.47979
1.45506
1.44354
1.43456
1.42521
1.41711
1.41122
1.40432
1.39761
1.38578
1.37457
1.38299
1.40913
1.45216
1.50136
1.53339
1.55476
1.56313
1.56186
1.55736
1.54901
1.53707
1.52461
1.51484
1.50422
1.49218
1.4804
1.47021
1.46104
1.4506
1.43922
1.42899
1.4186
1.40759
1.39519
1.38636
1.37523
1.57989
1.57949
1.57936
1.5797
1.57903
1.57058
1.54958
1.51857
1.48515
1.44359
1.40203
1.37024
1.33836
1.32044
1.37802
1.55071
1.7223
1.77082
1.7576
1.72484
1.69079
1.66107
1.63397
1.60666
1.57691
1.54859
1.52534
1.50455
1.48369
1.46479
1.44465
1.42372
1.40027
1.38403
1.36737
1.35629
1.34676
1.36303
1.43916
1.56428
1.65897
1.72173
1.72878
1.72211
1.70211
1.67957
1.65786
1.64109
1.62548
1.60942
1.59383
1.57784
1.56467
1.55561
1.54778
1.5386
1.52626
1.511
1.49445
1.47144
1.4477
1.43906
1.43203
1.42417
1.41894
1.41574
1.41257
1.4154
1.43201
1.45619
1.49756
1.53643
1.57324
1.59175
1.58741
1.58274
1.57657
1.56863
1.55848
1.54831
1.53782
1.52531
1.5128
1.50219
1.49236
1.48121
1.46913
1.45986
1.45418
1.44646
1.43436
1.42133
1.40872
1.39547
1.38716
1.37628
1.58207
1.57983
1.57988
1.58156
1.58273
1.57986
1.56913
1.54857
1.5209
1.48636
1.45075
1.40895
1.41773
1.51766
1.7004
1.83636
1.84738
1.82552
1.78719
1.749
1.71394
1.68132
1.65002
1.61972
1.58927
1.56156
1.53591
1.51069
1.48512
1.46176
1.43894
1.41708
1.39638
1.37967
1.36295
1.34683
1.33099
1.31992
1.31394
1.34378
1.42816
1.55806
1.63519
1.67408
1.67648
1.6706
1.6589
1.64132
1.62119
1.60074
1.58321
1.56999
1.55922
1.54934
1.53926
1.52827
1.51527
1.50116
1.48644
1.4653
1.44488
1.43751
1.43275
1.42914
1.43153
1.44708
1.48191
1.52369
1.56075
1.58872
1.6074
1.62358
1.62526
1.6224
1.61435
1.60253
1.58694
1.56948
1.55311
1.54189
1.5309
1.52047
1.51185
1.50298
1.49325
1.48273
1.47134
1.46005
1.44995
1.44218
1.43249
1.42097
1.40976
1.39938
1.39258
1.37934
1.55983
1.56707
1.57176
1.57638
1.57951
1.57865
1.57386
1.56486
1.54525
1.52016
1.49111
1.52707
1.68436
1.85386
1.91595
1.90881
1.87635
1.83761
1.80119
1.76684
1.73242
1.69718
1.66164
1.62769
1.59609
1.56902
1.54423
1.51979
1.49447
1.4688
1.44145
1.41453
1.39205
1.37482
1.35971
1.34309
1.32623
1.31104
1.30109
1.28633
1.2876
1.32749
1.43394
1.53441
1.61101
1.63066
1.63036
1.62717
1.6163
1.59497
1.57339
1.56103
1.55135
1.54049
1.52816
1.51628
1.50498
1.49221
1.47651
1.4586
1.44518
1.44322
1.44799
1.46988
1.51239
1.57208
1.61416
1.64568
1.64213
1.63808
1.63148
1.62904
1.6266
1.62023
1.61093
1.59851
1.58313
1.56586
1.55044
1.53818
1.52579
1.51623
1.5105
1.50318
1.49348
1.48395
1.47243
1.45986
1.44819
1.4384
1.43309
1.42709
1.41841
1.409
1.40002
1.3806
1.53493
1.57307
1.57711
1.57249
1.57129
1.57334
1.5738
1.57115
1.55855
1.56179
1.65694
1.84028
1.98244
2.00878
1.98836
1.93779
1.88891
1.8474
1.81094
1.77615
1.74109
1.70528
1.66957
1.6362
1.60556
1.57804
1.55139
1.52492
1.49818
1.47174
1.44527
1.41936
1.39612
1.37428
1.35654
1.34273
1.33131
1.31691
1.29931
1.28069
1.26735
1.2552
1.2675
1.31866
1.42248
1.51982
1.57412
1.59228
1.58974
1.57775
1.55749
1.54349
1.53326
1.52305
1.51147
1.50236
1.49294
1.48524
1.4711
1.46291
1.47005
1.50189
1.55248
1.60894
1.65278
1.68636
1.69135
1.68374
1.67378
1.66188
1.64577
1.63039
1.62022
1.61274
1.60441
1.59206
1.5753
1.55686
1.54412
1.53535
1.52499
1.51607
1.51044
1.50293
1.49376
1.48395
1.47091
1.45823
1.4479
1.43791
1.43007
1.42308
1.41537
1.4079
1.39972
1.38094
1.38401
1.53638
1.55493
1.55405
1.55949
1.5664
1.57285
1.57766
1.61261
1.77534
1.99419
2.05535
2.04657
2.0218
1.98461
1.94308
1.90041
1.85863
1.81903
1.78185
1.74643
1.71108
1.67532
1.64107
1.60958
1.58111
1.55377
1.5273
1.50122
1.47517
1.44866
1.42223
1.39956
1.37948
1.36145
1.34319
1.32435
1.30531
1.28862
1.27309
1.25905
1.24785
1.23773
1.22494
1.24008
1.31251
1.40946
1.50001
1.55622
1.55655
1.54782
1.53419
1.5215
1.50984
1.5006
1.49623
1.48883
1.4905
1.50442
1.53525
1.58695
1.64012
1.68633
1.70611
1.7038
1.69798
1.68561
1.67352
1.66149
1.65309
1.6448
1.63335
1.62377
1.61549
1.60417
1.58827
1.56943
1.55038
1.53753
1.53063
1.52268
1.51642
1.51175
1.50409
1.49528
1.48538
1.47192
1.45899
1.44741
1.43645
1.42899
1.42229
1.41503
1.40836
1.40167
1.38369
1.12364
1.35521
1.47893
1.53739
1.55552
1.5684
1.59453
1.68169
1.87116
2.06298
2.13686
2.12337
2.07345
2.0203
1.98163
1.94749
1.91027
1.86966
1.8283
1.78828
1.7502
1.71366
1.67874
1.64603
1.61554
1.58697
1.55873
1.53084
1.50327
1.47629
1.45117
1.42814
1.40812
1.38783
1.3653
1.34229
1.32331
1.30511
1.28836
1.27526
1.26309
1.24929
1.23092
1.2172
1.20264
1.20376
1.22989
1.30936
1.42319
1.49459
1.5128
1.51593
1.50665
1.50065
1.50254
1.5145
1.54073
1.58388
1.63617
1.68075
1.7156
1.7356
1.73984
1.73677
1.72786
1.7067
1.68168
1.66284
1.64965
1.64267
1.63687
1.62838
1.61918
1.61124
1.60059
1.58456
1.56588
1.54899
1.53685
1.53005
1.52337
1.517
1.51066
1.50166
1.49226
1.48371
1.47385
1.46405
1.45204
1.43741
1.42598
1.41819
1.41175
1.40575
1.399
1.38351
1.00851
1.08926
1.2854
1.45062
1.51448
1.62889
1.79347
1.95943
2.07849
2.11998
2.11712
2.10755
2.07882
2.03378
1.99049
1.9509
1.91273
1.87518
1.83721
1.79792
1.75766
1.71783
1.6806
1.64711
1.61695
1.58922
1.56274
1.53743
1.51171
1.48474
1.4572
1.43016
1.40474
1.38069
1.36752
1.35708
1.34306
1.32614
1.30718
1.28148
1.25751
1.24827
1.23946
1.2269
1.21217
1.19121
1.17782
1.18673
1.23466
1.32841
1.41611
1.47184
1.48302
1.51626
1.57799
1.63938
1.67751
1.71766
1.73988
1.74813
1.74702
1.74171
1.73573
1.72697
1.71457
1.70324
1.69032
1.67694
1.66268
1.64974
1.63907
1.62741
1.61571
1.60732
1.60069
1.58791
1.57197
1.55772
1.54596
1.53785
1.53071
1.52249
1.51333
1.50319
1.49366
1.48517
1.47704
1.46698
1.45513
1.44195
1.42774
1.41707
1.41027
1.4054
1.40027
1.38498
1.00013
1.00482
1.06197
1.2412
1.54313
1.80691
1.99231
2.11769
2.17726
2.15335
2.11011
2.09428
2.07699
2.04426
1.99856
1.95204
1.91087
1.87439
1.83899
1.80129
1.761
1.7204
1.68248
1.64853
1.61835
1.59043
1.5629
1.53586
1.50915
1.48276
1.45683
1.4316
1.40803
1.38658
1.36616
1.3465
1.32967
1.31208
1.29223
1.27365
1.25901
1.24412
1.22761
1.21279
1.19778
1.1813
1.1696
1.16417
1.16712
1.18652
1.2497
1.36886
1.50218
1.60457
1.69919
1.75334
1.77615
1.79771
1.80163
1.79477
1.77975
1.75289
1.72432
1.70648
1.69421
1.68651
1.68072
1.67163
1.6598
1.647
1.63332
1.62006
1.60948
1.60035
1.59149
1.57995
1.56616
1.55323
1.54148
1.53157
1.52366
1.51557
1.5063
1.49635
1.48729
1.48048
1.47573
1.47051
1.45943
1.44091
1.42421
1.41407
1.40736
1.40277
1.3993
1.38914
1.00013
1.00482
1.06197
1.24119
1.5431
1.80694
1.99232
2.11769
2.17726
2.15334
2.11009
2.09426
2.07698
2.04426
1.99856
1.95204
1.91087
1.8744
1.839
1.8013
1.761
1.72039
1.68247
1.64851
1.61834
1.59042
1.56288
1.53584
1.50916
1.48282
1.45682
1.4315
1.40791
1.38647
1.36607
1.34646
1.32965
1.31207
1.29221
1.27363
1.25902
1.24413
1.22761
1.21279
1.19777
1.18131
1.1696
1.1642
1.16712
1.18738
1.25859
1.37031
1.50503
1.61195
1.68624
1.74755
1.78343
1.79861
1.80075
1.79605
1.77979
1.74937
1.72064
1.70347
1.6911
1.68425
1.68037
1.67232
1.65979
1.64663
1.6325
1.61944
1.61014
1.6011
1.59088
1.57934
1.56584
1.55193
1.53997
1.53044
1.52261
1.51493
1.50571
1.49574
1.48701
1.48109
1.47652
1.46951
1.45713
1.43963
1.42387
1.41372
1.40716
1.40362
1.40008
1.38771
1.00851
1.08926
1.2854
1.45061
1.51446
1.62893
1.79348
1.95943
2.07849
2.11998
2.11712
2.10755
2.07882
2.03378
1.99049
1.95091
1.91274
1.87518
1.83721
1.79792
1.75766
1.71783
1.68061
1.64712
1.61696
1.58922
1.56272
1.53739
1.51165
1.48467
1.45709
1.43005
1.40469
1.38072
1.36755
1.35704
1.34299
1.32606
1.30711
1.2814
1.2575
1.24827
1.23947
1.22691
1.21216
1.19128
1.17773
1.18745
1.23347
1.3287
1.41893
1.4661
1.4863
1.52255
1.56385
1.63216
1.6915
1.72084
1.74331
1.75151
1.74925
1.74054
1.73192
1.72391
1.71264
1.70372
1.69331
1.67906
1.66225
1.64723
1.63308
1.6244
1.61856
1.61091
1.60117
1.5888
1.57271
1.55571
1.54036
1.52989
1.5259
1.52036
1.51167
1.50226
1.49407
1.48738
1.48086
1.4722
1.4585
1.44131
1.42845
1.42031
1.41462
1.40991
1.40462
1.39009
1.12364
1.35521
1.47894
1.53739
1.55552
1.56841
1.59453
1.68168
1.87115
2.06298
2.13686
2.12336
2.07345
2.0203
1.98163
1.94749
1.91027
1.86967
1.82831
1.78828
1.7502
1.71366
1.67874
1.64603
1.61554
1.58697
1.55873
1.53085
1.50327
1.47629
1.4512
1.42819
1.40808
1.38773
1.3652
1.34224
1.32327
1.30507
1.28836
1.27541
1.26323
1.24932
1.23092
1.21719
1.20264
1.20385
1.22875
1.31318
1.41509
1.50203
1.51558
1.51024
1.50411
1.50164
1.50237
1.51384
1.54856
1.58753
1.63492
1.67881
1.71501
1.73559
1.74005
1.73776
1.73024
1.71031
1.68559
1.66466
1.64975
1.64215
1.63342
1.62608
1.62059
1.61191
1.60001
1.5851
1.56642
1.54963
1.53891
1.52854
1.52129
1.51645
1.50968
1.50125
1.49212
1.48301
1.47481
1.46492
1.45052
1.43626
1.42652
1.4189
1.41251
1.40707
1.40206
1.38725
1.38401
1.53638
1.55493
1.55405
1.55949
1.5664
1.57285
1.57766
1.61261
1.77534
1.99419
2.05535
2.04657
2.0218
1.98461
1.94308
1.90041
1.85863
1.81903
1.78185
1.74642
1.71107
1.67532
1.64106
1.60957
1.58111
1.55378
1.52732
1.50123
1.47516
1.44865
1.42223
1.39959
1.37951
1.36146
1.34317
1.32432
1.30531
1.28866
1.27306
1.25901
1.2478
1.23772
1.22492
1.24041
1.31148
1.41167
1.50052
1.54999
1.55781
1.55127
1.53654
1.52079
1.51021
1.50128
1.49635
1.48884
1.49056
1.50262
1.53413
1.58786
1.64219
1.68492
1.70754
1.70657
1.70057
1.68566
1.67265
1.6611
1.65164
1.64214
1.6326
1.62495
1.61576
1.60443
1.58979
1.56895
1.55008
1.53893
1.52933
1.52222
1.51772
1.51249
1.50551
1.49655
1.48581
1.47396
1.46007
1.44399
1.43505
1.42998
1.42371
1.41698
1.4106
1.40441
1.38717
1.53493
1.57307
1.57711
1.57249
1.57129
1.57334
1.5738
1.57115
1.55855
1.5618
1.65694
1.84029
1.98244
2.00878
1.98836
1.93779
1.88891
1.8474
1.81093
1.77615
1.74109
1.70527
1.66957
1.6362
1.60557
1.57804
1.5514
1.52492
1.49818
1.47174
1.44527
1.41937
1.39614
1.3743
1.35655
1.34274
1.33132
1.31691
1.29928
1.28064
1.26733
1.25519
1.26746
1.31842
1.42262
1.51854
1.57633
1.59192
1.58895
1.57788
1.55964
1.54391
1.53277
1.52307
1.51142
1.50223
1.49305
1.48484
1.46982
1.46305
1.47113
1.50362
1.55301
1.60947
1.65373
1.6818
1.69052
1.6846
1.67171
1.66033
1.64843
1.63536
1.62343
1.61423
1.60469
1.59178
1.57267
1.55596
1.54461
1.53422
1.52506
1.51799
1.51176
1.50435
1.49457
1.48269
1.4691
1.45525
1.44461
1.4367
1.42832
1.42057
1.41364
1.40688
1.40008
1.38257
1.55983
1.56707
1.57176
1.57638
1.57951
1.57865
1.57386
1.56486
1.54525
1.52016
1.49111
1.52707
1.68436
1.85386
1.91595
1.90881
1.87635
1.83761
1.80119
1.76684
1.73241
1.69717
1.66164
1.6277
1.59609
1.56902
1.54423
1.51979
1.49447
1.4688
1.44145
1.41453
1.39205
1.37483
1.35972
1.3431
1.32624
1.31104
1.30109
1.28632
1.28757
1.32767
1.43336
1.5351
1.61038
1.63
1.63097
1.62722
1.61616
1.59479
1.5737
1.56146
1.55133
1.54
1.52741
1.51586
1.50484
1.49197
1.47616
1.45841
1.44519
1.44319
1.44809
1.46889
1.51161
1.5655
1.61389
1.64452
1.63941
1.6348
1.63174
1.63225
1.62865
1.62198
1.61155
1.59666
1.57983
1.56431
1.54972
1.53683
1.52682
1.51943
1.51271
1.50531
1.49502
1.48198
1.46843
1.4553
1.44576
1.43743
1.42928
1.4216
1.41395
1.40727
1.39977
1.3795
1.58207
1.57983
1.57988
1.58156
1.58273
1.57986
1.56913
1.54857
1.5209
1.48636
1.45075
1.40895
1.41773
1.51765
1.7004
1.83636
1.84738
1.82552
1.78719
1.749
1.71394
1.68132
1.65003
1.61973
1.58928
1.56156
1.53591
1.51069
1.48512
1.46176
1.43894
1.41708
1.39638
1.37967
1.36296
1.34684
1.33101
1.31992
1.31396
1.34376
1.42813
1.5582
1.63472
1.67453
1.67643
1.6707
1.65898
1.64134
1.62113
1.6006
1.58322
1.57001
1.55914
1.54909
1.53886
1.52799
1.51513
1.50118
1.48656
1.46531
1.44477
1.4374
1.43253
1.42887
1.43116
1.44644
1.48062
1.52446
1.56382
1.58622
1.60534
1.62457
1.62552
1.62253
1.61453
1.60278
1.5893
1.57165
1.55358
1.5393
1.52875
1.52104
1.51307
1.5045
1.4946
1.4827
1.46952
1.45684
1.44705
1.43903
1.43181
1.42377
1.41344
1.40195
1.39263
1.37645
1.57989
1.57949
1.57936
1.5797
1.57903
1.57058
1.54958
1.51857
1.48515
1.44359
1.40203
1.37024
1.33836
1.32044
1.37802
1.55071
1.7223
1.77082
1.7576
1.72484
1.69079
1.66107
1.63398
1.60666
1.57691
1.54859
1.52535
1.50455
1.48369
1.46479
1.44465
1.42372
1.40027
1.38403
1.36738
1.35629
1.34677
1.363
1.43924
1.56409
1.65925
1.72194
1.72859
1.72181
1.702
1.67962
1.65788
1.64114
1.62546
1.60932
1.59367
1.5777
1.56473
1.55585
1.54798
1.53868
1.52631
1.51103
1.49443
1.4714
1.44766
1.43897
1.43187
1.42395
1.41888
1.4158
1.41254
1.41585
1.43182
1.45788
1.49459
1.53936
1.56735
1.58649
1.58539
1.58228
1.57898
1.57314
1.56103
1.54584
1.53344
1.52392
1.51419
1.50366
1.49349
1.48255
1.46987
1.45667
1.44712
1.44085
1.43457
1.42561
1.41331
1.39711
1.3859
1.37361
1.58068
1.58059
1.57992
1.5793
1.57256
1.55086
1.5192
1.48242
1.43343
1.38507
1.36043
1.33067
1.28292
1.24309
1.22673
1.26042
1.40679
1.60287
1.70052
1.69562
1.6706
1.64065
1.61299
1.5888
1.56545
1.54245
1.52317
1.5035
1.48217
1.46386
1.44711
1.42894
1.40835
1.39611
1.38266
1.38714
1.44617
1.57369
1.70398
1.74669
1.75954
1.75837
1.74708
1.72954
1.71005
1.68879
1.66769
1.65013
1.63559
1.62238
1.60767
1.59029
1.5727
1.55768
1.54588
1.53601
1.5265
1.51538
1.50075
1.47969
1.45503
1.44347
1.43441
1.4251
1.41711
1.41128
1.40433
1.39762
1.38569
1.37475
1.3814
1.40666
1.45016
1.49731
1.52989
1.5498
1.56362
1.56425
1.56114
1.55078
1.5374
1.52427
1.5137
1.50313
1.49175
1.48098
1.47004
1.45893
1.44833
1.43865
1.42962
1.42043
1.40936
1.39545
1.38495
1.37328
1.58301
1.58227
1.58015
1.57308
1.55128
1.51622
1.47343
1.4199
1.37442
1.34161
1.30593
1.25347
1.20591
1.19628
1.18316
1.15151
1.16248
1.28259
1.49112
1.6088
1.63774
1.62605
1.60076
1.57847
1.55949
1.53798
1.52306
1.5068
1.48776
1.46902
1.4554
1.44118
1.42642
1.41907
1.45197
1.56269
1.71798
1.80033
1.82531
1.81797
1.80228
1.78128
1.76006
1.73819
1.71452
1.6937
1.67676
1.66243
1.64861
1.63477
1.61787
1.59734
1.57737
1.56052
1.54714
1.53612
1.52656
1.51813
1.50821
1.48904
1.46102
1.44737
1.44183
1.43453
1.42581
1.41824
1.40928
1.39552
1.37928
1.36646
1.35551
1.34783
1.35275
1.37243
1.4118
1.45358
1.48546
1.51077
1.52645
1.52382
1.51441
1.50528
1.49672
1.49312
1.4908
1.48469
1.47564
1.46518
1.45178
1.43853
1.42676
1.41582
1.40421
1.39176
1.38421
1.37385
1.57691
1.57389
1.56694
1.54679
1.51075
1.45911
1.40727
1.36127
1.31802
1.2731
1.21809
1.17853
1.16971
1.15992
1.13045
1.08436
1.07198
1.08546
1.18016
1.38476
1.54182
1.60022
1.59546
1.57651
1.55899
1.54073
1.52733
1.51534
1.50121
1.48398
1.4744
1.46207
1.47492
1.55772
1.70981
1.83246
1.87641
1.86666
1.8508
1.82898
1.80415
1.78083
1.7601
1.73874
1.71594
1.69606
1.68048
1.66834
1.65819
1.64408
1.62424
1.59998
1.5786
1.56391
1.55018
1.53873
1.52908
1.51824
1.50396
1.48456
1.46549
1.45076
1.4388
1.42787
1.41765
1.40845
1.39899
1.38854
1.37591
1.36242
1.35016
1.34202
1.33549
1.32961
1.32995
1.34009
1.36472
1.39711
1.43426
1.45734
1.47576
1.48752
1.48257
1.47984
1.48205
1.48237
1.47797
1.4698
1.45786
1.44088
1.42186
1.40897
1.39964
1.389
1.38123
1.37113
1.56434
1.55866
1.5402
1.50324
1.44755
1.39319
1.34387
1.29136
1.23906
1.18958
1.15224
1.13694
1.12055
1.09736
1.0651
1.04523
1.03966
1.04003
1.04826
1.13083
1.32672
1.52264
1.58685
1.58029
1.56866
1.55609
1.54464
1.53394
1.52264
1.50779
1.51032
1.55345
1.69004
1.83131
1.92191
1.92181
1.9117
1.88572
1.85207
1.82418
1.80013
1.77966
1.76053
1.73957
1.7184
1.70054
1.68553
1.66989
1.65366
1.63733
1.62101
1.60238
1.57895
1.56313
1.55687
1.54889
1.53813
1.52452
1.50746
1.48848
1.4687
1.45175
1.43868
1.42722
1.41638
1.40662
1.39527
1.38443
1.37622
1.36785
1.35455
1.34128
1.33271
1.32307
1.31433
1.3094
1.30621
1.30841
1.32091
1.34573
1.37396
1.40528
1.43347
1.44117
1.44805
1.45541
1.45439
1.45067
1.44419
1.43359
1.41895
1.40765
1.40114
1.39373
1.3855
1.37311
1.55216
1.53574
1.49798
1.43679
1.3752
1.32095
1.26231
1.21215
1.1625
1.12287
1.10681
1.0919
1.06991
1.05121
1.04557
1.04087
1.03769
1.03883
1.04304
1.04945
1.10867
1.29548
1.51768
1.5655
1.5746
1.57861
1.56981
1.55697
1.54458
1.55947
1.64754
1.80843
1.94179
1.95621
1.95041
1.93231
1.90751
1.88055
1.85111
1.82243
1.79857
1.78114
1.76663
1.75125
1.73316
1.71165
1.6893
1.66907
1.65139
1.63588
1.62134
1.60533
1.58658
1.56964
1.55399
1.53982
1.52723
1.51505
1.50139
1.48664
1.47352
1.46144
1.44852
1.43506
1.42129
1.40853
1.39494
1.38367
1.37711
1.37039
1.36043
1.34725
1.33166
1.31475
1.30462
1.29834
1.29268
1.28747
1.28466
1.28296
1.28873
1.30374
1.32828
1.35873
1.38157
1.40379
1.42416
1.42805
1.4258
1.42197
1.41382
1.40762
1.40477
1.40029
1.39359
1.37888
1.5339
1.49444
1.42654
1.35072
1.28906
1.22545
1.17117
1.12789
1.08665
1.0618
1.05129
1.0407
1.03679
1.03701
1.04125
1.04886
1.05257
1.05658
1.06013
1.06353
1.0686
1.10671
1.2912
1.49121
1.57418
1.58355
1.58409
1.58962
1.62824
1.75904
1.92228
1.99658
2.01005
1.99143
1.95554
1.92123
1.89471
1.87315
1.85102
1.82711
1.80365
1.78294
1.76408
1.74612
1.72816
1.70877
1.68795
1.66861
1.65204
1.63791
1.62444
1.60914
1.59074
1.57071
1.55239
1.53759
1.52541
1.51394
1.50182
1.48954
1.47689
1.46194
1.44486
1.42977
1.41754
1.40621
1.39439
1.38782
1.38284
1.37531
1.36414
1.34963
1.33142
1.31302
1.30241
1.29567
1.28901
1.28313
1.2799
1.27628
1.27186
1.26622
1.25754
1.2602
1.27516
1.29822
1.3295
1.35771
1.37458
1.39034
1.38921
1.38878
1.38765
1.38643
1.38313
1.37889
1.49686
1.41173
1.3107
1.24998
1.18722
1.12128
1.09062
1.07531
1.06976
1.05951
1.04824
1.04948
1.05344
1.05901
1.06702
1.07839
1.08282
1.08587
1.08826
1.08812
1.08499
1.08671
1.11612
1.28713
1.48777
1.55634
1.62884
1.72106
1.85861
1.96174
2.0326
2.02863
2.00065
1.96982
1.94413
1.9197
1.89693
1.87797
1.85864
1.83832
1.81792
1.79664
1.77427
1.75141
1.72923
1.70977
1.69223
1.67605
1.66201
1.64928
1.63629
1.62087
1.60042
1.57707
1.55709
1.54225
1.53136
1.52172
1.51175
1.50083
1.48801
1.47136
1.45034
1.43165
1.41994
1.41103
1.40544
1.40129
1.39548
1.38671
1.37456
1.35857
1.33788
1.31779
1.30682
1.29978
1.2934
1.28815
1.28388
1.27881
1.27199
1.2598
1.24495
1.23115
1.22773
1.23073
1.2409
1.26076
1.2901
1.32181
1.34421
1.36242
1.36922
1.37794
1.38417
1.40703
1.39813
1.22647
1.10558
1.03876
0.977034
0.970537
0.981692
1.00892
1.04388
1.06681
1.07647
1.08293
1.09038
1.09796
1.10428
1.11231
1.11444
1.1157
1.11619
1.11377
1.10747
1.10252
1.10499
1.13576
1.27087
1.52268
1.76299
1.97092
2.1285
2.17321
2.1345
2.06244
1.99281
1.95664
1.93204
1.91267
1.89238
1.8714
1.85068
1.83021
1.81054
1.79044
1.7687
1.74555
1.72142
1.69908
1.68123
1.66627
1.65275
1.64023
1.62766