/*--------------------------------*- C++ -*----------------------------------*\
  =========                 |
  \\      /  F ield         | OpenFOAM: The Open Source CFD Toolbox
   \\    /   O peration     | Website:  https://openfoam.org
    \\  /    A nd           | Version:  7
     \\/     M anipulation  |
\*---------------------------------------------------------------------------*/
FoamFile
{
    version     2.0;
    format      ascii;
    class       volVectorField;
    location    "1.2";
    object      U;
}
// * * * * * * * * * * * * * * * * * * * * * * * * * * * * * * * * * * * * * //

dimensions      [0 1 -1 0 0 0 0];

internalField   nonuniform List<vector> 
4608
(
(3 -9.50929e-18 0)
(3 3.44873e-17 0)
(3 -5.91809e-17 0)
(3 1.19796e-16 0)
(3 3.06284e-16 0)
(3 2.07411e-16 0)
(3 -3.27958e-16 0)
(3 9.65682e-17 0)
(3 2.32423e-17 0)
(3 2.19014e-16 0)
(3 3.30654e-16 0)
(3 1.52543e-16 0)
(3 2.46776e-16 0)
(3 1.82008e-16 0)
(3 -1.80339e-16 0)
(3 -5.75568e-17 0)
(3 2.96087e-16 0)
(3 4.18506e-16 0)
(3 1.8159e-16 0)
(3 -1.71557e-17 0)
(3 5.50194e-17 0)
(3 5.93004e-16 0)
(3 1.30732e-15 0)
(3 1.09163e-15 0)
(3 -2.08501e-16 0)
(3 3.65796e-16 0)
(3 4.23238e-16 0)
(3 5.96008e-16 0)
(3 2.5748e-16 0)
(3 -3.21499e-16 0)
(3 -7.7748e-16 0)
(3 -4.9799e-16 0)
(3 -7.82488e-16 0)
(3 -3.55434e-16 0)
(3 1.74427e-16 0)
(3 7.58728e-16 0)
(3 9.92812e-16 0)
(3 6.21904e-16 0)
(3 5.37383e-16 0)
(3 7.19556e-16 0)
(3 1.22716e-15 0)
(3 1.61922e-15 0)
(3 1.30941e-15 0)
(3 8.99177e-16 0)
(3 7.44053e-16 0)
(3 5.67007e-16 0)
(3 3.60803e-15 0)
(3 7.46647e-16 0)
(3 -2.05462e-16 0)
(3 -2.80415e-16 0)
(3 3.68183e-16 0)
(3 3.50283e-16 0)
(3 1.96457e-16 0)
(3 -8.5217e-17 0)
(3 -1.70935e-16 0)
(3 -4.15319e-16 0)
(3 -6.59125e-16 0)
(3 -3.25044e-16 0)
(3 3.8578e-16 0)
(3 1.18088e-15 0)
(3 8.89307e-16 0)
(3 7.07464e-16 0)
(3 6.78491e-16 0)
(3 1.18924e-15 0)
(3 2.20684e-15 0)
(3 3.31927e-15 0)
(3 3.93965e-15 0)
(3 4.2859e-15 0)
(3 4.05443e-15 0)
(3 3.33245e-15 0)
(3 4.58002e-15 0)
(3 3.38622e-15 0)
(3 -1.58605e-17 0)
(3 -4.38786e-16 0)
(3 2.31303e-16 0)
(3 1.63634e-16 0)
(3 2.5556e-16 0)
(3 6.48562e-16 0)
(3 6.75339e-16 0)
(3 4.63769e-16 0)
(3 2.36401e-16 0)
(3 1.43598e-16 0)
(3 -7.19094e-17 0)
(3 1.96853e-16 0)
(3 1.5442e-16 0)
(3 6.40498e-17 0)
(3 -5.80696e-18 0)
(3 3.2011e-16 0)
(3 1.12449e-15 0)
(3 3.77371e-15 0)
(3 4.78306e-15 0)
(3 5.77393e-15 0)
(3 3.19009e-15 0)
(3 9.70405e-16 0)
(3 1.29326e-15 0)
(3 1.10199e-15 0)
(3 2.11618e-16 0)
(3 3.18244e-16 0)
(3 1.93401e-16 0)
(3 -1.82802e-16 0)
(3 -3.79913e-17 0)
(3 -9.96613e-17 0)
(3 -1.43059e-16 0)
(3 3.44659e-17 0)
(3 4.10878e-16 0)
(3 2.55977e-16 0)
(3 -4.20914e-17 0)
(3 -1.44751e-16 0)
(3 -2.23825e-17 0)
(3 -2.44255e-16 0)
(3 -3.61561e-16 0)
(3 1.86286e-16 0)
(3 2.16723e-17 0)
(3 4.87159e-16 0)
(3 6.76816e-16 0)
(3 6.39507e-16 0)
(3 2.71805e-16 0)
(3 4.64756e-16 0)
(3 -1.67106e-16 0)
(3 -1.21893e-15 0)
(3 1.03427e-16 0)
(3 1.79091e-16 0)
(3 -5.74691e-16 0)
(3 -7.76309e-16 0)
(3 -1.06815e-15 0)
(3 -1.78642e-15 0)
(3 -2.13103e-15 0)
(3 -1.86559e-15 0)
(3 -6.24281e-16 0)
(3 -8.00394e-17 0)
(3 -6.95962e-17 0)
(3 -2.61945e-16 0)
(3 3.29954e-16 0)
(3 3.97498e-16 0)
(3 8.59452e-17 0)
(3 -2.63464e-16 0)
(3 -4.23633e-16 0)
(3 -1.12962e-15 0)
(3 -8.95254e-16 0)
(3 -8.1257e-16 0)
(3 2.49748e-16 0)
(3 1.15444e-15 0)
(3 9.81501e-16 0)
(3 -8.7645e-16 0)
(3 1.78846e-17 0)
(3 6.43404e-17 0)
(3 -1.78641e-16 0)
(3 -1.35676e-16 0)
(3 -5.22927e-16 0)
(3 -1.0515e-15 0)
(3 -1.5674e-15 0)
(3 -1.71924e-15 0)
(3 -1.87156e-15 0)
(3 -1.91651e-15 0)
(3 -1.49569e-15 0)
(3 -1.15141e-15 0)
(3 1.57836e-16 0)
(3 8.22297e-16 0)
(3 1.01097e-15 0)
(3 7.25922e-16 0)
(3 5.37809e-16 0)
(3 3.50234e-16 0)
(3 2.743e-16 0)
(3 2.34479e-16 0)
(3 -3.99871e-17 0)
(3 -1.17409e-15 0)
(3 -1.92582e-15 0)
(3 -1.48435e-15 0)
(3 8.51806e-17 0)
(3 4.17128e-16 0)
(3 1.52195e-15 0)
(3 1.32809e-15 0)
(3 1.57642e-15 0)
(3 1.70335e-15 0)
(3 1.40877e-15 0)
(3 9.31824e-16 0)
(3 -9.45112e-16 0)
(3 -1.16173e-15 0)
(3 -8.98877e-16 0)
(3 -4.142e-16 0)
(3 -1.33839e-16 0)
(3 8.15843e-16 0)
(3 9.04394e-16 0)
(3 1.04011e-15 0)
(3 1.19546e-15 0)
(3 1.40333e-15 0)
(3 6.19446e-16 0)
(3 1.6516e-16 0)
(3 -1.81847e-15 0)
(3 -3.04025e-15 0)
(3 -3.87798e-15 0)
(3 -2.98363e-15 0)
(3 -2.74123e-17 0)
(3 -4.13362e-17 0)
(3 2.67131e-16 0)
(3 5.17277e-16 0)
(3 6.4493e-16 0)
(3 1.05241e-15 0)
(3 1.74671e-15 0)
(3 1.60102e-15 0)
(3 1.1535e-15 0)
(3 2.63631e-16 0)
(3 -5.93303e-16 0)
(3 -8.23216e-17 0)
(3 1.88814e-16 0)
(3 -1.87026e-16 0)
(3 -5.2031e-16 0)
(3 -1.38853e-16 0)
(3 1.51175e-16 0)
(3 2.84293e-16 0)
(3 2.16408e-16 0)
(3 -9.00308e-16 0)
(3 -2.11854e-15 0)
(3 -1.83568e-15 0)
(3 -1.23822e-15 0)
(3 -1.68424e-15 0)
(3 4.05758e-17 0)
(3 -8.34247e-16 0)
(3 -1.39849e-15 0)
(3 -1.03922e-15 0)
(3 -9.77554e-16 0)
(3 -7.3127e-16 0)
(3 9.20786e-17 0)
(3 1.89791e-16 0)
(3 1.40748e-15 0)
(3 1.38053e-15 0)
(3 4.85177e-16 0)
(3 -7.49189e-16 0)
(3 -8.13461e-16 0)
(3 -1.71711e-15 0)
(3 -1.91827e-15 0)
(3 -1.40885e-15 0)
(3 -1.37947e-15 0)
(3 -1.21096e-15 0)
(3 -1.03021e-15 0)
(3 -1.46671e-15 0)
(3 -1.80528e-15 0)
(3 -1.76476e-15 0)
(3 -1.56412e-15 0)
(3 -2.14516e-15 0)
(3 -6.27101e-17 0)
(3 -8.67273e-17 0)
(3 -3.01839e-16 0)
(3 -5.7305e-16 0)
(3 -1.44028e-16 0)
(3 -1.81715e-16 0)
(3 -2.20175e-16 0)
(3 -1.8293e-16 0)
(3 3.38844e-16 0)
(3 9.93382e-16 0)
(3 8.20703e-16 0)
(3 -1.04733e-16 0)
(3 -1.56064e-15 0)
(3 -1.55933e-15 0)
(3 -1.22852e-15 0)
(3 -1.12266e-15 0)
(3 -1.03019e-15 0)
(3 -8.55241e-16 0)
(3 -7.79488e-16 0)
(3 -2.76639e-16 0)
(3 -2.3272e-16 0)
(3 -6.85199e-16 0)
(3 -1.0154e-15 0)
(3 -1.16421e-15 0)
(3 -1.28611e-16 0)
(3 -3.92076e-17 0)
(3 4.80303e-16 0)
(3 5.00053e-16 0)
(3 7.51287e-16 0)
(3 7.65082e-16 0)
(3 3.2732e-16 0)
(3 -4.49106e-16 0)
(3 -9.99847e-16 0)
(3 -1.34871e-15 0)
(3 -1.3927e-15 0)
(3 -1.363e-15 0)
(3 -1.05302e-15 0)
(3 -5.79357e-16 0)
(3 -2.73598e-16 0)
(3 -6.05817e-16 0)
(3 -1.01593e-15 0)
(3 -8.99756e-16 0)
(3 -8.53523e-16 0)
(3 7.03761e-17 0)
(3 2.549e-16 0)
(3 -8.81943e-16 0)
(3 -1.39388e-15 0)
(3 -1.67524e-15 0)
(3 -2.81501e-17 0)
(3 -1.15314e-16 0)
(3 -2.29714e-16 0)
(3 -3.05802e-16 0)
(3 -4.3718e-16 0)
(3 -2.06754e-16 0)
(3 -2.58014e-16 0)
(3 -2.45635e-17 0)
(3 -5.57265e-16 0)
(3 -6.60001e-16 0)
(3 -1.21303e-15 0)
(3 -1.23794e-15 0)
(3 -6.18723e-16 0)
(3 2.99286e-16 0)
(3 6.88213e-16 0)
(3 4.16916e-16 0)
(3 -2.33824e-16 0)
(3 -1.15904e-15 0)
(3 -1.34693e-15 0)
(3 -3.66601e-16 0)
(3 9.5881e-16 0)
(3 2.08819e-15 0)
(3 1.80968e-15 0)
(3 1.04358e-15 0)
(3 8.79704e-17 0)
(3 1.08509e-16 0)
(3 -2.96555e-16 0)
(3 -8.44996e-16 0)
(3 -1.45714e-15 0)
(3 -1.04293e-15 0)
(3 -7.50953e-16 0)
(3 -5.51937e-16 0)
(3 -4.17213e-16 0)
(3 -3.0255e-16 0)
(3 -1.53448e-16 0)
(3 -4.73913e-16 0)
(3 -9.85712e-16 0)
(3 -6.53424e-16 0)
(3 -3.71034e-16 0)
(3 -4.8446e-16 0)
(3 -9.95789e-16 0)
(3 -2.14378e-15 0)
(3 -2.38922e-15 0)
(3 -1.61687e-15 0)
(3 6.21271e-16 0)
(3 1.14756e-15 0)
(3 8.65569e-16 0)
(3 1.23653e-15 0)
(3 3.35781e-17 0)
(3 1.79598e-16 0)
(3 2.8087e-16 0)
(3 1.0614e-16 0)
(3 -2.00863e-16 0)
(3 -3.57689e-16 0)
(3 -7.19512e-17 0)
(3 6.24267e-17 0)
(3 6.57878e-17 0)
(3 4.36195e-16 0)
(3 1.09906e-15 0)
(3 2.01026e-16 0)
(3 -1.11608e-15 0)
(3 -1.49914e-15 0)
(3 -1.42413e-15 0)
(3 -1.44099e-15 0)
(3 -1.86164e-15 0)
(3 -2.11699e-15 0)
(3 -1.88599e-15 0)
(3 -7.3943e-16 0)
(3 1.90346e-16 0)
(3 1.22416e-15 0)
(3 9.14175e-16 0)
(3 7.97454e-16 0)
(3 -3.81288e-18 0)
(3 -2.27299e-16 0)
(3 1.25473e-16 0)
(3 1.01655e-15 0)
(3 1.0028e-15 0)
(3 3.95672e-16 0)
(3 4.34641e-16 0)
(3 6.23941e-16 0)
(3 2.10918e-15 0)
(3 2.64867e-15 0)
(3 3.28438e-15 0)
(3 3.03632e-15 0)
(3 1.67514e-15 0)
(3 6.46444e-16 0)
(3 2.68335e-16 0)
(3 -1.06928e-16 0)
(3 -3.23616e-17 0)
(3 4.62815e-16 0)
(3 1.03484e-15 0)
(3 6.81675e-16 0)
(3 1.48142e-17 0)
(3 1.75303e-15 0)
(3 2.29726e-15 0)
(3 1.96153e-15 0)
(3 -3.78575e-17 0)
(3 3.93718e-17 0)
(3 -7.28889e-17 0)
(3 6.74994e-17 0)
(3 7.93259e-16 0)
(3 6.41537e-16 0)
(3 5.83297e-16 0)
(3 5.90333e-16 0)
(3 9.81916e-16 0)
(3 1.26221e-15 0)
(3 1.2466e-15 0)
(3 1.92301e-15 0)
(3 2.08042e-15 0)
(3 1.71895e-15 0)
(3 8.53404e-16 0)
(3 8.19382e-16 0)
(3 1.39617e-15 0)
(3 2.08398e-15 0)
(3 1.30062e-15 0)
(3 1.38043e-16 0)
(3 -3.59378e-16 0)
(3 -4.73578e-16 0)
(3 1.54768e-15 0)
(3 2.04226e-15 0)
(3 7.38869e-18 0)
(3 -2.03936e-16 0)
(3 -1.68504e-16 0)
(3 -4.80617e-16 0)
(3 -6.51763e-17 0)
(3 4.71974e-16 0)
(3 4.23854e-16 0)
(3 4.60302e-16 0)
(3 3.25773e-16 0)
(3 5.42813e-16 0)
(3 4.83446e-16 0)
(3 4.83787e-16 0)
(3 1.20613e-15 0)
(3 1.17528e-15 0)
(3 8.10755e-16 0)
(3 1.20278e-15 0)
(3 1.98714e-15 0)
(3 2.55843e-15 0)
(3 2.21555e-15 0)
(3 1.3393e-15 0)
(3 1.39744e-15 0)
(3 1.61488e-15 0)
(3 1.86906e-15 0)
(3 1.81861e-15 0)
(3 5.52213e-17 0)
(3 -7.89957e-17 0)
(3 -1.11732e-16 0)
(3 -1.29593e-16 0)
(3 -1.23643e-16 0)
(3 2.37858e-16 0)
(3 3.28969e-16 0)
(3 4.86865e-16 0)
(3 6.159e-16 0)
(3 8.68411e-16 0)
(3 8.96126e-16 0)
(3 5.91047e-16 0)
(3 5.90818e-16 0)
(3 7.65953e-16 0)
(3 1.64914e-15 0)
(3 1.28201e-15 0)
(3 1.90374e-15 0)
(3 2.55379e-15 0)
(3 3.37269e-15 0)
(3 3.23452e-15 0)
(3 1.56618e-15 0)
(3 1.42341e-15 0)
(3 1.59342e-15 0)
(3 1.74877e-15 0)
(3 -5.66513e-17 0)
(3 1.75385e-16 0)
(3 2.361e-16 0)
(3 1.70383e-16 0)
(3 1.59966e-16 0)
(3 2.29109e-16 0)
(3 2.0605e-16 0)
(3 3.64266e-16 0)
(3 3.95916e-17 0)
(3 1.51976e-17 0)
(3 2.56534e-16 0)
(3 3.89485e-16 0)
(3 4.90884e-17 0)
(3 1.05866e-15 0)
(3 1.71511e-15 0)
(3 2.08209e-15 0)
(3 1.57166e-15 0)
(3 1.90575e-15 0)
(3 1.07535e-15 0)
(3 5.30902e-16 0)
(3 9.29914e-16 0)
(3 1.86674e-15 0)
(3 2.48177e-15 0)
(3 1.94684e-15 0)
(3 2.06185e-16 0)
(3 2.29932e-16 0)
(3 4.72077e-16 0)
(3 5.9271e-16 0)
(3 5.33478e-16 0)
(3 2.14308e-16 0)
(3 -6.27326e-17 0)
(3 -1.8532e-16 0)
(3 -1.04352e-15 0)
(3 -1.48217e-15 0)
(3 -1.61856e-15 0)
(3 -2.90298e-16 0)
(3 6.97177e-16 0)
(3 1.35417e-15 0)
(3 1.18122e-15 0)
(3 1.04174e-15 0)
(3 6.15902e-16 0)
(3 1.9846e-16 0)
(3 -7.83592e-16 0)
(3 -1.31618e-15 0)
(3 4.41517e-16 0)
(3 2.68168e-15 0)
(3 2.30047e-15 0)
(3 6.16303e-16 0)
(3 -3.14462e-17 0)
(3 -6.02924e-17 0)
(3 1.3202e-17 0)
(3 -1.28755e-17 0)
(3 -1.09026e-16 0)
(3 -4.27883e-16 0)
(3 -5.85355e-16 0)
(3 -8.41595e-16 0)
(3 -1.612e-15 0)
(3 -1.61976e-15 0)
(3 -1.5916e-15 0)
(3 -2.38897e-16 0)
(3 5.9512e-16 0)
(3 2.60458e-16 0)
(3 -2.80728e-16 0)
(3 -4.68218e-16 0)
(3 -6.44099e-16 0)
(3 -5.76766e-16 0)
(3 -4.64551e-16 0)
(3 -7.08273e-16 0)
(3 -5.51409e-16 0)
(3 -5.77996e-16 0)
(3 -4.39914e-17 0)
(3 -9.5645e-16 0)
(3 -1.62326e-17 0)
(3 -3.91333e-17 0)
(3 -4.73889e-17 0)
(3 -4.80454e-18 0)
(3 -1.4244e-16 0)
(3 -1.17989e-16 0)
(3 -2.14585e-16 0)
(3 -6.07738e-16 0)
(3 -8.86731e-16 0)
(3 -7.06403e-16 0)
(3 9.5845e-17 0)
(3 1.02125e-15 0)
(3 6.80343e-16 0)
(3 -2.47663e-16 0)
(3 -7.71977e-16 0)
(3 -8.22176e-16 0)
(3 -5.91523e-16 0)
(3 -3.0465e-16 0)
(3 -2.8888e-17 0)
(3 1.5866e-16 0)
(3 -4.38895e-16 0)
(3 -1.10949e-15 0)
(3 -6.34878e-16 0)
(3 2.75079e-16 0)
(3 3.80336e-17 0)
(3 3.06987e-16 0)
(3 2.77017e-16 0)
(3 3.33025e-16 0)
(3 6.63436e-16 0)
(3 6.65315e-16 0)
(3 5.75324e-16 0)
(3 4.64787e-16 0)
(3 5.49759e-16 0)
(3 9.20062e-17 0)
(3 5.26069e-16 0)
(3 5.4453e-16 0)
(3 3.71096e-16 0)
(3 4.30055e-17 0)
(3 -2.88702e-16 0)
(3 -6.61327e-16 0)
(3 3.586e-16 0)
(3 8.33121e-16 0)
(3 3.35962e-16 0)
(3 1.23385e-16 0)
(3 -2.85877e-16 0)
(3 -9.07607e-16 0)
(3 -7.79163e-16 0)
(3 -6.26282e-16 0)
(3 -2.27689e-16 0)
(3 1.373e-16 0)
(3 -9.14494e-16 0)
(3 -1.27392e-15 0)
(3 -3.12938e-16 0)
(3 2.71663e-16 0)
(3 5.52296e-16 0)
(3 4.40595e-16 0)
(3 5.79559e-16 0)
(3 2.67355e-16 0)
(3 -3.74388e-16 0)
(3 -1.12668e-15 0)
(3 -9.28586e-16 0)
(3 -6.5074e-16 0)
(3 -5.54075e-16 0)
(3 5.4288e-18 0)
(3 -1.73351e-16 0)
(3 -2.37398e-17 0)
(3 1.45691e-16 0)
(3 -1.27271e-16 0)
(3 -4.72074e-16 0)
(3 -9.62534e-16 0)
(3 -1.85616e-15 0)
(3 -2.17211e-15 0)
(3 7.84055e-17 0)
(3 -4.84367e-17 0)
(3 -3.22482e-16 0)
(3 -1.32337e-16 0)
(3 -2.55717e-17 0)
(3 -6.72094e-17 0)
(3 -6.56549e-17 0)
(3 3.97909e-16 0)
(3 -3.00214e-17 0)
(3 2.69829e-16 0)
(3 -1.85849e-16 0)
(3 -1.71361e-15 0)
(3 -2.02918e-15 0)
(3 -1.05724e-15 0)
(3 -7.05774e-16 0)
(3 -4.98573e-16 0)
(3 -4.85888e-16 0)
(3 -4.49155e-16 0)
(3 1.37244e-17 0)
(3 -2.18206e-16 0)
(3 -1.3405e-15 0)
(3 -2.65015e-15 0)
(3 -3.81059e-15 0)
(3 -2.42728e-15 0)
(3 7.32355e-18 0)
(3 -8.54217e-18 0)
(3 8.76106e-16 0)
(3 5.45035e-16 0)
(3 2.14162e-16 0)
(3 -7.49876e-17 0)
(3 -5.33204e-16 0)
(3 -3.55077e-16 0)
(3 -1.10472e-15 0)
(3 -1.59133e-15 0)
(3 -1.54415e-15 0)
(3 -1.93671e-15 0)
(3 -2.24969e-15 0)
(3 -2.04071e-15 0)
(3 -1.0622e-15 0)
(3 -9.47283e-16 0)
(3 -1.35357e-16 0)
(3 9.4909e-16 0)
(3 8.75974e-16 0)
(3 -1.2895e-16 0)
(3 -1.8915e-15 0)
(3 -2.81953e-15 0)
(3 -3.55712e-15 0)
(3 -1.31307e-16 0)
(3 -2.91363e-18 0)
(3 2.53764e-17 0)
(3 -9.63139e-18 0)
(3 -1.69442e-16 0)
(3 -3.00248e-16 0)
(3 -1.20478e-16 0)
(3 -2.26318e-16 0)
(3 -3.60379e-16 0)
(3 -2.20778e-17 0)
(3 -3.87415e-16 0)
(3 -6.04536e-16 0)
(3 -9.52454e-16 0)
(3 -8.3083e-16 0)
(3 -3.95556e-16 0)
(3 -3.92516e-16 0)
(3 3.28943e-16 0)
(3 2.58221e-16 0)
(3 1.1889e-16 0)
(3 -7.59671e-16 0)
(3 -1.19504e-15 0)
(3 -8.08648e-16 0)
(3 -5.71697e-16 0)
(3 3.37861e-16 0)
(3 5.03089e-16 0)
(3 1.6304e-16 0)
(3 2.9834e-16 0)
(3 2.29085e-16 0)
(3 6.09204e-16 0)
(3 2.92981e-16 0)
(3 -4.13362e-17 0)
(3 9.06405e-17 0)
(3 2.36562e-16 0)
(3 2.71777e-16 0)
(3 9.62753e-18 0)
(3 6.7293e-16 0)
(3 1.11336e-15 0)
(3 1.96228e-15 0)
(3 2.15707e-15 0)
(3 1.36028e-15 0)
(3 9.27013e-16 0)
(3 1.42118e-15 0)
(3 9.60747e-16 0)
(3 -4.28644e-17 0)
(3 -6.86931e-16 0)
(3 -1.22528e-15 0)
(3 6.95939e-16 0)
(3 7.08199e-16 0)
(3 4.42516e-16 0)
(3 -6.80682e-18 0)
(3 -8.52332e-17 0)
(3 -1.64949e-16 0)
(3 -1.61898e-16 0)
(3 -3.31999e-16 0)
(3 -2.17525e-16 0)
(3 -1.2791e-17 0)
(3 -1.38238e-16 0)
(3 -1.6548e-16 0)
(3 -3.06707e-16 0)
(3 -3.08148e-16 0)
(3 8.3434e-16 0)
(3 1.03113e-15 0)
(3 1.42075e-15 0)
(3 1.40807e-15 0)
(3 6.89969e-16 0)
(3 6.867e-16 0)
(3 1.52378e-15 0)
(3 1.88672e-15 0)
(3 1.67002e-15 0)
(3 1.65871e-15 0)
(3 3.3768e-15 0)
(3 3.73806e-15 0)
(3 2.67658e-15 0)
(3 -1.39009e-16 0)
(3 -2.84423e-16 0)
(3 -5.14841e-16 0)
(3 -3.00642e-16 0)
(3 -5.11945e-17 0)
(3 1.42186e-16 0)
(3 -7.52296e-17 0)
(3 2.05402e-16 0)
(3 4.94594e-16 0)
(3 6.65899e-16 0)
(3 7.72621e-16 0)
(3 -1.49275e-16 0)
(3 -8.47299e-16 0)
(3 -3.42602e-16 0)
(3 3.59697e-16 0)
(3 -3.62336e-17 0)
(3 -1.69354e-16 0)
(3 4.49008e-16 0)
(3 1.62583e-15 0)
(3 3.15528e-15 0)
(3 2.89725e-15 0)
(3 1.98097e-15 0)
(3 1.74445e-15 0)
(3 3.01954e-15 0)
(3 -8.34298e-19 0)
(3 4.49842e-17 0)
(3 7.83685e-17 0)
(3 2.36397e-16 0)
(3 6.74435e-16 0)
(3 6.46413e-16 0)
(3 1.48452e-16 0)
(3 2.34368e-16 0)
(3 1.59723e-16 0)
(3 1.92578e-16 0)
(3 4.01455e-16 0)
(3 3.55256e-17 0)
(3 -1.73252e-16 0)
(3 -1.49164e-16 0)
(3 -1.23413e-16 0)
(3 -6.6485e-17 0)
(3 1.03047e-16 0)
(3 1.65374e-16 0)
(3 8.23293e-16 0)
(3 9.45822e-16 0)
(3 7.24283e-16 0)
(3 2.34834e-16 0)
(3 4.56507e-16 0)
(3 1.05778e-15 0)
(2.93332 0.0118515 0)
(2.84895 0.0575944 0)
(2.74794 0.173569 0)
(2.68642 0.21675 0)
(2.56443 0.364014 0)
(2.50768 0.441212 0)
(2.42082 0.542641 0)
(2.35028 0.627227 0)
(2.31472 0.72485 0)
(2.25851 0.797847 0)
(2.24607 0.854493 0)
(2.28015 0.883312 0)
(2.32846 0.894419 0)
(2.33913 0.887503 0)
(2.34595 0.88026 0)
(2.34691 0.870063 0)
(2.34854 0.855271 0)
(2.3481 0.849655 0)
(2.34203 0.848076 0)
(2.33769 0.847234 0)
(2.3386 0.848607 0)
(2.34233 0.849655 0)
(2.34231 0.849188 0)
(2.34059 0.849196 0)
(2.99894 0.00102044 0)
(2.98998 0.0113816 0)
(2.9581 0.0529076 0)
(2.90625 0.129866 0)
(2.79775 0.278919 0)
(2.68857 0.45795 0)
(2.5271 0.687832 0)
(2.37912 0.904599 0)
(2.23736 1.0596 0)
(2.1707 1.10509 0)
(2.13461 1.04487 0)
(2.19478 0.999124 0)
(2.25472 0.94066 0)
(2.28914 0.900496 0)
(2.33038 0.861977 0)
(2.34811 0.828156 0)
(2.35647 0.827978 0)
(2.36207 0.834566 0)
(2.35511 0.840047 0)
(2.35052 0.842608 0)
(2.34681 0.843671 0)
(2.34688 0.845162 0)
(2.34618 0.845614 0)
(2.34315 0.845488 0)
(3 -5.46133e-07 0)
(3.00002 -3.69326e-05 0)
(2.99991 0.000127868 0)
(2.99994 8.6661e-05 0)
(2.99855 0.00197305 0)
(2.9917 0.0122785 0)
(2.96561 0.0528272 0)
(2.89564 0.178395 0)
(2.79218 0.392535 0)
(2.56718 0.726711 0)
(2.45254 0.851862 0)
(2.34086 0.929189 0)
(2.29597 0.914016 0)
(2.29533 0.897619 0)
(2.30651 0.889674 0)
(2.33702 0.874033 0)
(2.35766 0.861848 0)
(2.36278 0.851123 0)
(2.36197 0.842017 0)
(2.35969 0.842494 0)
(2.35532 0.844314 0)
(2.35131 0.846837 0)
(2.35003 0.847446 0)
(2.34637 0.847949 0)
(3 -2.98938e-08 0)
(3 -9.67368e-07 0)
(3 -5.4668e-07 0)
(3 -4.72489e-07 0)
(3.00001 -8.17284e-06 0)
(2.99999 2.05511e-05 0)
(3.00007 -0.00015254 0)
(2.99918 0.00144573 0)
(2.99156 0.0156275 0)
(2.88646 0.175234 0)
(2.76307 0.420758 0)
(2.45996 0.76543 0)
(2.3194 0.918981 0)
(2.27634 0.942122 0)
(2.28513 0.94195 0)
(2.29842 0.928774 0)
(2.32804 0.898694 0)
(2.35259 0.860889 0)
(2.36106 0.845878 0)
(2.36329 0.840357 0)
(2.35916 0.841241 0)
(2.35575 0.845588 0)
(2.35349 0.852229 0)
(2.35075 0.856514 0)
(3 -1.07913e-10 0)
(3 1.96575e-09 0)
(3 -1.53773e-08 0)
(3 -4.48801e-08 0)
(3 -5.91342e-07 0)
(3 -7.72931e-07 0)
(3 -5.30928e-06 0)
(3 -3.75819e-06 0)
(3.00003 -6.80134e-05 0)
(2.99919 0.000916823 0)
(2.98588 0.0216287 0)
(2.88122 0.154413 0)
(2.59536 0.521878 0)
(2.49102 0.698543 0)
(2.33023 0.871216 0)
(2.28769 0.906008 0)
(2.29675 0.89915 0)
(2.31882 0.876861 0)
(2.34208 0.864035 0)
(2.35297 0.858163 0)
(2.35843 0.843277 0)
(2.35759 0.841918 0)
(2.35575 0.844705 0)
(2.34974 0.855955 0)
(3 5.37755e-12 0)
(3 4.21296e-11 0)
(3 7.16421e-11 0)
(3 -3.52129e-10 0)
(3 4.41723e-10 0)
(3 -5.15246e-08 0)
(3 -9.70448e-08 0)
(3 -2.76621e-07 0)
(3 -6.51377e-06 0)
(3 -6.23933e-06 0)
(3.00002 -5.07679e-05 0)
(2.99862 0.00176283 0)
(2.96806 0.0407271 0)
(2.85881 0.203454 0)
(2.50359 0.620012 0)
(2.373 0.770287 0)
(2.32119 0.850826 0)
(2.30423 0.881303 0)
(2.308 0.882177 0)
(2.32563 0.868621 0)
(2.34259 0.844151 0)
(2.34829 0.833383 0)
(2.34973 0.835939 0)
(2.34898 0.839328 0)
(3 2.81059e-13 0)
(3 2.78091e-13 0)
(3 3.0441e-12 0)
(3 8.07423e-12 0)
(3 1.79735e-11 0)
(3 -4.05275e-10 0)
(3 2.78948e-11 0)
(3 -1.11516e-09 0)
(3 -1.72029e-08 0)
(3 -4.0615e-07 0)
(3 -7.32229e-06 0)
(3.00001 -1.08133e-05 0)
(2.99998 2.63537e-05 0)
(2.99682 0.00448907 0)
(2.92334 0.0954923 0)
(2.79031 0.293001 0)
(2.43056 0.704788 0)
(2.3094 0.852493 0)
(2.30988 0.856436 0)
(2.30996 0.856446 0)
(2.31147 0.850787 0)
(2.32699 0.841974 0)
(2.33789 0.839622 0)
(2.34146 0.839208 0)
(3 -3.22031e-15 0)
(3 -3.55429e-15 0)
(3 3.35786e-14 0)
(3 9.1742e-13 0)
(3 4.47339e-12 0)
(3 6.82305e-12 0)
(3 8.5745e-12 0)
(3 5.38878e-12 0)
(3 1.82428e-10 0)
(3 -1.45601e-09 0)
(3 -3.35139e-08 0)
(3 -7.273e-07 0)
(3 -1.27247e-06 0)
(3.00001 -2.20266e-05 0)
(2.99942 0.000968344 0)
(2.99076 0.0155776 0)
(2.84943 0.191047 0)
(2.66345 0.448107 0)
(2.44073 0.718294 0)
(2.2952 0.896086 0)
(2.27471 0.875265 0)
(2.30533 0.856138 0)
(2.31746 0.847322 0)
(2.32502 0.845008 0)
(3 -1.11809e-15 0)
(3 -2.99773e-16 0)
(3 -3.04911e-16 0)
(3 7.1948e-15 0)
(3 1.07037e-13 0)
(3 8.13369e-13 0)
(3 2.16736e-12 0)
(3 2.18267e-12 0)
(3 1.84492e-11 0)
(3 1.68736e-11 0)
(3 3.30192e-10 0)
(3 -2.8658e-09 0)
(3 -8.27979e-08 0)
(3 -3.67678e-06 0)
(3 -2.86884e-06 0)
(3.00001 -2.75512e-05 0)
(2.99626 0.00595367 0)
(2.96659 0.0541611 0)
(2.74057 0.346752 0)
(2.49944 0.662319 0)
(2.41211 0.767584 0)
(2.33953 0.830828 0)
(2.31742 0.84612 0)
(2.31769 0.839766 0)
(3 -1.46478e-15 0)
(3 -2.99379e-16 0)
(3 1.6272e-15 0)
(3 3.26101e-15 0)
(3 2.88983e-15 0)
(3 1.19509e-14 0)
(3 6.31492e-14 0)
(3 1.7206e-13 0)
(3 6.52013e-13 0)
(3 2.47496e-12 0)
(3 4.89257e-11 0)
(3 4.79812e-11 0)
(3 -3.51252e-10 0)
(3 -6.5196e-08 0)
(3 -4.76646e-07 0)
(3 -2.29454e-06 0)
(3.00001 -1.38744e-05 0)
(2.99969 0.000555679 0)
(2.9811 0.027324 0)
(2.87683 0.178492 0)
(2.63602 0.531525 0)
(2.37043 0.847294 0)
(2.33552 0.827156 0)
(2.32752 0.824226 0)
(3 -1.97709e-16 0)
(3 4.28384e-16 0)
(3 2.55762e-15 0)
(3 2.81128e-15 0)
(3 2.59168e-15 0)
(3 2.7039e-15 0)
(3 2.25874e-15 0)
(3 3.70201e-15 0)
(3 1.81208e-15 0)
(3 2.04745e-14 0)
(3 8.86036e-13 0)
(3 7.73e-12 0)
(3 6.39458e-12 0)
(3 2.18319e-10 0)
(3 -1.20464e-08 0)
(3 -9.1576e-08 0)
(3 -1.85807e-06 0)
(3 -4.38351e-06 0)
(2.99991 0.000149749 0)
(2.99553 0.00864911 0)
(2.93423 0.102433 0)
(2.67062 0.463603 0)
(2.52248 0.669322 0)
(2.35338 0.82404 0)
(3 -5.32257e-16 0)
(3 1.87301e-15 0)
(3 2.85632e-15 0)
(3 3.17142e-15 0)
(3 2.77706e-15 0)
(3 1.15703e-15 0)
(3 5.98001e-16 0)
(3 4.11934e-16 0)
(3 4.93661e-16 0)
(3 -9.74405e-16 0)
(3 1.05665e-15 0)
(3 2.44282e-15 0)
(3 1.4866e-12 0)
(3 1.0979e-11 0)
(3 9.02391e-11 0)
(3 -9.03119e-10 0)
(3 -2.06271e-08 0)
(3 -8.86817e-07 0)
(3 -1.88252e-06 0)
(2.99999 7.7633e-06 0)
(2.99797 0.00362568 0)
(2.95745 0.0661075 0)
(2.81565 0.315585 0)
(2.50063 0.696112 0)
(3 6.73217e-16 0)
(3 1.15224e-15 0)
(3 1.57154e-15 0)
(3 1.59518e-15 0)
(3 1.53741e-15 0)
(3 1.08618e-15 0)
(3 3.4448e-16 0)
(3 -6.473e-16 0)
(3 -8.39956e-16 0)
(3 5.15626e-16 0)
(3 -3.1727e-16 0)
(3 9.62894e-16 0)
(3 5.34113e-15 0)
(3 3.96762e-13 0)
(3 7.41902e-12 0)
(3 2.18472e-11 0)
(3 -2.09882e-11 0)
(3 -2.10158e-08 0)
(3 -5.6912e-07 0)
(3 -5.53144e-07 0)
(3 -3.77016e-06 0)
(2.99921 0.00165747 0)
(2.98418 0.0304986 0)
(2.83253 0.251027 0)
(3 5.68398e-16 0)
(3 -5.97699e-16 0)
(3 -1.56268e-15 0)
(3 -1.65079e-15 0)
(3 -9.92135e-16 0)
(3 -9.01887e-17 0)
(3 1.96314e-16 0)
(3 -3.96851e-16 0)
(3 -9.14913e-16 0)
(3 1.67879e-15 0)
(3 3.16204e-15 0)
(3 2.46495e-15 0)
(3 -1.0952e-15 0)
(3 -2.14206e-15 0)
(3 6.89385e-13 0)
(3 8.17835e-12 0)
(3 8.17439e-12 0)
(3 2.22707e-12 0)
(3 -3.08471e-08 0)
(3 -1.38832e-07 0)
(3 -2.95409e-07 0)
(3 -1.82144e-06 0)
(2.99972 0.000535441 0)
(2.98878 0.0192181 0)
(3 4.05765e-16 0)
(3 -8.64197e-16 0)
(3 -1.93549e-15 0)
(3 -2.46226e-15 0)
(3 -2.32788e-15 0)
(3 -2.0682e-15 0)
(3 -8.56097e-16 0)
(3 1.187e-15 0)
(3 1.76164e-15 0)
(3 1.63167e-15 0)
(3 1.19272e-15 0)
(3 -3.708e-16 0)
(3 -2.80783e-15 0)
(3 -3.90954e-15 0)
(3 9.00355e-16 0)
(3 4.69805e-13 0)
(3 2.89589e-12 0)
(3 2.4933e-12 0)
(3 -4.34494e-11 0)
(3 -1.09461e-08 0)
(3 -4.16098e-08 0)
(3 -4.07513e-07 0)
(3 4.51409e-06 0)
(2.99998 3.69023e-05 0)
(3 1.49203e-15 0)
(3 1.19324e-15 0)
(3 8.33648e-16 0)
(3 5.06099e-16 0)
(3 -1.30168e-15 0)
(3 -1.21113e-15 0)
(3 -2.25405e-16 0)
(3 1.02383e-15 0)
(3 1.68055e-15 0)
(3 1.254e-15 0)
(3 4.64989e-16 0)
(3 -9.16943e-17 0)
(3 -9.941e-16 0)
(3 -1.28879e-15 0)
(3 1.02604e-15 0)
(3 6.7497e-15 0)
(3 7.85787e-14 0)
(3 7.16265e-13 0)
(3 5.16055e-13 0)
(3 -4.88042e-11 0)
(3 -2.88467e-09 0)
(3 -3.34196e-08 0)
(3 -4.37458e-09 0)
(3 -5.75411e-10 0)
(3 3.06147e-15 0)
(3 2.21516e-15 0)
(3 1.02701e-15 0)
(3 2.62684e-16 0)
(3 -2.22557e-16 0)
(3 2.99136e-16 0)
(3 6.43518e-16 0)
(3 1.01328e-15 0)
(3 1.31341e-15 0)
(3 1.18113e-15 0)
(3 5.25603e-16 0)
(3 1.49079e-16 0)
(3 5.60106e-16 0)
(3 1.68343e-15 0)
(3 2.9511e-15 0)
(3 2.43843e-15 0)
(3 -1.29651e-13 0)
(3 -6.3968e-13 0)
(3 -6.05158e-13 0)
(3 3.64883e-11 0)
(3 2.31467e-09 0)
(3 2.90266e-08 0)
(3 -9.11775e-09 0)
(3 -1.23843e-08 0)
(3 1.77329e-15 0)
(3 9.10276e-16 0)
(3 1.76073e-16 0)
(3 -1.31257e-16 0)
(3 6.6164e-16 0)
(3 1.38354e-15 0)
(3 1.63541e-15 0)
(3 8.29584e-16 0)
(3 -3.80442e-16 0)
(3 -7.16153e-17 0)
(3 -3.59136e-16 0)
(3 -6.98606e-16 0)
(3 5.79624e-16 0)
(3 3.01067e-15 0)
(3 -8.15315e-16 0)
(3 -4.43412e-13 0)
(3 -2.99244e-12 0)
(3 -2.42106e-12 0)
(3 3.36678e-11 0)
(3 1.11615e-08 0)
(3 4.07567e-08 0)
(3 4.10867e-07 0)
(3 -4.50162e-06 0)
(2.99998 -3.68846e-05 0)
(3 5.30612e-16 0)
(3 2.24395e-16 0)
(3 6.03351e-16 0)
(3 1.2315e-15 0)
(3 1.6044e-15 0)
(3 2.0657e-15 0)
(3 1.51335e-15 0)
(3 1.849e-16 0)
(3 -1.1615e-15 0)
(3 -1.20227e-15 0)
(3 -7.43798e-16 0)
(3 8.63648e-16 0)
(3 1.76665e-15 0)
(3 4.73455e-16 0)
(3 -6.89195e-13 0)
(3 -8.17147e-12 0)
(3 -8.18284e-12 0)
(3 -3.0226e-12 0)
(3 3.11257e-08 0)
(3 1.36242e-07 0)
(3 2.94945e-07 0)
(3 1.82415e-06 0)
(2.99972 -0.000535467 0)
(2.98878 -0.0192173 0)
(3 1.26504e-15 0)
(3 8.53557e-16 0)
(3 9.10842e-16 0)
(3 1.24988e-15 0)
(3 8.85164e-17 0)
(3 -1.88058e-16 0)
(3 -1.71906e-15 0)
(3 -1.3309e-15 0)
(3 8.39863e-16 0)
(3 2.11608e-15 0)
(3 3.85762e-15 0)
(3 3.48145e-15 0)
(3 -3.72736e-15 0)
(3 -3.92836e-13 0)
(3 -7.42135e-12 0)
(3 -2.18316e-11 0)
(3 2.10174e-11 0)
(3 2.1006e-08 0)
(3 5.69414e-07 0)
(3 5.52895e-07 0)
(3 3.76979e-06 0)
(2.99921 -0.00165746 0)
(2.98418 -0.0304988 0)
(2.83253 -0.251024 0)
(3 6.18054e-16 0)
(3 5.82456e-16 0)
(3 8.26321e-16 0)
(3 8.52759e-16 0)
(3 2.2565e-16 0)
(3 -1.54745e-15 0)
(3 -1.24169e-15 0)
(3 -3.535e-17 0)
(3 1.6827e-15 0)
(3 2.74724e-15 0)
(3 1.2467e-15 0)
(3 1.73661e-15 0)
(3 -1.48534e-12 0)
(3 -1.09803e-11 0)
(3 -9.02377e-11 0)
(3 9.03136e-10 0)
(3 2.06271e-08 0)
(3 8.86809e-07 0)
(3 1.88258e-06 0)
(2.99999 -7.76354e-06 0)
(2.99797 -0.00362568 0)
(2.95745 -0.0661075 0)
(2.81565 -0.315585 0)
(2.50063 -0.69611 0)
(3 -1.20991e-15 0)
(3 -1.3592e-15 0)
(3 -1.02231e-15 0)
(3 6.36121e-16 0)
(3 2.58049e-15 0)
(3 1.79563e-15 0)
(3 3.2257e-15 0)
(3 1.47367e-15 0)
(3 2.08904e-15 0)
(3 -1.79194e-14 0)
(3 -8.82049e-13 0)
(3 -7.7217e-12 0)
(3 -6.38277e-12 0)
(3 -2.18308e-10 0)
(3 1.20464e-08 0)
(3 9.1576e-08 0)
(3 1.85807e-06 0)
(3 4.38351e-06 0)
(2.99991 -0.000149749 0)
(2.99553 -0.00864911 0)
(2.93423 -0.102433 0)
(2.67062 -0.463603 0)
(2.52248 -0.669322 0)
(2.35338 -0.82404 0)
(3 -1.12626e-15 0)
(3 -1.5268e-15 0)
(3 -1.15496e-15 0)
(3 -1.15897e-15 0)
(3 9.46794e-16 0)
(3 -6.73996e-15 0)
(3 -6.2609e-14 0)
(3 -1.82039e-13 0)
(3 -6.63244e-13 0)
(3 -2.48612e-12 0)
(3 -4.89356e-11 0)
(3 -4.79894e-11 0)
(3 3.51246e-10 0)
(3 6.51959e-08 0)
(3 4.76646e-07 0)
(3 2.29454e-06 0)
(3.00001 1.38744e-05 0)
(2.99969 -0.000555679 0)
(2.9811 -0.027324 0)
(2.87683 -0.178492 0)
(2.63602 -0.531525 0)
(2.37043 -0.847294 0)
(2.33552 -0.827156 0)
(2.32752 -0.824226 0)
(3 -1.69424e-15 0)
(3 -1.24906e-15 0)
(3 -5.4741e-16 0)
(3 -7.09755e-15 0)
(3 -1.0791e-13 0)
(3 -8.15102e-13 0)
(3 -2.16558e-12 0)
(3 -2.1799e-12 0)
(3 -1.84469e-11 0)
(3 -1.68709e-11 0)
(3 -3.3019e-10 0)
(3 2.8658e-09 0)
(3 8.27979e-08 0)
(3 3.67678e-06 0)
(3 2.86884e-06 0)
(3.00001 2.75512e-05 0)
(2.99626 -0.00595367 0)
(2.96659 -0.054161 0)
(2.74057 -0.346752 0)
(2.49944 -0.662319 0)
(2.41211 -0.767584 0)
(2.33953 -0.830828 0)
(2.31742 -0.84612 0)
(2.31769 -0.839766 0)
(3 -2.0752e-15 0)
(3 -1.45176e-15 0)
(3 -3.81112e-14 0)
(3 -9.20498e-13 0)
(3 -4.47396e-12 0)
(3 -6.82468e-12 0)
(3 -8.57163e-12 0)
(3 -5.38665e-12 0)
(3 -1.82428e-10 0)
(3 1.45601e-09 0)
(3 3.35139e-08 0)
(3 7.273e-07 0)
(3 1.27247e-06 0)
(3.00001 2.20266e-05 0)
(2.99942 -0.000968344 0)
(2.99076 -0.0155776 0)
(2.84943 -0.191047 0)
(2.66345 -0.448107 0)
(2.44073 -0.718294 0)
(2.2952 -0.896086 0)
(2.27471 -0.875265 0)
(2.30533 -0.856138 0)
(2.31746 -0.847322 0)
(2.32502 -0.845008 0)
(3 -2.83869e-13 0)
(3 -2.80052e-13 0)
(3 -3.04527e-12 0)
(3 -8.07481e-12 0)
(3 -1.7977e-11 0)
(3 4.05268e-10 0)
(3 -2.78963e-11 0)
(3 1.11516e-09 0)
(3 1.72029e-08 0)
(3 4.0615e-07 0)
(3 7.32229e-06 0)
(3.00001 1.08133e-05 0)
(2.99998 -2.63537e-05 0)
(2.99682 -0.00448907 0)
(2.92334 -0.0954923 0)
(2.79031 -0.293001 0)
(2.43056 -0.704788 0)
(2.3094 -0.852493 0)
(2.30988 -0.856436 0)
(2.30996 -0.856446 0)
(2.31147 -0.850787 0)
(2.32699 -0.841974 0)
(2.33789 -0.839622 0)
(2.34146 -0.839208 0)
(3 -5.37766e-12 0)
(3 -4.21274e-11 0)
(3 -7.16396e-11 0)
(3 3.52132e-10 0)
(3 -4.41718e-10 0)
(3 5.15247e-08 0)
(3 9.7045e-08 0)
(3 2.76622e-07 0)
(3 6.51377e-06 0)
(3 6.23933e-06 0)
(3.00002 5.07679e-05 0)
(2.99862 -0.00176283 0)
(2.96806 -0.0407271 0)
(2.85881 -0.203454 0)
(2.50359 -0.620012 0)
(2.373 -0.770287 0)
(2.32119 -0.850826 0)
(2.30423 -0.881303 0)
(2.308 -0.882177 0)
(2.32563 -0.868621 0)
(2.34259 -0.844151 0)
(2.34829 -0.833383 0)
(2.34973 -0.835939 0)
(2.34898 -0.839328 0)
(3 1.07914e-10 0)
(3 -1.96575e-09 0)
(3 1.53774e-08 0)
(3 4.48802e-08 0)
(3 5.91342e-07 0)
(3 7.72932e-07 0)
(3 5.30928e-06 0)
(3 3.75819e-06 0)
(3.00003 6.80134e-05 0)
(2.99919 -0.000916823 0)
(2.98588 -0.0216287 0)
(2.88122 -0.154413 0)
(2.59536 -0.521878 0)
(2.49102 -0.698543 0)
(2.33023 -0.871216 0)
(2.28769 -0.906008 0)
(2.29675 -0.89915 0)
(2.31882 -0.876861 0)
(2.34208 -0.864035 0)
(2.35297 -0.858163 0)
(2.35843 -0.843277 0)
(2.35759 -0.841918 0)
(2.35575 -0.844705 0)
(2.34974 -0.855955 0)
(3 2.98937e-08 0)
(3 9.67367e-07 0)
(3 5.4668e-07 0)
(3 4.7249e-07 0)
(3.00001 8.17284e-06 0)
(2.99999 -2.05511e-05 0)
(3.00007 0.00015254 0)
(2.99918 -0.00144573 0)
(2.99156 -0.0156275 0)
(2.88646 -0.175234 0)
(2.76307 -0.420758 0)
(2.45996 -0.76543 0)
(2.3194 -0.918982 0)
(2.27634 -0.942122 0)
(2.28513 -0.94195 0)
(2.29842 -0.928774 0)
(2.32804 -0.898694 0)
(2.35259 -0.860889 0)
(2.36106 -0.845878 0)
(2.36329 -0.840357 0)
(2.35916 -0.841241 0)
(2.35575 -0.845588 0)
(2.35349 -0.852229 0)
(2.35075 -0.856514 0)
(3 5.46133e-07 0)
(3.00002 3.69326e-05 0)
(2.99991 -0.000127868 0)
(2.99994 -8.6661e-05 0)
(2.99855 -0.00197305 0)
(2.9917 -0.0122785 0)
(2.96561 -0.0528272 0)
(2.89564 -0.178395 0)
(2.79218 -0.392535 0)
(2.56718 -0.726711 0)
(2.45254 -0.851862 0)
(2.34086 -0.929189 0)
(2.29597 -0.914016 0)
(2.29533 -0.897619 0)
(2.30651 -0.889674 0)
(2.33702 -0.874033 0)
(2.35766 -0.861848 0)
(2.36278 -0.851123 0)
(2.36197 -0.842017 0)
(2.35969 -0.842494 0)
(2.35532 -0.844314 0)
(2.35131 -0.846837 0)
(2.35003 -0.847446 0)
(2.34637 -0.847949 0)
(2.99894 -0.00102044 0)
(2.98998 -0.0113816 0)
(2.9581 -0.0529076 0)
(2.90625 -0.129866 0)
(2.79775 -0.278919 0)
(2.68857 -0.45795 0)
(2.5271 -0.687832 0)
(2.37912 -0.904599 0)
(2.23736 -1.0596 0)
(2.1707 -1.10509 0)
(2.13461 -1.04487 0)
(2.19478 -0.999124 0)
(2.25472 -0.94066 0)
(2.28914 -0.900496 0)
(2.33038 -0.861977 0)
(2.34811 -0.828156 0)
(2.35647 -0.827978 0)
(2.36207 -0.834566 0)
(2.35511 -0.840047 0)
(2.35052 -0.842608 0)
(2.34681 -0.843671 0)
(2.34688 -0.845162 0)
(2.34618 -0.845614 0)
(2.34315 -0.845488 0)
(2.93332 -0.0118515 0)
(2.84895 -0.0575943 0)
(2.74794 -0.173569 0)
(2.68642 -0.21675 0)
(2.56443 -0.364014 0)
(2.50768 -0.441212 0)
(2.42082 -0.542641 0)
(2.35028 -0.627227 0)
(2.31472 -0.72485 0)
(2.25851 -0.797847 0)
(2.24607 -0.854493 0)
(2.28015 -0.883312 0)
(2.32846 -0.894419 0)
(2.33913 -0.887503 0)
(2.34595 -0.88026 0)
(2.34691 -0.870063 0)
(2.34854 -0.855271 0)
(2.3481 -0.849655 0)
(2.34203 -0.848076 0)