/*--------------------------------*- C++ -*----------------------------------*\
  =========                 |
  \\      /  F ield         | OpenFOAM: The Open Source CFD Toolbox
   \\    /   O peration     | Website:  https://openfoam.org
    \\  /    A nd           | Version:  7
     \\/     M anipulation  |
\*---------------------------------------------------------------------------*/
FoamFile
{
    version     2.0;
    format      ascii;
    class       volScalarField;
    location    "2.1";
    object      p;
}
// * * * * * * * * * * * * * * * * * * * * * * * * * * * * * * * * * * * * * //

dimensions      [1 -1 -2 0 0 0 0];

internalField   nonuniform List<scalar> 
4608
(
1
1
1
1
1
1
1
1
1
1
1
1
1
1
1
1
1
1
1
1
1
1
1
1
1
1
1
1
1
1
1
1
1
1
1
1
1
1
1
1
1
1
1
1
1
1
1
1
1
1
1
1
1
1
1
1
1
1
1
1
1
1
1
1
1
1
1
1
1
1
1
1
1
1
1
1
1
1
1
1
1
1
1
1
1
1
1
1
1
1
1
1
1
1
1
1
1
1
1
1
1
1
1
1
1
1
1
1
1
1
1
1
1
1
1
1
1
1
1
1
1
1
1
1
1
1
1
1
1
1
1
1
1
1
1
1
1
1
1
1
1
1
1
1
1
1
1
1
1
1
1
1
1
1
1
1
1
1
1
1
1
1
1
1
1
1
1
1
1
1
1
1
1
1
1
1
1
1
1
1
1
1
1
1
1
1
1
1
1
1
1
1
1
1
1
1
1
1
1
1
1
1
1
1
1
1
1
1
1
1
1
1
1
1
1
1
1
1
1
1
1
1
1
1
1
1
1
1
1
1
1
1
1
1
1
1
1
1
1
1
1
1
1
1
1
1
1
1
1
1
1
1
1
1
1
1
1
1
1
1
1
1
1
1
1
1
1
1
1
1
1
1
1
1
1
1
1
1
1
1
1
1
1
1
1
1
1
1
1
1
1
1
1
1
1
1
1
1
1
1
1
1
1
1
1
1
1
1
1
1
1
1
1
1
1
1
1
1
1
1
1
1
1
1
1
1
1
1
1
1
1
1
1
1
1
1
1
1
1
1
1
1
1
1
1
1
1
1
1
1
1
1
1
1
1
1
1
1
1
1
1
1
1
1
1
1
1
1
1
1
1
1
1
1
1
1
1
1
1
1
1
1
1
1
1
1
1
1
1
1
1
1
1
1
1
1
1
1
1
1
1
1
1
1
1
1
1
1
1
1
1
1
1
1
1
1
1
1
1
1
1
1
1
1
1
1
1
1
1
1
1
1
1
1
1
1
1
1
1
1
1
1
1
1
1
1
1
1
1
1
1
1
1
1
1
1
1
1
1
1
1
1
1
1
1
1
1
1
1
1
1
1
1
1
1
1
1
1
1
1
1
1
1
1
1
1
1
1
1
1
1
1
1
1
1
1
1
1
1
1
1
1
1
1
1
1
1
1
1
1
1
1
1
1
1
1
1
1
1
1
1
1
1
1
1
1
1
1
1
1
1
1
1
1
1
1
1
1
1
1
1
1
1
1
1
1
1
1
1
1
1
1
1
1
1
1
1
1
1
1
1
1
1
1
1
1
1
1
1
1
1
1
1
1
1
1
1
1
1
1
1
1
1
1
1
1
1
1
1
1
1
1
1
1
1
1
1
1
1
1
1
1
1
1
1
1
1
1
1
1
1
1
1
1
1
1
1
1
1
1
1
1
1
1
1
1
1
1
1
1
1
1
1
1
1
1
1
1
1
1
1
1
1
1
1
1
1
1
1
1
1
1
1
1
1
1
1
1
1
1
1
1
1
1
1
1
1
1
1
1
1
1
1
1
1
1
1
1
1
1
1
1
1
1
1
1
1
1
1
1
1
1
1
1
1
1
1
1
1
1
1
1
1
1
1
1
1
1
1
1
1
1
1
1
1
1
1
1
1
1
1
1
1
1
1
1
1
1
1
1
1
1
1
1
1
1
1
1
1
1
1
1
1
1
1
1
1
1
1
1
1
1
1
1
1
1
1
1
1
1
1
1
1
1
1
1
1
1
1.29069
1.76688
2.33657
2.96021
3.65037
4.27536
4.83803
5.32081
5.3594
5.1552
4.72559
4.21711
3.79845
3.67713
3.57742
3.57853
3.60816
3.64484
3.68653
3.73147
3.75454
3.75857
3.75676
3.76494
1.00305
1.017
1.08542
1.21935
1.4703
1.85842
2.37108
3.00232
3.54366
3.83142
4.05568
4.05201
3.93606
3.86564
3.78687
3.72419
3.6965
3.67204
3.67813
3.70523
3.73772
3.74926
3.75195
3.76005
1
0.999947
1.0002
1.00031
1.00346
1.02462
1.10668
1.3685
1.97467
3.00775
3.84258
4.32002
4.35788
4.26834
4.10622
3.8902
3.7343
3.65507
3.6519
3.67181
3.70516
3.73319
3.74562
3.75558
1
0.999998
0.999997
0.999998
0.999987
1.00004
0.999904
1.00193
1.033
1.29569
2.02326
3.18962
3.98483
4.06013
4.03719
4.01567
3.90576
3.75346
3.70058
3.69535
3.69751
3.71118
3.73882
3.76581
1
1
1
1
0.999999
0.999999
0.999988
0.999989
0.999903
1.00123
1.04499
1.33989
2.26399
3.22599
3.98663
4.12583
4.0902
3.97098
3.86064
3.76528
3.71688
3.70923
3.72184
3.75473
1
1
1
1
1
1
1
0.999999
0.999992
0.999991
0.999916
1.00247
1.08333
1.50511
2.52303
3.40641
3.92054
3.9627
3.90866
3.84545
3.78141
3.72984
3.70562
3.71557
1
1
1
1
1
1
1
1
1
0.999999
0.999993
0.99998
1.00007
1.00916
1.15432
1.79722
2.98159
3.63183
3.79276
3.81938
3.81815
3.76338
3.70795
3.6979
1
1
1
1
1
1
1
1
1
1
1
0.999997
0.999997
0.999971
1.001
1.03855
1.35347
2.26474
3.29777
3.81523
3.85391
3.82026
3.75139
3.72596
1
1
1
1
1
1
1
1
1
1
1
1
1
0.999995
0.999995
1.00001
1.00689
1.14882
1.74039
2.77858
3.56674
3.8139
3.80706
3.76724
1
1
1
1
1
1
1
1
1
1
1
1
1
1
0.999999
0.999999
0.99998
1.00163
1.03956
1.41662
2.36691
3.40795
3.58241
3.67759
1
1
1
1
1
1
1
1
1
1
1
1
1
1
1
1
0.999996
0.99999
1.00012
1.01738
1.195
2.0173
3.00466
3.6543
1
1
1
1
1
1
1
1
1
1
1
1
1
1
1
1
1
0.999998
0.999998
1.00003
1.0045
1.11721
1.71642
2.80509
1
1
1
1
1
1
1
1
1
1
1
1
1
1
1
1
1
1
0.999999
0.999999
1
1.00217
1.06988
1.47721
1
1
1
1
1
1
1
1
1
1
1
1
1
1
1
1
1
1
1
1
1
0.999998
1.00125
1.02646
1
1
1
1
1
1
1
1
1
1
1
1
1
1
1
1
1
1
1
1
1
0.999999
1.00001
1.00005
1
1
1
1
1
1
1
1
1
1
1
1
1
1
1
1
1
1
1
1
1
1
1
0.999998
1
1
1
1
1
1
1
1
1
1
1
1
1
1
1
1
1
1
1
1
1
1
1
0.999997
1
1
1
1
1
1
1
1
1
1
1
1
1
1
1
1
1
1
1
1
1
0.999999
1
0.999998
1
1
1
1
1
1
1
1
1
1
1
1
1
1
1
1
1
1
1
1
1
0.999998
1.00101
1.03153
1
1
1
1
1
1
1
1
1
1
1
1
1
1
1
1
1
1
0.999999
0.999999
0.999999
1.00264
1.06481
1.53765
1
1
1
1
1
1
1
1
1
1
1
1
1
1
1
1
1
0.999998
0.999998
1.00003
1.00441
1.11664
1.75392
2.83421
1
1
1
1
1
1
1
1
1
1
1
1
1
1
1
1
0.999996
0.99999
1.00012
1.01768
1.19257
1.99843
3.09188
3.62983
1
1
1
1
1
1
1
1
1
1
1
1
1
1
0.999999
0.999999
0.99998
1.00162
1.03963
1.42178
2.34633
3.4272
3.58938
3.67042
1
1
1
1
1
1
1
1
1
1
1
1
1
0.999995
0.999995
1.00001
1.00692
1.14791
1.74459
2.77657
3.55583
3.82417
3.81217
3.76454
1
1
1
1
1
1
1
1
1
1
1
0.999997
0.999997
0.999971
1.001
1.03868
1.35325
2.26167
3.30495
3.81261
3.85074
3.8203
3.75596
3.72712
1
1
1
1
1
1
1
1
1
0.999999
0.999993
0.99998
1.00007
1.00917
1.15418
1.79838
2.97865
3.63361
3.79428
3.81888
3.81679
3.76424
3.71103
3.69881
1
1
1
1
1
1
1
0.999999
0.999992
0.999991
0.999917
1.00247
1.08333
1.50504
2.52365
3.40663
3.91872
3.96311
3.90976
3.8447
3.77987
3.72948
3.70707
3.71646
1
1
1
1
0.999999
0.999999
0.999988
0.999989
0.999903
1.00123
1.04499
1.3399
2.26404
3.22571
3.98711
4.12569
4.09015
3.97086
3.86106
3.76479
3.71667
3.70968
3.72238
3.75476
1
0.999998
0.999997
0.999998
0.999987
1.00004
0.999904
1.00193
1.033
1.29569
2.02324
3.18971
3.98468
4.06012
4.03727
4.01576
3.9057
3.75329
3.70075
3.69508
3.69746
3.71142
3.73907
3.76551
1
0.999947
1.0002
1.00031
1.00346
1.02462
1.10668
1.3685
1.97469
3.00772
3.84259
4.32005
4.35788
4.26834
4.10624
3.89026
3.73418
3.65507
3.65217
3.67172
3.70505
3.73341
3.7457
3.75551
1.00305
1.017
1.08542
1.21936
1.47029
1.85843
2.37107
3.00233
3.54369
3.83137
4.05569
4.05205
3.93609
3.86562
3.7869
3.72417
3.69647
3.67207
3.67815
3.70523
3.73772
3.74932
3.75199
3.76006
1.29069
1.76688
2.33657
2.9602
3.65039
4.27537
4.83799
5.32083
5.35941
5.1552
4.72558
4.21712
3.79845
3.6771
3.57742
3.57852
3.60815
3.64485
3.68655
3.73147
3.75456
3.75861
3.75677
3.76493
2.6559
1.69757
1.162
0.879773
0.672087
0.626346
0.654793
0.760298
0.8278
0.845327
0.888616
0.941022
0.966778
0.990669
1.04297
1.06084
1.06222
1.05235
1.03999
1.04572
1.05922
1.06988
1.07263
1.12271
1.50289
2.7712
4.56003
6.759
8.92158
9.42684
8.70608
7.56949
6.86871
6.52062
6.33332
6.12572
5.86694
5.62002
5.40952
5.22264
5.04993
4.88134
4.71304
4.54499
4.37676
4.20224
4.01524
3.83344
3.67912
3.56105
3.47106
3.39444
3.32136
3.24621
3.16514
3.07123
2.95955
2.83724
2.72119
2.6265
2.55405
2.4968
2.44817
2.40633
2.36781
2.32593
2.274
2.20133
2.07131
1.95318
1.94451
1.98157
2.16551
2.66751
3.47282
4.25883
4.86728
5.18284
5.28901
5.07495
4.78126
4.68076
4.64375
4.60426
4.54426
4.46556
4.33488
4.10141
3.9019
3.84463
3.81054
3.79108
3.7654
3.72696
3.6941
3.6013
3.37143
2.74771
2.16334
1.8214
1.51742
1.19925
1.09505
1.07669
1.00917
0.944622
0.918254
0.910548
0.917096
0.926657
0.958053
0.983198
1.0014
1.00596
1.00552
1.0191
1.03319
1.04705
1.13016
1.57187
2.53161
3.05398
3.53581
4.254
5.64532
6.807
7.47921
7.37633
7.03053
6.7078
6.42419
6.13773
5.88745
5.69362
5.48497
5.28348
5.10717
4.94077
4.77137
4.59835
4.42206
4.23845
4.05492
3.89404
3.7596
3.6359
3.5358
3.45471
3.37813
3.30076
3.22028
3.12977
3.0228
2.90318
2.78589
2.68917
2.61351
2.55147
2.49633
2.4464
2.40104
2.35382
2.30297
2.23368
2.12347
2.05998
2.10666
2.3096
2.6865
3.11772
3.38548
3.74785
4.21156
4.47061
4.56202
4.59834
4.64531
4.67753
4.68104
4.65023
4.57224
4.4764
4.34525
4.15243
3.94802
3.87308
3.83953
3.80896
3.78273
3.74929
3.71237
3.61472
3.6472
3.33666
2.83981
2.35481
2.02647
1.69362
1.36755
1.21874
1.1293
1.02444
0.933333
0.924797
0.932698
0.93152
0.933252
0.939913
0.951028
0.971817
0.985917
1.00412
1.03328
1.16157
1.76353
2.60834
3.26797
3.33427
3.31183
3.32908
3.5725
4.57389
6.09544
7.09263
7.21289
6.99639
6.52934
6.15222
5.87515
5.61344
5.35046
5.11613
4.93861
4.80047
4.66284
4.51418
4.3534
4.19368
4.04952
3.90263
3.73139
3.56284
3.43924
3.36108
3.29465
3.2238
3.14641
3.06433
2.97133
2.86271
2.74529
2.64334
2.56379
2.49458
2.43274
2.37714
2.32417
2.28119
2.24874
2.21134
2.19217
2.27122
2.54415
2.91503
3.26845
3.39339
3.39228
3.39534
3.4972
3.68962
3.93523
4.27793
4.49731
4.59246
4.6625
4.66077
4.58462
4.46473
4.34139
4.21064
4.05001
3.89701
3.78893
3.73688
3.70406
3.68275
3.65627
3.56941
3.7341
3.6049
3.31469
2.86092
2.48364
2.20048
1.81071
1.49967
1.41648
1.3326
1.157
1.06003
1.04865
1.0276
0.96876
0.953897
0.951974
0.954542
0.959753
0.974838
1.11175
1.8012
2.74209
3.22304
3.33525
3.30002
3.18903
3.07187
2.98137
3.06465
3.65535
5.12226
6.42189
6.61058
6.51806
6.26394
5.94541
5.59602
5.28732
5.04367
4.86921
4.74053
4.62035
4.49816
4.37544
4.24713
4.10892
3.93916
3.74878
3.56006
3.41388
3.32346
3.26007
3.19858
3.12621
3.04459
2.95763
2.85792
2.74375
2.63289
2.55172
2.48019
2.41702
2.3633
2.31178
2.28499
2.27076
2.31824
2.52314
2.89059
3.24981
3.47706
3.53215
3.50663
3.41054
3.32515
3.28408
3.2945
3.37681
3.6215
3.95056
4.24301
4.38636
4.47459
4.47093
4.44505
4.38483
4.28175
4.13141
3.96784
3.81143
3.72899
3.68615
3.64819
3.62238
3.55201
3.7582
3.72075
3.5821
3.30048
2.89743
2.59502
2.30686
1.90323
1.62981
1.56226
1.46085
1.28073
1.14365
1.08596
1.02735
0.98947
0.970325
0.961358
0.986779
1.19947
1.90516
2.8678
3.25561
3.26238
3.23112
3.12174
2.98929
2.89573
2.83134
2.7349
2.74085
3.04238
4.15198
5.4555
6.25966
6.25738
6.01097
5.5923
5.245
5.00233
4.84522
4.70427
4.55423
4.40913
4.27267
4.14626
4.02658
3.92673
3.80525
3.64133
3.45879
3.29602
3.20407
3.1564
3.11658
3.06542
2.99363
2.90579
2.79121
2.64368
2.53558
2.47279
2.41611
2.36568
2.33743
2.35076
2.45083
2.7745
3.206
3.52911
3.65387
3.64625
3.59131
3.49945
3.39873
3.31516
3.23561
3.18687
3.1568
3.19082
3.32364
3.5794
3.93464
4.20925
4.32811
4.36215
4.31968
4.24127
4.15991
4.04021
3.89767
3.77872
3.70234
3.622
3.57229
3.49334
3.74231
3.74039
3.70821
3.56813
3.29242
2.93104
2.66656
2.37953
2.01916
1.78891
1.6841
1.56086
1.41978
1.28308
1.15231
1.09795
1.08267
1.11833
1.4088
2.17227
3.07428
3.40278
3.36086
3.22956
3.10448
2.98278
2.87444
2.79121
2.71087
2.60947
2.52302
2.46309
2.59141
3.23166
4.51921
5.55073
5.68774
5.60001
5.33134
5.06796
4.83867
4.63375
4.46733
4.33886
4.23016
4.12362
4.01291
3.88744
3.74551
3.59117
3.42161
3.27737
3.18848
3.11896
3.04706
2.97729
2.9074
2.8288
2.74394
2.65392
2.54372
2.44739
2.41882
2.40725
2.46647
2.70125
3.11515
3.5821
3.74638
3.81283
3.79096
3.71617
3.62232
3.51494
3.4195
3.33271
3.23928
3.16664
3.1106
3.08552
3.06593
3.11848
3.30575
3.62188
3.91659
4.10616
4.13476
4.13101
4.0983
4.04327
3.9649
3.84989
3.73078
3.61523
3.54766
3.47104
3.70766
3.72284
3.71561
3.68037
3.53698
3.27314
2.97154
2.69876
2.39374
2.1541
1.96275
1.75517
1.61157
1.51958
1.40932
1.26545
1.29502
1.67823
2.64109
3.44866
3.66414
3.54856
3.34698
3.17613
3.06049
2.94992
2.84347
2.7567
2.65968
2.54873
2.44299
2.36065
2.27404
2.28741
2.60007
3.50316
4.63903
5.30717
5.27233
5.11183
4.83849
4.60008
4.41247
4.26737
4.16074
4.0718
3.97291
3.8584
3.7303
3.58178
3.41446
3.26298
3.15878
3.08191
3.00931
2.94211
2.87394
2.80308
2.71916
2.60759
2.51525
2.45388
2.46707
2.62555
3.03887
3.51566
3.8915
3.96836
3.93582
3.89718
3.82586
3.72907
3.62429
3.51364
3.406
3.31447
3.24481
3.17687
3.11678
3.07004
3.0351
2.99872
3.00151
3.08226
3.28807
3.59584
3.8543
3.97325
4.02016
4.00957
3.95694
3.8734
3.77347
3.66806
3.5702
3.44296
3.71984
3.71917
3.71378
3.69334
3.63893
3.49225
3.2608
3.02172
2.70549
2.41612
2.24792
2.08625
1.82362
1.69111
1.61647
1.71641
2.28892
3.37475
4.1173
4.08206
3.90907
3.67629
3.44702
3.27208
3.13465
3.00791
2.8807
2.776
2.65515
2.5398
2.42051
2.32426
2.2341
2.14742
2.09065
2.18932
2.73585
3.80069
4.70534
4.91314
4.85195
4.66093
4.45716
4.27472
4.11223
3.98241
3.88162
3.78134
3.6718
3.54657
3.40159
3.24739
3.1252
3.04254
2.97215
2.90961
2.84847
2.78079
2.7006
2.62254
2.53801
2.57754
2.84164
3.38457
3.88137
4.14576
4.19761
4.16053
4.0604
3.95794
3.85708
3.75078
3.63495
3.51245
3.40368
3.31086
3.25008
3.21027
3.17525
3.12267
3.06174
2.9815
2.94287
2.90034
2.9194
3.0136
3.27153
3.55363
3.77107
3.881
3.89305
3.87372
3.82529
3.73911
3.60761
3.43435
3.76148
3.75821
3.74998
3.7331
3.70391
3.63082
3.48054
3.26282
3.03144
2.73224
2.46514
2.29609
2.10278
1.99795
2.22759
3.10595
4.32131
4.77545
4.66382
4.36863
4.07071
3.82612
3.6109
3.41919
3.24792
3.09278
2.95648
2.83871
2.71082
2.57989
2.44304
2.32121
2.21752
2.12155
2.04441
1.98229
1.9994
2.26102
3.01221
3.9977
4.57436
4.58556
4.5095
4.29402
4.08896
3.9232
3.80258
3.70046
3.59671
3.48661
3.37316
3.24204
3.09375
2.98726
2.9324
2.88569
2.82924
2.77219
2.7114
2.68674
2.80078
3.17375
3.73777
4.23599
4.27369
4.27791
4.23316
4.14389
4.05916
3.96962
3.86969
3.75773
3.63498
3.50954
3.40092
3.32908
3.27887
3.22062
3.15581
3.08854
3.02296
2.9577
2.90026
2.86269
2.83264
2.79073
2.83021
2.99126
3.266
3.5409
3.73837
3.80934
3.8045
3.75976
3.64342
3.44092
3.72186
3.7485
3.74389
3.73378
3.71544
3.68277
3.61067
3.46279
3.25659
2.99783
2.76348
2.49466
2.53248
3.05066
4.26796
5.43012
5.5867
5.37696
5.00687
4.63821
4.30635
4.02264
3.77921
3.57006
3.38741
3.21715
3.06227
2.9135
2.76308
2.60444
2.45458
2.31462
2.20755
2.11337
2.03686
1.96791
1.92027
1.8706
1.94616
2.40486
3.2905
4.02692
4.25754
4.23003
4.10413
3.91711
3.76258
3.65035
3.54976
3.44909
3.34724
3.22807
3.08488
2.96399
2.88871
2.83674
2.8138
2.79333
2.87233
3.17709
3.71854
4.23253
4.54172
4.52814
4.43274
4.2842
4.17839
4.10364
4.03616
3.96275
3.87461
3.76701
3.64219
3.52165
3.43087
3.36616
3.30339
3.23268
3.15908
3.08463
3.01838
2.96198
2.9053
2.85074
2.80028
2.75729
2.70295
2.70847
2.79894
3.02655
3.32285
3.54922
3.65022
3.64337
3.57653
3.43037
3.78402
3.7661
3.73465
3.71868
3.70138
3.68362
3.65632
3.5808
3.41481
3.22314
3.0277
3.23124
4.28684
5.72753
6.43762
6.35199
5.99421
5.61165
5.26435
4.92253
4.57226
4.23106
3.93077
3.68368
3.48178
3.30787
3.15702
3.00998
2.85505
2.68934
2.53154
2.37662
2.23152
2.10206
2.01814
1.96148
1.89085
1.82348
1.76946
1.78188
2.00749
2.6303
3.43503
3.90177
3.93844
3.88395
3.74533
3.60297
3.48224
3.39735
3.31858
3.22095
3.09858
2.96327
2.86719
2.82715
2.8489
3.09042
3.59508
4.25508
4.67513
4.74168
4.68707
4.53549
4.37952
4.27542
4.18573
4.10877
4.03217
3.95421
3.8655
3.76411
3.65402
3.55222
3.47023
3.39797
3.32546
3.24883
3.16964
3.09309
3.02537
2.96685
2.91549
2.86677
2.81339
2.74631
2.67728
2.65196
2.64243
2.67697
2.83445
3.05972
3.29944
3.448
3.4666
3.40266
3.55588
3.65732
3.73138
3.76047
3.75388
3.71684
3.6733
3.62967
3.53094
3.56669
4.23335
5.78987
7.28349
7.64428
7.4045
6.83398
6.29604
5.86447
5.49171
5.12864
4.76476
4.4146
4.10459
3.84113
3.61389
3.41057
3.22628
3.05314
2.88863
2.73585
2.59573
2.4574
2.30628
2.16061
2.05407
1.97444
1.88728
1.80364
1.73304
1.69424
1.66823
1.74342
2.12035
2.8226
3.42562
3.62546
3.61984
3.51917
3.40398
3.31902
3.23826
3.16558
3.08504
2.97577
2.89749
2.96908
3.35472
4.05291
4.63004
5.0346
5.07827
5.00739
4.79949
4.52211
4.35458
4.26589
4.19407
4.11596
4.02821
3.94149
3.85555
3.76488
3.67055
3.57998
3.49073
3.40926
3.33075
3.25276
3.17781
3.11074
3.05196
2.99568
2.93246
2.85527
2.76815
2.69761
2.65647
2.63043
2.60776
2.59998
2.60492
2.6698
2.78754
2.97283
3.15687
3.28294
2.58091
3.46341
3.66835
3.7055
3.68786
3.66388
3.66062
3.69398
3.99748
5.40043
7.64316
8.50688
8.31825
8.01164
7.57227
7.12837
6.64459
6.17092
5.73278
5.31934
4.92443
4.55608
4.23072
3.95151
3.70801
3.49182
3.30179
3.13039
2.96497
2.79987
2.63304
2.4658
2.32835
2.23121
2.12931
2.03105
1.93579
1.84452
1.75995
1.68554
1.63442
1.58372
1.60018
1.75519
2.2414
2.90379
3.32667
3.43087
3.41063
3.31607
3.20718
3.14603
3.08149
3.0946
3.27384
3.80617
4.55426
4.92349
5.09325
5.10958
5.06961
4.99441
4.82399
4.5704
4.37223
4.26303
4.18946
4.11192
4.02621
3.93698
3.85241
3.76922
3.67962
3.59244
3.50523
3.40594
3.31963
3.24613
3.18026
3.12381
3.07699
3.03259
2.97045
2.86655
2.75573
2.69334
2.65417
2.62153
2.59677
2.57169
2.55409
2.52831
2.51522
2.56041
2.68276
2.95603
1.37772
2.37024
3.22184
3.63833
3.62892
3.6701
3.95683
4.72229
6.60084
8.93502
9.9113
9.69443
8.8995
8.16482
7.68964
7.29741
6.8451
6.34692
5.87895
5.46149
5.07351
4.70963
4.37315
4.06535
3.78952
3.54184
3.32111
3.12835
2.96942
2.83974
2.7148
2.57473
2.41223
2.23653
2.08694
1.97784
1.90335
1.84744
1.80318
1.75225
1.68962
1.61219
1.5377
1.46286
1.51233
1.81386
2.44741
2.94846
3.23388
3.23381
3.19073
3.24948
3.51279
3.88482
4.4724
5.09049
5.41858
5.40817
5.30349
5.10534
4.9493
4.85396
4.74723
4.58412
4.38962
4.25521
4.17821
4.11147
4.04637
3.97615
3.89245
3.79717
3.70179
3.60211
3.48418
3.37747
3.31183
3.26127
3.21099
3.16144
3.10513
3.03082
2.9288
2.81819
2.74331
2.70725
2.67772
2.64649
2.61499
2.57777
2.53863
2.49412
2.4453
2.37413
2.37149
2.5374
1.02528
1.29839
2.01975
3.10916
3.36898
4.18933
6.08898
7.75132
9.58086
10.1083
10.046
9.72762
9.19932
8.51932
7.92299
7.41435
6.91869
6.40985
5.93262
5.52717
5.17168
4.82272
4.49118
4.18264
3.89817
3.62852
3.37781
3.17749
3.00769
2.85532
2.71678
2.5849
2.43953
2.27095
2.12414
2.01182
1.93075
1.86054
1.7977
1.73337
1.66376
1.58197
1.48966
1.41197
1.34947
1.36234
1.55254
2.04551
2.70515
2.99766
3.2593
4.02017
4.78719
5.15726
5.47734
5.57218
5.55086
5.44767
5.31084
5.14973
4.95756
4.79776
4.69122
4.58913
4.42634
4.2688
4.19088
4.13307
4.07644
4.01347
3.93858
3.84872
3.72797
3.55427
3.43437
3.39276
3.34884
3.29628
3.24336
3.19057
3.13044
3.04232
2.90401
2.78382
2.74395
2.71762
2.69072
2.66277
2.63407
2.60234
2.56547
2.52094
2.45026
2.3342
2.26266
2.30303
1.00051
1.01903
1.1534
2.02403
3.48942
5.85714
8.4081
9.90805
10.8963
10.6414
10.0644
9.64579
9.30241
8.79429
8.12885
7.45728
6.92886
6.51839
6.12351
5.71331
5.31349
4.91226
4.53982
4.19466
3.86856
3.65223
3.50159
3.33086
3.15016
2.97234
2.82195
2.66652
2.48446
2.27004
2.11994
2.06711
2.00951
1.94087
1.86357
1.77562
1.6818
1.58809
1.49175
1.40684
1.33847
1.30854
1.31845
1.45135
1.9163
2.87602
3.8383
5.02951
5.69204
6.02107
6.02426
5.8862
5.61213
5.38835
5.27547
5.17614
5.01068
4.82862
4.68177
4.53712
4.38016
4.25271
4.16553
4.09086
4.03102
3.98416
3.93975
3.87754
3.75239
3.56051
3.41859
3.35825
3.31682
3.28157
3.25696
3.22268
3.16634
3.06275
2.90646
2.78819
2.74923
2.72247
2.696
2.66911
2.64105
2.60874
2.56788
2.51069
2.42355
2.30158
2.22849
2.22493
1.00038
1.00948
1.22106
1.89712
3.75942
6.23415
7.90055
9.96362
10.8962
10.4184
10.0158
9.74941
9.47267
9.03536
8.3402
7.60037
6.9699
6.44507
5.99202
5.56675
5.21732
4.96577
4.67373
4.32832
3.99027
3.67776
3.39961
3.19795
3.03604
2.87473
2.73598
2.65625
2.54718
2.36453
2.1609
1.98971
1.9036
1.85813
1.8053
1.73898
1.65807
1.59401
1.5372
1.46667
1.38157
1.32315
1.33172
1.43429
1.82448
2.72693
4.05334
4.95028
5.48036
6.07509
6.01122
5.74177
5.56317
5.42794
5.3256
5.23254
5.06472
4.86228
4.67307
4.49659
4.34487
4.25542
4.1812
4.10821
4.04713
3.99901
3.95023
3.88002
3.75192
3.55798
3.41548
3.35869
3.3229
3.29073
3.25177
3.20324
3.14329
3.05043
2.91761
2.82582
2.78541
2.75573
2.72855
2.70192
2.67309
2.63756
2.58986
2.52365
2.42798
2.30375
2.22996
2.22507
1.02644
1.21544
2.09063
2.88616
3.60186
4.56768
5.63503
7.75163
9.23879
9.79912
9.93551
9.80644
9.35965
8.71493
8.11257
7.54554
6.96963
6.41641
5.93475
5.52999
5.15904
4.79103
4.45447
4.15196
3.87174
3.60873
3.36449
3.15429
2.99284
2.87389
2.75928
2.61521
2.45171
2.30165
2.1499
2.00338
1.88736
1.83011
1.79797
1.76332
1.69061
1.58691
1.48817
1.43371
1.39314
1.40394
1.59164
2.09621
2.6675
2.93483
3.43398
3.90979
4.47927
5.19073
5.37838
5.45625
5.50452
5.50099
5.39249
5.24507
5.06421
4.87133
4.67521
4.50307
4.37138
4.26364
4.17651
4.10244
4.04223
3.99315
3.94139
3.87607
3.77682
3.60611
3.43033
3.35174
3.3116
3.27768
3.24308
3.20376
3.15438
3.07504
2.94302
2.80936
2.74754
2.71464
2.68555
2.6557
2.6242
2.58809
2.55047
2.51213
2.44608
2.34282
2.26627
2.30303
1.37876
2.23127
3.28269
3.53509
3.63495
3.73063
3.90255
4.66113
6.58287
8.81992
9.91602
9.80359
9.09388
8.32486
7.81016
7.34803
6.83109
6.29719
5.80039
5.36002
4.97097
4.62684
4.34272
4.1039
3.87441
3.63263
3.3842
3.15698
2.97246
2.8181
2.67985
2.53326
2.38796
2.28919
2.19814
2.0842
1.96515
1.85633
1.76588
1.69584
1.63805
1.56947
1.50295
1.46053
1.52303
1.86599
2.48882
3.04373
3.23186
3.20395
3.19074
3.19578
3.3569
3.82599
4.55889
5.1044
5.47545
5.50338
5.39875
5.19287
5.01613
4.85387
4.67481
4.4902
4.34335
4.25475
4.19382
4.13142
4.06097
3.98403
3.90171
3.81005
3.70498
3.58895
3.46656
3.37637
3.31376
3.26135
3.21006
3.15672
3.10222
3.04101
2.95215
2.83297
2.75098
2.70799
2.67298
2.63712
2.603
2.56952
2.5403
2.50307
2.45936
2.3856
2.3784
2.54125
2.48674
3.35106
3.76087
3.76287
3.73424
3.69362
3.66082
3.67812
3.99277
5.38194
7.58506
8.56652
8.44107
8.08167
7.60669
7.08558
6.5667
6.07928
5.63112
5.21714
4.84789
4.53944
4.27883
4.03653
3.79631
3.561
3.33385
3.12356
2.93046
2.74652
2.58465
2.46705
2.36186
2.22787
2.09524
1.99959
1.92396
1.84295
1.75717
1.67835
1.62585
1.57809
1.59428
1.75872
2.25785
2.95306
3.36121
3.4489
3.40485
3.30636
3.18621
3.12375
3.04648
3.06926
3.32372
3.88202
4.59495
5.01052
5.15132
5.13256
5.06473
4.90224
4.67208
4.46824
4.33515
4.26137
4.21116
4.15293
4.08161
3.99327
3.8925
3.78257
3.66661
3.55988
3.47626
3.40176
3.32661
3.2523
3.18838
3.13821
3.09103
3.03364
2.95016
2.85002
2.76079
2.69852
2.6529
2.61705
2.59023
2.56681
2.55361
2.53457
2.52549
2.56827
2.68995
2.95906
3.34413
3.64901
3.81486
3.82811
3.80898
3.742
3.67204
3.63303
3.53624
3.56164
4.16994
5.77071
7.29821
7.61925
7.35369
6.75401
6.22729
5.80978
5.44762
5.09942
4.7652
4.45839
4.18365
3.93254
3.69517
3.4659
3.2465
3.03909
2.85145
2.69002
2.5523
2.42989
2.30653
2.18413
2.06966
1.97754
1.89827
1.8301
1.76439
1.70922
1.67544
1.75208
2.13598
2.80578
3.44913
3.66698
3.65229
3.55322
3.42682
3.32245
3.22958
3.1374
3.0399
2.967
2.91835
2.99745
3.3766
4.05091
4.66239
5.04994
5.05417
4.93212
4.68363
4.47537
4.35946
4.29944
4.23625
4.15993
4.08089
3.99196
3.8766
3.7362
3.61335
3.53026
3.46499
3.40365
3.34113
3.27255
3.20331
3.13955
3.07525
3.00463
2.92443
2.84477
2.76799
2.69845
2.64794
2.6184
2.60293
2.60137
2.61249
2.68522
2.78975
2.96521
3.14506
3.27441
3.72909
3.74928
3.75315
3.74864
3.73054
3.68954
3.63947
3.5733
3.42003
3.23401
3.02323
3.20692
4.2472
5.70587
6.35651
6.2735
5.95679
5.59096
5.24006
4.91732
4.60815
4.30824
4.02932
3.77404
3.54251
3.32909
3.13276
2.94979
2.7868
2.63181
2.48493
2.34998
2.23504
2.14545
2.07591
2.01372
1.92996
1.85246
1.77955
1.78477
1.98525
2.63988
3.41776
3.87937
3.95506
3.90734
3.77424
3.63203
3.49699
3.37939
3.27913
3.17457
3.06652
2.96143
2.89298
2.8439
2.86149
3.06964
3.55576
4.19323
4.6192
4.69985
4.65132
4.53126
4.41855
4.33396
4.23251
4.13899
4.0592
3.97325
3.84537
3.68613
3.57559
3.51244
3.45662
3.40309
3.35232
3.29391
3.2169
3.12776
3.04309
2.96616
2.89343
2.82483
2.76502
2.71309
2.66718
2.65433
2.65218
2.69839
2.86093
3.07292
3.27637
3.42129
3.45188
3.40043
3.70262
3.74322
3.75107
3.73808
3.7159
3.67584
3.60154
3.45482
3.25744
3.00472
2.76669
2.49266
2.52478
3.02783
4.22111
5.4054
5.61207
5.39182
5.01132
4.65032
4.34286
4.08138
3.84345
3.61489
3.39802
3.19395
3.00514
2.83069
2.68306
2.54935
2.43316
2.32911
2.24592
2.15447
2.06641
1.98227
1.94249
1.8823
1.94426
2.38583
3.23577
4.02306
4.23442
4.21586
4.09179
3.91955
3.77245
3.65535
3.54768
3.43259
3.32095
3.20658
3.09524
2.98797
2.90744
2.84046
2.80626
2.77961
2.84643
3.13867
3.68021
4.22679
4.53727
4.55405
4.49368
4.34636
4.20995
4.11802
4.03584
3.94248
3.81912
3.67588
3.56851
3.50409
3.45292
3.403
3.35205
3.28972
3.20774
3.10435
3.00672
2.93147
2.87217
2.82144
2.78183
2.74497
2.71224
2.73315
2.83574
3.0635
3.34509
3.5434
3.63226
3.62461
3.55369
3.41194
3.75602
3.75926
3.75073
3.72969
3.69565
3.62363
3.47223
3.25731
3.02919
2.73362
2.46905
2.29574
2.10014
1.99419
2.21788
3.11887
4.36595
4.80002
4.69018
4.39748
4.10903
3.86643
3.63814
3.42325
3.2257
3.04627
2.88656
2.75282
2.64486
2.54467
2.4399
2.3439
2.25218
2.15325
2.07584
2.00167
2.00843
2.23101
2.95224
3.89873
4.50127
4.56955
4.50713
4.31839
4.12022
3.94576
3.80219
3.68392
3.58743
3.48753
3.36964
3.23203
3.11038
3.02194
2.95164
2.88343
2.80834
2.74235
2.68615
2.67528
2.79871
3.20495
3.78531
4.26781
4.33641
4.30593
4.23814
4.14366
4.03462
3.91002
3.78976
3.67187
3.57214
3.50305
3.44866
3.39518
3.34088
3.27441
3.18851
3.07839
2.98117
2.91298
2.86337
2.8334
2.8187
2.81258
2.86257
3.03617
3.3187
3.56962
3.76441
3.80889
3.79239
3.72873
3.58456
3.40179
3.71873
3.71731
3.7107
3.69017
3.63692
3.49118
3.26047
3.0215
2.70385
2.41775
2.24976
2.08651
1.82149
1.69058
1.61687
1.72395
2.322
3.39108
4.13287
4.11372
3.93385
3.69052
3.45547
3.25343
3.08444
2.94627
2.82397
2.71957
2.61757
2.5318
2.44452
2.37488
2.28175
2.20601
2.12641
2.20783
2.72053
3.69082
4.55427
4.8301
4.818
4.67814
4.48341
4.30465
4.1431
4.00394
3.8811
3.75915
3.635
3.50607
3.37417
3.24048
3.13775
3.06729
3.00294
2.93832
2.86051
2.7722
2.67588
2.59418
2.52925
2.57845
2.85666
3.38854
3.92131
4.18189
4.21633
4.16212
4.01858
3.86096
3.74782
3.66083
3.58166
3.51272
3.44935
3.38176
3.31361
3.23889
3.15225
3.0494
2.96765
2.91271
2.88978
2.88368
2.92983
3.06161
3.30921
3.59848
3.80526
3.89967
3.90269
3.87792
3.80805
3.69668
3.57077
3.42564
3.70784
3.72183
3.71438
3.67935
3.53731
3.27429
2.97158
2.69864
2.39452
2.15637
1.96424
1.75416
1.61144
1.52114
1.41225
1.26764
1.29994
1.68411
2.63411
3.48142
3.66896
3.54253
3.34086
3.1583
3.0194
2.91412
2.82227
2.73787
2.65022
2.57424
2.4952
2.43419
2.32919
2.33663
2.61834
3.50781
4.55147
5.14457
5.21758
5.1194
4.88918
4.66588
4.46962
4.31662
4.19854
4.0909
3.96831
3.81722
3.6554
3.51147
3.38297
3.26263
3.17334
3.1081
3.04633
2.99261
2.93493
2.85225
2.72257
2.57672
2.48493
2.44077
2.45641
2.60546
3.02618
3.54935
3.94682
3.99334
3.92593
3.8603
3.76708
3.67467
3.59225
3.51937
3.44855
3.37209
3.28908
3.20415
3.12208
3.04007
2.97537
2.94162
2.96517
3.07077
3.33163
3.62677
3.87816
4.01812
4.05521
4.02948
3.94953
3.85564
3.76324
3.65751
3.58307
3.47591
3.74227
3.74026
3.70827
3.56841
3.29308
2.93027
2.66592
2.37937
2.01946
1.79063
1.68464
1.56049
1.42034
1.28566
1.15459
1.09926
1.08216
1.11782
1.39867
2.16657
3.08648
3.37566
3.31411
3.19073
3.06795
2.95669
2.87611
2.80803
2.74005
2.65425
2.58215
2.51022
2.63073
3.2795
4.49558
5.49955
5.55273
5.47474
5.28589
5.07898
4.8931
4.6968
4.52887
4.40118
4.28482
4.14609
3.97837
3.80858
3.65423
3.51258
3.39103
3.29887
3.22396
3.15764
3.09522
3.03047
2.94818
2.83993
2.71099
2.58039
2.48216
2.42233
2.40661
2.41111
2.46987
2.72747
3.17106
3.63638
3.7531
3.78726
3.76173
3.70978
3.62626
3.53362
3.45261
3.37158
3.2761
3.18649
3.10676
3.04524
3.02703
3.07492
3.28457
3.61851
3.98559
4.11148
4.14763
4.1304
4.08485
4.0044
3.91314
3.82169
3.7363
3.66601
3.62883
3.53129
3.75812
3.72087
3.58237
3.30094
2.89786
2.59489
2.30693
1.90384
1.6298
1.56241
1.46089
1.2805
1.14495
1.08744
1.02748
0.989609
0.970454
0.961058
0.985053
1.18997
1.88913
2.88921
3.19873
3.21891
3.20391
3.11293
3.00898
2.93399
2.87709
2.7814
2.78434
3.07213
4.14155
5.4474
6.14453
6.11866
5.87042
5.53377
5.24528
5.03349
4.89855
4.79848
4.67714
4.52179
4.33935
4.15279
3.97828
3.82055
3.6821
3.54963
3.4085
3.32964
3.29338
3.24726
3.17983
3.0976
2.9947
2.85882
2.71256
2.61317
2.55527
2.49775
2.44303
2.38808
2.35602
2.38809
2.51093
2.83096
3.24107
3.48503
3.61308
3.62503
3.58171
3.50712
3.4269
3.35274
3.26582
3.20344
3.14037
3.15613
3.28364
3.56682
3.93769
4.25486
4.40245
4.39483
4.32442
4.20173
4.05831
3.94576
3.86456
3.79356
3.73566
3.69249
3.65669
3.56125
3.73387
3.60496
3.31491
2.86105
2.48364
2.20047
1.81105
1.50014
1.41654
1.33265
1.15719
1.05969
1.04866
1.02822
0.969474
0.953894
0.951781
0.95404
0.959244
0.974144
1.1071
1.79758
2.74456
3.20089
3.32788
3.31211
3.22259
3.12538
3.02477
3.10713
3.69414
5.09995
6.36429
6.50757
6.42962
6.17102
5.91193
5.66614
5.4125
5.17753
4.97918
4.80364
4.63523
4.46729
4.29635
4.13024
3.98487
3.8613
3.74409
3.61959
3.49655
3.39795
3.30323
3.21213
3.12694
3.03536
2.93322
2.82257
2.72045
2.63407
2.55569
2.48627
2.42203
2.37125
2.32297
2.28944
2.26675
2.31505
2.51499
2.85213
3.21942
3.46099
3.53196
3.50762
3.42785
3.35351
3.30348
3.29886
3.36299
3.59304
3.9246
4.25429
4.44789
4.52951
4.51132
4.46463
4.37135
4.20494
4.01281
3.8809
3.82086
3.78659
3.76006
3.73452
3.70131
3.60365
3.64714
3.33668
2.83987
2.35489
2.02655
1.69355
1.36772
1.21893
1.12933
1.02454
0.933334
0.924536
0.932658
0.931879
0.933568
0.939898
0.950662
0.971062
0.985458
1.00389
1.03316
1.16239
1.78145
2.6211
3.27428
3.35749
3.3424
3.36687
3.61721
4.596
6.11185
6.9789
7.16467
6.94617
6.4934
6.13802
5.89919
5.6615
5.41873
5.19307
4.98973
4.80808
4.64301
4.4832
4.3257
4.1726
4.03038
3.89641
3.7602
3.62354
3.50447
3.4027
3.30493
3.21427
3.12672
3.03316
2.9326
2.83065
2.73778
2.65308
2.57865
2.51189
2.44582
2.38674
2.33158
2.2778
2.2374
2.20437
2.19668
2.26989
2.54378
2.93521
3.29248
3.40417
3.39999
3.40541
3.4996
3.66322
3.90966
4.27166
4.50951
4.64024
4.71368
4.69154
4.60751
4.46914
4.32872
4.16494
3.97727
3.8715
3.8092
3.75576
3.71723
3.68803
3.65616
3.56867
3.37142
2.74776
2.16329
1.8214
1.51749
1.19922
1.09517
1.07668
1.00919
0.944675
0.918198
0.91038
0.917049
0.92673
0.958248
0.983136
1.00113
1.00592
1.00544
1.01897
1.03314
1.04723
1.13635
1.59481
2.55267
3.06759
3.55022
4.28182
5.64416
6.79033
7.42727
7.31054
7.01041
6.71996
6.46671
6.22911
5.99306
5.73269
5.47912
5.25345
5.04396
4.85707
4.70086
4.55819
4.41719
4.27956
4.14096
3.99564
3.8433
3.69481
3.56326
3.45019
3.3522
3.26089
3.17052
3.07745
2.98306
2.89147
2.80485
2.72719
2.65593
2.58489
2.51279
2.44252
2.37984
2.31867
2.26356
2.21303
2.14591
2.10536
2.14802
2.35357
2.7306
3.14391
3.39196
3.73524
4.17265
4.40158
4.51461
4.59417
4.67751
4.72794
4.73411
4.6704
4.56956
4.45203
4.32125
4.15229
3.97371
3.89901
3.84067
3.78336
3.73551
3.68923
3.64686
3.55748
2.6559
1.69756
1.16191
0.879826
0.672144
0.626384
0.65486
0.760239
0.827715
0.845373
0.888721
0.94105
0.966788
0.99063
1.0429
1.06081
1.06223
1.0525
1.03998
1.04565
1.05917