/*--------------------------------*- C++ -*----------------------------------*\
  =========                 |
  \\      /  F ield         | OpenFOAM: The Open Source CFD Toolbox
   \\    /   O peration     | Website:  https://openfoam.org
    \\  /    A nd           | Version:  7
     \\/     M anipulation  |
\*---------------------------------------------------------------------------*/
FoamFile
{
    version     2.0;
    format      ascii;
    class       volScalarField;
    location    "2.1";
    object      rho;
}
// * * * * * * * * * * * * * * * * * * * * * * * * * * * * * * * * * * * * * //

dimensions      [1 -3 0 0 0 0 0];

internalField   nonuniform List<scalar> 
4608
(
1.40001
1.40001
1.40001
1.40001
1.40001
1.40001
1.40001
1.40001
1.40001
1.40001
1.40001
1.40001
1.40001
1.40001
1.40001
1.40001
1.40001
1.40001
1.40001
1.40001
1.40001
1.40001
1.40001
1.40001
1.40001
1.40001
1.40001
1.40001
1.40001
1.40001
1.40001
1.40001
1.40001
1.40001
1.40001
1.40001
1.40001
1.40001
1.40001
1.40001
1.40001
1.40001
1.40001
1.40001
1.40001
1.40001
1.40001
1.40001
1.40001
1.40001
1.40001
1.40001
1.40001
1.40001
1.40001
1.40001
1.40001
1.40001
1.40001
1.40001
1.40001
1.40001
1.40001
1.40001
1.40001
1.40001
1.40001
1.40001
1.40001
1.40001
1.40001
1.40001
1.40001
1.40001
1.40001
1.40001
1.40001
1.40001
1.40001
1.40001
1.40001
1.40001
1.40001
1.40001
1.40001
1.40001
1.40001
1.40001
1.40001
1.40001
1.40001
1.40001
1.40001
1.40001
1.40001
1.40001
1.40001
1.40001
1.40001
1.40001
1.40001
1.40001
1.40001
1.40001
1.40001
1.40001
1.40001
1.40001
1.40001
1.40001
1.40001
1.40001
1.40001
1.40001
1.40001
1.40001
1.40001
1.40001
1.40001
1.40001
1.40001
1.40001
1.40001
1.40001
1.40001
1.40001
1.40001
1.40001
1.40001
1.40001
1.40001
1.40001
1.40001
1.40001
1.40001
1.40001
1.40001
1.40001
1.40001
1.40001
1.40001
1.40001
1.40001
1.40001
1.40001
1.40001
1.40001
1.40001
1.40001
1.40001
1.40001
1.40001
1.40001
1.40001
1.40001
1.40001
1.40001
1.40001
1.40001
1.40001
1.40001
1.40001
1.40001
1.40001
1.40001
1.40001
1.40001
1.40001
1.40001
1.40001
1.40001
1.40001
1.40001
1.40001
1.40001
1.40001
1.40001
1.40001
1.40001
1.40001
1.40001
1.40001
1.40001
1.40001
1.40001
1.40001
1.40001
1.40001
1.40001
1.40001
1.40001
1.40001
1.40001
1.40001
1.40001
1.40001
1.40001
1.40001
1.40001
1.40001
1.40001
1.40001
1.40001
1.40001
1.40001
1.40001
1.40001
1.40001
1.40001
1.40001
1.40001
1.40001
1.40001
1.40001
1.40001
1.40001
1.40001
1.40001
1.40001
1.40001
1.40001
1.40001
1.40001
1.40001
1.40001
1.40001
1.40001
1.40001
1.40001
1.40001
1.40001
1.40001
1.40001
1.40001
1.40001
1.40001
1.40001
1.40001
1.40001
1.40001
1.40001
1.40001
1.40001
1.40001
1.40001
1.40001
1.40001
1.40001
1.40001
1.40001
1.40001
1.40001
1.40001
1.40001
1.40001
1.40001
1.40001
1.40001
1.40001
1.40001
1.40001
1.40001
1.40001
1.40001
1.40001
1.40001
1.40001
1.40001
1.40001
1.40001
1.40001
1.40001
1.40001
1.40001
1.40001
1.40001
1.40001
1.40001
1.40001
1.40001
1.40001
1.40001
1.40001
1.40001
1.40001
1.40001
1.40001
1.40001
1.40001
1.40001
1.40001
1.40001
1.40001
1.40001
1.40001
1.40001
1.40001
1.40001
1.40001
1.40001
1.40001
1.40001
1.40001
1.40001
1.40001
1.40001
1.40001
1.40001
1.40001
1.40001
1.40001
1.40001
1.40001
1.40001
1.40001
1.40001
1.40001
1.40001
1.40001
1.40001
1.40001
1.40001
1.40001
1.40001
1.40001
1.40001
1.40001
1.40001
1.40001
1.40001
1.40001
1.40001
1.40001
1.40001
1.40001
1.40001
1.40001
1.40001
1.40001
1.40001
1.40001
1.40001
1.40001
1.40001
1.40001
1.40001
1.40001
1.40001
1.40001
1.40001
1.40001
1.40001
1.40001
1.40001
1.40001
1.40001
1.40001
1.40001
1.40001
1.40001
1.40001
1.40001
1.40001
1.40001
1.40001
1.40001
1.40001
1.40001
1.40001
1.40001
1.40001
1.40001
1.40001
1.40001
1.40001
1.40001
1.40001
1.40001
1.40001
1.40001
1.40001
1.40001
1.40001
1.40001
1.40001
1.40001
1.40001
1.40001
1.40001
1.40001
1.40001
1.40001
1.40001
1.40001
1.40001
1.40001
1.40001
1.40001
1.40001
1.40001
1.40001
1.40001
1.40001
1.40001
1.40001
1.40001
1.40001
1.40001
1.40001
1.40001
1.40001
1.40001
1.40001
1.40001
1.40001
1.40001
1.40001
1.40001
1.40001
1.40001
1.40001
1.40001
1.40001
1.40001
1.40001
1.40001
1.40001
1.40001
1.40001
1.40001
1.40001
1.40001
1.40001
1.40001
1.40001
1.40001
1.40001
1.40001
1.40001
1.40001
1.40001
1.40001
1.40001
1.40001
1.40001
1.40001
1.40001
1.40001
1.40001
1.40001
1.40001
1.40001
1.40001
1.40001
1.40001
1.40001
1.40001
1.40001
1.40001
1.40001
1.40001
1.40001
1.40001
1.40001
1.40001
1.40001
1.40001
1.40001
1.40001
1.40001
1.40001
1.40001
1.40001
1.40001
1.40001
1.40001
1.40001
1.40001
1.40001
1.40001
1.40001
1.40001
1.40001
1.40001
1.40001
1.40001
1.40001
1.40001
1.40001
1.40001
1.40001
1.40001
1.40001
1.40001
1.40001
1.40001
1.40001
1.40001
1.40001
1.40001
1.40001
1.40001
1.40001
1.40001
1.40001
1.40001
1.40001
1.40001
1.40001
1.40001
1.40001
1.40001
1.40001
1.40001
1.40001
1.40001
1.40001
1.40001
1.40001
1.40001
1.40001
1.40001
1.40001
1.40001
1.40001
1.40001
1.40001
1.40001
1.40001
1.40001
1.40001
1.40001
1.40001
1.40001
1.40001
1.40001
1.40001
1.40001
1.40001
1.40001
1.40001
1.40001
1.40001
1.40001
1.40001
1.40001
1.40001
1.40001
1.40001
1.40001
1.40001
1.40001
1.40001
1.40001
1.40001
1.40001
1.40001
1.40001
1.40001
1.40001
1.40001
1.40001
1.40001
1.40001
1.40001
1.40001
1.40001
1.40001
1.40001
1.40001
1.40001
1.40001
1.40001
1.40001
1.40001
1.40001
1.40001
1.40001
1.40001
1.40001
1.40001
1.40001
1.40001
1.40001
1.40001
1.40001
1.40001
1.40001
1.40001
1.40001
1.40001
1.40001
1.40001
1.40001
1.40001
1.40001
1.40001
1.40001
1.40001
1.40001
1.40001
1.40001
1.40001
1.40001
1.40001
1.40001
1.40001
1.40001
1.40001
1.40001
1.40001
1.40001
1.40001
1.40001
1.40001
1.40001
1.40001
1.40001
1.40001
1.40001
1.40001
1.40001
1.40001
1.40001
1.40001
1.40001
1.40001
1.40001
1.40001
1.40001
1.40001
1.40001
1.40001
1.40001
1.40001
1.40001
1.40001
1.40001
1.40001
1.40001
1.40001
1.40001
1.40001
1.40001
1.40001
1.40001
1.40001
1.40001
1.40001
1.40001
1.40001
1.40001
1.40001
1.40001
1.40001
1.40001
1.40001
1.40001
1.40001
1.40001
1.40001
1.40001
1.40001
1.40001
1.40001
1.40001
1.40001
1.40001
1.40001
1.40001
1.40001
1.40001
1.40001
1.40001
1.40001
1.40001
1.40001
1.40001
1.40001
1.40001
1.40001
1.40001
1.40001
1.40001
1.40001
1.40001
1.40001
1.40001
1.40001
1.40001
1.40001
1.40001
1.40001
1.40001
1.40001
1.40001
1.40001
1.40001
1.40001
1.40001
1.40001
1.40001
1.40001
1.40001
1.40001
1.40001
1.40001
1.40001
1.40001
1.40001
1.40001
1.40001
1.40001
1.40001
1.40001
1.40001
1.40001
1.40001
1.40001
1.40001
1.40001
1.40001
1.40001
1.40001
1.40001
1.40001
1.40001
1.40001
1.40001
1.40001
1.40001
1.40001
1.40001
1.40001
1.40001
1.40001
1.40001
1.40001
1.40001
1.40001
1.40001
1.40001
1.40001
1.40001
1.40001
1.40001
1.40001
1.40001
1.40001
1.40001
1.40001
1.40001
1.40001
1.40001
1.40001
1.40001
1.40001
1.40001
1.40001
1.40001
1.40001
1.40001
1.40001
1.40001
1.40001
1.40001
1.40001
1.40001
1.67612
2.09103
2.53862
2.98376
3.43458
3.81333
4.13635
4.42169
4.41859
4.29292
4.03979
3.72323
3.45341
3.37351
3.30564
3.30593
3.32567
3.34952
3.37727
3.40713
3.42098
3.42186
3.41976
3.42406
1.40292
1.41574
1.47619
1.59083
1.79892
2.1108
2.51131
2.98284
3.35452
3.53386
3.66561
3.62685
3.53736
3.48465
3.431
3.39132
3.37532
3.35971
3.36369
3.38168
3.40286
3.40944
3.41067
3.41561
1.40001
1.39996
1.4002
1.40029
1.40316
1.42239
1.49481
1.7136
2.18151
2.89694
3.43437
3.72676
3.76119
3.70937
3.61032
3.4754
3.3769
3.33015
3.32887
3.34099
3.3616
3.37934
3.3888
3.39553
1.40001
1.4
1.4
1.4
1.39999
1.40004
1.39992
1.40175
1.42869
1.63707
2.16984
2.96487
3.46181
3.54215
3.5291
3.51534
3.44911
3.36172
3.33141
3.32589
3.32618
3.33527
3.3559
3.3762
1.40001
1.40001
1.4
1.4
1.4
1.4
1.39999
1.39999
1.39992
1.40111
1.43864
1.67016
2.33398
2.98038
3.4364
3.54632
3.52948
3.46303
3.39625
3.33573
3.30502
3.30481
3.31645
3.34186
1.40001
1.40001
1.40001
1.40001
1.40001
1.4
1.4
1.4
1.4
1.4
1.39994
1.40223
1.47118
1.79649
2.51694
3.09318
3.41528
3.43862
3.40466
3.36529
3.32703
3.29687
3.28891
3.29658
1.40001
1.40001
1.40001
1.40001
1.40001
1.40001
1.40001
1.40001
1.40001
1.4
1.4
1.39999
1.40009
1.40823
1.53085
2.01825
2.82766
3.23453
3.33459
3.34956
3.34917
3.31418
3.28025
3.27805
1.40001
1.40001
1.40001
1.40001
1.40001
1.40001
1.40001
1.40001
1.40001
1.40001
1.40001
1.4
1.4
1.39998
1.40097
1.43435
1.69017
2.3566
3.03455
3.3582
3.37698
3.35469
3.31018
3.2964
1.40001
1.40001
1.40001
1.40001
1.40001
1.40001
1.40001
1.40001
1.40001
1.40001
1.40001
1.40001
1.4
1.4
1.4
1.40002
1.40639
1.52793
1.99098
2.71563
3.21747
3.36363
3.35588
3.32793
1.40001
1.40001
1.40001
1.40001
1.40001
1.40001
1.40001
1.40001
1.40001
1.40001
1.40001
1.40001
1.40001
1.4
1.4
1.4
1.39999
1.40157
1.43591
1.74449
2.44664
3.13153
3.23075
3.2814
1.40001
1.40001
1.40001
1.40001
1.40001
1.40001
1.40001
1.40001
1.40001
1.40001
1.40001
1.40001
1.40001
1.40001
1.40001
1.4
1.4
1.4
1.40013
1.41617
1.56946
2.20286
2.877
3.29323
1.40001
1.40001
1.40001
1.40001
1.40001
1.40001
1.40001
1.40001
1.40001
1.40001
1.40001
1.40001
1.40001
1.40001
1.40001
1.40001
1.4
1.4
1.4
1.40004
1.40428
1.50483
1.98289
2.76193
1.40001
1.40001
1.40001
1.40001
1.40001
1.40001
1.40001
1.40001
1.40001
1.40001
1.40001
1.40001
1.40001
1.40001
1.40001
1.40001
1.40001
1.40001
1.4
1.4
1.40001
1.4021
1.46407
1.80314
1.40001
1.40001
1.40001
1.40001
1.40001
1.40001
1.40001
1.40001
1.40001
1.40001
1.40001
1.40001
1.40001
1.40001
1.40001
1.40001
1.40001
1.40001
1.40001
1.4
1.4
1.4
1.40124
1.42474
1.40001
1.40001
1.40001
1.40001
1.40001
1.40001
1.40001
1.40001
1.40001
1.40001
1.40001
1.40001
1.40001
1.40001
1.40001
1.40001
1.40001
1.40001
1.40001
1.40001
1.4
1.4
1.40001
1.40006
1.40001
1.40001
1.40001
1.40001
1.40001
1.40001
1.40001
1.40001
1.40001
1.40001
1.40001
1.40001
1.40001
1.40001
1.40001
1.40001
1.40001
1.40001
1.40001
1.40001
1.40001
1.4
1.4
1.4
1.40001
1.40001
1.40001
1.40001
1.40001
1.40001
1.40001
1.40001
1.40001
1.40001
1.40001
1.40001
1.40001
1.40001
1.40001
1.40001
1.40001
1.40001
1.40001
1.40001
1.40001
1.4
1.4
1.4
1.40001
1.40001
1.40001
1.40001
1.40001
1.40001
1.40001
1.40001
1.40001
1.40001
1.40001
1.40001
1.40001
1.40001
1.40001
1.40001
1.40001
1.40001
1.40001
1.40001
1.4
1.4
1.40001
1.40002
1.40001
1.40001
1.40001
1.40001
1.40001
1.40001
1.40001
1.40001
1.40001
1.40001
1.40001
1.40001
1.40001
1.40001
1.40001
1.40001
1.40001
1.40001
1.40001
1.4
1.4
1.4
1.401
1.42945
1.40001
1.40001
1.40001
1.40001
1.40001
1.40001
1.40001
1.40001
1.40001
1.40001
1.40001
1.40001
1.40001
1.40001
1.40001
1.40001
1.40001
1.40001
1.4
1.4
1.40001
1.40257
1.45902
1.85301
1.40001
1.40001
1.40001
1.40001
1.40001
1.40001
1.40001
1.40001
1.40001
1.40001
1.40001
1.40001
1.40001
1.40001
1.40001
1.40001
1.4
1.4
1.4
1.40004
1.4042
1.50424
2.00979
2.78686
1.40001
1.40001
1.40001
1.40001
1.40001
1.40001
1.40001
1.40001
1.40001
1.40001
1.40001
1.40001
1.40001
1.40001
1.40001
1.4
1.4
1.4
1.40013
1.41644
1.56776
2.18775
2.92915
3.27975
1.40001
1.40001
1.40001
1.40001
1.40001
1.40001
1.40001
1.40001
1.40001
1.40001
1.40001
1.40001
1.40001
1.4
1.4
1.4
1.39999
1.40156
1.43595
1.74861
2.4327
3.14181
3.23364
3.27708
1.40001
1.40001
1.40001
1.40001
1.40001
1.40001
1.40001
1.40001
1.40001
1.40001
1.40001
1.40001
1.4
1.4
1.4
1.40002
1.40641
1.52718
1.99416
2.71506
3.21112
3.36833
3.35893
3.32684
1.40001
1.40001
1.40001
1.40001
1.40001
1.40001
1.40001
1.40001
1.40001
1.40001
1.40001
1.4
1.4
1.39998
1.40097
1.43446
1.6901
2.3546
3.03835
3.35783
3.37453
3.35435
3.313
3.29732
1.40001
1.40001
1.40001
1.40001
1.40001
1.40001
1.40001
1.40001
1.40001
1.4
1.4
1.39999
1.40009
1.40825
1.53073
2.01908
2.82596
3.23561
3.3354
3.34931
3.34833
3.3147
3.28234
3.27861
1.40001
1.40001
1.40001
1.40001
1.40001
1.4
1.4
1.4
1.4
1.4
1.39994
1.40223
1.47118
1.79644
2.51736
3.09331
3.41426
3.43878
3.40526
3.36477
3.32603
3.29679
3.28997
3.29712
1.40001
1.40001
1.4
1.4
1.4
1.4
1.39999
1.39999
1.39992
1.40111
1.43863
1.67016
2.33403
2.98019
3.43667
3.54623
3.52944
3.46296
3.39652
3.33538
3.30492
3.30496
3.31694
3.34189
1.40001
1.4
1.4
1.4
1.39999
1.40004
1.39992
1.40175
1.42869
1.63707
2.16982
2.96493
3.46172
3.54215
3.52913
3.51539
3.44908
3.36165
3.33156
3.32568
3.3261
3.33537
3.3561
3.37605
1.40001
1.39996
1.4002
1.40029
1.40316
1.42239
1.49481
1.7136
2.18152
2.89692
3.43438
3.72678
3.7612
3.70937
3.61034
3.47544
3.37681
3.33016
3.32905
3.34094
3.36152
3.37946
3.38885
3.3955
1.40292
1.41574
1.47619
1.59084
1.79891
2.11081
2.5113
2.98285
3.35453
3.53383
3.66561
3.62687
3.53738
3.48464
3.43102
3.3913
3.3753
3.35972
3.36371
3.38169
3.40286
3.40948
3.41069
3.41561
1.67612
2.09102
2.53862
2.98375
3.43459
3.81334
4.13633
4.42171
4.4186
4.29291
4.03978
3.72324
3.45341
3.37349
3.30563
3.30592
3.32566
3.34952
3.37728
3.40714
3.42099
3.42188
3.41977
3.42405
2.66053
1.92916
1.4643
1.18165
0.959041
0.910328
0.934731
1.02928
1.09746
1.11928
1.16508
1.21664
1.24105
1.26238
1.31267
1.33471
1.33695
1.32769
1.31539
1.32087
1.33594
1.34882
1.35101
1.3927
1.68336
2.54988
3.62996
4.79556
5.84044
6.02748
5.69202
5.1538
4.81206
4.63759
4.54242
4.43539
4.29939
4.16808
4.05537
3.95492
3.86159
3.76929
3.67551
3.58071
3.4851
3.38516
3.27694
3.17013
3.07864
3.00806
2.95346
2.90635
2.86105
2.81422
2.76338
2.70405
2.63287
2.55428
2.47915
2.41735
2.3697
2.33172
2.29905
2.27041
2.24356
2.21418
2.1779
2.12738
2.0365
1.95449
1.94896
1.97513
2.10227
2.4341
2.93376
3.39294
3.73203
3.90313
3.95188
3.8355
3.67638
3.62298
3.60347
3.58187
3.54703
3.50106
3.42645
3.29407
3.18043
3.14757
3.1278
3.11639
3.10087
3.07738
3.05789
3.00074
3.15488
2.72375
2.29743
2.02874
1.78014
1.51701
1.41215
1.38434
1.31707
1.25339
1.22417
1.21309
1.21755
1.22458
1.25415
1.28021
1.29885
1.30137
1.29895
1.30947
1.32491
1.33819
1.40859
1.74816
2.40571
2.7455
3.04369
3.46352
4.22784
4.82497
5.13527
5.07804
4.8987
4.73265
4.58771
4.43982
4.30771
4.20556
4.09488
3.98716
3.89232
3.80158
3.70705
3.60885
3.50868
3.40409
3.29852
3.20457
3.12563
3.05276
2.99267
2.94308
2.89583
2.84774
2.7974
2.74048
2.67261
2.5961
2.52079
2.45829
2.40879
2.36774
2.33091
2.29703
2.26567
2.23271
2.19724
2.14918
2.07299
2.02997
2.06236
2.20022
2.448
2.71798
2.88015
3.09452
3.36074
3.50713
3.5578
3.57672
3.60296
3.6221
3.62363
3.60564
3.56032
3.50495
3.43036
3.32146
3.20545
3.16266
3.14354
3.12607
3.11034
3.08977
3.06764
3.00727
3.33093
3.12903
2.78979
2.44028
2.19438
1.93468
1.65921
1.52453
1.44383
1.34561
1.25659
1.24711
1.25481
1.25282
1.25338
1.25844
1.26881
1.2892
1.30191
1.31782
1.34359
1.45293
1.91404
2.49311
2.89975
2.93656
2.9228
2.93253
3.07384
3.63164
4.42606
4.92006
4.97746
4.87012
4.63467
4.44148
4.29727
4.15932
4.01935
3.89328
3.79661
3.72026
3.64291
3.55814
3.46624
3.37451
3.29116
3.20648
3.10633
3.00577
2.93144
2.88403
2.8428
2.79811
2.74884
2.69688
2.63819
2.56904
2.4933
2.42705
2.3749
2.32886
2.28748
2.2498
2.21315
2.18278
2.1597
2.13351
2.12017
2.1731
2.35255
2.59041
2.80868
2.88107
2.87936
2.88077
2.94088
3.05379
3.19615
3.38945
3.51134
3.56749
3.60757
3.60584
3.56236
3.49403
3.42332
3.34985
3.26014
3.17383
3.11132
3.07992
3.05987
3.04699
3.03117
2.97768
3.36403
3.28946
3.10482
2.79861
2.53198
2.32417
2.02252
1.7683
1.69998
1.6287
1.47109
1.38118
1.37247
1.35436
1.29767
1.27892
1.27675
1.27983
1.28526
1.29853
1.41359
1.93972
2.58165
2.88255
2.94171
2.91742
2.84354
2.76606
2.70553
2.75489
3.09675
3.89893
4.55509
4.6646
4.61861
4.48883
4.3248
4.14143
3.97694
3.84557
3.75013
3.6788
3.61224
3.54471
3.47557
3.40178
3.32134
3.22234
3.11019
2.9977
2.9106
2.85629
2.81702
2.7782
2.73214
2.68044
2.62577
2.56271
2.48947
2.41764
2.36473
2.3174
2.27512
2.23898
2.20361
2.18438
2.17373
2.20516
2.33904
2.57465
2.7966
2.93454
2.96147
2.94478
2.88567
2.83336
2.80883
2.8145
2.86273
3.00634
3.1957
3.36376
3.44517
3.49514
3.49295
3.47776
3.44313
3.38468
3.30036
3.20923
3.11966
3.07041
3.04426
3.02133
3.00603
2.96446
3.35327
3.33855
3.25951
3.08248
2.8135
2.60283
2.3938
2.08596
1.87096
1.81759
1.73223
1.57257
1.45107
1.40379
1.35292
1.31509
1.29348
1.28406
1.30693
1.48329
2.01073
2.6486
2.8957
2.89332
2.87172
2.79903
2.70976
2.64627
2.60389
2.54193
2.54576
2.72849
3.35907
4.05471
4.46797
4.46829
4.34542
4.12974
3.94661
3.81617
3.73001
3.65204
3.56948
3.4899
3.41331
3.34039
3.26986
3.2099
3.13799
3.04222
2.93419
2.83559
2.77897
2.74924
2.72428
2.69188
2.64629
2.59059
2.51787
2.42285
2.35282
2.31147
2.27339
2.23922
2.21931
2.22756
2.29224
2.4978
2.76423
2.96131
3.03381
3.02808
2.99242
2.9353
2.87428
2.82398
2.77628
2.74604
2.7265
2.74685
2.82615
2.97742
3.18339
3.33909
3.40378
3.4237
3.40051
3.35664
3.31142
3.2447
3.16401
3.09574
3.05086
3.00227
2.97241
2.92607
3.32209
3.32653
3.31341
3.23266
3.0598
2.82055
2.63911
2.43461
2.16663
1.99063
1.90896
1.80792
1.68756
1.57203
1.46133
1.41276
1.39475
1.42402
1.65494
2.19725
2.7777
2.97523
2.94916
2.86597
2.78522
2.70505
2.63256
2.57694
2.52481
2.45967
2.40392
2.36427
2.44532
2.8304
3.55484
4.08947
4.17474
4.12991
3.98945
3.84882
3.72315
3.60928
3.51634
3.44404
3.38288
3.32201
3.25787
3.18476
3.10148
3.01018
2.90859
2.8212
2.76693
2.72377
2.67866
2.63445
2.59003
2.54013
2.48614
2.42814
2.3563
2.29295
2.27368
2.26463
2.30266
2.45178
2.70793
2.98588
3.08298
3.12189
3.10854
3.0634
3.0064
2.94137
2.88416
2.83246
2.77613
2.73188
2.69685
2.68121
2.66854
2.70042
2.8126
2.99829
3.16756
3.27314
3.29209
3.29154
3.2746
3.24375
3.19951
3.13348
3.0643
2.99602
2.95533
2.90913
3.28637
3.3012
3.29932
3.28075
3.19424
3.02749
2.82993
2.64655
2.43373
2.25918
2.11626
1.95772
1.8436
1.7695
1.67762
1.55225
1.5715
1.85129
2.5022
3.00149
3.13049
3.05989
2.93535
2.82841
2.75492
2.68329
2.61294
2.55668
2.49548
2.42409
2.35407
2.29883
2.24123
2.24999
2.44698
2.98261
3.6207
3.97829
3.96035
3.87358
3.72318
3.59068
3.48448
3.40153
3.34048
3.28975
3.23314
3.1668
3.09149
3.00329
2.90278
2.81068
2.74663
2.6984
2.65215
2.60923
2.56594
2.52117
2.46807
2.39643
2.33523
2.29451
2.30264
2.4037
2.65966
2.94331
3.16331
3.20696
3.18854
3.16677
3.12519
3.06803
3.00584
2.93964
2.87553
2.82103
2.77873
2.73754
2.7008
2.67181
2.6497
2.62737
2.62834
2.67669
2.8004
2.98198
3.13347
3.20353
3.231
3.22505
3.19494
3.14692
3.08923
3.02697
2.96842
2.89208
3.29242
3.29224
3.28917
3.27725
3.24423
3.15298
3.00591
2.8512
2.6396
2.43877
2.32026
2.20289
2.00287
1.90097
1.84038
1.9098
2.29483
2.97151
3.40247
3.38124
3.27879
3.13963
2.99996
2.89201
2.80624
2.72618
2.64525
2.5784
2.49904
2.4224
2.34262
2.27884
2.21824
2.15944
2.12052
2.18623
2.53393
3.16518
3.67015
3.77377
3.73867
3.6308
3.51617
3.41172
3.31629
3.23988
3.18135
3.12301
3.05864
2.9842
2.89649
2.8012
2.7246
2.67241
2.62754
2.58754
2.54835
2.50544
2.45409
2.40414
2.34819
2.37266
2.53814
2.86555
3.15356
3.30129
3.33709
3.31671
3.26029
3.20163
3.14309
3.0809
3.01289
2.9404
2.87553
2.81989
2.78371
2.75949
2.73778
2.70523
2.66769
2.6184
2.59469
2.56887
2.58083
2.63925
2.79702
2.96639
3.09451
3.15686
3.16238
3.15115
3.12285
3.07275
2.99509
2.89122
3.32161
3.31703
3.31016
3.29846
3.28034
3.23518
3.14061
3.00106
2.85016
2.64904
2.46564
2.34754
2.20989
2.12585
2.27376
2.81441
3.52978
3.78654
3.72379
3.55464
3.3811
3.23679
3.10788
2.99137
2.88607
2.78988
2.70492
2.63061
2.54726
2.45994
2.36724
2.28401
2.21219
2.14582
2.093
2.05095
2.06285
2.23658
2.70926
3.28223
3.61134
3.60417
3.559
3.4341
3.31422
3.21505
3.14254
3.08191
3.02055
2.95437
2.88418
2.80121
2.70657
2.63855
2.60342
2.5733
2.53741
2.50075
2.46209
2.44345
2.51334
2.74101
3.07299
3.35562
3.37806
3.38273
3.35932
3.31067
3.2636
3.21259
3.15471
3.08908
3.01679
2.94269
2.87823
2.83573
2.80618
2.77112
2.73163
2.69029
2.64952
2.60893
2.57375
2.55185
2.53379
2.50856
2.53405
2.63517
2.8042
2.96835
3.0828
3.1221
3.11884
3.0933
3.02437
2.90201
3.30296
3.31705
3.31331
3.30566
3.29317
3.27157
3.22384
3.12745
2.99353
2.82344
2.66687
2.4814
2.50294
2.81548
3.51973
4.14019
4.23831
4.12759
3.92662
3.72138
3.53222
3.3671
3.22259
3.09643
2.98527
2.88095
2.7852
2.69154
2.59447
2.4885
2.3854
2.28676
2.21228
2.1474
2.09448
2.04593
2.013
1.97564
2.02619
2.32855
2.88418
3.31583
3.43589
3.41833
3.34267
3.22892
3.1327
3.06334
3.00261
2.94126
2.87693
2.80017
2.70733
2.62814
2.58016
2.54725
2.53305
2.51756
2.56585
2.74811
3.06354
3.35911
3.53307
3.52746
3.47675
3.39473
3.33565
3.29477
3.25781
3.21674
3.16598
3.10281
3.02927
2.95861
2.90575
2.8679
2.83032
2.78754
2.74291
2.69722
2.65576
2.62016
2.58525
2.5523
2.52127
2.4946
2.46152
2.46542
2.52329
2.66587
2.84636
2.98119
3.04179
3.0372
2.99567
2.90646
3.35256
3.33898
3.3173
3.30581
3.29227
3.27748
3.257
3.20653
3.09904
2.97491
2.8422
2.95945
3.55772
4.32924
4.69457
4.65325
4.47147
4.27278
4.08786
3.90121
3.70482
3.50808
3.33022
3.18073
3.05737
2.95103
2.85869
2.76707
2.66746
2.55648
2.44773
2.33987
2.23785
2.14544
2.08611
2.04728
1.99721
1.94705
1.90378
1.91079
2.06572
2.47778
2.97371
3.26088
3.26508
3.22917
3.13986
3.04897
2.97359
2.92102
2.87077
2.80685
2.7259
2.63717
2.57559
2.54975
2.56197
2.7094
3.00833
3.38253
3.61565
3.65869
3.62961
3.5474
3.4613
3.40365
3.35376
3.31121
3.26841
3.22381
3.17201
3.11263
3.04854
2.98967
2.94234
2.89997
2.85628
2.80905
2.75965
2.7117
2.66927
2.6325
2.60008
2.56935
2.53706
2.49631
2.45252
2.43642
2.43033
2.45251
2.55295
2.69399
2.84217
2.93283
2.94461
2.90435
3.23052
3.28571
3.33163
3.34173
3.33434
3.30634
3.275
3.24489
3.179
3.19763
3.56764
4.40311
5.151
5.33606
5.22098
4.9356
4.65956
4.43336
4.23461
4.03768
3.83584
3.63596
3.4533
3.29347
3.15324
3.02764
2.91438
2.80656
2.70045
2.59809
2.50128
2.40484
2.29862
2.19545
2.11973
2.06279
1.99891
1.93546
1.87916
1.84803
1.82618
1.88022
2.14153
2.6057
2.97983
3.09894
3.08354
3.01492
2.93976
2.88593
2.83454
2.78656
2.7318
2.66018
2.60403
2.64708
2.88161
3.28895
3.61262
3.83517
3.86006
3.82148
3.70915
3.556
3.46308
3.41473
3.37571
3.33222
3.28178
3.23057
3.17928
3.12591
3.07151
3.01999
2.96874
2.9206
2.87271
2.82389
2.77574
2.7323
2.69503
2.66009
2.61998
2.57096
2.51736
2.47375
2.44722
2.42995
2.41442
2.40912
2.41253
2.45498
2.53082
2.64898
2.7662
2.84407
2.60483
3.1772
3.31308
3.31653
3.30027
3.27905
3.27524
3.29312
3.46986
4.24628
5.37076
5.79693
5.7082
5.56313
5.35005
5.12728
4.87719
4.62638
4.38989
4.16458
3.94675
3.73829
3.54748
3.37775
3.22594
3.09011
2.97123
2.8638
2.7582
2.64998
2.53648
2.41886
2.32068
2.25119
2.17851
2.10776
2.03818
1.97019
1.90463
1.84506
1.80303
1.76185
1.77395
1.88505
2.2232
2.66114
2.9236
2.97393
2.95902
2.89815
2.82979
2.78965
2.74267
2.74638
2.85033
3.16627
3.59341
3.79437
3.89197
3.90263
3.88003
3.83843
3.74452
3.60125
3.48866
3.42843
3.3882
3.34397
3.29315
3.23924
3.18832
3.13935
3.08784
3.03868
2.98988
2.93133
2.87725
2.8296
2.78619
2.74863
2.71795
2.69006
2.65195
2.58773
2.51746
2.47717
2.45178
2.43015
2.41301
2.39574
2.38437
2.36765
2.35927
2.38943
2.4705
2.64563
1.72202
2.45465
3.03275
3.29159
3.27824
3.29873
3.46311
3.90009
4.91877
6.07238
6.50543
6.40049
6.01961
5.66907
5.4404
5.24509
5.01051
4.74429
4.48965
4.26111
4.04713
3.84214
3.64659
3.46186
3.29079
3.13285
2.99076
2.8672
2.76527
2.68049
2.59619
2.49886
2.38395
2.25793
2.14998
2.07057
2.01576
1.97373
1.93899
1.89773
1.84707
1.78482
1.72621
1.66696
1.70359
1.92383
2.36289
2.68505
2.85978
2.8587
2.83074
2.86359
3.01453
3.22839
3.56829
3.91666
4.09232
4.07842
4.02051
3.91184
3.82878
3.77921
3.71962
3.62569
3.5135
3.43648
3.39268
3.35397
3.31483
3.2716
3.22054
3.16418
3.10957
3.05325
2.98519
2.92164
2.88052
2.84676
2.8121
2.77807
2.74064
2.69357
2.63072
2.56188
2.51363
2.49027
2.47109
2.45037
2.42931
2.40428
2.37775
2.34764
2.31472
2.26772
2.26657
2.37722
1.42359
1.65692
2.20884
2.95558
3.12908
3.63821
4.66153
5.49402
6.42585
6.66026
6.61851
6.45211
6.19367
5.86982
5.58259
5.32797
5.06979
4.79603
4.53504
4.31148
4.11375
3.91614
3.72371
3.53967
3.36524
3.19572
3.03465
2.90465
2.79363
2.69229
2.59841
2.50708
2.40421
2.28391
2.17917
2.09734
2.03652
1.98233
1.93309
1.88228
1.82715
1.76213
1.68825
1.62687
1.57527
1.5844
1.72876
2.08394
2.52743
2.71583
2.88003
3.33441
3.75219
3.94622
4.13754
4.19224
4.17893
4.11745
4.03715
3.94474
3.83986
3.75445
3.69659
3.63888
3.54473
3.45275
3.40667
3.37259
3.33891
3.30064
3.25497
3.20125
3.13054
3.02891
2.95842
2.93408
2.90752
2.87354
2.83728
2.80076
2.7606
2.70456
2.61774
2.5419
2.51702
2.50021
2.48237
2.46343
2.44407
2.42241
2.39695
2.36649
2.31907
2.24066
2.19349
2.22248
1.40051
1.41794
1.5323
2.22422
3.20796
4.60079
5.84919
6.54863
7.029
6.91276
6.63586
6.43
6.26517
6.02147
5.69652
5.35907
5.08394
4.8627
4.64662
4.42113
4.19921
3.97224
3.75571
3.54876
3.34874
3.21343
3.11651
3.00561
2.88729
2.76946
2.66867
2.56238
2.43517
2.28387
2.17735
2.1383
2.09458
2.04167
1.98189
1.91374
1.84081
1.76696
1.6898
1.62134
1.56644
1.5405
1.54796
1.65185
1.99616
2.63949
3.23159
3.90974
4.24271
4.40906
4.42075
4.35627
4.21215
4.08983
4.02436
3.9664
3.87343
3.77286
3.69295
3.61321
3.52318
3.44764
3.39511
3.35037
3.31463
3.28623
3.25916
3.22152
3.14715
3.03351
2.94966
2.91411
2.88884
2.8655
2.84744
2.82271
2.78472
2.71879
2.62101
2.54701
2.52304
2.50591
2.48806
2.46923
2.44921
2.4264
2.39829
2.35975
2.30148
2.21927
2.16871
2.16978
1.40038
1.40893
1.59837
2.12459
3.37149
4.76042
5.63014
6.62526
7.01278
6.79341
6.61089
6.48607
6.35609
6.14428
5.80145
5.42999
5.1033
4.8233
4.57604
4.341
4.1462
4.00425
3.8354
3.62946
3.42306
3.22849
3.05089
2.91969
2.81253
2.70428
2.60995
2.55442
2.47793
2.35066
2.20714
2.08175
2.01622
1.98043
1.93833
1.88565
1.82197
1.77102
1.72541
1.66893
1.60107
1.55278
1.55914
1.63802
1.9233
2.53975
3.34627
3.85343
4.14444
4.45148
4.41317
4.2709
4.1812
4.11214
4.05535
3.99961
3.90225
3.78855
3.68516
3.58942
3.50437
3.45072
3.40511
3.36066
3.32399
3.29521
3.26581
3.2236
3.1474
3.03206
2.94722
2.91406
2.89252
2.87121
2.84395
2.81008
2.76994
2.71125
2.629
2.57242
2.54774
2.52896
2.51072
2.49174
2.47073
2.44543
2.41268
2.36824
2.30435
2.22065
2.16932
2.16976
1.4247
1.58979
2.26426
2.80133
3.27452
3.83897
4.4531
5.56073
6.23255
6.48963
6.56492
6.5042
6.29255
5.97722
5.67653
5.39019
5.09403
4.80251
4.54219
4.31839
4.10997
3.89898
3.70191
3.52055
3.34836
3.18333
3.02707
2.89047
2.78346
2.70314
2.62502
2.5259
2.4122
2.30715
2.19918
2.09179
2.00438
1.95963
1.93318
1.90456
1.84714
1.76566
1.68676
1.64322
1.61088
1.61846
1.75891
2.12145
2.50412
2.67855
2.98467
3.26361
3.59778
3.99043
4.07593
4.11586
4.14836
4.1469
4.08693
4.00283
3.89621
3.78636
3.6806
3.5895
3.51737
3.45468
3.40152
3.3555
3.31826
3.28894
3.2591
3.22114
3.16223
3.06005
2.95476
2.90781
2.88332
2.86133
2.83754
2.80989
2.77627
2.72573
2.64389
2.56055
2.52183
2.50055
2.48076
2.45964
2.43714
2.41175
2.38589
2.3601
2.31605
2.24629
2.19541
2.22189
1.72173
2.3717
3.06505
3.21431
3.28348
3.34016
3.44059
3.87885
4.89672
5.98954
6.5146
6.46637
6.13073
5.75428
5.49778
5.26604
5.00389
4.72595
4.45871
4.21377
3.99126
3.79078
3.62398
3.48308
3.34532
3.19551
3.03745
2.88964
2.76744
2.66352
2.56906
2.46801
2.36738
2.2985
2.23369
2.15048
2.06133
1.97805
1.9074
1.85195
1.80634
1.75235
1.70021
1.66513
1.71197
1.96259
2.39118
2.74905
2.86173
2.84244
2.8326
2.8295
2.92237
3.19903
3.61214
3.91065
4.11855
4.13269
4.07555
3.96242
3.86043
3.76877
3.67289
3.57394
3.49261
3.44163
3.40472
3.36598
3.32293
3.27766
3.23025
3.17675
3.11424
3.04472
2.97186
2.918
2.87954
2.84635
2.81296
2.77717
2.74034
2.70073
2.64595
2.57257
2.52083
2.49264
2.46877
2.44381
2.41982
2.39675
2.37742
2.35311
2.32408
2.27507
2.27091
2.37906
2.55091
3.12234
3.35498
3.34966
3.32882
3.30187
3.27773
3.28575
3.46638
4.22842
5.34794
5.83326
5.77327
5.59789
5.36292
5.10155
4.8382
4.58541
4.34451
4.11367
3.90223
3.72361
3.5727
3.4318
3.28908
3.14395
2.99915
2.86152
2.73293
2.60905
2.49915
2.41912
2.34706
2.25251
2.15586
2.08477
2.02746
1.96484
1.89797
1.83682
1.79614
1.75901
1.77084
1.8889
2.23491
2.68953
2.94455
2.98804
2.95838
2.89411
2.816
2.77339
2.71854
2.72978
2.87966
3.20708
3.61487
3.8472
3.92294
3.91145
3.87184
3.78085
3.65685
3.54616
3.47248
3.43019
3.40032
3.36591
3.32453
3.27328
3.21379
3.14847
3.07997
3.01716
2.96813
2.92491
2.88028
2.83411
2.79243
2.75877
2.72743
2.69086
2.63931
2.5778
2.52197
2.48165
2.45104
2.42638
2.4077
2.39166
2.3835
2.37166
2.36587
2.39424
2.47448
2.64662
3.10664
3.28675
3.38009
3.38298
3.36886
3.32235
3.2745
3.24658
3.18173
3.19393
3.5317
4.39237
5.15625
5.32183
5.19292
4.89246
4.62497
4.4089
4.21556
4.02332
3.83451
3.6589
3.50021
3.35372
3.21214
3.07087
2.93116
2.79553
2.6708
2.56279
2.47083
2.38829
2.3028
2.21484
2.13002
2.06154
2.0029
1.95142
1.90096
1.85891
1.83303
1.88845
2.15378
2.59457
2.99333
3.12016
3.10425
3.03792
2.95617
2.88939
2.82881
2.76764
2.70106
2.65403
2.61823
2.6656
2.89503
3.28807
3.62583
3.83845
3.84272
3.779
3.6451
3.53148
3.46768
3.43367
3.39764
3.35487
3.31052
3.25888
3.19009
3.10651
3.03448
2.9863
2.94898
2.91417
2.87815
2.83659
2.7924
2.7508
2.7096
2.66535
2.61575
2.56661
2.5188
2.47454
2.44138
2.42145
2.41098
2.41038
2.41776
2.46532
2.53235
2.64357
2.75741
2.8376
3.32312
3.328
3.33016
3.32541
3.3101
3.28016
3.24549
3.20117
3.10185
2.9815
2.83939
2.94475
3.53458
4.31714
4.6552
4.61405
4.45173
4.26125
4.074
3.89705
3.72363
3.55227
3.39044
3.2399
3.10043
2.96835
2.84354
2.72484
2.61792
2.51532
2.41726
2.32502
2.24423
2.18029
2.12966
2.08333
2.02174
1.96422
1.90963
1.91278
2.05125
2.48654
2.96595
3.24318
3.27351
3.24205
3.15804
3.06888
2.98444
2.9105
2.84571
2.77669
2.70496
2.63642
2.59251
2.56021
2.57008
2.6965
2.98315
3.34611
3.58503
3.63761
3.61104
3.54452
3.48254
3.43631
3.38002
3.32802
3.28345
3.23396
3.15848
3.06386
2.99884
2.96258
2.93112
2.901
2.87169
2.8364
2.78857
2.73262
2.67929
2.63101
2.58589
2.54365
2.50687
2.47463
2.44541
2.43737
2.43649
2.46666
2.57092
2.70314
2.82781
2.91546
2.93402
2.90168
3.29103
3.31406
3.31845
3.30892
3.29335
3.26679
3.2181
3.12294
2.99473
2.82834
2.66916
2.48015
2.49808
2.80161
3.49898
4.12744
4.24723
4.13162
3.92643
3.72688
3.55289
3.402
3.26227
3.12567
2.9936
2.86676
2.74706
2.63474
2.53866
2.44994
2.37143
2.30102
2.24435
2.17993
2.11663
2.0544
2.02511
1.98164
2.02417
2.31847
2.85146
3.31542
3.42266
3.40924
3.33309
3.22934
3.14049
3.06831
3.00181
2.93042
2.85949
2.7856
2.71356
2.6441
2.59272
2.55026
2.52852
2.5094
2.55027
2.72638
3.04435
3.35762
3.52761
3.54129
3.51029
3.43075
3.35501
3.30393
3.2579
3.20479
3.13283
3.04791
2.98392
2.94671
2.91799
2.88959
2.85978
2.82218
2.77177
2.7077
2.64656
2.59903
2.56204
2.53107
2.50742
2.48516
2.46579
2.47971
2.54552