/*--------------------------------*- C++ -*----------------------------------*\
  =========                 |
  \\      /  F ield         | OpenFOAM: The Open Source CFD Toolbox
   \\    /   O peration     | Website:  https://openfoam.org
    \\  /    A nd           | Version:  7
     \\/     M anipulation  |
\*---------------------------------------------------------------------------*/
FoamFile
{
    version     2.0;
    format      ascii;
    class       volScalarField;
    location    "2.1";
    object      T;
}
// * * * * * * * * * * * * * * * * * * * * * * * * * * * * * * * * * * * * * //

dimensions      [0 0 0 1 0 0 0];

internalField   nonuniform List<scalar> 
4608
(
1
1
1
1
1
1
1
1
1
1
1
1
1
1
1
1
1
1
1
1
1
1
1
1
1
1
1
1
1
1
1
1
1
1
1
1
1
1
1
1
1
1
1
1
1
1
1
1
1
1
1
1
1
1
1
1
1
1
1
1
1
1
1
1
1
1
1
1
1
1
1
1
1
1
1
1
1
1
1
1
1
1
1
1
1
1
1
1
1
1
1
1
1
1
1
1
1
1
1
1
1
1
1
1
1
1
1
1
1
1
1
1
1
1
1
1
1
1
1
1
1
1
1
1
1
1
1
1
1
1
1
1
1
1
1
1
1
1
1
1
1
1
1
1
1
1
1
1
1
1
1
1
1
1
1
1
1
1
1
1
1
1
1
1
1
1
1
1
1
1
1
1
1
1
1
1
1
1
1
1
1
1
1
1
1
1
1
1
1
1
1
1
1
1
1
1
1
1
1
1
1
1
1
1
1
1
1
1
1
1
1
1
1
1
1
1
1
1
1
1
1
1
1
1
1
1
1
1
1
1
1
1
1
1
1
1
1
1
1
1
1
1
1
1
1
1
1
1
1
1
1
1
1
1
1
1
1
1
1
1
1
1
1
1
1
1
1
1
1
1
1
1
1
1
1
1
1
1
1
1
1
1
1
1
1
1
1
1
1
1
1
1
1
1
1
1
1
1
1
1
1
1
1
1
1
1
1
1
1
1
1
1
1
1
1
1
1
1
1
1
1
1
1
1
1
1
1
1
1
1
1
1
1
1
1
1
1
1
1
1
1
1
1
1
1
1
1
1
1
1
1
1
1
1
1
1
1
1
1
1
1
1
1
1
1
1
1
1
1
1
1
1
1
1
1
1
1
1
1
1
1
1
1
1
1
1
1
1
1
1
1
1
1
1
1
1
1
1
1
1
1
1
1
1
1
1
1
1
1
1
1
1
1
1
1
1
1
1
1
1
1
1
1
1
1
1
1
1
1
1
1
1
1
1
1
1
1
1
1
1
1
1
1
1
1
1
1
1
1
1
1
1
1
1
1
1
1
1
1
1
1
1
1
1
1
1
1
1
1
1
1
1
1
1
1
1
1
1
1
1
1
1
1
1
1
1
1
1
1
1
1
1
1
1
1
1
1
1
1
1
1
1
1
1
1
1
1
1
1
1
1
1
1
1
1
1
1
1
1
1
1
1
1
1
1
1
1
1
1
1
1
1
1
1
1
1
1
1
1
1
1
1
1
1
1
1
1
1
1
1
1
1
1
1
1
1
1
1
1
1
1
1
1
1
1
1
1
1
1
1
1
1
1
1
1
1
1
1
1
1
1
1
1
1
1
1
1
1
1
1
1
1
1
1
1
1
1
1
1
1
1
1
1
1
1
1
1
1
1
1
1
1
1
1
1
1
1
1
1
1
1
1
1
1
1
1
1
1
1
1
1
1
1
1
1
1
1
1
1
1
1
1
1
1
1
1
1
1
1
1
1
1
1
1
1
1
1
1
1
1
1
1
1
1
1
1
1
1
1
1
1
1
1
1
1
1
1
1
1
1
1
1
1
1
1
1
1
1
1
1
1
1
1
1
1
1
1
1
1
1
1
1
1
1
1
1
1
1
1
1
1
1
1
1
1
1
1
1
1
1
1
1
1
1
1
1
1
1
1
1
1
1
1
1
1
1
1
1
1
1
1
1
1
1
1
1
1
1
1
1
1
1
1
1
1
1
1
1
1
1
1
1
1
1
1
1
1
1
1.07806
1.18298
1.28858
1.38895
1.48796
1.56963
1.6375
1.68469
1.6981
1.68121
1.63767
1.58571
1.53988
1.52601
1.51511
1.51545
1.51892
1.52344
1.5282
1.53328
1.53651
1.53777
1.53797
1.53938
1.00097
1.00569
1.02941
1.07309
1.14426
1.23261
1.32183
1.40915
1.47894
1.51789
1.54899
1.56412
1.5578
1.55307
1.54521
1.53742
1.53322
1.53016
1.53088
1.53395
1.53777
1.53954
1.54009
1.54119
1
0.999983
1.00006
1.00011
1.0012
1.00849
1.03649
1.11806
1.26726
1.45356
1.56641
1.62287
1.6221
1.61097
1.5923
1.5671
1.54818
1.5366
1.53586
1.53863
1.54309
1.5466
1.54742
1.54846
1
0.999999
0.999999
0.999999
0.999996
1.00001
0.999966
1.00068
1.01226
1.10806
1.30543
1.50613
1.61152
1.60473
1.60157
1.59926
1.58536
1.56314
1.55515
1.55553
1.5563
1.55779
1.55975
1.56157
1
1
1
1
1
1
0.999996
0.999997
0.999964
1.00044
1.01693
1.12316
1.35802
1.51538
1.62417
1.62878
1.62242
1.60535
1.59144
1.58029
1.57447
1.57133
1.57114
1.57297
1
1
1
1
1
1
1
1
0.999997
0.999997
0.999965
1.00088
1.03092
1.17293
1.40339
1.54178
1.60713
1.61338
1.60725
1.59976
1.59121
1.58386
1.57739
1.57795
1
1
1
1
1
1
1
1
1
1
0.999998
0.999993
1.00001
1.00326
1.05565
1.24668
1.47622
1.57197
1.59236
1.59637
1.59605
1.58976
1.58255
1.57931
1
1
1
1
1
1
1
1
1
1
1
0.999999
0.999999
0.999989
1.00031
1.01368
1.12111
1.34543
1.52144
1.59053
1.59773
1.5943
1.58661
1.58244
1
1
1
1
1
1
1
1
1
1
1
1
1
0.999998
0.999999
0.999996
1.00232
1.05263
1.22379
1.43246
1.55198
1.58742
1.58823
1.58482
1
1
1
1
1
1
1
1
1
1
1
1
1
1
1
1
0.999993
1.00051
1.01356
1.13688
1.35438
1.52358
1.55239
1.56904
1
1
1
1
1
1
1
1
1
1
1
1
1
1
1
1
0.999999
0.999997
1.00003
1.00576
1.06598
1.28208
1.46213
1.5535
1
1
1
1
1
1
1
1
1
1
1
1
1
1
1
1
1
1
0.999999
1.00001
1.00144
1.03939
1.21186
1.42188
1
1
1
1
1
1
1
1
1
1
1
1
1
1
1
1
1
1
1
1
0.999999
1.00067
1.02307
1.14694
1
1
1
1
1
1
1
1
1
1
1
1
1
1
1
1
1
1
1
1
1
0.999999
1.00037
1.00864
1
1
1
1
1
1
1
1
1
1
1
1
1
1
1
1
1
1
1
1
1
1
1
1.00001
1
1
1
1
1
1
1
1
1
1
1
1
1
1
1
1
1
1
1
1
1
1
1
0.999999
1
1
1
1
1
1
1
1
1
1
1
1
1
1
1
1
1
1
1
1
1
1
1
0.999999
1
1
1
1
1
1
1
1
1
1
1
1
1
1
1
1
1
1
1
1
1
1
1
0.999991
1
1
1
1
1
1
1
1
1
1
1
1
1
1
1
1
1
1
1
1
1
0.999999
1.0003
1.01028
1
1
1
1
1
1
1
1
1
1
1
1
1
1
1
1
1
1
1
1
0.999999
1.00081
1.02174
1.16175
1
1
1
1
1
1
1
1
1
1
1
1
1
1
1
1
1
1
0.999999
1.00001
1.00141
1.03926
1.22177
1.42379
1
1
1
1
1
1
1
1
1
1
1
1
1
1
1
1
0.999999
0.999997
1.00003
1.00587
1.06496
1.27885
1.47778
1.54944
1
1
1
1
1
1
1
1
1
1
1
1
1
1
1
1
0.999992
1.00051
1.0136
1.13833
1.3503
1.52718
1.55402
1.56804
1
1
1
1
1
1
1
1
1
1
1
1
1
0.999998
0.999999
0.999995
1.00233
1.05232
1.22479
1.43173
1.55029
1.58947
1.58892
1.5842
1
1
1
1
1
1
1
1
1
1
1
0.999999
0.999999
0.999989
1.00031
1.01373
1.12097
1.34475
1.52285
1.58962
1.59757
1.59448
1.58719
1.58249
1
1
1
1
1
1
1
1
1
1
0.999998
0.999993
1.00001
1.00327
1.05561
1.24697
1.47565
1.57222
1.59262
1.59628
1.59588
1.58987
1.58285
1.57943
1
1
1
1
1
1
1
1
0.999997
0.999997
0.999965
1.00088
1.03092
1.17291
1.40351
1.54181
1.60686
1.61347
1.60742
1.5997
1.59104
1.58375
1.5775
1.57806
1
1
1
1
1
1
0.999996
0.999997
0.999964
1.00044
1.01693
1.12317
1.35803
1.51534
1.62424
1.62877
1.62242
1.60534
1.59148
1.58025
1.57443
1.57145
1.57113
1.57297
1
0.999999
0.999999
0.999999
0.999996
1.00001
0.999966
1.00068
1.01226
1.10806
1.30543
1.50615
1.6115
1.60473
1.60159
1.59928
1.58535
1.56311
1.55515
1.55551
1.55632
1.55785
1.55976
1.56151
1
0.999983
1.00006
1.00011
1.0012
1.00849
1.03649
1.11806
1.26727
1.45355
1.56641
1.62287
1.6221
1.61097
1.5923
1.56711
1.54817
1.5366
1.53589
1.53862
1.54308
1.54664
1.54742
1.54844
1.00097
1.00569
1.02941
1.07309
1.14426
1.23261
1.32183
1.40915
1.47895
1.51788
1.54899
1.56413
1.5578
1.55307
1.54522
1.53742
1.53322
1.53016
1.53088
1.53395
1.53777
1.53955
1.5401
1.54119
1.07806
1.18298
1.28858
1.38895
1.48797
1.56963
1.63749
1.68469
1.6981
1.68121
1.63767
1.58571
1.53988
1.526
1.51511
1.51545
1.51892
1.52345
1.52821
1.53327
1.53651
1.53777
1.53797
1.53938
1.39757
1.23193
1.11098
1.04234
0.981111
0.963266
0.980725
1.03414
1.05601
1.05734
1.0678
1.08284
1.09061
1.09867
1.11236
1.11273
1.11232
1.10967
1.10689
1.10837
1.11002
1.11048
1.11152
1.1286
1.24991
1.52152
1.75872
1.97321
2.13858
2.18958
2.14134
2.05621
1.99836
1.96846
1.95197
1.93355
1.91044
1.88769
1.86749
1.84877
1.83083
1.81305
1.7952
1.77703
1.7582
1.73793
1.71543
1.69294
1.67307
1.65737
1.64536
1.63512
1.62525
1.61491
1.60354
1.59011
1.57371
1.55509
1.53669
1.52113
1.50892
1.49912
1.49081
1.48382
1.47754
1.47066
1.46178
1.44867
1.42393
1.39907
1.39681
1.40457
1.44212
1.53426
1.65724
1.75729
1.82588
1.85902
1.8737
1.85242
1.82076
1.80876
1.80417
1.79961
1.79361
1.78569
1.77118
1.74313
1.71759
1.71005
1.7056
1.7031
1.70004
1.69552
1.69128
1.6802
1.4961
1.41232
1.31829
1.25692
1.19339
1.10675
1.08563
1.08887
1.07272
1.05512
1.05015
1.05085
1.05453
1.0594
1.06947
1.0752
1.07939
1.08221
1.08374
1.08956
1.09175
1.09542
1.12328
1.25882
1.47327
1.5573
1.62636
1.71953
1.86939
1.97511
2.03902
2.03364
2.00926
1.98429
1.96043
1.9354
1.91342
1.89537
1.87527
1.85518
1.83697
1.81953
1.80195
1.78387
1.76445
1.74315
1.72105
1.70122
1.68397
1.66743
1.65409
1.64338
1.63318
1.62272
1.61164
1.59888
1.58345
1.56561
1.54724
1.53149
1.51899
1.50864
1.49936
1.49104
1.48365
1.47595
1.46737
1.45505
1.4341
1.4207
1.43008
1.4696
1.5364
1.60591
1.64564
1.69558
1.75444
1.78462
1.79517
1.79989
1.80504
1.80795
1.80854
1.8056
1.79792
1.78804
1.77339
1.75026
1.72433
1.71448
1.70997
1.70584
1.70266
1.69884
1.69425
1.6828
1.53293
1.49291
1.42511
1.35097
1.29288
1.22557
1.15391
1.11919
1.09503
1.06585
1.03985
1.03818
1.04062
1.04096
1.04243
1.04564
1.04937
1.05534
1.06021
1.06674
1.07667
1.11926
1.28991
1.46471
1.57778
1.58961
1.58635
1.58932
1.62712
1.76325
1.92804
2.01821
2.02876
2.01124
1.97233
1.93925
1.91406
1.88945
1.86365
1.83974
1.82112
1.80651
1.79197
1.77617
1.75833
1.73986
1.7226
1.70396
1.68172
1.65947
1.64252
1.63158
1.62253
1.61299
1.60249
1.59076
1.57679
1.56004
1.5415
1.52477
1.51135
1.49962
1.4889
1.47924
1.47023
1.46312
1.45773
1.45108
1.44755
1.46322
1.51403
1.57545
1.62918
1.64896
1.6494
1.65007
1.66484
1.6915
1.72375
1.76699
1.79312
1.80224
1.80939
1.80959
1.80175
1.78895
1.77546
1.75976
1.7392
1.71901
1.70491
1.69863
1.69475
1.69212
1.68872
1.67821
1.55402
1.53426
1.49464
1.43117
1.37328
1.3255
1.25339
1.18732
1.16653
1.14548
1.1011
1.07447
1.06969
1.06223
1.04516
1.04421
1.04388
1.04417
1.04544
1.05102
1.10106
1.30003
1.48701
1.56537
1.5873
1.5836
1.57011
1.55479
1.54274
1.55742
1.65254
1.83927
1.97376
1.98406
1.97577
1.95364
1.92462
1.89172
1.8613
1.83618
1.81778
1.80406
1.79072
1.77657
1.76248
1.74791
1.73198
1.71144
1.68746
1.66265
1.64208
1.62899
1.62019
1.61185
1.60194
1.5902
1.57695
1.56128
1.543
1.52465
1.51071
1.49835
1.48732
1.47774
1.46873
1.46449
1.4625
1.4718
1.51019
1.5718
1.62689
1.65883
1.66979
1.66712
1.65465
1.64301
1.63689
1.63877
1.65141
1.68647
1.7307
1.76595
1.78248
1.79233
1.79199
1.78939
1.78291
1.77106
1.75254
1.73095
1.71045
1.7003
1.6952
1.69047
1.68706
1.67749
1.56906
1.56028
1.53856
1.49901
1.44177
1.39581
1.34916
1.27736
1.21956
1.20333
1.18067
1.14019
1.1034
1.08303
1.0631
1.05336
1.05024
1.04817
1.05706
1.13213
1.3265
1.51587
1.57402
1.57858
1.57522
1.56142
1.54443
1.53199
1.5223
1.50629
1.50729
1.56107
1.73048
1.88367
1.96142
1.96056
1.93661
1.89582
1.86059
1.83516
1.81859
1.80338
1.78624
1.76876
1.75248
1.73776
1.724
1.71265
1.6977
1.67571
1.65031
1.62733
1.61416
1.60735
1.60161
1.59428
1.58376
1.57035
1.55199
1.52761
1.50875
1.49771
1.4879
1.47907
1.47452
1.47744
1.49687
1.5551
1.62375
1.66844
1.68614
1.68581
1.68019
1.66908
1.65546
1.64351
1.63163
1.62475
1.62095
1.62629
1.64645
1.68306
1.73039
1.76484
1.78019
1.78375
1.77843
1.76897
1.75873
1.74325
1.72463
1.70888
1.69896
1.689
1.68255
1.67142
1.57709
1.57418
1.56682
1.54529
1.50644
1.45485
1.41457
1.36833
1.30471
1.25813
1.23509
1.20869
1.17785
1.14267
1.10395
1.08804
1.08675
1.09947
1.19179
1.38409
1.54949
1.60119
1.59544
1.57761
1.56048
1.54375
1.52864
1.51641
1.50317
1.48527
1.46936
1.45852
1.48365
1.59848
1.7798
1.90026
1.90739
1.89836
1.87091
1.84347
1.81947
1.79739
1.77864
1.76375
1.75065
1.73783
1.72447
1.7089
1.69072
1.67022
1.64694
1.62638
1.6133
1.60313
1.59254
1.5822
1.57156
1.55911
1.54518
1.53018
1.51136
1.4943
1.48937
1.48817
1.4996
1.54246
1.61053
1.67956
1.70126
1.70986
1.70735
1.69833
1.68682
1.673
1.65986
1.64726
1.63357
1.62281
1.61479
1.61111
1.60849
1.61675
1.64548
1.69118
1.73106
1.75631
1.75836
1.75706
1.75216
1.74508
1.73491
1.72009
1.7045
1.68936
1.6806
1.67042
1.57948
1.57882
1.57665
1.57054
1.55022
1.5136
1.47006
1.42763
1.377
1.33488
1.29845
1.25516
1.2238
1.20227
1.1761
1.14134
1.15369
1.26913
1.47771
1.60858
1.63867
1.62359
1.59633
1.57212
1.55529
1.53912
1.52353
1.50953
1.49213
1.47199
1.45289
1.43766
1.4205
1.42329
1.48759
1.64435
1.79376
1.86765
1.8638
1.84754
1.81939
1.79357
1.77285
1.75636
1.74378
1.73282
1.72034
1.70576
1.68929
1.66967
1.64679
1.6253
1.61009
1.59898
1.58854
1.57861
1.56805
1.55655
1.54243
1.52336
1.50793
1.49725
1.49998
1.52922
1.59961
1.67224
1.72228
1.73239
1.72812
1.72292
1.71389
1.70165
1.68805
1.67337
1.65828
1.64489
1.63483
1.62468
1.61564
1.60868
1.60364
1.59788
1.59878
1.61213
1.6438
1.68821
1.72207
1.73639
1.74195
1.74057
1.73391
1.7232
1.71009
1.69652
1.68382
1.66667
1.58175
1.58155
1.58073
1.57776
1.57033
1.55065
1.51872
1.48373
1.43495
1.38701
1.35636
1.32588
1.27471
1.24545
1.22967
1.25824
1.3964
1.58999
1.69413
1.69018
1.66913
1.63931
1.60864
1.58399
1.56384
1.54469
1.52462
1.5073
1.48746
1.46786
1.44655
1.42791
1.41002
1.39221
1.38028
1.40198
1.51157
1.6811
1.79489
1.82269
1.81689
1.79721
1.77467
1.75414
1.73602
1.72086
1.70817
1.69513
1.68066
1.66384
1.64414
1.62301
1.60585
1.5939
1.58362
1.57426
1.56488
1.55387
1.54063
1.52719
1.51318
1.52089
1.56741
1.65357
1.72311
1.75813
1.76102
1.75619
1.74358
1.73072
1.71803
1.70441
1.68906
1.67237
1.65714
1.64376
1.63455
1.62871
1.62371
1.61604
1.6068
1.59415
1.58787
1.58065
1.58367
1.59858
1.63751
1.67716
1.70609
1.72115
1.72348
1.72103
1.71492
1.70361
1.68632
1.663
1.5854
1.58621
1.58602
1.58449
1.58078
1.57121
1.55154
1.52212
1.48905
1.44398
1.39972
1.36932
1.33215
1.31578
1.37158
1.54503
1.71395
1.76564
1.75342
1.7206
1.68555
1.65491
1.6266
1.60023
1.57554
1.552
1.5302
1.51076
1.4899
1.46827
1.44484
1.42281
1.40338
1.38417
1.3675
1.35314
1.35695
1.4153
1.55655
1.70518
1.77334
1.78121
1.7739
1.75058
1.72727
1.70837
1.69405
1.68099
1.66705
1.65222
1.63736
1.62032
1.60027
1.58503
1.57691
1.56996
1.56102
1.55196
1.54177
1.5394
1.56012
1.62103
1.70287
1.76731
1.77119
1.77049
1.76418
1.75236
1.74128
1.72991
1.7173
1.70305
1.68689
1.66969
1.65425
1.64357
1.63583
1.62709
1.6174
1.60725
1.59734
1.58716
1.57761
1.57054
1.56513
1.55748
1.56363
1.58919
1.63056
1.67005
1.69772
1.70817
1.70779
1.70164
1.68657
1.65999
1.57756
1.5821
1.58194
1.58132
1.57952
1.57597
1.56799
1.55012
1.52303
1.48648
1.45072
1.40749
1.41653
1.51695
1.69762
1.8362
1.8454
1.82377
1.78516
1.74492
1.70683
1.67257
1.64182
1.61415
1.5886
1.56338
1.53927
1.51546
1.49099
1.46523
1.44061
1.41706
1.39701
1.37782
1.36149
1.34661
1.33552
1.32557
1.34471
1.44589
1.59724
1.70024
1.7348
1.73244
1.71893
1.69839
1.6815
1.66828
1.65512
1.64173
1.62887
1.61394
1.59525
1.57891
1.56743
1.55911
1.55517
1.55336
1.56723
1.61854
1.69933
1.76403
1.79969
1.79716
1.78496
1.76683
1.75371
1.74371
1.73449
1.72469
1.71337
1.6997
1.68327
1.66644
1.65301
1.64324
1.63401
1.62357
1.61242
1.60109
1.59116
1.58265
1.57332
1.56371
1.55493
1.54743
1.53732
1.53802
1.55295
1.58942
1.63437
1.66676
1.68004
1.67942
1.67147
1.65237
1.58018
1.5791
1.57614
1.57486
1.57397
1.57349
1.57165
1.56342
1.54265
1.51683
1.49138
1.52858
1.68692
1.85219
1.91981
1.9111
1.87677
1.83869
1.80293
1.76652
1.7278
1.68853
1.65247
1.62138
1.59435
1.5693
1.54611
1.5229
1.49846
1.47276
1.44794
1.42199
1.39604
1.3717
1.35439
1.34133
1.32545
1.31115
1.30123
1.30556
1.36055
1.48618
1.61719
1.67516
1.68873
1.68388
1.66997
1.65439
1.63948
1.6283
1.61839
1.60655
1.59141
1.57312
1.55851
1.55232
1.5568
1.59688
1.67306
1.76114
1.81024
1.81441
1.80788
1.78996
1.7714
1.75858
1.74731
1.73722
1.72716
1.71719
1.70609
1.69303
1.67807
1.66344
1.65118
1.64043
1.62998
1.61919
1.608
1.59691
1.58678
1.57782
1.56983
1.56206
1.55249
1.54022
1.52831
1.52385
1.52219
1.52814
1.55438
1.59007
1.62525
1.64592
1.64819
1.64021
1.541
1.55834
1.56799
1.57544
1.57616
1.57382
1.57027
1.56602
1.555
1.56159
1.66124
1.84094
1.9796
2.00561
1.98552
1.93849
1.8917
1.85193
1.81561
1.77828
1.73905
1.69982
1.66404
1.63281
1.60453
1.57708
1.54983
1.52301
1.49756
1.47424
1.45287
1.4306
1.40467
1.37779
1.35664
1.34005
1.32183
1.30465
1.29115
1.2835
1.27891
1.29815
1.38616
1.51654
1.60945
1.63787
1.6435
1.63416
1.62108
1.6101
1.5994
1.59043
1.58104
1.56609
1.55778
1.57031
1.62986
1.7252
1.79429
1.83785
1.84184
1.83446
1.81155
1.78036
1.76041
1.74897
1.7394
1.72928
1.71843
1.70809
1.69781
1.68618
1.67305
1.65961
1.64617
1.63425
1.62323
1.61263
1.60279
1.59392
1.58542
1.57663
1.56699
1.55482
1.53948
1.5267
1.51971
1.51551
1.51212
1.51092
1.51165
1.52251
1.54202
1.57116
1.59772
1.61604
1.38715
1.52612
1.55013
1.5642
1.56442
1.56431
1.56474
1.57042
1.61289
1.78053
1.99236
2.05448
2.04015
2.01619
1.98152
1.9464
1.90734
1.8674
1.82828
1.7882
1.74681
1.70627
1.66964
1.63782
1.60921
1.582
1.55576
1.53033
1.50496
1.47919
1.4533
1.42718
1.40463
1.38758
1.36839
1.34905
1.32967
1.3107
1.29366
1.27896
1.26909
1.25846
1.26287
1.30356
1.41147
1.52766
1.59302
1.61511
1.61367
1.60189
1.58671
1.57885
1.57295
1.57752
1.60802
1.68294
1.77435
1.81662
1.83213
1.83298
1.82923
1.82163
1.8036
1.77677
1.75458
1.74082
1.73109
1.72152
1.71165
1.70157
1.69161
1.6809
1.66831
1.65513
1.64131
1.62668
1.61526
1.60609
1.59802
1.59111
1.58495
1.57827
1.56815
1.55085
1.53251
1.52218
1.51558
1.51026
1.50662
1.50283
1.49966
1.49501
1.49255
1.50018
1.52029
1.56426
1.12009
1.35186
1.4873
1.54748
1.54977
1.55762
1.5996
1.69515
1.87876
2.05999
2.13297
2.1205
2.06979
2.01634
1.97881
1.9478
1.91261
1.87293
1.83323
1.7944
1.75505
1.7161
1.67895
1.64406
1.61218
1.58277
1.55465
1.52752
1.50336
1.48318
1.46396
1.44251
1.41661
1.38674
1.35896
1.33731
1.32194
1.31043
1.30194
1.29269
1.28066
1.26459
1.24712
1.22859
1.24283
1.31998
1.45008
1.53735
1.58315
1.58371
1.57805
1.58867
1.63141
1.68467
1.75473
1.81959
1.85372
1.85647
1.84676
1.82714
1.80973
1.79815
1.78678
1.77009
1.74911
1.73355
1.72416
1.7162
1.70897
1.7015
1.69209
1.68008
1.66664
1.65167
1.63402
1.61843
1.60964
1.60385
1.59859
1.5932
1.58619
1.57529
1.55864
1.54007
1.52793
1.52198
1.51707
1.51206
1.50701
1.50103
1.49473
1.48736
1.47898
1.4657
1.46481
1.49434
1.0083
1.09707
1.28016
1.47275
1.50734
1.61208
1.82871
1.97522
2.08739
2.12479
2.12501
2.11074
2.0794
2.03194
1.98693
1.94823
1.91057
1.87109
1.83145
1.79476
1.76004
1.7241
1.68855
1.65431
1.62171
1.58961
1.55832
1.53151
1.50728
1.48478
1.46378
1.44346
1.42057
1.39206
1.36465
1.34291
1.32729
1.31399
1.30195
1.28925
1.27481
1.25687
1.23532
1.21507
1.19933
1.20379
1.2573
1.37419
1.49845
1.54529
1.58437
1.68794
1.78618
1.82965
1.85335
1.86084
1.85962
1.8523
1.84169
1.82766
1.80752
1.78905
1.7767
1.7656
1.7482
1.7309
1.72228
1.71569
1.70925
1.70236
1.69403
1.68316
1.66718
1.64283
1.62524
1.61887
1.61251
1.60597
1.60038
1.59486
1.58756
1.57485
1.5531
1.53325
1.52623
1.52174
1.51751
1.51329
1.50884
1.50399
1.49844
1.49138
1.4792
1.45845
1.44416
1.45075
1.00015
1.00614
1.05382
1.274
1.52284
1.78231
2.01248
2.1182
2.17027
2.15515
2.12334
2.10018
2.0787
2.04469
1.99779
1.94814
1.90805
1.87669
1.84498
1.80919
1.7715
1.73131
1.69229
1.65481
1.61733
1.59118
1.57299
1.55151
1.52747
1.50256
1.48042
1.4569
1.42834
1.39153
1.3631
1.35339
1.34315
1.33088
1.31643
1.29896
1.27907
1.25828
1.23592
1.21478
1.19625
1.1892
1.19243
1.23007
1.34399
1.52546
1.66284
1.80097
1.87825
1.91186
1.90782
1.89169
1.86532
1.84451
1.83525
1.827
1.81105
1.79177
1.77487
1.75799
1.74055
1.72692
1.71769
1.70943
1.70259
1.69734
1.69236
1.6851
1.66924
1.64322
1.62257
1.61338
1.60741
1.60328
1.60135
1.59838
1.59186
1.57712
1.55248
1.53257
1.52551
1.521
1.51701
1.51334
1.50966
1.50521
1.499
1.48955
1.47426
1.45193
1.4386
1.43559
1.00011
1.00308
1.06952
1.25011
1.56109
1.83342
1.96457
2.10545
2.17528
2.14706
2.12106
2.10439
2.08647
2.05875
2.01266
1.95959
1.91207
1.87074
1.83321
1.79532
1.76168
1.73618
1.70601
1.66958
1.63199
1.59483
1.56003
1.53343
1.51126
1.48825
1.46761
1.45581
1.43913
1.40827
1.37067
1.33811
1.3218
1.31356
1.30392
1.29111
1.27407
1.26008
1.24729
1.23034
1.20806
1.19297
1.19579
1.22588
1.32807
1.50319
1.69583
1.79851
1.85128
1.91064
1.90696
1.88215
1.86274
1.84798
1.83853
1.83158
1.81706
1.79679
1.77532
1.75383
1.73578
1.72649
1.7191
1.71142
1.70458
1.69903
1.69341
1.68509
1.66891
1.64284
1.62244
1.61362
1.60831
1.60456
1.60076
1.59588
1.5887
1.57514
1.5537
1.53792
1.53061
1.52555
1.52147
1.5181
1.51467
1.51
1.50282
1.49188
1.47511
1.4524
1.43914
1.4357
1.00865
1.07034
1.29265
1.4424
1.53996
1.66576
1.77159
1.9516
2.07529
2.11396
2.1188
2.1108
2.08239
2.04124
2.00081
1.95982
1.91548
1.87048
1.82922
1.7928
1.75736
1.72031
1.68461
1.6511
1.61884
1.58709
1.55606
1.52779
1.50532
1.48844
1.47161
1.4495
1.42293
1.39667
1.36863
1.34083
1.31827
1.30747
1.30208
1.29618
1.28136
1.25827
1.23517
1.22151
1.21077
1.21444
1.26687
1.38335
1.49135
1.53395
1.61076
1.6772
1.74302
1.82112
1.84737
1.85594
1.85769
1.85715
1.84723
1.83448
1.81969
1.80117
1.77833
1.75632
1.73992
1.72783
1.71898
1.71165
1.70545
1.69977
1.6931
1.68466
1.6721
1.64983
1.62534
1.61375
1.60796
1.60372
1.60009
1.59625
1.59067
1.57942
1.55841
1.53604
1.52531
1.51987
1.51558
1.5116
1.50746
1.50237
1.49658
1.49019
1.47861
1.46017
1.4452
1.45113
1.12112
1.31711
1.49942
1.53972
1.54987
1.56367
1.58798
1.68236
1.88209
2.06158
2.13098
2.12253
2.07667
2.02542
1.98885
1.95351
1.91123
1.86547
1.82128
1.78084
1.74366
1.70878
1.67767
1.64954
1.62143
1.59151
1.55983
1.52953
1.50372
1.48126
1.46038
1.43701
1.41217
1.39433
1.37773
1.35686
1.33468
1.31386
1.29613
1.282
1.26957
1.2539
1.23758
1.22798
1.2455
1.33109
1.45717
1.55008
1.58108
1.57806
1.57701
1.58124
1.60817
1.67438
1.76695
1.82737
1.86125
1.86434
1.85454
1.83475
1.81912
1.80309
1.78191
1.75893
1.74102
1.73077
1.72448
1.71837
1.71096
1.70172
1.69102
1.6791
1.66557
1.65025
1.63305
1.61992
1.61112
1.60413
1.59764
1.59134
1.58489
1.5764
1.56202
1.54172
1.52782
1.52096
1.51581
1.51075
1.50599
1.50093
1.49592
1.48923
1.4815
1.46802
1.46627
1.49545
1.36479
1.50256
1.56938
1.57271
1.57051
1.56611
1.56363
1.56719
1.61261
1.78193
1.98565
2.056
2.04694
2.02119
1.98575
1.94448
1.90017
1.85611
1.81461
1.77555
1.73928
1.70674
1.67671
1.6467
1.61591
1.58572
1.55624
1.52821
1.5012
1.47377
1.4479
1.42774
1.40883
1.38469
1.36064
1.3428
1.32853
1.31316
1.29615
1.27922
1.26727
1.25601
1.26042
1.30352
1.41438
1.53718
1.59811
1.61594
1.61129
1.59943
1.58406
1.57687
1.56889
1.57411
1.6159
1.69464
1.77958
1.82334
1.83839
1.83707
1.83134
1.81524
1.78868
1.76404
1.74781
1.73924
1.73385
1.72735
1.71882
1.70795
1.69567
1.68197
1.66666
1.65184
1.63968
1.62825
1.61695
1.60658
1.59852
1.59256
1.58664
1.57835
1.56489
1.54785
1.53258
1.52235
1.5153
1.51002
1.50614
1.50254
1.49992
1.49617
1.49446
1.50177
1.52192
1.56528
1.50703
1.55431
1.58008
1.58422
1.58291
1.57684
1.56997
1.56665
1.556
1.56118
1.65301
1.83933
1.98158
2.00438
1.98255
1.9327
1.88504
1.84484
1.80918
1.77446
1.7398
1.70591
1.67337
1.64164
1.61054
1.5801
1.55062
1.52198
1.4947
1.46951
1.44617
1.42439
1.40227
1.38059
1.36033
1.34296
1.32687
1.31296
1.29942
1.28727
1.27964
1.2989
1.38844
1.51398
1.61319
1.64536
1.64717
1.63748
1.6229
1.60984
1.59835
1.58705
1.57563
1.56509
1.56048
1.57429
1.63289
1.72481
1.80024
1.84188
1.84137
1.8272
1.79888
1.7742
1.76004
1.753
1.74556
1.73596
1.72579
1.71494
1.70129
1.68379
1.66707
1.65502
1.64498
1.63516
1.62521
1.61517
1.60602
1.59785
1.58893
1.57821
1.56522
1.55173
1.53851
1.52669
1.51845
1.51388
1.51147
1.51093
1.51276
1.52488
1.54231
1.57035
1.59682
1.61551
1.57104
1.57723
1.57783
1.57819
1.57783
1.57473
1.56996
1.56275
1.54361
1.51858
1.49065
1.52465
1.68227
1.85036
1.91166
1.90352
1.87333
1.83687
1.80071
1.76653
1.73257
1.69795
1.66382
1.63082
1.59963
1.57015
1.5424
1.51558
1.49032
1.46484
1.4392
1.41503
1.39428
1.37763
1.36467
1.35322
1.33644
1.32035
1.30464
1.30632
1.35496
1.48634
1.61327
1.67463
1.69149
1.6873
1.67318
1.65691
1.64044
1.62555
1.61323
1.60062
1.58714
1.57259
1.56226
1.55514
1.55874
1.59374
1.66874
1.75444
1.80387
1.80883
1.80332
1.78974
1.77628
1.76572
1.75311
1.74115
1.73077
1.72005
1.70447
1.68434
1.66926
1.65984
1.651
1.64231
1.63433
1.62583
1.61505
1.60245
1.5901
1.57834
1.56651
1.55477
1.54417
1.53491
1.52697
1.52463
1.52394
1.53153
1.55793
1.59152
1.62208
1.64291
1.64711
1.64064
1.5751
1.5813
1.58252
1.58159
1.57963
1.57531
1.56682
1.54879
1.52282
1.48731
1.45116
1.40707
1.41497
1.51305
1.68894
1.83348
1.8499
1.82702
1.78683
1.7469
1.71129
1.67959
1.64942
1.61913
1.58914
1.55979
1.53153
1.50413
1.47963
1.45681
1.43645
1.4171
1.40099
1.38365
1.36679
1.35085
1.34289
1.32983
1.34473
1.44068
1.58869
1.69882
1.73205
1.73124
1.71868
1.69923
1.68173
1.66786
1.65459
1.63992
1.62594
1.61159
1.59692
1.58208
1.56995
1.55932
1.55379
1.55076
1.56259
1.61172
1.69242
1.76241
1.80071
1.80039
1.79221
1.77364
1.75676
1.74497
1.73431
1.72226
1.70669
1.68845
1.67428
1.66482
1.65666
1.64876
1.64099
1.63194
1.62021
1.60509
1.59053
1.57908
1.56947
1.56062
1.55322
1.54637
1.53994
1.5431
1.55962
1.59522
1.63737
1.66599
1.67832
1.67771
1.66882
1.64984
1.58464
1.58623
1.58602
1.58409
1.57981
1.57036
1.55048
1.52128
1.48856
1.44406
1.4003
1.36923
1.33163
1.31496
1.3689
1.54725
1.7242
1.77084
1.75767
1.72371
1.68917
1.65918
1.63002
1.60119
1.57306
1.54585
1.52048
1.49855
1.48007
1.46179
1.44268
1.42517
1.40815
1.38952
1.37438
1.35864
1.36073
1.41041
1.54512
1.68953
1.76474
1.7804
1.77406
1.75364
1.73149
1.71122
1.69354
1.67847
1.66592
1.65296
1.63753
1.61925
1.60255
1.58995
1.57959
1.56908
1.55705
1.54642
1.53707
1.53691
1.55901
1.62556
1.71024
1.77417
1.777
1.77295
1.76415
1.7519
1.73766
1.7221
1.70731
1.69228
1.67887
1.66902
1.66089
1.65271
1.64449
1.63468
1.62213
1.60589
1.59124
1.58066
1.57278
1.56736
1.56444
1.5623
1.57007
1.59721
1.63922
1.67482
1.70205
1.70889
1.70677
1.69817
1.67976
1.65407
1.5816
1.58135
1.58037
1.57735
1.57008
1.5505
1.5187
1.48374
1.4347
1.38729
1.35668
1.32593
1.2743
1.24531
1.22977
1.26032
1.40534
1.59522
1.69617
1.69311
1.67059
1.64005
1.61012
1.58286
1.55821
1.53637
1.51631
1.4989
1.48134
1.46533
1.44856
1.43549
1.41837
1.40426
1.38909
1.40719
1.51066
1.66467
1.77492
1.81306
1.81325
1.7998
1.77831
1.75791
1.7395
1.72297
1.70775
1.6922
1.67609
1.65903
1.641
1.62223
1.60756
1.59741
1.58807
1.57843
1.56632
1.55195
1.5363
1.5224
1.51186
1.52113
1.57009
1.6553
1.72713
1.76207
1.76309
1.75614
1.7378
1.71804
1.70386
1.69268
1.68213
1.67263
1.6637
1.65381
1.64361
1.63247
1.61971
1.60455
1.59201
1.58314
1.57964
1.57845
1.58572
1.60635
1.64339
1.68394
1.71147
1.72442
1.72526
1.72209
1.71332
1.69864
1.68227
1.66186
1.57953
1.57877
1.57647
1.57039
1.55033
1.51385
1.47014
1.42763
1.37715
1.33533
1.29875
1.25492
1.22378
1.20266
1.17682
1.14198
1.1554
1.2717
1.47691
1.61056
1.63815
1.62236
1.59665
1.57141
1.55066
1.53443
1.51912
1.50453
1.4894
1.4762
1.46212
1.45074
1.43125
1.43344
1.49214
1.64586
1.78402
1.84873
1.85833
1.84879
1.82534
1.80156
1.77994
1.76228
1.74803
1.73452
1.71935
1.70058
1.67994
1.66081
1.64287
1.62525
1.61204
1.60265
1.59386
1.58608
1.5774
1.56446
1.54352
1.51905
1.50341
1.49544
1.49836
1.5257
1.59678
1.67611
1.73073
1.73526
1.72673
1.71808
1.70613
1.69434
1.68377
1.6741
1.66429
1.65348
1.64145
1.62887
1.61676
1.60454
1.59459
1.58939
1.59317
1.60978
1.6491
1.69144
1.72484
1.74277
1.74658
1.74324
1.73308
1.72079
1.70889
1.69566
1.68613
1.67181
1.57717
1.5742
1.56686
1.54534
1.50652
1.45471
1.41446
1.36831
1.30478
1.25853
1.23523
1.20859
1.17794
1.14333
1.1046
1.08848
1.08658
1.09935
1.18919
1.38177
1.54954
1.59789
1.59014
1.57382
1.55659
1.5403
1.52848
1.51805
1.50712
1.49298
1.48041
1.4676
1.49065
1.60537
1.777
1.89409
1.89532
1.88672
1.8668
1.84491
1.82516
1.80399
1.78563
1.77109
1.75715
1.74049
1.72011
1.69906
1.67901
1.65981
1.64259
1.62902
1.61799
1.60854
1.59976
1.59047
1.5783
1.56153
1.54052
1.51839
1.50125
1.4909
1.48802
1.4889
1.49996
1.54618
1.61941
1.68744
1.70272
1.70681
1.70365
1.6976
1.68742
1.67566
1.66465
1.65293
1.63904
1.6261
1.61474
1.60522
1.60309
1.61068
1.64257
1.68997
1.73809
1.75576
1.75986
1.75722
1.75087
1.74003
1.72784
1.71575
1.70474
1.69612
1.69153
1.67943
1.56904
1.5603
1.53863
1.4991
1.44184
1.39577
1.34915
1.27747
1.21955
1.20337
1.18069
1.14013
1.10375
1.0835
1.06315
1.05341
1.05025
1.04808
1.05647
1.1288
1.32242
1.51917
1.56726
1.57365
1.57236
1.56052
1.5467
1.53681
1.52898
1.51442
1.51541
1.56711
1.72891
1.88053
1.95009
1.9471
1.9229
1.88958
1.86079
1.83885
1.82399
1.81304
1.79995
1.78268
1.76161
1.73961
1.71838
1.69838
1.68017
1.66208
1.64239
1.6314
1.62674
1.62073
1.61149
1.5998
1.58454
1.56335
1.53962
1.52277
1.51282
1.50312
1.49376
1.48415
1.47823
1.4842
1.50732
1.56444
1.62957
1.66302
1.67987
1.68462
1.67946
1.67035
1.65981
1.64905
1.63616
1.62752
1.61904
1.62165
1.64127
1.68174
1.73091
1.76956
1.7875
1.78688
1.77911
1.76492
1.74673
1.73119
1.71975
1.71036
1.70306
1.69766
1.69286
1.68131
1.55397
1.53426
1.49468
1.43121
1.37328
1.3255
1.25346
1.18743
1.16654
1.14549
1.10115
1.07438
1.06968
1.06244
1.04536
1.04421
1.04382
1.04403
1.04528
1.05077
1.09926
1.29884
1.48878
1.56435
1.58623
1.58482
1.57383
1.56163
1.54942
1.56442
1.65937
1.8378
1.96637
1.97463
1.96765
1.94476
1.92118
1.89819
1.8738
1.85024
1.82945
1.81089
1.79268
1.77407
1.75445
1.73453
1.71669
1.70112
1.68592
1.66918
1.6524
1.63899
1.62625
1.61383
1.60186
1.58863
1.57341
1.55614
1.53947
1.52522
1.51216
1.50027
1.48909
1.4802
1.47165
1.46543
1.46158
1.47125
1.50939
1.56638
1.62247
1.65733
1.67001
1.66737
1.65714
1.64707
1.63962
1.64
1.64974
1.68308
1.72788
1.76771
1.78952
1.79787
1.79587
1.7912
1.78144
1.76274
1.73833
1.71996
1.71156
1.70745
1.70464
1.70175
1.69724
1.68526
1.53292
1.4929
1.42511
1.35099
1.2929
1.22555
1.15395
1.11924
1.09504
1.06588
1.03983
1.03809
1.04061
1.04108
1.04253
1.04564
1.04926
1.05513
1.06007
1.06668
1.07663
1.1194
1.2943
1.46869
1.57867
1.59234
1.59016
1.59432
1.63333
1.76736
1.93151
2.00801
2.02467
2.00716
1.96931
1.93861
1.91721
1.89489
1.87079
1.84767
1.82683
1.80785
1.78986
1.77195
1.75408
1.73646
1.71981
1.70364
1.68626
1.66802
1.65165
1.63772
1.62435
1.61188
1.59963
1.5861
1.57096
1.55495
1.53984
1.52608
1.51387
1.5026
1.49134
1.48129
1.47189
1.46247
1.45529
1.44925
1.44809
1.46261
1.51336
1.57826
1.63286
1.64998
1.64983
1.6511
1.66506
1.68809
1.72076
1.76627
1.79484
1.80767
1.81476
1.81267
1.80396
1.7894
1.77421
1.75494
1.73071
1.71599
1.70759
1.701
1.69678
1.69355
1.68934
1.6781
1.4961
1.41233
1.31828
1.25692
1.1934
1.10673
1.08567
1.08887
1.07273
1.05513
1.05012
1.05079
1.05451
1.05943
1.06954
1.07519
1.07932
1.08218
1.08372
1.08951
1.09175
1.09548
1.12528
1.26562
1.47771
1.55896
1.62774
1.72247
1.86964
1.97548
2.03394
2.02754
2.00789
1.98547
1.96449
1.9445
1.9236
1.89931
1.87461
1.852
1.83072
1.81124
1.79428
1.7783
1.76256
1.7475
1.73209
1.71503
1.69598
1.67645
1.65859
1.64325
1.63001
1.61767
1.60526
1.59193
1.57764
1.56318
1.54932
1.53683
1.52523
1.51357
1.5017
1.49008
1.47968
1.46944
1.45987
1.45068
1.43791
1.42945
1.43774
1.47722
1.54356
1.6095
1.64576
1.69317
1.74962
1.7766
1.78954
1.79901
1.80844
1.81363
1.81414
1.80757
1.7973
1.78512
1.771
1.75103
1.72797
1.71762
1.7097
1.70239
1.69663
1.69116
1.68589
1.67422
1.39757
1.23193
1.11095
1.04236
0.981127
0.963282
0.980762
1.03412
1.05598
1.05736
1.06783
1.08285
1.0906
1.09864
1.11234
1.11273
1.11232
1.10971
1.10689
1.10834
1.11002
1.11051
1.11162
1.12974
1.25222
1.52139
1.75929
1.97127
2.13539
2.18666
2.13703
2.05225
1.99607
1.9718
1.95686
1.94145
1.92063
1.89505
1.86841
1.84396
1.82253
1.80313
1.78514
1.76867
1.7536