/*--------------------------------*- C++ -*----------------------------------*\
  =========                 |
  \\      /  F ield         | OpenFOAM: The Open Source CFD Toolbox
   \\    /   O peration     | Website:  https://openfoam.org
    \\  /    A nd           | Version:  7
     \\/     M anipulation  |
\*---------------------------------------------------------------------------*/
FoamFile
{
    version     2.0;
    format      ascii;
    class       volVectorField;
    location    "2.1";
    object      U;
}
// * * * * * * * * * * * * * * * * * * * * * * * * * * * * * * * * * * * * * //

dimensions      [0 1 -1 0 0 0 0];

internalField   nonuniform List<vector> 
4608
(
(3 -1.07136e-16 0)
(3 -5.14689e-16 0)
(3 -5.62104e-16 0)
(3 -4.60817e-16 0)
(3 -2.54163e-16 0)
(3 3.16171e-16 0)
(3 1.56895e-16 0)
(3 3.0336e-16 0)
(3 4.94582e-16 0)
(3 7.46463e-16 0)
(3 8.75724e-16 0)
(3 9.66874e-16 0)
(3 6.55958e-16 0)
(3 2.00492e-16 0)
(3 1.50731e-16 0)
(3 2.75465e-16 0)
(3 -1.36135e-16 0)
(3 -2.50979e-16 0)
(3 -1.04542e-16 0)
(3 2.11678e-16 0)
(3 1.02446e-15 0)
(3 1.21313e-15 0)
(3 1.65344e-15 0)
(3 8.05918e-16 0)
(3 -6.37619e-17 0)
(3 -3.40224e-16 0)
(3 -3.57656e-16 0)
(3 -7.03225e-16 0)
(3 -7.17514e-16 0)
(3 -1.92459e-16 0)
(3 -2.77509e-16 0)
(3 1.43234e-15 0)
(3 2.48137e-15 0)
(3 2.46514e-15 0)
(3 2.05874e-15 0)
(3 1.8815e-15 0)
(3 1.15328e-15 0)
(3 1.41498e-16 0)
(3 1.40634e-16 0)
(3 2.72035e-16 0)
(3 5.32656e-18 0)
(3 1.1696e-16 0)
(3 4.76348e-16 0)
(3 5.35578e-16 0)
(3 9.89744e-16 0)
(3 1.32382e-15 0)
(3 1.81388e-15 0)
(3 1.15667e-15 0)
(3 5.67363e-17 0)
(3 3.21213e-16 0)
(3 -5.47864e-17 0)
(3 -3.449e-16 0)
(3 -6.15491e-16 0)
(3 -1.36161e-17 0)
(3 1.31386e-15 0)
(3 3.36668e-15 0)
(3 3.34403e-15 0)
(3 2.61145e-15 0)
(3 1.80416e-15 0)
(3 1.30894e-15 0)
(3 9.17917e-16 0)
(3 5.13314e-16 0)
(3 6.71699e-16 0)
(3 9.26842e-16 0)
(3 9.35001e-16 0)
(3 2.56619e-16 0)
(3 -1.59397e-17 0)
(3 5.66151e-16 0)
(3 3.68889e-16 0)
(3 4.58875e-16 0)
(3 5.47941e-16 0)
(3 5.14188e-17 0)
(3 -1.08686e-17 0)
(3 -1.0981e-16 0)
(3 -3.33672e-16 0)
(3 -5.21409e-16 0)
(3 -3.75004e-16 0)
(3 6.21998e-16 0)
(3 1.72229e-15 0)
(3 2.09284e-15 0)
(3 1.13336e-15 0)
(3 6.44374e-16 0)
(3 8.861e-16 0)
(3 1.18927e-15 0)
(3 1.456e-15 0)
(3 1.31157e-15 0)
(3 1.56347e-15 0)
(3 1.7846e-15 0)
(3 7.35939e-16 0)
(3 2.7795e-16 0)
(3 3.16752e-16 0)
(3 1.0977e-15 0)
(3 6.36745e-16 0)
(3 4.91011e-16 0)
(3 4.61681e-16 0)
(3 9.61098e-16 0)
(3 9.99926e-17 0)
(3 -7.56399e-17 0)
(3 -1.38135e-16 0)
(3 -7.35303e-16 0)
(3 -6.55829e-16 0)
(3 -3.46909e-16 0)
(3 -1.53985e-16 0)
(3 1.66974e-16 0)
(3 1.28871e-15 0)
(3 1.13336e-15 0)
(3 2.02071e-15 0)
(3 2.53338e-15 0)
(3 2.339e-15 0)
(3 1.9319e-15 0)
(3 1.45006e-16 0)
(3 -6.68126e-16 0)
(3 -6.83042e-16 0)
(3 -4.62005e-16 0)
(3 -9.22348e-17 0)
(3 8.76755e-16 0)
(3 1.69009e-15 0)
(3 1.13651e-15 0)
(3 7.81297e-17 0)
(3 3.15331e-16 0)
(3 1.58921e-17 0)
(3 5.9285e-17 0)
(3 -1.63001e-16 0)
(3 -4.08275e-16 0)
(3 -1.04843e-16 0)
(3 4.41231e-17 0)
(3 2.80966e-16 0)
(3 1.99784e-16 0)
(3 5.73543e-16 0)
(3 1.68167e-15 0)
(3 1.47631e-15 0)
(3 1.5195e-15 0)
(3 8.93532e-16 0)
(3 3.46286e-16 0)
(3 -4.39697e-16 0)
(3 -1.17318e-15 0)
(3 -7.9505e-16 0)
(3 -1.58205e-15 0)
(3 -1.82448e-15 0)
(3 -1.19047e-15 0)
(3 -9.36659e-16 0)
(3 -7.18928e-16 0)
(3 -6.429e-16 0)
(3 -3.78717e-16 0)
(3 1.53157e-16 0)
(3 3.41377e-16 0)
(3 1.54962e-16 0)
(3 -1.49921e-16 0)
(3 -5.36043e-16 0)
(3 -6.44089e-16 0)
(3 -5.34857e-16 0)
(3 7.8355e-17 0)
(3 7.43993e-16 0)
(3 1.14172e-15 0)
(3 1.51986e-15 0)
(3 1.02604e-15 0)
(3 9.89981e-16 0)
(3 8.28069e-16 0)
(3 1.77754e-16 0)
(3 -1.35453e-15 0)
(3 -1.85724e-15 0)
(3 -1.94896e-15 0)
(3 -1.81219e-15 0)
(3 -1.5817e-15 0)
(3 -1.19464e-15 0)
(3 -8.37096e-16 0)
(3 -5.48245e-16 0)
(3 -9.65788e-16 0)
(3 1.1452e-16 0)
(3 2.28451e-16 0)
(3 -9.61761e-17 0)
(3 -6.9236e-16 0)
(3 -2.44175e-15 0)
(3 -3.2856e-15 0)
(3 -2.28216e-15 0)
(3 -1.09766e-15 0)
(3 7.73222e-17 0)
(3 3.42478e-16 0)
(3 5.5944e-16 0)
(3 1.22004e-15 0)
(3 1.79911e-15 0)
(3 1.10039e-15 0)
(3 4.25874e-16 0)
(3 -3.13816e-16 0)
(3 -6.36913e-16 0)
(3 -5.44454e-16 0)
(3 -3.80028e-16 0)
(3 -5.38078e-17 0)
(3 2.22698e-16 0)
(3 6.14083e-16 0)
(3 5.73998e-16 0)
(3 -1.9283e-16 0)
(3 -2.13832e-16 0)
(3 -9.84085e-17 0)
(3 -2.41694e-17 0)
(3 -2.84383e-16 0)
(3 -8.75223e-16 0)
(3 -3.52418e-16 0)
(3 -9.10278e-17 0)
(3 -2.85515e-16 0)
(3 -4.80584e-16 0)
(3 -9.97333e-16 0)
(3 -1.19729e-15 0)
(3 -1.18084e-16 0)
(3 1.19855e-17 0)
(3 -5.0774e-16 0)
(3 -3.86344e-16 0)
(3 -2.42616e-16 0)
(3 -3.35488e-16 0)
(3 -3.83435e-16 0)
(3 -1.18368e-16 0)
(3 1.69193e-17 0)
(3 4.9511e-16 0)
(3 1.15763e-15 0)
(3 1.77912e-15 0)
(3 1.1554e-15 0)
(3 -7.10387e-17 0)
(3 1.43522e-16 0)
(3 4.66903e-16 0)
(3 1.6939e-15 0)
(3 2.36587e-15 0)
(3 2.42053e-15 0)
(3 2.023e-15 0)
(3 9.45564e-16 0)
(3 9.67551e-16 0)
(3 8.16e-16 0)
(3 5.44374e-16 0)
(3 9.9456e-18 0)
(3 6.31191e-17 0)
(3 5.66703e-16 0)
(3 7.33495e-16 0)
(3 2.63033e-16 0)
(3 -6.19213e-17 0)
(3 1.17771e-16 0)
(3 4.29746e-16 0)
(3 3.90396e-16 0)
(3 5.26284e-16 0)
(3 9.54852e-16 0)
(3 1.35303e-15 0)
(3 2.1031e-15 0)
(3 2.63574e-18 0)
(3 -1.66888e-17 0)
(3 9.93465e-17 0)
(3 1.16488e-15 0)
(3 1.39692e-15 0)
(3 1.37028e-15 0)
(3 1.21288e-15 0)
(3 7.67795e-16 0)
(3 8.77744e-16 0)
(3 8.07845e-16 0)
(3 6.2492e-16 0)
(3 4.16489e-16 0)
(3 5.47265e-16 0)
(3 9.97349e-16 0)
(3 1.86435e-15 0)
(3 2.18431e-15 0)
(3 1.98222e-15 0)
(3 1.15047e-15 0)
(3 6.78365e-16 0)
(3 1.99785e-16 0)
(3 -3.73081e-16 0)
(3 -1.67788e-16 0)
(3 3.65447e-16 0)
(3 1.46415e-15 0)
(3 2.19905e-16 0)
(3 2.59897e-16 0)
(3 1.92854e-16 0)
(3 1.89339e-16 0)
(3 -2.13144e-16 0)
(3 -7.73687e-16 0)
(3 -7.5548e-16 0)
(3 -5.7545e-16 0)
(3 -1.7883e-15 0)
(3 -2.11785e-15 0)
(3 -1.43877e-15 0)
(3 -1.05545e-15 0)
(3 -1.04877e-15 0)
(3 -5.40106e-16 0)
(3 6.09381e-16 0)
(3 2.63542e-15 0)
(3 2.84401e-15 0)
(3 1.97964e-15 0)
(3 1.28356e-15 0)
(3 5.8333e-16 0)
(3 3.09762e-16 0)
(3 -1.93806e-17 0)
(3 5.59927e-18 0)
(3 3.90395e-16 0)
(3 3.84571e-17 0)
(3 1.9361e-16 0)
(3 1.93747e-16 0)
(3 -9.99544e-17 0)
(3 -4.93812e-16 0)
(3 -5.40059e-16 0)
(3 -7.89879e-16 0)
(3 -1.30962e-15 0)
(3 -1.8792e-15 0)
(3 -2.24982e-15 0)
(3 -2.33086e-15 0)
(3 -1.5951e-15 0)
(3 -1.2723e-15 0)
(3 -9.99584e-16 0)
(3 -7.90188e-18 0)
(3 2.20692e-15 0)
(3 2.52931e-15 0)
(3 2.51451e-15 0)
(3 1.92146e-15 0)
(3 2.23573e-15 0)
(3 2.82895e-15 0)
(3 2.23872e-15 0)
(3 1.77594e-15 0)
(3 1.45788e-15 0)
(3 -6.11109e-17 0)
(3 -8.95182e-16 0)
(3 -8.70817e-16 0)
(3 -7.4612e-16 0)
(3 -3.9782e-16 0)
(3 -2.74419e-16 0)
(3 -4.37841e-16 0)
(3 -3.84417e-16 0)
(3 -3.36913e-16 0)
(3 4.55161e-18 0)
(3 -4.67272e-17 0)
(3 4.87379e-16 0)
(3 5.87155e-16 0)
(3 3.67693e-16 0)
(3 2.88276e-16 0)
(3 2.67089e-16 0)
(3 1.18168e-15 0)
(3 1.14015e-15 0)
(3 8.54327e-16 0)
(3 7.5743e-16 0)
(3 6.78758e-16 0)
(3 3.03888e-16 0)
(3 3.86812e-16 0)
(3 1.67683e-16 0)
(3 -5.46056e-17 0)
(3 8.26951e-17 0)
(3 -3.29207e-16 0)
(3 7.18636e-17 0)
(3 3.51707e-16 0)
(3 -1.2363e-16 0)
(3 -3.86612e-16 0)
(3 -3.05433e-16 0)
(3 5.4186e-16 0)
(3 9.62103e-16 0)
(3 6.31865e-16 0)
(3 1.36895e-16 0)
(3 -2.92804e-16 0)
(3 -3.09129e-16 0)
(3 -4.24642e-16 0)
(3 -9.37984e-16 0)
(3 -5.73478e-16 0)
(3 -1.03576e-15 0)
(3 -7.41501e-16 0)
(3 -8.18135e-16 0)
(3 -3.57805e-16 0)
(3 -7.31595e-17 0)
(3 -4.79488e-16 0)
(3 -9.61972e-16 0)
(3 8.98579e-18 0)
(3 2.43853e-16 0)
(3 5.0377e-16 0)
(3 1.7657e-15 0)
(3 1.88189e-15 0)
(3 1.09056e-15 0)
(3 9.37516e-17 0)
(3 -7.79801e-16 0)
(3 -3.52511e-17 0)
(3 1.15032e-16 0)
(3 -3.77674e-16 0)
(3 -3.84381e-16 0)
(3 -2.20178e-16 0)
(3 -2.69982e-16 0)
(3 -3.15016e-16 0)
(3 -5.50201e-16 0)
(3 -1.38224e-15 0)
(3 -1.3729e-15 0)
(3 -6.15544e-16 0)
(3 7.54728e-16 0)
(3 7.63139e-16 0)
(3 1.10891e-15 0)
(3 1.11138e-15 0)
(3 6.57347e-16 0)
(3 -1.55513e-16 0)
(3 -4.00537e-16 0)
(3 2.61449e-17 0)
(3 6.1678e-16 0)
(3 6.49802e-16 0)
(3 1.06765e-16 0)
(3 -2.44947e-16 0)
(3 -2.78687e-16 0)
(3 -4.14372e-16 0)
(3 -4.33214e-16 0)
(3 -2.22487e-16 0)
(3 1.33942e-16 0)
(3 4.83016e-16 0)
(3 1.22796e-16 0)
(3 -8.62231e-16 0)
(3 -1.00653e-15 0)
(3 -5.79636e-16 0)
(3 -1.00704e-16 0)
(3 7.19079e-16 0)
(3 1.00585e-15 0)
(3 1.13064e-15 0)
(3 6.38607e-16 0)
(3 8.98221e-16 0)
(3 1.39352e-15 0)
(3 -5.98305e-17 0)
(3 -4.18204e-16 0)
(3 -4.36911e-16 0)
(3 -7.29581e-16 0)
(3 -8.22365e-16 0)
(3 -1.01151e-16 0)
(3 6.60256e-16 0)
(3 1.51748e-15 0)
(3 1.00629e-15 0)
(3 -2.33578e-16 0)
(3 -1.83846e-16 0)
(3 -2.48256e-16 0)
(3 -2.45362e-16 0)
(3 -7.93405e-16 0)
(3 -1.27227e-15 0)
(3 -1.0321e-15 0)
(3 -1.03658e-16 0)
(3 5.89252e-16 0)
(3 3.01391e-16 0)
(3 -1.08284e-16 0)
(3 -6.30688e-16 0)
(3 -1.17905e-15 0)
(3 -1.28411e-15 0)
(3 -1.10476e-15 0)
(3 2.2073e-16 0)
(3 3.45099e-16 0)
(3 -2.29604e-16 0)
(3 -1.31007e-15 0)
(3 -1.47319e-15 0)
(3 -6.39631e-17 0)
(3 6.76233e-16 0)
(3 5.73043e-16 0)
(3 1.5425e-16 0)
(3 1.64667e-16 0)
(3 4.12215e-16 0)
(3 2.92857e-16 0)
(3 -5.57347e-16 0)
(3 -9.38601e-16 0)
(3 -8.35531e-16 0)
(3 -4.57385e-16 0)
(3 -2.15025e-16 0)
(3 -6.0154e-16 0)
(3 -7.62295e-16 0)
(3 -1.06003e-15 0)
(3 -2.05737e-15 0)
(3 -2.19155e-15 0)
(3 -2.56183e-15 0)
(3 -2.72702e-15 0)
(3 5.17533e-17 0)
(3 3.47467e-16 0)
(3 1.16493e-16 0)
(3 -9.32891e-16 0)
(3 -1.45072e-15 0)
(3 -1.11073e-15 0)
(3 -8.34057e-16 0)
(3 -9.36568e-16 0)
(3 -1.09074e-15 0)
(3 -5.44121e-16 0)
(3 -6.48432e-16 0)
(3 -7.2052e-16 0)
(3 -1.06175e-15 0)
(3 -1.5584e-15 0)
(3 -2.10503e-15 0)
(3 -1.81733e-15 0)
(3 -1.68287e-15 0)
(3 -1.33266e-15 0)
(3 -7.33457e-16 0)
(3 -5.80018e-16 0)
(3 -2.69616e-16 0)
(3 -2.81184e-16 0)
(3 -2.51215e-16 0)
(3 -4.82407e-16 0)
(3 -1.0006e-16 0)
(3 -1.2651e-16 0)
(3 -3.76113e-16 0)
(3 -3.75318e-16 0)
(3 -4.32544e-16 0)
(3 -7.34881e-16 0)
(3 -1.58466e-15 0)
(3 -1.59807e-15 0)
(3 -1.67103e-15 0)
(3 -1.39523e-15 0)
(3 -1.60531e-15 0)
(3 -1.64032e-15 0)
(3 -6.74249e-16 0)
(3 1.56961e-16 0)
(3 2.16167e-16 0)
(3 -2.19528e-17 0)
(3 -2.17493e-16 0)
(3 -2.23861e-16 0)
(3 -7.42929e-16 0)
(3 -7.10181e-16 0)
(3 7.57435e-16 0)
(3 1.38101e-15 0)
(3 1.16954e-15 0)
(3 5.08401e-16 0)
(3 -2.50161e-16 0)
(3 -9.13718e-16 0)
(3 -1.00229e-15 0)
(3 -5.47127e-16 0)
(3 -2.56398e-16 0)
(3 -7.68112e-16 0)
(3 -1.18824e-15 0)
(3 -1.32023e-15 0)
(3 -1.02677e-15 0)
(3 -7.41427e-16 0)
(3 -8.85171e-16 0)
(3 4.01607e-16 0)
(3 1.55042e-15 0)
(3 2.2925e-15 0)
(3 2.52005e-15 0)
(3 1.06125e-15 0)
(3 -1.64618e-16 0)
(3 -5.7647e-16 0)
(3 -6.33562e-16 0)
(3 -7.59901e-16 0)
(3 -3.44215e-16 0)
(3 -1.88223e-16 0)
(3 -1.48873e-15 0)
(3 -1.83975e-15 0)
(3 1.23197e-16 0)
(3 -5.51522e-16 0)
(3 -5.97811e-16 0)
(3 -2.09275e-16 0)
(3 -7.4745e-16 0)
(3 -9.28645e-16 0)
(3 -7.62545e-16 0)
(3 -3.08113e-16 0)
(3 4.15164e-16 0)
(3 4.88026e-16 0)
(3 3.35237e-16 0)
(3 5.68237e-16 0)
(3 9.17886e-16 0)
(3 1.17711e-15 0)
(3 1.16265e-15 0)
(3 8.53194e-16 0)
(3 5.43182e-16 0)
(3 -8.12634e-17 0)
(3 -6.3624e-16 0)
(3 -6.88955e-16 0)
(3 -1.11574e-15 0)
(3 -1.23617e-15 0)
(3 -1.27269e-15 0)
(3 -1.1536e-15 0)
(3 2.58891e-16 0)
(3 5.42986e-16 0)
(3 6.98537e-16 0)
(3 7.51959e-16 0)
(3 3.08614e-18 0)
(3 9.85765e-17 0)
(3 3.53862e-16 0)
(3 6.79882e-16 0)
(3 5.8658e-16 0)
(3 3.02234e-16 0)
(3 3.17473e-16 0)
(3 -1.14093e-18 0)
(3 -1.31941e-16 0)
(3 -3.76558e-16 0)
(3 -7.68709e-18 0)
(3 -3.02844e-16 0)
(3 -8.02747e-16 0)
(3 -1.16927e-15 0)
(3 -1.11053e-15 0)
(3 -9.97659e-16 0)
(3 -6.91848e-16 0)
(3 -5.11437e-16 0)
(3 -3.45982e-16 0)
(3 3.1676e-16 0)
(3 2.10732e-17 0)
(3 7.46174e-16 0)
(3 8.29122e-16 0)
(3 5.72566e-16 0)
(3 6.86185e-16 0)
(3 1.38843e-15 0)
(3 1.46144e-15 0)
(3 1.13997e-15 0)
(3 1.44834e-16 0)
(3 -6.20594e-16 0)
(3 -4.42801e-16 0)
(3 5.91529e-16 0)
(3 5.11504e-16 0)
(3 7.61345e-17 0)
(3 -4.32362e-16 0)
(3 -1.48217e-15 0)
(3 -2.21415e-15 0)
(3 -2.21572e-15 0)
(3 -6.2332e-16 0)
(3 -1.47339e-16 0)
(3 1.03351e-16 0)
(3 1.22257e-16 0)
(3 1.11477e-15 0)
(3 2.04646e-15 0)
(3 3.64387e-17 0)
(3 8.0397e-17 0)
(3 1.97815e-16 0)
(3 3.69443e-16 0)
(3 1.46642e-15 0)
(3 1.95199e-15 0)
(3 1.74388e-15 0)
(3 1.00366e-15 0)
(3 -1.08255e-16 0)
(3 -1.4561e-16 0)
(3 -4.75935e-16 0)
(3 -1.03025e-15 0)
(3 -1.01291e-15 0)
(3 -5.50634e-16 0)
(3 -6.86179e-16 0)
(3 -4.82392e-16 0)
(3 1.03683e-16 0)
(3 1.57891e-16 0)
(3 -5.49947e-16 0)
(3 -5.54357e-16 0)
(3 -3.83981e-16 0)
(3 -3.06209e-16 0)
(3 2.52376e-16 0)
(3 9.86319e-16 0)
(3 -9.2206e-17 0)
(3 -3.48891e-16 0)
(3 8.56715e-18 0)
(3 1.04997e-15 0)
(3 1.12306e-15 0)
(3 -2.44247e-16 0)
(3 -9.06333e-16 0)
(3 -1.327e-15 0)
(3 -6.00512e-16 0)
(3 2.06384e-16 0)
(3 2.24364e-16 0)
(3 -1.44828e-15 0)
(3 -2.53301e-15 0)
(3 -2.27689e-15 0)
(3 -1.18868e-15 0)
(3 2.79367e-16 0)
(3 1.57699e-15 0)
(3 1.75131e-15 0)
(3 9.78589e-16 0)
(3 -2.29824e-16 0)
(3 -2.30195e-16 0)
(3 -2.7807e-16 0)
(3 -4.5582e-16 0)
(3 -1.31551e-15 0)
(3 3.31931e-17 0)
(3 2.13158e-16 0)
(3 3.79955e-17 0)
(3 -3.02766e-16 0)
(3 -1.57956e-15 0)
(3 -2.1938e-15 0)
(3 -2.02656e-15 0)
(3 -1.73028e-15 0)
(3 -5.46229e-16 0)
(3 6.51528e-16 0)
(3 9.82566e-16 0)
(3 3.86144e-16 0)
(3 -7.17592e-16 0)
(3 -5.54926e-16 0)
(3 -3.78364e-16 0)
(3 -6.42464e-16 0)
(3 -7.50055e-16 0)
(3 -1.21901e-17 0)
(3 3.77789e-16 0)
(3 5.7931e-16 0)
(3 2.99233e-16 0)
(3 -3.2506e-16 0)
(3 -1.63872e-15 0)
(3 -2.08796e-15 0)
(3 -3.06783e-17 0)
(3 -2.81372e-16 0)
(3 -5.44586e-16 0)
(3 -1.59797e-15 0)
(3 -3.07193e-15 0)
(3 -2.523e-15 0)
(3 -1.41455e-15 0)
(3 -6.82634e-16 0)
(3 -3.30065e-16 0)
(3 3.3416e-17 0)
(3 2.599e-16 0)
(3 5.85879e-16 0)
(3 7.94545e-16 0)
(3 -3.96384e-16 0)
(3 -1.03788e-15 0)
(3 -1.69797e-15 0)
(3 -1.5653e-15 0)
(3 -1.34573e-15 0)
(3 -6.96098e-16 0)
(3 3.84077e-17 0)
(3 -2.82165e-16 0)
(3 -2.41492e-16 0)
(3 -4.27784e-16 0)
(3 -1.63975e-16 0)
(3 -4.84653e-17 0)
(3 -1.86707e-16 0)
(3 -6.79337e-16 0)
(3 -9.76601e-16 0)
(3 -6.03944e-16 0)
(3 -1.46237e-16 0)
(3 -1.42863e-17 0)
(3 -4.32161e-17 0)
(3 2.80837e-17 0)
(3 -3.43269e-16 0)
(3 -4.52824e-16 0)
(3 1.48027e-17 0)
(3 1.18347e-15 0)
(3 6.01016e-17 0)
(3 -3.15732e-16 0)
(3 2.63382e-17 0)
(3 5.81445e-16 0)
(3 6.27394e-16 0)
(3 1.35747e-16 0)
(3 -6.32423e-16 0)
(3 -4.72377e-16 0)
(3 3.50827e-16 0)
(3 8.53978e-16 0)
(3 1.59714e-15 0)
(3 3.38262e-16 0)
(3 8.30815e-16 0)
(3 1.16233e-16 0)
(3 2.06042e-16 0)
(3 6.24084e-16 0)
(3 7.93399e-16 0)
(3 8.88115e-16 0)
(3 1.62299e-15 0)
(3 1.7524e-15 0)
(3 1.13857e-15 0)
(3 5.5869e-16 0)
(3 3.58369e-16 0)
(3 3.90054e-16 0)
(3 4.14633e-16 0)
(3 5.45468e-16 0)
(3 8.02046e-16 0)
(3 1.1285e-15 0)
(3 3.19653e-16 0)
(3 5.65918e-16 0)
(3 4.25798e-17 0)
(3 -4.14898e-16 0)
(3 -3.14808e-16 0)
(3 -9.41353e-16 0)
(3 -6.7377e-16 0)
(3 1.4669e-16 0)
(3 2.09555e-16 0)
(3 1.27145e-17 0)
(3 1.38201e-16 0)
(3 -1.63881e-17 0)
(3 3.04339e-16 0)
(3 5.26445e-16 0)
(3 9.74018e-16 0)
(3 8.77431e-16 0)
(3 6.67106e-16 0)
(3 8.17645e-16 0)
(3 1.74111e-16 0)
(3 -1.78054e-16 0)
(3 -1.19559e-16 0)
(3 -9.79872e-17 0)
(3 -8.08594e-17 0)
(3 4.11923e-17 0)
(3 -3.44184e-16 0)
(3 -1.24822e-16 0)
(3 4.95292e-17 0)
(3 -2.93883e-16 0)
(3 -6.23434e-16 0)
(3 -1.29915e-15 0)
(3 -1.21704e-15 0)
(2.9313 0.0350958 0)
(2.85653 0.0335253 0)
(2.7489 0.163243 0)
(2.67194 0.239193 0)
(2.58128 0.342527 0)
(2.49215 0.45168 0)
(2.43101 0.541174 0)
(2.34815 0.625033 0)
(2.31088 0.724784 0)
(2.25781 0.799601 0)
(2.25091 0.854873 0)
(2.28366 0.888473 0)
(2.32261 0.897559 0)
(2.33554 0.886084 0)
(2.34635 0.880758 0)
(2.34871 0.865895 0)
(2.34841 0.859243 0)
(2.34526 0.852693 0)
(2.34184 0.849523 0)
(2.3422 0.849019 0)
(2.34041 0.848236 0)
(2.33921 0.84818 0)
(2.3374 0.848998 0)
(2.33711 0.849512 0)
(2.99852 0.00160349 0)
(2.99142 0.0103796 0)
(2.95973 0.0490658 0)
(2.9009 0.134257 0)
(2.80754 0.271357 0)
(2.67127 0.470987 0)
(2.54533 0.676867 0)
(2.37745 0.903962 0)
(2.21618 1.07306 0)
(2.1701 1.10119 0)
(2.14968 1.04402 0)
(2.18444 1.00218 0)
(2.24403 0.952271 0)
(2.30551 0.898441 0)
(2.32782 0.857911 0)
(2.34815 0.828044 0)
(2.35597 0.835343 0)
(2.35618 0.843026 0)
(2.35335 0.844933 0)
(2.3494 0.845083 0)
(2.34787 0.845305 0)
(2.34482 0.845736 0)
(2.342 0.847467 0)
(2.33989 0.849602 0)
(3 3.48216e-07 0)
(3.00002 -2.6293e-05 0)
(2.99993 6.15326e-05 0)
(2.99985 0.000235583 0)
(2.99868 0.00177263 0)
(2.99109 0.0132067 0)
(2.96678 0.051465 0)
(2.89501 0.178009 0)
(2.77306 0.412254 0)
(2.60994 0.687934 0)
(2.43508 0.859916 0)
(2.33329 0.926943 0)
(2.30032 0.916736 0)
(2.30276 0.902418 0)
(2.30704 0.892555 0)
(2.34309 0.860714 0)
(2.35636 0.862203 0)
(2.35765 0.855817 0)
(2.35732 0.849149 0)
(2.35492 0.847608 0)
(2.35482 0.846128 0)
(2.3543 0.846906 0)
(2.34972 0.848905 0)
(2.34562 0.852286 0)
(3 -1.65404e-09 0)
(3 -1.10385e-06 0)
(3 -2.02632e-06 0)
(3 -1.25313e-06 0)
(3 -8.36809e-06 0)
(2.99999 2.33991e-05 0)
(3.00004 -0.000100722 0)
(2.99925 0.00115732 0)
(2.98943 0.0192309 0)
(2.91695 0.141457 0)
(2.6836 0.485707 0)
(2.52163 0.711416 0)
(2.32961 0.901326 0)
(2.2668 0.97351 0)
(2.27507 0.951684 0)
(2.30605 0.910079 0)
(2.33235 0.878702 0)
(2.34461 0.865212 0)
(2.35459 0.852658 0)
(2.36062 0.841691 0)
(2.36068 0.842742 0)
(2.36008 0.845931 0)
(2.35868 0.845359 0)
(2.35196 0.847931 0)
(3 -2.15383e-10 0)
(3 3.06036e-09 0)
(3 -8.12833e-08 0)
(3 -1.18426e-07 0)
(3 -5.06363e-07 0)
(3 -6.44341e-07 0)
(3 -5.67752e-06 0)
(3 -5.70215e-06 0)
(3.00002 -4.36688e-05 0)
(2.99943 0.000555633 0)
(2.98201 0.024135 0)
(2.8871 0.15488 0)
(2.64048 0.473608 0)
(2.37242 0.803999 0)
(2.368 0.835101 0)
(2.30956 0.878097 0)
(2.31443 0.878537 0)
(2.32888 0.873152 0)
(2.34716 0.851153 0)
(2.35305 0.846727 0)
(2.35973 0.845032 0)
(2.36099 0.841472 0)
(2.35906 0.841412 0)
(2.35363 0.840232 0)
(3 -6.57713e-13 0)
(3 1.50577e-10 0)
(3 3.04829e-10 0)
(3 -7.3061e-10 0)
(3 -1.73003e-10 0)
(3 -3.48135e-08 0)
(3 -8.10883e-08 0)
(3 -3.63267e-07 0)
(3 -6.01196e-06 0)
(3 -5.70128e-06 0)
(3.00002 -5.22177e-05 0)
(2.99895 0.0013548 0)
(2.96572 0.0431496 0)
(2.82249 0.220036 0)
(2.60925 0.526506 0)
(2.30811 0.876338 0)
(2.27286 0.876973 0)
(2.30977 0.874378 0)
(2.30875 0.871147 0)
(2.32617 0.862497 0)
(2.34542 0.851884 0)
(2.34909 0.844744 0)
(2.34969 0.839749 0)
(2.34758 0.840171 0)
(3 5.19373e-14 0)
(3 -7.52315e-14 0)
(3 2.0252e-11 0)
(3 1.46496e-11 0)
(3 1.65172e-11 0)
(3 -3.1198e-10 0)
(3 -5.08047e-10 0)
(3 -3.5692e-10 0)
(3 -1.02464e-08 0)
(3 -3.576e-07 0)
(3 -3.7433e-06 0)
(3.00001 -1.12819e-05 0)
(2.99996 2.62551e-05 0)
(2.99647 0.00542725 0)
(2.94379 0.0717387 0)
(2.71482 0.35978 0)
(2.55369 0.598227 0)
(2.30705 0.857287 0)
(2.26366 0.899269 0)
(2.28826 0.87224 0)
(2.31196 0.853283 0)
(2.32583 0.852893 0)
(2.33568 0.849294 0)
(2.33778 0.840893 0)
(3 6.80784e-15 0)
(3 7.53817e-15 0)
(3 1.2622e-14 0)
(3 1.02799e-12 0)
(3 1.64425e-12 0)
(3 2.41391e-12 0)
(3 3.42793e-12 0)
(3 4.87832e-12 0)
(3 7.32163e-11 0)
(3 -4.35176e-10 0)
(3 -1.32382e-08 0)
(3 -1.72499e-06 0)
(3 -1.6524e-06 0)
(3.00001 -1.64285e-05 0)
(2.9996 0.000525297 0)
(2.98479 0.0220067 0)
(2.89909 0.151438 0)
(2.56832 0.55071 0)
(2.44569 0.712076 0)
(2.35365 0.806278 0)
(2.31872 0.852507 0)
(2.31182 0.856207 0)
(2.31955 0.850226 0)
(2.3271 0.836721 0)
(3 1.62352e-15 0)
(3 4.07971e-15 0)
(3 4.10428e-15 0)
(3 4.32576e-15 0)
(3 1.76621e-14 0)
(3 2.92429e-13 0)
(3 1.01287e-12 0)
(3 2.10837e-12 0)
(3 1.59173e-11 0)
(3 2.06679e-11 0)
(3 6.23544e-11 0)
(3 -1.56537e-08 0)
(3 -1.55195e-07 0)
(3 -3.2352e-06 0)
(3 -8.90012e-07 0)
(3 1.23765e-07 0)
(2.99752 0.0039557 0)
(2.94145 0.0793779 0)
(2.81222 0.291242 0)
(2.4513 0.714934 0)
(2.3614 0.816883 0)
(2.32395 0.840763 0)
(2.31815 0.84173 0)
(2.31741 0.838385 0)
(3 3.31148e-15 0)
(3 3.44209e-15 0)
(3 2.47716e-15 0)
(3 2.69688e-15 0)
(3 1.94507e-15 0)
(3 4.18606e-15 0)
(3 5.17897e-14 0)
(3 1.67377e-13 0)
(3 6.34138e-13 0)
(3 3.73516e-12 0)
(3 1.00141e-11 0)
(3 1.04943e-10 0)
(3 -1.18436e-09 0)
(3 -3.80312e-08 0)
(3 -3.88981e-07 0)
(3 -8.0351e-07 0)
(3.00001 -1.51395e-05 0)
(2.99941 0.0011365 0)
(2.98888 0.0199298 0)
(2.84067 0.218036 0)
(2.66845 0.483204 0)
(2.41876 0.762636 0)
(2.31047 0.894781 0)
(2.29659 0.862151 0)
(3 1.51083e-15 0)
(3 6.3944e-16 0)
(3 2.44255e-16 0)
(3 8.20248e-16 0)
(3 -2.9505e-16 0)
(3 -3.61252e-17 0)
(3 -2.95036e-16 0)
(3 5.88591e-15 0)
(3 5.19855e-15 0)
(3 4.08022e-14 0)
(3 6.20795e-13 0)
(3 1.75908e-11 0)
(3 1.44485e-11 0)
(3 2.23418e-10 0)
(3 -5.4479e-09 0)
(3 -8.46368e-08 0)
(3 -2.37709e-06 0)
(3 -4.65204e-06 0)
(2.99996 4.97079e-05 0)
(2.99353 0.0107914 0)
(2.9468 0.0951918 0)
(2.69488 0.433295 0)
(2.46106 0.738671 0)
(2.37847 0.771278 0)
(3 -3.49127e-16 0)
(3 -1.40779e-15 0)
(3 -1.96119e-15 0)
(3 -4.8863e-16 0)
(3 -3.38674e-16 0)
(3 -8.99925e-17 0)
(3 -5.17315e-16 0)
(3 -7.06583e-16 0)
(3 -1.39035e-15 0)
(3 -7.51181e-16 0)
(3 1.27092e-15 0)
(3 2.74025e-13 0)
(3 2.43749e-12 0)
(3 2.05262e-11 0)
(3 6.41149e-11 0)
(3 -1.69204e-09 0)
(3 -4.34783e-08 0)
(3 -1.10701e-06 0)
(3 -1.31403e-06 0)
(3 -3.44259e-07 0)
(2.9984 0.00336573 0)
(2.96775 0.0509132 0)
(2.75173 0.357827 0)
(2.55778 0.622799 0)
(3 1.51038e-15 0)
(3 1.20956e-15 0)
(3 3.15364e-16 0)
(3 3.5485e-16 0)
(3 6.25822e-16 0)
(3 1.37242e-15 0)
(3 1.47071e-15 0)
(3 6.20963e-16 0)
(3 2.32331e-16 0)
(3 3.41857e-16 0)
(3 6.42472e-16 0)
(3 6.37269e-16 0)
(3 1.6323e-14 0)
(3 9.30314e-13 0)
(3 1.6638e-11 0)
(3 1.46818e-11 0)
(3 9.63272e-11 0)
(3 -2.17212e-08 0)
(3 -2.92044e-07 0)
(3 -6.17207e-07 0)
(3 -1.27509e-07 0)
(2.99935 0.00139776 0)
(2.9769 0.0374409 0)
(2.84859 0.248071 0)
(3 2.06314e-16 0)
(3 4.24901e-16 0)
(3 6.90497e-16 0)
(3 6.72564e-16 0)
(3 4.87128e-16 0)
(3 2.79927e-16 0)
(3 3.00883e-16 0)
(3 1.55342e-15 0)
(3 2.97485e-15 0)
(3 2.39809e-15 0)
(3 1.84116e-15 0)
(3 -3.33471e-16 0)
(3 -1.54921e-15 0)
(3 -9.04654e-16 0)
(3 8.36973e-13 0)
(3 3.42384e-12 0)
(3 2.30763e-11 0)
(3 -5.57299e-12 0)
(3 -1.92759e-08 0)
(3 -1.86026e-07 0)
(3 -2.56663e-07 0)
(3 -2.61745e-06 0)
(2.99959 0.000836013 0)
(2.99183 0.016027 0)
(3 -1.59676e-15 0)
(3 -1.42014e-15 0)
(3 -8.18833e-16 0)
(3 -1.13945e-15 0)
(3 -8.13049e-16 0)
(3 -9.20799e-17 0)
(3 7.6794e-16 0)
(3 2.00923e-15 0)
(3 2.70634e-15 0)
(3 3.04229e-15 0)
(3 1.83007e-15 0)
(3 -6.77975e-16 0)
(3 -1.48933e-15 0)
(3 -1.08517e-15 0)
(3 6.84008e-16 0)
(3 1.66423e-13 0)
(3 1.8861e-12 0)
(3 2.23541e-12 0)
(3 -1.06319e-10 0)
(3 -1.21808e-08 0)
(3 -4.96856e-08 0)
(3 -7.23156e-07 0)
(3.00001 -5.32077e-06 0)
(2.99997 6.95959e-05 0)
(3 4.09356e-16 0)
(3 3.43073e-16 0)
(3 4.84589e-16 0)
(3 7.05568e-16 0)
(3 5.3014e-16 0)
(3 6.4277e-16 0)
(3 1.85587e-15 0)
(3 1.17169e-15 0)
(3 1.10644e-15 0)
(3 5.58779e-16 0)
(3 -6.0031e-16 0)
(3 -8.59779e-16 0)
(3 -7.92861e-16 0)
(3 -8.40549e-16 0)
(3 -2.10849e-16 0)
(3 9.02625e-16 0)
(3 2.35007e-14 0)
(3 8.65056e-13 0)
(3 4.05398e-13 0)
(3 -5.72352e-11 0)
(3 -1.82378e-09 0)
(3 -2.26126e-07 0)
(3 1.56103e-09 0)
(3 -6.20102e-07 0)
(3 2.55749e-15 0)
(3 2.83242e-15 0)
(3 2.34086e-15 0)
(3 1.69056e-15 0)
(3 1.78069e-15 0)
(3 1.20422e-15 0)
(3 9.40167e-17 0)
(3 -2.03618e-16 0)
(3 -5.69477e-16 0)
(3 -1.5622e-15 0)
(3 -2.00939e-15 0)
(3 -2.48507e-15 0)
(3 -2.94977e-15 0)
(3 -2.9296e-15 0)
(3 -1.37037e-15 0)
(3 -7.0955e-15 0)
(3 -1.12199e-15 0)
(3 -7.42958e-13 0)
(3 -2.03591e-13 0)
(3 1.78628e-10 0)
(3 5.07726e-09 0)
(3 7.09529e-09 0)
(3 3.51127e-07 0)
(3 3.75828e-07 0)
(3 -6.4017e-16 0)
(3 -1.62959e-16 0)
(3 -5.4054e-16 0)
(3 -5.01871e-16 0)
(3 1.12566e-15 0)
(3 1.78295e-15 0)
(3 1.51733e-15 0)
(3 3.45239e-16 0)
(3 -1.16589e-15 0)
(3 -1.78651e-15 0)
(3 -1.26259e-15 0)
(3 -2.35773e-15 0)
(3 -2.96744e-15 0)
(3 -2.94125e-15 0)
(3 -4.10915e-15 0)
(3 -1.40897e-13 0)
(3 -2.21143e-12 0)
(3 -3.45402e-12 0)
(3 1.0378e-10 0)
(3 1.22125e-08 0)
(3 4.92695e-08 0)
(3 4.83412e-07 0)
(3.00001 -4.16817e-06 0)
(3.00002 9.04445e-05 0)
(3 -3.10816e-15 0)
(3 -1.88765e-15 0)
(3 -1.18869e-15 0)
(3 -1.03689e-15 0)
(3 -7.66442e-16 0)
(3 -2.67377e-16 0)
(3 -1.27835e-16 0)
(3 -9.08918e-16 0)
(3 -1.10868e-15 0)
(3 -1.06509e-15 0)
(3 -1.81277e-15 0)
(3 -2.02751e-15 0)
(3 -2.39351e-15 0)
(3 -3.08187e-15 0)
(3 -6.67934e-13 0)
(3 -3.38938e-12 0)
(3 -2.50473e-11 0)
(3 -3.57817e-11 0)
(3 1.58087e-08 0)
(3 1.15053e-07 0)
(3 2.6538e-07 0)
(3 2.50415e-06 0)
(2.99966 -0.000725423 0)
(2.99399 -0.0150186 0)
(3 -1.29647e-15 0)
(3 -1.80779e-15 0)
(3 -1.7202e-15 0)
(3 -1.9797e-15 0)
(3 -3.52976e-15 0)
(3 -3.32955e-15 0)
(3 -2.60983e-15 0)
(3 -8.05026e-16 0)
(3 -1.21574e-15 0)
(3 -1.66363e-15 0)
(3 -1.89145e-15 0)
(3 -1.78632e-15 0)
(3 -1.83411e-14 0)
(3 -9.06701e-13 0)
(3 -1.55596e-11 0)
(3 -1.372e-11 0)
(3 -7.37575e-11 0)
(3 1.87502e-08 0)
(3 3.46809e-07 0)
(3 4.29475e-07 0)
(3 1.99255e-06 0)
(2.99913 -0.00156284 0)
(2.97989 -0.0417238 0)
(2.87223 -0.219319 0)
(3 -8.51815e-16 0)
(3 -2.05085e-15 0)
(3 -2.26115e-15 0)
(3 -1.82352e-15 0)
(3 -1.79321e-15 0)
(3 -1.88847e-15 0)
(3 -1.47652e-15 0)
(3 -3.2742e-16 0)
(3 -2.23116e-15 0)
(3 -3.01647e-15 0)
(3 -3.59959e-15 0)
(3 -2.70246e-13 0)
(3 -2.48418e-12 0)
(3 -1.98078e-11 0)
(3 -6.74621e-11 0)
(3 1.80008e-09 0)
(3 4.09314e-08 0)
(3 1.24593e-06 0)
(3 1.30383e-06 0)
(2.99999 -1.19788e-05 0)
(2.99861 -0.00264045 0)
(2.95636 -0.0674222 0)
(2.81874 -0.298048 0)
(2.49712 -0.688204 0)
(3 -1.50028e-15 0)
(3 -1.34519e-15 0)
(3 -1.20043e-15 0)
(3 -2.84575e-16 0)
(3 -1.77048e-16 0)
(3 -1.45849e-15 0)
(3 -4.41534e-15 0)
(3 -7.56919e-15 0)
(3 -5.78731e-15 0)
(3 -3.95342e-14 0)
(3 -6.17945e-13 0)
(3 -1.76225e-11 0)
(3 -1.45188e-11 0)
(3 -2.27105e-10 0)
(3 5.53006e-09 0)
(3 8.64372e-08 0)
(3 2.4094e-06 0)
(3 5.00273e-06 0)
(2.99995 -5.52286e-05 0)
(2.99351 -0.0107332 0)
(2.94627 -0.0949039 0)
(2.69119 -0.436397 0)
(2.48191 -0.717746 0)
(2.37558 -0.798621 0)
(3 -4.29279e-16 0)
(3 1.14728e-15 0)
(3 1.70183e-15 0)
(3 1.67038e-15 0)
(3 7.99886e-16 0)
(3 -3.47883e-15 0)
(3 -5.19517e-14 0)
(3 -1.71759e-13 0)
(3 -6.26313e-13 0)
(3 -3.74573e-12 0)
(3 -9.95543e-12 0)
(3 -1.04907e-10 0)
(3 1.20837e-09 0)
(3 3.63794e-08 0)
(3 3.9816e-07 0)
(3 7.62684e-07 0)
(3.00001 1.59116e-05 0)
(2.99941 -0.00114795 0)
(2.9891 -0.0198619 0)
(2.83993 -0.219674 0)
(2.66234 -0.486774 0)
(2.4302 -0.753554 0)
(2.31518 -0.887222 0)
(2.29539 -0.868417 0)
(3 2.70585e-16 0)
(3 9.20663e-16 0)
(3 1.20459e-15 0)
(3 -5.84991e-16 0)
(3 -1.62163e-14 0)
(3 -2.92698e-13 0)
(3 -1.01289e-12 0)
(3 -2.09987e-12 0)
(3 -1.56361e-11 0)
(3 -2.0734e-11 0)
(3 -6.14095e-11 0)
(3 1.56586e-08 0)
(3 1.55803e-07 0)
(3 3.14171e-06 0)
(3 7.96578e-07 0)
(3 3.27465e-07 0)
(2.99751 -0.00395418 0)
(2.9415 -0.0793961 0)
(2.81685 -0.289671 0)
(2.44586 -0.723862 0)
(2.36137 -0.815473 0)
(2.3258 -0.836892 0)
(2.31889 -0.840806 0)
(2.31478 -0.839113 0)
(3 -4.89443e-15 0)
(3 -3.36769e-15 0)
(3 -6.96688e-15 0)
(3 -1.02405e-12 0)
(3 -1.63992e-12 0)
(3 -2.40976e-12 0)
(3 -3.42594e-12 0)
(3 -4.87503e-12 0)
(3 -7.03173e-11 0)
(3 4.32216e-10 0)
(3 1.31736e-08 0)
(3 1.7229e-06 0)
(3 1.65503e-06 0)
(3.00001 1.67347e-05 0)
(2.9996 -0.000531619 0)
(2.98477 -0.0219667 0)
(2.89893 -0.151656 0)
(2.56769 -0.550749 0)
(2.449 -0.710009 0)
(2.3528 -0.808461 0)
(2.31669 -0.852765 0)
(2.31157 -0.854978 0)
(2.32058 -0.849723 0)
(2.32702 -0.837156 0)
(3 -5.177e-14 0)
(3 7.55244e-14 0)
(3 -2.02559e-11 0)
(3 -1.46535e-11 0)
(3 -1.6517e-11 0)
(3 3.12387e-10 0)
(3 5.07553e-10 0)
(3 4.12783e-10 0)
(3 9.99829e-09 0)
(3 3.57559e-07 0)
(3 3.75989e-06 0)
(3.00001 1.11767e-05 0)
(2.99996 -2.48878e-05 0)
(2.99645 -0.0054475 0)
(2.944 -0.0715244 0)
(2.71431 -0.360436 0)
(2.55339 -0.598266 0)
(2.30729 -0.856055 0)
(2.26446 -0.898323 0)
(2.2886 -0.872984 0)
(2.31156 -0.853737 0)
(2.3253 -0.852511 0)
(2.33525 -0.848525 0)
(2.33923 -0.841186 0)
(3 6.54784e-13 0)
(3 -1.50588e-10 0)
(3 -3.04885e-10 0)
(3 7.30823e-10 0)
(3 1.73126e-10 0)
(3 3.48179e-08 0)
(3 8.10726e-08 0)
(3 3.63345e-07 0)
(3 6.01127e-06 0)
(3 5.70176e-06 0)
(3.00002 5.2338e-05 0)
(2.99895 -0.00135719 0)
(2.96575 -0.043086 0)
(2.82217 -0.220369 0)
(2.61 -0.526 0)
(2.30805 -0.876751 0)
(2.27206 -0.877241 0)
(2.30979 -0.874224 0)
(2.3087 -0.87105 0)
(2.32596 -0.862792 0)
(2.34515 -0.852248 0)
(2.34845 -0.844426 0)
(2.35013 -0.839268 0)
(2.34825 -0.840066 0)
(3 2.15289e-10 0)
(3 -3.06031e-09 0)
(3 8.12899e-08 0)
(3 1.18455e-07 0)
(3 5.06418e-07 0)
(3 6.44344e-07 0)
(3 5.67739e-06 0)
(3 5.70239e-06 0)
(3.00002 4.36493e-05 0)
(2.99943 -0.000555414 0)
(2.982 -0.0241367 0)
(2.88711 -0.154868 0)
(2.64049 -0.473608 0)
(2.37237 -0.804058 0)
(2.36809 -0.835069 0)
(2.30957 -0.878099 0)
(2.31436 -0.878571 0)
(2.32883 -0.873073 0)
(2.34721 -0.850896 0)
(2.35303 -0.846968 0)
(2.3596 -0.844948 0)
(2.36086 -0.841423 0)
(2.35923 -0.841224 0)
(2.35383 -0.840382 0)
(3 1.65337e-09 0)
(3 1.10377e-06 0)
(3 2.02633e-06 0)
(3 1.25343e-06 0)
(3 8.3681e-06 0)
(2.99999 -2.34001e-05 0)
(3.00004 0.000100717 0)
(2.99925 -0.00115732 0)
(2.98943 -0.0192306 0)
(2.91695 -0.141466 0)
(2.68362 -0.485684 0)
(2.52163 -0.711415 0)
(2.32956 -0.901372 0)
(2.26681 -0.973504 0)
(2.2751 -0.951659 0)
(2.30606 -0.910057 0)
(2.33232 -0.878758 0)
(2.34453 -0.8652 0)
(2.35469 -0.852563 0)
(2.36068 -0.841741 0)
(2.36067 -0.842809 0)
(2.36006 -0.845885 0)
(2.35867 -0.845328 0)
(2.35195 -0.847986 0)
(3 -3.48298e-07 0)
(3.00002 2.62898e-05 0)
(2.99993 -6.14841e-05 0)
(2.99985 -0.000235644 0)
(2.99868 -0.00177253 0)
(2.99109 -0.013207 0)
(2.96678 -0.0514654 0)
(2.89501 -0.178007 0)
(2.77306 -0.412255 0)
(2.60992 -0.687949 0)
(2.4351 -0.859902 0)
(2.33329 -0.92694 0)
(2.30031 -0.916742 0)
(2.30276 -0.902422 0)
(2.30705 -0.892542 0)
(2.34308 -0.860717 0)
(2.35637 -0.862225 0)
(2.35762 -0.855804 0)
(2.35733 -0.849147 0)
(2.35494 -0.847628 0)
(2.35481 -0.846146 0)
(2.35432 -0.846878 0)
(2.34971 -0.848876 0)
(2.34562 -0.852286 0)
(2.99852 -0.00160355 0)
(2.99142 -0.0103798 0)
(2.95973 -0.0490643 0)
(2.9009 -0.134259 0)
(2.80755 -0.271354 0)
(2.67127 -0.470987 0)
(2.54532 -0.676872 0)
(2.37747 -0.903955 0)
(2.21618 -1.07306 0)
(2.17009 -1.1012 0)
(2.14968 -1.04402 0)
(2.18445 -1.00218 0)
(2.24403 -0.95227 0)
(2.30551 -0.898449 0)
(2.32783 -0.857899 0)
(2.34815 -0.828044 0)
(2.35597 -0.835357 0)
(2.35617 -0.843028 0)
(2.35334 -0.844922 0)
(2.34939 -0.845081 0)
(2.34787 -0.845296 0)
(2.34482 -0.845725 0)
(2.342 -0.847458 0)
(2.33989 -0.849598 0)
(2.9313 -0.035098 0)
(2.85653 -0.0335263 0)
(2.7489 -0.163235 0)
(2.67193 -0.239206 0)
(2.58129 -0.342514 0)
(2.49214 -0.451685 0)
(2.43101 -0.541177 0)
(2.34815 -0.625032 0)
(2.31088 -0.72478 0)
(2.25781 -0.799603 0)
(2.25091 -0.854875 0)
(2.28366 -0.888468 0)
(2.32261 -0.897561 0)
(2.33554 -0.886093 0)
(2.34634 -0.880755 0)
(2.34871 -0.865893 0)
(2.34841 -0.859245 0)