/*--------------------------------*- C++ -*----------------------------------*\
  =========                 |
  \\      /  F ield         | OpenFOAM: The Open Source CFD Toolbox
   \\    /   O peration     | Website:  https://openfoam.org
    \\  /    A nd           | Version:  7
     \\/     M anipulation  |
\*---------------------------------------------------------------------------*/
FoamFile
{
    version     2.0;
    format      ascii;
    class       volScalarField;
    location    "3.9";
    object      p;
}
// * * * * * * * * * * * * * * * * * * * * * * * * * * * * * * * * * * * * * //

dimensions      [1 -1 -2 0 0 0 0];

internalField   nonuniform List<scalar> 
18432
(
1
1
1
1
1
1
1
1
1
1
1
1
1
1
1
1
1
1
1
1
1
1
1
1
1
1
1
1
1
1
1
1
1
1
1
1
1
1
1
1
1
1
1
1
1
1
1
1
1
1
1
1
1
1
1
1
1
1
1
1
1
1
1
1
1
1
1
1
1
1
1
1
1
1
1
1
1
1
1
1
1
1
1
1
1
1
1
1
1
1
1
1
1
1
1
1
1
1
1
1
1
1
1
1
1
1
1
1
1
1
1
1
1
1
1
1
1
1
1
1
1
1
1
1
1
1
1
1
1
1
1
1
1
1
1
1
1
1
1
1
1
1
1
1
1
1
1
1
1
1
1
1
1
1
1
1
1
1
1
1
1
1
1
1
1
1
1
1
1
1
1
1
1
1
1
1
1
1
1
1
1
1
1
1
1
1
1
1
1
1
1
1
1
1
1
1
1
1
1
1
1
1
1
1
1
1
1
1
1
1
1
1
1
1
1
1
1
1
1
1
1
1
1
1
1
1
1
1
1
1
1
1
1
1
1
1
1
1
1
1
1
1
1
1
1
1
1
1
1
1
1
1
1
1
1
1
1
1
1
1
1
1
1
1
1
1
1
1
1
1
1
1
1
1
1
1
1
1
1
1
1
1
1
1
1
1
1
1
1
1
1
1
1
1
1
1
1
1
1
1
1
1
1
1
1
1
1
1
1
1
1
1
1
1
1
1
1
1
1
1
1
1
1
1
1
1
1
1
1
1
1
1
1
1
1
1
1
1
1
1
1
1
1
1
1
1
1
1
1
1
1
1
1
1
1
1
1
1
1
1
1
1
1
1
1
1
1
1
1
1
1
1
1
1
1
1
1
1
1
1
1
1
1
1
1
1
1
1
1
1
1
1
1
1
1
1
1
1
1
1
1
1
1
1
1
1
1
1
1
1
1
1
1
1
1
1
1
1
1
1
1
1
1
1
1
1
1
1
1
1
1
1
1
1
1
1
1
1
1
1
1
1
1
1
1
1
1
1
1
1
1
1
1
1
1
1
1
1
1
1
1
1
1
1
1
1
1
1
1
1
1
1
1
1
1
1
1
1
1
1
1
1
1
1
1
1
1
1
1
1
1
1
1
1
1
1
1
1
1
1
1
1
1
1
1
1
1
1
1
1
1
1
1
1
1
1
1
1
1
1
1
1
1
1
1
1
1
1
1
1
1
1
1
1
1
1
1
1
1
1
1
1
1
1
1
1
1
1
1
1
1
1
1
1
1
1
1
1
1
1
1
1
1
1
1
1
1
1
1
1
1
1
1
1
1
1
1
1
1
1
1
1
1
1
1
1
1
1
1
1
1
1
1
1
1
1
1
1
1
1
1
1
1
1
1
1
1
1
1
1
1
1
1
1
1
1
1
1
1
1
1
1
1
1
1
1
1
1
1
1
1
1
1
1
1
1
1
1
1
1
1
1
1
1
1
1
1
1
1
1
1
1
1
1
1
1
1
1
1
1
1
1
1
1
1
1
1
1
1
1
1
1
1
1
1
1
1
1
1
1
1
1
1
1
1
1
1
1
1
1
1
1
1
1
1
1
1
1
1
1
1
1
1
1
1
1
1
1
1
1
1
1
1
1
1
1
1
1
1
1
1
1
1
1
1
1
1
1
1
1
1
1
1
1
1
1
1
1
1
1
1
1
1
1
1
1
1
1
1
1
1
1
1
1
1
1
1
1
1
1
1
1
1
1
1
1
1
1
1
1
1
1
1
1
1
1
1
1
1
1
1
1
1
1
1
1
1
1
1
1
1
1
1
1
1
1
1
1
1
1
1
1
1
1
1
1
1
1
1
1
1
1
1
1
1
1
1
1
1
1
1
1
1
1
1
1
1
1
1
1
1
1
1
1
1
1
1
1
1
1
1
1
1
1
1
1
1
1
1
1
1
1
1
1
1
1
1
1
1
1
1
1
1
1
1
1
1
1
1
1
1
1
1
1
1
1
1
1
1
1
1
1
1
1
1
1
1
1
1
1
1
1
1
1
1
1
1
1
1
1
1
1
1
1
1
1
1
1
1
1
1
1
1
1
1
1
1
1
1
1
1
1
1
1
1
1
1
1
1
1
1
1
1
1
1
1
1
1
1
1
1
1
1
1
1
1
1
1
1
1
1
1
1
1
1
1
1
1
1
1
1
1
1
1
1
1
1
1
1
1
1
1
1
1
1
1
1
1
1
1
1
1
1
1
1
1
1
1
1
1
1
1
1
1
1
1
1
1
1
1
1
1
1
1
1
1
1
1
1
1
1
1
1
1
1
1
1
1
1
1
1
1
1
1
1
1
1
1
1
1
1
1
1
1
1
1
1
1
1
1
1
1
1
1
1
1
1
1
1
1
1
1
1
1
1
1
1
1
1
1
1
1
1
1
1
1
1
1
1
1
1
1
1
1
1
1
1
1
1
1
1
1
1
1
1
1
1
1
1
1
1
1
1
1
1
1
1
1
1
1
1
1
1
1
1
1
1
1
1
1
1
1
1
1
1
1
1
1
1
1
1
1
1
1
1
1
1
1
1
1
1
1
1
1
1
1
1
1
1
1
1
1
1
1
1
1
1
1
1
1
1
1
1
1
1
1
1
1
1
1
1
1
1
1
1
1
1
1
1
1
1
1
1
1
1
1
1
1
1
1
1
1
1
1
1
1
1
1
1
1
1
1
1
1
1
1
1
1
1
1
1
1
1
1
1
1
1
1
1
1
1
1
1
1
1
1
1
1
1
1
1
1
1
1
1
1
1
1
1
1
1
1
1
1
1
1
1
1
1
1
1
1
1
1
1
1
1
1
1
1
1
1
1
1
1
1
1
1
1
1
1
1
1
1
1
1
1
1
1
1
1
1
1
1
1
1
1
1
1
1
1
1
1
1
1
1
1
1
1
1
1
1
1
1
1
1
1
1
1
1
1
1
1
1
1
1
1
1
1
1
1
1
1
1
1
1
1
1
1
1
1
1
1
1
1
1
1
1
1
1
1
1
1
1
1
1
1
1
1
1
1
1
1
1
1
1
1
1
1
1
1
1
1
1
1
1
1
1
1
1
1
1
1
1
1
1
1
1
1
1
1
1
1
1
1
1
1
1
1
1
1
1
1
1
1
1
1
1
1
1
1
1
1
1
1
1
1
1
1
1
1
1
1
1
1
1
1
1
1
1
1
1
1
1
1
1
1
1
1
1
1
1
1
1
1
1
1
1
1
1
1
1
1
1
1
1
1
1
1
1
1
1
1
1
1
1
1
1
1
1
1
1
1
1
1
1
1
1
1
1
1
1
1
1
1
1
1
1
1
1
1
1
1
1
1
1
1
1
1
1
1
1
1
1
1
1
1
1
1
1
1
1
1
1
1
1
1
1
1
1
1
1
1
1
1
1
1
1
1
1
1
1
1
1
1
1
1
1
1
1
1
1
1
1
1
1
1
1
1
1
1
1
1
1
1
1
1
1
1
1
1
1
1
1
1
1
1
1
1
1
1
1
1
1
1
1
1
1
1
1
1
1
1
1
1
1
1
1
1
1
1
1
1
1
1
1
1
1
1
1
1
1
1
1
1
1
1
1
1
1
1
1
1
1
1
1
1
1
1
1
1
1
1
1
1
1
1
1
1
1
1
1
1
1
1
1
1
1
1
1
1
1
1
1
1
1
1
1
1
1
1
1
1
1
1
1
1
1
1
1
1
1
1
1
1
1
1
1
1
1
1
1
1
1
1
1
1
1
1
1
1
1
1
1
1
1
1
1
1
1
1
1
1
1
1
1
1
1
1
1
1
1
1
1
1
1
1
1
1
1
1
1
1
1
1
1
1
1
1
1
1
1
1
1
1
1
1
1
1
1
1
1
1
1
1
1
1
1
1
1
1
1
1
1
1
1
1
1
1
1
1
1
1
1
1
1
1
1
1
1
1
1
1
1
1
1
1
1
1
1
1
1
1
1
1
1
1
1
1
1
1
1
1
1
1
1
1
1
1
1
1
1
1
1
1
1
1
1
1
1
1
1
1
1
1
1
1
1
1
1
1
1
1
1
1
1
1
1
1
1
1
1
1
1
1
1
1
1
1
1
1
1
1
1
1
1
1
1
1
1
1
1
1
1
1
1
1
1
1
1
1
1
1
1
1
1
1
1
1
1
1
1
1
1
1
1
1
1
1
1
1
1
1
1
1
1
1
1
1
1
1
1
1
1
1
1
1
1
1
1
1
1
1
1
1
1
1
1
1
1
1
1
1
1
1
1
1
1
1
1
1
1
1
1
1
1
1
1
1
1
1
1
1
1
1
1
1
1
1
1
1
1
1
1
1
1
1
1
1
1
1
1
1
1
1
1
1
1
1
1
1
1
1
1
1
1
1
1
1
1
1
1
1
1
1
1
1
1
1
1
1
1
1
1
1
1
1
1
1
1
1
1
1
1
1
1
1
1
1
1
1
1
1
1
1
1
1
1
1
1
1
1
1
1
1
1
1
1
1
1
1
1
1
1
1
1
1
1
1
1
1
1
1
1
1
1
1
1
1
1
1
1
1
1
1
1
1
1
1
1
1
1
1
1
1
1
1
1
1
1
1
1
1
1
1
1
1
1
1
1
1
1
1
1
1
1
1
1
1
1
1
1
1
1
1
1
1
1
1
1
1
1
1
1
1
1
1
1
1
1
1
1
1
1
1
1
1
1
1
1
1
1
1
1
1
1
1
1
1
1
1
1
1
1
1
1
1
1
1
1
1
1
1
1
1
1
1
1
1
1
1
1
1
1
1
1
1
1
1
1
1
1
1
1
1
1
1
1
1
1
1
1
1
1
1
1
1
1
1
1
1
1
1
1
1
1
1
1
1
1
1
1
1
1
1
1
1
1
1
1
1
1
1
1
1
1
1
1
1
1
1
1
1
1
1
1
1
1
1
1
1
1
1
1
1
1
1
1
1
1
1
1
1
1
1
1
1
1
1
1
1
1
1
1
1
1
1
1
1
1
1
1
1
1
1
1
1
1
1
1
1
1
1
1
1
1
1
1
1
1
1
1
1
1
1
1
1
1
1
1
1
1
1
1
1
1
1
1
1
1
1
1
1
1
1
1
1
1
1
1
1
1
1
1
1
1
1
1
1
1
1
1
1
1
1
1
1
1
1
1
1
1
1
1
1
1
1
1
1
1
1
1
1
1
1
1
1
1
1
1
1
1
1
1
1
1
1
1
1
1
1
1
1
1
1
1
1
1
1
1
1
1
1
1
1
1
1
1
1
1
1
1
1
1
1
1
1
1
1
1
1
1
1
1
1
1
1
1
1
1
1
1
1
1
1
1
1
1
1
1
1
1
1
1
1
1
1
1
1
1
1
1
1
1
1
1
1
1
1
1
1
1
1
1
1
1
1
1
1
1
1
1
1
1
1
1
1
1
1
1
1
1
1
1
1
1
1
1
1
1
1
1
1
1
1
1
1
1
1
1
1
1
1
1
1
1
1
1
1
1
1
1
1
1
1
1
1
1
1
1
1
1
1
1
1
1
1
1
1
1
1
1
1
1
1
1
1
1
1
1
1
1
1
1
1
1
1
1
1
1
1
1
1
1
1
1
1
1
1
1
1
1
1
1
1
1
1
1
1
1
1
1
1
1
1
1
1
1
1
1
1
1
1
1
1
1
1
1
1
1
1
1
1
1
1
1
1
1
1
1
1
1
1
1
1
1
1
1
1
1
1
1
1
1
1
1
1
1
1
1
1
1
1
1
1
1
1
1
1
1
1
1
1
1
1
1
1
1
1
1
1
1
1
1
1
1
1
1
1
1
1
1
1
1
1
1
1
1
1
1
1
1
1
1
1
1
1
1
1
1
1
1
1
1
1
1
1
1
1
1
1
1
1
1
1
1
1
1
1
1
1
1
1
1
1
1
1
1
1
1
1
1
1
1
1
1
1
1
1
1
1
1
1
1
1
1
1
1
1
1
1
1
1
1
1
1
1
1
1
1
1
1
1
1
1
1
1
1
1
1
1
1
1
1
1
1
1
1
1
1
1
1
1
1
1
1
1
1
1
1
1
1
1
1
1
1
1
1
1
1
1
1
1
1
1
1
1
1
1
1
1
1
1
1
1
1
1
1
1
1
1
1
1
1
1
1
1
1
1
1
1
1
1
1
1
1
1
1
1
1
1
1
1
1
1
1
1
1
1
1
1
1
1
1
1
1
1
1
1
1
1
1
1
1
1
1
1
1
1
1
1
1
1
1
1
1
1
1
1
1
1
1
1
1
1
1
1
1
1
1
1
1
1
1
1
1
1
1
1
1
1
1
1
1
1
1
1
1
1
1
1
1
1
1
1
1
1
1
1
1
1
1
1
1
1
1
1
1
1
1
1
1
1
1
1
1
1
1
1
1
1
1
1
1
1
1
1
1
1
1
1
1
1
1
1
1
1
1
1
1
1
1
1
1
1
1
1
1
1
1
1
1
1
1
1
1
1
1
1
1
1
1
1
1
1
1
1
1
1
1
1
1
1
1
1
1
1
1
1
1
1
1
1
1
1
1
1
1
1
1
1
1
1
1
1
1
1
1
1
1
1
1
1
1
1
1
1
1
1
1
1
1
1
1
1
1
1
1
1
1
1
1
1
1
1
1
1
1
1
1
1
1
1
1
1
1
1
1
1
1
1
1
1
1
1
1
1
1
1
1
1
1
1
1
1
1
1
1
1
1
1
1
1
1
1
1
1
1
1
1
1
1
1
1
1
1
1
1
1
1
1
1
1
1
1
1
1
1
1
1
1
1
1
1
1
1
1
1
1
1
1
1
1
1
1
1
1
1
1
1
1
1
1
1
1
1
1
1
1
1
1
1
1
1
1
1
1
1
1
1
1
1
1
1
1
1
1
1
1
1
1
1
1
1
1
1
1
1
1
1
1
1
1
1
1
1
1
1
1
1
1
1
1.29387
1.73994
2.31062
2.95842
3.51377
4.17129
4.70695
5.06906
5.33059
5.24554
4.95225
4.49721
4.0766
3.75544
3.65144
3.58078
3.56012
3.58788
3.62891
3.66917
3.69456
3.71273
3.72722
3.7421
3.76226
3.77525
3.77813
3.77836
3.77154
3.76465
3.75943
3.7549
3.75355
3.75559
3.7623
3.776
3.78915
3.79151
3.79058
3.78736
3.77899
3.77146
3.77062
3.77088
3.77247
3.77611
3.77788
3.77707
1.0017
1.0217
1.06601
1.19323
1.42437
1.74961
2.23015
2.73946
3.34449
3.72759
3.92076
4.05806
4.01514
3.93381
3.83597
3.78056
3.72199
3.703
3.67329
3.66103
3.6715
3.69204
3.71304
3.73191
3.75355
3.77078
3.77672
3.77953
3.77782
3.77361
3.7701
3.76921
3.77008
3.77218
3.77465
3.77707
3.77837
3.77722
3.77453
3.77026
3.7659
3.76491
3.76553
3.767
3.77063
3.77618
3.7787
3.77943
1
0.999996
1.00001
0.999979
1.00158
1.01223
1.06428
1.22083
1.60512
2.36528
3.29559
3.9625
4.26924
4.30887
4.24564
4.12921
3.97234
3.78729
3.68093
3.64261
3.6466
3.66461
3.68174
3.70142
3.72345
3.74394
3.75919
3.77133
3.7792
3.78204
3.78414
3.78554
3.78559
3.7868
3.7883
3.78771
3.78444
3.77859
3.77226
3.76624
3.76216
3.76119
3.76128
3.7622
3.76576
3.77172
3.77523
3.7781
1
1
1
0.999999
0.999999
0.99998
1.00004
1.00014
1.00515
1.08045
1.39163
2.18109
3.03154
3.92507
4.09857
4.0308
3.98822
3.95345
3.84681
3.74793
3.71072
3.69626
3.67387
3.67632
3.69555
3.71456
3.73139
3.74798
3.75608
3.76208
3.76781
3.77226
3.7749
3.77908
3.78199
3.78175
3.77968
3.7759
3.77156
3.76783
3.76627
3.76611
3.76662
3.76807
3.77169
3.77606
3.77664
3.77863
1
1
1
1
1
0.999999
1
0.999999
1
0.999939
1.00139
1.04785
1.28866
1.97452
2.92054
3.54118
4.04548
4.08932
4.05453
3.94929
3.84779
3.76757
3.71801
3.70286
3.70428
3.71835
3.73069
3.74184
3.74674
3.75195
3.7535
3.75472
3.75571
3.75933
3.76708
3.77008
3.76985
3.76952
3.7684
3.7672
3.76711
3.7685
3.77119
3.77519
3.78013
3.78336
3.78234
3.78328
1
1
1
1
1
1
1
1
1
0.999997
0.999998
0.99995
1.00083
1.02471
1.25654
1.77476
2.74947
3.36088
3.77071
3.90626
3.90237
3.86956
3.81134
3.775
3.76154
3.74379
3.72679
3.72155
3.72608
3.73655
3.74955
3.75845
3.7651
3.77093
3.77558
3.77627
3.77612
3.77603
3.77481
3.77317
3.77264
3.77333
3.77539
3.77949
3.78299
3.78294
3.77859
3.77647
1
1
1
1
1
1
1
1
1
1
1
0.999997
0.999997
0.999962
1.00086
1.01638
1.1755
1.71108
2.52427
3.32577
3.60489
3.76056
3.81377
3.81068
3.77486
3.72145
3.71406
3.71821
3.71927
3.72273
3.73492
3.754
3.77457
3.7877
3.78828
3.78543
3.78332
3.78224
3.78049
3.77688
3.77487
3.77368
3.77447
3.77824
3.77946
3.77731
3.77116
3.76729
1
1
1
1
1
1
1
1
1
1
1
1
1
0.999997
0.999998
0.999976
1.00043
1.01745
1.13066
1.62563
2.3518
3.22921
3.60803
3.68165
3.74844
3.70863
3.68999
3.69709
3.69931
3.70202
3.71094
3.72919
3.75077
3.76706
3.77659
3.77735
3.77683
3.77417
3.77055
3.76895
3.76792
3.76765
3.77153
3.77606
3.7776
3.77718
3.77432
3.77152
1
1
1
1
1
1
1
1
1
1
1
1
1
1
1
0.999998
0.999998
0.999982
1.00025
1.01434
1.12001
1.51258
2.29616
3.02777
3.59345
3.71853
3.72899
3.73666
3.72502
3.70922
3.70709
3.71315
3.72613
3.73835
3.75032
3.75844
3.76142
3.76227
3.76199
3.76343
3.76508
3.76661
3.77136
3.77593
3.77808
3.77875
3.77714
3.77449
1
1
1
1
1
1
1
1
1
1
1
1
1
1
1
1
1
0.999998
0.999998
0.999984
1.00031
1.00865
1.12844
1.4821
2.25578
2.93869
3.46479
3.70841
3.76014
3.74569
3.74865
3.75291
3.75161
3.75165
3.75429
3.76041
3.76398
3.76421
3.76355
3.76412
3.76645
3.77097
3.77466
3.77537
3.77657
3.77774
3.77643
3.77307
1
1
1
1
1
1
1
1
1
1
1
1
1
1
1
1
1
1
1
0.999998
0.999998
0.999986
1.00055
1.00911
1.10817
1.50674
2.2125
2.97748
3.36466
3.61036
3.72408
3.75411
3.7505
3.75542
3.75605
3.75493
3.7615
3.76701
3.77301
3.77781
3.78324
3.78722
3.78706
3.78515
3.7837
3.78157
3.77781
3.77413
1
1
1
1
1
1
1
1
1
1
1
1
1
1
1
1
1
1
1
1
1
0.999998
0.999998
0.999988
1.00045
1.01299
1.09889
1.52021
2.20328
3.08935
3.43828
3.56844
3.64683
3.69809
3.71437
3.72257
3.73307
3.74809
3.76298
3.7743
3.77851
3.78058
3.78089
3.78024
3.78058
3.78159
3.7805
3.7783
1
1
1
1
1
1
1
1
1
1
1
1
1
1
1
1
1
1
1
1
1
1
1
0.999998
0.999999
0.999993
1.0004
1.01661
1.11859
1.55474
2.32684
3.10068
3.58331
3.65748
3.6967
3.70868
3.71178
3.72412
3.74007
3.75368
3.76162
3.76695
3.77072
3.77106
3.77014
3.7708
3.76982
3.76943
1
1
1
1
1
1
1
1
1
1
1
1
1
1
1
1
1
1
1
1
1
1
1
1
1
0.999999
0.999998
1
1.00074
1.01903
1.1757
1.63898
2.47391
3.1802
3.6035
3.7465
3.74711
3.77348
3.78029
3.77709
3.77429
3.77447
3.77425
3.77247
3.76918
3.76502
3.76332
3.76423
1
1
1
1
1
1
1
1
1
1
1
1
1
1
1
1
1
1
1
1
1
1
1
1
1
1
1
1
0.999998
1.00001
1.00185
1.02652
1.25143
1.81473
2.69769
3.25485
3.59305
3.74784
3.77372
3.78069
3.78833
3.78706
3.78406
3.78038
3.77588
3.77407
3.77376
3.77447
1
1
1
1
1
1
1
1
1
1
1
1
1
1
1
1
1
1
1
1
1
1
1
1
1
1
1
1
1
1
0.999997
1.00005
1.0047
1.0481
1.36523
2.07014
3.03518
3.43069
3.57073
3.67846
3.74302
3.75201
3.75498
3.75822
3.76664
3.77341
3.77744
3.77994
1
1
1
1
1
1
1
1
1
1
1
1
1
1
1
1
1
1
1
1
1
1
1
1
1
1
1
1
1
1
1
1
0.999997
1.0002
1.01173
1.10533
1.57804
2.41248
3.27245
3.65867
3.70057
3.71954
3.71982
3.72485
3.7399
3.75582
3.76477
3.77071
1
1
1
1
1
1
1
1
1
1
1
1
1
1
1
1
1
1
1
1
1
1
1
1
1
1
1
1
1
1
1
1
1
0.999999
1.00001
1.00099
1.03028
1.2324
1.91841
2.83252
3.48352
3.74461
3.75265
3.77782
3.78619
3.78548
3.77898
3.77757
1
1
1
1
1
1
1
1
1
1
1
1
1
1
1
1
1
1
1
1
1
1
1
1
1
1
1
1
1
1
1
1
1
1
1
0.999998
1.00015
1.00464
1.0881
1.50056
2.41082
3.14547
3.55821
3.75813
3.7884
3.78873
3.79042
3.79027
1
1
1
1
1
1
1
1
1
1
1
1
1
1
1
1
1
1
1
1
1
1
1
1
1
1
1
1
1
1
1
1
1
1
1
1
1
1
1.00113
1.02194
1.23705
1.94136
2.99938
3.50609
3.62506
3.688
3.73593
3.75662
1
1
1
1
1
1
1
1
1
1
1
1
1
1
1
1
1
1
1
1
1
1
1
1
1
1
1
1
1
1
1
1
1
1
1
1
1
1
0.999999
1.00008
1.0074
1.10033
1.60743
2.56464
3.40803
3.70134
3.7492
3.7579
1
1
1
1
1
1
1
1
1
1
1
1
1
1
1
1
1
1
1
1
1
1
1
1
1
1
1
1
1
1
1
1
1
1
1
1
1
1
1
1
1.00002
1.00143
1.04361
1.34233
2.22401
3.15475
3.66491
3.79154
1
1
1
1
1
1
1
1
1
1
1
1
1
1
1
1
1
1
1
1
1
1
1
1
1
1
1
1
1
1
1
1
1
1
1
1
1
1
1
1
1
1
1.00047
1.0131
1.21668
1.91973
3.03607
3.41019
1
1
1
1
1
1
1
1
1
1
1
1
1
1
1
1
1
1
1
1
1
1
1
1
1
1
1
1
1
1
1
1
1
1
1
1
1
1
1
1
1
1
0.999999
1.00007
1.00806
1.09641
1.70209
2.66034
1
1
1
1
1
1
1
1
1
1
1
1
1
1
1
1
1
1
1
1
1
1
1
1
1
1
1
1
1
1
1
1
1
1
1
1
1
1
1
1
1
1
1
1
1.00003
1.0018
1.06986
1.44569
1
1
1
1
1
1
1
1
1
1
1
1
1
1
1
1
1
1
1
1
1
1
1
1
1
1
1
1
1
1
1
1
1
1
1
1
1
1
1
1
1
1
1
1
1
1
1.00174
1.01953
1
1
1
1
1
1
1
1
1
1
1
1
1
1
1
1
1
1
1
1
1
1
1
1
1
1
1
1
1
1
1
1
1
1
1
1
1
1
1
1
1
1
1
1
1
1
1.00002
0.999845
1
1
1
1
1
1
1
1
1
1
1
1
1
1
1
1
1
1
1
1
1
1
1
1
1
1
1
1
1
1
1
1
1
1
1
1
1
1
1
1
1
1
1
1
1
1
1
0.999948
1
1
1
1
1
1
1
1
1
1
1
1
1
1
1
1
1
1
1
1
1
1
1
1
1
1
1
1
1
1
1
1
1
1
1
1
1
1
1
1
1
1
1
1
1
1
1
0.999991
1
1
1
1
1
1
1
1
1
1
1
1
1
1
1
1
1
1
1
1
1
1
1
1
1
1
1
1
1
1
1
1
1
1
1
1
1
1
1
1
1
1
1
1
1
1
1
1
1
1
1
1
1
1
1
1
1
1
1
1
1
1
1
1
1
1
1
1
1
1
1
1
1
1
1
1
1
1
1
1
1
1
1
1
1
1
1
1
1
1
1
1
1
1
1
1
1
1
1
1
1
1
1
1
1
1
1
1
1
1
1
1
1
1
1
1
1
1
1
1
1
1
1
1
1
1
1
1
1
1
1
1
1
1
1
1
1
1
1
1
1
1
1
1
1
1
1
1
1
1
1
1
1
1
1
1
1
1
1
1
1
1
1
1
1
1
1
1
1
1
1
1
1
1
1
1
1
1
1
1
1
1
1
1
1
1
1
1
1
1
1
1
1
1
1
1
1
1
1
1
1
1
1
1
1
1
1
1
1
1
1
1
1
1
1
1
1
1
1
1
1
1
1
1
1
1
1
1
1
1
1
1
1
1
1
1
1
1
1
1
1
1
1
1
1
1
1
1
1
1
1
1
1
1
1
1
1
1
1
1
1
1
1
1
1
1
1
1
1
1
1
1
1
1
1
1
1
1
1
1
1
1
1
1
1
1
1
1
1
1
1
1
1
1
1
1
1
1
1
1
1
1
1
1
1
1
1
1
1
1
1
1
1
1
1
1
1
1
1
1
1
1
1
1
1
1
1
1
1
1
1
1
1
1
1
0.999991
1
1
1
1
1
1
1
1
1
1
1
1
1
1
1
1
1
1
1
1
1
1
1
1
1
1
1
1
1
1
1
1
1
1
1
1
1
1
1
1
1
1
1
1
1
1
1
0.999947
1
1
1
1
1
1
1
1
1
1
1
1
1
1
1
1
1
1
1
1
1
1
1
1
1
1
1
1
1
1
1
1
1
1
1
1
1
1
1
1
1
1
1
1
1
1
1.00002
0.999844
1
1
1
1
1
1
1
1
1
1
1
1
1
1
1
1
1
1
1
1
1
1
1
1
1
1
1
1
1
1
1
1
1
1
1
1
1
1
1
1
1
1
1
1
1
1
1.00174
1.0195
1
1
1
1
1
1
1
1
1
1
1
1
1
1
1
1
1
1
1
1
1
1
1
1
1
1
1
1
1
1
1
1
1
1
1
1
1
1
1
1
1
1
1
1
1.00003
1.0018
1.06987
1.4454
1
1
1
1
1
1
1
1
1
1
1
1
1
1
1
1
1
1
1
1
1
1
1
1
1
1
1
1
1
1
1
1
1
1
1
1
1
1
1
1
1
1
0.999999
1.00007
1.00806
1.09641
1.70206
2.65977
1
1
1
1
1
1
1
1
1
1
1
1
1
1
1
1
1
1
1
1
1
1
1
1
1
1
1
1
1
1
1
1
1
1
1
1
1
1
1
1
1
1
1.00047
1.01311
1.21669
1.92001
3.03506
3.41039
1
1
1
1
1
1
1
1
1
1
1
1
1
1
1
1
1
1
1
1
1
1
1
1
1
1
1
1
1
1
1
1
1
1
1
1
1
1
1
1
1.00002
1.00143
1.0436
1.34232
2.22421
3.15473
3.6644
3.7919
1
1
1
1
1
1
1
1
1
1
1
1
1
1
1
1
1
1
1
1
1
1
1
1
1
1
1
1
1
1
1
1
1
1
1
1
1
1
0.999999
1.00008
1.0074
1.10033
1.60739
2.56459
3.40824
3.70121
3.74897
3.758
1
1
1
1
1
1
1
1
1
1
1
1
1
1
1
1
1
1
1
1
1
1
1
1
1
1
1
1
1
1
1
1
1
1
1
1
1
1
1.00113
1.02194
1.23706
1.94137
2.99932
3.50613
3.62515
3.68801
3.73583
3.75656
1
1
1
1
1
1
1
1
1
1
1
1
1
1
1
1
1
1
1
1
1
1
1
1
1
1
1
1
1
1
1
1
1
1
1
0.999998
1.00015
1.00464
1.0881
1.50055
2.41087
3.14541
3.55823
3.75815
3.78842
3.78875
3.79039
3.79022
1
1
1
1
1
1
1
1
1
1
1
1
1
1
1
1
1
1
1
1
1
1
1
1
1
1
1
1
1
1
1
1
1
0.999999
1.00001
1.00099
1.03028
1.2324
1.9184
2.83253
3.48353
3.74458
3.75265
3.77783
3.78618
3.78548
3.77898
3.77756
1
1
1
1
1
1
1
1
1
1
1
1
1
1
1
1
1
1
1
1
1
1
1
1
1
1
1
1
1
1
1
1
0.999997
1.0002
1.01173
1.10533
1.57804
2.41248
3.27245
3.65867
3.70057
3.71954
3.71983
3.72485
3.73989
3.75581
3.76476
3.7707
1
1
1
1
1
1
1
1
1
1
1
1
1
1
1
1
1
1
1
1
1
1
1
1
1
1
1
1
1
1
0.999997
1.00005
1.0047
1.0481
1.36523
2.07014
3.03519
3.43069
3.57073
3.67846
3.74301
3.75201
3.75499
3.75823
3.76663
3.77341
3.77743
3.77994
1
1
1
1
1
1
1
1
1
1
1
1
1
1
1
1
1
1
1
1
1
1
1
1
1
1
1
1
0.999998
1.00001
1.00185
1.02652
1.25143
1.81473
2.69769
3.25485
3.59305
3.74784
3.77373
3.7807
3.78834
3.78706
3.78406
3.78038
3.77588
3.77406
3.77376
3.77447
1
1
1
1
1
1
1
1
1
1
1
1
1
1
1
1
1
1
1
1
1
1
1
1
1
0.999999
0.999998
1
1.00074
1.01903
1.1757
1.63898
2.47391
3.18019
3.6035
3.7465
3.74711
3.77348
3.78029
3.77709
3.77429
3.77447
3.77425
3.77247
3.76918
3.76501
3.76332
3.76423
1
1
1
1
1
1
1
1
1
1
1
1
1
1
1
1
1
1
1
1
1
1
1
0.999998
0.999999
0.999993
1.0004
1.01661
1.11859
1.55474
2.32684
3.10068
3.58331
3.65748
3.6967
3.70868
3.71178
3.72412
3.74007
3.75368
3.76162
3.76695
3.77072
3.77106
3.77014
3.7708
3.76982
3.76943
1
1
1
1
1
1
1
1
1
1
1
1
1
1
1
1
1
1
1
1
1
0.999998
0.999998
0.999988
1.00045
1.01299
1.09889
1.52021
2.20328
3.08935
3.43828
3.56844
3.64683
3.69809
3.71437
3.72257
3.73307
3.74809
3.76298
3.7743
3.77851
3.78058
3.78089
3.78024
3.78058
3.78159
3.7805
3.7783
1
1
1
1
1
1
1
1
1
1
1
1
1
1
1
1
1
1
1
0.999998
0.999998
0.999986
1.00055
1.00911
1.10817
1.50674
2.2125
2.97748
3.36466
3.61036
3.72408
3.75411
3.75049
3.75542
3.75605
3.75493
3.7615
3.76701
3.77301
3.77781
3.78324
3.78722
3.78706
3.78515
3.7837
3.78157
3.77781
3.77413
1
1
1
1
1
1
1
1
1
1
1
1
1
1
1
1
1
0.999998
0.999998
0.999984
1.00031
1.00865
1.12844
1.4821
2.25578
2.93869
3.46479
3.7084
3.76014
3.74569
3.74865
3.75291
3.75161
3.75165
3.75429
3.76041
3.76398
3.76421
3.76355
3.76412
3.76645
3.77097
3.77466
3.77537
3.77657
3.77774
3.77643
3.77307
1
1
1
1
1
1
1
1
1
1
1
1
1
1
1
0.999998
0.999998
0.999982
1.00025
1.01434
1.12001
1.51258
2.29616
3.02776
3.59345
3.71853
3.72899
3.73666
3.72502
3.70922
3.70709
3.71315
3.72613
3.73835
3.75032
3.75844
3.76142
3.76227
3.76199
3.76343
3.76508
3.76661
3.77136
3.77593
3.77808
3.77875
3.77714
3.77449
1
1
1
1
1
1
1
1
1
1
1
1
1
0.999997
0.999998
0.999976
1.00043
1.01745
1.13066
1.62563
2.3518
3.22921
3.60804
3.68165
3.74844
3.70863
3.68999
3.69709
3.69931
3.70202
3.71094
3.72919
3.75077
3.76706
3.77659
3.77735
3.77683
3.77417
3.77055
3.76895
3.76792
3.76765
3.77153
3.77606
3.7776
3.77718
3.77432
3.77152
1
1
1
1
1
1
1
1
1
1
1
0.999997
0.999997
0.999962
1.00086
1.01638
1.1755
1.71108
2.52427
3.32577
3.60489
3.76056
3.81377
3.81068
3.77486
3.72145
3.71406
3.71821
3.71927
3.72273
3.73492
3.754
3.77457
3.7877
3.78828
3.78543
3.78332
3.78224
3.78049
3.77688
3.77487
3.77368
3.77447
3.77824
3.77946
3.77731
3.77116
3.76729
1
1
1
1
1
1
1
1
1
0.999997
0.999998
0.99995
1.00083
1.02471
1.25654
1.77476
2.74947
3.36088
3.7707
3.90626
3.90237
3.86956
3.81134
3.775
3.76154
3.74379
3.72679
3.72155
3.72608
3.73655
3.74955
3.75845
3.7651
3.77093
3.77558
3.77627
3.77612
3.77603
3.77481
3.77317
3.77264
3.77333
3.77539
3.77949
3.78299
3.78294
3.77859
3.77647
1
1
1
1
1
0.999999
1
0.999999
1
0.999939
1.00139
1.04785
1.28866
1.97452
2.92055
3.54118
4.04548
4.08932
4.05453
3.94929
3.84779
3.76757
3.71801
3.70286
3.70428
3.71835
3.73069
3.74184
3.74674
3.75195
3.7535
3.75472
3.75571
3.75933
3.76708
3.77008
3.76985
3.76952
3.7684
3.7672
3.76711
3.7685
3.77119
3.77519
3.78013
3.78336
3.78234
3.78328
1
1
1
0.999999
0.999999
0.99998
1.00004
1.00014
1.00515
1.08045
1.39163
2.18109
3.03154
3.92507
4.09858
4.0308
3.98822
3.95345
3.84682
3.74793
3.71072
3.69626
3.67387
3.67632
3.69555
3.71456
3.73139
3.74798
3.75608
3.76208
3.76781
3.77226
3.7749
3.77908
3.78199
3.78175
3.77968
3.7759
3.77156
3.76783
3.76627
3.76611
3.76662
3.76807
3.77169
3.77606
3.77664
3.77863
1
0.999996
1.00001
0.999979
1.00158
1.01223
1.06428
1.22083
1.60512
2.36528
3.29559
3.9625
4.26924
4.30887
4.24564
4.12921
3.97234
3.78729
3.68093
3.64261
3.6466
3.66461
3.68174
3.70142
3.72345
3.74394
3.75919
3.77133
3.7792
3.78204
3.78414
3.78554
3.78559
3.7868
3.7883
3.78771
3.78444
3.77859
3.77226
3.76624
3.76216
3.76119
3.76128
3.7622
3.76576
3.77172
3.77523
3.7781
1.0017
1.0217
1.06601
1.19323
1.42437
1.74961
2.23015
2.73946
3.34449
3.72759
3.92076
4.05806
4.01514
3.93381
3.83597
3.78056
3.72199
3.703
3.67329
3.66103
3.6715
3.69204
3.71304
3.73191
3.75355
3.77078
3.77672
3.77953
3.77782
3.77361
3.7701
3.76921
3.77008
3.77218
3.77465
3.77707
3.77837
3.77722
3.77453
3.77026
3.7659
3.76491
3.76553
3.767
3.77063
3.77618
3.7787
3.77943
1.29387
1.73994
2.31062
2.95842
3.51377
4.17129
4.70696
5.06906
5.33059
5.24554
4.95225
4.49721
4.0766
3.75544
3.65144
3.58078
3.56012
3.58788
3.62891
3.66917
3.69456
3.71273
3.72722
3.7421
3.76226
3.77525
3.77813
3.77836
3.77154
3.76466
3.75943
3.7549
3.75355
3.75559
3.7623
3.776
3.78915
3.79151
3.79058
3.78736
3.77899
3.77146
3.77062
3.77088
3.77247
3.77611
3.77788
3.77707
2.66494
1.67115
1.15338
0.891077
0.666562
0.632541
0.669562
0.740831
0.772948
0.81773
0.926647
1.00584
1.00156
1.00478
1.03274
1.04364
1.04635
1.05653
1.07734
1.07883
1.07419
1.06705
1.06548
1.05933
1.04856
1.04761
1.05091
1.05199
1.05028
1.04678
1.04288
1.03782
1.03574
1.03594
1.0375
1.04148
1.04639
1.04808
1.04837
1.04817
1.04693
1.04709
1.04846
1.05028
1.05121
1.05081
1.0496
1.04851
1.06039
1.23983
1.77889
3.1778
5.30443
7.83522
10.2958
10.1732
9.32754
8.37407
8.05664
7.87271
7.66703
7.48628
7.38149
7.33363
7.25321
7.11242
6.91702
6.60956
6.26054
6.09131
6.01391
5.98171
5.99907
5.95545
5.87227
5.72997
5.4592
5.23292
5.14956
5.09239
5.04768
4.99417
4.92351
4.80939
4.61282
4.47622
4.435
4.41025
4.4031
4.37238
4.32361
4.25509
4.11023
3.88773
3.7683
3.72717
3.69473
3.67292
3.65991
3.6331
3.59957
3.54016
3.42243
3.29232
3.22878
3.18982
3.15422
3.12182
3.08754
3.04071
2.96454
2.89152
2.85906
2.84063
2.82606
2.80768
2.77927
2.723
2.63682
2.56656
2.53015
2.5072
2.49022
2.47591
2.46008
2.43277
2.38249
2.30562
2.24382
2.21598
2.20059
2.18618
2.16959
2.1528
2.13409
2.10309
2.05055
1.9976
1.96657
1.94608
1.92789
1.90881
1.88658
1.87104
1.88595
1.98963
2.33862
3.04198
3.86082
4.58906
5.13885
5.54441
5.57051
5.42423
5.21463
5.16862
5.16591
5.14122
5.10104
5.05415
4.99309
4.88757
4.78021
4.71771
4.67519
4.64602
4.62296
4.60244
4.57753
4.54654
4.49457
4.40287
4.33568
4.31131
4.29318
4.28152
4.26444
4.24104
4.21078
4.14589
4.02909
3.96251
3.94213
3.92559
3.91297
3.90867
3.89803
3.87859
3.85607
3.81176
3.72737
3.64698
3.38813
2.75384
2.13114
1.80828
1.49458
1.20247
1.13632
1.06261
0.973365
0.94866
0.953225
0.938326
0.922963
0.92807
0.952475
0.981779
0.995303
1.0103
1.03787
1.0434
1.04044
1.04087
1.04716
1.04808
1.04656
1.04722
1.05335
1.05564
1.05371
1.05057
1.04766
1.04407
1.04268
1.04203
1.04265
1.04569
1.04792
1.04825
1.04829
1.04789
1.04697
1.04659
1.04746
1.04864
1.04843
1.04702
1.04689
1.05769
1.25228
1.97825
2.7441
3.22201
3.98562
4.83849
6.67405
8.05707
8.59954
8.41909
8.21431
7.94744
7.68981
7.51733
7.41057
7.30559
7.19846
7.06867
6.90993
6.67799
6.39959
6.18563
6.05801
5.97812
5.92469
5.87821
5.79939
5.68871
5.50601
5.29521
5.17681
5.10696
5.04557
4.99064
4.93062
4.84233
4.69119
4.51809
4.42253
4.38008
4.34689
4.32158
4.27939
4.22059
4.12037
3.95
3.80582
3.74636
3.71338
3.6833
3.65009
3.6193
3.58633
3.53833
3.44335
3.3159
3.24394
3.21255
3.18554
3.15094
3.10854
3.0559
2.98595
2.92335
2.88211
2.84545
2.81654
2.79694
2.77151
2.72362
2.64834
2.58589
2.54952
2.52051
2.49162
2.46881
2.45298
2.4358
2.39452
2.32307
2.26284
2.22748
2.20496
2.18999
2.18076
2.17079
2.15292
2.12233
2.07406
2.0262
1.99474
1.97358
1.95269
1.93375
1.92483
1.95155
2.09476
2.39939
2.82355
3.15063
3.47788
3.96407
4.39431
4.72854
4.90696
5.07305
5.17256
5.21817
5.23356
5.18925
5.13115
5.0765
5.00686
4.90003
4.79463
4.72792
4.69097
4.66769
4.64751
4.62299
4.59283
4.55686
4.50478
4.42161
4.35448
4.33006
4.30915
4.29352
4.27459
4.24956
4.21591
4.15593
4.05693
3.98643
3.96521
3.94881
3.93337
3.92426
3.91094
3.8907
3.86636
3.82337
3.74897
3.66928
3.66401
3.34621
2.84749
2.3762
1.99946
1.63197
1.42012
1.28182
1.10323
0.993362
0.985268
0.951677
0.920773
0.924042
0.936562
0.948083
0.955856
0.970385
0.99683
1.01474
1.01948
1.0241
1.03325
1.03838
1.03991
1.046
1.05557
1.05897
1.05876
1.05647
1.05104
1.04668
1.04553
1.04525
1.04629
1.0474
1.0471
1.04679
1.04593
1.04487
1.04462
1.04493
1.04669
1.04846
1.0479
1.04973
1.06897
1.24753
2.12717
2.92159
3.31584
3.43809
3.49511
3.57243
4.13117
5.90947
7.85524
8.56398
8.42807
8.05913
7.74745
7.5843
7.40408
7.19041
7.02877
6.92124
6.81042
6.67494
6.51938
6.35235
6.16607
5.98383
5.87638
5.79167
5.68943
5.57748
5.46757
5.34344
5.21761
5.13313
5.06239
4.98674
4.90303
4.81156
4.70822
4.57072
4.43473
4.36752
4.32265
4.26913
4.20891
4.14151
4.06707
3.98569
3.88412
3.78478
3.72218
3.68768
3.65768
3.61991
3.56366
3.47761
3.38566
3.3266
3.28132
3.23533
3.18163
3.12769
3.0704
3.01458
2.98503
2.95901
2.92107
2.87967
2.83514
2.78217
2.72948
2.67608
2.62301
2.58713
2.55946
2.52913
2.49787
2.47332
2.44529
2.40553
2.35598
2.29992
2.25763
2.23318
2.2161
2.19965
2.17623
2.15018
2.12539
2.0938
2.05331
2.01705
1.98833
1.96885
1.96264
1.96362
2.00971
2.21969
2.60512
2.9356
3.22795
3.30673
3.35035
3.42455
3.6176
3.92657
4.39149
4.82661
5.05689
5.23125
5.26434
5.21911
5.12906
5.05853
4.97952
4.86889
4.77679
4.72952
4.69946
4.66754
4.63415
4.6043
4.57255
4.53957
4.50206
4.44807
4.36403
4.29949
4.27483
4.25392
4.23431
4.21245
4.18362
4.14004
4.08506
4.01465
3.95385
3.92794
3.91116
3.89525
3.87777
3.85812
3.83575
3.80134
3.74554
3.66001
3.75598
3.62638
3.31956
2.89983
2.5076
2.11402
1.81639
1.62576
1.42314
1.2331
1.18203
1.11256
1.00971
0.995324
0.99014
0.967407
0.946932
0.949639
0.954008
0.956121
0.961013
0.970951
0.991306
1.01445
1.02783
1.03991
1.0496
1.05125
1.05254
1.05151
1.04731
1.0467
1.04879
1.05384
1.05731
1.05701
1.05524
1.05232
1.04825
1.04668
1.04669
1.04695
1.04754
1.04859
1.05434
1.11313
1.35128
2.14041
3.19151
3.33307
3.41821
3.47443
3.49162
3.40492
3.35268
3.64891
4.97849
7.0961
7.83652
7.9364
7.87257
7.71047
7.44562
7.14934
6.92642
6.81674
6.73409
6.65564
6.56542
6.44906
6.28039
6.06087
5.84712
5.7181
5.61548
5.51627
5.43939
5.37724
5.2887
5.15958
5.0394
4.95079
4.87344
4.80667
4.74004
4.6421
4.50628
4.365
4.27654
4.21141
4.14595
4.08209
4.03071
3.99159
3.94226
3.86675
3.77642
3.69228
3.62848
3.57238
3.5086
3.43966
3.37407
3.3238
3.28479
3.24102
3.19052
3.13286
3.07221
3.02193
2.97847
2.93688
2.89942
2.86243
2.81735
2.75112
2.68749
2.65567
2.63841
2.6194
2.59564
2.56713
2.53402
2.48865
2.43136
2.37536
2.33315
2.30497
2.28354
2.26393
2.24442
2.22029
2.18809
2.14924
2.11103
2.0798
2.05504
2.02412
2.00181
1.9867
2.01349
2.12878
2.426
2.85626
3.18538
3.30595
3.34534
3.3347
3.31137
3.29245
3.30537
3.37281
3.64117
4.09938
4.60246
4.94489
5.11627
5.11743
5.09848
5.04589
4.94587
4.83779
4.7851
4.76049
4.73487
4.69538
4.64727
4.60791
4.57853
4.5508
4.51882
4.46903
4.38462
4.30315
4.26851
4.24235
4.21452
4.19041
4.17021
4.14904
4.11228
4.04633
3.9715
3.92785
3.90973
3.89102
3.86853
3.84498
3.82065
3.79089
3.7477
3.66369
3.77218
3.74028
3.59187
3.2977
2.96275
2.55697
2.21739
1.99038
1.74005
1.50218
1.38486
1.28869
1.14934
1.08436
1.05429
1.00445
0.957145
0.956736
0.95688
0.947193
0.948407
0.954295
0.965433
0.98461
1.00762
1.02482
1.03429
1.03658
1.03976
1.04226
1.0407
1.0401
1.04623
1.05566
1.05724
1.05676
1.05526
1.05286
1.05074
1.05073
1.05171
1.05298
1.05254
1.05646
1.15384
1.64759
2.33924
3.21674
3.51585
3.46049
3.42764
3.43399
3.44758
3.4085
3.31026
3.23874
3.3415
4.26296
6.05805
7.45984
7.88186
7.80402
7.49477
7.18864
6.91855
6.74185
6.63944
6.56215
6.50328
6.41627
6.31691
6.141
5.88297
5.66906
5.57426
5.49836
5.42426
5.34587
5.26301
5.15072
5.00967
4.91212
4.84409
4.77953
4.71092
4.63806
4.53866
4.38195
4.22696
4.14866
4.09683
4.05652
4.01992
3.98838
3.96661
3.92991
3.84685
3.70813
3.58541
3.50455
3.4459
3.40862
3.38444
3.36
3.32716
3.28371
3.21679
3.13181
3.0599
3.00935
2.97102
2.93914
2.90489
2.8599
2.79957
2.73338
2.68073
2.64417
2.61631
2.59437
2.57264
2.54645
2.51201
2.46345
2.40642
2.36143
2.32789
2.29878
2.27302
2.25073
2.23037
2.2122
2.19344
2.16017
2.11141
2.06888
2.04476
2.02767
2.02914
2.07675
2.29885
2.65901
3.12936
3.36394
3.38282
3.38704
3.3567
3.31615
3.29637
3.27837
3.27374
3.27545
3.3201
3.47987
3.82984
4.28761
4.74847
5.02184
5.06553
4.99533
4.87901
4.83632
4.81834
4.78975
4.74267
4.68157
4.61866
4.58459
4.56442
4.53769
4.50271
4.46285
4.40954
4.33004
4.25475
4.22236
4.19678
4.17255
4.15001
4.12578
4.09859
4.067
4.01215
3.94918
3.90811
3.88741
3.86521
3.839
3.80827
3.7714
3.73501
3.67364
3.77441
3.75884
3.71208
3.5508
3.30903
2.9723
2.60317
2.336
2.08045
1.82713
1.66491
1.53495
1.36989
1.26754
1.21235
1.14644
1.05894
1.0413
1.01882
0.981486
0.968492
0.970898
0.970658
0.967769
0.973607
0.986364
0.992436
0.998334
1.00671
1.01859
1.02598
1.03059
1.04174
1.05249
1.05404
1.05433
1.05382
1.05132
1.05133
1.05257
1.05474
1.05609
1.06173
1.1513
1.81784
2.71081
3.2857
3.55898
3.56507
3.49596
3.39662
3.35065
3.34835
3.3623
3.31058
3.23087
3.13894
3.15588
3.67578
5.21201
6.84387
7.42434
7.43243
7.26918
7.00499
6.71073
6.53233
6.44749
6.41639
6.38138
6.28322
6.1534
5.92701
5.67932
5.55875
5.48637
5.41174
5.33718
5.25759
5.14547
4.98259
4.8684
4.80824
4.75233
4.69874
4.64241
4.55844
4.40381
4.2169
4.11709
4.07564
4.04345
4.03117
4.01376
3.97507
3.92066
3.82689
3.67044
3.54262
3.48019
3.43908
3.40411
3.36913
3.33411
3.29798
3.25482
3.19109
3.11149
3.05154
3.00898
2.9725
2.93811
2.90237
2.85297
2.78252
2.7175
2.67603
2.64675
2.62042
2.59505
2.57389
2.5527
2.51263
2.44551
2.38585
2.34978
2.32397
2.30125
2.27911
2.25762
2.23637
2.21399
2.18356
2.13913
2.09438
2.0699
2.05452
2.06568
2.16957
2.4801
2.94088
3.25176
3.46982
3.53371
3.52357
3.48776
3.40269
3.33021
3.29956
3.28447
3.27348
3.25894
3.25662
3.25973
3.31699
3.48733
3.85511
4.37879
4.73543
4.80034
4.84106
4.88081
4.88863
4.85138
4.77757
4.69784
4.61051
4.55951
4.53852
4.51958
4.49058
4.45935
4.42235
4.3546
4.25665
4.20341
4.18029
4.15781
4.13659
4.117
4.09367
4.06319
4.02651
3.97278
3.91743
3.88195
3.85564
3.82672
3.79415
3.7608
3.731
3.67332
3.76454
3.75911
3.73502
3.67258
3.5311
3.27046
2.96944
2.69024
2.38934
2.13674
1.95174
1.7909
1.61298
1.48456
1.3895
1.29139
1.17853
1.13088
1.0926
1.03556
0.989905
0.990214
0.983649
0.972268
0.976359
0.980308
0.976945
0.974168
0.976645
0.984778
0.999906