/*--------------------------------*- C++ -*----------------------------------*\
  =========                 |
  \\      /  F ield         | OpenFOAM: The Open Source CFD Toolbox
   \\    /   O peration     | Website:  https://openfoam.org
    \\  /    A nd           | Version:  7
     \\/     M anipulation  |
\*---------------------------------------------------------------------------*/
FoamFile
{
    version     2.0;
    format      ascii;
    class       volScalarField;
    location    "3.9";
    object      T;
}
// * * * * * * * * * * * * * * * * * * * * * * * * * * * * * * * * * * * * * //

dimensions      [0 0 0 1 0 0 0];

internalField   nonuniform List<scalar> 
18432
(
1
1
1
1
1
1
1
1
1
1
1
1
1
1
1
1
1
1
1
1
1
1
1
1
1
1
1
1
1
1
1
1
1
1
1
1
1
1
1
1
1
1
1
1
1
1
1
1
1
1
1
1
1
1
1
1
1
1
1
1
1
1
1
1
1
1
1
1
1
1
1
1
1
1
1
1
1
1
1
1
1
1
1
1
1
1
1
1
1
1
1
1
1
1
1
1
1
1
1
1
1
1
1
1
1
1
1
1
1
1
1
1
1
1
1
1
1
1
1
1
1
1
1
1
1
1
1
1
1
1
1
1
1
1
1
1
1
1
1
1
1
1
1
1
1
1
1
1
1
1
1
1
1
1
1
1
1
1
1
1
1
1
1
1
1
1
1
1
1
1
1
1
1
1
1
1
1
1
1
1
1
1
1
1
1
1
1
1
1
1
1
1
1
1
1
1
1
1
1
1
1
1
1
1
1
1
1
1
1
1
1
1
1
1
1
1
1
1
1
1
1
1
1
1
1
1
1
1
1
1
1
1
1
1
1
1
1
1
1
1
1
1
1
1
1
1
1
1
1
1
1
1
1
1
1
1
1
1
1
1
1
1
1
1
1
1
1
1
1
1
1
1
1
1
1
1
1
1
1
1
1
1
1
1
1
1
1
1
1
1
1
1
1
1
1
1
1
1
1
1
1
1
1
1
1
1
1
1
1
1
1
1
1
1
1
1
1
1
1
1
1
1
1
1
1
1
1
1
1
1
1
1
1
1
1
1
1
1
1
1
1
1
1
1
1
1
1
1
1
1
1
1
1
1
1
1
1
1
1
1
1
1
1
1
1
1
1
1
1
1
1
1
1
1
1
1
1
1
1
1
1
1
1
1
1
1
1
1
1
1
1
1
1
1
1
1
1
1
1
1
1
1
1
1
1
1
1
1
1
1
1
1
1
1
1
1
1
1
1
1
1
1
1
1
1
1
1
1
1
1
1
1
1
1
1
1
1
1
1
1
1
1
1
1
1
1
1
1
1
1
1
1
1
1
1
1
1
1
1
1
1
1
1
1
1
1
1
1
1
1
1
1
1
1
1
1
1
1
1
1
1
1
1
1
1
1
1
1
1
1
1
1
1
1
1
1
1
1
1
1
1
1
1
1
1
1
1
1
1
1
1
1
1
1
1
1
1
1
1
1
1
1
1
1
1
1
1
1
1
1
1
1
1
1
1
1
1
1
1
1
1
1
1
1
1
1
1
1
1
1
1
1
1
1
1
1
1
1
1
1
1
1
1
1
1
1
1
1
1
1
1
1
1
1
1
1
1
1
1
1
1
1
1
1
1
1
1
1
1
1
1
1
1
1
1
1
1
1
1
1
1
1
1
1
1
1
1
1
1
1
1
1
1
1
1
1
1
1
1
1
1
1
1
1
1
1
1
1
1
1
1
1
1
1
1
1
1
1
1
1
1
1
1
1
1
1
1
1
1
1
1
1
1
1
1
1
1
1
1
1
1
1
1
1
1
1
1
1
1
1
1
1
1
1
1
1
1
1
1
1
1
1
1
1
1
1
1
1
1
1
1
1
1
1
1
1
1
1
1
1
1
1
1
1
1
1
1
1
1
1
1
1
1
1
1
1
1
1
1
1
1
1
1
1
1
1
1
1
1
1
1
1
1
1
1
1
1
1
1
1
1
1
1
1
1
1
1
1
1
1
1
1
1
1
1
1
1
1
1
1
1
1
1
1
1
1
1
1
1
1
1
1
1
1
1
1
1
1
1
1
1
1
1
1
1
1
1
1
1
1
1
1
1
1
1
1
1
1
1
1
1
1
1
1
1
1
1
1
1
1
1
1
1
1
1
1
1
1
1
1
1
1
1
1
1
1
1
1
1
1
1
1
1
1
1
1
1
1
1
1
1
1
1
1
1
1
1
1
1
1
1
1
1
1
1
1
1
1
1
1
1
1
1
1
1
1
1
1
1
1
1
1
1
1
1
1
1
1
1
1
1
1
1
1
1
1
1
1
1
1
1
1
1
1
1
1
1
1
1
1
1
1
1
1
1
1
1
1
1
1
1
1
1
1
1
1
1
1
1
1
1
1
1
1
1
1
1
1
1
1
1
1
1
1
1
1
1
1
1
1
1
1
1
1
1
1
1
1
1
1
1
1
1
1
1
1
1
1
1
1
1
1
1
1
1
1
1
1
1
1
1
1
1
1
1
1
1
1
1
1
1
1
1
1
1
1
1
1
1
1
1
1
1
1
1
1
1
1
1
1
1
1
1
1
1
1
1
1
1
1
1
1
1
1
1
1
1
1
1
1
1
1
1
1
1
1
1
1
1
1
1
1
1
1
1
1
1
1
1
1
1
1
1
1
1
1
1
1
1
1
1
1
1
1
1
1
1
1
1
1
1
1
1
1
1
1
1
1
1
1
1
1
1
1
1
1
1
1
1
1
1
1
1
1
1
1
1
1
1
1
1
1
1
1
1
1
1
1
1
1
1
1
1
1
1
1
1
1
1
1
1
1
1
1
1
1
1
1
1
1
1
1
1
1
1
1
1
1
1
1
1
1
1
1
1
1
1
1
1
1
1
1
1
1
1
1
1
1
1
1
1
1
1
1
1
1
1
1
1
1
1
1
1
1
1
1
1
1
1
1
1
1
1
1
1
1
1
1
1
1
1
1
1
1
1
1
1
1
1
1
1
1
1
1
1
1
1
1
1
1
1
1
1
1
1
1
1
1
1
1
1
1
1
1
1
1
1
1
1
1
1
1
1
1
1
1
1
1
1
1
1
1
1
1
1
1
1
1
1
1
1
1
1
1
1
1
1
1
1
1
1
1
1
1
1
1
1
1
1
1
1
1
1
1
1
1
1
1
1
1
1
1
1
1
1
1
1
1
1
1
1
1
1
1
1
1
1
1
1
1
1
1
1
1
1
1
1
1
1
1
1
1
1
1
1
1
1
1
1
1
1
1
1
1
1
1
1
1
1
1
1
1
1
1
1
1
1
1
1
1
1
1
1
1
1
1
1
1
1
1
1
1
1
1
1
1
1
1
1
1
1
1
1
1
1
1
1
1
1
1
1
1
1
1
1
1
1
1
1
1
1
1
1
1
1
1
1
1
1
1
1
1
1
1
1
1
1
1
1
1
1
1
1
1
1
1
1
1
1
1
1
1
1
1
1
1
1
1
1
1
1
1
1
1
1
1
1
1
1
1
1
1
1
1
1
1
1
1
1
1
1
1
1
1
1
1
1
1
1
1
1
1
1
1
1
1
1
1
1
1
1
1
1
1
1
1
1
1
1
1
1
1
1
1
1
1
1
1
1
1
1
1
1
1
1
1
1
1
1
1
1
1
1
1
1
1
1
1
1
1
1
1
1
1
1
1
1
1
1
1
1
1
1
1
1
1
1
1
1
1
1
1
1
1
1
1
1
1
1
1
1
1
1
1
1
1
1
1
1
1
1
1
1
1
1
1
1
1
1
1
1
1
1
1
1
1
1
1
1
1
1
1
1
1
1
1
1
1
1
1
1
1
1
1
1
1
1
1
1
1
1
1
1
1
1
1
1
1
1
1
1
1
1
1
1
1
1
1
1
1
1
1
1
1
1
1
1
1
1
1
1
1
1
1
1
1
1
1
1
1
1
1
1
1
1
1
1
1
1
1
1
1
1
1
1
1
1
1
1
1
1
1
1
1
1
1
1
1
1
1
1
1
1
1
1
1
1
1
1
1
1
1
1
1
1
1
1
1
1
1
1
1
1
1
1
1
1
1
1
1
1
1
1
1
1
1
1
1
1
1
1
1
1
1
1
1
1
1
1
1
1
1
1
1
1
1
1
1
1
1
1
1
1
1
1
1
1
1
1
1
1
1
1
1
1
1
1
1
1
1
1
1
1
1
1
1
1
1
1
1
1
1
1
1
1
1
1
1
1
1
1
1
1
1
1
1
1
1
1
1
1
1
1
1
1
1
1
1
1
1
1
1
1
1
1
1
1
1
1
1
1
1
1
1
1
1
1
1
1
1
1
1
1
1
1
1
1
1
1
1
1
1
1
1
1
1
1
1
1
1
1
1
1
1
1
1
1
1
1
1
1
1
1
1
1
1
1
1
1
1
1
1
1
1
1
1
1
1
1
1
1
1
1
1
1
1
1
1
1
1
1
1
1
1
1
1
1
1
1
1
1
1
1
1
1
1
1
1
1
1
1
1
1
1
1
1
1
1
1
1
1
1
1
1
1
1
1
1
1
1
1
1
1
1
1
1
1
1
1
1
1
1
1
1
1
1
1
1
1
1
1
1
1
1
1
1
1
1
1
1
1
1
1
1
1
1
1
1
1
1
1
1
1
1
1
1
1
1
1
1
1
1
1
1
1
1
1
1
1
1
1
1
1
1
1
1
1
1
1
1
1
1
1
1
1
1
1
1
1
1
1
1
1
1
1
1
1
1
1
1
1
1
1
1
1
1
1
1
1
1
1
1
1
1
1
1
1
1
1
1
1
1
1
1
1
1
1
1
1
1
1
1
1
1
1
1
1
1
1
1
1
1
1
1
1
1
1
1
1
1
1
1
1
1
1
1
1
1
1
1
1
1
1
1
1
1
1
1
1
1
1
1
1
1
1
1
1
1
1
1
1
1
1
1
1
1
1
1
1
1
1
1
1
1
1
1
1
1
1
1
1
1
1
1
1
1
1
1
1
1
1
1
1
1
1
1
1
1
1
1
1
1
1
1
1
1
1
1
1
1
1
1
1
1
1
1
1
1
1
1
1
1
1
1
1
1
1
1
1
1
1
1
1
1
1
1
1
1
1
1
1
1
1
1
1
1
1
1
1
1
1
1
1
1
1
1
1
1
1
1
1
1
1
1
1
1
1
1
1
1
1
1
1
1
1
1
1
1
1
1
1
1
1
1
1
1
1
1
1
1
1
1
1
1
1
1
1
1
1
1
1
1
1
1
1
1
1
1
1
1
1
1
1
1
1
1
1
1
1
1
1
1
1
1
1
1
1
1
1
1
1
1
1
1
1
1
1
1
1
1
1
1
1
1
1
1
1
1
1
1
1
1
1
1
1
1
1
1
1
1
1
1
1
1
1
1
1
1
1
1
1
1
1
1
1
1
1
1
1
1
1
1
1
1
1
1
1
1
1
1
1
1
1
1
1
1
1
1
1
1
1
1
1
1
1
1
1
1
1
1
1
1
1
1
1
1
1
1
1
1
1
1
1
1
1
1
1
1
1
1
1
1
1
1
1
1
1
1
1
1
1
1
1
1
1
1
1
1
1
1
1
1
1
1
1
1
1
1
1
1
1
1
1
1
1
1
1
1
1
1
1
1
1
1
1
1
1
1
1
1
1
1
1
1
1
1
1
1
1
1
1
1
1
1
1
1
1
1
1
1
1
1
1
1
1
1
1
1
1
1
1
1
1
1
1
1
1
1
1
1
1
1
1
1
1
1
1
1
1
1
1
1
1
1
1
1
1
1
1
1
1
1
1
1
1
1
1
1
1
1
1
1
1
1
1
1
1
1
1
1
1
1
1
1
1
1
1
1
1
1
1
1
1
1
1
1
1
1
1
1
1
1
1
1
1
1
1
1
1
1
1
1
1
1
1
1
1
1
1
1
1
1
1
1
1
1
1
1
1
1
1
1
1
1
1
1
1
1
1
1
1
1
1
1
1
1
1
1
1
1
1
1
1
1
1
1
1
1
1
1
1
1
1
1
1
1
1
1
1
1
1
1
1
1
1
1
1
1
1
1
1
1
1
1
1
1
1
1
1
1
1
1
1
1
1
1
1
1
1
1
1
1
1
1
1
1
1
1
1
1
1
1
1
1
1
1
1
1
1
1
1
1
1
1
1
1
1
1
1
1
1
1
1
1
1
1
1
1
1
1
1
1
1
1
1
1
1
1
1
1
1
1
1
1
1
1
1
1
1
1
1
1
1
1
1
1
1
1
1
1
1
1
1
1
1
1
1
1
1
1
1
1
1
1
1
1
1
1
1
1
1
1
1
1
1
1
1
1
1
1
1
1
1
1
1
1
1
1
1
1
1
1
1
1
1
1
1
1
1
1
1
1
1
1
1
1
1
1
1
1
1
1
1
1
1
1
1
1
1
1
1
1
1
1
1
1
1
1
1
1
1
1
1
1
1
1
1
1
1
1
1
1
1
1
1
1
1
1
1
1
1
1
1
1
1
1
1
1
1
1
1
1
1
1
1
1
1
1
1
1
1
1
1
1
1
1
1
1
1
1
1
1
1
1
1
1
1
1
1
1
1
1
1
1
1
1
1
1
1
1
1
1
1
1
1
1
1
1
1
1
1
1
1
1
1
1
1
1
1
1
1
1
1
1
1
1
1
1
1
1
1
1
1
1
1
1
1
1
1
1
1
1
1
1
1
1
1
1
1
1
1
1
1
1
1
1
1
1
1
1
1
1
1
1
1
1
1
1
1
1
1
1
1
1
1
1
1
1
1
1
1
1
1
1
1
1
1
1
1
1
1
1
1
1
1
1
1
1
1
1
1
1
1
1
1
1
1
1
1
1
1
1
1
1
1
1
1
1
1
1
1
1
1
1
1
1
1
1
1
1
1
1
1
1
1
1
1
1
1
1
1
1
1
1
1
1
1
1
1
1
1
1
1
1
1
1
1
1
1
1
1
1
1
1
1
1
1
1
1
1
1
1
1
1
1
1
1
1
1
1
1
1
1
1
1
1
1
1
1
1
1
1
1
1
1
1
1
1
1
1
1
1
1
1
1
1
1
1
1
1
1
1
1
1
1
1
1
1
1
1
1
1
1
1
1
1
1
1
1
1
1
1
1
1
1
1
1
1
1
1
1
1
1
1
1
1
1
1
1
1
1
1
1
1
1
1
1
1
1
1
1
1
1
1
1
1
1
1
1
1
1
1
1
1
1
1
1
1
1
1
1
1
1.07885
1.17716
1.28372
1.38912
1.47116
1.55748
1.62309
1.66391
1.69387
1.68923
1.66332
1.61636
1.57151
1.53449
1.5233
1.5164
1.51433
1.51736
1.52187
1.52688
1.53079
1.53397
1.53625
1.53801
1.54002
1.54155
1.54244
1.5431
1.54291
1.54243
1.54181
1.54126
1.54121
1.54177
1.54315
1.5452
1.54687
1.54717
1.54709
1.54673
1.54583
1.54527
1.54536
1.54558
1.54594
1.54646
1.54674
1.5468
1.00054
1.00729
1.02267
1.06556
1.13402
1.21079
1.30157
1.37716
1.45549
1.50496
1.53385
1.55805
1.56261
1.5592
1.55207
1.54768
1.54053
1.53707
1.53185
1.53146
1.5332
1.5363
1.53913
1.54125
1.5434
1.54514
1.54608
1.54697
1.54703
1.5468
1.54632
1.54606
1.54609
1.5464
1.54695
1.5475
1.54773
1.54759
1.54725
1.5467
1.54627
1.54627
1.54647
1.54682
1.54732
1.54793
1.54813
1.54867
1
1
1
0.999994
1.00055
1.00423
1.02232
1.07449
1.18273
1.34802
1.50011
1.58573
1.62004
1.61953
1.61216
1.59962
1.58201
1.56047
1.54585
1.54137
1.54195
1.54456
1.54707
1.54943
1.55157
1.55323
1.55451
1.55578
1.55675
1.55708
1.55713
1.55693
1.55637
1.55603
1.55596
1.55579
1.55533
1.55451
1.55343
1.55238
1.55172
1.55151
1.55148
1.55152
1.55176
1.55219
1.55219
1.55318
1
1
1
1
1
0.999994
1.00001
1.00005
1.00187
1.03065
1.14325
1.34119
1.4817
1.60918
1.61601
1.60378
1.60022
1.59702
1.58426
1.5715
1.56629
1.56421
1.56094
1.56103
1.56283
1.5644
1.56554
1.56677
1.56741
1.568
1.56824
1.56805
1.56745
1.56709
1.56693
1.56667
1.56616
1.56528
1.56401
1.5627
1.56194
1.56161
1.56139
1.56122
1.56115
1.56112
1.56043
1.56127
1
1
1
1
1
1
1
1
1
0.999975
1.00052
1.01835
1.10605
1.29804
1.47546
1.56107
1.62587
1.62665
1.62187
1.60834
1.59593
1.58572
1.57882
1.57621
1.57507
1.57597
1.57682
1.57759
1.57789
1.57824
1.57781
1.57696
1.57597
1.57578
1.57627
1.57641
1.57609
1.57539
1.5743
1.57314
1.57248
1.5723
1.57224
1.57222
1.57217
1.5719
1.57058
1.57116
1
1
1
1
1
1
1
1
1
0.999999
0.999999
0.99998
1.00029
1.00928
1.09562
1.24804
1.44006
1.53088
1.58796
1.60583
1.60552
1.60173
1.59417
1.58868
1.586
1.58314
1.58133
1.58056
1.58091
1.58175
1.58247
1.58253
1.58284
1.58343
1.58386
1.58377
1.58335
1.58268
1.5818
1.58098
1.58061
1.58048
1.58037
1.58038
1.58027
1.57969
1.57799
1.57819
1
1
1
1
1
1
1
1
1
1
1
0.999999
0.999999
0.999985
1.00029
1.00602
1.06436
1.22613
1.39408
1.52334
1.56188
1.58329
1.59006
1.58977
1.58587
1.58022
1.58033
1.58077
1.58003
1.58
1.58091
1.58274
1.58552
1.58738
1.58738
1.58678
1.58605
1.58548
1.58487
1.58423
1.584
1.58373
1.58366
1.58372
1.58357
1.58291
1.58148
1.58136
1
1
1
1
1
1
1
1
1
1
1
1
1
0.999999
0.999999
0.999991
1.00014
1.00623
1.04779
1.2008
1.36068
1.50104
1.55607
1.56625
1.57831
1.57481
1.57319
1.57402
1.5741
1.57432
1.57532
1.57774
1.58087
1.58334
1.58464
1.58463
1.58439
1.5838
1.58327
1.58323
1.58326
1.58329
1.58373
1.58397
1.58394
1.58372
1.58311
1.58297
1
1
1
1
1
1
1
1
1
1
1
1
1
1
1
0.999999
0.999999
0.999993
1.00008
1.00501
1.04347
1.16609
1.34434
1.46882
1.54921
1.56619
1.56885
1.57157
1.57052
1.56954
1.56976
1.57132
1.57347
1.57525
1.57704
1.57847
1.5791
1.57945
1.57978
1.58045
1.58112
1.58168
1.58238
1.58284
1.58307
1.58317
1.58303
1.58284
1
1
1
1
1
1
1
1
1
1
1
1
1
1
1
1
1
1
1
0.999994
1.0001
1.00298
1.0457
1.15785
1.33153
1.44734
1.52528
1.55779
1.56685
1.56709
1.5692
1.5704
1.57018
1.57041
1.57121
1.57284
1.57407
1.5748
1.57552
1.5763
1.57723
1.57833
1.5792
1.57965
1.58023
1.5808
1.58116
1.58096
1
1
1
1
1
1
1
1
1
1
1
1
1
1
1
1
1
1
1
0.999999
0.999999
0.999995
1.00017
1.00314
1.03787
1.16299
1.32018
1.44858
1.50532
1.54186
1.55887
1.56335
1.56322
1.5646
1.56592
1.56672
1.56823
1.56966
1.571
1.57208
1.57337
1.57469
1.57542
1.57603
1.57669
1.57714
1.57759
1.57734
1
1
1
1
1
1
1
1
1
1
1
1
1
1
1
1
1
1
1
1
1
0.999999
1
0.999996
1.00014
1.00444
1.03465
1.16446
1.31804
1.4633
1.51393
1.53221
1.54395
1.55184
1.55521
1.55713
1.55962
1.56223
1.56408
1.56546
1.56674
1.56802
1.5692
1.57014
1.57102
1.57185
1.57272
1.57257
1
1
1
1
1
1
1
1
1
1
1
1
1
1
1
1
1
1
1
1
1
1
1
1
1
0.999997
1.00013
1.00561
1.04135
1.17149
1.34053
1.46733
1.53201
1.54058
1.54622
1.5501
1.55251
1.55482
1.55644
1.55784
1.5592
1.56108
1.56297
1.56399
1.56457
1.56512
1.56569
1.56577
1
1
1
1
1
1
1
1
1
1
1
1
1
1
1
1
1
1
1
1
1
1
1
1
1
1
1
1
1.00023
1.00641
1.06107
1.19276
1.36542
1.47487
1.53305
1.55307
1.55436
1.55804
1.55801
1.55711
1.55694
1.55793
1.55938
1.56036
1.56035
1.55995
1.55993
1.56018
1
1
1
1
1
1
1
1
1
1
1
1
1
1
1
1
1
1
1
1
1
1
1
1
1
1
1
1
0.999999
1
1.0006
1.00899
1.08528
1.23419
1.40203
1.48544
1.53279
1.55392
1.55555
1.55563
1.55686
1.55776
1.55889
1.55936
1.55894
1.55821
1.55803
1.55819
1
1
1
1
1
1
1
1
1
1
1
1
1
1
1
1
1
1
1
1
1
1
1
1
1
1
1
1
1
1
0.999999
1.00001
1.00155
1.01648
1.11914
1.28994
1.4541
1.51131
1.52921
1.54233
1.55082
1.55332
1.55473
1.55572
1.55631
1.55625
1.5564
1.55699
1
1
1
1
1
1
1
1
1
1
1
1
1
1
1
1
1
1
1
1
1
1
1
1
1
1
1
1
1
1
1
1
0.999999
1.00006
1.00386
1.03624
1.17709
1.35545
1.49267
1.54091
1.54502
1.54891
1.55013
1.55105
1.55222
1.55331
1.55411
1.55522
1
1
1
1
1
1
1
1
1
1
1
1
1
1
1
1
1
1
1
1
1
1
1
1
1
1
1
1
1
1
1
1
1
1
1
1.00031
1.01012
1.07834
1.25847
1.42593
1.5191
1.55369
1.55466
1.55748
1.55745
1.55681
1.55562
1.55585
1
1
1
1
1
1
1
1
1
1
1
1
1
1
1
1
1
1
1
1
1
1
1
1
1
1
1
1
1
1
1
1
1
1
1
0.999999
1.00004
1.00152
1.02985
1.15784
1.35367
1.47209
1.53003
1.55674
1.55812
1.55724
1.5572
1.55757
1
1
1
1
1
1
1
1
1
1
1
1
1
1
1
1
1
1
1
1
1
1
1
1
1
1
1
1
1
1
1
1
1
1
1
1
1
1
1.00035
1.00739
1.07843
1.26237
1.45144
1.52459
1.53812
1.5452
1.5511
1.55449
1
1
1
1
1
1
1
1
1
1
1
1
1
1
1
1
1
1
1
1
1
1
1
1
1
1
1
1
1
1
1
1
1
1
1
1
1
1
1
1.00002
1.00236
1.034
1.18351
1.38228
1.51306
1.54875
1.55394
1.55586
1
1
1
1
1
1
1
1
1
1
1
1
1
1
1
1
1
1
1
1
1
1
1
1
1
1
1
1
1
1
1
1
1
1
1
1
1
1
1
1
1
1.00045
1.01447
1.11023
1.32225
1.47684
1.54592
1.56069
1
1
1
1
1
1
1
1
1
1
1
1
1
1
1
1
1
1
1
1
1
1
1
1
1
1
1
1
1
1
1
1
1
1
1
1
1
1
1
1
1
1
1.00014
1.00428
1.0722
1.25669
1.45821
1.50932
1
1
1
1
1
1
1
1
1
1
1
1
1
1
1
1
1
1
1
1
1
1
1
1
1
1
1
1
1
1
1
1
1
1
1
1
1
1
1
1
1
1
1
1.00002
1.00256
1.03238
1.20735
1.39471
1
1
1
1
1
1
1
1
1
1
1
1
1
1
1
1
1
1
1
1
1
1
1
1
1
1
1
1
1
1
1
1
1
1
1
1
1
1
1
1
1
1
1
1
1.00001
1.00056
1.02303
1.13794
1
1
1
1
1
1
1
1
1
1
1
1
1
1
1
1
1
1
1
1
1
1
1
1
1
1
1
1
1
1
1
1
1
1
1
1
1
1
1
1
1
1
1
1
1
1
1.00052
1.00635
1
1
1
1
1
1
1
1
1
1
1
1
1
1
1
1
1
1
1
1
1
1
1
1
1
1
1
1
1
1
1
1
1
1
1
1
1
1
1
1
1
1
1
1
1
1
1.00001
0.999946
1
1
1
1
1
1
1
1
1
1
1
1
1
1
1
1
1
1
1
1
1
1
1
1
1
1
1
1
1
1
1
1
1
1
1
1
1
1
1
1
1
1
1
1
1
1
1
0.999984
1
1
1
1
1
1
1
1
1
1
1
1
1
1
1
1
1
1
1
1
1
1
1
1
1
1
1
1
1
1
1
1
1
1
1
1
1
1
1
1
1
1
1
1
1
1
1
0.999998
1
1
1
1
1
1
1
1
1
1
1
1
1
1
1
1
1
1
1
1
1
1
1
1
1
1
1
1
1
1
1
1
1
1
1
1
1
1
1
1
1
1
1
1
1
1
1
1
1
1
1
1
1
1
1
1
1
1
1
1
1
1
1
1
1
1
1
1
1
1
1
1
1
1
1
1
1
1
1
1
1
1
1
1
1
1
1
1
1
1
1
1
1
1
1
1
1
1
1
1
1
1
1
1
1
1
1
1
1
1
1
1
1
1
1
1
1
1
1
1
1
1
1
1
1
1
1
1
1
1
1
1
1
1
1
1
1
1
1
1
1
1
1
1
1
1
1
1
1
1
1
1
1
1
1
1
1
1
1
1
1
1
1
1
1
1
1
1
1
1
1
1
1
1
1
1
1
1
1
1
1
1
1
1
1
1
1
1
1
1
1
1
1
1
1
1
1
1
1
1
1
1
1
1
1
1
1
1
1
1
1
1
1
1
1
1
1
1
1
1
1
1
1
1
1
1
1
1
1
1
1
1
1
1
1
1
1
1
1
1
1
1
1
1
1
1
1
1
1
1
1
1
1
1
1
1
1
1
1
1
1
1
1
1
1
1
1
1
1
1
1
1
1
1
1
1
1
1
1
1
1
1
1
1
1
1
1
1
1
1
1
1
1
1
1
1
1
1
1
1
1
1
1
1
1
1
1
1
1
1
1
1
1
1
1
1
1
1
1
1
1
1
1
1
1
1
1
1
1
1
1
1
1
1
1
0.999998
1
1
1
1
1
1
1
1
1
1
1
1
1
1
1
1
1
1
1
1
1
1
1
1
1
1
1
1
1
1
1
1
1
1
1
1
1
1
1
1
1
1
1
1
1
1
1
0.999984
1
1
1
1
1
1
1
1
1
1
1
1
1
1
1
1
1
1
1
1
1
1
1
1
1
1
1
1
1
1
1
1
1
1
1
1
1
1
1
1
1
1
1
1
1
1
1.00001
0.999945
1
1
1
1
1
1
1
1
1
1
1
1
1
1
1
1
1
1
1
1
1
1
1
1
1
1
1
1
1
1
1
1
1
1
1
1
1
1
1
1
1
1
1
1
1
1
1.00052
1.00634
1
1
1
1
1
1
1
1
1
1
1
1
1
1
1
1
1
1
1
1
1
1
1
1
1
1
1
1
1
1
1
1
1
1
1
1
1
1
1
1
1
1
1
1
1.00001
1.00056
1.02303
1.13782
1
1
1
1
1
1
1
1
1
1
1
1
1
1
1
1
1
1
1
1
1
1
1
1
1
1
1
1
1
1
1
1
1
1
1
1
1
1
1
1
1
1
1
1.00002
1.00256
1.03238
1.20733
1.3946
1
1
1
1
1
1
1
1
1
1
1
1
1
1
1
1
1
1
1
1
1
1
1
1
1
1
1
1
1
1
1
1
1
1
1
1
1
1
1
1
1
1
1.00014
1.00428
1.0722
1.25674
1.45803
1.50935
1
1
1
1
1
1
1
1
1
1
1
1
1
1
1
1
1
1
1
1
1
1
1
1
1
1
1
1
1
1
1
1
1
1
1
1
1
1
1
1
1
1.00045
1.01446
1.11023
1.3223
1.47683
1.54585
1.56074
1
1
1
1
1
1
1
1
1
1
1
1
1
1
1
1
1
1
1
1
1
1
1
1
1
1
1
1
1
1
1
1
1
1
1
1
1
1
1
1.00002
1.00236
1.034
1.18349
1.38227
1.51309
1.54873
1.55392
1.55587
1
1
1
1
1
1
1
1
1
1
1
1
1
1
1
1
1
1
1
1
1
1
1
1
1
1
1
1
1
1
1
1
1
1
1
1
1
1
1.00035
1.00739
1.07844
1.26237
1.45143
1.52459
1.53813
1.5452
1.55109
1.55449
1
1
1
1
1
1
1
1
1
1
1
1
1
1
1
1
1
1
1
1
1
1
1
1
1
1
1
1
1
1
1
1
1
1
1
0.999999
1.00004
1.00152
1.02985
1.15784
1.35368
1.47208
1.53004
1.55674
1.55812
1.55725
1.5572
1.55756
1
1
1
1
1
1
1
1
1
1
1
1
1
1
1
1
1
1
1
1
1
1
1
1
1
1
1
1
1
1
1
1
1
1
1
1.00031
1.01012
1.07834
1.25847
1.42593
1.5191
1.55369
1.55466
1.55748
1.55746
1.55681
1.55562
1.55585
1
1
1
1
1
1
1
1
1
1
1
1
1
1
1
1
1
1
1
1
1
1
1
1
1
1
1
1
1
1
1
1
0.999999
1.00006
1.00386
1.03624
1.1771
1.35545
1.49267
1.54091
1.54502
1.54891
1.55014
1.55105
1.55222
1.55331
1.55411
1.55522
1
1
1
1
1
1
1
1
1
1
1
1
1
1
1
1
1
1
1
1
1
1
1
1
1
1
1
1
1
1
0.999999
1.00001
1.00155
1.01648
1.11914
1.28994
1.4541
1.51131
1.52921
1.54233
1.55082
1.55332
1.55474
1.55572
1.55631
1.55625
1.5564
1.55699
1
1
1
1
1
1
1
1
1
1
1
1
1
1
1
1
1
1
1
1
1
1
1
1
1
1
1
1
0.999999
1
1.0006
1.00899
1.08528
1.23419
1.40203
1.48544
1.53279
1.55392
1.55555
1.55563
1.55686
1.55776
1.55889
1.55936
1.55894
1.55821
1.55803
1.55819
1
1
1
1
1
1
1
1
1
1
1
1
1
1
1
1
1
1
1
1
1
1
1
1
1
1
1
1
1.00023
1.00641
1.06107
1.19276
1.36542
1.47487
1.53305
1.55307
1.55436
1.55804
1.55801
1.55711
1.55694
1.55793
1.55938
1.56036
1.56035
1.55995
1.55993
1.56018
1
1
1
1
1
1
1
1
1
1
1
1
1
1
1
1
1
1
1
1
1
1
1
1
1
0.999997
1.00013
1.00561
1.04135
1.17149
1.34053
1.46733
1.53201
1.54058
1.54622
1.5501
1.55251
1.55482
1.55644
1.55784
1.5592
1.56108
1.56297
1.56399
1.56457
1.56512
1.56569
1.56577
1
1
1
1
1
1
1
1
1
1
1
1
1
1
1
1
1
1
1
1
1
0.999999
1
0.999996
1.00014
1.00444
1.03465
1.16446
1.31804
1.4633
1.51393
1.53221
1.54395
1.55184
1.55521
1.55713
1.55962
1.56223
1.56408
1.56546
1.56674
1.56802
1.5692
1.57014
1.57102
1.57185
1.57272
1.57257
1
1
1
1
1
1
1
1
1
1
1
1
1
1
1
1
1
1
1
0.999999
0.999999
0.999995
1.00017
1.00314
1.03787
1.16299
1.32018
1.44858
1.50532
1.54186
1.55887
1.56335
1.56322
1.5646
1.56592
1.56672
1.56823
1.56966
1.571
1.57208
1.57337
1.57469
1.57542
1.57603
1.57669
1.57714
1.57759
1.57734
1
1
1
1
1
1
1
1
1
1
1
1
1
1
1
1
1
1
1
0.999994
1.0001
1.00298
1.0457
1.15785
1.33153
1.44734
1.52528
1.55779
1.56685
1.56709
1.5692
1.5704
1.57018
1.57041
1.57121
1.57284
1.57407
1.5748
1.57552
1.5763
1.57723
1.57833
1.5792
1.57965
1.58023
1.5808
1.58116
1.58096
1
1
1
1
1
1
1
1
1
1
1
1
1
1
1
0.999999
0.999999
0.999993
1.00008
1.00501
1.04347
1.16609
1.34434
1.46882
1.54921
1.56619
1.56885
1.57157
1.57052
1.56954
1.56976
1.57132
1.57347
1.57525
1.57704
1.57847
1.5791
1.57945
1.57978
1.58045
1.58112
1.58168
1.58238
1.58284
1.58307
1.58317
1.58303
1.58284
1
1
1
1
1
1
1
1
1
1
1
1
1
0.999999
0.999999
0.999991
1.00014
1.00623
1.04779
1.2008
1.36068
1.50104
1.55607
1.56625
1.57831
1.57481
1.57319
1.57402
1.5741
1.57432
1.57532
1.57774
1.58087
1.58334
1.58464
1.58463
1.58439
1.5838
1.58327
1.58323
1.58326
1.58329
1.58373
1.58397
1.58394
1.58372
1.58311
1.58297
1
1
1
1
1
1
1
1
1
1
1
0.999999
0.999999
0.999985
1.00029
1.00602
1.06436
1.22613
1.39408
1.52334
1.56188
1.58329
1.59006
1.58977
1.58587
1.58022
1.58033
1.58077
1.58003
1.58
1.58091
1.58274
1.58552
1.58738
1.58738
1.58678
1.58605
1.58548
1.58487
1.58423
1.584
1.58373
1.58366
1.58372
1.58357
1.58291
1.58148
1.58136
1
1
1
1
1
1
1
1
1
0.999999
0.999999
0.99998
1.00029
1.00928
1.09562
1.24804
1.44006
1.53088
1.58796
1.60583
1.60552
1.60173
1.59417
1.58868
1.586
1.58314
1.58133
1.58056
1.58091
1.58175
1.58247
1.58253
1.58284
1.58343
1.58386
1.58377
1.58335
1.58268
1.5818
1.58098
1.58061
1.58048
1.58037
1.58038
1.58027
1.57969
1.57799
1.57819
1
1
1
1
1
1
1
1
1
0.999975
1.00052
1.01835
1.10605
1.29804
1.47546
1.56107
1.62587
1.62665
1.62187
1.60834
1.59593
1.58572
1.57882
1.57621
1.57507
1.57597
1.57682
1.57759
1.57789
1.57824
1.57781
1.57696
1.57597
1.57578
1.57627
1.57641
1.57609
1.57539
1.5743
1.57314
1.57248
1.5723
1.57224
1.57222
1.57217
1.5719
1.57058
1.57116
1
1
1
1
1
0.999994
1.00001
1.00005
1.00187
1.03065
1.14325
1.34119
1.4817
1.60918
1.61601
1.60378
1.60022
1.59702
1.58426
1.5715
1.56629
1.56421
1.56094
1.56103
1.56283
1.5644
1.56554
1.56677
1.56741
1.568
1.56824
1.56805
1.56745
1.56709
1.56693
1.56667
1.56616
1.56528
1.56401
1.5627
1.56194
1.56161
1.56139
1.56122
1.56115
1.56112
1.56043
1.56127
1
1
1
0.999994
1.00055
1.00423
1.02232
1.07449
1.18273
1.34802
1.50011
1.58573
1.62004
1.61953
1.61216
1.59962
1.58201
1.56047
1.54585
1.54137
1.54195
1.54456
1.54707
1.54943
1.55157
1.55323
1.55451
1.55578
1.55675
1.55708
1.55713
1.55693
1.55637
1.55603
1.55596
1.55579
1.55533
1.55451
1.55343
1.55238
1.55172
1.55151
1.55148
1.55152
1.55176
1.55219
1.55219
1.55318
1.00054
1.00729
1.02267
1.06556
1.13402
1.21079
1.30157
1.37716
1.45549
1.50496
1.53385
1.55805
1.56261
1.5592
1.55207
1.54768
1.54053
1.53707
1.53185
1.53146
1.5332
1.5363
1.53913
1.54125
1.5434
1.54514
1.54608
1.54697
1.54703
1.5468
1.54632
1.54606
1.54609
1.5464
1.54695
1.5475
1.54773
1.54759
1.54725
1.5467
1.54627
1.54627
1.54647
1.54682
1.54732
1.54793
1.54813
1.54867
1.07885
1.17716
1.28372
1.38912
1.47116
1.55748
1.62309
1.66391
1.69387
1.68923
1.66332
1.61636
1.57151
1.53449
1.5233
1.5164
1.51433
1.51736
1.52187
1.52688
1.53079
1.53397
1.53625
1.53801
1.54002
1.54155
1.54244
1.5431
1.54291
1.54243
1.54181
1.54126
1.54121
1.54177
1.54315
1.5452
1.54687
1.54717
1.54709
1.54673
1.54583
1.54527
1.54536
1.54558
1.54594
1.54646
1.54674
1.5468
1.40449
1.23254
1.11178
1.04854
0.983242
0.97815
0.999653
1.02768
1.03447
1.0492
1.09177
1.11341
1.10932
1.10763
1.11107
1.11213
1.11354
1.11862
1.12398
1.12327
1.12034
1.11649
1.11569
1.11398
1.11067
1.1099
1.11018
1.10998
1.10897
1.10736
1.10598
1.10428
1.10306
1.10268
1.10267
1.10334
1.10474
1.1051
1.10506
1.1048
1.1041
1.10402
1.10404
1.10411
1.1042
1.10399
1.10324
1.10266
1.10651
1.16834
1.31911
1.57212
1.82512
2.05598
2.24506
2.23809
2.1776
2.10989
2.09221
2.07942
2.06296
2.04872
2.04177
2.03925
2.03379
2.0228
2.00647
1.97985
1.94985
1.93586
1.92969
1.92719
1.92912
1.92574
1.91848
1.90527
1.87912
1.85677
1.84847
1.8428
1.8384
1.83305
1.82585
1.81336
1.79145
1.77575
1.77061
1.76755
1.76676
1.76348
1.75805
1.75026
1.73319
1.70597
1.69089
1.68565
1.68161
1.67906
1.67758
1.6744
1.67083
1.66398
1.64852
1.63031
1.62111
1.61523
1.60973
1.60451
1.59907
1.59192
1.58043
1.56938
1.56442
1.56156
1.55917
1.55616
1.55172
1.54276
1.52839
1.51661
1.5108
1.50722
1.50459
1.50233
1.49986
1.49544
1.48672
1.47283
1.46149
1.45656
1.45383
1.45116
1.44809
1.44491
1.44127
1.43511
1.42458
1.41374
1.40717
1.40271
1.39869
1.39456
1.38939
1.3869
1.39045
1.41326
1.48408
1.60553
1.72064
1.80734
1.86611
1.90432
1.91239
1.89792
1.87642
1.87111
1.87081
1.8688
1.86587
1.86217
1.856
1.84353
1.83012
1.82242
1.81769
1.81472
1.8125
1.81081
1.80894
1.80649
1.80151
1.79132
1.78322
1.78
1.77742
1.77555
1.77306
1.77001
1.76639
1.75889
1.74535
1.73773
1.73559
1.73378
1.73249
1.73222
1.7311
1.72867
1.72585
1.72041
1.71018
1.69954
1.50368
1.41908
1.31744
1.25801
1.19435
1.12055
1.10613
1.08576
1.06282
1.06302
1.06864
1.06688
1.06315
1.0643
1.07038
1.07863
1.08397
1.09002
1.09906
1.10058
1.09945
1.09934
1.10089
1.10178
1.10171
1.10211
1.10364
1.10398
1.10318
1.10209
1.10139
1.10038
1.09962
1.09903
1.09898
1.09954
1.10035
1.10059
1.1006
1.10033
1.09975
1.09946
1.09958
1.09967
1.09954
1.09874
1.09899
1.1026
1.16571
1.36903
1.5112
1.56782
1.67165
1.77942
1.96903
2.08695
2.12659
2.11713
2.10703
2.08952
2.06977
2.05655
2.04864
2.04047
2.03199
2.02195
2.00905
1.98923
1.96498
1.94675
1.93627
1.92974
1.92509
1.92098
1.9137
1.90324
1.8855
1.86446
1.85246
1.84546
1.83934
1.83376
1.82767
1.81821
1.80135
1.78165
1.77052
1.7654
1.76152
1.7587
1.75404
1.74742
1.73579
1.71502
1.69693
1.68936
1.68529
1.68167
1.6776
1.67374
1.66987
1.6642
1.65192
1.63408
1.6236
1.61897
1.61485
1.60934
1.60283
1.59507
1.58482
1.57546
1.56912
1.56333
1.55863
1.55545
1.55154
1.54402
1.5316
1.52088
1.51477
1.50994
1.50515
1.50146
1.49903
1.49638
1.48945
1.47677
1.46557
1.45903
1.45487
1.45211
1.45046
1.44853
1.44514
1.4393
1.42985
1.41999
1.41327
1.40868
1.40412
1.3999
1.39815
1.40406
1.43452
1.49383
1.56871
1.62186
1.67016
1.73488
1.7863
1.82246
1.84248
1.86138
1.872
1.87749
1.87963
1.87572
1.87088
1.86613
1.85894
1.84648
1.83354
1.82521
1.82089
1.81848
1.81647
1.81417
1.81165
1.80863
1.80345
1.7941
1.78602
1.78262
1.77965
1.77727
1.77457
1.77141
1.76755
1.76067
1.74912
1.74112
1.73891
1.73703
1.73531
1.73435
1.73279
1.73027
1.72733
1.72225
1.71339
1.70278
1.53836
1.49866
1.43135
1.36016
1.29369
1.21789
1.17197
1.13904
1.09331
1.06235
1.06063
1.05082
1.04197
1.04323
1.04735
1.05195
1.05499
1.06008
1.06866
1.07435
1.07602
1.0777
1.08069
1.08347
1.08508
1.08764
1.09058
1.09193
1.09198
1.09162
1.09051
1.08937
1.08903
1.08896
1.08928
1.08971
1.0898
1.09005
1.0901
1.08977
1.08949
1.08954
1.09005
1.0907
1.09081
1.09176
1.0984
1.15546
1.37867
1.53968
1.59283
1.60037
1.60791
1.62212
1.70695
1.92218
2.1018
2.14579
2.13389
2.10652
2.08404
2.07192
2.05726
2.03969
2.02686
2.01848
2.00974
1.99871
1.98476
1.9693
1.95282
1.93711
1.92768
1.91949
1.90942
1.89809
1.88694
1.87401
1.86068
1.85179
1.84449
1.83673
1.828
1.81854
1.80706
1.79107
1.77572
1.76815
1.76291
1.75671
1.74999
1.74239
1.73362
1.72365
1.71075
1.6979
1.68956
1.68495
1.68124
1.67689
1.67003
1.6589
1.64646
1.63783
1.63086
1.62372
1.61528
1.60692
1.59836
1.59025
1.58626
1.58263
1.57691
1.57042
1.56357
1.5555
1.54728
1.53873
1.53018
1.52406
1.51901
1.51345
1.50786
1.50362
1.49887
1.49221
1.48384
1.47397
1.46617
1.46138
1.45799
1.45476
1.4503
1.4454
1.44064
1.43465
1.42677
1.41896
1.41255
1.40822
1.40643
1.40686
1.41711
1.46045
1.53271
1.5872
1.63335
1.64697
1.65374
1.6645
1.69134
1.7321
1.78973
1.84089
1.86625
1.8843
1.88732
1.88284
1.87408
1.86764
1.85983
1.84744
1.83591
1.82922
1.82483
1.82101
1.81756
1.81468
1.81189
1.80913
1.80546
1.79913
1.78885
1.78076
1.7774
1.77448
1.77171
1.76881
1.76537
1.7604
1.75389
1.74563
1.73848
1.73562
1.73375
1.73194
1.72983
1.72737
1.72464
1.72057
1.71387
1.70247
1.55625
1.53831
1.49813
1.44095
1.381
1.31296
1.25881
1.21968
1.1723
1.12333
1.11016
1.0909
1.06145
1.05776
1.05684
1.05062
1.04546
1.04673
1.04821
1.04874
1.05017
1.05329
1.05973
1.06728
1.072
1.07579
1.07842
1.07934
1.08034
1.08043
1.07979
1.0797
1.08049
1.08233
1.08362
1.0836
1.08323
1.0826
1.08166
1.08141
1.08148
1.08164
1.08197
1.08263
1.08489
1.10516
1.17964
1.36284
1.55617
1.5991
1.61419
1.61659
1.61738
1.60391
1.60493
1.65697
1.84214
2.05564
2.10887
2.11063
2.10734
2.09593
2.07433
2.04999
2.03226
2.02244
2.01472
2.0076
1.99955
1.98883
1.97338
1.95328
1.93382
1.92135
1.91063
1.89977
1.89112
1.88409
1.87452
1.86101
1.84845
1.83922
1.83094
1.82379
1.81653
1.80553
1.79017
1.77415
1.76381
1.75622
1.74873
1.74136
1.73517
1.7303
1.72385
1.71396
1.70178
1.69015
1.68191
1.67534
1.66762
1.65858
1.64942
1.64184
1.63528
1.62761
1.61894
1.6098
1.60079
1.59341
1.58698
1.58095
1.57556
1.57021
1.5636
1.55343
1.5432
1.53799
1.53518
1.53206
1.52774
1.5224
1.51622
1.50825
1.49841
1.4887
1.4813
1.47629
1.47245
1.46865
1.46478
1.4601
1.45406
1.44672
1.43918
1.43314
1.42823
1.42166
1.41668
1.41313
1.41871
1.44279
1.50085
1.57562
1.62923
1.64765
1.6545
1.65335
1.65058
1.64815
1.65024
1.66031
1.69846
1.75977
1.8221
1.86143
1.87763
1.87695
1.8751
1.87074
1.8617
1.8499
1.84234
1.83765
1.83318
1.82802
1.82291
1.81936
1.81683
1.81423
1.8109
1.80508
1.79485
1.78507
1.78067
1.77716
1.7733
1.76984
1.767
1.76443
1.76018
1.75232
1.74341
1.7385
1.73651
1.7343
1.73146
1.72837
1.72522
1.72144
1.71607
1.70501
1.56724
1.56076
1.53972
1.50029
1.45295
1.39036
1.33556
1.29548
1.24439
1.19096
1.16395
1.14032
1.10375
1.08586
1.07717
1.06186
1.04769
1.04805
1.04839
1.04557
1.04585
1.04759
1.05105
1.05722
1.06437
1.06916
1.07134
1.07182
1.07275
1.07403
1.07399
1.07411
1.07623
1.07934
1.07997
1.0799
1.07961
1.07906
1.07861
1.07873
1.07939
1.08
1.08005
1.08143
1.11428
1.26659
1.41059
1.54608
1.61486
1.6198
1.62199
1.62288
1.62314
1.617
1.60309
1.60061
1.62039
1.76159
1.96871
2.09707
2.12333
2.11579
2.09005
2.06604
2.043
2.02632
2.01603
2.00808
2.002
1.99452
1.98595
1.96997
1.94548
1.92435
1.91395
1.90521
1.89667
1.88796
1.87938
1.86779
1.85287
1.84225
1.83483
1.82773
1.82035
1.8125
1.80083
1.78226
1.76412
1.75459
1.74821
1.74337
1.73907
1.73491
1.73175
1.72669
1.71578
1.69759
1.68144
1.67069
1.66279
1.6578
1.6544
1.65048
1.64459
1.6368
1.62607
1.61321
1.60236
1.5948
1.58914
1.58457
1.57979
1.5733
1.56399
1.55314
1.54414
1.53779
1.53303
1.52933
1.5256
1.52098
1.51468
1.50618
1.4962
1.4879
1.4815
1.47605
1.47135
1.46725
1.46348
1.46014
1.45658
1.45013
1.44085
1.43225
1.42717
1.42389
1.42426
1.43421
1.4789
1.54506
1.62001
1.65621
1.66163
1.66458
1.66074
1.65445
1.65121
1.64842
1.64847
1.64962
1.65661
1.68021
1.73005
1.79051
1.84496
1.87314
1.87894
1.87209
1.86011
1.85433
1.85089
1.84618
1.83938
1.83156
1.8248
1.82199
1.8203
1.81745
1.81343
1.80882
1.80249
1.79295
1.78379
1.77941
1.77573
1.77217
1.76897
1.76594
1.76298
1.75941
1.75285
1.74514
1.74005
1.73738
1.73443
1.73091
1.72683
1.722
1.71742
1.70928
1.57559
1.57168
1.56338
1.5407
1.50709
1.45872
1.40379
1.36008
1.31276
1.26346
1.23175
1.20345
1.16328
1.13776
1.12349
1.10515
1.07956
1.07467
1.06827
1.05725
1.05303
1.05375
1.05366
1.05334
1.05532
1.05922
1.06088
1.06243
1.06481
1.06836
1.07087
1.0724
1.07568
1.07884
1.07934
1.07952
1.07949
1.07884
1.0788
1.07921
1.08019
1.08075
1.08259
1.112
1.30639
1.50133
1.58083
1.61947
1.63073
1.62805
1.6228
1.61983
1.61945
1.62022
1.61095
1.60026
1.59046
1.59501
1.68004
1.88351
2.04563
2.08955
2.08995
2.07704
2.05378
2.02797
2.01248
2.00446
2.00038
1.99621
1.98725
1.97605
1.95525
1.93051
1.91729
1.90896
1.9006
1.89256
1.88424
1.87267
1.85553
1.84297
1.83621
1.83008
1.82417
1.81775
1.8079
1.78962
1.76714
1.75481
1.7495
1.74529
1.74354
1.74112
1.73591
1.72866
1.7165
1.69624
1.67886
1.67003
1.66418
1.65928
1.65412
1.6488
1.64298
1.63584
1.62628
1.61458
1.60535
1.59883
1.5935
1.58853
1.58318
1.57553
1.56418
1.55306
1.54574
1.54066
1.53629
1.53206
1.52841
1.52479
1.51798
1.50599
1.4946
1.48749
1.48249
1.47831
1.47442
1.47067
1.46685
1.46252
1.45651
1.44808
1.43943
1.43414
1.43091
1.43347
1.45511
1.51529
1.59491
1.64264
1.67298
1.68578
1.68565
1.68218
1.67098
1.66021
1.65485
1.6523
1.65089
1.64947
1.64993
1.65118
1.66036
1.6865
1.73867
1.80485
1.84716
1.85617
1.85978
1.86207
1.86206
1.85684
1.84733
1.83767
1.82844
1.82344
1.82139
1.81935
1.81601
1.81225
1.80774
1.79963
1.78786
1.78116
1.77789
1.77464
1.77169
1.76925
1.7666
1.76309
1.75859
1.75171
1.74458
1.73998
1.73655
1.73282
1.72855
1.72404
1.71998
1.71198
1.57992
1.57793
1.57336
1.56364
1.54365
1.50735
1.46466
1.42211
1.37151
1.32725
1.29409
1.26194
1.22289
1.19452
1.17253
1.14756
1.11661
1.10389
1.09343
1.07716
1.0633
1.0634
1.06142
1.05811
1.0594
1.06047
1.05916
1.05809
1.05886
1.06158
1.06662
1.0715
1.07633
1.07944
1.07996
1.08041
1.08086
1.0808
1.08055
1.08109
1.08219
1.08696
1.12434
1.29736
1.54374
1.61498
1.63668
1.64565
1.63659
1.62483
1.62272
1.61963
1.61524
1.61244
1.60793
1.5991
1.58917
1.57337
1.56865
1.61138
1.7759
1.95752
2.06479
2.07248
2.05862
2.02768
2.00596
1.99735
1.99242
1.99055
1.98278