/*--------------------------------*- C++ -*----------------------------------*\
  =========                 |
  \\      /  F ield         | OpenFOAM: The Open Source CFD Toolbox
   \\    /   O peration     | Website:  https://openfoam.org
    \\  /    A nd           | Version:  7
     \\/     M anipulation  |
\*---------------------------------------------------------------------------*/
FoamFile
{
    version     2.0;
    format      ascii;
    class       volVectorField;
    location    "3.9";
    object      U;
}
// * * * * * * * * * * * * * * * * * * * * * * * * * * * * * * * * * * * * * //

dimensions      [0 1 -1 0 0 0 0];

internalField   nonuniform List<vector> 
18432
(
(3 -4.04812e-17 0)
(3 6.80147e-17 0)
(3 -5.79615e-17 0)
(3 -2.48244e-16 0)
(3 -5.3413e-16 0)
(3 -5.19284e-16 0)
(3 -2.83045e-16 0)
(3 -8.94856e-17 0)
(3 2.00134e-16 0)
(3 5.46052e-16 0)
(3 1.10707e-15 0)
(3 1.08291e-15 0)
(3 5.75118e-16 0)
(3 6.31478e-16 0)
(3 5.08299e-16 0)
(3 4.95385e-16 0)
(3 1.80863e-16 0)
(3 3.88792e-16 0)
(3 1.89285e-16 0)
(3 -2.84142e-16 0)
(3 -4.94527e-16 0)
(3 -3.17543e-16 0)
(3 9.79661e-17 0)
(3 3.08202e-16 0)
(3 5.94135e-16 0)
(3 7.947e-16 0)
(3 7.93231e-16 0)
(3 5.54028e-16 0)
(3 -2.14463e-16 0)
(3 -4.50685e-16 0)
(3 -4.6077e-16 0)
(3 -6.5491e-17 0)
(3 4.4124e-18 0)
(3 -3.60687e-16 0)
(3 -4.35855e-16 0)
(3 9.04412e-16 0)
(3 1.76502e-15 0)
(3 2.23288e-15 0)
(3 2.01695e-15 0)
(3 1.70906e-15 0)
(3 1.75614e-15 0)
(3 1.77625e-15 0)
(3 1.49429e-15 0)
(3 1.87747e-15 0)
(3 2.2936e-15 0)
(3 1.0039e-15 0)
(3 5.09341e-17 0)
(3 5.95789e-17 0)
(3 -3.70493e-17 0)
(3 2.37024e-16 0)
(3 2.18367e-16 0)
(3 -9.76583e-17 0)
(3 -6.39491e-16 0)
(3 -8.12633e-16 0)
(3 -9.12168e-18 0)
(3 -1.09511e-16 0)
(3 -2.20188e-16 0)
(3 -1.86037e-16 0)
(3 2.59095e-16 0)
(3 7.69191e-16 0)
(3 6.93501e-16 0)
(3 1.32971e-15 0)
(3 1.32106e-15 0)
(3 1.13332e-15 0)
(3 4.36363e-16 0)
(3 6.71639e-16 0)
(3 5.85135e-16 0)
(3 4.01644e-16 0)
(3 -5.07142e-16 0)
(3 -5.70382e-16 0)
(3 -9.04672e-16 0)
(3 -8.62557e-17 0)
(3 6.82004e-16 0)
(3 1.29211e-15 0)
(3 1.64226e-15 0)
(3 8.22573e-16 0)
(3 7.06483e-17 0)
(3 2.42991e-17 0)
(3 -1.6373e-16 0)
(3 2.29864e-16 0)
(3 8.28993e-16 0)
(3 5.62036e-16 0)
(3 -1.26739e-17 0)
(3 9.74125e-16 0)
(3 2.56715e-15 0)
(3 4.0021e-15 0)
(3 2.46302e-15 0)
(3 1.40792e-15 0)
(3 1.45595e-15 0)
(3 1.32615e-15 0)
(3 8.41964e-16 0)
(3 9.87243e-16 0)
(3 9.00366e-16 0)
(3 3.93381e-16 0)
(3 3.1619e-16 0)
(3 9.828e-16 0)
(3 -6.4224e-18 0)
(3 2.0433e-17 0)
(3 -3.68308e-17 0)
(3 -7.38638e-17 0)
(3 1.23779e-16 0)
(3 2.3832e-16 0)
(3 5.0449e-16 0)
(3 3.37808e-16 0)
(3 -5.59426e-17 0)
(3 -3.10815e-16 0)
(3 -1.43685e-16 0)
(3 3.18187e-17 0)
(3 6.39815e-16 0)
(3 1.16707e-15 0)
(3 1.47223e-15 0)
(3 1.00083e-15 0)
(3 3.17794e-16 0)
(3 3.63492e-16 0)
(3 1.04096e-15 0)
(3 1.62874e-15 0)
(3 8.45833e-16 0)
(3 -3.16399e-16 0)
(3 -1.16676e-15 0)
(3 -8.85802e-16 0)
(3 -3.88349e-16 0)
(3 3.85023e-16 0)
(3 2.31401e-16 0)
(3 -1.63716e-16 0)
(3 3.34193e-16 0)
(3 5.26918e-16 0)
(3 1.51719e-15 0)
(3 2.43229e-15 0)
(3 2.58593e-15 0)
(3 2.8376e-15 0)
(3 2.2822e-15 0)
(3 1.84783e-15 0)
(3 2.14177e-15 0)
(3 2.92076e-15 0)
(3 2.31606e-15 0)
(3 1.93434e-15 0)
(3 1.31069e-15 0)
(3 5.83856e-17 0)
(3 -5.89367e-16 0)
(3 -8.98789e-16 0)
(3 -8.772e-16 0)
(3 -3.14998e-16 0)
(3 1.19216e-16 0)
(3 -5.82031e-16 0)
(3 -1.91173e-16 0)
(3 -1.37106e-16 0)
(3 -3.12312e-16 0)
(3 -3.33565e-16 0)
(3 1.60986e-16 0)
(3 5.68013e-16 0)
(3 5.23795e-16 0)
(3 5.65013e-16 0)
(3 3.86718e-16 0)
(3 4.75454e-16 0)
(3 9.85615e-16 0)
(3 7.58756e-16 0)
(3 5.66491e-16 0)
(3 4.76783e-16 0)
(3 3.80254e-16 0)
(3 1.79685e-17 0)
(3 -7.11438e-16 0)
(3 -7.34327e-16 0)
(3 -3.7719e-16 0)
(3 -3.6289e-16 0)
(3 -3.08173e-16 0)
(3 -5.22983e-16 0)
(3 -4.43053e-16 0)
(3 -3.65545e-16 0)
(3 -4.09241e-17 0)
(3 5.98387e-17 0)
(3 3.59007e-17 0)
(3 3.12452e-16 0)
(3 8.03459e-16 0)
(3 1.28829e-15 0)
(3 2.44378e-15 0)
(3 2.41488e-15 0)
(3 2.21466e-15 0)
(3 2.42154e-15 0)
(3 2.15625e-15 0)
(3 1.11507e-15 0)
(3 5.42613e-17 0)
(3 -1.44098e-15 0)
(3 -4.52802e-16 0)
(3 3.65424e-16 0)
(3 8.57358e-16 0)
(3 8.54978e-16 0)
(3 5.04121e-16 0)
(3 6.37287e-17 0)
(3 -3.36513e-16 0)
(3 -1.1548e-15 0)
(3 -5.01993e-16 0)
(3 -1.23004e-15 0)
(3 -1.93443e-16 0)
(3 -2.95257e-16 0)
(3 -4.68498e-16 0)
(3 -4.04462e-16 0)
(3 -1.82805e-16 0)
(3 1.96894e-16 0)
(3 3.44618e-16 0)
(3 1.3256e-15 0)
(3 1.49745e-15 0)
(3 1.32174e-15 0)
(3 9.94787e-16 0)
(3 8.63951e-16 0)
(3 3.57878e-16 0)
(3 -3.98039e-17 0)
(3 -4.21093e-17 0)
(3 -4.16847e-16 0)
(3 -1.36687e-15 0)
(3 -3.05447e-15 0)
(3 -3.92815e-15 0)
(3 -3.3123e-15 0)
(3 -1.42882e-15 0)
(3 -5.05139e-16 0)
(3 -5.87358e-16 0)
(3 -1.06461e-15 0)
(3 -7.03612e-16 0)
(3 -2.38839e-16 0)
(3 1.87516e-17 0)
(3 1.03836e-15 0)
(3 1.59961e-15 0)
(3 1.46681e-15 0)
(3 9.53672e-16 0)
(3 -1.39309e-17 0)
(3 -3.59339e-16 0)
(3 -1.06872e-16 0)
(3 -1.46219e-16 0)
(3 -3.078e-16 0)
(3 -1.2428e-15 0)
(3 -1.75091e-15 0)
(3 -7.65443e-16 0)
(3 -4.29302e-16 0)
(3 1.16917e-16 0)
(3 5.01643e-16 0)
(3 6.94285e-16 0)
(3 -4.46561e-17 0)
(3 -1.36767e-15 0)
(3 -2.27094e-15 0)
(3 -1.57387e-15 0)
(3 -1.93967e-15 0)
(3 1.49081e-16 0)
(3 1.59985e-16 0)
(3 -3.25715e-16 0)
(3 -5.58605e-16 0)
(3 -4.63353e-16 0)
(3 -9.53135e-18 0)
(3 2.26134e-16 0)
(3 -2.07407e-17 0)
(3 -9.05964e-17 0)
(3 6.90415e-17 0)
(3 -3.32106e-16 0)
(3 -2.7971e-16 0)
(3 4.44469e-16 0)
(3 5.39875e-16 0)
(3 3.1834e-16 0)
(3 -1.63005e-16 0)
(3 -3.59468e-16 0)
(3 -9.02234e-16 0)
(3 -9.98002e-16 0)
(3 -1.07186e-15 0)
(3 2.57628e-16 0)
(3 7.87656e-17 0)
(3 -1.32207e-15 0)
(3 -1.50298e-15 0)
(3 -1.76224e-15 0)
(3 -5.65893e-16 0)
(3 -1.13261e-15 0)
(3 -2.31518e-15 0)
(3 -2.22123e-15 0)
(3 -2.11925e-15 0)
(3 -2.50898e-15 0)
(3 -1.58257e-15 0)
(3 -9.17052e-16 0)
(3 -4.46131e-16 0)
(3 -3.64722e-16 0)
(3 -1.31492e-15 0)
(3 -1.15354e-15 0)
(3 -5.13576e-16 0)
(3 8.17556e-16 0)
(3 1.45061e-15 0)
(3 1.96875e-15 0)
(3 1.38544e-15 0)
(3 1.27581e-15 0)
(3 2.85969e-16 0)
(3 -1.50774e-15 0)
(3 -2.29381e-15 0)
(3 -2.42381e-15 0)
(3 -1.56838e-15 0)
(3 6.536e-18 0)
(3 1.63467e-16 0)
(3 4.61635e-16 0)
(3 3.34388e-16 0)
(3 2.09118e-16 0)
(3 4.58164e-16 0)
(3 2.67299e-16 0)
(3 -9.7283e-16 0)
(3 -9.41255e-16 0)
(3 -6.57737e-16 0)
(3 -7.23953e-16 0)
(3 -5.90799e-16 0)
(3 -4.2259e-16 0)
(3 -1.37117e-16 0)
(3 -2.79179e-16 0)
(3 -2.96396e-16 0)
(3 -6.14417e-16 0)
(3 -3.24093e-16 0)
(3 5.16384e-16 0)
(3 9.49964e-16 0)
(3 9.10806e-16 0)
(3 -9.46189e-17 0)
(3 -1.46853e-15 0)
(3 -2.11065e-15 0)
(3 -2.61659e-15 0)
(3 -2.77904e-15 0)
(3 -2.67826e-15 0)
(3 -2.68802e-15 0)
(3 -2.8643e-15 0)
(3 -3.5639e-15 0)
(3 -3.67432e-15 0)
(3 -3.09847e-15 0)
(3 -1.32092e-15 0)
(3 3.38779e-16 0)
(3 5.79059e-16 0)
(3 4.36324e-16 0)
(3 6.06818e-16 0)
(3 6.15478e-16 0)
(3 1.4905e-15 0)
(3 1.9503e-15 0)
(3 2.16664e-15 0)
(3 7.6163e-16 0)
(3 2.59931e-16 0)
(3 -2.0449e-16 0)
(3 -1.27559e-15 0)
(3 -1.63025e-15 0)
(3 -2.45181e-15 0)
(3 -1.71573e-15 0)
(3 -2.79718e-17 0)
(3 -1.86215e-16 0)
(3 2.71143e-16 0)
(3 8.00011e-16 0)
(3 7.06742e-16 0)
(3 7.21822e-16 0)
(3 5.47318e-16 0)
(3 3.89367e-16 0)
(3 5.23939e-16 0)
(3 -3.253e-16 0)
(3 -1.07309e-15 0)
(3 -1.25751e-15 0)
(3 -1.11517e-15 0)
(3 -6.22039e-16 0)
(3 -7.37695e-16 0)
(3 -2.31904e-16 0)
(3 3.06155e-16 0)
(3 6.70842e-16 0)
(3 7.98665e-16 0)
(3 1.20375e-15 0)
(3 1.00654e-15 0)
(3 -4.10417e-16 0)
(3 -7.0959e-16 0)
(3 -2.10245e-15 0)
(3 -2.8643e-15 0)
(3 -2.91141e-15 0)
(3 -2.34604e-15 0)
(3 -1.86091e-15 0)
(3 -2.15929e-15 0)
(3 -1.84471e-15 0)
(3 -1.10341e-15 0)
(3 -5.51501e-17 0)
(3 -7.31126e-17 0)
(3 -2.32021e-16 0)
(3 -1.19297e-16 0)
(3 6.69957e-16 0)
(3 7.6828e-16 0)
(3 7.25162e-16 0)
(3 1.16754e-15 0)
(3 1.64376e-15 0)
(3 1.28199e-16 0)
(3 -1.67109e-15 0)
(3 -1.65617e-15 0)
(3 -1.51558e-15 0)
(3 -1.37183e-15 0)
(3 -1.41997e-15 0)
(3 -2.0694e-15 0)
(3 -1.80471e-15 0)
(3 4.84917e-16 0)
(3 3.02189e-16 0)
(3 8.67126e-17 0)
(3 1.20798e-16 0)
(3 3.54137e-16 0)
(3 1.16282e-16 0)
(3 9.31366e-17 0)
(3 5.42642e-16 0)
(3 1.003e-15 0)
(3 2.00301e-16 0)
(3 -1.13137e-15 0)
(3 -2.21695e-15 0)
(3 -1.28525e-15 0)
(3 -8.08594e-16 0)
(3 1.88271e-16 0)
(3 6.84541e-16 0)
(3 1.87434e-15 0)
(3 3.64221e-15 0)
(3 3.74871e-15 0)
(3 3.34222e-15 0)
(3 2.98542e-16 0)
(3 -1.41279e-15 0)
(3 -1.07433e-15 0)
(3 -1.341e-15 0)
(3 -1.00085e-15 0)
(3 -7.66789e-16 0)
(3 -1.51218e-15 0)
(3 -2.37669e-15 0)
(3 -2.06738e-15 0)
(3 -1.12952e-15 0)
(3 2.77093e-16 0)
(3 6.44121e-16 0)
(3 5.70994e-16 0)
(3 6.13957e-16 0)
(3 2.88366e-16 0)
(3 1.57269e-16 0)
(3 2.43304e-17 0)
(3 -2.58328e-16 0)
(3 3.15094e-18 0)
(3 5.75634e-16 0)
(3 -2.77954e-16 0)
(3 -1.90256e-15 0)
(3 -2.27351e-15 0)
(3 -1.64054e-15 0)
(3 -9.88719e-16 0)
(3 -3.60434e-16 0)
(3 -1.42444e-16 0)
(3 7.61427e-17 0)
(3 -6.93683e-17 0)
(3 2.67392e-16 0)
(3 3.89126e-16 0)
(3 3.85363e-16 0)
(3 1.52565e-16 0)
(3 -5.1851e-16 0)
(3 -9.90624e-16 0)
(3 -6.07941e-16 0)
(3 -5.81534e-16 0)
(3 -2.85808e-16 0)
(3 2.7183e-16 0)
(3 8.2163e-16 0)
(3 -2.53473e-16 0)
(3 -4.19627e-16 0)
(3 -3.13054e-16 0)
(3 8.79791e-16 0)
(3 1.7423e-15 0)
(3 1.33745e-15 0)
(3 8.72545e-16 0)
(3 2.16961e-16 0)
(3 -2.96519e-16 0)
(3 -1.01625e-16 0)
(3 3.44528e-16 0)
(3 9.12036e-16 0)
(3 1.50101e-15 0)
(3 1.17455e-15 0)
(3 -1.42525e-15 0)
(3 -1.81456e-15 0)
(3 -1.32448e-15 0)
(3 -6.33388e-16 0)
(3 -7.88967e-17 0)
(3 9.26048e-16 0)
(3 9.29508e-16 0)
(3 3.78907e-16 0)
(3 -2.52905e-16 0)
(3 -9.33368e-16 0)
(3 -7.86993e-16 0)
(3 -1.61591e-15 0)
(3 -2.21595e-15 0)
(3 -2.00031e-15 0)
(3 -1.8048e-15 0)
(3 -1.58884e-15 0)
(3 -1.6218e-15 0)
(3 -1.5864e-15 0)
(3 -4.82187e-16 0)
(3 7.99552e-16 0)
(3 1.43713e-15 0)
(3 1.76283e-15 0)
(3 -1.31046e-16 0)
(3 2.07414e-16 0)
(3 3.37485e-16 0)
(3 3.17668e-16 0)
(3 -6.29491e-16 0)
(3 -8.89998e-16 0)
(3 -1.06215e-15 0)
(3 -8.55618e-16 0)
(3 -7.56577e-16 0)
(3 9.33879e-17 0)
(3 1.12915e-15 0)
(3 2.12355e-15 0)
(3 1.47081e-15 0)
(3 7.17326e-16 0)
(3 1.01912e-15 0)
(3 2.19682e-15 0)
(3 1.19201e-15 0)
(3 5.70492e-16 0)
(3 -9.05522e-16 0)
(3 -1.34994e-15 0)
(3 6.28649e-17 0)
(3 4.29772e-16 0)
(3 1.09439e-15 0)
(3 2.18879e-15 0)
(3 2.74033e-15 0)
(3 2.30762e-15 0)
(3 3.77472e-16 0)
(3 2.01064e-16 0)
(3 -2.95194e-16 0)
(3 -4.64963e-16 0)
(3 -7.64815e-16 0)
(3 -4.59919e-16 0)
(3 -9.65431e-16 0)
(3 -2.37641e-15 0)
(3 -2.43627e-15 0)
(3 -8.95966e-16 0)
(3 1.79534e-16 0)
(3 -5.26174e-16 0)
(3 -2.71978e-15 0)
(3 -3.50513e-15 0)
(3 -2.32269e-15 0)
(3 -7.54075e-16 0)
(3 -4.92854e-16 0)
(3 -6.64998e-16 0)
(3 -6.78809e-16 0)
(3 -3.05243e-16 0)
(3 2.74583e-16 0)
(3 3.86913e-16 0)
(3 1.22876e-16 0)
(3 4.19784e-17 0)
(3 -1.8149e-16 0)
(3 -1.97176e-16 0)
(3 -3.23837e-16 0)
(3 -5.3364e-16 0)
(3 -3.59418e-16 0)
(3 -1.90722e-16 0)
(3 2.20157e-16 0)
(3 5.78577e-16 0)
(3 1.10143e-15 0)
(3 1.58505e-15 0)
(3 1.22441e-15 0)
(3 1.05257e-16 0)
(3 4.89491e-16 0)
(3 9.06027e-16 0)
(3 3.77253e-16 0)
(3 8.50957e-18 0)
(3 5.74758e-17 0)
(3 1.60818e-17 0)
(3 3.63394e-16 0)
(3 5.89676e-16 0)
(3 9.19073e-16 0)
(3 1.51097e-15 0)
(3 1.81185e-15 0)
(3 2.52254e-15 0)
(3 2.49584e-15 0)
(3 1.72239e-15 0)
(3 3.94048e-16 0)
(3 7.26046e-16 0)
(3 3.40492e-16 0)
(3 -1.01769e-15 0)
(3 -1.91495e-15 0)
(3 -1.75284e-15 0)
(3 -8.52336e-16 0)
(3 4.15817e-16 0)
(3 5.50104e-16 0)
(3 1.00824e-15 0)
(3 -1.93612e-16 0)
(3 -7.35429e-16 0)
(3 -6.37196e-16 0)
(3 -1.79632e-16 0)
(3 -6.20291e-16 0)
(3 -7.99086e-16 0)
(3 -7.66647e-16 0)
(3 -1.39055e-15 0)
(3 -1.72317e-15 0)
(3 -2.42435e-15 0)
(3 1.794e-16 0)
(3 1.60881e-18 0)
(3 -5.92429e-17 0)
(3 8.46391e-17 0)
(3 1.05491e-15 0)
(3 1.19728e-15 0)
(3 8.80489e-16 0)
(3 9.57738e-16 0)
(3 1.19349e-15 0)
(3 1.15479e-15 0)
(3 1.52637e-15 0)
(3 1.65386e-15 0)
(3 1.44078e-15 0)
(3 1.3227e-15 0)
(3 -2.58637e-16 0)
(3 -6.84906e-16 0)
(3 -9.22991e-16 0)
(3 -1.23314e-15 0)
(3 -1.08303e-15 0)
(3 -1.96487e-16 0)
(3 -1.3192e-16 0)
(3 7.56458e-16 0)
(3 1.16302e-15 0)
(3 -3.75672e-16 0)
(3 -2.0709e-16 0)
(3 6.53347e-16 0)
(3 1.40568e-15 0)
(3 1.15442e-15 0)
(3 1.49739e-15 0)
(3 1.6008e-15 0)
(3 1.18121e-15 0)
(3 2.7638e-16 0)
(3 -1.93016e-17 0)
(3 2.26635e-16 0)
(3 6.90173e-16 0)
(3 -3.85352e-16 0)
(3 -2.42456e-16 0)
(3 1.43624e-15 0)
(3 2.32644e-15 0)
(3 8.05689e-16 0)
(3 1.98519e-17 0)
(3 -4.41092e-16 0)
(3 -1.02269e-15 0)
(3 -1.02123e-15 0)
(3 -1.08641e-15 0)
(3 -1.3371e-15 0)
(3 -2.90235e-15 0)
(3 -3.59033e-15 0)
(3 -1.55787e-16 0)
(3 -1.39996e-17 0)
(3 1.78985e-16 0)
(3 2.17723e-16 0)
(3 1.53629e-16 0)
(3 1.04668e-15 0)
(3 1.83594e-15 0)
(3 1.93675e-15 0)
(3 1.41415e-15 0)
(3 1.03724e-15 0)
(3 7.72211e-16 0)
(3 3.95055e-16 0)
(3 8.79595e-17 0)
(3 6.75004e-16 0)
(3 1.0748e-16 0)
(3 -5.13732e-16 0)
(3 -5.22746e-16 0)
(3 -5.14881e-16 0)
(3 -7.77819e-16 0)
(3 -9.7776e-16 0)
(3 -2.69971e-16 0)
(3 2.57787e-17 0)
(3 -1.74886e-16 0)
(3 -5.87678e-16 0)
(3 -1.01908e-15 0)
(3 -5.53297e-16 0)
(3 8.27755e-16 0)
(3 1.27969e-15 0)
(3 2.27086e-15 0)
(3 2.46213e-15 0)
(3 2.13672e-15 0)
(3 1.56917e-15 0)
(3 1.11687e-15 0)
(3 9.03884e-16 0)
(3 5.06076e-16 0)
(3 -3.00475e-16 0)
(3 -4.8629e-16 0)
(3 2.70744e-16 0)
(3 9.25961e-16 0)
(3 2.49223e-15 0)
(3 1.63313e-15 0)
(3 1.68652e-16 0)
(3 -7.18273e-16 0)
(3 -9.902e-16 0)
(3 -1.59612e-15 0)
(3 -7.5877e-16 0)
(3 -4.09705e-16 0)
(3 -2.25264e-15 0)
(3 -8.49275e-17 0)
(3 6.63585e-17 0)
(3 1.55675e-16 0)
(3 -4.20553e-18 0)
(3 -4.39826e-16 0)
(3 2.54604e-16 0)
(3 5.72713e-16 0)
(3 -2.83403e-16 0)
(3 -3.47277e-16 0)
(3 -8.01903e-16 0)
(3 -1.27759e-15 0)
(3 -1.34924e-15 0)
(3 -1.36255e-15 0)
(3 -4.92548e-16 0)
(3 7.38961e-17 0)
(3 2.78622e-16 0)
(3 7.80429e-16 0)
(3 1.31263e-15 0)
(3 1.44691e-15 0)
(3 1.86677e-16 0)
(3 -4.04719e-16 0)
(3 -8.93643e-16 0)
(3 -9.28031e-16 0)
(3 5.05086e-17 0)
(3 7.04098e-16 0)
(3 7.60374e-16 0)
(3 2.52977e-16 0)
(3 9.51052e-18 0)
(3 1.22207e-15 0)
(3 1.7771e-15 0)
(3 2.30926e-15 0)
(3 1.87605e-15 0)
(3 1.98986e-15 0)
(3 1.6808e-15 0)
(3 1.89211e-15 0)
(3 1.30192e-15 0)
(3 7.51571e-16 0)
(3 2.6776e-16 0)
(3 4.08116e-16 0)
(3 1.52877e-15 0)
(3 1.84061e-15 0)
(3 1.76216e-15 0)
(3 1.60836e-15 0)
(3 1.33555e-15 0)
(3 8.1001e-16 0)
(3 1.59204e-15 0)
(3 2.95691e-15 0)
(3 3.00802e-15 0)
(3 1.90733e-16 0)
(3 1.62132e-16 0)
(3 -9.3656e-17 0)
(3 -1.60957e-16 0)
(3 1.84382e-16 0)
(3 -3.43388e-16 0)
(3 -7.89761e-16 0)
(3 -5.95369e-16 0)
(3 -4.71742e-16 0)
(3 -5.12401e-16 0)
(3 -6.48752e-16 0)
(3 -1.12686e-15 0)
(3 -8.72738e-16 0)
(3 -3.96974e-16 0)
(3 1.65802e-16 0)
(3 -5.3014e-16 0)
(3 -2.14112e-16 0)
(3 -2.05993e-16 0)
(3 -1.89068e-16 0)
(3 -1.37918e-17 0)
(3 -4.93236e-16 0)
(3 -9.51396e-16 0)
(3 -6.61798e-16 0)
(3 4.45941e-16 0)
(3 1.143e-15 0)
(3 9.04183e-16 0)
(3 7.51395e-17 0)
(3 2.59828e-16 0)
(3 7.79921e-16 0)
(3 9.34635e-16 0)
(3 1.76391e-15 0)
(3 1.97332e-15 0)
(3 1.26211e-15 0)
(3 5.27441e-16 0)
(3 3.17398e-16 0)
(3 1.72883e-15 0)
(3 2.24997e-15 0)
(3 2.36695e-15 0)
(3 1.84486e-15 0)
(3 1.17372e-15 0)
(3 4.00379e-16 0)
(3 2.34886e-15 0)
(3 3.5043e-15 0)
(3 4.08005e-15 0)
(3 4.17493e-15 0)
(3 2.76836e-15 0)
(3 2.30541e-15 0)
(3 2.09461e-15 0)
(3 -1.72629e-16 0)
(3 -9.72649e-17 0)
(3 -2.58832e-16 0)
(3 -4.46907e-16 0)
(3 -2.46355e-16 0)
(3 -1.40855e-16 0)
(3 -2.06622e-16 0)
(3 1.48619e-17 0)
(3 -6.73278e-17 0)
(3 -7.3682e-17 0)
(3 -3.49378e-16 0)
(3 -3.35035e-16 0)
(3 -1.60476e-16 0)
(3 -9.199e-17 0)
(3 -3.87944e-16 0)
(3 -1.41725e-15 0)
(3 -1.81847e-15 0)
(3 -1.38025e-15 0)
(3 -1.23299e-15 0)
(3 -1.17619e-15 0)
(3 -4.86988e-16 0)
(3 -1.4935e-16 0)
(3 6.145e-16 0)
(3 1.34299e-15 0)
(3 1.22377e-15 0)
(3 9.41974e-16 0)
(3 1.45167e-15 0)
(3 2.12269e-15 0)
(3 7.84405e-16 0)
(3 6.86804e-16 0)
(3 1.28818e-15 0)
(3 1.8237e-15 0)
(3 4.37366e-16 0)
(3 -3.82259e-16 0)
(3 -1.04534e-15 0)
(3 -9.99775e-16 0)
(3 -7.61355e-16 0)
(3 -2.8136e-16 0)
(3 2.49558e-16 0)
(3 8.93537e-16 0)
(3 1.00754e-15 0)
(3 1.9125e-15 0)
(3 2.11446e-15 0)
(3 2.7636e-15 0)
(3 2.63939e-15 0)
(3 1.58103e-15 0)
(3 1.0225e-15 0)
(3 8.23973e-16 0)
(3 -2.16689e-16 0)
(3 -4.90589e-16 0)
(3 -4.11125e-16 0)
(3 -2.15957e-16 0)
(3 -9.58915e-17 0)
(3 -2.19256e-17 0)
(3 -9.84248e-18 0)
(3 -2.95445e-17 0)
(3 -1.98911e-16 0)
(3 -2.13386e-16 0)
(3 -3.02675e-16 0)
(3 -3.651e-16 0)
(3 -2.34143e-16 0)
(3 -4.44268e-16 0)
(3 -1.10278e-15 0)
(3 -7.58803e-16 0)
(3 1.82739e-16 0)
(3 4.41348e-16 0)
(3 2.97915e-17 0)
(3 -1.53511e-16 0)
(3 -3.14083e-16 0)
(3 4.73848e-16 0)
(3 1.02277e-15 0)
(3 6.93145e-16 0)
(3 3.56704e-16 0)
(3 1.13376e-15 0)
(3 1.26992e-15 0)
(3 -3.95264e-17 0)
(3 -7.83384e-16 0)
(3 -5.72409e-16 0)
(3 -2.14361e-16 0)
(3 6.0091e-16 0)
(3 8.97742e-16 0)
(3 1.14898e-15 0)
(3 1.22112e-15 0)
(3 -9.08758e-16 0)
(3 -2.19996e-15 0)
(3 -1.77067e-15 0)
(3 -7.00702e-16 0)
(3 -5.50731e-17 0)
(3 2.03445e-16 0)
(3 1.22403e-15 0)
(3 1.74999e-15 0)
(3 1.90936e-15 0)
(3 1.91125e-15 0)
(3 2.13666e-15 0)
(3 1.92344e-15 0)
(3 1.84637e-15 0)
(3 1.84848e-16 0)
(3 -2.48843e-17 0)
(3 9.19683e-17 0)
(3 2.73261e-16 0)
(3 2.63118e-16 0)
(3 5.3102e-17 0)
(3 -3.26004e-16 0)
(3 -3.55585e-16 0)
(3 -9.66186e-17 0)
(3 1.61228e-16 0)
(3 2.25351e-16 0)
(3 -1.33377e-16 0)
(3 -5.06163e-16 0)
(3 -8.04391e-16 0)
(3 -4.24616e-16 0)
(3 9.86678e-16 0)
(3 1.26233e-15 0)
(3 1.17845e-15 0)
(3 1.3515e-15 0)
(3 1.28063e-15 0)
(3 1.04582e-15 0)
(3 9.44773e-16 0)
(3 5.04783e-16 0)
(3 -2.6793e-16 0)
(3 -3.87857e-16 0)
(3 -3.33734e-16 0)
(3 -4.92232e-16 0)
(3 -1.42503e-15 0)
(3 -2.10191e-15 0)
(3 -2.27378e-15 0)
(3 -1.85548e-15 0)
(3 2.06468e-16 0)
(3 2.0777e-15 0)
(3 2.50993e-15 0)
(3 1.65393e-15 0)
(3 1.23218e-15 0)
(3 2.90383e-16 0)
(3 -2.12094e-16 0)
(3 -7.33558e-16 0)
(3 -2.33018e-16 0)
(3 8.94732e-16 0)
(3 8.40463e-16 0)
(3 1.19363e-17 0)
(3 2.92304e-17 0)
(3 2.71002e-16 0)
(3 8.58992e-16 0)
(3 2.51477e-15 0)
(3 2.59529e-15 0)
(3 1.37734e-16 0)
(3 3.38417e-16 0)
(3 3.0294e-16 0)
(3 2.97159e-16 0)
(3 1.8595e-16 0)
(3 2.58363e-16 0)
(3 -4.78611e-16 0)
(3 -7.45613e-16 0)
(3 -5.20537e-16 0)
(3 -6.51095e-16 0)
(3 -7.68783e-16 0)
(3 -5.01282e-16 0)
(3 -9.61305e-16 0)
(3 -9.93322e-16 0)
(3 2.04707e-16 0)
(3 5.96291e-16 0)
(3 6.20978e-16 0)
(3 1.38594e-15 0)
(3 2.07239e-15 0)
(3 1.9647e-15 0)
(3 1.43721e-15 0)
(3 1.0142e-15 0)
(3 -6.60242e-16 0)
(3 -1.60063e-15 0)
(3 -1.75679e-15 0)
(3 -1.23577e-15 0)
(3 -9.21918e-16 0)
(3 -8.10451e-16 0)
(3 -5.01269e-16 0)
(3 -6.19253e-16 0)
(3 -6.0888e-16 0)
(3 -1.10781e-15 0)
(3 -4.27141e-16 0)
(3 4.99501e-16 0)
(3 5.97177e-16 0)
(3 1.14071e-15 0)
(3 6.77602e-16 0)
(3 2.24708e-16 0)
(3 -4.07578e-16 0)
(3 -1.35916e-15 0)
(3 -1.03734e-15 0)
(3 -1.44579e-15 0)
(3 -1.41502e-15 0)
(3 -1.18052e-15 0)
(3 -8.3447e-16 0)
(3 -5.54317e-16 0)
(3 -4.16383e-16 0)
(3 -9.78736e-17 0)
(3 -1.76653e-16 0)
(3 -1.0715e-16 0)
(3 3.75556e-16 0)
(3 8.02895e-16 0)
(3 6.17358e-16 0)
(3 2.41864e-16 0)
(3 4.31724e-16 0)
(3 1.78001e-16 0)
(3 -7.20366e-16 0)
(3 -1.19571e-15 0)
(3 -8.59933e-16 0)
(3 -2.91387e-16 0)
(3 -2.40594e-16 0)
(3 1.89367e-16 0)
(3 1.72772e-16 0)
(3 4.57681e-16 0)
(3 9.4646e-16 0)
(3 1.10469e-15 0)
(3 1.0426e-15 0)
(3 1.02691e-15 0)
(3 3.78325e-16 0)
(3 -1.27334e-16 0)
(3 -3.67206e-16 0)
(3 -7.59471e-16 0)
(3 -1.41355e-15 0)
(3 -2.22668e-15 0)
(3 -2.34321e-15 0)
(3 -1.38713e-15 0)
(3 4.4985e-16 0)
(3 3.7218e-16 0)
(3 -3.88662e-16 0)
(3 -1.34126e-15 0)
(3 -2.35423e-15 0)
(3 -1.5554e-15 0)
(3 7.67715e-16 0)
(3 1.77465e-15 0)
(3 1.4319e-15 0)
(3 7.42598e-16 0)
(3 3.39304e-16 0)
(3 -1.18261e-15 0)
(3 -3.35426e-15 0)
(3 -3.24573e-15 0)
(3 -5.35725e-16 0)
(3 4.1878e-16 0)
(3 8.40861e-16 0)
(3 3.62152e-16 0)
(3 -1.01353e-15 0)
(3 -1.88365e-15 0)
(3 -1.89876e-16 0)
(3 -1.05733e-16 0)
(3 -6.1863e-17 0)
(3 -4.77758e-17 0)
(3 5.72186e-17 0)
(3 3.63759e-17 0)
(3 -2.32115e-17 0)
(3 -3.20753e-16 0)
(3 -3.78914e-16 0)
(3 -4.15776e-16 0)
(3 3.81481e-16 0)
(3 4.28386e-16 0)
(3 9.82183e-16 0)
(3 7.38674e-16 0)
(3 5.65619e-16 0)
(3 1.81655e-16 0)
(3 8.21871e-16 0)
(3 9.96479e-16 0)
(3 7.15621e-16 0)
(3 2.43243e-16 0)
(3 2.69479e-17 0)
(3 -7.85752e-18 0)
(3 7.90938e-16 0)
(3 4.12595e-16 0)
(3 -5.10045e-16 0)
(3 -7.68936e-16 0)
(3 -7.37453e-16 0)
(3 -4.06669e-16 0)
(3 2.13767e-16 0)
(3 2.417e-16 0)
(3 2.39196e-16 0)
(3 6.40234e-16 0)
(3 3.14102e-16 0)
(3 -1.00616e-16 0)
(3 -1.5034e-16 0)
(3 5.2871e-16 0)
(3 8.85585e-17 0)
(3 -7.18837e-16 0)
(3 -1.30332e-15 0)
(3 -1.29219e-15 0)
(3 -1.88423e-15 0)
(3 -2.32215e-15 0)
(3 -1.2683e-15 0)
(3 6.50912e-17 0)
(3 -1.38085e-16 0)
(3 -1.02606e-15 0)
(3 -1.38366e-15 0)
(3 -1.68698e-15 0)
(3 2.49509e-17 0)
(3 4.9322e-17 0)
(3 -1.20326e-16 0)
(3 -3.93972e-16 0)
(3 -1.12549e-15 0)
(3 -1.05038e-15 0)
(3 -7.64233e-16 0)
(3 -3.74397e-16 0)
(3 3.8282e-16 0)
(3 4.0937e-16 0)
(3 3.46656e-16 0)
(3 6.66344e-16 0)
(3 1.30761e-15 0)
(3 1.91339e-15 0)
(3 1.93662e-15 0)
(3 1.25395e-15 0)
(3 1.73636e-15 0)
(3 2.35279e-15 0)
(3 9.60323e-16 0)
(3 1.64666e-16 0)
(3 5.4295e-16 0)
(3 8.48169e-16 0)
(3 1.4076e-15 0)
(3 1.61801e-15 0)
(3 1.61047e-15 0)
(3 1.87145e-15 0)
(3 1.48547e-15 0)
(3 1.01865e-15 0)
(3 2.75443e-16 0)
(3 3.5867e-16 0)
(3 1.55607e-16 0)
(3 5.328e-17 0)
(3 9.05707e-16 0)
(3 1.01136e-15 0)
(3 5.65676e-17 0)
(3 2.5676e-16 0)
(3 2.57658e-16 0)
(3 -1.02706e-15 0)
(3 -1.31766e-15 0)
(3 -1.4584e-15 0)
(3 -1.50794e-15 0)
(3 -1.09745e-15 0)
(3 -2.19436e-16 0)
(3 1.81539e-16 0)
(3 1.03687e-16 0)
(3 4.69697e-16 0)
(3 1.09847e-15 0)
(3 9.22671e-16 0)
(3 -6.04851e-17 0)
(3 -3.6266e-16 0)
(3 -3.89237e-16 0)
(3 -1.01973e-16 0)
(3 -4.52561e-16 0)
(3 -3.2687e-16 0)
(3 6.03449e-17 0)
(3 5.11223e-16 0)
(3 4.86405e-16 0)
(3 6.61576e-16 0)
(3 7.86234e-16 0)
(3 1.28314e-15 0)
(3 1.75241e-15 0)
(3 2.64594e-15 0)
(3 2.713e-15 0)
(3 2.25036e-15 0)
(3 1.89567e-15 0)
(3 1.33904e-15 0)
(3 -2.26197e-16 0)
(3 -9.87934e-16 0)
(3 -8.45927e-16 0)
(3 3.50423e-16 0)
(3 1.38012e-15 0)
(3 2.78406e-15 0)
(3 3.51113e-15 0)
(3 3.16099e-15 0)
(3 2.94012e-15 0)
(3 2.79045e-15 0)
(3 2.36814e-15 0)
(3 1.96016e-15 0)
(3 -1.77277e-16 0)
(3 -7.59257e-16 0)
(3 -7.27028e-16 0)
(3 -3.22896e-16 0)
(3 -4.25386e-16 0)
(3 -7.9418e-16 0)
(3 -5.27983e-16 0)
(3 -3.32783e-16 0)
(3 -9.74678e-16 0)
(3 -1.52973e-15 0)
(3 -1.46424e-15 0)
(3 -2.02551e-16 0)
(3 9.9381e-16 0)
(3 8.44357e-16 0)
(3 -4.90933e-16 0)
(3 -9.82761e-17 0)
(3 1.06482e-16 0)
(3 2.92358e-16 0)
(3 1.00944e-16 0)
(3 -3.5766e-16 0)
(3 -2.74201e-16 0)
(3 -1.62767e-16 0)
(3 4.75817e-16 0)
(3 9.26314e-16 0)
(3 7.7112e-16 0)
(3 6.2389e-16 0)
(3 8.10954e-16 0)
(3 8.40448e-16 0)
(3 8.68818e-16 0)
(3 9.85174e-16 0)
(3 7.42384e-16 0)
(3 4.65581e-16 0)
(3 1.63923e-17 0)
(3 -4.6516e-16 0)
(3 -8.41381e-16 0)
(3 -7.60643e-16 0)
(3 -1.15471e-15 0)
(3 -1.04161e-15 0)
(3 2.11056e-16 0)
(3 8.68453e-16 0)
(3 1.97941e-15 0)
(3 3.01438e-15 0)
(3 2.94717e-15 0)
(3 1.93207e-15 0)
(3 1.80684e-15 0)
(3 2.32665e-15 0)
(3 2.70498e-15 0)
(3 3.0142e-15 0)
(3 5.48648e-16 0)
(3 -1.2063e-15 0)
(3 -8.99103e-16 0)
(3 -5.04309e-16 0)
(3 -3.72734e-16 0)
(3 -1.52644e-16 0)
(3 -3.06523e-16 0)
(3 -5.68034e-16 0)
(3 -5.37746e-16 0)
(3 -1.53779e-15 0)
(3 -1.55746e-15 0)
(3 -1.40376e-15 0)
(3 -1.08134e-15 0)
(3 -1.37758e-15 0)
(3 -3.27485e-15 0)
(3 -4.88253e-15 0)
(3 -4.46903e-15 0)
(3 -3.81996e-15 0)
(3 2.71934e-16 0)
(3 -9.9421e-17 0)
(3 5.25419e-17 0)
(3 5.29368e-18 0)
(3 2.03172e-16 0)
(3 1.62709e-16 0)
(3 -2.03582e-18 0)
(3 2.37655e-16 0)
(3 6.17209e-16 0)
(3 7.03225e-16 0)
(3 5.91817e-16 0)
(3 -1.59925e-16 0)
(3 -1.14386e-15 0)
(3 -1.7702e-15 0)
(3 -1.62291e-15 0)
(3 -1.29984e-15 0)
(3 -1.5753e-15 0)
(3 -1.57819e-15 0)
(3 -1.78745e-16 0)
(3 8.34083e-16 0)
(3 1.78804e-15 0)
(3 2.03378e-15 0)
(3 2.45182e-15 0)
(3 1.83039e-15 0)
(3 1.03923e-15 0)
(3 8.7767e-16 0)
(3 3.81336e-16 0)
(3 6.37737e-16 0)
(3 1.52807e-15 0)
(3 1.59536e-15 0)
(3 1.1301e-15 0)
(3 3.98748e-16 0)
(3 2.80599e-16 0)
(3 2.32431e-16 0)
(3 9.53647e-16 0)
(3 1.05694e-15 0)
(3 -3.56977e-16 0)
(3 -6.55175e-16 0)
(3 -9.28727e-16 0)
(3 -4.79492e-16 0)
(3 -8.00031e-16 0)
(3 -1.58981e-15 0)
(3 -2.73462e-15 0)
(3 -3.38564e-15 0)
(3 -2.57847e-15 0)
(3 -2.46945e-15 0)
(3 -1.27165e-15 0)
(3 -1.09686e-15 0)
(3 2.08521e-17 0)
(3 7.66282e-17 0)
(3 -3.57414e-16 0)
(3 -3.79902e-16 0)
(3 -6.51885e-16 0)
(3 -6.9267e-16 0)
(3 -7.96852e-16 0)
(3 -8.66477e-16 0)
(3 -4.92075e-16 0)
(3 -9.59232e-17 0)
(3 5.10679e-16 0)
(3 -3.21767e-16 0)
(3 -7.60565e-16 0)
(3 -1.17753e-15 0)
(3 -1.20517e-15 0)
(3 -1.06952e-15 0)
(3 -1.2678e-15 0)
(3 -1.66819e-15 0)
(3 2.36531e-16 0)
(3 1.90949e-15 0)
(3 1.98108e-15 0)
(3 1.77405e-15 0)
(3 1.78552e-15 0)
(3 1.02052e-15 0)
(3 7.29986e-16 0)
(3 1.32427e-15 0)
(3 1.78779e-15 0)
(3 2.18049e-15 0)
(3 1.39561e-15 0)
(3 1.17294e-15 0)
(3 1.20097e-15 0)
(3 1.48644e-15 0)
(3 9.64361e-16 0)
(3 9.30137e-16 0)
(3 8.3715e-16 0)
(3 2.87755e-16 0)
(3 -2.60644e-16 0)
(3 -5.53123e-16 0)
(3 1.47794e-16 0)
(3 1.10091e-15 0)
(3 1.35312e-15 0)
(3 -3.01751e-16 0)
(3 -3.26711e-15 0)
(3 -2.98947e-15 0)
(3 -5.00814e-16 0)
(3 1.38854e-15 0)
(3 2.30112e-15 0)
(3 2.04168e-15 0)
(3 3.66117e-17 0)
(3 5.129e-16 0)
(3 3.50128e-16 0)
(3 1.31013e-16 0)
(3 -3.24168e-16 0)
(3 -4.67573e-16 0)
(3 -5.18641e-16 0)
(3 -5.0635e-16 0)
(3 7.19628e-18 0)
(3 5.02564e-16 0)
(3 6.6443e-16 0)
(3 3.61329e-16 0)
(3 7.24254e-18 0)
(3 1.28947e-16 0)
(3 9.01011e-17 0)
(3 -3.33138e-16 0)
(3 -5.15706e-16 0)
(3 -1.99364e-16 0)
(3 3.82891e-16 0)
(3 1.21085e-15 0)
(3 1.29602e-15 0)
(3 8.44526e-16 0)
(3 4.49382e-16 0)
(3 4.71513e-16 0)
(3 1.10484e-15 0)
(3 2.07263e-15 0)
(3 2.12255e-15 0)
(3 2.10978e-15 0)
(3 1.54646e-15 0)
(3 9.03066e-16 0)
(3 6.43502e-16 0)
(3 2.00146e-16 0)
(3 -3.64935e-16 0)
(3 -4.45561e-16 0)
(3 -8.70464e-16 0)
(3 -9.1629e-16 0)
(3 -3.74252e-17 0)
(3 3.50551e-16 0)
(3 6.91249e-16 0)
(3 9.75336e-16 0)
(3 8.96825e-16 0)
(3 -9.14813e-16 0)
(3 -1.94278e-15 0)
(3 -8.29147e-16 0)
(3 4.2433e-16 0)
(3 1.84751e-15 0)
(3 2.05732e-15 0)
(3 2.32699e-15 0)
(3 -2.71041e-16 0)
(3 8.86687e-17 0)
(3 5.17183e-16 0)
(3 6.36577e-16 0)
(3 6.52364e-16 0)
(3 3.12688e-16 0)
(3 1.39251e-16 0)
(3 3.34465e-17 0)
(3 -7.23723e-17 0)
(3 1.94948e-16 0)
(3 9.81262e-16 0)
(3 8.87047e-16 0)
(3 5.90096e-16 0)
(3 1.72574e-16 0)
(3 -4.91872e-21 0)
(3 -4.3592e-16 0)
(3 -6.31071e-16 0)
(3 -3.06434e-16 0)
(3 -2.31314e-16 0)
(3 2.56738e-16 0)
(3 1.30901e-15 0)
(3 1.32882e-15 0)
(3 5.42135e-16 0)
(3 4.89485e-17 0)
(3 7.10461e-17 0)
(3 4.46647e-16 0)
(3 7.60805e-16 0)
(3 1.18128e-15 0)
(3 9.26515e-16 0)
(3 9.23841e-16 0)
(3 5.47769e-16 0)
(3 6.89398e-17 0)
(3 -1.9422e-17 0)
(3 -2.10238e-16 0)
(3 -3.38932e-16 0)
(3 -1.1706e-15 0)
(3 -1.08035e-16 0)
(3 2.91689e-16 0)
(3 2.60938e-16 0)
(3 4.77212e-16 0)
(3 -8.50241e-17 0)
(3 -1.38274e-15 0)
(3 -7.44604e-16 0)
(3 1.30141e-16 0)
(3 8.36095e-16 0)
(3 1.30089e-15 0)
(3 1.47633e-15 0)
(3 2.30995e-15 0)
(3 1.88248e-16 0)
(3 7.95024e-17 0)
(3 -8.25586e-17 0)
(3 1.58301e-16 0)
(3 1.88984e-16 0)
(3 9.26875e-17 0)
(3 -1.9859e-17 0)
(3 -1.81677e-16 0)
(3 -3.83106e-16 0)
(3 -1.82141e-16 0)
(3 -2.30951e-17 0)
(3 3.83206e-16 0)
(3 4.77667e-16 0)
(3 -4.44675e-16 0)
(3 -8.05585e-16 0)
(3 -9.18731e-16 0)
(3 -9.83887e-16 0)
(3 -6.49711e-16 0)
(3 -3.81065e-16 0)
(3 -6.76624e-17 0)
(3 4.98769e-16 0)
(3 1.49246e-15 0)
(3 8.21968e-16 0)
(3 5.6259e-16 0)
(3 1.1621e-16 0)
(3 -5.54818e-16 0)
(3 -3.20098e-17 0)
(3 8.65717e-16 0)
(3 2.10632e-16 0)
(3 5.99092e-16 0)
(3 7.25597e-16 0)
(3 1.51594e-16 0)
(3 -1.47812e-16 0)
(3 -4.0198e-16 0)
(3 1.57882e-16 0)
(3 6.08226e-16 0)
(3 1.23562e-15 0)
(3 2.3625e-15 0)
(3 2.16066e-15 0)
(3 1.45927e-15 0)
(3 1.42725e-18 0)
(3 -1.18447e-15 0)
(3 -1.48983e-15 0)
(3 -6.74053e-16 0)
(3 6.06534e-18 0)
(3 1.5838e-16 0)
(3 3.58679e-16 0)
(3 5.10597e-16 0)
(3 1.8428e-16 0)
(3 -1.05394e-16 0)
(3 -7.54752e-16 0)
(3 -6.79842e-16 0)
(3 -5.1203e-16 0)
(3 1.63248e-16 0)
(3 7.54196e-16 0)
(3 5.71237e-16 0)
(3 -1.41343e-17 0)
(3 -4.80446e-16 0)
(3 -5.3606e-16 0)
(3 -6.6519e-16 0)
(3 -2.24484e-16 0)
(3 7.98788e-17 0)
(3 1.67613e-16 0)
(3 3.13299e-16 0)
(3 3.77956e-16 0)
(3 5.98459e-16 0)
(3 5.08454e-16 0)
(3 4.32641e-16 0)
(3 3.37783e-16 0)
(3 2.33676e-16 0)
(3 4.61757e-16 0)
(3 7.72845e-17 0)
(3 -8.36137e-16 0)
(3 -1.53468e-15 0)
(3 -1.53336e-15 0)
(3 -1.22439e-15 0)
(3 -1.10077e-15 0)
(3 -1.07237e-15 0)
(3 -7.21504e-16 0)
(3 -9.27149e-16 0)
(3 -1.43872e-15 0)
(3 -1.62047e-15 0)
(3 -1.06887e-15 0)
(3 1.397e-15 0)
(3 1.9186e-15 0)
(3 2.85656e-15 0)
(3 2.56599e-15 0)
(3 9.67262e-16 0)
(3 9.223e-17 0)
(3 6.30127e-16 0)
(3 1.04384e-15 0)
(3 6.22529e-16 0)
(3 -1.01998e-16 0)
(3 -3.54216e-16 0)
(3 -1.2573e-15 0)
(3 -1.49527e-15 0)
(3 -1.63543e-16 0)
(3 -4.05648e-16 0)
(3 -1.40962e-16 0)
(3 -1.49608e-16 0)
(3 1.18114e-16 0)
(3 3.07433e-16 0)
(3 4.46894e-16 0)
(3 4.23061e-16 0)
(3 -4.89893e-17 0)
(3 -5.48365e-16 0)
(3 -7.71152e-16 0)
(3 -6.48848e-16 0)
(3 -2.01185e-16 0)
(3 4.8969e-17 0)
(3 4.45234e-16 0)
(3 9.14121e-16 0)
(3 1.19724e-15 0)
(3 1.31585e-15 0)
(3 8.55467e-16 0)
(3 3.6975e-16 0)
(3 3.99229e-17 0)
(3 1.73576e-16 0)
(3 1.48004e-16 0)
(3 -2.49506e-16 0)
(3 -2.31044e-16 0)
(3 3.84867e-17 0)
(3 -6.28987e-16 0)
(3 -2.27578e-15 0)
(3 -2.28474e-15 0)
(3 -2.40216e-15 0)
(3 -2.11206e-15 0)
(3 -2.14485e-15 0)
(3 -1.58274e-15 0)
(3 -1.24658e-15 0)
(3 -2.65188e-16 0)
(3 3.0346e-16 0)
(3 6.98079e-16 0)
(3 5.19461e-16 0)
(3 8.28474e-16 0)
(3 1.04741e-15 0)
(3 1.64808e-15 0)
(3 2.67076e-15 0)
(3 2.9644e-15 0)
(3 1.97943e-15 0)
(3 9.55984e-16 0)
(3 -6.67873e-16 0)
(3 -1.52325e-15 0)
(3 -1.61393e-15 0)
(3 -1.37306e-16 0)
(3 -2.5795e-17 0)
(3 7.41044e-16 0)
(3 4.14444e-16 0)
(3 4.79239e-16 0)
(3 3.46205e-17 0)
(3 -2.92594e-16 0)
(3 2.04854e-16 0)
(3 3.43148e-16 0)
(3 2.38752e-16 0)
(3 -3.24073e-16 0)
(3 -2.62896e-17 0)
(3 5.21486e-17 0)
(3 -1.11645e-16 0)
(3 1.85383e-17 0)
(3 2.33355e-16 0)
(3 3.32957e-16 0)
(3 -1.12744e-16 0)
(3 -1.81032e-16 0)
(3 -3.38125e-16 0)
(3 2.22159e-16 0)
(3 7.31367e-16 0)
(3 2.58615e-16 0)
(3 -3.41543e-16 0)
(3 -2.00263e-16 0)
(3 5.40004e-16 0)
(3 -2.75025e-18 0)
(3 -1.34601e-15 0)
(3 -2.01717e-15 0)
(3 -2.10609e-15 0)
(3 -2.24861e-15 0)
(3 -1.99471e-15 0)
(3 -1.60581e-15 0)
(3 4.85361e-16 0)
(3 1.05704e-15 0)
(3 6.13517e-16 0)
(3 -3.0187e-16 0)
(3 -5.11331e-16 0)
(3 -1.82882e-16 0)
(3 2.97085e-16 0)
(3 1.15527e-15 0)
(3 1.60673e-15 0)
(3 9.91098e-16 0)
(3 6.43077e-16 0)
(3 3.97425e-16 0)
(3 -3.02338e-16 0)
(3 -6.97391e-16 0)
(3 -6.31146e-16 0)
(3 1.70513e-17 0)
(3 1.19281e-16 0)
(3 -2.56001e-16 0)
(3 -2.30478e-16 0)
(3 1.32826e-16 0)
(3 1.23803e-16 0)
(3 -1.52567e-17 0)
(3 1.31871e-16 0)
(3 2.81488e-16 0)
(3 2.21437e-16 0)
(3 4.75523e-16 0)
(3 8.04747e-16 0)
(3 6.00303e-16 0)
(3 5.1096e-16 0)