/*--------------------------------*- C++ -*----------------------------------*\
  =========                 |
  \\      /  F ield         | OpenFOAM: The Open Source CFD Toolbox
   \\    /   O peration     | Website:  https://openfoam.org
    \\  /    A nd           | Version:  7
     \\/     M anipulation  |
\*---------------------------------------------------------------------------*/
FoamFile
{
    version     2.0;
    format      ascii;
    class       volVectorField;
    location    "3.3";
    object      U;
}
// * * * * * * * * * * * * * * * * * * * * * * * * * * * * * * * * * * * * * //

dimensions      [0 1 -1 0 0 0 0];

internalField   nonuniform List<vector> 
73728
(
(3 1.49719e-16 0)
(3 2.77447e-16 0)
(3 1.67928e-16 0)
(3 3.62021e-16 0)
(3 2.672e-16 0)
(3 1.9615e-16 0)
(3 1.2477e-16 0)
(3 4.66661e-16 0)
(3 8.57751e-16 0)
(3 1.08961e-15 0)
(3 1.08429e-15 0)
(3 7.17582e-16 0)
(3 3.36699e-16 0)
(3 5.73899e-16 0)
(3 3.12298e-16 0)
(3 3.21017e-16 0)
(3 1.09674e-15 0)
(3 1.15339e-15 0)
(3 1.20535e-15 0)
(3 7.5307e-16 0)
(3 6.4395e-16 0)
(3 2.97787e-16 0)
(3 -8.69825e-17 0)
(3 3.99925e-18 0)
(3 2.51416e-16 0)
(3 2.60914e-16 0)
(3 5.48432e-16 0)
(3 7.82713e-16 0)
(3 3.96528e-16 0)
(3 -5.86755e-16 0)
(3 -9.11887e-16 0)
(3 -1.31214e-15 0)
(3 -1.29426e-15 0)
(3 -7.92732e-16 0)
(3 -5.7061e-16 0)
(3 -4.99677e-16 0)
(3 2.10909e-16 0)
(3 5.40716e-16 0)
(3 1.23112e-15 0)
(3 1.15636e-15 0)
(3 7.19333e-16 0)
(3 8.00947e-16 0)
(3 5.60145e-16 0)
(3 -2.02044e-16 0)
(3 -4.81238e-16 0)
(3 -9.72296e-16 0)
(3 -1.24779e-15 0)
(3 -9.16447e-16 0)
(3 -5.78575e-16 0)
(3 -8.37709e-16 0)
(3 -7.81848e-16 0)
(3 -6.71164e-16 0)
(3 -7.57562e-16 0)
(3 -3.13752e-16 0)
(3 -4.49397e-16 0)
(3 -6.15145e-16 0)
(3 -6.04363e-16 0)
(3 -5.64273e-16 0)
(3 -6.73796e-16 0)
(3 -6.04471e-16 0)
(3 -6.68447e-16 0)
(3 -1.06079e-15 0)
(3 -8.55775e-16 0)
(3 -8.60277e-16 0)
(3 -1.02087e-15 0)
(3 -1.5256e-15 0)
(3 -1.16513e-15 0)
(3 -8.21451e-16 0)
(3 -1.08163e-15 0)
(3 -1.5795e-15 0)
(3 -1.75852e-15 0)
(3 -6.34653e-16 0)
(3 7.6834e-17 0)
(3 7.671e-16 0)
(3 9.8655e-16 0)
(3 1.02094e-15 0)
(3 2.89478e-16 0)
(3 -1.41721e-15 0)
(3 -3.59112e-15 0)
(3 -2.34272e-15 0)
(3 -5.30711e-16 0)
(3 -4.40507e-16 0)
(3 1.80635e-17 0)
(3 1.25498e-15 0)
(3 1.02666e-15 0)
(3 2.40919e-16 0)
(3 -3.48206e-16 0)
(3 -4.57282e-16 0)
(3 -1.13214e-15 0)
(3 -1.16972e-15 0)
(3 9.40085e-18 0)
(3 1.30931e-15 0)
(3 6.59257e-16 0)
(3 4.54979e-16 0)
(3 1.52404e-16 0)
(3 4.44475e-16 0)
(3 -1.00999e-16 0)
(3 -2.20356e-16 0)
(3 -2.41097e-16 0)
(3 3.04419e-16 0)
(3 -5.47397e-18 0)
(3 -4.65094e-16 0)
(3 -3.49959e-16 0)
(3 2.90445e-16 0)
(3 1.30157e-15 0)
(3 1.24115e-15 0)
(3 8.21683e-16 0)
(3 4.65042e-16 0)
(3 2.40459e-16 0)
(3 3.29957e-16 0)
(3 1.73274e-16 0)
(3 5.15542e-16 0)
(3 9.80064e-16 0)
(3 1.36318e-15 0)
(3 1.53529e-15 0)
(3 9.37725e-16 0)
(3 -5.66511e-16 0)
(3 -1.03532e-15 0)
(3 -7.11561e-16 0)
(3 -2.3393e-16 0)
(3 -1.04008e-16 0)
(3 -3.26506e-16 0)
(3 1.11875e-16 0)
(3 1.8259e-16 0)
(3 -4.33082e-16 0)
(3 -1.18721e-15 0)
(3 -1.62883e-15 0)
(3 -1.54151e-15 0)
(3 -1.50986e-16 0)
(3 1.46735e-15 0)
(3 2.43089e-15 0)
(3 1.58161e-15 0)
(3 3.81728e-16 0)
(3 3.21542e-17 0)
(3 1.76894e-15 0)
(3 2.02383e-15 0)
(3 1.27042e-15 0)
(3 1.36707e-15 0)
(3 5.48423e-16 0)
(3 1.00932e-16 0)
(3 -6.18452e-16 0)
(3 -4.90144e-16 0)
(3 -3.42037e-16 0)
(3 -2.95443e-16 0)
(3 -1.30035e-15 0)
(3 -2.47087e-15 0)
(3 -2.62632e-15 0)
(3 -1.94337e-15 0)
(3 -1.398e-15 0)
(3 -9.92727e-16 0)
(3 -1.13877e-15 0)
(3 -1.71617e-15 0)
(3 -2.39385e-15 0)
(3 -2.53492e-15 0)
(3 -2.92735e-15 0)
(3 -2.77831e-15 0)
(3 -1.98589e-15 0)
(3 -1.77333e-15 0)
(3 -1.88712e-15 0)
(3 -7.48127e-16 0)
(3 -1.33103e-15 0)
(3 -1.37137e-15 0)
(3 -8.98726e-16 0)
(3 -3.94951e-16 0)
(3 -4.2074e-16 0)
(3 -1.05013e-15 0)
(3 -1.56621e-15 0)
(3 7.95038e-16 0)
(3 2.05915e-15 0)
(3 2.67579e-15 0)
(3 2.22528e-15 0)
(3 2.11395e-15 0)
(3 1.4523e-16 0)
(3 -2.3411e-15 0)
(3 -4.48992e-15 0)
(3 -2.87798e-15 0)
(3 -2.36175e-16 0)
(3 5.85922e-16 0)
(3 8.59228e-16 0)
(3 1.60434e-15 0)
(3 9.09813e-16 0)
(3 -8.39325e-16 0)
(3 -2.20241e-15 0)
(3 -1.3727e-15 0)
(3 -9.81754e-16 0)
(3 -3.61393e-16 0)
(3 1.80509e-15 0)
(3 2.78081e-15 0)
(3 2.52759e-15 0)
(3 1.97508e-15 0)
(3 9.76786e-16 0)
(3 1.04709e-15 0)
(3 -9.53447e-19 0)
(3 3.81801e-17 0)
(3 1.09571e-16 0)
(3 5.62634e-17 0)
(3 3.06257e-17 0)
(3 -4.56691e-16 0)
(3 -7.18882e-16 0)
(3 -9.52334e-16 0)
(3 -6.94089e-16 0)
(3 -5.84043e-16 0)
(3 -1.26881e-16 0)
(3 2.89264e-16 0)
(3 8.78816e-16 0)
(3 5.06496e-16 0)
(3 1.32601e-16 0)
(3 1.68962e-16 0)
(3 1.13821e-16 0)
(3 3.35891e-16 0)
(3 4.47053e-16 0)
(3 5.68332e-16 0)
(3 1.45581e-17 0)
(3 -1.80208e-17 0)
(3 -8.78884e-17 0)
(3 -3.05292e-16 0)
(3 -3.76177e-16 0)
(3 -6.11317e-16 0)
(3 -7.66373e-16 0)
(3 -1.21653e-15 0)
(3 -2.31998e-15 0)
(3 -2.4658e-15 0)
(3 -1.9549e-15 0)
(3 -1.57982e-15 0)
(3 -4.17702e-16 0)
(3 1.49435e-15 0)
(3 2.29143e-15 0)
(3 2.00144e-15 0)
(3 6.86574e-16 0)
(3 6.58351e-16 0)
(3 1.41309e-15 0)
(3 9.53312e-16 0)
(3 8.73582e-16 0)
(3 -1.85862e-16 0)
(3 -2.04382e-16 0)
(3 3.94009e-17 0)
(3 1.35027e-16 0)
(3 2.37948e-16 0)
(3 -2.11837e-16 0)
(3 -1.10201e-15 0)
(3 -2.08853e-15 0)
(3 -2.60368e-15 0)
(3 -2.71703e-15 0)
(3 -2.57736e-15 0)
(3 -2.16624e-15 0)
(3 -2.40948e-15 0)
(3 -2.37428e-15 0)
(3 -1.99449e-15 0)
(3 -1.74528e-15 0)
(3 -1.89063e-15 0)
(3 -2.51748e-15 0)
(3 -2.6297e-15 0)
(3 -2.35481e-15 0)
(3 -1.5532e-15 0)
(3 -1.53725e-15 0)
(3 -9.51284e-16 0)
(3 -1.0594e-15 0)
(3 -5.64299e-16 0)
(3 -5.44581e-16 0)
(3 7.79135e-16 0)
(3 1.30161e-15 0)
(3 9.83048e-16 0)
(3 1.17381e-16 0)
(3 8.88702e-17 0)
(3 6.91027e-16 0)
(3 1.91689e-15 0)
(3 2.32158e-15 0)
(3 1.56735e-15 0)
(3 -9.84397e-16 0)
(3 -2.61682e-15 0)
(3 -3.41407e-15 0)
(3 -3.29265e-15 0)
(3 -3.15238e-15 0)
(3 -2.77234e-15 0)
(3 -1.91547e-15 0)
(3 -4.55172e-17 0)
(3 1.90908e-15 0)
(3 1.96971e-15 0)
(3 1.19071e-15 0)
(3 9.96197e-16 0)
(3 6.01204e-16 0)
(3 1.59339e-16 0)
(3 1.19456e-16 0)
(3 6.48253e-16 0)
(3 1.91849e-15 0)
(3 1.35465e-15 0)
(3 1.28174e-16 0)
(3 1.90458e-15 0)
(3 8.9379e-17 0)
(3 1.39737e-16 0)
(3 1.57581e-16 0)
(3 -2.75592e-17 0)
(3 -4.16087e-18 0)
(3 1.94377e-16 0)
(3 -1.92286e-17 0)
(3 -1.39249e-16 0)
(3 3.28661e-16 0)
(3 5.73599e-16 0)
(3 9.57336e-16 0)
(3 1.12858e-15 0)
(3 1.05748e-15 0)
(3 1.83984e-16 0)
(3 -5.30245e-16 0)
(3 -1.7179e-15 0)
(3 -1.80534e-15 0)
(3 -1.67783e-15 0)
(3 -1.04537e-15 0)
(3 -6.68773e-16 0)
(3 7.54833e-16 0)
(3 1.3696e-15 0)
(3 1.4494e-15 0)
(3 2.43788e-16 0)
(3 -6.74396e-16 0)
(3 -6.68065e-16 0)
(3 -8.75854e-16 0)
(3 -1.30687e-15 0)
(3 -1.78556e-15 0)
(3 -2.11524e-15 0)
(3 -2.82744e-15 0)
(3 -2.19084e-15 0)
(3 3.42914e-16 0)
(3 1.37415e-15 0)
(3 9.63905e-16 0)
(3 6.76809e-16 0)
(3 1.28642e-15 0)
(3 1.37792e-15 0)
(3 1.36013e-15 0)
(3 7.79176e-16 0)
(3 -1.00204e-15 0)
(3 -1.86549e-15 0)
(3 -1.68252e-15 0)
(3 -1.07895e-15 0)
(3 -4.88824e-16 0)
(3 -7.118e-16 0)
(3 -1.54369e-15 0)
(3 -2.0758e-15 0)
(3 -2.61561e-15 0)
(3 -3.29431e-15 0)
(3 -3.54129e-15 0)
(3 -3.89276e-15 0)
(3 -3.2983e-15 0)
(3 -2.60371e-15 0)
(3 -2.14492e-15 0)
(3 -1.71623e-15 0)
(3 -9.11952e-16 0)
(3 -1.29897e-15 0)
(3 -1.72299e-15 0)
(3 -2.07958e-15 0)
(3 -2.0994e-15 0)
(3 -1.91315e-15 0)
(3 -7.80441e-16 0)
(3 3.85298e-16 0)
(3 5.34249e-16 0)
(3 -5.42565e-16 0)
(3 1.18133e-15 0)
(3 2.039e-15 0)
(3 2.23636e-15 0)
(3 1.79127e-15 0)
(3 3.74685e-16 0)
(3 -3.72623e-16 0)
(3 -6.19258e-16 0)
(3 6.41089e-16 0)
(3 1.29608e-15 0)
(3 -1.46398e-16 0)
(3 -2.45376e-15 0)
(3 -3.66336e-15 0)
(3 -4.5971e-15 0)
(3 -5.15779e-15 0)
(3 -4.498e-15 0)
(3 -1.61446e-15 0)
(3 -1.09714e-15 0)
(3 8.45441e-16 0)
(3 3.66273e-15 0)
(3 4.47863e-15 0)
(3 3.28685e-15 0)
(3 2.48096e-15 0)
(3 1.37627e-15 0)
(3 1.05192e-15 0)
(3 6.69462e-16 0)
(3 8.68455e-16 0)
(3 7.51415e-16 0)
(3 6.89782e-16 0)
(3 3.71324e-16 0)
(3 7.50335e-16 0)
(3 -3.94424e-16 0)
(3 -3.4892e-16 0)
(3 -2.96911e-16 0)
(3 -1.19254e-16 0)
(3 1.7865e-16 0)
(3 6.23796e-16 0)
(3 8.13967e-16 0)
(3 1.13926e-15 0)
(3 7.87438e-16 0)
(3 3.19715e-16 0)
(3 1.34009e-16 0)
(3 -2.44268e-16 0)
(3 -1.15e-15 0)
(3 -1.73892e-15 0)
(3 -1.13604e-15 0)
(3 -8.67853e-16 0)
(3 -9.53939e-16 0)
(3 -5.49317e-16 0)
(3 -4.01929e-16 0)
(3 -5.75493e-16 0)
(3 -2.21135e-16 0)
(3 2.12185e-16 0)
(3 1.53584e-16 0)
(3 -3.07602e-16 0)
(3 -1.06927e-15 0)
(3 -1.30311e-15 0)
(3 -1.42624e-15 0)
(3 -1.73832e-15 0)
(3 -1.71853e-15 0)
(3 -1.51564e-15 0)
(3 -2.01787e-15 0)
(3 -1.48911e-16 0)
(3 6.61792e-16 0)
(3 5.23541e-16 0)
(3 1.31227e-16 0)
(3 1.25495e-16 0)
(3 3.10029e-16 0)
(3 6.36241e-16 0)
(3 -4.2501e-16 0)
(3 -1.49511e-15 0)
(3 -2.57673e-15 0)
(3 -2.33803e-15 0)
(3 -2.05265e-15 0)
(3 -2.22025e-15 0)
(3 -2.18012e-15 0)
(3 -1.60602e-15 0)
(3 -9.57639e-16 0)
(3 -1.21347e-15 0)
(3 -2.67435e-15 0)
(3 -3.45074e-15 0)
(3 -3.65194e-15 0)
(3 -3.68074e-15 0)
(3 -3.40024e-15 0)
(3 -1.89286e-15 0)
(3 -1.2349e-15 0)
(3 -1.08651e-15 0)
(3 -1.54535e-15 0)
(3 -1.58084e-15 0)
(3 -1.48436e-15 0)
(3 -1.55291e-15 0)
(3 -1.23645e-15 0)
(3 -8.55104e-16 0)
(3 -8.42355e-17 0)
(3 1.05925e-15 0)
(3 1.21448e-15 0)
(3 8.74484e-16 0)
(3 3.51059e-15 0)
(3 4.63749e-15 0)
(3 4.97948e-15 0)
(3 4.48299e-15 0)
(3 3.09782e-15 0)
(3 1.15199e-15 0)
(3 -3.4534e-16 0)
(3 -9.08591e-16 0)
(3 -1.33591e-15 0)
(3 -1.98868e-15 0)
(3 -2.56816e-15 0)
(3 -2.852e-15 0)
(3 -2.86524e-15 0)
(3 -2.67854e-15 0)
(3 -1.87513e-15 0)
(3 -1.33408e-15 0)
(3 -1.25062e-15 0)
(3 -5.92428e-16 0)
(3 5.42179e-16 0)
(3 2.13157e-15 0)
(3 2.09765e-15 0)
(3 1.71199e-15 0)
(3 9.88494e-16 0)
(3 9.32017e-16 0)
(3 -1.94307e-16 0)
(3 -9.82453e-16 0)
(3 -1.71879e-15 0)
(3 -7.68372e-16 0)
(3 7.78762e-16 0)
(3 2.72637e-16 0)
(3 -5.09127e-17 0)
(3 1.52854e-17 0)
(3 1.93301e-16 0)
(3 3.97901e-16 0)
(3 4.00824e-16 0)
(3 1.18869e-16 0)
(3 1.85978e-16 0)
(3 3.65409e-16 0)
(3 1.20314e-16 0)
(3 3.18777e-16 0)
(3 -1.63205e-16 0)
(3 -8.68023e-16 0)
(3 -5.76829e-16 0)
(3 -3.4662e-16 0)
(3 -8.17926e-17 0)
(3 -1.63688e-16 0)
(3 -8.0068e-17 0)
(3 9.87012e-17 0)
(3 -2.45095e-16 0)
(3 -7.96178e-16 0)
(3 -1.01773e-15 0)
(3 -5.02783e-16 0)
(3 -8.58062e-16 0)
(3 -1.77572e-15 0)
(3 -2.0185e-15 0)
(3 -2.24875e-15 0)
(3 -2.78416e-15 0)
(3 -2.69542e-15 0)
(3 -2.61119e-15 0)
(3 -1.39793e-15 0)
(3 -9.90256e-16 0)
(3 2.17967e-16 0)
(3 3.97193e-16 0)
(3 -2.9717e-16 0)
(3 -1.17403e-15 0)
(3 -1.58494e-15 0)
(3 -1.31975e-15 0)
(3 -8.62502e-16 0)
(3 -1.22509e-15 0)
(3 -2.50125e-15 0)
(3 -2.71791e-15 0)
(3 -2.29926e-15 0)
(3 -2.36515e-15 0)
(3 -2.04727e-15 0)
(3 -1.25811e-15 0)
(3 -3.41106e-16 0)
(3 4.21132e-16 0)
(3 -1.16332e-16 0)
(3 -3.67651e-16 0)
(3 -2.04935e-15 0)
(3 -1.50417e-15 0)
(3 -8.50436e-16 0)
(3 -1.90558e-15 0)
(3 -2.49457e-15 0)
(3 -2.78406e-15 0)
(3 -2.64955e-15 0)
(3 -2.67304e-15 0)
(3 -1.90195e-15 0)
(3 -7.58778e-16 0)
(3 -8.29951e-16 0)
(3 -1.08675e-16 0)
(3 2.6528e-17 0)
(3 5.98362e-16 0)
(3 -5.36183e-17 0)
(3 3.82141e-16 0)
(3 2.2919e-15 0)
(3 3.33083e-15 0)
(3 3.30603e-15 0)
(3 3.87019e-15 0)
(3 3.24771e-15 0)
(3 4.07218e-15 0)
(3 3.38931e-15 0)
(3 2.20417e-15 0)
(3 1.51881e-15 0)
(3 8.4212e-19 0)
(3 -9.1859e-16 0)
(3 -2.42367e-15 0)
(3 -1.37214e-15 0)
(3 -1.12492e-15 0)
(3 -1.52671e-15 0)
(3 -9.31263e-16 0)
(3 -6.19725e-16 0)
(3 -6.78545e-16 0)
(3 -6.04179e-16 0)
(3 5.644e-16 0)
(3 1.40698e-15 0)
(3 1.55711e-15 0)
(3 4.01774e-16 0)
(3 -9.94787e-17 0)
(3 1.65835e-16 0)
(3 -2.32138e-16 0)
(3 -1.91157e-16 0)
(3 -5.03504e-17 0)
(3 9.65037e-16 0)
(3 1.66409e-15 0)
(3 2.69003e-15 0)
(3 1.19064e-17 0)
(3 -1.75639e-16 0)
(3 1.60048e-16 0)
(3 -6.50504e-17 0)
(3 -2.74201e-17 0)
(3 1.42476e-17 0)
(3 2.64861e-16 0)
(3 4.58765e-16 0)
(3 2.66e-16 0)
(3 3.18233e-16 0)
(3 -1.51485e-16 0)
(3 -5.61481e-16 0)
(3 -3.6256e-16 0)
(3 1.0411e-16 0)
(3 -4.08256e-16 0)
(3 -1.30884e-15 0)
(3 -9.94663e-16 0)
(3 -7.33936e-16 0)
(3 2.0318e-16 0)
(3 5.64479e-16 0)
(3 1.19946e-15 0)
(3 1.13211e-15 0)
(3 4.21576e-16 0)
(3 -6.4793e-16 0)
(3 -1.06525e-15 0)
(3 -1.76355e-15 0)
(3 -3.14324e-15 0)
(3 -2.61306e-15 0)
(3 -1.52191e-15 0)
(3 1.47743e-16 0)
(3 1.05644e-15 0)
(3 8.45041e-16 0)
(3 1.17692e-15 0)
(3 1.15247e-15 0)
(3 5.16248e-16 0)
(3 -6.73606e-17 0)
(3 -2.67391e-16 0)
(3 -9.84706e-16 0)
(3 -1.39418e-15 0)
(3 -1.61795e-15 0)
(3 -1.58084e-15 0)
(3 -2.07284e-15 0)
(3 -1.52078e-15 0)
(3 -1.12594e-15 0)
(3 -1.40994e-15 0)
(3 -1.12497e-15 0)
(3 -2.70756e-17 0)
(3 1.17316e-16 0)
(3 -1.12352e-16 0)
(3 -1.29417e-15 0)
(3 -5.03021e-16 0)
(3 -5.804e-17 0)
(3 3.50606e-16 0)
(3 -4.39676e-16 0)
(3 -9.58041e-16 0)
(3 -1.14182e-15 0)
(3 -1.86957e-15 0)
(3 -1.36542e-15 0)
(3 -1.0889e-15 0)
(3 -9.39527e-16 0)
(3 -6.92208e-16 0)
(3 1.60093e-16 0)
(3 9.13782e-16 0)
(3 1.8204e-15 0)
(3 2.13167e-15 0)
(3 1.68743e-15 0)
(3 1.28678e-15 0)
(3 5.98737e-16 0)
(3 4.33573e-17 0)
(3 1.13645e-15 0)
(3 1.59026e-15 0)
(3 1.64953e-15 0)
(3 1.46863e-15 0)
(3 1.32415e-15 0)
(3 1.27408e-15 0)
(3 1.88495e-15 0)
(3 1.47694e-15 0)
(3 1.77243e-16 0)
(3 1.90808e-16 0)
(3 1.63273e-16 0)
(3 1.11587e-16 0)
(3 5.42245e-16 0)
(3 4.55092e-16 0)
(3 3.31141e-16 0)
(3 7.56885e-16 0)
(3 8.6477e-16 0)
(3 2.82077e-16 0)
(3 -1.46571e-15 0)
(3 -1.51217e-15 0)
(3 -8.6765e-16 0)
(3 -7.09519e-16 0)
(3 -8.86419e-16 0)
(3 -4.40599e-18 0)
(3 7.44226e-16 0)
(3 1.01133e-15 0)
(3 1.19373e-15 0)
(3 -9.83685e-18 0)
(3 7.06365e-17 0)
(3 6.45653e-17 0)
(3 -3.62162e-16 0)
(3 3.84847e-17 0)
(3 4.90912e-16 0)
(3 3.52379e-16 0)
(3 1.01225e-16 0)
(3 -5.50539e-17 0)
(3 -3.8827e-16 0)
(3 -6.85338e-16 0)
(3 -1.34594e-15 0)
(3 -1.52604e-15 0)
(3 -7.2251e-16 0)
(3 -5.18052e-16 0)
(3 -5.22826e-16 0)
(3 -8.85458e-16 0)
(3 -8.03304e-16 0)
(3 -4.3463e-16 0)
(3 -1.06058e-16 0)
(3 2.52611e-16 0)
(3 5.75991e-17 0)
(3 -3.4958e-16 0)
(3 -9.3679e-16 0)
(3 -1.08566e-15 0)
(3 -9.05929e-16 0)
(3 -1.88349e-15 0)
(3 -2.24082e-15 0)
(3 -1.78841e-15 0)
(3 2.12292e-16 0)
(3 1.94852e-15 0)
(3 2.04847e-15 0)
(3 1.84992e-15 0)
(3 1.92751e-15 0)
(3 5.47505e-16 0)
(3 -3.06275e-16 0)
(3 -1.58612e-15 0)
(3 -1.88736e-15 0)
(3 -1.00279e-15 0)
(3 -7.54908e-16 0)
(3 -2.07751e-16 0)
(3 -2.7701e-16 0)
(3 -1.48968e-15 0)
(3 -2.07315e-15 0)
(3 -3.5838e-15 0)
(3 -3.55528e-15 0)
(3 -5.76776e-16 0)
(3 5.0035e-16 0)
(3 2.3104e-16 0)
(3 4.13657e-16 0)
(3 5.72634e-16 0)
(3 1.84516e-15 0)
(3 1.8427e-15 0)
(3 4.93596e-16 0)
(3 -1.99668e-15 0)
(3 -2.03178e-15 0)
(3 -2.33955e-15 0)
(3 -2.30493e-15 0)
(3 -2.0986e-15 0)
(3 -1.97636e-15 0)
(3 -1.65761e-15 0)
(3 -6.97178e-16 0)
(3 1.1567e-15 0)
(3 2.33898e-15 0)
(3 2.83156e-15 0)
(3 2.57483e-15 0)
(3 2.21876e-15 0)
(3 2.29468e-15 0)
(3 1.80746e-15 0)
(3 1.66723e-15 0)
(3 1.17948e-15 0)
(3 1.22766e-15 0)
(3 9.92042e-16 0)
(3 1.22937e-15 0)
(3 2.3821e-15 0)
(3 3.38571e-15 0)
(3 3.43043e-15 0)
(3 2.80461e-15 0)
(3 2.74957e-15 0)
(3 2.67828e-15 0)
(3 1.06109e-15 0)
(3 2.11883e-16 0)
(3 -1.4004e-15 0)
(3 -2.04212e-15 0)
(3 -2.46084e-15 0)
(3 -2.27722e-15 0)
(3 -2.44001e-15 0)
(3 -3.23146e-15 0)
(3 -3.64038e-15 0)
(3 -3.25243e-15 0)
(3 -1.53927e-15 0)
(3 -1.2979e-16 0)
(3 3.44942e-16 0)
(3 2.59806e-16 0)
(3 -2.80072e-16 0)
(3 -3.66197e-16 0)
(3 1.40225e-16 0)
(3 1.27584e-16 0)
(3 -1.74152e-16 0)
(3 -2.80558e-16 0)
(3 -9.0426e-17 0)
(3 1.24989e-17 0)
(3 1.88518e-17 0)
(3 7.02986e-17 0)
(3 -2.28623e-16 0)
(3 -4.24404e-16 0)
(3 -7.04017e-16 0)
(3 -1.77766e-15 0)
(3 -1.20714e-15 0)
(3 -1.00562e-16 0)
(3 4.37262e-16 0)
(3 6.92599e-16 0)
(3 -2.62888e-16 0)
(3 -3.5534e-16 0)
(3 -6.16995e-16 0)
(3 -6.77449e-16 0)
(3 -9.10117e-16 0)
(3 -1.03999e-15 0)
(3 -1.22086e-15 0)
(3 -1.05968e-15 0)
(3 -1.25502e-15 0)
(3 -5.99575e-16 0)
(3 -2.41707e-16 0)
(3 1.74268e-16 0)
(3 8.16568e-16 0)
(3 1.87056e-15 0)
(3 2.31473e-15 0)
(3 2.62591e-15 0)
(3 9.18083e-16 0)
(3 5.08129e-16 0)
(3 -8.86179e-16 0)
(3 -2.34549e-15 0)
(3 -2.5565e-15 0)
(3 -1.63709e-15 0)
(3 -1.77455e-15 0)
(3 -1.70908e-15 0)
(3 -5.14212e-16 0)
(3 -4.31478e-16 0)
(3 -1.66348e-15 0)
(3 -2.66896e-15 0)
(3 -3.13397e-15 0)
(3 -2.97261e-15 0)
(3 -1.42081e-15 0)
(3 1.36418e-15 0)
(3 1.98588e-15 0)
(3 3.00657e-15 0)
(3 3.55449e-15 0)
(3 3.2712e-15 0)
(3 1.81314e-15 0)
(3 2.29227e-16 0)
(3 -1.30521e-16 0)
(3 -1.31669e-15 0)
(3 -1.42535e-15 0)
(3 -2.1758e-16 0)
(3 -7.56694e-16 0)
(3 -8.4138e-16 0)
(3 -1.47648e-16 0)
(3 2.53393e-16 0)
(3 5.15211e-16 0)
(3 9.21533e-16 0)
(3 9.16314e-16 0)
(3 4.27534e-16 0)
(3 3.25094e-16 0)
(3 5.23424e-16 0)
(3 7.39084e-16 0)
(3 9.90764e-16 0)
(3 9.85235e-16 0)
(3 8.99734e-16 0)
(3 1.81752e-15 0)
(3 2.57647e-15 0)
(3 3.38782e-15 0)
(3 3.6185e-15 0)
(3 3.41179e-15 0)
(3 2.8469e-15 0)
(3 1.92606e-15 0)
(3 2.22348e-16 0)
(3 -2.17429e-15 0)
(3 -3.93171e-15 0)
(3 -3.78073e-15 0)
(3 -2.22251e-15 0)
(3 -2.12467e-15 0)
(3 -2.60146e-15 0)
(3 -2.63172e-15 0)
(3 -3.26401e-15 0)
(3 -3.29696e-15 0)
(3 -2.61767e-15 0)
(3 -1.34157e-15 0)
(3 -1.01306e-16 0)
(3 2.58498e-16 0)
(3 -9.37878e-16 0)
(3 -1.68595e-15 0)
(3 -1.32032e-15 0)
(3 7.05363e-17 0)
(3 3.79645e-17 0)
(3 -2.12091e-16 0)
(3 -2.18613e-16 0)
(3 -1.19668e-16 0)
(3 1.26807e-16 0)
(3 5.81808e-16 0)
(3 8.54994e-16 0)
(3 2.09256e-16 0)
(3 -7.37385e-17 0)
(3 -5.73954e-16 0)
(3 -7.90725e-16 0)
(3 9.6397e-16 0)
(3 1.70154e-15 0)
(3 1.646e-15 0)
(3 5.0906e-16 0)
(3 -4.57485e-16 0)
(3 -4.11791e-16 0)
(3 -6.76897e-16 0)
(3 -8.59062e-16 0)
(3 -8.39853e-16 0)
(3 -8.33556e-16 0)
(3 -1.08997e-15 0)
(3 -9.48138e-16 0)
(3 -8.32097e-16 0)
(3 2.41799e-16 0)
(3 1.59146e-15 0)
(3 2.55614e-15 0)
(3 2.57315e-15 0)
(3 2.11186e-15 0)
(3 1.70315e-15 0)
(3 1.16783e-15 0)
(3 -2.14712e-17 0)
(3 -4.29535e-16 0)
(3 -7.75315e-16 0)
(3 -8.88199e-16 0)
(3 -3.59749e-16 0)
(3 -1.14501e-16 0)
(3 -3.74743e-16 0)
(3 -1.30253e-15 0)
(3 -2.40204e-15 0)
(3 -2.60177e-15 0)
(3 -2.65842e-15 0)
(3 -2.91634e-15 0)
(3 -2.2493e-15 0)
(3 -1.95638e-15 0)
(3 -1.01844e-15 0)
(3 6.39166e-16 0)
(3 3.05288e-15 0)
(3 4.11655e-15 0)
(3 4.34058e-15 0)
(3 3.21631e-15 0)
(3 6.48529e-16 0)
(3 2.03347e-16 0)
(3 5.02817e-16 0)
(3 -2.00377e-16 0)
(3 1.3493e-15 0)
(3 1.85118e-15 0)
(3 1.66891e-15 0)
(3 1.41296e-15 0)
(3 8.80025e-16 0)
(3 -5.1674e-16 0)
(3 6.41627e-17 0)
(3 1.36243e-16 0)
(3 1.53731e-18 0)
(3 3.357e-16 0)
(3 8.72305e-16 0)
(3 5.86032e-16 0)
(3 7.41751e-16 0)
(3 4.84856e-16 0)
(3 1.82792e-15 0)
(3 2.11404e-15 0)
(3 2.60629e-15 0)
(3 2.83772e-15 0)
(3 2.83178e-15 0)
(3 3.06257e-15 0)
(3 3.63013e-15 0)
(3 4.76673e-15 0)
(3 4.1577e-15 0)
(3 1.98798e-15 0)
(3 1.72644e-15 0)
(3 7.40867e-16 0)
(3 4.95287e-16 0)
(3 7.27272e-17 0)
(3 -1.48856e-15 0)
(3 -2.59225e-15 0)
(3 -2.7846e-15 0)
(3 -3.14964e-15 0)
(3 -2.9715e-15 0)
(3 -1.59938e-15 0)
(3 -3.11542e-16 0)
(3 2.93582e-16 0)
(3 -5.48345e-16 0)
(3 -1.43895e-15 0)
(3 -1.68544e-15 0)
(3 -1.87094e-15 0)
(3 2.09227e-18 0)
(3 2.39207e-16 0)
(3 2.06469e-16 0)
(3 4.16784e-16 0)
(3 1.17242e-16 0)
(3 3.65342e-16 0)
(3 4.63395e-16 0)
(3 3.85206e-16 0)
(3 5.23144e-16 0)
(3 3.35102e-16 0)
(3 2.06633e-16 0)
(3 1.16e-15 0)
(3 1.01462e-15 0)
(3 1.08105e-15 0)
(3 3.48019e-16 0)
(3 -1.65017e-16 0)
(3 -3.48337e-16 0)
(3 -1.07912e-15 0)
(3 -2.05001e-15 0)
(3 -2.04703e-15 0)
(3 -1.45197e-15 0)
(3 -1.18027e-15 0)
(3 -9.75832e-16 0)
(3 -1.09617e-15 0)
(3 -7.50847e-16 0)
(3 7.36381e-16 0)
(3 2.0556e-15 0)
(3 1.27201e-15 0)
(3 -9.32159e-17 0)
(3 9.73325e-17 0)
(3 -7.96179e-16 0)
(3 -2.02789e-15 0)
(3 -1.91555e-15 0)
(3 -7.72974e-16 0)
(3 -8.05698e-16 0)
(3 -3.16323e-16 0)
(3 6.94685e-16 0)
(3 1.23915e-15 0)
(3 1.33935e-15 0)
(3 -2.79977e-16 0)
(3 -2.03218e-15 0)
(3 -2.12169e-15 0)
(3 -2.18126e-15 0)
(3 -2.27692e-15 0)
(3 -2.22664e-15 0)
(3 -1.97478e-15 0)
(3 -1.479e-15 0)
(3 1.39613e-15 0)
(3 2.42108e-15 0)
(3 2.06228e-15 0)
(3 2.66433e-15 0)
(3 1.46226e-15 0)
(3 3.39636e-16 0)
(3 5.60632e-17 0)
(3 -2.08023e-16 0)
(3 5.65535e-16 0)
(3 2.84289e-15 0)
(3 1.89098e-15 0)
(3 2.18143e-15 0)
(3 2.99815e-15 0)
(3 2.28301e-15 0)
(3 1.24474e-15 0)
(3 1.52816e-15 0)
(3 1.93086e-15 0)
(3 2.02347e-15 0)
(3 1.09255e-15 0)
(3 7.73469e-16 0)
(3 5.56041e-16 0)
(3 -5.11407e-16 0)
(3 -4.77761e-17 0)
(3 8.48627e-16 0)
(3 2.34274e-15 0)
(3 1.65206e-15 0)
(3 1.15993e-15 0)
(3 1.5329e-15 0)
(3 1.61834e-15 0)
(3 2.52163e-15 0)
(3 3.08267e-15 0)
(3 2.32378e-15 0)
(3 2.37913e-15 0)
(3 3.13504e-15 0)
(3 3.91732e-15 0)
(3 4.43663e-15 0)
(3 5.68642e-16 0)
(3 -1.48032e-15 0)
(3 -2.41082e-15 0)
(3 -3.35854e-15 0)
(3 -1.69622e-15 0)
(3 -1.02752e-15 0)
(3 -9.38137e-17 0)
(3 3.68629e-16 0)
(3 5.92985e-16 0)
(3 1.89028e-18 0)
(3 -1.44516e-15 0)
(3 -1.83758e-15 0)
(3 -1.80404e-15 0)
(3 6.41901e-18 0)
(3 1.43721e-17 0)
(3 5.63078e-17 0)
(3 1.09288e-16 0)
(3 -1.36242e-17 0)
(3 5.50957e-16 0)
(3 6.94974e-16 0)
(3 2.34182e-16 0)
(3 2.83385e-16 0)
(3 6.73906e-16 0)
(3 1.16507e-15 0)
(3 9.74264e-16 0)
(3 2.6353e-16 0)
(3 -3.1071e-16 0)
(3 -2.56651e-16 0)
(3 6.19467e-17 0)
(3 2.49408e-16 0)
(3 -2.45206e-16 0)
(3 -6.66929e-16 0)
(3 -1.15969e-15 0)
(3 -2.00539e-15 0)
(3 -1.96306e-15 0)
(3 -1.57076e-15 0)
(3 -5.13564e-16 0)
(3 -2.94921e-16 0)
(3 4.6176e-17 0)
(3 3.63385e-16 0)
(3 -1.51998e-16 0)
(3 -9.20215e-16 0)
(3 -1.91926e-15 0)
(3 -2.5506e-15 0)
(3 -2.6814e-15 0)
(3 -2.11081e-15 0)
(3 -1.83002e-15 0)
(3 -1.62466e-15 0)
(3 -1.45662e-15 0)
(3 -1.63286e-15 0)
(3 -1.47522e-15 0)
(3 -4.39484e-16 0)
(3 2.82022e-16 0)
(3 4.11606e-16 0)
(3 8.98802e-16 0)
(3 5.25478e-16 0)
(3 5.39723e-16 0)
(3 -2.38425e-16 0)
(3 -1.34758e-15 0)
(3 -2.25162e-16 0)
(3 9.70322e-16 0)
(3 1.38105e-15 0)
(3 1.07784e-15 0)
(3 -4.45119e-16 0)
(3 -2.13506e-15 0)
(3 -2.00419e-15 0)
(3 -1.72378e-15 0)
(3 -5.23795e-16 0)
(3 1.05935e-15 0)
(3 2.55035e-15 0)
(3 2.6963e-15 0)
(3 2.78026e-15 0)
(3 3.60344e-15 0)
(3 4.03484e-15 0)
(3 4.07658e-15 0)
(3 3.53587e-15 0)
(3 3.57161e-15 0)
(3 3.97661e-15 0)
(3 2.55085e-15 0)
(3 -2.81973e-16 0)
(3 -1.60756e-15 0)
(3 -1.48658e-15 0)
(3 -6.9946e-16 0)
(3 -4.81326e-16 0)
(3 -2.1951e-16 0)
(3 1.04855e-16 0)
(3 1.33676e-16 0)
(3 7.21107e-16 0)
(3 6.54515e-16 0)
(3 5.62651e-16 0)
(3 4.14522e-16 0)
(3 2.03001e-15 0)
(3 3.23193e-15 0)
(3 3.44127e-15 0)
(3 3.95824e-15 0)
(3 3.76751e-15 0)
(3 1.38369e-15 0)
(3 -1.7999e-16 0)
(3 -4.75043e-16 0)
(3 4.73533e-16 0)
(3 1.87135e-15 0)
(3 1.77473e-15 0)
(3 1.56786e-15 0)
(3 1.47064e-15 0)
(3 3.44331e-16 0)
(3 -6.71828e-17 0)
(3 -1.15494e-15 0)
(3 -2.34623e-15 0)
(3 -2.43895e-15 0)
(3 -1.70951e-16 0)
(3 -6.33751e-16 0)
(3 -5.47525e-16 0)
(3 -3.7712e-16 0)
(3 -2.76951e-16 0)
(3 -1.16843e-17 0)
(3 -1.52501e-17 0)
(3 7.12161e-17 0)
(3 1.41665e-16 0)
(3 1.73493e-16 0)
(3 7.73391e-17 0)
(3 3.77649e-16 0)
(3 6.05547e-16 0)
(3 6.82084e-16 0)
(3 4.44349e-16 0)
(3 3.97237e-18 0)
(3 -3.81127e-16 0)
(3 -3.91522e-16 0)
(3 1.54174e-16 0)
(3 -5.60148e-16 0)
(3 -1.3122e-15 0)
(3 -1.63593e-15 0)
(3 -1.43735e-15 0)
(3 -5.55501e-16 0)
(3 -6.79396e-17 0)
(3 -1.15545e-15 0)
(3 -1.09586e-15 0)
(3 -4.16491e-16 0)
(3 3.53286e-16 0)
(3 -6.19847e-16 0)
(3 -1.76122e-15 0)
(3 -2.78601e-15 0)
(3 -3.66527e-15 0)
(3 -3.385e-15 0)
(3 -2.6205e-15 0)
(3 -2.82197e-15 0)
(3 -3.85899e-15 0)
(3 -4.12795e-15 0)
(3 -1.89524e-15 0)
(3 1.79168e-15 0)
(3 3.32286e-15 0)
(3 2.69145e-15 0)
(3 1.75068e-15 0)
(3 1.33276e-15 0)
(3 8.31819e-16 0)
(3 3.93065e-16 0)
(3 7.618e-17 0)
(3 -4.08697e-16 0)
(3 3.05692e-16 0)
(3 1.63801e-15 0)
(3 -3.12205e-16 0)
(3 -1.61597e-15 0)
(3 -2.2036e-15 0)
(3 -1.9792e-15 0)
(3 3.04392e-16 0)
(3 1.01744e-15 0)
(3 8.88478e-16 0)
(3 1.03668e-15 0)
(3 1.75699e-15 0)
(3 3.02374e-15 0)
(3 4.31209e-15 0)
(3 5.25101e-15 0)
(3 4.75028e-15 0)
(3 4.31657e-15 0)
(3 3.82018e-15 0)
(3 2.24131e-15 0)
(3 1.13259e-15 0)
(3 7.56409e-16 0)
(3 -1.15177e-15 0)
(3 -2.12495e-15 0)
(3 -1.48107e-15 0)
(3 -1.22815e-15 0)
(3 -6.47542e-16 0)
(3 3.05555e-16 0)
(3 6.51205e-16 0)
(3 4.5622e-16 0)
(3 -2.6809e-16 0)
(3 -9.38082e-16 0)
(3 -1.13676e-15 0)
(3 -7.45047e-16 0)
(3 8.07847e-16 0)
(3 3.0225e-15 0)
(3 3.5461e-15 0)
(3 3.08032e-15 0)
(3 2.53326e-15 0)
(3 2.77119e-15 0)
(3 4.68321e-15 0)
(3 5.79461e-15 0)
(3 4.63855e-15 0)
(3 3.54739e-15 0)
(3 1.77848e-15 0)
(3 -3.81944e-16 0)
(3 -1.24599e-15 0)
(3 -1.06283e-15 0)
(3 -1.92373e-15 0)
(3 -2.6352e-15 0)
(3 -7.45004e-17 0)
(3 -1.63652e-16 0)
(3 -1.8035e-16 0)
(3 -2.5957e-16 0)
(3 9.1345e-17 0)
(3 -5.69264e-16 0)
(3 -9.30586e-16 0)
(3 -3.15376e-16 0)
(3 1.66106e-16 0)
(3 7.61772e-17 0)
(3 -4.81321e-16 0)
(3 -3.49946e-16 0)
(3 3.15657e-16 0)
(3 6.02942e-16 0)
(3 -1.22583e-16 0)
(3 -7.09772e-16 0)
(3 -8.8895e-16 0)
(3 -2.96295e-16 0)
(3 3.31497e-16 0)
(3 7.21147e-16 0)
(3 7.91385e-16 0)
(3 -1.17372e-17 0)
(3 5.64338e-16 0)
(3 1.03993e-15 0)
(3 2.09748e-15 0)
(3 1.84414e-15 0)
(3 8.61771e-16 0)
(3 7.61986e-16 0)
(3 1.26103e-15 0)
(3 8.66721e-16 0)
(3 -1.92307e-15 0)
(3 -3.5255e-15 0)
(3 -3.42479e-15 0)
(3 -3.43196e-15 0)
(3 -3.18784e-15 0)
(3 -3.18751e-15 0)
(3 -2.59674e-15 0)
(3 -5.76456e-16 0)
(3 5.99273e-16 0)
(3 2.34637e-15 0)
(3 2.66507e-15 0)
(3 2.20563e-15 0)
(3 2.58328e-15 0)
(3 1.28665e-15 0)
(3 1.37189e-15 0)
(3 1.26505e-15 0)
(3 8.6373e-17 0)
(3 -3.15126e-16 0)
(3 -6.12836e-16 0)
(3 -3.81309e-16 0)
(3 1.39436e-16 0)
(3 4.72329e-16 0)
(3 -2.85113e-17 0)
(3 1.42132e-15 0)
(3 1.27196e-15 0)
(3 2.55338e-16 0)
(3 5.57888e-16 0)
(3 1.38255e-15 0)
(3 2.20712e-15 0)
(3 3.79511e-15 0)
(3 5.31365e-15 0)
(3 3.80207e-15 0)
(3 1.29562e-15 0)
(3 6.79248e-16 0)
(3 5.99946e-16 0)
(3 -1.35566e-16 0)
(3 1.60608e-16 0)
(3 -1.75845e-16 0)
(3 -1.7977e-15 0)
(3 -2.91024e-15 0)
(3 -2.37827e-15 0)
(3 -1.41451e-15 0)
(3 -6.43293e-16 0)
(3 9.99721e-16 0)
(3 1.43091e-15 0)
(3 1.51639e-15 0)
(3 1.27573e-15 0)
(3 -1.44049e-16 0)
(3 -6.63076e-16 0)
(3 -6.44659e-17 0)
(3 1.05316e-15 0)
(3 1.95242e-15 0)
(3 3.67276e-15 0)
(3 4.66033e-15 0)
(3 4.89996e-15 0)
(3 5.04923e-15 0)
(3 5.48531e-15 0)
(3 4.97718e-15 0)
(3 4.34936e-15 0)
(3 2.75953e-15 0)
(3 6.29341e-16 0)
(3 -1.7668e-15 0)
(3 -1.78247e-15 0)
(3 -1.41116e-15 0)
(3 -2.38374e-15 0)
(3 -2.363e-15 0)
(3 2.30464e-17 0)
(3 1.73593e-16 0)
(3 4.84752e-16 0)
(3 5.01352e-16 0)
(3 -8.67398e-17 0)
(3 -4.32229e-16 0)
(3 -2.71036e-16 0)
(3 -1.14032e-16 0)
(3 5.54202e-17 0)
(3 -1.3154e-16 0)
(3 -2.13691e-16 0)
(3 -4.38859e-16 0)
(3 -9.57141e-16 0)
(3 -1.38009e-15 0)
(3 -4.14525e-16 0)
(3 -1.37505e-16 0)
(3 -4.18563e-17 0)
(3 7.39802e-21 0)
(3 -3.88278e-16 0)
(3 -2.47301e-16 0)
(3 2.32297e-16 0)
(3 4.05726e-16 0)
(3 1.06861e-15 0)
(3 2.37688e-15 0)
(3 3.26601e-15 0)
(3 3.64433e-15 0)
(3 3.05611e-15 0)
(3 1.8753e-15 0)
(3 5.16579e-17 0)
(3 -2.01096e-18 0)
(3 2.85716e-16 0)
(3 1.401e-16 0)
(3 -4.85631e-16 0)
(3 -1.25542e-15 0)
(3 -2.11184e-15 0)
(3 -2.23209e-15 0)
(3 -2.1778e-15 0)
(3 -2.13729e-15 0)
(3 -1.97668e-15 0)
(3 -8.75907e-16 0)
(3 3.89704e-16 0)
(3 6.88542e-16 0)
(3 7.4429e-17 0)
(3 -1.47883e-15 0)
(3 1.86383e-16 0)
(3 1.47547e-15 0)
(3 1.17941e-17 0)
(3 -5.98542e-16 0)
(3 -1.75362e-15 0)
(3 -2.28461e-15 0)
(3 -1.32375e-15 0)
(3 9.47621e-16 0)
(3 1.76617e-15 0)
(3 2.464e-15 0)
(3 2.27812e-15 0)
(3 2.1904e-15 0)
(3 2.34087e-15 0)
(3 2.75986e-15 0)
(3 3.11945e-15 0)
(3 3.65976e-15 0)
(3 3.83443e-15 0)
(3 2.98118e-15 0)
(3 1.73422e-18 0)
(3 -2.07385e-15 0)
(3 -3.13904e-15 0)
(3 -2.20308e-15 0)
(3 -1.28842e-15 0)
(3 -8.17734e-16 0)
(3 -4.57002e-16 0)
(3 -3.69277e-16 0)
(3 7.44188e-16 0)
(3 9.8725e-16 0)
(3 4.75527e-16 0)
(3 1.12817e-15 0)
(3 2.34048e-15 0)
(3 3.28839e-15 0)
(3 2.52164e-15 0)
(3 8.22932e-16 0)
(3 2.86283e-16 0)
(3 1.40351e-15 0)
(3 1.37118e-15 0)
(3 1.22731e-15 0)
(3 1.64198e-15 0)
(3 3.90654e-15 0)
(3 4.7833e-15 0)
(3 4.5775e-15 0)
(3 3.6983e-15 0)
(3 2.56333e-15 0)
(3 2.0057e-15 0)
(3 1.70456e-15 0)
(3 1.08714e-17 0)
(3 -1.8012e-15 0)
(3 -1.87236e-15 0)
(3 -1.54073e-15 0)
(3 -8.67e-16 0)
(3 -8.10889e-16 0)
(3 6.48439e-17 0)
(3 2.71129e-16 0)
(3 2.06862e-16 0)
(3 2.2059e-16 0)
(3 -5.6687e-16 0)
(3 -9.23865e-16 0)
(3 -5.46122e-16 0)
(3 4.40905e-17 0)
(3 1.32717e-16 0)
(3 -2.13884e-16 0)
(3 -2.4929e-16 0)
(3 -6.8651e-16 0)
(3 -1.3454e-15 0)
(3 -1.85195e-15 0)
(3 -1.47431e-15 0)
(3 1.67499e-16 0)
(3 1.22034e-15 0)
(3 1.29254e-15 0)
(3 -5.5113e-16 0)
(3 -1.37941e-15 0)
(3 -8.70672e-16 0)
(3 6.1368e-16 0)
(3 2.45512e-15 0)
(3 2.17617e-15 0)
(3 1.68905e-15 0)
(3 2.14789e-15 0)
(3 1.80988e-15 0)
(3 1.66078e-15 0)
(3 1.93914e-15 0)
(3 2.02192e-15 0)
(3 1.88716e-15 0)
(3 1.97534e-15 0)
(3 1.69447e-15 0)
(3 1.34302e-16 0)
(3 -1.17074e-15 0)
(3 -1.23826e-15 0)
(3 -2.5579e-15 0)
(3 -4.62182e-15 0)
(3 -4.47027e-15 0)
(3 -4.05649e-15 0)
(3 -3.68443e-15 0)
(3 -2.63323e-15 0)
(3 -3.13105e-15 0)
(3 -2.81801e-15 0)
(3 -9.50972e-16 0)
(3 1.10817e-15 0)
(3 6.77e-16 0)
(3 -5.6164e-16 0)
(3 -1.44418e-15 0)
(3 -1.74703e-15 0)
(3 -2.64652e-15 0)
(3 -8.33948e-16 0)
(3 1.58313e-15 0)
(3 1.80378e-15 0)
(3 2.84335e-15 0)
(3 4.02551e-15 0)
(3 2.72767e-15 0)
(3 8.86693e-16 0)
(3 5.36239e-16 0)
(3 6.07485e-16 0)
(3 1.36721e-15 0)
(3 2.1716e-15 0)
(3 1.1919e-15 0)
(3 -1.04283e-15 0)
(3 -4.49751e-15 0)
(3 -4.93115e-15 0)
(3 -2.7371e-15 0)
(3 -1.47317e-15 0)
(3 4.12948e-16 0)
(3 2.09803e-15 0)
(3 2.60134e-15 0)
(3 1.95549e-15 0)
(3 1.19016e-15 0)
(3 1.50613e-15 0)
(3 2.50561e-15 0)
(3 3.12955e-15 0)
(3 3.07315e-15 0)
(3 2.72162e-15 0)
(3 3.06433e-15 0)
(3 1.86756e-15 0)
(3 1.52758e-15 0)
(3 1.18599e-15 0)
(3 7.87151e-16 0)
(3 2.79033e-15 0)
(3 2.73865e-15 0)
(3 2.27518e-15 0)
(3 1.72774e-15 0)
(3 1.38637e-15 0)
(3 2.00321e-15 0)
(3 2.31588e-15 0)
(3 1.58608e-15 0)
(3 5.64816e-16 0)
(3 -1.52774e-16 0)
(3 -1.30089e-16 0)
(3 1.45072e-15 0)
(3 2.52247e-15 0)
(3 9.55759e-17 0)
(3 2.16376e-16 0)
(3 -4.60678e-17 0)
(3 -3.79007e-16 0)
(3 -3.90744e-16 0)
(3 -5.9212e-16 0)
(3 -2.90061e-16 0)
(3 -1.95149e-16 0)
(3 -8.26277e-17 0)
(3 6.42497e-17 0)
(3 -1.05688e-16 0)
(3 -3.88336e-16 0)
(3 -4.67792e-16 0)
(3 -8.42359e-16 0)
(3 -1.77994e-15 0)
(3 -1.41366e-15 0)
(3 -5.90891e-16 0)
(3 2.50352e-16 0)
(3 6.41176e-16 0)
(3 7.15162e-16 0)
(3 -3.23738e-17 0)
(3 1.30688e-16 0)
(3 7.88337e-16 0)
(3 5.77447e-16 0)
(3 1.79865e-16 0)
(3 -2.34179e-16 0)
(3 8.81865e-16 0)
(3 1.48941e-15 0)
(3 2.05834e-15 0)
(3 1.26936e-15 0)
(3 8.8016e-16 0)
(3 1.00718e-15 0)
(3 7.54141e-16 0)
(3 -2.28899e-16 0)
(3 -1.27995e-15 0)
(3 -1.62328e-15 0)
(3 -9.09277e-16 0)
(3 -2.39321e-15 0)
(3 -3.95095e-15 0)
(3 -4.46935e-15 0)
(3 -2.43012e-15 0)
(3 -7.8167e-16 0)
(3 -7.99385e-16 0)
(3 -5.61809e-16 0)
(3 -1.9536e-16 0)
(3 2.12958e-16 0)
(3 5.11523e-16 0)
(3 5.06242e-16 0)
(3 1.15254e-15 0)
(3 7.99071e-16 0)
(3 2.13376e-16 0)
(3 -3.30683e-17 0)
(3 4.85191e-16 0)
(3 1.28423e-15 0)
(3 1.9787e-15 0)
(3 1.86558e-15 0)
(3 1.49117e-15 0)
(3 1.03669e-15 0)