/*--------------------------------*- C++ -*----------------------------------*\
  =========                 |
  \\      /  F ield         | OpenFOAM: The Open Source CFD Toolbox
   \\    /   O peration     | Website:  https://openfoam.org
    \\  /    A nd           | Version:  7
     \\/     M anipulation  |
\*---------------------------------------------------------------------------*/
FoamFile
{
    version     2.0;
    format      ascii;
    class       volScalarField;
    location    "2.1";
    object      p;
}
// * * * * * * * * * * * * * * * * * * * * * * * * * * * * * * * * * * * * * //

dimensions      [1 -1 -2 0 0 0 0];

internalField   nonuniform List<scalar> 
18432
(
1
1
1
1
1
1
1
1
1
1
1
1
1
1
1
1
1
1
1
1
1
1
1
1
1
1
1
1
1
1
1
1
1
1
1
1
1
1
1
1
1
1
1
1
1
1
1
1
1
1
1
1
1
1
1
1
1
1
1
1
1
1
1
1
1
1
1
1
1
1
1
1
1
1
1
1
1
1
1
1
1
1
1
1
1
1
1
1
1
1
1
1
1
1
1
1
1
1
1
1
1
1
1
1
1
1
1
1
1
1
1
1
1
1
1
1
1
1
1
1
1
1
1
1
1
1
1
1
1
1
1
1
1
1
1
1
1
1
1
1
1
1
1
1
1
1
1
1
1
1
1
1
1
1
1
1
1
1
1
1
1
1
1
1
1
1
1
1
1
1
1
1
1
1
1
1
1
1
1
1
1
1
1
1
1
1
1
1
1
1
1
1
1
1
1
1
1
1
1
1
1
1
1
1
1
1
1
1
1
1
1
1
1
1
1
1
1
1
1
1
1
1
1
1
1
1
1
1
1
1
1
1
1
1
1
1
1
1
1
1
1
1
1
1
1
1
1
1
1
1
1
1
1
1
1
1
1
1
1
1
1
1
1
1
1
1
1
1
1
1
1
1
1
1
1
1
1
1
1
1
1
1
1
1
1
1
1
1
1
1
1
1
1
1
1
1
1
1
1
1
1
1
1
1
1
1
1
1
1
1
1
1
1
1
1
1
1
1
1
1
1
1
1
1
1
1
1
1
1
1
1
1
1
1
1
1
1
1
1
1
1
1
1
1
1
1
1
1
1
1
1
1
1
1
1
1
1
1
1
1
1
1
1
1
1
1
1
1
1
1
1
1
1
1
1
1
1
1
1
1
1
1
1
1
1
1
1
1
1
1
1
1
1
1
1
1
1
1
1
1
1
1
1
1
1
1
1
1
1
1
1
1
1
1
1
1
1
1
1
1
1
1
1
1
1
1
1
1
1
1
1
1
1
1
1
1
1
1
1
1
1
1
1
1
1
1
1
1
1
1
1
1
1
1
1
1
1
1
1
1
1
1
1
1
1
1
1
1
1
1
1
1
1
1
1
1
1
1
1
1
1
1
1
1
1
1
1
1
1
1
1
1
1
1
1
1
1
1
1
1
1
1
1
1
1
1
1
1
1
1
1
1
1
1
1
1
1
1
1
1
1
1
1
1
1
1
1
1
1
1
1
1
1
1
1
1
1
1
1
1
1
1
1
1
1
1
1
1
1
1
1
1
1
1
1
1
1
1
1
1
1
1
1
1
1
1
1
1
1
1
1
1
1
1
1
1
1
1
1
1
1
1
1
1
1
1
1
1
1
1
1
1
1
1
1
1
1
1
1
1
1
1
1
1
1
1
1
1
1
1
1
1
1
1
1
1
1
1
1
1
1
1
1
1
1
1
1
1
1
1
1
1
1
1
1
1
1
1
1
1
1
1
1
1
1
1
1
1
1
1
1
1
1
1
1
1
1
1
1
1
1
1
1
1
1
1
1
1
1
1
1
1
1
1
1
1
1
1
1
1
1
1
1
1
1
1
1
1
1
1
1
1
1
1
1
1
1
1
1
1
1
1
1
1
1
1
1
1
1
1
1
1
1
1
1
1
1
1
1
1
1
1
1
1
1
1
1
1
1
1
1
1
1
1
1
1
1
1
1
1
1
1
1
1
1
1
1
1
1
1
1
1
1
1
1
1
1
1
1
1
1
1
1
1
1
1
1
1
1
1
1
1
1
1
1
1
1
1
1
1
1
1
1
1
1
1
1
1
1
1
1
1
1
1
1
1
1
1
1
1
1
1
1
1
1
1
1
1
1
1
1
1
1
1
1
1
1
1
1
1
1
1
1
1
1
1
1
1
1
1
1
1
1
1
1
1
1
1
1
1
1
1
1
1
1
1
1
1
1
1
1
1
1
1
1
1
1
1
1
1
1
1
1
1
1
1
1
1
1
1
1
1
1
1
1
1
1
1
1
1
1
1
1
1
1
1
1
1
1
1
1
1
1
1
1
1
1
1
1
1
1
1
1
1
1
1
1
1
1
1
1
1
1
1
1
1
1
1
1
1
1
1
1
1
1
1
1
1
1
1
1
1
1
1
1
1
1
1
1
1
1
1
1
1
1
1
1
1
1
1
1
1
1
1
1
1
1
1
1
1
1
1
1
1
1
1
1
1
1
1
1
1
1
1
1
1
1
1
1
1
1
1
1
1
1
1
1
1
1
1
1
1
1
1
1
1
1
1
1
1
1
1
1
1
1
1
1
1
1
1
1
1
1
1
1
1
1
1
1
1
1
1
1
1
1
1
1
1
1
1
1
1
1
1
1
1
1
1
1
1
1
1
1
1
1
1
1
1
1
1
1
1
1
1
1
1
1
1
1
1
1
1
1
1
1
1
1
1
1
1
1
1
1
1
1
1
1
1
1
1
1
1
1
1
1
1
1
1
1
1
1
1
1
1
1
1
1
1
1
1
1
1
1
1
1
1
1
1
1
1
1
1
1
1
1
1
1
1
1
1
1
1
1
1
1
1
1
1
1
1
1
1
1
1
1
1
1
1
1
1
1
1
1
1
1
1
1
1
1
1
1
1
1
1
1
1
1
1
1
1
1
1
1
1
1
1
1
1
1
1
1
1
1
1
1
1
1
1
1
1
1
1
1
1
1
1
1
1
1
1
1
1
1
1
1
1
1
1
1
1
1
1
1
1
1
1
1
1
1
1
1
1
1
1
1
1
1
1
1
1
1
1
1
1
1
1
1
1
1
1
1
1
1
1
1
1
1
1
1
1
1
1
1
1
1
1
1
1
1
1
1
1
1
1
1
1
1
1
1
1
1
1
1
1
1
1
1
1
1
1
1
1
1
1
1
1
1
1
1
1
1
1
1
1
1
1
1
1
1
1
1
1
1
1
1
1
1
1
1
1
1
1
1
1
1
1
1
1
1
1
1
1
1
1
1
1
1
1
1
1
1
1
1
1
1
1
1
1
1
1
1
1
1
1
1
1
1
1
1
1
1
1
1
1
1
1
1
1
1
1
1
1
1
1
1
1
1
1
1
1
1
1
1
1
1
1
1
1
1
1
1
1
1
1
1
1
1
1
1
1
1
1
1
1
1
1
1
1
1
1
1
1
1
1
1
1
1
1
1
1
1
1
1
1
1
1
1
1
1
1
1
1
1
1
1
1
1
1
1
1
1
1
1
1
1
1
1
1
1
1
1
1
1
1
1
1
1
1
1
1
1
1
1
1
1
1
1
1
1
1
1
1
1
1
1
1
1
1
1
1
1
1
1
1
1
1
1
1
1
1
1
1
1
1
1
1
1
1
1
1
1
1
1
1
1
1
1
1
1
1
1
1
1
1
1
1
1
1
1
1
1
1
1
1
1
1
1
1
1
1
1
1
1
1
1
1
1
1
1
1
1
1
1
1
1
1
1
1
1
1
1
1
1
1
1
1
1
1
1
1
1
1
1
1
1
1
1
1
1
1
1
1
1
1
1
1
1
1
1
1
1
1
1
1
1
1
1
1
1
1
1
1
1
1
1
1
1
1
1
1
1
1
1
1
1
1
1
1
1
1
1
1
1
1
1
1
1
1
1
1
1
1
1
1
1
1
1
1
1
1
1
1
1
1
1
1
1
1
1
1
1
1
1
1
1
1
1
1
1
1
1
1
1
1
1
1
1
1
1
1
1
1
1
1
1
1
1
1
1
1
1
1
1
1
1
1
1
1
1
1
1
1
1
1
1
1
1
1
1
1
1
1
1
1
1
1
1
1
1
1
1
1
1
1
1
1
1
1
1
1
1
1
1
1
1
1
1
1
1
1
1
1
1
1
1
1
1
1
1
1
1
1
1
1
1
1
1
1
1
1
1
1
1
1
1
1
1
1
1
1
1
1
1
1
1
1
1
1
1
1
1
1
1
1
1
1
1
1
1
1
1
1
1
1
1
1
1
1
1
1
1
1
1
1
1
1
1
1
1
1
1
1
1
1
1
1
1
1
1
1
1
1
1
1
1
1
1
1
1
1
1
1
1
1
1
1
1
1
1
1
1
1
1
1
1
1
1
1
1
1
1
1
1
1
1
1
1
1
1
1
1
1
1
1
1
1
1
1
1
1
1
1
1
1
1
1
1
1
1
1
1
1
1
1
1
1
1
1
1
1
1
1
1
1
1
1
1
1
1
1
1
1
1
1
1
1
1
1
1
1
1
1
1
1
1
1
1
1
1
1
1
1
1
1
1
1
1
1
1
1
1
1
1
1
1
1
1
1
1
1
1
1
1
1
1
1
1
1
1
1
1
1
1
1
1
1
1
1
1
1
1
1
1
1
1
1
1
1
1
1
1
1
1
1
1
1
1
1
1
1
1
1
1
1
1
1
1
1
1
1
1
1
1
1
1
1
1
1
1
1
1
1
1
1
1
1
1
1
1
1
1
1
1
1
1
1
1
1
1
1
1
1
1
1
1
1
1
1
1
1
1
1
1
1
1
1
1
1
1
1
1
1
1
1
1
1
1
1
1
1
1
1
1
1
1
1
1
1
1
1
1
1
1
1
1
1
1
1
1
1
1
1
1
1
1
1
1
1
1
1
1
1
1
1
1
1
1
1
1
1
1
1
1
1
1
1
1
1
1
1
1
1
1
1
1
1
1
1
1
1
1
1
1
1
1
1
1
1
1
1
1
1
1
1
1
1
1
1
1
1
1
1
1
1
1
1
1
1
1
1
1
1
1
1
1
1
1
1
1
1
1
1
1
1
1
1
1
1
1
1
1
1
1
1
1
1
1
1
1
1
1
1
1
1
1
1
1
1
1
1
1
1
1
1
1
1
1
1
1
1
1
1
1
1
1
1
1
1
1
1
1
1
1
1
1
1
1
1
1
1
1
1
1
1
1
1
1
1
1
1
1
1
1
1
1
1
1
1
1
1
1
1
1
1
1
1
1
1
1
1
1
1
1
1
1
1
1
1
1
1
1
1
1
1
1
1
1
1
1
1
1
1
1
1
1
1
1
1
1
1
1
1
1
1
1
1
1
1
1
1
1
1
1
1
1
1
1
1
1
1
1
1
1
1
1
1
1
1
1
1
1
1
1
1
1
1
1
1
1
1
1
1
1
1
1
1
1
1
1
1
1
1
1
1
1
1
1
1
1
1
1
1
1
1
1
1
1
1
1
1
1
1
1
1
1
1
1
1
1
1
1
1
1
1
1
1
1
1
1
1
1
1
1
1
1
1
1
1
1
1
1
1
1
1
1
1
1
1
1
1
1
1
1
1
1
1
1
1
1
1
1
1
1
1
1
1
1
1
1
1
1
1
1
1
1
1
1
1
1
1
1
1
1
1
1
1
1
1
1
1
1
1
1
1
1
1
1
1
1
1
1
1
1
1
1
1
1
1
1
1
1
1
1
1
1
1
1
1
1
1
1
1
1
1
1
1
1
1
1
1
1
1
1
1
1
1
1
1
1
1
1
1
1
1
1
1
1
1
1
1
1
1
1
1
1
1
1
1
1
1
1
1
1
1
1
1
1
1
1
1
1
1
1
1
1
1
1
1
1
1
1
1
1
1
1
1
1
1
1
1
1
1
1
1
1
1
1
1
1
1
1
1
1
1
1
1
1
1
1
1
1
1
1
1
1
1
1
1
1
1
1
1
1
1
1
1
1
1
1
1
1
1
1
1
1
1
1
1
1
1
1
1
1
1
1
1
1
1
1
1
1
1
1
1
1
1
1
1
1
1
1
1
1
1
1
1
1
1
1
1
1
1
1
1
1
1
1
1
1
1
1
1
1
1
1
1
1
1
1
1
1
1
1
1
1
1
1
1
1
1
1
1
1
1
1
1
1
1
1
1
1
1
1
1
1
1
1
1
1
1
1
1
1
1
1
1
1
1
1
1
1
1
1
1
1
1
1
1
1
1
1
1
1
1
1
1
1
1
1
1
1
1
1
1
1
1
1
1
1
1
1
1
1
1
1
1
1
1
1
1
1
1
1
1
1
1
1
1
1
1
1
1
1
1
1
1
1
1
1
1
1
1
1
1
1
1
1
1
1
1
1
1
1
1
1
1
1
1
1
1
1
1
1
1
1
1
1
1
1
1
1
1
1
1
1
1
1
1
1
1
1
1
1
1
1
1
1
1
1
1
1
1
1
1
1
1
1
1
1
1
1
1
1
1
1
1
1
1
1
1
1
1
1
1
1
1
1
1
1
1
1
1
1
1
1
1
1
1
1
1
1
1
1
1
1
1
1
1
1
1
1
1
1
1
1
1
1
1
1
1
1
1
1
1
1
1
1
1
1
1
1
1
1
1
1
1
1
1
1
1
1
1
1
1
1
1
1
1
1
1
1
1
1
1
1
1
1
1
1
1
1
1
1
1
1
1
1
1
1
1
1
1
1
1
1
1
1
1
1
1
1
1
1
1
1
1
1
1
1
1
1
1
1
1
1
1
1
1
1
1
1
1
1
1
1
1
1
1
1
1
1
1
1
1
1
1
1
1
1
1
1
1
1
1
1
1
1
1
1
1
1
1
1
1
1
1
1
1
1
1
1
1
1
1
1
1
1
1
1
1
1
1
1
1
1
1
1
1
1
1
1
1
1
1
1
1
1
1
1
1
1
1
1
1
1
1
1
1
1
1
1
1
1
1
1
1
1
1
1
1
1
1
1
1
1
1
1
1
1
1
1
1
1
1
1
1
1
1
1
1
1
1
1
1
1
1
1
1
1
1
1
1
1
1
1
1
1
1
1
1
1
1
1
1
1
1
1
1
1
1
1
1
1
1
1
1
1
1
1
1
1
1
1
1
1
1
1
1
1
1
1
1
1
1
1
1
1
1
1
1
1
1
1
1
1
1
1
1
1
1
1
1
1
1
1
1
1
1
1
1
1
1
1
1
1
1
1
1
1
1
1
1
1.29002
1.74841
2.33731
2.89396
3.53433
4.19907
4.65427
5.09269
5.34227
5.26655
4.95062
4.4709
4.0567
3.78114
3.66843
3.5855
3.56387
3.58636
3.6193
3.65076
3.68573
3.7099
3.72848
3.73783
3.74241
3.74746
3.75486
3.76191
3.76397
3.76403
3.76728
3.77783
3.7914
3.79823
3.79818
3.79565
3.78874
3.779
3.77168
3.76843
3.76802
3.76819
3.76884
3.77051
3.77095
3.77081
3.76826
3.76513
1.0025
1.0154
1.06727
1.20753
1.4104
1.76469
2.22101
2.75605
3.31198
3.73198
3.91294
4.03277
4.03548
3.96054
3.84838
3.77709
3.73502
3.71191
3.67481
3.66584
3.67551
3.69779
3.72467
3.74879
3.75805
3.76089
3.7575
3.75919
3.76028
3.76036
3.76223
3.76747
3.77244
3.77666
3.77872
3.77763
3.77441
3.77047
3.76854
3.76874
3.76958
3.77212
3.77689
3.77903
3.77907
3.77816
3.77435
3.77089
1
0.999978
1.00004
1.0001
1.00138
1.01307
1.06328
1.21916
1.60871
2.33458
3.33846
3.90315
4.30683
4.32654
4.26218
4.12324
3.95573
3.76586
3.66502
3.66105
3.67209
3.69027
3.72139
3.7546
3.76627
3.76948
3.77018
3.76795
3.76959
3.77316
3.77537
3.77668
3.7755
3.77378
3.77072
3.76598
3.76165
3.75939
3.75938
3.76061
3.76359
3.76963
3.77779
3.78254
3.78356
3.78319
3.78095
3.77862
1
1
1
1
0.999999
0.999991
1.00005
1.00007
1.00591
1.06786
1.42483
2.13384
3.18522
3.85375
4.02769
4.02758
3.94436
3.87641
3.8192
3.75719
3.73578
3.71018
3.69615
3.7016
3.71512
3.73261
3.74573
3.75715
3.76698
3.77341
3.77884
3.78174
3.78146
3.78043
3.77705
3.77214
3.76917
3.76691
3.76591
3.76691
3.77
3.77516
3.78011
3.78201
3.78051
3.77786
3.77403
3.77187
1
1
1
1
1
1
1
1
1
0.999926
1.00202
1.0455
1.28742
2.00568
2.82084
3.72328
4.00612
4.02221
3.98862
3.92291
3.80769
3.73745
3.69727
3.67348
3.67273
3.68272
3.69597
3.71297
3.73152
3.746
3.75783
3.76788
3.77479
3.77672
3.77684
3.77647
3.77605
3.77522
3.77475
3.77628
3.78006
3.7845
3.7865
3.78539
3.78259
3.77781
3.77096
3.76896
1
1
1
1
1
1
1
1
1
0.999997
0.999998
0.999955
1.00068
1.03237
1.21557
1.80677
2.70823
3.42167
3.92308
3.93118
3.88382
3.83346
3.79081
3.75113
3.718
3.69609
3.69054
3.69294
3.70951
3.73515
3.753
3.76627
3.77304
3.77484
3.7747
3.77457
3.77356
3.7714
3.77036
3.77139
3.77535
3.77769
3.77617
3.77333
3.76978
3.76519
3.76078
3.76223
1
1
1
1
1
1
1
1
1
1
1
0.999998
0.999998
0.999966
1.00049
1.01725
1.20487
1.66307
2.57068
3.21015
3.69331
3.87414
3.87307
3.85303
3.796
3.75774
3.73677
3.72059
3.72171
3.73011
3.74519
3.76584
3.77305
3.77576
3.77476
3.77328
3.77099
3.76743
3.76559
3.76587
3.77057
3.773
3.77226
3.77037
3.76828
3.76739
3.7655
3.76779
1
1
1
1
1
1
1
1
1
1
1
1
1
0.999998
0.999998
0.999972
1.00067
1.01227
1.14606
1.60693
2.38536
3.18816
3.49795
3.67445
3.75817
3.77139
3.76215
3.73444
3.73231
3.73779
3.74405
3.75115
3.76083
3.76891
3.76873
3.76724
3.76644
3.76606
3.76722
3.77281
3.77789
3.77912
3.77858
3.77704
3.77507
3.77405
3.7732
3.77371
1
1
1
1
1
1
1
1
1
1
1
1
1
1
1
0.999998
0.999998
0.999981
1.00037
1.01313
1.10886
1.56624
2.2639
3.126
3.50134
3.62248
3.68911
3.68884
3.70611
3.71553
3.71364
3.71925
3.72864
3.73932
3.75028
3.75818
3.76327
3.7679
3.77202
3.77803
3.78127
3.7816
3.78197
3.78145
3.77821
3.77467
3.77391
3.77374
1
1
1
1
1
1
1
1
1
1
1
1
1
1
1
1
1
0.999998
0.999998
0.999985
1.00023
1.01352
1.10895
1.48449
2.23991
2.97795
3.53841
3.6597
3.70081
3.71271
3.70866
3.70643
3.71015
3.71649
3.72704
3.73918
3.7505
3.76148
3.76999
3.77577
3.77709
3.77687
3.7782
3.77913
3.77691
3.77382
3.77364
3.77314
1
1
1
1
1
1
1
1
1
1
1
1
1
1
1
1
1
1
1
0.999998
0.999999
0.999987
1.00034
1.00918
1.12401
1.45779
2.22619
2.93256
3.47751
3.70362
3.75033
3.74708
3.75274
3.74845
3.74482
3.7508
3.75889
3.76791
3.77808
3.78184
3.78092
3.77717
3.77518
3.77336
3.77004
3.76693
3.76679
3.76648
1
1
1
1
1
1
1
1
1
1
1
1
1
1
1
1
1
1
1
1
1
0.999998
0.999999
0.999987
1.0006
1.00898
1.11742
1.51328
2.25515
2.96987
3.4011
3.64789
3.73372
3.74674
3.7549
3.7688
3.77178
3.77476
3.78145
3.78614
3.78726
3.78442
3.78168
3.77877
3.77416
3.77189
3.77159
3.77126
1
1
1
1
1
1
1
1
1
1
1
1
1
1
1
1
1
1
1
1
1
1
1
0.999998
0.999999
0.99999
1.00071
1.01426
1.11805
1.57811
2.30426
3.15782
3.44484
3.56565
3.65905
3.72748
3.73131
3.74257
3.758
3.76813
3.77408
3.77487
3.77237
3.77133
3.77096
3.77284
3.7757
3.77693
1
1
1
1
1
1
1
1
1
1
1
1
1
1
1
1
1
1
1
1
1
1
1
1
1
0.999998
0.999999
0.999996
1.00076
1.02317
1.14768
1.66845
2.44781
3.25918
3.60987
3.65529
3.68395
3.70524
3.72529
3.74072
3.7456
3.74759
3.75213
3.75884
3.76632
3.77005
3.77199
3.77472
1
1
1
1
1
1
1
1
1
1
1
1
1
1
1
1
1
1
1
1
1
1
1
1
1
1
1
0.999999
0.999998
1.00002
1.0013
1.03371
1.22284
1.83281
2.67935
3.34832
3.69839
3.75927
3.76874
3.77584
3.76694
3.75688
3.75962
3.76638
3.77377
3.77605
3.77662
3.77773
1
1
1
1
1
1
1
1
1
1
1
1
1
1
1
1
1
1
1
1
1
1
1
1
1
1
1
1
1
1
0.999998
1.0001
1.00326
1.05647
1.36764
2.08376
2.90881
3.4334
3.69761
3.76393
3.76302
3.78263
3.78872
3.79035
3.79163
3.79126
3.7891
3.78699
1
1
1
1
1
1
1
1
1
1
1
1
1
1
1
1
1
1
1
1
1
1
1
1
1
1
1
1
1
1
1
1
0.999996
1.00034
1.00975
1.10654
1.5828
2.45615
3.25976
3.49649
3.61858
3.72666
3.74236
3.75561
3.77058
3.78049
3.78467
3.78452
1
1
1
1
1
1
1
1
1
1
1
1
1
1
1
1
1
1
1
1
1
1
1
1
1
1
1
1
1
1
1
1
0.999999
0.999999
1
1.00125
1.03066
1.22788
1.91138
2.83618
3.54614
3.65709
3.68654
3.71173
3.73515
3.75682
3.76788
3.76816
1
1
1
1
1
1
1
1
1
1
1
1
1
1
1
1
1
1
1
1
1
1
1
1
1
1
1
1
1
1
1
1
1
1
1
0.999998
1.00011
1.00497
1.08837
1.48242
2.4081
3.22669
3.68855
3.78503
3.78912
3.79404
3.79158
3.77784
1
1
1
1
1
1
1
1
1
1
1
1
1
1
1
1
1
1
1
1
1
1
1
1
1
1
1
1
1
1
1
1
1
1
1
1
0.999999
1
1.001
1.02271
1.2582
1.95128
2.91343
3.4358
3.7145
3.79063
3.78883
3.78941
1
1
1
1
1
1
1
1
1
1
1
1
1
1
1
1
1
1
1
1
1
1
1
1
1
1
1
1
1
1
1
1
1
1
1
1
1
1
0.999999
1.00012
1.00728
1.09464
1.60433
2.60673
3.41153
3.5863
3.66532
3.71457
1
1
1
1
1
1
1
1
1
1
1
1
1
1
1
1
1
1
1
1
1
1
1
1
1
1
1
1
1
1
1
1
1
1
1
1
1
1
1
0.999999
1.00001
1.00158
1.04239
1.34958
2.21766
3.20891
3.65949
3.71618
1
1
1
1
1
1
1
1
1
1
1
1
1
1
1
1
1
1
1
1
1
1
1
1
1
1
1
1
1
1
1
1
1
1
1
1
1
1
1
1
1
1
1.00037
1.01619
1.19377
1.91653
2.8837
3.57904
1
1
1
1
1
1
1
1
1
1
1
1
1
1
1
1
1
1
1
1
1
1
1
1
1
1
1
1
1
1
1
1
1
1
1
1
1
1
1
1
1
1
1
1.00011
1.0053
1.10606
1.69192
2.76946
1
1
1
1
1
1
1
1
1
1
1
1
1
1
1
1
1
1
1
1
1
1
1
1
1
1
1
1
1
1
1
1
1
1
1
1
1
1
1
1
1
1
1
1
1.00002
1.00254
1.06852
1.44235
1
1
1
1
1
1
1
1
1
1
1
1
1
1
1
1
1
1
1
1
1
1
1
1
1
1
1
1
1
1
1
1
1
1
1
1
1
1
1
1
1
1
1
1
1
1.00001
1.00127
1.01696
1
1
1
1
1
1
1
1
1
1
1
1
1
1
1
1
1
1
1
1
1
1
1
1
1
1
1
1
1
1
1
1
1
1
1
1
1
1
1
1
1
1
1
1
1
1
1.00001
0.999816
1
1
1
1
1
1
1
1
1
1
1
1
1
1
1
1
1
1
1
1
1
1
1
1
1
1
1
1
1
1
1
1
1
1
1
1
1
1
1
1
1
1
1
1
1
1
1
0.99993
1
1
1
1
1
1
1
1
1
1
1
1
1
1
1
1
1
1
1
1
1
1
1
1
1
1
1
1
1
1
1
1
1
1
1
1
1
1
1
1
1
1
1
1
1
1
1
0.999991
1
1
1
1
1
1
1
1
1
1
1
1
1
1
1
1
1
1
1
1
1
1
1
1
1
1
1
1
1
1
1
1
1
1
1
1
1
1
1
1
1
1
1
1
1
1
1
1
1
1
1
1
1
1
1
1
1
1
1
1
1
1
1
1
1
1
1
1
1
1
1
1
1
1
1
1
1
1
1
1
1
1
1
1
1
1
1
1
1
1
1
1
1
1
1
1
1
1
1
1
1
1
1
1
1
1
1
1
1
1
1
1
1
1
1
1
1
1
1
1
1
1
1
1
1
1
1
1
1
1
1
1
1
1
1
1
1
1
1
1
1
1
1
1
1
1
1
1
1
1
1
1
1
1
1
1
1
1
1
1
1
1
1
1
1
1
1
1
1
1
1
1
1
1
1
1
1
1
1
1
1
1
1
1
1
1
1
1
1
1
1
1
1
1
1
1
1
1
1
1
1
1
1
1
1
1
1
1
1
1
1
1
1
1
1
1
1
1
1
1
1
1
1
1
1
1
1
1
1
1
1
1
1
1
1
1
1
1
1
1
1
1
1
1
1
1
1
1
1
1
1
1
1
1
1
1
1
1
1
1
1
1
1
1
1
1
1
1
1
1
1
1
1
1
1
1
1
1
1
1
1
1
1
1
1
1
1
1
1
1
1
1
1
1
1
1
1
1
1
1
1
1
1
1
1
1
1
1
1
1
1
1
1
1
1
1
1
1
1
1
1
1
1
1
1
1
1
1
1
1
1
1
1
1
1
0.999991
1
1
1
1
1
1
1
1
1
1
1
1
1
1
1
1
1
1
1
1
1
1
1
1
1
1
1
1
1
1
1
1
1
1
1
1
1
1
1
1
1
1
1
1
1
1
1
0.999931
1
1
1
1
1
1
1
1
1
1
1
1
1
1
1
1
1
1
1
1
1
1
1
1
1
1
1
1
1
1
1
1
1
1
1
1
1
1
1
1
1
1
1
1
1
1
1.00001
0.999817
1
1
1
1
1
1
1
1
1
1
1
1
1
1
1
1
1
1
1
1
1
1
1
1
1
1
1
1
1
1
1
1
1
1
1
1
1
1
1
1
1
1
1
1
1
1.00001
1.00128
1.01683
1
1
1
1
1
1
1
1
1
1
1
1
1
1
1
1
1
1
1
1
1
1
1
1
1
1
1
1
1
1
1
1
1
1
1
1
1
1
1
1
1
1
1
1
1.00002
1.00253
1.06878
1.44117
1
1
1
1
1
1
1
1
1
1
1
1
1
1
1
1
1
1
1
1
1
1
1
1
1
1
1
1
1
1
1
1
1
1
1
1
1
1
1
1
1
1
1
1.00011
1.0053
1.10602
1.69235
2.76696
1
1
1
1
1
1
1
1
1
1
1
1
1
1
1
1
1
1
1
1
1
1
1
1
1
1
1
1
1
1
1
1
1
1
1
1
1
1
1
1
1
1
1.00037
1.01619
1.19375
1.91691
2.88288
3.57874
1
1
1
1
1
1
1
1
1
1
1
1
1
1
1
1
1
1
1
1
1
1
1
1
1
1
1
1
1
1
1
1
1
1
1
1
1
1
1
0.999999
1.00001
1.00158
1.04239
1.34957
2.21764
3.20921
3.65901
3.71613
1
1
1
1
1
1
1
1
1
1
1
1
1
1
1
1
1
1
1
1
1
1
1
1
1
1
1
1
1
1
1
1
1
1
1
1
1
1
0.999999
1.00012
1.00728
1.09465
1.60432
2.60665
3.41167
3.58634
3.66527
3.7145
1
1
1
1
1
1
1
1
1
1
1
1
1
1
1
1
1
1
1
1
1
1
1
1
1
1
1
1
1
1
1
1
1
1
1
1
0.999999
1
1.001
1.02271
1.2582
1.9513
2.9134
3.4358
3.71455
3.7906
3.78884
3.78939
1
1
1
1
1
1
1
1
1
1
1
1
1
1
1
1
1
1
1
1
1
1
1
1
1
1
1
1
1
1
1
1
1
1
1
0.999998
1.00011
1.00497
1.08837
1.48242
2.40811
3.22669
3.68854
3.78504
3.78913
3.79404
3.79157
3.77783
1
1
1
1
1
1
1
1
1
1
1
1
1
1
1
1
1
1
1
1
1
1
1
1
1
1
1
1
1
1
1
1
0.999999
0.999999
1
1.00125
1.03066
1.22788
1.91138
2.83617
3.54614
3.65709
3.68654
3.71173
3.73515
3.75682
3.76788
3.76816
1
1
1
1
1
1
1
1
1
1
1
1
1
1
1
1
1
1
1
1
1
1
1
1
1
1
1
1
1
1
1
1
0.999996
1.00034
1.00975
1.10654
1.58279
2.45616
3.25975
3.4965
3.61858
3.72666
3.74236
3.75561
3.77058
3.78049
3.78467
3.78451
1
1
1
1
1
1
1
1
1
1
1
1
1
1
1
1
1
1
1
1
1
1
1
1
1
1
1
1
1
1
0.999998
1.0001
1.00326
1.05647
1.36764
2.08376
2.90881
3.4334
3.69761
3.76393
3.76302
3.78262
3.78872
3.79035
3.79163
3.79126
3.7891
3.78699
1
1
1
1
1
1
1
1
1
1
1
1
1
1
1
1
1
1
1
1
1
1
1
1
1
1
1
0.999999
0.999998
1.00002
1.0013
1.03371
1.22284
1.83281
2.67935
3.34832
3.69839
3.75927
3.76874
3.77584
3.76694
3.75688
3.75962
3.76638
3.77377
3.77605
3.77661
3.77773
1
1
1
1
1
1
1
1
1
1
1
1
1
1
1
1
1
1
1
1
1
1
1
1
1
0.999998
0.999999
0.999996
1.00076
1.02317
1.14768
1.66845
2.44781
3.25918
3.60987
3.65529
3.68395
3.70525
3.72529
3.74072
3.7456
3.74759
3.75213
3.75884
3.76632
3.77005
3.77199
3.77472
1
1
1
1
1
1
1
1
1
1
1
1
1
1
1
1
1
1
1
1
1
1
1
0.999998
0.999999
0.99999
1.00071
1.01426
1.11805
1.57811
2.30426
3.15782
3.44484
3.56565
3.65904
3.72747
3.73131
3.74257
3.758
3.76813
3.77408
3.77487
3.77237
3.77133
3.77096
3.77284
3.7757
3.77693
1
1
1
1
1
1
1
1
1
1
1
1
1
1
1
1
1
1
1
1
1
0.999998
0.999999
0.999987
1.0006
1.00898
1.11742
1.51328
2.25515
2.96987
3.4011
3.64789
3.73372
3.74674
3.7549
3.7688
3.77178
3.77476
3.78145
3.78614
3.78726
3.78442
3.78168
3.77877
3.77416
3.77189
3.77159
3.77126
1
1
1
1
1
1
1
1
1
1
1
1
1
1
1
1
1
1
1
0.999998
0.999999
0.999987
1.00034
1.00918
1.12401
1.45779
2.22619
2.93256
3.47751
3.70362
3.75034
3.74708
3.75274
3.74845
3.74482
3.7508
3.75889
3.76791
3.77808
3.78184
3.78092
3.77718
3.77518
3.77336
3.77004
3.76693
3.76679
3.76648
1
1
1
1
1
1
1
1
1
1
1
1
1
1
1
1
1
0.999998
0.999998
0.999985
1.00023
1.01352
1.10895
1.48449
2.23991
2.97795
3.53841
3.6597
3.70081
3.71272
3.70866
3.70643
3.71015
3.71649
3.72704
3.73918
3.7505
3.76148
3.76999
3.77577
3.77709
3.77687
3.7782
3.77913
3.77691
3.77382
3.77364
3.77314
1
1
1
1
1
1
1
1
1
1
1
1
1
1
1
0.999998
0.999998
0.999981
1.00037
1.01313
1.10886
1.56624
2.2639
3.126
3.50134
3.62248
3.68911
3.68884
3.70611
3.71553
3.71364
3.71925
3.72864
3.73932
3.75028
3.75818
3.76327
3.7679
3.77202
3.77803
3.78127
3.7816
3.78197
3.78145
3.77821
3.77467
3.77391
3.77374
1
1
1
1
1
1
1
1
1
1
1
1
1
0.999998
0.999998
0.999972
1.00067
1.01227
1.14606
1.60693
2.38536
3.18817
3.49795
3.67445
3.75817
3.77139
3.76215
3.73444
3.73231
3.73779
3.74405
3.75115
3.76083
3.76891
3.76873
3.76724
3.76644
3.76606
3.76722
3.77281
3.77789
3.77912
3.77858
3.77704
3.77507
3.77405
3.7732
3.77371
1
1
1
1
1
1
1
1
1
1
1
0.999998
0.999998
0.999966
1.00049
1.01725
1.20487
1.66307
2.57068
3.21015
3.69331
3.87414
3.87307
3.85303
3.796
3.75774
3.73677
3.72058
3.72171
3.73011
3.74519
3.76584
3.77305
3.77576
3.77476
3.77328
3.77099
3.76743
3.7656
3.76587
3.77057
3.773
3.77226
3.77037
3.76828
3.76739
3.7655
3.76779
1
1
1
1
1
1
1
1
1
0.999997
0.999998
0.999955
1.00068
1.03237
1.21557
1.80676
2.70823
3.42167
3.92308
3.93119
3.88382
3.83346
3.79081
3.75113
3.718
3.69609
3.69054
3.69294
3.70951
3.73515
3.753
3.76627
3.77304
3.77484
3.7747
3.77457
3.77356
3.7714
3.77036
3.77139
3.77535
3.77769
3.77617
3.77333
3.76978
3.76519
3.76078
3.76223
1
1
1
1
1
1
1
1
1
0.999926
1.00202
1.0455
1.28742
2.00568
2.82084
3.72327
4.00612
4.02221
3.98862
3.92291
3.80769
3.73745
3.69727
3.67348
3.67273
3.68272
3.69597
3.71297
3.73152
3.746
3.75783
3.76788
3.77479
3.77672
3.77684
3.77647
3.77605
3.77522
3.77475
3.77628
3.78006
3.7845
3.7865
3.78539
3.78259
3.77781
3.77096
3.76896
1
1
1
1
0.999999
0.999991
1.00005
1.00007
1.00591
1.06786
1.42483
2.13384
3.18522
3.85375
4.02769
4.02758
3.94436
3.87641
3.8192
3.75719
3.73578
3.71018
3.69615
3.7016
3.71512
3.73261
3.74573
3.75715
3.76698
3.77341
3.77884
3.78174
3.78146
3.78043
3.77705
3.77214
3.76917
3.76691
3.76591
3.76691
3.77
3.77516
3.78011
3.78201
3.78051
3.77786
3.77403
3.77187
1
0.999978
1.00004
1.0001
1.00138
1.01307
1.06328
1.21916
1.60871
2.33458
3.33846
3.90315
4.30683
4.32654
4.26218
4.12324
3.95573
3.76586
3.66502
3.66105
3.67209
3.69027
3.72139
3.7546
3.76627
3.76948
3.77018
3.76795
3.76959
3.77316
3.77537
3.77668
3.7755
3.77378
3.77072
3.76598
3.76165
3.75939
3.75938
3.76061
3.76359
3.76963
3.77779
3.78254
3.78356
3.78319
3.78095
3.77862
1.0025
1.0154
1.06727
1.20753
1.4104
1.76469
2.22101
2.75605
3.31198
3.73198
3.91294
4.03277
4.03548
3.96054
3.84838
3.77709
3.73502
3.71191
3.67481
3.66584
3.67551
3.69779
3.72467
3.74879
3.75805
3.76089
3.7575
3.75919
3.76028
3.76036
3.76223
3.76747
3.77244
3.77666
3.77872
3.77763
3.77441
3.77047
3.76854
3.76874
3.76958
3.77212
3.77689
3.77903
3.77907
3.77816
3.77435
3.77089
1.29002
1.74841
2.33731
2.89396
3.53433
4.19907
4.65427
5.09269
5.34227
5.26655
4.95062
4.4709
4.0567
3.78114
3.66843
3.5855
3.56387
3.58636
3.6193
3.65076
3.68573
3.7099
3.72848
3.73783
3.74241
3.74746
3.75486
3.76191
3.76397
3.76403
3.76728
3.77783
3.7914
3.79823
3.79818
3.79565
3.78874
3.779
3.77168
3.76843
3.76802
3.76819
3.76884
3.77051
3.77095
3.77081
3.76826
3.76513
2.65227
1.67102
1.16586
0.8786
0.652791
0.63549
0.686766
0.748517
0.772278
0.827572
0.953346
1.00065
0.990361
0.997402
1.02889
1.03731
1.04133
1.05664
1.0789
1.0793
1.07537
1.07179
1.06884
1.0581
1.04843
1.04878
1.05127
1.05089
1.04812
1.04357
1.03852
1.03554
1.03531
1.03628
1.03997
1.04603
1.0482
1.0488
1.04887
1.04664
1.04395
1.04422
1.04581
1.04913
1.05169
1.05157
1.05072
1.05028
1.05666
1.21574
1.90956
3.26073
5.20076
7.74114
10.1438
10.0927
9.37426
8.47063
8.16171
7.94983
7.62119
7.40413
7.30118
7.26227
7.20756
7.07275
6.90737
6.65881
6.31621
6.12509
6.05287
6.01026
5.98654
5.91925
5.83198
5.69855
5.46428
5.25566
5.17987
5.12376
5.06228
4.99426
4.9086
4.77714
4.60895
4.52103
4.47993
4.44757
4.41652
4.37413
4.31546
4.19627
4.00608
3.85823
3.79138
3.75076
3.71893
3.70184
3.68754
3.65953
3.62328
3.54427
3.40536
3.29593
3.24304
3.20581
3.16769
3.12906
3.08135
3.01108
2.94864
2.9227
2.90338
2.88316
2.85979
2.828
2.76768
2.65767
2.56438
2.52909
2.51
2.49466
2.48186
2.47273
2.46127
2.44495
2.40337
2.32647
2.26215
2.231
2.20809
2.18737
2.16708
2.14295
2.10745
2.06446
2.0382
2.02315
2.00807
1.98856
1.96055
1.91172
1.86926
1.8617
1.87269
1.96701
2.2583
2.85507
3.64141
4.3065
4.80709
5.27917
5.47932
5.38647
5.32764
5.25932
5.17262
5.08761
4.99219
4.83972
4.68598
4.63209
4.61315
4.60253
4.59696
4.56792
4.5359
4.50309
4.45273
4.39066
4.34414
4.3072
4.27181
4.23246
4.18171
4.12182
4.06048
3.99237
3.91753
3.86428
3.83953
3.82206
3.81056
3.81397
3.82047
3.8052
3.78282
3.7387
3.63855
3.53218
3.49861
3.47061
3.37804
2.72887
2.14315
1.82188
1.46863
1.20942
1.1508
1.06113
0.973365
0.96274
0.956509
0.92789
0.913904
0.920781
0.949376
0.978705
0.993473
1.01365
1.04139
1.04399
1.04103
1.04289
1.04975
1.04997
1.04833
1.04978
1.05419
1.05401
1.05082
1.04712
1.04403
1.04272
1.04231
1.04271
1.04616
1.0495
1.04983
1.04985
1.04902
1.04642
1.0443
1.04397
1.04467
1.04695
1.04855
1.04778
1.04847
1.06014
1.19143
1.93598
2.8404
3.23073
3.95027
4.80097
6.51007
7.96432
8.61773
8.55424
8.33545
8.02894
7.66334
7.44966
7.35032
7.26044
7.168
7.0465
6.91042
6.72141
6.44728
6.17992
6.03654
5.9639
5.91749
5.87039
5.79292
5.69438
5.52714
5.31287
5.17988
5.11133
5.05877
5.00238
4.92698
4.81608
4.67213
4.54712
4.47391
4.42885
4.38891
4.34288
4.27501
4.1696
4.03349
3.91177
3.83661
3.78874
3.75018
3.71164
3.67592
3.64198
3.58938
3.50527
3.41071
3.32256
3.25502
3.21416
3.1875
3.15673
3.11417
3.05366
2.98857
2.94967
2.9258
2.9022
2.8756
2.84039
2.78038
2.6823
2.59018
2.54579
2.52121
2.50301
2.48893
2.47333
2.45261
2.42973
2.40024
2.34087
2.27392
2.2483
2.23293
2.21347
2.19215
2.16862
2.13511
2.08959
2.05638
2.03901
2.02248
2.00165
1.97416
1.93309
1.91123
1.93237
2.04672
2.34212
2.78403
3.11359
3.40355
3.80262
4.15491
4.42082
4.72067
4.93695
5.15634
5.21914
5.19022
5.10952
4.99894
4.86796
4.73532
4.67148
4.64375
4.62771
4.61128
4.58373
4.55524
4.5216
4.46489
4.39676
4.34871
4.31331
4.28051
4.24245
4.1926
4.12855
4.06255
4.0051
3.94843
3.89165
3.84916
3.82862
3.81346
3.80275
3.80248
3.79385
3.77001
3.72853
3.65185
3.56151
3.51841
3.48773
3.66383
3.34357
2.84186
2.38561
1.99465
1.63169
1.4323
1.28344
1.08958
1.00681
0.987446
0.937532
0.9147
0.920859
0.93505
0.946998
0.955588
0.972984
1.00317
1.01615
1.01992
1.02534
1.03709
1.0413
1.0417
1.04672
1.05391
1.05555
1.05457
1.05131
1.04761
1.04664
1.04642
1.04764
1.05069
1.05103
1.05033
1.04873
1.04545
1.04336
1.04323
1.04357
1.045
1.0471
1.0471
1.04979
1.0829
1.25817
1.9386
3.03959
3.37477
3.38546
3.45961
3.5789
4.09852
5.79935
7.8023
8.70476
8.57898
8.16635
7.76169
7.51697
7.32646
7.15865
7.02534
6.93352
6.8444
6.72918
6.55647
6.31141
6.07463
5.95079
5.87695
5.79681
5.70705
5.60901
5.50061
5.35917
5.21872
5.12176
5.0382
4.95775
4.8748
4.78438
4.68864
4.58997
4.49946
4.42369
4.35014
4.27221
4.18196
4.08579
4.00839
3.95387
3.8904
3.82321
3.77917
3.74537
3.69435
3.6197
3.52245
3.42593
3.36875
3.33611
3.29099
3.24028
3.18493
3.13101
3.07943
3.02469
2.96938
2.92117
2.88297
2.85271
2.82255
2.78597
2.73531
2.66826
2.60671
2.56633
2.54219
2.52574
2.50912
2.48936
2.46133
2.41653
2.35518
2.30093
2.27207
2.25247
2.22938
2.20349
2.17683
2.14854
2.11554
2.06864
2.02765
2.00607
1.99113
1.97692
1.96312
1.95969
2.00061
2.17558
2.53345
2.9246
3.24417
3.27053
3.25098
3.29563
3.44281
3.69812
4.16252
4.64045
4.98498
5.13437
5.15821
5.11818
5.00547
4.88398
4.7733
4.70642
4.65434
4.60631
4.57768
4.55712
4.53332
4.50153
4.45361
4.393
4.33775
4.2868
4.24284
4.20369
4.15801
4.1
4.04157
4.00165
3.97386
3.93605
3.87953
3.83594
3.81586
3.80139
3.78442
3.76349
3.73391
3.69073
3.63862
3.59675
3.55277
3.48344
3.75002
3.62537
3.31668
2.90478
2.5123
2.11109
1.82716
1.63067
1.40664
1.24108
1.1866
1.1015
1.00285
0.998992
0.990561
0.965006
0.948028
0.952245
0.955337
0.956984
0.960639
0.971981
0.998056
1.01918
1.03015
1.03926
1.04647
1.0478
1.04839
1.04575
1.04478
1.0472
1.05361
1.05986
1.06126
1.06071
1.05843
1.05305
1.04662
1.04499
1.04495
1.04564
1.0466
1.04752
1.05183
1.11247
1.47945
2.10178
3.02769
3.49543
3.51706
3.46739
3.43688
3.39722
3.35716
3.62835
4.96276
7.12566
7.99729
7.99206
7.85668
7.62514
7.34424
7.06118
6.91272
6.84098
6.78959
6.69336
6.58022
6.42168
6.1852
5.96043
5.83417
5.74566
5.65563
5.57055
5.49462
5.41329
5.28093
5.12079
5.00255
4.91996
4.85698
4.8057
4.75264
4.67363
4.55392
4.404
4.27737
4.18017
4.10504
4.0532
4.01844
3.98211
3.93526
3.8764
3.81264
3.72909
3.64444
3.54804
3.46304
3.40607
3.36324
3.32181
3.28908
3.25452
3.20792
3.1444
3.07702
3.02116
2.9742
2.9288
2.88163
2.83941
2.8009
2.75638
2.7071
2.66759
2.63727
2.60818
2.57308
2.52585
2.48422
2.46128
2.43732
2.38937
2.31985
2.2829
2.26977
2.25627
2.2378
2.21209
2.1834
2.14901
2.11273
2.06965
2.02724
2.00062
1.98816
1.98576
2.00433
2.10435
2.37893
2.77236
3.17672
3.28069
3.30575
3.28535
3.25607
3.2504
3.26241
3.3235
3.50567
3.85059
4.32983
4.69306
4.89427
4.97114
4.95822
4.91341
4.84009
4.76583
4.69207
4.62278
4.60105
4.5806
4.53803
4.48493
4.43539
4.38999
4.34317
4.29428
4.23697
4.17429
4.11931
4.07707
4.04673
4.02289
4.00061
3.97257
3.92992
3.87354
3.82204
3.78789
3.75921
3.72917
3.69853
3.67153
3.65135
3.62445
3.58399
3.50316
3.7607
3.73251
3.58762
3.30214
2.96369
2.55087
2.22512
1.99618
1.72263
1.50629
1.39307
1.2874
1.14092
1.09069
1.05612
1.00041
0.957531
0.959024
0.9551
0.947679
0.950698
0.956849
0.969935
0.990896
1.00931
1.01975
1.02669
1.03011
1.03443
1.03738
1.0372
1.04179
1.05494
1.05906
1.05916
1.05858
1.05632
1.05222
1.04884
1.0486
1.04936
1.05116
1.0509
1.05353
1.11157
1.62109
2.51771
3.09105
3.46864
3.55114
3.52389
3.45344
3.38856
3.37203
3.32075
3.23412
3.33596
4.27815
6.10897
7.52828
7.8748
7.74415
7.3974
7.09532
6.8856
6.77071
6.68914
6.62163
6.52509
6.41825
6.25987
6.02177
5.8184
5.709
5.63009
5.55598
5.47918
5.38256
5.24299
5.07107
4.96945
4.90914
4.85429
4.79754
4.73536
4.65725
4.52625
4.335
4.201
4.13941
4.09863
4.06211
4.03206
4.0072
3.97183
3.92307
3.81394
3.675
3.56485
3.49571
3.44902
3.40984
3.37166
3.33653
3.30071
3.25912
3.20337
3.1282
3.06096
3.01426
2.97405
2.92988
2.88047
2.82881
2.78209
2.74035
2.70042
2.66705
2.64315
2.61968
2.58834
2.54232
2.496
2.45434
2.41169
2.36257
2.31502
2.28816
2.26843
2.25222
2.2437
2.23405
2.21352
2.17695
2.1172
2.05894
2.0228
2.00784
2.00952
2.05127
2.24028
2.61022
3.03489
3.28452
3.38875
3.38924
3.36252
3.34588
3.32534
3.29567
3.26707
3.23677
3.22325
3.27676
3.47982
3.91707
4.37846
4.73521
4.90026
4.9241
4.88762
4.80026
4.74021
4.67823
4.62172
4.57018
4.5067
4.45191
4.41241
4.38099
4.34853
4.29752
4.21702
4.13074
4.08484
4.063
4.04526
4.03046
4.01557
3.99368
3.96627
3.9199
3.84103
3.76664
3.72296
3.69685
3.67786
3.6568
3.63241
3.61007
3.59217
3.53336
3.76121
3.74761
3.69797
3.54813
3.30956
2.96131
2.60536
2.34266
2.07273
1.82691
1.67009
1.53134
1.35963
1.27183
1.21494
1.14113
1.06054
1.04548
1.01725
0.979552
0.972861
0.975377
0.972173
0.968075
0.974294
0.979211
0.983596
0.992257
1.00316
1.01679
1.02465
1.03432
1.05013
1.05534
1.05591
1.0561
1.05458
1.04969
1.04858
1.04915
1.05158
1.0538
1.06127
1.13317
1.62481
2.77671
3.30282
3.48567
3.5415
3.46249
3.40749
3.3874
3.33859
3.3156
3.29631
3.22988
3.12052
3.14726
3.69149
5.2248
6.86822
7.4237
7.40521
7.20616
6.97513
6.72981
6.58354
6.49804
6.4573
6.38068
6.26842
6.08126
5.85169
5.7038
5.62031
5.54431
5.46229
5.36373
5.22333
5.0448
4.94514
4.89335
4.84591
4.79961
4.74259
4.66229
4.50845
4.28975
4.17109
4.1272
4.09504
4.089
4.08698
4.05018
3.99777
3.90792
3.75196
3.59243
3.51775
3.47837
3.4478
3.4232
3.39771
3.36818
3.33563
3.28009
3.18255
3.09313
3.04414
3.0098
2.97668
2.93942
2.88669
2.80737
2.7448
2.7207
2.70653
2.69447
2.67547
2.65357
2.62643
2.5847
2.51563
2.43078
2.37096
2.34503
2.32895
2.3081
2.28471
2.26343
2.24132
2.21639
2.1932
2.15884
2.10225
2.05437
2.03385
2.04521
2.14048
2.41384
2.86625
3.25131
3.465
3.52839
3.51392
3.45768
3.37135
3.33527
3.31095
3.28084
3.24934
3.21759
3.19463
3.15463
3.15627
3.27604
3.58195
4.06964
4.47788
4.74664
4.79699
4.8123
4.79686
4.7433
4.64846
4.55114
4.47577
4.43457
4.40877
4.38466
4.35282
4.2932
4.18851
4.1036
4.07546
4.05684
4.04593
4.05612
4.05494
4.03186
4.00294
3.95192
3.84403
3.7365
3.69845
3.67698
3.65996
3.64839
3.63096
3.61015
3.58993
3.5401
3.76783
3.75683
3.74501
3.68644
3.53769
3.26918
2.97484
2.69341
2.38324
2.14357
1.95532
1.78756
1.60322
1.48262
1.38834
1.28311
1.18061
1.13787
1.09564
1.03051
0.996065
0.996397
0.984659
0.972131
0.976226
0.976474
0.971742
0.971596
0.97537
0.985795
1.00359
1.02198
1.03901
1.04684