/*--------------------------------*- C++ -*----------------------------------*\
  =========                 |
  \\      /  F ield         | OpenFOAM: The Open Source CFD Toolbox
   \\    /   O peration     | Website:  https://openfoam.org
    \\  /    A nd           | Version:  7
     \\/     M anipulation  |
\*---------------------------------------------------------------------------*/
FoamFile
{
    version     2.0;
    format      ascii;
    class       volScalarField;
    location    "2.1";
    object      T;
}
// * * * * * * * * * * * * * * * * * * * * * * * * * * * * * * * * * * * * * //

dimensions      [0 0 0 1 0 0 0];

internalField   nonuniform List<scalar> 
18432
(
1
1
1
1
1
1
1
1
1
1
1
1
1
1
1
1
1
1
1
1
1
1
1
1
1
1
1
1
1
1
1
1
1
1
1
1
1
1
1
1
1
1
1
1
1
1
1
1
1
1
1
1
1
1
1
1
1
1
1
1
1
1
1
1
1
1
1
1
1
1
1
1
1
1
1
1
1
1
1
1
1
1
1
1
1
1
1
1
1
1
1
1
1
1
1
1
1
1
1
1
1
1
1
1
1
1
1
1
1
1
1
1
1
1
1
1
1
1
1
1
1
1
1
1
1
1
1
1
1
1
1
1
1
1
1
1
1
1
1
1
1
1
1
1
1
1
1
1
1
1
1
1
1
1
1
1
1
1
1
1
1
1
1
1
1
1
1
1
1
1
1
1
1
1
1
1
1
1
1
1
1
1
1
1
1
1
1
1
1
1
1
1
1
1
1
1
1
1
1
1
1
1
1
1
1
1
1
1
1
1
1
1
1
1
1
1
1
1
1
1
1
1
1
1
1
1
1
1
1
1
1
1
1
1
1
1
1
1
1
1
1
1
1
1
1
1
1
1
1
1
1
1
1
1
1
1
1
1
1
1
1
1
1
1
1
1
1
1
1
1
1
1
1
1
1
1
1
1
1
1
1
1
1
1
1
1
1
1
1
1
1
1
1
1
1
1
1
1
1
1
1
1
1
1
1
1
1
1
1
1
1
1
1
1
1
1
1
1
1
1
1
1
1
1
1
1
1
1
1
1
1
1
1
1
1
1
1
1
1
1
1
1
1
1
1
1
1
1
1
1
1
1
1
1
1
1
1
1
1
1
1
1
1
1
1
1
1
1
1
1
1
1
1
1
1
1
1
1
1
1
1
1
1
1
1
1
1
1
1
1
1
1
1
1
1
1
1
1
1
1
1
1
1
1
1
1
1
1
1
1
1
1
1
1
1
1
1
1
1
1
1
1
1
1
1
1
1
1
1
1
1
1
1
1
1
1
1
1
1
1
1
1
1
1
1
1
1
1
1
1
1
1
1
1
1
1
1
1
1
1
1
1
1
1
1
1
1
1
1
1
1
1
1
1
1
1
1
1
1
1
1
1
1
1
1
1
1
1
1
1
1
1
1
1
1
1
1
1
1
1
1
1
1
1
1
1
1
1
1
1
1
1
1
1
1
1
1
1
1
1
1
1
1
1
1
1
1
1
1
1
1
1
1
1
1
1
1
1
1
1
1
1
1
1
1
1
1
1
1
1
1
1
1
1
1
1
1
1
1
1
1
1
1
1
1
1
1
1
1
1
1
1
1
1
1
1
1
1
1
1
1
1
1
1
1
1
1
1
1
1
1
1
1
1
1
1
1
1
1
1
1
1
1
1
1
1
1
1
1
1
1
1
1
1
1
1
1
1
1
1
1
1
1
1
1
1
1
1
1
1
1
1
1
1
1
1
1
1
1
1
1
1
1
1
1
1
1
1
1
1
1
1
1
1
1
1
1
1
1
1
1
1
1
1
1
1
1
1
1
1
1
1
1
1
1
1
1
1
1
1
1
1
1
1
1
1
1
1
1
1
1
1
1
1
1
1
1
1
1
1
1
1
1
1
1
1
1
1
1
1
1
1
1
1
1
1
1
1
1
1
1
1
1
1
1
1
1
1
1
1
1
1
1
1
1
1
1
1
1
1
1
1
1
1
1
1
1
1
1
1
1
1
1
1
1
1
1
1
1
1
1
1
1
1
1
1
1
1
1
1
1
1
1
1
1
1
1
1
1
1
1
1
1
1
1
1
1
1
1
1
1
1
1
1
1
1
1
1
1
1
1
1
1
1
1
1
1
1
1
1
1
1
1
1
1
1
1
1
1
1
1
1
1
1
1
1
1
1
1
1
1
1
1
1
1
1
1
1
1
1
1
1
1
1
1
1
1
1
1
1
1
1
1
1
1
1
1
1
1
1
1
1
1
1
1
1
1
1
1
1
1
1
1
1
1
1
1
1
1
1
1
1
1
1
1
1
1
1
1
1
1
1
1
1
1
1
1
1
1
1
1
1
1
1
1
1
1
1
1
1
1
1
1
1
1
1
1
1
1
1
1
1
1
1
1
1
1
1
1
1
1
1
1
1
1
1
1
1
1
1
1
1
1
1
1
1
1
1
1
1
1
1
1
1
1
1
1
1
1
1
1
1
1
1
1
1
1
1
1
1
1
1
1
1
1
1
1
1
1
1
1
1
1
1
1
1
1
1
1
1
1
1
1
1
1
1
1
1
1
1
1
1
1
1
1
1
1
1
1
1
1
1
1
1
1
1
1
1
1
1
1
1
1
1
1
1
1
1
1
1
1
1
1
1
1
1
1
1
1
1
1
1
1
1
1
1
1
1
1
1
1
1
1
1
1
1
1
1
1
1
1
1
1
1
1
1
1
1
1
1
1
1
1
1
1
1
1
1
1
1
1
1
1
1
1
1
1
1
1
1
1
1
1
1
1
1
1
1
1
1
1
1
1
1
1
1
1
1
1
1
1
1
1
1
1
1
1
1
1
1
1
1
1
1
1
1
1
1
1
1
1
1
1
1
1
1
1
1
1
1
1
1
1
1
1
1
1
1
1
1
1
1
1
1
1
1
1
1
1
1
1
1
1
1
1
1
1
1
1
1
1
1
1
1
1
1
1
1
1
1
1
1
1
1
1
1
1
1
1
1
1
1
1
1
1
1
1
1
1
1
1
1
1
1
1
1
1
1
1
1
1
1
1
1
1
1
1
1
1
1
1
1
1
1
1
1
1
1
1
1
1
1
1
1
1
1
1
1
1
1
1
1
1
1
1
1
1
1
1
1
1
1
1
1
1
1
1
1
1
1
1
1
1
1
1
1
1
1
1
1
1
1
1
1
1
1
1
1
1
1
1
1
1
1
1
1
1
1
1
1
1
1
1
1
1
1
1
1
1
1
1
1
1
1
1
1
1
1
1
1
1
1
1
1
1
1
1
1
1
1
1
1
1
1
1
1
1
1
1
1
1
1
1
1
1
1
1
1
1
1
1
1
1
1
1
1
1
1
1
1
1
1
1
1
1
1
1
1
1
1
1
1
1
1
1
1
1
1
1
1
1
1
1
1
1
1
1
1
1
1
1
1
1
1
1
1
1
1
1
1
1
1
1
1
1
1
1
1
1
1
1
1
1
1
1
1
1
1
1
1
1
1
1
1
1
1
1
1
1
1
1
1
1
1
1
1
1
1
1
1
1
1
1
1
1
1
1
1
1
1
1
1
1
1
1
1
1
1
1
1
1
1
1
1
1
1
1
1
1
1
1
1
1
1
1
1
1
1
1
1
1
1
1
1
1
1
1
1
1
1
1
1
1
1
1
1
1
1
1
1
1
1
1
1
1
1
1
1
1
1
1
1
1
1
1
1
1
1
1
1
1
1
1
1
1
1
1
1
1
1
1
1
1
1
1
1
1
1
1
1
1
1
1
1
1
1
1
1
1
1
1
1
1
1
1
1
1
1
1
1
1
1
1
1
1
1
1
1
1
1
1
1
1
1
1
1
1
1
1
1
1
1
1
1
1
1
1
1
1
1
1
1
1
1
1
1
1
1
1
1
1
1
1
1
1
1
1
1
1
1
1
1
1
1
1
1
1
1
1
1
1
1
1
1
1
1
1
1
1
1
1
1
1
1
1
1
1
1
1
1
1
1
1
1
1
1
1
1
1
1
1
1
1
1
1
1
1
1
1
1
1
1
1
1
1
1
1
1
1
1
1
1
1
1
1
1
1
1
1
1
1
1
1
1
1
1
1
1
1
1
1
1
1
1
1
1
1
1
1
1
1
1
1
1
1
1
1
1
1
1
1
1
1
1
1
1
1
1
1
1
1
1
1
1
1
1
1
1
1
1
1
1
1
1
1
1
1
1
1
1
1
1
1
1
1
1
1
1
1
1
1
1
1
1
1
1
1
1
1
1
1
1
1
1
1
1
1
1
1
1
1
1
1
1
1
1
1
1
1
1
1
1
1
1
1
1
1
1
1
1
1
1
1
1
1
1
1
1
1
1
1
1
1
1
1
1
1
1
1
1
1
1
1
1
1
1
1
1
1
1
1
1
1
1
1
1
1
1
1
1
1
1
1
1
1
1
1
1
1
1
1
1
1
1
1
1
1
1
1
1
1
1
1
1
1
1
1
1
1
1
1
1
1
1
1
1
1
1
1
1
1
1
1
1
1
1
1
1
1
1
1
1
1
1
1
1
1
1
1
1
1
1
1
1
1
1
1
1
1
1
1
1
1
1
1
1
1
1
1
1
1
1
1
1
1
1
1
1
1
1
1
1
1
1
1
1
1
1
1
1
1
1
1
1
1
1
1
1
1
1
1
1
1
1
1
1
1
1
1
1
1
1
1
1
1
1
1
1
1
1
1
1
1
1
1
1
1
1
1
1
1
1
1
1
1
1
1
1
1
1
1
1
1
1
1
1
1
1
1
1
1
1
1
1
1
1
1
1
1
1
1
1
1
1
1
1
1
1
1
1
1
1
1
1
1
1
1
1
1
1
1
1
1
1
1
1
1
1
1
1
1
1
1
1
1
1
1
1
1
1
1
1
1
1
1
1
1
1
1
1
1
1
1
1
1
1
1
1
1
1
1
1
1
1
1
1
1
1
1
1
1
1
1
1
1
1
1
1
1
1
1
1
1
1
1
1
1
1
1
1
1
1
1
1
1
1
1
1
1
1
1
1
1
1
1
1
1
1
1
1
1
1
1
1
1
1
1
1
1
1
1
1
1
1
1
1
1
1
1
1
1
1
1
1
1
1
1
1
1
1
1
1
1
1
1
1
1
1
1
1
1
1
1
1
1
1
1
1
1
1
1
1
1
1
1
1
1
1
1
1
1
1
1
1
1
1
1
1
1
1
1
1
1
1
1
1
1
1
1
1
1
1
1
1
1
1
1
1
1
1
1
1
1
1
1
1
1
1
1
1
1
1
1
1
1
1
1
1
1
1
1
1
1
1
1
1
1
1
1
1
1
1
1
1
1
1
1
1
1
1
1
1
1
1
1
1
1
1
1
1
1
1
1
1
1
1
1
1
1
1
1
1
1
1
1
1
1
1
1
1
1
1
1
1
1
1
1
1
1
1
1
1
1
1
1
1
1
1
1
1
1
1
1
1
1
1
1
1
1
1
1
1
1
1
1
1
1
1
1
1
1
1
1
1
1
1
1
1
1
1
1
1
1
1
1
1
1
1
1
1
1
1
1
1
1
1
1
1
1
1
1
1
1
1
1
1
1
1
1
1
1
1
1
1
1
1
1
1
1
1
1
1
1
1
1
1
1
1
1
1
1
1
1
1
1
1
1
1
1
1
1
1
1
1
1
1
1
1
1
1
1
1
1
1
1
1
1
1
1
1
1
1
1
1
1
1
1
1
1
1
1
1
1
1
1
1
1
1
1
1
1
1
1
1
1
1
1
1
1
1
1
1
1
1
1
1
1
1
1
1
1
1
1
1
1
1
1
1
1
1
1
1
1
1
1
1
1
1
1
1
1
1
1
1
1
1
1
1
1
1
1
1
1
1
1
1
1
1
1
1
1
1
1
1
1
1
1
1
1
1
1
1
1
1
1
1
1
1
1
1
1
1
1
1
1
1
1
1
1
1
1
1
1
1
1
1
1
1
1
1
1
1
1
1
1
1
1
1
1
1
1
1
1
1
1
1
1
1
1
1
1
1
1
1
1
1
1
1
1
1
1
1
1
1
1
1
1
1
1
1
1
1
1
1
1
1
1
1
1
1
1
1
1
1
1
1
1
1
1
1
1
1
1
1
1
1
1
1
1
1
1
1
1
1
1
1
1
1
1
1
1
1
1
1
1
1
1
1
1
1
1
1
1
1
1
1
1
1
1
1
1
1
1
1
1
1
1
1
1
1
1
1
1
1
1
1
1
1
1
1
1
1
1
1
1
1
1
1
1
1
1
1
1
1
1
1
1
1
1
1
1
1
1
1
1
1
1
1
1
1
1
1
1
1
1
1
1
1
1
1
1
1
1
1
1
1
1
1
1
1
1
1
1
1
1
1
1
1
1
1
1
1
1
1
1
1
1
1
1
1
1
1
1
1
1
1
1
1
1
1
1
1
1
1
1
1
1
1
1
1
1
1
1
1
1
1
1
1
1
1
1
1
1
1
1
1
1
1
1
1
1
1
1
1
1
1
1
1
1
1
1
1
1
1
1
1
1
1
1
1
1
1
1
1
1
1
1
1
1
1
1
1
1
1
1
1
1
1
1
1
1
1
1
1
1
1
1
1
1
1
1
1
1
1
1
1
1
1
1
1
1
1
1
1
1
1
1
1
1
1
1
1
1
1
1
1
1
1
1
1
1
1
1
1
1
1
1
1
1
1
1
1
1
1
1
1
1
1
1
1
1
1
1
1
1
1
1
1
1
1
1
1
1
1
1
1
1
1
1
1
1
1
1
1
1
1
1
1
1
1
1
1
1
1
1
1
1
1
1
1
1
1
1
1
1
1
1
1
1
1
1
1
1
1
1
1
1
1
1
1
1
1
1
1
1
1
1
1
1
1
1
1
1
1
1
1
1
1
1
1
1
1
1
1
1
1
1
1
1
1
1
1
1
1
1
1
1
1
1
1
1
1
1
1
1
1
1
1
1
1
1
1
1
1
1
1
1
1
1
1
1
1
1
1
1
1
1
1
1
1
1
1
1
1
1
1
1
1
1
1
1
1
1
1
1
1
1
1
1
1
1
1
1
1
1
1
1
1
1
1
1
1
1
1
1
1
1
1
1
1
1
1
1
1
1
1
1
1
1
1
1
1
1
1
1
1
1
1
1
1
1
1
1
1
1
1
1
1
1
1
1
1
1
1
1
1
1
1
1
1
1
1
1
1
1
1
1
1
1
1
1
1
1
1
1
1
1
1
1
1
1
1
1.07788
1.17938
1.28851
1.37934
1.47237
1.56044
1.61791
1.66727
1.69612
1.69125
1.66224
1.61295
1.56933
1.53816
1.52672
1.51596
1.5137
1.51643
1.52097
1.5258
1.53076
1.53363
1.5355
1.53657
1.53745
1.53873
1.54047
1.54174
1.54187
1.5418
1.54231
1.54407
1.54615
1.54717
1.54727
1.54716
1.54638
1.54523
1.54463
1.54456
1.54478
1.54506
1.54526
1.54551
1.54566
1.54572
1.54559
1.54548
1.00079
1.00516
1.02319
1.07016
1.12893
1.21456
1.30064
1.3798
1.45161
1.50578
1.53176
1.5533
1.56716
1.56337
1.55444
1.54631
1.54017
1.53656
1.5325
1.53283
1.53437
1.53695
1.53977
1.54225
1.5435
1.54433
1.54444
1.54496
1.54492
1.54473
1.54484
1.54561
1.54652
1.54728
1.54766
1.54756
1.54713
1.54658
1.54644
1.54655
1.54686
1.54737
1.54795
1.54814
1.54813
1.54804
1.5476
1.54789
1
0.999993
1.00001
1.00004
1.00048
1.00453
1.02202
1.07389
1.18418
1.34181
1.50392
1.57851
1.62437
1.62382
1.61546
1.59898
1.57892
1.55597
1.54447
1.54473
1.54631
1.54843
1.55189
1.555
1.55571
1.556
1.55618
1.556
1.55603
1.55597
1.5556
1.55518
1.55492
1.55473
1.55436
1.55366
1.55279
1.5521
1.55186
1.55184
1.5521
1.55276
1.55352
1.55375
1.55361
1.55332
1.55273
1.55352
1
1
1
1
0.999999
0.999998
1.00001
1.00003
1.00213
1.02597
1.15191
1.33142
1.51082
1.59588
1.60636
1.6044
1.59411
1.58656
1.58051
1.5738
1.57061
1.56686
1.5646
1.56433
1.56503
1.56637
1.56739
1.56855
1.5695
1.5695
1.56918
1.5686
1.56807
1.56765
1.56693
1.5659
1.5648
1.56369
1.56292
1.5627
1.56275
1.56299
1.56304
1.56275
1.5619
1.56095
1.5599
1.56066
1
1
1
1
1
1
1
1
1
0.999971
1.00075
1.01746
1.1076
1.30438
1.45576
1.58621
1.61987
1.61871
1.61406
1.60572
1.59094
1.58174
1.57618
1.57186
1.57108
1.57173
1.5728
1.57457
1.5764
1.57711
1.57744
1.57797
1.57845
1.57846
1.57814
1.57746
1.57649
1.57535
1.57455
1.57441
1.5745
1.57457
1.57428
1.57338
1.57212
1.57085
1.5693
1.56997
1
1
1
1
1
1
1
1
1
0.999999
0.999999
0.999982
1.00024
1.01209
1.08055
1.25433
1.43582
1.54533
1.60979
1.60926
1.60214
1.59562
1.59004
1.58449
1.58067
1.57887
1.57774
1.57761
1.57861
1.58058
1.58213
1.58383
1.58456
1.58446
1.58405
1.58337
1.58251
1.58165
1.58121
1.58117
1.58129
1.58121
1.58054
1.57945
1.57827
1.57727
1.5762
1.57693
1
1
1
1
1
1
1
1
1
1
1
0.999999
0.999999
0.999987
1.00016
1.00629
1.07565
1.21453
1.40537
1.50582
1.57361
1.59724
1.59729
1.5954
1.58992
1.58611
1.58268
1.57953
1.57929
1.58014
1.58215
1.58509
1.58611
1.58591
1.58542
1.58472
1.58403
1.58353
1.5834
1.58342
1.58373
1.58372
1.58321
1.58249
1.58189
1.5816
1.5811
1.58157
1
1
1
1
1
1
1
1
1
1
1
1
1
0.999999
0.999999
0.99999
1.00022
1.00438
1.05316
1.19622
1.36389
1.49607
1.54003
1.5672
1.58017
1.58142
1.5801
1.57712
1.57754
1.57861
1.57973
1.58094
1.58237
1.58341
1.58325
1.58279
1.58265
1.58276
1.58321
1.58411
1.58457
1.58455
1.58422
1.58376
1.58353
1.58345
1.58329
1.58333
1
1
1
1
1
1
1
1
1
1
1
1
1
1
1
0.999999
0.999999
0.999993
1.00012
1.0046
1.03924
1.18197
1.33915
1.4801
1.53534
1.55231
1.56391
1.56628
1.56967
1.57084
1.57098
1.57203
1.57358
1.57534
1.577
1.57825
1.57934
1.58047
1.58149
1.58251
1.58299
1.58308
1.58316
1.58319
1.58307
1.58292
1.58295
1.58287
1
1
1
1
1
1
1
1
1
1
1
1
1
1
1
1
1
0.999999
0.999999
0.999995
1.00007
1.00465
1.03898
1.156
1.33003
1.45579
1.53423
1.55305
1.55973
1.56359
1.56351
1.56388
1.56519
1.5667
1.56844
1.57057
1.57282
1.57487
1.57648
1.57779
1.5784
1.57879
1.57947
1.58015
1.58043
1.5806
1.58106
1.58095
1
1
1
1
1
1
1
1
1
1
1
1
1
1
1
1
1
1
1
1
1
0.999995
1.0001
1.00312
1.04397
1.14885
1.32279
1.44349
1.52359
1.55455
1.56101
1.56176
1.56377
1.56412
1.56446
1.56589
1.56761
1.56915
1.57082
1.57233
1.5731
1.57356
1.57419
1.57478
1.57514
1.57548
1.57634
1.57639
1
1
1
1
1
1
1
1
1
1
1
1
1
1
1
1
1
1
1
1
1
0.999999
1
0.999995
1.00019
1.00307
1.04073
1.16397
1.32629
1.44661
1.50855
1.54189
1.55394
1.55792
1.56101
1.56362
1.56391
1.56423
1.56522
1.56693
1.5683
1.56905
1.56951
1.56981
1.56995
1.57037
1.57152
1.57187
1
1
1
1
1
1
1
1
1
1
1
1
1
1
1
1
1
1
1
1
1
1
1
0.999999
1
0.999996
1.00022
1.00487
1.04082
1.17964
1.3354
1.47074
1.51065
1.52939
1.54511
1.55479
1.55463
1.55558
1.55763
1.56009
1.56231
1.56337
1.56354
1.56364
1.56393
1.56476
1.56637
1.56725
1
1
1
1
1
1
1
1
1
1
1
1
1
1
1
1
1
1
1
1
1
1
1
1
1
1
1
0.999998
1.00024
1.00788
1.05095
1.20081
1.36146
1.48762
1.53513
1.54113
1.54488
1.54726
1.55001
1.55317
1.55528
1.55656
1.55757
1.55809
1.55876
1.55978
1.56128
1.56254
1
1
1
1
1
1
1
1
1
1
1
1
1
1
1
1
1
1
1
1
1
1
1
1
1
1
1
1
0.999999
1.00001
1.00042
1.01141
1.076
1.23833
1.39945
1.50061
1.54782
1.55287
1.55353
1.55567
1.55569
1.55551
1.55605
1.55627
1.55664
1.55742
1.55875
1.5598
1
1
1
1
1
1
1
1
1
1
1
1
1
1
1
1
1
1
1
1
1
1
1
1
1
1
1
1
1
1
0.999999
1.00003
1.00107
1.01917
1.12111
1.29037
1.43713
1.51086
1.54452
1.55399
1.55502
1.55824
1.55839
1.5578
1.55765
1.55788
1.5586
1.55916
1
1
1
1
1
1
1
1
1
1
1
1
1
1
1
1
1
1
1
1
1
1
1
1
1
1
1
1
1
1
1
1
0.999999
1.0001
1.00328
1.03606
1.17993
1.36133
1.48725
1.51884
1.53709
1.55155
1.55249
1.55328
1.55446
1.55595
1.55753
1.55814
1
1
1
1
1
1
1
1
1
1
1
1
1
1
1
1
1
1
1
1
1
1
1
1
1
1
1
1
1
1
1
1
1
1
1
1.00039
1.01041
1.07594
1.25677
1.42652
1.52954
1.54239
1.54573
1.54773
1.54984
1.55291
1.55565
1.55618
1
1
1
1
1
1
1
1
1
1
1
1
1
1
1
1
1
1
1
1
1
1
1
1
1
1
1
1
1
1
1
1
1
1
1
0.999999
1.00003
1.0016
1.03011
1.14967
1.35522
1.48519
1.54917
1.55734
1.55686
1.55828
1.55879
1.5578
1
1
1
1
1
1
1
1
1
1
1
1
1
1
1
1
1
1
1
1
1
1
1
1
1
1
1
1
1
1
1
1
1
1
1
1
1
1
1.00031
1.00748
1.08643
1.26195
1.43914
1.51351
1.54888
1.55953
1.55948
1.55956
1
1
1
1
1
1
1
1
1
1
1
1
1
1
1
1
1
1
1
1
1
1
1
1
1
1
1
1
1
1
1
1
1
1
1
1
1
1
1
1.00003
1.00238
1.0316
1.18388
1.3895
1.51142
1.53332
1.54447
1.55087
1
1
1
1
1
1
1
1
1
1
1
1
1
1
1
1
1
1
1
1
1
1
1
1
1
1
1
1
1
1
1
1
1
1
1
1
1
1
1
1
1
1.00048
1.01421
1.11205
1.31931
1.48346
1.54523
1.55115
1
1
1
1
1
1
1
1
1
1
1
1
1
1
1
1
1
1
1
1
1
1
1
1
1
1
1
1
1
1
1
1
1
1
1
1
1
1
1
1
1
1
1.00011
1.00523
1.06504
1.25342
1.43389
1.53573
1
1
1
1
1
1
1
1
1
1
1
1
1
1
1
1
1
1
1
1
1
1
1
1
1
1
1
1
1
1
1
1
1
1
1
1
1
1
1
1
1
1
1
1.00003
1.0017
1.0349
1.20494
1.41547
1
1
1
1
1
1
1
1
1
1
1
1
1
1
1
1
1
1
1
1
1
1
1
1
1
1
1
1
1
1
1
1
1
1
1
1
1
1
1
1
1
1
1
1
1
1.00078
1.02287
1.13538
1
1
1
1
1
1
1
1
1
1
1
1
1
1
1
1
1
1
1
1
1
1
1
1
1
1
1
1
1
1
1
1
1
1
1
1
1
1
1
1
1
1
1
1
1
1
1.00038
1.00548
1
1
1
1
1
1
1
1
1
1
1
1
1
1
1
1
1
1
1
1
1
1
1
1
1
1
1
1
1
1
1
1
1
1
1
1
1
1
1
1
1
1
1
1
1
1
1
0.999939
1
1
1
1
1
1
1
1
1
1
1
1
1
1
1
1
1
1
1
1
1
1
1
1
1
1
1
1
1
1
1
1
1
1
1
1
1
1
1
1
1
1
1
1
1
1
1
0.999979
1
1
1
1
1
1
1
1
1
1
1
1
1
1
1
1
1
1
1
1
1
1
1
1
1
1
1
1
1
1
1
1
1
1
1
1
1
1
1
1
1
1
1
1
1
1
1
0.999997
1
1
1
1
1
1
1
1
1
1
1
1
1
1
1
1
1
1
1
1
1
1
1
1
1
1
1
1
1
1
1
1
1
1
1
1
1
1
1
1
1
1
1
1
1
1
1
1
1
1
1
1
1
1
1
1
1
1
1
1
1
1
1
1
1
1
1
1
1
1
1
1
1
1
1
1
1
1
1
1
1
1
1
1
1
1
1
1
1
1
1
1
1
1
1
1
1
1
1
1
1
1
1
1
1
1
1
1
1
1
1
1
1
1
1
1
1
1
1
1
1
1
1
1
1
1
1
1
1
1
1
1
1
1
1
1
1
1
1
1
1
1
1
1
1
1
1
1
1
1
1
1
1
1
1
1
1
1
1
1
1
1
1
1
1
1
1
1
1
1
1
1
1
1
1
1
1
1
1
1
1
1
1
1
1
1
1
1
1
1
1
1
1
1
1
1
1
1
1
1
1
1
1
1
1
1
1
1
1
1
1
1
1
1
1
1
1
1
1
1
1
1
1
1
1
1
1
1
1
1
1
1
1
1
1
1
1
1
1
1
1
1
1
1
1
1
1
1
1
1
1
1
1
1
1
1
1
1
1
1
1
1
1
1
1
1
1
1
1
1
1
1
1
1
1
1
1
1
1
1
1
1
1
1
1
1
1
1
1
1
1
1
1
1
1
1
1
1
1
1
1
1
1
1
1
1
1
1
1
1
1
1
1
1
1
1
1
1
1
1
1
1
1
1
1
1
1
1
1
1
1
1
1
1
1
0.999997
1
1
1
1
1
1
1
1
1
1
1
1
1
1
1
1
1
1
1
1
1
1
1
1
1
1
1
1
1
1
1
1
1
1
1
1
1
1
1
1
1
1
1
1
1
1
1
0.999979
1
1
1
1
1
1
1
1
1
1
1
1
1
1
1
1
1
1
1
1
1
1
1
1
1
1
1
1
1
1
1
1
1
1
1
1
1
1
1
1
1
1
1
1
1
1
1
0.999939
1
1
1
1
1
1
1
1
1
1
1
1
1
1
1
1
1
1
1
1
1
1
1
1
1
1
1
1
1
1
1
1
1
1
1
1
1
1
1
1
1
1
1
1
1
1
1.00038
1.00544
1
1
1
1
1
1
1
1
1
1
1
1
1
1
1
1
1
1
1
1
1
1
1
1
1
1
1
1
1
1
1
1
1
1
1
1
1
1
1
1
1
1
1
1
1
1.00077
1.02296
1.13512
1
1
1
1
1
1
1
1
1
1
1
1
1
1
1
1
1
1
1
1
1
1
1
1
1
1
1
1
1
1
1
1
1
1
1
1
1
1
1
1
1
1
1
1.00003
1.0017
1.03489
1.20503
1.41516
1
1
1
1
1
1
1
1
1
1
1
1
1
1
1
1
1
1
1
1
1
1
1
1
1
1
1
1
1
1
1
1
1
1
1
1
1
1
1
1
1
1
1.00011
1.00523
1.06504
1.25349
1.43374
1.53573
1
1
1
1
1
1
1
1
1
1
1
1
1
1
1
1
1
1
1
1
1
1
1
1
1
1
1
1
1
1
1
1
1
1
1
1
1
1
1
1
1
1.00048
1.01421
1.11205
1.31931
1.4835
1.54516
1.55114
1
1
1
1
1
1
1
1
1
1
1
1
1
1
1
1
1
1
1
1
1
1
1
1
1
1
1
1
1
1
1
1
1
1
1
1
1
1
1
1.00003
1.00238
1.0316
1.18387
1.38948
1.51143
1.53332
1.54447
1.55086
1
1
1
1
1
1
1
1
1
1
1
1
1
1
1
1
1
1
1
1
1
1
1
1
1
1
1
1
1
1
1
1
1
1
1
1
1
1
1.00031
1.00748
1.08643
1.26196
1.43914
1.51351
1.54889
1.55953
1.55949
1.55956
1
1
1
1
1
1
1
1
1
1
1
1
1
1
1
1
1
1
1
1
1
1
1
1
1
1
1
1
1
1
1
1
1
1
1
0.999999
1.00003
1.0016
1.03011
1.14967
1.35522
1.48519
1.54917
1.55735
1.55686
1.55828
1.55879
1.5578
1
1
1
1
1
1
1
1
1
1
1
1
1
1
1
1
1
1
1
1
1
1
1
1
1
1
1
1
1
1
1
1
1
1
1
1.00039
1.01041
1.07594
1.25677
1.42652
1.52954
1.54238
1.54573
1.54773
1.54984
1.55291
1.55565
1.55618
1
1
1
1
1
1
1
1
1
1
1
1
1
1
1
1
1
1
1
1
1
1
1
1
1
1
1
1
1
1
1
1
0.999999
1.0001
1.00328
1.03606
1.17993
1.36133
1.48725
1.51884
1.53709
1.55155
1.55249
1.55328
1.55446
1.55595
1.55753
1.55814
1
1
1
1
1
1
1
1
1
1
1
1
1
1
1
1
1
1
1
1
1
1
1
1
1
1
1
1
1
1
0.999999
1.00003
1.00107
1.01917
1.12111
1.29037
1.43713
1.51086
1.54452
1.55399
1.55502
1.55824
1.55839
1.5578
1.55765
1.55788
1.5586
1.55916
1
1
1
1
1
1
1
1
1
1
1
1
1
1
1
1
1
1
1
1
1
1
1
1
1
1
1
1
0.999999
1.00001
1.00042
1.01141
1.076
1.23833
1.39945
1.50061
1.54782
1.55287
1.55353
1.55567
1.55569
1.55551
1.55605
1.55627
1.55664
1.55742
1.55875
1.5598
1
1
1
1
1
1
1
1
1
1
1
1
1
1
1
1
1
1
1
1
1
1
1
1
1
1
1
0.999998
1.00024
1.00788
1.05095
1.20081
1.36146
1.48762
1.53513
1.54113
1.54488
1.54726
1.55001
1.55317
1.55528
1.55656
1.55757
1.55809
1.55876
1.55978
1.56128
1.56254
1
1
1
1
1
1
1
1
1
1
1
1
1
1
1
1
1
1
1
1
1
1
1
0.999999
1
0.999996
1.00022
1.00487
1.04082
1.17964
1.3354
1.47074
1.51065
1.52939
1.54511
1.55479
1.55463
1.55558
1.55763
1.56009
1.56231
1.56337
1.56354
1.56364
1.56393
1.56475
1.56637
1.56725
1
1
1
1
1
1
1
1
1
1
1
1
1
1
1
1
1
1
1
1
1
0.999999
1
0.999995
1.00019
1.00307
1.04073
1.16397
1.32629
1.44661
1.50855
1.54189
1.55394
1.55792
1.56101
1.56362
1.56391
1.56423
1.56522
1.56693
1.5683
1.56905
1.56951
1.56981
1.56995
1.57037
1.57152
1.57187
1
1
1
1
1
1
1
1
1
1
1
1
1
1
1
1
1
1
1
1
1
0.999995
1.0001
1.00312
1.04397
1.14885
1.32279
1.44349
1.52359
1.55455
1.56101
1.56176
1.56377
1.56412
1.56446
1.56589
1.56761
1.56915
1.57082
1.57233
1.5731
1.57356
1.57419
1.57478
1.57514
1.57548
1.57634
1.57639
1
1
1
1
1
1
1
1
1
1
1
1
1
1
1
1
1
0.999999
0.999999
0.999995
1.00007
1.00465
1.03898
1.156
1.33003
1.45579
1.53423
1.55305
1.55973
1.56359
1.56351
1.56388
1.56519
1.5667
1.56844
1.57057
1.57282
1.57487
1.57648
1.57779
1.5784
1.57879
1.57947
1.58015
1.58043
1.5806
1.58106
1.58095
1
1
1
1
1
1
1
1
1
1
1
1
1
1
1
0.999999
0.999999
0.999993
1.00012
1.0046
1.03924
1.18197
1.33915
1.4801
1.53534
1.55231
1.56391
1.56628
1.56967
1.57084
1.57098
1.57203
1.57358
1.57534
1.577
1.57825
1.57934
1.58047
1.58149
1.58251
1.58299
1.58308
1.58316
1.58319
1.58307
1.58292
1.58295
1.58287
1
1
1
1
1
1
1
1
1
1
1
1
1
0.999999
0.999999
0.99999
1.00022
1.00438
1.05316
1.19622
1.36389
1.49607
1.54003
1.5672
1.58017
1.58142
1.5801
1.57712
1.57754
1.57861
1.57973
1.58094
1.58237
1.58341
1.58325
1.58279
1.58265
1.58276
1.58321
1.58411
1.58457
1.58455
1.58422
1.58376
1.58353
1.58345
1.58329
1.58333
1
1
1
1
1
1
1
1
1
1
1
0.999999
0.999999
0.999987
1.00016
1.00629
1.07565
1.21453
1.40537
1.50582
1.57361
1.59724
1.59729
1.5954
1.58992
1.58611
1.58268
1.57953
1.57929
1.58014
1.58215
1.58509
1.58611
1.58591
1.58542
1.58472
1.58403
1.58353
1.5834
1.58342
1.58373
1.58372
1.58321
1.58249
1.58189
1.5816
1.5811
1.58157
1
1
1
1
1
1
1
1
1
0.999999
0.999999
0.999982
1.00024
1.01209
1.08055
1.25433
1.43582
1.54533
1.60979
1.60926
1.60214
1.59562
1.59004
1.58449
1.58067
1.57887
1.57774
1.57761
1.57861
1.58058
1.58213
1.58383
1.58456
1.58446
1.58405
1.58337
1.58251
1.58165
1.58121
1.58117
1.58129
1.58121
1.58054
1.57945
1.57827
1.57727
1.5762
1.57693
1
1
1
1
1
1
1
1
1
0.999971
1.00075
1.01746
1.1076
1.30438
1.45576
1.58621
1.61987
1.61871
1.61406
1.60572
1.59094
1.58174
1.57618
1.57186
1.57108
1.57173
1.5728
1.57457
1.5764
1.57711
1.57744
1.57797
1.57845
1.57846
1.57814
1.57746
1.57649
1.57535
1.57455
1.57441
1.5745
1.57457
1.57428
1.57338
1.57212
1.57085
1.5693
1.56997
1
1
1
1
0.999999
0.999998
1.00001
1.00003
1.00213
1.02597
1.15191
1.33142
1.51082
1.59588
1.60636
1.6044
1.59411
1.58656
1.58051
1.5738
1.57061
1.56686
1.5646
1.56433
1.56503
1.56637
1.56739
1.56855
1.5695
1.5695
1.56918
1.5686
1.56807
1.56765
1.56693
1.5659
1.5648
1.56369
1.56292
1.5627
1.56275
1.56299
1.56304
1.56275
1.5619
1.56095
1.5599
1.56066
1
0.999993
1.00001
1.00004
1.00048
1.00453
1.02202
1.07389
1.18418
1.34181
1.50392
1.57851
1.62437
1.62382
1.61546
1.59898
1.57892
1.55597
1.54447
1.54473
1.54631
1.54843
1.55189
1.555
1.55571
1.556
1.55618
1.556
1.55603
1.55597
1.5556
1.55518
1.55492
1.55473
1.55436
1.55366
1.55279
1.5521
1.55186
1.55184
1.5521
1.55276
1.55352
1.55375
1.55361
1.55332
1.55273
1.55352
1.00079
1.00516
1.02319
1.07016
1.12893
1.21456
1.30064
1.3798
1.45161
1.50578
1.53176
1.5533
1.56716
1.56337
1.55444
1.54631
1.54017
1.53656
1.5325
1.53283
1.53437
1.53695
1.53977
1.54225
1.5435
1.54433
1.54444
1.54496
1.54492
1.54473
1.54484
1.54561
1.54652
1.54728
1.54766
1.54756
1.54713
1.54658
1.54644
1.54655
1.54686
1.54737
1.54795
1.54814
1.54813
1.54804
1.5476
1.54789
1.07788
1.17938
1.28851
1.37934
1.47237
1.56044
1.61791
1.66727
1.69612
1.69125
1.66224
1.61295
1.56933
1.53816
1.52672
1.51596
1.5137
1.51643
1.52097
1.5258
1.53076
1.53363
1.5355
1.53657
1.53745
1.53873
1.54047
1.54174
1.54187
1.5418
1.54231
1.54407
1.54615
1.54717
1.54727
1.54716
1.54638
1.54523
1.54463
1.54456
1.54478
1.54506
1.54526
1.54551
1.54566
1.54572
1.54559
1.54548
1.40275
1.23179
1.11544
1.04551
0.978445
0.977555
1.00685
1.02826
1.03385
1.05466
1.10176
1.11091
1.10486
1.10429
1.10907
1.11122
1.11336
1.11987
1.12416
1.12295
1.12006
1.11766
1.11648
1.11389
1.11075
1.11035
1.11026
1.10968
1.10813
1.10627
1.10463
1.1034
1.10299
1.10296
1.1035
1.10506
1.10546
1.10543
1.10522
1.10404
1.1029
1.10287
1.10304
1.10377
1.10446
1.10437
1.10373
1.10328
1.10525
1.15903
1.35466
1.59143
1.81146
2.03683
2.22936
2.23343
2.18435
2.11493
2.0952
2.08368
2.06146
2.04541
2.03699
2.0339
2.02976
2.0199
2.00754
1.98728
1.95765
1.9404
1.93376
1.92989
1.92791
1.92183
1.9136
1.90111
1.87881
1.85896
1.85166
1.84582
1.83935
1.83201
1.82234
1.80758
1.78942
1.78019
1.77584
1.77232
1.76914
1.76471
1.75826
1.74438
1.72119
1.70281
1.69443
1.68938
1.68554
1.6836
1.68193
1.67855
1.67422
1.66406
1.64531
1.63014
1.62277
1.61745
1.61183
1.60583
1.59838
1.58754
1.57774
1.57355
1.57053
1.56756
1.56423
1.55961
1.55032
1.53248
1.51681
1.51086
1.50777
1.50551
1.50389
1.503
1.50163
1.49928
1.49197
1.47723
1.46431
1.45799
1.45355
1.44958
1.44583
1.4415
1.43494
1.42648
1.42101
1.41779
1.41457
1.4104
1.40438
1.39444
1.38533
1.38493
1.38754
1.40857
1.4691
1.5755
1.69091
1.77378
1.83035
1.88003
1.90225
1.89309
1.88673
1.87951
1.87093
1.86317
1.85401
1.83724
1.81816
1.81058
1.80866
1.80837
1.8084
1.80623
1.80379
1.8008
1.79527
1.788
1.78223
1.7773
1.77266
1.76795
1.76211
1.75489
1.74695
1.73808
1.72889
1.72276
1.7202
1.7185
1.71738
1.71793
1.71881
1.71663
1.71331
1.7075
1.6949
1.68153
1.67756
1.67343
1.50237
1.41507
1.31966
1.26158
1.18842
1.12206
1.10986
1.08457
1.06428
1.06764
1.06936
1.06383
1.0596
1.06135
1.06919
1.07836
1.08417
1.09173
1.10006
1.10045
1.0992
1.09953
1.10157
1.10251
1.10249
1.10299
1.10382
1.10354
1.1022
1.10098
1.10023
1.0998
1.0995
1.09944
1.10008
1.10103
1.10117
1.10117
1.10076
1.09957
1.09861
1.09842
1.09857
1.09924
1.09969
1.09922
1.09966
1.1035
1.14568
1.35074
1.53728
1.5831
1.67105
1.77068
1.94575
2.07552
2.12953
2.12767
2.11528
2.09498
2.06836
2.0531
2.04534
2.03768
2.02986
2.02046
2.01012
1.99491
1.97114
1.9473
1.93431
1.92767
1.92352
1.91919
1.91197
1.90281
1.88692
1.86602
1.85266
1.84566
1.84024
1.83436
1.8264
1.81429
1.79838
1.7846
1.77654
1.77172
1.76757
1.76269
1.75501
1.74268
1.72601
1.71076
1.70137
1.6954
1.69065
1.68602
1.68143
1.67705
1.67036
1.65943
1.64674
1.63453
1.62491
1.61908
1.61511
1.61016
1.6034
1.59431
1.58448
1.57827
1.57436
1.57071
1.56686
1.56179
1.55268
1.537
1.52167
1.51432
1.51042
1.50776
1.50578
1.5036
1.50051
1.49678
1.49144
1.48001
1.46684
1.46161
1.45859
1.45484
1.45087
1.44662
1.44057
1.43176
1.42482
1.42111
1.41773
1.41357
1.40779
1.3992
1.39501
1.39979
1.42448
1.48431
1.56422
1.61613
1.65821
1.71227
1.75753
1.78815
1.82185
1.84563
1.86877
1.87645
1.87412
1.86736
1.85688
1.84212
1.82537
1.81671
1.8138
1.8128
1.81168
1.80941
1.80697
1.80379
1.79759
1.78955
1.78351
1.77863
1.77411
1.76946
1.76388
1.75653
1.74837
1.74085
1.73374
1.72695
1.72211
1.72002
1.71849
1.71728
1.71711
1.71567
1.71213
1.70673
1.69711
1.68574
1.68062
1.67621
1.53841
1.49826
1.43069
1.36185
1.29241
1.21801
1.17539
1.13974
1.08931
1.06628
1.06108
1.04605
1.03992
1.04211
1.04702
1.05194
1.05521
1.06108
1.07048
1.07453
1.07583
1.07774
1.08166
1.08458
1.0858
1.08793
1.09017
1.09094
1.09076
1.09014
1.08936
1.08925
1.08929
1.08977
1.09075
1.09093
1.09089
1.09074
1.08985
1.08895
1.08881
1.08893
1.08947
1.0904
1.09066
1.09193
1.10334
1.15916
1.32863
1.54197
1.60594
1.604
1.60995
1.62529
1.70018
1.90154
2.09232
2.15972
2.14819
2.11566
2.08462
2.06696
2.05248
2.03889
2.0273
2.01919
2.01206
2.003
1.98804
1.96532
1.94352
1.93231
1.92539
1.91788
1.90953
1.9002
1.88993
1.87549
1.86083
1.85073
1.84204
1.8337
1.82535
1.81624
1.80564
1.79423
1.78393
1.7754
1.76734
1.7588
1.7484
1.73644
1.72677
1.71973
1.71156
1.70291
1.69721
1.69273
1.68629
1.67676
1.66396
1.65077
1.64298
1.63844
1.63177
1.6242
1.61581
1.60744
1.59938
1.59108
1.58278
1.57547
1.56973
1.56529
1.56086
1.55528
1.54712
1.53591
1.52551
1.51902
1.51544
1.51313
1.5105
1.50728
1.50293
1.49536
1.48422
1.47364
1.46763
1.46349
1.45866
1.45355
1.44862
1.44362
1.43763
1.42858
1.42026
1.41595
1.41284
1.40966
1.40644
1.40586
1.41478
1.45109
1.51946
1.58749
1.6374
1.64068
1.63758
1.6448
1.66675
1.70212
1.76246
1.82025
1.85782
1.8735
1.87681
1.87287
1.86119
1.84742
1.83371
1.82527
1.81933
1.81381
1.81092
1.80922
1.80714
1.8041
1.79888
1.79147
1.78421
1.77748
1.77183
1.76705
1.76182
1.75516
1.74836
1.74353
1.73997
1.73523
1.7283
1.72315
1.72089
1.71915
1.71671
1.7135
1.70928
1.70356
1.69697
1.69163
1.68618
1.67679
1.55589
1.53847
1.49786
1.44153
1.38135
1.31261
1.26165
1.22062
1.16769
1.12555
1.11131
1.08772
1.05952
1.05885
1.05686
1.04993
1.04598
1.04757
1.04843
1.04885
1.04994
1.05356
1.06176
1.06877
1.07259
1.07543
1.07739
1.07838
1.07913
1.07893
1.07895
1.08
1.08217
1.0843
1.08483
1.08472
1.08422
1.08286
1.08106
1.08075
1.08084
1.08117
1.08167
1.08229
1.08408
1.10468
1.22099
1.36154
1.51744
1.60942
1.62402
1.62079
1.61793
1.61078
1.60767
1.65114
1.83258
2.0574
2.12214
2.1183
2.10678
2.08931
2.06668
2.04379
2.03104
2.02354
2.01842
2.01001
2.00037
1.98559
1.96301
1.94173
1.92996
1.92169
1.91315
1.9047
1.89681
1.88808
1.87434
1.85783
1.84545
1.83674
1.83007
1.82477
1.81897
1.80987
1.79632
1.77937
1.76498
1.7537
1.7447
1.73795
1.73346
1.72869
1.72228
1.71438
1.70559
1.69458
1.68391
1.67137
1.65958
1.65133
1.64517
1.63927
1.6344
1.62895
1.62162
1.61201
1.60195
1.59349
1.58654
1.58016
1.57356
1.56743
1.56156
1.55438
1.54589
1.53868
1.53331
1.52842
1.52263
1.51477
1.508
1.5044
1.50066
1.49235
1.47922
1.47176
1.46894
1.46603
1.46227
1.45742
1.4522
1.44592
1.43891
1.4306
1.42236
1.41691
1.41425
1.41291
1.41675
1.43758
1.49174
1.56143
1.62617
1.64411
1.6483
1.64575
1.64235
1.64203
1.644
1.65345
1.6809
1.72976
1.79062
1.83241
1.85597
1.86203
1.86036
1.85559
1.84718
1.83836
1.82953
1.82084
1.81861
1.81677
1.81249
1.80676
1.80101
1.79521
1.78892
1.78257
1.77544
1.7679
1.76141
1.75661
1.75338
1.75078
1.74802
1.74436
1.73883
1.73169
1.72519
1.72065
1.71665
1.71227
1.70777
1.70389
1.70126
1.69784
1.69264
1.68196
1.56625
1.56008
1.53913
1.50054
1.45252
1.38937
1.3372
1.29639
1.23999
1.19213
1.16619
1.14044
1.10173
1.08779
1.0775
1.06028
1.04766
1.04875
1.04799
1.04584
1.04669
1.0485
1.05255
1.0591
1.06457
1.06739
1.06898
1.06989
1.07135
1.07282
1.07325
1.07496
1.07884
1.08027
1.08034
1.08025
1.07978
1.0788
1.0781
1.07821
1.0788
1.07956
1.07958
1.08048
1.09954
1.2547
1.4579
1.54055
1.59693
1.62639
1.62695
1.62372
1.61988
1.61798
1.61014
1.59854
1.6163
1.75916
1.97065
2.10527
2.12389
2.11179
2.0828
2.05804
2.0393
2.02778
2.01955
2.01278
2.00362
1.99421
1.97935
1.95642
1.93699
1.92663
1.91885
1.9112
1.9029
1.89266
1.87835
1.86066
1.84972
1.84305
1.83688
1.83027
1.82303
1.81402
1.7993
1.77788
1.76196
1.75438
1.74947
1.74534
1.74136
1.73749
1.73199
1.7248
1.71048
1.6928
1.67829
1.66855
1.66172
1.65615
1.65046
1.64509
1.63974
1.63322
1.62464
1.6137
1.60386
1.59687
1.59095
1.58459
1.57728
1.56934
1.56203
1.55532
1.54877
1.54305
1.53871
1.53426
1.52859
1.52078
1.51324
1.50632
1.49871
1.48964
1.48038
1.47486
1.47078
1.4674
1.46573
1.464
1.4603
1.45352
1.44232
1.43105
1.42386
1.41998
1.42022
1.42886
1.46768
1.5368
1.60711
1.64488
1.66094
1.66391
1.66087
1.65834
1.65545
1.65137
1.64819
1.64431
1.644
1.65264
1.68315
1.7432
1.80122
1.84212
1.86172
1.86144
1.85706
1.84732
1.84021
1.83284
1.82662
1.82114
1.81437
1.80815
1.80319
1.79898
1.79449
1.78767
1.77753
1.7672
1.76211
1.76006
1.75844
1.75691
1.75498
1.75191
1.74805
1.74191
1.73177
1.72184
1.7157
1.7118
1.7088
1.70559
1.70218
1.69942
1.69713
1.68961
1.57437
1.57048
1.56166
1.54015
1.50674
1.45698
1.4042
1.36082
1.31103
1.26417
1.23341
1.20273
1.16049
1.13877
1.12384
1.10328
1.07977
1.07595
1.06812
1.05696
1.05458
1.05527
1.05432
1.05329
1.05521
1.05661
1.05798
1.06066
1.06404
1.06832
1.07095
1.07368
1.07788
1.07924
1.07947
1.07963
1.07943
1.07834
1.07816
1.07852
1.07957
1.08024
1.08258
1.10613
1.24944
1.50501
1.59561
1.61613
1.62947
1.62111
1.61835
1.62071
1.61873
1.61669
1.61353
1.60284
1.58705
1.5918
1.67847
1.88191
2.04968
2.09096
2.08876
2.07117
2.05023
2.02915
2.01671
2.00837
2.00322
1.99514
1.98466
1.96747
1.9458
1.93127
1.92296
1.91533
1.90695
1.89677
1.88223
1.86336
1.85235
1.84628
1.84073
1.83521
1.82851
1.81939
1.80208
1.77669
1.76252
1.75732
1.75345
1.75267
1.75205
1.74659
1.73903
1.72686
1.70688
1.68562
1.6752
1.66973
1.66565
1.66215
1.65808
1.65319
1.64801
1.63976
1.62594
1.61324
1.60602
1.60071
1.59543
1.58954
1.58138
1.56885
1.55875
1.55477
1.55244
1.55036
1.54683
1.54264
1.53786
1.53107
1.51961
1.50474
1.49356
1.48846
1.48529
1.48101
1.47598
1.47155
1.46716
1.46253
1.45844
1.45232
1.44181
1.43278
1.42832
1.43052
1.45
1.50353
1.58309
1.64304
1.67494
1.68548
1.68386
1.67638
1.66496
1.66023
1.65672
1.6524
1.64849
1.64488
1.64182
1.63624
1.63691
1.65564
1.70035
1.76559
1.81654
1.84641
1.84954
1.85109
1.84963
1.84409
1.83365
1.82294
1.81464
1.81003
1.8068
1.80327
1.79846
1.79022
1.77725
1.76742
1.76454
1.7626
1.76143
1.76283
1.76259
1.75944
1.75569
1.74929
1.73545
1.72125
1.7158
1.71256
1.7099
1.708
1.70549
1.70266
1.69982
1.69342
1.58036
1.57755
1.57447
1.56509
1.54413
1.50695
1.46534
1.42237
1.37037
1.3293
1.29522
1.26124
1.22055
1.19409
1.17197
1.14489
1.11698
1.10597
1.09461
1.07617
1.06549
1.06539
1.06165
1.05771
1.05887
1.05881
1.05738
1.0574
1.05871
1.06238
1.06826
1.07358
1.07814
1.07994
1.08016
1.08041
1.08066
1.08039
1.08008
1.08054
1.08177
1.08807
1.1429
1.27986
1.50539
1.62921
1.64877
1.64599
1.63688
1.62304
1.61473
1.61312
1.61241
1.61018
1.60863
1.60343
1.58951
1.57046
1.5693
1.61278
1.77881
1.96656
2.06521
2.06985
2.05732