/*--------------------------------*- C++ -*----------------------------------*\
  =========                 |
  \\      /  F ield         | OpenFOAM: The Open Source CFD Toolbox
   \\    /   O peration     | Website:  https://openfoam.org
    \\  /    A nd           | Version:  7
     \\/     M anipulation  |
\*---------------------------------------------------------------------------*/
FoamFile
{
    version     2.0;
    format      ascii;
    class       volVectorField;
    location    "2.1";
    object      U;
}
// * * * * * * * * * * * * * * * * * * * * * * * * * * * * * * * * * * * * * //

dimensions      [0 1 -1 0 0 0 0];

internalField   nonuniform List<vector> 
18432
(
(3 1.61567e-18 0)
(3 -7.13978e-18 0)
(3 -7.46949e-17 0)
(3 4.25356e-17 0)
(3 -4.07635e-17 0)
(3 5.64249e-17 0)
(3 1.41666e-16 0)
(3 -3.85174e-16 0)
(3 -1.15861e-15 0)
(3 -1.12013e-15 0)
(3 -1.24577e-15 0)
(3 -1.10268e-15 0)
(3 -3.66021e-16 0)
(3 4.46489e-16 0)
(3 -1.07379e-16 0)
(3 -8.13846e-16 0)
(3 -8.10888e-16 0)
(3 -9.42722e-16 0)
(3 -2.0266e-15 0)
(3 -2.19485e-15 0)
(3 -1.98103e-15 0)
(3 -1.08873e-15 0)
(3 -5.18182e-16 0)
(3 -8.12058e-17 0)
(3 2.17422e-16 0)
(3 3.589e-16 0)
(3 3.53423e-16 0)
(3 -1.61666e-16 0)
(3 6.44691e-16 0)
(3 8.23087e-16 0)
(3 4.9852e-16 0)
(3 -1.39515e-16 0)
(3 -2.33539e-16 0)
(3 -3.34546e-16 0)
(3 1.11641e-16 0)
(3 3.11419e-16 0)
(3 5.91412e-16 0)
(3 9.90065e-16 0)
(3 1.11071e-15 0)
(3 1.12635e-15 0)
(3 8.31157e-16 0)
(3 5.91142e-16 0)
(3 9.58024e-16 0)
(3 1.21636e-15 0)
(3 1.39297e-15 0)
(3 1.67975e-15 0)
(3 1.073e-15 0)
(3 -1.45283e-16 0)
(3 3.1008e-17 0)
(3 2.35675e-18 0)
(3 1.97723e-16 0)
(3 3.49097e-16 0)
(3 2.83987e-17 0)
(3 -2.28015e-16 0)
(3 -9.0415e-16 0)
(3 -1.27682e-15 0)
(3 -2.02794e-15 0)
(3 -1.64819e-15 0)
(3 -1.57404e-15 0)
(3 -1.51438e-15 0)
(3 -9.12261e-16 0)
(3 1.13169e-17 0)
(3 1.31836e-16 0)
(3 -1.53771e-15 0)
(3 -2.00518e-15 0)
(3 -1.52241e-15 0)
(3 -1.48632e-15 0)
(3 -1.84207e-15 0)
(3 -1.80773e-15 0)
(3 -1.76109e-15 0)
(3 -9.44188e-16 0)
(3 -4.31972e-16 0)
(3 -2.03909e-16 0)
(3 5.44405e-16 0)
(3 3.45626e-16 0)
(3 7.19519e-16 0)
(3 2.85563e-15 0)
(3 2.78793e-15 0)
(3 1.8003e-15 0)
(3 -2.61626e-17 0)
(3 -2.30685e-16 0)
(3 -1.14896e-16 0)
(3 7.45849e-16 0)
(3 8.14134e-16 0)
(3 7.29788e-16 0)
(3 3.60251e-16 0)
(3 4.99742e-16 0)
(3 1.46732e-15 0)
(3 2.10543e-15 0)
(3 1.89092e-15 0)
(3 1.76571e-15 0)
(3 1.89132e-15 0)
(3 2.14645e-15 0)
(3 1.90077e-15 0)
(3 8.53181e-16 0)
(3 -2.68349e-16 0)
(3 1.6736e-18 0)
(3 3.3096e-17 0)
(3 2.82621e-16 0)
(3 2.32521e-16 0)
(3 -3.46517e-16 0)
(3 -1.11249e-15 0)
(3 -1.15591e-15 0)
(3 -1.06959e-15 0)
(3 -5.7655e-16 0)
(3 -3.68711e-16 0)
(3 -3.11913e-16 0)
(3 -2.58623e-16 0)
(3 -7.35654e-16 0)
(3 -1.68522e-16 0)
(3 2.23573e-17 0)
(3 3.1566e-17 0)
(3 -3.08633e-16 0)
(3 -6.76077e-16 0)
(3 -9.89744e-16 0)
(3 -8.72689e-16 0)
(3 -4.53864e-17 0)
(3 2.08504e-16 0)
(3 3.33806e-16 0)
(3 9.72099e-16 0)
(3 9.29695e-16 0)
(3 9.62946e-16 0)
(3 1.02959e-15 0)
(3 1.33263e-15 0)
(3 1.67815e-15 0)
(3 1.73326e-15 0)
(3 1.37717e-15 0)
(3 1.69716e-15 0)
(3 1.69777e-15 0)
(3 1.29409e-15 0)
(3 7.60733e-16 0)
(3 -1.08478e-16 0)
(3 -3.71744e-16 0)
(3 -3.03454e-16 0)
(3 -3.53411e-16 0)
(3 9.61541e-16 0)
(3 2.20935e-15 0)
(3 2.12483e-15 0)
(3 1.82012e-15 0)
(3 1.68506e-15 0)
(3 1.67418e-15 0)
(3 6.31108e-16 0)
(3 -3.00735e-16 0)
(3 -3.1393e-16 0)
(3 5.09356e-17 0)
(3 2.92131e-16 0)
(3 1.65331e-16 0)
(3 -1.71333e-16 0)
(3 -8.83385e-16 0)
(3 -1.00149e-15 0)
(3 -6.98479e-16 0)
(3 -9.05495e-16 0)
(3 -4.60298e-16 0)
(3 -2.81473e-16 0)
(3 -2.13867e-16 0)
(3 4.24398e-16 0)
(3 2.02028e-16 0)
(3 -1.72085e-16 0)
(3 -6.94599e-16 0)
(3 -1.34298e-16 0)
(3 -7.07195e-18 0)
(3 -9.46954e-16 0)
(3 -2.64601e-15 0)
(3 -2.13765e-15 0)
(3 -1.82353e-15 0)
(3 -3.71619e-16 0)
(3 -1.2466e-16 0)
(3 3.29147e-16 0)
(3 1.49563e-15 0)
(3 1.32952e-15 0)
(3 9.09365e-16 0)
(3 1.23346e-15 0)
(3 6.87796e-16 0)
(3 1.07103e-15 0)
(3 8.21866e-16 0)
(3 -1.0304e-18 0)
(3 -2.5611e-17 0)
(3 -1.03966e-16 0)
(3 -1.83594e-15 0)
(3 -2.19043e-15 0)
(3 -1.59042e-15 0)
(3 -4.83783e-16 0)
(3 4.38649e-16 0)
(3 1.31757e-15 0)
(3 1.47333e-15 0)
(3 2.07348e-15 0)
(3 2.92525e-15 0)
(3 3.17039e-15 0)
(3 2.85148e-15 0)
(3 1.58263e-15 0)
(3 7.22365e-16 0)
(3 4.21199e-16 0)
(3 -5.13076e-17 0)
(3 5.83941e-18 0)
(3 -2.75544e-16 0)
(3 -1.6769e-16 0)
(3 -1.69101e-16 0)
(3 1.04846e-16 0)
(3 9.61205e-17 0)
(3 -8.84884e-17 0)
(3 -6.3418e-17 0)
(3 2.72165e-16 0)
(3 1.87044e-16 0)
(3 1.7609e-16 0)
(3 1.24811e-17 0)
(3 -8.03582e-16 0)
(3 -5.79377e-16 0)
(3 -9.31462e-17 0)
(3 -2.32061e-16 0)
(3 -2.60692e-15 0)
(3 -3.48377e-15 0)
(3 -1.59184e-15 0)
(3 -1.28506e-15 0)
(3 -6.49534e-16 0)
(3 -4.13014e-16 0)
(3 -4.59289e-16 0)
(3 -1.04056e-16 0)
(3 1.69013e-17 0)
(3 -1.5602e-16 0)
(3 -7.71958e-17 0)
(3 3.89562e-17 0)
(3 7.92693e-16 0)
(3 2.04646e-16 0)
(3 -8.1953e-16 0)
(3 -1.285e-15 0)
(3 -1.25539e-15 0)
(3 -1.23341e-15 0)
(3 -1.34883e-15 0)
(3 -6.3898e-16 0)
(3 -1.53294e-16 0)
(3 -1.25075e-16 0)
(3 1.37526e-15 0)
(3 1.64869e-15 0)
(3 2.15173e-15 0)
(3 1.84993e-15 0)
(3 2.37108e-15 0)
(3 2.44868e-15 0)
(3 2.40784e-15 0)
(3 2.23194e-15 0)
(3 2.05804e-15 0)
(3 -1.49146e-16 0)
(3 -4.10698e-16 0)
(3 -4.22164e-16 0)
(3 -2.22365e-16 0)
(3 5.28577e-16 0)
(3 1.27856e-15 0)
(3 1.48093e-15 0)
(3 1.58303e-15 0)
(3 1.14701e-15 0)
(3 1.74345e-16 0)
(3 -9.73964e-17 0)
(3 -6.23614e-16 0)
(3 1.18426e-16 0)
(3 3.24142e-16 0)
(3 2.33222e-16 0)
(3 2.44159e-16 0)
(3 -7.00315e-16 0)
(3 -1.62603e-16 0)
(3 1.26757e-15 0)
(3 1.09904e-15 0)
(3 5.76282e-16 0)
(3 -3.45064e-16 0)
(3 -1.04663e-15 0)
(3 -2.38932e-15 0)
(3 -3.82868e-15 0)
(3 -4.14531e-15 0)
(3 -1.57895e-15 0)
(3 -9.42234e-16 0)
(3 -3.41072e-16 0)
(3 5.3251e-16 0)
(3 3.61229e-16 0)
(3 5.65895e-16 0)
(3 4.27639e-16 0)
(3 3.97159e-16 0)
(3 6.26006e-16 0)
(3 -2.50027e-16 0)
(3 -8.22227e-16 0)
(3 -2.58295e-17 0)
(3 7.66509e-16 0)
(3 2.66216e-15 0)
(3 2.57103e-15 0)
(3 1.8855e-15 0)
(3 2.06e-15 0)
(3 2.2016e-15 0)
(3 2.47954e-15 0)
(3 1.72889e-15 0)
(3 2.43217e-15 0)
(3 2.54016e-15 0)
(3 -5.9544e-18 0)
(3 7.26551e-17 0)
(3 2.44199e-16 0)
(3 3.32831e-16 0)
(3 9.00536e-16 0)
(3 1.36568e-15 0)
(3 1.55203e-15 0)
(3 1.12695e-15 0)
(3 5.69419e-16 0)
(3 -6.19127e-16 0)
(3 -9.97125e-16 0)
(3 -3.54492e-16 0)
(3 7.49271e-16 0)
(3 9.54468e-16 0)
(3 1.09931e-15 0)
(3 3.1082e-16 0)
(3 -2.40556e-16 0)
(3 5.07342e-16 0)
(3 3.67703e-16 0)
(3 2.49011e-16 0)
(3 6.89614e-16 0)
(3 3.11383e-16 0)
(3 -1.39244e-15 0)
(3 -2.56411e-15 0)
(3 -3.70742e-15 0)
(3 -4.1563e-15 0)
(3 -4.31951e-15 0)
(3 -2.32844e-15 0)
(3 -1.33588e-16 0)
(3 8.18831e-16 0)
(3 1.57568e-15 0)
(3 1.19746e-15 0)
(3 6.02028e-16 0)
(3 6.95795e-16 0)
(3 5.06119e-16 0)
(3 -9.5651e-18 0)
(3 -3.49804e-16 0)
(3 2.66846e-16 0)
(3 1.99837e-15 0)
(3 1.82718e-15 0)
(3 1.14707e-15 0)
(3 4.90535e-17 0)
(3 1.62928e-15 0)
(3 1.91297e-15 0)
(3 1.45074e-15 0)
(3 1.19839e-15 0)
(3 9.16263e-16 0)
(3 -1.129e-16 0)
(3 5.00296e-17 0)
(3 5.03459e-16 0)
(3 4.12427e-16 0)
(3 5.09951e-16 0)
(3 3.08447e-16 0)
(3 -5.05346e-16 0)
(3 -4.40566e-16 0)
(3 6.49908e-16 0)
(3 1.05833e-15 0)
(3 7.38643e-16 0)
(3 -5.06478e-16 0)
(3 -3.25253e-16 0)
(3 5.16395e-16 0)
(3 5.67915e-16 0)
(3 5.03341e-16 0)
(3 5.44691e-17 0)
(3 1.97793e-16 0)
(3 -1.86788e-16 0)
(3 -4.65651e-16 0)
(3 -2.69892e-16 0)
(3 -1.69474e-16 0)
(3 -2.97555e-16 0)
(3 -4.93205e-16 0)
(3 -2.62893e-16 0)
(3 -5.27814e-16 0)
(3 -1.40107e-15 0)
(3 -2.71075e-15 0)
(3 -2.81308e-15 0)
(3 -2.00806e-15 0)
(3 8.78928e-17 0)
(3 8.13237e-16 0)
(3 2.21815e-16 0)
(3 -3.00855e-16 0)
(3 -4.32303e-16 0)
(3 -8.03862e-16 0)
(3 -3.53431e-16 0)
(3 3.36453e-16 0)
(3 7.14328e-16 0)
(3 4.87517e-16 0)
(3 3.79073e-16 0)
(3 8.00782e-16 0)
(3 5.67143e-16 0)
(3 5.97197e-16 0)
(3 1.03719e-15 0)
(3 9.40863e-16 0)
(3 7.68286e-16 0)
(3 -1.46325e-16 0)
(3 -6.01568e-16 0)
(3 -1.3865e-18 0)
(3 -2.36475e-16 0)
(3 6.21916e-17 0)
(3 3.97729e-16 0)
(3 -6.86373e-17 0)
(3 -4.51114e-16 0)
(3 -5.17125e-16 0)
(3 1.50525e-16 0)
(3 1.42052e-15 0)
(3 1.8771e-15 0)
(3 1.34331e-15 0)
(3 8.83644e-16 0)
(3 -5.54507e-16 0)
(3 -8.25709e-16 0)
(3 -1.52571e-15 0)
(3 -1.43332e-15 0)
(3 -3.32513e-16 0)
(3 1.06425e-15 0)
(3 1.32314e-15 0)
(3 1.09876e-15 0)
(3 2.49118e-16 0)
(3 -3.11935e-16 0)
(3 1.18805e-16 0)
(3 -1.10348e-16 0)
(3 8.05906e-17 0)
(3 5.68652e-16 0)
(3 -3.51983e-16 0)
(3 -1.21502e-15 0)
(3 -1.29239e-15 0)
(3 -8.6034e-16 0)
(3 -1.49065e-16 0)
(3 5.60767e-16 0)
(3 1.30394e-15 0)
(3 1.61672e-15 0)
(3 9.09047e-16 0)
(3 6.37059e-16 0)
(3 -2.24175e-16 0)
(3 -1.54781e-16 0)
(3 2.63909e-16 0)
(3 1.00429e-15 0)
(3 1.59231e-15 0)
(3 1.98708e-15 0)
(3 1.90806e-15 0)
(3 1.85507e-15 0)
(3 1.69929e-15 0)
(3 3.72594e-16 0)
(3 -4.08016e-16 0)
(3 -7.29557e-17 0)
(3 -1.95626e-16 0)
(3 -8.18207e-16 0)
(3 -6.27664e-16 0)
(3 -5.98455e-16 0)
(3 -2.49255e-16 0)
(3 -4.03524e-16 0)
(3 -1.22832e-15 0)
(3 -1.74511e-15 0)
(3 5.52859e-16 0)
(3 1.32055e-15 0)
(3 1.81748e-15 0)
(3 1.85659e-15 0)
(3 1.64277e-15 0)
(3 -1.32945e-16 0)
(3 -9.91342e-16 0)
(3 -1.72993e-15 0)
(3 -1.51373e-15 0)
(3 -2.11464e-16 0)
(3 1.20307e-15 0)
(3 1.168e-15 0)
(3 6.72854e-16 0)
(3 -9.78393e-16 0)
(3 -1.26624e-15 0)
(3 -1.23929e-15 0)
(3 -6.33915e-16 0)
(3 5.81493e-16 0)
(3 1.40053e-17 0)
(3 -8.56517e-16 0)
(3 -1.17626e-15 0)
(3 -3.44523e-16 0)
(3 4.49458e-16 0)
(3 2.20645e-15 0)
(3 3.83948e-15 0)
(3 4.03911e-15 0)
(3 3.93407e-15 0)
(3 2.94969e-15 0)
(3 1.95553e-15 0)
(3 1.22401e-15 0)
(3 1.26459e-15 0)
(3 1.55465e-15 0)
(3 2.40424e-15 0)
(3 3.20024e-15 0)
(3 2.94807e-15 0)
(3 2.75225e-15 0)
(3 1.06162e-15 0)
(3 -2.39516e-16 0)
(3 -7.07272e-16 0)
(3 -1.0556e-15 0)
(3 -1.21538e-17 0)
(3 6.53535e-17 0)
(3 -7.33908e-17 0)
(3 -3.4701e-16 0)
(3 -3.8399e-16 0)
(3 -7.98971e-16 0)
(3 -8.48982e-16 0)
(3 -3.84096e-16 0)
(3 1.57527e-17 0)
(3 -1.45168e-16 0)
(3 -2.16609e-16 0)
(3 -3.81524e-16 0)
(3 -7.58971e-16 0)
(3 -1.28921e-15 0)
(3 -4.02175e-16 0)
(3 -9.08198e-17 0)
(3 -3.26686e-16 0)
(3 -1.43575e-16 0)
(3 7.85676e-16 0)
(3 7.66587e-16 0)
(3 9.61923e-16 0)
(3 5.56963e-16 0)
(3 -1.13249e-15 0)
(3 -1.28329e-15 0)
(3 -9.07961e-16 0)
(3 -2.3929e-16 0)
(3 1.04142e-15 0)
(3 1.46901e-15 0)
(3 9.61096e-16 0)
(3 6.39805e-16 0)
(3 4.46741e-16 0)
(3 7.63948e-16 0)
(3 1.65157e-15 0)
(3 2.8765e-15 0)
(3 3.40768e-15 0)
(3 3.60569e-15 0)
(3 3.06873e-15 0)
(3 3.02211e-15 0)
(3 3.07567e-15 0)
(3 2.73528e-15 0)
(3 2.64184e-15 0)
(3 2.61554e-15 0)
(3 1.35111e-15 0)
(3 1.1798e-15 0)
(3 2.06044e-16 0)
(3 -1.11528e-15 0)
(3 -1.60046e-15 0)
(3 -1.45538e-15 0)
(3 3.91986e-16 0)
(3 5.84458e-16 0)
(3 5.98165e-16 0)
(3 5.57887e-17 0)
(3 -5.88675e-16 0)
(3 -3.64865e-16 0)
(3 -2.19009e-16 0)
(3 -1.74788e-16 0)
(3 5.38576e-17 0)
(3 -9.6025e-16 0)
(3 -1.05721e-15 0)
(3 -1.08903e-15 0)
(3 -1.38251e-15 0)
(3 -1.80277e-15 0)
(3 -7.4351e-16 0)
(3 -1.95456e-16 0)
(3 1.89801e-16 0)
(3 -1.73364e-16 0)
(3 7.37703e-18 0)
(3 6.35571e-16 0)
(3 1.0768e-15 0)
(3 1.16225e-15 0)
(3 3.56563e-16 0)
(3 -6.91128e-16 0)
(3 -9.57233e-16 0)
(3 -3.25382e-16 0)
(3 8.40941e-16 0)
(3 1.37562e-15 0)
(3 1.02286e-15 0)
(3 -3.43362e-17 0)
(3 -1.1512e-15 0)
(3 -2.0659e-15 0)
(3 -2.24788e-15 0)
(3 -8.93765e-16 0)
(3 3.43908e-16 0)
(3 1.9388e-15 0)
(3 2.5448e-15 0)
(3 2.62818e-15 0)
(3 2.4454e-15 0)
(3 2.54373e-15 0)
(3 2.02227e-15 0)
(3 1.1459e-15 0)
(3 6.89343e-16 0)
(3 4.0639e-16 0)
(3 3.93916e-16 0)
(3 3.11353e-17 0)
(3 3.06871e-16 0)
(3 6.50866e-16 0)
(3 1.06665e-18 0)
(3 -6.0517e-17 0)
(3 -5.74372e-17 0)
(3 -1.96671e-16 0)
(3 -2.97937e-16 0)
(3 -3.56669e-16 0)
(3 -5.55814e-16 0)
(3 -9.48661e-16 0)
(3 -1.08973e-15 0)
(3 -3.36592e-16 0)
(3 -6.05684e-16 0)
(3 -1.01343e-15 0)
(3 -1.17975e-15 0)
(3 -1.51764e-15 0)
(3 -1.26047e-15 0)
(3 -6.739e-16 0)
(3 -7.0249e-16 0)
(3 -1.60626e-15 0)
(3 -1.16578e-15 0)
(3 4.94965e-16 0)
(3 2.18982e-15 0)
(3 1.39055e-15 0)
(3 -6.73153e-16 0)
(3 -2.13368e-15 0)
(3 -1.96069e-15 0)
(3 -8.45791e-16 0)
(3 -2.19782e-16 0)
(3 -2.68041e-16 0)
(3 -2.36173e-16 0)
(3 -3.83327e-16 0)
(3 3.89377e-16 0)
(3 -9.81715e-16 0)
(3 -1.4873e-15 0)
(3 -1.32439e-15 0)
(3 -6.21758e-16 0)
(3 1.04003e-15 0)
(3 2.23446e-15 0)
(3 2.28848e-15 0)
(3 8.58029e-16 0)
(3 6.7311e-16 0)
(3 -1.46336e-16 0)
(3 -7.31436e-16 0)
(3 -6.50869e-16 0)
(3 7.71654e-17 0)
(3 8.02804e-16 0)
(3 1.16909e-15 0)
(3 8.7965e-16 0)
(3 4.53017e-16 0)
(3 -2.36619e-16 0)
(3 -7.72267e-16 0)
(3 -7.42009e-16 0)
(3 -3.04148e-16 0)
(3 2.2294e-16 0)
(3 6.80689e-16 0)
(3 5.08126e-16 0)
(3 -7.06681e-17 0)
(3 -1.03883e-15 0)
(3 -1.37844e-15 0)
(3 -1.13501e-15 0)
(3 -1.05455e-15 0)
(3 -1.17471e-15 0)
(3 -4.34438e-16 0)
(3 -2.34161e-16 0)
(3 -3.48722e-16 0)
(3 -7.12914e-16 0)
(3 -4.46446e-17 0)
(3 -1.51399e-16 0)
(3 -9.53376e-18 0)
(3 1.51907e-15 0)
(3 9.22213e-16 0)
(3 -4.35621e-17 0)
(3 -3.30007e-16 0)
(3 -1.11001e-16 0)
(3 -1.95557e-16 0)
(3 2.42682e-17 0)
(3 1.61304e-16 0)
(3 1.80979e-16 0)
(3 8.69317e-17 0)
(3 5.04849e-16 0)
(3 8.71397e-17 0)
(3 1.99196e-16 0)
(3 -3.84524e-16 0)
(3 -3.81273e-16 0)
(3 -2.672e-16 0)
(3 4.29068e-16 0)
(3 6.27699e-16 0)
(3 -1.06329e-16 0)
(3 -1.08234e-15 0)
(3 -1.97017e-15 0)
(3 -1.04145e-15 0)
(3 -3.62053e-16 0)
(3 3.3967e-17 0)
(3 6.04733e-16 0)
(3 1.90235e-15 0)
(3 1.60309e-15 0)
(3 1.32432e-15 0)
(3 -3.63332e-17 0)
(3 -2.86611e-17 0)
(3 -3.50998e-16 0)
(3 3.02726e-16 0)
(3 1.03193e-15 0)
(3 1.55168e-15 0)
(3 1.55798e-15 0)
(3 5.11421e-16 0)
(3 -7.51626e-16 0)
(3 -1.12246e-15 0)
(3 -1.10734e-15 0)
(3 -4.99577e-16 0)
(3 1.88025e-16 0)
(3 6.77e-16 0)
(3 -1.19672e-16 0)
(3 -2.99877e-16 0)
(3 -5.35343e-16 0)
(3 -2.27996e-16 0)
(3 -1.45185e-16 0)
(3 -2.71341e-16 0)
(3 -4.87308e-16 0)
(3 -1.59166e-16 0)
(3 2.29635e-15 0)
(3 3.06817e-15 0)
(3 3.04325e-15 0)
(3 1.67349e-15 0)
(3 1.25437e-15 0)
(3 1.09224e-15 0)
(3 2.53379e-16 0)
(3 -5.29844e-16 0)
(3 -1.352e-15 0)
(3 -5.139e-16 0)
(3 -6.75777e-16 0)
(3 -3.77132e-16 0)
(3 -3.25566e-16 0)
(3 -1.41056e-15 0)
(3 -1.38702e-15 0)
(3 -1.76502e-15 0)
(3 -1.58416e-15 0)
(3 -1.87066e-15 0)
(3 -2.05125e-15 0)
(3 -9.0222e-16 0)
(3 2.20302e-16 0)
(3 2.68364e-16 0)
(3 5.22514e-16 0)
(3 1.77796e-15 0)
(3 2.72e-15 0)
(3 2.84888e-15 0)
(3 1.00142e-16 0)
(3 3.38174e-16 0)
(3 5.94719e-16 0)
(3 6.76423e-16 0)
(3 8.17937e-16 0)
(3 5.98376e-16 0)
(3 1.1911e-15 0)
(3 2.63771e-16 0)
(3 -3.30321e-16 0)
(3 -4.00459e-16 0)
(3 -1.03514e-15 0)
(3 3.73487e-16 0)
(3 1.23344e-15 0)
(3 1.3896e-15 0)
(3 1.61017e-15 0)
(3 1.61293e-15 0)
(3 1.68251e-16 0)
(3 -1.50219e-15 0)
(3 -2.17386e-15 0)
(3 -2.69617e-15 0)
(3 -2.92851e-15 0)
(3 -2.39285e-15 0)
(3 1.15839e-15 0)
(3 2.37208e-15 0)
(3 2.42938e-15 0)
(3 3.2513e-15 0)
(3 3.61648e-15 0)
(3 2.45552e-15 0)
(3 8.52264e-16 0)
(3 8.72928e-17 0)
(3 -3.42406e-16 0)
(3 -1.15404e-15 0)
(3 -1.08645e-15 0)
(3 -7.0585e-16 0)
(3 -1.29019e-15 0)
(3 -2.19779e-15 0)
(3 -2.37877e-15 0)
(3 -2.17241e-15 0)
(3 -2.28528e-15 0)
(3 -2.36742e-15 0)
(3 -2.00867e-15 0)
(3 -1.61786e-15 0)
(3 -6.62301e-16 0)
(3 -5.05258e-16 0)
(3 -1.45207e-16 0)
(3 3.67594e-16 0)
(3 8.99946e-16 0)
(3 8.43729e-16 0)
(3 3.17598e-17 0)
(3 2.12687e-16 0)
(3 3.13894e-16 0)
(3 3.62175e-16 0)
(3 1.719e-16 0)
(3 -4.53061e-16 0)
(3 -2.39106e-16 0)
(3 -2.4369e-16 0)
(3 -5.47571e-16 0)
(3 -9.25138e-16 0)
(3 -1.12899e-15 0)
(3 -3.42185e-16 0)
(3 1.89857e-16 0)
(3 7.9808e-16 0)
(3 1.79601e-15 0)
(3 1.90554e-15 0)
(3 8.8216e-16 0)
(3 1.43112e-16 0)
(3 -9.97483e-16 0)
(3 -3.1262e-15 0)
(3 -3.84043e-15 0)
(3 -3.56064e-15 0)
(3 -5.70459e-16 0)
(3 2.96127e-16 0)
(3 5.04245e-16 0)
(3 1.22066e-15 0)
(3 1.44931e-15 0)
(3 1.4329e-15 0)
(3 1.74336e-15 0)
(3 1.87448e-15 0)
(3 1.23211e-15 0)
(3 2.09244e-16 0)
(3 -4.04381e-16 0)
(3 -1.40039e-15 0)
(3 -2.13479e-15 0)
(3 -1.83228e-15 0)
(3 -2.0267e-15 0)
(3 -1.98995e-15 0)
(3 -1.81699e-15 0)
(3 -1.62078e-15 0)
(3 -1.932e-15 0)
(3 -2.1876e-15 0)
(3 -1.45044e-15 0)
(3 -9.59732e-16 0)
(3 -2.99606e-16 0)
(3 2.53931e-18 0)
(3 2.40987e-16 0)
(3 2.17482e-16 0)
(3 3.50345e-17 0)
(3 2.21114e-16 0)
(3 1.2008e-16 0)
(3 1.67212e-16 0)
(3 -4.03101e-16 0)
(3 -8.00877e-16 0)
(3 -1.47637e-15 0)
(3 -3.88246e-16 0)
(3 -1.91852e-16 0)
(3 -2.59226e-16 0)
(3 -1.69474e-16 0)
(3 -2.02508e-16 0)
(3 3.79115e-16 0)
(3 6.92821e-16 0)
(3 2.97338e-16 0)
(3 5.10413e-16 0)
(3 6.71286e-16 0)
(3 1.21019e-16 0)
(3 -2.12956e-16 0)
(3 -1.97008e-15 0)
(3 -2.86437e-15 0)
(3 -2.56088e-15 0)
(3 -1.8102e-15 0)
(3 -1.0638e-15 0)
(3 -1.33339e-15 0)
(3 -1.78927e-15 0)
(3 -2.31529e-15 0)
(3 -2.18422e-15 0)
(3 -7.95181e-16 0)
(3 2.72442e-16 0)
(3 1.14532e-15 0)
(3 -3.56385e-16 0)
(3 -1.44594e-15 0)
(3 -1.93615e-15 0)
(3 -1.81794e-15 0)
(3 -1.72755e-15 0)
(3 -1.74597e-15 0)
(3 -2.11525e-15 0)
(3 -1.54179e-15 0)
(3 -1.13436e-15 0)
(3 -1.30705e-15 0)
(3 -1.25098e-15 0)
(3 -7.9679e-16 0)
(3 -2.21408e-16 0)
(3 7.96603e-16 0)
(3 1.04721e-15 0)
(3 1.13704e-15 0)
(3 8.84113e-16 0)
(3 2.01877e-17 0)
(3 1.69208e-16 0)
(3 -1.14588e-16 0)
(3 -8.97902e-16 0)
(3 -9.30201e-16 0)
(3 -7.42286e-16 0)
(3 -1.0017e-15 0)
(3 -9.71547e-16 0)
(3 3.11082e-16 0)
(3 1.00546e-15 0)
(3 1.32658e-15 0)
(3 4.95769e-16 0)
(3 5.51832e-16 0)
(3 1.73392e-15 0)
(3 1.21218e-15 0)
(3 1.56474e-15 0)
(3 1.6245e-15 0)
(3 1.32473e-15 0)
(3 1.46018e-15 0)
(3 6.06172e-17 0)
(3 1.57983e-17 0)
(3 -6.53117e-16 0)
(3 -7.77425e-16 0)
(3 -7.25398e-16 0)
(3 -2.37767e-16 0)
(3 -1.68698e-16 0)
(3 -6.83647e-16 0)
(3 -5.43531e-16 0)
(3 -1.87653e-16 0)
(3 3.93667e-16 0)
(3 7.46066e-16 0)
(3 -1.07077e-19 0)
(3 -1.7935e-15 0)
(3 -2.51172e-15 0)
(3 -2.33851e-15 0)
(3 -2.03218e-15 0)
(3 -1.81185e-15 0)
(3 -5.99586e-16 0)
(3 -1.23445e-16 0)
(3 -4.51416e-16 0)
(3 -7.76462e-16 0)
(3 -1.03175e-15 0)
(3 -1.08521e-15 0)
(3 -4.66422e-16 0)
(3 -2.81247e-16 0)
(3 5.0798e-16 0)
(3 1.12316e-15 0)
(3 1.20819e-15 0)
(3 -8.33222e-17 0)
(3 1.17304e-16 0)
(3 -1.0075e-16 0)
(3 -3.88209e-16 0)
(3 -4.55869e-16 0)
(3 -6.11015e-17 0)
(3 4.80803e-17 0)
(3 -1.56516e-17 0)
(3 7.9047e-16 0)
(3 8.61276e-16 0)
(3 1.29866e-15 0)
(3 1.35839e-15 0)
(3 6.80678e-16 0)
(3 1.70893e-15 0)
(3 1.8215e-15 0)
(3 2.51551e-15 0)
(3 2.68594e-15 0)
(3 2.44987e-15 0)
(3 3.04422e-15 0)
(3 2.47294e-15 0)
(3 1.75758e-15 0)
(3 1.42849e-15 0)
(3 1.48078e-15 0)
(3 1.00731e-15 0)
(3 7.30471e-16 0)
(3 -2.43737e-16 0)
(3 -4.40578e-16 0)
(3 -2.77832e-16 0)
(3 -7.30458e-16 0)
(3 -1.22105e-15 0)
(3 -1.2419e-15 0)
(3 -1.29996e-15 0)
(3 -1.67686e-15 0)
(3 -2.30426e-15 0)
(3 -2.20609e-15 0)
(3 -1.93118e-15 0)
(3 -1.79021e-15 0)
(3 -4.77396e-16 0)
(3 -3.45721e-16 0)
(3 -4.30239e-16 0)
(3 -1.04471e-15 0)
(3 -1.01946e-15 0)
(3 -2.85013e-16 0)
(3 -6.19958e-16 0)
(3 -9.83565e-16 0)
(3 -1.56099e-15 0)
(3 -5.1558e-16 0)
(3 1.06937e-17 0)
(3 -8.89776e-17 0)
(3 -3.29454e-16 0)
(3 -2.01335e-16 0)
(3 -3.39784e-16 0)
(3 -6.07212e-17 0)
(3 2.27087e-16 0)
(3 6.48575e-16 0)
(3 1.34767e-15 0)
(3 1.4258e-15 0)
(3 1.09155e-15 0)
(3 1.1551e-15 0)
(3 1.7154e-15 0)
(3 2.25907e-15 0)
(3 5.46603e-16 0)
(3 -4.33432e-16 0)
(3 -1.04002e-15 0)
(3 -1.02919e-15 0)
(3 -9.72454e-16 0)
(3 2.5745e-18 0)
(3 9.71416e-16 0)
(3 8.77091e-16 0)
(3 1.53162e-15 0)
(3 2.14819e-15 0)
(3 1.9387e-15 0)
(3 1.41564e-15 0)
(3 -2.46959e-16 0)
(3 -1.04611e-15 0)
(3 -1.27749e-15 0)
(3 -1.87957e-15 0)
(3 -2.4773e-15 0)
(3 -2.74144e-15 0)
(3 -2.13812e-15 0)
(3 -1.15588e-15 0)
(3 -5.28357e-16 0)
(3 5.5129e-16 0)
(3 3.20644e-16 0)
(3 -1.50363e-16 0)
(3 -1.00497e-15 0)
(3 -2.10726e-15 0)
(3 -2.04066e-15 0)
(3 -1.88332e-15 0)
(3 -1.95385e-15 0)
(3 -1.4007e-16 0)
(3 3.35347e-17 0)
(3 -1.9764e-16 0)
(3 1.30595e-16 0)
(3 7.97511e-17 0)
(3 3.46125e-16 0)
(3 9.43806e-17 0)
(3 -4.45805e-17 0)
(3 -2.82398e-16 0)
(3 -6.39514e-16 0)
(3 8.66877e-17 0)
(3 2.83723e-16 0)
(3 8.60809e-16 0)
(3 1.53906e-15 0)
(3 1.53531e-15 0)
(3 9.93921e-16 0)
(3 6.1332e-16 0)
(3 8.08423e-16 0)
(3 9.03087e-16 0)
(3 2.82231e-16 0)
(3 -1.89933e-16 0)
(3 -1.49016e-15 0)
(3 -2.36648e-15 0)
(3 -2.65595e-15 0)
(3 -1.67142e-15 0)
(3 -6.83806e-16 0)
(3 -1.65882e-16 0)
(3 1.96582e-16 0)
(3 1.97469e-16 0)
(3 4.7159e-16 0)
(3 4.11164e-16 0)
(3 2.99409e-16 0)
(3 -1.32847e-15 0)
(3 -1.91727e-15 0)
(3 -1.80328e-15 0)
(3 -1.40009e-15 0)
(3 -1.58769e-15 0)
(3 -1.74183e-15 0)
(3 -1.82496e-15 0)
(3 -1.52682e-15 0)
(3 -1.53631e-15 0)
(3 -1.1513e-15 0)
(3 -6.01213e-16 0)
(3 -9.69021e-16 0)
(3 -1.44652e-15 0)
(3 -1.40164e-15 0)
(3 -1.21246e-15 0)
(3 -7.40868e-16 0)
(3 -4.68293e-16 0)
(3 -3.02424e-16 0)
(3 -3.08187e-16 0)
(3 3.13483e-16 0)
(3 5.44569e-16 0)
(3 2.87114e-16 0)
(3 2.14302e-17 0)
(3 1.56685e-16 0)
(3 -5.12856e-17 0)
(3 1.69323e-16 0)
(3 2.39157e-16 0)
(3 2.69067e-16 0)
(3 1.20657e-15 0)
(3 8.9413e-16 0)
(3 -1.87728e-17 0)
(3 3.13164e-18 0)
(3 3.62497e-17 0)
(3 -6.14827e-18 0)
(3 -8.74506e-17 0)
(3 -1.75079e-17 0)
(3 -9.03851e-18 0)
(3 -1.67084e-16 0)
(3 -1.09814e-15 0)
(3 -8.6388e-16 0)
(3 -6.86035e-16 0)
(3 4.7579e-17 0)
(3 1.28069e-15 0)
(3 1.16851e-15 0)
(3 4.05874e-16 0)
(3 -1.684e-16 0)
(3 1.39671e-16 0)
(3 1.01618e-15 0)
(3 8.04416e-16 0)
(3 1.27105e-15 0)
(3 1.55861e-15 0)
(3 2.05313e-15 0)
(3 2.1016e-15 0)
(3 1.39036e-15 0)
(3 3.42833e-16 0)
(3 -1.10704e-15 0)
(3 -1.82764e-15 0)
(3 -1.13821e-15 0)
(3 -5.40666e-16 0)
(3 -7.09015e-16 0)
(3 -7.36805e-16 0)
(3 -5.22688e-17 0)
(3 -1.11448e-16 0)
(3 5.39227e-16 0)
(3 2.19872e-16 0)
(3 3.08181e-16 0)
(3 -6.66351e-16 0)
(3 -9.6488e-16 0)
(3 -5.73645e-16 0)
(3 -3.55277e-16 0)
(3 2.04817e-17 0)
(3 1.60085e-17 0)
(3 1.5568e-17 0)
(3 4.02114e-16 0)
(3 2.26784e-17 0)
(3 -3.72664e-16 0)
(3 -1.01326e-16 0)
(3 -7.70638e-16 0)
(3 -1.16458e-15 0)
(3 -8.37358e-16 0)
(3 1.81916e-16 0)
(3 2.48973e-17 0)
(3 -5.60234e-16 0)
(3 -8.3935e-16 0)
(3 -6.33207e-16 0)
(3 -2.53008e-16 0)
(3 -2.89371e-16 0)
(3 -1.69197e-16 0)
(3 -4.25251e-16 0)
(3 -1.03838e-15 0)
(3 -5.24075e-16 0)
(3 9.07068e-16 0)
(3 1.45301e-15 0)
(3 7.91235e-16 0)
(3 1.54141e-16 0)
(3 1.26025e-15 0)
(3 2.96449e-15 0)
(3 3.89365e-15 0)
(3 4.54567e-15 0)
(3 5.4793e-15 0)
(3 5.20745e-15 0)
(3 3.98671e-15 0)
(3 3.10497e-15 0)
(3 1.35841e-15 0)
(3 -5.44117e-16 0)
(3 -5.05135e-16 0)
(3 -2.67273e-16 0)
(3 -8.38165e-16 0)
(3 -9.26507e-16 0)
(3 -2.93603e-16 0)
(3 -2.41449e-16 0)
(3 -8.18161e-16 0)
(3 -5.25955e-16 0)
(3 -3.8038e-16 0)
(3 -4.45212e-16 0)
(3 -6.84107e-16 0)
(3 -6.8204e-16 0)
(3 -5.91166e-16 0)
(3 1.14493e-16 0)
(3 5.42341e-17 0)
(3 1.84164e-16 0)
(3 2.40747e-16 0)
(3 8.07022e-17 0)
(3 -4.59238e-16 0)
(3 -7.96191e-16 0)
(3 -1.14086e-15 0)
(3 -7.37749e-16 0)
(3 -8.65041e-16 0)
(3 -5.05901e-16 0)
(3 -2.24421e-16 0)
(3 -6.75307e-16 0)
(3 -6.04804e-16 0)
(3 7.70439e-17 0)
(3 1.95735e-16 0)
(3 -2.86097e-16 0)
(3 -4.40175e-16 0)
(3 2.34663e-16 0)
(3 -1.43028e-17 0)
(3 -1.92228e-16 0)
(3 -6.72116e-16 0)
(3 -7.80993e-16 0)
(3 -1.04434e-15 0)
(3 -1.23315e-15 0)
(3 1.04336e-16 0)
(3 1.70981e-15 0)
(3 1.86721e-15 0)
(3 1.33915e-15 0)
(3 1.86055e-15 0)
(3 1.86105e-15 0)
(3 1.52444e-15 0)
(3 1.55218e-15 0)
(3 1.21964e-15 0)
(3 6.38427e-16 0)
(3 7.56016e-17 0)
(3 -2.61319e-16 0)
(3 3.16771e-17 0)
(3 2.78877e-16 0)
(3 3.82809e-16 0)
(3 2.77594e-16 0)
(3 -1.08628e-16 0)
(3 -7.6511e-16 0)
(3 -1.04804e-15 0)
(3 4.33806e-17 0)
(3 4.17863e-16 0)
(3 2.52293e-16 0)
(3 3.37777e-16 0)
(3 -9.11368e-17 0)
(3 -9.18648e-17 0)
(3 7.28299e-17 0)
(3 5.2454e-17 0)
(3 1.23453e-16 0)
(3 4.91931e-16 0)
(3 3.3527e-16 0)
(3 4.48335e-16 0)
(3 1.55357e-16 0)
(3 -2.37588e-16 0)
(3 -7.37351e-16 0)
(3 1.46961e-17 0)
(3 -1.55331e-17 0)
(3 1.82387e-16 0)
(3 -9.60352e-17 0)
(3 -5.67132e-16 0)
(3 1.34151e-16 0)
(3 3.40443e-16 0)
(3 1.59877e-16 0)
(3 -6.49991e-17 0)
(3 4.38265e-16 0)
(3 -3.63292e-16 0)
(3 -1.23095e-15 0)
(3 -1.29081e-15 0)
(3 -1.1214e-15 0)
(3 -2.54555e-16 0)
(3 3.9742e-16 0)
(3 4.23734e-16 0)
(3 -2.28233e-15 0)
(3 -2.84179e-15 0)
(3 -2.14769e-15 0)
(3 -1.16701e-15 0)
(3 -6.10519e-16 0)
(3 9.71174e-16 0)
(3 1.46475e-15 0)
(3 8.12671e-16 0)
(3 -3.89506e-16 0)
(3 1.13127e-15 0)
(3 1.5675e-15 0)
(3 1.11912e-15 0)
(3 1.14635e-15 0)
(3 6.13819e-16 0)
(3 -1.16713e-15 0)
(3 -1.41929e-15 0)
(3 -1.12473e-15 0)
(3 -3.56405e-16 0)
(3 -6.1872e-16 0)
(3 2.70285e-16 0)
(3 -9.44536e-18 0)
(3 1.3432e-17 0)
(3 4.05868e-17 0)
(3 3.56764e-17 0)
(3 3.50188e-16 0)
(3 1.01114e-15 0)
(3 6.56356e-16 0)
(3 8.01969e-16 0)
(3 2.89955e-16 0)
(3 4.78745e-16 0)
(3 6.68945e-16 0)
(3 1.90179e-16 0)
(3 2.21492e-16 0)
(3 1.71627e-16 0)
(3 -5.73667e-16 0)
(3 -4.34905e-16 0)
(3 -3.45092e-17 0)
(3 -1.39489e-17 0)
(3 9.42741e-16 0)
(3 1.41124e-15 0)
(3 5.59984e-16 0)
(3 -6.2772e-16 0)
(3 -8.81097e-16 0)
(3 -4.88005e-16 0)
(3 -8.75388e-17 0)
(3 -8.97183e-17 0)
(3 -3.00665e-16 0)
(3 -1.80025e-15 0)
(3 -2.32521e-15 0)
(3 -2.32258e-15 0)
(3 -2.05326e-15 0)
(3 -1.05904e-15 0)
(3 -1.02817e-15 0)
(3 -9.22521e-16 0)
(3 -2.91128e-16 0)
(3 -3.27392e-16 0)
(3 2.29484e-16 0)
(3 1.34884e-15 0)
(3 1.63657e-15 0)
(3 1.13207e-15 0)
(3 8.52034e-16 0)
(3 2.93842e-16 0)
(3 1.44446e-17 0)
(3 -1.00065e-16 0)
(3 -7.44752e-16 0)
(3 -1.06367e-15 0)
(3 -1.73755e-15 0)
(3 -1.90773e-15 0)
(3 -7.5401e-17 0)
(3 -1.95846e-16 0)
(3 5.99738e-17 0)
(3 1.21298e-16 0)
(3 2.42526e-16 0)
(3 -3.45337e-16 0)
(3 -5.9612e-16 0)
(3 -5.5939e-16 0)
(3 -1.9053e-16 0)
(3 1.15735e-15 0)
(3 1.6669e-15 0)
(3 1.48455e-16 0)
(3 -1.18439e-15 0)
(3 -8.10107e-16 0)
(3 -1.97516e-16 0)
(3 7.21934e-16 0)
(3 1.01013e-15 0)
(3 1.16632e-15 0)
(3 1.37145e-15 0)
(3 1.5974e-15 0)
(3 5.02822e-16 0)
(3 -2.68531e-16 0)
(3 -8.98386e-18 0)
(3 9.14229e-16 0)
(3 1.03682e-15 0)
(3 -1.53793e-16 0)
(3 -1.2907e-15 0)
(3 -1.07041e-15 0)
(3 -6.78543e-16 0)
(3 -6.93475e-16 0)
(3 -8.51092e-16 0)
(3 -8.42055e-16 0)
(3 -1.07237e-15 0)
(3 -1.25705e-15 0)
(3 -1.40906e-15 0)
(3 -1.01903e-15 0)
(3 6.44453e-16 0)
(3 2.23456e-15 0)
(3 2.26275e-15 0)
(3 2.51724e-15 0)
(3 2.79846e-15 0)
(3 2.67296e-15 0)
(3 1.85516e-15 0)
(3 9.62515e-16 0)
(3 -1.6964e-16 0)
(3 -1.40269e-15 0)
(3 -1.78939e-15 0)
(3 -2.10131e-15 0)
(3 -7.96198e-17 0)
(3 -1.99708e-16 0)
(3 -3.07975e-16 0)
(3 -5.21285e-16 0)
(3 -7.2852e-16 0)
(3 -1.36977e-15 0)
(3 -2.04504e-15 0)
(3 -2.19952e-15 0)
(3 -1.13715e-15 0)
(3 -1.70488e-16 0)
(3 2.32433e-16 0)
(3 3.55017e-17 0)
(3 -3.7745e-17 0)
(3 -5.40868e-17 0)
(3 7.71351e-16 0)
(3 1.27107e-15 0)
(3 1.33545e-15 0)
(3 1.41476e-15 0)
(3 -3.21307e-17 0)
(3 -3.69165e-16 0)
(3 -4.87989e-16 0)
(3 6.81506e-16 0)
(3 1.42566e-15 0)
(3 1.57786e-15 0)
(3 1.31672e-15 0)
(3 -6.69173e-17 0)
(3 -5.34491e-16 0)
(3 6.89601e-17 0)
(3 4.39436e-16 0)
(3 3.14732e-16 0)
(3 -3.66819e-16 0)
(3 -7.78475e-16 0)
(3 -4.78375e-16 0)
(3 1.77834e-16 0)
(3 5.14407e-16 0)
(3 7.54636e-16 0)
(3 1.10151e-15 0)
(3 1.42441e-15 0)
(3 1.35532e-15 0)
(3 7.97972e-16 0)
(3 4.55855e-16 0)
(3 5.9517e-16 0)
(3 -6.71688e-16 0)
(3 -2.09653e-15 0)
(3 -2.58853e-15 0)
(3 -1.88082e-15 0)
(3 -3.89634e-16 0)
(3 2.87476e-16 0)
(3 6.90124e-17 0)
(3 2.43573e-16 0)
(3 -7.63982e-17 0)
(3 -5.76634e-17 0)
(3 -5.19397e-16 0)
(3 -5.39703e-16 0)
(3 2.62746e-17 0)
(3 2.91461e-16 0)
(3 7.14019e-16 0)
(3 -2.70393e-16 0)
(3 -1.2152e-15 0)
(3 -1.13939e-15 0)
(3 6.78984e-16 0)
(3 1.38135e-15 0)
(3 1.44337e-15 0)
(3 1.09202e-15 0)
(3 7.567e-16 0)
(3 9.19251e-16 0)
(3 1.12149e-15 0)
(3 1.3039e-15 0)
(3 1.1669e-15 0)
(3 1.06614e-15 0)
(3 1.24519e-15 0)
(3 8.50622e-16 0)
(3 5.34868e-16 0)
(3 7.6952e-16 0)
(3 1.04831e-15 0)
(3 4.60784e-16 0)
(3 -4.87956e-16 0)
(3 -1.01049e-15 0)
(3 -1.20329e-15 0)
(3 -1.48957e-15 0)
(3 -2.43858e-16 0)
(3 4.25299e-16 0)
(3 1.06423e-15 0)
(3 9.89119e-16 0)
(3 9.82519e-16 0)
(3 1.06121e-15 0)
(3 1.29094e-15 0)
(3 8.09596e-16 0)
(3 5.31553e-16 0)
(3 7.27553e-16 0)
(3 -1.39928e-16 0)
(3 -2.43787e-15 0)
(3 -2.44725e-15 0)
(3 -2.01016e-15 0)
(3 -1.25735e-15 0)
(3 -4.08268e-16 0)
(3 5.60202e-17 0)
(3 1.51029e-16 0)
(3 4.28069e-16 0)
(3 4.92819e-16 0)
(3 3.67156e-16 0)
(3 5.71014e-16 0)
(3 9.82328e-16 0)
(3 8.78341e-16 0)
(3 6.25338e-16 0)
(3 -3.51868e-16 0)
(3 -6.97356e-16 0)
(3 -8.40484e-16 0)
(3 9.96886e-17 0)
(3 1.15988e-15 0)
(3 1.50687e-15 0)
(3 1.27803e-15 0)
(3 6.80863e-16 0)
(3 8.75408e-16 0)
(3 1.01573e-15 0)
(3 1.74154e-15 0)
(3 2.22958e-15 0)
(3 1.86956e-15 0)
(3 1.90817e-15 0)
(3 1.72433e-15 0)
(3 1.66117e-15 0)
(3 1.95395e-15 0)
(3 1.97333e-15 0)
(3 1.22018e-15 0)
(3 1.8382e-16 0)
(3 -9.58968e-16 0)
(3 -1.33107e-15 0)
(3 -1.74777e-15 0)
(3 -1.34242e-15 0)
(3 -3.74022e-16 0)
(3 9.28558e-16 0)
(3 1.20849e-15 0)
(3 1.68479e-15 0)
(3 2.28688e-15 0)
(3 1.55975e-15 0)
(3 4.77992e-16 0)
(3 5.9748e-16 0)
(3 1.15168e-15 0)
(3 5.20761e-16 0)
(3 -2.221e-17 0)
(3 -1.8986e-17 0)
(3 -6.02337e-16 0)
(3 -1.02919e-15 0)
(3 -6.35031e-16 0)
(3 -8.34133e-17 0)
(3 -4.38245e-17 0)
(3 1.7741e-16 0)
(3 3.8904e-16 0)
(3 9.46094e-16 0)
(3 1.45384e-15 0)
(3 1.64148e-15 0)
(3 6.8175e-16 0)
(3 -1.23351e-15 0)
(3 -1.70595e-15 0)
(3 -1.11336e-15 0)
(3 -1.43754e-15 0)
(3 -1.85705e-15 0)
(3 -5.57009e-16 0)
(3 -1.54703e-16 0)
(3 -4.19467e-16 0)
(3 -2.75665e-16 0)
(3 -2.85686e-16 0)
(3 -5.53046e-16 0)
(3 -4.15785e-16 0)
(3 3.69686e-16 0)
(3 1.74891e-15 0)
(3 1.55404e-15 0)
(3 1.59478e-15 0)
(3 1.60877e-15 0)
(3 1.1923e-15 0)
(3 2.8559e-16 0)
(3 2.19621e-16 0)
(3 -1.45033e-16 0)
(3 9.33853e-17 0)
(3 -3.95728e-16 0)
(3 -1.05713e-15 0)
(3 -9.8344e-16 0)
(3 -2.74564e-16 0)
(3 3.91044e-16 0)
(3 1.78274e-15 0)
(3 2.08862e-15 0)
(3 1.47195e-15 0)
(3 3.03563e-16 0)
(3 -4.22649e-16 0)
(3 -1.66488e-15 0)
(3 -2.10429e-15 0)
(3 -6.85862e-16 0)
(3 1.62467e-15 0)
(3 2.07511e-15 0)
(3 1.99984e-15 0)
(3 1.92602e-15 0)
(3 1.43201e-15 0)
(3 -4.07514e-18 0)
(3 2.97864e-18 0)
(3 -5.12625e-18 0)
(3 5.7851e-17 0)
(3 7.83426e-16 0)
(3 3.96303e-16 0)
(3 2.69546e-16 0)
(3 -2.78446e-16 0)
(3 -9.21183e-16 0)
(3 -1.84354e-15 0)
(3 -2.70205e-15 0)
(3 -2.12043e-15 0)
(3 -1.61482e-15 0)
(3 -9.15001e-16 0)
(3 -1.32257e-15 0)
(3 -1.12216e-15 0)
(3 -6.08443e-16 0)
(3 -6.25614e-16 0)
(3 -1.07253e-15 0)
(3 -6.88864e-16 0)
(3 -8.57711e-16 0)
(3 -9.25466e-16 0)
(3 -8.197e-16 0)
(3 -7.54915e-16 0)
(3 -7.82813e-16 0)
(3 -1.23374e-15 0)
(3 -1.65657e-15 0)
(3 -2.07129e-15 0)
(3 -1.55743e-15 0)
(3 -1.1335e-15 0)
(3 -4.65244e-16 0)
(3 -4.78632e-16 0)
(3 -3.83266e-16 0)
(3 -1.36336e-15 0)
(3 -1.36078e-15 0)
(3 -6.2345e-16 0)
(3 6.92726e-16 0)
(3 2.10248e-16 0)
(3 -6.51574e-16 0)
(3 -1.3981e-15 0)
(3 -1.51037e-15 0)
(3 -1.47464e-15 0)
(3 -4.58761e-16 0)
(3 9.45444e-16 0)
(3 1.82223e-15 0)
(3 2.69112e-15 0)
(3 2.829e-15 0)
(3 1.36929e-15 0)
(3 6.73951e-18 0)
(3 -2.98055e-16 0)
(3 -3.69195e-16 0)
(3 -2.53356e-16 0)
(3 -4.54303e-16 0)
(3 -4.46996e-16 0)
(3 -4.21437e-16 0)
(3 -6.8538e-16 0)
(3 -4.76114e-16 0)