/*--------------------------------*- C++ -*----------------------------------*\
  =========                 |
  \\      /  F ield         | OpenFOAM: The Open Source CFD Toolbox
   \\    /   O peration     | Website:  https://openfoam.org
    \\  /    A nd           | Version:  7
     \\/     M anipulation  |
\*---------------------------------------------------------------------------*/
FoamFile
{
    version     2.0;
    format      ascii;
    class       volScalarField;
    location    "0.7";
    object      p;
}
// * * * * * * * * * * * * * * * * * * * * * * * * * * * * * * * * * * * * * //

dimensions      [1 -1 -2 0 0 0 0];

internalField   nonuniform List<scalar> 
18432
(
1
1
1
1
1
1
1
1
1
1
1
1
1
1
1
1
1
1
1
1
1
1
1
1
1
1
1
1
1
1
1
1
1
1
1
1
1
1
1
1
1
1
1
1
1
1
1
1
1
1
1
1
1
1
1
1
1
1
1
1
1
1
1
1
1
1
1
1
1
1
1
1
1
1
1
1
1
1
1
1
1
1
1
1
1
1
1
1
1
1
1
1
1
1
1
1
1
1
1
1
1
1
1
1
1
1
1
1
1
1
1
1
1
1
1
1
1
1
1
1
1
1
1
1
1
1
1
1
1
1
1
1
1
1
1
1
1
1
1
1
1
1
1
1
1
1
1
1
1
1
1
1
1
1
1
1
1
1
1
1
1
1
1
1
1
1
1
1
1
1
1
1
1
1
1
1
1
1
1
1
1
1
1
1
1
1
1
1
1
1
1
1
1
1
1
1
1
1
1
1
1
1
1
1
1
1
1
1
1
1
1
1
1
1
1
1
1
1
1
1
1
1
1
1
1
1
1
1
1
1
1
1
1
1
1
1
1
1
1
1
1
1
1
1
1
1
1
1
1
1
1
1
1
1
1
1
1
1
1
1
1
1
1
1
1
1
1
1
1
1
1
1
1
1
1
1
1
1
1
1
1
1
1
1
1
1
1
1
1
1
1
1
1
1
1
1
1
1
1
1
1
1
1
1
1
1
1
1
1
1
1
1
1
1
1
1
1
1
1
1
1
1
1
1
1
1
1
1
1
1
1
1
1
1
1
1
1
1
1
1
1
1
1
1
1
1
1
1
1
1
1
1
1
1
1
1
1
1
1
1
1
1
1
1
1
1
1
1
1
1
1
1
1
1
1
1
1
1
1
1
1
1
1
1
1
1
1
1
1
1
1
1
1
1
1
1
1
1
1
1
1
1
1
1
1
1
1
1
1
1
1
1
1
1
1
1
1
1
1
1
1
1
1
1
1
1
1
1
1
1
1
1
1
1
1
1
1
1
1
1
1
1
1
1
1
1
1
1
1
1
1
1
1
1
1
1
1
1
1
1
1
1
1
1
1
1
1
1
1
1
1
1
1
1
1
1
1
1
1
1
1
1
1
1
1
1
1
1
1
1
1
1
1
1
1
1
1
1
1
1
1
1
1
1
1
1
1
1
1
1
1
1
1
1
1
1
1
1
1
1
1
1
1
1
1
1
1
1
1
1
1
1
1
1
1
1
1
1
1
1
1
1
1
1
1
1
1
1
1
1
1
1
1
1
1
1
1
1
1
1
1
1
1
1
1
1
1
1
1
1
1
1
1
1
1
1
1
1
1
1
1
1
1
1
1
1
1
1
1
1
1
1
1
1
1
1
1
1
1
1
1
1
1
1
1
1
1
1
1
1
1
1
1
1
1
1
1
1
1
1
1
1
1
1
1
1
1
1
1
1
1
1
1
1
1
1
1
1
1
1
1
1
1
1
1
1
1
1
1
1
1
1
1
1
1
1
1
1
1
1
1
1
1
1
1
1
1
1
1
1
1
1
1
1
1
1
1
1
1
1
1
1
1
1
1
1
1
1
1
1
1
1
1
1
1
1
1
1
1
1
1
1
1
1
1
1
1
1
1
1
1
1
1
1
1
1
1
1
1
1
1
1
1
1
1
1
1
1
1
1
1
1
1
1
1
1
1
1
1
1
1
1
1
1
1
1
1
1
1
1
1
1
1
1
1
1
1
1
1
1
1
1
1
1
1
1
1
1
1
1
1
1
1
1
1
1
1
1
1
1
1
1
1
1
1
1
1
1
1
1
1
1
1
1
1
1
1
1
1
1
1
1
1
1
1
1
1
1
1
1
1
1
1
1
1
1
1
1
1
1
1
1
1
1
1
1
1
1
1
1
1
1
1
1
1
1
1
1
1
1
1
1
1
1
1
1
1
1
1
1
1
1
1
1
1
1
1
1
1
1
1
1
1
1
1
1
1
1
1
1
1
1
1
1
1
1
1
1
1
1
1
1
1
1
1
1
1
1
1
1
1
1
1
1
1
1
1
1
1
1
1
1
1
1
1
1
1
1
1
1
1
1
1
1
1
1
1
1
1
1
1
1
1
1
1
1
1
1
1
1
1
1
1
1
1
1
1
1
1
1
1
1
1
1
1
1
1
1
1
1
1
1
1
1
1
1
1
1
1
1
1
1
1
1
1
1
1
1
1
1
1
1
1
1
1
1
1
1
1
1
1
1
1
1
1
1
1
1
1
1
1
1
1
1
1
1
1
1
1
1
1
1
1
1
1
1
1
1
1
1
1
1
1
1
1
1
1
1
1
1
1
1
1
1
1
1
1
1
1
1
1
1
1
1
1
1
1
1
1
1
1
1
1
1
1
1
1
1
1
1
1
1
1
1
1
1
1
1
1
1
1
1
1
1
1
1
1
1
1
1
1
1
1
1
1
1
1
1
1
1
1
1
1
1
1
1
1
1
1
1
1
1
1
1
1
1
1
1
1
1
1
1
1
1
1
1
1
1
1
1
1
1
1
1
1
1
1
1
1
1
1
1
1
1
1
1
1
1
1
1
1
1
1
1
1
1
1
1
1
1
1
1
1
1
1
1
1
1
1
1
1
1
1
1
1
1
1
1
1
1
1
1
1
1
1
1
1
1
1
1
1
1
1
1
1
1
1
1
1
1
1
1
1
1
1
1
1
1
1
1
1
1
1
1
1
1
1
1
1
1
1
1
1
1
1
1
1
1
1
1
1
1
1
1
1
1
1
1
1
1
1
1
1
1
1
1
1
1
1
1
1
1
1
1
1
1
1
1
1
1
1
1
1
1
1
1
1
1
1
1
1
1
1
1
1
1
1
1
1
1
1
1
1
1
1
1
1
1
1
1
1
1
1
1
1
1
1
1
1
1
1
1
1
1
1
1
1
1
1
1
1
1
1
1
1
1
1
1
1
1
1
1
1
1
1
1
1
1
1
1
1
1
1
1
1
1
1
1
1
1
1
1
1
1
1
1
1
1
1
1
1
1
1
1
1
1
1
1
1
1
1
1
1
1
1
1
1
1
1
1
1
1
1
1
1
1
1
1
1
1
1
1
1
1
1
1
1
1
1
1
1
1
1
1
1
1
1
1
1
1
1
1
1
1
1
1
1
1
1
1
1
1
1
1
1
1
1
1
1
1
1
1
1
1
1
1
1
1
1
1
1
1
1
1
1
1
1
1
1
1
1
1
1
1
1
1
1
1
1
1
1
1
1
1
1
1
1
1
1
1
1
1
1
1
1
1
1
1
1
1
1
1
1
1
1
1
1
1
1
1
1
1
1
1
1
1
1
1
1
1
1
1
1
1
1
1
1
1
1
1
1
1
1
1
1
1
1
1
1
1
1
1
1
1
1
1
1
1
1
1
1
1
1
1
1
1
1
1
1
1
1
1
1
1
1
1
1
1
1
1
1
1
1
1
1
1
1
1
1
1
1
1
1
1
1
1
1
1
1
1
1
1
1
1
1
1
1
1
1
1
1
1
1
1
1
1
1
1
1
1
1
1
1
1
1
1
1
1
1
1
1
1
1
1
1
1
1
1
1
1
1
1
1
1
1
1
1
1
1
1
1
1
1
1
1
1
1
1
1
1
1
1
1
1
1
1
1
1
1
1
1
1
1
1
1
1
1
1
1
1
1
1
1
1
1
1
1
1
1
1
1
1
1
1
1
1
1
1
1
1
1
1
1
1
1
1
1
1
1
1
1
1
1
1
1
1
1
1
1
1
1
1
1
1
1
1
1
1
1
1
1
1
1
1
1
1
1
1
1
1
1
1
1
1
1
1
1
1
1
1
1
1
1
1
1
1
1
1
1
1
1
1
1
1
1
1
1
1
1
1
1
1
1
1
1
1
1
1
1
1
1
1
1
1
1
1
1
1
1
1
1
1
1
1
1
1
1
1
1
1
1
1
1
1
1
1
1
1
1
1
1
1
1
1
1
1
1
1
1
1
1
1
1
1
1
1
1
1
1
1
1
1
1
1
1
1
1
1
1
1
1
1
1
1
1
1
1
1
1
1
1
1
1
1
1
1
1
1
1
1
1
1
1
1
1
1
1
1
1
1
1
1
1
1
1
1
1
1
1
1
1
1
1
1
1
1
1
1
1
1
1
1
1
1
1
1
1
1
1
1
1
1
1
1
1
1
1
1
1
1
1
1
1
1
1
1
1
1
1
1
1
1
1
1
1
1
1
1
1
1
1
1
1
1
1
1
1
1
1
1
1
1
1
1
1
1
1
1
1
1
1
1
1
1
1
1
1
1
1
1
1
1
1
1
1
1
1
1
1
1
1
1
1
1
1
1
1
1
1
1
1
1
1
1
1
1
1
1
1
1
1
1
1
1
1
1
1
1
1
1
1
1
1
1
1
1
1
1
1
1
1
1
1
1
1
1
1
1
1
1
1
1
1
1
1
1
1
1
1
1
1
1
1
1
1
1
1
1
1
1
1
1
1
1
1
1
1
1
1
1
1
1
1
1
1
1
1
1
1
1
1
1
1
1
1
1
1
1
1
1
1
1
1
1
1
1
1
1
1
1
1
1
1
1
1
1
1
1
1
1
1
1
1
1
1
1
1
1
1
1
1
1
1
1
1
1
1
1
1
1
1
1
1
1
1
1
1
1
1
1
1
1
1
1
1
1
1
1
1
1
1
1
1
1
1
1
1
1
1
1
1
1
1
1
1
1
1
1
1
1
1
1
1
1
1
1
1
1
1
1
1
1
1
1
1
1
1
1
1
1
1
1
1
1
1
1
1
1
1
1
1
1
1
1
1
1
1
1
1
1
1
1
1
1
1
1
1
1
1
1
1
1
1
1
1
1
1
1
1
1
1
1
1
1
1
1
1
1
1
1
1
1
1
1
1
1
1
1
1
1
1
1
1
1
1
1
1
1
1
1
1
1
1
1
1
1
1
1
1
1
1
1
1
1
1
1
1
1
1
1
1
1
1
1
1
1
1
1
1
1
1
1
1
1
1
1
1
1
1
1
1
1
1
1
1
1
1
1
1
1
1
1
1
1
1
1
1
1
1
1
1
1
1
1
1
1
1
1
1
1
1
1
1
1
1
1
1
1
1
1
1
1
1
1
1
1
1
1
1
1
1
1
1
1
1
1
1
1
1
1
1
1
1
1
1
1
1
1
1
1
1
1
1
1
1
1
1
1
1
1
1
1
1
1
1
1
1
1
1
1
1
1
1
1
1
1
1
1
1
1
1
1
1
1
1
1
1
1
1
1
1
1
1
1
1
1
1
1
1
1
1
1
1
1
1
1
1
1
1
1
1
1
1
1
1
1
1
1
1
1
1
1
1
1
1
1
1
1
1
1
1
1
1
1
1
1
1
1
1
1
1
1
1
1
1
1
1
1
1
1
1
1
1
1
1
1
1
1
1
1
1
1
1
1
1
1
1
1
1
1
1
1
1
1
1
1
1
1
1
1
1
1
1
1
1
1
1
1
1
1
1
1
1
1
1
1
1
1
1
1
1
1
1
1
1
1
1
1
1
1
1
1
1
1
1
1
1
1
1
1
1
1
1
1
1
1
1
1
1
1
1
1
1
1
1
1
1
1
1
1
1
1
1
1
1
1
1
1
1
1
1
1
1
1
1
1
1
1
1
1
1
1
1
1
1
1
1
1
1
1
1
1
1
1
1
1
1
1
1
1
1
1
1
1
1
1
1
1
1
1
1
1
1
1
1
1
1
1
1
1
1
1
1
1
1
1
1
1
1
1
1
1
1
1
1
1
1
1
1
1
1
1
1
1
1
1
1
1
1
1
1
1
1
1
1
1
1
1
1
1
1
1
1
1
1
1
1
1
1
1
1
1
1
1
1
1
1
1
1
1
1
1
1
1
1
1
1
1
1
1
1
1
1
1
1
1
1
1
1
1
1
1
1
1
1
1
1
1
1
1
1
1
1
1
1
1
1
1
1
1
1
1
1
1
1
1
1
1
1
1
1
1
1
1
1
1
1
1
1
1
1
1
1
1
1
1
1
1
1
1
1
1
1
1
1
1
1
1
1
1
1
1
1
1
1
1
1
1
1
1
1
1
1
1
1
1
1
1
1
1
1
1
1
1
1
1
1
1
1
1
1
1
1
1
1
1
1
1
1
1
1
1
1
1
1
1
1
1
1
1
1
1
1
1
1
1
1
1
1
1
1
1
1
1
1
1
1
1
1
1
1
1
1
1
1
1
1
1
1
1
1
1
1
1
1
1
1
1
1
1
1
1
1
1
1
1
1
1
1
1
1
1
1
1
1
1
1
1
1
1
1
1
1
1
1
1
1
1
1
1
1
1
1
1
1
1
1
1
1
1
1
1
1
1
1
1
1
1
1
1
1
1
1
1
1
1
1
1
1
1
1
1
1
1
1
1
1
1
1
1
1
1
1
1
1
1
1
1
1
1
1
1
1
1
1
1
1
1
1
1
1
1
1
1
1
1
1
1
1
1
1
1
1
1
1
1
1
1
1
1
1
1
1
1
1
1
1
1
1
1
1
1
1
1
1
1
1
1
1
1
1
1
1
1
1
1
1
1
1
1
1
1
1
1
1
1
1
1
1
1
1
1
1
1
1
1
1
1
1
1
1
1
1
1
1
1
1
1
1
1
1
1
1
1
1
1
1
1
1
1
1
1
1
1
1
1
1
1
1
1
1
1
1
1
1
1
1
1
1
1
1
1
1
1
1
1
1
1
1
1
1
1
1
1
1
1
1
1
1
1
1
1
1
1
1
1
1
1
1
1
1
1
1
1
1
1
1
1
1
1
1
1
1
1
1
1
1
1
1
1
1
1
1
1
1
1
1
1
1
1
1
1
1
1
1
1
1
1
1
1
1
1
1
1
1
1
1
1
1
1
1
1
1
1
1
1
1
1
1
1
1
1
1
1
1
1
1
1
1
1
1
1
1.28957
1.76159
2.30723
2.88042
3.59446
4.15063
4.66487
5.12496
5.3429
5.24453
4.91578
4.48248
4.09803
3.793
3.65854
3.57431
3.55225
3.56724
3.60603
3.64863
3.68512
3.70322
3.71553
3.72806
3.74133
3.75353
3.76281
3.76952
3.77712
3.7882
3.7971
3.79863
3.79666
3.7909
3.78187
3.77333
3.76788
3.76505
3.76436
3.76466
3.76548
3.76857
3.76947
3.76958
3.76945
3.76883
3.76788
3.76919
1.00179
1.01441
1.07825
1.20022
1.40982
1.76884
2.21415
2.75247
3.32228
3.72679
3.88257
4.08016
4.05803
3.95504
3.83866
3.78938
3.74202
3.69111
3.674
3.67076
3.68391
3.70536
3.72362
3.73339
3.73884
3.74553
3.75237
3.75573
3.759
3.76532
3.77273
3.77893
3.78202
3.78166
3.77836
3.77362
3.77093
3.77124
3.77291
3.77533
3.77813
3.77923
3.77864
3.7769
3.77285
3.76793
3.7663
3.76803
1
0.999976
1.00007
1.00005
1.00129
1.01341
1.0607
1.22357
1.59814
2.36773
3.29501
3.94197
4.31057
4.31903
4.24353
4.11709
3.98464
3.79702
3.68464
3.68098
3.69445
3.71564
3.7372
3.74483
3.74585
3.74268
3.74742
3.75095
3.7535
3.75768
3.76278
3.76705
3.76778
3.76669
3.7644
3.76284
3.76333
3.7658
3.77031
3.77738
3.78479
3.7878
3.78737
3.78529
3.78063
3.77371
3.77025
3.77231
1
1
1
1
0.999998
1
0.999983
1.0001
1.0053
1.07205
1.43763
2.11933
3.21586
3.733
4.0522
4.02726
3.94206
3.91737
3.85153
3.79532
3.77317
3.73935
3.72699
3.72
3.72257
3.73037
3.74459
3.75826
3.76586
3.77124
3.77448
3.77437
3.7733
3.77096
3.76956
3.76775
3.76641
3.76762
3.77131
3.77679
3.78159
3.78312
3.78162
3.77826
3.77268
3.76886
3.7687
3.7712
1
1
1
1
1
1
1
0.999999
1
0.999919
1.00242
1.03777
1.30744
1.96289
2.88835
3.69685
3.88911
4.01407
3.99853
3.9365
3.81342
3.71358
3.6833
3.67546
3.67971
3.68807
3.70697
3.73133
3.75461
3.7739
3.78254
3.7834
3.78168
3.7782
3.77761
3.77741
3.77623
3.77668
3.7795
3.78235
3.7831
3.78159
3.77863
3.77339
3.76734
3.76478
3.76455
3.76668
1
1
1
1
1
1
1
1
1
0.999997
0.999997
0.999952
1.00089
1.03014
1.20278
1.84504
2.66076
3.53357
3.86363
3.85493
3.85135
3.79788
3.74333
3.71172
3.6906
3.68608
3.69167
3.70553
3.72427
3.74405
3.7611
3.77195
3.77305
3.77262
3.77166
3.77026
3.7686
3.76935
3.77333
3.77482
3.77349
3.77129
3.76882
3.7663
3.76439
3.76382
3.76356
3.77022
1
1
1
1
1
1
1
1
1
1
1
0.999997
0.999998
0.999969
1.00037
1.02315
1.18271
1.66963
2.52357
3.23601
3.78206
3.86972
3.84678
3.812
3.77248
3.73687
3.71323
3.70791
3.71091
3.71961
3.73152
3.74883
3.75773
3.76139
3.75983
3.75946
3.76063
3.76569
3.77202
3.77379
3.77328
3.77231
3.77162
3.77144
3.77123
3.77139
3.77128
3.77688
1
1
1
1
1
1
1
1
1
1
1
1
1
0.999998
0.999998
0.999973
1.00046
1.01205
1.15921
1.57301
2.43977
3.09739
3.55416
3.77382
3.80309
3.79133
3.7591
3.74873
3.7437
3.73994
3.73758
3.73555
3.7424
3.75197
3.75815
3.76256
3.7664
3.77283
3.77894
3.7795
3.77868
3.77623
3.77459
3.77395
3.77345
3.77316
3.77376
3.77639
1
1
1
1
1
1
1
1
1
1
1
1
1
1
1
0.999998
0.999998
0.999979
1.0005
1.01044
1.12509
1.56996
2.28507
3.09897
3.41938
3.62482
3.72995
3.75823
3.75533
3.73621
3.73169
3.73437
3.74012
3.7501
3.76119
3.77109
3.77957
3.78551
3.78674
3.78531
3.78302
3.77994
3.77536
3.77242
3.77122
3.77086
3.7717
3.77394
1
1
1
1
1
1
1
1
1
1
1
1
1
1
1
1
1
0.999998
0.999998
0.999985
1.00035
1.0133
1.10066
1.52009
2.19742
3.05157
3.48583
3.5955
3.67528
3.67977
3.69832
3.71084
3.71472
3.72378
3.73873
3.75358
3.76805
3.77629
3.77879
3.77934
3.77847
3.77824
3.77707
3.77504
3.77349
3.77347
3.7748
3.77584
1
1
1
1
1
1
1
1
1
1
1
1
1
1
1
1
1
1
1
0.999998
0.999998
0.999988
1.00026
1.01214
1.10455
1.46686
2.22413
2.96144
3.51601
3.66524
3.69601
3.70988
3.71058
3.71378
3.72271
3.73302
3.74582
3.75884
3.76519
3.76686
3.76628
3.76775
3.76833
3.76726
3.7675
3.76873
3.77182
3.77349
1
1
1
1
1
1
1
1
1
1
1
1
1
1
1
1
1
1
1
1
1
0.999999
0.999999
0.999989
1.00039
1.00958
1.12963
1.4802
2.25495
2.96195
3.48817
3.70401
3.73995
3.7494
3.76357
3.76222
3.76214
3.77016
3.77583
3.77593
3.77338
3.77061
3.76758
3.76637
3.76787
3.76915
3.77069
3.77217
1
1
1
1
1
1
1
1
1
1
1
1
1
1
1
1
1
1
1
1
1
1
1
0.999998
0.999999
0.999989
1.00082
1.01127
1.13565
1.56017
2.34527
3.03147
3.43693
3.66249
3.74377
3.7538
3.76534
3.77523
3.77769
3.77831
3.77742
3.77583
3.77745
3.77917
3.78072
3.78119
3.77925
3.77908
1
1
1
1
1
1
1
1
1
1
1
1
1
1
1
1
1
1
1
1
1
1
1
1
1
0.999998
0.999999
0.999992
1.00113
1.01887
1.15296
1.67247
2.47627
3.26905
3.49595
3.6019
3.68811
3.73012
3.73706
3.74086
3.74848
3.76273
3.77504
3.78129
3.78335
3.78196
3.78068
3.77918
1
1
1
1
1
1
1
1
1
1
1
1
1
1
1
1
1
1
1
1
1
1
1
1
1
1
1
0.999999
0.999998
1.00001
1.00153
1.03549
1.21496
1.84484
2.66297
3.40518
3.66367
3.69022
3.70975
3.7116
3.72107
3.73913
3.75586
3.76572
3.77083
3.77488
3.77733
3.77578
1
1
1
1
1
1
1
1
1
1
1
1
1
1
1
1
1
1
1
1
1
1
1
1
1
1
1
1
1
1
0.999997
1.00009
1.00308
1.06335
1.33582
2.10291
2.93293
3.50029
3.73852
3.74649
3.77334
3.78639
3.78596
3.78161
3.77983
3.77883
3.77619
3.77366
1
1
1
1
1
1
1
1
1
1
1
1
1
1
1
1
1
1
1
1
1
1
1
1
1
1
1
1
1
1
1
1
0.999996
1.00041
1.00802
1.12272
1.56266
2.44712
3.14875
3.54252
3.73948
3.78033
3.78299
3.79308
3.79405
3.7898
3.7845
3.78017
1
1
1
1
1
1
1
1
1
1
1
1
1
1
1
1
1
1
1
1
1
1
1
1
1
1
1
1
1
1
1
1
0.999999
0.999999
1
1.00159
1.02436
1.24123
1.90498
2.91921
3.44114
3.5781
3.67173
3.73939
3.76026
3.76544
3.7674
3.76902
1
1
1
1
1
1
1
1
1
1
1
1
1
1
1
1
1
1
1
1
1
1
1
1
1
1
1
1
1
1
1
1
1
1
1
0.999998
1.00007
1.00647
1.08151
1.50637
2.37393
3.26602
3.68104
3.72153
3.74355
3.74494
3.7427
3.74854
1
1
1
1
1
1
1
1
1
1
1
1
1
1
1
1
1
1
1
1
1
1
1
1
1
1
1
1
1
1
1
1
1
1
1
1
1
1.00001
1.00078
1.02619
1.23505
1.95385
2.91647
3.52488
3.77679
3.79086
3.78832
3.78482
1
1
1
1
1
1
1
1
1
1
1
1
1
1
1
1
1
1
1
1
1
1
1
1
1
1
1
1
1
1
1
1
1
1
1
1
1
1
0.999999
1.00016
1.00569
1.10606
1.60883
2.60272
3.29154
3.59399
3.76654
3.77527
1
1
1
1
1
1
1
1
1
1
1
1
1
1
1
1
1
1
1
1
1
1
1
1
1
1
1
1
1
1
1
1
1
1
1
1
1
1
1
0.999999
1.00001
1.00197
1.03736
1.35358
2.19021
3.25454
3.59982
3.66574
1
1
1
1
1
1
1
1
1
1
1
1
1
1
1
1
1
1
1
1
1
1
1
1
1
1
1
1
1
1
1
1
1
1
1
1
1
1
1
1
1
1
1.00029
1.01748
1.17891
1.93639
2.94595
3.62087
1
1
1
1
1
1
1
1
1
1
1
1
1
1
1
1
1
1
1
1
1
1
1
1
1
1
1
1
1
1
1
1
1
1
1
1
1
1
1
1
1
1
1
1.00012
1.0048
1.12125
1.65669
2.8008
1
1
1
1
1
1
1
1
1
1
1
1
1
1
1
1
1
1
1
1
1
1
1
1
1
1
1
1
1
1
1
1
1
1
1
1
1
1
1
1
1
1
1
1
1.00002
1.00313
1.05629
1.45685
1
1
1
1
1
1
1
1
1
1
1
1
1
1
1
1
1
1
1
1
1
1
1
1
1
1
1
1
1
1
1
1
1
1
1
1
1
1
1
1
1
1
1
1
1
1.00001
1.00095
1.02044
1
1
1
1
1
1
1
1
1
1
1
1
1
1
1
1
1
1
1
1
1
1
1
1
1
1
1
1
1
1
1
1
1
1
1
1
1
1
1
1
1
1
1
1
1
1
1.00001
0.999821
1
1
1
1
1
1
1
1
1
1
1
1
1
1
1
1
1
1
1
1
1
1
1
1
1
1
1
1
1
1
1
1
1
1
1
1
1
1
1
1
1
1
1
1
1
1
1
0.999942
1
1
1
1
1
1
1
1
1
1
1
1
1
1
1
1
1
1
1
1
1
1
1
1
1
1
1
1
1
1
1
1
1
1
1
1
1
1
1
1
1
1
1
1
1
1
1
0.999992
1
1
1
1
1
1
1
1
1
1
1
1
1
1
1
1
1
1
1
1
1
1
1
1
1
1
1
1
1
1
1
1
1
1
1
1
1
1
1
1
1
1
1
1
1
1
1
1
1
1
1
1
1
1
1
1
1
1
1
1
1
1
1
1
1
1
1
1
1
1
1
1
1
1
1
1
1
1
1
1
1
1
1
1
1
1
1
1
1
1
1
1
1
1
1
1
1
1
1
1
1
1
1
1
1
1
1
1
1
1
1
1
1
1
1
1
1
1
1
1
1
1
1
1
1
1
1
1
1
1
1
1
1
1
1
1
1
1
1
1
1
1
1
1
1
1
1
1
1
1
1
1
1
1
1
1
1
1
1
1
1
1
1
1
1
1
1
1
1
1
1
1
1
1
1
1
1
1
1
1
1
1
1
1
1
1
1
1
1
1
1
1
1
1
1
1
1
1
1
1
1
1
1
1
1
1
1
1
1
1
1
1
1
1
1
1
1
1
1
1
1
1
1
1
1
1
1
1
1
1
1
1
1
1
1
1
1
1
1
1
1
1
1
1
1
1
1
1
1
1
1
1
1
1
1
1
1
1
1
1
1
1
1
1
1
1
1
1
1
1
1
1
1
1
1
1
1
1
1
1
1
1
1
1
1
1
1
1
1
1
1
1
1
1
1
1
1
1
1
1
1
1
1
1
1
1
1
1
1
1
1
1
1
1
1
1
1
1
1
1
1
1
1
1
1
1
1
1
1
1
1
1
1
1
1
0.999992
1
1
1
1
1
1
1
1
1
1
1
1
1
1
1
1
1
1
1
1
1
1
1
1
1
1
1
1
1
1
1
1
1
1
1
1
1
1
1
1
1
1
1
1
1
1
1
0.999942
1
1
1
1
1
1
1
1
1
1
1
1
1
1
1
1
1
1
1
1
1
1
1
1
1
1
1
1
1
1
1
1
1
1
1
1
1
1
1
1
1
1
1
1
1
1
1.00001
0.999821
1
1
1
1
1
1
1
1
1
1
1
1
1
1
1
1
1
1
1
1
1
1
1
1
1
1
1
1
1
1
1
1
1
1
1
1
1
1
1
1
1
1
1
1
1
1.00001
1.00095
1.02044
1
1
1
1
1
1
1
1
1
1
1
1
1
1
1
1
1
1
1
1
1
1
1
1
1
1
1
1
1
1
1
1
1
1
1
1
1
1
1
1
1
1
1
1
1.00002
1.00313
1.05629
1.45685
1
1
1
1
1
1
1
1
1
1
1
1
1
1
1
1
1
1
1
1
1
1
1
1
1
1
1
1
1
1
1
1
1
1
1
1
1
1
1
1
1
1
1
1.00012
1.0048
1.12125
1.6567
2.8008
1
1
1
1
1
1
1
1
1
1
1
1
1
1
1
1
1
1
1
1
1
1
1
1
1
1
1
1
1
1
1
1
1
1
1
1
1
1
1
1
1
1
1.00029
1.01748
1.17891
1.93639
2.94595
3.62087
1
1
1
1
1
1
1
1
1
1
1
1
1
1
1
1
1
1
1
1
1
1
1
1
1
1
1
1
1
1
1
1
1
1
1
1
1
1
1
0.999999
1.00001
1.00197
1.03736
1.35358
2.19021
3.25454
3.59983
3.66574
1
1
1
1
1
1
1
1
1
1
1
1
1
1
1
1
1
1
1
1
1
1
1
1
1
1
1
1
1
1
1
1
1
1
1
1
1
1
0.999999
1.00016
1.00569
1.10606
1.60883
2.60272
3.29154
3.59398
3.76654
3.77527
1
1
1
1
1
1
1
1
1
1
1
1
1
1
1
1
1
1
1
1
1
1
1
1
1
1
1
1
1
1
1
1
1
1
1
1
1
1.00001
1.00078
1.02619
1.23505
1.95385
2.91647
3.52488
3.77679
3.79086
3.78832
3.78482
1
1
1
1
1
1
1
1
1
1
1
1
1
1
1
1
1
1
1
1
1
1
1
1
1
1
1
1
1
1
1
1
1
1
1
0.999998
1.00007
1.00647
1.08151
1.50637
2.37393
3.26602
3.68104
3.72153
3.74355
3.74494
3.7427
3.74854
1
1
1
1
1
1
1
1
1
1
1
1
1
1
1
1
1
1
1
1
1
1
1
1
1
1
1
1
1
1
1
1
0.999999
0.999999
1
1.00159
1.02436
1.24123
1.90498
2.91921
3.44115
3.5781
3.67173
3.73938
3.76026
3.76544
3.7674
3.76902
1
1
1
1
1
1
1
1
1
1
1
1
1
1
1
1
1
1
1
1
1
1
1
1
1
1
1
1
1
1
1
1
0.999996
1.00041
1.00802
1.12272
1.56266
2.44712
3.14875
3.54252
3.73948
3.78033
3.78299
3.79308
3.79405
3.7898
3.7845
3.78017
1
1
1
1
1
1
1
1
1
1
1
1
1
1
1
1
1
1
1
1
1
1
1
1
1
1
1
1
1
1
0.999997
1.00009
1.00308
1.06335
1.33582
2.10291
2.93293
3.50029
3.73852
3.74649
3.77334
3.78639
3.78597
3.78162
3.77983
3.77883
3.77619
3.77366
1
1
1
1
1
1
1
1
1
1
1
1
1
1
1
1
1
1
1
1
1
1
1
1
1
1
1
0.999999
0.999998
1.00001
1.00153
1.03549
1.21496
1.84484
2.66297
3.40517
3.66367
3.69022
3.70975
3.7116
3.72107
3.73913
3.75586
3.76572
3.77083
3.77488
3.77733
3.77578
1
1
1
1
1
1
1
1
1
1
1
1
1
1
1
1
1
1
1
1
1
1
1
1
1
0.999998
0.999999
0.999992
1.00113
1.01887
1.15296
1.67247
2.47626
3.26906
3.49596
3.6019
3.6881
3.73012
3.73706
3.74086
3.74848
3.76273
3.77504
3.78129
3.78335
3.78196
3.78068
3.77918
1
1
1
1
1
1
1
1
1
1
1
1
1
1
1
1
1
1
1
1
1
1
1
0.999998
0.999999
0.999989
1.00082
1.01127
1.13564
1.56017
2.34527
3.03147
3.43693
3.66249
3.74377
3.7538
3.76534
3.77523
3.77769
3.77831
3.77742
3.77583
3.77745
3.77917
3.78072
3.78119
3.77925
3.77908
1
1
1
1
1
1
1
1
1
1
1
1
1
1
1
1
1
1
1
1
1
0.999999
0.999999
0.999989
1.00039
1.00958
1.12963
1.4802
2.25495
2.96195
3.48817
3.70401
3.73995
3.7494
3.76357
3.76222
3.76214
3.77016
3.77583
3.77593
3.77338
3.77061
3.76758
3.76637
3.76787
3.76915
3.77069
3.77217
1
1
1
1
1
1
1
1
1
1
1
1
1
1
1
1
1
1
1
0.999998
0.999998
0.999988
1.00026
1.01214
1.10455
1.46686
2.22413
2.96144
3.51601
3.66524
3.69601
3.70988
3.71058
3.71378
3.72271
3.73302
3.74582
3.75884
3.76519
3.76686
3.76628
3.76775
3.76833
3.76726
3.7675
3.76873
3.77182
3.77349
1
1
1
1
1
1
1
1
1
1
1
1
1
1
1
1
1
0.999998
0.999998
0.999985
1.00035
1.0133
1.10066
1.52009
2.19743
3.05157
3.48583
3.5955
3.67528
3.67977
3.69832
3.71084
3.71472
3.72378
3.73872
3.75358
3.76805
3.77629
3.77879
3.77934
3.77847
3.77824
3.77707
3.77504
3.77349
3.77347
3.7748
3.77584
1
1
1
1
1
1
1
1
1
1
1
1
1
1
1
0.999998
0.999998
0.999979
1.0005
1.01044
1.12509
1.56996
2.28507
3.09897
3.41938
3.62482
3.72995
3.75823
3.75533
3.73621
3.73169
3.73437
3.74012
3.7501
3.76119
3.77109
3.77957
3.78551
3.78674
3.78531
3.78302
3.77994
3.77536
3.77242
3.77122
3.77086
3.7717
3.77394
1
1
1
1
1
1
1
1
1
1
1
1
1
0.999998
0.999998
0.999973
1.00046
1.01205
1.15921
1.57301
2.43977
3.09739
3.55416
3.77382
3.80309
3.79133
3.7591
3.74873
3.7437
3.73994
3.73758
3.73555
3.7424
3.75197
3.75815
3.76256
3.7664
3.77283
3.77894
3.7795
3.77868
3.77623
3.77459
3.77395
3.77345
3.77316
3.77376
3.77638
1
1
1
1
1
1
1
1
1
1
1
0.999997
0.999998
0.999969
1.00037
1.02315
1.18271
1.66963
2.52357
3.23601
3.78206
3.86972
3.84679
3.812
3.77248
3.73687
3.71323
3.70791
3.71091
3.71961
3.73152
3.74883
3.75773
3.76139
3.75983
3.75946
3.76063
3.76569
3.77202
3.77379
3.77328
3.77231
3.77162
3.77144
3.77123
3.77139
3.77127
3.77688
1
1
1
1
1
1
1
1
1
0.999997
0.999997
0.999952
1.00089
1.03014
1.20278
1.84504
2.66076
3.53357
3.86363
3.85494
3.85135
3.79788
3.74333
3.71172
3.6906
3.68608
3.69167
3.70553
3.72427
3.74405
3.7611
3.77195
3.77305
3.77262
3.77166
3.77026
3.7686
3.76935
3.77333
3.77482
3.77349
3.77129
3.76882
3.7663
3.76439
3.76382
3.76356
3.77022
1
1
1
1
1
1
1
0.999999
1
0.999919
1.00242
1.03777
1.30744
1.9629
2.88835
3.69686
3.88912
4.01407
3.99853
3.9365
3.81342
3.71358
3.6833
3.67546
3.67971
3.68807
3.70697
3.73133
3.75461
3.7739
3.78254
3.7834
3.78168
3.7782
3.77761
3.77741
3.77623
3.77668
3.7795
3.78235
3.7831
3.78159
3.77863
3.77339
3.76734
3.76478
3.76455
3.76668
1
1
1
1
0.999998
1
0.999983
1.0001
1.0053
1.07205
1.43763
2.11933
3.21586
3.733
4.0522
4.02726
3.94205
3.91737
3.85153
3.79532
3.77317
3.73935
3.72699
3.72
3.72257
3.73037
3.74459
3.75826
3.76586
3.77124
3.77448
3.77437
3.7733
3.77096
3.76956
3.76775
3.76641
3.76762
3.77131
3.77679
3.78159
3.78312
3.78162
3.77826
3.77268
3.76886
3.7687
3.7712
1
0.999976
1.00007
1.00005
1.00129
1.01341
1.0607
1.22357
1.59814
2.36773
3.29501
3.94196
4.31057
4.31903
4.24353
4.11709
3.98464
3.79702
3.68464
3.68098
3.69445
3.71564
3.7372
3.74483
3.74585
3.74268
3.74742
3.75095
3.7535
3.75768
3.76278
3.76705
3.76778
3.76669
3.7644
3.76284
3.76333
3.7658
3.77031
3.77738
3.78479
3.7878
3.78737
3.78529
3.78063
3.77371
3.77025
3.77231
1.00179
1.01441
1.07825
1.20022
1.40982
1.76884
2.21415
2.75247
3.32228
3.72679
3.88257
4.08015
4.05803
3.95504
3.83866
3.78938
3.74202
3.69111
3.674
3.67076
3.68391
3.70536
3.72362
3.73339
3.73884
3.74553
3.75237
3.75573
3.759
3.76532
3.77273
3.77893
3.78202
3.78166
3.77836
3.77362
3.77093
3.77124
3.77291
3.77533
3.77813
3.77923
3.77864
3.7769
3.77285
3.76793
3.7663
3.76803
1.28957
1.76159
2.30723
2.88042
3.59446
4.15063
4.66487
5.12496
5.3429
5.24453
4.91578
4.48248
4.09803
3.793
3.65854
3.57431
3.55225
3.56724
3.60603
3.64863
3.68512
3.70322
3.71553
3.72806
3.74133
3.75353
3.76281
3.76951
3.77712
3.7882
3.7971
3.79863
3.79666
3.7909
3.78187
3.77333
3.76788
3.76505
3.76436
3.76466
3.76548
3.76857
3.76947
3.76958
3.76945
3.76883
3.76788
3.76919
2.66737
1.69266
1.07748
0.880262
0.746846
0.650658
0.663056
0.72767
0.787806
0.823668
0.879699
0.974717
1.02023
1.01595
1.02071
1.04838
1.05511
1.05609
1.06418
1.07402
1.07476
1.07281
1.07111
1.06806
1.05504
1.04231
1.04124
1.04351
1.04591
1.04546
1.04401
1.04316
1.04159
1.03955
1.03917
1.03985
1.04267
1.04555
1.04594
1.04569
1.04403
1.04013
1.03778
1.03681
1.03552
1.03243
1.02786
1.0235
1.01927
1.01324
1.00447
0.996034
0.988884
0.985525
0.981919
0.985382
1.01946
1.17972
1.73101
2.68928
3.65732
4.67019
5.77105
6.73421
7.26251
7.5988
7.45975
7.16123
6.74066
6.41806
6.18522
6.00024
5.8037
5.56158
5.31798
5.18139
5.08132
5.01005
4.98105
4.95447
4.88721
4.80041
4.6741
4.50401
4.37515
4.28434
4.20181
4.12299
4.04472
3.96493
3.88586
3.81288
3.75382
3.70662
3.6593
3.60146
3.51337
3.36625
3.24221
3.19672
3.16823
3.14345
3.11681
3.08619
3.04883
2.98377
2.86573
2.77768
2.74557
2.7196
2.69301
2.66637
2.63812
2.60297
2.54364
2.44946
2.37493
2.33324
2.31278
2.29817
2.28401
2.2657
2.24174
2.20352
2.13745
2.05821
2.00199
1.97431
1.95894
1.9455
1.93122
1.91507
1.89551
1.86676
1.81818
1.74837
1.69222
1.66919
1.65706
1.64731
1.63866
1.62817
1.6141
1.58883
1.53736
1.49354
1.48242
1.47693
1.47367
1.4703
1.46573
1.46016
1.4485
1.42741
1.41
1.39975
1.38871
1.37517
1.36034
1.34283
1.31916
1.29464
1.28063
1.27326
1.26712
1.25914
1.24395
1.21902
1.20169
1.1927
1.1839
1.17579
1.16946
1.16347
1.1543
1.13861
1.12264
1.11388
1.1087
1.10345
1.09518
1.08181
1.07201
1.06751
1.0634
1.05877
1.05527
1.05732
1.05993
1.06109
1.0607
1.05381
3.36541
2.7898
2.14736
1.72613
1.51787
1.2718
1.10753
1.06388
1.00064
0.936844
0.920918
0.934031
0.934772
0.9368
0.948674
0.97781
0.997637
1.0066
1.02133
1.04357
1.05041
1.04985
1.05144
1.05283
1.04938
1.04363
1.04351
1.04614
1.04963
1.04991
1.04922
1.04928
1.04776
1.0456
1.04496
1.04506
1.04588
1.04583
1.0453
1.04397
1.04145
1.03837
1.03609
1.03457
1.0328
1.02999
1.02673
1.02294
1.01803
1.01236
1.00417
0.99583
0.989005
0.985921
1.00688
1.13717
1.40753
1.90145
2.5097
2.67062
2.86749
3.24888
3.75283
4.31647
4.87307
5.39144
5.77574
5.99783
6.20143
6.34337
6.28018
6.13413
5.97064
5.75814
5.51121
5.28749
5.13086
5.05469
5.02052
4.99794
4.93208
4.83572
4.70276
4.54132
4.40697
4.30962
4.23337
4.1628
4.08909
4.01274
3.93171
3.85539
3.7946
3.74223
3.68706
3.6198
3.53136
3.4067
3.28652
3.23385
3.20603
3.17849
3.14971
3.11609
3.07319
3.0064
2.90213
2.81416
2.77741
2.75189
2.72415
2.69422
2.66127
2.62175
2.56483
2.48333
2.41567
2.37156
2.343
2.32646
2.30978
2.28898
2.26188
2.22263
2.16451
2.09582
2.04302
2.01064
1.98967
1.97258
1.95526
1.93646
1.91458
1.88369
1.83371
1.76975
1.72266
1.70034
1.68365
1.67067
1.65989
1.64823
1.63234
1.60581
1.56
1.51954
1.5062
1.4995
1.49492
1.49092
1.48648
1.48141
1.4721
1.45434
1.43444
1.42108
1.40914
1.39603
1.38241
1.36759
1.34817
1.32262
1.30123
1.29018
1.28332
1.27653
1.26588
1.24594
1.2248
1.21254
1.20282
1.1943
1.18778
1.18175
1.17363
1.16069
1.14367
1.13022
1.12321
1.11846
1.11205
1.10063
1.0905
1.08579
1.0816
1.07679
1.07244
1.07237
1.07396
1.07509
1.07518
1.0711
3.65987
3.34041
2.87097
2.35518
1.99153
1.67458
1.39016
1.25381
1.14852
1.00715
0.952532
0.952731
0.935915
0.924755
0.931007
0.941908
0.952774
0.965749
0.985028
1.02103
1.03704
1.03624
1.0373
1.04147
1.04114
1.03998
1.04378
1.05109
1.05706
1.05764
1.0567
1.05449
1.05001
1.04784
1.04749
1.04726
1.04642
1.04496
1.04363
1.04067
1.03712
1.03586
1.03477
1.03322
1.03116
1.02886
1.02653
1.02339
1.01862
1.0117
1.00221
0.994576
1.00224
1.04887
1.31692
1.84741
2.28227
2.71625
2.79533
2.8011
2.84322
2.88709
2.93394
3.02146
3.26246
3.70269
4.39817
5.15443
5.69687
6.04319
6.21188
6.1935
6.11549
5.96113
5.64903
5.39285
5.21183
5.07337
5.00638
4.94517
4.8592
4.74161
4.60488
4.46977
4.36567
4.3023
4.24289
4.1773
4.103
4.00286
3.88033
3.77713
3.71377
3.66697
3.6184
3.55895
3.48555
3.41424
3.34728
3.26356
3.17553
3.12096
3.0868
3.05666
3.01973
2.96635
2.89972
2.82237
2.74518
2.70383
2.67911
2.65236
2.62206
2.58625
2.54011
2.48613
2.4265
2.36489
2.31332
2.28351
2.2656
2.24526
2.22001
2.18695
2.14135
2.08914
2.03818
1.99609
1.96492
1.94216
1.92332
1.90248
1.87799
1.8477
1.80719
1.76402
1.7338
1.70351
1.67267
1.6472
1.62866
1.61372
1.59796
1.57617
1.5467
1.52249
1.50081
1.48181
1.47404
1.4698
1.46579
1.45998
1.44783
1.42993
1.41607
1.40588
1.39547
1.38288
1.36923
1.35481
1.33697
1.31175
1.28582
1.26901
1.25934
1.25265
1.24554
1.23243
1.21391
1.199
1.18735
1.17757
1.17115
1.16644
1.16014
1.14935
1.13448
1.11899
1.10764
1.10038
1.09301
1.08347
1.07743
1.07378
1.06978
1.06483
1.06052
1.05866
1.05926
1.06151
1.06292
1.06118
3.74964
3.61952
3.33098
2.89977
2.49211
2.14466
1.80216
1.59454
1.45091
1.26065
1.1493
1.11208
1.04539
0.97634
0.975265
0.969845
0.951201
0.944746
0.951733
0.967825
0.97667
0.982312
0.990904
1.00969
1.02187
1.02908
1.03851
1.0485
1.05126
1.0524
1.05308
1.05277
1.05304
1.05436
1.0566
1.05692
1.05588
1.05299
1.04831
1.04169
1.03734
1.03634
1.0352
1.03284
1.02967
1.0277
1.02548
1.02118
1.01475
1.00594
1.0075
1.04053
1.18494
1.5291
2.21299
2.58743
2.82769
2.9352
2.91714
2.87617
2.83525
2.82631
2.80943
2.77941
2.74228
2.74611
2.86476
3.21556
3.77414
4.48133
5.15187
5.58281
5.73129
5.72159
5.69543
5.59124
5.43975
5.25468
5.069
4.91606
4.78883
4.6651
4.55859
4.48447
4.4254
4.36815
4.30087
4.22213
4.13549
4.02085
3.87517
3.74298
3.6611
3.61862
3.58041
3.54158
3.50773
3.4701
3.41071
3.30722
3.19244
3.11691
3.06208
3.02216
2.99559
2.96841
2.92283
2.84791
2.75358
2.689
2.65702
2.6316
2.60804
2.58594
2.55751
2.51455
2.4494
2.3737
2.31475
2.27583
2.25073
2.2253
2.19861
2.17448
2.14651
2.10515
2.05212
2.00137
1.96305
1.93338
1.91309
1.8944
1.86566
1.82943
1.80246
1.78096
1.75283
1.716
1.67776
1.64634
1.62308
1.6027
1.58099
1.55942
1.5428
1.52651
1.5051
1.48246
1.46959
1.46399
1.46012
1.45526
1.444
1.4227
1.4113
1.40705
1.39913
1.38696
1.37299
1.3581
1.33935
1.31293
1.2854
1.26542
1.25236
1.24367
1.23641
1.22714
1.21325
1.19823
1.18496
1.17324
1.16453
1.1594
1.15461
1.14604
1.13373
1.11963
1.10702
1.09708
1.08709
1.07817
1.07398
1.07074
1.06694
1.06234
1.05849
1.05636
1.0569
1.05871
1.06042
1.06021
3.76077
3.73273
3.59866
3.2982
2.93761
2.58757
2.20943
1.94957
1.76877
1.53895
1.36172
1.2713
1.18099
1.06009
1.02833
1.01047
0.969555
0.950201
0.956712
0.962805
0.957293
0.956095
0.959652
0.972477
0.992072
1.00875
1.02435
1.03946
1.04239
1.04521
1.04818
1.04773
1.04769
1.05385
1.05673
1.05691
1.05606
1.05286
1.0476
1.0416
1.03936
1.0388
1.03787
1.03515
1.03126
1.02807
1.02409
1.01828
1.00923
1.01518
1.10201
1.46433
1.90131
2.42371
2.87955
2.94662
2.94612
2.94069
2.89555
2.83489
2.80984
2.78666
2.75803
2.7273
2.68694
2.65437
2.61602
2.57238
2.61764
2.79365
3.30983
4.01929
4.7452
5.17933
5.55443
5.56613
5.52526
5.40809
5.17427
4.90113
4.73841
4.63296
4.53691
4.47173
4.42008
4.36808
4.29953
4.20961
4.10656
3.98999
3.8536
3.73109
3.64125
3.59307
3.55353
3.50819
3.46396
3.42795
3.38303
3.30869
3.21068
3.11736
3.05139
3.00564
2.9673
2.92662
2.88083
2.82585
2.76037
2.695
2.64942
2.61745
2.58585
2.55304
2.51987
2.48132
2.43255
2.37892
2.32273
2.26797
2.23104
2.21085
2.18776
2.15147
2.10987
2.0726
2.03769
2.00553
1.97626
1.94414
1.90725
1.87401
1.84404
1.81612
1.79029
1.76756
1.74654
1.7221
1.69081
1.65528
1.62177
1.59714
1.57694
1.55861
1.54097
1.52232
1.50362
1.48643
1.47269
1.46404
1.45873
1.45309
1.44435
1.43098
1.40978
1.38948
1.37836
1.36873
1.35578
1.33997
1.32444
1.30978
1.29042
1.26982
1.2536
1.243
1.23452
1.22536
1.21467
1.20286
1.19023
1.17712
1.16597
1.15623
1.14894
1.14622
1.14179
1.13252
1.11653
1.09906
1.08434
1.07743
1.07467
1.07197
1.06868
1.06452
1.06124
1.06015
1.06044
1.06128
1.06197
1.06099
3.7694
3.75533
3.71215
3.55853
3.29037
2.98449
2.6201
2.30808
2.08177
1.84939
1.64597
1.51659
1.40053
1.25075
1.18668
1.14901
1.08694
1.02734
1.02223
1.00384
0.975653
0.961219
0.961985
0.961909
0.964651
0.974869
0.992433
1.00903
1.01759
1.02429
1.03275
1.03726
1.04058
1.04933
1.05368
1.05426
1.05384
1.05149
1.04597
1.04223
1.04127
1.04067
1.04156
1.04001
1.03622
1.03162
1.0245
1.02165
1.04754
1.19213
1.72304
2.34132
2.67628
2.91448
2.99574
2.97563
2.92213
2.90595
2.88905
2.83117
2.76142
2.71345
2.67771
2.65571
2.63716
2.61467
2.58475
2.54681
2.47864
2.37517
2.37281
2.50516
2.90087
3.5159
4.224
4.75465
5.04814
5.09874
5.04167
4.91974
4.81457
4.72687
4.61275
4.51777
4.45452
4.38381
4.30277
4.20478
4.09232
3.97028
3.84598
3.74135
3.64224
3.58109
3.54195
3.49491
3.44724
3.40575
3.37148
3.32496
3.23659
3.13269
3.05147
2.98857
2.94152
2.90375
2.86589
2.82433
2.77317
2.7093
2.6462
2.60107
2.56721
2.53621
2.5046
2.47021
2.43207
2.38334
2.32373
2.26991
2.2334
2.19861
2.16494
2.13217
2.09849
2.0667
2.03858
2.01373
1.98631
1.94908
1.89916
1.85111
1.8221
1.79902
1.77834
1.76251
1.74915
1.73562
1.71463
1.67366
1.63071
1.60543
1.58917
1.57305
1.55474
1.53654
1.5218
1.50888
1.49442
1.47964
1.47019
1.46433
1.45583
1.43717
1.41207
1.38872
1.36999
1.35842
1.34943
1.33676
1.32173
1.30817
1.30043
1.28656
1.26749
1.25414
1.24563
1.2387
1.23198
1.22374
1.21217
1.19504
1.17409
1.15755
1.14801
1.13851
1.12948
1.12313
1.11864
1.11108
1.09758
1.09091
1.08885
1.08696
1.08386
1.07985
1.07717
1.07756
1.07823
1.07853
1.07892
1.07476
3.77833
3.77395
3.75965
3.69246
3.53967
3.29559
2.96649
2.67924
2.42059
2.13895
1.93045
1.77096
1.62987
1.47337
1.37694
1.30152
1.20944
1.12078
1.08831
1.05205
1.00072
0.974615
0.975414
0.969661
0.967742
0.97308
0.981106
0.983576
0.984714
0.98959