/*--------------------------------*- C++ -*----------------------------------*\
  =========                 |
  \\      /  F ield         | OpenFOAM: The Open Source CFD Toolbox
   \\    /   O peration     | Website:  https://openfoam.org
    \\  /    A nd           | Version:  7
     \\/     M anipulation  |
\*---------------------------------------------------------------------------*/
FoamFile
{
    version     2.0;
    format      ascii;
    class       volScalarField;
    location    "0.7";
    object      T;
}
// * * * * * * * * * * * * * * * * * * * * * * * * * * * * * * * * * * * * * //

dimensions      [0 0 0 1 0 0 0];

internalField   nonuniform List<scalar> 
18432
(
1
1
1
1
1
1
1
1
1
1
1
1
1
1
1
1
1
1
1
1
1
1
1
1
1
1
1
1
1
1
1
1
1
1
1
1
1
1
1
1
1
1
1
1
1
1
1
1
1
1
1
1
1
1
1
1
1
1
1
1
1
1
1
1
1
1
1
1
1
1
1
1
1
1
1
1
1
1
1
1
1
1
1
1
1
1
1
1
1
1
1
1
1
1
1
1
1
1
1
1
1
1
1
1
1
1
1
1
1
1
1
1
1
1
1
1
1
1
1
1
1
1
1
1
1
1
1
1
1
1
1
1
1
1
1
1
1
1
1
1
1
1
1
1
1
1
1
1
1
1
1
1
1
1
1
1
1
1
1
1
1
1
1
1
1
1
1
1
1
1
1
1
1
1
1
1
1
1
1
1
1
1
1
1
1
1
1
1
1
1
1
1
1
1
1
1
1
1
1
1
1
1
1
1
1
1
1
1
1
1
1
1
1
1
1
1
1
1
1
1
1
1
1
1
1
1
1
1
1
1
1
1
1
1
1
1
1
1
1
1
1
1
1
1
1
1
1
1
1
1
1
1
1
1
1
1
1
1
1
1
1
1
1
1
1
1
1
1
1
1
1
1
1
1
1
1
1
1
1
1
1
1
1
1
1
1
1
1
1
1
1
1
1
1
1
1
1
1
1
1
1
1
1
1
1
1
1
1
1
1
1
1
1
1
1
1
1
1
1
1
1
1
1
1
1
1
1
1
1
1
1
1
1
1
1
1
1
1
1
1
1
1
1
1
1
1
1
1
1
1
1
1
1
1
1
1
1
1
1
1
1
1
1
1
1
1
1
1
1
1
1
1
1
1
1
1
1
1
1
1
1
1
1
1
1
1
1
1
1
1
1
1
1
1
1
1
1
1
1
1
1
1
1
1
1
1
1
1
1
1
1
1
1
1
1
1
1
1
1
1
1
1
1
1
1
1
1
1
1
1
1
1
1
1
1
1
1
1
1
1
1
1
1
1
1
1
1
1
1
1
1
1
1
1
1
1
1
1
1
1
1
1
1
1
1
1
1
1
1
1
1
1
1
1
1
1
1
1
1
1
1
1
1
1
1
1
1
1
1
1
1
1
1
1
1
1
1
1
1
1
1
1
1
1
1
1
1
1
1
1
1
1
1
1
1
1
1
1
1
1
1
1
1
1
1
1
1
1
1
1
1
1
1
1
1
1
1
1
1
1
1
1
1
1
1
1
1
1
1
1
1
1
1
1
1
1
1
1
1
1
1
1
1
1
1
1
1
1
1
1
1
1
1
1
1
1
1
1
1
1
1
1
1
1
1
1
1
1
1
1
1
1
1
1
1
1
1
1
1
1
1
1
1
1
1
1
1
1
1
1
1
1
1
1
1
1
1
1
1
1
1
1
1
1
1
1
1
1
1
1
1
1
1
1
1
1
1
1
1
1
1
1
1
1
1
1
1
1
1
1
1
1
1
1
1
1
1
1
1
1
1
1
1
1
1
1
1
1
1
1
1
1
1
1
1
1
1
1
1
1
1
1
1
1
1
1
1
1
1
1
1
1
1
1
1
1
1
1
1
1
1
1
1
1
1
1
1
1
1
1
1
1
1
1
1
1
1
1
1
1
1
1
1
1
1
1
1
1
1
1
1
1
1
1
1
1
1
1
1
1
1
1
1
1
1
1
1
1
1
1
1
1
1
1
1
1
1
1
1
1
1
1
1
1
1
1
1
1
1
1
1
1
1
1
1
1
1
1
1
1
1
1
1
1
1
1
1
1
1
1
1
1
1
1
1
1
1
1
1
1
1
1
1
1
1
1
1
1
1
1
1
1
1
1
1
1
1
1
1
1
1
1
1
1
1
1
1
1
1
1
1
1
1
1
1
1
1
1
1
1
1
1
1
1
1
1
1
1
1
1
1
1
1
1
1
1
1
1
1
1
1
1
1
1
1
1
1
1
1
1
1
1
1
1
1
1
1
1
1
1
1
1
1
1
1
1
1
1
1
1
1
1
1
1
1
1
1
1
1
1
1
1
1
1
1
1
1
1
1
1
1
1
1
1
1
1
1
1
1
1
1
1
1
1
1
1
1
1
1
1
1
1
1
1
1
1
1
1
1
1
1
1
1
1
1
1
1
1
1
1
1
1
1
1
1
1
1
1
1
1
1
1
1
1
1
1
1
1
1
1
1
1
1
1
1
1
1
1
1
1
1
1
1
1
1
1
1
1
1
1
1
1
1
1
1
1
1
1
1
1
1
1
1
1
1
1
1
1
1
1
1
1
1
1
1
1
1
1
1
1
1
1
1
1
1
1
1
1
1
1
1
1
1
1
1
1
1
1
1
1
1
1
1
1
1
1
1
1
1
1
1
1
1
1
1
1
1
1
1
1
1
1
1
1
1
1
1
1
1
1
1
1
1
1
1
1
1
1
1
1
1
1
1
1
1
1
1
1
1
1
1
1
1
1
1
1
1
1
1
1
1
1
1
1
1
1
1
1
1
1
1
1
1
1
1
1
1
1
1
1
1
1
1
1
1
1
1
1
1
1
1
1
1
1
1
1
1
1
1
1
1
1
1
1
1
1
1
1
1
1
1
1
1
1
1
1
1
1
1
1
1
1
1
1
1
1
1
1
1
1
1
1
1
1
1
1
1
1
1
1
1
1
1
1
1
1
1
1
1
1
1
1
1
1
1
1
1
1
1
1
1
1
1
1
1
1
1
1
1
1
1
1
1
1
1
1
1
1
1
1
1
1
1
1
1
1
1
1
1
1
1
1
1
1
1
1
1
1
1
1
1
1
1
1
1
1
1
1
1
1
1
1
1
1
1
1
1
1
1
1
1
1
1
1
1
1
1
1
1
1
1
1
1
1
1
1
1
1
1
1
1
1
1
1
1
1
1
1
1
1
1
1
1
1
1
1
1
1
1
1
1
1
1
1
1
1
1
1
1
1
1
1
1
1
1
1
1
1
1
1
1
1
1
1
1
1
1
1
1
1
1
1
1
1
1
1
1
1
1
1
1
1
1
1
1
1
1
1
1
1
1
1
1
1
1
1
1
1
1
1
1
1
1
1
1
1
1
1
1
1
1
1
1
1
1
1
1
1
1
1
1
1
1
1
1
1
1
1
1
1
1
1
1
1
1
1
1
1
1
1
1
1
1
1
1
1
1
1
1
1
1
1
1
1
1
1
1
1
1
1
1
1
1
1
1
1
1
1
1
1
1
1
1
1
1
1
1
1
1
1
1
1
1
1
1
1
1
1
1
1
1
1
1
1
1
1
1
1
1
1
1
1
1
1
1
1
1
1
1
1
1
1
1
1
1
1
1
1
1
1
1
1
1
1
1
1
1
1
1
1
1
1
1
1
1
1
1
1
1
1
1
1
1
1
1
1
1
1
1
1
1
1
1
1
1
1
1
1
1
1
1
1
1
1
1
1
1
1
1
1
1
1
1
1
1
1
1
1
1
1
1
1
1
1
1
1
1
1
1
1
1
1
1
1
1
1
1
1
1
1
1
1
1
1
1
1
1
1
1
1
1
1
1
1
1
1
1
1
1
1
1
1
1
1
1
1
1
1
1
1
1
1
1
1
1
1
1
1
1
1
1
1
1
1
1
1
1
1
1
1
1
1
1
1
1
1
1
1
1
1
1
1
1
1
1
1
1
1
1
1
1
1
1
1
1
1
1
1
1
1
1
1
1
1
1
1
1
1
1
1
1
1
1
1
1
1
1
1
1
1
1
1
1
1
1
1
1
1
1
1
1
1
1
1
1
1
1
1
1
1
1
1
1
1
1
1
1
1
1
1
1
1
1
1
1
1
1
1
1
1
1
1
1
1
1
1
1
1
1
1
1
1
1
1
1
1
1
1
1
1
1
1
1
1
1
1
1
1
1
1
1
1
1
1
1
1
1
1
1
1
1
1
1
1
1
1
1
1
1
1
1
1
1
1
1
1
1
1
1
1
1
1
1
1
1
1
1
1
1
1
1
1
1
1
1
1
1
1
1
1
1
1
1
1
1
1
1
1
1
1
1
1
1
1
1
1
1
1
1
1
1
1
1
1
1
1
1
1
1
1
1
1
1
1
1
1
1
1
1
1
1
1
1
1
1
1
1
1
1
1
1
1
1
1
1
1
1
1
1
1
1
1
1
1
1
1
1
1
1
1
1
1
1
1
1
1
1
1
1
1
1
1
1
1
1
1
1
1
1
1
1
1
1
1
1
1
1
1
1
1
1
1
1
1
1
1
1
1
1
1
1
1
1
1
1
1
1
1
1
1
1
1
1
1
1
1
1
1
1
1
1
1
1
1
1
1
1
1
1
1
1
1
1
1
1
1
1
1
1
1
1
1
1
1
1
1
1
1
1
1
1
1
1
1
1
1
1
1
1
1
1
1
1
1
1
1
1
1
1
1
1
1
1
1
1
1
1
1
1
1
1
1
1
1
1
1
1
1
1
1
1
1
1
1
1
1
1
1
1
1
1
1
1
1
1
1
1
1
1
1
1
1
1
1
1
1
1
1
1
1
1
1
1
1
1
1
1
1
1
1
1
1
1
1
1
1
1
1
1
1
1
1
1
1
1
1
1
1
1
1
1
1
1
1
1
1
1
1
1
1
1
1
1
1
1
1
1
1
1
1
1
1
1
1
1
1
1
1
1
1
1
1
1
1
1
1
1
1
1
1
1
1
1
1
1
1
1
1
1
1
1
1
1
1
1
1
1
1
1
1
1
1
1
1
1
1
1
1
1
1
1
1
1
1
1
1
1
1
1
1
1
1
1
1
1
1
1
1
1
1
1
1
1
1
1
1
1
1
1
1
1
1
1
1
1
1
1
1
1
1
1
1
1
1
1
1
1
1
1
1
1
1
1
1
1
1
1
1
1
1
1
1
1
1
1
1
1
1
1
1
1
1
1
1
1
1
1
1
1
1
1
1
1
1
1
1
1
1
1
1
1
1
1
1
1
1
1
1
1
1
1
1
1
1
1
1
1
1
1
1
1
1
1
1
1
1
1
1
1
1
1
1
1
1
1
1
1
1
1
1
1
1
1
1
1
1
1
1
1
1
1
1
1
1
1
1
1
1
1
1
1
1
1
1
1
1
1
1
1
1
1
1
1
1
1
1
1
1
1
1
1
1
1
1
1
1
1
1
1
1
1
1
1
1
1
1
1
1
1
1
1
1
1
1
1
1
1
1
1
1
1
1
1
1
1
1
1
1
1
1
1
1
1
1
1
1
1
1
1
1
1
1
1
1
1
1
1
1
1
1
1
1
1
1
1
1
1
1
1
1
1
1
1
1
1
1
1
1
1
1
1
1
1
1
1
1
1
1
1
1
1
1
1
1
1
1
1
1
1
1
1
1
1
1
1
1
1
1
1
1
1
1
1
1
1
1
1
1
1
1
1
1
1
1
1
1
1
1
1
1
1
1
1
1
1
1
1
1
1
1
1
1
1
1
1
1
1
1
1
1
1
1
1
1
1
1
1
1
1
1
1
1
1
1
1
1
1
1
1
1
1
1
1
1
1
1
1
1
1
1
1
1
1
1
1
1
1
1
1
1
1
1
1
1
1
1
1
1
1
1
1
1
1
1
1
1
1
1
1
1
1
1
1
1
1
1
1
1
1
1
1
1
1
1
1
1
1
1
1
1
1
1
1
1
1
1
1
1
1
1
1
1
1
1
1
1
1
1
1
1
1
1
1
1
1
1
1
1
1
1
1
1
1
1
1
1
1
1
1
1
1
1
1
1
1
1
1
1
1
1
1
1
1
1
1
1
1
1
1
1
1
1
1
1
1
1
1
1
1
1
1
1
1
1
1
1
1
1
1
1
1
1
1
1
1
1
1
1
1
1
1
1
1
1
1
1
1
1
1
1
1
1
1
1
1
1
1
1
1
1
1
1
1
1
1
1
1
1
1
1
1
1
1
1
1
1
1
1
1
1
1
1
1
1
1
1
1
1
1
1
1
1
1
1
1
1
1
1
1
1
1
1
1
1
1
1
1
1
1
1
1
1
1
1
1
1
1
1
1
1
1
1
1
1
1
1
1
1
1
1
1
1
1
1
1
1
1
1
1
1
1
1
1
1
1
1
1
1
1
1
1
1
1
1
1
1
1
1
1
1
1
1
1
1
1
1
1
1
1
1
1
1
1
1
1
1
1
1
1
1
1
1
1
1
1
1
1
1
1
1
1
1
1
1
1
1
1
1
1
1
1
1
1
1
1
1
1
1
1
1
1
1
1
1
1
1
1
1
1
1
1
1
1
1
1
1
1
1
1
1
1
1
1
1
1
1
1
1
1
1
1
1
1
1
1
1
1
1
1
1
1
1
1
1
1
1
1
1
1
1
1
1
1
1
1
1
1
1
1
1
1
1
1
1
1
1
1
1
1
1
1
1
1
1
1
1
1
1
1
1
1
1
1
1
1
1
1
1
1
1
1
1
1
1
1
1
1
1
1
1
1
1
1
1
1
1
1
1
1
1
1
1
1
1
1
1
1
1
1
1
1
1
1
1
1
1
1
1
1
1
1
1
1
1
1
1
1
1
1
1
1
1
1
1
1
1
1
1
1
1
1
1
1
1
1
1
1
1
1
1
1
1
1
1
1
1
1
1
1
1
1
1
1
1
1
1
1
1
1
1
1
1
1
1
1
1
1
1
1
1
1
1
1
1
1
1
1
1
1
1
1
1
1
1
1
1
1
1
1
1
1
1
1
1
1
1
1
1
1
1
1
1
1
1
1
1
1
1
1
1
1
1
1
1
1
1
1
1
1
1
1
1
1
1
1
1
1
1
1
1
1
1
1
1
1
1
1
1
1
1
1
1
1
1
1
1
1
1
1
1
1
1
1
1
1
1
1
1
1
1
1
1
1
1
1
1
1
1
1
1
1
1
1
1
1
1
1
1
1
1
1
1
1.07783
1.18194
1.28323
1.37672
1.47996
1.55591
1.61966
1.67088
1.69536
1.68854
1.65854
1.6144
1.5743
1.5405
1.52514
1.51286
1.51253
1.51492
1.52032
1.52583
1.53006
1.53201
1.5336
1.53563
1.53801
1.54012
1.54138
1.54198
1.54278
1.54447
1.54611
1.54654
1.54656
1.54624
1.54527
1.54426
1.54379
1.54372
1.54389
1.54426
1.54458
1.54501
1.5452
1.54533
1.54547
1.54556
1.54559
1.5459
1.00057
1.00482
1.027
1.06737
1.12879
1.21653
1.29916
1.37921
1.45252
1.5054
1.52734
1.56256
1.56866
1.56253
1.55245
1.54597
1.54015
1.53472
1.53392
1.53346
1.53488
1.53708
1.53906
1.54053
1.54172
1.54301
1.54397
1.54411
1.54432
1.54514
1.54629
1.5473
1.54785
1.54787
1.54751
1.54686
1.54655
1.54665
1.54706
1.54757
1.54796
1.54805
1.54795
1.54773
1.54732
1.54687
1.54675
1.54728
1
0.999992
1.00002
1.00002
1.00045
1.00466
1.02113
1.07515
1.18168
1.34844
1.49752
1.58466
1.62532
1.62322
1.61212
1.5969
1.58166
1.56004
1.54834
1.54759
1.54899
1.55102
1.55288
1.55324
1.55342
1.55317
1.55388
1.55391
1.55371
1.5537
1.55395
1.5545
1.55444
1.5542
1.55369
1.55306
1.5528
1.55285
1.55323
1.55399
1.55465
1.55473
1.55441
1.55379
1.55307
1.55227
1.55175
1.5527
1
1
1
1
0.999999
1
0.999993
1.00004
1.00192
1.02759
1.15653
1.33
1.51439
1.57634
1.60962
1.60572
1.5946
1.59205
1.5849
1.57867
1.57553
1.57085
1.56832
1.56599
1.56567
1.56622
1.56771
1.56897
1.56914
1.56888
1.5684
1.56795
1.56748
1.56681
1.56612
1.5651
1.56407
1.5637
1.56374
1.56404
1.56416
1.56387
1.56301
1.56186
1.56078
1.56013
1.55976
1.56071
1
1
1
1
1
1
1
1
1
0.999968
1.00089
1.01459
1.1138
1.29307
1.46716
1.5826
1.60555
1.61806
1.61527
1.60703
1.59174
1.57908
1.57423
1.57239
1.57221
1.57284
1.5748
1.57692
1.57863
1.57981
1.58022
1.58018
1.57976
1.57885
1.57808
1.57707
1.57597
1.57549
1.5755
1.57553
1.5752
1.57429
1.573
1.57149
1.57024
1.56957
1.569
1.56976
1
1
1
1
1
1
1
1
1
0.999999
0.999999
0.999981
1.00031
1.01126
1.07624
1.26417
1.42975
1.56153
1.60038
1.59732
1.5972
1.59087
1.58386
1.58072
1.5791
1.57784
1.57767
1.57817
1.57947
1.58145
1.58378
1.58502
1.58481
1.58421
1.58329
1.58239
1.58181
1.58177
1.58197
1.58192
1.58136
1.58038
1.57933
1.57844
1.5778
1.57745
1.57692
1.5779
1
1
1
1
1
1
1
1
1
1
1
0.999999
0.999999
0.999988
1.00012
1.0084
1.06788
1.21513
1.39631
1.51037
1.58572
1.59676
1.59449
1.59181
1.58769
1.58243
1.57818
1.57793
1.57848
1.57984
1.5815
1.58335
1.58407
1.58386
1.58315
1.58293
1.58312
1.58383
1.5844
1.58437
1.58395
1.58331
1.58286
1.58264
1.58245
1.58233
1.58202
1.58263
1
1
1
1
1
1
1
1
1
1
1
1
1
0.999999
0.999999
0.99999
1.00015
1.00428
1.05792
1.18696
1.37454
1.48262
1.5507
1.58111
1.58411
1.58285
1.57985
1.57944
1.57905
1.57871
1.57871
1.57866
1.57971
1.58088
1.58155
1.58222
1.583
1.58406
1.58476
1.58475
1.58443
1.5838
1.58354
1.58353
1.58351
1.58341
1.58338
1.58354
1
1
1
1
1
1
1
1
1
1
1
1
1
1
1
0.999999
0.999999
0.999993
1.00016
1.00366
1.04489
1.18391
1.34161
1.47661
1.52315
1.55345
1.56953
1.57458
1.5744
1.57277
1.57333
1.57409
1.57512
1.57661
1.57833
1.58004
1.58159
1.58279
1.58316
1.58313
1.58299
1.58275
1.58247
1.58242
1.5825
1.58257
1.58273
1.58282
1
1
1
1
1
1
1
1
1
1
1
1
1
1
1
1
1
0.999999
0.999999
0.999994
1.00011
1.00462
1.03599
1.16717
1.322
1.46388
1.52781
1.5442
1.55685
1.55963
1.56312
1.56503
1.56591
1.56762
1.57023
1.57281
1.57503
1.57647
1.57743
1.57802
1.57847
1.57906
1.57955
1.57989
1.58022
1.58059
1.5812
1.58119
1
1
1
1
1
1
1
1
1
1
1
1
1
1
1
1
1
1
1
1
1
0.999995
1.00008
1.00414
1.03704
1.14971
1.32439
1.45075
1.52872
1.54866
1.55298
1.55682
1.55866
1.5604
1.56218
1.56372
1.56558
1.56769
1.56961
1.57083
1.57167
1.57266
1.57343
1.57402
1.57483
1.57566
1.57696
1.57725
1
1
1
1
1
1
1
1
1
1
1
1
1
1
1
1
1
1
1
1
1
1
1
0.999996
1.00012
1.00324
1.04554
1.15418
1.32718
1.445
1.52009
1.54911
1.55663
1.55974
1.56162
1.56133
1.56141
1.56296
1.56502
1.56617
1.56683
1.56716
1.5674
1.56795
1.56905
1.57017
1.57174
1.57216
1
1
1
1
1
1
1
1
1
1
1
1
1
1
1
1
1
1
1
1
1
1
1
0.999999
1
0.999996
1.00026
1.00384
1.04677
1.17554
1.34098
1.45342
1.51147
1.5437
1.55498
1.55594
1.55729
1.55937
1.56086
1.56218
1.56288
1.56297
1.56334
1.56398
1.56496
1.56608
1.56753
1.56778
1
1
1
1
1
1
1
1
1
1
1
1
1
1
1
1
1
1
1
1
1
1
1
1
1
0.999999
1
0.999997
1.00036
1.00646
1.0523
1.20262
1.3648
1.48746
1.51926
1.53382
1.54475
1.55101
1.55307
1.55469
1.55652
1.55813
1.55905
1.5599
1.56089
1.56178
1.5633
1.56334
1
1
1
1
1
1
1
1
1
1
1
1
1
1
1
1
1
1
1
1
1
1
1
1
1
1
1
1
1
1
1.00049
1.01213
1.07265
1.24226
1.39881
1.50948
1.5403
1.54326
1.54712
1.54904
1.55107
1.5529
1.55427
1.55532
1.55669
1.55838
1.55978
1.55975
1
1
1
1
1
1
1
1
1
1
1
1
1
1
1
1
1
1
1
1
1
1
1
1
1
1
1
1
1
1
0.999999
1.00003
1.00101
1.02164
1.11032
1.29758
1.43975
1.51987
1.55166
1.55309
1.55669
1.55727
1.5568
1.55597
1.55626
1.55725
1.55773
1.55756
1
1
1
1
1
1
1
1
1
1
1
1
1
1
1
1
1
1
1
1
1
1
1
1
1
1
1
1
1
1
1
1
0.999999
1.00012
1.00266
1.04197
1.17425
1.35975
1.47185
1.52651
1.55351
1.55639
1.55575
1.55677
1.55754
1.55807
1.55823
1.55784
1
1
1
1
1
1
1
1
1
1
1
1
1
1
1
1
1
1
1
1
1
1
1
1
1
1
1
1
1
1
1
1
1
1
1
1.0005
1.00825
1.08019
1.25555
1.43796
1.51467
1.53097
1.54214
1.5506
1.55416
1.55556
1.55618
1.55611
1
1
1
1
1
1
1
1
1
1
1
1
1
1
1
1
1
1
1
1
1
1
1
1
1
1
1
1
1
1
1
1
1
1
1
0.999999
1.00002
1.00208
1.02794
1.15733
1.34808
1.49254
1.5458
1.54923
1.55282
1.55369
1.55336
1.55361
1
1
1
1
1
1
1
1
1
1
1
1
1
1
1
1
1
1
1
1
1
1
1
1
1
1
1
1
1
1
1
1
1
1
1
1
1
1
1.00024
1.00865
1.07871
1.26534
1.44042
1.52617
1.55836
1.55991
1.55906
1.55819
1
1
1
1
1
1
1
1
1
1
1
1
1
1
1
1
1
1
1
1
1
1
1
1
1
1
1
1
1
1
1
1
1
1
1
1
1
1
1
1.00004
1.00185
1.03569
1.18562
1.3883
1.49307
1.53536
1.55727
1.55755
1
1
1
1
1
1
1
1
1
1
1
1
1
1
1
1
1
1
1
1
1
1
1
1
1
1
1
1
1
1
1
1
1
1
1
1
1
1
1
1
1
1.00061
1.01257
1.1142
1.31228
1.48955
1.53639
1.54439
1
1
1
1
1
1
1
1
1
1
1
1
1
1
1
1
1
1
1
1
1
1
1
1
1
1
1
1
1
1
1
1
1
1
1
1
1
1
1
1
1
1
1.00009
1.00566
1.05926
1.26099
1.44504
1.54316
1
1
1
1
1
1
1
1
1
1
1
1
1
1
1
1
1
1
1
1
1
1
1
1
1
1
1
1
1
1
1
1
1
1
1
1
1
1
1
1
1
1
1
1.00003
1.00152
1.04027
1.19607
1.42159
1
1
1
1
1
1
1
1
1
1
1
1
1
1
1
1
1
1
1
1
1
1
1
1
1
1
1
1
1
1
1
1
1
1
1
1
1
1
1
1
1
1
1
1
1
1.00096
1.01868
1.13989
1
1
1
1
1
1
1
1
1
1
1
1
1
1
1
1
1
1
1
1
1
1
1
1
1
1
1
1
1
1
1
1
1
1
1
1
1
1
1
1
1
1
1
1
1
1
1.00028
1.00656
1
1
1
1
1
1
1
1
1
1
1
1
1
1
1
1
1
1
1
1
1
1
1
1
1
1
1
1
1
1
1
1
1
1
1
1
1
1
1
1
1
1
1
1
1
1
1
0.999938
1
1
1
1
1
1
1
1
1
1
1
1
1
1
1
1
1
1
1
1
1
1
1
1
1
1
1
1
1
1
1
1
1
1
1
1
1
1
1
1
1
1
1
1
1
1
1
0.999982
1
1
1
1
1
1
1
1
1
1
1
1
1
1
1
1
1
1
1
1
1
1
1
1
1
1
1
1
1
1
1
1
1
1
1
1
1
1
1
1
1
1
1
1
1
1
1
0.999998
1
1
1
1
1
1
1
1
1
1
1
1
1
1
1
1
1
1
1
1
1
1
1
1
1
1
1
1
1
1
1
1
1
1
1
1
1
1
1
1
1
1
1
1
1
1
1
1
1
1
1
1
1
1
1
1
1
1
1
1
1
1
1
1
1
1
1
1
1
1
1
1
1
1
1
1
1
1
1
1
1
1
1
1
1
1
1
1
1
1
1
1
1
1
1
1
1
1
1
1
1
1
1
1
1
1
1
1
1
1
1
1
1
1
1
1
1
1
1
1
1
1
1
1
1
1
1
1
1
1
1
1
1
1
1
1
1
1
1
1
1
1
1
1
1
1
1
1
1
1
1
1
1
1
1
1
1
1
1
1
1
1
1
1
1
1
1
1
1
1
1
1
1
1
1
1
1
1
1
1
1
1
1
1
1
1
1
1
1
1
1
1
1
1
1
1
1
1
1
1
1
1
1
1
1
1
1
1
1
1
1
1
1
1
1
1
1
1
1
1
1
1
1
1
1
1
1
1
1
1
1
1
1
1
1
1
1
1
1
1
1
1
1
1
1
1
1
1
1
1
1
1
1
1
1
1
1
1
1
1
1
1
1
1
1
1
1
1
1
1
1
1
1
1
1
1
1
1
1
1
1
1
1
1
1
1
1
1
1
1
1
1
1
1
1
1
1
1
1
1
1
1
1
1
1
1
1
1
1
1
1
1
1
1
1
1
1
1
1
1
1
1
1
1
1
1
1
1
1
1
1
1
1
1
1
0.999998
1
1
1
1
1
1
1
1
1
1
1
1
1
1
1
1
1
1
1
1
1
1
1
1
1
1
1
1
1
1
1
1
1
1
1
1
1
1
1
1
1
1
1
1
1
1
1
0.999982
1
1
1
1
1
1
1
1
1
1
1
1
1
1
1
1
1
1
1
1
1
1
1
1
1
1
1
1
1
1
1
1
1
1
1
1
1
1
1
1
1
1
1
1
1
1
1
0.999938
1
1
1
1
1
1
1
1
1
1
1
1
1
1
1
1
1
1
1
1
1
1
1
1
1
1
1
1
1
1
1
1
1
1
1
1
1
1
1
1
1
1
1
1
1
1
1.00028
1.00656
1
1
1
1
1
1
1
1
1
1
1
1
1
1
1
1
1
1
1
1
1
1
1
1
1
1
1
1
1
1
1
1
1
1
1
1
1
1
1
1
1
1
1
1
1
1.00096
1.01868
1.13989
1
1
1
1
1
1
1
1
1
1
1
1
1
1
1
1
1
1
1
1
1
1
1
1
1
1
1
1
1
1
1
1
1
1
1
1
1
1
1
1
1
1
1
1.00003
1.00152
1.04027
1.19607
1.42159
1
1
1
1
1
1
1
1
1
1
1
1
1
1
1
1
1
1
1
1
1
1
1
1
1
1
1
1
1
1
1
1
1
1
1
1
1
1
1
1
1
1
1.00009
1.00566
1.05926
1.26099
1.44505
1.54316
1
1
1
1
1
1
1
1
1
1
1
1
1
1
1
1
1
1
1
1
1
1
1
1
1
1
1
1
1
1
1
1
1
1
1
1
1
1
1
1
1
1.00061
1.01257
1.1142
1.31228
1.48955
1.53639
1.54439
1
1
1
1
1
1
1
1
1
1
1
1
1
1
1
1
1
1
1
1
1
1
1
1
1
1
1
1
1
1
1
1
1
1
1
1
1
1
1
1.00004
1.00185
1.03569
1.18562
1.3883
1.49307
1.53536
1.55727
1.55755
1
1
1
1
1
1
1
1
1
1
1
1
1
1
1
1
1
1
1
1
1
1
1
1
1
1
1
1
1
1
1
1
1
1
1
1
1
1
1.00024
1.00865
1.07871
1.26534
1.44042
1.52617
1.55836
1.55991
1.55906
1.55819
1
1
1
1
1
1
1
1
1
1
1
1
1
1
1
1
1
1
1
1
1
1
1
1
1
1
1
1
1
1
1
1
1
1
1
0.999999
1.00002
1.00208
1.02794
1.15733
1.34808
1.49254
1.5458
1.54923
1.55282
1.55369
1.55336
1.55361
1
1
1
1
1
1
1
1
1
1
1
1
1
1
1
1
1
1
1
1
1
1
1
1
1
1
1
1
1
1
1
1
1
1
1
1.0005
1.00825
1.08019
1.25555
1.43796
1.51467
1.53097
1.54214
1.5506
1.55416
1.55556
1.55618
1.55611
1
1
1
1
1
1
1
1
1
1
1
1
1
1
1
1
1
1
1
1
1
1
1
1
1
1
1
1
1
1
1
1
0.999999
1.00012
1.00266
1.04197
1.17425
1.35975
1.47185
1.52651
1.55351
1.55639
1.55575
1.55677
1.55754
1.55807
1.55823
1.55784
1
1
1
1
1
1
1
1
1
1
1
1
1
1
1
1
1
1
1
1
1
1
1
1
1
1
1
1
1
1
0.999999
1.00003
1.00101
1.02164
1.11032
1.29758
1.43975
1.51987
1.55166
1.55309
1.55669
1.55727
1.5568
1.55597
1.55626
1.55725
1.55773
1.55756
1
1
1
1
1
1
1
1
1
1
1
1
1
1
1
1
1
1
1
1
1
1
1
1
1
1
1
1
1
1
1.00049
1.01213
1.07265
1.24226
1.39881
1.50948
1.5403
1.54326
1.54712
1.54904
1.55107
1.5529
1.55427
1.55532
1.55669
1.55838
1.55978
1.55975
1
1
1
1
1
1
1
1
1
1
1
1
1
1
1
1
1
1
1
1
1
1
1
1
1
0.999999
1
0.999997
1.00036
1.00646
1.0523
1.20262
1.3648
1.48746
1.51926
1.53382
1.54475
1.55101
1.55307
1.55469
1.55652
1.55813
1.55905
1.5599
1.56089
1.56178
1.5633
1.56334
1
1
1
1
1
1
1
1
1
1
1
1
1
1
1
1
1
1
1
1
1
1
1
0.999999
1
0.999996
1.00026
1.00384
1.04677
1.17554
1.34098
1.45342
1.51147
1.5437
1.55498
1.55594
1.55729
1.55937
1.56086
1.56218
1.56288
1.56297
1.56334
1.56398
1.56496
1.56608
1.56753
1.56778
1
1
1
1
1
1
1
1
1
1
1
1
1
1
1
1
1
1
1
1
1
1
1
0.999996
1.00012
1.00324
1.04554
1.15418
1.32718
1.445
1.52009
1.54911
1.55663
1.55974
1.56162
1.56133
1.56141
1.56296
1.56502
1.56617
1.56683
1.56716
1.5674
1.56795
1.56905
1.57017
1.57174
1.57216
1
1
1
1
1
1
1
1
1
1
1
1
1
1
1
1
1
1
1
1
1
0.999995
1.00008
1.00414
1.03704
1.14971
1.32439
1.45075
1.52872
1.54866
1.55298
1.55682
1.55866
1.5604
1.56218
1.56372
1.56558
1.56769
1.56961
1.57083
1.57167
1.57266
1.57343
1.57402
1.57483
1.57566
1.57696
1.57725
1
1
1
1
1
1
1
1
1
1
1
1
1
1
1
1
1
0.999999
0.999999
0.999994
1.00011
1.00462
1.03599
1.16717
1.322
1.46388
1.52781
1.5442
1.55685
1.55963
1.56312
1.56503
1.56591
1.56762
1.57023
1.57281
1.57503
1.57647
1.57743
1.57802
1.57847
1.57906
1.57955
1.57989
1.58022
1.58059
1.5812
1.58119
1
1
1
1
1
1
1
1
1
1
1
1
1
1
1
0.999999
0.999999
0.999993
1.00016
1.00366
1.04489
1.18391
1.34161
1.47661
1.52315
1.55345
1.56952
1.57458
1.5744
1.57277
1.57333
1.57409
1.57512
1.57661
1.57833
1.58004
1.58159
1.58279
1.58316
1.58313
1.58299
1.58275
1.58247
1.58242
1.5825
1.58257
1.58273
1.58282
1
1
1
1
1
1
1
1
1
1
1
1
1
0.999999
0.999999
0.99999
1.00015
1.00428
1.05792
1.18696
1.37454
1.48262
1.5507
1.58111
1.58411
1.58285
1.57985
1.57944
1.57905
1.57871
1.57871
1.57866
1.57971
1.58088
1.58155
1.58222
1.583
1.58406
1.58476
1.58475
1.58443
1.5838
1.58354
1.58353
1.58351
1.58341
1.58338
1.58354
1
1
1
1
1
1
1
1
1
1
1
0.999999
0.999999
0.999988
1.00012
1.0084
1.06788
1.21513
1.39631
1.51037
1.58572
1.59676
1.59449
1.59181
1.58769
1.58243
1.57818
1.57793
1.57848
1.57984
1.5815
1.58335
1.58407
1.58386
1.58315
1.58293
1.58312
1.58383
1.5844
1.58437
1.58395
1.58331
1.58286
1.58264
1.58245
1.58233
1.58202
1.58263
1
1
1
1
1
1
1
1
1
0.999999
0.999999
0.999981
1.00031
1.01126
1.07624
1.26417
1.42975
1.56153
1.60038
1.59732
1.5972
1.59087
1.58386
1.58072
1.5791
1.57784
1.57767
1.57817
1.57947
1.58145
1.58378
1.58502
1.58481
1.58421
1.58329
1.58239
1.58181
1.58177
1.58197
1.58192
1.58136
1.58038
1.57933
1.57844
1.5778
1.57745
1.57692
1.5779
1
1
1
1
1
1
1
1
1
0.999968
1.00089
1.01459
1.1138
1.29307
1.46716
1.5826
1.60555
1.61806
1.61527
1.60703
1.59174
1.57908
1.57423
1.57239
1.57221
1.57284
1.5748
1.57692
1.57863
1.57981
1.58022
1.58018
1.57976
1.57885
1.57808
1.57707
1.57597
1.57549
1.5755
1.57553
1.5752
1.57429
1.573
1.57149
1.57024
1.56957
1.569
1.56976
1
1
1
1
0.999999
1
0.999993
1.00004
1.00192
1.02759
1.15653
1.33
1.51439
1.57634
1.60962
1.60572
1.5946
1.59205
1.5849
1.57867
1.57553
1.57085
1.56832
1.56599
1.56567
1.56622
1.56771
1.56897
1.56914
1.56888
1.5684
1.56795
1.56748
1.56681
1.56612
1.5651
1.56407
1.5637
1.56374
1.56404
1.56416
1.56387
1.56301
1.56186
1.56078
1.56013
1.55976
1.56071
1
0.999992
1.00002
1.00002
1.00045
1.00466
1.02113
1.07515
1.18168
1.34844
1.49752
1.58466
1.62532
1.62322
1.61212
1.5969
1.58166
1.56004
1.54834
1.54759
1.54899
1.55102
1.55288
1.55324
1.55342
1.55317
1.55388
1.55391
1.55371
1.5537
1.55395
1.5545
1.55444
1.5542
1.55369
1.55306
1.5528
1.55285
1.55323
1.55399
1.55465
1.55473
1.55441
1.55379
1.55307
1.55227
1.55175
1.5527
1.00057
1.00482
1.027
1.06737
1.12879
1.21653
1.29916
1.37921
1.45252
1.5054
1.52734
1.56256
1.56866
1.56253
1.55245
1.54597
1.54015
1.53472
1.53392
1.53346
1.53488
1.53708
1.53906
1.54053
1.54172
1.54301
1.54397
1.54411
1.54432
1.54514
1.54629
1.5473
1.54785
1.54787
1.54751
1.54686
1.54655
1.54665
1.54706
1.54757
1.54796
1.54805
1.54795
1.54773
1.54732
1.54687
1.54675
1.54728
1.07783
1.18194
1.28323
1.37672
1.47996
1.55591
1.61966
1.67088
1.69536
1.68854
1.65854
1.6144
1.5743
1.5405
1.52514
1.51286
1.51253
1.51492
1.52032
1.52583
1.53006
1.53201
1.5336
1.53563
1.53801
1.54012
1.54138
1.54198
1.54278
1.54447
1.54611
1.54654
1.54656
1.54624
1.54527
1.54426
1.54379
1.54372
1.54389
1.54426
1.54458
1.54501
1.5452
1.54533
1.54547
1.54556
1.54559
1.5459
1.40407
1.2383
1.09048
1.04017
1.01157
0.988159
0.996388
1.0279
1.0459
1.05183
1.06774
1.10056
1.11409
1.11162
1.11163
1.11581
1.11525
1.1154
1.11909
1.12155
1.12109
1.11954
1.1177
1.11587
1.11214
1.10817
1.10733
1.10735
1.1072
1.10657
1.10557
1.10516
1.10467
1.10374
1.10334
1.10335
1.10379
1.1042
1.10411
1.10381
1.10294
1.10148
1.10056
1.10015
1.09966
1.09859
1.09698
1.09528
1.0936
1.09145
1.08864
1.08599
1.08369
1.08229
1.08093
1.08217
1.09435
1.14955
1.30595
1.49823
1.63512
1.74901
1.85595
1.94258
1.99675
2.02828
2.01782
1.99334
1.95675
1.92933
1.90961
1.89287
1.87367
1.84987
1.82665
1.8146
1.8065
1.8011
1.79857
1.79544
1.78716
1.77665
1.76284
1.74511
1.73169
1.72212
1.71328
1.7043
1.69445
1.68387
1.67354
1.6647
1.65815
1.65293
1.6472
1.63941
1.6269
1.60652
1.58955
1.58326
1.57913
1.57522
1.57104
1.56635
1.56063
1.55066
1.5328
1.51971
1.51471
1.51029
1.50557
1.50064
1.49519
1.48844
1.47778
1.46203
1.44984
1.44281
1.43915
1.43648
1.43391
1.43056
1.42605
1.41867
1.40586
1.39031
1.37893
1.37296
1.36951
1.36655
1.3635
1.36009
1.35591
1.34969
1.33909
1.3236
1.3106
1.30459
1.30086
1.29747
1.29416
1.29028
1.28544
1.278
1.26472
1.2527
1.24821
1.24529
1.24279
1.2404
1.23827
1.23653
1.23395
1.22957
1.2259
1.22366
1.22095
1.2171
1.21231
1.20671
1.20025
1.19464
1.19229
1.19164
1.19123
1.19028
1.18696
1.17917
1.17172
1.16702
1.16263
1.15842
1.15502
1.15227
1.14917
1.14478
1.14054
1.13835
1.13728
1.13626
1.13422
1.12966
1.12484
1.12155
1.11822
1.11391
1.10941
1.10825
1.10845
1.10905
1.1093
1.10813
1.50071
1.42484
1.32106
1.23904
1.19747
1.14119
1.09858
1.08988
1.07109
1.05606
1.05632
1.06386
1.06632
1.06757
1.07099
1.07821
1.0839
1.08747
1.09321
1.10096
1.10296
1.10252
1.10261
1.10295
1.10215
1.10076
1.10076
1.10124
1.10162
1.10144
1.10109
1.10127
1.10103
1.10033
1.09989
1.09979
1.09981
1.09969
1.0994
1.09883
1.0979
1.09681
1.09602
1.09553
1.09498
1.09411
1.093
1.09158
1.08977
1.0878
1.08519
1.08252
1.08043
1.07992
1.08728
1.13355
1.21551
1.33319
1.44883
1.47861
1.51576
1.5767
1.64252
1.70638
1.76755
1.82169
1.86076
1.88371
1.90287
1.92044
1.91729
1.90795
1.89469
1.87519
1.85072
1.82895
1.81479
1.80903
1.80612
1.80316
1.79505
1.78381
1.76972
1.75322
1.73894
1.72814
1.71951
1.71113
1.70175
1.69163
1.68096
1.67157
1.66476
1.65905
1.65266
1.64415
1.63181
1.61395
1.59718
1.58988
1.58565
1.5811
1.57658
1.57176
1.56587
1.55621
1.54018
1.52648
1.52031
1.5158
1.51107
1.50601
1.50036
1.49341
1.48319
1.46903
1.45765
1.45012
1.44499
1.44187
1.43879
1.43511
1.4303
1.42308
1.41192
1.39825
1.38746
1.38055
1.37591
1.37214
1.36845
1.36454
1.36003
1.35353
1.3428
1.32853
1.31753
1.31183
1.30709
1.30282
1.299
1.29495
1.28982
1.28219
1.27028
1.25925
1.25429
1.25084
1.24785
1.2453
1.24325
1.24175
1.23985
1.23633
1.23215
1.22927
1.22641
1.22274
1.21835
1.21352
1.20811
1.20208
1.19777
1.19624
1.19564
1.19489
1.19272
1.18682
1.17881
1.17289
1.16798
1.16356
1.16013
1.15747
1.15479
1.15125
1.14676
1.14324
1.14163
1.14071
1.13916
1.13532
1.13055
1.12718
1.12386
1.1195
1.1146
1.11275
1.11281
1.11332
1.11374
1.11318
1.53794
1.49797
1.43449
1.35598
1.29345
1.22924
1.16375
1.13136
1.10434
1.06554
1.05012
1.05141
1.04673
1.04376
1.04582
1.04989
1.05393
1.05845
1.06487
1.0761
1.08134
1.08133
1.08187
1.08381
1.08489
1.08557
1.08737
1.08971
1.09156
1.09182
1.09168
1.09133
1.09033
1.08999
1.08993
1.08988
1.08965
1.08929
1.089
1.08824
1.08726
1.08692
1.08665
1.08628
1.0858
1.08522
1.08455
1.08355
1.08202
1.07983
1.0767
1.07571
1.07852
1.09466
1.18101
1.32204
1.40871
1.47606
1.48788
1.49448
1.50707
1.51615
1.524
1.53865
1.57666
1.64189
1.73534
1.824
1.87956
1.91051
1.92619
1.92543
1.9186
1.90355
1.87365
1.84795
1.83005
1.81665
1.80963
1.80299
1.79392
1.78184
1.76829
1.75467
1.74286
1.73455
1.72638
1.71747
1.70775
1.69503
1.67986
1.66733
1.65983
1.65438
1.64859
1.64125
1.63152
1.62077
1.61003
1.59738
1.58441
1.57632
1.57129
1.56702
1.56205
1.5547
1.54422
1.53073
1.51758
1.51071
1.50652
1.50204
1.49706
1.49107
1.48297
1.47293
1.46159
1.45043
1.44144
1.43624
1.43304
1.42931
1.42458
1.41826
1.40924
1.3984
1.38755
1.37872
1.37228
1.36741
1.3632
1.35867
1.35347
1.34693
1.33804
1.32808
1.32049
1.31289
1.30502
1.29808
1.29249
1.28765
1.2826
1.27611
1.26774
1.26038
1.2536
1.24732
1.24343
1.24084
1.23884
1.23702
1.23438
1.23074
1.2279
1.22577
1.22334
1.21989
1.21557
1.21087
1.20576
1.19976
1.19454
1.19172
1.1903
1.18922
1.18758
1.18354
1.17679
1.17034
1.16481
1.15995
1.1564
1.15394
1.15158
1.14845
1.14442
1.1403
1.13746
1.13571
1.13366
1.13021
1.12691
1.12423
1.12108
1.1167
1.11177
1.10941
1.10942
1.1101
1.11081
1.11033
1.55581
1.53749
1.49944
1.44029
1.37958
1.31973
1.25354
1.21217
1.17952
1.13146
1.1009
1.09077
1.07184
1.05205
1.05246
1.05149
1.04654
1.04521
1.04748
1.05227
1.05491
1.05665
1.05936
1.06518
1.06968
1.07271
1.0759
1.07878
1.08004
1.08082
1.08139
1.08154
1.08189
1.0826
1.08353
1.08369
1.08346
1.08277
1.08155
1.07979
1.07876
1.07864
1.07845
1.07789
1.07709
1.07662
1.07611
1.07492
1.07293
1.07098
1.07179
1.08389
1.13242
1.22949
1.38013
1.45679
1.50144
1.5172
1.51429
1.51025
1.50808
1.50983
1.50966
1.50745
1.50249
1.50492
1.5276
1.59106
1.67837
1.76858
1.84024
1.88686
1.89496
1.89211
1.88846
1.87883
1.86501
1.84634
1.82651
1.8097
1.79656
1.7843
1.77366
1.7657
1.75856
1.75079
1.74131
1.73053
1.71948
1.70574
1.68857
1.6725
1.66187
1.65601
1.65061
1.64502
1.64024
1.63478
1.62576
1.61041
1.59376
1.58286
1.57455
1.56819
1.56384
1.55957
1.55248
1.53995
1.52437
1.5136
1.50786
1.50321
1.49884
1.49461
1.48937
1.48134
1.46905
1.45552
1.44548
1.43896
1.43435
1.42917
1.42346
1.41801
1.41179
1.40313
1.39218
1.38191
1.37422
1.36806
1.3635
1.35915
1.35258
1.34437
1.33798
1.33269
1.32567
1.31652
1.30701
1.29889
1.29236
1.28626
1.27979
1.27331
1.26787
1.26234
1.25555
1.24855
1.24356
1.24066
1.2387
1.23691
1.23411
1.22946
1.22725
1.22641
1.22458
1.22135
1.21709
1.21243
1.20728
1.20131
1.19606
1.19261
1.1903
1.1885
1.18656
1.18348
1.1783
1.17216
1.16625
1.16076
1.15639
1.15363
1.15145
1.14863
1.14506
1.14114
1.13786
1.13534
1.13238
1.12886
1.12634
1.12408
1.12113
1.11718
1.11276
1.11026
1.11019
1.1105
1.11086
1.11037
1.56604
1.55976
1.54029
1.49975
1.44967
1.39587
1.332
1.28657
1.25181
1.20097
1.15837
1.13575
1.11199
1.07815
1.06941
1.06404
1.05132
1.04608
1.04841
1.05053
1.04887
1.04836
1.04929
1.05308
1.05908
1.0642
1.06874
1.073
1.07391
1.07488
1.07614
1.0764
1.07665
1.07859
1.07977
1.07993
1.07977
1.07906
1.07783
1.07634
1.07585
1.07571
1.07544
1.07466
1.07362
1.07292
1.07199
1.07035
1.06788
1.07017
1.10011
1.21425
1.31897
1.41699
1.49669
1.52185
1.52784
1.52811
1.52165
1.51191
1.50869
1.50758
1.50708
1.50552
1.50042
1.4947
1.48737
1.48244
1.49295
1.52918
1.61834
1.72106
1.80784
1.85334
1.89019
1.89081
1.88651
1.87337
1.84821
1.81824
1.80042
1.78925
1.77826
1.7702
1.76409
1.75806
1.74976
1.73848
1.72556
1.7111
1.69403
1.67828
1.66648
1.65976
1.65379
1.64674
1.64012
1.63524
1.62942
1.6191
1.60452
1.58999
1.57924
1.57155
1.56505
1.5584
1.55145
1.54298
1.53188
1.52013
1.51172
1.50567
1.4996
1.49321
1.48684
1.47961
1.47075
1.46098
1.45082
1.4409
1.43384
1.42943
1.42428
1.41633
1.40722
1.39913
1.39187
1.38528
1.37907
1.37214
1.3641
1.35646
1.34934
1.34272
1.33654
1.331
1.3257
1.31921
1.31097
1.30166
1.29275
1.28579
1.27981
1.27424
1.26881
1.26301
1.25697
1.25087
1.24547
1.24188
1.23971
1.23787
1.23562
1.23258
1.22782
1.22309
1.2203
1.21752
1.21357
1.20879
1.20487
1.20236
1.19932
1.19581
1.1928
1.19066
1.18856
1.18568
1.18158
1.17635
1.17047
1.16435
1.15886
1.15433
1.1513
1.15008
1.14853
1.14562
1.14107
1.13644
1.13199
1.12898
1.12719
1.12529
1.12279
1.11954
1.11607
1.11409
1.1133
1.11292
1.11258
1.111
1.57515
1.57122
1.56328
1.54125
1.50442
1.46028
1.40493
1.35553
1.31524
1.26862
1.2264
1.1989
1.17149
1.13264
1.11618
1.10592
1.08815
1.0704
1.06928
1.06419
1.05592
1.05095
1.05102
1.05098
1.05185
1.05513
1.06086
1.06591
1.06834
1.07026
1.07286
1.07433
1.07522
1.07752
1.07896
1.07935
1.07931
1.07889
1.07765
1.07668
1.07636
1.07613
1.07635
1.0759
1.07485
1.0737
1.07153
1.07118
1.08029
1.12869
1.27703
1.41644
1.47766
1.51308
1.53305
1.53377
1.53096
1.53103
1.52951
1.52024
1.50859
1.50189
1.49862
1.4972
1.4954
1.49179
1.4859
1.47861
1.46705
1.45039
1.45163
1.4791
1.55368
1.65127
1.74724
1.80823
1.84258
1.8432
1.83657
1.82374
1.81263
1.80293
1.78971
1.7784
1.77114
1.76332
1.75422
1.74256
1.72862
1.713
1.69678
1.68309
1.67037
1.6625
1.6572
1.65048
1.64356
1.63777
1.63282
1.62576
1.61219
1.59614
1.58356
1.57377
1.56645
1.56054
1.55446
1.54735
1.53816
1.5268
1.51564
1.50738
1.501
1.49508
1.48886
1.48198
1.47448
1.46523
1.45418
1.444
1.43704
1.43039
1.4232
1.41578
1.40828
1.40122
1.39509
1.38958
1.38326
1.37466
1.36331
1.35225
1.3453
1.3398
1.33488
1.33081
1.32699
1.32278
1.3168
1.30636
1.29531
1.28821
1.28332
1.27852
1.27316
1.26772
1.26266
1.25745
1.25178
1.24676
1.24393
1.2424
1.24045
1.23628
1.2304
1.22457
1.21952
1.21613
1.21329
1.20955
1.20583
1.20383
1.20383
1.20236
1.19887
1.19614
1.1941
1.19184
1.18883
1.1846
1.17902
1.17192
1.16376
1.15709
1.15295
1.14907
1.14575
1.14361
1.14232
1.14032
1.13616
1.13343
1.13216
1.13077
1.12866
1.12583
1.12311
1.12188
1.12093
1.11999
1.11906
1.11561
1.58145
1.57962
1.57617
1.56573
1.54444
1.51058
1.46349
1.42083
1.37873
1.32779
1.28898
1.25787
1.22736
1.19081
1.16866
1.15031
1.12591
1.10091
1.09219
1.08209
1.06718
1.05874
1.0588
1.05673
1.05607
1.05782
1.06065
1.06159
1.06205
1.06358
1.06655
1.07079
1.07431
1.07805
1.08048
1.08079
1.08073
1.08043
1.07952
1.07818
1.0775
1.0778
1.07871
1.07832
1.07746
1.07568
1.08168
1.12658
1.21322
1.34623
1.48297
1.52088
1.53497
1.53959
1.54123
1.5392
1.53901
1.53778
1.53333
1.52348
1.50695
1.49388
1.48985
1.48806
1.48747
1.48586
1.48087
1.4723
1.4614
1.44646