/*--------------------------------*- C++ -*----------------------------------*\
  =========                 |
  \\      /  F ield         | OpenFOAM: The Open Source CFD Toolbox
   \\    /   O peration     | Website:  https://openfoam.org
    \\  /    A nd           | Version:  7
     \\/     M anipulation  |
\*---------------------------------------------------------------------------*/
FoamFile
{
    version     2.0;
    format      ascii;
    class       volVectorField;
    location    "0.7";
    object      U;
}
// * * * * * * * * * * * * * * * * * * * * * * * * * * * * * * * * * * * * * //

dimensions      [0 1 -1 0 0 0 0];

internalField   nonuniform List<vector> 
18432
(
(3 -1.5463e-18 0)
(3 -1.12554e-16 0)
(3 -3.70669e-16 0)
(3 1.5095e-17 0)
(3 5.61493e-17 0)
(3 -1.27701e-16 0)
(3 -1.73507e-16 0)
(3 4.07461e-17 0)
(3 7.23645e-16 0)
(3 1.07826e-15 0)
(3 6.18925e-16 0)
(3 5.69949e-16 0)
(3 9.79747e-16 0)
(3 1.00444e-15 0)
(3 8.80719e-16 0)
(3 3.67915e-16 0)
(3 -1.72072e-16 0)
(3 -1.13207e-15 0)
(3 -9.22044e-16 0)
(3 3.28625e-16 0)
(3 1.10219e-16 0)
(3 -4.28714e-16 0)
(3 -2.71171e-16 0)
(3 -9.48532e-17 0)
(3 -1.30766e-16 0)
(3 -6.69276e-16 0)
(3 -1.24173e-15 0)
(3 -9.58771e-16 0)
(3 -8.83899e-16 0)
(3 -7.48592e-16 0)
(3 -4.05631e-16 0)
(3 1.70808e-16 0)
(3 6.43741e-16 0)
(3 9.84096e-16 0)
(3 5.79921e-16 0)
(3 4.13195e-16 0)
(3 1.44688e-16 0)
(3 -7.01879e-16 0)
(3 -1.91752e-15 0)
(3 -1.40553e-15 0)
(3 -5.53582e-16 0)
(3 -1.99845e-16 0)
(3 -7.1838e-16 0)
(3 -1.17946e-15 0)
(3 -1.10076e-15 0)
(3 -1.20106e-15 0)
(3 -1.50066e-15 0)
(3 -2.17716e-15 0)
(3 -1.51298e-16 0)
(3 -1.91792e-16 0)
(3 -1.81531e-16 0)
(3 2.34467e-17 0)
(3 4.13379e-16 0)
(3 5.08185e-16 0)
(3 3.28109e-16 0)
(3 1.6066e-16 0)
(3 7.0076e-16 0)
(3 1.14823e-15 0)
(3 1.07445e-15 0)
(3 7.1652e-16 0)
(3 4.27951e-16 0)
(3 1.56925e-16 0)
(3 4.83243e-16 0)
(3 4.08776e-16 0)
(3 -5.76546e-16 0)
(3 -1.40195e-15 0)
(3 -1.61098e-15 0)
(3 -5.82819e-16 0)
(3 -8.96035e-16 0)
(3 -1.13996e-15 0)
(3 -4.53478e-16 0)
(3 2.25979e-16 0)
(3 3.71415e-16 0)
(3 8.66305e-17 0)
(3 -6.74893e-16 0)
(3 -6.98657e-16 0)
(3 -8.21758e-16 0)
(3 -7.88985e-16 0)
(3 -8.38821e-16 0)
(3 -3.56849e-16 0)
(3 -1.55293e-16 0)
(3 2.82501e-16 0)
(3 1.89357e-16 0)
(3 6.0703e-16 0)
(3 9.50958e-16 0)
(3 -9.5108e-16 0)
(3 -3.97626e-15 0)
(3 -3.95239e-15 0)
(3 -1.87805e-15 0)
(3 -1.21273e-15 0)
(3 -8.92317e-16 0)
(3 -1.24654e-15 0)
(3 -1.8469e-15 0)
(3 -2.25074e-15 0)
(3 -2.97839e-15 0)
(3 -2.93432e-15 0)
(3 -6.98584e-17 0)
(3 -6.22901e-17 0)
(3 1.98907e-16 0)
(3 9.75141e-17 0)
(3 -1.67145e-16 0)
(3 -1.62055e-16 0)
(3 3.88818e-16 0)
(3 4.39822e-16 0)
(3 2.61589e-16 0)
(3 4.51486e-16 0)
(3 1.06153e-15 0)
(3 1.16783e-15 0)
(3 4.70617e-16 0)
(3 8.94029e-17 0)
(3 -7.34665e-17 0)
(3 6.79191e-17 0)
(3 -2.15006e-16 0)
(3 -6.94248e-16 0)
(3 -9.94825e-16 0)
(3 -1.16237e-15 0)
(3 -8.64638e-16 0)
(3 2.83654e-16 0)
(3 5.99132e-16 0)
(3 4.23386e-16 0)
(3 4.24998e-16 0)
(3 5.51305e-16 0)
(3 5.02058e-16 0)
(3 -1.59582e-16 0)
(3 -4.86313e-16 0)
(3 -9.60091e-16 0)
(3 -9.8726e-16 0)
(3 -6.40455e-16 0)
(3 3.42329e-16 0)
(3 6.26153e-16 0)
(3 1.19381e-16 0)
(3 -2.56945e-16 0)
(3 -9.47558e-16 0)
(3 -3.64963e-15 0)
(3 -4.48173e-15 0)
(3 -4.95398e-15 0)
(3 -4.83258e-15 0)
(3 -4.09793e-15 0)
(3 -3.27485e-15 0)
(3 -2.69643e-15 0)
(3 -2.75619e-15 0)
(3 -2.76581e-15 0)
(3 -3.00039e-15 0)
(3 -2.72255e-15 0)
(3 1.05041e-17 0)
(3 1.02525e-16 0)
(3 5.89386e-16 0)
(3 4.2339e-16 0)
(3 -1.44998e-16 0)
(3 2.88893e-16 0)
(3 6.84625e-16 0)
(3 9.75336e-16 0)
(3 5.10758e-16 0)
(3 -1.99908e-16 0)
(3 -7.94209e-16 0)
(3 -4.88179e-16 0)
(3 3.39871e-16 0)
(3 2.74374e-16 0)
(3 -3.57447e-16 0)
(3 -8.57427e-16 0)
(3 -7.12522e-16 0)
(3 -4.26148e-16 0)
(3 -1.68452e-16 0)
(3 -3.12341e-16 0)
(3 5.58287e-16 0)
(3 1.49978e-15 0)
(3 1.49492e-15 0)
(3 8.62426e-16 0)
(3 -1.54805e-16 0)
(3 -2.2266e-16 0)
(3 -1.35596e-16 0)
(3 -1.34235e-16 0)
(3 -4.63775e-16 0)
(3 -4.47684e-16 0)
(3 1.56462e-16 0)
(3 6.6149e-16 0)
(3 2.06465e-16 0)
(3 -3.17675e-16 0)
(3 -2.78531e-16 0)
(3 -7.04956e-16 0)
(3 -3.15749e-15 0)
(3 -6.09473e-15 0)
(3 -6.2988e-15 0)
(3 -5.61662e-15 0)
(3 -4.80104e-15 0)
(3 -3.84109e-15 0)
(3 -3.19274e-15 0)
(3 -2.91208e-15 0)
(3 -3.61825e-15 0)
(3 -3.54405e-15 0)
(3 -2.6713e-15 0)
(3 -2.24254e-15 0)
(3 -2.04997e-16 0)
(3 -2.28899e-17 0)
(3 1.33401e-16 0)
(3 4.6218e-16 0)
(3 8.50146e-16 0)
(3 7.94547e-16 0)
(3 6.04943e-16 0)
(3 5.73222e-16 0)
(3 2.86683e-16 0)
(3 -3.027e-16 0)
(3 -1.08202e-15 0)
(3 -1.12726e-15 0)
(3 -7.19493e-16 0)
(3 3.39159e-16 0)
(3 4.65107e-16 0)
(3 2.64249e-16 0)
(3 -1.39041e-16 0)
(3 -3.23988e-17 0)
(3 3.79419e-18 0)
(3 1.92801e-16 0)
(3 4.90641e-16 0)
(3 7.16077e-16 0)
(3 7.47711e-16 0)
(3 9.92621e-16 0)
(3 9.17437e-16 0)
(3 5.39076e-16 0)
(3 3.59965e-16 0)
(3 5.23743e-16 0)
(3 3.1403e-16 0)
(3 -2.61734e-16 0)
(3 -1.24504e-15 0)
(3 -1.51966e-15 0)
(3 -2.35854e-15 0)
(3 -2.64181e-15 0)
(3 -1.37995e-15 0)
(3 -1.27626e-15 0)
(3 -2.45871e-15 0)
(3 -3.82448e-15 0)
(3 -4.49287e-15 0)
(3 -4.4768e-15 0)
(3 -3.37327e-15 0)
(3 -3.18909e-15 0)
(3 -2.53342e-15 0)
(3 -2.48354e-15 0)
(3 -1.55717e-15 0)
(3 -1.47763e-15 0)
(3 -1.16773e-15 0)
(3 -1.21905e-15 0)
(3 4.72978e-18 0)
(3 -1.31923e-16 0)
(3 -5.73683e-16 0)
(3 -8.81232e-19 0)
(3 6.14126e-16 0)
(3 3.62564e-16 0)
(3 1.50098e-16 0)
(3 5.20829e-18 0)
(3 8.02897e-17 0)
(3 -3.78766e-16 0)
(3 -7.48838e-16 0)
(3 -1.18499e-15 0)
(3 -1.3487e-15 0)
(3 -1.30619e-16 0)
(3 7.36697e-16 0)
(3 1.02887e-15 0)
(3 2.65313e-16 0)
(3 -6.59065e-17 0)
(3 -3.95093e-16 0)
(3 -4.59007e-16 0)
(3 -8.70822e-17 0)
(3 1.55263e-16 0)
(3 8.3636e-16 0)
(3 1.33538e-15 0)
(3 1.84524e-15 0)
(3 1.43032e-15 0)
(3 1.38382e-15 0)
(3 1.07311e-15 0)
(3 4.91584e-16 0)
(3 -4.79543e-17 0)
(3 -7.08437e-16 0)
(3 -1.10787e-15 0)
(3 -1.98799e-15 0)
(3 -2.52864e-15 0)
(3 -2.39966e-15 0)
(3 -3.4269e-15 0)
(3 -2.74547e-15 0)
(3 -2.27885e-15 0)
(3 -2.41841e-15 0)
(3 -2.55459e-15 0)
(3 -2.32066e-15 0)
(3 -2.00696e-15 0)
(3 -2.3448e-15 0)
(3 -1.89469e-15 0)
(3 -1.4397e-15 0)
(3 -7.24704e-16 0)
(3 -7.79991e-16 0)
(3 -4.92372e-16 0)
(3 -9.03266e-17 0)
(3 -4.08274e-16 0)
(3 -3.10397e-16 0)
(3 -4.02345e-16 0)
(3 -1.69698e-16 0)
(3 -9.30591e-17 0)
(3 -5.03447e-16 0)
(3 -5.20672e-16 0)
(3 -5.97822e-16 0)
(3 -7.11781e-16 0)
(3 -8.26868e-16 0)
(3 -4.01025e-16 0)
(3 1.57227e-16 0)
(3 4.30476e-16 0)
(3 2.44075e-16 0)
(3 1.77097e-16 0)
(3 1.58617e-16 0)
(3 3.0305e-16 0)
(3 1.28783e-16 0)
(3 -3.95639e-16 0)
(3 4.20648e-16 0)
(3 8.5743e-16 0)
(3 1.31596e-15 0)
(3 1.59739e-15 0)
(3 1.90894e-15 0)
(3 2.05615e-15 0)
(3 2.10775e-15 0)
(3 1.71955e-15 0)
(3 1.34573e-15 0)
(3 7.00211e-16 0)
(3 6.49738e-16 0)
(3 -1.76635e-16 0)
(3 -1.59886e-15 0)
(3 -2.67651e-15 0)
(3 -3.92718e-15 0)
(3 -4.2736e-15 0)
(3 -2.98965e-15 0)
(3 -2.29686e-15 0)
(3 -2.41659e-15 0)
(3 -1.31512e-15 0)
(3 -1.30166e-15 0)
(3 -6.60477e-16 0)
(3 -1.19911e-15 0)
(3 -1.60511e-15 0)
(3 -1.80371e-15 0)
(3 -1.54765e-15 0)
(3 -1.48707e-15 0)
(3 -7.66557e-16 0)
(3 -8.50663e-17 0)
(3 -2.76206e-16 0)
(3 -1.59469e-16 0)
(3 -3.38342e-16 0)
(3 -6.5616e-16 0)
(3 -9.71696e-16 0)
(3 -9.33801e-16 0)
(3 -1.18527e-15 0)
(3 -1.14877e-15 0)
(3 -7.13859e-16 0)
(3 -9.01704e-17 0)
(3 9.69803e-16 0)
(3 8.47061e-16 0)
(3 7.06766e-17 0)
(3 -4.87999e-16 0)
(3 -2.49556e-16 0)
(3 3.18816e-17 0)
(3 7.06279e-18 0)
(3 2.83455e-16 0)
(3 7.34447e-16 0)
(3 1.56361e-15 0)
(3 1.71727e-15 0)
(3 1.51839e-15 0)
(3 1.813e-15 0)
(3 2.02839e-15 0)
(3 2.11085e-15 0)
(3 2.13927e-15 0)
(3 1.85125e-15 0)
(3 1.43572e-15 0)
(3 -1.59384e-16 0)
(3 -1.58086e-15 0)
(3 -2.45687e-15 0)
(3 -2.04207e-15 0)
(3 -1.85552e-15 0)
(3 -2.22798e-15 0)
(3 -2.71006e-15 0)
(3 -2.44825e-15 0)
(3 -2.35954e-15 0)
(3 -1.77593e-15 0)
(3 -1.18591e-15 0)
(3 -9.17021e-16 0)
(3 -6.55554e-16 0)
(3 -1.13309e-15 0)
(3 -1.67096e-15 0)
(3 -1.58252e-15 0)
(3 -1.32448e-15 0)
(3 -9.87825e-16 0)
(3 -3.91446e-16 0)
(3 3.97375e-16 0)
(3 5.13257e-16 0)
(3 3.35334e-16 0)
(3 -1.53565e-16 0)
(3 -7.50359e-16 0)
(3 -5.6129e-16 0)
(3 -1.82514e-16 0)
(3 -1.35944e-16 0)
(3 1.16546e-16 0)
(3 3.33356e-16 0)
(3 5.47497e-16 0)
(3 -5.81642e-18 0)
(3 -8.50252e-16 0)
(3 -9.3033e-16 0)
(3 -5.34699e-16 0)
(3 -5.28047e-16 0)
(3 -4.16383e-17 0)
(3 -1.13387e-16 0)
(3 5.18368e-16 0)
(3 1.44296e-15 0)
(3 1.20639e-15 0)
(3 1.17137e-15 0)
(3 1.31944e-15 0)
(3 1.63489e-15 0)
(3 2.2204e-15 0)
(3 2.19659e-15 0)
(3 1.22326e-15 0)
(3 1.19017e-16 0)
(3 2.61992e-17 0)
(3 1.49622e-17 0)
(3 -6.93208e-16 0)
(3 -9.35048e-16 0)
(3 -1.02395e-15 0)
(3 -1.38373e-15 0)
(3 -1.79073e-15 0)
(3 -2.0276e-15 0)
(3 -2.26438e-15 0)
(3 -2.75999e-15 0)
(3 -2.13484e-15 0)
(3 -2.0759e-15 0)
(3 -1.64595e-15 0)
(3 -1.51463e-15 0)
(3 -6.99824e-16 0)
(3 -1.69123e-15 0)
(3 -2.07417e-15 0)
(3 -2.04736e-15 0)
(3 -1.40189e-15 0)
(3 -6.07811e-16 0)
(3 4.04365e-17 0)
(3 1.77178e-16 0)
(3 3.85818e-17 0)
(3 -2.42281e-16 0)
(3 -7.75988e-16 0)
(3 -4.96515e-16 0)
(3 -2.18504e-16 0)
(3 2.65516e-16 0)
(3 4.84187e-16 0)
(3 4.33226e-16 0)
(3 1.04821e-16 0)
(3 -4.86025e-16 0)
(3 -3.58402e-16 0)
(3 2.32507e-17 0)
(3 -1.71556e-16 0)
(3 -6.718e-16 0)
(3 -5.71163e-16 0)
(3 2.19645e-16 0)
(3 1.21012e-15 0)
(3 1.15796e-15 0)
(3 9.84104e-16 0)
(3 1.03002e-15 0)
(3 1.70941e-15 0)
(3 1.98371e-15 0)
(3 2.19994e-15 0)
(3 1.92805e-15 0)
(3 1.18216e-15 0)
(3 8.91518e-16 0)
(3 -4.62517e-17 0)
(3 -1.35775e-16 0)
(3 -2.21881e-16 0)
(3 -4.02461e-16 0)
(3 -9.0023e-16 0)
(3 -1.97368e-15 0)
(3 -2.92304e-15 0)
(3 -2.57557e-15 0)
(3 -2.89668e-15 0)
(3 -3.79185e-15 0)
(3 -3.95891e-15 0)
(3 -3.26106e-15 0)
(3 -2.8647e-15 0)
(3 -1.70449e-15 0)
(3 -5.84306e-16 0)
(3 -6.23378e-16 0)
(3 -1.08153e-15 0)
(3 -1.0654e-15 0)
(3 -8.31877e-16 0)
(3 -3.94077e-16 0)
(3 -6.93515e-18 0)
(3 2.16008e-17 0)
(3 2.03859e-17 0)
(3 7.14784e-17 0)
(3 2.00051e-16 0)
(3 -6.11688e-17 0)
(3 -2.02276e-16 0)
(3 -2.75351e-16 0)
(3 -1.70892e-16 0)
(3 -2.67721e-16 0)
(3 -6.05295e-16 0)
(3 -6.26092e-16 0)
(3 -4.37602e-16 0)
(3 -7.95661e-16 0)
(3 -3.35368e-16 0)
(3 1.68903e-16 0)
(3 7.96682e-17 0)
(3 1.48704e-16 0)
(3 7.51516e-16 0)
(3 1.17876e-15 0)
(3 7.2953e-16 0)
(3 8.46907e-16 0)
(3 1.13394e-15 0)
(3 1.02498e-15 0)
(3 9.76512e-17 0)
(3 1.64866e-17 0)
(3 3.70012e-16 0)
(3 4.33239e-16 0)
(3 -3.62633e-16 0)
(3 -7.37704e-16 0)
(3 -4.19877e-16 0)
(3 -1.00823e-15 0)
(3 -2.06354e-15 0)
(3 -1.893e-15 0)
(3 -1.60304e-15 0)
(3 -2.09711e-15 0)
(3 -3.43505e-15 0)
(3 -4.42294e-15 0)
(3 -4.00628e-15 0)
(3 -3.34267e-15 0)
(3 -2.52216e-15 0)
(3 4.48206e-16 0)
(3 1.14616e-15 0)
(3 1.85385e-15 0)
(3 1.93514e-15 0)
(3 1.00919e-15 0)
(3 -2.02859e-16 0)
(3 -7.01038e-17 0)
(3 1.71026e-16 0)
(3 -3.03967e-17 0)
(3 -1.11316e-16 0)
(3 1.90681e-17 0)
(3 5.52765e-16 0)
(3 7.26002e-16 0)
(3 6.31283e-16 0)
(3 2.09857e-16 0)
(3 1.3444e-16 0)
(3 1.39619e-16 0)
(3 -1.41788e-16 0)
(3 -4.92923e-16 0)
(3 -1.4887e-15 0)
(3 -2.51352e-15 0)
(3 -1.76056e-15 0)
(3 -1.04054e-15 0)
(3 -2.88636e-16 0)
(3 -6.39241e-17 0)
(3 -2.56513e-18 0)
(3 6.36895e-16 0)
(3 8.27498e-16 0)
(3 4.86426e-16 0)
(3 2.10414e-16 0)
(3 2.41931e-16 0)
(3 -2.32355e-17 0)
(3 1.57846e-16 0)
(3 1.82737e-16 0)
(3 -3.36515e-16 0)
(3 -3.15846e-16 0)
(3 -1.67839e-16 0)
(3 -4.35922e-17 0)
(3 -1.7458e-16 0)
(3 -9.51948e-16 0)
(3 -5.2515e-16 0)
(3 -5.94816e-16 0)
(3 -2.16919e-15 0)
(3 -4.239e-15 0)
(3 -4.56114e-15 0)
(3 -4.34241e-15 0)
(3 -3.41203e-15 0)
(3 2.48418e-16 0)
(3 1.46994e-15 0)
(3 2.04261e-15 0)
(3 2.76524e-15 0)
(3 2.62419e-15 0)
(3 2.05054e-15 0)
(3 1.61469e-15 0)
(3 1.09743e-15 0)
(3 8.34502e-17 0)
(3 -8.43369e-17 0)
(3 -1.28841e-16 0)
(3 -8.54641e-17 0)
(3 1.42912e-16 0)
(3 7.00016e-16 0)
(3 9.33316e-16 0)
(3 4.51023e-16 0)
(3 4.44703e-16 0)
(3 4.76445e-16 0)
(3 3.27235e-16 0)
(3 -3.77127e-16 0)
(3 -1.20142e-15 0)
(3 -1.50095e-15 0)
(3 -1.26697e-15 0)
(3 -1.06133e-15 0)
(3 -3.96058e-16 0)
(3 6.06555e-18 0)
(3 7.58426e-17 0)
(3 1.712e-16 0)
(3 9.2187e-16 0)
(3 1.57037e-15 0)
(3 1.48311e-15 0)
(3 1.48697e-15 0)
(3 1.49458e-15 0)
(3 6.68527e-16 0)
(3 1.71099e-16 0)
(3 1.51223e-16 0)
(3 9.16815e-16 0)
(3 5.39562e-16 0)
(3 7.49201e-16 0)
(3 1.60353e-15 0)
(3 1.5639e-15 0)
(3 7.20802e-16 0)
(3 -1.00238e-15 0)
(3 -2.27544e-15 0)
(3 -3.68726e-15 0)
(3 -4.98239e-15 0)
(3 -5.63493e-15 0)
(3 -4.22968e-15 0)
(3 -4.96749e-16 0)
(3 7.1056e-16 0)
(3 5.35872e-16 0)
(3 1.15882e-15 0)
(3 2.22249e-15 0)
(3 1.96574e-15 0)
(3 1.00364e-15 0)
(3 -4.0513e-16 0)
(3 -4.70096e-17 0)
(3 -2.59733e-16 0)
(3 -3.49788e-16 0)
(3 -3.54739e-17 0)
(3 2.03664e-16 0)
(3 8.32205e-17 0)
(3 -1.3258e-16 0)
(3 -8.11226e-17 0)
(3 -4.5608e-16 0)
(3 -2.95999e-16 0)
(3 -3.38532e-17 0)
(3 -1.25574e-16 0)
(3 -6.29168e-17 0)
(3 7.96905e-16 0)
(3 8.56407e-16 0)
(3 3.33131e-16 0)
(3 -3.73723e-16 0)
(3 -3.55781e-16 0)
(3 -1.33267e-16 0)
(3 -3.70494e-16 0)
(3 -2.59974e-16 0)
(3 8.50016e-16 0)
(3 8.44462e-16 0)
(3 3.97948e-16 0)
(3 3.47023e-16 0)
(3 4.52953e-16 0)
(3 3.42602e-16 0)
(3 5.21394e-16 0)
(3 6.53613e-16 0)
(3 6.24168e-16 0)
(3 3.97288e-16 0)
(3 6.90576e-16 0)
(3 9.16105e-16 0)
(3 -4.17391e-16 0)
(3 -1.06362e-15 0)
(3 -8.06127e-16 0)
(3 -3.12277e-15 0)
(3 -4.0811e-15 0)
(3 -5.05642e-15 0)
(3 -1.46972e-15 0)
(3 -3.17688e-16 0)
(3 5.86272e-16 0)
(3 4.80562e-16 0)
(3 1.56628e-17 0)
(3 -6.46059e-17 0)
(3 -3.6579e-16 0)
(3 -1.79148e-15 0)
(3 -2.90963e-15 0)
(3 -7.55745e-17 0)
(3 5.23221e-17 0)
(3 -8.40214e-17 0)
(3 -1.35353e-16 0)
(3 -3.23618e-16 0)
(3 -7.85039e-16 0)
(3 -1.31846e-15 0)
(3 -7.13291e-16 0)
(3 -8.84903e-16 0)
(3 -3.72615e-16 0)
(3 -3.7742e-16 0)
(3 3.66285e-16 0)
(3 7.40432e-16 0)
(3 1.53554e-15 0)
(3 2.07315e-15 0)
(3 1.51434e-15 0)
(3 1.13567e-15 0)
(3 4.54301e-16 0)
(3 -3.73877e-16 0)
(3 -5.54939e-16 0)
(3 -8.12725e-16 0)
(3 -8.99733e-16 0)
(3 -1.06429e-15 0)
(3 -1.44523e-15 0)
(3 -9.8938e-16 0)
(3 -1.48618e-17 0)
(3 4.53735e-16 0)
(3 -1.99921e-16 0)
(3 -1.34838e-18 0)
(3 2.48145e-16 0)
(3 -3.85365e-16 0)
(3 -1.05107e-15 0)
(3 -7.47533e-16 0)
(3 -9.83978e-16 0)
(3 -1.16573e-15 0)
(3 -5.9635e-16 0)
(3 -1.96461e-15 0)
(3 -2.85857e-15 0)
(3 -2.0653e-15 0)
(3 -1.31056e-15 0)
(3 -1.29468e-15 0)
(3 2.10181e-16 0)
(3 -9.54261e-17 0)
(3 -9.73178e-16 0)
(3 -2.09251e-15 0)
(3 -2.50046e-15 0)
(3 -3.07769e-15 0)
(3 -4.53455e-15 0)
(3 5.93949e-18 0)
(3 5.28376e-16 0)
(3 5.10827e-16 0)
(3 -2.49105e-17 0)
(3 -9.45542e-16 0)
(3 -1.01388e-15 0)
(3 -5.03036e-16 0)
(3 -1.19998e-16 0)
(3 4.78629e-17 0)
(3 -3.2706e-16 0)
(3 -7.88452e-16 0)
(3 -3.5105e-16 0)
(3 4.45472e-16 0)
(3 5.79074e-16 0)
(3 3.54085e-16 0)
(3 1.57799e-16 0)
(3 5.46148e-16 0)
(3 2.98939e-16 0)
(3 -1.8541e-16 0)
(3 -1.18183e-16 0)
(3 -1.94086e-16 0)
(3 -5.09243e-16 0)
(3 -5.76699e-16 0)
(3 -3.09142e-16 0)
(3 4.66103e-16 0)
(3 7.80051e-16 0)
(3 8.12897e-16 0)
(3 8.36183e-16 0)
(3 5.09387e-16 0)
(3 -2.3925e-16 0)
(3 -7.84053e-16 0)
(3 -1.44302e-15 0)
(3 -2.10649e-15 0)
(3 -1.56642e-15 0)
(3 -1.25581e-15 0)
(3 -5.28822e-16 0)
(3 1.15631e-16 0)
(3 -9.56933e-17 0)
(3 1.21394e-16 0)
(3 -1.27559e-15 0)
(3 -2.0091e-15 0)
(3 -2.32601e-15 0)
(3 -1.12726e-15 0)
(3 -2.41717e-15 0)
(3 -3.59201e-15 0)
(3 -4.16211e-15 0)
(3 -5.12882e-15 0)
(3 -5.83841e-15 0)
(3 -1.32916e-16 0)
(3 -2.33802e-16 0)
(3 3.13566e-17 0)
(3 -7.50252e-17 0)
(3 -7.6893e-16 0)
(3 -5.32939e-16 0)
(3 -2.73802e-16 0)
(3 1.50087e-17 0)
(3 8.81002e-18 0)
(3 -1.03019e-15 0)
(3 -1.43607e-15 0)
(3 -5.68025e-16 0)
(3 3.0507e-16 0)
(3 -1.41239e-16 0)
(3 -6.14276e-16 0)
(3 -6.43429e-16 0)
(3 -7.21421e-16 0)
(3 -2.23773e-16 0)
(3 1.23249e-17 0)
(3 -5.34457e-16 0)
(3 -8.95368e-16 0)
(3 -9.04539e-16 0)
(3 -7.37981e-16 0)
(3 -4.43776e-16 0)
(3 -7.86296e-16 0)
(3 -6.71946e-16 0)
(3 4.27417e-17 0)
(3 9.96641e-16 0)
(3 9.05339e-16 0)
(3 5.25081e-16 0)
(3 5.02265e-16 0)
(3 -7.18087e-16 0)
(3 -1.84251e-15 0)
(3 -1.95583e-15 0)
(3 -1.96345e-15 0)
(3 -1.97118e-15 0)
(3 -6.12616e-16 0)
(3 4.6008e-16 0)
(3 9.0878e-16 0)
(3 5.62805e-16 0)
(3 -9.9316e-16 0)
(3 -1.48718e-15 0)
(3 -2.02174e-15 0)
(3 -3.01863e-15 0)
(3 -4.42001e-15 0)
(3 -5.45381e-15 0)
(3 -5.83894e-15 0)
(3 -5.23008e-15 0)
(3 9.66496e-17 0)
(3 1.28149e-16 0)
(3 2.80927e-16 0)
(3 3.07958e-16 0)
(3 6.9315e-16 0)
(3 8.27861e-16 0)
(3 3.0221e-16 0)
(3 2.22423e-17 0)
(3 -2.13043e-16 0)
(3 -6.09531e-16 0)
(3 -1.72755e-16 0)
(3 4.10004e-16 0)
(3 4.01621e-16 0)
(3 2.54865e-16 0)
(3 3.9823e-16 0)
(3 2.66312e-16 0)
(3 -1.16635e-16 0)
(3 5.06186e-17 0)
(3 2.93113e-16 0)
(3 -1.55571e-16 0)
(3 -4.56151e-16 0)
(3 -4.51671e-16 0)
(3 -1.08163e-15 0)
(3 -1.30433e-15 0)
(3 -1.6802e-15 0)
(3 -1.64423e-15 0)
(3 -5.15611e-16 0)
(3 9.17529e-16 0)
(3 9.63558e-16 0)
(3 1.11038e-15 0)
(3 6.91861e-16 0)
(3 -4.51067e-16 0)
(3 -8.49973e-16 0)
(3 -1.01026e-15 0)
(3 -1.37521e-15 0)
(3 -1.60148e-15 0)
(3 -1.59933e-15 0)
(3 -1.0656e-15 0)
(3 -5.72575e-16 0)
(3 -8.81432e-16 0)
(3 -8.73552e-16 0)
(3 -1.54747e-15 0)
(3 -1.9669e-15 0)
(3 -2.747e-15 0)
(3 -4.24628e-15 0)
(3 -4.64811e-15 0)
(3 -4.47733e-15 0)
(3 -4.0187e-15 0)
(3 8.3028e-17 0)
(3 2.91007e-16 0)
(3 2.29252e-16 0)
(3 1.25467e-16 0)
(3 7.63313e-16 0)
(3 6.59389e-16 0)
(3 3.69092e-16 0)
(3 2.34049e-18 0)
(3 -1.89568e-16 0)
(3 -2.91132e-16 0)
(3 3.18743e-16 0)
(3 5.74746e-16 0)
(3 3.78773e-16 0)
(3 8.45192e-16 0)
(3 1.2535e-15 0)
(3 7.78353e-16 0)
(3 1.66959e-17 0)
(3 9.34514e-17 0)
(3 2.35371e-17 0)
(3 1.69368e-16 0)
(3 3.66967e-16 0)
(3 -1.14322e-16 0)
(3 -8.37481e-16 0)
(3 -1.32982e-15 0)
(3 -1.16072e-15 0)
(3 -1.30216e-15 0)
(3 -1.12198e-15 0)
(3 2.34031e-16 0)
(3 5.03418e-17 0)
(3 1.8607e-16 0)
(3 -7.13321e-16 0)
(3 -1.45176e-15 0)
(3 -1.46078e-15 0)
(3 -1.80279e-15 0)
(3 -1.26299e-15 0)
(3 -5.87231e-16 0)
(3 -9.18675e-16 0)
(3 -2.57895e-16 0)
(3 1.03151e-16 0)
(3 -1.45837e-15 0)
(3 -3.04774e-15 0)
(3 -3.15653e-15 0)
(3 -2.80407e-15 0)
(3 -2.0079e-15 0)
(3 -1.62205e-15 0)
(3 -1.71435e-15 0)
(3 -2.43728e-15 0)
(3 -3.88431e-15 0)
(3 -1.86281e-16 0)
(3 -1.92369e-16 0)
(3 -8.5617e-16 0)
(3 -6.52734e-16 0)
(3 -2.21511e-16 0)
(3 -4.26596e-16 0)
(3 -7.73092e-16 0)
(3 -1.11874e-15 0)
(3 -1.15113e-15 0)
(3 -7.35203e-16 0)
(3 -2.78992e-16 0)
(3 1.63386e-15 0)
(3 1.79772e-15 0)
(3 1.62248e-15 0)
(3 1.96444e-15 0)
(3 1.98358e-15 0)
(3 1.07555e-15 0)
(3 4.39021e-16 0)
(3 1.03355e-16 0)
(3 5.08642e-16 0)
(3 8.82318e-16 0)
(3 3.1857e-16 0)
(3 2.92229e-16 0)
(3 1.6802e-16 0)
(3 -6.81851e-16 0)
(3 -1.08549e-15 0)
(3 -1.61523e-15 0)
(3 -1.3977e-15 0)
(3 -4.57247e-16 0)
(3 5.77088e-17 0)
(3 1.61336e-16 0)
(3 -3.65351e-16 0)
(3 -1.08119e-15 0)
(3 -1.91309e-15 0)
(3 -1.71717e-15 0)
(3 -1.74139e-15 0)
(3 -8.88737e-16 0)
(3 2.01555e-16 0)
(3 6.18997e-16 0)
(3 -4.90214e-16 0)
(3 -1.219e-15 0)
(3 -8.5222e-16 0)
(3 -6.26766e-16 0)
(3 -4.12369e-16 0)
(3 -1.7884e-16 0)
(3 -1.96322e-16 0)
(3 -3.93917e-16 0)
(3 -6.36931e-17 0)
(3 -4.65034e-17 0)
(3 -3.59443e-16 0)
(3 -3.27456e-16 0)
(3 1.77234e-17 0)
(3 -3.27881e-16 0)
(3 -5.61824e-16 0)
(3 -4.05957e-16 0)
(3 -5.23868e-16 0)
(3 -3.66511e-16 0)
(3 -1.31541e-17 0)
(3 1.06693e-15 0)
(3 1.76042e-15 0)
(3 1.98137e-15 0)
(3 1.91223e-15 0)
(3 1.54861e-15 0)
(3 1.97215e-15 0)
(3 2.63107e-15 0)
(3 1.69966e-15 0)
(3 5.74527e-16 0)
(3 2.8458e-16 0)
(3 2.00629e-16 0)
(3 3.65839e-17 0)
(3 3.6706e-16 0)
(3 2.34541e-16 0)
(3 -1.58523e-16 0)
(3 -3.61379e-16 0)
(3 -6.91573e-16 0)
(3 -8.38268e-16 0)
(3 8.21737e-16 0)
(3 1.26937e-15 0)
(3 5.07084e-16 0)
(3 -5.54799e-16 0)
(3 -1.68794e-15 0)
(3 -1.77893e-15 0)
(3 -2.28574e-15 0)
(3 -2.60255e-15 0)
(3 -3.24859e-16 0)
(3 4.14014e-16 0)
(3 9.78882e-16 0)
(3 1.02588e-15 0)
(3 6.47123e-16 0)
(3 4.4744e-16 0)
(3 4.82586e-16 0)
(3 6.08335e-16 0)
(3 4.40859e-16 0)
(3 5.2927e-16 0)
(3 8.18768e-16 0)
(3 8.37568e-16 0)
(3 2.17511e-16 0)
(3 1.39561e-16 0)
(3 5.63494e-16 0)
(3 9.00696e-16 0)
(3 5.98557e-16 0)
(3 5.14238e-16 0)
(3 1.10738e-15 0)
(3 1.2041e-15 0)
(3 6.50808e-16 0)
(3 4.54498e-16 0)
(3 8.1666e-16 0)
(3 6.70215e-16 0)
(3 7.72589e-16 0)
(3 4.3861e-16 0)
(3 4.34895e-16 0)
(3 6.06158e-16 0)
(3 4.26846e-16 0)
(3 5.19959e-16 0)
(3 7.906e-16 0)
(3 2.23946e-17 0)
(3 -4.53944e-16 0)
(3 -9.98435e-16 0)
(3 -1.04737e-15 0)
(3 -1.15292e-15 0)
(3 -1.28719e-15 0)
(3 -1.47505e-15 0)
(3 -1.88293e-15 0)
(3 -1.4985e-15 0)
(3 -8.83562e-16 0)
(3 -2.18068e-16 0)
(3 -9.78976e-16 0)
(3 -1.6886e-15 0)
(3 -1.64977e-15 0)
(3 -1.26692e-15 0)
(3 -1.32221e-15 0)
(3 -1.42133e-15 0)
(3 -2.24864e-17 0)
(3 1.75971e-15 0)
(3 2.61552e-15 0)
(3 2.76798e-15 0)
(3 2.64031e-15 0)
(3 2.19369e-15 0)
(3 2.21324e-15 0)
(3 2.42159e-15 0)
(3 2.06495e-15 0)
(3 1.46213e-15 0)
(3 3.90343e-16 0)
(3 -2.40466e-15 0)
(3 3.69678e-17 0)
(3 2.58913e-16 0)
(3 2.66742e-16 0)
(3 3.67644e-16 0)
(3 1.16488e-15 0)
(3 1.77634e-15 0)
(3 1.78724e-15 0)
(3 7.68347e-16 0)
(3 -1.27586e-16 0)
(3 -1.7306e-16 0)
(3 6.04352e-16 0)
(3 8.73512e-16 0)
(3 6.0763e-16 0)
(3 5.19695e-16 0)
(3 3.99236e-16 0)
(3 -2.93143e-17 0)
(3 -6.14642e-16 0)
(3 1.57112e-16 0)
(3 1.0214e-15 0)
(3 4.68937e-16 0)
(3 3.08245e-16 0)
(3 2.13333e-16 0)
(3 -2.53695e-16 0)
(3 -4.89689e-16 0)
(3 -1.06331e-15 0)
(3 -1.49186e-15 0)
(3 -1.94027e-15 0)
(3 -1.85447e-15 0)
(3 -2.4312e-15 0)
(3 -2.07617e-15 0)
(3 -1.32416e-15 0)
(3 -1.11936e-15 0)
(3 -9.0416e-16 0)
(3 -6.43179e-16 0)
(3 -3.42962e-16 0)
(3 -1.13842e-15 0)
(3 8.05448e-16 0)
(3 1.74127e-15 0)
(3 2.48057e-15 0)
(3 1.77523e-15 0)
(3 1.99654e-15 0)
(3 2.16193e-15 0)
(3 2.78321e-15 0)
(3 2.65981e-15 0)
(3 1.76378e-15 0)
(3 4.24511e-16 0)
(3 -1.0707e-16 0)
(3 -1.50156e-15 0)
(3 1.07071e-17 0)
(3 1.61622e-16 0)
(3 1.6619e-16 0)
(3 2.88204e-16 0)
(3 2.27786e-16 0)
(3 1.14037e-16 0)
(3 -4.63616e-16 0)
(3 -1.16002e-15 0)
(3 -9.07619e-16 0)
(3 -1.73377e-16 0)
(3 3.40226e-16 0)
(3 2.29446e-16 0)
(3 3.17484e-16 0)
(3 2.72365e-16 0)
(3 1.52599e-16 0)
(3 -9.69397e-16 0)
(3 -1.53836e-15 0)
(3 -1.53097e-15 0)
(3 -8.85211e-17 0)
(3 7.47619e-16 0)
(3 4.9985e-16 0)
(3 7.22726e-16 0)
(3 8.17582e-16 0)
(3 8.10281e-16 0)
(3 8.83946e-16 0)
(3 8.46977e-16 0)
(3 4.25106e-16 0)
(3 1.67512e-16 0)
(3 -3.18611e-16 0)
(3 -1.41952e-15 0)
(3 -1.94508e-15 0)
(3 -1.75453e-15 0)
(3 -1.4238e-15 0)
(3 -2.43232e-16 0)
(3 2.5228e-16 0)
(3 5.69995e-16 0)
(3 -6.33586e-16 0)
(3 -5.17211e-16 0)
(3 -6.49533e-16 0)
(3 -7.36523e-16 0)
(3 4.04861e-16 0)
(3 1.27007e-15 0)
(3 2.25054e-15 0)
(3 1.99169e-15 0)
(3 1.21793e-15 0)
(3 -1.97291e-17 0)
(3 -9.63646e-16 0)
(3 -3.57703e-16 0)
(3 7.46324e-17 0)
(3 1.21566e-16 0)
(3 -2.82367e-16 0)
(3 -6.44607e-16 0)
(3 -1.07971e-15 0)
(3 -1.59901e-15 0)
(3 -1.37998e-15 0)
(3 -5.94519e-16 0)
(3 7.15186e-16 0)
(3 9.81003e-16 0)
(3 -9.14489e-16 0)
(3 -9.91526e-16 0)
(3 -4.90395e-16 0)
(3 -2.07082e-16 0)
(3 -5.32956e-16 0)
(3 -8.03746e-16 0)
(3 -1.1645e-15 0)
(3 -1.48362e-15 0)
(3 -1.18235e-15 0)
(3 -4.31045e-16 0)
(3 -7.78105e-17 0)
(3 -6.65166e-16 0)
(3 -1.13815e-15 0)
(3 -1.05315e-15 0)
(3 4.08473e-16 0)
(3 8.0657e-16 0)
(3 7.40829e-16 0)
(3 1.81887e-16 0)
(3 -9.43845e-17 0)
(3 -1.77612e-15 0)
(3 -2.61519e-15 0)
(3 -2.84309e-15 0)
(3 -2.68386e-15 0)
(3 -1.3922e-15 0)
(3 1.32232e-15 0)
(3 1.02465e-15 0)
(3 2.50466e-16 0)
(3 1.56393e-16 0)
(3 -1.56205e-16 0)
(3 2.31848e-16 0)
(3 1.39375e-15 0)
(3 2.10928e-15 0)
(3 1.50098e-15 0)
(3 1.27596e-15 0)
(3 9.68316e-16 0)
(3 1.5425e-16 0)
(3 -1.49542e-15 0)
(3 -1.0895e-15 0)
(3 -5.83774e-17 0)
(3 -4.00016e-17 0)
(3 -1.0364e-16 0)
(3 -8.05849e-16 0)
(3 -1.11286e-15 0)
(3 -1.0665e-15 0)
(3 -5.98974e-16 0)
(3 -1.78321e-16 0)
(3 2.96962e-16 0)
(3 -4.14586e-17 0)
(3 -7.3952e-16 0)
(3 -4.29313e-16 0)
(3 -2.24749e-16 0)
(3 -4.12018e-16 0)
(3 -9.61426e-16 0)
(3 -8.53912e-16 0)
(3 -4.12633e-16 0)
(3 -2.49781e-16 0)
(3 -8.9298e-16 0)
(3 -1.16438e-15 0)
(3 -1.02751e-15 0)
(3 -1.28924e-15 0)
(3 -2.78996e-15 0)
(3 -2.9919e-15 0)
(3 -2.21819e-15 0)
(3 -1.54904e-15 0)
(3 -1.87819e-15 0)
(3 -2.34488e-15 0)
(3 -2.49733e-15 0)
(3 -2.91817e-15 0)
(3 -3.43456e-15 0)
(3 -4.00234e-15 0)
(3 -2.00166e-15 0)
(3 -6.9539e-16 0)
(3 8.39777e-16 0)
(3 1.43582e-15 0)
(3 2.35809e-15 0)
(3 2.59101e-15 0)
(3 2.28907e-15 0)
(3 2.19432e-15 0)
(3 2.65633e-15 0)
(3 1.89921e-15 0)
(3 1.33975e-15 0)
(3 1.18358e-15 0)
(3 -1.59447e-16 0)
(3 -6.10348e-16 0)
(3 -8.45206e-16 0)
(3 -4.20022e-16 0)
(3 -2.88158e-18 0)
(3 2.84527e-16 0)
(3 1.07326e-16 0)
(3 -3.40794e-16 0)
(3 -5.8594e-16 0)
(3 3.59635e-16 0)
(3 6.72655e-16 0)
(3 4.44142e-16 0)
(3 -2.91622e-16 0)
(3 -7.65364e-16 0)
(3 -9.10312e-16 0)
(3 -9.4005e-16 0)
(3 -6.91541e-16 0)
(3 -1.10426e-15 0)
(3 -1.08704e-15 0)
(3 -1.3124e-15 0)
(3 -1.05135e-15 0)
(3 -5.41402e-16 0)
(3 2.97348e-17 0)
(3 -6.71852e-16 0)
(3 -3.91203e-16 0)
(3 -3.45418e-16 0)
(3 -4.31503e-16 0)
(3 -7.5263e-16 0)
(3 -1.84911e-15 0)
(3 -2.57587e-15 0)
(3 -2.77591e-15 0)
(3 -3.7482e-15 0)
(3 -3.60583e-15 0)
(3 -3.19298e-15 0)
(3 -2.56501e-15 0)
(3 -2.69734e-15 0)
(3 -1.36152e-15 0)
(3 -4.60179e-16 0)
(3 9.2802e-16 0)
(3 2.22744e-15 0)
(3 2.63468e-15 0)
(3 2.1211e-15 0)
(3 2.24305e-15 0)
(3 2.55755e-15 0)
(3 1.53468e-15 0)
(3 -5.06441e-16 0)
(3 -1.22661e-16 0)
(3 -2.4433e-16 0)
(3 -8.62516e-16 0)
(3 -1.32489e-15 0)
(3 1.87502e-16 0)
(3 2.5865e-15 0)
(3 4.99707e-17 0)
(3 3.6562e-17 0)
(3 4.03417e-17 0)
(3 1.53757e-17 0)
(3 -6.22108e-19 0)
(3 1.83719e-16 0)
(3 3.57776e-16 0)
(3 8.1236e-16 0)
(3 9.59134e-16 0)
(3 9.92472e-16 0)
(3 1.28604e-16 0)
(3 -1.0189e-15 0)
(3 -1.28613e-15 0)
(3 -1.20062e-15 0)
(3 -1.15584e-15 0)
(3 -1.36521e-15 0)
(3 -1.35615e-15 0)
(3 -1.29683e-15 0)
(3 -3.06686e-16 0)
(3 3.42371e-16 0)
(3 1.31246e-15 0)
(3 1.72522e-15 0)
(3 1.89572e-15 0)
(3 1.16102e-15 0)
(3 3.70008e-16 0)
(3 -1.43371e-16 0)
(3 -8.66736e-16 0)
(3 -3.64995e-15 0)
(3 -3.72399e-15 0)
(3 -3.46892e-15 0)
(3 -2.73566e-15 0)
(3 -2.43677e-15 0)
(3 -1.05859e-15 0)
(3 5.41207e-16 0)
(3 1.50365e-15 0)
(3 2.06228e-15 0)
(3 8.81023e-16 0)
(3 -8.21981e-16 0)
(3 -9.06004e-16 0)
(3 -8.95731e-16 0)
(3 -5.70208e-16 0)
(3 -1.3314e-15 0)
(3 -2.04974e-15 0)
(3 -2.24336e-15 0)
(3 -4.526e-16 0)
(3 1.26426e-15 0)
(3 1.97145e-15 0)
(3 6.08159e-16 0)
(3 1.02467e-16 0)
(3 -5.08814e-19 0)
(3 3.79065e-16 0)
(3 9.67444e-16 0)
(3 1.13784e-15 0)
(3 4.04461e-16 0)
(3 2.50248e-16 0)
(3 4.89552e-16 0)
(3 1.03468e-15 0)
(3 8.84528e-16 0)
(3 4.68438e-16 0)
(3 -5.00949e-16 0)
(3 -1.24245e-15 0)
(3 -1.26324e-15 0)
(3 -1.11429e-15 0)
(3 -5.79606e-16 0)
(3 -2.29139e-16 0)
(3 4.89705e-16 0)
(3 1.06173e-15 0)
(3 2.22533e-15 0)
(3 3.53092e-15 0)
(3 3.80858e-15 0)
(3 3.03786e-15 0)
(3 1.81279e-15 0)
(3 1.24587e-15 0)
(3 6.98305e-17 0)
(3 -1.28641e-15 0)
(3 -2.34818e-15 0)
(3 -2.99385e-15 0)
(3 -2.98705e-15 0)
(3 -3.45089e-15 0)
(3 -2.64553e-15 0)
(3 6.66214e-16 0)
(3 2.23506e-15 0)
(3 2.24557e-15 0)
(3 2.19098e-15 0)
(3 1.02711e-15 0)
(3 9.91463e-16 0)
(3 6.72286e-16 0)
(3 -1.1238e-16 0)
(3 -5.23909e-16 0)
(3 -1.15519e-15 0)
(3 -1.34304e-15 0)
(3 -7.64486e-16 0)
(3 6.07171e-16 0)
(3 2.87637e-15 0)
(3 3.5871e-15 0)
(3 2.92968e-15 0)
(3 -1.16697e-16 0)
(3 -2.17074e-16 0)
(3 -2.59598e-16 0)
(3 7.43715e-19 0)
(3 1.52609e-16 0)
(3 4.67943e-16 0)
(3 6.4458e-16 0)
(3 6.0979e-16 0)
(3 2.96401e-16 0)
(3 -9.05407e-17 0)
(3 2.15206e-16 0)
(3 3.35163e-16 0)
(3 -3.47505e-16 0)
(3 -3.72065e-16 0)
(3 1.77661e-16 0)
(3 9.10111e-16 0)
(3 1.59937e-15 0)
(3 1.99058e-15 0)
(3 2.12179e-15 0)
(3 2.5208e-15 0)
(3 3.25685e-15 0)
(3 2.86303e-15 0)
(3 8.76416e-16 0)
(3 6.83828e-16 0)
(3 6.38525e-16 0)
(3 -3.64859e-16 0)
(3 -6.13985e-16 0)
(3 -1.26391e-15 0)
(3 -1.92895e-15 0)
(3 -2.06344e-15 0)
(3 -1.99287e-15 0)
(3 -9.16801e-16 0)
(3 7.51569e-16 0)
(3 1.12627e-15 0)
(3 1.05111e-15 0)
(3 3.33469e-16 0)
(3 5.5667e-16 0)
(3 1.06057e-15 0)
(3 1.20892e-15 0)
(3 1.09113e-15 0)
(3 2.32657e-16 0)
(3 -1.02323e-15 0)
(3 6.42918e-17 0)
(3 1.09917e-15 0)
(3 2.29803e-15 0)
(3 3.49627e-15 0)
(3 4.39547e-15 0)
(3 3.70739e-15 0)
(3 -1.41305e-16 0)
(3 -1.22694e-16 0)
(3 -2.63315e-16 0)
(3 -3.22858e-16 0)
(3 -4.47688e-16 0)
(3 -1.89845e-16 0)
(3 -1.76935e-16 0)
(3 -1.42434e-16 0)
(3 1.9361e-16 0)
(3 2.75136e-16 0)
(3 1.24802e-15 0)
(3 1.66778e-15 0)
(3 1.32421e-15 0)
(3 1.2079e-15 0)
(3 4.23137e-16 0)
(3 4.93189e-16 0)
(3 1.80284e-15 0)
(3 2.26341e-15 0)
(3 1.80205e-15 0)
(3 1.39812e-15 0)
(3 2.06255e-15 0)
(3 1.86179e-15 0)
(3 1.77196e-15 0)
(3 1.90067e-15 0)
(3 1.88271e-15 0)
(3 1.84669e-15 0)
(3 1.71822e-15 0)
(3 1.14768e-15 0)
(3 4.7154e-16 0)
(3 -2.9144e-16 0)
(3 -3.23774e-16 0)
(3 8.51892e-17 0)
(3 -3.21914e-16 0)
(3 -8.91525e-16 0)
(3 -5.88138e-16 0)
(3 -5.53787e-16 0)
(3 1.68886e-16 0)
(3 8.30477e-16 0)
(3 8.97455e-16 0)
(3 1.40413e-15 0)
(3 1.29287e-15 0)
(3 1.63167e-15 0)
(3 2.25599e-16 0)
(3 -4.31244e-16 0)
(3 -1.69802e-16 0)
(3 3.06594e-16 0)
(3 1.89999e-15 0)
(3 2.6868e-15 0)
(3 3.02447e-17 0)
(3 1.31251e-16 0)
(3 2.57124e-16 0)
(3 1.22044e-16 0)
(3 4.25543e-17 0)
(3 1.33812e-16 0)
(3 2.84386e-17 0)
(3 1.59616e-17 0)
(3 5.34169e-17 0)
(3 1.90645e-16 0)
(3 3.09559e-16 0)
(3 1.06865e-15 0)
(3 1.52773e-15 0)
(3 1.04132e-15 0)
(3 1.04409e-15 0)
(3 1.06181e-15 0)
(3 8.4468e-16 0)
(3 7.01329e-16 0)
(3 4.26197e-16 0)
(3 1.10218e-15 0)
(3 1.31695e-15 0)
(3 1.52987e-15 0)
(3 2.33003e-15 0)
(3 2.73823e-15 0)
(3 2.92435e-15 0)
(3 3.07757e-15 0)
(3 2.8798e-15 0)
(3 2.15683e-15 0)
(3 1.22338e-15 0)
(3 9.43003e-16 0)
(3 9.05761e-16 0)
(3 -6.27152e-16 0)
(3 -1.65166e-15 0)
(3 -1.5941e-15 0)
(3 -1.84935e-15 0)
(3 -1.8929e-15 0)
(3 5.23594e-17 0)
(3 2.40505e-15 0)
(3 2.52994e-15 0)
(3 2.82509e-15 0)
(3 2.95427e-15 0)
(3 2.81964e-15 0)
(3 1.23751e-15 0)
(3 9.3264e-17 0)
(3 -8.80266e-16 0)
(3 -1.02915e-15 0)
(3 -7.1582e-17 0)
(3 3.07863e-16 0)
(3 -1.67627e-16 0)
(3 -1.86759e-16 0)
(3 -7.96266e-17 0)
(3 2.04849e-16 0)
(3 1.06076e-16 0)
(3 6.5179e-17 0)
(3 2.18211e-16 0)
(3 7.12571e-17 0)
(3 -1.47415e-16 0)
(3 -1.24232e-16 0)
(3 -5.99331e-16 0)
(3 -4.02291e-16 0)
(3 2.64812e-16 0)
(3 3.89793e-16 0)
(3 7.41791e-16 0)
(3 7.13679e-17 0)
(3 4.40082e-17 0)
(3 -4.28041e-17 0)
(3 3.00183e-16 0)
(3 2.0252e-16 0)
(3 -3.3713e-16 0)
(3 8.32168e-16 0)
(3 1.23482e-15 0)
(3 1.47118e-15 0)
(3 1.47325e-15 0)
(3 1.45583e-15 0)
(3 1.36028e-15 0)
(3 1.62288e-15 0)
(3 1.44969e-15 0)
(3 2.01328e-15 0)
(3 9.72817e-16 0)
(3 -3.94307e-16 0)
(3 -1.5044e-15 0)
(3 -2.61563e-15 0)
(3 -2.88397e-15 0)
(3 -2.46288e-15 0)
(3 -1.72584e-15 0)
(3 5.68498e-16 0)
(3 3.31814e-15 0)
(3 3.62653e-15 0)
(3 2.96176e-15 0)
(3 2.22339e-15 0)
(3 2.46783e-15 0)
(3 2.2991e-15 0)
(3 2.48298e-16 0)
(3 -7.44529e-16 0)
(3 -6.73548e-16 0)
(3 -4.11356e-16 0)
(3 -7.19898e-18 0)
(3 -5.06096e-17 0)
(3 -3.02071e-16 0)
(3 -2.49661e-16 0)
(3 9.23251e-17 0)