/*--------------------------------*- C++ -*----------------------------------*\
  =========                 |
  \\      /  F ield         | OpenFOAM: The Open Source CFD Toolbox
   \\    /   O peration     | Website:  https://openfoam.org
    \\  /    A nd           | Version:  7
     \\/     M anipulation  |
\*---------------------------------------------------------------------------*/
FoamFile
{
    version     2.0;
    format      ascii;
    class       volVectorField;
    location    "4";
    object      U;
}
// * * * * * * * * * * * * * * * * * * * * * * * * * * * * * * * * * * * * * //

dimensions      [0 1 -1 0 0 0 0];

internalField   nonuniform List<vector> 
73728
(
(3 -3.97127e-17 0)
(3 1.02873e-16 0)
(3 3.5736e-16 0)
(3 2.02304e-16 0)
(3 -2.15665e-16 0)
(3 -1.90143e-16 0)
(3 -6.09473e-17 0)
(3 -2.01922e-16 0)
(3 -2.08268e-16 0)
(3 -3.55274e-16 0)
(3 -3.34596e-16 0)
(3 -4.59867e-16 0)
(3 -5.8446e-16 0)
(3 -2.84116e-16 0)
(3 -1.08508e-17 0)
(3 -9.60434e-16 0)
(3 -2.11617e-15 0)
(3 -1.15693e-15 0)
(3 -5.47827e-16 0)
(3 -1.94089e-16 0)
(3 1.53656e-16 0)
(3 9.21798e-16 0)
(3 8.60177e-16 0)
(3 2.71432e-16 0)
(3 -9.22318e-16 0)
(3 -1.00196e-15 0)
(3 -4.99014e-16 0)
(3 -3.91021e-16 0)
(3 -1.2348e-16 0)
(3 -1.93034e-16 0)
(3 3.02706e-16 0)
(3 1.73596e-16 0)
(3 8.37647e-17 0)
(3 -1.39006e-16 0)
(3 -4.55465e-16 0)
(3 -5.07106e-16 0)
(3 -6.35962e-16 0)
(3 -7.11019e-16 0)
(3 -5.14627e-16 0)
(3 -1.95663e-16 0)
(3 -1.57253e-16 0)
(3 -7.40508e-16 0)
(3 -1.20417e-15 0)
(3 -7.62911e-16 0)
(3 2.01989e-17 0)
(3 -6.97095e-17 0)
(3 -4.23205e-16 0)
(3 -8.08731e-16 0)
(3 -1.04658e-15 0)
(3 -1.38743e-15 0)
(3 -5.29273e-16 0)
(3 1.69116e-15 0)
(3 2.46278e-15 0)
(3 2.19343e-15 0)
(3 1.9055e-15 0)
(3 1.36832e-15 0)
(3 5.47085e-16 0)
(3 4.20029e-16 0)
(3 -3.46934e-16 0)
(3 -3.11037e-16 0)
(3 1.52424e-16 0)
(3 6.92378e-16 0)
(3 -3.43194e-16 0)
(3 -7.33989e-16 0)
(3 -1.09887e-15 0)
(3 -1.24331e-15 0)
(3 -1.22827e-15 0)
(3 -9.18024e-16 0)
(3 -1.12249e-15 0)
(3 -1.58321e-15 0)
(3 -1.37965e-15 0)
(3 -7.49798e-16 0)
(3 -2.38886e-16 0)
(3 -2.13489e-16 0)
(3 -2.72615e-16 0)
(3 7.74911e-17 0)
(3 1.24035e-15 0)
(3 1.32398e-15 0)
(3 4.27804e-16 0)
(3 -3.2211e-16 0)
(3 -3.26421e-16 0)
(3 -7.67369e-16 0)
(3 -1.02938e-15 0)
(3 -9.69915e-16 0)
(3 3.91511e-16 0)
(3 6.16068e-16 0)
(3 7.73528e-16 0)
(3 1.03589e-15 0)
(3 1.15961e-15 0)
(3 1.94661e-15 0)
(3 2.73573e-15 0)
(3 1.86275e-15 0)
(3 1.2647e-15 0)
(3 -9.49046e-16 0)
(3 -1.76049e-15 0)
(3 6.7105e-16 0)
(3 -4.52842e-17 0)
(3 -2.68643e-16 0)
(3 -7.02372e-17 0)
(3 4.81288e-17 0)
(3 -3.17479e-16 0)
(3 -3.79664e-16 0)
(3 -1.23384e-16 0)
(3 -4.0132e-17 0)
(3 6.09812e-17 0)
(3 -2.91544e-17 0)
(3 1.531e-16 0)
(3 -4.01097e-17 0)
(3 -3.24122e-16 0)
(3 -3.7577e-16 0)
(3 -8.48172e-16 0)
(3 -2.64908e-15 0)
(3 -2.76029e-15 0)
(3 -1.86087e-15 0)
(3 -4.25889e-16 0)
(3 -9.48643e-17 0)
(3 -1.28217e-16 0)
(3 2.27562e-16 0)
(3 2.57885e-16 0)
(3 -4.93934e-16 0)
(3 -2.19519e-15 0)
(3 -2.58112e-15 0)
(3 -1.53358e-15 0)
(3 -6.86568e-16 0)
(3 4.84363e-16 0)
(3 1.25285e-17 0)
(3 1.02054e-16 0)
(3 7.91098e-16 0)
(3 8.85318e-16 0)
(3 3.79049e-16 0)
(3 -4.14302e-16 0)
(3 -8.73576e-16 0)
(3 -9.74009e-16 0)
(3 -1.2233e-15 0)
(3 -6.34241e-16 0)
(3 -7.87936e-16 0)
(3 -1.24048e-15 0)
(3 -2.15413e-15 0)
(3 -3.03221e-15 0)
(3 -2.3914e-15 0)
(3 -1.29818e-15 0)
(3 -1.37416e-15 0)
(3 -1.67177e-15 0)
(3 -1.51375e-15 0)
(3 -1.63835e-15 0)
(3 -1.89886e-15 0)
(3 -4.68283e-16 0)
(3 9.09253e-16 0)
(3 1.78149e-15 0)
(3 2.23133e-15 0)
(3 2.22643e-15 0)
(3 1.42617e-15 0)
(3 -5.55252e-16 0)
(3 -1.19033e-15 0)
(3 -9.92175e-16 0)
(3 -9.95418e-16 0)
(3 -1.8443e-16 0)
(3 7.37571e-16 0)
(3 4.12061e-16 0)
(3 2.9932e-16 0)
(3 5.78144e-16 0)
(3 1.13953e-15 0)
(3 9.65877e-16 0)
(3 3.51633e-16 0)
(3 2.06985e-16 0)
(3 -8.64408e-16 0)
(3 -1.04991e-15 0)
(3 -3.26696e-16 0)
(3 -4.96322e-16 0)
(3 -1.19828e-15 0)
(3 -8.57626e-16 0)
(3 -5.52952e-16 0)
(3 6.20667e-16 0)
(3 1.07611e-15 0)
(3 4.83596e-16 0)
(3 2.56927e-16 0)
(3 1.27557e-15 0)
(3 7.30782e-16 0)
(3 -1.3731e-15 0)
(3 -1.86115e-15 0)
(3 -6.725e-16 0)
(3 2.38102e-15 0)
(3 3.06826e-15 0)
(3 2.9508e-15 0)
(3 5.32893e-15 0)
(3 6.96702e-15 0)
(3 5.54915e-15 0)
(3 4.15884e-15 0)
(3 3.11817e-15 0)
(3 4.74485e-16 0)
(3 -9.36104e-16 0)
(3 1.19095e-15 0)
(3 2.7609e-18 0)
(3 -1.80967e-16 0)
(3 -1.69005e-16 0)
(3 1.23122e-16 0)
(3 8.6341e-17 0)
(3 -2.21126e-17 0)
(3 -2.32303e-16 0)
(3 7.65412e-17 0)
(3 4.05359e-16 0)
(3 9.23982e-16 0)
(3 6.79133e-16 0)
(3 1.88976e-16 0)
(3 5.79448e-17 0)
(3 -8.52956e-16 0)
(3 -2.27801e-15 0)
(3 -3.05881e-15 0)
(3 -3.14366e-15 0)
(3 -3.00331e-15 0)
(3 -1.60698e-15 0)
(3 -6.4626e-16 0)
(3 2.81991e-16 0)
(3 -1.55452e-16 0)
(3 -4.55609e-16 0)
(3 -1.18188e-15 0)
(3 -2.37078e-15 0)
(3 -1.13504e-15 0)
(3 5.52221e-16 0)
(3 8.41223e-16 0)
(3 1.06751e-15 0)
(3 6.69108e-16 0)
(3 6.22857e-16 0)
(3 5.03933e-16 0)
(3 4.8117e-16 0)
(3 3.8747e-16 0)
(3 1.2596e-16 0)
(3 -6.28316e-16 0)
(3 -1.47889e-15 0)
(3 -1.96769e-15 0)
(3 -2.0524e-15 0)
(3 -3.2699e-15 0)
(3 -4.44537e-15 0)
(3 -4.75451e-15 0)
(3 -3.95959e-15 0)
(3 -2.29692e-15 0)
(3 -2.08244e-15 0)
(3 -2.5181e-15 0)
(3 -1.65672e-15 0)
(3 1.86868e-16 0)
(3 1.06495e-15 0)
(3 1.59725e-15 0)
(3 1.91301e-16 0)
(3 1.78691e-16 0)
(3 8.08951e-16 0)
(3 1.00772e-15 0)
(3 1.78208e-15 0)
(3 1.97244e-15 0)
(3 1.33392e-15 0)
(3 -4.71746e-16 0)
(3 -8.94307e-16 0)
(3 -9.99097e-16 0)
(3 -1.33708e-15 0)
(3 -1.6052e-15 0)
(3 -1.06924e-15 0)
(3 -9.54999e-16 0)
(3 -6.84254e-16 0)
(3 2.99968e-17 0)
(3 6.25439e-16 0)
(3 6.56561e-16 0)
(3 5.2998e-18 0)
(3 -4.20976e-16 0)
(3 -3.39484e-16 0)
(3 -2.7885e-16 0)
(3 -8.83858e-16 0)
(3 -1.7306e-15 0)
(3 -1.05105e-15 0)
(3 -3.00965e-16 0)
(3 3.08197e-16 0)
(3 1.08268e-15 0)
(3 1.48887e-15 0)
(3 1.05685e-15 0)
(3 -1.32618e-16 0)
(3 2.27918e-15 0)
(3 2.8389e-15 0)
(3 2.49881e-15 0)
(3 1.71593e-15 0)
(3 2.92801e-15 0)
(3 5.08334e-15 0)
(3 4.81455e-15 0)
(3 4.15955e-15 0)
(3 3.28682e-15 0)
(3 2.24778e-15 0)
(3 4.32546e-15 0)
(3 5.36912e-15 0)
(3 4.38556e-15 0)
(3 3.40052e-15 0)
(3 3.3005e-15 0)
(3 -5.9195e-17 0)
(3 1.91738e-16 0)
(3 2.61583e-16 0)
(3 4.3302e-16 0)
(3 5.26991e-16 0)
(3 2.38949e-16 0)
(3 1.62775e-16 0)
(3 2.21043e-16 0)
(3 2.39517e-16 0)
(3 1.83592e-16 0)
(3 -7.52532e-17 0)
(3 -4.05448e-16 0)
(3 -8.47982e-16 0)
(3 -1.4169e-15 0)
(3 -1.78941e-15 0)
(3 -1.73648e-15 0)
(3 -1.77562e-15 0)
(3 -2.03441e-15 0)
(3 -1.92568e-15 0)
(3 -1.48593e-15 0)
(3 -9.68625e-16 0)
(3 -1.59816e-15 0)
(3 -1.89351e-15 0)
(3 -1.29395e-15 0)
(3 -4.8125e-16 0)
(3 2.82809e-16 0)
(3 3.53595e-16 0)
(3 -3.67135e-16 0)
(3 -4.7439e-16 0)
(3 -3.80639e-16 0)
(3 2.92614e-16 0)
(3 5.94923e-16 0)
(3 1.6834e-16 0)
(3 3.55407e-18 0)
(3 -1.42971e-16 0)
(3 -4.78354e-16 0)
(3 -6.33897e-16 0)
(3 -7.02114e-16 0)
(3 -1.13591e-15 0)
(3 -2.58974e-15 0)
(3 -3.72094e-15 0)
(3 -5.34212e-15 0)
(3 -4.80628e-15 0)
(3 -2.63155e-15 0)
(3 -1.04598e-15 0)
(3 -1.29124e-15 0)
(3 -1.08683e-15 0)
(3 -3.63484e-16 0)
(3 7.72943e-17 0)
(3 1.5232e-15 0)
(3 2.5651e-15 0)
(3 2.25078e-15 0)
(3 2.37763e-16 0)
(3 -6.20244e-16 0)
(3 -4.92035e-16 0)
(3 -3.0478e-16 0)
(3 9.11793e-16 0)
(3 -4.35182e-17 0)
(3 -5.60397e-16 0)
(3 -2.59549e-16 0)
(3 -7.54802e-16 0)
(3 -2.38487e-15 0)
(3 -3.70735e-15 0)
(3 -4.09792e-15 0)
(3 -3.24324e-15 0)
(3 -1.53058e-15 0)
(3 -1.12157e-15 0)
(3 -1.04178e-16 0)
(3 -8.13897e-17 0)
(3 -6.56488e-16 0)
(3 -4.72187e-16 0)
(3 1.28814e-16 0)
(3 6.41822e-17 0)
(3 -2.76356e-16 0)
(3 -4.38521e-16 0)
(3 1.21036e-16 0)
(3 3.84001e-16 0)
(3 9.31292e-16 0)
(3 2.66074e-15 0)
(3 3.29235e-15 0)
(3 2.73755e-15 0)
(3 2.68304e-15 0)
(3 2.56892e-15 0)
(3 2.76205e-15 0)
(3 4.73989e-15 0)
(3 4.76092e-15 0)
(3 2.52169e-15 0)
(3 1.54495e-15 0)
(3 1.67713e-15 0)
(3 1.95451e-15 0)
(3 3.61866e-15 0)
(3 6.59598e-15 0)
(3 6.99524e-15 0)
(3 6.18702e-15 0)
(3 4.57597e-15 0)
(3 3.98369e-15 0)
(3 -1.41849e-16 0)
(3 -2.78347e-16 0)
(3 -1.40908e-16 0)
(3 5.16059e-17 0)
(3 2.00936e-16 0)
(3 -1.11645e-16 0)
(3 -1.88907e-16 0)
(3 -1.7933e-16 0)
(3 -3.52867e-16 0)
(3 -7.53732e-16 0)
(3 -6.23718e-16 0)
(3 -7.01133e-16 0)
(3 -1.33943e-15 0)
(3 -1.46035e-15 0)
(3 -1.39233e-15 0)
(3 -9.45854e-16 0)
(3 -8.46223e-16 0)
(3 -1.08418e-15 0)
(3 -1.82081e-15 0)
(3 -2.81525e-15 0)
(3 -3.48233e-15 0)
(3 -2.62558e-15 0)
(3 -2.48732e-15 0)
(3 -1.74506e-15 0)
(3 1.11891e-16 0)
(3 1.11493e-15 0)
(3 1.21466e-15 0)
(3 7.50299e-16 0)
(3 9.03613e-17 0)
(3 -4.10432e-17 0)
(3 2.21878e-16 0)
(3 1.15483e-15 0)
(3 9.25511e-16 0)
(3 3.11823e-16 0)
(3 9.77977e-17 0)
(3 -7.87938e-17 0)
(3 -3.43697e-16 0)
(3 -5.11493e-16 0)
(3 -8.11302e-16 0)
(3 -7.96809e-16 0)
(3 -1.06686e-16 0)
(3 1.023e-16 0)
(3 -3.14331e-16 0)
(3 -4.15072e-16 0)
(3 -1.33512e-16 0)
(3 5.18585e-16 0)
(3 4.83528e-16 0)
(3 3.24266e-16 0)
(3 4.75416e-16 0)
(3 2.33899e-16 0)
(3 1.21837e-16 0)
(3 -1.63251e-16 0)
(3 -4.88191e-16 0)
(3 -2.1769e-16 0)
(3 -3.13737e-16 0)
(3 -2.84209e-16 0)
(3 4.30683e-16 0)
(3 5.88341e-16 0)
(3 -6.93199e-16 0)
(3 -9.92045e-16 0)
(3 -1.76018e-15 0)
(3 -2.77171e-15 0)
(3 -3.29715e-15 0)
(3 -2.12766e-15 0)
(3 -7.31835e-16 0)
(3 -2.54678e-16 0)
(3 2.34535e-16 0)
(3 -3.84308e-16 0)
(3 -4.99186e-16 0)
(3 -1.31883e-15 0)
(3 -1.60083e-15 0)
(3 -1.01719e-15 0)
(3 -7.83634e-16 0)
(3 4.47147e-16 0)
(3 6.17833e-16 0)
(3 1.06451e-15 0)
(3 1.51762e-15 0)
(3 1.87637e-15 0)
(3 1.90769e-15 0)
(3 2.42126e-15 0)
(3 3.28782e-15 0)
(3 2.84084e-15 0)
(3 3.10631e-15 0)
(3 4.09137e-15 0)
(3 4.37539e-15 0)
(3 4.63132e-15 0)
(3 3.22681e-15 0)
(3 2.98601e-15 0)
(3 2.94224e-15 0)
(3 4.57579e-15 0)
(3 5.94923e-15 0)
(3 7.56798e-15 0)
(3 7.24022e-15 0)
(3 5.44202e-15 0)
(3 4.33711e-15 0)
(3 3.71839e-15 0)
(3 8.51686e-18 0)
(3 -3.00434e-16 0)
(3 -4.07031e-17 0)
(3 8.2181e-17 0)
(3 7.02471e-17 0)
(3 1.22584e-16 0)
(3 -1.78028e-16 0)
(3 -4.33176e-16 0)
(3 -5.92841e-16 0)
(3 -5.39237e-16 0)
(3 -3.45208e-16 0)
(3 1.01422e-16 0)
(3 1.02897e-16 0)
(3 -7.91873e-17 0)
(3 -4.1237e-16 0)
(3 -8.80557e-16 0)
(3 -1.23523e-15 0)
(3 -1.33875e-15 0)
(3 -2.30656e-15 0)
(3 -3.39251e-15 0)
(3 -3.45434e-15 0)
(3 -2.41567e-15 0)
(3 -1.30007e-15 0)
(3 -1.22228e-15 0)
(3 -4.8819e-16 0)
(3 1.99303e-15 0)
(3 3.08822e-15 0)
(3 2.94668e-15 0)
(3 2.44404e-15 0)
(3 1.81498e-15 0)
(3 1.45007e-15 0)
(3 1.74085e-15 0)
(3 1.67493e-15 0)
(3 9.06279e-16 0)
(3 4.19426e-16 0)
(3 2.4623e-16 0)
(3 -1.46016e-16 0)
(3 -6.39166e-17 0)
(3 3.40739e-17 0)
(3 3.69944e-16 0)
(3 2.13303e-15 0)
(3 2.82655e-15 0)
(3 2.20722e-15 0)
(3 8.75926e-16 0)
(3 3.39065e-16 0)
(3 1.14463e-15 0)
(3 1.18257e-15 0)
(3 4.33392e-16 0)
(3 -5.34796e-16 0)
(3 -1.55534e-15 0)
(3 -2.43276e-15 0)
(3 -1.73074e-15 0)
(3 6.09037e-16 0)
(3 2.27466e-15 0)
(3 7.85427e-16 0)
(3 3.55357e-16 0)
(3 -4.74149e-16 0)
(3 -7.09648e-16 0)
(3 -1.44593e-15 0)
(3 -2.17455e-15 0)
(3 -3.8676e-15 0)
(3 -4.50126e-15 0)
(3 -8.53949e-16 0)
(3 1.72957e-16 0)
(3 3.67066e-17 0)
(3 -3.30434e-16 0)
(3 -1.79232e-16 0)
(3 -5.49468e-16 0)
(3 -8.47032e-16 0)
(3 -1.26151e-15 0)
(3 -1.39163e-15 0)
(3 -1.38363e-15 0)
(3 -1.22046e-15 0)
(3 -3.56934e-16 0)
(3 3.8342e-16 0)
(3 6.19978e-17 0)
(3 5.10663e-16 0)
(3 2.20478e-15 0)
(3 1.16312e-15 0)
(3 9.54479e-16 0)
(3 2.35594e-15 0)
(3 3.38434e-15 0)
(3 5.57271e-15 0)
(3 5.58764e-15 0)
(3 3.72531e-15 0)
(3 4.24103e-15 0)
(3 5.00774e-15 0)
(3 7.49247e-15 0)
(3 7.88266e-15 0)
(3 7.44225e-15 0)
(3 6.96627e-15 0)
(3 6.53924e-15 0)
(3 5.88147e-15 0)
(3 4.32652e-15 0)
(3 4.18985e-15 0)
(3 5.17071e-15 0)
(3 1.79052e-16 0)
(3 -6.42085e-17 0)
(3 -1.51957e-16 0)
(3 -1.05908e-16 0)
(3 1.13725e-16 0)
(3 2.63109e-16 0)
(3 1.79431e-16 0)
(3 1.4676e-16 0)
(3 1.39712e-16 0)
(3 6.56572e-17 0)
(3 -3.26059e-16 0)
(3 1.05283e-17 0)
(3 2.13164e-16 0)
(3 3.0097e-16 0)
(3 1.04324e-16 0)
(3 -8.55692e-16 0)
(3 -1.32524e-15 0)
(3 -1.54738e-15 0)
(3 -1.81371e-15 0)
(3 -1.99099e-15 0)
(3 -3.03862e-15 0)
(3 -3.13197e-15 0)
(3 -1.02702e-15 0)
(3 -5.51357e-16 0)
(3 3.12778e-16 0)
(3 2.09937e-15 0)
(3 3.11172e-15 0)
(3 3.1999e-15 0)
(3 2.48216e-15 0)
(3 7.27181e-16 0)
(3 -5.07303e-16 0)
(3 -6.77842e-16 0)
(3 8.68633e-16 0)
(3 1.4719e-15 0)
(3 4.86533e-16 0)
(3 2.07501e-16 0)
(3 5.08908e-16 0)
(3 1.25505e-15 0)
(3 1.63302e-15 0)
(3 2.58298e-15 0)
(3 2.38237e-15 0)
(3 2.54781e-15 0)
(3 1.94471e-15 0)
(3 4.4894e-16 0)
(3 -7.52501e-16 0)
(3 -1.62955e-16 0)
(3 5.4122e-16 0)
(3 5.51895e-16 0)
(3 1.14224e-16 0)
(3 -3.91583e-16 0)
(3 -5.40165e-16 0)
(3 -3.36616e-16 0)
(3 1.79746e-16 0)
(3 8.19488e-16 0)
(3 3.15981e-16 0)
(3 -3.35809e-16 0)
(3 -1.76928e-15 0)
(3 -1.91514e-15 0)
(3 -1.39348e-15 0)
(3 -1.29982e-15 0)
(3 -1.68765e-15 0)
(3 -7.75923e-16 0)
(3 8.54818e-17 0)
(3 4.34946e-16 0)
(3 -5.23697e-17 0)
(3 -3.81461e-16 0)
(3 -4.73818e-16 0)
(3 -1.29275e-16 0)
(3 -1.08931e-16 0)
(3 -1.12868e-17 0)
(3 -2.26059e-16 0)
(3 -6.23654e-16 0)
(3 -9.717e-16 0)
(3 -1.26476e-15 0)
(3 -4.45662e-16 0)
(3 5.70075e-16 0)
(3 7.26644e-16 0)
(3 3.70389e-16 0)
(3 1.73969e-15 0)
(3 1.8013e-15 0)
(3 1.52675e-15 0)
(3 1.66026e-15 0)
(3 1.37254e-15 0)
(3 3.16283e-16 0)
(3 8.38601e-16 0)
(3 2.87052e-15 0)
(3 3.78099e-15 0)
(3 4.96383e-15 0)
(3 5.29624e-15 0)
(3 5.05674e-15 0)
(3 4.78029e-15 0)
(3 3.29594e-15 0)
(3 1.49619e-15 0)
(3 2.01453e-15 0)
(3 3.40709e-15 0)
(3 3.88446e-15 0)
(3 9.04506e-17 0)
(3 2.08067e-16 0)
(3 1.12852e-16 0)
(3 7.98455e-17 0)
(3 -2.84664e-16 0)
(3 -1.5167e-16 0)
(3 -1.41629e-16 0)
(3 -6.4913e-18 0)
(3 2.97809e-16 0)
(3 4.62316e-16 0)
(3 2.41025e-17 0)
(3 -1.3506e-16 0)
(3 -3.04016e-16 0)
(3 -1.92639e-18 0)
(3 3.17677e-16 0)
(3 4.09475e-16 0)
(3 3.66278e-16 0)
(3 4.67003e-16 0)
(3 8.09677e-16 0)
(3 -7.26354e-16 0)
(3 -1.33342e-15 0)
(3 -2.46444e-15 0)
(3 -2.16218e-15 0)
(3 -3.94495e-16 0)
(3 7.49233e-16 0)
(3 1.7164e-15 0)
(3 1.95343e-15 0)
(3 1.61839e-15 0)
(3 1.95051e-16 0)
(3 -7.42296e-16 0)
(3 -2.06298e-15 0)
(3 -2.60933e-15 0)
(3 -2.12072e-15 0)
(3 -4.48113e-17 0)
(3 6.55221e-16 0)
(3 5.62883e-16 0)
(3 7.91064e-16 0)
(3 8.05543e-16 0)
(3 1.10325e-15 0)
(3 1.26941e-15 0)
(3 9.84555e-16 0)
(3 2.38525e-17 0)
(3 -2.30516e-16 0)
(3 -5.42834e-16 0)
(3 -4.63749e-16 0)
(3 -3.23794e-16 0)
(3 -6.79103e-17 0)
(3 4.78063e-16 0)
(3 7.02762e-16 0)
(3 1.08224e-15 0)
(3 1.59037e-15 0)
(3 1.53315e-15 0)
(3 9.14114e-16 0)
(3 -5.24132e-17 0)
(3 1.65075e-16 0)
(3 2.15399e-16 0)
(3 1.15636e-16 0)
(3 -7.22617e-16 0)
(3 -6.68578e-16 0)
(3 4.79614e-17 0)
(3 -7.15875e-17 0)
(3 5.397e-16 0)
(3 1.30156e-15 0)
(3 1.61839e-15 0)
(3 1.14524e-15 0)
(3 4.05646e-16 0)
(3 2.50155e-16 0)
(3 -8.21802e-18 0)
(3 -1.38856e-16 0)
(3 -2.27085e-16 0)
(3 -2.65402e-16 0)
(3 -9.52662e-16 0)
(3 -1.18457e-15 0)
(3 -1.10324e-15 0)
(3 4.20558e-17 0)
(3 1.06053e-15 0)
(3 5.44378e-16 0)
(3 -1.66004e-15 0)
(3 -1.13193e-15 0)
(3 -3.45199e-16 0)
(3 -3.13221e-16 0)
(3 2.97313e-16 0)
(3 -7.65243e-16 0)
(3 -1.91583e-15 0)
(3 -2.41627e-15 0)
(3 -1.03663e-15 0)
(3 1.9615e-15 0)
(3 2.48864e-15 0)
(3 3.4206e-15 0)
(3 4.36198e-15 0)
(3 4.70083e-15 0)
(3 3.20941e-15 0)
(3 2.19097e-15 0)
(3 2.68156e-15 0)
(3 3.43428e-15 0)
(3 3.54389e-15 0)
(3 -7.14929e-17 0)
(3 8.72474e-18 0)
(3 -2.92919e-17 0)
(3 8.71629e-17 0)
(3 -4.21394e-17 0)
(3 2.6136e-16 0)
(3 4.94288e-16 0)
(3 3.11731e-16 0)
(3 3.99102e-16 0)
(3 3.74181e-16 0)
(3 2.87714e-16 0)
(3 -2.13923e-16 0)
(3 -2.15412e-16 0)
(3 2.15158e-16 0)
(3 1.12442e-15 0)
(3 2.14862e-15 0)
(3 2.73459e-15 0)
(3 3.54101e-15 0)
(3 3.72508e-15 0)
(3 2.49089e-15 0)
(3 2.14679e-15 0)
(3 1.56377e-15 0)
(3 1.30861e-15 0)
(3 3.55486e-16 0)
(3 7.13587e-16 0)
(3 8.41593e-16 0)
(3 -2.71422e-16 0)
(3 -6.91176e-16 0)
(3 -2.67492e-15 0)
(3 -2.8541e-15 0)
(3 -2.83708e-15 0)
(3 -2.80818e-15 0)
(3 -2.30226e-15 0)
(3 -1.79105e-15 0)
(3 -4.67359e-17 0)
(3 1.91409e-16 0)
(3 -4.05887e-16 0)
(3 -5.78505e-16 0)
(3 -4.15103e-16 0)
(3 -6.4306e-16 0)
(3 -8.52218e-16 0)
(3 -1.72036e-15 0)
(3 -3.07493e-15 0)
(3 -3.59755e-15 0)
(3 -2.86283e-15 0)
(3 -2.28917e-15 0)
(3 -2.10054e-15 0)
(3 -8.01283e-16 0)
(3 3.85e-16 0)
(3 1.65826e-15 0)
(3 2.05389e-15 0)
(3 2.75119e-15 0)
(3 2.114e-15 0)
(3 8.19809e-16 0)
(3 2.59486e-16 0)
(3 -7.52108e-16 0)
(3 -7.38199e-16 0)
(3 -4.92442e-16 0)
(3 -4.3726e-16 0)
(3 -1.43082e-16 0)
(3 -1.47648e-16 0)
(3 -1.03184e-16 0)
(3 -1.08799e-16 0)
(3 2.30664e-16 0)
(3 6.26595e-16 0)
(3 5.20393e-16 0)
(3 2.42313e-17 0)
(3 -1.67445e-16 0)
(3 -3.00934e-16 0)
(3 -8.1441e-16 0)
(3 -9.87085e-16 0)
(3 -8.98012e-16 0)
(3 -6.41381e-16 0)
(3 9.64437e-16 0)
(3 2.64866e-15 0)
(3 2.14019e-15 0)
(3 1.32804e-15 0)
(3 2.65423e-16 0)
(3 -1.25342e-15 0)
(3 -2.05826e-15 0)
(3 -1.65056e-15 0)
(3 -6.96512e-16 0)
(3 -8.20397e-16 0)
(3 -1.57621e-15 0)
(3 -2.2881e-15 0)
(3 -2.07403e-15 0)
(3 -1.12369e-15 0)
(3 9.00455e-17 0)
(3 1.90685e-15 0)
(3 3.34014e-15 0)
(3 3.65052e-15 0)
(3 3.87305e-15 0)
(3 3.28941e-15 0)
(3 3.28905e-15 0)
(3 4.01558e-15 0)
(3 4.82946e-15 0)
(3 -1.59753e-16 0)
(3 -6.97516e-17 0)
(3 2.03916e-16 0)
(3 2.7911e-16 0)
(3 5.11772e-16 0)
(3 1.71379e-16 0)
(3 4.51806e-16 0)
(3 5.50417e-16 0)
(3 3.5783e-16 0)
(3 2.97696e-16 0)
(3 2.69203e-16 0)
(3 8.9576e-17 0)
(3 5.66535e-16 0)
(3 2.18441e-15 0)
(3 3.44004e-15 0)
(3 4.35713e-15 0)
(3 6.10948e-15 0)
(3 7.04662e-15 0)
(3 7.07866e-15 0)
(3 6.57706e-15 0)
(3 4.91367e-15 0)
(3 4.57082e-15 0)
(3 3.60869e-15 0)
(3 2.42078e-15 0)
(3 1.40394e-15 0)
(3 1.63798e-16 0)
(3 -1.05999e-16 0)
(3 -1.04769e-17 0)
(3 -9.70338e-16 0)
(3 -1.49106e-15 0)
(3 -1.17918e-15 0)
(3 -5.48198e-16 0)
(3 6.13683e-16 0)
(3 6.03054e-16 0)
(3 1.56986e-16 0)
(3 -4.64763e-16 0)
(3 -1.30691e-15 0)
(3 -1.64481e-15 0)
(3 -1.67105e-15 0)
(3 -1.20967e-15 0)
(3 -8.90303e-16 0)
(3 -6.81451e-16 0)
(3 -9.79532e-16 0)
(3 -1.67203e-15 0)
(3 -2.54645e-15 0)
(3 -2.59896e-15 0)
(3 -1.63131e-15 0)
(3 4.11559e-17 0)
(3 1.88286e-15 0)
(3 2.69767e-15 0)
(3 2.56141e-15 0)
(3 2.55887e-15 0)
(3 1.01996e-15 0)
(3 5.52496e-16 0)
(3 -7.71205e-16 0)
(3 -1.96841e-15 0)
(3 -2.18304e-15 0)
(3 -1.74059e-15 0)
(3 -1.36943e-15 0)
(3 -6.85647e-16 0)
(3 3.34016e-16 0)
(3 3.52418e-16 0)
(3 2.01594e-16 0)
(3 3.25675e-16 0)
(3 1.0787e-15 0)
(3 2.27984e-16 0)
(3 4.77193e-17 0)
(3 -5.02272e-16 0)
(3 -6.21415e-16 0)
(3 -4.99446e-16 0)
(3 -7.3127e-16 0)
(3 -8.61159e-16 0)
(3 -1.03378e-15 0)
(3 -1.34092e-15 0)
(3 -1.09057e-15 0)
(3 -9.3778e-16 0)
(3 -6.56227e-16 0)
(3 -4.59355e-16 0)
(3 -1.73229e-16 0)
(3 2.90521e-16 0)
(3 3.18704e-16 0)
(3 1.16856e-16 0)
(3 -5.44731e-16 0)
(3 -5.47569e-16 0)
(3 -4.70826e-16 0)
(3 -2.3364e-16 0)
(3 -9.60852e-16 0)
(3 -1.37299e-16 0)
(3 1.86458e-15 0)
(3 2.67584e-15 0)
(3 2.84937e-15 0)
(3 2.51848e-15 0)
(3 1.3534e-15 0)
(3 1.07566e-15 0)
(3 1.46433e-15 0)
(3 2.06004e-15 0)
(3 2.80927e-17 0)
(3 -1.21085e-16 0)
(3 9.50385e-17 0)
(3 1.8278e-16 0)
(3 1.17242e-16 0)
(3 -2.37812e-18 0)
(3 1.7739e-16 0)
(3 2.84919e-16 0)
(3 2.25996e-16 0)
(3 4.39103e-16 0)
(3 8.93787e-16 0)
(3 1.29371e-15 0)
(3 2.06578e-15 0)
(3 3.74053e-15 0)
(3 5.64468e-15 0)
(3 5.77794e-15 0)
(3 5.39405e-15 0)
(3 4.56298e-15 0)
(3 2.38864e-15 0)
(3 2.82991e-15 0)
(3 3.99326e-15 0)
(3 4.42839e-15 0)
(3 3.99025e-15 0)
(3 2.95618e-15 0)
(3 2.89171e-16 0)
(3 -3.92781e-16 0)
(3 3.02431e-16 0)
(3 1.91139e-16 0)
(3 8.39086e-16 0)
(3 1.54964e-15 0)
(3 1.98958e-15 0)
(3 5.09014e-16 0)
(3 8.27685e-17 0)
(3 1.1847e-16 0)
(3 -6.27409e-16 0)
(3 -1.77978e-15 0)
(3 -2.07622e-15 0)
(3 -2.09633e-15 0)
(3 -1.65813e-15 0)
(3 -3.50549e-16 0)
(3 1.15844e-15 0)
(3 1.70409e-15 0)
(3 2.58054e-15 0)
(3 2.70774e-15 0)
(3 2.04857e-15 0)
(3 1.39042e-15 0)
(3 1.05418e-15 0)
(3 1.04698e-15 0)
(3 1.40706e-15 0)
(3 2.30371e-15 0)
(3 1.3606e-15 0)
(3 -3.02052e-16 0)
(3 -4.2552e-16 0)
(3 -1.03967e-15 0)
(3 -1.75319e-15 0)
(3 -3.24167e-15 0)
(3 -3.86894e-15 0)
(3 -4.2897e-15 0)
(3 -3.7281e-15 0)
(3 -1.18421e-15 0)
(3 1.94872e-15 0)
(3 2.57819e-15 0)
(3 2.56075e-15 0)
(3 1.79343e-15 0)
(3 1.00203e-15 0)
(3 9.95974e-16 0)
(3 5.9518e-16 0)
(3 3.44323e-16 0)
(3 1.20032e-16 0)
(3 1.49084e-16 0)
(3 2.20902e-16 0)
(3 -8.25597e-16 0)
(3 -1.40857e-15 0)
(3 -2.33899e-15 0)
(3 -2.45631e-15 0)
(3 -5.73131e-16 0)
(3 4.45314e-16 0)
(3 1.13263e-15 0)
(3 2.5355e-15 0)
(3 2.28627e-15 0)
(3 1.05129e-15 0)
(3 1.01642e-15 0)
(3 2.87698e-16 0)
(3 -4.82519e-16 0)
(3 -7.82026e-16 0)
(3 -4.68218e-16 0)
(3 -7.87732e-17 0)
(3 -6.56232e-17 0)
(3 -1.50937e-16 0)
(3 7.56772e-16 0)
(3 1.14493e-15 0)
(3 6.93273e-16 0)
(3 8.67334e-16 0)
(3 6.16299e-16 0)
(3 -1.06696e-16 0)
(3 -7.47909e-16 0)
(3 -2.32958e-17 0)
(3 -3.01348e-16 0)
(3 -1.73982e-16 0)
(3 -1.95289e-16 0)
(3 -1.5477e-16 0)
(3 6.51245e-16 0)
(3 7.80404e-16 0)
(3 5.0533e-16 0)
(3 7.1425e-16 0)
(3 9.63625e-16 0)
(3 1.42878e-15 0)
(3 2.88715e-15 0)
(3 3.43558e-15 0)
(3 3.84565e-15 0)
(3 4.22657e-15 0)
(3 4.28145e-15 0)
(3 2.88288e-15 0)
(3 1.71968e-15 0)
(3 7.55666e-16 0)
(3 1.66693e-15 0)
(3 1.39695e-15 0)
(3 1.15328e-15 0)
(3 1.28929e-15 0)
(3 6.41598e-16 0)
(3 -5.54925e-16 0)
(3 -1.67357e-15 0)
(3 -1.85037e-15 0)
(3 -2.22832e-15 0)
(3 -2.07059e-16 0)
(3 4.87636e-16 0)
(3 1.14518e-15 0)
(3 1.00323e-15 0)
(3 7.38095e-16 0)
(3 6.14022e-16 0)
(3 -3.50639e-16 0)
(3 -8.02894e-16 0)
(3 -1.40629e-15 0)
(3 -1.20036e-15 0)
(3 -6.0663e-16 0)
(3 4.04595e-16 0)
(3 1.6262e-15 0)
(3 2.27311e-15 0)
(3 2.33065e-15 0)
(3 2.54547e-15 0)
(3 3.30135e-15 0)
(3 2.75306e-15 0)
(3 9.79867e-17 0)
(3 -2.66556e-16 0)
(3 -5.61555e-16 0)
(3 -1.74878e-15 0)
(3 -1.99772e-15 0)
(3 -1.70048e-15 0)
(3 -1.15732e-15 0)
(3 -1.32634e-15 0)
(3 -1.5861e-15 0)
(3 -1.9307e-15 0)
(3 -2.47516e-15 0)
(3 -2.10636e-15 0)
(3 -1.56552e-15 0)
(3 -8.46348e-16 0)
(3 1.53879e-15 0)
(3 3.02913e-15 0)
(3 3.027e-15 0)
(3 2.57988e-15 0)
(3 1.93744e-15 0)
(3 1.42912e-15 0)
(3 8.36046e-16 0)
(3 4.1676e-16 0)
(3 2.18308e-16 0)
(3 -5.31628e-17 0)
(3 -2.8175e-17 0)
(3 -2.30653e-16 0)
(3 -1.13574e-15 0)
(3 -1.70901e-16 0)
(3 1.42312e-15 0)
(3 2.4114e-15 0)
(3 2.23411e-15 0)
(3 9.90246e-16 0)
(3 1.4683e-16 0)
(3 8.58735e-17 0)
(3 5.21795e-16 0)
(3 7.37904e-16 0)
(3 7.70032e-16 0)
(3 5.39524e-17 0)
(3 -1.31703e-16 0)
(3 6.54119e-16 0)
(3 1.59898e-15 0)
(3 1.88992e-15 0)
(3 1.51844e-15 0)
(3 -3.22744e-16 0)
(3 -7.65399e-16 0)
(3 7.67767e-16 0)
(3 1.61913e-15 0)
(3 9.47382e-16 0)
(3 -2.95906e-16 0)
(3 -1.35018e-15 0)
(3 -7.5201e-18 0)
(3 5.34038e-17 0)
(3 -2.98663e-16 0)
(3 -5.44266e-16 0)
(3 -4.21811e-16 0)
(3 4.77453e-17 0)
(3 3.37613e-16 0)
(3 3.49792e-16 0)
(3 5.31672e-16 0)
(3 1.20237e-15 0)
(3 2.64767e-15 0)
(3 3.25998e-15 0)
(3 3.75903e-15 0)
(3 3.43442e-15 0)
(3 3.11125e-15 0)
(3 2.42201e-15 0)
(3 1.94034e-15 0)
(3 1.6588e-15 0)
(3 2.34935e-15 0)
(3 2.72705e-15 0)
(3 1.32127e-15 0)
(3 7.8954e-16 0)
(3 1.04012e-15 0)
(3 2.03711e-15 0)
(3 2.26467e-15 0)
(3 2.5069e-15 0)
(3 2.00562e-15 0)
(3 8.38959e-16 0)
(3 -5.71587e-16 0)
(3 -7.57278e-16 0)
(3 -7.10061e-16 0)
(3 6.83192e-16 0)
(3 9.77668e-16 0)
(3 5.89352e-16 0)
(3 7.78126e-16 0)
(3 4.98655e-16 0)
(3 -7.6494e-16 0)
(3 -3.83886e-16 0)
(3 7.70794e-17 0)
(3 3.728e-16 0)
(3 9.56815e-16 0)
(3 3.03124e-16 0)
(3 4.17228e-16 0)
(3 6.49318e-16 0)
(3 2.04094e-16 0)
(3 -7.62098e-16 0)
(3 -3.41902e-15 0)
(3 -4.24191e-15 0)
(3 -4.42267e-15 0)
(3 -4.26038e-15 0)
(3 -3.9597e-15 0)
(3 -3.60686e-15 0)
(3 -1.80245e-15 0)
(3 -1.03947e-15 0)
(3 -2.67617e-16 0)
(3 8.13154e-16 0)
(3 1.48649e-15 0)
(3 1.48983e-15 0)
(3 1.6827e-15 0)
(3 6.79982e-16 0)
(3 6.65887e-17 0)
(3 3.22065e-16 0)
(3 1.58937e-15 0)
(3 2.39254e-15 0)
(3 2.31587e-15 0)
(3 1.78816e-15 0)
(3 4.23153e-16 0)
(3 -5.36185e-16 0)
(3 -8.95482e-16 0)
(3 -5.24065e-16 0)
(3 -2.50435e-17 0)
(3 2.2045e-16 0)
(3 -4.65539e-16 0)
(3 -1.07618e-15 0)
(3 -4.74243e-16 0)
(3 -3.4608e-16 0)
(3 1.70203e-16 0)
(3 -1.1238e-15 0)
(3 -1.99107e-15 0)
(3 -9.93908e-16 0)
(3 5.01194e-17 0)
(3 2.87365e-17 0)
(3 1.7718e-16 0)
(3 2.83411e-16 0)
(3 1.29267e-15 0)
(3 3.12034e-15 0)
(3 3.57262e-15 0)
(3 2.75628e-15 0)
(3 1.69679e-15 0)
(3 1.25935e-15 0)
(3 1.57048e-15 0)
(3 1.69066e-15 0)
(3 2.32721e-15 0)
(3 2.2058e-15 0)
(3 1.25575e-15 0)
(3 9.3617e-17 0)
(3 2.26362e-16 0)
(3 2.52356e-16 0)
(3 -1.32064e-16 0)
(3 -5.97576e-16 0)
(3 -1.01182e-15 0)
(3 -1.2007e-15 0)
(3 -1.17573e-15 0)
(3 -5.67952e-16 0)
(3 2.96108e-16 0)
(3 1.18677e-15 0)
(3 1.47243e-15 0)
(3 2.43582e-15 0)
(3 2.25826e-15 0)
(3 2.14068e-15 0)
(3 1.69002e-15 0)
(3 1.16226e-15 0)
(3 1.93767e-15 0)
(3 3.26948e-15 0)
(3 3.26212e-15 0)
(3 1.65716e-15 0)
(3 9.17673e-16 0)
(3 1.14343e-15 0)
(3 2.21351e-15 0)
(3 3.27226e-15 0)
(3 3.19693e-15 0)
(3 3.58617e-15 0)
(3 2.8378e-15 0)
(3 4.75981e-16 0)
(3 4.64337e-17 0)
(3 -3.14442e-16 0)
(3 -1.56278e-15 0)
(3 9.09437e-16 0)
(3 1.64901e-15 0)
(3 1.77184e-15 0)
(3 1.71138e-15 0)
(3 1.62258e-15 0)
(3 1.40362e-15 0)
(3 5.56421e-16 0)
(3 -2.06741e-16 0)
(3 -5.32252e-16 0)
(3 -7.18706e-16 0)
(3 6.98825e-17 0)
(3 5.47814e-16 0)
(3 3.32059e-16 0)
(3 -1.86331e-15 0)
(3 -2.33787e-15 0)
(3 -2.90739e-15 0)
(3 -3.53547e-15 0)
(3 -3.40603e-15 0)
(3 -2.78449e-15 0)
(3 -2.14117e-15 0)
(3 -1.56685e-15 0)
(3 -1.07224e-15 0)
(3 -3.09566e-16 0)
(3 3.69368e-16 0)
(3 1.12821e-15 0)
(3 2.3742e-15 0)
(3 1.6797e-15 0)
(3 1.15596e-15 0)
(3 1.07621e-15 0)
(3 1.49902e-15 0)
(3 1.8706e-15 0)
(3 2.80365e-15 0)
(3 2.52528e-15 0)
(3 4.29086e-16 0)
(3 5.57948e-18 0)
(3 -7.53122e-16 0)
(3 -1.13415e-15 0)
(3 -1.05854e-15 0)
(3 -2.95334e-16 0)
(3 -2.42514e-16 0)
(3 8.73534e-16 0)
(3 1.84161e-15 0)
(3 1.53087e-15 0)
(3 -1.87857e-15 0)
(3 -2.46168e-15 0)
(3 -1.57318e-15 0)
(3 2.051e-16 0)
(3 5.2923e-16 0)
(3 2.83928e-17 0)
(3 -1.11231e-15 0)
(3 -1.83993e-15 0)
(3 -8.25315e-16 0)
(3 1.7393e-17 0)
(3 1.26733e-15 0)
(3 2.67204e-15 0)
(3 3.1787e-15 0)
(3 2.23599e-15 0)
(3 1.36674e-15 0)
(3 1.75665e-15 0)
(3 3.2331e-15 0)
(3 2.35242e-15 0)
(3 1.15558e-15 0)
(3 1.83147e-15 0)
(3 2.52663e-15 0)
(3 1.61775e-15 0)
(3 1.1962e-16 0)
(3 5.52457e-16 0)
(3 2.91606e-16 0)
(3 1.55917e-16 0)
(3 -2.24171e-16 0)
(3 -1.64796e-16 0)
(3 -1.22462e-16 0)
(3 4.19707e-17 0)
(3 5.56857e-16 0)
(3 1.29477e-15 0)
(3 1.43919e-15 0)
(3 1.72661e-15 0)
(3 1.14518e-15 0)
(3 6.62807e-16 0)
(3 6.66351e-16 0)
(3 1.86824e-15 0)
(3 3.68364e-15 0)
(3 5.22981e-15 0)
(3 3.68265e-15 0)
(3 2.74646e-15 0)
(3 1.94461e-15 0)
(3 2.01775e-15 0)
(3 2.47263e-15 0)
(3 3.25346e-15 0)
(3 3.15458e-15 0)
(3 1.81687e-15 0)
(3 1.88637e-16 0)
(3 -1.01075e-15 0)
(3 -1.08493e-15 0)
(3 -9.64027e-16 0)
(3 -7.50587e-16 0)
(3 2.15699e-15 0)
(3 2.65671e-15 0)
(3 2.10978e-15 0)
(3 1.22364e-15 0)
(3 1.97099e-16 0)
(3 4.22242e-16 0)
(3 4.33037e-16 0)
(3 1.47924e-16 0)
(3 -1.43306e-15 0)
(3 -1.69776e-15 0)
(3 -7.19196e-16 0)
(3 -3.30435e-16 0)
(3 -1.13711e-15 0)
(3 -8.05348e-16 0)
(3 -1.36558e-16 0)
(3 -1.10623e-15 0)
(3 -1.3117e-15 0)
(3 -1.57162e-15 0)
(3 -5.35149e-16 0)
(3 -8.31534e-17 0)
(3 -4.82403e-16 0)
(3 -1.57303e-15 0)
(3 -1.57349e-15 0)
(3 -1.12423e-15 0)
(3 -7.92226e-16 0)
(3 1.36029e-15 0)
(3 2.16556e-15 0)
(3 2.32829e-15 0)
(3 2.80546e-15 0)
(3 3.09899e-15 0)
(3 2.07859e-15 0)
(3 1.55433e-15 0)
(3 1.10563e-15 0)
(3 3.63592e-16 0)
(3 -9.33267e-17 0)
(3 -5.15835e-16 0)
(3 -8.4002e-16 0)
(3 3.70069e-17 0)
(3 3.6245e-16 0)
(3 5.3247e-16 0)
(3 1.91212e-15 0)
(3 3.02728e-15 0)
(3 3.35678e-15 0)
(3 2.20676e-15 0)
(3 7.10627e-16 0)
(3 6.83034e-16 0)
(3 1.14608e-15 0)
(3 1.58259e-15 0)
(3 1.11379e-15 0)
(3 2.12299e-16 0)
(3 3.80434e-16 0)
(3 3.30811e-16 0)
(3 7.19628e-16 0)
(3 2.13497e-15 0)
(3 3.20319e-15 0)
(3 3.16714e-15 0)
(3 2.20304e-15 0)
(3 1.98713e-15 0)
(3 1.15484e-15 0)
(3 1.81233e-15 0)
(3 1.8983e-15 0)
(3 3.82249e-16 0)
(3 -4.22716e-16 0)
(3 -1.03415e-15 0)
(3 -1.82209e-15 0)
(3 -1.13445e-16 0)
(3 -3.49167e-16 0)
(3 -3.8372e-16 0)
(3 -5.79863e-17 0)
(3 8.03725e-16 0)
(3 6.02733e-16 0)
(3 2.74749e-16 0)
(3 -2.19628e-16 0)
(3 -5.21009e-16 0)
(3 6.84989e-16 0)
(3 1.6896e-15 0)
(3 1.27095e-15 0)
(3 8.94348e-16 0)
(3 2.16938e-16 0)
(3 5.12862e-16 0)
(3 1.30038e-15 0)
(3 1.19806e-15 0)
(3 2.08741e-15 0)
(3 2.09349e-15 0)
(3 1.55492e-15 0)
(3 1.45451e-15 0)
(3 2.10685e-15 0)
(3 1.2071e-15 0)
(3 -1.34132e-15 0)
(3 -1.57215e-15 0)
(3 -2.23876e-15 0)
(3 -1.25817e-15 0)
(3 3.49616e-16 0)
(3 -6.66064e-17 0)
(3 3.28172e-16 0)
(3 1.04029e-15 0)
(3 1.2919e-15 0)
(3 1.62761e-15 0)
(3 1.67576e-15 0)
(3 1.06158e-15 0)
(3 8.40525e-17 0)
(3 -6.71008e-16 0)
(3 -1.04118e-15 0)
(3 -1.42451e-15 0)
(3 -2.02846e-15 0)
(3 -2.51812e-15 0)
(3 -2.84866e-15 0)
(3 -3.59534e-15 0)
(3 -3.88774e-15 0)
(3 -2.75986e-15 0)
(3 -2.07503e-15 0)
(3 -1.80047e-15 0)
(3 -1.21908e-15 0)
(3 -5.78739e-16 0)
(3 1.10149e-16 0)
(3 -3.39909e-16 0)
(3 -2.64655e-15 0)
(3 -4.0924e-15 0)
(3 -3.28117e-15 0)
(3 4.29024e-16 0)
(3 1.82662e-15 0)
(3 1.82879e-15 0)
(3 3.44217e-15 0)
(3 3.13257e-15 0)
(3 2.9141e-15 0)
(3 3.05353e-15 0)
(3 7.52715e-16 0)
(3 -6.42985e-16 0)
(3 -2.25671e-16 0)
(3 2.23428e-16 0)
(3 6.88665e-16 0)
(3 1.12954e-15 0)
(3 6.7001e-16 0)
(3 5.57808e-16 0)
(3 1.00601e-15 0)
(3 1.19732e-15 0)
(3 1.33148e-15 0)
(3 1.85132e-15 0)
(3 3.83503e-15 0)
(3 5.52538e-15 0)
(3 4.62271e-15 0)
(3 1.7137e-15 0)
(3 1.22474e-15 0)
(3 1.64916e-15 0)
(3 1.55926e-15 0)
(3 1.9733e-15 0)
(3 3.79346e-15 0)
(3 4.21921e-15 0)
(3 3.80435e-15 0)
(3 2.69779e-15 0)
(3 3.32572e-16 0)
(3 3.31148e-16 0)
(3 7.06643e-16 0)
(3 1.16748e-15 0)
(3 2.00759e-15 0)
(3 1.62322e-15 0)
(3 2.01341e-15 0)
(3 2.05355e-15 0)
(3 6.16496e-16 0)
(3 -9.97034e-16 0)
(3 -1.20947e-15 0)
(3 -2.69977e-17 0)
(3 -3.81634e-16 0)
(3 1.91651e-16 0)
(3 5.49581e-16 0)
(3 9.53851e-16 0)
(3 7.30189e-16 0)
(3 -7.83431e-17 0)
(3 -1.00116e-15 0)
(3 -1.09293e-15 0)
(3 -1.13549e-15 0)
(3 -5.10552e-16 0)
(3 1.35387e-16 0)
(3 8.0623e-16 0)
(3 -2.44349e-16 0)
(3 -1.62394e-15 0)
(3 -1.78138e-15 0)
(3 -1.87234e-15 0)
(3 -2.06369e-15 0)
(3 -2.55688e-15 0)
(3 -3.06976e-15 0)
(3 -2.14955e-15 0)
(3 -1.02076e-15 0)
(3 -8.79405e-16 0)
(3 -3.03662e-15 0)
(3 -4.33678e-15 0)
(3 -3.00137e-15 0)
(3 -8.19307e-16 0)
(3 8.09684e-16 0)
(3 2.67492e-15 0)
(3 2.57681e-15 0)
(3 1.93132e-15 0)
(3 7.02601e-16 0)
(3 -3.78736e-16 0)
(3 2.65109e-16 0)
(3 6.88652e-16 0)
(3 1.28877e-15 0)
(3 4.98462e-16 0)
(3 -1.79462e-16 0)
(3 -1.72605e-15 0)
(3 -3.35876e-15 0)
(3 -3.51099e-15 0)
(3 -3.43743e-15 0)
(3 -4.00858e-15 0)
(3 -3.24728e-15 0)
(3 -1.6291e-15 0)
(3 -6.45057e-16 0)
(3 -1.4348e-15 0)
(3 -1.44379e-15 0)
(3 -1.72979e-15 0)
(3 -2.91899e-15 0)
(3 -3.0924e-15 0)
(3 -2.82254e-15 0)
(3 -1.97742e-15 0)
(3 -2.06983e-15 0)
(3 -2.17766e-15 0)
(3 3.53841e-16 0)
(3 1.31288e-15 0)
(3 1.35241e-15 0)
(3 2.10997e-15 0)
(3 2.15411e-15 0)
(3 1.40133e-15 0)