/*--------------------------------*- C++ -*----------------------------------*\
  =========                 |
  \\      /  F ield         | OpenFOAM: The Open Source CFD Toolbox
   \\    /   O peration     | Website:  https://openfoam.org
    \\  /    A nd           | Version:  7
     \\/     M anipulation  |
\*---------------------------------------------------------------------------*/
FoamFile
{
    version     2.0;
    format      ascii;
    class       volVectorField;
    location    "2.4";
    object      U;
}
// * * * * * * * * * * * * * * * * * * * * * * * * * * * * * * * * * * * * * //

dimensions      [0 1 -1 0 0 0 0];

internalField   nonuniform List<vector> 
73728
(
(3 -6.65956e-20 0)
(3 7.74368e-18 0)
(3 -3.7644e-17 0)
(3 -1.86557e-16 0)
(3 -1.36587e-16 0)
(3 9.687e-17 0)
(3 1.31695e-16 0)
(3 -1.19016e-16 0)
(3 -4.92323e-16 0)
(3 -6.69671e-16 0)
(3 -6.02696e-16 0)
(3 -3.51786e-16 0)
(3 -5.62752e-18 0)
(3 1.94842e-16 0)
(3 3.48799e-16 0)
(3 3.27716e-16 0)
(3 3.12448e-16 0)
(3 2.07486e-16 0)
(3 8.25866e-16 0)
(3 1.2353e-15 0)
(3 8.3973e-16 0)
(3 7.45774e-16 0)
(3 1.14719e-15 0)
(3 1.67671e-15 0)
(3 9.33661e-16 0)
(3 -5.1874e-17 0)
(3 -8.45588e-16 0)
(3 -1.53301e-15 0)
(3 -1.90094e-15 0)
(3 -1.26643e-15 0)
(3 -6.24067e-16 0)
(3 -4.80516e-16 0)
(3 -2.35423e-16 0)
(3 -4.47849e-16 0)
(3 -1.40335e-15 0)
(3 -1.09083e-15 0)
(3 2.10872e-16 0)
(3 6.14828e-16 0)
(3 7.70018e-16 0)
(3 7.69097e-16 0)
(3 5.81623e-16 0)
(3 9.96343e-17 0)
(3 5.46833e-16 0)
(3 6.37231e-16 0)
(3 4.60711e-16 0)
(3 5.18999e-16 0)
(3 2.33696e-16 0)
(3 -5.83435e-17 0)
(3 -2.90661e-16 0)
(3 -1.30555e-16 0)
(3 4.15257e-16 0)
(3 8.41691e-16 0)
(3 5.06342e-16 0)
(3 4.67014e-16 0)
(3 4.49986e-16 0)
(3 -2.27959e-16 0)
(3 -5.18491e-16 0)
(3 -5.37032e-16 0)
(3 -4.26956e-16 0)
(3 3.64676e-16 0)
(3 7.86842e-16 0)
(3 1.237e-15 0)
(3 1.00746e-15 0)
(3 8.16361e-16 0)
(3 9.81954e-16 0)
(3 1.34003e-15 0)
(3 1.28823e-15 0)
(3 1.29374e-15 0)
(3 1.21672e-15 0)
(3 1.17879e-15 0)
(3 1.36508e-15 0)
(3 1.2592e-15 0)
(3 -3.83734e-16 0)
(3 -8.32955e-16 0)
(3 -1.68922e-15 0)
(3 -2.28191e-15 0)
(3 -7.58868e-16 0)
(3 -2.53708e-16 0)
(3 -3.75089e-17 0)
(3 1.13179e-16 0)
(3 2.94576e-16 0)
(3 5.22072e-16 0)
(3 8.33148e-16 0)
(3 5.37975e-16 0)
(3 -2.59477e-16 0)
(3 -4.51983e-16 0)
(3 -6.20903e-16 0)
(3 -6.51042e-16 0)
(3 -4.81397e-16 0)
(3 -6.91168e-17 0)
(3 1.10171e-15 0)
(3 2.07372e-15 0)
(3 1.84521e-15 0)
(3 1.48385e-15 0)
(3 1.05139e-15 0)
(3 6.44426e-16 0)
(3 -8.09497e-17 0)
(3 -6.31764e-17 0)
(3 -3.77359e-16 0)
(3 -1.04753e-15 0)
(3 -8.01987e-16 0)
(3 1.7704e-16 0)
(3 4.29403e-16 0)
(3 -2.13765e-16 0)
(3 -5.08394e-16 0)
(3 -4.76544e-16 0)
(3 -6.85034e-16 0)
(3 -4.79682e-16 0)
(3 -4.51383e-16 0)
(3 -3.58645e-16 0)
(3 -1.00138e-16 0)
(3 5.2655e-16 0)
(3 2.86792e-16 0)
(3 2.58029e-16 0)
(3 1.38482e-15 0)
(3 2.3682e-15 0)
(3 1.54397e-15 0)
(3 9.77007e-16 0)
(3 1.50364e-15 0)
(3 1.9546e-15 0)
(3 3.19431e-15 0)
(3 2.50753e-15 0)
(3 9.96384e-16 0)
(3 -1.22568e-15 0)
(3 -2.18425e-15 0)
(3 -1.90806e-15 0)
(3 -1.25622e-15 0)
(3 -8.59589e-16 0)
(3 -6.46145e-16 0)
(3 -1.12634e-15 0)
(3 -1.26097e-15 0)
(3 -6.12022e-16 0)
(3 1.41492e-15 0)
(3 2.2563e-15 0)
(3 2.23399e-15 0)
(3 1.41757e-15 0)
(3 1.437e-15 0)
(3 5.12445e-16 0)
(3 -5.39917e-17 0)
(3 -2.74645e-16 0)
(3 -9.1577e-16 0)
(3 -9.14155e-16 0)
(3 -3.9741e-16 0)
(3 -1.20573e-16 0)
(3 -3.21085e-16 0)
(3 -6.80182e-16 0)
(3 1.2031e-16 0)
(3 5.626e-16 0)
(3 2.29809e-16 0)
(3 4.03693e-16 0)
(3 9.42333e-16 0)
(3 9.62369e-16 0)
(3 7.00923e-16 0)
(3 1.7829e-16 0)
(3 4.54137e-16 0)
(3 6.68264e-16 0)
(3 9.46603e-16 0)
(3 9.18903e-16 0)
(3 5.43077e-16 0)
(3 4.98701e-16 0)
(3 2.18742e-16 0)
(3 8.65807e-16 0)
(3 1.85954e-15 0)
(3 2.63417e-15 0)
(3 2.6797e-15 0)
(3 3.12889e-15 0)
(3 3.37126e-15 0)
(3 2.15086e-15 0)
(3 2.0002e-16 0)
(3 -1.83479e-15 0)
(3 -2.81597e-15 0)
(3 -3.20823e-15 0)
(3 -1.70852e-15 0)
(3 -1.17094e-15 0)
(3 -1.37226e-15 0)
(3 -1.09863e-15 0)
(3 -2.03757e-16 0)
(3 9.19584e-16 0)
(3 2.20308e-15 0)
(3 1.48221e-15 0)
(3 -7.29615e-17 0)
(3 -3.65031e-16 0)
(3 -4.37272e-16 0)
(3 -7.59323e-16 0)
(3 -3.64626e-16 0)
(3 9.76174e-16 0)
(3 2.49948e-15 0)
(3 2.97521e-15 0)
(3 2.34299e-15 0)
(3 1.83108e-15 0)
(3 7.07878e-16 0)
(3 -1.06464e-15 0)
(3 -5.13922e-18 0)
(3 -8.55887e-17 0)
(3 -1.01086e-16 0)
(3 -2.42722e-16 0)
(3 -1.21235e-16 0)
(3 1.4751e-16 0)
(3 1.36277e-16 0)
(3 2.43261e-16 0)
(3 4.18365e-16 0)
(3 1.37543e-16 0)
(3 1.7301e-17 0)
(3 2.39663e-17 0)
(3 -1.35868e-16 0)
(3 -2.89393e-16 0)
(3 3.79588e-17 0)
(3 7.25496e-16 0)
(3 5.97812e-16 0)
(3 2.45495e-16 0)
(3 5.86355e-16 0)
(3 1.35987e-15 0)
(3 1.25868e-15 0)
(3 6.39698e-16 0)
(3 3.27636e-16 0)
(3 6.96161e-16 0)
(3 1.54794e-15 0)
(3 1.47148e-15 0)
(3 9.55218e-16 0)
(3 -3.31259e-16 0)
(3 -2.81172e-15 0)
(3 -2.82583e-15 0)
(3 -2.68577e-15 0)
(3 -1.7819e-15 0)
(3 -1.22571e-15 0)
(3 -9.81503e-16 0)
(3 -9.46038e-16 0)
(3 -1.19529e-15 0)
(3 -9.0323e-16 0)
(3 4.10718e-16 0)
(3 8.04161e-16 0)
(3 1.46166e-15 0)
(3 2.36827e-15 0)
(3 2.02331e-15 0)
(3 1.02632e-15 0)
(3 -2.46897e-16 0)
(3 -7.77566e-16 0)
(3 -1.26766e-15 0)
(3 -7.7123e-16 0)
(3 -8.27537e-16 0)
(3 -1.01798e-15 0)
(3 -1.02203e-15 0)
(3 -5.06741e-16 0)
(3 -3.17305e-16 0)
(3 1.07188e-16 0)
(3 -4.84126e-17 0)
(3 -1.40256e-17 0)
(3 4.28893e-16 0)
(3 3.82941e-16 0)
(3 5.23497e-16 0)
(3 6.05897e-16 0)
(3 4.07825e-16 0)
(3 1.92124e-16 0)
(3 1.74785e-16 0)
(3 2.45141e-16 0)
(3 2.21021e-16 0)
(3 2.34442e-16 0)
(3 4.254e-16 0)
(3 1.08052e-15 0)
(3 2.20286e-15 0)
(3 3.62938e-15 0)
(3 4.32555e-15 0)
(3 4.67159e-15 0)
(3 2.05388e-15 0)
(3 -9.0039e-16 0)
(3 -3.64216e-15 0)
(3 -3.05539e-15 0)
(3 -2.51798e-15 0)
(3 -1.84438e-15 0)
(3 -1.81905e-15 0)
(3 -2.03807e-15 0)
(3 -1.56502e-15 0)
(3 -1.3675e-15 0)
(3 -1.20038e-16 0)
(3 1.05709e-15 0)
(3 6.95533e-16 0)
(3 6.68897e-16 0)
(3 7.34027e-16 0)
(3 1.54614e-15 0)
(3 2.18192e-15 0)
(3 2.8873e-15 0)
(3 3.24873e-15 0)
(3 2.58627e-15 0)
(3 1.77703e-15 0)
(3 1.06295e-15 0)
(3 6.75842e-16 0)
(3 6.95742e-17 0)
(3 -3.52717e-16 0)
(3 2.00423e-16 0)
(3 5.3793e-16 0)
(3 8.30908e-16 0)
(3 1.31574e-15 0)
(3 1.08667e-15 0)
(3 7.453e-16 0)
(3 7.33486e-16 0)
(3 6.82254e-16 0)
(3 2.94515e-16 0)
(3 -4.53944e-16 0)
(3 -3.73367e-16 0)
(3 -2.70526e-16 0)
(3 -1.19434e-16 0)
(3 -1.08661e-16 0)
(3 1.57066e-16 0)
(3 2.58342e-16 0)
(3 4.03186e-16 0)
(3 2.80659e-16 0)
(3 -3.75258e-16 0)
(3 -6.67807e-16 0)
(3 -3.98219e-16 0)
(3 -3.64083e-16 0)
(3 -4.61505e-16 0)
(3 -4.74386e-16 0)
(3 -2.65437e-16 0)
(3 -5.9797e-17 0)
(3 -1.1423e-15 0)
(3 -1.81001e-15 0)
(3 -2.18313e-15 0)
(3 -2.33355e-15 0)
(3 -2.15421e-15 0)
(3 -1.07498e-15 0)
(3 -9.04913e-16 0)
(3 -6.79487e-16 0)
(3 -1.47585e-15 0)
(3 -1.85282e-15 0)
(3 -2.93796e-15 0)
(3 -2.31181e-15 0)
(3 -1.90789e-15 0)
(3 -3.39367e-16 0)
(3 4.10976e-16 0)
(3 2.92981e-16 0)
(3 4.37031e-16 0)
(3 2.7339e-16 0)
(3 6.95095e-16 0)
(3 5.18941e-16 0)
(3 -5.71678e-16 0)
(3 -7.17682e-16 0)
(3 -5.20327e-16 0)
(3 -2.17675e-16 0)
(3 -7.53151e-16 0)
(3 -8.65452e-16 0)
(3 -5.53922e-16 0)
(3 -6.50619e-16 0)
(3 -3.9209e-16 0)
(3 -3.81504e-16 0)
(3 -9.65973e-16 0)
(3 -5.31341e-16 0)
(3 3.07761e-16 0)
(3 1.15341e-15 0)
(3 1.43048e-15 0)
(3 1.69848e-15 0)
(3 1.49725e-15 0)
(3 1.60383e-16 0)
(3 8.05479e-16 0)
(3 1.76819e-15 0)
(3 1.91266e-15 0)
(3 2.0964e-15 0)
(3 2.44153e-15 0)
(3 2.75851e-15 0)
(3 2.41992e-15 0)
(3 6.22031e-16 0)
(3 -2.46433e-15 0)
(3 -3.63035e-15 0)
(3 -3.63353e-15 0)
(3 -3.0715e-15 0)
(3 -2.62499e-15 0)
(3 -2.29275e-15 0)
(3 -2.10451e-15 0)
(3 -1.64115e-15 0)
(3 -1.44463e-15 0)
(3 -1.71192e-15 0)
(3 -8.76997e-16 0)
(3 -2.59465e-16 0)
(3 3.87095e-16 0)
(3 1.5746e-15 0)
(3 3.46982e-15 0)
(3 4.10548e-15 0)
(3 2.50774e-15 0)
(3 1.34632e-15 0)
(3 1.08631e-15 0)
(3 5.05883e-16 0)
(3 1.25793e-16 0)
(3 -3.84585e-16 0)
(3 -1.55528e-15 0)
(3 -1.94923e-15 0)
(3 2.19355e-16 0)
(3 2.91206e-16 0)
(3 3.68558e-16 0)
(3 5.61241e-16 0)
(3 8.71575e-16 0)
(3 1.07257e-15 0)
(3 1.23831e-15 0)
(3 -3.12833e-17 0)
(3 -1.34395e-15 0)
(3 -9.8901e-16 0)
(3 -9.10693e-16 0)
(3 -9.74512e-16 0)
(3 -6.9663e-16 0)
(3 -7.35311e-17 0)
(3 2.42196e-17 0)
(3 -2.3149e-16 0)
(3 -2.33909e-16 0)
(3 7.80707e-17 0)
(3 4.06436e-16 0)
(3 6.68882e-16 0)
(3 8.98901e-16 0)
(3 1.53819e-15 0)
(3 1.713e-15 0)
(3 1.27497e-15 0)
(3 -1.56469e-16 0)
(3 -6.36369e-16 0)
(3 -1.66681e-15 0)
(3 -1.72498e-15 0)
(3 -1.4462e-15 0)
(3 -8.97448e-16 0)
(3 -2.11267e-16 0)
(3 -1.2214e-16 0)
(3 -5.33071e-16 0)
(3 -1.19071e-15 0)
(3 -1.59358e-15 0)
(3 -1.2219e-15 0)
(3 -7.75991e-16 0)
(3 -9.12018e-16 0)
(3 -9.96986e-16 0)
(3 -1.81892e-15 0)
(3 -2.42183e-15 0)
(3 -1.3034e-15 0)
(3 -2.67405e-16 0)
(3 7.57772e-16 0)
(3 4.81455e-16 0)
(3 4.74292e-16 0)
(3 -8.6706e-17 0)
(3 -3.99582e-16 0)
(3 -5.19078e-17 0)
(3 -3.63812e-16 0)
(3 -1.08209e-15 0)
(3 -1.66949e-15 0)
(3 -1.44732e-15 0)
(3 -1.30662e-15 0)
(3 -1.10893e-15 0)
(3 -9.7165e-17 0)
(3 3.45757e-16 0)
(3 2.57113e-16 0)
(3 4.18336e-16 0)
(3 7.40071e-16 0)
(3 1.11382e-15 0)
(3 1.26576e-15 0)
(3 9.77037e-16 0)
(3 1.51901e-16 0)
(3 9.96202e-16 0)
(3 1.59805e-15 0)
(3 2.07396e-15 0)
(3 1.83458e-15 0)
(3 1.55447e-15 0)
(3 1.72879e-15 0)
(3 4.65587e-16 0)
(3 -5.1847e-16 0)
(3 -1.60422e-15 0)
(3 -2.19255e-15 0)
(3 -2.31825e-15 0)
(3 -1.59522e-15 0)
(3 -1.58686e-15 0)
(3 -1.2201e-15 0)
(3 -1.04509e-15 0)
(3 -1.51186e-15 0)
(3 -9.97141e-16 0)
(3 -1.6239e-16 0)
(3 -4.07238e-16 0)
(3 -3.82061e-16 0)
(3 7.99165e-16 0)
(3 1.684e-15 0)
(3 1.72667e-15 0)
(3 2.13515e-15 0)
(3 5.77126e-16 0)
(3 -2.23354e-15 0)
(3 -2.96958e-15 0)
(3 -2.53086e-15 0)
(3 -2.56337e-15 0)
(3 -2.97644e-15 0)
(3 -4.18649e-15 0)
(3 -3.60544e-15 0)
(3 -5.4029e-17 0)
(3 -3.27007e-16 0)
(3 -3.71884e-16 0)
(3 -6.6139e-16 0)
(3 -4.52911e-16 0)
(3 -3.21818e-16 0)
(3 -5.5844e-16 0)
(3 -8.21568e-16 0)
(3 -8.18172e-16 0)
(3 -3.51355e-16 0)
(3 -4.98147e-16 0)
(3 -6.07093e-16 0)
(3 -5.98686e-16 0)
(3 -3.39453e-16 0)
(3 -7.56571e-16 0)
(3 -1.33449e-15 0)
(3 -1.43031e-15 0)
(3 -9.41268e-16 0)
(3 -2.61395e-17 0)
(3 1.02492e-15 0)
(3 1.34378e-15 0)
(3 1.23133e-15 0)
(3 1.2479e-15 0)
(3 1.05029e-15 0)
(3 3.55029e-16 0)
(3 -9.50659e-16 0)
(3 -4.06738e-16 0)
(3 -2.14387e-16 0)
(3 -1.49942e-16 0)
(3 1.22888e-16 0)
(3 3.66996e-16 0)
(3 -1.34641e-16 0)
(3 -4.37592e-16 0)
(3 -8.29106e-16 0)
(3 -1.13706e-15 0)
(3 -4.1121e-16 0)
(3 1.15631e-15 0)
(3 9.54649e-16 0)
(3 6.68985e-16 0)
(3 -1.3154e-15 0)
(3 -2.50272e-15 0)
(3 -1.75229e-15 0)
(3 -8.76469e-16 0)
(3 9.35679e-16 0)
(3 -1.90964e-16 0)
(3 -1.0052e-15 0)
(3 -8.44948e-16 0)
(3 -1.61396e-15 0)
(3 -2.64162e-15 0)
(3 -2.99241e-15 0)
(3 -3.05646e-15 0)
(3 -2.73814e-15 0)
(3 -1.4644e-15 0)
(3 -8.42934e-16 0)
(3 -1.46912e-15 0)
(3 -9.53515e-16 0)
(3 3.54199e-17 0)
(3 5.80691e-16 0)
(3 1.66039e-16 0)
(3 -4.54924e-16 0)
(3 -6.27749e-16 0)
(3 -3.4544e-16 0)
(3 -1.62791e-16 0)
(3 1.13387e-15 0)
(3 5.41896e-16 0)
(3 3.52173e-16 0)
(3 6.6081e-16 0)
(3 2.74298e-15 0)
(3 3.2968e-15 0)
(3 2.63535e-15 0)
(3 1.8248e-15 0)
(3 5.11117e-16 0)
(3 4.44065e-17 0)
(3 -9.23797e-16 0)
(3 -1.47935e-15 0)
(3 -1.16687e-15 0)
(3 -1.02469e-15 0)
(3 -9.35675e-16 0)
(3 -1.49012e-15 0)
(3 -1.51686e-15 0)
(3 -9.08167e-16 0)
(3 -6.45338e-16 0)
(3 -8.70484e-16 0)
(3 -1.32288e-15 0)
(3 -5.83094e-16 0)
(3 -6.95831e-16 0)
(3 -9.76121e-16 0)
(3 -9.65294e-16 0)
(3 -1.30538e-15 0)
(3 -2.12148e-15 0)
(3 -2.70784e-15 0)
(3 -2.82651e-15 0)
(3 -3.05454e-15 0)
(3 -3.18318e-15 0)
(3 -3.36748e-15 0)
(3 -4.20999e-15 0)
(3 -4.51147e-16 0)
(3 -4.53785e-16 0)
(3 -6.97293e-16 0)
(3 -9.13106e-16 0)
(3 -1.01815e-15 0)
(3 -1.22392e-15 0)
(3 -1.15148e-15 0)
(3 -3.87236e-16 0)
(3 9.31579e-16 0)
(3 8.04279e-16 0)
(3 2.93564e-16 0)
(3 -9.38809e-17 0)
(3 -5.06483e-16 0)
(3 -7.09408e-16 0)
(3 -7.84314e-16 0)
(3 -1.01172e-15 0)
(3 -1.74272e-15 0)
(3 -1.92399e-15 0)
(3 -1.9398e-15 0)
(3 -1.22253e-15 0)
(3 -1.27791e-15 0)
(3 -1.85905e-15 0)
(3 -2.18174e-15 0)
(3 -1.97651e-15 0)
(3 -1.40119e-15 0)
(3 -9.56276e-16 0)
(3 -3.29506e-17 0)
(3 5.9297e-17 0)
(3 6.49462e-16 0)
(3 4.81022e-16 0)
(3 -1.10607e-16 0)
(3 -7.06355e-16 0)
(3 -5.76439e-16 0)
(3 -5.66337e-16 0)
(3 4.58316e-17 0)
(3 6.85391e-16 0)
(3 1.27837e-15 0)
(3 5.94831e-16 0)
(3 -7.79351e-16 0)
(3 -1.45872e-15 0)
(3 -1.62484e-15 0)
(3 -4.13938e-16 0)
(3 -2.53198e-16 0)
(3 -6.68704e-16 0)
(3 -1.09929e-15 0)
(3 -2.40873e-15 0)
(3 -2.43655e-15 0)
(3 -3.53411e-15 0)
(3 -4.54657e-15 0)
(3 -4.89382e-15 0)
(3 -5.13653e-15 0)
(3 -3.90549e-15 0)
(3 -1.14495e-15 0)
(3 5.52581e-18 0)
(3 -1.25954e-16 0)
(3 -5.92912e-16 0)
(3 -6.38426e-16 0)
(3 -1.27639e-16 0)
(3 5.80432e-17 0)
(3 2.1237e-16 0)
(3 -2.78491e-16 0)
(3 -6.23278e-16 0)
(3 -8.10154e-16 0)
(3 -6.31596e-16 0)
(3 -1.87483e-16 0)
(3 5.51626e-17 0)
(3 3.61452e-16 0)
(3 1.12137e-15 0)
(3 1.05763e-15 0)
(3 2.1061e-16 0)
(3 -2.46588e-16 0)
(3 -1.50988e-15 0)
(3 -1.43444e-15 0)
(3 -6.81733e-16 0)
(3 -1.51733e-15 0)
(3 -3.04381e-15 0)
(3 -3.43676e-15 0)
(3 -2.60564e-15 0)
(3 -1.84071e-15 0)
(3 -4.21373e-16 0)
(3 5.81103e-16 0)
(3 7.06271e-16 0)
(3 4.19329e-16 0)
(3 2.82439e-16 0)
(3 -3.72603e-16 0)
(3 -8.29248e-16 0)
(3 -8.23251e-16 0)
(3 -1.10779e-15 0)
(3 -1.36805e-15 0)
(3 -1.62495e-15 0)
(3 -1.86852e-15 0)
(3 -2.37007e-15 0)
(3 -2.41758e-15 0)
(3 -6.78909e-16 0)
(3 -4.34171e-16 0)
(3 5.58414e-16 0)
(3 -1.62452e-16 0)
(3 -1.01043e-16 0)
(3 -1.13694e-16 0)
(3 2.45098e-17 0)
(3 -1.83502e-16 0)
(3 -4.03066e-16 0)
(3 -2.39249e-16 0)
(3 5.72298e-17 0)
(3 -1.23264e-16 0)
(3 -1.41383e-16 0)
(3 -1.87537e-16 0)
(3 -4.85412e-16 0)
(3 -9.56881e-16 0)
(3 -1.21531e-15 0)
(3 -1.22376e-15 0)
(3 -1.78434e-15 0)
(3 -2.35426e-15 0)
(3 -3.51087e-15 0)
(3 -3.73804e-15 0)
(3 -3.23215e-15 0)
(3 -2.57798e-15 0)
(3 -1.9442e-15 0)
(3 -1.95366e-15 0)
(3 -1.80188e-15 0)
(3 -1.40813e-15 0)
(3 -8.73733e-16 0)
(3 -3.58228e-16 0)
(3 -3.7679e-16 0)
(3 7.6355e-16 0)
(3 3.62655e-16 0)
(3 -1.50978e-16 0)
(3 -6.21121e-16 0)
(3 -8.93876e-16 0)
(3 -7.44655e-16 0)
(3 -6.17096e-18 0)
(3 3.38583e-16 0)
(3 4.2869e-16 0)
(3 2.64049e-16 0)
(3 -1.09555e-15 0)
(3 -1.19898e-15 0)
(3 -8.23239e-16 0)
(3 -7.37898e-16 0)
(3 -1.23318e-15 0)
(3 -2.38949e-15 0)
(3 -2.83426e-15 0)
(3 -3.23648e-15 0)
(3 -4.29614e-15 0)
(3 -5.073e-15 0)
(3 -4.76813e-15 0)
(3 -4.77474e-15 0)
(3 -4.17499e-15 0)
(3 -2.35678e-15 0)
(3 -1.7783e-15 0)
(3 -3.46212e-16 0)
(3 4.38157e-16 0)
(3 8.289e-16 0)
(3 1.05834e-15 0)
(3 1.10695e-15 0)
(3 1.67439e-15 0)
(3 2.19069e-15 0)
(3 2.16163e-15 0)
(3 1.29504e-15 0)
(3 8.56381e-16 0)
(3 1.52716e-16 0)
(3 7.98585e-17 0)
(3 -1.2197e-16 0)
(3 -7.19738e-16 0)
(3 -1.27779e-15 0)
(3 -1.57612e-15 0)
(3 -1.28151e-15 0)
(3 -9.27957e-16 0)
(3 -1.14748e-15 0)
(3 -1.47185e-15 0)
(3 -1.12893e-15 0)
(3 -1.24263e-15 0)
(3 -1.10173e-15 0)
(3 -1.27404e-15 0)
(3 -2.25559e-15 0)
(3 -2.02833e-15 0)
(3 -1.73871e-15 0)
(3 -8.5676e-16 0)
(3 -4.53772e-16 0)
(3 1.42996e-15 0)
(3 1.7984e-15 0)
(3 1.02107e-15 0)
(3 -3.35648e-16 0)
(3 -1.24874e-15 0)
(3 -1.7885e-15 0)
(3 -2.46635e-15 0)
(3 -2.67416e-15 0)
(3 -2.06671e-15 0)
(3 -1.40623e-15 0)
(3 -9.61707e-16 0)
(3 -8.81178e-17 0)
(3 1.34348e-15 0)
(3 3.74963e-15 0)
(3 1.82349e-16 0)
(3 3.4119e-16 0)
(3 6.9162e-16 0)
(3 5.42118e-16 0)
(3 1.77336e-16 0)
(3 3.79357e-16 0)
(3 5.66555e-17 0)
(3 1.38291e-16 0)
(3 -7.95007e-16 0)
(3 -1.0662e-15 0)
(3 -9.32833e-16 0)
(3 -7.17151e-16 0)
(3 -8.829e-16 0)
(3 -1.39959e-15 0)
(3 -1.89179e-15 0)
(3 -1.98065e-15 0)
(3 -3.46958e-15 0)
(3 -2.6459e-15 0)
(3 -2.23477e-15 0)
(3 -2.31582e-15 0)
(3 -1.81467e-15 0)
(3 -1.38565e-15 0)
(3 -1.32153e-15 0)
(3 -1.27826e-15 0)
(3 -1.77883e-15 0)
(3 -1.92773e-15 0)
(3 -9.47108e-16 0)
(3 -2.38575e-16 0)
(3 5.89014e-16 0)
(3 1.09365e-15 0)
(3 5.63852e-16 0)
(3 7.8854e-16 0)
(3 6.77964e-16 0)
(3 8.70294e-16 0)
(3 7.76835e-16 0)
(3 -1.34854e-16 0)
(3 -4.28515e-16 0)
(3 -1.47645e-15 0)
(3 -1.84293e-15 0)
(3 -1.68675e-15 0)
(3 -2.45452e-15 0)
(3 -3.90592e-15 0)
(3 -4.58344e-15 0)
(3 -4.50473e-15 0)
(3 -3.90426e-15 0)
(3 -3.87442e-15 0)
(3 -4.17529e-15 0)
(3 -3.89726e-15 0)
(3 -3.52791e-15 0)
(3 -3.02489e-15 0)
(3 -2.27745e-15 0)
(3 -1.41941e-15 0)
(3 -1.79246e-15 0)
(3 -1.645e-15 0)
(3 1.59885e-16 0)
(3 2.40633e-15 0)
(3 2.82279e-15 0)
(3 2.79607e-15 0)
(3 3.14662e-15 0)
(3 2.38218e-15 0)
(3 2.1529e-15 0)
(3 2.10253e-15 0)
(3 1.5421e-15 0)
(3 9.55211e-16 0)
(3 3.49738e-16 0)
(3 -4.27043e-16 0)
(3 -1.21236e-15 0)
(3 -1.5915e-15 0)
(3 -1.27888e-15 0)
(3 -1.0761e-15 0)
(3 -6.12106e-16 0)
(3 6.42454e-17 0)
(3 1.11483e-16 0)
(3 -1.88301e-15 0)
(3 -1.60129e-15 0)
(3 -3.39429e-16 0)
(3 -9.18316e-17 0)
(3 -1.20497e-16 0)
(3 -8.83964e-16 0)
(3 -1.12883e-15 0)
(3 -1.04977e-15 0)
(3 -1.2967e-15 0)
(3 -7.94665e-16 0)
(3 -2.31639e-16 0)
(3 9.8659e-17 0)
(3 -1.83929e-16 0)
(3 -1.61966e-15 0)
(3 -2.82523e-15 0)
(3 -4.14178e-15 0)
(3 -3.44751e-15 0)
(3 -2.58708e-15 0)
(3 -2.28382e-15 0)
(3 -2.1774e-15 0)
(3 -1.11984e-15 0)
(3 1.15117e-15 0)
(3 3.73476e-15 0)
(3 7.45404e-17 0)
(3 3.52345e-16 0)
(3 6.39267e-16 0)
(3 5.14345e-16 0)
(3 3.01594e-17 0)
(3 -1.22085e-16 0)
(3 -5.45949e-16 0)
(3 -5.69372e-16 0)
(3 -2.31322e-16 0)
(3 -1.67615e-16 0)
(3 -2.54949e-16 0)
(3 -3.42422e-16 0)
(3 -3.07686e-16 0)
(3 -3.76769e-16 0)
(3 -8.95954e-16 0)
(3 -6.92266e-16 0)
(3 -1.0125e-15 0)
(3 -9.8406e-16 0)
(3 4.83303e-17 0)
(3 -3.5902e-16 0)
(3 -7.40457e-16 0)
(3 -1.29765e-15 0)
(3 -1.05615e-15 0)
(3 -1.01919e-15 0)
(3 -1.39842e-15 0)
(3 -1.53086e-15 0)
(3 -5.75619e-16 0)
(3 9.10132e-16 0)
(3 1.11065e-15 0)
(3 6.69518e-16 0)
(3 4.96308e-16 0)
(3 8.90152e-16 0)
(3 9.15598e-16 0)
(3 9.73023e-16 0)
(3 -1.08655e-16 0)
(3 -1.25105e-15 0)
(3 -1.52229e-15 0)
(3 -1.4337e-15 0)
(3 -1.24794e-15 0)
(3 -1.33964e-15 0)
(3 -9.80949e-16 0)
(3 -2.14773e-15 0)
(3 -4.43729e-15 0)
(3 -5.04863e-15 0)
(3 -4.26425e-15 0)
(3 -3.13374e-15 0)
(3 -2.16675e-15 0)
(3 -1.6927e-15 0)
(3 -1.53304e-15 0)
(3 -1.11106e-15 0)
(3 -7.1461e-16 0)
(3 -6.28619e-16 0)
(3 9.6511e-17 0)
(3 3.82577e-16 0)
(3 8.32613e-16 0)
(3 7.0526e-16 0)
(3 6.03739e-16 0)
(3 9.09424e-16 0)
(3 7.79963e-17 0)
(3 -1.75372e-16 0)
(3 1.7465e-16 0)
(3 4.20344e-16 0)
(3 4.02369e-16 0)
(3 2.98758e-16 0)
(3 -2.41193e-16 0)
(3 -7.68422e-16 0)
(3 -8.64203e-16 0)
(3 -1.94177e-15 0)
(3 -3.05734e-15 0)
(3 -3.62167e-15 0)
(3 -1.90105e-15 0)
(3 -9.14364e-16 0)
(3 4.00511e-16 0)
(3 -7.64815e-16 0)
(3 -6.17612e-16 0)
(3 -5.61702e-16 0)
(3 -2.01534e-16 0)
(3 7.18695e-16 0)
(3 6.53989e-16 0)
(3 6.53256e-16 0)
(3 4.722e-16 0)
(3 -2.42654e-16 0)
(3 -1.73198e-15 0)
(3 -1.20315e-15 0)
(3 -5.06893e-16 0)
(3 -2.54151e-16 0)
(3 -1.69314e-15 0)
(3 -2.0592e-15 0)
(3 -2.64812e-15 0)
(3 -2.5813e-15 0)
(3 -2.36795e-15 0)
(3 -2.15573e-15 0)
(3 -7.34753e-16 0)
(3 -8.89594e-16 0)
(3 -6.32154e-16 0)
(3 -2.90546e-16 0)
(3 1.04695e-17 0)
(3 -2.96318e-17 0)
(3 -1.63734e-16 0)
(3 -3.90582e-16 0)
(3 -7.66107e-16 0)
(3 -1.02811e-15 0)
(3 -9.26881e-16 0)
(3 -4.86616e-16 0)
(3 -1.65111e-16 0)
(3 2.95892e-16 0)
(3 7.81594e-16 0)
(3 6.22887e-16 0)
(3 1.68634e-16 0)
(3 -1.51684e-16 0)
(3 -9.81441e-16 0)
(3 -1.08326e-15 0)
(3 -6.85431e-16 0)
(3 -9.59033e-16 0)
(3 -4.98895e-16 0)
(3 4.04596e-17 0)
(3 -3.0325e-16 0)
(3 1.26405e-17 0)
(3 -3.90889e-17 0)
(3 -7.84559e-16 0)
(3 -8.26916e-16 0)
(3 -5.80408e-16 0)
(3 7.78748e-16 0)
(3 7.88118e-16 0)
(3 -6.69907e-16 0)
(3 -2.22897e-15 0)
(3 -1.54151e-15 0)
(3 -1.11933e-15 0)
(3 -2.12341e-15 0)
(3 -2.90917e-15 0)
(3 -3.69629e-15 0)
(3 -4.1081e-15 0)
(3 -3.64298e-15 0)
(3 -2.52505e-15 0)
(3 -1.48692e-15 0)
(3 -6.1452e-16 0)
(3 5.56422e-16 0)
(3 -2.41636e-16 0)
(3 -1.39758e-15 0)
(3 -1.25984e-15 0)
(3 -1.58215e-15 0)
(3 -3.02056e-15 0)
(3 -2.70841e-15 0)
(3 -2.03768e-15 0)
(3 -1.39649e-15 0)
(3 -4.24095e-16 0)
(3 5.33098e-16 0)
(3 7.96328e-16 0)
(3 7.5507e-16 0)
(3 3.11239e-16 0)
(3 -6.74374e-16 0)
(3 -6.18223e-16 0)
(3 -4.08514e-16 0)
(3 -6.0345e-16 0)
(3 -8.7431e-16 0)
(3 -8.07559e-16 0)
(3 -4.59088e-16 0)
(3 -5.38535e-16 0)
(3 8.36902e-17 0)
(3 2.92293e-16 0)
(3 -7.94843e-17 0)
(3 -1.04811e-15 0)
(3 -1.53944e-15 0)
(3 -2.48915e-15 0)
(3 -4.52948e-15 0)
(3 -4.95282e-15 0)
(3 -4.24512e-15 0)
(3 -2.82155e-15 0)
(3 -3.11888e-16 0)
(3 8.92509e-16 0)
(3 9.40988e-16 0)
(3 1.10744e-15 0)
(3 5.41983e-16 0)
(3 8.59794e-16 0)
(3 1.72376e-15 0)
(3 2.12039e-15 0)
(3 1.47386e-15 0)
(3 7.94023e-16 0)
(3 6.91918e-16 0)
(3 1.20691e-15 0)
(3 9.75689e-16 0)
(3 -3.31894e-16 0)
(3 -8.98091e-16 0)
(3 -5.75729e-16 0)
(3 -4.13787e-16 0)
(3 -1.63997e-15 0)
(3 -2.6368e-15 0)
(3 -2.03647e-15 0)
(3 -2.30177e-16 0)
(3 -2.67337e-16 0)
(3 -2.30582e-15 0)
(3 -3.7713e-15 0)
(3 -1.32642e-16 0)
(3 -2.97897e-16 0)
(3 -6.23414e-16 0)
(3 -7.48549e-16 0)
(3 -4.77445e-16 0)
(3 -5.80052e-16 0)
(3 -6.24912e-16 0)
(3 -8.98567e-16 0)
(3 -1.11155e-15 0)
(3 -6.9714e-16 0)
(3 -4.78615e-16 0)
(3 -3.20921e-16 0)
(3 -4.40732e-16 0)
(3 -4.12495e-16 0)
(3 -2.96091e-16 0)
(3 -6.05058e-16 0)
(3 -4.77061e-16 0)
(3 -7.15709e-16 0)
(3 -8.72939e-16 0)
(3 -8.93031e-16 0)
(3 8.54775e-17 0)
(3 1.82247e-15 0)
(3 1.84626e-15 0)
(3 1.32969e-15 0)
(3 8.29548e-16 0)
(3 1.05014e-15 0)
(3 6.88309e-16 0)
(3 -1.11988e-15 0)
(3 -1.60676e-15 0)
(3 -1.62569e-15 0)
(3 -2.03644e-15 0)
(3 -2.33765e-15 0)
(3 -3.08841e-15 0)
(3 -2.851e-15 0)
(3 -3.02894e-15 0)
(3 -3.80769e-15 0)
(3 -3.63434e-15 0)
(3 -3.35961e-15 0)
(3 -1.93273e-15 0)
(3 -5.19404e-16 0)
(3 1.29799e-16 0)
(3 9.72537e-16 0)
(3 1.30615e-15 0)
(3 9.31609e-16 0)
(3 1.08217e-17 0)
(3 -9.96536e-16 0)
(3 -2.39297e-15 0)
(3 -2.92608e-15 0)
(3 -8.697e-16 0)
(3 1.00379e-15 0)
(3 2.78251e-15 0)
(3 2.73168e-15 0)
(3 2.26404e-15 0)
(3 1.04373e-15 0)
(3 -6.09109e-16 0)
(3 -7.64074e-16 0)
(3 -7.97695e-16 0)
(3 -1.29875e-15 0)
(3 -1.02152e-15 0)
(3 -9.71061e-16 0)
(3 -9.40007e-16 0)
(3 -1.28014e-15 0)
(3 -1.25885e-15 0)
(3 -8.97694e-16 0)
(3 -8.93983e-16 0)
(3 -1.20771e-15 0)
(3 -1.57936e-15 0)
(3 -2.00339e-15 0)
(3 -1.56422e-15 0)
(3 -8.81339e-16 0)
(3 2.96353e-17 0)
(3 1.24608e-15 0)
(3 1.69708e-15 0)
(3 2.39548e-15 0)
(3 2.63785e-15 0)
(3 3.35836e-15 0)
(3 3.82564e-15 0)
(3 3.21917e-15 0)
(3 2.22955e-15 0)
(3 1.56789e-15 0)
(3 1.41939e-15 0)
(3 2.17132e-15 0)
(3 2.56638e-15 0)
(3 2.44452e-15 0)
(3 2.83298e-15 0)
(3 8.5535e-16 0)
(3 -6.60179e-16 0)
(3 -5.1381e-16 0)
(3 -2.77855e-16 0)
(3 -2.08997e-16 0)
(3 -8.80502e-16 0)
(3 -1.79721e-15 0)
(3 -2.42166e-15 0)
(3 -2.33931e-15 0)
(3 -3.32781e-15 0)
(3 -3.90169e-15 0)
(3 2.16009e-17 0)
(3 -2.48226e-16 0)
(3 -3.65071e-16 0)
(3 -2.50017e-16 0)
(3 1.90855e-16 0)
(3 2.6673e-16 0)
(3 2.98541e-16 0)
(3 8.20024e-17 0)
(3 -1.36189e-16 0)
(3 -5.92473e-16 0)
(3 -8.46869e-16 0)
(3 -8.67725e-16 0)
(3 -7.73871e-16 0)
(3 -6.34336e-16 0)
(3 8.69847e-17 0)
(3 7.256e-16 0)
(3 1.46316e-15 0)
(3 1.39184e-15 0)
(3 3.90123e-16 0)
(3 1.98937e-16 0)
(3 8.41005e-16 0)
(3 1.83175e-16 0)
(3 6.2003e-16 0)
(3 2.15089e-15 0)
(3 2.37097e-15 0)
(3 2.32616e-15 0)
(3 1.28962e-15 0)
(3 3.58043e-16 0)
(3 7.80786e-16 0)
(3 2.88002e-17 0)
(3 -6.07898e-16 0)
(3 -1.21646e-15 0)
(3 -1.23621e-15 0)
(3 -1.11923e-15 0)
(3 -6.45349e-16 0)
(3 -9.40884e-16 0)
(3 -2.31663e-15 0)
(3 -2.6803e-15 0)
(3 -2.28875e-15 0)
(3 -2.39074e-15 0)
(3 -1.74791e-15 0)
(3 -6.38253e-16 0)
(3 4.82544e-16 0)
(3 8.13418e-16 0)
(3 6.61624e-16 0)
(3 5.31283e-16 0)
(3 -1.76923e-16 0)
(3 1.89272e-16 0)
(3 2.41788e-15 0)
(3 3.26986e-15 0)
(3 2.91452e-15 0)
(3 2.54553e-15 0)
(3 1.85401e-15 0)
(3 1.25752e-15 0)
(3 -3.72147e-16 0)
(3 -1.30149e-15 0)
(3 -1.40072e-15 0)
(3 -9.81014e-16 0)
(3 -6.03513e-16 0)
(3 -4.94228e-16 0)
(3 -1.00203e-15 0)
(3 -1.17582e-15 0)
(3 -1.71791e-15 0)
(3 -1.54955e-15 0)
(3 -1.78322e-15 0)
(3 -2.10201e-15 0)
(3 -2.1107e-15 0)
(3 -1.06928e-15 0)
(3 -2.53429e-16 0)
(3 2.54816e-16 0)
(3 8.27276e-16 0)
(3 1.50691e-15 0)
(3 2.13222e-15 0)
(3 2.38095e-15 0)
(3 3.24624e-15 0)
(3 3.7092e-15 0)
(3 3.98291e-15 0)
(3 1.87336e-15 0)
(3 1.23646e-15 0)
(3 1.75252e-15 0)
(3 2.16143e-15 0)
(3 2.25963e-15 0)
(3 1.53099e-15 0)
(3 3.78665e-16 0)
(3 8.59587e-16 0)
(3 6.61551e-16 0)
(3 -1.53441e-15 0)
(3 -1.81412e-15 0)
(3 -1.40391e-15 0)
(3 -1.20092e-15 0)
(3 -7.31813e-16 0)
(3 -1.18602e-15 0)
(3 -3.0731e-15 0)
(3 -3.79067e-15 0)
(3 -3.75039e-15 0)
(3 -3.30546e-15 0)
(3 1.13631e-16 0)
(3 1.24302e-16 0)
(3 2.21864e-16 0)
(3 1.44624e-16 0)
(3 4.07364e-16 0)
(3 5.44396e-16 0)
(3 5.87669e-16 0)
(3 6.66675e-16 0)
(3 8.57561e-16 0)
(3 4.86083e-16 0)
(3 -6.71656e-17 0)
(3 -1.40332e-16 0)
(3 1.13094e-16 0)
(3 5.45121e-17 0)
(3 7.19348e-16 0)
(3 1.32712e-15 0)
(3 2.14845e-15 0)
(3 2.18299e-15 0)
(3 2.14493e-15 0)
(3 1.22793e-15 0)
(3 9.81588e-16 0)
(3 2.03085e-17 0)
(3 -1.4328e-15 0)
(3 -1.10827e-15 0)
(3 -9.06607e-16 0)
(3 -1.31159e-15 0)
(3 -2.17326e-15 0)
(3 -2.04661e-15 0)
(3 -1.9143e-15 0)
(3 -1.11401e-15 0)
(3 -4.16418e-16 0)
(3 4.63344e-16 0)
(3 1.02184e-15 0)
(3 1.00901e-15 0)
(3 5.15082e-16 0)
(3 1.09427e-16 0)
(3 -4.76514e-16 0)
(3 -7.53548e-16 0)
(3 -5.93251e-16 0)
(3 -8.74205e-16 0)
(3 -1.84282e-15 0)
(3 -2.27257e-15 0)
(3 -1.94933e-15 0)
(3 -5.90442e-16 0)
(3 -1.04326e-16 0)
(3 1.79418e-16 0)
(3 8.46545e-18 0)
(3 1.52228e-15 0)
(3 1.51538e-15 0)
(3 1.07881e-15 0)
(3 8.60368e-16 0)
(3 4.19795e-17 0)
(3 -9.4216e-17 0)
(3 8.25955e-17 0)
(3 2.08446e-16 0)
(3 -2.68805e-16 0)
(3 -4.67263e-16 0)
(3 -9.03403e-16 0)
(3 -1.20799e-15 0)
(3 -6.98812e-16 0)
(3 5.19333e-17 0)
(3 6.87752e-16 0)
(3 2.50561e-16 0)
(3 -1.246e-16 0)
(3 -3.90859e-16 0)
(3 -2.86611e-16 0)
(3 -6.0147e-16 0)
(3 -2.62542e-16 0)
(3 1.26131e-16 0)
(3 6.61617e-16 0)
(3 1.4617e-15 0)
(3 1.82197e-15 0)
(3 1.93093e-15 0)
(3 2.68431e-15 0)
(3 2.59871e-15 0)
(3 1.5947e-15 0)
(3 1.64099e-15 0)
(3 1.99413e-15 0)
(3 2.31115e-15 0)
(3 2.94151e-15 0)
(3 2.65984e-15 0)
(3 2.5212e-15 0)
(3 2.13265e-15 0)
(3 9.28982e-16 0)
(3 -1.89387e-16 0)
(3 7.34994e-16 0)
(3 2.80371e-16 0)
(3 1.12274e-16 0)
(3 -2.6993e-16 0)
(3 -1.23137e-15 0)
(3 -1.10696e-15 0)
(3 -9.67091e-16 0)
(3 -1.89435e-15 0)
(3 -2.96187e-15 0)
(3 -3.14585e-15 0)
(3 -2.76329e-15 0)
(3 1.40264e-17 0)
(3 2.24282e-16 0)
(3 2.50024e-16 0)
(3 9.84215e-17 0)
(3 8.26697e-18 0)
(3 -2.13082e-16 0)
(3 -6.54357e-17 0)
(3 4.30795e-17 0)
(3 4.45456e-16 0)
(3 7.12515e-16 0)
(3 3.82239e-17 0)
(3 -1.25476e-16 0)
(3 9.55651e-17 0)
(3 6.59027e-16 0)
(3 7.74397e-16 0)
(3 8.7783e-16 0)
(3 8.2127e-16 0)
(3 6.31745e-16 0)
(3 6.18278e-16 0)
(3 1.60139e-16 0)
(3 4.13982e-16 0)
(3 2.20569e-16 0)
(3 -4.60315e-16 0)
(3 -1.18552e-15 0)
(3 -2.01475e-15 0)
(3 -2.86347e-15 0)
(3 -3.26012e-15 0)
(3 -3.26874e-15 0)
(3 -3.06333e-15 0)
(3 -3.15853e-15 0)
(3 -1.77863e-15 0)
(3 -2.76801e-16 0)
(3 -1.60419e-16 0)
(3 3.34327e-16 0)
(3 -4.76601e-17 0)
(3 7.3768e-16 0)
(3 1.11297e-15 0)
(3 5.2186e-16 0)
(3 -1.21432e-16 0)
(3 -2.93352e-16 0)
(3 -1.10328e-15 0)
(3 -2.58715e-15 0)
(3 -2.46705e-15 0)
(3 -2.07753e-15 0)
(3 -1.06747e-15 0)
(3 -1.0652e-16 0)
(3 3.22516e-16 0)
(3 7.64852e-16 0)
(3 -2.92596e-16 0)
(3 -1.02853e-15 0)
(3 -1.31622e-15 0)
(3 -1.61753e-15 0)
(3 -1.49922e-15 0)
(3 -6.58557e-16 0)
(3 -1.90578e-16 0)
(3 -5.2758e-16 0)
(3 -7.65481e-16 0)
(3 -1.33831e-15 0)
(3 -2.10403e-15 0)
(3 -1.92647e-15 0)
(3 -1.76882e-15 0)
(3 -1.21014e-15 0)
(3 -5.24666e-16 0)
(3 -1.15382e-15 0)
(3 -8.40903e-16 0)
(3 -1.38047e-16 0)
(3 7.84943e-16 0)
(3 8.99991e-16 0)
(3 4.34978e-16 0)
(3 7.71157e-16 0)
(3 1.65619e-15 0)
(3 2.70371e-15 0)
(3 2.87853e-15 0)
(3 3.598e-15 0)
(3 3.2826e-15 0)
(3 2.51704e-15 0)
(3 2.10525e-15 0)
(3 2.88065e-15 0)
(3 4.25428e-15 0)
(3 4.41118e-15 0)
(3 4.17378e-15 0)
(3 2.42197e-15 0)
(3 1.4582e-15 0)
(3 6.14943e-16 0)
(3 5.70767e-16 0)
(3 3.42192e-16 0)
(3 7.86182e-16 0)
(3 1.29539e-15 0)
(3 1.34654e-15 0)
(3 1.7483e-16 0)
(3 -5.04391e-16 0)
(3 -9.50019e-16 0)
(3 -1.62633e-15 0)
(3 -2.20448e-15 0)
(3 -3.22878e-15 0)
(3 -3.60362e-15 0)
(3 -3.87276e-17 0)
(3 -3.60406e-16 0)
(3 -3.26823e-16 0)
(3 -7.11324e-17 0)
(3 -1.65092e-16 0)
(3 -1.83508e-16 0)
(3 -1.48243e-16 0)
(3 2.16556e-16 0)
(3 -4.12254e-17 0)
(3 -2.4427e-16 0)
(3 -1.39387e-16 0)
(3 9.67912e-17 0)
(3 -2.70299e-17 0)
(3 -5.49138e-18 0)
(3 -5.8201e-17 0)
(3 -1.76315e-16 0)
(3 -2.06408e-16 0)
(3 -2.52451e-17 0)
(3 -6.46773e-17 0)
(3 -1.5453e-16 0)
(3 -2.86564e-16 0)
(3 -6.48575e-16 0)
(3 -7.83577e-16 0)
(3 -8.13234e-16 0)
(3 -8.32465e-16 0)
(3 -1.83349e-15 0)
(3 -1.70935e-15 0)
(3 -8.40503e-16 0)
(3 -8.8343e-16 0)
(3 -7.06291e-16 0)
(3 -2.76353e-15 0)
(3 -1.8463e-15 0)
(3 -1.16191e-15 0)
(3 -2.98515e-16 0)
(3 7.48621e-16 0)
(3 1.65388e-15 0)
(3 1.79036e-15 0)
(3 1.45577e-15 0)
(3 2.58677e-16 0)
(3 -4.7895e-16 0)
(3 -7.09579e-16 0)
(3 -4.89493e-16 0)
(3 -2.08308e-16 0)
(3 -1.13018e-15 0)
(3 -1.82651e-15 0)
(3 -1.11303e-15 0)
(3 5.18316e-16 0)
(3 5.53785e-16 0)
(3 -6.60323e-16 0)
(3 -6.97137e-16 0)
(3 -5.66233e-16 0)
(3 -2.70025e-16 0)
(3 -7.48277e-16 0)
(3 -1.21166e-15 0)
(3 -1.51309e-15 0)
(3 -1.79605e-15 0)
(3 -1.87417e-15 0)
(3 -1.23272e-15 0)
(3 -2.35934e-16 0)
(3 -5.84297e-18 0)
(3 -3.29543e-16 0)
(3 -1.52264e-15 0)
(3 -1.47383e-15 0)
(3 -1.20318e-15 0)
(3 -6.2507e-18 0)
(3 1.38395e-15 0)
(3 1.84029e-15 0)
(3 1.62352e-15 0)
(3 4.30796e-16 0)
(3 3.24006e-16 0)
(3 7.18148e-16 0)
(3 1.13988e-15 0)
(3 2.01132e-15 0)
(3 3.50067e-15 0)
(3 4.34362e-15 0)
(3 5.0513e-15 0)
(3 4.20808e-15 0)
(3 3.76176e-15 0)
(3 4.22745e-15 0)
(3 4.9854e-15 0)
(3 5.35546e-15 0)
(3 4.88954e-15 0)
(3 2.82116e-15 0)
(3 1.15491e-15 0)
(3 9.56342e-16 0)
(3 4.38836e-16 0)
(3 -3.88833e-16 0)
(3 8.78324e-17 0)
(3 6.64401e-16 0)
(3 8.56794e-16 0)
(3 -1.12017e-15 0)
(3 -1.90883e-15 0)
(3 -2.35494e-15 0)
(3 -2.12229e-15 0)
(3 -2.65335e-15 0)
(3 -4.19302e-15 0)
(3 -1.72128e-16 0)
(3 -4.1359e-16 0)
(3 -1.90547e-16 0)
(3 -2.06313e-16 0)
(3 5.74559e-17 0)
(3 4.2844e-16 0)
(3 3.16239e-16 0)
(3 3.59125e-16 0)
(3 -2.63535e-17 0)
(3 -1.44982e-16 0)
(3 7.04612e-17 0)
(3 3.68408e-16 0)
(3 2.71203e-16 0)
(3 -5.58392e-17 0)
(3 -7.59438e-17 0)
(3 -3.88615e-17 0)
(3 4.02e-16 0)
(3 7.07958e-16 0)
(3 1.17779e-15 0)
(3 1.07646e-15 0)
(3 -6.82356e-16 0)
(3 -1.9679e-15 0)
(3 -2.16043e-15 0)
(3 -1.88369e-15 0)
(3 -1.93198e-15 0)
(3 -1.42663e-15 0)
(3 -8.2048e-16 0)
(3 -8.9037e-16 0)
(3 -1.11921e-15 0)
(3 -1.22357e-15 0)
(3 -6.35952e-16 0)
(3 -1.49165e-15 0)
(3 -8.25991e-16 0)
(3 -5.54626e-16 0)
(3 3.13198e-16 0)
(3 7.52009e-17 0)
(3 5.25968e-17 0)
(3 5.93372e-16 0)
(3 5.80733e-16 0)
(3 -1.16702e-16 0)
(3 -5.65705e-16 0)
(3 -3.88774e-17 0)
(3 1.50664e-16 0)
(3 -3.62555e-16 0)
(3 -5.51121e-16 0)
(3 7.44901e-17 0)
(3 2.81834e-16 0)
(3 1.83064e-16 0)
(3 -3.836e-16 0)
(3 -4.9621e-16 0)