/*--------------------------------*- C++ -*----------------------------------*\
  =========                 |
  \\      /  F ield         | OpenFOAM: The Open Source CFD Toolbox
   \\    /   O peration     | Website:  https://openfoam.org
    \\  /    A nd           | Version:  7
     \\/     M anipulation  |
\*---------------------------------------------------------------------------*/
FoamFile
{
    version     2.0;
    format      ascii;
    class       volVectorField;
    location    "2.3";
    object      U;
}
// * * * * * * * * * * * * * * * * * * * * * * * * * * * * * * * * * * * * * //

dimensions      [0 1 -1 0 0 0 0];

internalField   nonuniform List<vector> 
73728
(
(3 7.07911e-17 0)
(3 2.83879e-16 0)
(3 2.53871e-16 0)
(3 1.66272e-16 0)
(3 8.63244e-18 0)
(3 3.24014e-17 0)
(3 4.04935e-17 0)
(3 9.86065e-17 0)
(3 -2.42598e-16 0)
(3 -6.59752e-16 0)
(3 -3.41537e-16 0)
(3 -2.53578e-16 0)
(3 -4.34481e-16 0)
(3 -6.06781e-16 0)
(3 -5.8175e-16 0)
(3 -4.52246e-16 0)
(3 -4.79973e-16 0)
(3 -9.63595e-16 0)
(3 -1.58981e-15 0)
(3 -1.95276e-15 0)
(3 -2.26321e-15 0)
(3 -2.302e-15 0)
(3 -1.0449e-15 0)
(3 -6.77562e-16 0)
(3 -2.82216e-16 0)
(3 1.44588e-17 0)
(3 -3.35026e-16 0)
(3 -3.44744e-16 0)
(3 -5.19992e-16 0)
(3 -5.22701e-16 0)
(3 -2.00351e-16 0)
(3 1.71092e-16 0)
(3 2.70739e-16 0)
(3 1.89871e-16 0)
(3 6.42225e-16 0)
(3 7.34096e-16 0)
(3 9.15604e-16 0)
(3 8.13194e-16 0)
(3 6.67381e-16 0)
(3 6.07701e-16 0)
(3 5.52609e-16 0)
(3 -1.89937e-17 0)
(3 -9.59083e-16 0)
(3 -1.46753e-15 0)
(3 -2.10499e-15 0)
(3 -2.90825e-15 0)
(3 -3.05336e-15 0)
(3 -2.94864e-15 0)
(3 -2.36441e-15 0)
(3 -2.10086e-15 0)
(3 -1.60422e-15 0)
(3 -1.21477e-15 0)
(3 -1.11097e-15 0)
(3 -1.55499e-15 0)
(3 -2.91132e-15 0)
(3 -2.87518e-15 0)
(3 -1.36373e-15 0)
(3 -9.0268e-16 0)
(3 -4.16476e-16 0)
(3 1.03099e-15 0)
(3 2.81519e-15 0)
(3 2.04951e-15 0)
(3 1.58907e-15 0)
(3 1.65405e-15 0)
(3 1.57441e-15 0)
(3 8.27939e-16 0)
(3 2.37058e-16 0)
(3 -1.18796e-16 0)
(3 -2.3148e-16 0)
(3 -8.79383e-17 0)
(3 9.01267e-16 0)
(3 8.49843e-16 0)
(3 1.47647e-16 0)
(3 -2.19111e-16 0)
(3 8.60594e-17 0)
(3 3.32512e-17 0)
(3 -2.32101e-16 0)
(3 -5.5991e-16 0)
(3 1.03616e-15 0)
(3 2.06956e-15 0)
(3 2.15172e-15 0)
(3 1.94724e-15 0)
(3 1.5747e-15 0)
(3 1.90955e-15 0)
(3 1.96193e-15 0)
(3 1.87413e-15 0)
(3 1.43898e-15 0)
(3 1.18702e-15 0)
(3 1.34864e-15 0)
(3 1.53831e-15 0)
(3 1.7357e-15 0)
(3 2.09191e-15 0)
(3 1.15496e-15 0)
(3 8.88108e-16 0)
(3 1.44522e-15 0)
(3 1.78365e-15 0)
(3 -1.07177e-17 0)
(3 -4.60875e-17 0)
(3 -2.09334e-16 0)
(3 4.55441e-18 0)
(3 -4.78494e-16 0)
(3 -6.48837e-16 0)
(3 -7.08384e-16 0)
(3 -4.33017e-16 0)
(3 -9.11352e-16 0)
(3 -1.71149e-15 0)
(3 -1.66153e-15 0)
(3 -8.20127e-16 0)
(3 -4.35538e-16 0)
(3 -5.44567e-16 0)
(3 -6.80887e-16 0)
(3 -2.54178e-16 0)
(3 -1.55185e-16 0)
(3 -6.70346e-16 0)
(3 -1.3769e-15 0)
(3 -2.10712e-15 0)
(3 -2.89695e-15 0)
(3 -3.54147e-15 0)
(3 -2.27736e-15 0)
(3 -1.17999e-15 0)
(3 -9.36085e-16 0)
(3 -8.70691e-16 0)
(3 -9.99257e-16 0)
(3 -7.86593e-16 0)
(3 -4.1392e-16 0)
(3 -3.43459e-16 0)
(3 3.00582e-16 0)
(3 5.94174e-16 0)
(3 9.07461e-16 0)
(3 4.16046e-16 0)
(3 7.72981e-16 0)
(3 1.74875e-15 0)
(3 1.93363e-15 0)
(3 1.60129e-15 0)
(3 1.18033e-15 0)
(3 1.04119e-15 0)
(3 3.00031e-16 0)
(3 -9.20295e-16 0)
(3 -1.84135e-15 0)
(3 -2.28986e-15 0)
(3 -2.74761e-15 0)
(3 -3.13897e-15 0)
(3 -3.17219e-15 0)
(3 -2.68524e-15 0)
(3 -2.7654e-15 0)
(3 -2.93856e-15 0)
(3 -2.75066e-15 0)
(3 -2.33743e-15 0)
(3 -2.10948e-15 0)
(3 -2.35588e-15 0)
(3 -2.7984e-15 0)
(3 -3.72438e-15 0)
(3 -3.04386e-15 0)
(3 -1.44757e-15 0)
(3 -3.5084e-16 0)
(3 2.24506e-15 0)
(3 3.65716e-15 0)
(3 3.02183e-15 0)
(3 2.852e-15 0)
(3 2.61275e-15 0)
(3 2.50604e-15 0)
(3 2.21339e-15 0)
(3 1.56573e-15 0)
(3 8.87509e-16 0)
(3 6.33353e-16 0)
(3 9.84397e-17 0)
(3 -2.66555e-16 0)
(3 -6.68472e-16 0)
(3 -1.25312e-15 0)
(3 -2.1041e-15 0)
(3 -1.89257e-15 0)
(3 -1.7048e-15 0)
(3 -3.50554e-16 0)
(3 5.66828e-16 0)
(3 2.22105e-15 0)
(3 4.01621e-15 0)
(3 3.83229e-15 0)
(3 3.50559e-15 0)
(3 3.52195e-15 0)
(3 4.38835e-15 0)
(3 5.05575e-15 0)
(3 4.93203e-15 0)
(3 4.62768e-15 0)
(3 9.92428e-16 0)
(3 4.26083e-16 0)
(3 7.49675e-16 0)
(3 2.94216e-15 0)
(3 3.30265e-15 0)
(3 2.41392e-15 0)
(3 1.89985e-15 0)
(3 2.00801e-15 0)
(3 1.60717e-15 0)
(3 -5.0372e-17 0)
(3 -1.71815e-16 0)
(3 -1.39648e-16 0)
(3 -1.51373e-16 0)
(3 -1.14357e-16 0)
(3 -3.04741e-17 0)
(3 -2.38878e-16 0)
(3 -2.90879e-16 0)
(3 -9.35663e-16 0)
(3 -1.26779e-15 0)
(3 -1.44892e-15 0)
(3 -1.19885e-15 0)
(3 -4.38608e-16 0)
(3 2.16807e-16 0)
(3 2.98308e-16 0)
(3 2.57685e-16 0)
(3 1.55548e-16 0)
(3 7.3368e-16 0)
(3 7.85235e-16 0)
(3 -2.26408e-16 0)
(3 -1.99001e-15 0)
(3 -3.41602e-15 0)
(3 -3.29056e-15 0)
(3 -2.61457e-15 0)
(3 -1.75921e-15 0)
(3 -1.49777e-15 0)
(3 -1.12408e-15 0)
(3 -1.20198e-15 0)
(3 -1.0142e-15 0)
(3 -8.7646e-16 0)
(3 3.83384e-17 0)
(3 1.25351e-15 0)
(3 1.45061e-15 0)
(3 1.37211e-15 0)
(3 6.89331e-16 0)
(3 8.58839e-16 0)
(3 8.19167e-16 0)
(3 6.5895e-16 0)
(3 5.41123e-16 0)
(3 2.22254e-16 0)
(3 -6.36604e-16 0)
(3 -4.05448e-16 0)
(3 -1.87346e-16 0)
(3 -4.04805e-16 0)
(3 -3.61537e-16 0)
(3 -4.782e-16 0)
(3 -5.58699e-16 0)
(3 -6.75568e-16 0)
(3 -9.73368e-16 0)
(3 -1.06098e-15 0)
(3 -1.67552e-15 0)
(3 -1.87822e-15 0)
(3 -2.61978e-15 0)
(3 -2.77026e-15 0)
(3 -2.69138e-15 0)
(3 -2.88408e-15 0)
(3 -3.96717e-15 0)
(3 -2.50631e-15 0)
(3 -8.19689e-17 0)
(3 1.28306e-15 0)
(3 2.10661e-15 0)
(3 2.4837e-15 0)
(3 2.90844e-15 0)
(3 3.12491e-15 0)
(3 3.5027e-15 0)
(3 3.89781e-15 0)
(3 3.71161e-15 0)
(3 3.19741e-15 0)
(3 2.22068e-15 0)
(3 2.02842e-15 0)
(3 2.41001e-15 0)
(3 2.76785e-15 0)
(3 1.69973e-15 0)
(3 -5.18506e-16 0)
(3 -1.28071e-15 0)
(3 -1.29921e-15 0)
(3 -7.96431e-16 0)
(3 -2.21243e-16 0)
(3 3.92718e-16 0)
(3 1.19733e-15 0)
(3 2.17829e-15 0)
(3 3.56389e-15 0)
(3 4.723e-15 0)
(3 6.39603e-15 0)
(3 8.22361e-15 0)
(3 8.74903e-15 0)
(3 7.90126e-15 0)
(3 5.08568e-15 0)
(3 3.34487e-15 0)
(3 2.85223e-15 0)
(3 3.1811e-15 0)
(3 3.10732e-15 0)
(3 2.15771e-15 0)
(3 1.26734e-15 0)
(3 4.68574e-16 0)
(3 2.1265e-16 0)
(3 -2.12594e-16 0)
(3 -2.69953e-16 0)
(3 4.74176e-17 0)
(3 4.7621e-17 0)
(3 3.30987e-16 0)
(3 8.03272e-16 0)
(3 7.29951e-16 0)
(3 2.46261e-16 0)
(3 -1.3153e-16 0)
(3 -2.815e-16 0)
(3 -6.82323e-16 0)
(3 -5.85257e-16 0)
(3 -2.86174e-16 0)
(3 -2.09992e-16 0)
(3 -6.66517e-16 0)
(3 -7.66195e-16 0)
(3 -8.53917e-16 0)
(3 -1.01686e-15 0)
(3 -8.0128e-16 0)
(3 -9.6462e-16 0)
(3 -2.15141e-15 0)
(3 -2.031e-15 0)
(3 -1.69702e-15 0)
(3 -1.45965e-15 0)
(3 -8.52296e-16 0)
(3 -5.16403e-16 0)
(3 1.69479e-16 0)
(3 -1.17158e-16 0)
(3 -3.30204e-16 0)
(3 -6.51746e-16 0)
(3 -9.58182e-16 0)
(3 -2.29408e-16 0)
(3 1.00021e-15 0)
(3 2.34852e-15 0)
(3 2.24812e-15 0)
(3 1.86048e-15 0)
(3 1.22528e-15 0)
(3 9.52969e-16 0)
(3 2.95322e-16 0)
(3 -3.1206e-16 0)
(3 1.02105e-16 0)
(3 6.9162e-16 0)
(3 7.62922e-16 0)
(3 6.11313e-16 0)
(3 1.03034e-15 0)
(3 5.47971e-16 0)
(3 6.63928e-16 0)
(3 6.55871e-16 0)
(3 6.2284e-17 0)
(3 -2.43536e-16 0)
(3 -5.58331e-16 0)
(3 -7.88708e-16 0)
(3 -1.32772e-15 0)
(3 -1.67733e-15 0)
(3 -1.67869e-15 0)
(3 -1.15403e-15 0)
(3 -3.99845e-16 0)
(3 7.40223e-16 0)
(3 1.50822e-15 0)
(3 2.16524e-15 0)
(3 3.11593e-15 0)
(3 3.95662e-15 0)
(3 4.29305e-15 0)
(3 4.89976e-15 0)
(3 5.18338e-15 0)
(3 5.71429e-15 0)
(3 5.35923e-15 0)
(3 1.94155e-15 0)
(3 1.33284e-15 0)
(3 -1.22824e-16 0)
(3 -6.11827e-16 0)
(3 -1.0898e-15 0)
(3 -1.06439e-15 0)
(3 -1.10726e-15 0)
(3 -5.94668e-16 0)
(3 1.46041e-16 0)
(3 -1.39678e-19 0)
(3 -1.06516e-16 0)
(3 -5.97944e-16 0)
(3 4.07354e-16 0)
(3 1.96273e-15 0)
(3 3.23876e-15 0)
(3 2.7758e-15 0)
(3 4.31892e-15 0)
(3 5.64218e-15 0)
(3 7.98916e-15 0)
(3 8.33797e-15 0)
(3 8.17415e-15 0)
(3 7.13459e-15 0)
(3 4.65683e-15 0)
(3 2.1822e-15 0)
(3 1.71076e-15 0)
(3 4.53124e-16 0)
(3 -6.83337e-16 0)
(3 -8.54516e-16 0)
(3 -1.54236e-15 0)
(3 -3.66863e-16 0)
(3 -1.97279e-16 0)
(3 -6.23341e-16 0)
(3 -1.76891e-16 0)
(3 1.96539e-16 0)
(3 -1.94321e-16 0)
(3 3.80302e-16 0)
(3 9.20033e-16 0)
(3 1.04635e-15 0)
(3 7.37312e-16 0)
(3 3.85431e-16 0)
(3 -1.3153e-16 0)
(3 1.90151e-16 0)
(3 -3.02849e-16 0)
(3 -6.70437e-16 0)
(3 -9.53839e-16 0)
(3 -1.11291e-15 0)
(3 -2.09929e-15 0)
(3 -2.17178e-15 0)
(3 -1.41127e-15 0)
(3 -1.44708e-15 0)
(3 -8.55831e-16 0)
(3 -7.84132e-16 0)
(3 -5.0512e-16 0)
(3 -2.67751e-16 0)
(3 -3.17075e-16 0)
(3 -2.6506e-16 0)
(3 4.1701e-16 0)
(3 4.65917e-16 0)
(3 1.95698e-16 0)
(3 -6.06369e-16 0)
(3 -6.47004e-16 0)
(3 -3.60521e-16 0)
(3 7.79794e-16 0)
(3 1.46933e-15 0)
(3 1.63442e-15 0)
(3 1.65935e-15 0)
(3 1.49588e-15 0)
(3 4.53622e-16 0)
(3 -6.44953e-17 0)
(3 -1.31095e-16 0)
(3 -1.99557e-16 0)
(3 -2.83637e-16 0)
(3 -1.09294e-17 0)
(3 -1.22027e-16 0)
(3 1.09734e-16 0)
(3 1.43304e-16 0)
(3 6.53505e-16 0)
(3 6.6701e-16 0)
(3 3.41842e-16 0)
(3 3.96217e-16 0)
(3 3.30334e-16 0)
(3 -2.00865e-16 0)
(3 -7.02086e-16 0)
(3 5.82003e-17 0)
(3 -4.85688e-16 0)
(3 -7.97991e-16 0)
(3 -4.15889e-16 0)
(3 -2.57121e-16 0)
(3 1.29877e-17 0)
(3 1.71063e-15 0)
(3 2.6233e-15 0)
(3 2.55607e-15 0)
(3 1.95265e-15 0)
(3 3.11201e-15 0)
(3 4.2335e-15 0)
(3 3.23099e-15 0)
(3 2.50459e-15 0)
(3 1.67187e-15 0)
(3 4.59075e-16 0)
(3 -9.23564e-16 0)
(3 -1.55635e-15 0)
(3 -1.85047e-15 0)
(3 -3.80162e-16 0)
(3 1.15681e-15 0)
(3 9.67372e-16 0)
(3 -2.41381e-16 0)
(3 -1.24941e-15 0)
(3 -2.05949e-15 0)
(3 -1.42586e-15 0)
(3 -6.71832e-16 0)
(3 -5.7261e-16 0)
(3 -7.06906e-16 0)
(3 -5.6931e-16 0)
(3 -1.3313e-16 0)
(3 1.80551e-15 0)
(3 4.67097e-15 0)
(3 5.20228e-15 0)
(3 4.83649e-15 0)
(3 3.72574e-15 0)
(3 3.43428e-15 0)
(3 2.73863e-15 0)
(3 2.65075e-15 0)
(3 1.29736e-15 0)
(3 9.03652e-16 0)
(3 -2.39136e-16 0)
(3 -9.17081e-17 0)
(3 -8.91567e-17 0)
(3 -2.95749e-16 0)
(3 -3.71198e-16 0)
(3 -3.43505e-16 0)
(3 -5.16135e-16 0)
(3 -3.63542e-16 0)
(3 -3.10446e-16 0)
(3 -4.43258e-16 0)
(3 -1.50445e-16 0)
(3 -3.98666e-16 0)
(3 -7.52891e-16 0)
(3 -9.09751e-16 0)
(3 -3.6867e-16 0)
(3 1.5422e-16 0)
(3 -1.35349e-17 0)
(3 -7.73979e-16 0)
(3 -1.04602e-15 0)
(3 -1.79058e-15 0)
(3 -1.7082e-15 0)
(3 -9.1621e-16 0)
(3 -8.42626e-16 0)
(3 -9.20793e-16 0)
(3 -6.74123e-16 0)
(3 -3.9656e-16 0)
(3 -1.98974e-16 0)
(3 -3.61978e-16 0)
(3 -8.683e-16 0)
(3 -6.22127e-16 0)
(3 1.00358e-16 0)
(3 4.09841e-16 0)
(3 4.30495e-16 0)
(3 3.97862e-16 0)
(3 5.8722e-16 0)
(3 8.54998e-16 0)
(3 1.10164e-15 0)
(3 1.50984e-15 0)
(3 1.15528e-15 0)
(3 1.17175e-15 0)
(3 1.31177e-15 0)
(3 8.20728e-16 0)
(3 3.73374e-16 0)
(3 -4.67845e-16 0)
(3 -7.57147e-16 0)
(3 -8.96951e-16 0)
(3 -1.60593e-15 0)
(3 -1.84123e-15 0)
(3 -1.0874e-15 0)
(3 -6.73631e-16 0)
(3 4.14066e-16 0)
(3 1.14718e-15 0)
(3 9.09914e-16 0)
(3 8.95212e-16 0)
(3 9.53249e-16 0)
(3 1.81856e-15 0)
(3 1.29513e-15 0)
(3 -6.78505e-17 0)
(3 -7.42568e-16 0)
(3 -1.76941e-15 0)
(3 -1.92878e-15 0)
(3 -2.09759e-15 0)
(3 -1.45256e-15 0)
(3 -7.10814e-16 0)
(3 -1.30426e-15 0)
(3 -1.12672e-15 0)
(3 -8.7332e-16 0)
(3 3.18956e-16 0)
(3 2.46162e-15 0)
(3 2.51567e-15 0)
(3 2.77926e-15 0)
(3 2.90691e-15 0)
(3 2.61307e-15 0)
(3 2.14364e-15 0)
(3 2.4236e-15 0)
(3 2.03089e-15 0)
(3 1.12273e-15 0)
(3 -7.0598e-17 0)
(3 -2.75176e-15 0)
(3 -2.92301e-15 0)
(3 -2.64587e-15 0)
(3 -2.78718e-15 0)
(3 -3.27768e-15 0)
(3 -3.01703e-15 0)
(3 -2.20667e-15 0)
(3 -9.97032e-16 0)
(3 6.52664e-17 0)
(3 1.44455e-15 0)
(3 2.19642e-15 0)
(3 2.11829e-15 0)
(3 2.39109e-15 0)
(3 3.14208e-15 0)
(3 3.55925e-15 0)
(3 3.80467e-15 0)
(3 3.90166e-15 0)
(3 3.6409e-15 0)
(3 2.85764e-15 0)
(3 1.01431e-16 0)
(3 -6.10573e-16 0)
(3 -6.06917e-16 0)
(3 -3.04213e-16 0)
(3 -5.74133e-16 0)
(3 -6.06408e-16 0)
(3 -1.00668e-15 0)
(3 -1.4863e-15 0)
(3 -1.71386e-15 0)
(3 -1.68785e-15 0)
(3 -1.01278e-15 0)
(3 -8.51865e-16 0)
(3 -2.12657e-15 0)
(3 -2.08452e-15 0)
(3 -1.76211e-15 0)
(3 -1.69018e-15 0)
(3 -1.49927e-15 0)
(3 -1.13947e-15 0)
(3 -3.5697e-16 0)
(3 -3.74121e-16 0)
(3 -4.91633e-16 0)
(3 -5.70957e-16 0)
(3 -8.1874e-16 0)
(3 -1.24307e-15 0)
(3 -1.50099e-15 0)
(3 -5.8932e-16 0)
(3 -6.46687e-16 0)
(3 -1.04227e-15 0)
(3 -2.20325e-15 0)
(3 -2.11522e-15 0)
(3 -1.86658e-15 0)
(3 -1.33364e-15 0)
(3 -1.12076e-15 0)
(3 -1.07328e-15 0)
(3 -3.28397e-16 0)
(3 5.50781e-16 0)
(3 1.46895e-15 0)
(3 1.46409e-15 0)
(3 1.28571e-15 0)
(3 1.2544e-15 0)
(3 8.08552e-16 0)
(3 4.34144e-16 0)
(3 -6.04701e-16 0)
(3 -1.31672e-15 0)
(3 -1.30345e-15 0)
(3 -1.35924e-15 0)
(3 -1.42773e-15 0)
(3 -1.5239e-15 0)
(3 -1.63195e-15 0)
(3 -1.52817e-15 0)
(3 -7.449e-16 0)
(3 -1.28011e-16 0)
(3 1.19471e-15 0)
(3 2.41678e-15 0)
(3 7.50088e-16 0)
(3 -6.91465e-16 0)
(3 -1.17902e-15 0)
(3 -2.02279e-15 0)
(3 -2.29074e-15 0)
(3 -2.79282e-15 0)
(3 -3.81509e-15 0)
(3 -4.08902e-15 0)
(3 -3.64702e-15 0)
(3 -2.593e-15 0)
(3 -4.01931e-15 0)
(3 -4.2734e-15 0)
(3 -2.45815e-15 0)
(3 5.15899e-17 0)
(3 1.43436e-15 0)
(3 2.84573e-15 0)
(3 3.52017e-15 0)
(3 3.4963e-15 0)
(3 3.86132e-15 0)
(3 3.22419e-15 0)
(3 2.03996e-15 0)
(3 1.34968e-15 0)
(3 3.84922e-16 0)
(3 -2.17978e-15 0)
(3 -3.93958e-15 0)
(3 -2.09543e-15 0)
(3 -1.35088e-15 0)
(3 -8.62907e-16 0)
(3 -1.39578e-15 0)
(3 -1.78972e-15 0)
(3 -1.89889e-15 0)
(3 -1.42299e-15 0)
(3 -5.10374e-16 0)
(3 4.20391e-16 0)
(3 8.15011e-16 0)
(3 3.8943e-16 0)
(3 1.5227e-16 0)
(3 9.23436e-16 0)
(3 2.02104e-15 0)
(3 2.51575e-15 0)
(3 3.57026e-15 0)
(3 3.90286e-15 0)
(3 2.56338e-16 0)
(3 6.48294e-17 0)
(3 -2.79517e-16 0)
(3 -3.77537e-16 0)
(3 -7.51226e-17 0)
(3 -5.09687e-17 0)
(3 -2.65751e-16 0)
(3 -4.36958e-16 0)
(3 -4.10804e-16 0)
(3 8.22173e-17 0)
(3 9.87872e-16 0)
(3 6.02437e-16 0)
(3 3.54091e-16 0)
(3 -1.19832e-15 0)
(3 -2.49368e-15 0)
(3 -2.53969e-15 0)
(3 -1.87313e-15 0)
(3 -3.18886e-16 0)
(3 7.07151e-16 0)
(3 1.52104e-15 0)
(3 1.17059e-15 0)
(3 6.57487e-16 0)
(3 4.15071e-16 0)
(3 -4.39817e-16 0)
(3 -1.42151e-15 0)
(3 -1.85809e-15 0)
(3 -2.03392e-15 0)
(3 -1.86143e-15 0)
(3 -2.32986e-15 0)
(3 -2.22892e-15 0)
(3 -2.32429e-15 0)
(3 -2.91988e-15 0)
(3 -2.63412e-15 0)
(3 -2.27254e-15 0)
(3 -1.33164e-15 0)
(3 -7.97584e-17 0)
(3 -2.42901e-16 0)
(3 -9.037e-17 0)
(3 -5.87611e-16 0)
(3 -1.70055e-15 0)
(3 -1.66002e-15 0)
(3 -2.61798e-16 0)
(3 1.29288e-15 0)
(3 1.64649e-15 0)
(3 1.70939e-15 0)
(3 2.71709e-15 0)
(3 2.7307e-15 0)
(3 2.25665e-15 0)
(3 9.7015e-16 0)
(3 -1.02163e-15 0)
(3 -2.2211e-15 0)
(3 -1.30309e-15 0)
(3 1.65017e-16 0)
(3 1.01039e-15 0)
(3 1.52585e-15 0)
(3 1.19838e-15 0)
(3 2.04091e-16 0)
(3 -1.08046e-16 0)
(3 -8.75513e-16 0)
(3 -1.58361e-15 0)
(3 -2.13593e-15 0)
(3 -3.29751e-15 0)
(3 -3.54726e-15 0)
(3 -3.57799e-15 0)
(3 -3.57018e-15 0)
(3 -3.1717e-15 0)
(3 -2.77887e-15 0)
(3 -1.15927e-15 0)
(3 1.08083e-15 0)
(3 1.97666e-15 0)
(3 3.17696e-15 0)
(3 2.96216e-15 0)
(3 2.27295e-15 0)
(3 1.28697e-15 0)
(3 1.10656e-15 0)
(3 1.27279e-15 0)
(3 1.14192e-15 0)
(3 2.0427e-16 0)
(3 -9.60156e-16 0)
(3 -1.3333e-16 0)
(3 5.09431e-17 0)
(3 3.44169e-17 0)
(3 -1.08011e-15 0)
(3 -1.90214e-15 0)
(3 -1.78216e-15 0)
(3 -1.41934e-15 0)
(3 -8.86472e-16 0)
(3 -6.44039e-16 0)
(3 -9.25931e-16 0)
(3 -3.78697e-16 0)
(3 1.67452e-16 0)
(3 5.98749e-17 0)
(3 4.22439e-16 0)
(3 1.39993e-15 0)
(3 1.60468e-15 0)
(3 1.6417e-15 0)
(3 4.42566e-17 0)
(3 1.3235e-16 0)
(3 6.19162e-16 0)
(3 6.16026e-16 0)
(3 9.8807e-16 0)
(3 9.99684e-16 0)
(3 1.1365e-15 0)
(3 9.55663e-16 0)
(3 9.63831e-16 0)
(3 1.21668e-15 0)
(3 8.9517e-16 0)
(3 1.23116e-15 0)
(3 1.52205e-15 0)
(3 9.61434e-16 0)
(3 5.71098e-16 0)
(3 1.50229e-16 0)
(3 -1.98955e-16 0)
(3 4.40086e-17 0)
(3 4.80311e-16 0)
(3 9.14528e-16 0)
(3 8.62372e-16 0)
(3 3.27556e-16 0)
(3 -8.76734e-17 0)
(3 -6.85935e-17 0)
(3 -3.55515e-16 0)
(3 -1.1025e-15 0)
(3 -1.26652e-15 0)
(3 -1.62991e-15 0)
(3 -1.43138e-15 0)
(3 -1.52415e-15 0)
(3 -1.53158e-15 0)
(3 -1.68527e-15 0)
(3 -2.16369e-15 0)
(3 -1.78496e-15 0)
(3 -1.96344e-15 0)
(3 -2.02648e-15 0)
(3 -2.05304e-15 0)
(3 -1.35176e-15 0)
(3 -6.41467e-16 0)
(3 -7.57505e-16 0)
(3 -2.38788e-16 0)
(3 6.72639e-16 0)
(3 1.71173e-15 0)
(3 2.86144e-15 0)
(3 3.28914e-15 0)
(3 2.94926e-15 0)
(3 2.92916e-15 0)
(3 3.51014e-15 0)
(3 3.03518e-15 0)
(3 1.28285e-15 0)
(3 1.20713e-16 0)
(3 -4.26922e-16 0)
(3 -5.51504e-16 0)
(3 -4.80965e-16 0)
(3 6.52305e-16 0)
(3 9.49275e-16 0)
(3 6.62311e-16 0)
(3 1.3907e-15 0)
(3 1.47857e-15 0)
(3 9.97856e-16 0)
(3 4.46218e-16 0)
(3 -2.06492e-16 0)
(3 -3.52445e-16 0)
(3 -4.07761e-16 0)
(3 -1.85878e-16 0)
(3 -8.18429e-16 0)
(3 -1.27073e-15 0)
(3 -2.92596e-16 0)
(3 1.06539e-15 0)
(3 1.51455e-15 0)
(3 2.56163e-15 0)
(3 2.17292e-15 0)
(3 1.46091e-15 0)
(3 7.0704e-16 0)
(3 1.06131e-16 0)
(3 3.845e-16 0)
(3 1.17121e-15 0)
(3 1.70729e-15 0)
(3 1.02697e-15 0)
(3 1.8133e-16 0)
(3 -9.66448e-17 0)
(3 -4.84776e-16 0)
(3 -8.42885e-16 0)
(3 -6.0219e-16 0)
(3 -1.01221e-15 0)
(3 -2.13414e-15 0)
(3 -2.77834e-15 0)
(3 -2.81708e-15 0)
(3 -2.88699e-15 0)
(3 -2.50077e-15 0)
(3 -1.4233e-15 0)
(3 -1.66636e-15 0)
(3 -2.17258e-15 0)
(3 -2.00438e-15 0)
(3 -1.93545e-15 0)
(3 -5.7758e-16 0)
(3 -1.99395e-16 0)
(3 2.96832e-16 0)
(3 1.56286e-15 0)
(3 1.72249e-15 0)
(3 1.28136e-15 0)
(3 9.13354e-16 0)
(3 1.09349e-15 0)
(3 1.30826e-15 0)
(3 1.04585e-15 0)
(3 8.75823e-17 0)
(3 -1.48541e-16 0)
(3 3.09585e-16 0)
(3 5.48944e-16 0)
(3 3.2253e-16 0)
(3 4.28516e-16 0)
(3 3.71541e-17 0)
(3 -6.22384e-16 0)
(3 -9.69584e-16 0)
(3 -1.03142e-15 0)
(3 -4.23538e-16 0)
(3 4.1922e-16 0)
(3 5.34584e-16 0)
(3 5.48396e-16 0)
(3 9.01447e-16 0)
(3 1.24955e-15 0)
(3 1.46965e-15 0)
(3 1.52321e-15 0)
(3 3.60207e-16 0)
(3 -8.87823e-16 0)
(3 -1.64247e-15 0)
(3 -1.09076e-15 0)
(3 -8.25832e-16 0)
(3 -1.52031e-15 0)
(3 -3.48754e-15 0)
(3 -3.61606e-15 0)
(3 -4.00675e-15 0)
(3 -3.83171e-15 0)
(3 -2.86394e-15 0)
(3 -7.89429e-16 0)
(3 1.15509e-15 0)
(3 1.35596e-15 0)
(3 3.43882e-16 0)
(3 -5.02723e-17 0)
(3 4.86982e-17 0)
(3 1.03169e-15 0)
(3 1.537e-15 0)
(3 2.58944e-15 0)
(3 3.20652e-15 0)
(3 2.74164e-15 0)
(3 2.13123e-15 0)
(3 8.11826e-16 0)
(3 -9.03701e-17 0)
(3 -2.15339e-16 0)
(3 -5.7404e-16 0)
(3 -6.70593e-16 0)
(3 -6.26127e-16 0)
(3 -1.61043e-16 0)
(3 5.39136e-16 0)
(3 8.99132e-16 0)
(3 1.54323e-15 0)
(3 1.78409e-15 0)
(3 2.27628e-15 0)
(3 2.04033e-15 0)
(3 2.06642e-15 0)
(3 2.46819e-15 0)
(3 2.37022e-15 0)
(3 2.09181e-15 0)
(3 2.03966e-15 0)
(3 1.48416e-15 0)
(3 2.80739e-16 0)
(3 -7.48583e-16 0)
(3 -1.33935e-15 0)
(3 1.74446e-16 0)
(3 1.50032e-16 0)
(3 4.44235e-16 0)
(3 -3.14569e-16 0)
(3 9.15994e-16 0)
(3 2.35176e-15 0)
(3 2.53463e-15 0)
(3 8.20477e-16 0)
(3 -5.34714e-17 0)
(3 3.79522e-17 0)
(3 3.20821e-16 0)
(3 1.05362e-15 0)
(3 1.92026e-16 0)
(3 -6.50857e-16 0)
(3 -1.84448e-15 0)
(3 -2.25582e-15 0)
(3 -2.52449e-15 0)
(3 -3.63955e-15 0)
(3 -4.43804e-15 0)
(3 -3.37706e-15 0)
(3 -3.20014e-15 0)
(3 -2.82244e-15 0)
(3 -2.51487e-15 0)
(3 -1.57986e-15 0)
(3 1.92166e-16 0)
(3 5.40235e-16 0)
(3 2.49063e-16 0)
(3 1.5646e-16 0)
(3 4.20728e-16 0)
(3 6.29208e-16 0)
(3 4.80037e-16 0)
(3 9.74584e-16 0)
(3 8.25164e-16 0)
(3 1.44831e-16 0)
(3 -5.54474e-16 0)
(3 -5.23525e-16 0)
(3 -2.95868e-16 0)
(3 -5.03962e-17 0)
(3 2.21496e-16 0)
(3 -1.03712e-16 0)
(3 -5.0994e-16 0)
(3 -6.79843e-16 0)
(3 -3.51556e-16 0)
(3 2.87315e-16 0)
(3 8.94093e-16 0)
(3 1.7742e-15 0)
(3 2.29518e-15 0)
(3 2.24803e-15 0)
(3 2.2471e-15 0)
(3 2.69694e-15 0)
(3 1.90627e-15 0)
(3 3.21052e-16 0)
(3 1.19671e-16 0)
(3 3.52515e-16 0)
(3 6.28524e-16 0)
(3 1.59823e-16 0)
(3 -5.22113e-16 0)
(3 -2.17721e-15 0)
(3 -4.15448e-15 0)
(3 -5.56588e-15 0)
(3 -5.28531e-15 0)
(3 -3.95078e-15 0)
(3 -2.61413e-15 0)
(3 -2.09141e-15 0)
(3 -2.12244e-15 0)
(3 -2.40791e-15 0)
(3 -2.1814e-15 0)
(3 -2.37179e-15 0)
(3 -1.32614e-15 0)
(3 -6.75445e-16 0)
(3 -3.63562e-16 0)
(3 3.50261e-17 0)
(3 1.64049e-16 0)
(3 4.17826e-16 0)
(3 -5.37516e-17 0)
(3 -2.81804e-16 0)
(3 -7.00295e-16 0)
(3 -1.34269e-15 0)
(3 -1.78778e-15 0)
(3 -2.22745e-15 0)
(3 -1.98312e-15 0)
(3 -6.59862e-16 0)
(3 1.41631e-16 0)
(3 9.06914e-16 0)
(3 1.14763e-15 0)
(3 8.53343e-16 0)
(3 4.32355e-16 0)
(3 6.32978e-16 0)
(3 1.52878e-15 0)
(3 1.88078e-15 0)
(3 2.08103e-15 0)
(3 1.94143e-15 0)
(3 1.57209e-15 0)
(3 7.53049e-16 0)
(3 -9.04015e-16 0)
(3 -1.14776e-15 0)
(3 -3.52314e-16 0)
(3 9.22029e-16 0)
(3 1.18245e-15 0)
(3 1.26097e-15 0)
(3 2.08014e-15 0)
(3 2.71194e-15 0)
(3 3.26956e-15 0)
(3 2.88278e-15 0)
(3 1.68142e-15 0)
(3 5.92638e-16 0)
(3 2.98369e-16 0)
(3 1.08915e-16 0)
(3 3.55622e-16 0)
(3 2.2089e-16 0)
(3 -5.41194e-16 0)
(3 -1.42183e-15 0)
(3 -1.96809e-15 0)
(3 -2.6103e-15 0)
(3 -3.46934e-15 0)
(3 -4.30695e-15 0)
(3 -4.28368e-15 0)
(3 -3.7123e-15 0)
(3 -3.26854e-15 0)
(3 -3.08807e-15 0)
(3 7.08251e-17 0)
(3 -5.61669e-16 0)
(3 -1.06274e-15 0)
(3 -9.20139e-16 0)
(3 -1.06186e-16 0)
(3 6.26305e-16 0)
(3 -6.29256e-17 0)
(3 -4.03242e-16 0)
(3 7.23239e-19 0)
(3 1.30062e-16 0)
(3 -7.92857e-17 0)
(3 -3.36012e-16 0)
(3 3.36897e-17 0)
(3 6.9908e-16 0)
(3 7.16062e-16 0)
(3 7.51909e-16 0)
(3 7.33716e-16 0)
(3 8.79757e-16 0)
(3 9.96032e-16 0)
(3 7.38682e-16 0)
(3 6.87743e-17 0)
(3 8.8279e-16 0)
(3 1.22463e-15 0)
(3 1.30246e-15 0)
(3 7.93765e-16 0)
(3 6.96304e-16 0)
(3 1.09546e-15 0)
(3 1.24701e-15 0)
(3 1.68344e-15 0)
(3 2.94811e-15 0)
(3 2.54631e-15 0)
(3 2.01227e-15 0)
(3 6.60137e-16 0)
(3 -2.06446e-16 0)
(3 -1.99664e-15 0)
(3 -2.33772e-15 0)
(3 -2.08218e-15 0)
(3 -2.3441e-15 0)
(3 -2.46769e-15 0)
(3 -3.13965e-15 0)
(3 -3.28341e-15 0)
(3 -3.64568e-15 0)
(3 -4.04931e-15 0)
(3 -3.62901e-15 0)
(3 -3.90853e-15 0)
(3 -3.51102e-15 0)
(3 -3.20007e-15 0)
(3 -3.32077e-15 0)
(3 -2.52515e-15 0)
(3 -1.2521e-15 0)
(3 -1.68654e-16 0)
(3 -1.35675e-17 0)
(3 -8.39779e-16 0)
(3 -3.2003e-15 0)
(3 -4.31035e-15 0)
(3 -4.08917e-15 0)
(3 -3.47844e-15 0)
(3 -2.39206e-15 0)
(3 -1.11704e-15 0)
(3 -9.55845e-16 0)
(3 -6.77212e-16 0)
(3 -9.59197e-16 0)
(3 -1.25128e-15 0)
(3 -1.2886e-15 0)
(3 -9.72287e-16 0)
(3 3.62437e-17 0)
(3 -4.01605e-16 0)
(3 -5.58725e-16 0)
(3 -8.42902e-16 0)
(3 -1.32218e-15 0)
(3 -1.23776e-15 0)
(3 -6.25742e-16 0)
(3 4.55861e-16 0)
(3 1.62637e-15 0)
(3 2.02677e-15 0)
(3 2.15526e-15 0)
(3 1.92404e-15 0)
(3 1.36234e-15 0)
(3 1.60517e-15 0)
(3 1.79801e-15 0)
(3 2.24202e-15 0)
(3 2.03841e-15 0)
(3 1.54741e-15 0)
(3 2.81987e-17 0)
(3 -9.42417e-16 0)
(3 -1.12726e-15 0)
(3 -1.23746e-15 0)
(3 -1.78161e-15 0)
(3 -1.94211e-15 0)
(3 -2.4517e-15 0)
(3 -2.40183e-15 0)
(3 -2.41552e-15 0)
(3 -2.34074e-15 0)
(3 -2.23059e-15 0)
(3 -3.37893e-15 0)
(3 -3.86956e-15 0)
(3 1.41981e-17 0)
(3 9.45077e-17 0)
(3 -4.38497e-17 0)
(3 -2.16239e-16 0)
(3 -1.04373e-15 0)
(3 -1.05668e-15 0)
(3 -9.28245e-16 0)
(3 -1.66569e-15 0)
(3 -1.42524e-15 0)
(3 -4.63557e-16 0)
(3 -1.88148e-16 0)
(3 -4.08097e-16 0)
(3 -8.23271e-17 0)
(3 1.03112e-16 0)
(3 -2.05529e-16 0)
(3 2.63267e-16 0)
(3 8.29624e-16 0)
(3 1.6864e-15 0)
(3 1.45496e-15 0)
(3 6.67012e-16 0)
(3 2.97025e-16 0)
(3 5.53089e-16 0)
(3 6.27258e-16 0)
(3 3.96977e-16 0)
(3 -2.70973e-16 0)
(3 -1.11196e-15 0)
(3 -1.09517e-15 0)
(3 2.56925e-16 0)
(3 1.44294e-15 0)
(3 1.75893e-15 0)
(3 1.67955e-15 0)
(3 1.30549e-15 0)
(3 6.92771e-16 0)
(3 2.61773e-16 0)
(3 8.84613e-16 0)
(3 1.61297e-15 0)
(3 1.07518e-15 0)
(3 2.90387e-16 0)
(3 -1.60599e-15 0)
(3 -2.07845e-15 0)
(3 -2.26773e-15 0)
(3 -2.40162e-15 0)
(3 -2.55472e-15 0)
(3 -2.28921e-15 0)
(3 -2.23978e-15 0)
(3 -1.78516e-15 0)
(3 -1.51066e-15 0)
(3 -1.30647e-15 0)
(3 -1.31098e-15 0)
(3 -6.46448e-16 0)
(3 -6.77502e-17 0)
(3 -4.47926e-16 0)
(3 -2.23007e-15 0)
(3 -3.70226e-15 0)
(3 -4.24583e-15 0)
(3 -3.69389e-15 0)
(3 -3.25727e-15 0)
(3 -3.13889e-15 0)
(3 -3.03429e-15 0)
(3 -2.28882e-15 0)
(3 -2.3353e-15 0)
(3 -1.99575e-15 0)
(3 -2.62408e-15 0)
(3 -3.48507e-15 0)
(3 -4.0632e-15 0)
(3 -3.33194e-15 0)
(3 -2.75372e-15 0)
(3 -2.77845e-15 0)
(3 -2.68645e-15 0)
(3 -2.25004e-15 0)
(3 -1.95629e-15 0)
(3 -1.39725e-15 0)
(3 -1.09959e-15 0)
(3 -2.0902e-15 0)
(3 -1.07352e-15 0)
(3 7.75298e-17 0)
(3 -1.87965e-16 0)
(3 -1.77733e-16 0)
(3 -2.09565e-17 0)
(3 2.02475e-17 0)
(3 1.38427e-15 0)
(3 2.97137e-15 0)
(3 3.26454e-15 0)
(3 1.88987e-15 0)
(3 1.36556e-16 0)
(3 -8.73995e-17 0)
(3 -1.49074e-16 0)
(3 1.5752e-16 0)
(3 6.48287e-16 0)
(3 1.77337e-16 0)
(3 -2.43673e-16 0)
(3 -3.91901e-16 0)
(3 -1.00391e-15 0)
(3 -1.79742e-15 0)
(3 -2.5798e-15 0)
(3 -3.2721e-15 0)
(3 -5.0991e-18 0)
(3 8.37098e-17 0)
(3 -3.22707e-16 0)
(3 -6.99726e-16 0)
(3 -1.7127e-15 0)
(3 -1.48172e-15 0)
(3 -8.02712e-16 0)
(3 -1.77812e-16 0)
(3 -1.55247e-16 0)
(3 6.55088e-17 0)
(3 2.25879e-16 0)
(3 -1.932e-16 0)
(3 -5.73315e-16 0)
(3 -5.48674e-16 0)
(3 -6.34937e-16 0)
(3 -4.5607e-16 0)
(3 1.25421e-17 0)
(3 -1.20837e-17 0)
(3 -1.30942e-16 0)
(3 -1.67718e-16 0)
(3 -1.66295e-17 0)
(3 -1.65921e-16 0)
(3 3.1026e-16 0)
(3 8.21256e-16 0)
(3 9.08473e-16 0)
(3 1.05698e-15 0)
(3 1.31289e-15 0)
(3 1.97054e-15 0)
(3 1.89729e-15 0)
(3 1.45883e-15 0)
(3 9.42025e-16 0)
(3 5.53943e-16 0)
(3 4.02235e-16 0)
(3 9.70934e-16 0)
(3 1.28402e-15 0)
(3 1.19494e-15 0)
(3 2.23364e-16 0)
(3 -3.78964e-16 0)
(3 -6.08151e-16 0)
(3 -3.25647e-16 0)
(3 -1.09542e-15 0)
(3 -1.23323e-15 0)
(3 -1.81057e-15 0)
(3 -2.57507e-15 0)
(3 -2.01108e-15 0)
(3 -1.57246e-15 0)
(3 -1.38389e-15 0)
(3 -1.17758e-15 0)
(3 -8.92906e-16 0)
(3 -7.48995e-16 0)
(3 -7.86401e-16 0)
(3 -1.35861e-15 0)
(3 -1.87165e-15 0)
(3 -1.61298e-15 0)
(3 -1.68653e-15 0)
(3 -1.6494e-15 0)
(3 -2.16291e-15 0)
(3 -2.59925e-15 0)
(3 -3.17009e-15 0)
(3 -4.03174e-15 0)
(3 -4.56028e-15 0)
(3 -4.29654e-15 0)
(3 -3.69064e-15 0)
(3 -3.56235e-15 0)
(3 -4.07934e-15 0)
(3 -4.78505e-15 0)
(3 -4.13611e-15 0)
(3 -3.21291e-15 0)
(3 -6.61755e-16 0)
(3 1.07489e-15 0)
(3 1.00961e-15 0)
(3 -1.21713e-15 0)
(3 -3.87163e-15 0)
(3 -3.53017e-15 0)
(3 -3.0651e-15 0)
(3 -1.4308e-15 0)
(3 2.94886e-16 0)
(3 3.73317e-16 0)
(3 -1.03516e-17 0)
(3 -4.44419e-16 0)
(3 -1.00995e-15 0)
(3 -4.34078e-16 0)
(3 -2.59039e-17 0)
(3 -2.04429e-16 0)
(3 -6.52175e-16 0)
(3 -1.1138e-15 0)
(3 -5.22723e-16 0)
(3 1.13964e-15 0)
(3 2.16408e-15 0)
(3 2.06939e-15 0)
(3 1.71437e-15 0)
(3 6.24389e-16 0)
(3 -1.22194e-15 0)
(3 -2.07269e-15 0)
(3 -1.08098e-15 0)
(3 -3.92717e-16 0)
(3 -1.46434e-17 0)
(3 1.19074e-16 0)
(3 1.48392e-16 0)
(3 -1.13357e-16 0)
(3 2.08678e-16 0)
(3 2.56004e-16 0)
(3 3.60294e-16 0)
(3 1.58402e-15 0)
(3 1.35622e-15 0)
(3 3.41415e-16 0)
(3 -4.14335e-17 0)
(3 -2.84876e-16 0)
(3 -6.56074e-16 0)
(3 2.1894e-16 0)
(3 7.06495e-16 0)
(3 7.6157e-16 0)
(3 5.19689e-16 0)
(3 -3.84207e-16 0)
(3 -1.20102e-15 0)
(3 -7.51894e-16 0)
(3 -4.24404e-16 0)
(3 -2.27387e-16 0)
(3 2.70353e-16 0)
(3 1.37355e-15 0)
(3 2.56517e-15 0)
(3 3.24724e-15 0)
(3 4.41063e-15 0)
(3 3.89602e-15 0)
(3 2.96415e-15 0)
(3 1.75953e-15 0)
(3 7.95632e-16 0)
(3 2.90209e-16 0)
(3 1.07768e-16 0)
(3 3.90211e-16 0)
(3 4.67986e-16 0)
(3 3.95107e-16 0)
(3 2.87188e-16 0)
(3 4.21685e-16 0)
(3 1.66708e-15 0)
(3 2.12106e-15 0)
(3 1.59335e-15 0)
(3 1.07525e-15 0)
(3 1.7437e-16 0)
(3 -2.69036e-16 0)
(3 -7.99328e-16 0)
(3 -1.70718e-15 0)
(3 -2.36837e-15 0)
(3 -2.71946e-15 0)
(3 -2.33439e-15 0)
(3 -2.44636e-15 0)
(3 -2.46186e-15 0)
(3 -2.06802e-15 0)
(3 -1.37228e-15 0)
(3 -6.37039e-16 0)
(3 -4.87725e-16 0)
(3 -5.84813e-16 0)
(3 5.2014e-16 0)
(3 -3.38904e-16 0)
(3 -9.34908e-16 0)
(3 -1.59123e-15 0)
(3 -2.36077e-15 0)
(3 -3.02191e-15 0)
(3 -3.40598e-15 0)
(3 -3.79977e-15 0)
(3 -3.77735e-15 0)
(3 -3.73387e-15 0)
(3 -3.04681e-15 0)
(3 -1.68404e-15 0)
(3 3.42252e-17 0)
(3 1.3731e-15 0)
(3 1.53089e-15 0)
(3 1.18048e-15 0)
(3 -6.17909e-16 0)
(3 -2.24625e-15 0)
(3 -2.66292e-15 0)
(3 -2.96077e-15 0)
(3 -2.73505e-15 0)
(3 -1.12042e-15 0)
(3 4.43298e-17 0)
(3 -2.17441e-16 0)
(3 -6.01365e-16 0)
(3 -2.14537e-15 0)
(3 -2.776e-15 0)
(3 -1.94225e-15 0)
(3 -1.3617e-15 0)
(3 -4.3667e-16 0)
(3 2.27392e-16 0)
(3 8.43578e-16 0)
(3 1.36292e-15 0)
(3 1.3001e-15 0)
(3 9.18949e-16 0)
(3 6.76027e-16 0)
(3 -6.53804e-16 0)
(3 -7.91005e-16 0)
(3 1.56581e-15 0)
(3 2.18185e-15 0)
(3 1.77387e-16 0)
(3 7.92033e-16 0)
(3 8.94659e-16 0)
(3 8.34597e-16 0)
(3 7.36e-16 0)
(3 5.27593e-16 0)
(3 3.66758e-16 0)
(3 6.49425e-16 0)
(3 7.61685e-16 0)
(3 9.29279e-16 0)
(3 3.48441e-16 0)
(3 7.0039e-16 0)
(3 8.60467e-16 0)
(3 1.08315e-15 0)
(3 1.75998e-15 0)
(3 1.8875e-15 0)
(3 1.68235e-15 0)
(3 1.12101e-15 0)
(3 9.71702e-16 0)
(3 6.38325e-16 0)
(3 6.09228e-16 0)
(3 1.03234e-15 0)
(3 -6.39255e-17 0)
(3 2.27872e-16 0)
(3 8.53185e-16 0)
(3 2.14359e-15 0)
(3 2.62301e-15 0)
(3 3.18985e-15 0)
(3 2.87987e-15 0)
(3 1.95056e-15 0)
(3 1.06603e-15 0)
(3 3.54586e-16 0)
(3 5.11723e-16 0)
(3 8.8595e-16 0)
(3 1.10009e-15 0)
(3 1.11578e-15 0)
(3 1.6527e-15 0)
(3 1.57523e-15 0)
(3 1.57684e-15 0)
(3 1.66974e-15 0)
(3 1.5137e-15 0)
(3 1.55169e-15 0)
(3 1.96015e-15 0)
(3 2.18995e-15 0)
(3 5.96222e-16 0)
(3 3.183e-17 0)
(3 -8.68073e-16 0)
(3 -1.38806e-15 0)
(3 -1.70048e-15 0)
(3 -2.05065e-15 0)
(3 -2.37708e-15 0)
(3 -2.37087e-15 0)
(3 -2.00599e-15 0)
(3 -7.10312e-16 0)
(3 1.35357e-15 0)
(3 1.16073e-15 0)
(3 1.35889e-15 0)
(3 1.94071e-15 0)
(3 1.51164e-15 0)
(3 1.35313e-15 0)
(3 4.19402e-17 0)
(3 -1.70635e-15 0)
(3 -2.53979e-15 0)
(3 -2.57579e-15 0)
(3 -1.88293e-15 0)
(3 -2.00661e-15 0)
(3 -1.72012e-15 0)
(3 -1.34431e-15 0)
(3 -2.51697e-16 0)
(3 6.20894e-16 0)
(3 8.40777e-16 0)
(3 5.09319e-16 0)
(3 1.65748e-16 0)
(3 -1.44316e-15 0)
(3 -2.25708e-15 0)
(3 -2.72644e-15 0)
(3 -2.76488e-15 0)
(3 -2.47363e-15 0)
(3 -2.01674e-15 0)
(3 -1.75666e-15 0)
(3 -1.47744e-15 0)
(3 -1.5972e-15 0)
(3 -1.17942e-15 0)
(3 -4.17311e-16 0)
(3 -3.13935e-16 0)
(3 1.51292e-16 0)
(3 -4.01122e-16 0)
(3 -1.50158e-15 0)
(3 -1.59134e-15 0)
(3 -1.09064e-15 0)
(3 -4.61865e-16 0)
(3 1.45139e-16 0)
(3 1.15807e-15 0)
(3 2.23876e-15 0)
(3 2.02788e-15 0)
(3 1.17237e-15 0)
(3 -6.29358e-17 0)
(3 -2.37645e-16 0)
(3 -4.90886e-16 0)
(3 -8.41818e-16 0)
(3 -1.37625e-15 0)
(3 -1.18842e-15 0)
(3 -1.06561e-15 0)
(3 -1.55274e-15 0)
(3 -5.56285e-16 0)
(3 2.26848e-16 0)
(3 8.53767e-16 0)
(3 1.04588e-15 0)
(3 8.95473e-16 0)
(3 6.34258e-16 0)
(3 3.60671e-16 0)
(3 9.20256e-17 0)
(3 2.61983e-16 0)
(3 5.36073e-16 0)
(3 7.63105e-16 0)
(3 3.54735e-16 0)
(3 7.30681e-16 0)
(3 3.82686e-16 0)
(3 -3.08605e-17 0)
(3 -8.77844e-16 0)
(3 -1.18019e-15 0)
(3 -1.16916e-15 0)
(3 -9.8084e-16 0)
(3 1.27178e-16 0)
(3 3.25319e-16 0)
(3 1.60903e-16 0)
(3 6.22069e-16 0)
(3 9.19727e-16 0)
(3 1.36179e-15 0)
(3 1.47382e-15 0)
(3 2.09417e-15 0)
(3 2.48221e-15 0)
(3 1.5735e-15 0)
(3 1.56398e-15 0)
(3 1.06428e-15 0)
(3 9.38492e-16 0)
(3 1.74726e-15 0)
(3 1.62466e-15 0)
(3 1.32946e-15 0)
(3 1.44745e-15 0)
(3 1.3735e-15 0)
(3 1.13803e-15 0)
(3 9.98869e-16 0)
(3 9.26726e-16 0)
(3 9.17624e-16 0)
(3 9.62451e-16 0)
(3 3.5381e-16 0)
(3 3.48961e-16 0)
(3 7.32543e-16 0)
(3 1.14007e-15 0)
(3 2.36154e-15 0)