/*--------------------------------*- C++ -*----------------------------------*\
  =========                 |
  \\      /  F ield         | OpenFOAM: The Open Source CFD Toolbox
   \\    /   O peration     | Website:  https://openfoam.org
    \\  /    A nd           | Version:  7
     \\/     M anipulation  |
\*---------------------------------------------------------------------------*/
FoamFile
{
    version     2.0;
    format      ascii;
    class       volVectorField;
    location    "0.4";
    object      U;
}
// * * * * * * * * * * * * * * * * * * * * * * * * * * * * * * * * * * * * * //

dimensions      [0 1 -1 0 0 0 0];

internalField   nonuniform List<vector> 
73728
(
(3 1.23796e-16 0)
(3 -3.79424e-17 0)
(3 -3.18859e-16 0)
(3 -5.99582e-16 0)
(3 -6.07674e-16 0)
(3 -3.79397e-16 0)
(3 -3.74438e-16 0)
(3 -2.23369e-16 0)
(3 6.16046e-17 0)
(3 2.83411e-16 0)
(3 3.16726e-16 0)
(3 -1.37517e-16 0)
(3 1.32376e-16 0)
(3 4.95877e-16 0)
(3 1.00301e-15 0)
(3 -7.54101e-16 0)
(3 -1.42074e-15 0)
(3 -1.55067e-15 0)
(3 -1.99429e-15 0)
(3 -1.445e-15 0)
(3 4.74183e-17 0)
(3 1.16414e-16 0)
(3 -7.17802e-16 0)
(3 1.05325e-17 0)
(3 1.34278e-15 0)
(3 1.35676e-15 0)
(3 9.55838e-16 0)
(3 -7.90098e-17 0)
(3 -1.76482e-15 0)
(3 -8.99181e-16 0)
(3 -2.10628e-16 0)
(3 -2.16491e-16 0)
(3 -2.01899e-16 0)
(3 -1.60743e-17 0)
(3 -6.0764e-16 0)
(3 -8.2308e-16 0)
(3 1.28661e-16 0)
(3 5.22116e-16 0)
(3 3.84728e-16 0)
(3 2.2856e-16 0)
(3 -2.60548e-16 0)
(3 -1.21486e-15 0)
(3 -1.18372e-15 0)
(3 -1.18639e-15 0)
(3 -5.11095e-16 0)
(3 3.64069e-16 0)
(3 1.05846e-15 0)
(3 6.15538e-16 0)
(3 2.52993e-16 0)
(3 -7.96619e-16 0)
(3 -9.56088e-16 0)
(3 -1.06907e-15 0)
(3 -1.49455e-15 0)
(3 -7.29367e-16 0)
(3 -1.57608e-16 0)
(3 -1.51229e-16 0)
(3 6.1178e-16 0)
(3 6.8899e-16 0)
(3 6.55909e-16 0)
(3 5.20409e-16 0)
(3 4.85961e-16 0)
(3 7.88755e-16 0)
(3 2.26206e-15 0)
(3 1.55403e-15 0)
(3 8.6192e-16 0)
(3 2.42767e-16 0)
(3 2.58527e-16 0)
(3 5.03697e-16 0)
(3 1.10509e-15 0)
(3 8.87875e-16 0)
(3 1.00629e-16 0)
(3 1.01724e-17 0)
(3 -1.6684e-16 0)
(3 -8.17024e-16 0)
(3 -1.60798e-15 0)
(3 -1.71807e-15 0)
(3 -9.68968e-16 0)
(3 -7.08211e-16 0)
(3 -3.15963e-16 0)
(3 2.10557e-16 0)
(3 4.37107e-16 0)
(3 6.94247e-16 0)
(3 1.3195e-15 0)
(3 7.22082e-16 0)
(3 -9.74218e-17 0)
(3 -1.07555e-15 0)
(3 6.40945e-16 0)
(3 1.26693e-15 0)
(3 -5.51413e-16 0)
(3 -2.11712e-16 0)
(3 2.09728e-15 0)
(3 2.01883e-15 0)
(3 1.04217e-15 0)
(3 -1.2584e-15 0)
(3 -1.83658e-15 0)
(3 2.49264e-15 0)
(3 2.30254e-16 0)
(3 -3.3331e-16 0)
(3 -1.52379e-15 0)
(3 -1.64058e-15 0)
(3 -1.21812e-15 0)
(3 -9.47989e-16 0)
(3 -1.23639e-15 0)
(3 -1.11216e-15 0)
(3 -9.93947e-16 0)
(3 -1.14494e-15 0)
(3 -7.94602e-16 0)
(3 -1.66138e-16 0)
(3 -4.93507e-17 0)
(3 9.80935e-16 0)
(3 1.23734e-15 0)
(3 -6.27983e-16 0)
(3 -9.65254e-16 0)
(3 -1.17314e-15 0)
(3 -1.44435e-15 0)
(3 -1.09381e-15 0)
(3 7.54621e-16 0)
(3 2.24865e-16 0)
(3 -6.73521e-16 0)
(3 -2.75579e-16 0)
(3 1.78344e-15 0)
(3 2.06876e-15 0)
(3 1.60957e-15 0)
(3 -5.07591e-16 0)
(3 -2.11782e-15 0)
(3 -1.69069e-15 0)
(3 5.69801e-17 0)
(3 -4.25438e-16 0)
(3 -1.53761e-15 0)
(3 -1.45592e-15 0)
(3 -1.27561e-15 0)
(3 5.03128e-16 0)
(3 7.09542e-16 0)
(3 2.0703e-16 0)
(3 -1.35294e-16 0)
(3 -1.43083e-15 0)
(3 -1.98355e-15 0)
(3 -2.98804e-15 0)
(3 -2.05641e-15 0)
(3 -1.00355e-15 0)
(3 -6.08371e-16 0)
(3 3.23928e-16 0)
(3 8.52829e-16 0)
(3 9.35252e-16 0)
(3 6.98148e-16 0)
(3 7.99234e-17 0)
(3 -9.70542e-16 0)
(3 -1.7178e-15 0)
(3 -1.92741e-15 0)
(3 -7.45339e-16 0)
(3 3.93201e-16 0)
(3 8.36934e-16 0)
(3 9.85047e-16 0)
(3 5.23675e-16 0)
(3 8.05304e-16 0)
(3 1.80116e-15 0)
(3 2.31781e-15 0)
(3 3.80107e-15 0)
(3 4.97978e-15 0)
(3 3.72839e-15 0)
(3 3.09815e-15 0)
(3 1.22936e-15 0)
(3 1.48172e-15 0)
(3 1.29849e-15 0)
(3 2.17e-15 0)
(3 2.2888e-15 0)
(3 1.08056e-15 0)
(3 -9.94626e-16 0)
(3 -1.41581e-15 0)
(3 -3.48552e-15 0)
(3 -5.10725e-15 0)
(3 -4.85794e-15 0)
(3 -2.89964e-15 0)
(3 -1.26858e-15 0)
(3 -6.78833e-16 0)
(3 1.109e-16 0)
(3 4.30773e-16 0)
(3 4.16418e-16 0)
(3 1.47571e-15 0)
(3 2.89357e-16 0)
(3 -1.42475e-15 0)
(3 -1.80315e-15 0)
(3 -1.7858e-16 0)
(3 9.99204e-16 0)
(3 -6.61179e-16 0)
(3 2.88881e-16 0)
(3 1.55012e-15 0)
(3 1.44595e-15 0)
(3 3.99731e-16 0)
(3 -2.8461e-16 0)
(3 9.01488e-16 0)
(3 3.30649e-15 0)
(3 5.03254e-20 0)
(3 1.25218e-16 0)
(3 -2.60762e-16 0)
(3 -6.87867e-16 0)
(3 -6.16404e-16 0)
(3 -6.38933e-16 0)
(3 -3.64328e-16 0)
(3 -6.43389e-16 0)
(3 -9.22445e-16 0)
(3 -4.62996e-16 0)
(3 -6.98495e-16 0)
(3 2.58823e-16 0)
(3 1.37476e-15 0)
(3 2.04058e-15 0)
(3 1.68551e-15 0)
(3 1.32375e-15 0)
(3 4.90825e-16 0)
(3 -5.14283e-16 0)
(3 -1.87503e-15 0)
(3 -4.22549e-16 0)
(3 1.73641e-15 0)
(3 1.42551e-15 0)
(3 4.14579e-16 0)
(3 -2.43747e-17 0)
(3 1.39862e-15 0)
(3 1.13453e-15 0)
(3 2.66894e-16 0)
(3 -1.33075e-15 0)
(3 -2.37e-15 0)
(3 -2.4026e-15 0)
(3 -2.24834e-15 0)
(3 -2.00086e-15 0)
(3 -5.8408e-16 0)
(3 4.58386e-16 0)
(3 1.88742e-15 0)
(3 2.29094e-15 0)
(3 1.62365e-15 0)
(3 1.17653e-16 0)
(3 -3.7846e-16 0)
(3 3.208e-16 0)
(3 5.2806e-16 0)
(3 -1.1909e-15 0)
(3 -2.50365e-16 0)
(3 5.9849e-16 0)
(3 4.18187e-16 0)
(3 9.64324e-16 0)
(3 1.34773e-15 0)
(3 1.42912e-15 0)
(3 1.11178e-15 0)
(3 7.58493e-16 0)
(3 1.38928e-16 0)
(3 -1.5805e-15 0)
(3 -2.10816e-15 0)
(3 -2.28316e-15 0)
(3 -1.61874e-15 0)
(3 -6.52142e-16 0)
(3 -3.32195e-16 0)
(3 -6.26926e-16 0)
(3 1.74744e-16 0)
(3 1.38684e-15 0)
(3 3.64573e-15 0)
(3 5.6278e-15 0)
(3 3.35451e-15 0)
(3 6.3331e-16 0)
(3 -1.20102e-16 0)
(3 2.46988e-16 0)
(3 3.43343e-16 0)
(3 4.78094e-16 0)
(3 7.39778e-16 0)
(3 7.19742e-16 0)
(3 8.15235e-16 0)
(3 -4.993e-16 0)
(3 -1.7719e-15 0)
(3 -3.12154e-15 0)
(3 -3.22978e-15 0)
(3 -3.47711e-15 0)
(3 -1.29744e-15 0)
(3 1.23005e-16 0)
(3 6.24804e-16 0)
(3 8.22569e-16 0)
(3 1.41913e-15 0)
(3 2.89729e-15 0)
(3 4.29298e-15 0)
(3 1.80657e-15 0)
(3 -4.13381e-16 0)
(3 -1.38151e-15 0)
(3 -1.90348e-15 0)
(3 -8.60929e-16 0)
(3 -1.61686e-16 0)
(3 1.11711e-17 0)
(3 1.00544e-15 0)
(3 7.75213e-16 0)
(3 7.32044e-16 0)
(3 6.10762e-16 0)
(3 1.70759e-15 0)
(3 1.99458e-15 0)
(3 -1.13005e-16 0)
(3 -6.00601e-17 0)
(3 8.59839e-16 0)
(3 1.0883e-15 0)
(3 1.14514e-15 0)
(3 7.20006e-16 0)
(3 8.78891e-16 0)
(3 5.25453e-17 0)
(3 4.25881e-16 0)
(3 9.43713e-16 0)
(3 1.0409e-15 0)
(3 8.76111e-16 0)
(3 1.91094e-15 0)
(3 2.7238e-15 0)
(3 2.44219e-15 0)
(3 1.87263e-15 0)
(3 7.38472e-16 0)
(3 -9.07268e-16 0)
(3 -1.29959e-15 0)
(3 -5.12439e-16 0)
(3 1.12502e-15 0)
(3 2.14293e-15 0)
(3 1.55873e-15 0)
(3 4.40157e-16 0)
(3 -6.88011e-18 0)
(3 9.14238e-17 0)
(3 1.71504e-16 0)
(3 -5.30639e-16 0)
(3 -9.27326e-16 0)
(3 -1.61168e-15 0)
(3 -2.36335e-15 0)
(3 -1.79316e-15 0)
(3 -1.3192e-15 0)
(3 3.46865e-16 0)
(3 1.93041e-15 0)
(3 1.40518e-15 0)
(3 3.98656e-16 0)
(3 -5.74853e-16 0)
(3 -7.13195e-16 0)
(3 8.97362e-16 0)
(3 1.48606e-15 0)
(3 -4.54514e-16 0)
(3 -1.83552e-16 0)
(3 7.97773e-16 0)
(3 1.31534e-15 0)
(3 1.92474e-15 0)
(3 2.06094e-15 0)
(3 9.44314e-16 0)
(3 6.38876e-16 0)
(3 2.4458e-16 0)
(3 -3.5049e-16 0)
(3 -7.64115e-16 0)
(3 -1.12656e-15 0)
(3 -1.42626e-15 0)
(3 -1.40427e-15 0)
(3 -1.42447e-15 0)
(3 -8.785e-16 0)
(3 -7.3088e-17 0)
(3 -4.01143e-16 0)
(3 2.5834e-16 0)
(3 1.6834e-15 0)
(3 2.68757e-15 0)
(3 1.47204e-15 0)
(3 -9.49335e-16 0)
(3 -2.60956e-15 0)
(3 -3.66864e-15 0)
(3 -9.53529e-16 0)
(3 2.97189e-16 0)
(3 1.98589e-16 0)
(3 1.70706e-16 0)
(3 -2.65256e-16 0)
(3 -1.00912e-15 0)
(3 -2.02312e-15 0)
(3 -1.44837e-15 0)
(3 -4.15609e-16 0)
(3 2.04558e-17 0)
(3 1.46803e-15 0)
(3 2.52917e-15 0)
(3 3.25564e-15 0)
(3 2.6758e-15 0)
(3 3.45229e-15 0)
(3 6.21921e-15 0)
(3 7.378e-15 0)
(3 4.92947e-15 0)
(3 1.66333e-15 0)
(3 -1.0698e-15 0)
(3 -3.21524e-15 0)
(3 -1.88373e-15 0)
(3 5.15698e-16 0)
(3 9.10819e-16 0)
(3 1.19479e-15 0)
(3 1.33011e-15 0)
(3 8.49529e-16 0)
(3 4.17544e-16 0)
(3 1.99942e-16 0)
(3 1.41595e-15 0)
(3 5.50203e-18 0)
(3 1.19977e-16 0)
(3 4.81445e-16 0)
(3 6.47154e-16 0)
(3 5.39684e-16 0)
(3 4.30883e-16 0)
(3 2.43141e-16 0)
(3 1.96711e-17 0)
(3 4.02447e-16 0)
(3 4.16834e-16 0)
(3 7.09534e-16 0)
(3 1.20472e-15 0)
(3 2.12047e-15 0)
(3 3.61693e-15 0)
(3 4.37423e-15 0)
(3 2.99241e-15 0)
(3 1.65455e-15 0)
(3 7.6657e-16 0)
(3 3.06747e-16 0)
(3 -1.02143e-16 0)
(3 5.58293e-17 0)
(3 1.06177e-15 0)
(3 1.05396e-15 0)
(3 -3.97804e-16 0)
(3 -1.04444e-15 0)
(3 -1.32901e-15 0)
(3 -8.91945e-17 0)
(3 4.28312e-16 0)
(3 6.90864e-16 0)
(3 5.43299e-16 0)
(3 7.69589e-16 0)
(3 1.44148e-15 0)
(3 1.17599e-15 0)
(3 9.30229e-16 0)
(3 1.09763e-15 0)
(3 1.61954e-15 0)
(3 1.26322e-15 0)
(3 7.68243e-16 0)
(3 8.71525e-16 0)
(3 5.9133e-16 0)
(3 -6.61593e-16 0)
(3 -2.1392e-15 0)
(3 -1.2455e-15 0)
(3 5.49864e-17 0)
(3 1.85126e-15 0)
(3 2.25535e-15 0)
(3 2.43123e-15 0)
(3 2.80232e-15 0)
(3 3.10919e-15 0)
(3 2.83592e-15 0)
(3 1.21385e-15 0)
(3 3.56075e-16 0)
(3 -9.9116e-16 0)
(3 -1.44843e-15 0)
(3 -1.87294e-15 0)
(3 -1.34009e-15 0)
(3 -4.89144e-16 0)
(3 1.05171e-15 0)
(3 1.10867e-15 0)
(3 -7.63358e-16 0)
(3 -1.83945e-15 0)
(3 -2.74055e-16 0)
(3 7.33657e-16 0)
(3 -2.73139e-15 0)
(3 -4.54091e-15 0)
(3 -5.10518e-15 0)
(3 -4.14628e-15 0)
(3 -1.35755e-15 0)
(3 -1.01865e-15 0)
(3 -1.6116e-15 0)
(3 -2.01463e-15 0)
(3 -2.01447e-15 0)
(3 -8.55298e-16 0)
(3 -4.93708e-16 0)
(3 1.81007e-15 0)
(3 2.96404e-15 0)
(3 4.71807e-15 0)
(3 5.303e-15 0)
(3 4.89114e-15 0)
(3 5.07338e-15 0)
(3 6.03102e-15 0)
(3 6.60746e-15 0)
(3 6.41515e-15 0)
(3 6.1822e-15 0)
(3 5.70362e-15 0)
(3 2.8631e-15 0)
(3 4.76067e-16 0)
(3 3.20129e-16 0)
(3 1.55178e-15 0)
(3 1.3436e-15 0)
(3 7.54831e-16 0)
(3 2.33057e-16 0)
(3 5.13581e-16 0)
(3 1.03246e-16 0)
(3 -4.45311e-16 0)
(3 1.0342e-15 0)
(3 -1.86357e-18 0)
(3 1.29184e-16 0)
(3 3.18106e-16 0)
(3 4.16585e-16 0)
(3 1.27817e-16 0)
(3 -3.82799e-18 0)
(3 -4.86769e-19 0)
(3 1.43325e-16 0)
(3 2.13661e-16 0)
(3 1.58294e-16 0)
(3 5.59022e-16 0)
(3 9.97976e-16 0)
(3 1.8358e-15 0)
(3 3.1799e-15 0)
(3 4.81187e-15 0)
(3 3.90545e-15 0)
(3 1.98988e-15 0)
(3 1.30832e-15 0)
(3 7.53187e-16 0)
(3 9.83189e-16 0)
(3 7.98915e-16 0)
(3 1.48703e-15 0)
(3 1.92776e-15 0)
(3 1.6266e-15 0)
(3 2.83064e-17 0)
(3 -1.41605e-15 0)
(3 -1.62953e-15 0)
(3 -4.71232e-16 0)
(3 1.14722e-15 0)
(3 3.08887e-15 0)
(3 4.11058e-15 0)
(3 1.74242e-15 0)
(3 9.63881e-16 0)
(3 2.88533e-16 0)
(3 1.16488e-15 0)
(3 1.79221e-15 0)
(3 2.4784e-15 0)
(3 3.22664e-15 0)
(3 2.68116e-15 0)
(3 3.22234e-16 0)
(3 -1.60478e-15 0)
(3 -1.4546e-15 0)
(3 -1.62994e-15 0)
(3 5.19514e-17 0)
(3 1.20091e-15 0)
(3 1.96071e-15 0)
(3 2.24849e-15 0)
(3 2.68683e-15 0)
(3 2.98977e-15 0)
(3 3.11346e-15 0)
(3 2.22329e-15 0)
(3 1.11101e-15 0)
(3 -3.44314e-16 0)
(3 -4.29708e-16 0)
(3 2.76501e-16 0)
(3 1.79486e-15 0)
(3 6.69206e-16 0)
(3 1.93227e-16 0)
(3 -4.19894e-17 0)
(3 -8.40894e-16 0)
(3 -1.59771e-15 0)
(3 -5.97733e-16 0)
(3 -2.23694e-16 0)
(3 -3.98644e-15 0)
(3 -5.04849e-15 0)
(3 -6.03504e-15 0)
(3 -5.55637e-15 0)
(3 -3.94931e-15 0)
(3 -2.93709e-15 0)
(3 -3.06707e-15 0)
(3 -2.30364e-15 0)
(3 -7.4418e-16 0)
(3 3.83865e-15 0)
(3 4.45152e-15 0)
(3 4.71731e-15 0)
(3 5.42186e-15 0)
(3 4.30159e-15 0)
(3 4.47564e-15 0)
(3 3.87039e-15 0)
(3 3.84421e-15 0)
(3 4.84553e-15 0)
(3 5.51826e-15 0)
(3 6.12594e-15 0)
(3 5.84851e-15 0)
(3 5.61661e-15 0)
(3 4.65407e-15 0)
(3 3.08724e-15 0)
(3 1.54027e-15 0)
(3 1.21987e-15 0)
(3 1.30793e-15 0)
(3 1.44568e-15 0)
(3 1.40247e-15 0)
(3 9.20886e-16 0)
(3 -1.70206e-16 0)
(3 -5.12424e-16 0)
(3 6.20374e-16 0)
(3 3.75828e-17 0)
(3 -1.92436e-16 0)
(3 -1.90899e-16 0)
(3 4.15717e-16 0)
(3 4.18128e-16 0)
(3 1.82177e-16 0)
(3 3.05679e-16 0)
(3 8.97329e-16 0)
(3 1.4906e-16 0)
(3 2.87098e-16 0)
(3 5.8298e-16 0)
(3 8.60743e-16 0)
(3 6.23247e-16 0)
(3 5.78521e-16 0)
(3 1.09173e-15 0)
(3 4.76306e-16 0)
(3 2.12783e-16 0)
(3 2.62217e-16 0)
(3 7.14226e-16 0)
(3 1.24289e-15 0)
(3 1.69314e-15 0)
(3 1.27265e-15 0)
(3 1.17114e-15 0)
(3 1.52684e-15 0)
(3 7.5667e-16 0)
(3 -7.76598e-16 0)
(3 -1.7806e-15 0)
(3 -1.14313e-15 0)
(3 4.7264e-16 0)
(3 2.27633e-15 0)
(3 2.44984e-15 0)
(3 1.59837e-15 0)
(3 -6.40246e-16 0)
(3 1.08414e-17 0)
(3 7.79068e-16 0)
(3 1.13299e-15 0)
(3 2.02893e-15 0)
(3 2.46432e-15 0)
(3 1.43668e-15 0)
(3 -6.63371e-16 0)
(3 -2.23602e-15 0)
(3 -1.1842e-15 0)
(3 -1.27689e-15 0)
(3 4.61297e-16 0)
(3 1.47308e-15 0)
(3 1.87657e-15 0)
(3 1.10509e-15 0)
(3 9.81459e-16 0)
(3 1.31662e-15 0)
(3 2.62035e-15 0)
(3 3.41931e-15 0)
(3 2.14181e-15 0)
(3 1.42397e-15 0)
(3 9.24907e-16 0)
(3 2.57315e-15 0)
(3 3.96642e-15 0)
(3 1.33881e-15 0)
(3 2.36907e-16 0)
(3 2.20256e-16 0)
(3 6.08809e-16 0)
(3 5.74199e-16 0)
(3 1.9733e-16 0)
(3 9.86972e-17 0)
(3 -9.29395e-16 0)
(3 -3.49842e-15 0)
(3 -3.83947e-15 0)
(3 -4.22822e-15 0)
(3 -4.46173e-15 0)
(3 -4.14602e-15 0)
(3 -4.04368e-15 0)
(3 -2.28259e-15 0)
(3 1.7206e-15 0)
(3 3.93335e-15 0)
(3 3.70457e-15 0)
(3 3.79716e-15 0)
(3 3.63219e-15 0)
(3 2.40613e-15 0)
(3 2.27494e-15 0)
(3 2.7214e-15 0)
(3 2.94082e-15 0)
(3 3.77074e-15 0)
(3 4.23987e-15 0)
(3 4.49648e-15 0)
(3 3.74147e-15 0)
(3 3.2618e-15 0)
(3 3.929e-15 0)
(3 3.10658e-15 0)
(3 2.56111e-15 0)
(3 2.70709e-15 0)
(3 3.04647e-15 0)
(3 2.98521e-15 0)
(3 2.40653e-15 0)
(3 1.12853e-15 0)
(3 9.67764e-16 0)
(3 -1.36647e-15 0)
(3 -2.21291e-15 0)
(3 1.13995e-16 0)
(3 -3.92923e-16 0)
(3 -2.58658e-16 0)
(3 7.97649e-17 0)
(3 2.25521e-16 0)
(3 3.42227e-16 0)
(3 5.74058e-16 0)
(3 2.00915e-15 0)
(3 1.89715e-15 0)
(3 1.67867e-15 0)
(3 8.23924e-16 0)
(3 5.80521e-16 0)
(3 -1.28011e-16 0)
(3 -7.70826e-16 0)
(3 -1.41867e-15 0)
(3 -2.01137e-15 0)
(3 -1.53786e-15 0)
(3 -3.56546e-16 0)
(3 4.9803e-16 0)
(3 3.64794e-16 0)
(3 8.92151e-17 0)
(3 -1.0144e-16 0)
(3 1.14064e-16 0)
(3 7.07759e-16 0)
(3 6.78208e-16 0)
(3 -9.46624e-17 0)
(3 2.36246e-17 0)
(3 -7.94221e-17 0)
(3 1.66834e-16 0)
(3 5.47794e-16 0)
(3 1.20323e-15 0)
(3 2.13816e-15 0)
(3 1.76655e-15 0)
(3 8.56032e-16 0)
(3 -1.41046e-16 0)
(3 -4.86629e-16 0)
(3 6.75783e-16 0)
(3 1.61798e-15 0)
(3 7.91544e-16 0)
(3 7.19892e-16 0)
(3 -1.24558e-15 0)
(3 -1.79562e-15 0)
(3 -1.00915e-15 0)
(3 6.386e-16 0)
(3 1.00611e-15 0)
(3 1.53298e-15 0)
(3 1.76213e-15 0)
(3 2.29436e-15 0)
(3 1.98549e-15 0)
(3 2.66011e-15 0)
(3 2.60594e-15 0)
(3 3.04357e-15 0)
(3 3.0187e-15 0)
(3 2.38426e-15 0)
(3 3.30638e-15 0)
(3 2.67438e-15 0)
(3 2.54176e-15 0)
(3 1.43559e-15 0)
(3 7.32207e-16 0)
(3 8.39054e-16 0)
(3 -6.1992e-17 0)
(3 -9.25928e-16 0)
(3 -8.56384e-16 0)
(3 3.34619e-16 0)
(3 1.61714e-16 0)
(3 -7.02995e-16 0)
(3 -2.7174e-15 0)
(3 -3.84841e-15 0)
(3 -3.85472e-15 0)
(3 -2.38883e-15 0)
(3 -1.47041e-15 0)
(3 5.38955e-16 0)
(3 1.46069e-15 0)
(3 2.43557e-15 0)
(3 2.32891e-15 0)
(3 5.68019e-16 0)
(3 4.33759e-16 0)
(3 2.32342e-17 0)
(3 2.28396e-16 0)
(3 5.36532e-16 0)
(3 2.46242e-15 0)
(3 3.79848e-15 0)
(3 3.72724e-15 0)
(3 3.23744e-15 0)
(3 2.43076e-15 0)
(3 1.51675e-15 0)
(3 9.46356e-16 0)
(3 2.40607e-15 0)
(3 2.89237e-15 0)
(3 3.76807e-15 0)
(3 3.49742e-15 0)
(3 1.97568e-15 0)
(3 1.00905e-15 0)
(3 1.06024e-15 0)
(3 -5.07585e-16 0)
(3 -2.47855e-15 0)
(3 8.93474e-17 0)
(3 -2.26e-16 0)
(3 -2.59387e-16 0)
(3 -3.16266e-16 0)
(3 1.03451e-16 0)
(3 5.3501e-16 0)
(3 7.412e-16 0)
(3 6.83401e-16 0)
(3 1.61533e-15 0)
(3 1.35678e-15 0)
(3 3.6521e-16 0)
(3 -9.38061e-16 0)
(3 -2.87518e-16 0)
(3 1.33888e-16 0)
(3 -3.7049e-16 0)
(3 -6.25973e-16 0)
(3 -2.00998e-16 0)
(3 5.70026e-16 0)
(3 1.30801e-15 0)
(3 1.56526e-15 0)
(3 8.02226e-16 0)
(3 1.80489e-16 0)
(3 4.75639e-16 0)
(3 5.19437e-16 0)
(3 -7.30212e-16 0)
(3 3.61567e-16 0)
(3 1.38846e-15 0)
(3 7.79678e-16 0)
(3 5.81514e-16 0)
(3 1.017e-15 0)
(3 1.30571e-15 0)
(3 2.22622e-15 0)
(3 2.42216e-15 0)
(3 1.91524e-15 0)
(3 -5.12573e-16 0)
(3 -1.17632e-15 0)
(3 -3.91722e-16 0)
(3 1.60282e-15 0)
(3 1.07958e-15 0)
(3 1.22975e-16 0)
(3 -9.12601e-16 0)
(3 -1.0121e-15 0)
(3 -6.35906e-16 0)
(3 -1.29363e-16 0)
(3 3.83446e-16 0)
(3 1.67639e-15 0)
(3 2.94112e-15 0)
(3 2.63319e-15 0)
(3 2.06063e-15 0)
(3 1.962e-15 0)
(3 1.77084e-15 0)
(3 1.99484e-15 0)
(3 2.06162e-15 0)
(3 1.96975e-15 0)
(3 2.13487e-15 0)
(3 2.2554e-15 0)
(3 2.99449e-15 0)
(3 2.19101e-15 0)
(3 6.95304e-16 0)
(3 -2.33519e-17 0)
(3 -7.83716e-16 0)
(3 -1.71525e-15 0)
(3 7.28079e-17 0)
(3 2.08117e-15 0)
(3 2.03822e-15 0)
(3 1.12045e-15 0)
(3 -8.4349e-16 0)
(3 -1.60048e-15 0)
(3 -1.59305e-15 0)
(3 -6.4929e-16 0)
(3 -1.28637e-15 0)
(3 -1.65942e-15 0)
(3 -1.20333e-15 0)
(3 -5.57041e-16 0)
(3 -9.38107e-16 0)
(3 -1.65295e-15 0)
(3 -5.1669e-16 0)
(3 -2.95134e-16 0)
(3 -1.81274e-16 0)
(3 1.82823e-16 0)
(3 1.21986e-15 0)
(3 2.35181e-15 0)
(3 3.51499e-15 0)
(3 3.56858e-15 0)
(3 2.01773e-15 0)
(3 -5.07951e-16 0)
(3 -4.99715e-16 0)
(3 6.25834e-17 0)
(3 2.07025e-15 0)
(3 2.80858e-15 0)
(3 2.85589e-15 0)
(3 2.29106e-15 0)
(3 1.48158e-16 0)
(3 1.99654e-16 0)
(3 -4.39649e-16 0)
(3 -1.72926e-15 0)
(3 1.64238e-16 0)
(3 2.29658e-16 0)
(3 7.98147e-17 0)
(3 -2.68081e-16 0)
(3 -2.79497e-16 0)
(3 -4.58724e-16 0)
(3 -4.39095e-16 0)
(3 -1.21747e-15 0)
(3 -1.25397e-15 0)
(3 -1.15366e-15 0)
(3 -8.37746e-16 0)
(3 -8.15787e-16 0)
(3 5.95691e-17 0)
(3 4.51332e-16 0)
(3 1.31267e-15 0)
(3 1.28205e-15 0)
(3 7.38818e-16 0)
(3 1.2417e-15 0)
(3 1.42071e-15 0)
(3 1.21973e-15 0)
(3 9.29239e-16 0)
(3 7.71536e-16 0)
(3 2.83807e-16 0)
(3 -8.48431e-17 0)
(3 -6.49832e-16 0)
(3 -4.63137e-17 0)
(3 1.95401e-16 0)
(3 -5.00796e-17 0)
(3 2.83299e-16 0)
(3 1.4015e-15 0)
(3 2.05156e-15 0)
(3 3.04443e-15 0)
(3 3.25624e-15 0)
(3 3.22175e-15 0)
(3 1.12208e-15 0)
(3 6.32624e-16 0)
(3 -1.43589e-16 0)
(3 -1.91969e-16 0)
(3 1.62626e-15 0)
(3 4.92064e-16 0)
(3 4.89133e-16 0)
(3 7.94024e-16 0)
(3 5.47507e-16 0)
(3 -3.23442e-17 0)
(3 5.60297e-16 0)
(3 1.3317e-15 0)
(3 1.98221e-15 0)
(3 1.79046e-15 0)
(3 1.66038e-15 0)
(3 7.6761e-16 0)
(3 1.09313e-15 0)
(3 4.47276e-16 0)
(3 -1.75041e-16 0)
(3 -9.63789e-17 0)
(3 2.86994e-16 0)
(3 1.56054e-15 0)
(3 1.86156e-15 0)
(3 2.23935e-15 0)
(3 2.06387e-15 0)
(3 1.11918e-15 0)
(3 -2.12649e-16 0)
(3 -8.0165e-16 0)
(3 -2.51156e-16 0)
(3 1.11562e-15 0)
(3 1.68712e-15 0)
(3 9.64272e-16 0)
(3 7.08404e-17 0)
(3 -8.97628e-16 0)
(3 -5.80769e-16 0)
(3 -1.57739e-16 0)
(3 -4.90462e-16 0)
(3 -1.87984e-15 0)
(3 -1.9799e-15 0)
(3 -1.46043e-15 0)
(3 -1.94533e-15 0)
(3 -3.02261e-15 0)
(3 -2.33342e-15 0)
(3 -1.28093e-15 0)
(3 -7.31728e-16 0)
(3 -1.31237e-15 0)
(3 -1.21374e-15 0)
(3 -3.82436e-16 0)
(3 1.70275e-16 0)
(3 -2.19647e-16 0)
(3 -1.30751e-16 0)
(3 -5.28268e-16 0)
(3 -3.56979e-16 0)
(3 -1.35686e-16 0)
(3 1.61593e-16 0)
(3 8.1717e-16 0)
(3 1.17851e-15 0)
(3 5.59304e-16 0)
(3 7.7087e-16 0)
(3 1.63543e-15 0)
(3 1.96248e-16 0)
(3 -4.5608e-16 0)
(3 3.21553e-17 0)
(3 4.0671e-16 0)
(3 3.06017e-16 0)
(3 -2.58692e-17 0)
(3 -8.06414e-16 0)
(3 -6.49056e-16 0)
(3 -8.51251e-16 0)
(3 -8.03078e-16 0)
(3 -1.07955e-15 0)
(3 -1.28284e-15 0)
(3 -5.04217e-16 0)
(3 -2.36711e-16 0)
(3 -5.78747e-16 0)
(3 -1.09535e-15 0)
(3 -1.08059e-15 0)
(3 -4.4583e-17 0)
(3 6.11979e-16 0)
(3 8.26429e-16 0)
(3 2.52555e-18 0)
(3 -4.16095e-16 0)
(3 -8.18006e-17 0)
(3 4.21721e-16 0)
(3 1.9811e-16 0)
(3 1.56403e-16 0)
(3 7.54329e-16 0)
(3 1.40665e-15 0)
(3 6.12205e-16 0)
(3 2.85681e-16 0)
(3 8.65899e-16 0)
(3 1.56482e-15 0)
(3 1.09524e-15 0)
(3 2.59291e-15 0)
(3 3.43945e-15 0)
(3 3.29087e-15 0)
(3 2.26817e-15 0)
(3 1.07281e-15 0)
(3 5.80392e-16 0)
(3 5.59168e-16 0)
(3 1.31988e-15 0)
(3 2.71315e-15 0)
(3 2.4855e-15 0)
(3 1.39433e-15 0)
(3 1.34994e-15 0)
(3 8.48184e-16 0)
(3 1.20944e-15 0)
(3 9.16318e-16 0)
(3 1.51359e-15 0)
(3 1.88486e-15 0)
(3 1.37639e-15 0)
(3 1.45133e-15 0)
(3 5.77158e-16 0)
(3 3.73634e-16 0)
(3 1.0069e-15 0)
(3 1.3107e-15 0)
(3 2.08404e-15 0)
(3 4.62459e-17 0)
(3 -8.32093e-16 0)
(3 -6.00661e-16 0)
(3 1.22734e-16 0)
(3 1.43513e-16 0)
(3 -2.33677e-16 0)
(3 -7.888e-16 0)
(3 6.56007e-16 0)
(3 2.14201e-15 0)
(3 2.36724e-15 0)
(3 2.32418e-15 0)
(3 -9.27893e-17 0)
(3 -1.26054e-15 0)
(3 -4.76025e-16 0)
(3 2.64282e-16 0)
(3 -2.16829e-16 0)
(3 3.4314e-16 0)
(3 -4.74726e-16 0)
(3 -1.24785e-15 0)
(3 -1.3114e-15 0)
(3 -1.95251e-15 0)
(3 -2.30553e-15 0)
(3 -1.45418e-15 0)
(3 -1.4716e-15 0)
(3 -1.39585e-15 0)
(3 -9.94652e-16 0)
(3 -9.30878e-16 0)
(3 -1.91278e-15 0)
(3 -2.16238e-15 0)
(3 -1.57517e-15 0)
(3 -1.69704e-15 0)
(3 -1.23674e-15 0)
(3 -7.23295e-16 0)
(3 -1.35405e-15 0)
(3 -1.92729e-15 0)
(3 -1.35271e-15 0)
(3 -4.97555e-16 0)
(3 6.07454e-16 0)
(3 2.22774e-15 0)
(3 1.62783e-15 0)
(3 6.5251e-16 0)
(3 5.46637e-17 0)
(3 3.86322e-16 0)
(3 3.41234e-16 0)
(3 -5.96796e-16 0)
(3 -8.46222e-16 0)
(3 -4.11358e-16 0)
(3 -4.19887e-16 0)
(3 7.44046e-17 0)
(3 1.53405e-16 0)
(3 -2.97637e-16 0)
(3 -4.8576e-16 0)
(3 -8.33387e-16 0)
(3 -1.19805e-15 0)
(3 -2.10712e-15 0)
(3 -3.3329e-15 0)
(3 -2.81779e-15 0)
(3 -1.21192e-15 0)
(3 -1.27519e-15 0)
(3 -1.8294e-15 0)
(3 -1.38164e-15 0)
(3 -1.29435e-16 0)
(3 -1.33046e-16 0)
(3 -4.01849e-16 0)
(3 -2.11931e-16 0)
(3 7.69247e-16 0)
(3 2.01003e-15 0)
(3 2.23752e-15 0)
(3 2.1746e-15 0)
(3 2.60867e-15 0)
(3 2.12051e-15 0)
(3 9.33508e-16 0)
(3 2.52552e-15 0)
(3 3.59364e-15 0)
(3 2.73388e-15 0)
(3 2.11037e-15 0)
(3 1.3341e-15 0)
(3 3.45253e-16 0)
(3 -2.01091e-16 0)
(3 -3.16419e-17 0)
(3 1.02348e-15 0)
(3 4.70671e-16 0)
(3 5.53408e-16 0)
(3 6.5063e-16 0)
(3 2.41572e-15 0)
(3 1.5713e-15 0)
(3 1.7878e-15 0)
(3 1.84746e-15 0)
(3 1.18118e-15 0)
(3 6.7755e-16 0)
(3 1.18258e-15 0)
(3 9.18203e-16 0)
(3 9.08635e-16 0)
(3 1.04069e-15 0)
(3 2.15385e-15 0)
(3 2.17299e-15 0)
(3 1.11577e-15 0)
(3 8.37664e-17 0)
(3 -1.33556e-15 0)
(3 -1.52377e-15 0)
(3 -1.201e-15 0)
(3 -1.03816e-15 0)
(3 -1.33402e-15 0)
(3 1.07113e-15 0)
(3 2.12416e-15 0)
(3 2.41085e-15 0)
(3 1.8177e-15 0)
(3 4.89396e-16 0)
(3 1.69006e-16 0)
(3 8.40393e-16 0)
(3 4.26363e-17 0)
(3 3.08371e-16 0)
(3 2.70391e-16 0)
(3 1.05081e-16 0)
(3 -4.37214e-16 0)
(3 -1.00909e-15 0)
(3 -1.48993e-15 0)
(3 -2.40253e-15 0)
(3 -3.3446e-15 0)
(3 -2.44713e-15 0)
(3 -1.80419e-15 0)
(3 -2.01122e-15 0)
(3 -1.01852e-15 0)
(3 -7.81986e-16 0)
(3 -6.787e-16 0)
(3 -7.99989e-16 0)
(3 -1.18717e-15 0)
(3 -1.42424e-15 0)
(3 -1.96858e-15 0)
(3 -3.14966e-15 0)
(3 -4.12987e-15 0)
(3 -3.2134e-15 0)
(3 -2.08743e-15 0)
(3 2.34842e-16 0)
(3 6.6978e-16 0)
(3 -6.3826e-16 0)
(3 -5.66079e-16 0)
(3 -7.39528e-17 0)
(3 -1.55192e-16 0)
(3 -4.09547e-16 0)
(3 -4.10729e-16 0)
(3 1.17262e-16 0)
(3 -2.85912e-16 0)
(3 -6.89358e-16 0)
(3 -9.28967e-16 0)
(3 -6.49828e-16 0)
(3 -5.65186e-16 0)
(3 -9.01453e-16 0)
(3 -7.67917e-16 0)
(3 -8.53218e-16 0)
(3 -1.53657e-15 0)
(3 -2.02145e-15 0)
(3 -2.3376e-15 0)
(3 -2.06957e-15 0)
(3 -1.24318e-15 0)
(3 -5.39204e-16 0)
(3 -3.47798e-16 0)
(3 -5.47219e-16 0)
(3 -2.11169e-16 0)
(3 1.8601e-16 0)
(3 1.67617e-16 0)
(3 1.46455e-15 0)
(3 1.80849e-15 0)
(3 1.8124e-15 0)
(3 2.82603e-15 0)
(3 3.32276e-15 0)
(3 2.63796e-15 0)
(3 2.038e-15 0)
(3 2.595e-15 0)
(3 2.74741e-15 0)
(3 -1.12962e-16 0)
(3 -1.06759e-15 0)
(3 -1.07124e-15 0)
(3 -1.00537e-15 0)
(3 -1.70047e-15 0)
(3 -1.82246e-15 0)
(3 -2.40491e-15 0)
(3 -7.08482e-16 0)
(3 -2.45949e-16 0)
(3 1.14649e-15 0)
(3 3.10881e-15 0)
(3 1.1696e-15 0)
(3 -2.60338e-16 0)
(3 -1.40607e-15 0)
(3 -7.35632e-16 0)
(3 2.72384e-16 0)
(3 1.03821e-16 0)
(3 9.69994e-17 0)
(3 1.88896e-16 0)
(3 9.6076e-16 0)
(3 1.53859e-15 0)
(3 1.33351e-15 0)
(3 2.04834e-15 0)
(3 -1.06462e-16 0)
(3 -1.61979e-15 0)
(3 -2.44112e-15 0)
(3 -2.05924e-15 0)
(3 -1.76207e-15 0)
(3 -1.2136e-15 0)
(3 1.06156e-15 0)
(3 1.68646e-15 0)
(3 2.1578e-15 0)
(3 2.06973e-15 0)
(3 1.68437e-15 0)
(3 1.34161e-15 0)
(3 6.51031e-16 0)
(3 5.58392e-16 0)
(3 4.58565e-16 0)
(3 -2.35321e-16 0)
(3 -2.65767e-16 0)
(3 -2.78207e-18 0)
(3 5.22162e-16 0)
(3 7.25267e-16 0)
(3 1.32629e-16 0)
(3 -1.64929e-15 0)
(3 -2.38364e-15 0)
(3 -2.80012e-15 0)
(3 -3.12824e-15 0)
(3 -2.00024e-15 0)
(3 -1.69592e-15 0)
(3 -1.16236e-15 0)
(3 -9.59382e-16 0)
(3 -1.54945e-15 0)
(3 -2.77286e-15 0)
(3 -3.77015e-15 0)
(3 -5.17273e-15 0)
(3 -5.19778e-15 0)
(3 -3.6817e-15 0)
(3 -2.03097e-15 0)
(3 -1.78711e-16 0)
(3 -3.43894e-16 0)
(3 -1.59219e-15 0)
(3 -2.04354e-15 0)
(3 -1.32553e-16 0)
(3 1.44749e-16 0)
(3 1.00501e-16 0)
(3 -2.90122e-17 0)
(3 3.49037e-17 0)
(3 -6.72188e-16 0)
(3 -6.69748e-16 0)
(3 -8.69734e-16 0)
(3 -7.94506e-16 0)
(3 -4.01471e-16 0)
(3 -5.21581e-16 0)
(3 -1.03633e-15 0)
(3 -1.83946e-15 0)
(3 -2.1898e-15 0)
(3 -2.12915e-15 0)
(3 -1.45869e-15 0)
(3 -1.23871e-15 0)
(3 -1.07766e-15 0)
(3 -3.00261e-16 0)
(3 -2.65403e-16 0)
(3 -8.76016e-17 0)
(3 5.23417e-16 0)
(3 1.15113e-15 0)
(3 1.44536e-15 0)
(3 1.90747e-15 0)
(3 1.67599e-15 0)
(3 2.12326e-15 0)
(3 1.93359e-15 0)
(3 1.63121e-15 0)
(3 2.06534e-15 0)
(3 3.02216e-15 0)
(3 1.01233e-15 0)
(3 -1.11509e-15 0)
(3 -1.33748e-15 0)
(3 -1.17566e-15 0)
(3 -6.37398e-16 0)
(3 -7.34295e-16 0)
(3 -2.41848e-15 0)
(3 -3.7859e-15 0)
(3 -4.15399e-15 0)
(3 -2.54483e-15 0)
(3 2.03286e-16 0)
(3 9.22574e-16 0)
(3 1.56973e-15 0)
(3 1.14329e-15 0)
(3 -1.18582e-15 0)
(3 -1.97684e-15 0)
(3 -1.23956e-15 0)
(3 2.3156e-16 0)
(3 -1.01045e-16 0)
(3 -1.40492e-15 0)
(3 -4.32047e-16 0)
(3 9.32e-16 0)
(3 1.63922e-15 0)
(3 2.7238e-15 0)
(3 5.20543e-16 0)
(3 -2.93529e-15 0)
(3 -5.17452e-15 0)
(3 -5.65039e-15 0)
(3 -4.49592e-15 0)
(3 -3.03848e-15 0)
(3 -1.15682e-15 0)
(3 -3.19043e-16 0)
(3 1.29367e-15 0)
(3 1.80137e-15 0)
(3 1.46312e-15 0)
(3 1.13911e-15 0)
(3 -3.13081e-16 0)
(3 -1.63412e-15 0)
(3 -1.60573e-15 0)
(3 -6.93585e-16 0)
(3 1.18685e-17 0)
(3 1.11503e-16 0)
(3 4.63996e-16 0)
(3 2.08751e-15 0)
(3 2.9497e-15 0)
(3 2.57549e-15 0)
(3 8.01787e-16 0)
(3 -1.95019e-15 0)
(3 -3.26958e-15 0)
(3 -4.03144e-15 0)
(3 -3.5796e-15 0)
(3 -3.12168e-15 0)
(3 -3.46826e-15 0)
(3 -4.3027e-15 0)
(3 -4.97568e-15 0)
(3 -5.35729e-15 0)
(3 -5.25456e-15 0)
(3 -6.2787e-15 0)
(3 -6.00022e-15 0)
(3 -4.52747e-15 0)
(3 -2.65729e-15 0)
(3 -2.35611e-15 0)
(3 -1.1329e-15 0)
(3 -8.2286e-16 0)
(3 -1.87352e-15 0)
(3 2.71017e-17 0)
(3 -9.60882e-17 0)
(3 -3.20546e-16 0)
(3 -3.31393e-16 0)
(3 -5.21235e-16 0)
(3 -1.61457e-16 0)
(3 2.04368e-16 0)
(3 3.09523e-16 0)
(3 2.51299e-16 0)
(3 7.43455e-16 0)
(3 1.13734e-15 0)
(3 6.24675e-16 0)
(3 -7.86393e-16 0)
(3 -1.17351e-15 0)
(3 -1.23044e-15 0)
(3 -1.13651e-15 0)
(3 -1.34413e-15 0)
(3 -1.63428e-15 0)
(3 -1.2072e-15 0)
(3 -5.50058e-16 0)
(3 2.92095e-16 0)
(3 -1.47387e-17 0)
(3 -1.15392e-16 0)
(3 2.65401e-16 0)
(3 8.36983e-16 0)
(3 1.49471e-15 0)
(3 2.01696e-15 0)
(3 1.86532e-15 0)
(3 1.30786e-15 0)
(3 1.26771e-15 0)
(3 2.22131e-15 0)
(3 1.42881e-15 0)
(3 -1.04087e-15 0)
(3 -8.54694e-16 0)
(3 -6.8241e-16 0)
(3 -7.02516e-16 0)
(3 -8.89313e-16 0)
(3 -1.50524e-15 0)
(3 -2.42814e-15 0)
(3 -3.27897e-15 0)
(3 -2.44142e-15 0)
(3 3.66205e-16 0)
(3 1.2923e-15 0)
(3 1.59248e-15 0)
(3 2.00007e-15 0)
(3 1.14153e-15 0)
(3 6.53851e-16 0)
(3 -8.5044e-16 0)
(3 -1.59338e-15 0)
(3 -2.93294e-15 0)
(3 -4.30944e-15 0)
(3 -1.4617e-15 0)
(3 4.04736e-16 0)
(3 1.19417e-15 0)
(3 1.44274e-15 0)
(3 -1.75295e-17 0)
(3 -1.3048e-15 0)
(3 -2.32547e-15 0)
(3 -3.59838e-15 0)
(3 -4.82643e-15 0)
(3 -4.02904e-15 0)
(3 -1.2489e-15 0)
(3 5.36347e-16 0)
(3 1.91608e-15 0)
(3 2.43401e-15 0)
(3 1.592e-15 0)
(3 -1.29241e-15 0)
(3 -2.44435e-15 0)
(3 -4.25161e-15 0)
(3 -5.17075e-15 0)
(3 -2.68241e-15 0)
(3 -1.13564e-15 0)
(3 -8.74401e-16 0)
(3 3.50841e-16 0)
(3 2.32007e-15 0)
(3 2.97288e-15 0)
(3 2.5716e-15 0)
(3 1.30664e-15 0)
(3 -8.83032e-16 0)
(3 -3.97853e-15 0)
(3 -4.66644e-15 0)
(3 -4.07245e-15 0)
(3 -3.44418e-15 0)
(3 -5.3784e-15 0)
(3 -7.1254e-15 0)
(3 -6.64604e-15 0)
(3 -5.68867e-15 0)
(3 -5.64895e-15 0)
(3 -5.61919e-15 0)
(3 -5.04057e-15 0)
(3 -4.65557e-15 0)
(3 -3.76375e-15 0)
(3 -3.12967e-15 0)
(3 -2.24675e-15 0)
(3 -1.2059e-15 0)
(3 2.82381e-16 0)
(3 -1.6693e-16 0)
(3 -8.12077e-16 0)
(3 -1.12514e-15 0)
(3 -9.94012e-16 0)
(3 -3.21206e-16 0)
(3 -3.83244e-17 0)
(3 6.09738e-16 0)
(3 7.65446e-16 0)
(3 3.3489e-16 0)
(3 1.0245e-16 0)
(3 2.29252e-16 0)
(3 1.25045e-16 0)
(3 2.61221e-16 0)
(3 2.74812e-16 0)
(3 3.17213e-17 0)
(3 -1.78331e-16 0)
(3 -3.91451e-16 0)
(3 -5.36804e-16 0)
(3 -8.8448e-16 0)
(3 -6.15552e-16 0)
(3 -9.17433e-16 0)
(3 -1.19749e-15 0)
(3 -1.09444e-15 0)
(3 -6.26807e-16 0)
(3 8.41521e-16 0)
(3 2.52892e-15 0)
(3 2.67616e-15 0)
(3 2.13371e-15 0)
(3 1.21997e-15 0)
(3 4.21038e-16 0)
(3 5.17184e-16 0)
(3 2.86868e-16 0)
(3 1.18906e-15 0)
(3 9.51575e-16 0)
(3 1.30099e-15 0)
(3 5.56377e-16 0)
(3 -5.75805e-16 0)
(3 -1.57192e-15 0)
(3 -3.13593e-15 0)
(3 -3.92665e-15 0)
(3 -3.94057e-15 0)
(3 -2.44227e-15 0)
(3 5.73099e-17 0)
(3 1.16285e-15 0)
(3 1.38502e-15 0)
(3 1.31495e-15 0)
(3 1.18724e-15 0)
(3 -2.6303e-15 0)
(3 -4.93183e-15 0)
(3 -5.46938e-15 0)
(3 -4.92423e-15 0)
(3 -3.66656e-15 0)
(3 -1.29164e-15 0)
(3 6.33785e-16 0)
(3 1.14919e-15 0)
(3 8.23712e-16 0)
(3 8.09865e-17 0)
(3 -1.03485e-16 0)
(3 2.54671e-17 0)
(3 -2.04148e-15 0)
(3 -2.56915e-15 0)
(3 -2.55904e-16 0)
(3 1.69155e-15 0)
(3 2.3194e-15 0)
(3 3.14167e-15 0)
(3 -1.17976e-15 0)
(3 -2.0117e-15 0)
(3 -1.65015e-15 0)
(3 -3.40749e-15 0)
(3 -4.63545e-15 0)
(3 -2.97891e-15 0)
(3 -2.15712e-16 0)
(3 7.49576e-17 0)
(3 7.62593e-16 0)
(3 1.72786e-15 0)
(3 3.98466e-15 0)
(3 3.66448e-15 0)
(3 4.01892e-16 0)
(3 -1.18329e-15 0)
(3 -1.86558e-15 0)
(3 -3.61223e-15 0)
(3 -4.64839e-15 0)
(3 -6.65489e-15 0)
(3 -8.12389e-15 0)
(3 -8.94702e-15 0)
(3 -6.91071e-15 0)
(3 -5.55639e-15 0)
(3 -5.34917e-15 0)
(3 -5.38949e-15 0)
(3 -3.67393e-15 0)
(3 -2.88377e-15 0)
(3 -2.51151e-15 0)
(3 -2.3753e-15 0)
(3 -2.97971e-15 0)
(3 -1.46909e-15 0)
(3 1.73001e-15 0)
(3 2.75793e-18 0)
(3 -1.54422e-17 0)
(3 3.85266e-16 0)
(3 1.01392e-15 0)
(3 8.31131e-16 0)
(3 3.55843e-16 0)
(3 4.97848e-16 0)
(3 -6.22829e-17 0)
(3 -5.99115e-16 0)
(3 -7.26403e-16 0)
(3 -1.27387e-15 0)
(3 -5.77504e-16 0)
(3 6.40998e-16 0)
(3 9.87756e-16 0)
(3 1.02456e-15 0)
(3 1.10703e-15 0)
(3 1.23229e-15 0)
(3 1.11499e-15 0)
(3 -2.76411e-16 0)
(3 -1.29658e-15 0)
(3 -1.23787e-15 0)
(3 -4.049e-16 0)
(3 5.06385e-16 0)
(3 4.90099e-16 0)
(3 1.21733e-15 0)
(3 1.42946e-15 0)
(3 1.55962e-15 0)
(3 1.5437e-15 0)
(3 1.36013e-15 0)
(3 9.27121e-16 0)
(3 -3.78279e-16 0)
(3 1.03101e-15 0)
(3 2.42319e-15 0)
(3 3.69938e-15 0)
(3 4.01139e-15 0)
(3 2.79363e-15 0)
(3 5.90085e-16 0)
(3 -2.67557e-15 0)
(3 -5.4667e-15 0)
(3 -6.13635e-15 0)
(3 -5.19453e-15 0)
(3 -2.23903e-15 0)
(3 -1.3944e-15 0)
(3 -1.60598e-15 0)
(3 -1.81232e-15 0)
(3 2.59429e-16 0)
(3 -8.14726e-16 0)
(3 -3.41397e-15 0)
(3 -3.76578e-15 0)
(3 -3.52523e-15 0)
(3 -3.01727e-15 0)
(3 -2.53203e-15 0)
(3 -1.77524e-15 0)
(3 3.38505e-16 0)
(3 1.3002e-15 0)
(3 9.14219e-16 0)
(3 6.9756e-16 0)
(3 -1.46926e-16 0)
(3 5.3548e-17 0)
(3 1.20713e-15 0)
(3 2.0584e-15 0)
(3 1.59585e-15 0)
(3 1.14804e-15 0)
(3 9.45762e-16 0)