/*--------------------------------*- C++ -*----------------------------------*\
  =========                 |
  \\      /  F ield         | OpenFOAM: The Open Source CFD Toolbox
   \\    /   O peration     | Website:  https://openfoam.org
    \\  /    A nd           | Version:  7
     \\/     M anipulation  |
\*---------------------------------------------------------------------------*/
FoamFile
{
    version     2.0;
    format      ascii;
    class       volVectorField;
    location    "3.6";
    object      U;
}
// * * * * * * * * * * * * * * * * * * * * * * * * * * * * * * * * * * * * * //

dimensions      [0 1 -1 0 0 0 0];

internalField   nonuniform List<vector> 
73728
(
(3 -1.74266e-17 0)
(3 2.11573e-17 0)
(3 -9.57905e-17 0)
(3 -5.39859e-17 0)
(3 -3.49382e-16 0)
(3 -5.57863e-16 0)
(3 4.85062e-16 0)
(3 1.70354e-15 0)
(3 1.87177e-15 0)
(3 1.17504e-15 0)
(3 4.11988e-16 0)
(3 2.4586e-16 0)
(3 5.06938e-17 0)
(3 -1.98686e-16 0)
(3 -3.33999e-16 0)
(3 -2.69565e-16 0)
(3 -2.18141e-16 0)
(3 -9.19843e-18 0)
(3 -1.98678e-16 0)
(3 -1.86661e-16 0)
(3 -4.14639e-16 0)
(3 -7.12516e-16 0)
(3 -1.20412e-16 0)
(3 1.0923e-15 0)
(3 1.13543e-15 0)
(3 1.04836e-15 0)
(3 2.25332e-15 0)
(3 1.72616e-15 0)
(3 -5.72917e-16 0)
(3 -1.93878e-15 0)
(3 -1.75504e-15 0)
(3 -9.96424e-16 0)
(3 -5.7739e-16 0)
(3 6.59579e-16 0)
(3 1.22714e-15 0)
(3 1.46521e-15 0)
(3 5.60058e-16 0)
(3 7.27083e-17 0)
(3 -4.66194e-17 0)
(3 2.71984e-17 0)
(3 -1.98111e-16 0)
(3 -1.43881e-15 0)
(3 -1.74275e-15 0)
(3 -2.08151e-15 0)
(3 -1.73297e-15 0)
(3 -6.52862e-16 0)
(3 -1.70629e-16 0)
(3 1.42142e-16 0)
(3 2.68297e-16 0)
(3 3.14492e-17 0)
(3 2.02454e-16 0)
(3 -1.92013e-16 0)
(3 6.42747e-16 0)
(3 5.07119e-16 0)
(3 2.86044e-16 0)
(3 -1.87995e-16 0)
(3 -3.88931e-16 0)
(3 3.90315e-16 0)
(3 6.96799e-16 0)
(3 9.18413e-16 0)
(3 1.82388e-15 0)
(3 2.0184e-15 0)
(3 8.0454e-16 0)
(3 6.08817e-17 0)
(3 -8.57434e-16 0)
(3 -1.01302e-15 0)
(3 -8.0112e-16 0)
(3 -9.29167e-16 0)
(3 -1.34906e-15 0)
(3 -2.18122e-15 0)
(3 -2.46424e-15 0)
(3 -1.51124e-15 0)
(3 -5.13748e-16 0)
(3 1.09768e-15 0)
(3 5.63114e-16 0)
(3 4.2664e-16 0)
(3 5.86626e-16 0)
(3 1.27941e-15 0)
(3 1.32296e-15 0)
(3 1.22306e-15 0)
(3 5.53879e-16 0)
(3 2.16933e-16 0)
(3 -1.78797e-16 0)
(3 -9.36486e-16 0)
(3 -6.26221e-16 0)
(3 -6.43096e-16 0)
(3 -1.00565e-15 0)
(3 -1.28558e-15 0)
(3 -1.47386e-15 0)
(3 -1.73059e-15 0)
(3 -1.73263e-15 0)
(3 -1.85903e-15 0)
(3 -1.34649e-15 0)
(3 2.87833e-16 0)
(3 1.24442e-15 0)
(3 5.44679e-17 0)
(3 -1.34429e-16 0)
(3 -9.77825e-17 0)
(3 -5.49388e-16 0)
(3 -7.95028e-16 0)
(3 -7.52058e-16 0)
(3 -2.42234e-16 0)
(3 3.89196e-16 0)
(3 2.0139e-15 0)
(3 2.32673e-15 0)
(3 1.80573e-15 0)
(3 8.17968e-16 0)
(3 -2.62971e-16 0)
(3 -1.29357e-15 0)
(3 -2.05837e-15 0)
(3 -2.08505e-15 0)
(3 -9.88769e-16 0)
(3 -2.86529e-16 0)
(3 4.30879e-16 0)
(3 1.03014e-15 0)
(3 5.88576e-16 0)
(3 7.60718e-17 0)
(3 -5.56166e-16 0)
(3 -5.10986e-16 0)
(3 8.46946e-16 0)
(3 1.37059e-15 0)
(3 1.31895e-15 0)
(3 2.02848e-15 0)
(3 9.03173e-16 0)
(3 -2.0934e-15 0)
(3 -3.01838e-15 0)
(3 -2.31227e-15 0)
(3 -6.46356e-16 0)
(3 2.01877e-16 0)
(3 1.0662e-15 0)
(3 1.45773e-15 0)
(3 1.39218e-15 0)
(3 1.43289e-15 0)
(3 9.94171e-16 0)
(3 9.81501e-16 0)
(3 9.46665e-16 0)
(3 5.3498e-16 0)
(3 -6.64678e-16 0)
(3 -1.21218e-15 0)
(3 -1.80453e-15 0)
(3 -2.22305e-15 0)
(3 -1.06958e-15 0)
(3 4.45405e-16 0)
(3 4.06569e-16 0)
(3 5.30827e-16 0)
(3 -2.01402e-16 0)
(3 -5.94571e-16 0)
(3 -7.95633e-16 0)
(3 9.569e-16 0)
(3 1.2656e-15 0)
(3 1.2087e-15 0)
(3 -3.35668e-17 0)
(3 7.61875e-17 0)
(3 1.43943e-15 0)
(3 1.36644e-15 0)
(3 1.82006e-15 0)
(3 2.20018e-15 0)
(3 2.06731e-15 0)
(3 1.07693e-15 0)
(3 -7.88985e-16 0)
(3 -1.99961e-15 0)
(3 -1.83566e-15 0)
(3 -1.59702e-15 0)
(3 -1.46468e-15 0)
(3 -2.38192e-15 0)
(3 -3.29731e-15 0)
(3 -2.99252e-15 0)
(3 -7.5756e-16 0)
(3 2.37487e-15 0)
(3 4.87097e-15 0)
(3 3.12044e-15 0)
(3 3.38491e-16 0)
(3 -1.19565e-15 0)
(3 -1.6428e-15 0)
(3 -1.65958e-15 0)
(3 -1.23624e-15 0)
(3 -1.51391e-15 0)
(3 -2.20355e-15 0)
(3 -2.3054e-15 0)
(3 -2.30316e-15 0)
(3 -1.6828e-15 0)
(3 -1.03619e-15 0)
(3 -1.6564e-15 0)
(3 -2.73587e-15 0)
(3 -2.49721e-15 0)
(3 -2.20371e-15 0)
(3 -2.02069e-15 0)
(3 -2.01813e-15 0)
(3 -3.58459e-16 0)
(3 2.60281e-15 0)
(3 2.75967e-15 0)
(3 -1.5362e-16 0)
(3 -1.53242e-16 0)
(3 -3.2954e-16 0)
(3 -8.59874e-16 0)
(3 -1.2549e-15 0)
(3 -1.04654e-15 0)
(3 -6.49838e-16 0)
(3 -6.26024e-16 0)
(3 3.17974e-16 0)
(3 6.95078e-16 0)
(3 7.6798e-16 0)
(3 -4.12886e-16 0)
(3 -1.09619e-15 0)
(3 -2.41953e-15 0)
(3 -2.16412e-15 0)
(3 -1.17856e-15 0)
(3 -1.72164e-15 0)
(3 -1.33849e-15 0)
(3 -9.26988e-16 0)
(3 8.96489e-16 0)
(3 1.29634e-15 0)
(3 1.06572e-15 0)
(3 -2.40882e-16 0)
(3 -1.26534e-15 0)
(3 -1.07788e-15 0)
(3 -9.76011e-17 0)
(3 9.37567e-16 0)
(3 1.70738e-15 0)
(3 -9.85072e-17 0)
(3 -3.43428e-15 0)
(3 -5.16242e-15 0)
(3 -3.07664e-15 0)
(3 1.5107e-16 0)
(3 2.0932e-15 0)
(3 1.89921e-15 0)
(3 1.16969e-15 0)
(3 4.45131e-16 0)
(3 2.89138e-16 0)
(3 1.62037e-15 0)
(3 2.13368e-15 0)
(3 1.83361e-15 0)
(3 6.32149e-16 0)
(3 -1.19004e-16 0)
(3 -4.42101e-16 0)
(3 -4.50893e-16 0)
(3 -1.88121e-16 0)
(3 6.65098e-16 0)
(3 1.1959e-15 0)
(3 9.66881e-16 0)
(3 5.78374e-16 0)
(3 -4.44962e-17 0)
(3 -6.07284e-16 0)
(3 -1.37029e-16 0)
(3 -1.15922e-16 0)
(3 9.39886e-17 0)
(3 -4.05673e-16 0)
(3 -2.71027e-16 0)
(3 8.73336e-16 0)
(3 2.04287e-15 0)
(3 2.45232e-15 0)
(3 2.06524e-15 0)
(3 1.27782e-15 0)
(3 1.38856e-15 0)
(3 1.89109e-15 0)
(3 1.71933e-15 0)
(3 1.27692e-15 0)
(3 3.04859e-16 0)
(3 -8.71444e-16 0)
(3 -1.3269e-15 0)
(3 -2.02273e-15 0)
(3 -1.99957e-15 0)
(3 -1.10464e-15 0)
(3 2.3373e-16 0)
(3 2.42934e-15 0)
(3 2.54833e-15 0)
(3 2.3253e-15 0)
(3 1.29992e-15 0)
(3 6.0163e-16 0)
(3 -2.13632e-16 0)
(3 -6.9517e-16 0)
(3 -1.48748e-15 0)
(3 -1.66664e-15 0)
(3 -1.45374e-15 0)
(3 -1.31003e-15 0)
(3 -1.70212e-15 0)
(3 -1.77184e-15 0)
(3 -9.052e-16 0)
(3 -9.1533e-16 0)
(3 -1.58899e-15 0)
(3 -2.26256e-15 0)
(3 -2.42213e-15 0)
(3 -1.68943e-15 0)
(3 -1.06406e-15 0)
(3 6.07323e-16 0)
(3 1.42151e-15 0)
(3 1.42077e-15 0)
(3 2.45521e-15 0)
(3 4.48068e-17 0)
(3 -2.36939e-17 0)
(3 3.50077e-17 0)
(3 -2.38449e-17 0)
(3 -1.60164e-16 0)
(3 -5.48493e-16 0)
(3 -7.36098e-16 0)
(3 -9.67549e-16 0)
(3 9.09425e-17 0)
(3 7.1103e-16 0)
(3 4.78185e-16 0)
(3 1.44276e-16 0)
(3 -6.21406e-16 0)
(3 -8.00319e-16 0)
(3 -3.51956e-16 0)
(3 -1.05304e-15 0)
(3 -1.99106e-15 0)
(3 -2.17184e-15 0)
(3 3.66078e-16 0)
(3 2.52557e-15 0)
(3 1.25256e-15 0)
(3 -1.21373e-17 0)
(3 -4.56059e-16 0)
(3 -8.44516e-16 0)
(3 -4.73821e-16 0)
(3 1.52807e-16 0)
(3 7.13887e-16 0)
(3 -3.63421e-16 0)
(3 -1.88956e-15 0)
(3 -3.27783e-15 0)
(3 -6.87974e-16 0)
(3 1.27094e-15 0)
(3 2.48981e-15 0)
(3 1.8533e-15 0)
(3 -3.89691e-17 0)
(3 -5.04354e-16 0)
(3 -6.1717e-18 0)
(3 1.64535e-15 0)
(3 7.36122e-16 0)
(3 6.30602e-16 0)
(3 8.95994e-16 0)
(3 -1.64314e-16 0)
(3 -2.85921e-16 0)
(3 1.17937e-15 0)
(3 2.62009e-15 0)
(3 2.12968e-15 0)
(3 1.98122e-15 0)
(3 1.82427e-15 0)
(3 9.0188e-16 0)
(3 2.90035e-16 0)
(3 2.58485e-16 0)
(3 1.20705e-15 0)
(3 1.05121e-15 0)
(3 6.42635e-16 0)
(3 -7.63182e-16 0)
(3 -2.00778e-16 0)
(3 1.63238e-15 0)
(3 2.87967e-15 0)
(3 2.03222e-15 0)
(3 1.93602e-16 0)
(3 -3.20223e-16 0)
(3 8.8376e-16 0)
(3 2.73705e-15 0)
(3 3.12277e-15 0)
(3 2.68114e-15 0)
(3 2.22834e-15 0)
(3 1.84991e-15 0)
(3 1.42242e-15 0)
(3 2.15758e-16 0)
(3 -7.30775e-16 0)
(3 6.04975e-16 0)
(3 2.12342e-15 0)
(3 2.21479e-15 0)
(3 1.76282e-15 0)
(3 -4.49664e-16 0)
(3 -1.45385e-15 0)
(3 -1.4806e-15 0)
(3 -8.33024e-16 0)
(3 3.46954e-17 0)
(3 1.46296e-16 0)
(3 1.11505e-16 0)
(3 5.77001e-16 0)
(3 3.77458e-16 0)
(3 6.5428e-17 0)
(3 -4.82482e-16 0)
(3 1.6256e-16 0)
(3 2.22511e-16 0)
(3 4.38072e-16 0)
(3 -2.91478e-16 0)
(3 -3.18671e-16 0)
(3 7.3632e-16 0)
(3 9.39028e-16 0)
(3 8.36845e-16 0)
(3 8.86642e-16 0)
(3 1.11048e-15 0)
(3 2.14495e-15 0)
(3 1.18156e-16 0)
(3 3.3452e-16 0)
(3 8.21108e-16 0)
(3 8.98478e-16 0)
(3 1.03295e-15 0)
(3 1.12523e-15 0)
(3 1.04426e-15 0)
(3 3.85251e-16 0)
(3 6.6115e-16 0)
(3 1.48602e-15 0)
(3 2.48519e-15 0)
(3 3.32151e-15 0)
(3 1.37948e-15 0)
(3 -1.33034e-15 0)
(3 -1.63748e-15 0)
(3 -4.36988e-16 0)
(3 -4.63645e-16 0)
(3 -3.5617e-16 0)
(3 1.92367e-16 0)
(3 7.61673e-16 0)
(3 -9.0829e-16 0)
(3 -1.14355e-15 0)
(3 -9.38435e-16 0)
(3 -1.3179e-15 0)
(3 -1.63014e-15 0)
(3 -1.88255e-15 0)
(3 -1.11424e-15 0)
(3 5.57153e-16 0)
(3 6.25228e-16 0)
(3 -3.23334e-16 0)
(3 1.44761e-15 0)
(3 2.16884e-15 0)
(3 2.48182e-15 0)
(3 3.11823e-16 0)
(3 -2.06779e-16 0)
(3 -4.13085e-16 0)
(3 8.71676e-17 0)
(3 6.32527e-16 0)
(3 7.48725e-16 0)
(3 7.70646e-16 0)
(3 2.06249e-15 0)
(3 1.98547e-15 0)
(3 1.43884e-15 0)
(3 1.28981e-15 0)
(3 2.1991e-15 0)
(3 2.18261e-15 0)
(3 2.23299e-15 0)
(3 2.06258e-15 0)
(3 2.02059e-15 0)
(3 1.87193e-15 0)
(3 2.19444e-15 0)
(3 3.40252e-15 0)
(3 3.17044e-15 0)
(3 1.91806e-15 0)
(3 7.07709e-16 0)
(3 -6.50622e-17 0)
(3 -5.58965e-17 0)
(3 1.32007e-15 0)
(3 1.56884e-15 0)
(3 1.22914e-15 0)
(3 1.01816e-15 0)
(3 6.67779e-16 0)
(3 6.5492e-16 0)
(3 1.47526e-15 0)
(3 2.49593e-15 0)
(3 2.6128e-15 0)
(3 3.76317e-15 0)
(3 4.18063e-15 0)
(3 3.64974e-15 0)
(3 3.10496e-15 0)
(3 2.90467e-15 0)
(3 3.15774e-15 0)
(3 3.13501e-15 0)
(3 2.6349e-15 0)
(3 9.66982e-16 0)
(3 7.30222e-16 0)
(3 -5.84702e-16 0)
(3 -4.33955e-16 0)
(3 3.95955e-16 0)
(3 9.98667e-16 0)
(3 1.83922e-15 0)
(3 1.30682e-15 0)
(3 3.72552e-16 0)
(3 -5.44142e-16 0)
(3 -1.38557e-15 0)
(3 -1.91336e-15 0)
(3 -1.47556e-15 0)
(3 -4.49765e-16 0)
(3 1.10364e-15 0)
(3 8.16872e-16 0)
(3 8.27139e-16 0)
(3 7.89292e-16 0)
(3 7.77248e-16 0)
(3 1.33766e-15 0)
(3 2.11593e-15 0)
(3 1.74107e-15 0)
(3 2.70886e-17 0)
(3 9.70011e-17 0)
(3 7.07273e-17 0)
(3 2.23326e-16 0)
(3 1.6682e-16 0)
(3 4.6059e-16 0)
(3 6.24272e-16 0)
(3 9.8942e-16 0)
(3 9.74614e-16 0)
(3 7.79357e-16 0)
(3 1.02167e-15 0)
(3 1.30859e-15 0)
(3 1.41778e-15 0)
(3 -8.6616e-17 0)
(3 -9.65808e-16 0)
(3 -9.88274e-16 0)
(3 -6.18649e-16 0)
(3 6.89864e-17 0)
(3 -6.68063e-17 0)
(3 -2.87312e-16 0)
(3 2.3401e-16 0)
(3 -1.06736e-15 0)
(3 -1.89808e-15 0)
(3 -2.26973e-15 0)
(3 -2.31936e-15 0)
(3 -3.58963e-15 0)
(3 -2.28272e-15 0)
(3 1.59837e-15 0)
(3 2.36232e-15 0)
(3 1.82612e-15 0)
(3 9.63492e-16 0)
(3 1.30256e-15 0)
(3 1.04349e-15 0)
(3 -6.20319e-16 0)
(3 -1.30032e-15 0)
(3 -1.6778e-15 0)
(3 -8.03456e-16 0)
(3 7.45812e-16 0)
(3 2.00639e-15 0)
(3 2.8697e-15 0)
(3 3.47019e-15 0)
(3 3.2277e-15 0)
(3 2.49693e-15 0)
(3 1.48508e-15 0)
(3 1.3048e-15 0)
(3 2.11779e-15 0)
(3 2.22259e-15 0)
(3 2.584e-15 0)
(3 2.67069e-15 0)
(3 2.23701e-15 0)
(3 1.41159e-15 0)
(3 1.18874e-15 0)
(3 1.24419e-15 0)
(3 1.0935e-15 0)
(3 9.78573e-16 0)
(3 2.43926e-16 0)
(3 1.53576e-16 0)
(3 6.2009e-16 0)
(3 1.23211e-15 0)
(3 2.46839e-15 0)
(3 3.34567e-15 0)
(3 1.31912e-15 0)
(3 -1.33365e-16 0)
(3 2.62101e-16 0)
(3 1.13987e-15 0)
(3 2.18047e-15 0)
(3 3.3754e-15 0)
(3 3.67003e-15 0)
(3 4.2602e-15 0)
(3 5.4206e-15 0)
(3 5.64335e-15 0)
(3 3.55645e-15 0)
(3 1.19758e-15 0)
(3 6.27368e-16 0)
(3 5.20851e-16 0)
(3 2.5143e-16 0)
(3 2.72945e-16 0)
(3 5.85326e-16 0)
(3 3.6825e-16 0)
(3 7.53904e-16 0)
(3 1.81736e-15 0)
(3 1.8466e-15 0)
(3 9.11197e-16 0)
(3 -2.40173e-16 0)
(3 -6.0562e-16 0)
(3 -3.8705e-16 0)
(3 4.61372e-16 0)
(3 1.45665e-15 0)
(3 1.66484e-15 0)
(3 1.06471e-15 0)
(3 -2.95282e-16 0)
(3 4.5514e-16 0)
(3 1.59882e-15 0)
(3 2.52878e-15 0)
(3 3.46555e-15 0)
(3 3.23193e-15 0)
(3 -1.03797e-17 0)
(3 -1.57067e-16 0)
(3 -3.89675e-16 0)
(3 -4.92201e-16 0)
(3 -7.44289e-16 0)
(3 -1.11863e-15 0)
(3 -1.23574e-15 0)
(3 -5.77538e-16 0)
(3 -6.84874e-16 0)
(3 -8.59216e-16 0)
(3 -7.16066e-16 0)
(3 2.51961e-16 0)
(3 1.16591e-16 0)
(3 -4.38185e-16 0)
(3 -5.79116e-16 0)
(3 -8.9655e-16 0)
(3 -8.20089e-16 0)
(3 -6.85649e-16 0)
(3 -8.70267e-16 0)
(3 -1.05498e-15 0)
(3 -5.27717e-16 0)
(3 -7.69641e-16 0)
(3 -1.29817e-15 0)
(3 -1.48366e-15 0)
(3 -1.83412e-15 0)
(3 -2.58442e-15 0)
(3 -9.66632e-16 0)
(3 4.25281e-16 0)
(3 2.86977e-16 0)
(3 8.16326e-16 0)
(3 1.06015e-15 0)
(3 7.11324e-16 0)
(3 1.25763e-16 0)
(3 -1.58872e-15 0)
(3 -2.4218e-15 0)
(3 -2.48912e-15 0)
(3 -2.07628e-15 0)
(3 -4.12696e-16 0)
(3 1.84474e-15 0)
(3 2.51241e-15 0)
(3 2.4158e-15 0)
(3 1.81237e-15 0)
(3 1.45813e-15 0)
(3 9.6152e-16 0)
(3 8.18669e-16 0)
(3 1.44536e-15 0)
(3 1.64067e-15 0)
(3 2.22707e-15 0)
(3 1.86368e-15 0)
(3 1.27616e-15 0)
(3 6.78142e-16 0)
(3 -9.14692e-17 0)
(3 -5.07409e-16 0)
(3 3.73766e-16 0)
(3 -7.53752e-16 0)
(3 -1.07125e-15 0)
(3 -1.11184e-15 0)
(3 -6.78266e-16 0)
(3 -3.12604e-16 0)
(3 9.51077e-16 0)
(3 1.47326e-15 0)
(3 8.02676e-16 0)
(3 7.54065e-16 0)
(3 9.47526e-16 0)
(3 8.3536e-16 0)
(3 1.48686e-15 0)
(3 3.04738e-15 0)
(3 3.48479e-15 0)
(3 4.066e-15 0)
(3 4.27879e-15 0)
(3 3.38057e-15 0)
(3 1.6161e-15 0)
(3 3.9518e-16 0)
(3 4.88417e-16 0)
(3 4.49496e-16 0)
(3 4.51216e-16 0)
(3 3.77495e-16 0)
(3 9.46114e-16 0)
(3 1.08968e-15 0)
(3 1.16243e-15 0)
(3 9.06458e-16 0)
(3 8.0225e-16 0)
(3 9.11957e-16 0)
(3 1.17801e-15 0)
(3 4.82024e-16 0)
(3 2.14759e-16 0)
(3 7.72371e-16 0)
(3 8.70617e-16 0)
(3 5.04724e-16 0)
(3 8.96666e-16 0)
(3 1.29623e-15 0)
(3 1.24933e-15 0)
(3 1.84163e-15 0)
(3 2.86883e-15 0)
(3 2.40793e-15 0)
(3 3.04214e-15 0)
(3 -4.3266e-17 0)
(3 -1.93082e-16 0)
(3 -3.47727e-16 0)
(3 -7.00168e-16 0)
(3 -5.96669e-16 0)
(3 -5.63963e-16 0)
(3 -3.68204e-16 0)
(3 -1.92209e-16 0)
(3 -3.67059e-16 0)
(3 -4.40271e-16 0)
(3 -2.69331e-16 0)
(3 -2.39061e-16 0)
(3 -4.97162e-16 0)
(3 -1.02214e-16 0)
(3 4.9968e-16 0)
(3 6.77552e-17 0)
(3 -6.21739e-16 0)
(3 -1.03731e-15 0)
(3 -1.37436e-15 0)
(3 -2.02638e-15 0)
(3 -3.15716e-15 0)
(3 -1.81443e-15 0)
(3 -9.95876e-16 0)
(3 -1.08908e-15 0)
(3 -8.36794e-16 0)
(3 -3.37633e-16 0)
(3 -7.24611e-16 0)
(3 4.48369e-16 0)
(3 4.5877e-16 0)
(3 3.23722e-16 0)
(3 2.54775e-16 0)
(3 7.74447e-16 0)
(3 1.48745e-16 0)
(3 -7.46823e-16 0)
(3 -1.77025e-15 0)
(3 -1.5803e-15 0)
(3 -1.48583e-15 0)
(3 -9.69916e-16 0)
(3 -5.57064e-16 0)
(3 -1.53183e-16 0)
(3 2.52267e-19 0)
(3 -1.13874e-15 0)
(3 -7.43097e-16 0)
(3 -9.71121e-17 0)
(3 -1.22029e-16 0)
(3 4.89648e-16 0)
(3 1.06497e-15 0)
(3 1.23579e-15 0)
(3 1.37506e-15 0)
(3 1.50939e-15 0)
(3 1.27836e-15 0)
(3 -3.80174e-17 0)
(3 -1.02849e-15 0)
(3 -8.50998e-16 0)
(3 -8.60086e-16 0)
(3 -7.39189e-16 0)
(3 -6.56949e-16 0)
(3 -7.18903e-16 0)
(3 -4.79146e-16 0)
(3 -1.34042e-16 0)
(3 7.82713e-16 0)
(3 1.628e-15 0)
(3 1.36471e-15 0)
(3 1.35468e-15 0)
(3 1.18239e-15 0)
(3 8.21653e-16 0)
(3 1.67275e-15 0)
(3 2.43211e-15 0)
(3 2.77691e-15 0)
(3 3.86613e-15 0)
(3 2.8918e-15 0)
(3 8.41369e-16 0)
(3 9.54899e-16 0)
(3 1.03994e-15 0)
(3 1.71723e-15 0)
(3 2.46084e-15 0)
(3 2.61698e-15 0)
(3 2.86776e-15 0)
(3 3.24729e-15 0)
(3 2.45913e-15 0)
(3 9.49657e-16 0)
(3 2.71313e-16 0)
(3 3.41633e-16 0)
(3 1.03708e-15 0)
(3 8.26361e-16 0)
(3 5.08543e-16 0)
(3 1.04777e-15 0)
(3 1.36319e-15 0)
(3 -1.08034e-16 0)
(3 8.6678e-16 0)
(3 2.74709e-15 0)
(3 1.9651e-15 0)
(3 1.16953e-15 0)
(3 6.83242e-16 0)
(3 7.67374e-16 0)
(3 1.08728e-15 0)
(3 -2.83211e-16 0)
(3 -2.84709e-16 0)
(3 -2.89296e-16 0)
(3 -6.14111e-17 0)
(3 -2.27857e-16 0)
(3 -2.73506e-16 0)
(3 -1.78009e-16 0)
(3 2.44873e-16 0)
(3 1.65098e-16 0)
(3 3.48181e-16 0)
(3 -1.95151e-16 0)
(3 -1.3468e-15 0)
(3 -8.46851e-16 0)
(3 -7.70286e-18 0)
(3 -1.21748e-17 0)
(3 -5.59137e-16 0)
(3 -7.71754e-16 0)
(3 -1.97851e-15 0)
(3 -2.10273e-15 0)
(3 -2.66463e-15 0)
(3 -2.39957e-15 0)
(3 -1.29256e-15 0)
(3 -2.95992e-16 0)
(3 7.45493e-16 0)
(3 7.54445e-16 0)
(3 5.4073e-16 0)
(3 -3.01137e-16 0)
(3 -1.8231e-16 0)
(3 5.60278e-16 0)
(3 -1.50051e-16 0)
(3 -1.12476e-15 0)
(3 -1.78674e-15 0)
(3 -1.31796e-15 0)
(3 -7.13892e-16 0)
(3 -8.34178e-16 0)
(3 -7.63179e-16 0)
(3 -7.99608e-16 0)
(3 -1.00937e-15 0)
(3 -2.10513e-15 0)
(3 -3.38425e-15 0)
(3 -3.24797e-15 0)
(3 -2.60066e-15 0)
(3 -2.02377e-15 0)
(3 5.37044e-18 0)
(3 1.0521e-15 0)
(3 1.60718e-15 0)
(3 2.08553e-15 0)
(3 2.45249e-15 0)
(3 1.03501e-15 0)
(3 2.31952e-16 0)
(3 -2.7872e-16 0)
(3 -1.27516e-15 0)
(3 -1.0432e-15 0)
(3 -1.1488e-15 0)
(3 -1.44911e-15 0)
(3 -1.22754e-15 0)
(3 -1.05763e-15 0)
(3 -8.26733e-16 0)
(3 -4.59546e-16 0)
(3 2.13495e-16 0)
(3 8.58941e-16 0)
(3 1.80971e-15 0)
(3 1.09836e-15 0)
(3 -2.03915e-16 0)
(3 -2.12848e-16 0)
(3 -1.18475e-16 0)
(3 1.95091e-16 0)
(3 7.05427e-16 0)
(3 1.04738e-15 0)
(3 2.27593e-15 0)
(3 3.57042e-15 0)
(3 3.38092e-15 0)
(3 2.07009e-15 0)
(3 -1.04874e-15 0)
(3 1.45193e-16 0)
(3 1.52732e-15 0)
(3 3.00693e-15 0)
(3 3.62691e-15 0)
(3 3.45638e-15 0)
(3 2.39896e-15 0)
(3 1.34692e-15 0)
(3 8.00371e-16 0)
(3 1.14078e-15 0)
(3 1.32098e-15 0)
(3 1.50054e-15 0)
(3 1.35061e-15 0)
(3 8.63488e-16 0)
(3 1.34618e-16 0)
(3 -1.00892e-15 0)
(3 -6.96282e-17 0)
(3 1.36248e-15 0)
(3 1.7633e-15 0)
(3 3.99644e-16 0)
(3 -9.15592e-16 0)
(3 -1.19194e-15 0)
(3 -1.09817e-15 0)
(3 -4.42044e-16 0)
(3 -2.33183e-16 0)
(3 4.6392e-16 0)
(3 1.01827e-15 0)
(3 8.98064e-16 0)
(3 2.45666e-16 0)
(3 -3.28207e-16 0)
(3 -8.57321e-16 0)
(3 -6.6733e-16 0)
(3 -2.48313e-16 0)
(3 -7.48529e-16 0)
(3 -1.48531e-15 0)
(3 -1.48007e-15 0)
(3 -1.25136e-15 0)
(3 -5.86319e-16 0)
(3 1.00481e-16 0)
(3 7.73812e-17 0)
(3 -1.26981e-15 0)
(3 -1.79863e-15 0)
(3 -1.89537e-15 0)
(3 -1.059e-15 0)
(3 -7.25839e-16 0)
(3 -1.66258e-18 0)
(3 1.16533e-15 0)
(3 2.47367e-15 0)
(3 1.66439e-15 0)
(3 8.74589e-16 0)
(3 -2.16199e-17 0)
(3 5.11687e-16 0)
(3 2.80687e-16 0)
(3 -4.40025e-16 0)
(3 -9.75348e-16 0)
(3 -1.49978e-15 0)
(3 -1.44355e-15 0)
(3 -4.70739e-16 0)
(3 -1.56472e-16 0)
(3 -6.60611e-16 0)
(3 -1.42567e-15 0)
(3 -1.46305e-15 0)
(3 -2.02682e-15 0)
(3 -1.85975e-15 0)
(3 -7.81738e-16 0)
(3 5.13636e-16 0)
(3 1.39231e-15 0)
(3 2.17821e-15 0)
(3 2.50084e-15 0)
(3 2.31333e-15 0)
(3 1.96147e-15 0)
(3 1.25975e-16 0)
(3 -1.49211e-15 0)
(3 -1.72495e-15 0)
(3 -1.59377e-15 0)
(3 -1.06007e-15 0)
(3 -1.02239e-15 0)
(3 -1.18721e-15 0)
(3 -9.72961e-16 0)
(3 -3.14724e-16 0)
(3 1.62957e-17 0)
(3 -1.26543e-15 0)
(3 -1.28737e-15 0)
(3 -2.30565e-16 0)
(3 -3.4588e-16 0)
(3 -4.85561e-16 0)
(3 -1.65036e-15 0)
(3 -2.36822e-15 0)
(3 -1.97463e-15 0)
(3 -8.95725e-16 0)
(3 -3.49984e-16 0)
(3 4.96604e-16 0)
(3 1.83688e-15 0)
(3 2.57079e-15 0)
(3 3.40663e-15 0)
(3 1.30626e-15 0)
(3 -2.45192e-16 0)
(3 -6.52276e-16 0)
(3 6.96534e-16 0)
(3 1.65038e-15 0)
(3 1.38296e-15 0)
(3 5.84498e-16 0)
(3 3.20235e-16 0)
(3 1.07643e-15 0)
(3 9.78585e-16 0)
(3 8.11007e-16 0)
(3 7.78454e-16 0)
(3 1.1932e-15 0)
(3 8.24949e-16 0)
(3 3.50313e-16 0)
(3 -8.28168e-16 0)
(3 -1.52662e-15 0)
(3 -1.20194e-15 0)
(3 -1.19184e-15 0)
(3 -2.6357e-16 0)
(3 2.91098e-16 0)
(3 -8.92666e-18 0)
(3 -1.17286e-15 0)
(3 -5.66289e-16 0)
(3 1.35809e-16 0)
(3 3.13494e-16 0)
(3 7.30192e-16 0)
(3 9.2565e-16 0)
(3 1.41726e-15 0)
(3 1.00421e-15 0)
(3 3.37107e-16 0)
(3 -5.99096e-16 0)
(3 -7.02591e-16 0)
(3 -2.96338e-16 0)
(3 -2.50232e-16 0)
(3 -5.3746e-16 0)
(3 -8.57416e-16 0)
(3 -6.01548e-16 0)
(3 8.43005e-17 0)
(3 9.30716e-16 0)
(3 5.24535e-16 0)
(3 -1.24627e-15 0)
(3 -2.06858e-15 0)
(3 -1.80188e-15 0)
(3 -8.91107e-16 0)
(3 -7.86553e-16 0)
(3 -2.77534e-16 0)
(3 -7.10125e-17 0)
(3 8.50037e-16 0)
(3 2.03269e-15 0)
(3 2.69076e-15 0)
(3 3.03633e-15 0)
(3 1.57824e-15 0)
(3 7.88202e-16 0)
(3 6.96989e-16 0)
(3 -1.74427e-16 0)
(3 -1.19497e-15 0)
(3 -1.12212e-15 0)
(3 -1.08273e-17 0)
(3 5.93692e-16 0)
(3 -2.97046e-16 0)
(3 -1.36089e-15 0)
(3 -1.69527e-15 0)
(3 -9.00273e-16 0)
(3 3.67092e-17 0)
(3 2.77778e-16 0)
(3 1.76353e-17 0)
(3 -3.67744e-16 0)
(3 1.39396e-16 0)
(3 4.91547e-16 0)
(3 4.45028e-16 0)
(3 -8.77052e-16 0)
(3 -2.337e-15 0)
(3 -3.30867e-15 0)
(3 -2.90719e-15 0)
(3 -2.70152e-15 0)
(3 -3.30785e-15 0)
(3 -2.99713e-15 0)
(3 -1.85719e-15 0)
(3 -4.07625e-16 0)
(3 2.35415e-16 0)
(3 -1.12879e-15 0)
(3 -1.79664e-15 0)
(3 -2.24652e-15 0)
(3 -1.6282e-15 0)
(3 -4.86147e-16 0)
(3 -6.2245e-16 0)
(3 -7.50902e-16 0)
(3 -1.46059e-15 0)
(3 -1.13606e-15 0)
(3 -3.85408e-16 0)
(3 -4.82538e-18 0)
(3 2.2032e-16 0)
(3 9.84813e-16 0)
(3 1.42064e-15 0)
(3 1.39187e-15 0)
(3 1.26576e-15 0)
(3 2.27052e-15 0)
(3 1.57376e-15 0)
(3 2.57664e-15 0)
(3 1.75648e-15 0)
(3 4.26908e-16 0)
(3 -1.66914e-15 0)
(3 -7.74351e-16 0)
(3 4.82991e-16 0)
(3 2.05272e-15 0)
(3 2.0743e-15 0)
(3 1.01808e-15 0)
(3 2.61707e-16 0)
(3 2.5608e-16 0)
(3 2.85233e-16 0)
(3 -8.79066e-16 0)
(3 -6.93232e-16 0)
(3 -1.16355e-15 0)
(3 -1.84141e-15 0)
(3 -1.33105e-15 0)
(3 4.27481e-17 0)
(3 9.72877e-16 0)
(3 1.5239e-15 0)
(3 6.0573e-16 0)
(3 8.08718e-16 0)
(3 4.89809e-16 0)
(3 2.27168e-16 0)
(3 1.91003e-16 0)
(3 5.99243e-16 0)
(3 5.13814e-16 0)
(3 1.34107e-16 0)
(3 -1.18681e-16 0)
(3 -6.78631e-16 0)
(3 -7.4869e-16 0)
(3 -1.64671e-16 0)
(3 4.20826e-16 0)
(3 2.85817e-16 0)
(3 -1.3985e-16 0)
(3 -4.38654e-16 0)
(3 6.5661e-17 0)
(3 2.75409e-16 0)
(3 -4.01209e-16 0)
(3 -1.31694e-15 0)
(3 -1.34541e-15 0)
(3 -3.82219e-16 0)
(3 3.91839e-16 0)
(3 7.46994e-16 0)
(3 8.64459e-16 0)
(3 8.19384e-16 0)
(3 2.02964e-15 0)
(3 3.54658e-15 0)
(3 3.95979e-15 0)
(3 3.32157e-15 0)
(3 1.81737e-15 0)
(3 1.39776e-15 0)
(3 1.49353e-15 0)
(3 1.1281e-15 0)
(3 6.25166e-16 0)
(3 7.97095e-16 0)
(3 5.56558e-16 0)
(3 5.02889e-16 0)
(3 1.36805e-16 0)
(3 -8.29491e-16 0)
(3 -1.05514e-15 0)
(3 -1.67832e-16 0)
(3 8.57944e-16 0)
(3 8.33769e-16 0)
(3 3.54006e-16 0)
(3 -8.6615e-16 0)
(3 -1.08758e-15 0)
(3 -9.34602e-16 0)
(3 -1.85258e-15 0)
(3 -1.72043e-15 0)
(3 -2.65137e-15 0)
(3 -3.42031e-15 0)
(3 -3.79166e-15 0)
(3 -2.66534e-15 0)
(3 -1.24834e-15 0)
(3 -1.03266e-15 0)
(3 -1.06897e-15 0)
(3 -1.53915e-15 0)
(3 -9.47479e-16 0)
(3 -2.46931e-16 0)
(3 -1.70336e-16 0)
(3 -3.2581e-16 0)
(3 -9.83487e-17 0)
(3 4.64103e-16 0)
(3 3.2898e-16 0)
(3 8.34274e-16 0)
(3 4.78243e-16 0)
(3 5.64899e-16 0)
(3 7.95623e-16 0)
(3 4.15169e-16 0)
(3 9.83141e-16 0)
(3 1.27185e-15 0)
(3 1.50023e-15 0)
(3 2.6789e-15 0)
(3 3.70317e-15 0)
(3 3.33229e-15 0)
(3 1.28967e-15 0)
(3 -5.10796e-16 0)
(3 -6.77497e-16 0)
(3 -7.3347e-16 0)
(3 -9.98717e-16 0)
(3 1.42932e-16 0)
(3 1.83364e-15 0)
(3 2.2892e-15 0)
(3 1.93713e-15 0)
(3 1.42832e-15 0)
(3 1.0887e-15 0)
(3 -1.80193e-16 0)
(3 -1.583e-15 0)
(3 -1.83933e-15 0)
(3 -9.50469e-16 0)
(3 -4.68251e-16 0)
(3 -5.73113e-16 0)
(3 -3.9776e-16 0)
(3 -2.0778e-16 0)
(3 1.60998e-17 0)
(3 1.87099e-17 0)
(3 -1.49488e-17 0)
(3 1.23976e-16 0)
(3 -3.98951e-16 0)
(3 -9.26844e-16 0)
(3 -8.60104e-16 0)
(3 -6.20838e-16 0)
(3 -1.41538e-16 0)
(3 2.56934e-16 0)
(3 2.30809e-16 0)
(3 -8.27973e-17 0)
(3 -5.91244e-16 0)
(3 -5.91796e-16 0)
(3 -6.6476e-16 0)
(3 -4.09935e-16 0)
(3 -4.32237e-16 0)
(3 -2.15174e-16 0)
(3 5.77176e-16 0)
(3 -3.35806e-16 0)
(3 -7.85557e-16 0)
(3 -7.05008e-16 0)
(3 2.40395e-16 0)
(3 1.29469e-15 0)
(3 9.76973e-16 0)
(3 -1.17208e-16 0)
(3 2.77495e-16 0)
(3 8.24298e-16 0)
(3 1.67133e-15 0)
(3 2.55499e-15 0)
(3 1.64217e-15 0)
(3 3.01311e-16 0)
(3 -7.54633e-16 0)
(3 2.89471e-16 0)
(3 1.19681e-15 0)
(3 1.81509e-15 0)
(3 1.963e-15 0)
(3 2.15897e-15 0)
(3 2.32168e-15 0)
(3 9.71851e-16 0)
(3 4.36503e-17 0)
(3 -7.9722e-16 0)
(3 -6.4407e-16 0)
(3 -9.43117e-17 0)
(3 4.46942e-16 0)
(3 8.23892e-16 0)
(3 -2.15628e-16 0)
(3 -2.13269e-15 0)
(3 -2.64644e-15 0)
(3 -1.19614e-15 0)
(3 -8.82899e-16 0)
(3 -6.01746e-16 0)
(3 -7.61641e-16 0)
(3 -1.1071e-15 0)
(3 -4.54138e-16 0)
(3 4.31414e-16 0)
(3 8.35544e-16 0)
(3 7.77124e-17 0)
(3 -2.22112e-16 0)
(3 -2.37341e-16 0)
(3 1.03856e-19 0)
(3 3.34548e-16 0)
(3 2.52306e-16 0)
(3 -7.55097e-16 0)
(3 -8.43533e-16 0)
(3 1.47881e-15 0)
(3 1.94814e-15 0)
(3 1.75473e-15 0)
(3 6.3487e-16 0)
(3 -2.13036e-16 0)
(3 -1.51817e-17 0)
(3 6.45955e-16 0)
(3 4.91251e-16 0)
(3 5.88171e-16 0)
(3 1.0722e-15 0)
(3 1.47929e-15 0)
(3 1.61322e-15 0)
(3 4.19076e-16 0)
(3 2.37062e-16 0)
(3 5.21657e-16 0)
(3 6.05265e-16 0)
(3 6.18119e-16 0)
(3 1.365e-15 0)
(3 1.39562e-15 0)
(3 1.2172e-15 0)
(3 1.68743e-15 0)
(3 1.78296e-15 0)
(3 7.28301e-16 0)
(3 -5.4288e-16 0)
(3 -7.53784e-16 0)
(3 -1.18183e-15 0)
(3 -1.23669e-15 0)
(3 -7.69561e-16 0)
(3 -8.87095e-16 0)
(3 -7.92842e-16 0)
(3 -6.54251e-16 0)
(3 -1.61173e-15 0)
(3 -2.0087e-15 0)
(3 -3.15933e-16 0)
(3 -7.54233e-16 0)
(3 -9.12077e-16 0)
(3 -1.07301e-15 0)
(3 -1.28296e-15 0)
(3 -1.20813e-15 0)
(3 -3.17719e-16 0)
(3 9.6917e-17 0)
(3 3.55538e-16 0)
(3 3.88183e-16 0)
(3 -3.77319e-16 0)
(3 -8.06811e-16 0)
(3 -6.68646e-16 0)
(3 -6.04222e-16 0)
(3 -8.8031e-16 0)
(3 -1.62722e-15 0)
(3 -1.91411e-15 0)
(3 -5.97157e-16 0)
(3 -4.52231e-16 0)
(3 3.45997e-16 0)
(3 8.02528e-16 0)
(3 1.33657e-15 0)
(3 1.12892e-15 0)
(3 2.33917e-16 0)
(3 2.62594e-16 0)
(3 -3.80759e-16 0)
(3 -7.53971e-16 0)
(3 -8.48859e-17 0)
(3 -1.03816e-15 0)
(3 -1.91904e-15 0)
(3 -1.93421e-15 0)
(3 -8.43736e-16 0)
(3 1.05471e-15 0)
(3 2.00585e-15 0)
(3 9.31369e-16 0)
(3 -1.08312e-16 0)
(3 -7.72991e-16 0)
(3 -8.21603e-16 0)
(3 -5.8189e-16 0)
(3 -6.5854e-16 0)
(3 -1.63986e-15 0)
(3 -2.03987e-15 0)
(3 -2.22309e-15 0)
(3 -1.55112e-15 0)
(3 -9.64438e-16 0)
(3 -1.03785e-15 0)
(3 -1.09108e-15 0)
(3 -3.12028e-18 0)
(3 -6.31119e-17 0)
(3 -3.95885e-17 0)
(3 1.09402e-15 0)
(3 1.06291e-15 0)
(3 3.94925e-16 0)
(3 6.92978e-17 0)
(3 8.85663e-16 0)
(3 8.57063e-16 0)
(3 4.53886e-16 0)
(3 1.45673e-16 0)
(3 2.86802e-16 0)
(3 1.55048e-16 0)
(3 9.49936e-17 0)
(3 -8.70585e-16 0)
(3 -9.14418e-16 0)
(3 4.78088e-17 0)
(3 1.2091e-15 0)
(3 1.79218e-15 0)
(3 8.10619e-16 0)
(3 -1.01558e-16 0)
(3 -9.84257e-16 0)
(3 -1.29078e-15 0)
(3 -8.99954e-16 0)
(3 1.32297e-15 0)
(3 1.54446e-15 0)
(3 2.14745e-15 0)
(3 2.59722e-15 0)
(3 2.04383e-15 0)
(3 1.34258e-15 0)
(3 1.2934e-15 0)
(3 2.14497e-15 0)
(3 3.54217e-15 0)
(3 2.73947e-15 0)
(3 1.88185e-15 0)
(3 1.13586e-15 0)
(3 1.05741e-15 0)
(3 4.35314e-16 0)
(3 -1.25031e-15 0)
(3 -2.82369e-15 0)
(3 -2.48867e-15 0)
(3 -1.76446e-15 0)
(3 -2.40713e-15 0)
(3 -2.79529e-15 0)
(3 -2.9591e-15 0)
(3 -2.97106e-15 0)
(3 -2.42889e-15 0)
(3 -2.70317e-15 0)
(3 -3.09457e-15 0)
(3 -9.95271e-17 0)
(3 -1.34698e-16 0)
(3 2.76748e-16 0)
(3 4.67922e-16 0)
(3 1.91836e-16 0)
(3 2.54926e-16 0)
(3 1.70972e-16 0)
(3 -1.66033e-16 0)
(3 4.05628e-17 0)
(3 4.14469e-16 0)
(3 6.88896e-16 0)
(3 7.31161e-16 0)
(3 -3.73988e-16 0)
(3 -6.89217e-16 0)
(3 -1.32825e-15 0)
(3 -1.40781e-15 0)
(3 -1.33445e-15 0)
(3 -6.09146e-16 0)
(3 3.17449e-16 0)
(3 1.03044e-15 0)
(3 1.25003e-15 0)
(3 3.5744e-16 0)
(3 -1.96948e-17 0)
(3 2.4484e-16 0)
(3 -5.52338e-16 0)
(3 -8.61175e-16 0)
(3 -1.23396e-15 0)
(3 -1.53447e-15 0)
(3 -1.86495e-15 0)
(3 -2.5872e-15 0)
(3 -2.72291e-15 0)
(3 -9.22204e-16 0)
(3 2.12667e-16 0)
(3 9.95474e-16 0)
(3 1.21993e-15 0)
(3 6.39107e-16 0)
(3 4.33385e-16 0)
(3 1.03476e-15 0)
(3 1.31794e-15 0)
(3 1.88757e-15 0)
(3 1.37129e-16 0)
(3 -1.21186e-16 0)
(3 2.98568e-17 0)
(3 1.18343e-16 0)
(3 1.55229e-17 0)
(3 -6.22714e-17 0)
(3 -5.15643e-16 0)
(3 -1.12969e-15 0)
(3 6.9767e-18 0)
(3 7.98303e-16 0)
(3 9.90294e-16 0)
(3 1.36734e-15 0)
(3 1.46531e-15 0)
(3 7.21975e-16 0)
(3 5.9923e-16 0)
(3 6.45227e-16 0)
(3 1.15978e-16 0)
(3 -4.79053e-16 0)
(3 -1.2672e-15 0)
(3 -1.23575e-15 0)
(3 -1.11308e-15 0)
(3 -5.40022e-16 0)
(3 4.66028e-16 0)
(3 -5.65828e-16 0)
(3 2.15018e-16 0)
(3 7.2383e-16 0)
(3 5.79898e-16 0)
(3 4.97146e-16 0)
(3 -6.42719e-16 0)
(3 -1.023e-15 0)
(3 -6.44978e-16 0)
(3 1.48126e-15 0)
(3 2.49613e-15 0)
(3 3.1562e-15 0)
(3 4.34623e-15 0)
(3 2.44523e-15 0)
(3 9.6161e-16 0)
(3 2.46839e-15 0)
(3 4.11578e-15 0)
(3 4.64242e-15 0)
(3 3.56636e-15 0)
(3 2.77248e-15 0)
(3 9.88251e-16 0)
(3 -1.43841e-15 0)
(3 -2.06967e-15 0)
(3 -2.1529e-15 0)
(3 -1.93266e-15 0)
(3 -1.73045e-15 0)
(3 -2.47381e-15 0)
(3 -2.73409e-15 0)
(3 -3.29861e-15 0)
(3 -3.55065e-15 0)
(3 -4.31269e-15 0)
(3 -3.74706e-15 0)
(3 -2.18559e-15 0)
(3 -1.38302e-15 0)
(3 7.22726e-17 0)
(3 6.05421e-16 0)
(3 8.82874e-16 0)
(3 5.06595e-16 0)
(3 8.14868e-16 0)
(3 8.51594e-16 0)
(3 5.01325e-16 0)
(3 3.93239e-16 0)
(3 2.03289e-16 0)
(3 9.81216e-17 0)
(3 1.29573e-16 0)
(3 1.23218e-16 0)
(3 -1.21912e-15 0)
(3 -1.8631e-15 0)
(3 -1.67489e-15 0)
(3 -1.43339e-15 0)
(3 -7.55691e-16 0)
(3 -3.71493e-16 0)
(3 -5.69702e-16 0)
(3 -6.88544e-16 0)
(3 -7.55527e-16 0)
(3 -1.02435e-15 0)
(3 -7.72653e-16 0)
(3 -9.36454e-16 0)
(3 -7.43851e-16 0)
(3 -9.9296e-17 0)
(3 -7.01017e-16 0)
(3 -1.64128e-15 0)
(3 -1.80121e-15 0)
(3 -1.62186e-15 0)
(3 -2.00177e-15 0)
(3 -2.11787e-15 0)
(3 -1.30673e-15 0)
(3 -1.9999e-16 0)
(3 2.14617e-15 0)
(3 1.03493e-15 0)
(3 -4.29575e-16 0)
(3 -6.25177e-16 0)
(3 -2.87915e-16 0)
(3 1.31074e-15 0)
(3 1.59366e-15 0)
(3 2.87887e-15 0)
(3 3.87793e-15 0)
(3 3.61525e-15 0)
(3 2.02051e-15 0)
(3 1.47217e-15 0)
(3 1.20444e-15 0)
(3 2.48088e-16 0)
(3 1.34416e-16 0)
(3 3.5901e-16 0)
(3 1.07154e-15 0)
(3 1.08266e-15 0)
(3 8.14259e-16 0)
(3 5.33468e-16 0)
(3 -3.50989e-16 0)
(3 2.5157e-17 0)
(3 8.30498e-17 0)
(3 -9.66767e-16 0)
(3 -1.15008e-15 0)
(3 -1.2534e-15 0)
(3 -1.16226e-15 0)
(3 -5.95594e-16 0)
(3 1.14743e-16 0)
(3 8.32918e-16 0)
(3 1.13344e-15 0)
(3 1.28667e-15 0)
(3 1.02182e-15 0)
(3 7.36869e-16 0)
(3 -1.42018e-17 0)
(3 -1.41721e-16 0)
(3 5.51023e-16 0)
(3 2.46807e-15 0)
(3 4.36964e-15 0)
(3 4.96791e-15 0)
(3 4.77137e-15 0)
(3 4.08413e-15 0)
(3 3.01744e-15 0)
(3 3.56478e-15 0)
(3 3.79606e-15 0)
(3 3.37187e-15 0)
(3 1.28243e-15 0)
(3 4.19707e-17 0)
(3 -1.74866e-16 0)
(3 -4.07725e-16 0)
(3 -9.53414e-16 0)
(3 -1.45403e-15 0)
(3 -1.52231e-15 0)
(3 -1.28425e-15 0)
(3 -1.71114e-15 0)
(3 -2.90278e-15 0)
(3 -3.32058e-15 0)
(3 -3.38354e-15 0)
(3 -3.22083e-15 0)
(3 -1.51554e-15 0)
(3 -4.10167e-16 0)
(3 3.19868e-16 0)
(3 -8.42592e-18 0)
(3 -2.10774e-16 0)
(3 -7.92652e-16 0)
(3 -1.09216e-15 0)
(3 -7.77036e-16 0)
(3 -5.9212e-16 0)
(3 -2.56632e-16 0)
(3 2.80288e-16 0)
(3 8.23674e-16 0)
(3 5.5083e-16 0)
(3 6.11181e-16 0)
(3 8.48542e-16 0)
(3 7.76515e-16 0)
(3 -7.01214e-16 0)
(3 -1.24136e-15 0)
(3 -1.30223e-15 0)
(3 -1.07747e-15 0)
(3 -9.34525e-16 0)
(3 -1.25314e-15 0)
(3 -1.54688e-15 0)
(3 -1.74097e-15 0)
(3 -1.55563e-15 0)
(3 -1.40313e-15 0)
(3 -1.25001e-15 0)
(3 -2.99286e-16 0)
(3 -5.35041e-16 0)
(3 -1.42846e-15 0)
(3 -1.99465e-15 0)
(3 -1.77116e-15 0)
(3 -1.05954e-15 0)
(3 -9.99301e-16 0)
(3 -4.07989e-16 0)
(3 1.70501e-15 0)
(3 2.05543e-15 0)
(3 3.66385e-15 0)
(3 3.89253e-15 0)
(3 7.25037e-16 0)
(3 6.26552e-16 0)
(3 1.15257e-15 0)
(3 2.40963e-15 0)
(3 3.98085e-15 0)
(3 4.50013e-15 0)
(3 4.35613e-15 0)
(3 3.76169e-15 0)
(3 2.86155e-15 0)
(3 2.50471e-15 0)
(3 2.24612e-15 0)
(3 1.03368e-15 0)
(3 -8.06226e-17 0)
(3 -1.59231e-16 0)
(3 5.95954e-16 0)
(3 1.45267e-15 0)
(3 1.29863e-15 0)
(3 -2.46082e-16 0)
(3 -7.77348e-16 0)
(3 -8.08751e-16 0)
(3 -4.62576e-16 0)
(3 2.26962e-16 0)
(3 3.75371e-16 0)
(3 1.11219e-16 0)