/*--------------------------------*- C++ -*----------------------------------*\
  =========                 |
  \\      /  F ield         | OpenFOAM: The Open Source CFD Toolbox
   \\    /   O peration     | Website:  https://openfoam.org
    \\  /    A nd           | Version:  7
     \\/     M anipulation  |
\*---------------------------------------------------------------------------*/
FoamFile
{
    version     2.0;
    format      ascii;
    class       volVectorField;
    location    "1.7";
    object      U;
}
// * * * * * * * * * * * * * * * * * * * * * * * * * * * * * * * * * * * * * //

dimensions      [0 1 -1 0 0 0 0];

internalField   nonuniform List<vector> 
73728
(
(3 -1.05589e-17 0)
(3 -1.70014e-16 0)
(3 -8.50453e-16 0)
(3 -9.05442e-16 0)
(3 -6.04011e-16 0)
(3 -6.1119e-16 0)
(3 -7.70638e-16 0)
(3 -4.89779e-17 0)
(3 -5.12088e-16 0)
(3 -5.49596e-16 0)
(3 -4.5019e-16 0)
(3 -2.08881e-17 0)
(3 2.03051e-16 0)
(3 -2.27219e-16 0)
(3 -2.69524e-16 0)
(3 -4.20995e-16 0)
(3 -7.00824e-16 0)
(3 -6.70231e-16 0)
(3 -2.38829e-16 0)
(3 2.46229e-16 0)
(3 2.979e-16 0)
(3 2.19998e-16 0)
(3 1.27913e-15 0)
(3 1.56028e-15 0)
(3 1.89699e-15 0)
(3 8.20587e-16 0)
(3 3.09639e-16 0)
(3 6.29335e-17 0)
(3 -1.14849e-16 0)
(3 -4.70279e-16 0)
(3 -7.56999e-16 0)
(3 -1.33406e-16 0)
(3 1.0126e-15 0)
(3 1.74626e-15 0)
(3 1.95753e-15 0)
(3 4.0651e-16 0)
(3 1.43764e-16 0)
(3 1.06507e-16 0)
(3 2.25423e-16 0)
(3 2.58979e-16 0)
(3 -1.23011e-16 0)
(3 -1.30027e-15 0)
(3 -1.3845e-15 0)
(3 -4.90205e-16 0)
(3 5.4028e-16 0)
(3 6.16535e-16 0)
(3 6.3334e-16 0)
(3 2.33315e-16 0)
(3 -2.45061e-16 0)
(3 -7.03684e-16 0)
(3 -8.39434e-16 0)
(3 2.71337e-17 0)
(3 4.32544e-17 0)
(3 -2.85192e-16 0)
(3 3.38179e-16 0)
(3 9.14335e-16 0)
(3 2.59601e-15 0)
(3 3.03901e-15 0)
(3 3.03383e-15 0)
(3 2.86054e-15 0)
(3 2.33212e-15 0)
(3 1.92105e-15 0)
(3 1.22525e-15 0)
(3 1.00805e-15 0)
(3 5.57191e-16 0)
(3 2.95695e-16 0)
(3 -1.68157e-16 0)
(3 -1.19809e-16 0)
(3 1.16369e-16 0)
(3 3.39789e-16 0)
(3 -3.82691e-16 0)
(3 -1.50962e-15 0)
(3 -1.31431e-15 0)
(3 -1.33447e-15 0)
(3 -1.21584e-15 0)
(3 -1.19651e-15 0)
(3 -1.802e-15 0)
(3 -1.43092e-15 0)
(3 -8.37797e-16 0)
(3 4.18707e-16 0)
(3 1.88057e-16 0)
(3 -2.17852e-15 0)
(3 -1.944e-15 0)
(3 -1.02542e-15 0)
(3 -4.83306e-16 0)
(3 -5.97426e-17 0)
(3 2.73087e-16 0)
(3 1.37397e-16 0)
(3 -7.17527e-17 0)
(3 -1.44893e-17 0)
(3 2.77065e-16 0)
(3 1.15086e-15 0)
(3 1.49908e-15 0)
(3 1.72687e-15 0)
(3 1.72119e-15 0)
(3 1.50919e-15 0)
(3 -2.55063e-16 0)
(3 -8.75182e-16 0)
(3 -1.0853e-15 0)
(3 -1.06315e-15 0)
(3 -9.03896e-16 0)
(3 -3.29934e-16 0)
(3 -1.95552e-16 0)
(3 1.67383e-16 0)
(3 9.08659e-17 0)
(3 3.05415e-17 0)
(3 2.01446e-16 0)
(3 6.94016e-16 0)
(3 1.0638e-15 0)
(3 2.70246e-16 0)
(3 -3.465e-16 0)
(3 -1.80049e-16 0)
(3 -2.03237e-16 0)
(3 9.90918e-17 0)
(3 7.16376e-16 0)
(3 1.14433e-15 0)
(3 1.26053e-15 0)
(3 1.12533e-15 0)
(3 1.7464e-15 0)
(3 2.29268e-15 0)
(3 1.83837e-15 0)
(3 1.09953e-15 0)
(3 1.24924e-17 0)
(3 -4.60188e-16 0)
(3 -1.55208e-16 0)
(3 -4.47374e-16 0)
(3 -7.93227e-16 0)
(3 -7.13973e-16 0)
(3 2.13491e-15 0)
(3 3.37391e-15 0)
(3 3.17965e-15 0)
(3 1.08474e-15 0)
(3 9.8158e-16 0)
(3 1.21443e-15 0)
(3 4.12959e-16 0)
(3 4.93396e-16 0)
(3 -3.26724e-17 0)
(3 -1.24518e-15 0)
(3 -1.51221e-15 0)
(3 -7.44003e-16 0)
(3 5.36123e-16 0)
(3 7.38629e-16 0)
(3 6.3531e-16 0)
(3 -5.04461e-18 0)
(3 -4.96372e-16 0)
(3 -7.69477e-16 0)
(3 -4.69862e-16 0)
(3 7.16803e-16 0)
(3 9.85654e-16 0)
(3 6.5615e-16 0)
(3 1.66087e-15 0)
(3 3.10408e-15 0)
(3 3.85576e-15 0)
(3 2.95817e-15 0)
(3 2.83009e-15 0)
(3 2.95426e-15 0)
(3 1.93113e-15 0)
(3 9.56545e-16 0)
(3 6.93922e-16 0)
(3 4.20376e-16 0)
(3 -2.39331e-16 0)
(3 -6.57543e-16 0)
(3 -1.35126e-15 0)
(3 -1.23327e-15 0)
(3 -1.12581e-15 0)
(3 -1.01239e-15 0)
(3 -2.3356e-15 0)
(3 -2.73321e-15 0)
(3 -2.63519e-15 0)
(3 -2.7044e-15 0)
(3 -2.77286e-15 0)
(3 -1.92835e-15 0)
(3 -1.64097e-15 0)
(3 -1.11252e-15 0)
(3 -1.28827e-17 0)
(3 7.24818e-16 0)
(3 -1.75793e-15 0)
(3 -4.3111e-15 0)
(3 -3.15193e-15 0)
(3 -1.32223e-15 0)
(3 5.47578e-17 0)
(3 1.29795e-15 0)
(3 1.34357e-15 0)
(3 1.0479e-15 0)
(3 5.66603e-16 0)
(3 8.28483e-16 0)
(3 2.30877e-15 0)
(3 4.40725e-15 0)
(3 5.22942e-15 0)
(3 5.79809e-15 0)
(3 4.84781e-15 0)
(3 3.98792e-15 0)
(3 -1.07615e-16 0)
(3 -4.19207e-16 0)
(3 -6.8196e-16 0)
(3 -5.45523e-16 0)
(3 -5.05366e-16 0)
(3 -2.79584e-16 0)
(3 -4.10511e-16 0)
(3 -6.76298e-16 0)
(3 -9.75289e-17 0)
(3 3.56477e-16 0)
(3 9.32298e-16 0)
(3 1.3399e-15 0)
(3 1.6199e-15 0)
(3 9.17319e-16 0)
(3 1.81523e-16 0)
(3 2.75782e-16 0)
(3 1.31132e-15 0)
(3 1.4277e-15 0)
(3 1.14857e-15 0)
(3 1.14713e-15 0)
(3 1.59719e-15 0)
(3 1.95088e-15 0)
(3 2.16541e-15 0)
(3 2.92336e-15 0)
(3 3.13282e-15 0)
(3 2.50861e-15 0)
(3 1.82168e-15 0)
(3 1.89198e-15 0)
(3 2.04679e-15 0)
(3 9.19763e-16 0)
(3 -1.16512e-16 0)
(3 4.34513e-18 0)
(3 3.6063e-16 0)
(3 6.60704e-16 0)
(3 1.62564e-15 0)
(3 1.3222e-15 0)
(3 6.47871e-16 0)
(3 1.29962e-15 0)
(3 9.26356e-16 0)
(3 -1.26293e-16 0)
(3 5.54993e-17 0)
(3 1.02553e-16 0)
(3 -1.44395e-15 0)
(3 -1.42989e-15 0)
(3 -1.84314e-17 0)
(3 1.18957e-15 0)
(3 -2.92559e-16 0)
(3 -1.12584e-15 0)
(3 -1.23707e-15 0)
(3 -1.06002e-15 0)
(3 -8.99886e-16 0)
(3 -1.26367e-15 0)
(3 2.99827e-16 0)
(3 1.794e-15 0)
(3 2.95669e-15 0)
(3 2.1426e-15 0)
(3 3.22529e-15 0)
(3 3.46437e-15 0)
(3 2.63706e-15 0)
(3 2.39593e-15 0)
(3 2.50224e-15 0)
(3 2.48769e-15 0)
(3 1.72625e-15 0)
(3 1.08396e-15 0)
(3 5.43729e-16 0)
(3 6.06469e-16 0)
(3 1.84578e-15 0)
(3 -2.76716e-17 0)
(3 -1.69591e-15 0)
(3 -1.39426e-15 0)
(3 -1.71607e-15 0)
(3 -3.35807e-15 0)
(3 -4.4937e-15 0)
(3 -4.70504e-15 0)
(3 -4.13133e-15 0)
(3 -2.77138e-15 0)
(3 -1.06082e-15 0)
(3 -9.62591e-17 0)
(3 4.95381e-16 0)
(3 -4.23843e-16 0)
(3 -3.22491e-15 0)
(3 -4.00771e-15 0)
(3 -2.44641e-15 0)
(3 -7.42705e-16 0)
(3 -3.6412e-17 0)
(3 1.03541e-15 0)
(3 6.24385e-16 0)
(3 -1.82092e-16 0)
(3 -2.47837e-16 0)
(3 8.93791e-16 0)
(3 1.50819e-15 0)
(3 2.84094e-15 0)
(3 4.7021e-15 0)
(3 3.97045e-15 0)
(3 3.49162e-15 0)
(3 2.9244e-15 0)
(3 9.26094e-17 0)
(3 1.51337e-16 0)
(3 -7.68631e-17 0)
(3 3.90961e-16 0)
(3 7.2911e-16 0)
(3 6.62071e-16 0)
(3 4.90361e-17 0)
(3 -8.14711e-16 0)
(3 -1.16368e-15 0)
(3 -9.96547e-16 0)
(3 -5.72244e-16 0)
(3 -2.43855e-17 0)
(3 4.20478e-17 0)
(3 -1.62451e-16 0)
(3 -2.77008e-16 0)
(3 4.32784e-16 0)
(3 8.97918e-16 0)
(3 9.35294e-16 0)
(3 5.78167e-16 0)
(3 8.11195e-16 0)
(3 8.71699e-16 0)
(3 1.6251e-15 0)
(3 2.19489e-15 0)
(3 1.83767e-15 0)
(3 1.76328e-15 0)
(3 1.62428e-15 0)
(3 1.70377e-15 0)
(3 1.96879e-15 0)
(3 6.89759e-16 0)
(3 -2.91552e-17 0)
(3 8.94454e-17 0)
(3 -4.43087e-16 0)
(3 -3.53395e-16 0)
(3 -1.69742e-16 0)
(3 1.20265e-15 0)
(3 1.09306e-15 0)
(3 -3.41546e-16 0)
(3 -4.49614e-16 0)
(3 2.54728e-16 0)
(3 -3.02871e-16 0)
(3 -9.52122e-17 0)
(3 3.09555e-16 0)
(3 -8.92041e-16 0)
(3 -1.13191e-15 0)
(3 -3.74017e-16 0)
(3 1.34546e-15 0)
(3 2.16125e-16 0)
(3 -1.15557e-16 0)
(3 -1.28158e-15 0)
(3 -1.73314e-15 0)
(3 -1.32975e-15 0)
(3 -1.73197e-15 0)
(3 -2.17869e-15 0)
(3 1.09542e-15 0)
(3 1.47768e-15 0)
(3 1.83388e-15 0)
(3 2.1789e-15 0)
(3 2.28384e-15 0)
(3 1.7518e-15 0)
(3 1.23693e-15 0)
(3 1.74665e-15 0)
(3 2.35938e-15 0)
(3 2.14282e-15 0)
(3 7.81617e-16 0)
(3 8.89073e-16 0)
(3 1.91904e-15 0)
(3 3.70746e-15 0)
(3 1.18681e-15 0)
(3 -9.62227e-16 0)
(3 -9.81557e-16 0)
(3 -1.43813e-15 0)
(3 -3.68164e-15 0)
(3 -5.47763e-15 0)
(3 -5.12524e-15 0)
(3 -3.91664e-15 0)
(3 -3.07245e-15 0)
(3 -1.67267e-15 0)
(3 -7.18501e-16 0)
(3 -9.40662e-16 0)
(3 -1.55309e-15 0)
(3 -2.43817e-15 0)
(3 -2.3641e-15 0)
(3 -1.51558e-15 0)
(3 8.5124e-17 0)
(3 6.81224e-16 0)
(3 4.31474e-16 0)
(3 5.11417e-16 0)
(3 1.54356e-16 0)
(3 6.27663e-16 0)
(3 1.71305e-15 0)
(3 1.51716e-15 0)
(3 1.56668e-15 0)
(3 1.24004e-15 0)
(3 1.00517e-15 0)
(3 1.07243e-15 0)
(3 1.26851e-15 0)
(3 9.79937e-17 0)
(3 6.26804e-16 0)
(3 1.4267e-15 0)
(3 1.63483e-15 0)
(3 1.21796e-15 0)
(3 5.4e-16 0)
(3 3.18386e-16 0)
(3 -6.05852e-16 0)
(3 -1.01938e-15 0)
(3 -9.69424e-16 0)
(3 -4.21597e-16 0)
(3 -5.88697e-16 0)
(3 -1.49526e-15 0)
(3 -1.46179e-15 0)
(3 -1.38322e-15 0)
(3 -7.42886e-16 0)
(3 -5.59984e-16 0)
(3 -1.48085e-16 0)
(3 7.79658e-16 0)
(3 1.25234e-15 0)
(3 1.18053e-15 0)
(3 1.85602e-15 0)
(3 1.46584e-15 0)
(3 1.35248e-15 0)
(3 1.12015e-15 0)
(3 7.93327e-16 0)
(3 1.01419e-15 0)
(3 1.69003e-15 0)
(3 1.01855e-16 0)
(3 -7.9444e-16 0)
(3 -4.51001e-16 0)
(3 -4.08602e-16 0)
(3 -2.40445e-16 0)
(3 -1.51603e-16 0)
(3 -7.31336e-16 0)
(3 -9.94209e-16 0)
(3 -1.79593e-15 0)
(3 -1.10611e-15 0)
(3 -4.68938e-16 0)
(3 -1.0394e-15 0)
(3 -6.18693e-16 0)
(3 -9.39151e-16 0)
(3 -5.36029e-16 0)
(3 -6.61597e-16 0)
(3 -3.26097e-16 0)
(3 1.10249e-15 0)
(3 2.81481e-15 0)
(3 3.10522e-15 0)
(3 1.35748e-15 0)
(3 5.64447e-16 0)
(3 1.75277e-16 0)
(3 -2.35232e-17 0)
(3 -6.2117e-16 0)
(3 8.56198e-16 0)
(3 1.01376e-15 0)
(3 4.06207e-16 0)
(3 -1.6018e-16 0)
(3 -6.70064e-16 0)
(3 -2.09036e-16 0)
(3 5.08836e-16 0)
(3 1.01817e-15 0)
(3 1.46848e-15 0)
(3 1.63249e-15 0)
(3 1.0074e-15 0)
(3 1.61006e-15 0)
(3 3.07604e-15 0)
(3 4.16142e-15 0)
(3 3.51046e-15 0)
(3 1.60685e-15 0)
(3 7.39002e-16 0)
(3 9.56234e-16 0)
(3 5.35159e-16 0)
(3 -1.02466e-15 0)
(3 -1.40946e-15 0)
(3 -1.60666e-15 0)
(3 -1.4298e-15 0)
(3 -1.29154e-15 0)
(3 -1.60402e-15 0)
(3 -1.77456e-15 0)
(3 -1.73945e-15 0)
(3 -1.92783e-15 0)
(3 -7.43564e-16 0)
(3 -4.91655e-17 0)
(3 9.45217e-16 0)
(3 1.82542e-15 0)
(3 1.74638e-15 0)
(3 2.37257e-15 0)
(3 3.24649e-15 0)
(3 3.66904e-15 0)
(3 3.1004e-15 0)
(3 2.72651e-15 0)
(3 1.61649e-15 0)
(3 3.67128e-16 0)
(3 9.7305e-16 0)
(3 1.16711e-15 0)
(3 1.34549e-15 0)
(3 -5.31956e-17 0)
(3 1.71378e-16 0)
(3 1.87732e-16 0)
(3 5.74939e-17 0)
(3 -4.55399e-16 0)
(3 -9.74281e-16 0)
(3 -1.08025e-15 0)
(3 -9.92632e-16 0)
(3 -8.10251e-16 0)
(3 -8.06834e-16 0)
(3 -9.71542e-16 0)
(3 -1.38422e-15 0)
(3 -1.37684e-15 0)
(3 -9.73107e-16 0)
(3 -2.23401e-16 0)
(3 -3.63269e-16 0)
(3 -3.40442e-16 0)
(3 -6.21949e-19 0)
(3 4.14571e-16 0)
(3 6.93839e-16 0)
(3 1.14402e-15 0)
(3 1.05951e-15 0)
(3 4.354e-16 0)
(3 7.09021e-16 0)
(3 7.03286e-16 0)
(3 7.5025e-16 0)
(3 1.41114e-15 0)
(3 2.37786e-15 0)
(3 1.54255e-15 0)
(3 3.50855e-16 0)
(3 1.83222e-16 0)
(3 -1.52069e-16 0)
(3 -8.66837e-16 0)
(3 -1.3753e-15 0)
(3 -2.53696e-15 0)
(3 -2.51635e-15 0)
(3 -2.47209e-15 0)
(3 -1.2618e-15 0)
(3 -1.11415e-15 0)
(3 -1.21345e-15 0)
(3 -1.12996e-15 0)
(3 -1.36449e-15 0)
(3 -1.19949e-15 0)
(3 -1.53453e-15 0)
(3 -1.14518e-15 0)
(3 -1.70433e-16 0)
(3 1.24245e-15 0)
(3 2.13241e-15 0)
(3 2.57404e-15 0)
(3 2.74806e-15 0)
(3 2.61254e-15 0)
(3 2.08628e-15 0)
(3 1.39582e-15 0)
(3 1.19153e-15 0)
(3 1.52377e-15 0)
(3 9.25147e-16 0)
(3 7.15234e-17 0)
(3 -7.55938e-16 0)
(3 -5.88169e-16 0)
(3 6.15101e-16 0)
(3 7.79199e-16 0)
(3 7.24447e-16 0)
(3 8.87727e-16 0)
(3 1.39084e-15 0)
(3 2.45504e-15 0)
(3 3.19822e-15 0)
(3 3.12133e-15 0)
(3 3.01783e-15 0)
(3 3.20773e-15 0)
(3 3.04765e-15 0)
(3 4.04143e-15 0)
(3 4.59173e-15 0)
(3 2.83492e-15 0)
(3 1.44031e-15 0)
(3 -3.12583e-17 0)
(3 -9.27896e-16 0)
(3 -1.36118e-15 0)
(3 -1.97745e-15 0)
(3 -1.68392e-15 0)
(3 -1.21152e-15 0)
(3 -5.13917e-16 0)
(3 3.69468e-16 0)
(3 1.07595e-15 0)
(3 1.46795e-15 0)
(3 2.41989e-15 0)
(3 2.76161e-15 0)
(3 2.51167e-15 0)
(3 2.39879e-15 0)
(3 2.12357e-15 0)
(3 2.5795e-15 0)
(3 3.27749e-15 0)
(3 2.60349e-15 0)
(3 7.84083e-16 0)
(3 -5.39346e-17 0)
(3 2.61885e-17 0)
(3 1.77862e-16 0)
(3 -3.2786e-17 0)
(3 1.00361e-16 0)
(3 -1.59764e-17 0)
(3 -3.10286e-16 0)
(3 -6.68494e-16 0)
(3 -7.41047e-16 0)
(3 -5.36598e-16 0)
(3 4.84199e-16 0)
(3 3.40847e-16 0)
(3 -4.00669e-16 0)
(3 -1.24924e-15 0)
(3 -8.71974e-16 0)
(3 -3.99139e-16 0)
(3 2.38728e-16 0)
(3 1.35462e-15 0)
(3 1.66426e-15 0)
(3 1.5837e-15 0)
(3 1.4539e-15 0)
(3 9.51085e-16 0)
(3 3.27627e-16 0)
(3 4.43534e-16 0)
(3 5.53269e-16 0)
(3 4.0666e-16 0)
(3 2.14702e-16 0)
(3 2.74501e-17 0)
(3 1.36031e-16 0)
(3 5.26559e-16 0)
(3 1.0311e-15 0)
(3 1.03947e-15 0)
(3 4.07994e-16 0)
(3 -1.73397e-16 0)
(3 -3.42108e-16 0)
(3 -4.33874e-16 0)
(3 -2.95772e-16 0)
(3 -1.06946e-15 0)
(3 -7.37117e-16 0)
(3 6.0408e-16 0)
(3 5.9836e-16 0)
(3 2.41045e-16 0)
(3 1.32431e-16 0)
(3 -6.05203e-16 0)
(3 -5.42733e-16 0)
(3 -9.55836e-16 0)
(3 -2.48007e-15 0)
(3 -3.15123e-15 0)
(3 -1.88395e-15 0)
(3 -5.02873e-17 0)
(3 1.76629e-15 0)
(3 2.88783e-15 0)
(3 2.81455e-15 0)
(3 1.96742e-15 0)
(3 1.73802e-15 0)
(3 1.48316e-15 0)
(3 4.60732e-16 0)
(3 8.36722e-16 0)
(3 9.30951e-16 0)
(3 8.31049e-16 0)
(3 8.88167e-16 0)
(3 5.76665e-16 0)
(3 3.11965e-16 0)
(3 -1.34889e-16 0)
(3 -1.68767e-16 0)
(3 2.17397e-17 0)
(3 5.92184e-16 0)
(3 1.14747e-15 0)
(3 1.35624e-15 0)
(3 1.80366e-15 0)
(3 3.0077e-15 0)
(3 4.16717e-15 0)
(3 3.8326e-15 0)
(3 2.69279e-15 0)
(3 2.25843e-15 0)
(3 2.13559e-15 0)
(3 2.07017e-15 0)
(3 1.46697e-15 0)
(3 -3.4911e-16 0)
(3 -1.87258e-15 0)
(3 -1.83497e-15 0)
(3 -1.534e-15 0)
(3 -1.11987e-15 0)
(3 -5.68633e-16 0)
(3 6.66897e-16 0)
(3 1.76274e-15 0)
(3 2.62002e-15 0)
(3 3.03573e-15 0)
(3 3.61892e-15 0)
(3 3.36694e-15 0)
(3 2.80647e-15 0)
(3 2.69189e-15 0)
(3 2.6143e-15 0)
(3 2.42872e-15 0)
(3 1.49773e-15 0)
(3 -1.71793e-16 0)
(3 -2.46579e-15 0)
(3 -2.45053e-15 0)
(3 -1.86931e-15 0)
(3 -3.08021e-17 0)
(3 4.92519e-16 0)
(3 4.97518e-16 0)
(3 -9.44738e-17 0)
(3 -3.27897e-16 0)
(3 -2.03153e-17 0)
(3 2.80886e-16 0)
(3 1.58906e-16 0)
(3 1.78761e-16 0)
(3 -2.08719e-16 0)
(3 -1.96981e-16 0)
(3 -7.07567e-17 0)
(3 2.17925e-16 0)
(3 5.09572e-16 0)
(3 9.02955e-16 0)
(3 1.07917e-15 0)
(3 1.58831e-15 0)
(3 2.02714e-15 0)
(3 2.02628e-15 0)
(3 1.40665e-15 0)
(3 1.17074e-15 0)
(3 1.57781e-15 0)
(3 2.27114e-15 0)
(3 1.20257e-15 0)
(3 6.8786e-17 0)
(3 -5.49933e-16 0)
(3 -4.10481e-16 0)
(3 -3.65125e-16 0)
(3 -1.82341e-16 0)
(3 1.36414e-16 0)
(3 -7.94967e-16 0)
(3 -1.06197e-15 0)
(3 7.14761e-16 0)
(3 1.95006e-15 0)
(3 1.80728e-15 0)
(3 2.05207e-15 0)
(3 2.81407e-15 0)
(3 1.80365e-15 0)
(3 1.58232e-15 0)
(3 6.61831e-16 0)
(3 -2.83899e-16 0)
(3 -9.5514e-16 0)
(3 -1.19611e-15 0)
(3 -2.21772e-15 0)
(3 -1.77598e-15 0)
(3 -8.46381e-16 0)
(3 3.94201e-16 0)
(3 7.0673e-16 0)
(3 1.88857e-15 0)
(3 1.99363e-15 0)
(3 1.96866e-15 0)
(3 2.10097e-15 0)
(3 2.26257e-15 0)
(3 2.23883e-15 0)
(3 1.06501e-15 0)
(3 1.63505e-15 0)
(3 1.44341e-15 0)
(3 1.99477e-15 0)
(3 1.9488e-15 0)
(3 1.42503e-15 0)
(3 3.40094e-16 0)
(3 -4.93241e-16 0)
(3 -9.57074e-16 0)
(3 -1.42001e-15 0)
(3 -1.38007e-15 0)
(3 -1.39761e-15 0)
(3 -7.19723e-16 0)
(3 9.35351e-16 0)
(3 3.74219e-15 0)
(3 3.67648e-15 0)
(3 2.37257e-15 0)
(3 1.26597e-15 0)
(3 1.19311e-15 0)
(3 1.48442e-15 0)
(3 1.4462e-15 0)
(3 8.81851e-17 0)
(3 -1.04325e-15 0)
(3 -1.32024e-15 0)
(3 -1.50212e-15 0)
(3 -1.65355e-15 0)
(3 -8.83723e-16 0)
(3 1.56787e-16 0)
(3 2.06786e-15 0)
(3 3.18336e-15 0)
(3 3.41583e-15 0)
(3 3.0369e-15 0)
(3 2.53006e-15 0)
(3 2.24554e-15 0)
(3 3.00304e-15 0)
(3 2.79633e-15 0)
(3 2.08251e-15 0)
(3 3.0165e-16 0)
(3 -3.08043e-15 0)
(3 -4.31495e-15 0)
(3 -3.5438e-15 0)
(3 -2.72462e-15 0)
(3 -1.46043e-16 0)
(3 1.3866e-16 0)
(3 -3.52884e-17 0)
(3 -2.78894e-16 0)
(3 -3.80202e-16 0)
(3 -8.98434e-17 0)
(3 1.16334e-16 0)
(3 5.17785e-17 0)
(3 -2.35072e-16 0)
(3 -1.7335e-16 0)
(3 3.43685e-17 0)
(3 -1.22794e-16 0)
(3 -1.80169e-17 0)
(3 1.14189e-16 0)
(3 -1.3367e-16 0)
(3 -1.83802e-16 0)
(3 5.06351e-16 0)
(3 9.14448e-16 0)
(3 1.39841e-15 0)
(3 1.7457e-15 0)
(3 1.95253e-15 0)
(3 1.4774e-15 0)
(3 1.65874e-15 0)
(3 6.90784e-16 0)
(3 -3.43418e-17 0)
(3 -2.03554e-16 0)
(3 -4.73715e-16 0)
(3 -2.46505e-16 0)
(3 2.44738e-16 0)
(3 2.89826e-16 0)
(3 -7.07492e-17 0)
(3 -7.32144e-16 0)
(3 9.53846e-16 0)
(3 2.23454e-15 0)
(3 3.02125e-15 0)
(3 3.79532e-15 0)
(3 3.74644e-15 0)
(3 2.79334e-15 0)
(3 1.95107e-15 0)
(3 1.30164e-15 0)
(3 1.09119e-15 0)
(3 2.74825e-16 0)
(3 -1.12724e-15 0)
(3 -1.11991e-15 0)
(3 -9.18318e-16 0)
(3 -4.70174e-16 0)
(3 5.66949e-17 0)
(3 2.56021e-16 0)
(3 1.10038e-15 0)
(3 2.55772e-15 0)
(3 3.38516e-15 0)
(3 3.35942e-15 0)
(3 2.60284e-15 0)
(3 1.84449e-15 0)
(3 5.60313e-16 0)
(3 6.38772e-16 0)
(3 4.94112e-16 0)
(3 1.04022e-15 0)
(3 1.58383e-15 0)
(3 1.52676e-15 0)
(3 1.65741e-15 0)
(3 1.48302e-15 0)
(3 1.4698e-15 0)
(3 6.98757e-16 0)
(3 -3.38658e-16 0)
(3 -6.52553e-16 0)
(3 -6.34032e-16 0)
(3 -3.72212e-16 0)
(3 -1.04245e-16 0)
(3 5.65054e-16 0)
(3 5.15327e-16 0)
(3 -2.93918e-17 0)
(3 -1.4031e-16 0)
(3 7.1038e-16 0)
(3 1.39645e-15 0)
(3 1.76159e-15 0)
(3 7.19268e-16 0)
(3 -9.36106e-17 0)
(3 -8.61234e-16 0)
(3 -9.18879e-16 0)
(3 -1.00121e-17 0)
(3 2.73567e-16 0)
(3 2.43146e-15 0)
(3 4.04066e-15 0)
(3 3.51595e-15 0)
(3 2.80632e-15 0)
(3 1.78827e-15 0)
(3 1.60116e-15 0)
(3 1.37238e-15 0)
(3 6.27165e-16 0)
(3 -4.8464e-16 0)
(3 -1.20931e-15 0)
(3 -2.51978e-15 0)
(3 -2.03599e-15 0)
(3 -1.25642e-15 0)
(3 -3.15952e-15 0)
(3 1.13359e-16 0)
(3 -2.29146e-16 0)
(3 -2.84033e-17 0)
(3 4.79661e-16 0)
(3 1.79853e-16 0)
(3 -1.25796e-16 0)
(3 -4.05379e-16 0)
(3 -2.95837e-16 0)
(3 1.76814e-16 0)
(3 5.84427e-16 0)
(3 6.83638e-16 0)
(3 5.64458e-16 0)
(3 3.99545e-16 0)
(3 5.57443e-17 0)
(3 -4.81155e-16 0)
(3 -5.06311e-16 0)
(3 2.36117e-16 0)
(3 5.4925e-16 0)
(3 9.04569e-16 0)
(3 1.33749e-15 0)
(3 6.35264e-16 0)
(3 -1.10206e-16 0)
(3 -1.43593e-16 0)
(3 -6.11808e-17 0)
(3 2.58689e-16 0)
(3 4.27263e-16 0)
(3 9.96799e-17 0)
(3 -1.9538e-16 0)
(3 -3.44399e-16 0)
(3 -4.93632e-16 0)
(3 -4.64364e-16 0)
(3 -6.39597e-16 0)
(3 -3.30371e-16 0)
(3 8.45123e-16 0)
(3 1.68416e-15 0)
(3 3.05319e-15 0)
(3 2.95481e-15 0)
(3 1.18874e-15 0)
(3 6.80537e-16 0)
(3 7.40617e-16 0)
(3 6.0205e-16 0)
(3 6.79519e-16 0)
(3 4.88415e-16 0)
(3 6.46083e-16 0)
(3 1.39176e-15 0)
(3 1.33341e-15 0)
(3 1.01256e-15 0)
(3 1.32688e-15 0)
(3 1.83085e-15 0)
(3 2.05725e-15 0)
(3 2.17253e-15 0)
(3 2.85849e-15 0)
(3 2.98652e-15 0)
(3 2.72019e-15 0)
(3 1.4842e-15 0)
(3 -5.93697e-16 0)
(3 -9.87176e-16 0)
(3 -1.08254e-15 0)
(3 -3.06685e-16 0)
(3 4.20919e-16 0)
(3 7.36421e-16 0)
(3 1.12622e-15 0)
(3 1.64371e-15 0)
(3 1.92293e-15 0)
(3 1.86383e-15 0)
(3 6.64938e-16 0)
(3 -1.39919e-16 0)
(3 -7.11002e-16 0)
(3 -2.25165e-15 0)
(3 -2.75311e-15 0)
(3 -1.9084e-15 0)
(3 -1.20163e-15 0)
(3 -1.08994e-15 0)
(3 -5.53405e-16 0)
(3 6.47948e-16 0)
(3 1.31347e-15 0)
(3 1.79454e-15 0)
(3 1.73646e-15 0)
(3 6.15967e-16 0)
(3 4.60823e-16 0)
(3 -5.56279e-17 0)
(3 5.97066e-16 0)
(3 2.52218e-15 0)
(3 3.87378e-15 0)
(3 3.85339e-15 0)
(3 2.62019e-15 0)
(3 8.03835e-16 0)
(3 1.95094e-16 0)
(3 -3.40914e-16 0)
(3 -7.00857e-16 0)
(3 -1.65219e-15 0)
(3 -2.15191e-15 0)
(3 -1.89215e-15 0)
(3 -1.02741e-15 0)
(3 -1.34236e-15 0)
(3 -2.34178e-15 0)
(3 1.67768e-16 0)
(3 5.92819e-17 0)
(3 7.77975e-17 0)
(3 2.6309e-16 0)
(3 4.12582e-16 0)
(3 5.16831e-16 0)
(3 1.69675e-16 0)
(3 -2.62907e-16 0)
(3 -1.76618e-16 0)
(3 9.40113e-17 0)
(3 1.29367e-16 0)
(3 2.30655e-16 0)
(3 -2.24371e-16 0)
(3 -4.17207e-16 0)
(3 3.34617e-16 0)
(3 5.68646e-16 0)
(3 6.64611e-16 0)
(3 1.02653e-15 0)
(3 1.358e-15 0)
(3 7.71207e-16 0)
(3 -7.8455e-16 0)
(3 -7.29561e-16 0)
(3 -2.17649e-16 0)
(3 6.91876e-16 0)
(3 1.3683e-15 0)
(3 1.30627e-15 0)
(3 1.35058e-15 0)
(3 -7.11523e-16 0)
(3 -1.74949e-15 0)
(3 -1.33406e-15 0)
(3 -2.18271e-16 0)
(3 5.05499e-16 0)
(3 8.30101e-16 0)
(3 1.17336e-15 0)
(3 1.52021e-15 0)
(3 1.79932e-15 0)
(3 1.04269e-15 0)
(3 -9.60691e-16 0)
(3 -3.15741e-16 0)
(3 1.36575e-15 0)
(3 2.36736e-15 0)
(3 2.81514e-15 0)
(3 2.76618e-15 0)
(3 2.91737e-15 0)
(3 3.45839e-15 0)
(3 3.32272e-15 0)
(3 1.98194e-15 0)
(3 2.48746e-15 0)
(3 2.36783e-15 0)
(3 2.45977e-15 0)
(3 2.87462e-15 0)
(3 3.09107e-15 0)
(3 3.16981e-15 0)
(3 2.30354e-15 0)
(3 1.55621e-15 0)
(3 -1.46201e-15 0)
(3 -1.99379e-15 0)
(3 -2.61106e-15 0)
(3 -2.4089e-15 0)
(3 -1.10697e-15 0)
(3 -6.42497e-16 0)
(3 3.58921e-16 0)
(3 7.92231e-16 0)
(3 9.34694e-16 0)
(3 1.92043e-15 0)
(3 1.87787e-15 0)
(3 7.50638e-16 0)
(3 -1.87356e-15 0)
(3 -2.91821e-15 0)
(3 -3.16445e-15 0)
(3 -3.19171e-15 0)
(3 -2.1343e-15 0)
(3 -2.72873e-15 0)
(3 -2.40061e-15 0)
(3 -1.19669e-15 0)
(3 4.34265e-16 0)
(3 1.07243e-15 0)
(3 1.01133e-15 0)
(3 1.07059e-16 0)
(3 -2.35037e-16 0)
(3 1.09511e-15 0)
(3 1.90042e-15 0)
(3 2.81174e-15 0)
(3 3.42459e-15 0)
(3 4.16955e-15 0)
(3 2.28654e-15 0)
(3 1.15892e-15 0)
(3 1.38576e-15 0)
(3 9.45068e-16 0)
(3 4.83047e-16 0)
(3 -1.4768e-15 0)
(3 -1.52284e-15 0)
(3 -5.143e-16 0)
(3 -7.34613e-16 0)
(3 -1.00563e-15 0)
(3 -2.30394e-15 0)
(3 -1.65392e-16 0)
(3 -1.69665e-16 0)
(3 -2.80227e-16 0)
(3 1.4674e-16 0)
(3 7.6602e-16 0)
(3 1.10426e-15 0)
(3 5.85957e-16 0)
(3 -6.05489e-17 0)
(3 -8.46208e-16 0)
(3 -7.74684e-16 0)
(3 -7.89906e-16 0)
(3 -7.27454e-16 0)
(3 -7.99373e-16 0)
(3 -3.13304e-16 0)
(3 3.51858e-16 0)
(3 3.32227e-16 0)
(3 3.02356e-17 0)
(3 -1.22307e-16 0)
(3 2.55052e-16 0)
(3 8.16293e-17 0)
(3 2.97541e-16 0)
(3 -1.46587e-16 0)
(3 6.64661e-16 0)
(3 1.6328e-15 0)
(3 1.85077e-15 0)
(3 1.53476e-15 0)
(3 1.10175e-15 0)
(3 1.23982e-16 0)
(3 -8.88277e-16 0)
(3 -8.76148e-16 0)
(3 7.01847e-16 0)
(3 1.03368e-15 0)
(3 1.17181e-15 0)
(3 1.00884e-15 0)
(3 1.23336e-15 0)
(3 1.38256e-15 0)
(3 8.12122e-16 0)
(3 -8.88812e-16 0)
(3 -1.33887e-15 0)
(3 5.9669e-16 0)
(3 3.21213e-15 0)
(3 2.88918e-15 0)
(3 2.87094e-15 0)
(3 3.01768e-15 0)
(3 3.03962e-15 0)
(3 2.74026e-15 0)
(3 2.23547e-15 0)
(3 3.06661e-15 0)
(3 3.90793e-15 0)
(3 3.65823e-15 0)
(3 3.26374e-15 0)
(3 3.25864e-15 0)
(3 2.8306e-15 0)
(3 2.56094e-15 0)
(3 2.13442e-15 0)
(3 6.84563e-16 0)
(3 -7.63771e-16 0)
(3 -2.22906e-15 0)
(3 -3.135e-15 0)
(3 -1.05909e-15 0)
(3 -2.15406e-16 0)
(3 9.46336e-16 0)
(3 1.30892e-15 0)
(3 1.38169e-15 0)
(3 1.05491e-15 0)
(3 6.23704e-16 0)
(3 3.79336e-16 0)
(3 -6.65036e-16 0)
(3 -3.63448e-15 0)
(3 -4.39322e-15 0)
(3 -4.55743e-15 0)
(3 -4.53355e-15 0)
(3 -3.93872e-15 0)
(3 -3.09287e-15 0)
(3 -2.51519e-15 0)
(3 -5.24151e-16 0)
(3 -1.62856e-16 0)
(3 -3.57464e-16 0)
(3 -3.72324e-16 0)
(3 -1.46445e-16 0)
(3 7.10656e-16 0)
(3 2.22995e-15 0)
(3 3.21494e-15 0)
(3 3.62069e-15 0)
(3 2.93645e-15 0)
(3 1.38992e-15 0)
(3 1.10404e-15 0)
(3 1.14254e-15 0)
(3 9.81039e-16 0)
(3 -1.31397e-15 0)
(3 -1.84491e-15 0)
(3 -1.71815e-15 0)
(3 -1.56222e-15 0)
(3 -1.18451e-15 0)
(3 -1.14141e-15 0)
(3 -2.8555e-15 0)
(3 4.00408e-17 0)
(3 -2.84759e-17 0)
(3 8.12758e-17 0)
(3 4.72259e-16 0)
(3 6.14899e-16 0)
(3 7.37176e-16 0)
(3 6.89558e-16 0)
(3 2.01719e-16 0)
(3 3.37199e-16 0)
(3 -9.79471e-16 0)
(3 -1.3819e-15 0)
(3 -1.38255e-15 0)
(3 -7.74716e-16 0)
(3 -5.03695e-16 0)
(3 -3.12816e-16 0)
(3 7.93339e-16 0)
(3 -7.56192e-17 0)
(3 -9.61881e-16 0)
(3 -1.01974e-15 0)
(3 -6.38147e-16 0)
(3 -3.08867e-16 0)
(3 -1.03035e-16 0)
(3 5.82985e-16 0)
(3 1.28971e-15 0)
(3 1.04394e-15 0)
(3 8.53518e-16 0)
(3 1.24206e-15 0)
(3 1.25944e-15 0)
(3 2.90182e-16 0)
(3 7.11601e-16 0)
(3 1.19994e-15 0)
(3 1.1501e-15 0)
(3 3.11875e-17 0)
(3 -4.46396e-16 0)
(3 -6.80253e-16 0)
(3 -7.49179e-16 0)
(3 -1.58996e-15 0)
(3 -2.67502e-15 0)
(3 -3.05089e-15 0)
(3 5.71037e-16 0)
(3 1.50911e-15 0)
(3 1.59334e-15 0)
(3 1.65168e-15 0)
(3 1.92835e-15 0)
(3 2.20727e-15 0)
(3 1.78777e-15 0)
(3 1.8428e-15 0)
(3 2.26868e-15 0)
(3 2.54532e-15 0)
(3 2.53705e-15 0)
(3 2.90117e-15 0)
(3 2.7046e-15 0)
(3 2.57827e-15 0)
(3 2.3746e-15 0)
(3 1.37911e-15 0)
(3 6.54911e-16 0)
(3 -7.7539e-18 0)
(3 -7.13245e-16 0)
(3 -5.16654e-16 0)
(3 -1.97937e-16 0)
(3 3.32876e-16 0)
(3 4.31514e-16 0)
(3 1.2162e-15 0)
(3 1.33056e-15 0)
(3 -2.2438e-16 0)
(3 -1.61223e-15 0)
(3 -2.40095e-15 0)
(3 -2.64885e-15 0)
(3 -2.64747e-15 0)
(3 -3.29708e-15 0)
(3 -3.42475e-15 0)
(3 -3.45784e-15 0)
(3 -3.7615e-15 0)
(3 -3.72013e-15 0)
(3 -4.44969e-15 0)
(3 -3.49598e-15 0)
(3 -2.29123e-15 0)
(3 -1.8518e-15 0)
(3 -8.70216e-16 0)
(3 -6.80221e-16 0)
(3 1.05721e-16 0)
(3 6.98469e-16 0)
(3 1.71506e-15 0)
(3 1.32524e-15 0)
(3 1.30834e-15 0)
(3 1.21851e-15 0)
(3 1.18349e-15 0)
(3 7.85172e-16 0)
(3 -6.96659e-16 0)
(3 -2.36891e-15 0)
(3 -2.2601e-15 0)
(3 -1.76597e-15 0)
(3 -1.37647e-15 0)
(3 -1.54649e-15 0)
(3 -1.61126e-15 0)
(3 -2.67703e-15 0)
(3 2.40888e-16 0)
(3 2.20726e-16 0)
(3 5.50415e-17 0)
(3 3.61867e-16 0)
(3 2.13989e-16 0)
(3 4.64816e-16 0)
(3 2.54525e-16 0)
(3 4.03306e-16 0)
(3 2.32482e-16 0)
(3 -4.31115e-16 0)
(3 -1.08978e-15 0)
(3 -6.35733e-16 0)
(3 -2.25708e-16 0)
(3 -5.53657e-16 0)
(3 -9.29737e-16 0)
(3 -1.02992e-15 0)
(3 -1.09696e-15 0)
(3 -1.26322e-15 0)
(3 -1.70046e-15 0)
(3 -2.12242e-15 0)
(3 -1.57563e-15 0)
(3 -9.58581e-16 0)
(3 -7.23098e-16 0)
(3 -1.12934e-15 0)
(3 -1.61541e-15 0)
(3 -8.92287e-16 0)
(3 5.67279e-16 0)
(3 1.36554e-15 0)
(3 1.7371e-15 0)
(3 1.65133e-15 0)
(3 1.08229e-15 0)
(3 5.65617e-16 0)
(3 -2.79748e-16 0)
(3 -1.42354e-15 0)
(3 -1.78184e-15 0)
(3 -2.13362e-15 0)
(3 -3.56509e-15 0)
(3 -2.97073e-15 0)
(3 -1.76176e-15 0)
(3 2.99297e-16 0)
(3 1.0808e-15 0)
(3 1.51796e-15 0)
(3 1.29552e-15 0)
(3 1.45635e-15 0)
(3 1.33574e-15 0)
(3 6.8944e-16 0)
(3 3.45591e-16 0)
(3 5.18382e-16 0)
(3 3.9475e-16 0)
(3 5.65655e-16 0)
(3 9.31633e-16 0)
(3 1.57417e-15 0)
(3 2.03687e-15 0)
(3 6.63178e-16 0)
(3 7.47122e-17 0)
(3 -9.43733e-16 0)
(3 -1.00972e-15 0)
(3 -7.75614e-16 0)
(3 -1.3175e-16 0)
(3 1.51146e-16 0)
(3 6.35363e-16 0)
(3 6.94199e-16 0)
(3 4.09905e-16 0)
(3 2.63033e-16 0)
(3 -4.83323e-16 0)
(3 -1.24595e-15 0)
(3 -2.53126e-15 0)
(3 -2.46696e-15 0)
(3 -2.08761e-15 0)
(3 -2.22157e-15 0)
(3 -2.95726e-15 0)
(3 -3.60086e-15 0)
(3 -3.77138e-15 0)
(3 -3.6585e-15 0)
(3 -3.98239e-15 0)
(3 -4.47702e-15 0)
(3 -3.68471e-15 0)
(3 -3.22338e-15 0)
(3 -2.02412e-15 0)
(3 -9.96699e-16 0)
(3 -1.97249e-16 0)
(3 -9.37946e-17 0)
(3 -6.61164e-16 0)
(3 -8.19408e-16 0)
(3 1.32414e-15 0)
(3 3.36657e-15 0)
(3 3.46336e-15 0)
(3 3.41083e-15 0)
(3 8.45926e-16 0)
(3 9.2142e-17 0)
(3 -2.33192e-16 0)
(3 -6.81281e-16 0)
(3 -6.87369e-16 0)
(3 -5.51258e-16 0)
(3 -3.60153e-16 0)
(3 -5.58281e-16 0)
(3 -1.59125e-20 0)
(3 2.65804e-17 0)
(3 -1.8519e-17 0)
(3 -4.46419e-17 0)
(3 2.21115e-16 0)
(3 -3.81875e-17 0)
(3 -3.42292e-16 0)
(3 -5.53984e-16 0)
(3 -8.33519e-16 0)
(3 -3.1367e-16 0)
(3 -2.17834e-16 0)
(3 1.40125e-17 0)
(3 3.5919e-16 0)
(3 2.90427e-16 0)
(3 4.69631e-16 0)
(3 -5.47217e-16 0)
(3 -8.86281e-16 0)
(3 -1.83509e-15 0)
(3 -2.27534e-15 0)
(3 -2.24653e-15 0)
(3 -1.22903e-15 0)
(3 -9.55972e-16 0)
(3 -1.34106e-15 0)
(3 -2.4733e-15 0)
(3 -2.1572e-15 0)
(3 -9.23795e-16 0)
(3 2.87819e-16 0)
(3 7.58607e-16 0)
(3 1.54389e-15 0)
(3 1.80524e-15 0)
(3 5.27377e-17 0)
(3 -1.28726e-15 0)
(3 -1.96506e-15 0)
(3 -2.59954e-15 0)
(3 -2.25223e-15 0)
(3 -2.46438e-15 0)
(3 -3.90965e-15 0)
(3 -3.07741e-15 0)
(3 -2.60845e-16 0)
(3 6.74448e-16 0)
(3 1.26343e-15 0)
(3 1.18797e-15 0)
(3 9.26633e-16 0)
(3 6.10475e-16 0)
(3 2.01483e-16 0)
(3 -2.55669e-17 0)
(3 -6.46899e-16 0)
(3 -8.66093e-16 0)
(3 -5.93348e-16 0)
(3 -3.102e-16 0)
(3 -3.13091e-16 0)
(3 5.72497e-17 0)
(3 9.33422e-16 0)
(3 1.00832e-15 0)
(3 7.65535e-16 0)
(3 -2.51045e-17 0)
(3 -2.83925e-16 0)
(3 5.88344e-16 0)
(3 2.96731e-16 0)
(3 1.40249e-15 0)
(3 1.3017e-15 0)
(3 7.44848e-16 0)
(3 -5.35545e-17 0)
(3 -5.07238e-16 0)
(3 -9.13014e-16 0)
(3 -1.24986e-15 0)
(3 -1.6057e-15 0)
(3 -1.67791e-15 0)
(3 -1.71888e-15 0)
(3 -2.21568e-15 0)
(3 -3.51862e-15 0)
(3 -3.52915e-15 0)
(3 -3.25592e-15 0)
(3 -2.56999e-15 0)
(3 -2.09709e-15 0)
(3 -2.84766e-15 0)
(3 -4.46246e-15 0)
(3 -4.03055e-15 0)
(3 -3.0435e-15 0)
(3 -2.27506e-15 0)
(3 -2.3428e-15 0)
(3 -1.71399e-15 0)
(3 -1.75613e-15 0)
(3 -7.14973e-16 0)
(3 3.36625e-15 0)
(3 4.89989e-15 0)
(3 3.51335e-15 0)
(3 2.13119e-15 0)
(3 1.7675e-15 0)
(3 1.67186e-15 0)
(3 1.01073e-15 0)
(3 6.82027e-16 0)
(3 -6.92001e-17 0)
(3 -6.38822e-17 0)
(3 6.62872e-19 0)
(3 5.40131e-16 0)
(3 -1.76921e-16 0)
(3 -1.30894e-16 0)
(3 1.04269e-16 0)
(3 6.41874e-17 0)
(3 2.79889e-19 0)
(3 -1.00141e-15 0)
(3 -1.3748e-15 0)
(3 -1.2132e-15 0)
(3 -8.24845e-16 0)
(3 5.03977e-17 0)
(3 -1.18828e-17 0)
(3 -1.3216e-16 0)
(3 -9.69129e-17 0)
(3 7.13847e-16 0)
(3 1.23563e-15 0)
(3 2.9177e-16 0)
(3 -4.36057e-16 0)
(3 -1.16799e-15 0)
(3 -1.71709e-15 0)
(3 -1.15381e-15 0)
(3 -5.40122e-16 0)
(3 -5.68803e-16 0)
(3 -1.69338e-15 0)
(3 -2.65652e-15 0)
(3 -2.24874e-15 0)
(3 -1.42455e-15 0)
(3 -8.06164e-16 0)
(3 -4.58856e-16 0)
(3 8.374e-18 0)
(3 1.33025e-16 0)
(3 -1.30794e-15 0)
(3 -2.46903e-15 0)
(3 -3.65089e-15 0)
(3 -2.90549e-15 0)
(3 -2.54225e-15 0)
(3 -2.72221e-15 0)
(3 -3.19036e-15 0)
(3 -3.27192e-15 0)
(3 -7.79272e-16 0)
(3 6.26408e-16 0)
(3 9.76028e-16 0)
(3 9.85146e-16 0)
(3 7.99422e-16 0)
(3 -6.2398e-16 0)
(3 -1.86347e-15 0)
(3 -2.32214e-15 0)
(3 -1.87474e-15 0)
(3 -1.34713e-15 0)
(3 -1.18406e-15 0)
(3 -8.99737e-16 0)
(3 -1.35401e-16 0)
(3 9.3543e-16 0)
(3 1.01015e-15 0)
(3 -4.0488e-17 0)
(3 -5.53091e-16 0)
(3 -1.46115e-15 0)
(3 -8.20961e-16 0)
(3 7.3532e-16 0)
(3 2.50417e-15 0)
(3 1.65781e-15 0)
(3 5.67603e-16 0)
(3 -3.36151e-16 0)
(3 -8.91442e-16 0)
(3 -1.32886e-15 0)
(3 -1.68133e-15 0)
(3 -1.57886e-15 0)
(3 -2.32008e-15 0)
(3 -2.96669e-15 0)
(3 -2.99594e-15 0)
(3 -2.80362e-15 0)
(3 -2.68581e-15 0)
(3 -1.76033e-15 0)
(3 -1.10194e-15 0)
(3 -1.00708e-15 0)
(3 -1.07797e-15 0)
(3 -1.46861e-15 0)
(3 -1.80621e-15 0)
(3 -1.68189e-15 0)
(3 -1.56903e-15 0)
(3 -1.35618e-15 0)
(3 -9.94777e-16 0)
(3 -7.14926e-16 0)
(3 -9.01431e-16 0)
(3 -9.67928e-16 0)
(3 2.42051e-15 0)
(3 3.87518e-15 0)
(3 2.32944e-15 0)
(3 -6.13386e-16 0)
(3 1.79503e-16 0)
(3 2.21389e-15 0)
(3 2.76875e-15 0)
(3 3.71323e-15 0)
(3 1.50459e-15 0)
(3 1.04424e-15 0)
(3 1.18562e-15 0)
(3 1.45404e-15 0)
(3 -1.13222e-16 0)
(3 3.65381e-17 0)
(3 1.58343e-16 0)
(3 3.19153e-16 0)
(3 -6.72601e-16 0)
(3 -8.77505e-16 0)
(3 -6.40149e-16 0)
(3 -2.04301e-17 0)
(3 2.09034e-16 0)
(3 1.6144e-16 0)
(3 -4.76539e-17 0)
(3 -1.76737e-16 0)
(3 1.16765e-17 0)
(3 6.98918e-16 0)
(3 8.12356e-16 0)
(3 8.21036e-16 0)
(3 5.39019e-16 0)
(3 5.81579e-16 0)
(3 1.37352e-17 0)
(3 -1.19084e-16 0)
(3 -7.42864e-16 0)
(3 -2.12439e-15 0)
(3 -1.75133e-15 0)
(3 -1.3855e-15 0)
(3 -1.31413e-15 0)
(3 -1.32202e-15 0)
(3 -1.31262e-15 0)
(3 -5.84025e-16 0)
(3 -2.13719e-16 0)
(3 -6.30313e-16 0)
(3 -1.80071e-15 0)
(3 -2.45686e-15 0)
(3 -3.70183e-15 0)
(3 -2.14803e-15 0)
(3 -2.30908e-15 0)
(3 -2.02071e-15 0)
(3 -1.16374e-15 0)
(3 -1.14723e-15 0)
(3 -1.45002e-15 0)
(3 -1.27448e-15 0)
(3 -1.08664e-15 0)
(3 -1.70938e-16 0)
(3 3.46998e-16 0)
(3 2.31658e-16 0)
(3 -1.02237e-15 0)
(3 -1.63836e-15 0)
(3 -1.41792e-15 0)
(3 -2.8632e-16 0)
(3 1.51516e-16 0)
(3 4.80433e-16 0)
(3 8.36084e-16 0)
(3 1.91232e-15 0)
(3 9.6858e-16 0)
(3 9.54364e-16 0)
(3 6.59441e-16 0)
(3 5.47346e-16 0)
(3 9.511e-16 0)
(3 1.34411e-15 0)
(3 1.36105e-15 0)
(3 1.60645e-16 0)