/*--------------------------------*- C++ -*----------------------------------*\
  =========                 |
  \\      /  F ield         | OpenFOAM: The Open Source CFD Toolbox
   \\    /   O peration     | Website:  https://openfoam.org
    \\  /    A nd           | Version:  7
     \\/     M anipulation  |
\*---------------------------------------------------------------------------*/
FoamFile
{
    version     2.0;
    format      ascii;
    class       volScalarField;
    location    "0.4";
    object      p;
}
// * * * * * * * * * * * * * * * * * * * * * * * * * * * * * * * * * * * * * //

dimensions      [1 -1 -2 0 0 0 0];

internalField   nonuniform List<scalar> 
18432
(
1
1
1
1
1
1
1
1
1
1
1
1
1
1
1
1
1
1
1
1
1
1
1
1
1
1
1
1
1
1
1
1
1
1
1
1
1
1
1
1
1
1
1
1
1
1
1
1
1
1
1
1
1
1
1
1
1
1
1
1
1
1
1
1
1
1
1
1
1
1
1
1
1
1
1
1
1
1
1
1
1
1
1
1
1
1
1
1
1
1
1
1
1
1
1
1
1
1
1
1
1
1
1
1
1
1
1
1
1
1
1
1
1
1
1
1
1
1
1
1
1
1
1
1
1
1
1
1
1
1
1
1
1
1
1
1
1
1
1
1
1
1
1
1
1
1
1
1
1
1
1
1
1
1
1
1
1
1
1
1
1
1
1
1
1
1
1
1
1
1
1
1
1
1
1
1
1
1
1
1
1
1
1
1
1
1
1
1
1
1
1
1
1
1
1
1
1
1
1
1
1
1
1
1
1
1
1
1
1
1
1
1
1
1
1
1
1
1
1
1
1
1
1
1
1
1
1
1
1
1
1
1
1
1
1
1
1
1
1
1
1
1
1
1
1
1
1
1
1
1
1
1
1
1
1
1
1
1
1
1
1
1
1
1
1
1
1
1
1
1
1
1
1
1
1
1
1
1
1
1
1
1
1
1
1
1
1
1
1
1
1
1
1
1
1
1
1
1
1
1
1
1
1
1
1
1
1
1
1
1
1
1
1
1
1
1
1
1
1
1
1
1
1
1
1
1
1
1
1
1
1
1
1
1
1
1
1
1
1
1
1
1
1
1
1
1
1
1
1
1
1
1
1
1
1
1
1
1
1
1
1
1
1
1
1
1
1
1
1
1
1
1
1
1
1
1
1
1
1
1
1
1
1
1
1
1
1
1
1
1
1
1
1
1
1
1
1
1
1
1
1
1
1
1
1
1
1
1
1
1
1
1
1
1
1
1
1
1
1
1
1
1
1
1
1
1
1
1
1
1
1
1
1
1
1
1
1
1
1
1
1
1
1
1
1
1
1
1
1
1
1
1
1
1
1
1
1
1
1
1
1
1
1
1
1
1
1
1
1
1
1
1
1
1
1
1
1
1
1
1
1
1
1
1
1
1
1
1
1
1
1
1
1
1
1
1
1
1
1
1
1
1
1
1
1
1
1
1
1
1
1
1
1
1
1
1
1
1
1
1
1
1
1
1
1
1
1
1
1
1
1
1
1
1
1
1
1
1
1
1
1
1
1
1
1
1
1
1
1
1
1
1
1
1
1
1
1
1
1
1
1
1
1
1
1
1
1
1
1
1
1
1
1
1
1
1
1
1
1
1
1
1
1
1
1
1
1
1
1
1
1
1
1
1
1
1
1
1
1
1
1
1
1
1
1
1
1
1
1
1
1
1
1
1
1
1
1
1
1
1
1
1
1
1
1
1
1
1
1
1
1
1
1
1
1
1
1
1
1
1
1
1
1
1
1
1
1
1
1
1
1
1
1
1
1
1
1
1
1
1
1
1
1
1
1
1
1
1
1
1
1
1
1
1
1
1
1
1
1
1
1
1
1
1
1
1
1
1
1
1
1
1
1
1
1
1
1
1
1
1
1
1
1
1
1
1
1
1
1
1
1
1
1
1
1
1
1
1
1
1
1
1
1
1
1
1
1
1
1
1
1
1
1
1
1
1
1
1
1
1
1
1
1
1
1
1
1
1
1
1
1
1
1
1
1
1
1
1
1
1
1
1
1
1
1
1
1
1
1
1
1
1
1
1
1
1
1
1
1
1
1
1
1
1
1
1
1
1
1
1
1
1
1
1
1
1
1
1
1
1
1
1
1
1
1
1
1
1
1
1
1
1
1
1
1
1
1
1
1
1
1
1
1
1
1
1
1
1
1
1
1
1
1
1
1
1
1
1
1
1
1
1
1
1
1
1
1
1
1
1
1
1
1
1
1
1
1
1
1
1
1
1
1
1
1
1
1
1
1
1
1
1
1
1
1
1
1
1
1
1
1
1
1
1
1
1
1
1
1
1
1
1
1
1
1
1
1
1
1
1
1
1
1
1
1
1
1
1
1
1
1
1
1
1
1
1
1
1
1
1
1
1
1
1
1
1
1
1
1
1
1
1
1
1
1
1
1
1
1
1
1
1
1
1
1
1
1
1
1
1
1
1
1
1
1
1
1
1
1
1
1
1
1
1
1
1
1
1
1
1
1
1
1
1
1
1
1
1
1
1
1
1
1
1
1
1
1
1
1
1
1
1
1
1
1
1
1
1
1
1
1
1
1
1
1
1
1
1
1
1
1
1
1
1
1
1
1
1
1
1
1
1
1
1
1
1
1
1
1
1
1
1
1
1
1
1
1
1
1
1
1
1
1
1
1
1
1
1
1
1
1
1
1
1
1
1
1
1
1
1
1
1
1
1
1
1
1
1
1
1
1
1
1
1
1
1
1
1
1
1
1
1
1
1
1
1
1
1
1
1
1
1
1
1
1
1
1
1
1
1
1
1
1
1
1
1
1
1
1
1
1
1
1
1
1
1
1
1
1
1
1
1
1
1
1
1
1
1
1
1
1
1
1
1
1
1
1
1
1
1
1
1
1
1
1
1
1
1
1
1
1
1
1
1
1
1
1
1
1
1
1
1
1
1
1
1
1
1
1
1
1
1
1
1
1
1
1
1
1
1
1
1
1
1
1
1
1
1
1
1
1
1
1
1
1
1
1
1
1
1
1
1
1
1
1
1
1
1
1
1
1
1
1
1
1
1
1
1
1
1
1
1
1
1
1
1
1
1
1
1
1
1
1
1
1
1
1
1
1
1
1
1
1
1
1
1
1
1
1
1
1
1
1
1
1
1
1
1
1
1
1
1
1
1
1
1
1
1
1
1
1
1
1
1
1
1
1
1
1
1
1
1
1
1
1
1
1
1
1
1
1
1
1
1
1
1
1
1
1
1
1
1
1
1
1
1
1
1
1
1
1
1
1
1
1
1
1
1
1
1
1
1
1
1
1
1
1
1
1
1
1
1
1
1
1
1
1
1
1
1
1
1
1
1
1
1
1
1
1
1
1
1
1
1
1
1
1
1
1
1
1
1
1
1
1
1
1
1
1
1
1
1
1
1
1
1
1
1
1
1
1
1
1
1
1
1
1
1
1
1
1
1
1
1
1
1
1
1
1
1
1
1
1
1
1
1
1
1
1
1
1
1
1
1
1
1
1
1
1
1
1
1
1
1
1
1
1
1
1
1
1
1
1
1
1
1
1
1
1
1
1
1
1
1
1
1
1
1
1
1
1
1
1
1
1
1
1
1
1
1
1
1
1
1
1
1
1
1
1
1
1
1
1
1
1
1
1
1
1
1
1
1
1
1
1
1
1
1
1
1
1
1
1
1
1
1
1
1
1
1
1
1
1
1
1
1
1
1
1
1
1
1
1
1
1
1
1
1
1
1
1
1
1
1
1
1
1
1
1
1
1
1
1
1
1
1
1
1
1
1
1
1
1
1
1
1
1
1
1
1
1
1
1
1
1
1
1
1
1
1
1
1
1
1
1
1
1
1
1
1
1
1
1
1
1
1
1
1
1
1
1
1
1
1
1
1
1
1
1
1
1
1
1
1
1
1
1
1
1
1
1
1
1
1
1
1
1
1
1
1
1
1
1
1
1
1
1
1
1
1
1
1
1
1
1
1
1
1
1
1
1
1
1
1
1
1
1
1
1
1
1
1
1
1
1
1
1
1
1
1
1
1
1
1
1
1
1
1
1
1
1
1
1
1
1
1
1
1
1
1
1
1
1
1
1
1
1
1
1
1
1
1
1
1
1
1
1
1
1
1
1
1
1
1
1
1
1
1
1
1
1
1
1
1
1
1
1
1
1
1
1
1
1
1
1
1
1
1
1
1
1
1
1
1
1
1
1
1
1
1
1
1
1
1
1
1
1
1
1
1
1
1
1
1
1
1
1
1
1
1
1
1
1
1
1
1
1
1
1
1
1
1
1
1
1
1
1
1
1
1
1
1
1
1
1
1
1
1
1
1
1
1
1
1
1
1
1
1
1
1
1
1
1
1
1
1
1
1
1
1
1
1
1
1
1
1
1
1
1
1
1
1
1
1
1
1
1
1
1
1
1
1
1
1
1
1
1
1
1
1
1
1
1
1
1
1
1
1
1
1
1
1
1
1
1
1
1
1
1
1
1
1
1
1
1
1
1
1
1
1
1
1
1
1
1
1
1
1
1
1
1
1
1
1
1
1
1
1
1
1
1
1
1
1
1
1
1
1
1
1
1
1
1
1
1
1
1
1
1
1
1
1
1
1
1
1
1
1
1
1
1
1
1
1
1
1
1
1
1
1
1
1
1
1
1
1
1
1
1
1
1
1
1
1
1
1
1
1
1
1
1
1
1
1
1
1
1
1
1
1
1
1
1
1
1
1
1
1
1
1
1
1
1
1
1
1
1
1
1
1
1
1
1
1
1
1
1
1
1
1
1
1
1
1
1
1
1
1
1
1
1
1
1
1
1
1
1
1
1
1
1
1
1
1
1
1
1
1
1
1
1
1
1
1
1
1
1
1
1
1
1
1
1
1
1
1
1
1
1
1
1
1
1
1
1
1
1
1
1
1
1
1
1
1
1
1
1
1
1
1
1
1
1
1
1
1
1
1
1
1
1
1
1
1
1
1
1
1
1
1
1
1
1
1
1
1
1
1
1
1
1
1
1
1
1
1
1
1
1
1
1
1
1
1
1
1
1
1
1
1
1
1
1
1
1
1
1
1
1
1
1
1
1
1
1
1
1
1
1
1
1
1
1
1
1
1
1
1
1
1
1
1
1
1
1
1
1
1
1
1
1
1
1
1
1
1
1
1
1
1
1
1
1
1
1
1
1
1
1
1
1
1
1
1
1
1
1
1
1
1
1
1
1
1
1
1
1
1
1
1
1
1
1
1
1
1
1
1
1
1
1
1
1
1
1
1
1
1
1
1
1
1
1
1
1
1
1
1
1
1
1
1
1
1
1
1
1
1
1
1
1
1
1
1
1
1
1
1
1
1
1
1
1
1
1
1
1
1
1
1
1
1
1
1
1
1
1
1
1
1
1
1
1
1
1
1
1
1
1
1
1
1
1
1
1
1
1
1
1
1
1
1
1
1
1
1
1
1
1
1
1
1
1
1
1
1
1
1
1
1
1
1
1
1
1
1
1
1
1
1
1
1
1
1
1
1
1
1
1
1
1
1
1
1
1
1
1
1
1
1
1
1
1
1
1
1
1
1
1
1
1
1
1
1
1
1
1
1
1
1
1
1
1
1
1
1
1
1
1
1
1
1
1
1
1
1
1
1
1
1
1
1
1
1
1
1
1
1
1
1
1
1
1
1
1
1
1
1
1
1
1
1
1
1
1
1
1
1
1
1
1
1
1
1
1
1
1
1
1
1
1
1
1
1
1
1
1
1
1
1
1
1
1
1
1
1
1
1
1
1
1
1
1
1
1
1
1
1
1
1
1
1
1
1
1
1
1
1
1
1
1
1
1
1
1
1
1
1
1
1
1
1
1
1
1
1
1
1
1
1
1
1
1
1
1
1
1
1
1
1
1
1
1
1
1
1
1
1
1
1
1
1
1
1
1
1
1
1
1
1
1
1
1
1
1
1
1
1
1
1
1
1
1
1
1
1
1
1
1
1
1
1
1
1
1
1
1
1
1
1
1
1
1
1
1
1
1
1
1
1
1
1
1
1
1
1
1
1
1
1
1
1
1
1
1
1
1
1
1
1
1
1
1
1
1
1
1
1
1
1
1
1
1
1
1
1
1
1
1
1
1
1
1
1
1
1
1
1
1
1
1
1
1
1
1
1
1
1
1
1
1
1
1
1
1
1
1
1
1
1
1
1
1
1
1
1
1
1
1
1
1
1
1
1
1
1
1
1
1
1
1
1
1
1
1
1
1
1
1
1
1
1
1
1
1
1
1
1
1
1
1
1
1
1
1
1
1
1
1
1
1
1
1
1
1
1
1
1
1
1
1
1
1
1
1
1
1
1
1
1
1
1
1
1
1
1
1
1
1
1
1
1
1
1
1
1
1
1
1
1
1
1
1
1
1
1
1
1
1
1
1
1
1
1
1
1
1
1
1
1
1
1
1
1
1
1
1
1
1
1
1
1
1
1
1
1
1
1
1
1
1
1
1
1
1
1
1
1
1
1
1
1
1
1
1
1
1
1
1
1
1
1
1
1
1
1
1
1
1
1
1
1
1
1
1
1
1
1
1
1
1
1
1
1
1
1
1
1
1
1
1
1
1
1
1
1
1
1
1
1
1
1
1
1
1
1
1
1
1
1
1
1
1
1
1
1
1
1
1
1
1
1
1
1
1
1
1
1
1
1
1
1
1
1
1
1
1
1
1
1
1
1
1
1
1
1
1
1
1
1
1
1
1
1
1
1
1
1
1
1
1
1
1
1
1
1
1
1
1
1
1
1
1
1
1
1
1
1
1
1
1
1
1
1
1
1
1
1
1
1
1
1
1
1
1
1
1
1
1
1
1
1
1
1
1
1
1
1
1
1
1
1
1
1
1
1
1
1
1
1
1
1
1
1
1
1
1
1
1
1
1
1
1
1
1
1
1
1
1
1
1
1
1
1
1
1
1
1
1
1
1
1
1
1
1
1
1
1
1
1
1
1
1
1
1
1
1
1
1
1
1
1
1
1
1
1
1
1
1
1
1
1
1
1
1
1
1
1
1
1
1
1
1
1
1
1
1
1
1
1
1
1
1
1
1
1
1
1
1
1
1
1
1
1
1
1
1
1
1
1
1
1
1
1
1
1
1
1
1
1
1
1
1
1
1
1
1
1
1
1
1
1
1
1
1
1
1
1
1
1
1
1
1
1
1
1
1
1
1
1
1
1
1
1
1
1
1
1
1
1
1
1
1
1
1
1
1
1
1
1
1
1
1.28989
1.76235
2.30015
2.88582
3.59907
4.14084
4.67715
5.12506
5.33716
5.23526
4.91733
4.49259
4.10748
3.79161
3.6491
3.57267
3.553
3.56832
3.60741
3.64851
3.68217
3.70022
3.71469
3.73064
3.74486
3.75521
3.76278
3.77022
3.78129
3.79452
3.79975
3.79901
3.79433
3.78473
3.77537
3.77069
3.76819
3.76685
3.76597
3.76398
3.76083
3.75359
3.74262
3.72527
3.70377
3.67569
3.64472
3.61855
1.00158
1.01493
1.07993
1.19753
1.41152
1.76703
2.21409
2.75265
3.3224
3.71984
3.88471
4.0907
4.05862
3.95685
3.83138
3.78782
3.74284
3.68938
3.67511
3.67164
3.68391
3.70231
3.72024
3.73001
3.73734
3.74497
3.75153
3.7558
3.76206
3.77122
3.77873
3.78174
3.78251
3.78044
3.77604
3.77417
3.77502
3.77643
3.77724
3.77531
3.76967
3.75963
3.74463
3.72209
3.69436
3.66306
3.63072
3.60629
1
0.999976
1.00007
1.00004
1.00131
1.01333
1.06029
1.22503
1.59532
2.37642
3.28828
3.95167
4.30483
4.31735
4.24016
4.11891
3.98985
3.79761
3.68887
3.68356
3.69635
3.71379
3.73308
3.73879
3.73795
3.73725
3.74354
3.74672
3.75104
3.75789
3.7652
3.76743
3.76715
3.76713
3.76677
3.76724
3.76977
3.77336
3.77803
3.78031
3.77581
3.76557
3.74935
3.72575
3.69531
3.66128
3.62814
3.60533
1
1
1
1
0.999998
1
0.999974
1.00012
1.00512
1.07413
1.43521
2.12354
3.19774
3.72406
4.0633
4.03254
3.95243
3.9254
3.85253
3.80595
3.7763
3.74521
3.73044
3.71753
3.71801
3.7269
3.74286
3.75612
3.76452
3.77157
3.77305
3.77253
3.7707
3.77024
3.77077
3.77099
3.77129
3.77252
3.7749
3.77451
3.7684
3.75684
3.73843
3.71221
3.68033
3.64759
3.61708
3.59333
1
1
1
1
1
1
1
0.999999
1
0.999919
1.00237
1.03696
1.31237
1.95114
2.91043
3.66094
3.88163
4.02945
4.00516
3.93482
3.81016
3.71761
3.69555
3.68389
3.68345
3.69108
3.71214
3.73759
3.76338
3.77997
3.78335
3.78275
3.77865
3.77752
3.77954
3.78118
3.7802
3.77875
3.77782
3.77373
3.76467
3.74967
3.72784
3.69966
3.66726
3.63665
3.60767
3.58452
1
1
1
1
1
1
1
1
1
0.999997
0.999997
0.999951
1.00096
1.02877
1.20415
1.84998
2.6546
3.55137
3.83646
3.84593
3.84611
3.78495
3.73321
3.70701
3.69119
3.6887
3.69569
3.71044
3.73004
3.74822
3.76209
3.77148
3.77259
3.77363
3.77479
3.77352
3.77085
3.77004
3.77048
3.76584
3.7554
3.73973
3.71787
3.69107
3.6608
3.63282
3.60486
3.58336
1
1
1
1
1
1
1
1
1
1
1
0.999997
0.999998
0.999969
1.00038
1.02431
1.17741
1.67386
2.51812
3.25292
3.78609
3.86002
3.82898
3.80164
3.76487
3.72874
3.71091
3.70666
3.71036
3.71754
3.7293
3.74566
3.75583
3.76148
3.76211
3.76287
3.7653
3.77004
3.77075
3.76484
3.75404
3.73835
3.71638
3.69063
3.66119
3.63359
3.60798
3.58695
1
1
1
1
1
1
1
1
1
1
1
1
1
0.999998
0.999998
0.999974
1.00042
1.01243
1.1598
1.573
2.44224
3.09512
3.57674
3.78602
3.80608
3.78183
3.75774
3.75065
3.74344
3.73649
3.73134
3.73015
3.74037
3.75235
3.7612
3.76684
3.77078
3.77699
3.77625
3.76897
3.75626
3.73877
3.71457
3.68802
3.65838
3.63018
3.60537
3.58415
1
1
1
1
1
1
1
1
1
1
1
1
1
1
1
0.999998
0.999998
0.999979
1.0005
1.0103
1.12835
1.56618
2.29598
3.08407
3.41478
3.64447
3.74287
3.76418
3.75824
3.73881
3.73351
3.73543
3.74138
3.7527
3.76589
3.77776
3.7836
3.78637
3.7826
3.77315
3.75737
3.73475
3.70717
3.67853
3.64861
3.62013
3.59532
3.57368
1
1
1
1
1
1
1
1
1
1
1
1
1
1
1
1
1
0.999998
0.999998
0.999985
1.00037
1.01294
1.101
1.52159
2.19119
3.06224
3.47023
3.59316
3.67225
3.68123
3.70264
3.71536
3.71853
3.7284
3.74448
3.76293
3.7736
3.776
3.77318
3.76533
3.75104
3.73055
3.70507
3.67726
3.64749
3.61863
3.59254
3.57061
1
1
1
1
1
1
1
1
1
1
1
1
1
1
1
1
1
1
1
0.999998
0.999998
0.999988
1.00025
1.01232
1.10309
1.46956
2.22513
2.96384
3.51876
3.6547
3.69203
3.70854
3.70825
3.71381
3.72652
3.74313
3.75461
3.75789
3.75763
3.75066
3.73731
3.71797
3.69452
3.66767
3.63867
3.61108
3.58573
3.56356
1
1
1
1
1
1
1
1
1
1
1
1
1
1
1
1
1
1
1
1
1
0.999999
0.999999
0.999989
1.00038
1.00971
1.12944
1.47794
2.25537
2.96039
3.49309
3.70565
3.7344
3.74558
3.76623
3.76979
3.77036
3.77143
3.76729
3.75705
3.741
3.71784
3.69309
3.66683
3.63875
3.6123
3.58692
3.56334
1
1
1
1
1
1
1
1
1
1
1
1
1
1
1
1
1
1
1
1
1
1
1
0.999998
0.999999
0.999989
1.0008
1.01119
1.13539
1.55981
2.34708
3.03141
3.43183
3.65999
3.75081
3.7647
3.77093
3.77805
3.7722
3.75995
3.7437
3.72121
3.69815
3.67332
3.64788
3.6211
3.59407
3.56677
1
1
1
1
1
1
1
1
1
1
1
1
1
1
1
1
1
1
1
1
1
1
1
1
1
0.999998
0.999999
0.999992
1.00112
1.01904
1.15218
1.67335
2.46936
3.27365
3.50521
3.61057
3.69077
3.73583
3.73333
3.72603
3.71904
3.70897
3.69111
3.66818
3.64266
3.61543
3.59026
3.56396
1
1
1
1
1
1
1
1
1
1
1
1
1
1
1
1
1
1
1
1
1
1
1
1
1
1
1
0.999999
0.999998
1.00001
1.00149
1.03603
1.21358
1.84302
2.66305
3.40226
3.67839
3.7015
3.70706
3.70217
3.69847
3.69297
3.67547
3.65368
3.62929
3.60413
3.58004
3.55885
1
1
1
1
1
1
1
1
1
1
1
1
1
1
1
1
1
1
1
1
1
1
1
1
1
1
1
1
1
1
0.999997
1.0001
1.00301
1.06289
1.33656
2.10062
2.93771
3.51189
3.73245
3.75197
3.7382
3.72348
3.69734
3.66781
3.63971
3.60879
3.57952
3.55711
1
1
1
1
1
1
1
1
1
1
1
1
1
1
1
1
1
1
1
1
1
1
1
1
1
1
1
1
1
1
0.999999
1
0.999996
1.00041
1.00803
1.11959
1.5781
2.48134
3.14851
3.53565
3.69494
3.70664
3.68562
3.65636
3.63106
3.60397
3.57688
3.54831
1
1
1
1
1
1
1
1
1
1
1
1
1
1
1
1
1
1
1
1
1
1
1
1
1
1
1
1
1
1
1
1
0.999999
0.999999
1
1.00154
1.0272
1.23802
1.92368
2.91711
3.47602
3.54963
3.58897
3.59387
3.59527
3.5814
3.55895
3.53196
1
1
1
1
1
1
1
1
1
1
1
1
1
1
1
1
1
1
1
1
1
1
1
1
1
1
1
1
1
1
1
1
1
1
1
0.999998
1.00009
1.00574
1.09348
1.50584
2.38483
3.20787
3.60344
3.63721
3.61327
3.58875
3.55958
3.52951
1
1
1
1
1
1
1
1
1
1
1
1
1
1
1
1
1
1
1
1
1
1
1
1
1
1
1
1
1
1
1
1
1
1
1
1
0.999999
1
1.0011
1.02316
1.26346
1.9539
2.81389
3.31158
3.57483
3.58525
3.56738
3.52876
1
1
1
1
1
1
1
1
1
1
1
1
1
1
1
1
1
1
1
1
1
1
1
1
1
1
1
1
1
1
1
1
1
1
1
1
1
1
0.999999
1.00011
1.00836
1.09077
1.57634
2.39707
3.30236
3.40698
3.42691
3.44954
1
1
1
1
1
1
1
1
1
1
1
1
1
1
1
1
1
1
1
1
1
1
1
1
1
1
1
1
1
1
1
1
1
1
1
1
1
1
1
1
1.00002
1.0012
1.04157
1.27076
2.01803
2.87624
3.30691
3.48441
1
1
1
1
1
1
1
1
1
1
1
1
1
1
1
1
1
1
1
1
1
1
1
1
1
1
1
1
1
1
1
1
1
1
1
1
1
1
1
1
1
0.999999
1.00038
1.00943
1.12773
1.66852
2.49443
3.00153
1
1
1
1
1
1
1
1
1
1
1
1
1
1
1
1
1
1
1
1
1
1
1
1
1
1
1
1
1
1
1
1
1
1
1
1
1
1
1
1
1
1
0.999999
1.00003
1.00303
1.05216
1.38668
2.03219
1
1
1
1
1
1
1
1
1
1
1
1
1
1
1
1
1
1
1
1
1
1
1
1
1
1
1
1
1
1
1
1
1
1
1
1
1
1
1
1
1
1
1
1
1
1.00067
1.02042
1.14852
1
1
1
1
1
1
1
1
1
1
1
1
1
1
1
1
1
1
1
1
1
1
1
1
1
1
1
1
1
1
1
1
1
1
1
1
1
1
1
1
1
1
1
1
1
1
1.00022
1.0007
1
1
1
1
1
1
1
1
1
1
1
1
1
1
1
1
1
1
1
1
1
1
1
1
1
1
1
1
1
1
1
1
1
1
1
1
1
1
1
1
1
1
1
1
1
1
1
0.999993
1
1
1
1
1
1
1
1
1
1
1
1
1
1
1
1
1
1
1
1
1
1
1
1
1
1
1
1
1
1
1
1
1
1
1
1
1
1
1
1
1
1
1
1
1
1
1
0.999997
1
1
1
1
1
1
1
1
1
1
1
1
1
1
1
1
1
1
1
1
1
1
1
1
1
1
1
1
1
1
1
1
1
1
1
1
1
1
1
1
1
1
1
1
1
1
1
1
1
1
1
1
1
1
1
1
1
1
1
1
1
1
1
1
1
1
1
1
1
1
1
1
1
1
1
1
1
1
1
1
1
1
1
1
1
1
1
1
1
1
1
1
1
1
1
1
1
1
1
1
1
1
1
1
1
1
1
1
1
1
1
1
1
1
1
1
1
1
1
1
1
1
1
1
1
1
1
1
1
1
1
1
1
1
1
1
1
1
1
1
1
1
1
1
1
1
1
1
1
1
1
1
1
1
1
1
1
1
1
1
1
1
1
1
1
1
1
1
1
1
1
1
1
1
1
1
1
1
1
1
1
1
1
1
1
1
1
1
1
1
1
1
1
1
1
1
1
1
1
1
1
1
1
1
1
1
1
1
1
1
1
1
1
1
1
1
1
1
1
1
1
1
1
1
1
1
1
1
1
1
1
1
1
1
1
1
1
1
1
1
1
1
1
1
1
1
1
1
1
1
1
1
1
1
1
1
1
1
1
1
1
1
1
1
1
1
1
1
1
1
1
1
1
1
1
1
1
1
1
1
1
1
1
1
1
1
1
1
1
1
1
1
1
1
1
1
1
1
1
1
1
1
1
1
1
1
1
1
1
1
1
1
1
1
1
1
1
1
1
1
1
1
1
1
1
1
1
1
1
1
1
1
1
1
1
1
1
1
1
1
1
1
1
1
1
1
1
1
1
1
1
1
1
1
1
1
1
1
1
1
1
1
1
1
1
1
1
1
1
1
1
1
1
1
1
1
1
1
1
1
1
1
1
1
1
1
1
1
1
1
1
1
1
1
1
1
1
1
1
1
1
1
1
1
1
1
1
1
1
1
1
1
1
1
1
1
1
1
1
1
1
1
1
1
1
1
1
1
1
1
1
0.999997
1
1
1
1
1
1
1
1
1
1
1
1
1
1
1
1
1
1
1
1
1
1
1
1
1
1
1
1
1
1
1
1
1
1
1
1
1
1
1
1
1
1
1
1
1
1
1
0.999993
1
1
1
1
1
1
1
1
1
1
1
1
1
1
1
1
1
1
1
1
1
1
1
1
1
1
1
1
1
1
1
1
1
1
1
1
1
1
1
1
1
1
1
1
1
1
1.00022
1.0007
1
1
1
1
1
1
1
1
1
1
1
1
1
1
1
1
1
1
1
1
1
1
1
1
1
1
1
1
1
1
1
1
1
1
1
1
1
1
1
1
1
1
1
1
1
1.00067
1.02042
1.14852
1
1
1
1
1
1
1
1
1
1
1
1
1
1
1
1
1
1
1
1
1
1
1
1
1
1
1
1
1
1
1
1
1
1
1
1
1
1
1
1
1
1
0.999999
1.00003
1.00303
1.05216
1.38668
2.03219
1
1
1
1
1
1
1
1
1
1
1
1
1
1
1
1
1
1
1
1
1
1
1
1
1
1
1
1
1
1
1
1
1
1
1
1
1
1
1
1
1
0.999999
1.00038
1.00943
1.12773
1.66852
2.49443
3.00153
1
1
1
1
1
1
1
1
1
1
1
1
1
1
1
1
1
1
1
1
1
1
1
1
1
1
1
1
1
1
1
1
1
1
1
1
1
1
1
1
1.00002
1.0012
1.04157
1.27076
2.01803
2.87624
3.30691
3.48441
1
1
1
1
1
1
1
1
1
1
1
1
1
1
1
1
1
1
1
1
1
1
1
1
1
1
1
1
1
1
1
1
1
1
1
1
1
1
0.999999
1.00011
1.00836
1.09077
1.57634
2.39707
3.30236
3.40698
3.42691
3.44954
1
1
1
1
1
1
1
1
1
1
1
1
1
1
1
1
1
1
1
1
1
1
1
1
1
1
1
1
1
1
1
1
1
1
1
1
0.999999
1
1.0011
1.02316
1.26346
1.9539
2.81389
3.31158
3.57483
3.58525
3.56738
3.52876
1
1
1
1
1
1
1
1
1
1
1
1
1
1
1
1
1
1
1
1
1
1
1
1
1
1
1
1
1
1
1
1
1
1
1
0.999998
1.00009
1.00574
1.09348
1.50584
2.38483
3.20787
3.60344
3.63721
3.61327
3.58875
3.55958
3.52951
1
1
1
1
1
1
1
1
1
1
1
1
1
1
1
1
1
1
1
1
1
1
1
1
1
1
1
1
1
1
1
1
0.999999
0.999999
1
1.00154
1.0272
1.23802
1.92368
2.91711
3.47602
3.54963
3.58897
3.59387
3.59527
3.5814
3.55895
3.53196
1
1
1
1
1
1
1
1
1
1
1
1
1
1
1
1
1
1
1
1
1
1
1
1
1
1
1
1
1
1
0.999999
1
0.999996
1.00041
1.00803
1.11959
1.5781
2.48134
3.14851
3.53565
3.69494
3.70664
3.68562
3.65636
3.63106
3.60397
3.57688
3.54831
1
1
1
1
1
1
1
1
1
1
1
1
1
1
1
1
1
1
1
1
1
1
1
1
1
1
1
1
1
1
0.999997
1.0001
1.00301
1.06289
1.33656
2.10062
2.93771
3.51189
3.73245
3.75197
3.7382
3.72348
3.69734
3.66781
3.63971
3.60879
3.57952
3.55711
1
1
1
1
1
1
1
1
1
1
1
1
1
1
1
1
1
1
1
1
1
1
1
1
1
1
1
0.999999
0.999998
1.00001
1.00149
1.03603
1.21358
1.84302
2.66305
3.40226
3.67839
3.7015
3.70706
3.70217
3.69847
3.69297
3.67547
3.65368
3.62929
3.60413
3.58004
3.55885
1
1
1
1
1
1
1
1
1
1
1
1
1
1
1
1
1
1
1
1
1
1
1
1
1
0.999998
0.999999
0.999992
1.00112
1.01904
1.15218
1.67335
2.46936
3.27365
3.50521
3.61057
3.69077
3.73583
3.73333
3.72603
3.71904
3.70897
3.69111
3.66818
3.64266
3.61543
3.59026
3.56396
1
1
1
1
1
1
1
1
1
1
1
1
1
1
1
1
1
1
1
1
1
1
1
0.999998
0.999999
0.999989
1.0008
1.01119
1.13539
1.55981
2.34708
3.03141
3.43183
3.65998
3.75081
3.7647
3.77093
3.77805
3.7722
3.75995
3.7437
3.72121
3.69815
3.67332
3.64788
3.6211
3.59407
3.56677
1
1
1
1
1
1
1
1
1
1
1
1
1
1
1
1
1
1
1
1
1
0.999999
0.999999
0.999989
1.00038
1.00971
1.12944
1.47794
2.25537
2.96039
3.49309
3.70565
3.7344
3.74558
3.76623
3.76979
3.77036
3.77143
3.76729
3.75706
3.741
3.71784
3.69309
3.66683
3.63875
3.6123
3.58692
3.56334
1
1
1
1
1
1
1
1
1
1
1
1
1
1
1
1
1
1
1
0.999998
0.999998
0.999988
1.00025
1.01232
1.10309
1.46956
2.22513
2.96384
3.51876
3.6547
3.69203
3.70854
3.70825
3.71381
3.72652
3.74313
3.75461
3.75789
3.75763
3.75066
3.73731
3.71797
3.69452
3.66767
3.63867
3.61108
3.58573
3.56356
1
1
1
1
1
1
1
1
1
1
1
1
1
1
1
1
1
0.999998
0.999998
0.999985
1.00037
1.01294
1.101
1.52159
2.19119
3.06224
3.47024
3.59316
3.67225
3.68123
3.70264
3.71536
3.71853
3.7284
3.74448
3.76293
3.7736
3.776
3.77318
3.76532
3.75104
3.73055
3.70507
3.67726
3.64749
3.61863
3.59254
3.57061
1
1
1
1
1
1
1
1
1
1
1
1
1
1
1
0.999998
0.999998
0.999979
1.0005
1.0103
1.12835
1.56619
2.29597
3.08407
3.41478
3.64447
3.74287
3.76418
3.75824
3.73881
3.73351
3.73543
3.74138
3.7527
3.76589
3.77776
3.7836
3.78637
3.7826
3.77315
3.75737
3.73475
3.70717
3.67853
3.64861
3.62013
3.59532
3.57368
1
1
1
1
1
1
1
1
1
1
1
1
1
0.999998
0.999998
0.999974
1.00042
1.01243
1.1598
1.573
2.44224
3.09512
3.57674
3.78602
3.80608
3.78183
3.75774
3.75065
3.74344
3.73649
3.73134
3.73015
3.74037
3.75235
3.7612
3.76684
3.77078
3.77699
3.77624
3.76897
3.75626
3.73877
3.71457
3.68802
3.65838
3.63018
3.60537
3.58415
1
1
1
1
1
1
1
1
1
1
1
0.999997
0.999998
0.999969
1.00038
1.02431
1.17741
1.67386
2.51812
3.25292
3.78609
3.86002
3.82898
3.80165
3.76487
3.72874
3.71091
3.70666
3.71036
3.71755
3.7293
3.74566
3.75583
3.76148
3.76211
3.76287
3.7653
3.77004
3.77075
3.76484
3.75404
3.73835
3.71638
3.69063
3.66119
3.63359
3.60798
3.58695
1
1
1
1
1
1
1
1
1
0.999997
0.999997
0.999951
1.00096
1.02877
1.20415
1.84998
2.6546
3.55137
3.83646
3.84593
3.84611
3.78495
3.73321
3.70701
3.69119
3.6887
3.69569
3.71044
3.73004
3.74822
3.76209
3.77148
3.77259
3.77363
3.77479
3.77352
3.77085
3.77004
3.77048
3.76584
3.7554
3.73973
3.71787
3.69107
3.6608
3.63282
3.60486
3.58336
1
1
1
1
1
1
1
0.999999
1
0.999919
1.00237
1.03696
1.31237
1.95114
2.91043
3.66095
3.88163
4.02945
4.00516
3.93482
3.81016
3.71761
3.69555
3.68389
3.68345
3.69108
3.71214
3.73759
3.76338
3.77997
3.78335
3.78275
3.77865
3.77752
3.77954
3.78118
3.7802
3.77875
3.77782
3.77373
3.76467
3.74968
3.72784
3.69966
3.66726
3.63665
3.60767
3.58452
1
1
1
1
0.999998
1
0.999974
1.00012
1.00512
1.07413
1.43521
2.12354
3.19774
3.72406
4.0633
4.03254
3.95243
3.9254
3.85253
3.80595
3.7763
3.74521
3.73044
3.71753
3.71801
3.7269
3.74286
3.75612
3.76452
3.77157
3.77305
3.77253
3.7707
3.77024
3.77077
3.77099
3.77129
3.77252
3.77489
3.77451
3.7684
3.75684
3.73843
3.71221
3.68033
3.64759
3.61708
3.59333
1
0.999976
1.00007
1.00004
1.00131
1.01333
1.06029
1.22503
1.59532
2.37641
3.28828
3.95167
4.30483
4.31735
4.24016
4.11891
3.98985
3.79761
3.68887
3.68356
3.69635
3.71379
3.73308
3.73879
3.73795
3.73725
3.74354
3.74672
3.75104
3.75789
3.7652
3.76743
3.76715
3.76713
3.76677
3.76724
3.76977
3.77336
3.77803
3.78031
3.77581
3.76557
3.74935
3.72575
3.69531
3.66128
3.62814
3.60533
1.00158
1.01493
1.07993
1.19754
1.41152
1.76703
2.21409
2.75265
3.3224
3.71984
3.88471
4.0907
4.05862
3.95685
3.83138
3.78782
3.74284
3.68938
3.67511
3.67164
3.68391
3.70231
3.72024
3.73001
3.73734
3.74497
3.75153
3.7558
3.76206
3.77122
3.77873
3.78174
3.78251
3.78044
3.77604
3.77417
3.77502
3.77643
3.77724
3.77531
3.76967
3.75963
3.74463
3.72209
3.69436
3.66306
3.63072
3.60629
1.28989
1.76235
2.30015
2.88582
3.59907
4.14084
4.67715
5.12506
5.33716
5.23527
4.91733
4.49259
4.10748
3.79161
3.6491
3.57267
3.553
3.56832
3.60741
3.64851
3.68217
3.70022
3.71469
3.73064
3.74486
3.75521
3.76278
3.77022
3.78129
3.79452
3.79975
3.79901
3.79433
3.78473
3.77537
3.77069
3.76819
3.76685
3.76597
3.76398
3.76083
3.75359
3.74262
3.72527
3.70377
3.67569
3.64472
3.61855
2.54006
1.64709
1.01536
0.728454
0.685928
0.626203
0.59094
0.613331
0.675422
0.729286
0.760751
0.809349
0.875871
0.911201
0.907573
0.903281
0.91703
0.921404
0.915395
0.914122
0.920143
0.922662
0.920582
0.915161
0.906456
0.89357
0.886414
0.882749
0.881045
0.879526
0.877254
0.874233
0.87067
0.868629
0.868344
0.867357
0.864427
0.86263
0.862067
0.860106
0.852482
0.844939
0.842192
0.839654
0.836343
0.833784
0.832828
0.831922
0.829628
0.825854
0.821349
0.818429
0.815963
0.813703
0.812735
0.814039
0.815984
0.815484
0.813695
0.811704
0.809633
0.806939
0.804092
0.802614
0.802488
0.802805
0.802693
0.802685
0.803243
0.804772
0.805685
0.805761
0.805168
0.803491
0.802338
0.801948
0.802691
0.804682
0.803921
0.799999
0.795727
0.79495
0.794876
0.795003
0.795971
0.799136
0.808084
0.829109
0.865666
0.90813
0.945132
0.958939
0.962317
0.964626
0.967597
0.971479
0.975682
0.980234
0.985173
0.988855
0.989828
0.991423
0.994284
0.996687
1.00015
1.00906
1.0293
1.04037
1.04304
1.04548
1.04707
1.04848
1.05079
1.05391
1.05626
1.05737
1.05835
1.06018
1.06197
1.06201
1.05887
1.05164
1.0477
1.05785
1.0736
1.07294
1.07051
1.0681
1.06338
1.06018
1.06071
1.06293
1.06635
1.07273
1.0757
1.07564
1.07537
1.07506
1.0743
1.07275
1.07187
1.07184
1.07185
1.07172
1.07158
1.07151
1.07142
1.07094
1.06923
1.06404
1.054
1.04725
1.04652
1.04665
1.04711
1.04859
1.05223
1.05535
1.05589
1.05604
1.05618
1.05628
1.05606
1.05401
1.04634
1.02785
1.00675
1.00029
1
1
1
1
1
1
1
1
1
1
1
1
1
1
1
1
1
1
1
1
1
1
1
1
3.20398
2.63706
2.1146
1.59164
1.35233
1.21779
1.03525
0.941607
0.906989
0.862614
0.809431
0.797099
0.816599
0.823212
0.82382
0.830334
0.852173
0.870152
0.871603
0.876903
0.893374
0.901585
0.900844
0.896325
0.892381
0.888061
0.884565
0.883585
0.884211
0.884709
0.88226
0.878398
0.875025
0.872792
0.872419
0.87154
0.868435
0.864879
0.862826
0.860291
0.855448
0.848772
0.842781
0.837785
0.833847
0.83136
0.830038
0.828886
0.826912
0.824363
0.821948
0.819796
0.818087
0.815824
0.813951
0.813152
0.813206
0.813041
0.812126
0.810967
0.809324
0.806762
0.803337
0.800758
0.80031
0.800731
0.800983
0.801483
0.80265
0.804292
0.805775
0.806607
0.806436
0.805303
0.803344
0.802324
0.802071
0.803102
0.802748
0.79966
0.797348
0.797065
0.797093
0.797438
0.798739
0.801864
0.809697
0.828346
0.862537
0.906635
0.944203
0.958064
0.961381
0.963809
0.966922
0.97059
0.974317
0.978717
0.983786
0.988565
0.990941
0.991499
0.993657
0.998319
1.0041
1.01374
1.03227
1.04401
1.04609
1.04749
1.04851
1.04843
1.04969
1.0526
1.05318
1.05274
1.05284
1.05424
1.0554
1.05535
1.05387
1.05206
1.05166
1.05785
1.06814
1.06975
1.06822
1.06621
1.06353
1.06178
1.06208
1.06427
1.06702
1.07171
1.07511
1.07529
1.07511
1.07477
1.07392
1.07248
1.07189
1.07191
1.07201
1.0719
1.07177
1.07172
1.07167
1.07124
1.06929
1.06362
1.05351
1.04731
1.04674
1.04689
1.0474
1.04901
1.0527
1.05571
1.05619
1.05629
1.05639
1.05645
1.05624
1.05432
1.04706
1.0284
1.00666
1.00026
1
1
1
1
1
1
1
1
1
1
1
1
1
1
1
1
1
1
1
1
1
1
1
1
3.48918
3.16873
2.73912
2.2656
1.84571
1.58245
1.33241
1.12517
1.04019
0.964045
0.851928
0.812674
0.824048
0.818573
0.805658
0.8089
0.816682
0.830493
0.839566
0.851315
0.8735
0.88778
0.887159
0.882503
0.879862
0.880149
0.880921
0.884736
0.891058
0.893191
0.891488
0.886379
0.88025
0.876527
0.875981
0.874881
0.871577
0.866377
0.862121
0.85852
0.854029
0.848334
0.843027
0.838723
0.834931
0.831479
0.828478
0.826288
0.82428
0.82234
0.820394
0.818949
0.819704
0.818997
0.81665
0.815156
0.813948
0.812024
0.81017
0.808998
0.807584
0.805598
0.803571
0.801838
0.800307
0.79875
0.798326
0.79876
0.799777
0.801326
0.80365
0.805588
0.805604
0.804915
0.804318
0.80356
0.802782
0.802344
0.801446
0.798465
0.79718
0.797142
0.797281
0.797944
0.800069
0.803985
0.811582
0.828149
0.859142
0.903198
0.943983
0.957704
0.96087
0.963631
0.966877
0.96862
0.970074
0.973837
0.979466
0.985089
0.991593
0.994709
0.995932
0.998341
1.0043
1.0129
1.02702
1.04197
1.04565
1.0467
1.04783
1.04843
1.05154
1.05373
1.05236
1.05175
1.05311
1.05597
1.05842
1.05987
1.06148
1.06342
1.06294
1.0619
1.06569
1.06654
1.06563
1.06467
1.06437
1.06404
1.06411
1.06613
1.06875
1.07263
1.07534
1.07546
1.07523
1.07471
1.0735
1.072
1.07164
1.07174
1.07203
1.07205
1.07198
1.07199
1.07199
1.07156
1.06939
1.06302
1.0526
1.04719
1.04681
1.04695
1.04749
1.04925
1.05309
1.0559
1.0563
1.05641
1.05651
1.05656
1.05618
1.05388
1.04602
1.02691
1.00593
1.00021
1
1
1
1
1
1
1
1
1
1
1
1
1
1
1
1
1
1
1
1
1
1
1
1
3.55821
3.42968
3.15655
2.77687
2.34914
2.02451
1.74482
1.45625
1.32127
1.22281
1.06614
0.972117
0.951501
0.90675
0.844965
0.832092
0.834984
0.823649
0.811239
0.813117
0.824223
0.837255
0.840252
0.8434
0.852372
0.866202
0.870935
0.876074
0.883547
0.886433
0.885359
0.880821
0.878346
0.878701
0.880925
0.882021
0.880066
0.875356
0.868806
0.862826
0.85757
0.851857
0.846503
0.84217
0.837862
0.833406
0.828476
0.824065
0.821342
0.819116
0.816944
0.815593
0.816999
0.81759
0.816373
0.815111
0.813775
0.811857
0.809825
0.808101
0.806563
0.804796
0.803259
0.802749
0.802344
0.800714
0.799369
0.799637
0.800136
0.8006
0.802261
0.804495
0.804908
0.804618
0.804462
0.803914
0.802699
0.801819
0.801049
0.799028
0.797506
0.797299
0.7976
0.79869
0.801291
0.805312
0.812196
0.826966
0.854555
0.896146
0.941563
0.959606
0.963242
0.965897
0.968305
0.969366
0.970488
0.974559
0.978871
0.984327
0.992975
0.995872
0.996972
0.998204
1.0037
1.01129
1.02245
1.03743
1.04765
1.04968
1.04944
1.05021
1.05281
1.05292
1.04998
1.0496
1.05107
1.05353
1.05635
1.05893
1.06141
1.06533
1.06713
1.06173
1.06167
1.0648
1.0657
1.06534
1.06511
1.06525
1.0657
1.06785
1.07036
1.07347
1.07537
1.07544
1.07521
1.07455
1.07308
1.07174
1.07148
1.07159
1.07201
1.07218
1.07216
1.0722
1.07225
1.07191
1.06947
1.06224
1.05164
1.04719
1.04697
1.04711
1.04767
1.04959
1.05359
1.05622
1.05658
1.05671
1.05683
1.05687
1.0565
1.05407
1.0453
1.02496
1.00487
1.00014
1
1
1
1
1
1
1
1
1
1
1
1
1
1
1
1
1
1
1
1
1
1
1
1
3.5649
3.52722
3.39662
3.14536
2.77217
2.44071
2.1412
1.82412
1.62762
1.49142
1.29112
1.12783
1.07136
1.01846
0.917621
0.859548
0.859114
0.842194
0.814505
0.813983
0.821023
0.823637
0.819907
0.818522
0.823642
0.83996
0.855294
0.863334
0.870405
0.875702
0.875446
0.87373
0.873611
0.874155
0.876618
0.877464
0.876857
0.874348
0.867863
0.861934
0.85854
0.85493
0.851146
0.847309
0.842305
0.836051
0.829551
0.824702
0.822076
0.819831
0.817619
0.816275
0.816445
0.815082
0.813335
0.811348
0.809553
0.808451
0.807669
0.807328
0.805796
0.803054
0.80182
0.801792
0.801927
0.801388
0.800873
0.80166
0.802326
0.802651
0.803633
0.804673
0.804741
0.804556
0.804949
0.804315
0.802682
0.801769
0.801154
0.800809
0.799206
0.798427
0.798765
0.799824
0.801953
0.805212
0.811104
0.824205
0.850405
0.89368
0.942671
0.962581
0.966343
0.968623
0.970819
0.97265
0.975808
0.980642
0.985315
0.992808
0.997695
0.998884
0.99781
0.999597
1.00558
1.01302
1.02171
1.03308
1.04575
1.05013
1.04958
1.04917
1.05122
1.05231
1.04952
1.04859
1.04967
1.0519
1.05511
1.05854
1.06162
1.06557
1.06631
1.06177
1.06118
1.06216
1.06332
1.06491
1.0664
1.06699
1.06753
1.06973
1.07199
1.0742
1.07522
1.07522
1.07503
1.07428
1.07276
1.07167
1.07147
1.07166
1.07221
1.07243
1.07243
1.07246
1.07246
1.07181
1.06891
1.06103
1.0508
1.04734
1.04724
1.04738
1.04795
1.0499
1.05397
1.05663
1.05701
1.05715
1.05728
1.05733
1.05691
1.05407
1.0441
1.02246
1.00371
1.00008
1
1
1
1
1
1
1
1
1
1
1
1
1
1
1
1
1
1
1
1
1
1
1
1
3.56506
3.54081
3.49995
3.37017
3.10394
2.81131
2.52224
2.18568
1.94303
1.76606
1.5735
1.37288
1.27747
1.19953
1.07969
0.997834
0.986581
0.95792
0.887027
0.857723
0.858777
0.848819
0.826788
0.815792
0.817224
0.819786
0.823347
0.830555
0.8387
0.847243
0.851805
0.856168
0.861892
0.868174
0.871837
0.872508
0.872897
0.872152
0.866862
0.860907
0.857479
0.854008
0.850316
0.846381
0.84144
0.835502
0.831333
0.828805
0.826921
0.825138
0.822521
0.819857
0.817093
0.81449
0.811554
0.808667
0.807539
0.806749
0.806638
0.806271
0.803873
0.801073
0.79944
0.798917
0.798865
0.799454
0.800802
0.802674
0.803654
0.803805
0.804059
0.804213
0.803563
0.802758
0.802996
0.802911
0.801748
0.801215
0.80118
0.802553
0.802571
0.802319
0.803728
0.80712
0.8125
0.819555
0.830618
0.851001
0.886564
0.941664
0.998633
1.03078
1.04412
1.05414
1.06619
1.07595
1.07862
1.07949
1.07996
1.07841
1.07129
1.05322
1.03321
1.02714
1.02946
1.03243
1.03602
1.04425
1.05459
1.05589
1.05431
1.05173
1.05102
1.05212
1.0507
1.04859
1.04873
1.05113
1.05459
1.05775
1.06113
1.06438
1.0623
1.06074
1.06201
1.06282
1.06386
1.06672
1.06839
1.06825
1.0688
1.071
1.0731
1.07493
1.07543
1.07529
1.0747
1.07355
1.07225
1.07171
1.07168
1.07203
1.07278
1.0731
1.07316
1.07319
1.07308
1.07209
1.06837
1.05928
1.04972
1.04747
1.04749
1.04775
1.04851
1.05081
1.05508
1.05747
1.05778
1.05792
1.05804
1.05805
1.05734
1.05375
1.04225
1.01942
1.0026
1.00004
1
1
1
1
1
1
1
1
1
1
1
1
1
1
1
1
1
1
1
1
1
1
1
1
3.56947
3.55194
3.5241
3.47349
3.32889
3.11128
2.85257
2.51885
2.26746
2.0749
1.82776
1.61577
1.50881
1.42125
1.27417
1.15323
1.1121
1.06293
0.975078
0.91858
0.904665
0.879054
0.837659
0.823478
0.826017
0.826069
0.81993
0.818796
0.820571
0.825686
0.827598
0.831515
0.841513
0.85635
0.860961
0.859935
0.861021
0.86226
0.86081
0.858493
0.856736
0.854543
0.851068
0.846311
0.840006
0.833695
0.830019
0.827765
0.826688
0.827308
0.825729
0.822717
0.819436
0.814919
0.809806
0.807864
0.806997
0.806548
0.80709
0.806159
0.803664
0.800428
0.797541
0.796698
0.796844
0.79783
0.799432
0.801708
0.803103