/*--------------------------------*- C++ -*----------------------------------*\
  =========                 |
  \\      /  F ield         | OpenFOAM: The Open Source CFD Toolbox
   \\    /   O peration     | Website:  https://openfoam.org
    \\  /    A nd           | Version:  7
     \\/     M anipulation  |
\*---------------------------------------------------------------------------*/
FoamFile
{
    version     2.0;
    format      ascii;
    class       volScalarField;
    location    "0.4";
    object      T;
}
// * * * * * * * * * * * * * * * * * * * * * * * * * * * * * * * * * * * * * //

dimensions      [0 0 0 1 0 0 0];

internalField   nonuniform List<scalar> 
18432
(
1
1
1
1
1
1
1
1
1
1
1
1
1
1
1
1
1
1
1
1
1
1
1
1
1
1
1
1
1
1
1
1
1
1
1
1
1
1
1
1
1
1
1
1
1
1
1
1
1
1
1
1
1
1
1
1
1
1
1
1
1
1
1
1
1
1
1
1
1
1
1
1
1
1
1
1
1
1
1
1
1
1
1
1
1
1
1
1
1
1
1
1
1
1
1
1
1
1
1
1
1
1
1
1
1
1
1
1
1
1
1
1
1
1
1
1
1
1
1
1
1
1
1
1
1
1
1
1
1
1
1
1
1
1
1
1
1
1
1
1
1
1
1
1
1
1
1
1
1
1
1
1
1
1
1
1
1
1
1
1
1
1
1
1
1
1
1
1
1
1
1
1
1
1
1
1
1
1
1
1
1
1
1
1
1
1
1
1
1
1
1
1
1
1
1
1
1
1
1
1
1
1
1
1
1
1
1
1
1
1
1
1
1
1
1
1
1
1
1
1
1
1
1
1
1
1
1
1
1
1
1
1
1
1
1
1
1
1
1
1
1
1
1
1
1
1
1
1
1
1
1
1
1
1
1
1
1
1
1
1
1
1
1
1
1
1
1
1
1
1
1
1
1
1
1
1
1
1
1
1
1
1
1
1
1
1
1
1
1
1
1
1
1
1
1
1
1
1
1
1
1
1
1
1
1
1
1
1
1
1
1
1
1
1
1
1
1
1
1
1
1
1
1
1
1
1
1
1
1
1
1
1
1
1
1
1
1
1
1
1
1
1
1
1
1
1
1
1
1
1
1
1
1
1
1
1
1
1
1
1
1
1
1
1
1
1
1
1
1
1
1
1
1
1
1
1
1
1
1
1
1
1
1
1
1
1
1
1
1
1
1
1
1
1
1
1
1
1
1
1
1
1
1
1
1
1
1
1
1
1
1
1
1
1
1
1
1
1
1
1
1
1
1
1
1
1
1
1
1
1
1
1
1
1
1
1
1
1
1
1
1
1
1
1
1
1
1
1
1
1
1
1
1
1
1
1
1
1
1
1
1
1
1
1
1
1
1
1
1
1
1
1
1
1
1
1
1
1
1
1
1
1
1
1
1
1
1
1
1
1
1
1
1
1
1
1
1
1
1
1
1
1
1
1
1
1
1
1
1
1
1
1
1
1
1
1
1
1
1
1
1
1
1
1
1
1
1
1
1
1
1
1
1
1
1
1
1
1
1
1
1
1
1
1
1
1
1
1
1
1
1
1
1
1
1
1
1
1
1
1
1
1
1
1
1
1
1
1
1
1
1
1
1
1
1
1
1
1
1
1
1
1
1
1
1
1
1
1
1
1
1
1
1
1
1
1
1
1
1
1
1
1
1
1
1
1
1
1
1
1
1
1
1
1
1
1
1
1
1
1
1
1
1
1
1
1
1
1
1
1
1
1
1
1
1
1
1
1
1
1
1
1
1
1
1
1
1
1
1
1
1
1
1
1
1
1
1
1
1
1
1
1
1
1
1
1
1
1
1
1
1
1
1
1
1
1
1
1
1
1
1
1
1
1
1
1
1
1
1
1
1
1
1
1
1
1
1
1
1
1
1
1
1
1
1
1
1
1
1
1
1
1
1
1
1
1
1
1
1
1
1
1
1
1
1
1
1
1
1
1
1
1
1
1
1
1
1
1
1
1
1
1
1
1
1
1
1
1
1
1
1
1
1
1
1
1
1
1
1
1
1
1
1
1
1
1
1
1
1
1
1
1
1
1
1
1
1
1
1
1
1
1
1
1
1
1
1
1
1
1
1
1
1
1
1
1
1
1
1
1
1
1
1
1
1
1
1
1
1
1
1
1
1
1
1
1
1
1
1
1
1
1
1
1
1
1
1
1
1
1
1
1
1
1
1
1
1
1
1
1
1
1
1
1
1
1
1
1
1
1
1
1
1
1
1
1
1
1
1
1
1
1
1
1
1
1
1
1
1
1
1
1
1
1
1
1
1
1
1
1
1
1
1
1
1
1
1
1
1
1
1
1
1
1
1
1
1
1
1
1
1
1
1
1
1
1
1
1
1
1
1
1
1
1
1
1
1
1
1
1
1
1
1
1
1
1
1
1
1
1
1
1
1
1
1
1
1
1
1
1
1
1
1
1
1
1
1
1
1
1
1
1
1
1
1
1
1
1
1
1
1
1
1
1
1
1
1
1
1
1
1
1
1
1
1
1
1
1
1
1
1
1
1
1
1
1
1
1
1
1
1
1
1
1
1
1
1
1
1
1
1
1
1
1
1
1
1
1
1
1
1
1
1
1
1
1
1
1
1
1
1
1
1
1
1
1
1
1
1
1
1
1
1
1
1
1
1
1
1
1
1
1
1
1
1
1
1
1
1
1
1
1
1
1
1
1
1
1
1
1
1
1
1
1
1
1
1
1
1
1
1
1
1
1
1
1
1
1
1
1
1
1
1
1
1
1
1
1
1
1
1
1
1
1
1
1
1
1
1
1
1
1
1
1
1
1
1
1
1
1
1
1
1
1
1
1
1
1
1
1
1
1
1
1
1
1
1
1
1
1
1
1
1
1
1
1
1
1
1
1
1
1
1
1
1
1
1
1
1
1
1
1
1
1
1
1
1
1
1
1
1
1
1
1
1
1
1
1
1
1
1
1
1
1
1
1
1
1
1
1
1
1
1
1
1
1
1
1
1
1
1
1
1
1
1
1
1
1
1
1
1
1
1
1
1
1
1
1
1
1
1
1
1
1
1
1
1
1
1
1
1
1
1
1
1
1
1
1
1
1
1
1
1
1
1
1
1
1
1
1
1
1
1
1
1
1
1
1
1
1
1
1
1
1
1
1
1
1
1
1
1
1
1
1
1
1
1
1
1
1
1
1
1
1
1
1
1
1
1
1
1
1
1
1
1
1
1
1
1
1
1
1
1
1
1
1
1
1
1
1
1
1
1
1
1
1
1
1
1
1
1
1
1
1
1
1
1
1
1
1
1
1
1
1
1
1
1
1
1
1
1
1
1
1
1
1
1
1
1
1
1
1
1
1
1
1
1
1
1
1
1
1
1
1
1
1
1
1
1
1
1
1
1
1
1
1
1
1
1
1
1
1
1
1
1
1
1
1
1
1
1
1
1
1
1
1
1
1
1
1
1
1
1
1
1
1
1
1
1
1
1
1
1
1
1
1
1
1
1
1
1
1
1
1
1
1
1
1
1
1
1
1
1
1
1
1
1
1
1
1
1
1
1
1
1
1
1
1
1
1
1
1
1
1
1
1
1
1
1
1
1
1
1
1
1
1
1
1
1
1
1
1
1
1
1
1
1
1
1
1
1
1
1
1
1
1
1
1
1
1
1
1
1
1
1
1
1
1
1
1
1
1
1
1
1
1
1
1
1
1
1
1
1
1
1
1
1
1
1
1
1
1
1
1
1
1
1
1
1
1
1
1
1
1
1
1
1
1
1
1
1
1
1
1
1
1
1
1
1
1
1
1
1
1
1
1
1
1
1
1
1
1
1
1
1
1
1
1
1
1
1
1
1
1
1
1
1
1
1
1
1
1
1
1
1
1
1
1
1
1
1
1
1
1
1
1
1
1
1
1
1
1
1
1
1
1
1
1
1
1
1
1
1
1
1
1
1
1
1
1
1
1
1
1
1
1
1
1
1
1
1
1
1
1
1
1
1
1
1
1
1
1
1
1
1
1
1
1
1
1
1
1
1
1
1
1
1
1
1
1
1
1
1
1
1
1
1
1
1
1
1
1
1
1
1
1
1
1
1
1
1
1
1
1
1
1
1
1
1
1
1
1
1
1
1
1
1
1
1
1
1
1
1
1
1
1
1
1
1
1
1
1
1
1
1
1
1
1
1
1
1
1
1
1
1
1
1
1
1
1
1
1
1
1
1
1
1
1
1
1
1
1
1
1
1
1
1
1
1
1
1
1
1
1
1
1
1
1
1
1
1
1
1
1
1
1
1
1
1
1
1
1
1
1
1
1
1
1
1
1
1
1
1
1
1
1
1
1
1
1
1
1
1
1
1
1
1
1
1
1
1
1
1
1
1
1
1
1
1
1
1
1
1
1
1
1
1
1
1
1
1
1
1
1
1
1
1
1
1
1
1
1
1
1
1
1
1
1
1
1
1
1
1
1
1
1
1
1
1
1
1
1
1
1
1
1
1
1
1
1
1
1
1
1
1
1
1
1
1
1
1
1
1
1
1
1
1
1
1
1
1
1
1
1
1
1
1
1
1
1
1
1
1
1
1
1
1
1
1
1
1
1
1
1
1
1
1
1
1
1
1
1
1
1
1
1
1
1
1
1
1
1
1
1
1
1
1
1
1
1
1
1
1
1
1
1
1
1
1
1
1
1
1
1
1
1
1
1
1
1
1
1
1
1
1
1
1
1
1
1
1
1
1
1
1
1
1
1
1
1
1
1
1
1
1
1
1
1
1
1
1
1
1
1
1
1
1
1
1
1
1
1
1
1
1
1
1
1
1
1
1
1
1
1
1
1
1
1
1
1
1
1
1
1
1
1
1
1
1
1
1
1
1
1
1
1
1
1
1
1
1
1
1
1
1
1
1
1
1
1
1
1
1
1
1
1
1
1
1
1
1
1
1
1
1
1
1
1
1
1
1
1
1
1
1
1
1
1
1
1
1
1
1
1
1
1
1
1
1
1
1
1
1
1
1
1
1
1
1
1
1
1
1
1
1
1
1
1
1
1
1
1
1
1
1
1
1
1
1
1
1
1
1
1
1
1
1
1
1
1
1
1
1
1
1
1
1
1
1
1
1
1
1
1
1
1
1
1
1
1
1
1
1
1
1
1
1
1
1
1
1
1
1
1
1
1
1
1
1
1
1
1
1
1
1
1
1
1
1
1
1
1
1
1
1
1
1
1
1
1
1
1
1
1
1
1
1
1
1
1
1
1
1
1
1
1
1
1
1
1
1
1
1
1
1
1
1
1
1
1
1
1
1
1
1
1
1
1
1
1
1
1
1
1
1
1
1
1
1
1
1
1
1
1
1
1
1
1
1
1
1
1
1
1
1
1
1
1
1
1
1
1
1
1
1
1
1
1
1
1
1
1
1
1
1
1
1
1
1
1
1
1
1
1
1
1
1
1
1
1
1
1
1
1
1
1
1
1
1
1
1
1
1
1
1
1
1
1
1
1
1
1
1
1
1
1
1
1
1
1
1
1
1
1
1
1
1
1
1
1
1
1
1
1
1
1
1
1
1
1
1
1
1
1
1
1
1
1
1
1
1
1
1
1
1
1
1
1
1
1
1
1
1
1
1
1
1
1
1
1
1
1
1
1
1
1
1
1
1
1
1
1
1
1
1
1
1
1
1
1
1
1
1
1
1
1
1
1
1
1
1
1
1
1
1
1
1
1
1
1
1
1
1
1
1
1
1
1
1
1
1
1
1
1
1
1
1
1
1
1
1
1
1
1
1
1
1
1
1
1
1
1
1
1
1
1
1
1
1
1
1
1
1
1
1
1
1
1
1
1
1
1
1
1
1
1
1
1
1
1
1
1
1
1
1
1
1
1
1
1
1
1
1
1
1
1
1
1
1
1
1
1
1
1
1
1
1
1
1
1
1
1
1
1
1
1
1
1
1
1
1
1
1
1
1
1
1
1
1
1
1
1
1
1
1
1
1
1
1
1
1
1
1
1
1
1
1
1
1
1
1
1
1
1
1
1
1
1
1
1
1
1
1
1
1
1
1
1
1
1
1
1
1
1
1
1
1
1
1
1
1
1
1
1
1
1
1
1
1
1
1
1
1
1
1
1
1
1
1
1
1
1
1
1
1
1
1
1
1
1
1
1
1
1
1
1
1
1
1
1
1
1
1
1
1
1
1
1
1
1
1
1
1
1
1
1
1
1
1
1
1
1
1
1
1
1
1
1
1
1
1
1
1
1
1
1
1
1
1
1
1
1
1
1
1
1
1
1
1
1
1
1
1
1
1
1
1
1
1
1
1
1
1
1
1
1
1
1
1
1
1
1
1
1
1
1
1
1
1
1
1
1
1
1
1
1
1
1
1
1
1
1
1
1
1
1
1
1
1
1
1
1
1
1
1
1
1
1
1
1
1
1
1
1
1
1
1
1
1
1
1
1
1
1
1
1
1
1
1
1
1
1
1
1
1
1
1
1
1
1
1
1
1
1
1
1
1
1
1
1
1
1
1
1
1
1
1
1
1
1
1
1
1
1
1
1
1
1
1
1
1
1
1
1
1
1
1
1
1
1
1
1
1
1
1
1
1
1
1
1
1
1
1
1
1
1
1
1
1
1
1
1
1
1
1
1
1
1
1
1
1
1
1
1
1
1
1
1
1
1
1
1
1
1
1
1
1
1
1
1
1
1
1
1
1
1
1
1
1
1
1
1
1
1
1
1
1
1
1
1
1
1
1
1
1
1
1
1
1
1
1
1
1
1
1
1
1
1
1
1
1
1
1
1
1
1
1
1
1
1
1
1
1
1
1
1
1
1
1
1
1
1
1
1
1
1
1
1
1
1
1
1
1
1
1
1
1
1
1
1
1
1
1
1
1
1
1
1
1
1
1
1
1
1
1
1
1
1
1
1
1
1
1
1
1
1
1
1
1
1
1
1
1
1
1
1
1
1
1
1
1
1
1
1
1
1
1
1
1
1
1
1
1
1
1
1
1
1
1
1
1
1
1
1
1
1
1
1
1
1
1
1
1
1
1
1
1
1
1
1
1
1
1
1
1
1
1
1
1
1
1
1
1
1
1
1
1
1
1
1
1
1
1
1
1
1
1
1
1
1
1
1
1
1
1
1
1
1
1
1
1
1
1
1
1
1
1
1
1
1
1
1
1
1
1
1
1
1
1
1
1
1
1
1
1
1
1
1
1
1
1
1
1
1
1
1
1
1
1
1
1
1
1
1
1
1
1
1
1
1
1
1
1.07794
1.18206
1.28191
1.37742
1.48076
1.55502
1.62103
1.67077
1.69458
1.68752
1.65864
1.61565
1.57561
1.54042
1.52357
1.5127
1.51284
1.51536
1.52057
1.52564
1.5294
1.53145
1.53348
1.53611
1.53865
1.54039
1.54132
1.542
1.5433
1.54541
1.54648
1.54653
1.5463
1.54538
1.54429
1.54387
1.54381
1.54397
1.54431
1.54432
1.54409
1.54331
1.54213
1.54028
1.53789
1.53469
1.53102
1.52814
1.00051
1.00499
1.02756
1.06644
1.12941
1.21626
1.29905
1.3792
1.45249
1.5045
1.52742
1.56446
1.56865
1.56274
1.5512
1.54548
1.54029
1.5351
1.53421
1.53336
1.53459
1.5365
1.53863
1.54029
1.54174
1.54306
1.54385
1.54411
1.54473
1.54599
1.54712
1.54768
1.54784
1.54762
1.54704
1.54681
1.54698
1.54741
1.54774
1.54757
1.54695
1.54576
1.54399
1.54136
1.53811
1.5345
1.53047
1.52816
1
0.999992
1.00002
1.00001
1.00046
1.00464
1.02097
1.07563
1.18097
1.35028
1.49639
1.58599
1.62498
1.62278
1.61149
1.59699
1.5823
1.56041
1.54914
1.54787
1.54899
1.55046
1.55216
1.55259
1.55259
1.55265
1.55349
1.55341
1.55341
1.55376
1.55444
1.55466
1.55445
1.55417
1.55378
1.55351
1.55353
1.55376
1.55417
1.55431
1.5536
1.5521
1.54989
1.54682
1.54298
1.53892
1.53433
1.53259
1
1
1
1
0.999999
1
0.99999
1.00004
1.00186
1.02837
1.15585
1.33071
1.51116
1.57489
1.61145
1.60688
1.59603
1.59304
1.58512
1.58001
1.57596
1.57146
1.5686
1.56561
1.56509
1.56588
1.56758
1.56868
1.56897
1.56884
1.56841
1.56791
1.56724
1.56671
1.56616
1.56542
1.56465
1.56418
1.56407
1.56384
1.56271
1.56076
1.55795
1.55425
1.54992
1.54573
1.54103
1.53916
1
1
1
1
1
1
1
1
1
0.999968
1.00087
1.01429
1.11524
1.29011
1.47051
1.57819
1.60481
1.61983
1.61599
1.60688
1.59146
1.57961
1.57582
1.57357
1.57263
1.57336
1.57547
1.57755
1.57958
1.58049
1.58053
1.58029
1.57943
1.57872
1.57826
1.5775
1.57649
1.57575
1.57534
1.57453
1.57296
1.57043
1.56699
1.56288
1.55835
1.55428
1.54967
1.5477
1
1
1
1
1
1
1
1
1
0.999999
0.999999
0.999981
1.00034
1.01075
1.07666
1.26564
1.42904
1.5633
1.59633
1.59593
1.59657
1.58925
1.5828
1.58058
1.57924
1.57805
1.57796
1.57857
1.58012
1.58212
1.5841
1.58507
1.58478
1.58423
1.5836
1.58291
1.58214
1.5818
1.5817
1.58087
1.57912
1.57656
1.57324
1.56947
1.5654
1.56174
1.55751
1.55534
1
1
1
1
1
1
1
1
1
1
1
0.999999
0.999999
0.999988
1.00012
1.00884
1.06595
1.21593
1.39502
1.51317
1.58614
1.59563
1.59258
1.59073
1.58659
1.58104
1.57787
1.57788
1.57861
1.57978
1.58124
1.58289
1.58374
1.58377
1.58346
1.58348
1.5838
1.58425
1.58425
1.58331
1.58162
1.5793
1.5763
1.57298
1.56926
1.56577
1.56217
1.55958
1
1
1
1
1
1
1
1
1
1
1
1
1
0.999999
0.999999
0.99999
1.00014
1.00441
1.05823
1.18692
1.37524
1.4826
1.55425
1.58223
1.58425
1.58166
1.5799
1.5797
1.57898
1.57821
1.57787
1.57791
1.57941
1.58091
1.58203
1.58296
1.58368
1.58452
1.58441
1.58343
1.58173
1.57948
1.57654
1.57336
1.56979
1.5663
1.56306
1.5603
1
1
1
1
1
1
1
1
1
1
1
1
1
1
1
0.999999
0.999999
0.999992
1.00016
1.00361
1.04608
1.18293
1.34385
1.47456
1.52258
1.55608
1.57115
1.57523
1.57465
1.573
1.57354
1.5742
1.57524
1.57692
1.57896
1.58091
1.58226
1.5829
1.58256
1.58164
1.58
1.57753
1.57448
1.57124
1.56776
1.56436
1.56137
1.55861
1
1
1
1
1
1
1
1
1
1
1
1
1
1
1
1
1
0.999999
0.999999
0.999994
1.00012
1.00449
1.03615
1.16765
1.32048
1.4655
1.52592
1.54382
1.55653
1.55974
1.5635
1.56546
1.56638
1.5683
1.57107
1.57382
1.57562
1.57667
1.57664
1.57622
1.57519
1.57344
1.57091
1.5679
1.56457
1.56132
1.55855
1.55592
1
1
1
1
1
1
1
1
1
1
1
1
1
1
1
1
1
1
1
1
1
0.999995
1.00008
1.0042
1.03646
1.15057
1.32488
1.45095
1.5286
1.54707
1.55236
1.5567
1.55855
1.56064
1.56283
1.56485
1.56639
1.56796
1.5689
1.56873
1.56806
1.56668
1.56455
1.56177
1.5587
1.55589
1.55371
1.55122
1
1
1
1
1
1
1
1
1
1
1
1
1
1
1
1
1
1
1
1
1
1
1
0.999996
1.00012
1.00329
1.04554
1.15343
1.32709
1.44472
1.52074
1.54952
1.55604
1.55918
1.5618
1.56194
1.56229
1.56354
1.56417
1.5638
1.56278
1.56079
1.5584
1.55575
1.55299
1.55062
1.54882
1.54631
1
1
1
1
1
1
1
1
1
1
1
1
1
1
1
1
1
1
1
1
1
1
1
0.999999
1
0.999996
1.00026
1.00381
1.04668
1.17541
1.34142
1.45345
1.51079
1.54311
1.55506
1.55673
1.55812
1.56037
1.56034
1.55974
1.55848
1.55624
1.55383
1.55131
1.54899
1.54666
1.54464
1.54157
1
1
1
1
1
1
1
1
1
1
1
1
1
1
1
1
1
1
1
1
1
1
1
1
1
0.999999
1
0.999997
1.00036
1.00652
1.05209
1.20273
1.36389
1.48807
1.51985
1.53416
1.54526
1.55289
1.55293
1.55256
1.55217
1.55127
1.54936
1.54701
1.54462
1.54212
1.54
1.53703
1
1
1
1
1
1
1
1
1
1
1
1
1
1
1
1
1
1
1
1
1
1
1
1
1
1
1
1
1
1
1.00048
1.0123
1.0723
1.24179
1.39854
1.50795
1.54262
1.54605
1.54767
1.54751
1.54752
1.54701
1.54513
1.54286
1.5404
1.53787
1.53563
1.53325
1
1
1
1
1
1
1
1
1
1
1
1
1
1
1
1
1
1
1
1
1
1
1
1
1
1
1
1
1
1
0.999999
1.00003
1.00099
1.02145
1.11082
1.29608
1.44052
1.5228
1.55158
1.5532
1.5516
1.54996
1.54706
1.54373
1.54049
1.53678
1.53349
1.53079
1
1
1
1
1
1
1
1
1
1
1
1
1
1
1
1
1
1
1
1
1
1
1
1
1
1
1
1
1
1
1
1
0.999999
1.00012
1.00267
1.04075
1.17875
1.36611
1.47223
1.52542
1.54656
1.54818
1.54564
1.54199
1.53882
1.53548
1.53219
1.52844
1
1
1
1
1
1
1
1
1
1
1
1
1
1
1
1
1
1
1
1
1
1
1
1
1
1
1
1
1
1
1
1
1
1
1
1.00048
1.00923
1.07901
1.25896
1.43892
1.52006
1.52815
1.53382
1.534
1.53391
1.53213
1.52917
1.5254
1
1
1
1
1
1
1
1
1
1
1
1
1
1
1
1
1
1
1
1
1
1
1
1
1
1
1
1
1
1
1
1
1
1
1
0.999999
1.00002
1.00185
1.0319
1.15668
1.35056
1.48313
1.53793
1.53872
1.53546
1.53197
1.5282
1.52414
1
1
1
1
1
1
1
1
1
1
1
1
1
1
1
1
1
1
1
1
1
1
1
1
1
1
1
1
1
1
1
1
1
1
1
1
1
1
1.00034
1.00769
1.08776
1.2634
1.42295
1.49496
1.52978
1.53085
1.52872
1.52357
1
1
1
1
1
1
1
1
1
1
1
1
1
1
1
1
1
1
1
1
1
1
1
1
1
1
1
1
1
1
1
1
1
1
1
1
1
1
1
1.00003
1.00271
1.03064
1.17585
1.35059
1.49386
1.50647
1.50916
1.51231
1
1
1
1
1
1
1
1
1
1
1
1
1
1
1
1
1
1
1
1
1
1
1
1
1
1
1
1
1
1
1
1
1
1
1
1
1
1
1
1
1
1.00037
1.0138
1.08841
1.27726
1.42866
1.49133
1.51544
1
1
1
1
1
1
1
1
1
1
1
1
1
1
1
1
1
1
1
1
1
1
1
1
1
1
1
1
1
1
1
1
1
1
1
1
1
1
1
1
1
1
1.00011
1.00303
1.04276
1.19644
1.36329
1.4435
1
1
1
1
1
1
1
1
1
1
1
1
1
1
1
1
1
1
1
1
1
1
1
1
1
1
1
1
1
1
1
1
1
1
1
1
1
1
1
1
1
1
1
1.00001
1.00094
1.01735
1.12218
1.27081
1
1
1
1
1
1
1
1
1
1
1
1
1
1
1
1
1
1
1
1
1
1
1
1
1
1
1
1
1
1
1
1
1
1
1
1
1
1
1
1
1
1
1
1
1
1.0002
1.00668
1.04854
1
1
1
1
1
1
1
1
1
1
1
1
1
1
1
1
1
1
1
1
1
1
1
1
1
1
1
1
1
1
1
1
1
1
1
1
1
1
1
1
1
1
1
1
1
1
1.00007
1.00019
1
1
1
1
1
1
1
1
1
1
1
1
1
1
1
1
1
1
1
1
1
1
1
1
1
1
1
1
1
1
1
1
1
1
1
1
1
1
1
1
1
1
1
1
1
1
1
0.999998
1
1
1
1
1
1
1
1
1
1
1
1
1
1
1
1
1
1
1
1
1
1
1
1
1
1
1
1
1
1
1
1
1
1
1
1
1
1
1
1
1
1
1
1
1
1
1
0.999999
1
1
1
1
1
1
1
1
1
1
1
1
1
1
1
1
1
1
1
1
1
1
1
1
1
1
1
1
1
1
1
1
1
1
1
1
1
1
1
1
1
1
1
1
1
1
1
1
1
1
1
1
1
1
1
1
1
1
1
1
1
1
1
1
1
1
1
1
1
1
1
1
1
1
1
1
1
1
1
1
1
1
1
1
1
1
1
1
1
1
1
1
1
1
1
1
1
1
1
1
1
1
1
1
1
1
1
1
1
1
1
1
1
1
1
1
1
1
1
1
1
1
1
1
1
1
1
1
1
1
1
1
1
1
1
1
1
1
1
1
1
1
1
1
1
1
1
1
1
1
1
1
1
1
1
1
1
1
1
1
1
1
1
1
1
1
1
1
1
1
1
1
1
1
1
1
1
1
1
1
1
1
1
1
1
1
1
1
1
1
1
1
1
1
1
1
1
1
1
1
1
1
1
1
1
1
1
1
1
1
1
1
1
1
1
1
1
1
1
1
1
1
1
1
1
1
1
1
1
1
1
1
1
1
1
1
1
1
1
1
1
1
1
1
1
1
1
1
1
1
1
1
1
1
1
1
1
1
1
1
1
1
1
1
1
1
1
1
1
1
1
1
1
1
1
1
1
1
1
1
1
1
1
1
1
1
1
1
1
1
1
1
1
1
1
1
1
1
1
1
1
1
1
1
1
1
1
1
1
1
1
1
1
1
1
1
1
1
1
1
1
1
1
1
1
1
1
1
1
1
1
1
1
1
1
1
1
1
1
1
1
1
1
1
1
1
1
1
1
1
1
1
1
1
1
1
1
1
1
1
1
1
1
1
1
1
1
1
1
1
1
1
1
1
1
1
1
1
1
1
1
1
1
1
1
1
1
1
1
1
1
1
1
1
1
1
1
1
1
1
1
1
1
1
1
1
1
1
1
1
1
1
1
1
1
1
1
1
1
1
1
1
1
1
1
1
1
1
1
1
1
0.999999
1
1
1
1
1
1
1
1
1
1
1
1
1
1
1
1
1
1
1
1
1
1
1
1
1
1
1
1
1
1
1
1
1
1
1
1
1
1
1
1
1
1
1
1
1
1
1
0.999998
1
1
1
1
1
1
1
1
1
1
1
1
1
1
1
1
1
1
1
1
1
1
1
1
1
1
1
1
1
1
1
1
1
1
1
1
1
1
1
1
1
1
1
1
1
1
1.00007
1.00019
1
1
1
1
1
1
1
1
1
1
1
1
1
1
1
1
1
1
1
1
1
1
1
1
1
1
1
1
1
1
1
1
1
1
1
1
1
1
1
1
1
1
1
1
1
1.0002
1.00668
1.04854
1
1
1
1
1
1
1
1
1
1
1
1
1
1
1
1
1
1
1
1
1
1
1
1
1
1
1
1
1
1
1
1
1
1
1
1
1
1
1
1
1
1
1
1.00001
1.00094
1.01735
1.12218
1.27081
1
1
1
1
1
1
1
1
1
1
1
1
1
1
1
1
1
1
1
1
1
1
1
1
1
1
1
1
1
1
1
1
1
1
1
1
1
1
1
1
1
1
1.00011
1.00303
1.04276
1.19644
1.36329
1.4435
1
1
1
1
1
1
1
1
1
1
1
1
1
1
1
1
1
1
1
1
1
1
1
1
1
1
1
1
1
1
1
1
1
1
1
1
1
1
1
1
1
1.00037
1.0138
1.08841
1.27726
1.42866
1.49133
1.51544
1
1
1
1
1
1
1
1
1
1
1
1
1
1
1
1
1
1
1
1
1
1
1
1
1
1
1
1
1
1
1
1
1
1
1
1
1
1
1
1.00003
1.00271
1.03064
1.17585
1.35059
1.49386
1.50647
1.50916
1.51231
1
1
1
1
1
1
1
1
1
1
1
1
1
1
1
1
1
1
1
1
1
1
1
1
1
1
1
1
1
1
1
1
1
1
1
1
1
1
1.00034
1.00769
1.08776
1.2634
1.42295
1.49496
1.52978
1.53085
1.52872
1.52357
1
1
1
1
1
1
1
1
1
1
1
1
1
1
1
1
1
1
1
1
1
1
1
1
1
1
1
1
1
1
1
1
1
1
1
0.999999
1.00002
1.00185
1.0319
1.15668
1.35056
1.48313
1.53793
1.53872
1.53546
1.53197
1.5282
1.52414
1
1
1
1
1
1
1
1
1
1
1
1
1
1
1
1
1
1
1
1
1
1
1
1
1
1
1
1
1
1
1
1
1
1
1
1.00048
1.00923
1.07901
1.25896
1.43892
1.52006
1.52815
1.53382
1.534
1.53391
1.53213
1.52917
1.5254
1
1
1
1
1
1
1
1
1
1
1
1
1
1
1
1
1
1
1
1
1
1
1
1
1
1
1
1
1
1
1
1
0.999999
1.00012
1.00267
1.04075
1.17875
1.36611
1.47223
1.52542
1.54656
1.54818
1.54564
1.54199
1.53882
1.53548
1.53219
1.52844
1
1
1
1
1
1
1
1
1
1
1
1
1
1
1
1
1
1
1
1
1
1
1
1
1
1
1
1
1
1
0.999999
1.00003
1.00099
1.02145
1.11082
1.29608
1.44052
1.5228
1.55158
1.5532
1.5516
1.54995
1.54706
1.54373
1.54049
1.53678
1.53349
1.53079
1
1
1
1
1
1
1
1
1
1
1
1
1
1
1
1
1
1
1
1
1
1
1
1
1
1
1
1
1
1
1.00048
1.0123
1.0723
1.24179
1.39854
1.50795
1.54262
1.54605
1.54767
1.54751
1.54752
1.54701
1.54513
1.54286
1.5404
1.53787
1.53563
1.53325
1
1
1
1
1
1
1
1
1
1
1
1
1
1
1
1
1
1
1
1
1
1
1
1
1
0.999999
1
0.999997
1.00036
1.00652
1.05209
1.20273
1.36389
1.48807
1.51985
1.53416
1.54526
1.55289
1.55293
1.55256
1.55217
1.55127
1.54936
1.54701
1.54462
1.54212
1.54
1.53703
1
1
1
1
1
1
1
1
1
1
1
1
1
1
1
1
1
1
1
1
1
1
1
0.999999
1
0.999996
1.00026
1.00381
1.04668
1.17541
1.34142
1.45345
1.51079
1.54311
1.55506
1.55673
1.55812
1.56037
1.56034
1.55974
1.55848
1.55624
1.55383
1.55131
1.54899
1.54666
1.54464
1.54157
1
1
1
1
1
1
1
1
1
1
1
1
1
1
1
1
1
1
1
1
1
1
1
0.999996
1.00012
1.00329
1.04554
1.15343
1.32709
1.44472
1.52074
1.54952
1.55604
1.55918
1.5618
1.56194
1.56229
1.56354
1.56417
1.5638
1.56278
1.56079
1.5584
1.55575
1.55299
1.55062
1.54882
1.54631
1
1
1
1
1
1
1
1
1
1
1
1
1
1
1
1
1
1
1
1
1
0.999995
1.00008
1.0042
1.03646
1.15057
1.32488
1.45095
1.5286
1.54707
1.55236
1.5567
1.55855
1.56064
1.56283
1.56485
1.56639
1.56796
1.5689
1.56873
1.56806
1.56668
1.56455
1.56177
1.5587
1.55589
1.55371
1.55122
1
1
1
1
1
1
1
1
1
1
1
1
1
1
1
1
1
0.999999
0.999999
0.999994
1.00012
1.00449
1.03615
1.16765
1.32048
1.4655
1.52592
1.54382
1.55653
1.55974
1.5635
1.56546
1.56638
1.5683
1.57107
1.57382
1.57562
1.57667
1.57664
1.57622
1.57519
1.57344
1.57091
1.5679
1.56457
1.56132
1.55855
1.55592
1
1
1
1
1
1
1
1
1
1
1
1
1
1
1
0.999999
0.999999
0.999992
1.00016
1.00361
1.04608
1.18293
1.34385
1.47457
1.52258
1.55608
1.57115
1.57523
1.57465
1.573
1.57354
1.5742
1.57524
1.57692
1.57896
1.58091
1.58226
1.5829
1.58256
1.58164
1.58
1.57753
1.57448
1.57124
1.56776
1.56436
1.56137
1.55861
1
1
1
1
1
1
1
1
1
1
1
1
1
0.999999
0.999999
0.99999
1.00014
1.00441
1.05823
1.18692
1.37524
1.4826
1.55425
1.58223
1.58425
1.58166
1.5799
1.5797
1.57898
1.57821
1.57787
1.57791
1.57941
1.58091
1.58203
1.58296
1.58368
1.58452
1.58441
1.58343
1.58173
1.57948
1.57654
1.57336
1.56979
1.5663
1.56306
1.5603
1
1
1
1
1
1
1
1
1
1
1
0.999999
0.999999
0.999988
1.00012
1.00884
1.06595
1.21593
1.39502
1.51317
1.58614
1.59563
1.59258
1.59073
1.58659
1.58104
1.57787
1.57788
1.57861
1.57978
1.58124
1.58289
1.58374
1.58377
1.58346
1.58348
1.5838
1.58425
1.58425
1.58331
1.58162
1.5793
1.5763
1.57298
1.56926
1.56577
1.56217
1.55958
1
1
1
1
1
1
1
1
1
0.999999
0.999999
0.999981
1.00034
1.01075
1.07666
1.26564
1.42904
1.5633
1.59633
1.59593
1.59657
1.58925
1.5828
1.58058
1.57924
1.57805
1.57796
1.57857
1.58012
1.58212
1.5841
1.58507
1.58478
1.58423
1.5836
1.58291
1.58214
1.5818
1.5817
1.58087
1.57912
1.57656
1.57324
1.56947
1.5654
1.56174
1.55751
1.55534
1
1
1
1
1
1
1
1
1
0.999968
1.00087
1.01429
1.11524
1.29011
1.47051
1.57819
1.60481
1.61983
1.61599
1.60688
1.59146
1.57961
1.57582
1.57357
1.57263
1.57336
1.57547
1.57755
1.57958
1.58049
1.58053
1.58029
1.57943
1.57872
1.57826
1.5775
1.57649
1.57575
1.57534
1.57453
1.57296
1.57043
1.56699
1.56288
1.55835
1.55428
1.54967
1.5477
1
1
1
1
0.999999
1
0.99999
1.00004
1.00186
1.02837
1.15585
1.33071
1.51116
1.57489
1.61145
1.60688
1.59603
1.59304
1.58512
1.58001
1.57596
1.57146
1.5686
1.56561
1.56509
1.56588
1.56758
1.56868
1.56897
1.56884
1.56841
1.56791
1.56724
1.56671
1.56616
1.56542
1.56465
1.56418
1.56407
1.56384
1.56271
1.56076
1.55795
1.55425
1.54992
1.54573
1.54103
1.53916
1
0.999992
1.00002
1.00001
1.00046
1.00464
1.02097
1.07563
1.18097
1.35028
1.49639
1.58599
1.62498
1.62278
1.61149
1.59699
1.5823
1.56041
1.54914
1.54787
1.54899
1.55046
1.55216
1.55259
1.55259
1.55265
1.55349
1.55341
1.55341
1.55376
1.55444
1.55466
1.55445
1.55417
1.55378
1.55351
1.55353
1.55376
1.55417
1.55431
1.5536
1.5521
1.54989
1.54682
1.54298
1.53892
1.53433
1.53259
1.00051
1.00499
1.02756
1.06644
1.12941
1.21626
1.29905
1.3792
1.45249
1.5045
1.52742
1.56446
1.56865
1.56274
1.5512
1.54548
1.54029
1.5351
1.53421
1.53336
1.53459
1.5365
1.53863
1.54029
1.54174
1.54306
1.54385
1.54411
1.54473
1.54599
1.54712
1.54768
1.54784
1.54762
1.54704
1.54681
1.54698
1.54741
1.54774
1.54757
1.54695
1.54576
1.54399
1.54136
1.53811
1.5345
1.53047
1.52816
1.07794
1.18206
1.28191
1.37742
1.48076
1.55502
1.62103
1.67077
1.69458
1.68752
1.65864
1.61565
1.57561
1.54042
1.52357
1.5127
1.51284
1.51536
1.52057
1.52564
1.52941
1.53145
1.53348
1.53611
1.53865
1.54039
1.54132
1.542
1.5433
1.54541
1.54648
1.54653
1.5463
1.54538
1.54429
1.54387
1.54381
1.54397
1.54431
1.54432
1.54409
1.54331
1.54213
1.54028
1.53789
1.53469
1.53102
1.52814
1.38467
1.22615
1.07647
0.977405
0.98175
0.978139
0.968585
0.979822
1.00787
1.0244
1.03044
1.04518
1.06881
1.07955
1.0776
1.07447
1.0774
1.07716
1.07461
1.07393
1.07518
1.07537
1.07432
1.07189
1.06826
1.06343
1.06086
1.05952
1.05877
1.058
1.05683
1.05528
1.05354
1.05237
1.05198
1.05136
1.05002
1.04923
1.04911
1.04864
1.0464
1.04401
1.04282
1.04145
1.0396
1.03815
1.03753
1.037
1.03582
1.03371
1.03063
1.02783
1.0253
1.02301
1.02205
1.02223
1.02271
1.02252
1.02191
1.02141
1.02099
1.02032
1.01973
1.01978
1.02034
1.02105
1.0211
1.02098
1.02107
1.02146
1.02144
1.02129
1.02084
1.01991
1.0192
1.01893
1.01912
1.01979
1.0195
1.01795
1.01618
1.01588
1.01586
1.01591
1.01627
1.01743
1.02061
1.028
1.0407
1.05443
1.06449
1.06887
1.0711
1.0726
1.07391
1.07488
1.07527
1.07552
1.07559
1.07506
1.0737
1.07336
1.07412
1.07636
1.07956
1.08454
1.09082
1.09163
1.09112
1.09108
1.09118
1.09156
1.09251
1.09378
1.09444
1.09451
1.09444
1.09407
1.09279
1.08978
1.08377
1.07272
1.05643
1.03735
1.02214
1.01434
1.01206
1.0114
1.01109
1.01124
1.01275
1.01555
1.0187
1.02137
1.02202
1.02201
1.02197
1.02189
1.02154
1.02086
1.02043
1.02031
1.02018
1.01997
1.01978
1.01969
1.01963
1.0195
1.01913
1.01788
1.0152
1.0133
1.0131
1.01314
1.01327
1.01368
1.01467
1.01552
1.01567
1.01571
1.01575
1.01578
1.01572
1.01515
1.01304
1.00791
1.00195
1.00008
1
1
1
1
1
1
1
1
1
1
1
1
1
1
1
1
1
1
1
1
1
1
1
1
1.47966
1.40192
1.31713
1.20934
1.15433
1.12607
1.07795
1.05176
1.04327
1.02928
1.01687
1.01684
1.02584
1.02907
1.02925
1.03133
1.03809
1.04462
1.04602
1.04841
1.05424
1.05724
1.05702
1.05561
1.05422
1.05267
1.05193
1.05197
1.05229
1.05242
1.05142
1.04983
1.04854
1.04774
1.04754
1.04715
1.04594
1.04466
1.04419
1.04367
1.04243
1.0404
1.03822
1.03606
1.03413
1.03287
1.03222
1.03164
1.03062
1.02897
1.02679
1.02439
1.02213
1.01986
1.01848
1.01805
1.01806
1.018
1.01776
1.01763
1.01743
1.01692
1.01622
1.01613
1.01649
1.01717
1.0175
1.01777
1.01818
1.01866
1.0188
1.01881
1.01865
1.01799
1.01701
1.01651
1.0164
1.01676
1.01662
1.01539
1.01451
1.01448
1.0145
1.01464
1.01515
1.0163
1.01911
1.02567
1.03751
1.05171
1.06224
1.06695
1.06919
1.07072
1.0721
1.07297
1.07317
1.07341
1.07364
1.07345
1.07256
1.07209
1.07294
1.076
1.08021
1.08538
1.09108
1.09207
1.09149
1.09114
1.09115
1.09121
1.09194
1.09328
1.09352
1.09329
1.09297
1.09245
1.09098
1.08784
1.08202
1.07195
1.05547
1.03426
1.01852
1.01289
1.01154
1.0112
1.01122
1.01168
1.01327
1.01602
1.01882
1.02113
1.02191
1.02193
1.0219
1.0218
1.02142
1.02077
1.02042
1.02032
1.02021
1.02001
1.01983
1.01975
1.0197
1.01959
1.01916
1.01777
1.01506
1.01332
1.01316
1.0132
1.01335
1.0138
1.0148
1.01562
1.01575
1.01578
1.01581
1.01582
1.01576
1.01524
1.01324
1.00807
1.00192
1.00008
1
1
1
1
1
1
1
1
1
1
1
1
1
1
1
1
1
1
1
1
1
1
1
1
1.51688
1.47536
1.41551
1.33999
1.26441
1.2108
1.15078
1.09537
1.07229
1.05066
1.01662
1.00562
1.0098
1.00722
1.00298
1.00444
1.00816
1.0139
1.0177
1.02207
1.02946
1.03454
1.03451
1.03345
1.03338
1.03433
1.03599
1.0385
1.04122
1.04204
1.0415
1.03988
1.03799
1.03703
1.03703
1.03679
1.03579
1.03426
1.03329
1.0326
1.03152
1.02981
1.02796
1.02624
1.0246
1.02316
1.02199
1.02107
1.02007
1.01871
1.01676
1.01479
1.01358
1.0121
1.01044
1.00993
1.00962
1.00905
1.00872
1.00873
1.00867
1.00845
1.00849
1.00883
1.0092
1.0093
1.00943
1.0099
1.01059
1.01117
1.01167
1.01202
1.01197
1.01159
1.01116
1.01073
1.01046
1.01036
1.01008
1.00897
1.00882
1.00888
1.00902
1.00938
1.01025
1.01171
1.01443
1.02027
1.03101
1.04516
1.05713
1.06262
1.06485
1.06651
1.0678
1.06781
1.06753
1.06773
1.06835
1.06874
1.06918
1.06979
1.07117
1.07399
1.07862
1.08303
1.08705
1.08926
1.08923
1.08922
1.08949
1.08998
1.09176
1.09342
1.09334
1.09327
1.09342
1.09329
1.09216
1.08912
1.08323
1.07207
1.05212
1.02772
1.01436
1.0116
1.01117
1.01118
1.01154
1.01239
1.01404
1.01671
1.01938
1.02141
1.022
1.022
1.02195
1.02177
1.02126
1.02058
1.02031
1.02024
1.02017
1.02004
1.01988
1.01981
1.0198
1.01969
1.01921
1.01762
1.01481
1.01328
1.01318
1.01322
1.01338
1.01386
1.01491
1.01567
1.01578
1.01581
1.01584
1.01585
1.01575
1.01512
1.01295
1.00766
1.00172
1.00006
1
1
1
1
1
1
1
1
1
1
1
1
1
1
1
1
1
1
1
1
1
1
1
1
1.53256
1.51395
1.4767
1.42219
1.35573
1.29961
1.24348
1.17839
1.14757
1.12199
1.0781
1.04964
1.04341
1.02877
1.009
1.00635
1.00786
1.00419
1.00075
1.00152
1.00527
1.00951
1.01033
1.01139
1.01464
1.02012
1.02309
1.02559
1.0284
1.02975
1.02951
1.02841
1.0279
1.02813
1.02928
1.02988
1.02935
1.0281
1.02646
1.02498
1.02352
1.0217
1.01983
1.01816
1.01642
1.01465
1.01277
1.01099
1.00969
1.00827
1.00628
1.00444
1.00359
1.00271
1.00162
1.00108
1.00082
1.00045
1.00013
0.999873
0.999742
0.99974
1.00006
1.00101
1.00197
1.0022
1.00234
1.00296
1.00375
1.00419
1.00464
1.00506
1.00512
1.00496
1.00468
1.00419
1.00365
1.00352
1.00339
1.00271
1.0025
1.0026
1.00288
1.00352
1.00467
1.0062
1.00866
1.01382
1.02332
1.03676
1.05081
1.05825
1.06067
1.06214
1.06275
1.0626
1.06243
1.06292
1.06364
1.06469
1.06632
1.06748
1.06911
1.07159
1.07571
1.07886
1.08121
1.0838
1.08622
1.08722
1.08756
1.08846
1.09094
1.09276
1.09308
1.09326
1.09356
1.09336
1.0921
1.08846
1.08047
1.0655
1.04181
1.0187
1.01123
1.01112
1.01143
1.01158
1.01198
1.01296
1.01477
1.01746
1.01997
1.02166
1.02206
1.02205
1.02197
1.02171
1.02109
1.02043
1.0202
1.02013
1.0201
1.02004
1.01991
1.01987
1.01987
1.01981
1.01926
1.01743
1.01454
1.01328
1.01322
1.01326
1.01343
1.01395
1.01504
1.01576
1.01586
1.01589
1.01592
1.01594
1.01583
1.01517
1.01276
1.00711
1.00141
1.00004
1
1
1
1
1
1
1
1
1
1
1
1
1
1
1
1
1
1
1
1
1
1
1
1
1.54223
1.5347
1.5151
1.47935
1.42532
1.37392
1.32102
1.25955
1.22111
1.19185
1.14185
1.09634
1.0804
1.06516
1.03508
1.01636
1.01584
1.00978
1.00072
1.00096
1.00403
1.00486
1.00331
1.00255
1.00429
1.01
1.01545
1.01824
1.02056
1.0224
1.02244
1.02229
1.02258
1.02319
1.02436
1.0247
1.02456
1.024
1.02234
1.02066
1.01959
1.01837
1.01704
1.01564
1.01379
1.01143
1.00881
1.00661
1.00518
1.00378
1.00195
1.00015
0.998867
0.997329
0.996104
0.995295
0.99496
0.994884
0.994841
0.994883
0.994592
0.994375
0.994812
0.995832
0.996938
0.997781
0.99864
0.999997
1.00105
1.0015
1.0018
1.00181
1.0017
1.00145
1.00132
1.00074
0.999969
0.999879
0.999815
0.999787
0.999388
0.999475
0.999825
1.0005
1.00151
1.00281
1.00497
1.00959
1.01857
1.03263
1.04805
1.05616
1.0586
1.05969
1.06011
1.06017
1.06057
1.06156
1.06278
1.06488
1.06618
1.06731
1.06829
1.07066
1.07418
1.07624
1.07743
1.07929
1.08262
1.08463
1.08503
1.08607
1.08922
1.09288
1.09386
1.09403
1.09423
1.09394
1.09227
1.08718
1.07542
1.05447
1.02882
1.01332
1.01044
1.0104
1.01076
1.01159
1.01275
1.01397
1.01579
1.01837
1.02061
1.02187
1.02206
1.02205
1.02197
1.02165
1.02095
1.02035
1.02014
1.02007
1.02007
1.02004
1.01996
1.01993
1.01993
1.0198
1.01914
1.01712
1.01431
1.01332
1.0133
1.01334
1.0135
1.01404
1.01514
1.01587
1.01598
1.01601
1.01605
1.01606
1.01595
1.01516
1.01242
1.00641
1.00108
1.00002
1
1
1
1
1
1
1
1
1
1
1
1
1
1
1
1
1
1
1
1
1
1
1
1
1.55047
1.54484
1.53689
1.51717
1.47908
1.43599
1.38962
1.33192
1.28921
1.2541
1.21103
1.16325
1.14064
1.11999
1.08576
1.06132
1.05827
1.04915
1.02626
1.01711
1.01779
1.01449
1.00664
1.00267
1.00323
1.00429
1.00589
1.00877
1.01173
1.0145
1.01598
1.01757
1.01984
1.02216
1.0232
1.02333
1.02352
1.02338
1.02188
1.02001
1.01876
1.01745
1.01611
1.01471
1.01298
1.01075
1.00865
1.00706
1.00582
1.00448
1.00254
1.0003
0.998047
0.996194
0.994624
0.993587
0.993293
0.993118
0.993184
0.993181
0.992623
0.992567
0.992869
0.993546
0.994469
0.99573
0.997516
0.999676
1.00093
1.00123
1.00128
1.00124
1.00082
1.0002
0.999993
0.999626
0.998929
0.998846
0.998872
0.999445
0.999552
0.999802
1.00063
1.00224
1.00457
1.00744
1.0117
1.01916
1.03148
1.04939
1.06743
1.07847
1.08327
1.08642
1.08967
1.09189
1.09222
1.09217
1.09197
1.09139
1.08943
1.08478
1.08004
1.07911
1.0804
1.08027
1.07984
1.08085
1.08378
1.0849
1.085
1.08568
1.08857
1.09339
1.0955
1.09546
1.09521
1.09462
1.09201
1.08432
1.06751
1.04129
1.01843
1.01114
1.01067
1.01072
1.01114
1.01247
1.01386
1.01492
1.01668
1.01914
1.02116
1.02209
1.02217
1.02214
1.02195
1.02144
1.02072
1.0203
1.02015
1.0201
1.02014
1.02015
1.02013
1.02012
1.0201
1.0199
1.01904
1.01667
1.014
1.01336
1.01337
1.01344
1.01365
1.01428
1.01545
1.0161
1.01619
1.01622
1.01626
1.01626
1.01606
1.01508
1.01192
1.00555
1.00075
1.00001
1
1
1
1
1
1
1
1
1
1
1
1
1
1
1
1
1
1
1
1
1
1
1
1
1.55613
1.55231
1.54711
1.53846
1.51715
1.48581
1.44683
1.39404
1.35298
1.31869
1.26874
1.22281
1.19977
1.17987
1.14262
1.10958
1.09854
1.08427
1.05787
1.04056
1.03647
1.02813
1.01378
1.00862
1.00951
1.00955
1.00775
1.00766
1.00831
1.01018
1.01106
1.01263
1.01636
1.02128
1.02237
1.02193
1.02235
1.02262
1.02206
1.02102
1.02
1.01895
1.01762
1.01589
1.0136
1.01102
1.00884
1.00712
1.00609
1.00569
1.00423
1.00185
0.999407
0.996809
0.994685
0.994011
0.993708
0.993573
0.993824
0.993606
0.993047
0.992835
0.99291
0.993286
0.994134
0.995587
0.997648
1.00007
1.00167
1.00192
1.00191
1.00183
1.00158
1.001
1.00054
1.0004
1.00089
1.00227
1.00538
1.01145
1.02035
1.03095
1.04366
1.05933
1.07512
1.08915
1.10403
1.11982
1.13627
1.15919
1.18161
1.19048
1.19174
1.19253
1.19307
1.19314
1.19275
1.19136
1.18916
1.18573
1.18094
1.17358
1.16296
1.15059
1.13998
1.13148
1.12498
1.11952
1.11368
1.10668
1.09947
1.09478
1.09391
1.09624
1.09818
1.0977
1.09663
1.09512
1.09067
1.07927
1.05709
1.02903
1.01317
1.01076
1.01077
1.01123
1.01245
1.01376
1.01458
1.01546
1.0173
1.0197
1.02161
1.02234
1.02239
1.02234
1.02197
1.02115
1.02046
1.02018
1.02006
1.02004
1.02016
1.02026
1.02028
1.02032
1.02032
1.02008
1.0189
1.01608
1.01372
1.01336
1.01339
1.01349
1.01376
1.01457
1.01585
1.0164
1.01646
1.01651
1.01654
1.01652
1.01621
1.01494
1.01121
1.00455
1.00047
1
1
1
1
1
1
1
1
1
1
1
1
1
1
1
1
1
1
1
1
1
1
1