/*--------------------------------*- C++ -*----------------------------------*\
  =========                 |
  \\      /  F ield         | OpenFOAM: The Open Source CFD Toolbox
   \\    /   O peration     | Website:  https://openfoam.org
    \\  /    A nd           | Version:  7
     \\/     M anipulation  |
\*---------------------------------------------------------------------------*/
FoamFile
{
    version     2.0;
    format      ascii;
    class       volVectorField;
    location    "0.4";
    object      U;
}
// * * * * * * * * * * * * * * * * * * * * * * * * * * * * * * * * * * * * * //

dimensions      [0 1 -1 0 0 0 0];

internalField   nonuniform List<vector> 
18432
(
(3 -7.67613e-17 0)
(3 2.66058e-17 0)
(3 1.05919e-16 0)
(3 1.17482e-16 0)
(3 -5.59852e-17 0)
(3 1.22606e-16 0)
(3 9.91693e-16 0)
(3 1.61286e-15 0)
(3 6.64237e-16 0)
(3 6.72674e-16 0)
(3 1.12794e-15 0)
(3 6.81962e-17 0)
(3 -1.63705e-15 0)
(3 -1.10677e-15 0)
(3 -1.09613e-15 0)
(3 -2.27485e-16 0)
(3 -1.3011e-16 0)
(3 -5.7789e-17 0)
(3 6.34427e-16 0)
(3 7.8355e-16 0)
(3 6.1698e-16 0)
(3 -3.06532e-16 0)
(3 -2.25797e-16 0)
(3 -9.73825e-16 0)
(3 -4.33697e-16 0)
(3 -8.88948e-16 0)
(3 -1.40456e-15 0)
(3 -1.42036e-15 0)
(3 -1.41542e-15 0)
(3 -1.91818e-15 0)
(3 -1.74183e-15 0)
(3 -1.12212e-15 0)
(3 -3.7978e-16 0)
(3 -1.67612e-16 0)
(3 -1.98628e-17 0)
(3 -3.34643e-16 0)
(3 -9.54217e-16 0)
(3 -9.57555e-16 0)
(3 -4.40891e-16 0)
(3 4.27386e-16 0)
(3 8.08225e-16 0)
(3 9.97288e-16 0)
(3 6.41712e-16 0)
(3 3.45996e-16 0)
(3 8.05012e-17 0)
(3 -6.6122e-16 0)
(3 -1.03631e-15 0)
(3 -1.05379e-15 0)
(3 -3.69592e-17 0)
(3 -2.52065e-16 0)
(3 -3.24477e-17 0)
(3 5.32472e-16 0)
(3 2.9169e-16 0)
(3 2.49933e-16 0)
(3 5.44555e-16 0)
(3 7.50663e-16 0)
(3 9.56216e-16 0)
(3 8.56978e-16 0)
(3 2.37215e-16 0)
(3 -1.5976e-15 0)
(3 -1.96639e-15 0)
(3 -1.54769e-15 0)
(3 -2.07064e-15 0)
(3 -9.73281e-16 0)
(3 -5.91208e-16 0)
(3 -3.53963e-17 0)
(3 1.30446e-15 0)
(3 2.99639e-15 0)
(3 2.78626e-15 0)
(3 8.66685e-16 0)
(3 -1.60689e-16 0)
(3 -1.30187e-15 0)
(3 -9.27916e-16 0)
(3 -1.23676e-15 0)
(3 -2.96467e-15 0)
(3 -2.9388e-15 0)
(3 -2.85784e-15 0)
(3 -2.84541e-15 0)
(3 -2.53062e-15 0)
(3 -1.91494e-15 0)
(3 1.13382e-16 0)
(3 8.67493e-16 0)
(3 6.64472e-16 0)
(3 2.8684e-16 0)
(3 -1.62996e-16 0)
(3 -1.57976e-16 0)
(3 7.49075e-16 0)
(3 1.68169e-15 0)
(3 2.01563e-15 0)
(3 2.44804e-15 0)
(3 2.19848e-15 0)
(3 1.20984e-15 0)
(3 8.17561e-16 0)
(3 1.46945e-17 0)
(3 -3.39878e-16 0)
(3 -2.67666e-16 0)
(3 -1.83006e-16 0)
(3 -1.43852e-16 0)
(3 1.77056e-16 0)
(3 6.37864e-16 0)
(3 7.66528e-16 0)
(3 -5.01373e-17 0)
(3 -6.85033e-16 0)
(3 -1.85997e-15 0)
(3 -1.85787e-15 0)
(3 -1.86949e-15 0)
(3 -2.61789e-15 0)
(3 -2.97793e-15 0)
(3 -2.33847e-15 0)
(3 -2.5697e-15 0)
(3 -2.46161e-15 0)
(3 -1.92608e-15 0)
(3 -3.56359e-16 0)
(3 8.62001e-16 0)
(3 1.10753e-15 0)
(3 1.19364e-15 0)
(3 8.5778e-16 0)
(3 1.24779e-15 0)
(3 -7.42155e-17 0)
(3 -2.42126e-16 0)
(3 -1.7987e-15 0)
(3 -3.05753e-15 0)
(3 -4.50227e-15 0)
(3 -5.21068e-15 0)
(3 -4.91068e-15 0)
(3 -4.02932e-15 0)
(3 -4.21392e-15 0)
(3 -2.67143e-15 0)
(3 5.62676e-16 0)
(3 1.64599e-15 0)
(3 8.45985e-16 0)
(3 7.46426e-16 0)
(3 1.39735e-15 0)
(3 1.22091e-15 0)
(3 9.40041e-16 0)
(3 4.54925e-16 0)
(3 2.80732e-16 0)
(3 1.46835e-16 0)
(3 -5.22475e-16 0)
(3 -9.64142e-16 0)
(3 5.30465e-17 0)
(3 6.24436e-16 0)
(3 4.18035e-16 0)
(3 3.94634e-16 0)
(3 -4.8733e-16 0)
(3 -7.09947e-17 0)
(3 9.34578e-17 0)
(3 2.58356e-17 0)
(3 3.0776e-16 0)
(3 4.89044e-16 0)
(3 -2.52274e-16 0)
(3 -1.87121e-15 0)
(3 -3.85016e-15 0)
(3 -3.87481e-15 0)
(3 -3.34413e-15 0)
(3 -2.14704e-15 0)
(3 -1.3326e-15 0)
(3 -1.67395e-15 0)
(3 -1.75739e-15 0)
(3 4.91704e-17 0)
(3 1.17965e-15 0)
(3 1.15986e-15 0)
(3 2.51091e-16 0)
(3 -1.52182e-16 0)
(3 -1.35453e-15 0)
(3 -1.61627e-15 0)
(3 -2.55973e-15 0)
(3 -2.17939e-15 0)
(3 -3.40647e-15 0)
(3 -3.80477e-15 0)
(3 -3.77962e-15 0)
(3 -3.77977e-15 0)
(3 -4.21674e-15 0)
(3 -3.71003e-15 0)
(3 -2.76713e-15 0)
(3 1.56051e-16 0)
(3 1.0034e-15 0)
(3 -8.90716e-17 0)
(3 -9.37209e-16 0)
(3 -8.0044e-16 0)
(3 -1.21906e-15 0)
(3 -1.37838e-15 0)
(3 -2.67195e-15 0)
(3 -2.75026e-15 0)
(3 -2.16549e-15 0)
(3 -2.43361e-15 0)
(3 -2.62132e-15 0)
(3 -2.23726e-15 0)
(3 -1.62467e-15 0)
(3 -1.07376e-15 0)
(3 -1.59118e-16 0)
(3 7.44775e-16 0)
(3 -2.99094e-17 0)
(3 2.87676e-16 0)
(3 2.83319e-16 0)
(3 2.66186e-16 0)
(3 5.3264e-17 0)
(3 -3.36068e-16 0)
(3 -8.89824e-16 0)
(3 -7.55337e-16 0)
(3 -2.25535e-15 0)
(3 -3.36338e-15 0)
(3 -3.18379e-15 0)
(3 -2.15135e-15 0)
(3 -1.60061e-15 0)
(3 -9.9405e-16 0)
(3 -1.04082e-15 0)
(3 8.56171e-17 0)
(3 6.65147e-16 0)
(3 9.41e-16 0)
(3 7.0256e-16 0)
(3 4.66563e-16 0)
(3 -7.44207e-16 0)
(3 -1.1704e-15 0)
(3 -2.85281e-15 0)
(3 -5.58121e-15 0)
(3 -5.41545e-15 0)
(3 -4.89267e-15 0)
(3 -4.27383e-15 0)
(3 -3.07218e-15 0)
(3 -2.05494e-15 0)
(3 -1.39581e-15 0)
(3 1.03642e-15 0)
(3 1.07827e-15 0)
(3 5.70616e-16 0)
(3 -7.53761e-16 0)
(3 -1.06372e-15 0)
(3 -2.51805e-15 0)
(3 -2.88591e-15 0)
(3 -2.40232e-15 0)
(3 -2.20914e-15 0)
(3 -2.69765e-15 0)
(3 -2.29134e-15 0)
(3 -1.77552e-15 0)
(3 -2.6408e-15 0)
(3 -2.6635e-15 0)
(3 -3.36155e-15 0)
(3 -2.92393e-15 0)
(3 -6.19732e-16 0)
(3 -8.30982e-16 0)
(3 -2.09468e-16 0)
(3 1.62515e-16 0)
(3 -1.93654e-17 0)
(3 1.44432e-16 0)
(3 1.07706e-16 0)
(3 -4.35886e-16 0)
(3 -7.55088e-16 0)
(3 -2.54255e-16 0)
(3 -8.58048e-16 0)
(3 -1.20381e-15 0)
(3 -7.80252e-16 0)
(3 -6.88769e-16 0)
(3 -3.12876e-16 0)
(3 -2.72313e-16 0)
(3 -5.90997e-16 0)
(3 -8.04651e-16 0)
(3 -1.62541e-16 0)
(3 -1.11071e-16 0)
(3 -5.56272e-16 0)
(3 -8.89358e-16 0)
(3 -1.86638e-15 0)
(3 -1.53362e-15 0)
(3 -1.73614e-15 0)
(3 -4.92255e-15 0)
(3 -5.4873e-15 0)
(3 -5.52608e-15 0)
(3 -5.834e-15 0)
(3 -6.02344e-15 0)
(3 -2.67669e-15 0)
(3 1.03801e-15 0)
(3 1.83286e-15 0)
(3 1.81359e-15 0)
(3 9.42876e-16 0)
(3 -1.76667e-16 0)
(3 -2.03213e-15 0)
(3 -2.99221e-15 0)
(3 -2.25958e-15 0)
(3 -8.97956e-16 0)
(3 -2.17506e-15 0)
(3 -3.42261e-15 0)
(3 -3.95432e-15 0)
(3 -3.84659e-15 0)
(3 -3.27582e-15 0)
(3 -3.21199e-15 0)
(3 -3.4264e-15 0)
(3 -2.23949e-15 0)
(3 -6.04159e-16 0)
(3 2.97324e-16 0)
(3 -2.90952e-17 0)
(3 -9.13145e-18 0)
(3 -3.38424e-16 0)
(3 -3.24985e-16 0)
(3 2.65283e-16 0)
(3 1.28439e-16 0)
(3 1.63639e-16 0)
(3 2.19978e-16 0)
(3 2.70494e-16 0)
(3 7.29761e-17 0)
(3 3.18193e-16 0)
(3 1.86101e-16 0)
(3 -2.58089e-16 0)
(3 -9.67374e-16 0)
(3 -7.06039e-16 0)
(3 -2.49815e-16 0)
(3 2.44472e-16 0)
(3 -5.14649e-16 0)
(3 -1.0411e-15 0)
(3 -1.37451e-15 0)
(3 -1.80055e-15 0)
(3 -1.3826e-15 0)
(3 -1.82309e-15 0)
(3 -3.78781e-15 0)
(3 -4.43732e-15 0)
(3 -4.34707e-15 0)
(3 -4.53146e-15 0)
(3 -5.00823e-15 0)
(3 -1.84857e-15 0)
(3 -7.33513e-16 0)
(3 9.75883e-16 0)
(3 8.68491e-16 0)
(3 2.91836e-16 0)
(3 -9.32652e-17 0)
(3 -8.74305e-16 0)
(3 -8.04861e-16 0)
(3 -2.35208e-17 0)
(3 -7.9475e-16 0)
(3 -2.52537e-15 0)
(3 -3.74375e-15 0)
(3 -3.90614e-15 0)
(3 -4.2029e-15 0)
(3 -2.65519e-15 0)
(3 -1.29007e-15 0)
(3 -1.35522e-15 0)
(3 -1.00587e-15 0)
(3 -5.56849e-16 0)
(3 1.97386e-15 0)
(3 2.93621e-16 0)
(3 1.9924e-17 0)
(3 5.33419e-17 0)
(3 -7.69838e-17 0)
(3 -8.11777e-17 0)
(3 -1.29047e-17 0)
(3 2.83693e-16 0)
(3 1.50243e-16 0)
(3 6.72917e-16 0)
(3 1.64363e-15 0)
(3 3.09742e-16 0)
(3 -2.66595e-16 0)
(3 -9.13537e-16 0)
(3 -1.26621e-15 0)
(3 -6.1973e-16 0)
(3 3.69387e-16 0)
(3 3.47347e-16 0)
(3 1.2005e-16 0)
(3 -3.51066e-16 0)
(3 -1.10487e-15 0)
(3 -1.60788e-15 0)
(3 -1.72431e-15 0)
(3 -1.74025e-15 0)
(3 -1.84186e-15 0)
(3 -1.99592e-15 0)
(3 -2.49385e-15 0)
(3 -3.06843e-15 0)
(3 -3.95593e-16 0)
(3 2.46919e-17 0)
(3 1.16807e-16 0)
(3 4.96892e-16 0)
(3 5.4693e-16 0)
(3 8.70861e-16 0)
(3 6.81624e-16 0)
(3 8.95893e-16 0)
(3 1.81319e-15 0)
(3 -1.00675e-15 0)
(3 -3.2483e-15 0)
(3 -2.86555e-15 0)
(3 -2.4327e-15 0)
(3 -2.93128e-15 0)
(3 -2.92362e-15 0)
(3 -2.89516e-15 0)
(3 -1.35478e-15 0)
(3 -9.85418e-16 0)
(3 -1.12783e-15 0)
(3 -1.15932e-15 0)
(3 -4.23602e-16 0)
(3 -4.87035e-16 0)
(3 -2.68748e-16 0)
(3 -8.04086e-17 0)
(3 -1.75339e-16 0)
(3 -4.90357e-16 0)
(3 -8.81684e-16 0)
(3 -8.93232e-17 0)
(3 4.87466e-17 0)
(3 2.08709e-15 0)
(3 3.95058e-15 0)
(3 3.90914e-15 0)
(3 3.17883e-15 0)
(3 6.27007e-16 0)
(3 -1.20502e-15 0)
(3 -1.79262e-15 0)
(3 -2.0975e-16 0)
(3 2.21452e-16 0)
(3 -1.87591e-16 0)
(3 -6.2679e-16 0)
(3 -1.70303e-15 0)
(3 -2.36336e-15 0)
(3 -2.72778e-15 0)
(3 -2.79091e-15 0)
(3 -2.48786e-15 0)
(3 -2.02083e-15 0)
(3 -1.73245e-15 0)
(3 -9.19134e-16 0)
(3 5.53156e-16 0)
(3 7.82382e-16 0)
(3 4.12047e-16 0)
(3 2.68231e-16 0)
(3 4.58382e-16 0)
(3 6.74619e-16 0)
(3 9.95134e-16 0)
(3 1.17057e-15 0)
(3 1.20099e-15 0)
(3 -3.75501e-16 0)
(3 -1.40297e-15 0)
(3 -2.49871e-15 0)
(3 -3.48104e-15 0)
(3 -4.52317e-15 0)
(3 -3.65611e-15 0)
(3 -2.00687e-15 0)
(3 -8.48586e-16 0)
(3 8.15112e-17 0)
(3 -4.08038e-16 0)
(3 -2.28783e-15 0)
(3 -2.16428e-15 0)
(3 1.37416e-16 0)
(3 1.59701e-17 0)
(3 -3.06999e-16 0)
(3 -3.08375e-16 0)
(3 -1.42271e-16 0)
(3 -6.56732e-16 0)
(3 -9.25537e-17 0)
(3 2.14643e-15 0)
(3 3.05273e-15 0)
(3 3.20166e-15 0)
(3 1.94884e-15 0)
(3 1.69185e-15 0)
(3 8.59409e-16 0)
(3 2.8139e-16 0)
(3 -5.19228e-16 0)
(3 -1.04876e-15 0)
(3 -1.53981e-16 0)
(3 1.18669e-15 0)
(3 1.95786e-15 0)
(3 2.05437e-15 0)
(3 -6.26782e-16 0)
(3 -1.58408e-15 0)
(3 -1.6869e-15 0)
(3 -1.35215e-15 0)
(3 -1.28111e-15 0)
(3 6.45164e-16 0)
(3 1.81251e-15 0)
(3 1.06393e-15 0)
(3 -9.2657e-16 0)
(3 -2.7138e-15 0)
(3 -3.26978e-15 0)
(3 -2.56086e-15 0)
(3 -1.79749e-15 0)
(3 -5.82326e-16 0)
(3 3.49159e-17 0)
(3 -1.30423e-16 0)
(3 -3.16168e-16 0)
(3 -9.00858e-16 0)
(3 -1.40567e-15 0)
(3 -1.50692e-15 0)
(3 -1.21138e-15 0)
(3 -1.56377e-15 0)
(3 -2.12734e-15 0)
(3 -1.18947e-15 0)
(3 -2.06578e-16 0)
(3 -8.12982e-16 0)
(3 -2.20862e-15 0)
(3 -3.12003e-15 0)
(3 6.21251e-16 0)
(3 -2.48204e-16 0)
(3 -4.05305e-16 0)
(3 -3.71073e-16 0)
(3 8.15776e-16 0)
(3 1.93913e-15 0)
(3 2.37866e-15 0)
(3 2.49863e-15 0)
(3 1.72629e-15 0)
(3 3.31946e-16 0)
(3 -5.06182e-17 0)
(3 2.84576e-16 0)
(3 6.78971e-16 0)
(3 1.09896e-15 0)
(3 1.18754e-15 0)
(3 -2.83791e-16 0)
(3 8.43501e-17 0)
(3 7.23815e-16 0)
(3 9.93359e-16 0)
(3 9.79961e-16 0)
(3 3.83613e-16 0)
(3 -1.08222e-15 0)
(3 -1.19661e-15 0)
(3 -1.24439e-16 0)
(3 1.70962e-15 0)
(3 3.02204e-15 0)
(3 2.52809e-15 0)
(3 5.58125e-16 0)
(3 -6.51772e-16 0)
(3 -2.83137e-15 0)
(3 -3.1468e-15 0)
(3 -3.57041e-15 0)
(3 -2.97678e-15 0)
(3 -2.68939e-15 0)
(3 -2.33201e-15 0)
(3 -1.49071e-15 0)
(3 -1.58392e-15 0)
(3 -1.56667e-15 0)
(3 -1.34878e-15 0)
(3 1.85636e-16 0)
(3 2.32773e-15 0)
(3 1.09728e-15 0)
(3 -1.02904e-15 0)
(3 -1.02474e-15 0)
(3 -6.76574e-16 0)
(3 -2.43911e-16 0)
(3 3.71625e-16 0)
(3 -1.3864e-15 0)
(3 -2.86442e-16 0)
(3 -5.26335e-17 0)
(3 1.2714e-16 0)
(3 2.45681e-16 0)
(3 1.41398e-15 0)
(3 3.25612e-15 0)
(3 2.89755e-15 0)
(3 1.40065e-15 0)
(3 -8.12087e-16 0)
(3 -1.4233e-15 0)
(3 -1.22579e-15 0)
(3 -6.23981e-16 0)
(3 -1.75429e-16 0)
(3 6.746e-17 0)
(3 2.57539e-16 0)
(3 4.36989e-16 0)
(3 -2.1091e-16 0)
(3 -9.61517e-16 0)
(3 -1.1853e-15 0)
(3 -2.82829e-16 0)
(3 6.82006e-17 0)
(3 -1.23023e-15 0)
(3 -1.03908e-15 0)
(3 -5.70322e-16 0)
(3 9.98944e-16 0)
(3 1.98351e-15 0)
(3 1.62636e-15 0)
(3 1.20152e-15 0)
(3 1.08521e-15 0)
(3 -5.54054e-16 0)
(3 -6.60416e-16 0)
(3 -1.46283e-15 0)
(3 -2.03188e-15 0)
(3 -1.74994e-15 0)
(3 -1.00601e-15 0)
(3 -1.35105e-16 0)
(3 2.97691e-16 0)
(3 1.38271e-15 0)
(3 2.54235e-15 0)
(3 2.97049e-15 0)
(3 3.03196e-15 0)
(3 2.58985e-15 0)
(3 8.16608e-16 0)
(3 -3.09101e-16 0)
(3 6.62762e-18 0)
(3 3.393e-16 0)
(3 6.92586e-16 0)
(3 6.96093e-16 0)
(3 -3.13963e-17 0)
(3 2.15165e-16 0)
(3 4.089e-16 0)
(3 1.73759e-16 0)
(3 1.93717e-17 0)
(3 5.71033e-16 0)
(3 1.04948e-15 0)
(3 1.43572e-15 0)
(3 1.17907e-15 0)
(3 -1.04059e-16 0)
(3 -8.597e-16 0)
(3 -1.94578e-15 0)
(3 -2.00946e-15 0)
(3 -2.0464e-15 0)
(3 -2.17109e-15 0)
(3 -2.03854e-15 0)
(3 -2.43565e-15 0)
(3 -2.08709e-15 0)
(3 -1.47915e-15 0)
(3 -1.04278e-15 0)
(3 -7.31882e-16 0)
(3 -7.91114e-16 0)
(3 -9.07549e-16 0)
(3 -2.36775e-16 0)
(3 9.1146e-16 0)
(3 1.34796e-15 0)
(3 5.6123e-16 0)
(3 -1.46848e-15 0)
(3 -2.39808e-15 0)
(3 -1.27343e-15 0)
(3 -5.69771e-17 0)
(3 5.40339e-16 0)
(3 -5.62688e-16 0)
(3 -4.18372e-16 0)
(3 4.9557e-16 0)
(3 8.65758e-16 0)
(3 1.17149e-15 0)
(3 3.20207e-15 0)
(3 4.30947e-15 0)
(3 3.6313e-15 0)
(3 2.5929e-15 0)
(3 3.4596e-15 0)
(3 1.69957e-15 0)
(3 2.64576e-16 0)
(3 9.84235e-17 0)
(3 -5.37564e-16 0)
(3 8.5078e-16 0)
(3 1.51589e-15 0)
(3 2.1138e-16 0)
(3 -1.36061e-16 0)
(3 -3.14991e-16 0)
(3 -2.05756e-16 0)
(3 -6.73509e-16 0)
(3 -1.06566e-15 0)
(3 -8.87118e-16 0)
(3 -1.66404e-16 0)
(3 5.01921e-16 0)
(3 5.60975e-16 0)
(3 -2.50157e-16 0)
(3 -1.54306e-15 0)
(3 -2.22467e-15 0)
(3 -2.17556e-15 0)
(3 -2.5642e-15 0)
(3 -3.19289e-15 0)
(3 -2.40829e-15 0)
(3 -1.22571e-15 0)
(3 -1.40205e-15 0)
(3 -2.11357e-15 0)
(3 -2.18795e-15 0)
(3 -1.36511e-15 0)
(3 1.45205e-16 0)
(3 1.75266e-15 0)
(3 1.96647e-15 0)
(3 1.52819e-15 0)
(3 -1.5892e-15 0)
(3 -2.89925e-15 0)
(3 -2.74934e-15 0)
(3 -1.47924e-15 0)
(3 -3.73368e-17 0)
(3 5.40495e-16 0)
(3 4.62236e-16 0)
(3 -1.48612e-16 0)
(3 -8.25059e-16 0)
(3 -7.28218e-16 0)
(3 -2.23294e-16 0)
(3 7.17034e-16 0)
(3 1.22787e-15 0)
(3 3.52628e-15 0)
(3 4.32935e-15 0)
(3 3.48404e-15 0)
(3 1.96324e-15 0)
(3 1.00767e-15 0)
(3 -6.03769e-17 0)
(3 -1.24548e-16 0)
(3 9.67935e-16 0)
(3 2.88113e-15 0)
(3 1.31411e-16 0)
(3 -7.3955e-17 0)
(3 -1.80319e-16 0)
(3 2.71421e-16 0)
(3 -3.81585e-17 0)
(3 -1.29535e-15 0)
(3 -2.07142e-15 0)
(3 -2.40065e-15 0)
(3 -2.39448e-15 0)
(3 -1.88446e-15 0)
(3 -1.22248e-15 0)
(3 -9.84856e-16 0)
(3 -6.86455e-16 0)
(3 -9.91381e-16 0)
(3 -1.11636e-15 0)
(3 -9.37775e-16 0)
(3 1.33031e-16 0)
(3 4.68211e-16 0)
(3 -1.12169e-15 0)
(3 -2.02481e-15 0)
(3 -1.18147e-15 0)
(3 3.86907e-16 0)
(3 2.63239e-15 0)
(3 3.55728e-15 0)
(3 2.72202e-15 0)
(3 6.8816e-16 0)
(3 -1.81133e-15 0)
(3 -2.37857e-15 0)
(3 -1.84036e-15 0)
(3 -8.36595e-16 0)
(3 4.23188e-16 0)
(3 4.31945e-16 0)
(3 7.84471e-16 0)
(3 1.01382e-15 0)
(3 -4.40117e-16 0)
(3 -1.41024e-15 0)
(3 -1.20928e-15 0)
(3 -8.84312e-16 0)
(3 -4.24869e-16 0)
(3 1.75746e-15 0)
(3 1.92685e-15 0)
(3 1.33696e-15 0)
(3 1.01375e-15 0)
(3 -1.47571e-15 0)
(3 -1.70353e-15 0)
(3 -1.26193e-15 0)
(3 1.26692e-15 0)
(3 2.79832e-15 0)
(3 2.76616e-16 0)
(3 4.27688e-16 0)
(3 2.66091e-16 0)
(3 -6.25172e-17 0)
(3 -2.16424e-16 0)
(3 -6.19661e-16 0)
(3 -6.42346e-16 0)
(3 -8.38785e-16 0)
(3 -1.02866e-15 0)
(3 -1.05589e-15 0)
(3 -6.4983e-16 0)
(3 -2.19916e-16 0)
(3 -5.58403e-16 0)
(3 -1.06219e-15 0)
(3 -5.96328e-16 0)
(3 4.41943e-16 0)
(3 1.37867e-15 0)
(3 -3.83866e-16 0)
(3 -8.3214e-16 0)
(3 6.63919e-17 0)
(3 1.39621e-15 0)
(3 3.17019e-15 0)
(3 3.70464e-15 0)
(3 3.56701e-15 0)
(3 2.77071e-15 0)
(3 9.64229e-16 0)
(3 -1.84901e-15 0)
(3 -2.7332e-15 0)
(3 -3.3403e-15 0)
(3 -2.08293e-15 0)
(3 -6.75212e-16 0)
(3 -2.49233e-16 0)
(3 3.95162e-16 0)
(3 6.94514e-16 0)
(3 -1.13264e-17 0)
(3 -1.6633e-15 0)
(3 -1.1105e-15 0)
(3 -9.92511e-16 0)
(3 -8.55083e-16 0)
(3 -1.10608e-15 0)
(3 -4.8994e-16 0)
(3 -6.31917e-17 0)
(3 2.6466e-16 0)
(3 -1.71315e-15 0)
(3 -1.30307e-15 0)
(3 -3.62144e-16 0)
(3 6.3774e-16 0)
(3 1.23015e-15 0)
(3 -5.5628e-16 0)
(3 -4.66968e-17 0)
(3 2.18373e-16 0)
(3 2.9108e-16 0)
(3 1.36611e-16 0)
(3 5.16747e-17 0)
(3 -3.04148e-16 0)
(3 -2.85416e-16 0)
(3 -2.47006e-16 0)
(3 -3.90213e-16 0)
(3 -8.25088e-17 0)
(3 1.80051e-16 0)
(3 -2.49029e-16 0)
(3 3.70967e-16 0)
(3 1.38786e-15 0)
(3 1.85207e-15 0)
(3 1.54702e-15 0)
(3 1.43222e-15 0)
(3 1.33533e-15 0)
(3 1.14802e-15 0)
(3 1.4605e-15 0)
(3 2.28649e-15 0)
(3 2.46321e-15 0)
(3 2.58687e-15 0)
(3 1.68094e-15 0)
(3 -6.05078e-16 0)
(3 -1.06776e-15 0)
(3 -8.14728e-16 0)
(3 -1.35007e-15 0)
(3 -1.03969e-15 0)
(3 2.6419e-16 0)
(3 3.20449e-16 0)
(3 2.87701e-16 0)
(3 -3.46005e-16 0)
(3 -7.95051e-16 0)
(3 -9.32119e-16 0)
(3 -1.31039e-15 0)
(3 -1.81428e-15 0)
(3 -2.10963e-15 0)
(3 -2.29257e-15 0)
(3 -1.48703e-15 0)
(3 9.19943e-18 0)
(3 -7.05261e-17 0)
(3 -1.18521e-15 0)
(3 -9.78543e-16 0)
(3 1.32828e-15 0)
(3 2.24824e-15 0)
(3 2.66875e-15 0)
(3 -5.4313e-16 0)
(3 -1.20472e-16 0)
(3 2.03284e-16 0)
(3 1.01993e-16 0)
(3 -4.40284e-16 0)
(3 -8.88167e-16 0)
(3 -9.36972e-16 0)
(3 -1.44716e-15 0)
(3 -1.3947e-15 0)
(3 -5.87938e-16 0)
(3 4.40526e-16 0)
(3 1.04805e-15 0)
(3 8.71423e-16 0)
(3 1.39292e-15 0)
(3 1.1713e-15 0)
(3 4.05464e-16 0)
(3 4.33144e-16 0)
(3 1.15395e-15 0)
(3 2.09256e-15 0)
(3 2.1677e-15 0)
(3 1.88025e-15 0)
(3 1.49569e-15 0)
(3 1.5307e-15 0)
(3 2.06906e-15 0)
(3 7.35354e-16 0)
(3 -7.73021e-16 0)
(3 -8.54788e-16 0)
(3 -1.82849e-16 0)
(3 -4.56159e-16 0)
(3 -4.33625e-16 0)
(3 5.09588e-16 0)
(3 -2.63561e-16 0)
(3 -6.45763e-16 0)
(3 -1.02303e-15 0)
(3 -1.42491e-15 0)
(3 -2.37848e-15 0)
(3 -3.13954e-15 0)
(3 -3.37441e-15 0)
(3 -2.74503e-15 0)
(3 -3.32119e-15 0)
(3 -1.94828e-15 0)
(3 -4.19147e-17 0)
(3 7.6623e-16 0)
(3 1.71182e-15 0)
(3 1.26724e-15 0)
(3 1.38451e-15 0)
(3 2.7717e-15 0)
(3 3.35852e-15 0)
(3 3.54691e-16 0)
(3 4.77847e-16 0)
(3 -1.94655e-16 0)
(3 -2.3455e-16 0)
(3 -1.05972e-15 0)
(3 -8.80229e-16 0)
(3 -5.03917e-16 0)
(3 -5.16609e-17 0)
(3 2.19334e-16 0)
(3 5.09283e-16 0)
(3 1.21276e-15 0)
(3 1.33195e-15 0)
(3 1.30306e-15 0)
(3 1.28928e-15 0)
(3 8.32182e-16 0)
(3 3.67302e-16 0)
(3 3.49336e-16 0)
(3 8.4172e-16 0)
(3 2.11328e-15 0)
(3 3.13467e-15 0)
(3 2.75985e-15 0)
(3 1.58368e-15 0)
(3 8.54033e-17 0)
(3 -7.56847e-16 0)
(3 1.58201e-16 0)
(3 -9.03241e-17 0)
(3 -5.93518e-16 0)
(3 -1.15032e-15 0)
(3 -1.16101e-15 0)
(3 -1.60264e-15 0)
(3 -2.24825e-15 0)
(3 -1.73668e-15 0)
(3 -1.75779e-15 0)
(3 -1.70933e-15 0)
(3 -1.36509e-15 0)
(3 -8.76318e-16 0)
(3 -8.78105e-16 0)
(3 -6.60525e-16 0)
(3 -3.35318e-16 0)
(3 -2.19551e-16 0)
(3 -4.06929e-17 0)
(3 3.44459e-16 0)
(3 2.31201e-15 0)
(3 4.00335e-15 0)
(3 4.08838e-15 0)
(3 3.44595e-15 0)
(3 3.26774e-15 0)
(3 3.34524e-15 0)
(3 5.96281e-16 0)
(3 3.66936e-17 0)
(3 -6.94393e-16 0)
(3 -7.11232e-16 0)
(3 -2.71957e-16 0)
(3 1.55316e-16 0)
(3 7.80399e-17 0)
(3 4.0685e-16 0)
(3 5.80683e-16 0)
(3 9.44862e-17 0)
(3 -2.44703e-16 0)
(3 4.5181e-16 0)
(3 1.10276e-15 0)
(3 1.70738e-15 0)
(3 1.93297e-15 0)
(3 1.53277e-15 0)
(3 1.26788e-15 0)
(3 7.47869e-16 0)
(3 1.31269e-15 0)
(3 2.1291e-15 0)
(3 2.99623e-15 0)
(3 2.74718e-15 0)
(3 1.52887e-15 0)
(3 -4.0986e-16 0)
(3 -3.62211e-16 0)
(3 -8.30848e-17 0)
(3 8.63104e-16 0)
(3 -4.60551e-16 0)
(3 -2.40835e-16 0)
(3 -1.76413e-15 0)
(3 -2.184e-15 0)
(3 -2.23886e-15 0)
(3 -2.19455e-15 0)
(3 -3.26674e-15 0)
(3 -3.96563e-15 0)
(3 -2.92258e-15 0)
(3 -1.91906e-15 0)
(3 -1.49074e-15 0)
(3 -8.83038e-16 0)
(3 2.56007e-15 0)
(3 2.24083e-15 0)
(3 1.95772e-15 0)
(3 2.36589e-15 0)
(3 3.22611e-15 0)
(3 4.10614e-15 0)
(3 3.39297e-15 0)
(3 2.06265e-15 0)
(3 2.42286e-15 0)
(3 -8.27504e-17 0)
(3 -2.50523e-16 0)
(3 5.59826e-17 0)
(3 -1.8195e-17 0)
(3 9.60017e-16 0)
(3 1.04673e-15 0)
(3 1.21413e-15 0)
(3 9.62492e-16 0)
(3 1.34672e-15 0)
(3 7.90883e-16 0)
(3 -1.79124e-16 0)
(3 2.41779e-16 0)
(3 1.5612e-15 0)
(3 2.03543e-15 0)
(3 2.00784e-15 0)
(3 8.75179e-17 0)
(3 -4.16062e-16 0)
(3 -2.88888e-16 0)
(3 8.09914e-17 0)
(3 1.1106e-15 0)
(3 2.62729e-15 0)
(3 1.76509e-15 0)
(3 -2.55447e-16 0)
(3 -4.11093e-16 0)
(3 1.51791e-16 0)
(3 2.94081e-16 0)
(3 6.00889e-16 0)
(3 2.54339e-17 0)
(3 -3.81224e-16 0)
(3 1.28365e-15 0)
(3 -1.18973e-15 0)
(3 -2.72061e-15 0)
(3 -3.62532e-15 0)
(3 -3.77829e-15 0)
(3 -3.63076e-15 0)
(3 -2.67842e-15 0)
(3 -4.68351e-16 0)
(3 -3.74371e-16 0)
(3 -5.5471e-16 0)
(3 -3.18706e-16 0)
(3 -1.55345e-16 0)
(3 1.61804e-15 0)
(3 1.57981e-15 0)
(3 1.93693e-15 0)
(3 2.29547e-15 0)
(3 2.85063e-15 0)
(3 2.19873e-15 0)
(3 1.96587e-15 0)
(3 -7.33016e-16 0)
(3 -1.77566e-16 0)
(3 7.29138e-16 0)
(3 1.31176e-15 0)
(3 1.2632e-15 0)
(3 8.43568e-16 0)
(3 8.6709e-16 0)
(3 7.61864e-16 0)
(3 4.98001e-16 0)
(3 2.1412e-16 0)
(3 5.24189e-17 0)
(3 -2.36658e-16 0)
(3 -6.26591e-17 0)
(3 4.72148e-17 0)
(3 5.84996e-17 0)
(3 -9.80045e-17 0)
(3 -2.04544e-18 0)
(3 4.2317e-16 0)
(3 1.02705e-15 0)
(3 1.03502e-15 0)
(3 1.42043e-15 0)
(3 -4.24279e-16 0)
(3 -1.00671e-15 0)
(3 -1.83229e-16 0)
(3 8.17342e-17 0)
(3 -3.68613e-16 0)
(3 -4.89832e-16 0)
(3 1.04124e-16 0)
(3 1.62146e-15 0)
(3 3.61191e-15 0)
(3 8.69625e-16 0)
(3 -2.52449e-15 0)
(3 -3.76809e-15 0)
(3 -3.04041e-15 0)
(3 -2.25492e-15 0)
(3 -1.52576e-15 0)
(3 3.18881e-16 0)
(3 1.01487e-15 0)
(3 5.95771e-16 0)
(3 -1.15124e-17 0)
(3 -1.62411e-16 0)
(3 6.20667e-16 0)
(3 1.72993e-15 0)
(3 2.03808e-15 0)
(3 1.78256e-15 0)
(3 1.88386e-15 0)
(3 2.28872e-15 0)
(3 1.00255e-15 0)
(3 2.81037e-18 0)
(3 1.93588e-16 0)
(3 5.96281e-16 0)
(3 5.42515e-16 0)
(3 5.25139e-16 0)
(3 6.76846e-16 0)
(3 5.59709e-16 0)
(3 5.68449e-16 0)
(3 1.09892e-16 0)
(3 -8.63118e-17 0)
(3 -6.29992e-16 0)
(3 -1.21824e-15 0)
(3 -1.44532e-15 0)
(3 -1.64359e-15 0)
(3 -7.55423e-16 0)
(3 -1.19432e-16 0)
(3 4.92386e-17 0)
(3 4.64e-16 0)
(3 8.22912e-16 0)
(3 4.82827e-16 0)
(3 -1.96387e-16 0)
(3 -6.72922e-16 0)
(3 -1.41855e-15 0)
(3 -1.07562e-15 0)
(3 -1.0864e-15 0)
(3 -1.13527e-15 0)
(3 5.11393e-16 0)
(3 1.53962e-15 0)
(3 2.00114e-15 0)
(3 2.18365e-15 0)
(3 1.39392e-15 0)
(3 -1.05395e-15 0)
(3 -9.67193e-16 0)
(3 -2.98144e-15 0)
(3 -2.90985e-15 0)
(3 2.18441e-17 0)
(3 1.50563e-15 0)
(3 1.11454e-15 0)
(3 6.56934e-16 0)
(3 -8.05704e-17 0)
(3 -4.2076e-16 0)
(3 -6.44164e-16 0)
(3 3.28162e-16 0)
(3 8.16314e-16 0)
(3 3.96183e-16 0)
(3 1.54197e-16 0)
(3 3.51981e-16 0)
(3 -1.03959e-15 0)
(3 -1.15808e-16 0)
(3 4.23392e-16 0)
(3 8.33156e-17 0)
(3 -5.23862e-16 0)
(3 -5.82036e-16 0)
(3 -3.06232e-16 0)
(3 1.27869e-16 0)
(3 -1.06502e-16 0)
(3 1.35834e-15 0)
(3 2.54388e-15 0)
(3 1.62949e-15 0)
(3 6.50152e-16 0)
(3 -6.09844e-17 0)
(3 -7.16847e-16 0)
(3 -6.61795e-16 0)
(3 -6.14194e-17 0)
(3 2.15465e-16 0)
(3 1.31697e-16 0)
(3 -4.34221e-16 0)
(3 -1.45852e-16 0)
(3 -3.38578e-16 0)
(3 -6.56817e-16 0)
(3 -1.15933e-15 0)
(3 -1.39671e-15 0)
(3 -1.47842e-15 0)
(3 2.72646e-16 0)
(3 7.74811e-16 0)
(3 2.17575e-15 0)
(3 3.32106e-15 0)
(3 2.90129e-15 0)
(3 2.7116e-15 0)
(3 2.51069e-15 0)
(3 1.85929e-15 0)
(3 1.35103e-15 0)
(3 6.49383e-16 0)
(3 4.62968e-16 0)
(3 5.56853e-16 0)
(3 4.94484e-16 0)
(3 8.07277e-16 0)
(3 1.35571e-15 0)
(3 4.89454e-16 0)
(3 3.41641e-16 0)
(3 1.60533e-16 0)
(3 -6.20258e-16 0)
(3 -1.63417e-15 0)
(3 -2.3827e-15 0)
(3 -2.62358e-15 0)
(3 -3.00872e-15 0)
(3 -1.78214e-16 0)
(3 -1.4112e-17 0)
(3 -1.09675e-15 0)
(3 -1.09547e-15 0)
(3 -1.27926e-15 0)
(3 -1.82713e-15 0)
(3 -1.78887e-15 0)
(3 -1.10934e-15 0)
(3 -3.3333e-16 0)
(3 1.56572e-15 0)
(3 2.76275e-15 0)
(3 2.72999e-15 0)
(3 1.14457e-15 0)
(3 5.92298e-16 0)
(3 3.01112e-16 0)
(3 8.8634e-16 0)
(3 1.1234e-15 0)
(3 7.70499e-16 0)
(3 -4.73755e-16 0)
(3 -1.7149e-15 0)
(3 -1.87247e-15 0)
(3 -1.16171e-15 0)
(3 -6.80008e-16 0)
(3 -1.17427e-15 0)
(3 -1.43824e-15 0)
(3 -7.55682e-16 0)
(3 -7.72903e-16 0)
(3 7.75799e-16 0)
(3 1.40812e-15 0)
(3 1.98931e-15 0)
(3 2.32418e-15 0)
(3 2.48139e-15 0)
(3 2.3119e-15 0)
(3 1.77837e-15 0)
(3 1.19332e-15 0)
(3 9.25213e-16 0)
(3 6.96913e-16 0)
(3 1.16668e-15 0)
(3 1.61771e-15 0)
(3 1.8082e-15 0)
(3 1.17609e-15 0)
(3 1.2849e-15 0)
(3 1.15529e-15 0)
(3 5.96009e-16 0)
(3 -6.84096e-16 0)
(3 -1.99457e-15 0)
(3 -4.10089e-15 0)
(3 -4.39011e-15 0)
(3 5.80262e-16 0)
(3 8.29748e-17 0)
(3 -1.21538e-15 0)
(3 -1.46441e-15 0)
(3 -1.91977e-15 0)
(3 -1.23278e-15 0)
(3 -5.63885e-16 0)
(3 5.84279e-16 0)
(3 2.16987e-16 0)
(3 -3.86181e-16 0)
(3 -6.42977e-16 0)
(3 -6.57118e-16 0)
(3 -7.7992e-16 0)
(3 1.02447e-16 0)
(3 6.52577e-16 0)
(3 1.16069e-15 0)
(3 2.39847e-15 0)
(3 2.10827e-15 0)
(3 1.24088e-16 0)
(3 -2.918e-15 0)
(3 -4.13822e-15 0)
(3 -3.43773e-15 0)
(3 -3.68005e-15 0)
(3 -3.70427e-15 0)
(3 -1.72491e-15 0)
(3 -8.48081e-16 0)
(3 -9.96537e-16 0)
(3 -1.07137e-15 0)
(3 -2.43424e-16 0)
(3 6.89674e-16 0)
(3 7.29308e-16 0)
(3 5.8292e-17 0)
(3 5.43896e-16 0)
(3 -9.72496e-17 0)
(3 6.22286e-16 0)
(3 -1.32826e-16 0)
(3 8.58596e-16 0)
(3 1.57031e-15 0)
(3 2.2169e-15 0)
(3 1.96259e-15 0)
(3 2.27372e-15 0)
(3 1.53579e-15 0)
(3 1.69123e-15 0)
(3 1.51478e-15 0)
(3 1.16336e-15 0)
(3 -7.69897e-16 0)
(3 -3.94905e-15 0)
(3 -4.39065e-15 0)
(3 3.0351e-16 0)
(3 -4.4142e-17 0)
(3 1.42001e-17 0)
(3 -1.32837e-16 0)
(3 -6.76298e-16 0)
(3 -8.34206e-16 0)
(3 -6.24127e-16 0)
(3 -3.04235e-16 0)
(3 -3.09958e-16 0)
(3 -8.32666e-16 0)
(3 -2.27379e-15 0)
(3 -2.09502e-15 0)
(3 -1.74513e-15 0)
(3 -8.50805e-16 0)
(3 1.40936e-16 0)
(3 3.93418e-16 0)
(3 6.88754e-16 0)
(3 2.30893e-15 0)
(3 1.01935e-15 0)
(3 -1.71527e-15 0)
(3 -2.90825e-15 0)
(3 -4.30529e-15 0)
(3 -4.24519e-15 0)
(3 -3.08103e-15 0)
(3 -3.75619e-16 0)
(3 2.5474e-16 0)
(3 -1.72287e-16 0)
(3 -6.15703e-16 0)
(3 -1.10619e-15 0)
(3 -1.28876e-15 0)
(3 -1.39011e-15 0)
(3 -5.02384e-16 0)
(3 5.40962e-16 0)
(3 1.255e-15 0)
(3 1.50067e-15 0)
(3 9.93647e-16 0)
(3 8.47941e-16 0)
(3 1.18022e-15 0)
(3 2.29462e-15 0)
(3 2.37254e-15 0)
(3 2.11072e-15 0)
(3 2.23465e-15 0)
(3 2.83979e-15 0)
(3 2.28347e-15 0)
(3 6.62122e-16 0)
(3 -2.08283e-15 0)
(3 -2.09262e-15 0)
(3 -2.58266e-15 0)
(3 -2.16648e-16 0)
(3 -9.3725e-17 0)
(3 9.42644e-16 0)
(3 1.31965e-15 0)
(3 1.05381e-15 0)
(3 2.84236e-16 0)
(3 -1.0295e-15 0)
(3 -1.5588e-15 0)
(3 -8.5588e-16 0)
(3 -2.81124e-16 0)
(3 3.13685e-16 0)
(3 6.76185e-17 0)
(3 -3.07849e-17 0)
(3 1.053e-16 0)
(3 1.49544e-16 0)
(3 -8.99328e-17 0)
(3 -3.13033e-16 0)
(3 4.96707e-16 0)
(3 9.71554e-16 0)
(3 3.88477e-16 0)
(3 4.2047e-17 0)
(3 -3.94796e-16 0)
(3 -1.16984e-16 0)
(3 4.83757e-17 0)
(3 3.99376e-18 0)
(3 -4.45743e-16 0)
(3 -1.31912e-15 0)
(3 -2.10536e-15 0)
(3 -1.19397e-15 0)
(3 -1.1913e-15 0)
(3 -9.83756e-16 0)
(3 -7.966e-16 0)
(3 -5.89706e-16 0)
(3 -1.28889e-18 0)
(3 7.72432e-16 0)
(3 -1.52504e-16 0)
(3 -1.48724e-16 0)
(3 5.55616e-16 0)
(3 1.58803e-15 0)
(3 2.62333e-15 0)
(3 2.88233e-15 0)
(3 2.79296e-15 0)
(3 2.13416e-15 0)
(3 5.53378e-16 0)
(3 -9.10642e-16 0)
(3 -1.09419e-15 0)
(3 -1.37086e-15 0)
(3 -2.36053e-15 0)
(3 -4.43291e-16 0)
(3 1.31336e-16 0)
(3 3.56459e-16 0)
(3 4.07908e-16 0)
(3 3.98651e-16 0)
(3 1.98778e-16 0)
(3 2.72039e-17 0)
(3 -7.01116e-16 0)
(3 -4.02385e-16 0)
(3 5.06511e-16 0)
(3 2.28232e-15 0)
(3 3.43021e-15 0)
(3 3.20339e-15 0)
(3 1.66265e-15 0)
(3 7.03643e-16 0)
(3 -5.9526e-16 0)
(3 -8.66477e-16 0)
(3 -8.37408e-16 0)
(3 1.26325e-15 0)
(3 1.75498e-15 0)
(3 1.92521e-15 0)
(3 2.32432e-15 0)
(3 2.21347e-15 0)
(3 1.08105e-15 0)
(3 1.14535e-17 0)
(3 4.18226e-16 0)
(3 1.16492e-15 0)
(3 1.86495e-15 0)
(3 1.30066e-15 0)
(3 7.83874e-16 0)
(3 -1.49398e-16 0)
(3 -1.08404e-15 0)
(3 -1.51732e-15 0)
(3 -5.86297e-16 0)
(3 1.57308e-16 0)
(3 -6.73768e-16 0)
(3 -1.07697e-15 0)
(3 -3.95951e-16 0)
(3 4.09156e-16 0)
(3 2.76941e-15 0)
(3 4.13574e-15 0)
(3 3.71197e-15 0)
(3 1.24452e-15 0)
(3 -7.34698e-16 0)
(3 -6.37887e-16 0)
(3 -9.58288e-16 0)
(3 -1.03233e-15 0)
(3 -5.7158e-16 0)
(3 3.83484e-17 0)
(3 -1.48541e-17 0)
(3 -2.97542e-16 0)
(3 -3.74356e-16 0)
(3 1.07351e-16 0)
(3 2.89975e-16 0)
(3 2.66281e-16 0)
(3 -1.29105e-16 0)
(3 -9.04741e-16 0)
(3 -7.49111e-16 0)
(3 3.98319e-16 0)
(3 7.47691e-16 0)
(3 1.50998e-15 0)
(3 1.97595e-15 0)
(3 4.7835e-16 0)
(3 -9.10796e-17 0)
(3 -1.42505e-15 0)
(3 -1.43509e-15 0)
(3 -9.5823e-16 0)
(3 -2.52039e-16 0)
(3 1.46154e-15 0)
(3 1.85096e-15 0)
(3 1.39166e-15 0)
(3 1.41078e-15 0)
(3 1.0743e-15 0)
(3 2.4465e-15 0)
(3 3.99153e-15 0)
(3 4.13438e-15 0)
(3 2.73764e-15 0)
(3 6.15945e-16 0)
(3 2.64908e-16 0)
(3 2.61779e-16 0)
(3 3.96615e-16 0)
(3 7.48957e-16 0)
(3 -6.35037e-16 0)
(3 -5.10367e-16 0)
(3 -3.90744e-16 0)
(3 3.08443e-16 0)
(3 2.15477e-15 0)
(3 2.88754e-15 0)
(3 3.56946e-15 0)
(3 2.42629e-15 0)
(3 1.27422e-15 0)
(3 5.90801e-17 0)
(3 -4.388e-16 0)
(3 -3.53736e-16 0)
(3 1.36787e-16 0)
(3 1.65674e-15 0)
(3 5.6221e-16 0)
(3 5.3758e-17 0)
(3 -1.84136e-16 0)
(3 -8.08753e-17 0)
(3 -6.52278e-17 0)
(3 2.50366e-16 0)
(3 2.45559e-16 0)
(3 5.87023e-16 0)
(3 5.15123e-16 0)
(3 -3.51654e-16 0)
(3 -1.00764e-15 0)
(3 -1.20072e-15 0)
(3 -1.25206e-15 0)
(3 -1.84128e-16 0)
(3 4.92289e-16 0)
(3 3.77274e-16 0)
(3 -4.32653e-16 0)
(3 -2.09219e-15 0)
(3 -2.84392e-15 0)
(3 -2.50595e-15 0)
(3 -1.35668e-15 0)
(3 -3.95306e-16 0)
(3 1.31722e-15 0)
(3 2.45998e-15 0)
(3 3.36417e-15 0)
(3 2.63163e-15 0)
(3 1.86003e-15 0)
(3 8.36238e-16 0)
(3 5.63825e-16 0)
(3 -3.18689e-16 0)
(3 -1.04495e-15 0)
(3 -1.09472e-15 0)
(3 3.47106e-17 0)
(3 -2.15331e-16 0)
(3 -1.11084e-15 0)
(3 1.49237e-15 0)
(3 2.77164e-15 0)
(3 2.72417e-15 0)
(3 2.55683e-15 0)
(3 1.96747e-15 0)
(3 2.34228e-15 0)
(3 2.80634e-16 0)
(3 9.29623e-17 0)
(3 3.98144e-16 0)
(3 3.90408e-16 0)
(3 2.56072e-16 0)
(3 1.21841e-15 0)
(3 1.81129e-15 0)
(3 2.2254e-16 0)
(3 -3.86514e-16 0)
(3 1.83942e-18 0)
(3 -5.26721e-17 0)
(3 1.89367e-16 0)
(3 6.61175e-16 0)
(3 6.79434e-16 0)
(3 8.41723e-16 0)
(3 1.03666e-15 0)
(3 3.5465e-16 0)
(3 5.95551e-16 0)
(3 -3.20239e-16 0)
(3 1.77073e-16 0)
(3 4.08722e-16 0)
(3 9.31223e-16 0)
(3 6.45611e-16 0)
(3 4.93585e-17 0)
(3 -5.73717e-16 0)
(3 -1.14765e-15 0)
(3 -1.28432e-15 0)
(3 -1.28554e-15 0)
(3 -1.58259e-15 0)
(3 -5.48418e-16 0)
(3 1.08472e-16 0)
(3 6.74526e-16 0)
(3 5.96162e-16 0)
(3 3.77988e-16 0)
(3 -6.25421e-16 0)
(3 -5.88221e-16 0)
(3 -5.51366e-16 0)
(3 -1.71054e-15 0)
(3 -2.008e-15 0)
(3 -1.66203e-15 0)
(3 -9.29206e-16 0)
(3 1.27277e-15 0)
(3 1.71611e-15 0)
(3 1.81962e-15 0)
(3 1.05305e-15 0)
(3 -2.36166e-16 0)
(3 -6.41175e-16 0)
(3 -1.18527e-15 0)
(3 -1.7106e-15 0)
(3 -8.4508e-16 0)
(3 -4.82717e-16 0)
(3 6.69704e-16 0)
(3 1.21071e-15 0)
(3 8.58956e-16 0)
(3 1.02208e-15 0)
(3 1.52911e-17 0)
(3 -2.44154e-16 0)
(3 -1.25322e-16 0)
(3 -1.69383e-16 0)
(3 3.87784e-16 0)
(3 1.01548e-15 0)
(3 2.15328e-15 0)
(3 2.74019e-15 0)
(3 1.92246e-15 0)
(3 1.00063e-15 0)
(3 9.81935e-16 0)
(3 1.36702e-15 0)
(3 2.26997e-15 0)
(3 2.64786e-15 0)
(3 2.34321e-15 0)
(3 -1.06161e-15 0)
(3 -1.45596e-15 0)
(3 -7.26568e-16 0)
(3 -6.21052e-16 0)
(3 -1.16944e-15 0)
(3 -1.68348e-15 0)
(3 -2.06346e-15 0)
(3 -1.19739e-15 0)
(3 -1.62964e-16 0)
(3 6.20368e-16 0)
(3 9.30655e-16 0)
(3 1.41622e-15 0)
(3 1.28544e-15 0)
(3 4.63119e-16 0)
(3 9.7979e-16 0)
(3 1.26957e-15 0)
(3 1.58509e-15 0)
(3 9.59625e-16 0)
(3 1.06649e-15 0)
(3 1.3838e-15 0)
(3 8.40342e-16 0)
(3 9.44546e-17 0)
(3 -7.59094e-16 0)
(3 -1.3303e-15 0)
(3 -1.72122e-15 0)
(3 -2.58446e-15 0)
(3 -2.28883e-15 0)
(3 -1.99279e-15 0)
(3 -1.79557e-15 0)
(3 -1.20892e-15 0)
(3 -3.72223e-16 0)
(3 -1.20955e-15 0)
(3 -2.21965e-15 0)
(3 6.95651e-18 0)
(3 -1.65811e-17 0)
(3 -4.59134e-17 0)
(3 -2.95193e-16 0)
(3 -5.10262e-16 0)
(3 -7.0586e-16 0)