/*--------------------------------*- C++ -*----------------------------------*\
  =========                 |
  \\      /  F ield         | OpenFOAM: The Open Source CFD Toolbox
   \\    /   O peration     | Website:  https://openfoam.org
    \\  /    A nd           | Version:  7
     \\/     M anipulation  |
\*---------------------------------------------------------------------------*/
FoamFile
{
    version     2.0;
    format      ascii;
    class       volScalarField;
    location    "0.4";
    object      p;
}
// * * * * * * * * * * * * * * * * * * * * * * * * * * * * * * * * * * * * * //

dimensions      [1 -1 -2 0 0 0 0];

internalField   nonuniform List<scalar> 
4608
(
1
1
1
1
1
1
1
1
1
1
1
1
1
1
1
1
1
1
1
1
1
1
1
1
1
1
1
1
1
1
1
1
1
1
1
1
1
1
1
1
1
1
1
1
1
1
1
1
1
1
1
1
1
1
1
1
1
1
1
1
1
1
1
1
1
1
1
1
1
1
1
1
1
1
1
1
1
1
1
1
1
1
1
1
1
1
1
1
1
1
1
1
1
1
1
1
1
1
1
1
1
1
1
1
1
1
1
1
1
1
1
1
1
1
1
1
1
1
1
1
1
1
1
1
1
1
1
1
1
1
1
1
1
1
1
1
1
1
1
1
1
1
1
1
1
1
1
1
1
1
1
1
1
1
1
1
1
1
1
1
1
1
1
1
1
1
1
1
1
1
1
1
1
1
1
1
1
1
1
1
1
1
1
1
1
1
1
1
1
1
1
1
1
1
1
1
1
1
1
1
1
1
1
1
1
1
1
1
1
1
1
1
1
1
1
1
1
1
1
1
1
1
1
1
1
1
1
1
1
1
1
1
1
1
1
1
1
1
1
1
1
1
1
1
1
1
1
1
1
1
1
1
1
1
1
1
1
1
1
1
1
1
1
1
1
1
1
1
1
1
1
1
1
1
1
1
1
1
1
1
1
1
1
1
1
1
1
1
1
1
1
1
1
1
1
1
1
1
1
1
1
1
1
1
1
1
1
1
1
1
1
1
1
1
1
1
1
1
1
1
1
1
1
1
1
1
1
1
1
1
1
1
1
1
1
1
1
1
1
1
1
1
1
1
1
1
1
1
1
1
1
1
1
1
1
1
1
1
1
1
1
1
1
1
1
1
1
1
1
1
1
1
1
1
1
1
1
1
1
1
1
1
1
1
1
1
1
1
1
1
1
1
1
1
1
1
1
1
1
1
1
1
1
1
1
1
1
1
1
1
1
1
1
1
1
1
1
1
1
1
1
1
1
1
1
1
1
1
1
1
1
1
1
1
1
1
1
1
1
1
1
1
1
1
1
1
1
1
1
1
1
1
1
1
1
1
1
1
1
1
1
1
1
1
1
1
1
1
1
1
1
1
1
1
1
1
1
1
1
1
1
1
1
1
1
1
1
1
1
1
1
1
1
1
1
1
1
1
1
1
1
1
1
1
1
1
1
1
1
1
1
1
1
1
1
1
1
1
1
1
1
1
1
1
1
1
1
1
1
1
1
1
1
1
1
1
1
1
1
1
1
1
1
1
1
1
1
1
1
1
1
1
1
1
1
1
1
1
1
1
1
1
1
1
1
1
1
1
1
1
1
1
1
1
1
1
1
1
1
1
1
1
1
1
1
1
1
1
1
1
1
1
1
1
1
1
1
1
1
1
1
1
1
1
1
1
1
1
1
1
1
1
1
1
1
1
1
1
1
1
1
1
1
1
1
1
1
1
1
1
1
1
1
1
1
1
1
1
1
1
1
1
1
1
1
1
1
1
1
1
1
1
1
1
1
1
1
1
1
1
1
1
1
1
1
1
1
1
1
1
1
1
1
1
1
1
1
1
1
1
1
1
1
1
1
1
1
1
1
1
1
1
1
1
1
1
1
1
1
1
1
1
1
1
1
1
1
1
1
1
1
1
1
1
1
1
1
1
1
1
1
1
1
1
1
1
1
1
1
1
1
1
1
1
1
1
1
1
1
1
1
1
1
1
1
1
1
1
1
1
1
1
1
1
1
1
1
1
1
1
1
1
1
1
1
1
1
1
1.29192
1.75855
2.34009
2.97082
3.62684
4.32831
4.80705
5.30729
5.37314
5.15999
4.71014
4.2166
3.81045
3.65429
3.56498
3.56958
3.60127
3.65265
3.70956
3.72327
3.71206
3.69466
3.68069
3.65063
1.00292
1.01944
1.08088
1.22221
1.46744
1.85856
2.36459
3.0061
3.5719
3.81444
4.05554
4.05863
3.96735
3.84523
3.801
3.73084
3.69807
3.6977
3.70661
3.70979
3.70162
3.68426
3.65885
3.62217
1
0.999968
1.00002
1.0003
1.00354
1.02355
1.11072
1.35819
2.00545
2.96288
3.88402
4.29303
4.3622
4.26437
4.12387
3.88808
3.7207
3.70986
3.70258
3.69169
3.68545
3.67143
3.64261
3.6078
1
0.999999
0.999998
0.999998
0.999986
1.00004
0.999988
1.00152
1.03764
1.29032
2.05215
3.11294
3.94226
4.13577
4.05234
4.00476
3.90839
3.82422
3.76718
3.69343
3.66068
3.64364
3.61894
3.59051
1
1
1
1
0.999999
0.999999
0.999998
0.999996
0.999895
1.00129
1.03965
1.37972
2.17467
3.39739
3.8333
4.0625
4.07041
3.99596
3.83204
3.71117
3.66555
3.6098
3.5845
3.56274
1
1
1
1
1
1
1
1
0.999987
0.999989
0.9999
1.00369
1.06744
1.51769
2.5231
3.53416
3.96877
3.93396
3.87805
3.80935
3.73958
3.65361
3.5696
3.53788
1
1
1
1
1
1
1
1
1
0.999999
0.99999
0.999982
0.999992
1.00957
1.18373
1.77276
2.93215
3.59311
3.91976
3.91367
3.84146
3.7105
3.59253
3.53712
1
1
1
1
1
1
1
1
1
1
1
0.999997
0.999997
0.999966
1.00138
1.03184
1.35213
2.25452
3.31227
3.76899
3.75382
3.69322
3.62251
3.56216
1
1
1
1
1
1
1
1
1
1
1
1
1
0.999994
0.999991
0.999995
1.00652
1.14895
1.73484
2.83599
3.49373
3.7113
3.67918
3.59811
1
1
1
1
1
1
1
1
1
1
1
1
1
1
0.999999
0.999998
0.999981
1.00188
1.04009
1.42474
2.33217
3.31383
3.54134
3.53052
1
1
1
1
1
1
1
1
1
1
1
1
1
1
1
1
0.999997
0.999989
1.00014
1.01651
1.21446
1.92796
2.82685
3.41335
1
1
1
1
1
1
1
1
1
1
1
1
1
1
1
1
1
0.999998
0.999997
1.00002
1.0053
1.08819
1.59387
2.45849
1
1
1
1
1
1
1
1
1
1
1
1
1
1
1
1
1
1
0.999999
0.999999
0.999994
1.00116
1.04473
1.30273
1
1
1
1
1
1
1
1
1
1
1
1
1
1
1
1
1
1
1
1
0.999998
0.999995
1.00043
1.00868
1
1
1
1
1
1
1
1
1
1
1
1
1
1
1
1
1
1
1
1
1
0.999998
0.999999
0.999949
1
1
1
1
1
1
1
1
1
1
1
1
1
1
1
1
1
1
1
1
1
1
1
0.999979
1
1
1
1
1
1
1
1
1
1
1
1
1
1
1
1
1
1
1
1
1
1
1
0.999979
1
1
1
1
1
1
1
1
1
1
1
1
1
1
1
1
1
1
1
1
1
0.999998
0.999999
0.999949
1
1
1
1
1
1
1
1
1
1
1
1
1
1
1
1
1
1
1
1
0.999998
0.999995
1.00043
1.00868
1
1
1
1
1
1
1
1
1
1
1
1
1
1
1
1
1
1
0.999999
0.999999
0.999994
1.00116
1.04473
1.30273
1
1
1
1
1
1
1
1
1
1
1
1
1
1
1
1
1
0.999998
0.999997
1.00002
1.0053
1.08819
1.59387
2.45849
1
1
1
1
1
1
1
1
1
1
1
1
1
1
1
1
0.999997
0.999989
1.00014
1.01651
1.21446
1.92796
2.82685
3.41335
1
1
1
1
1
1
1
1
1
1
1
1
1
1
0.999999
0.999998
0.999981
1.00188
1.04009
1.42474
2.33217
3.31383
3.54134
3.53052
1
1
1
1
1
1
1
1
1
1
1
1
1
0.999994
0.999991
0.999995
1.00652
1.14895
1.73484
2.83599
3.49373
3.7113
3.67918
3.59811
1
1
1
1
1
1
1
1
1
1
1
0.999997
0.999997
0.999966
1.00138
1.03184
1.35213
2.25452
3.31227
3.76899
3.75382
3.69322
3.62251
3.56216
1
1
1
1
1
1
1
1
1
0.999999
0.99999
0.999982
0.999992
1.00957
1.18373
1.77276
2.93215
3.59311
3.91976
3.91367
3.84146
3.7105
3.59253
3.53712
1
1
1
1
1
1
1
1
0.999987
0.999989
0.9999
1.00369
1.06744
1.51769
2.5231
3.53416
3.96877
3.93396
3.87805
3.80935
3.73958
3.65361
3.5696
3.53788
1
1
1
1
0.999999
0.999999
0.999998
0.999996
0.999895
1.00129
1.03965
1.37972
2.17467
3.39739
3.8333
4.0625
4.07041
3.99596
3.83204
3.71117
3.66555
3.6098
3.5845
3.56274
1
0.999999
0.999998
0.999998
0.999986
1.00004
0.999988
1.00152
1.03764
1.29032
2.05215
3.11294
3.94226
4.13577
4.05234
4.00476
3.90839
3.82422
3.76718
3.69343
3.66068
3.64364
3.61894
3.59051
1
0.999968
1.00002
1.0003
1.00354
1.02355
1.11072
1.35819
2.00545
2.96288
3.88402
4.29303
4.3622
4.26437
4.12387
3.88808
3.7207
3.70986
3.70258
3.69169
3.68545
3.67143
3.64261
3.6078
1.00292
1.01944
1.08088
1.22221
1.46744
1.85856
2.36459
3.0061
3.5719
3.81444
4.05554
4.05863
3.96735
3.84523
3.801
3.73084
3.69807
3.6977
3.70661
3.70979
3.70162
3.68426
3.65885
3.62217
1.29192
1.75855
2.34009
2.97082
3.62684
4.32831
4.80705
5.30729
5.37314
5.15999
4.71014
4.2166
3.81045
3.65429
3.56498
3.56958
3.60127
3.65265
3.70956
3.72327
3.71206
3.69466
3.68069
3.65063
2.55363
1.62956
1.08012
0.752123
0.57452
0.574812
0.630512
0.633542
0.631792
0.66884
0.731036
0.779495
0.808645
0.85741
0.886174
0.882664
0.859634
0.847482
0.8543
0.873459
0.886842
0.882625
0.870102
0.85128
0.829494
0.822468
0.820747
0.822226
0.825152
0.821065
0.812762
0.802361
0.797861
0.797387
0.796982
0.794022
0.78683
0.779574
0.778622
0.779089
0.782309
0.791924
0.81248
0.846878
0.888714
0.920681
0.940446
0.954767
0.96549
0.975199
0.989572
1.01289
1.03135
1.03643
1.03693
1.03627
1.03801
1.04368
1.0502
1.0572
1.07289
1.08158
1.07111
1.06631
1.06433
1.059
1.04803
1.03967
1.03849
1.03905
1.04023
1.04451
1.05747
1.07067
1.0735
1.074
1.07452
1.07498
1.07517
1.0742
1.06858
1.05205
1.0227
1.0029
1.00005
1
1
1
1
1
1
1
1
1
1
1
3.21625
2.58985
2.06813
1.68437
1.3002
1.10641
1.05491
0.965365
0.852796
0.819691
0.800777
0.7664
0.757449
0.76909
0.795012
0.797455
0.795326
0.801443
0.819738
0.839539
0.849751
0.847403
0.839848
0.827831
0.81565
0.812048
0.810913
0.813231
0.818335
0.816272
0.810257
0.801968
0.795907
0.79473
0.794987
0.793935
0.788327
0.780868
0.779784
0.780542
0.783963
0.794437
0.814406
0.844883
0.884273
0.9222
0.94694
0.960739
0.968513
0.975144
0.985944
1.00399
1.02347
1.03462
1.03876
1.04096
1.0426
1.04466
1.0478
1.05315
1.06654
1.07677
1.06922
1.06492
1.0632
1.05814
1.04761
1.03902
1.03739
1.03791
1.03935
1.0449
1.05916
1.0721
1.07444
1.07475
1.07506
1.07529
1.07535
1.07437
1.0692
1.05313
1.0231
1.00282
1.00004
1
1
1
1
1
1
1
1
1
1
1
3.48206
3.16289
2.67702
2.26346
1.88687
1.48259
1.28795
1.17048
1.01125
0.88115
0.854381
0.809576
0.763244
0.762708
0.776934
0.794663
0.793095
0.786173
0.794273
0.808809
0.814602
0.814375
0.813083
0.810643
0.803918
0.799737
0.798856
0.801905
0.808608
0.811885
0.810565
0.806466
0.799506
0.79584
0.79564
0.794831
0.791771
0.786607
0.788239
0.794443
0.807383
0.83002
0.85811
0.88819
0.925166
0.96914
1.00681
1.02972
1.0366
1.03388
1.02952
1.02951
1.03816
1.04486
1.04697
1.04784
1.04897
1.05029
1.0519
1.05585
1.06762
1.07563
1.06938
1.06546
1.06271
1.05692
1.04678
1.03942
1.03808
1.03854
1.03987
1.04568
1.06094
1.07287
1.07468
1.07511
1.07551
1.07579
1.07582
1.07421
1.06759
1.04992
1.02007
1.00213
1.00002
1
1
1
1
1
1
1
1
1
1
1
3.53928
3.41381
3.12173
2.73745
2.40601
1.97532
1.63183
1.50047
1.3483
1.11693
1.05402
1.01441
0.908149
0.830682
0.834436
0.832026
0.807949
0.78282
0.779419
0.779349
0.77058
0.766705
0.770517
0.780521
0.784125
0.783287
0.78245
0.786796
0.79458
0.800504
0.802147
0.800875
0.798101
0.79815
0.802256
0.812435
0.836672
0.88203
0.944289
1.01435
1.08957
1.16609
1.22311
1.24889
1.27415
1.31812
1.36093
1.36989
1.36274
1.3353
1.29152
1.24734
1.2084
1.17003
1.13129
1.09725
1.07496
1.06223
1.05505
1.05647
1.06792
1.07371
1.069
1.06574
1.0617
1.05343
1.04285
1.03783
1.03774
1.03892
1.0416
1.04981
1.06548
1.07456
1.07573
1.07616
1.07655
1.07684
1.07691
1.07542
1.06779
1.04687
1.01594
1.00125
1.00001
1
1
1
1
1
1
1
1
1
1
1
3.54152
3.49459
3.36091
3.09297
2.79676
2.45055
2.03896
1.81859
1.65356
1.43136
1.26789
1.17881
1.05494
0.920332
0.899176
0.886622
0.844599
0.790498
0.785249
0.785191
0.771545
0.763809
0.768038
0.783605
0.785291
0.774501
0.766108
0.765261
0.768101
0.778575
0.789178
0.801681
0.826222
0.877204
0.95935
1.06451
1.18455
1.3076
1.41233
1.49851
1.56589
1.60922
1.64422
1.65619
1.64669
1.6561
1.69224
1.7066
1.70057
1.67572
1.63988
1.60014
1.5563
1.50562
1.44466
1.36741
1.27542
1.18343
1.11788
1.08558
1.07428
1.07245
1.06823
1.0656
1.06088
1.0497
1.03891
1.03648
1.03714
1.03888
1.04325
1.05562
1.07201
1.07729
1.07783
1.07816
1.07837
1.07846
1.0779
1.07479
1.06541
1.04174
1.01145
1.0006
1
1
1
1
1
1
1
1
1
1
1
1
3.52468
3.49745
3.4456
3.30675
3.0776
2.80198
2.44831
2.17277
1.96099
1.70521
1.52602
1.42414
1.30072
1.08751
1.02816
1.02934
0.995504
0.902422
0.87086
0.853227
0.813924
0.783217
0.77875
0.780771
0.772788
0.758364
0.747421
0.744774
0.749871
0.772479
0.847464
0.97
1.14062
1.32921
1.4878
1.60738
1.67628
1.70316
1.72019
1.74124
1.73415
1.72574
1.73514
1.74774
1.73439
1.73394
1.77243
1.79137
1.78779
1.77642
1.755
1.73108
1.71616
1.70328
1.67776
1.63431
1.56967
1.48063
1.37723
1.26903
1.16631
1.0963
1.07188
1.06487
1.05662
1.04557
1.03873
1.03685
1.03738
1.0395
1.04612
1.06231
1.07726
1.0802
1.08073
1.08117
1.08139
1.08127
1.07993
1.07563
1.06283
1.03437
1.0067
1.0002
1
1
1
1
1
1
1
1
1
1
1
1
3.5067
3.48173
3.44883
3.39621
3.26812
3.07451
2.77648
2.48493
2.28951
2.02796
1.74156
1.64935
1.55477
1.3556
1.2104
1.17554
1.12239
1.02086
0.961235
0.930915
0.877525
0.803331
0.787635
0.787741
0.781975
0.77056
0.788973
0.842414
0.946601
1.12609
1.34305
1.51592
1.67083
1.76332
1.80537
1.81581
1.79665
1.76432
1.74785
1.74315
1.72088
1.7057
1.71159
1.72486
1.71828
1.71408
1.75177
1.78002
1.77869
1.77748
1.76333
1.74583
1.73604
1.73289
1.72413
1.70111
1.67374
1.64553
1.60878
1.55026
1.45336
1.30505
1.14716
1.06656
1.04626
1.04039
1.03872
1.03915
1.04025
1.04274
1.05123
1.06821
1.07948
1.08123
1.0819
1.08269
1.08336
1.08368
1.08304
1.07723
1.05855
1.02488
1.00291
1.00004
1
1
1
1
1
1
1
1
1
1
1
1
3.50106
3.45254
3.43595
3.41141
3.36412
3.25354
3.05263
2.76842
2.56157
2.34357
2.04631
1.88101
1.76919
1.59561
1.44349
1.37047
1.295
1.15598
1.07222
1.04896
1.00561
0.913121
0.874986
0.885516
0.929825
1.02293
1.20129
1.40478
1.59831
1.78345
1.86777
1.88657
1.88399
1.86619
1.83107
1.79297
1.75782
1.71964
1.70213
1.6679
1.61774
1.59586
1.59456
1.60545
1.60727
1.59385
1.61647
1.6575
1.67853
1.69733
1.69776
1.69101
1.68856
1.69206
1.69957
1.69295
1.67487
1.66758
1.65944
1.64239
1.60865
1.54639
1.41848
1.22186
1.07828
1.04055
1.03826
1.03951
1.04192
1.0475
1.0616
1.07926
1.08499
1.08557
1.08593
1.08618
1.08621
1.08553
1.08252
1.07372
1.04951
1.0149
1.0009
1
1
1
1
1
1
1
1
1
1
1
1
1
3.5126
3.45764
3.43213
3.41889
3.39291
3.34145
3.23171
3.03268
2.81726
2.61655
2.34425
2.13046
1.99674
1.82376
1.64778
1.55999
1.47824
1.33696
1.20261
1.16334
1.13624
1.09749
1.13149
1.26189
1.47158
1.77384
2.01708
2.12367
2.20021
2.17749
2.12008
2.02018
1.92233
1.85258
1.78181
1.71555
1.6477
1.59827
1.55688
1.48493
1.43474
1.42585
1.42859
1.42651
1.4249
1.4126
1.41279
1.44167
1.47175
1.50706
1.54296
1.55383
1.5493
1.54924
1.57235
1.62233
1.67028
1.68128
1.673
1.65758
1.6304
1.59235
1.54184
1.45636
1.31193
1.14697
1.05753
1.04184
1.04281
1.05205
1.07297
1.08788
1.09007
1.09062
1.09114
1.09142
1.09122
1.08951
1.08445
1.06923
1.03599
1.00615
1.00014
1
1
1
1
1
1
1
1
1
1
1
1
1
3.48666
3.44995
3.4194
3.39879
3.3814
3.35673
3.3121
3.21112
3.04194
2.85636
2.62925
2.39784
2.22107
2.03816
1.86827
1.74228
1.64052
1.52533
1.40276
1.39893
1.48912
1.75205
2.12245
2.34819
2.53312
2.69778
2.64077
2.55798
2.48341
2.37572
2.24329
2.09512
1.9447
1.83119
1.75402
1.67546
1.59737
1.54087
1.48722
1.41975
1.36256
1.34388
1.33433
1.31822
1.30385
1.2969
1.28535
1.29321
1.32202
1.34771
1.38786
1.42437
1.42854
1.4239
1.42809
1.44974
1.48657
1.52478
1.55237
1.5681
1.5725
1.56622
1.5393
1.50193
1.45749
1.37511
1.2368
1.10959
1.06899
1.06932
1.0835
1.0917
1.09239
1.09302
1.09389
1.09453
1.09485
1.0943
1.08592
1.05973
1.01971
1.0014
1.00001
1
1
1
1
1
1
1
1
1
1
1
1
1
3.52858
3.50055
3.4341
3.37866
3.35957
3.35034
3.33795
3.29207
3.18719
3.03408
2.83596
2.64797
2.47642
2.24798
2.06457
1.9546
1.87152
1.87526
2.03484
2.31289
2.69043
3.23915
3.40301
3.28852
3.17327
3.05248
2.87559
2.69768
2.53265
2.37539
2.22665
2.08132
1.95945
1.86405
1.77731
1.68318
1.60055
1.53611
1.47251
1.40722
1.35711
1.31544
1.27464
1.24692
1.2183
1.19251
1.17912
1.16842
1.18092
1.21158
1.24215
1.28797
1.31609
1.31821
1.31482
1.31959
1.33992
1.36198
1.37507
1.38565
1.39948
1.41835
1.44283
1.46113
1.46078
1.43886
1.39893
1.31425
1.1919
1.11572
1.10154
1.10033
1.10028
1.10048
1.10032
1.09983
1.09858
1.09366
1.07821
1.04094
1.0068
1.00015
1
1
1
1
1
1
1
1
1
1
1
1
1
1
3.24308
3.33361
3.35843
3.36671
3.35762
3.35575
3.35559
3.32697
3.2679
3.17183
3.02156
2.83128
2.69969
2.53769
2.38326
2.47872
2.77326
3.31114
3.82935
4.02871
4.24087
4.24511
4.1291
3.81241
3.52593
3.35975
3.1897
2.93936
2.68474
2.5085
2.37401
2.24281
2.11943
2.00151
1.87471
1.76292
1.67489
1.60025
1.53018
1.466
1.40133
1.3248
1.25647
1.21175
1.1798
1.13914
1.11814
1.10533
1.09981
1.11937
1.14852
1.18095
1.21983
1.2337
1.23168
1.23379
1.25104
1.26368
1.26435
1.26111
1.25946
1.26423
1.27875
1.31965
1.39224
1.43228
1.43369
1.42798
1.3848
1.2764
1.15248
1.11003
1.10692
1.10753
1.10791
1.10695
1.1042
1.0933
1.06231
1.01826
1.00102
1
1
1
1
1
1
1
1
1
1
1
1
1
1
1
2.08885
2.87736
3.32031
3.34323
3.29773
3.28091
3.27065
3.28105
3.30102
3.27573
3.19949
3.10475
3.16732
3.41046
3.90745
4.41399
4.85245
5.24771
5.19726
4.94555
4.71672
4.4734
4.14676
3.84161
3.6023
3.37009
3.11824
2.87346
2.68361
2.51975
2.3664
2.22075
2.09047
1.96985
1.84708
1.7312
1.6372
1.55697
1.48342
1.41724
1.35381
1.29217
1.23647
1.19113
1.15601
1.12211
1.09273
1.07851
1.06843
1.06529
1.07303
1.08423
1.10912
1.13598
1.14529
1.15003
1.15789
1.16422
1.16757
1.16755
1.16464
1.16736
1.17644
1.20377
1.27087
1.37576
1.43394
1.43705
1.43693
1.41204
1.31715
1.17903
1.11713
1.10967
1.1098
1.11113
1.10641
1.08307
1.03495
1.00373
1.00004
1
1
1
1
1
1
1
1
1
1
1
1
1
1
1
1.19201
1.73811
2.53923
2.97176
3.25485
3.32747
3.28809
3.26958
3.33448
3.52061
3.90235
4.5199
5.21411
6.02935
6.50636
6.60398
6.5592
6.40679
6.01746
5.46382
4.96833
4.52893
4.16852
3.89462
3.65673
3.40618
3.1472
2.92062
2.74563
2.58464
2.42144
2.26626
2.12997
2.00484
1.88078
1.7611
1.65923
1.57279
1.49486
1.42412
1.35686
1.29153
1.23301
1.18506
1.1454
1.11071
1.08242
1.06554
1.05366
1.04569
1.04309
1.04447
1.05595
1.07781
1.08358
1.07762
1.06563
1.0681
1.07958
1.09071
1.10227
1.1172
1.13955
1.17179
1.21399
1.27533
1.35975
1.4314
1.45057
1.44816
1.41714
1.33433
1.21717
1.14104
1.11938
1.10951
1.09273
1.05098
1.00908
1.00021
1
1
1
1
1
1
1
1
1
1
1
1
1
1
1
1
1.0078
1.08183
1.45068
2.05455
2.64551
3.04994
3.40695
3.97208
4.69683
5.44366
6.2399
6.78221
7.20446
7.45211
7.36887
7.13688
6.8447
6.4386
6.0079
5.70121
5.35155
4.94063
4.50469
4.18052
3.90549
3.62187
3.36519
3.15358
2.96668
2.77826
2.59105
2.4246
2.28405
2.15577
2.02679
1.89977
1.78577
1.68745
1.59981
1.51861
1.44129
1.36716
1.29923
1.24036
1.19154
1.15308
1.12508
1.10553
1.08599
1.0654
1.05328
1.04513
1.04308
1.0535
1.05569
1.05363
1.04574
1.03713
1.04841
1.06531
1.08334
1.10622
1.13585
1.17437
1.22062
1.25994
1.29129
1.32651
1.3665
1.39189
1.39446
1.38376
1.34723
1.25772
1.1555
1.09505
1.04843
1.01077
1.00042
1
1
1
1
1
1
1
1
1
1
1
1
1
1
1
1
1
1.00004
1.00217
1.03278
1.2163
1.74338
2.76051
4.20259
5.52258
6.56407
7.38913
7.97843
8.15064
8.30722
8.22649
7.90959
7.37692
6.7838
6.28044
5.88973
5.52698
5.17716
4.8481
4.53175
4.1867
3.8416
3.51973
3.24454
3.03213
2.8535
2.67446
2.49072
2.32321
2.18618
2.06653
1.94632
1.82476
1.71373
1.6182
1.53299
1.45314
1.37796
1.30778
1.24313
1.18478
1.13445
1.09532
1.07062
1.05342
1.03294
1.0136
1.00309
0.995151
0.997901
1.01917
1.03364
1.03384
1.03168
1.02805
1.04014
1.05773
1.07593
1.1003
1.13608
1.18046
1.21613
1.23341
1.24568
1.26314
1.29348
1.34485
1.40432
1.42928
1.42395
1.35615
1.196
1.051
1.00522
1.00016
1
1
1
1
1
1
1
1
1
1
1
1
1
1
1
1
1
1
1.00004
1.00217
1.03278
1.2163
1.74338
2.76051
4.20259
5.52258
6.56407
7.38913
7.97843
8.15064
8.30722
8.22649
7.90959
7.37692
6.7838
6.28044
5.88973
5.52698
5.17716
4.8481
4.53175
4.1867
3.8416
3.51973
3.24454
3.03213
2.8535
2.67446
2.49072
2.32321
2.18618
2.06653
1.94632
1.82476
1.71373
1.6182
1.53299
1.45314
1.37796
1.30778
1.24313
1.18478
1.13445
1.09532
1.07062
1.05342
1.03294
1.0136
1.00309
0.995151
0.997901
1.01917
1.03364
1.03384
1.03168
1.02805
1.04014
1.05773
1.07593
1.1003
1.13609
1.18045
1.21614
1.2334
1.24569
1.26305
1.29322
1.34463
1.40812
1.43336
1.42512
1.35628
1.19502
1.04989
1.00514
1.00016
1
1
1
1
1
1
1
1
1
1
1
1
1
1
1
1
1
1
1.0078
1.08183
1.45068
2.05455
2.64551
3.04994
3.40695
3.97208
4.69683
5.44366
6.2399
6.78221
7.20446
7.45211
7.36887
7.13688
6.8447
6.4386
6.0079
5.70121
5.35155
4.94063
4.50469
4.18052
3.90549
3.62187
3.36519
3.15358
2.96668
2.77826
2.59105
2.4246
2.28405
2.15577
2.02679
1.89977
1.78577
1.68745
1.59981
1.51861
1.44129
1.36716
1.29923
1.24036
1.19154
1.15308
1.12508
1.10553
1.08599
1.0654
1.05327
1.04513
1.04308
1.0535
1.05569
1.05363
1.04574
1.03713
1.04841
1.06531
1.08335
1.10622
1.13587
1.17435
1.22064
1.25992
1.29135
1.32642
1.36657
1.39225
1.39425
1.3836
1.34763
1.25771
1.15518
1.09495
1.0484
1.01078
1.00042
1
1
1
1
1
1
1
1
1
1
1
1
1
1
1
1
1
1.19201
1.73811
2.53923
2.97176
3.25485
3.32747
3.28809
3.26958
3.33448
3.52061
3.90235
4.5199
5.21411
6.02935
6.50636
6.60398
6.5592
6.40679
6.01746
5.46382
4.96833
4.52893
4.16852
3.89462
3.65673
3.40618
3.1472
2.92062
2.74563
2.58464
2.42144
2.26626
2.12997
2.00484
1.88078
1.7611
1.65923
1.57279
1.49486
1.42412
1.35686
1.29153
1.23301
1.18506
1.1454
1.11071
1.08242
1.06554
1.05366
1.04569
1.04309
1.04447
1.05595
1.07781
1.08358
1.07762
1.06563
1.0681
1.07958
1.09071
1.10227
1.1172
1.13955
1.17179
1.214
1.27534
1.35977
1.43156
1.45065
1.44815
1.41686
1.33399
1.21709
1.14098
1.11936
1.1095
1.09273
1.05098
1.00909
1.00021
1
1
1
1
1
1
1
1
1
1
1
1
1
1
1
1
2.08885
2.87736
3.32031
3.34323
3.29773
3.28091
3.27065
3.28105
3.30102
3.27573
3.19949
3.10475
3.16732
3.41046
3.90745
4.41399
4.85245
5.24771
5.19726
4.94555
4.71672
4.4734
4.14676
3.84161
3.6023
3.37009
3.11824
2.87346
2.68361
2.51975
2.3664
2.22075
2.09047
1.96985
1.84708
1.7312
1.6372
1.55697
1.48342
1.41724
1.35381
1.29217
1.23647
1.19113
1.15601
1.12211
1.09273
1.07851
1.06843
1.06529
1.07303
1.08423
1.10912
1.13598
1.14529
1.15003
1.15788
1.16422
1.16757
1.16755
1.16464
1.16736
1.17644
1.20377
1.27086
1.37575
1.43394
1.43705
1.43694
1.41199
1.31697
1.17889
1.11711
1.10967
1.1098
1.11113
1.10641
1.08307
1.03495
1.00373
1.00004
1
1
1
1
1
1
1
1
1
1
1
1
1
1
1
3.24308
3.33361
3.35843
3.36671
3.35762
3.35575
3.35559
3.32697
3.2679
3.17183
3.02156
2.83128
2.69969
2.53769
2.38326
2.47872
2.77326
3.31114
3.82935
4.02871
4.24087
4.24511
4.1291
3.81241
3.52593
3.35975
3.1897
2.93936
2.68474
2.5085
2.37401
2.24281
2.11943
2.00151
1.87471
1.76292
1.67489
1.60025
1.53018
1.466
1.40133
1.3248
1.25647
1.21175
1.1798
1.13914
1.11814
1.10533
1.09981
1.11937
1.14852
1.18095
1.21983
1.2337
1.23168
1.23378
1.25104
1.26368
1.26435
1.26111
1.25946
1.26423
1.27875
1.31966
1.39225
1.43228
1.4337
1.42798
1.38478
1.27636
1.15244
1.11002
1.10692
1.10753
1.10791
1.10695
1.1042
1.0933
1.06231
1.01826
1.00102
1
1
1
1
1
1
1
1
1
1
1
1
1
1
1
3.52858
3.50055
3.4341
3.37866
3.35957
3.35034
3.33795
3.29207
3.18719
3.03408
2.83596
2.64797
2.47642
2.24798
2.06457
1.9546
1.87152
1.87526
2.03484
2.31289
2.69043
3.23915
3.40301
3.28852
3.17327
3.05248
2.87559
2.69768
2.53265
2.37539
2.22665
2.08132
1.95945
1.86405
1.77731
1.68318
1.60055
1.53611
1.47251
1.40722
1.35711
1.31544
1.27464
1.24692
1.2183
1.19251
1.17912
1.16842
1.18092
1.21158
1.24215
1.28797
1.31609
1.31821
1.31482
1.31959
1.33992
1.36198
1.37507
1.38565
1.39948
1.41835
1.44283
1.46113
1.46078
1.43886
1.39893
1.31424
1.19189
1.11571
1.10154
1.10033
1.10028
1.10048
1.10032
1.09983
1.09858
1.09366
1.07821
1.04094
1.0068
1.00015
1
1
1
1
1
1
1
1
1
1
1
1
1
1
3.48666
3.44995
3.4194
3.39879
3.3814
3.35673
3.3121
3.21112
3.04194
2.85636
2.62925
2.39784
2.22107
2.03816
1.86827
1.74228
1.64052
1.52533
1.40276
1.39893
1.48912
1.75205
2.12245
2.34819
2.53312
2.69778
2.64077
2.55798
2.48341
2.37572
2.24329
2.09512
1.9447
1.83119
1.75402
1.67546
1.59737
1.54087
1.48722
1.41975
1.36256
1.34388
1.33433
1.31822
1.30385
1.2969
1.28535
1.29321
1.32202
1.34771
1.38786
1.42437
1.42854
1.4239
1.42809
1.44974
1.48657
1.52478
1.55237
1.5681
1.5725
1.56622
1.5393
1.50193
1.45749
1.37511
1.23679
1.10958
1.06898
1.06931
1.0835
1.0917
1.09239
1.09302
1.09389
1.09453
1.09485
1.0943
1.08592
1.05973
1.01971
1.0014
1.00001
1
1
1
1
1
1
1
1
1
1
1
1
1
3.5126
3.45764
3.43213
3.41889
3.39291
3.34145
3.23171
3.03268
2.81726
2.61655
2.34425
2.13046
1.99674
1.82376
1.64778
1.55999
1.47824
1.33696
1.20261
1.16334
1.13624
1.09749
1.13149
1.26189
1.47158
1.77384
2.01708
2.12367
2.20021
2.17749
2.12008
2.02018
1.92233
1.85258
1.78181
1.71555
1.6477
1.59827
1.55688
1.48493
1.43474
1.42585
1.42859
1.42651
1.4249
1.4126
1.41279
1.44167
1.47175
1.50706
1.54296
1.55383
1.5493
1.54924
1.57235
1.62233
1.67028
1.68128
1.673
1.65758
1.6304
1.59235
1.54184
1.45636
1.31193
1.14696
1.05753
1.04184
1.04281
1.05205
1.07297
1.08788
1.09007
1.09062
1.09114
1.09142
1.09122
1.08951
1.08445
1.06923
1.03599
1.00615
1.00014
1
1
1
1
1
1
1
1
1
1
1
1
1
3.50106
3.45254
3.43595
3.41141
3.36412
3.25354
3.05263
2.76842
2.56157
2.34357
2.04631
1.88101
1.76919
1.59561
1.44349
1.37047
1.295
1.15598
1.07222
1.04896
1.00561
0.913121
0.874986
0.885516
0.929825
1.02293
1.20129
1.40478
1.59831
1.78345
1.86777
1.88657
1.88399
1.86619
1.83107
1.79297
1.75782
1.71964
1.70213
1.6679
1.61774
1.59586
1.59456
1.60545
1.60727
1.59385
1.61647
1.6575
1.67853
1.69733
1.69776
1.69101
1.68856
1.69206
1.69957
1.69295
1.67487
1.66758
1.65944
1.64239
1.60865
1.54639
1.41848
1.22186
1.07828
1.04055
1.03826
1.03951
1.04192
1.0475
1.0616
1.07926
1.08499
1.08557
1.08593
1.08618
1.08621
1.08553
1.08252
1.07372
1.04951
1.0149
1.0009
1
1
1
1
1
1
1
1
1
1
1
1
1
3.5067
3.48173
3.44883
3.39621
3.26812
3.07451
2.77648
2.48493
2.28951
2.02796
1.74156
1.64935
1.55477
1.3556
1.2104
1.17554
1.12239
1.02086
0.961235
0.930915
0.877525
0.803331
0.787635
0.787741
0.781975
0.77056
0.788973
0.842414
0.946601
1.12609
1.34305
1.51592
1.67083
1.76332
1.80537
1.81581
1.79665
1.76432
1.74785
1.74315
1.72088
1.7057
1.71159
1.72486
1.71828
1.71408
1.75177
1.78002
1.77869
1.77748
1.76333
1.74583
1.73604
1.73289
1.72413
1.70111
1.67374
1.64553
1.60878
1.55026
1.45336
1.30505
1.14716
1.06656
1.04626
1.04039
1.03872
1.03915
1.04025
1.04274
1.05123
1.06821
1.07948
1.08123
1.0819
1.08269
1.08336
1.08368
1.08304
1.07723
1.05855
1.02488
1.00291
1.00004
1
1
1
1
1
1
1
1
1
1
1
1
3.52468
3.49745
3.4456
3.30675
3.0776
2.80198
2.44831
2.17277
1.96099
1.70521
1.52602
1.42414
1.30072
1.08751
1.02816
1.02934
0.995504
0.902422
0.87086
0.853227
0.813924
0.783217
0.77875
0.780771
0.772788
0.758364
0.747421
0.744774
0.749871
0.772479
0.847464
0.97
1.14062
1.32921
1.4878
1.60738
1.67628
1.70316
1.72019
1.74124
1.73415
1.72574
1.73514
1.74774
1.73439
1.73394
1.77243
1.79137
1.78779
1.77642
1.755
1.73108
1.71616
1.70328
1.67776
1.63431
1.56967
1.48063
1.37723
1.26903
1.16631
1.0963
1.07188
1.06487
1.05662
1.04557
1.03873
1.03685
1.03738
1.0395
1.04612
1.06231
1.07726
1.0802
1.08073
1.08117
1.08139
1.08127
1.07993
1.07563
1.06283
1.03437
1.0067
1.0002
1
1
1
1
1
1
1
1
1
1
1
1
3.54152
3.49459
3.36091
3.09297
2.79676
2.45055
2.03896
1.81859
1.65356
1.43136
1.26789
1.17881
1.05494
0.920332
0.899176
0.886622
0.844599
0.790498
0.785249
0.785191
0.771545
0.763809
0.768038
0.783605
0.785291
0.774501
0.766108
0.765261
0.768101
0.778575
0.789178
0.801681
0.826222
0.877204
0.95935
1.06451
1.18455
1.3076
1.41233
1.49851
1.56589
1.60922
1.64422
1.65619
1.64669
1.6561
1.69224
1.7066
1.70057
1.67572
1.63988
1.60014
1.5563
1.50562
1.44466
1.36741
1.27542
1.18343
1.11788
1.08558
1.07428
1.07245
1.06823
1.0656
1.06088
1.0497
1.03891
1.03648
1.03714
1.03888
1.04325
1.05562
1.07201
1.07729
1.07783
1.07816
1.07837
1.07846
1.0779
1.07479
1.06541
1.04174
1.01145
1.0006
1
1
1
1
1
1
1
1
1
1
1
1
3.53928
3.41381
3.12173
2.73745
2.40601
1.97532
1.63183
1.50047
1.3483
1.11693
1.05402
1.01441
0.908149
0.830682
0.834436
0.832026
0.807949
0.78282
0.779419
0.779349
0.77058
0.766705
0.770517
0.780521
0.784125
0.783287
0.78245
0.786796
0.79458
0.800504
0.802147
0.800875
0.798101
0.79815
0.802256
0.812435
0.836672
0.88203
0.944289
1.01435
1.08957
1.16609
1.22311
1.24889
1.27415
1.31812
1.36093
1.36989
1.36274
1.3353
1.29152
1.24734
1.2084
1.17003
1.13129
1.09725
1.07496
1.06223
1.05505
1.05647
1.06792
1.07371
1.069
1.06574
1.0617
1.05343
1.04285
1.03783
1.03774
1.03892
1.0416
1.04981
1.06548
1.07456
1.07573
1.07616
1.07655
1.07684
1.07691
1.07542
1.06779
1.04687
1.01594
1.00125
1.00001
1
1
1
1
1
1
1
1
1
1
1
3.48206
3.16289
2.67702
2.26346
1.88687
1.48259
1.28795
1.17048
1.01125
0.88115
0.854381
0.809576
0.763244
0.762708
0.776934
0.794663
0.793095
0.786173
0.794273
0.808809
0.814602
0.814375
0.813083
0.810643
0.803918
0.799737
0.798856
0.801905
0.808608
0.811885
0.810565
0.806466
0.799506
0.79584
0.79564
0.794831
0.791771
0.786607
0.788239
0.794443
0.807383
0.83002
0.85811
0.88819
0.925166
0.96914
1.00681
1.02972
1.0366
1.03388
1.02952
1.02951
1.03816
1.04486
1.04697
1.04784
1.04897
1.05029
1.0519
1.05585
1.06762
1.07563
1.06938
1.06546
1.06271
1.05692
1.04678
1.03942
1.03808
1.03854
1.03987
1.04568
1.06094
1.07287
1.07468
1.07511
1.07551
1.07579
1.07582
1.07421
1.06759
1.04992
1.02007
1.00213
1.00002
1
1
1
1
1
1
1
1
1
1
1
3.21625
2.58985
2.06813
1.68437
1.3002
1.10641
1.05491
0.965365
0.852796
0.819691
0.800777
0.7664
0.757449
0.76909
0.795012
0.797455
0.795326
0.801443
0.819738
0.839539
0.849751
0.847403
0.839848
0.827831
0.81565
0.812048
0.810913
0.813231
0.818335
0.816272
0.810257
0.801968
0.795907
0.79473
0.794987
0.793935
0.788327
0.780868
0.779784
0.780542
0.783963
0.794437
0.814406
0.844883
0.884273
0.9222
0.94694
0.960739
0.968513
0.975144
0.985944
1.00399
1.02347
1.03462
1.03876
1.04096
1.0426
1.04466
1.0478
1.05315
1.06654
1.07677
1.06922
1.06492
1.0632
1.05814
1.04761
1.03902
1.03739
1.03791
1.03935
1.0449
1.05916
1.0721
1.07444
1.07475
1.07506
1.07529
1.07535
1.07437
1.0692
1.05313
1.0231
1.00282
1.00004
1
1
1
1
1
1
1
1
1
1
1
2.55363
1.62956
1.08012
0.752123
0.57452
0.574812
0.630512
0.633542
0.631792
0.66884
0.731036
0.779495
0.808645
0.85741
0.886174
0.882664
0.859634
0.847482
0.8543
0.873459
0.886842
0.882625
0.870102
0.85128
0.829494
0.822468
0.820747
0.822226
0.825152
0.821065
0.812762
0.802361
0.797861
0.797387
0.796982
0.794022
0.78683
0.779574
0.778622
0.779089
0.782309
0.791924
0.81248
0.846878
0.888714
0.920681
0.940446
0.954767
0.96549
0.975199
0.989572
1.01289
1.03135
1.03643
1.03693
1.03627
1.03801
1.04368
1.0502
1.0572
1.07289
1.08158
1.07111
1.06631
1.06433
1.059
1.04803
1.03967
1.03849
1.03905
1.04023
1.04451
1.05747
1.07067
1.0735
1.074
1.07452
1.07498
1.07517
1.0742
1.06858
1.05205
1.0227
1.0029
1.00005
1
1
1
1
1
1
1
1
1
1
1
)
;

boundaryField
{
    inlet
    {
        type            fixedValue;
        value           uniform 1;
    }
    outlet
    {
        type            zeroGradient;
    }
    bottom
    {
        type            symmetryPlane;
    }
    top
    {
        type            symmetryPlane;
    }
    obstacle
    {
        type            zeroGradient;
    }
    defaultFaces
    {
        type            empty;
    }
}


// ************************************************************************* //
