/*--------------------------------*- C++ -*----------------------------------*\
  =========                 |
  \\      /  F ield         | OpenFOAM: The Open Source CFD Toolbox
   \\    /   O peration     | Website:  https://openfoam.org
    \\  /    A nd           | Version:  7
     \\/     M anipulation  |
\*---------------------------------------------------------------------------*/
FoamFile
{
    version     2.0;
    format      ascii;
    class       volScalarField;
    location    "0.4";
    object      rho;
}
// * * * * * * * * * * * * * * * * * * * * * * * * * * * * * * * * * * * * * //

dimensions      [1 -3 0 0 0 0 0];

internalField   nonuniform List<scalar> 
4608
(
1.40001
1.40001
1.40001
1.40001
1.40001
1.40001
1.40001
1.40001
1.40001
1.40001
1.40001
1.40001
1.40001
1.40001
1.40001
1.40001
1.40001
1.40001
1.40001
1.40001
1.40001
1.40001
1.40001
1.40001
1.40001
1.40001
1.40001
1.40001
1.40001
1.40001
1.40001
1.40001
1.40001
1.40001
1.40001
1.40001
1.40001
1.40001
1.40001
1.40001
1.40001
1.40001
1.40001
1.40001
1.40001
1.40001
1.40001
1.40001
1.40001
1.40001
1.40001
1.40001
1.40001
1.40001
1.40001
1.40001
1.40001
1.40001
1.40001
1.40001
1.40001
1.40001
1.40001
1.40001
1.40001
1.40001
1.40001
1.40001
1.40001
1.40001
1.40001
1.40001
1.40001
1.40001
1.40001
1.40001
1.40001
1.40001
1.40001
1.40001
1.40001
1.40001
1.40001
1.40001
1.40001
1.40001
1.40001
1.40001
1.40001
1.40001
1.40001
1.40001
1.40001
1.40001
1.40001
1.40001
1.40001
1.40001
1.40001
1.40001
1.40001
1.40001
1.40001
1.40001
1.40001
1.40001
1.40001
1.40001
1.40001
1.40001
1.40001
1.40001
1.40001
1.40001
1.40001
1.40001
1.40001
1.40001
1.40001
1.40001
1.40001
1.40001
1.40001
1.40001
1.40001
1.40001
1.40001
1.40001
1.40001
1.40001
1.40001
1.40001
1.40001
1.40001
1.40001
1.40001
1.40001
1.40001
1.40001
1.40001
1.40001
1.40001
1.40001
1.40001
1.40001
1.40001
1.40001
1.40001
1.40001
1.40001
1.40001
1.40001
1.40001
1.40001
1.40001
1.40001
1.40001
1.40001
1.40001
1.40001
1.40001
1.40001
1.40001
1.40001
1.40001
1.40001
1.40001
1.40001
1.40001
1.40001
1.40001
1.40001
1.40001
1.40001
1.40001
1.40001
1.40001
1.40001
1.40001
1.40001
1.40001
1.40001
1.40001
1.40001
1.40001
1.40001
1.40001
1.40001
1.40001
1.40001
1.40001
1.40001
1.40001
1.40001
1.40001
1.40001
1.40001
1.40001
1.40001
1.40001
1.40001
1.40001
1.40001
1.40001
1.40001
1.40001
1.40001
1.40001
1.40001
1.40001
1.40001
1.40001
1.40001
1.40001
1.40001
1.40001
1.40001
1.40001
1.40001
1.40001
1.40001
1.40001
1.40001
1.40001
1.40001
1.40001
1.40001
1.40001
1.40001
1.40001
1.40001
1.40001
1.40001
1.40001
1.40001
1.40001
1.40001
1.40001
1.40001
1.40001
1.40001
1.40001
1.40001
1.40001
1.40001
1.40001
1.40001
1.40001
1.40001
1.40001
1.40001
1.40001
1.40001
1.40001
1.40001
1.40001
1.40001
1.40001
1.40001
1.40001
1.40001
1.40001
1.40001
1.40001
1.40001
1.40001
1.40001
1.40001
1.40001
1.40001
1.40001
1.40001
1.40001
1.40001
1.40001
1.40001
1.40001
1.40001
1.40001
1.40001
1.40001
1.40001
1.40001
1.40001
1.40001
1.40001
1.40001
1.40001
1.40001
1.40001
1.40001
1.40001
1.40001
1.40001
1.40001
1.40001
1.40001
1.40001
1.40001
1.40001
1.40001
1.40001
1.40001
1.40001
1.40001
1.40001
1.40001
1.40001
1.40001
1.40001
1.40001
1.40001
1.40001
1.40001
1.40001
1.40001
1.40001
1.40001
1.40001
1.40001
1.40001
1.40001
1.40001
1.40001
1.40001
1.40001
1.40001
1.40001
1.40001
1.40001
1.40001
1.40001
1.40001
1.40001
1.40001
1.40001
1.40001
1.40001
1.40001
1.40001
1.40001
1.40001
1.40001
1.40001
1.40001
1.40001
1.40001
1.40001
1.40001
1.40001
1.40001
1.40001
1.40001
1.40001
1.40001
1.40001
1.40001
1.40001
1.40001
1.40001
1.40001
1.40001
1.40001
1.40001
1.40001
1.40001
1.40001
1.40001
1.40001
1.40001
1.40001
1.40001
1.40001
1.40001
1.40001
1.40001
1.40001
1.40001
1.40001
1.40001
1.40001
1.40001
1.40001
1.40001
1.40001
1.40001
1.40001
1.40001
1.40001
1.40001
1.40001
1.40001
1.40001
1.40001
1.40001
1.40001
1.40001
1.40001
1.40001
1.40001
1.40001
1.40001
1.40001
1.40001
1.40001
1.40001
1.40001
1.40001
1.40001
1.40001
1.40001
1.40001
1.40001
1.40001
1.40001
1.40001
1.40001
1.40001
1.40001
1.40001
1.40001
1.40001
1.40001
1.40001
1.40001
1.40001
1.40001
1.40001
1.40001
1.40001
1.40001
1.40001
1.40001
1.40001
1.40001
1.40001
1.40001
1.40001
1.40001
1.40001
1.40001
1.40001
1.40001
1.40001
1.40001
1.40001
1.40001
1.40001
1.40001
1.40001
1.40001
1.40001
1.40001
1.40001
1.40001
1.40001
1.40001
1.40001
1.40001
1.40001
1.40001
1.40001
1.40001
1.40001
1.40001
1.40001
1.40001
1.40001
1.40001
1.40001
1.40001
1.40001
1.40001
1.40001
1.40001
1.40001
1.40001
1.40001
1.40001
1.40001
1.40001
1.40001
1.40001
1.40001
1.40001
1.40001
1.40001
1.40001
1.40001
1.40001
1.40001
1.40001
1.40001
1.40001
1.40001
1.40001
1.40001
1.40001
1.40001
1.40001
1.40001
1.40001
1.40001
1.40001
1.40001
1.40001
1.40001
1.40001
1.40001
1.40001
1.40001
1.40001
1.40001
1.40001
1.40001
1.40001
1.40001
1.40001
1.40001
1.40001
1.40001
1.40001
1.40001
1.40001
1.40001
1.40001
1.40001
1.40001
1.40001
1.40001
1.40001
1.40001
1.40001
1.40001
1.40001
1.40001
1.40001
1.40001
1.40001
1.40001
1.40001
1.40001
1.40001
1.40001
1.40001
1.40001
1.40001
1.40001
1.40001
1.40001
1.40001
1.40001
1.40001
1.40001
1.40001
1.40001
1.40001
1.40001
1.40001
1.40001
1.40001
1.40001
1.40001
1.40001
1.40001
1.40001
1.40001
1.40001
1.40001
1.40001
1.40001
1.40001
1.40001
1.40001
1.40001
1.40001
1.40001
1.40001
1.40001
1.40001
1.40001
1.40001
1.40001
1.40001
1.40001
1.40001
1.40001
1.40001
1.40001
1.40001
1.40001
1.40001
1.40001
1.40001
1.40001
1.40001
1.40001
1.40001
1.40001
1.40001
1.40001
1.40001
1.40001
1.40001
1.40001
1.40001
1.40001
1.40001
1.40001
1.40001
1.40001
1.40001
1.40001
1.40001
1.40001
1.40001
1.40001
1.40001
1.40001
1.40001
1.40001
1.40001
1.40001
1.40001
1.40001
1.40001
1.40001
1.40001
1.40001
1.40001
1.40001
1.40001
1.40001
1.40001
1.40001
1.40001
1.40001
1.40001
1.40001
1.40001
1.40001
1.40001
1.40001
1.40001
1.40001
1.40001
1.40001
1.40001
1.40001
1.40001
1.40001
1.40001
1.40001
1.40001
1.40001
1.40001
1.40001
1.40001
1.40001
1.40001
1.40001
1.40001
1.40001
1.40001
1.40001
1.40001
1.40001
1.40001
1.40001
1.40001
1.40001
1.40001
1.40001
1.40001
1.40001
1.40001
1.40001
1.40001
1.40001
1.40001
1.40001
1.40001
1.40001
1.40001
1.40001
1.40001
1.40001
1.40001
1.40001
1.40001
1.40001
1.40001
1.40001
1.40001
1.40001
1.40001
1.40001
1.40001
1.40001
1.40001
1.40001
1.40001
1.40001
1.40001
1.40001
1.40001
1.40001
1.40001
1.40001
1.40001
1.40001
1.40001
1.40001
1.40001
1.40001
1.40001
1.40001
1.40001
1.40001
1.40001
1.40001
1.40001
1.40001
1.40001
1.40001
1.40001
1.40001
1.40001
1.40001
1.40001
1.40001
1.40001
1.40001
1.40001
1.40001
1.40001
1.40001
1.40001
1.40001
1.40001
1.40001
1.40001
1.40001
1.40001
1.40001
1.40001
1.40001
1.40001
1.40001
1.40001
1.40001
1.40001
1.40001
1.40001
1.40001
1.40001
1.40001
1.40001
1.40001
1.40001
1.40001
1.40001
1.40001
1.40001
1.40001
1.40001
1.40001
1.40001
1.67721
2.08418
2.54162
2.99077
3.41798
3.84654
4.11598
4.41897
4.4278
4.29437
4.02634
3.7214
3.4622
3.36068
3.29901
3.30092
3.32083
3.35413
3.39192
3.40162
3.39423
3.38176
3.37137
3.35016
1.40279
1.41799
1.47236
1.59305
1.79599
2.11193
2.50517
2.98641
3.37502
3.52201
3.65853
3.6293
3.56009
3.4747
3.44429
3.39663
3.37471
3.3749
3.38161
3.38501
3.38049
3.36897
3.35186
3.32543
1.40001
1.39998
1.40003
1.40028
1.40324
1.42143
1.49828
1.70511
2.20452
2.86598
3.4559
3.70682
3.76875
3.71193
3.62398
3.47413
3.36376
3.35925
3.3569
3.35255
3.35063
3.34283
3.32526
3.29951
1.40001
1.4
1.4
1.4
1.39999
1.40004
1.4
1.40136
1.4328
1.63151
2.19194
2.92016
3.43931
3.58806
3.54012
3.51
3.44883
3.39614
3.36305
3.32007
3.30437
3.29586
3.28267
3.26199
1.40001
1.40001
1.4
1.4
1.4
1.4
1.4
1.4
1.39991
1.40117
1.43387
1.70186
2.27423
3.07786
3.35933
3.50826
3.5165
3.473
3.37294
3.30032
3.27706
3.2449
3.23174
3.21636
1.40001
1.40001
1.40001
1.40001
1.40001
1.4
1.4
1.4
1.39999
1.39999
1.39992
1.40335
1.45786
1.8056
2.51075
3.16587
3.4433
3.42505
3.39102
3.34746
3.30473
3.25267
3.20136
3.18066
1.40001
1.40001
1.40001
1.40001
1.40001
1.40001
1.40001
1.40001
1.4
1.4
1.4
1.39998
1.40001
1.4086
1.55295
2.00007
2.79691
3.21798
3.41344
3.40787
3.36139
3.27912
3.20622
3.17278
1.40001
1.40001
1.40001
1.40001
1.40001
1.40001
1.40001
1.40001
1.40001
1.40001
1.4
1.4
1.4
1.39998
1.40132
1.42851
1.6887
2.35467
3.04939
3.32355
3.31255
3.2737
3.22935
3.19179
1.40001
1.40001
1.40001
1.40001
1.40001
1.40001
1.40001
1.40001
1.40001
1.40001
1.40001
1.40001
1.4
1.4
1.4
1.40001
1.406
1.52906
1.98743
2.74894
3.16927
3.29802
3.27682
3.22453
1.40001
1.40001
1.40001
1.40001
1.40001
1.40001
1.40001
1.40001
1.40001
1.40001
1.40001
1.40001
1.40001
1.4
1.4
1.4
1.39999
1.40182
1.43635
1.75217
2.4209
3.06665
3.20912
3.1936
1.40001
1.40001
1.40001
1.40001
1.40001
1.40001
1.40001
1.40001
1.40001
1.40001
1.40001
1.40001
1.40001
1.40001
1.40001
1.4
1.4
1.39999
1.40015
1.41536
1.58514
2.14001
2.76486
3.15121
1.40001
1.40001
1.40001
1.40001
1.40001
1.40001
1.40001
1.40001
1.40001
1.40001
1.40001
1.40001
1.40001
1.40001
1.40001
1.40001
1.4
1.4
1.4
1.40003
1.40504
1.47945
1.88717
2.53195
1.40001
1.40001
1.40001
1.40001
1.40001
1.40001
1.40001
1.40001
1.40001
1.40001
1.40001
1.40001
1.40001
1.40001
1.40001
1.40001
1.40001
1.4
1.4
1.4
1.4
1.40114
1.44102
1.66448
1.40001
1.40001
1.40001
1.40001
1.40001
1.40001
1.40001
1.40001
1.40001
1.40001
1.40001
1.40001
1.40001
1.40001
1.40001
1.40001
1.40001
1.40001
1.40001
1.4
1.4
1.4
1.40043
1.40829
1.40001
1.40001
1.40001
1.40001
1.40001
1.40001
1.40001
1.40001
1.40001
1.40001
1.40001
1.40001
1.40001
1.40001
1.40001
1.40001
1.40001
1.40001
1.40001
1.40001
1.4
1.4
1.4
1.39996
1.40001
1.40001
1.40001
1.40001
1.40001
1.40001
1.40001
1.40001
1.40001
1.40001
1.40001
1.40001
1.40001
1.40001
1.40001
1.40001
1.40001
1.40001
1.40001
1.40001
1.40001
1.4
1.4
1.39998
1.40001
1.40001
1.40001
1.40001
1.40001
1.40001
1.40001
1.40001
1.40001
1.40001
1.40001
1.40001
1.40001
1.40001
1.40001
1.40001
1.40001
1.40001
1.40001
1.40001
1.40001
1.4
1.4
1.39998
1.40001
1.40001
1.40001
1.40001
1.40001
1.40001
1.40001
1.40001
1.40001
1.40001
1.40001
1.40001
1.40001
1.40001
1.40001
1.40001
1.40001
1.40001
1.40001
1.40001
1.4
1.4
1.4
1.39996
1.40001
1.40001
1.40001
1.40001
1.40001
1.40001
1.40001
1.40001
1.40001
1.40001
1.40001
1.40001
1.40001
1.40001
1.40001
1.40001
1.40001
1.40001
1.40001
1.4
1.4
1.4
1.40043
1.40829
1.40001
1.40001
1.40001
1.40001
1.40001
1.40001
1.40001
1.40001
1.40001
1.40001
1.40001
1.40001
1.40001
1.40001
1.40001
1.40001
1.40001
1.4
1.4
1.4
1.4
1.40114
1.44102
1.66448
1.40001
1.40001
1.40001
1.40001
1.40001
1.40001
1.40001
1.40001
1.40001
1.40001
1.40001
1.40001
1.40001
1.40001
1.40001
1.40001
1.4
1.4
1.4
1.40003
1.40504
1.47945
1.88717
2.53195
1.40001
1.40001
1.40001
1.40001
1.40001
1.40001
1.40001
1.40001
1.40001
1.40001
1.40001
1.40001
1.40001
1.40001
1.40001
1.4
1.4
1.39999
1.40015
1.41536
1.58514
2.14001
2.76486
3.15121
1.40001
1.40001
1.40001
1.40001
1.40001
1.40001
1.40001
1.40001
1.40001
1.40001
1.40001
1.40001
1.40001
1.4
1.4
1.4
1.39999
1.40182
1.43635
1.75217
2.4209
3.06665
3.20912
3.1936
1.40001
1.40001
1.40001
1.40001
1.40001
1.40001
1.40001
1.40001
1.40001
1.40001
1.40001
1.40001
1.4
1.4
1.4
1.40001
1.406
1.52906
1.98743
2.74894
3.16927
3.29802
3.27682
3.22453
1.40001
1.40001
1.40001
1.40001
1.40001
1.40001
1.40001
1.40001
1.40001
1.40001
1.4
1.4
1.4
1.39998
1.40132
1.42851
1.6887
2.35467
3.04939
3.32355
3.31255
3.2737
3.22935
3.19179
1.40001
1.40001
1.40001
1.40001
1.40001
1.40001
1.40001
1.40001
1.4
1.4
1.4
1.39998
1.40001
1.4086
1.55295
2.00007
2.79691
3.21798
3.41344
3.40787
3.36139
3.27912
3.20622
3.17278
1.40001
1.40001
1.40001
1.40001
1.40001
1.4
1.4
1.4
1.39999
1.39999
1.39992
1.40335
1.45786
1.8056
2.51075
3.16587
3.4433
3.42505
3.39102
3.34746
3.30473
3.25267
3.20136
3.18066
1.40001
1.40001
1.4
1.4
1.4
1.4
1.4
1.4
1.39991
1.40117
1.43387
1.70186
2.27423
3.07786
3.35933
3.50826
3.5165
3.473
3.37294
3.30032
3.27706
3.2449
3.23174
3.21636
1.40001
1.4
1.4
1.4
1.39999
1.40004
1.4
1.40136
1.4328
1.63151
2.19194
2.92016
3.43931
3.58806
3.54012
3.51
3.44883
3.39614
3.36305
3.32007
3.30437
3.29586
3.28267
3.26199
1.40001
1.39998
1.40003
1.40028
1.40324
1.42143
1.49828
1.70511
2.20452
2.86598
3.4559
3.70682
3.76875
3.71193
3.62398
3.47413
3.36376
3.35925
3.3569
3.35255
3.35063
3.34283
3.32526
3.29951
1.40279
1.41799
1.47236
1.59305
1.79599
2.11193
2.50517
2.98641
3.37502
3.52201
3.65853
3.6293
3.56009
3.4747
3.44429
3.39663
3.37471
3.3749
3.38161
3.38501
3.38049
3.36897
3.35186
3.32543
1.67721
2.08418
2.54162
2.99077
3.41798
3.84654
4.11598
4.41897
4.4278
4.29437
4.02634
3.7214
3.4622
3.36068
3.29901
3.30092
3.32083
3.35413
3.39192
3.40162
3.39423
3.38176
3.37137
3.35016
2.58743
1.87536
1.38729
1.06093
0.867087
0.859361
0.898203
0.899032
0.900262
0.942195
1.00813
1.05695
1.08481
1.13181
1.16402
1.16197
1.14136
1.12892
1.13501
1.15394
1.16864
1.16588
1.15692
1.14203
1.12321
1.11778
1.11676
1.11875
1.12247
1.11964
1.11294
1.10218
1.09647
1.09538
1.09468
1.0917
1.08546
1.07891
1.07766
1.07796
1.08055
1.0887
1.10695
1.1386
1.17808
1.20998
1.23176
1.24868
1.26173
1.2731
1.28834
1.31156
1.33034
1.33633
1.33766
1.33894
1.34354
1.35359
1.36789
1.39028
1.43118
1.4659
1.47074
1.47131
1.47068
1.46491
1.45174
1.44158
1.43982
1.43955
1.43957
1.4429
1.456
1.46977
1.47271
1.47322
1.47374
1.4742
1.47439
1.47345
1.46794
1.45165
1.42254
1.40288
1.40005
1.40001
1.40001
1.40001
1.40001
1.40001
1.40001
1.40001
1.40001
1.40001
1.40001
1.40001
3.05082
2.61114
2.22233
1.9196
1.60668
1.43055
1.36878
1.27823
1.17306
1.1364
1.11358
1.07167
1.05819
1.06885
1.09559
1.09838
1.09586
1.10104
1.11725
1.1368
1.14794
1.14637
1.14086
1.13124
1.12079
1.11808
1.11732
1.11998
1.12553
1.12396
1.11864
1.10994
1.10254
1.10026
1.09949
1.09835
1.09331
1.08591
1.08424
1.08459
1.08716
1.0961
1.11389
1.14205
1.17948
1.2164
1.24217
1.25826
1.26791
1.27554
1.28633
1.30365
1.3229
1.33495
1.34032
1.3443
1.34918
1.35645
1.36873
1.39064
1.42896
1.46348
1.46956
1.47011
1.46958
1.464
1.45129
1.44089
1.43865
1.43844
1.43866
1.44327
1.45775
1.47121
1.47364
1.47396
1.47427
1.4745
1.47457
1.47362
1.46854
1.45269
1.42292
1.4028
1.40004
1.40001
1.40001
1.40001
1.40001
1.40001
1.40001
1.40001
1.40001
1.40001
1.40001
1.40001
3.22184
3.01055
2.67316
2.37168
2.0868
1.75822
1.58656
1.48254
1.33765
1.21112
1.18242
1.13454
1.0847
1.0838
1.09835
1.1157
1.11318
1.10506
1.11243
1.12712
1.13433
1.13496
1.13533
1.13457
1.12882
1.12479
1.12392
1.12692
1.13258
1.13479
1.13319
1.12855
1.12043
1.11514
1.11297
1.11077
1.10701
1.10054
1.10158
1.10682
1.11839
1.13887
1.16431
1.19196
1.22661
1.26832
1.30541
1.32971
1.33762
1.33436
1.32874
1.3275
1.33636
1.34527
1.34925
1.35282
1.35854
1.36776
1.38181
1.40428
1.43933
1.46694
1.47097
1.47112
1.46936
1.46258
1.45024
1.44126
1.4393
1.43897
1.43911
1.44402
1.45959
1.472
1.47388
1.47431
1.47471
1.47499
1.47502
1.47346
1.46697
1.44953
1.41992
1.40211
1.40003
1.40001
1.40001
1.40001
1.40001
1.40001
1.40001
1.40001
1.40001
1.40001
1.40001
1.40001
3.23482
3.15976
2.9709
2.70839
2.47293
2.15098
1.87641
1.76945
1.64253
1.43768
1.37735
1.34069
1.23881
1.16067
1.16343
1.16082
1.13574
1.10858
1.10516
1.10547
1.09739
1.09586
1.10084
1.11318
1.11792
1.11771
1.11714
1.12169
1.12888
1.13319
1.13373
1.13175
1.12767
1.12656
1.1286
1.13568
1.15634
1.19698
1.25262
1.31442
1.38011
1.44632
1.49678
1.52079
1.54432
1.58459
1.62474
1.63327
1.62671
1.60048
1.55779
1.51689
1.4846
1.45457
1.42444
1.39957
1.38782
1.38754
1.39673
1.41865
1.45027
1.4698
1.47204
1.472
1.46861
1.45875
1.4459
1.43967
1.43905
1.43906
1.44039
1.44806
1.46428
1.47372
1.4749
1.47533
1.47573
1.47602
1.4761
1.47465
1.46717
1.4465
1.41581
1.40125
1.40001
1.40001
1.40001
1.40001
1.40001
1.40001
1.40001
1.40001
1.40001
1.40001
1.40001
1.40001
3.21067
3.18734
3.10854
2.93722
2.73888
2.49694
2.19163
2.02133
1.8924
1.70828
1.56339
1.48417
1.37412
1.2497
1.22619
1.21197
1.16838
1.11435
1.11093
1.11141
1.09738
1.09123
1.09653
1.11514
1.11816
1.10896
1.10007
1.09895
1.10165
1.11177
1.12206
1.1331
1.15483
1.19959
1.27011
1.35832
1.45734
1.55908
1.64674
1.7194
1.77477
1.81037
1.84184
1.85478
1.84954
1.85939
1.89129
1.9003
1.89463
1.87243
1.83934
1.8044
1.77028
1.73451
1.6926
1.63846
1.57296
1.50839
1.4689
1.45866
1.46308
1.47193
1.47288
1.4724
1.46768
1.45445
1.44161
1.43838
1.43821
1.43838
1.44149
1.45387
1.47095
1.47642
1.47697
1.4773
1.47752
1.47761
1.47708
1.47404
1.46482
1.44141
1.41135
1.4006
1.40001
1.40001
1.40001
1.40001
1.40001
1.40001
1.40001
1.40001
1.40001
1.40001
1.40001
1.40001
3.17848
3.16779
3.14066
3.05763
2.91184
2.72972
2.48389
2.28238
2.12416
1.92651
1.77786
1.69105
1.58705
1.40181
1.34533
1.34468
1.31117
1.22156
1.19375
1.178
1.13831
1.10774
1.10575
1.10965
1.10438
1.09247
1.07954
1.07541
1.07986
1.1005
1.16945
1.2788
1.42418
1.57833
1.70409
1.79485
1.8448
1.86441
1.879
1.89908
1.89606
1.89342
1.90306
1.91513
1.90559
1.9066
1.93906
1.95062
1.94688
1.9367
1.91949
1.90223
1.89603
1.89627
1.8916
1.87553
1.84256
1.78783
1.71809
1.63852
1.5566
1.49815
1.47798
1.47167
1.46257
1.44952
1.44099
1.43829
1.43783
1.4384
1.44407
1.4607
1.47624
1.47926
1.4798
1.48024
1.48047
1.48036
1.47907
1.47487
1.46227
1.4341
1.40665
1.4002
1.40001
1.4
1.4
1.40001
1.40001
1.40001
1.40001
1.40001
1.40001
1.40001
1.40001
1.40001
3.15643
3.1446
3.12794
3.09892
3.02069
2.89753
2.69956
2.49676
2.35797
2.16598
1.9439
1.87012
1.79565
1.63219
1.50592
1.47322
1.42502
1.33238
1.27705
1.24914
1.19753
1.12381
1.11189
1.11424
1.11148
1.09998
1.11573
1.1627
1.25494
1.41009
1.58894
1.72679
1.84556
1.91509
1.94538
1.94921
1.933
1.90632
1.89484
1.89377
1.87959
1.87145
1.87676
1.88832
1.88389
1.88152
1.91257
1.93298
1.93168
1.9317
1.92267
1.91357
1.9146
1.92591
1.94029
1.94828
1.95162
1.95011
1.93759
1.90304
1.82878
1.69849
1.55059
1.47216
1.45057
1.44321
1.44067
1.43993
1.43962
1.44094
1.4492
1.46686
1.47847
1.48025
1.48092
1.48171
1.48239
1.48272
1.48211
1.47643
1.45804
1.42468
1.40288
1.40004
1.40001
1.4
1.4
1.40001
1.40001
1.40001
1.40001
1.40001
1.40001
1.40001
1.40001
1.40001
3.15345
3.12223
3.11397
3.10063
3.07284
3.00366
2.87367
2.68284
2.54092
2.38827
2.17024
2.04526
1.96172
1.82778
1.70259
1.63935
1.57449
1.45379
1.37839
1.35786
1.3185
1.2309
1.1975
1.20811
1.25024
1.33025
1.47375
1.63661
1.7929
1.93769
1.99969
2.00967
2.00339
1.98867
1.96027
1.92901
1.89955
1.86846
1.85504
1.82882
1.79207
1.77878
1.77849
1.78793
1.79014
1.78121
1.79994
1.83299
1.8502
1.86993
1.87554
1.87829
1.88715
1.9057
1.93476
1.95741
1.96986
1.98545
1.9943
1.99232
1.97153
1.92007
1.80397
1.61814
1.47986
1.44264
1.43979
1.43973
1.44049
1.44531
1.4598
1.47801
1.48384
1.48446
1.48484
1.48511
1.48516
1.48452
1.48161
1.47299
1.44909
1.41477
1.40089
1.40001
1.4
1.4
1.4
1.40001
1.40001
1.40001
1.40001
1.40001
1.40001
1.40001
1.40001
1.40001
3.16791
3.13076
3.11374
3.10621
3.09101
3.05844
2.98734
2.85567
2.71071
2.57437
2.38357
2.22916
2.13291
2.00482
1.86639
1.79421
1.72752
1.61037
1.49459
1.46048
1.43746
1.4005
1.42459
1.52615
1.69432
1.92725
2.10362
2.18416
2.24499
2.22863
2.18421
2.10684
2.0308
1.97536
1.91888
1.86567
1.8109
1.77157
1.73963
1.68234
1.6456
1.6423
1.64593
1.64526
1.64552
1.63935
1.64169
1.6678
1.69516
1.72773
1.76849
1.78715
1.79541
1.81057
1.8475
1.911
1.97347
2.00229
2.01081
2.00946
1.99271
1.96076
1.91486
1.83583
1.7009
1.54349
1.45675
1.44093
1.44151
1.45023
1.47137
1.48652
1.48875
1.48933
1.48989
1.49019
1.49002
1.4884
1.48351
1.46857
1.43568
1.40609
1.40015
1.40001
1.4
1.4
1.4
1.40001
1.40001
1.40001
1.40001
1.40001
1.40001
1.40001
1.40001
1.40001
3.16181
3.13566
3.11366
3.09895
3.08785
3.07324
3.04355
2.97565
2.86253
2.73875
2.58453
2.42278
2.29839
2.16689
2.03826
1.93936
1.85991
1.76861
1.66673
1.65928
1.72855
1.91821
2.1812
2.34849
2.48578
2.59993
2.55893
2.50186
2.45152
2.37494
2.27577
2.16218
2.04632
1.95809
1.89698
1.83382
1.77033
1.72489
1.68307
1.63051
1.58696
1.57508
1.56993
1.55932
1.54902
1.54686
1.54472
1.55408
1.58273
1.6126
1.6579
1.70251
1.71703
1.7273
1.7469
1.78102
1.82775
1.87492
1.90999
1.93166
1.94027
1.93745
1.91286
1.87682
1.83423
1.75673
1.6262
1.50534
1.46714
1.46774
1.48206
1.49024
1.49096
1.49159
1.4925
1.4932
1.49356
1.49305
1.48493
1.45918
1.41953
1.40138
1.40001
1.4
1.4
1.4
1.4
1.40001
1.40001
1.40001
1.40001
1.40001
1.40001
1.40001
1.40001
1.40001
3.20425
3.18403
3.13784
3.10004
3.0863
3.07868
3.07
3.03929
2.96935
2.86795
2.73493
2.60527
2.48571
2.32416
2.18949
2.10619
2.04611
2.03818
2.14089
2.33319
2.59482
2.94355
3.06569
2.99827
2.93069
2.85191
2.72937
2.60405
2.48797
2.37554
2.2647
2.15271
2.05693
1.98166
1.91335
1.83858
1.77213
1.72055
1.67061
1.62035
1.58309
1.55222
1.52148
1.50197
1.48065
1.46112
1.45759
1.45714
1.47122
1.50652
1.54487
1.59878
1.63594
1.64957
1.66186
1.67956
1.70742
1.73582
1.75386
1.76797
1.78425
1.80312
1.82445
1.83887
1.83713
1.81465
1.77669
1.69844
1.58422
1.51291
1.49974
1.4986
1.49856
1.49878
1.49867
1.49828
1.49717
1.49246
1.47737
1.44058
1.40673
1.40015
1.40001
1.4
1.4
1.4
1.40001
1.40001
1.40001
1.40001
1.40001
1.40001
1.40001
1.40001
1.40001
1.40001
3.04873
3.09741
3.11019
3.11382
3.10402
3.09853
3.09697
3.07767
3.03783
2.97317
2.87195
2.74183
2.65156
2.53952
2.42435
2.48565
2.67797
3.01094
3.3321
3.46586
3.59944
3.60435
3.53528
3.34506
3.16778
3.05773
2.94127
2.76957
2.59405
2.46954
2.36989
2.26965
2.17437
2.0837
1.98639
1.89945
1.83014
1.77143
1.71712
1.66855
1.62017
1.56176
1.50928
1.47626
1.45335
1.4211
1.40895
1.40705
1.40879
1.43167
1.46835
1.5096
1.55795
1.58129
1.5918
1.60463
1.62847
1.64616
1.6507
1.65158
1.65235
1.65832
1.67297
1.70954
1.77343
1.80841
1.80933
1.80379
1.76417
1.66418
1.54791
1.5079
1.50498
1.50559
1.50601
1.50515
1.50261
1.49211
1.4617
1.41809
1.40101
1.40001
1.4
1.4
1.4
1.4
1.40001
1.40001
1.40001
1.40001
1.40001
1.40001
1.40001
1.40001
1.40001
1.40001
2.26923
2.81026
3.10273
3.11803
3.08535
3.0698
3.05684
3.05995
3.07427
3.05697
3.00424
2.93656
2.97266
3.11538
3.41117
3.72008
3.97237
4.20166
4.17887
4.04377
3.91329
3.76493
3.56189
3.37099
3.21986
3.06825
2.89802
2.72941
2.59695
2.48033
2.3675
2.2571
2.15649
2.06304
1.96795
1.87732
1.80308
1.73973
1.68231
1.63206
1.58473
1.53881
1.49676
1.46246
1.43657
1.41126
1.39018
1.38422
1.38279
1.38683
1.40178
1.42147
1.45496
1.49226
1.51184
1.52462
1.53738
1.5477
1.55531
1.55982
1.5607
1.56494
1.5751
1.60075
1.66191
1.75757
1.8105
1.8132
1.81297
1.79006
1.70248
1.57303
1.51469
1.50771
1.50788
1.50923
1.5047
1.48199
1.4346
1.40369
1.40004
1.4
1.4
1.4
1.4
1.40001
1.40001
1.40001
1.40001
1.40001
1.40001
1.40001
1.40001
1.40001
1.40001
1.40001
1.56866
2.00423
2.58632
2.88822
3.07435
3.11382
3.0865
3.07204
3.11075
3.22387
3.45571
3.82429
4.22282
4.66407
4.9242
4.97947
4.9494
4.86532
4.65496
4.34874
4.06373
3.80033
3.57703
3.40433
3.25259
3.08984
2.91728
2.76268
2.64054
2.52579
2.40675
2.29087
2.18707
2.09072
1.99464
1.9013
1.8217
1.75476
1.69528
1.64206
1.59135
1.54118
1.49564
1.45855
1.42838
1.40232
1.38209
1.37329
1.36919
1.36942
1.3749
1.38458
1.404
1.4363
1.45253
1.45592
1.44903
1.45192
1.46672
1.48283
1.49878
1.51685
1.5397
1.56999
1.60904
1.66608
1.74358
1.80863
1.82599
1.82375
1.79555
1.71977
1.61012
1.53788
1.51729
1.50778
1.49143
1.45039
1.40898
1.40021
1.40001
1.4
1.4
1.4
1.40001
1.40001
1.40001
1.40001
1.40001
1.40001
1.40001
1.40001
1.40001
1.40001
1.40001
1.40001
1.40739
1.47425
1.77862
2.24682
2.67037
2.94443
3.172
3.51491
3.94086
4.36841
4.81219
5.10659
5.32474
5.4491
5.40572
5.28274
5.12422
4.90088
4.66158
4.48827
4.28723
4.04565
3.78287
3.5816
3.40759
3.22582
3.05825
2.91714
2.78964
2.65824
2.52455
2.40274
2.29788
2.20111
2.10313
2.00599
1.91886
1.84469
1.77967
1.71968
1.66172
1.60472
1.55177
1.50599
1.46844
1.43965
1.42031
1.40922
1.39838
1.38636
1.38451
1.38559
1.39158
1.41131
1.42438
1.43262
1.43084
1.42264
1.43481
1.45611
1.47928
1.50561
1.53557
1.57186
1.61497
1.65184
1.68107
1.71345
1.74986
1.77304
1.77545
1.76585
1.7322
1.64866
1.55204
1.49386
1.44802
1.41066
1.40042
1.40001
1.4
1.4
1.4
1.40001
1.40001
1.40001
1.40001
1.40001
1.40001
1.40001
1.40001
1.40001
1.40001
1.40001
1.40001
1.40001
1.40005
1.4021
1.43021
1.59094
2.01855
2.75578
3.66373
4.41443
4.98479
5.4231
5.72448
5.80294
5.8767
5.83568
5.6741
5.39832
5.08496
4.81262
4.59544
4.38957
4.18747
3.9928
3.80174
3.58825
3.37021
3.16295
2.98196
2.83886
2.71539
2.58874
2.45588
2.33206
2.22873
2.13732
2.04474
1.95048
1.86445
1.79144
1.72742
1.66761
1.61047
1.55597
1.5051
1.45904
1.41944
1.38939
1.37254
1.36302
1.35051
1.33915
1.33868
1.34021
1.34938
1.3788
1.40327
1.41346
1.41664
1.41367
1.42644
1.44819
1.47146
1.49949
1.53557
1.57715
1.61007
1.62619
1.63779
1.65431
1.68273
1.73005
1.78411
1.80677
1.80194
1.74012
1.59007
1.45002
1.40515
1.40016
1.40001
1.4
1.4
1.4
1.4
1.40001
1.40001
1.40001
1.40001
1.40001
1.40001
1.40001
1.40001
1.40001
1.40001
1.40001
1.40001
1.40001
1.40005
1.4021
1.43021
1.59094
2.01855
2.75578
3.66373
4.41443
4.98479
5.4231
5.72448
5.80294
5.8767
5.83568
5.6741
5.39832
5.08496
4.81262
4.59544
4.38957
4.18747
3.9928
3.80174
3.58825
3.37021
3.16295
2.98196
2.83886
2.71539
2.58874
2.45588
2.33206
2.22873
2.13732
2.04474
1.95048
1.86445
1.79144
1.72742
1.66761
1.61047
1.55597
1.5051
1.45904
1.41944
1.38939
1.37254
1.36302
1.35051
1.33915
1.33868
1.34021
1.34938
1.3788
1.40327
1.41346
1.41664
1.41367
1.42644
1.44819
1.47147
1.49949
1.53558
1.57714
1.61009
1.62618
1.6378
1.65423
1.68249
1.72983
1.78753
1.81044
1.803
1.74026
1.58912
1.44892
1.40507
1.40016
1.40001
1.4
1.4
1.4
1.4
1.40001
1.40001
1.40001
1.40001
1.40001
1.40001
1.40001
1.40001
1.40001
1.40001
1.40001
1.40001
1.40001
1.40739
1.47425
1.77862
2.24682
2.67037
2.94443
3.172
3.51491
3.94086
4.36841
4.81219
5.10659
5.32474
5.4491
5.40572
5.28274
5.12422
4.90088
4.66158
4.48827
4.28723
4.04565
3.78287
3.5816
3.40759
3.22582
3.05825
2.91714
2.78964
2.65824
2.52455
2.40274
2.29788
2.20111
2.10313
2.00599
1.91886
1.84469
1.77967
1.71968
1.66172
1.60472
1.55177
1.50599
1.46844
1.43965
1.42031
1.40922
1.39838
1.38636
1.38451
1.38559
1.39158
1.41131
1.42438
1.43262
1.43084
1.42264
1.43481
1.45612
1.47928
1.5056
1.53559
1.57184
1.61498
1.65182
1.68113
1.71336
1.74992
1.77335
1.77525
1.7657
1.73257
1.64864
1.55172
1.49376
1.44799
1.41067
1.40042
1.40001
1.4
1.4
1.4
1.40001
1.40001
1.40001
1.40001
1.40001
1.40001
1.40001
1.40001
1.40001
1.40001
1.40001
1.40001
1.40001
1.56866
2.00423
2.58632
2.88822
3.07435
3.11382
3.0865
3.07204
3.11075
3.22387
3.45571
3.82429
4.22282
4.66407
4.9242
4.97947
4.9494
4.86532
4.65496
4.34874
4.06373
3.80033
3.57703
3.40433
3.25259
3.08984
2.91728
2.76268
2.64054
2.52579
2.40675
2.29087
2.18707
2.09072
1.99464
1.9013
1.8217
1.75476
1.69528
1.64206
1.59135
1.54118
1.49564
1.45855
1.42838
1.40232
1.38209
1.37329
1.36919
1.36942
1.3749
1.38458
1.404
1.4363
1.45253
1.45592
1.44903
1.45192
1.46672
1.48283
1.49878
1.51685
1.5397
1.56999
1.60905
1.66609
1.7436
1.80877
1.82607
1.82374
1.79529
1.71946
1.61004
1.53782
1.51726
1.50777
1.49143
1.4504
1.40898
1.40021
1.40001
1.4
1.4
1.4
1.40001
1.40001
1.40001
1.40001
1.40001
1.40001
1.40001
1.40001
1.40001
1.40001
1.40001
1.40001
2.26923
2.81026
3.10273
3.11803
3.08535
3.0698
3.05684
3.05995
3.07427
3.05697
3.00424
2.93656
2.97266
3.11538
3.41117
3.72008
3.97237
4.20166
4.17887
4.04377
3.91329
3.76493
3.56189
3.37099
3.21986
3.06825
2.89802
2.72941
2.59695
2.48033
2.3675
2.2571
2.15649
2.06304
1.96795
1.87732
1.80308
1.73973
1.68231
1.63206
1.58473
1.53881
1.49676
1.46246
1.43657
1.41126
1.39018
1.38422
1.38279
1.38683
1.40178
1.42147
1.45496
1.49226
1.51184
1.52462
1.53738
1.5477
1.55531
1.55982
1.5607
1.56494
1.5751
1.60076
1.66191
1.75756
1.8105
1.81319
1.81298
1.79002
1.70232
1.5729
1.51467
1.5077
1.50788
1.50923
1.5047
1.48199
1.4346
1.40369
1.40004
1.4
1.4
1.4
1.4
1.40001
1.40001
1.40001
1.40001
1.40001
1.40001
1.40001
1.40001
1.40001
1.40001
1.40001
3.04873
3.09741
3.11019
3.11382
3.10402
3.09853
3.09697
3.07767
3.03783
2.97317
2.87195
2.74183
2.65156
2.53952
2.42435
2.48565
2.67797
3.01094
3.3321
3.46586
3.59944
3.60435
3.53528
3.34506
3.16778
3.05773
2.94127
2.76957
2.59405
2.46954
2.36989
2.26965
2.17437
2.0837
1.98639
1.89945
1.83014
1.77143
1.71712
1.66855
1.62017
1.56176
1.50928
1.47626
1.45335
1.4211
1.40895
1.40705
1.40879
1.43167
1.46835
1.5096
1.55795
1.58129
1.5918
1.60463
1.62847
1.64616
1.6507
1.65158
1.65235
1.65832
1.67297
1.70954
1.77344
1.80842
1.80934
1.80379
1.76415
1.66414
1.54787
1.5079
1.50497
1.50559
1.50601
1.50515
1.50261
1.49211
1.46169
1.41809
1.40101
1.40001
1.4
1.4
1.4
1.4
1.40001
1.40001
1.40001
1.40001
1.40001
1.40001
1.40001
1.40001
1.40001
1.40001
3.20425
3.18403
3.13784
3.10004
3.0863
3.07868
3.07
3.03929
2.96935
2.86795
2.73493
2.60527
2.48571
2.32416
2.18949
2.10619
2.04611
2.03818
2.14089
2.33319
2.59482
2.94355
3.06569
2.99827
2.93069
2.85191
2.72937
2.60405
2.48797
2.37554
2.2647
2.15271
2.05693
1.98166
1.91335
1.83858
1.77213
1.72055
1.67061
1.62035
1.58309
1.55222
1.52148
1.50197
1.48065
1.46112
1.45759
1.45714
1.47122
1.50652
1.54487
1.59878
1.63594
1.64957
1.66186
1.67956
1.70742
1.73582
1.75386
1.76797
1.78425
1.80312
1.82445
1.83887
1.83713
1.81465
1.77669
1.69843
1.5842
1.5129
1.49974
1.4986
1.49856
1.49878
1.49867
1.49828
1.49717
1.49246
1.47737
1.44058
1.40673
1.40015
1.40001
1.4
1.4
1.4
1.40001
1.40001
1.40001
1.40001
1.40001
1.40001
1.40001
1.40001
1.40001
1.40001
3.16181
3.13566
3.11366
3.09895
3.08785
3.07324
3.04355
2.97565
2.86253
2.73875
2.58453
2.42278
2.29839
2.16689
2.03826
1.93936
1.85991
1.76861
1.66673
1.65928
1.72855
1.91821
2.1812
2.34849
2.48578
2.59993
2.55893
2.50186
2.45152
2.37494
2.27577
2.16218
2.04632
1.95809
1.89698
1.83382
1.77033
1.72489
1.68307
1.63051
1.58696
1.57508
1.56993
1.55932
1.54902
1.54686
1.54472
1.55408
1.58273
1.6126
1.6579
1.70251
1.71703
1.7273
1.7469
1.78101
1.82775
1.87492
1.90999
1.93166
1.94027
1.93745
1.91286
1.87682
1.83422
1.75673
1.62619
1.50534
1.46714
1.46774
1.48206
1.49024
1.49096
1.49159
1.4925
1.4932
1.49356
1.49305
1.48493
1.45918
1.41953
1.40138
1.40001
1.4
1.4
1.4
1.4
1.40001
1.40001
1.40001
1.40001
1.40001
1.40001
1.40001
1.40001
1.40001
3.16791
3.13076
3.11374
3.10621
3.09101
3.05844
2.98734
2.85567
2.71071
2.57437
2.38357
2.22916
2.13291
2.00482
1.86639
1.79421
1.72752
1.61037
1.49459
1.46048
1.43746
1.4005
1.42459