/*--------------------------------*- C++ -*----------------------------------*\
  =========                 |
  \\      /  F ield         | OpenFOAM: The Open Source CFD Toolbox
   \\    /   O peration     | Website:  https://openfoam.org
    \\  /    A nd           | Version:  7
     \\/     M anipulation  |
\*---------------------------------------------------------------------------*/
FoamFile
{
    version     2.0;
    format      ascii;
    class       volScalarField;
    location    "0.4";
    object      T;
}
// * * * * * * * * * * * * * * * * * * * * * * * * * * * * * * * * * * * * * //

dimensions      [0 0 0 1 0 0 0];

internalField   nonuniform List<scalar> 
4608
(
1
1
1
1
1
1
1
1
1
1
1
1
1
1
1
1
1
1
1
1
1
1
1
1
1
1
1
1
1
1
1
1
1
1
1
1
1
1
1
1
1
1
1
1
1
1
1
1
1
1
1
1
1
1
1
1
1
1
1
1
1
1
1
1
1
1
1
1
1
1
1
1
1
1
1
1
1
1
1
1
1
1
1
1
1
1
1
1
1
1
1
1
1
1
1
1
1
1
1
1
1
1
1
1
1
1
1
1
1
1
1
1
1
1
1
1
1
1
1
1
1
1
1
1
1
1
1
1
1
1
1
1
1
1
1
1
1
1
1
1
1
1
1
1
1
1
1
1
1
1
1
1
1
1
1
1
1
1
1
1
1
1
1
1
1
1
1
1
1
1
1
1
1
1
1
1
1
1
1
1
1
1
1
1
1
1
1
1
1
1
1
1
1
1
1
1
1
1
1
1
1
1
1
1
1
1
1
1
1
1
1
1
1
1
1
1
1
1
1
1
1
1
1
1
1
1
1
1
1
1
1
1
1
1
1
1
1
1
1
1
1
1
1
1
1
1
1
1
1
1
1
1
1
1
1
1
1
1
1
1
1
1
1
1
1
1
1
1
1
1
1
1
1
1
1
1
1
1
1
1
1
1
1
1
1
1
1
1
1
1
1
1
1
1
1
1
1
1
1
1
1
1
1
1
1
1
1
1
1
1
1
1
1
1
1
1
1
1
1
1
1
1
1
1
1
1
1
1
1
1
1
1
1
1
1
1
1
1
1
1
1
1
1
1
1
1
1
1
1
1
1
1
1
1
1
1
1
1
1
1
1
1
1
1
1
1
1
1
1
1
1
1
1
1
1
1
1
1
1
1
1
1
1
1
1
1
1
1
1
1
1
1
1
1
1
1
1
1
1
1
1
1
1
1
1
1
1
1
1
1
1
1
1
1
1
1
1
1
1
1
1
1
1
1
1
1
1
1
1
1
1
1
1
1
1
1
1
1
1
1
1
1
1
1
1
1
1
1
1
1
1
1
1
1
1
1
1
1
1
1
1
1
1
1
1
1
1
1
1
1
1
1
1
1
1
1
1
1
1
1
1
1
1
1
1
1
1
1
1
1
1
1
1
1
1
1
1
1
1
1
1
1
1
1
1
1
1
1
1
1
1
1
1
1
1
1
1
1
1
1
1
1
1
1
1
1
1
1
1
1
1
1
1
1
1
1
1
1
1
1
1
1
1
1
1
1
1
1
1
1
1
1
1
1
1
1
1
1
1
1
1
1
1
1
1
1
1
1
1
1
1
1
1
1
1
1
1
1
1
1
1
1
1
1
1
1
1
1
1
1
1
1
1
1
1
1
1
1
1
1
1
1
1
1
1
1
1
1
1
1
1
1
1
1
1
1
1
1
1
1
1
1
1
1
1
1
1
1
1
1
1
1
1
1
1
1
1
1
1
1
1
1
1
1
1
1
1
1
1
1
1
1
1
1
1
1
1
1
1
1
1
1
1
1
1
1
1
1
1
1
1
1
1
1
1
1
1
1
1
1
1
1
1
1
1
1
1
1
1
1
1
1
1
1
1
1
1
1
1
1
1
1
1
1
1
1
1
1
1
1
1
1
1
1
1
1
1
1
1
1
1
1
1
1
1
1
1
1
1
1
1
1
1
1
1
1
1
1
1
1
1
1
1
1
1
1
1
1
1
1
1
1
1
1
1
1
1
1
1
1
1
1
1
1
1
1
1
1
1.0784
1.18127
1.289
1.39067
1.48556
1.57535
1.63506
1.68144
1.69891
1.68221
1.63777
1.5863
1.54082
1.52232
1.51288
1.51395
1.51823
1.52461
1.53111
1.53239
1.5311
1.52954
1.52845
1.52557
1.00093
1.00651
1.02776
1.07411
1.1439
1.23205
1.32144
1.40923
1.48167
1.51625
1.55193
1.56562
1.56016
1.5493
1.545
1.53776
1.53415
1.53391
1.53456
1.53433
1.533
1.53103
1.52823
1.52493
1
0.99999
1.00001
1.0001
1.00123
1.00812
1.03787
1.11516
1.27358
1.44734
1.57344
1.62141
1.62046
1.60836
1.59312
1.56682
1.54856
1.54613
1.54417
1.54163
1.53991
1.53763
1.53362
1.53081
1
1
0.999999
0.999999
0.999995
1.00001
0.999992
1.00055
1.01389
1.10723
1.31072
1.49243
1.60473
1.61371
1.60257
1.59734
1.58656
1.57648
1.56824
1.55744
1.55097
1.54773
1.54342
1.541
1
1
1
1
1
1
0.999999
0.999999
0.999961
1.00046
1.0151
1.135
1.33872
1.54534
1.59753
1.62118
1.62053
1.61082
1.59056
1.57429
1.56597
1.55744
1.55282
1.55077
1
1
1
1
1
1
1
1
0.999996
0.999997
0.99996
1.0013
1.02508
1.17677
1.40689
1.56287
1.61365
1.60803
1.60108
1.59318
1.58422
1.57258
1.56104
1.55724
1
1
1
1
1
1
1
1
1
1
0.999996
0.999997
0.999986
1.00341
1.06714
1.2409
1.4677
1.56321
1.60767
1.60779
1.59996
1.58418
1.56869
1.56077
1
1
1
1
1
1
1
1
1
1
1
0.999999
0.999999
0.999987
1.00044
1.01125
1.12097
1.34046
1.52069
1.58764
1.5865
1.57941
1.57045
1.56246
1
1
1
1
1
1
1
1
1
1
1
1
1
0.999998
0.999998
0.999993
1.00222
1.05197
1.22208
1.44434
1.54333
1.57544
1.57191
1.5622
1
1
1
1
1
1
1
1
1
1
1
1
1
1
1
0.999999
0.999993
1.00059
1.01377
1.13839
1.34869
1.51285
1.54494
1.54771
1
1
1
1
1
1
1
1
1
1
1
1
1
1
1
1
0.999999
0.999997
1.00004
1.00549
1.07262
1.26128
1.4314
1.51647
1
1
1
1
1
1
1
1
1
1
1
1
1
1
1
1
1
0.999999
0.999999
1
1.0017
1.02975
1.18242
1.35939
1
1
1
1
1
1
1
1
1
1
1
1
1
1
1
1
1
1
1
1
0.999998
1.00035
1.015
1.09573
1
1
1
1
1
1
1
1
1
1
1
1
1
1
1
1
1
1
1
1
1
0.999998
1.00012
1.00275
1
1
1
1
1
1
1
1
1
1
1
1
1
1
1
1
1
1
1
1
1
1
1
0.999983
1
1
1
1
1
1
1
1
1
1
1
1
1
1
1
1
1
1
1
1
1
1
1
0.999994
1
1
1
1
1
1
1
1
1
1
1
1
1
1
1
1
1
1
1
1
1
1
1
0.999994
1
1
1
1
1
1
1
1
1
1
1
1
1
1
1
1
1
1
1
1
1
1
1
0.999983
1
1
1
1
1
1
1
1
1
1
1
1
1
1
1
1
1
1
1
1
1
0.999998
1.00012
1.00275
1
1
1
1
1
1
1
1
1
1
1
1
1
1
1
1
1
1
1
1
0.999998
1.00035
1.015
1.09573
1
1
1
1
1
1
1
1
1
1
1
1
1
1
1
1
1
0.999999
0.999999
1
1.0017
1.02975
1.18242
1.35939
1
1
1
1
1
1
1
1
1
1
1
1
1
1
1
1
0.999999
0.999997
1.00004
1.00549
1.07262
1.26128
1.4314
1.51647
1
1
1
1
1
1
1
1
1
1
1
1
1
1
1
0.999999
0.999993
1.00059
1.01377
1.13839
1.34869
1.51285
1.54494
1.54771
1
1
1
1
1
1
1
1
1
1
1
1
1
0.999998
0.999998
0.999993
1.00222
1.05197
1.22208
1.44434
1.54333
1.57544
1.57191
1.5622
1
1
1
1
1
1
1
1
1
1
1
0.999999
0.999999
0.999987
1.00044
1.01125
1.12097
1.34046
1.52069
1.58764
1.5865
1.57941
1.57045
1.56246
1
1
1
1
1
1
1
1
1
1
0.999996
0.999997
0.999986
1.00341
1.06714
1.2409
1.4677
1.56321
1.60767
1.60779
1.59996
1.58418
1.56869
1.56077
1
1
1
1
1
1
1
1
0.999996
0.999997
0.99996
1.0013
1.02508
1.17677
1.40689
1.56287
1.61365
1.60803
1.60108
1.59318
1.58422
1.57258
1.56104
1.55724
1
1
1
1
1
1
0.999999
0.999999
0.999961
1.00046
1.0151
1.135
1.33872
1.54534
1.59753
1.62118
1.62053
1.61082
1.59056
1.57429
1.56597
1.55744
1.55282
1.55077
1
1
0.999999
0.999999
0.999995
1.00001
0.999992
1.00055
1.01389
1.10723
1.31072
1.49243
1.60473
1.61371
1.60257
1.59734
1.58656
1.57648
1.56824
1.55744
1.55097
1.54773
1.54342
1.541
1
0.99999
1.00001
1.0001
1.00123
1.00812
1.03787
1.11516
1.27358
1.44734
1.57344
1.62141
1.62046
1.60836
1.59312
1.56682
1.54856
1.54613
1.54417
1.54163
1.53991
1.53763
1.53362
1.53081
1.00093
1.00651
1.02776
1.07411
1.1439
1.23205
1.32144
1.40923
1.48167
1.51625
1.55193
1.56562
1.56016
1.5493
1.545
1.53776
1.53415
1.53391
1.53456
1.53433
1.533
1.53103
1.52823
1.52493
1.0784
1.18127
1.289
1.39067
1.48556
1.57535
1.63506
1.68144
1.69891
1.68221
1.63777
1.5863
1.54082
1.52232
1.51288
1.51395
1.51823
1.52461
1.53111
1.53239
1.5311
1.52954
1.52845
1.52557
1.38172
1.2165
1.09003
0.992508
0.927624
0.936439
0.982762
0.986575
0.982505
0.993827
1.0152
1.03249
1.0436
1.06059
1.06583
1.06348
1.05444
1.05099
1.05375
1.05972
1.06242
1.05987
1.05292
1.04357
1.0339
1.03013
1.02892
1.02893
1.02918
1.02666
1.0224
1.01917
1.01873
1.01914
1.01927
1.01826
1.01483
1.01159
1.01152
1.01185
1.01359
1.01837
1.02758
1.04131
1.05612
1.06527
1.0689
1.07047
1.0713
1.07241
1.07534
1.0812
1.08536
1.08582
1.08525
1.08353
1.08163
1.07947
1.07485
1.06459
1.04952
1.03296
1.0196
1.01464
1.01318
1.01208
1.01068
1.00969
1.00977
1.0105
1.01164
1.01345
1.0168
1.01985
1.0205
1.02063
1.02076
1.02088
1.02093
1.02066
1.01913
1.01463
1.0065
1.00085
1.00001
1
1
1
1
1
1
1
1
1
1
1
1.47592
1.38859
1.30287
1.22845
1.13295
1.08278
1.07898
1.05733
1.01778
1.00983
1.00675
1.0012
1.00212
1.00737
1.01591
1.01645
1.01606
1.01906
1.0272
1.03392
1.03634
1.03489
1.03061
1.02451
1.01885
1.01681
1.01608
1.01656
1.0179
1.01674
1.01405
1.01155
1.01064
1.01124
1.01227
1.01198
1.00947
1.00673
1.00688
1.00753
1.00956
1.01471
1.0236
1.03572
1.0496
1.06139
1.06726
1.06897
1.06942
1.0703
1.07307
1.0782
1.08313
1.08504
1.08502
1.0841
1.08188
1.0782
1.07174
1.06024
1.04493
1.03007
1.01861
1.01414
1.01286
1.01189
1.01059
1.00954
1.00953
1.01018
1.01142
1.01358
1.01721
1.02021
1.02076
1.02083
1.02091
1.02096
1.02098
1.02071
1.0193
1.01493
1.00662
1.00082
1.00001
1
1
1
1
1
1
1
1
1
1
1
1.51308
1.47085
1.40203
1.33612
1.26587
1.18053
1.1365
1.10531
1.05839
1.01857
1.0116
0.999002
0.985105
0.985232
0.990309
0.997165
0.997447
0.996004
0.9996
1.00463
1.00539
1.00456
1.00264
1.00029
0.997049
0.99542
0.995093
0.996226
0.999535
1.00163
1.00141
1.00045
0.999002
0.999144
1.00084
1.00179
1.00133
1.00065
1.00178
1.00488
1.01068
1.02033
1.03182
1.04321
1.05595
1.06976
1.07976
1.08415
1.08495
1.08474
1.08474
1.08574
1.0876
1.08737
1.08635
1.08439
1.08098
1.07506
1.06575
1.05263
1.03845
1.02655
1.01779
1.01395
1.01255
1.0117
1.01052
1.00966
1.00974
1.01042
1.01161
1.0138
1.01762
1.02039
1.02082
1.02093
1.02103
1.0211
1.0211
1.02066
1.01886
1.01405
1.00577
1.00062
1.00001
1
1
1
1
1
1
1
1
1
1
1
1.53177
1.51257
1.47108
1.41503
1.36212
1.28567
1.21752
1.18719
1.14922
1.08766
1.07135
1.05929
1.02632
1.00197
1.00411
1.00347
0.995939
0.988606
0.987356
0.986995
0.983076
0.979498
0.979917
0.98163
0.981982
0.981117
0.980566
0.982016
0.985415
0.988988
0.990548
0.990703
0.990842
0.991884
0.995182
1.00152
1.01298
1.03163
1.0554
1.08039
1.10528
1.12875
1.14402
1.1497
1.15508
1.16458
1.17268
1.17424
1.17282
1.16804
1.16071
1.15122
1.13955
1.12614
1.11188
1.09759
1.0844
1.07177
1.05753
1.04259
1.03091
1.02272
1.01669
1.01362
1.0121
1.01101
1.00975
1.00924
1.00958
1.01073
1.0124
1.01497
1.01871
1.02082
1.0211
1.02121
1.02131
1.02138
1.0214
1.02098
1.01891
1.01322
1.00459
1.00037
1
1
1
1
1
1
1
1
1
1
1
1
1.54427
1.53496
1.51367
1.47424
1.42959
1.374
1.30248
1.25959
1.22331
1.17305
1.13539
1.11196
1.07481
1.03102
1.02663
1.02418
1.01203
0.993139
0.989578
0.989079
0.984314
0.979936
0.980604
0.98378
0.983231
0.977765
0.974987
0.974902
0.976127
0.980428
0.984662
0.990517
1.00163
1.02376
1.05746
1.09717
1.13794
1.17419
1.20071
1.22014
1.23523
1.24445
1.24979
1.2501
1.24646
1.24694
1.25266
1.2573
1.2566
1.25293
1.24818
1.24152
1.23079
1.21525
1.19493
1.1684
1.13518
1.09839
1.06545
1.04193
1.02797
1.02004
1.01538
1.0132
1.01197
1.01041
1.00893
1.00882
1.00959
1.01116
1.01323
1.01651
1.02031
1.02154
1.02167
1.02175
1.0218
1.02182
1.02166
1.02081
1.01827
1.01182
1.00331
1.00018
1
1
1
1
1
1
1
1
1
1
1
1
1.55249
1.5457
1.53594
1.51407
1.4797
1.43706
1.37995
1.33277
1.29246
1.23919
1.20169
1.17903
1.14742
1.08611
1.06994
1.07169
1.06295
1.03425
1.02132
1.01403
1.00104
0.989862
0.985982
0.985068
0.979649
0.97185
0.969295
0.969573
0.97218
0.982714
1.01454
1.06194
1.12126
1.17903
1.22232
1.25377
1.27212
1.27892
1.28168
1.28365
1.28045
1.27602
1.27648
1.27764
1.27423
1.27322
1.2797
1.28571
1.28561
1.28414
1.28003
1.27404
1.26719
1.25752
1.24174
1.21994
1.19265
1.15944
1.12225
1.0843
1.04898
1.02448
1.01533
1.01301
1.01142
1.00985
1.00918
1.00925
1.01009
1.01175
1.01419
1.01817
1.02163
1.02233
1.02246
1.02256
1.02261
1.02258
1.0222
1.02103
1.01757
1.00978
1.00195
1.00006
1
1
1
1
1
1
1
1
1
1
1
1
1.55537
1.5501
1.54363
1.53431
1.51468
1.48552
1.4399
1.39338
1.35936
1.3108
1.25428
1.23473
1.2122
1.16276
1.12527
1.11711
1.10269
1.07267
1.05378
1.04335
1.0259
1.00076
0.991725
0.989766
0.984969
0.980732
0.989993
1.01435
1.05602
1.11804
1.18336
1.22904
1.26746
1.28905
1.29925
1.30419
1.30125
1.29572
1.2914
1.28866
1.28179
1.27601
1.27679
1.27881
1.27694
1.27542
1.2823
1.28922
1.28912
1.28824
1.28398
1.27728
1.26944
1.25969
1.24404
1.22239
1.20067
1.18134
1.16243
1.14047
1.11261
1.07571
1.03575
1.01429
1.00979
1.00925
1.0094
1.01034
1.01163
1.01311
1.01555
1.01952
1.02219
1.02261
1.02278
1.02298
1.02315
1.02322
1.02304
1.02147
1.01642
1.00713
1.00085
1.00001
1
1
1
1
1
1
1
1
1
1
1
1
1.55433
1.54811
1.54476
1.54033
1.53271
1.51647
1.48719
1.44466
1.41138
1.3738
1.32006
1.28757
1.26261
1.22217
1.18696
1.17038
1.15148
1.11321
1.08903
1.08152
1.06778
1.03856
1.02295
1.02617
1.04121
1.07657
1.14118
1.20169
1.24806
1.28857
1.30765
1.31425
1.31657
1.31378
1.30774
1.30127
1.29555
1.28849
1.2846
1.27682
1.26381
1.25603
1.25522
1.25712
1.25699
1.25275
1.2573
1.26596
1.2701
1.27078
1.2673
1.26041
1.25267
1.24305
1.22982
1.21086
1.19035
1.17586
1.16493
1.15411
1.14232
1.12754
1.10084
1.05715
1.02009
1.00981
1.00957
1.01083
1.01263
1.01467
1.01812
1.0223
1.02369
1.02381
1.02388
1.02393
1.02394
1.02373
1.02289
1.02052
1.01397
1.00431
1.00026
1
1
1
1
1
1
1
1
1
1
1
1
1
1.55234
1.54618
1.54316
1.54093
1.53674
1.52955
1.51453
1.48679
1.45503
1.42294
1.37691
1.33802
1.31063
1.27357
1.23602
1.21724
1.19799
1.16231
1.12651
1.11516
1.10663
1.0971
1.11196
1.15759
1.21596
1.28856
1.34241
1.36123
1.37208
1.36788
1.3589
1.34242
1.32523
1.31298
1.3
1.28736
1.27383
1.26305
1.25294
1.23572
1.22061
1.21549
1.21513
1.21387
1.2123
1.20636
1.2048
1.21018
1.2155
1.22119
1.22147
1.21723
1.2081
1.19793
1.1915
1.18852
1.18491
1.17556
1.16481
1.15485
1.14546
1.13695
1.12729
1.11062
1.07985
1.04034
1.01634
1.01225
1.01278
1.01562
1.02093
1.02457
1.02509
1.0252
1.02531
1.02537
1.0253
1.0248
1.02341
1.01931
1.01024
1.0018
1.00004
1
1
1
1
1
1
1
1
1
1
1
1
1
1.54385
1.54033
1.53748
1.53546
1.5331
1.52915
1.52353
1.51079
1.48775
1.46012
1.42423
1.38559
1.3529
1.31683
1.28325
1.25774
1.23486
1.20743
1.17827
1.18034
1.20608
1.27873
1.36229
1.39982
1.42666
1.45269
1.44478
1.43141
1.41822
1.40047
1.38003
1.35659
1.33048
1.30928
1.29449
1.27911
1.26323
1.25065
1.23709
1.21904
1.20204
1.19451
1.1899
1.18354
1.17843
1.17378
1.16494
1.165
1.16939
1.17004
1.17196
1.17129
1.16477
1.1541
1.14451
1.1396
1.13867
1.13855
1.13787
1.13651
1.13464
1.13176
1.1266
1.12036
1.11246
1.09588
1.06477
1.03195
1.02007
1.01997
1.02351
1.0256
1.02576
1.0259
1.0261
1.02622
1.02627
1.0261
1.02382
1.01675
1.00568
1.00041
1
1
1
1
1
1
1
1
1
1
1
1
1
1
1.54171
1.53918
1.53219
1.52583
1.52396
1.52354
1.5222
1.51645
1.50271
1.4811
1.45172
1.42295
1.39478
1.35412
1.32013
1.29924
1.28054
1.2881
1.33065
1.38783
1.45159
1.5406
1.55405
1.53553
1.51589
1.49847
1.475
1.45034
1.42514
1.39992
1.37648
1.35358
1.33366
1.31691
1.30046
1.28167
1.26445
1.24992
1.23399
1.21585
1.20017
1.18644
1.17287
1.16227
1.15195
1.14263
1.13254
1.12261
1.12376
1.12591
1.12568
1.12783
1.12629
1.11877
1.10764
1.09995
1.09867
1.09849
1.09764
1.09725
1.0981
1.10125
1.10717
1.11242
1.1132
1.11008
1.10234
1.08332
1.05331
1.03245
1.02829
1.02794
1.02792
1.02796
1.02788
1.02769
1.02728
1.02591
1.02175
1.01163
1.00198
1.00004
1
1
1
1
1
1
1
1
1
1
1
1
1
1
1.48925
1.50676
1.51174
1.51371
1.51438
1.51623
1.51692
1.51341
1.50603
1.49355
1.47294
1.44568
1.42542
1.39899
1.37628
1.3961
1.44982
1.53959
1.60893
1.62737
1.64949
1.64889
1.63516
1.5956
1.55829
1.53829
1.51825
1.48583
1.44895
1.42209
1.40244
1.38345
1.36464
1.34478
1.3213
1.29937
1.28125
1.26472
1.24759
1.23005
1.2109
1.18759
1.1655
1.14915
1.1365
1.12223
1.11105
1.0998
1.09296
1.09462
1.09506
1.09521
1.09617
1.09227
1.08328
1.07645
1.07552
1.07472
1.07233
1.06901
1.06711
1.0673
1.07011
1.08071
1.09908
1.10882
1.10935
1.10832
1.09895
1.07378
1.04236
1.0306
1.02971
1.02985
1.02992
1.02962
1.0288
1.02582
1.01748
1.00527
1.0003
1
1
1
1
1
1
1
1
1
1
1
1
1
1
1
1.28872
1.43343
1.49818
1.50112
1.49638
1.49628
1.49793
1.50117
1.50326
1.50019
1.491
1.48019
1.49168
1.53261
1.60369
1.66115
1.71018
1.74855
1.74119
1.71221
1.68744
1.66345
1.62989
1.59546
1.56629
1.53773
1.50639
1.4739
1.44672
1.42225
1.39936
1.37746
1.35714
1.33676
1.31402
1.29104
1.2712
1.25293
1.23449
1.21573
1.19601
1.17562
1.15654
1.14026
1.12658
1.11316
1.10045
1.09081
1.08173
1.07541
1.07167
1.06786
1.06722
1.06575
1.06057
1.05603
1.05442
1.05312
1.05098
1.04793
1.04473
1.04433
1.04566
1.0528
1.07059
1.09587
1.10882
1.10958
1.10962
1.10435
1.08313
1.04934
1.03254
1.0304
1.03041
1.03072
1.02943
1.02315
1.00999
1.0011
1.00001
1
1
1
1
1
1
1
1
1
1
1
1
1
1
1
1.06385
1.21412
1.37451
1.4405
1.4822
1.49607
1.49145
1.49003
1.5007
1.52887
1.58095
1.65466
1.72865
1.80982
1.84983
1.85674
1.85536
1.84357
1.80978
1.75899
1.71165
1.66841
1.63151
1.60163
1.57396
1.54334
1.51035
1.48004
1.45572
1.43262
1.40855
1.38497
1.36346
1.3425
1.32009
1.29678
1.27514
1.25482
1.23449
1.21419
1.19371
1.17322
1.15417
1.13749
1.12265
1.10887
1.09645
1.08627
1.07737
1.06905
1.06214
1.0561
1.05295
1.05057
1.04439
1.03624
1.02957
1.0299
1.03048
1.02979
1.02963
1.03114
1.03616
1.04492
1.05628
1.07166
1.09181
1.108
1.11216
1.11168
1.10495
1.08623
1.05833
1.03874
1.03286
1.03021
1.02574
1.01446
1.00266
1.00006
1
1
1
1
1
1
1
1
1
1
1
1
1
1
1
1
1.00252
1.02735
1.14187
1.2802
1.38697
1.45017
1.5037
1.5821
1.66857
1.74461
1.81537
1.85939
1.89423
1.91463
1.90843
1.89138
1.87006
1.83928
1.80434
1.77835
1.74756
1.70972
1.66714
1.63411
1.60457
1.57189
1.54052
1.51348
1.48885
1.46321
1.43688
1.41274
1.39158
1.37117
1.34919
1.32587
1.3029
1.28067
1.25852
1.23631
1.21429
1.19275
1.17216
1.15307
1.13601
1.12133
1.109
1.0983
1.08725
1.07588
1.06506
1.056
1.0494
1.04506
1.03763
1.02965
1.0232
1.02063
1.02298
1.02426
1.02529
1.02863
1.03557
1.04597
1.05815
1.06785
1.07539
1.08385
1.09329
1.09905
1.09958
1.09707
1.08886
1.06803
1.04231
1.02625
1.01366
1.00313
1.00012
1
1
1
1
1
1
1
1
1
1
1
1
1
1
1
1
1
1.00001
1.00067
1.01097
1.07033
1.20916
1.4024
1.60592
1.75145
1.84356
1.90755
1.95124
1.96641
1.97903
1.97357
1.95158
1.91314
1.86773
1.827
1.79431
1.76277
1.73089
1.6999
1.66883
1.6335
1.59582
1.55792
1.52329
1.49532
1.47121
1.44637
1.41987
1.39469
1.37328
1.35364
1.33262
1.30976
1.28683
1.26462
1.24243
1.21995
1.19788
1.17669
1.15633
1.13684
1.11892
1.10369
1.09204
1.08201
1.07079
1.05966
1.04904
1.03955
1.03534
1.03485
1.03124
1.024
1.01957
1.01811
1.02086
1.02254
1.02368
1.0273
1.03579
1.04787
1.05746
1.06186
1.06483
1.06897
1.07616
1.08829
1.10198
1.1075
1.10633
1.09108
1.05304
1.01475
1.00154
1.00005
1
1
1
1
1
1
1
1
1
1
1
1
1
1
1
1
1
1
1.00001
1.00067
1.01097
1.07033
1.20916
1.4024
1.60592
1.75145
1.84356
1.90755
1.95124
1.96641
1.97903
1.97357
1.95158
1.91314
1.86773
1.827
1.79431
1.76277
1.73089
1.6999
1.66883
1.6335
1.59582
1.55792
1.52329
1.49532
1.47121
1.44637
1.41987
1.39469
1.37328
1.35364
1.33262
1.30976
1.28683
1.26462
1.24243
1.21995
1.19788
1.17669
1.15633
1.13684
1.11892
1.10369
1.09204
1.08201
1.07079
1.05966
1.04904
1.03955
1.03534
1.03485
1.03124
1.024
1.01957
1.01811
1.02086
1.02254
1.02368
1.0273
1.03579
1.04787
1.05746
1.06186
1.06483
1.06894
1.0761
1.08825
1.10285
1.10841
1.10659
1.0911
1.05281
1.01445
1.00152
1.00005
1
1
1
1
1
1
1
1
1
1
1
1
1
1
1
1
1
1
1.00252
1.02735
1.14187
1.2802
1.38697
1.45017
1.5037
1.5821
1.66857
1.74461
1.81537
1.85939
1.89423
1.91463
1.90843
1.89138
1.87006
1.83928
1.80434
1.77835
1.74756
1.70972
1.66714
1.63411
1.60457
1.57189
1.54052
1.51348
1.48885
1.46321
1.43688
1.41274
1.39158
1.37117
1.34919
1.32587
1.3029
1.28067
1.25852
1.23631
1.21429
1.19275
1.17216
1.15307
1.13601
1.12133
1.109
1.0983
1.08725
1.07588
1.06506
1.056
1.0494
1.04506
1.03763
1.02965
1.0232
1.02063
1.02298
1.02426
1.02529
1.02863
1.03557
1.04596
1.05815
1.06784
1.07541
1.08383
1.09331
1.09913
1.09954
1.09704
1.08895
1.06803
1.04224
1.02622
1.01365
1.00313
1.00012
1
1
1
1
1
1
1
1
1
1
1
1
1
1
1
1
1
1.06385
1.21412
1.37451
1.4405
1.4822
1.49607
1.49145
1.49003
1.5007
1.52887
1.58095
1.65466
1.72865
1.80982
1.84983
1.85674
1.85536
1.84357
1.80978
1.75899
1.71165
1.66841
1.63151
1.60163
1.57396
1.54334
1.51035
1.48004
1.45572
1.43262
1.40855
1.38497
1.36346
1.3425
1.32009
1.29678
1.27514
1.25482
1.23449
1.21419
1.19371
1.17322
1.15417
1.13749
1.12265
1.10887
1.09645
1.08627
1.07737
1.06905
1.06214
1.0561
1.05295
1.05057
1.04439
1.03624
1.02957
1.0299
1.03048
1.02979
1.02963
1.03114
1.03616
1.04492
1.05628
1.07167
1.09182
1.10804
1.11218
1.11168
1.10489
1.08615
1.05832
1.03873
1.03285
1.0302
1.02574
1.01446
1.00266
1.00006
1
1
1
1
1
1
1
1
1
1
1
1
1
1
1
1
1.28872
1.43343
1.49818
1.50112
1.49638
1.49628
1.49793
1.50117
1.50326
1.50019
1.491
1.48019
1.49168
1.53261
1.60369
1.66115
1.71018
1.74855
1.74119
1.71221
1.68744
1.66345
1.62989
1.59546
1.56629
1.53773
1.50639
1.4739
1.44672
1.42225
1.39936
1.37746
1.35714
1.33676
1.31402
1.29104
1.2712
1.25293
1.23449
1.21573
1.19601
1.17562
1.15654
1.14026
1.12658
1.11316
1.10045
1.09081
1.08173
1.07541
1.07167
1.06786
1.06722
1.06575
1.06057
1.05603
1.05442
1.05312
1.05098
1.04793
1.04473
1.04433
1.04566
1.05281
1.07059
1.09587
1.10882
1.10958
1.10962
1.10434
1.08309
1.0493
1.03254
1.0304
1.03041
1.03072
1.02943
1.02315
1.00999
1.0011
1.00001
1
1
1
1
1
1
1
1
1
1
1
1
1
1
1
1.48925
1.50676
1.51174
1.51371
1.51438
1.51623
1.51692
1.51341
1.50603
1.49355
1.47294
1.44568
1.42542
1.39899
1.37628
1.3961
1.44982
1.53959
1.60893
1.62737
1.64949
1.64889
1.63516
1.5956
1.55829
1.53829
1.51825
1.48583
1.44895
1.42209
1.40244
1.38345
1.36464
1.34478
1.3213
1.29937
1.28125
1.26472
1.24759
1.23005
1.2109
1.18759
1.1655
1.14915
1.1365
1.12223
1.11105
1.0998
1.09296
1.09462
1.09506
1.09521
1.09617
1.09227
1.08328
1.07645
1.07552
1.07472
1.07233
1.06901
1.06711
1.0673
1.07011
1.08071
1.09908
1.10882
1.10935
1.10832
1.09894
1.07377
1.04235
1.0306
1.02971
1.02985
1.02992
1.02962
1.0288
1.02582
1.01748
1.00527
1.0003
1
1
1
1
1
1
1
1
1
1
1
1
1
1
1
1.54171
1.53918
1.53219
1.52583
1.52396
1.52354
1.5222
1.51645
1.50271
1.4811
1.45172
1.42295
1.39478
1.35412
1.32013
1.29924
1.28054
1.2881
1.33065
1.38783
1.45159
1.5406
1.55405
1.53553
1.51589
1.49847
1.475
1.45034
1.42514
1.39992
1.37648
1.35358
1.33366
1.31691
1.30046
1.28167
1.26445
1.24992
1.23399
1.21585
1.20017
1.18644
1.17287
1.16227
1.15195
1.14263
1.13254
1.12261
1.12376
1.12591
1.12568
1.12783
1.12629
1.11877
1.10764
1.09995
1.09867
1.09848
1.09764
1.09725
1.0981
1.10125
1.10717
1.11242
1.1132
1.11008
1.10234
1.08332
1.0533
1.03245
1.02829
1.02794
1.02792
1.02796
1.02788
1.02769
1.02728
1.02591
1.02175
1.01163
1.00198
1.00004
1
1
1
1
1
1
1
1
1
1
1
1
1
1
1.54385
1.54033
1.53748
1.53546
1.5331
1.52915
1.52353
1.51079
1.48775
1.46012
1.42423
1.38559
1.3529
1.31683
1.28325
1.25774
1.23486
1.20743
1.17827
1.18034
1.20608
1.27873
1.36229
1.39982
1.42666
1.45269
1.44478
1.43141
1.41822
1.40047
1.38003
1.35659
1.33048
1.30928
1.29449
1.27911
1.26323
1.25065
1.23709
1.21904
1.20204
1.19451
1.1899
1.18354
1.17843
1.17378
1.16494
1.165
1.16939
1.17004
1.17196
1.17129
1.16477
1.1541
1.14451
1.1396
1.13867
1.13855
1.13787
1.13651
1.13464
1.13176
1.1266
1.12036
1.11246
1.09588
1.06477
1.03194
1.02007
1.01997
1.02351
1.0256
1.02576
1.0259
1.0261
1.02622
1.02627
1.0261
1.02382
1.01675
1.00568
1.00041
1
1
1
1
1
1
1
1
1
1
1
1
1
1
1.55234
1.54618
1.54316
1.54093
1.53674
1.52955
1.51453
1.48679
1.45503
1.42294
1.37691
1.33802
1.31063
1.27357
1.23602
1.21724
1.19799
1.16231
1.12651
1.11516
1.10663
1.0971
1.11196
1.15759
1.21596
1.28856
1.34241
1.36123
1.37208
1.36788
1.3589
1.34242
1.32523
1.31298
1.3
1.28736
1.27383
1.26305
1.25294
1.23572
1.22061
1.21549
1.21513
1.21387
1.2123
1.20636
1.2048
1.21018
1.2155
1.22119
1.22147
1.21723
1.2081
1.19793
1.1915
1.18852
1.18491
1.17556
1.16481
1.15484
1.14546
1.13695
1.12729
1.11062
1.07985
1.04034
1.01634
1.01225
1.01278
1.01562
1.02093
1.02457
1.02509
1.0252
1.02531
1.02537
1.0253
1.0248
1.02341
1.01931
1.01024
1.0018
1.00004
1
1
1
1
1
1
1
1
1
1
1
1
1
1.55433
1.54811
1.54476
1.54033
1.53271
1.51647
1.48719
1.44466
1.41138
1.3738
1.32006
1.28757
1.26261
1.22217
1.18696
1.17038
1.15148
1.11321
1.08903
1.08152
1.06778
1.03856
1.02295
1.02617
1.04121
1.07657
1.14118
1.20169
1.24806
1.28857
1.30765
1.31425
1.31657
1.31378
1.30774
1.30127
1.29555
1.28849
1.2846
1.27682
1.26381
1.25603
1.25522
1.25712
1.25699
1.25275
1.2573
1.26596
1.2701
1.27078
1.2673
1.26041
1.25267
1.24305
1.22982
1.21086
1.19035
1.17586
1.16493
1.15411
1.14232
1.12754
1.10084
1.05715
1.02009
1.00981
1.00957
1.01083
1.01263
1.01467
1.01812
1.0223
1.02369
1.02381
1.02388
1.02393
1.02394
1.02373
1.02289
1.02052
1.01397
1.00431
1.00026
1
1
1
1
1
1
1
1
1
1
1
1
1
1.55537
1.5501
1.54363
1.53431
1.51468
1.48552
1.4399
1.39338
1.35936
1.3108
1.25428
1.23473
1.2122
1.16276
1.12527
1.11711
1.10269
1.07267
1.05378
1.04335
1.0259
1.00076
0.991725
0.989766
0.984969
0.980732
0.989993
1.01435
1.05602
1.11804
1.18336
1.22904
1.26746
1.28905
1.29925
1.30419
1.30125
1.29572
1.2914
1.28866
1.28179
1.27601
1.27679
1.27881
1.27694
1.27542
1.2823
1.28922
1.28912
1.28824
1.28398
1.27728
1.26944
1.25969
1.24404
1.22239
1.20067
1.18134
1.16243
1.14047
1.11261
1.07571
1.03575
1.01429
1.00979
1.00925
1.0094
1.01034
1.01163
1.01311
1.01555
1.01952
1.02219
1.02261
1.02278
1.02298
1.02315
1.02322
1.02304
1.02147
1.01642
1.00713
1.00085
1.00001
1
1
1
1
1
1
1
1
1
1
1
1
1.55249
1.5457
1.53594
1.51407
1.4797
1.43706
1.37995
1.33277
1.29246
1.23919
1.20169
1.17903
1.14742
1.08611
1.06994
1.07169
1.06295
1.03425
1.02132
1.01403
1.00104
0.989862
0.985982
0.985068
0.979649
0.97185
0.969295
0.969573
0.97218
0.982714
1.01454
1.06194
1.12126
1.17903
1.22232
1.25377
1.27212
1.27892
1.28168
1.28365
1.28045
1.27602
1.27648
1.27764
1.27423
1.27322
1.2797
1.28571
1.28561
1.28414
1.28003
1.27404
1.26719
1.25752
1.24174
1.21994
1.19265
1.15944
1.12225
1.0843
1.04898
1.02448
1.01533
1.01301
1.01142
1.00985
1.00918
1.00925
1.01009
1.01175
1.01419
1.01817
1.02163
1.02233
1.02246
1.02256
1.02261
1.02258
1.0222
1.02103
1.01757
1.00978
1.00195
1.00006
1
1
1
1
1
1
1
1
1
1
1
1
1.54427
1.53496
1.51367
1.47424
1.42959
1.374
1.30248
1.25959
1.22331
1.17305
1.13539
1.11196
1.07481
1.03102
1.02663
1.02418
1.01203
0.993139
0.989578
0.989079
0.984314
0.979936
0.980604
0.98378
0.983231
0.977765
0.974987
0.974902
0.976127
0.980428
0.984662
0.990517
1.00163
1.02376
1.05746
1.09717
1.13794
1.17419
1.20071
1.22014
1.23523
1.24445
1.24979
1.2501
1.24646
1.24694
1.25266
1.2573
1.2566
1.25293
1.24818
1.24152
1.23079
1.21525
1.19493
1.1684
1.13518
1.09839
1.06545
1.04193
1.02797
1.02004
1.01538
1.0132
1.01197
1.01041
1.00893
1.00882
1.00959
1.01116
1.01323
1.01651
1.02031
1.02154
1.02167
1.02175
1.0218
1.02182
1.02166
1.02081
1.01827
1.01182
1.00331
1.00018
1
1
1
1
1
1
1
1
1
1
1
1
1.53177
1.51257
1.47108
1.41503
1.36212
1.28567
1.21752
1.18719
1.14922
1.08766
1.07135
1.05929
1.02632
1.00197
1.00411
1.00347
0.995939
0.988606
0.987356
0.986995
0.983076
0.979498
0.979917
0.98163
0.981982
0.981117
0.980566
0.982016
0.985415
0.988988
0.990548
0.990703
0.990842
0.991884
0.995182
1.00152
1.01298
1.03163
1.0554
1.08039
1.10528
1.12875
1.14402
1.1497
1.15508
1.16458
1.17268
1.17424
1.17282
1.16804
1.16071
1.15122
1.13955
1.12614
1.11188
1.09759
1.0844
1.07177
1.05753
1.04259
1.03091
1.02272
1.01669
1.01362
1.0121
1.01101
1.00975
1.00924
1.00958
1.01073
1.0124
1.01497
1.01871
1.02082
1.0211
1.02121
1.02131
1.02138
1.0214
1.02098
1.01891
1.01322
1.00459
1.00037
1
1
1
1
1
1
1
1
1
1
1
1
1.51308
1.47085
1.40203
1.33612
1.26587
1.18053
1.1365
1.10531
1.05839
1.01857
1.0116
0.999002
0.985105
0.985232
0.990309
0.997165
0.997447
0.996004
0.9996
1.00463
1.00539
1.00456
1.00264
1.00029
0.997049
0.99542
0.995093
0.996226
0.999535
1.00163
1.00141
1.00045
0.999002
0.999144
1.00084
1.00179
1.00133
1.00065
1.00178
1.00488
1.01068
1.02033
1.03182
1.04321
1.05595
1.06976
1.07976
1.08415
1.08495
1.08474
1.08474
1.08574
1.0876
1.08737
1.08635
1.08439
1.08098
1.07506
1.06575
1.05263
1.03845
1.02655
1.01779
1.01395
1.01255
1.0117
1.01052
1.00966
1.00974
1.01042
1.01161
1.0138
1.01762
1.02039
1.02082
1.02093
1.02103
1.0211
1.0211
1.02066
1.01886
1.01405
1.00577
1.00062
1.00001
1
1
1
1
1
1
1
1
1
1
1
1.47592
1.38859
1.30287
1.22845
1.13295
1.08278
1.07898
1.05733
1.01778
1.00983
1.00675
1.0012
1.00212
1.00737
1.01591
1.01645
1.01606
1.01906
1.0272
1.03392
1.03634
1.03489
1.03061
1.02451
1.01885
1.01681
1.01608
1.01656
1.0179
1.01674
1.01405
1.01155
1.01064
1.01124
1.01227
1.01198
1.00947
1.00673
1.00688
1.00753
1.00956
1.01471
1.0236
1.03572
1.0496
1.06139
1.06726
1.06897
1.06942
1.0703
1.07307
1.0782
1.08313
1.08504
1.08502
1.0841
1.08188
1.0782
1.07174
1.06024
1.04493
1.03007
1.01861
1.01414
1.01286
1.01189
1.01059
1.00954
1.00953
1.01018
1.01142
1.01358
1.01721
1.02021
1.02076
1.02083
1.02091
1.02096
1.02098
1.02071
1.0193
1.01493
1.00662
1.00082
1.00001
1
1
1
1
1
1
1
1
1
1
1
1.38172
1.2165
1.09003
0.992508
0.927624
0.936439
0.982762
0.986575
0.982505
0.993827
1.0152
1.03249
1.0436
1.06059
1.06583
1.06348
1.05444
1.05099
1.05375
1.05972
1.06242
1.05987
1.05292
1.04357
1.0339
1.03013
1.02892
1.02893
1.02918
1.02666
1.0224
1.01917
1.01873
1.01914
1.01927
1.01826
1.01483
1.01159
1.01152
1.01185
1.01359
1.01837
1.02758
1.04131
1.05612
1.06527
1.0689
1.07047
1.0713
1.07241
1.07534
1.0812
1.08536
1.08582
1.08525
1.08353
1.08163
1.07947
1.07485
1.06459
1.04952
1.03296
1.0196
1.01464
1.01318
1.01208
1.01068
1.00969
1.00977
1.0105
1.01164
1.01345
1.0168
1.01985
1.0205
1.02063
1.02076
1.02088
1.02093
1.02066
1.01913
1.01463
1.0065
1.00085
1.00001
1
1
1
1
1
1
1
1
1
1
1
)
;

boundaryField
{
    inlet
    {
        type            fixedValue;
        value           uniform 1;
    }
    outlet
    {
        type            inletOutlet;
        inletValue      uniform 1;
        value           nonuniform List<scalar> 
32
(
1
1
1
1
1
1
1
1
1
1
1
1
1
1
1
1
1
1
1
1
1
1
1
1
1
1
1
1
1
1
1
1
)
;
    }
    bottom
    {
        type            symmetryPlane;
    }
    top
    {
        type            symmetryPlane;
    }
    obstacle
    {
        type            zeroGradient;
    }
    defaultFaces
    {
        type            empty;
    }
}


// ************************************************************************* //
