/*--------------------------------*- C++ -*----------------------------------*\
  =========                 |
  \\      /  F ield         | OpenFOAM: The Open Source CFD Toolbox
   \\    /   O peration     | Website:  https://openfoam.org
    \\  /    A nd           | Version:  7
     \\/     M anipulation  |
\*---------------------------------------------------------------------------*/
FoamFile
{
    version     2.0;
    format      ascii;
    class       volVectorField;
    location    "0.4";
    object      U;
}
// * * * * * * * * * * * * * * * * * * * * * * * * * * * * * * * * * * * * * //

dimensions      [0 1 -1 0 0 0 0];

internalField   nonuniform List<vector> 
4608
(
(3 3.91358e-18 0)
(3 -2.66767e-18 0)
(3 1.1817e-16 0)
(3 2.79288e-16 0)
(3 6.82484e-16 0)
(3 4.07724e-16 0)
(3 9.68954e-17 0)
(3 -2.52073e-16 0)
(3 3.29418e-16 0)
(3 3.17281e-17 0)
(3 7.1085e-17 0)
(3 -6.9696e-16 0)
(3 -1.10477e-15 0)
(3 -7.2199e-18 0)
(3 6.53974e-16 0)
(3 1.27582e-15 0)
(3 1.47477e-15 0)
(3 1.01036e-15 0)
(3 9.68662e-16 0)
(3 1.012e-15 0)
(3 7.12753e-16 0)
(3 3.54574e-16 0)
(3 4.25234e-16 0)
(3 1.09838e-15 0)
(3 -3.02003e-17 0)
(3 1.03998e-16 0)
(3 3.03235e-16 0)
(3 1.42337e-15 0)
(3 2.44741e-15 0)
(3 1.16308e-15 0)
(3 4.24473e-16 0)
(3 -6.53593e-16 0)
(3 -6.13662e-16 0)
(3 1.97204e-17 0)
(3 4.13281e-16 0)
(3 5.7144e-17 0)
(3 -2.74221e-16 0)
(3 -2.60144e-16 0)
(3 -1.17969e-16 0)
(3 9.19059e-18 0)
(3 1.17838e-17 0)
(3 9.24736e-16 0)
(3 1.93577e-15 0)
(3 2.27102e-15 0)
(3 1.90593e-15 0)
(3 1.64052e-15 0)
(3 1.34363e-15 0)
(3 1.59247e-15 0)
(3 -1.03601e-17 0)
(3 -3.12648e-17 0)
(3 -1.89044e-16 0)
(3 2.03643e-16 0)
(3 3.65608e-16 0)
(3 5.07694e-16 0)
(3 -1.04283e-16 0)
(3 -4.52628e-16 0)
(3 -8.0558e-16 0)
(3 -9.13869e-16 0)
(3 -7.17157e-16 0)
(3 -6.84191e-16 0)
(3 -9.69697e-16 0)
(3 -1.56885e-15 0)
(3 -1.5869e-15 0)
(3 -2.16363e-15 0)
(3 -1.90382e-15 0)
(3 -1.04595e-15 0)
(3 1.68581e-15 0)
(3 2.36034e-15 0)
(3 2.70738e-15 0)
(3 2.44169e-15 0)
(3 1.09929e-15 0)
(3 2.85833e-16 0)
(3 -1.73774e-16 0)
(3 -7.57159e-16 0)
(3 -6.97079e-16 0)
(3 -4.72433e-16 0)
(3 -3.34569e-16 0)
(3 -1.3545e-16 0)
(3 -2.66334e-16 0)
(3 -4.06982e-16 0)
(3 -3.48622e-16 0)
(3 -9.15766e-16 0)
(3 -1.10894e-15 0)
(3 -9.09393e-16 0)
(3 -1.00405e-15 0)
(3 -8.93758e-16 0)
(3 -2.46099e-16 0)
(3 -9.32738e-17 0)
(3 -5.63105e-16 0)
(3 -1.06251e-15 0)
(3 8.99662e-16 0)
(3 2.19696e-15 0)
(3 2.54229e-15 0)
(3 1.80706e-15 0)
(3 1.11613e-15 0)
(3 1.50992e-15 0)
(3 -1.95286e-16 0)
(3 -3.22021e-16 0)
(3 -4.32864e-16 0)
(3 -3.56123e-16 0)
(3 8.38356e-16 0)
(3 5.64181e-16 0)
(3 3.10611e-16 0)
(3 1.47943e-16 0)
(3 -1.64605e-16 0)
(3 8.83583e-17 0)
(3 4.73122e-16 0)
(3 3.00919e-17 0)
(3 -2.74267e-16 0)
(3 -5.42769e-16 0)
(3 -1.12141e-15 0)
(3 -8.15983e-16 0)
(3 -6.58346e-16 0)
(3 -4.94796e-16 0)
(3 -1.37571e-15 0)
(3 -9.21597e-16 0)
(3 1.16634e-15 0)
(3 1.89202e-15 0)
(3 1.91426e-15 0)
(3 2.72813e-15 0)
(3 2.53052e-16 0)
(3 4.3641e-16 0)
(3 -3.80377e-17 0)
(3 -4.22965e-16 0)
(3 -2.72964e-16 0)
(3 1.449e-16 0)
(3 2.26225e-16 0)
(3 2.04986e-16 0)
(3 -2.72681e-16 0)
(3 -3.82163e-16 0)
(3 -7.19467e-16 0)
(3 -9.59739e-16 0)
(3 -8.5147e-16 0)
(3 -6.90102e-16 0)
(3 -9.62749e-16 0)
(3 -5.00484e-16 0)
(3 2.55602e-16 0)
(3 5.76539e-16 0)
(3 -1.11306e-15 0)
(3 -1.52524e-15 0)
(3 1.10551e-17 0)
(3 1.41606e-15 0)
(3 4.09868e-16 0)
(3 3.34117e-16 0)
(3 -2.27614e-16 0)
(3 -2.58993e-17 0)
(3 1.16252e-16 0)
(3 9.09675e-17 0)
(3 -3.66977e-16 0)
(3 -1.61199e-16 0)
(3 -4.81106e-16 0)
(3 -4.03802e-16 0)
(3 -2.11696e-16 0)
(3 -2.16622e-16 0)
(3 -2.67907e-16 0)
(3 9.36473e-16 0)
(3 1.63285e-15 0)
(3 1.23606e-15 0)
(3 1.12062e-15 0)
(3 1.30168e-15 0)
(3 1.20795e-15 0)
(3 1.2542e-15 0)
(3 -3.4409e-17 0)
(3 -4.22055e-16 0)
(3 -4.27152e-16 0)
(3 -8.0146e-16 0)
(3 -2.67451e-15 0)
(3 -2.89926e-15 0)
(3 8.83659e-17 0)
(3 9.47802e-17 0)
(3 8.28229e-17 0)
(3 -2.74204e-16 0)
(3 -1.44894e-16 0)
(3 1.78301e-16 0)
(3 4.09487e-16 0)
(3 3.77949e-16 0)
(3 3.96771e-16 0)
(3 6.6753e-16 0)
(3 1.54133e-15 0)
(3 2.56707e-15 0)
(3 2.78224e-15 0)
(3 2.28448e-15 0)
(3 1.494e-15 0)
(3 1.0108e-15 0)
(3 1.52712e-15 0)
(3 2.14806e-15 0)
(3 1.18349e-15 0)
(3 -1.09328e-16 0)
(3 -2.62932e-15 0)
(3 -3.26884e-15 0)
(3 -2.19217e-15 0)
(3 -2.71069e-15 0)
(3 6.10496e-17 0)
(3 4.03556e-17 0)
(3 -7.87657e-17 0)
(3 -3.15358e-16 0)
(3 -8.45034e-16 0)
(3 -7.19625e-16 0)
(3 3.22371e-16 0)
(3 4.45783e-16 0)
(3 2.28371e-16 0)
(3 3.75463e-16 0)
(3 1.26849e-15 0)
(3 1.48453e-15 0)
(3 1.14087e-15 0)
(3 1.08123e-15 0)
(3 6.05318e-16 0)
(3 2.56962e-16 0)
(3 9.68323e-16 0)
(3 1.56421e-15 0)
(3 1.39396e-15 0)
(3 -2.37593e-16 0)
(3 -2.19403e-15 0)
(3 -2.43271e-15 0)
(3 -1.13036e-15 0)
(3 5.69062e-17 0)
(3 -1.78359e-16 0)
(3 -1.88038e-16 0)
(3 -2.07193e-16 0)
(3 2.9522e-17 0)
(3 -5.11888e-16 0)
(3 -9.02279e-16 0)
(3 -7.62914e-16 0)
(3 -4.03932e-17 0)
(3 1.6959e-16 0)
(3 2.67041e-17 0)
(3 -4.05417e-16 0)
(3 -1.13836e-16 0)
(3 -3.31234e-16 0)
(3 -2.63973e-16 0)
(3 1.08524e-15 0)
(3 1.17151e-15 0)
(3 1.11844e-15 0)
(3 6.91809e-16 0)
(3 7.82462e-16 0)
(3 -1.08501e-15 0)
(3 -1.39091e-15 0)
(3 -1.57532e-15 0)
(3 -1.44354e-15 0)
(3 -1.73611e-15 0)
(3 2.59346e-16 0)
(3 2.34338e-16 0)
(3 1.484e-16 0)
(3 2.63014e-16 0)
(3 -3.32999e-16 0)
(3 -7.37916e-16 0)
(3 -8.498e-16 0)
(3 -3.15277e-16 0)
(3 1.06457e-16 0)
(3 -1.03269e-16 0)
(3 -2.9405e-16 0)
(3 3.78852e-16 0)
(3 6.13498e-16 0)
(3 8.68044e-17 0)
(3 1.70864e-16 0)
(3 1.80257e-15 0)
(3 1.83971e-15 0)
(3 1.17173e-15 0)
(3 1.29365e-17 0)
(3 -1.55174e-15 0)
(3 -1.31122e-15 0)
(3 -7.24842e-16 0)
(3 2.68912e-18 0)
(3 -5.8626e-16 0)
(3 -1.76454e-16 0)
(3 -4.40394e-16 0)
(3 -4.34998e-16 0)
(3 -4.62975e-16 0)
(3 -2.93689e-16 0)
(3 -4.05042e-16 0)
(3 -4.23465e-18 0)
(3 -4.6151e-16 0)
(3 -4.12507e-16 0)
(3 1.31868e-16 0)
(3 4.38457e-16 0)
(3 8.46051e-16 0)
(3 9.27854e-16 0)
(3 1.31134e-16 0)
(3 -4.37645e-16 0)
(3 -8.26384e-16 0)
(3 -2.21193e-16 0)
(3 1.37404e-15 0)
(3 -9.00159e-16 0)
(3 -2.60018e-15 0)
(3 -2.48646e-15 0)
(3 -1.56693e-15 0)
(3 1.65768e-16 0)
(3 1.21761e-15 0)
(3 4.13415e-17 0)
(3 -1.49936e-16 0)
(3 -2.83757e-16 0)
(3 -5.71716e-16 0)
(3 -2.03876e-17 0)
(3 2.02101e-16 0)
(3 -3.62105e-17 0)
(3 -1.11613e-15 0)
(3 -1.62276e-15 0)
(3 -1.11849e-15 0)
(3 -4.66272e-16 0)
(3 -1.23833e-16 0)
(3 7.07078e-17 0)
(3 -6.41298e-16 0)
(3 -1.55346e-15 0)
(3 -2.19303e-15 0)
(3 -2.87496e-15 0)
(3 -3.09183e-15 0)
(3 -3.25247e-15 0)
(3 -4.83345e-15 0)
(3 -4.99018e-15 0)
(3 -5.02822e-15 0)
(3 -1.025e-15 0)
(3 2.25754e-15 0)
(3 3.49118e-16 0)
(3 5.81177e-16 0)
(3 1.57337e-16 0)
(3 -2.83335e-16 0)
(3 -6.40613e-16 0)
(3 -1.70209e-16 0)
(3 -5.11718e-16 0)
(3 -7.82164e-16 0)
(3 -4.48587e-16 0)
(3 -2.11956e-16 0)
(3 -1.08248e-16 0)
(3 -1.12379e-16 0)
(3 -5.04969e-16 0)
(3 -2.10964e-15 0)
(3 -2.85584e-15 0)
(3 -2.94029e-15 0)
(3 -2.5394e-15 0)
(3 -2.31261e-15 0)
(3 -2.45749e-15 0)
(3 -3.75488e-15 0)
(3 -4.50965e-15 0)
(3 -5.75178e-15 0)
(3 -2.47995e-15 0)
(3 2.70551e-15 0)
(3 -1.66907e-17 0)
(3 1.93595e-16 0)
(3 3.14185e-16 0)
(3 -3.20121e-17 0)
(3 -1.69555e-16 0)
(3 2.20559e-16 0)
(3 5.02289e-16 0)
(3 5.03348e-16 0)
(3 2.11856e-16 0)
(3 -1.47931e-16 0)
(3 -1.01289e-15 0)
(3 -2.40488e-15 0)
(3 -3.46538e-15 0)
(3 -3.7857e-15 0)
(3 -2.24365e-15 0)
(3 -1.47736e-15 0)
(3 -1.2714e-15 0)
(3 -1.67198e-15 0)
(3 -1.96682e-15 0)
(3 -1.6446e-15 0)
(3 -1.90422e-15 0)
(3 -2.61401e-15 0)
(3 -2.00772e-15 0)
(3 1.13129e-15 0)
(3 4.65645e-17 0)
(3 3.72906e-17 0)
(3 9.98409e-17 0)
(3 7.08507e-16 0)
(3 7.86092e-16 0)
(3 -8.09201e-17 0)
(3 -3.86171e-16 0)
(3 -3.40984e-16 0)
(3 -7.28292e-16 0)
(3 -1.75968e-15 0)
(3 -2.64796e-15 0)
(3 -4.83789e-15 0)
(3 -5.20068e-15 0)
(3 -3.63375e-15 0)
(3 -1.59815e-15 0)
(3 9.13484e-17 0)
(3 2.56065e-17 0)
(3 -1.45529e-15 0)
(3 -2.55981e-15 0)
(3 -1.45753e-15 0)
(3 -7.89947e-16 0)
(3 -5.55266e-16 0)
(3 4.77521e-16 0)
(3 4.42159e-16 0)
(3 -2.96861e-16 0)
(3 -2.43784e-16 0)
(3 -2.04448e-16 0)
(3 8.97178e-17 0)
(3 1.90065e-16 0)
(3 -2.34779e-16 0)
(3 -7.4468e-16 0)
(3 -4.72161e-16 0)
(3 -5.88891e-16 0)
(3 -8.87387e-16 0)
(3 -1.01202e-15 0)
(3 -2.23987e-15 0)
(3 -1.5695e-15 0)
(3 7.54365e-16 0)
(3 1.34424e-15 0)
(3 1.59269e-15 0)
(3 2.47907e-16 0)
(3 -2.81023e-15 0)
(3 -3.55208e-15 0)
(3 -1.09878e-15 0)
(3 -2.70108e-16 0)
(3 2.65452e-16 0)
(3 1.32498e-15 0)
(3 3.48865e-16 0)
(3 -1.7706e-16 0)
(3 -5.20316e-16 0)
(3 -1.51208e-16 0)
(3 1.29061e-16 0)
(3 2.57257e-16 0)
(3 5.90661e-16 0)
(3 7.02737e-16 0)
(3 6.67898e-17 0)
(3 -2.83907e-16 0)
(3 -1.15913e-15 0)
(3 -6.22618e-16 0)
(3 7.34074e-16 0)
(3 1.67621e-15 0)
(3 2.98692e-15 0)
(3 3.25616e-15 0)
(3 2.32535e-15 0)
(3 6.61486e-17 0)
(3 -8.96505e-16 0)
(3 -2.1482e-16 0)
(3 1.73717e-15 0)
(3 1.68474e-15 0)
(3 9.85467e-16 0)
(3 -9.98141e-16 0)
(3 -1.66681e-15 0)
(3 3.97832e-16 0)
(3 3.14303e-17 0)
(3 -2.85395e-16 0)
(3 -3.65076e-17 0)
(3 4.95782e-18 0)
(3 1.76245e-16 0)
(3 3.69401e-16 0)
(3 2.34618e-16 0)
(3 1.45176e-16 0)
(3 5.54462e-16 0)
(3 1.2106e-15 0)
(3 2.32077e-15 0)
(3 1.70068e-15 0)
(3 1.56869e-15 0)
(3 2.11711e-15 0)
(3 2.13772e-15 0)
(3 8.98073e-16 0)
(3 5.55729e-16 0)
(3 1.14287e-15 0)
(3 1.24042e-15 0)
(3 -2.62971e-16 0)
(3 -1.11022e-15 0)
(3 -3.14698e-15 0)
(3 -2.33561e-15 0)
(3 1.70726e-16 0)
(3 5.07926e-16 0)
(3 6.54843e-16 0)
(3 -2.11028e-16 0)
(3 -4.19031e-16 0)
(3 -5.92821e-16 0)
(3 -6.30518e-16 0)
(3 5.23045e-17 0)
(3 4.56925e-16 0)
(3 1.44279e-15 0)
(3 1.82268e-15 0)
(3 1.85188e-15 0)
(3 1.67121e-15 0)
(3 1.75476e-15 0)
(3 1.29396e-15 0)
(3 1.15104e-15 0)
(3 -2.31258e-16 0)
(3 -2.05852e-16 0)
(3 2.45906e-16 0)
(3 4.62878e-16 0)
(3 3.80866e-16 0)
(3 -4.84405e-16 0)
(3 -1.9119e-15 0)
(3 -3.1593e-16 0)
(3 -7.9741e-17 0)
(3 3.70365e-16 0)
(3 5.70081e-16 0)
(3 2.52944e-16 0)
(3 -8.06602e-17 0)
(3 -2.63519e-16 0)
(3 -5.74115e-16 0)
(3 -7.2179e-16 0)
(3 -4.49048e-16 0)
(3 -1.36206e-17 0)
(3 4.493e-16 0)
(3 5.41458e-16 0)
(3 1.01767e-15 0)
(3 1.08348e-15 0)
(3 7.55913e-16 0)
(3 -1.7006e-16 0)
(3 -5.22514e-16 0)
(3 6.71399e-16 0)
(3 1.30868e-15 0)
(3 1.80582e-15 0)
(3 2.23179e-15 0)
(3 1.67191e-15 0)
(3 9.28263e-16 0)
(3 6.07583e-16 0)
(3 -2.71717e-16 0)
(3 -2.27136e-16 0)
(3 -5.1229e-16 0)
(3 -8.83698e-17 0)
(3 -3.19071e-16 0)
(3 -2.8279e-16 0)
(3 -1.37068e-17 0)
(3 2.96197e-16 0)
(3 -2.96852e-16 0)
(3 -6.95791e-17 0)
(3 -1.74968e-16 0)
(3 -4.04873e-17 0)
(3 6.81724e-16 0)
(3 9.24052e-16 0)
(3 9.5482e-16 0)
(3 1.03519e-15 0)
(3 1.50925e-15 0)
(3 1.57135e-15 0)
(3 1.48326e-15 0)
(3 1.43662e-15 0)
(3 1.21598e-15 0)
(3 1.08236e-15 0)
(3 1.60642e-15 0)
(3 -8.74117e-17 0)
(3 1.17864e-16 0)
(3 -1.02514e-16 0)
(3 -3.20905e-17 0)
(3 4.00515e-16 0)
(3 1.99143e-16 0)
(3 1.15052e-16 0)
(3 3.9108e-16 0)
(3 7.47081e-16 0)
(3 7.47901e-16 0)
(3 5.69547e-16 0)
(3 8.41467e-17 0)
(3 -1.62862e-16 0)
(3 -2.67466e-16 0)
(3 -3.05535e-16 0)
(3 8.61148e-17 0)
(3 1.06185e-15 0)
(3 1.53609e-15 0)
(3 1.60094e-15 0)
(3 1.44616e-15 0)
(3 8.18335e-16 0)
(3 8.08925e-16 0)
(3 8.94047e-16 0)
(3 -5.81692e-16 0)
(3 -1.64479e-15 0)
(3 3.38817e-17 0)
(3 -3.37836e-16 0)
(3 -3.42528e-16 0)
(3 -1.39373e-16 0)
(3 7.90634e-16 0)
(3 7.97793e-16 0)
(3 8.20076e-16 0)
(3 7.73803e-16 0)
(3 1.61869e-15 0)
(3 1.83415e-15 0)
(3 1.99952e-15 0)
(3 1.02378e-15 0)
(3 -9.90165e-16 0)
(3 -1.17374e-15 0)
(3 -3.07047e-16 0)
(3 3.14809e-16 0)
(3 9.94506e-16 0)
(3 1.73462e-15 0)
(3 2.1109e-15 0)
(3 1.06064e-15 0)
(3 1.56147e-15 0)
(3 1.3598e-15 0)
(3 -1.45952e-16 0)
(3 -1.77542e-15 0)
(3 -7.30318e-17 0)
(3 -1.88448e-16 0)
(3 -2.68551e-16 0)
(3 -6.52598e-16 0)
(3 -3.83209e-16 0)
(3 -4.31622e-16 0)
(3 -6.50022e-16 0)
(3 -5.57847e-16 0)
(3 -2.09712e-16 0)
(3 3.37082e-16 0)
(3 5.77244e-16 0)
(3 6.34182e-17 0)
(3 -3.5912e-16 0)
(3 1.08902e-16 0)
(3 9.08195e-16 0)
(3 6.90064e-16 0)
(3 1.31005e-15 0)
(3 3.13271e-15 0)
(3 3.6462e-15 0)
(3 1.4481e-15 0)
(3 8.02993e-16 0)
(3 1.09415e-15 0)
(3 1.49831e-15 0)
(3 2.39788e-15 0)
(3 -2.07549e-16 0)
(3 -2.47872e-16 0)
(3 -3.65728e-16 0)
(3 -5.88415e-16 0)
(3 -9.67317e-16 0)
(3 -1.41418e-15 0)
(3 -1.47922e-15 0)
(3 -1.13754e-15 0)
(3 -5.65384e-16 0)
(3 -1.5608e-16 0)
(3 -4.94064e-16 0)
(3 -7.14717e-16 0)
(3 -4.98348e-16 0)
(3 1.29289e-16 0)
(3 6.01037e-16 0)
(3 6.56423e-16 0)
(3 4.84168e-16 0)
(3 1.29268e-15 0)
(3 2.54209e-15 0)
(3 1.58378e-15 0)
(3 -5.36994e-16 0)
(3 -5.80126e-16 0)
(3 -4.15012e-16 0)
(3 8.3294e-16 0)
(3 -4.0184e-16 0)
(3 -3.80122e-16 0)
(3 -3.72528e-16 0)
(3 2.03554e-16 0)
(3 2.21874e-16 0)
(3 2.2617e-16 0)
(3 -8.34617e-17 0)
(3 1.49996e-16 0)
(3 5.8037e-16 0)
(3 9.03441e-16 0)
(3 9.42799e-17 0)
(3 -5.55081e-16 0)
(3 -5.47551e-16 0)
(3 -7.62642e-16 0)
(3 -6.53646e-16 0)
(3 -3.02487e-16 0)
(3 -3.59186e-16 0)
(3 -3.12468e-16 0)
(3 -1.06826e-16 0)
(3 8.94325e-16 0)
(3 1.9037e-15 0)
(3 1.49294e-15 0)
(3 1.80094e-15 0)
(3 -9.66211e-16 0)
(3 9.77475e-17 0)
(3 6.62848e-16 0)
(3 8.26198e-16 0)
(3 6.08716e-16 0)
(3 2.48808e-16 0)
(3 6.81359e-16 0)
(3 1.04525e-15 0)
(3 8.40998e-16 0)
(3 -1.60303e-17 0)
(3 -4.21159e-16 0)
(3 -7.1841e-16 0)
(3 -1.40896e-15 0)
(3 -1.74789e-15 0)
(3 -2.28795e-15 0)
(3 -1.20652e-15 0)
(3 -3.49525e-17 0)
(3 1.00313e-15 0)
(3 3.16577e-16 0)
(3 -6.78672e-16 0)
(3 1.575e-15 0)
(3 3.29936e-15 0)
(3 2.57343e-15 0)
(3 2.28444e-15 0)
(3 -9.56782e-16 0)
(3 1.2797e-16 0)
(3 3.61677e-16 0)
(3 4.28961e-16 0)
(3 -5.95864e-17 0)
(3 -2.06533e-16 0)
(3 3.80784e-16 0)
(3 8.08474e-16 0)
(3 9.59382e-16 0)
(3 4.38135e-16 0)
(3 -6.84102e-16 0)
(3 -1.51697e-15 0)
(3 -1.68966e-15 0)
(3 -1.98527e-15 0)
(3 -1.04903e-15 0)
(3 1.45457e-17 0)
(3 -1.5891e-16 0)
(3 -1.3943e-17 0)
(3 1.33387e-15 0)
(3 2.48853e-15 0)
(3 3.45626e-15 0)
(3 2.94566e-15 0)
(3 2.30613e-15 0)
(3 2.07369e-15 0)
(3 -7.0367e-17 0)
(3 -1.3623e-16 0)
(3 -8.29946e-16 0)
(3 -1.06662e-15 0)
(3 -1.1542e-15 0)
(3 -1.46658e-16 0)
(3 3.88001e-16 0)
(3 7.12069e-16 0)
(3 6.264e-16 0)
(3 6.27275e-16 0)
(3 2.84155e-16 0)
(3 -2.9517e-16 0)
(3 1.17177e-15 0)
(3 1.51526e-15 0)
(3 1.69329e-15 0)
(3 1.5451e-15 0)
(3 1.83509e-15 0)
(3 1.75113e-15 0)
(3 1.7697e-15 0)
(3 3.2922e-15 0)
(3 4.55485e-15 0)
(3 2.78209e-15 0)
(3 1.59609e-15 0)
(3 1.93693e-15 0)
(3 1.06922e-15 0)
(3 -8.84811e-17 0)
(3 -4.15727e-16 0)
(3 -2.39083e-16 0)
(3 -1.40614e-16 0)
(3 -4.3241e-17 0)
(3 3.11903e-16 0)
(3 5.60556e-16 0)
(3 4.02133e-16 0)
(3 6.97237e-17 0)
(3 4.1281e-16 0)
(3 1.27463e-15 0)
(3 1.74993e-15 0)
(3 1.15078e-15 0)
(3 5.41053e-16 0)
(3 9.19262e-16 0)
(3 1.95014e-15 0)
(3 8.93289e-16 0)
(3 2.7574e-16 0)
(3 5.91871e-16 0)
(3 1.74793e-15 0)
(3 1.02685e-15 0)
(3 5.35756e-16 0)
(3 1.30068e-15 0)
(3 7.87845e-16 0)
(3 2.69102e-18 0)
(3 1.01435e-17 0)
(3 1.89049e-16 0)
(3 2.03311e-16 0)
(3 -3.91926e-17 0)
(3 -4.0744e-18 0)
(3 -2.91816e-16 0)
(3 -3.05989e-16 0)
(3 -5.52458e-16 0)
(3 -2.93666e-16 0)
(3 4.68446e-16 0)
(3 4.00425e-16 0)
(3 3.70945e-17 0)
(3 -5.45892e-17 0)
(3 6.32202e-16 0)
(3 1.1401e-15 0)
(3 3.92214e-16 0)
(3 3.44635e-16 0)
(3 2.41997e-16 0)
(3 4.06793e-16 0)
(3 3.75079e-16 0)
(3 3.46694e-16 0)
(3 5.06597e-16 0)
(3 -1.33136e-16 0)
(2.9319 0.0280921 0)
(2.84893 0.0573581 0)
(2.756 0.143038 0)
(2.66537 0.246317 0)
(2.57727 0.346204 0)
(2.50685 0.438774 0)
(2.41546 0.549563 0)
(2.35227 0.629366 0)
(2.31192 0.721173 0)
(2.25561 0.796065 0)
(2.2495 0.855243 0)
(2.28509 0.886282 0)
(2.33022 0.894069 0)
(2.33436 0.893206 0)
(2.34324 0.884031 0)
(2.34601 0.866925 0)
(2.34639 0.859312 0)
(2.34237 0.851559 0)
(2.33812 0.847665 0)
(2.34269 0.848223 0)
(2.34548 0.849075 0)
(2.34881 0.850717 0)
(2.35419 0.851653 0)
(2.36147 0.854227 0)
(2.99857 0.00148053 0)
(2.99029 0.0118212 0)
(2.96151 0.0483047 0)
(2.90072 0.132457 0)
(2.80324 0.275507 0)
(2.68777 0.457676 0)
(2.51604 0.695004 0)
(2.40579 0.892651 0)
(2.21831 1.07402 0)
(2.15748 1.10398 0)
(2.14391 1.03668 0)
(2.1965 0.995845 0)
(2.24694 0.947773 0)
(2.29297 0.901526 0)
(2.33744 0.848694 0)
(2.35156 0.826324 0)
(2.35495 0.836455 0)
(2.35204 0.838744 0)
(2.35167 0.838874 0)
(2.35376 0.842669 0)
(2.35436 0.846315 0)
(2.35441 0.852429 0)
(2.35828 0.856098 0)
(2.36394 0.862272 0)
(3 4.74376e-07 0)
(3.00002 1.34536e-05 0)
(3 -5.87784e-05 0)
(2.99984 0.000144387 0)
(2.9986 0.00198663 0)
(2.99167 0.0118604 0)
(2.9635 0.0570421 0)
(2.90676 0.16417 0)
(2.75834 0.425658 0)
(2.58897 0.710052 0)
(2.4642 0.837484 0)
(2.33519 0.933131 0)
(2.28754 0.91723 0)
(2.29664 0.89856 0)
(2.31634 0.879982 0)
(2.34725 0.868335 0)
(2.35304 0.864315 0)
(2.35523 0.85038 0)
(2.35934 0.837947 0)
(2.36262 0.840051 0)
(2.36388 0.847824 0)
(2.36349 0.854185 0)
(2.36895 0.85637 0)
(2.37705 0.860592 0)
(3 -6.68793e-12 0)
(3 -4.70121e-07 0)
(3 -1.2482e-06 0)
(3 -1.53563e-06 0)
(3.00001 -8.92771e-06 0)
(2.99999 2.25169e-05 0)
(3 -2.74036e-05 0)
(2.99937 0.00104087 0)
(2.98851 0.0188189 0)
(2.9013 0.165563 0)
(2.77944 0.410034 0)
(2.41156 0.818126 0)
(2.33267 0.889993 0)
(2.28794 0.936113 0)
(2.29469 0.942972 0)
(2.30894 0.926505 0)
(2.32571 0.892897 0)
(2.34811 0.85329 0)
(2.35884 0.836277 0)
(2.3631 0.837073 0)
(2.36835 0.845108 0)
(2.37346 0.853266 0)
(2.38148 0.855774 0)
(2.39008 0.859334 0)
(3 -1.27882e-11 0)
(3 1.65764e-09 0)
(3 -6.22458e-08 0)
(3 -1.45134e-07 0)
(3 -7.19764e-07 0)
(3 -6.54349e-07 0)
(3 -1.33819e-06 0)
(3 -2.46551e-06 0)
(3.00004 -9.01856e-05 0)
(2.99935 0.000843939 0)
(2.98615 0.0199824 0)
(2.8607 0.178101 0)
(2.6488 0.466827 0)
(2.45944 0.713768 0)
(2.29608 0.926129 0)
(2.27643 0.91161 0)
(2.30536 0.880612 0)
(2.3209 0.865156 0)
(2.34344 0.861386 0)
(2.35266 0.859386 0)
(2.36823 0.849915 0)
(2.37658 0.845603 0)
(2.38573 0.850385 0)
(2.39535 0.854894 0)
(3 -1.30744e-12 0)
(3 1.41293e-10 0)
(3 3.56507e-10 0)
(3 -1.4892e-09 0)
(3 -8.58397e-10 0)
(3 -5.2669e-08 0)
(3 -3.93197e-08 0)
(3 -2.13597e-07 0)
(3 -6.50941e-06 0)
(3 -6.23712e-06 0)
(3.00002 -5.18623e-05 0)
(2.99858 0.00181593 0)
(2.97226 0.0382117 0)
(2.84695 0.201699 0)
(2.50562 0.610015 0)
(2.38742 0.761669 0)
(2.30616 0.873626 0)
(2.29533 0.894516 0)
(2.30205 0.887691 0)
(2.32665 0.868564 0)
(2.3499 0.848578 0)
(2.36262 0.849052 0)
(2.3791 0.843368 0)
(2.39594 0.844951 0)
(3 -1.46348e-14 0)
(3 1.26946e-13 0)
(3 2.34814e-11 0)
(3 1.64656e-11 0)
(3 1.63631e-11 0)
(3 -3.38665e-11 0)
(3 -6.42435e-10 0)
(3 -4.21529e-10 0)
(3 -2.6507e-08 0)
(3 -4.5385e-07 0)
(3 -4.99083e-06 0)
(3.00001 -1.6584e-05 0)
(2.99999 5.72664e-06 0)
(2.99644 0.00506105 0)
(2.92399 0.0927387 0)
(2.76287 0.315006 0)
(2.48203 0.656718 0)
(2.31288 0.848087 0)
(2.30459 0.849999 0)
(2.31367 0.846121 0)
(2.33123 0.846303 0)
(2.34999 0.853728 0)
(2.37709 0.846894 0)
(2.38843 0.839681 0)
(3 -2.15617e-16 0)
(3 -2.53767e-15 0)
(3 1.59644e-14 0)
(3 9.90862e-13 0)
(3 2.59764e-12 0)
(3 2.28511e-12 0)
(3 1.14105e-12 0)
(3 3.9718e-12 0)
(3 -7.36849e-11 0)
(3 1.2353e-09 0)
(3 -4.84535e-08 0)
(3 -1.42412e-06 0)
(3 -1.85407e-06 0)
(3.00001 -1.6065e-05 0)
(2.99956 0.000629886 0)
(2.98745 0.0208339 0)
(2.89962 0.136956 0)
(2.5686 0.523214 0)
(2.40523 0.726754 0)
(2.32971 0.848094 0)
(2.31626 0.870774 0)
(2.33128 0.866379 0)
(2.3575 0.852205 0)
(2.38 0.83861 0)
(3 2.49652e-15 0)
(3 2.46236e-15 0)
(3 2.33825e-15 0)
(3 1.71935e-15 0)
(3 3.28043e-14 0)
(3 1.61068e-13 0)
(3 4.04083e-13 0)
(3 6.61363e-13 0)
(3 4.42531e-12 0)
(3 2.72203e-12 0)
(3 1.96869e-10 0)
(3 -1.6144e-08 0)
(3 -1.07172e-07 0)
(3 -3.46828e-06 0)
(3.00001 -4.63151e-06 0)
(3 -3.13171e-06 0)
(2.99789 0.00381924 0)
(2.93913 0.0790889 0)
(2.78994 0.292939 0)
(2.48558 0.669492 0)
(2.35464 0.817635 0)
(2.35173 0.836622 0)
(2.35837 0.836621 0)
(2.37301 0.838354 0)
(3 -2.21143e-15 0)
(3 8.57537e-16 0)
(3 1.01975e-15 0)
(3 1.30644e-15 0)
(3 1.56046e-15 0)
(3 2.29747e-15 0)
(3 9.93661e-15 0)
(3 4.31886e-14 0)
(3 3.21931e-13 0)
(3 5.26531e-13 0)
(3 2.35123e-11 0)
(3 5.02887e-11 0)
(3 -2.53961e-10 0)
(3 -8.21419e-08 0)
(3 -7.73108e-07 0)
(3 -1.26608e-06 0)
(3.00001 -1.23573e-05 0)
(2.99935 0.00111749 0)
(2.98667 0.0237776 0)
(2.86907 0.184271 0)
(2.56562 0.559852 0)
(2.47132 0.719404 0)
(2.36867 0.843312 0)
(2.36917 0.848687 0)
(3 -6.99285e-16 0)
(3 8.77791e-16 0)
(3 8.93152e-16 0)
(3 1.23583e-15 0)
(3 8.45671e-16 0)
(3 1.65645e-15 0)
(3 -2.81656e-17 0)
(3 -1.25691e-15 0)
(3 3.06225e-15 0)
(3 4.10958e-14 0)
(3 5.31188e-13 0)
(3 1.46221e-11 0)
(3 1.41236e-11 0)
(3 2.68669e-10 0)
(3 -1.43105e-08 0)
(3 -1.1247e-07 0)
(3 -1.64651e-06 0)
(3 -6.87763e-06 0)
(2.99994 8.77622e-05 0)
(2.99446 0.00945519 0)
(2.92165 0.111904 0)
(2.76163 0.377995 0)
(2.4743 0.745132 0)
(2.43198 0.757165 0)
(3 1.5801e-15 0)
(3 1.79081e-15 0)
(3 2.44112e-15 0)
(3 3.00986e-15 0)
(3 2.78347e-15 0)
(3 3.34984e-16 0)
(3 -6.45844e-16 0)
(3 -5.37116e-16 0)
(3 8.50594e-16 0)
(3 4.46759e-15 0)
(3 5.97697e-15 0)
(3 3.10194e-13 0)
(3 2.18182e-12 0)
(3 3.25116e-11 0)
(3 8.38281e-11 0)
(3 -1.60916e-09 0)
(3 -3.40169e-08 0)
(3 -1.59768e-06 0)
(3 -1.87737e-06 0)
(2.99999 3.74612e-06 0)
(2.99822 0.00357276 0)
(2.97574 0.044602 0)
(2.80181 0.299618 0)
(2.61848 0.558649 0)
(3 3.09826e-15 0)
(3 3.22843e-15 0)
(3 3.43745e-15 0)
(3 3.66357e-15 0)
(3 3.61555e-15 0)
(3 6.04797e-16 0)
(3 -2.35419e-16 0)
(3 1.30767e-16 0)
(3 1.25989e-15 0)
(3 1.45242e-15 0)
(3 1.12805e-15 0)
(3 4.73273e-16 0)
(3 4.1405e-14 0)
(3 8.6504e-13 0)
(3 2.00604e-11 0)
(3 1.57278e-11 0)
(3 -9.70198e-12 0)
(3 -4.52044e-08 0)
(3 -5.59369e-07 0)
(3 -4.93381e-07 0)
(3 -4.94039e-06 0)
(2.99964 0.000718833 0)
(2.98434 0.0285081 0)
(2.93508 0.128519 0)
(3 3.68042e-15 0)
(3 3.3086e-15 0)
(3 2.99126e-15 0)
(3 3.24359e-15 0)
(3 3.07546e-15 0)
(3 8.51028e-16 0)
(3 7.33667e-16 0)
(3 4.65907e-16 0)
(3 4.45618e-17 0)
(3 3.39498e-16 0)
(3 2.51762e-16 0)
(3 1.76377e-16 0)
(3 5.69305e-16 0)
(3 4.41531e-15 0)
(3 4.59668e-13 0)
(3 4.73615e-12 0)
(3 7.28054e-12 0)
(3 9.72435e-12 0)
(3 -2.44167e-08 0)
(3 -1.00958e-07 0)
(3 -8.78653e-07 0)
(3 -3.24311e-06 0)
(2.99987 0.000299426 0)
(2.99808 0.00478535 0)
(3 2.69224e-15 0)
(3 2.57068e-15 0)
(3 1.74977e-15 0)
(3 1.39816e-15 0)
(3 7.8147e-16 0)
(3 6.991e-16 0)
(3 1.04013e-15 0)
(3 1.54332e-15 0)
(3 6.42406e-16 0)
(3 -1.63991e-16 0)
(3 -1.01472e-15 0)
(3 -1.15093e-15 0)
(3 1.52959e-17 0)
(3 9.1197e-16 0)
(3 2.11299e-15 0)
(3 2.62608e-13 0)
(3 2.36209e-12 0)
(3 3.39243e-12 0)
(3 -1.7758e-11 0)
(3 -3.90804e-09 0)
(3 -5.26683e-08 0)
(3 -1.03473e-06 0)
(3 -3.69762e-07 0)
(3.00001 -3.56995e-05 0)
(3 6.93137e-16 0)
(3 9.49795e-16 0)
(3 5.51765e-16 0)
(3 -8.38288e-16 0)
(3 -1.51054e-15 0)
(3 -7.89909e-17 0)
(3 1.70893e-15 0)
(3 1.61529e-15 0)
(3 -6.21858e-17 0)
(3 -1.75769e-15 0)
(3 5.22533e-17 0)
(3 2.31519e-15 0)
(3 1.57944e-15 0)
(3 1.25603e-15 0)
(3 -9.75627e-16 0)
(3 3.29533e-15 0)
(3 8.9522e-14 0)
(3 1.22911e-12 0)
(3 6.24428e-13 0)
(3 -2.24222e-11 0)
(3 -5.70001e-10 0)
(3 -9.22517e-08 0)
(3 -1.5441e-07 0)
(3.00001 -8.9567e-06 0)
(3 2.30007e-16 0)
(3 1.13252e-17 0)
(3 -9.55642e-17 0)
(3 -1.0132e-15 0)
(3 -9.3585e-16 0)
(3 1.42316e-15 0)
(3 2.12758e-15 0)
(3 4.29605e-16 0)
(3 -5.22827e-17 0)
(3 -2.73824e-16 0)
(3 9.89347e-16 0)
(3 2.88549e-15 0)
(3 3.1703e-15 0)
(3 2.98663e-15 0)
(3 1.43259e-15 0)
(3 -1.17983e-15 0)
(3 -1.93458e-13 0)
(3 -1.06463e-12 0)
(3 -8.4069e-13 0)
(3 2.23567e-11 0)
(3 5.69966e-10 0)
(3 9.22517e-08 0)
(3 1.5441e-07 0)
(3.00001 8.9567e-06 0)
(3 -1.61801e-15 0)
(3 3.86929e-16 0)
(3 5.57423e-16 0)
(3 7.67542e-16 0)
(3 5.51937e-16 0)
(3 1.52168e-15 0)
(3 1.63676e-15 0)
(3 6.98443e-16 0)
(3 9.57221e-16 0)
(3 4.70327e-16 0)
(3 5.44418e-17 0)
(3 5.08869e-16 0)
(3 1.99533e-15 0)
(3 3.3145e-15 0)
(3 1.70134e-15 0)
(3 -2.44668e-13 0)
(3 -2.46176e-12 0)
(3 -3.32871e-12 0)
(3 1.78423e-11 0)
(3 3.90814e-09 0)
(3 5.26684e-08 0)
(3 1.03473e-06 0)
(3 3.69762e-07 0)
(3.00001 3.56995e-05 0)
(3 5.60504e-16 0)
(3 1.44616e-15 0)
(3 2.11579e-15 0)
(3 2.54658e-15 0)
(3 1.76676e-15 0)
(3 4.40372e-16 0)
(3 -2.28957e-16 0)
(3 2.31962e-16 0)
(3 -5.42401e-16 0)
(3 -6.44669e-16 0)
(3 -9.49714e-16 0)
(3 -6.41311e-16 0)
(3 -1.58408e-15 0)
(3 -1.2918e-15 0)
(3 -4.58882e-13 0)
(3 -4.6956e-12 0)
(3 -7.29942e-12 0)
(3 -9.73998e-12 0)
(3 2.44167e-08 0)
(3 1.00958e-07 0)
(3 8.78653e-07 0)
(3 3.24311e-06 0)
(2.99987 -0.000299426 0)
(2.99808 -0.00478535 0)
(3 2.27758e-15 0)
(3 1.94292e-15 0)
(3 2.16167e-15 0)
(3 2.72904e-15 0)
(3 2.48691e-15 0)
(3 -7.25985e-16 0)
(3 -2.15e-15 0)
(3 -1.91194e-16 0)
(3 1.23899e-15 0)
(3 8.95042e-16 0)
(3 3.90199e-16 0)
(3 -2.22997e-15 0)
(3 -4.01092e-14 0)
(3 -8.5953e-13 0)
(3 -2.00608e-11 0)
(3 -1.57207e-11 0)
(3 9.6992e-12 0)
(3 4.52044e-08 0)
(3 5.59369e-07 0)
(3 4.93381e-07 0)
(3 4.94039e-06 0)
(2.99964 -0.000718833 0)
(2.98434 -0.0285081 0)
(2.93508 -0.128519 0)
(3 7.92234e-16 0)
(3 1.44102e-15 0)
(3 1.16935e-15 0)
(3 1.16805e-15 0)
(3 2.62124e-15 0)
(3 -1.62123e-16 0)
(3 2.97619e-16 0)
(3 3.02367e-16 0)
(3 2.16538e-15 0)
(3 -5.42685e-17 0)
(3 -1.39135e-15 0)
(3 -3.0704e-13 0)
(3 -2.18127e-12 0)
(3 -3.25105e-11 0)
(3 -8.38286e-11 0)
(3 1.60916e-09 0)
(3 3.40169e-08 0)
(3 1.59768e-06 0)
(3 1.87737e-06 0)
(2.99999 -3.74612e-06 0)
(2.99822 -0.00357276 0)
(2.97574 -0.044602 0)
(2.80181 -0.299618 0)
(2.61848 -0.558649 0)
(3 -4.57761e-16 0)
(3 -1.09452e-16 0)
(3 -2.2234e-16 0)
(3 -1.87819e-15 0)
(3 -1.48824e-15 0)
(3 2.15205e-16 0)
(3 2.00165e-15 0)
(3 3.39174e-15 0)
(3 -9.18399e-16 0)
(3 -3.93319e-14 0)
(3 -5.29144e-13 0)
(3 -1.46265e-11 0)
(3 -1.41304e-11 0)
(3 -2.68677e-10 0)
(3 1.43105e-08 0)
(3 1.1247e-07 0)
(3 1.64651e-06 0)
(3 6.87763e-06 0)
(2.99994 -8.77622e-05 0)
(2.99446 -0.00945519 0)
(2.92165 -0.111904 0)
(2.76163 -0.377995 0)
(2.4743 -0.745132 0)
(2.43198 -0.757165 0)
(3 -3.11765e-15 0)
(3 -2.75527e-15 0)
(3 -1.77515e-15 0)
(3 -2.51043e-15 0)
(3 -4.0283e-15 0)
(3 -7.73789e-16 0)
(3 -7.34799e-15 0)
(3 -4.05087e-14 0)
(3 -3.21701e-13 0)
(3 -5.29587e-13 0)
(3 -2.3519e-11 0)
(3 -5.02945e-11 0)
(3 2.53955e-10 0)
(3 8.21419e-08 0)
(3 7.73108e-07 0)
(3 1.26608e-06 0)
(3.00001 1.23573e-05 0)
(2.99935 -0.00111749 0)
(2.98667 -0.0237776 0)
(2.86907 -0.184271 0)
(2.56562 -0.559852 0)
(2.47132 -0.719404 0)
(2.36867 -0.843312 0)
(2.36917 -0.848687 0)
(3 -3.69117e-15 0)
(3 -2.24954e-15 0)
(3 -2.64401e-15 0)
(3 -2.44484e-15 0)
(3 -3.57082e-14 0)
(3 -1.63329e-13 0)
(3 -4.03658e-13 0)
(3 -6.60292e-13 0)
(3 -4.42989e-12 0)
(3 -2.72712e-12 0)
(3 -1.96874e-10 0)
(3 1.61441e-08 0)
(3 1.07172e-07 0)
(3 3.46828e-06 0)
(3.00001 4.63151e-06 0)
(3 3.13171e-06 0)
(2.99789 -0.00381924 0)
(2.93913 -0.0790889 0)
(2.78994 -0.292939 0)
(2.48558 -0.669492 0)
(2.35464 -0.817635 0)
(2.35173 -0.836622 0)
(2.35837 -0.836621 0)
(2.37301 -0.838354 0)
(3 -1.29048e-15 0)
(3 1.5192e-15 0)
(3 -1.60605e-14 0)
(3 -9.90279e-13 0)
(3 -2.59609e-12 0)
(3 -2.28275e-12 0)
(3 -1.13995e-12 0)
(3 -3.97053e-12 0)
(3 7.36811e-11 0)
(3 -1.2353e-09 0)
(3 4.84535e-08 0)
(3 1.42412e-06 0)
(3 1.85407e-06 0)
(3.00001 1.6065e-05 0)
(2.99956 -0.000629886 0)
(2.98745 -0.0208339 0)
(2.89962 -0.136956 0)
(2.5686 -0.523214 0)
(2.40523 -0.726754 0)
(2.32971 -0.848094 0)
(2.31626 -0.870774 0)
(2.33128 -0.866379 0)
(2.3575 -0.852205 0)
(2.38 -0.83861 0)
(3 1.25571e-14 0)
(3 -1.28865e-13 0)
(3 -2.34842e-11 0)
(3 -1.64677e-11 0)
(3 -1.63643e-11 0)
(3 3.38677e-11 0)
(3 6.42437e-10 0)
(3 4.21532e-10 0)
(3 2.6507e-08 0)
(3 4.5385e-07 0)
(3 4.99082e-06 0)
(3.00001 1.65841e-05 0)
(2.99999 -5.72664e-06 0)
(2.99644 -0.00506105 0)
(2.92399 -0.0927387 0)
(2.76287 -0.315006 0)
(2.48203 -0.656718 0)
(2.31288 -0.848087 0)
(2.30459 -0.849999 0)
(2.31367 -0.846121 0)
(2.33123 -0.846303 0)
(2.34999 -0.853728 0)
(2.37709 -0.846894 0)
(2.38843 -0.839681 0)
(3 1.30589e-12 0)
(3 -1.41295e-10 0)
(3 -3.56508e-10 0)
(3 1.4892e-09 0)
(3 8.584e-10 0)
(3 5.26691e-08 0)
(3 3.93197e-08 0)
(3 2.13597e-07 0)
(3 6.50941e-06 0)
(3 6.23712e-06 0)
(3.00002 5.18623e-05 0)
(2.99858 -0.00181593 0)
(2.97226 -0.0382117 0)
(2.84695 -0.201699 0)
(2.50562 -0.610015 0)
(2.38742 -0.761669 0)
(2.30616 -0.873626 0)
(2.29533 -0.894516 0)
(2.30205 -0.887691 0)
(2.32665 -0.868564 0)
(2.3499 -0.848578 0)
(2.36262 -0.849052 0)
(2.3791 -0.843368 0)
(2.39594 -0.844951 0)
(3 1.27879e-11 0)
(3 -1.65764e-09 0)
(3 6.22459e-08 0)
(3 1.45134e-07 0)
(3 7.19764e-07 0)
(3 6.5435e-07 0)
(3 1.33819e-06 0)
(3 2.46551e-06 0)
(3.00004 9.01856e-05 0)
(2.99935 -0.000843939 0)
(2.98615 -0.0199824 0)
(2.8607 -0.178101 0)
(2.6488 -0.466827 0)
(2.45944 -0.713768 0)
(2.29608 -0.926129 0)
(2.27643 -0.91161 0)
(2.30536 -0.880612 0)
(2.3209 -0.865156 0)
(2.34344 -0.861386 0)
(2.35266 -0.859386 0)
(2.36823 -0.849915 0)
(2.37658 -0.845603 0)
(2.38573 -0.850385 0)
(2.39535 -0.854894 0)
(3 6.68854e-12 0)
(3 4.70122e-07 0)
(3 1.2482e-06 0)
(3 1.53563e-06 0)
(3.00001 8.92772e-06 0)
(2.99999 -2.25169e-05 0)
(3 2.74036e-05 0)
(2.99937 -0.00104087 0)
(2.98851 -0.0188189 0)
(2.9013 -0.165563 0)
(2.77944 -0.410034 0)
(2.41156 -0.818126 0)
(2.33267 -0.889993 0)
(2.28794 -0.936113 0)
(2.29469 -0.942972 0)
(2.30894 -0.926505 0)
(2.32571 -0.892897 0)
(2.34811 -0.85329 0)
(2.35884 -0.836277 0)
(2.3631 -0.837073 0)
(2.36835 -0.845108 0)
(2.37346 -0.853266 0)
(2.38148 -0.855774 0)
(2.39008 -0.859334 0)
(3 -4.74376e-07 0)
(3.00002 -1.34535e-05 0)
(3 5.87784e-05 0)
(2.99984 -0.000144387 0)
(2.9986 -0.00198663 0)
(2.99167 -0.0118604 0)
(2.9635 -0.0570421 0)
(2.90676 -0.16417 0)
(2.75834 -0.425658 0)
(2.58897 -0.710052 0)
(2.4642 -0.837484 0)
(2.33519 -0.933131 0)
(2.28754 -0.91723 0)
(2.29664 -0.89856 0)
(2.31634 -0.879982 0)
(2.34725 -0.868335 0)
(2.35304 -0.864315 0)
(2.35523 -0.85038 0)
(2.35934 -0.837947 0)
(2.36262 -0.840051 0)
(2.36388 -0.847824 0)
(2.36349 -0.854185 0)
(2.36895 -0.85637 0)
(2.37705 -0.860592 0)
(2.99857 -0.00148053 0)
(2.99029 -0.0118212 0)
(2.96151 -0.0483047 0)
(2.90072 -0.132457 0)
(2.80324 -0.275507 0)
(2.68777 -0.457676 0)
(2.51604 -0.695004 0)
(2.40579 -0.892651 0)
(2.21831 -1.07402 0)
(2.15748 -1.10398 0)
(2.14391 -1.03668 0)
(2.1965 -0.995845 0)
(2.24694 -0.947773 0)
(2.29297 -0.901526 0)
(2.33744 -0.848694 0)
(2.35156 -0.826324 0)
(2.35495 -0.836455 0)
(2.35204 -0.838744 0)
(2.35167 -0.838874 0)
(2.35376 -0.842669 0)
(2.35436 -0.846315 0)
(2.35441 -0.852429 0)
(2.35828 -0.856098 0)
(2.36394 -0.862272 0)
(2.9319 -0.0280921 0)
(2.84893 -0.0573581 0)
(2.756 -0.143038 0)
(2.66537 -0.246317 0)
(2.57727 -0.346204 0)
(2.50685 -0.438774 0)
(2.41546 -0.549563 0)
(2.35227 -0.629366 0)
(2.31192 -0.721173 0)
(2.25561 -0.796065 0)
(2.2495 -0.855243 0)
(2.28509 -0.886282 0)
(2.33022 -0.894069 0)
(2.33436 -0.893206 0)
(2.34324 -0.884031 0)
(2.34601 -0.866925 0)
(2.34639 -0.859312 0)
(2.34237 -0.851559 0)
(2.33812 -0.847665 0)