/*--------------------------------*- C++ -*----------------------------------*\
  =========                 |
  \\      /  F ield         | OpenFOAM: The Open Source CFD Toolbox
   \\    /   O peration     | Website:  https://openfoam.org
    \\  /    A nd           | Version:  7
     \\/     M anipulation  |
\*---------------------------------------------------------------------------*/
FoamFile
{
    version     2.0;
    format      ascii;
    class       volScalarField;
    location    "3.7";
    object      p;
}
// * * * * * * * * * * * * * * * * * * * * * * * * * * * * * * * * * * * * * //

dimensions      [1 -1 -2 0 0 0 0];

internalField   nonuniform List<scalar> 
18432
(
1
1
1
1
1
1
1
1
1
1
1
1
1
1
1
1
1
1
1
1
1
1
1
1
1
1
1
1
1
1
1
1
1
1
1
1
1
1
1
1
1
1
1
1
1
1
1
1
1
1
1
1
1
1
1
1
1
1
1
1
1
1
1
1
1
1
1
1
1
1
1
1
1
1
1
1
1
1
1
1
1
1
1
1
1
1
1
1
1
1
1
1
1
1
1
1
1
1
1
1
1
1
1
1
1
1
1
1
1
1
1
1
1
1
1
1
1
1
1
1
1
1
1
1
1
1
1
1
1
1
1
1
1
1
1
1
1
1
1
1
1
1
1
1
1
1
1
1
1
1
1
1
1
1
1
1
1
1
1
1
1
1
1
1
1
1
1
1
1
1
1
1
1
1
1
1
1
1
1
1
1
1
1
1
1
1
1
1
1
1
1
1
1
1
1
1
1
1
1
1
1
1
1
1
1
1
1
1
1
1
1
1
1
1
1
1
1
1
1
1
1
1
1
1
1
1
1
1
1
1
1
1
1
1
1
1
1
1
1
1
1
1
1
1
1
1
1
1
1
1
1
1
1
1
1
1
1
1
1
1
1
1
1
1
1
1
1
1
1
1
1
1
1
1
1
1
1
1
1
1
1
1
1
1
1
1
1
1
1
1
1
1
1
1
1
1
1
1
1
1
1
1
1
1
1
1
1
1
1
1
1
1
1
1
1
1
1
1
1
1
1
1
1
1
1
1
1
1
1
1
1
1
1
1
1
1
1
1
1
1
1
1
1
1
1
1
1
1
1
1
1
1
1
1
1
1
1
1
1
1
1
1
1
1
1
1
1
1
1
1
1
1
1
1
1
1
1
1
1
1
1
1
1
1
1
1
1
1
1
1
1
1
1
1
1
1
1
1
1
1
1
1
1
1
1
1
1
1
1
1
1
1
1
1
1
1
1
1
1
1
1
1
1
1
1
1
1
1
1
1
1
1
1
1
1
1
1
1
1
1
1
1
1
1
1
1
1
1
1
1
1
1
1
1
1
1
1
1
1
1
1
1
1
1
1
1
1
1
1
1
1
1
1
1
1
1
1
1
1
1
1
1
1
1
1
1
1
1
1
1
1
1
1
1
1
1
1
1
1
1
1
1
1
1
1
1
1
1
1
1
1
1
1
1
1
1
1
1
1
1
1
1
1
1
1
1
1
1
1
1
1
1
1
1
1
1
1
1
1
1
1
1
1
1
1
1
1
1
1
1
1
1
1
1
1
1
1
1
1
1
1
1
1
1
1
1
1
1
1
1
1
1
1
1
1
1
1
1
1
1
1
1
1
1
1
1
1
1
1
1
1
1
1
1
1
1
1
1
1
1
1
1
1
1
1
1
1
1
1
1
1
1
1
1
1
1
1
1
1
1
1
1
1
1
1
1
1
1
1
1
1
1
1
1
1
1
1
1
1
1
1
1
1
1
1
1
1
1
1
1
1
1
1
1
1
1
1
1
1
1
1
1
1
1
1
1
1
1
1
1
1
1
1
1
1
1
1
1
1
1
1
1
1
1
1
1
1
1
1
1
1
1
1
1
1
1
1
1
1
1
1
1
1
1
1
1
1
1
1
1
1
1
1
1
1
1
1
1
1
1
1
1
1
1
1
1
1
1
1
1
1
1
1
1
1
1
1
1
1
1
1
1
1
1
1
1
1
1
1
1
1
1
1
1
1
1
1
1
1
1
1
1
1
1
1
1
1
1
1
1
1
1
1
1
1
1
1
1
1
1
1
1
1
1
1
1
1
1
1
1
1
1
1
1
1
1
1
1
1
1
1
1
1
1
1
1
1
1
1
1
1
1
1
1
1
1
1
1
1
1
1
1
1
1
1
1
1
1
1
1
1
1
1
1
1
1
1
1
1
1
1
1
1
1
1
1
1
1
1
1
1
1
1
1
1
1
1
1
1
1
1
1
1
1
1
1
1
1
1
1
1
1
1
1
1
1
1
1
1
1
1
1
1
1
1
1
1
1
1
1
1
1
1
1
1
1
1
1
1
1
1
1
1
1
1
1
1
1
1
1
1
1
1
1
1
1
1
1
1
1
1
1
1
1
1
1
1
1
1
1
1
1
1
1
1
1
1
1
1
1
1
1
1
1
1
1
1
1
1
1
1
1
1
1
1
1
1
1
1
1
1
1
1
1
1
1
1
1
1
1
1
1
1
1
1
1
1
1
1
1
1
1
1
1
1
1
1
1
1
1
1
1
1
1
1
1
1
1
1
1
1
1
1
1
1
1
1
1
1
1
1
1
1
1
1
1
1
1
1
1
1
1
1
1
1
1
1
1
1
1
1
1
1
1
1
1
1
1
1
1
1
1
1
1
1
1
1
1
1
1
1
1
1
1
1
1
1
1
1
1
1
1
1
1
1
1
1
1
1
1
1
1
1
1
1
1
1
1
1
1
1
1
1
1
1
1
1
1
1
1
1
1
1
1
1
1
1
1
1
1
1
1
1
1
1
1
1
1
1
1
1
1
1
1
1
1
1
1
1
1
1
1
1
1
1
1
1
1
1
1
1
1
1
1
1
1
1
1
1
1
1
1
1
1
1
1
1
1
1
1
1
1
1
1
1
1
1
1
1
1
1
1
1
1
1
1
1
1
1
1
1
1
1
1
1
1
1
1
1
1
1
1
1
1
1
1
1
1
1
1
1
1
1
1
1
1
1
1
1
1
1
1
1
1
1
1
1
1
1
1
1
1
1
1
1
1
1
1
1
1
1
1
1
1
1
1
1
1
1
1
1
1
1
1
1
1
1
1
1
1
1
1
1
1
1
1
1
1
1
1
1
1
1
1
1
1
1
1
1
1
1
1
1
1
1
1
1
1
1
1
1
1
1
1
1
1
1
1
1
1
1
1
1
1
1
1
1
1
1
1
1
1
1
1
1
1
1
1
1
1
1
1
1
1
1
1
1
1
1
1
1
1
1
1
1
1
1
1
1
1
1
1
1
1
1
1
1
1
1
1
1
1
1
1
1
1
1
1
1
1
1
1
1
1
1
1
1
1
1
1
1
1
1
1
1
1
1
1
1
1
1
1
1
1
1
1
1
1
1
1
1
1
1
1
1
1
1
1
1
1
1
1
1
1
1
1
1
1
1
1
1
1
1
1
1
1
1
1
1
1
1
1
1
1
1
1
1
1
1
1
1
1
1
1
1
1
1
1
1
1
1
1
1
1
1
1
1
1
1
1
1
1
1
1
1
1
1
1
1
1
1
1
1
1
1
1
1
1
1
1
1
1
1
1
1
1
1
1
1
1
1
1
1
1
1
1
1
1
1
1
1
1
1
1
1
1
1
1
1
1
1
1
1
1
1
1
1
1
1
1
1
1
1
1
1
1
1
1
1
1
1
1
1
1
1
1
1
1
1
1
1
1
1
1
1
1
1
1
1
1
1
1
1
1
1
1
1
1
1
1
1
1
1
1
1
1
1
1
1
1
1
1
1
1
1
1
1
1
1
1
1
1
1
1
1
1
1
1
1
1
1
1
1
1
1
1
1
1
1
1
1
1
1
1
1
1
1
1
1
1
1
1
1
1
1
1
1
1
1
1
1
1
1
1
1
1
1
1
1
1
1
1
1
1
1
1
1
1
1
1
1
1
1
1
1
1
1
1
1
1
1
1
1
1
1
1
1
1
1
1
1
1
1
1
1
1
1
1
1
1
1
1
1
1
1
1
1
1
1
1
1
1
1
1
1
1
1
1
1
1
1
1
1
1
1
1
1
1
1
1
1
1
1
1
1
1
1
1
1
1
1
1
1
1
1
1
1
1
1
1
1
1
1
1
1
1
1
1
1
1
1
1
1
1
1
1
1
1
1
1
1
1
1
1
1
1
1
1
1
1
1
1
1
1
1
1
1
1
1
1
1
1
1
1
1
1
1
1
1
1
1
1
1
1
1
1
1
1
1
1
1
1
1
1
1
1
1
1
1
1
1
1
1
1
1
1
1
1
1
1
1
1
1
1
1
1
1
1
1
1
1
1
1
1
1
1
1
1
1
1
1
1
1
1
1
1
1
1
1
1
1
1
1
1
1
1
1
1
1
1
1
1
1
1
1
1
1
1
1
1
1
1
1
1
1
1
1
1
1
1
1
1
1
1
1
1
1
1
1
1
1
1
1
1
1
1
1
1
1
1
1
1
1
1
1
1
1
1
1
1
1
1
1
1
1
1
1
1
1
1
1
1
1
1
1
1
1
1
1
1
1
1
1
1
1
1
1
1
1
1
1
1
1
1
1
1
1
1
1
1
1
1
1
1
1
1
1
1
1
1
1
1
1
1
1
1
1
1
1
1
1
1
1
1
1
1
1
1
1
1
1
1
1
1
1
1
1
1
1
1
1
1
1
1
1
1
1
1
1
1
1
1
1
1
1
1
1
1
1
1
1
1
1
1
1
1
1
1
1
1
1
1
1
1
1
1
1
1
1
1
1
1
1
1
1
1
1
1
1
1
1
1
1
1
1
1
1
1
1
1
1
1
1
1
1
1
1
1
1
1
1
1
1
1
1
1
1
1
1
1
1
1
1
1
1
1
1
1
1
1
1
1
1
1
1
1
1
1
1
1
1
1
1
1
1
1
1
1
1
1
1
1
1
1
1
1
1
1
1
1
1
1
1
1
1
1
1
1
1
1
1
1
1
1
1
1
1
1
1
1
1
1
1
1
1
1
1
1
1
1
1
1
1
1
1
1
1
1
1
1
1
1
1
1
1
1
1
1
1
1
1
1
1
1
1
1
1
1
1
1
1
1
1
1
1
1
1
1
1
1
1
1
1
1
1
1
1
1
1
1
1
1
1
1
1
1
1
1
1
1
1
1
1
1
1
1
1
1
1
1
1
1
1
1
1
1
1
1
1
1
1
1
1
1
1
1
1
1
1
1
1
1
1
1
1
1
1
1
1
1
1
1
1
1
1
1
1
1
1
1
1
1
1
1
1
1
1
1
1
1
1
1
1
1
1
1
1
1
1
1
1
1
1
1
1
1
1
1
1
1
1
1
1
1
1
1
1
1
1
1
1
1
1
1
1
1
1
1
1
1
1
1
1
1
1
1
1
1
1
1
1
1
1
1
1
1
1
1
1
1
1
1
1
1
1
1
1
1
1
1
1
1
1
1
1
1
1
1
1
1
1
1
1
1
1
1
1
1
1
1
1
1
1
1
1
1
1
1
1
1
1
1
1
1
1
1
1
1
1
1
1
1
1
1
1
1
1
1
1
1
1
1
1
1
1
1
1
1
1
1
1
1
1
1
1
1
1
1
1
1
1
1
1
1
1
1
1
1
1
1
1
1
1
1
1
1
1
1
1
1
1
1
1
1
1
1
1
1
1
1
1
1
1
1
1
1
1
1
1
1
1
1
1
1
1
1
1
1
1
1
1
1
1
1
1
1
1
1
1
1
1
1
1
1
1
1
1
1
1
1
1
1
1
1
1
1
1
1
1
1
1
1
1
1
1
1
1
1
1
1
1
1
1
1
1
1
1
1
1
1
1
1
1
1
1
1
1
1
1
1
1
1
1
1
1
1
1
1
1
1
1
1
1
1
1
1
1
1
1
1
1
1
1
1
1
1
1
1
1
1
1
1
1
1
1
1
1
1
1
1
1
1
1
1
1
1
1
1
1
1
1
1
1
1
1
1
1
1
1
1
1
1
1
1
1
1
1
1
1
1
1
1
1
1
1
1
1
1
1
1
1
1
1
1
1
1
1
1
1
1
1
1
1
1
1
1
1
1
1
1
1
1
1
1
1
1
1
1
1
1
1
1
1
1
1
1
1
1
1
1
1
1
1
1
1
1
1
1
1
1
1
1
1
1
1
1
1
1
1
1
1
1
1
1
1
1
1
1
1
1
1
1
1
1
1
1
1
1
1
1
1
1
1
1
1
1
1
1
1
1
1
1
1
1
1
1
1
1
1
1
1
1
1
1
1
1
1
1
1
1
1
1
1
1
1
1
1
1
1
1
1
1
1
1
1
1
1
1
1
1
1
1
1
1
1
1
1
1
1
1
1
1
1
1
1
1
1
1
1
1
1
1
1
1
1
1
1
1
1
1
1
1
1
1
1
1
1
1
1
1
1
1
1
1
1
1
1
1
1
1
1
1
1
1
1
1
1
1
1
1
1
1
1
1
1
1
1
1
1
1
1
1
1
1
1
1
1
1
1
1
1
1
1
1
1
1
1
1
1
1
1
1
1
1
1
1
1
1
1
1
1
1
1
1
1
1
1
1
1
1
1
1
1
1
1
1
1
1
1
1
1
1
1
1
1
1
1
1
1
1
1
1
1
1
1
1
1
1
1
1
1
1
1
1
1
1
1
1
1
1
1
1
1
1
1
1
1
1
1
1
1
1
1
1
1
1
1
1
1
1
1
1
1
1
1
1
1
1
1
1
1
1
1
1
1
1
1
1
1
1
1
1
1
1
1
1
1
1
1
1
1
1
1
1
1
1
1
1
1
1
1
1
1
1
1
1
1
1
1
1
1
1
1
1
1
1
1
1
1
1
1
1
1
1
1
1
1
1
1
1
1
1
1
1
1
1
1
1
1
1
1
1
1
1
1
1
1
1
1
1
1
1
1
1
1
1
1
1
1
1
1
1
1
1
1
1
1
1
1
1
1
1
1
1
1
1
1
1
1
1
1
1
1
1
1
1
1
1
1
1
1
1
1
1
1
1
1
1
1
1
1
1
1
1
1
1
1
1
1
1
1
1
1
1
1
1
1
1
1
1
1
1
1
1
1
1
1
1
1
1
1
1
1
1
1
1
1
1
1
1
1
1
1
1
1
1
1
1
1
1
1
1
1
1
1
1
1
1
1
1
1
1
1
1
1
1
1
1
1
1
1
1
1
1
1
1
1
1
1
1
1
1
1
1
1
1
1
1
1
1
1
1
1.29349
1.73926
2.31696
2.95314
3.50907
4.1799
4.70044
5.06946
5.3318
5.24576
4.95241
4.49804
4.07346
3.75442
3.65315
3.58253
3.56155
3.58992
3.63051
3.66924
3.69408
3.71217
3.72697
3.74317
3.76373
3.77308
3.77537
3.7741
3.76735
3.76288
3.75843
3.75441
3.75408
3.75759
3.76704
3.78297
3.79223
3.79247
3.79084
3.78586
3.77614
3.7707
3.77044
3.77089
3.77307
3.77627
3.77725
3.77595
1.00184
1.02122
1.06491
1.19538
1.42303
1.75048
2.22948
2.74166
3.34514
3.7238
3.91729
4.05396
4.01553
3.93435
3.83858
3.78187
3.72186
3.70377
3.67286
3.6614
3.67195
3.69262
3.71377
3.73365
3.75657
3.77097
3.77589
3.77794
3.77546
3.77126
3.76883
3.76868
3.76995
3.77227
3.77489
3.77712
3.77803
3.77661
3.77341
3.7689
3.76557
3.76536
3.76619
3.76803
3.77244
3.77741
3.77872
3.77916
1
0.999996
1
0.999994
1.00158
1.01227
1.06446
1.22017
1.60723
2.35921
3.30554
3.95609
4.2718
4.31032
4.24734
4.12811
3.97244
3.78263
3.67318
3.64107
3.64751
3.66585
3.68348
3.70466
3.72896
3.7502
3.76421
3.77451
3.78058
3.78198
3.78421
3.78553
3.78594
3.78751
3.78791
3.78617
3.78135
3.77529
3.76928
3.76393
3.76118
3.76087
3.76121
3.76289
3.76786
3.77388
3.77622
3.77899
1
1
1
0.999999
1
0.99998
1.00005
1.00013
1.00529
1.079
1.39354
2.1768
3.03414
3.94427
4.09034
4.02134
3.9921
3.9481
3.83346
3.74235
3.71096
3.6952
3.67338
3.67748
3.697
3.71502
3.73224
3.74848
3.757
3.76346
3.76933
3.77371
3.77683
3.78093
3.7824
3.78152
3.77869
3.77446
3.7702
3.76711
3.76605
3.76619
3.7671
3.76933
3.77368
3.77741
3.77681
3.7785
1
1
1
1
1
0.999999
1
0.999999
1
0.999938
1.0014
1.04856
1.28523
1.98478
2.9087
3.55446
4.05186
4.08952
4.04722
3.94105
3.84519
3.76271
3.71632
3.70162
3.70156
3.71359
3.72593
3.73693
3.74308
3.74916
3.75157
3.75356
3.75511
3.76041
3.76853
3.77029
3.7701
3.76981
3.76871
3.76778
3.76811
3.76995
3.77322
3.77764
3.78225
3.78423
3.78212
3.7827
1
1
1
1
1
1
1
1
1
0.999997
0.999998
0.999951
1.0008
1.02544
1.25499
1.7715
2.74693
3.35577
3.79164
3.9162
3.91012
3.87073
3.8095
3.77504
3.76092
3.74123
3.72235
3.71784
3.72236
3.73424
3.74861
3.75836
3.76555
3.77224
3.77594
3.77624
3.77615
3.77599
3.77451
3.77292
3.77269
3.77371
3.77636
3.78058
3.78288
3.78145
3.77676
3.77431
1
1
1
1
1
1
1
1
1
1
1
0.999997
0.999998
0.999961
1.00083
1.01587
1.17982
1.70668
2.53662
3.30461
3.59808
3.78489
3.82514
3.81993
3.77869
3.72843
3.72252
3.72252
3.72079
3.72444
3.73744
3.75748
3.77873
3.78845
3.78757
3.78451
3.7828
3.78171
3.77943
3.77568
3.77387
3.77288
3.77461
3.77821
3.77804
3.77529
3.76897
3.7658
1
1
1
1
1
1
1
1
1
1
1
1
1
0.999997
0.999998
0.999976
1.00047
1.01688
1.13125
1.62897
2.3424
3.24052
3.58497
3.67976
3.7424
3.69923
3.69072
3.70225
3.70089
3.70338
3.71315
3.73324
3.75368
3.76845
3.77672
3.77704
3.77617
3.77283
3.76957
3.76834
3.76742
3.76826
3.7736
3.77712
3.77774
3.77694
3.77372
3.77131
1
1
1
1
1
1
1
1
1
1
1
1
1
1
1
0.999998
0.999998
0.999982
1.00024
1.01475
1.1162
1.51613
2.29754
3.0389
3.593
3.70501
3.72375
3.73091
3.71722
3.70486
3.7059
3.71294
3.7257
3.73741
3.74959
3.75721
3.76043
3.76152
3.76196
3.76404
3.76549
3.768
3.77349
3.77687
3.77875
3.77898
3.777
3.77443
1
1
1
1
1
1
1
1
1
1
1
1
1
1
1
1
1
0.999998
0.999998
0.999984
1.00029
1.00899
1.12919
1.47935
2.2549
2.94088
3.4823
3.7136
3.75597
3.7413
3.74857
3.75141
3.74835
3.74681
3.75017
3.75724
3.76049
3.7612
3.76204
3.76377
3.76701
3.77253
3.77493
3.77547
3.77708
3.77786
3.7759
3.77255
1
1
1
1
1
1
1
1
1
1
1
1
1
1
1
1
1
1
1
0.999998
0.999998
0.999985
1.00054
1.00885
1.11099
1.50231
2.21805
2.95872
3.37143
3.62643
3.73217
3.75705
3.75465
3.75879
3.75615
3.75499
3.76238
3.76871
3.7748
3.77976
3.7857
3.78846
3.78707
3.78472
3.783
3.78029
3.77603
3.77253
1
1
1
1
1
1
1
1
1
1
1
1
1
1
1
1
1
1
1
1
1
0.999998
0.999998
0.999988
1.00049
1.01247
1.09939
1.52219
2.2053
3.09078
3.42296
3.56196
3.6486
3.70654
3.7177
3.72519
3.73744
3.75265
3.76657
3.77664
3.78008
3.78183
3.78158
3.78065
3.7811
3.7816
3.77984
3.77772
1
1
1
1
1
1
1
1
1
1
1
1
1
1
1
1
1
1
1
1
1
1
1
0.999998
0.999999
0.999992
1.00041
1.01688
1.11686
1.56052
2.32232
3.11215
3.57939
3.64484
3.68358
3.70024
3.70725
3.72311
3.74049
3.75334
3.76174
3.76752
3.77121
3.77092
3.77
3.77037
3.76933
3.76964
1
1
1
1
1
1
1
1
1
1
1
1
1
1
1
1
1
1
1
1
1
1
1
1
1
0.999999
0.999998
1
1.00071
1.01981
1.17132
1.64183
2.4738
3.18525
3.61595
3.74092
3.7433
3.76964
3.77435
3.77025
3.76928
3.77105
3.77106
3.76904
3.76602
3.76293
3.76247
3.76412
1
1
1
1
1
1
1
1
1
1
1
1
1
1
1
1
1
1
1
1
1
1
1
1
1
1
1
1
0.999998
1.00002
1.00174
1.02701
1.25076
1.81326
2.6853
3.26329
3.61322
3.75643
3.77754
3.78522
3.78919
3.78575
3.78307
3.7786
3.77539
3.77453
3.77436
3.77558
1
1
1
1
1
1
1
1
1
1
1
1
1
1
1
1
1
1
1
1
1
1
1
1
1
1
1
1
1
1
0.999997
1.00005
1.00457
1.04809
1.3679
2.07503
3.02779
3.41607
3.56881
3.69385
3.75064
3.75394
3.75653
3.76174
3.77066
3.77629
3.78008
3.78231
1
1
1
1
1
1
1
1
1
1
1
1
1
1
1
1
1
1
1
1
1
1
1
1
1
1
1
1
1
1
1
1
0.999997
1.00021
1.0119
1.1043
1.5797
2.40733
3.29044
3.64591
3.69028
3.71084
3.71305
3.72249
3.74187
3.75754
3.76673
3.77269
1
1
1
1
1
1
1
1
1
1
1
1
1
1
1
1
1
1
1
1
1
1
1
1
1
1
1
1
1
1
1
1
1
0.999999
1.00001
1.00098
1.03083
1.22863
1.92461
2.83387
3.48767
3.738
3.74521
3.7754
3.78239
3.77976
3.77504
3.77568
1
1
1
1
1
1
1
1
1
1
1
1
1
1
1
1
1
1
1
1
1
1
1
1
1
1
1
1
1
1
1
1
1
1
1
0.999998
1.00015
1.00456
1.0893
1.49453
2.40222
3.14454
3.58143
3.76972
3.79225
3.79295
3.79328
3.79267
1
1
1
1
1
1
1
1
1
1
1
1
1
1
1
1
1
1
1
1
1
1
1
1
1
1
1
1
1
1
1
1
1
1
1
1
1
1
1.00114
1.02129
1.24032
1.94586
3.00553
3.48709
3.61837
3.69393
3.74452
3.76003
1
1
1
1
1
1
1
1
1
1
1
1
1
1
1
1
1
1
1
1
1
1
1
1
1
1
1
1
1
1
1
1
1
1
1
1
1
1
0.999999
1.00008
1.00767
1.09942
1.6088
2.56172
3.41933
3.69095
3.73546
3.74605
1
1
1
1
1
1
1
1
1
1
1
1
1
1
1
1
1
1
1
1
1
1
1
1
1
1
1
1
1
1
1
1
1
1
1
1
1
1
1
1
1.00002
1.00141
1.04376
1.33912
2.23217
3.1673
3.67127
3.79751
1
1
1
1
1
1
1
1
1
1
1
1
1
1
1
1
1
1
1
1
1
1
1
1
1
1
1
1
1
1
1
1
1
1
1
1
1
1
1
1
1
1
1.00046
1.01323
1.21813
1.92877
2.98564
3.40147
1
1
1
1
1
1
1
1
1
1
1
1
1
1
1
1
1
1
1
1
1
1
1
1
1
1
1
1
1
1
1
1
1
1
1
1
1
1
1
1
1
1
0.999999
1.00007
1.00785
1.09623
1.69951
2.62803
1
1
1
1
1
1
1
1
1
1
1
1
1
1
1
1
1
1
1
1
1
1
1
1
1
1
1
1
1
1
1
1
1
1
1
1
1
1
1
1
1
1
1
1
1.00003
1.00179
1.07148
1.42828
1
1
1
1
1
1
1
1
1
1
1
1
1
1
1
1
1
1
1
1
1
1
1
1
1
1
1
1
1
1
1
1
1
1
1
1
1
1
1
1
1
1
1
1
1
1
1.0016
1.02037
1
1
1
1
1
1
1
1
1
1
1
1
1
1
1
1
1
1
1
1
1
1
1
1
1
1
1
1
1
1
1
1
1
1
1
1
1
1
1
1
1
1
1
1
1
1
1.00002
0.999862
1
1
1
1
1
1
1
1
1
1
1
1
1
1
1
1
1
1
1
1
1
1
1
1
1
1
1
1
1
1
1
1
1
1
1
1
1
1
1
1
1
1
1
1
1
1
1
0.999946
1
1
1
1
1
1
1
1
1
1
1
1
1
1
1
1
1
1
1
1
1
1
1
1
1
1
1
1
1
1
1
1
1
1
1
1
1
1
1
1
1
1
1
1
1
1
1
0.999992
1
1
1
1
1
1
1
1
1
1
1
1
1
1
1
1
1
1
1
1
1
1
1
1
1
1
1
1
1
1
1
1
1
1
1
1
1
1
1
1
1
1
1
1
1
1
1
1
1
1
1
1
1
1
1
1
1
1
1
1
1
1
1
1
1
1
1
1
1
1
1
1
1
1
1
1
1
1
1
1
1
1
1
1
1
1
1
1
1
1
1
1
1
1
1
1
1
1
1
1
1
1
1
1
1
1
1
1
1
1
1
1
1
1
1
1
1
1
1
1
1
1
1
1
1
1
1
1
1
1
1
1
1
1
1
1
1
1
1
1
1
1
1
1
1
1
1
1
1
1
1
1
1
1
1
1
1
1
1
1
1
1
1
1
1
1
1
1
1
1
1
1
1
1
1
1
1
1
1
1
1
1
1
1
1
1
1
1
1
1
1
1
1
1
1
1
1
1
1
1
1
1
1
1
1
1
1
1
1
1
1
1
1
1
1
1
1
1
1
1
1
1
1
1
1
1
1
1
1
1
1
1
1
1
1
1
1
1
1
1
1
1
1
1
1
1
1
1
1
1
1
1
1
1
1
1
1
1
1
1
1
1
1
1
1
1
1
1
1
1
1
1
1
1
1
1
1
1
1
1
1
1
1
1
1
1
1
1
1
1
1
1
1
1
1
1
1
1
1
1
1
1
1
1
1
1
1
1
1
1
1
1
1
1
1
1
1
1
1
1
1
1
1
1
1
1
1
1
1
1
1
1
1
1
1
0.999992
1
1
1
1
1
1
1
1
1
1
1
1
1
1
1
1
1
1
1
1
1
1
1
1
1
1
1
1
1
1
1
1
1
1
1
1
1
1
1
1
1
1
1
1
1
1
1
0.999947
1
1
1
1
1
1
1
1
1
1
1
1
1
1
1
1
1
1
1
1
1
1
1
1
1
1
1
1
1
1
1
1
1
1
1
1
1
1
1
1
1
1
1
1
1
1
1.00002
0.999863
1
1
1
1
1
1
1
1
1
1
1
1
1
1
1
1
1
1
1
1
1
1
1
1
1
1
1
1
1
1
1
1
1
1
1
1
1
1
1
1
1
1
1
1
1
1
1.00161
1.02025
1
1
1
1
1
1
1
1
1
1
1
1
1
1
1
1
1
1
1
1
1
1
1
1
1
1
1
1
1
1
1
1
1
1
1
1
1
1
1
1
1
1
1
1
1.00003
1.00179
1.0716
1.4273
1
1
1
1
1
1
1
1
1
1
1
1
1
1
1
1
1
1
1
1
1
1
1
1
1
1
1
1
1
1
1
1
1
1
1
1
1
1
1
1
1
1
0.999999
1.00007
1.00784
1.09629
1.69928
2.62769
1
1
1
1
1
1
1
1
1
1
1
1
1
1
1
1
1
1
1
1
1
1
1
1
1
1
1
1
1
1
1
1
1
1
1
1
1
1
1
1
1
1
1.00046
1.01323
1.21802
1.9291
2.98408
3.40186
1
1
1
1
1
1
1
1
1
1
1
1
1
1
1
1
1
1
1
1
1
1
1
1
1
1
1
1
1
1
1
1
1
1
1
1
1
1
1
1
1.00002
1.00141
1.04377
1.33918
2.23199
3.16726
3.67096
3.79759
1
1
1
1
1
1
1
1
1
1
1
1
1
1
1
1
1
1
1
1
1
1
1
1
1
1
1
1
1
1
1
1
1
1
1
1
1
1
0.999999
1.00008
1.00767
1.0994
1.60891
2.56182
3.41899
3.69135
3.73573
3.7461
1
1
1
1
1
1
1
1
1
1
1
1
1
1
1
1
1
1
1
1
1
1
1
1
1
1
1
1
1
1
1
1
1
1
1
1
1
1
1.00114
1.02129
1.24031
1.94581
3.00577
3.48676
3.61827
3.69418
3.7449
3.76002
1
1
1
1
1
1
1
1
1
1
1
1
1
1
1
1
1
1
1
1
1
1
1
1
1
1
1
1
1
1
1
1
1
1
1
0.999998
1.00015
1.00456
1.08931
1.49456
2.40212
3.14462
3.58149
3.76961
3.79229
3.79305
3.79339
3.79264
1
1
1
1
1
1
1
1
1
1
1
1
1
1
1
1
1
1
1
1
1
1
1
1
1
1
1
1
1
1
1
1
1
0.999999
1.00001
1.00098
1.03084
1.22862
1.92462
2.83389
3.48763
3.73802
3.74522
3.77537
3.78241
3.7798
3.77506
3.77567
1
1
1
1
1
1
1
1
1
1
1
1
1
1
1
1
1
1
1
1
1
1
1
1
1
1
1
1
1
1
1
1
0.999997
1.00021
1.0119
1.1043
1.5797
2.40732
3.29046
3.6459
3.69028
3.71083
3.71304
3.7225
3.74189
3.75756
3.76674
3.77269
1
1
1
1
1
1
1
1
1
1
1
1
1
1
1
1
1
1
1
1
1
1
1
1
1
1
1
1
1
1
0.999997
1.00005
1.00457
1.04809
1.3679
2.07503
3.02778
3.41608
3.56881
3.69384
3.75064
3.75394
3.75652
3.76175
3.77067
3.77629
3.78008
3.7823
1
1
1
1
1
1
1
1
1
1
1
1
1
1
1
1
1
1
1
1
1
1
1
1
1
1
1
1
0.999998
1.00002
1.00174
1.02701
1.25076
1.81326
2.6853
3.26329
3.61321
3.75643
3.77754
3.78522
3.78919
3.78576
3.78307
3.7786
3.77539
3.77453
3.77436
3.77558
1
1
1
1
1
1
1
1
1
1
1
1
1
1
1
1
1
1
1
1
1
1
1
1
1
0.999999
0.999998
1
1.00071
1.01981
1.17132
1.64183
2.4738
3.18525
3.61595
3.74092
3.7433
3.76964
3.77435
3.77026
3.76928
3.77105
3.77106
3.76904
3.76602
3.76293
3.76247
3.76411
1
1
1
1
1
1
1
1
1
1
1
1
1
1
1
1
1
1
1
1
1
1
1
0.999998
0.999999
0.999992
1.00041
1.01688
1.11686
1.56052
2.32232
3.11214
3.57939
3.64484
3.68358
3.70024
3.70725
3.72311
3.74049
3.75334
3.76174
3.76752
3.77121
3.77092
3.77
3.77037
3.76933
3.76963
1
1
1
1
1
1
1
1
1
1
1
1
1
1
1
1
1
1
1
1
1
0.999998
0.999998
0.999988
1.00049
1.01247
1.09939
1.52219
2.2053
3.09078
3.42296
3.56196
3.6486
3.70654
3.7177
3.72519
3.73744
3.75265
3.76657
3.77664
3.78008
3.78183
3.78158
3.78065
3.7811
3.7816
3.77984
3.77772
1
1
1
1
1
1
1
1
1
1
1
1
1
1
1
1
1
1
1
0.999998
0.999998
0.999985
1.00054
1.00885
1.11099
1.50231
2.21805
2.95872
3.37143
3.62643
3.73217
3.75705
3.75465
3.75879
3.75615
3.75499
3.76238
3.76871
3.7748
3.77976
3.7857
3.78846
3.78707
3.78472
3.783
3.78029
3.77603
3.77253
1
1
1
1
1
1
1
1
1
1
1
1
1
1
1
1
1
0.999998
0.999998
0.999984
1.00029
1.00899
1.12919
1.47935
2.2549
2.94088
3.4823
3.7136
3.75597
3.7413
3.74857
3.75141
3.74835
3.74681
3.75017
3.75724
3.76049
3.7612
3.76204
3.76377
3.76701
3.77253
3.77493
3.77547
3.77708
3.77786
3.7759
3.77255
1
1
1
1
1
1
1
1
1
1
1
1
1
1
1
0.999998
0.999998
0.999982
1.00024
1.01475
1.1162
1.51613
2.29754
3.0389
3.593
3.70501
3.72375
3.73091
3.71722
3.70486
3.7059
3.71294
3.7257
3.73741
3.74959
3.75721
3.76043
3.76152
3.76196
3.76404
3.76549
3.768
3.77349
3.77687
3.77875
3.77898
3.777
3.77443
1
1
1
1
1
1
1
1
1
1
1
1
1
0.999997
0.999998
0.999976
1.00047
1.01688
1.13125
1.62897
2.3424
3.24052
3.58497
3.67976
3.7424
3.69923
3.69072
3.70225
3.70089
3.70338
3.71315
3.73324
3.75368
3.76845
3.77672
3.77704
3.77617
3.77283
3.76957
3.76834
3.76742
3.76826
3.7736
3.77712
3.77774
3.77694
3.77372
3.77132
1
1
1
1
1
1
1
1
1
1
1
0.999997
0.999998
0.999961
1.00083
1.01587
1.17982
1.70668
2.53662
3.30461
3.59808
3.78488
3.82514
3.81992
3.77869
3.72843
3.72252
3.72252
3.72079
3.72444
3.73744
3.75748
3.77873
3.78845
3.78757
3.78451
3.7828
3.78171
3.77943
3.77568
3.77387
3.77288
3.77461
3.77821
3.77804
3.77529
3.76897
3.7658
1
1
1
1
1
1
1
1
1
0.999997
0.999998
0.999951
1.0008
1.02544
1.25499
1.7715
2.74693
3.35577
3.79164
3.9162
3.91012
3.87073
3.8095
3.77504
3.76092
3.74123
3.72235
3.71784
3.72236
3.73424
3.74861
3.75836
3.76555
3.77224
3.77594
3.77624
3.77615
3.77599
3.77451
3.77292
3.77269
3.77371
3.77636
3.78058
3.78288
3.78145
3.77676
3.77431
1
1
1
1
1
0.999999
1
0.999999
1
0.999938
1.0014
1.04856
1.28523
1.98478
2.9087
3.55446
4.05186
4.08952
4.04722
3.94105
3.84519
3.76271
3.71632
3.70162
3.70156
3.71359
3.72593
3.73693
3.74308
3.74916
3.75157
3.75356
3.75511
3.76041
3.76853
3.77029
3.7701
3.76981
3.76871
3.76778
3.76811
3.76995
3.77322
3.77764
3.78225
3.78423
3.78212
3.7827
1
1
1
0.999999
1
0.99998
1.00005
1.00013
1.00529
1.079
1.39354
2.1768
3.03414
3.94427
4.09034
4.02134
3.9921
3.9481
3.83346
3.74235
3.71096
3.6952
3.67338
3.67748
3.697
3.71502
3.73224
3.74848
3.757
3.76346
3.76933
3.77371
3.77683
3.78093
3.7824
3.78152
3.77869
3.77446
3.7702
3.76711
3.76605
3.76619
3.7671
3.76933
3.77368
3.77741
3.77681
3.7785
1
0.999996
1
0.999994
1.00158
1.01227
1.06446
1.22017
1.60723
2.35921
3.30554
3.95609
4.2718
4.31032
4.24734
4.12811
3.97244
3.78263
3.67318
3.64107
3.64751
3.66585
3.68348
3.70466
3.72896
3.7502
3.76421
3.77451
3.78058
3.78198
3.78421
3.78553
3.78594
3.78751
3.78791
3.78617
3.78135
3.77529
3.76928
3.76393
3.76118
3.76087
3.76121
3.76289
3.76786
3.77388
3.77622
3.77899
1.00184
1.02122
1.06491
1.19538
1.42303
1.75048
2.22948
2.74166
3.34514
3.7238
3.91729
4.05396
4.01553
3.93435
3.83858
3.78187
3.72186
3.70377
3.67286
3.6614
3.67195
3.69262
3.71377
3.73365
3.75657
3.77097
3.77589
3.77794
3.77546
3.77126
3.76883
3.76868
3.76995
3.77227
3.77489
3.77712
3.77803
3.77661
3.77341
3.7689
3.76557
3.76536
3.76619
3.76803
3.77244
3.77741
3.77872
3.77916
1.29349
1.73926
2.31696
2.95314
3.50907
4.1799
4.70044
5.06946
5.3318
5.24576
4.95241
4.49804
4.07346
3.75442
3.65315
3.58253
3.56155
3.58992
3.63051
3.66924
3.69408
3.71217
3.72697
3.74317
3.76373
3.77308
3.77537
3.7741
3.76735
3.76288
3.75843
3.75441
3.75408
3.75759
3.76704
3.78297
3.79223
3.79247
3.79084
3.78586
3.77614
3.7707
3.77044
3.77089
3.77307
3.77627
3.77725
3.77595
2.66759
1.72033
1.05026
0.837703
0.758242
0.668941
0.6619
0.716375
0.791886
0.833397
0.872328
0.949183
1.01956
1.03491
1.03445
1.049
1.06287
1.06095
1.06211
1.06704
1.06597
1.06164
1.06014
1.06388
1.06468
1.05631
1.04504
1.04392
1.04479
1.04484
1.04361
1.0424
1.04163
1.03935
1.03698
1.03699
1.03823
1.04258
1.04931
1.05139
1.05167
1.05153
1.04987
1.04698
1.04694
1.04723
1.04725
1.04871
1.06057
1.23543
1.81109
3.22278
5.2949
7.87284
10.4053
10.2374
9.24129
8.16272
7.87338
7.89167
7.81528
7.658
7.50509
7.31144
7.02956
6.8416
6.73694
6.64138
6.54086
6.39976
6.18215
5.96535
5.84951
5.78139
5.73355
5.66957
5.58693
5.44611
5.19958
4.96532
4.8691
4.82021
4.8054
4.83217
4.80216
4.746
4.6426
4.43041
4.22825
4.14684
4.10473
4.07496
4.05246
4.01359
3.95927
3.86408
3.71653
3.62915
3.59205
3.561
3.52814
3.49015
3.43257
3.32597
3.21978
3.18046
3.15707
3.13462
3.11172
3.08589
3.05234
2.99246
2.88646
2.79383
2.75334
2.72595
2.7002
2.67863
2.66048
2.64259
2.62305
2.59335
2.52693
2.4303
2.36722
2.33616
2.31542
2.30017
2.28703
2.27137
2.25158
2.21916
2.17045
2.13031
2.10775
2.08945
2.06629
2.03264
1.98581
1.93982
1.9146
1.90461
1.89913
1.89722
1.92288
2.06539
2.41723
2.99743
3.73985
4.37293
4.94738
5.43952
5.52051
5.48706
5.42537
5.3115
5.20682
5.12371
5.03905
4.94625
4.87701
4.85153
4.83015
4.80113
4.76224
4.70939
4.61809
4.49877
4.44191
4.41689
4.39889
4.40397
4.43154
4.41759
4.39296
4.35452
4.26192
4.13985
4.09045
4.06937
4.0514
4.03647
4.0175
3.99577
3.96479
3.90521
3.83949
3.81242
3.79136
3.76847
3.75156
3.71686
3.36831
2.79391
2.19217
1.68706
1.4842
1.29173
1.09649
1.05389
1.00865
0.946344
0.915492
0.924964
0.945491
0.952337
0.958992
0.979296
1.00138
1.00709
1.01368
1.02826
1.04385
1.04805
1.05211
1.05707
1.05694
1.05097
1.04589
1.04603
1.04743
1.04882
1.04824
1.04759
1.04721
1.04483
1.04302
1.04258
1.043
1.0459
1.04927
1.04989
1.05007
1.04996
1.04863
1.04684
1.04585
1.04465
1.0456
1.05936
1.23824
1.95019
2.74548
3.16984
3.92229
4.83573
6.74543
8.13832
8.61129
8.36015
8.09274
7.96502
7.80612
7.67048
7.53016
7.34411
7.09653
6.83535
6.68664
6.59835
6.49711
6.3734
6.22234
6.05124
5.89748
5.77929
5.70579
5.63808
5.54972
5.42213
5.24547
5.06597
4.94015
4.86436
4.81789
4.7843
4.75545
4.69773
4.6
4.44572
4.28991
4.1925
4.12613
4.07815
4.04101
4.01178
3.96844
3.87997
3.74866
3.66353
3.62522
3.59262
3.55785
3.51553
3.45497
3.35991
3.26464
3.21845
3.19012
3.1636
3.13647
3.10726
3.07019
3.00866
2.90271
2.79986
2.75557
2.73334
2.71252
2.68879
2.66509
2.6433
2.62175
2.58736
2.52582
2.44512
2.38843
2.35797
2.33671
2.32115
2.30889
2.2927
2.27025
2.23654
2.19038
2.15183
2.12924
2.10914
2.08403
2.04611
1.99246
1.95088
1.92747
1.92128
1.92374
1.95794
2.11955
2.49704
2.89677
3.16192
3.44595
3.83879
4.23082
4.63703
4.90183
5.16205
5.29626
5.28973
5.24041
5.15198
5.05546
4.97222
4.91322
4.87977
4.84859
4.81344
4.77235
4.71903
4.63678
4.52849
4.45577
4.42439
4.40754
4.40766
4.41733
4.40371
4.37839
4.34076
4.26852
4.16769
4.11283
4.09231
4.07362
4.05425
4.03348
4.01003
3.97766
3.92192
3.86134
3.83168
3.80999
3.78719
3.76849
3.7318
3.66568
3.33586
2.87987
2.35948
1.97297
1.68749
1.3906
1.22631
1.14268
1.03196
0.946494
0.944999
0.950035
0.936614
0.93677
0.94577
0.954822
0.96275
0.974312
0.999817
1.02997
1.03672
1.03955
1.04503
1.04738
1.04599
1.04619
1.04877
1.05323
1.05658
1.05645
1.05488
1.0505
1.04472
1.04315
1.04298
1.04413
1.04696
1.04778
1.04791
1.04798
1.04695
1.04587
1.04586
1.04563
1.04859
1.07433
1.26672
2.15189
2.94105
3.2875
3.35059
3.43885
3.55347
4.15514
5.94756
7.99891
8.61845
8.35798
7.85942
7.64575
7.61738
7.52822
7.36461
7.17316
6.92746
6.67323
6.52565
6.39858
6.27625
6.18455
6.10357
5.97436
5.82459
5.68378
5.56952
5.45853
5.3345
5.21948
5.13998
5.0595
4.95557
4.84209
4.75819
4.68522
4.60041
4.49472
4.3896
4.32017
4.25513
4.17601
4.10086
4.04402
3.98718
3.91858
3.83226
3.74987
3.6833
3.6129
3.54996
3.50748
3.46841
3.41742
3.35011
3.27556
3.2023
3.15502
3.12414
3.09454
3.06192
3.01916
2.95802
2.88544
2.81928
2.76939
2.73418
2.71406
2.70315
2.68875
2.6648
2.62189
2.54886
2.47142
2.42949
2.41095
2.38942
2.35459
2.3027
2.26688
2.2544
2.23774
2.21201
2.18025
2.15275
2.12323
2.08987
2.05426
2.01595
1.98085
1.95877
1.94906
1.95896
2.03385
2.24245
2.67045
3.06587
3.19886
3.27479
3.32509
3.41417
3.60113
3.96078
4.44035
4.92102
5.13949
5.25874
5.2527
5.19121
5.08368
5.00899
4.95002
4.88074
4.81047
4.76669
4.73613
4.69469
4.63339
4.55976
4.48817
4.44117
4.41809
4.40239
4.38927
4.3685
4.33765
4.29729
4.24206
4.19115
4.14569
4.09626
4.05648
4.03054
4.0077
3.98324
3.95239
3.91018
3.85973
3.81463
3.78708
3.76564
3.74741
3.7101
3.75599
3.62009
3.32956
2.90453
2.48221
2.14475
1.81084
1.57013
1.44442
1.2954
1.13315
1.10602
1.06478
0.988986
0.968865
0.968545
0.953887
0.940437
0.944016
0.960028
0.979822
0.99253
1.00092
1.01405
1.0293
1.0339
1.03866
1.04785
1.05335
1.05425
1.05459
1.05336
1.04949
1.04701
1.04675
1.04842
1.05354
1.0559
1.05517
1.05348
1.05074
1.04576
1.04375
1.04418
1.04977
1.11307
1.3887
2.17382
3.27277
3.40519
3.38656
3.39162
3.40343
3.35711
3.35414
3.68713
5.10095
7.34201
7.79758
7.73581
7.66009
7.61798
7.55551
7.39048
7.23405
7.03096
6.71164
6.45817
6.33312
6.23991
6.16297
6.08326
6.00602
5.88097
5.66963
5.47407
5.37172
5.30966
5.26881
5.23033
5.15778
5.05218
4.8887
4.70441
4.5769
4.49238
4.4384
4.40032
4.36877
4.31869
4.24621
4.14845
4.0302
3.9292
3.86638
3.82568
3.78367
3.72348
3.6418
3.55477
3.48999
3.44962
3.41696
3.37624
3.30598
3.21975
3.16177
3.1265
3.09199
3.04744
2.98787
2.92483
2.87751
2.84018
2.79727
2.75916
2.72325
2.68982
2.66085
2.6295
2.58382
2.52204
2.46492
2.43794
2.41965
2.39895
2.36889
2.31954
2.262
2.23407
2.22414
2.2123
2.19484
2.17262
2.14174
2.09416
2.03925
2.00086
1.98675
1.98904
2.0094
2.14739
2.4507
2.8483
3.24018
3.31398
3.3433
3.35764
3.36236
3.34122
3.33925
3.4259
3.65415
4.08075
4.5297
4.88362
5.08192
5.11745
5.11982
5.09361
5.01969
4.90197
4.80653
4.75767
4.73094
4.69143
4.64078
4.5833
4.53491
4.48709
4.42608
4.38479
4.36526
4.34002
4.30622
4.2725
4.24725
4.21897
4.17353
4.11315
4.06341
4.02912
3.99917
3.96895
3.93916
3.90915
3.86968
3.82167
3.78416
3.76325
3.74777
3.7092
3.77148
3.73676
3.5997
3.30354
2.92764
2.59479
2.21885
1.9319
1.75685
1.57035
1.36014
1.26625
1.18839
1.07858
1.00614
0.997235
0.973443
0.946286
0.948165
0.96098
0.963738
0.963153
0.965264
0.974087
0.991816
1.00929
1.02318
1.0382
1.04489
1.04779
1.04949
1.04855
1.04383
1.04286
1.04658
1.05467
1.06004
1.06028
1.05932
1.05659
1.05141
1.04562
1.04483
1.04901
1.14515
1.65302
2.3798
3.24109
3.54707
3.5233
3.43039
3.37599
3.36461
3.35255
3.27764
3.24796
3.39214
4.36376
6.27651
7.36726
7.61256
7.54375
7.43566
7.31634
7.20144
7.04873
6.75675
6.44916
6.31337
6.23146
6.16222
6.07814
5.98081
5.85139
5.63188
5.42097
5.34571
5.2929
5.25433
5.20771
5.14083
5.05573
4.89436
4.65285
4.51289
4.45963
4.41829
4.38526
4.35021
4.30642
4.25973
4.1761
4.02475
3.90279
3.83774
3.78615
3.738
3.68901
3.62828
3.55316
3.49661
3.44973
3.39994
3.34967
3.29632
3.22999
3.16076
3.1026
3.05507
3.00925
2.96382
2.92266
2.88518
2.84502
2.80628
2.77395
2.7484
2.70529
2.64577
2.58509
2.53706
2.50881
2.49165
2.4737
2.45344
2.42997
2.39891
2.35045
2.28423
2.22867
2.19813
2.18091
2.16531
2.14728
2.12283
2.08469
2.03624
2.01527
2.01852
2.06465
2.24667
2.66985
3.04741
3.35624
3.41809
3.38369
3.35364
3.35205
3.364
3.34213
3.31968
3.292
3.2854
3.36611
3.68705
4.17297
4.70195
5.02929
5.11731
5.08919
4.98786
4.88981
4.80796
4.75495
4.71598
4.66897
4.62018
4.59012
4.56508
4.52539
4.46236
4.38411
4.33583
4.30968
4.28561
4.25828
4.22854
4.19921
4.17107
4.13664
4.08265
4.02596
3.98601
3.95623
3.92956
3.90333
3.87599
3.83954
3.79416
3.75435
3.73175
3.68777
3.77243
3.75532
3.71455
3.5598
3.27678
2.98078
2.63935
2.30369
2.07479
1.86454
1.64591
1.5116
1.40718
1.26875
1.16579
1.13419
1.09081
1.02412
1.014
1.00767
0.986301
0.96583
0.962281
0.962481
0.965059
0.972926
0.991883
1.01452
1.0225
1.02718
1.03335
1.0368
1.0361
1.03722
1.04526
1.05615
1.05881
1.0592
1.05913
1.05638
1.04964
1.04813
1.05339
1.14188
1.79284
2.72016
3.25574
3.5425
3.56457
3.52674
3.45742
3.36242
3.30607
3.29976
3.26378
3.20448
3.16137
3.21545
3.7726
5.30443
6.67036
7.09253
7.25137
7.30733
7.21165
7.02677
6.77009
6.4831
6.31367
6.22884
6.15237
6.06236
5.96243
5.84181
5.64586
5.42415
5.32239
5.26662
5.22587
5.1899
5.12682
5.0463
4.89947
4.66192
4.4975
4.44162
4.4017
4.37812
4.35906
4.31945
4.26662
4.17129
4.01483
3.88096
3.81268
3.76352
3.7177
3.67373
3.63009
3.57878
3.50619
3.43637
3.38619
3.34613
3.30565
3.24836
3.15516
3.06909
3.01725
2.98015
2.94875
2.92045
2.89095
2.86171
2.83595
2.8062
2.74684
2.67123
2.60207
2.55655
2.52435
2.49766
2.47515
2.4542
2.43024
2.40304
2.37051
2.32991
2.28298
2.23245
2.1908
2.1658
2.15136
2.13726
2.11664
2.08713
2.04613
2.05994
2.18055
2.45071
2.9328
3.27608
3.44864
3.48666
3.45175
3.37
3.35428
3.35678
3.36956
3.36357
3.33911
3.30795
3.24059
3.17309
3.21066
3.41992
3.88001
4.511
4.84245
4.95072
4.95322
4.93526
4.86414
4.7688
4.68663
4.64221
4.62174
4.60792
4.58848
4.55289
4.49779
4.40931
4.32331
4.28204
4.25996
4.24245
4.22137
4.19819
4.17172
4.13756
4.08885
4.02112
3.96863
3.93998
3.92146
3.90409
3.88367
3.8548
3.81191
3.75133
3.70394
3.65463
3.76347
3.75796
3.73356
3.67007
3.51956
3.28871
2.96695
2.66645
2.41308
2.16084
1.92811
1.76896
1.63065
1.48133
1.36494
1.29458
1.22188
1.11699
1.07789
1.0521
1.01009
0.975317
0.974127
0.972052
0.968485
0.972181
0.982209
0.988386
0.989526
0.991945
0.997939
1.00711
1.01675
1.02746
1.0425
1.05396
1.05581
1.05721
1.0578