/*--------------------------------*- C++ -*----------------------------------*\
  =========                 |
  \\      /  F ield         | OpenFOAM: The Open Source CFD Toolbox
   \\    /   O peration     | Website:  https://openfoam.org
    \\  /    A nd           | Version:  7
     \\/     M anipulation  |
\*---------------------------------------------------------------------------*/
FoamFile
{
    version     2.0;
    format      ascii;
    class       volScalarField;
    location    "3.7";
    object      T;
}
// * * * * * * * * * * * * * * * * * * * * * * * * * * * * * * * * * * * * * //

dimensions      [0 0 0 1 0 0 0];

internalField   nonuniform List<scalar> 
18432
(
1
1
1
1
1
1
1
1
1
1
1
1
1
1
1
1
1
1
1
1
1
1
1
1
1
1
1
1
1
1
1
1
1
1
1
1
1
1
1
1
1
1
1
1
1
1
1
1
1
1
1
1
1
1
1
1
1
1
1
1
1
1
1
1
1
1
1
1
1
1
1
1
1
1
1
1
1
1
1
1
1
1
1
1
1
1
1
1
1
1
1
1
1
1
1
1
1
1
1
1
1
1
1
1
1
1
1
1
1
1
1
1
1
1
1
1
1
1
1
1
1
1
1
1
1
1
1
1
1
1
1
1
1
1
1
1
1
1
1
1
1
1
1
1
1
1
1
1
1
1
1
1
1
1
1
1
1
1
1
1
1
1
1
1
1
1
1
1
1
1
1
1
1
1
1
1
1
1
1
1
1
1
1
1
1
1
1
1
1
1
1
1
1
1
1
1
1
1
1
1
1
1
1
1
1
1
1
1
1
1
1
1
1
1
1
1
1
1
1
1
1
1
1
1
1
1
1
1
1
1
1
1
1
1
1
1
1
1
1
1
1
1
1
1
1
1
1
1
1
1
1
1
1
1
1
1
1
1
1
1
1
1
1
1
1
1
1
1
1
1
1
1
1
1
1
1
1
1
1
1
1
1
1
1
1
1
1
1
1
1
1
1
1
1
1
1
1
1
1
1
1
1
1
1
1
1
1
1
1
1
1
1
1
1
1
1
1
1
1
1
1
1
1
1
1
1
1
1
1
1
1
1
1
1
1
1
1
1
1
1
1
1
1
1
1
1
1
1
1
1
1
1
1
1
1
1
1
1
1
1
1
1
1
1
1
1
1
1
1
1
1
1
1
1
1
1
1
1
1
1
1
1
1
1
1
1
1
1
1
1
1
1
1
1
1
1
1
1
1
1
1
1
1
1
1
1
1
1
1
1
1
1
1
1
1
1
1
1
1
1
1
1
1
1
1
1
1
1
1
1
1
1
1
1
1
1
1
1
1
1
1
1
1
1
1
1
1
1
1
1
1
1
1
1
1
1
1
1
1
1
1
1
1
1
1
1
1
1
1
1
1
1
1
1
1
1
1
1
1
1
1
1
1
1
1
1
1
1
1
1
1
1
1
1
1
1
1
1
1
1
1
1
1
1
1
1
1
1
1
1
1
1
1
1
1
1
1
1
1
1
1
1
1
1
1
1
1
1
1
1
1
1
1
1
1
1
1
1
1
1
1
1
1
1
1
1
1
1
1
1
1
1
1
1
1
1
1
1
1
1
1
1
1
1
1
1
1
1
1
1
1
1
1
1
1
1
1
1
1
1
1
1
1
1
1
1
1
1
1
1
1
1
1
1
1
1
1
1
1
1
1
1
1
1
1
1
1
1
1
1
1
1
1
1
1
1
1
1
1
1
1
1
1
1
1
1
1
1
1
1
1
1
1
1
1
1
1
1
1
1
1
1
1
1
1
1
1
1
1
1
1
1
1
1
1
1
1
1
1
1
1
1
1
1
1
1
1
1
1
1
1
1
1
1
1
1
1
1
1
1
1
1
1
1
1
1
1
1
1
1
1
1
1
1
1
1
1
1
1
1
1
1
1
1
1
1
1
1
1
1
1
1
1
1
1
1
1
1
1
1
1
1
1
1
1
1
1
1
1
1
1
1
1
1
1
1
1
1
1
1
1
1
1
1
1
1
1
1
1
1
1
1
1
1
1
1
1
1
1
1
1
1
1
1
1
1
1
1
1
1
1
1
1
1
1
1
1
1
1
1
1
1
1
1
1
1
1
1
1
1
1
1
1
1
1
1
1
1
1
1
1
1
1
1
1
1
1
1
1
1
1
1
1
1
1
1
1
1
1
1
1
1
1
1
1
1
1
1
1
1
1
1
1
1
1
1
1
1
1
1
1
1
1
1
1
1
1
1
1
1
1
1
1
1
1
1
1
1
1
1
1
1
1
1
1
1
1
1
1
1
1
1
1
1
1
1
1
1
1
1
1
1
1
1
1
1
1
1
1
1
1
1
1
1
1
1
1
1
1
1
1
1
1
1
1
1
1
1
1
1
1
1
1
1
1
1
1
1
1
1
1
1
1
1
1
1
1
1
1
1
1
1
1
1
1
1
1
1
1
1
1
1
1
1
1
1
1
1
1
1
1
1
1
1
1
1
1
1
1
1
1
1
1
1
1
1
1
1
1
1
1
1
1
1
1
1
1
1
1
1
1
1
1
1
1
1
1
1
1
1
1
1
1
1
1
1
1
1
1
1
1
1
1
1
1
1
1
1
1
1
1
1
1
1
1
1
1
1
1
1
1
1
1
1
1
1
1
1
1
1
1
1
1
1
1
1
1
1
1
1
1
1
1
1
1
1
1
1
1
1
1
1
1
1
1
1
1
1
1
1
1
1
1
1
1
1
1
1
1
1
1
1
1
1
1
1
1
1
1
1
1
1
1
1
1
1
1
1
1
1
1
1
1
1
1
1
1
1
1
1
1
1
1
1
1
1
1
1
1
1
1
1
1
1
1
1
1
1
1
1
1
1
1
1
1
1
1
1
1
1
1
1
1
1
1
1
1
1
1
1
1
1
1
1
1
1
1
1
1
1
1
1
1
1
1
1
1
1
1
1
1
1
1
1
1
1
1
1
1
1
1
1
1
1
1
1
1
1
1
1
1
1
1
1
1
1
1
1
1
1
1
1
1
1
1
1
1
1
1
1
1
1
1
1
1
1
1
1
1
1
1
1
1
1
1
1
1
1
1
1
1
1
1
1
1
1
1
1
1
1
1
1
1
1
1
1
1
1
1
1
1
1
1
1
1
1
1
1
1
1
1
1
1
1
1
1
1
1
1
1
1
1
1
1
1
1
1
1
1
1
1
1
1
1
1
1
1
1
1
1
1
1
1
1
1
1
1
1
1
1
1
1
1
1
1
1
1
1
1
1
1
1
1
1
1
1
1
1
1
1
1
1
1
1
1
1
1
1
1
1
1
1
1
1
1
1
1
1
1
1
1
1
1
1
1
1
1
1
1
1
1
1
1
1
1
1
1
1
1
1
1
1
1
1
1
1
1
1
1
1
1
1
1
1
1
1
1
1
1
1
1
1
1
1
1
1
1
1
1
1
1
1
1
1
1
1
1
1
1
1
1
1
1
1
1
1
1
1
1
1
1
1
1
1
1
1
1
1
1
1
1
1
1
1
1
1
1
1
1
1
1
1
1
1
1
1
1
1
1
1
1
1
1
1
1
1
1
1
1
1
1
1
1
1
1
1
1
1
1
1
1
1
1
1
1
1
1
1
1
1
1
1
1
1
1
1
1
1
1
1
1
1
1
1
1
1
1
1
1
1
1
1
1
1
1
1
1
1
1
1
1
1
1
1
1
1
1
1
1
1
1
1
1
1
1
1
1
1
1
1
1
1
1
1
1
1
1
1
1
1
1
1
1
1
1
1
1
1
1
1
1
1
1
1
1
1
1
1
1
1
1
1
1
1
1
1
1
1
1
1
1
1
1
1
1
1
1
1
1
1
1
1
1
1
1
1
1
1
1
1
1
1
1
1
1
1
1
1
1
1
1
1
1
1
1
1
1
1
1
1
1
1
1
1
1
1
1
1
1
1
1
1
1
1
1
1
1
1
1
1
1
1
1
1
1
1
1
1
1
1
1
1
1
1
1
1
1
1
1
1
1
1
1
1
1
1
1
1
1
1
1
1
1
1
1
1
1
1
1
1
1
1
1
1
1
1
1
1
1
1
1
1
1
1
1
1
1
1
1
1
1
1
1
1
1
1
1
1
1
1
1
1
1
1
1
1
1
1
1
1
1
1
1
1
1
1
1
1
1
1
1
1
1
1
1
1
1
1
1
1
1
1
1
1
1
1
1
1
1
1
1
1
1
1
1
1
1
1
1
1
1
1
1
1
1
1
1
1
1
1
1
1
1
1
1
1
1
1
1
1
1
1
1
1
1
1
1
1
1
1
1
1
1
1
1
1
1
1
1
1
1
1
1
1
1
1
1
1
1
1
1
1
1
1
1
1
1
1
1
1
1
1
1
1
1
1
1
1
1
1
1
1
1
1
1
1
1
1
1
1
1
1
1
1
1
1
1
1
1
1
1
1
1
1
1
1
1
1
1
1
1
1
1
1
1
1
1
1
1
1
1
1
1
1
1
1
1
1
1
1
1
1
1
1
1
1
1
1
1
1
1
1
1
1
1
1
1
1
1
1
1
1
1
1
1
1
1
1
1
1
1
1
1
1
1
1
1
1
1
1
1
1
1
1
1
1
1
1
1
1
1
1
1
1
1
1
1
1
1
1
1
1
1
1
1
1
1
1
1
1
1
1
1
1
1
1
1
1
1
1
1
1
1
1
1
1
1
1
1
1
1
1
1
1
1
1
1
1
1
1
1
1
1
1
1
1
1
1
1
1
1
1
1
1
1
1
1
1
1
1
1
1
1
1
1
1
1
1
1
1
1
1
1
1
1
1
1
1
1
1
1
1
1
1
1
1
1
1
1
1
1
1
1
1
1
1
1
1
1
1
1
1
1
1
1
1
1
1
1
1
1
1
1
1
1
1
1
1
1
1
1
1
1
1
1
1
1
1
1
1
1
1
1
1
1
1
1
1
1
1
1
1
1
1
1
1
1
1
1
1
1
1
1
1
1
1
1
1
1
1
1
1
1
1
1
1
1
1
1
1
1
1
1
1
1
1
1
1
1
1
1
1
1
1
1
1
1
1
1
1
1
1
1
1
1
1
1
1
1
1
1
1
1
1
1
1
1
1
1
1
1
1
1
1
1
1
1
1
1
1
1
1
1
1
1
1
1
1
1
1
1
1
1
1
1
1
1
1
1
1
1
1
1
1
1
1
1
1
1
1
1
1
1
1
1
1
1
1
1
1
1
1
1
1
1
1
1
1
1
1
1
1
1
1
1
1
1
1
1
1
1
1
1
1
1
1
1
1
1
1
1
1
1
1
1
1
1
1
1
1
1
1
1
1
1
1
1
1
1
1
1
1
1
1
1
1
1
1
1
1
1
1
1
1
1
1
1
1
1
1
1
1
1
1
1
1
1
1
1
1
1
1
1
1
1
1
1
1
1
1
1
1
1
1
1
1
1
1
1
1
1
1
1
1
1
1
1
1
1
1
1
1
1
1
1
1
1
1
1
1
1
1
1
1
1
1
1
1
1
1
1
1
1
1
1
1
1
1
1
1
1
1
1
1
1
1
1
1
1
1
1
1
1
1
1
1
1
1
1
1
1
1
1
1
1
1
1
1
1
1
1
1
1
1
1
1
1
1
1
1
1
1
1
1
1
1
1
1
1
1
1
1
1
1
1
1
1
1
1
1
1
1
1
1
1
1
1
1
1
1
1
1
1
1
1
1
1
1
1
1
1
1
1
1
1
1
1
1
1
1
1
1
1
1
1
1
1
1
1
1
1
1
1
1
1
1
1
1
1
1
1
1
1
1
1
1
1
1
1
1
1
1
1
1
1
1
1
1
1
1
1
1
1
1
1
1
1
1
1
1
1
1
1
1
1
1
1
1
1
1
1
1
1
1
1
1
1
1
1
1
1
1
1
1
1
1
1
1
1
1
1
1
1
1
1
1
1
1
1
1
1
1
1
1
1
1
1
1
1
1
1
1
1
1
1
1
1
1
1
1
1
1
1
1
1
1
1
1
1
1
1
1
1
1
1
1
1
1
1
1
1
1
1
1
1
1
1
1
1
1
1
1
1
1
1
1
1
1
1
1
1
1
1
1
1
1
1
1
1
1
1
1
1
1
1
1
1
1
1
1
1
1
1
1
1
1
1
1
1
1
1
1
1
1
1
1
1
1
1
1
1
1
1
1
1
1
1
1
1
1
1
1
1
1
1
1
1
1
1
1
1
1
1
1
1
1
1
1
1
1
1
1
1
1
1
1
1
1
1
1
1
1
1
1
1
1
1
1
1
1
1
1
1
1
1
1
1
1
1
1
1
1
1
1
1
1
1
1
1
1
1
1
1
1
1
1
1
1
1
1
1
1
1
1
1
1
1
1
1
1
1
1
1
1
1
1
1
1
1
1
1
1
1
1
1
1
1
1
1
1
1
1
1
1
1
1
1
1
1
1
1
1
1
1
1
1
1
1
1
1
1
1
1
1
1
1
1
1
1
1
1
1
1
1
1
1
1
1
1
1
1
1
1
1
1
1
1
1
1
1
1
1
1
1
1
1
1
1
1
1
1
1
1
1
1
1
1
1
1
1
1
1
1
1
1
1
1
1
1
1
1
1
1
1
1
1
1
1
1
1
1
1
1
1
1
1
1
1
1
1
1
1
1
1
1
1
1
1
1
1
1
1
1
1
1
1
1
1
1
1
1
1
1
1
1
1
1
1
1
1
1
1
1
1
1
1
1
1
1
1
1
1
1
1
1
1
1
1
1
1
1
1
1
1
1
1
1
1
1
1
1
1
1
1
1
1
1
1
1
1
1
1
1
1
1
1
1
1
1
1
1
1
1
1
1
1
1
1
1
1
1
1
1
1
1
1
1
1
1
1
1
1
1
1
1
1
1
1
1
1
1
1
1
1
1
1
1
1
1
1
1
1
1
1
1
1
1
1
1
1
1
1
1
1
1
1
1
1
1
1
1
1
1
1
1
1
1
1
1
1
1
1
1
1
1
1
1
1
1
1
1
1
1
1
1
1
1
1
1
1
1
1
1
1
1
1
1
1
1
1
1
1
1
1
1
1
1
1
1
1
1
1
1
1
1
1
1
1
1
1
1
1
1
1
1
1
1
1
1
1
1
1
1
1
1
1
1
1
1
1
1
1
1
1
1
1
1
1
1
1
1
1
1
1
1
1
1
1
1
1
1
1
1
1
1
1
1
1
1
1
1
1
1
1
1
1
1
1
1
1
1
1
1
1
1
1
1
1
1
1
1
1
1.07876
1.17704
1.28483
1.38844
1.47042
1.5583
1.62239
1.66395
1.69418
1.68945
1.66328
1.61626
1.57112
1.53437
1.52366
1.51669
1.51438
1.51744
1.52197
1.52695
1.53087
1.53401
1.5362
1.53801
1.54007
1.54133
1.54216
1.54267
1.5425
1.54218
1.54162
1.54117
1.54126
1.54211
1.54381
1.54601
1.54717
1.54722
1.54707
1.5465
1.5455
1.54521
1.54536
1.5456
1.54601
1.54646
1.54665
1.54667
1.00058
1.00713
1.0223
1.06631
1.13352
1.21088
1.30154
1.37752
1.45562
1.50461
1.53339
1.55693
1.56278
1.55943
1.55262
1.54797
1.54037
1.53693
1.53171
1.53157
1.53334
1.53645
1.53921
1.54137
1.54364
1.54516
1.54607
1.54684
1.54681
1.54652
1.54609
1.54595
1.54603
1.54643
1.54702
1.54752
1.54767
1.54751
1.54709
1.54653
1.54626
1.54633
1.54658
1.54696
1.54752
1.54804
1.54813
1.54866
1
1
1
0.999999
1.00055
1.00424
1.02238
1.07429
1.18333
1.34694
1.50133
1.58462
1.62031
1.61986
1.61257
1.5997
1.58201
1.55972
1.5447
1.54129
1.5422
1.54487
1.54736
1.5498
1.55214
1.55388
1.55509
1.5562
1.55699
1.55711
1.55715
1.55687
1.55632
1.55607
1.55593
1.55563
1.55501
1.55413
1.55307
1.55212
1.55163
1.55151
1.55151
1.55162
1.55199
1.55239
1.5523
1.55329
1
1
1
1
1
0.999993
1.00001
1.00004
1.00192
1.03013
1.1437
1.34022
1.48278
1.61159
1.61505
1.60241
1.60061
1.59639
1.58241
1.57071
1.56644
1.56424
1.56097
1.56123
1.56301
1.5644
1.56559
1.56684
1.5676
1.56825
1.56842
1.56818
1.5676
1.56728
1.56705
1.56672
1.5661
1.56508
1.56376
1.56257
1.56194
1.56166
1.56149
1.56138
1.56136
1.56129
1.56041
1.56124
1
1
1
1
1
1
1
1
1
0.999975
1.00052
1.0186
1.10495
1.30074
1.47304
1.56297
1.62653
1.62687
1.62095
1.60736
1.59567
1.58512
1.57859
1.57603
1.57458
1.57536
1.57623
1.57701
1.5775
1.57796
1.57752
1.5767
1.57587
1.57592
1.57653
1.57654
1.57614
1.57537
1.57425
1.57316
1.57264
1.57253
1.57252
1.57251
1.57242
1.57198
1.5705
1.5711
1
1
1
1
1
1
1
1
1
0.999999
0.999999
0.99998
1.00028
1.00955
1.0951
1.24699
1.43957
1.53023
1.59144
1.60723
1.60652
1.60179
1.59369
1.5885
1.5858
1.58281
1.58095
1.58019
1.5805
1.58143
1.58221
1.58246
1.58295
1.58369
1.58397
1.5838
1.58332
1.58261
1.5817
1.58096
1.58068
1.58056
1.58049
1.5805
1.58026
1.57945
1.57771
1.57795
1
1
1
1
1
1
1
1
1
1
1
0.999999
0.999999
0.999985
1.00028
1.00583
1.06585
1.22494
1.39661
1.52084
1.56096
1.58613
1.5913
1.59091
1.58647
1.58137
1.58153
1.58137
1.58005
1.58009
1.5811
1.58315
1.58617
1.5875
1.58729
1.58661
1.58592
1.58537
1.5847
1.58413
1.58392
1.58367
1.58367
1.5837
1.5834
1.58261
1.58124
1.58121
1
1
1
1
1
1
1
1
1
1
1
1
1
0.999999
0.999999
0.999991
1.00015
1.00603
1.04803
1.20206
1.35857
1.50238
1.55313
1.56583
1.57778
1.57391
1.57326
1.57451
1.57417
1.5744
1.5756
1.57833
1.58133
1.58357
1.58463
1.58457
1.58426
1.5836
1.58318
1.58319
1.58322
1.5834
1.58395
1.58406
1.58395
1.58365
1.58308
1.58298
1
1
1
1
1
1
1
1
1
1
1
1
1
1
1
0.999999
0.999999
0.999993
1.00008
1.00516
1.04203
1.16685
1.34494
1.47071
1.54886
1.56441
1.56806
1.57071
1.56967
1.56913
1.56977
1.57146
1.57339
1.57507
1.57693
1.5783
1.57893
1.57934
1.57982
1.58059
1.58123
1.58187
1.58256
1.5829
1.58312
1.58317
1.58304
1.58287
1
1
1
1
1
1
1
1
1
1
1
1
1
1
1
1
1
1
1
0.999994
1.00009
1.00309
1.04612
1.15697
1.3315
1.44791
1.52763
1.55842
1.56641
1.5668
1.56937
1.56995
1.56957
1.56969
1.57071
1.57249
1.57364
1.57448
1.57537
1.57628
1.57732
1.5785
1.5792
1.57964
1.58031
1.58082
1.58114
1.58091
1
1
1
1
1
1
1
1
1
1
1
1
1
1
1
1
1
1
1
0.999999
1
0.999995
1.00017
1.00305
1.03885
1.1619
1.32101
1.44591
1.50648
1.54426
1.55968
1.56345
1.56363
1.56514
1.56609
1.56674
1.56836
1.56986
1.57116
1.57225
1.57366
1.57482
1.57543
1.576
1.57662
1.57699
1.57741
1.57715
1
1
1
1
1
1
1
1
1
1
1
1
1
1
1
1
1
1
1
1
1
0.999999
1
0.999996
1.00015
1.00427
1.03476
1.16513
1.31825
1.46344
1.51162
1.53142
1.54416
1.55295
1.55564
1.55758
1.56032
1.56273
1.56439
1.56571
1.56695
1.56822
1.56934
1.5702
1.57107
1.57183
1.57262
1.57249
1
1
1
1
1
1
1
1
1
1
1
1
1
1
1
1
1
1
1
1
1
1
1
1
1
0.999997
1.00013
1.00571
1.04073
1.17332
1.33999
1.4687
1.53084
1.53862
1.54468
1.54949
1.55226
1.55463
1.55633
1.5577
1.55926
1.56134
1.56316
1.56399
1.5645
1.56499
1.56556
1.5658
1
1
1
1
1
1
1
1
1
1
1
1
1
1
1
1
1
1
1
1
1
1
1
1
1
1
1
1
1.00023
1.00667
1.05956
1.1934
1.36516
1.47583
1.53511
1.55263
1.55389
1.55718
1.55697
1.55606
1.55626
1.55774
1.55917
1.55998
1.5599
1.55956
1.5597
1.5602
1
1
1
1
1
1
1
1
1
1
1
1
1
1
1
1
1
1
1
1
1
1
1
1
1
1
1
1
0.999999
1
1.00057
1.00915
1.08517
1.23345
1.40033
1.48677
1.53567
1.55471
1.5557
1.5561
1.5571
1.55784
1.55899
1.55918
1.5587
1.55806
1.55798
1.55834
1
1
1
1
1
1
1
1
1
1
1
1
1
1
1
1
1
1
1
1
1
1
1
1
1
1
1
1
1
1
0.999999
1.00001
1.00151
1.01644
1.12007
1.29052
1.45314
1.50911
1.5289
1.54415
1.55201
1.55371
1.55505
1.55611
1.55647
1.55639
1.55666
1.55737
1
1
1
1
1
1
1
1
1
1
1
1
1
1
1
1
1
1
1
1
1
1
1
1
1
1
1
1
1
1
1
1
0.999999
1.00006
1.00393
1.03585
1.17781
1.35479
1.49483
1.53883
1.5438
1.54812
1.54947
1.55069
1.55227
1.5534
1.55435
1.5556
1
1
1
1
1
1
1
1
1
1
1
1
1
1
1
1
1
1
1
1
1
1
1
1
1
1
1
1
1
1
1
1
1
1
1
1.00031
1.01031
1.07694
1.26035
1.42593
1.51996
1.55308
1.55377
1.55703
1.55694
1.55593
1.55512
1.55571
1
1
1
1
1
1
1
1
1
1
1
1
1
1
1
1
1
1
1
1
1
1
1
1
1
1
1
1
1
1
1
1
1
1
1
0.999999
1.00004
1.00149
1.03032
1.15576
1.35249
1.47209
1.53346
1.55801
1.55846
1.55755
1.55753
1.55803
1
1
1
1
1
1
1
1
1
1
1
1
1
1
1
1
1
1
1
1
1
1
1
1
1
1
1
1
1
1
1
1
1
1
1
1
1
1
1.00035
1.00715
1.07955
1.26339
1.45248
1.52158
1.53708
1.54577
1.55233
1.55512
1
1
1
1
1
1
1
1
1
1
1
1
1
1
1
1
1
1
1
1
1
1
1
1
1
1
1
1
1
1
1
1
1
1
1
1
1
1
1
1.00002
1.00245
1.03369
1.18414
1.38213
1.51467
1.54719
1.55249
1.55451
1
1
1
1
1
1
1
1
1
1
1
1
1
1
1
1
1
1
1
1
1
1
1
1
1
1
1
1
1
1
1
1
1
1
1
1
1
1
1
1
1
1.00044
1.01454
1.10908
1.32438
1.47868
1.5467
1.56132
1
1
1
1
1
1
1
1
1
1
1
1
1
1
1
1
1
1
1
1
1
1
1
1
1
1
1
1
1
1
1
1
1
1
1
1
1
1
1
1
1
1
1.00014
1.0043
1.07295
1.25768
1.45
1.50839
1
1
1
1
1
1
1
1
1
1
1
1
1
1
1
1
1
1
1
1
1
1
1
1
1
1
1
1
1
1
1
1
1
1
1
1
1
1
1
1
1
1
1
1.00002
1.0025
1.03225
1.20624
1.38921
1
1
1
1
1
1
1
1
1
1
1
1
1
1
1
1
1
1
1
1
1
1
1
1
1
1
1
1
1
1
1
1
1
1
1
1
1
1
1
1
1
1
1
1
1.00001
1.00056
1.02353
1.13279
1
1
1
1
1
1
1
1
1
1
1
1
1
1
1
1
1
1
1
1
1
1
1
1
1
1
1
1
1
1
1
1
1
1
1
1
1
1
1
1
1
1
1
1
1
1
1.00048
1.00654
1
1
1
1
1
1
1
1
1
1
1
1
1
1
1
1
1
1
1
1
1
1
1
1
1
1
1
1
1
1
1
1
1
1
1
1
1
1
1
1
1
1
1
1
1
1
1
0.999951
1
1
1
1
1
1
1
1
1
1
1
1
1
1
1
1
1
1
1
1
1
1
1
1
1
1
1
1
1
1
1
1
1
1
1
1
1
1
1
1
1
1
1
1
1
1
1
0.999984
1
1
1
1
1
1
1
1
1
1
1
1
1
1
1
1
1
1
1
1
1
1
1
1
1
1
1
1
1
1
1
1
1
1
1
1
1
1
1
1
1
1
1
1
1
1
1
0.999998
1
1
1
1
1
1
1
1
1
1
1
1
1
1
1
1
1
1
1
1
1
1
1
1
1
1
1
1
1
1
1
1
1
1
1
1
1
1
1
1
1
1
1
1
1
1
1
1
1
1
1
1
1
1
1
1
1
1
1
1
1
1
1
1
1
1
1
1
1
1
1
1
1
1
1
1
1
1
1
1
1
1
1
1
1
1
1
1
1
1
1
1
1
1
1
1
1
1
1
1
1
1
1
1
1
1
1
1
1
1
1
1
1
1
1
1
1
1
1
1
1
1
1
1
1
1
1
1
1
1
1
1
1
1
1
1
1
1
1
1
1
1
1
1
1
1
1
1
1
1
1
1
1
1
1
1
1
1
1
1
1
1
1
1
1
1
1
1
1
1
1
1
1
1
1
1
1
1
1
1
1
1
1
1
1
1
1
1
1
1
1
1
1
1
1
1
1
1
1
1
1
1
1
1
1
1
1
1
1
1
1
1
1
1
1
1
1
1
1
1
1
1
1
1
1
1
1
1
1
1
1
1
1
1
1
1
1
1
1
1
1
1
1
1
1
1
1
1
1
1
1
1
1
1
1
1
1
1
1
1
1
1
1
1
1
1
1
1
1
1
1
1
1
1
1
1
1
1
1
1
1
1
1
1
1
1
1
1
1
1
1
1
1
1
1
1
1
1
1
1
1
1
1
1
1
1
1
1
1
1
1
1
1
1
1
1
1
1
1
1
1
1
1
1
1
1
1
1
1
1
1
1
1
1
1
0.999998
1
1
1
1
1
1
1
1
1
1
1
1
1
1
1
1
1
1
1
1
1
1
1
1
1
1
1
1
1
1
1
1
1
1
1
1
1
1
1
1
1
1
1
1
1
1
1
0.999984
1
1
1
1
1
1
1
1
1
1
1
1
1
1
1
1
1
1
1
1
1
1
1
1
1
1
1
1
1
1
1
1
1
1
1
1
1
1
1
1
1
1
1
1
1
1
1
0.999951
1
1
1
1
1
1
1
1
1
1
1
1
1
1
1
1
1
1
1
1
1
1
1
1
1
1
1
1
1
1
1
1
1
1
1
1
1
1
1
1
1
1
1
1
1
1
1.00048
1.0065
1
1
1
1
1
1
1
1
1
1
1
1
1
1
1
1
1
1
1
1
1
1
1
1
1
1
1
1
1
1
1
1
1
1
1
1
1
1
1
1
1
1
1
1
1.00001
1.00056
1.02357
1.13253
1
1
1
1
1
1
1
1
1
1
1
1
1
1
1
1
1
1
1
1
1
1
1
1
1
1
1
1
1
1
1
1
1
1
1
1
1
1
1
1
1
1
1
1.00002
1.0025
1.03227
1.2062
1.38918
1
1
1
1
1
1
1
1
1
1
1
1
1
1
1
1
1
1
1
1
1
1
1
1
1
1
1
1
1
1
1
1
1
1
1
1
1
1
1
1
1
1
1.00014
1.0043
1.07291
1.25773
1.44977
1.50846
1
1
1
1
1
1
1
1
1
1
1
1
1
1
1
1
1
1
1
1
1
1
1
1
1
1
1
1
1
1
1
1
1
1
1
1
1
1
1
1
1
1.00044
1.01454
1.10911
1.32433
1.47867
1.54666
1.56133
1
1
1
1
1
1
1
1
1
1
1
1
1
1
1
1
1
1
1
1
1
1
1
1
1
1
1
1
1
1
1
1
1
1
1
1
1
1
1
1.00002
1.00245
1.03369
1.18417
1.38214
1.5146
1.54725
1.55253
1.55452
1
1
1
1
1
1
1
1
1
1
1
1
1
1
1
1
1
1
1
1
1
1
1
1
1
1
1
1
1
1
1
1
1
1
1
1
1
1
1.00035
1.00715
1.07954
1.26338
1.45252
1.52153
1.53706
1.54581
1.55238
1.55512
1
1
1
1
1
1
1
1
1
1
1
1
1
1
1
1
1
1
1
1
1
1
1
1
1
1
1
1
1
1
1
1
1
1
1
0.999999
1.00004
1.00149
1.03032
1.15577
1.35247
1.47211
1.53346
1.558
1.55846
1.55756
1.55754
1.55802
1
1
1
1
1
1
1
1
1
1
1
1
1
1
1
1
1
1
1
1
1
1
1
1
1
1
1
1
1
1
1
1
1
1
1
1.00031
1.01031
1.07694
1.26035
1.42593
1.51995
1.55308
1.55377
1.55702
1.55694
1.55594
1.55512
1.5557
1
1
1
1
1
1
1
1
1
1
1
1
1
1
1
1
1
1
1
1
1
1
1
1
1
1
1
1
1
1
1
1
0.999999
1.00006
1.00393
1.03585
1.17781
1.35479
1.49483
1.53883
1.5438
1.54812
1.54947
1.55069
1.55227
1.5534
1.55436
1.5556
1
1
1
1
1
1
1
1
1
1
1
1
1
1
1
1
1
1
1
1
1
1
1
1
1
1
1
1
1
1
0.999999
1.00001
1.00151
1.01644
1.12007
1.29052
1.45314
1.50911
1.5289
1.54415
1.55201
1.55371
1.55505
1.55611
1.55647
1.55639
1.55666
1.55737
1
1
1
1
1
1
1
1
1
1
1
1
1
1
1
1
1
1
1
1
1
1
1
1
1
1
1
1
0.999999
1
1.00057
1.00915
1.08517
1.23345
1.40033
1.48677
1.53567
1.55471
1.5557
1.5561
1.5571
1.55784
1.55899
1.55918
1.5587
1.55806
1.55798
1.55834
1
1
1
1
1
1
1
1
1
1
1
1
1
1
1
1
1
1
1
1
1
1
1
1
1
1
1
1
1.00023
1.00667
1.05956
1.1934
1.36516
1.47583
1.53511
1.55263
1.55389
1.55718
1.55697
1.55606
1.55626
1.55774
1.55917
1.55998
1.5599
1.55956
1.5597
1.5602
1
1
1
1
1
1
1
1
1
1
1
1
1
1
1
1
1
1
1
1
1
1
1
1
1
0.999997
1.00013
1.00571
1.04073
1.17332
1.33999
1.4687
1.53084
1.53862
1.54468
1.54949
1.55226
1.55463
1.55633
1.5577
1.55926
1.56134
1.56316
1.56399
1.5645
1.56499
1.56556
1.5658
1
1
1
1
1
1
1
1
1
1
1
1
1
1
1
1
1
1
1
1
1
0.999999
1
0.999996
1.00015
1.00427
1.03476
1.16513
1.31825
1.46344
1.51162
1.53142
1.54416
1.55295
1.55564
1.55758
1.56032
1.56273
1.56439
1.56571
1.56695
1.56822
1.56934
1.5702
1.57107
1.57183
1.57262
1.57249
1
1
1
1
1
1
1
1
1
1
1
1
1
1
1
1
1
1
1
0.999999
1
0.999995
1.00017
1.00305
1.03885
1.1619
1.32101
1.44591
1.50648
1.54426
1.55968
1.56345
1.56363
1.56514
1.56609
1.56674
1.56836
1.56986
1.57116
1.57225
1.57366
1.57482
1.57543
1.576
1.57662
1.57699
1.57741
1.57715
1
1
1
1
1
1
1
1
1
1
1
1
1
1
1
1
1
1
1
0.999994
1.00009
1.00309
1.04612
1.15697
1.3315
1.44791
1.52763
1.55842
1.56641
1.5668
1.56937
1.56995
1.56957
1.56969
1.57071
1.57249
1.57364
1.57448
1.57537
1.57628
1.57732
1.5785
1.5792
1.57964
1.58031
1.58082
1.58114
1.58091
1
1
1
1
1
1
1
1
1
1
1
1
1
1
1
0.999999
0.999999
0.999993
1.00008
1.00516
1.04203
1.16685
1.34494
1.47071
1.54886
1.56441
1.56806
1.57071
1.56967
1.56913
1.56977
1.57146
1.57339
1.57507
1.57693
1.5783
1.57893
1.57934
1.57982
1.58059
1.58123
1.58187
1.58256
1.5829
1.58312
1.58317
1.58304
1.58287
1
1
1
1
1
1
1
1
1
1
1
1
1
0.999999
0.999999
0.999991
1.00015
1.00603
1.04803
1.20206
1.35857
1.50238
1.55313
1.56583
1.57778
1.57391
1.57326
1.57451
1.57417
1.5744
1.5756
1.57833
1.58133
1.58357
1.58463
1.58457
1.58426
1.5836
1.58318
1.58319
1.58322
1.5834
1.58395
1.58406
1.58395
1.58365
1.58308
1.58298
1
1
1
1
1
1
1
1
1
1
1
0.999999
0.999999
0.999985
1.00028
1.00583
1.06585
1.22494
1.39661
1.52084
1.56096
1.58613
1.5913
1.59091
1.58647
1.58137
1.58153
1.58137
1.58005
1.58009
1.5811
1.58315
1.58617
1.5875
1.58729
1.58661
1.58592
1.58537
1.5847
1.58413
1.58392
1.58367
1.58367
1.5837
1.5834
1.58261
1.58124
1.58121
1
1
1
1
1
1
1
1
1
0.999999
0.999999
0.99998
1.00028
1.00955
1.0951
1.24699
1.43957
1.53023
1.59144
1.60723
1.60652
1.60179
1.59369
1.5885
1.5858
1.58281
1.58095
1.58019
1.5805
1.58143
1.58221
1.58246
1.58295
1.58369
1.58397
1.5838
1.58332
1.58261
1.5817
1.58096
1.58068
1.58056
1.58049
1.5805
1.58026
1.57945
1.57771
1.57795
1
1
1
1
1
1
1
1
1
0.999975
1.00052
1.0186
1.10495
1.30074
1.47304
1.56297
1.62653
1.62687
1.62095
1.60736
1.59567
1.58512
1.57859
1.57603
1.57458
1.57536
1.57623
1.57701
1.5775
1.57796
1.57752
1.5767
1.57587
1.57592
1.57653
1.57654
1.57614
1.57537
1.57425
1.57316
1.57264
1.57253
1.57252
1.57251
1.57242
1.57198
1.5705
1.5711
1
1
1
1
1
0.999993
1.00001
1.00004
1.00192
1.03013
1.1437
1.34022
1.48278
1.61159
1.61505
1.60241
1.60061
1.59639
1.58241
1.57071
1.56644
1.56424
1.56097
1.56123
1.56301
1.5644
1.56559
1.56684
1.5676
1.56825
1.56842
1.56818
1.5676
1.56728
1.56705
1.56672
1.5661
1.56508
1.56376
1.56257
1.56194
1.56166
1.56149
1.56138
1.56136
1.56128
1.56041
1.56124
1
1
1
0.999999
1.00055
1.00424
1.02238
1.07429
1.18333
1.34694
1.50133
1.58462
1.62031
1.61986
1.61257
1.5997
1.58201
1.55972
1.5447
1.54129
1.5422
1.54487
1.54736
1.5498
1.55214
1.55388
1.55509
1.5562
1.55699
1.55711
1.55715
1.55687
1.55632
1.55607
1.55593
1.55563
1.55501
1.55413
1.55307
1.55212
1.55163
1.55151
1.55151
1.55162
1.55199
1.55239
1.5523
1.55329
1.00058
1.00713
1.0223
1.06631
1.13352
1.21088
1.30154
1.37752
1.45562
1.50461
1.53339
1.55693
1.56278
1.55943
1.55262
1.54797
1.54037
1.53693
1.53171
1.53157
1.53334
1.53645
1.53921
1.54137
1.54364
1.54516
1.54607
1.54684
1.54681
1.54652
1.54609
1.54595
1.54603
1.54643
1.54702
1.54752
1.54767
1.54751
1.54709
1.54653
1.54626
1.54633
1.54658
1.54696
1.54752
1.54804
1.54813
1.54866
1.07876
1.17704
1.28483
1.38844
1.47042
1.5583
1.62239
1.66395
1.69418
1.68945
1.66328
1.61626
1.57112
1.53437
1.52366
1.51669
1.51438
1.51744
1.52197
1.52695
1.53087
1.53401
1.5362
1.53801
1.54007
1.54133
1.54216
1.54267
1.5425
1.54218
1.54162
1.54117
1.54126
1.54211
1.54381
1.54601
1.54717
1.54722
1.54707
1.5465
1.5455
1.54521
1.54536
1.5456
1.54601
1.54646
1.54665
1.54667
1.40411
1.24346
1.08441
1.02269
1.01301
0.995428
0.994917
1.02264
1.05144
1.05865
1.06638
1.08914
1.11249
1.11711
1.1162
1.11903
1.11875
1.1167
1.11722
1.11961
1.11912
1.11695
1.11486
1.11474
1.11442
1.11162
1.10823
1.10773
1.10762
1.10721
1.10618
1.10523
1.10471
1.10376
1.10264
1.1025
1.10258
1.1034
1.10517
1.10555
1.10549
1.10522
1.10424
1.10308
1.103
1.10283
1.10231
1.10272
1.10657
1.16609
1.32562
1.57649
1.82241
2.05664
2.25028
2.24154
2.17283
2.095
2.08004
2.08286
2.07714
2.06381
2.05132
2.03717
2.01628
2.00115
1.99155
1.98312
1.97494
1.96361
1.94491
1.92554
1.9147
1.90802
1.90334
1.89758
1.89018
1.87674
1.85175
1.82766
1.81784
1.81295
1.81174
1.81496
1.81223
1.80645
1.79498
1.77075
1.74725
1.73802
1.73349
1.7305
1.72833
1.72427
1.71807
1.70607
1.68668
1.67511
1.67017
1.66585
1.66129
1.65604
1.64799
1.6331
1.61848
1.61312
1.60979
1.60661
1.60342
1.59976
1.59478
1.58552
1.56879
1.55391
1.54732
1.54294
1.53893
1.53563
1.53288
1.53026
1.5274
1.52282
1.51181
1.49496
1.48367
1.47795
1.47401
1.47101
1.46842
1.46549
1.46188
1.4559
1.44678
1.43938
1.43523
1.43161
1.4269
1.42002
1.41042
1.40134
1.39683
1.39552
1.39494
1.39515
1.40086
1.43106
1.49993
1.59756
1.7016
1.77861
1.84354
1.89576
1.90675
1.90322
1.89688
1.88535
1.87442
1.86528
1.85613
1.84701
1.84116
1.83987
1.83863
1.8359
1.83128
1.82457
1.81364
1.79991
1.79307
1.79006
1.78816
1.78903
1.7928
1.79172
1.78959
1.78544
1.7742
1.75908
1.75285
1.75019
1.74792
1.74619
1.74433
1.74246
1.73949
1.73247
1.72369
1.71926
1.71554
1.71176
1.70935
1.70522
1.50101
1.4255
1.32975
1.22997
1.18794
1.14548
1.09415
1.08793
1.07664
1.05846
1.05555
1.06007
1.06897
1.07204
1.07434
1.08
1.08552
1.08722
1.09
1.0961
1.10185
1.10272
1.10335
1.10403
1.10385
1.10214
1.10127
1.10147
1.10182
1.10186
1.1014
1.10096
1.10083
1.10017
1.09941
1.09902
1.09901
1.09961
1.10057
1.10077
1.10077
1.10057
1.09976
1.09899
1.09864
1.09805
1.09861
1.10323
1.16115
1.3591
1.51137
1.56376
1.66554
1.7789
1.9735
2.09347
2.12944
2.11447
2.09894
2.0908
2.08068
2.07002
2.05816
2.04327
2.02408
2.0033
1.99066
1.98296
1.97448
1.96416
1.95102
1.93542
1.92095
1.90984
1.9031
1.89712
1.88918
1.87712
1.85892
1.84018
1.82712
1.8194
1.81485
1.81169
1.80898
1.80285
1.79193
1.77423
1.75579
1.74442
1.73689
1.73165
1.72773
1.7247
1.71983
1.70896
1.69168
1.68035
1.67524
1.67058
1.66573
1.66019
1.65216
1.63889
1.62574
1.61947
1.61539
1.61146
1.60746
1.60321
1.59784
1.5885
1.57199
1.55555
1.5484
1.54494
1.54183
1.53833
1.53466
1.53118
1.52761
1.52196
1.51174
1.49765
1.4875
1.48212
1.47827
1.47521
1.47263
1.46966
1.46579
1.45991
1.45137
1.44421
1.44002
1.43597
1.43096
1.42352
1.41276
1.40444
1.39983
1.39968
1.40043
1.40812
1.44202
1.51519
1.5828
1.62101
1.66117
1.71504
1.76511
1.8129
1.84281
1.87055
1.88437
1.88385
1.87944
1.87064
1.86016
1.85138
1.8463
1.8442
1.84183
1.8383
1.83345
1.82676
1.81675
1.80409
1.79562
1.79203
1.79029
1.7905
1.79206
1.79097
1.78866
1.78453
1.7757
1.76296
1.75608
1.75355
1.75111
1.74873
1.74662
1.7446
1.74162
1.73522
1.72708
1.72218
1.71833
1.71465
1.71205
1.7077
1.53859
1.49743
1.43573
1.35582
1.28959
1.2328
1.16422
1.12437
1.10292
1.07282
1.04865
1.04939
1.0513
1.04758
1.04787
1.05111
1.05429
1.0573
1.06148
1.07002
1.07964
1.08208
1.08309
1.08465
1.08635
1.08693
1.08775
1.08917
1.09082
1.09191
1.09188
1.09153
1.09049
1.08902
1.0887
1.08868
1.08906
1.08993
1.0903
1.0905
1.09062
1.09031
1.08982
1.08973
1.08979
1.09123
1.1002
1.16193
1.38112
1.53669
1.58911
1.59236
1.60244
1.62067
1.70843
1.9225
2.11837
2.15134
2.12932
2.08966
2.07608
2.07559
2.06903
2.05502
2.03852
2.0184
1.99793
1.98523
1.97386
1.96277
1.95452
1.94677
1.93459
1.92054
1.9075
1.89698
1.88645
1.87418
1.86259
1.85383
1.845
1.83413
1.82248
1.81368
1.80571
1.7964
1.78435
1.77206
1.76343
1.75515
1.74559
1.73692
1.73053
1.72386
1.7157
1.70513
1.69422
1.6848
1.67504
1.66671
1.66117
1.65595
1.64928
1.63995
1.62898
1.61854
1.61212
1.60788
1.60356
1.59875
1.59244
1.58304
1.57128
1.56044
1.55245
1.5469
1.54383
1.54228
1.54008
1.5364
1.52954
1.51735
1.50366
1.49607
1.49269
1.48879
1.48237
1.47267
1.46597
1.46359
1.46076
1.45651
1.45097
1.44586
1.44011
1.43358
1.42673
1.41931
1.41243
1.40777
1.40605
1.40843
1.42467
1.46713
1.54537
1.61085
1.62983
1.63903
1.64585
1.65963
1.68751
1.73742
1.79868
1.85407
1.87562
1.88622
1.88525
1.8783
1.86677
1.85874
1.85368
1.8477
1.8409
1.8362
1.83226
1.82688
1.81923
1.81015
1.80194
1.79684
1.79447
1.79282
1.79169
1.78978
1.78654
1.78171
1.77472
1.76778
1.76159
1.75519
1.7502
1.74723
1.74499
1.74285
1.73992
1.73504
1.72803
1.72114
1.71659
1.71324
1.71084
1.70667
1.55629
1.5375
1.49943
1.44083
1.37822
1.3206
1.25535
1.20576
1.17797
1.14119
1.09657
1.08917
1.0776
1.05599
1.05093
1.05136
1.04699
1.04376
1.04517
1.05018
1.0561
1.05996
1.06251
1.06644
1.07145
1.0739
1.07606
1.079
1.08069
1.08149
1.08192
1.08172
1.08088
1.08035
1.08037
1.08117
1.08296
1.08369
1.08353
1.0832
1.08258
1.08127
1.08096
1.08129
1.08342
1.10499
1.1912
1.37238
1.56485
1.6048
1.60926
1.60806
1.60761
1.60056
1.60316
1.65976
1.85832
2.08313
2.10161
2.0938
2.08864
2.08736
2.08336
2.06995
2.05608
2.0389
2.01242
1.99056
1.97881
1.96964
1.96204
1.95435
1.947
1.93515
1.91508
1.89567
1.88527
1.87887
1.87492
1.87073
1.86278
1.85151
1.83433
1.81435
1.79972
1.78976
1.78315
1.77844
1.77465
1.76835
1.75947
1.74762
1.73315
1.72062
1.71254
1.70699
1.70136
1.69311
1.68212
1.6708
1.66216
1.65649
1.65202
1.64659
1.63649
1.62416
1.61644
1.61195
1.60732
1.60079
1.59143
1.58117
1.57318
1.56684
1.55974
1.55349
1.54769
1.54219
1.53774
1.53324
1.52626
1.51595
1.50559
1.50051
1.49693
1.4927
1.48677
1.47754
1.46689
1.46156
1.45959
1.4575
1.4547
1.45085
1.44509
1.43628
1.42571
1.41807
1.41532
1.41582
1.42015
1.44896
1.50813
1.57636
1.63718
1.64946
1.65378
1.65549
1.65595
1.65254
1.65464
1.67
1.70492
1.76251
1.81577
1.85434
1.87408
1.8744
1.87537
1.87311
1.86622
1.85479
1.84542
1.84033
1.8367
1.83123
1.82447
1.81709
1.81142
1.80624
1.7996
1.79528
1.79334
1.79071
1.78674
1.78218
1.77848
1.77443
1.76816
1.76019
1.7541
1.7503
1.74723
1.7442
1.74104
1.73736
1.73176
1.72468
1.71904
1.71585
1.71389
1.70981
1.5672
1.56032
1.54076
1.5007
1.44867
1.39804
1.33353
1.28206
1.24882
1.20883
1.15788
1.13447
1.11392
1.08363
1.06286
1.0603
1.05277
1.0445
1.04532
1.04976
1.05079
1.05059
1.05119
1.05381
1.05912
1.06438
1.06857
1.07294
1.07469
1.07547
1.07644
1.07644
1.07557
1.07546
1.07679
1.07938
1.08106
1.08117
1.08102
1.08044
1.07915
1.07779
1.07772
1.07918
1.1115
1.26583
1.42176
1.55553
1.62064
1.62563
1.62241
1.61732
1.61362
1.60987
1.59872
1.59967
1.62714
1.77751
1.99165
2.08408
2.10074
2.09427
2.08434
2.07389
2.06408
2.05134
2.02637
1.9991
1.98646
1.97824
1.97112
1.96279
1.9532
1.94066
1.919
1.89758
1.88972
1.88428
1.88021
1.87527
1.86805
1.85865
1.84079
1.81414
1.79805
1.79131
1.78609
1.78194
1.77778
1.77271
1.7671
1.75676
1.73795
1.72212
1.71306
1.70574
1.69939
1.69317
1.68531
1.67512
1.66691
1.66018
1.65323
1.64667
1.63977
1.63063
1.62073
1.6126
1.60595
1.59888
1.59116
1.5841
1.578
1.57132
1.56461
1.55899
1.55451
1.54763
1.53847
1.52882
1.52077
1.51577
1.51274
1.50927
1.50498
1.50003
1.49394
1.48511
1.47297
1.46266
1.45683
1.45341
1.45052
1.44735
1.44295
1.43578
1.42588
1.42195
1.4228
1.43268
1.46975
1.54849
1.61147
1.65665
1.66611
1.66201
1.65867
1.65876
1.66078
1.65756
1.65559
1.65352
1.65539
1.66806
1.71388
1.77689
1.83909
1.87343
1.88182
1.87899
1.86838
1.85845
1.85034
1.8449
1.84013
1.83402
1.82722
1.82291
1.8196
1.81509
1.80835
1.79994
1.79456
1.79142
1.78823
1.78439
1.78009
1.77608
1.7722
1.7675
1.76075
1.75405
1.74957
1.74639
1.7435
1.74031
1.73646
1.73096
1.72424
1.71855
1.71566
1.71078
1.57542
1.57127
1.56378
1.54176
1.50312
1.46039
1.40754
1.35375
1.31409
1.27233
1.22557
1.19732
1.17338
1.13828
1.11063
1.10206
1.08936
1.06901
1.06612
1.06468
1.0589
1.05281
1.05152
1.05155
1.05229
1.05472
1.06079
1.06748
1.06949
1.07069
1.07251
1.07404
1.07413
1.07465
1.07714
1.07999
1.08076
1.08103
1.08109
1.08049
1.07881
1.07838
1.08001
1.10876
1.2972
1.49883
1.58053
1.6233
1.63374
1.63232
1.63072
1.62328
1.61462
1.61192
1.60424
1.59535
1.59363
1.60406
1.69592
1.89299
2.02683
2.06135
2.07356
2.07782
2.07004
2.05438
2.03193
2.00636
1.991
1.98301
1.97552
1.9667
1.95691
1.94497
1.92563
1.90334
1.89285
1.88693
1.88262
1.87861
1.8715
1.86232
1.84605
1.81942
1.80053
1.79385
1.78872
1.78544
1.7828
1.77801
1.7718
1.76065
1.7415
1.72412
1.71483
1.70816
1.70206
1.69618
1.6901
1.68287
1.67278
1.66294
1.65595
1.65065
1.6453
1.63743
1.6242
1.61167
1.60376
1.59765
1.59218
1.58731
1.58224
1.577
1.57216
1.56678
1.55698
1.54515
1.53398
1.52593
1.52
1.51495
1.51069
1.50666
1.50206
1.49692
1.49087
1.48362
1.47525
1.46581
1.45805
1.45329
1.45053
1.44789
1.44406
1.43783
1.42922
1.43225
1.45744
1.51001
1.59225
1.64637
1.67285
1.67901
1.67427
1.66339
1.66188
1.66267
1.66481
1.66432
1.66181
1.65887
1.65065
1.64148
1.64708
1.678
1.74142
1.8204
1.85685
1.86835
1.86877
1.86725
1.85989
1.84923
1.84016
1.83482
1.83155
1.82915
1.82617
1.82185
1.81603
1.80658
1.79693
1.79185
1.78874
1.78599
1.78282
1.77952
1.77584
1.77127
1.76512
1.757
1.75097
1.74785
1.74592
1.74389
1.74103
1.73657
1.73013
1.7218
1.71588
1.70982
1.57981
1.5778
1.57318
1.56333
1.54222
1.5099
1.46309
1.41825
1.3774
1.33207
1.28757
1.25735
1.22814
1.19333
1.1655
1.14858
1.12957
1.09976
1.0886
1.08147
1.06964
1.05929
1.05881
1.05798
1.0566
1.05776
1.06091
1.06273
1.06317
1.06396
1.06588
1.06885
1.07191
1.07522
1.07929
1.08189
1.0822
1.08257
1.08287
1.08223
1.0806
1.08384
1.12043
1.29126
1.53266
1.60639
1.63156
1.64385
1.63908
1.62929
1.62958
1.62789
1.61476
1.60467
1.5998
1.59519
1.58726
1.58194
1.58104
1.62213
1.77223
1.94796
2.0315
2.06558
2.06357
2.04972
2.03118
2.01079
1.99323
1.98172
1.97343
1.96477
1.95523
1.94476
1.93026
1.91006
1.8924
1.88421
1.8783