/*--------------------------------*- C++ -*----------------------------------*\
  =========                 |
  \\      /  F ield         | OpenFOAM: The Open Source CFD Toolbox
   \\    /   O peration     | Website:  https://openfoam.org
    \\  /    A nd           | Version:  7
     \\/     M anipulation  |
\*---------------------------------------------------------------------------*/
FoamFile
{
    version     2.0;
    format      ascii;
    class       volVectorField;
    location    "3.7";
    object      U;
}
// * * * * * * * * * * * * * * * * * * * * * * * * * * * * * * * * * * * * * //

dimensions      [0 1 -1 0 0 0 0];

internalField   nonuniform List<vector> 
18432
(
(3 1.50695e-17 0)
(3 3.35605e-17 0)
(3 -2.32037e-17 0)
(3 -6.55908e-17 0)
(3 -1.70282e-16 0)
(3 -7.05489e-16 0)
(3 -9.59228e-16 0)
(3 -5.66778e-16 0)
(3 -4.47284e-16 0)
(3 -5.45967e-16 0)
(3 -1.0666e-15 0)
(3 -9.23974e-16 0)
(3 -1.67163e-15 0)
(3 -1.29954e-15 0)
(3 7.80492e-17 0)
(3 1.36418e-15 0)
(3 9.12454e-16 0)
(3 2.83359e-16 0)
(3 -7.56459e-16 0)
(3 -9.9974e-16 0)
(3 -6.58007e-16 0)
(3 -6.78989e-16 0)
(3 -1.56191e-15 0)
(3 -1.53515e-15 0)
(3 -1.54925e-15 0)
(3 -6.43066e-16 0)
(3 7.02425e-17 0)
(3 3.84127e-16 0)
(3 9.28743e-17 0)
(3 -5.07021e-16 0)
(3 -6.79291e-16 0)
(3 -6.83521e-16 0)
(3 -3.26214e-16 0)
(3 -3.52612e-16 0)
(3 -8.66556e-17 0)
(3 3.96849e-16 0)
(3 8.80142e-16 0)
(3 1.40951e-15 0)
(3 1.50374e-15 0)
(3 1.24997e-15 0)
(3 -6.95323e-17 0)
(3 -1.52618e-15 0)
(3 -2.02684e-15 0)
(3 -1.54825e-15 0)
(3 -1.33939e-16 0)
(3 4.93559e-16 0)
(3 -1.22645e-18 0)
(3 -4.81742e-16 0)
(3 2.135e-17 0)
(3 -1.95871e-16 0)
(3 -4.34909e-16 0)
(3 -3.46098e-16 0)
(3 -2.22953e-16 0)
(3 -5.07596e-16 0)
(3 -4.31305e-16 0)
(3 -3.88667e-16 0)
(3 -1.90008e-16 0)
(3 -3.89031e-16 0)
(3 -9.0511e-16 0)
(3 -8.48205e-16 0)
(3 -1.41267e-15 0)
(3 -2.30703e-15 0)
(3 -1.13472e-15 0)
(3 1.11491e-15 0)
(3 1.99353e-15 0)
(3 1.24702e-15 0)
(3 -8.90221e-16 0)
(3 -9.87048e-16 0)
(3 -1.82961e-16 0)
(3 -1.91247e-16 0)
(3 -1.06454e-15 0)
(3 -1.07941e-15 0)
(3 -1.25059e-15 0)
(3 -6.37018e-16 0)
(3 -4.25562e-16 0)
(3 8.24508e-16 0)
(3 1.25223e-15 0)
(3 8.71231e-16 0)
(3 5.76943e-16 0)
(3 6.2479e-16 0)
(3 7.17155e-16 0)
(3 7.84171e-16 0)
(3 8.91057e-16 0)
(3 1.29119e-15 0)
(3 2.13289e-15 0)
(3 1.6298e-15 0)
(3 8.61158e-16 0)
(3 2.89769e-16 0)
(3 -1.43848e-16 0)
(3 -8.59921e-16 0)
(3 -8.91906e-16 0)
(3 -7.48189e-16 0)
(3 7.62679e-17 0)
(3 4.06597e-16 0)
(3 -1.1241e-15 0)
(3 -1.75849e-15 0)
(3 -5.41991e-18 0)
(3 -1.83728e-17 0)
(3 -3.01367e-16 0)
(3 -3.90982e-16 0)
(3 -4.83323e-16 0)
(3 -2.65845e-16 0)
(3 1.9243e-16 0)
(3 3.58015e-16 0)
(3 6.10686e-16 0)
(3 4.86271e-16 0)
(3 5.80407e-16 0)
(3 6.39917e-17 0)
(3 -7.8684e-16 0)
(3 -1.17495e-15 0)
(3 -9.56911e-16 0)
(3 5.1867e-16 0)
(3 1.47571e-15 0)
(3 1.10378e-15 0)
(3 1.17897e-15 0)
(3 9.64837e-16 0)
(3 2.5056e-16 0)
(3 -3.88044e-16 0)
(3 1.4016e-16 0)
(3 1.61148e-16 0)
(3 -2.63566e-16 0)
(3 -5.49738e-16 0)
(3 -3.54245e-16 0)
(3 1.34166e-15 0)
(3 2.26164e-15 0)
(3 3.09911e-15 0)
(3 3.22739e-15 0)
(3 3.09399e-15 0)
(3 3.21613e-15 0)
(3 2.95875e-15 0)
(3 2.59558e-15 0)
(3 2.12268e-15 0)
(3 1.11126e-15 0)
(3 -1.54199e-16 0)
(3 -1.06062e-15 0)
(3 -8.70304e-16 0)
(3 7.72875e-16 0)
(3 1.19743e-15 0)
(3 1.14837e-15 0)
(3 8.32608e-16 0)
(3 4.6112e-16 0)
(3 9.23226e-17 0)
(3 -1.04728e-15 0)
(3 -1.1086e-15 0)
(3 3.5871e-17 0)
(3 3.71091e-16 0)
(3 2.36649e-16 0)
(3 2.25982e-16 0)
(3 6.59025e-17 0)
(3 1.32854e-16 0)
(3 -7.22142e-17 0)
(3 4.0075e-16 0)
(3 1.0806e-15 0)
(3 1.76384e-15 0)
(3 2.16781e-15 0)
(3 1.74656e-15 0)
(3 1.04465e-15 0)
(3 1.01854e-15 0)
(3 1.13029e-15 0)
(3 1.67045e-15 0)
(3 7.04387e-16 0)
(3 2.27413e-16 0)
(3 4.82197e-16 0)
(3 -6.61542e-17 0)
(3 -1.10323e-15 0)
(3 -1.73057e-15 0)
(3 -1.19001e-15 0)
(3 -1.08252e-15 0)
(3 -1.87376e-15 0)
(3 -2.33938e-15 0)
(3 1.23456e-16 0)
(3 1.84544e-15 0)
(3 2.26893e-15 0)
(3 2.30734e-15 0)
(3 2.1909e-15 0)
(3 1.23234e-15 0)
(3 1.32029e-15 0)
(3 1.76446e-15 0)
(3 7.82796e-16 0)
(3 -3.49591e-17 0)
(3 -9.20722e-16 0)
(3 -7.91419e-16 0)
(3 4.02421e-16 0)
(3 8.57753e-16 0)
(3 1.04879e-15 0)
(3 1.37556e-15 0)
(3 1.03937e-15 0)
(3 7.69678e-16 0)
(3 7.57125e-16 0)
(3 6.67626e-16 0)
(3 1.45383e-15 0)
(3 1.16449e-15 0)
(3 4.01506e-17 0)
(3 4.99484e-17 0)
(3 9.49239e-17 0)
(3 1.60681e-16 0)
(3 5.98393e-16 0)
(3 5.59655e-16 0)
(3 4.37222e-16 0)
(3 4.11666e-16 0)
(3 9.34711e-16 0)
(3 1.23546e-15 0)
(3 1.77327e-15 0)
(3 1.85643e-15 0)
(3 1.66075e-15 0)
(3 1.23088e-15 0)
(3 1.19549e-15 0)
(3 1.10138e-15 0)
(3 1.09863e-15 0)
(3 9.25486e-16 0)
(3 -2.03045e-16 0)
(3 -8.15134e-16 0)
(3 -1.49434e-15 0)
(3 -2.89687e-15 0)
(3 -2.87015e-15 0)
(3 -1.89373e-15 0)
(3 -1.23256e-15 0)
(3 -2.45891e-16 0)
(3 2.48215e-16 0)
(3 5.62165e-16 0)
(3 1.32475e-15 0)
(3 1.58213e-15 0)
(3 1.56883e-15 0)
(3 1.0267e-15 0)
(3 8.74596e-16 0)
(3 5.55009e-16 0)
(3 -1.07135e-15 0)
(3 -2.42486e-15 0)
(3 -2.23313e-15 0)
(3 -5.05051e-16 0)
(3 1.47698e-16 0)
(3 -8.68558e-17 0)
(3 -3.63156e-16 0)
(3 -3.99449e-16 0)
(3 8.25546e-16 0)
(3 2.52477e-15 0)
(3 2.57885e-15 0)
(3 1.76993e-15 0)
(3 1.87647e-15 0)
(3 2.11599e-15 0)
(3 -1.62694e-16 0)
(3 -1.65723e-16 0)
(3 -1.17127e-17 0)
(3 -2.78994e-17 0)
(3 -1.04164e-17 0)
(3 1.52603e-16 0)
(3 4.66463e-17 0)
(3 6.31095e-17 0)
(3 1.36918e-16 0)
(3 2.94532e-16 0)
(3 3.00371e-16 0)
(3 -1.66338e-16 0)
(3 -4.84339e-16 0)
(3 -1.18737e-15 0)
(3 -1.10945e-15 0)
(3 -4.97666e-16 0)
(3 -1.75505e-16 0)
(3 1.65697e-16 0)
(3 -5.19274e-17 0)
(3 1.3768e-16 0)
(3 -3.24887e-16 0)
(3 -9.58356e-16 0)
(3 -1.7479e-15 0)
(3 -1.62655e-15 0)
(3 -4.90377e-16 0)
(3 1.88415e-16 0)
(3 -9.94042e-17 0)
(3 -5.93764e-17 0)
(3 2.41612e-16 0)
(3 5.67487e-16 0)
(3 9.17571e-16 0)
(3 1.01811e-15 0)
(3 3.5557e-16 0)
(3 -1.00005e-15 0)
(3 -1.06812e-15 0)
(3 -7.06513e-16 0)
(3 -2.66417e-16 0)
(3 -7.84449e-16 0)
(3 -2.1048e-15 0)
(3 -1.7094e-15 0)
(3 -1.43876e-15 0)
(3 -4.10578e-16 0)
(3 4.58026e-16 0)
(3 7.72743e-16 0)
(3 4.32688e-16 0)
(3 1.88098e-16 0)
(3 4.30479e-16 0)
(3 1.70293e-15 0)
(3 -2.5322e-17 0)
(3 2.29102e-17 0)
(3 1.22052e-16 0)
(3 -6.41962e-17 0)
(3 7.98225e-17 0)
(3 2.84574e-16 0)
(3 3.94075e-16 0)
(3 6.43891e-16 0)
(3 -2.11004e-16 0)
(3 -2.73227e-16 0)
(3 -4.43244e-16 0)
(3 -1.09964e-15 0)
(3 -1.30828e-15 0)
(3 -1.11888e-15 0)
(3 -1.46165e-15 0)
(3 -1.88458e-15 0)
(3 -2.51157e-15 0)
(3 -1.79412e-15 0)
(3 1.21381e-16 0)
(3 1.27007e-15 0)
(3 1.8857e-15 0)
(3 1.58201e-15 0)
(3 1.29878e-15 0)
(3 9.17125e-16 0)
(3 4.93276e-16 0)
(3 5.94832e-16 0)
(3 5.07649e-16 0)
(3 6.99202e-17 0)
(3 -4.49258e-16 0)
(3 -6.03711e-16 0)
(3 -6.25826e-16 0)
(3 -9.1759e-16 0)
(3 -1.73081e-15 0)
(3 -2.3936e-15 0)
(3 -2.06656e-15 0)
(3 -5.66249e-16 0)
(3 2.30372e-16 0)
(3 -1.8903e-16 0)
(3 -9.34679e-16 0)
(3 -4.39972e-16 0)
(3 5.84917e-17 0)
(3 8.97914e-16 0)
(3 4.99586e-16 0)
(3 1.39718e-16 0)
(3 -1.85295e-16 0)
(3 2.00428e-16 0)
(3 8.80723e-17 0)
(3 1.44009e-16 0)
(3 1.24298e-16 0)
(3 4.88698e-16 0)
(3 6.33461e-16 0)
(3 5.96913e-16 0)
(3 4.54075e-16 0)
(3 2.49676e-16 0)
(3 2.90613e-16 0)
(3 3.14154e-16 0)
(3 2.57559e-16 0)
(3 3.45909e-18 0)
(3 -1.04365e-15 0)
(3 -1.03311e-15 0)
(3 -6.62623e-16 0)
(3 -1.88927e-16 0)
(3 -5.84252e-16 0)
(3 -1.08468e-15 0)
(3 -6.31804e-16 0)
(3 -4.14949e-16 0)
(3 6.03381e-17 0)
(3 8.78256e-16 0)
(3 8.43455e-16 0)
(3 1.21614e-16 0)
(3 4.13445e-16 0)
(3 1.78903e-15 0)
(3 1.19062e-15 0)
(3 1.16772e-15 0)
(3 1.08757e-15 0)
(3 -2.30213e-16 0)
(3 -1.5682e-15 0)
(3 -1.91364e-15 0)
(3 -2.08501e-15 0)
(3 -2.40358e-15 0)
(3 -2.38225e-15 0)
(3 -2.08979e-15 0)
(3 -1.0147e-15 0)
(3 4.50714e-16 0)
(3 6.49917e-16 0)
(3 2.4897e-16 0)
(3 7.23594e-16 0)
(3 4.56668e-16 0)
(3 8.32234e-16 0)
(3 1.13535e-15 0)
(3 7.30821e-16 0)
(3 1.39276e-15 0)
(3 1.84743e-15 0)
(3 2.23458e-15 0)
(3 1.48719e-15 0)
(3 9.85418e-16 0)
(3 -6.61616e-17 0)
(3 5.97268e-17 0)
(3 1.04111e-16 0)
(3 3.59804e-16 0)
(3 2.75551e-16 0)
(3 -6.49689e-17 0)
(3 -7.68974e-16 0)
(3 -1.12154e-15 0)
(3 -4.21347e-16 0)
(3 -3.86452e-18 0)
(3 -4.18905e-16 0)
(3 -3.31831e-16 0)
(3 1.4875e-16 0)
(3 2.84239e-16 0)
(3 9.71256e-17 0)
(3 -2.16851e-16 0)
(3 -4.96276e-16 0)
(3 -3.91578e-16 0)
(3 -9.53224e-16 0)
(3 -1.60139e-15 0)
(3 -1.08951e-15 0)
(3 -1.34977e-15 0)
(3 -7.84405e-16 0)
(3 4.27132e-17 0)
(3 3.07295e-16 0)
(3 8.10304e-16 0)
(3 1.05167e-15 0)
(3 9.28895e-16 0)
(3 1.95856e-16 0)
(3 -5.7449e-16 0)
(3 -1.85621e-15 0)
(3 -1.31371e-15 0)
(3 -1.4354e-16 0)
(3 1.18267e-15 0)
(3 1.77698e-15 0)
(3 2.34539e-15 0)
(3 2.71871e-15 0)
(3 2.84165e-15 0)
(3 2.35569e-15 0)
(3 2.06471e-15 0)
(3 1.59072e-15 0)
(3 7.09095e-16 0)
(3 7.53961e-16 0)
(3 4.79648e-16 0)
(3 1.71064e-15 0)
(3 1.84253e-15 0)
(3 1.71831e-15 0)
(3 1.2071e-15 0)
(3 1.1305e-16 0)
(3 -2.79256e-16 0)
(3 -4.31433e-16 0)
(3 -4.80422e-16 0)
(3 -2.26457e-16 0)
(3 -1.14991e-16 0)
(3 5.46633e-17 0)
(3 -1.01983e-16 0)
(3 -8.71907e-17 0)
(3 8.19719e-17 0)
(3 6.26549e-16 0)
(3 7.02414e-16 0)
(3 3.21408e-16 0)
(3 1.71877e-16 0)
(3 4.3141e-16 0)
(3 1.74986e-16 0)
(3 -2.94462e-16 0)
(3 -1.18132e-15 0)
(3 -1.38883e-15 0)
(3 -1.1686e-15 0)
(3 -6.07137e-16 0)
(3 -8.1614e-16 0)
(3 -1.20649e-15 0)
(3 -1.23434e-15 0)
(3 -1.14033e-15 0)
(3 -1.21729e-15 0)
(3 3.55998e-17 0)
(3 2.12664e-16 0)
(3 -3.58701e-16 0)
(3 -4.86981e-16 0)
(3 -7.34316e-16 0)
(3 6.81626e-17 0)
(3 1.61354e-15 0)
(3 2.25278e-15 0)
(3 2.31353e-15 0)
(3 2.5507e-15 0)
(3 3.22469e-15 0)
(3 3.38114e-15 0)
(3 2.79205e-15 0)
(3 2.47206e-15 0)
(3 2.2352e-15 0)
(3 8.5498e-16 0)
(3 5.87335e-16 0)
(3 -1.34011e-16 0)
(3 3.44457e-17 0)
(3 6.32334e-16 0)
(3 7.11597e-16 0)
(3 3.0946e-16 0)
(3 3.95393e-17 0)
(3 -1.07041e-16 0)
(3 -4.23083e-17 0)
(3 -4.81237e-17 0)
(3 -4.55591e-16 0)
(3 -2.27642e-16 0)
(3 6.85155e-17 0)
(3 6.90355e-16 0)
(3 8.24316e-16 0)
(3 7.45499e-16 0)
(3 8.10495e-16 0)
(3 1.06998e-15 0)
(3 1.02926e-15 0)
(3 6.70029e-16 0)
(3 9.27135e-16 0)
(3 1.42481e-15 0)
(3 1.12024e-15 0)
(3 3.46358e-16 0)
(3 6.7694e-16 0)
(3 1.41479e-15 0)
(3 1.26524e-15 0)
(3 1.34857e-15 0)
(3 1.27572e-15 0)
(3 5.6999e-16 0)
(3 -2.06369e-16 0)
(3 -1.72082e-15 0)
(3 -2.06968e-15 0)
(3 -2.85507e-15 0)
(3 -2.56942e-15 0)
(3 -1.85131e-15 0)
(3 -1.13175e-15 0)
(3 7.03467e-16 0)
(3 1.93585e-15 0)
(3 1.76431e-15 0)
(3 1.42488e-15 0)
(3 1.45804e-15 0)
(3 1.77479e-15 0)
(3 1.60854e-15 0)
(3 1.18531e-15 0)
(3 1.07181e-15 0)
(3 1.03276e-15 0)
(3 9.11828e-16 0)
(3 9.15047e-16 0)
(3 1.16176e-15 0)
(3 1.35764e-15 0)
(3 1.77399e-15 0)
(3 1.78596e-15 0)
(3 1.267e-15 0)
(3 -3.25328e-16 0)
(3 -9.58659e-17 0)
(3 -5.96692e-17 0)
(3 -1.29714e-17 0)
(3 -7.65021e-16 0)
(3 -4.31491e-16 0)
(3 -1.86191e-16 0)
(3 -2.2365e-16 0)
(3 8.2348e-17 0)
(3 8.15516e-16 0)
(3 9.19343e-16 0)
(3 6.13983e-16 0)
(3 7.33968e-16 0)
(3 1.26903e-15 0)
(3 9.77989e-16 0)
(3 1.4167e-16 0)
(3 4.92478e-16 0)
(3 1.36314e-15 0)
(3 1.74373e-15 0)
(3 1.35862e-15 0)
(3 1.12731e-15 0)
(3 2.26444e-15 0)
(3 2.94279e-15 0)
(3 1.72953e-15 0)
(3 5.11919e-16 0)
(3 -6.1289e-17 0)
(3 -2.4939e-15 0)
(3 -2.99901e-15 0)
(3 -2.43125e-15 0)
(3 -1.17808e-15 0)
(3 -2.49847e-16 0)
(3 3.94971e-18 0)
(3 1.28029e-15 0)
(3 1.60718e-15 0)
(3 1.91662e-15 0)
(3 1.95638e-15 0)
(3 1.9567e-15 0)
(3 2.44179e-15 0)
(3 1.86328e-15 0)
(3 1.07145e-15 0)
(3 6.91133e-16 0)
(3 8.24992e-16 0)
(3 1.29734e-15 0)
(3 1.60037e-15 0)
(3 1.54632e-15 0)
(3 1.78331e-15 0)
(3 1.91727e-15 0)
(3 1.21483e-15 0)
(3 -1.10196e-17 0)
(3 1.85606e-17 0)
(3 1.33702e-17 0)
(3 1.51383e-16 0)
(3 2.25147e-16 0)
(3 3.39916e-16 0)
(3 4.63341e-16 0)
(3 -3.18715e-17 0)
(3 7.78008e-18 0)
(3 6.51799e-17 0)
(3 -1.02253e-16 0)
(3 -2.48957e-16 0)
(3 -7.84181e-16 0)
(3 -6.61537e-16 0)
(3 -1.62983e-16 0)
(3 1.08864e-16 0)
(3 -1.3625e-16 0)
(3 1.46338e-16 0)
(3 -2.91243e-16 0)
(3 -1.33041e-15 0)
(3 -6.8878e-16 0)
(3 5.39631e-16 0)
(3 1.18157e-15 0)
(3 1.22674e-15 0)
(3 7.33087e-16 0)
(3 6.4435e-17 0)
(3 -2.05621e-15 0)
(3 -2.0091e-15 0)
(3 -1.79364e-15 0)
(3 -1.09754e-15 0)
(3 -7.44288e-16 0)
(3 -1.85314e-16 0)
(3 2.05328e-16 0)
(3 1.0591e-16 0)
(3 5.79247e-16 0)
(3 1.13124e-15 0)
(3 9.18829e-16 0)
(3 5.62887e-16 0)
(3 4.7195e-16 0)
(3 3.02986e-16 0)
(3 3.66448e-16 0)
(3 7.59744e-16 0)
(3 2.82976e-16 0)
(3 -1.08181e-17 0)
(3 -1.01158e-16 0)
(3 -3.18604e-16 0)
(3 2.26043e-16 0)
(3 1.17908e-15 0)
(3 2.39994e-16 0)
(3 4.44006e-16 0)
(3 3.94993e-16 0)
(3 1.01702e-16 0)
(3 2.57486e-16 0)
(3 -1.17555e-16 0)
(3 -8.17625e-17 0)
(3 -1.2027e-17 0)
(3 -3.57006e-16 0)
(3 -1.58767e-15 0)
(3 -1.87728e-15 0)
(3 -1.57635e-15 0)
(3 -1.49251e-15 0)
(3 -1.84005e-15 0)
(3 -1.66764e-15 0)
(3 -1.66593e-15 0)
(3 -1.65637e-15 0)
(3 -1.91268e-15 0)
(3 -2.45134e-15 0)
(3 -2.10268e-15 0)
(3 -1.27275e-15 0)
(3 2.26367e-16 0)
(3 1.09099e-16 0)
(3 -9.95761e-18 0)
(3 1.12608e-16 0)
(3 -2.44797e-16 0)
(3 -8.18277e-16 0)
(3 -1.16636e-15 0)
(3 -1.22362e-15 0)
(3 -9.27831e-16 0)
(3 -1.27855e-15 0)
(3 -8.25596e-16 0)
(3 -7.7501e-16 0)
(3 -1.88258e-16 0)
(3 -2.4666e-16 0)
(3 -3.9444e-16 0)
(3 -7.7062e-16 0)
(3 -1.08332e-15 0)
(3 -7.59396e-16 0)
(3 -5.86311e-16 0)
(3 -1.58898e-16 0)
(3 5.37421e-16 0)
(3 -6.48606e-17 0)
(3 -7.11775e-16 0)
(3 -4.32894e-16 0)
(3 -6.93307e-16 0)
(3 -7.8606e-16 0)
(3 4.14537e-17 0)
(3 2.96564e-17 0)
(3 1.26173e-16 0)
(3 6.88524e-17 0)
(3 -9.52023e-17 0)
(3 1.43715e-16 0)
(3 -4.40143e-16 0)
(3 -7.78765e-16 0)
(3 -2.4981e-16 0)
(3 -1.13609e-16 0)
(3 -1.78027e-16 0)
(3 -4.52264e-16 0)
(3 -6.88443e-16 0)
(3 -3.10934e-16 0)
(3 -4.00322e-16 0)
(3 -1.00708e-15 0)
(3 -1.79314e-15 0)
(3 -1.68038e-15 0)
(3 -2.16507e-15 0)
(3 -2.26852e-15 0)
(3 -2.53271e-15 0)
(3 -2.27287e-15 0)
(3 -2.02969e-15 0)
(3 -1.74428e-15 0)
(3 -1.85875e-15 0)
(3 -1.00246e-15 0)
(3 -5.42978e-16 0)
(3 -4.70513e-16 0)
(3 -4.94535e-16 0)
(3 -7.1581e-16 0)
(3 -1.36771e-15 0)
(3 -1.05819e-15 0)
(3 -1.10372e-15 0)
(3 -1.01808e-15 0)
(3 -5.83618e-16 0)
(3 -6.99511e-16 0)
(3 -1.00338e-15 0)
(3 -1.13871e-15 0)
(3 -1.58068e-15 0)
(3 -1.61243e-15 0)
(3 -2.38862e-16 0)
(3 -2.4763e-16 0)
(3 -3.86134e-16 0)
(3 -5.30228e-16 0)
(3 -6.57166e-16 0)
(3 -6.52596e-16 0)
(3 -9.61618e-17 0)
(3 -8.22214e-16 0)
(3 -8.76488e-16 0)
(3 -4.25379e-17 0)
(3 -2.38848e-16 0)
(3 -4.1741e-16 0)
(3 1.97042e-16 0)
(3 1.09356e-15 0)
(3 1.27521e-15 0)
(3 7.43793e-16 0)
(3 6.57614e-16 0)
(3 6.34572e-16 0)
(3 4.11887e-16 0)
(3 7.92912e-16 0)
(3 1.50863e-15 0)
(3 1.80374e-15 0)
(3 1.98113e-15 0)
(3 1.28715e-15 0)
(3 6.90951e-16 0)
(3 6.25023e-17 0)
(3 -9.16641e-17 0)
(3 -7.70885e-16 0)
(3 -1.471e-15 0)
(3 -1.52428e-15 0)
(3 -1.64637e-15 0)
(3 -1.93722e-15 0)
(3 -1.67925e-15 0)
(3 -1.56093e-15 0)
(3 -1.34518e-15 0)
(3 -1.70582e-15 0)
(3 -1.33394e-15 0)
(3 -1.3125e-16 0)
(3 -3.78153e-17 0)
(3 -5.34042e-16 0)
(3 -4.36597e-16 0)
(3 -1.79354e-16 0)
(3 -4.97884e-16 0)
(3 -7.44502e-16 0)
(3 -7.21767e-16 0)
(3 -6.07807e-16 0)
(3 -1.26428e-15 0)
(3 -1.7951e-15 0)
(3 -4.91093e-16 0)
(3 4.46478e-17 0)
(3 -2.94787e-16 0)
(3 -1.16317e-15 0)
(3 -1.39346e-15 0)
(3 -1.40159e-15 0)
(3 -1.76109e-16 0)
(3 -4.7937e-17 0)
(3 -5.22177e-16 0)
(3 5.66772e-17 0)
(3 2.45412e-16 0)
(3 4.92233e-16 0)
(3 6.7495e-16 0)
(3 7.94596e-16 0)
(3 9.74332e-16 0)
(3 1.0942e-15 0)
(3 6.96963e-16 0)
(3 3.89125e-16 0)
(3 -3.4625e-16 0)
(3 4.35595e-17 0)
(3 1.11515e-15 0)
(3 1.94251e-15 0)
(3 2.0773e-15 0)
(3 2.13587e-15 0)
(3 1.82637e-15 0)
(3 1.03603e-15 0)
(3 1.08981e-15 0)
(3 8.72996e-16 0)
(3 7.60901e-16 0)
(3 4.5202e-16 0)
(3 6.38084e-16 0)
(3 5.36585e-17 0)
(3 -6.07124e-16 0)
(3 -5.37028e-16 0)
(3 -3.27287e-16 0)
(3 -6.59469e-16 0)
(3 -8.51988e-16 0)
(3 2.91172e-16 0)
(3 9.58851e-16 0)
(3 1.38219e-16 0)
(3 -2.14175e-16 0)
(3 -1.27986e-16 0)
(3 1.44963e-16 0)
(3 5.21885e-16 0)
(3 4.9671e-16 0)
(3 -3.78463e-16 0)
(3 -1.48837e-15 0)
(3 -1.35315e-15 0)
(3 -6.23624e-16 0)
(3 -4.22919e-17 0)
(3 -1.56948e-15 0)
(3 -2.37027e-15 0)
(3 -2.87689e-15 0)
(3 -1.37879e-15 0)
(3 -1.30388e-15 0)
(3 -1.04762e-15 0)
(3 -1.72889e-15 0)
(3 3.40212e-17 0)
(3 5.81889e-17 0)
(3 3.90302e-17 0)
(3 -9.3564e-17 0)
(3 2.83602e-16 0)
(3 4.18696e-16 0)
(3 3.5391e-16 0)
(3 1.2866e-17 0)
(3 -3.7028e-16 0)
(3 -4.83437e-16 0)
(3 -3.36056e-16 0)
(3 -2.63704e-16 0)
(3 5.25998e-16 0)
(3 4.87384e-16 0)
(3 9.86719e-16 0)
(3 1.40506e-15 0)
(3 1.11207e-15 0)
(3 2.78663e-16 0)
(3 7.66215e-16 0)
(3 1.17872e-15 0)
(3 4.84898e-16 0)
(3 1.18198e-16 0)
(3 -3.47117e-16 0)
(3 -2.31465e-16 0)
(3 -3.51073e-16 0)
(3 -4.32515e-17 0)
(3 3.9801e-16 0)
(3 5.49864e-16 0)
(3 4.06556e-16 0)
(3 2.69435e-16 0)
(3 2.92765e-16 0)
(3 -6.52578e-16 0)
(3 -6.997e-16 0)
(3 -5.68462e-16 0)
(3 -8.74483e-17 0)
(3 1.23596e-16 0)
(3 -1.6315e-16 0)
(3 -2.22611e-16 0)
(3 -6.28606e-17 0)
(3 -9.18385e-16 0)
(3 -1.05011e-15 0)
(3 -7.55954e-16 0)
(3 8.06733e-16 0)
(3 9.91778e-16 0)
(3 -2.87422e-16 0)
(3 -1.46028e-15 0)
(3 -1.70368e-15 0)
(3 -8.90495e-16 0)
(3 -7.56841e-17 0)
(3 -3.36456e-16 0)
(3 -4.91094e-16 0)
(3 -6.06847e-16 0)
(3 -1.43619e-16 0)
(3 -5.90046e-17 0)
(3 -2.49533e-16 0)
(3 -7.93533e-16 0)
(3 -1.38443e-15 0)
(3 -1.55371e-15 0)
(3 -1.37932e-15 0)
(3 -1.05931e-15 0)
(3 -7.09724e-16 0)
(3 -6.38188e-16 0)
(3 -6.83267e-16 0)
(3 -6.99215e-16 0)
(3 -3.84666e-16 0)
(3 -7.79045e-16 0)
(3 -3.99035e-16 0)
(3 -4.6284e-16 0)
(3 -1.13777e-15 0)
(3 -1.49819e-15 0)
(3 -3.43209e-16 0)
(3 1.38601e-16 0)
(3 3.9658e-17 0)
(3 -4.20187e-16 0)
(3 -2.53375e-16 0)
(3 2.08352e-16 0)
(3 3.40576e-16 0)
(3 6.02525e-16 0)
(3 7.43986e-16 0)
(3 5.29836e-16 0)
(3 -3.88437e-16 0)
(3 -9.6153e-16 0)
(3 -1.04611e-15 0)
(3 -8.28158e-16 0)
(3 -3.05382e-16 0)
(3 4.21785e-16 0)
(3 6.21354e-16 0)
(3 4.70655e-16 0)
(3 8.52126e-16 0)
(3 8.65819e-16 0)
(3 1.65708e-15 0)
(3 1.69416e-15 0)
(3 8.73331e-16 0)
(3 2.23894e-16 0)
(3 6.05596e-16 0)
(3 1.05005e-15 0)
(3 -1.6219e-17 0)
(3 -3.90054e-17 0)
(3 8.01181e-17 0)
(3 1.60539e-16 0)
(3 -1.25314e-16 0)
(3 -5.72995e-16 0)
(3 -1.09404e-15 0)
(3 -1.04674e-15 0)
(3 -8.78812e-16 0)
(3 -8.74712e-16 0)
(3 -9.69882e-16 0)
(3 -1.53284e-15 0)
(3 -3.29926e-15 0)
(3 -2.86105e-15 0)
(3 -2.58516e-15 0)
(3 -2.28036e-15 0)
(3 -1.85963e-15 0)
(3 -1.37994e-15 0)
(3 -9.06855e-16 0)
(3 -1.10606e-15 0)
(3 -1.01782e-15 0)
(3 -2.70636e-16 0)
(3 3.605e-16 0)
(3 7.68816e-16 0)
(3 9.72497e-16 0)
(3 8.55253e-16 0)
(3 6.79021e-16 0)
(3 4.56093e-16 0)
(3 2.37495e-16 0)
(3 -2.46616e-16 0)
(3 -2.83052e-16 0)
(3 -6.40835e-16 0)
(3 -1.83902e-15 0)
(3 -1.33658e-15 0)
(3 -1.42026e-15 0)
(3 -1.90713e-15 0)
(3 -1.73684e-15 0)
(3 -1.19992e-15 0)
(3 1.67613e-16 0)
(3 1.55097e-15 0)
(3 1.37886e-15 0)
(3 7.3628e-16 0)
(3 3.60075e-16 0)
(3 5.63203e-16 0)
(3 1.1037e-15 0)
(3 1.26286e-15 0)
(3 9.99346e-16 0)
(3 1.05232e-15 0)
(3 1.84768e-17 0)
(3 9.52898e-17 0)
(3 6.95569e-17 0)
(3 1.70379e-16 0)
(3 -2.22953e-16 0)
(3 -7.11175e-16 0)
(3 -6.23474e-16 0)
(3 -1.40745e-16 0)
(3 1.18674e-15 0)
(3 1.66663e-15 0)
(3 4.82195e-16 0)
(3 -1.28846e-15 0)
(3 -2.92535e-15 0)
(3 -3.29288e-15 0)
(3 -3.00609e-15 0)
(3 -2.61868e-15 0)
(3 -2.63898e-15 0)
(3 -1.7934e-15 0)
(3 -1.21189e-15 0)
(3 -7.21151e-16 0)
(3 -2.86769e-16 0)
(3 -7.51156e-17 0)
(3 4.20661e-16 0)
(3 8.03468e-16 0)
(3 1.59024e-15 0)
(3 2.35133e-15 0)
(3 2.57463e-15 0)
(3 1.52869e-15 0)
(3 7.87303e-16 0)
(3 2.41679e-17 0)
(3 -2.92778e-16 0)
(3 -8.78302e-16 0)
(3 -6.68175e-16 0)
(3 -6.73939e-16 0)
(3 4.50391e-16 0)
(3 4.90074e-16 0)
(3 5.13111e-16 0)
(3 3.82314e-16 0)
(3 7.77487e-16 0)
(3 4.51953e-16 0)
(3 -2.90234e-16 0)
(3 -4.76988e-16 0)
(3 -4.16563e-16 0)
(3 -1.40606e-16 0)
(3 -1.18992e-16 0)
(3 5.1622e-17 0)
(3 -5.9308e-17 0)
(3 -4.0959e-16 0)
(3 7.81119e-17 0)
(3 -4.53833e-17 0)
(3 -1.12355e-16 0)
(3 -3.63298e-16 0)
(3 -5.91393e-16 0)
(3 -8.14404e-16 0)
(3 -1.78156e-16 0)
(3 -3.08232e-17 0)
(3 1.23949e-16 0)
(3 5.5977e-16 0)
(3 5.13131e-16 0)
(3 7.70325e-17 0)
(3 -7.12844e-18 0)
(3 -9.68607e-16 0)
(3 -1.1355e-15 0)
(3 -1.57094e-15 0)
(3 -1.64589e-15 0)
(3 -1.32914e-15 0)
(3 -1.03327e-15 0)
(3 6.21344e-16 0)
(3 1.57526e-15 0)
(3 1.91876e-15 0)
(3 1.85512e-15 0)
(3 1.80575e-15 0)
(3 2.17965e-15 0)
(3 3.05503e-15 0)
(3 3.47275e-15 0)
(3 2.55348e-15 0)
(3 1.13322e-15 0)
(3 9.81879e-16 0)
(3 1.16155e-15 0)
(3 7.32008e-16 0)
(3 1.19522e-15 0)
(3 1.48418e-15 0)
(3 2.32841e-15 0)
(3 3.75298e-15 0)
(3 2.82791e-15 0)
(3 6.96557e-16 0)
(3 1.61293e-16 0)
(3 -5.06494e-17 0)
(3 -4.85195e-16 0)
(3 -1.90173e-16 0)
(3 -1.27753e-16 0)
(3 -3.86007e-16 0)
(3 -6.36178e-16 0)
(3 -6.2381e-16 0)
(3 -1.30858e-15 0)
(3 -2.53501e-15 0)
(3 -3.20876e-17 0)
(3 -9.25303e-17 0)
(3 -3.6891e-17 0)
(3 -3.22979e-16 0)
(3 -4.19993e-16 0)
(3 -3.37181e-16 0)
(3 -6.79281e-16 0)
(3 -1.11566e-15 0)
(3 -1.69274e-15 0)
(3 -9.13118e-16 0)
(3 3.14997e-16 0)
(3 1.67016e-15 0)
(3 2.20846e-15 0)
(3 1.67472e-15 0)
(3 4.6642e-16 0)
(3 1.9856e-16 0)
(3 1.07357e-15 0)
(3 9.26347e-16 0)
(3 5.4272e-16 0)
(3 9.28973e-16 0)
(3 3.00001e-15 0)
(3 3.54774e-15 0)
(3 2.83696e-15 0)
(3 1.87676e-15 0)
(3 1.03767e-15 0)
(3 1.02448e-15 0)
(3 1.91297e-15 0)
(3 2.49628e-15 0)
(3 2.09194e-15 0)
(3 2.2799e-15 0)
(3 2.7379e-15 0)
(3 3.8091e-15 0)
(3 4.16028e-15 0)
(3 3.09719e-15 0)
(3 2.19997e-15 0)
(3 2.1356e-15 0)
(3 2.06095e-15 0)
(3 1.76549e-15 0)
(3 1.11936e-15 0)
(3 5.02255e-17 0)
(3 -4.26055e-16 0)
(3 -1.62227e-16 0)
(3 -2.98967e-16 0)
(3 -3.17449e-16 0)
(3 -6.28344e-16 0)
(3 -7.55824e-16 0)
(3 -1.57129e-15 0)
(3 -2.09647e-15 0)
(3 -2.83488e-17 0)
(3 2.47362e-16 0)
(3 -2.27644e-16 0)
(3 -4.6724e-16 0)
(3 -3.90824e-16 0)
(3 -1.79382e-16 0)
(3 -3.49587e-16 0)
(3 -5.25137e-16 0)
(3 -9.37524e-16 0)
(3 -5.53884e-16 0)
(3 5.35178e-16 0)
(3 1.15685e-15 0)
(3 8.23345e-16 0)
(3 6.55391e-16 0)
(3 1.0672e-15 0)
(3 1.59348e-15 0)
(3 2.47604e-15 0)
(3 2.80757e-15 0)
(3 2.17663e-15 0)
(3 1.43086e-15 0)
(3 1.6291e-15 0)
(3 1.43007e-15 0)
(3 8.32686e-16 0)
(3 1.10828e-16 0)
(3 -2.85371e-16 0)
(3 -1.3318e-15 0)
(3 -8.9736e-17 0)
(3 1.47103e-15 0)
(3 3.05809e-15 0)
(3 3.38337e-15 0)
(3 3.81627e-15 0)
(3 4.57368e-15 0)
(3 4.79847e-15 0)
(3 4.67329e-15 0)
(3 2.61338e-15 0)
(3 8.60482e-16 0)
(3 1.96801e-15 0)
(3 2.65881e-15 0)
(3 3.89606e-16 0)
(3 -3.22346e-16 0)
(3 -3.13581e-16 0)
(3 -6.1226e-16 0)
(3 -7.83079e-16 0)
(3 -8.88532e-16 0)
(3 -1.41914e-15 0)
(3 -1.32749e-15 0)
(3 -1.20976e-15 0)
(3 -1.37285e-15 0)
(3 7.85947e-17 0)
(3 3.32235e-17 0)
(3 -1.9872e-16 0)
(3 -8.98536e-17 0)
(3 -6.779e-17 0)
(3 2.22549e-17 0)
(3 4.06429e-16 0)
(3 6.58965e-16 0)
(3 6.37004e-16 0)
(3 3.7063e-16 0)
(3 2.01007e-16 0)
(3 6.3795e-16 0)
(3 8.29002e-16 0)
(3 1.70012e-15 0)
(3 2.27144e-15 0)
(3 2.44384e-15 0)
(3 1.51985e-15 0)
(3 1.46304e-15 0)
(3 1.30997e-15 0)
(3 1.05976e-15 0)
(3 -2.4432e-17 0)
(3 -3.28876e-16 0)
(3 -7.23311e-16 0)
(3 -5.22443e-16 0)
(3 -1.9774e-16 0)
(3 -3.46321e-16 0)
(3 6.69612e-16 0)
(3 1.58509e-15 0)
(3 1.80222e-15 0)
(3 2.18657e-15 0)
(3 3.58733e-15 0)
(3 3.64332e-15 0)
(3 2.77057e-15 0)
(3 2.99653e-15 0)
(3 3.22261e-15 0)
(3 1.92797e-15 0)
(3 1.53165e-15 0)
(3 1.10008e-15 0)
(3 5.37658e-16 0)
(3 3.47422e-16 0)
(3 6.98884e-16 0)
(3 1.09326e-16 0)
(3 -3.90792e-16 0)
(3 -1.0657e-15 0)
(3 -1.32278e-15 0)
(3 -1.46727e-15 0)
(3 -1.23902e-15 0)
(3 -1.49434e-15 0)
(3 -1.69511e-17 0)
(3 -1.58221e-16 0)
(3 2.59096e-16 0)
(3 3.94538e-16 0)
(3 2.06713e-16 0)
(3 1.41347e-16 0)
(3 1.10854e-16 0)
(3 7.29712e-16 0)
(3 1.34316e-15 0)
(3 1.6031e-15 0)
(3 9.05124e-16 0)
(3 8.14212e-16 0)
(3 1.67491e-15 0)
(3 2.55218e-15 0)
(3 2.43951e-15 0)
(3 1.72463e-15 0)
(3 1.3911e-15 0)
(3 1.41319e-15 0)
(3 4.80025e-16 0)
(3 -2.81279e-16 0)
(3 -9.04354e-16 0)
(3 -1.14924e-15 0)
(3 -8.92882e-16 0)
(3 -1.51634e-16 0)
(3 1.31473e-15 0)
(3 1.69228e-15 0)
(3 1.63154e-15 0)
(3 1.64376e-15 0)
(3 1.46231e-15 0)
(3 1.73846e-15 0)
(3 2.05223e-15 0)
(3 1.86472e-15 0)
(3 1.61552e-15 0)
(3 2.10097e-15 0)
(3 2.51457e-15 0)
(3 2.01653e-15 0)
(3 4.0722e-16 0)
(3 9.11557e-16 0)
(3 1.7039e-15 0)
(3 1.75111e-15 0)
(3 9.47107e-16 0)
(3 9.08348e-16 0)
(3 8.95349e-16 0)
(3 9.04188e-16 0)
(3 4.6243e-16 0)
(3 -1.24719e-16 0)
(3 2.743e-16 0)
(3 9.14073e-16 0)
(3 -7.40209e-17 0)
(3 -1.41601e-16 0)
(3 1.6382e-16 0)
(3 1.82894e-16 0)
(3 4.50717e-16 0)
(3 7.50364e-16 0)
(3 6.43803e-16 0)
(3 5.87805e-16 0)
(3 8.92192e-16 0)
(3 1.28394e-15 0)
(3 2.59578e-16 0)
(3 2.59955e-17 0)
(3 2.8007e-16 0)
(3 4.62911e-16 0)
(3 7.88332e-16 0)
(3 5.35832e-16 0)
(3 5.0129e-16 0)
(3 6.83465e-16 0)
(3 9.79967e-16 0)
(3 8.84343e-16 0)
(3 2.22627e-16 0)
(3 -1.16841e-17 0)
(3 9.1553e-16 0)
(3 1.93617e-15 0)
(3 2.49686e-15 0)
(3 2.34907e-15 0)
(3 1.59907e-15 0)
(3 -1.98763e-16 0)
(3 -5.68158e-16 0)
(3 -1.38156e-16 0)
(3 4.87526e-16 0)
(3 9.82309e-16 0)
(3 2.18214e-15 0)
(3 2.25245e-15 0)
(3 1.55975e-15 0)
(3 8.14447e-16 0)
(3 1.51735e-16 0)
(3 3.76924e-16 0)
(3 3.06261e-16 0)
(3 6.28447e-16 0)
(3 7.17015e-16 0)
(3 1.67505e-15 0)
(3 2.40602e-15 0)
(3 3.537e-15 0)
(3 3.19116e-15 0)
(3 2.25232e-15 0)
(3 1.80022e-15 0)
(3 2.52323e-15 0)
(3 6.58386e-22 0)
(3 9.02478e-17 0)
(3 -1.11189e-16 0)
(3 7.93532e-17 0)
(3 1.41641e-16 0)
(3 1.06566e-16 0)
(3 1.14563e-16 0)
(3 1.06637e-16 0)
(3 -7.51129e-17 0)
(3 -2.76917e-16 0)
(3 -2.31361e-16 0)
(3 -6.10106e-17 0)
(3 7.53736e-17 0)
(3 1.30895e-16 0)
(3 3.70427e-16 0)
(3 7.312e-16 0)
(3 6.34059e-16 0)
(3 4.36987e-16 0)
(3 9.08033e-16 0)
(3 1.34485e-16 0)
(3 -2.44948e-16 0)
(3 -1.22432e-16 0)
(3 9.0237e-16 0)
(3 1.89491e-15 0)
(3 1.84772e-15 0)
(3 1.26158e-15 0)
(3 6.74712e-16 0)
(3 -7.21622e-16 0)
(3 -1.47274e-15 0)
(3 -1.99582e-15 0)
(3 -1.79176e-15 0)
(3 -1.02099e-15 0)
(3 5.70494e-17 0)
(3 8.72179e-16 0)
(3 3.68274e-16 0)
(3 3.07293e-16 0)
(3 1.00855e-16 0)
(3 -3.40565e-16 0)
(3 -3.09548e-16 0)
(3 1.87484e-16 0)
(3 2.01755e-15 0)
(3 2.08634e-15 0)
(3 2.93873e-15 0)
(3 3.22532e-15 0)
(3 2.0782e-15 0)
(3 1.76297e-15 0)
(3 7.64918e-16 0)
(3 2.82964e-15 0)
(3 -7.60362e-17 0)
(3 2.06244e-16 0)
(3 2.57886e-16 0)
(3 1.23857e-16 0)
(3 -2.7695e-16 0)
(3 -6.26439e-16 0)
(3 -8.63278e-16 0)
(3 -9.59147e-16 0)
(3 -7.08371e-16 0)
(3 -4.0924e-16 0)
(3 3.57367e-16 0)
(3 6.60802e-16 0)
(3 3.42691e-16 0)
(3 -2.89836e-16 0)
(3 -5.8308e-16 0)
(3 -1.53179e-16 0)
(3 -5.5014e-17 0)
(3 -1.67905e-16 0)
(3 -9.01202e-16 0)
(3 -9.16815e-16 0)
(3 -2.14158e-16 0)
(3 1.52689e-15 0)
(3 2.26315e-15 0)
(3 2.11984e-15 0)
(3 1.60375e-15 0)
(3 9.93732e-16 0)
(3 1.17812e-15 0)
(3 1.102e-15 0)
(3 -7.26262e-16 0)
(3 -1.31022e-15 0)
(3 -1.52225e-15 0)
(3 -1.54443e-15 0)
(3 -1.40546e-15 0)
(3 -9.08531e-16 0)
(3 -1.11343e-17 0)
(3 3.63758e-16 0)
(3 -7.32906e-16 0)
(3 -1.09805e-15 0)
(3 -2.87561e-16 0)
(3 7.46541e-16 0)
(3 1.52029e-15 0)
(3 1.61153e-15 0)
(3 9.97461e-16 0)
(3 7.71978e-16 0)
(3 1.19134e-15 0)
(3 1.0031e-15 0)
(3 1.30868e-15 0)
(3 2.63985e-15 0)
(3 8.73273e-18 0)
(3 -6.32246e-17 0)
(3 1.18047e-16 0)
(3 -3.7385e-17 0)
(3 -6.48728e-17 0)
(3 -6.9998e-17 0)
(3 -1.77263e-16 0)
(3 -6.97344e-16 0)
(3 -1.03008e-15 0)
(3 -8.90118e-16 0)
(3 9.10043e-18 0)
(3 5.794e-16 0)
(3 -7.76855e-16 0)
(3 -1.82011e-15 0)
(3 -2.53031e-15 0)
(3 -2.00441e-15 0)
(3 -1.08153e-15 0)
(3 -1.67847e-15 0)
(3 -1.8906e-15 0)
(3 -8.73937e-16 0)
(3 8.27442e-16 0)
(3 1.46058e-15 0)
(3 1.36106e-15 0)
(3 1.34772e-15 0)
(3 8.98107e-16 0)
(3 5.90708e-16 0)
(3 4.42086e-16 0)
(3 4.6811e-16 0)
(3 5.00891e-16 0)
(3 6.21129e-16 0)
(3 -4.14665e-16 0)
(3 -1.15893e-15 0)
(3 -2.0793e-15 0)
(3 -2.02072e-15 0)
(3 -6.0202e-16 0)
(3 -3.93734e-16 0)
(3 -8.52587e-16 0)
(3 -5.78036e-16 0)
(3 1.04939e-16 0)
(3 9.72533e-16 0)
(3 1.73628e-15 0)
(3 2.39469e-15 0)
(3 1.72425e-15 0)
(3 1.53101e-15 0)
(3 1.67756e-15 0)
(3 9.76017e-16 0)
(3 9.68088e-16 0)
(3 1.38743e-15 0)
(3 5.72737e-17 0)
(3 -2.38645e-16 0)
(3 -3.02084e-16 0)
(3 1.75813e-17 0)
(3 6.18208e-17 0)
(3 -2.72243e-16 0)
(3 -3.57452e-16 0)
(3 -1.7071e-16 0)
(3 -4.21528e-16 0)
(3 -2.38386e-16 0)
(3 -1.43876e-16 0)
(3 3.79998e-16 0)
(3 3.94788e-16 0)
(3 -1.43233e-17 0)
(3 -3.45989e-16 0)
(3 -4.47207e-16 0)
(3 -3.68369e-16 0)
(3 -4.60769e-16 0)
(3 -1.40029e-16 0)
(3 -5.28737e-16 0)
(3 -5.5331e-16 0)
(3 -3.28498e-16 0)
(3 -2.76092e-16 0)
(3 9.83891e-17 0)
(3 7.36645e-16 0)
(3 1.3798e-15 0)
(3 1.43125e-15 0)
(3 9.64072e-16 0)
(3 1.36564e-15 0)
(3 1.19938e-15 0)
(3 4.35062e-16 0)
(3 2.08349e-16 0)
(3 7.00751e-17 0)
(3 -1.59813e-16 0)
(3 -1.69351e-16 0)
(3 -5.62518e-16 0)
(3 -7.94541e-16 0)
(3 4.10712e-16 0)
(3 1.59359e-15 0)
(3 1.78186e-15 0)
(3 1.625e-15 0)
(3 1.26103e-15 0)
(3 1.28465e-15 0)
(3 1.73483e-15 0)
(3 1.37737e-15 0)
(3 1.55892e-15 0)
(3 8.45455e-16 0)
(3 7.42933e-16 0)
(3 -4.28394e-17 0)
(3 -7.13606e-17 0)
(3 -1.39224e-16 0)
(3 -7.34908e-17 0)
(3 -1.07474e-16 0)
(3 -2.40202e-16 0)
(3 -7.14818e-18 0)
(3 4.308e-16 0)
(3 3.74331e-16 0)
(3 -1.04384e-16 0)
(3 -6.93342e-16 0)
(3 -3.04552e-16 0)
(3 5.48595e-16 0)
(3 5.21376e-16 0)
(3 -1.63215e-16 0)
(3 -6.97906e-16 0)
(3 -7.7214e-16 0)
(3 -5.67328e-16 0)
(3 4.32685e-17 0)
(3 -1.18147e-16 0)
(3 -1.21504e-15 0)
(3 -1.57753e-15 0)
(3 -7.26842e-16 0)
(3 3.86445e-16 0)
(3 6.86342e-16 0)
(3 6.90119e-16 0)
(3 1.03384e-15 0)
(3 9.27945e-16 0)
(3 8.97833e-16 0)
(3 1.10172e-15 0)
(3 8.37878e-16 0)
(3 4.12959e-16 0)
(3 5.79011e-16 0)
(3 3.26524e-16 0)
(3 1.44482e-16 0)
(3 3.31852e-16 0)
(3 4.66508e-16 0)
(3 3.35728e-16 0)
(3 4.6679e-16 0)
(3 5.83168e-16 0)
(3 2.03976e-15 0)
(3 1.62712e-15 0)
(3 7.49029e-16 0)
(3 2.33768e-16 0)
(3 3.54679e-16 0)
(3 1.14132e-15 0)
(3 8.91388e-16 0)
(3 7.97029e-16 0)
(3 7.74366e-17 0)
(3 6.64153e-17 0)
(3 -2.0801e-18 0)
(3 -4.15208e-16 0)
(3 -5.22539e-16 0)
(3 -3.77297e-17 0)
(3 4.67695e-16 0)
(3 4.28955e-16 0)
(3 1.03306e-16 0)
(3 1.13016e-16 0)
(3 -2.49275e-16 0)
(3 -9.81694e-16 0)
(3 -1.26881e-15 0)
(3 -1.35336e-15 0)
(3 -1.49993e-15 0)
(3 -1.75845e-15 0)
(3 -1.56509e-15 0)
(3 -9.16826e-16 0)
(3 -2.84492e-16 0)
(3 2.32024e-16 0)
(3 -6.15117e-16 0)
(3 -1.90459e-15 0)
(3 -1.96587e-15 0)
(3 -1.38569e-15 0)
(3 -1.48118e-15 0)
(3 -1.80513e-15 0)
(3 -1.91039e-15 0)
(3 -1.35718e-15 0)
(3 -7.19473e-16 0)
(3 -1.19784e-15 0)
(3 -1.32819e-15 0)
(3 -1.57373e-15 0)
(3 -1.17655e-15 0)
(3 -8.0811e-16 0)
(3 2.24234e-16 0)
(3 1.92074e-15 0)
(3 2.04524e-15 0)
(3 9.88792e-16 0)
(3 9.14594e-16 0)
(3 9.3946e-16 0)
(3 9.30054e-16 0)
(3 5.15365e-16 0)
(3 6.03335e-17 0)
(3 -1.10091e-15 0)
(3 -6.38862e-16 0)
(3 1.30053e-15 0)
(3 2.16329e-15 0)
(3 2.02023e-15 0)
(3 1.74612e-18 0)
(3 -2.02033e-18 0)
(3 -5.64397e-17 0)
(3 4.45757e-17 0)
(3 3.08436e-17 0)
(3 -6.31053e-17 0)
(3 -4.54937e-17 0)
(3 -1.12511e-16 0)
(3 4.99069e-16 0)
(3 7.54941e-16 0)
(3 7.00082e-17 0)
(3 -1.4923e-15 0)
(3 -1.35102e-15 0)