/*--------------------------------*- C++ -*----------------------------------*\
  =========                 |
  \\      /  F ield         | OpenFOAM: The Open Source CFD Toolbox
   \\    /   O peration     | Website:  https://openfoam.org
    \\  /    A nd           | Version:  7
     \\/     M anipulation  |
\*---------------------------------------------------------------------------*/
FoamFile
{
    version     2.0;
    format      ascii;
    class       volVectorField;
    location    "0.1";
    object      U;
}
// * * * * * * * * * * * * * * * * * * * * * * * * * * * * * * * * * * * * * //

dimensions      [0 1 -1 0 0 0 0];

internalField   nonuniform List<vector> 
73728
(
(3 6.49569e-18 0)
(3 5.09528e-17 0)
(3 1.6997e-16 0)
(3 5.81209e-16 0)
(3 5.50994e-16 0)
(3 5.66979e-16 0)
(3 1.10114e-15 0)
(3 1.08844e-15 0)
(3 9.22333e-16 0)
(3 8.12138e-16 0)
(3 5.62076e-16 0)
(3 2.62154e-16 0)
(3 -9.65199e-17 0)
(3 -3.77957e-16 0)
(3 -3.66989e-16 0)
(3 -5.30055e-16 0)
(3 -2.18658e-16 0)
(3 -3.67899e-16 0)
(3 4.4613e-16 0)
(3 1.12831e-15 0)
(3 1.45028e-15 0)
(3 1.52585e-15 0)
(3 9.37784e-16 0)
(3 4.25398e-16 0)
(3 -6.62372e-16 0)
(3 -1.10413e-15 0)
(3 -1.75181e-15 0)
(3 -1.48319e-15 0)
(3 -8.09901e-16 0)
(3 -5.69756e-16 0)
(3 1.89907e-16 0)
(3 1.73297e-16 0)
(3 6.46471e-16 0)
(3 1.20234e-15 0)
(3 2.2465e-15 0)
(3 2.67361e-15 0)
(3 1.43535e-15 0)
(3 3.22484e-16 0)
(3 -5.29299e-16 0)
(3 2.86754e-16 0)
(3 8.12178e-17 0)
(3 3.87415e-16 0)
(3 7.4762e-16 0)
(3 6.62166e-16 0)
(3 -8.16774e-16 0)
(3 -1.40329e-15 0)
(3 -1.0281e-15 0)
(3 -2.32082e-16 0)
(3 1.69972e-16 0)
(3 1.51335e-16 0)
(3 -4.40988e-16 0)
(3 -4.8074e-16 0)
(3 -1.22762e-17 0)
(3 -2.30415e-16 0)
(3 -1.08181e-15 0)
(3 -2.00297e-15 0)
(3 -8.68937e-16 0)
(3 2.4925e-16 0)
(3 9.92845e-16 0)
(3 1.72091e-15 0)
(3 1.63656e-15 0)
(3 1.93893e-15 0)
(3 1.67988e-15 0)
(3 4.5645e-16 0)
(3 -2.20749e-16 0)
(3 -5.07206e-16 0)
(3 1.67796e-16 0)
(3 -3.9353e-16 0)
(3 -1.7458e-15 0)
(3 -2.68842e-15 0)
(3 -2.48774e-15 0)
(3 -1.55277e-15 0)
(3 -9.23134e-16 0)
(3 -6.37057e-16 0)
(3 -3.28444e-16 0)
(3 2.14652e-16 0)
(3 2.35408e-16 0)
(3 1.92351e-16 0)
(3 7.12553e-16 0)
(3 7.55085e-16 0)
(3 1.26469e-15 0)
(3 1.39812e-15 0)
(3 4.62966e-16 0)
(3 2.67195e-16 0)
(3 -4.08919e-16 0)
(3 -1.52224e-15 0)
(3 -2.88485e-15 0)
(3 -2.36525e-15 0)
(3 -9.92435e-16 0)
(3 -7.41507e-17 0)
(3 1.20863e-15 0)
(3 1.48763e-15 0)
(3 8.51968e-16 0)
(3 4.03766e-16 0)
(3 1.2615e-16 0)
(3 2.13287e-16 0)
(3 -2.96201e-18 0)
(3 4.53097e-17 0)
(3 6.86664e-16 0)
(3 1.35866e-15 0)
(3 1.31854e-15 0)
(3 1.27579e-15 0)
(3 1.71591e-15 0)
(3 2.55766e-15 0)
(3 2.77749e-15 0)
(3 2.38541e-15 0)
(3 1.30946e-15 0)
(3 1.2183e-15 0)
(3 5.24074e-16 0)
(3 -6.12877e-16 0)
(3 -1.05566e-15 0)
(3 -1.80267e-15 0)
(3 -8.06109e-17 0)
(3 1.09021e-16 0)
(3 5.14084e-16 0)
(3 7.98902e-16 0)
(3 1.00957e-15 0)
(3 8.47268e-16 0)
(3 6.29607e-16 0)
(3 -2.63395e-16 0)
(3 -2.3001e-15 0)
(3 -2.84821e-15 0)
(3 -3.31678e-15 0)
(3 -2.72193e-15 0)
(3 -1.47859e-15 0)
(3 -6.12395e-16 0)
(3 -1.87361e-17 0)
(3 1.82079e-16 0)
(3 1.86698e-16 0)
(3 6.78873e-16 0)
(3 9.84658e-16 0)
(3 1.25046e-15 0)
(3 6.37453e-16 0)
(3 -1.73336e-15 0)
(3 -1.97029e-15 0)
(3 -9.9128e-16 0)
(3 -5.94085e-16 0)
(3 -8.90398e-17 0)
(3 6.04149e-16 0)
(3 5.38624e-16 0)
(3 -1.78225e-16 0)
(3 -2.23045e-15 0)
(3 -3.04089e-15 0)
(3 -3.37519e-15 0)
(3 -1.94708e-15 0)
(3 -1.04437e-15 0)
(3 -8.18054e-16 0)
(3 4.09216e-16 0)
(3 8.18163e-16 0)
(3 2.37064e-16 0)
(3 -4.87045e-16 0)
(3 -1.17063e-15 0)
(3 -7.6649e-16 0)
(3 2.87309e-15 0)
(3 4.01752e-15 0)
(3 2.83398e-15 0)
(3 2.1412e-15 0)
(3 2.04254e-15 0)
(3 2.24602e-15 0)
(3 6.7693e-16 0)
(3 5.97151e-17 0)
(3 1.60728e-17 0)
(3 3.21158e-16 0)
(3 -1.14835e-15 0)
(3 -2.30348e-15 0)
(3 -2.37704e-15 0)
(3 -1.60227e-15 0)
(3 -5.97127e-16 0)
(3 -1.63977e-16 0)
(3 3.4369e-16 0)
(3 4.02074e-16 0)
(3 2.4498e-16 0)
(3 7.86365e-16 0)
(3 1.25258e-15 0)
(3 8.35222e-16 0)
(3 1.84125e-15 0)
(3 3.03665e-15 0)
(3 3.08172e-15 0)
(3 -2.6322e-16 0)
(3 -1.07259e-15 0)
(3 -2.59095e-15 0)
(3 -2.46732e-15 0)
(3 -2.78405e-15 0)
(3 -2.76246e-15 0)
(3 -1.60126e-15 0)
(3 -2.30468e-16 0)
(3 -1.89229e-16 0)
(3 8.26533e-16 0)
(3 1.02783e-15 0)
(3 1.00433e-15 0)
(3 4.08073e-16 0)
(3 4.83795e-16 0)
(3 6.08979e-17 0)
(3 7.3544e-19 0)
(3 -7.26662e-17 0)
(3 -2.62319e-16 0)
(3 -2.95649e-16 0)
(3 3.94322e-17 0)
(3 -6.90736e-16 0)
(3 2.22403e-16 0)
(3 1.2282e-15 0)
(3 1.39144e-15 0)
(3 1.42447e-15 0)
(3 2.34995e-15 0)
(3 1.61747e-15 0)
(3 1.01453e-16 0)
(3 -1.13643e-15 0)
(3 -2.12593e-15 0)
(3 -1.13936e-15 0)
(3 8.86685e-16 0)
(3 1.09439e-15 0)
(3 6.94493e-16 0)
(3 -1.82338e-17 0)
(3 -3.52552e-16 0)
(3 -4.20653e-16 0)
(3 -6.10559e-16 0)
(3 -1.05716e-15 0)
(3 -1.11048e-15 0)
(3 -2.53604e-16 0)
(3 2.4634e-16 0)
(3 -4.16622e-16 0)
(3 -6.61966e-16 0)
(3 -4.28827e-16 0)
(3 1.08398e-17 0)
(3 1.21985e-15 0)
(3 2.14429e-15 0)
(3 2.65188e-15 0)
(3 2.22299e-15 0)
(3 6.02268e-16 0)
(3 -4.78407e-16 0)
(3 -2.08648e-15 0)
(3 -2.46398e-15 0)
(3 -6.80654e-16 0)
(3 -4.06705e-16 0)
(3 -6.04143e-16 0)
(3 -8.78718e-16 0)
(3 -1.11915e-15 0)
(3 -1.99425e-15 0)
(3 -3.99411e-15 0)
(3 -5.99603e-15 0)
(3 -6.24577e-15 0)
(3 -4.82453e-15 0)
(3 -1.88265e-15 0)
(3 -2.82537e-16 0)
(3 -5.47861e-16 0)
(3 1.35485e-16 0)
(3 1.13431e-15 0)
(3 2.46787e-15 0)
(3 3.12043e-15 0)
(3 5.0489e-15 0)
(3 4.97472e-15 0)
(3 4.53699e-15 0)
(3 4.48976e-15 0)
(3 4.71158e-15 0)
(3 4.5423e-15 0)
(3 1.68867e-15 0)
(3 1.53866e-15 0)
(3 1.6149e-15 0)
(3 -2.6565e-17 0)
(3 -1.53383e-15 0)
(3 -2.12039e-15 0)
(3 -1.48677e-15 0)
(3 -1.21035e-15 0)
(3 -8.52811e-16 0)
(3 5.24802e-17 0)
(3 1.39078e-15 0)
(3 1.86497e-15 0)
(3 1.33672e-15 0)
(3 1.75025e-15 0)
(3 2.18437e-15 0)
(3 2.23499e-15 0)
(3 2.80711e-15 0)
(3 3.55256e-15 0)
(3 3.24822e-15 0)
(3 2.63351e-15 0)
(3 1.86274e-15 0)
(3 1.7376e-16 0)
(3 -7.49699e-16 0)
(3 -1.80248e-15 0)
(3 -1.6325e-15 0)
(3 -1.92803e-15 0)
(3 -1.34842e-15 0)
(3 -9.25514e-16 0)
(3 -3.86602e-16 0)
(3 -2.1081e-16 0)
(3 -7.39707e-16 0)
(3 -5.05987e-16 0)
(3 -5.34167e-16 0)
(3 -5.033e-17 0)
(3 -3.13534e-16 0)
(3 -9.19169e-16 0)
(3 -6.41575e-16 0)
(3 -1.21022e-16 0)
(3 -1.29716e-15 0)
(3 -1.78934e-15 0)
(3 -2.391e-15 0)
(3 -1.56938e-15 0)
(3 -6.47023e-16 0)
(3 7.48741e-17 0)
(3 1.207e-15 0)
(3 1.21338e-15 0)
(3 1.40412e-15 0)
(3 6.44903e-16 0)
(3 -1.15105e-15 0)
(3 -2.00814e-15 0)
(3 -1.55354e-15 0)
(3 -1.09388e-16 0)
(3 7.13667e-16 0)
(3 9.49005e-16 0)
(3 2.67806e-16 0)
(3 1.67732e-16 0)
(3 9.58921e-17 0)
(3 2.37822e-16 0)
(3 8.02259e-16 0)
(3 1.25829e-15 0)
(3 1.35545e-15 0)
(3 9.032e-16 0)
(3 7.75274e-16 0)
(3 6.81062e-16 0)
(3 7.9685e-16 0)
(3 2.09569e-15 0)
(3 3.18147e-15 0)
(3 3.05033e-15 0)
(3 1.15518e-15 0)
(3 4.73236e-16 0)
(3 -3.65978e-17 0)
(3 -3.27789e-16 0)
(3 -1.75659e-15 0)
(3 -1.48856e-15 0)
(3 -1.55138e-15 0)
(3 -1.4398e-15 0)
(3 -1.97656e-15 0)
(3 -2.41024e-15 0)
(3 -2.5854e-15 0)
(3 -3.06948e-15 0)
(3 -3.01922e-15 0)
(3 -3.34913e-15 0)
(3 -3.41779e-15 0)
(3 -3.82964e-15 0)
(3 -3.46556e-15 0)
(3 -2.28038e-15 0)
(3 1.2055e-16 0)
(3 8.44003e-16 0)
(3 1.03578e-15 0)
(3 2.03997e-15 0)
(3 2.79931e-15 0)
(3 2.69335e-15 0)
(3 3.90752e-15 0)
(3 5.67886e-15 0)
(3 6.45372e-15 0)
(3 6.15468e-15 0)
(3 2.94552e-15 0)
(3 8.16582e-16 0)
(3 -5.69357e-16 0)
(3 -3.62332e-15 0)
(3 -3.69517e-15 0)
(3 -3.75082e-15 0)
(3 -3.42481e-15 0)
(3 -3.65114e-15 0)
(3 -3.07684e-15 0)
(3 -1.88692e-15 0)
(3 -1.65441e-15 0)
(3 3.21729e-16 0)
(3 2.06438e-15 0)
(3 1.80046e-15 0)
(3 1.07649e-15 0)
(3 1.72182e-15 0)
(3 2.40711e-15 0)
(3 2.91785e-15 0)
(3 1.87641e-15 0)
(3 1.0106e-15 0)
(3 6.7594e-17 0)
(3 2.94985e-16 0)
(3 -1.39338e-15 0)
(3 -2.37392e-15 0)
(3 -2.2801e-15 0)
(3 -1.95902e-15 0)
(3 -1.12287e-15 0)
(3 -4.84543e-16 0)
(3 -4.66733e-16 0)
(3 -1.26682e-15 0)
(3 -2.32136e-15 0)
(3 -2.12608e-15 0)
(3 -1.28136e-15 0)
(3 1.07842e-16 0)
(3 2.20319e-17 0)
(3 3.21274e-16 0)
(3 1.06485e-15 0)
(3 9.32382e-16 0)
(3 3.67816e-16 0)
(3 3.19274e-16 0)
(3 -6.1317e-16 0)
(3 -1.20401e-15 0)
(3 -1.29628e-15 0)
(3 -3.98038e-16 0)
(3 1.40729e-16 0)
(3 1.38242e-15 0)
(3 9.20427e-16 0)
(3 4.81048e-16 0)
(3 -8.11626e-16 0)
(3 -2.2665e-15 0)
(3 -1.94706e-15 0)
(3 -8.78265e-16 0)
(3 3.98079e-16 0)
(3 2.1444e-16 0)
(3 4.42999e-16 0)
(3 5.92154e-16 0)
(3 7.36361e-16 0)
(3 1.1623e-15 0)
(3 1.45649e-15 0)
(3 1.25594e-15 0)
(3 4.46085e-16 0)
(3 6.23425e-16 0)
(3 9.25493e-16 0)
(3 4.03489e-16 0)
(3 -4.35661e-17 0)
(3 3.37527e-16 0)
(3 6.15107e-16 0)
(3 -6.9743e-16 0)
(3 -7.35466e-16 0)
(3 -7.08086e-16 0)
(3 -1.02805e-15 0)
(3 -6.20155e-16 0)
(3 -2.71873e-16 0)
(3 -4.04073e-16 0)
(3 -7.36366e-17 0)
(3 -2.49534e-16 0)
(3 -6.9759e-16 0)
(3 -1.2574e-15 0)
(3 -1.08479e-15 0)
(3 -2.81389e-16 0)
(3 1.3701e-16 0)
(3 -2.66353e-16 0)
(3 -4.32343e-16 0)
(3 -3.5227e-16 0)
(3 -1.64418e-15 0)
(3 -2.3773e-15 0)
(3 -4.65459e-17 0)
(3 2.31679e-15 0)
(3 2.25531e-15 0)
(3 1.26559e-15 0)
(3 1.29549e-15 0)
(3 2.14329e-15 0)
(3 2.39808e-15 0)
(3 4.24492e-15 0)
(3 4.43366e-15 0)
(3 3.38404e-15 0)
(3 1.65428e-15 0)
(3 -2.89193e-16 0)
(3 -1.3211e-15 0)
(3 -2.70323e-15 0)
(3 -3.29871e-15 0)
(3 -3.66953e-15 0)
(3 -3.49043e-15 0)
(3 -3.24769e-15 0)
(3 -2.82396e-15 0)
(3 -2.58987e-15 0)
(3 -2.42556e-15 0)
(3 -2.28894e-15 0)
(3 -1.29705e-15 0)
(3 -9.6088e-16 0)
(3 -6.53363e-16 0)
(3 -6.99337e-17 0)
(3 1.45929e-15 0)
(3 1.52921e-15 0)
(3 9.42147e-16 0)
(3 1.56467e-17 0)
(3 -1.11548e-15 0)
(3 -1.10389e-15 0)
(3 -1.53418e-15 0)
(3 -1.52441e-15 0)
(3 -1.44593e-15 0)
(3 -1.3621e-15 0)
(3 -1.74928e-15 0)
(3 -1.66118e-15 0)
(3 -1.4786e-15 0)
(3 -2.00346e-15 0)
(3 -2.28884e-15 0)
(3 -2.48044e-15 0)
(3 -1.60752e-15 0)
(3 6.55758e-17 0)
(3 3.69322e-16 0)
(3 3.69725e-16 0)
(3 3.29068e-16 0)
(3 3.46228e-16 0)
(3 9.97741e-16 0)
(3 1.52642e-15 0)
(3 1.47009e-15 0)
(3 9.84875e-16 0)
(3 1.25702e-15 0)
(3 1.75281e-15 0)
(3 1.5476e-15 0)
(3 1.13301e-15 0)
(3 7.66723e-16 0)
(3 8.23329e-16 0)
(3 1.53812e-15 0)
(3 1.00969e-15 0)
(3 -4.23713e-16 0)
(3 -1.14439e-15 0)
(3 -1.92808e-15 0)
(3 -1.45745e-15 0)
(3 9.12932e-17 0)
(3 1.17846e-15 0)
(3 2.22523e-15 0)
(3 2.63947e-15 0)
(3 1.81628e-15 0)
(3 1.41544e-15 0)
(3 5.75282e-16 0)
(3 2.80299e-16 0)
(3 -9.60881e-17 0)
(3 -4.23026e-16 0)
(3 -6.04648e-16 0)
(3 -1.06832e-15 0)
(3 -2.1595e-15 0)
(3 -2.67054e-15 0)
(3 -1.86908e-15 0)
(3 -3.97605e-16 0)
(3 4.37004e-16 0)
(3 7.69586e-16 0)
(3 3.26841e-16 0)
(3 3.93966e-16 0)
(3 5.72946e-16 0)
(3 4.48057e-16 0)
(3 1.45895e-15 0)
(3 2.09626e-15 0)
(3 2.66303e-15 0)
(3 3.14753e-15 0)
(3 3.06686e-15 0)
(3 2.69564e-15 0)
(3 1.39614e-15 0)
(3 1.04897e-15 0)
(3 -9.13826e-16 0)
(3 -1.51902e-15 0)
(3 -6.50869e-16 0)
(3 5.12494e-16 0)
(3 1.34953e-15 0)
(3 1.12582e-15 0)
(3 1.23751e-15 0)
(3 1.27704e-15 0)
(3 2.17394e-15 0)
(3 1.46376e-15 0)
(3 9.2228e-16 0)
(3 7.99595e-16 0)
(3 4.76823e-16 0)
(3 -7.71376e-17 0)
(3 -3.22256e-16 0)
(3 -4.1774e-16 0)
(3 -5.62292e-16 0)
(3 -1.67747e-15 0)
(3 -2.49491e-15 0)
(3 -2.05728e-15 0)
(3 -1.21666e-15 0)
(3 -6.00332e-16 0)
(3 -6.59898e-16 0)
(3 -1.86039e-15 0)
(3 -3.44078e-15 0)
(3 -3.29625e-15 0)
(3 -2.41462e-15 0)
(3 -1.08074e-15 0)
(3 3.14044e-17 0)
(3 5.25122e-16 0)
(3 5.0318e-16 0)
(3 -3.51408e-16 0)
(3 -8.60828e-16 0)
(3 -1.21272e-15 0)
(3 -3.67685e-16 0)
(3 3.35099e-16 0)
(3 3.3034e-16 0)
(3 -3.50551e-16 0)
(3 -7.94845e-16 0)
(3 -1.01853e-15 0)
(3 -8.57683e-16 0)
(3 -1.76765e-15 0)
(3 -1.98847e-15 0)
(3 -9.62991e-16 0)
(3 -2.93734e-16 0)
(3 9.15895e-17 0)
(3 1.36085e-16 0)
(3 -5.07941e-16 0)
(3 -1.07866e-15 0)
(3 3.68935e-17 0)
(3 4.91628e-16 0)
(3 6.00811e-16 0)
(3 1.41452e-15 0)
(3 2.25586e-15 0)
(3 2.43435e-15 0)
(3 2.63442e-15 0)
(3 2.59717e-15 0)
(3 1.85762e-15 0)
(3 1.17937e-15 0)
(3 9.97848e-16 0)
(3 1.09576e-15 0)
(3 3.99581e-16 0)
(3 -3.40412e-16 0)
(3 -8.42487e-16 0)
(3 -1.40396e-15 0)
(3 -1.38143e-15 0)
(3 -8.01353e-16 0)
(3 1.2455e-16 0)
(3 1.9824e-15 0)
(3 2.74929e-15 0)
(3 1.30175e-15 0)
(3 -2.48455e-17 0)
(3 2.46394e-16 0)
(3 4.81468e-16 0)
(3 5.38462e-16 0)
(3 4.66155e-16 0)
(3 6.32688e-16 0)
(3 -1.93418e-16 0)
(3 -1.97701e-15 0)
(3 -2.19995e-15 0)
(3 -2.04602e-15 0)
(3 -8.32869e-16 0)
(3 1.41951e-16 0)
(3 8.9631e-16 0)
(3 1.48827e-15 0)
(3 1.49081e-15 0)
(3 1.90708e-15 0)
(3 3.21668e-15 0)
(3 3.69388e-15 0)
(3 3.76995e-15 0)
(3 3.86379e-15 0)
(3 5.0912e-15 0)
(3 5.35048e-15 0)
(3 5.16844e-15 0)
(3 3.1583e-15 0)
(3 6.29972e-16 0)
(3 6.81339e-16 0)
(3 9.7267e-16 0)
(3 6.77602e-16 0)
(3 7.12335e-16 0)
(3 9.42654e-16 0)
(3 1.11784e-15 0)
(3 8.18213e-16 0)
(3 3.83212e-17 0)
(3 -2.98126e-16 0)
(3 -5.16866e-16 0)
(3 2.94759e-16 0)
(3 7.82561e-16 0)
(3 1.43861e-15 0)
(3 1.44172e-15 0)
(3 9.02226e-16 0)
(3 8.92013e-16 0)
(3 1.13265e-15 0)
(3 8.75201e-16 0)
(3 -7.06827e-16 0)
(3 -1.18985e-15 0)
(3 -1.15782e-15 0)
(3 -1.93056e-16 0)
(3 -3.01957e-16 0)
(3 -5.13439e-16 0)
(3 -1.36557e-15 0)
(3 -1.89713e-15 0)
(3 -1.62179e-15 0)
(3 -7.14898e-17 0)
(3 -3.01503e-17 0)
(3 4.92368e-16 0)
(3 1.05042e-15 0)
(3 6.17478e-16 0)
(3 -9.58203e-17 0)
(3 -6.15317e-16 0)
(3 -4.11929e-16 0)
(3 -9.53251e-17 0)
(3 -2.95973e-16 0)
(3 -6.86199e-16 0)
(3 -7.0004e-16 0)
(3 -1.20323e-15 0)
(3 -9.49092e-16 0)
(3 1.20527e-16 0)
(3 1.65876e-16 0)
(3 -3.30389e-16 0)
(3 -5.4726e-16 0)
(3 3.64707e-17 0)
(3 -2.07391e-16 0)
(3 -5.05812e-16 0)
(3 -8.24517e-16 0)
(3 -7.52296e-16 0)
(3 -1.87841e-16 0)
(3 1.95257e-17 0)
(3 -5.46124e-17 0)
(3 3.512e-16 0)
(3 4.61262e-16 0)
(3 3.00202e-16 0)
(3 -4.07595e-17 0)
(3 5.53023e-16 0)
(3 1.19839e-15 0)
(3 1.79746e-15 0)
(3 1.55629e-15 0)
(3 1.33942e-15 0)
(3 1.20223e-15 0)
(3 1.23823e-15 0)
(3 1.54627e-15 0)
(3 1.09478e-15 0)
(3 4.01839e-16 0)
(3 1.41731e-15 0)
(3 2.61914e-15 0)
(3 3.60984e-15 0)
(3 2.22107e-15 0)
(3 7.94561e-16 0)
(3 1.03276e-15 0)
(3 1.5627e-15 0)
(3 1.51812e-15 0)
(3 1.40443e-15 0)
(3 1.05683e-15 0)
(3 7.09088e-16 0)
(3 2.21975e-16 0)
(3 1.28069e-16 0)
(3 9.94641e-16 0)
(3 1.67518e-15 0)
(3 1.99563e-15 0)
(3 2.03009e-15 0)
(3 1.98711e-15 0)
(3 1.92188e-15 0)
(3 2.72978e-15 0)
(3 3.24312e-15 0)
(3 2.79131e-15 0)
(3 2.8569e-15 0)
(3 3.24823e-15 0)
(3 4.26342e-15 0)
(3 4.49973e-15 0)
(3 4.18574e-15 0)
(3 4.1224e-15 0)
(3 3.21021e-15 0)
(3 3.22323e-15 0)
(3 3.01435e-15 0)
(3 3.12323e-15 0)
(3 2.45741e-15 0)
(3 2.3869e-15 0)
(3 2.37529e-15 0)
(3 2.0946e-15 0)
(3 1.24979e-15 0)
(3 -6.81821e-16 0)
(3 -6.14015e-16 0)
(3 -6.45969e-17 0)
(3 -2.66894e-16 0)
(3 6.99913e-16 0)
(3 3.63564e-16 0)
(3 9.47502e-17 0)
(3 1.03975e-15 0)
(3 1.62699e-15 0)
(3 8.34684e-16 0)
(3 2.18848e-16 0)
(3 -6.19729e-16 0)
(3 -6.15364e-16 0)
(3 -4.27724e-16 0)
(3 -8.32585e-16 0)
(3 -4.61956e-16 0)
(3 -2.84256e-17 0)
(3 -5.11137e-16 0)
(3 -6.73097e-16 0)
(3 5.6988e-16 0)
(3 8.43942e-16 0)
(3 1.60614e-15 0)
(3 2.23635e-15 0)
(3 2.78042e-15 0)
(3 2.33407e-15 0)
(3 1.90032e-15 0)
(3 1.28243e-15 0)
(3 -1.53528e-17 0)
(3 -4.48267e-16 0)
(3 -5.10367e-16 0)
(3 -2.62218e-15 0)
(3 -2.93245e-15 0)
(3 -1.94752e-15 0)
(3 5.1624e-16 0)
(3 7.94885e-16 0)
(3 -1.01529e-15 0)
(3 -2.86664e-15 0)
(3 -2.5082e-17 0)
(3 -6.375e-17 0)
(3 3.12582e-16 0)
(3 2.39995e-16 0)
(3 4.47166e-16 0)
(3 6.18247e-17 0)
(3 -1.50692e-16 0)
(3 -2.062e-16 0)
(3 -5.20342e-16 0)
(3 -4.97289e-16 0)
(3 -1.10988e-15 0)
(3 -1.65976e-15 0)
(3 -2.12657e-15 0)
(3 -1.25272e-15 0)
(3 -3.18612e-16 0)
(3 4.75098e-16 0)
(3 8.60941e-16 0)
(3 1.92535e-15 0)
(3 1.70675e-15 0)
(3 1.5023e-15 0)
(3 1.44394e-15 0)
(3 1.59366e-15 0)
(3 1.34837e-15 0)
(3 9.00002e-16 0)
(3 1.4565e-15 0)
(3 1.95836e-15 0)
(3 1.63887e-15 0)
(3 9.99703e-16 0)
(3 4.00438e-16 0)
(3 7.2807e-16 0)
(3 7.19507e-16 0)
(3 9.49819e-16 0)
(3 1.68158e-15 0)
(3 2.43502e-15 0)
(3 2.80276e-15 0)
(3 3.87291e-15 0)
(3 4.23916e-15 0)
(3 3.5831e-15 0)
(3 3.15387e-15 0)
(3 2.4803e-15 0)
(3 2.11096e-15 0)
(3 1.63412e-15 0)
(3 1.32111e-15 0)
(3 9.31264e-16 0)
(3 1.05662e-15 0)
(3 2.51984e-15 0)
(3 3.5571e-15 0)
(3 3.19919e-15 0)
(3 2.43116e-15 0)
(3 2.96113e-15 0)
(3 3.85661e-15 0)
(3 3.22711e-15 0)
(3 2.75595e-15 0)
(3 2.73005e-15 0)
(3 2.93279e-15 0)
(3 2.93473e-15 0)
(3 2.69987e-15 0)
(3 1.02689e-15 0)
(3 2.18123e-16 0)
(3 -6.15751e-17 0)
(3 -2.03011e-15 0)
(3 -2.68526e-15 0)
(3 -3.44775e-15 0)
(3 -2.42426e-15 0)
(3 -2.05274e-16 0)
(3 6.87492e-16 0)
(3 1.10899e-15 0)
(3 5.87165e-16 0)
(3 -3.96325e-16 0)
(3 -8.67718e-16 0)
(3 -1.12734e-15 0)
(3 -1.15016e-15 0)
(3 -1.53867e-15 0)
(3 -2.3821e-15 0)
(3 -9.98264e-16 0)
(3 1.8262e-16 0)
(3 6.80901e-16 0)
(3 4.45448e-16 0)
(3 -9.24768e-16 0)
(3 -5.04736e-16 0)
(3 4.52765e-16 0)
(3 1.81291e-15 0)
(3 3.83334e-15 0)
(3 3.85614e-15 0)
(3 3.21939e-15 0)
(3 2.08982e-15 0)
(3 -1.12981e-16 0)
(3 -1.04567e-15 0)
(3 -3.26931e-15 0)
(3 -3.69835e-15 0)
(3 -3.21778e-15 0)
(3 -1.51176e-15 0)
(3 -1.06328e-15 0)
(3 -1.28806e-15 0)
(3 -1.73804e-15 0)
(3 -2.33393e-15 0)
(3 1.05268e-16 0)
(3 5.76123e-16 0)
(3 7.77603e-16 0)
(3 1.20681e-15 0)
(3 1.7127e-15 0)
(3 5.35953e-16 0)
(3 -5.10712e-16 0)
(3 -5.48785e-16 0)
(3 3.48775e-16 0)
(3 -1.1037e-16 0)
(3 -1.04152e-15 0)
(3 -1.45284e-15 0)
(3 -1.32483e-15 0)
(3 -1.73052e-15 0)
(3 -2.46621e-15 0)
(3 -1.81969e-15 0)
(3 -6.75049e-16 0)
(3 -2.35836e-16 0)
(3 -4.52442e-16 0)
(3 -1.01706e-15 0)
(3 -9.72472e-16 0)
(3 -7.65953e-16 0)
(3 -7.78526e-16 0)
(3 -1.43575e-15 0)
(3 -4.66066e-16 0)
(3 4.22793e-16 0)
(3 4.80815e-16 0)
(3 -1.82353e-16 0)
(3 -7.45552e-16 0)
(3 -1.78247e-16 0)
(3 7.50346e-17 0)
(3 5.80892e-16 0)
(3 1.42242e-15 0)
(3 2.76714e-15 0)
(3 3.18399e-15 0)
(3 3.25112e-15 0)
(3 2.97013e-15 0)
(3 2.75752e-15 0)
(3 3.08598e-15 0)
(3 3.37927e-15 0)
(3 3.08756e-15 0)
(3 2.07693e-15 0)
(3 1.10268e-15 0)
(3 7.59645e-16 0)
(3 6.14253e-16 0)
(3 1.40046e-15 0)
(3 1.91876e-15 0)
(3 2.58437e-15 0)
(3 2.88206e-15 0)
(3 3.68509e-15 0)
(3 3.79047e-15 0)
(3 3.2704e-15 0)
(3 1.23753e-15 0)
(3 2.16906e-17 0)
(3 6.06039e-17 0)
(3 5.42645e-16 0)
(3 3.6142e-16 0)
(3 -7.41479e-16 0)
(3 -1.15809e-15 0)
(3 -1.66538e-15 0)
(3 -2.81732e-15 0)
(3 -4.25668e-15 0)
(3 -4.87037e-15 0)
(3 -5.58569e-15 0)
(3 -2.60832e-15 0)
(3 9.43531e-17 0)
(3 8.3459e-16 0)
(3 2.06609e-16 0)
(3 5.34499e-16 0)
(3 6.49296e-16 0)
(3 1.09841e-16 0)
(3 -6.38537e-16 0)
(3 -2.91466e-15 0)
(3 -3.9202e-15 0)
(3 -1.60693e-15 0)
(3 5.29747e-16 0)
(3 1.61541e-15 0)
(3 1.00268e-15 0)
(3 2.67534e-16 0)
(3 -1.11795e-16 0)
(3 -2.03974e-16 0)
(3 5.24127e-16 0)
(3 2.46711e-15 0)
(3 2.574e-15 0)
(3 1.85634e-15 0)
(3 -8.66386e-17 0)
(3 -7.3817e-16 0)
(3 -2.23349e-15 0)
(3 -2.42237e-15 0)
(3 -2.22016e-15 0)
(3 -2.28368e-15 0)
(3 -2.95267e-15 0)
(3 -4.26673e-15 0)
(3 -4.09215e-15 0)
(3 -2.67528e-15 0)
(3 -2.31578e-15 0)
(3 -2.91126e-16 0)
(3 -3.78865e-16 0)
(3 -3.01814e-16 0)
(3 2.64517e-17 0)
(3 -1.19115e-16 0)
(3 8.47235e-17 0)
(3 3.1332e-16 0)
(3 -4.13515e-17 0)
(3 -1.05581e-16 0)
(3 -5.40934e-16 0)
(3 -1.61107e-15 0)
(3 -1.27179e-15 0)
(3 -8.32036e-16 0)
(3 -6.66762e-16 0)
(3 -9.32273e-16 0)
(3 -8.82212e-16 0)
(3 2.14697e-16 0)
(3 -8.98754e-16 0)
(3 -1.72697e-15 0)
(3 -1.95739e-15 0)
(3 -1.50955e-15 0)
(3 -1.35963e-15 0)
(3 -1.58612e-15 0)
(3 -1.09934e-15 0)
(3 -1.0466e-15 0)
(3 -5.90544e-16 0)
(3 7.16572e-16 0)
(3 1.17968e-15 0)
(3 1.05769e-15 0)
(3 3.19227e-16 0)
(3 3.85008e-16 0)
(3 4.9291e-16 0)
(3 1.25681e-15 0)
(3 2.0605e-15 0)
(3 2.88364e-15 0)
(3 3.25265e-15 0)
(3 3.13862e-15 0)
(3 3.31379e-15 0)
(3 3.29666e-15 0)
(3 2.24995e-15 0)
(3 1.61558e-15 0)
(3 1.0028e-15 0)
(3 8.14486e-16 0)
(3 7.78614e-16 0)
(3 3.56611e-16 0)
(3 6.67863e-16 0)
(3 -1.46276e-16 0)
(3 4.49611e-16 0)
(3 3.4793e-15 0)
(3 4.91669e-15 0)
(3 3.83155e-15 0)
(3 3.30465e-15 0)
(3 2.70543e-15 0)
(3 -4.14894e-16 0)
(3 -1.04003e-15 0)
(3 -1.54791e-15 0)
(3 -2.3096e-15 0)
(3 -1.1712e-15 0)
(3 -3.79329e-16 0)
(3 -2.04519e-16 0)
(3 -4.05649e-16 0)
(3 -1.28132e-15 0)
(3 -2.55672e-15 0)
(3 -3.75709e-15 0)
(3 -4.09734e-15 0)
(3 -3.75979e-15 0)
(3 -1.7448e-15 0)
(3 -5.36808e-16 0)
(3 7.7581e-16 0)
(3 1.17392e-15 0)
(3 1.25727e-15 0)
(3 9.86586e-16 0)
(3 -8.03307e-16 0)
(3 -1.97071e-15 0)
(3 -1.17284e-15 0)
(3 -6.01013e-16 0)
(3 -3.34723e-16 0)
(3 1.34318e-16 0)
(3 1.58089e-15 0)
(3 1.54986e-15 0)
(3 1.03058e-15 0)
(3 8.75132e-16 0)
(3 1.32792e-15 0)
(3 5.07237e-16 0)
(3 -2.72857e-15 0)
(3 -3.71561e-15 0)
(3 -3.58828e-15 0)
(3 -3.24977e-15 0)
(3 -1.28239e-15 0)
(3 -9.05806e-16 0)
(3 -1.34324e-15 0)
(3 -3.17343e-15 0)
(3 -3.68398e-15 0)
(3 -2.67862e-15 0)
(3 -2.73822e-15 0)
(3 -1.73994e-15 0)
(3 -1.98865e-16 0)
(3 -1.01278e-16 0)
(3 3.55466e-16 0)
(3 1.10588e-16 0)
(3 4.44888e-17 0)
(3 6.2426e-16 0)
(3 1.40515e-15 0)
(3 1.31704e-15 0)
(3 4.85426e-16 0)
(3 1.85958e-16 0)
(3 2.85394e-17 0)
(3 -6.0067e-16 0)
(3 -7.93658e-16 0)
(3 -3.49054e-16 0)
(3 4.26575e-16 0)
(3 3.61022e-16 0)
(3 7.15025e-17 0)
(3 -3.47788e-16 0)
(3 -1.44344e-16 0)
(3 4.01947e-16 0)
(3 3.41282e-16 0)
(3 2.2604e-16 0)
(3 -3.55894e-16 0)
(3 -3.71748e-16 0)
(3 -1.43712e-15 0)
(3 -1.47825e-15 0)
(3 6.83417e-16 0)
(3 1.03178e-15 0)
(3 1.76993e-15 0)
(3 8.80369e-16 0)
(3 5.81813e-16 0)
(3 4.85148e-16 0)
(3 6.79214e-16 0)
(3 5.71935e-16 0)
(3 1.11191e-15 0)
(3 2.07854e-15 0)
(3 2.82401e-15 0)
(3 2.26859e-15 0)
(3 1.10681e-15 0)
(3 9.79144e-16 0)
(3 1.2183e-15 0)
(3 9.3868e-16 0)
(3 4.61415e-16 0)
(3 3.46227e-16 0)
(3 -1.04009e-16 0)
(3 -1.61344e-16 0)
(3 -7.67788e-16 0)
(3 1.72806e-17 0)
(3 9.9672e-16 0)
(3 8.02772e-16 0)
(3 2.93276e-15 0)
(3 4.63698e-15 0)
(3 5.20144e-15 0)
(3 3.05712e-15 0)
(3 9.19926e-16 0)
(3 -1.02745e-15 0)
(3 -1.11995e-15 0)
(3 5.80163e-16 0)
(3 2.53269e-15 0)
(3 2.02644e-15 0)
(3 7.27867e-16 0)
(3 -1.48347e-15 0)
(3 -1.74831e-15 0)
(3 -1.63096e-15 0)
(3 -2.13985e-15 0)
(3 -1.89244e-15 0)
(3 -1.10414e-15 0)
(3 -3.00661e-17 0)
(3 3.31743e-16 0)
(3 5.34226e-16 0)
(3 5.07268e-16 0)
(3 -6.18738e-17 0)
(3 -1.141e-15 0)
(3 -1.56302e-15 0)
(3 -1.66804e-15 0)
(3 -1.24394e-15 0)
(3 -5.16642e-16 0)
(3 4.72384e-16 0)
(3 1.38025e-15 0)
(3 1.26348e-15 0)
(3 1.04093e-15 0)
(3 1.23441e-15 0)
(3 1.35879e-15 0)
(3 -2.22392e-15 0)
(3 -4.14584e-15 0)
(3 -4.62243e-15 0)
(3 -3.64222e-15 0)
(3 -2.20327e-15 0)
(3 -1.89479e-15 0)
(3 -7.92606e-16 0)
(3 -6.96213e-16 0)
(3 -1.20945e-15 0)
(3 -1.37493e-15 0)
(3 -1.56368e-15 0)
(3 -1.35495e-15 0)
(3 6.99605e-17 0)
(3 5.55524e-17 0)
(3 3.40473e-16 0)
(3 6.6827e-16 0)
(3 1.35616e-16 0)
(3 -9.92342e-17 0)
(3 1.20325e-16 0)
(3 2.86517e-16 0)
(3 5.25437e-16 0)
(3 4.23304e-16 0)
(3 -1.07087e-16 0)
(3 -8.5139e-16 0)
(3 -1.38857e-15 0)
(3 -1.94844e-15 0)
(3 -1.72079e-15 0)
(3 -4.2489e-16 0)
(3 3.66805e-16 0)
(3 8.18674e-17 0)
(3 3.26902e-16 0)
(3 1.20545e-15 0)
(3 1.63327e-15 0)
(3 1.7788e-15 0)
(3 1.80094e-15 0)
(3 1.62809e-15 0)
(3 8.29443e-16 0)
(3 -2.25931e-16 0)
(3 -1.0157e-15 0)
(3 2.62003e-17 0)
(3 6.11006e-16 0)
(3 8.09148e-16 0)
(3 1.01163e-15 0)
(3 1.56347e-15 0)
(3 8.16639e-16 0)
(3 2.29052e-16 0)
(3 8.06936e-16 0)
(3 1.03152e-15 0)
(3 1.27801e-15 0)
(3 -1.0325e-15 0)
(3 -1.5448e-15 0)
(3 -8.01659e-16 0)
(3 1.19766e-16 0)
(3 4.79171e-16 0)
(3 1.53091e-15 0)
(3 1.8583e-15 0)
(3 6.17069e-16 0)
(3 -3.04493e-16 0)
(3 -1.13877e-15 0)
(3 -1.69305e-15 0)
(3 -1.3422e-15 0)
(3 -1.5826e-15 0)
(3 -2.83842e-15 0)
(3 -5.3835e-16 0)
(3 2.61763e-15 0)
(3 3.84271e-15 0)
(3 3.84952e-15 0)
(3 3.0547e-15 0)
(3 1.84984e-15 0)
(3 3.4282e-15 0)
(3 2.44122e-15 0)
(3 1.57893e-15 0)
(3 -4.2459e-16 0)
(3 -3.27144e-15 0)
(3 -4.17869e-15 0)
(3 -3.95e-15 0)
(3 -2.61348e-15 0)
(3 -1.32097e-15 0)
(3 1.11233e-15 0)
(3 2.52559e-15 0)
(3 2.72294e-15 0)
(3 2.43894e-15 0)
(3 2.2524e-15 0)
(3 2.08239e-15 0)
(3 9.01509e-16 0)
(3 -2.50947e-16 0)
(3 -1.21603e-15 0)
(3 -2.19216e-15 0)
(3 -2.28605e-15 0)
(3 -1.11082e-15 0)
(3 -6.805e-16 0)
(3 -6.35637e-16 0)
(3 -5.66841e-16 0)
(3 -1.08021e-15 0)
(3 -1.77584e-15 0)
(3 -1.93361e-15 0)
(3 -1.22888e-15 0)
(3 -7.91839e-16 0)
(3 -1.39495e-15 0)
(3 -1.15901e-15 0)
(3 -7.40277e-16 0)
(3 2.07416e-16 0)
(3 -9.97052e-17 0)
(3 -4.6486e-16 0)
(3 -1.17118e-15 0)
(3 -1.38604e-15 0)
(3 -1.3722e-15 0)
(3 -6.92026e-16 0)
(3 1.00092e-15 0)
(3 2.79605e-16 0)
(3 3.28869e-16 0)
(3 -1.98974e-17 0)
(3 8.67748e-17 0)
(3 2.63118e-17 0)
(3 -1.36888e-16 0)
(3 -5.26621e-16 0)
(3 -8.11839e-16 0)
(3 -5.01728e-16 0)
(3 -7.22148e-17 0)
(3 6.06365e-17 0)
(3 -7.96833e-16 0)
(3 -1.86194e-15 0)
(3 -2.83748e-15 0)
(3 -2.4928e-15 0)
(3 -1.72273e-15 0)
(3 -1.41717e-15 0)
(3 -6.57409e-16 0)
(3 6.70034e-16 0)
(3 1.38261e-15 0)
(3 1.98836e-15 0)
(3 2.34685e-15 0)
(3 1.99607e-15 0)
(3 1.5866e-15 0)
(3 1.5558e-15 0)
(3 1.80081e-15 0)
(3 2.27568e-15 0)
(3 2.92806e-15 0)
(3 2.30134e-15 0)
(3 1.96731e-15 0)
(3 9.33959e-16 0)
(3 -6.16945e-16 0)
(3 -7.84327e-16 0)
(3 1.40336e-16 0)
(3 1.64158e-15 0)
(3 6.25311e-16 0)
(3 -2.27977e-15 0)
(3 -2.65662e-15 0)
(3 -1.68949e-15 0)
(3 -1.15041e-15 0)
(3 -1.36051e-15 0)
(3 -1.22805e-15 0)
(3 -7.3953e-16 0)
(3 -1.14368e-15 0)
(3 -1.04407e-15 0)
(3 -1.01093e-15 0)
(3 -1.00409e-15 0)
(3 -1.83805e-15 0)
(3 -2.67373e-15 0)
(3 -3.73993e-15 0)
(3 -3.54447e-15 0)
(3 -5.07437e-16 0)
(3 2.09168e-16 0)
(3 8.67969e-16 0)
(3 1.43163e-15 0)
(3 1.72614e-15 0)
(3 1.99091e-15 0)
(3 1.79643e-15 0)
(3 1.02327e-15 0)
(3 1.18057e-15 0)
(3 9.55284e-16 0)
(3 7.84013e-16 0)
(3 -1.39284e-15 0)
(3 -3.86807e-15 0)
(3 -3.18578e-15 0)
(3 -1.82198e-15 0)
(3 5.10774e-16 0)
(3 2.34513e-15 0)
(3 2.09757e-15 0)
(3 8.53745e-16 0)
(3 5.34968e-17 0)
(3 1.82534e-16 0)
(3 1.20886e-15 0)
(3 1.28006e-15 0)
(3 8.47379e-16 0)
(3 4.00452e-16 0)
(3 -6.70117e-16 0)
(3 -1.31758e-15 0)
(3 -2.48677e-15 0)
(3 -2.76019e-15 0)
(3 -3.22336e-15 0)
(3 -4.62469e-15 0)
(3 -4.50779e-15 0)
(3 -2.46235e-15 0)
(3 -1.43461e-16 0)
(3 -2.10895e-16 0)
(3 -7.36995e-16 0)
(3 2.25925e-16 0)
(3 5.61324e-16 0)
(3 5.59595e-16 0)
(3 8.66848e-16 0)
(3 7.45554e-16 0)
(3 7.86941e-16 0)
(3 9.55179e-16 0)
(3 5.94489e-16 0)
(3 -2.50457e-16 0)
(3 4.93458e-18 0)
(3 1.07205e-17 0)
(3 -3.49888e-16 0)
(3 -5.77889e-16 0)
(3 -4.93788e-16 0)
(3 -3.13167e-16 0)
(3 -6.1203e-16 0)
(3 -9.38312e-16 0)
(3 -8.88849e-16 0)
(3 3.54219e-16 0)
(3 1.82822e-15 0)
(3 1.97739e-15 0)
(3 1.43445e-15 0)
(3 -8.05659e-16 0)
(3 -2.87585e-15 0)
(3 -1.81085e-15 0)
(3 -1.28375e-15 0)
(3 2.85455e-16 0)
(3 1.3506e-15 0)
(3 1.83951e-15 0)
(3 1.70055e-15 0)
(3 1.58444e-15 0)
(3 1.28602e-15 0)
(3 1.09948e-15 0)
(3 8.27036e-16 0)
(3 4.73491e-16 0)
(3 7.73034e-16 0)
(3 4.95764e-16 0)
(3 6.82846e-16 0)
(3 9.85517e-16 0)
(3 4.52169e-17 0)
(3 -2.38894e-16 0)
(3 -6.57667e-16 0)
(3 -1.27784e-15 0)
(3 -1.41463e-15 0)
(3 -1.43096e-15 0)
(3 -1.61731e-15 0)
(3 -1.69016e-15 0)
(3 -1.77527e-15 0)
(3 -1.92293e-15 0)
(3 -2.17258e-15 0)
(3 -2.44241e-15 0)
(3 -1.89093e-15 0)
(3 -1.52817e-15 0)
(3 -1.5306e-15 0)
(3 -1.24615e-15 0)
(3 -1.04008e-15 0)
(3 -1.59166e-15 0)
(3 -1.70559e-15 0)
(3 -1.78616e-15 0)
(3 -1.00075e-15 0)
(3 -2.82883e-16 0)
(3 4.7913e-16 0)
(3 1.54323e-15 0)
(3 2.53711e-15 0)
(3 2.75665e-15 0)
(3 2.20279e-15 0)
(3 1.25053e-15 0)
(3 1.23603e-15 0)
(3 1.70113e-15 0)
(3 2.35207e-15 0)
(3 2.25232e-15 0)
(3 6.58599e-16 0)
(3 1.16033e-15 0)
(3 1.22791e-15 0)
(3 7.84064e-16 0)
(3 9.33075e-16 0)
(3 1.06823e-15 0)
(3 1.02389e-15 0)
(3 -4.21775e-16 0)
(3 -8.32205e-16 0)
(3 -2.62868e-16 0)
(3 7.09636e-16 0)
(3 8.68901e-16 0)
(3 6.14466e-16 0)
(3 4.93143e-16 0)
(3 3.55901e-16 0)
(3 -8.05856e-16 0)
(3 -1.94989e-15 0)
(3 -2.25515e-15 0)
(3 -3.49367e-15 0)
(3 -4.39956e-15 0)
(3 -4.2859e-15 0)
(3 -3.85213e-15 0)
(3 -2.95184e-15 0)
(3 -6.21255e-16 0)
(3 2.89904e-16 0)
(3 1.84194e-16 0)
(3 -1.65774e-16 0)
(3 4.92747e-16 0)
(3 2.34536e-15 0)
(3 3.41673e-15 0)
(3 2.93201e-15 0)
(3 2.33565e-15 0)
(3 1.53788e-15 0)
(3 6.56209e-16 0)
(3 -1.38325e-16 0)
(3 -2.67991e-16 0)
(3 -4.8379e-16 0)
(3 -8.50758e-16 0)
(3 -1.04822e-15 0)
(3 -8.11769e-16 0)
(3 -2.28017e-16 0)
(3 -5.5317e-16 0)
(3 -6.21176e-16 0)
(3 1.2777e-16 0)
(3 1.9479e-16 0)
(3 -2.35276e-16 0)
(3 4.44282e-16 0)
(3 -9.29017e-16 0)
(3 -2.94847e-15 0)
(3 -2.37939e-16 0)
(3 8.24136e-16 0)
(3 2.40849e-15 0)
(3 3.16799e-15 0)
(3 3.04588e-15 0)
(3 1.85154e-15 0)
(3 3.14861e-16 0)
(3 -2.42998e-16 0)
(3 -1.31281e-15 0)
(3 -2.35701e-15 0)
(3 -2.26565e-15 0)
(3 -1.99474e-15 0)
(3 -1.66729e-15 0)
(3 -1.22232e-15 0)
(3 -4.5694e-16 0)
(3 2.99775e-16 0)
(3 7.0591e-16 0)
(3 8.55423e-16 0)
(3 -1.6018e-15 0)
(3 -3.62186e-15 0)
(3 -2.95431e-15 0)
(3 -1.07719e-15 0)
(3 -6.14244e-16 0)
(3 -1.06287e-15 0)
(3 -1.89117e-15 0)
(3 -2.26464e-15 0)
(3 -1.9376e-15 0)
(3 -1.76338e-15 0)
(3 -2.338e-15 0)
(3 -2.86971e-15 0)
(3 -2.61904e-15 0)
(3 -2.4349e-15 0)
(3 -1.47311e-15 0)
(3 -5.14791e-16 0)
(3 2.88481e-16 0)
(3 7.99794e-18 0)
(3 -2.69003e-16 0)
(3 1.48568e-15 0)
(3 2.72091e-15 0)
(3 2.62707e-15 0)
(3 1.68297e-15 0)
(3 5.6417e-16 0)
(3 -1.22985e-15 0)
(3 -2.32991e-15 0)
(3 -2.58351e-15 0)
(3 -7.63022e-16 0)
(3 1.42856e-15 0)
(3 2.3235e-15 0)
(3 5.10771e-15 0)
(3 5.18067e-15 0)
(3 4.83889e-15 0)
(3 3.47231e-15 0)
(3 2.63198e-15 0)
(3 2.20659e-15 0)
(3 9.18911e-16 0)
(3 6.89427e-16 0)
(3 4.22689e-16 0)
(3 -1.26761e-15 0)
(3 -1.84158e-15 0)
(3 -1.95452e-15 0)
(3 -1.71117e-15 0)
(3 -2.13684e-15 0)
(3 -2.2041e-15 0)
(3 -1.74031e-15 0)
(3 -7.88961e-16 0)
(3 -7.67958e-16 0)
(3 -2.90329e-15 0)
(3 -3.40552e-15 0)
(3 -3.54641e-15 0)
(3 -3.35801e-15 0)
(3 -2.17465e-15 0)
(3 5.64163e-17 0)
(3 8.70549e-16 0)
(3 1.05854e-15 0)
(3 2.11799e-15 0)
(3 3.27512e-15 0)
(3 3.29352e-15 0)
(3 2.16683e-15 0)
(3 1.63279e-15 0)
(3 8.86515e-16 0)
(3 4.00543e-16 0)
(3 -5.65828e-17 0)
(3 -2.56947e-16 0)
(3 -3.3497e-16 0)
(3 2.97975e-17 0)
(3 -5.00848e-17 0)
(3 -2.78425e-16 0)
(3 -7.56804e-17 0)
(3 2.26685e-16 0)
(3 5.1529e-16 0)
(3 8.95041e-17 0)
(3 -4.25093e-16 0)
(3 -8.22498e-16 0)
(3 -2.92037e-16 0)
(3 -3.29807e-16 0)
(3 -1.30207e-15 0)
(3 -4.97681e-16 0)
(3 3.83245e-17 0)
(3 1.22915e-15 0)
(3 2.83351e-15 0)
(3 3.88593e-15 0)
(3 2.20275e-15 0)
(3 5.08939e-16 0)
(3 -6.05075e-16 0)
(3 -2.56138e-15 0)
(3 -2.71901e-15 0)
(3 -2.00356e-15 0)
(3 -1.93944e-15 0)
(3 -1.9755e-15 0)
(3 -2.08389e-15 0)
(3 -1.81559e-15 0)
(3 -8.85728e-16 0)
(3 -3.52914e-16 0)
(3 -1.20882e-15 0)
(3 -2.09884e-15 0)
(3 -3.11032e-15 0)
(3 -4.03436e-15 0)
(3 -3.52032e-15 0)
(3 -2.19605e-15 0)
(3 -2.2752e-15 0)
(3 -2.85063e-15 0)
(3 -3.97128e-15 0)
(3 -4.59864e-15 0)
(3 -4.93029e-15 0)
(3 -4.20768e-15 0)
(3 -3.02758e-15 0)
(3 -1.1528e-16 0)
(3 1.56108e-15 0)
(3 1.64052e-15 0)
(3 1.48207e-15 0)
(3 1.67851e-15 0)
(3 1.83249e-15 0)
(3 1.74115e-15 0)
(3 1.44001e-15 0)
(3 1.54259e-15 0)
(3 7.51739e-16 0)
(3 -3.56975e-17 0)
(3 -8.09096e-16 0)
(3 -1.5547e-15 0)
(3 -2.55132e-15 0)
(3 -3.3154e-15 0)