/*--------------------------------*- C++ -*----------------------------------*\
  =========                 |
  \\      /  F ield         | OpenFOAM: The Open Source CFD Toolbox
   \\    /   O peration     | Website:  https://openfoam.org
    \\  /    A nd           | Version:  7
     \\/     M anipulation  |
\*---------------------------------------------------------------------------*/
FoamFile
{
    version     2.0;
    format      ascii;
    class       volVectorField;
    location    "3.6";
    object      U;
}
// * * * * * * * * * * * * * * * * * * * * * * * * * * * * * * * * * * * * * //

dimensions      [0 1 -1 0 0 0 0];

internalField   nonuniform List<vector> 
73728
(
(3 3.89632e-17 0)
(3 -1.90953e-16 0)
(3 -4.70519e-16 0)
(3 -4.59765e-16 0)
(3 -3.49477e-16 0)
(3 -1.05375e-16 0)
(3 2.23947e-16 0)
(3 7.14801e-16 0)
(3 9.34037e-16 0)
(3 9.80223e-16 0)
(3 2.06285e-16 0)
(3 -4.9726e-16 0)
(3 -6.44296e-16 0)
(3 -7.8445e-16 0)
(3 -1.07401e-15 0)
(3 -9.99295e-16 0)
(3 -5.85236e-16 0)
(3 -2.96353e-16 0)
(3 5.70398e-16 0)
(3 1.60076e-15 0)
(3 1.16971e-15 0)
(3 3.76766e-16 0)
(3 3.24016e-16 0)
(3 -2.57034e-16 0)
(3 -1.17749e-15 0)
(3 -1.47469e-15 0)
(3 -2.41387e-15 0)
(3 -1.67493e-15 0)
(3 -3.78776e-16 0)
(3 5.00552e-16 0)
(3 1.33097e-15 0)
(3 1.64128e-15 0)
(3 3.57119e-16 0)
(3 -4.19463e-16 0)
(3 -4.52446e-16 0)
(3 -7.75041e-16 0)
(3 -8.39383e-16 0)
(3 -2.72212e-16 0)
(3 6.74828e-17 0)
(3 4.52724e-17 0)
(3 5.4969e-16 0)
(3 2.78204e-15 0)
(3 3.11925e-15 0)
(3 2.48227e-15 0)
(3 1.76998e-15 0)
(3 5.82866e-16 0)
(3 3.15303e-16 0)
(3 -1.00921e-16 0)
(3 -1.36221e-15 0)
(3 -1.51079e-15 0)
(3 -8.86918e-16 0)
(3 -6.66276e-16 0)
(3 -1.21097e-15 0)
(3 -1.23965e-15 0)
(3 -4.40602e-16 0)
(3 2.82976e-16 0)
(3 4.46608e-16 0)
(3 9.92225e-16 0)
(3 5.66528e-16 0)
(3 3.11453e-16 0)
(3 6.80397e-16 0)
(3 1.09507e-15 0)
(3 7.16513e-16 0)
(3 9.86672e-16 0)
(3 6.55523e-16 0)
(3 3.99764e-16 0)
(3 2.34432e-16 0)
(3 2.35019e-17 0)
(3 -4.18977e-16 0)
(3 -7.37219e-16 0)
(3 -1.33861e-15 0)
(3 -2.80699e-16 0)
(3 8.47477e-16 0)
(3 7.88554e-16 0)
(3 3.26137e-16 0)
(3 3.40181e-16 0)
(3 6.10721e-16 0)
(3 8.67511e-16 0)
(3 1.75381e-16 0)
(3 -8.55468e-16 0)
(3 -1.65691e-15 0)
(3 -1.59973e-15 0)
(3 -1.57605e-15 0)
(3 -1.55899e-15 0)
(3 -1.29554e-15 0)
(3 -9.52274e-16 0)
(3 -3.61888e-16 0)
(3 1.29553e-16 0)
(3 -5.56183e-17 0)
(3 -2.32332e-16 0)
(3 -3.9561e-16 0)
(3 -6.83196e-16 0)
(3 -1.12815e-15 0)
(3 -1.37952e-15 0)
(3 -1.88649e-15 0)
(3 -1.6264e-15 0)
(3 1.95807e-16 0)
(3 1.99387e-16 0)
(3 -2.85107e-16 0)
(3 -4.19508e-16 0)
(3 -2.30733e-16 0)
(3 1.27366e-16 0)
(3 2.98121e-16 0)
(3 3.71681e-16 0)
(3 7.72491e-16 0)
(3 1.0811e-15 0)
(3 2.87162e-16 0)
(3 -8.09661e-16 0)
(3 -1.13973e-15 0)
(3 -1.52244e-15 0)
(3 -1.87067e-15 0)
(3 -1.82588e-15 0)
(3 -8.94745e-16 0)
(3 3.60926e-16 0)
(3 8.73887e-16 0)
(3 2.05596e-15 0)
(3 1.66815e-15 0)
(3 9.34429e-16 0)
(3 -1.53348e-16 0)
(3 -1.23519e-15 0)
(3 -2.13857e-15 0)
(3 -2.21152e-15 0)
(3 -2.57661e-15 0)
(3 -1.15117e-15 0)
(3 -6.54992e-16 0)
(3 1.47334e-15 0)
(3 2.28129e-15 0)
(3 2.01442e-15 0)
(3 6.80867e-16 0)
(3 -6.15405e-16 0)
(3 -1.13679e-15 0)
(3 -2.01e-15 0)
(3 -2.11195e-15 0)
(3 -1.24515e-16 0)
(3 7.79248e-16 0)
(3 1.44595e-15 0)
(3 2.96271e-15 0)
(3 3.30839e-15 0)
(3 2.96194e-15 0)
(3 1.53137e-15 0)
(3 1.25216e-15 0)
(3 8.13798e-16 0)
(3 9.75728e-16 0)
(3 4.22296e-16 0)
(3 -3.56567e-16 0)
(3 -8.40908e-17 0)
(3 7.94461e-16 0)
(3 6.01629e-16 0)
(3 -8.94957e-16 0)
(3 -1.74657e-16 0)
(3 -3.45649e-16 0)
(3 8.16894e-16 0)
(3 1.40701e-15 0)
(3 1.20016e-15 0)
(3 -1.19221e-15 0)
(3 -1.80835e-15 0)
(3 -1.19649e-15 0)
(3 9.65029e-16 0)
(3 8.48219e-16 0)
(3 8.49968e-16 0)
(3 9.14182e-16 0)
(3 1.38029e-15 0)
(3 1.67504e-15 0)
(3 9.73627e-16 0)
(3 2.20821e-16 0)
(3 -3.05729e-16 0)
(3 -1.31231e-15 0)
(3 -6.8057e-16 0)
(3 3.45495e-16 0)
(3 4.39581e-16 0)
(3 -2.22261e-16 0)
(3 4.18834e-17 0)
(3 5.90682e-16 0)
(3 5.46367e-16 0)
(3 4.23112e-16 0)
(3 -6.58656e-16 0)
(3 -2.47813e-15 0)
(3 -3.29918e-15 0)
(3 -3.38527e-15 0)
(3 -2.82881e-15 0)
(3 -2.45732e-15 0)
(3 -2.78488e-15 0)
(3 -1.97008e-15 0)
(3 -1.9586e-15 0)
(3 -1.87259e-15 0)
(3 -1.03208e-15 0)
(3 1.22212e-17 0)
(3 -8.35511e-16 0)
(3 -1.47838e-15 0)
(3 -2.87378e-15 0)
(3 -3.82312e-15 0)
(3 -3.52499e-15 0)
(3 -1.08036e-16 0)
(3 -1.46255e-17 0)
(3 2.35989e-16 0)
(3 1.61768e-16 0)
(3 1.80358e-16 0)
(3 4.66844e-16 0)
(3 8.38813e-16 0)
(3 7.22262e-16 0)
(3 7.27055e-16 0)
(3 1.14167e-15 0)
(3 1.06401e-15 0)
(3 3.85879e-16 0)
(3 2.73469e-17 0)
(3 -4.91638e-16 0)
(3 -6.18451e-16 0)
(3 -7.11509e-16 0)
(3 -3.45998e-16 0)
(3 6.35793e-16 0)
(3 1.8495e-15 0)
(3 2.23271e-15 0)
(3 1.52834e-15 0)
(3 1.52674e-15 0)
(3 6.15037e-16 0)
(3 4.0876e-16 0)
(3 4.16072e-16 0)
(3 -1.57122e-16 0)
(3 -1.4114e-15 0)
(3 -1.64763e-15 0)
(3 -1.47052e-15 0)
(3 3.00095e-16 0)
(3 1.50105e-15 0)
(3 9.50188e-16 0)
(3 6.83203e-16 0)
(3 5.72591e-16 0)
(3 2.31951e-16 0)
(3 -3.43728e-16 0)
(3 -2.6835e-17 0)
(3 1.83636e-16 0)
(3 -1.1836e-16 0)
(3 7.76866e-16 0)
(3 2.07378e-15 0)
(3 1.91332e-15 0)
(3 1.13986e-15 0)
(3 8.14003e-16 0)
(3 6.9492e-16 0)
(3 1.5515e-16 0)
(3 -2.46103e-16 0)
(3 2.7594e-16 0)
(3 7.59647e-16 0)
(3 1.64973e-15 0)
(3 1.87762e-15 0)
(3 8.07461e-16 0)
(3 6.64249e-16 0)
(3 1.99888e-15 0)
(3 2.36679e-15 0)
(3 2.50811e-15 0)
(3 2.73537e-15 0)
(3 1.93921e-15 0)
(3 1.092e-15 0)
(3 2.33965e-16 0)
(3 -4.96219e-16 0)
(3 -7.37092e-16 0)
(3 -6.38351e-16 0)
(3 -4.77966e-16 0)
(3 1.13804e-16 0)
(3 1.20954e-15 0)
(3 1.77596e-15 0)
(3 1.44001e-15 0)
(3 7.05698e-16 0)
(3 -8.01535e-16 0)
(3 -1.39576e-15 0)
(3 -1.05786e-15 0)
(3 -1.34036e-15 0)
(3 -1.2578e-15 0)
(3 -1.03294e-15 0)
(3 1.54066e-17 0)
(3 7.16278e-17 0)
(3 -1.40774e-16 0)
(3 5.94663e-16 0)
(3 8.72569e-16 0)
(3 3.67555e-16 0)
(3 -8.40314e-16 0)
(3 -1.3734e-15 0)
(3 -1.68883e-15 0)
(3 -1.09454e-15 0)
(3 5.63286e-17 0)
(3 -6.78557e-16 0)
(3 -1.09303e-15 0)
(3 6.12932e-16 0)
(3 -2.4975e-16 0)
(3 -1.3309e-15 0)
(3 -2.60495e-15 0)
(3 -3.25871e-15 0)
(3 -4.06805e-15 0)
(3 -3.57084e-15 0)
(3 -2.35175e-15 0)
(3 -2.31111e-17 0)
(3 -1.22027e-16 0)
(3 4.67652e-17 0)
(3 6.09656e-16 0)
(3 8.56042e-16 0)
(3 4.54351e-16 0)
(3 4.7447e-16 0)
(3 7.35476e-16 0)
(3 8.87057e-16 0)
(3 1.23498e-15 0)
(3 1.80875e-15 0)
(3 1.4113e-15 0)
(3 1.05856e-15 0)
(3 1.23964e-15 0)
(3 1.01572e-15 0)
(3 6.59284e-16 0)
(3 5.13179e-16 0)
(3 7.27727e-16 0)
(3 1.77493e-15 0)
(3 1.23401e-15 0)
(3 1.03169e-15 0)
(3 2.20833e-15 0)
(3 2.72119e-15 0)
(3 1.56935e-15 0)
(3 1.17866e-15 0)
(3 -1.02375e-16 0)
(3 -4.64605e-16 0)
(3 -1.07909e-15 0)
(3 -1.54801e-15 0)
(3 -1.59198e-15 0)
(3 -1.35233e-15 0)
(3 3.9041e-16 0)
(3 2.6598e-16 0)
(3 2.18197e-16 0)
(3 8.73034e-16 0)
(3 1.97564e-15 0)
(3 2.71781e-15 0)
(3 2.01694e-15 0)
(3 1.55157e-15 0)
(3 5.58317e-16 0)
(3 5.31614e-16 0)
(3 9.91968e-16 0)
(3 1.87049e-15 0)
(3 3.4277e-15 0)
(3 3.40589e-15 0)
(3 1.67564e-15 0)
(3 -3.09114e-16 0)
(3 -4.01895e-16 0)
(3 4.05743e-16 0)
(3 2.57778e-16 0)
(3 3.60971e-16 0)
(3 -6.35676e-17 0)
(3 2.40866e-16 0)
(3 1.05959e-15 0)
(3 2.11646e-15 0)
(3 3.25536e-15 0)
(3 3.18892e-15 0)
(3 2.42428e-15 0)
(3 8.82563e-16 0)
(3 5.39578e-16 0)
(3 -2.30059e-16 0)
(3 -2.33578e-15 0)
(3 -2.05091e-15 0)
(3 -9.96317e-16 0)
(3 -2.12419e-17 0)
(3 6.00847e-16 0)
(3 8.53606e-17 0)
(3 -5.62533e-19 0)
(3 3.65853e-16 0)
(3 1.43519e-16 0)
(3 -2.47667e-17 0)
(3 -5.48861e-16 0)
(3 -5.16392e-16 0)
(3 -7.1731e-16 0)
(3 -3.92451e-17 0)
(3 -9.4596e-17 0)
(3 -1.10283e-15 0)
(3 -1.04025e-15 0)
(3 -7.31374e-16 0)
(3 -1.40277e-16 0)
(3 2.15907e-16 0)
(3 -2.07496e-16 0)
(3 7.23223e-16 0)
(3 5.67256e-16 0)
(3 8.83837e-16 0)
(3 2.79162e-15 0)
(3 2.13217e-15 0)
(3 -4.57449e-16 0)
(3 -2.00197e-15 0)
(3 -1.99605e-15 0)
(3 -2.49733e-15 0)
(3 -3.08485e-15 0)
(3 -3.62106e-15 0)
(3 -2.93216e-15 0)
(3 -2.39265e-15 0)
(3 -6.06038e-16 0)
(3 1.62585e-16 0)
(3 1.35087e-16 0)
(3 -3.02044e-16 0)
(3 -5.10303e-16 0)
(3 -7.22351e-17 0)
(3 -2.04769e-16 0)
(3 -5.67701e-16 0)
(3 -2.6901e-16 0)
(3 1.49821e-16 0)
(3 3.48646e-16 0)
(3 2.53104e-16 0)
(3 3.38307e-16 0)
(3 2.68469e-16 0)
(3 7.46094e-16 0)
(3 7.30303e-16 0)
(3 2.58156e-16 0)
(3 2.34448e-16 0)
(3 8.62214e-16 0)
(3 1.03801e-15 0)
(3 7.07911e-16 0)
(3 9.34382e-16 0)
(3 1.68366e-15 0)
(3 1.82654e-15 0)
(3 5.93724e-16 0)
(3 6.20578e-16 0)
(3 6.19679e-16 0)
(3 5.50787e-16 0)
(3 2.2296e-16 0)
(3 6.88635e-17 0)
(3 -1.7632e-15 0)
(3 -3.1385e-15 0)
(3 -2.35748e-15 0)
(3 -1.19658e-15 0)
(3 -7.43642e-16 0)
(3 3.47261e-16 0)
(3 1.69114e-15 0)
(3 1.91706e-15 0)
(3 1.65685e-15 0)
(3 5.60655e-16 0)
(3 2.74493e-16 0)
(3 5.33791e-16 0)
(3 1.30804e-15 0)
(3 1.88633e-15 0)
(3 2.18768e-15 0)
(3 2.05329e-15 0)
(3 1.85098e-15 0)
(3 2.0138e-15 0)
(3 1.61932e-15 0)
(3 1.44187e-15 0)
(3 2.60664e-16 0)
(3 9.94437e-17 0)
(3 -5.41176e-16 0)
(3 -1.387e-15 0)
(3 -3.99234e-17 0)
(3 6.40316e-16 0)
(3 1.09502e-15 0)
(3 1.4244e-15 0)
(3 1.42091e-15 0)
(3 1.14926e-15 0)
(3 9.67153e-16 0)
(3 4.82243e-16 0)
(3 -7.24756e-16 0)
(3 7.58042e-17 0)
(3 -1.00019e-16 0)
(3 -4.51447e-16 0)
(3 -4.06655e-16 0)
(3 1.43763e-16 0)
(3 5.92725e-16 0)
(3 1.15353e-15 0)
(3 1.38816e-15 0)
(3 3.66239e-16 0)
(3 -2.27521e-16 0)
(3 -2.20437e-16 0)
(3 7.11733e-17 0)
(3 6.96621e-17 0)
(3 1.2919e-16 0)
(3 9.96201e-16 0)
(3 1.51199e-15 0)
(3 9.13499e-16 0)
(3 8.9734e-16 0)
(3 1.65333e-15 0)
(3 1.67556e-15 0)
(3 1.71456e-15 0)
(3 1.82489e-15 0)
(3 8.31098e-16 0)
(3 1.80109e-15 0)
(3 1.89698e-15 0)
(3 -2.74052e-16 0)
(3 -1.80724e-15 0)
(3 -3.20219e-15 0)
(3 -3.32794e-15 0)
(3 -3.06308e-15 0)
(3 -2.43919e-15 0)
(3 -2.43357e-15 0)
(3 -1.43666e-15 0)
(3 1.72755e-15 0)
(3 -1.39185e-16 0)
(3 -9.63769e-17 0)
(3 6.45393e-17 0)
(3 -1.14974e-16 0)
(3 -9.31912e-16 0)
(3 -6.69538e-16 0)
(3 -3.88129e-16 0)
(3 -3.42566e-16 0)
(3 -1.19185e-16 0)
(3 -3.19422e-16 0)
(3 9.23965e-18 0)
(3 8.15718e-16 0)
(3 8.95089e-16 0)
(3 7.10802e-16 0)
(3 3.29166e-16 0)
(3 3.1186e-16 0)
(3 6.91491e-16 0)
(3 1.2444e-15 0)
(3 5.9124e-16 0)
(3 3.25932e-16 0)
(3 5.09966e-16 0)
(3 9.61673e-16 0)
(3 1.49981e-15 0)
(3 1.4264e-15 0)
(3 9.26283e-16 0)
(3 4.93442e-16 0)
(3 8.29082e-17 0)
(3 -1.26109e-15 0)
(3 -1.90628e-15 0)
(3 -1.92795e-15 0)
(3 -1.96414e-15 0)
(3 -2.15354e-15 0)
(3 -2.29683e-15 0)
(3 -2.15257e-15 0)
(3 -1.0519e-15 0)
(3 -3.18958e-16 0)
(3 -8.05817e-16 0)
(3 -1.24876e-15 0)
(3 -8.67368e-16 0)
(3 -6.02223e-16 0)
(3 4.48627e-17 0)
(3 2.02749e-16 0)
(3 8.47936e-16 0)
(3 9.21486e-16 0)
(3 1.15024e-15 0)
(3 1.62044e-15 0)
(3 2.75643e-15 0)
(3 2.70415e-15 0)
(3 1.41393e-15 0)
(3 -1.0019e-15 0)
(3 -1.95298e-15 0)
(3 -2.433e-15 0)
(3 -2.07823e-15 0)
(3 -1.83997e-15 0)
(3 -1.58621e-15 0)
(3 -7.76107e-16 0)
(3 -5.85508e-16 0)
(3 -5.08814e-17 0)
(3 2.97321e-16 0)
(3 5.66945e-16 0)
(3 1.00795e-15 0)
(3 6.51592e-16 0)
(3 -3.75681e-16 0)
(3 -7.78589e-16 0)
(3 -8.63175e-16 0)
(3 -8.50653e-16 0)
(3 -2.83e-16 0)
(3 -3.79401e-16 0)
(3 -8.54546e-16 0)
(3 -5.79278e-16 0)
(3 1.14356e-15 0)
(3 1.51879e-15 0)
(3 8.64031e-16 0)
(3 1.04898e-15 0)
(3 8.65981e-16 0)
(3 1.13588e-15 0)
(3 1.52644e-15 0)
(3 1.79286e-15 0)
(3 1.62162e-15 0)
(3 1.80776e-15 0)
(3 2.16454e-15 0)
(3 2.36705e-15 0)
(3 1.80483e-15 0)
(3 1.03309e-15 0)
(3 -7.81791e-16 0)
(3 -1.19257e-15 0)
(3 -9.40639e-16 0)
(3 -1.18883e-15 0)
(3 -1.92276e-15 0)
(3 -2.66435e-15 0)
(3 -3.80422e-15 0)
(3 -3.44744e-15 0)
(3 -1.97235e-15 0)
(3 -1.45878e-15 0)
(3 -3.90573e-16 0)
(3 1.86411e-15 0)
(3 -9.2783e-17 0)
(3 -3.86504e-17 0)
(3 -5.86241e-17 0)
(3 -1.54214e-17 0)
(3 -2.55298e-16 0)
(3 -1.451e-15 0)
(3 -1.50985e-15 0)
(3 -1.54039e-15 0)
(3 -1.20441e-15 0)
(3 -9.23674e-16 0)
(3 6.23543e-16 0)
(3 8.39285e-16 0)
(3 6.07639e-16 0)
(3 6.35345e-16 0)
(3 1.38208e-16 0)
(3 -2.52411e-16 0)
(3 -2.20561e-16 0)
(3 -3.09581e-16 0)
(3 1.39425e-16 0)
(3 7.50243e-16 0)
(3 1.23773e-15 0)
(3 1.94813e-15 0)
(3 2.39184e-15 0)
(3 2.48708e-15 0)
(3 1.36992e-15 0)
(3 1.18816e-16 0)
(3 -3.52285e-16 0)
(3 -7.88713e-16 0)
(3 -7.66254e-16 0)
(3 -6.82775e-16 0)
(3 1.76794e-16 0)
(3 1.03735e-17 0)
(3 -5.97728e-16 0)
(3 -9.56634e-16 0)
(3 -2.03694e-15 0)
(3 -2.49731e-15 0)
(3 -2.3443e-15 0)
(3 -1.98468e-15 0)
(3 -6.33876e-16 0)
(3 -4.01365e-16 0)
(3 -1.01456e-15 0)
(3 -2.48961e-15 0)
(3 -9.6283e-16 0)
(3 9.03131e-16 0)
(3 1.51216e-15 0)
(3 1.50134e-15 0)
(3 1.46997e-15 0)
(3 2.65743e-15 0)
(3 3.02165e-15 0)
(3 2.74537e-15 0)
(3 1.88882e-15 0)
(3 4.33909e-16 0)
(3 -1.58558e-16 0)
(3 -1.72952e-15 0)
(3 -2.85804e-15 0)
(3 -2.57633e-15 0)
(3 -2.51895e-15 0)
(3 -1.77044e-15 0)
(3 -1.38606e-15 0)
(3 -9.51426e-16 0)
(3 -1.73475e-18 0)
(3 7.39215e-16 0)
(3 -1.07618e-16 0)
(3 -8.51797e-17 0)
(3 -1.09424e-16 0)
(3 -2.74816e-16 0)
(3 -8.44922e-16 0)
(3 -1.47233e-15 0)
(3 -2.0541e-15 0)
(3 -2.50018e-15 0)
(3 -9.38479e-16 0)
(3 3.88385e-16 0)
(3 1.11314e-15 0)
(3 1.27685e-15 0)
(3 9.02518e-16 0)
(3 2.59528e-16 0)
(3 1.46878e-16 0)
(3 1.47728e-16 0)
(3 8.38152e-16 0)
(3 1.92396e-15 0)
(3 2.57517e-15 0)
(3 1.91265e-15 0)
(3 5.38689e-17 0)
(3 -5.72668e-16 0)
(3 -8.7999e-16 0)
(3 -1.80854e-15 0)
(3 -1.85222e-15 0)
(3 -1.57259e-15 0)
(3 -1.62706e-15 0)
(3 -1.30561e-15 0)
(3 -8.36004e-16 0)
(3 -1.5247e-16 0)
(3 -1.60952e-16 0)
(3 -9.70112e-17 0)
(3 -1.14837e-16 0)
(3 1.22298e-16 0)
(3 -1.34297e-17 0)
(3 -2.78451e-16 0)
(3 -7.63007e-16 0)
(3 -5.9287e-16 0)
(3 -4.53162e-16 0)
(3 -1.13044e-15 0)
(3 -1.38885e-15 0)
(3 -1.18817e-15 0)
(3 -1.20545e-15 0)
(3 -5.60065e-16 0)
(3 -4.71389e-16 0)
(3 -6.91205e-16 0)
(3 -1.8693e-16 0)
(3 2.25238e-16 0)
(3 5.36126e-16 0)
(3 -2.87014e-16 0)
(3 -8.07265e-16 0)
(3 -1.04845e-15 0)
(3 -3.92128e-16 0)
(3 9.6532e-16 0)
(3 2.01334e-15 0)
(3 1.88427e-15 0)
(3 1.45612e-15 0)
(3 1.03485e-16 0)
(3 -4.28834e-16 0)
(3 -3.48605e-16 0)
(3 -7.43751e-17 0)
(3 5.96334e-17 0)
(3 5.00987e-16 0)
(3 9.80035e-16 0)
(3 9.41855e-16 0)
(3 9.56072e-17 0)
(3 2.3089e-16 0)
(3 9.2711e-17 0)
(3 -9.64174e-16 0)
(3 -1.52065e-15 0)
(3 -1.33474e-15 0)
(3 -1.4639e-15 0)
(3 -1.81228e-15 0)
(3 -1.68862e-15 0)
(3 -2.51926e-15 0)
(3 -2.19974e-15 0)
(3 -1.61284e-15 0)
(3 -2.1695e-15 0)
(3 -2.11044e-15 0)
(3 -1.74421e-16 0)
(3 7.99016e-16 0)
(3 1.28885e-15 0)
(3 1.88821e-15 0)
(3 2.53092e-15 0)
(3 1.01951e-15 0)
(3 4.92388e-16 0)
(3 -2.02916e-16 0)
(3 -5.44909e-16 0)
(3 -2.07749e-15 0)
(3 -2.4567e-15 0)
(3 -2.40112e-15 0)
(3 -1.66061e-15 0)
(3 -1.70656e-16 0)
(3 9.84318e-16 0)
(3 1.27814e-15 0)
(3 1.63567e-15 0)
(3 2.14436e-15 0)
(3 1.0433e-15 0)
(3 1.4459e-15 0)
(3 1.17666e-15 0)
(3 9.15964e-16 0)
(3 -3.58813e-16 0)
(3 -1.13615e-15 0)
(3 -9.79916e-16 0)
(3 -8.39253e-16 0)
(3 -1.68187e-16 0)
(3 -4.19446e-17 0)
(3 -7.74117e-16 0)
(3 -1.17167e-15 0)
(3 -3.42419e-16 0)
(3 3.93591e-16 0)
(3 1.99738e-16 0)
(3 1.08341e-15 0)
(3 1.51141e-15 0)
(3 2.06692e-15 0)
(3 1.60416e-15 0)
(3 7.02592e-16 0)
(3 2.83339e-16 0)
(3 1.05647e-16 0)
(3 -1.03109e-15 0)
(3 -1.13875e-15 0)
(3 -1.00435e-15 0)
(3 -6.78077e-16 0)
(3 7.85295e-16 0)
(3 2.37559e-15 0)
(3 2.55707e-15 0)
(3 9.47203e-16 0)
(3 2.70246e-16 0)
(3 -7.18e-16 0)
(3 -8.82699e-16 0)
(3 2.62303e-17 0)
(3 -3.96827e-16 0)
(3 -3.16057e-16 0)
(3 3.11828e-17 0)
(3 5.71181e-16 0)
(3 1.03222e-15 0)
(3 5.42753e-16 0)
(3 1.4184e-16 0)
(3 1.31063e-16 0)
(3 -7.27184e-17 0)
(3 1.80737e-17 0)
(3 2.65689e-16 0)
(3 5.78941e-16 0)
(3 1.2296e-15 0)
(3 1.32994e-15 0)
(3 9.43036e-16 0)
(3 8.56765e-17 0)
(3 -5.59582e-16 0)
(3 -5.10363e-16 0)
(3 -2.72082e-16 0)
(3 -5.83305e-17 0)
(3 -3.17655e-16 0)
(3 -8.17693e-16 0)
(3 -1.56211e-15 0)
(3 -1.88882e-15 0)
(3 -1.76451e-15 0)
(3 -3.58113e-16 0)
(3 4.6396e-16 0)
(3 2.16457e-16 0)
(3 -9.49809e-17 0)
(3 -1.77714e-16 0)
(3 3.27822e-17 0)
(3 7.41831e-16 0)
(3 -2.73898e-17 0)
(3 -1.45686e-16 0)
(3 5.81874e-16 0)
(3 7.67214e-16 0)
(3 1.73249e-17 0)
(3 -2.32067e-16 0)
(3 -5.65534e-16 0)
(3 -1.06719e-15 0)
(3 -1.10642e-15 0)
(3 -1.59234e-15 0)
(3 -2.351e-15 0)
(3 -2.28985e-15 0)
(3 -5.71082e-16 0)
(3 1.37049e-15 0)
(3 4.77618e-16 0)
(3 -7.24865e-16 0)
(3 -1.21533e-15 0)
(3 -8.58187e-16 0)
(3 -8.26864e-16 0)
(3 -9.05422e-16 0)
(3 -2.43475e-16 0)
(3 5.53731e-16 0)
(3 1.99376e-16 0)
(3 1.43191e-15 0)
(3 2.08289e-15 0)
(3 2.84502e-15 0)
(3 2.61281e-15 0)
(3 2.50417e-15 0)
(3 2.81571e-15 0)
(3 2.49656e-15 0)
(3 1.64355e-15 0)
(3 1.58805e-15 0)
(3 1.19801e-15 0)
(3 1.3707e-15 0)
(3 1.71539e-15 0)
(3 1.23322e-15 0)
(3 2.65102e-16 0)
(3 3.63638e-16 0)
(3 -1.38e-16 0)
(3 -1.46745e-15 0)
(3 -1.82624e-15 0)
(3 -1.55162e-15 0)
(3 -9.17779e-16 0)
(3 4.51037e-16 0)
(3 7.77187e-16 0)
(3 -7.56903e-18 0)
(3 -7.66914e-16 0)
(3 -7.09148e-16 0)
(3 -9.70272e-16 0)
(3 1.91723e-16 0)
(3 4.74445e-16 0)
(3 -2.55266e-17 0)
(3 -4.67782e-16 0)
(3 -1.61362e-16 0)
(3 1.62317e-16 0)
(3 3.9986e-16 0)
(3 1.26445e-15 0)
(3 2.3697e-15 0)
(3 3.10938e-15 0)
(3 1.89233e-15 0)
(3 1.75241e-16 0)
(3 -1.5064e-15 0)
(3 -2.03029e-15 0)
(3 -8.86749e-17 0)
(3 5.07511e-17 0)
(3 1.24784e-16 0)
(3 2.97907e-16 0)
(3 7.68177e-16 0)
(3 1.4391e-15 0)
(3 1.16426e-15 0)
(3 8.21506e-16 0)
(3 1.60308e-15 0)
(3 1.16649e-15 0)
(3 1.08271e-15 0)
(3 1.1478e-15 0)
(3 2.01281e-15 0)
(3 2.32693e-15 0)
(3 8.85222e-16 0)
(3 3.43797e-16 0)
(3 -2.461e-16 0)
(3 -1.42048e-15 0)
(3 -1.4419e-15 0)
(3 -1.08284e-15 0)
(3 -2.12424e-15 0)
(3 -2.23081e-15 0)
(3 -2.06738e-15 0)
(3 -1.11499e-15 0)
(3 -1.09328e-15 0)
(3 -4.48675e-16 0)
(3 -4.44337e-16 0)
(3 -1.54315e-16 0)
(3 -2.9442e-16 0)
(3 -8.13613e-16 0)
(3 -1.05424e-15 0)
(3 3.1497e-17 0)
(3 4.86271e-16 0)
(3 4.54992e-16 0)
(3 6.93229e-16 0)
(3 9.20419e-16 0)
(3 4.50487e-16 0)
(3 1.1742e-15 0)
(3 1.6651e-15 0)
(3 1.23987e-15 0)
(3 9.88279e-16 0)
(3 7.79506e-16 0)
(3 2.10803e-16 0)
(3 -2.23129e-16 0)
(3 -4.3579e-16 0)
(3 -3.69725e-16 0)
(3 -8.78766e-16 0)
(3 -1.06113e-15 0)
(3 -1.77431e-15 0)
(3 -2.63322e-15 0)
(3 -1.88195e-15 0)
(3 4.10992e-16 0)
(3 1.19999e-15 0)
(3 1.74152e-15 0)
(3 3.19214e-15 0)
(3 4.06182e-15 0)
(3 4.04545e-15 0)
(3 3.77279e-15 0)
(3 3.32456e-15 0)
(3 3.02507e-15 0)
(3 3.30767e-15 0)
(3 3.50369e-15 0)
(3 2.67319e-15 0)
(3 2.24315e-15 0)
(3 2.30639e-15 0)
(3 1.23984e-15 0)
(3 6.50861e-16 0)
(3 1.58745e-16 0)
(3 -6.62385e-17 0)
(3 -1.62213e-16 0)
(3 -2.93731e-16 0)
(3 -2.01184e-16 0)
(3 -4.30739e-19 0)
(3 1.89639e-16 0)
(3 -1.44251e-17 0)
(3 -1.78501e-16 0)
(3 -1.09282e-16 0)
(3 4.84517e-16 0)
(3 -3.28851e-16 0)
(3 -1.83755e-15 0)
(3 -3.27111e-15 0)
(3 -2.79378e-15 0)
(3 -1.41974e-15 0)
(3 2.87075e-16 0)
(3 1.95643e-16 0)
(3 1.16866e-15 0)
(3 1.33699e-15 0)
(3 1.15543e-15 0)
(3 3.71368e-16 0)
(3 -1.18877e-16 0)
(3 6.60829e-17 0)
(3 9.20521e-16 0)
(3 9.54171e-16 0)
(3 4.26773e-16 0)
(3 -2.41856e-16 0)
(3 -1.07592e-15 0)
(3 1.0627e-16 0)
(3 7.04837e-16 0)
(3 1.03554e-15 0)
(3 3.72272e-16 0)
(3 -3.82906e-16 0)
(3 4.69831e-17 0)
(3 6.37858e-16 0)
(3 1.19876e-15 0)
(3 1.3535e-15 0)
(3 1.32131e-15 0)
(3 1.00513e-15 0)
(3 7.3288e-16 0)
(3 7.22147e-16 0)
(3 5.11822e-16 0)
(3 -1.76009e-16 0)
(3 -1.82032e-16 0)
(3 -7.17364e-16 0)
(3 -1.4061e-15 0)
(3 -2.64553e-15 0)
(3 -2.77678e-15 0)
(3 -3.25532e-15 0)
(3 -3.43972e-15 0)
(3 -3.39565e-15 0)
(3 -2.07254e-15 0)
(3 3.47525e-16 0)
(3 1.87137e-15 0)
(3 1.57708e-15 0)
(3 1.0152e-15 0)
(3 5.1163e-16 0)
(3 -1.95877e-16 0)
(3 -1.58046e-17 0)
(3 -9.56111e-16 0)
(3 -1.31088e-15 0)
(3 -7.41247e-16 0)
(3 -1.37488e-16 0)
(3 5.32896e-16 0)
(3 8.91564e-16 0)
(3 1.21116e-15 0)
(3 1.73481e-15 0)
(3 1.72017e-15 0)
(3 1.88698e-15 0)
(3 1.63534e-15 0)
(3 9.79685e-16 0)
(3 4.75211e-16 0)
(3 -3.4384e-16 0)
(3 -8.20704e-16 0)
(3 -4.23394e-16 0)
(3 2.29594e-16 0)
(3 3.35014e-16 0)
(3 -7.57622e-16 0)
(3 -1.3084e-15 0)
(3 -1.11968e-15 0)
(3 -3.83889e-16 0)
(3 8.683e-16 0)
(3 3.06893e-15 0)
(3 3.89149e-15 0)
(3 3.43414e-15 0)
(3 2.75311e-15 0)
(3 3.26284e-15 0)
(3 4.30534e-15 0)
(3 4.7638e-15 0)
(3 4.43953e-15 0)
(3 3.44025e-15 0)
(3 2.5986e-15 0)
(3 2.0707e-15 0)
(3 9.56599e-16 0)
(3 2.13353e-16 0)
(3 -1.0415e-15 0)
(3 -9.49384e-16 0)
(3 -2.19571e-16 0)
(3 -8.61997e-18 0)
(3 6.30997e-17 0)
(3 1.5367e-15 0)
(3 1.82568e-15 0)
(3 2.25026e-15 0)
(3 2.11512e-15 0)
(3 7.90354e-16 0)
(3 -1.62076e-16 0)
(3 -1.39028e-16 0)
(3 -9.87794e-16 0)
(3 -2.14171e-15 0)
(3 -1.90613e-15 0)
(3 -1.80599e-15 0)
(3 -1.01096e-17 0)
(3 4.43465e-16 0)
(3 7.82228e-16 0)
(3 1.11726e-15 0)
(3 1.3048e-15 0)
(3 1.37094e-15 0)
(3 6.66986e-17 0)
(3 -1.0898e-15 0)
(3 -1.54328e-15 0)
(3 -7.19823e-16 0)
(3 6.97763e-16 0)
(3 1.11815e-15 0)
(3 7.95948e-16 0)
(3 1.15729e-16 0)
(3 4.54313e-16 0)
(3 4.55227e-16 0)
(3 4.43632e-16 0)
(3 2.85409e-16 0)
(3 2.71506e-16 0)
(3 4.14699e-16 0)
(3 4.35541e-16 0)
(3 9.83772e-17 0)
(3 -1.82657e-16 0)
(3 -4.04103e-16 0)
(3 -7.43152e-16 0)
(3 -1.44131e-15 0)
(3 -1.89208e-15 0)
(3 -1.58762e-15 0)
(3 -1.1018e-15 0)
(3 -1.25411e-15 0)
(3 -1.68081e-15 0)
(3 -2.1077e-15 0)
(3 -3.0716e-15 0)
(3 -3.53719e-15 0)
(3 -3.46429e-15 0)
(3 -2.56765e-15 0)
(3 -1.54786e-15 0)
(3 -7.20998e-16 0)
(3 5.53399e-16 0)
(3 8.76361e-16 0)
(3 1.50931e-15 0)
(3 2.31041e-15 0)
(3 2.12117e-15 0)
(3 1.49398e-15 0)
(3 2.48958e-16 0)
(3 -7.14689e-16 0)
(3 -1.41754e-15 0)
(3 -1.73032e-15 0)
(3 -9.93999e-16 0)
(3 9.47729e-17 0)
(3 1.00818e-15 0)
(3 3.38093e-16 0)
(3 3.53444e-16 0)
(3 1.97214e-16 0)
(3 -2.05452e-16 0)
(3 -3.18903e-16 0)
(3 -2.8541e-16 0)
(3 -1.14943e-15 0)
(3 -1.72391e-15 0)
(3 1.65256e-16 0)
(3 3.41779e-16 0)
(3 -1.84905e-16 0)
(3 -1.06479e-15 0)
(3 -7.08876e-16 0)
(3 3.79254e-16 0)
(3 4.89958e-16 0)
(3 5.7341e-17 0)
(3 -1.33656e-16 0)
(3 1.20515e-15 0)
(3 1.90955e-15 0)
(3 2.39843e-15 0)
(3 4.00267e-15 0)
(3 4.04958e-15 0)
(3 4.0629e-15 0)
(3 2.23253e-15 0)
(3 1.20357e-15 0)
(3 9.50897e-16 0)
(3 1.56272e-16 0)
(3 -5.90333e-16 0)
(3 -1.05068e-15 0)
(3 -8.85723e-16 0)
(3 -9.68133e-16 0)
(3 -1.02681e-15 0)
(3 -6.23226e-16 0)
(3 -1.37703e-16 0)
(3 7.10691e-16 0)
(3 1.44812e-15 0)
(3 1.72953e-15 0)
(3 1.12302e-15 0)
(3 5.22301e-16 0)
(3 -7.61868e-16 0)
(3 -9.53144e-16 0)
(3 -1.05775e-15 0)
(3 -7.34342e-16 0)
(3 -8.53081e-17 0)
(3 -6.589e-16 0)
(3 -3.23046e-16 0)
(3 -1.58116e-16 0)
(3 7.34712e-16 0)
(3 1.81998e-15 0)
(3 2.01603e-15 0)
(3 1.90426e-15 0)
(3 1.35574e-15 0)
(3 1.73302e-16 0)
(3 -3.35365e-16 0)
(3 -6.72416e-16 0)
(3 8.75318e-16 0)
(3 2.78922e-15 0)
(3 3.3234e-15 0)
(3 -2.58704e-16 0)
(3 -3.22737e-16 0)
(3 -4.07649e-16 0)
(3 -1.18735e-16 0)
(3 2.4053e-16 0)
(3 1.42544e-16 0)
(3 -4.20822e-17 0)
(3 1.81351e-16 0)
(3 2.07983e-16 0)
(3 8.87733e-17 0)
(3 -3.07549e-16 0)
(3 -7.22251e-16 0)
(3 -9.54828e-16 0)
(3 -9.00448e-16 0)
(3 -6.22647e-16 0)
(3 -7.75271e-16 0)
(3 -1.44988e-15 0)
(3 -1.56022e-15 0)
(3 -1.14978e-15 0)
(3 -1.39773e-15 0)
(3 -2.143e-15 0)
(3 -1.74702e-15 0)
(3 -4.44555e-18 0)
(3 4.86805e-16 0)
(3 1.05105e-15 0)
(3 9.956e-16 0)
(3 6.29666e-16 0)
(3 1.45442e-15 0)
(3 1.98716e-15 0)
(3 2.08673e-15 0)
(3 1.86162e-15 0)
(3 5.68266e-16 0)
(3 2.57566e-16 0)
(3 4.13575e-16 0)
(3 -1.55703e-16 0)
(3 -8.62825e-16 0)
(3 -6.34805e-16 0)
(3 -3.73993e-16 0)
(3 -1.24914e-15 0)
(3 -1.24823e-15 0)
(3 -1.28665e-15 0)
(3 -1.86237e-15 0)
(3 -1.8415e-15 0)
(3 -1.20548e-15 0)
(3 -6.86676e-16 0)
(3 -8.96452e-17 0)
(3 -3.47235e-16 0)
(3 -1.45707e-15 0)
(3 -2.45374e-15 0)
(3 -2.29011e-15 0)
(3 -1.14102e-15 0)
(3 -6.08785e-16 0)
(3 -3.31656e-16 0)
(3 -4.06569e-16 0)
(3 3.62322e-16 0)
(3 8.34502e-16 0)
(3 2.31433e-16 0)
(3 1.87171e-15 0)
(3 3.89201e-15 0)
(3 3.18876e-15 0)
(3 2.27292e-15 0)
(3 1.98559e-15 0)
(3 1.17384e-15 0)
(3 7.46111e-16 0)
(3 -7.08126e-16 0)
(3 -1.75075e-15 0)
(3 -1.79847e-15 0)
(3 -1.69375e-15 0)
(3 -1.20788e-15 0)
(3 -8.62855e-16 0)
(3 -6.87788e-16 0)
(3 -7.14239e-16 0)
(3 -1.8701e-15 0)
(3 -8.3368e-16 0)
(3 5.99317e-16 0)
(3 1.35677e-15 0)
(3 1.71563e-15 0)
(3 2.21399e-15 0)
(3 9.63253e-16 0)
(3 4.00669e-16 0)
(3 1.61857e-15 0)
(3 1.91901e-15 0)
(3 1.28972e-15 0)
(3 -4.76442e-16 0)
(3 -8.39981e-16 0)
(3 9.525e-16 0)
(3 1.43539e-15 0)
(3 1.78372e-15 0)
(3 1.95974e-15 0)
(3 1.6447e-15 0)
(3 1.14516e-15 0)
(3 9.2513e-16 0)
(3 1.37984e-15 0)
(3 2.18797e-15 0)
(3 2.84564e-15 0)
(3 3.78594e-15 0)
(3 -8.50664e-17 0)
(3 -4.96626e-16 0)
(3 -6.93561e-16 0)
(3 -7.17579e-16 0)
(3 -3.16461e-16 0)
(3 -2.85873e-16 0)
(3 -1.75185e-16 0)
(3 7.23446e-16 0)
(3 1.01368e-15 0)
(3 1.07508e-15 0)
(3 2.91199e-16 0)
(3 9.38461e-17 0)
(3 1.76961e-16 0)
(3 5.19321e-16 0)
(3 4.92266e-16 0)
(3 -2.69554e-16 0)
(3 -4.559e-16 0)
(3 -5.17162e-16 0)
(3 -7.32624e-16 0)
(3 -6.02916e-16 0)
(3 -1.10473e-15 0)
(3 -6.00619e-16 0)
(3 1.20704e-15 0)
(3 1.62026e-15 0)
(3 1.32873e-15 0)
(3 4.58938e-16 0)
(3 4.34634e-16 0)
(3 8.3804e-16 0)
(3 8.60359e-16 0)
(3 7.7716e-16 0)
(3 5.66422e-16 0)
(3 4.82091e-17 0)
(3 4.18651e-16 0)
(3 8.13861e-16 0)
(3 1.22826e-15 0)
(3 7.37452e-16 0)
(3 1.66799e-17 0)
(3 -1.29072e-16 0)
(3 -2.90937e-17 0)
(3 -9.84198e-16 0)
(3 -1.45608e-15 0)
(3 -1.40682e-15 0)
(3 -1.74709e-15 0)
(3 -9.45258e-16 0)
(3 1.10205e-15 0)
(3 1.45321e-15 0)
(3 1.91099e-17 0)
(3 -8.33701e-16 0)
(3 -1.34517e-16 0)
(3 1.91775e-16 0)
(3 -7.63464e-17 0)
(3 -1.59727e-15 0)
(3 -1.75121e-15 0)
(3 -5.38332e-16 0)
(3 3.3618e-16 0)
(3 1.17945e-16 0)
(3 -7.6176e-16 0)
(3 1.96526e-16 0)
(3 1.16573e-15 0)
(3 2.28164e-15 0)
(3 1.61667e-15 0)
(3 1.20224e-15 0)
(3 1.14825e-15 0)
(3 9.50492e-16 0)
(3 1.33355e-15 0)
(3 1.83874e-15 0)
(3 1.2897e-15 0)
(3 3.55031e-17 0)
(3 1.89998e-16 0)
(3 2.25194e-16 0)
(3 7.79145e-17 0)
(3 -6.93677e-16 0)
(3 -9.82113e-16 0)
(3 1.54474e-16 0)
(3 2.30066e-15 0)
(3 2.89332e-15 0)
(3 3.91536e-15 0)
(3 4.66944e-15 0)
(3 4.75938e-15 0)
(3 3.69372e-15 0)
(3 2.66338e-15 0)
(3 1.41062e-15 0)
(3 1.07175e-15 0)
(3 6.2384e-16 0)
(3 4.81215e-16 0)
(3 6.17905e-16 0)
(3 1.40159e-15 0)
(3 1.42864e-15 0)
(3 8.01614e-16 0)
(3 2.80146e-16 0)
(3 8.87669e-17 0)
(3 4.16691e-16 0)
(3 1.19609e-15 0)
(3 2.55197e-15 0)
(3 2.82925e-15 0)
(3 1.63761e-15 0)
(3 2.44657e-16 0)
(3 2.91697e-16 0)
(3 1.64868e-16 0)
(3 7.71326e-17 0)
(3 2.21157e-16 0)
(3 -3.74057e-18 0)
(3 -8.66517e-18 0)
(3 4.29829e-16 0)
(3 7.99955e-17 0)
(3 -8.93689e-17 0)
(3 2.33373e-16 0)
(3 3.00303e-16 0)
(3 1.0621e-16 0)
(3 -1.88983e-16 0)
(3 -7.71612e-17 0)
(3 -2.15003e-16 0)
(3 -5.90897e-16 0)
(3 -6.66882e-16 0)
(3 -7.47763e-16 0)
(3 -5.53041e-16 0)
(3 1.65886e-17 0)
(3 1.37727e-15 0)
(3 2.03759e-15 0)
(3 1.80203e-15 0)
(3 1.68953e-15 0)
(3 7.34362e-16 0)
(3 2.09976e-16 0)
(3 2.01355e-16 0)
(3 5.19584e-17 0)
(3 -1.17756e-16 0)
(3 -4.37425e-16 0)
(3 -7.30965e-16 0)
(3 -8.66502e-16 0)
(3 -3.93046e-16 0)
(3 -3.66994e-16 0)
(3 -3.0193e-16 0)
(3 -4.2693e-16 0)
(3 -3.82921e-16 0)
(3 -4.69151e-16 0)
(3 -6.58813e-16 0)
(3 -7.52012e-16 0)
(3 -4.19228e-16 0)
(3 -5.82976e-16 0)
(3 6.75844e-16 0)
(3 8.62732e-16 0)
(3 8.94061e-16 0)
(3 3.7219e-16 0)
(3 -2.07344e-16 0)
(3 4.09307e-17 0)
(3 3.69442e-16 0)
(3 1.70459e-16 0)
(3 3.87177e-16 0)
(3 2.39383e-16 0)
(3 -9.2112e-16 0)
(3 -1.93272e-15 0)
(3 -2.01426e-15 0)
(3 -1.7909e-15 0)
(3 -7.81247e-16 0)
(3 -9.08301e-16 0)
(3 -4.07855e-16 0)
(3 2.78464e-16 0)
(3 1.91382e-16 0)
(3 -1.13079e-16 0)
(3 2.93826e-16 0)
(3 1.17445e-15 0)
(3 2.43437e-15 0)
(3 2.61225e-15 0)
(3 2.54988e-15 0)
(3 1.80457e-15 0)
(3 4.16341e-16 0)
(3 -4.65609e-16 0)
(3 -5.1447e-16 0)
(3 2.42249e-16 0)
(3 1.74231e-15 0)
(3 1.9414e-15 0)
(3 3.20184e-15 0)
(3 4.76282e-15 0)
(3 5.39984e-15 0)
(3 5.53871e-15 0)
(3 4.28344e-15 0)
(3 2.76516e-15 0)
(3 2.95774e-15 0)
(3 2.88811e-15 0)
(3 2.64094e-15 0)
(3 1.81972e-15 0)
(3 7.57326e-16 0)
(3 8.57145e-16 0)
(3 5.64472e-16 0)
(3 -6.68814e-16 0)
(3 -6.09313e-16 0)
(3 -6.2148e-16 0)
(3 -6.83907e-16 0)
(3 -6.293e-16 0)
(3 -8.63277e-16 0)
(3 -8.40864e-16 0)
(3 -6.2772e-16 0)
(3 -7.77574e-17 0)
(3 4.84056e-16 0)
(3 8.2278e-16 0)
(3 9.11708e-16 0)
(3 4.2745e-16 0)
(3 -1.08997e-16 0)
(3 -1.05665e-16 0)
(3 -5.60491e-16 0)
(3 -7.93435e-16 0)
(3 -4.92641e-16 0)
(3 -2.17446e-16 0)
(3 -8.41649e-17 0)
(3 -4.13779e-16 0)
(3 -1.02736e-15 0)
(3 -1.31425e-15 0)
(3 -1.40753e-15 0)
(3 -9.05395e-16 0)
(3 -7.6681e-16 0)
(3 -9.2688e-16 0)
(3 -7.96746e-16 0)
(3 -9.80735e-18 0)
(3 4.08776e-16 0)
(3 2.06359e-16 0)
(3 -1.63921e-16 0)
(3 -3.07338e-16 0)
(3 -4.63904e-16 0)
(3 -4.85238e-16 0)
(3 -2.26672e-16 0)
(3 6.74766e-17 0)
(3 -1.06652e-16 0)
(3 -9.53967e-16 0)
(3 -1.11893e-15 0)
(3 -8.28385e-16 0)
(3 -9.01702e-16 0)
(3 -1.1461e-15 0)
(3 -1.36206e-15 0)
(3 -1.59103e-15 0)
(3 -1.94336e-15 0)
(3 -1.79571e-15 0)
(3 -7.3087e-16 0)
(3 5.28729e-16 0)
(3 6.38821e-16 0)
(3 1.7006e-15 0)
(3 2.23702e-15 0)
(3 1.77132e-15 0)
(3 1.84614e-15 0)
(3 7.13465e-16 0)
(3 4.04762e-16 0)
(3 2.65746e-16 0)
(3 6.83097e-16 0)
(3 2.39199e-16 0)
(3 2.16073e-16 0)
(3 -8.22789e-16 0)
(3 -8.24908e-16 0)
(3 -1.76501e-15 0)
(3 -1.56896e-15 0)
(3 -1.84933e-15 0)
(3 -1.31433e-15 0)
(3 -9.31373e-16 0)
(3 -9.24816e-16 0)
(3 -7.83707e-16 0)
(3 1.62737e-16 0)
(3 1.15741e-16 0)
(3 7.87342e-16 0)
(3 1.71461e-15 0)
(3 2.38808e-15 0)
(3 3.71727e-15 0)
(3 3.96886e-15 0)
(3 2.58808e-15 0)
(3 1.07267e-15 0)
(3 1.54487e-15 0)
(3 9.44735e-16 0)
(3 1.0001e-15 0)
(3 1.75143e-15 0)
(3 1.80669e-15 0)
(3 2.08859e-15 0)
(3 2.44464e-15 0)
(3 2.16509e-15 0)
(3 2.10919e-15 0)
(3 2.62233e-15 0)
(3 2.99948e-15 0)
(3 3.51995e-15 0)
(3 4.52782e-15 0)
(3 5.34884e-15 0)
(3 4.1142e-15 0)
(3 1.1804e-15 0)
(3 3.84666e-16 0)
(3 -2.17309e-16 0)
(3 -3.00699e-16 0)
(3 -1.57979e-16 0)
(3 -5.98594e-16 0)
(3 -1.06437e-15 0)
(3 -1.63821e-15 0)
(3 -2.70064e-15 0)
(3 -3.02946e-15 0)
(3 -1.87018e-15 0)
(3 -7.98758e-17 0)
(3 4.41222e-17 0)
(3 4.16189e-16 0)
(3 4.07518e-16 0)
(3 7.87448e-17 0)
(3 -3.62799e-16 0)
(3 -3.86297e-16 0)
(3 -1.34318e-17 0)
(3 2.03176e-18 0)
(3 -3.47227e-16 0)
(3 -1.29203e-15 0)
(3 -1.2531e-15 0)
(3 -8.53563e-16 0)
(3 -7.29989e-16 0)
(3 -9.52339e-16 0)
(3 -1.08557e-15 0)
(3 -7.05026e-16 0)
(3 -2.57141e-16 0)
(3 -1.42121e-16 0)
(3 -3.00226e-16 0)
(3 -7.74608e-16 0)
(3 -1.36116e-15 0)
(3 -1.30887e-15 0)
(3 -9.89554e-16 0)
(3 -1.02365e-15 0)
(3 -1.32728e-15 0)
(3 -1.1611e-15 0)
(3 -6.98769e-16 0)
(3 -3.56356e-16 0)
(3 -3.50718e-16 0)
(3 -1.07592e-15 0)
(3 -1.52358e-15 0)
(3 -1.58175e-15 0)
(3 -1.97034e-15 0)
(3 -1.47507e-15 0)
(3 -7.08942e-16 0)
(3 -7.31546e-16 0)
(3 -8.2944e-16 0)
(3 -3.24048e-16 0)
(3 1.02226e-15 0)
(3 2.08122e-15 0)
(3 2.51225e-15 0)
(3 2.33633e-15 0)
(3 2.13535e-15 0)
(3 1.90066e-15 0)
(3 1.72793e-15 0)
(3 1.86786e-15 0)
(3 2.30486e-15 0)
(3 2.27397e-15 0)
(3 1.76752e-15 0)
(3 1.19134e-15 0)
(3 -6.49887e-16 0)
(3 -1.57756e-15 0)
(3 -1.65502e-15 0)
(3 -8.47639e-16 0)
(3 -1.56018e-15 0)
(3 -1.76112e-15 0)
(3 -2.15644e-15 0)
(3 -2.1184e-15 0)
(3 -1.93583e-15 0)