/*--------------------------------*- C++ -*----------------------------------*\
  =========                 |
  \\      /  F ield         | OpenFOAM: The Open Source CFD Toolbox
   \\    /   O peration     | Website:  https://openfoam.org
    \\  /    A nd           | Version:  7
     \\/     M anipulation  |
\*---------------------------------------------------------------------------*/
FoamFile
{
    version     2.0;
    format      ascii;
    class       volScalarField;
    location    "3.4";
    object      p;
}
// * * * * * * * * * * * * * * * * * * * * * * * * * * * * * * * * * * * * * //

dimensions      [1 -1 -2 0 0 0 0];

internalField   nonuniform List<scalar> 
18432
(
1
1
1
1
1
1
1
1
1
1
1
1
1
1
1
1
1
1
1
1
1
1
1
1
1
1
1
1
1
1
1
1
1
1
1
1
1
1
1
1
1
1
1
1
1
1
1
1
1
1
1
1
1
1
1
1
1
1
1
1
1
1
1
1
1
1
1
1
1
1
1
1
1
1
1
1
1
1
1
1
1
1
1
1
1
1
1
1
1
1
1
1
1
1
1
1
1
1
1
1
1
1
1
1
1
1
1
1
1
1
1
1
1
1
1
1
1
1
1
1
1
1
1
1
1
1
1
1
1
1
1
1
1
1
1
1
1
1
1
1
1
1
1
1
1
1
1
1
1
1
1
1
1
1
1
1
1
1
1
1
1
1
1
1
1
1
1
1
1
1
1
1
1
1
1
1
1
1
1
1
1
1
1
1
1
1
1
1
1
1
1
1
1
1
1
1
1
1
1
1
1
1
1
1
1
1
1
1
1
1
1
1
1
1
1
1
1
1
1
1
1
1
1
1
1
1
1
1
1
1
1
1
1
1
1
1
1
1
1
1
1
1
1
1
1
1
1
1
1
1
1
1
1
1
1
1
1
1
1
1
1
1
1
1
1
1
1
1
1
1
1
1
1
1
1
1
1
1
1
1
1
1
1
1
1
1
1
1
1
1
1
1
1
1
1
1
1
1
1
1
1
1
1
1
1
1
1
1
1
1
1
1
1
1
1
1
1
1
1
1
1
1
1
1
1
1
1
1
1
1
1
1
1
1
1
1
1
1
1
1
1
1
1
1
1
1
1
1
1
1
1
1
1
1
1
1
1
1
1
1
1
1
1
1
1
1
1
1
1
1
1
1
1
1
1
1
1
1
1
1
1
1
1
1
1
1
1
1
1
1
1
1
1
1
1
1
1
1
1
1
1
1
1
1
1
1
1
1
1
1
1
1
1
1
1
1
1
1
1
1
1
1
1
1
1
1
1
1
1
1
1
1
1
1
1
1
1
1
1
1
1
1
1
1
1
1
1
1
1
1
1
1
1
1
1
1
1
1
1
1
1
1
1
1
1
1
1
1
1
1
1
1
1
1
1
1
1
1
1
1
1
1
1
1
1
1
1
1
1
1
1
1
1
1
1
1
1
1
1
1
1
1
1
1
1
1
1
1
1
1
1
1
1
1
1
1
1
1
1
1
1
1
1
1
1
1
1
1
1
1
1
1
1
1
1
1
1
1
1
1
1
1
1
1
1
1
1
1
1
1
1
1
1
1
1
1
1
1
1
1
1
1
1
1
1
1
1
1
1
1
1
1
1
1
1
1
1
1
1
1
1
1
1
1
1
1
1
1
1
1
1
1
1
1
1
1
1
1
1
1
1
1
1
1
1
1
1
1
1
1
1
1
1
1
1
1
1
1
1
1
1
1
1
1
1
1
1
1
1
1
1
1
1
1
1
1
1
1
1
1
1
1
1
1
1
1
1
1
1
1
1
1
1
1
1
1
1
1
1
1
1
1
1
1
1
1
1
1
1
1
1
1
1
1
1
1
1
1
1
1
1
1
1
1
1
1
1
1
1
1
1
1
1
1
1
1
1
1
1
1
1
1
1
1
1
1
1
1
1
1
1
1
1
1
1
1
1
1
1
1
1
1
1
1
1
1
1
1
1
1
1
1
1
1
1
1
1
1
1
1
1
1
1
1
1
1
1
1
1
1
1
1
1
1
1
1
1
1
1
1
1
1
1
1
1
1
1
1
1
1
1
1
1
1
1
1
1
1
1
1
1
1
1
1
1
1
1
1
1
1
1
1
1
1
1
1
1
1
1
1
1
1
1
1
1
1
1
1
1
1
1
1
1
1
1
1
1
1
1
1
1
1
1
1
1
1
1
1
1
1
1
1
1
1
1
1
1
1
1
1
1
1
1
1
1
1
1
1
1
1
1
1
1
1
1
1
1
1
1
1
1
1
1
1
1
1
1
1
1
1
1
1
1
1
1
1
1
1
1
1
1
1
1
1
1
1
1
1
1
1
1
1
1
1
1
1
1
1
1
1
1
1
1
1
1
1
1
1
1
1
1
1
1
1
1
1
1
1
1
1
1
1
1
1
1
1
1
1
1
1
1
1
1
1
1
1
1
1
1
1
1
1
1
1
1
1
1
1
1
1
1
1
1
1
1
1
1
1
1
1
1
1
1
1
1
1
1
1
1
1
1
1
1
1
1
1
1
1
1
1
1
1
1
1
1
1
1
1
1
1
1
1
1
1
1
1
1
1
1
1
1
1
1
1
1
1
1
1
1
1
1
1
1
1
1
1
1
1
1
1
1
1
1
1
1
1
1
1
1
1
1
1
1
1
1
1
1
1
1
1
1
1
1
1
1
1
1
1
1
1
1
1
1
1
1
1
1
1
1
1
1
1
1
1
1
1
1
1
1
1
1
1
1
1
1
1
1
1
1
1
1
1
1
1
1
1
1
1
1
1
1
1
1
1
1
1
1
1
1
1
1
1
1
1
1
1
1
1
1
1
1
1
1
1
1
1
1
1
1
1
1
1
1
1
1
1
1
1
1
1
1
1
1
1
1
1
1
1
1
1
1
1
1
1
1
1
1
1
1
1
1
1
1
1
1
1
1
1
1
1
1
1
1
1
1
1
1
1
1
1
1
1
1
1
1
1
1
1
1
1
1
1
1
1
1
1
1
1
1
1
1
1
1
1
1
1
1
1
1
1
1
1
1
1
1
1
1
1
1
1
1
1
1
1
1
1
1
1
1
1
1
1
1
1
1
1
1
1
1
1
1
1
1
1
1
1
1
1
1
1
1
1
1
1
1
1
1
1
1
1
1
1
1
1
1
1
1
1
1
1
1
1
1
1
1
1
1
1
1
1
1
1
1
1
1
1
1
1
1
1
1
1
1
1
1
1
1
1
1
1
1
1
1
1
1
1
1
1
1
1
1
1
1
1
1
1
1
1
1
1
1
1
1
1
1
1
1
1
1
1
1
1
1
1
1
1
1
1
1
1
1
1
1
1
1
1
1
1
1
1
1
1
1
1
1
1
1
1
1
1
1
1
1
1
1
1
1
1
1
1
1
1
1
1
1
1
1
1
1
1
1
1
1
1
1
1
1
1
1
1
1
1
1
1
1
1
1
1
1
1
1
1
1
1
1
1
1
1
1
1
1
1
1
1
1
1
1
1
1
1
1
1
1
1
1
1
1
1
1
1
1
1
1
1
1
1
1
1
1
1
1
1
1
1
1
1
1
1
1
1
1
1
1
1
1
1
1
1
1
1
1
1
1
1
1
1
1
1
1
1
1
1
1
1
1
1
1
1
1
1
1
1
1
1
1
1
1
1
1
1
1
1
1
1
1
1
1
1
1
1
1
1
1
1
1
1
1
1
1
1
1
1
1
1
1
1
1
1
1
1
1
1
1
1
1
1
1
1
1
1
1
1
1
1
1
1
1
1
1
1
1
1
1
1
1
1
1
1
1
1
1
1
1
1
1
1
1
1
1
1
1
1
1
1
1
1
1
1
1
1
1
1
1
1
1
1
1
1
1
1
1
1
1
1
1
1
1
1
1
1
1
1
1
1
1
1
1
1
1
1
1
1
1
1
1
1
1
1
1
1
1
1
1
1
1
1
1
1
1
1
1
1
1
1
1
1
1
1
1
1
1
1
1
1
1
1
1
1
1
1
1
1
1
1
1
1
1
1
1
1
1
1
1
1
1
1
1
1
1
1
1
1
1
1
1
1
1
1
1
1
1
1
1
1
1
1
1
1
1
1
1
1
1
1
1
1
1
1
1
1
1
1
1
1
1
1
1
1
1
1
1
1
1
1
1
1
1
1
1
1
1
1
1
1
1
1
1
1
1
1
1
1
1
1
1
1
1
1
1
1
1
1
1
1
1
1
1
1
1
1
1
1
1
1
1
1
1
1
1
1
1
1
1
1
1
1
1
1
1
1
1
1
1
1
1
1
1
1
1
1
1
1
1
1
1
1
1
1
1
1
1
1
1
1
1
1
1
1
1
1
1
1
1
1
1
1
1
1
1
1
1
1
1
1
1
1
1
1
1
1
1
1
1
1
1
1
1
1
1
1
1
1
1
1
1
1
1
1
1
1
1
1
1
1
1
1
1
1
1
1
1
1
1
1
1
1
1
1
1
1
1
1
1
1
1
1
1
1
1
1
1
1
1
1
1
1
1
1
1
1
1
1
1
1
1
1
1
1
1
1
1
1
1
1
1
1
1
1
1
1
1
1
1
1
1
1
1
1
1
1
1
1
1
1
1
1
1
1
1
1
1
1
1
1
1
1
1
1
1
1
1
1
1
1
1
1
1
1
1
1
1
1
1
1
1
1
1
1
1
1
1
1
1
1
1
1
1
1
1
1
1
1
1
1
1
1
1
1
1
1
1
1
1
1
1
1
1
1
1
1
1
1
1
1
1
1
1
1
1
1
1
1
1
1
1
1
1
1
1
1
1
1
1
1
1
1
1
1
1
1
1
1
1
1
1
1
1
1
1
1
1
1
1
1
1
1
1
1
1
1
1
1
1
1
1
1
1
1
1
1
1
1
1
1
1
1
1
1
1
1
1
1
1
1
1
1
1
1
1
1
1
1
1
1
1
1
1
1
1
1
1
1
1
1
1
1
1
1
1
1
1
1
1
1
1
1
1
1
1
1
1
1
1
1
1
1
1
1
1
1
1
1
1
1
1
1
1
1
1
1
1
1
1
1
1
1
1
1
1
1
1
1
1
1
1
1
1
1
1
1
1
1
1
1
1
1
1
1
1
1
1
1
1
1
1
1
1
1
1
1
1
1
1
1
1
1
1
1
1
1
1
1
1
1
1
1
1
1
1
1
1
1
1
1
1
1
1
1
1
1
1
1
1
1
1
1
1
1
1
1
1
1
1
1
1
1
1
1
1
1
1
1
1
1
1
1
1
1
1
1
1
1
1
1
1
1
1
1
1
1
1
1
1
1
1
1
1
1
1
1
1
1
1
1
1
1
1
1
1
1
1
1
1
1
1
1
1
1
1
1
1
1
1
1
1
1
1
1
1
1
1
1
1
1
1
1
1
1
1
1
1
1
1
1
1
1
1
1
1
1
1
1
1
1
1
1
1
1
1
1
1
1
1
1
1
1
1
1
1
1
1
1
1
1
1
1
1
1
1
1
1
1
1
1
1
1
1
1
1
1
1
1
1
1
1
1
1
1
1
1
1
1
1
1
1
1
1
1
1
1
1
1
1
1
1
1
1
1
1
1
1
1
1
1
1
1
1
1
1
1
1
1
1
1
1
1
1
1
1
1
1
1
1
1
1
1
1
1
1
1
1
1
1
1
1
1
1
1
1
1
1
1
1
1
1
1
1
1
1
1
1
1
1
1
1
1
1
1
1
1
1
1
1
1
1
1
1
1
1
1
1
1
1
1
1
1
1
1
1
1
1
1
1
1
1
1
1
1
1
1
1
1
1
1
1
1
1
1
1
1
1
1
1
1
1
1
1
1
1
1
1
1
1
1
1
1
1
1
1
1
1
1
1
1
1
1
1
1
1
1
1
1
1
1
1
1
1
1
1
1
1
1
1
1
1
1
1
1
1
1
1
1
1
1
1
1
1
1
1
1
1
1
1
1
1
1
1
1
1
1
1
1
1
1
1
1
1
1
1
1
1
1
1
1
1
1
1
1
1
1
1
1
1
1
1
1
1
1
1
1
1
1
1
1
1
1
1
1
1
1
1
1
1
1
1
1
1
1
1
1
1
1
1
1
1
1
1
1
1
1
1
1
1
1
1
1
1
1
1
1
1
1
1
1
1
1
1
1
1
1
1
1
1
1
1
1
1
1
1
1
1
1
1
1
1
1
1
1
1
1
1
1
1
1
1
1
1
1
1
1
1
1
1
1
1
1
1
1
1
1
1
1
1
1
1
1
1
1
1
1
1
1
1
1
1
1
1
1
1
1
1
1
1
1
1
1
1
1
1
1
1
1
1
1
1
1
1
1
1
1
1
1
1
1
1
1
1
1
1
1
1
1
1
1
1
1
1
1
1
1
1
1
1
1
1
1
1
1
1
1
1
1
1
1
1
1
1
1
1
1
1
1
1
1
1
1
1
1
1
1
1
1
1
1
1
1
1
1
1
1
1
1
1
1
1
1
1
1
1
1
1
1
1
1
1
1
1
1
1
1
1
1
1
1
1
1
1
1
1
1
1
1
1
1
1
1
1
1
1
1
1
1
1
1
1
1
1
1
1
1
1
1
1
1
1
1
1
1
1
1
1
1
1
1
1
1
1
1
1
1
1
1
1
1
1
1
1
1
1
1
1
1
1
1
1
1
1
1
1
1
1
1
1
1
1
1
1
1
1
1
1
1
1
1
1
1
1
1
1
1
1
1
1
1
1
1
1
1
1
1
1
1
1
1
1
1
1
1
1
1
1
1
1
1
1
1
1
1
1
1
1
1
1
1
1
1
1
1
1
1
1
1
1
1
1
1
1
1
1
1
1
1
1
1
1
1
1
1
1
1
1
1
1
1
1
1
1
1
1
1
1
1
1
1
1
1
1
1
1
1
1
1
1
1
1
1
1
1
1
1
1
1
1
1
1
1
1
1
1
1
1
1
1
1
1
1
1
1
1
1
1
1
1
1
1
1
1
1
1
1
1
1
1
1
1
1
1
1
1
1
1
1
1
1
1
1
1
1
1
1
1
1
1
1
1
1
1
1
1
1
1
1
1
1
1
1
1
1
1
1
1
1
1
1
1
1
1
1
1
1
1
1
1
1
1
1
1
1
1
1
1
1
1
1
1
1
1
1
1
1
1
1
1
1
1
1
1
1
1
1
1
1
1
1
1
1
1
1
1
1
1
1
1
1
1
1
1
1
1
1
1
1
1
1
1
1
1
1
1
1
1
1
1
1
1
1
1
1
1
1
1
1
1.29282
1.73902
2.32579
2.9433
3.5047
4.19121
4.69061
5.07101
5.333
5.24703
4.95511
4.49781
4.06729
3.75459
3.65634
3.58497
3.56342
3.59235
3.63191
3.66779
3.69269
3.71115
3.72686
3.74533
3.76362
3.76871
3.77018
3.76699
3.76358
3.76167
3.75732
3.75458
3.75599
3.76283
3.77729
3.79141
3.79439
3.79331
3.7898
3.78189
3.77246
3.77006
3.77023
3.77112
3.77387
3.77569
3.77599
3.77377
1.00205
1.02027
1.0638
1.19863
1.42068
1.75231
2.22832
2.74585
3.34255
3.71493
3.9177
4.04993
4.01597
3.93675
3.84297
3.78298
3.72131
3.70542
3.67329
3.66228
3.67266
3.69347
3.715
3.73685
3.75997
3.77007
3.7743
3.77529
3.77145
3.76798
3.76718
3.76776
3.76973
3.77259
3.77468
3.77761
3.77759
3.7755
3.7716
3.76735
3.76576
3.76616
3.76729
3.77002
3.77522
3.7785
3.77881
3.77867
1
0.999994
0.999993
1.00003
1.00156
1.01236
1.06458
1.21944
1.6095
2.34992
3.32121
3.94391
4.27635
4.31285
4.2503
4.12679
3.97336
3.77378
3.66355
3.64128
3.65017
3.66859
3.68747
3.71133
3.73904
3.75926
3.7702
3.77766
3.78067
3.78142
3.78398
3.78526
3.78645
3.7873
3.78618
3.78211
3.77659
3.77085
3.76538
3.76144
3.76039
3.76059
3.76159
3.76511
3.77188
3.77672
3.77766
3.78027
1
1
0.999999
1
0.999999
0.99998
1.00006
1.00011
1.00549
1.07656
1.39702
2.16894
3.04708
3.96337
4.07061
4.0138
3.99755
3.93418
3.81592
3.73949
3.71272
3.69366
3.67429
3.68052
3.69944
3.71629
3.73427
3.74976
3.75892
3.76563
3.77153
3.77604
3.77984
3.78249
3.78245
3.78065
3.77685
3.77228
3.7686
3.76641
3.76593
3.76656
3.76834
3.77183
3.77664
3.77861
3.77692
3.77811
1
1
1
1
1
0.999999
1
1
1
0.999936
1.00144
1.04921
1.2818
1.9971
2.89033
3.57997
4.05554
4.08539
4.03167
3.93304
3.84116
3.75481
3.7144
3.69886
3.69569
3.7061
3.71878
3.72961
3.73819
3.74538
3.74975
3.7525
3.75569
3.76364
3.77023
3.77091
3.77091
3.77043
3.76946
3.76893
3.7699
3.77248
3.77655
3.78112
3.78455
3.78456
3.78151
3.7812
1
1
1
1
1
1
1
1
1
0.999997
0.999998
0.999953
1.00076
1.02665
1.25065
1.76937
2.73955
3.3531
3.82993
3.92555
3.91998
3.86499
3.80558
3.77513
3.7579
3.73455
3.71556
3.7122
3.71668
3.73184
3.74798
3.75865
3.76686
3.77393
3.77608
3.77609
3.77613
3.77561
3.77381
3.77246
3.77272
3.7744
3.77801
3.78149
3.78157
3.7788
3.77369
3.77102
1
1
1
1
1
1
1
1
1
1
1
0.999997
0.999998
0.999961
1.00078
1.01542
1.18683
1.69841
2.55384
3.27381
3.60204
3.81711
3.83598
3.82879
3.78517
3.74241
3.73291
3.72684
3.72283
3.72676
3.74103
3.76242
3.78312
3.78803
3.78561
3.78308
3.7817
3.78043
3.77704
3.77375
3.77215
3.77188
3.77505
3.77733
3.77566
3.77231
3.76635
3.76457
1
1
1
1
1
1
1
1
1
1
1
1
1
0.999997
0.999998
0.999975
1.00054
1.01594
1.1325
1.63181
2.33289
3.2535
3.55706
3.67619
3.72418
3.69131
3.70064
3.70891
3.703
3.70586
3.71934
3.73961
3.75682
3.7699
3.77657
3.77639
3.77458
3.77078
3.76843
3.76753
3.76718
3.77067
3.77633
3.77803
3.77768
3.77648
3.77289
3.77143
1
1
1
1
1
1
1
1
1
1
1
1
1
1
1
0.999998
0.999998
0.999982
1.00025
1.01507
1.11144
1.52447
2.29965
3.05621
3.59149
3.68223
3.72052
3.7226
3.70679
3.70201
3.70408
3.71405
3.72511
3.73678
3.74885
3.75596
3.75957
3.76104
3.76268
3.76502
3.7668
3.77121
3.77606
3.77808
3.77961
3.77918
3.77658
3.77428
1
1
1
1
1
1
1
1
1
1
1
1
1
1
1
1
1
0.999999
0.999998
0.999985
1.00026
1.00967
1.12829
1.47682
2.25288
2.94688
3.50471
3.7158
3.7432
3.73914
3.74717
3.74598
3.74038
3.73876
3.74412
3.75183
3.75509
3.75787
3.76096
3.76403
3.76943
3.77436
3.77502
3.77584
3.77788
3.77775
3.77494
3.77221
1
1
1
1
1
1
1
1
1
1
1
1
1
1
1
1
1
1
1
0.999998
0.999998
0.999985
1.00051
1.00858
1.11496
1.49377
2.22275
2.93749
3.38696
3.64423
3.74163
3.76107
3.76008
3.75993
3.75397
3.75509
3.76432
3.77082
3.77703
3.78285
3.78842
3.78918
3.78614
3.78348
3.78138
3.7778
3.77334
3.7703
1
1
1
1
1
1
1
1
1
1
1
1
1
1
1
1
1
1
1
1
1
0.999998
0.999998
0.999988
1.00054
1.01164
1.10086
1.5245
2.214
3.08341
3.40639
3.55421
3.66053
3.72184
3.72451
3.73149
3.74544
3.75949
3.77134
3.77942
3.78228
3.78332
3.78221
3.78121
3.78169
3.78103
3.77844
3.77654
1
1
1
1
1
1
1
1
1
1
1
1
1
1
1
1
1
1
1
1
1
1
1
0.999998
0.999999
0.999991
1.00044
1.01699
1.11535
1.56803
2.31146
3.13423
3.56695
3.62334
3.66724
3.68956
3.7052
3.72486
3.74191
3.75398
3.76285
3.76896
3.77207
3.77081
3.76998
3.76982
3.76923
3.77034
1
1
1
1
1
1
1
1
1
1
1
1
1
1
1
1
1
1
1
1
1
1
1
1
1
0.999999
0.999998
1
1.00068
1.02093
1.1645
1.64707
2.47038
3.19278
3.62936
3.72801
3.7397
3.76141
3.76264
3.75951
3.76277
3.76609
3.76579
3.76371
3.76235
3.76114
3.76207
3.76502
1
1
1
1
1
1
1
1
1
1
1
1
1
1
1
1
1
1
1
1
1
1
1
1
1
1
1
1
0.999998
1.00002
1.0016
1.0279
1.24826
1.81155
2.67214
3.2831
3.63563
3.76689
3.78214
3.78815
3.78726
3.78375
3.78084
3.77589
3.77529
3.77498
3.77537
3.77699
1
1
1
1
1
1
1
1
1
1
1
1
1
1
1
1
1
1
1
1
1
1
1
1
1
1
1
1
1
1
0.999997
1.00006
1.00434
1.04862
1.37213
2.0839
3.00647
3.39849
3.57605
3.72381
3.75759
3.75675
3.76043
3.769
3.77611
3.78065
3.784
3.78523
1
1
1
1
1
1
1
1
1
1
1
1
1
1
1
1
1
1
1
1
1
1
1
1
1
1
1
1
1
1
1
1
0.999996
1.00022
1.01196
1.10325
1.58096
2.40183
3.31788
3.61854
3.67616
3.69774
3.70578
3.72531
3.74738
3.76111
3.77005
3.77548
1
1
1
1
1
1
1
1
1
1
1
1
1
1
1
1
1
1
1
1
1
1
1
1
1
1
1
1
1
1
1
1
1
0.999999
1.00001
1.00097
1.03148
1.22456
1.93022
2.83117
3.49189
3.72401
3.7395
3.77004
3.77293
3.76977
3.76925
3.77395
1
1
1
1
1
1
1
1
1
1
1
1
1
1
1
1
1
1
1
1
1
1
1
1
1
1
1
1
1
1
1
1
1
1
1
0.999998
1.00015
1.00451
1.09022
1.48611
2.39189
3.15566
3.6137
3.7809
3.7956
3.79715
3.79578
3.79492
1
1
1
1
1
1
1
1
1
1
1
1
1
1
1
1
1
1
1
1
1
1
1
1
1
1
1
1
1
1
1
1
1
1
1
1
1
1
1.00114
1.02066
1.24645
1.95296
3.00686
3.45952
3.60841
3.71191
3.7593
3.76393
1
1
1
1
1
1
1
1
1
1
1
1
1
1
1
1
1
1
1
1
1
1
1
1
1
1
1
1
1
1
1
1
1
1
1
1
1
1
0.999999
1.00009
1.00799
1.09767
1.61003
2.56195
3.43282
3.67901
3.72079
3.7286
1
1
1
1
1
1
1
1
1
1
1
1
1
1
1
1
1
1
1
1
1
1
1
1
1
1
1
1
1
1
1
1
1
1
1
1
1
1
1
1
1.00002
1.00138
1.04381
1.33755
2.23851
3.17903
3.68911
3.78947
1
1
1
1
1
1
1
1
1
1
1
1
1
1
1
1
1
1
1
1
1
1
1
1
1
1
1
1
1
1
1
1
1
1
1
1
1
1
1
1
1
1
1.00045
1.01356
1.21744
1.92756
2.93873
3.41831
1
1
1
1
1
1
1
1
1
1
1
1
1
1
1
1
1
1
1
1
1
1
1
1
1
1
1
1
1
1
1
1
1
1
1
1
1
1
1
1
1
1
0.999999
1.00008
1.00741
1.09608
1.69134
2.64706
1
1
1
1
1
1
1
1
1
1
1
1
1
1
1
1
1
1
1
1
1
1
1
1
1
1
1
1
1
1
1
1
1
1
1
1
1
1
1
1
1
1
1
1
1.00003
1.00182
1.07376
1.42017
1
1
1
1
1
1
1
1
1
1
1
1
1
1
1
1
1
1
1
1
1
1
1
1
1
1
1
1
1
1
1
1
1
1
1
1
1
1
1
1
1
1
1
1
1
1
1.00179
1.01704
1
1
1
1
1
1
1
1
1
1
1
1
1
1
1
1
1
1
1
1
1
1
1
1
1
1
1
1
1
1
1
1
1
1
1
1
1
1
1
1
1
1
1
1
1
1
1.00002
0.999855
1
1
1
1
1
1
1
1
1
1
1
1
1
1
1
1
1
1
1
1
1
1
1
1
1
1
1
1
1
1
1
1
1
1
1
1
1
1
1
1
1
1
1
1
1
1
1
0.999949
1
1
1
1
1
1
1
1
1
1
1
1
1
1
1
1
1
1
1
1
1
1
1
1
1
1
1
1
1
1
1
1
1
1
1
1
1
1
1
1
1
1
1
1
1
1
1
0.999991
1
1
1
1
1
1
1
1
1
1
1
1
1
1
1
1
1
1
1
1
1
1
1
1
1
1
1
1
1
1
1
1
1
1
1
1
1
1
1
1
1
1
1
1
1
1
1
1
1
1
1
1
1
1
1
1
1
1
1
1
1
1
1
1
1
1
1
1
1
1
1
1
1
1
1
1
1
1
1
1
1
1
1
1
1
1
1
1
1
1
1
1
1
1
1
1
1
1
1
1
1
1
1
1
1
1
1
1
1
1
1
1
1
1
1
1
1
1
1
1
1
1
1
1
1
1
1
1
1
1
1
1
1
1
1
1
1
1
1
1
1
1
1
1
1
1
1
1
1
1
1
1
1
1
1
1
1
1
1
1
1
1
1
1
1
1
1
1
1
1
1
1
1
1
1
1
1
1
1
1
1
1
1
1
1
1
1
1
1
1
1
1
1
1
1
1
1
1
1
1
1
1
1
1
1
1
1
1
1
1
1
1
1
1
1
1
1
1
1
1
1
1
1
1
1
1
1
1
1
1
1
1
1
1
1
1
1
1
1
1
1
1
1
1
1
1
1
1
1
1
1
1
1
1
1
1
1
1
1
1
1
1
1
1
1
1
1
1
1
1
1
1
1
1
1
1
1
1
1
1
1
1
1
1
1
1
1
1
1
1
1
1
1
1
1
1
1
1
1
1
1
1
1
1
1
1
1
1
1
1
1
1
1
1
1
1
1
1
1
1
1
1
1
1
1
1
1
1
1
1
1
1
1
1
1
0.999991
1
1
1
1
1
1
1
1
1
1
1
1
1
1
1
1
1
1
1
1
1
1
1
1
1
1
1
1
1
1
1
1
1
1
1
1
1
1
1
1
1
1
1
1
1
1
1
0.999948
1
1
1
1
1
1
1
1
1
1
1
1
1
1
1
1
1
1
1
1
1
1
1
1
1
1
1
1
1
1
1
1
1
1
1
1
1
1
1
1
1
1
1
1
1
1
1.00002
0.999853
1
1
1
1
1
1
1
1
1
1
1
1
1
1
1
1
1
1
1
1
1
1
1
1
1
1
1
1
1
1
1
1
1
1
1
1
1
1
1
1
1
1
1
1
1
1
1.00181
1.01701
1
1
1
1
1
1
1
1
1
1
1
1
1
1
1
1
1
1
1
1
1
1
1
1
1
1
1
1
1
1
1
1
1
1
1
1
1
1
1
1
1
1
1
1
1.00003
1.00181
1.07393
1.42142
1
1
1
1
1
1
1
1
1
1
1
1
1
1
1
1
1
1
1
1
1
1
1
1
1
1
1
1
1
1
1
1
1
1
1
1
1
1
1
1
1
1
0.999999
1.00008
1.00742
1.096
1.69271
2.64593
1
1
1
1
1
1
1
1
1
1
1
1
1
1
1
1
1
1
1
1
1
1
1
1
1
1
1
1
1
1
1
1
1
1
1
1
1
1
1
1
1
1
1.00045
1.01356
1.21742
1.92763
2.94074
3.41555
1
1
1
1
1
1
1
1
1
1
1
1
1
1
1
1
1
1
1
1
1
1
1
1
1
1
1
1
1
1
1
1
1
1
1
1
1
1
1
1
1.00002
1.00138
1.04381
1.33752
2.2381
3.1798
3.68931
3.78839
1
1
1
1
1
1
1
1
1
1
1
1
1
1
1
1
1
1
1
1
1
1
1
1
1
1
1
1
1
1
1
1
1
1
1
1
1
1
0.999999
1.00009
1.00799
1.09767
1.61007
2.56184
3.43278
3.67936
3.72063
3.72835
1
1
1
1
1
1
1
1
1
1
1
1
1
1
1
1
1
1
1
1
1
1
1
1
1
1
1
1
1
1
1
1
1
1
1
1
1
1
1.00114
1.02066
1.24644
1.95301
3.00679
3.45942
3.60849
3.71211
3.75921
3.76382
1
1
1
1
1
1
1
1
1
1
1
1
1
1
1
1
1
1
1
1
1
1
1
1
1
1
1
1
1
1
1
1
1
1
1
0.999998
1.00015
1.00451
1.09022
1.4861
2.39187
3.15575
3.61355
3.78091
3.79565
3.79721
3.7958
3.79491
1
1
1
1
1
1
1
1
1
1
1
1
1
1
1
1
1
1
1
1
1
1
1
1
1
1
1
1
1
1
1
1
1
0.999999
1.00001
1.00097
1.03148
1.22456
1.93023
2.83116
3.49187
3.72409
3.73942
3.77004
3.77295
3.76978
3.76926
3.77395
1
1
1
1
1
1
1
1
1
1
1
1
1
1
1
1
1
1
1
1
1
1
1
1
1
1
1
1
1
1
1
1
0.999996
1.00022
1.01196
1.10325
1.58095
2.40183
3.31789
3.61853
3.67615
3.69775
3.70577
3.72531
3.74738
3.76112
3.77005
3.77548
1
1
1
1
1
1
1
1
1
1
1
1
1
1
1
1
1
1
1
1
1
1
1
1
1
1
1
1
1
1
0.999997
1.00006
1.00434
1.04862
1.37213
2.0839
3.00647
3.3985
3.57605
3.72381
3.75759
3.75675
3.76043
3.769
3.77611
3.78065
3.784
3.78523
1
1
1
1
1
1
1
1
1
1
1
1
1
1
1
1
1
1
1
1
1
1
1
1
1
1
1
1
0.999998
1.00002
1.0016
1.0279
1.24826
1.81155
2.67214
3.2831
3.63563
3.76689
3.78214
3.78815
3.78725
3.78375
3.78084
3.77589
3.77529
3.77498
3.77537
3.77699
1
1
1
1
1
1
1
1
1
1
1
1
1
1
1
1
1
1
1
1
1
1
1
1
1
0.999999
0.999998
1
1.00068
1.02093
1.1645
1.64707
2.47038
3.19278
3.62936
3.728
3.7397
3.76141
3.76264
3.75951
3.76277
3.76609
3.76579
3.76371
3.76235
3.76114
3.76207
3.76502
1
1
1
1
1
1
1
1
1
1
1
1
1
1
1
1
1
1
1
1
1
1
1
0.999998
0.999999
0.999991
1.00044
1.01699
1.11535
1.56803
2.31146
3.13423
3.56695
3.62335
3.66725
3.68956
3.7052
3.72486
3.74191
3.75398
3.76285
3.76896
3.77207
3.77081
3.76998
3.76982
3.76923
3.77034
1
1
1
1
1
1
1
1
1
1
1
1
1
1
1
1
1
1
1
1
1
0.999998
0.999998
0.999988
1.00054
1.01164
1.10086
1.5245
2.214
3.08341
3.40639
3.55421
3.66053
3.72184
3.72451
3.73148
3.74544
3.75949
3.77134
3.77942
3.78228
3.78332
3.78221
3.78121
3.78169
3.78103
3.77844
3.77654
1
1
1
1
1
1
1
1
1
1
1
1
1
1
1
1
1
1
1
0.999998
0.999998
0.999985
1.00051
1.00858
1.11496
1.49377
2.22275
2.93749
3.38696
3.64423
3.74163
3.76107
3.76008
3.75993
3.75397
3.75509
3.76432
3.77082
3.77703
3.78285
3.78842
3.78918
3.78614
3.78348
3.78138
3.7778
3.77334
3.77029
1
1
1
1
1
1
1
1
1
1
1
1
1
1
1
1
1
0.999999
0.999998
0.999985
1.00026
1.00967
1.12829
1.47682
2.25288
2.94688
3.50471
3.7158
3.7432
3.73914
3.74717
3.74599
3.74039
3.73876
3.74412
3.75183
3.75509
3.75787
3.76096
3.76403
3.76943
3.77436
3.77502
3.77584
3.77788
3.77775
3.77494
3.77221
1
1
1
1
1
1
1
1
1
1
1
1
1
1
1
0.999998
0.999998
0.999982
1.00025
1.01507
1.11144
1.52447
2.29965
3.05621
3.59149
3.68223
3.72052
3.7226
3.70679
3.70201
3.70408
3.71405
3.72511
3.73678
3.74885
3.75596
3.75957
3.76104
3.76268
3.76502
3.7668
3.77121
3.77606
3.77808
3.77961
3.77918
3.77658
3.77428
1
1
1
1
1
1
1
1
1
1
1
1
1
0.999997
0.999998
0.999975
1.00054
1.01594
1.1325
1.63181
2.33289
3.2535
3.55706
3.67619
3.72419
3.69131
3.70064
3.70891
3.703
3.70586
3.71934
3.73961
3.75682
3.7699
3.77657
3.77639
3.77458
3.77078
3.76843
3.76753
3.76718
3.77067
3.77633
3.77803
3.77768
3.77648
3.77289
3.77143
1
1
1
1
1
1
1
1
1
1
1
0.999997
0.999998
0.999961
1.00078
1.01542
1.18683
1.69841
2.55384
3.27381
3.60204
3.81711
3.83598
3.82879
3.78517
3.74241
3.73291
3.72684
3.72283
3.72676
3.74103
3.76242
3.78312
3.78803
3.78561
3.78308
3.7817
3.78043
3.77704
3.77375
3.77215
3.77188
3.77505
3.77733
3.77567
3.77231
3.76635
3.76457
1
1
1
1
1
1
1
1
1
0.999997
0.999998
0.999953
1.00076
1.02665
1.25065
1.76937
2.73955
3.3531
3.82993
3.92555
3.91998
3.86499
3.80558
3.77513
3.7579
3.73455
3.71556
3.7122
3.71668
3.73184
3.74798
3.75865
3.76686
3.77393
3.77608
3.77609
3.77613
3.77561
3.77381
3.77246
3.77272
3.7744
3.77801
3.78149
3.78157
3.7788
3.77369
3.77102
1
1
1
1
1
0.999999
1
1
1
0.999936
1.00144
1.04921
1.2818
1.9971
2.89033
3.57997
4.05553
4.08539
4.03167
3.93304
3.84116
3.75481
3.7144
3.69886
3.69569
3.7061
3.71878
3.72961
3.73819
3.74538
3.74975
3.7525
3.75569
3.76364
3.77023
3.77091
3.77091
3.77043
3.76946
3.76893
3.7699
3.77248
3.77655
3.78112
3.78455
3.78456
3.78151
3.7812
1
1
0.999999
1
0.999999
0.99998
1.00006
1.00011
1.00549
1.07656
1.39702
2.16894
3.04708
3.96337
4.07061
4.0138
3.99755
3.93418
3.81592
3.73949
3.71272
3.69366
3.67429
3.68052
3.69944
3.71629
3.73427
3.74976
3.75892
3.76563
3.77153
3.77604
3.77984
3.78249
3.78245
3.78065
3.77685
3.77228
3.7686
3.76641
3.76593
3.76656
3.76834
3.77183
3.77664
3.77861
3.77692
3.77811
1
0.999994
0.999993
1.00003
1.00156
1.01236
1.06458
1.21944
1.6095
2.34992
3.32121
3.94391
4.27635
4.31285
4.2503
4.12679
3.97336
3.77378
3.66355
3.64128
3.65017
3.66859
3.68747
3.71133
3.73904
3.75926
3.7702
3.77766
3.78067
3.78142
3.78398
3.78526
3.78645
3.7873
3.78618
3.78211
3.77659
3.77085
3.76539
3.76144
3.76039
3.76059
3.76159
3.76511
3.77188
3.77672
3.77766
3.78027
1.00205
1.02027
1.0638
1.19863
1.42068
1.75231
2.22832
2.74585
3.34255
3.71493
3.9177
4.04993
4.01597
3.93675
3.84297
3.78298
3.72131
3.70542
3.67329
3.66228
3.67266
3.69347
3.715
3.73685
3.75997
3.77007
3.7743
3.77529
3.77145
3.76798
3.76718
3.76776
3.76973
3.77259
3.77468
3.77761
3.77759
3.7755
3.7716
3.76735
3.76576
3.76616
3.76729
3.77002
3.77522
3.7785
3.77881
3.77867
1.29282
1.73902
2.32579
2.9433
3.5047
4.19121
4.69061
5.07101
5.333
5.24703
4.95511
4.49781
4.06729
3.75459
3.65634
3.58497
3.56342
3.59235
3.63191
3.66779
3.69269
3.71115
3.72686
3.74533
3.76362
3.76871
3.77018
3.76699
3.76358
3.76167
3.75732
3.75458
3.75599
3.76283
3.77729
3.79141
3.79439
3.79331
3.7898
3.78189
3.77246
3.77006
3.77023
3.77112
3.77387
3.77569
3.77599
3.77377
2.64849
1.69855
1.18485
0.826003
0.634164
0.645909
0.716771
0.732642
0.761466
0.853322
0.961789
0.972474
0.976173
1.00819
1.03108
1.03796
1.0485
1.07522
1.0807
1.07679
1.06827
1.06596
1.063
1.0524
1.04986
1.05404
1.05582
1.05381
1.04845
1.04163
1.03668
1.03633
1.0369
1.03899
1.0425
1.04501
1.04589
1.04612
1.04548
1.04506
1.04603
1.04856
1.05099
1.05138
1.05129
1.0504
1.04779
1.04656
1.0562
1.23313
1.78082
3.13573
5.22879
7.77109
10.3166
10.2592
9.39648
8.38901
7.99204
7.79408
7.6325
7.49028
7.42562
7.36601
7.24234
7.0569
6.75615
6.42688
6.29255
6.22844
6.19578
6.16291
6.07949
5.98107
5.82993
5.5454
5.27237
5.17506
5.12107
5.09644
5.08929
5.04098
4.97935
4.86486
4.6639
4.53164
4.48045
4.43212
4.37582
4.30886
4.2108
4.05891
3.93835
3.89105
3.86045
3.83821
3.81651
3.78529
3.73821
3.63073
3.47314
3.3735
3.33278
3.30614
3.28348
3.25748
3.22376
3.17228
3.0893
3.00219
2.95723
2.92967
2.90156
2.86587
2.80569
2.71184
2.65915
2.6412
2.62798
2.6161
2.59979
2.58075
2.55128
2.48234
2.37374
2.32812
2.31784
2.30776
2.293
2.27687
2.26048
2.24144
2.20925
2.14589
2.07291
2.04138
2.02912
2.01797
2.00507
1.99029
1.97414
1.95347
1.91887
1.87435
1.88199
1.97585
2.30441
2.94919
3.75204
4.45223
5.05282
5.57394
5.61353
5.52029
5.38649
5.25707
5.15679
5.09705
5.0432
4.98934
4.94088
4.89832
4.85148
4.7829
4.67937
4.605
4.57822
4.5578
4.54437
4.52808
4.50122
4.47014
4.41588
4.3265
4.27435
4.25168
4.23119
4.20939
4.1838
4.14753
4.07389
3.96769
3.91947
3.90223
3.88913
3.89133
3.91954
3.91837
3.89865
3.87012
3.80429
3.65663
3.38453
2.71176
2.19506
1.8261
1.4076
1.2371
1.15671
1.033
0.978355
0.980522
0.952172
0.912612
0.911476
0.928813
0.962326
0.982729
0.996655
1.02697
1.03732
1.03371
1.03281
1.03891
1.04595
1.04672
1.05144
1.05856
1.05905
1.05631
1.05053
1.0453
1.04314
1.04286
1.04262
1.04426
1.04708
1.0479
1.04798
1.04767
1.04669
1.04617
1.04633
1.0475
1.04867
1.04888
1.04846
1.04659
1.04566
1.05653
1.23664
1.96852
2.77209
3.22628
3.93888
4.76881
6.62884
8.09506
8.67541
8.48522
8.20029
7.87081
7.6354
7.51303
7.44084
7.36037
7.22702
7.06263
6.8253
6.53174
6.3062
6.1887
6.11943
6.08318
6.03681
5.95124
5.83135
5.63161
5.37949
5.2263
5.16042
5.10663
5.05922
5.00494
4.937
4.84738
4.70871
4.55364
4.47052
4.4273
4.38654
4.3286
4.24027
4.11724
3.99703
3.9153
3.86483
3.82719
3.79372
3.75831
3.70477
3.61401
3.4968
3.40844
3.35179
3.30619
3.27223
3.24709
3.22487
3.18901
3.1193
3.03894
2.98883
2.95656
2.92604
2.88671
2.82676
2.74211
2.6882
2.66836
2.65322
2.63683
2.618
2.59633
2.56488
2.50419
2.40609
2.33819
2.31569
2.30602
2.30835
2.29821
2.27975
2.25955
2.23018
2.1778
2.10854
2.06652
2.05105
2.03755
2.02256
2.00722
1.99264
1.97486
1.9507
1.96594
2.07308
2.3829
2.81217
3.12123
3.44482
3.8953
4.2638
4.70918
4.96776
5.16394
5.30533
5.28575
5.20988
5.12571
5.0634
5.01462
4.97107
4.92385
4.86943
4.80008
4.70843
4.62991
4.60241
4.57903
4.55831
4.53755
4.51055
4.47736
4.42581
4.34754
4.2929
4.26766
4.24527
4.22107
4.19341
4.15585
4.09005
3.99224
3.93203
3.91057
3.89734
3.89874
3.92004
3.91408
3.89252
3.85949
3.80067
3.67844
3.66861
3.34089
2.84082
2.40313
1.97785
1.63845
1.44747
1.26695
1.06962
1.02439
0.984326
0.923484
0.919073
0.92952
0.94505
0.949953
0.956655
0.978344
0.998323
1.00455
1.01076
1.02191
1.03372
1.03881
1.04598
1.05409
1.05615
1.05583
1.0531
1.04911
1.04767
1.04722
1.04734
1.04912
1.04927
1.04863
1.04737
1.04532
1.04435
1.04425
1.04467
1.04659
1.04812
1.04828
1.04653
1.04809
1.07061
1.24043
2.12698
2.973
3.36404
3.4427
3.47391
3.52747
4.06732
5.85644
7.90885
8.67711
8.48044
7.98358
7.61988
7.50588
7.3985
7.24795
7.10593
6.9872
6.85594
6.65275
6.40335
6.18621
6.06356
5.98732
5.92315
5.84288
5.74624
5.6452
5.50012
5.32705
5.20683
5.13332
5.05829
4.97704
4.88174
4.77432
4.66719
4.56743
4.48379
4.41067
4.34371
4.27751
4.20026
4.11866
4.03902
3.95195
3.87785
3.83556
3.78776
3.72338
3.64156
3.55262
3.48066
3.42672
3.36925
3.31488
3.2735
3.23856
3.19893
3.14889
3.08543
3.02356
2.97668
2.93274
2.89041
2.85103
2.80427
2.75739
2.70841
2.65103
2.6121
2.59325
2.57453
2.55262
2.52355
2.47515
2.40488
2.35561
2.32953
2.30411
2.282
2.26887
2.25521
2.23734
2.21068
2.16524
2.104
2.05314
2.0276
2.01059
1.99752
1.98579
1.984
1.98969
2.04013
2.22158
2.57105
2.99311
3.23991
3.24867
3.28262
3.36719
3.561
3.92182
4.47709
4.89302
5.18158
5.28477
5.23344
5.11309
5.01183
4.99359
4.96833
4.91306
4.85067
4.79972
4.74127
4.65878
4.58835
4.5484
4.51878
4.49407
4.47265
4.44464
4.40426
4.35744
4.30508
4.25281
4.21834
4.19121
4.16301
4.12769
4.07545
4.00753
3.95507
3.93141
3.92224
3.91743
3.90688
3.88844
3.86147
3.8223
3.76713
3.6845
3.75537
3.62633
3.31085
2.91495
2.50532
2.10395
1.84097
1.6268
1.37268
1.26264
1.19531
1.07952
1.01615
1.01528
0.992152
0.957319
0.950865
0.951353
0.947038
0.948076
0.954609
0.972992
1.00331
1.02398
1.03571
1.0451
1.04779
1.04903
1.04731
1.04491
1.04614
1.051
1.05682
1.05817
1.05741
1.05526
1.05144
1.04796
1.04752
1.04794
1.04898
1.04896
1.04858
1.04866
1.05267
1.11195
1.37627
2.06169
3.20924
3.4502
3.47509
3.47539
3.46968
3.35317
3.31379
3.61015
4.9842
7.22947
7.99407
7.88813
7.75994
7.59314
7.3673
7.12742
7.0082
6.94775
6.85766
6.72453
6.50751
6.2582
6.04264
5.92278
5.84497
5.77214
5.69868
5.63134
5.56543
5.4409
5.27018
5.12153
5.02107
4.92624
4.83244
4.74491
4.66415
4.59034
4.50569
4.39147
4.29718
4.24519
4.20527
4.16499
4.11042
4.03509
3.94337
3.83387
3.73862
3.651
3.5757
3.52387
3.48856
3.45295
3.40809
3.35176
3.2899
3.22848
3.16516
3.11295
3.07483
3.03895
2.99458
2.94124
2.87988
2.83672
2.81694
2.79293
2.74575
2.67469
2.61145
2.57924
2.55878
2.53673
2.50563
2.46184
2.41964
2.38543
2.34754
2.30136
2.26769
2.25139
2.23953
2.22683
2.20708
2.16973
2.112
2.05892
2.02727
2.00941
2.00147
1.99821
2.02085
2.14489
2.46959
2.83058
3.20679
3.32406
3.32228
3.30083
3.28541
3.28019
3.29904
3.39613
3.69887
4.13431
4.60351
5.00554
5.04415
5.04072
5.03665
5.02571
4.99413
4.93492
4.88605
4.84263
4.78239
4.68519
4.60112
4.54941
4.5101
4.47795
4.45137
4.42874
4.40588
4.37729
4.32845
4.26731
4.22018
4.1859
4.1499
4.10714
4.06607
4.0339
4.00249
3.95943
3.91396
3.89425
3.88115
3.86302
3.83425
3.7938
3.75868
3.70919
3.76931
3.73653
3.58565
3.3143
2.95346
2.54418
2.24672
1.98962
1.69009
1.51994
1.41317
1.27497
1.15112
1.10688
1.0544
0.983408
0.960982
0.958433
0.944133
0.941709
0.948825
0.959989
0.976913
0.998358
1.01015
1.01839
1.02422
1.0287
1.03403
1.0363
1.0381
1.04798
1.05542
1.05585
1.05479
1.05254
1.05129
1.05113
1.05243
1.05528
1.05605
1.05497
1.05196
1.05414
1.13117
1.64151
2.3431
3.10739
3.52125
3.55777
3.49804
3.4464
3.43525
3.38749
3.25577
3.19974
3.32924
4.30908
6.1628
7.56604
7.84706
7.6683
7.30809
7.04538
6.95289
6.90304
6.80882
6.68121
6.53157
6.3291
6.09617
5.8965
5.79135
5.71754
5.66295
5.60355
5.53151
5.45377
5.30828
5.10788
4.97361
4.88802
4.81294
4.75038
4.69238
4.62073
4.49211
4.34304
4.26621
4.22205
4.18205
4.14079
4.09673
4.04231
3.9474
3.79358
3.66528
3.60286
3.56287
3.52914
3.49587
3.46464
3.43203
3.39524
3.32827
3.22379
3.1389
3.08325
3.04045
3.00521
2.97377
2.93218
2.88039
2.84049
2.80508
2.76837
2.72737
2.67615
2.62274
2.58167
2.54806
2.51825
2.48601
2.44933
2.41664
2.38851
2.35457
2.30962
2.27004
2.24864
2.2323
2.21193
2.18414
2.14709
2.10475
2.06674
2.03401
2.01933
2.02272
2.07897
2.26873
2.69089
3.10204
3.3326
3.46214
3.46063
3.42662
3.36642
3.31529
3.28265
3.26399
3.25321
3.29454
3.44208
3.74844
4.24757
4.76699
4.93809
5.0277
4.99235
4.9423
4.89521
4.86508
4.83324
4.77422
4.6886
4.61483
4.55519
4.50902
4.47351
4.4455
4.42151
4.39254
4.35515
4.3117
4.26108
4.21257
4.17193
4.13448
4.09598
4.06783
4.04887
4.02649
3.9913
3.93999
3.88155
3.8521
3.83015
3.80415
3.77226
3.74293
3.69699
3.76908
3.75366
3.70261
3.55849
3.31006
2.94374
2.62158
2.34944
2.05449
1.83616
1.68452
1.51758
1.36471
1.28905
1.21986
1.11522
1.0648
1.04409
1.00403
0.976997
0.980094
0.981136
0.971404
0.969775
0.973406
0.97517
0.980073
0.990082
1.00401
1.01831
1.02787
1.04245
1.05106
1.05185
1.05162
1.05009
1.04939
1.05077
1.05482
1.05756
1.05728
1.0558
1.05958
1.13249
1.73818
2.7202
3.22349
3.50025
3.54816
3.51155
3.47208
3.40756
3.37796
3.3548
3.27924
3.15432
3.0952
3.14713
3.7235
5.2909
6.99649
7.36832
7.27327
7.12821
6.98364
6.84587
6.71966
6.62047
6.51981
6.38189
6.16651
5.93013
5.77316
5.6918
5.62576
5.56619
5.49687
5.41098
5.28467
5.10137
4.94566
4.87321
4.82342
4.77596
4.72017
4.62958
4.47094
4.31089
4.24085
4.19797
4.16109
4.13904
4.10533
4.05316
3.94772
3.76897
3.6346
3.58584
3.55913
3.5494
3.54403
3.51447
3.47802
3.4148
3.30326
3.18419
3.11485
3.07073
3.03265
2.99683
2.96381
2.93767
2.91278
2.86872
2.80907
2.75854
2.71926
2.68219
2.63823
2.58037
2.52618
2.49117
2.46762
2.45001
2.43384
2.41182
2.38051
2.33998
2.29514
2.25339
2.2172
2.18415
2.15842
2.13666
2.11131
2.08897
2.06623
2.07666
2.17045
2.46642
2.86177
3.32746
3.50326
3.51635
3.5088
3.47654
3.41743
3.36109
3.32031
3.29354
3.26619
3.2395
3.21959
3.21259
3.25392
3.44144
3.90393
4.42208
4.73491
4.86169
4.92062
4.93184
4.91243
4.85528
4.77142
4.69583
4.6319
4.5739
4.52543
4.48259
4.44444
4.41313
4.3815
4.34734
4.30954
4.26097
4.20374
4.15254
4.11811
4.09659
4.07833
4.05808
4.0353
4.00839
3.9633
3.89103
3.82119
3.78598
3.76542
3.74679
3.72938
3.69478
3.76279
3.75673
3.73335
3.67444
3.52661
3.2642
2.98249
2.68278
2.37441
2.15507
1.96826
1.7757
1.60617
1.49197
1.38914
1.26211
1.18643
1.14457
1.09169
1.02007
1.00908
1.00142
0.979704
0.975056
0.977282
0.972583
0.969289
0.970993
0.977692
0.993386
1.01117
1.02505
1.03465
1.03802