/*--------------------------------*- C++ -*----------------------------------*\
  =========                 |
  \\      /  F ield         | OpenFOAM: The Open Source CFD Toolbox
   \\    /   O peration     | Website:  https://openfoam.org
    \\  /    A nd           | Version:  7
     \\/     M anipulation  |
\*---------------------------------------------------------------------------*/
FoamFile
{
    version     2.0;
    format      ascii;
    class       volScalarField;
    location    "3.4";
    object      T;
}
// * * * * * * * * * * * * * * * * * * * * * * * * * * * * * * * * * * * * * //

dimensions      [0 0 0 1 0 0 0];

internalField   nonuniform List<scalar> 
18432
(
1
1
1
1
1
1
1
1
1
1
1
1
1
1
1
1
1
1
1
1
1
1
1
1
1
1
1
1
1
1
1
1
1
1
1
1
1
1
1
1
1
1
1
1
1
1
1
1
1
1
1
1
1
1
1
1
1
1
1
1
1
1
1
1
1
1
1
1
1
1
1
1
1
1
1
1
1
1
1
1
1
1
1
1
1
1
1
1
1
1
1
1
1
1
1
1
1
1
1
1
1
1
1
1
1
1
1
1
1
1
1
1
1
1
1
1
1
1
1
1
1
1
1
1
1
1
1
1
1
1
1
1
1
1
1
1
1
1
1
1
1
1
1
1
1
1
1
1
1
1
1
1
1
1
1
1
1
1
1
1
1
1
1
1
1
1
1
1
1
1
1
1
1
1
1
1
1
1
1
1
1
1
1
1
1
1
1
1
1
1
1
1
1
1
1
1
1
1
1
1
1
1
1
1
1
1
1
1
1
1
1
1
1
1
1
1
1
1
1
1
1
1
1
1
1
1
1
1
1
1
1
1
1
1
1
1
1
1
1
1
1
1
1
1
1
1
1
1
1
1
1
1
1
1
1
1
1
1
1
1
1
1
1
1
1
1
1
1
1
1
1
1
1
1
1
1
1
1
1
1
1
1
1
1
1
1
1
1
1
1
1
1
1
1
1
1
1
1
1
1
1
1
1
1
1
1
1
1
1
1
1
1
1
1
1
1
1
1
1
1
1
1
1
1
1
1
1
1
1
1
1
1
1
1
1
1
1
1
1
1
1
1
1
1
1
1
1
1
1
1
1
1
1
1
1
1
1
1
1
1
1
1
1
1
1
1
1
1
1
1
1
1
1
1
1
1
1
1
1
1
1
1
1
1
1
1
1
1
1
1
1
1
1
1
1
1
1
1
1
1
1
1
1
1
1
1
1
1
1
1
1
1
1
1
1
1
1
1
1
1
1
1
1
1
1
1
1
1
1
1
1
1
1
1
1
1
1
1
1
1
1
1
1
1
1
1
1
1
1
1
1
1
1
1
1
1
1
1
1
1
1
1
1
1
1
1
1
1
1
1
1
1
1
1
1
1
1
1
1
1
1
1
1
1
1
1
1
1
1
1
1
1
1
1
1
1
1
1
1
1
1
1
1
1
1
1
1
1
1
1
1
1
1
1
1
1
1
1
1
1
1
1
1
1
1
1
1
1
1
1
1
1
1
1
1
1
1
1
1
1
1
1
1
1
1
1
1
1
1
1
1
1
1
1
1
1
1
1
1
1
1
1
1
1
1
1
1
1
1
1
1
1
1
1
1
1
1
1
1
1
1
1
1
1
1
1
1
1
1
1
1
1
1
1
1
1
1
1
1
1
1
1
1
1
1
1
1
1
1
1
1
1
1
1
1
1
1
1
1
1
1
1
1
1
1
1
1
1
1
1
1
1
1
1
1
1
1
1
1
1
1
1
1
1
1
1
1
1
1
1
1
1
1
1
1
1
1
1
1
1
1
1
1
1
1
1
1
1
1
1
1
1
1
1
1
1
1
1
1
1
1
1
1
1
1
1
1
1
1
1
1
1
1
1
1
1
1
1
1
1
1
1
1
1
1
1
1
1
1
1
1
1
1
1
1
1
1
1
1
1
1
1
1
1
1
1
1
1
1
1
1
1
1
1
1
1
1
1
1
1
1
1
1
1
1
1
1
1
1
1
1
1
1
1
1
1
1
1
1
1
1
1
1
1
1
1
1
1
1
1
1
1
1
1
1
1
1
1
1
1
1
1
1
1
1
1
1
1
1
1
1
1
1
1
1
1
1
1
1
1
1
1
1
1
1
1
1
1
1
1
1
1
1
1
1
1
1
1
1
1
1
1
1
1
1
1
1
1
1
1
1
1
1
1
1
1
1
1
1
1
1
1
1
1
1
1
1
1
1
1
1
1
1
1
1
1
1
1
1
1
1
1
1
1
1
1
1
1
1
1
1
1
1
1
1
1
1
1
1
1
1
1
1
1
1
1
1
1
1
1
1
1
1
1
1
1
1
1
1
1
1
1
1
1
1
1
1
1
1
1
1
1
1
1
1
1
1
1
1
1
1
1
1
1
1
1
1
1
1
1
1
1
1
1
1
1
1
1
1
1
1
1
1
1
1
1
1
1
1
1
1
1
1
1
1
1
1
1
1
1
1
1
1
1
1
1
1
1
1
1
1
1
1
1
1
1
1
1
1
1
1
1
1
1
1
1
1
1
1
1
1
1
1
1
1
1
1
1
1
1
1
1
1
1
1
1
1
1
1
1
1
1
1
1
1
1
1
1
1
1
1
1
1
1
1
1
1
1
1
1
1
1
1
1
1
1
1
1
1
1
1
1
1
1
1
1
1
1
1
1
1
1
1
1
1
1
1
1
1
1
1
1
1
1
1
1
1
1
1
1
1
1
1
1
1
1
1
1
1
1
1
1
1
1
1
1
1
1
1
1
1
1
1
1
1
1
1
1
1
1
1
1
1
1
1
1
1
1
1
1
1
1
1
1
1
1
1
1
1
1
1
1
1
1
1
1
1
1
1
1
1
1
1
1
1
1
1
1
1
1
1
1
1
1
1
1
1
1
1
1
1
1
1
1
1
1
1
1
1
1
1
1
1
1
1
1
1
1
1
1
1
1
1
1
1
1
1
1
1
1
1
1
1
1
1
1
1
1
1
1
1
1
1
1
1
1
1
1
1
1
1
1
1
1
1
1
1
1
1
1
1
1
1
1
1
1
1
1
1
1
1
1
1
1
1
1
1
1
1
1
1
1
1
1
1
1
1
1
1
1
1
1
1
1
1
1
1
1
1
1
1
1
1
1
1
1
1
1
1
1
1
1
1
1
1
1
1
1
1
1
1
1
1
1
1
1
1
1
1
1
1
1
1
1
1
1
1
1
1
1
1
1
1
1
1
1
1
1
1
1
1
1
1
1
1
1
1
1
1
1
1
1
1
1
1
1
1
1
1
1
1
1
1
1
1
1
1
1
1
1
1
1
1
1
1
1
1
1
1
1
1
1
1
1
1
1
1
1
1
1
1
1
1
1
1
1
1
1
1
1
1
1
1
1
1
1
1
1
1
1
1
1
1
1
1
1
1
1
1
1
1
1
1
1
1
1
1
1
1
1
1
1
1
1
1
1
1
1
1
1
1
1
1
1
1
1
1
1
1
1
1
1
1
1
1
1
1
1
1
1
1
1
1
1
1
1
1
1
1
1
1
1
1
1
1
1
1
1
1
1
1
1
1
1
1
1
1
1
1
1
1
1
1
1
1
1
1
1
1
1
1
1
1
1
1
1
1
1
1
1
1
1
1
1
1
1
1
1
1
1
1
1
1
1
1
1
1
1
1
1
1
1
1
1
1
1
1
1
1
1
1
1
1
1
1
1
1
1
1
1
1
1
1
1
1
1
1
1
1
1
1
1
1
1
1
1
1
1
1
1
1
1
1
1
1
1
1
1
1
1
1
1
1
1
1
1
1
1
1
1
1
1
1
1
1
1
1
1
1
1
1
1
1
1
1
1
1
1
1
1
1
1
1
1
1
1
1
1
1
1
1
1
1
1
1
1
1
1
1
1
1
1
1
1
1
1
1
1
1
1
1
1
1
1
1
1
1
1
1
1
1
1
1
1
1
1
1
1
1
1
1
1
1
1
1
1
1
1
1
1
1
1
1
1
1
1
1
1
1
1
1
1
1
1
1
1
1
1
1
1
1
1
1
1
1
1
1
1
1
1
1
1
1
1
1
1
1
1
1
1
1
1
1
1
1
1
1
1
1
1
1
1
1
1
1
1
1
1
1
1
1
1
1
1
1
1
1
1
1
1
1
1
1
1
1
1
1
1
1
1
1
1
1
1
1
1
1
1
1
1
1
1
1
1
1
1
1
1
1
1
1
1
1
1
1
1
1
1
1
1
1
1
1
1
1
1
1
1
1
1
1
1
1
1
1
1
1
1
1
1
1
1
1
1
1
1
1
1
1
1
1
1
1
1
1
1
1
1
1
1
1
1
1
1
1
1
1
1
1
1
1
1
1
1
1
1
1
1
1
1
1
1
1
1
1
1
1
1
1
1
1
1
1
1
1
1
1
1
1
1
1
1
1
1
1
1
1
1
1
1
1
1
1
1
1
1
1
1
1
1
1
1
1
1
1
1
1
1
1
1
1
1
1
1
1
1
1
1
1
1
1
1
1
1
1
1
1
1
1
1
1
1
1
1
1
1
1
1
1
1
1
1
1
1
1
1
1
1
1
1
1
1
1
1
1
1
1
1
1
1
1
1
1
1
1
1
1
1
1
1
1
1
1
1
1
1
1
1
1
1
1
1
1
1
1
1
1
1
1
1
1
1
1
1
1
1
1
1
1
1
1
1
1
1
1
1
1
1
1
1
1
1
1
1
1
1
1
1
1
1
1
1
1
1
1
1
1
1
1
1
1
1
1
1
1
1
1
1
1
1
1
1
1
1
1
1
1
1
1
1
1
1
1
1
1
1
1
1
1
1
1
1
1
1
1
1
1
1
1
1
1
1
1
1
1
1
1
1
1
1
1
1
1
1
1
1
1
1
1
1
1
1
1
1
1
1
1
1
1
1
1
1
1
1
1
1
1
1
1
1
1
1
1
1
1
1
1
1
1
1
1
1
1
1
1
1
1
1
1
1
1
1
1
1
1
1
1
1
1
1
1
1
1
1
1
1
1
1
1
1
1
1
1
1
1
1
1
1
1
1
1
1
1
1
1
1
1
1
1
1
1
1
1
1
1
1
1
1
1
1
1
1
1
1
1
1
1
1
1
1
1
1
1
1
1
1
1
1
1
1
1
1
1
1
1
1
1
1
1
1
1
1
1
1
1
1
1
1
1
1
1
1
1
1
1
1
1
1
1
1
1
1
1
1
1
1
1
1
1
1
1
1
1
1
1
1
1
1
1
1
1
1
1
1
1
1
1
1
1
1
1
1
1
1
1
1
1
1
1
1
1
1
1
1
1
1
1
1
1
1
1
1
1
1
1
1
1
1
1
1
1
1
1
1
1
1
1
1
1
1
1
1
1
1
1
1
1
1
1
1
1
1
1
1
1
1
1
1
1
1
1
1
1
1
1
1
1
1
1
1
1
1
1
1
1
1
1
1
1
1
1
1
1
1
1
1
1
1
1
1
1
1
1
1
1
1
1
1
1
1
1
1
1
1
1
1
1
1
1
1
1
1
1
1
1
1
1
1
1
1
1
1
1
1
1
1
1
1
1
1
1
1
1
1
1
1
1
1
1
1
1
1
1
1
1
1
1
1
1
1
1
1
1
1
1
1
1
1
1
1
1
1
1
1
1
1
1
1
1
1
1
1
1
1
1
1
1
1
1
1
1
1
1
1
1
1
1
1
1
1
1
1
1
1
1
1
1
1
1
1
1
1
1
1
1
1
1
1
1
1
1
1
1
1
1
1
1
1
1
1
1
1
1
1
1
1
1
1
1
1
1
1
1
1
1
1
1
1
1
1
1
1
1
1
1
1
1
1
1
1
1
1
1
1
1
1
1
1
1
1
1
1
1
1
1
1
1
1
1
1
1
1
1
1
1
1
1
1
1
1
1
1
1
1
1
1
1
1
1
1
1
1
1
1
1
1
1
1
1
1
1
1
1
1
1
1
1
1
1
1
1
1
1
1
1
1
1
1
1
1
1
1
1
1
1
1
1
1
1
1
1
1
1
1
1
1
1
1
1
1
1
1
1
1
1
1
1
1
1
1
1
1
1
1
1
1
1
1
1
1
1
1
1
1
1
1
1
1
1
1
1
1
1
1
1
1
1
1
1
1
1
1
1
1
1
1
1
1
1
1
1
1
1
1
1
1
1
1
1
1
1
1
1
1
1
1
1
1
1
1
1
1
1
1
1
1
1
1
1
1
1
1
1
1
1
1
1
1
1
1
1
1
1
1
1
1
1
1
1
1
1
1
1
1
1
1
1
1
1
1
1
1
1
1
1
1
1
1
1
1
1
1
1
1
1
1
1
1
1
1
1
1
1
1
1
1
1
1
1
1
1
1
1
1
1
1
1
1
1
1
1
1
1
1
1
1
1
1
1
1
1
1
1
1
1
1
1
1
1
1
1
1
1
1
1
1
1
1
1
1
1
1
1
1
1
1
1
1
1
1
1
1
1
1
1
1
1
1
1
1
1
1
1
1
1
1
1
1
1
1
1
1
1
1
1
1
1
1
1
1
1
1
1
1
1
1
1
1
1
1
1
1
1
1
1
1
1
1
1
1
1
1
1
1
1
1
1
1
1
1
1
1
1
1
1
1
1
1
1
1
1
1
1
1
1
1
1
1
1
1
1
1
1
1
1
1
1
1
1
1
1
1
1
1
1
1
1
1
1
1
1
1
1
1
1
1
1
1
1
1
1
1
1
1
1
1
1
1
1
1
1
1
1
1
1
1
1
1
1
1
1
1
1
1
1
1
1
1
1
1
1
1
1
1
1
1
1
1
1
1
1
1
1
1
1
1
1
1
1
1
1
1
1
1
1
1
1
1
1
1
1
1
1
1
1
1
1
1
1
1
1
1
1
1
1
1
1
1
1
1
1
1
1
1
1
1
1
1
1
1
1
1
1
1
1
1
1
1
1
1
1
1
1
1
1
1
1
1
1
1
1
1
1
1
1
1
1
1
1
1
1
1
1
1
1
1
1
1
1
1
1
1
1
1
1
1
1
1
1
1
1
1
1
1
1
1
1
1
1
1
1
1
1
1
1
1
1
1
1
1
1
1
1
1
1
1
1
1
1
1
1
1
1
1
1
1
1
1
1
1
1
1
1
1
1
1
1
1
1
1
1
1
1
1
1
1
1
1
1
1
1
1
1
1
1
1
1
1
1
1
1
1
1
1
1
1
1
1
1
1
1
1
1
1
1
1
1
1
1
1
1
1
1.07859
1.17706
1.28638
1.38706
1.46963
1.55941
1.62136
1.66416
1.6946
1.68978
1.66337
1.61601
1.57042
1.53443
1.52428
1.51702
1.51441
1.51749
1.52206
1.52691
1.53093
1.53401
1.53612
1.53806
1.53994
1.54088
1.5416
1.542
1.54213
1.54196
1.54139
1.54115
1.54153
1.54289
1.54509
1.54694
1.54734
1.54725
1.54686
1.54596
1.54514
1.54514
1.54536
1.54566
1.54608
1.54638
1.54648
1.54642
1.00065
1.00681
1.02193
1.06743
1.13265
1.2112
1.30148
1.37818
1.45536
1.50367
1.53321
1.55572
1.56313
1.55995
1.5534
1.54816
1.54
1.53679
1.5317
1.53175
1.53358
1.53665
1.53929
1.54158
1.54389
1.54508
1.54602
1.54658
1.54643
1.54606
1.5458
1.54576
1.54597
1.54652
1.54705
1.54759
1.5476
1.54736
1.54684
1.54635
1.54629
1.54644
1.54676
1.54722
1.5478
1.54813
1.54813
1.54865
1
0.999999
0.999996
1.00001
1.00055
1.00428
1.02243
1.07407
1.18401
1.34522
1.50307
1.58281
1.62083
1.62046
1.61329
1.59982
1.58201
1.55831
1.54337
1.54151
1.54274
1.54543
1.54792
1.55054
1.55317
1.55481
1.5558
1.55668
1.5571
1.55711
1.55711
1.55672
1.55625
1.55602
1.55574
1.55523
1.55453
1.55361
1.55259
1.55185
1.55157
1.55153
1.55158
1.55188
1.55241
1.55266
1.55245
1.55346
1
1
1
1
1
0.999994
1.00002
1.00004
1.00199
1.02923
1.1444
1.33843
1.48595
1.61348
1.61303
1.6013
1.60115
1.59456
1.57992
1.57039
1.5669
1.56427
1.5612
1.56169
1.56329
1.56449
1.5658
1.56705
1.56798
1.56861
1.56866
1.56835
1.56784
1.56749
1.56718
1.56671
1.56592
1.56476
1.56345
1.56245
1.56198
1.56178
1.56169
1.56167
1.56167
1.56142
1.56034
1.56117
1
1
1
1
1
1
1
1
1
0.999974
1.00054
1.01883
1.10404
1.30382
1.46899
1.56663
1.62675
1.62663
1.61898
1.60645
1.59526
1.58413
1.5783
1.57563
1.57368
1.57443
1.57537
1.57617
1.57697
1.57753
1.57717
1.5764
1.57594
1.57636
1.57688
1.57673
1.57623
1.57534
1.5742
1.57325
1.57294
1.57292
1.57295
1.57294
1.57268
1.57195
1.57036
1.57096
1
1
1
1
1
1
1
1
1
0.999999
0.999999
0.999981
1.00026
1.00999
1.09358
1.24587
1.43852
1.53046
1.59734
1.60851
1.60772
1.6009
1.59285
1.58826
1.58526
1.58209
1.58034
1.57961
1.57986
1.58105
1.58193
1.58243
1.58324
1.58403
1.58408
1.5838
1.58324
1.58245
1.58155
1.58094
1.58078
1.58069
1.58067
1.58062
1.58007
1.579
1.57732
1.57762
1
1
1
1
1
1
1
1
1
1
1
0.999999
0.999999
0.999985
1.00026
1.00565
1.06836
1.22284
1.40048
1.51678
1.56138
1.58992
1.59255
1.59207
1.58748
1.5835
1.58293
1.5818
1.58008
1.58017
1.58138
1.58381
1.5869
1.58747
1.58704
1.58634
1.5857
1.58513
1.58438
1.58399
1.58377
1.58361
1.58368
1.58362
1.58304
1.58219
1.58098
1.58108
1
1
1
1
1
1
1
1
1
1
1
1
1
0.999999
0.999999
0.999991
1.00018
1.0057
1.04849
1.20325
1.35617
1.50416
1.54919
1.56528
1.57575
1.5731
1.57439
1.57497
1.57423
1.5746
1.57643
1.57926
1.58184
1.5838
1.58455
1.58442
1.58397
1.5833
1.58309
1.58313
1.58323
1.58375
1.58419
1.58416
1.5839
1.58358
1.58307
1.58303
1
1
1
1
1
1
1
1
1
1
1
1
1
1
1
0.999999
0.999999
0.999993
1.00008
1.00529
1.04023
1.16909
1.34586
1.47329
1.54813
1.56137
1.56756
1.56945
1.56872
1.56888
1.56988
1.57168
1.5732
1.57491
1.57682
1.57809
1.57876
1.5793
1.58
1.58081
1.58147
1.58221
1.58275
1.58297
1.58317
1.58317
1.58307
1.58289
1
1
1
1
1
1
1
1
1
1
1
1
1
1
1
1
1
1
1
0.999994
1.00008
1.00332
1.04598
1.15596
1.33141
1.44932
1.53053
1.55884
1.56502
1.56686
1.5691
1.56892
1.56839
1.56859
1.57006
1.57188
1.57301
1.57415
1.57531
1.57636
1.57762
1.57869
1.57916
1.57967
1.58043
1.58082
1.58109
1.58088
1
1
1
1
1
1
1
1
1
1
1
1
1
1
1
1
1
1
1
0.999999
1
0.999995
1.00016
1.00295
1.04023
1.15968
1.32161
1.44278
1.50904
1.54692
1.56052
1.5637
1.56429
1.56551
1.56603
1.56676
1.5686
1.57006
1.57132
1.57251
1.57399
1.57487
1.57535
1.57588
1.57644
1.57671
1.57712
1.57688
1
1
1
1
1
1
1
1
1
1
1
1
1
1
1
1
1
1
1
1
1
0.999999
1
0.999996
1.00017
1.00398
1.03517
1.16596
1.31957
1.46243
1.50912
1.53056
1.54556
1.55495
1.55651
1.55857
1.56147
1.56342
1.56478
1.56598
1.56724
1.5685
1.56949
1.57027
1.5711
1.57172
1.57241
1.57236
1
1
1
1
1
1
1
1
1
1
1
1
1
1
1
1
1
1
1
1
1
1
1
1
1
0.999996
1.00014
1.00576
1.04019
1.17583
1.33827
1.47108
1.52832
1.53544
1.54302
1.54894
1.55238
1.55466
1.55623
1.55764
1.55955
1.56183
1.56341
1.56398
1.5644
1.5648
1.56545
1.56593
1
1
1
1
1
1
1
1
1
1
1
1
1
1
1
1
1
1
1
1
1
1
1
1
1
1
1
1
1.00022
1.00706
1.05714
1.19465
1.36424
1.47738
1.53738
1.55128
1.55328
1.55554
1.55509
1.55453
1.55557
1.55755
1.55879
1.55938
1.5593
1.55911
1.55953
1.56044
1
1
1
1
1
1
1
1
1
1
1
1
1
1
1
1
1
1
1
1
1
1
1
1
1
1
1
1
0.999999
1.00001
1.00052
1.00943
1.08449
1.23264
1.39846
1.4897
1.53891
1.55556
1.55598
1.5565
1.55707
1.55801
1.55894
1.55879
1.55837
1.55779
1.55793
1.55863
1
1
1
1
1
1
1
1
1
1
1
1
1
1
1
1
1
1
1
1
1
1
1
1
1
1
1
1
1
1
0.999999
1.00002
1.00143
1.01655
1.12159
1.29158
1.45043
1.50655
1.5296
1.54781
1.55321
1.5543
1.55569
1.55668
1.55668
1.55666
1.55716
1.55791
1
1
1
1
1
1
1
1
1
1
1
1
1
1
1
1
1
1
1
1
1
1
1
1
1
1
1
1
1
1
1
1
0.999999
1.00007
1.00397
1.03542
1.17853
1.35398
1.49777
1.53486
1.54224
1.54694
1.5488
1.55086
1.55267
1.5537
1.55483
1.55619
1
1
1
1
1
1
1
1
1
1
1
1
1
1
1
1
1
1
1
1
1
1
1
1
1
1
1
1
1
1
1
1
1
1
1
1.0003
1.01054
1.07536
1.2619
1.42526
1.52114
1.5516
1.55302
1.55614
1.55563
1.5545
1.5544
1.55582
1
1
1
1
1
1
1
1
1
1
1
1
1
1
1
1
1
1
1
1
1
1
1
1
1
1
1
1
1
1
1
1
1
1
1
0.999999
1.00004
1.00147
1.03068
1.15269
1.35138
1.47406
1.53814
1.55887
1.55864
1.55795
1.55796
1.55861
1
1
1
1
1
1
1
1
1
1
1
1
1
1
1
1
1
1
1
1
1
1
1
1
1
1
1
1
1
1
1
1
1
1
1
1
1
1
1.00035
1.0069
1.08172
1.26485
1.45283
1.51724
1.53552
1.54815
1.55457
1.55584
1
1
1
1
1
1
1
1
1
1
1
1
1
1
1
1
1
1
1
1
1
1
1
1
1
1
1
1
1
1
1
1
1
1
1
1
1
1
1
1.00002
1.00256
1.03307
1.18485
1.38261
1.51609
1.54551
1.55098
1.5525
1
1
1
1
1
1
1
1
1
1
1
1
1
1
1
1
1
1
1
1
1
1
1
1
1
1
1
1
1
1
1
1
1
1
1
1
1
1
1
1
1
1.00043
1.01458
1.10833
1.32561
1.48018
1.54912
1.56033
1
1
1
1
1
1
1
1
1
1
1
1
1
1
1
1
1
1
1
1
1
1
1
1
1
1
1
1
1
1
1
1
1
1
1
1
1
1
1
1
1
1
1.00013
1.00439
1.07289
1.25627
1.44275
1.51133
1
1
1
1
1
1
1
1
1
1
1
1
1
1
1
1
1
1
1
1
1
1
1
1
1
1
1
1
1
1
1
1
1
1
1
1
1
1
1
1
1
1
1
1.00002
1.00237
1.03202
1.20449
1.39295
1
1
1
1
1
1
1
1
1
1
1
1
1
1
1
1
1
1
1
1
1
1
1
1
1
1
1
1
1
1
1
1
1
1
1
1
1
1
1
1
1
1
1
1
1.00001
1.00056
1.02434
1.13013
1
1
1
1
1
1
1
1
1
1
1
1
1
1
1
1
1
1
1
1
1
1
1
1
1
1
1
1
1
1
1
1
1
1
1
1
1
1
1
1
1
1
1
1
1
1
1.00053
1.00552
1
1
1
1
1
1
1
1
1
1
1
1
1
1
1
1
1
1
1
1
1
1
1
1
1
1
1
1
1
1
1
1
1
1
1
1
1
1
1
1
1
1
1
1
1
1
1
0.99995
1
1
1
1
1
1
1
1
1
1
1
1
1
1
1
1
1
1
1
1
1
1
1
1
1
1
1
1
1
1
1
1
1
1
1
1
1
1
1
1
1
1
1
1
1
1
1
0.999984
1
1
1
1
1
1
1
1
1
1
1
1
1
1
1
1
1
1
1
1
1
1
1
1
1
1
1
1
1
1
1
1
1
1
1
1
1
1
1
1
1
1
1
1
1
1
1
0.999997
1
1
1
1
1
1
1
1
1
1
1
1
1
1
1
1
1
1
1
1
1
1
1
1
1
1
1
1
1
1
1
1
1
1
1
1
1
1
1
1
1
1
1
1
1
1
1
1
1
1
1
1
1
1
1
1
1
1
1
1
1
1
1
1
1
1
1
1
1
1
1
1
1
1
1
1
1
1
1
1
1
1
1
1
1
1
1
1
1
1
1
1
1
1
1
1
1
1
1
1
1
1
1
1
1
1
1
1
1
1
1
1
1
1
1
1
1
1
1
1
1
1
1
1
1
1
1
1
1
1
1
1
1
1
1
1
1
1
1
1
1
1
1
1
1
1
1
1
1
1
1
1
1
1
1
1
1
1
1
1
1
1
1
1
1
1
1
1
1
1
1
1
1
1
1
1
1
1
1
1
1
1
1
1
1
1
1
1
1
1
1
1
1
1
1
1
1
1
1
1
1
1
1
1
1
1
1
1
1
1
1
1
1
1
1
1
1
1
1
1
1
1
1
1
1
1
1
1
1
1
1
1
1
1
1
1
1
1
1
1
1
1
1
1
1
1
1
1
1
1
1
1
1
1
1
1
1
1
1
1
1
1
1
1
1
1
1
1
1
1
1
1
1
1
1
1
1
1
1
1
1
1
1
1
1
1
1
1
1
1
1
1
1
1
1
1
1
1
1
1
1
1
1
1
1
1
1
1
1
1
1
1
1
1
1
1
1
1
1
1
1
1
1
1
1
1
1
1
1
1
1
1
1
1
1
0.999997
1
1
1
1
1
1
1
1
1
1
1
1
1
1
1
1
1
1
1
1
1
1
1
1
1
1
1
1
1
1
1
1
1
1
1
1
1
1
1
1
1
1
1
1
1
1
1
0.999984
1
1
1
1
1
1
1
1
1
1
1
1
1
1
1
1
1
1
1
1
1
1
1
1
1
1
1
1
1
1
1
1
1
1
1
1
1
1
1
1
1
1
1
1
1
1
1
0.999949
1
1
1
1
1
1
1
1
1
1
1
1
1
1
1
1
1
1
1
1
1
1
1
1
1
1
1
1
1
1
1
1
1
1
1
1
1
1
1
1
1
1
1
1
1
1
1.00054
1.00552
1
1
1
1
1
1
1
1
1
1
1
1
1
1
1
1
1
1
1
1
1
1
1
1
1
1
1
1
1
1
1
1
1
1
1
1
1
1
1
1
1
1
1
1
1.00001
1.00056
1.0244
1.13047
1
1
1
1
1
1
1
1
1
1
1
1
1
1
1
1
1
1
1
1
1
1
1
1
1
1
1
1
1
1
1
1
1
1
1
1
1
1
1
1
1
1
1
1.00002
1.00237
1.032
1.2048
1.39267
1
1
1
1
1
1
1
1
1
1
1
1
1
1
1
1
1
1
1
1
1
1
1
1
1
1
1
1
1
1
1
1
1
1
1
1
1
1
1
1
1
1
1.00013
1.00439
1.07288
1.25631
1.44304
1.51092
1
1
1
1
1
1
1
1
1
1
1
1
1
1
1
1
1
1
1
1
1
1
1
1
1
1
1
1
1
1
1
1
1
1
1
1
1
1
1
1
1
1.00043
1.01458
1.10832
1.32553
1.48033
1.54912
1.56019
1
1
1
1
1
1
1
1
1
1
1
1
1
1
1
1
1
1
1
1
1
1
1
1
1
1
1
1
1
1
1
1
1
1
1
1
1
1
1
1.00002
1.00256
1.03307
1.18486
1.38259
1.51608
1.54555
1.55095
1.55246
1
1
1
1
1
1
1
1
1
1
1
1
1
1
1
1
1
1
1
1
1
1
1
1
1
1
1
1
1
1
1
1
1
1
1
1
1
1
1.00035
1.0069
1.08172
1.26486
1.45281
1.51723
1.53554
1.54817
1.55455
1.55583
1
1
1
1
1
1
1
1
1
1
1
1
1
1
1
1
1
1
1
1
1
1
1
1
1
1
1
1
1
1
1
1
1
1
1
0.999999
1.00004
1.00147
1.03068
1.15269
1.35138
1.47407
1.53812
1.55887
1.55865
1.55796
1.55796
1.55861
1
1
1
1
1
1
1
1
1
1
1
1
1
1
1
1
1
1
1
1
1
1
1
1
1
1
1
1
1
1
1
1
1
1
1
1.0003
1.01054
1.07536
1.2619
1.42525
1.52113
1.55161
1.55301
1.55614
1.55563
1.5545
1.5544
1.55582
1
1
1
1
1
1
1
1
1
1
1
1
1
1
1
1
1
1
1
1
1
1
1
1
1
1
1
1
1
1
1
1
0.999999
1.00007
1.00397
1.03542
1.17852
1.35398
1.49777
1.53486
1.54224
1.54694
1.5488
1.55086
1.55267
1.5537
1.55483
1.55619
1
1
1
1
1
1
1
1
1
1
1
1
1
1
1
1
1
1
1
1
1
1
1
1
1
1
1
1
1
1
0.999999
1.00002
1.00143
1.01655
1.12159
1.29158
1.45043
1.50655
1.5296
1.54781
1.5532
1.5543
1.55569
1.55668
1.55668
1.55666
1.55716
1.55791
1
1
1
1
1
1
1
1
1
1
1
1
1
1
1
1
1
1
1
1
1
1
1
1
1
1
1
1
0.999999
1.00001
1.00052
1.00943
1.08449
1.23264
1.39846
1.4897
1.53891
1.55556
1.55598
1.5565
1.55707
1.55801
1.55894
1.55879
1.55837
1.55779
1.55793
1.55863
1
1
1
1
1
1
1
1
1
1
1
1
1
1
1
1
1
1
1
1
1
1
1
1
1
1
1
1
1.00022
1.00706
1.05714
1.19465
1.36424
1.47738
1.53738
1.55128
1.55328
1.55554
1.55509
1.55453
1.55557
1.55755
1.55879
1.55938
1.5593
1.55911
1.55953
1.56044
1
1
1
1
1
1
1
1
1
1
1
1
1
1
1
1
1
1
1
1
1
1
1
1
1
0.999996
1.00014
1.00576
1.04019
1.17583
1.33827
1.47108
1.52832
1.53544
1.54302
1.54894
1.55238
1.55466
1.55623
1.55764
1.55955
1.56183
1.56341
1.56398
1.5644
1.5648
1.56545
1.56593
1
1
1
1
1
1
1
1
1
1
1
1
1
1
1
1
1
1
1
1
1
0.999999
1
0.999996
1.00017
1.00398
1.03517
1.16596
1.31957
1.46243
1.50912
1.53056
1.54556
1.55495
1.55651
1.55857
1.56147
1.56342
1.56478
1.56598
1.56724
1.5685
1.56949
1.57027
1.5711
1.57172
1.57241
1.57236
1
1
1
1
1
1
1
1
1
1
1
1
1
1
1
1
1
1
1
0.999999
1
0.999995
1.00016
1.00295
1.04023
1.15968
1.32161
1.44278
1.50904
1.54692
1.56052
1.5637
1.56429
1.56551
1.56603
1.56676
1.5686
1.57006
1.57132
1.57251
1.57399
1.57487
1.57535
1.57588
1.57644
1.57671
1.57712
1.57688
1
1
1
1
1
1
1
1
1
1
1
1
1
1
1
1
1
1
1
0.999994
1.00008
1.00332
1.04598
1.15596
1.33141
1.44932
1.53053
1.55884
1.56502
1.56686
1.5691
1.56892
1.56839
1.56859
1.57006
1.57188
1.57301
1.57415
1.57531
1.57636
1.57762
1.57869
1.57916
1.57967
1.58043
1.58082
1.58109
1.58088
1
1
1
1
1
1
1
1
1
1
1
1
1
1
1
0.999999
0.999999
0.999993
1.00008
1.00529
1.04023
1.16909
1.34586
1.47329
1.54813
1.56137
1.56756
1.56945
1.56872
1.56888
1.56988
1.57168
1.5732
1.57491
1.57682
1.57809
1.57876
1.5793
1.58
1.58081
1.58147
1.58221
1.58275
1.58297
1.58317
1.58317
1.58307
1.58289
1
1
1
1
1
1
1
1
1
1
1
1
1
0.999999
0.999999
0.999991
1.00018
1.0057
1.04849
1.20325
1.35617
1.50416
1.54919
1.56528
1.57575
1.5731
1.57439
1.57497
1.57423
1.5746
1.57643
1.57926
1.58184
1.5838
1.58455
1.58442
1.58397
1.5833
1.58309
1.58313
1.58323
1.58375
1.58419
1.58416
1.5839
1.58358
1.58307
1.58303
1
1
1
1
1
1
1
1
1
1
1
0.999999
0.999999
0.999985
1.00026
1.00565
1.06836
1.22284
1.40048
1.51678
1.56138
1.58992
1.59255
1.59207
1.58748
1.5835
1.58293
1.5818
1.58008
1.58017
1.58138
1.58381
1.5869
1.58747
1.58704
1.58634
1.5857
1.58513
1.58438
1.58399
1.58377
1.58361
1.58368
1.58362
1.58304
1.58219
1.58098
1.58108
1
1
1
1
1
1
1
1
1
0.999999
0.999999
0.999981
1.00026
1.00999
1.09358
1.24587
1.43852
1.53046
1.59734
1.60851
1.60772
1.6009
1.59285
1.58826
1.58526
1.58209
1.58034
1.57961
1.57986
1.58105
1.58193
1.58243
1.58324
1.58403
1.58408
1.5838
1.58324
1.58245
1.58155
1.58094
1.58078
1.58069
1.58067
1.58062
1.58007
1.579
1.57732
1.57762
1
1
1
1
1
1
1
1
1
0.999974
1.00054
1.01883
1.10404
1.30382
1.46899
1.56663
1.62675
1.62663
1.61898
1.60645
1.59526
1.58413
1.5783
1.57563
1.57368
1.57443
1.57537
1.57617
1.57697
1.57753
1.57717
1.5764
1.57594
1.57636
1.57688
1.57673
1.57623
1.57534
1.5742
1.57325
1.57294
1.57292
1.57295
1.57294
1.57268
1.57195
1.57036
1.57096
1
1
1
1
1
0.999994
1.00002
1.00004
1.00199
1.02923
1.1444
1.33843
1.48595
1.61348
1.61303
1.6013
1.60115
1.59456
1.57992
1.57039
1.5669
1.56427
1.5612
1.56169
1.56329
1.56449
1.5658
1.56705
1.56798
1.56861
1.56866
1.56835
1.56784
1.56749
1.56718
1.56671
1.56592
1.56476
1.56345
1.56245
1.56198
1.56178
1.56169
1.56167
1.56167
1.56142
1.56034
1.56117
1
0.999999
0.999996
1.00001
1.00055
1.00428
1.02243
1.07407
1.18401
1.34522
1.50307
1.58281
1.62083
1.62046
1.61329
1.59982
1.58201
1.55831
1.54337
1.54151
1.54274
1.54543
1.54792
1.55054
1.55317
1.55481
1.5558
1.55668
1.5571
1.55711
1.55711
1.55672
1.55625
1.55602
1.55574
1.55523
1.55453
1.55361
1.55259
1.55185
1.55157
1.55153
1.55158
1.55188
1.55241
1.55266
1.55245
1.55346
1.00065
1.00681
1.02193
1.06743
1.13265
1.2112
1.30148
1.37818
1.45536
1.50367
1.53321
1.55572
1.56313
1.55995
1.5534
1.54816
1.54
1.53679
1.5317
1.53175
1.53358
1.53665
1.53929
1.54158
1.54389
1.54508
1.54602
1.54658
1.54643
1.54606
1.5458
1.54576
1.54597
1.54652
1.54705
1.54759
1.5476
1.54736
1.54684
1.54635
1.54629
1.54644
1.54676
1.54722
1.5478
1.54813
1.54813
1.54865
1.07859
1.17706
1.28638
1.38706
1.46963
1.55941
1.62136
1.66416
1.6946
1.68978
1.66337
1.61601
1.57042
1.53443
1.52428
1.51702
1.51441
1.51749
1.52206
1.52691
1.53093
1.53401
1.53612
1.53806
1.53994
1.54088
1.5416
1.542
1.54213
1.54196
1.54139
1.54115
1.54153
1.54289
1.54509
1.54694
1.54734
1.54725
1.54686
1.54596
1.54514
1.54514
1.54536
1.54566
1.54608
1.54638
1.54648
1.54642
1.40248
1.23659
1.12229
1.02933
0.9691
0.98036
1.01557
1.01937
1.03146
1.07008
1.1055
1.10281
1.09911
1.10345
1.10911
1.11266
1.11739
1.12482
1.12421
1.12134
1.1171
1.11652
1.11584
1.11263
1.11107
1.11161
1.11143
1.11036
1.10822
1.10599
1.10428
1.10372
1.10327
1.10331
1.104
1.10469
1.10478
1.1047
1.10422
1.1039
1.10397
1.10424
1.10456
1.10456
1.10442
1.10389
1.10245
1.10205
1.10518
1.16612
1.32014
1.56427
1.8145
2.04848
2.24457
2.24178
2.1808
2.10868
2.08568
2.07295
2.06152
2.05057
2.0453
2.0411
2.03247
2.01911
1.99553
1.96774
1.9558
1.94983
1.9471
1.94453
1.93693
1.92758
1.91326
1.88625
1.85972
1.8498
1.84407
1.84126
1.84024
1.83539
1.8297
1.81832
1.79665
1.78234
1.77703
1.77193
1.76573
1.75773
1.7455
1.72682
1.71227
1.70656
1.70293
1.70038
1.69794
1.69446
1.68878
1.67485
1.65346
1.63975
1.63427
1.6307
1.62746
1.62377
1.61908
1.61182
1.60001
1.58733
1.58048
1.57599
1.57125
1.56522
1.55521
1.54004
1.53168
1.52892
1.52694
1.52538
1.52323
1.52063
1.51612
1.50448
1.48531
1.47731
1.4756
1.47382
1.47118
1.46831
1.46535
1.46178
1.45553
1.44312
1.42862
1.42227
1.41982
1.41765
1.41517
1.4123
1.40902
1.40461
1.3969
1.38774
1.38963
1.4103
1.47719
1.58886
1.70302
1.78823
1.8555
1.90486
1.91696
1.90832
1.89514
1.88208
1.87158
1.86522
1.85912
1.85223
1.84598
1.84093
1.83603
1.82942
1.8195
1.81225
1.80983
1.80788
1.80674
1.80524
1.80225
1.79837
1.79163
1.78114
1.77524
1.77264
1.77011
1.76738
1.7642
1.7598
1.75099
1.73842
1.73276
1.73063
1.72876
1.72875
1.73166
1.73108
1.72795
1.72412
1.71629
1.69867
1.50314
1.4124
1.32962
1.26384
1.17132
1.12863
1.10983
1.07511
1.06859
1.07423
1.06885
1.05859
1.05802
1.06282
1.07288
1.08019
1.08566
1.09562
1.0981
1.09677
1.09639
1.09842
1.10127
1.10203
1.10357
1.10505
1.105
1.10394
1.10214
1.10082
1.10018
1.09986
1.09939
1.09948
1.10013
1.10059
1.10068
1.10058
1.10008
1.09966
1.09957
1.09969
1.09986
1.09983
1.09963
1.09856
1.09869
1.10224
1.16082
1.3658
1.51829
1.56995
1.66561
1.77086
1.96352
2.08735
2.13126
2.12136
2.1057
2.08319
2.06648
2.05767
2.05144
2.04465
2.03441
2.02222
2.0037
1.97908
1.95926
1.94871
1.94214
1.93869
1.93453
1.92685
1.9158
1.89683
1.87226
1.85687
1.85004
1.84434
1.83924
1.83369
1.82698
1.818
1.80329
1.78624
1.77707
1.77239
1.76792
1.76141
1.75091
1.73553
1.72065
1.71057
1.7045
1.70015
1.69618
1.69196
1.68528
1.67347
1.65765
1.64541
1.63751
1.6311
1.62628
1.62269
1.61962
1.61477
1.60521
1.59359
1.58592
1.58061
1.57546
1.56915
1.55953
1.54575
1.5371
1.53394
1.53136
1.52886
1.52626
1.52323
1.51849
1.5086
1.49161
1.47953
1.47551
1.47367
1.47405
1.4722
1.46888
1.46518
1.45964
1.44948
1.43589
1.42756
1.42441
1.42172
1.41889
1.41596
1.41304
1.40922
1.40396
1.40725
1.42987
1.49113
1.56722
1.61566
1.66269
1.72319
1.76846
1.81821
1.84859
1.8716
1.88767
1.88596
1.87858
1.86977
1.86311
1.85686
1.85103
1.84542
1.83968
1.83287
1.82401
1.81618
1.81356
1.81112
1.80904
1.80697
1.804
1.80004
1.79369
1.78431
1.77801
1.77503
1.77218
1.76915
1.76582
1.76144
1.75378
1.74224
1.73516
1.73265
1.73088
1.73061
1.73223
1.73084
1.72738
1.72309
1.71627
1.702
1.53893
1.49801
1.43077
1.3642
1.28777
1.22029
1.17953
1.13569
1.0835
1.07162
1.05982
1.04173
1.0411
1.0449
1.05057
1.05289
1.05543
1.06247
1.06882
1.07113
1.07333
1.07699
1.08153
1.08428
1.08695
1.08956
1.09058
1.09068
1.09042
1.08976
1.08945
1.08936
1.08942
1.09001
1.09014
1.09016
1.0902
1.08991
1.08946
1.08936
1.08947
1.09
1.09058
1.09074
1.0904
1.09123
1.09896
1.15282
1.37681
1.54413
1.60096
1.6033
1.60634
1.61742
1.699
1.91231
2.10448
2.1549
2.13827
2.10125
2.07392
2.06606
2.05778
2.04517
2.03336
2.02421
2.01425
1.9969
1.97434
1.95467
1.9431
1.93552
1.92971
1.92268
1.91415
1.90496
1.89033
1.87253
1.86018
1.85241
1.84455
1.83602
1.82585
1.81439
1.80306
1.79206
1.78257
1.77401
1.76636
1.75898
1.75023
1.74009
1.72945
1.71838
1.70946
1.70436
1.69854
1.69044
1.6799
1.66779
1.65784
1.6502
1.64196
1.63401
1.62805
1.62311
1.6176
1.61085
1.60201
1.59268
1.58516
1.57817
1.5716
1.5654
1.55815
1.55044
1.54198
1.53245
1.52639
1.52355
1.52078
1.51752
1.51293
1.50473
1.49224
1.48332
1.47874
1.4742
1.46998
1.46743
1.46487
1.46154
1.45642
1.44748
1.4353
1.42537
1.4205
1.41727
1.41464
1.41224
1.41162
1.41279
1.42363
1.46089
1.52597
1.59587
1.63525
1.63751
1.64234
1.65477
1.68201
1.72998
1.79981
1.84959
1.88254
1.89092
1.88539
1.87229
1.8609
1.85823
1.85505
1.84883
1.84214
1.83703
1.831
1.82209
1.81427
1.81003
1.80701
1.80441
1.8019
1.79837
1.7934
1.78752
1.78097
1.77457
1.77047
1.76733
1.76415
1.76024
1.75435
1.74636
1.74032
1.73763
1.73627
1.7349
1.73253
1.72916
1.725
1.71994
1.71343
1.70408
1.55627
1.53842
1.49717
1.44274
1.37978
1.31254
1.26476
1.21896
1.1587
1.13195
1.11356
1.0815
1.06332
1.06368
1.05741
1.04792
1.0469
1.0472
1.04587
1.04621
1.04834
1.05419
1.0637
1.07033
1.07396
1.07655
1.07768
1.07878
1.07888
1.07877
1.07935
1.08094
1.08302
1.08366
1.08353
1.0831
1.08221
1.08143
1.08144
1.0817
1.08209
1.08212
1.08224
1.08274
1.08439
1.10476
1.18751
1.34626
1.55617
1.61204
1.62107
1.6195
1.61767
1.60026
1.60024
1.6489
1.83917
2.06931
2.11981
2.10842
2.09868
2.08579
2.06787
2.04893
2.03866
2.0333
2.02568
2.01416
1.99427
1.97051
1.95004
1.93866
1.93118
1.92446
1.9179
1.91179
1.9054
1.89278
1.87478
1.85886
1.84804
1.83764
1.82722
1.81741
1.80863
1.80053
1.79094
1.77782
1.76694
1.76076
1.75595
1.75106
1.74386
1.73418
1.72273
1.70895
1.69697
1.68562
1.6754
1.66789
1.66272
1.6576
1.65114
1.64304
1.63419
1.62524
1.6163
1.60883
1.60292
1.59719
1.59024
1.58211
1.57257
1.56559
1.56251
1.55874
1.55105
1.53971
1.53004
1.52512
1.52187
1.51829
1.51301
1.50504
1.49697
1.49032
1.48324
1.47496
1.46894
1.46579
1.46334
1.46071
1.45666
1.44937
1.43804
1.42772
1.42187
1.41866
1.41687
1.41572
1.42033
1.44588
1.50922
1.572
1.63061
1.64749
1.6503
1.64845
1.64699
1.64631
1.64921
1.66379
1.70736
1.76638
1.82491
1.86899
1.87105
1.86962
1.86806
1.86592
1.86211
1.85593
1.851
1.8469
1.84056
1.82963
1.8202
1.81478
1.81056
1.80669
1.80306
1.79977
1.7966
1.79289
1.78681
1.77963
1.77444
1.77071
1.76674
1.76194
1.75727
1.75358
1.74984
1.74436
1.73801
1.73481
1.73243
1.7291
1.72446
1.71892
1.71476
1.70984
1.567
1.56045
1.53905
1.5023
1.45094
1.3894
1.34162
1.29437
1.23202
1.19558
1.17124
1.13755
1.10449
1.09221
1.07664
1.0551
1.04911
1.04881
1.04454
1.04359
1.0458
1.04935
1.05488
1.06157
1.06485
1.06687
1.06815
1.06944
1.07133
1.07255
1.07342
1.07644
1.07905
1.07934
1.07914
1.07868
1.07841
1.07847
1.07913
1.08032
1.08064
1.08045
1.07993
1.08076
1.10654
1.26389
1.41449
1.53109
1.61262
1.63151
1.629
1.62657
1.62515
1.61692
1.59743
1.59328
1.61603
1.76612
1.97888
2.10594
2.12047
2.105
2.0749
2.05372
2.04514
2.03977
2.03082
2.01954
2.0062
1.98684
1.96396
1.94457
1.93418
1.92682
1.92154
1.91582
1.90906
1.90163
1.88657
1.86514
1.85026
1.84045
1.83197
1.82484
1.81831
1.81012
1.79554
1.77858
1.76935
1.76383
1.75869
1.75357
1.74802
1.74086
1.72849
1.70924
1.69263
1.68409
1.6785
1.67397
1.66915
1.66429
1.65913
1.65348
1.64386
1.62904
1.61662
1.60797
1.60107
1.5956
1.59094
1.58465
1.57621
1.56958
1.56359
1.55794
1.55208
1.54444
1.53596
1.5292
1.52362
1.51858
1.51296
1.50645
1.50032
1.49452
1.48734
1.47863
1.47143
1.46727
1.46377
1.45949
1.45405
1.44728
1.43927
1.4315
1.425
1.42186
1.42253
1.43406
1.47212
1.54947
1.61763
1.65324
1.67293
1.67306
1.66893
1.66116
1.65455
1.64987
1.64687
1.64743
1.65433
1.67696
1.72119
1.78665
1.84767
1.86619
1.87354
1.86863
1.8615
1.85566
1.85305
1.8508
1.8453
1.83593
1.82736
1.8205
1.81497
1.81039
1.80651
1.80311
1.79922
1.79462
1.78961
1.78392
1.77852
1.77391
1.76967
1.76528
1.76215
1.75996
1.75707
1.7523
1.7452
1.73714
1.73226
1.72822
1.72381
1.71922
1.71573
1.71118
1.5751
1.57117
1.5623
1.54167
1.50699
1.45517
1.40695
1.36095
1.30713
1.26699
1.23661
1.19877
1.16175
1.14352
1.12532
1.09606
1.08166
1.07577
1.06393
1.05544
1.05636
1.0568
1.05436
1.05439
1.05521
1.05545
1.05683
1.05992
1.06416
1.06864
1.07159
1.07575
1.07834
1.07867
1.07862
1.07831
1.07814
1.0785
1.07972
1.08099
1.08104
1.08081
1.08206
1.10615
1.28329
1.50105
1.57472
1.61034
1.63044
1.6294
1.62986
1.62672
1.62439
1.62088
1.60909
1.59012
1.58348
1.59237
1.68473
1.89167
2.06075
2.08537
2.07702
2.06441
2.05195
2.04003
2.02883
2.01923
2.00943
1.99653
1.97673
1.95382
1.93802
1.92975
1.92324
1.91755
1.91072
1.90192
1.88908
1.86971
1.85218
1.84347
1.83758
1.83228
1.82605
1.816
1.79835
1.77972
1.77115
1.76557
1.7606
1.75743
1.75282
1.74594
1.73251
1.70976
1.69201
1.68544
1.68199
1.68054
1.67934
1.67446
1.66869
1.65946
1.64375
1.62692
1.61652
1.60965
1.60375
1.59823
1.59307
1.58886
1.58473
1.57766
1.56829
1.56059
1.5546
1.54882
1.54179
1.53199
1.52269
1.51664
1.51243
1.50935
1.50644
1.50202
1.49543
1.48729
1.47857
1.47038
1.46317
1.45662
1.45165
1.44771
1.44295
1.43809
1.43303
1.43512
1.45458
1.51226
1.58075
1.65356
1.68138
1.6851
1.68432
1.68026
1.67197
1.66333
1.65731
1.65382
1.65028
1.64736
1.64574
1.64639
1.65294
1.68116
1.74597
1.81149
1.8471
1.86044
1.86345
1.86354
1.86173
1.85662
1.84907
1.8415
1.83427
1.82715
1.82088
1.81525
1.81023
1.80614
1.80209
1.79793
1.79352
1.78794
1.78129
1.77529
1.7713
1.76885
1.76681
1.76441
1.76158
1.75804
1.75189
1.74176
1.73148
1.72563
1.72209
1.71927
1.71726
1.71374
1.57974
1.57764
1.57312
1.56387
1.54298
1.50673
1.46646
1.41997
1.36873
1.33199
1.29752
1.25798
1.22158
1.19684
1.17219
1.13899
1.11908
1.10808
1.09349
1.07224
1.06893
1.06672
1.06061
1.05921
1.05951
1.05757
1.05653
1.05706
1.05925
1.06456
1.07022
1.07425
1.07694
1.07781
1.07856
1.07933
1.07973
1.08028
1.08175
1.08244
1.08284
1.08719
1.12501
1.27929
1.53771
1.6207
1.63526
1.63746
1.62958
1.62195
1.62237
1.62353
1.62101
1.61922
1.61129
1.59283
1.57708
1.56908
1.57026
1.61669
1.7859
1.97239
2.05341
2.06229
2.04854
2.02753
2.017
2.01135
2.00544
1.99626
1.98333