/*--------------------------------*- C++ -*----------------------------------*\
  =========                 |
  \\      /  F ield         | OpenFOAM: The Open Source CFD Toolbox
   \\    /   O peration     | Website:  https://openfoam.org
    \\  /    A nd           | Version:  7
     \\/     M anipulation  |
\*---------------------------------------------------------------------------*/
FoamFile
{
    version     2.0;
    format      ascii;
    class       volVectorField;
    location    "3.4";
    object      U;
}
// * * * * * * * * * * * * * * * * * * * * * * * * * * * * * * * * * * * * * //

dimensions      [0 1 -1 0 0 0 0];

internalField   nonuniform List<vector> 
18432
(
(3 1.96002e-17 0)
(3 -1.40058e-16 0)
(3 -3.14425e-17 0)
(3 3.32391e-16 0)
(3 2.39859e-16 0)
(3 1.22212e-16 0)
(3 3.91596e-16 0)
(3 -4.90315e-17 0)
(3 -4.29273e-16 0)
(3 -5.51929e-16 0)
(3 -4.00504e-16 0)
(3 6.89135e-17 0)
(3 8.37305e-17 0)
(3 2.82766e-17 0)
(3 1.73439e-16 0)
(3 -4.21398e-16 0)
(3 -8.1999e-16 0)
(3 -3.45621e-16 0)
(3 -8.81954e-17 0)
(3 -6.3453e-16 0)
(3 -1.02693e-15 0)
(3 -2.33047e-16 0)
(3 6.04869e-16 0)
(3 4.69901e-16 0)
(3 6.99407e-17 0)
(3 -4.72463e-16 0)
(3 -5.15195e-16 0)
(3 -4.37152e-16 0)
(3 -5.36755e-16 0)
(3 -7.32875e-16 0)
(3 -9.69162e-16 0)
(3 -1.33861e-15 0)
(3 -1.52009e-15 0)
(3 -1.74159e-15 0)
(3 -1.99892e-15 0)
(3 -8.33525e-16 0)
(3 -2.78048e-16 0)
(3 1.54014e-16 0)
(3 -2.76856e-16 0)
(3 -1.54017e-16 0)
(3 4.08861e-16 0)
(3 1.60067e-15 0)
(3 1.94981e-15 0)
(3 9.10813e-16 0)
(3 3.12743e-16 0)
(3 -1.59537e-16 0)
(3 -3.61758e-16 0)
(3 -2.38322e-16 0)
(3 -3.93143e-18 0)
(3 1.21921e-16 0)
(3 2.75167e-16 0)
(3 1.85401e-16 0)
(3 -4.33607e-16 0)
(3 -7.77429e-16 0)
(3 -3.70571e-16 0)
(3 -6.56428e-16 0)
(3 -7.19021e-16 0)
(3 -5.14748e-16 0)
(3 1.5993e-17 0)
(3 1.70342e-16 0)
(3 -1.4187e-16 0)
(3 -1.30751e-15 0)
(3 -1.28135e-15 0)
(3 -1.77082e-15 0)
(3 -8.19225e-16 0)
(3 -2.93591e-16 0)
(3 3.86896e-16 0)
(3 -1.57897e-16 0)
(3 3.35309e-16 0)
(3 7.39174e-16 0)
(3 6.26975e-16 0)
(3 -6.58616e-16 0)
(3 -1.50775e-15 0)
(3 -1.70455e-15 0)
(3 -1.53015e-15 0)
(3 -1.28246e-15 0)
(3 -2.12759e-15 0)
(3 -2.71042e-15 0)
(3 -2.28545e-15 0)
(3 -1.32363e-15 0)
(3 -1.14423e-15 0)
(3 -1.47124e-15 0)
(3 -1.71517e-15 0)
(3 -2.09125e-16 0)
(3 7.31304e-16 0)
(3 5.66295e-16 0)
(3 -1.76881e-16 0)
(3 -6.99638e-16 0)
(3 -1.41016e-16 0)
(3 1.46213e-15 0)
(3 2.26837e-15 0)
(3 1.47333e-15 0)
(3 -1.1244e-17 0)
(3 -3.05596e-16 0)
(3 -4.17706e-16 0)
(3 -1.46877e-15 0)
(3 -7.37449e-17 0)
(3 4.45889e-16 0)
(3 9.237e-17 0)
(3 -7.70564e-16 0)
(3 -1.52474e-15 0)
(3 -1.09969e-15 0)
(3 -1.2115e-15 0)
(3 -5.07627e-16 0)
(3 2.19835e-16 0)
(3 4.52238e-16 0)
(3 6.19136e-16 0)
(3 7.22806e-16 0)
(3 2.37893e-16 0)
(3 -4.64266e-16 0)
(3 -8.47601e-16 0)
(3 -4.4905e-16 0)
(3 2.10604e-16 0)
(3 2.6554e-16 0)
(3 1.62484e-16 0)
(3 6.26398e-16 0)
(3 1.23735e-15 0)
(3 7.70459e-16 0)
(3 -9.10194e-16 0)
(3 -1.25091e-15 0)
(3 -9.60291e-16 0)
(3 -9.62492e-17 0)
(3 -2.44044e-17 0)
(3 -3.80162e-16 0)
(3 -8.23427e-16 0)
(3 -1.02966e-15 0)
(3 -3.82917e-16 0)
(3 3.84439e-16 0)
(3 1.05047e-15 0)
(3 2.22094e-16 0)
(3 -4.60141e-16 0)
(3 -1.55236e-15 0)
(3 -3.14258e-15 0)
(3 -3.36869e-15 0)
(3 -2.25326e-15 0)
(3 -7.11072e-16 0)
(3 1.8497e-16 0)
(3 7.9246e-16 0)
(3 7.73287e-16 0)
(3 3.76414e-16 0)
(3 -4.41652e-16 0)
(3 -1.14554e-15 0)
(3 -1.1178e-15 0)
(3 -8.0292e-16 0)
(3 -4.58179e-17 0)
(3 -1.89075e-16 0)
(3 -1.96511e-16 0)
(3 1.45324e-16 0)
(3 1.74632e-16 0)
(3 -2.23295e-16 0)
(3 -1.536e-16 0)
(3 6.74802e-17 0)
(3 8.66273e-16 0)
(3 1.45106e-15 0)
(3 1.12256e-15 0)
(3 7.1612e-16 0)
(3 5.70877e-16 0)
(3 8.30443e-16 0)
(3 7.9391e-16 0)
(3 7.02819e-16 0)
(3 9.95621e-16 0)
(3 1.32781e-15 0)
(3 1.87771e-15 0)
(3 9.86151e-16 0)
(3 -1.31855e-16 0)
(3 -5.89727e-16 0)
(3 -1.50259e-15 0)
(3 -1.86044e-15 0)
(3 -2.04604e-15 0)
(3 -1.01915e-15 0)
(3 -6.5029e-16 0)
(3 -1.60167e-16 0)
(3 4.93083e-16 0)
(3 1.82085e-15 0)
(3 2.86569e-15 0)
(3 2.26728e-15 0)
(3 2.60634e-15 0)
(3 2.77093e-15 0)
(3 1.68466e-15 0)
(3 2.79005e-16 0)
(3 -1.07873e-15 0)
(3 -2.43193e-15 0)
(3 -2.81273e-15 0)
(3 -2.78386e-15 0)
(3 -2.03804e-15 0)
(3 -5.82046e-16 0)
(3 -3.52981e-16 0)
(3 -1.09223e-15 0)
(3 -1.99415e-15 0)
(3 -1.97907e-15 0)
(3 -1.09569e-15 0)
(3 -5.41126e-16 0)
(3 3.67942e-16 0)
(3 3.14896e-16 0)
(3 6.52806e-16 0)
(3 1.41181e-15 0)
(3 1.51247e-15 0)
(3 1.09767e-15 0)
(3 1.60444e-15 0)
(3 1.17832e-15 0)
(3 1.60922e-15 0)
(3 2.1566e-15 0)
(3 2.64475e-15 0)
(3 1.53001e-15 0)
(3 1.35166e-15 0)
(3 1.92987e-15 0)
(3 2.23639e-15 0)
(3 1.26859e-15 0)
(3 1.36213e-15 0)
(3 1.31249e-15 0)
(3 1.65719e-15 0)
(3 1.55514e-15 0)
(3 8.17389e-16 0)
(3 1.03475e-15 0)
(3 2.07977e-16 0)
(3 -1.01139e-15 0)
(3 -1.88494e-15 0)
(3 -1.2707e-15 0)
(3 -1.18928e-15 0)
(3 -2.65252e-16 0)
(3 1.30254e-15 0)
(3 2.58898e-15 0)
(3 3.02666e-15 0)
(3 2.60853e-15 0)
(3 3.18068e-15 0)
(3 4.4598e-15 0)
(3 4.12076e-15 0)
(3 2.59271e-15 0)
(3 1.88821e-15 0)
(3 5.78649e-16 0)
(3 -1.86445e-15 0)
(3 -2.48656e-15 0)
(3 -2.84337e-15 0)
(3 -3.23409e-15 0)
(3 -1.43515e-15 0)
(3 -1.31615e-15 0)
(3 -1.20966e-15 0)
(3 -7.6859e-16 0)
(3 -6.44824e-16 0)
(3 -6.96389e-16 0)
(3 6.67797e-17 0)
(3 5.2507e-17 0)
(3 1.44569e-17 0)
(3 7.80868e-16 0)
(3 1.28139e-15 0)
(3 1.25553e-15 0)
(3 6.32752e-16 0)
(3 6.22602e-16 0)
(3 5.47394e-16 0)
(3 8.84762e-16 0)
(3 9.85985e-16 0)
(3 9.39773e-16 0)
(3 1.80416e-15 0)
(3 2.30705e-15 0)
(3 1.69028e-15 0)
(3 5.08829e-16 0)
(3 5.13726e-17 0)
(3 -2.13489e-19 0)
(3 6.44562e-16 0)
(3 1.99007e-15 0)
(3 1.06563e-15 0)
(3 9.01913e-16 0)
(3 7.53513e-16 0)
(3 -1.31214e-15 0)
(3 -1.8846e-15 0)
(3 -1.38874e-15 0)
(3 -2.48284e-16 0)
(3 4.37241e-16 0)
(3 1.56828e-15 0)
(3 1.43709e-15 0)
(3 1.56283e-15 0)
(3 1.47135e-15 0)
(3 1.61566e-15 0)
(3 2.09184e-15 0)
(3 1.88474e-15 0)
(3 1.82601e-15 0)
(3 2.11997e-15 0)
(3 2.67899e-15 0)
(3 1.33012e-15 0)
(3 -7.00504e-16 0)
(3 -1.36723e-15 0)
(3 -1.65051e-15 0)
(3 -1.57375e-15 0)
(3 -8.79101e-16 0)
(3 -5.3631e-16 0)
(3 -1.75558e-15 0)
(3 -2.08944e-15 0)
(3 -1.24654e-15 0)
(3 -2.82063e-17 0)
(3 1.53603e-17 0)
(3 -1.37167e-16 0)
(3 -1.68404e-16 0)
(3 -1.7684e-17 0)
(3 -2.27794e-16 0)
(3 -8.55668e-16 0)
(3 -1.00655e-15 0)
(3 -1.36655e-15 0)
(3 -1.14964e-15 0)
(3 -7.69649e-16 0)
(3 -1.99785e-17 0)
(3 3.46823e-16 0)
(3 8.45802e-17 0)
(3 -6.82042e-17 0)
(3 -1.25723e-15 0)
(3 -1.45243e-15 0)
(3 -8.39055e-16 0)
(3 8.15522e-16 0)
(3 1.13727e-15 0)
(3 -1.5783e-16 0)
(3 -1.49213e-15 0)
(3 -1.34722e-15 0)
(3 -1.50508e-15 0)
(3 -1.29848e-15 0)
(3 -1.16306e-15 0)
(3 -9.15418e-16 0)
(3 -3.27771e-16 0)
(3 -1.40173e-16 0)
(3 2.35158e-16 0)
(3 1.6773e-16 0)
(3 3.08201e-16 0)
(3 3.67428e-16 0)
(3 -9.54362e-17 0)
(3 1.79479e-16 0)
(3 4.5993e-16 0)
(3 5.83379e-16 0)
(3 1.13848e-15 0)
(3 9.81732e-16 0)
(3 9.19775e-16 0)
(3 9.52123e-16 0)
(3 8.72649e-16 0)
(3 3.91021e-16 0)
(3 3.16506e-16 0)
(3 2.08705e-17 0)
(3 -1.33887e-15 0)
(3 -1.7446e-15 0)
(3 -1.79404e-15 0)
(3 2.75893e-17 0)
(3 3.85649e-17 0)
(3 -1.3583e-16 0)
(3 -7.83297e-16 0)
(3 -9.20235e-16 0)
(3 -5.99981e-16 0)
(3 2.31096e-17 0)
(3 -4.35159e-16 0)
(3 -9.91473e-16 0)
(3 -1.03168e-15 0)
(3 -5.88745e-16 0)
(3 -2.19413e-16 0)
(3 -3.75397e-16 0)
(3 -1.02179e-15 0)
(3 -1.34395e-15 0)
(3 -1.33776e-15 0)
(3 -1.53466e-15 0)
(3 -3.29878e-16 0)
(3 7.66216e-17 0)
(3 -1.81815e-16 0)
(3 -3.37062e-16 0)
(3 -5.71369e-16 0)
(3 -5.10875e-16 0)
(3 2.81117e-16 0)
(3 1.15826e-15 0)
(3 1.05064e-15 0)
(3 5.78718e-16 0)
(3 -1.07897e-16 0)
(3 -1.20054e-15 0)
(3 -6.22279e-16 0)
(3 1.41905e-16 0)
(3 8.12915e-16 0)
(3 -3.57582e-17 0)
(3 -4.57966e-16 0)
(3 -1.63246e-16 0)
(3 -5.76924e-16 0)
(3 -4.16797e-16 0)
(3 -3.08195e-16 0)
(3 -3.1827e-16 0)
(3 -4.44789e-16 0)
(3 -3.70537e-16 0)
(3 -3.71314e-16 0)
(3 -1.73373e-16 0)
(3 9.56272e-17 0)
(3 4.31969e-16 0)
(3 7.52768e-16 0)
(3 2.71456e-17 0)
(3 -1.09414e-15 0)
(3 -2.63833e-16 0)
(3 -4.23526e-16 0)
(3 -8.79171e-16 0)
(3 -1.21934e-15 0)
(3 -8.58817e-16 0)
(3 -5.51282e-16 0)
(3 6.09658e-16 0)
(3 5.81991e-16 0)
(3 3.58446e-16 0)
(3 -5.76702e-16 0)
(3 -9.19942e-16 0)
(3 -9.2621e-16 0)
(3 -5.41077e-16 0)
(3 -1.36408e-15 0)
(3 -1.79366e-15 0)
(3 -1.04379e-15 0)
(3 -2.85494e-16 0)
(3 -9.46208e-16 0)
(3 -2.16194e-15 0)
(3 -3.20693e-15 0)
(3 -2.24858e-15 0)
(3 -9.57412e-16 0)
(3 1.56345e-15 0)
(3 3.21749e-15 0)
(3 3.71158e-15 0)
(3 2.77616e-15 0)
(3 1.63259e-15 0)
(3 5.66594e-16 0)
(3 -3.05798e-17 0)
(3 5.52899e-17 0)
(3 3.88461e-16 0)
(3 7.72457e-16 0)
(3 7.90804e-16 0)
(3 6.21895e-16 0)
(3 5.87435e-16 0)
(3 4.80404e-16 0)
(3 3.67707e-16 0)
(3 -2.67413e-17 0)
(3 -3.73994e-16 0)
(3 -1.74239e-15 0)
(3 -2.72973e-15 0)
(3 -2.75599e-15 0)
(3 -1.87589e-15 0)
(3 -3.05418e-16 0)
(3 7.10313e-16 0)
(3 1.3665e-15 0)
(3 1.11939e-15 0)
(3 1.43085e-16 0)
(3 3.44818e-16 0)
(3 4.91561e-16 0)
(3 2.26421e-16 0)
(3 -1.51231e-16 0)
(3 -5.27611e-16 0)
(3 -3.53166e-16 0)
(3 -2.28106e-16 0)
(3 -2.07255e-16 0)
(3 1.0661e-17 0)
(3 2.45009e-17 0)
(3 -2.47553e-16 0)
(3 -7.02507e-16 0)
(3 -1.23431e-15 0)
(3 -1.09711e-15 0)
(3 2.13871e-17 0)
(3 7.99299e-16 0)
(3 8.40967e-16 0)
(3 9.04997e-17 0)
(3 -1.98935e-15 0)
(3 -3.86878e-15 0)
(3 -3.99113e-15 0)
(3 -2.09447e-15 0)
(3 -1.40109e-15 0)
(3 1.2211e-16 0)
(3 2.20944e-15 0)
(3 1.38444e-15 0)
(3 3.64049e-16 0)
(3 1.44224e-16 0)
(3 4.64814e-16 0)
(3 6.25854e-16 0)
(3 4.45244e-17 0)
(3 -3.5089e-16 0)
(3 4.74334e-16 0)
(3 7.33145e-16 0)
(3 2.34667e-16 0)
(3 3.2914e-16 0)
(3 2.56968e-16 0)
(3 1.63515e-16 0)
(3 3.44167e-16 0)
(3 -2.80996e-16 0)
(3 -1.33637e-15 0)
(3 -1.41678e-15 0)
(3 -1.19945e-15 0)
(3 -3.55096e-16 0)
(3 8.51183e-16 0)
(3 1.21368e-15 0)
(3 1.39951e-15 0)
(3 1.99237e-15 0)
(3 1.06453e-17 0)
(3 1.2766e-16 0)
(3 9.89933e-16 0)
(3 1.3878e-15 0)
(3 1.43037e-15 0)
(3 8.24705e-16 0)
(3 -5.12962e-16 0)
(3 -7.89261e-16 0)
(3 -5.6027e-16 0)
(3 2.32924e-16 0)
(3 2.87069e-16 0)
(3 -5.71926e-16 0)
(3 -1.06646e-15 0)
(3 -5.34908e-16 0)
(3 8.67065e-16 0)
(3 2.95189e-15 0)
(3 2.36596e-15 0)
(3 1.29041e-15 0)
(3 -1.52732e-17 0)
(3 -1.86545e-15 0)
(3 -1.51794e-15 0)
(3 -1.05642e-15 0)
(3 -9.90126e-16 0)
(3 -7.08756e-16 0)
(3 -9.1831e-16 0)
(3 -8.94949e-16 0)
(3 -1.08461e-15 0)
(3 -1.08369e-15 0)
(3 -8.34301e-16 0)
(3 -4.88667e-16 0)
(3 -5.57421e-16 0)
(3 -7.59698e-16 0)
(3 -1.61608e-15 0)
(3 -7.99324e-16 0)
(3 -1.272e-15 0)
(3 -1.7182e-15 0)
(3 -9.9705e-16 0)
(3 2.09034e-16 0)
(3 5.77135e-16 0)
(3 5.57743e-16 0)
(3 4.83679e-16 0)
(3 3.78239e-16 0)
(3 2.65964e-16 0)
(3 1.64381e-16 0)
(3 -1.19675e-16 0)
(3 -5.67146e-18 0)
(3 3.59149e-16 0)
(3 1.22655e-15 0)
(3 -4.66153e-17 0)
(3 8.44418e-17 0)
(3 1.54146e-16 0)
(3 3.94805e-16 0)
(3 1.51405e-15 0)
(3 1.67066e-15 0)
(3 -3.96626e-17 0)
(3 -4.30217e-16 0)
(3 -8.98188e-17 0)
(3 -4.09564e-16 0)
(3 -1.08819e-15 0)
(3 -1.85301e-15 0)
(3 -1.69476e-15 0)
(3 -8.39641e-16 0)
(3 2.4307e-16 0)
(3 2.33508e-15 0)
(3 2.12726e-15 0)
(3 1.2377e-15 0)
(3 6.97341e-16 0)
(3 3.03252e-16 0)
(3 -1.72209e-16 0)
(3 -2.43761e-16 0)
(3 -5.39623e-16 0)
(3 -7.84797e-16 0)
(3 -2.65525e-15 0)
(3 -3.07988e-15 0)
(3 -3.79407e-15 0)
(3 -3.14459e-15 0)
(3 -1.85308e-15 0)
(3 -1.2449e-15 0)
(3 -5.99995e-16 0)
(3 6.54699e-16 0)
(3 3.23903e-16 0)
(3 -1.91984e-16 0)
(3 -3.0697e-16 0)
(3 -1.86741e-16 0)
(3 2.516e-17 0)
(3 7.79726e-16 0)
(3 6.77029e-16 0)
(3 3.06664e-16 0)
(3 4.86316e-16 0)
(3 4.97935e-16 0)
(3 1.09288e-15 0)
(3 5.06035e-16 0)
(3 1.21468e-16 0)
(3 1.16261e-16 0)
(3 8.63178e-16 0)
(3 1.31933e-15 0)
(3 -8.4979e-17 0)
(3 -1.99658e-16 0)
(3 -1.03413e-16 0)
(3 4.96926e-17 0)
(3 4.30126e-16 0)
(3 1.05108e-15 0)
(3 6.44961e-16 0)
(3 4.11611e-16 0)
(3 4.55076e-16 0)
(3 -1.22577e-15 0)
(3 -2.43012e-15 0)
(3 -2.03757e-15 0)
(3 -1.40692e-15 0)
(3 9.31129e-17 0)
(3 6.54699e-16 0)
(3 8.99016e-16 0)
(3 -3.38945e-17 0)
(3 -9.35781e-18 0)
(3 -8.42331e-16 0)
(3 -6.24794e-16 0)
(3 -9.42556e-16 0)
(3 -1.20187e-15 0)
(3 -1.75475e-15 0)
(3 -2.05679e-15 0)
(3 -2.56799e-15 0)
(3 -4.13137e-15 0)
(3 -4.48075e-15 0)
(3 -2.97187e-15 0)
(3 -1.16073e-15 0)
(3 2.97023e-16 0)
(3 1.70792e-15 0)
(3 3.12755e-15 0)
(3 3.11325e-15 0)
(3 2.15882e-15 0)
(3 1.50126e-15 0)
(3 3.44774e-16 0)
(3 -6.00824e-16 0)
(3 5.94153e-16 0)
(3 1.27143e-15 0)
(3 1.18719e-15 0)
(3 5.12972e-16 0)
(3 5.30941e-16 0)
(3 6.20969e-16 0)
(3 9.41277e-16 0)
(3 1.04272e-15 0)
(3 1.88167e-15 0)
(3 2.67556e-15 0)
(3 3.89571e-15 0)
(3 -1.88769e-16 0)
(3 -7.53039e-17 0)
(3 5.67967e-17 0)
(3 -2.52145e-16 0)
(3 -3.84417e-16 0)
(3 -4.34865e-16 0)
(3 -2.07017e-16 0)
(3 -2.68504e-16 0)
(3 -1.141e-15 0)
(3 -2.04338e-15 0)
(3 -2.32772e-15 0)
(3 -1.12513e-15 0)
(3 -3.58974e-16 0)
(3 4.43949e-17 0)
(3 -3.61347e-17 0)
(3 -1.34035e-15 0)
(3 -1.45738e-15 0)
(3 -1.55143e-15 0)
(3 -8.95439e-16 0)
(3 -4.34185e-16 0)
(3 -2.09669e-16 0)
(3 -2.04918e-16 0)
(3 -8.05163e-16 0)
(3 -1.24678e-15 0)
(3 -1.80301e-15 0)
(3 -2.03039e-15 0)
(3 -2.24093e-15 0)
(3 -2.31148e-15 0)
(3 -1.2583e-15 0)
(3 2.03046e-15 0)
(3 3.11375e-15 0)
(3 2.7807e-15 0)
(3 2.37267e-15 0)
(3 1.96785e-15 0)
(3 1.8497e-15 0)
(3 1.27301e-15 0)
(3 7.37213e-16 0)
(3 8.4879e-16 0)
(3 1.15617e-15 0)
(3 8.62667e-16 0)
(3 3.97975e-16 0)
(3 -4.58171e-17 0)
(3 -6.4375e-16 0)
(3 -4.12818e-16 0)
(3 1.40109e-16 0)
(3 2.08204e-15 0)
(3 3.75034e-15 0)
(3 4.15705e-15 0)
(3 -3.57026e-17 0)
(3 9.11794e-17 0)
(3 -2.56661e-16 0)
(3 -8.32063e-16 0)
(3 -1.65987e-15 0)
(3 -1.97182e-15 0)
(3 -1.75437e-15 0)
(3 -1.91269e-15 0)
(3 -1.97635e-15 0)
(3 -1.67779e-15 0)
(3 -9.65973e-16 0)
(3 -4.68847e-16 0)
(3 -9.36109e-16 0)
(3 -6.14409e-16 0)
(3 -8.56713e-16 0)
(3 -1.64629e-15 0)
(3 -1.3319e-15 0)
(3 -1.68865e-15 0)
(3 -1.06019e-15 0)
(3 1.10198e-16 0)
(3 1.16136e-15 0)
(3 1.31344e-15 0)
(3 5.9561e-16 0)
(3 -3.2822e-16 0)
(3 -5.79255e-16 0)
(3 -2.03422e-16 0)
(3 -2.80644e-16 0)
(3 -8.54064e-16 0)
(3 -5.63446e-16 0)
(3 -4.96709e-17 0)
(3 -2.47109e-16 0)
(3 -1.29695e-16 0)
(3 4.0689e-16 0)
(3 7.64334e-16 0)
(3 1.29287e-15 0)
(3 1.77858e-15 0)
(3 1.79848e-15 0)
(3 1.82932e-15 0)
(3 6.23248e-16 0)
(3 -1.59009e-16 0)
(3 -4.91282e-16 0)
(3 -1.02228e-15 0)
(3 -9.77007e-16 0)
(3 -6.35975e-16 0)
(3 1.59268e-16 0)
(3 1.79638e-15 0)
(3 2.90094e-15 0)
(3 2.4924e-15 0)
(3 -3.5608e-17 0)
(3 -4.81832e-16 0)
(3 -2.27444e-16 0)
(3 1.48194e-16 0)
(3 -1.76797e-16 0)
(3 -6.36302e-16 0)
(3 -2.02434e-16 0)
(3 1.67146e-16 0)
(3 6.44321e-16 0)
(3 1.16516e-15 0)
(3 1.27634e-15 0)
(3 1.51746e-15 0)
(3 1.17419e-15 0)
(3 1.29241e-15 0)
(3 3.94826e-16 0)
(3 -4.56238e-16 0)
(3 -4.49993e-16 0)
(3 6.67581e-17 0)
(3 2.66383e-16 0)
(3 8.65969e-17 0)
(3 1.33364e-16 0)
(3 -1.59963e-16 0)
(3 -7.20058e-16 0)
(3 -6.6285e-16 0)
(3 -4.24143e-16 0)
(3 4.54081e-16 0)
(3 9.94486e-16 0)
(3 8.04874e-16 0)
(3 5.92901e-16 0)
(3 -1.12289e-15 0)
(3 -1.42001e-15 0)
(3 -9.09011e-16 0)
(3 -3.20769e-16 0)
(3 5.01582e-16 0)
(3 7.63309e-16 0)
(3 2.81966e-16 0)
(3 2.2851e-17 0)
(3 4.56978e-16 0)
(3 6.13323e-16 0)
(3 -2.34839e-16 0)
(3 -4.53166e-16 0)
(3 5.04047e-16 0)
(3 1.01144e-15 0)
(3 1.23733e-15 0)
(3 2.47747e-15 0)
(3 2.67363e-15 0)
(3 2.38827e-15 0)
(3 2.03278e-15 0)
(3 5.38756e-17 0)
(3 1.68366e-16 0)
(3 1.51043e-16 0)
(3 7.45563e-17 0)
(3 -2.04618e-17 0)
(3 1.85073e-16 0)
(3 6.20846e-16 0)
(3 1.48575e-15 0)
(3 2.14688e-15 0)
(3 2.27616e-15 0)
(3 2.33844e-15 0)
(3 2.01031e-15 0)
(3 1.97817e-15 0)
(3 1.76526e-15 0)
(3 5.67879e-16 0)
(3 -8.66744e-17 0)
(3 3.44991e-16 0)
(3 1.50297e-15 0)
(3 2.0475e-15 0)
(3 1.24825e-15 0)
(3 -5.36385e-16 0)
(3 -2.0888e-15 0)
(3 -2.23793e-15 0)
(3 -1.75978e-15 0)
(3 -1.11219e-15 0)
(3 1.39069e-15 0)
(3 3.00035e-15 0)
(3 3.14489e-15 0)
(3 1.63457e-15 0)
(3 7.66626e-16 0)
(3 8.39135e-16 0)
(3 1.76724e-16 0)
(3 1.398e-18 0)
(3 9.95917e-16 0)
(3 1.04925e-15 0)
(3 8.42372e-16 0)
(3 2.46548e-16 0)
(3 -4.84907e-16 0)
(3 -1.71258e-17 0)
(3 8.60173e-17 0)
(3 -1.07633e-17 0)
(3 9.18403e-16 0)
(3 1.48092e-15 0)
(3 2.28735e-15 0)
(3 2.24407e-15 0)
(3 1.92968e-15 0)
(3 1.65745e-15 0)
(3 1.55481e-15 0)
(3 9.69742e-17 0)
(3 6.08816e-17 0)
(3 -2.42016e-16 0)
(3 -5.49411e-16 0)
(3 -1.13176e-15 0)
(3 -7.8549e-16 0)
(3 -1.34913e-16 0)
(3 1.22421e-15 0)
(3 1.58777e-15 0)
(3 1.57023e-15 0)
(3 1.98776e-15 0)
(3 2.18131e-15 0)
(3 1.6358e-15 0)
(3 9.99609e-16 0)
(3 6.76428e-16 0)
(3 4.29405e-16 0)
(3 4.92681e-16 0)
(3 5.61348e-16 0)
(3 8.26288e-16 0)
(3 1.04366e-15 0)
(3 2.76673e-16 0)
(3 -1.60548e-15 0)
(3 -2.24228e-15 0)
(3 -1.95793e-15 0)
(3 -1.074e-15 0)
(3 1.23703e-15 0)
(3 2.21563e-15 0)
(3 2.02528e-15 0)
(3 1.14699e-15 0)
(3 9.43429e-16 0)
(3 9.804e-16 0)
(3 7.85718e-16 0)
(3 -8.95419e-17 0)
(3 1.20984e-16 0)
(3 8.38849e-16 0)
(3 1.32508e-15 0)
(3 3.52871e-16 0)
(3 -1.3946e-15 0)
(3 -2.02644e-15 0)
(3 -1.41555e-15 0)
(3 -9.61164e-16 0)
(3 7.08562e-16 0)
(3 1.56493e-15 0)
(3 1.71003e-15 0)
(3 1.69926e-15 0)
(3 1.4622e-15 0)
(3 8.95445e-16 0)
(3 9.41208e-16 0)
(3 -4.32264e-17 0)
(3 -3.06171e-16 0)
(3 -5.96507e-16 0)
(3 -1.62252e-16 0)
(3 5.31727e-16 0)
(3 2.1568e-16 0)
(3 6.37213e-16 0)
(3 9.70145e-16 0)
(3 1.01274e-15 0)
(3 1.06692e-15 0)
(3 1.33312e-15 0)
(3 1.99234e-15 0)
(3 2.2222e-15 0)
(3 9.49366e-16 0)
(3 -1.60053e-16 0)
(3 -4.14106e-16 0)
(3 -8.38666e-17 0)
(3 5.70868e-17 0)
(3 4.31604e-16 0)
(3 5.10061e-16 0)
(3 4.48937e-16 0)
(3 -4.45014e-16 0)
(3 -3.81868e-16 0)
(3 -8.31023e-17 0)
(3 4.0516e-16 0)
(3 1.60899e-15 0)
(3 2.40168e-15 0)
(3 1.79866e-15 0)
(3 1.02381e-15 0)
(3 9.18111e-16 0)
(3 6.17136e-16 0)
(3 -2.74113e-16 0)
(3 -5.54461e-16 0)
(3 -7.31183e-16 0)
(3 -5.98359e-16 0)
(3 -7.07475e-16 0)
(3 -1.68676e-15 0)
(3 -2.43753e-15 0)
(3 -2.82454e-15 0)
(3 -2.17362e-15 0)
(3 -6.09886e-16 0)
(3 6.64546e-16 0)
(3 1.74596e-15 0)
(3 1.71811e-15 0)
(3 2.34891e-15 0)
(3 2.18443e-15 0)
(3 1.90469e-15 0)
(3 1.22475e-15 0)
(3 -3.62536e-17 0)
(3 9.88728e-18 0)
(3 8.19108e-17 0)
(3 2.75144e-16 0)
(3 7.25677e-16 0)
(3 9.35015e-16 0)
(3 2.5879e-16 0)
(3 -2.45967e-16 0)
(3 -1.05114e-16 0)
(3 -9.5665e-17 0)
(3 -6.24056e-17 0)
(3 3.50454e-16 0)
(3 6.92129e-16 0)
(3 9.87367e-16 0)
(3 -4.02336e-18 0)
(3 -5.20121e-16 0)
(3 -3.28019e-16 0)
(3 1.69148e-15 0)
(3 1.84351e-15 0)
(3 1.6456e-15 0)
(3 2.23797e-15 0)
(3 2.9234e-15 0)
(3 2.23817e-15 0)
(3 1.44922e-15 0)
(3 1.81952e-15 0)
(3 2.36096e-15 0)
(3 2.11652e-15 0)
(3 1.85276e-15 0)
(3 1.04086e-15 0)
(3 3.92483e-16 0)
(3 -1.37831e-15 0)
(3 -2.54381e-15 0)
(3 -1.58832e-15 0)
(3 -1.40519e-15 0)
(3 -2.05319e-15 0)
(3 -2.60296e-15 0)
(3 -2.34384e-15 0)
(3 -1.96038e-15 0)
(3 -7.71015e-16 0)
(3 6.83306e-16 0)
(3 1.0444e-15 0)
(3 1.18731e-15 0)
(3 1.43931e-15 0)
(3 2.35172e-15 0)
(3 2.98125e-15 0)
(3 3.5735e-15 0)
(3 3.4096e-15 0)
(3 1.1717e-15 0)
(3 2.75226e-16 0)
(3 4.12955e-16 0)
(3 4.63037e-16 0)
(3 3.88872e-16 0)
(3 -2.87491e-16 0)
(3 2.82258e-16 0)
(3 3.64829e-17 0)
(3 -2.50108e-16 0)
(3 -5.48719e-16 0)
(3 -4.25678e-16 0)
(3 -2.44488e-16 0)
(3 -1.54728e-17 0)
(3 -3.53093e-17 0)
(3 1.16784e-15 0)
(3 1.83816e-15 0)
(3 1.51803e-15 0)
(3 1.6036e-15 0)
(3 2.50608e-15 0)
(3 2.99008e-15 0)
(3 2.61137e-15 0)
(3 2.85868e-15 0)
(3 2.66804e-15 0)
(3 2.46974e-15 0)
(3 2.03747e-15 0)
(3 8.4624e-16 0)
(3 5.97762e-17 0)
(3 -7.8285e-16 0)
(3 -7.08527e-16 0)
(3 -7.99404e-16 0)
(3 -1.25071e-15 0)
(3 -2.30879e-15 0)
(3 -2.37959e-15 0)
(3 -2.46866e-15 0)
(3 -1.95654e-15 0)
(3 -2.1231e-15 0)
(3 -1.95381e-15 0)
(3 -1.81677e-15 0)
(3 -1.52377e-15 0)
(3 8.86551e-16 0)
(3 2.19166e-15 0)
(3 2.61046e-15 0)
(3 2.5421e-15 0)
(3 2.12958e-15 0)
(3 2.05285e-15 0)
(3 2.19027e-15 0)
(3 2.58579e-15 0)
(3 2.97142e-15 0)
(3 1.36383e-15 0)
(3 1.95885e-16 0)
(3 2.63693e-16 0)
(3 -5.76958e-17 0)
(3 -3.3459e-17 0)
(3 8.90335e-17 0)
(3 1.24027e-15 0)
(3 1.63082e-15 0)
(3 9.11241e-16 0)
(3 3.95218e-16 0)
(3 3.10877e-16 0)
(3 -7.26937e-17 0)
(3 -3.6803e-16 0)
(3 -1.28646e-16 0)
(3 6.82148e-17 0)
(3 9.49349e-16 0)
(3 2.17517e-15 0)
(3 2.22495e-15 0)
(3 1.91174e-15 0)
(3 2.52691e-15 0)
(3 2.05026e-15 0)
(3 1.99243e-15 0)
(3 1.49534e-15 0)
(3 1.42013e-15 0)
(3 1.13867e-15 0)
(3 1.01215e-17 0)
(3 -1.01628e-15 0)
(3 -9.93062e-17 0)
(3 -1.13111e-15 0)
(3 -1.94385e-15 0)
(3 -2.07397e-15 0)
(3 -2.04592e-15 0)
(3 -1.91883e-15 0)
(3 -2.04758e-15 0)
(3 -2.06064e-15 0)
(3 -1.38654e-15 0)
(3 -1.02443e-15 0)
(3 -1.59392e-15 0)
(3 -1.59432e-15 0)
(3 4.92213e-16 0)
(3 2.65465e-15 0)
(3 3.04833e-15 0)
(3 2.72501e-15 0)
(3 2.48748e-15 0)
(3 3.06745e-15 0)
(3 3.61559e-15 0)
(3 3.42727e-15 0)
(3 1.70521e-15 0)
(3 3.80031e-16 0)
(3 -2.09967e-16 0)
(3 -1.7222e-16 0)
(3 1.49756e-16 0)
(3 5.47416e-16 0)
(3 1.07446e-15 0)
(3 8.16801e-16 0)
(3 3.88548e-16 0)
(3 8.08532e-17 0)
(3 2.35938e-16 0)
(3 4.3739e-17 0)
(3 -7.66367e-17 0)
(3 -9.98371e-17 0)
(3 -1.92706e-16 0)
(3 2.06454e-16 0)
(3 1.17093e-15 0)
(3 1.9113e-15 0)
(3 2.0956e-15 0)
(3 2.08639e-15 0)
(3 1.39507e-15 0)
(3 8.89438e-16 0)
(3 1.14698e-16 0)
(3 -2.22181e-16 0)
(3 -2.08956e-16 0)
(3 -8.44482e-17 0)
(3 -5.02688e-16 0)
(3 -1.04517e-15 0)
(3 5.26137e-16 0)
(3 1.16323e-15 0)
(3 2.4375e-16 0)
(3 -1.4272e-16 0)
(3 -4.48775e-16 0)
(3 -7.42055e-16 0)
(3 -1.25988e-15 0)
(3 -1.84835e-15 0)
(3 -1.7781e-15 0)
(3 -1.59928e-15 0)
(3 2.6227e-16 0)
(3 1.83841e-15 0)
(3 2.70621e-15 0)
(3 4.32566e-15 0)
(3 3.47471e-15 0)
(3 2.77711e-15 0)
(3 2.78106e-15 0)
(3 2.92599e-15 0)
(3 2.99361e-15 0)
(3 3.0641e-15 0)
(3 1.21015e-15 0)
(3 1.28838e-16 0)
(3 -1.66825e-16 0)
(3 -3.17246e-16 0)
(3 -2.54333e-17 0)
(3 2.81821e-16 0)
(3 -1.56721e-16 0)
(3 -1.22689e-15 0)
(3 -1.80729e-15 0)
(3 -1.23443e-15 0)
(3 -1.15499e-16 0)
(3 5.93914e-16 0)
(3 5.37337e-16 0)
(3 3.14055e-16 0)
(3 -7.91555e-16 0)
(3 -6.65578e-16 0)
(3 5.27396e-16 0)
(3 1.3081e-15 0)
(3 1.03567e-15 0)
(3 4.56667e-16 0)
(3 -4.62503e-19 0)
(3 -2.99538e-16 0)
(3 -1.00782e-15 0)
(3 -1.33364e-15 0)
(3 -1.36999e-15 0)
(3 -7.84137e-16 0)
(3 3.56677e-16 0)
(3 8.25134e-16 0)
(3 1.36905e-15 0)
(3 1.78727e-15 0)
(3 1.70084e-15 0)
(3 6.15787e-16 0)
(3 -2.34225e-16 0)
(3 -3.50488e-16 0)
(3 -1.33064e-15 0)
(3 -1.23469e-15 0)
(3 -1.13486e-15 0)
(3 1.97398e-17 0)
(3 1.13519e-15 0)
(3 2.15751e-15 0)
(3 2.76571e-15 0)
(3 2.10771e-15 0)
(3 2.10009e-15 0)
(3 2.2393e-15 0)
(3 1.86994e-15 0)
(3 1.0597e-15 0)
(3 9.35908e-16 0)
(3 1.97003e-15 0)
(3 1.11436e-15 0)
(3 -2.21863e-16 0)
(3 1.56557e-16 0)
(3 2.21183e-16 0)
(3 -5.98443e-17 0)
(3 -4.46485e-16 0)
(3 -1.01765e-15 0)
(3 -9.02538e-16 0)
(3 -4.63093e-17 0)
(3 1.93671e-17 0)
(3 3.27927e-16 0)
(3 7.22861e-16 0)
(3 5.49845e-16 0)
(3 -1.72821e-16 0)
(3 -3.32134e-16 0)
(3 -3.67722e-16 0)
(3 2.79647e-16 0)
(3 6.92784e-16 0)
(3 8.74981e-17 0)
(3 -1.7597e-15 0)
(3 -2.04466e-15 0)
(3 2.13323e-16 0)
(3 7.1685e-16 0)
(3 8.52606e-16 0)
(3 8.8832e-17 0)
(3 -4.27358e-16 0)
(3 3.0781e-16 0)
(3 1.44806e-15 0)
(3 1.57483e-15 0)
(3 8.96076e-16 0)
(3 7.37153e-16 0)
(3 -9.20602e-17 0)
(3 -7.18029e-16 0)
(3 -6.93208e-16 0)
(3 -9.58394e-16 0)
(3 -8.77718e-16 0)
(3 -7.50685e-16 0)
(3 -1.02299e-15 0)
(3 -1.34706e-15 0)
(3 -6.79081e-16 0)
(3 -1.80219e-16 0)
(3 -5.29474e-16 0)
(3 -2.45879e-16 0)
(3 3.37868e-16 0)
(3 5.40667e-16 0)
(3 5.1226e-16 0)
(3 -5.08979e-16 0)
(3 -8.1201e-16 0)
(3 -2.29416e-16 0)
(3 -4.90772e-16 0)
(3 2.7908e-16 0)
(3 8.66215e-16 0)
(3 1.10425e-15 0)
(3 9.9814e-16 0)
(3 8.86058e-16 0)
(3 4.20422e-16 0)
(3 8.3997e-17 0)
(3 4.38721e-16 0)
(3 6.85633e-16 0)
(3 7.33311e-17 0)
(3 1.10823e-16 0)
(3 3.52307e-16 0)
(3 3.02396e-16 0)
(3 2.78677e-16 0)
(3 -8.38222e-17 0)
(3 -1.13671e-16 0)
(3 -1.96721e-16 0)
(3 -1.77318e-15 0)
(3 -2.47534e-15 0)
(3 -1.60061e-15 0)
(3 -3.25906e-16 0)
(3 9.10254e-16 0)
(3 1.68499e-15 0)
(3 -3.09164e-18 0)
(3 -3.94002e-16 0)
(3 1.22633e-17 0)
(3 5.11123e-16 0)
(3 9.84511e-16 0)
(3 1.23467e-15 0)
(3 1.56863e-15 0)
(3 1.73515e-15 0)
(3 1.38139e-15 0)
(3 9.46389e-16 0)
(3 8.47507e-17 0)
(3 -5.77821e-17 0)
(3 -2.54463e-17 0)
(3 1.74032e-16 0)
(3 3.60615e-16 0)
(3 -1.36086e-15 0)
(3 -2.63748e-15 0)
(3 -2.60033e-15 0)
(3 -1.54811e-15 0)
(3 -4.63194e-16 0)
(3 -5.02035e-16 0)
(3 -1.77402e-15 0)
(3 -2.00557e-15 0)
(3 7.11889e-16 0)
(3 1.523e-15 0)
(3 6.11173e-17 0)
(3 1.89185e-16 0)
(3 8.44654e-16 0)
(3 1.46226e-15 0)
(3 2.31842e-15 0)
(3 1.81328e-15 0)
(3 2.21423e-16 0)
(3 1.80211e-16 0)
(3 2.77501e-16 0)
(3 7.67489e-16 0)
(3 6.46947e-16 0)
(3 6.16539e-16 0)
(3 2.43033e-16 0)
(3 -6.11882e-17 0)
(3 -2.82936e-16 0)
(3 -6.76012e-17 0)
(3 6.62321e-19 0)
(3 -1.86052e-16 0)
(3 -1.36246e-15 0)
(3 -2.42445e-15 0)
(3 -2.29141e-15 0)
(3 -6.28716e-16 0)
(3 1.44364e-15 0)
(3 1.73296e-15 0)
(3 1.12303e-15 0)
(3 6.03378e-16 0)
(3 1.20751e-15 0)
(3 2.26258e-15 0)
(3 2.26003e-15 0)
(3 1.9276e-15 0)
(3 1.16786e-15 0)
(3 1.75725e-15 0)
(3 2.79881e-15 0)
(3 2.67174e-15 0)
(3 1.89244e-15 0)
(3 2.02989e-15 0)
(3 1.97438e-15 0)
(3 1.28062e-15 0)
(3 -1.09644e-16 0)
(3 -1.41309e-15 0)
(3 -2.4703e-15 0)
(3 -2.53345e-15 0)
(3 -2.74613e-15 0)
(3 -2.16968e-15 0)
(3 -1.8445e-15 0)
(3 -1.67439e-15 0)
(3 -7.07319e-16 0)
(3 -4.38458e-17 0)
(3 -3.06918e-17 0)
(3 -2.60736e-16 0)
(3 -2.21643e-16 0)
(3 2.15305e-17 0)
(3 7.25316e-16 0)
(3 1.59147e-15 0)
(3 1.69674e-15 0)
(3 1.38316e-16 0)
(3 -5.29678e-16 0)
(3 -5.72925e-16 0)
(3 -4.09019e-16 0)
(3 -4.08263e-16 0)
(3 -5.09081e-16 0)
(3 -4.37408e-16 0)
(3 -7.49413e-16 0)
(3 -5.9251e-16 0)
(3 -3.17173e-16 0)
(3 -2.41047e-16 0)
(3 -5.83064e-16 0)
(3 -1.14366e-15 0)
(3 -1.12727e-15 0)
(3 -1.15034e-15 0)
(3 -1.13212e-16 0)
(3 1.2646e-15 0)
(3 1.54993e-15 0)
(3 1.73621e-15 0)
(3 2.58704e-15 0)
(3 3.00738e-15 0)
(3 2.94608e-15 0)
(3 2.58538e-15 0)
(3 1.70531e-15 0)
(3 1.50927e-15 0)
(3 2.24008e-15 0)
(3 2.90161e-15 0)
(3 3.10938e-15 0)
(3 2.596e-15 0)
(3 2.12317e-15 0)
(3 1.2664e-15 0)
(3 1.85126e-16 0)
(3 -1.14296e-15 0)
(3 -2.30325e-15 0)
(3 -3.31627e-15 0)
(3 -4.15836e-15 0)
(3 -2.96142e-15 0)
(3 -1.77244e-15 0)
(3 -2.5497e-15 0)
(3 -3.15084e-15 0)
(3 -2.70792e-15 0)
(3 -4.14192e-17 0)
(3 -3.57258e-16 0)
(3 -6.85484e-16 0)
(3 -1.27722e-15 0)
(3 -1.62924e-15 0)
(3 -9.89582e-16 0)
(3 -6.68679e-16 0)
(3 -8.22338e-16 0)
(3 -3.48937e-16 0)
(3 -5.04976e-16 0)
(3 -8.1118e-16 0)
(3 -1.24235e-15 0)
(3 -1.84197e-15 0)
(3 -2.10601e-15 0)
(3 -2.15861e-15 0)
(3 -2.21731e-15 0)
(3 -2.16794e-15 0)
(3 -1.66259e-15 0)
(3 -9.37806e-16 0)
(3 -4.37438e-16 0)
(3 -5.71143e-16 0)
(3 -7.07724e-16 0)
(3 3.67351e-17 0)
(3 8.90938e-16 0)
(3 6.73849e-16 0)
(3 6.10237e-16 0)
(3 1.32076e-15 0)
(3 1.42339e-15 0)
(3 1.7493e-15 0)
(3 2.9853e-15 0)
(3 3.82264e-15 0)
(3 3.09631e-15 0)
(3 2.44078e-15 0)
(3 2.66681e-15 0)
(3 3.14349e-15 0)
(3 2.83497e-15 0)
(3 2.15138e-15 0)
(3 8.42684e-16 0)
(3 -4.38925e-16 0)
(3 -1.38399e-15 0)
(3 -1.49703e-15 0)
(3 -1.23356e-15 0)
(3 -1.33633e-15 0)
(3 -1.81011e-15 0)
(3 -1.12323e-15 0)
(3 -2.34114e-15 0)
(3 -4.27061e-15 0)
(3 -3.90084e-15 0)
(3 1.50478e-16 0)
(3 -6.57881e-17 0)
(3 -3.78358e-16 0)
(3 -5.17008e-16 0)
(3 -1.77362e-15 0)
(3 -2.0294e-15 0)
(3 -1.47209e-15 0)
(3 -8.52511e-16 0)
(3 1.95829e-16 0)
(3 5.05898e-16 0)
(3 6.0963e-16 0)
(3 3.95734e-17 0)
(3 -8.71439e-16 0)
(3 -2.37978e-15 0)
(3 -3.45082e-15 0)
(3 -3.81338e-15 0)
(3 -3.35926e-15 0)
(3 -2.13208e-15 0)
(3 -5.4947e-16 0)
(3 1.06098e-15 0)
(3 1.36171e-15 0)
(3 1.85009e-15 0)
(3 2.13066e-15 0)
(3 1.94992e-15 0)
(3 1.50867e-15 0)
(3 9.83048e-16 0)
(3 1.7072e-16 0)
(3 -3.34393e-16 0)
(3 -7.88531e-16 0)
(3 1.53803e-15 0)
(3 2.61199e-15 0)
(3 2.97715e-15 0)
(3 2.1771e-15 0)
(3 2.24955e-15 0)
(3 2.48172e-15 0)
(3 1.60601e-15 0)
(3 1.37336e-15 0)
(3 1.8768e-15 0)
(3 1.48524e-15 0)
(3 -2.26492e-16 0)
(3 5.49124e-16 0)
(3 1.60101e-15 0)
(3 1.65045e-15 0)
(3 8.10977e-16 0)
(3 -1.82981e-16 0)
(3 -2.02453e-15 0)
(3 -4.24666e-15 0)
(3 -3.89803e-15 0)
(3 1.03445e-16 0)
(3 1.92664e-16 0)
(3 1.81111e-17 0)
(3 -2.39241e-16 0)
(3 -2.86906e-16 0)
(3 -6.52547e-16 0)
(3 -5.51399e-16 0)
(3 -2.63365e-16 0)
(3 -4.1419e-16 0)
(3 -6.02663e-16 0)
(3 -8.38098e-17 0)
(3 4.50044e-16 0)
(3 1.04496e-16 0)
(3 -1.10959e-15 0)
(3 -2.63563e-15 0)
(3 -3.65875e-15 0)
(3 -3.30569e-15 0)
(3 -1.18459e-15 0)
(3 -8.82884e-17 0)
(3 5.96413e-16 0)
(3 1.04443e-15 0)
(3 1.23009e-15 0)
(3 1.32165e-15 0)
(3 1.61599e-15 0)
(3 1.88368e-15 0)
(3 1.93261e-15 0)
(3 4.89756e-16 0)
(3 -2.56256e-16 0)
(3 -8.80925e-16 0)
(3 -8.01819e-16 0)
(3 -6.53434e-17 0)
(3 6.37223e-17 0)
(3 -2.02996e-16 0)
(3 -6.47197e-17 0)
(3 -6.67767e-17 0)
(3 1.05753e-16 0)
(3 3.42921e-16 0)
(3 1.11985e-15 0)
(3 1.17459e-15 0)
(3 1.00667e-15 0)
(3 1.04808e-15 0)
(3 2.11529e-15 0)
(3 3.28154e-15 0)
(3 3.00059e-15 0)
(3 7.07922e-16 0)
(3 -1.41921e-15 0)
(3 -1.98156e-15 0)
(3 -1.1926e-15 0)
(3 -3.58269e-16 0)
(3 -3.04935e-16 0)
(3 4.64836e-17 0)
(3 5.85819e-17 0)
(3 7.73144e-16 0)
(3 1.76188e-16 0)
(3 -1.06952e-17 0)
(3 1.88318e-17 0)
(3 -5.99483e-16 0)
(3 -1.51384e-15 0)
(3 -1.19383e-15 0)
(3 4.56617e-17 0)
(3 -1.54023e-17 0)
(3 -5.0073e-16 0)
(3 -1.48963e-15 0)
(3 -3.25449e-15 0)
(3 -3.75513e-15 0)
(3 -2.08746e-15 0)
(3 -9.0328e-16 0)
(3 -5.67136e-16 0)
(3 -9.6844e-17 0)
(3 2.77277e-17 0)
(3 6.18278e-16 0)
(3 1.30428e-15 0)
(3 1.37013e-15 0)
(3 6.52618e-16 0)
(3 -1.36626e-16 0)
(3 -1.10088e-15 0)
(3 -2.29407e-15 0)
(3 -2.66394e-15 0)
(3 -1.99356e-15 0)
(3 -1.26642e-15 0)
(3 -9.15285e-16 0)
(3 -1.39835e-15 0)
(3 -1.6711e-15 0)
(3 -8.21325e-16 0)
(3 7.46464e-16 0)
(3 4.72127e-16 0)
(3 7.98349e-16 0)
(3 1.98598e-15 0)
(3 2.40259e-15 0)
(3 2.19648e-15 0)
(3 1.80442e-15 0)
(3 2.56727e-15 0)
(3 1.11948e-15 0)
(3 2.81073e-16 0)
(3 3.33561e-16 0)
(3 9.63723e-16 0)
(3 -3.43796e-16 0)
(3 -3.03464e-16 0)
(3 -3.98604e-16 0)
(3 -2.96632e-16 0)
(3 1.30276e-16 0)
(3 9.26324e-16 0)
(3 1.02683e-15 0)
(3 1.09445e-15 0)
(3 7.59584e-16 0)
(3 4.43203e-16 0)
(3 9.23524e-17 0)
(3 -6.76767e-16 0)
(3 -4.73828e-16 0)
(3 -4.58874e-16 0)
(3 -6.79905e-16 0)
(3 -1.60922e-15 0)
(3 -2.62552e-15 0)
(3 -3.41026e-15 0)
(3 -3.15218e-15 0)
(3 -1.36438e-15 0)
(3 -6.43124e-16 0)
(3 -7.61154e-16 0)
(3 -3.3021e-17 0)
(3 9.44527e-16 0)
(3 1.01389e-15 0)
(3 8.19905e-16 0)
(3 -1.43663e-15 0)
(3 -2.80034e-15 0)
(3 -3.21485e-15 0)
(3 -3.2199e-15 0)
(3 -2.79108e-15 0)
(3 -1.28178e-15 0)
(3 -2.20937e-16 0)
(3 -2.59036e-16 0)
(3 -7.40593e-16 0)
(3 -1.1786e-15 0)
(3 -1.30286e-15 0)
(3 -5.86029e-16 0)
(3 -1.98774e-16 0)
(3 1.04642e-15 0)
(3 1.29776e-15 0)
(3 1.26546e-15 0)
(3 7.8672e-16 0)
(3 -1.44254e-16 0)
(3 1.18012e-17 0)
(3 1.53696e-15 0)
(3 2.71879e-15 0)
(3 2.70394e-15 0)
(3 -9.57957e-17 0)
(3 4.4e-17 0)
(3 -1.9262e-16 0)
(3 -4.28759e-17 0)
(3 5.66599e-17 0)
(3 5.03869e-16 0)
(3 6.98283e-16 0)
(3 7.25461e-16 0)
(3 1.42401e-15 0)
(3 1.38331e-15 0)