/*--------------------------------*- C++ -*----------------------------------*\
  =========                 |
  \\      /  F ield         | OpenFOAM: The Open Source CFD Toolbox
   \\    /   O peration     | Website:  https://openfoam.org
    \\  /    A nd           | Version:  7
     \\/     M anipulation  |
\*---------------------------------------------------------------------------*/
FoamFile
{
    version     2.0;
    format      ascii;
    class       volVectorField;
    location    "1.4";
    object      U;
}
// * * * * * * * * * * * * * * * * * * * * * * * * * * * * * * * * * * * * * //

dimensions      [0 1 -1 0 0 0 0];

internalField   nonuniform List<vector> 
73728
(
(3 -1.2853e-17 0)
(3 2.76384e-17 0)
(3 7.3114e-17 0)
(3 9.89414e-17 0)
(3 1.79988e-16 0)
(3 4.03823e-16 0)
(3 7.75169e-16 0)
(3 6.9575e-16 0)
(3 5.09869e-16 0)
(3 3.66896e-16 0)
(3 4.93628e-16 0)
(3 7.85374e-16 0)
(3 8.94995e-17 0)
(3 -7.89832e-16 0)
(3 -1.23211e-15 0)
(3 -1.66479e-15 0)
(3 -1.50014e-15 0)
(3 -1.41694e-15 0)
(3 -4.83798e-16 0)
(3 2.27732e-16 0)
(3 3.45385e-16 0)
(3 5.48301e-16 0)
(3 4.32914e-16 0)
(3 3.61359e-16 0)
(3 2.61909e-16 0)
(3 6.89918e-16 0)
(3 7.89438e-16 0)
(3 6.90515e-16 0)
(3 5.91687e-16 0)
(3 1.0456e-16 0)
(3 3.36401e-17 0)
(3 3.72654e-16 0)
(3 1.12668e-15 0)
(3 1.4342e-15 0)
(3 1.85476e-15 0)
(3 1.8616e-15 0)
(3 1.23398e-15 0)
(3 7.43976e-16 0)
(3 1.03006e-15 0)
(3 1.23959e-15 0)
(3 1.3099e-15 0)
(3 8.52186e-16 0)
(3 -2.50332e-16 0)
(3 -9.07746e-16 0)
(3 -1.438e-15 0)
(3 -3.7357e-16 0)
(3 9.02342e-16 0)
(3 1.05813e-15 0)
(3 9.8926e-16 0)
(3 1.20338e-15 0)
(3 2.3644e-15 0)
(3 3.07927e-15 0)
(3 1.3707e-15 0)
(3 1.6792e-16 0)
(3 -6.27623e-16 0)
(3 -7.34689e-16 0)
(3 -2.45453e-16 0)
(3 3.02476e-16 0)
(3 3.38498e-16 0)
(3 9.56008e-16 0)
(3 8.91222e-16 0)
(3 1.22311e-15 0)
(3 1.20609e-15 0)
(3 5.28663e-16 0)
(3 2.14375e-16 0)
(3 -5.32401e-17 0)
(3 -3.25113e-17 0)
(3 3.51246e-16 0)
(3 1.84774e-15 0)
(3 2.43478e-15 0)
(3 2.45595e-15 0)
(3 2.81319e-15 0)
(3 1.52111e-15 0)
(3 9.58709e-16 0)
(3 1.25757e-15 0)
(3 1.60128e-15 0)
(3 1.64425e-15 0)
(3 1.4479e-15 0)
(3 9.9956e-16 0)
(3 8.10899e-16 0)
(3 -1.35717e-16 0)
(3 -6.07101e-16 0)
(3 -1.25287e-15 0)
(3 -1.59058e-15 0)
(3 -1.47146e-15 0)
(3 -9.65985e-16 0)
(3 -5.37783e-16 0)
(3 -4.68091e-16 0)
(3 -6.70712e-16 0)
(3 -1.19891e-15 0)
(3 -1.19239e-15 0)
(3 -8.26439e-16 0)
(3 -5.70739e-16 0)
(3 -5.71928e-16 0)
(3 -8.00049e-16 0)
(3 -1.16994e-15 0)
(3 9.20083e-17 0)
(3 -1.02642e-16 0)
(3 -7.00562e-17 0)
(3 2.2135e-16 0)
(3 2.80975e-16 0)
(3 -1.71473e-16 0)
(3 1.83058e-16 0)
(3 2.86873e-16 0)
(3 5.50214e-16 0)
(3 6.59424e-16 0)
(3 4.12983e-16 0)
(3 3.12494e-16 0)
(3 1.03377e-16 0)
(3 -8.68405e-16 0)
(3 -1.11662e-15 0)
(3 -1.24273e-15 0)
(3 -1.14372e-15 0)
(3 -6.71118e-16 0)
(3 1.64101e-16 0)
(3 8.7527e-16 0)
(3 9.47043e-16 0)
(3 5.90681e-16 0)
(3 5.36653e-16 0)
(3 8.11046e-16 0)
(3 8.79348e-16 0)
(3 3.25079e-16 0)
(3 2.24515e-16 0)
(3 4.1525e-16 0)
(3 1.58186e-16 0)
(3 -8.76753e-17 0)
(3 2.48605e-16 0)
(3 5.16877e-16 0)
(3 9.19385e-16 0)
(3 6.71198e-16 0)
(3 7.37534e-16 0)
(3 8.75178e-16 0)
(3 1.09784e-15 0)
(3 8.20676e-16 0)
(3 1.11108e-15 0)
(3 1.31366e-15 0)
(3 1.49687e-15 0)
(3 1.24149e-16 0)
(3 -1.43244e-15 0)
(3 -1.64874e-15 0)
(3 -1.41137e-15 0)
(3 -1.79169e-16 0)
(3 6.86036e-16 0)
(3 8.54244e-16 0)
(3 8.22934e-16 0)
(3 2.03607e-15 0)
(3 2.85861e-15 0)
(3 3.29319e-15 0)
(3 2.13302e-15 0)
(3 -3.15659e-16 0)
(3 -1.10755e-15 0)
(3 -8.33628e-16 0)
(3 -3.47189e-17 0)
(3 9.54489e-16 0)
(3 1.53448e-15 0)
(3 1.43868e-15 0)
(3 1.08202e-15 0)
(3 1.47263e-15 0)
(3 1.83717e-15 0)
(3 1.21383e-15 0)
(3 4.70735e-16 0)
(3 1.85365e-16 0)
(3 -8.89663e-17 0)
(3 1.0321e-15 0)
(3 1.43716e-15 0)
(3 2.0999e-15 0)
(3 2.93039e-15 0)
(3 3.37399e-15 0)
(3 2.19598e-15 0)
(3 6.31177e-16 0)
(3 4.46441e-16 0)
(3 4.55922e-16 0)
(3 7.20822e-16 0)
(3 4.34113e-16 0)
(3 -1.90503e-16 0)
(3 -4.59239e-16 0)
(3 -6.34723e-16 0)
(3 -8.47999e-16 0)
(3 -1.38741e-15 0)
(3 -1.29515e-15 0)
(3 -8.04198e-16 0)
(3 1.69836e-16 0)
(3 2.63135e-16 0)
(3 1.63607e-16 0)
(3 -4.40428e-16 0)
(3 -1.67805e-15 0)
(3 -1.49371e-15 0)
(3 -7.78252e-16 0)
(3 -5.706e-16 0)
(3 -4.99988e-16 0)
(3 -7.08577e-16 0)
(3 -1.70546e-15 0)
(3 1.5193e-16 0)
(3 1.12089e-16 0)
(3 2.57939e-16 0)
(3 2.48238e-16 0)
(3 -5.20872e-16 0)
(3 -1.14902e-15 0)
(3 -1.15341e-15 0)
(3 -6.2482e-17 0)
(3 3.29166e-16 0)
(3 3.91367e-16 0)
(3 3.54083e-16 0)
(3 -1.28528e-16 0)
(3 -2.28997e-16 0)
(3 -2.44908e-16 0)
(3 -3.77131e-16 0)
(3 -3.27125e-16 0)
(3 3.58684e-16 0)
(3 8.61097e-16 0)
(3 8.14536e-16 0)
(3 8.07834e-16 0)
(3 9.07098e-16 0)
(3 7.03845e-16 0)
(3 6.66493e-16 0)
(3 8.03884e-16 0)
(3 2.718e-16 0)
(3 -3.55345e-16 0)
(3 1.13692e-16 0)
(3 7.01162e-16 0)
(3 6.7141e-16 0)
(3 6.64305e-16 0)
(3 1.20389e-15 0)
(3 9.88037e-16 0)
(3 4.98566e-16 0)
(3 2.81188e-16 0)
(3 -6.40648e-17 0)
(3 -1.93725e-16 0)
(3 1.91696e-16 0)
(3 6.13789e-16 0)
(3 6.99648e-16 0)
(3 1.11631e-15 0)
(3 1.3548e-15 0)
(3 7.25192e-16 0)
(3 1.71845e-16 0)
(3 -2.21415e-16 0)
(3 -1.06991e-15 0)
(3 -1.57825e-15 0)
(3 -1.48874e-15 0)
(3 -4.06297e-16 0)
(3 8.2099e-16 0)
(3 1.66343e-15 0)
(3 1.88688e-15 0)
(3 2.58897e-15 0)
(3 2.22192e-15 0)
(3 1.37772e-15 0)
(3 9.88563e-16 0)
(3 3.09583e-16 0)
(3 -3.298e-16 0)
(3 -5.80628e-16 0)
(3 -8.96378e-16 0)
(3 -6.08484e-16 0)
(3 -1.50043e-17 0)
(3 5.51985e-16 0)
(3 5.63629e-16 0)
(3 5.20588e-16 0)
(3 2.3272e-15 0)
(3 3.86108e-15 0)
(3 3.53352e-15 0)
(3 2.71328e-15 0)
(3 1.99052e-15 0)
(3 2.18932e-15 0)
(3 2.90655e-15 0)
(3 2.81306e-15 0)
(3 2.8118e-15 0)
(3 2.64325e-15 0)
(3 1.56019e-15 0)
(3 7.11048e-16 0)
(3 8.06806e-16 0)
(3 1.22648e-16 0)
(3 -7.34925e-16 0)
(3 -1.10048e-15 0)
(3 -7.86733e-16 0)
(3 -4.74029e-16 0)
(3 -5.12615e-16 0)
(3 -4.23587e-16 0)
(3 -6.65297e-16 0)
(3 -1.59686e-16 0)
(3 3.9296e-16 0)
(3 7.97116e-16 0)
(3 2.36346e-16 0)
(3 -6.67371e-16 0)
(3 -4.58141e-16 0)
(3 -7.537e-17 0)
(3 -1.29292e-16 0)
(3 -3.24127e-16 0)
(3 -6.20491e-16 0)
(3 -9.66165e-16 0)
(3 -6.61091e-17 0)
(3 4.22269e-16 0)
(3 6.29535e-16 0)
(3 2.44998e-16 0)
(3 -4.95016e-16 0)
(3 -2.05001e-16 0)
(3 6.69465e-16 0)
(3 6.46961e-16 0)
(3 4.75296e-16 0)
(3 4.24772e-16 0)
(3 6.35064e-16 0)
(3 4.60361e-16 0)
(3 -1.27657e-16 0)
(3 -5.64897e-16 0)
(3 -1.42206e-16 0)
(3 -3.72978e-16 0)
(3 2.83239e-16 0)
(3 2.49541e-16 0)
(3 5.04979e-16 0)
(3 3.32208e-16 0)
(3 3.4075e-16 0)
(3 5.44649e-16 0)
(3 8.64757e-16 0)
(3 6.79721e-16 0)
(3 4.08052e-16 0)
(3 7.06872e-16 0)
(3 1.17462e-15 0)
(3 1.35227e-15 0)
(3 1.29038e-15 0)
(3 9.35256e-16 0)
(3 1.86519e-15 0)
(3 2.35221e-15 0)
(3 1.94354e-15 0)
(3 1.69057e-15 0)
(3 1.21131e-15 0)
(3 1.02466e-15 0)
(3 -2.50891e-16 0)
(3 -7.77948e-16 0)
(3 -4.70513e-16 0)
(3 1.56258e-17 0)
(3 6.67983e-16 0)
(3 1.34338e-15 0)
(3 1.34444e-15 0)
(3 1.36664e-15 0)
(3 5.43972e-16 0)
(3 -9.94184e-16 0)
(3 -1.8037e-15 0)
(3 -1.70313e-15 0)
(3 -1.03332e-15 0)
(3 8.37541e-16 0)
(3 1.13529e-15 0)
(3 1.30227e-15 0)
(3 1.36568e-15 0)
(3 1.09728e-15 0)
(3 8.27389e-16 0)
(3 3.12002e-16 0)
(3 -3.33057e-16 0)
(3 -8.51038e-16 0)
(3 -8.95115e-16 0)
(3 -1.35246e-15 0)
(3 -7.36615e-16 0)
(3 -2.13339e-17 0)
(3 8.25711e-16 0)
(3 2.30676e-15 0)
(3 3.39192e-15 0)
(3 3.96287e-15 0)
(3 4.43115e-15 0)
(3 4.33977e-15 0)
(3 3.66828e-15 0)
(3 3.29371e-15 0)
(3 2.82463e-15 0)
(3 1.89135e-15 0)
(3 1.09128e-15 0)
(3 7.33045e-16 0)
(3 1.48807e-15 0)
(3 2.63446e-15 0)
(3 2.40026e-15 0)
(3 7.80752e-16 0)
(3 -1.49625e-16 0)
(3 -4.30445e-16 0)
(3 -2.58119e-16 0)
(3 -3.17273e-16 0)
(3 -3.53121e-16 0)
(3 -3.41891e-16 0)
(3 -5.72293e-16 0)
(3 -5.69749e-16 0)
(3 2.50348e-16 0)
(3 6.63909e-16 0)
(3 7.33383e-16 0)
(3 1.04454e-15 0)
(3 1.25706e-15 0)
(3 1.13e-15 0)
(3 7.23358e-16 0)
(3 -3.88237e-16 0)
(3 -1.40037e-15 0)
(3 -2.38945e-15 0)
(3 2.91763e-17 0)
(3 4.08159e-17 0)
(3 1.17863e-16 0)
(3 1.58615e-16 0)
(3 2.39506e-16 0)
(3 3.13486e-16 0)
(3 3.34223e-16 0)
(3 2.32116e-16 0)
(3 1.96664e-16 0)
(3 8.52595e-16 0)
(3 5.75112e-16 0)
(3 7.15529e-16 0)
(3 5.87764e-16 0)
(3 6.3073e-16 0)
(3 5.47208e-16 0)
(3 5.23585e-16 0)
(3 5.95566e-16 0)
(3 4.74403e-16 0)
(3 2.27541e-16 0)
(3 -5.37458e-16 0)
(3 -6.76539e-16 0)
(3 -3.19207e-16 0)
(3 1.68761e-16 0)
(3 5.41767e-16 0)
(3 6.83353e-16 0)
(3 9.15701e-16 0)
(3 5.74127e-16 0)
(3 1.67995e-16 0)
(3 -2.34115e-16 0)
(3 -4.11673e-16 0)
(3 6.23761e-16 0)
(3 1.24488e-15 0)
(3 5.24974e-16 0)
(3 1.48234e-16 0)
(3 5.82478e-16 0)
(3 6.26959e-16 0)
(3 -3.68559e-17 0)
(3 -4.11894e-16 0)
(3 7.41459e-16 0)
(3 7.54594e-16 0)
(3 9.29218e-16 0)
(3 1.12988e-15 0)
(3 1.24876e-15 0)
(3 1.49478e-15 0)
(3 1.30098e-15 0)
(3 8.72859e-16 0)
(3 -3.32783e-16 0)
(3 -1.27896e-16 0)
(3 2.81441e-16 0)
(3 -1.91207e-16 0)
(3 -4.08852e-16 0)
(3 -1.20393e-16 0)
(3 2.46784e-16 0)
(3 4.18326e-16 0)
(3 1.59135e-16 0)
(3 1.24713e-16 0)
(3 -9.94753e-17 0)
(3 -2.8267e-16 0)
(3 4.64212e-16 0)
(3 -1.25821e-16 0)
(3 -9.28523e-16 0)
(3 -6.7535e-16 0)
(3 1.24535e-15 0)
(3 1.76346e-15 0)
(3 1.981e-15 0)
(3 2.53807e-15 0)
(3 3.34085e-15 0)
(3 3.37865e-15 0)
(3 2.85674e-15 0)
(3 1.78507e-15 0)
(3 1.22088e-15 0)
(3 1.49563e-15 0)
(3 1.22815e-15 0)
(3 5.63079e-16 0)
(3 9.02986e-16 0)
(3 2.00115e-15 0)
(3 1.861e-15 0)
(3 9.82787e-16 0)
(3 2.36137e-16 0)
(3 -1.09578e-16 0)
(3 3.40002e-17 0)
(3 4.65023e-16 0)
(3 7.2166e-16 0)
(3 3.32587e-16 0)
(3 3.43925e-16 0)
(3 1.24643e-16 0)
(3 4.74077e-16 0)
(3 1.35908e-15 0)
(3 1.96371e-15 0)
(3 2.05983e-15 0)
(3 2.12642e-15 0)
(3 2.24898e-15 0)
(3 2.07943e-15 0)
(3 1.24011e-15 0)
(3 -5.81574e-16 0)
(3 -2.79135e-15 0)
(3 1.58523e-16 0)
(3 7.4112e-17 0)
(3 7.23204e-17 0)
(3 2.12358e-16 0)
(3 5.93759e-16 0)
(3 6.66962e-16 0)
(3 -6.11952e-17 0)
(3 -4.36001e-16 0)
(3 4.56016e-16 0)
(3 5.0521e-16 0)
(3 -3.61727e-16 0)
(3 -2.28977e-16 0)
(3 2.23834e-16 0)
(3 1.17796e-15 0)
(3 5.2865e-16 0)
(3 6.43321e-16 0)
(3 6.14195e-16 0)
(3 5.63937e-16 0)
(3 -3.25383e-16 0)
(3 -4.66896e-16 0)
(3 -2.68565e-17 0)
(3 2.53761e-16 0)
(3 4.07894e-16 0)
(3 7.37467e-16 0)
(3 6.37506e-16 0)
(3 4.08301e-16 0)
(3 2.95655e-16 0)
(3 2.35825e-16 0)
(3 6.39777e-17 0)
(3 1.11172e-16 0)
(3 -6.70553e-16 0)
(3 -7.84124e-16 0)
(3 -9.43878e-16 0)
(3 -1.44867e-15 0)
(3 -1.35114e-15 0)
(3 -3.15614e-16 0)
(3 2.96473e-17 0)
(3 3.3141e-16 0)
(3 3.26313e-16 0)
(3 2.80412e-16 0)
(3 8.87357e-18 0)
(3 5.37838e-16 0)
(3 1.30847e-15 0)
(3 1.58121e-15 0)
(3 1.51945e-15 0)
(3 8.5664e-16 0)
(3 9.58713e-16 0)
(3 9.18333e-16 0)
(3 3.77397e-16 0)
(3 -1.69823e-15 0)
(3 -1.49183e-15 0)
(3 -7.03017e-16 0)
(3 -1.84986e-16 0)
(3 4.4417e-16 0)
(3 4.94959e-16 0)
(3 1.62511e-16 0)
(3 -2.93626e-16 0)
(3 -5.11111e-16 0)
(3 1.54352e-18 0)
(3 4.46766e-16 0)
(3 4.60306e-16 0)
(3 -5.60281e-16 0)
(3 -9.11116e-17 0)
(3 4.30687e-16 0)
(3 9.07584e-16 0)
(3 1.69116e-15 0)
(3 1.39713e-15 0)
(3 1.03482e-15 0)
(3 9.3183e-16 0)
(3 8.82605e-16 0)
(3 9.43019e-16 0)
(3 1.03879e-15 0)
(3 1.38434e-15 0)
(3 1.53995e-15 0)
(3 1.82416e-15 0)
(3 1.74951e-15 0)
(3 1.3619e-15 0)
(3 1.01251e-15 0)
(3 6.17285e-16 0)
(3 5.36592e-16 0)
(3 7.29697e-16 0)
(3 1.07027e-15 0)
(3 9.64917e-16 0)
(3 1.61898e-16 0)
(3 -8.0917e-16 0)
(3 -6.89896e-16 0)
(3 -1.15185e-16 0)
(3 -5.93465e-17 0)
(3 3.7583e-16 0)
(3 -1.64285e-16 0)
(3 -1.66607e-16 0)
(3 -4.75749e-16 0)
(3 8.13984e-17 0)
(3 -8.73118e-17 0)
(3 -7.09553e-16 0)
(3 -1.66012e-15 0)
(3 2.24848e-16 0)
(3 7.82904e-16 0)
(3 3.65686e-16 0)
(3 1.2258e-16 0)
(3 2.80381e-16 0)
(3 9.71599e-16 0)
(3 1.11412e-15 0)
(3 9.74212e-16 0)
(3 7.80812e-16 0)
(3 5.53459e-16 0)
(3 -1.60256e-16 0)
(3 -4.67412e-16 0)
(3 -5.33506e-16 0)
(3 -4.07655e-17 0)
(3 4.0788e-16 0)
(3 -2.19983e-16 0)
(3 -7.58945e-16 0)
(3 -7.4015e-16 0)
(3 -1.68085e-16 0)
(3 5.40512e-16 0)
(3 3.10618e-16 0)
(3 2.04034e-16 0)
(3 3.93434e-16 0)
(3 6.5435e-16 0)
(3 1.01741e-15 0)
(3 1.22292e-15 0)
(3 6.36054e-17 0)
(3 -1.40142e-17 0)
(3 8.57102e-16 0)
(3 1.53825e-15 0)
(3 8.38585e-17 0)
(3 -1.39939e-15 0)
(3 -7.56183e-16 0)
(3 -7.23214e-16 0)
(3 -6.90364e-16 0)
(3 -2.51338e-16 0)
(3 3.84641e-16 0)
(3 8.90305e-16 0)
(3 6.2613e-16 0)
(3 3.45956e-16 0)
(3 -1.74202e-16 0)
(3 -2.60298e-16 0)
(3 7.4004e-16 0)
(3 1.67265e-15 0)
(3 1.66997e-15 0)
(3 1.6886e-15 0)
(3 1.42529e-15 0)
(3 7.10143e-16 0)
(3 -3.95373e-16 0)
(3 -1.06839e-15 0)
(3 -8.17319e-16 0)
(3 -3.46432e-16 0)
(3 -2.38922e-16 0)
(3 1.35411e-17 0)
(3 2.65843e-16 0)
(3 3.16066e-16 0)
(3 2.12189e-16 0)
(3 -4.44995e-16 0)
(3 -1.21546e-15 0)
(3 -3.75105e-16 0)
(3 8.20399e-16 0)
(3 5.33777e-18 0)
(3 -1.71134e-16 0)
(3 4.26439e-16 0)
(3 9.72228e-16 0)
(3 1.14307e-15 0)
(3 8.074e-16 0)
(3 9.8456e-16 0)
(3 1.45404e-15 0)
(3 1.60251e-15 0)
(3 1.40207e-15 0)
(3 1.32534e-15 0)
(3 1.19003e-15 0)
(3 1.49958e-15 0)
(3 2.55883e-15 0)
(3 2.77076e-15 0)
(3 2.66498e-15 0)
(3 2.68288e-15 0)
(3 2.27801e-15 0)
(3 1.60025e-15 0)
(3 1.63952e-15 0)
(3 1.1897e-15 0)
(3 8.95343e-16 0)
(3 5.72017e-16 0)
(3 1.01353e-16 0)
(3 -1.01392e-15 0)
(3 -1.22687e-15 0)
(3 -1.47027e-15 0)
(3 -1.86122e-15 0)
(3 -1.75127e-15 0)
(3 -1.94077e-15 0)
(3 -1.33759e-15 0)
(3 -1.36295e-15 0)
(3 -1.70676e-15 0)
(3 -2.0732e-15 0)
(3 -6.12527e-16 0)
(3 8.36784e-17 0)
(3 1.45216e-16 0)
(3 3.93438e-16 0)
(3 2.60481e-16 0)
(3 4.81574e-16 0)
(3 4.80998e-16 0)
(3 7.97097e-16 0)
(3 1.23181e-15 0)
(3 1.65987e-16 0)
(3 -2.68668e-16 0)
(3 -2.71489e-16 0)
(3 -2.84586e-16 0)
(3 -7.37716e-16 0)
(3 -1.01415e-15 0)
(3 -4.18751e-16 0)
(3 1.95724e-16 0)
(3 2.21002e-16 0)
(3 3.34497e-16 0)
(3 3.0974e-16 0)
(3 3.15251e-16 0)
(3 -6.66109e-16 0)
(3 -8.85012e-16 0)
(3 -8.16686e-16 0)
(3 -4.7359e-16 0)
(3 5.92615e-16 0)
(3 1.32301e-15 0)
(3 1.60465e-15 0)
(3 1.36322e-15 0)
(3 1.11796e-15 0)
(3 7.65161e-16 0)
(3 -2.70603e-16 0)
(3 -9.15853e-16 0)
(3 -8.14389e-16 0)
(3 -2.12352e-16 0)
(3 2.19256e-16 0)
(3 4.33607e-16 0)
(3 3.87621e-16 0)
(3 -1.49549e-16 0)
(3 -5.25261e-16 0)
(3 -7.03129e-16 0)
(3 -3.93246e-16 0)
(3 -8.77867e-17 0)
(3 2.17514e-16 0)
(3 3.76112e-17 0)
(3 1.21004e-15 0)
(3 1.39622e-15 0)
(3 1.71044e-15 0)
(3 1.55568e-15 0)
(3 1.88427e-15 0)
(3 1.60362e-15 0)
(3 1.08789e-15 0)
(3 -1.24396e-16 0)
(3 -1.38207e-15 0)
(3 -1.21962e-15 0)
(3 -7.27975e-16 0)
(3 -2.46753e-16 0)
(3 -7.80233e-17 0)
(3 -1.97583e-16 0)
(3 -2.03205e-16 0)
(3 4.8514e-16 0)
(3 1.42051e-15 0)
(3 1.2115e-15 0)
(3 2.46238e-16 0)
(3 1.65027e-16 0)
(3 1.28749e-18 0)
(3 -6.81648e-16 0)
(3 -6.91689e-16 0)
(3 -4.27639e-16 0)
(3 -6.43049e-16 0)
(3 -6.49875e-16 0)
(3 -5.111e-16 0)
(3 3.58751e-16 0)
(3 1.23698e-15 0)
(3 1.21866e-15 0)
(3 1.29833e-15 0)
(3 1.53877e-15 0)
(3 1.35652e-15 0)
(3 1.21116e-15 0)
(3 1.24659e-15 0)
(3 1.2931e-15 0)
(3 1.01686e-15 0)
(3 1.11427e-15 0)
(3 1.23285e-15 0)
(3 1.02444e-15 0)
(3 8.87741e-16 0)
(3 2.91201e-16 0)
(3 -6.92453e-16 0)
(3 -9.65171e-16 0)
(3 -1.03562e-15 0)
(3 -8.15153e-16 0)
(3 -8.85726e-16 0)
(3 -1.0487e-15 0)
(3 -1.31801e-15 0)
(3 -3.33291e-15 0)
(3 -3.05405e-15 0)
(3 -2.00597e-15 0)
(3 -3.66167e-16 0)
(3 -5.78632e-16 0)
(3 4.97175e-16 0)
(3 3.80999e-16 0)
(3 4.37702e-16 0)
(3 1.50201e-16 0)
(3 1.17837e-17 0)
(3 2.02553e-16 0)
(3 -6.39815e-17 0)
(3 -3.01525e-16 0)
(3 -7.74786e-16 0)
(3 -1.55168e-15 0)
(3 -1.86048e-15 0)
(3 -2.29545e-15 0)
(3 -1.67106e-15 0)
(3 3.44716e-16 0)
(3 7.04384e-16 0)
(3 7.40486e-16 0)
(3 4.3147e-16 0)
(3 -5.71544e-16 0)
(3 -2.44754e-16 0)
(3 -1.6093e-16 0)
(3 -1.20417e-16 0)
(3 -3.32362e-16 0)
(3 -3.24343e-16 0)
(3 6.71163e-16 0)
(3 2.52088e-15 0)
(3 2.52662e-15 0)
(3 1.5588e-15 0)
(3 -6.88382e-17 0)
(3 -1.92648e-15 0)
(3 -1.65816e-15 0)
(3 7.73717e-17 0)
(3 6.7723e-16 0)
(3 5.56589e-16 0)
(3 3.2443e-16 0)
(3 -1.59142e-16 0)
(3 -1.0928e-15 0)
(3 -1.57038e-15 0)
(3 -1.68774e-15 0)
(3 -5.97479e-16 0)
(3 -3.3626e-16 0)
(3 -1.00429e-15 0)
(3 -1.50235e-15 0)
(3 -5.56569e-17 0)
(3 5.42606e-16 0)
(3 3.67057e-16 0)
(3 3.25174e-17 0)
(3 1.20391e-17 0)
(3 3.1555e-16 0)
(3 -8.1742e-17 0)
(3 -7.49292e-16 0)
(3 -1.23789e-15 0)
(3 -1.70823e-15 0)
(3 -1.78524e-15 0)
(3 -1.78131e-15 0)
(3 -1.8527e-15 0)
(3 -9.63203e-16 0)
(3 6.66817e-16 0)
(3 2.43681e-15 0)
(3 2.70655e-15 0)
(3 1.57153e-15 0)
(3 3.00057e-17 0)
(3 -3.69409e-16 0)
(3 -1.19387e-16 0)
(3 -5.61239e-16 0)
(3 -7.09574e-16 0)
(3 -9.13661e-16 0)
(3 -1.4408e-15 0)
(3 -1.56006e-15 0)
(3 -9.55401e-16 0)
(3 -6.10329e-16 0)
(3 -3.21022e-17 0)
(3 2.31469e-16 0)
(3 -8.07219e-17 0)
(3 -5.89045e-16 0)
(3 -1.09709e-15 0)
(3 -1.3006e-15 0)
(3 -1.39233e-15 0)
(3 -1.3563e-15 0)
(3 -1.28919e-15 0)
(3 -5.98802e-16 0)
(3 -1.74745e-16 0)
(3 -4.03687e-16 0)
(3 -3.82655e-16 0)
(3 -5.92588e-17 0)
(3 -3.4655e-16 0)
(3 -5.60813e-16 0)
(3 -7.13022e-16 0)
(3 -9.76836e-16 0)
(3 -6.35659e-16 0)
(3 -1.34269e-15 0)
(3 -2.51526e-15 0)
(3 -2.54703e-15 0)
(3 -2.01343e-15 0)
(3 -2.09143e-15 0)
(3 -2.80985e-16 0)
(3 -2.41106e-16 0)
(3 -2.6354e-16 0)
(3 -3.42995e-16 0)
(3 -2.87915e-16 0)
(3 -2.42212e-16 0)
(3 -3.23741e-16 0)
(3 -2.62603e-16 0)
(3 -4.31344e-16 0)
(3 -9.58782e-16 0)
(3 -1.21686e-15 0)
(3 -1.62828e-15 0)
(3 -1.47599e-15 0)
(3 -7.82023e-16 0)
(3 -2.25301e-16 0)
(3 -6.82497e-16 0)
(3 -9.69475e-16 0)
(3 -1.2162e-15 0)
(3 -6.3948e-16 0)
(3 1.56446e-16 0)
(3 1.04773e-15 0)
(3 1.13013e-15 0)
(3 3.78727e-16 0)
(3 -9.81447e-16 0)
(3 -1.7073e-15 0)
(3 -5.59595e-16 0)
(3 6.83658e-16 0)
(3 9.68251e-16 0)
(3 8.81827e-16 0)
(3 6.84874e-16 0)
(3 6.8269e-16 0)
(3 8.8147e-16 0)
(3 7.68751e-16 0)
(3 3.43356e-16 0)
(3 1.63193e-16 0)
(3 1.24609e-16 0)
(3 2.89077e-16 0)
(3 8.55989e-16 0)
(3 6.60155e-16 0)
(3 2.8386e-16 0)
(3 -2.56597e-16 0)
(3 -6.23842e-16 0)
(3 -9.62505e-16 0)
(3 -7.99653e-16 0)
(3 -1.13996e-16 0)
(3 7.86806e-17 0)
(3 -5.07824e-16 0)
(3 -1.16617e-15 0)
(3 -1.57285e-15 0)
(3 -1.68368e-15 0)
(3 -1.84123e-15 0)
(3 -1.60069e-15 0)
(3 -1.34205e-15 0)
(3 -1.59115e-15 0)
(3 -1.90056e-15 0)
(3 -2.23535e-15 0)
(3 -1.95509e-15 0)
(3 -1.7877e-15 0)
(3 -4.22409e-16 0)
(3 1.17742e-15 0)
(3 1.01965e-15 0)
(3 -4.45993e-16 0)
(3 -9.2876e-16 0)
(3 -1.77548e-15 0)
(3 -1.29963e-15 0)
(3 8.80773e-17 0)
(3 2.52794e-16 0)
(3 7.32898e-17 0)
(3 1.06482e-16 0)
(3 -6.09669e-17 0)
(3 -1.80948e-16 0)
(3 -3.93894e-16 0)
(3 1.04506e-16 0)
(3 3.78045e-16 0)
(3 -6.7959e-16 0)
(3 -8.96525e-16 0)
(3 -6.9798e-16 0)
(3 -1.45683e-15 0)
(3 -2.01705e-15 0)
(3 -2.30739e-15 0)
(3 -2.47777e-15 0)
(3 -2.12246e-15 0)
(3 -1.56107e-15 0)
(3 -7.04115e-16 0)
(3 3.52409e-16 0)
(3 9.7396e-16 0)
(3 6.9409e-17 0)
(3 -1.92633e-16 0)
(3 -6.75936e-16 0)
(3 -4.15531e-16 0)
(3 -7.0131e-16 0)
(3 -8.43893e-16 0)
(3 -7.85111e-16 0)
(3 -7.72215e-16 0)
(3 -5.6819e-16 0)
(3 -9.35524e-16 0)
(3 9.58731e-17 0)
(3 1.49154e-16 0)
(3 -2.41575e-16 0)
(3 -1.20049e-16 0)
(3 -1.20891e-16 0)
(3 -2.99887e-16 0)
(3 -4.57303e-16 0)
(3 -1.10963e-15 0)
(3 -1.07329e-15 0)
(3 -8.56321e-16 0)
(3 -5.05235e-16 0)
(3 -4.20178e-16 0)
(3 -6.01537e-16 0)
(3 -8.64557e-16 0)
(3 -9.38548e-16 0)
(3 -1.21184e-15 0)
(3 -1.17565e-15 0)
(3 -1.0212e-15 0)
(3 -8.25188e-16 0)
(3 5.08693e-16 0)
(3 1.17404e-15 0)
(3 1.19228e-15 0)
(3 -1.75833e-16 0)
(3 -8.44658e-16 0)
(3 -8.83596e-17 0)
(3 -2.17817e-17 0)
(3 3.82462e-17 0)
(3 2.16411e-16 0)
(3 6.47159e-16 0)
(3 1.88014e-15 0)
(3 3.35058e-15 0)
(3 1.8347e-15 0)
(3 8.18153e-16 0)
(3 1.80098e-16 0)
(3 1.85729e-16 0)
(3 1.61568e-16 0)
(3 3.85636e-16 0)
(3 8.56659e-16 0)
(3 6.7244e-16 0)
(3 6.22953e-16 0)
(3 -1.7719e-16 0)
(3 -8.96212e-16 0)
(3 -7.19579e-16 0)
(3 -4.8062e-16 0)
(3 -5.6451e-16 0)
(3 -6.85554e-16 0)
(3 -2.41053e-16 0)
(3 -6.56847e-16 0)
(3 -6.94139e-16 0)
(3 -6.7462e-16 0)
(3 -8.59187e-16 0)
(3 -8.13468e-16 0)
(3 -7.64504e-16 0)
(3 -2.64599e-16 0)
(3 -6.11389e-16 0)
(3 -1.40623e-15 0)
(3 -2.04814e-15 0)
(3 -2.38167e-15 0)
(3 -2.30943e-15 0)
(3 -2.01379e-15 0)
(3 -2.3765e-15 0)
(3 -1.75615e-15 0)
(3 -1.74423e-15 0)
(3 -1.907e-15 0)
(3 -1.66717e-15 0)
(3 -1.23075e-15 0)
(3 -1.24702e-15 0)
(3 -7.88009e-16 0)
(3 1.13093e-16 0)
(3 1.12405e-17 0)
(3 -3.92367e-16 0)
(3 -2.51485e-16 0)
(3 1.53128e-16 0)
(3 2.01058e-16 0)
(3 -4.97939e-17 0)
(3 -5.06612e-16 0)
(3 -4.42082e-16 0)
(3 -9.67746e-16 0)
(3 -1.37421e-15 0)
(3 -1.55461e-15 0)
(3 -1.81833e-15 0)
(3 -2.13533e-15 0)
(3 -2.3656e-15 0)
(3 -1.80133e-15 0)
(3 -1.4954e-15 0)
(3 -1.05835e-15 0)
(3 -6.11138e-16 0)
(3 -8.49282e-16 0)
(3 -6.59225e-16 0)
(3 -6.05522e-16 0)
(3 -1.36956e-15 0)
(3 -1.5921e-15 0)
(3 -1.51915e-15 0)
(3 -4.35016e-16 0)
(3 2.69036e-16 0)
(3 1.6978e-16 0)
(3 6.63356e-17 0)
(3 -3.63605e-17 0)
(3 -2.17189e-16 0)
(3 -3.85998e-16 0)
(3 -4.17154e-16 0)
(3 -9.18225e-16 0)
(3 -7.39654e-16 0)
(3 -7.11801e-16 0)
(3 -4.89944e-16 0)
(3 -3.325e-16 0)
(3 -2.86996e-16 0)
(3 -7.60096e-16 0)
(3 -1.37474e-15 0)
(3 -1.24251e-15 0)
(3 -1.33865e-15 0)
(3 -8.59681e-16 0)
(3 -7.37584e-16 0)
(3 -3.10485e-16 0)
(3 3.32009e-16 0)
(3 4.95022e-16 0)
(3 -1.73254e-16 0)
(3 -1.15724e-16 0)
(3 7.30142e-16 0)
(3 1.19368e-15 0)
(3 1.10559e-15 0)
(3 2.60444e-16 0)
(3 8.50663e-17 0)
(3 5.60854e-16 0)
(3 9.2503e-16 0)
(3 1.46549e-15 0)
(3 1.53622e-15 0)
(3 1.22077e-15 0)
(3 9.7838e-16 0)
(3 9.39286e-16 0)
(3 7.1364e-16 0)
(3 5.77427e-16 0)
(3 3.03484e-16 0)
(3 -3.08634e-16 0)
(3 -4.44875e-16 0)
(3 -5.7062e-17 0)
(3 1.67069e-17 0)
(3 -1.00433e-15 0)
(3 -1.01873e-15 0)
(3 -9.00861e-16 0)
(3 -1.4227e-15 0)
(3 -1.78426e-15 0)
(3 -9.19942e-16 0)
(3 -9.52005e-16 0)
(3 -8.65157e-16 0)
(3 -9.08763e-16 0)
(3 -5.05194e-16 0)
(3 -3.26243e-16 0)
(3 4.51591e-16 0)
(3 1.24478e-15 0)
(3 3.57197e-16 0)
(3 -1.30002e-15 0)
(3 -1.99971e-15 0)
(3 -2.241e-15 0)
(3 -2.30657e-15 0)
(3 -2.39316e-15 0)
(3 -2.35765e-15 0)
(3 -1.57571e-15 0)
(3 -7.71752e-16 0)
(3 -2.68154e-16 0)
(3 -2.21798e-16 0)
(3 -8.89034e-16 0)
(3 -6.23838e-16 0)
(3 -7.58611e-16 0)
(3 -6.95646e-16 0)
(3 -9.543e-16 0)
(3 -1.1444e-15 0)
(3 -5.56555e-16 0)
(3 -8.1858e-16 0)
(3 -1.46811e-15 0)
(3 -1.78859e-15 0)
(3 -2.24027e-15 0)
(3 -2.23776e-15 0)
(3 -7.84153e-16 0)
(3 -3.40077e-16 0)
(3 -3.02818e-16 0)
(3 -4.0046e-16 0)
(3 -9.05805e-16 0)
(3 -1.34902e-15 0)
(3 -1.5212e-15 0)
(3 -1.28298e-15 0)
(3 -1.17476e-15 0)
(3 -1.18117e-15 0)
(3 -1.6635e-15 0)
(3 -1.63878e-15 0)
(3 -1.60837e-15 0)
(3 -1.35985e-15 0)
(3 -1.1252e-15 0)
(3 -1.0861e-15 0)
(3 -4.65635e-16 0)
(3 9.63669e-16 0)
(3 1.33665e-15 0)
(3 9.28338e-17 0)
(3 -1.28365e-16 0)
(3 -3.38232e-16 0)
(3 -3.04524e-16 0)
(3 -5.05332e-16 0)
(3 -5.62239e-16 0)
(3 -1.47939e-16 0)
(3 4.45533e-16 0)
(3 5.25197e-16 0)
(3 -3.51263e-17 0)
(3 -2.73647e-16 0)
(3 -3.7228e-16 0)
(3 -2.17724e-16 0)
(3 3.7358e-16 0)
(3 7.55989e-16 0)
(3 4.27517e-16 0)
(3 1.53136e-16 0)
(3 1.79721e-16 0)
(3 4.42373e-16 0)
(3 5.35485e-16 0)
(3 8.15134e-17 0)
(3 -3.27125e-16 0)
(3 2.13717e-15 0)
(3 3.01815e-15 0)
(3 2.61947e-15 0)
(3 1.98938e-15 0)
(3 1.38565e-15 0)
(3 1.14567e-15 0)
(3 1.21688e-15 0)
(3 8.68149e-16 0)
(3 -1.63002e-16 0)
(3 -3.40991e-17 0)
(3 5.53901e-17 0)
(3 4.09897e-16 0)
(3 1.76574e-16 0)
(3 -6.91972e-16 0)
(3 -5.6967e-16 0)
(3 -3.26737e-16 0)
(3 2.48555e-16 0)
(3 3.79946e-16 0)
(3 3.09147e-16 0)
(3 -4.0756e-16 0)
(3 -1.08019e-15 0)
(3 -1.59029e-15 0)
(3 -1.82497e-15 0)
(3 -1.81502e-15 0)
(3 -1.54092e-15 0)
(3 -7.66406e-16 0)
(3 -1.01501e-15 0)
(3 -9.57375e-16 0)
(3 -1.37278e-16 0)
(3 5.4001e-16 0)
(3 1.21562e-15 0)
(3 1.46355e-15 0)
(3 1.24399e-15 0)
(3 1.25104e-15 0)
(3 1.32092e-15 0)
(3 -4.79305e-16 0)
(3 -1.21411e-15 0)
(3 -2.10952e-15 0)
(3 -1.65241e-15 0)
(3 -1.47004e-15 0)
(3 -9.8279e-16 0)
(3 -7.25953e-16 0)
(3 -8.77711e-16 0)
(3 -8.03497e-16 0)
(3 -9.57405e-16 0)
(3 -8.51468e-16 0)
(3 -9.0867e-16 0)
(3 -1.16307e-15 0)
(3 -1.7356e-15 0)
(3 -2.70237e-15 0)
(3 -2.69125e-15 0)
(3 -2.18928e-15 0)
(3 -1.0284e-15 0)
(3 -6.6078e-16 0)
(3 -4.43188e-16 0)
(3 6.89711e-16 0)
(3 1.9201e-15 0)
(3 2.02037e-15 0)
(3 1.93441e-15 0)
(3 1.62579e-15 0)
(3 1.12564e-15 0)
(3 8.37737e-16 0)
(3 9.60165e-16 0)
(3 8.65753e-16 0)
(3 1.31319e-16 0)
(3 -7.01831e-16 0)
(3 -1.12082e-15 0)
(3 -1.30454e-15 0)
(3 -1.30239e-15 0)
(3 -1.12847e-15 0)
(3 -9.00144e-16 0)
(3 -5.83782e-16 0)
(3 -3.05863e-16 0)
(3 1.42952e-16 0)
(3 1.14967e-17 0)
(3 -1.33113e-16 0)
(3 -9.25202e-17 0)
(3 1.35386e-16 0)
(3 -5.54554e-17 0)
(3 1.12572e-16 0)
(3 6.02033e-16 0)
(3 5.92019e-16 0)
(3 9.67233e-16 0)
(3 8.55641e-16 0)
(3 8.19892e-16 0)
(3 1.03268e-15 0)
(3 7.70889e-16 0)
(3 3.08535e-16 0)
(3 2.23469e-16 0)
(3 2.11061e-16 0)
(3 6.91867e-16 0)
(3 6.93043e-16 0)
(3 9.15206e-16 0)
(3 1.12619e-15 0)
(3 1.20024e-15 0)
(3 1.79674e-15 0)
(3 1.80188e-15 0)
(3 1.97892e-15 0)
(3 2.07821e-15 0)
(3 1.82984e-15 0)
(3 1.6182e-15 0)
(3 1.15832e-15 0)
(3 1.07256e-15 0)
(3 6.06485e-16 0)
(3 6.01277e-16 0)
(3 6.01293e-16 0)
(3 4.37114e-16 0)
(3 4.14543e-16 0)
(3 -3.28929e-16 0)
(3 -4.35301e-16 0)
(3 -4.35028e-16 0)
(3 3.1801e-16 0)
(3 8.30857e-16 0)
(3 1.73551e-16 0)
(3 -1.16517e-16 0)
(3 -2.66288e-16 0)
(3 -6.01977e-16 0)
(3 -9.58198e-16 0)
(3 -1.578e-15 0)
(3 -1.78071e-15 0)
(3 -1.88746e-15 0)
(3 -1.29173e-15 0)
(3 -1.01612e-15 0)
(3 -1.13686e-15 0)
(3 -6.98913e-16 0)
(3 1.62281e-17 0)
(3 2.27575e-16 0)
(3 1.47844e-16 0)
(3 3.08132e-16 0)
(3 9.24864e-16 0)
(3 1.28293e-15 0)
(3 1.85052e-16 0)
(3 -1.45582e-15 0)
(3 -1.92676e-15 0)
(3 -1.63916e-15 0)
(3 -1.39764e-15 0)
(3 -1.15043e-15 0)
(3 -1.37046e-15 0)
(3 -2.44093e-15 0)
(3 -3.08656e-15 0)
(3 -2.89335e-15 0)
(3 -2.12547e-15 0)
(3 -2.01791e-15 0)
(3 -1.65271e-15 0)
(3 -1.59328e-15 0)
(3 -3.3975e-15 0)
(3 -3.56748e-15 0)
(3 -3.37466e-15 0)
(3 -1.91636e-15 0)
(3 -7.69025e-17 0)
(3 6.7247e-16 0)
(3 1.09912e-15 0)
(3 2.35882e-15 0)
(3 3.65502e-15 0)
(3 3.82982e-15 0)
(3 3.32434e-15 0)
(3 1.56507e-15 0)
(3 1.10683e-15 0)
(3 5.00705e-16 0)
(3 -4.75484e-16 0)
(3 -4.52227e-16 0)
(3 -3.57606e-16 0)
(3 -1.948e-16 0)
(3 2.89256e-16 0)
(3 3.2686e-17 0)
(3 -1.2243e-16 0)
(3 -2.6128e-16 0)
(3 -1.13665e-15 0)
(3 -2.02831e-15 0)
(3 -1.47305e-15 0)
(3 -6.27866e-17 0)
(3 2.72129e-16 0)
(3 1.91315e-16 0)
(3 -1.69668e-16 0)
(3 -3.28666e-16 0)
(3 -5.27482e-16 0)
(3 1.02036e-16 0)
(3 5.60069e-16 0)
(3 7.68329e-16 0)
(3 9.57707e-16 0)
(3 9.0332e-16 0)
(3 5.38817e-16 0)
(3 -1.20413e-16 0)
(3 -9.77943e-16 0)
(3 -1.21371e-15 0)
(3 -1.09813e-15 0)
(3 -3.51071e-16 0)
(3 -6.09482e-16 0)
(3 -1.82927e-16 0)
(3 9.46128e-16 0)
(3 1.67174e-15 0)
(3 1.86221e-15 0)
(3 1.57464e-15 0)
(3 1.20864e-15 0)
(3 7.98262e-16 0)
(3 1.13858e-15 0)
(3 7.66639e-16 0)
(3 7.95678e-16 0)
(3 4.95723e-16 0)
(3 4.78884e-16 0)
(3 7.63352e-16 0)
(3 8.34054e-16 0)
(3 4.08261e-16 0)
(3 -3.23148e-16 0)
(3 -9.35474e-16 0)
(3 -7.54158e-16 0)
(3 5.91342e-18 0)
(3 5.3627e-16 0)
(3 2.41899e-16 0)
(3 -4.18797e-16 0)
(3 -9.29411e-16 0)
(3 -1.30666e-15 0)
(3 -1.07425e-15 0)
(3 -6.66086e-16 0)
(3 -7.50139e-16 0)
(3 -9.71124e-16 0)
(3 -1.0552e-15 0)
(3 -1.18815e-15 0)
(3 -1.24947e-15 0)
(3 -1.21355e-15 0)
(3 -8.6587e-16 0)
(3 -4.43436e-17 0)
(3 -2.2278e-16 0)
(3 -5.30328e-16 0)
(3 -5.38115e-16 0)
(3 -8.60553e-16 0)
(3 -5.55271e-16 0)
(3 2.87857e-16 0)
(3 9.33081e-18 0)
(3 -3.86658e-16 0)
(3 -2.94327e-16 0)
(3 -3.89077e-16 0)
(3 -5.77169e-16 0)
(3 -5.85992e-16 0)
(3 -7.97987e-16 0)
(3 -1.79299e-15 0)
(3 -2.42509e-15 0)
(3 -2.81549e-15 0)
(3 -2.6777e-15 0)
(3 -2.85654e-15 0)
(3 -2.60541e-15 0)
(3 -2.17453e-15 0)
(3 -2.51069e-15 0)
(3 -1.12914e-15 0)
(3 -2.55152e-16 0)
(3 5.97098e-16 0)
(3 1.39241e-15 0)
(3 1.91598e-15 0)
(3 2.46205e-15 0)
(3 3.22678e-15 0)
(3 2.91693e-15 0)
(3 2.18026e-15 0)
(3 2.07793e-15 0)
(3 9.24546e-16 0)
(3 -2.07743e-16 0)
(3 -4.90891e-16 0)
(3 -6.2899e-16 0)
(3 -3.80644e-16 0)
(3 1.38102e-16 0)
(3 5.60918e-16 0)
(3 1.05561e-15 0)
(3 9.75342e-16 0)
(3 2.72517e-16 0)
(3 -8.41178e-16 0)
(3 -1.57178e-15 0)
(3 -1.55961e-15 0)
(3 3.50041e-17 0)
(3 2.66133e-16 0)
(3 3.72693e-16 0)
(3 2.34367e-16 0)
(3 2.34286e-16 0)
(3 2.5356e-16 0)
(3 7.60569e-17 0)
(3 1.97032e-16 0)
(3 -2.32871e-16 0)
(3 -2.97186e-16 0)
(3 2.42723e-16 0)
(3 5.92242e-16 0)
(3 8.25948e-16 0)
(3 1.0167e-15 0)
(3 5.96805e-16 0)
(3 1.14239e-17 0)
(3 -5.00108e-16 0)
(3 -8.12485e-16 0)
(3 -7.98429e-16 0)
(3 -4.26846e-16 0)
(3 1.33673e-15 0)
(3 1.17868e-15 0)
(3 9.99801e-16 0)
(3 1.20192e-15 0)
(3 8.6597e-16 0)
(3 1.29771e-15 0)
(3 8.20481e-16 0)
(3 1.65972e-16 0)
(3 -3.95666e-16 0)
(3 -1.02653e-16 0)
(3 3.69565e-16 0)
(3 7.84935e-16 0)
(3 6.66568e-17 0)
(3 -7.21066e-16 0)
(3 -5.08716e-16 0)
(3 -2.55362e-16 0)
(3 2.41268e-16 0)
(3 1.06966e-16 0)
(3 -8.27078e-16 0)
(3 -1.65415e-15 0)
(3 -2.58931e-15 0)
(3 -2.45492e-15 0)
(3 -1.55909e-15 0)
(3 -9.456e-16 0)
(3 -9.88629e-16 0)
(3 -1.42315e-15 0)
(3 -1.5636e-15 0)
(3 -1.58446e-15 0)
(3 -1.28145e-15 0)
(3 -1.08735e-15 0)
(3 -1.46585e-15 0)
(3 -1.2889e-15 0)
(3 -8.38699e-16 0)
(3 -8.8264e-16 0)
(3 -1.03488e-15 0)
(3 -9.11944e-16 0)
(3 -2.33448e-16 0)
(3 9.86417e-16 0)
(3 8.78555e-16 0)
(3 8.44914e-16 0)
(3 7.33492e-17 0)
(3 -6.73944e-16 0)
(3 -1.00343e-15 0)
(3 -5.48162e-16 0)
(3 4.56862e-16 0)
(3 3.65487e-16 0)
(3 -4.82319e-16 0)
(3 -1.57113e-15 0)
(3 -2.02496e-15 0)
(3 -2.39091e-15 0)
(3 -2.8141e-15 0)
(3 -2.77081e-15 0)
(3 -1.96055e-15 0)
(3 -5.80928e-16 0)
(3 3.86289e-16 0)
(3 6.52878e-16 0)
(3 1.3832e-15 0)
(3 2.30073e-15 0)
(3 2.67109e-15 0)
(3 2.41008e-15 0)
(3 2.28451e-15 0)
(3 1.80048e-15 0)
(3 1.4839e-15 0)
(3 7.82188e-16 0)
(3 8.31134e-16 0)
(3 1.29682e-15 0)
(3 3.45369e-16 0)
(3 -3.46232e-16 0)
(3 -9.13509e-16 0)
(3 -1.4787e-15 0)
(3 -1.21789e-15 0)
(3 -9.79142e-16 0)
(3 -2.80357e-16 0)
(3 -1.03217e-16 0)
(3 1.00842e-16 0)
(3 -3.30871e-16 0)
(3 -2.73117e-16 0)
(3 -6.88944e-16 0)
(3 -4.65828e-16 0)
(3 4.13484e-16 0)
(3 4.97481e-16 0)
(3 7.01216e-16 0)
(3 3.13631e-17 0)
(3 -2.71003e-16 0)
(3 -7.71067e-16 0)
(3 -7.34787e-16 0)
(3 -4.92996e-16 0)
(3 4.43224e-16 0)
(3 1.11919e-15 0)
(3 1.78562e-15 0)
(3 1.56423e-15 0)
(3 5.45655e-16 0)
(3 -5.59282e-16 0)
(3 -6.27446e-16 0)
(3 -9.9545e-16 0)
(3 -1.5516e-15 0)
(3 -9.94698e-16 0)
(3 5.98754e-16 0)
(3 9.50387e-16 0)
(3 7.40314e-16 0)
(3 6.43001e-16 0)
(3 5.80539e-17 0)
(3 -7.58574e-16 0)
(3 -1.13957e-15 0)
(3 3.97085e-16 0)
(3 1.00048e-15 0)
(3 9.85325e-16 0)
(3 5.63021e-16 0)
(3 2.4535e-16 0)
(3 -2.24445e-17 0)
(3 -2.95388e-17 0)
(3 2.01834e-16 0)
(3 1.33131e-16 0)
(3 -9.68478e-16 0)
(3 -2.39927e-15 0)
(3 -2.57705e-15 0)
(3 -2.9003e-15 0)
(3 -1.66163e-15 0)
(3 -1.11262e-15 0)
(3 -1.07363e-15 0)
(3 -1.63616e-15 0)
(3 -2.30748e-15 0)
(3 -2.64656e-15 0)
(3 -2.5466e-15 0)
(3 -1.59055e-15 0)
(3 -1.33081e-15 0)
(3 -1.58221e-15 0)
(3 -1.68288e-15 0)
(3 -1.32219e-15 0)
(3 -1.15755e-15 0)
(3 -2.68404e-16 0)
(3 2.96578e-16 0)
(3 -1.33371e-16 0)
(3 -7.55224e-16 0)
(3 -1.06258e-15 0)