/*--------------------------------*- C++ -*----------------------------------*\
  =========                 |
  \\      /  F ield         | OpenFOAM: The Open Source CFD Toolbox
   \\    /   O peration     | Website:  https://openfoam.org
    \\  /    A nd           | Version:  7
     \\/     M anipulation  |
\*---------------------------------------------------------------------------*/
FoamFile
{
    version     2.0;
    format      ascii;
    class       volVectorField;
    location    "2";
    object      U;
}
// * * * * * * * * * * * * * * * * * * * * * * * * * * * * * * * * * * * * * //

dimensions      [0 1 -1 0 0 0 0];

internalField   nonuniform List<vector> 
73728
(
(3 -1.3476e-17 0)
(3 4.01065e-17 0)
(3 -2.39694e-16 0)
(3 -2.73121e-16 0)
(3 -3.19407e-16 0)
(3 -1.27104e-16 0)
(3 2.03009e-16 0)
(3 2.31026e-16 0)
(3 5.53463e-17 0)
(3 5.95282e-17 0)
(3 2.06199e-16 0)
(3 -3.43864e-16 0)
(3 -4.22443e-16 0)
(3 -5.76686e-16 0)
(3 -3.92149e-16 0)
(3 2.82082e-16 0)
(3 5.28222e-16 0)
(3 3.60602e-16 0)
(3 1.76794e-16 0)
(3 -3.48672e-16 0)
(3 4.03244e-16 0)
(3 8.45978e-16 0)
(3 1.24235e-15 0)
(3 1.3599e-15 0)
(3 1.90572e-15 0)
(3 2.47325e-15 0)
(3 1.89504e-15 0)
(3 1.82814e-15 0)
(3 9.06529e-16 0)
(3 5.818e-16 0)
(3 1.63359e-17 0)
(3 2.40311e-16 0)
(3 -5.02712e-16 0)
(3 -1.032e-15 0)
(3 -1.21767e-15 0)
(3 -1.43578e-15 0)
(3 -5.5907e-16 0)
(3 2.59439e-16 0)
(3 2.61094e-16 0)
(3 9.20693e-16 0)
(3 7.09105e-16 0)
(3 5.4379e-16 0)
(3 4.61034e-17 0)
(3 -1.37313e-16 0)
(3 -3.29358e-16 0)
(3 -3.59168e-16 0)
(3 -6.75828e-16 0)
(3 -8.69047e-16 0)
(3 -6.45961e-16 0)
(3 -2.199e-16 0)
(3 4.1819e-16 0)
(3 8.97928e-16 0)
(3 7.27862e-16 0)
(3 3.89176e-16 0)
(3 1.27495e-15 0)
(3 1.95212e-15 0)
(3 2.22063e-15 0)
(3 1.90522e-15 0)
(3 1.1214e-15 0)
(3 1.41923e-15 0)
(3 1.92436e-15 0)
(3 3.01256e-15 0)
(3 2.55814e-15 0)
(3 1.44338e-15 0)
(3 4.66899e-16 0)
(3 -4.99268e-16 0)
(3 -9.36662e-16 0)
(3 -1.56939e-15 0)
(3 -2.13652e-15 0)
(3 -1.54456e-15 0)
(3 -1.52072e-16 0)
(3 6.54223e-16 0)
(3 1.04148e-15 0)
(3 1.27964e-15 0)
(3 1.43433e-15 0)
(3 6.05064e-16 0)
(3 1.35063e-16 0)
(3 -8.54845e-16 0)
(3 -7.27426e-16 0)
(3 -6.11939e-16 0)
(3 -7.58508e-16 0)
(3 -9.14834e-16 0)
(3 -1.45892e-15 0)
(3 -1.3859e-15 0)
(3 -5.78118e-16 0)
(3 2.0384e-16 0)
(3 7.04657e-16 0)
(3 1.11479e-15 0)
(3 1.57737e-15 0)
(3 1.61355e-15 0)
(3 2.18412e-15 0)
(3 1.44185e-15 0)
(3 2.56944e-15 0)
(3 3.14225e-15 0)
(3 3.0162e-15 0)
(3 1.87393e-15 0)
(3 -4.69862e-18 0)
(3 -4.00685e-17 0)
(3 -3.35734e-16 0)
(3 -2.12132e-16 0)
(3 -2.16664e-16 0)
(3 4.07511e-16 0)
(3 1.12142e-15 0)
(3 1.58036e-15 0)
(3 1.40599e-15 0)
(3 1.09641e-15 0)
(3 1.48043e-15 0)
(3 -1.79095e-16 0)
(3 -6.13101e-16 0)
(3 -1.1224e-15 0)
(3 -9.99898e-16 0)
(3 -5.55481e-17 0)
(3 6.33314e-16 0)
(3 9.75872e-16 0)
(3 9.4947e-16 0)
(3 5.23213e-16 0)
(3 2.0116e-15 0)
(3 3.19087e-15 0)
(3 3.17292e-15 0)
(3 3.25908e-15 0)
(3 3.92131e-15 0)
(3 4.90461e-15 0)
(3 2.9312e-15 0)
(3 1.93403e-15 0)
(3 -7.98611e-17 0)
(3 -3.94621e-16 0)
(3 -8.52071e-16 0)
(3 -9.4972e-16 0)
(3 -1.56337e-15 0)
(3 -1.86218e-15 0)
(3 -2.15229e-15 0)
(3 -1.87172e-15 0)
(3 -6.00406e-16 0)
(3 3.03068e-17 0)
(3 3.61731e-16 0)
(3 9.32847e-16 0)
(3 1.10358e-15 0)
(3 8.91447e-16 0)
(3 3.88722e-16 0)
(3 -2.01242e-16 0)
(3 -1.41739e-15 0)
(3 -2.00437e-15 0)
(3 -2.27234e-15 0)
(3 -1.27678e-15 0)
(3 -8.51333e-16 0)
(3 -1.99357e-15 0)
(3 -1.61907e-15 0)
(3 -6.03939e-16 0)
(3 -3.21814e-16 0)
(3 -4.62876e-16 0)
(3 -4.16598e-17 0)
(3 1.27748e-15 0)
(3 1.67209e-15 0)
(3 1.64623e-15 0)
(3 1.17199e-15 0)
(3 2.28418e-15 0)
(3 3.00108e-15 0)
(3 4.51757e-15 0)
(3 4.50123e-15 0)
(3 2.98593e-15 0)
(3 1.01933e-15 0)
(3 -7.08868e-16 0)
(3 -1.58526e-15 0)
(3 -2.4591e-15 0)
(3 -3.64621e-15 0)
(3 -3.48893e-15 0)
(3 -2.73137e-15 0)
(3 -6.20319e-16 0)
(3 5.82695e-16 0)
(3 2.344e-15 0)
(3 3.42228e-15 0)
(3 3.26395e-15 0)
(3 2.12329e-15 0)
(3 3.77227e-16 0)
(3 -3.6715e-16 0)
(3 -1.28058e-15 0)
(3 -9.61905e-16 0)
(3 -1.40297e-15 0)
(3 -1.82901e-15 0)
(3 -9.77659e-16 0)
(3 -5.48013e-16 0)
(3 9.65457e-16 0)
(3 2.45479e-15 0)
(3 2.64767e-15 0)
(3 3.52591e-15 0)
(3 4.74634e-15 0)
(3 4.9104e-15 0)
(3 4.85858e-15 0)
(3 5.27599e-15 0)
(3 5.11103e-15 0)
(3 5.14997e-15 0)
(3 4.56721e-15 0)
(3 -2.93052e-17 0)
(3 -2.25987e-16 0)
(3 1.43249e-16 0)
(3 3.03068e-16 0)
(3 5.41775e-17 0)
(3 1.065e-15 0)
(3 1.43142e-15 0)
(3 1.51785e-15 0)
(3 2.9346e-15 0)
(3 2.88839e-15 0)
(3 2.89084e-15 0)
(3 2.78277e-15 0)
(3 2.66423e-15 0)
(3 1.94428e-15 0)
(3 1.25233e-15 0)
(3 1.01007e-15 0)
(3 6.28046e-16 0)
(3 6.94556e-16 0)
(3 1.1855e-15 0)
(3 1.75086e-15 0)
(3 2.40391e-15 0)
(3 2.97023e-15 0)
(3 3.14986e-15 0)
(3 3.20588e-15 0)
(3 2.9116e-15 0)
(3 2.34842e-15 0)
(3 1.88546e-15 0)
(3 9.52847e-16 0)
(3 1.89617e-16 0)
(3 -1.74923e-15 0)
(3 -2.09242e-15 0)
(3 -2.55657e-15 0)
(3 -2.54906e-15 0)
(3 -2.60049e-15 0)
(3 -2.50981e-15 0)
(3 -1.61801e-15 0)
(3 -9.83547e-16 0)
(3 -4.18465e-16 0)
(3 1.61921e-16 0)
(3 2.88464e-16 0)
(3 1.11194e-15 0)
(3 1.94199e-15 0)
(3 1.55217e-15 0)
(3 -1.0686e-16 0)
(3 -7.19672e-16 0)
(3 -2.68419e-15 0)
(3 -2.83391e-15 0)
(3 -2.31878e-15 0)
(3 -2.81521e-15 0)
(3 -4.35342e-15 0)
(3 -3.92966e-15 0)
(3 -3.7351e-15 0)
(3 -3.13441e-15 0)
(3 -2.48736e-15 0)
(3 -2.24596e-15 0)
(3 -2.30926e-15 0)
(3 -1.93573e-15 0)
(3 -1.29046e-15 0)
(3 -8.91535e-16 0)
(3 7.80463e-16 0)
(3 1.54984e-15 0)
(3 2.1376e-15 0)
(3 2.66467e-15 0)
(3 2.10167e-15 0)
(3 1.52243e-15 0)
(3 -2.94474e-16 0)
(3 -1.16384e-15 0)
(3 -2.28898e-15 0)
(3 -4.83669e-15 0)
(3 -4.88751e-15 0)
(3 -4.41562e-15 0)
(3 -3.50403e-15 0)
(3 -2.04113e-15 0)
(3 1.00131e-15 0)
(3 4.16053e-15 0)
(3 3.9103e-15 0)
(3 2.98656e-15 0)
(3 1.07888e-15 0)
(3 1.63993e-16 0)
(3 -1.29875e-16 0)
(3 1.14179e-17 0)
(3 6.37923e-17 0)
(3 7.65454e-16 0)
(3 8.7954e-16 0)
(3 3.35611e-16 0)
(3 7.85791e-16 0)
(3 1.42172e-15 0)
(3 3.20772e-15 0)
(3 3.13721e-15 0)
(3 3.14717e-15 0)
(3 3.32255e-15 0)
(3 3.66108e-15 0)
(3 3.43074e-15 0)
(3 3.052e-15 0)
(3 2.91834e-15 0)
(3 3.27142e-15 0)
(3 1.93694e-16 0)
(3 7.563e-16 0)
(3 1.39268e-15 0)
(3 1.51026e-15 0)
(3 1.71838e-15 0)
(3 2.42541e-15 0)
(3 2.322e-15 0)
(3 2.058e-15 0)
(3 2.55298e-15 0)
(3 3.02297e-15 0)
(3 3.81092e-15 0)
(3 4.08856e-15 0)
(3 4.0596e-15 0)
(3 3.87997e-15 0)
(3 3.64013e-15 0)
(3 3.25154e-15 0)
(3 2.63414e-15 0)
(3 1.27641e-15 0)
(3 1.19705e-15 0)
(3 2.33384e-15 0)
(3 2.70298e-15 0)
(3 2.42312e-15 0)
(3 2.11907e-15 0)
(3 8.18572e-16 0)
(3 4.65882e-16 0)
(3 6.44386e-17 0)
(3 1.22884e-15 0)
(3 1.90224e-15 0)
(3 2.02627e-15 0)
(3 5.40032e-16 0)
(3 3.02815e-16 0)
(3 1.37756e-16 0)
(3 -2.30341e-17 0)
(3 1.51555e-16 0)
(3 2.70809e-17 0)
(3 1.33001e-16 0)
(3 3.7358e-16 0)
(3 8.95788e-16 0)
(3 6.59476e-16 0)
(3 3.40367e-17 0)
(3 -3.25249e-16 0)
(3 -1.11927e-16 0)
(3 -8.89315e-16 0)
(3 -1.07403e-15 0)
(3 -1.33817e-15 0)
(3 -1.61288e-15 0)
(3 -2.67666e-15 0)
(3 -3.5304e-15 0)
(3 -4.13903e-15 0)
(3 -4.2703e-15 0)
(3 -4.25104e-15 0)
(3 -3.88853e-15 0)
(3 -3.47954e-15 0)
(3 -3.36869e-15 0)
(3 -3.30384e-15 0)
(3 -3.14033e-15 0)
(3 -3.1626e-15 0)
(3 -2.34455e-15 0)
(3 -1.79926e-15 0)
(3 -3.89858e-16 0)
(3 4.34429e-16 0)
(3 2.0673e-16 0)
(3 8.11017e-16 0)
(3 1.79391e-15 0)
(3 2.20394e-15 0)
(3 8.64494e-17 0)
(3 -5.27431e-16 0)
(3 -2.08521e-15 0)
(3 -2.28463e-15 0)
(3 -2.7983e-15 0)
(3 -2.15572e-15 0)
(3 -9.54373e-16 0)
(3 -3.93264e-16 0)
(3 -4.96322e-16 0)
(3 -5.59601e-17 0)
(3 3.4768e-16 0)
(3 -3.16141e-16 0)
(3 -8.31815e-16 0)
(3 -1.01326e-15 0)
(3 4.61526e-16 0)
(3 2.31485e-15 0)
(3 3.30196e-15 0)
(3 3.11287e-15 0)
(3 2.37174e-15 0)
(3 9.92442e-16 0)
(3 -2.8257e-17 0)
(3 -1.60964e-16 0)
(3 1.16493e-15 0)
(3 1.41044e-15 0)
(3 1.13266e-15 0)
(3 1.37866e-15 0)
(3 1.74687e-15 0)
(3 2.42738e-15 0)
(3 2.4526e-15 0)
(3 1.67049e-15 0)
(3 1.65208e-15 0)
(3 4.24645e-16 0)
(3 1.06372e-15 0)
(3 9.32591e-16 0)
(3 1.32487e-15 0)
(3 1.21978e-15 0)
(3 3.59435e-16 0)
(3 2.44872e-16 0)
(3 3.5725e-16 0)
(3 3.63183e-16 0)
(3 1.07438e-15 0)
(3 1.58925e-15 0)
(3 1.81865e-15 0)
(3 2.35401e-15 0)
(3 3.3086e-15 0)
(3 4.14483e-15 0)
(3 4.41518e-15 0)
(3 4.12971e-15 0)
(3 3.27575e-15 0)
(3 2.76386e-15 0)
(3 2.83218e-15 0)
(3 3.00403e-15 0)
(3 2.56e-15 0)
(3 1.5934e-15 0)
(3 1.43302e-15 0)
(3 1.43264e-15 0)
(3 1.66621e-15 0)
(3 1.25175e-15 0)
(3 1.37705e-15 0)
(3 1.80516e-15 0)
(3 1.59513e-15 0)
(3 1.76515e-15 0)
(3 1.34531e-15 0)
(3 1.19842e-15 0)
(3 1.25229e-15 0)
(3 1.23459e-15 0)
(3 5.23904e-16 0)
(3 9.03953e-16 0)
(3 1.38152e-15 0)
(3 1.64841e-15 0)
(3 1.57871e-15 0)
(3 1.37066e-15 0)
(3 7.3039e-16 0)
(3 2.85166e-16 0)
(3 -2.42664e-16 0)
(3 -7.41992e-16 0)
(3 -7.87109e-16 0)
(3 -1.6865e-15 0)
(3 -2.16944e-15 0)
(3 -2.38767e-15 0)
(3 -3.09505e-15 0)
(3 -4.38895e-15 0)
(3 -4.39765e-15 0)
(3 -4.00191e-15 0)
(3 -3.66046e-15 0)
(3 -3.2222e-15 0)
(3 -2.53218e-15 0)
(3 -1.94463e-15 0)
(3 -1.91163e-15 0)
(3 -7.71753e-16 0)
(3 2.50259e-17 0)
(3 7.86706e-16 0)
(3 1.40142e-15 0)
(3 2.08959e-15 0)
(3 2.89765e-15 0)
(3 2.97959e-15 0)
(3 1.91013e-15 0)
(3 9.01608e-16 0)
(3 2.74521e-16 0)
(3 1.79225e-15 0)
(3 1.90365e-15 0)
(3 3.03398e-15 0)
(3 3.55987e-15 0)
(3 3.07313e-15 0)
(3 1.78972e-15 0)
(3 -1.39032e-17 0)
(3 -8.29323e-16 0)
(3 -5.51364e-16 0)
(3 -2.41214e-16 0)
(3 9.83156e-16 0)
(3 2.06821e-15 0)
(3 4.80854e-15 0)
(3 6.4035e-15 0)
(3 5.48974e-15 0)
(3 3.37921e-15 0)
(3 2.09092e-15 0)
(3 2.08522e-17 0)
(3 -7.58234e-16 0)
(3 -1.33636e-16 0)
(3 6.92353e-16 0)
(3 1.02619e-15 0)
(3 1.50818e-15 0)
(3 2.11264e-15 0)
(3 2.83734e-15 0)
(3 2.58243e-15 0)
(3 2.71239e-15 0)
(3 3.08786e-15 0)
(3 -1.4588e-16 0)
(3 -1.61386e-16 0)
(3 -4.1914e-16 0)
(3 -4.04303e-16 0)
(3 -4.27772e-16 0)
(3 -6.99717e-16 0)
(3 -1.22427e-15 0)
(3 -1.60756e-15 0)
(3 -1.87881e-15 0)
(3 -1.48367e-15 0)
(3 -1.50016e-15 0)
(3 -1.54741e-15 0)
(3 -7.32188e-16 0)
(3 5.10116e-16 0)
(3 5.96622e-16 0)
(3 2.24219e-16 0)
(3 -6.67371e-17 0)
(3 2.23639e-17 0)
(3 -5.92786e-16 0)
(3 -1.15444e-15 0)
(3 -1.40977e-15 0)
(3 -1.77859e-15 0)
(3 -1.32708e-15 0)
(3 -8.69743e-16 0)
(3 -2.93964e-17 0)
(3 8.90479e-16 0)
(3 2.04565e-15 0)
(3 2.86052e-15 0)
(3 2.96524e-15 0)
(3 2.33645e-15 0)
(3 2.56768e-15 0)
(3 1.59519e-15 0)
(3 8.25217e-16 0)
(3 9.3656e-17 0)
(3 -1.44169e-16 0)
(3 -4.19883e-17 0)
(3 3.18066e-16 0)
(3 7.00839e-16 0)
(3 8.76816e-16 0)
(3 1.8264e-15 0)
(3 2.27734e-15 0)
(3 2.01658e-15 0)
(3 4.65112e-16 0)
(3 -3.86974e-16 0)
(3 -1.33333e-15 0)
(3 -1.90989e-15 0)
(3 -1.54931e-15 0)
(3 -8.70711e-16 0)
(3 -5.41212e-16 0)
(3 -1.3367e-16 0)
(3 -5.59228e-16 0)
(3 -1.55791e-15 0)
(3 -2.2949e-15 0)
(3 -2.93207e-15 0)
(3 -3.16825e-15 0)
(3 -3.39976e-15 0)
(3 -3.37533e-15 0)
(3 -1.65446e-15 0)
(3 -1.21265e-15 0)
(3 -1.03193e-15 0)
(3 -6.16897e-16 0)
(3 1.09351e-15 0)
(3 1.24539e-15 0)
(3 1.00707e-15 0)
(3 1.52469e-15 0)
(3 1.42597e-15 0)
(3 3.67109e-16 0)
(3 4.18138e-16 0)
(3 3.64124e-15 0)
(3 5.35242e-15 0)
(3 5.54327e-15 0)
(3 4.23221e-15 0)
(3 2.87495e-15 0)
(3 2.43564e-15 0)
(3 2.20845e-15 0)
(3 1.61328e-15 0)
(3 1.49436e-15 0)
(3 4.38687e-15 0)
(3 5.1576e-15 0)
(3 6.35566e-15 0)
(3 6.5454e-15 0)
(3 6.38896e-15 0)
(3 6.40283e-15 0)
(3 6.39459e-15 0)
(3 5.49454e-15 0)
(3 2.16893e-15 0)
(3 1.47436e-16 0)
(3 -5.47124e-17 0)
(3 -3.95528e-17 0)
(3 5.73328e-16 0)
(3 1.61625e-15 0)
(3 1.60305e-15 0)
(3 1.08103e-15 0)
(3 8.16881e-16 0)
(3 1.23628e-15 0)
(3 1.7652e-15 0)
(3 2.00746e-16 0)
(3 1.92974e-16 0)
(3 4.19336e-16 0)
(3 -7.84975e-17 0)
(3 -2.79198e-16 0)
(3 -4.06145e-17 0)
(3 -2.42258e-16 0)
(3 -4.57038e-16 0)
(3 -6.66543e-16 0)
(3 -1.17021e-15 0)
(3 -1.8374e-15 0)
(3 -2.65157e-15 0)
(3 -2.35229e-15 0)
(3 -2.19587e-15 0)
(3 -1.81327e-15 0)
(3 -2.05133e-15 0)
(3 -1.80926e-15 0)
(3 -1.41333e-15 0)
(3 -1.73233e-15 0)
(3 -2.59516e-15 0)
(3 -3.98872e-15 0)
(3 -3.85436e-15 0)
(3 -3.47616e-15 0)
(3 -3.51227e-15 0)
(3 -1.47089e-15 0)
(3 -2.52251e-16 0)
(3 3.64492e-15 0)
(3 5.21456e-15 0)
(3 4.96246e-15 0)
(3 4.30413e-15 0)
(3 3.60175e-15 0)
(3 2.78943e-15 0)
(3 1.95499e-15 0)
(3 6.63228e-16 0)
(3 -2.3811e-16 0)
(3 -4.99549e-16 0)
(3 -1.31488e-15 0)
(3 -2.15037e-15 0)
(3 -1.77198e-15 0)
(3 -8.85386e-16 0)
(3 -5.42731e-16 0)
(3 -1.11878e-15 0)
(3 -3.2531e-15 0)
(3 -4.69342e-15 0)
(3 -5.36031e-15 0)
(3 -5.26262e-15 0)
(3 -3.45616e-15 0)
(3 -1.73456e-15 0)
(3 -9.24711e-16 0)
(3 1.21051e-15 0)
(3 2.05397e-15 0)
(3 2.07196e-15 0)
(3 7.4629e-16 0)
(3 -1.02207e-16 0)
(3 -1.11282e-15 0)
(3 -2.26846e-15 0)
(3 -3.07202e-15 0)
(3 -2.42306e-15 0)
(3 -1.29458e-15 0)
(3 -1.12854e-15 0)
(3 -5.49743e-16 0)
(3 -4.59512e-16 0)
(3 -5.35154e-16 0)
(3 -8.56493e-16 0)
(3 -8.92403e-16 0)
(3 -3.73035e-16 0)
(3 -2.43131e-16 0)
(3 3.07401e-16 0)
(3 2.50576e-15 0)
(3 3.64025e-15 0)
(3 3.67968e-15 0)
(3 2.84624e-15 0)
(3 1.54096e-15 0)
(3 6.29969e-16 0)
(3 -6.47563e-16 0)
(3 -7.47974e-16 0)
(3 3.57836e-16 0)
(3 3.46612e-15 0)
(3 6.17849e-15 0)
(3 6.57505e-15 0)
(3 6.69964e-15 0)
(3 6.90772e-15 0)
(3 6.95268e-15 0)
(3 7.18473e-15 0)
(3 6.82877e-15 0)
(3 5.87515e-15 0)
(3 3.31174e-15 0)
(3 5.64849e-16 0)
(3 1.44734e-17 0)
(3 7.02422e-16 0)
(3 1.14542e-15 0)
(3 8.48198e-16 0)
(3 -6.45676e-17 0)
(3 -4.81753e-16 0)
(3 -5.64851e-16 0)
(3 6.11123e-16 0)
(3 -2.97417e-16 0)
(3 -8.38032e-16 0)
(3 -3.39708e-16 0)
(3 -2.72203e-16 0)
(3 -4.72382e-16 0)
(3 -9.61118e-17 0)
(3 4.86634e-16 0)
(3 7.60839e-16 0)
(3 5.25163e-16 0)
(3 -2.00679e-16 0)
(3 -8.69014e-16 0)
(3 -9.8359e-16 0)
(3 -1.06641e-15 0)
(3 -1.87848e-15 0)
(3 -1.94294e-15 0)
(3 -1.78129e-15 0)
(3 -8.89014e-16 0)
(3 -5.62659e-16 0)
(3 -6.80247e-16 0)
(3 -1.59082e-15 0)
(3 -2.8953e-15 0)
(3 -3.37831e-15 0)
(3 -3.66586e-15 0)
(3 -2.45019e-15 0)
(3 -1.52383e-15 0)
(3 -5.70002e-16 0)
(3 1.85823e-17 0)
(3 1.99379e-15 0)
(3 3.2107e-15 0)
(3 3.66677e-15 0)
(3 3.30054e-15 0)
(3 2.64776e-15 0)
(3 9.26169e-16 0)
(3 -2.65177e-16 0)
(3 -7.02649e-16 0)
(3 -9.28448e-16 0)
(3 -9.05e-16 0)
(3 -5.32772e-16 0)
(3 -1.54237e-16 0)
(3 -2.92086e-16 0)
(3 -5.37457e-16 0)
(3 -2.11267e-15 0)
(3 -4.63591e-15 0)
(3 -5.70883e-15 0)
(3 -4.74607e-15 0)
(3 -4.25e-15 0)
(3 -2.62628e-15 0)
(3 -2.50745e-15 0)
(3 -1.93405e-15 0)
(3 -1.59344e-15 0)
(3 -5.38769e-16 0)
(3 -1.50032e-17 0)
(3 3.06466e-16 0)
(3 -1.36246e-16 0)
(3 -1.1406e-15 0)
(3 -1.74796e-15 0)
(3 -1.80327e-15 0)
(3 -1.27876e-15 0)
(3 -7.58141e-16 0)
(3 -8.70352e-16 0)
(3 -1.18191e-15 0)
(3 -9.86188e-16 0)
(3 -1.15166e-15 0)
(3 -1.27268e-15 0)
(3 -1.15352e-15 0)
(3 -5.8049e-16 0)
(3 -1.27463e-16 0)
(3 1.82984e-16 0)
(3 -2.40356e-16 0)
(3 -1.37596e-15 0)
(3 -1.01232e-15 0)
(3 -1.1579e-15 0)
(3 -1.78691e-15 0)
(3 -2.47496e-15 0)
(3 -2.47178e-15 0)
(3 -1.4689e-15 0)
(3 7.26606e-16 0)
(3 3.2108e-15 0)
(3 4.81816e-15 0)
(3 5.964e-15 0)
(3 6.83444e-15 0)
(3 7.11586e-15 0)
(3 6.97943e-15 0)
(3 7.22881e-15 0)
(3 6.84318e-15 0)
(3 5.34008e-15 0)
(3 4.01908e-15 0)
(3 2.10367e-15 0)
(3 1.10852e-15 0)
(3 8.22109e-16 0)
(3 2.00556e-16 0)
(3 -7.85639e-17 0)
(3 -6.57985e-16 0)
(3 -7.48883e-16 0)
(3 -7.42758e-16 0)
(3 -6.38764e-16 0)
(3 -4.13193e-16 0)
(3 -5.05673e-16 0)
(3 -8.91627e-16 0)
(3 -1.0001e-15 0)
(3 -8.02606e-16 0)
(3 -7.27791e-16 0)
(3 -3.1109e-16 0)
(3 -6.45707e-17 0)
(3 -3.78423e-16 0)
(3 -3.75366e-16 0)
(3 -2.72531e-16 0)
(3 9.12151e-16 0)
(3 4.05514e-16 0)
(3 3.44955e-17 0)
(3 -1.30124e-16 0)
(3 7.49905e-17 0)
(3 4.90229e-16 0)
(3 1.16055e-15 0)
(3 1.14843e-15 0)
(3 -3.31421e-16 0)
(3 -1.29246e-15 0)
(3 -8.82279e-16 0)
(3 -6.71524e-16 0)
(3 -3.15376e-16 0)
(3 -3.97649e-16 0)
(3 -4.76517e-16 0)
(3 -2.40264e-16 0)
(3 9.6431e-16 0)
(3 2.4118e-15 0)
(3 2.52669e-15 0)
(3 1.96852e-15 0)
(3 1.92618e-15 0)
(3 1.20398e-15 0)
(3 1.34496e-15 0)
(3 1.10328e-15 0)
(3 5.13575e-16 0)
(3 -3.06266e-17 0)
(3 -2.86383e-16 0)
(3 -1.45103e-15 0)
(3 -1.70551e-15 0)
(3 -2.80893e-15 0)
(3 -2.39107e-15 0)
(3 -1.92078e-15 0)
(3 -2.27283e-15 0)
(3 -1.70369e-15 0)
(3 -1.7065e-15 0)
(3 -1.30225e-15 0)
(3 -5.88854e-16 0)
(3 1.35981e-17 0)
(3 -3.93459e-16 0)
(3 -9.50683e-16 0)
(3 -9.29515e-16 0)
(3 -8.50254e-17 0)
(3 -7.46775e-17 0)
(3 -7.08007e-16 0)
(3 -5.55495e-16 0)
(3 -3.89114e-17 0)
(3 2.77172e-16 0)
(3 -7.73614e-17 0)
(3 -1.22017e-15 0)
(3 -2.14199e-15 0)
(3 -2.71946e-15 0)
(3 -1.97158e-15 0)
(3 -1.87642e-15 0)
(3 -1.38969e-15 0)
(3 -1.11336e-15 0)
(3 -9.51718e-16 0)
(3 -6.50731e-16 0)
(3 -1.9923e-15 0)
(3 -3.62875e-15 0)
(3 -3.91791e-15 0)
(3 -4.09896e-15 0)
(3 -4.0315e-15 0)
(3 -3.27759e-15 0)
(3 -1.56115e-15 0)
(3 1.24222e-15 0)
(3 3.89484e-15 0)
(3 4.23229e-15 0)
(3 4.1599e-15 0)
(3 4.99057e-15 0)
(3 5.79904e-15 0)
(3 5.41693e-15 0)
(3 5.38987e-15 0)
(3 4.83605e-15 0)
(3 3.20114e-15 0)
(3 3.01218e-15 0)
(3 3.12939e-15 0)
(3 4.06574e-15 0)
(3 3.67682e-15 0)
(3 1.39357e-15 0)
(3 -1.33903e-15 0)
(3 -2.04557e-15 0)
(3 -1.35097e-15 0)
(3 5.11352e-17 0)
(3 4.63155e-16 0)
(3 -4.18849e-16 0)
(3 1.82816e-16 0)
(3 2.4868e-16 0)
(3 -8.63721e-17 0)
(3 -2.96912e-16 0)
(3 -6.41736e-16 0)
(3 -1.3438e-15 0)
(3 -7.84462e-16 0)
(3 -8.58612e-16 0)
(3 -4.58923e-16 0)
(3 4.2766e-16 0)
(3 1.58194e-15 0)
(3 1.56155e-15 0)
(3 1.01241e-15 0)
(3 9.48514e-16 0)
(3 9.16061e-16 0)
(3 9.52054e-16 0)
(3 1.075e-15 0)
(3 1.71192e-15 0)
(3 1.36117e-15 0)
(3 6.89991e-16 0)
(3 7.59297e-16 0)
(3 2.58107e-15 0)
(3 2.55576e-15 0)
(3 1.73208e-15 0)
(3 1.17431e-15 0)
(3 1.25297e-15 0)
(3 2.29365e-15 0)
(3 2.10574e-15 0)
(3 2.08861e-15 0)
(3 1.4694e-15 0)
(3 9.19609e-16 0)
(3 8.74558e-16 0)
(3 1.44408e-15 0)
(3 1.34277e-15 0)
(3 9.31356e-16 0)
(3 -2.21178e-17 0)
(3 -8.6129e-16 0)
(3 -1.50362e-15 0)
(3 -2.17382e-15 0)
(3 -2.98905e-15 0)
(3 -3.28174e-15 0)
(3 -2.99972e-15 0)
(3 -1.32933e-15 0)
(3 -2.82351e-16 0)
(3 2.04067e-16 0)
(3 -3.65029e-16 0)
(3 -1.21763e-15 0)
(3 -8.41306e-16 0)
(3 3.90762e-17 0)
(3 1.00566e-15 0)
(3 1.94341e-15 0)
(3 2.58511e-15 0)
(3 1.62951e-15 0)
(3 1.6169e-15 0)
(3 8.25148e-16 0)
(3 3.89816e-17 0)
(3 2.85578e-17 0)
(3 -1.0499e-15 0)
(3 -4.70208e-16 0)
(3 -9.99832e-16 0)
(3 -2.96496e-15 0)
(3 -5.34086e-15 0)
(3 -4.43921e-15 0)
(3 -3.5223e-15 0)
(3 -3.40342e-15 0)
(3 -2.07487e-15 0)
(3 -1.26383e-15 0)
(3 -1.10832e-15 0)
(3 -1.45014e-15 0)
(3 -2.21718e-15 0)
(3 -3.50833e-15 0)
(3 -3.66874e-15 0)
(3 -3.14809e-15 0)
(3 -1.70685e-15 0)
(3 -4.82703e-16 0)
(3 1.54533e-15 0)
(3 2.11078e-15 0)
(3 2.72796e-15 0)
(3 3.14858e-15 0)
(3 2.9091e-15 0)
(3 2.60395e-15 0)
(3 2.03027e-15 0)
(3 1.90083e-15 0)
(3 1.47749e-16 0)
(3 -3.19595e-16 0)
(3 -2.59616e-16 0)
(3 9.75459e-16 0)
(3 2.58352e-15 0)
(3 2.57969e-15 0)
(3 1.81674e-15 0)
(3 1.0002e-15 0)
(3 3.42732e-16 0)
(3 2.60225e-15 0)
(3 3.00102e-15 0)
(3 3.70584e-15 0)
(3 3.49238e-15 0)
(3 2.36322e-17 0)
(3 -1.67006e-16 0)
(3 -7.29573e-17 0)
(3 3.09947e-16 0)
(3 2.16079e-16 0)
(3 1.41663e-16 0)
(3 -8.87662e-17 0)
(3 -1.29917e-16 0)
(3 9.08361e-17 0)
(3 1.84303e-17 0)
(3 3.66445e-16 0)
(3 5.73159e-17 0)
(3 4.44479e-16 0)
(3 5.90636e-16 0)
(3 6.4885e-16 0)
(3 7.41969e-16 0)
(3 1.03094e-15 0)
(3 1.54722e-15 0)
(3 1.5264e-15 0)
(3 1.94256e-15 0)
(3 2.73593e-15 0)
(3 2.34602e-15 0)
(3 2.48779e-15 0)
(3 2.35036e-15 0)
(3 2.03041e-15 0)
(3 1.0417e-15 0)
(3 -3.53897e-16 0)
(3 -8.55678e-16 0)
(3 -1.33695e-15 0)
(3 -1.50437e-15 0)
(3 -1.55339e-15 0)
(3 -1.47436e-15 0)
(3 -1.79816e-15 0)
(3 -2.46913e-15 0)
(3 -3.28171e-15 0)
(3 -3.13417e-15 0)
(3 -2.61886e-15 0)
(3 -2.29252e-15 0)
(3 -2.0032e-15 0)
(3 -2.14859e-15 0)
(3 -1.84255e-15 0)
(3 -1.58932e-15 0)
(3 4.94079e-16 0)
(3 2.47056e-15 0)
(3 3.20923e-15 0)
(3 3.18278e-15 0)
(3 2.16746e-15 0)
(3 1.93405e-15 0)
(3 1.58455e-15 0)
(3 1.60659e-15 0)
(3 2.61872e-15 0)
(3 2.72774e-15 0)
(3 2.08654e-15 0)
(3 1.30871e-15 0)
(3 9.59926e-16 0)
(3 1.71152e-16 0)
(3 -6.04752e-16 0)
(3 -1.71922e-15 0)
(3 -3.34943e-15 0)
(3 -4.5253e-15 0)
(3 -3.9415e-15 0)
(3 -4.13346e-15 0)
(3 -3.68169e-15 0)
(3 -2.90925e-15 0)
(3 -2.01946e-15 0)
(3 -3.43266e-16 0)
(3 -4.06932e-17 0)
(3 -5.17363e-16 0)
(3 -4.29255e-16 0)
(3 -6.07263e-16 0)
(3 -9.79253e-16 0)
(3 -7.63616e-17 0)
(3 3.48909e-16 0)
(3 8.58829e-16 0)
(3 1.05905e-15 0)
(3 1.65823e-15 0)
(3 1.67385e-15 0)
(3 1.29144e-15 0)
(3 1.4849e-15 0)
(3 1.29073e-15 0)
(3 1.1066e-15 0)
(3 1.43832e-15 0)
(3 9.30372e-16 0)
(3 8.04118e-16 0)
(3 6.89681e-16 0)
(3 3.92433e-16 0)
(3 1.27055e-15 0)
(3 2.73435e-15 0)
(3 3.12405e-15 0)
(3 3.81206e-15 0)
(3 4.83699e-15 0)
(3 5.10689e-15 0)
(3 3.03251e-15 0)
(3 2.40309e-15 0)
(3 2.71142e-15 0)
(3 3.89823e-15 0)
(3 2.86916e-17 0)
(3 6.13055e-17 0)
(3 2.70482e-16 0)
(3 4.97354e-16 0)
(3 1.08258e-15 0)
(3 1.53218e-15 0)
(3 1.86866e-16 0)
(3 -1.59469e-16 0)
(3 1.78286e-16 0)
(3 1.81224e-16 0)
(3 -1.30448e-16 0)
(3 -6.03861e-16 0)
(3 -2.19112e-16 0)
(3 1.60372e-16 0)
(3 -1.82656e-17 0)
(3 -5.54231e-16 0)
(3 -2.47394e-16 0)
(3 2.77849e-16 0)
(3 5.41592e-16 0)
(3 4.61804e-16 0)
(3 7.45921e-16 0)
(3 4.61455e-16 0)
(3 1.19755e-15 0)
(3 2.58152e-15 0)
(3 2.05777e-15 0)
(3 6.51161e-16 0)
(3 -6.95212e-16 0)
(3 -2.54802e-15 0)
(3 -3.0295e-15 0)
(3 -2.77302e-15 0)
(3 -2.22983e-15 0)
(3 -1.87003e-15 0)
(3 -2.37649e-15 0)
(3 -2.49972e-15 0)
(3 -2.5203e-15 0)
(3 -2.32569e-15 0)
(3 -1.85345e-15 0)
(3 -1.57667e-15 0)
(3 -1.35416e-15 0)
(3 -2.35442e-16 0)
(3 8.48685e-16 0)
(3 1.4585e-15 0)
(3 1.85841e-15 0)
(3 3.06721e-15 0)
(3 2.57703e-15 0)
(3 2.43583e-15 0)
(3 2.92735e-15 0)
(3 3.46875e-15 0)
(3 2.56398e-15 0)
(3 1.35417e-15 0)
(3 1.08331e-15 0)
(3 2.6331e-16 0)
(3 -4.06406e-16 0)
(3 -7.35483e-16 0)
(3 -2.02325e-16 0)
(3 -3.87437e-16 0)
(3 -1.63058e-15 0)
(3 -2.60874e-15 0)
(3 -3.98513e-15 0)
(3 -4.36565e-15 0)
(3 -4.04489e-15 0)
(3 -3.39692e-15 0)
(3 -1.10081e-15 0)
(3 -1.66037e-16 0)
(3 8.81589e-16 0)
(3 7.64552e-16 0)
(3 7.81144e-16 0)
(3 6.81205e-16 0)
(3 7.5007e-17 0)
(3 3.93254e-16 0)
(3 1.63936e-15 0)
(3 2.15808e-15 0)
(3 2.71302e-15 0)
(3 2.79106e-15 0)
(3 2.53839e-15 0)
(3 1.48714e-15 0)
(3 7.41291e-16 0)
(3 -1.00134e-17 0)
(3 -1.88289e-15 0)
(3 -2.27691e-15 0)
(3 -2.56121e-15 0)
(3 -1.78972e-15 0)
(3 -1.30564e-15 0)
(3 -1.13649e-15 0)
(3 2.19265e-16 0)
(3 6.0623e-16 0)
(3 1.2424e-15 0)
(3 2.42874e-15 0)
(3 3.13799e-15 0)
(3 3.40185e-15 0)
(3 3.72559e-15 0)
(3 3.85636e-15 0)
(3 2.93197e-15 0)
(3 2.95785e-15 0)
(3 2.99528e-15 0)
(3 3.33081e-15 0)
(3 8.17901e-18 0)
(3 -4.8071e-18 0)
(3 -6.49164e-17 0)
(3 -1.10905e-16 0)
(3 -1.13781e-16 0)
(3 -1.35762e-16 0)
(3 -3.65461e-16 0)
(3 -2.57228e-16 0)
(3 7.50654e-16 0)
(3 1.06228e-15 0)
(3 6.69571e-16 0)
(3 7.11452e-16 0)
(3 6.94134e-16 0)
(3 -3.84434e-16 0)
(3 -1.00908e-15 0)
(3 -1.41907e-15 0)
(3 -1.77062e-15 0)
(3 -1.80767e-15 0)
(3 -1.41614e-15 0)
(3 -3.53221e-16 0)
(3 -6.93876e-18 0)
(3 1.13995e-15 0)
(3 8.98117e-16 0)
(3 1.30887e-15 0)
(3 2.13562e-16 0)
(3 -5.85295e-16 0)
(3 -1.21856e-15 0)
(3 -1.69627e-15 0)
(3 -1.9759e-15 0)
(3 -1.1212e-15 0)
(3 -5.26446e-16 0)
(3 -6.11589e-16 0)
(3 -5.65217e-16 0)
(3 -3.0402e-16 0)
(3 4.54249e-16 0)
(3 8.9068e-16 0)
(3 1.3671e-15 0)
(3 1.42197e-15 0)
(3 9.73189e-16 0)
(3 1.12972e-15 0)
(3 4.70949e-16 0)
(3 1.05329e-16 0)
(3 -1.18237e-15 0)
(3 -1.59099e-15 0)
(3 -1.52953e-15 0)
(3 -5.6028e-16 0)
(3 7.31448e-16 0)
(3 6.97884e-16 0)
(3 8.04727e-16 0)
(3 6.83768e-16 0)
(3 1.57965e-16 0)
(3 -4.9006e-16 0)
(3 -7.1025e-16 0)
(3 -1.24346e-15 0)
(3 -1.55832e-15 0)
(3 -1.93933e-15 0)
(3 -2.7306e-15 0)
(3 -3.13889e-15 0)
(3 -4.34043e-15 0)
(3 -4.60014e-15 0)
(3 -4.40587e-15 0)
(3 -4.70735e-15 0)
(3 -4.19807e-15 0)
(3 -4.15017e-15 0)
(3 -3.30781e-15 0)
(3 -1.83921e-15 0)
(3 -7.13251e-16 0)
(3 6.82524e-16 0)
(3 6.24042e-16 0)
(3 1.44568e-15 0)
(3 2.41056e-15 0)
(3 2.65058e-15 0)
(3 3.13784e-15 0)
(3 3.45939e-15 0)
(3 3.11576e-15 0)
(3 2.61156e-15 0)
(3 2.06016e-15 0)
(3 9.20749e-16 0)
(3 3.2514e-16 0)
(3 -1.30696e-15 0)
(3 -1.78477e-15 0)
(3 -1.83186e-15 0)
(3 -1.17152e-15 0)
(3 -2.86027e-16 0)
(3 1.06349e-15 0)
(3 3.40668e-15 0)
(3 4.18165e-15 0)
(3 4.74707e-15 0)
(3 4.65699e-15 0)
(3 4.78494e-15 0)
(3 5.017e-15 0)
(3 5.24497e-15 0)
(3 5.31311e-15 0)
(3 5.278e-15 0)
(3 4.73939e-15 0)
(3 4.11999e-15 0)
(3 -8.33471e-17 0)
(3 -1.17929e-16 0)
(3 -4.37069e-16 0)
(3 -1.26552e-15 0)
(3 -1.98055e-15 0)
(3 -2.0746e-15 0)
(3 -1.51597e-15 0)
(3 -9.35445e-17 0)
(3 -3.56886e-16 0)
(3 -5.06304e-16 0)
(3 -7.25135e-16 0)
(3 -3.61734e-16 0)
(3 -2.90418e-16 0)
(3 -4.28293e-16 0)
(3 -2.58745e-16 0)
(3 2.54181e-16 0)
(3 -1.86087e-16 0)
(3 -1.25502e-15 0)
(3 -1.0338e-15 0)
(3 -7.44221e-17 0)
(3 1.24136e-15 0)
(3 1.82338e-15 0)
(3 6.23252e-16 0)
(3 -1.23125e-15 0)
(3 -1.53226e-15 0)
(3 -1.50113e-15 0)
(3 -1.25425e-15 0)
(3 -1.21656e-15 0)
(3 -1.55165e-15 0)
(3 -1.30693e-15 0)
(3 -8.69717e-16 0)
(3 -3.3989e-16 0)
(3 5.79798e-16 0)
(3 1.48256e-15 0)
(3 2.27115e-15 0)
(3 2.9164e-15 0)
(3 2.67915e-15 0)
(3 2.25137e-15 0)
(3 1.55571e-15 0)
(3 8.96691e-17 0)
(3 1.74604e-16 0)
(3 -1.07657e-16 0)
(3 -7.93344e-16 0)
(3 -2.12665e-15 0)
(3 -1.89973e-15 0)
(3 -9.52495e-16 0)
(3 -8.07642e-17 0)
(3 -4.37229e-16 0)
(3 -1.36841e-15 0)
(3 -1.43517e-15 0)
(3 -1.40637e-15 0)
(3 -1.16901e-15 0)
(3 -9.23643e-16 0)
(3 5.12993e-17 0)
(3 1.13174e-16 0)
(3 1.4871e-17 0)
(3 -1.49524e-16 0)
(3 -3.36076e-16 0)
(3 -1.22291e-15 0)
(3 -2.86103e-15 0)
(3 -3.19395e-15 0)
(3 -3.06864e-15 0)
(3 -4.01266e-15 0)
(3 -4.01378e-15 0)
(3 -3.42627e-15 0)
(3 -2.89506e-15 0)
(3 -2.55911e-15 0)
(3 -1.27778e-15 0)
(3 5.30023e-16 0)
(3 1.87843e-15 0)
(3 1.84024e-15 0)
(3 1.99706e-15 0)
(3 2.15347e-15 0)
(3 2.65744e-15 0)
(3 2.71923e-15 0)
(3 3.42961e-15 0)
(3 3.43384e-15 0)
(3 2.42281e-15 0)
(3 7.05919e-16 0)
(3 -4.17333e-16 0)
(3 -8.02291e-16 0)
(3 -6.77851e-16 0)
(3 -9.21138e-17 0)
(3 1.21306e-15 0)
(3 1.76148e-15 0)
(3 4.186e-15 0)
(3 4.99677e-15 0)
(3 5.40416e-15 0)
(3 5.15857e-15 0)
(3 4.61546e-15 0)
(3 4.33267e-15 0)
(3 5.87002e-15 0)
(3 6.47948e-15 0)
(3 6.8837e-15 0)
(3 5.52797e-15 0)
(3 4.78203e-15 0)
(3 -3.27006e-17 0)
(3 -2.14985e-16 0)
(3 -2.00715e-16 0)
(3 -7.99532e-16 0)
(3 -1.946e-16 0)
(3 -6.49868e-16 0)
(3 -1.3732e-15 0)
(3 -1.45561e-15 0)
(3 -1.74361e-15 0)
(3 -1.48839e-15 0)
(3 -6.70427e-16 0)
(3 -2.96914e-16 0)
(3 -1.05328e-16 0)
(3 1.5574e-16 0)
(3 -2.65586e-16 0)
(3 -6.70971e-16 0)
(3 -6.66069e-16 0)
(3 -9.65048e-16 0)
(3 -2.10886e-16 0)
(3 -1.59015e-16 0)
(3 -2.31793e-16 0)
(3 -1.03394e-15 0)
(3 -1.49625e-15 0)
(3 -1.72026e-15 0)
(3 -1.01919e-15 0)
(3 1.17316e-16 0)
(3 5.19297e-16 0)
(3 1.67498e-15 0)
(3 1.64296e-15 0)
(3 9.62001e-16 0)
(3 -5.43613e-16 0)
(3 -4.01985e-16 0)
(3 5.5017e-16 0)
(3 -8.83054e-17 0)
(3 -3.17504e-16 0)
(3 -1.07486e-16 0)
(3 4.52712e-16 0)
(3 5.60124e-16 0)
(3 3.0677e-16 0)
(3 3.96597e-16 0)
(3 7.92814e-16 0)
(3 6.44882e-16 0)
(3 1.29392e-15 0)
(3 1.41631e-15 0)
(3 1.2291e-15 0)
(3 1.47089e-15 0)
(3 1.71257e-15 0)
(3 1.78883e-15 0)
(3 1.08144e-15 0)
(3 5.05998e-16 0)
(3 3.67103e-16 0)
(3 4.99113e-16 0)
(3 1.58008e-15 0)
(3 1.4245e-15 0)
(3 9.11711e-16 0)
(3 4.53478e-16 0)
(3 6.87095e-17 0)
(3 1.69708e-16 0)
(3 7.02281e-16 0)
(3 1.05717e-15 0)
(3 2.21414e-16 0)
(3 -1.65858e-16 0)
(3 -2.00825e-16 0)
(3 -6.78876e-16 0)
(3 -1.16808e-15 0)
(3 -2.11775e-15 0)
(3 -2.17705e-15 0)
(3 -1.56667e-15 0)
(3 -7.96408e-16 0)
(3 8.70506e-16 0)
(3 1.85592e-15 0)
(3 2.53778e-15 0)
(3 2.92733e-15 0)
(3 3.05355e-15 0)
(3 2.5827e-15 0)
(3 2.04109e-15 0)
(3 1.71004e-15 0)
(3 1.00732e-15 0)
(3 2.62726e-17 0)
(3 -5.60529e-16 0)
(3 -3.55715e-17 0)
(3 -1.76299e-17 0)
(3 1.3847e-17 0)
(3 1.10341e-15 0)
(3 1.7622e-15 0)
(3 2.34113e-15 0)
(3 3.97427e-15 0)
(3 4.70783e-15 0)
(3 4.86602e-15 0)
(3 4.40293e-15 0)
(3 4.55748e-15 0)
(3 4.36873e-15 0)
(3 4.34504e-15 0)
(3 4.92712e-15 0)
(3 4.79505e-15 0)
(3 4.569e-15 0)
(3 2.83411e-18 0)
(3 -3.55905e-17 0)
(3 -8.64504e-17 0)
(3 4.58404e-16 0)
(3 1.81341e-15 0)
(3 1.49366e-15 0)
(3 2.16281e-16 0)
(3 -3.67499e-17 0)
(3 8.73038e-16 0)
(3 8.20936e-16 0)
(3 7.57738e-16 0)
(3 6.25152e-16 0)
(3 4.39132e-16 0)
(3 8.93546e-16 0)
(3 2.9495e-17 0)
(3 -1.3327e-15 0)
(3 -1.33922e-15 0)
(3 -4.31909e-16 0)
(3 -9.15279e-16 0)
(3 -1.73921e-15 0)
(3 -2.29197e-15 0)
(3 -2.32329e-15 0)
(3 -1.86664e-15 0)
(3 -1.30699e-15 0)
(3 -1.23544e-15 0)
(3 -8.23818e-16 0)
(3 -4.13616e-16 0)
(3 6.04661e-16 0)
(3 1.45034e-15 0)
(3 1.69776e-15 0)
(3 1.47533e-15 0)
(3 9.38436e-16 0)
(3 1.29511e-16 0)
(3 -5.94743e-16 0)
(3 -1.28347e-15 0)
(3 -1.05711e-15 0)
(3 -1.24549e-15 0)
(3 -9.79865e-16 0)
(3 -4.78677e-16 0)
(3 2.95427e-17 0)
(3 -4.18428e-16 0)
(3 -4.64704e-16 0)
(3 1.54428e-16 0)
(3 2.15383e-15 0)
(3 3.31985e-15 0)
(3 3.76065e-15 0)
(3 3.36936e-15 0)
(3 2.72899e-15 0)
(3 2.59714e-15 0)
(3 1.50362e-15 0)
(3 1.27048e-15 0)
(3 1.12622e-15 0)
(3 1.34964e-15 0)
(3 1.3452e-15 0)
(3 1.65151e-15 0)
(3 1.49479e-15 0)
(3 9.61632e-16 0)
(3 4.29926e-16 0)
(3 4.73345e-16 0)
(3 4.20171e-16 0)
(3 5.69879e-17 0)
(3 -3.24974e-16 0)
(3 -1.23134e-16 0)
(3 6.39852e-18 0)
(3 -6.42997e-16 0)
(3 -8.62986e-16 0)
(3 -1.91574e-15 0)
(3 -1.57002e-15 0)
(3 -1.68424e-15 0)
(3 -7.81552e-16 0)
(3 1.30425e-15 0)
(3 2.60697e-15 0)
(3 2.41387e-15 0)
(3 1.58143e-15 0)
(3 1.01128e-15 0)
(3 -4.39193e-16 0)
(3 -7.24412e-16 0)
(3 -3.15788e-16 0)
(3 4.0594e-16 0)
(3 -1.55589e-16 0)
(3 -6.07687e-16 0)
(3 -1.10665e-15 0)
(3 -1.13728e-15 0)
(3 -8.71751e-16 0)
(3 -1.18315e-16 0)
(3 -3.15187e-16 0)
(3 4.38539e-16 0)
(3 1.42068e-15 0)
(3 2.10739e-15 0)
(3 2.62614e-15 0)
(3 3.76052e-15 0)
(3 3.94619e-15 0)
(3 2.97584e-15 0)
(3 2.20866e-15 0)
(3 2.27467e-15 0)
(3 2.46975e-15 0)
(3 1.6278e-16 0)
(3 3.32131e-17 0)
(3 -4.84836e-17 0)
(3 5.06456e-16 0)
(3 9.14006e-16 0)
(3 2.10702e-15 0)
(3 2.29003e-15 0)
(3 2.09482e-15 0)
(3 2.05599e-15 0)
(3 1.93025e-15 0)
(3 1.43461e-15 0)
(3 6.84735e-16 0)
(3 2.99584e-16 0)
(3 5.34174e-17 0)
(3 1.0486e-16 0)
(3 3.56865e-16 0)
(3 6.89337e-16 0)
(3 2.86281e-16 0)
(3 -3.29358e-16 0)
(3 -9.63443e-16 0)
(3 -2.03509e-15 0)
(3 -2.10921e-15 0)
(3 -1.51757e-15 0)
(3 -9.53082e-16 0)
(3 -2.41211e-16 0)
(3 -3.1445e-16 0)
(3 -3.2476e-16 0)
(3 -5.43949e-16 0)
(3 -5.20362e-16 0)
(3 4.95499e-17 0)
(3 6.97308e-16 0)
(3 6.69935e-16 0)
(3 4.48868e-18 0)
(3 -7.11106e-16 0)
(3 -5.87326e-16 0)
(3 -1.18943e-15 0)
(3 -2.47132e-15 0)
(3 -2.63433e-15 0)
(3 -2.26427e-15 0)
(3 -1.70087e-15 0)
(3 -1.01851e-15 0)
(3 6.55592e-16 0)
(3 9.20167e-16 0)
(3 9.8097e-16 0)
(3 9.85274e-16 0)
(3 1.08085e-15 0)
(3 9.83821e-16 0)
(3 8.87602e-16 0)
(3 1.95334e-16 0)
(3 2.40775e-18 0)
(3 -7.62729e-16 0)
(3 -1.29425e-15 0)
(3 -1.46141e-15 0)
(3 -8.85347e-16 0)
(3 3.06029e-16 0)
(3 2.13733e-16 0)
(3 2.33335e-16 0)
(3 -2.12176e-16 0)
(3 -8.52602e-16 0)
(3 -1.33261e-15 0)
(3 -1.05439e-15 0)