/*--------------------------------*- C++ -*----------------------------------*\
  =========                 |
  \\      /  F ield         | OpenFOAM: The Open Source CFD Toolbox
   \\    /   O peration     | Website:  https://openfoam.org
    \\  /    A nd           | Version:  7
     \\/     M anipulation  |
\*---------------------------------------------------------------------------*/
FoamFile
{
    version     2.0;
    format      ascii;
    class       volVectorField;
    location    "0.5";
    object      U;
}
// * * * * * * * * * * * * * * * * * * * * * * * * * * * * * * * * * * * * * //

dimensions      [0 1 -1 0 0 0 0];

internalField   nonuniform List<vector> 
73728
(
(3 -3.07912e-17 0)
(3 -1.313e-17 0)
(3 -8.82265e-19 0)
(3 -3.0641e-16 0)
(3 -2.50166e-17 0)
(3 6.83594e-16 0)
(3 3.82757e-16 0)
(3 7.54172e-16 0)
(3 1.09836e-15 0)
(3 9.76535e-16 0)
(3 6.47881e-16 0)
(3 9.48266e-16 0)
(3 3.4783e-16 0)
(3 -1.94291e-16 0)
(3 -4.77638e-16 0)
(3 -6.80173e-16 0)
(3 -5.83648e-16 0)
(3 -5.69097e-16 0)
(3 -4.0348e-16 0)
(3 7.25669e-16 0)
(3 1.90315e-15 0)
(3 3.04208e-15 0)
(3 2.2033e-15 0)
(3 9.18132e-16 0)
(3 -6.09287e-16 0)
(3 -1.00254e-15 0)
(3 -1.31156e-15 0)
(3 -8.37499e-16 0)
(3 -5.02448e-16 0)
(3 -2.15389e-16 0)
(3 4.19821e-17 0)
(3 -2.11154e-16 0)
(3 5.42886e-17 0)
(3 9.24272e-16 0)
(3 1.31641e-15 0)
(3 8.38175e-16 0)
(3 -2.89305e-17 0)
(3 5.22014e-16 0)
(3 1.05587e-15 0)
(3 1.43713e-15 0)
(3 7.97115e-16 0)
(3 -6.85958e-16 0)
(3 -6.41908e-16 0)
(3 1.11338e-15 0)
(3 5.8962e-16 0)
(3 -2.34397e-16 0)
(3 -1.11113e-15 0)
(3 -1.32105e-15 0)
(3 -8.85449e-16 0)
(3 -1.35296e-16 0)
(3 -2.81486e-16 0)
(3 -1.04296e-16 0)
(3 -1.12213e-16 0)
(3 -1.47111e-16 0)
(3 -6.29471e-16 0)
(3 -3.80954e-17 0)
(3 2.50172e-16 0)
(3 9.51133e-17 0)
(3 3.53186e-16 0)
(3 9.69375e-16 0)
(3 6.90013e-16 0)
(3 -2.9356e-16 0)
(3 1.13563e-17 0)
(3 5.11473e-16 0)
(3 -3.27704e-18 0)
(3 -6.58839e-16 0)
(3 -7.19012e-16 0)
(3 5.64301e-16 0)
(3 7.07659e-16 0)
(3 1.2966e-15 0)
(3 1.8782e-15 0)
(3 2.17805e-15 0)
(3 2.52054e-15 0)
(3 3.22497e-15 0)
(3 3.37358e-15 0)
(3 3.86522e-15 0)
(3 1.33132e-15 0)
(3 1.89948e-16 0)
(3 -6.26109e-16 0)
(3 1.13983e-16 0)
(3 8.66836e-16 0)
(3 4.15879e-16 0)
(3 -1.88506e-16 0)
(3 5.62852e-16 0)
(3 1.38154e-15 0)
(3 1.12965e-15 0)
(3 7.13931e-16 0)
(3 -3.63381e-16 0)
(3 -7.06563e-16 0)
(3 7.63979e-17 0)
(3 7.78363e-16 0)
(3 1.55873e-15 0)
(3 2.3682e-15 0)
(3 2.02617e-15 0)
(3 9.53699e-16 0)
(3 -4.02603e-17 0)
(3 1.63017e-17 0)
(3 -6.27968e-17 0)
(3 1.18347e-17 0)
(3 -1.7383e-16 0)
(3 -5.27365e-16 0)
(3 -5.24341e-16 0)
(3 -4.43109e-16 0)
(3 -2.99061e-17 0)
(3 1.01186e-15 0)
(3 1.62544e-15 0)
(3 1.09816e-15 0)
(3 6.36943e-16 0)
(3 1.55868e-16 0)
(3 -1.13444e-15 0)
(3 -1.62849e-15 0)
(3 -2.03152e-15 0)
(3 -1.98497e-15 0)
(3 -1.65575e-15 0)
(3 -1.21842e-15 0)
(3 6.68158e-17 0)
(3 1.82128e-15 0)
(3 2.26293e-15 0)
(3 1.96297e-15 0)
(3 4.74255e-16 0)
(3 -1.31973e-15 0)
(3 -1.53639e-15 0)
(3 -6.67574e-16 0)
(3 -2.18972e-16 0)
(3 -2.50083e-16 0)
(3 -5.17299e-16 0)
(3 -2.99933e-16 0)
(3 -4.04224e-16 0)
(3 -4.96822e-16 0)
(3 3.92194e-16 0)
(3 1.02423e-15 0)
(3 5.22481e-16 0)
(3 -1.83192e-17 0)
(3 3.77162e-16 0)
(3 8.66894e-16 0)
(3 6.04304e-16 0)
(3 -3.01514e-16 0)
(3 -1.72693e-15 0)
(3 -2.19949e-15 0)
(3 1.05089e-15 0)
(3 1.34578e-15 0)
(3 1.07638e-15 0)
(3 -8.75741e-17 0)
(3 -1.55128e-15 0)
(3 -1.36437e-15 0)
(3 -7.23036e-16 0)
(3 -6.94151e-16 0)
(3 -1.38329e-15 0)
(3 -1.44197e-15 0)
(3 -1.19718e-15 0)
(3 -3.01077e-16 0)
(3 1.54924e-15 0)
(3 2.01383e-15 0)
(3 1.60509e-15 0)
(3 8.66153e-16 0)
(3 5.88963e-16 0)
(3 4.1114e-16 0)
(3 1.37682e-16 0)
(3 3.96926e-16 0)
(3 7.31524e-16 0)
(3 7.22521e-16 0)
(3 9.69248e-17 0)
(3 -7.39803e-16 0)
(3 9.67977e-16 0)
(3 2.12836e-15 0)
(3 2.60384e-15 0)
(3 3.17978e-15 0)
(3 3.99075e-15 0)
(3 4.25398e-15 0)
(3 4.22555e-15 0)
(3 4.38182e-15 0)
(3 5.16306e-15 0)
(3 2.99644e-15 0)
(3 -7.54143e-16 0)
(3 -1.6591e-15 0)
(3 -1.04386e-15 0)
(3 7.1062e-16 0)
(3 7.12011e-16 0)
(3 4.88737e-16 0)
(3 1.04439e-16 0)
(3 -9.02721e-16 0)
(3 6.4475e-17 0)
(3 3.31941e-16 0)
(3 -2.7181e-16 0)
(3 -3.95386e-16 0)
(3 2.01522e-15 0)
(3 3.73977e-15 0)
(3 4.14504e-15 0)
(3 4.16825e-15 0)
(3 2.84607e-15 0)
(3 2.60599e-15 0)
(3 -1.263e-15 0)
(3 1.64988e-19 0)
(3 2.81578e-17 0)
(3 2.85801e-16 0)
(3 3.03412e-16 0)
(3 -4.30196e-17 0)
(3 -9.38712e-16 0)
(3 -7.09376e-16 0)
(3 1.78178e-16 0)
(3 4.35653e-16 0)
(3 4.79005e-16 0)
(3 1.50802e-16 0)
(3 -3.19136e-16 0)
(3 -1.56946e-16 0)
(3 1.98725e-16 0)
(3 -1.05496e-15 0)
(3 -1.42696e-15 0)
(3 -1.42397e-15 0)
(3 -1.18247e-15 0)
(3 -9.93645e-16 0)
(3 -9.96373e-16 0)
(3 -9.44174e-16 0)
(3 -1.09074e-15 0)
(3 -8.86114e-16 0)
(3 -8.51415e-16 0)
(3 -5.7703e-16 0)
(3 -6.96496e-17 0)
(3 3.54688e-16 0)
(3 7.38678e-17 0)
(3 4.46133e-17 0)
(3 2.31489e-16 0)
(3 2.72728e-16 0)
(3 5.1862e-16 0)
(3 1.04669e-15 0)
(3 9.11808e-16 0)
(3 -2.23512e-16 0)
(3 -1.041e-15 0)
(3 -7.26717e-16 0)
(3 -7.82838e-16 0)
(3 -1.2666e-15 0)
(3 -5.15071e-16 0)
(3 4.14728e-16 0)
(3 1.62196e-15 0)
(3 1.80136e-15 0)
(3 8.99314e-16 0)
(3 4.17477e-16 0)
(3 9.77422e-16 0)
(3 1.12443e-15 0)
(3 -3.58491e-16 0)
(3 -8.35461e-16 0)
(3 -8.29727e-16 0)
(3 -4.54739e-16 0)
(3 -7.47779e-16 0)
(3 -1.30077e-15 0)
(3 -1.71343e-15 0)
(3 -9.62355e-16 0)
(3 4.94614e-16 0)
(3 1.40627e-15 0)
(3 3.06063e-15 0)
(3 2.65744e-15 0)
(3 1.3505e-15 0)
(3 6.61206e-16 0)
(3 1.33443e-15 0)
(3 1.4393e-15 0)
(3 1.5914e-15 0)
(3 1.5535e-15 0)
(3 6.0248e-16 0)
(3 5.62296e-16 0)
(3 1.26585e-15 0)
(3 2.79102e-15 0)
(3 3.72259e-15 0)
(3 2.52599e-15 0)
(3 2.19031e-15 0)
(3 3.59027e-15 0)
(3 4.7986e-15 0)
(3 5.727e-15 0)
(3 5.15497e-15 0)
(3 3.56526e-15 0)
(3 1.35705e-15 0)
(3 7.19306e-16 0)
(3 -1.43088e-17 0)
(3 3.75545e-16 0)
(3 1.30654e-15 0)
(3 1.55531e-15 0)
(3 8.64669e-16 0)
(3 -2.87743e-16 0)
(3 5.82522e-16 0)
(3 9.0614e-16 0)
(3 5.23717e-16 0)
(3 -2.13874e-16 0)
(3 5.90925e-16 0)
(3 1.05806e-15 0)
(3 1.58477e-15 0)
(3 2.42381e-15 0)
(3 1.42316e-15 0)
(3 2.27746e-15 0)
(3 -1.49097e-15 0)
(3 -9.17708e-17 0)
(3 -5.21918e-17 0)
(3 -5.33435e-16 0)
(3 -7.7958e-16 0)
(3 -3.38112e-16 0)
(3 -1.39529e-16 0)
(3 3.17012e-16 0)
(3 7.77402e-16 0)
(3 5.78694e-16 0)
(3 -4.95371e-16 0)
(3 -6.70857e-16 0)
(3 -4.78551e-16 0)
(3 -1.4131e-16 0)
(3 8.12915e-16 0)
(3 8.18609e-16 0)
(3 3.29537e-16 0)
(3 2.51361e-16 0)
(3 1.59519e-16 0)
(3 -2.55546e-16 0)
(3 -5.06607e-16 0)
(3 -9.58789e-16 0)
(3 -1.1066e-15 0)
(3 -8.12887e-16 0)
(3 -1.95866e-16 0)
(3 7.5967e-16 0)
(3 1.72954e-15 0)
(3 7.61483e-16 0)
(3 -5.17018e-16 0)
(3 -7.46722e-16 0)
(3 -8.81615e-16 0)
(3 -4.40704e-16 0)
(3 8.51558e-16 0)
(3 1.76511e-15 0)
(3 1.54657e-15 0)
(3 7.4002e-16 0)
(3 6.31672e-18 0)
(3 1.31257e-16 0)
(3 1.33443e-16 0)
(3 -2.10228e-16 0)
(3 3.12365e-16 0)
(3 1.42345e-15 0)
(3 2.16051e-15 0)
(3 2.50315e-15 0)
(3 1.785e-15 0)
(3 1.13145e-15 0)
(3 1.63819e-15 0)
(3 1.97623e-15 0)
(3 9.5819e-16 0)
(3 1.10754e-16 0)
(3 -4.12243e-16 0)
(3 -4.69707e-16 0)
(3 5.77437e-17 0)
(3 -4.09136e-16 0)
(3 -1.5972e-15 0)
(3 -2.09402e-15 0)
(3 -1.62253e-15 0)
(3 -6.84162e-18 0)
(3 1.2396e-15 0)
(3 1.19496e-15 0)
(3 7.45585e-16 0)
(3 1.47072e-16 0)
(3 3.10719e-16 0)
(3 7.55842e-16 0)
(3 8.76508e-16 0)
(3 4.60767e-16 0)
(3 2.66255e-16 0)
(3 6.43931e-16 0)
(3 7.76131e-16 0)
(3 1.19882e-15 0)
(3 2.56023e-15 0)
(3 2.88881e-15 0)
(3 2.65726e-15 0)
(3 3.05856e-15 0)
(3 4.49844e-15 0)
(3 5.09823e-15 0)
(3 5.75343e-15 0)
(3 5.52711e-15 0)
(3 4.60799e-15 0)
(3 2.35459e-15 0)
(3 9.0316e-16 0)
(3 1.11334e-15 0)
(3 1.07702e-15 0)
(3 1.27966e-15 0)
(3 1.67152e-15 0)
(3 2.53629e-15 0)
(3 1.88781e-15 0)
(3 1.41732e-15 0)
(3 1.36092e-15 0)
(3 -1.1532e-16 0)
(3 -2.11745e-15 0)
(3 -2.08136e-15 0)
(3 -1.87093e-15 0)
(3 -1.55513e-15 0)
(3 -1.89039e-15 0)
(3 -2.70526e-15 0)
(3 -2.23959e-15 0)
(3 -5.92158e-17 0)
(3 -2.6101e-16 0)
(3 -7.98309e-16 0)
(3 -1.27991e-15 0)
(3 -1.18008e-15 0)
(3 -2.22771e-16 0)
(3 1.72729e-16 0)
(3 1.73671e-17 0)
(3 1.90824e-16 0)
(3 1.96242e-16 0)
(3 5.84769e-16 0)
(3 5.7784e-16 0)
(3 2.95168e-16 0)
(3 8.01363e-16 0)
(3 1.29196e-15 0)
(3 1.55077e-15 0)
(3 1.46318e-15 0)
(3 1.07976e-15 0)
(3 6.38872e-16 0)
(3 1.4697e-16 0)
(3 9.94329e-17 0)
(3 2.59646e-17 0)
(3 2.09849e-16 0)
(3 9.73167e-16 0)
(3 2.49341e-15 0)
(3 2.78332e-15 0)
(3 1.02267e-15 0)
(3 -6.41352e-16 0)
(3 -4.80593e-16 0)
(3 -2.17205e-16 0)
(3 6.37191e-16 0)
(3 1.12803e-15 0)
(3 1.36843e-15 0)
(3 1.60498e-15 0)
(3 1.67808e-15 0)
(3 1.73055e-15 0)
(3 1.59058e-15 0)
(3 6.61248e-17 0)
(3 -6.88052e-16 0)
(3 -6.0888e-17 0)
(3 1.52046e-15 0)
(3 2.79262e-15 0)
(3 2.54363e-15 0)
(3 1.30531e-15 0)
(3 2.02382e-15 0)
(3 2.64194e-15 0)
(3 3.4458e-15 0)
(3 2.66289e-15 0)
(3 3.91961e-16 0)
(3 -8.47138e-16 0)
(3 -1.2036e-15 0)
(3 -9.22756e-16 0)
(3 -1.23482e-15 0)
(3 -1.07089e-15 0)
(3 -1.1441e-15 0)
(3 -6.16206e-16 0)
(3 -1.22238e-16 0)
(3 -5.85558e-17 0)
(3 2.54243e-16 0)
(3 1.16372e-15 0)
(3 1.54239e-15 0)
(3 2.19396e-15 0)
(3 1.70523e-15 0)
(3 6.21636e-16 0)
(3 3.53638e-16 0)
(3 1.8982e-16 0)
(3 3.98006e-16 0)
(3 6.30087e-16 0)
(3 4.36034e-17 0)
(3 -7.45113e-16 0)
(3 -7.5838e-16 0)
(3 4.04975e-15 0)
(3 5.66912e-15 0)
(3 7.11219e-15 0)
(3 7.42093e-15 0)
(3 8.56866e-15 0)
(3 8.16034e-15 0)
(3 4.5051e-15 0)
(3 2.88421e-15 0)
(3 1.52644e-15 0)
(3 1.51513e-15 0)
(3 1.4343e-15 0)
(3 1.05361e-15 0)
(3 4.27088e-16 0)
(3 -3.63802e-16 0)
(3 -8.03919e-16 0)
(3 -1.79041e-15 0)
(3 -2.80134e-15 0)
(3 -3.30779e-15 0)
(3 -4.06267e-15 0)
(3 -6.09255e-15 0)
(3 -7.15771e-15 0)
(3 -7.01881e-15 0)
(3 -6.17055e-15 0)
(3 -6.85488e-15 0)
(3 -5.22257e-15 0)
(3 1.66182e-18 0)
(3 3.16566e-16 0)
(3 4.29438e-16 0)
(3 3.08587e-16 0)
(3 -1.86864e-16 0)
(3 -3.1601e-16 0)
(3 1.15602e-16 0)
(3 6.93899e-18 0)
(3 2.70825e-16 0)
(3 5.85049e-16 0)
(3 8.59034e-16 0)
(3 9.80929e-16 0)
(3 9.97635e-16 0)
(3 7.55437e-16 0)
(3 1.01045e-15 0)
(3 1.03276e-15 0)
(3 3.07187e-16 0)
(3 -3.52213e-16 0)
(3 -4.13869e-16 0)
(3 -3.21834e-16 0)
(3 2.99959e-16 0)
(3 1.05381e-15 0)
(3 1.53497e-15 0)
(3 1.72952e-15 0)
(3 1.42141e-15 0)
(3 1.40439e-15 0)
(3 5.57311e-16 0)
(3 -9.96499e-16 0)
(3 6.24795e-18 0)
(3 1.72697e-15 0)
(3 1.69542e-15 0)
(3 1.89534e-15 0)
(3 1.41769e-15 0)
(3 9.51665e-16 0)
(3 4.25262e-16 0)
(3 -1.15243e-16 0)
(3 -9.04715e-16 0)
(3 -1.48933e-15 0)
(3 -1.34278e-15 0)
(3 -9.05032e-16 0)
(3 6.65384e-16 0)
(3 2.86101e-15 0)
(3 2.57198e-15 0)
(3 2.77964e-15 0)
(3 3.56651e-15 0)
(3 3.88873e-15 0)
(3 4.40206e-15 0)
(3 3.77123e-15 0)
(3 2.54551e-15 0)
(3 1.06788e-15 0)
(3 7.83085e-16 0)
(3 -1.05486e-15 0)
(3 -1.00083e-15 0)
(3 5.59111e-16 0)
(3 9.35102e-16 0)
(3 6.27898e-16 0)
(3 3.39178e-16 0)
(3 3.20781e-16 0)
(3 8.14404e-16 0)
(3 1.72667e-15 0)
(3 2.62957e-15 0)
(3 2.71523e-15 0)
(3 2.15824e-15 0)
(3 1.17137e-15 0)
(3 6.67151e-16 0)
(3 -4.04227e-16 0)
(3 -9.05046e-16 0)
(3 -8.94669e-16 0)
(3 -1.54567e-15 0)
(3 -3.3648e-15 0)
(3 -2.34479e-15 0)
(3 -7.32595e-16 0)
(3 3.73134e-15 0)
(3 5.86454e-15 0)
(3 6.62317e-15 0)
(3 5.27692e-15 0)
(3 2.68918e-15 0)
(3 2.54344e-15 0)
(3 2.51376e-15 0)
(3 2.54409e-15 0)
(3 2.44929e-15 0)
(3 2.22792e-15 0)
(3 1.40377e-15 0)
(3 3.55617e-16 0)
(3 -9.99422e-16 0)
(3 -2.40178e-15 0)
(3 -4.07974e-15 0)
(3 -4.68638e-15 0)
(3 -3.48866e-15 0)
(3 -3.81403e-15 0)
(3 -8.49967e-15 0)
(3 -9.22466e-15 0)
(3 -8.74553e-15 0)
(3 -8.09618e-15 0)
(3 -7.89442e-15 0)
(3 -5.46536e-15 0)
(3 1.64577e-17 0)
(3 3.69633e-16 0)
(3 8.12471e-16 0)
(3 1.02509e-15 0)
(3 5.56681e-17 0)
(3 -5.87364e-16 0)
(3 -5.79139e-16 0)
(3 -3.49179e-16 0)
(3 -4.1418e-16 0)
(3 -1.16922e-16 0)
(3 5.08902e-16 0)
(3 1.33744e-15 0)
(3 1.3373e-15 0)
(3 5.29947e-16 0)
(3 1.29533e-16 0)
(3 -5.11611e-16 0)
(3 -1.36911e-15 0)
(3 -1.75828e-15 0)
(3 -1.37458e-15 0)
(3 -1.10558e-15 0)
(3 -7.61526e-16 0)
(3 4.38025e-16 0)
(3 1.19752e-15 0)
(3 1.37769e-15 0)
(3 2.91994e-16 0)
(3 -3.00426e-16 0)
(3 -1.45338e-17 0)
(3 -2.75404e-17 0)
(3 4.25898e-16 0)
(3 2.23351e-15 0)
(3 2.1176e-15 0)
(3 1.86188e-15 0)
(3 7.74002e-16 0)
(3 -5.23042e-16 0)
(3 -9.02838e-16 0)
(3 -9.79382e-16 0)
(3 -1.11677e-15 0)
(3 -1.01483e-15 0)
(3 -4.61068e-16 0)
(3 7.65095e-17 0)
(3 8.65454e-16 0)
(3 1.73464e-15 0)
(3 2.51399e-15 0)
(3 3.26384e-15 0)
(3 4.12154e-15 0)
(3 4.92719e-15 0)
(3 4.85098e-15 0)
(3 4.57346e-15 0)
(3 3.08008e-15 0)
(3 1.49322e-15 0)
(3 7.75918e-16 0)
(3 8.75162e-16 0)
(3 2.08049e-15 0)
(3 2.75382e-15 0)
(3 3.2206e-15 0)
(3 2.09041e-15 0)
(3 7.986e-16 0)
(3 -1.11421e-16 0)
(3 -5.45004e-17 0)
(3 1.04352e-15 0)
(3 2.09203e-15 0)
(3 1.60133e-15 0)
(3 -1.13968e-15 0)
(3 -1.80106e-15 0)
(3 -2.73725e-15 0)
(3 -3.04474e-15 0)
(3 -3.04535e-15 0)
(3 -2.75251e-15 0)
(3 -2.50189e-15 0)
(3 -2.1479e-15 0)
(3 -2.10588e-15 0)
(3 -2.77054e-15 0)
(3 -2.10456e-15 0)
(3 -1.67677e-16 0)
(3 2.82292e-16 0)
(3 -4.84436e-16 0)
(3 9.07043e-16 0)
(3 1.27596e-15 0)
(3 2.15419e-15 0)
(3 2.81234e-15 0)
(3 2.61789e-15 0)
(3 2.27562e-15 0)
(3 1.80862e-15 0)
(3 8.27171e-16 0)
(3 9.02883e-16 0)
(3 -1.05651e-15 0)
(3 -3.63072e-15 0)
(3 -4.34809e-15 0)
(3 -2.5903e-15 0)
(3 -3.04086e-15 0)
(3 -7.39804e-15 0)
(3 -8.22562e-15 0)
(3 -6.05049e-15 0)
(3 -5.50402e-15 0)
(3 -5.66865e-15 0)
(3 -4.51546e-15 0)
(3 1.30811e-16 0)
(3 -2.42536e-16 0)
(3 -1.99679e-16 0)
(3 9.77508e-17 0)
(3 1.59575e-16 0)
(3 -3.01897e-16 0)
(3 -1.06204e-15 0)
(3 -9.39077e-16 0)
(3 -9.4372e-16 0)
(3 -6.01283e-16 0)
(3 -1.50167e-16 0)
(3 -1.51417e-16 0)
(3 -2.1854e-16 0)
(3 -4.99052e-16 0)
(3 -7.35537e-16 0)
(3 -3.33185e-16 0)
(3 -5.32936e-16 0)
(3 -3.09613e-16 0)
(3 -1.06987e-16 0)
(3 -5.58433e-16 0)
(3 -3.09668e-16 0)
(3 -3.80364e-16 0)
(3 -4.81561e-16 0)
(3 -2.71226e-16 0)
(3 1.07811e-16 0)
(3 -1.30452e-16 0)
(3 -3.66993e-16 0)
(3 -5.06842e-16 0)
(3 -1.39205e-17 0)
(3 1.3023e-15 0)
(3 1.67412e-15 0)
(3 1.58928e-15 0)
(3 8.64864e-16 0)
(3 -1.73905e-16 0)
(3 -9.24501e-16 0)
(3 -7.80249e-16 0)
(3 2.90448e-16 0)
(3 5.32333e-16 0)
(3 3.06174e-16 0)
(3 3.10675e-16 0)
(3 9.79204e-16 0)
(3 2.04816e-15 0)
(3 3.36109e-15 0)
(3 3.4495e-15 0)
(3 4.07594e-15 0)
(3 6.48667e-15 0)
(3 5.7558e-15 0)
(3 3.36425e-15 0)
(3 2.80884e-15 0)
(3 3.46763e-15 0)
(3 3.92049e-15 0)
(3 4.16858e-15 0)
(3 5.25406e-15 0)
(3 5.47563e-15 0)
(3 5.61966e-15 0)
(3 4.86892e-15 0)
(3 4.02982e-16 0)
(3 -2.07726e-15 0)
(3 -1.70902e-15 0)
(3 -1.39502e-15 0)
(3 -1.26469e-15 0)
(3 -1.10306e-15 0)
(3 -2.0527e-15 0)
(3 -2.80993e-15 0)
(3 -4.22894e-15 0)
(3 -5.05386e-15 0)
(3 -4.91779e-15 0)
(3 -3.94156e-15 0)
(3 -3.68509e-15 0)
(3 -3.78644e-15 0)
(3 -4.90978e-15 0)
(3 -6.50004e-15 0)
(3 -6.56866e-15 0)
(3 -4.93663e-15 0)
(3 -5.00561e-15 0)
(3 -4.71554e-15 0)
(3 -1.23839e-15 0)
(3 -5.19856e-16 0)
(3 9.97709e-16 0)
(3 2.62415e-15 0)
(3 2.32809e-15 0)
(3 1.79503e-15 0)
(3 7.68391e-16 0)
(3 -3.02911e-16 0)
(3 -2.78562e-16 0)
(3 -5.88518e-16 0)
(3 -8.90835e-16 0)
(3 -6.37669e-16 0)
(3 -2.43813e-15 0)
(3 -3.73596e-15 0)
(3 -4.54812e-15 0)
(3 -4.11745e-15 0)
(3 -3.64105e-15 0)
(3 -3.32586e-15 0)
(3 -3.71839e-15 0)
(3 -4.24357e-15 0)
(3 -4.91912e-17 0)
(3 5.47037e-17 0)
(3 3.93712e-16 0)
(3 5.08215e-16 0)
(3 3.51375e-16 0)
(3 -8.85734e-17 0)
(3 -3.235e-16 0)
(3 -6.79115e-16 0)
(3 -9.79674e-16 0)
(3 -9.14204e-16 0)
(3 -9.12092e-16 0)
(3 -1.59917e-15 0)
(3 -1.37769e-15 0)
(3 -1.01417e-15 0)
(3 -9.66217e-16 0)
(3 -3.44008e-16 0)
(3 -2.71663e-16 0)
(3 -2.87583e-16 0)
(3 -4.66414e-16 0)
(3 -3.45176e-16 0)
(3 -3.98174e-16 0)
(3 -3.36138e-16 0)
(3 -9.52113e-16 0)
(3 -1.99043e-15 0)
(3 -1.366e-15 0)
(3 -9.03937e-16 0)
(3 -9.29572e-16 0)
(3 -7.26135e-16 0)
(3 -3.97856e-16 0)
(3 -1.0402e-15 0)
(3 -1.57361e-15 0)
(3 -1.54994e-15 0)
(3 -1.56826e-15 0)
(3 -1.74175e-15 0)
(3 -1.95523e-15 0)
(3 -1.185e-15 0)
(3 -4.62373e-16 0)
(3 3.93795e-16 0)
(3 5.18294e-16 0)
(3 8.82686e-16 0)
(3 1.14737e-15 0)
(3 1.55181e-15 0)
(3 2.01582e-15 0)
(3 3.40831e-15 0)
(3 4.06773e-15 0)
(3 3.58679e-15 0)
(3 1.6025e-15 0)
(3 1.15262e-15 0)
(3 2.85136e-15 0)
(3 4.35957e-15 0)
(3 4.98387e-15 0)
(3 4.94926e-15 0)
(3 5.15171e-15 0)
(3 6.91873e-15 0)
(3 8.92132e-15 0)
(3 8.82888e-15 0)
(3 5.13344e-15 0)
(3 -1.75858e-15 0)
(3 -3.17388e-15 0)
(3 -4.45961e-15 0)
(3 -4.40745e-15 0)
(3 -4.16303e-15 0)
(3 -3.13647e-15 0)
(3 -3.08881e-15 0)
(3 -3.50049e-15 0)
(3 -3.55395e-15 0)
(3 -3.33617e-15 0)
(3 -5.21264e-15 0)
(3 -7.15319e-15 0)
(3 -8.37304e-15 0)
(3 -8.70441e-15 0)
(3 -7.81844e-15 0)
(3 -5.76508e-15 0)
(3 -5.0947e-15 0)
(3 -6.74105e-15 0)
(3 -7.23668e-15 0)
(3 -4.5027e-15 0)
(3 -1.64901e-15 0)
(3 9.07048e-16 0)
(3 3.04501e-15 0)
(3 2.86309e-15 0)
(3 1.70581e-15 0)
(3 6.82921e-16 0)
(3 -1.44396e-16 0)
(3 -1.28856e-15 0)
(3 -1.13706e-15 0)
(3 -6.06346e-16 0)
(3 -1.95043e-16 0)
(3 -7.81878e-16 0)
(3 -2.14577e-15 0)
(3 -1.45293e-15 0)
(3 -2.80853e-16 0)
(3 -7.49323e-16 0)
(3 -9.5171e-16 0)
(3 -1.705e-15 0)
(3 -3.66043e-15 0)
(3 -1.86448e-16 0)
(3 2.3813e-16 0)
(3 4.64128e-16 0)
(3 1.08013e-16 0)
(3 -1.8326e-16 0)
(3 1.27721e-16 0)
(3 1.09289e-17 0)
(3 -4.99374e-16 0)
(3 -6.25409e-16 0)
(3 -6.58837e-16 0)
(3 -9.38031e-16 0)
(3 -9.16499e-16 0)
(3 -6.0952e-16 0)
(3 -2.32614e-16 0)
(3 -9.47162e-16 0)
(3 -1.37592e-15 0)
(3 -1.44021e-15 0)
(3 -1.7651e-15 0)
(3 -1.68084e-15 0)
(3 -1.45123e-15 0)
(3 -1.44348e-15 0)
(3 -8.75394e-16 0)
(3 -1.16437e-15 0)
(3 -1.71964e-15 0)
(3 -1.58412e-15 0)
(3 -2.31776e-16 0)
(3 4.33235e-16 0)
(3 1.39149e-15 0)
(3 4.94746e-16 0)
(3 -1.72075e-15 0)
(3 -2.67577e-15 0)
(3 -3.01237e-15 0)
(3 -2.69317e-15 0)
(3 -1.91045e-15 0)
(3 -1.23545e-15 0)
(3 1.05273e-15 0)
(3 1.88046e-15 0)
(3 2.16844e-15 0)
(3 2.14222e-15 0)
(3 9.64351e-16 0)
(3 -1.57274e-16 0)
(3 -6.67969e-16 0)
(3 2.6932e-16 0)
(3 1.64543e-15 0)
(3 2.24454e-15 0)
(3 1.54005e-15 0)
(3 -8.43297e-16 0)
(3 2.87114e-16 0)
(3 1.25919e-15 0)
(3 1.8734e-15 0)
(3 1.92436e-15 0)
(3 3.45391e-15 0)
(3 4.47164e-15 0)
(3 5.98482e-15 0)
(3 6.29487e-15 0)
(3 5.11484e-15 0)
(3 4.18723e-15 0)
(3 1.66442e-15 0)
(3 1.1816e-15 0)
(3 1.36752e-15 0)
(3 -6.25622e-16 0)
(3 -3.23379e-15 0)
(3 -3.18945e-15 0)
(3 -2.89369e-15 0)
(3 -2.71279e-15 0)
(3 -2.19922e-15 0)
(3 -2.53338e-15 0)
(3 -3.83881e-15 0)
(3 -6.33308e-15 0)
(3 -7.35684e-15 0)
(3 -6.99345e-15 0)
(3 -6.37409e-15 0)
(3 -6.14001e-15 0)
(3 -5.57145e-15 0)
(3 -4.95092e-15 0)
(3 -3.80204e-15 0)
(3 -2.55428e-15 0)
(3 -2.21304e-15 0)
(3 -7.06228e-16 0)
(3 2.48576e-15 0)
(3 3.4478e-15 0)
(3 2.67287e-15 0)
(3 1.85273e-15 0)
(3 4.51417e-16 0)
(3 -1.09065e-16 0)
(3 -5.67622e-16 0)
(3 -2.23177e-16 0)
(3 -2.17483e-16 0)
(3 -4.9237e-16 0)
(3 -1.00922e-15 0)
(3 -9.25205e-16 0)
(3 4.81375e-16 0)
(3 2.14468e-15 0)
(3 1.9979e-15 0)
(3 1.5839e-15 0)
(3 1.39854e-15 0)
(3 1.57603e-17 0)
(3 -1.28116e-16 0)
(3 -1.17444e-15 0)
(3 -1.19454e-15 0)
(3 -1.44392e-15 0)
(3 -1.23328e-15 0)
(3 -1.3691e-15 0)
(3 -1.07763e-15 0)
(3 -2.75672e-16 0)
(3 4.46079e-18 0)
(3 -8.83504e-16 0)
(3 -2.99675e-16 0)
(3 -4.76912e-16 0)
(3 -2.93502e-16 0)
(3 -1.7885e-16 0)
(3 -5.67764e-16 0)
(3 -8.60572e-16 0)
(3 -7.37457e-16 0)
(3 -3.88858e-16 0)
(3 -3.83681e-16 0)
(3 -3.20441e-16 0)
(3 -3.62534e-16 0)
(3 -4.26128e-16 0)
(3 -3.21387e-16 0)
(3 7.25675e-16 0)
(3 1.64977e-15 0)
(3 1.58409e-15 0)
(3 1.02101e-15 0)
(3 2.11207e-16 0)
(3 -1.40657e-15 0)
(3 -1.90132e-15 0)
(3 -2.2784e-15 0)
(3 -1.74193e-15 0)
(3 -7.49394e-16 0)
(3 1.16429e-15 0)
(3 4.57805e-15 0)
(3 6.00455e-15 0)
(3 5.45672e-15 0)
(3 3.64059e-15 0)
(3 1.31932e-15 0)
(3 5.39154e-16 0)
(3 -5.97602e-16 0)
(3 -4.3025e-16 0)
(3 -3.70169e-16 0)
(3 -1.76284e-16 0)
(3 -4.66542e-16 0)
(3 -2.33119e-15 0)
(3 -1.60524e-15 0)
(3 -6.61916e-16 0)
(3 -2.67787e-16 0)
(3 7.45129e-16 0)
(3 3.10787e-15 0)
(3 3.48844e-15 0)
(3 5.11022e-15 0)
(3 4.79232e-15 0)
(3 2.58668e-15 0)
(3 2.60683e-15 0)
(3 1.94497e-15 0)
(3 6.47502e-16 0)
(3 -2.08696e-16 0)
(3 -2.83046e-16 0)
(3 -3.98667e-16 0)
(3 -8.2175e-16 0)
(3 -1.14874e-15 0)
(3 -9.03637e-16 0)
(3 -9.30873e-16 0)
(3 -1.93841e-15 0)
(3 -2.9696e-15 0)
(3 -3.45841e-15 0)
(3 -4.39266e-15 0)
(3 -3.95279e-15 0)
(3 -5.03795e-15 0)
(3 -5.36436e-15 0)
(3 -4.71856e-15 0)
(3 -4.40005e-15 0)
(3 -3.78085e-15 0)
(3 -3.17159e-15 0)
(3 -3.35131e-15 0)
(3 -3.6107e-15 0)
(3 -1.70628e-15 0)
(3 1.92383e-15 0)
(3 2.59071e-15 0)
(3 1.93897e-15 0)
(3 2.11428e-16 0)
(3 -2.79615e-16 0)
(3 2.76584e-16 0)
(3 5.13173e-16 0)
(3 4.59671e-17 0)
(3 -3.11345e-16 0)
(3 1.12451e-15 0)
(3 2.26609e-15 0)
(3 2.40042e-15 0)
(3 2.57832e-15 0)
(3 1.77602e-15 0)
(3 2.91908e-15 0)
(3 2.60354e-15 0)
(3 2.62525e-16 0)
(3 -1.04164e-16 0)
(3 -1.33991e-16 0)
(3 -1.97906e-16 0)
(3 -1.64816e-16 0)
(3 -2.44864e-16 0)
(3 -1.49501e-17 0)
(3 -6.43538e-17 0)
(3 -5.59809e-16 0)
(3 -6.2661e-16 0)
(3 -7.03364e-16 0)
(3 -7.57258e-16 0)
(3 -6.55664e-16 0)
(3 -6.85564e-16 0)
(3 7.96542e-16 0)
(3 1.1914e-15 0)
(3 1.19479e-15 0)
(3 1.47718e-15 0)
(3 1.21854e-15 0)
(3 1.39796e-15 0)
(3 1.86882e-15 0)
(3 1.91214e-15 0)
(3 2.12464e-15 0)
(3 2.28299e-15 0)
(3 1.56372e-15 0)
(3 5.56796e-16 0)
(3 3.14273e-17 0)
(3 -1.31297e-16 0)
(3 -6.25995e-16 0)
(3 -1.63971e-15 0)
(3 -2.04189e-15 0)
(3 -1.9696e-15 0)
(3 -1.83102e-15 0)
(3 -1.5609e-16 0)
(3 3.25861e-15 0)
(3 5.0067e-15 0)
(3 5.29148e-15 0)
(3 4.49296e-15 0)
(3 3.70541e-15 0)
(3 2.34943e-15 0)
(3 1.96645e-15 0)
(3 1.3246e-16 0)
(3 -6.13201e-16 0)
(3 -4.44577e-16 0)
(3 2.25122e-16 0)
(3 -2.20549e-15 0)
(3 -3.27735e-15 0)
(3 -1.93222e-15 0)
(3 -1.57814e-15 0)
(3 -7.64059e-16 0)
(3 6.94216e-17 0)
(3 4.36107e-16 0)
(3 1.07972e-15 0)
(3 1.81576e-15 0)
(3 2.19581e-15 0)
(3 3.23167e-15 0)
(3 3.68861e-15 0)
(3 3.31796e-15 0)
(3 1.48981e-15 0)
(3 1.86215e-17 0)
(3 -1.18396e-15 0)
(3 -1.2147e-15 0)
(3 -8.43275e-16 0)
(3 6.79506e-17 0)
(3 -5.42025e-16 0)
(3 -2.31352e-15 0)
(3 -2.42029e-15 0)
(3 -2.91812e-15 0)
(3 -2.4268e-15 0)
(3 -2.93625e-15 0)
(3 -3.89892e-15 0)
(3 -3.18055e-15 0)
(3 -3.92744e-15 0)
(3 -4.18732e-15 0)
(3 -4.50002e-15 0)
(3 -3.74649e-15 0)
(3 -2.04074e-15 0)
(3 -1.59743e-15 0)
(3 -2.06547e-15 0)
(3 -1.80923e-15 0)
(3 4.51155e-16 0)
(3 1.92436e-15 0)
(3 7.7513e-16 0)
(3 -3.99722e-16 0)
(3 -1.77465e-15 0)
(3 -2.31432e-15 0)
(3 -2.86154e-16 0)
(3 9.51395e-16 0)
(3 1.17221e-15 0)
(3 4.55438e-15 0)
(3 5.25661e-15 0)
(3 4.57901e-15 0)
(3 3.6291e-15 0)
(3 2.10719e-15 0)
(3 9.36998e-16 0)
(3 7.40066e-16 0)
(3 1.00182e-16 0)
(3 1.1425e-16 0)
(3 2.19716e-16 0)
(3 1.1068e-16 0)
(3 6.70524e-16 0)
(3 1.04224e-15 0)
(3 1.31362e-15 0)
(3 1.42123e-15 0)
(3 3.65501e-16 0)
(3 -3.28411e-16 0)
(3 -8.02505e-16 0)
(3 -6.57956e-16 0)
(3 1.2889e-16 0)
(3 8.68853e-16 0)
(3 1.10312e-15 0)
(3 1.38752e-15 0)
(3 1.77168e-15 0)
(3 1.68402e-15 0)
(3 1.32526e-15 0)
(3 2.06794e-15 0)
(3 2.55728e-15 0)
(3 2.55817e-15 0)
(3 2.52429e-15 0)
(3 2.08971e-15 0)
(3 1.20948e-15 0)
(3 1.32682e-15 0)
(3 1.46706e-15 0)
(3 1.37913e-15 0)
(3 1.23264e-15 0)
(3 -8.33831e-17 0)
(3 -2.20251e-15 0)
(3 -2.52317e-15 0)
(3 -1.54254e-15 0)
(3 -4.24844e-16 0)
(3 2.99649e-16 0)
(3 1.05213e-15 0)
(3 2.05574e-15 0)
(3 2.49732e-15 0)
(3 2.12086e-15 0)
(3 1.43407e-15 0)
(3 6.04861e-16 0)
(3 3.11785e-16 0)
(3 -5.89235e-16 0)
(3 -6.06273e-16 0)
(3 -9.26549e-16 0)
(3 -3.68235e-15 0)
(3 -3.63061e-15 0)
(3 -1.76191e-15 0)
(3 1.35732e-15 0)
(3 1.81178e-15 0)
(3 1.46304e-15 0)
(3 2.33485e-16 0)
(3 1.98692e-17 0)
(3 1.0944e-16 0)
(3 9.8631e-16 0)
(3 3.82716e-15 0)
(3 4.60818e-15 0)
(3 4.79967e-15 0)
(3 3.47037e-15 0)
(3 1.08201e-15 0)
(3 7.3496e-16 0)
(3 9.08279e-16 0)
(3 6.10219e-16 0)
(3 1.7384e-17 0)
(3 -1.61936e-15 0)
(3 -3.92051e-15 0)
(3 -4.11638e-15 0)
(3 -3.16222e-15 0)
(3 -2.98007e-15 0)
(3 -3.66578e-15 0)
(3 -4.62878e-15 0)
(3 -3.12379e-15 0)
(3 -2.07659e-15 0)
(3 -2.77646e-15 0)
(3 -3.13546e-15 0)
(3 -2.27917e-15 0)
(3 -1.66553e-15 0)
(3 -7.21979e-16 0)
(3 -1.19396e-15 0)
(3 -8.2045e-16 0)
(3 2.12822e-16 0)
(3 -1.47051e-16 0)
(3 8.17975e-16 0)
(3 6.69115e-17 0)
(3 -1.52028e-15 0)
(3 -2.08742e-15 0)
(3 -7.78595e-16 0)
(3 2.07101e-15 0)
(3 5.68246e-15 0)
(3 6.82581e-15 0)
(3 6.20874e-15 0)
(3 5.06757e-15 0)
(3 3.30699e-15 0)
(3 1.8281e-15 0)
(3 1.08089e-15 0)
(3 2.22441e-15 0)
(3 -1.20743e-16 0)
(3 1.07728e-16 0)
(3 8.75248e-18 0)
(3 3.47792e-17 0)
(3 4.09061e-16 0)
(3 9.22555e-16 0)
(3 8.33555e-16 0)
(3 6.70431e-16 0)
(3 -4.40626e-17 0)
(3 -7.00292e-16 0)
(3 -5.82765e-16 0)
(3 2.43242e-16 0)
(3 3.39415e-16 0)
(3 3.10475e-16 0)
(3 2.75304e-16 0)
(3 6.54824e-16 0)
(3 1.02542e-15 0)
(3 1.97951e-15 0)
(3 2.9203e-15 0)
(3 2.86842e-15 0)
(3 2.47867e-15 0)
(3 1.55153e-15 0)
(3 1.06142e-15 0)
(3 1.39391e-15 0)
(3 3.29671e-15 0)
(3 4.23282e-15 0)
(3 3.02473e-15 0)
(3 1.87858e-15 0)
(3 1.44439e-15 0)
(3 1.31468e-15 0)
(3 -1.03623e-15 0)
(3 -2.30318e-15 0)
(3 -2.55965e-15 0)
(3 -1.63437e-15 0)
(3 -7.20351e-16 0)
(3 -6.40628e-16 0)
(3 4.09261e-17 0)
(3 1.27328e-15 0)
(3 1.1121e-15 0)
(3 6.01881e-16 0)
(3 2.60695e-16 0)
(3 6.75766e-18 0)
(3 -1.06635e-15 0)
(3 -1.63434e-15 0)
(3 -2.85401e-15 0)
(3 -2.76929e-15 0)
(3 -1.61464e-15 0)
(3 1.03839e-15 0)
(3 2.75889e-15 0)
(3 4.02418e-15 0)
(3 3.60781e-15 0)
(3 2.83861e-15 0)
(3 2.45292e-15 0)
(3 1.8396e-15 0)
(3 2.29541e-15 0)
(3 4.56458e-15 0)
(3 5.66492e-15 0)
(3 6.67617e-15 0)
(3 6.23543e-15 0)
(3 4.97551e-15 0)
(3 3.93065e-15 0)
(3 3.75348e-15 0)
(3 2.78987e-15 0)
(3 1.87889e-15 0)
(3 5.84742e-16 0)
(3 -1.7484e-15 0)
(3 -3.64005e-15 0)
(3 -2.84806e-15 0)
(3 -1.341e-15 0)
(3 -2.40681e-15 0)
(3 -4.20674e-15 0)
(3 -2.44398e-15 0)
(3 -5.29973e-17 0)
(3 4.51493e-16 0)
(3 -1.12783e-15 0)
(3 -1.01688e-15 0)
(3 -6.9947e-16 0)
(3 -6.39995e-16 0)
(3 -4.79373e-16 0)
(3 -7.59297e-17 0)
(3 -1.51204e-16 0)
(3 -1.24474e-16 0)
(3 9.54747e-17 0)
(3 6.1248e-16 0)
(3 4.12471e-16 0)
(3 1.55471e-16 0)
(3 -8.35522e-16 0)
(3 1.65892e-15 0)
(3 5.59752e-15 0)
(3 6.17677e-15 0)
(3 5.84026e-15 0)
(3 4.63137e-15 0)
(3 3.44476e-15 0)
(3 2.63267e-15 0)
(3 2.73109e-15 0)
(3 1.44704e-15 0)
(3 2.76331e-17 0)
(3 -2.38254e-16 0)
(3 8.65504e-18 0)
(3 1.41485e-16 0)
(3 1.10062e-15 0)
(3 1.40015e-15 0)
(3 1.10079e-15 0)
(3 6.29961e-17 0)
(3 -6.30789e-16 0)
(3 -1.17325e-15 0)
(3 -5.94577e-16 0)
(3 -6.01728e-16 0)
(3 -3.09982e-16 0)
(3 -1.76731e-16 0)
(3 2.64353e-17 0)
(3 1.91436e-16 0)
(3 5.07403e-16 0)
(3 1.35335e-15 0)
(3 1.57704e-15 0)
(3 1.15793e-15 0)
(3 3.88526e-16 0)
(3 -9.31928e-16 0)
(3 -1.09146e-15 0)
(3 8.99197e-16 0)
(3 1.84438e-15 0)
(3 1.70172e-15 0)
(3 1.03436e-15 0)
(3 5.87778e-16 0)
(3 5.30437e-16 0)
(3 3.49239e-16 0)
(3 -7.70534e-17 0)
(3 -4.90894e-16 0)
(3 -1.91327e-15 0)
(3 -1.97292e-15 0)
(3 -1.76911e-15 0)
(3 -2.69722e-15 0)
(3 -1.42934e-15 0)
(3 8.83022e-16 0)
(3 1.44677e-15 0)
(3 8.81662e-16 0)
(3 6.13725e-16 0)
(3 3.24442e-16 0)
(3 -4.2632e-16 0)
(3 -1.26872e-15 0)
(3 -1.41473e-15 0)
(3 -1.35659e-15 0)
(3 -6.20548e-16 0)
(3 4.26019e-16 0)
(3 1.46343e-15 0)
(3 4.13709e-15 0)
(3 4.98591e-15 0)
(3 4.7872e-15 0)
(3 3.658e-15 0)
(3 2.474e-15 0)
(3 2.62607e-15 0)
(3 3.04673e-15 0)
(3 3.66002e-15 0)
(3 4.48972e-15 0)
(3 5.87311e-15 0)
(3 6.41422e-15 0)
(3 6.08519e-15 0)
(3 5.68939e-15 0)
(3 5.49085e-15 0)
(3 4.01419e-15 0)
(3 1.94205e-15 0)
(3 -1.3813e-15 0)
(3 -2.13745e-15 0)
(3 -2.02197e-15 0)
(3 -1.1831e-15 0)
(3 -1.02979e-15 0)
(3 -1.7316e-15 0)
(3 -8.56375e-17 0)
(3 2.67853e-15 0)
(3 2.24576e-15 0)
(3 1.89387e-15 0)
(3 9.62943e-16 0)
(3 5.71575e-16 0)
(3 -5.62338e-16 0)
(3 -1.62694e-15 0)
(3 -3.09809e-15 0)
(3 -3.3674e-15 0)
(3 -1.33972e-15 0)
(3 4.4747e-16 0)
(3 1.5789e-15 0)
(3 1.94975e-15 0)
(3 1.90936e-15 0)
(3 2.31053e-15 0)
(3 3.49498e-15 0)
(3 3.55978e-15 0)
(3 2.94197e-15 0)
(3 2.86781e-15 0)
(3 3.12519e-15 0)
(3 3.98175e-15 0)
(3 5.9496e-15 0)
(3 4.28798e-15 0)
(3 2.03317e-15 0)
(3 5.80978e-17 0)
(3 -1.20333e-16 0)
(3 2.22895e-16 0)
(3 8.41521e-16 0)
(3 1.09942e-15 0)
(3 8.21432e-16 0)
(3 3.35217e-16 0)
(3 1.30307e-17 0)
(3 1.96724e-16 0)
(3 2.96714e-16 0)
(3 8.86791e-17 0)
(3 1.03964e-16 0)
(3 5.16498e-16 0)
(3 8.59799e-16 0)
(3 8.05329e-16 0)
(3 1.13819e-15 0)
(3 1.0222e-15 0)
(3 6.8522e-16 0)
(3 4.03642e-16 0)
(3 -9.57171e-16 0)
(3 -2.40474e-15 0)
(3 -1.9771e-15 0)
(3 -6.97421e-16 0)
(3 6.06525e-16 0)
(3 9.75919e-16 0)
(3 8.51509e-16 0)
(3 4.49833e-16 0)
(3 9.12647e-17 0)
(3 -5.57072e-16 0)
(3 -1.18518e-15 0)
(3 -7.79594e-16 0)
(3 4.2011e-16 0)
(3 8.03043e-16 0)
(3 -9.49796e-16 0)
(3 -2.34582e-15 0)
(3 -1.69214e-15 0)
(3 -9.56372e-16 0)
(3 -7.25656e-16 0)
(3 -9.39685e-17 0)
(3 4.75391e-16 0)
(3 1.33109e-15 0)
(3 2.20676e-15 0)
(3 2.60544e-15 0)
(3 1.59538e-15 0)
(3 2.43168e-16 0)
(3 2.39077e-16 0)
(3 6.74515e-17 0)
(3 -4.15838e-17 0)
(3 6.12951e-16 0)
(3 4.42424e-15 0)
(3 5.95834e-15 0)
(3 6.15518e-15 0)
(3 5.29276e-15 0)
(3 3.46896e-15 0)
(3 1.90308e-15 0)
(3 7.22802e-16 0)
(3 6.4304e-16 0)
(3 1.37705e-15 0)
(3 2.93153e-15 0)
(3 4.90922e-15 0)
(3 5.89847e-15 0)
(3 6.64978e-15 0)
(3 4.56853e-15 0)
(3 3.70754e-15 0)
(3 1.6525e-15 0)
(3 -1.25043e-15 0)
(3 -4.23378e-17 0)
(3 3.00843e-16 0)
(3 -8.46265e-16 0)
(3 -5.9491e-16 0)
(3 1.35829e-15 0)
(3 2.78899e-15 0)
(3 3.17247e-15 0)
(3 3.2707e-15 0)
(3 3.1971e-15 0)
(3 1.73975e-15 0)
(3 -6.30402e-17 0)
(3 -2.35037e-15 0)
(3 -5.30112e-15 0)
(3 -7.08169e-15 0)
(3 -7.85528e-15 0)
(3 -5.28566e-15 0)
(3 -5.45314e-17 0)
(3 1.88257e-15 0)
(3 3.77372e-15 0)
(3 3.82319e-15 0)
(3 3.44087e-15 0)
(3 4.0912e-15 0)
(3 3.04841e-15 0)
(3 2.31653e-15 0)
(3 2.42145e-15 0)
(3 2.81296e-15 0)
(3 4.11661e-15 0)
(3 6.37067e-15 0)
(3 5.08044e-15 0)
(3 5.72626e-16 0)
(3 5.47098e-18 0)
(3 3.20787e-16 0)
(3 1.43541e-16 0)
(3 -5.4043e-17 0)
(3 1.51072e-16 0)
(3 -5.05904e-17 0)
(3 -3.59447e-16 0)
(3 -2.8386e-16 0)
(3 2.56503e-16 0)
(3 6.43694e-16 0)
(3 7.41609e-16 0)
(3 6.62542e-16 0)
(3 2.17065e-16 0)
(3 -4.21985e-17 0)
(3 -5.15458e-17 0)
(3 8.73523e-16 0)
(3 9.85132e-16 0)
(3 8.56058e-16 0)
(3 6.09229e-16 0)
(3 -1.05859e-16 0)
(3 -3.69605e-16 0)
(3 -4.514e-16 0)
(3 1.97857e-16 0)
(3 9.22143e-16 0)
(3 1.38487e-15 0)
(3 3.68635e-16 0)
(3 -1.29786e-16 0)
(3 -8.26469e-16 0)
(3 -1.08302e-15 0)
(3 -1.35633e-15 0)
(3 -1.21373e-15 0)
(3 1.71714e-15 0)
(3 3.73821e-15 0)
(3 1.76568e-15 0)
(3 1.12665e-17 0)
(3 8.67549e-17 0)
(3 -5.42215e-16 0)
(3 -2.42602e-15 0)
(3 -7.69627e-16 0)
(3 8.42791e-16 0)
(3 8.73962e-16 0)
(3 1.62772e-15 0)
(3 2.51691e-15 0)
(3 2.83021e-15 0)
(3 1.51319e-15 0)
(3 -2.80846e-16 0)
(3 -7.52656e-16 0)
(3 -2.71781e-16 0)
(3 6.81884e-16 0)
(3 3.48016e-15 0)
(3 3.6978e-15 0)
(3 3.18017e-15 0)
(3 2.89953e-15 0)
(3 1.9963e-15 0)
(3 9.04801e-16 0)
(3 5.47616e-16 0)
(3 1.03013e-16 0)
(3 5.37784e-16 0)
(3 1.68118e-15 0)
(3 1.92879e-15 0)
(3 2.52553e-15 0)
(3 1.98417e-15 0)