/*--------------------------------*- C++ -*----------------------------------*\
  =========                 |
  \\      /  F ield         | OpenFOAM: The Open Source CFD Toolbox
   \\    /   O peration     | Website:  https://openfoam.org
    \\  /    A nd           | Version:  7
     \\/     M anipulation  |
\*---------------------------------------------------------------------------*/
FoamFile
{
    version     2.0;
    format      ascii;
    class       volScalarField;
    location    "2.2";
    object      p;
}
// * * * * * * * * * * * * * * * * * * * * * * * * * * * * * * * * * * * * * //

dimensions      [1 -1 -2 0 0 0 0];

internalField   nonuniform List<scalar> 
4608
(
1
1
1
1
1
1
1
1
1
1
1
1
1
1
1
1
1
1
1
1
1
1
1
1
1
1
1
1
1
1
1
1
1
1
1
1
1
1
1
1
1
1
1
1
1
1
1
1
1
1
1
1
1
1
1
1
1
1
1
1
1
1
1
1
1
1
1
1
1
1
1
1
1
1
1
1
1
1
1
1
1
1
1
1
1
1
1
1
1
1
1
1
1
1
1
1
1
1
1
1
1
1
1
1
1
1
1
1
1
1
1
1
1
1
1
1
1
1
1
1
1
1
1
1
1
1
1
1
1
1
1
1
1
1
1
1
1
1
1
1
1
1
1
1
1
1
1
1
1
1
1
1
1
1
1
1
1
1
1
1
1
1
1
1
1
1
1
1
1
1
1
1
1
1
1
1
1
1
1
1
1
1
1
1
1
1
1
1
1
1
1
1
1
1
1
1
1
1
1
1
1
1
1
1
1
1
1
1
1
1
1
1
1
1
1
1
1
1
1
1
1
1
1
1
1
1
1
1
1
1
1
1
1
1
1
1
1
1
1
1
1
1
1
1
1
1
1
1
1
1
1
1
1
1
1
1
1
1
1
1
1
1
1
1
1
1
1
1
1
1
1
1
1
1
1
1
1
1
1
1
1
1
1
1
1
1
1
1
1
1
1
1
1
1
1
1
1
1
1
1
1
1
1
1
1
1
1
1
1
1
1
1
1
1
1
1
1
1
1
1
1
1
1
1
1
1
1
1
1
1
1
1
1
1
1
1
1
1
1
1
1
1
1
1
1
1
1
1
1
1
1
1
1
1
1
1
1
1
1
1
1
1
1
1
1
1
1
1
1
1
1
1
1
1
1
1
1
1
1
1
1
1
1
1
1
1
1
1
1
1
1
1
1
1
1
1
1
1
1
1
1
1
1
1
1
1
1
1
1
1
1
1
1
1
1
1
1
1
1
1
1
1
1
1
1
1
1
1
1
1
1
1
1
1
1
1
1
1
1
1
1
1
1
1
1
1
1
1
1
1
1
1
1
1
1
1
1
1
1
1
1
1
1
1
1
1
1
1
1
1
1
1
1
1
1
1
1
1
1
1
1
1
1
1
1
1
1
1
1
1
1
1
1
1
1
1
1
1
1
1
1
1
1
1
1
1
1
1
1
1
1
1
1
1
1
1
1
1
1
1
1
1
1
1
1
1
1
1
1
1
1
1
1
1
1
1
1
1
1
1
1
1
1
1
1
1
1
1
1
1
1
1
1
1
1
1
1
1
1
1
1
1
1
1
1
1
1
1
1
1
1
1
1
1
1
1
1
1
1
1
1
1
1
1
1
1
1
1
1
1
1
1
1
1
1
1
1
1
1
1
1
1
1
1
1
1
1
1
1
1
1
1
1
1
1
1
1
1
1
1
1
1
1
1
1
1
1
1
1
1
1
1
1
1
1
1
1
1
1
1
1
1
1
1
1
1
1
1
1
1
1
1
1
1
1
1
1
1
1
1
1
1
1
1
1
1
1
1
1
1
1
1
1
1
1
1
1
1
1
1
1
1
1
1
1
1
1
1
1
1
1
1
1
1
1
1
1
1
1
1
1
1
1
1
1
1
1
1
1
1
1
1
1
1
1
1
1
1
1
1
1
1
1
1
1
1
1
1
1
1
1
1
1
1
1
1
1
1
1
1
1
1
1
1
1
1
1
1
1
1
1
1
1
1
1
1
1
1
1
1
1
1
1
1
1
1
1
1
1.2921
1.75494
2.3449
2.97113
3.63399
4.31894
4.80019
5.30954
5.38107
5.17221
4.70022
4.20725
3.80958
3.65891
3.56703
3.57736
3.61888
3.66178
3.68856
3.70009
3.71421
3.73537
3.76198
3.77442
1.00304
1.02017
1.07862
1.2229
1.46449
1.86156
2.36343
3.00217
3.56393
3.85458
4.01967
4.02836
3.98957
3.8675
3.75774
3.7175
3.70978
3.69126
3.69015
3.69744
3.71446
3.73113
3.74646
3.76507
1
0.999987
0.999978
1.00029
1.00342
1.02417
1.10971
1.3601
1.99264
3.00322
3.83208
4.28934
4.37534
4.28544
4.11492
3.84085
3.7189
3.70092
3.6928
3.70368
3.71898
3.72754
3.73528
3.75794
1
0.999999
0.999997
0.999998
0.999986
1.00004
0.999961
1.00157
1.03692
1.28687
2.05885
3.06661
4.0316
4.12552
4.08405
4.00439
3.87545
3.79088
3.76444
3.73315
3.72027
3.72414
3.73109
3.75386
1
1
1
1
0.999999
0.999999
0.999996
0.999992
0.999903
1.0011
1.04482
1.34979
2.23881
3.26255
3.93732
4.12135
4.07448
3.95273
3.8352
3.76771
3.72389
3.70187
3.71104
3.73
1
1
1
1
1
1
1
0.999999
0.999989
0.999991
0.999904
1.00313
1.06788
1.54696
2.49819
3.56474
3.87513
3.86963
3.83118
3.76645
3.70562
3.70074
3.6973
3.70675
1
1
1
1
1
1
1
1
1
0.999999
0.99999
0.999989
0.999964
1.01328
1.14591
1.81155
2.85755
3.7471
3.91809
3.86228
3.78823
3.76454
3.7432
3.7191
1
1
1
1
1
1
1
1
1
1
1
0.999999
0.999995
0.999964
1.00068
1.04134
1.33627
2.29464
3.24515
3.79771
3.85923
3.83952
3.80276
3.76006
1
1
1
1
1
1
1
1
1
1
1
1
1
0.999996
0.999992
1.00004
1.00611
1.14497
1.74745
2.91869
3.45371
3.66497
3.77381
3.76842
1
1
1
1
1
1
1
1
1
1
1
1
1
1
0.999999
0.999999
0.999984
1.00176
1.04303
1.41817
2.36481
3.3486
3.7517
3.7664
1
1
1
1
1
1
1
1
1
1
1
1
1
1
1
1
0.999998
0.99999
1.00016
1.01568
1.22405
2.00687
2.98158
3.63157
1
1
1
1
1
1
1
1
1
1
1
1
1
1
1
1
1
0.999998
0.999997
1.00003
1.00544
1.10939
1.70115
2.80483
1
1
1
1
1
1
1
1
1
1
1
1
1
1
1
1
1
1
0.999999
0.999999
0.999998
1.00183
1.06681
1.4767
1
1
1
1
1
1
1
1
1
1
1
1
1
1
1
1
1
1
1
1
1
0.999998
1.00118
1.02788
1
1
1
1
1
1
1
1
1
1
1
1
1
1
1
1
1
1
1
1
1
0.999999
1.00001
1.00005
1
1
1
1
1
1
1
1
1
1
1
1
1
1
1
1
1
1
1
1
1
1
0.999999
0.999995
1
1
1
1
1
1
1
1
1
1
1
1
1
1
1
1
1
1
1
1
1
1
1
0.999995
1
1
1
1
1
1
1
1
1
1
1
1
1
1
1
1
1
1
1
1
1
1
0.999998
1.00002
1
1
1
1
1
1
1
1
1
1
1
1
1
1
1
1
1
1
1
1
0.999999
0.999998
1.00112
1.03023
1
1
1
1
1
1
1
1
1
1
1
1
1
1
1
1
1
1
0.999999
0.999999
0.999998
1.00188
1.071
1.50864
1
1
1
1
1
1
1
1
1
1
1
1
1
1
1
1
1
0.999998
0.999997
1.00002
1.00533
1.10608
1.76561
2.74157
1
1
1
1
1
1
1
1
1
1
1
1
1
1
1
1
0.999997
0.99999
1.00015
1.01608
1.21286
2.01468
3.04353
3.55245
1
1
1
1
1
1
1
1
1
1
1
1
1
1
0.999999
0.999999
0.999984
1.00175
1.04326
1.41951
2.33098
3.39556
3.74412
3.7381
1
1
1
1
1
1
1
1
1
1
1
1
1
0.999996
0.999992
1.00003
1.00617
1.14387
1.75717
2.89354
3.4506
3.69592
3.7852
3.76656
1
1
1
1
1
1
1
1
1
1
1
0.999999
0.999995
0.999964
1.00068
1.04127
1.33581
2.29572
3.25239
3.78485
3.86047
3.84628
3.80377
3.7485
1
1
1
1
1
1
1
1
1
0.999999
0.99999
0.999989
0.999964
1.01328
1.14601
1.81185
2.8552
3.74979
3.91803
3.86165
3.78778
3.76669
3.74194
3.7178
1
1
1
1
1
1
1
0.999999
0.999989
0.999991
0.999904
1.00313
1.06785
1.54686
2.49873
3.56444
3.87486
3.86961
3.8313
3.7648
3.70462
3.70096
3.69714
3.70623
1
1
1
1
0.999999
0.999999
0.999996
0.999993
0.999903
1.0011
1.0448
1.35002
2.2384
3.26256
3.93752
4.12134
4.07428
3.9528
3.83492
3.76716
3.7242
3.70269
3.71133
3.72989
1
0.999999
0.999997
0.999998
0.999986
1.00004
0.999961
1.00156
1.03695
1.28681
2.059
3.06669
4.03103
4.12546
4.08445
4.00485
3.8749
3.791
3.76441
3.73337
3.72062
3.72457
3.73133
3.75381
1
0.999987
0.999978
1.00029
1.00342
1.02417
1.10972
1.36008
1.99276
3.00295
3.83245
4.2892
4.37526
4.28537
4.11512
3.84117
3.71804
3.70118
3.69292
3.70388
3.71923
3.72777
3.73536
3.75783
1.00304
1.02017
1.07863
1.22289
1.46448
1.86159
2.36338
3.00228
3.5639
3.85449
4.01976
4.0284
3.98947
3.86755
3.75795
3.71714
3.70963
3.69137
3.69024
3.69747
3.7144
3.73114
3.74643
3.76501
1.2921
1.75494
2.34489
2.97113
3.63401
4.31897
4.8001
5.30958
5.38109
5.17219
4.70018
4.20729
3.80947
3.65891
3.56707
3.5773
3.61884
3.66195
3.68884
3.70005
3.71409
3.73525
3.76187
3.77437
2.6597
1.69918
1.15812
0.842277
0.645312
0.634664
0.694786
0.798383
0.817491
0.838058
0.884355
0.917712
0.947561
1.02171
1.06443
1.06698
1.05757
1.03739
1.03641
1.05056
1.06752
1.07218
1.06904
1.12146
1.5178
2.78128
4.55288
6.77513
8.87318
9.40185
8.68946
7.58223
6.87883
6.52181
6.33291
6.11021
5.85341
5.63387
5.44791
5.26973
5.08579
4.8945
4.70533
4.5215
4.33723
4.15013
3.97315
3.82539
3.71956
3.63312
3.54826
3.46138
3.37257
3.28143
3.18032
3.04893
2.87904
2.72702
2.65608
2.6235
2.59381
2.56101
2.52452
2.48218
2.42626
2.34378
2.22029
2.07427
1.99036
1.97005
1.97452
2.02296
2.2403
2.74748
3.53873
4.27418
4.76859
5.17569
5.31436
5.22121
5.02978
4.82501
4.71392
4.62516
4.5259
4.42923
4.33018
4.19025
4.00738
3.90221
3.85254
3.80714
3.77058
3.75223
3.73526
3.64943
3.3728
2.73337
2.17004
1.81691
1.45535
1.17797
1.14379
1.1031
1.01347
0.942392
0.921835
0.90734
0.908214
0.928875
0.971176
0.993286
0.998923
0.99911
0.999066
1.01471
1.03179
1.04569
1.13203
1.59534
2.57451
3.06841
3.53763
4.26683
5.61734
6.74745
7.47959
7.40126
7.06856
6.72954
6.42302
6.12487
5.88889
5.70142
5.5135
5.3281
5.14201
4.94853
4.75283
4.56453
4.37846
4.19829
4.03704
3.89821
3.77837
3.68694
3.60209
3.51467
3.42364
3.3264
3.21908
3.0906
2.93703
2.8017
2.7173
2.67171
2.64048
2.60695
2.56709
2.51918
2.45747
2.37272
2.26398
2.12931
2.04606
2.04965
2.11741
2.3459
2.75245
3.16177
3.42754
3.82748
4.24233
4.39607
4.5416
4.7032
4.788
4.81252
4.77084
4.67643
4.56885
4.45737
4.35348
4.22406
4.04352
3.92357
3.86917
3.82577
3.79418
3.77549
3.75019
3.663
3.66154
3.35245
2.83874
2.3838
2.03021
1.63604
1.3629
1.25592
1.14325
0.987483
0.945801
0.935571
0.919638
0.924064
0.943933
0.961408
0.963188
0.964133
0.969997
0.987927
1.00926
1.14165
1.76049
2.63277
3.28556
3.33941
3.32625
3.34557
3.57061
4.54501
6.06837
7.13557
7.25904
7.0387
6.53368
6.14148
5.84718
5.57287
5.32394
5.12499
4.96516
4.81694
4.66376
4.50777
4.35981
4.21897
4.06546
3.87799
3.67859
3.54739
3.47284
3.40408
3.33233
3.25427
3.16499
3.06598
2.95762
2.82817
2.69846
2.60703
2.5559
2.51782
2.47809
2.4304
2.37532
2.31423
2.2471
2.15656
2.14253
2.22803
2.51873
2.90381
3.27398
3.43145
3.46328
3.48698
3.59864
3.71108
3.93715
4.30879
4.57952
4.7265
4.78252
4.74353
4.63544
4.50334
4.3618
4.20463
4.03429
3.92738
3.87514
3.83739
3.79761
3.7473
3.69335
3.5852
3.742
3.63314
3.33445
2.88732
2.54258
2.18635
1.73816
1.5433
1.46179
1.29323
1.14181
1.09292
1.04449
0.982934
0.977405
0.970232
0.961527
0.948791
0.941149
0.952012
1.09607
1.78072
2.74362
3.21924
3.33071
3.3025
3.2172
3.08829
2.96557
3.04864
3.63637
5.11973
6.5002
6.6207
6.51861
6.25782
5.91988
5.55342
5.23934
5.02402
4.88978
4.77056
4.6547
4.54219
4.42045
4.28104
4.10293
3.90333
3.69053
3.51107
3.41022
3.34281
3.28294
3.22843
3.1733
3.10531
3.0099
2.86763
2.71959
2.60843
2.53721
2.47818
2.42707
2.38002
2.33784
2.30941
2.26982
2.31157
2.49829
2.86436
3.18304
3.39161
3.52673
3.5493
3.49195
3.42504
3.37264
3.32117
3.36292
3.57013
3.94179
4.31272
4.55662
4.61586
4.6084
4.55095
4.41032
4.21059
4.03939
3.95545
3.90867
3.86815
3.82032
3.75951
3.69184
3.55882
3.74895
3.7281
3.60007
3.3051
2.93965
2.6319
2.26724
1.86935
1.69633
1.5841
1.43903
1.29696
1.16375
1.04212
1.0018
0.991388
0.97555
0.953111
0.975722
1.18772
1.91818
2.86085
3.23733
3.26161
3.22244
3.11835
3.01099
2.87986
2.78659
2.7295
2.75385
3.05536
4.17772
5.47234
6.23851
6.24287
6.04423
5.63492
5.27461
4.99106
4.82367
4.68096
4.5452
4.41865
4.299
4.18783
4.09159
3.95771
3.74129
3.53438
3.40014
3.30221
3.21813
3.14197
3.0703
3.01038
2.95934
2.89714
2.76944
2.62583
2.52128
2.45954
2.41831
2.37945
2.34198
2.35329
2.48198
2.80011
3.27735
3.56242
3.57796
3.58292
3.5587
3.50436
3.4489
3.38652
3.31327
3.25926
3.18643
3.1853
3.33257
3.67322
4.08175
4.38231
4.50762
4.49376
4.39816
4.21134
4.07357
3.98812
3.93259
3.87564
3.81536
3.75345
3.68379
3.52528
3.72743
3.72277
3.69289
3.55616
3.28455
2.95202
2.65023
2.34843
2.03912
1.79302
1.68215
1.57782
1.45284
1.23508
1.11016
1.11191
1.10456
1.13903
1.4254
2.21415
3.12766
3.40959
3.35446
3.22176
3.08198
2.96923
2.86374
2.7515
2.67245
2.62066
2.55525
2.48273
2.60264
3.24888
4.49673
5.53317
5.69194
5.62482
5.35852
5.02562
4.78579
4.6197
4.48598
4.37502
4.26896
4.16223
4.03598
3.88152
3.71799
3.54906
3.39356
3.27394
3.18096
3.10667
3.04325
2.98534
2.91485
2.83663
2.76836
2.66664
2.55939
2.4679
2.41281
2.392
2.43929
2.70499
3.14335
3.62473
3.85557
3.84063
3.76104
3.64723
3.55022
3.48244
3.42565
3.3722
3.32188
3.2654
3.20844
3.11398
3.07529
3.15089
3.3849
3.75438
4.07253
4.22273
4.22067
4.18849
4.13725
4.06835
3.99788
3.91853
3.8432
3.75872
3.66087
3.48262
3.71938
3.72369
3.7064
3.67015
3.52615
3.28604
2.95043
2.64838
2.42257
2.19032
1.87096
1.7285
1.67935
1.54622
1.36138
1.24817
1.30262
1.71269
2.67003
3.51401
3.69449
3.57216
3.36007
3.17149
3.04058
2.93277
2.81408
2.70259
2.62525
2.5536
2.46099
2.36923
2.28498
2.30643
2.61527
3.52541
4.72179
5.32432
5.22407
5.05346
4.77752
4.54822
4.4057
4.32555
4.24634
4.14943
4.02331
3.86444
3.68073
3.50237
3.3607
3.25825
3.1783
3.10666
3.03261
2.95765
2.8741
2.78629
2.69086
2.60671
2.54454
2.47836
2.46512
2.58614
2.984
3.51466
3.89542
4.0218
4.001
3.92693
3.81667
3.68083
3.57092
3.49311
3.42881
3.36732
3.31057
3.25126
3.18255
3.10264
3.04983
2.99168
3.00547
3.12941
3.40651
3.72618
3.9493
4.11611
4.14939
4.12266
4.03802
3.92896
3.83336
3.73789
3.62887
3.46354
3.73475
3.73275
3.72467
3.70604
3.65215
3.50838
3.28199
2.96473
2.66859
2.49761
2.2643
2.00808
1.8021
1.72261
1.61815
1.71421
2.3146
3.3892
4.12921
4.11042
3.93932
3.69619
3.46659
3.28262
3.13054
2.98537
2.83551
2.71997
2.62143
2.52869
2.41501
2.31142
2.23112
2.16181
2.10423
2.20234
2.77839
3.83861
4.7206
4.85095
4.71652
4.51092
4.37773
4.26927
4.16222
4.05399
3.9392
3.80391
3.64577
3.48363
3.34862
3.24987
3.17225
3.09457
3.00874
2.91759
2.82306
2.73798
2.65797
2.62208
2.57143
2.60898
2.82728
3.3187
3.84443
4.11899
4.22575
4.20177
4.12173
4.01035
3.84958
3.69873
3.58538
3.50354
3.43454
3.36686
3.30537
3.25599
3.20193
3.13967
3.05429
2.98187
2.92307
2.88914
2.93267
3.12226
3.42508
3.76149
3.97233
4.00702
3.99968
3.95192
3.85723
3.73985
3.61958
3.46645
3.74147
3.72925
3.72128
3.71628
3.70457
3.63517
3.4891
3.26682
3.00705
2.71145
2.53308
2.31009
2.07609
1.98818
2.21441
3.12346
4.35445
4.79415
4.67719
4.37968
4.07984
3.83079
3.61444
3.43252
3.27262
3.11502
2.95995
2.82121
2.68329
2.55083
2.40854
2.29049
2.2085
2.1199
2.03268
1.97308
1.99743
2.26622
3.03158
4.05452
4.50204
4.48403
4.40194
4.23336
4.08385
3.95494
3.84305
3.72914
3.60396
3.46217
3.33506
3.23909
3.1622
3.07179
2.97165
2.87647
2.7911
2.72398
2.67753
2.6852
2.80917
3.20356
3.71101
4.1623
4.28658
4.30463
4.25784
4.17016
4.07802
3.95925
3.82271
3.70295
3.604
3.52166
3.44868
3.38038
3.3165
3.25281
3.18598
3.12003
3.04965
2.98088
2.91624
2.84838
2.79542
2.81688
2.92759
3.20782
3.54246
3.8082
3.93062
3.92674
3.86188
3.72788
3.61401
3.48846
3.74673
3.727
3.70723
3.69883
3.69677
3.68797
3.61661
3.46295
3.25309
2.98711
2.76189
2.49307
2.54353
3.06781
4.27668
5.44332
5.60156
5.39235
5.00483
4.62161
4.29496
4.03086
3.8059
3.60122
3.40556
3.21796
3.05146
2.90274
2.76386
2.62016
2.47519
2.34042
2.23026
2.11841
2.0078
1.92584
1.89034
1.88176
1.97266
2.45136
3.29139
4.02288
4.19539
4.12276
4.01873
3.90993
3.80366
3.69344
3.57533
3.45019
3.33386
3.21185
3.10669
3.0089
2.92352
2.84307
2.79275
2.75373
2.82154
3.12771
3.68431
4.16216
4.43794
4.52335
4.47238
4.35138
4.23134
4.12311
4.02469
3.91294
3.80611
3.72265
3.64397
3.56399
3.4874
3.41003
3.32714
3.2453
3.17667
3.12221
3.06847
3.00085
2.91876
2.82883
2.75815
2.74481
2.74585
2.80664
3.00629
3.3097
3.5741
3.6928
3.71166
3.66392
3.61149
3.52216
3.81764
3.81309
3.7549
3.71061
3.70835
3.71572
3.69042
3.61119
3.42938
3.22432
3.00537
3.19708
4.22167
5.70453
6.45156
6.37127
6.02122
5.62866
5.24437
4.86557
4.51182
4.20336
3.94664
3.73112
3.53622
3.34427
3.15892
2.98264
2.82487
2.67293
2.53042
2.40032
2.28269
2.15995
2.03417
1.9378
1.87135
1.82687
1.7882
1.81165
2.02435
2.61149
3.39161
3.77641
3.88501
3.87573
3.7798
3.66156
3.54294
3.43134
3.32158
3.18717
3.05431
2.95029
2.88953
2.83793
2.85757
3.05862
3.56339
4.25661
4.60296
4.60782
4.58037
4.54557
4.47087
4.36692
4.25083
4.11973
3.99421
3.87261
3.78918
3.74259
3.68732
3.6153
3.53044
3.4353
3.33775
3.24996
3.1813
3.12832
3.07804
3.01673
2.93298
2.81759
2.73724
2.70883
2.6945
2.69372
2.72664
2.837
3.02632
3.26256
3.43384
3.51741
3.56516
3.53909
3.67462
3.68367
3.62665
3.6385
3.67282
3.71296
3.72668
3.68196
3.56177
3.58163
4.22887
5.75808
7.26149
7.65358
7.41459
6.84384
6.30613
5.85574
5.45298
5.07096
4.71373
4.39219
4.10742
3.8517
3.62377
3.42081
3.24055
3.07609
2.92509
2.77325
2.61239
2.44702
2.29201
2.1614
2.05398
1.9682
1.89029
1.83512
1.76872
1.71772
1.68
1.73778
2.06904
2.7612
3.32977
3.59603
3.67593
3.59647
3.47688
3.37905
3.27213
3.13515
2.9964
2.92865
2.90387
3.00403
3.4209
4.09756
4.72809
5.04643
5.03681
4.90606
4.69083
4.52285
4.43234
4.34875
4.2543
4.1265
3.99199
3.87659
3.80075
3.74086
3.68731
3.62704
3.54945
3.45054
3.35087
3.27025
3.2069
3.15313
3.09917
3.02913
2.92603
2.80656
2.7385
2.70505
2.67794
2.65757
2.66157
2.65978
2.69597
2.77469
2.96521
3.18646
3.38549
3.44997
2.69926
3.31137
3.60847
3.76852
3.75108
3.70333
3.6936
3.71855
4.00481
5.39397
7.67514
8.45184
8.33347
8.05216
7.61249
7.1427
6.64958
6.16426
5.69398
5.25315
4.86326
4.53208
4.24278
3.97608
3.72689
3.49635
3.28515
3.09625
2.93352
2.79815
2.67643
2.54139
2.37944
2.20055
2.06746
1.99745
1.93204
1.85797
1.77173
1.69436
1.6452
1.58689
1.59075
1.73899
2.24598
2.8703
3.36156
3.49339
3.47107
3.37325
3.22448
3.10185
2.99293
3.00115
3.21803
3.86032
4.59411
5.07237
5.1511
5.12102
5.06148
4.93678
4.75531
4.56578
4.43128
4.33542
4.23777
4.12255
4.00013
3.89999
3.83474
3.78055
3.72255
3.6457
3.54138
3.43767
3.35678
3.2932
3.2354
3.18047
3.12334
3.04544
2.91729
2.80163
2.76165
2.73138
2.69894
2.66815
2.63999
2.61433
2.59115
2.56161
2.58387
2.73133
2.95746
3.23892
1.41413
2.30943
3.19546
3.67242
3.67297
3.67462
3.89233
4.67214
6.58603
8.88387
9.84746
9.64795
8.89753
8.17378
7.71985
7.32261
6.86458
6.37595
5.90001
5.44873
5.03854
4.67971
4.35746
4.06329
3.78095
3.52704
3.31703
3.14953
3.00044
2.8427
2.67869
2.53671
2.4054
2.25969
2.14776
2.04315
1.91768
1.83602
1.79758
1.75204
1.6928
1.60839
1.53835
1.48701
1.54817
1.84074
2.43901
2.9908
3.28867
3.27551
3.2088
3.23087
3.39367
3.71841
4.38524
5.04776
5.42449
5.4955
5.37665
5.15385
4.97955
4.86887
4.7317
4.56199
4.41347
4.31249
4.2285
4.1436
4.0554
3.96146
3.85887
3.74934
3.6486
3.56169
3.48122
3.41391
3.36324
3.31469
3.26467
3.20663
3.13469
3.04498
2.93132
2.83136
2.77349
2.73881
2.70638
2.67085
2.63443
2.59943
2.55893
2.52569
2.45526
2.45373
2.53278
2.83189
1.02736
1.3109
2.00543
3.08677
3.33048
4.31867
6.01765
7.72741
9.58564
10.0122
9.95761
9.678
9.1751
8.51551
7.94513
7.43647
6.92731
6.43887
6.00727
5.60847
5.20743
4.8313
4.48554
4.16506
3.85613
3.58285
3.37055
3.18909
3.0246
2.87061
2.71215
2.53048
2.34641
2.24708
2.16955
2.05613
1.94576
1.86397
1.78275
1.69375
1.61356
1.54385
1.47583
1.44304
1.41268
1.4139
1.5691
2.02114
2.69925
2.98025
3.32159
4.0696
4.69884
5.11241
5.44927
5.46333
5.49336
5.46739
5.36628
5.20893
5.02034
4.87153
4.73072
4.56693
4.44011
4.34788
4.26789
4.19051
4.10558
4.00556
3.88725
3.76482
3.63687
3.51993
3.44975
3.41094
3.37202
3.33259
3.2934
3.24242
3.1602
3.04593
2.93974
2.87167
2.81659
2.77154
2.73546
2.69825
2.65886
2.61896
2.57321
2.51425
2.45229
2.3622
2.33623
2.45423
1.00055
1.01865
1.15982
2.00329
3.41884
6.05338
8.47104
9.79819
10.8644
10.6209
10.0295
9.61657
9.29184
8.77752
8.12134
7.53199
7.04676
6.60336
6.16913
5.74134
5.29703
4.87007
4.46996
4.11915
3.9118
3.74354
3.54851
3.34603
3.14819
2.95044
2.74472
2.55597
2.39131
2.24677
2.17395
2.13144
2.05677
1.94166
1.81131
1.69551
1.60492
1.54087
1.48641
1.43813
1.39288
1.34216
1.33292
1.43348
1.88632
2.82102
3.84467
5.03993
5.72312
6.02917
5.99371
5.74366
5.49455
5.36546
5.28682
5.21604
5.06975
4.87161
4.67272
4.48322
4.36483
4.29606
4.22975
4.15748
4.08493
4.01383
3.92315
3.77759
3.60828
3.50147
3.4596
3.42388
3.38411
3.34291
3.29756
3.24213
3.17569
3.08355
2.97621
2.87299
2.79567
2.73733
2.69051
2.65063
2.61248
2.57508
2.54055
2.51316
2.47009
2.367
2.27928
2.29495
1.00033
1.01243
1.21
1.89252
3.89281
5.99307
8.08331
9.91364
10.7644
10.5753
10.1874
9.79352
9.49795
8.99092
8.24285
7.51671
6.9254
6.44756
6.01795
5.64177
5.33989
4.98828
4.588
4.22386
3.91634
3.65192
3.44238
3.25133
3.05701
2.90924
2.80694
2.67382
2.50107
2.32874
2.19557
2.08683
1.98872
1.8654
1.75606
1.71392
1.66513
1.6127
1.55855
1.48726
1.40609
1.33633
1.33186
1.40685
1.72739
2.6702
4.00747
4.86836
5.58648
6.11014
5.96731
5.75935
5.57596
5.40662
5.2947
5.24999
5.13759
4.9171
4.66531
4.45311
4.3422
4.27857
4.22703
4.1786
4.12922
4.07211
3.97444
3.78538
3.59892
3.5452
3.51185
3.47147
3.42947
3.38687
3.33986
3.27869
3.18484
3.05646
2.93723
2.85709
2.79342
2.73699
2.68583
2.64097
2.60003
2.56454
2.53211
2.49769
2.45142
2.36339
2.28494
2.29901
1.02357
1.22347
2.11317
2.93636
3.71024
4.35625
5.67958
7.74154
9.22622
9.93803
10.0326
9.84899
9.39413
8.7296
8.07882
7.45451
6.87992
6.38555
5.96264
5.56799
5.16386
4.77345
4.42307
4.11423
3.8417
3.62008
3.42924
3.25829
3.09192
2.90688
2.71119
2.54968
2.40309
2.2599
2.13494
2.04361
1.96366
1.86252
1.74609
1.6513
1.60267
1.56537
1.51881
1.48086
1.42076
1.41891
1.57598
2.02725
2.61269
2.9276
3.42368
3.85609
4.49089
5.20988
5.36617
5.43936
5.52559
5.52947
5.4256
5.26646
5.06139
4.85993
4.64258
4.47925
4.38919
4.30857
4.22778
4.15738
4.09111
4.02165
3.93509
3.80345
3.62203
3.49372
3.44622
3.40939
3.37054
3.33106
3.29072
3.24174
3.16755
3.06049
2.93811
2.84254
2.78049
2.73029
2.68637
2.64808
2.61091
2.57122
2.52703
2.48549
2.45789
2.38604
2.34379
2.45531
1.35652
2.22147
3.3013
3.60145
3.63816
3.68538
3.87505
4.69691
6.58721
8.78506
9.93054
9.79897
9.0734
8.33502
7.78407
7.27551
6.75111
6.2392
5.77098
5.35487
4.98018
4.66715
4.40607
4.14633
3.86983
3.5951
3.35061
3.15373
2.991
2.83203
2.66109
2.49957
2.36794
2.26369
2.16029
2.06188
1.96831
1.85853
1.74423
1.6454
1.58659
1.56059
1.53329
1.51119
1.58344
1.90078
2.4617
2.98424
3.2334
3.22249
3.19628
3.17772
3.32527
3.7999
4.54714
5.10953
5.50392
5.55204
5.44063
5.20787
4.9847
4.82023
4.65436
4.51556
4.40394
4.31332
4.2281
4.14949
4.07419
3.98957
3.88728
3.77766
3.65953
3.52879
3.43764
3.39094
3.35162
3.31043
3.27141
3.23259
3.18322
3.07961
2.90447
2.81045
2.78489
2.75474
2.72118
2.68702
2.6502
2.60962
2.56481
2.51982
2.45416
2.45613
2.5275
2.81959
2.47138
3.33125
3.76132
3.79669
3.75779
3.71797
3.67619
3.68106
3.96302
5.25933
7.4835
8.49823
8.41834
8.13027
7.64056
7.08872
6.53797
6.02896
5.58129
5.20113
4.88751
4.61627
4.34933
4.0697
3.78906
3.51454
3.26779
3.06501
2.90209
2.76886
2.64771
2.52699
2.39961
2.26341
2.11587
1.9863
1.92041
1.87177
1.80022
1.71279
1.63413
1.58542
1.59179
1.76098
2.29787
2.92175
3.32053
3.44898
3.41381
3.33011
3.20547
3.11461
3.02125
3.04674
3.32907
3.91642
4.62022
5.1325
5.17367
5.09589
4.97273
4.82992
4.67044
4.52431
4.41547
4.33313
4.2504
4.15306
4.05073
3.95246
3.85436
3.75755
3.6615
3.56143
3.46309
3.38102
3.33377
3.30088
3.26633
3.22532
3.16588
3.06275
2.90551
2.79078
2.73941
2.70583
2.6764
2.64802
2.62338
2.602
2.58334
2.55423
2.57937
2.71935
2.93984
3.22666
3.53945
3.72418
3.70434
3.71866
3.7369
3.74493
3.72027
3.65379
3.52436
3.53244
4.11406
5.75915
7.27157
7.64251
7.42059
6.82636
6.28066
5.82489
5.4282
5.07851
4.76685
4.47993
4.20654
3.93937
3.68092
3.43256
3.20262
3.00332
2.84254
2.70455
2.56652
2.43093
2.30546
2.19243
2.09277
1.99643
1.89888
1.81458
1.73976
1.70498
1.6714
1.71934
2.0714
2.79764
3.41209
3.62019
3.64688
3.57839
3.47131
3.36726
3.26001
3.13737
3.02374
2.9505
2.91508
3.00391
3.37202
4.03667
4.69128
5.00985
4.96933
4.82808
4.65169
4.53233
4.45047
4.36988
4.27092
4.14452
4.0102
3.90231
3.81199
3.72643
3.64724
3.57488
3.50055
3.41951
3.33395
3.28409
3.24466
3.19789
3.13551
3.03853
2.90354
2.79343
2.7361
2.7017
2.6756
2.65353
2.64946
2.64461
2.68386
2.76597
2.96567
3.18204
3.39241
3.47027
3.79498
3.80374
3.76864
3.73598
3.72108
3.71723
3.68598
3.60543
3.42564
3.22561
3.00101
3.20072
4.24787
5.70313
6.3685
6.32176
6.01233
5.61956
5.24206
4.89961
4.58497
4.29614
4.03004
3.77755
3.53995
3.31249
3.10124
2.90828
2.74145
2.60437
2.50297
2.41115
2.31274
2.19639
2.07372
1.96499
1.87072
1.80887
1.75597
1.77027
1.97487
2.56787
3.36396
3.85437
3.92668
3.8886
3.75877
3.61967
3.5007
3.39011
3.28716
3.17697
3.074
2.96789
2.8939
2.82467
2.83246
2.99965
3.49894
4.17517
4.58181
4.63419
4.6524
4.61694
4.52705
4.40704
4.26327
4.117
3.97259
3.85905
3.7747
3.70002
3.63435
3.57664
3.51939
3.4475
3.35775
3.2779
3.21957
3.16033
3.08706
2.99719
2.8999
2.81657
2.75176
2.71529
2.69496
2.68809
2.71331
2.81817
3.00418
3.24128
3.42505
3.52784
3.59169
3.57132
3.71863
3.70903
3.70524
3.7069
3.70711
3.68557
3.61095
3.45997
3.25952
2.99545
2.76553
2.49218
2.54229
3.05486
4.23681
5.44488
5.61728
5.396
5.01644
4.65677
4.34775
4.07697
3.8261
3.58891
3.36781
3.15959
2.97876
2.83364
2.7157
2.6013
2.49137
2.37817
2.27555
2.15802
2.04398
1.93968
1.88292
1.84813
1.93028
2.38365
3.21782
3.98889
4.21983
4.18332
4.05516
3.90412
3.77235
3.64551
3.53269
3.42608
3.3249
3.21803
3.12025
3.02469
2.93151
2.83755
2.76442
2.7165
2.78089
3.10462
3.69475
4.22399
4.56452
4.60268
4.54633
4.40135
4.24509
4.11406
3.97926
3.85026
3.75284
3.68
3.62272
3.57288
3.52082
3.45914
3.3804
3.28727
3.19587
3.11621
3.03714
2.96066
2.88777
2.83188
2.77761
2.75305
2.75459
2.81105
3.00213
3.2749
3.51141
3.67414
3.67415
3.65865
3.62928
3.55122
3.726
3.72526
3.72557
3.72424
3.7097
3.63453
3.48919
3.27222
3.01406
2.71907
2.53374
2.30462
2.07289
1.98368
2.20673
3.13944
4.39474
4.80859
4.6997
4.40977
4.1144
3.85336
3.61487
3.40439
3.22055
3.05365
2.90062
2.7724
2.66318
2.55569
2.44724
2.34993
2.26749
2.16399
2.0695
1.97667
1.97955
2.20147
2.94704
3.89998
4.46636
4.55308
4.46818
4.2983
4.12968
3.96257
3.81925
3.68525
3.56334
3.4504
3.3464
3.25085
3.17098
3.08914
2.99022
2.87542
2.76191
2.68407
2.638
2.65933
2.83272
3.27277
3.85161
4.25829
4.33263
4.31756
4.26102
4.15207
4.00995
3.85093
3.7329
3.66495
3.61249
3.56521
3.51664
3.46022
3.38629
3.28663
3.16961
3.06816
2.99507
2.93939
2.89257
2.85906
2.83859
2.8682
2.98704
3.26819
3.5652
3.77662
3.87685
3.85102
3.77723
3.68626
3.62043
3.51379
3.73208
3.73501
3.72971
3.71031
3.64974
3.50519
3.28164
2.96744
2.67446
2.50067
2.26296
2.00355
1.79807
1.72322
1.62021
1.72122
2.33852
3.382
4.14129
4.12943
3.95615
3.70383
3.45033
3.23609
3.08189
2.95196
2.81897
2.70286
2.62943
2.56384
2.47911
2.39595
2.28599
2.2048
2.11525
2.193
2.70647
3.69246
4.59928
4.81957
4.78594
4.64193
4.48098
4.33841
4.20525
4.05191
3.88596
3.72121
3.57709
3.46398
3.37117
3.28685
3.21057
3.13774
3.05044
2.93013
2.78807
2.68234
2.60823
2.58609
2.57644
2.6413
2.90542
3.40995
3.90585
4.1799
4.20826
4.1694
4.06041
3.8792
3.73396
3.6524
3.60059
3.55363
3.5044
3.4485
3.37528
3.27783
3.15636
3.03053
2.96204
2.92093
2.9088
2.92985
3.02098
3.24062
3.54928
3.88693
4.02294
3.99401
3.94381
3.85194
3.76407
3.69064
3.62595
3.51026
3.72146
3.72543
3.70757
3.669
3.52544
3.28659
2.95162
2.64942
2.42463
2.19183
1.86913
1.72543
1.67901
1.54786
1.36308
1.24768
1.30371
1.70235
2.64267
3.5412
3.68754
3.55282
3.33918
3.14391
3.0181
2.92533
2.82205
2.71714
2.64876
2.60051
2.51973
2.4396
2.31669
2.32453
2.60335
3.49063
4.56725
5.20787
5.2237
5.09465
4.87679
4.66987
4.50948
4.37257
4.23873
4.08968
3.92305
3.75859
3.6084
3.4746
3.39315
3.34616
3.29824
3.22795
3.12711
2.98857
2.83299
2.71432
2.62272
2.56294
2.52358
2.49518
2.50607
2.64148
3.03402
3.53583
3.8881
3.97943
3.94297
3.86721
3.75458
3.6696
3.60478
3.54718
3.49219
3.43264
3.35919
3.25606
3.12815
3.01455
2.97039
2.95936
2.992
3.16056
3.50556
3.85672
4.12359
4.20061
4.15554
4.05868
3.93767
3.82702
3.75361
3.70266
3.65584
3.54333
3.72823
3.72367
3.69319
3.55565
3.2847
2.95199
2.64906
2.34839
2.04092
1.79332
1.68034
1.5763
1.45401
1.2369
1.10883
1.11024
1.10268
1.13729
1.40462
2.21404
3.12223
3.37404
3.31944
3.19944
3.07043
2.97729
2.88738
2.78598
2.70966
2.65145
2.58273
2.50217
2.61906
3.25923
4.47868
5.42714
5.54835
5.48964
5.31316
5.12158
4.93092
4.74583
4.57004
4.39725
4.23114
4.07593
3.92775
3.78935
3.66158
3.54642
3.45145
3.36998
3.28369
3.19193
3.08334
2.96387
2.85149
2.76336
2.67964
2.59629
2.53231
2.47539
2.45007
2.44167
2.495
2.74483
3.16324
3.6037
3.76327
3.76496
3.73591
3.68306
3.61275
3.5409
3.48666
3.4222
3.34428
3.24818
3.12811
3.02776
3.02555
3.11107
3.37232
3.78265
4.17937
4.31508
4.30961
4.2427
4.09735
3.97705
3.91774
3.85298
3.79815
3.75446
3.70937
3.57678
3.74901
3.72818
3.6002
3.30502
2.93961
2.63151
2.26696
1.87072
1.69688
1.58305
1.43764
1.29862
1.16506
1.03999
1.00079
0.990755
0.974752
0.952882
0.97358
1.18267
1.91248
2.85603
3.19541
3.25071
3.22712
3.13702
3.04062
2.92627
2.83775
2.74302
2.75321
3.03192
4.12515
5.42313
6.1392
6.09797
5.87963
5.58515
5.33153
5.14811
4.989
4.7965
4.58353
4.3952
4.23329
4.08389
3.94165
3.80736
3.69208
3.61624
3.54463
3.43949
3.32056
3.19825
3.08527
2.98626
2.89241
2.79376
2.72802
2.67211
2.60435
2.53734
2.4783
2.4261
2.38066
2.40306
2.51335
2.80344
3.21131
3.50456
3.57213
3.61833
3.59208
3.53448
3.46795
3.38979
3.30781
3.23839
3.13622
3.14569
3.29519
3.63675
4.0569
4.42044
4.54787
4.52599
4.42101
4.21348
4.029
3.937
3.89304
3.85649
3.8269
3.78222
3.73332
3.58681
3.74189
3.63314
3.33459
2.8873
2.54271
2.18666
1.73865
1.54403
1.46184
1.29155
1.14293
1.09442
1.04368
0.98187
0.977577
0.970651
0.96099
0.948121
0.941096
0.952135
1.09405
1.78884
2.73959
3.24077
3.34525
3.32048
3.24221
3.12762
2.98812
3.06096
3.6395
5.03978
6.4054
6.53963
6.46579
6.19883
5.94897
5.72823
5.48948
5.23643
4.99834
4.7901
4.59806
4.41591
4.24954
4.11605
4.01806
3.92838
3.81746
3.6756
3.51283
3.37978
3.269
3.16869
3.08314
3.01474
2.94344
2.8581
2.75741
2.65243
2.57038
2.50537
2.44394
2.39317
2.33378
2.29552
2.2586
2.29508
2.47042
2.83926
3.2037
3.43594
3.54726
3.53928
3.47299
3.39862
3.34422
3.306
3.36284
3.6132
3.96047
4.33696
4.58757
4.63075
4.61327
4.54104
4.36937
4.1359
4.00188
3.9531
3.91985
3.90029
3.87468
3.82919
3.76817
3.59093
3.66143
3.35248
2.83889
2.38372
2.03035
1.63615
1.36309
1.25624
1.14307
0.986904
0.946202
0.935928
0.91943
0.923727
0.944502
0.961827
0.963017
0.963798
0.969653
0.987966
1.00826
1.1473
1.76971
2.64837
3.3112
3.36552
3.34416
3.36097
3.57875
4.53862
6.0476
7.03858
7.22446
7.01178
6.53919
6.16644
5.90824
5.66502
5.43536
5.2055
4.98062
4.77317
4.59663
4.45353
4.32757
4.20958
4.07987
3.92611
3.77302
3.63193
3.4925
3.37082
3.26997
3.18577
3.1165
3.04701
2.96696
2.87241
2.76352
2.66033
2.58121
2.51825
2.45813
2.40056
2.33933
2.27682
2.22567
2.18073
2.17422
2.25815
2.5576
2.95867
3.29069
3.41199
3.41848
3.44214
3.53342
3.671
3.98342
4.37629
4.65987
4.80513
4.80639
4.73892
4.59825
4.45945
4.30556
4.11599
3.99799
3.94664
3.90201
3.87026
3.84028
3.79754
3.74384
3.59149
3.37273
2.73362
2.1699
1.81671
1.45586
1.17785
1.1436
1.10304
1.01371
0.942378
0.921638
0.907497
0.908284
0.928347
0.971559
0.993461
0.998617
0.998573
0.998872
1.01477
1.03225
1.04619
1.13448
1.59578
2.5844
3.086
3.55151
4.26865
5.59666
6.73281
7.42181
7.37041
7.07813
6.76245
6.49355
6.24583
5.97507
5.69806
5.43307
5.19114
4.98353
4.82042
4.70024
4.58679
4.47249
4.34686
4.19505
4.00972
3.79966
3.62198
3.50656
3.41518
3.3384
3.27157
3.20462
3.12833
3.03825
2.93067
2.81452
2.71342
2.63646
2.57254
2.51187
2.4487
2.3834
2.31342
2.24599
2.18871
2.11804
2.10663
2.16579
2.39769
2.7882
3.14931
3.38988
3.73657
4.12596
4.32778
4.56467
4.73392
4.88171
4.9036
4.8228
4.68355
4.53978
4.39816
4.25805
4.12218
4.03853
3.99168
3.94351
3.89329
3.84592
3.79618
3.74903
3.62599
2.65972
1.69928
1.15753
0.842624
0.64569
0.634786
0.694351
0.798046
0.817621
0.838356
0.884472
0.917607
0.947111
1.02189
1.06504
1.06742
1.0573
1.03692
1.03639
1.05065
1.0677