/*--------------------------------*- C++ -*----------------------------------*\
  =========                 |
  \\      /  F ield         | OpenFOAM: The Open Source CFD Toolbox
   \\    /   O peration     | Website:  https://openfoam.org
    \\  /    A nd           | Version:  7
     \\/     M anipulation  |
\*---------------------------------------------------------------------------*/
FoamFile
{
    version     2.0;
    format      ascii;
    class       volScalarField;
    location    "2.2";
    object      rho;
}
// * * * * * * * * * * * * * * * * * * * * * * * * * * * * * * * * * * * * * //

dimensions      [1 -3 0 0 0 0 0];

internalField   nonuniform List<scalar> 
4608
(
1.40001
1.40001
1.40001
1.40001
1.40001
1.40001
1.40001
1.40001
1.40001
1.40001
1.40001
1.40001
1.40001
1.40001
1.40001
1.40001
1.40001
1.40001
1.40001
1.40001
1.40001
1.40001
1.40001
1.40001
1.40001
1.40001
1.40001
1.40001
1.40001
1.40001
1.40001
1.40001
1.40001
1.40001
1.40001
1.40001
1.40001
1.40001
1.40001
1.40001
1.40001
1.40001
1.40001
1.40001
1.40001
1.40001
1.40001
1.40001
1.40001
1.40001
1.40001
1.40001
1.40001
1.40001
1.40001
1.40001
1.40001
1.40001
1.40001
1.40001
1.40001
1.40001
1.40001
1.40001
1.40001
1.40001
1.40001
1.40001
1.40001
1.40001
1.40001
1.40001
1.40001
1.40001
1.40001
1.40001
1.40001
1.40001
1.40001
1.40001
1.40001
1.40001
1.40001
1.40001
1.40001
1.40001
1.40001
1.40001
1.40001
1.40001
1.40001
1.40001
1.40001
1.40001
1.40001
1.40001
1.40001
1.40001
1.40001
1.40001
1.40001
1.40001
1.40001
1.40001
1.40001
1.40001
1.40001
1.40001
1.40001
1.40001
1.40001
1.40001
1.40001
1.40001
1.40001
1.40001
1.40001
1.40001
1.40001
1.40001
1.40001
1.40001
1.40001
1.40001
1.40001
1.40001
1.40001
1.40001
1.40001
1.40001
1.40001
1.40001
1.40001
1.40001
1.40001
1.40001
1.40001
1.40001
1.40001
1.40001
1.40001
1.40001
1.40001
1.40001
1.40001
1.40001
1.40001
1.40001
1.40001
1.40001
1.40001
1.40001
1.40001
1.40001
1.40001
1.40001
1.40001
1.40001
1.40001
1.40001
1.40001
1.40001
1.40001
1.40001
1.40001
1.40001
1.40001
1.40001
1.40001
1.40001
1.40001
1.40001
1.40001
1.40001
1.40001
1.40001
1.40001
1.40001
1.40001
1.40001
1.40001
1.40001
1.40001
1.40001
1.40001
1.40001
1.40001
1.40001
1.40001
1.40001
1.40001
1.40001
1.40001
1.40001
1.40001
1.40001
1.40001
1.40001
1.40001
1.40001
1.40001
1.40001
1.40001
1.40001
1.40001
1.40001
1.40001
1.40001
1.40001
1.40001
1.40001
1.40001
1.40001
1.40001
1.40001
1.40001
1.40001
1.40001
1.40001
1.40001
1.40001
1.40001
1.40001
1.40001
1.40001
1.40001
1.40001
1.40001
1.40001
1.40001
1.40001
1.40001
1.40001
1.40001
1.40001
1.40001
1.40001
1.40001
1.40001
1.40001
1.40001
1.40001
1.40001
1.40001
1.40001
1.40001
1.40001
1.40001
1.40001
1.40001
1.40001
1.40001
1.40001
1.40001
1.40001
1.40001
1.40001
1.40001
1.40001
1.40001
1.40001
1.40001
1.40001
1.40001
1.40001
1.40001
1.40001
1.40001
1.40001
1.40001
1.40001
1.40001
1.40001
1.40001
1.40001
1.40001
1.40001
1.40001
1.40001
1.40001
1.40001
1.40001
1.40001
1.40001
1.40001
1.40001
1.40001
1.40001
1.40001
1.40001
1.40001
1.40001
1.40001
1.40001
1.40001
1.40001
1.40001
1.40001
1.40001
1.40001
1.40001
1.40001
1.40001
1.40001
1.40001
1.40001
1.40001
1.40001
1.40001
1.40001
1.40001
1.40001
1.40001
1.40001
1.40001
1.40001
1.40001
1.40001
1.40001
1.40001
1.40001
1.40001
1.40001
1.40001
1.40001
1.40001
1.40001
1.40001
1.40001
1.40001
1.40001
1.40001
1.40001
1.40001
1.40001
1.40001
1.40001
1.40001
1.40001
1.40001
1.40001
1.40001
1.40001
1.40001
1.40001
1.40001
1.40001
1.40001
1.40001
1.40001
1.40001
1.40001
1.40001
1.40001
1.40001
1.40001
1.40001
1.40001
1.40001
1.40001
1.40001
1.40001
1.40001
1.40001
1.40001
1.40001
1.40001
1.40001
1.40001
1.40001
1.40001
1.40001
1.40001
1.40001
1.40001
1.40001
1.40001
1.40001
1.40001
1.40001
1.40001
1.40001
1.40001
1.40001
1.40001
1.40001
1.40001
1.40001
1.40001
1.40001
1.40001
1.40001
1.40001
1.40001
1.40001
1.40001
1.40001
1.40001
1.40001
1.40001
1.40001
1.40001
1.40001
1.40001
1.40001
1.40001
1.40001
1.40001
1.40001
1.40001
1.40001
1.40001
1.40001
1.40001
1.40001
1.40001
1.40001
1.40001
1.40001
1.40001
1.40001
1.40001
1.40001
1.40001
1.40001
1.40001
1.40001
1.40001
1.40001
1.40001
1.40001
1.40001
1.40001
1.40001
1.40001
1.40001
1.40001
1.40001
1.40001
1.40001
1.40001
1.40001
1.40001
1.40001
1.40001
1.40001
1.40001
1.40001
1.40001
1.40001
1.40001
1.40001
1.40001
1.40001
1.40001
1.40001
1.40001
1.40001
1.40001
1.40001
1.40001
1.40001
1.40001
1.40001
1.40001
1.40001
1.40001
1.40001
1.40001
1.40001
1.40001
1.40001
1.40001
1.40001
1.40001
1.40001
1.40001
1.40001
1.40001
1.40001
1.40001
1.40001
1.40001
1.40001
1.40001
1.40001
1.40001
1.40001
1.40001
1.40001
1.40001
1.40001
1.40001
1.40001
1.40001
1.40001
1.40001
1.40001
1.40001
1.40001
1.40001
1.40001
1.40001
1.40001
1.40001
1.40001
1.40001
1.40001
1.40001
1.40001
1.40001
1.40001
1.40001
1.40001
1.40001
1.40001
1.40001
1.40001
1.40001
1.40001
1.40001
1.40001
1.40001
1.40001
1.40001
1.40001
1.40001
1.40001
1.40001
1.40001
1.40001
1.40001
1.40001
1.40001
1.40001
1.40001
1.40001
1.40001
1.40001
1.40001
1.40001
1.40001
1.40001
1.40001
1.40001
1.40001
1.40001
1.40001
1.40001
1.40001
1.40001
1.40001
1.40001
1.40001
1.40001
1.40001
1.40001
1.40001
1.40001
1.40001
1.40001
1.40001
1.40001
1.40001
1.40001
1.40001
1.40001
1.40001
1.40001
1.40001
1.40001
1.40001
1.40001
1.40001
1.40001
1.40001
1.40001
1.40001
1.40001
1.40001
1.40001
1.40001
1.40001
1.40001
1.40001
1.40001
1.40001
1.40001
1.40001
1.40001
1.40001
1.40001
1.40001
1.40001
1.40001
1.40001
1.40001
1.40001
1.40001
1.40001
1.40001
1.40001
1.40001
1.40001
1.40001
1.40001
1.40001
1.40001
1.40001
1.40001
1.40001
1.40001
1.40001
1.40001
1.40001
1.40001
1.40001
1.40001
1.40001
1.40001
1.40001
1.40001
1.40001
1.40001
1.40001
1.40001
1.40001
1.40001
1.40001
1.40001
1.40001
1.40001
1.40001
1.40001
1.40001
1.40001
1.40001
1.40001
1.40001
1.40001
1.40001
1.40001
1.40001
1.40001
1.40001
1.40001
1.40001
1.40001
1.40001
1.40001
1.40001
1.40001
1.40001
1.40001
1.40001
1.40001
1.40001
1.40001
1.40001
1.40001
1.40001
1.40001
1.40001
1.40001
1.40001
1.40001
1.40001
1.40001
1.40001
1.40001
1.40001
1.40001
1.40001
1.40001
1.40001
1.40001
1.40001
1.40001
1.40001
1.40001
1.40001
1.40001
1.40001
1.40001
1.40001
1.40001
1.40001
1.40001
1.40001
1.40001
1.40001
1.40001
1.40001
1.40001
1.40001
1.40001
1.40001
1.40001
1.40001
1.40001
1.40001
1.40001
1.40001
1.40001
1.40001
1.40001
1.40001
1.40001
1.40001
1.40001
1.40001
1.40001
1.40001
1.40001
1.40001
1.40001
1.40001
1.40001
1.40001
1.40001
1.40001
1.40001
1.40001
1.40001
1.40001
1.40001
1.40001
1.40001
1.40001
1.40001
1.40001
1.40001
1.40001
1.40001
1.40001
1.40001
1.40001
1.40001
1.40001
1.40001
1.40001
1.40001
1.40001
1.40001
1.40001
1.40001
1.40001
1.40001
1.40001
1.40001
1.40001
1.40001
1.40001
1.40001
1.40001
1.40001
1.40001
1.40001
1.40001
1.40001
1.40001
1.40001
1.40001
1.40001
1.40001
1.40001
1.40001
1.40001
1.67738
2.08125
2.54525
2.99024
3.42238
3.8406
4.11312
4.41986
4.43232
4.30236
4.02031
3.71484
3.46233
3.36334
3.29979
3.30577
3.33274
3.36065
3.37745
3.3846
3.39408
3.4082
3.42487
3.43065
1.40291
1.41866
1.47041
1.59337
1.79369
2.11396
2.50484
2.98399
3.37023
3.54686
3.64006
3.60731
3.5743
3.48876
3.41518
3.38755
3.38278
3.37123
3.37111
3.37619
3.38789
3.39907
3.4088
3.4195
1.40001
1.39999
1.39998
1.40027
1.40313
1.422
1.4974
1.70702
2.19531
2.8925
3.42457
3.7049
3.77837
3.72345
3.6168
3.44348
3.36419
3.35346
3.35295
3.36224
3.37408
3.37972
3.38442
3.39849
1.40001
1.4
1.4
1.4
1.39999
1.40004
1.39997
1.40141
1.43221
1.62859
2.19592
2.89073
3.49483
3.57667
3.55578
3.50951
3.42835
3.37395
3.36367
3.35183
3.34652
3.34928
3.35372
3.36845
1.40001
1.40001
1.4
1.4
1.4
1.4
1.4
1.4
1.39992
1.40099
1.43833
1.67977
2.31862
2.99571
3.41219
3.54216
3.51655
3.44464
3.37722
3.34191
3.31624
3.30383
3.31036
3.32222
1.40001
1.40001
1.40001
1.40001
1.40001
1.4
1.4
1.4
1.39999
1.4
1.39993
1.40286
1.45794
1.82676
2.49525
3.18689
3.38689
3.38608
3.36397
3.32364
3.28309
3.28064
3.28098
3.28746
1.40001
1.40001
1.40001
1.40001
1.40001
1.40001
1.40001
1.40001
1.40001
1.4
1.4
1.39999
1.39999
1.41199
1.52301
2.02818
2.74631
3.30554
3.41197
3.37657
3.32934
3.31438
3.30179
3.28771
1.40001
1.40001
1.40001
1.40001
1.40001
1.40001
1.40001
1.40001
1.40001
1.40001
1.40001
1.4
1.4
1.39997
1.40066
1.43702
1.67668
2.37672
3.00308
3.34429
3.37961
3.36645
3.3419
3.31424
1.40001
1.40001
1.40001
1.40001
1.40001
1.40001
1.40001
1.40001
1.40001
1.40001
1.40001
1.40001
1.4
1.4
1.4
1.40005
1.40566
1.52541
1.99122
2.80673
3.14614
3.27123
3.33194
3.32871
1.40001
1.40001
1.40001
1.40001
1.40001
1.40001
1.40001
1.40001
1.40001
1.40001
1.40001
1.40001
1.40001
1.4
1.4
1.4
1.39999
1.40171
1.4388
1.74714
2.44331
3.09244
3.33769
3.33589
1.40001
1.40001
1.40001
1.40001
1.40001
1.40001
1.40001
1.40001
1.40001
1.40001
1.40001
1.40001
1.40001
1.40001
1.40001
1.4
1.4
1.4
1.40016
1.4146
1.59233
2.19951
2.86523
3.27565
1.40001
1.40001
1.40001
1.40001
1.40001
1.40001
1.40001
1.40001
1.40001
1.40001
1.40001
1.40001
1.40001
1.40001
1.40001
1.40001
1.4
1.4
1.4
1.40003
1.40515
1.49816
1.97079
2.75903
1.40001
1.40001
1.40001
1.40001
1.40001
1.40001
1.40001
1.40001
1.40001
1.40001
1.40001
1.40001
1.40001
1.40001
1.40001
1.40001
1.40001
1.4
1.4
1.4
1.4
1.40178
1.4612
1.80336
1.40001
1.40001
1.40001
1.40001
1.40001
1.40001
1.40001
1.40001
1.40001
1.40001
1.40001
1.40001
1.40001
1.40001
1.40001
1.40001
1.40001
1.40001
1.40001
1.4
1.4
1.4
1.40117
1.42609
1.40001
1.40001
1.40001
1.40001
1.40001
1.40001
1.40001
1.40001
1.40001
1.40001
1.40001
1.40001
1.40001
1.40001
1.40001
1.40001
1.40001
1.40001
1.40001
1.40001
1.40001
1.4
1.40001
1.40007
1.40001
1.40001
1.40001
1.40001
1.40001
1.40001
1.40001
1.40001
1.40001
1.40001
1.40001
1.40001
1.40001
1.40001
1.40001
1.40001
1.40001
1.40001
1.40001
1.40001
1.40001
1.4
1.4
1.4
1.40001
1.40001
1.40001
1.40001
1.40001
1.40001
1.40001
1.40001
1.40001
1.40001
1.40001
1.40001
1.40001
1.40001
1.40001
1.40001
1.40001
1.40001
1.40001
1.40001
1.40001
1.40001
1.4
1.4
1.40001
1.40001
1.40001
1.40001
1.40001
1.40001
1.40001
1.40001
1.40001
1.40001
1.40001
1.40001
1.40001
1.40001
1.40001
1.40001
1.40001
1.40001
1.40001
1.40001
1.4
1.4
1.4
1.40004
1.40001
1.40001
1.40001
1.40001
1.40001
1.40001
1.40001
1.40001
1.40001
1.40001
1.40001
1.40001
1.40001
1.40001
1.40001
1.40001
1.40001
1.40001
1.40001
1.4
1.4
1.4
1.4011
1.42849
1.40001
1.40001
1.40001
1.40001
1.40001
1.40001
1.40001
1.40001
1.40001
1.40001
1.40001
1.40001
1.40001
1.40001
1.40001
1.40001
1.40001
1.4
1.4
1.4
1.4
1.40182
1.4643
1.83243
1.40001
1.40001
1.40001
1.40001
1.40001
1.40001
1.40001
1.40001
1.40001
1.40001
1.40001
1.40001
1.40001
1.40001
1.40001
1.40001
1.4
1.4
1.4
1.40003
1.40507
1.49473
2.01836
2.72163
1.40001
1.40001
1.40001
1.40001
1.40001
1.40001
1.40001
1.40001
1.40001
1.40001
1.40001
1.40001
1.40001
1.40001
1.40001
1.4
1.4
1.4
1.40016
1.415
1.5836
2.2034
2.90387
3.22872
1.40001
1.40001
1.40001
1.40001
1.40001
1.40001
1.40001
1.40001
1.40001
1.40001
1.40001
1.40001
1.40001
1.4
1.4
1.4
1.39999
1.40169
1.43897
1.74881
2.42051
3.12064
3.332
3.32046
1.40001
1.40001
1.40001
1.40001
1.40001
1.40001
1.40001
1.40001
1.40001
1.40001
1.40001
1.40001
1.4
1.4
1.4
1.40005
1.40572
1.52438
1.99869
2.79154
3.14398
3.29064
3.33931
3.32763
1.40001
1.40001
1.40001
1.40001
1.40001
1.40001
1.40001
1.40001
1.40001
1.40001
1.40001
1.4
1.4
1.39997
1.40066
1.43695
1.67633
2.37717
3.00807
3.33648
3.38023
3.3707
3.34272
3.30692
1.40001
1.40001
1.40001
1.40001
1.40001
1.40001
1.40001
1.40001
1.40001
1.4
1.4
1.39999
1.39999
1.41199
1.52308
2.02844
2.74489
3.30675
3.41212
3.37642
3.32911
3.31577
3.30105
3.2871
1.40001
1.40001
1.40001
1.40001
1.40001
1.4
1.4
1.4
1.39999
1.4
1.39993
1.40287
1.45792
1.82667
2.49558
3.18681
3.38665
3.38608
3.3641
3.32273
3.28262
3.28089
3.28083
3.28701
1.40001
1.40001
1.4
1.4
1.4
1.4
1.4
1.4
1.39992
1.40099
1.43831
1.67993
2.31838
2.99568
3.41234
3.54217
3.51644
3.44469
3.37701
3.3415
3.31644
3.30439
3.31055
3.32208
1.40001
1.4
1.4
1.4
1.39999
1.40004
1.39997
1.4014
1.43223
1.62854
2.19604
2.89081
3.49445
3.5767
3.55601
3.50978
3.42803
3.37407
3.36358
3.35182
3.34672
3.34956
3.35391
3.36842
1.40001
1.39999
1.39998
1.40027
1.40313
1.422
1.49741
1.707
2.19539
2.89231
3.4248
3.7048
3.77833
3.72342
3.61693
3.44368
3.36361
3.35368
3.35299
3.36233
3.37422
3.37987
3.38448
3.39842
1.40291
1.41866
1.47041
1.59337
1.79368
2.11398
2.50481
2.98407
3.37021
3.5468
3.6401
3.60735
3.57424
3.4888
3.41534
3.38731
3.38267
3.37132
3.37117
3.37622
3.38785
3.39907
3.40877
3.41946
1.67738
2.08125
2.54524
2.99025
3.42239
3.84063
4.11307
4.41989
4.43232
4.30234
4.02028
3.71487
3.46226
3.36333
3.29981
3.30573
3.33271
3.36077
3.37764
3.38458
3.394
3.40811
3.42479
3.43062
2.66337
1.9311
1.45767
1.14695
0.936355
0.92173
0.970662
1.06442
1.08816
1.11274
1.1616
1.19478
1.22138
1.28893
1.33426
1.33826
1.33146
1.31316
1.3119
1.32582
1.34378
1.34968
1.34754
1.39126
1.6933
2.55792
3.629
4.80517
5.81917
6.01755
5.68524
5.15967
4.81691
4.63909
4.54299
4.42697
4.29094
4.17398
4.07466
3.97908
3.8795
3.77453
3.6697
3.56739
3.46386
3.35669
3.25339
3.16557
3.10189
3.04956
2.99827
2.94594
2.89234
2.83684
2.77432
2.69148
2.5823
2.48334
2.43685
2.4155
2.39613
2.37482
2.35102
2.32311
2.28574
2.22986
2.14485
2.04268
1.98302
1.9678
1.97081
2.00458
2.15302
2.4846
2.97244
3.40317
3.67919
3.89603
3.96193
3.91155
3.80914
3.69933
3.64095
3.59269
3.53699
3.48166
3.425
3.3455
3.24145
3.18025
3.15032
3.12277
3.10104
3.09091
3.08178
3.02862
3.15602
2.71391
2.30088
2.02548
1.73374
1.49781
1.45154
1.405
1.32115
1.251
1.22836
1.20995
1.20892
1.22618
1.26661
1.28935
1.29526
1.29441
1.29311
1.3067
1.32434
1.33661
1.40972
1.76436
2.4313
2.75601
3.04758
3.47207
4.2148
4.79728
5.13574
5.0899
4.91671
4.74348
4.5875
4.43266
4.3072
4.20814
4.10845
4.00954
3.90947
3.80368
3.69461
3.58976
3.48583
3.38329
3.28955
3.20738
3.13607
3.08121
3.0301
2.97755
2.92268
2.86342
2.79709
2.71673
2.61892
2.53126
2.47626
2.44681
2.4266
2.40479
2.3788
2.3473
2.30622
2.24889
2.17435
2.08086
2.02177
2.02398
2.07052
2.22532
2.48951
2.74415
2.90701
3.14536
3.38105
3.46486
3.54447
3.63316
3.67951
3.6939
3.67095
3.61863
3.558
3.49468
3.43561
3.3625
3.26028
3.19113
3.15879
3.13272
3.114
3.10365
3.09004
3.03653
3.3387
3.13694
2.78684
2.46054
2.19806
1.88656
1.65242
1.5577
1.45689
1.31035
1.26903
1.2591
1.24151
1.2448
1.2625
1.27863
1.28104
1.2821
1.28712
1.30276
1.32127
1.43567
1.91316
2.50174
2.90585
2.94154
2.93424
2.94571
3.07551
3.61803
4.41265
4.93871
4.99863
4.89033
4.6366
4.43605
4.28199
4.13604
4.00314
3.89606
3.80888
3.72727
3.64154
3.55422
3.4711
3.39144
3.30352
3.19378
3.07487
2.99597
2.95103
2.90914
2.86528
2.8171
2.76132
2.69917
2.63081
2.54798
2.4637
2.40385
2.37032
2.34523
2.31885
2.28685
2.2496
2.20808
2.16232
2.09922
2.08805
2.14501
2.33683
2.5839
2.8103
2.90427
2.92456
2.93877
3.00381
3.06695
3.19453
3.40358
3.55526
3.63972
3.67162
3.65043
3.59048
3.51554
3.43539
3.34678
3.25021
3.18912
3.15909
3.13745
3.11449
3.0853
3.05403
2.98804
3.36553
3.30257
3.11409
2.81511
2.57434
2.31338
1.96426
1.80633
1.73987
1.59522
1.45736
1.41274
1.36926
1.3112
1.30288
1.29448
1.2864
1.27583
1.2675
1.27673
1.39905
1.9291
2.58612
2.87055
2.93635
2.91817
2.86361
2.78091
2.69784
2.74605
3.08592
3.8956
4.58806
4.67037
4.61964
4.48644
4.31093
4.11799
3.95043
3.8327
3.75841
3.69321
3.63113
3.56971
3.50145
3.42223
3.31962
3.20332
3.07778
2.97086
2.91023
2.86915
2.8324
2.79873
2.76437
2.72158
2.66153
2.57118
2.47583
2.40271
2.35553
2.31657
2.28249
2.25059
2.22174
2.20289
2.17579
2.20285
2.32367
2.55711
2.75578
2.88093
2.9579
2.97131
2.9373
2.89631
2.86331
2.82879
2.85227
2.97367
3.18961
3.40055
3.53829
3.57387
3.56988
3.53748
3.4577
3.34428
3.24723
3.20013
3.17426
3.15177
3.12428
3.08849
3.04803
2.96752
3.34495
3.33803
3.26562
3.08214
2.84178
2.63071
2.36615
2.06287
1.9281
1.83778
1.71243
1.58636
1.47037
1.36389
1.32586
1.31463
1.29849
1.27745
1.29751
1.47207
2.01952
2.65036
2.88513
2.88959
2.86309
2.79465
2.72436
2.63854
2.57706
2.53934
2.55482
2.73707
3.3711
4.06472
4.45977
4.46285
4.36259
4.15198
3.96142
3.80749
3.71528
3.63771
3.56535
3.4961
3.42838
3.36391
3.30718
3.22931
3.10336
2.98109
2.90045
2.84097
2.7893
2.74226
2.69749
2.65935
2.62662
2.58686
2.50499
2.41142
2.34245
2.30132
2.27364
2.24797
2.2229
2.23016
2.31362
2.51478
2.80785
2.97974
2.98888
2.98878
2.97307
2.94
2.90689
2.86862
2.82267
2.78814
2.74255
2.74154
2.8302
3.03106
3.26562
3.4348
3.50556
3.49828
3.44489
3.33965
3.26202
3.21418
3.18317
3.15081
3.11612
3.08011
3.03864
2.94319
3.30928
3.31405
3.30207
3.22321
3.05399
2.83681
2.63185
2.4159
2.18513
1.99674
1.90729
1.8195
1.71418
1.52881
1.42069
1.42272
1.41531
1.4438
1.66945
2.22413
2.81261
2.98084
2.94605
2.86105
2.77001
2.69561
2.62552
2.55146
2.5003
2.46747
2.42553
2.37759
2.45271
2.8415
3.54428
4.08676
4.17576
4.14064
4.00023
3.82301
3.69235
3.60148
3.52829
3.46677
3.40652
3.34504
3.27222
3.18223
3.08585
2.98576
2.89281
2.82021
2.76286
2.71656
2.67668
2.64022
2.59577
2.54605
2.50193
2.43564
2.3653
2.3044
2.26774
2.25479
2.28551
2.45551
2.72545
3.01123
3.14587
3.13724
3.09015
3.02211
2.96436
2.92361
2.88922
2.85664
2.82528
2.78984
2.75464
2.69685
2.67388
2.71988
2.85989
3.07535
3.25899
3.34119
3.34106
3.32488
3.29697
3.25804
3.21784
3.17239
3.12917
3.08
3.02198
2.9157
3.2917
3.29948
3.29325
3.27564
3.1903
3.04022
2.82085
2.61499
2.45557
2.2861
2.04467
1.93395
1.89522
1.78759
1.63312
1.53682
1.57877
1.88304
2.52677
3.04022
3.14882
3.07488
2.94411
2.82644
2.74276
2.6723
2.59377
2.52051
2.47203
2.42648
2.36623
2.30544
2.24924
2.26343
2.45777
2.99705
3.66318
3.98497
3.93218
3.84031
3.68912
3.56188
3.48256
3.43785
3.39278
3.3367
3.26322
3.17029
3.06225
2.95632
2.87096
2.80868
2.75934
2.71439
2.66771
2.62045
2.56756
2.51158
2.45009
2.39505
2.35357
2.30961
2.30096
2.37873
2.62784
2.94612
3.16668
3.23873
3.22652
3.18341
3.11906
3.03937
2.97475
2.92845
2.88969
2.85224
2.81736
2.78092
2.73905
2.69032
2.65881
2.62396
2.63223
2.70688
2.87315
3.06033
3.18865
3.28338
3.30397
3.28886
3.24074
3.17862
3.12331
3.06726
3.00255
2.90423
3.2988
3.30019
3.29723
3.28789
3.2566
3.16769
3.02339
2.81433
2.61361
2.49582
2.3287
2.13915
1.98279
1.92388
1.84042
1.90702
2.31124
2.97901
3.40651
3.39502
3.29503
3.15184
3.01363
2.90075
2.80542
2.71257
2.61535
2.53975
2.47449
2.41472
2.34099
2.27227
2.21841
2.17178
2.13046
2.19405
2.55654
3.18383
3.67731
3.74371
3.66807
3.55017
3.47312
3.41049
3.34817
3.28417
3.21627
3.13678
3.04354
2.94639
2.86415
2.80325
2.75484
2.70592
2.65172
2.59396
2.53335
2.47858
2.42638
2.40323
2.36995
2.39341
2.5305
2.82878
3.13524
3.29022
3.35353
3.34011
3.2945
3.2306
3.13789
3.04997
2.98321
2.93489
2.89387
2.85293
2.81528
2.78495
2.7525
2.71583
2.66451
2.62031
2.58447
2.56249
2.58947
2.70614
2.88875
3.08573
3.20658
3.2267
3.22236
3.19475
3.13973
3.07102
2.9995
2.90788
3.30984
3.30086
3.2954
3.29117
3.2829
3.23831
3.14533
3.00219
2.83197
2.63354
2.51185
2.3534
2.1843
2.11707
2.26374
2.83277
3.55779
3.79452
3.72687
3.55626
3.38382
3.23932
3.1115
3.00203
2.90416
2.80582
2.7072
2.61747
2.52675
2.43848
2.34186
2.26199
2.20818
2.14905
2.08752
2.04379
2.05978
2.23747
2.71769
3.31841
3.57414
3.55287
3.50366
3.4045
3.31381
3.23481
3.16727
3.09958
3.02495
2.93876
2.85967
2.79903
2.75035
2.6932
2.62962
2.56865
2.51359
2.46938
2.43907
2.44353
2.5203
2.76143
3.06253
3.31698
3.38598
3.39944
3.37367
3.32469
3.27315
3.20585
3.12692
3.05669
2.9981
2.9495
2.90644
2.86568
2.82724
2.78895
2.74903
2.70991
2.66758
2.62485
2.58464
2.54208
2.50911
2.52333
2.59328
2.76629
2.96689
3.12196
3.19223
3.18965
3.15112
3.07051
3.00183
2.92699
3.32169
3.3068
3.29077
3.28193
3.2788
3.2724
3.22629
3.1276
2.99125
2.8155
2.664
2.47782
2.50878
2.82819
3.52695
4.15701
4.24707
4.13494
3.92289
3.70927
3.52394
3.37161
3.23948
3.1172
2.99858
2.88311
2.77888
2.68373
2.59278
2.49639
2.39769
2.30538
2.23021
2.15253
2.07427
2.01579
1.99009
1.98036
2.04298
2.35977
2.88379
3.31222
3.41413
3.36432
3.29174
3.2209
3.15594
3.08991
3.01887
2.9419
2.86814
2.78975
2.72201
2.65851
2.60369
2.55188
2.51914
2.49119
2.53271
2.71835
3.04688
3.32502
3.48154
3.52953
3.50073
3.43295
3.36491
3.30522
3.25155
3.18902
3.12682
3.07775
3.0315
2.984
2.93821
2.89201
2.84256
2.79389
2.75306
2.72044
2.68781
2.64591
2.59411
2.53749
2.49163
2.48578
2.48742
2.52736
2.65416
2.84069
2.99836
3.06994
3.07581
3.04467
3.00992
2.95602
3.37694
3.37128
3.32991
3.2966
3.2934
3.29698
3.28008
3.22774
3.10829
2.97347
2.82488
2.9359
3.51983
4.31527
4.70251
4.66515
4.48742
4.28239
4.07646
3.8685
3.66937
3.49125
3.33972
3.21068
3.09312
2.97608
2.86093
2.74906
2.64605
2.54401
2.44635
2.35592
2.2743
2.18883
2.10011
2.02982
1.97933
1.94481
1.91442
1.93073
2.07752
2.46452
2.95738
3.18584
3.23161
3.21968
3.15813
3.08533
3.01324
2.94428
2.87401
2.78647
2.69912
2.63105
2.59104
2.55604
2.56665
2.68764
2.98575
3.38174
3.5755
3.58715
3.57529
3.55712
3.51436
3.45487
3.39008
3.31769
3.24727
3.17776
3.12989
3.10261
3.06935
3.02632
2.97586
2.9186
2.85964
2.80685
2.76603
2.73461
2.70426
2.66629
2.61309
2.53934
2.48803
2.47079
2.4641
2.46556
2.4881
2.55954
2.67742
2.82219
2.92335
2.97088
2.99439
2.97817
3.30149
3.30197
3.25982
3.26594
3.28352
3.30369
3.31193
3.28164
3.19892
3.20567
3.55919
4.38488
5.14354
5.34139
5.2262
4.93967
4.6636
4.42832
4.21452
4.00714
3.80761
3.62219
3.4532
3.29879
3.16035
3.03681
2.92567
2.82178
2.72385
2.62269
2.51288
2.39745
2.28779
2.19529
2.11961
2.05805
1.99959
1.95673
1.90437
1.86417
1.8349
1.87623
2.10671
2.56757
2.91868
3.07511
3.11327
3.06348
2.98929
2.92764
2.85821
2.76837
2.67494
2.63181
2.60987
2.66968
2.91964
3.31036
3.66342
3.84098
3.83718
3.76761
3.65088
3.55707
3.50681
3.46128
3.41032
3.33917
3.26148
3.19384
3.15036
3.11511
3.08243
3.04603
2.99975
2.94038
2.87968
2.83059
2.79254
2.76045
2.72782
2.68422
2.61853
2.54103
2.49749
2.47694
2.46108
2.44986
2.45412
2.45353
2.47597
2.52333
2.6413
2.77719
2.89923
2.93692
2.68272
3.07593
3.27272
3.36531
3.34512
3.30593
3.2954
3.30868
3.47478
4.2393
5.37988
5.77393
5.72022
5.58596
5.36967
5.13113
4.87589
4.62069
4.37048
4.13163
3.91445
3.72351
3.55124
3.38905
3.23629
3.09476
2.96407
2.84438
2.73838
2.64748
2.56374
2.4698
2.35565
2.22805
2.13282
2.08246
2.03419
1.97815
1.91121
1.84963
1.81026
1.7643
1.76657
1.87308
2.22605
2.63541
2.94002
3.0162
3.00151
2.93917
2.84321
2.76237
2.68552
2.68702
2.8169
3.19769
3.61192
3.87187
3.92396
3.90816
3.87702
3.80836
3.70509
3.59625
3.52161
3.46931
3.41497
3.34967
3.27933
3.22044
3.18089
3.14799
3.11413
3.06943
3.00732
2.94487
2.89552
2.85625
2.82033
2.78641
2.75098
2.70151
2.61889
2.54377
2.51834
2.49965
2.47991
2.46212
2.44602
2.42952
2.41281
2.38827
2.40099
2.49503
2.64022
2.81634
1.75091
2.40897
3.0179
3.31443
3.30362
3.29984
3.42262
3.87008
4.91491
6.04607
6.4752
6.38037
6.02381
5.67739
5.4551
5.25378
5.01615
4.75794
4.50325
4.25797
4.02978
3.82437
3.63451
3.4561
3.28107
3.12262
2.99128
2.88511
2.78818
2.68242
2.5693
2.46989
2.37712
2.27364
2.19325
2.11705
2.02448
1.96317
1.93265
1.89566
1.84823
1.7813
1.72651
1.68472
1.72962
1.94069
2.35264
2.71154
2.8986
2.88975
2.84698
2.8538
2.94094
3.12992
3.51884
3.88939
4.08907
4.12215
4.05821
3.93882
3.84614
3.78616
3.70679
3.60812
3.5236
3.46692
3.42018
3.37297
3.32295
3.26738
3.20458
3.13765
3.07787
3.02715
2.97962
2.93912
2.90851
2.87861
2.84703
2.80979
2.7634
2.70541
2.63151
2.56695
2.52952
2.50779
2.48837
2.46764
2.44598
2.42335
2.39475
2.36951
2.31889
2.31685
2.36883
2.56241
1.42547
1.66471
2.20038
2.94813
3.10485
3.69847
4.60659
5.49354
6.44875
6.61657
6.57457
6.4285
6.18501
5.87131
5.59402
5.33725
5.07156
4.81104
4.57706
4.35827
4.13428
3.91948
3.71734
3.52565
3.33683
3.1664
3.03225
2.91603
2.80815
2.70406
2.59414
2.46681
2.33676
2.26613
2.21025
2.1272
2.04566
1.98446
1.92186
1.85145
1.78722
1.73137
1.67677
1.64982
1.62431
1.62276
1.73785
2.06354
2.52423
2.70884
2.92583
3.36486
3.70311
3.92944
4.12488
4.13234
4.14139
4.12345
4.06522
3.97918
3.87648
3.79534
3.71585
3.62033
3.54541
3.49282
3.44953
3.40823
3.36078
3.30165
3.22954
3.15436
3.07626
3.00543
2.96373
2.94115
2.91817
2.89413
2.86936
2.83622
2.78289
2.70908
2.64006
2.59523
2.5592
2.5308
2.50929
2.48746
2.4637
2.43811
2.40671
2.36513
2.32085
2.25656
2.23931
2.31861
1.40055
1.41728
1.54139
2.21645
3.16727
4.68757
5.86402
6.50956
7.02478
6.90485
6.6182
6.41689
6.26008
6.01175
5.69061
5.39567
5.14418
4.90808
4.6728
4.43769
4.18924
3.94483
3.70983
3.50034
3.37467
3.27014
3.14736
3.01842
2.89011
2.7583
2.61695
2.48494
2.36888
2.2663
2.21392
2.18255
2.12773
2.04245
1.94352
1.85272
1.78018
1.72866
1.68481
1.64562
1.60785
1.56501
1.55662
1.63542
1.97313
2.60653
3.24308
3.91592
4.26181
4.4193
4.40598
4.27811
4.14374
4.07416
4.03024
3.99038
3.90888
3.79829
3.68667
3.57749
3.50731
3.4674
3.43069
3.39173
3.35211
3.31089
3.25503
3.16468
3.0604
2.99542
2.97094
2.95052
2.9273
2.90219
2.87331
2.83733
2.79401
2.73416
2.66474
2.59737
2.54725
2.51036
2.48148
2.45729
2.43389
2.40986
2.38624
2.36611
2.33427
2.26078
2.20102
2.21299
1.40033
1.41186
1.58319
2.11853
3.43462
4.63783
5.73988
6.58982
6.95379
6.86905
6.69686
6.51046
6.36597
6.11635
5.74743
5.38414
5.07953
4.82566
4.59205
4.38387
4.2144
4.01355
3.7792
3.56306
3.37676
3.21233
3.07981
2.95713
2.82991
2.73037
2.65871
2.56564
2.44527
2.32443
2.22997
2.15094
2.07847
1.98585
1.9011
1.86621
1.82642
1.78448
1.74166
1.68515
1.61888
1.56086
1.55666
1.6145
1.85084
2.50303
3.32479
3.81369
4.20623
4.46441
4.38513
4.27857
4.18774
4.10104
4.03936
4.01112
3.94603
3.82149
3.68015
3.56084
3.49729
3.45997
3.43059
3.40476
3.37859
3.34586
3.2859
3.16926
3.05422
3.02198
3.00313
2.98013
2.9559
2.93027
2.9004
2.86041
2.79936
2.71684
2.64037
2.58878
2.54748
2.51148
2.4794
2.45141
2.42569
2.40268
2.38048
2.35553
2.3215
2.25835
2.20503
2.21594
1.42206
1.59741
2.27266
2.83969
3.33908
3.72085
4.48458
5.53609
6.21729
6.56597
6.61851
6.52953
6.3069
5.9767
5.65322
5.34097
5.04757
4.78734
4.55777
4.33881
4.11012
3.88501
3.67908
3.49488
3.32886
3.19116
3.07076
2.96085
2.85146
2.72724
2.593
2.4807
2.37785
2.2762
2.18642
2.11959
2.05985
1.98326
1.89348
1.81836
1.77876
1.74824
1.71045
1.68017
1.63163
1.6277
1.74409
2.07004
2.46881
2.67749
2.98324
3.23716
3.60517
3.99233
4.06298
4.10652
4.1607
4.16391
4.10739
4.01751
3.89901
3.78349
3.66312
3.5735
3.52242
3.47543
3.42831
3.38852
3.35171
3.31199
3.26003
3.17901
3.06716
2.98808
2.95968
2.93878
2.91671
2.89333
2.86807
2.83604
2.78721
2.71828
2.64033
2.57908
2.53849
2.50594
2.47817
2.45442
2.43126
2.40603
2.37626
2.34607
2.32454
2.27306
2.24485
2.31987
1.70453
2.35947
3.07143
3.26872
3.28954
3.3131
3.41999
3.88849
4.89243
5.98497
6.52788
6.46791
6.11902
5.75438
5.48037
5.2281
4.96305
4.69523
4.44082
4.20732
3.99268
3.81205
3.66158
3.50918
3.34238
3.17237
3.01733
2.88927
2.78091
2.67335
2.55659
2.44534
2.35322
2.27857
2.20331
2.1315
2.06249
1.97969
1.89196
1.81477
1.76768
1.74547
1.72242
1.70355
1.75779
1.98652
2.36961
2.70989
2.86537
2.85769
2.84004
2.81815
2.90229
3.18034
3.60196
3.91264
4.13379
4.16083
4.1003
3.97287
3.84576
3.75316
3.66215
3.58556
3.52233
3.47022
3.42034
3.37465
3.33222
3.28485
3.22541
3.15821
3.08452
3.00345
2.94767
2.92075
2.89923
2.87562
2.85173
2.82674
2.79417
2.72717
2.61519
2.55497
2.53887
2.51961
2.49837
2.4772
2.4543
2.42865
2.39888
2.3669
2.31942
2.31963
2.36654
2.5562
2.54199
3.09384
3.35802
3.37691
3.34978
3.31792
3.28494
3.28498
3.44555
4.16281
5.3008
5.8011
5.7623
5.62058
5.37801
5.10332
4.82385
4.55707
4.31374
4.10093
3.92281
3.76897
3.6172
3.45386
3.28429
3.11309
2.95492
2.82215
2.71439
2.62625
2.54554
2.46292
2.37369
2.27635
2.16832
2.07305
2.02502
1.98871
1.93405
1.86631
1.8049
1.76468
1.76805
1.88892
2.26166
2.66864
2.91445
2.98981
2.96683
2.91228
2.8304
2.76964
2.7031
2.71544
2.88251
3.2265
3.62755
3.91198
3.93578
3.89294
3.82441
3.74503
3.65583
3.57387
3.51343
3.46725
3.42013
3.36458
3.30693
3.25169
3.19467
3.13575
3.07571
3.01433
2.9557
2.90781
2.88174
2.86361
2.84268
2.81632
2.7777
2.71106
2.61031
2.53694
2.50443
2.48313
2.46473
2.44749
2.43283
2.41941
2.40709
2.38507
2.39993
2.48855
2.6299
2.81026
3.22994
3.32479
3.30656
3.31173
3.32116
3.32538
3.30895
3.26344
3.17418
3.17441
3.49845
4.38882
5.14571
5.33451
5.22746
4.93044
4.65306
4.41505
4.20169
4.00918
3.83479
3.6726
3.51621
3.3595
3.20284
3.04741
2.90013
2.77104
2.66664
2.57732
2.48625
2.39234
2.30229
2.22007
2.14687
2.07636
2.00467
1.94252
1.88622
1.8596
1.83179
1.86415
2.10764
2.58974
2.97086
3.09178
3.09548
3.05196
2.98537
2.92004
2.85016
2.76946
2.69255
2.64601
2.61488
2.66758
2.88887
3.27549
3.64203
3.82048
3.80063
3.72542
3.62788
3.56069
3.51552
3.47074
3.41604
3.34536
3.2691
3.2075
3.15486
3.10349
3.05522
3.01161
2.96843
2.92225
2.87225
2.84322
2.81949
2.79007
2.7501
2.68792
2.60162
2.53134
2.49434
2.47231
2.45637
2.44365
2.44336
2.44186
2.46711
2.51811
2.64251
2.77494
2.90444
2.95011
3.36617
3.36341
3.33756
3.31178
3.30006
3.29798
3.27766
3.22433
3.10574
2.97356
2.82165
2.93822
3.53284
4.31688
4.66463
4.64097
4.48064
4.27498
4.0733
3.88605
3.7105
3.54661
3.39289
3.24342
3.09851
2.95596
2.82153
2.69796
2.59003
2.50044
2.43274
2.36927
2.29918
2.21533
2.12712
2.04799
1.9776
1.93252
1.89499
1.90506
2.04639
2.43988
2.933
3.22982
3.25592
3.22979
3.14713
3.0603
2.98702
2.91845
2.85269
2.78056
2.71214
2.64205
2.59301
2.54637
2.54957
2.65068
2.94884
3.33854
3.56713
3.60389
3.61531
3.59479
3.54322
3.4756
3.3957
3.315
3.23359
3.16772
3.11795
3.07369
3.0349
3.00121
2.96827
2.92686
2.87414
2.82638
2.79119
2.75492
2.70914
2.65228
2.5903
2.53723
2.4957
2.4725
2.45997
2.45836
2.47571
2.54473
2.66246
2.80824
2.91666
2.97554
3.01036
2.99731
3.30469
3.29516
3.28932
3.28676
3.2858
3.27102
3.22274
3.12594
2.99566
2.82084
2.66591
2.47677
2.50733
2.82011
3.51032
4.15125
4.25098
4.13393
3.9287
3.7299
3.55548
3.3999
3.25302
3.11097
2.97518
2.84449
2.72944
2.63657
2.56095
2.4862
2.41345
2.33689
2.26489
2.1798
2.09717
2.02208
1.98312
1.95854
2.0165
2.31913
2.84262
3.29846
3.41884
3.39415
3.31373
3.2196
3.13829
3.06077
2.99197
2.92649
2.86345
2.79541
2.73175
2.66864
2.60822
2.54752
2.49994
2.46716
2.50714
2.70589
3.0555
3.3599
3.54829
3.57259
3.54095
3.4602
3.3728
3.3011
3.22632
3.15128
3.09332
3.05032
3.01718
2.98863
2.95829
2.92166
2.87486
2.81932
2.76445
2.71619
2.66739
2.61961
2.57385
2.53862
2.50429
2.48879
2.49083
2.52809
2.64953
2.81827