/*--------------------------------*- C++ -*----------------------------------*\
  =========                 |
  \\      /  F ield         | OpenFOAM: The Open Source CFD Toolbox
   \\    /   O peration     | Website:  https://openfoam.org
    \\  /    A nd           | Version:  7
     \\/     M anipulation  |
\*---------------------------------------------------------------------------*/
FoamFile
{
    version     2.0;
    format      ascii;
    class       volScalarField;
    location    "2.2";
    object      T;
}
// * * * * * * * * * * * * * * * * * * * * * * * * * * * * * * * * * * * * * //

dimensions      [0 0 0 1 0 0 0];

internalField   nonuniform List<scalar> 
4608
(
1
1
1
1
1
1
1
1
1
1
1
1
1
1
1
1
1
1
1
1
1
1
1
1
1
1
1
1
1
1
1
1
1
1
1
1
1
1
1
1
1
1
1
1
1
1
1
1
1
1
1
1
1
1
1
1
1
1
1
1
1
1
1
1
1
1
1
1
1
1
1
1
1
1
1
1
1
1
1
1
1
1
1
1
1
1
1
1
1
1
1
1
1
1
1
1
1
1
1
1
1
1
1
1
1
1
1
1
1
1
1
1
1
1
1
1
1
1
1
1
1
1
1
1
1
1
1
1
1
1
1
1
1
1
1
1
1
1
1
1
1
1
1
1
1
1
1
1
1
1
1
1
1
1
1
1
1
1
1
1
1
1
1
1
1
1
1
1
1
1
1
1
1
1
1
1
1
1
1
1
1
1
1
1
1
1
1
1
1
1
1
1
1
1
1
1
1
1
1
1
1
1
1
1
1
1
1
1
1
1
1
1
1
1
1
1
1
1
1
1
1
1
1
1
1
1
1
1
1
1
1
1
1
1
1
1
1
1
1
1
1
1
1
1
1
1
1
1
1
1
1
1
1
1
1
1
1
1
1
1
1
1
1
1
1
1
1
1
1
1
1
1
1
1
1
1
1
1
1
1
1
1
1
1
1
1
1
1
1
1
1
1
1
1
1
1
1
1
1
1
1
1
1
1
1
1
1
1
1
1
1
1
1
1
1
1
1
1
1
1
1
1
1
1
1
1
1
1
1
1
1
1
1
1
1
1
1
1
1
1
1
1
1
1
1
1
1
1
1
1
1
1
1
1
1
1
1
1
1
1
1
1
1
1
1
1
1
1
1
1
1
1
1
1
1
1
1
1
1
1
1
1
1
1
1
1
1
1
1
1
1
1
1
1
1
1
1
1
1
1
1
1
1
1
1
1
1
1
1
1
1
1
1
1
1
1
1
1
1
1
1
1
1
1
1
1
1
1
1
1
1
1
1
1
1
1
1
1
1
1
1
1
1
1
1
1
1
1
1
1
1
1
1
1
1
1
1
1
1
1
1
1
1
1
1
1
1
1
1
1
1
1
1
1
1
1
1
1
1
1
1
1
1
1
1
1
1
1
1
1
1
1
1
1
1
1
1
1
1
1
1
1
1
1
1
1
1
1
1
1
1
1
1
1
1
1
1
1
1
1
1
1
1
1
1
1
1
1
1
1
1
1
1
1
1
1
1
1
1
1
1
1
1
1
1
1
1
1
1
1
1
1
1
1
1
1
1
1
1
1
1
1
1
1
1
1
1
1
1
1
1
1
1
1
1
1
1
1
1
1
1
1
1
1
1
1
1
1
1
1
1
1
1
1
1
1
1
1
1
1
1
1
1
1
1
1
1
1
1
1
1
1
1
1
1
1
1
1
1
1
1
1
1
1
1
1
1
1
1
1
1
1
1
1
1
1
1
1
1
1
1
1
1
1
1
1
1
1
1
1
1
1
1
1
1
1
1
1
1
1
1
1
1
1
1
1
1
1
1
1
1
1
1
1
1
1
1
1
1
1
1
1
1
1
1
1
1
1
1
1
1
1
1
1
1
1
1
1
1
1
1
1
1
1
1
1
1
1
1
1
1
1
1
1
1
1
1
1
1
1
1
1
1
1
1
1
1
1
1
1
1
1
1
1
1
1
1
1
1
1
1
1
1
1
1
1
1
1
1
1
1
1
1
1
1
1
1
1
1
1
1
1
1
1
1
1
1
1
1.07844
1.1805
1.2898
1.39106
1.48657
1.57437
1.63386
1.68181
1.69968
1.68306
1.63677
1.58558
1.54042
1.52304
1.51339
1.51502
1.5202
1.52545
1.52897
1.53051
1.53205
1.5344
1.53781
1.54029
1.00096
1.00675
1.02698
1.07449
1.14306
1.23285
1.32097
1.40854
1.48047
1.52147
1.54601
1.56342
1.56266
1.55199
1.54043
1.53637
1.53534
1.5329
1.5325
1.53322
1.53495
1.53677
1.53868
1.54149
1
0.999996
0.999993
1.0001
1.00118
1.00833
1.03753
1.11548
1.27076
1.4536
1.5666
1.62085
1.6212
1.61131
1.59282
1.56156
1.54762
1.54506
1.54191
1.54218
1.54312
1.54408
1.54514
1.54808
1
1
0.999999
0.999999
0.999995
1.00001
0.999984
1.00057
1.01361
1.10625
1.31261
1.48519
1.61503
1.61484
1.608
1.59742
1.58258
1.57301
1.56681
1.55928
1.55636
1.5567
1.55753
1.56019
1
1
1
1
1
1
0.999999
0.999998
0.999964
1.0004
1.01698
1.12499
1.35182
1.52471
1.61546
1.62892
1.62213
1.60651
1.58986
1.57838
1.5721
1.56868
1.56946
1.57185
1
1
1
1
1
1
1
1
0.999997
0.999997
0.999961
1.00108
1.02545
1.18557
1.40165
1.56599
1.60183
1.59993
1.59444
1.58653
1.58018
1.57928
1.57765
1.57856
1
1
1
1
1
1
1
1
1
1
0.999996
0.999997
0.999978
1.00468
1.05336
1.25047
1.45671
1.58702
1.60768
1.60139
1.59297
1.59016
1.58717
1.5837
1
1
1
1
1
1
1
1
1
1
1
1
0.999998
0.999986
1.00021
1.01452
1.11576
1.35166
1.51286
1.58982
1.59869
1.59674
1.59307
1.58833
1
1
1
1
1
1
1
1
1
1
1
1
1
0.999999
0.999997
1
1.00207
1.05084
1.22861
1.45585
1.53687
1.56852
1.58567
1.58494
1
1
1
1
1
1
1
1
1
1
1
1
1
1
1
1
0.999994
1.00055
1.0149
1.1364
1.35502
1.51597
1.57366
1.58068
1
1
1
1
1
1
1
1
1
1
1
1
1
1
1
1
0.999999
0.999997
1.00004
1.0052
1.07621
1.27739
1.45686
1.55213
1
1
1
1
1
1
1
1
1
1
1
1
1
1
1
1
1
0.999999
0.999999
1
1.00176
1.03671
1.20846
1.42324
1
1
1
1
1
1
1
1
1
1
1
1
1
1
1
1
1
1
1
1
0.999999
1.00056
1.02213
1.14641
1
1
1
1
1
1
1
1
1
1
1
1
1
1
1
1
1
1
1
1
1
0.999999
1.00035
1.00908
1
1
1
1
1
1
1
1
1
1
1
1
1
1
1
1
1
1
1
1
1
1
1
1.00001
1
1
1
1
1
1
1
1
1
1
1
1
1
1
1
1
1
1
1
1
1
1
1
0.999998
1
1
1
1
1
1
1
1
1
1
1
1
1
1
1
1
1
1
1
1
1
1
1
0.999999
1
1
1
1
1
1
1
1
1
1
1
1
1
1
1
1
1
1
1
1
1
1
1
0.999999
1
1
1
1
1
1
1
1
1
1
1
1
1
1
1
1
1
1
1
1
1
0.999999
1.00033
1.00968
1
1
1
1
1
1
1
1
1
1
1
1
1
1
1
1
1
1
1
1
0.999999
1.00058
1.02397
1.15262
1
1
1
1
1
1
1
1
1
1
1
1
1
1
1
1
1
0.999999
0.999999
1
1.0017
1.03599
1.22469
1.41027
1
1
1
1
1
1
1
1
1
1
1
1
1
1
1
1
0.999999
0.999997
1.00004
1.00532
1.07225
1.2801
1.46733
1.54038
1
1
1
1
1
1
1
1
1
1
1
1
1
1
1
1
0.999994
1.00054
1.01502
1.13638
1.34822
1.52334
1.57316
1.5761
1
1
1
1
1
1
1
1
1
1
1
1
1
0.999999
0.999997
1
1.00208
1.05054
1.23083
1.45116
1.53654
1.57243
1.58695
1.58467
1
1
1
1
1
1
1
1
1
1
1
1
0.999998
0.999986
1.00021
1.0145
1.11562
1.35203
1.51371
1.58814
1.59891
1.59753
1.5931
1.58695
1
1
1
1
1
1
1
1
1
1
0.999996
0.999997
0.999978
1.00468
1.0534
1.25051
1.45626
1.58758
1.60758
1.6012
1.59289
1.59039
1.58699
1.58345
1
1
1
1
1
1
1
1
0.999997
0.999997
0.999961
1.00108
1.02543
1.18555
1.40177
1.5659
1.60183
1.59992
1.59443
1.58627
1.57998
1.57926
1.57765
1.57856
1
1
1
1
1
1
0.999999
0.999998
0.999964
1.0004
1.01698
1.12506
1.35171
1.52472
1.61548
1.62891
1.6221
1.60651
1.58984
1.57835
1.57213
1.56876
1.5695
1.57187
1
1
0.999999
0.999999
0.999995
1.00001
0.999984
1.00056
1.01361
1.10623
1.31264
1.48518
1.61498
1.6148
1.60805
1.59748
1.58251
1.573
1.56684
1.55937
1.55641
1.55675
1.55755
1.56019
1
0.999996
0.999993
1.0001
1.00118
1.00833
1.03754
1.11548
1.27079
1.45356
1.56665
1.62084
1.62119
1.6113
1.59284
1.5616
1.54753
1.54507
1.54194
1.54222
1.54315
1.54411
1.54515
1.54807
1.00096
1.00675
1.02698
1.07449
1.14306
1.23286
1.32096
1.40855
1.48047
1.52146
1.54603
1.56342
1.56265
1.55199
1.54045
1.53633
1.53533
1.53291
1.53251
1.53322
1.53495
1.53678
1.53868
1.54148
1.07844
1.1805
1.2898
1.39106
1.48657
1.57437
1.63386
1.68182
1.69969
1.68306
1.63677
1.58558
1.5404
1.52304
1.51339
1.51502
1.5202
1.52547
1.52899
1.5305
1.53204
1.53439
1.5378
1.54029
1.39808
1.23187
1.11231
1.02811
0.964849
0.963983
1.0021
1.05009
1.05177
1.05441
1.06585
1.07535
1.08614
1.10975
1.11688
1.11621
1.11201
1.106
1.10601
1.10935
1.11219
1.11216
1.11066
1.12851
1.2549
1.52225
1.75642
1.97396
2.13476
2.18738
2.1398
2.05733
1.99929
1.96818
1.9516
1.93232
1.90979
1.88967
1.87184
1.85411
1.83532
1.81541
1.7951
1.77444
1.753
1.73093
1.70973
1.69182
1.67878
1.66791
1.65681
1.64496
1.63245
1.61941
1.60489
1.58594
1.56088
1.53738
1.52596
1.52056
1.5155
1.50977
1.50332
1.49587
1.48607
1.47153
1.44925
1.42166
1.40519
1.40161
1.40264
1.41284
1.45676
1.54813
1.66673
1.75833
1.81454
1.85984
1.8779
1.86875
1.84864
1.82601
1.81258
1.80234
1.79143
1.78103
1.77001
1.75351
1.73081
1.71783
1.71208
1.70682
1.70228
1.69955
1.69687
1.68698
1.49617
1.41005
1.3204
1.25584
1.17521
1.10105
1.10318
1.09918
1.07396
1.05464
1.05065
1.04986
1.05177
1.06055
1.07346
1.07854
1.0797
1.08062
1.08165
1.08717
1.09075
1.09529
1.12423
1.26589
1.48247
1.5587
1.62513
1.72047
1.86588
1.96913
2.03894
2.03576
2.01273
1.98618
1.96017
1.93447
1.91411
1.89681
1.8788
1.8604
1.84139
1.82139
1.801
1.78017
1.75851
1.73725
1.71813
1.70155
1.68674
1.67523
1.66428
1.65255
1.63997
1.62637
1.61122
1.59267
1.57006
1.54958
1.53628
1.52869
1.5234
1.5177
1.51082
1.50252
1.49183
1.4771
1.45771
1.4326
1.41683
1.41776
1.43171
1.47587
1.54787
1.61306
1.65069
1.70362
1.75664
1.77627
1.79386
1.81233
1.82177
1.82397
1.81948
1.80925
1.79776
1.78567
1.77403
1.75872
1.73634
1.72134
1.71486
1.70973
1.7058
1.70306
1.6991
1.68884
1.53538
1.49619
1.42608
1.35634
1.2931
1.2141
1.1547
1.12878
1.09861
1.05505
1.04342
1.04027
1.03704
1.03928
1.04674
1.05267
1.05263
1.05279
1.05507
1.06167
1.0694
1.11328
1.28828
1.47333
1.58295
1.58937
1.58704
1.59005
1.62538
1.7587
1.92532
2.02276
2.03309
2.01504
1.97282
1.93823
1.91175
1.88635
1.86193
1.84161
1.82501
1.8093
1.793
1.77561
1.75845
1.74162
1.72291
1.69993
1.67488
1.65768
1.64756
1.63819
1.62821
1.61726
1.60467
1.59026
1.57392
1.55396
1.53341
1.51834
1.50962
1.50303
1.49615
1.48789
1.47824
1.46731
1.4549
1.43825
1.43653
1.45419
1.50898
1.57334
1.63099
1.65413
1.65789
1.66117
1.67724
1.69404
1.72546
1.77234
1.80335
1.81803
1.8236
1.81923
1.80746
1.79338
1.77754
1.75886
1.73774
1.7241
1.71734
1.71233
1.70707
1.7004
1.69308
1.67979
1.55661
1.54014
1.49907
1.43592
1.38273
1.32313
1.23885
1.19614
1.17625
1.13497
1.09688
1.08307
1.06795
1.04951
1.05027
1.04933
1.04644
1.04114
1.03953
1.04394
1.09682
1.29232
1.48527
1.57007
1.58803
1.58439
1.57287
1.55475
1.53894
1.55427
1.64973
1.83993
1.98348
1.98464
1.9755
1.95277
1.92252
1.88801
1.85678
1.83517
1.82144
1.8084
1.79465
1.7814
1.76746
1.75133
1.73036
1.70594
1.67873
1.65458
1.64053
1.63113
1.6227
1.61495
1.60711
1.5974
1.58325
1.56142
1.53784
1.51987
1.50798
1.49767
1.48869
1.48052
1.47316
1.4677
1.46051
1.4691
1.50522
1.56823
1.61707
1.64817
1.66924
1.67234
1.66437
1.65558
1.64904
1.64369
1.65065
1.68082
1.73016
1.77554
1.80293
1.80819
1.80729
1.8011
1.78571
1.76266
1.74153
1.73044
1.72392
1.71822
1.7119
1.70418
1.69572
1.67896
1.5691
1.56361
1.54339
1.50128
1.44822
1.40064
1.34148
1.26867
1.23171
1.20676
1.17649
1.1446
1.10806
1.06971
1.05783
1.05577
1.05182
1.04455
1.0528
1.12957
1.32976
1.51119
1.57091
1.58025
1.57572
1.56217
1.5473
1.52805
1.51383
1.50485
1.50907
1.56281
1.73499
1.88483
1.95838
1.9584
1.93966
1.90004
1.8641
1.8352
1.81767
1.80151
1.78476
1.76944
1.75553
1.74291
1.73206
1.71579
1.68779
1.65985
1.64119
1.6273
1.61524
1.60407
1.59349
1.5848
1.57735
1.56793
1.5478
1.52449
1.50688
1.49626
1.48909
1.48189
1.475
1.4773
1.50188
1.55885
1.6341
1.67377
1.67593
1.67831
1.67577
1.66875
1.66105
1.65276
1.64333
1.63657
1.6266
1.62662
1.64851
1.69661
1.74989
1.7862
1.8002
1.79839
1.78742
1.76543
1.74831
1.73711
1.72961
1.72207
1.71416
1.70606
1.69725
1.67689
1.5769
1.57267
1.56571
1.54462
1.5057
1.45686
1.40978
1.3609
1.30646
1.25717
1.23475
1.21405
1.18656
1.13102
1.09399
1.09416
1.09261
1.10448
1.19534
1.39372
1.55682
1.60138
1.59408
1.57651
1.55768
1.54211
1.52703
1.50977
1.4964
1.48692
1.47488
1.46192
1.48559
1.60072
1.77622
1.8955
1.90833
1.90182
1.87538
1.84041
1.8146
1.79582
1.78001
1.76679
1.75445
1.74203
1.72678
1.70765
1.6868
1.66413
1.64235
1.62524
1.61186
1.60105
1.59173
1.58301
1.57209
1.55979
1.54909
1.53279
1.51488
1.49934
1.48956
1.4852
1.4942
1.54224
1.61467
1.68524
1.71584
1.7139
1.70395
1.6896
1.6767
1.66761
1.65994
1.65267
1.64609
1.63865
1.63064
1.61655
1.61017
1.62185
1.65702
1.70913
1.74949
1.76938
1.76859
1.76364
1.75682
1.7482
1.73938
1.72929
1.71946
1.70851
1.69599
1.67222
1.5819
1.58
1.57564
1.56862
1.54739
1.5132
1.46432
1.41788
1.38119
1.34135
1.28107
1.25128
1.24053
1.21097
1.16706
1.13705
1.15512
1.27336
1.47938
1.61818
1.64262
1.62642
1.59781
1.57092
1.55202
1.53646
1.51892
1.50114
1.48678
1.47335
1.45607
1.43874
1.42225
1.4266
1.48972
1.64682
1.80459
1.87055
1.85997
1.84227
1.81305
1.78769
1.77111
1.7615
1.75222
1.74101
1.7261
1.70654
1.68276
1.65859
1.63882
1.6241
1.61257
1.60232
1.5915
1.58015
1.56716
1.55313
1.53759
1.52373
1.5136
1.50229
1.49989
1.52208
1.58975
1.67018
1.72218
1.7385
1.73606
1.72699
1.71313
1.69548
1.68058
1.66995
1.6612
1.65283
1.64509
1.63679
1.62669
1.61457
1.6059
1.5962
1.59852
1.61854
1.6599
1.70461
1.73397
1.75507
1.75824
1.75493
1.74443
1.73049
1.71828
1.7061
1.69204
1.66963
1.58502
1.58351
1.58149
1.57806
1.57005
1.55058
1.51975
1.47482
1.42946
1.40101
1.36129
1.31422
1.27242
1.25354
1.23092
1.25846
1.40204
1.59278
1.69702
1.69501
1.67375
1.6418
1.61043
1.5843
1.56225
1.5408
1.51786
1.49935
1.48314
1.46608
1.44428
1.42413
1.40803
1.39358
1.38277
1.40529
1.52149
1.68792
1.7972
1.81407
1.80017
1.77887
1.76465
1.75253
1.74039
1.72817
1.71469
1.69776
1.67703
1.65528
1.63681
1.62306
1.61213
1.60108
1.5885
1.57468
1.56011
1.54653
1.53363
1.5275
1.51902
1.5261
1.5642
1.64247
1.71669
1.75265
1.76413
1.76117
1.75154
1.73791
1.71754
1.6978
1.6826
1.67127
1.66157
1.65221
1.64372
1.6368
1.62859
1.6185
1.60481
1.59318
1.58343
1.57847
1.58556
1.61529
1.65993
1.7066
1.73433
1.73857
1.73772
1.73181
1.71994
1.70491
1.68942
1.66893
1.58258
1.5817
1.58093
1.58084
1.57983
1.57158
1.55302
1.52341
1.48656
1.44142
1.41184
1.37424
1.33065
1.31477
1.3695
1.54367
1.71349
1.76882
1.757
1.72416
1.68798
1.65563
1.6263
1.60076
1.57763
1.55428
1.53072
1.50898
1.48674
1.46451
1.43987
1.41765
1.4002
1.38101
1.36323
1.35157
1.35762
1.41799
1.56171
1.71056
1.76347
1.76693
1.75894
1.74085
1.72533
1.71167
1.69872
1.68436
1.66798
1.64935
1.63274
1.62011
1.60965
1.59681
1.5821
1.56778
1.55457
1.54435
1.53688
1.53847
1.56047
1.62416
1.69645
1.75679
1.77238
1.77279
1.76692
1.75603
1.74426
1.72902
1.71153
1.696
1.68294
1.67158
1.6612
1.65146
1.64228
1.63286
1.62253
1.61188
1.60053
1.5899
1.57962
1.5687
1.55976
1.56288
1.58048
1.62346
1.6716
1.70774
1.72384
1.72353
1.71579
1.69973
1.68551
1.66856
1.57915
1.57791
1.57718
1.57785
1.57847
1.57779
1.56938
1.55012
1.52256
1.48534
1.45144
1.40863
1.4194
1.51862
1.69761
1.83321
1.8465
1.82574
1.78613
1.74435
1.70632
1.67375
1.6448
1.61739
1.59002
1.5626
1.53733
1.51426
1.49238
1.46942
1.44526
1.42128
1.40003
1.37781
1.35514
1.33753
1.32983
1.3303
1.35182
1.45435
1.59789
1.70039
1.72037
1.71561
1.7092
1.6995
1.68734
1.67346
1.65807
1.64189
1.62734
1.61183
1.59786
1.58453
1.57198
1.55976
1.55206
1.54755
1.55966
1.61083
1.6929
1.75248
1.78459
1.79421
1.78859
1.77456
1.76049
1.74644
1.7329
1.71781
1.70415
1.69336
1.68286
1.67212
1.66169
1.65078
1.63867
1.62621
1.61542
1.60676
1.59828
1.58781
1.57522
1.56074
1.54976
1.5459
1.54546
1.55471
1.58575
1.63115
1.66883
1.68405
1.68943
1.68475
1.67982
1.66814
1.58271
1.58348
1.57869
1.57583
1.5764
1.57781
1.57515
1.56632
1.54463
1.51811
1.48946
1.52455
1.67916
1.85072
1.92072
1.91201
1.87853
1.84013
1.80111
1.76084
1.72143
1.68556
1.65442
1.62694
1.60056
1.57321
1.54583
1.51896
1.49461
1.47095
1.44812
1.42639
1.40517
1.38153
1.35605
1.33653
1.32363
1.31511
1.30771
1.31366
1.36417
1.48349
1.60557
1.65953
1.68307
1.68528
1.67559
1.66148
1.64611
1.6316
1.61803
1.60133
1.58423
1.56987
1.56128
1.5544
1.55869
1.59325
1.67086
1.76219
1.80231
1.79836
1.79358
1.78904
1.78105
1.76959
1.75547
1.73845
1.72203
1.70613
1.69491
1.68879
1.68188
1.67247
1.66091
1.64786
1.63408
1.62102
1.61019
1.60157
1.59351
1.58401
1.57139
1.55341
1.54023
1.53488
1.53091
1.52956
1.53423
1.55177
1.58244
1.61846
1.64448
1.65756
1.66686
1.66368
1.55824
1.56184
1.55755
1.55971
1.56599
1.57344
1.57533
1.57079
1.55881
1.5642
1.66343
1.83844
1.97648
2.00604
1.98624
1.93969
1.89309
1.85128
1.8114
1.77168
1.73317
1.69761
1.66524
1.63466
1.60529
1.57703
1.55069
1.52618
1.50344
1.48038
1.45545
1.42896
1.40259
1.37839
1.35666
1.33888
1.32348
1.31299
1.30028
1.29002
1.28182
1.2967
1.37497
1.50558
1.59719
1.63716
1.65303
1.64358
1.62836
1.61587
1.60275
1.58549
1.56825
1.55791
1.55772
1.57534
1.64036
1.73292
1.80687
1.83938
1.8377
1.82304
1.79879
1.78012
1.7695
1.75897
1.74647
1.73011
1.71358
1.69929
1.68903
1.68123
1.67474
1.66705
1.65655
1.6429
1.62908
1.61746
1.60774
1.59916
1.59059
1.5799
1.56441
1.5463
1.53511
1.52894
1.52336
1.5187
1.51835
1.51769
1.5244
1.53947
1.57169
1.60632
1.63481
1.64457
1.40864
1.50717
1.54363
1.56775
1.56991
1.5683
1.56917
1.57343
1.61356
1.78133
1.9973
2.04932
2.03959
2.01811
1.98476
1.94885
1.90928
1.86769
1.82396
1.78003
1.73935
1.70402
1.67263
1.6425
1.61224
1.58168
1.55166
1.52398
1.49977
1.47968
1.46154
1.44059
1.41414
1.38273
1.3571
1.34285
1.3297
1.31495
1.29783
1.28248
1.27235
1.25923
1.26067
1.29978
1.41254
1.52478
1.60074
1.6215
1.61902
1.60677
1.58775
1.57205
1.56027
1.56367
1.59937
1.69012
1.78071
1.83409
1.83783
1.83448
1.82772
1.81483
1.79684
1.77744
1.76164
1.74951
1.73732
1.72303
1.70773
1.69542
1.68778
1.68132
1.67353
1.66285
1.64863
1.63429
1.62303
1.61418
1.60604
1.598
1.5895
1.57824
1.55952
1.54192
1.53527
1.5298
1.52366
1.51715
1.51103
1.5065
1.50349
1.50162
1.50664
1.5326
1.56823
1.61007
1.13072
1.34216
1.48238
1.55122
1.55653
1.55901
1.59214
1.69015
1.87602
2.05712
2.12912
2.11699
2.06789
2.0156
1.98123
1.9513
1.9159
1.8761
1.83424
1.79152
1.75046
1.71312
1.67848
1.64597
1.6133
1.58132
1.55246
1.52832
1.50659
1.48366
1.45961
1.43788
1.41666
1.39141
1.37097
1.35114
1.32615
1.30934
1.30216
1.29394
1.28227
1.26411
1.24742
1.2357
1.25314
1.3279
1.4514
1.54419
1.58841
1.5869
1.57793
1.58499
1.61552
1.66324
1.74471
1.81697
1.85722
1.86644
1.85484
1.83187
1.81257
1.80036
1.7871
1.77012
1.75357
1.74146
1.73088
1.71987
1.70859
1.6974
1.68585
1.67294
1.65961
1.64722
1.63569
1.62616
1.61889
1.61209
1.60538
1.59773
1.58811
1.57573
1.55951
1.54421
1.53503
1.52897
1.52266
1.5153
1.50786
1.50173
1.49599
1.49228
1.48234
1.48272
1.4969
1.54724
1.009
1.10245
1.27597
1.46584
1.50174
1.63477
1.82885
1.9693
2.08101
2.11848
2.1204
2.10768
2.07682
2.03051
1.98841
1.95065
1.91228
1.8737
1.83747
1.80161
1.76341
1.7257
1.68932
1.65391
1.61788
1.58414
1.5562
1.53111
1.50792
1.48623
1.46369
1.43614
1.40578
1.38823
1.37423
1.35323
1.33163
1.31501
1.29867
1.28076
1.26397
1.24837
1.23223
1.22454
1.2176
1.21981
1.26406
1.37124
1.49708
1.54028
1.58937
1.69323
1.77645
1.82148
1.84951
1.85094
1.85704
1.8563
1.84807
1.83267
1.81311
1.79698
1.78237
1.76606
1.7533
1.74273
1.73214
1.72134
1.71027
1.69848
1.68512
1.67095
1.65514
1.63967
1.62959
1.62363
1.61774
1.6121
1.6069
1.60051
1.58982
1.57408
1.55892
1.54913
1.54081
1.53318
1.52619
1.51864
1.5109
1.50385
1.49686
1.48828
1.47929
1.46555
1.4606
1.48189
1.00016
1.00623
1.05343
1.26536
1.5112
1.80792
2.02242
2.10729
2.16523
2.15346
2.12163
2.0981
2.07803
2.04409
1.99801
1.95431
1.9178
1.88357
1.84832
1.81128
1.77022
1.72837
1.68686
1.64751
1.62284
1.60268
1.57844
1.55196
1.52502
1.49753
1.46836
1.44002
1.41326
1.38795
1.37473
1.36722
1.35332
1.33092
1.30477
1.28121
1.26218
1.24792
1.23514
1.22348
1.21282
1.20065
1.19881
1.22714
1.33841
1.51521
1.65971
1.80185
1.88005
1.91
1.90451
1.8796
1.85639
1.84373
1.83651
1.83002
1.81578
1.79562
1.77445
1.75445
1.7423
1.73459
1.72609
1.71608
1.70607
1.69724
1.68737
1.67115
1.65064
1.63652
1.63028
1.62461
1.61848
1.61261
1.60672
1.59974
1.59126
1.57891
1.56365
1.54857
1.53654
1.52659
1.51794
1.51016
1.50273
1.49599
1.49054
1.48701
1.48147
1.46578
1.44978
1.45186
1.0001
1.00393
1.07
1.25065
1.58677
1.80911
1.97159
2.10615
2.1672
2.15539
2.12971
2.10599
2.08879
2.05798
2.00786
1.95452
1.90876
1.87054
1.83473
1.80172
1.77389
1.74001
1.69963
1.65965
1.62372
1.59159
1.56482
1.53929
1.51236
1.49172
1.47806
1.45904
1.43195
1.4026
1.37841
1.35828
1.33955
1.31509
1.2932
1.28575
1.27638
1.26523
1.25282
1.2356
1.21598
1.19862
1.19783
1.21994
1.30662
1.49351
1.68747
1.78717
1.85941
1.91609
1.90514
1.88453
1.8641
1.8457
1.83509
1.83241
1.82275
1.80138
1.77478
1.75082
1.73823
1.73123
1.72503
1.7182
1.71104
1.70389
1.69337
1.67218
1.64969
1.6424
1.63716
1.63083
1.62431
1.61816
1.61213
1.60473
1.59279
1.57502
1.55741
1.54511
1.53516
1.52571
1.51657
1.50827
1.50063
1.49432
1.48918
1.4845
1.47836
1.46513
1.45074
1.45249
1.0077
1.07228
1.30175
1.44767
1.55563
1.63908
1.77306
1.95773
2.07755
2.119
2.12219
2.11173
2.08531
2.04485
2.0007
1.95402
1.90823
1.86738
1.83154
1.79662
1.75893
1.72017
1.68312
1.64811
1.61569
1.58818
1.56344
1.54065
1.51806
1.49222
1.46382
1.43894
1.41487
1.38997
1.36704
1.34982
1.33463
1.31477
1.29102
1.27138
1.26141
1.25357
1.24315
1.23392
1.21908
1.22042
1.26506
1.37107
1.4816
1.53078
1.6067
1.66768
1.74396
1.82697
1.84906
1.8544
1.85927
1.85914
1.84932
1.83524
1.81738
1.79832
1.77434
1.75485
1.74451
1.73561
1.72648
1.71767
1.70885
1.69998
1.68991
1.675
1.65327
1.63691
1.63015
1.6242
1.61784
1.61181
1.60631
1.60028
1.59105
1.57625
1.5579
1.54302
1.53347
1.52534
1.51762
1.51047
1.50346
1.49613
1.48883
1.4832
1.48032
1.46959
1.46171
1.48174
1.11417
1.31812
1.50478
1.54251
1.54838
1.55732
1.58629
1.69106
1.88498
2.055
2.12976
2.12103
2.07595
2.02786
1.9885
1.94827
1.90439
1.86038
1.81935
1.78185
1.74626
1.71405
1.68466
1.6542
1.62094
1.58656
1.55464
1.52815
1.50577
1.48311
1.45723
1.43106
1.40876
1.39086
1.37267
1.35428
1.33608
1.31432
1.29069
1.26934
1.25658
1.25172
1.24628
1.24192
1.26114
1.33958
1.45441
1.54174
1.57983
1.57872
1.57562
1.57864
1.60404
1.67274
1.76738
1.82827
1.86403
1.86811
1.85765
1.83521
1.81462
1.79804
1.77932
1.76313
1.75041
1.74014
1.73064
1.72146
1.71174
1.70036
1.68729
1.6746
1.66099
1.64488
1.63272
1.62538
1.61846
1.61169
1.60604
1.60101
1.59494
1.58093
1.55487
1.53999
1.53567
1.53065
1.52486
1.51858
1.51176
1.50432
1.49684
1.49046
1.48133
1.48239
1.49523
1.54426
1.36111
1.50744
1.56815
1.57404
1.57053
1.56881
1.56675
1.5688
1.61027
1.76878
1.97648
2.05091
2.04531
2.02513
1.98899
1.94467
1.89749
1.85219
1.81138
1.7756
1.7443
1.71474
1.68337
1.64963
1.61518
1.58054
1.54824
1.52049
1.49682
1.47603
1.45619
1.43642
1.41529
1.39205
1.36614
1.34142
1.32768
1.31768
1.30313
1.28484
1.26754
1.25779
1.26044
1.30518
1.42242
1.53279
1.59507
1.61501
1.61093
1.60086
1.58553
1.57438
1.56478
1.57081
1.6169
1.69937
1.78311
1.8368
1.84034
1.83262
1.82037
1.80557
1.78855
1.77232
1.75944
1.74963
1.73987
1.72809
1.71489
1.70172
1.6891
1.67762
1.66664
1.65411
1.64034
1.62784
1.61961
1.61379
1.60865
1.60332
1.59565
1.58162
1.55833
1.54008
1.53136
1.52556
1.52024
1.51471
1.50966
1.50566
1.50252
1.49931
1.50468
1.52985
1.565
1.60745
1.53416
1.56818
1.56842
1.57203
1.57525
1.57664
1.57403
1.56746
1.55445
1.55791
1.64636
1.83713
1.97839
2.00572
1.98736
1.93835
1.88971
1.84707
1.80868
1.77341
1.74028
1.70776
1.67486
1.64166
1.60898
1.57694
1.54603
1.51736
1.49236
1.46911
1.44521
1.42259
1.40193
1.38258
1.36472
1.34611
1.32612
1.3078
1.2913
1.2836
1.27742
1.29125
1.37593
1.5124
1.60794
1.63927
1.64939
1.6415
1.62789
1.61442
1.60132
1.58599
1.57221
1.56111
1.56073
1.57652
1.63415
1.72535
1.80334
1.83584
1.83051
1.81438
1.7951
1.78203
1.77233
1.7627
1.75036
1.73444
1.71738
1.70328
1.69162
1.68102
1.67129
1.66185
1.65097
1.63823
1.62505
1.61709
1.61112
1.60464
1.59621
1.58262
1.56248
1.54496
1.5357
1.5299
1.52496
1.52025
1.5181
1.51625
1.523
1.53781
1.57122
1.6054
1.63522
1.64685
1.57835
1.58329
1.58083
1.57933
1.57862
1.57798
1.57442
1.56548
1.54421
1.51868
1.48899
1.52508
1.68336
1.84958
1.91139
1.90703
1.87859
1.84034
1.80171
1.76515
1.72995
1.69588
1.66291
1.63056
1.59946
1.56887
1.53879
1.50914
1.48185
1.4582
1.44042
1.42476
1.40827
1.38803
1.36485
1.34326
1.32434
1.31043
1.29729
1.30095
1.35108
1.47344
1.60571
1.67072
1.68842
1.68557
1.67209
1.6559
1.64077
1.62627
1.61323
1.5996
1.58679
1.57266
1.56246
1.55301
1.55535
1.58432
1.66117
1.75084
1.79824
1.80025
1.80161
1.79809
1.78874
1.7752
1.7577
1.7387
1.71996
1.70554
1.6949
1.68529
1.67654
1.66843
1.65995
1.64904
1.63558
1.62366
1.61487
1.60603
1.5953
1.58206
1.56734
1.55414
1.54365
1.53748
1.53374
1.53083
1.53437
1.55044
1.57969
1.61589
1.64403
1.65987
1.67036
1.66812
1.57537
1.57584
1.57703
1.57896
1.57952
1.57743
1.56865
1.54961
1.52332
1.48667
1.45232
1.40872
1.41952
1.51654
1.68974
1.83628
1.84998
1.82742
1.78762
1.7479
1.71197
1.67881
1.64664
1.61509
1.58476
1.55509
1.52788
1.50464
1.48461
1.46482
1.44521
1.42473
1.40659
1.38601
1.36449
1.34296
1.32927
1.32109
1.34015
1.43895
1.58479
1.69305
1.72801
1.72552
1.71325
1.69766
1.68286
1.66746
1.65302
1.639
1.62562
1.61167
1.59911
1.5868
1.57353
1.55939
1.54812
1.54149
1.55287
1.6063
1.69291
1.76005
1.80097
1.80367
1.79751
1.78079
1.76208
1.74478
1.72673
1.71054
1.6985
1.68901
1.68098
1.67369
1.66622
1.65756
1.6462
1.63238
1.61849
1.60618
1.59407
1.58227
1.57076
1.56173
1.5528
1.54865
1.54825
1.5567
1.58632
1.62684
1.66055
1.68276
1.68547
1.68549
1.68257
1.6722
1.58109
1.58124
1.58151
1.5817
1.58024
1.57139
1.55306
1.52417
1.48754
1.44259
1.41197
1.37332
1.33007
1.31379
1.36731
1.54837
1.72279
1.77059
1.75848
1.72583
1.69073
1.658
1.62673
1.59778
1.57136
1.54637
1.52277
1.50181
1.48275
1.46405
1.4449
1.4267
1.41067
1.39077
1.37241
1.35278
1.35361
1.40348
1.5439
1.68962
1.75893
1.77577
1.76756
1.74998
1.7316
1.71267
1.69569
1.67904
1.66327
1.64823
1.63387
1.62067
1.61002
1.59914
1.58532
1.56817
1.55019
1.53756
1.53011
1.53394
1.56395
1.63462
1.71724
1.76997
1.77612
1.77417
1.767
1.75341
1.73544
1.71517
1.69993
1.69108
1.6839
1.67727
1.67053
1.66279
1.65244
1.63783
1.62
1.60425
1.59283
1.58386
1.5761
1.57061
1.56701
1.57174
1.5905
1.63293
1.67458
1.70308
1.7169
1.71405
1.70556
1.69503
1.68663
1.67203
1.58435
1.58375
1.58222
1.57853
1.56965
1.55011
1.5197
1.47522
1.43036
1.40146
1.36101
1.31333
1.27155
1.25364
1.23136
1.26046
1.40877
1.59197
1.6962
1.69482
1.67418
1.64288
1.60986
1.57977
1.55663
1.53629
1.51532
1.49649
1.48328
1.47039
1.45484
1.44
1.41981
1.40353
1.38543
1.40313
1.50787
1.6651
1.78065
1.81155
1.80871
1.79396
1.77649
1.76041
1.74542
1.728
1.70851
1.68787
1.6687
1.65302
1.64012
1.62834
1.6176
1.60747
1.59499
1.57705
1.55484
1.53744
1.5253
1.52129
1.51975
1.53144
1.57703
1.65614
1.72336
1.75914
1.76199
1.75739
1.74415
1.72096
1.7018
1.69113
1.68435
1.6781
1.67144
1.66377
1.65366
1.63982
1.62157
1.60197
1.59074
1.58392
1.5819
1.58526
1.59968
1.63333
1.6779
1.72328
1.74015
1.73653
1.73051
1.71921
1.70818
1.69901
1.69066
1.67498
1.58215
1.5802
1.57572
1.56842
1.54726
1.51324
1.46444
1.41799
1.38148
1.34156
1.2807
1.25061
1.24044
1.2113
1.16742
1.13694
1.15562
1.2713
1.47305
1.61853
1.64186
1.62497
1.59689
1.56865
1.54929
1.53493
1.51839
1.50173
1.49063
1.4821
1.46734
1.45253
1.42927
1.43092
1.48765
1.64079
1.78475
1.8559
1.85994
1.84681
1.82404
1.80137
1.78287
1.76654
1.75094
1.73396
1.71453
1.69418
1.67397
1.65499
1.64337
1.63676
1.63013
1.62047
1.6059
1.58518
1.56106
1.54176
1.52648
1.51649
1.50989
1.50455
1.50649
1.53106
1.5965
1.6719
1.72199
1.73361
1.72891
1.71909
1.70464
1.69353
1.68509
1.67756
1.67029
1.66224
1.65219
1.6378
1.61897
1.60117
1.59278
1.59127
1.5967
1.62316
1.67428
1.72207
1.75628
1.76512
1.75946
1.7472
1.7317
1.71778
1.70875
1.70225
1.69591
1.68116
1.57703
1.57284
1.56575
1.54453
1.5057
1.45682
1.40958
1.36089
1.30681
1.25722
1.23436
1.21369
1.18676
1.13148
1.09363
1.09368
1.09203
1.10387
1.18882
1.39241
1.55608
1.59808
1.591
1.57476
1.5564
1.54259
1.52957
1.51481
1.50323
1.49354
1.48128
1.46625
1.48821
1.60154
1.77293
1.88528
1.89539
1.88889
1.87054
1.85054
1.83025
1.81001
1.78997
1.76969
1.75007
1.73167
1.71376
1.69643
1.67956
1.66375
1.65026
1.63867
1.62656
1.61362
1.59804
1.58022
1.56272
1.54848
1.53453
1.52058
1.50968
1.49986
1.4951
1.4938
1.50354
1.54797
1.61762
1.68251
1.70381
1.70426
1.70091
1.69464
1.68565
1.6762
1.66893
1.66007
1.64931
1.63589
1.619
1.60302
1.60232
1.6154
1.65435
1.71179
1.76363
1.7796
1.77872
1.77058
1.75233
1.73652
1.72879
1.72074
1.71401
1.70825
1.70194
1.68552
1.56913
1.56364
1.54343
1.50128
1.44821
1.40056
1.3414
1.26893
1.23184
1.20652
1.17614
1.14496
1.10842
1.06911
1.05754
1.05554
1.05154
1.0445
1.052
1.12766
1.32809
1.51139
1.56742
1.57882
1.57615
1.56398
1.55077
1.53503
1.5228
1.50861
1.51064
1.56016
1.72664
1.87754
1.94979
1.94565
1.92492
1.89627
1.87021
1.85116
1.83465
1.81392
1.79012
1.76829
1.74885
1.73025
1.71218
1.69504
1.6806
1.67119
1.66195
1.64742
1.6302
1.6123
1.59631
1.58205
1.56795
1.55232
1.54154
1.53237
1.52106
1.50979
1.49953
1.49026
1.48155
1.48585
1.50738
1.55989
1.62497
1.6666
1.67587
1.6839
1.68103
1.67375
1.66477
1.65395
1.64266
1.63337
1.61926
1.62074
1.64307
1.69121
1.7458
1.79012
1.80443
1.80218
1.79054
1.76598
1.74216
1.72976
1.7242
1.7195
1.71555
1.70946
1.70277
1.68518
1.55659
1.54014
1.49911
1.43593
1.38276
1.32317
1.23894
1.19631
1.17627
1.13454
1.09716
1.0835
1.0677
1.04935
1.05027
1.04935
1.04626
1.04103
1.03956
1.04397
1.09589
1.29478
1.48675
1.57295
1.58934
1.58616
1.57589
1.56086
1.54352
1.55743
1.65169
1.83015
1.97274
1.97822
1.9715
1.9477
1.92522
1.90523
1.88225
1.85681
1.8323
1.81019
1.78901
1.76785
1.74774
1.73137
1.71935
1.70848
1.69503
1.67689
1.65514
1.63687
1.62124
1.60654
1.59406
1.58425
1.57382
1.56083
1.54515
1.5285
1.51491
1.50366
1.49275
1.48339
1.47233
1.46507
1.4589
1.46664
1.50096
1.56476
1.6206
1.6549
1.67215
1.6714
1.66259
1.6528
1.64576
1.64207
1.65096
1.68707
1.73286
1.77844
1.8064
1.80964
1.80798
1.80059
1.78175
1.75341
1.73608
1.72988
1.72581
1.72323
1.71977
1.71354
1.70517
1.68368
1.53536
1.49619
1.4261
1.35633
1.29313
1.21411
1.15474
1.12885
1.09859
1.05489
1.04354
1.04039
1.03698
1.03918
1.04689
1.05272
1.05265
1.05277
1.05501
1.06167
1.06905
1.11514
1.29104
1.47616
1.58531
1.59315
1.5899
1.59285
1.6276
1.75966
1.9235
2.0134
2.03084
2.01361
1.9739
1.94156
1.91806
1.89532
1.87333
1.85044
1.8271
1.80489
1.78501
1.76836
1.75375
1.74026
1.72533
1.70709
1.68792
1.66915
1.65003
1.63343
1.61958
1.60759
1.59727
1.58681
1.57477
1.56073
1.54433
1.52818
1.51523
1.50441
1.49368
1.4831
1.47182
1.46034
1.45127
1.44331
1.44319
1.46007
1.51557
1.58198
1.63253
1.6504
1.65141
1.65525
1.66929
1.68961
1.73159
1.78037
1.81261
1.82645
1.82611
1.81846
1.80343
1.78823
1.77064
1.74761
1.73305
1.72683
1.72139
1.71744
1.71353
1.70761
1.69992
1.68109
1.49616
1.41009
1.32036
1.25581
1.17535
1.101
1.10312
1.09917
1.07409
1.05464
1.05056
1.04988
1.05178
1.06034
1.07359
1.07859
1.07967
1.08048
1.08159
1.08715
1.09087
1.09544
1.12508
1.26643
1.4843
1.56121
1.62696
1.72097
1.8645
1.96877
2.03195
2.03406
2.01445
1.98921
1.96705
1.9461
1.92176
1.8957
1.87038
1.84681
1.8258
1.80832
1.79459
1.78167
1.769
1.75511
1.73791
1.71595
1.68953
1.66644
1.65126
1.63896
1.62844
1.61915
1.60945
1.59802
1.58457
1.56879
1.5515
1.53586
1.52349
1.51274
1.50206
1.49065
1.47881
1.46639
1.45461
1.44464
1.43163
1.42943
1.44103
1.48491
1.55256
1.60965
1.64432
1.6919
1.74338
1.76842
1.79634
1.81553
1.8314
1.8332
1.82445
1.80968
1.79401
1.77825
1.76212
1.74617
1.73604
1.73036
1.7246
1.71855
1.7125
1.70572
1.69899
1.68384
1.39808
1.23189
1.11214
1.02827
0.964985
0.964031
1.00189
1.05006
1.05184
1.05449
1.06586
1.07528
1.08598
1.10981
1.11705
1.11636
1.11192
1.10588
1.10601
1.10936
1.11225
1.11221
1.1107
1.12788
1.25364
1.52043
1.75399
1.97011
2.13211
2.18534
2.13803
2.05732
2.00167
1.97363
1.95698
1.94077
1.91857
1.89209
1.86508
1.83999
1.81861
1.80116
1.78679
1.77372
1.76094
1.74747
1.73149
1.71043
1.68307
1.65684
1.63941
1.62786
1.61899
1.61052
1.60131
1.59012