/*--------------------------------*- C++ -*----------------------------------*\
  =========                 |
  \\      /  F ield         | OpenFOAM: The Open Source CFD Toolbox
   \\    /   O peration     | Website:  https://openfoam.org
    \\  /    A nd           | Version:  7
     \\/     M anipulation  |
\*---------------------------------------------------------------------------*/
FoamFile
{
    version     2.0;
    format      ascii;
    class       volVectorField;
    location    "2.2";
    object      U;
}
// * * * * * * * * * * * * * * * * * * * * * * * * * * * * * * * * * * * * * //

dimensions      [0 1 -1 0 0 0 0];

internalField   nonuniform List<vector> 
4608
(
(3 -6.06279e-18 0)
(3 -5.19246e-18 0)
(3 -7.33397e-17 0)
(3 -1.48924e-16 0)
(3 5.68038e-18 0)
(3 -3.16186e-16 0)
(3 -6.04931e-16 0)
(3 -5.92461e-16 0)
(3 -1.93448e-16 0)
(3 -7.62205e-18 0)
(3 6.07019e-17 0)
(3 3.11864e-16 0)
(3 3.62558e-16 0)
(3 5.77759e-16 0)
(3 1.07517e-16 0)
(3 1.58199e-16 0)
(3 5.50371e-16 0)
(3 1.20543e-15 0)
(3 2.14973e-15 0)
(3 5.4756e-16 0)
(3 2.95334e-16 0)
(3 4.5459e-16 0)
(3 8.45514e-16 0)
(3 3.55453e-16 0)
(3 -8.90514e-17 0)
(3 -1.44447e-16 0)
(3 -2.82728e-16 0)
(3 -4.98428e-16 0)
(3 -2.46443e-16 0)
(3 -4.94038e-16 0)
(3 -6.14919e-16 0)
(3 -6.87042e-16 0)
(3 -1.94192e-16 0)
(3 4.12529e-16 0)
(3 2.80798e-16 0)
(3 2.36441e-16 0)
(3 2.2255e-16 0)
(3 1.16587e-16 0)
(3 -6.55843e-17 0)
(3 -7.63961e-16 0)
(3 -7.10969e-16 0)
(3 7.52979e-16 0)
(3 1.60346e-15 0)
(3 2.41569e-17 0)
(3 1.41262e-16 0)
(3 5.94818e-16 0)
(3 8.3713e-16 0)
(3 -9.0597e-17 0)
(3 -2.45993e-16 0)
(3 -1.6163e-16 0)
(3 -2.40028e-16 0)
(3 -3.92201e-16 0)
(3 -6.132e-16 0)
(3 -5.13102e-16 0)
(3 2.07183e-16 0)
(3 3.286e-16 0)
(3 5.37587e-18 0)
(3 3.19495e-16 0)
(3 6.02183e-16 0)
(3 3.98323e-16 0)
(3 -1.30884e-16 0)
(3 -4.76444e-16 0)
(3 -8.31178e-17 0)
(3 2.3759e-16 0)
(3 1.32764e-16 0)
(3 1.42068e-15 0)
(3 1.26918e-15 0)
(3 1.35685e-15 0)
(3 1.64142e-15 0)
(3 2.2999e-15 0)
(3 2.1767e-15 0)
(3 1.54498e-15 0)
(3 -1.77693e-17 0)
(3 -7.64188e-17 0)
(3 -5.37637e-17 0)
(3 -8.50042e-17 0)
(3 -2.22647e-16 0)
(3 -2.19938e-16 0)
(3 -1.04173e-16 0)
(3 1.04026e-16 0)
(3 -3.50479e-16 0)
(3 -4.72681e-16 0)
(3 -4.47826e-16 0)
(3 -3.11842e-16 0)
(3 -3.68269e-16 0)
(3 1.62079e-16 0)
(3 8.96168e-16 0)
(3 1.94669e-15 0)
(3 2.31388e-15 0)
(3 2.28725e-15 0)
(3 2.42773e-15 0)
(3 2.31526e-15 0)
(3 2.06934e-15 0)
(3 3.17249e-15 0)
(3 3.69042e-15 0)
(3 2.92648e-15 0)
(3 5.54894e-17 0)
(3 -2.29041e-16 0)
(3 -5.25671e-16 0)
(3 -3.07408e-16 0)
(3 -5.24471e-18 0)
(3 -2.60894e-16 0)
(3 -7.15328e-16 0)
(3 -8.54488e-16 0)
(3 -4.93979e-16 0)
(3 -5.93254e-16 0)
(3 -1.13895e-15 0)
(3 -9.27241e-16 0)
(3 -3.84892e-16 0)
(3 1.71143e-16 0)
(3 1.07522e-15 0)
(3 1.81864e-15 0)
(3 1.83812e-15 0)
(3 1.82368e-15 0)
(3 2.55062e-15 0)
(3 2.6859e-15 0)
(3 2.49051e-15 0)
(3 2.61581e-15 0)
(3 2.87786e-15 0)
(3 3.04589e-15 0)
(3 3.26534e-19 0)
(3 -4.79088e-16 0)
(3 -5.37943e-16 0)
(3 -2.2998e-16 0)
(3 -1.84396e-16 0)
(3 -4.27348e-16 0)
(3 -3.80126e-16 0)
(3 -3.43506e-16 0)
(3 -1.99086e-16 0)
(3 -2.70606e-16 0)
(3 -4.35992e-16 0)
(3 -3.8418e-16 0)
(3 2.74364e-16 0)
(3 2.01431e-16 0)
(3 7.19225e-16 0)
(3 9.93551e-16 0)
(3 9.83201e-16 0)
(3 1.34425e-15 0)
(3 1.78268e-15 0)
(3 2.20283e-15 0)
(3 2.60575e-15 0)
(3 1.5946e-15 0)
(3 6.39081e-16 0)
(3 9.07186e-16 0)
(3 2.58023e-17 0)
(3 -1.30338e-16 0)
(3 -3.95039e-17 0)
(3 -3.74103e-16 0)
(3 -6.59107e-16 0)
(3 -5.31394e-16 0)
(3 -4.05967e-16 0)
(3 -1.69129e-16 0)
(3 -3.66976e-16 0)
(3 -5.94721e-16 0)
(3 -5.85044e-16 0)
(3 -1.7704e-16 0)
(3 -8.04936e-17 0)
(3 -6.01634e-17 0)
(3 -2.26277e-18 0)
(3 1.60691e-16 0)
(3 8.14123e-16 0)
(3 8.6057e-16 0)
(3 1.39499e-15 0)
(3 1.80292e-15 0)
(3 1.7715e-15 0)
(3 1.02895e-15 0)
(3 3.67853e-16 0)
(3 2.48433e-16 0)
(3 1.85477e-17 0)
(3 3.0603e-16 0)
(3 2.57192e-16 0)
(3 2.27408e-16 0)
(3 2.17093e-16 0)
(3 9.1061e-16 0)
(3 5.29414e-16 0)
(3 3.70822e-16 0)
(3 2.19204e-16 0)
(3 2.41118e-16 0)
(3 3.81665e-16 0)
(3 9.30244e-17 0)
(3 -7.66536e-16 0)
(3 -8.71717e-16 0)
(3 -5.59378e-16 0)
(3 5.72731e-17 0)
(3 1.26651e-15 0)
(3 2.14804e-15 0)
(3 2.6827e-15 0)
(3 2.62102e-15 0)
(3 1.11736e-15 0)
(3 7.22471e-16 0)
(3 6.54876e-16 0)
(3 1.54066e-16 0)
(3 2.11732e-17 0)
(3 1.78003e-16 0)
(3 6.23654e-16 0)
(3 1.091e-15 0)
(3 1.0239e-15 0)
(3 8.27205e-16 0)
(3 6.90085e-16 0)
(3 2.02054e-16 0)
(3 5.94474e-16 0)
(3 1.03926e-15 0)
(3 1.1424e-15 0)
(3 9.08805e-16 0)
(3 1.28311e-16 0)
(3 -4.87812e-16 0)
(3 -3.18186e-16 0)
(3 -3.54072e-16 0)
(3 6.46238e-16 0)
(3 1.15399e-15 0)
(3 1.11918e-15 0)
(3 4.19711e-16 0)
(3 9.40281e-16 0)
(3 8.46471e-16 0)
(3 8.38384e-16 0)
(3 6.85606e-16 0)
(3 1.77649e-16 0)
(3 2.03332e-16 0)
(3 3.73437e-16 0)
(3 3.29514e-16 0)
(3 1.52455e-16 0)
(3 -1.93032e-16 0)
(3 5.91135e-17 0)
(3 4.19866e-18 0)
(3 2.11977e-17 0)
(3 -3.23952e-16 0)
(3 -1.15925e-16 0)
(3 6.46399e-16 0)
(3 1.07686e-15 0)
(3 1.45627e-15 0)
(3 1.13904e-15 0)
(3 9.20871e-16 0)
(3 5.19426e-16 0)
(3 2.66784e-16 0)
(3 -9.40778e-16 0)
(3 -9.64475e-16 0)
(3 5.08775e-16 0)
(3 1.39248e-15 0)
(3 1.8627e-15 0)
(3 2.14019e-15 0)
(3 9.06591e-17 0)
(3 2.32645e-16 0)
(3 1.8115e-16 0)
(3 9.23117e-17 0)
(3 -1.8745e-16 0)
(3 7.26752e-17 0)
(3 2.49129e-16 0)
(3 5.76431e-16 0)
(3 3.65997e-16 0)
(3 6.56446e-16 0)
(3 7.8887e-16 0)
(3 1.72878e-16 0)
(3 1.50225e-16 0)
(3 4.25346e-16 0)
(3 6.73934e-16 0)
(3 9.87909e-16 0)
(3 -4.04058e-18 0)
(3 -1.31669e-15 0)
(3 -2.2143e-15 0)
(3 -1.53144e-15 0)
(3 -1.41813e-15 0)
(3 -6.23266e-16 0)
(3 9.3823e-16 0)
(3 1.50411e-15 0)
(3 -2.2665e-17 0)
(3 -9.84109e-17 0)
(3 -1.74203e-16 0)
(3 -9.34197e-17 0)
(3 2.31349e-16 0)
(3 3.41208e-16 0)
(3 5.51575e-16 0)
(3 6.84489e-16 0)
(3 1.39957e-15 0)
(3 2.12624e-15 0)
(3 2.28779e-15 0)
(3 1.05985e-15 0)
(3 1.04947e-15 0)
(3 3.64796e-16 0)
(3 2.39204e-16 0)
(3 2.03136e-17 0)
(3 -5.30737e-16 0)
(3 -7.71842e-16 0)
(3 -7.7314e-16 0)
(3 -6.28731e-16 0)
(3 -8.68459e-16 0)
(3 -8.06408e-16 0)
(3 -1.64009e-16 0)
(3 5.29953e-16 0)
(3 2.57143e-17 0)
(3 1.64794e-17 0)
(3 -3.08641e-17 0)
(3 -2.42924e-16 0)
(3 -1.11721e-16 0)
(3 5.3796e-17 0)
(3 1.2892e-16 0)
(3 7.06759e-16 0)
(3 1.52848e-15 0)
(3 7.66923e-16 0)
(3 2.57188e-16 0)
(3 8.35716e-16 0)
(3 8.61365e-16 0)
(3 7.31133e-16 0)
(3 -5.11447e-16 0)
(3 -1.08541e-15 0)
(3 -1.18305e-15 0)
(3 -7.29994e-16 0)
(3 -6.85025e-16 0)
(3 -4.26192e-16 0)
(3 -2.09629e-17 0)
(3 2.33679e-16 0)
(3 3.68893e-16 0)
(3 7.16585e-16 0)
(3 3.27461e-17 0)
(3 -4.69553e-17 0)
(3 -1.68112e-16 0)
(3 -2.11903e-16 0)
(3 -2.80321e-16 0)
(3 -3.22953e-16 0)
(3 -2.0519e-16 0)
(3 3.48833e-16 0)
(3 1.0388e-16 0)
(3 -7.52192e-16 0)
(3 -1.30627e-15 0)
(3 -4.00027e-16 0)
(3 -3.83244e-16 0)
(3 2.53248e-16 0)
(3 -3.66994e-16 0)
(3 -4.5971e-16 0)
(3 -8.02929e-16 0)
(3 -1.52605e-15 0)
(3 -1.93299e-15 0)
(3 -1.68311e-15 0)
(3 -5.30556e-16 0)
(3 6.22184e-16 0)
(3 7.73523e-16 0)
(3 4.58491e-16 0)
(3 -2.18691e-16 0)
(3 -7.56215e-17 0)
(3 -8.04145e-17 0)
(3 -1.31784e-16 0)
(3 3.62151e-16 0)
(3 3.95722e-16 0)
(3 6.66982e-16 0)
(3 4.93443e-16 0)
(3 9.9945e-17 0)
(3 -3.39568e-16 0)
(3 -4.84325e-16 0)
(3 -4.06355e-16 0)
(3 -4.55271e-16 0)
(3 -1.17406e-16 0)
(3 7.87132e-18 0)
(3 -2.98974e-16 0)
(3 -5.54001e-16 0)
(3 -1.11372e-15 0)
(3 -1.25721e-15 0)
(3 -9.26864e-16 0)
(3 -3.48824e-16 0)
(3 4.50319e-17 0)
(3 -2.53759e-16 0)
(3 -8.4824e-16 0)
(3 1.54573e-17 0)
(3 2.5853e-16 0)
(3 4.90733e-16 0)
(3 3.59819e-16 0)
(3 8.94248e-17 0)
(3 3.39555e-16 0)
(3 2.21827e-16 0)
(3 1.06112e-16 0)
(3 7.84466e-17 0)
(3 -1.49225e-16 0)
(3 -1.61736e-16 0)
(3 -5.54295e-16 0)
(3 -1.10253e-15 0)
(3 -1.18473e-15 0)
(3 -1.17302e-15 0)
(3 -1.41229e-15 0)
(3 -1.60781e-15 0)
(3 -1.36949e-15 0)
(3 3.03438e-16 0)
(3 1.30967e-16 0)
(3 -4.91945e-16 0)
(3 -1.01983e-15 0)
(3 -8.95473e-16 0)
(3 -7.21618e-16 0)
(3 5.66366e-17 0)
(3 -4.32488e-17 0)
(3 2.93171e-17 0)
(3 1.68396e-17 0)
(3 -3.16345e-16 0)
(3 1.32419e-16 0)
(3 -2.31387e-16 0)
(3 -5.97629e-16 0)
(3 -1.19175e-15 0)
(3 -1.04346e-15 0)
(3 -5.50132e-16 0)
(3 -7.05472e-16 0)
(3 -1.10708e-15 0)
(3 -2.06937e-15 0)
(3 -2.20147e-15 0)
(3 -2.18544e-15 0)
(3 -1.71336e-15 0)
(3 -1.04046e-15 0)
(3 -5.623e-16 0)
(3 -2.60202e-16 0)
(3 -7.59886e-16 0)
(3 -1.36777e-15 0)
(3 -1.40365e-15 0)
(3 -9.46776e-16 0)
(3 -2.32656e-16 0)
(3 -3.8565e-16 0)
(3 -4.12937e-16 0)
(3 -3.60073e-16 0)
(3 9.02677e-18 0)
(3 4.6793e-16 0)
(3 -2.59086e-16 0)
(3 -1.03444e-15 0)
(3 -1.41204e-15 0)
(3 -4.46718e-16 0)
(3 -6.33024e-17 0)
(3 -8.85418e-16 0)
(3 -1.51603e-15 0)
(3 -2.21702e-15 0)
(3 -2.6315e-15 0)
(3 -2.48373e-15 0)
(3 -1.58091e-15 0)
(3 -6.26608e-16 0)
(3 -9.11305e-16 0)
(3 -1.173e-15 0)
(3 -1.83275e-15 0)
(3 -2.57402e-15 0)
(3 -2.97984e-15 0)
(3 -2.79348e-15 0)
(3 -4.00578e-17 0)
(3 1.57678e-17 0)
(3 3.9434e-17 0)
(3 3.05595e-16 0)
(3 1.90138e-16 0)
(3 -3.91452e-16 0)
(3 -7.75095e-16 0)
(3 -1.09201e-15 0)
(3 -7.63512e-16 0)
(3 -1.02215e-15 0)
(3 -1.53638e-15 0)
(3 -1.13472e-15 0)
(3 -1.06064e-15 0)
(3 -6.78792e-16 0)
(3 -7.8762e-16 0)
(3 -1.11797e-15 0)
(3 -1.29659e-15 0)
(3 -1.44069e-15 0)
(3 -1.14638e-15 0)
(3 -1.57837e-15 0)
(3 -1.81909e-15 0)
(3 -2.18567e-15 0)
(3 -1.84023e-15 0)
(3 -1.22604e-15 0)
(3 1.12965e-16 0)
(3 4.47704e-16 0)
(3 4.3848e-16 0)
(3 4.19831e-16 0)
(3 5.75207e-17 0)
(3 -5.30414e-16 0)
(3 -1.23705e-16 0)
(3 -8.46704e-16 0)
(3 -1.10506e-15 0)
(3 -1.84876e-15 0)
(3 -2.11084e-15 0)
(3 -1.31846e-15 0)
(3 -6.82599e-16 0)
(3 -3.78237e-16 0)
(3 -2.2777e-16 0)
(3 1.15215e-16 0)
(3 -4.1736e-16 0)
(3 -7.90788e-16 0)
(3 -1.34023e-15 0)
(3 -1.62789e-15 0)
(3 -1.31236e-15 0)
(3 -3.62437e-16 0)
(3 1.08343e-15 0)
(3 1.48934e-15 0)
(3 2.10662e-16 0)
(3 -6.36728e-18 0)
(3 -1.36561e-16 0)
(3 -3.17731e-16 0)
(3 -3.77799e-16 0)
(3 -6.53733e-16 0)
(3 -8.28426e-16 0)
(3 -5.34405e-16 0)
(3 -9.46434e-16 0)
(3 -1.00176e-15 0)
(3 -1.26895e-15 0)
(3 -1.6027e-15 0)
(3 -1.10255e-15 0)
(3 -4.46798e-16 0)
(3 4.57053e-16 0)
(3 1.40575e-15 0)
(3 1.02271e-15 0)
(3 3.05268e-16 0)
(3 -2.49441e-16 0)
(3 -1.05556e-15 0)
(3 -1.28526e-15 0)
(3 7.09923e-17 0)
(3 1.67894e-15 0)
(3 8.96139e-16 0)
(3 -1.64798e-16 0)
(3 -4.30739e-16 0)
(3 -4.93299e-16 0)
(3 -4.2338e-16 0)
(3 -4.48903e-17 0)
(3 -4.30611e-17 0)
(3 -2.13975e-16 0)
(3 1.2682e-16 0)
(3 4.48101e-17 0)
(3 3.6136e-16 0)
(3 -2.38451e-16 0)
(3 -1.11082e-15 0)
(3 -8.71532e-16 0)
(3 5.00159e-16 0)
(3 5.23958e-16 0)
(3 5.43209e-17 0)
(3 2.63803e-16 0)
(3 3.30225e-16 0)
(3 8.39625e-16 0)
(3 5.95147e-16 0)
(3 -1.36681e-16 0)
(3 2.03587e-16 0)
(3 5.52177e-16 0)
(3 7.39818e-16 0)
(3 -1.21717e-17 0)
(3 -4.86666e-17 0)
(3 -1.73723e-16 0)
(3 -3.95003e-17 0)
(3 3.29953e-16 0)
(3 2.47198e-16 0)
(3 2.97189e-16 0)
(3 3.88562e-16 0)
(3 7.88132e-16 0)
(3 4.77589e-16 0)
(3 3.44766e-17 0)
(3 2.48988e-17 0)
(3 -2.81037e-16 0)
(3 -1.72873e-16 0)
(3 -7.50745e-16 0)
(3 -1.0572e-15 0)
(3 -7.65509e-16 0)
(3 -5.67912e-16 0)
(3 3.34028e-17 0)
(3 1.27308e-15 0)
(3 1.86539e-15 0)
(3 2.67972e-16 0)
(3 1.75691e-16 0)
(3 4.33931e-16 0)
(3 -1.96968e-17 0)
(3 4.0137e-19 0)
(3 4.14525e-17 0)
(3 -1.67372e-17 0)
(3 1.70795e-18 0)
(3 5.86482e-16 0)
(3 7.34573e-16 0)
(3 7.98516e-16 0)
(3 5.52467e-16 0)
(3 1.89844e-16 0)
(3 2.04798e-16 0)
(3 7.86854e-16 0)
(3 2.50998e-16 0)
(3 -1.41084e-16 0)
(3 -5.84434e-16 0)
(3 -5.25905e-16 0)
(3 -9.46387e-16 0)
(3 -9.45345e-16 0)
(3 -1.31125e-15 0)
(3 -7.51551e-16 0)
(3 -8.91246e-16 0)
(3 -1.45095e-15 0)
(3 -2.00525e-15 0)
(3 -1.89863e-15 0)
(3 -1.93816e-16 0)
(3 4.69213e-17 0)
(3 2.82055e-16 0)
(3 1.27254e-16 0)
(3 -1.76929e-16 0)
(3 1.65837e-16 0)
(3 6.86931e-16 0)
(3 4.62397e-16 0)
(3 2.84182e-16 0)
(3 3.61675e-16 0)
(3 8.86351e-16 0)
(3 1.28242e-15 0)
(3 1.14793e-15 0)
(3 -4.08697e-16 0)
(3 -1.88548e-15 0)
(3 -2.28882e-15 0)
(3 -2.19633e-15 0)
(3 -1.766e-15 0)
(3 -1.42727e-15 0)
(3 -9.18565e-16 0)
(3 -1.06521e-15 0)
(3 -1.38419e-15 0)
(3 -2.36059e-15 0)
(3 -1.7764e-15 0)
(3 1.55275e-16 0)
(3 4.34803e-16 0)
(3 3.80739e-16 0)
(3 1.64911e-16 0)
(3 1.87331e-16 0)
(3 5.26755e-17 0)
(3 5.9367e-16 0)
(3 6.75975e-16 0)
(3 7.56814e-16 0)
(3 4.43206e-16 0)
(3 -1.67053e-16 0)
(3 -9.15863e-16 0)
(3 -1.13508e-15 0)
(3 -1.74193e-15 0)
(3 -2.26605e-15 0)
(3 -3.41966e-15 0)
(3 -2.10132e-15 0)
(3 -7.1584e-16 0)
(3 -3.07312e-16 0)
(3 -2.63919e-16 0)
(3 -1.92622e-16 0)
(3 3.83504e-16 0)
(3 8.59397e-17 0)
(3 -3.72475e-16 0)
(3 1.80996e-16 0)
(3 1.01973e-16 0)
(3 -1.15804e-16 0)
(3 4.84764e-18 0)
(3 4.27243e-16 0)
(3 8.17066e-16 0)
(3 1.01867e-15 0)
(3 1.16991e-15 0)
(3 8.08776e-16 0)
(3 5.61873e-17 0)
(3 -1.5888e-17 0)
(3 -1.59369e-15 0)
(3 -2.18223e-15 0)
(3 -1.69704e-15 0)
(3 -9.78371e-16 0)
(3 -1.34361e-15 0)
(3 -4.32804e-16 0)
(3 2.46198e-16 0)
(3 1.53119e-16 0)
(3 -1.24382e-15 0)
(3 -5.37809e-16 0)
(3 2.02381e-15 0)
(3 2.96334e-15 0)
(3 1.43366e-15 0)
(3 7.20718e-18 0)
(3 2.02732e-17 0)
(3 6.03777e-17 0)
(3 2.06483e-16 0)
(3 -3.24619e-17 0)
(3 -2.19802e-16 0)
(3 -5.01395e-16 0)
(3 2.10564e-16 0)
(3 8.74924e-16 0)
(3 9.65034e-16 0)
(3 2.98088e-16 0)
(3 -5.64397e-16 0)
(3 -1.35782e-15 0)
(3 -9.68696e-17 0)
(3 1.26824e-15 0)
(3 1.14386e-15 0)
(3 -3.63361e-17 0)
(3 -8.03045e-16 0)
(3 -1.06102e-15 0)
(3 -1.10021e-15 0)
(3 -1.1162e-15 0)
(3 1.00617e-16 0)
(3 7.37614e-16 0)
(3 1.02885e-15 0)
(3 -4.86496e-17 0)
(3 3.6143e-16 0)
(3 2.72875e-16 0)
(3 1.68669e-17 0)
(3 -5.01607e-16 0)
(3 -9.32837e-16 0)
(3 -1.03021e-15 0)
(3 -7.56946e-16 0)
(3 -4.05516e-17 0)
(3 -7.55613e-16 0)
(3 -1.49887e-15 0)
(3 -8.80906e-16 0)
(3 -6.62564e-16 0)
(3 -1.92132e-17 0)
(3 4.40714e-16 0)
(3 2.86295e-16 0)
(3 -5.58187e-16 0)
(3 -1.25397e-15 0)
(3 -1.40629e-15 0)
(3 -1.31366e-15 0)
(3 -1.37579e-15 0)
(3 -9.69728e-16 0)
(3 -3.47703e-16 0)
(3 7.7317e-16 0)
(3 5.54274e-17 0)
(3 -6.26549e-17 0)
(3 2.75141e-17 0)
(3 -8.95547e-18 0)
(3 -1.6671e-16 0)
(3 -8.34208e-16 0)
(3 -9.09131e-16 0)
(3 -9.95189e-16 0)
(3 -8.08186e-16 0)
(3 -1.58242e-15 0)
(3 -1.86122e-15 0)
(3 -2.2412e-15 0)
(3 -2.07588e-15 0)
(3 -1.78837e-15 0)
(3 -1.40951e-15 0)
(3 -1.74444e-15 0)
(3 -7.72093e-16 0)
(3 -3.33244e-16 0)
(3 -5.41508e-16 0)
(3 -1.28092e-15 0)
(3 -1.38415e-15 0)
(3 -6.19344e-16 0)
(3 2.33957e-16 0)
(3 1.24719e-15 0)
(3 3.82201e-17 0)
(3 -3.12906e-16 0)
(3 -7.78936e-17 0)
(3 2.70832e-16 0)
(3 4.25939e-17 0)
(3 1.8154e-16 0)
(3 2.96538e-16 0)
(3 1.2903e-16 0)
(3 -1.8665e-16 0)
(3 -4.09854e-16 0)
(3 -6.34241e-16 0)
(3 -1.41692e-15 0)
(3 -2.48919e-15 0)
(3 -1.85638e-15 0)
(3 -1.93582e-15 0)
(3 -1.50518e-15 0)
(3 -1.64805e-15 0)
(3 -1.02426e-15 0)
(3 -7.5944e-16 0)
(3 -7.67522e-16 0)
(3 -1.71935e-15 0)
(3 -5.31757e-16 0)
(3 3.68696e-16 0)
(3 7.50224e-16 0)
(3 -6.85421e-18 0)
(3 -1.489e-17 0)
(3 -7.32501e-17 0)
(3 9.26819e-17 0)
(3 1.87127e-16 0)
(3 5.61304e-16 0)
(3 8.14679e-16 0)
(3 5.47796e-16 0)
(3 1.25761e-16 0)
(3 -4.41685e-16 0)
(3 -4.84216e-16 0)
(3 -8.0208e-17 0)
(3 -5.07678e-17 0)
(3 -5.92433e-16 0)
(3 -1.33451e-15 0)
(3 -1.23113e-15 0)
(3 -1.90672e-15 0)
(3 -1.50834e-15 0)
(3 -1.0211e-15 0)
(3 -4.72655e-16 0)
(3 -6.03526e-16 0)
(3 -2.42657e-17 0)
(3 2.94369e-16 0)
(3 2.77128e-16 0)
(2.93207 0.0282001 0)
(2.84736 0.0650879 0)
(2.75995 0.133262 0)
(2.66127 0.25122 0)
(2.58352 0.340485 0)
(2.50195 0.44284 0)
(2.41817 0.548668 0)
(2.3524 0.628192 0)
(2.31265 0.722818 0)
(2.25813 0.795005 0)
(2.24796 0.85649 0)
(2.2848 0.883841 0)
(2.32828 0.897128 0)
(2.33561 0.89031 0)
(2.34381 0.879037 0)
(2.3454 0.869629 0)
(2.34686 0.855382 0)
(2.34921 0.849428 0)
(2.34712 0.849618 0)
(2.34177 0.850592 0)
(2.33742 0.850709 0)
(2.3353 0.850151 0)
(2.33736 0.849257 0)
(2.33865 0.849161 0)
(2.99851 0.00153141 0)
(2.98998 0.0123491 0)
(2.96276 0.0471906 0)
(2.8995 0.13316 0)
(2.80658 0.27201 0)
(2.68227 0.461066 0)
(2.52213 0.691017 0)
(2.39937 0.894172 0)
(2.21704 1.07651 0)
(2.16936 1.09557 0)
(2.13292 1.0416 0)
(2.19443 1.00316 0)
(2.2549 0.947314 0)
(2.29444 0.900415 0)
(2.32936 0.861255 0)
(2.3481 0.836533 0)
(2.35363 0.828931 0)
(2.36107 0.832931 0)
(2.3578 0.84009 0)
(2.35179 0.847681 0)
(2.34507 0.85067 0)
(2.33954 0.852487 0)
(2.33878 0.85198 0)
(2.33992 0.850085 0)
(3 5.47324e-07 0)
(3.00002 9.07023e-06 0)
(3.00002 -6.97428e-05 0)
(2.99983 0.000154943 0)
(2.99865 0.00185513 0)
(2.99132 0.0124112 0)
(2.96439 0.0557538 0)
(2.90527 0.165092 0)
(2.75404 0.42882 0)
(2.612 0.690528 0)
(2.438 0.851322 0)
(2.33717 0.934011 0)
(2.29041 0.913597 0)
(2.3035 0.894754 0)
(2.31349 0.892249 0)
(2.33697 0.880767 0)
(2.35425 0.852963 0)
(2.363 0.842719 0)
(2.36381 0.844621 0)
(2.35994 0.845934 0)
(2.35291 0.848221 0)
(2.34752 0.8513 0)
(2.34567 0.851593 0)
(2.3445 0.850228 0)
(3 -1.3852e-10 0)
(3 -2.55896e-07 0)
(3 -1.63337e-06 0)
(3 -1.57589e-06 0)
(3.00001 -8.89603e-06 0)
(2.99999 2.32329e-05 0)
(3 1.06898e-06 0)
(2.99944 0.000821012 0)
(2.9873 0.0211007 0)
(2.91555 0.146864 0)
(2.73205 0.441269 0)
(2.42799 0.800494 0)
(2.36059 0.870026 0)
(2.29683 0.942134 0)
(2.29111 0.943372 0)
(2.30324 0.921538 0)
(2.32512 0.886341 0)
(2.34712 0.854221 0)
(2.36031 0.839742 0)
(2.36368 0.835521 0)
(2.36271 0.837993 0)
(2.36063 0.84128 0)
(2.35666 0.845781 0)
(2.35216 0.848301 0)
(3 -5.12135e-11 0)
(3 1.64059e-10 0)
(3 -3.31798e-08 0)
(3 -1.33714e-07 0)
(3 -7.55337e-07 0)
(3 -7.068e-07 0)
(3 -2.69243e-06 0)
(3 -4.59394e-06 0)
(3.00004 -8.72882e-05 0)
(2.9994 0.000797195 0)
(2.98413 0.0209561 0)
(2.86399 0.175089 0)
(2.70313 0.435212 0)
(2.36017 0.821876 0)
(2.32372 0.867594 0)
(2.30407 0.885852 0)
(2.30769 0.881393 0)
(2.31256 0.876219 0)
(2.33706 0.862108 0)
(2.35483 0.84928 0)
(2.36139 0.845863 0)
(2.36126 0.842082 0)
(2.35979 0.84283 0)
(2.35398 0.850172 0)
(3 -1.21915e-12 0)
(3 4.79003e-11 0)
(3 3.20556e-10 0)
(3 -1.43345e-09 0)
(3 -2.07075e-09 0)
(3 -3.85012e-08 0)
(3 -6.30412e-08 0)
(3 -3.14353e-07 0)
(3 -6.13324e-06 0)
(3 -5.77032e-06 0)
(3.00003 -7.0832e-05 0)
(2.99863 0.00196781 0)
(2.97768 0.0308069 0)
(2.78439 0.263286 0)
(2.60559 0.517622 0)
(2.38778 0.784986 0)
(2.26043 0.922564 0)
(2.27018 0.907514 0)
(2.30171 0.878417 0)
(2.31914 0.867351 0)
(2.33715 0.859461 0)
(2.34651 0.851086 0)
(2.35184 0.842542 0)
(2.35101 0.841898 0)
(3 2.26711e-15 0)
(3 2.13759e-14 0)
(3 2.78934e-11 0)
(3 2.45805e-11 0)
(3 2.90949e-11 0)
(3 -5.52217e-11 0)
(3 -5.52922e-10 0)
(3 -5.08793e-10 0)
(3 -2.25172e-08 0)
(3 -3.14578e-07 0)
(3 -6.6704e-06 0)
(3.00001 -4.23603e-06 0)
(3.00001 -4.7698e-05 0)
(2.9944 0.00791023 0)
(2.95404 0.0646173 0)
(2.70934 0.368765 0)
(2.48219 0.658193 0)
(2.40194 0.774282 0)
(2.32022 0.845013 0)
(2.29746 0.861211 0)
(2.31187 0.858223 0)
(2.32762 0.847201 0)
(2.33661 0.839679 0)
(2.34105 0.840716 0)
(3 9.34448e-16 0)
(3 4.04124e-15 0)
(3 6.1311e-14 0)
(3 1.95099e-12 0)
(3 5.13255e-12 0)
(3 4.44144e-12 0)
(3 2.388e-12 0)
(3 2.4946e-12 0)
(3 1.37473e-10 0)
(3 -9.99342e-10 0)
(3 -1.90758e-08 0)
(3 -6.8399e-07 0)
(3 -3.12859e-06 0)
(3.00001 -2.08025e-05 0)
(2.99974 0.00039102 0)
(2.98305 0.0229948 0)
(2.89558 0.144123 0)
(2.61845 0.517626 0)
(2.36321 0.810402 0)
(2.34336 0.813793 0)
(2.31451 0.839205 0)
(2.31062 0.841762 0)
(2.32159 0.839255 0)
(2.3346 0.835046 0)
(3 7.04108e-16 0)
(3 9.09676e-16 0)
(3 7.84628e-17 0)
(3 5.17036e-15 0)
(3 5.01319e-14 0)
(3 4.2437e-13 0)
(3 6.0774e-13 0)
(3 1.11432e-12 0)
(3 8.20585e-12 0)
(3 1.49222e-11 0)
(3 6.67601e-11 0)
(3 -1.78174e-08 0)
(3 -4.42968e-08 0)
(3 -2.92361e-06 0)
(3 -4.9012e-06 0)
(2.99998 2.22944e-05 0)
(2.998 0.00355004 0)
(2.94442 0.0761825 0)
(2.76345 0.319839 0)
(2.55 0.613725 0)
(2.31605 0.888307 0)
(2.27959 0.871824 0)
(2.30805 0.844737 0)
(2.32203 0.84012 0)
(3 9.21436e-16 0)
(3 3.38477e-16 0)
(3 1.08396e-15 0)
(3 2.28504e-15 0)
(3 1.62171e-15 0)
(3 3.67533e-15 0)
(3 1.49776e-14 0)
(3 1.02425e-13 0)
(3 2.10337e-13 0)
(3 3.18421e-12 0)
(3 4.78722e-12 0)
(3 7.55424e-11 0)
(3 -4.03466e-10 0)
(3 -2.60317e-08 0)
(3 -8.97112e-07 0)
(3 -7.7649e-07 0)
(3 -1.02532e-05 0)
(2.99936 0.000996216 0)
(2.98518 0.0254644 0)
(2.87655 0.185969 0)
(2.57499 0.579103 0)
(2.45931 0.717965 0)
(2.35396 0.81459 0)
(2.3324 0.849405 0)
(3 8.91873e-16 0)
(3 1.4553e-15 0)
(3 2.18283e-15 0)
(3 3.15607e-15 0)
(3 2.49194e-15 0)
(3 1.64216e-15 0)
(3 -9.0702e-17 0)
(3 3.92778e-15 0)
(3 5.39719e-15 0)
(3 3.03861e-14 0)
(3 3.0776e-13 0)
(3 1.56998e-11 0)
(3 1.64254e-11 0)
(3 1.45541e-10 0)
(3 -1.32737e-08 0)
(3 -9.17786e-08 0)
(3 -1.56887e-06 0)
(3 -5.20598e-06 0)
(2.99995 7.71278e-05 0)
(2.99434 0.00976274 0)
(2.92458 0.10999 0)
(2.73708 0.409563 0)
(2.42264 0.77868 0)
(2.38937 0.811767 0)
(3 8.02031e-16 0)
(3 2.02907e-15 0)
(3 1.8204e-15 0)
(3 1.60446e-15 0)
(3 1.49917e-15 0)
(3 3.92065e-16 0)
(3 4.38239e-16 0)
(3 4.3656e-16 0)
(3 -1.08377e-15 0)
(3 -1.37424e-15 0)
(3 6.97057e-16 0)
(3 5.01336e-13 0)
(3 3.33707e-12 0)
(3 2.07002e-11 0)
(3 8.53753e-11 0)
(3 -1.76764e-09 0)
(3 -2.86382e-08 0)
(3 -1.4016e-06 0)
(3 -1.75367e-06 0)
(2.99999 5.91899e-07 0)
(2.99814 0.00393883 0)
(2.97178 0.0496561 0)
(2.75292 0.35453 0)
(2.57109 0.606377 0)
(3 8.89146e-16 0)
(3 5.40371e-16 0)
(3 5.10266e-18 0)
(3 -1.18147e-16 0)
(3 -2.34256e-16 0)
(3 -6.7255e-16 0)
(3 -4.66235e-16 0)
(3 -6.34006e-16 0)
(3 -1.13755e-16 0)
(3 1.06687e-15 0)
(3 7.69561e-16 0)
(3 -3.65268e-17 0)
(3 4.99693e-14 0)
(3 1.00551e-12 0)
(3 1.71606e-11 0)
(3 2.15535e-11 0)
(3 -4.55664e-11 0)
(3 -3.64212e-08 0)
(3 -5.09644e-07 0)
(3 -4.72958e-07 0)
(3 -1.10311e-06 0)
(2.99941 0.00117437 0)
(2.97793 0.0353488 0)
(2.84538 0.244062 0)
(3 1.63914e-17 0)
(3 -9.62856e-16 0)
(3 -4.38627e-16 0)
(3 -1.66054e-17 0)
(3 1.20351e-16 0)
(3 5.86537e-16 0)
(3 2.29004e-16 0)
(3 -4.82573e-16 0)
(3 3.11689e-16 0)
(3 1.11652e-15 0)
(3 1.77467e-15 0)
(3 3.00667e-16 0)
(3 -1.57538e-17 0)
(3 2.69682e-15 0)
(3 5.2904e-13 0)
(3 4.41859e-12 0)
(3 4.15712e-12 0)
(3 3.15826e-11 0)
(3 -2.24533e-08 0)
(3 -1.44459e-07 0)
(3 -2.91672e-07 0)
(3 -2.16584e-06 0)
(2.99961 0.000802895 0)
(2.99088 0.0171329 0)
(3 -3.70012e-16 0)
(3 4.26679e-16 0)
(3 1.23356e-15 0)
(3 1.36267e-15 0)
(3 1.66711e-15 0)
(3 2.31466e-15 0)
(3 2.41512e-15 0)
(3 2.27239e-15 0)
(3 1.73916e-16 0)
(3 -6.86369e-16 0)
(3 -4.44538e-16 0)
(3 -5.04467e-16 0)
(3 -7.33513e-16 0)
(3 6.92351e-16 0)
(3 4.89354e-15 0)
(3 1.13964e-13 0)
(3 1.21446e-12 0)
(3 8.5495e-12 0)
(3 -2.15702e-11 0)
(3 -1.36653e-08 0)
(3 -1.77253e-08 0)
(3 -5.25109e-07 0)
(3 -1.30766e-06 0)
(2.99997 7.69322e-05 0)
(3 4.26055e-16 0)
(3 1.8594e-15 0)
(3 2.07049e-15 0)
(3 1.45514e-15 0)
(3 1.83214e-15 0)
(3 2.28797e-15 0)
(3 2.83301e-15 0)
(3 2.80665e-15 0)
(3 1.10646e-15 0)
(3 -1.20699e-15 0)
(3 -1.70261e-15 0)
(3 -9.72461e-16 0)
(3 -3.76268e-16 0)
(3 5.77463e-17 0)
(3 4.96543e-16 0)
(3 7.97916e-16 0)
(3 4.27006e-14 0)
(3 3.23846e-12 0)
(3 2.49494e-12 0)
(3 -7.98588e-11 0)
(3 -8.30136e-10 0)
(3 -1.49085e-07 0)
(3 9.00707e-08 0)
(3 -2.37622e-06 0)
(3 -2.98214e-16 0)
(3 5.04925e-16 0)
(3 4.29752e-16 0)
(3 4.73802e-16 0)
(3 8.19137e-16 0)
(3 1.54626e-15 0)
(3 1.48581e-15 0)
(3 8.53729e-16 0)
(3 5.77711e-16 0)
(3 -2.81334e-16 0)
(3 -7.27205e-16 0)
(3 1.62993e-16 0)
(3 5.21324e-16 0)
(3 -2.08311e-16 0)
(3 -5.58729e-16 0)
(3 -3.48949e-15 0)
(3 -9.00416e-14 0)
(3 -1.60857e-12 0)
(3 -5.31642e-13 0)
(3 1.02339e-10 0)
(3 4.89715e-09 0)
(3 2.75747e-09 0)
(3 8.18718e-07 0)
(3 -4.5721e-07 0)
(3 -2.22676e-15 0)
(3 -1.81655e-15 0)
(3 -1.88547e-15 0)
(3 -8.06505e-16 0)
(3 -1.52092e-16 0)
(3 4.26363e-16 0)
(3 1.38979e-16 0)
(3 -4.34872e-16 0)
(3 -2.11574e-16 0)
(3 9.94678e-17 0)
(3 -8.25163e-17 0)
(3 -1.65567e-16 0)
(3 9.71725e-16 0)
(3 2.43582e-16 0)
(3 -3.7785e-15 0)
(3 -1.28469e-13 0)
(3 -2.86292e-12 0)
(3 -1.08319e-11 0)
(3 6.73183e-11 0)
(3 4.47426e-09 0)
(3 1.22912e-07 0)
(3 3.56444e-07 0)
(3 -3.2405e-06 0)
(3.00002 7.1168e-05 0)
(3 -1.5304e-15 0)
(3 -2.41296e-15 0)
(3 -2.30416e-15 0)
(3 -1.66067e-15 0)
(3 -1.65166e-15 0)
(3 -1.96613e-15 0)
(3 -1.92342e-15 0)
(3 -1.3639e-15 0)
(3 -6.53534e-16 0)
(3 3.44114e-17 0)
(3 -4.05865e-17 0)
(3 1.83585e-16 0)
(3 -6.56677e-18 0)
(3 -2.24569e-15 0)
(3 -6.36635e-13 0)
(3 -2.83252e-12 0)
(3 -6.72655e-12 0)
(3 -6.98882e-11 0)
(3 1.67047e-08 0)
(3 7.18316e-08 0)
(3 6.91798e-07 0)
(3 1.68671e-06 0)
(2.99963 -0.000801968 0)
(2.99302 -0.0147061 0)
(3 1.09738e-15 0)
(3 -5.14371e-16 0)
(3 -1.3535e-15 0)
(3 -2.0359e-15 0)
(3 -2.73664e-15 0)
(3 -2.30282e-15 0)
(3 -1.8268e-15 0)
(3 -1.96368e-15 0)
(3 -1.94608e-15 0)
(3 -1.40694e-15 0)
(3 -4.21106e-16 0)
(3 -6.51271e-16 0)
(3 -5.047e-14 0)
(3 -1.0988e-12 0)
(3 -1.62429e-11 0)
(3 -8.61945e-12 0)
(3 8.35389e-12 0)
(3 2.95137e-08 0)
(3 4.59796e-07 0)
(3 3.63998e-07 0)
(3 5.44505e-06 0)
(2.99933 -0.00130131 0)
(2.97717 -0.0404289 0)
(2.86659 -0.21565 0)
(3 6.88149e-16 0)
(3 6.05555e-16 0)
(3 -5.31066e-16 0)
(3 -1.48408e-15 0)
(3 -1.93446e-15 0)
(3 -1.89458e-15 0)
(3 -1.70961e-15 0)
(3 -2.41292e-15 0)
(3 -3.43107e-15 0)
(3 -2.87405e-15 0)
(3 -3.98333e-15 0)
(3 -4.76964e-13 0)
(3 -3.22913e-12 0)
(3 -2.3233e-11 0)
(3 -8.19097e-11 0)
(3 1.75991e-09 0)
(3 2.72715e-08 0)
(3 1.54886e-06 0)
(3 1.34668e-06 0)
(3 3.81725e-06 0)
(2.99818 -0.00358715 0)
(2.9682 -0.0564382 0)
(2.78844 -0.321574 0)
(2.4922 -0.688352 0)
(3 2.25399e-16 0)
(3 -3.95818e-16 0)
(3 -1.07492e-15 0)
(3 -5.04132e-16 0)
(3 -2.09483e-17 0)
(3 -8.69301e-16 0)
(3 -1.39035e-15 0)
(3 -1.04605e-15 0)
(3 -5.42643e-15 0)
(3 -3.43252e-14 0)
(3 -3.15318e-13 0)
(3 -1.54595e-11 0)
(3 -1.64314e-11 0)
(3 -1.72338e-10 0)
(3 1.24816e-08 0)
(3 8.49123e-08 0)
(3 1.60174e-06 0)
(3 5.72857e-06 0)
(2.99995 -9.1111e-05 0)
(2.99443 -0.00915843 0)
(2.92369 -0.112289 0)
(2.75538 -0.394632 0)
(2.42511 -0.784992 0)
(2.3554 -0.835913 0)
(3 1.57005e-16 0)
(3 -6.53072e-16 0)
(3 -7.39903e-16 0)
(3 -7.25334e-16 0)
(3 -3.49982e-16 0)
(3 -2.72179e-15 0)
(3 -1.5131e-14 0)
(3 -1.00777e-13 0)
(3 -2.16897e-13 0)
(3 -3.14926e-12 0)
(3 -5.30119e-12 0)
(3 -6.38878e-11 0)
(3 2.70732e-10 0)
(3 2.83217e-08 0)
(3 8.69133e-07 0)
(3 7.46166e-07 0)
(3 1.14044e-05 0)
(2.99934 -0.0010596 0)
(2.98577 -0.0246673 0)
(2.86973 -0.19073 0)
(2.57826 -0.570072 0)
(2.46979 -0.707504 0)
(2.35557 -0.826184 0)
(2.31902 -0.857777 0)
(3 -1.13279e-15 0)
(3 -1.16113e-15 0)
(3 -8.40397e-16 0)
(3 -7.40169e-15 0)
(3 -5.18579e-14 0)
(3 -4.31622e-13 0)
(3 -5.96798e-13 0)
(3 -1.11436e-12 0)
(3 -8.22938e-12 0)
(3 -1.5142e-11 0)
(3 -6.53359e-11 0)
(3 1.84175e-08 0)
(3 4.03609e-08 0)
(3 3.10131e-06 0)
(3 4.72031e-06 0)
(2.99999 -1.98221e-05 0)
(2.99797 -0.00355272 0)
(2.94426 -0.0767693 0)
(2.76926 -0.31495 0)
(2.5353 -0.623467 0)
(2.31305 -0.88342 0)
(2.28867 -0.860984 0)
(2.31574 -0.847071 0)
(2.31993 -0.847119 0)
(3 -1.47042e-15 0)
(3 -4.57704e-15 0)
(3 -6.203e-14 0)
(3 -1.95056e-12 0)
(3 -5.12566e-12 0)
(3 -4.43907e-12 0)
(3 -2.37771e-12 0)
(3 -2.49146e-12 0)
(3 -1.37329e-10 0)
(3 9.84503e-10 0)
(3 1.89215e-08 0)
(3 6.88117e-07 0)
(3 3.10964e-06 0)
(3.00001 2.12306e-05 0)
(2.99974 -0.000398819 0)
(2.98318 -0.0227201 0)
(2.89376 -0.145692 0)
(2.62189 -0.513304 0)
(2.36244 -0.812201 0)
(2.33916 -0.815 0)
(2.31285 -0.839315 0)
(2.31379 -0.839335 0)
(2.3244 -0.839756 0)
(2.33296 -0.839537 0)
(3 -2.57881e-15 0)
(3 -2.10977e-14 0)
(3 -2.78726e-11 0)
(3 -2.45484e-11 0)
(3 -2.90566e-11 0)
(3 5.49955e-11 0)
(3 5.53468e-10 0)
(3 5.13529e-10 0)
(3 2.24822e-08 0)
(3 3.15239e-07 0)
(3 6.64898e-06 0)
(3.00001 4.23822e-06 0)
(3.00001 4.75128e-05 0)
(2.9944 -0.00790286 0)
(2.95395 -0.0647175 0)
(2.70966 -0.368425 0)
(2.48144 -0.658862 0)
(2.40196 -0.772957 0)
(2.32116 -0.845515 0)
(2.29675 -0.861619 0)
(2.31143 -0.85817 0)
(2.32786 -0.845928 0)
(2.33714 -0.84011 0)
(2.34085 -0.841982 0)
(3 1.21974e-12 0)
(3 -4.79735e-11 0)
(3 -3.20623e-10 0)
(3 1.43327e-09 0)
(3 2.06646e-09 0)
(3 3.85713e-08 0)
(3 6.27614e-08 0)
(3 3.14196e-07 0)
(3 6.13633e-06 0)
(3 5.77347e-06 0)
(3.00003 7.07013e-05 0)
(2.99863 -0.00196903 0)
(2.97768 -0.0308018 0)
(2.78442 -0.26323 0)
(2.60563 -0.517613 0)
(2.38747 -0.785176 0)
(2.26047 -0.922651 0)
(2.27039 -0.907311 0)
(2.30194 -0.878216 0)
(2.31904 -0.867718 0)
(2.33717 -0.859567 0)
(2.34679 -0.850727 0)
(2.35211 -0.842637 0)
(2.35103 -0.842126 0)
(3 5.11145e-11 0)
(3 -1.63221e-10 0)
(3 3.32798e-08 0)
(3 1.33734e-07 0)
(3 7.55094e-07 0)
(3 7.06509e-07 0)
(3 2.68219e-06 0)
(3 4.5823e-06 0)
(3.00004 8.74766e-05 0)
(2.9994 -0.000797474 0)
(2.98414 -0.0209529 0)
(2.86392 -0.17517 0)
(2.70312 -0.43516 0)
(2.36031 -0.821632 0)
(2.32362 -0.867799 0)
(2.30403 -0.885929 0)
(2.30763 -0.881429 0)
(2.31281 -0.876077 0)
(2.33703 -0.862193 0)
(2.35487 -0.849566 0)
(2.36131 -0.845988 0)
(2.36141 -0.841918 0)
(2.35997 -0.842707 0)
(2.35415 -0.850077 0)
(3 1.38156e-10 0)
(3 2.55975e-07 0)
(3 1.63242e-06 0)
(3 1.5754e-06 0)
(3.00001 8.89563e-06 0)
(2.99999 -2.32327e-05 0)
(3 -1.38991e-06 0)
(2.99944 -0.000820869 0)
(2.9873 -0.0210984 0)
(2.91549 -0.146972 0)
(2.73245 -0.44094 0)
(2.42766 -0.80093 0)
(2.36051 -0.870029 0)
(2.29683 -0.942042 0)
(2.29125 -0.943269 0)
(2.30333 -0.921529 0)
(2.32485 -0.886488 0)
(2.34736 -0.853986 0)
(2.36032 -0.839772 0)
(2.36373 -0.835589 0)
(2.36267 -0.837994 0)
(2.36064 -0.84119 0)
(2.35666 -0.8457 0)
(2.3522 -0.848306 0)
(3 -5.47334e-07 0)
(3.00002 -9.07268e-06 0)
(3.00002 6.96517e-05 0)
(2.99983 -0.000154752 0)
(2.99865 -0.00185555 0)
(2.99132 -0.0124081 0)
(2.96438 -0.0557721 0)
(2.90531 -0.165042 0)
(2.75396 -0.428915 0)
(2.61196 -0.690576 0)
(2.43813 -0.851181 0)
(2.33716 -0.934061 0)
(2.29035 -0.913634 0)
(2.30348 -0.894737 0)
(2.31355 -0.892129 0)
(2.33701 -0.880786 0)
(2.35403 -0.853193 0)
(2.36296 -0.842557 0)
(2.3639 -0.844539 0)
(2.36003 -0.845922 0)
(2.35294 -0.848213 0)
(2.3475 -0.85125 0)
(2.34566 -0.85157 0)
(2.34449 -0.850245 0)
(2.99851 -0.00153136 0)
(2.98998 -0.0123491 0)
(2.96276 -0.0471925 0)
(2.89951 -0.133159 0)
(2.80657 -0.272015 0)
(2.6823 -0.461044 0)
(2.52207 -0.691063 0)
(2.39947 -0.894141 0)
(2.217 -1.07655 0)
(2.16931 -1.09558 0)
(2.13293 -1.04155 0)
(2.19447 -1.00313 0)
(2.25486 -0.947345 0)
(2.29448 -0.900393 0)
(2.32939 -0.861203 0)
(2.34804 -0.836616 0)
(2.35365 -0.829025 0)
(2.36101 -0.832906 0)
(2.35788 -0.840024 0)
(2.35182 -0.847665 0)
(2.34508 -0.8507 0)
(2.33953 -0.852482 0)
(2.33877 -0.85198 0)
(2.33991 -0.850088 0)
(2.93207 -0.0281986 0)
(2.84736 -0.0650825 0)
(2.75995 -0.133282 0)
(2.66127 -0.251206 0)
(2.58352 -0.340482 0)
(2.50196 -0.44284 0)
(2.41815 -0.548679 0)
(2.35241 -0.628205 0)
(2.31265 -0.722807 0)
(2.25812 -0.794999 0)
(2.24796 -0.856492 0)
(2.28481 -0.883829 0)
(2.32828 -0.897161 0)
(2.33559 -0.890312 0)
(2.3438 -0.879016 0)
(2.34541 -0.869628 0)
(2.34685 -0.855412 0)