/*--------------------------------*- C++ -*----------------------------------*\
  =========                 |
  \\      /  F ield         | OpenFOAM: The Open Source CFD Toolbox
   \\    /   O peration     | Website:  https://openfoam.org
    \\  /    A nd           | Version:  7
     \\/     M anipulation  |
\*---------------------------------------------------------------------------*/
FoamFile
{
    version     2.0;
    format      ascii;
    class       volVectorField;
    location    "3.1";
    object      U;
}
// * * * * * * * * * * * * * * * * * * * * * * * * * * * * * * * * * * * * * //

dimensions      [0 1 -1 0 0 0 0];

internalField   nonuniform List<vector> 
73728
(
(3 3.63486e-17 0)
(3 -2.31689e-17 0)
(3 1.80709e-17 0)
(3 4.66574e-17 0)
(3 -1.87067e-16 0)
(3 -2.03669e-16 0)
(3 3.14244e-16 0)
(3 8.22252e-16 0)
(3 7.80729e-16 0)
(3 -6.68124e-17 0)
(3 7.50597e-17 0)
(3 6.06058e-16 0)
(3 9.69462e-16 0)
(3 8.24746e-16 0)
(3 8.46714e-16 0)
(3 8.61158e-16 0)
(3 7.44576e-16 0)
(3 7.63507e-16 0)
(3 3.93923e-16 0)
(3 -5.46655e-16 0)
(3 -7.9318e-16 0)
(3 -5.38632e-16 0)
(3 -4.93425e-16 0)
(3 -6.53521e-16 0)
(3 -9.60092e-16 0)
(3 -6.58604e-16 0)
(3 -1.01095e-16 0)
(3 2.64485e-17 0)
(3 -9.71872e-17 0)
(3 3.07073e-17 0)
(3 3.12067e-17 0)
(3 -3.06483e-16 0)
(3 1.87413e-16 0)
(3 2.33458e-16 0)
(3 2.85471e-16 0)
(3 1.23672e-16 0)
(3 3.64981e-16 0)
(3 5.02944e-16 0)
(3 8.31624e-16 0)
(3 1.32209e-15 0)
(3 1.42515e-15 0)
(3 1.24506e-15 0)
(3 5.33806e-16 0)
(3 1.64757e-16 0)
(3 4.80726e-17 0)
(3 1.30318e-16 0)
(3 3.47927e-16 0)
(3 5.60688e-16 0)
(3 8.03671e-16 0)
(3 2.56556e-16 0)
(3 -1.67052e-16 0)
(3 7.75692e-17 0)
(3 -2.45641e-16 0)
(3 -7.11297e-16 0)
(3 1.16646e-16 0)
(3 1.57807e-16 0)
(3 9.63736e-16 0)
(3 1.10196e-15 0)
(3 2.75502e-16 0)
(3 3.66873e-17 0)
(3 3.55059e-16 0)
(3 8.51452e-16 0)
(3 1.78582e-16 0)
(3 -4.91668e-16 0)
(3 -5.28764e-16 0)
(3 -6.15675e-16 0)
(3 -1.25954e-17 0)
(3 8.77839e-16 0)
(3 1.20688e-15 0)
(3 1.80539e-15 0)
(3 2.06107e-15 0)
(3 1.12728e-15 0)
(3 3.40759e-16 0)
(3 -1.62859e-16 0)
(3 -2.6906e-16 0)
(3 -2.99056e-16 0)
(3 -7.88246e-16 0)
(3 -1.02622e-15 0)
(3 -1.3923e-16 0)
(3 7.71773e-16 0)
(3 6.1524e-16 0)
(3 2.80014e-16 0)
(3 -1.36258e-16 0)
(3 -9.3965e-17 0)
(3 6.33833e-16 0)
(3 3.73042e-16 0)
(1.06434 0.00664411 0)
(0.611433 0.00516019 0)
(0.580499 0.0141424 0)
(0.560063 0.0128967 0)
(0.537069 0.0128898 0)
(0.509568 0.0137219 0)
(0.47233 0.0165113 0)
(0.424069 0.0186215 0)
(0.371338 0.0339073 0)
(0.308447 0.043598 0)
(3 1.67663e-17 0)
(3 -7.83187e-17 0)
(3 3.42868e-16 0)
(3 4.32167e-16 0)
(3 2.84847e-16 0)
(3 6.05377e-16 0)
(3 1.25556e-15 0)
(3 2.04115e-15 0)
(3 7.26559e-16 0)
(3 -9.45325e-16 0)
(3 -6.80614e-16 0)
(3 -1.04426e-16 0)
(3 -1.04998e-17 0)
(3 4.86975e-16 0)
(3 5.45842e-16 0)
(3 8.99685e-16 0)
(3 3.59243e-16 0)
(3 3.8409e-16 0)
(3 1.05037e-17 0)
(3 -1.4262e-16 0)
(3 -5.10647e-16 0)
(3 -9.23953e-16 0)
(3 -6.53158e-16 0)
(3 -2.24086e-16 0)
(3 -4.07516e-16 0)
(3 -7.13496e-16 0)
(3 -2.34727e-16 0)
(3 -2.8297e-16 0)
(3 -5.41243e-16 0)
(3 -3.76737e-16 0)
(3 -5.98434e-16 0)
(3 -2.2175e-15 0)
(3 -2.18109e-15 0)
(3 -2.02161e-15 0)
(3 -1.17033e-15 0)
(3 -5.66246e-16 0)
(3 -1.41137e-16 0)
(3 5.19369e-16 0)
(3 6.91024e-16 0)
(3 1.00851e-15 0)
(3 1.12215e-15 0)
(3 1.18532e-15 0)
(3 6.47136e-16 0)
(3 6.8182e-16 0)
(3 3.82695e-16 0)
(3 5.98588e-16 0)
(3 1.20772e-15 0)
(3 1.0197e-15 0)
(3 1.22113e-15 0)
(3 7.15992e-16 0)
(3 1.11416e-16 0)
(3 -3.17495e-16 0)
(3 -1.01854e-15 0)
(3 -1.53014e-15 0)
(3 -6.9118e-16 0)
(3 -5.78962e-16 0)
(3 1.38902e-15 0)
(3 2.30578e-15 0)
(3 1.74067e-15 0)
(3 6.95841e-16 0)
(3 5.40055e-16 0)
(3 1.51617e-15 0)
(3 6.44805e-16 0)
(3 -1.07657e-15 0)
(3 -1.78061e-15 0)
(3 -2.3638e-15 0)
(3 -5.99367e-16 0)
(3 3.09307e-15 0)
(3 3.94534e-15 0)
(3 4.92439e-15 0)
(3 3.40488e-15 0)
(3 1.65924e-15 0)
(3 2.03755e-16 0)
(3 -7.21857e-16 0)
(3 -5.51419e-16 0)
(3 -8.30835e-16 0)
(3 -1.26492e-15 0)
(3 -1.21911e-15 0)
(3 -2.94462e-16 0)
(3 3.71399e-16 0)
(3 3.8678e-16 0)
(3 2.72221e-16 0)
(3 -1.88015e-16 0)
(3 -2.28255e-16 0)
(3 7.32334e-16 0)
(3 2.17294e-16 0)
(1.07748 0.0314473 0)
(0.608697 0.0246678 0)
(0.575389 0.0420433 0)
(0.554674 0.0381263 0)
(0.532068 0.0381422 0)
(0.505996 0.0412689 0)
(0.473104 0.0499104 0)
(0.42858 0.0582583 0)
(0.389658 0.0807319 0)
(0.349682 0.0946214 0)
(3 2.70098e-18 0)
(3 6.73906e-17 0)
(3 1.64792e-16 0)
(3 -3.02471e-16 0)
(3 -2.10499e-17 0)
(3 5.07293e-16 0)
(3 6.07372e-16 0)
(3 1.10672e-15 0)
(3 3.32971e-16 0)
(3 -2.51415e-16 0)
(3 4.09451e-17 0)
(3 3.29302e-16 0)
(3 5.0584e-17 0)
(3 3.81606e-16 0)
(3 1.42536e-16 0)
(3 -4.0279e-16 0)
(3 -8.61856e-16 0)
(3 -7.78825e-16 0)
(3 -5.75664e-16 0)
(3 -2.46235e-16 0)
(3 -7.47332e-16 0)
(3 -7.50008e-16 0)
(3 4.4838e-16 0)
(3 7.73685e-16 0)
(3 1.32719e-15 0)
(3 8.70854e-16 0)
(3 1.81808e-16 0)
(3 -3.50682e-16 0)
(3 -7.17688e-16 0)
(3 -3.4489e-16 0)
(3 1.01653e-16 0)
(3 -9.38637e-16 0)
(3 -1.77e-15 0)
(3 -2.48804e-15 0)
(3 -1.11104e-15 0)
(3 3.29141e-16 0)
(3 2.1894e-16 0)
(3 -2.57044e-16 0)
(3 2.9227e-16 0)
(3 8.58096e-16 0)
(3 1.30352e-15 0)
(3 1.20074e-15 0)
(3 8.98236e-16 0)
(3 2.62776e-16 0)
(3 -1.7766e-16 0)
(3 5.10471e-16 0)
(3 1.07854e-15 0)
(3 7.33055e-16 0)
(3 8.13279e-16 0)
(3 1.74853e-15 0)
(3 1.84882e-15 0)
(3 -5.57308e-16 0)
(3 -1.43794e-15 0)
(3 -7.57532e-16 0)
(3 -5.76022e-16 0)
(3 -6.70326e-16 0)
(3 -4.82537e-16 0)
(3 1.13977e-15 0)
(3 1.436e-15 0)
(3 1.21261e-15 0)
(3 1.08551e-15 0)
(3 1.15458e-15 0)
(3 4.15329e-16 0)
(3 -6.14083e-16 0)
(3 -1.65098e-15 0)
(3 -2.05093e-15 0)
(3 -1.31246e-15 0)
(3 2.41985e-15 0)
(3 4.99574e-15 0)
(3 4.68539e-15 0)
(3 3.89717e-15 0)
(3 2.45909e-15 0)
(3 8.91113e-16 0)
(3 6.34327e-16 0)
(3 4.87189e-17 0)
(3 -4.34574e-16 0)
(3 8.78604e-17 0)
(3 7.02546e-16 0)
(3 5.31433e-16 0)
(3 -1.76437e-16 0)
(3 2.02331e-16 0)
(3 3.81939e-16 0)
(3 2.81134e-16 0)
(3 -1.40625e-16 0)
(3 6.81284e-17 0)
(3 -2.10995e-15 0)
(1.11337 0.0540642 0)
(0.613189 0.0445731 0)
(0.579268 0.0684278 0)
(0.559274 0.0633951 0)
(0.536878 0.0624464 0)
(0.51272 0.0664146 0)
(0.483907 0.0768524 0)
(0.445222 0.0853122 0)
(0.41336 0.106939 0)
(0.389246 0.127613 0)
(3 1.2365e-16 0)
(3 4.2319e-16 0)
(3 1.15413e-16 0)
(3 -5.11843e-16 0)
(3 -8.92789e-16 0)
(3 -5.6765e-16 0)
(3 -2.689e-16 0)
(3 -2.04572e-16 0)
(3 -9.46113e-17 0)
(3 -5.72453e-17 0)
(3 8.27938e-17 0)
(3 5.36121e-17 0)
(3 1.5424e-16 0)
(3 2.04694e-16 0)
(3 2.66309e-16 0)
(3 -7.34055e-17 0)
(3 -4.33633e-16 0)
(3 -6.52251e-16 0)
(3 -6.69386e-16 0)
(3 -8.29023e-16 0)
(3 -1.20854e-15 0)
(3 1.09189e-16 0)
(3 9.45313e-16 0)
(3 4.38035e-16 0)
(3 -1.15927e-16 0)
(3 6.7079e-16 0)
(3 5.91269e-16 0)
(3 8.73221e-17 0)
(3 1.25788e-16 0)
(3 2.77073e-16 0)
(3 -7.59183e-16 0)
(3 -8.23252e-16 0)
(3 -6.04988e-16 0)
(3 6.27788e-18 0)
(3 8.74236e-16 0)
(3 9.73316e-16 0)
(3 5.84477e-16 0)
(3 1.66984e-16 0)
(3 3.83819e-16 0)
(3 8.05798e-16 0)
(3 7.71883e-16 0)
(3 4.65103e-16 0)
(3 1.96532e-16 0)
(3 -3.45333e-16 0)
(3 -2.44466e-16 0)
(3 1.02343e-15 0)
(3 8.7873e-16 0)
(3 -1.33074e-16 0)
(3 -4.40563e-16 0)
(3 9.95485e-17 0)
(3 4.26198e-17 0)
(3 -8.5199e-16 0)
(3 -2.04169e-16 0)
(3 1.77719e-15 0)
(3 2.26246e-15 0)
(3 1.2586e-15 0)
(3 2.68809e-16 0)
(3 7.52528e-18 0)
(3 -5.24653e-16 0)
(3 5.63476e-16 0)
(3 8.73921e-16 0)
(3 5.43691e-16 0)
(3 1.05078e-15 0)
(3 -6.72028e-16 0)
(3 -1.89722e-15 0)
(3 -2.52618e-15 0)
(3 -1.94463e-15 0)
(3 -9.61653e-16 0)
(3 1.18745e-15 0)
(3 2.33747e-15 0)
(3 2.71501e-15 0)
(3 1.32107e-15 0)
(3 2.75098e-16 0)
(3 5.49778e-16 0)
(3 1.20185e-16 0)
(3 -1.82948e-16 0)
(3 -1.6015e-17 0)
(3 1.27034e-15 0)
(3 1.80527e-15 0)
(3 3.71392e-16 0)
(3 -7.74622e-17 0)
(3 -5.86116e-17 0)
(3 4.60206e-16 0)
(3 4.82228e-16 0)
(3 4.73269e-16 0)
(3 -2.46154e-15 0)
(1.16605 0.0737888 0)
(0.618822 0.0641255 0)
(0.582836 0.092271 0)
(0.565245 0.0864653 0)
(0.544734 0.0838679 0)
(0.523348 0.0876824 0)
(0.497485 0.0973666 0)
(0.464564 0.104817 0)
(0.438688 0.120748 0)
(0.423213 0.140212 0)
(3 -1.61827e-16 0)
(3 -4.51324e-16 0)
(3 -5.69046e-16 0)
(3 -5.14293e-16 0)
(3 -5.38078e-16 0)
(3 -7.88785e-16 0)
(3 -6.90844e-16 0)
(3 -6.33594e-16 0)
(3 -1.39647e-16 0)
(3 1.66093e-16 0)
(3 -3.14671e-16 0)
(3 -6.58428e-16 0)
(3 -5.76816e-16 0)
(3 -3.12573e-16 0)
(3 -6.53772e-17 0)
(3 -6.61159e-17 0)
(3 -6.80062e-17 0)
(3 -3.15247e-16 0)
(3 -7.22467e-16 0)
(3 -7.96729e-16 0)
(3 -1.69863e-15 0)
(3 -5.00052e-17 0)
(3 1.16434e-15 0)
(3 1.41111e-15 0)
(3 -9.08986e-16 0)
(3 -1.57823e-15 0)
(3 7.28655e-16 0)
(3 2.436e-15 0)
(3 2.44407e-15 0)
(3 1.8193e-15 0)
(3 4.19115e-16 0)
(3 7.77656e-17 0)
(3 8.94557e-16 0)
(3 2.25478e-15 0)
(3 2.00751e-15 0)
(3 1.45842e-15 0)
(3 1.00433e-15 0)
(3 1.2377e-15 0)
(3 3.99912e-16 0)
(3 -1.1373e-15 0)
(3 -1.96524e-15 0)
(3 -2.37521e-15 0)
(3 -1.65592e-15 0)
(3 -2.45931e-16 0)
(3 1.37022e-15 0)
(3 1.05762e-15 0)
(3 1.09818e-15 0)
(3 9.34602e-16 0)
(3 4.28811e-16 0)
(3 -4.44255e-16 0)
(3 -9.09595e-16 0)
(3 -1.9907e-15 0)
(3 -7.81154e-16 0)
(3 1.25422e-15 0)
(3 1.55275e-15 0)
(3 2.00152e-15 0)
(3 1.20476e-15 0)
(3 -3.19193e-16 0)
(3 -1.4795e-15 0)
(3 -8.13571e-16 0)
(3 4.49415e-16 0)
(3 1.29815e-15 0)
(3 1.15965e-15 0)
(3 -1.13698e-15 0)
(3 -1.82917e-15 0)
(3 -1.80905e-15 0)
(3 -1.37449e-15 0)
(3 -1.02277e-15 0)
(3 -4.21814e-16 0)
(3 9.64596e-16 0)
(3 1.67258e-15 0)
(3 1.63807e-15 0)
(3 1.00372e-15 0)
(3 4.21951e-16 0)
(3 2.94433e-16 0)
(3 7.05072e-16 0)
(3 4.67137e-16 0)
(3 -2.54141e-16 0)
(3 1.47032e-16 0)
(3 6.4319e-16 0)
(3 4.36624e-16 0)
(3 7.78626e-17 0)
(3 5.89052e-16 0)
(3 1.0985e-15 0)
(3 1.90175e-15 0)
(3 -3.68847e-15 0)
(1.23531 0.0924375 0)
(0.625451 0.0839204 0)
(0.584582 0.11342 0)
(0.569761 0.106698 0)
(0.551635 0.102568 0)
(0.53267 0.105645 0)
(0.508566 0.113472 0)
(0.480242 0.119911 0)
(0.46132 0.131736 0)
(0.451367 0.149139 0)
(3 1.58394e-16 0)
(3 -2.26762e-16 0)
(3 -3.34181e-16 0)
(3 -1.45289e-16 0)
(3 -2.56782e-16 0)
(3 -1.13518e-15 0)
(3 -1.04095e-15 0)
(3 -9.58648e-16 0)
(3 -6.01732e-16 0)
(3 5.00233e-16 0)
(3 3.33874e-16 0)
(3 -2.58152e-16 0)
(3 -4.17081e-16 0)
(3 -6.21847e-16 0)
(3 -4.73458e-16 0)
(3 4.63359e-18 0)
(3 5.3673e-16 0)
(3 5.30321e-16 0)
(3 3.17592e-16 0)
(3 1.7195e-16 0)
(3 -4.1112e-16 0)
(3 3.37513e-16 0)
(3 1.22438e-15 0)
(3 1.81017e-15 0)
(3 5.40555e-16 0)
(3 3.42648e-16 0)
(3 9.01402e-16 0)
(3 1.15349e-15 0)
(3 1.22559e-15 0)
(3 1.00059e-15 0)
(3 8.71928e-16 0)
(3 1.634e-16 0)
(3 8.5696e-16 0)
(3 1.71877e-15 0)
(3 1.68699e-15 0)
(3 8.26817e-16 0)
(3 6.79117e-16 0)
(3 1.0201e-15 0)
(3 2.37219e-16 0)
(3 -4.9607e-16 0)
(3 -6.79034e-16 0)
(3 -8.98244e-16 0)
(3 -7.4748e-16 0)
(3 -5.43312e-16 0)
(3 -5.21618e-16 0)
(3 -8.82816e-16 0)
(3 -4.10431e-16 0)
(3 1.81791e-16 0)
(3 4.53715e-16 0)
(3 -5.64667e-16 0)
(3 -1.30842e-15 0)
(3 -2.20028e-15 0)
(3 -2.36302e-15 0)
(3 -9.34374e-16 0)
(3 -2.99559e-17 0)
(3 1.22521e-15 0)
(3 1.35782e-15 0)
(3 4.01818e-16 0)
(3 -3.09035e-16 0)
(3 -5.79438e-16 0)
(3 -2.78111e-16 0)
(3 2.95225e-16 0)
(3 -2.85495e-16 0)
(3 -1.05707e-15 0)
(3 -2.37833e-15 0)
(3 -1.94151e-15 0)
(3 -1.56626e-15 0)
(3 -1.20531e-15 0)
(3 -1.75427e-15 0)
(3 -1.3974e-15 0)
(3 -6.63299e-16 0)
(3 1.72812e-17 0)
(3 3.53958e-16 0)
(3 2.65996e-16 0)
(3 3.75729e-16 0)
(3 9.09919e-16 0)
(3 9.4439e-16 0)
(3 1.92705e-16 0)
(3 2.56994e-16 0)
(3 1.00314e-15 0)
(3 1.14177e-15 0)
(3 1.05068e-15 0)
(3 9.68468e-16 0)
(3 8.35972e-16 0)
(3 2.81388e-16 0)
(3 -4.29295e-16 0)
(1.32355 0.109969 0)
(0.634254 0.104327 0)
(0.585756 0.131537 0)
(0.573655 0.123583 0)
(0.55708 0.118536 0)
(0.539369 0.1205 0)
(0.516004 0.12609 0)
(0.492893 0.131591 0)
(0.480975 0.141714 0)
(0.475596 0.156335 0)
(3 1.3279e-16 0)
(3 5.43495e-16 0)
(3 5.14198e-16 0)
(3 1.15038e-16 0)
(3 -3.82489e-16 0)
(3 -6.43727e-16 0)
(3 -9.9519e-16 0)
(3 -5.92734e-16 0)
(3 6.79424e-16 0)
(3 7.49595e-16 0)
(3 8.94186e-16 0)
(3 6.52312e-16 0)
(3 3.64284e-16 0)
(3 1.26612e-17 0)
(3 -2.73446e-16 0)
(3 -9.71604e-17 0)
(3 3.05491e-16 0)
(3 7.26609e-16 0)
(3 9.29176e-16 0)
(3 7.42299e-16 0)
(3 1.39769e-15 0)
(3 8.83015e-16 0)
(3 7.66154e-16 0)
(3 1.10184e-15 0)
(3 2.61565e-15 0)
(3 2.68691e-15 0)
(3 1.31778e-15 0)
(3 -2.89801e-16 0)
(3 -3.12867e-17 0)
(3 2.22595e-16 0)
(3 7.05266e-16 0)
(3 6.58061e-16 0)
(3 5.04376e-16 0)
(3 1.36059e-16 0)
(3 -2.61036e-16 0)
(3 -2.34534e-16 0)
(3 4.07867e-16 0)
(3 7.9871e-16 0)
(3 5.52259e-16 0)
(3 6.39005e-16 0)
(3 9.02167e-16 0)
(3 7.40942e-16 0)
(3 1.99773e-17 0)
(3 1.32843e-16 0)
(3 -7.41522e-16 0)
(3 -1.13401e-15 0)
(3 -1.93249e-15 0)
(3 -2.08586e-15 0)
(3 -1.64598e-15 0)
(3 -1.05789e-15 0)
(3 -7.8826e-16 0)
(3 -1.42385e-16 0)
(3 8.66737e-17 0)
(3 -1.9894e-16 0)
(3 -2.65596e-16 0)
(3 -7.53751e-16 0)
(3 -7.28848e-16 0)
(3 -6.08625e-16 0)
(3 -5.3755e-16 0)
(3 -3.21297e-16 0)
(3 -5.25658e-16 0)
(3 -8.70987e-16 0)
(3 -1.4046e-15 0)
(3 -1.84432e-15 0)
(3 -2.34285e-15 0)
(3 -2.41799e-15 0)
(3 -2.16121e-15 0)
(3 -1.99815e-15 0)
(3 -2.95957e-15 0)
(3 -3.48188e-15 0)
(3 -3.02429e-15 0)
(3 -2.98506e-15 0)
(3 -1.37052e-15 0)
(3 7.73741e-17 0)
(3 9.2003e-16 0)
(3 8.73455e-16 0)
(3 7.49979e-16 0)
(3 4.95154e-16 0)
(3 1.26007e-15 0)
(3 1.86867e-15 0)
(3 1.60977e-15 0)
(3 1.04406e-15 0)
(3 6.34318e-16 0)
(3 6.36849e-17 0)
(3 -4.40564e-16 0)
(3 -1.93375e-15 0)
(1.43213 0.1262 0)
(0.644777 0.125828 0)
(0.587005 0.146392 0)
(0.577979 0.136749 0)
(0.561409 0.131192 0)
(0.543216 0.132211 0)
(0.520505 0.136511 0)
(0.504119 0.142479 0)
(0.498535 0.15143 0)
(0.49645 0.16447 0)
(3 -5.61183e-17 0)
(3 2.16267e-17 0)
(3 1.12457e-16 0)
(3 3.37152e-16 0)
(3 2.10455e-16 0)
(3 8.81528e-18 0)
(3 -3.94989e-16 0)
(3 -8.5475e-16 0)
(3 1.62522e-16 0)
(3 1.59163e-16 0)
(3 3.54612e-16 0)
(3 6.71668e-16 0)
(3 -5.09799e-16 0)
(3 -7.47403e-16 0)
(3 -5.62311e-16 0)
(3 -3.05544e-16 0)
(3 -6.23617e-16 0)
(3 -3.55535e-16 0)
(3 5.63918e-16 0)
(3 8.07949e-16 0)
(3 1.88261e-15 0)
(3 1.08565e-15 0)
(3 4.09888e-16 0)
(3 6.20514e-16 0)
(3 1.32977e-15 0)
(3 9.57237e-16 0)
(3 7.77944e-16 0)
(3 -3.31145e-16 0)
(3 -1.1758e-15 0)
(3 -8.3471e-16 0)
(3 -5.99042e-17 0)
(3 1.8954e-15 0)
(3 1.58278e-15 0)
(3 -3.89714e-16 0)
(3 -4.33532e-16 0)
(3 -3.24225e-16 0)
(3 2.85608e-17 0)
(3 -1.75114e-16 0)
(3 4.12945e-17 0)
(3 5.95884e-16 0)
(3 7.77652e-16 0)
(3 6.29361e-16 0)
(3 2.07816e-16 0)
(3 6.97321e-16 0)
(3 7.93066e-16 0)
(3 9.26025e-16 0)
(3 5.45526e-16 0)
(3 3.3114e-16 0)
(3 6.69051e-18 0)
(3 2.22311e-17 0)
(3 2.42293e-16 0)
(3 -5.27425e-16 0)
(3 -7.84268e-16 0)
(3 -1.06647e-15 0)
(3 -1.02372e-15 0)
(3 -7.83509e-16 0)
(3 -9.01901e-16 0)
(3 -1.05973e-15 0)
(3 -1.7536e-15 0)
(3 -1.51073e-15 0)
(3 -1.43547e-15 0)
(3 -1.73691e-15 0)
(3 -2.00793e-15 0)
(3 -2.14851e-15 0)
(3 -1.48375e-15 0)
(3 -6.89336e-16 0)
(3 -1.14056e-15 0)
(3 -1.59171e-15 0)
(3 -1.13422e-15 0)
(3 -5.69338e-16 0)
(3 -3.381e-16 0)
(3 -6.36473e-16 0)
(3 -1.09989e-15 0)
(3 -1.17658e-15 0)
(3 -7.81974e-16 0)
(3 -5.94529e-16 0)
(3 -4.82755e-16 0)
(3 -1.7379e-16 0)
(3 -1.95171e-16 0)
(3 -3.43537e-16 0)
(3 -7.75154e-16 0)
(3 -1.21466e-15 0)
(3 -1.43547e-15 0)
(3 -1.60998e-15 0)
(3 -1.26511e-15 0)
(3 -5.14498e-15 0)
(1.56362 0.140483 0)
(0.656596 0.147727 0)
(0.588678 0.158597 0)
(0.582057 0.145608 0)
(0.563934 0.139781 0)
(0.544216 0.140535 0)
(0.525616 0.145513 0)
(0.515611 0.152721 0)
(0.514677 0.160428 0)
(0.515217 0.172737 0)
(3 1.22337e-16 0)
(3 -2.43545e-16 0)
(3 -2.13724e-16 0)
(3 5.22395e-16 0)
(3 7.22949e-16 0)
(3 5.44622e-16 0)
(3 1.268e-17 0)
(3 -9.49302e-16 0)
(3 -9.95835e-17 0)
(3 4.86766e-16 0)
(3 8.52252e-17 0)
(3 -5.34593e-16 0)
(3 -1.45014e-15 0)
(3 -1.50916e-15 0)
(3 -1.36886e-15 0)
(3 -1.38507e-15 0)
(3 -6.85317e-16 0)
(3 -3.7725e-16 0)
(3 9.49451e-17 0)
(3 6.94658e-16 0)
(3 8.31168e-16 0)
(3 1.26631e-15 0)
(3 1.23889e-15 0)
(3 6.02551e-16 0)
(3 -1.8913e-16 0)
(3 -9.39551e-16 0)
(3 6.7621e-17 0)
(3 -5.74183e-16 0)
(3 -1.31815e-15 0)
(3 -1.28581e-15 0)
(3 -1.08243e-15 0)
(3 2.39983e-16 0)
(3 1.86348e-16 0)
(3 2.62853e-16 0)
(3 1.30101e-16 0)
(3 2.47013e-16 0)
(3 -2.3179e-16 0)
(3 4.80274e-17 0)
(3 5.52576e-16 0)
(3 3.86555e-16 0)
(3 2.2819e-16 0)
(3 1.28984e-16 0)
(3 6.44277e-16 0)
(3 6.69608e-16 0)
(3 1.22364e-15 0)
(3 2.01431e-15 0)
(3 2.56391e-15 0)
(3 2.27961e-15 0)
(3 2.39691e-15 0)
(3 1.98404e-15 0)
(3 3.55278e-16 0)
(3 -2.6635e-16 0)
(3 -4.69555e-16 0)
(3 -2.37342e-16 0)
(3 3.85022e-16 0)
(3 7.55235e-16 0)
(3 -6.58842e-17 0)
(3 -8.65334e-16 0)
(3 -1.42395e-15 0)
(3 -1.83742e-15 0)
(3 -1.6856e-15 0)
(3 -1.32672e-15 0)
(3 -1.12929e-15 0)
(3 -1.36254e-15 0)
(3 -1.71911e-15 0)
(3 -1.53879e-15 0)
(3 -1.46155e-15 0)
(3 -1.37919e-15 0)
(3 -5.3993e-16 0)
(3 2.61326e-16 0)
(3 4.39509e-16 0)
(3 -1.49018e-16 0)
(3 -8.27773e-16 0)
(3 -1.88241e-15 0)
(3 -2.12271e-15 0)
(3 -2.15232e-15 0)
(3 -1.7035e-15 0)
(3 -1.604e-15 0)
(3 -2.42265e-15 0)
(3 -3.48564e-15 0)
(3 -2.93186e-15 0)
(3 -2.82572e-15 0)
(3 -2.61564e-15 0)
(3 -2.25239e-15 0)
(3 -2.39825e-15 0)
(3 -6.11823e-15 0)
(1.7194 0.151229 0)
(0.671915 0.168689 0)
(0.589062 0.168137 0)
(0.584015 0.14994 0)
(0.563865 0.143296 0)
(0.545957 0.146515 0)
(0.533592 0.153858 0)
(0.527733 0.162005 0)
(0.529888 0.170071 0)
(0.532671 0.182107 0)
(3 -1.11938e-16 0)
(3 -5.2798e-16 0)
(3 -3.96028e-16 0)
(3 -5.68256e-17 0)
(3 3.39407e-16 0)
(3 2.75461e-16 0)
(3 -4.41813e-17 0)
(3 -1.01365e-16 0)
(3 1.8822e-17 0)
(3 -2.51797e-16 0)
(3 -9.22456e-16 0)
(3 -1.82568e-15 0)
(3 -1.36575e-15 0)
(3 -1.26175e-15 0)
(3 -1.35105e-15 0)
(3 -1.56573e-15 0)
(3 -1.05681e-15 0)
(3 -6.45769e-16 0)
(3 -6.47938e-16 0)
(3 1.1249e-16 0)
(3 -1.43688e-16 0)
(3 2.72243e-16 0)
(3 1.01939e-15 0)
(3 1.0644e-15 0)
(3 6.24435e-16 0)
(3 -1.53208e-16 0)
(3 -8.34071e-16 0)
(3 -5.68606e-16 0)
(3 -1.14091e-15 0)
(3 -1.37559e-15 0)
(3 -1.24379e-15 0)
(3 -1.26858e-15 0)
(3 -5.13298e-16 0)
(3 7.36433e-16 0)
(3 8.42562e-16 0)
(3 9.46287e-16 0)
(3 1.17283e-15 0)
(3 1.45213e-15 0)
(3 1.54224e-15 0)
(3 1.35268e-15 0)
(3 9.58309e-16 0)
(3 7.58603e-16 0)
(3 1.17228e-15 0)
(3 1.05367e-15 0)
(3 1.21174e-15 0)
(3 1.16791e-15 0)
(3 4.77451e-16 0)
(3 3.69837e-16 0)
(3 3.42462e-16 0)
(3 5.81683e-16 0)
(3 1.18348e-17 0)
(3 1.88867e-16 0)
(3 4.19307e-16 0)
(3 9.54459e-16 0)
(3 6.30745e-16 0)
(3 -1.38148e-15 0)
(3 -2.32635e-15 0)
(3 -8.8458e-16 0)
(3 -3.31615e-16 0)
(3 -5.65119e-16 0)
(3 -6.19693e-16 0)
(3 -2.68184e-16 0)
(3 -3.17139e-16 0)
(3 -4.17427e-16 0)
(3 -1.21384e-15 0)
(3 -1.88751e-15 0)
(3 -2.23679e-15 0)
(3 -2.13865e-15 0)
(3 -2.06137e-15 0)
(3 -1.08423e-15 0)
(3 -1.03812e-15 0)
(3 -5.62452e-16 0)
(3 -3.8058e-16 0)
(3 -2.43714e-16 0)
(3 -4.04389e-16 0)
(3 -9.99842e-16 0)
(3 -1.58222e-15 0)
(3 -1.39774e-15 0)
(3 -1.47913e-15 0)
(3 -2.16496e-15 0)
(3 -2.46179e-15 0)
(3 -2.63947e-15 0)
(3 -3.43157e-15 0)
(3 -2.83346e-15 0)
(3 -1.44976e-15 0)
(3 -3.73783e-15 0)
(1.89891 0.156257 0)
(0.691192 0.187094 0)
(0.587749 0.173254 0)
(0.58252 0.150301 0)
(0.563471 0.145097 0)
(0.55173 0.152036 0)
(0.543022 0.161908 0)
(0.541773 0.170086 0)
(0.545478 0.179526 0)
(0.549458 0.191442 0)
(3 -3.56042e-16 0)
(3 -5.46082e-16 0)
(3 -4.4324e-16 0)
(3 1.25668e-16 0)
(3 2.35035e-16 0)
(3 3.18541e-16 0)
(3 5.01028e-16 0)
(3 4.99054e-16 0)
(3 -1.79115e-16 0)
(3 -8.71381e-16 0)
(3 -9.87516e-16 0)
(3 -1.22931e-15 0)
(3 -1.004e-15 0)
(3 -3.08334e-16 0)
(3 6.565e-17 0)
(3 1.48382e-17 0)
(3 5.8573e-16 0)
(3 3.87333e-16 0)
(3 -4.95762e-16 0)
(3 -9.54725e-16 0)
(3 -1.39723e-15 0)
(3 -1.13169e-15 0)
(3 -1.21475e-15 0)
(3 -1.50679e-15 0)
(3 -7.06122e-16 0)
(3 -4.11085e-16 0)
(3 -8.34389e-16 0)
(3 -7.27377e-16 0)
(3 -5.77714e-16 0)
(3 -5.31737e-16 0)
(3 -1.15682e-15 0)
(3 -1.42739e-15 0)
(3 2.79114e-17 0)
(3 3.8103e-16 0)
(3 1.22968e-15 0)
(3 8.73659e-16 0)
(3 1.40712e-15 0)
(3 9.92197e-16 0)
(3 7.60865e-16 0)
(3 1.02388e-15 0)
(3 1.35975e-15 0)
(3 1.77177e-15 0)
(3 1.34001e-15 0)
(3 7.37232e-16 0)
(3 4.96632e-16 0)
(3 -4.78095e-16 0)
(3 -6.70788e-16 0)
(3 -6.91414e-16 0)
(3 -1.73983e-15 0)
(3 -2.18691e-15 0)
(3 -7.85122e-16 0)
(3 -5.37998e-16 0)
(3 3.60838e-16 0)
(3 6.69426e-16 0)
(3 -9.4435e-16 0)
(3 -1.68618e-15 0)
(3 -1.63359e-15 0)
(3 -6.765e-16 0)
(3 -3.50478e-16 0)
(3 -2.29566e-17 0)
(3 5.28895e-17 0)
(3 2.74477e-16 0)
(3 4.70963e-16 0)
(3 4.34614e-16 0)
(3 1.76516e-16 0)
(3 -6.26453e-16 0)
(3 -1.82959e-15 0)
(3 -1.94392e-15 0)
(3 -2.02122e-15 0)
(3 -1.62474e-15 0)
(3 -1.40202e-15 0)
(3 -8.31069e-16 0)
(3 -4.91258e-16 0)
(3 -4.3715e-16 0)
(3 -3.32967e-16 0)
(3 -3.36257e-16 0)
(3 -5.25769e-16 0)
(3 -3.19662e-16 0)
(3 -6.68637e-16 0)
(3 -1.69363e-15 0)
(3 -2.54387e-15 0)
(3 -2.05485e-15 0)
(3 -2.33984e-15 0)
(3 -2.2894e-15 0)
(3 -1.15438e-15 0)
(3 -3.41238e-15 0)
(2.1022 0.153579 0)
(0.715104 0.20061 0)
(0.584872 0.172133 0)
(0.57873 0.149413 0)
(0.566512 0.148951 0)
(0.559048 0.158994 0)
(0.554404 0.169621 0)
(0.556917 0.177625 0)
(0.561474 0.187877 0)
(0.564632 0.198721 0)
(3 2.44075e-17 0)
(3 1.84581e-16 0)
(3 3.62438e-16 0)
(3 5.55471e-16 0)
(3 6.86309e-16 0)
(3 1.1574e-15 0)
(3 1.24284e-15 0)
(3 7.56116e-16 0)
(3 -4.1695e-16 0)
(3 -7.01658e-16 0)
(3 -6.08013e-16 0)
(3 2.89619e-16 0)
(3 9.49778e-16 0)
(3 7.62937e-16 0)
(3 3.32826e-16 0)
(3 7.25576e-16 0)
(3 8.95703e-16 0)
(3 6.97487e-16 0)
(3 6.30484e-16 0)
(3 2.59389e-16 0)
(3 -6.33196e-16 0)
(3 -9.77787e-16 0)
(3 -1.72287e-15 0)
(3 -2.11883e-15 0)
(3 -1.15051e-15 0)
(3 -7.14338e-16 0)
(3 -9.13597e-16 0)
(3 -1.35163e-15 0)
(3 -7.90024e-16 0)
(3 1.16522e-16 0)
(3 -9.85414e-17 0)
(3 8.95534e-16 0)
(3 4.86612e-16 0)
(3 5.84652e-16 0)
(3 7.09736e-16 0)
(3 8.91809e-16 0)
(3 1.77107e-15 0)
(3 1.40285e-15 0)
(3 1.21688e-15 0)
(3 1.49344e-15 0)
(3 1.10268e-15 0)
(3 6.21278e-16 0)
(3 4.20918e-16 0)
(3 -5.93422e-16 0)
(3 -1.68156e-15 0)
(3 -2.1742e-15 0)
(3 -1.90747e-15 0)
(3 -1.27055e-15 0)
(3 -1.21219e-15 0)
(3 -1.7354e-15 0)
(3 -1.34779e-15 0)
(3 -1.31764e-15 0)
(3 -9.27499e-16 0)
(3 -8.90989e-16 0)
(3 1.53787e-16 0)
(3 4.48253e-16 0)
(3 1.04105e-15 0)
(3 1.28045e-15 0)
(3 4.00914e-16 0)
(3 4.63776e-16 0)
(3 5.58463e-16 0)
(3 8.9686e-17 0)
(3 5.04764e-16 0)
(3 5.31477e-16 0)
(3 3.20315e-16 0)
(3 -3.67091e-16 0)
(3 -9.13107e-16 0)
(3 -1.54061e-15 0)
(3 -1.37603e-15 0)
(3 -1.53001e-15 0)
(3 -1.58956e-15 0)
(3 -1.91922e-15 0)
(3 -2.30438e-15 0)
(3 -2.22427e-15 0)
(3 -1.78714e-15 0)
(3 -1.06626e-15 0)
(3 -7.81427e-16 0)
(3 -7.33864e-16 0)
(3 -4.93986e-16 0)
(3 -9.4679e-16 0)
(3 -8.50772e-16 0)
(3 -5.66125e-16 0)
(3 7.36527e-18 0)
(3 -1.03493e-15 0)
(3 -1.04745e-15 0)
(3 -2.73298e-15 0)
(2.32448 0.142647 0)
(0.744941 0.206887 0)
(0.580538 0.165471 0)
(0.578513 0.150602 0)
(0.572024 0.155579 0)
(0.566811 0.167608 0)
(0.567275 0.17736 0)
(0.572404 0.185583 0)
(0.575936 0.194816 0)
(0.576431 0.203146 0)
(3 8.61549e-17 0)
(3 -1.05283e-16 0)
(3 -2.76629e-16 0)
(3 -5.86526e-16 0)
(3 -2.80047e-16 0)
(3 2.67128e-16 0)
(3 1.70468e-16 0)
(3 -1.10057e-17 0)
(3 -6.00236e-16 0)
(3 -9.23855e-16 0)
(3 -9.43849e-16 0)
(3 9.52083e-16 0)
(3 1.87652e-15 0)
(3 1.78431e-15 0)
(3 1.77006e-15 0)
(3 1.40845e-15 0)
(3 9.75685e-16 0)
(3 8.8953e-16 0)
(3 7.50011e-16 0)
(3 7.86244e-16 0)
(3 7.06036e-16 0)
(3 -7.07573e-16 0)
(3 -2.54246e-15 0)
(3 -2.61968e-15 0)
(3 -2.00613e-15 0)
(3 -5.26139e-16 0)
(3 -9.12798e-16 0)
(3 -4.83026e-16 0)
(3 -1.89309e-16 0)
(3 -1.00326e-16 0)
(3 3.43035e-16 0)
(3 1.03286e-15 0)
(3 1.12885e-15 0)
(3 1.1606e-15 0)
(3 3.25919e-16 0)
(3 2.47844e-16 0)
(3 8.01738e-16 0)
(3 1.25657e-15 0)
(3 1.30013e-15 0)
(3 9.55283e-16 0)
(3 7.50628e-17 0)
(3 -5.5757e-16 0)
(3 -3.25814e-16 0)
(3 -4.21231e-16 0)
(3 -5.2655e-16 0)
(3 -4.96248e-16 0)
(3 -1.51781e-15 0)
(3 -1.18253e-15 0)
(3 3.69801e-16 0)
(3 8.65194e-16 0)
(3 3.9239e-16 0)
(3 -1.07495e-16 0)
(3 -1.60756e-16 0)
(3 4.44885e-17 0)
(3 6.31198e-16 0)
(3 1.32222e-15 0)
(3 1.54421e-15 0)
(3 1.58389e-15 0)
(3 9.59812e-16 0)
(3 5.23686e-16 0)
(3 -3.84074e-17 0)
(3 2.0831e-16 0)
(3 7.73348e-16 0)
(3 9.3966e-16 0)
(3 3.84379e-16 0)
(3 2.02347e-16 0)
(3 4.5797e-16 0)
(3 -6.27973e-16 0)
(3 -1.39394e-15 0)
(3 -1.62331e-15 0)
(3 -2.25816e-15 0)
(3 -2.73212e-15 0)
(3 -2.80297e-15 0)
(3 -2.16476e-15 0)
(3 -1.90905e-15 0)
(3 -1.69075e-15 0)
(3 -1.29432e-15 0)
(3 -1.21069e-15 0)
(3 -1.02949e-15 0)
(3 -3.82732e-16 0)
(3 3.78753e-16 0)
(3 5.87681e-16 0)
(3 3.76717e-16 0)
(3 8.14624e-17 0)
(3 2.70852e-16 0)
(3 -4.60345e-15 0)
(2.55498 0.118734 0)
(0.784638 0.204725 0)
(0.579816 0.158921 0)
(0.582579 0.154637 0)
(0.577794 0.164074 0)
(0.576284 0.178653 0)
(0.580937 0.187444 0)
(0.585515 0.194363 0)
(0.586199 0.200389 0)
(0.584617 0.205984 0)
(3 -1.73483e-17 0)
(3 -1.80561e-16 0)
(3 -3.76936e-16 0)
(3 -1.34225e-15 0)
(3 -1.70814e-15 0)
(3 -7.69122e-16 0)
(3 -2.64447e-16 0)
(3 4.06711e-16 0)
(3 -5.3578e-16 0)
(3 -4.7898e-16 0)
(3 6.7093e-17 0)
(3 8.16547e-16 0)
(3 5.82552e-16 0)
(3 7.30942e-16 0)
(3 9.36293e-16 0)
(3 2.80475e-16 0)
(3 -9.58762e-16 0)
(3 -8.11038e-16 0)
(3 -1.72719e-16 0)
(3 -1.06151e-16 0)
(3 -1.02389e-16 0)
(3 -6.75214e-16 0)
(3 -1.03809e-15 0)
(3 -1.34509e-15 0)
(3 -1.53265e-15 0)
(3 -1.07633e-15 0)
(3 1.65036e-16 0)
(3 9.45752e-16 0)
(3 1.20257e-15 0)
(3 1.46721e-15 0)
(3 1.94328e-15 0)
(3 1.42296e-15 0)
(3 6.57205e-16 0)
(3 -4.15007e-16 0)
(3 -8.03722e-16 0)
(3 -4.17321e-16 0)
(3 -3.23803e-16 0)
(3 -1.8729e-16 0)
(3 1.43377e-16 0)
(3 -4.30071e-17 0)
(3 -3.12858e-16 0)
(3 -1.02053e-18 0)
(3 4.54754e-16 0)
(3 1.69179e-15 0)
(3 1.55094e-15 0)
(3 1.27418e-15 0)
(3 1.14814e-15 0)
(3 1.14299e-15 0)
(3 1.33124e-15 0)
(3 1.42211e-15 0)
(3 1.18922e-15 0)
(3 1.07765e-15 0)
(3 6.10919e-16 0)
(3 -1.56102e-16 0)
(3 3.55632e-16 0)
(3 1.47807e-15 0)
(3 9.38606e-16 0)
(3 4.73928e-16 0)
(3 4.69639e-16 0)
(3 2.65502e-16 0)
(3 5.79167e-16 0)
(3 1.90785e-15 0)
(3 1.14008e-15 0)
(3 9.4228e-16 0)
(3 7.29133e-16 0)
(3 1.44506e-15 0)
(3 1.45822e-15 0)
(3 6.07901e-16 0)
(3 -6.454e-16 0)
(3 -8.46402e-16 0)
(3 -1.71878e-15 0)
(3 -1.77321e-15 0)
(3 -1.64721e-15 0)
(3 -1.28309e-15 0)
(3 -1.50272e-15 0)
(3 -1.00947e-15 0)
(3 -4.16439e-16 0)
(3 -2.44682e-16 0)
(3 -6.18586e-16 0)
(3 9.20844e-16 0)
(3 1.52206e-15 0)
(3 1.49979e-15 0)
(3 1.08604e-15 0)
(3 1.14523e-15 0)
(3 1.39141e-15 0)
(3 -7.48498e-16 0)
(2.76017 0.0824255 0)
(0.845577 0.19434 0)
(0.584312 0.156987 0)
(0.58904 0.160698 0)
(0.585837 0.178794 0)
(0.588133 0.193414 0)
(0.592393 0.198963 0)
(0.593336 0.201758 0)
(0.592337 0.204734 0)
(0.590034 0.208242 0)
(3 -8.52506e-17 0)
(3 4.99588e-17 0)
(3 -6.72956e-17 0)
(3 -7.37927e-16 0)
(3 -6.63099e-16 0)
(3 -3.66299e-16 0)
(3 -1.01621e-16 0)
(3 -2.03023e-16 0)
(3 8.28978e-17 0)
(3 4.31094e-16 0)
(3 7.39323e-17 0)
(3 -9.48042e-17 0)
(3 -4.41663e-16 0)
(3 -4.79271e-16 0)
(3 -8.22618e-16 0)
(3 -9.89641e-16 0)
(3 -6.57819e-16 0)
(3 -4.25602e-16 0)
(3 4.46841e-16 0)
(3 2.79901e-16 0)
(3 2.57611e-16 0)
(3 2.57787e-16 0)
(3 3.7257e-16 0)
(3 4.89694e-16 0)
(3 1.64302e-16 0)
(3 -1.03642e-16 0)
(3 1.1334e-15 0)
(3 1.82309e-15 0)
(3 2.04595e-15 0)
(3 2.27139e-15 0)
(3 2.11328e-15 0)
(3 9.59314e-16 0)
(3 -4.28006e-16 0)
(3 -1.27937e-15 0)
(3 7.08879e-16 0)
(3 8.30693e-16 0)
(3 3.52113e-16 0)
(3 1.51675e-16 0)
(3 1.60997e-16 0)
(3 2.71656e-16 0)
(3 2.69e-16 0)
(3 3.80113e-16 0)
(3 1.40526e-15 0)
(3 2.11011e-15 0)
(3 2.52978e-15 0)
(3 2.62594e-15 0)
(3 3.27466e-15 0)
(3 3.65471e-15 0)
(3 2.32803e-15 0)
(3 1.78584e-15 0)
(3 1.67707e-15 0)
(3 2.05936e-15 0)
(3 4.82927e-16 0)
(3 -9.70195e-16 0)
(3 -1.01052e-15 0)
(3 -1.98057e-16 0)
(3 -5.67531e-16 0)
(3 -3.55171e-16 0)
(3 6.57551e-16 0)
(3 1.18231e-15 0)
(3 1.66293e-15 0)
(3 1.22539e-15 0)
(3 6.19425e-16 0)
(3 8.50802e-16 0)
(3 1.13588e-15 0)
(3 1.12442e-15 0)
(3 1.36014e-15 0)
(3 1.40072e-15 0)
(3 5.67629e-16 0)
(3 -1.92862e-16 0)
(3 -7.897e-16 0)
(3 -8.6911e-16 0)
(3 -1.05442e-15 0)
(3 -1.10575e-15 0)
(3 -9.01228e-16 0)
(3 -5.14979e-16 0)
(3 -4.04698e-17 0)
(3 5.1631e-16 0)
(3 1.20722e-15 0)
(3 1.25277e-15 0)
(3 1.40178e-15 0)
(3 1.4496e-15 0)
(3 1.60775e-15 0)
(3 1.02871e-15 0)
(3 9.67111e-16 0)
(3 -1.32999e-16 0)
(2.90248 0.0372557 0)
(0.933629 0.186332 0)
(0.598269 0.160373 0)
(0.59749 0.174916 0)
(0.59607 0.197643 0)
(0.598097 0.205543 0)
(0.598319 0.205472 0)
(0.59745 0.205613 0)
(0.595383 0.208008 0)
(0.592908 0.209581 0)
(3 -2.25954e-17 0)
(3 6.41904e-17 0)
(3 1.99213e-16 0)
(3 4.89874e-16 0)
(3 5.93403e-16 0)
(3 1.78418e-16 0)
(3 -5.73011e-16 0)
(3 -1.72255e-15 0)
(3 -1.24713e-15 0)
(3 -2.12551e-16 0)
(3 -1.94504e-16 0)
(3 -1.60294e-15 0)
(3 -1.88277e-15 0)
(3 -3.33731e-16 0)
(3 1.22677e-16 0)
(3 5.39317e-16 0)
(3 6.07064e-16 0)
(3 -7.92278e-18 0)
(3 -4.00945e-16 0)
(3 -4.55345e-16 0)
(3 -3.33777e-16 0)
(3 5.70424e-17 0)
(3 1.18933e-17 0)
(3 2.27472e-16 0)
(3 4.21138e-16 0)
(3 8.57484e-16 0)
(3 1.34179e-15 0)
(3 1.61393e-15 0)
(3 1.73027e-15 0)
(3 1.03159e-15 0)
(3 9.06315e-16 0)
(3 6.70701e-16 0)
(3 8.36172e-16 0)
(3 1.19647e-15 0)
(3 1.46143e-15 0)
(3 1.45049e-15 0)
(3 1.18382e-15 0)
(3 1.31508e-15 0)
(3 1.0273e-15 0)
(3 9.07765e-16 0)
(3 1.44193e-15 0)
(3 1.47513e-15 0)
(3 3.30011e-15 0)
(3 3.68159e-15 0)
(3 3.89095e-15 0)
(3 4.71165e-15 0)
(3 5.20263e-15 0)
(3 5.46862e-15 0)
(3 3.90163e-15 0)
(3 2.07526e-15 0)
(3 1.60504e-15 0)
(3 1.56915e-15 0)
(3 1.32371e-15 0)
(3 5.87969e-16 0)
(3 -3.00495e-16 0)
(3 -5.69792e-16 0)
(3 -1.22217e-16 0)
(3 5.27627e-16 0)
(3 1.22115e-15 0)
(3 2.28209e-15 0)
(3 1.57926e-15 0)
(3 9.00087e-16 0)
(3 8.25187e-16 0)
(3 9.94078e-16 0)
(3 1.33656e-15 0)
(3 9.62083e-16 0)
(3 1.12608e-15 0)
(3 7.62417e-16 0)
(3 4.85522e-16 0)
(3 -2.1717e-16 0)
(3 -4.0766e-16 0)
(3 -1.00381e-15 0)
(3 -5.14005e-16 0)
(3 -7.07969e-16 0)
(3 -3.27124e-16 0)
(3 4.87899e-17 0)
(3 -6.55457e-17 0)
(3 2.73868e-16 0)
(3 1.01501e-15 0)
(3 1.48334e-15 0)
(3 1.62508e-15 0)
(3 2.48155e-15 0)
(3 2.90798e-15 0)
(3 2.12672e-15 0)
(3 1.51158e-15 0)
(3 -1.51936e-15 0)
(2.99736 0.0026631 0)
(1.04527 0.189713 0)
(0.611483 0.168804 0)
(0.605877 0.193908 0)
(0.603126 0.209491 0)
(0.602078 0.209313 0)
(0.601319 0.206937 0)
(0.599211 0.207508 0)
(0.596724 0.209111 0)
(0.594505 0.209521 0)
(3 2.47951e-16 0)
(3 6.64147e-16 0)
(3 6.37582e-16 0)
(3 9.84965e-16 0)
(3 6.30005e-16 0)
(3 1.69725e-16 0)
(3 -1.99497e-16 0)
(3 -5.92176e-16 0)
(3 -1.12524e-15 0)
(3 -1.47171e-15 0)
(3 -1.45082e-15 0)
(3 -8.62857e-16 0)
(3 -7.3979e-16 0)
(3 -7.20484e-16 0)
(3 5.29083e-16 0)
(3 4.06297e-16 0)
(3 -2.23546e-16 0)
(3 -2.65713e-16 0)
(3 -1.20374e-15 0)
(3 -1.61974e-15 0)
(3 -1.87639e-15 0)
(3 -1.81094e-15 0)
(3 -1.37231e-15 0)
(3 -7.5301e-16 0)
(3 -5.55046e-16 0)
(3 -2.90212e-16 0)
(3 2.23233e-16 0)