/*--------------------------------*- C++ -*----------------------------------*\
  =========                 |
  \\      /  F ield         | OpenFOAM: The Open Source CFD Toolbox
   \\    /   O peration     | Website:  https://openfoam.org
    \\  /    A nd           | Version:  7
     \\/     M anipulation  |
\*---------------------------------------------------------------------------*/
FoamFile
{
    version     2.0;
    format      ascii;
    class       volVectorField;
    location    "1.8";
    object      U;
}
// * * * * * * * * * * * * * * * * * * * * * * * * * * * * * * * * * * * * * //

dimensions      [0 1 -1 0 0 0 0];

internalField   nonuniform List<vector> 
73728
(
(3 1.05779e-17 0)
(3 1.12918e-17 0)
(3 -2.69995e-17 0)
(3 2.63327e-17 0)
(3 1.15332e-16 0)
(3 2.17507e-16 0)
(3 1.52984e-16 0)
(3 -9.41791e-17 0)
(3 -1.58796e-16 0)
(3 -4.99359e-16 0)
(3 -5.10443e-16 0)
(3 -3.6243e-16 0)
(3 -3.71088e-16 0)
(3 -1.07895e-15 0)
(3 -9.99501e-16 0)
(3 -2.75471e-16 0)
(3 1.13751e-16 0)
(3 8.39058e-16 0)
(3 5.98784e-16 0)
(3 -9.78753e-16 0)
(3 -1.2253e-15 0)
(3 -1.39731e-15 0)
(3 -1.03848e-15 0)
(3 -4.80568e-16 0)
(3 8.56506e-17 0)
(3 1.29082e-16 0)
(3 -1.43052e-16 0)
(3 -6.81448e-16 0)
(3 -1.26856e-16 0)
(3 4.36685e-16 0)
(3 2.98454e-16 0)
(3 -1.21589e-17 0)
(3 2.71964e-16 0)
(3 4.10806e-16 0)
(3 3.45889e-16 0)
(3 2.6457e-16 0)
(3 2.5345e-16 0)
(3 1.25182e-16 0)
(3 -1.13473e-16 0)
(3 -2.91803e-16 0)
(3 4.93995e-17 0)
(3 3.9768e-16 0)
(3 6.42633e-16 0)
(3 5.30786e-16 0)
(3 1.19518e-15 0)
(3 2.11922e-15 0)
(3 2.79192e-15 0)
(3 1.92863e-15 0)
(3 1.69986e-15 0)
(3 1.26387e-15 0)
(3 1.48325e-15 0)
(3 2.00904e-15 0)
(3 2.53589e-15 0)
(3 2.06723e-15 0)
(3 1.30154e-15 0)
(3 6.87467e-16 0)
(3 -7.49714e-17 0)
(3 -3.59624e-16 0)
(3 2.79127e-16 0)
(3 1.18075e-15 0)
(3 1.09908e-15 0)
(3 4.88337e-16 0)
(3 -1.274e-15 0)
(3 -1.66735e-15 0)
(3 -2.17236e-15 0)
(3 -2.28619e-15 0)
(3 -1.74189e-15 0)
(3 -1.37092e-15 0)
(3 -9.61846e-16 0)
(3 -9.67849e-16 0)
(3 -8.98643e-16 0)
(3 3.04747e-16 0)
(3 1.13133e-15 0)
(3 1.31013e-15 0)
(3 -5.14777e-16 0)
(3 -5.75244e-16 0)
(3 -8.19187e-16 0)
(3 -8.03672e-16 0)
(3 -9.77771e-16 0)
(3 -1.17451e-16 0)
(3 -6.73358e-17 0)
(3 7.58877e-18 0)
(3 9.97529e-18 0)
(3 2.11544e-16 0)
(3 4.82088e-16 0)
(3 1.61848e-16 0)
(3 -3.05117e-16 0)
(3 -6.90071e-16 0)
(3 -1.5352e-15 0)
(3 -1.09808e-15 0)
(3 -2.85617e-16 0)
(3 -9.06537e-17 0)
(3 1.77576e-16 0)
(3 1.14259e-16 0)
(3 5.29808e-16 0)
(3 2.82513e-16 0)
(3 -2.89024e-18 0)
(3 -3.1243e-17 0)
(3 1.64868e-17 0)
(3 1.69157e-17 0)
(3 -4.26808e-17 0)
(3 -7.13314e-17 0)
(3 -3.22807e-16 0)
(3 8.42804e-17 0)
(3 4.24772e-16 0)
(3 -7.20535e-17 0)
(3 -6.3536e-16 0)
(3 -4.15815e-16 0)
(3 -5.40087e-16 0)
(3 -1.08247e-15 0)
(3 -1.06169e-15 0)
(3 -9.9561e-16 0)
(3 -1.99306e-16 0)
(3 6.16393e-16 0)
(3 3.31018e-16 0)
(3 -1.7796e-15 0)
(3 -3.3312e-15 0)
(3 -3.88042e-15 0)
(3 -3.92859e-15 0)
(3 -2.68994e-15 0)
(3 -8.18655e-16 0)
(3 7.58286e-16 0)
(3 1.00348e-15 0)
(3 4.91627e-16 0)
(3 4.94611e-16 0)
(3 3.27281e-16 0)
(3 1.55947e-16 0)
(3 2.08407e-16 0)
(3 4.50236e-16 0)
(3 9.59977e-16 0)
(3 8.92762e-16 0)
(3 4.70166e-16 0)
(3 2.19187e-16 0)
(3 -1.45804e-16 0)
(3 -6.18726e-16 0)
(3 -1.3429e-15 0)
(3 -1.28089e-15 0)
(3 4.69867e-16 0)
(3 1.15593e-15 0)
(3 1.70523e-15 0)
(3 2.98366e-15 0)
(3 3.57781e-15 0)
(3 3.62265e-15 0)
(3 2.41281e-15 0)
(3 1.02722e-15 0)
(3 1.20389e-15 0)
(3 2.17824e-15 0)
(3 2.89019e-15 0)
(3 3.1322e-15 0)
(3 1.4575e-15 0)
(3 9.63622e-16 0)
(3 4.33956e-17 0)
(3 -4.69969e-16 0)
(3 -4.10704e-16 0)
(3 2.23506e-16 0)
(3 9.94695e-16 0)
(3 -2.10097e-16 0)
(3 -1.9693e-15 0)
(3 -3.01218e-15 0)
(3 -3.39718e-15 0)
(3 -3.58843e-15 0)
(3 -3.48424e-15 0)
(3 -2.36276e-15 0)
(3 -1.82232e-15 0)
(3 -1.88324e-15 0)
(3 -1.39501e-15 0)
(3 -2.86896e-16 0)
(3 2.61922e-15 0)
(3 3.65948e-15 0)
(3 3.16812e-15 0)
(3 5.72527e-16 0)
(3 -3.97242e-17 0)
(3 -4.91506e-16 0)
(3 -6.13881e-16 0)
(3 -1.01034e-15 0)
(3 -3.60611e-16 0)
(3 6.94513e-17 0)
(3 -8.45454e-17 0)
(3 -6.06482e-17 0)
(3 9.53532e-16 0)
(3 1.8395e-15 0)
(3 1.41615e-15 0)
(3 6.2008e-16 0)
(3 -9.93501e-16 0)
(3 -2.83769e-15 0)
(3 -2.62166e-15 0)
(3 -8.81915e-16 0)
(3 -6.8294e-16 0)
(3 -5.34569e-16 0)
(3 -7.09406e-16 0)
(3 -8.35571e-16 0)
(3 -1.41047e-15 0)
(3 -1.93319e-17 0)
(3 -7.84924e-17 0)
(3 -4.78636e-17 0)
(3 -1.75307e-16 0)
(3 -1.74458e-16 0)
(3 -2.35691e-16 0)
(3 -1.68864e-16 0)
(3 2.11327e-16 0)
(3 8.44144e-16 0)
(3 5.23874e-17 0)
(3 -8.27161e-16 0)
(3 -7.99207e-16 0)
(3 -5.65196e-16 0)
(3 -2.21978e-16 0)
(3 -2.60087e-16 0)
(3 -2.18315e-16 0)
(3 -8.34341e-17 0)
(3 3.97022e-17 0)
(3 3.55725e-16 0)
(3 -6.17357e-18 0)
(3 -1.0973e-15 0)
(3 -2.0569e-15 0)
(3 -1.98222e-15 0)
(3 -2.29139e-15 0)
(3 -1.88313e-15 0)
(3 1.97694e-16 0)
(3 1.40583e-15 0)
(3 1.01704e-15 0)
(3 -1.89634e-16 0)
(3 -1.0624e-15 0)
(3 -6.63323e-16 0)
(3 4.78282e-16 0)
(3 5.55469e-16 0)
(3 1.16868e-15 0)
(3 1.65831e-15 0)
(3 9.72639e-16 0)
(3 2.78307e-16 0)
(3 -1.28602e-16 0)
(3 -7.32192e-16 0)
(3 -5.7853e-16 0)
(3 -6.29922e-16 0)
(3 3.52127e-16 0)
(3 7.28275e-16 0)
(3 2.99612e-15 0)
(3 3.87407e-15 0)
(3 3.7246e-15 0)
(3 2.49662e-15 0)
(3 2.54676e-15 0)
(3 2.42019e-15 0)
(3 2.74257e-15 0)
(3 3.19044e-15 0)
(3 3.42955e-15 0)
(3 2.83572e-15 0)
(3 8.24435e-16 0)
(3 -6.36998e-17 0)
(3 3.47285e-16 0)
(3 6.41957e-16 0)
(3 6.90261e-16 0)
(3 8.18787e-16 0)
(3 3.90084e-16 0)
(3 -1.39745e-15 0)
(3 -1.97185e-15 0)
(3 -2.00794e-15 0)
(3 -2.26624e-15 0)
(3 -2.07896e-15 0)
(3 -1.98735e-15 0)
(3 -1.24707e-15 0)
(3 -1.00467e-15 0)
(3 -1.27417e-15 0)
(3 -6.56061e-16 0)
(3 1.84371e-15 0)
(3 2.7777e-15 0)
(3 2.74712e-15 0)
(3 2.01006e-15 0)
(3 1.58915e-15 0)
(3 -1.47809e-16 0)
(3 -8.04767e-16 0)
(3 -5.9139e-16 0)
(3 -1.83228e-15 0)
(3 -1.3131e-15 0)
(3 -8.3882e-16 0)
(3 1.53171e-16 0)
(3 1.8424e-16 0)
(3 4.57806e-16 0)
(3 5.30519e-16 0)
(3 6.1339e-16 0)
(3 7.01047e-17 0)
(3 -1.16399e-15 0)
(3 -1.98077e-15 0)
(3 -2.3751e-15 0)
(3 -1.96602e-15 0)
(3 -9.55051e-16 0)
(3 -1.22207e-15 0)
(3 -2.45009e-15 0)
(3 -3.12377e-15 0)
(3 -1.84949e-15 0)
(3 1.94668e-17 0)
(3 8.02176e-17 0)
(3 1.35469e-16 0)
(3 3.86122e-16 0)
(3 3.62848e-16 0)
(3 1.20824e-16 0)
(3 3.82218e-16 0)
(3 -4.51189e-17 0)
(3 -5.99621e-16 0)
(3 -8.22953e-16 0)
(3 -1.3633e-15 0)
(3 -1.72882e-15 0)
(3 -1.26904e-15 0)
(3 -9.06997e-16 0)
(3 -2.26135e-16 0)
(3 1.66089e-16 0)
(3 6.25627e-17 0)
(3 5.7125e-17 0)
(3 -1.33458e-17 0)
(3 2.05364e-17 0)
(3 -8.13354e-16 0)
(3 -9.63721e-16 0)
(3 -1.20662e-15 0)
(3 -1.67721e-15 0)
(3 -1.47536e-15 0)
(3 -4.7848e-16 0)
(3 -5.07183e-16 0)
(3 -1.12876e-15 0)
(3 -1.92767e-15 0)
(3 -1.99647e-15 0)
(3 -1.28136e-15 0)
(3 -6.84683e-16 0)
(3 -5.89126e-16 0)
(3 -1.20461e-15 0)
(3 -1.11748e-15 0)
(3 -8.09662e-16 0)
(3 -1.07517e-15 0)
(3 -9.88347e-16 0)
(3 -4.46047e-16 0)
(3 1.66889e-15 0)
(3 9.36104e-16 0)
(3 1.4041e-16 0)
(3 6.67662e-16 0)
(3 1.95522e-15 0)
(3 3.25687e-15 0)
(3 4.24096e-15 0)
(3 3.39162e-15 0)
(3 2.74532e-15 0)
(3 2.72624e-15 0)
(3 2.68117e-15 0)
(3 3.20305e-15 0)
(3 3.36395e-15 0)
(3 3.03682e-15 0)
(3 2.24823e-15 0)
(3 1.98518e-15 0)
(3 9.66796e-16 0)
(3 5.41995e-16 0)
(3 5.0827e-16 0)
(3 -2.493e-16 0)
(3 -2.08251e-15 0)
(3 -2.48669e-15 0)
(3 -2.23288e-15 0)
(3 -2.05446e-15 0)
(3 -1.33339e-15 0)
(3 -1.14956e-15 0)
(3 -9.42603e-16 0)
(3 -7.05879e-16 0)
(3 8.43899e-16 0)
(3 2.23573e-15 0)
(3 2.31854e-15 0)
(3 2.02607e-15 0)
(3 1.75744e-15 0)
(3 1.66573e-15 0)
(3 1.40094e-15 0)
(3 9.01017e-16 0)
(3 1.00553e-16 0)
(3 -8.22527e-16 0)
(3 -1.70376e-15 0)
(3 -1.79227e-15 0)
(3 -1.26504e-15 0)
(3 -2.02776e-16 0)
(3 8.74693e-16 0)
(3 1.01772e-15 0)
(3 -3.05591e-16 0)
(3 -5.88649e-16 0)
(3 -2.20765e-16 0)
(3 -4.40249e-16 0)
(3 -1.00032e-15 0)
(3 -1.68973e-15 0)
(3 -2.0954e-15 0)
(3 -2.88053e-15 0)
(3 -3.40064e-15 0)
(3 -2.42533e-15 0)
(3 -2.33962e-15 0)
(3 -2.11944e-15 0)
(3 -1.87193e-15 0)
(3 1.37748e-16 0)
(3 7.56015e-16 0)
(3 8.75945e-16 0)
(3 9.23153e-16 0)
(3 5.80626e-16 0)
(3 2.24558e-16 0)
(3 1.45479e-16 0)
(3 2.52569e-16 0)
(3 1.85392e-17 0)
(3 -4.07112e-16 0)
(3 -5.13299e-16 0)
(3 -6.65822e-16 0)
(3 -6.07926e-16 0)
(3 -6.12851e-16 0)
(3 -6.03805e-16 0)
(3 2.15578e-16 0)
(3 3.62182e-16 0)
(3 -2.66101e-16 0)
(3 -7.92841e-16 0)
(3 -8.67471e-16 0)
(3 -8.71631e-16 0)
(3 -6.79409e-16 0)
(3 -1.07585e-15 0)
(3 -1.32938e-15 0)
(3 -1.50832e-15 0)
(3 -2.16563e-15 0)
(3 -2.62127e-15 0)
(3 -1.86336e-15 0)
(3 -1.71586e-15 0)
(3 -1.10324e-15 0)
(3 -7.18654e-16 0)
(3 -6.01141e-16 0)
(3 -9.26917e-16 0)
(3 -2.52127e-15 0)
(3 -3.36411e-15 0)
(3 -3.13436e-15 0)
(3 -2.45427e-15 0)
(3 -1.76003e-15 0)
(3 -1.41464e-17 0)
(3 5.08672e-16 0)
(3 -2.04226e-16 0)
(3 -1.01245e-15 0)
(3 -6.93185e-16 0)
(3 5.34238e-16 0)
(3 2.30876e-15 0)
(3 3.3412e-15 0)
(3 2.76956e-15 0)
(3 1.05162e-15 0)
(3 -2.71894e-16 0)
(3 -5.05739e-16 0)
(3 9.9358e-16 0)
(3 1.70836e-15 0)
(3 2.20729e-15 0)
(3 2.88021e-15 0)
(3 3.36175e-15 0)
(3 2.61718e-15 0)
(3 7.53795e-16 0)
(3 3.81298e-16 0)
(3 -7.95135e-16 0)
(3 -1.77912e-15 0)
(3 -1.67859e-15 0)
(3 -1.73598e-15 0)
(3 -2.68112e-15 0)
(3 -2.66179e-15 0)
(3 -2.26101e-15 0)
(3 -1.04887e-15 0)
(3 -3.63624e-16 0)
(3 7.84325e-16 0)
(3 1.74607e-15 0)
(3 1.94168e-15 0)
(3 1.54778e-15 0)
(3 1.35851e-15 0)
(3 1.22366e-15 0)
(3 1.02918e-15 0)
(3 4.49315e-16 0)
(3 8.92044e-16 0)
(3 1.14522e-15 0)
(3 -6.59487e-16 0)
(3 -6.83173e-16 0)
(3 -1.5367e-15 0)
(3 -5.07495e-16 0)
(3 2.63389e-16 0)
(3 8.24081e-17 0)
(3 -1.11298e-15 0)
(3 -1.33328e-15 0)
(3 -1.32838e-15 0)
(3 -1.17573e-15 0)
(3 -1.32786e-15 0)
(3 -1.67241e-15 0)
(3 -2.33643e-15 0)
(3 -2.81701e-15 0)
(3 -2.90342e-15 0)
(3 -2.0347e-15 0)
(3 -1.32299e-15 0)
(3 -1.64246e-15 0)
(3 -4.64706e-16 0)
(3 -2.56438e-17 0)
(3 -1.21214e-16 0)
(3 -2.76084e-16 0)
(3 -2.03678e-16 0)
(3 1.8221e-16 0)
(3 1.85568e-16 0)
(3 -4.48447e-16 0)
(3 -5.90937e-16 0)
(3 -3.40289e-17 0)
(3 -1.38466e-16 0)
(3 -1.32687e-16 0)
(3 3.15753e-17 0)
(3 4.05443e-16 0)
(3 4.87268e-16 0)
(3 6.41404e-16 0)
(3 9.50529e-16 0)
(3 4.92794e-16 0)
(3 -1.14547e-16 0)
(3 -1.22542e-15 0)
(3 -1.49427e-15 0)
(3 -1.42023e-15 0)
(3 -8.58533e-16 0)
(3 -4.12643e-16 0)
(3 -5.21541e-16 0)
(3 -5.10722e-16 0)
(3 -1.92285e-15 0)
(3 -2.65627e-15 0)
(3 -1.9175e-15 0)
(3 -2.45742e-16 0)
(3 1.99913e-17 0)
(3 -5.87832e-17 0)
(3 -7.78701e-17 0)
(3 -1.26431e-15 0)
(3 -3.68183e-15 0)
(3 -3.93655e-15 0)
(3 -3.30296e-15 0)
(3 -2.16831e-15 0)
(3 -1.18489e-15 0)
(3 -5.69322e-16 0)
(3 -3.9643e-16 0)
(3 -2.10605e-16 0)
(3 4.86601e-16 0)
(3 1.42983e-15 0)
(3 2.32656e-15 0)
(3 2.72917e-15 0)
(3 2.23072e-15 0)
(3 1.58199e-15 0)
(3 6.85246e-16 0)
(3 -5.33465e-18 0)
(3 -6.47081e-16 0)
(3 -6.82738e-16 0)
(3 2.56502e-16 0)
(3 1.37058e-15 0)
(3 2.92521e-15 0)
(3 3.31025e-15 0)
(3 2.91753e-15 0)
(3 2.02949e-15 0)
(3 1.86845e-16 0)
(3 -1.11485e-15 0)
(3 -1.68968e-15 0)
(3 -1.84122e-15 0)
(3 -2.40692e-15 0)
(3 -3.4271e-15 0)
(3 -3.78033e-15 0)
(3 -3.39301e-15 0)
(3 -2.17412e-15 0)
(3 -1.16294e-15 0)
(3 -9.50654e-16 0)
(3 3.83762e-16 0)
(3 1.03513e-15 0)
(3 1.48418e-15 0)
(3 1.90909e-15 0)
(3 5.73082e-16 0)
(3 -1.78683e-16 0)
(3 4.28084e-17 0)
(3 9.37183e-16 0)
(3 1.51579e-15 0)
(3 8.63242e-16 0)
(3 7.10718e-17 0)
(3 -1.09463e-15 0)
(3 -1.6107e-15 0)
(3 -9.46932e-16 0)
(3 -1.50207e-16 0)
(3 -1.79124e-15 0)
(3 -2.1088e-15 0)
(3 -2.53378e-15 0)
(3 -2.17185e-15 0)
(3 -2.02265e-15 0)
(3 -2.33435e-15 0)
(3 -2.97659e-15 0)
(3 -3.08749e-15 0)
(3 -2.13107e-15 0)
(3 -1.26272e-15 0)
(3 -1.8952e-15 0)
(3 -2.26755e-15 0)
(3 -2.01092e-15 0)
(3 -2.34709e-16 0)
(3 -6.24097e-16 0)
(3 -4.16988e-16 0)
(3 -2.46052e-16 0)
(3 -2.44653e-16 0)
(3 -1.91408e-16 0)
(3 5.48921e-17 0)
(3 -5.75289e-16 0)
(3 -6.08322e-16 0)
(3 -4.34028e-16 0)
(3 3.1e-17 0)
(3 3.85121e-16 0)
(3 3.52171e-16 0)
(3 4.72129e-16 0)
(3 5.88824e-16 0)
(3 3.01102e-16 0)
(3 2.97335e-18 0)
(3 -2.92764e-17 0)
(3 -1.9765e-16 0)
(3 -1.18705e-15 0)
(3 -9.23095e-16 0)
(3 -5.17845e-16 0)
(3 -4.92816e-16 0)
(3 7.37834e-16 0)
(3 1.65377e-15 0)
(3 1.26842e-15 0)
(3 5.77333e-16 0)
(3 1.37356e-16 0)
(3 -5.30739e-17 0)
(3 -6.18468e-17 0)
(3 -1.48068e-17 0)
(3 -7.84414e-16 0)
(3 -2.56341e-15 0)
(3 -3.41551e-15 0)
(3 -2.36337e-15 0)
(3 -1.20578e-15 0)
(3 -1.02438e-15 0)
(3 -4.48328e-16 0)
(3 -1.30038e-16 0)
(3 7.40885e-17 0)
(3 6.67272e-16 0)
(3 2.38556e-15 0)
(3 2.75209e-15 0)
(3 3.04622e-15 0)
(3 1.95923e-15 0)
(3 5.61076e-16 0)
(3 3.3101e-16 0)
(3 9.82699e-16 0)
(3 1.6769e-15 0)
(3 1.20902e-15 0)
(3 8.28112e-17 0)
(3 -1.47989e-16 0)
(3 8.38474e-16 0)
(3 1.32189e-15 0)
(3 8.92367e-16 0)
(3 7.16359e-16 0)
(3 5.43111e-16 0)
(3 1.09648e-15 0)
(3 -4.38699e-16 0)
(3 -1.89878e-15 0)
(3 -2.59544e-15 0)
(3 -3.38375e-15 0)
(3 -3.60965e-15 0)
(3 -3.25723e-15 0)
(3 -3.00472e-15 0)
(3 -2.47113e-15 0)
(3 -1.42682e-15 0)
(3 -9.50755e-16 0)
(3 -7.69668e-16 0)
(3 1.85773e-16 0)
(3 6.01422e-16 0)
(3 5.16119e-16 0)
(3 2.50937e-16 0)
(3 6.84308e-16 0)
(3 2.21889e-15 0)
(3 2.15424e-15 0)
(3 2.4248e-15 0)
(3 1.95729e-15 0)
(3 6.1107e-16 0)
(3 -2.19127e-16 0)
(3 8.7909e-17 0)
(3 1.56307e-16 0)
(3 8.55753e-16 0)
(3 -8.67165e-16 0)
(3 -2.41279e-15 0)
(3 -2.55011e-15 0)
(3 -2.68603e-15 0)
(3 -2.64414e-15 0)
(3 -2.85473e-15 0)
(3 -3.0584e-15 0)
(3 -2.69879e-15 0)
(3 -2.33459e-15 0)
(3 -2.41403e-15 0)
(3 -2.88586e-15 0)
(3 -3.46785e-15 0)
(3 -3.56998e-15 0)
(3 -9.88156e-18 0)
(3 9.41058e-17 0)
(3 1.73707e-16 0)
(3 -4.61588e-16 0)
(3 -8.07978e-16 0)
(3 -3.42747e-16 0)
(3 9.07302e-17 0)
(3 1.42386e-16 0)
(3 -1.32714e-17 0)
(3 2.59559e-16 0)
(3 5.39836e-16 0)
(3 1.27802e-15 0)
(3 1.34942e-15 0)
(3 1.01648e-15 0)
(3 -4.89292e-16 0)
(3 -1.13148e-15 0)
(3 -1.19047e-15 0)
(3 -5.62354e-16 0)
(3 3.60082e-16 0)
(3 7.45335e-16 0)
(3 1.77916e-15 0)
(3 1.95168e-15 0)
(3 1.47741e-15 0)
(3 1.65758e-15 0)
(3 1.68587e-15 0)
(3 1.68804e-15 0)
(3 1.611e-15 0)
(3 1.20569e-15 0)
(3 4.22927e-16 0)
(3 -3.36332e-16 0)
(3 -6.33528e-16 0)
(3 -1.40526e-15 0)
(3 -2.66086e-15 0)
(3 -2.0078e-15 0)
(3 -6.30647e-16 0)
(3 -7.96828e-16 0)
(3 -3.4126e-16 0)
(3 -5.16546e-16 0)
(3 -3.11411e-16 0)
(3 -1.77109e-16 0)
(3 -2.49033e-17 0)
(3 -4.24592e-17 0)
(3 -1.86478e-16 0)
(3 -8.21204e-16 0)
(3 -1.30146e-15 0)
(3 -1.73206e-15 0)
(3 -1.06022e-15 0)
(3 1.89913e-15 0)
(3 3.93905e-15 0)
(3 3.63085e-15 0)
(3 2.80778e-15 0)
(3 1.31556e-15 0)
(3 5.81227e-16 0)
(3 -4.56205e-16 0)
(3 -1.30044e-15 0)
(3 -1.21129e-15 0)
(3 -5.63172e-16 0)
(3 7.69879e-16 0)
(3 9.54111e-16 0)
(3 -4.2785e-16 0)
(3 -1.73779e-15 0)
(3 -2.05442e-15 0)
(3 -2.3689e-15 0)
(3 -2.66807e-15 0)
(3 -2.7977e-15 0)
(3 -2.59504e-15 0)
(3 -2.2348e-15 0)
(3 -1.95903e-15 0)
(3 -2.64767e-15 0)
(3 -1.34892e-15 0)
(3 -1.02376e-15 0)
(3 -8.70723e-16 0)
(3 2.80938e-16 0)
(3 1.46122e-15 0)
(3 1.45042e-15 0)
(3 2.12355e-15 0)
(3 2.63603e-15 0)
(3 1.77512e-15 0)
(3 9.6277e-16 0)
(3 4.64698e-16 0)
(3 7.15074e-16 0)
(3 1.30612e-15 0)
(3 1.61802e-15 0)
(3 9.7523e-16 0)
(3 -1.41651e-15 0)
(3 -2.41487e-15 0)
(3 -2.62898e-15 0)
(3 -2.90262e-15 0)
(3 -3.11566e-15 0)
(3 -2.78415e-15 0)
(3 -2.3683e-15 0)
(3 -2.09457e-15 0)
(3 -2.81385e-15 0)
(3 -3.03664e-15 0)
(3 -3.69845e-15 0)
(3 -3.43755e-15 0)
(3 1.39771e-16 0)
(3 3.23449e-16 0)
(3 5.29517e-17 0)
(3 -3.2684e-17 0)
(3 -3.1231e-16 0)
(3 -5.60905e-16 0)
(3 -3.15901e-16 0)
(3 5.67619e-16 0)
(3 7.66183e-16 0)
(3 6.93684e-16 0)
(3 5.00623e-16 0)
(3 7.34046e-16 0)
(3 4.33467e-16 0)
(3 -8.78009e-16 0)
(3 -1.65052e-15 0)
(3 -1.63648e-15 0)
(3 -1.9829e-15 0)
(3 -1.28341e-15 0)
(3 6.42788e-16 0)
(3 1.22169e-15 0)
(3 1.59866e-15 0)
(3 2.1838e-15 0)
(3 2.09889e-15 0)
(3 2.20958e-15 0)
(3 2.29446e-15 0)
(3 2.51457e-15 0)
(3 2.45203e-15 0)
(3 8.01035e-16 0)
(3 -5.74782e-16 0)
(3 -8.43642e-16 0)
(3 -1.28829e-15 0)
(3 -2.26642e-15 0)
(3 -3.32436e-15 0)
(3 -2.56432e-15 0)
(3 -1.50818e-15 0)
(3 -9.8996e-16 0)
(3 -7.62042e-16 0)
(3 -1.56515e-15 0)
(3 -1.64069e-15 0)
(3 -1.09776e-15 0)
(3 -1.10267e-15 0)
(3 -1.78412e-15 0)
(3 -3.0187e-15 0)
(3 -2.93645e-15 0)
(3 -2.94271e-15 0)
(3 -2.1713e-15 0)
(3 4.70219e-17 0)
(3 1.99978e-15 0)
(3 3.51164e-15 0)
(3 3.01762e-15 0)
(3 1.44457e-15 0)
(3 1.60363e-15 0)
(3 6.06094e-16 0)
(3 -5.20232e-16 0)
(3 -1.13164e-15 0)
(3 -1.64212e-15 0)
(3 -1.21501e-15 0)
(3 -5.25012e-16 0)
(3 5.26231e-17 0)
(3 -2.11522e-16 0)
(3 -7.70785e-16 0)
(3 -1.79689e-15 0)
(3 -1.97767e-15 0)
(3 -2.41909e-15 0)
(3 -2.39654e-15 0)
(3 -2.11242e-15 0)
(3 -2.03198e-15 0)
(3 -2.49982e-15 0)
(3 -3.20553e-15 0)
(3 -2.46343e-15 0)
(3 -1.58075e-15 0)
(3 -2.44585e-17 0)
(3 1.29657e-15 0)
(3 8.81008e-16 0)
(3 9.85315e-16 0)
(3 1.22176e-15 0)
(3 8.51979e-16 0)
(3 3.62052e-16 0)
(3 -7.14359e-17 0)
(3 -1.92112e-16 0)
(3 2.27566e-16 0)
(3 5.98014e-16 0)
(3 1.52583e-15 0)
(3 -7.17737e-16 0)
(3 -1.5193e-15 0)
(3 -1.79834e-15 0)
(3 -3.31922e-15 0)
(3 -3.79743e-15 0)
(3 -2.99218e-15 0)
(3 -2.61369e-15 0)
(3 -2.30323e-15 0)
(3 -1.92191e-15 0)
(3 -2.21998e-15 0)
(3 -2.67393e-15 0)
(3 -3.06759e-15 0)
(3 -3.17089e-15 0)
(3 -3.51911e-18 0)
(3 1.03973e-16 0)
(3 -1.09395e-16 0)
(3 -4.6264e-17 0)
(3 -3.9562e-16 0)
(3 -3.56264e-16 0)
(3 1.24653e-16 0)
(3 6.37002e-16 0)
(3 7.37325e-16 0)
(3 7.40714e-16 0)
(3 5.78868e-16 0)
(3 -1.65014e-16 0)
(3 -9.67644e-16 0)
(3 -1.74281e-15 0)
(3 -2.10588e-15 0)
(3 -2.41667e-15 0)
(3 -1.03734e-15 0)
(3 9.42465e-18 0)
(3 1.58323e-16 0)
(3 4.71249e-16 0)
(3 5.22687e-16 0)
(3 8.84471e-16 0)
(3 2.04849e-15 0)
(3 2.06061e-15 0)
(3 1.59622e-15 0)
(3 1.74409e-15 0)
(3 1.57811e-15 0)
(3 5.62413e-16 0)
(3 -9.2175e-17 0)
(3 -5.22664e-16 0)
(3 -5.46851e-16 0)
(3 -6.60394e-16 0)
(3 -8.49824e-17 0)
(3 -2.12062e-16 0)
(3 -3.57027e-16 0)
(3 -3.42726e-16 0)
(3 -3.15915e-16 0)
(3 -4.1183e-16 0)
(3 -6.02176e-16 0)
(3 -1.38931e-15 0)
(3 -1.57349e-15 0)
(3 -2.01999e-15 0)
(3 -2.46451e-15 0)
(3 -2.83457e-15 0)
(3 -2.79532e-15 0)
(3 -1.85286e-15 0)
(3 -2.3708e-18 0)
(3 1.52548e-15 0)
(3 2.31317e-15 0)
(3 1.69553e-15 0)
(3 1.87909e-15 0)
(3 1.68478e-15 0)
(3 1.30998e-15 0)
(3 5.99015e-16 0)
(3 -8.99088e-17 0)
(3 -2.03068e-16 0)
(3 -7.0411e-17 0)
(3 -1.70912e-15 0)
(3 -2.42346e-15 0)
(3 -2.10912e-15 0)
(3 -1.15591e-15 0)
(3 -1.63759e-15 0)
(3 -1.57396e-15 0)
(3 -1.69176e-15 0)
(3 -1.98689e-15 0)
(3 -3.19891e-15 0)
(3 -4.10367e-15 0)
(3 -4.25871e-15 0)
(3 -3.58246e-15 0)
(3 -3.29169e-15 0)
(3 -4.8888e-16 0)
(3 1.21453e-15 0)
(3 2.33426e-15 0)
(3 1.77212e-15 0)
(3 1.85191e-15 0)
(3 1.93975e-15 0)
(3 1.66835e-15 0)
(3 9.70614e-16 0)
(3 -2.96918e-16 0)
(3 -6.70149e-18 0)
(3 -5.887e-16 0)
(3 -7.92618e-16 0)
(3 -1.26717e-15 0)
(3 -1.15348e-15 0)
(3 -7.69457e-16 0)
(3 -1.5102e-15 0)
(3 -2.89242e-15 0)
(3 -3.03494e-15 0)
(3 -2.46361e-15 0)
(3 -2.44292e-15 0)
(3 -2.5702e-15 0)
(3 -2.37572e-15 0)
(3 -2.63302e-15 0)
(3 -3.83102e-15 0)
(3 -3.73324e-15 0)
(3 -4.27673e-15 0)
(3 -1.77583e-16 0)
(3 -4.12833e-16 0)
(3 -5.00809e-16 0)
(3 -5.04123e-16 0)
(3 -6.0644e-16 0)
(3 -6.91034e-16 0)
(3 -6.67865e-16 0)
(3 -4.58231e-16 0)
(3 -1.16214e-15 0)
(3 -5.16637e-16 0)
(3 -5.56062e-16 0)
(3 -1.03765e-15 0)
(3 -8.81621e-16 0)
(3 -3.04255e-16 0)
(3 -9.79497e-17 0)
(3 9.56837e-18 0)
(3 1.15252e-15 0)
(3 8.36336e-16 0)
(3 2.46219e-16 0)
(3 8.52617e-18 0)
(3 2.68004e-16 0)
(3 1.16934e-15 0)
(3 1.36598e-15 0)
(3 8.47594e-16 0)
(3 6.20733e-16 0)
(3 4.98233e-16 0)
(3 1.41387e-15 0)
(3 2.07965e-15 0)
(3 1.828e-15 0)
(3 7.5503e-16 0)
(3 4.45141e-17 0)
(3 3.21227e-16 0)
(3 7.29315e-16 0)
(3 6.63824e-16 0)
(3 1.46365e-16 0)
(3 -5.45745e-16 0)
(3 -2.79329e-16 0)
(3 1.16149e-15 0)
(3 1.68158e-15 0)
(3 5.35083e-16 0)
(3 -6.39307e-16 0)
(3 -1.13902e-16 0)
(3 -1.7348e-17 0)
(3 -1.22081e-15 0)
(3 -1.93696e-15 0)
(3 -1.53034e-15 0)
(3 -7.32084e-16 0)
(3 7.83106e-16 0)
(3 8.06919e-16 0)
(3 2.09865e-15 0)
(3 2.67264e-15 0)
(3 9.95025e-16 0)
(3 7.58618e-16 0)
(3 7.26374e-16 0)
(3 1.05003e-15 0)
(3 1.20908e-15 0)
(3 -7.56234e-16 0)
(3 -1.84885e-15 0)
(3 -2.38583e-15 0)
(3 -2.50713e-15 0)
(3 -2.08415e-15 0)
(3 -5.59824e-16 0)
(3 -5.97556e-16 0)
(3 -4.67013e-16 0)
(3 -1.3923e-15 0)
(3 -2.33255e-15 0)
(3 -2.62872e-15 0)
(3 -1.28632e-15 0)
(3 -4.34901e-16 0)
(3 7.38432e-16 0)
(3 1.14098e-15 0)
(3 1.83008e-15 0)
(3 2.94177e-15 0)
(3 2.81916e-15 0)
(3 1.59385e-15 0)
(3 5.3264e-16 0)
(3 6.27139e-16 0)
(3 7.92379e-16 0)
(3 1.15605e-15 0)
(3 1.16594e-15 0)
(3 -2.78929e-16 0)
(3 -9.94249e-16 0)
(3 -1.29505e-15 0)
(3 -1.12778e-15 0)
(3 -1.17095e-15 0)
(3 -1.57375e-15 0)
(3 -1.13937e-15 0)
(3 -4.62188e-16 0)
(3 -1.20858e-15 0)
(3 -1.43417e-15 0)
(3 -1.50848e-15 0)
(3 -2.49418e-15 0)
(3 -3.34546e-15 0)
(3 -3.10232e-15 0)
(3 -2.37324e-15 0)
(3 -1.95907e-15 0)
(3 1.9024e-16 0)
(3 -6.017e-17 0)
(3 -1.51508e-16 0)
(3 -1.73747e-16 0)
(3 -9.0696e-17 0)
(3 -4.73607e-16 0)
(3 -9.97469e-16 0)
(3 -1.56207e-15 0)
(3 -1.72892e-15 0)
(3 -1.98867e-15 0)
(3 -1.97594e-15 0)
(3 -1.39247e-15 0)
(3 -1.21398e-16 0)
(3 1.04225e-15 0)
(3 1.43186e-15 0)
(3 1.68351e-15 0)
(3 1.85053e-15 0)
(3 2.03057e-15 0)
(3 1.53271e-15 0)
(3 3.7721e-16 0)
(3 1.35152e-16 0)
(3 3.03859e-16 0)
(3 -2.32773e-18 0)
(3 2.75891e-16 0)
(3 9.89215e-16 0)
(3 1.0324e-15 0)
(3 1.83436e-15 0)
(3 2.16572e-15 0)
(3 1.88818e-15 0)
(3 9.82211e-16 0)
(3 3.55017e-16 0)
(3 1.38965e-16 0)
(3 2.71699e-16 0)
(3 -1.65041e-16 0)
(3 3.66667e-17 0)
(3 2.90435e-16 0)
(3 4.92167e-16 0)
(3 1.00818e-15 0)
(3 1.49834e-15 0)
(3 1.3008e-15 0)
(3 1.51003e-15 0)
(3 2.16827e-15 0)
(3 1.81354e-15 0)
(3 7.3646e-16 0)
(3 4.75631e-16 0)
(3 -1.34333e-16 0)
(3 -1.18597e-16 0)
(3 -3.28823e-16 0)
(3 -4.97143e-16 0)
(3 8.15736e-16 0)
(3 1.77129e-15 0)
(3 1.89787e-15 0)
(3 2.15759e-15 0)
(3 2.53396e-15 0)
(3 3.37902e-15 0)
(3 3.38018e-15 0)
(3 8.48651e-16 0)
(3 -1.39455e-15 0)
(3 -1.99017e-15 0)
(3 -2.67063e-15 0)
(3 -2.79569e-15 0)
(3 -1.70947e-15 0)
(3 -7.23079e-16 0)
(3 4.75444e-16 0)
(3 5.71407e-16 0)
(3 5.4153e-16 0)
(3 6.87914e-16 0)
(3 1.36736e-15 0)
(3 1.65396e-15 0)
(3 1.95009e-15 0)
(3 1.80726e-15 0)
(3 1.7854e-15 0)
(3 1.67934e-15 0)
(3 2.53031e-15 0)
(3 9.13449e-16 0)
(3 4.84352e-16 0)
(3 4.93916e-16 0)
(3 9.34152e-16 0)
(3 1.94215e-15 0)
(3 1.53595e-15 0)
(3 1.78678e-17 0)
(3 -1.05041e-15 0)
(3 -9.14368e-16 0)
(3 -6.95603e-16 0)
(3 -4.10035e-16 0)
(3 -9.20089e-17 0)
(3 1.55898e-16 0)
(3 -1.83831e-16 0)
(3 -1.17199e-15 0)
(3 -1.59988e-15 0)
(3 -1.64336e-15 0)
(3 -2.10235e-15 0)
(3 -2.46778e-15 0)
(3 -1.10456e-15 0)
(3 3.80017e-16 0)
(3 1.09425e-15 0)
(3 -1.74288e-17 0)
(3 -2.82396e-17 0)
(3 -3.50926e-17 0)
(3 -1.82602e-16 0)
(3 -2.49116e-16 0)
(3 1.319e-16 0)
(3 3.59773e-17 0)
(3 -1.04631e-15 0)
(3 -8.6711e-16 0)
(3 -2.05724e-16 0)
(3 1.60808e-16 0)
(3 -2.00671e-16 0)
(3 1.73681e-17 0)
(3 3.69793e-16 0)
(3 9.6338e-16 0)
(3 1.56651e-15 0)
(3 1.53767e-15 0)
(3 1.54796e-15 0)
(3 1.51489e-15 0)
(3 1.17468e-15 0)
(3 6.10374e-16 0)
(3 -7.53539e-16 0)
(3 -1.27469e-15 0)
(3 -1.69177e-15 0)
(3 -1.6491e-15 0)
(3 -1.28587e-15 0)
(3 -3.78012e-16 0)
(3 2.90628e-16 0)
(3 8.26912e-16 0)
(3 -2.90534e-16 0)
(3 -1.05497e-15 0)
(3 -8.68738e-16 0)
(3 1.54669e-16 0)
(3 1.1445e-15 0)
(3 9.54871e-16 0)
(3 1.07447e-15 0)
(3 1.69988e-15 0)
(3 1.77974e-15 0)
(3 2.26354e-15 0)
(3 2.95989e-15 0)
(3 3.07403e-15 0)
(3 2.2464e-15 0)
(3 1.80246e-15 0)
(3 2.72233e-15 0)
(3 2.58118e-15 0)
(3 2.64953e-15 0)
(3 1.86327e-15 0)
(3 1.02664e-15 0)
(3 6.50898e-16 0)
(3 8.18082e-16 0)
(3 1.7117e-15 0)
(3 1.97427e-15 0)
(3 1.88949e-15 0)
(3 2.30068e-15 0)
(3 2.85313e-15 0)
(3 2.40279e-15 0)
(3 1.59747e-15 0)
(3 6.33398e-16 0)
(3 3.65135e-16 0)
(3 -1.27127e-15 0)
(3 -1.70102e-15 0)
(3 -1.95996e-15 0)
(3 -1.54759e-15 0)
(3 -1.22667e-15 0)
(3 -4.98785e-16 0)
(3 4.02988e-16 0)
(3 9.62001e-16 0)
(3 6.87062e-16 0)
(3 3.81691e-16 0)
(3 1.16437e-16 0)
(3 6.2858e-16 0)
(3 3.25371e-16 0)
(3 -2.41496e-16 0)
(3 -9.93347e-16 0)
(3 -1.60054e-15 0)
(3 -1.47111e-15 0)
(3 -8.28397e-16 0)
(3 5.60544e-16 0)
(3 2.66992e-15 0)
(3 2.90922e-15 0)
(3 1.40568e-15 0)
(3 7.48114e-16 0)
(3 8.8168e-16 0)
(3 1.31893e-15 0)
(3 1.83533e-15 0)
(3 1.98501e-15 0)
(3 1.22605e-15 0)
(3 -8.02891e-16 0)
(3 -1.14845e-15 0)
(3 -1.5238e-15 0)
(3 -1.83884e-15 0)
(3 -1.24279e-15 0)
(3 -1.84894e-16 0)
(3 1.22997e-15 0)
(3 2.0473e-15 0)
(3 2.68669e-15 0)
(3 -1.66674e-16 0)
(3 -1.13425e-16 0)
(3 -1.47144e-16 0)
(3 -6.14682e-16 0)
(3 -6.10958e-16 0)
(3 -1.33302e-16 0)
(3 3.00268e-16 0)
(3 7.66023e-16 0)
(3 1.01723e-15 0)
(3 1.31635e-15 0)
(3 1.29178e-15 0)
(3 3.77699e-16 0)
(3 -4.90093e-16 0)
(3 -1.29992e-16 0)
(3 6.44837e-16 0)
(3 9.47464e-16 0)
(3 1.32882e-15 0)
(3 1.32788e-15 0)
(3 1.17274e-15 0)
(3 8.44733e-16 0)
(3 2.43571e-16 0)
(3 -7.63835e-16 0)
(3 -8.6509e-16 0)
(3 -1.54115e-15 0)
(3 -1.58076e-15 0)
(3 -1.13064e-15 0)
(3 -1.21171e-15 0)
(3 -1.11345e-15 0)
(3 -3.21178e-16 0)
(3 5.6427e-16 0)
(3 -4.58996e-16 0)
(3 -2.49836e-16 0)
(3 1.46181e-15 0)
(3 2.25087e-15 0)
(3 1.97338e-15 0)
(3 5.60044e-16 0)
(3 1.59916e-15 0)
(3 2.6172e-15 0)
(3 2.82717e-15 0)
(3 3.08199e-15 0)
(3 2.96493e-15 0)
(3 2.70195e-15 0)
(3 2.93648e-15 0)
(3 3.03223e-15 0)
(3 3.16708e-15 0)
(3 3.1918e-15 0)
(3 3.42889e-15 0)
(3 3.09056e-15 0)
(3 1.83116e-15 0)
(3 9.83014e-16 0)
(3 1.04842e-15 0)
(3 1.08159e-15 0)
(3 1.21151e-15 0)
(3 1.93119e-15 0)
(3 3.01149e-15 0)
(3 2.97776e-15 0)
(3 2.24708e-15 0)
(3 1.61934e-15 0)
(3 2.69144e-15 0)
(3 2.56549e-15 0)
(3 1.08445e-15 0)
(3 2.05203e-16 0)
(3 3.00235e-16 0)
(3 4.25364e-16 0)
(3 5.95529e-16 0)
(3 1.11491e-15 0)
(3 1.25067e-15 0)
(3 9.0835e-16 0)
(3 2.75154e-16 0)
(3 -3.42512e-16 0)
(3 -4.79147e-16 0)
(3 -1.10526e-15 0)
(3 -1.45402e-15 0)
(3 -1.538e-15 0)
(3 -1.43555e-15 0)
(3 -4.98717e-16 0)
(3 1.15844e-15 0)
(3 2.0509e-15 0)
(3 3.01369e-15 0)
(3 3.16149e-15 0)
(3 3.12819e-15 0)
(3 2.50346e-15 0)
(3 1.99782e-15 0)
(3 1.89408e-15 0)
(3 2.60656e-15 0)
(3 2.73261e-15 0)
(3 1.8664e-15 0)
(3 1.25478e-15 0)
(3 1.47576e-15 0)
(3 1.45813e-15 0)
(3 9.26132e-16 0)
(3 1.17245e-15 0)
(3 1.80283e-15 0)
(3 2.10845e-15 0)
(3 2.09478e-15 0)
(3 1.63338e-15 0)
(3 1.04783e-17 0)
(3 3.26817e-17 0)
(3 -4.09249e-17 0)
(3 -5.41493e-17 0)
(3 -3.00423e-16 0)
(3 -1.31474e-16 0)
(3 3.85181e-16 0)
(3 1.22107e-15 0)
(3 1.52055e-15 0)
(3 1.2199e-15 0)
(3 4.71099e-16 0)
(3 6.65764e-16 0)
(3 1.09758e-16 0)
(3 1.9067e-16 0)
(3 5.757e-16 0)
(3 1.19007e-15 0)
(3 1.63735e-15 0)
(3 1.90908e-15 0)
(3 1.78917e-15 0)
(3 1.43748e-15 0)
(3 8.00732e-16 0)
(3 5.61192e-16 0)
(3 8.06378e-16 0)
(3 1.98263e-16 0)
(3 -1.839e-16 0)
(3 9.92413e-17 0)
(3 -1.98063e-16 0)
(3 -3.91188e-16 0)
(3 -2.42539e-16 0)
(3 6.32003e-17 0)
(3 6.44764e-16 0)
(3 8.94092e-16 0)
(3 1.41496e-15 0)
(3 1.77133e-15 0)
(3 1.94995e-15 0)
(3 1.89083e-15 0)
(3 2.2058e-15 0)
(3 3.01267e-15 0)
(3 2.83418e-15 0)
(3 2.58066e-15 0)
(3 2.25328e-15 0)
(3 1.96159e-15 0)
(3 1.92912e-15 0)
(3 1.97447e-15 0)
(3 2.04782e-15 0)
(3 1.45112e-15 0)
(3 8.19258e-16 0)
(3 1.54569e-16 0)
(3 -1.57766e-16 0)
(3 -3.65027e-16 0)
(3 2.09489e-16 0)
(3 4.15562e-16 0)
(3 1.32867e-15 0)
(3 2.26513e-15 0)
(3 3.38951e-15 0)
(3 3.457e-15 0)
(3 3.30071e-15 0)
(3 2.9869e-15 0)
(3 2.53696e-15 0)
(3 1.61105e-15 0)
(3 1.25421e-15 0)
(3 6.9522e-16 0)
(3 8.80405e-16 0)
(3 8.29598e-16 0)
(3 8.4802e-16 0)
(3 5.57392e-16 0)
(3 4.23031e-16 0)
(3 9.28376e-16 0)
(3 1.16945e-15 0)
(3 7.28579e-16 0)
(3 -5.08187e-16 0)
(3 -8.55093e-16 0)
(3 -1.17701e-15 0)
(3 -9.50743e-16 0)
(3 -4.57155e-16 0)
(3 6.86192e-16 0)
(3 1.77882e-15 0)
(3 1.93329e-15 0)
(3 1.76347e-15 0)
(3 1.87779e-15 0)
(3 1.75748e-15 0)
(3 1.33978e-15 0)
(3 1.22402e-15 0)
(3 1.51972e-15 0)
(3 1.57135e-15 0)
(3 2.20852e-15 0)
(3 2.25512e-15 0)
(3 1.63247e-15 0)
(3 1.30041e-15 0)
(3 1.73247e-15 0)
(3 2.6854e-15 0)
(3 2.91393e-15 0)
(3 3.27722e-15 0)
(3 3.36613e-15 0)
(3 2.75342e-15 0)
(3 2.62889e-15 0)
(3 -1.38905e-17 0)
(3 -1.47517e-16 0)
(3 1.34437e-16 0)
(3 6.34951e-16 0)
(3 1.27901e-15 0)
(3 1.16479e-15 0)
(3 1.4165e-15 0)
(3 1.15682e-15 0)
(3 7.28725e-16 0)
(3 4.72458e-16 0)
(3 4.14126e-16 0)
(3 -6.27033e-16 0)
(3 -5.41513e-16 0)
(3 -3.60307e-16 0)
(3 -3.63343e-16 0)
(3 -4.50333e-17 0)
(3 2.76142e-16 0)
(3 8.40506e-16 0)
(3 1.16299e-15 0)
(3 1.79341e-15 0)
(3 1.84943e-15 0)
(3 1.14325e-15 0)
(3 5.73367e-17 0)
(3 7.73539e-17 0)
(3 3.63264e-16 0)
(3 5.54418e-16 0)
(3 2.17298e-16 0)
(3 -6.34566e-17 0)
(3 -4.25163e-17 0)
(3 1.54324e-15 0)
(3 2.25712e-15 0)
(3 1.96088e-15 0)
(3 1.68371e-15 0)
(3 1.23429e-15 0)
(3 1.01119e-15 0)
(3 6.32008e-16 0)
(3 1.5349e-15 0)
(3 2.14766e-15 0)
(3 2.83109e-15 0)
(3 2.94502e-15 0)
(3 2.48376e-15 0)
(3 2.01196e-15 0)
(3 8.88073e-16 0)
(3 1.82641e-16 0)
(3 1.85297e-16 0)
(3 -2.04697e-16 0)
(3 -5.39035e-16 0)
(3 -1.20365e-16 0)
(3 -9.61658e-17 0)
(3 -6.11982e-16 0)
(3 -8.01352e-17 0)
(3 9.36349e-16 0)
(3 1.03645e-15 0)
(3 1.08045e-15 0)
(3 1.54188e-15 0)
(3 1.65276e-15 0)
(3 2.25589e-15 0)
(3 3.00024e-15 0)
(3 3.369e-15 0)
(3 2.26143e-15 0)
(3 1.24229e-15 0)
(3 1.24847e-15 0)
(3 7.82795e-16 0)
(3 6.74662e-18 0)
(3 -1.04586e-15 0)
(3 -1.42974e-15 0)
(3 -1.2608e-15 0)
(3 -6.40204e-16 0)
(3 3.49188e-16 0)
(3 5.04962e-16 0)
(3 6.52871e-17 0)
(3 -6.09359e-16 0)
(3 -1.2175e-15 0)
(3 -1.11194e-15 0)
(3 -9.15757e-17 0)
(3 -1.29013e-16 0)
(3 -1.88093e-16 0)
(3 1.53279e-16 0)
(3 2.677e-16 0)
(3 3.12477e-16 0)
(3 -8.5382e-16 0)
(3 -1.22749e-15 0)
(3 -7.87321e-16 0)
(3 -1.3307e-16 0)
(3 -4.98403e-16 0)
(3 -4.65945e-16 0)
(3 -3.04691e-17 0)
(3 2.22662e-16 0)
(3 5.26022e-16 0)
(3 1.84318e-15 0)
(3 3.62017e-15 0)
(3 4.65526e-15 0)
(3 4.73783e-15 0)
(3 4.47019e-15 0)
(3 3.67656e-15 0)
(3 2.73057e-15 0)
(3 5.28004e-18 0)
(3 3.5636e-16 0)
(3 4.907e-16 0)
(3 6.62986e-16 0)
(3 1.38447e-15 0)
(3 1.62062e-15 0)
(3 8.02337e-16 0)
(3 6.10795e-17 0)
(3 -7.95759e-17 0)
(3 1.53064e-16 0)
(3 -7.59834e-18 0)
(3 -4.58313e-16 0)
(3 -5.20036e-16 0)
(3 -7.8676e-16 0)
(3 -9.66532e-16 0)
(3 -1.25233e-15 0)
(3 -1.49627e-15 0)
(3 -1.4848e-15 0)
(3 -9.44005e-16 0)
(3 1.36197e-16 0)
(3 8.25612e-16 0)
(3 6.22257e-16 0)
(3 3.37474e-16 0)
(3 9.33549e-16 0)
(3 1.44232e-15 0)
(3 6.80981e-16 0)
(3 -1.67618e-16 0)
(3 -7.02317e-16 0)
(3 -8.95677e-16 0)
(3 1.22466e-15 0)
(3 1.97549e-15 0)
(3 1.85427e-15 0)
(3 6.7488e-16 0)
(3 -5.78836e-17 0)
(3 2.57972e-17 0)
(3 2.41964e-16 0)
(3 5.84821e-16 0)
(3 1.30655e-15 0)
(3 1.85097e-15 0)
(3 2.00864e-15 0)
(3 1.55255e-15 0)
(3 1.63585e-15 0)
(3 1.47058e-15 0)
(3 4.89003e-16 0)
(3 -2.10498e-16 0)
(3 -3.61934e-16 0)
(3 -5.69725e-16 0)
(3 -1.12621e-15 0)
(3 -2.38121e-15 0)
(3 -1.97579e-15 0)
(3 -1.2427e-15 0)
(3 -7.0311e-16 0)
(3 -6.5859e-16 0)
(3 -4.06073e-16 0)
(3 -5.07016e-16 0)
(3 -9.28605e-16 0)
(3 -1.43159e-16 0)
(3 1.57978e-15 0)