/*--------------------------------*- C++ -*----------------------------------*\
  =========                 |
  \\      /  F ield         | OpenFOAM: The Open Source CFD Toolbox
   \\    /   O peration     | Website:  https://openfoam.org
    \\  /    A nd           | Version:  7
     \\/     M anipulation  |
\*---------------------------------------------------------------------------*/
FoamFile
{
    version     2.0;
    format      ascii;
    class       volVectorField;
    location    "0.8";
    object      U;
}
// * * * * * * * * * * * * * * * * * * * * * * * * * * * * * * * * * * * * * //

dimensions      [0 1 -1 0 0 0 0];

internalField   nonuniform List<vector> 
73728
(
(3 7.02972e-18 0)
(3 -9.99712e-18 0)
(3 -3.40958e-17 0)
(3 -8.0112e-17 0)
(3 -1.86262e-16 0)
(3 2.59068e-17 0)
(3 1.6008e-16 0)
(3 8.67771e-17 0)
(3 -1.1267e-16 0)
(3 -4.74522e-16 0)
(3 -3.96902e-16 0)
(3 -3.94364e-16 0)
(3 -1.30425e-15 0)
(3 -1.91276e-15 0)
(3 -2.23781e-15 0)
(3 -1.69828e-15 0)
(3 1.08546e-17 0)
(3 2.00389e-16 0)
(3 1.64194e-15 0)
(3 1.97686e-15 0)
(3 2.13481e-15 0)
(3 2.40276e-15 0)
(3 2.18325e-15 0)
(3 1.42479e-15 0)
(3 9.37209e-16 0)
(3 2.81653e-16 0)
(3 -5.36898e-16 0)
(3 -3.12439e-16 0)
(3 -1.35097e-15 0)
(3 -2.03283e-15 0)
(3 -3.00843e-15 0)
(3 -2.49587e-15 0)
(3 -1.81081e-15 0)
(3 -1.13974e-15 0)
(3 -5.4115e-16 0)
(3 -1.93143e-16 0)
(3 -4.207e-16 0)
(3 -6.94443e-16 0)
(3 -4.32808e-16 0)
(3 -3.91151e-16 0)
(3 -9.22796e-16 0)
(3 -1.23447e-15 0)
(3 -5.38904e-16 0)
(3 -1.20781e-15 0)
(3 -2.16988e-16 0)
(3 1.00155e-15 0)
(3 1.02494e-15 0)
(3 1.55252e-15 0)
(3 -2.05505e-16 0)
(3 -6.13105e-16 0)
(3 -7.37895e-16 0)
(3 -6.02409e-16 0)
(3 -3.6526e-17 0)
(3 3.35732e-16 0)
(3 1.1064e-15 0)
(3 8.32941e-16 0)
(3 4.71445e-16 0)
(3 1.79696e-16 0)
(3 -4.34053e-16 0)
(3 -2.52704e-16 0)
(3 1.41077e-16 0)
(3 2.82544e-16 0)
(3 -2.9826e-16 0)
(3 -6.24192e-16 0)
(3 -2.03131e-16 0)
(3 -3.27609e-16 0)
(3 -6.52608e-16 0)
(3 -7.32256e-16 0)
(3 2.80906e-17 0)
(3 6.78497e-16 0)
(3 1.08833e-15 0)
(3 9.32771e-16 0)
(3 9.46826e-16 0)
(3 8.24035e-16 0)
(3 1.03222e-15 0)
(3 1.01788e-15 0)
(3 1.17133e-15 0)
(3 5.16243e-16 0)
(3 2.78277e-16 0)
(3 4.18321e-16 0)
(3 4.40051e-16 0)
(3 4.15627e-16 0)
(3 2.68991e-16 0)
(3 1.26388e-16 0)
(3 -5.01358e-17 0)
(3 5.30857e-16 0)
(3 1.88055e-15 0)
(3 2.21232e-15 0)
(3 1.41332e-15 0)
(3 3.4247e-16 0)
(3 -4.27543e-16 0)
(3 -1.54895e-15 0)
(3 -1.7065e-15 0)
(3 -1.74498e-15 0)
(3 -1.2833e-15 0)
(3 -9.4515e-16 0)
(3 1.13024e-17 0)
(3 -5.96282e-17 0)
(3 9.80945e-17 0)
(3 7.72344e-17 0)
(3 1.40898e-17 0)
(3 2.76388e-16 0)
(3 3.90373e-16 0)
(3 3.75229e-16 0)
(3 -1.96156e-16 0)
(3 -6.53952e-16 0)
(3 -1.05404e-15 0)
(3 -1.62219e-15 0)
(3 -1.72517e-15 0)
(3 -1.58276e-15 0)
(3 -2.1013e-15 0)
(3 -2.3652e-15 0)
(3 -1.33826e-15 0)
(3 1.0191e-16 0)
(3 2.19735e-15 0)
(3 2.28659e-15 0)
(3 2.29972e-15 0)
(3 2.45304e-15 0)
(3 1.96845e-15 0)
(3 4.46635e-16 0)
(3 -1.24798e-15 0)
(3 -1.29965e-15 0)
(3 -1.61151e-15 0)
(3 -1.90338e-15 0)
(3 -3.15999e-15 0)
(3 -3.29184e-15 0)
(3 -3.64058e-15 0)
(3 -3.27943e-15 0)
(3 -1.64318e-15 0)
(3 -1.33213e-15 0)
(3 -1.41354e-15 0)
(3 -1.02361e-15 0)
(3 -1.4378e-15 0)
(3 -2.04407e-15 0)
(3 -2.13734e-15 0)
(3 -2.9786e-15 0)
(3 -4.26489e-15 0)
(3 -3.50052e-15 0)
(3 -6.3589e-16 0)
(3 -4.13023e-16 0)
(3 7.12835e-16 0)
(3 2.12662e-15 0)
(3 2.89883e-15 0)
(3 2.71086e-15 0)
(3 2.07037e-15 0)
(3 5.58126e-16 0)
(3 -4.01269e-16 0)
(3 -6.7216e-16 0)
(3 -2.45644e-16 0)
(3 8.57857e-16 0)
(3 6.76221e-16 0)
(3 5.04656e-16 0)
(3 -7.14792e-16 0)
(3 -3.36193e-16 0)
(3 -1.3131e-16 0)
(3 -2.15228e-16 0)
(3 -1.14297e-16 0)
(3 -2.91019e-16 0)
(3 -1.0465e-15 0)
(3 -5.55103e-16 0)
(3 1.159e-15 0)
(3 1.07515e-15 0)
(3 6.46074e-16 0)
(3 6.0107e-16 0)
(3 1.25334e-15 0)
(3 1.87994e-15 0)
(3 2.91709e-15 0)
(3 3.76882e-15 0)
(3 4.5678e-15 0)
(3 4.90317e-15 0)
(3 4.87999e-15 0)
(3 4.13291e-15 0)
(3 4.22755e-15 0)
(3 1.88047e-15 0)
(3 8.38247e-16 0)
(3 1.27864e-15 0)
(3 1.29711e-15 0)
(3 8.80554e-16 0)
(3 -2.48701e-16 0)
(3 -1.04408e-15 0)
(3 -1.50997e-15 0)
(3 -6.63076e-16 0)
(3 9.21673e-16 0)
(3 1.74568e-15 0)
(3 1.31365e-15 0)
(3 -3.72127e-16 0)
(3 -1.61638e-15 0)
(3 -1.51676e-15 0)
(3 -1.63805e-15 0)
(3 -2.02577e-15 0)
(3 -4.34115e-15 0)
(3 -5.36541e-15 0)
(3 6.5824e-17 0)
(3 -6.42997e-17 0)
(3 1.22448e-16 0)
(3 3.56917e-16 0)
(3 5.99041e-16 0)
(3 4.10074e-16 0)
(3 -8.01605e-17 0)
(3 -3.49282e-16 0)
(3 4.22599e-17 0)
(3 -2.20821e-16 0)
(3 -1.00457e-15 0)
(3 -1.57271e-15 0)
(3 -1.57997e-15 0)
(3 -9.95477e-16 0)
(3 -2.03316e-16 0)
(3 2.25205e-16 0)
(3 1.50744e-16 0)
(3 2.55096e-17 0)
(3 7.42474e-16 0)
(3 1.60114e-15 0)
(3 2.22023e-15 0)
(3 3.62725e-15 0)
(3 3.83677e-15 0)
(3 3.44244e-15 0)
(3 1.7076e-15 0)
(3 8.68296e-16 0)
(3 1.28875e-15 0)
(3 1.03833e-15 0)
(3 -2.46405e-16 0)
(3 -7.92738e-16 0)
(3 -1.30909e-15 0)
(3 -1.27451e-15 0)
(3 -1.50956e-15 0)
(3 -1.67339e-15 0)
(3 -1.71599e-15 0)
(3 -1.57849e-15 0)
(3 -1.69802e-15 0)
(3 -2.47748e-15 0)
(3 -3.93618e-15 0)
(3 -4.22959e-15 0)
(3 -3.79843e-15 0)
(3 -5.27816e-16 0)
(3 1.6437e-15 0)
(3 3.05289e-15 0)
(3 3.29572e-15 0)
(3 3.90201e-15 0)
(3 4.10394e-15 0)
(3 4.06892e-15 0)
(3 4.46038e-15 0)
(3 4.45278e-15 0)
(3 2.04793e-15 0)
(3 5.73283e-16 0)
(3 6.10622e-17 0)
(3 -1.26472e-16 0)
(3 -3.26264e-16 0)
(3 -4.12021e-16 0)
(3 -6.38929e-16 0)
(3 -5.30306e-16 0)
(3 -3.27714e-17 0)
(3 -4.75667e-16 0)
(3 -6.06212e-16 0)
(3 -2.2557e-15 0)
(3 -2.43372e-15 0)
(3 -2.31946e-15 0)
(3 -1.66028e-15 0)
(3 -1.16772e-15 0)
(3 -1.03419e-15 0)
(3 -1.6256e-15 0)
(3 -2.45926e-15 0)
(3 -2.00081e-15 0)
(3 -1.29286e-15 0)
(3 1.83744e-15 0)
(3 2.75776e-15 0)
(3 4.60731e-15 0)
(3 4.80024e-15 0)
(3 4.21288e-15 0)
(3 3.56656e-15 0)
(3 3.06321e-15 0)
(3 2.56034e-15 0)
(3 2.53311e-15 0)
(3 4.73999e-16 0)
(3 -2.86801e-16 0)
(3 -1.00439e-15 0)
(3 -1.11758e-15 0)
(3 -4.27484e-16 0)
(3 -1.28176e-16 0)
(3 -1.42785e-16 0)
(3 -1.02916e-15 0)
(3 -1.17889e-15 0)
(3 -7.74878e-16 0)
(3 -1.15349e-15 0)
(3 -1.35244e-15 0)
(3 -2.08427e-15 0)
(3 -3.15617e-15 0)
(3 -4.63883e-15 0)
(3 -5.29338e-15 0)
(3 5.49484e-17 0)
(3 -5.81606e-17 0)
(3 -2.41979e-17 0)
(3 5.45789e-16 0)
(3 4.19619e-16 0)
(3 1.56305e-16 0)
(3 -1.35813e-16 0)
(3 -1.90593e-16 0)
(3 -7.44938e-17 0)
(3 -4.78782e-16 0)
(3 -8.38176e-16 0)
(3 -8.16942e-16 0)
(3 -5.23924e-16 0)
(3 -1.08661e-16 0)
(3 1.42873e-16 0)
(3 1.51794e-15 0)
(3 1.54924e-15 0)
(3 1.29543e-15 0)
(3 9.87235e-16 0)
(3 1.07079e-15 0)
(3 1.57811e-15 0)
(3 2.34671e-15 0)
(3 2.95892e-15 0)
(3 2.39607e-15 0)
(3 1.6825e-15 0)
(3 1.56171e-15 0)
(3 2.39166e-15 0)
(3 3.05807e-15 0)
(3 3.34845e-15 0)
(3 2.86096e-15 0)
(3 1.25202e-15 0)
(3 1.17201e-16 0)
(3 -1.84636e-16 0)
(3 7.04295e-16 0)
(3 1.14979e-15 0)
(3 1.21634e-15 0)
(3 -1.27815e-16 0)
(3 -1.54896e-15 0)
(3 -2.47205e-15 0)
(3 -2.2944e-15 0)
(3 -9.72806e-16 0)
(3 6.93923e-16 0)
(3 2.58722e-15 0)
(3 4.26507e-15 0)
(3 3.93102e-15 0)
(3 3.8826e-15 0)
(3 3.11486e-15 0)
(3 3.79558e-15 0)
(3 4.51806e-15 0)
(3 4.65395e-15 0)
(3 4.29233e-15 0)
(3 2.96656e-15 0)
(3 7.83734e-16 0)
(3 -1.4596e-15 0)
(3 -3.62446e-15 0)
(3 -3.70968e-15 0)
(3 -2.78263e-15 0)
(3 -2.36574e-15 0)
(3 -1.89919e-15 0)
(3 8.18653e-17 0)
(3 1.21404e-15 0)
(3 4.50357e-17 0)
(3 -1.72093e-15 0)
(3 -2.13882e-15 0)
(3 -2.11111e-15 0)
(3 -2.26607e-15 0)
(3 -2.4019e-15 0)
(3 -2.17558e-15 0)
(3 -2.48687e-15 0)
(3 -1.43541e-15 0)
(3 7.30991e-16 0)
(3 1.15071e-15 0)
(3 2.02054e-15 0)
(3 2.01477e-15 0)
(3 2.42318e-15 0)
(3 2.34654e-15 0)
(3 2.41339e-15 0)
(3 1.94375e-15 0)
(3 1.08528e-15 0)
(3 -7.25723e-16 0)
(3 -1.35593e-15 0)
(3 -1.55225e-15 0)
(3 -1.11827e-15 0)
(3 -9.83289e-16 0)
(3 4.65154e-16 0)
(3 1.41494e-15 0)
(3 1.36222e-15 0)
(3 5.99902e-16 0)
(3 1.01751e-15 0)
(3 5.01857e-16 0)
(3 -2.47801e-16 0)
(3 -1.1724e-15 0)
(3 -2.86176e-15 0)
(3 -3.45374e-15 0)
(3 -3.31162e-15 0)
(3 -2.59751e-15 0)
(3 -7.86901e-17 0)
(3 1.42184e-16 0)
(3 1.66313e-16 0)
(3 4.1802e-18 0)
(3 1.15817e-16 0)
(3 6.78723e-16 0)
(3 7.91244e-16 0)
(3 3.59014e-16 0)
(3 -1.69513e-16 0)
(3 -2.47445e-16 0)
(3 -5.62973e-16 0)
(3 -4.52932e-16 0)
(3 -4.34066e-16 0)
(3 8.8802e-16 0)
(3 1.00706e-15 0)
(3 9.07469e-16 0)
(3 8.62472e-16 0)
(3 5.96102e-16 0)
(3 1.23671e-15 0)
(3 1.4069e-15 0)
(3 1.4808e-15 0)
(3 2.32468e-16 0)
(3 -8.0619e-16 0)
(3 -5.27494e-16 0)
(3 8.83543e-17 0)
(3 1.4393e-15 0)
(3 1.45557e-15 0)
(3 9.32592e-16 0)
(3 7.1108e-16 0)
(3 7.31157e-16 0)
(3 2.21608e-16 0)
(3 -2.71163e-16 0)
(3 5.84599e-16 0)
(3 1.28236e-15 0)
(3 1.45074e-15 0)
(3 6.65722e-16 0)
(3 1.40613e-15 0)
(3 1.56815e-15 0)
(3 1.67123e-15 0)
(3 1.6015e-15 0)
(3 1.54856e-15 0)
(3 1.40384e-15 0)
(3 1.84375e-15 0)
(3 2.14865e-15 0)
(3 2.36198e-15 0)
(3 2.41513e-15 0)
(3 3.38694e-15 0)
(3 4.42591e-15 0)
(3 3.35078e-15 0)
(3 2.35763e-15 0)
(3 2.22834e-15 0)
(3 2.64507e-15 0)
(3 1.98021e-15 0)
(3 2.68766e-16 0)
(3 -9.63452e-16 0)
(3 -1.45256e-15 0)
(3 -1.65895e-15 0)
(3 -1.62341e-15 0)
(3 -9.1932e-16 0)
(3 -7.4306e-16 0)
(3 -7.59612e-16 0)
(3 -9.55386e-16 0)
(3 -2.26953e-15 0)
(3 -2.83565e-15 0)
(3 -3.9109e-15 0)
(3 -3.3055e-15 0)
(3 -1.99223e-15 0)
(3 -1.53617e-15 0)
(3 -1.1102e-15 0)
(3 -8.9685e-16 0)
(3 3.80431e-16 0)
(3 1.24142e-15 0)
(3 1.98652e-15 0)
(3 2.05814e-15 0)
(3 1.7302e-15 0)
(3 1.41008e-15 0)
(3 1.05652e-15 0)
(3 -1.5891e-15 0)
(3 -2.2692e-15 0)
(3 -3.36045e-15 0)
(3 -3.26087e-15 0)
(3 -3.00801e-15 0)
(3 -2.47227e-15 0)
(3 -1.90777e-15 0)
(3 -8.08151e-16 0)
(3 4.38601e-16 0)
(3 1.3683e-15 0)
(3 2.26288e-15 0)
(3 2.60313e-15 0)
(3 9.45612e-16 0)
(3 -4.46835e-16 0)
(3 -9.44832e-16 0)
(3 -1.09798e-15 0)
(3 -6.63036e-16 0)
(3 -5.67364e-16 0)
(3 7.13655e-16 0)
(3 1.34023e-16 0)
(3 8.81274e-17 0)
(3 -4.54536e-17 0)
(3 -6.01072e-16 0)
(3 -2.75503e-16 0)
(3 5.07383e-17 0)
(3 -2.03624e-16 0)
(3 -1.54514e-16 0)
(3 9.37048e-17 0)
(3 -3.20209e-17 0)
(3 -1.68168e-16 0)
(3 -4.29685e-16 0)
(3 -8.08028e-16 0)
(3 -5.66536e-16 0)
(3 -8.41727e-16 0)
(3 -8.16455e-16 0)
(3 -6.24877e-16 0)
(3 -2.17443e-16 0)
(3 3.2158e-16 0)
(3 6.87844e-16 0)
(3 4.6384e-16 0)
(3 -9.29496e-16 0)
(3 -1.86384e-15 0)
(3 -1.86984e-15 0)
(3 -1.35873e-15 0)
(3 -9.79044e-16 0)
(3 -1.52086e-15 0)
(3 -1.99201e-15 0)
(3 -2.17594e-15 0)
(3 -2.24373e-15 0)
(3 -1.23677e-15 0)
(3 -9.93295e-16 0)
(3 -6.36289e-16 0)
(3 -1.23023e-16 0)
(3 3.07045e-16 0)
(3 2.91326e-16 0)
(3 1.60693e-15 0)
(3 3.77544e-15 0)
(3 4.57196e-15 0)
(3 4.71292e-15 0)
(3 3.08918e-15 0)
(3 2.07618e-15 0)
(3 1.47951e-15 0)
(3 9.35679e-16 0)
(3 1.08992e-15 0)
(3 1.13789e-15 0)
(3 1.78424e-15 0)
(3 2.15418e-15 0)
(3 2.40741e-15 0)
(3 1.5173e-15 0)
(3 5.76858e-16 0)
(3 9.51941e-16 0)
(3 1.03706e-15 0)
(3 2.27945e-15 0)
(3 3.00511e-15 0)
(3 1.79986e-15 0)
(3 1.27373e-15 0)
(3 1.47128e-15 0)
(3 9.04056e-16 0)
(3 2.54707e-16 0)
(3 1.42202e-16 0)
(3 6.40948e-16 0)
(3 -2.55043e-16 0)
(3 -9.8793e-16 0)
(3 -2.03762e-15 0)
(3 -2.00735e-15 0)
(3 -1.17004e-15 0)
(3 -8.22921e-16 0)
(3 -3.89737e-16 0)
(3 9.35786e-16 0)
(3 1.38483e-15 0)
(3 9.26251e-16 0)
(3 -1.201e-15 0)
(3 -6.71878e-16 0)
(3 -8.72617e-16 0)
(3 -1.03559e-15 0)
(3 -1.59594e-15 0)
(3 -1.97883e-15 0)
(3 -2.37006e-15 0)
(3 -2.59196e-15 0)
(3 -2.93771e-15 0)
(3 -3.02261e-15 0)
(3 -3.72675e-15 0)
(3 -3.87756e-15 0)
(3 -2.41749e-15 0)
(3 -5.29067e-16 0)
(3 1.18826e-15 0)
(3 1.19554e-15 0)
(3 1.26349e-15 0)
(3 9.61868e-16 0)
(3 3.57772e-16 0)
(3 -9.42439e-16 0)
(3 -1.44368e-15 0)
(3 -1.27427e-15 0)
(3 -4.1541e-16 0)
(3 7.38858e-16 0)
(3 -2.89162e-17 0)
(3 -8.83246e-17 0)
(3 -5.86241e-17 0)
(3 -5.44511e-17 0)
(3 -5.6601e-17 0)
(3 -1.3694e-15 0)
(3 -1.32179e-15 0)
(3 -6.24963e-16 0)
(3 -1.5061e-16 0)
(3 -1.07598e-16 0)
(3 1.32592e-17 0)
(3 -2.74837e-16 0)
(3 -1.15934e-15 0)
(3 -2.87733e-15 0)
(3 -4.36795e-15 0)
(3 -4.5102e-15 0)
(3 -3.55583e-15 0)
(3 -2.04463e-15 0)
(3 -1.52821e-15 0)
(3 -1.51348e-15 0)
(3 -2.06205e-15 0)
(3 -2.76383e-15 0)
(3 -2.96943e-15 0)
(3 -3.00193e-15 0)
(3 -3.80684e-15 0)
(3 -3.95447e-15 0)
(3 -4.45041e-15 0)
(3 -4.01754e-15 0)
(3 -3.8567e-15 0)
(3 -2.40008e-15 0)
(3 -4.79616e-16 0)
(3 7.73228e-16 0)
(3 6.33484e-16 0)
(3 5.51333e-16 0)
(3 5.70959e-16 0)
(3 1.44825e-15 0)
(3 1.1187e-15 0)
(3 1.84378e-15 0)
(3 4.5216e-15 0)
(3 6.21595e-15 0)
(3 5.3331e-15 0)
(3 4.41156e-15 0)
(3 3.21335e-15 0)
(3 3.12428e-15 0)
(3 3.03787e-15 0)
(3 1.83132e-15 0)
(3 1.40965e-15 0)
(3 1.68523e-15 0)
(3 2.88328e-15 0)
(3 4.07593e-15 0)
(3 3.73387e-15 0)
(3 2.35346e-15 0)
(3 3.1022e-15 0)
(3 3.82689e-15 0)
(3 4.39085e-15 0)
(3 4.53773e-15 0)
(3 4.47802e-15 0)
(3 3.91371e-15 0)
(3 3.04205e-15 0)
(3 3.18218e-15 0)
(3 3.70609e-15 0)
(3 3.22293e-15 0)
(3 1.78e-15 0)
(3 6.02948e-17 0)
(3 -2.93928e-16 0)
(3 -1.19734e-15 0)
(3 -2.15064e-15 0)
(3 -1.31976e-15 0)
(3 -1.69929e-15 0)
(3 -1.0206e-15 0)
(3 -5.58826e-16 0)
(3 -1.73341e-15 0)
(3 -2.69049e-15 0)
(3 -3.35705e-15 0)
(3 -3.16722e-15 0)
(3 -3.21767e-15 0)
(3 -3.62836e-15 0)
(3 -3.64171e-15 0)
(3 -3.05773e-15 0)
(3 -1.90805e-15 0)
(3 -1.88132e-15 0)
(3 -2.16419e-15 0)
(3 -1.82311e-15 0)
(3 -1.52003e-15 0)
(3 -1.12126e-15 0)
(3 -6.44744e-16 0)
(3 -2.20064e-16 0)
(3 -1.3559e-16 0)
(3 -1.26192e-16 0)
(3 -7.7948e-17 0)
(3 3.24244e-16 0)
(3 5.00391e-16 0)
(3 7.67744e-17 0)
(3 -5.05049e-16 0)
(3 -7.2512e-16 0)
(3 -7.17056e-16 0)
(3 -1.76645e-16 0)
(3 -1.68458e-16 0)
(3 -1.13694e-16 0)
(3 2.30303e-16 0)
(3 2.93872e-17 0)
(3 -5.5346e-17 0)
(3 2.46849e-16 0)
(3 -6.34076e-17 0)
(3 -1.58746e-16 0)
(3 -1.30738e-16 0)
(3 -1.83988e-16 0)
(3 -1.30596e-16 0)
(3 -6.48191e-16 0)
(3 -1.28628e-15 0)
(3 -1.96887e-15 0)
(3 -2.10367e-15 0)
(3 -1.64108e-15 0)
(3 -1.3394e-15 0)
(3 -1.15853e-15 0)
(3 -1.73128e-15 0)
(3 -2.17704e-15 0)
(3 -2.63254e-15 0)
(3 -2.60297e-15 0)
(3 -3.04373e-15 0)
(3 -3.55831e-15 0)
(3 -3.99966e-15 0)
(3 -2.8171e-15 0)
(3 -1.46608e-15 0)
(3 -5.13787e-16 0)
(3 -3.00851e-16 0)
(3 -1.58074e-16 0)
(3 7.20083e-16 0)
(3 1.48694e-15 0)
(3 1.03297e-15 0)
(3 5.18957e-16 0)
(3 3.98902e-16 0)
(3 6.48676e-16 0)
(3 1.41365e-15 0)
(3 2.27875e-15 0)
(3 3.00204e-15 0)
(3 3.83549e-15 0)
(3 3.68666e-15 0)
(3 2.95364e-15 0)
(3 1.34672e-15 0)
(3 6.85512e-16 0)
(3 1.06034e-15 0)
(3 2.15441e-15 0)
(3 5.12086e-15 0)
(3 6.66049e-15 0)
(3 8.25055e-15 0)
(3 8.93545e-15 0)
(3 8.12448e-15 0)
(3 7.48594e-15 0)
(3 7.37813e-15 0)
(3 6.51261e-15 0)
(3 6.26468e-15 0)
(3 5.29839e-15 0)
(3 4.47416e-15 0)
(3 5.13384e-15 0)
(3 5.7495e-15 0)
(3 5.1137e-15 0)
(3 4.62322e-15 0)
(3 5.36254e-15 0)
(3 5.08821e-15 0)
(3 4.05734e-15 0)
(3 3.38716e-15 0)
(3 3.29678e-15 0)
(3 2.19231e-15 0)
(3 1.13112e-15 0)
(3 -9.94109e-16 0)
(3 -1.42115e-15 0)
(3 -1.35682e-15 0)
(3 -2.2418e-15 0)
(3 -3.24718e-15 0)
(3 -3.68731e-15 0)
(3 -3.35481e-15 0)
(3 -2.30656e-15 0)
(3 -1.54596e-15 0)
(3 -1.6948e-15 0)
(3 -2.69671e-15 0)
(3 -2.85083e-15 0)
(3 -2.76717e-15 0)
(3 -1.90176e-15 0)
(3 -1.1785e-15 0)
(3 -6.46563e-16 0)
(3 -9.31738e-16 0)
(3 -1.38003e-15 0)
(3 -1.39465e-15 0)
(3 -1.25998e-15 0)
(3 1.04049e-16 0)
(3 1.32178e-15 0)
(3 2.13838e-15 0)
(3 2.32744e-15 0)
(3 1.17503e-15 0)
(3 -1.46746e-16 0)
(3 -1.32776e-16 0)
(3 1.55858e-17 0)
(3 3.95962e-17 0)
(3 -7.4782e-17 0)
(3 -1.49432e-17 0)
(3 4.9602e-17 0)
(3 1.026e-16 0)
(3 -1.59782e-16 0)
(3 -1.13628e-16 0)
(3 -4.98933e-17 0)
(3 1.15334e-16 0)
(3 2.66445e-16 0)
(3 2.97622e-16 0)
(3 5.82489e-16 0)
(3 1.47797e-15 0)
(3 1.70249e-15 0)
(3 1.47171e-15 0)
(3 5.85967e-16 0)
(3 5.04866e-16 0)
(3 3.76676e-16 0)
(3 -1.05319e-16 0)
(3 -7.07644e-16 0)
(3 -2.35075e-15 0)
(3 -2.28308e-15 0)
(3 -2.18304e-15 0)
(3 -1.66529e-15 0)
(3 -8.20701e-16 0)
(3 1.74111e-16 0)
(3 1.65259e-15 0)
(3 1.58959e-15 0)
(3 9.30437e-16 0)
(3 1.09253e-15 0)
(3 1.16819e-15 0)
(3 7.06349e-16 0)
(3 8.27717e-16 0)
(3 1.06778e-15 0)
(3 7.77023e-16 0)
(3 2.81116e-16 0)
(3 2.47955e-16 0)
(3 -5.65594e-16 0)
(3 -2.52057e-15 0)
(3 -2.66032e-15 0)
(3 9.99497e-17 0)
(3 9.19756e-16 0)
(3 9.31046e-16 0)
(3 7.29634e-16 0)
(3 1.9623e-15 0)
(3 3.15521e-15 0)
(3 5.44504e-15 0)
(3 7.22656e-15 0)
(3 7.55572e-15 0)
(3 7.25291e-15 0)
(3 6.58879e-15 0)
(3 5.02355e-15 0)
(3 4.12786e-15 0)
(3 3.95996e-15 0)
(3 3.66593e-15 0)
(3 3.41179e-15 0)
(3 3.80019e-15 0)
(3 3.63626e-15 0)
(3 3.3118e-15 0)
(3 3.18541e-15 0)
(3 2.57089e-15 0)
(3 3.72422e-15 0)
(3 4.16984e-15 0)
(3 4.54011e-15 0)
(3 4.46232e-15 0)
(3 3.55637e-15 0)
(3 2.41083e-15 0)
(3 7.29383e-16 0)
(3 -1.2677e-15 0)
(3 -2.01008e-15 0)
(3 -2.61107e-15 0)
(3 -2.98961e-15 0)
(3 -3.90901e-15 0)
(3 -4.74851e-15 0)
(3 -3.41213e-15 0)
(3 -3.56903e-15 0)
(3 -3.46286e-15 0)
(3 -3.5167e-15 0)
(3 -3.21514e-15 0)
(3 -2.71031e-15 0)
(3 -2.29728e-15 0)
(3 -2.6539e-15 0)
(3 -2.31441e-15 0)
(3 -2.06572e-15 0)
(3 -2.85924e-15 0)
(3 -2.74442e-15 0)
(3 -3.01329e-15 0)
(3 -3.06314e-15 0)
(3 -1.54924e-15 0)
(3 2.6919e-16 0)
(3 9.69845e-16 0)
(3 1.37076e-15 0)
(3 1.59096e-15 0)
(3 2.8897e-16 0)
(3 -5.10807e-16 0)
(3 -6.02897e-17 0)
(3 5.61686e-16 0)
(3 8.02482e-16 0)
(3 6.10145e-16 0)
(3 4.84324e-16 0)
(3 1.40479e-16 0)
(3 -1.45007e-16 0)
(3 -1.32948e-16 0)
(3 -1.07137e-16 0)
(3 1.51719e-16 0)
(3 4.86616e-16 0)
(3 6.90092e-16 0)
(3 1.22867e-15 0)
(3 1.90825e-15 0)
(3 2.71962e-15 0)
(3 3.6152e-15 0)
(3 1.81538e-15 0)
(3 1.46772e-15 0)
(3 1.37889e-15 0)
(3 3.5416e-16 0)
(3 -7.90131e-16 0)
(3 -1.37925e-15 0)
(3 -6.69401e-16 0)
(3 7.61986e-16 0)
(3 1.2556e-15 0)
(3 1.61281e-15 0)
(3 1.73068e-15 0)
(3 1.24011e-15 0)
(3 1.97285e-15 0)
(3 1.91492e-15 0)
(3 1.57495e-15 0)
(3 1.50398e-15 0)
(3 9.65273e-16 0)
(3 6.25303e-16 0)
(3 4.87435e-16 0)
(3 7.32366e-16 0)
(3 2.48242e-16 0)
(3 -1.0505e-15 0)
(3 -3.02202e-15 0)
(3 -5.1752e-15 0)
(3 -3.95785e-15 0)
(3 -2.18321e-15 0)
(3 -2.04332e-16 0)
(3 1.18194e-15 0)
(3 1.59021e-15 0)
(3 2.02883e-15 0)
(3 2.59843e-15 0)
(3 3.71115e-15 0)
(3 5.09493e-15 0)
(3 6.16976e-15 0)
(3 6.34268e-15 0)
(3 6.54576e-15 0)
(3 6.51868e-15 0)
(3 5.11227e-15 0)
(3 3.30213e-15 0)
(3 3.02221e-15 0)
(3 2.9881e-15 0)
(3 2.78995e-15 0)
(3 2.72492e-15 0)
(3 1.64483e-15 0)
(3 8.13319e-16 0)
(3 6.68716e-16 0)
(3 5.83326e-16 0)
(3 1.01194e-15 0)
(3 2.24607e-15 0)
(3 2.78329e-15 0)
(3 2.7017e-15 0)
(3 2.41892e-15 0)
(3 1.41334e-15 0)
(3 6.68057e-16 0)
(3 1.99463e-16 0)
(3 -8.85978e-16 0)
(3 -1.23164e-15 0)
(3 -1.13737e-15 0)
(3 -1.46917e-15 0)
(3 -1.63679e-15 0)
(3 -2.60364e-15 0)
(3 -2.60593e-15 0)
(3 -2.75224e-15 0)
(3 -2.85233e-15 0)
(3 -2.10022e-15 0)
(3 -1.71869e-15 0)
(3 -1.83132e-15 0)
(3 -2.51597e-15 0)
(3 -3.76765e-15 0)
(3 -4.72128e-15 0)
(3 -4.70908e-15 0)
(3 -4.18455e-15 0)
(3 -4.56412e-15 0)
(3 -5.39854e-15 0)
(3 -4.40815e-15 0)
(3 -3.79853e-15 0)
(3 -2.50883e-15 0)
(3 -4.07044e-16 0)
(3 1.04258e-15 0)
(3 6.39568e-16 0)
(3 7.07882e-17 0)
(3 -6.15652e-17 0)
(3 1.72226e-17 0)
(3 4.58414e-17 0)
(3 -2.80901e-17 0)
(3 8.73704e-16 0)
(3 1.68102e-15 0)
(3 1.30166e-15 0)
(3 1.09094e-15 0)
(3 7.71345e-16 0)
(3 8.41913e-16 0)
(3 1.10544e-15 0)
(3 1.51693e-15 0)
(3 1.5266e-15 0)
(3 1.76838e-15 0)
(3 1.73043e-15 0)
(3 8.58019e-16 0)
(3 7.22795e-16 0)
(3 2.07189e-16 0)
(3 -3.05036e-17 0)
(3 7.96679e-16 0)
(3 1.51706e-15 0)
(3 3.42391e-15 0)
(3 2.95875e-15 0)
(3 2.25643e-15 0)
(3 1.7259e-15 0)
(3 1.14066e-15 0)
(3 3.5908e-17 0)
(3 7.63549e-16 0)
(3 2.3517e-15 0)
(3 3.3443e-15 0)
(3 3.00718e-15 0)
(3 3.04271e-15 0)
(3 2.38113e-15 0)
(3 1.41306e-15 0)
(3 1.05802e-15 0)
(3 5.19007e-16 0)
(3 -1.43932e-15 0)
(3 -2.97005e-15 0)
(3 -3.48853e-15 0)
(3 -2.92432e-15 0)
(3 -1.45865e-15 0)
(3 -3.75712e-16 0)
(3 -1.10236e-16 0)
(3 -5.31892e-16 0)
(3 -2.35258e-16 0)
(3 7.90076e-16 0)
(3 2.51461e-15 0)
(3 3.26224e-15 0)
(3 4.24883e-15 0)
(3 6.58271e-15 0)
(3 7.82878e-15 0)
(3 8.32329e-15 0)
(3 8.40814e-15 0)
(3 4.52368e-15 0)
(3 2.31256e-15 0)
(3 1.58555e-15 0)
(3 1.30901e-15 0)
(3 1.50296e-15 0)
(3 1.2007e-15 0)
(3 8.39538e-16 0)
(3 4.40757e-16 0)
(3 1.00266e-15 0)
(3 9.59347e-16 0)
(3 1.25462e-15 0)
(3 1.09498e-15 0)
(3 9.62015e-16 0)
(3 1.59478e-15 0)
(3 2.57394e-15 0)
(3 2.55509e-15 0)
(3 1.31484e-15 0)
(3 -1.81723e-16 0)
(3 -5.95741e-16 0)
(3 -7.18355e-16 0)
(3 -2.34106e-15 0)
(3 -3.73934e-15 0)
(3 -2.43492e-15 0)
(3 -2.1384e-15 0)
(3 -1.34895e-15 0)
(3 -1.12262e-15 0)
(3 -1.25822e-15 0)
(3 -1.0936e-15 0)
(3 -8.9411e-16 0)
(3 -1.00359e-15 0)
(3 -1.83091e-15 0)
(3 -2.68078e-15 0)
(3 -2.88506e-15 0)
(3 -2.99557e-15 0)
(3 -2.84782e-15 0)
(3 -2.06929e-15 0)
(3 -2.33875e-15 0)
(3 -2.70353e-15 0)
(3 -2.31649e-15 0)
(3 -1.44178e-15 0)
(3 8.91855e-17 0)
(3 1.85381e-15 0)
(3 3.05732e-17 0)
(3 -7.91091e-16 0)
(3 -6.34058e-16 0)
(3 -3.12126e-16 0)
(3 1.47031e-16 0)
(3 5.87293e-16 0)
(3 5.88559e-16 0)
(3 4.9586e-16 0)
(3 6.05764e-16 0)
(3 8.81791e-16 0)
(3 6.07122e-16 0)
(3 7.89653e-16 0)
(3 1.00337e-15 0)
(3 1.44319e-15 0)
(3 1.0664e-15 0)
(3 5.09064e-16 0)
(3 2.43216e-16 0)
(3 4.01961e-16 0)
(3 3.12147e-16 0)
(3 8.63308e-16 0)
(3 1.84536e-15 0)
(3 3.28076e-15 0)
(3 3.05264e-15 0)
(3 2.2877e-15 0)
(3 2.38009e-15 0)
(3 2.30974e-15 0)
(3 2.40562e-15 0)
(3 2.42828e-15 0)
(3 2.77522e-15 0)
(3 2.735e-15 0)
(3 3.20774e-15 0)
(3 4.19096e-15 0)
(3 4.19596e-15 0)
(3 3.51795e-15 0)
(3 2.83971e-15 0)
(3 1.39391e-15 0)
(3 3.53789e-16 0)
(3 -4.32374e-16 0)
(3 -7.97318e-16 0)
(3 -1.50224e-15 0)
(3 -2.12683e-15 0)
(3 -3.64717e-15 0)
(3 -2.44425e-15 0)
(3 -1.8537e-15 0)
(3 -1.31105e-16 0)
(3 1.30977e-15 0)
(3 1.24744e-15 0)
(3 1.6546e-15 0)
(3 1.38338e-15 0)
(3 6.17039e-16 0)
(3 2.40286e-15 0)
(3 4.12611e-15 0)
(3 5.29771e-15 0)
(3 5.99341e-15 0)
(3 6.55462e-15 0)
(3 6.88931e-15 0)
(3 5.06386e-15 0)
(3 2.58294e-15 0)
(3 1.06834e-15 0)
(3 2.10476e-16 0)
(3 7.12186e-17 0)
(3 4.8684e-16 0)
(3 2.8105e-16 0)
(3 3.72547e-16 0)
(3 3.62065e-16 0)
(3 4.067e-16 0)
(3 7.09203e-16 0)
(3 8.13845e-16 0)
(3 1.63976e-15 0)
(3 2.07073e-15 0)
(3 2.1195e-15 0)
(3 2.73884e-16 0)
(3 -2.08282e-16 0)
(3 -7.48193e-16 0)
(3 -2.21962e-16 0)
(3 -3.38821e-16 0)
(3 -1.27012e-16 0)
(3 7.54975e-17 0)
(3 3.38386e-16 0)
(3 1.19888e-15 0)
(3 1.11425e-15 0)
(3 1.0643e-15 0)
(3 8.81001e-16 0)
(3 5.7109e-16 0)
(3 -5.30672e-16 0)
(3 -1.64255e-15 0)
(3 -1.85591e-15 0)
(3 -3.06494e-15 0)
(3 -2.86092e-15 0)
(3 -1.34441e-15 0)
(3 -6.74709e-16 0)
(3 -7.39856e-16 0)
(3 5.72988e-16 0)
(3 6.41139e-16 0)
(3 6.39033e-16 0)
(3 1.63734e-15 0)
(3 3.93417e-17 0)
(3 6.04643e-17 0)
(3 -2.05404e-16 0)
(3 -2.42921e-16 0)
(3 9.15069e-17 0)
(3 -4.10969e-16 0)
(3 -4.07543e-16 0)
(3 -6.91496e-16 0)
(3 -7.28731e-16 0)
(3 -3.58295e-16 0)
(3 -5.23987e-16 0)
(3 -5.76776e-16 0)
(3 -3.62285e-16 0)
(3 3.83986e-16 0)
(3 7.96617e-16 0)
(3 4.70133e-16 0)
(3 4.09354e-16 0)
(3 3.27396e-16 0)
(3 6.4559e-16 0)
(3 7.66643e-16 0)
(3 9.68738e-16 0)
(3 1.18021e-15 0)
(3 1.14516e-15 0)
(3 1.33481e-15 0)
(3 2.06583e-15 0)
(3 3.06773e-15 0)
(3 3.29788e-15 0)
(3 3.2427e-15 0)
(3 3.0729e-15 0)
(3 2.95248e-15 0)
(3 2.80188e-15 0)
(3 2.59781e-15 0)
(3 1.13041e-15 0)
(3 1.47463e-16 0)
(3 -4.571e-17 0)
(3 -4.15757e-16 0)
(3 1.09601e-17 0)
(3 2.32742e-16 0)
(3 7.78765e-17 0)
(3 -5.56337e-16 0)
(3 -1.33278e-15 0)
(3 -1.63174e-15 0)
(3 -1.50443e-15 0)
(3 -1.49643e-15 0)
(3 -1.0273e-15 0)
(3 -9.41208e-19 0)
(3 -1.00364e-15 0)
(3 -9.28398e-16 0)
(3 -4.95157e-16 0)
(3 -1.05889e-15 0)
(3 -1.2625e-16 0)
(3 4.4147e-16 0)
(3 2.12722e-15 0)
(3 4.1812e-15 0)
(3 5.85487e-15 0)
(3 5.73451e-15 0)
(3 4.63825e-15 0)
(3 3.17743e-15 0)
(3 2.13567e-15 0)
(3 1.8653e-15 0)
(3 1.11976e-15 0)
(3 8.04057e-16 0)
(3 5.97228e-17 0)
(3 1.39376e-16 0)
(3 4.84055e-16 0)
(3 8.71345e-16 0)
(3 1.85259e-15 0)
(3 2.02827e-15 0)
(3 2.24093e-15 0)
(3 2.90529e-15 0)
(3 2.86392e-15 0)
(3 2.20235e-15 0)
(3 1.65322e-15 0)
(3 1.38747e-15 0)
(3 2.85595e-15 0)
(3 3.56018e-15 0)
(3 3.88356e-15 0)
(3 5.74795e-15 0)
(3 5.84907e-15 0)
(3 4.32493e-15 0)
(3 3.74746e-15 0)
(3 2.45833e-15 0)
(3 5.7299e-16 0)
(3 -7.21265e-16 0)
(3 -1.46801e-15 0)
(3 -2.75178e-15 0)
(3 -3.54622e-15 0)
(3 -3.17661e-15 0)
(3 -2.79124e-15 0)
(3 -2.45342e-15 0)
(3 -1.84948e-15 0)
(3 -1.37762e-15 0)
(3 -1.02226e-15 0)
(3 -5.7959e-16 0)
(3 -1.32345e-15 0)
(3 -1.76882e-15 0)
(3 -3.53921e-17 0)
(3 5.35888e-16 0)
(3 1.57997e-16 0)
(3 1.16239e-16 0)
(3 2.47697e-16 0)
(3 1.57206e-17 0)
(3 4.48007e-17 0)
(3 1.45096e-16 0)
(3 5.45323e-16 0)
(3 8.65736e-16 0)
(3 5.85696e-16 0)
(3 3.38669e-16 0)
(3 1.05998e-16 0)
(3 -1.29029e-17 0)
(3 1.32643e-17 0)
(3 8.52617e-17 0)
(3 3.10502e-16 0)
(3 2.24403e-16 0)
(3 3.10535e-16 0)
(3 -2.10175e-17 0)
(3 -3.88002e-16 0)
(3 -1.50003e-16 0)
(3 4.72567e-16 0)
(3 1.58478e-15 0)
(3 2.20868e-15 0)
(3 2.38914e-15 0)
(3 2.27258e-15 0)
(3 2.27504e-15 0)
(3 1.85739e-15 0)
(3 1.56485e-15 0)
(3 1.41443e-15 0)
(3 9.06864e-16 0)
(3 3.29947e-16 0)
(3 4.83882e-16 0)
(3 5.32823e-16 0)
(3 -1.121e-17 0)
(3 -6.007e-16 0)
(3 -1.02321e-15 0)
(3 -1.19289e-15 0)
(3 -1.63706e-15 0)
(3 -2.06991e-15 0)
(3 -1.44585e-15 0)
(3 -7.46509e-16 0)
(3 -1.09073e-15 0)
(3 -1.63003e-15 0)
(3 -1.54854e-15 0)
(3 -1.14114e-15 0)
(3 -2.17845e-15 0)
(3 -3.01917e-15 0)
(3 -2.18194e-15 0)
(3 -4.31162e-16 0)
(3 2.7261e-16 0)
(3 1.84308e-15 0)
(3 2.60179e-15 0)
(3 3.02568e-15 0)
(3 2.8039e-15 0)
(3 3.59538e-15 0)
(3 4.1953e-15 0)
(3 4.24198e-15 0)
(3 3.54479e-15 0)
(3 2.74144e-15 0)
(3 2.52925e-15 0)
(3 1.63434e-15 0)
(3 7.58891e-16 0)
(3 6.02626e-16 0)
(3 1.28168e-15 0)
(3 2.84379e-15 0)
(3 3.7043e-15 0)
(3 4.38747e-15 0)
(3 4.37654e-15 0)
(3 2.85612e-15 0)
(3 1.12653e-15 0)
(3 1.10775e-15 0)
(3 2.69496e-15 0)
(3 2.94643e-15 0)
(3 2.32207e-15 0)
(3 2.52448e-15 0)
(3 3.13309e-15 0)
(3 2.81499e-15 0)
(3 2.88828e-15 0)
(3 2.07794e-15 0)
(3 7.86149e-16 0)
(3 -7.98134e-16 0)
(3 -1.18927e-15 0)
(3 -1.71864e-15 0)
(3 -3.09347e-15 0)
(3 -3.71131e-15 0)
(3 -3.30106e-15 0)
(3 -2.89557e-15 0)
(3 -2.9061e-15 0)
(3 -2.90588e-15 0)
(3 -2.65956e-15 0)
(3 -2.40174e-15 0)
(3 -2.09612e-15 0)
(3 -1.66982e-15 0)
(3 -1.38789e-15 0)
(3 -2.85515e-17 0)
(3 -3.47333e-17 0)
(3 2.5712e-16 0)
(3 2.68733e-16 0)
(3 2.85023e-16 0)
(3 2.10965e-17 0)
(3 -1.7188e-16 0)
(3 -1.09491e-16 0)
(3 1.97085e-16 0)
(3 1.69647e-16 0)
(3 -4.19489e-16 0)
(3 -1.14831e-16 0)
(3 3.19099e-16 0)
(3 -9.31824e-17 0)
(3 -9.4902e-17 0)
(3 1.82391e-16 0)
(3 5.30321e-16 0)
(3 6.6013e-16 0)
(3 3.20233e-16 0)
(3 2.09814e-16 0)
(3 2.18834e-16 0)
(3 8.21908e-17 0)
(3 -5.2773e-16 0)
(3 -2.13323e-16 0)
(3 4.47672e-16 0)
(3 6.77591e-16 0)
(3 7.88326e-16 0)
(3 2.08451e-16 0)
(3 -1.56245e-15 0)
(3 -2.5305e-15 0)
(3 -3.43917e-15 0)
(3 -3.14371e-15 0)
(3 -1.95579e-15 0)
(3 -9.67848e-16 0)
(3 -4.80535e-16 0)
(3 -4.93531e-16 0)
(3 -1.58008e-15 0)
(3 -1.54317e-15 0)
(3 -6.28818e-16 0)
(3 4.83694e-16 0)
(3 9.72393e-16 0)
(3 3.86204e-16 0)
(3 -2.2816e-16 0)
(3 -9.24375e-16 0)
(3 -1.39035e-15 0)
(3 -3.07988e-15 0)
(3 -3.3108e-15 0)
(3 -3.23392e-15 0)
(3 -4.08558e-15 0)
(3 -3.3171e-15 0)
(3 -1.76329e-15 0)
(3 -1.394e-15 0)
(3 -1.94274e-15 0)
(3 -1.97138e-15 0)
(3 -2.48624e-15 0)
(3 -1.52106e-15 0)
(3 5.05955e-17 0)
(3 2.36952e-15 0)
(3 3.07628e-15 0)
(3 2.0936e-15 0)
(3 1.92126e-15 0)
(3 6.10064e-16 0)
(3 -3.96932e-16 0)
(3 -2.01603e-15 0)
(3 -2.90593e-15 0)
(3 -2.55434e-15 0)
(3 -1.78038e-15 0)
(3 -5.90236e-16 0)
(3 1.37169e-15 0)
(3 1.2608e-15 0)
(3 8.79144e-16 0)
(3 8.48023e-16 0)
(3 1.45572e-15 0)
(3 1.23138e-15 0)
(3 9.30175e-16 0)
(3 7.07481e-16 0)
(3 5.44061e-16 0)
(3 -7.6331e-16 0)
(3 -1.46535e-15 0)
(3 -1.07782e-15 0)
(3 -3.21738e-16 0)
(3 2.54042e-16 0)
(3 4.46973e-16 0)
(3 4.41083e-16 0)
(3 -3.19821e-16 0)
(3 -4.91626e-16 0)
(3 -1.76849e-15 0)
(3 -2.8666e-15 0)
(3 -2.47483e-15 0)
(3 -2.40468e-15 0)
(3 -2.2146e-15 0)
(3 -1.86899e-15 0)
(3 -2.03437e-15 0)
(3 -2.42092e-15 0)
(3 -2.22465e-15 0)
(3 -1.55909e-15 0)
(3 -2.80831e-17 0)
(3 -1.61709e-16 0)
(3 -3.41016e-16 0)
(3 -7.16897e-16 0)
(3 -1.01665e-15 0)
(3 -8.00888e-16 0)
(3 -1.00335e-15 0)
(3 -5.8178e-16 0)
(3 -9.77939e-16 0)
(3 -1.85868e-15 0)
(3 -1.42737e-15 0)
(3 -4.53173e-16 0)
(3 -2.71853e-16 0)
(3 -1.0484e-16 0)
(3 2.292e-16 0)
(3 6.78791e-16 0)
(3 9.64485e-16 0)
(3 6.66646e-16 0)
(3 9.39452e-16 0)
(3 7.50251e-16 0)
(3 5.57898e-16 0)
(3 -1.03887e-15 0)
(3 -1.45418e-15 0)
(3 -1.13966e-15 0)
(3 -8.11176e-16 0)
(3 1.78313e-16 0)
(3 -9.25209e-16 0)
(3 -1.29467e-15 0)
(3 -1.96207e-15 0)
(3 -2.39876e-15 0)
(3 -3.51574e-15 0)
(3 -4.87288e-15 0)
(3 -4.96909e-15 0)
(3 -5.17369e-15 0)
(3 -4.23654e-15 0)
(3 -2.10362e-15 0)
(3 -9.31074e-16 0)
(3 6.46794e-16 0)
(3 1.58214e-15 0)
(3 1.90541e-15 0)
(3 1.95509e-15 0)
(3 1.63231e-15 0)
(3 6.64539e-16 0)
(3 -1.0876e-15 0)
(3 -2.25584e-15 0)
(3 -3.95155e-15 0)
(3 -5.02746e-15 0)
(3 -4.24687e-15 0)
(3 -3.63013e-15 0)
(3 -4.08918e-15 0)
(3 -3.40831e-15 0)
(3 -3.8785e-15 0)
(3 -3.51229e-15 0)
(3 -3.72021e-15 0)
(3 -3.95777e-15 0)
(3 -2.7576e-15 0)
(3 -1.46258e-15 0)
(3 1.11262e-15 0)
(3 2.74097e-15 0)
(3 2.33949e-15 0)
(3 2.29255e-15 0)
(3 1.54652e-15 0)
(3 3.17986e-16 0)
(3 -1.06794e-16 0)
(3 -1.81581e-15 0)
(3 -3.97732e-15 0)
(3 -5.18861e-15 0)
(3 -4.56447e-15 0)
(3 -3.95828e-15 0)
(3 -1.73038e-15 0)
(3 -9.53035e-16 0)
(3 -7.90315e-16 0)
(3 -8.87522e-16 0)
(3 -2.20477e-15 0)
(3 -2.79527e-15 0)
(3 -2.39629e-15 0)
(3 -2.56891e-15 0)
(3 -3.3665e-15 0)
(3 -3.42948e-15 0)
(3 -3.06537e-15 0)
(3 -1.76925e-15 0)
(3 -6.10109e-16 0)
(3 -4.64439e-16 0)
(3 -1.29687e-15 0)
(3 -7.85804e-16 0)
(3 1.87939e-15 0)
(3 2.17649e-15 0)
(3 2.67659e-18 0)
(3 1.67658e-16 0)
(3 9.56143e-16 0)
(3 1.25709e-15 0)
(3 2.09704e-15 0)
(3 2.098e-15 0)
(3 1.54651e-15 0)
(3 -2.68992e-16 0)
(3 -1.57125e-15 0)
(3 5.28004e-18 0)
(3 1.54429e-18 0)
(3 -2.18932e-16 0)
(3 -1.14061e-16 0)
(3 -3.00908e-16 0)
(3 -2.4571e-16 0)
(3 4.65789e-17 0)
(3 3.37836e-16 0)
(3 -6.18351e-17 0)
(3 -4.91813e-17 0)
(3 4.32373e-16 0)
(3 7.01935e-16 0)
(3 4.30871e-16 0)
(3 5.97022e-16 0)
(3 4.49184e-16 0)
(3 4.89814e-16 0)
(3 9.44868e-16 0)
(3 5.51839e-16 0)
(3 8.79749e-16 0)
(3 3.84569e-16 0)
(3 -9.4492e-16 0)
(3 -9.60222e-16 0)
(3 -6.66655e-16 0)
(3 -1.15277e-15 0)
(3 -2.04907e-15 0)
(3 -1.94466e-15 0)
(3 -1.5585e-15 0)
(3 -8.97466e-16 0)
(3 -8.8858e-16 0)
(3 -1.90836e-15 0)
(3 -2.00909e-15 0)
(3 -2.42481e-15 0)
(3 -2.45105e-15 0)
(3 -2.22226e-15 0)
(3 -1.87602e-15 0)
(3 -1.19859e-15 0)
(3 1.00705e-15 0)
(3 2.1794e-15 0)
(3 2.68479e-15 0)
(3 2.6828e-15 0)
(3 2.67731e-15 0)
(3 1.85939e-15 0)
(3 1.20802e-15 0)
(3 -9.64434e-17 0)
(3 -1.21818e-15 0)
(3 -2.31697e-15 0)
(3 -2.94344e-15 0)
(3 -1.65488e-15 0)
(3 -1.57578e-15 0)
(3 -1.74161e-15 0)
(3 -1.32786e-15 0)
(3 -8.76969e-16 0)
(3 -6.83427e-16 0)
(3 -4.27362e-16 0)
(3 6.42377e-17 0)
(3 -2.93484e-16 0)
(3 -8.42147e-16 0)
(3 -1.20908e-15 0)
(3 -1.25974e-15 0)
(3 9.27536e-16 0)