/*--------------------------------*- C++ -*----------------------------------*\
  =========                 |
  \\      /  F ield         | OpenFOAM: The Open Source CFD Toolbox
   \\    /   O peration     | Website:  https://openfoam.org
    \\  /    A nd           | Version:  7
     \\/     M anipulation  |
\*---------------------------------------------------------------------------*/
FoamFile
{
    version     2.0;
    format      ascii;
    class       volVectorField;
    location    "0.3";
    object      U;
}
// * * * * * * * * * * * * * * * * * * * * * * * * * * * * * * * * * * * * * //

dimensions      [0 1 -1 0 0 0 0];

internalField   nonuniform List<vector> 
73728
(
(3 4.85945e-18 0)
(3 1.06587e-16 0)
(3 1.75357e-16 0)
(3 1.87447e-16 0)
(3 -4.68241e-16 0)
(3 -6.35865e-16 0)
(3 -3.39523e-16 0)
(3 -2.1678e-16 0)
(3 -8.54564e-16 0)
(3 -1.73701e-15 0)
(3 -2.60406e-15 0)
(3 -2.22418e-15 0)
(3 -9.59609e-16 0)
(3 -1.764e-16 0)
(3 -2.52284e-16 0)
(3 -4.73854e-16 0)
(3 -4.70717e-16 0)
(3 -5.7378e-16 0)
(3 -8.04117e-16 0)
(3 -1.40497e-15 0)
(3 -2.42782e-15 0)
(3 -2.53998e-15 0)
(3 4.67341e-17 0)
(3 1.0663e-15 0)
(3 1.35829e-15 0)
(3 1.43836e-15 0)
(3 1.69988e-15 0)
(3 1.51444e-15 0)
(3 7.97678e-16 0)
(3 1.8583e-16 0)
(3 4.43851e-16 0)
(3 6.19318e-16 0)
(3 1.06064e-15 0)
(3 1.18702e-15 0)
(3 1.75457e-15 0)
(3 2.56838e-15 0)
(3 2.4098e-15 0)
(3 9.4558e-16 0)
(3 1.16812e-16 0)
(3 5.80636e-16 0)
(3 1.29506e-15 0)
(3 1.31724e-15 0)
(3 1.84902e-15 0)
(3 2.502e-15 0)
(3 1.82537e-15 0)
(3 1.42717e-15 0)
(3 1.43026e-15 0)
(3 1.86715e-16 0)
(3 -6.19432e-16 0)
(3 -5.21989e-16 0)
(3 -4.10413e-16 0)
(3 -9.08882e-16 0)
(3 -1.78124e-16 0)
(3 3.25116e-16 0)
(3 1.15184e-16 0)
(3 2.00086e-17 0)
(3 7.16487e-17 0)
(3 -1.55695e-16 0)
(3 -4.43507e-16 0)
(3 -1.35477e-15 0)
(3 -1.88675e-15 0)
(3 -1.59195e-15 0)
(3 -2.05763e-16 0)
(3 1.45216e-18 0)
(3 5.87448e-16 0)
(3 4.39289e-16 0)
(3 -7.68215e-17 0)
(3 -4.2773e-16 0)
(3 -1.08468e-16 0)
(3 3.48248e-16 0)
(3 8.41526e-16 0)
(3 1.18909e-15 0)
(3 8.38276e-16 0)
(3 6.07383e-16 0)
(3 1.47107e-16 0)
(3 4.19211e-16 0)
(3 1.37778e-15 0)
(3 1.54313e-15 0)
(3 1.36753e-15 0)
(3 1.07449e-15 0)
(3 1.03674e-15 0)
(3 1.15666e-15 0)
(3 -5.16803e-16 0)
(3 -9.36486e-16 0)
(3 -4.07074e-16 0)
(3 -3.39432e-17 0)
(3 -4.26207e-16 0)
(3 -9.29004e-16 0)
(3 -1.69301e-15 0)
(3 -2.36203e-15 0)
(3 -4.80893e-16 0)
(3 2.87863e-16 0)
(3 3.15321e-17 0)
(3 -7.59614e-16 0)
(3 -5.97894e-16 0)
(3 -6.81056e-17 0)
(3 -3.78555e-17 0)
(3 -1.60668e-17 0)
(3 3.75485e-16 0)
(3 1.89274e-16 0)
(3 -4.84625e-16 0)
(3 -2.71948e-16 0)
(3 -1.49384e-16 0)
(3 3.31303e-16 0)
(3 -1.0245e-16 0)
(3 -1.38489e-15 0)
(3 -2.33551e-15 0)
(3 -1.89728e-15 0)
(3 -1.57586e-15 0)
(3 -1.03692e-15 0)
(3 -7.07027e-16 0)
(3 -8.17909e-16 0)
(3 -6.43106e-16 0)
(3 -5.31137e-16 0)
(3 -7.04465e-16 0)
(3 -7.7459e-16 0)
(3 -1.40967e-15 0)
(3 -2.55449e-15 0)
(3 -1.421e-15 0)
(3 2.48936e-16 0)
(3 -7.05786e-17 0)
(3 2.30647e-16 0)
(3 1.5939e-15 0)
(3 4.12879e-16 0)
(3 -2.77079e-16 0)
(3 -8.03302e-17 0)
(3 -5.66206e-18 0)
(3 -1.70919e-16 0)
(3 6.25313e-16 0)
(3 1.69764e-15 0)
(3 2.32689e-15 0)
(3 3.3645e-15 0)
(3 3.91036e-15 0)
(3 2.02676e-15 0)
(3 5.35779e-16 0)
(3 4.26656e-16 0)
(3 1.45614e-15 0)
(3 2.44423e-15 0)
(3 2.24959e-15 0)
(3 1.94325e-15 0)
(3 1.21272e-15 0)
(3 7.24448e-16 0)
(3 1.25142e-15 0)
(3 1.38716e-15 0)
(3 8.61404e-16 0)
(3 5.71182e-16 0)
(3 9.24598e-16 0)
(3 5.41533e-16 0)
(3 9.19756e-16 0)
(3 1.3436e-15 0)
(3 1.01927e-15 0)
(3 7.76161e-16 0)
(3 2.3219e-16 0)
(3 -5.00241e-17 0)
(3 2.6699e-16 0)
(3 -5.49696e-16 0)
(3 -1.25788e-15 0)
(3 -1.23475e-15 0)
(3 -5.23955e-16 0)
(3 2.91891e-16 0)
(3 6.56146e-16 0)
(3 5.48948e-16 0)
(3 -3.71288e-16 0)
(3 -3.31807e-16 0)
(3 -1.60736e-16 0)
(3 2.0625e-15 0)
(3 3.97932e-15 0)
(3 4.2011e-15 0)
(3 3.60061e-15 0)
(3 2.36007e-15 0)
(3 -4.78981e-17 0)
(3 -1.58554e-15 0)
(3 -1.28479e-15 0)
(3 5.56097e-16 0)
(3 2.41877e-15 0)
(3 1.69438e-15 0)
(3 9.85846e-16 0)
(3 -2.60949e-16 0)
(3 -2.63226e-15 0)
(3 -3.45832e-15 0)
(3 -2.72653e-15 0)
(3 -1.58591e-15 0)
(3 -1.6824e-15 0)
(3 -2.91044e-15 0)
(3 -4.18724e-15 0)
(3 -3.84545e-15 0)
(3 -2.54813e-15 0)
(3 -2.21499e-15 0)
(3 -1.25362e-15 0)
(3 -9.8154e-16 0)
(3 1.30365e-15 0)
(3 2.08316e-15 0)
(3 -9.38122e-17 0)
(3 -3.07254e-16 0)
(3 1.50429e-16 0)
(3 2.67981e-16 0)
(3 2.20058e-16 0)
(3 4.01323e-16 0)
(3 6.14569e-16 0)
(3 1.09427e-15 0)
(3 1.23366e-15 0)
(3 9.27697e-16 0)
(3 5.49131e-16 0)
(3 5.15839e-16 0)
(3 -2.24346e-16 0)
(3 -8.26955e-16 0)
(3 -9.70561e-16 0)
(3 -5.29335e-16 0)
(3 -3.10382e-17 0)
(3 1.53888e-16 0)
(3 4.06195e-16 0)
(3 5.64617e-16 0)
(3 8.02e-16 0)
(3 3.39801e-17 0)
(3 1.25599e-18 0)
(3 1.48131e-15 0)
(3 1.28785e-15 0)
(3 1.00814e-15 0)
(3 5.15078e-16 0)
(3 7.60672e-17 0)
(3 3.49193e-17 0)
(3 -9.87492e-16 0)
(3 -1.24546e-15 0)
(3 -1.4201e-15 0)
(3 -4.99418e-16 0)
(3 -1.36795e-17 0)
(3 6.28157e-17 0)
(3 7.9428e-16 0)
(3 1.06544e-15 0)
(3 4.13204e-16 0)
(3 1.71024e-15 0)
(3 7.60166e-16 0)
(3 8.06723e-16 0)
(3 1.46331e-15 0)
(3 2.39938e-15 0)
(3 1.11656e-15 0)
(3 3.72746e-16 0)
(3 2.00804e-16 0)
(3 4.67889e-16 0)
(3 1.24917e-15 0)
(3 2.20897e-15 0)
(3 1.86468e-15 0)
(3 1.29446e-15 0)
(3 1.53443e-15 0)
(3 1.58525e-15 0)
(3 1.72087e-15 0)
(3 1.53693e-15 0)
(3 1.06242e-15 0)
(3 -2.18223e-17 0)
(3 -3.34315e-16 0)
(3 -3.70584e-16 0)
(3 -5.56523e-17 0)
(3 -1.33632e-16 0)
(3 2.91104e-17 0)
(3 2.27748e-17 0)
(3 -1.30413e-16 0)
(3 -6.91683e-16 0)
(3 -1.10288e-15 0)
(3 -1.54374e-15 0)
(3 -9.48038e-16 0)
(3 -1.06131e-16 0)
(3 2.14193e-15 0)
(3 2.72114e-15 0)
(3 3.79951e-15 0)
(3 4.40166e-15 0)
(3 3.87806e-15 0)
(3 3.17217e-15 0)
(3 2.18022e-15 0)
(3 1.03249e-15 0)
(3 6.70383e-16 0)
(3 1.74516e-15 0)
(3 8.04275e-16 0)
(3 3.82418e-17 0)
(3 -1.68577e-16 0)
(3 1.90564e-16 0)
(3 4.89349e-16 0)
(3 -1.00297e-15 0)
(3 -2.4058e-15 0)
(3 -2.11135e-15 0)
(3 -2.87416e-15 0)
(3 -3.34715e-15 0)
(3 -3.63673e-15 0)
(3 -3.20489e-15 0)
(3 -2.79495e-15 0)
(3 -2.11158e-15 0)
(3 2.6635e-16 0)
(3 9.7876e-16 0)
(3 2.18385e-15 0)
(3 -7.03381e-17 0)
(3 -2.68841e-16 0)
(3 2.20725e-16 0)
(3 6.41024e-16 0)
(3 1.22529e-15 0)
(3 1.37554e-15 0)
(3 2.25767e-15 0)
(3 2.78766e-15 0)
(3 3.93901e-15 0)
(3 4.1468e-15 0)
(3 3.96967e-15 0)
(3 2.73318e-15 0)
(3 1.27291e-15 0)
(3 4.84846e-16 0)
(3 5.32059e-16 0)
(3 4.84704e-16 0)
(3 3.45269e-16 0)
(3 3.16773e-16 0)
(3 1.09788e-16 0)
(3 1.92956e-16 0)
(3 9.9998e-16 0)
(3 3.46821e-15 0)
(3 2.95371e-15 0)
(3 7.60083e-16 0)
(3 1.31649e-15 0)
(3 1.22254e-15 0)
(3 -2.89828e-17 0)
(3 4.50022e-16 0)
(3 6.4191e-17 0)
(3 -1.2758e-15 0)
(3 -1.58313e-15 0)
(3 -3.33664e-16 0)
(3 -3.51669e-16 0)
(3 -5.42455e-16 0)
(3 -3.36117e-16 0)
(3 -2.36921e-16 0)
(3 -7.52756e-16 0)
(3 -1.10698e-15 0)
(3 -1.09505e-15 0)
(3 -1.78001e-15 0)
(3 -1.62233e-15 0)
(3 -1.00747e-15 0)
(3 2.67517e-16 0)
(3 1.50252e-15 0)
(3 1.45749e-15 0)
(3 1.25309e-15 0)
(3 1.83478e-16 0)
(3 -5.49201e-16 0)
(3 -5.39288e-16 0)
(3 3.79179e-16 0)
(3 -6.21816e-16 0)
(3 -1.98729e-15 0)
(3 -1.81256e-15 0)
(3 -1.09568e-15 0)
(3 -1.04919e-15 0)
(3 -1.44137e-15 0)
(3 -1.50253e-15 0)
(3 -1.74098e-15 0)
(3 -1.4667e-15 0)
(3 -1.33261e-16 0)
(3 1.05409e-15 0)
(3 1.04348e-15 0)
(3 1.03588e-15 0)
(3 2.3301e-16 0)
(3 -1.3935e-15 0)
(3 -2.64117e-15 0)
(3 -3.23132e-15 0)
(3 -1.99107e-15 0)
(3 -7.42544e-16 0)
(3 8.1068e-16 0)
(3 1.61528e-15 0)
(3 2.42057e-15 0)
(3 2.83509e-15 0)
(3 2.24197e-15 0)
(3 1.14379e-15 0)
(3 6.48473e-16 0)
(3 5.80862e-16 0)
(3 2.87055e-17 0)
(3 -7.15603e-16 0)
(3 3.13442e-16 0)
(3 2.37793e-16 0)
(3 3.94998e-16 0)
(3 1.9152e-15 0)
(3 1.65888e-15 0)
(3 2.67817e-16 0)
(3 -2.68305e-16 0)
(3 -9.69795e-16 0)
(3 -2.71369e-16 0)
(3 -5.36625e-16 0)
(3 -8.42395e-16 0)
(3 -8.97993e-16 0)
(3 3.29874e-16 0)
(3 7.8113e-16 0)
(3 6.45209e-16 0)
(3 2.97037e-16 0)
(3 -8.6683e-16 0)
(3 4.75831e-17 0)
(3 -2.00346e-16 0)
(3 -1.52051e-16 0)
(3 1.4075e-16 0)
(3 5.72371e-16 0)
(3 6.72083e-16 0)
(3 1.71385e-16 0)
(3 3.48108e-16 0)
(3 1.48945e-15 0)
(3 2.22889e-15 0)
(3 2.87891e-15 0)
(3 2.35206e-15 0)
(3 1.83634e-15 0)
(3 1.82314e-15 0)
(3 1.41943e-15 0)
(3 5.436e-16 0)
(3 -1.96212e-16 0)
(3 -2.03882e-16 0)
(3 1.66367e-16 0)
(3 6.3167e-16 0)
(3 1.48747e-15 0)
(3 3.10566e-15 0)
(3 3.32192e-15 0)
(3 1.9755e-16 0)
(3 4.50326e-17 0)
(3 2.64343e-16 0)
(3 -1.26222e-16 0)
(3 -7.31726e-16 0)
(3 -1.02023e-15 0)
(3 -1.27049e-15 0)
(3 -1.31958e-15 0)
(3 -7.8035e-16 0)
(3 -6.56802e-16 0)
(3 -5.35048e-16 0)
(3 -3.4421e-16 0)
(3 -1.53081e-16 0)
(3 -6.51988e-16 0)
(3 -2.16438e-15 0)
(3 -3.37049e-15 0)
(3 -3.06999e-15 0)
(3 -1.88957e-15 0)
(3 -6.59142e-16 0)
(3 8.40831e-16 0)
(3 1.34553e-15 0)
(3 1.66795e-15 0)
(3 1.83346e-15 0)
(3 8.06677e-16 0)
(3 4.35696e-16 0)
(3 2.45127e-16 0)
(3 1.35563e-15 0)
(3 8.46135e-16 0)
(3 -1.4447e-15 0)
(3 -2.38251e-15 0)
(3 -2.5503e-15 0)
(3 -2.17834e-15 0)
(3 -2.18967e-15 0)
(3 -2.41451e-15 0)
(3 -2.70257e-15 0)
(3 -2.39808e-15 0)
(3 -1.61234e-15 0)
(3 -3.22723e-16 0)
(3 4.8949e-16 0)
(3 1.64626e-16 0)
(3 -1.18793e-15 0)
(3 -1.31127e-15 0)
(3 9.07563e-17 0)
(3 1.00712e-15 0)
(3 1.43572e-15 0)
(3 1.62542e-15 0)
(3 1.7418e-15 0)
(3 1.43008e-15 0)
(3 2.40001e-15 0)
(3 2.66328e-15 0)
(3 2.54001e-16 0)
(3 -4.51899e-16 0)
(3 -4.54655e-16 0)
(3 5.04516e-17 0)
(3 8.6054e-17 0)
(3 8.02351e-17 0)
(3 8.12949e-16 0)
(3 6.952e-16 0)
(3 7.83095e-16 0)
(3 1.368e-15 0)
(3 1.13846e-15 0)
(3 9.65615e-16 0)
(3 2.02014e-15 0)
(3 1.10592e-15 0)
(3 7.02436e-17 0)
(3 1.15622e-16 0)
(3 5.12296e-16 0)
(3 1.09457e-15 0)
(3 1.85531e-15 0)
(3 1.34554e-15 0)
(3 4.16505e-16 0)
(3 -1.42397e-16 0)
(3 -4.97289e-16 0)
(3 -5.46271e-17 0)
(3 -5.15729e-17 0)
(3 -7.78466e-17 0)
(3 -2.07538e-16 0)
(3 -5.05477e-16 0)
(3 -1.53402e-15 0)
(3 -2.92665e-15 0)
(3 -3.37494e-15 0)
(3 -3.83547e-15 0)
(3 -3.143e-15 0)
(3 -2.03152e-15 0)
(3 -1.42518e-15 0)
(3 -3.20539e-16 0)
(3 8.08542e-16 0)
(3 6.79649e-16 0)
(3 5.04895e-16 0)
(3 -1.69241e-17 0)
(3 3.92716e-17 0)
(3 5.49776e-16 0)
(3 7.82421e-16 0)
(3 1.58232e-15 0)
(3 1.72211e-15 0)
(3 2.28056e-15 0)
(3 3.00599e-16 0)
(3 -7.51909e-16 0)
(3 -6.85011e-16 0)
(3 8.26186e-16 0)
(3 7.70073e-16 0)
(3 2.97142e-16 0)
(3 7.66651e-17 0)
(3 7.22059e-16 0)
(3 -2.35183e-16 0)
(3 -3.53105e-16 0)
(3 -8.58037e-16 0)
(3 -7.09736e-16 0)
(3 -5.78355e-16 0)
(3 -1.86874e-16 0)
(3 1.73802e-16 0)
(3 9.66376e-16 0)
(3 -4.97771e-17 0)
(3 -7.12164e-16 0)
(3 -5.86941e-16 0)
(3 -6.22523e-17 0)
(3 2.51915e-16 0)
(3 5.35925e-16 0)
(3 8.14057e-16 0)
(3 1.11572e-15 0)
(3 3.32687e-15 0)
(3 3.72185e-15 0)
(3 3.4776e-15 0)
(3 2.57047e-15 0)
(3 8.61879e-16 0)
(3 2.95985e-17 0)
(3 -3.6253e-16 0)
(3 2.35703e-16 0)
(3 -1.57223e-16 0)
(3 -2.66562e-15 0)
(3 -2.99397e-15 0)
(3 -2.66052e-15 0)
(3 -2.12254e-15 0)
(3 -1.39013e-15 0)
(3 -1.14349e-15 0)
(3 -5.9078e-17 0)
(3 1.841e-16 0)
(3 -2.64373e-17 0)
(3 -7.16726e-16 0)
(3 8.60786e-16 0)
(3 1.30399e-15 0)
(3 1.58958e-15 0)
(3 1.81768e-15 0)
(3 2.00329e-15 0)
(3 2.56843e-15 0)
(3 3.31105e-15 0)
(3 2.51054e-15 0)
(3 1.34915e-15 0)
(3 6.67437e-16 0)
(3 6.55523e-16 0)
(3 8.52759e-16 0)
(3 8.47401e-16 0)
(3 1.03248e-15 0)
(3 2.05879e-15 0)
(3 1.41945e-15 0)
(3 7.29194e-16 0)
(3 8.70418e-16 0)
(3 2.87473e-15 0)
(3 4.57903e-15 0)
(3 4.58059e-15 0)
(3 2.82724e-15 0)
(3 1.69455e-15 0)
(3 1.25785e-15 0)
(3 1.79961e-15 0)
(3 2.13031e-15 0)
(3 1.95168e-15 0)
(3 8.3132e-16 0)
(3 4.82928e-16 0)
(3 1.23413e-16 0)
(3 -2.36955e-16 0)
(3 -1.06453e-18 0)
(3 -5.53839e-17 0)
(3 -3.36198e-16 0)
(3 -2.65138e-16 0)
(3 -5.91191e-16 0)
(3 -9.79446e-16 0)
(3 -1.75499e-15 0)
(3 -2.31919e-15 0)
(3 -2.73496e-15 0)
(3 -2.89267e-15 0)
(3 -2.45951e-15 0)
(3 -7.19137e-16 0)
(3 6.05547e-16 0)
(3 7.20906e-16 0)
(3 8.93766e-16 0)
(3 7.95653e-16 0)
(3 5.80944e-16 0)
(3 7.04618e-16 0)
(3 8.05911e-16 0)
(3 1.09174e-15 0)
(3 3.03806e-16 0)
(3 1.83857e-16 0)
(3 3.92241e-17 0)
(3 -6.75239e-16 0)
(3 -6.71531e-16 0)
(3 1.80427e-15 0)
(3 2.79132e-15 0)
(3 2.6753e-15 0)
(3 2.63636e-15 0)
(3 2.27475e-15 0)
(3 2.03735e-15 0)
(3 1.80465e-15 0)
(3 1.83219e-15 0)
(3 1.33712e-15 0)
(3 7.34939e-16 0)
(3 3.86335e-16 0)
(3 1.04333e-15 0)
(3 2.23474e-15 0)
(3 1.73239e-15 0)
(3 -3.58822e-16 0)
(3 -1.78312e-15 0)
(3 -1.73621e-15 0)
(3 -1.39338e-15 0)
(3 -6.67071e-16 0)
(3 5.6192e-17 0)
(3 1.06866e-15 0)
(3 1.5102e-15 0)
(3 2.34655e-15 0)
(3 1.30216e-15 0)
(3 1.3393e-15 0)
(3 1.03398e-15 0)
(3 7.51756e-16 0)
(3 9.38347e-16 0)
(3 1.62343e-15 0)
(3 1.54737e-15 0)
(3 6.07901e-16 0)
(3 3.98895e-16 0)
(3 3.18835e-16 0)
(3 3.0478e-16 0)
(3 1.19468e-15 0)
(3 2.04698e-15 0)
(3 2.98639e-15 0)
(3 4.00815e-15 0)
(3 2.69625e-15 0)
(3 -9.17422e-17 0)
(3 -5.70391e-16 0)
(3 -1.88705e-16 0)
(3 1.80788e-16 0)
(3 6.53582e-16 0)
(3 9.66247e-16 0)
(3 -3.11649e-16 0)
(3 -1.38399e-15 0)
(3 -1.24247e-15 0)
(3 -2.78516e-16 0)
(3 5.9979e-16 0)
(3 8.52932e-16 0)
(3 1.44384e-15 0)
(3 1.69141e-15 0)
(3 2.18388e-15 0)
(3 3.00135e-15 0)
(3 4.38288e-15 0)
(3 4.32916e-15 0)
(3 4.39092e-15 0)
(3 4.77953e-15 0)
(3 5.95343e-15 0)
(3 6.31418e-15 0)
(3 5.79584e-15 0)
(3 3.49849e-15 0)
(3 1.53553e-15 0)
(3 1.26652e-15 0)
(3 1.43134e-15 0)
(3 1.82677e-15 0)
(3 2.22997e-15 0)
(3 1.75049e-15 0)
(3 9.20556e-16 0)
(3 1.4988e-16 0)
(3 1.0778e-16 0)
(3 -2.99441e-16 0)
(3 2.41302e-17 0)
(3 1.49915e-16 0)
(3 -9.59552e-17 0)
(3 -2.60488e-16 0)
(3 -5.71072e-16 0)
(3 -4.82204e-16 0)
(3 -6.11131e-16 0)
(3 -5.21907e-16 0)
(3 6.55152e-17 0)
(3 1.04801e-15 0)
(3 1.41324e-15 0)
(3 1.4097e-15 0)
(3 1.46435e-15 0)
(3 1.9003e-15 0)
(3 1.66674e-15 0)
(3 1.34083e-15 0)
(3 9.19102e-16 0)
(3 -2.48826e-16 0)
(3 -7.63272e-16 0)
(3 -3.12436e-16 0)
(3 1.26953e-15 0)
(3 1.48467e-15 0)
(3 2.04326e-15 0)
(3 2.85231e-15 0)
(3 3.38642e-15 0)
(3 2.3308e-15 0)
(3 1.6906e-15 0)
(3 1.13879e-15 0)
(3 9.15592e-16 0)
(3 4.16178e-16 0)
(3 1.01006e-15 0)
(3 1.1158e-15 0)
(3 1.31318e-15 0)
(3 1.09193e-15 0)
(3 8.49592e-17 0)
(3 -6.35065e-16 0)
(3 -1.6804e-16 0)
(3 -1.92894e-16 0)
(3 -7.07874e-16 0)
(3 -9.36243e-16 0)
(3 -2.21058e-15 0)
(3 -1.7972e-15 0)
(3 -1.27095e-15 0)
(3 -8.47924e-16 0)
(3 -8.65176e-17 0)
(3 -1.13956e-15 0)
(3 -1.3618e-15 0)
(3 -7.4596e-16 0)
(3 1.43286e-15 0)
(3 1.59755e-15 0)
(3 2.3582e-15 0)
(3 2.07796e-15 0)
(3 2.03543e-15 0)
(3 1.36737e-15 0)
(3 9.82269e-16 0)
(3 4.60584e-16 0)
(3 2.63394e-16 0)
(3 9.6843e-16 0)
(3 1.99572e-15 0)
(3 1.88843e-15 0)
(3 1.15781e-15 0)
(3 -3.96329e-17 0)
(3 5.27829e-17 0)
(3 1.42439e-16 0)
(3 -6.32229e-16 0)
(3 -1.7026e-15 0)
(3 -1.44168e-15 0)
(3 -6.36837e-16 0)
(3 -2.24526e-15 0)
(3 -2.84859e-15 0)
(3 -1.23324e-15 0)
(3 1.94752e-15 0)
(3 3.50457e-15 0)
(3 3.20757e-15 0)
(3 2.88633e-15 0)
(3 2.50442e-15 0)
(3 2.01713e-15 0)
(3 2.14196e-15 0)
(3 4.05252e-15 0)
(3 4.78028e-15 0)
(3 4.77371e-15 0)
(3 4.67071e-15 0)
(3 4.37889e-15 0)
(3 2.71551e-15 0)
(3 1.9872e-15 0)
(3 1.84571e-15 0)
(3 2.59767e-15 0)
(3 2.83994e-15 0)
(3 2.51854e-15 0)
(3 2.00897e-15 0)
(3 1.6044e-15 0)
(3 1.23538e-15 0)
(3 1.10909e-15 0)
(3 1.77368e-16 0)
(3 1.68442e-16 0)
(3 2.26998e-16 0)
(3 -9.11259e-17 0)
(3 -2.83572e-16 0)
(3 -1.28646e-16 0)
(3 -5.17209e-17 0)
(3 5.91555e-17 0)
(3 -4.44055e-16 0)
(3 -9.36984e-16 0)
(3 -4.55155e-16 0)
(3 1.57512e-16 0)
(3 4.90314e-16 0)
(3 8.80027e-16 0)
(3 9.72128e-16 0)
(3 7.03742e-16 0)
(3 5.50554e-16 0)
(3 7.10679e-16 0)
(3 4.75024e-16 0)
(3 2.65996e-16 0)
(3 -9.43546e-16 0)
(3 -1.19599e-15 0)
(3 -7.41713e-16 0)
(3 8.38352e-16 0)
(3 1.49731e-15 0)
(3 2.28647e-15 0)
(3 1.99805e-15 0)
(3 1.46686e-15 0)
(3 1.02829e-15 0)
(3 3.77387e-16 0)
(3 -1.77602e-16 0)
(3 -5.05286e-16 0)
(3 -9.35378e-16 0)
(3 -1.70562e-15 0)
(3 -1.70334e-15 0)
(3 -8.44895e-16 0)
(3 -3.01885e-16 0)
(3 -7.75365e-16 0)
(3 -2.18685e-15 0)
(3 -2.48909e-15 0)
(3 -2.91368e-15 0)
(3 -2.28494e-15 0)
(3 -1.04689e-15 0)
(3 -1.00493e-15 0)
(3 -4.52214e-16 0)
(3 -1.77288e-15 0)
(3 -1.7031e-15 0)
(3 -1.06129e-15 0)
(3 -1.22703e-15 0)
(3 -1.10521e-15 0)
(3 -1.43388e-15 0)
(3 -9.92872e-16 0)
(3 5.46545e-16 0)
(3 7.38093e-16 0)
(3 3.2263e-16 0)
(3 2.79053e-17 0)
(3 -2.50437e-17 0)
(3 -1.13131e-15 0)
(3 -1.44385e-15 0)
(3 -1.17082e-16 0)
(3 7.47511e-16 0)
(3 1.05198e-15 0)
(3 -3.01946e-16 0)
(3 -1.65251e-15 0)
(3 -1.04486e-15 0)
(3 -1.85334e-16 0)
(3 2.05969e-15 0)
(3 1.63401e-15 0)
(3 1.04366e-15 0)
(3 -7.32694e-16 0)
(3 -1.61481e-15 0)
(3 9.36877e-16 0)
(3 1.71352e-15 0)
(3 2.22732e-15 0)
(3 2.29952e-15 0)
(3 2.89049e-15 0)
(3 3.00693e-15 0)
(3 3.52291e-15 0)
(3 3.42666e-15 0)
(3 2.53267e-15 0)
(3 1.78892e-15 0)
(3 1.94439e-15 0)
(3 2.52623e-15 0)
(3 2.88844e-15 0)
(3 2.52941e-15 0)
(3 1.96347e-15 0)
(3 2.11151e-15 0)
(3 1.83208e-15 0)
(3 8.96544e-16 0)
(3 7.73529e-16 0)
(3 1.50734e-15 0)
(3 2.27959e-15 0)
(3 1.94853e-15 0)
(3 1.69188e-15 0)
(3 9.921e-16 0)
(3 2.29465e-16 0)
(3 1.03965e-16 0)
(3 7.13936e-17 0)
(3 7.76279e-17 0)
(3 -4.34045e-16 0)
(3 -5.13389e-16 0)
(3 5.252e-17 0)
(3 3.58947e-16 0)
(3 4.57558e-16 0)
(3 -2.1418e-16 0)
(3 -5.38032e-16 0)
(3 3.50919e-16 0)
(3 1.15559e-15 0)
(3 1.61398e-15 0)
(3 1.17782e-15 0)
(3 5.25488e-17 0)
(3 -4.00956e-16 0)
(3 -4.72343e-16 0)
(3 -1.28466e-15 0)
(3 -1.43091e-15 0)
(3 -1.79136e-15 0)
(3 -2.19931e-15 0)
(3 -1.95529e-15 0)
(3 -1.97027e-15 0)
(3 -1.45839e-16 0)
(3 7.83645e-16 0)
(3 5.79805e-16 0)
(3 -1.17142e-16 0)
(3 -9.83636e-16 0)
(3 -1.14491e-15 0)
(3 -1.36848e-15 0)
(3 -9.52605e-16 0)
(3 -4.33053e-16 0)
(3 -8.86915e-16 0)
(3 -1.43241e-15 0)
(3 -1.90076e-15 0)
(3 -2.25879e-15 0)
(3 -1.86035e-15 0)
(3 -1.55567e-15 0)
(3 -1.41105e-15 0)
(3 -2.00454e-15 0)
(3 -2.19404e-15 0)
(3 -1.99633e-15 0)
(3 -9.68389e-16 0)
(3 4.02824e-17 0)
(3 5.14178e-16 0)
(3 -5.115e-16 0)
(3 -1.53845e-15 0)
(3 -2.19488e-15 0)
(3 -1.1629e-15 0)
(3 -7.00956e-16 0)
(3 -1.62838e-15 0)
(3 -2.44435e-15 0)
(3 1.73093e-16 0)
(3 2.85063e-16 0)
(3 -5.80496e-17 0)
(3 -9.72961e-16 0)
(3 -5.41299e-16 0)
(3 1.76013e-16 0)
(3 3.35455e-16 0)
(3 -3.84784e-16 0)
(3 -5.12856e-16 0)
(3 -6.46742e-16 0)
(3 -2.44128e-16 0)
(3 -5.36054e-16 0)
(3 -2.28752e-16 0)
(3 4.47131e-16 0)
(3 1.39231e-15 0)
(3 2.83321e-15 0)
(3 3.10779e-15 0)
(3 1.49144e-15 0)
(3 -8.687e-16 0)
(3 -3.52293e-16 0)
(3 1.09455e-15 0)
(3 1.92399e-15 0)
(3 2.1892e-15 0)
(3 1.17568e-15 0)
(3 8.88942e-16 0)
(3 1.03381e-15 0)
(3 1.52794e-15 0)
(3 1.38997e-15 0)
(3 1.49244e-15 0)
(3 1.49488e-15 0)
(3 1.57245e-15 0)
(3 1.58075e-15 0)
(3 2.23694e-15 0)
(3 3.04242e-15 0)
(3 3.51865e-15 0)
(3 4.72478e-15 0)
(3 2.86374e-15 0)
(3 1.97754e-15 0)
(3 1.44906e-15 0)
(3 4.16156e-16 0)
(3 9.05228e-17 0)
(3 1.76791e-16 0)
(3 2.46022e-16 0)
(3 -7.52167e-16 0)
(3 6.89506e-17 0)
(3 1.94635e-16 0)
(3 2.44659e-17 0)
(3 -7.35099e-17 0)
(3 1.20957e-16 0)
(3 4.13629e-16 0)
(3 7.79115e-16 0)
(3 8.495e-16 0)
(3 1.03944e-15 0)
(3 1.53484e-15 0)
(3 1.45465e-15 0)
(3 1.264e-15 0)
(3 9.47758e-16 0)
(3 -3.41544e-16 0)
(3 -1.14886e-15 0)
(3 -1.36847e-15 0)
(3 -1.80436e-15 0)
(3 -2.368e-15 0)
(3 -3.07517e-15 0)
(3 -3.83734e-15 0)
(3 -4.59431e-15 0)
(3 -4.51204e-15 0)
(3 -3.50902e-15 0)
(3 -9.43885e-16 0)
(3 -6.7407e-17 0)
(3 -7.38216e-16 0)
(3 -1.00131e-15 0)
(3 -8.48879e-16 0)
(3 -9.32659e-16 0)
(3 -8.72113e-16 0)
(3 -4.50744e-16 0)
(3 1.26436e-16 0)
(3 3.20487e-16 0)
(3 3.4876e-16 0)
(3 6.09469e-16 0)
(3 6.53122e-16 0)
(3 6.0554e-16 0)
(3 4.70281e-16 0)
(3 -6.66398e-16 0)
(3 -1.502e-15 0)
(3 -9.40165e-16 0)
(3 -8.36527e-16 0)
(3 -5.2466e-16 0)
(3 -1.96884e-16 0)
(3 -2.65468e-16 0)
(3 -4.7047e-16 0)
(3 -2.44102e-15 0)
(3 -2.74166e-15 0)
(3 -3.50702e-15 0)
(3 -3.07095e-15 0)
(3 -1.68889e-15 0)
(3 -7.18059e-16 0)
(3 -3.99519e-16 0)
(3 -1.33369e-16 0)
(3 -6.38888e-16 0)
(3 -1.2805e-15 0)
(3 -1.05718e-15 0)
(3 9.06673e-16 0)
(3 5.91687e-16 0)
(3 -1.30307e-15 0)
(3 -2.12964e-15 0)
(3 -1.98303e-15 0)
(3 -4.21876e-16 0)
(3 1.18427e-15 0)
(3 1.62604e-15 0)
(3 1.95799e-15 0)
(3 2.06235e-15 0)
(3 2.69922e-15 0)
(3 3.73409e-15 0)
(3 4.1643e-15 0)
(3 3.54153e-15 0)
(3 2.23503e-15 0)
(3 1.93063e-15 0)
(3 2.01794e-15 0)
(3 2.49491e-15 0)
(3 9.46038e-16 0)
(3 4.19313e-16 0)
(3 -5.2768e-16 0)
(3 -1.82143e-15 0)
(3 -1.44665e-15 0)
(3 3.49274e-16 0)
(3 1.26899e-15 0)
(3 2.53488e-15 0)
(3 2.41096e-15 0)
(3 2.34174e-15 0)
(3 2.22469e-15 0)
(3 2.32813e-15 0)
(3 1.85098e-15 0)
(3 3.12512e-15 0)
(3 3.10424e-15 0)
(3 2.9241e-15 0)
(3 1.52157e-15 0)
(3 -1.13255e-16 0)
(3 -1.91689e-15 0)
(3 -7.75279e-16 0)
(3 1.577e-15 0)
(3 -1.38441e-16 0)
(3 -1.19344e-16 0)
(3 -1.25695e-16 0)
(3 -1.13573e-16 0)
(3 1.79522e-16 0)
(3 1.20093e-16 0)
(3 3.27253e-16 0)
(3 4.27329e-16 0)
(3 8.33109e-16 0)
(3 1.13077e-15 0)
(3 1.07964e-15 0)
(3 -5.41191e-16 0)
(3 -2.15823e-15 0)
(3 -2.69904e-15 0)
(3 -2.71926e-15 0)
(3 -2.69781e-15 0)
(3 -1.53348e-15 0)
(3 -5.75783e-16 0)
(3 -1.00494e-15 0)
(3 -2.24057e-15 0)
(3 -2.67769e-15 0)
(3 -3.7608e-15 0)
(3 -3.73994e-15 0)
(3 -3.18047e-15 0)
(3 -2.85411e-15 0)
(3 -2.9773e-15 0)
(3 -1.72779e-15 0)
(3 -1.01373e-15 0)
(3 -7.67926e-16 0)
(3 -5.82096e-16 0)
(3 -5.29991e-16 0)
(3 -4.79259e-17 0)
(3 1.77228e-16 0)
(3 -3.99995e-16 0)
(3 5.63091e-16 0)
(3 1.74515e-15 0)
(3 1.57262e-15 0)
(3 1.38111e-15 0)
(3 1.31369e-15 0)
(3 -8.56988e-17 0)
(3 -1.49014e-15 0)
(3 -1.01409e-15 0)
(3 -7.67115e-16 0)
(3 -3.62864e-16 0)
(3 -8.4015e-16 0)
(3 -1.72273e-15 0)
(3 -2.72492e-15 0)
(3 -1.39572e-15 0)
(3 -8.10416e-16 0)
(3 -1.07037e-16 0)
(3 1.56434e-15 0)
(3 2.17358e-15 0)
(3 1.63587e-15 0)
(3 1.13998e-15 0)
(3 3.6022e-16 0)
(3 2.57052e-16 0)
(3 1.97834e-15 0)
(3 1.76028e-15 0)
(3 2.06711e-15 0)
(3 1.56798e-15 0)
(3 1.05593e-15 0)
(3 7.41094e-16 0)
(3 -2.93624e-16 0)
(3 1.17214e-15 0)
(3 1.66257e-15 0)
(3 2.96686e-15 0)
(3 2.80094e-15 0)
(3 2.33336e-15 0)
(3 2.31692e-15 0)
(3 3.13003e-15 0)
(3 4.3659e-15 0)
(3 5.72716e-15 0)
(3 4.33921e-15 0)
(3 1.55256e-15 0)
(3 4.23779e-18 0)
(3 4.61369e-16 0)
(3 1.2238e-15 0)
(3 1.61797e-15 0)
(3 1.98543e-15 0)
(3 2.26248e-15 0)
(3 2.13011e-15 0)
(3 2.11964e-15 0)
(3 2.9875e-15 0)
(3 3.23344e-15 0)
(3 2.14519e-15 0)
(3 1.1927e-15 0)
(3 6.85251e-16 0)
(3 -9.35448e-17 0)
(3 7.94141e-16 0)
(3 1.28185e-15 0)
(3 1.85322e-15 0)
(3 2.19779e-15 0)
(3 1.13255e-15 0)
(3 1.81654e-15 0)
(3 2.18157e-15 0)
(3 2.63696e-15 0)
(3 7.33729e-18 0)
(3 -1.91743e-16 0)
(3 1.58202e-16 0)
(3 5.10609e-16 0)
(3 1.4277e-16 0)
(3 -1.37972e-16 0)
(3 -1.34109e-16 0)
(3 -3.81935e-16 0)
(3 -3.63487e-16 0)
(3 -6.10235e-16 0)
(3 -5.61529e-16 0)
(3 -1.02638e-15 0)
(3 -1.23306e-15 0)
(3 -1.15652e-15 0)
(3 -1.13053e-15 0)
(3 -8.5172e-17 0)
(3 4.99174e-16 0)
(3 6.22496e-16 0)
(3 -3.28692e-16 0)
(3 -6.75293e-16 0)
(3 -1.07448e-15 0)
(3 -1.56164e-15 0)
(3 -1.67879e-15 0)
(3 -2.7024e-15 0)
(3 -3.75257e-15 0)
(3 -3.88921e-15 0)
(3 -2.5816e-15 0)
(3 -1.8168e-15 0)
(3 -1.5336e-15 0)
(3 -6.45848e-16 0)
(3 -9.71934e-17 0)
(3 5.71761e-16 0)
(3 3.53657e-16 0)
(3 1.21344e-16 0)
(3 8.30127e-16 0)
(3 1.30838e-15 0)
(3 1.14052e-15 0)
(3 1.14271e-15 0)
(3 9.49952e-16 0)
(3 1.53168e-15 0)
(3 1.57711e-15 0)
(3 9.79135e-16 0)
(3 -2.66213e-16 0)
(3 -9.58996e-16 0)
(3 -7.20779e-16 0)
(3 -2.27232e-16 0)
(3 6.51904e-16 0)
(3 1.6342e-15 0)
(3 1.79886e-15 0)
(3 2.59631e-15 0)
(3 3.54329e-15 0)
(3 3.46526e-15 0)
(3 2.47648e-15 0)
(3 2.14744e-15 0)
(3 1.80128e-15 0)
(3 2.08346e-15 0)
(3 3.21366e-15 0)
(3 5.57933e-15 0)
(3 5.54934e-15 0)
(3 4.84005e-15 0)
(3 3.34636e-15 0)
(3 2.5581e-15 0)
(3 2.35081e-15 0)
(3 1.25595e-15 0)
(3 8.04125e-16 0)
(3 1.23844e-15 0)
(3 2.83748e-15 0)
(3 2.62101e-15 0)
(3 1.68599e-15 0)
(3 1.27368e-15 0)
(3 2.49329e-15 0)
(3 2.05534e-15 0)
(3 1.13163e-15 0)
(3 4.76415e-16 0)
(3 -1.4738e-16 0)
(3 7.05081e-16 0)
(3 5.86211e-16 0)
(3 5.14228e-16 0)
(3 2.3383e-16 0)
(3 4.36116e-16 0)
(3 1.00471e-15 0)
(3 1.57391e-15 0)
(3 2.04178e-15 0)
(3 3.59661e-15 0)
(3 4.16758e-15 0)
(3 3.29492e-15 0)
(3 1.85288e-15 0)
(3 9.32531e-16 0)
(3 -2.71816e-16 0)
(3 -4.80967e-17 0)
(3 1.17676e-15 0)
(3 3.6407e-15 0)
(3 5.19469e-15 0)
(3 5.05099e-15 0)
(3 4.62838e-15 0)
(3 3.9761e-15 0)
(3 -1.3393e-16 0)
(3 6.66381e-17 0)
(3 2.83944e-16 0)
(3 4.16442e-16 0)
(3 3.25349e-16 0)
(3 -7.1041e-16 0)
(3 -1.02345e-15 0)
(3 -1.24396e-15 0)
(3 -1.57964e-15 0)
(3 -1.73271e-15 0)
(3 -1.85934e-15 0)
(3 -1.28968e-15 0)
(3 -8.46934e-16 0)
(3 -8.86512e-16 0)
(3 1.7085e-16 0)
(3 1.27369e-15 0)
(3 7.78793e-16 0)
(3 3.76003e-16 0)
(3 8.34818e-18 0)
(3 1.45423e-16 0)
(3 2.37947e-16 0)
(3 1.05488e-17 0)
(3 -1.15388e-16 0)
(3 -7.87529e-16 0)
(3 -9.66856e-16 0)
(3 -1.59164e-15 0)
(3 -1.73084e-15 0)
(3 -8.0547e-16 0)
(3 -1.85282e-18 0)
(3 5.13858e-16 0)
(3 8.10693e-16 0)
(3 8.16578e-16 0)
(3 1.32586e-15 0)
(3 2.08385e-15 0)
(3 2.03082e-15 0)
(3 2.11122e-16 0)
(3 -1.56043e-15 0)
(3 -2.04734e-15 0)
(3 -1.17247e-15 0)
(3 2.19779e-15 0)
(3 2.82107e-15 0)
(3 2.47307e-15 0)
(3 1.45783e-15 0)
(3 1.12693e-15 0)
(3 1.57246e-15 0)
(3 2.9105e-15 0)
(3 4.33559e-15 0)
(3 4.01581e-15 0)
(3 3.45438e-15 0)
(3 3.13989e-15 0)
(3 2.50919e-15 0)
(3 1.44549e-15 0)
(3 1.23465e-17 0)
(3 -7.81288e-16 0)
(3 -6.92936e-16 0)
(3 3.25911e-16 0)
(3 1.90248e-15 0)
(3 3.83774e-15 0)
(3 4.43944e-15 0)
(3 3.70225e-15 0)
(3 2.57618e-15 0)
(3 1.85203e-15 0)
(3 1.41819e-15 0)
(3 8.79823e-16 0)
(3 4.81087e-16 0)
(3 1.61582e-16 0)
(3 3.64897e-16 0)
(3 2.29019e-16 0)
(3 -9.65273e-17 0)
(3 -1.17046e-16 0)
(3 4.22354e-16 0)
(3 1.41954e-15 0)
(3 2.32447e-15 0)
(3 3.15033e-15 0)
(3 3.46637e-15 0)
(3 3.13213e-15 0)
(3 1.46887e-15 0)
(3 5.31962e-16 0)
(3 1.39224e-16 0)
(3 -1.44992e-15 0)
(3 -2.50577e-16 0)
(3 2.78815e-15 0)
(3 3.29761e-15 0)
(3 3.78374e-15 0)
(3 3.98995e-15 0)
(3 3.05833e-15 0)
(3 2.28725e-15 0)
(3 9.3225e-16 0)
(3 7.04308e-17 0)
(3 -9.13966e-16 0)
(3 2.11137e-15 0)
(3 4.07216e-15 0)
(3 4.90708e-15 0)
(3 4.99238e-15 0)
(3 5.03753e-15 0)
(3 4.77521e-15 0)
(3 -2.15258e-17 0)
(3 -1.7927e-16 0)
(3 -3.58405e-16 0)
(3 -6.68668e-16 0)
(3 -5.54748e-16 0)
(3 -7.1452e-16 0)
(3 -1.06962e-15 0)
(3 -1.00919e-15 0)
(3 -9.66026e-16 0)
(3 -8.59553e-16 0)
(3 -9.45418e-16 0)
(3 -8.02866e-16 0)
(3 -4.66847e-16 0)
(3 4.4366e-16 0)
(3 7.92639e-16 0)
(3 6.53651e-16 0)
(3 4.74438e-16 0)
(3 1.21089e-15 0)
(3 2.42348e-15 0)
(3 2.05188e-15 0)
(3 2.20462e-15 0)
(3 2.17376e-15 0)
(3 1.44004e-15 0)
(3 1.47429e-15 0)
(3 1.49427e-15 0)
(3 1.04429e-15 0)
(3 4.00355e-16 0)
(3 4.82422e-16 0)
(3 1.28111e-15 0)
(3 1.74002e-15 0)
(3 2.25804e-15 0)
(3 4.52106e-16 0)
(3 7.1039e-16 0)
(3 3.23177e-16 0)
(3 -6.0753e-16 0)
(3 -1.27007e-15 0)
(3 -3.4964e-15 0)
(3 -3.80132e-15 0)
(3 -1.88754e-15 0)
(3 9.55267e-16 0)
(3 2.16145e-15 0)
(3 2.44543e-15 0)
(3 3.05334e-15 0)
(3 2.38781e-15 0)
(3 2.18099e-15 0)
(3 3.95665e-15 0)
(3 4.38358e-15 0)
(3 3.67296e-15 0)
(3 3.05646e-15 0)
(3 2.65919e-15 0)
(3 2.21974e-15 0)
(3 -4.19259e-16 0)
(3 -1.55074e-15 0)
(3 -2.49094e-15 0)
(3 -2.47254e-15 0)
(3 -2.12196e-15 0)
(3 -7.16036e-16 0)
(3 9.29567e-17 0)
(3 1.00227e-15 0)
(3 1.54259e-15 0)
(3 1.0561e-15 0)
(3 9.04859e-16 0)
(3 2.5431e-16 0)
(3 6.71051e-16 0)
(3 6.57026e-16 0)
(3 -1.21877e-15 0)
(3 -3.3276e-15 0)
(3 -3.93036e-15 0)
(3 -2.18789e-15 0)
(3 -1.11958e-15 0)
(3 -1.21327e-15 0)
(3 -6.28492e-16 0)
(3 3.86382e-16 0)
(3 2.13847e-15 0)
(3 4.03051e-15 0)
(3 4.39898e-15 0)
(3 3.19022e-15 0)
(3 1.51752e-15 0)
(3 7.46862e-16 0)
(3 -1.30054e-15 0)
(3 -2.20946e-15 0)
(3 -7.15299e-16 0)
(3 1.28168e-15 0)
(3 1.88222e-15 0)
(3 2.77756e-15 0)
(3 1.71002e-15 0)
(3 1.73379e-16 0)
(3 -1.0357e-16 0)
(3 -5.46059e-16 0)
(3 -3.42046e-16 0)
(3 3.56306e-16 0)
(3 9.84566e-16 0)
(3 1.21055e-15 0)
(3 1.64989e-15 0)
(3 2.38677e-15 0)
(3 3.62255e-15 0)
(3 1.57703e-16 0)
(3 2.07985e-16 0)
(3 -2.61146e-16 0)
(3 -6.85711e-16 0)
(3 -6.783e-16 0)
(3 4.18659e-17 0)
(3 -9.29714e-17 0)
(3 8.86627e-17 0)
(3 2.2929e-16 0)
(3 4.61207e-17 0)
(3 1.81574e-16 0)
(3 -1.07071e-16 0)
(3 -1.34526e-16 0)
(3 -5.92316e-18 0)
(3 2.60287e-16 0)
(3 3.49502e-16 0)
(3 8.48908e-16 0)
(3 8.20813e-16 0)
(3 2.04149e-15 0)
(3 2.73237e-15 0)
(3 2.68396e-15 0)
(3 2.11799e-15 0)
(3 1.51167e-15 0)
(3 2.2876e-15 0)
(3 2.78107e-15 0)
(3 3.32162e-15 0)
(3 3.23991e-15 0)
(3 2.44451e-15 0)
(3 1.94286e-15 0)
(3 1.50191e-15 0)
(3 1.55658e-15 0)
(3 3.15027e-16 0)
(3 -4.85856e-16 0)
(3 -1.29201e-15 0)
(3 -1.60532e-15 0)
(3 -1.98484e-15 0)
(3 -1.65531e-15 0)
(3 -1.16747e-15 0)
(3 -8.00496e-16 0)
(3 -5.50147e-16 0)
(3 7.02216e-16 0)
(3 2.12857e-15 0)
(3 2.3439e-15 0)
(3 2.76838e-15 0)
(3 2.44766e-15 0)
(3 3.05077e-15 0)
(3 2.87961e-15 0)
(3 1.64468e-15 0)
(3 7.99285e-16 0)
(3 1.61075e-15 0)
(3 1.67327e-15 0)
(3 2.84071e-16 0)
(3 4.31681e-16 0)
(3 -1.99698e-17 0)
(3 3.90177e-17 0)
(3 5.11737e-16 0)
(3 9.52208e-16 0)
(3 1.3807e-15 0)
(3 1.55397e-15 0)
(3 2.2158e-15 0)
(3 1.76465e-15 0)
(3 1.6033e-15 0)
(3 1.95335e-15 0)
(3 2.60095e-15 0)
(3 1.16687e-15 0)
(3 -9.82793e-16 0)
(3 -1.97566e-15 0)
(3 -3.15206e-15 0)
(3 -2.78139e-15 0)
(3 -2.55605e-15 0)
(3 -2.68418e-15 0)
(3 -3.30403e-15 0)
(3 -2.76191e-15 0)
(3 -1.94821e-15 0)
(3 -4.47295e-16 0)
(3 1.80724e-15 0)
(3 2.23742e-15 0)
(3 2.71048e-15 0)
(3 1.88317e-15 0)
(3 -1.18935e-15 0)
(3 -2.79593e-15 0)
(3 -2.79951e-15 0)
(3 -2.53719e-15 0)
(3 -1.13202e-15 0)
(3 5.02611e-16 0)
(3 1.25373e-15 0)
(3 1.73517e-15 0)
(3 1.80238e-15 0)
(3 2.23721e-15 0)
(3 1.34644e-15 0)
(3 -4.081e-17 0)
(3 -3.22913e-16 0)
(3 7.72099e-16 0)
(3 1.8608e-15 0)
(3 2.36074e-15 0)
(3 3.11898e-15 0)
(3 -1.21403e-17 0)
(3 3.43728e-17 0)
(3 3.29081e-16 0)
(3 2.97005e-16 0)
(3 4.96986e-16 0)
(3 6.59616e-16 0)
(3 7.68529e-16 0)
(3 6.55437e-16 0)
(3 7.08529e-16 0)
(3 4.20827e-16 0)
(3 2.80604e-16 0)
(3 -1.80332e-16 0)
(3 -1.63215e-16 0)
(3 -1.55205e-16 0)
(3 2.7781e-16 0)
(3 2.16937e-16 0)
(3 -1.00597e-16 0)
(3 -8.34238e-16 0)
(3 -3.31983e-16 0)
(3 1.00117e-15 0)
(3 6.99353e-16 0)
(3 3.60978e-16 0)
(3 6.17477e-16 0)
(3 2.57577e-15 0)
(3 3.53392e-15 0)
(3 3.04188e-15 0)
(3 1.85131e-15 0)
(3 1.18112e-15 0)
(3 9.32891e-16 0)
(3 -1.12378e-16 0)
(3 -4.12433e-16 0)
(3 -5.41706e-16 0)
(3 -8.13315e-16 0)
(3 -6.07763e-16 0)
(3 -6.29942e-16 0)
(3 -9.9184e-16 0)
(3 8.43896e-16 0)
(3 3.05574e-15 0)
(3 2.00687e-15 0)
(3 2.9616e-16 0)
(3 5.56221e-16 0)
(3 1.71809e-15 0)
(3 1.88238e-15 0)
(3 3.00025e-15 0)
(3 2.90241e-15 0)
(3 2.09613e-15 0)
(3 2.01955e-15 0)
(3 2.876e-15 0)
(3 2.694e-15 0)
(3 3.8857e-15 0)
(3 4.10973e-15 0)
(3 1.90954e-15 0)
(3 1.51035e-15 0)
(3 1.90824e-15 0)
(3 2.47271e-15 0)
(3 2.48588e-15 0)
(3 2.54605e-15 0)
(3 2.54843e-15 0)
(3 2.17683e-15 0)
(3 1.85325e-15 0)
(3 1.82476e-15 0)
(3 1.03085e-15 0)
(3 1.76684e-15 0)
(3 1.04456e-15 0)
(3 2.01748e-16 0)
(3 -5.51058e-18 0)
(3 8.17875e-16 0)