/*--------------------------------*- C++ -*----------------------------------*\
  =========                 |
  \\      /  F ield         | OpenFOAM: The Open Source CFD Toolbox
   \\    /   O peration     | Website:  https://openfoam.org
    \\  /    A nd           | Version:  7
     \\/     M anipulation  |
\*---------------------------------------------------------------------------*/
FoamFile
{
    version     2.0;
    format      ascii;
    class       volVectorField;
    location    "0.9";
    object      U;
}
// * * * * * * * * * * * * * * * * * * * * * * * * * * * * * * * * * * * * * //

dimensions      [0 1 -1 0 0 0 0];

internalField   nonuniform List<vector> 
73728
(
(3 -2.25046e-17 0)
(3 -7.72655e-17 0)
(3 -1.76493e-16 0)
(3 -2.73121e-16 0)
(3 1.04938e-16 0)
(3 6.55063e-17 0)
(3 4.94934e-16 0)
(3 1.12787e-15 0)
(3 7.23464e-16 0)
(3 5.80179e-16 0)
(3 5.46277e-16 0)
(3 8.99076e-16 0)
(3 8.95735e-16 0)
(3 1.09963e-15 0)
(3 1.35037e-15 0)
(3 1.87413e-15 0)
(3 1.84339e-15 0)
(3 1.89246e-15 0)
(3 1.96145e-15 0)
(3 1.90848e-15 0)
(3 1.7455e-15 0)
(3 8.3695e-16 0)
(3 3.54538e-16 0)
(3 2.59428e-18 0)
(3 2.74549e-16 0)
(3 2.73279e-16 0)
(3 8.63096e-17 0)
(3 1.60858e-16 0)
(3 2.77437e-17 0)
(3 2.59779e-16 0)
(3 1.60794e-16 0)
(3 -5.51198e-16 0)
(3 -7.97647e-16 0)
(3 -1.36606e-15 0)
(3 -1.63299e-15 0)
(3 -1.25521e-15 0)
(3 -3.6345e-16 0)
(3 8.07175e-16 0)
(3 1.54617e-15 0)
(3 1.85666e-15 0)
(3 1.80157e-15 0)
(3 1.04337e-15 0)
(3 1.35826e-15 0)
(3 1.65938e-15 0)
(3 2.4033e-15 0)
(3 2.14477e-15 0)
(3 1.31348e-15 0)
(3 7.92219e-16 0)
(3 6.75226e-16 0)
(3 7.13057e-16 0)
(3 1.29698e-15 0)
(3 1.61119e-15 0)
(3 1.80528e-15 0)
(3 1.06331e-15 0)
(3 7.21197e-16 0)
(3 3.05905e-16 0)
(3 -6.43188e-18 0)
(3 -3.76011e-16 0)
(3 -3.44247e-16 0)
(3 -2.53536e-17 0)
(3 -1.65097e-15 0)
(3 -2.68148e-15 0)
(3 -1.75453e-15 0)
(3 -4.64666e-16 0)
(3 -2.584e-16 0)
(3 -2.61514e-16 0)
(3 2.93996e-17 0)
(3 -2.72283e-16 0)
(3 7.01477e-16 0)
(3 1.08879e-15 0)
(3 2.17731e-15 0)
(3 2.75488e-15 0)
(3 2.27539e-15 0)
(3 2.01096e-15 0)
(3 2.64417e-15 0)
(3 3.06988e-15 0)
(3 3.08742e-15 0)
(3 3.37055e-15 0)
(3 3.74174e-15 0)
(3 3.64656e-15 0)
(3 2.85595e-15 0)
(3 1.69745e-15 0)
(3 1.39147e-16 0)
(3 -7.3283e-16 0)
(3 -1.3937e-15 0)
(3 -1.50558e-15 0)
(3 -1.31173e-15 0)
(3 -1.43196e-16 0)
(3 1.61348e-15 0)
(3 3.19054e-15 0)
(3 2.85525e-15 0)
(3 1.05964e-15 0)
(3 6.10233e-16 0)
(3 -4.60165e-16 0)
(3 -1.36268e-15 0)
(3 -1.96022e-15 0)
(3 -2.48471e-16 0)
(3 -6.51005e-16 0)
(3 -9.16576e-16 0)
(3 -7.02687e-16 0)
(3 -2.4074e-16 0)
(3 9.75288e-17 0)
(3 5.7067e-16 0)
(3 9.60399e-16 0)
(3 8.10104e-16 0)
(3 9.36906e-16 0)
(3 4.48158e-16 0)
(3 4.67956e-16 0)
(3 6.32848e-16 0)
(3 1.20999e-15 0)
(3 1.52511e-15 0)
(3 1.97288e-15 0)
(3 1.74684e-15 0)
(3 1.61389e-15 0)
(3 1.03374e-15 0)
(3 1.20939e-15 0)
(3 1.0004e-15 0)
(3 -9.3822e-16 0)
(3 -1.73564e-15 0)
(3 -1.59229e-15 0)
(3 -8.33761e-16 0)
(3 -9.48939e-16 0)
(3 -1.50787e-15 0)
(3 -1.38248e-15 0)
(3 -1.35591e-15 0)
(3 -1.16205e-15 0)
(3 -1.06274e-15 0)
(3 -6.57794e-16 0)
(3 -4.85955e-16 0)
(3 -5.16911e-16 0)
(3 -1.81043e-16 0)
(3 7.84604e-17 0)
(3 6.6962e-16 0)
(3 1.15286e-15 0)
(3 1.65583e-15 0)
(3 1.81464e-15 0)
(3 1.49181e-15 0)
(3 1.35492e-15 0)
(3 1.2344e-15 0)
(3 1.22227e-15 0)
(3 2.22716e-15 0)
(3 2.63333e-15 0)
(3 2.10052e-15 0)
(3 1.58228e-15 0)
(3 9.54391e-16 0)
(3 9.5578e-16 0)
(3 1.40852e-15 0)
(3 1.08742e-15 0)
(3 1.2612e-15 0)
(3 9.36559e-16 0)
(3 -4.76789e-17 0)
(3 -7.11828e-16 0)
(3 -8.98061e-16 0)
(3 -1.33321e-15 0)
(3 -1.05808e-15 0)
(3 -7.13319e-16 0)
(3 -1.61555e-15 0)
(3 -2.07031e-15 0)
(3 -6.87221e-16 0)
(3 6.47522e-16 0)
(3 1.90714e-15 0)
(3 2.39096e-15 0)
(3 2.35423e-15 0)
(3 1.95289e-15 0)
(3 3.18845e-15 0)
(3 3.85434e-15 0)
(3 4.82258e-15 0)
(3 4.93529e-15 0)
(3 4.92546e-15 0)
(3 5.89525e-15 0)
(3 6.56725e-15 0)
(3 5.2683e-15 0)
(3 4.19686e-15 0)
(3 3.40783e-15 0)
(3 3.2774e-15 0)
(3 3.08626e-15 0)
(3 2.64051e-15 0)
(3 1.05282e-15 0)
(3 -5.65008e-16 0)
(3 -1.43812e-15 0)
(3 -1.3636e-15 0)
(3 -1.59265e-15 0)
(3 -9.64044e-16 0)
(3 1.1399e-15 0)
(3 4.27528e-15 0)
(3 6.5641e-15 0)
(3 5.50328e-15 0)
(3 1.43673e-15 0)
(3 9.65704e-17 0)
(3 -7.90677e-16 0)
(3 -1.35364e-15 0)
(3 -2.11325e-15 0)
(3 -9.55151e-17 0)
(3 -1.32691e-16 0)
(3 -3.80411e-16 0)
(3 -6.32899e-16 0)
(3 -4.63463e-16 0)
(3 3.39699e-16 0)
(3 4.53316e-16 0)
(3 -1.25355e-16 0)
(3 -1.17068e-16 0)
(3 -1.66294e-16 0)
(3 -7.47697e-16 0)
(3 -1.16575e-15 0)
(3 -9.47221e-16 0)
(3 -4.09177e-16 0)
(3 4.39757e-16 0)
(3 9.216e-17 0)
(3 -4.30812e-17 0)
(3 1.4682e-16 0)
(3 6.55825e-16 0)
(3 8.90131e-16 0)
(3 6.61391e-16 0)
(3 1.05014e-15 0)
(3 6.91064e-16 0)
(3 4.40117e-16 0)
(3 2.8126e-16 0)
(3 -4.74529e-16 0)
(3 -1.62969e-15 0)
(3 -1.94233e-15 0)
(3 -2.43169e-15 0)
(3 -2.83266e-15 0)
(3 -2.41444e-15 0)
(3 -1.64167e-15 0)
(3 -8.66731e-16 0)
(3 -3.13236e-16 0)
(3 -8.1111e-17 0)
(3 -1.64404e-16 0)
(3 -1.52914e-16 0)
(3 -2.5294e-16 0)
(3 -2.32329e-16 0)
(3 -1.90053e-16 0)
(3 -2.54393e-16 0)
(3 3.95089e-16 0)
(3 6.04163e-16 0)
(3 8.56192e-16 0)
(3 1.21546e-15 0)
(3 2.11903e-15 0)
(3 2.25522e-15 0)
(3 2.20456e-15 0)
(3 1.95792e-15 0)
(3 1.37674e-15 0)
(3 3.22815e-16 0)
(3 -4.21601e-16 0)
(3 -5.58243e-16 0)
(3 -5.28151e-16 0)
(3 -6.65956e-16 0)
(3 -5.06542e-16 0)
(3 -1.02917e-16 0)
(3 -8.02913e-16 0)
(3 -1.1323e-15 0)
(3 -2.03647e-15 0)
(3 -2.30839e-15 0)
(3 -2.60844e-15 0)
(3 -2.35825e-15 0)
(3 -1.94616e-15 0)
(3 -1.37877e-15 0)
(3 -9.14439e-16 0)
(3 -1.79284e-15 0)
(3 -2.03618e-15 0)
(3 -1.92947e-15 0)
(3 -5.95903e-16 0)
(3 3.30421e-16 0)
(3 1.63627e-15 0)
(3 4.00203e-15 0)
(3 6.64119e-15 0)
(3 5.51182e-15 0)
(3 4.04874e-15 0)
(3 3.19723e-15 0)
(3 2.79431e-15 0)
(3 2.86656e-15 0)
(3 2.95189e-15 0)
(3 2.87048e-15 0)
(3 2.43832e-15 0)
(3 1.81277e-15 0)
(3 1.07516e-15 0)
(3 2.01794e-15 0)
(3 1.78195e-15 0)
(3 2.57437e-15 0)
(3 3.49363e-15 0)
(3 5.74949e-15 0)
(3 7.05355e-15 0)
(3 6.51266e-15 0)
(3 5.8761e-15 0)
(3 3.56918e-15 0)
(3 2.47417e-15 0)
(3 1.33231e-15 0)
(3 1.46779e-15 0)
(3 2.1777e-16 0)
(3 2.4982e-17 0)
(3 -4.16051e-16 0)
(3 -7.13792e-16 0)
(3 -4.52054e-17 0)
(3 -1.53231e-17 0)
(3 -1.42816e-16 0)
(3 -5.54277e-16 0)
(3 -9.86239e-16 0)
(3 -1.51842e-15 0)
(3 -1.25113e-15 0)
(3 -1.47608e-15 0)
(3 -1.75483e-15 0)
(3 -2.04882e-15 0)
(3 -1.68073e-15 0)
(3 -1.42227e-15 0)
(3 -1.00138e-15 0)
(3 -1.04394e-15 0)
(3 2.06916e-16 0)
(3 6.24417e-16 0)
(3 1.25539e-15 0)
(3 2.09809e-15 0)
(3 2.38692e-15 0)
(3 1.79366e-15 0)
(3 1.04672e-15 0)
(3 2.69087e-16 0)
(3 6.35957e-16 0)
(3 1.40266e-15 0)
(3 1.38523e-15 0)
(3 5.43041e-16 0)
(3 -1.9075e-16 0)
(3 -1.05703e-15 0)
(3 -1.08239e-15 0)
(3 -1.88523e-16 0)
(3 -6.44046e-16 0)
(3 -3.66583e-16 0)
(3 3.40633e-18 0)
(3 5.04548e-16 0)
(3 4.90942e-16 0)
(3 3.07905e-16 0)
(3 3.27821e-16 0)
(3 1.45303e-15 0)
(3 2.3971e-15 0)
(3 3.07613e-15 0)
(3 3.72086e-15 0)
(3 4.21359e-15 0)
(3 4.30246e-15 0)
(3 3.36145e-15 0)
(3 1.20892e-15 0)
(3 6.83402e-16 0)
(3 -4.46978e-16 0)
(3 -1.45081e-15 0)
(3 -2.28476e-15 0)
(3 -2.83299e-15 0)
(3 -2.61165e-15 0)
(3 -2.06893e-15 0)
(3 -1.54648e-15 0)
(3 -1.7276e-15 0)
(3 -2.50048e-15 0)
(3 -3.43852e-15 0)
(3 -2.88509e-15 0)
(3 -1.68326e-15 0)
(3 -1.43711e-15 0)
(3 -1.02001e-15 0)
(3 -1.245e-15 0)
(3 -1.7915e-15 0)
(3 -2.63411e-15 0)
(3 -3.3131e-15 0)
(3 -3.99104e-15 0)
(3 -3.9961e-15 0)
(3 -2.77569e-15 0)
(3 -7.7681e-16 0)
(3 1.18674e-15 0)
(3 1.47794e-15 0)
(3 1.31639e-15 0)
(3 1.66887e-15 0)
(3 2.50681e-15 0)
(3 2.64119e-15 0)
(3 2.92623e-15 0)
(3 3.01963e-15 0)
(3 2.41417e-15 0)
(3 2.25464e-15 0)
(3 2.65843e-15 0)
(3 2.92249e-15 0)
(3 3.20144e-15 0)
(3 3.52601e-15 0)
(3 3.53776e-15 0)
(3 3.6147e-15 0)
(3 4.56143e-15 0)
(3 5.27981e-15 0)
(3 6.37148e-15 0)
(3 6.80892e-15 0)
(3 5.86127e-15 0)
(3 3.89417e-15 0)
(3 4.74624e-15 0)
(3 5.48919e-15 0)
(3 4.54434e-17 0)
(3 -2.6048e-16 0)
(3 -2.3812e-16 0)
(3 5.18343e-17 0)
(3 4.90712e-17 0)
(3 -8.32343e-16 0)
(3 -6.30904e-16 0)
(3 -5.06488e-16 0)
(3 -2.95906e-16 0)
(3 -7.22544e-17 0)
(3 7.61623e-16 0)
(3 8.37541e-16 0)
(3 4.94115e-16 0)
(3 -3.78088e-16 0)
(3 -6.91504e-16 0)
(3 -7.19095e-16 0)
(3 -3.06349e-16 0)
(3 -1.2804e-16 0)
(3 -2.93832e-16 0)
(3 -1.80371e-16 0)
(3 5.03102e-16 0)
(3 9.37855e-16 0)
(3 8.86162e-16 0)
(3 6.14429e-16 0)
(3 5.98997e-16 0)
(3 9.25865e-16 0)
(3 2.47362e-15 0)
(3 4.86812e-15 0)
(3 4.84179e-15 0)
(3 4.06296e-15 0)
(3 2.12328e-15 0)
(3 1.05381e-16 0)
(3 -1.45298e-15 0)
(3 -1.65191e-15 0)
(3 -2.24143e-15 0)
(3 -1.59481e-15 0)
(3 -1.07632e-15 0)
(3 -4.78375e-16 0)
(3 -2.11486e-16 0)
(3 1.67622e-17 0)
(3 4.13631e-16 0)
(3 5.13703e-16 0)
(3 1.70567e-15 0)
(3 2.94143e-15 0)
(3 3.71213e-15 0)
(3 4.04019e-15 0)
(3 4.20618e-15 0)
(3 4.02419e-15 0)
(3 3.78489e-15 0)
(3 1.73827e-15 0)
(3 5.76789e-16 0)
(3 -6.50775e-16 0)
(3 -1.79893e-15 0)
(3 -2.65829e-15 0)
(3 -2.6233e-15 0)
(3 -2.96555e-15 0)
(3 -3.28086e-15 0)
(3 -3.31408e-15 0)
(3 -2.9627e-15 0)
(3 -2.68055e-15 0)
(3 -1.89479e-15 0)
(3 -1.40347e-15 0)
(3 -6.28023e-16 0)
(3 3.48568e-16 0)
(3 4.06429e-16 0)
(3 -4.04203e-16 0)
(3 -1.09974e-15 0)
(3 -1.62751e-15 0)
(3 -1.66872e-15 0)
(3 -1.15705e-15 0)
(3 -1.92246e-16 0)
(3 8.08439e-17 0)
(3 5.69198e-16 0)
(3 -1.42409e-16 0)
(3 -3.66019e-16 0)
(3 4.34684e-16 0)
(3 2.25052e-15 0)
(3 3.18966e-15 0)
(3 2.90926e-15 0)
(3 2.04112e-15 0)
(3 1.31145e-15 0)
(3 8.32845e-16 0)
(3 4.03614e-16 0)
(3 2.25209e-16 0)
(3 7.15185e-17 0)
(3 7.34113e-16 0)
(3 1.1769e-15 0)
(3 1.34405e-15 0)
(3 1.86908e-15 0)
(3 2.3233e-15 0)
(3 3.66e-15 0)
(3 4.47814e-15 0)
(3 5.06741e-15 0)
(3 5.25791e-15 0)
(3 5.93259e-15 0)
(3 5.48344e-15 0)
(3 1.58759e-18 0)
(3 -4.88958e-18 0)
(3 2.27911e-16 0)
(3 2.75853e-16 0)
(3 -2.32152e-16 0)
(3 -3.5362e-16 0)
(3 -1.98017e-16 0)
(3 -1.47931e-16 0)
(3 2.73012e-16 0)
(3 6.95236e-16 0)
(3 7.50978e-16 0)
(3 1.13108e-15 0)
(3 1.56108e-15 0)
(3 1.15717e-15 0)
(3 7.26032e-16 0)
(3 6.42545e-16 0)
(3 3.27513e-16 0)
(3 2.60117e-16 0)
(3 5.29772e-16 0)
(3 3.35282e-16 0)
(3 3.9595e-16 0)
(3 2.22751e-16 0)
(3 -1.74427e-16 0)
(3 8.4281e-17 0)
(3 7.35027e-16 0)
(3 2.07022e-15 0)
(3 3.00871e-15 0)
(3 2.56859e-15 0)
(3 2.50478e-15 0)
(3 2.24917e-15 0)
(3 1.70695e-15 0)
(3 1.50608e-16 0)
(3 -2.35286e-15 0)
(3 -4.35143e-15 0)
(3 -4.42373e-15 0)
(3 -4.22826e-15 0)
(3 -3.93441e-15 0)
(3 -3.04604e-15 0)
(3 -2.32533e-15 0)
(3 -1.43594e-15 0)
(3 -8.85681e-16 0)
(3 -1.30896e-15 0)
(3 -1.54827e-15 0)
(3 -6.7288e-16 0)
(3 6.00823e-17 0)
(3 1.05149e-15 0)
(3 1.31276e-15 0)
(3 2.75879e-15 0)
(3 3.48254e-15 0)
(3 3.32429e-15 0)
(3 2.23062e-15 0)
(3 1.43056e-15 0)
(3 1.25937e-15 0)
(3 9.53249e-16 0)
(3 6.47848e-16 0)
(3 -1.94596e-16 0)
(3 -6.33644e-16 0)
(3 -1.01343e-15 0)
(3 -9.47806e-16 0)
(3 -7.88162e-16 0)
(3 -3.3701e-16 0)
(3 -2.90521e-17 0)
(3 3.54563e-16 0)
(3 2.27408e-15 0)
(3 2.40347e-15 0)
(3 1.50121e-15 0)
(3 6.16901e-16 0)
(3 -3.46285e-16 0)
(3 -3.28345e-16 0)
(3 -4.98128e-16 0)
(3 -7.67738e-16 0)
(3 -4.05494e-16 0)
(3 1.03312e-15 0)
(3 1.14154e-15 0)
(3 1.50121e-15 0)
(3 1.75473e-15 0)
(3 1.74716e-15 0)
(3 2.71958e-15 0)
(3 2.1902e-15 0)
(3 1.97979e-15 0)
(3 2.10633e-15 0)
(3 1.73019e-15 0)
(3 7.23828e-16 0)
(3 3.60467e-16 0)
(3 6.53354e-17 0)
(3 -1.78506e-16 0)
(3 6.95172e-16 0)
(3 1.80217e-15 0)
(3 2.59078e-15 0)
(3 2.14431e-15 0)
(3 1.0986e-15 0)
(3 5.31407e-17 0)
(3 1.97186e-15 0)
(3 4.955e-15 0)
(3 4.60696e-15 0)
(3 3.91688e-15 0)
(3 9.24023e-17 0)
(3 1.44821e-16 0)
(3 2.35754e-16 0)
(3 2.25466e-16 0)
(3 -3.78513e-16 0)
(3 -6.63589e-16 0)
(3 -8.32128e-16 0)
(3 -1.86179e-16 0)
(3 -4.9587e-17 0)
(3 -5.06612e-17 0)
(3 4.7393e-16 0)
(3 4.96409e-16 0)
(3 2.93099e-16 0)
(3 4.88635e-16 0)
(3 4.28836e-16 0)
(3 4.52611e-16 0)
(3 -7.8772e-17 0)
(3 -5.52606e-16 0)
(3 -5.73657e-16 0)
(3 -1.06632e-15 0)
(3 -1.06646e-15 0)
(3 -1.19694e-15 0)
(3 -1.39958e-15 0)
(3 -5.44861e-16 0)
(3 5.57537e-16 0)
(3 1.06593e-15 0)
(3 5.99262e-16 0)
(3 -7.14232e-16 0)
(3 -3.43359e-16 0)
(3 -5.53267e-16 0)
(3 -1.20448e-15 0)
(3 -1.71886e-15 0)
(3 -2.04469e-15 0)
(3 -2.91211e-15 0)
(3 -3.25066e-15 0)
(3 -3.26532e-15 0)
(3 -3.58407e-15 0)
(3 -3.1074e-15 0)
(3 -1.9375e-15 0)
(3 -7.9811e-16 0)
(3 -2.47796e-16 0)
(3 -4.08527e-16 0)
(3 -1.37213e-15 0)
(3 -1.9096e-15 0)
(3 -1.90235e-15 0)
(3 -2.35239e-15 0)
(3 -1.40365e-15 0)
(3 -8.37721e-16 0)
(3 1.12479e-15 0)
(3 2.14648e-15 0)
(3 2.34891e-15 0)
(3 1.62354e-15 0)
(3 1.33014e-15 0)
(3 2.04359e-15 0)
(3 1.87265e-15 0)
(3 1.51754e-15 0)
(3 1.70713e-15 0)
(3 -2.74699e-17 0)
(3 -2.02116e-16 0)
(3 -2.2869e-16 0)
(3 3.77195e-16 0)
(3 3.89178e-16 0)
(3 3.19556e-16 0)
(3 8.58944e-16 0)
(3 1.20224e-15 0)
(3 1.09261e-15 0)
(3 1.76724e-15 0)
(3 1.57141e-15 0)
(3 1.09127e-15 0)
(3 3.65874e-16 0)
(3 -1.19277e-15 0)
(3 -6.8395e-16 0)
(3 8.06634e-16 0)
(3 2.41463e-15 0)
(3 2.91573e-15 0)
(3 3.21559e-15 0)
(3 2.97914e-15 0)
(3 2.45792e-15 0)
(3 2.46472e-15 0)
(3 2.68673e-15 0)
(3 2.83539e-15 0)
(3 2.64923e-15 0)
(3 2.2578e-15 0)
(3 1.76154e-15 0)
(3 1.35141e-15 0)
(3 1.58655e-15 0)
(3 1.74076e-15 0)
(3 2.36154e-15 0)
(3 2.63578e-15 0)
(3 1.06357e-15 0)
(3 -1.06358e-15 0)
(3 -1.66778e-15 0)
(3 -1.2112e-15 0)
(3 -2.56038e-16 0)
(3 1.68026e-15 0)
(3 3.99067e-15 0)
(3 -2.35494e-17 0)
(3 5.31308e-16 0)
(3 5.9325e-16 0)
(3 5.01248e-16 0)
(3 6.44157e-16 0)
(3 5.56958e-16 0)
(3 5.7692e-16 0)
(3 9.53449e-16 0)
(3 7.90002e-16 0)
(3 1.12352e-15 0)
(3 1.83656e-15 0)
(3 1.83936e-15 0)
(3 1.38335e-15 0)
(3 1.1762e-15 0)
(3 9.01076e-16 0)
(3 1.16204e-15 0)
(3 6.5187e-16 0)
(3 -1.74428e-16 0)
(3 -2.3054e-15 0)
(3 -2.95113e-15 0)
(3 -3.09393e-15 0)
(3 -2.53563e-15 0)
(3 -1.47492e-15 0)
(3 -1.09289e-15 0)
(3 -7.38341e-16 0)
(3 -1.08162e-15 0)
(3 -2.13023e-15 0)
(3 -2.69809e-15 0)
(3 -2.56461e-15 0)
(3 -2.64725e-15 0)
(3 -2.42661e-15 0)
(3 -2.3902e-15 0)
(3 -1.64097e-15 0)
(3 -1.95052e-15 0)
(3 -1.8854e-15 0)
(3 -2.35798e-15 0)
(3 -1.92222e-15 0)
(3 -1.65232e-15 0)
(3 -7.83231e-16 0)
(3 3.5954e-17 0)
(3 2.32985e-16 0)
(3 6.83197e-16 0)
(3 -3.05182e-16 0)
(3 -3.28916e-15 0)
(3 -4.27358e-15 0)
(3 -4.49076e-15 0)
(3 -4.32366e-15 0)
(3 -3.08528e-15 0)
(3 -2.93924e-15 0)
(3 -2.83337e-15 0)
(3 -9.27e-16 0)
(3 -5.71768e-16 0)
(3 -1.17122e-15 0)
(3 -6.50878e-16 0)
(3 6.03561e-18 0)
(3 5.18227e-16 0)
(3 6.22417e-16 0)
(3 7.67729e-16 0)
(3 9.39239e-16 0)
(3 1.39282e-15 0)
(3 -2.48951e-16 0)
(3 -1.73255e-15 0)
(3 -2.27121e-15 0)
(3 -1.51345e-15 0)
(3 -4.01139e-16 0)
(3 1.83617e-15 0)
(3 2.24706e-15 0)
(3 2.69896e-15 0)
(3 2.16126e-15 0)
(3 1.85628e-15 0)
(3 1.3893e-15 0)
(3 1.65902e-15 0)
(3 2.23082e-15 0)
(3 2.66834e-15 0)
(3 3.54128e-15 0)
(3 3.81886e-15 0)
(3 4.11535e-15 0)
(3 3.74951e-15 0)
(3 3.01244e-15 0)
(3 2.4308e-15 0)
(3 2.2148e-15 0)
(3 2.02673e-15 0)
(3 1.99564e-15 0)
(3 1.45952e-15 0)
(3 1.43504e-15 0)
(3 1.52399e-15 0)
(3 1.11186e-15 0)
(3 6.56082e-16 0)
(3 1.09949e-15 0)
(3 6.65613e-16 0)
(3 -4.31447e-16 0)
(3 -1.09278e-15 0)
(3 -1.64812e-15 0)
(3 -1.7962e-15 0)
(3 -3.84623e-16 0)
(3 3.4925e-15 0)
(3 -1.45344e-16 0)
(3 5.71112e-17 0)
(3 2.02635e-17 0)
(3 1.345e-16 0)
(3 4.52372e-16 0)
(3 8.16102e-16 0)
(3 1.14553e-15 0)
(3 1.3469e-15 0)
(3 1.37915e-15 0)
(3 1.42434e-15 0)
(3 1.22622e-15 0)
(3 1.63143e-15 0)
(3 1.83204e-15 0)
(3 1.65965e-15 0)
(3 9.80396e-16 0)
(3 3.24782e-16 0)
(3 3.99943e-16 0)
(3 -7.6373e-17 0)
(3 -3.23236e-16 0)
(3 -5.30051e-16 0)
(3 -7.35693e-16 0)
(3 -1.06285e-15 0)
(3 -1.47808e-15 0)
(3 -1.89538e-15 0)
(3 -2.69995e-15 0)
(3 -3.27238e-15 0)
(3 -3.24679e-15 0)
(3 -3.34836e-15 0)
(3 -3.17691e-15 0)
(3 -2.69787e-15 0)
(3 -1.14335e-15 0)
(3 -8.81725e-16 0)
(3 -5.35533e-16 0)
(3 -1.48701e-15 0)
(3 -2.08382e-15 0)
(3 -2.57421e-15 0)
(3 -2.05605e-15 0)
(3 -1.36681e-15 0)
(3 -1.36376e-15 0)
(3 -1.03438e-15 0)
(3 -1.35232e-15 0)
(3 -1.84334e-15 0)
(3 -2.3692e-15 0)
(3 -4.53902e-15 0)
(3 -6.07354e-15 0)
(3 -5.29989e-15 0)
(3 -4.19442e-15 0)
(3 -4.03779e-15 0)
(3 -3.7393e-15 0)
(3 -4.24868e-15 0)
(3 -4.30331e-15 0)
(3 -3.51471e-15 0)
(3 -2.11345e-15 0)
(3 -1.85632e-15 0)
(3 -1.83959e-15 0)
(3 -1.18148e-15 0)
(3 -2.79675e-16 0)
(3 1.36362e-15 0)
(3 1.42741e-15 0)
(3 1.15435e-15 0)
(3 -4.92759e-16 0)
(3 -1.33206e-15 0)
(3 -1.77897e-15 0)
(3 -2.83345e-15 0)
(3 -2.79515e-15 0)
(3 -1.69721e-15 0)
(3 -1.37305e-15 0)
(3 -6.41702e-16 0)
(3 -7.16257e-16 0)
(3 -1.13986e-15 0)
(3 -1.24543e-15 0)
(3 -1.62511e-15 0)
(3 -8.32364e-16 0)
(3 2.97742e-16 0)
(3 1.86069e-15 0)
(3 3.87256e-15 0)
(3 4.01523e-15 0)
(3 3.29933e-15 0)
(3 2.08633e-15 0)
(3 1.92084e-15 0)
(3 1.58268e-15 0)
(3 1.48045e-15 0)
(3 1.57077e-15 0)
(3 1.83855e-15 0)
(3 1.02224e-15 0)
(3 6.58715e-16 0)
(3 2.19163e-16 0)
(3 -1.80721e-16 0)
(3 -3.25871e-16 0)
(3 1.35586e-16 0)
(3 1.4166e-16 0)
(3 -2.91004e-16 0)
(3 3.61455e-16 0)
(3 7.3731e-16 0)
(3 1.22156e-15 0)
(3 1.38875e-15 0)
(3 -1.27166e-16 0)
(3 -2.59932e-16 0)
(3 -6.22957e-17 0)
(3 -1.7954e-16 0)
(3 -1.5419e-16 0)
(3 1.82036e-16 0)
(3 2.26743e-16 0)
(3 2.78994e-16 0)
(3 3.44624e-16 0)
(3 1.32725e-16 0)
(3 -3.74257e-16 0)
(3 -5.12019e-16 0)
(3 -5.04395e-16 0)
(3 -4.96065e-16 0)
(3 -4.26193e-16 0)
(3 -6.18925e-16 0)
(3 -6.4947e-16 0)
(3 -3.28552e-16 0)
(3 2.02494e-16 0)
(3 2.56618e-16 0)
(3 -7.73545e-17 0)
(3 -6.84279e-16 0)
(3 -1.4078e-15 0)
(3 -1.71986e-15 0)
(3 -2.1422e-15 0)
(3 -1.62716e-15 0)
(3 -7.12876e-16 0)
(3 -4.00614e-17 0)
(3 -8.09575e-16 0)
(3 -9.26198e-16 0)
(3 -4.04588e-16 0)
(3 7.8104e-18 0)
(3 -1.47963e-16 0)
(3 -3.0947e-16 0)
(3 -4.89146e-16 0)
(3 -6.81207e-16 0)
(3 -1.47223e-15 0)
(3 -1.67216e-15 0)
(3 -2.58913e-15 0)
(3 -3.39534e-15 0)
(3 -2.9537e-15 0)
(3 -6.55285e-16 0)
(3 -3.63264e-16 0)
(3 -7.15725e-16 0)
(3 -9.72663e-16 0)
(3 -1.34313e-15 0)
(3 -1.03405e-15 0)
(3 -1.7532e-15 0)
(3 -1.82684e-15 0)
(3 -2.11523e-15 0)
(3 -3.00126e-15 0)
(3 -2.7809e-15 0)
(3 -1.92476e-15 0)
(3 -1.55214e-15 0)
(3 -1.75403e-15 0)
(3 -1.73966e-15 0)
(3 -9.28476e-16 0)
(3 4.55716e-17 0)
(3 1.22671e-16 0)
(3 -3.88895e-16 0)
(3 -1.20948e-16 0)
(3 8.94905e-16 0)
(3 -1.0294e-15 0)
(3 -2.15898e-15 0)
(3 -3.32517e-15 0)
(3 -3.72109e-15 0)
(3 -3.31633e-15 0)
(3 -2.38436e-15 0)
(3 -1.87749e-15 0)
(3 -2.05767e-15 0)
(3 -2.50314e-15 0)
(3 -2.98557e-15 0)
(3 -2.95848e-15 0)
(3 -1.99276e-15 0)
(3 -9.55201e-16 0)
(3 1.60938e-16 0)
(3 1.25908e-15 0)
(3 2.34273e-15 0)
(3 2.31192e-15 0)
(3 1.53976e-15 0)
(3 7.16971e-16 0)
(3 -1.81744e-16 0)
(3 -5.5371e-17 0)
(3 -3.57854e-16 0)
(3 -8.58303e-16 0)
(3 -1.11734e-15 0)
(3 -1.60673e-15 0)
(3 -2.25281e-15 0)
(3 -2.71409e-15 0)
(3 -2.14381e-15 0)
(3 -9.19889e-16 0)
(3 3.96904e-16 0)
(3 2.44876e-15 0)
(3 3.36517e-15 0)
(3 2.56523e-15 0)
(3 1.45774e-15 0)
(3 1.711e-16 0)
(3 1.52005e-16 0)
(3 -1.12081e-16 0)
(3 -7.25335e-16 0)
(3 -1.36037e-16 0)
(3 -7.80334e-17 0)
(3 -2.00119e-16 0)
(3 -5.60281e-16 0)
(3 -7.30768e-16 0)
(3 -6.37649e-16 0)
(3 -8.64457e-16 0)
(3 -5.53621e-16 0)
(3 -8.52002e-17 0)
(3 -2.55045e-16 0)
(3 -3.4315e-17 0)
(3 1.4307e-16 0)
(3 -3.23348e-16 0)
(3 -4.45099e-16 0)
(3 -8.39101e-16 0)
(3 -7.66023e-16 0)
(3 -7.03973e-16 0)
(3 -4.61884e-16 0)
(3 -4.6156e-16 0)
(3 -7.76555e-16 0)
(3 -3.8625e-16 0)
(3 5.27064e-16 0)
(3 1.9815e-15 0)
(3 2.58423e-15 0)
(3 2.32867e-15 0)
(3 9.0326e-16 0)
(3 1.56027e-16 0)
(3 -2.69213e-18 0)
(3 2.18234e-16 0)
(3 1.02494e-15 0)
(3 1.24764e-15 0)
(3 9.01622e-16 0)
(3 1.58949e-16 0)
(3 -7.3659e-16 0)
(3 -1.83165e-15 0)
(3 -1.9951e-15 0)
(3 -1.39112e-15 0)
(3 2.73587e-16 0)
(3 1.12608e-15 0)
(3 1.53158e-15 0)
(3 1.96328e-15 0)
(3 1.69306e-15 0)
(3 9.08782e-17 0)
(3 -8.76864e-16 0)
(3 -1.5875e-15 0)
(3 -8.91324e-16 0)
(3 -5.92459e-16 0)
(3 -8.71674e-16 0)
(3 -1.43161e-15 0)
(3 -1.68578e-15 0)
(3 -1.74866e-15 0)
(3 -1.12897e-15 0)
(3 -3.63989e-16 0)
(3 1.61234e-15 0)
(3 1.72465e-15 0)
(3 1.21991e-15 0)
(3 1.36432e-15 0)
(3 3.86864e-16 0)
(3 -3.23627e-15 0)
(3 -4.54945e-15 0)
(3 -4.89056e-15 0)
(3 -4.92679e-15 0)
(3 -4.67538e-15 0)
(3 -4.35754e-15 0)
(3 -3.92634e-15 0)
(3 -3.16838e-15 0)
(3 -1.91221e-15 0)
(3 -9.49128e-16 0)
(3 -5.78029e-16 0)
(3 1.81682e-16 0)
(3 5.11318e-16 0)
(3 -1.11381e-16 0)
(3 6.53615e-16 0)
(3 2.39293e-15 0)
(3 1.93031e-15 0)
(3 1.38403e-15 0)
(3 1.23902e-15 0)
(3 8.30391e-16 0)
(3 4.2176e-16 0)
(3 -1.34858e-16 0)
(3 5.12119e-16 0)
(3 5.53651e-17 0)
(3 -1.40493e-15 0)
(3 -2.32168e-15 0)
(3 -2.20584e-15 0)
(3 -1.78268e-15 0)
(3 -1.38373e-15 0)
(3 3.45795e-16 0)
(3 1.44648e-15 0)
(3 2.1864e-15 0)
(3 1.47751e-15 0)
(3 1.32183e-15 0)
(3 1.15968e-16 0)
(3 1.42563e-16 0)
(3 3.27281e-17 0)
(3 2.77657e-16 0)
(3 2.63987e-16 0)
(3 3.34259e-17 0)
(3 -2.61555e-16 0)
(3 -4.27318e-16 0)
(3 -1.85868e-16 0)
(3 6.68616e-17 0)
(3 -2.17725e-16 0)
(3 -5.49689e-16 0)
(3 -2.91341e-16 0)
(3 -1.04467e-16 0)
(3 1.05126e-16 0)
(3 -3.25506e-16 0)
(3 -1.27967e-15 0)
(3 -1.41953e-15 0)
(3 -1.06249e-15 0)
(3 -4.47077e-16 0)
(3 2.66407e-17 0)
(3 3.74178e-16 0)
(3 2.97695e-16 0)
(3 1.61848e-16 0)
(3 5.62031e-16 0)
(3 9.85219e-16 0)
(3 1.59505e-15 0)
(3 1.45466e-15 0)
(3 1.32229e-15 0)
(3 1.22666e-15 0)
(3 8.91065e-16 0)
(3 8.17484e-16 0)
(3 6.90233e-16 0)
(3 1.3224e-15 0)
(3 1.66898e-15 0)
(3 1.56264e-15 0)
(3 1.09891e-15 0)
(3 8.88144e-16 0)
(3 6.95341e-16 0)
(3 1.3566e-15 0)
(3 1.79067e-15 0)
(3 1.48859e-15 0)
(3 1.56649e-15 0)
(3 2.23658e-15 0)
(3 1.8728e-15 0)
(3 1.52093e-15 0)
(3 5.137e-16 0)
(3 -7.23533e-16 0)
(3 -1.29725e-15 0)
(3 -9.39103e-16 0)
(3 -1.38558e-16 0)
(3 -1.05788e-15 0)
(3 -1.36344e-15 0)
(3 -2.02056e-15 0)
(3 -1.8034e-15 0)
(3 -4.53647e-16 0)
(3 4.8742e-17 0)
(3 7.55923e-16 0)
(3 1.16119e-15 0)
(3 1.59624e-15 0)
(3 1.1556e-15 0)
(3 -3.12146e-16 0)
(3 -1.87426e-15 0)
(3 -2.06205e-15 0)
(3 -2.62753e-15 0)
(3 -3.86412e-15 0)
(3 -4.57885e-15 0)
(3 -4.61257e-15 0)
(3 -3.72905e-15 0)
(3 -1.57198e-15 0)
(3 -1.02108e-15 0)
(3 8.24856e-16 0)
(3 2.70098e-15 0)
(3 3.04988e-15 0)
(3 2.71595e-15 0)
(3 2.03789e-15 0)
(3 7.77406e-16 0)
(3 7.24314e-16 0)
(3 1.18684e-15 0)
(3 1.03058e-15 0)
(3 1.95531e-16 0)
(3 6.81109e-16 0)
(3 2.10718e-15 0)
(3 2.09876e-15 0)
(3 2.28381e-15 0)
(3 1.84315e-15 0)
(3 -5.4708e-17 0)
(3 -2.43167e-15 0)
(3 -1.95716e-15 0)
(3 -2.26511e-15 0)
(3 -2.66968e-15 0)
(3 -2.62318e-15 0)
(3 -2.71092e-15 0)
(3 -3.38927e-15 0)
(3 -3.93569e-15 0)
(3 -4.21789e-15 0)
(3 1.11885e-17 0)
(3 -5.29597e-17 0)
(3 2.81181e-16 0)
(3 4.00716e-16 0)
(3 -1.76981e-16 0)
(3 -9.66383e-17 0)
(3 -1.48775e-16 0)
(3 -2.24123e-16 0)
(3 -2.48513e-16 0)
(3 -3.43175e-16 0)
(3 -9.25485e-16 0)
(3 -2.42148e-15 0)
(3 -2.72771e-15 0)
(3 -2.2022e-15 0)
(3 -1.80961e-15 0)
(3 -2.27678e-15 0)
(3 -2.80891e-15 0)
(3 -2.72257e-15 0)
(3 -1.62681e-15 0)
(3 -1.1658e-15 0)
(3 -9.09801e-16 0)
(3 -8.13241e-16 0)
(3 -4.02004e-16 0)
(3 7.52103e-16 0)
(3 8.96728e-16 0)
(3 1.33985e-16 0)
(3 -4.81226e-16 0)
(3 -1.37325e-16 0)
(3 5.00954e-16 0)
(3 1.74388e-15 0)
(3 2.09486e-15 0)
(3 1.57033e-15 0)
(3 7.13837e-16 0)
(3 3.15945e-16 0)
(3 -4.06479e-16 0)
(3 -7.435e-16 0)
(3 -5.1988e-16 0)
(3 6.12407e-16 0)
(3 1.7647e-15 0)
(3 2.17403e-15 0)
(3 1.5273e-15 0)
(3 5.11616e-16 0)
(3 3.4648e-16 0)
(3 4.92056e-17 0)
(3 2.34057e-16 0)
(3 4.47915e-16 0)
(3 3.62444e-17 0)
(3 -1.16201e-15 0)
(3 -1.97007e-15 0)
(3 -2.41004e-15 0)
(3 -2.04201e-15 0)
(3 -1.82329e-15 0)
(3 -2.09163e-15 0)
(3 -1.56849e-15 0)
(3 -1.4259e-15 0)
(3 -8.89002e-16 0)
(3 -1.08137e-15 0)
(3 -3.22918e-15 0)
(3 -3.37436e-15 0)
(3 -2.92684e-15 0)
(3 -2.69645e-15 0)
(3 -2.63377e-15 0)
(3 -1.87771e-15 0)
(3 -2.34763e-16 0)
(3 -1.16201e-15 0)
(3 -1.93551e-15 0)
(3 -2.85905e-15 0)
(3 -2.54671e-15 0)
(3 -1.07033e-15 0)
(3 1.91567e-17 0)
(3 7.94434e-16 0)
(3 1.35648e-15 0)
(3 2.34333e-15 0)
(3 3.02e-15 0)
(3 2.49279e-15 0)
(3 1.94344e-15 0)
(3 1.59368e-15 0)
(3 1.29995e-15 0)
(3 1.10762e-15 0)
(3 7.42537e-16 0)
(3 6.34898e-16 0)
(3 2.47735e-16 0)
(3 1.10546e-16 0)
(3 1.19768e-15 0)
(3 1.00631e-15 0)
(3 7.34205e-16 0)
(3 7.14664e-16 0)
(3 2.29749e-16 0)
(3 4.03604e-17 0)
(3 -6.41258e-16 0)
(3 -1.16459e-15 0)
(3 -1.32185e-15 0)
(3 -2.01211e-15 0)
(3 -2.81465e-15 0)
(3 -3.21482e-15 0)
(3 -3.1195e-15 0)
(3 -1.58586e-16 0)
(3 -5.93437e-16 0)
(3 -4.76194e-16 0)
(3 -3.4761e-16 0)
(3 -1.56769e-16 0)
(3 -9.43224e-17 0)
(3 -1.64689e-16 0)
(3 -4.90804e-16 0)
(3 -2.42524e-16 0)
(3 -3.25731e-16 0)
(3 2.1986e-16 0)
(3 3.69584e-16 0)
(3 -1.85084e-16 0)
(3 -5.96827e-16 0)
(3 -1.6973e-15 0)
(3 -2.17151e-15 0)
(3 -1.52834e-15 0)
(3 -9.87174e-16 0)
(3 -8.11098e-16 0)
(3 -5.83034e-16 0)
(3 -7.93091e-16 0)
(3 -8.70153e-16 0)
(3 -2.88638e-16 0)
(3 3.69825e-16 0)
(3 4.78109e-16 0)
(3 -4.41773e-16 0)
(3 -1.17901e-15 0)
(3 -1.10822e-15 0)
(3 -9.40709e-16 0)
(3 -6.99005e-16 0)
(3 -1.26361e-16 0)
(3 7.22477e-16 0)
(3 1.7174e-15 0)
(3 1.36819e-15 0)
(3 7.69392e-16 0)
(3 1.02942e-15 0)
(3 2.02909e-15 0)
(3 2.19419e-15 0)
(3 2.49769e-15 0)
(3 2.01276e-15 0)
(3 8.30683e-16 0)
(3 4.88231e-16 0)
(3 -2.15513e-16 0)
(3 -3.66072e-16 0)
(3 -2.83607e-16 0)
(3 -2.6933e-16 0)
(3 -3.84728e-16 0)
(3 -8.31479e-16 0)
(3 -2.01245e-15 0)
(3 -3.24691e-15 0)
(3 -3.76284e-15 0)
(3 -3.43218e-15 0)
(3 -3.12362e-15 0)
(3 -2.79873e-15 0)
(3 -2.52318e-15 0)
(3 -2.88332e-15 0)
(3 -3.21023e-15 0)
(3 -5.61481e-15 0)
(3 -6.32408e-15 0)
(3 -5.64486e-15 0)
(3 -4.54524e-15 0)
(3 -3.77889e-15 0)
(3 -3.04359e-15 0)
(3 -1.86798e-15 0)
(3 -9.67474e-16 0)
(3 -3.21908e-16 0)
(3 9.31953e-16 0)
(3 3.4737e-16 0)
(3 -8.57375e-16 0)
(3 -7.30836e-16 0)
(3 -2.56728e-17 0)
(3 3.98993e-16 0)
(3 3.59781e-16 0)
(3 5.71831e-16 0)
(3 6.69734e-16 0)
(3 7.27043e-16 0)
(3 6.28945e-16 0)
(3 3.28174e-16 0)
(3 4.74184e-16 0)
(3 1.31616e-15 0)
(3 1.99658e-15 0)
(3 1.4198e-15 0)
(3 -8.60947e-17 0)
(3 1.35649e-16 0)
(3 5.03488e-16 0)
(3 8.9657e-16 0)
(3 1.92102e-15 0)
(3 2.28327e-15 0)
(3 2.34465e-15 0)
(3 9.16732e-16 0)
(3 1.50069e-15 0)
(3 4.8294e-16 0)
(3 -7.82543e-16 0)
(3 -1.71455e-15 0)
(3 -1.53843e-15 0)
(3 5.56512e-17 0)
(3 -2.96911e-17 0)
(3 1.31112e-16 0)
(3 1.06258e-16 0)
(3 2.68854e-16 0)
(3 3.56145e-16 0)
(3 4.33566e-16 0)
(3 4.29514e-16 0)
(3 3.86227e-16 0)
(3 6.73054e-16 0)
(3 1.44893e-15 0)
(3 3.10053e-15 0)
(3 3.64257e-15 0)
(3 3.3737e-15 0)
(3 1.9103e-15 0)
(3 1.91864e-16 0)
(3 8.14136e-17 0)
(3 7.81519e-16 0)
(3 1.18376e-15 0)
(3 1.66105e-15 0)
(3 1.49021e-15 0)
(3 1.57995e-15 0)
(3 2.07792e-15 0)
(3 2.47634e-15 0)
(3 2.37873e-15 0)
(3 1.33427e-15 0)
(3 4.06232e-16 0)
(3 -4.36324e-18 0)
(3 -1.66854e-16 0)
(3 -4.45662e-16 0)
(3 -7.80522e-16 0)
(3 -6.21861e-16 0)
(3 2.14971e-16 0)
(3 1.38682e-15 0)
(3 2.13273e-15 0)
(3 2.1142e-15 0)
(3 2.49878e-15 0)
(3 2.21028e-15 0)
(3 1.94752e-15 0)
(3 1.95417e-16 0)
(3 -1.72513e-15 0)
(3 -2.0512e-15 0)
(3 -2.10885e-15 0)
(3 -2.00153e-15 0)
(3 -2.38474e-15 0)
(3 -2.48467e-15 0)
(3 -2.68829e-15 0)
(3 -1.70928e-15 0)
(3 -1.27187e-15 0)
(3 -1.71442e-15 0)
(3 -1.89862e-15 0)
(3 -1.96529e-15 0)
(3 -3.40727e-15 0)
(3 -3.69263e-15 0)
(3 -3.85123e-15 0)
(3 -3.65376e-15 0)
(3 -4.40091e-15 0)
(3 -4.96324e-15 0)
(3 -4.8803e-15 0)
(3 -4.0227e-15 0)
(3 -3.18929e-15 0)
(3 -3.03792e-15 0)
(3 -2.64572e-15 0)
(3 -2.35265e-15 0)
(3 -1.75629e-15 0)
(3 -5.33065e-16 0)
(3 1.3342e-15 0)
(3 1.49759e-15 0)
(3 1.12386e-15 0)
(3 4.5857e-16 0)
(3 -8.99103e-16 0)
(3 -7.77431e-16 0)
(3 -9.0513e-16 0)
(3 -1.40942e-15 0)
(3 -1.49387e-15 0)
(3 -1.30863e-15 0)
(3 -5.98279e-16 0)
(3 -3.00332e-16 0)
(3 -4.91427e-16 0)
(3 -4.88359e-16 0)
(3 6.10182e-16 0)
(3 1.34581e-15 0)
(3 2.04089e-15 0)
(3 1.75035e-15 0)
(3 1.31408e-15 0)
(3 1.0068e-15 0)
(3 1.11023e-15 0)
(3 1.70508e-15 0)
(3 1.96915e-15 0)
(3 2.57576e-15 0)
(3 2.87108e-15 0)
(3 2.19198e-15 0)
(3 3.23911e-16 0)
(3 -1.47541e-15 0)
(3 -8.63234e-16 0)
(3 -3.22509e-17 0)
(3 -9.68918e-18 0)
(3 2.2554e-16 0)
(3 8.1009e-16 0)
(3 8.64564e-16 0)
(3 2.53756e-16 0)
(3 7.99201e-17 0)
(3 1.87515e-16 0)
(3 5.95483e-16 0)
(3 1.22726e-15 0)
(3 1.29136e-15 0)
(3 1.66662e-15 0)
(3 1.43188e-15 0)
(3 1.45879e-15 0)
(3 1.22462e-15 0)
(3 1.1313e-15 0)
(3 7.96927e-16 0)
(3 9.00376e-16 0)
(3 1.37839e-15 0)
(3 1.78311e-15 0)
(3 1.90165e-15 0)
(3 1.61041e-15 0)
(3 1.98459e-15 0)
(3 2.73273e-15 0)
(3 2.9426e-15 0)
(3 2.62346e-15 0)
(3 2.38805e-15 0)
(3 2.17067e-15 0)
(3 2.16857e-15 0)
(3 2.72338e-15 0)
(3 2.92201e-15 0)
(3 2.91362e-15 0)
(3 2.4143e-15 0)
(3 7.09711e-16 0)
(3 -2.94834e-16 0)
(3 4.55586e-16 0)
(3 2.18291e-16 0)
(3 -7.59999e-17 0)
(3 -1.04987e-15 0)
(3 -2.04223e-15 0)
(3 -3.82528e-15 0)
(3 -3.58792e-15 0)
(3 -3.60553e-15 0)
(3 -3.28464e-15 0)
(3 -2.84006e-15 0)
(3 -1.98127e-15 0)
(3 -1.80539e-15 0)
(3 -2.11999e-15 0)
(3 -2.67079e-15 0)
(3 -2.91992e-15 0)
(3 -1.32429e-15 0)
(3 -3.17153e-16 0)
(3 -7.60956e-16 0)
(3 -1.33257e-15 0)
(3 -1.46427e-15 0)
(3 -1.76365e-15 0)
(3 -1.7583e-15 0)
(3 -2.04142e-15 0)
(3 -2.30673e-15 0)
(3 -1.95965e-15 0)
(3 -1.42267e-15 0)
(3 -1.65942e-15 0)
(3 -1.67049e-15 0)
(3 -1.57694e-15 0)
(3 -1.05007e-15 0)
(3 -6.43662e-16 0)
(3 -2.21661e-16 0)
(3 4.43154e-16 0)
(3 9.55362e-16 0)
(3 8.46639e-16 0)
(3 1.4186e-15 0)
(3 1.9053e-16 0)
(3 -8.59613e-16 0)
(3 -8.35945e-16 0)
(3 -1.02904e-15 0)
(3 -1.31375e-15 0)
(3 -5.02515e-16 0)
(3 -5.02394e-16 0)
(3 -7.66545e-16 0)
(3 -1.24574e-15 0)
(3 -1.33357e-15 0)
(3 -1.01933e-15 0)
(3 -3.12752e-16 0)
(3 3.95111e-16 0)
(3 6.83489e-16 0)
(3 3.41093e-16 0)
(3 2.54868e-16 0)
(3 -2.62708e-17 0)
(3 -8.40515e-16 0)
(3 -1.27286e-15 0)
(3 -1.49769e-16 0)
(3 1.41631e-15 0)
(3 1.9247e-15 0)
(3 2.79052e-15 0)
(3 2.711e-15 0)
(3 2.73834e-15 0)
(3 2.71105e-15 0)
(3 1.53975e-15 0)
(3 -4.78881e-17 0)
(3 -1.17264e-16 0)
(3 -2.26046e-16 0)
(3 -2.18843e-16 0)
(3 -2.05543e-16 0)
(3 -2.07312e-16 0)
(3 -5.11853e-16 0)
(3 -4.99401e-16 0)
(3 -5.2619e-16 0)
(3 -1.46451e-15 0)
(3 -3.04359e-15 0)
(3 -2.95079e-15 0)
(3 -2.54744e-15 0)
(3 -4.31118e-16 0)
(3 1.88651e-15 0)
(3 1.72921e-15 0)
(3 2.23925e-15 0)
(3 2.18229e-15 0)
(3 2.55077e-15 0)
(3 2.72625e-15 0)
(3 1.83819e-15 0)
(3 1.26749e-15 0)
(3 1.39265e-15 0)
(3 1.96617e-15 0)
(3 2.67503e-15 0)
(3 4.23898e-15 0)
(3 4.9931e-15 0)
(3 4.62042e-15 0)
(3 4.00298e-15 0)
(3 4.14553e-15 0)
(3 3.66772e-15 0)
(3 3.51395e-15 0)
(3 2.12019e-15 0)
(3 9.59189e-16 0)
(3 6.10471e-16 0)
(3 -2.95594e-16 0)
(3 -1.12305e-15 0)
(3 -2.38152e-15 0)
(3 -2.7789e-15 0)
(3 -2.55257e-15 0)
(3 -2.12e-15 0)
(3 -1.12906e-15 0)
(3 -9.75843e-16 0)
(3 -5.8399e-16 0)
(3 -5.79687e-16 0)
(3 -1.5224e-15 0)
(3 -2.76306e-15 0)
(3 -2.81112e-15 0)
(3 -2.49218e-15 0)
(3 -1.33383e-15 0)
(3 -2.72174e-16 0)
(3 8.00392e-16 0)
(3 1.05456e-15 0)
(3 6.61556e-16 0)
(3 -2.50199e-17 0)
(3 -3.27984e-16 0)
(3 -6.45451e-16 0)
(3 -4.07796e-16 0)