/*--------------------------------*- C++ -*----------------------------------*\
  =========                 |
  \\      /  F ield         | OpenFOAM: The Open Source CFD Toolbox
   \\    /   O peration     | Website:  https://openfoam.org
    \\  /    A nd           | Version:  7
     \\/     M anipulation  |
\*---------------------------------------------------------------------------*/
FoamFile
{
    version     2.0;
    format      ascii;
    class       volScalarField;
    location    "2.8";
    object      p;
}
// * * * * * * * * * * * * * * * * * * * * * * * * * * * * * * * * * * * * * //

dimensions      [1 -1 -2 0 0 0 0];

internalField   nonuniform List<scalar> 
18432
(
1
1
1
1
1
1
1
1
1
1
1
1
1
1
1
1
1
1
1
1
1
1
1
1
1
1
1
1
1
1
1
1
1
1
1
1
1
1
1
1
1
1
1
1
1
1
1
1
1
1
1
1
1
1
1
1
1
1
1
1
1
1
1
1
1
1
1
1
1
1
1
1
1
1
1
1
1
1
1
1
1
1
1
1
1
1
1
1
1
1
1
1
1
1
1
1
1
1
1
1
1
1
1
1
1
1
1
1
1
1
1
1
1
1
1
1
1
1
1
1
1
1
1
1
1
1
1
1
1
1
1
1
1
1
1
1
1
1
1
1
1
1
1
1
1
1
1
1
1
1
1
1
1
1
1
1
1
1
1
1
1
1
1
1
1
1
1
1
1
1
1
1
1
1
1
1
1
1
1
1
1
1
1
1
1
1
1
1
1
1
1
1
1
1
1
1
1
1
1
1
1
1
1
1
1
1
1
1
1
1
1
1
1
1
1
1
1
1
1
1
1
1
1
1
1
1
1
1
1
1
1
1
1
1
1
1
1
1
1
1
1
1
1
1
1
1
1
1
1
1
1
1
1
1
1
1
1
1
1
1
1
1
1
1
1
1
1
1
1
1
1
1
1
1
1
1
1
1
1
1
1
1
1
1
1
1
1
1
1
1
1
1
1
1
1
1
1
1
1
1
1
1
1
1
1
1
1
1
1
1
1
1
1
1
1
1
1
1
1
1
1
1
1
1
1
1
1
1
1
1
1
1
1
1
1
1
1
1
1
1
1
1
1
1
1
1
1
1
1
1
1
1
1
1
1
1
1
1
1
1
1
1
1
1
1
1
1
1
1
1
1
1
1
1
1
1
1
1
1
1
1
1
1
1
1
1
1
1
1
1
1
1
1
1
1
1
1
1
1
1
1
1
1
1
1
1
1
1
1
1
1
1
1
1
1
1
1
1
1
1
1
1
1
1
1
1
1
1
1
1
1
1
1
1
1
1
1
1
1
1
1
1
1
1
1
1
1
1
1
1
1
1
1
1
1
1
1
1
1
1
1
1
1
1
1
1
1
1
1
1
1
1
1
1
1
1
1
1
1
1
1
1
1
1
1
1
1
1
1
1
1
1
1
1
1
1
1
1
1
1
1
1
1
1
1
1
1
1
1
1
1
1
1
1
1
1
1
1
1
1
1
1
1
1
1
1
1
1
1
1
1
1
1
1
1
1
1
1
1
1
1
1
1
1
1
1
1
1
1
1
1
1
1
1
1
1
1
1
1
1
1
1
1
1
1
1
1
1
1
1
1
1
1
1
1
1
1
1
1
1
1
1
1
1
1
1
1
1
1
1
1
1
1
1
1
1
1
1
1
1
1
1
1
1
1
1
1
1
1
1
1
1
1
1
1
1
1
1
1
1
1
1
1
1
1
1
1
1
1
1
1
1
1
1
1
1
1
1
1
1
1
1
1
1
1
1
1
1
1
1
1
1
1
1
1
1
1
1
1
1
1
1
1
1
1
1
1
1
1
1
1
1
1
1
1
1
1
1
1
1
1
1
1
1
1
1
1
1
1
1
1
1
1
1
1
1
1
1
1
1
1
1
1
1
1
1
1
1
1
1
1
1
1
1
1
1
1
1
1
1
1
1
1
1
1
1
1
1
1
1
1
1
1
1
1
1
1
1
1
1
1
1
1
1
1
1
1
1
1
1
1
1
1
1
1
1
1
1
1
1
1
1
1
1
1
1
1
1
1
1
1
1
1
1
1
1
1
1
1
1
1
1
1
1
1
1
1
1
1
1
1
1
1
1
1
1
1
1
1
1
1
1
1
1
1
1
1
1
1
1
1
1
1
1
1
1
1
1
1
1
1
1
1
1
1
1
1
1
1
1
1
1
1
1
1
1
1
1
1
1
1
1
1
1
1
1
1
1
1
1
1
1
1
1
1
1
1
1
1
1
1
1
1
1
1
1
1
1
1
1
1
1
1
1
1
1
1
1
1
1
1
1
1
1
1
1
1
1
1
1
1
1
1
1
1
1
1
1
1
1
1
1
1
1
1
1
1
1
1
1
1
1
1
1
1
1
1
1
1
1
1
1
1
1
1
1
1
1
1
1
1
1
1
1
1
1
1
1
1
1
1
1
1
1
1
1
1
1
1
1
1
1
1
1
1
1
1
1
1
1
1
1
1
1
1
1
1
1
1
1
1
1
1
1
1
1
1
1
1
1
1
1
1
1
1
1
1
1
1
1
1
1
1
1
1
1
1
1
1
1
1
1
1
1
1
1
1
1
1
1
1
1
1
1
1
1
1
1
1
1
1
1
1
1
1
1
1
1
1
1
1
1
1
1
1
1
1
1
1
1
1
1
1
1
1
1
1
1
1
1
1
1
1
1
1
1
1
1
1
1
1
1
1
1
1
1
1
1
1
1
1
1
1
1
1
1
1
1
1
1
1
1
1
1
1
1
1
1
1
1
1
1
1
1
1
1
1
1
1
1
1
1
1
1
1
1
1
1
1
1
1
1
1
1
1
1
1
1
1
1
1
1
1
1
1
1
1
1
1
1
1
1
1
1
1
1
1
1
1
1
1
1
1
1
1
1
1
1
1
1
1
1
1
1
1
1
1
1
1
1
1
1
1
1
1
1
1
1
1
1
1
1
1
1
1
1
1
1
1
1
1
1
1
1
1
1
1
1
1
1
1
1
1
1
1
1
1
1
1
1
1
1
1
1
1
1
1
1
1
1
1
1
1
1
1
1
1
1
1
1
1
1
1
1
1
1
1
1
1
1
1
1
1
1
1
1
1
1
1
1
1
1
1
1
1
1
1
1
1
1
1
1
1
1
1
1
1
1
1
1
1
1
1
1
1
1
1
1
1
1
1
1
1
1
1
1
1
1
1
1
1
1
1
1
1
1
1
1
1
1
1
1
1
1
1
1
1
1
1
1
1
1
1
1
1
1
1
1
1
1
1
1
1
1
1
1
1
1
1
1
1
1
1
1
1
1
1
1
1
1
1
1
1
1
1
1
1
1
1
1
1
1
1
1
1
1
1
1
1
1
1
1
1
1
1
1
1
1
1
1
1
1
1
1
1
1
1
1
1
1
1
1
1
1
1
1
1
1
1
1
1
1
1
1
1
1
1
1
1
1
1
1
1
1
1
1
1
1
1
1
1
1
1
1
1
1
1
1
1
1
1
1
1
1
1
1
1
1
1
1
1
1
1
1
1
1
1
1
1
1
1
1
1
1
1
1
1
1
1
1
1
1
1
1
1
1
1
1
1
1
1
1
1
1
1
1
1
1
1
1
1
1
1
1
1
1
1
1
1
1
1
1
1
1
1
1
1
1
1
1
1
1
1
1
1
1
1
1
1
1
1
1
1
1
1
1
1
1
1
1
1
1
1
1
1
1
1
1
1
1
1
1
1
1
1
1
1
1
1
1
1
1
1
1
1
1
1
1
1
1
1
1
1
1
1
1
1
1
1
1
1
1
1
1
1
1
1
1
1
1
1
1
1
1
1
1
1
1
1
1
1
1
1
1
1
1
1
1
1
1
1
1
1
1
1
1
1
1
1
1
1
1
1
1
1
1
1
1
1
1
1
1
1
1
1
1
1
1
1
1
1
1
1
1
1
1
1
1
1
1
1
1
1
1
1
1
1
1
1
1
1
1
1
1
1
1
1
1
1
1
1
1
1
1
1
1
1
1
1
1
1
1
1
1
1
1
1
1
1
1
1
1
1
1
1
1
1
1
1
1
1
1
1
1
1
1
1
1
1
1
1
1
1
1
1
1
1
1
1
1
1
1
1
1
1
1
1
1
1
1
1
1
1
1
1
1
1
1
1
1
1
1
1
1
1
1
1
1
1
1
1
1
1
1
1
1
1
1
1
1
1
1
1
1
1
1
1
1
1
1
1
1
1
1
1
1
1
1
1
1
1
1
1
1
1
1
1
1
1
1
1
1
1
1
1
1
1
1
1
1
1
1
1
1
1
1
1
1
1
1
1
1
1
1
1
1
1
1
1
1
1
1
1
1
1
1
1
1
1
1
1
1
1
1
1
1
1
1
1
1
1
1
1
1
1
1
1
1
1
1
1
1
1
1
1
1
1
1
1
1
1
1
1
1
1
1
1
1
1
1
1
1
1
1
1
1
1
1
1
1
1
1
1
1
1
1
1
1
1
1
1
1
1
1
1
1
1
1
1
1
1
1
1
1
1
1
1
1
1
1
1
1
1
1
1
1
1
1
1
1
1
1
1
1
1
1
1
1
1
1
1
1
1
1
1
1
1
1
1
1
1
1
1
1
1
1
1
1
1
1
1
1
1
1
1
1
1
1
1
1
1
1
1
1
1
1
1
1
1
1
1
1
1
1
1
1
1
1
1
1
1
1
1
1
1
1
1
1
1
1
1
1
1
1
1
1
1
1
1
1
1
1
1
1
1
1
1
1
1
1
1
1
1
1
1
1
1
1
1
1
1
1
1
1
1
1
1
1
1
1
1
1
1
1
1
1
1
1
1
1
1
1
1
1
1
1
1
1
1
1
1
1
1
1
1
1
1
1
1
1
1
1
1
1
1
1
1
1
1
1
1
1
1
1
1
1
1
1
1
1
1
1
1
1
1
1
1
1
1
1
1
1
1
1
1
1
1
1
1
1
1
1
1
1
1
1
1
1
1
1
1
1
1
1
1
1
1
1
1
1
1
1
1
1
1
1
1
1
1
1
1
1
1
1
1
1
1
1
1
1
1
1
1
1
1
1
1
1
1
1
1
1
1
1
1
1
1
1
1
1
1
1
1
1
1
1
1
1
1
1
1
1
1
1
1
1
1
1
1
1
1
1
1
1
1
1
1
1
1
1
1
1
1
1
1
1
1
1
1
1
1
1
1
1
1
1
1
1
1
1
1
1
1
1
1
1
1
1
1
1
1
1
1
1
1
1
1
1
1
1
1
1
1
1
1
1
1
1
1
1
1
1
1
1
1
1
1
1
1
1
1
1
1
1
1
1
1
1
1
1
1
1
1
1
1
1
1
1
1
1
1
1
1
1
1
1
1
1
1
1
1
1
1
1
1
1
1
1
1
1
1
1
1
1
1
1
1
1
1
1
1
1
1
1
1
1
1
1
1
1
1
1
1
1
1
1
1
1
1
1
1
1
1
1
1
1
1
1
1
1
1
1
1
1
1
1
1
1
1
1
1
1
1
1
1
1
1
1
1
1
1
1
1
1
1
1
1
1
1
1
1
1
1
1
1
1
1
1
1
1
1
1
1
1
1
1
1
1
1
1
1
1
1
1
1
1
1
1
1
1
1
1
1
1
1
1
1
1
1
1
1
1
1
1
1
1
1
1
1
1
1
1
1
1
1
1
1
1
1
1
1
1
1
1
1
1
1
1
1
1
1
1
1
1
1
1
1
1
1
1
1
1
1
1
1
1
1
1
1
1
1
1
1
1
1
1
1
1
1
1
1
1
1
1
1
1
1
1
1
1
1
1
1
1
1
1
1
1
1
1
1
1
1
1
1
1
1
1
1
1
1
1
1
1
1
1
1
1
1
1
1
1
1
1
1
1
1
1
1
1
1
1
1
1
1
1
1
1
1
1
1
1
1
1
1
1
1
1
1
1
1
1
1
1
1
1
1
1
1
1
1
1
1
1
1
1
1
1
1
1
1
1
1
1
1
1
1
1
1
1
1
1
1
1
1
1
1
1
1
1
1
1
1
1
1
1
1
1
1
1
1
1
1
1
1
1
1
1
1
1
1
1
1
1
1
1
1
1
1
1
1
1
1
1
1
1
1
1
1
1
1
1
1
1
1
1
1
1
1
1
1
1
1
1
1
1
1
1
1
1
1
1
1
1
1
1
1
1
1
1
1
1
1
1
1
1
1
1
1
1
1
1
1
1
1
1
1
1
1
1
1
1
1
1
1
1
1
1
1
1
1
1
1
1
1
1
1
1
1
1
1
1
1
1
1
1
1
1
1
1
1
1
1
1
1
1
1
1
1
1
1
1
1
1
1
1
1
1
1
1
1
1
1
1
1
1
1
1
1
1
1
1
1
1
1
1
1
1
1
1
1
1
1
1
1
1
1
1
1
1
1
1
1
1
1
1
1
1
1
1
1
1
1
1
1
1
1
1
1
1
1
1
1
1
1
1
1
1
1
1
1
1
1
1
1
1
1
1
1
1
1
1
1
1
1
1
1
1
1
1
1
1
1
1
1
1
1
1
1
1
1
1
1
1
1
1
1
1
1
1
1
1
1
1
1
1
1
1
1
1
1
1
1
1
1
1
1
1
1
1
1
1
1
1
1
1
1
1
1
1
1
1
1
1
1
1
1
1
1
1
1
1
1
1
1
1
1
1
1
1
1
1
1
1
1
1
1
1
1
1
1
1
1
1
1
1
1
1
1
1
1
1
1
1
1
1
1
1
1
1
1
1
1
1
1
1
1
1
1
1
1
1
1
1
1
1
1
1
1
1
1
1
1
1
1
1
1
1
1
1
1
1
1
1
1
1
1
1
1
1
1
1
1
1
1
1
1
1
1
1
1
1
1
1
1
1
1
1
1
1
1
1
1
1
1
1
1
1
1
1
1
1
1
1
1
1
1
1
1
1
1
1
1
1
1
1
1
1
1
1
1
1
1
1
1
1
1
1
1
1
1
1
1
1
1
1
1
1
1
1
1
1
1
1
1
1
1
1
1
1
1
1
1
1
1
1
1
1
1
1
1
1
1
1
1
1
1
1
1
1
1
1
1
1
1
1
1
1
1
1
1
1
1
1
1
1
1
1
1
1
1
1
1
1
1
1
1
1
1
1
1
1
1
1
1
1
1
1
1
1
1
1
1
1
1
1
1
1
1
1
1
1
1
1
1
1
1
1
1
1
1
1
1
1
1
1
1
1
1
1
1
1
1
1
1
1
1
1
1
1
1
1
1.29137
1.74139
2.33765
2.92003
3.5083
4.20437
4.67139
5.07782
5.33569
5.25589
4.9598
4.4889
4.05539
3.76302
3.66337
3.58752
3.56557
3.5934
3.62975
3.66049
3.68881
3.70942
3.72831
3.74738
3.75527
3.75768
3.75783
3.76029
3.76231
3.76079
3.75807
3.75942
3.76793
3.78296
3.7948
3.79681
3.79538
3.79067
3.78209
3.77285
3.76941
3.76925
3.7699
3.7716
3.77294
3.77334
3.77292
3.76927
1.0024
1.01794
1.06369
1.20431
1.41547
1.75766
2.22544
2.75354
3.32639
3.71136
3.92686
4.03772
4.02021
3.9469
3.84996
3.7807
3.72328
3.71022
3.67513
3.66426
3.67376
3.69522
3.71835
3.74424
3.7613
3.7674
3.77006
3.76639
3.76411
3.76396
3.76397
3.76601
3.76942
3.77293
3.77664
3.77796
3.77641
3.7729
3.76875
3.7671
3.76733
3.7682
3.77052
3.77543
3.77878
3.77916
3.77839
3.77615
1
0.999983
1
1.00008
1.00149
1.01265
1.06431
1.21875
1.61099
2.33563
3.34196
3.91837
4.28871
4.31926
4.25756
4.12984
3.96693
3.75889
3.65669
3.64789
3.65947
3.6774
3.69949
3.73134
3.75926
3.77021
3.77513
3.77732
3.77656
3.77901
3.7818
3.78395
3.7844
3.78222
3.77821
3.77379
3.76855
3.76357
3.76028
3.75963
3.76014
3.76171
3.76615
3.77366
3.77915
3.78049
3.7803
3.78156
1
1
1
1
0.999999
0.999982
1.00006
1.00009
1.00582
1.07148
1.40794
2.15239
3.10554
3.94864
4.02907
4.01812
3.99286
3.89519
3.80236
3.74472
3.72022
3.69544
3.68192
3.68939
3.70507
3.72164
3.74045
3.75355
3.76317
3.76981
3.77595
3.78074
3.78277
3.78253
3.78124
3.77749
3.77255
3.76904
3.76673
3.76583
3.76657
3.76891
3.77308
3.77789
3.78031
3.77899
3.77679
3.77589
1
1
1
1
1
0.999999
1
1
1
0.999932
1.00164
1.04873
1.28129
2.00933
2.85251
3.63949
4.04576
4.06126
3.99926
3.93044
3.82725
3.74274
3.70912
3.68838
3.6827
3.69294
3.70541
3.71775
3.73114
3.74185
3.74966
3.75522
3.76312
3.77118
3.77304
3.77323
3.7732
3.77252
3.77187
3.77212
3.77431
3.77839
3.78293
3.78574
3.78546
3.7831
3.77888
3.77569
1
1
1
1
1
1
1
1
1
0.999997
0.999998
0.999955
1.0007
1.02951
1.23548
1.77812
2.72211
3.3722
3.8971
3.93406
3.91921
3.84534
3.80287
3.77221
3.74422
3.7155
3.70205
3.70158
3.70915
3.73078
3.74934
3.76163
3.77101
3.77513
3.77565
3.77554
3.77552
3.77405
3.77212
3.77167
3.77317
3.77678
3.77988
3.77929
3.77637
3.77259
3.76681
3.76496
1
1
1
1
1
1
1
1
1
1
1
0.999997
0.999998
0.999962
1.00064
1.01561
1.19963
1.68013
2.57432
3.23287
3.63296
3.85191
3.85124
3.84344
3.80045
3.76163
3.74157
3.72712
3.72348
3.72995
3.74621
3.76908
3.78223
3.7831
3.78087
3.77946
3.77817
3.77548
3.77143
3.76958
3.7688
3.772
3.77483
3.77381
3.77101
3.76788
3.76431
3.76484
1
1
1
1
1
1
1
1
1
1
1
1
1
0.999997
0.999998
0.999974
1.00066
1.01399
1.13695
1.62726
2.3399
3.24957
3.52631
3.65617
3.6942
3.71841
3.73404
3.72069
3.71422
3.72096
3.73396
3.74759
3.75969
3.77172
3.7747
3.7732
3.7701
3.76779
3.76696
3.76702
3.77104
3.77711
3.77864
3.77823
3.77693
3.77477
3.77239
3.77249
1
1
1
1
1
1
1
1
1
1
1
1
1
1
1
0.999998
0.999998
0.999982
1.00029
1.01465
1.10694
1.54608
2.29034
3.09395
3.57764
3.64379
3.70883
3.70387
3.69381
3.7012
3.70911
3.71594
3.72521
3.73811
3.74837
3.75563
3.75945
3.76231
3.76556
3.76833
3.77343
3.77774
3.77913
3.78047
3.78053
3.77792
3.77484
3.77416
1
1
1
1
1
1
1
1
1
1
1
1
1
1
1
1
1
0.999999
0.999998
0.999985
1.00023
1.01145
1.12057
1.47807
2.24517
2.95801
3.52932
3.70109
3.71606
3.72859
3.73244
3.72658
3.72207
3.72494
3.73312
3.74147
3.74885
3.75602
3.7625
3.76882
3.7747
3.77553
3.77581
3.77782
3.77881
3.77618
3.7737
3.77254
1
1
1
1
1
1
1
1
1
1
1
1
1
1
1
1
1
1
1
0.999998
0.999999
0.999986
1.00042
1.00846
1.12131
1.47468
2.22543
2.9207
3.42839
3.68018
3.75646
3.76151
3.75967
3.75756
3.75251
3.75737
3.76541
3.77174
3.77971
3.78635
3.78854
3.78571
3.78172
3.77938
3.77639
3.77191
3.76895
3.76711
1
1
1
1
1
1
1
1
1
1
1
1
1
1
1
1
1
1
1
1
1
0.999998
0.999998
0.999988
1.00062
1.01011
1.10687
1.52506
2.24012
3.03249
3.38079
3.5916
3.71127
3.74105
3.73487
3.74816
3.76304
3.76983
3.7782
3.78353
3.78541
3.78495
3.78273
3.78188
3.78063
3.77741
3.77493
3.77392
1
1
1
1
1
1
1
1
1
1
1
1
1
1
1
1
1
1
1
1
1
1
1
0.999998
0.999999
0.99999
1.00055
1.01626
1.115
1.5745
2.29266
3.16829
3.50027
3.59693
3.64501
3.68785
3.71545
3.73238
3.74663
3.75885
3.76761
3.77244
3.77254
3.77074
3.76986
3.76953
3.77115
3.77323
1
1
1
1
1
1
1
1
1
1
1
1
1
1
1
1
1
1
1
1
1
1
1
1
1
0.999999
0.999999
1
1.00067
1.02274
1.15313
1.65555
2.46302
3.21545
3.63684
3.69415
3.72082
3.73188
3.7363
3.74516
3.75405
3.75679
3.75513
3.75747
3.75957
3.76195
3.76558
3.76901
1
1
1
1
1
1
1
1
1
1
1
1
1
1
1
1
1
1
1
1
1
1
1
1
1
1
1
1
0.999998
1.00003
1.0014
1.03044
1.23909
1.81363
2.66918
3.32389
3.67146
3.7759
3.78195
3.78366
3.78218
3.7792
3.77196
3.77126
3.77375
3.77589
3.77713
3.77821
1
1
1
1
1
1
1
1
1
1
1
1
1
1
1
1
1
1
1
1
1
1
1
1
1
1
1
1
1
1
0.999998
1.00008
1.00377
1.05159
1.37705
2.09234
2.95
3.39135
3.63967
3.75753
3.76108
3.7631
3.77567
3.782
3.78577
3.78868
3.78889
3.78818
1
1
1
1
1
1
1
1
1
1
1
1
1
1
1
1
1
1
1
1
1
1
1
1
1
1
1
1
1
1
1
1
0.999996
1.00027
1.0113
1.10265
1.58003
2.41465
3.33085
3.55782
3.63851
3.68202
3.71716
3.74136
3.75673
3.7685
3.7768
3.78077
1
1
1
1
1
1
1
1
1
1
1
1
1
1
1
1
1
1
1
1
1
1
1
1
1
1
1
1
1
1
1
1
0.999999
0.999999
1.00001
1.00103
1.03197
1.22349
1.92656
2.82327
3.50913
3.69658
3.73029
3.74365
3.74825
3.75435
3.76672
3.77362
1
1
1
1
1
1
1
1
1
1
1
1
1
1
1
1
1
1
1
1
1
1
1
1
1
1
1
1
1
1
1
1
1
1
1
0.999998
1.00014
1.00462
1.09034
1.47562
2.39256
3.19902
3.65104
3.79249
3.79833
3.7971
3.79686
3.79363
1
1
1
1
1
1
1
1
1
1
1
1
1
1
1
1
1
1
1
1
1
1
1
1
1
1
1
1
1
1
1
1
1
1
1
1
0.999999
1
1.00109
1.02081
1.25739
1.96064
2.97426
3.42175
3.62325
3.7667
3.7742
3.77396
1
1
1
1
1
1
1
1
1
1
1
1
1
1
1
1
1
1
1
1
1
1
1
1
1
1
1
1
1
1
1
1
1
1
1
1
1
1
0.999999
1.0001
1.00806
1.09455
1.60685
2.57388
3.46176
3.63744
3.68358
3.6997
1
1
1
1
1
1
1
1
1
1
1
1
1
1
1
1
1
1
1
1
1
1
1
1
1
1
1
1
1
1
1
1
1
1
1
1
1
1
1
1
1.00001
1.0014
1.04331
1.34095
2.23842
3.19466
3.69411
3.75378
1
1
1
1
1
1
1
1
1
1
1
1
1
1
1
1
1
1
1
1
1
1
1
1
1
1
1
1
1
1
1
1
1
1
1
1
1
1
1
1
1
1
1.00042
1.01475
1.20852
1.92064
2.8792
3.49325
1
1
1
1
1
1
1
1
1
1
1
1
1
1
1
1
1
1
1
1
1
1
1
1
1
1
1
1
1
1
1
1
1
1
1
1
1
1
1
1
1
1
1
1.00009
1.00638
1.09797
1.68956
2.69947
1
1
1
1
1
1
1
1
1
1
1
1
1
1
1
1
1
1
1
1
1
1
1
1
1
1
1
1
1
1
1
1
1
1
1
1
1
1
1
1
1
1
1
1
1.00002
1.00205
1.07377
1.4285
1
1
1
1
1
1
1
1
1
1
1
1
1
1
1
1
1
1
1
1
1
1
1
1
1
1
1
1
1
1
1
1
1
1
1
1
1
1
1
1
1
1
1
1
1
1
1.00163
1.01635
1
1
1
1
1
1
1
1
1
1
1
1
1
1
1
1
1
1
1
1
1
1
1
1
1
1
1
1
1
1
1
1
1
1
1
1
1
1
1
1
1
1
1
1
1
1
1.00001
0.999838
1
1
1
1
1
1
1
1
1
1
1
1
1
1
1
1
1
1
1
1
1
1
1
1
1
1
1
1
1
1
1
1
1
1
1
1
1
1
1
1
1
1
1
1
1
1
1
0.999941
1
1
1
1
1
1
1
1
1
1
1
1
1
1
1
1
1
1
1
1
1
1
1
1
1
1
1
1
1
1
1
1
1
1
1
1
1
1
1
1
1
1
1
1
1
1
1
0.99999
1
1
1
1
1
1
1
1
1
1
1
1
1
1
1
1
1
1
1
1
1
1
1
1
1
1
1
1
1
1
1
1
1
1
1
1
1
1
1
1
1
1
1
1
1
1
1
1
1
1
1
1
1
1
1
1
1
1
1
1
1
1
1
1
1
1
1
1
1
1
1
1
1
1
1
1
1
1
1
1
1
1
1
1
1
1
1
1
1
1
1
1
1
1
1
1
1
1
1
1
1
1
1
1
1
1
1
1
1
1
1
1
1
1
1
1
1
1
1
1
1
1
1
1
1
1
1
1
1
1
1
1
1
1
1
1
1
1
1
1
1
1
1
1
1
1
1
1
1
1
1
1
1
1
1
1
1
1
1
1
1
1
1
1
1
1
1
1
1
1
1
1
1
1
1
1
1
1
1
1
1
1
1
1
1
1
1
1
1
1
1
1
1
1
1
1
1
1
1
1
1
1
1
1
1
1
1
1
1
1
1
1
1
1
1
1
1
1
1
1
1
1
1
1
1
1
1
1
1
1
1
1
1
1
1
1
1
1
1
1
1
1
1
1
1
1
1
1
1
1
1
1
1
1
1
1
1
1
1
1
1
1
1
1
1
1
1
1
1
1
1
1
1
1
1
1
1
1
1
1
1
1
1
1
1
1
1
1
1
1
1
1
1
1
1
1
1
1
1
1
1
1
1
1
1
1
1
1
1
1
1
1
1
1
1
1
1
1
1
1
1
1
1
1
1
1
1
1
1
1
1
1
1
1
1
0.99999
1
1
1
1
1
1
1
1
1
1
1
1
1
1
1
1
1
1
1
1
1
1
1
1
1
1
1
1
1
1
1
1
1
1
1
1
1
1
1
1
1
1
1
1
1
1
1
0.999939
1
1
1
1
1
1
1
1
1
1
1
1
1
1
1
1
1
1
1
1
1
1
1
1
1
1
1
1
1
1
1
1
1
1
1
1
1
1
1
1
1
1
1
1
1
1
1.00001
0.999835
1
1
1
1
1
1
1
1
1
1
1
1
1
1
1
1
1
1
1
1
1
1
1
1
1
1
1
1
1
1
1
1
1
1
1
1
1
1
1
1
1
1
1
1
1
1
1.00163
1.01623
1
1
1
1
1
1
1
1
1
1
1
1
1
1
1
1
1
1
1
1
1
1
1
1
1
1
1
1
1
1
1
1
1
1
1
1
1
1
1
1
1
1
1
1
1.00002
1.00205
1.07385
1.42822
1
1
1
1
1
1
1
1
1
1
1
1
1
1
1
1
1
1
1
1
1
1
1
1
1
1
1
1
1
1
1
1
1
1
1
1
1
1
1
1
1
1
1
1.00009
1.00638
1.09813
1.69033
2.69674
1
1
1
1
1
1
1
1
1
1
1
1
1
1
1
1
1
1
1
1
1
1
1
1
1
1
1
1
1
1
1
1
1
1
1
1
1
1
1
1
1
1
1.00042
1.01475
1.20846
1.92187
2.87956
3.49027
1
1
1
1
1
1
1
1
1
1
1
1
1
1
1
1
1
1
1
1
1
1
1
1
1
1
1
1
1
1
1
1
1
1
1
1
1
1
1
1
1.00001
1.0014
1.04332
1.34073
2.23822
3.19598
3.69404
3.75119
1
1
1
1
1
1
1
1
1
1
1
1
1
1
1
1
1
1
1
1
1
1
1
1
1
1
1
1
1
1
1
1
1
1
1
1
1
1
0.999999
1.0001
1.00806
1.09459
1.60688
2.57342
3.46191
3.63752
3.68387
3.69938
1
1
1
1
1
1
1
1
1
1
1
1
1
1
1
1
1
1
1
1
1
1
1
1
1
1
1
1
1
1
1
1
1
1
1
1
0.999999
1
1.00109
1.02081
1.25737
1.96095
2.97369
3.4218
3.62365
3.76683
3.77428
3.77396
1
1
1
1
1
1
1
1
1
1
1
1
1
1
1
1
1
1
1
1
1
1
1
1
1
1
1
1
1
1
1
1
1
1
1
0.999998
1.00014
1.00462
1.09035
1.47558
2.39261
3.19919
3.6507
3.79262
3.79843
3.79719
3.79691
3.79365
1
1
1
1
1
1
1
1
1
1
1
1
1
1
1
1
1
1
1
1
1
1
1
1
1
1
1
1
1
1
1
1
0.999999
0.999999
1.00001
1.00103
1.03197
1.22349
1.92656
2.82325
3.50916
3.69654
3.73019
3.7437
3.74824
3.75436
3.76679
3.77368
1
1
1
1
1
1
1
1
1
1
1
1
1
1
1
1
1
1
1
1
1
1
1
1
1
1
1
1
1
1
1
1
0.999996
1.00027
1.0113
1.10265
1.58002
2.41468
3.3308
3.55784
3.63849
3.68199
3.71714
3.74139
3.75676
3.76854
3.77682
3.78079
1
1
1
1
1
1
1
1
1
1
1
1
1
1
1
1
1
1
1
1
1
1
1
1
1
1
1
1
1
1
0.999998
1.00008
1.00377
1.05159
1.37705
2.09234
2.95002
3.39136
3.63964
3.75754
3.76108
3.76309
3.77567
3.78202
3.78579
3.78869
3.78889
3.78818
1
1
1
1
1
1
1
1
1
1
1
1
1
1
1
1
1
1
1
1
1
1
1
1
1
1
1
1
0.999998
1.00003
1.0014
1.03044
1.23909
1.81363
2.66919
3.32388
3.67146
3.7759
3.78194
3.78366
3.78218
3.7792
3.77196
3.77127
3.77376
3.7759
3.77713
3.7782
1
1
1
1
1
1
1
1
1
1
1
1
1
1
1
1
1
1
1
1
1
1
1
1
1
0.999999
0.999999
1
1.00067
1.02274
1.15313
1.65555
2.46302
3.21545
3.63684
3.69415
3.72082
3.73188
3.7363
3.74516
3.75405
3.75679
3.75513
3.75747
3.75957
3.76195
3.76557
3.769
1
1
1
1
1
1
1
1
1
1
1
1
1
1
1
1
1
1
1
1
1
1
1
0.999998
0.999999
0.99999
1.00055
1.01626
1.115
1.5745
2.29267
3.16829
3.50027
3.59693
3.64501
3.68785
3.71545
3.73238
3.74662
3.75885
3.76761
3.77244
3.77254
3.77074
3.76987
3.76953
3.77115
3.77323
1
1
1
1
1
1
1
1
1
1
1
1
1
1
1
1
1
1
1
1
1
0.999998
0.999998
0.999988
1.00062
1.01011
1.10687
1.52506
2.24012
3.0325
3.38079
3.5916
3.71127
3.74105
3.73487
3.74816
3.76304
3.76983
3.7782
3.78353
3.78541
3.78495
3.78273
3.78188
3.78063
3.77741
3.77493
3.77391
1
1
1
1
1
1
1
1
1
1
1
1
1
1
1
1
1
1
1
0.999998
0.999999
0.999986
1.00042
1.00846
1.12131
1.47468
2.22543
2.9207
3.42839
3.68018
3.75646
3.76151
3.75967
3.75756
3.75251
3.75737
3.76541
3.77174
3.77971
3.78635
3.78854
3.78571
3.78172
3.77939
3.77639
3.77191
3.76895
3.76711
1
1
1
1
1
1
1
1
1
1
1
1
1
1
1
1
1
0.999999
0.999998
0.999985
1.00023
1.01145
1.12057
1.47807
2.24517
2.95801
3.52932
3.70109
3.71606
3.72859
3.73244
3.72658
3.72207
3.72494
3.73312
3.74147
3.74885
3.75602
3.7625
3.76882
3.7747
3.77553
3.77581
3.77782
3.77881
3.77618
3.7737
3.77254
1
1
1
1
1
1
1
1
1
1
1
1
1
1
1
0.999998
0.999998
0.999982
1.00029
1.01465
1.10694
1.54608
2.29034
3.09395
3.57764
3.64379
3.70884
3.70387
3.69381
3.7012
3.70911
3.71594
3.72521
3.73811
3.74837
3.75563
3.75945
3.76231
3.76556
3.76833
3.77343
3.77774
3.77913
3.78047
3.78053
3.77792
3.77484
3.77416
1
1
1
1
1
1
1
1
1
1
1
1
1
0.999997
0.999998
0.999974
1.00066
1.01399
1.13695
1.62726
2.3399
3.24957
3.52631
3.65617
3.6942
3.71841
3.73404
3.72069
3.71422
3.72096
3.73396
3.74759
3.75969
3.77172
3.7747
3.7732
3.7701
3.76779
3.76696
3.76702
3.77104
3.77711
3.77864
3.77823
3.77693
3.77477
3.77239
3.77249
1
1
1
1
1
1
1
1
1
1
1
0.999997
0.999998
0.999962
1.00064
1.01561
1.19963
1.68013
2.57432
3.23287
3.63296
3.85191
3.85124
3.84344
3.80045
3.76163
3.74157
3.72712
3.72348
3.72995
3.74621
3.76908
3.78223
3.7831
3.78087
3.77946
3.77817
3.77548
3.77143
3.76958
3.7688
3.772
3.77483
3.77381
3.77101
3.76788
3.76431
3.76484
1
1
1
1
1
1
1
1
1
0.999997
0.999998
0.999955
1.0007
1.02951
1.23548
1.77812
2.72211
3.3722
3.89709
3.93406
3.91921
3.84534
3.80287
3.77221
3.74422
3.7155
3.70205
3.70158
3.70915
3.73078
3.74934
3.76163
3.77101
3.77513
3.77565
3.77554
3.77552
3.77405
3.77212
3.77167
3.77317
3.77678
3.77988
3.77929
3.77637
3.77259
3.76681
3.76496
1
1
1
1
1
0.999999
1
1
1
0.999932
1.00164
1.04873
1.28129
2.00933
2.85252
3.63949
4.04576
4.06126
3.99927
3.93044
3.82725
3.74274
3.70912
3.68838
3.6827
3.69294
3.70541
3.71775
3.73114
3.74185
3.74966
3.75522
3.76312
3.77118
3.77304
3.77323
3.7732
3.77252
3.77187
3.77212
3.77431
3.77839
3.78293
3.78574
3.78546
3.7831
3.77888
3.77569
1
1
1
1
0.999999
0.999982
1.00006
1.00009
1.00582
1.07148
1.40794
2.15239
3.10554
3.94865
4.02907
4.01812
3.99286
3.89519
3.80236
3.74472
3.72022
3.69544
3.68192
3.68939
3.70507
3.72164
3.74045
3.75355
3.76317
3.76981
3.77595
3.78074
3.78277
3.78253
3.78124
3.77749
3.77255
3.76904
3.76673
3.76583
3.76657
3.76891
3.77308
3.77789
3.78031
3.77899
3.77679
3.77589
1
0.999983
1
1.00008
1.00149
1.01265
1.06431
1.21875
1.61099
2.33563
3.34196
3.91837
4.28871
4.31926
4.25756
4.12984
3.96694
3.75889
3.65669
3.64789
3.65947
3.6774
3.69949
3.73134
3.75926
3.77021
3.77513
3.77732
3.77656
3.77901
3.7818
3.78395
3.7844
3.78222
3.77821
3.77379
3.76855
3.76357
3.76028
3.75963
3.76014
3.76171
3.76615
3.77366
3.77915
3.78049
3.7803
3.78156
1.0024
1.01794
1.06369
1.20431
1.41547
1.75766
2.22544
2.75354
3.32639
3.71136
3.92686
4.03772
4.02021
3.9469
3.84996
3.7807
3.72328
3.71022
3.67513
3.66426
3.67376
3.69522
3.71835
3.74424
3.7613
3.7674
3.77006
3.76639
3.76411
3.76396
3.76397
3.76601
3.76942
3.77293
3.77664
3.77796
3.77641
3.7729
3.76875
3.7671
3.76733
3.7682
3.77052
3.77543
3.77878
3.77916
3.77839
3.77615
1.29137
1.74139
2.33765
2.92003
3.5083
4.20437
4.67139
5.07782
5.33569
5.25589
4.9598
4.4889
4.05539
3.76302
3.66337
3.58752
3.56557
3.5934
3.62975
3.66049
3.68881
3.70943
3.72831
3.74738
3.75528
3.75768
3.75783
3.76029
3.76231
3.76079
3.75807
3.75942
3.76793
3.78296
3.7948
3.79681
3.79538
3.79067
3.78209
3.77285
3.76941
3.76925
3.7699
3.7716
3.77294
3.77334
3.77292
3.76927
2.64334
1.70032
1.18441
0.816185
0.634875
0.651649
0.721293
0.731916
0.763552
0.860684
0.964113
0.96884
0.973168
1.00705
1.02955
1.03657
1.04789
1.07477
1.07964
1.0757
1.06823
1.06649
1.06343
1.05356
1.05137
1.05487
1.05562
1.05309
1.04694
1.03943
1.03585
1.03594
1.03684
1.03958
1.04391
1.04609
1.0467
1.04685
1.0454
1.04427
1.04525
1.04785
1.05049
1.051
1.05095
1.05019
1.048
1.04741
1.05554
1.22734
1.83178
3.16209
5.20115
7.74894
10.2706
10.2354
9.39577
8.39707
8.02052
7.8124
7.62285
7.47151
7.3807
7.31925
7.20133
7.03788
6.79194
6.4732
6.31569
6.24622
6.19367
6.144
6.05785
5.96004
5.81929
5.55613
5.28152
5.18006
5.1291
5.10704
5.09327
5.04237
4.98041
4.86719
4.67354
4.53347
4.47518
4.4271
4.3741
4.30728
4.20164
4.04625
3.94128
3.89827
3.86701
3.8454
3.82173
3.78894
3.73763
3.6199
3.45772
3.36293
3.32361
3.29852
3.27741
3.25234
3.21786
3.16723
3.08807
3.00863
2.96279
2.93072
2.8993
2.86161
2.80124
2.71499
2.66745
2.64828
2.63065
2.6139
2.59631
2.57569
2.54469
2.48173
2.383
2.32318
2.30292
2.28943
2.27791
2.26881
2.25563
2.23474
2.20396
2.14643
2.08244
2.05348
2.03732
2.02382
2.00837
1.99133
1.97294
1.94789
1.91272
1.8797
1.8945
1.99924
2.31685
2.97139
3.75623
4.42751
4.97723
5.4797
5.587
5.48102
5.37148
5.28948
5.20675
5.14265
5.08421
5.00745
4.92685
4.86821
4.82258
4.77005
4.68734
4.60813
4.57683
4.55677
4.54282
4.52595
4.49912
4.46561
4.39976
4.3139
4.27803
4.25839
4.2417
4.22356
4.19912
4.15855
4.07303
3.97592
3.93561
3.91493
3.89934
3.89707
3.90258
3.89061
3.87553
3.85418
3.8035
3.67927
3.37898
2.70641
2.20021
1.82241
1.40247
1.24289
1.1583
1.03152
0.983487
0.983899
0.950412
0.909695
0.909512
0.927723
0.961417
0.98188
0.996595
1.02806
1.03604
1.03312
1.03334
1.04012
1.0471
1.04866
1.05422
1.05907
1.05877
1.05518
1.04864
1.04362
1.04253
1.04235
1.04246
1.04507
1.04839
1.04907
1.04906
1.04838
1.04662
1.04544
1.04541
1.04648
1.04801
1.04836
1.04798
1.04629
1.04606
1.05712
1.21918
1.96213
2.80044
3.22036
3.92569
4.76242
6.58041
8.07053
8.68738
8.52143
8.23937
7.89466
7.62854
7.50371
7.42106
7.33631
7.20565
7.05214
6.84216
6.55777
6.31758
6.19999
6.1305
6.08885
6.03417
5.94717
5.82849
5.63931
5.39367
5.22712
5.15597
5.10518
5.06439
5.01014
4.94098
4.84735
4.71116
4.56556
4.47412
4.42427
4.3788
4.31887
4.22247
4.097
3.98922
3.91817
3.87245
3.83499
3.80139
3.76552
3.70859
3.61021
3.49013
3.40587
3.34719
3.30012
3.26895
3.2487
3.22778
3.18625
3.11558
3.04202
2.99584
2.96247
2.92907
2.88849
2.83048
2.75066
2.69782
2.67648
2.65724
2.63682
2.61576
2.59208
2.55924
2.49966
2.40651
2.33948
2.31344
2.29631
2.27951
2.26514
2.25773
2.24817
2.22451
2.17545
2.10934
2.07306
2.05564
2.03973
2.0228
2.00603
1.99082
1.96951
1.94716
1.96841
2.10373
2.40708
2.83689
3.16867
3.47375
3.87448
4.26764
4.61987
4.91919
5.12927
5.30044
5.3251
5.27068
5.17738
5.09044
5.02101
4.95251
4.89402
4.84237
4.78489
4.71164
4.63127
4.59475
4.57446
4.55613
4.53816
4.51146
4.47658
4.42053
4.34069
4.29276
4.27109
4.2508
4.22885
4.20186
4.1604
4.09055
4.00431
3.95153
3.92667
3.91234
3.90875
3.89986
3.88271
3.86268
3.83427
3.78547
3.68286
3.66892
3.33926
2.84103
2.40452
1.97555
1.64024
1.44976
1.26343
1.07037
1.02715
0.982679
0.92092
0.917782
0.929252
0.944737
0.949219
0.956546
0.979712
0.998991
1.00486
1.01121
1.02315
1.03565
1.04118
1.04745
1.05339
1.0546
1.054
1.05101
1.0479
1.04719
1.04686
1.04753
1.05009
1.05043
1.0499
1.04863
1.04595
1.04422
1.04399
1.0442
1.04592
1.0475
1.0477
1.04614
1.04815
1.07608
1.24471
2.06072
3.03458
3.36768
3.40109
3.45511
3.53074
4.06848
5.82986
7.91389
8.71745
8.52877
8.00648
7.61967
7.50182
7.39647
7.24639
7.09636
6.97739
6.84673
6.65241
6.40433
6.18155
6.06433
5.98875
5.92514
5.84635
5.75157
5.65166
5.51448
5.3364
5.19574
5.11777
5.04676
4.96627
4.87367
4.77493
4.67711
4.58692
4.50928
4.42753
4.34196
4.25928
4.1773
4.10307
4.03064
3.95153
3.88568
3.84553
3.79677
3.73091
3.64636
3.55537
3.4898
3.43972
3.3809
3.31977
3.27168
3.23133
3.19017
3.14254
3.08171
3.02555
2.98342
2.94556
2.90699
2.86673
2.81911
2.76111
2.68693
2.63818
2.61955
2.60114
2.57972
2.55542
2.52414
2.47215
2.40168
2.36393
2.34497
2.32419
2.30369
2.28131
2.25684
2.23381
2.20579
2.1576
2.09239
2.04985
2.02882
2.00984
1.99658
1.98463
1.98173
1.98445
2.02134
2.22808
2.61352
2.94244
3.22071
3.29039
3.32483
3.39789
3.58617
3.9074
4.40763
4.88493
5.15568
5.30712
5.28092
5.20685
5.07629
5.00604
4.94771
4.88313
4.82579
4.78509
4.74357
4.67488
4.58342
4.53061
4.50766
4.48952
4.47656
4.45155
4.41628
4.37297
4.31409
4.25381
4.21496
4.18561
4.15569
4.11966
4.07426
4.02739
3.98469
3.9536
3.93364
3.91464
3.89699
3.87845
3.85314
3.80973
3.74676
3.66631
3.75282
3.62487
3.3113
2.91744
2.50442
2.10578
1.84409
1.62499
1.37042
1.26646
1.19551
1.07461
1.01787
1.0161
0.990911
0.956337
0.95138
0.951278
0.946983
0.948349
0.955412
0.975826
1.0073
1.02601
1.03561
1.04343
1.04618
1.0472
1.04515
1.0438
1.04579
1.05171
1.05799
1.05926
1.05857
1.05655
1.05247
1.04848
1.04785
1.04807
1.04859
1.04832
1.04807
1.04792
1.05142
1.1143
1.43125
2.06755
3.13843
3.51115
3.50393
3.45359
3.43283
3.35685
3.31522
3.60953
4.99582
7.29135
8.01689
7.87616
7.7516
7.5835
7.36939
7.13828
7.01287
6.94204
6.84675
6.7078
6.49056
6.2378
6.02982
5.92106
5.8433
5.7765
5.71575
5.65317
5.5832
5.45289
5.26765
5.0974
4.99048
4.90182
4.81848
4.74639
4.68645
4.62426
4.52764
4.39197
4.27995
4.2154
4.17009
4.12937
4.08094
4.01789
3.93865
3.83842
3.74546
3.65627
3.58165
3.53657
3.50648
3.47171
3.42531
3.36578
3.29601
3.21874
3.15133
3.10861
3.07726
3.04345
3.00309
2.95415
2.90538
2.86854
2.83577
2.78625
2.70951
2.63842
2.60628
2.58937
2.57103
2.54707
2.5092
2.45782
2.41626
2.3824
2.34147
2.30439
2.28336
2.26743
2.24624
2.21924
2.191
2.15155
2.09414
2.04926
2.02487
2.00599
1.99933
1.99872
2.0236
2.14174
2.41419
2.85468
3.14609
3.29501
3.36623
3.36265
3.34034
3.29794
3.29988
3.38174
3.64666
4.11578
4.57391
4.98853
5.08241
5.0945
5.07741
5.03364
4.96298
4.89163
4.85793
4.8279
4.7902
4.71661
4.60712
4.52775
4.49457
4.47294
4.45813
4.45133
4.42999
4.39655
4.34153
4.26786
4.20749
4.1639
4.12594
4.09653
4.07806
4.06301
4.03516
3.99174
3.9379
3.907
3.88862
3.86766
3.83359
3.77175
3.71404
3.66903
3.76414
3.73323
3.5848
3.31621
2.95153
2.54532
2.25066
1.98618
1.68818
1.52362
1.41591
1.2706
1.15216
1.10762
1.05335
0.981705
0.961723
0.957968
0.943451
0.94226
0.950309
0.96204
0.979664
0.999093
1.00773
1.01523
1.02146
1.02658
1.03244
1.03487
1.03786
1.04965
1.05651
1.05679
1.05578
1.05349
1.05198
1.05161
1.05264
1.05491
1.05519
1.05393
1.05091
1.05259
1.11844
1.64115
2.42007
3.08368
3.50844
3.57673
3.5406
3.45077
3.40058
3.37022
3.26246
3.19899
3.33057
4.3349
6.16779
7.57147
7.83351
7.64928
7.30375
7.0577
6.97092
6.90953
6.80479
6.66939
6.50425
6.2936
6.0676
5.887
5.79412
5.7249
5.67813
5.62134
5.54829
5.46629
5.3108
5.09296
4.94423
4.86641
4.80756
4.75486
4.70125
4.62851
4.49417
4.32451
4.24287
4.20502
4.1709
4.13484
4.09144
4.03845
3.94586
3.78905
3.66375
3.60535
3.57067
3.54162
3.5148
3.48396
3.44806
3.40065
3.32056
3.20864
3.12971
3.08027
3.03968
3.00437
2.97215
2.93758
2.89633
2.85225
2.80758
2.76288
2.71532
2.66145
2.61536
2.58298
2.55732
2.52945
2.49286
2.45097
2.41905
2.38948
2.35313
2.31211
2.28004
2.26281
2.24732
2.22322
2.18272
2.13113
2.08851
2.05813
2.03662
2.01984
2.02378
2.07596
2.30149
2.66527
3.08902
3.37996
3.39781
3.39556
3.38163
3.36424
3.33032
3.28356
3.27095
3.26274
3.29869
3.42829
3.74192
4.22056
4.72849
4.94205
5.05161
5.01275
4.94893
4.89266
4.86062
4.83068
4.78487
4.72599
4.64675
4.55676
4.49412
4.46615
4.44323
4.42293
4.39696
4.36495
4.32578
4.26855
4.20047
4.15336
4.12348
4.09929
4.07569
4.0521
4.02782
3.99524
3.95257
3.91664
3.88349
3.84503
3.79323
3.73697
3.70838
3.67306
3.76362
3.74884
3.6969
3.55676
3.30696
2.94056
2.62431
2.34944
2.0523
1.83796
1.68543
1.51309
1.36493
1.28968
1.21915
1.1122
1.06652
1.04455
1.0031
0.978581
0.982264
0.982783
0.972006
0.969476
0.971415
0.972449
0.977939
0.988625
1.00338
1.01791
1.02837
1.04417
1.05212
1.05279
1.05256
1.05086
1.04976
1.05076
1.05394
1.05599
1.05571
1.05431
1.05834
1.12453
1.67638
2.7472
3.22509
3.46783
3.55032
3.48935
3.46358
3.43206
3.37241
3.34158
3.27058
3.15358
3.10061
3.15584
3.73041
5.29237
6.99043
7.35149
7.26283
7.14103
7.01924
6.87178
6.73056
6.6215
6.50941
6.35022
6.12897
5.91382
5.77415
5.69634
5.63207
5.57349
5.50519
5.41965
5.28984
5.10136
4.94133
4.86215
4.81096
4.76228
4.70589
4.61934
4.4689
4.30172
4.22588
4.18702
4.16406
4.16041
4.12366
4.06373
3.94784
3.75896
3.62589
3.58497
3.56286
3.55965
3.56061
3.53337
3.49628
3.43703
3.31605
3.18347
3.11225
3.06924
3.03196
2.99735
2.96429
2.93081
2.89332
2.84477
2.79435
2.75431
2.71885
2.68079
2.63128
2.5739
2.53069
2.502
2.48162
2.46418
2.44193
2.41331
2.37873
2.34037
2.30664
2.27428
2.23939
2.19941
2.15246
2.10795
2.08059
2.06777
2.05464
2.06679
2.16604
2.47155
2.97412
3.25895
3.46717
3.52577
3.50464
3.45704
3.39609
3.37426
3.35415
3.32625
3.30074
3.27576
3.2484
3.21231
3.24183
3.41738
3.85886
4.38551
4.73408
4.86476
4.92214
4.9302
4.91384
4.86408
4.79199
4.72445
4.66444
4.58835
4.51498
4.4631
4.43397
4.4091
4.38591
4.35795
4.32241
4.26759
4.20071
4.15458
4.12342
4.09943
4.07821
4.05649
4.03305
4.00686
3.97559
3.9223
3.85985
3.80051
3.75406
3.72344
3.70685
3.67861
3.76478
3.75502
3.73527
3.67877
3.52818
3.26441
2.98399
2.68099
2.37593
2.157
1.9691
1.77165
1.6052
1.4912
1.3876
1.25951
1.18869
1.14678
1.0908
1.02047
1.01193
1.00285
0.980246
0.975414
0.975764
0.970042
0.968273
0.970291
0.97787
0.994379
1.0123
1.02625
1.03582
1.03927