/*--------------------------------*- C++ -*----------------------------------*\
  =========                 |
  \\      /  F ield         | OpenFOAM: The Open Source CFD Toolbox
   \\    /   O peration     | Website:  https://openfoam.org
    \\  /    A nd           | Version:  7
     \\/     M anipulation  |
\*---------------------------------------------------------------------------*/
FoamFile
{
    version     2.0;
    format      ascii;
    class       volScalarField;
    location    "2.8";
    object      T;
}
// * * * * * * * * * * * * * * * * * * * * * * * * * * * * * * * * * * * * * //

dimensions      [0 0 0 1 0 0 0];

internalField   nonuniform List<scalar> 
18432
(
1
1
1
1
1
1
1
1
1
1
1
1
1
1
1
1
1
1
1
1
1
1
1
1
1
1
1
1
1
1
1
1
1
1
1
1
1
1
1
1
1
1
1
1
1
1
1
1
1
1
1
1
1
1
1
1
1
1
1
1
1
1
1
1
1
1
1
1
1
1
1
1
1
1
1
1
1
1
1
1
1
1
1
1
1
1
1
1
1
1
1
1
1
1
1
1
1
1
1
1
1
1
1
1
1
1
1
1
1
1
1
1
1
1
1
1
1
1
1
1
1
1
1
1
1
1
1
1
1
1
1
1
1
1
1
1
1
1
1
1
1
1
1
1
1
1
1
1
1
1
1
1
1
1
1
1
1
1
1
1
1
1
1
1
1
1
1
1
1
1
1
1
1
1
1
1
1
1
1
1
1
1
1
1
1
1
1
1
1
1
1
1
1
1
1
1
1
1
1
1
1
1
1
1
1
1
1
1
1
1
1
1
1
1
1
1
1
1
1
1
1
1
1
1
1
1
1
1
1
1
1
1
1
1
1
1
1
1
1
1
1
1
1
1
1
1
1
1
1
1
1
1
1
1
1
1
1
1
1
1
1
1
1
1
1
1
1
1
1
1
1
1
1
1
1
1
1
1
1
1
1
1
1
1
1
1
1
1
1
1
1
1
1
1
1
1
1
1
1
1
1
1
1
1
1
1
1
1
1
1
1
1
1
1
1
1
1
1
1
1
1
1
1
1
1
1
1
1
1
1
1
1
1
1
1
1
1
1
1
1
1
1
1
1
1
1
1
1
1
1
1
1
1
1
1
1
1
1
1
1
1
1
1
1
1
1
1
1
1
1
1
1
1
1
1
1
1
1
1
1
1
1
1
1
1
1
1
1
1
1
1
1
1
1
1
1
1
1
1
1
1
1
1
1
1
1
1
1
1
1
1
1
1
1
1
1
1
1
1
1
1
1
1
1
1
1
1
1
1
1
1
1
1
1
1
1
1
1
1
1
1
1
1
1
1
1
1
1
1
1
1
1
1
1
1
1
1
1
1
1
1
1
1
1
1
1
1
1
1
1
1
1
1
1
1
1
1
1
1
1
1
1
1
1
1
1
1
1
1
1
1
1
1
1
1
1
1
1
1
1
1
1
1
1
1
1
1
1
1
1
1
1
1
1
1
1
1
1
1
1
1
1
1
1
1
1
1
1
1
1
1
1
1
1
1
1
1
1
1
1
1
1
1
1
1
1
1
1
1
1
1
1
1
1
1
1
1
1
1
1
1
1
1
1
1
1
1
1
1
1
1
1
1
1
1
1
1
1
1
1
1
1
1
1
1
1
1
1
1
1
1
1
1
1
1
1
1
1
1
1
1
1
1
1
1
1
1
1
1
1
1
1
1
1
1
1
1
1
1
1
1
1
1
1
1
1
1
1
1
1
1
1
1
1
1
1
1
1
1
1
1
1
1
1
1
1
1
1
1
1
1
1
1
1
1
1
1
1
1
1
1
1
1
1
1
1
1
1
1
1
1
1
1
1
1
1
1
1
1
1
1
1
1
1
1
1
1
1
1
1
1
1
1
1
1
1
1
1
1
1
1
1
1
1
1
1
1
1
1
1
1
1
1
1
1
1
1
1
1
1
1
1
1
1
1
1
1
1
1
1
1
1
1
1
1
1
1
1
1
1
1
1
1
1
1
1
1
1
1
1
1
1
1
1
1
1
1
1
1
1
1
1
1
1
1
1
1
1
1
1
1
1
1
1
1
1
1
1
1
1
1
1
1
1
1
1
1
1
1
1
1
1
1
1
1
1
1
1
1
1
1
1
1
1
1
1
1
1
1
1
1
1
1
1
1
1
1
1
1
1
1
1
1
1
1
1
1
1
1
1
1
1
1
1
1
1
1
1
1
1
1
1
1
1
1
1
1
1
1
1
1
1
1
1
1
1
1
1
1
1
1
1
1
1
1
1
1
1
1
1
1
1
1
1
1
1
1
1
1
1
1
1
1
1
1
1
1
1
1
1
1
1
1
1
1
1
1
1
1
1
1
1
1
1
1
1
1
1
1
1
1
1
1
1
1
1
1
1
1
1
1
1
1
1
1
1
1
1
1
1
1
1
1
1
1
1
1
1
1
1
1
1
1
1
1
1
1
1
1
1
1
1
1
1
1
1
1
1
1
1
1
1
1
1
1
1
1
1
1
1
1
1
1
1
1
1
1
1
1
1
1
1
1
1
1
1
1
1
1
1
1
1
1
1
1
1
1
1
1
1
1
1
1
1
1
1
1
1
1
1
1
1
1
1
1
1
1
1
1
1
1
1
1
1
1
1
1
1
1
1
1
1
1
1
1
1
1
1
1
1
1
1
1
1
1
1
1
1
1
1
1
1
1
1
1
1
1
1
1
1
1
1
1
1
1
1
1
1
1
1
1
1
1
1
1
1
1
1
1
1
1
1
1
1
1
1
1
1
1
1
1
1
1
1
1
1
1
1
1
1
1
1
1
1
1
1
1
1
1
1
1
1
1
1
1
1
1
1
1
1
1
1
1
1
1
1
1
1
1
1
1
1
1
1
1
1
1
1
1
1
1
1
1
1
1
1
1
1
1
1
1
1
1
1
1
1
1
1
1
1
1
1
1
1
1
1
1
1
1
1
1
1
1
1
1
1
1
1
1
1
1
1
1
1
1
1
1
1
1
1
1
1
1
1
1
1
1
1
1
1
1
1
1
1
1
1
1
1
1
1
1
1
1
1
1
1
1
1
1
1
1
1
1
1
1
1
1
1
1
1
1
1
1
1
1
1
1
1
1
1
1
1
1
1
1
1
1
1
1
1
1
1
1
1
1
1
1
1
1
1
1
1
1
1
1
1
1
1
1
1
1
1
1
1
1
1
1
1
1
1
1
1
1
1
1
1
1
1
1
1
1
1
1
1
1
1
1
1
1
1
1
1
1
1
1
1
1
1
1
1
1
1
1
1
1
1
1
1
1
1
1
1
1
1
1
1
1
1
1
1
1
1
1
1
1
1
1
1
1
1
1
1
1
1
1
1
1
1
1
1
1
1
1
1
1
1
1
1
1
1
1
1
1
1
1
1
1
1
1
1
1
1
1
1
1
1
1
1
1
1
1
1
1
1
1
1
1
1
1
1
1
1
1
1
1
1
1
1
1
1
1
1
1
1
1
1
1
1
1
1
1
1
1
1
1
1
1
1
1
1
1
1
1
1
1
1
1
1
1
1
1
1
1
1
1
1
1
1
1
1
1
1
1
1
1
1
1
1
1
1
1
1
1
1
1
1
1
1
1
1
1
1
1
1
1
1
1
1
1
1
1
1
1
1
1
1
1
1
1
1
1
1
1
1
1
1
1
1
1
1
1
1
1
1
1
1
1
1
1
1
1
1
1
1
1
1
1
1
1
1
1
1
1
1
1
1
1
1
1
1
1
1
1
1
1
1
1
1
1
1
1
1
1
1
1
1
1
1
1
1
1
1
1
1
1
1
1
1
1
1
1
1
1
1
1
1
1
1
1
1
1
1
1
1
1
1
1
1
1
1
1
1
1
1
1
1
1
1
1
1
1
1
1
1
1
1
1
1
1
1
1
1
1
1
1
1
1
1
1
1
1
1
1
1
1
1
1
1
1
1
1
1
1
1
1
1
1
1
1
1
1
1
1
1
1
1
1
1
1
1
1
1
1
1
1
1
1
1
1
1
1
1
1
1
1
1
1
1
1
1
1
1
1
1
1
1
1
1
1
1
1
1
1
1
1
1
1
1
1
1
1
1
1
1
1
1
1
1
1
1
1
1
1
1
1
1
1
1
1
1
1
1
1
1
1
1
1
1
1
1
1
1
1
1
1
1
1
1
1
1
1
1
1
1
1
1
1
1
1
1
1
1
1
1
1
1
1
1
1
1
1
1
1
1
1
1
1
1
1
1
1
1
1
1
1
1
1
1
1
1
1
1
1
1
1
1
1
1
1
1
1
1
1
1
1
1
1
1
1
1
1
1
1
1
1
1
1
1
1
1
1
1
1
1
1
1
1
1
1
1
1
1
1
1
1
1
1
1
1
1
1
1
1
1
1
1
1
1
1
1
1
1
1
1
1
1
1
1
1
1
1
1
1
1
1
1
1
1
1
1
1
1
1
1
1
1
1
1
1
1
1
1
1
1
1
1
1
1
1
1
1
1
1
1
1
1
1
1
1
1
1
1
1
1
1
1
1
1
1
1
1
1
1
1
1
1
1
1
1
1
1
1
1
1
1
1
1
1
1
1
1
1
1
1
1
1
1
1
1
1
1
1
1
1
1
1
1
1
1
1
1
1
1
1
1
1
1
1
1
1
1
1
1
1
1
1
1
1
1
1
1
1
1
1
1
1
1
1
1
1
1
1
1
1
1
1
1
1
1
1
1
1
1
1
1
1
1
1
1
1
1
1
1
1
1
1
1
1
1
1
1
1
1
1
1
1
1
1
1
1
1
1
1
1
1
1
1
1
1
1
1
1
1
1
1
1
1
1
1
1
1
1
1
1
1
1
1
1
1
1
1
1
1
1
1
1
1
1
1
1
1
1
1
1
1
1
1
1
1
1
1
1
1
1
1
1
1
1
1
1
1
1
1
1
1
1
1
1
1
1
1
1
1
1
1
1
1
1
1
1
1
1
1
1
1
1
1
1
1
1
1
1
1
1
1
1
1
1
1
1
1
1
1
1
1
1
1
1
1
1
1
1
1
1
1
1
1
1
1
1
1
1
1
1
1
1
1
1
1
1
1
1
1
1
1
1
1
1
1
1
1
1
1
1
1
1
1
1
1
1
1
1
1
1
1
1
1
1
1
1
1
1
1
1
1
1
1
1
1
1
1
1
1
1
1
1
1
1
1
1
1
1
1
1
1
1
1
1
1
1
1
1
1
1
1
1
1
1
1
1
1
1
1
1
1
1
1
1
1
1
1
1
1
1
1
1
1
1
1
1
1
1
1
1
1
1
1
1
1
1
1
1
1
1
1
1
1
1
1
1
1
1
1
1
1
1
1
1
1
1
1
1
1
1
1
1
1
1
1
1
1
1
1
1
1
1
1
1
1
1
1
1
1
1
1
1
1
1
1
1
1
1
1
1
1
1
1
1
1
1
1
1
1
1
1
1
1
1
1
1
1
1
1
1
1
1
1
1
1
1
1
1
1
1
1
1
1
1
1
1
1
1
1
1
1
1
1
1
1
1
1
1
1
1
1
1
1
1
1
1
1
1
1
1
1
1
1
1
1
1
1
1
1
1
1
1
1
1
1
1
1
1
1
1
1
1
1
1
1
1
1
1
1
1
1
1
1
1
1
1
1
1
1
1
1
1
1
1
1
1
1
1
1
1
1
1
1
1
1
1
1
1
1
1
1
1
1
1
1
1
1
1
1
1
1
1
1
1
1
1
1
1
1
1
1
1
1
1
1
1
1
1
1
1
1
1
1
1
1
1
1
1
1
1
1
1
1
1
1
1
1
1
1
1
1
1
1
1
1
1
1
1
1
1
1
1
1
1
1
1
1
1
1
1
1
1
1
1
1
1
1
1
1
1
1
1
1
1
1
1
1
1
1
1
1
1
1
1
1
1
1
1
1
1
1
1
1
1
1
1
1
1
1
1
1
1
1
1
1
1
1
1
1
1
1
1
1
1
1
1
1
1
1
1
1
1
1
1
1
1
1
1
1
1
1
1
1
1
1
1
1
1
1
1
1
1
1
1
1
1
1
1
1
1
1
1
1
1
1
1
1
1
1
1
1
1
1
1
1
1
1
1
1
1
1
1
1
1
1
1
1
1
1
1
1
1
1
1
1
1
1
1
1
1
1
1
1
1
1
1
1
1
1
1
1
1
1
1
1
1
1
1
1
1
1
1
1
1
1
1
1
1
1
1
1
1
1
1
1
1
1
1
1
1
1
1
1
1
1
1
1
1
1
1
1
1
1
1
1
1
1
1
1
1
1
1
1
1
1
1
1
1
1
1
1
1
1
1
1
1
1
1
1
1
1
1
1
1
1
1
1
1
1
1
1
1
1
1
1
1
1
1
1
1
1
1
1
1
1
1
1
1
1
1
1
1
1
1
1
1
1
1
1
1
1
1
1
1
1
1
1
1
1
1
1
1
1
1
1
1
1
1
1
1
1
1
1
1
1
1
1
1
1
1
1
1
1
1
1
1
1
1
1
1
1
1
1
1
1
1
1
1
1
1
1
1
1
1
1
1
1
1
1
1
1
1
1
1
1
1
1
1
1
1
1
1
1
1
1
1
1
1
1
1
1
1
1
1
1
1
1
1
1
1
1
1
1
1
1
1
1
1
1
1
1
1
1
1
1
1
1
1
1
1
1
1
1
1
1
1
1
1
1
1
1
1
1
1
1
1
1
1
1
1
1
1
1
1
1
1
1
1
1
1
1
1
1
1
1
1
1
1
1
1
1
1
1
1
1
1
1
1
1
1
1
1
1
1
1
1
1
1
1
1
1
1
1
1
1
1
1
1
1
1
1
1
1
1
1
1
1
1
1
1
1
1
1
1
1
1
1
1
1
1
1
1
1
1
1
1
1
1
1
1
1
1
1
1
1
1
1
1
1
1
1
1
1
1
1
1
1
1
1
1
1
1
1
1
1
1
1
1
1
1
1
1
1
1
1
1
1
1
1
1
1
1
1
1
1
1
1
1
1
1
1
1
1
1
1
1
1
1
1
1
1
1
1
1
1
1
1
1
1
1
1
1
1
1
1
1
1
1
1
1
1
1
1
1
1
1
1
1
1
1
1
1
1
1
1
1
1
1
1
1
1
1
1
1
1
1
1
1
1
1
1
1
1
1
1
1
1
1
1
1
1
1
1
1
1
1
1
1
1
1
1
1
1
1
1
1
1
1
1
1
1
1
1
1
1
1
1
1
1
1
1
1
1
1
1
1
1
1
1.07823
1.17775
1.28847
1.38355
1.46958
1.56077
1.61942
1.66519
1.69536
1.69061
1.66344
1.61485
1.56913
1.53562
1.52561
1.51706
1.51425
1.51729
1.52185
1.52644
1.53089
1.53386
1.53597
1.5379
1.53892
1.53968
1.5404
1.54151
1.54191
1.54166
1.54133
1.54167
1.5432
1.54548
1.54708
1.54739
1.5473
1.54678
1.54579
1.54496
1.54487
1.5451
1.54539
1.54571
1.54592
1.54606
1.54607
1.54593
1.00076
1.00602
1.02192
1.06927
1.13075
1.21249
1.30125
1.37937
1.45347
1.50331
1.53376
1.55362
1.56446
1.56156
1.55455
1.54759
1.53949
1.53683
1.532
1.53224
1.534
1.53689
1.53944
1.5421
1.54389
1.5449
1.54572
1.54569
1.54553
1.5454
1.54524
1.54541
1.54597
1.54669
1.54738
1.54762
1.54745
1.54698
1.54645
1.54636
1.54648
1.54678
1.54723
1.54781
1.54814
1.54818
1.54804
1.54845
1
0.999995
0.999999
1.00003
1.00052
1.00438
1.02236
1.07385
1.18458
1.34233
1.505
1.57964
1.62228
1.62203
1.61477
1.60025
1.58087
1.5558
1.54275
1.54264
1.54436
1.54682
1.54937
1.55272
1.55516
1.55598
1.55653
1.55689
1.55678
1.55686
1.55669
1.55625
1.55589
1.55544
1.55498
1.55446
1.55366
1.55271
1.55196
1.55168
1.55162
1.55173
1.55217
1.55284
1.55315
1.55308
1.55271
1.5537
1
1
1
1
1
0.999994
1.00002
1.00003
1.0021
1.02732
1.147
1.33479
1.49719
1.61052
1.60664
1.60271
1.6004
1.58916
1.57804
1.57151
1.56833
1.56476
1.56242
1.56292
1.5639
1.56507
1.56659
1.56774
1.56884
1.56916
1.56908
1.56866
1.5681
1.56767
1.56724
1.56649
1.56539
1.56415
1.56306
1.56241
1.5622
1.56219
1.56229
1.56232
1.56207
1.56133
1.56019
1.56095
1
1
1
1
1
1
1
1
1
0.999973
1.00061
1.01865
1.10478
1.30606
1.46105
1.57512
1.62501
1.62398
1.61486
1.60638
1.59362
1.58252
1.57761
1.5741
1.57204
1.57286
1.57381
1.57489
1.57628
1.57699
1.57681
1.57654
1.57684
1.57751
1.57749
1.57712
1.57639
1.57534
1.57426
1.57369
1.57366
1.57373
1.57376
1.57352
1.57269
1.5716
1.57001
1.57051
1
1
1
1
1
1
1
1
1
0.999999
0.999999
0.999982
1.00024
1.01102
1.08798
1.24694
1.43677
1.53552
1.60681
1.60964
1.60741
1.59775
1.59196
1.58745
1.5834
1.58033
1.57906
1.57856
1.57895
1.58057
1.58178
1.58288
1.58409
1.58434
1.58416
1.58368
1.58296
1.58209
1.58131
1.581
1.58095
1.58098
1.58093
1.58037
1.57923
1.57809
1.57663
1.57708
1
1
1
1
1
1
1
1
1
1
1
0.999999
0.999999
0.999986
1.00021
1.0057
1.0732
1.21868
1.40551
1.51013
1.56535
1.59415
1.59447
1.59411
1.5897
1.58635
1.58392
1.58118
1.57979
1.58023
1.58194
1.58493
1.58705
1.58692
1.58635
1.58572
1.58509
1.58437
1.58383
1.58367
1.5835
1.58364
1.58362
1.58315
1.58229
1.58161
1.58086
1.58115
1
1
1
1
1
1
1
1
1
1
1
1
1
0.999999
0.999999
0.99999
1.00022
1.005
1.05001
1.20223
1.35619
1.50408
1.54402
1.56337
1.57217
1.57616
1.57749
1.57562
1.57545
1.57645
1.57839
1.58046
1.58233
1.58399
1.58418
1.58385
1.58322
1.58292
1.58297
1.58318
1.58389
1.58442
1.58439
1.5841
1.5837
1.58344
1.58315
1.58318
1
1
1
1
1
1
1
1
1
1
1
1
1
1
1
0.999999
0.999999
0.999993
1.00009
1.00514
1.03854
1.17559
1.34466
1.47743
1.54552
1.55572
1.56601
1.5674
1.56768
1.56938
1.57066
1.57168
1.57306
1.57505
1.57676
1.57794
1.57874
1.5796
1.58055
1.58138
1.58224
1.58278
1.58297
1.58314
1.58321
1.58312
1.583
1.5829
1
1
1
1
1
1
1
1
1
1
1
1
1
1
1
1
1
1
1
0.999995
1.00007
1.00392
1.04329
1.15545
1.33034
1.45226
1.53354
1.55769
1.56185
1.56575
1.56667
1.56611
1.56605
1.56714
1.56908
1.57075
1.5724
1.57411
1.5756
1.57698
1.57823
1.57874
1.57919
1.57994
1.58056
1.58074
1.58104
1.5809
1
1
1
1
1
1
1
1
1
1
1
1
1
1
1
1
1
1
1
0.999999
1
0.999995
1.00013
1.0029
1.04254
1.15435
1.32193
1.44039
1.51577
1.55172
1.56204
1.56357
1.56453
1.56548
1.56582
1.56692
1.56857
1.56997
1.57132
1.57282
1.57399
1.57447
1.57488
1.57545
1.57587
1.57607
1.57663
1.57648
1
1
1
1
1
1
1
1
1
1
1
1
1
1
1
1
1
1
1
1
1
0.999999
1
0.999996
1.0002
1.00346
1.03708
1.16662
1.32381
1.45561
1.50581
1.5353
1.55152
1.55712
1.55796
1.56114
1.56342
1.56421
1.56514
1.5664
1.56776
1.56891
1.56965
1.57032
1.57089
1.5712
1.57191
1.5721
1
1
1
1
1
1
1
1
1
1
1
1
1
1
1
1
1
1
1
1
1
1
1
0.999999
1
0.999996
1.00017
1.00555
1.04
1.17819
1.33461
1.47382
1.51852
1.53198
1.54168
1.55027
1.55347
1.55491
1.55632
1.55827
1.56077
1.56281
1.56365
1.56389
1.56415
1.56452
1.56562
1.56648
1
1
1
1
1
1
1
1
1
1
1
1
1
1
1
1
1
1
1
1
1
1
1
1
1
1
1
0.999999
1.00021
1.00768
1.05301
1.19665
1.3632
1.48157
1.53875
1.54684
1.55015
1.55105
1.55132
1.55278
1.55534
1.5571
1.55789
1.5585
1.55853
1.5588
1.56009
1.56135
1
1
1
1
1
1
1
1
1
1
1
1
1
1
1
1
1
1
1
1
1
1
1
1
1
1
1
1
0.999999
1.00001
1.00045
1.01027
1.08173
1.23296
1.39795
1.49566
1.54434
1.5559
1.55566
1.55609
1.557
1.55802
1.55789
1.5577
1.5574
1.55738
1.55818
1.55926
1
1
1
1
1
1
1
1
1
1
1
1
1
1
1
1
1
1
1
1
1
1
1
1
1
1
1
1
1
1
0.999999
1.00002
1.00125
1.01749
1.12368
1.29206
1.44315
1.50544
1.53724
1.55242
1.55411
1.55553
1.55738
1.55744
1.55723
1.55744
1.55799
1.55878
1
1
1
1
1
1
1
1
1
1
1
1
1
1
1
1
1
1
1
1
1
1
1
1
1
1
1
1
1
1
1
1
0.999999
1.00008
1.00378
1.035
1.17863
1.35565
1.49764
1.52645
1.5384
1.54586
1.55013
1.55224
1.55332
1.55438
1.55599
1.55736
1
1
1
1
1
1
1
1
1
1
1
1
1
1
1
1
1
1
1
1
1
1
1
1
1
1
1
1
1
1
1
1
1
1
1
1.00032
1.01075
1.07467
1.26063
1.42423
1.52472
1.54814
1.55153
1.55244
1.55205
1.55228
1.55446
1.55646
1
1
1
1
1
1
1
1
1
1
1
1
1
1
1
1
1
1
1
1
1
1
1
1
1
1
1
1
1
1
1
1
1
1
1
0.999999
1.00004
1.0015
1.03077
1.14838
1.35279
1.4807
1.54388
1.5594
1.55837
1.55795
1.55862
1.55898
1
1
1
1
1
1
1
1
1
1
1
1
1
1
1
1
1
1
1
1
1
1
1
1
1
1
1
1
1
1
1
1
1
1
1
1
1
1
1.00034
1.00688
1.0858
1.26532
1.44832
1.51148
1.53708
1.55558
1.5571
1.55746
1
1
1
1
1
1
1
1
1
1
1
1
1
1
1
1
1
1
1
1
1
1
1
1
1
1
1
1
1
1
1
1
1
1
1
1
1
1
1
1.00003
1.00261
1.03182
1.18441
1.38475
1.51884
1.5401
1.54671
1.54908
1
1
1
1
1
1
1
1
1
1
1
1
1
1
1
1
1
1
1
1
1
1
1
1
1
1
1
1
1
1
1
1
1
1
1
1
1
1
1
1
1
1.00043
1.01444
1.10907
1.32449
1.48201
1.54967
1.55602
1
1
1
1
1
1
1
1
1
1
1
1
1
1
1
1
1
1
1
1
1
1
1
1
1
1
1
1
1
1
1
1
1
1
1
1
1
1
1
1
1
1
1.00012
1.00476
1.07
1.25371
1.43293
1.52298
1
1
1
1
1
1
1
1
1
1
1
1
1
1
1
1
1
1
1
1
1
1
1
1
1
1
1
1
1
1
1
1
1
1
1
1
1
1
1
1
1
1
1
1.00003
1.00204
1.03235
1.20398
1.40308
1
1
1
1
1
1
1
1
1
1
1
1
1
1
1
1
1
1
1
1
1
1
1
1
1
1
1
1
1
1
1
1
1
1
1
1
1
1
1
1
1
1
1
1
1.00001
1.00063
1.02449
1.13188
1
1
1
1
1
1
1
1
1
1
1
1
1
1
1
1
1
1
1
1
1
1
1
1
1
1
1
1
1
1
1
1
1
1
1
1
1
1
1
1
1
1
1
1
1
1
1.00049
1.00532
1
1
1
1
1
1
1
1
1
1
1
1
1
1
1
1
1
1
1
1
1
1
1
1
1
1
1
1
1
1
1
1
1
1
1
1
1
1
1
1
1
1
1
1
1
1
1
0.999945
1
1
1
1
1
1
1
1
1
1
1
1
1
1
1
1
1
1
1
1
1
1
1
1
1
1
1
1
1
1
1
1
1
1
1
1
1
1
1
1
1
1
1
1
1
1
1
0.999982
1
1
1
1
1
1
1
1
1
1
1
1
1
1
1
1
1
1
1
1
1
1
1
1
1
1
1
1
1
1
1
1
1
1
1
1
1
1
1
1
1
1
1
1
1
1
1
0.999997
1
1
1
1
1
1
1
1
1
1
1
1
1
1
1
1
1
1
1
1
1
1
1
1
1
1
1
1
1
1
1
1
1
1
1
1
1
1
1
1
1
1
1
1
1
1
1
1
1
1
1
1
1
1
1
1
1
1
1
1
1
1
1
1
1
1
1
1
1
1
1
1
1
1
1
1
1
1
1
1
1
1
1
1
1
1
1
1
1
1
1
1
1
1
1
1
1
1
1
1
1
1
1
1
1
1
1
1
1
1
1
1
1
1
1
1
1
1
1
1
1
1
1
1
1
1
1
1
1
1
1
1
1
1
1
1
1
1
1
1
1
1
1
1
1
1
1
1
1
1
1
1
1
1
1
1
1
1
1
1
1
1
1
1
1
1
1
1
1
1
1
1
1
1
1
1
1
1
1
1
1
1
1
1
1
1
1
1
1
1
1
1
1
1
1
1
1
1
1
1
1
1
1
1
1
1
1
1
1
1
1
1
1
1
1
1
1
1
1
1
1
1
1
1
1
1
1
1
1
1
1
1
1
1
1
1
1
1
1
1
1
1
1
1
1
1
1
1
1
1
1
1
1
1
1
1
1
1
1
1
1
1
1
1
1
1
1
1
1
1
1
1
1
1
1
1
1
1
1
1
1
1
1
1
1
1
1
1
1
1
1
1
1
1
1
1
1
1
1
1
1
1
1
1
1
1
1
1
1
1
1
1
1
1
1
1
1
1
1
1
1
1
1
1
1
1
1
1
1
1
1
1
1
1
1
0.999997
1
1
1
1
1
1
1
1
1
1
1
1
1
1
1
1
1
1
1
1
1
1
1
1
1
1
1
1
1
1
1
1
1
1
1
1
1
1
1
1
1
1
1
1
1
1
1
0.999982
1
1
1
1
1
1
1
1
1
1
1
1
1
1
1
1
1
1
1
1
1
1
1
1
1
1
1
1
1
1
1
1
1
1
1
1
1
1
1
1
1
1
1
1
1
1
1
0.999944
1
1
1
1
1
1
1
1
1
1
1
1
1
1
1
1
1
1
1
1
1
1
1
1
1
1
1
1
1
1
1
1
1
1
1
1
1
1
1
1
1
1
1
1
1
1
1.00049
1.00528
1
1
1
1
1
1
1
1
1
1
1
1
1
1
1
1
1
1
1
1
1
1
1
1
1
1
1
1
1
1
1
1
1
1
1
1
1
1
1
1
1
1
1
1
1.00001
1.00063
1.02452
1.13167
1
1
1
1
1
1
1
1
1
1
1
1
1
1
1
1
1
1
1
1
1
1
1
1
1
1
1
1
1
1
1
1
1
1
1
1
1
1
1
1
1
1
1
1.00003
1.00204
1.03241
1.20417
1.40253
1
1
1
1
1
1
1
1
1
1
1
1
1
1
1
1
1
1
1
1
1
1
1
1
1
1
1
1
1
1
1
1
1
1
1
1
1
1
1
1
1
1
1.00012
1.00476
1.06998
1.25402
1.43294
1.52255
1
1
1
1
1
1
1
1
1
1
1
1
1
1
1
1
1
1
1
1
1
1
1
1
1
1
1
1
1
1
1
1
1
1
1
1
1
1
1
1
1
1.00043
1.01445
1.109
1.32445
1.48224
1.5496
1.5557
1
1
1
1
1
1
1
1
1
1
1
1
1
1
1
1
1
1
1
1
1
1
1
1
1
1
1
1
1
1
1
1
1
1
1
1
1
1
1
1.00003
1.00261
1.03184
1.18441
1.38467
1.51886
1.54011
1.54673
1.54904
1
1
1
1
1
1
1
1
1
1
1
1
1
1
1
1
1
1
1
1
1
1
1
1
1
1
1
1
1
1
1
1
1
1
1
1
1
1
1.00034
1.00688
1.0858
1.26538
1.44822
1.5115
1.53713
1.55559
1.5571
1.55746
1
1
1
1
1
1
1
1
1
1
1
1
1
1
1
1
1
1
1
1
1
1
1
1
1
1
1
1
1
1
1
1
1
1
1
0.999999
1.00004
1.0015
1.03077
1.14837
1.3528
1.48072
1.54383
1.55941
1.55839
1.55796
1.55863
1.55898
1
1
1
1
1
1
1
1
1
1
1
1
1
1
1
1
1
1
1
1
1
1
1
1
1
1
1
1
1
1
1
1
1
1
1
1.00032
1.01075
1.07467
1.26063
1.42423
1.52473
1.54814
1.55152
1.55245
1.55205
1.55229
1.55447
1.55647
1
1
1
1
1
1
1
1
1
1
1
1
1
1
1
1
1
1
1
1
1
1
1
1
1
1
1
1
1
1
1
1
0.999999
1.00008
1.00378
1.035
1.17863
1.35565
1.49763
1.52646
1.5384
1.54586
1.55012
1.55224
1.55332
1.55438
1.55599
1.55736
1
1
1
1
1
1
1
1
1
1
1
1
1
1
1
1
1
1
1
1
1
1
1
1
1
1
1
1
1
1
0.999999
1.00002
1.00125
1.01749
1.12368
1.29206
1.44316
1.50545
1.53723
1.55242
1.55411
1.55553
1.55738
1.55744
1.55724
1.55744
1.55799
1.55878
1
1
1
1
1
1
1
1
1
1
1
1
1
1
1
1
1
1
1
1
1
1
1
1
1
1
1
1
0.999999
1.00001
1.00045
1.01027
1.08173
1.23296
1.39795
1.49566
1.54434
1.5559
1.55566
1.55609
1.557
1.55802
1.55789
1.5577
1.5574
1.55738
1.55818
1.55926
1
1
1
1
1
1
1
1
1
1
1
1
1
1
1
1
1
1
1
1
1
1
1
1
1
1
1
0.999999
1.00021
1.00768
1.05301
1.19665
1.3632
1.48157
1.53875
1.54684
1.55015
1.55105
1.55132
1.55278
1.55534
1.5571
1.55789
1.5585
1.55853
1.5588
1.56008
1.56135
1
1
1
1
1
1
1
1
1
1
1
1
1
1
1
1
1
1
1
1
1
1
1
0.999999
1
0.999996
1.00017
1.00555
1.04
1.17819
1.33461
1.47382
1.51853
1.53198
1.54168
1.55027
1.55347
1.55491
1.55632
1.55827
1.56077
1.56281
1.56365
1.56389
1.56415
1.56452
1.56562
1.56648
1
1
1
1
1
1
1
1
1
1
1
1
1
1
1
1
1
1
1
1
1
0.999999
1
0.999996
1.0002
1.00346
1.03708
1.16662
1.32381
1.45561
1.50581
1.5353
1.55152
1.55712
1.55796
1.56114
1.56342
1.56421
1.56514
1.5664
1.56776
1.56891
1.56965
1.57032
1.57089
1.5712
1.57191
1.5721
1
1
1
1
1
1
1
1
1
1
1
1
1
1
1
1
1
1
1
0.999999
1
0.999995
1.00013
1.0029
1.04254
1.15435
1.32193
1.44039
1.51577
1.55172
1.56204
1.56357
1.56453
1.56548
1.56582
1.56692
1.56857
1.56997
1.57132
1.57282
1.57399
1.57447
1.57488
1.57545
1.57587
1.57607
1.57663
1.57648
1
1
1
1
1
1
1
1
1
1
1
1
1
1
1
1
1
1
1
0.999995
1.00007
1.00392
1.04329
1.15545
1.33034
1.45226
1.53354
1.55769
1.56185
1.56575
1.56667
1.56611
1.56605
1.56714
1.56908
1.57075
1.5724
1.57411
1.5756
1.57698
1.57823
1.57874
1.57919
1.57994
1.58056
1.58074
1.58104
1.5809
1
1
1
1
1
1
1
1
1
1
1
1
1
1
1
0.999999
0.999999
0.999993
1.00009
1.00514
1.03854
1.17559
1.34466
1.47743
1.54552
1.55572
1.56601
1.5674
1.56768
1.56938
1.57066
1.57168
1.57306
1.57505
1.57676
1.57794
1.57874
1.5796
1.58055
1.58138
1.58224
1.58278
1.58297
1.58314
1.58321
1.58312
1.583
1.5829
1
1
1
1
1
1
1
1
1
1
1
1
1
0.999999
0.999999
0.99999
1.00022
1.005
1.05001
1.20223
1.35619
1.50408
1.54402
1.56337
1.57217
1.57616
1.57749
1.57562
1.57545
1.57645
1.57839
1.58046
1.58233
1.58399
1.58418
1.58385
1.58322
1.58292
1.58297
1.58318
1.58389
1.58442
1.58439
1.5841
1.5837
1.58344
1.58315
1.58318
1
1
1
1
1
1
1
1
1
1
1
0.999999
0.999999
0.999986
1.00021
1.0057
1.0732
1.21868
1.40551
1.51013
1.56535
1.59415
1.59447
1.59411
1.5897
1.58635
1.58392
1.58118
1.57979
1.58023
1.58194
1.58493
1.58705
1.58692
1.58635
1.58572
1.58509
1.58437
1.58383
1.58367
1.5835
1.58364
1.58362
1.58315
1.58229
1.58161
1.58086
1.58115
1
1
1
1
1
1
1
1
1
0.999999
0.999999
0.999982
1.00024
1.01102
1.08798
1.24694
1.43677
1.53552
1.60681
1.60964
1.60741
1.59775
1.59196
1.58745
1.5834
1.58033
1.57906
1.57856
1.57895
1.58057
1.58178
1.58288
1.58409
1.58434
1.58416
1.58368
1.58296
1.58209
1.58131
1.581
1.58095
1.58098
1.58093
1.58037
1.57923
1.57809
1.57663
1.57708
1
1
1
1
1
1
1
1
1
0.999973
1.00061
1.01865
1.10478
1.30606
1.46105
1.57512
1.62501
1.62398
1.61486
1.60638
1.59362
1.58252
1.57761
1.5741
1.57204
1.57286
1.57381
1.57489
1.57628
1.57699
1.57681
1.57654
1.57684
1.57751
1.57749
1.57712
1.57639
1.57534
1.57426
1.57369
1.57366
1.57373
1.57376
1.57352
1.57269
1.5716
1.57001
1.57051
1
1
1
1
1
0.999994
1.00002
1.00003
1.0021
1.02732
1.147
1.33479
1.49719
1.61052
1.60664
1.60271
1.6004
1.58916
1.57804
1.57151
1.56833
1.56476
1.56242
1.56292
1.5639
1.56507
1.56659
1.56774
1.56884
1.56916
1.56908
1.56866
1.5681
1.56767
1.56724
1.56649
1.56539
1.56415
1.56306
1.56241
1.5622
1.56219
1.56229
1.56232
1.56207
1.56133
1.56019
1.56095
1
0.999995
0.999999
1.00003
1.00052
1.00438
1.02236
1.07385
1.18458
1.34233
1.505
1.57964
1.62228
1.62203
1.61477
1.60025
1.58087
1.5558
1.54275
1.54264
1.54436
1.54682
1.54937
1.55272
1.55516
1.55598
1.55653
1.55689
1.55678
1.55686
1.55669
1.55625
1.55589
1.55544
1.55498
1.55446
1.55366
1.55271
1.55196
1.55168
1.55162
1.55173
1.55217
1.55284
1.55315
1.55308
1.55271
1.5537
1.00076
1.00602
1.02192
1.06927
1.13075
1.21249
1.30125
1.37937
1.45347
1.50331
1.53376
1.55362
1.56446
1.56156
1.55455
1.54759
1.53949
1.53683
1.532
1.53224
1.534
1.53689
1.53944
1.5421
1.54389
1.5449
1.54572
1.54569
1.54553
1.5454
1.54524
1.54541
1.54597
1.54669
1.54738
1.54762
1.54745
1.54698
1.54645
1.54636
1.54648
1.54678
1.54723
1.54781
1.54814
1.54818
1.54804
1.54845
1.07823
1.17775
1.28847
1.38355
1.46958
1.56077
1.61942
1.66519
1.69536
1.69061
1.66344
1.61485
1.56913
1.53562
1.52561
1.51706
1.51425
1.51729
1.52185
1.52644
1.53089
1.53386
1.53597
1.5379
1.53892
1.53968
1.5404
1.54151
1.54191
1.54166
1.54133
1.54167
1.5432
1.54548
1.54708
1.54739
1.5473
1.54678
1.54579
1.54496
1.54487
1.5451
1.54539
1.54571
1.54592
1.54606
1.54607
1.54593
1.40172
1.23674
1.12246
1.02597
0.968713
0.98256
1.01647
1.01919
1.03305
1.07389
1.10536
1.10114
1.09794
1.1028
1.10895
1.11266
1.1176
1.12475
1.12383
1.12076
1.11693
1.11659
1.11596
1.11304
1.11152
1.11184
1.11151
1.1102
1.10783
1.10539
1.10402
1.10358
1.10323
1.10344
1.10446
1.10504
1.10506
1.10496
1.10415
1.10356
1.10365
1.10393
1.10436
1.10441
1.10434
1.10393
1.10262
1.10236
1.10498
1.16361
1.33376
1.57022
1.80983
2.04286
2.24122
2.24133
2.18297
2.10902
2.0866
2.07415
2.06132
2.04998
2.04245
2.03777
2.02929
2.01741
1.99838
1.97198
1.95808
1.95148
1.94684
1.94262
1.93482
1.92559
1.91205
1.887
1.86041
1.85009
1.84472
1.84237
1.84093
1.83609
1.83034
1.81889
1.79771
1.78215
1.77583
1.77065
1.76502
1.75756
1.74511
1.72633
1.71354
1.70815
1.70415
1.70129
1.69819
1.69426
1.68807
1.67315
1.65169
1.63908
1.63392
1.63055
1.62755
1.62401
1.619
1.61145
1.59971
1.58797
1.58118
1.57638
1.57162
1.56567
1.55575
1.54165
1.53379
1.5305
1.52759
1.52499
1.52238
1.51941
1.51484
1.50473
1.48765
1.47685
1.47305
1.4704
1.46804
1.46612
1.46351
1.45967
1.45409
1.44328
1.43063
1.42469
1.42141
1.41876
1.4158
1.41254
1.40895
1.40386
1.39651
1.38946
1.39269
1.4153
1.47921
1.59241
1.7039
1.78665
1.84903
1.89917
1.9136
1.90356
1.89295
1.88459
1.87571
1.86915
1.86321
1.85478
1.84525
1.83779
1.83231
1.82708
1.81961
1.81264
1.81041
1.80883
1.80765
1.80579
1.80197
1.79652
1.78734
1.77735
1.77403
1.77266
1.77171
1.77054
1.76819
1.76318
1.7519
1.73904
1.73318
1.72983
1.72722
1.72672
1.72729
1.72594
1.72491
1.7236
1.71855
1.70348
1.50245
1.41153
1.33062
1.26328
1.16962
1.1301
1.11025
1.07508
1.07034
1.0753
1.06831
1.05737
1.05713
1.06236
1.07274
1.08012
1.08583
1.09605
1.09769
1.09649
1.09644
1.09866
1.10162
1.10269
1.10439
1.1052
1.10497
1.10365
1.10164
1.10034
1.09998
1.09968
1.09933
1.09965
1.10058
1.101
1.10104
1.10083
1.10002
1.09932
1.09919
1.09931
1.09962
1.09966
1.09952
1.09862
1.09886
1.10248
1.15515
1.36144
1.52684
1.5744
1.66491
1.76799
1.95594
2.08509
2.13352
2.12471
2.10854
2.08495
2.06608
2.05734
2.05047
2.04317
2.03279
2.02111
2.00481
1.98127
1.96032
1.94967
1.94299
1.93913
1.93434
1.92659
1.91555
1.89746
1.87351
1.85679
1.84947
1.84422
1.84005
1.83468
1.82794
1.81849
1.80371
1.78739
1.77723
1.77174
1.76668
1.76009
1.74911
1.7339
1.72055
1.71158
1.70578
1.70107
1.69669
1.69218
1.68508
1.67263
1.65682
1.64559
1.63769
1.63118
1.62681
1.62386
1.62081
1.61477
1.60455
1.59364
1.58667
1.5816
1.5766
1.57055
1.56126
1.54819
1.53932
1.53538
1.53209
1.52892
1.52578
1.52227
1.51739
1.50809
1.49233
1.48036
1.47555
1.47213
1.46869
1.46573
1.46412
1.46227
1.458
1.44898
1.43615
1.42867
1.42506
1.4219
1.41877
1.41569
1.41283
1.40854
1.40386
1.40837
1.43665
1.49587
1.57012
1.6213
1.66602
1.72159
1.77217
1.81174
1.84388
1.86669
1.88569
1.8889
1.88377
1.8748
1.86584
1.85803
1.84976
1.84244
1.83625
1.83023
1.82353
1.81635
1.81345
1.81158
1.80981
1.80786
1.80431
1.79894
1.79079
1.78109
1.77634
1.7747
1.77319
1.77158
1.76912
1.76436
1.75529
1.74368
1.73621
1.73232
1.72987
1.72889
1.72747
1.72568
1.72404
1.72167
1.71664
1.70435
1.539
1.49778
1.43079
1.36438
1.28729
1.22097
1.18022
1.13484
1.08369
1.07228
1.05914
1.04087
1.04059
1.04488
1.05056
1.0527
1.05543
1.06288
1.06899
1.07115
1.07336
1.07727
1.08214
1.085
1.08731
1.08935
1.09009
1.09015
1.08988
1.08938
1.08926
1.08921
1.08945
1.09032
1.09054
1.09059
1.09062
1.09016
1.08941
1.08919
1.08925
1.08976
1.09039
1.09061
1.09031
1.0913
1.10091
1.15436
1.35907
1.54892
1.60362
1.60233
1.60595
1.61771
1.69732
1.90631
2.10469
2.15947
2.14313
2.10323
2.07356
2.06585
2.05817
2.04568
2.03252
2.0227
2.01255
1.99621
1.97405
1.95404
1.94297
1.93575
1.93016
1.92334
1.91511
1.90586
1.89169
1.87331
1.85899
1.85088
1.84357
1.83527
1.8255
1.81488
1.80446
1.79444
1.78544
1.77588
1.76614
1.75675
1.74728
1.73825
1.72885
1.71879
1.71054
1.70526
1.69902
1.69055
1.67967
1.66754
1.65883
1.65209
1.64409
1.63556
1.62874
1.62278
1.61675
1.60992
1.60109
1.59252
1.58586
1.57991
1.57422
1.56856
1.56136
1.55157
1.53887
1.53076
1.52758
1.52451
1.5212
1.51755
1.51276
1.50432
1.49224
1.48568
1.48222
1.478
1.47371
1.46936
1.46477
1.46035
1.45506
1.44601
1.43335
1.4249
1.42069
1.41691
1.41422
1.41188
1.41137
1.41207
1.42002
1.46221
1.53375
1.58944
1.63146
1.6415
1.64699
1.65888
1.68692
1.73065
1.79284
1.8475
1.87713
1.89227
1.88963
1.88169
1.86776
1.86004
1.85336
1.84574
1.83894
1.83442
1.83037
1.82378
1.8145
1.8092
1.80688
1.80475
1.80273
1.79889
1.79345
1.78731
1.78038
1.77421
1.77099
1.76884
1.76625
1.7622
1.75643
1.7496
1.74305
1.73823
1.73503
1.73197
1.72949
1.7275
1.72502
1.72054
1.71346
1.70329
1.5561
1.53836
1.49727
1.44302
1.37959
1.31311
1.26538
1.21844
1.1581
1.13292
1.11356
1.08013
1.06389
1.0639
1.05696
1.04772
1.04703
1.04711
1.04578
1.04626
1.04858
1.05507
1.06492
1.07087
1.07384
1.07602
1.07717
1.07823
1.07833
1.07843
1.07929
1.08114
1.08339
1.08402
1.0839
1.0835
1.08255
1.08159
1.08154
1.0817
1.08192
1.08193
1.08212
1.08255
1.08399
1.10545
1.20533
1.35053
1.53994
1.61761
1.62333
1.61933
1.61567
1.60213
1.60044
1.64743
1.83823
2.07561
2.12248
2.10829
2.09823
2.08501
2.06824
2.0502
2.03897
2.03214
2.02371
2.0116
1.99206
1.96859
1.94924
1.93892
1.93151
1.92545
1.92012
1.91417
1.90702
1.89358
1.87411
1.85616
1.84472
1.83503
1.82579
1.81772
1.81126
1.80441
1.79334
1.77775
1.76492
1.75745
1.75201
1.74696
1.74053
1.73226
1.72197
1.70894
1.69697
1.68531
1.6753
1.66901
1.66498
1.66028
1.65385
1.6454
1.63531
1.6239
1.61382
1.6073
1.60233
1.59707
1.59091
1.58358
1.57643
1.57103
1.56623
1.55831
1.54565
1.53413
1.52882
1.52597
1.52299
1.5193
1.51322
1.50413
1.49649
1.49022
1.48245
1.47529
1.47119
1.46811
1.46425
1.45909
1.45358
1.44591
1.43469
1.42604
1.42133
1.41773
1.41614
1.41585
1.42112
1.44589
1.49853
1.57353
1.62121
1.64669
1.65772
1.65707
1.65337
1.64804
1.6492
1.66258
1.70103
1.76383
1.81961
1.866
1.87502
1.87409
1.87233
1.86791
1.86042
1.85228
1.8481
1.84465
1.84064
1.8331
1.82168
1.81357
1.80997
1.807
1.80416
1.80215
1.79855
1.79383
1.78722
1.77951
1.774
1.77023
1.76664
1.76337
1.76085
1.75818
1.75347
1.74682
1.73915
1.73476
1.73227
1.72972
1.72601
1.71903
1.71223
1.70628
1.56658
1.56019
1.53892
1.5024
1.45051
1.38964
1.34227
1.29347
1.23152
1.1965
1.17205
1.13658
1.10486
1.09236
1.07623
1.05451
1.04932
1.04865
1.04431
1.04382
1.04634
1.05009
1.05577
1.06174
1.06404
1.06589
1.06733
1.06883
1.07094
1.0722
1.07343
1.07695
1.07938
1.07958
1.07938
1.07887
1.07854
1.07857
1.07922
1.08025
1.0804
1.08019
1.07965
1.0803
1.10209
1.26192
1.43439
1.53454
1.60651
1.6329
1.6316
1.62643
1.62235
1.61687
1.59925
1.59223
1.61492
1.76874
1.97863
2.10798
2.11989
2.10377
2.07448
2.0546
2.04655
2.04008
2.02996
2.01784
2.00337
1.98374
1.96193
1.94431
1.93499
1.928
1.92324
1.91744
1.91033
1.90222
1.88598
1.86287
1.84672
1.83793
1.83124
1.82529
1.81911
1.81069
1.79551
1.7761
1.76637
1.76209
1.75832
1.75388
1.74803
1.74057
1.72798
1.70796
1.69149
1.68351
1.6789
1.67535
1.67183
1.66738
1.66188
1.65459
1.64253
1.62593
1.61383
1.60597
1.59953
1.59428
1.58977
1.58503
1.579
1.57205
1.56522
1.55856
1.55101
1.54183
1.53401
1.52855
1.52425
1.51974
1.51379
1.50653
1.50047
1.49425
1.48685
1.4792
1.47307
1.46935
1.46603
1.46141
1.4537
1.44375
1.43523
1.42909
1.42479
1.42154
1.42246
1.43351
1.47935
1.54679
1.61404
1.65618
1.66281
1.66563
1.66459
1.66245
1.65709
1.64959
1.64801
1.64804
1.65412
1.67444
1.71965
1.78206
1.84162
1.86561
1.87633
1.87163
1.86376
1.85711
1.85338
1.85034
1.84583
1.84002
1.83173
1.82169
1.81412
1.81003
1.80622
1.80258
1.79862
1.79456
1.79025
1.78435
1.77745
1.77291
1.77013
1.76768
1.76453
1.76076
1.75671
1.75157
1.74529
1.74009
1.73569
1.73107
1.72506
1.71836
1.71504
1.71037
1.5746
1.57065
1.56161
1.54138
1.50644
1.45467
1.40725
1.36077
1.30679
1.2676
1.23693
1.19768
1.16185
1.14361
1.12502
1.09505
1.08214
1.07592
1.0637
1.05602
1.05716
1.0574
1.0547
1.05427
1.0544
1.05449
1.05613
1.05948
1.06405
1.06866
1.07183
1.0763
1.07859
1.07882
1.07876
1.07837
1.07811
1.07842
1.07953
1.08064
1.08068
1.08044
1.08177
1.10359
1.26463
1.50297
1.5801
1.61174
1.63093
1.6257
1.62722
1.6282
1.62407
1.62011
1.60905
1.58995
1.58337
1.59262
1.68442
1.89122
2.06129
2.08481
2.07658
2.06541
2.05469
2.04177
2.02922
2.019
2.00835
1.9938
1.97355
1.95272
1.93864
1.9306
1.924
1.91816
1.91114
1.90218
1.88902
1.86937
1.85188
1.84287
1.83687
1.8311
1.82449
1.8146
1.79746
1.77788
1.76898
1.76432
1.76137
1.76064
1.75557
1.74729
1.732
1.70746
1.68982
1.6845
1.68179
1.68147
1.68155
1.67757
1.67185
1.6629
1.6452
1.62568
1.61481
1.60822
1.60261
1.59751
1.59282
1.58812
1.58256
1.57514
1.5675
1.56144
1.55568
1.54899
1.54022
1.53019
1.52275
1.51791
1.51451
1.51169
1.5076
1.50164
1.49459
1.48711
1.48021
1.47377
1.46698
1.45944
1.45036
1.44142
1.43585
1.43315
1.4305
1.43311
1.45348
1.51273
1.59971
1.64502
1.6735
1.6848
1.68298
1.67776
1.66991
1.66675
1.66361
1.65935
1.65548
1.65223
1.64926
1.64537
1.65021
1.67657
1.73815
1.80583
1.84729
1.86036
1.86363
1.86395
1.86243
1.85781
1.85107
1.84442
1.83809
1.82926
1.82009
1.81319
1.80881
1.80493
1.80143
1.79776
1.79379
1.78809
1.78112
1.77651
1.77339
1.77065
1.7677
1.76427
1.76041
1.75618
1.75139
1.74424
1.7363
1.72896
1.7233
1.71978
1.71793
1.71366
1.58
1.57739
1.57333
1.56433
1.54304
1.50667
1.46657
1.41955
1.36912
1.33254
1.29777
1.25709
1.22144
1.19661
1.17166
1.13814
1.1197
1.10873
1.09333
1.07247
1.06992
1.06726
1.06083
1.05922
1.05884
1.0566
1.05619
1.05687
1.05944
1.06505
1.0707
1.07465
1.07722
1.07805
1.07865
1.07929
1.07966
1.08029
1.08163
1.08222
1.08254
1.08742
1.13033
1.27287
1.5233
1.62278
1.63833
1.63646
1.63294
1.6236
1.61933
1.62029
1.61965
1.61808
1.61129
1.59367
1.57783
1.56893
1.56995
1.61616
1.78566
1.97363
2.05297
2.06268
2.05147
2.03118
2.01989
2.01343