/*--------------------------------*- C++ -*----------------------------------*\
  =========                 |
  \\      /  F ield         | OpenFOAM: The Open Source CFD Toolbox
   \\    /   O peration     | Website:  https://openfoam.org
    \\  /    A nd           | Version:  7
     \\/     M anipulation  |
\*---------------------------------------------------------------------------*/
FoamFile
{
    version     2.0;
    format      ascii;
    class       volVectorField;
    location    "2.8";
    object      U;
}
// * * * * * * * * * * * * * * * * * * * * * * * * * * * * * * * * * * * * * //

dimensions      [0 1 -1 0 0 0 0];

internalField   nonuniform List<vector> 
18432
(
(3 -3.91612e-21 0)
(3 -1.71895e-17 0)
(3 -4.20598e-16 0)
(3 -4.48611e-16 0)
(3 -2.89828e-16 0)
(3 -5.0616e-17 0)
(3 3.3337e-16 0)
(3 1.98904e-16 0)
(3 -2.04193e-16 0)
(3 -1.89133e-16 0)
(3 4.32582e-16 0)
(3 1.00855e-15 0)
(3 1.25329e-15 0)
(3 8.12165e-16 0)
(3 -7.20633e-17 0)
(3 -1.18525e-15 0)
(3 -6.75141e-16 0)
(3 -4.61708e-16 0)
(3 6.05445e-16 0)
(3 7.72032e-16 0)
(3 9.36467e-16 0)
(3 6.73652e-16 0)
(3 6.77198e-16 0)
(3 5.09575e-16 0)
(3 5.63295e-16 0)
(3 8.49346e-16 0)
(3 1.10574e-15 0)
(3 9.62336e-16 0)
(3 6.34301e-16 0)
(3 5.51795e-16 0)
(3 4.83973e-16 0)
(3 -7.76432e-16 0)
(3 -8.43013e-16 0)
(3 -6.77792e-16 0)
(3 -8.065e-16 0)
(3 -1.23476e-15 0)
(3 -1.3085e-15 0)
(3 -1.12954e-15 0)
(3 -9.4686e-16 0)
(3 -1.55662e-15 0)
(3 -1.8613e-15 0)
(3 -1.11696e-15 0)
(3 -5.31425e-16 0)
(3 1.1538e-15 0)
(3 2.18111e-15 0)
(3 1.89321e-15 0)
(3 1.27604e-15 0)
(3 9.30895e-17 0)
(3 2.22662e-17 0)
(3 -3.36645e-17 0)
(3 -3.64428e-16 0)
(3 -5.56123e-16 0)
(3 -4.02956e-16 0)
(3 7.01436e-17 0)
(3 3.77915e-16 0)
(3 -5.95597e-17 0)
(3 -7.39282e-16 0)
(3 -7.52203e-16 0)
(3 4.62937e-16 0)
(3 2.08412e-15 0)
(3 2.21066e-15 0)
(3 1.23929e-15 0)
(3 -1.23051e-16 0)
(3 -6.45833e-16 0)
(3 -7.9423e-16 0)
(3 -5.02108e-16 0)
(3 -2.1963e-16 0)
(3 3.2075e-18 0)
(3 3.2852e-16 0)
(3 2.57775e-16 0)
(3 1.04841e-16 0)
(3 1.21275e-15 0)
(3 1.75706e-15 0)
(3 1.21748e-15 0)
(3 8.04038e-16 0)
(3 8.54925e-16 0)
(3 6.35122e-16 0)
(3 -1.24864e-16 0)
(3 -1.61525e-16 0)
(3 4.19271e-16 0)
(3 4.91688e-16 0)
(3 3.86221e-16 0)
(3 -1.83875e-16 0)
(3 -1.27416e-15 0)
(3 -1.06292e-15 0)
(3 -1.35644e-15 0)
(3 -1.72204e-15 0)
(3 -2.06113e-15 0)
(3 -2.7634e-15 0)
(3 -2.57395e-15 0)
(3 -1.54282e-15 0)
(3 1.41605e-16 0)
(3 2.39117e-15 0)
(3 3.59588e-15 0)
(3 2.62174e-15 0)
(3 9.42856e-16 0)
(3 5.82179e-17 0)
(3 -4.974e-16 0)
(3 -6.13358e-16 0)
(3 -5.42234e-16 0)
(3 -2.47662e-16 0)
(3 -4.01536e-17 0)
(3 -3.09988e-16 0)
(3 -6.91936e-16 0)
(3 -6.08322e-16 0)
(3 -7.17055e-16 0)
(3 -6.22528e-16 0)
(3 -2.08892e-16 0)
(3 7.64477e-17 0)
(3 3.52783e-16 0)
(3 3.9262e-16 0)
(3 3.79654e-16 0)
(3 1.48381e-16 0)
(3 -3.83846e-16 0)
(3 -1.63264e-15 0)
(3 -1.32056e-15 0)
(3 -1.36312e-15 0)
(3 -4.09683e-16 0)
(3 5.9613e-16 0)
(3 1.15068e-15 0)
(3 1.05309e-15 0)
(3 7.59247e-16 0)
(3 -2.15063e-16 0)
(3 -8.68681e-16 0)
(3 1.88514e-16 0)
(3 3.14974e-16 0)
(3 -9.44041e-16 0)
(3 -6.83074e-16 0)
(3 -5.02588e-16 0)
(3 -6.05684e-16 0)
(3 -8.55483e-16 0)
(3 -1.02378e-15 0)
(3 -2.27119e-15 0)
(3 -2.89996e-15 0)
(3 -2.75296e-15 0)
(3 -2.26647e-15 0)
(3 -2.01384e-15 0)
(3 -1.97807e-15 0)
(3 -2.07638e-15 0)
(3 -2.0862e-15 0)
(3 -5.94445e-16 0)
(3 3.8881e-16 0)
(3 7.44089e-17 0)
(3 1.59549e-16 0)
(3 -9.32242e-17 0)
(3 -3.40369e-16 0)
(3 -8.95156e-16 0)
(3 -8.06526e-16 0)
(3 -7.50272e-16 0)
(3 -9.29318e-16 0)
(3 -9.69327e-16 0)
(3 -8.49384e-16 0)
(3 -2.823e-16 0)
(3 4.71905e-16 0)
(3 -1.14009e-15 0)
(3 -1.73613e-15 0)
(3 -2.10396e-15 0)
(3 -1.60676e-15 0)
(3 -3.24107e-16 0)
(3 -6.49183e-17 0)
(3 1.20891e-16 0)
(3 -9.08741e-16 0)
(3 -8.4696e-16 0)
(3 -2.85528e-16 0)
(3 2.66372e-18 0)
(3 7.24682e-16 0)
(3 1.86511e-15 0)
(3 2.72729e-15 0)
(3 2.25162e-15 0)
(3 1.35312e-15 0)
(3 1.10997e-16 0)
(3 -1.17206e-15 0)
(3 -1.69929e-15 0)
(3 -6.50218e-16 0)
(3 -1.53485e-15 0)
(3 -3.31977e-15 0)
(3 -3.4288e-15 0)
(3 -2.85658e-15 0)
(3 -2.80079e-15 0)
(3 -2.74942e-15 0)
(3 -3.18619e-15 0)
(3 -1.96758e-15 0)
(3 -2.14225e-15 0)
(3 -2.151e-15 0)
(3 -1.46641e-15 0)
(3 -1.17338e-15 0)
(3 -8.23946e-16 0)
(3 -9.66306e-16 0)
(3 -1.63509e-15 0)
(3 -1.63702e-15 0)
(3 -1.95632e-15 0)
(3 -2.4757e-15 0)
(3 -3.88318e-17 0)
(3 1.69402e-16 0)
(3 1.17624e-16 0)
(3 1.44974e-16 0)
(3 -2.97132e-17 0)
(3 -3.39232e-16 0)
(3 -5.17835e-16 0)
(3 6.1509e-17 0)
(3 1.32848e-16 0)
(3 8.68281e-16 0)
(3 1.16849e-16 0)
(3 -1.28446e-15 0)
(3 -1.60635e-15 0)
(3 -1.63885e-15 0)
(3 -1.16504e-15 0)
(3 -3.72961e-16 0)
(3 -1.12051e-15 0)
(3 -1.57681e-15 0)
(3 -1.08735e-16 0)
(3 2.72416e-16 0)
(3 1.50517e-16 0)
(3 8.87218e-16 0)
(3 2.07462e-15 0)
(3 2.19812e-15 0)
(3 1.79807e-15 0)
(3 1.90411e-15 0)
(3 5.85709e-16 0)
(3 -1.79435e-16 0)
(3 -1.66216e-15 0)
(3 -3.66707e-15 0)
(3 -4.60072e-15 0)
(3 -5.44608e-15 0)
(3 -5.09927e-15 0)
(3 -4.13224e-15 0)
(3 -3.06292e-15 0)
(3 -2.67655e-15 0)
(3 -2.48752e-15 0)
(3 -1.94667e-15 0)
(3 -2.0463e-15 0)
(3 -2.13269e-15 0)
(3 -1.35575e-15 0)
(3 -1.32324e-15 0)
(3 -1.00394e-15 0)
(3 -1.87747e-16 0)
(3 2.49486e-16 0)
(3 5.60444e-16 0)
(3 5.79309e-16 0)
(3 -7.84998e-16 0)
(3 1.27028e-16 0)
(3 7.24749e-16 0)
(3 8.5678e-16 0)
(3 6.34431e-16 0)
(3 4.06775e-16 0)
(3 6.41175e-16 0)
(3 1.09237e-15 0)
(3 1.8884e-15 0)
(3 2.24828e-15 0)
(3 1.9027e-15 0)
(3 1.75362e-15 0)
(3 1.53784e-15 0)
(3 1.04848e-15 0)
(3 8.34613e-16 0)
(3 2.53888e-16 0)
(3 1.31042e-17 0)
(3 -4.36058e-16 0)
(3 -3.78144e-16 0)
(3 -4.04234e-16 0)
(3 -3.78478e-16 0)
(3 -2.54165e-16 0)
(3 3.48299e-16 0)
(3 1.69764e-15 0)
(3 2.15231e-15 0)
(3 2.45015e-15 0)
(3 1.8723e-15 0)
(3 -5.69686e-17 0)
(3 -7.22252e-16 0)
(3 -1.89827e-15 0)
(3 -3.54872e-15 0)
(3 -5.08847e-15 0)
(3 -4.69086e-15 0)
(3 -3.53746e-15 0)
(3 -3.3602e-15 0)
(3 -3.16261e-15 0)
(3 -3.34305e-15 0)
(3 -3.85858e-15 0)
(3 -3.87985e-15 0)
(3 -1.78541e-15 0)
(3 -1.42226e-15 0)
(3 -1.21168e-15 0)
(3 -1.52052e-15 0)
(3 -1.00135e-15 0)
(3 1.41577e-16 0)
(3 1.68398e-15 0)
(3 2.11297e-15 0)
(3 2.36703e-15 0)
(3 2.23623e-15 0)
(3 2.02385e-17 0)
(3 -1.13398e-17 0)
(3 2.7389e-16 0)
(3 1.4144e-16 0)
(3 3.84459e-16 0)
(3 4.68898e-16 0)
(3 6.93813e-16 0)
(3 9.55705e-16 0)
(3 8.72971e-16 0)
(3 5.08145e-16 0)
(3 8.20172e-16 0)
(3 1.69758e-15 0)
(3 1.917e-15 0)
(3 1.92047e-15 0)
(3 1.55233e-15 0)
(3 1.10269e-15 0)
(3 4.9814e-16 0)
(3 2.80401e-16 0)
(3 1.02555e-16 0)
(3 3.83019e-16 0)
(3 5.17014e-16 0)
(3 5.89038e-16 0)
(3 7.92932e-16 0)
(3 1.46434e-15 0)
(3 1.82158e-15 0)
(3 1.06677e-15 0)
(3 5.41634e-17 0)
(3 -2.48899e-16 0)
(3 -1.09837e-15 0)
(3 -1.23452e-15 0)
(3 -1.02619e-15 0)
(3 -1.59125e-15 0)
(3 -1.7614e-15 0)
(3 -3.04652e-15 0)
(3 -3.81603e-15 0)
(3 -4.45055e-15 0)
(3 -4.03945e-15 0)
(3 -2.30836e-15 0)
(3 -1.42101e-15 0)
(3 -3.72236e-16 0)
(3 1.94013e-16 0)
(3 7.32123e-16 0)
(3 1.32995e-15 0)
(3 2.08737e-15 0)
(3 1.77556e-15 0)
(3 1.51841e-15 0)
(3 1.60895e-15 0)
(3 2.30461e-15 0)
(3 -1.10864e-16 0)
(3 -4.88342e-16 0)
(3 -5.5696e-16 0)
(3 -6.60079e-16 0)
(3 2.04853e-17 0)
(3 3.03839e-16 0)
(3 3.19588e-16 0)
(3 -2.63066e-17 0)
(3 -6.07664e-16 0)
(3 -3.78806e-16 0)
(3 -6.83633e-16 0)
(3 9.2175e-17 0)
(3 1.63675e-15 0)
(3 1.14024e-15 0)
(3 1.07178e-15 0)
(3 9.14017e-16 0)
(3 5.46633e-16 0)
(3 3.15662e-16 0)
(3 1.7299e-16 0)
(3 3.62606e-16 0)
(3 3.80989e-16 0)
(3 4.16384e-16 0)
(3 4.98952e-16 0)
(3 1.13015e-15 0)
(3 9.18946e-16 0)
(3 4.72639e-16 0)
(3 -1.97061e-16 0)
(3 3.56795e-16 0)
(3 6.02461e-16 0)
(3 1.30761e-15 0)
(3 2.23086e-15 0)
(3 2.17357e-15 0)
(3 1.51176e-15 0)
(3 3.02323e-16 0)
(3 -1.29503e-15 0)
(3 -1.5458e-15 0)
(3 -1.01044e-15 0)
(3 -5.93957e-16 0)
(3 -3.86942e-16 0)
(3 3.78337e-16 0)
(3 9.7702e-16 0)
(3 2.25908e-15 0)
(3 2.18297e-15 0)
(3 1.75019e-15 0)
(3 1.30038e-15 0)
(3 9.20217e-16 0)
(3 8.60482e-16 0)
(3 1.18578e-15 0)
(3 5.91332e-17 0)
(3 -2.14973e-16 0)
(3 -5.06689e-16 0)
(3 -3.72892e-16 0)
(3 -2.33227e-16 0)
(3 -3.01401e-17 0)
(3 -1.94861e-16 0)
(3 -7.0115e-16 0)
(3 -8.23088e-16 0)
(3 -1.06055e-15 0)
(3 -1.5917e-15 0)
(3 -1.51678e-15 0)
(3 -1.25205e-15 0)
(3 -1.12319e-15 0)
(3 -6.54352e-16 0)
(3 -3.40816e-16 0)
(3 5.74528e-17 0)
(3 1.28701e-16 0)
(3 8.53584e-16 0)
(3 1.05093e-15 0)
(3 4.86702e-16 0)
(3 6.57345e-16 0)
(3 1.12637e-15 0)
(3 1.61911e-15 0)
(3 9.25789e-16 0)
(3 -8.44852e-16 0)
(3 -1.58543e-15 0)
(3 -2.12585e-16 0)
(3 1.3348e-15 0)
(3 2.58756e-15 0)
(3 3.50111e-15 0)
(3 3.56702e-15 0)
(3 3.01762e-15 0)
(3 2.77663e-15 0)
(3 2.31673e-15 0)
(3 2.26014e-15 0)
(3 1.72886e-15 0)
(3 9.96599e-16 0)
(3 5.58168e-16 0)
(3 4.76549e-16 0)
(3 7.75285e-16 0)
(3 1.73005e-15 0)
(3 1.97555e-15 0)
(3 2.8249e-15 0)
(3 3.75896e-15 0)
(3 3.68976e-15 0)
(3 3.07008e-15 0)
(3 2.61188e-15 0)
(3 -1.08196e-16 0)
(3 -7.59984e-17 0)
(3 -8.56492e-18 0)
(3 2.8458e-16 0)
(3 2.33965e-16 0)
(3 -1.98299e-16 0)
(3 -1.93681e-16 0)
(3 -5.31205e-16 0)
(3 -9.41213e-16 0)
(3 -1.80157e-15 0)
(3 -1.58734e-15 0)
(3 -2.3758e-15 0)
(3 -3.80366e-15 0)
(3 -3.41058e-15 0)
(3 -1.45834e-15 0)
(3 -6.4984e-16 0)
(3 -3.88785e-16 0)
(3 -1.97531e-16 0)
(3 3.43008e-17 0)
(3 7.11789e-16 0)
(3 1.25676e-15 0)
(3 1.60553e-15 0)
(3 2.05037e-15 0)
(3 1.52208e-15 0)
(3 -8.51212e-16 0)
(3 -1.6519e-15 0)
(3 -1.04834e-15 0)
(3 1.17858e-15 0)
(3 3.38473e-15 0)
(3 3.17565e-15 0)
(3 2.20297e-15 0)
(3 8.31183e-16 0)
(3 6.41144e-16 0)
(3 8.48958e-16 0)
(3 1.6753e-15 0)
(3 1.78955e-15 0)
(3 1.44131e-15 0)
(3 7.66661e-16 0)
(3 3.77006e-16 0)
(3 6.00672e-16 0)
(3 1.44932e-15 0)
(3 1.71294e-15 0)
(3 2.31715e-15 0)
(3 3.4438e-15 0)
(3 3.94339e-15 0)
(3 3.74541e-15 0)
(3 3.98875e-15 0)
(3 3.95484e-15 0)
(3 -3.64265e-17 0)
(3 1.26874e-16 0)
(3 2.66941e-16 0)
(3 1.81195e-16 0)
(3 -2.27986e-16 0)
(3 -2.74684e-16 0)
(3 -7.58137e-18 0)
(3 3.79788e-16 0)
(3 4.80025e-16 0)
(3 1.34249e-16 0)
(3 8.96338e-17 0)
(3 -5.7116e-17 0)
(3 -4.29303e-16 0)
(3 -9.90897e-16 0)
(3 -1.06349e-15 0)
(3 -6.62307e-16 0)
(3 -4.51865e-16 0)
(3 -3.69273e-16 0)
(3 -5.02434e-16 0)
(3 -2.23374e-16 0)
(3 7.33716e-16 0)
(3 1.04953e-15 0)
(3 3.56566e-16 0)
(3 -2.35965e-16 0)
(3 -8.85739e-16 0)
(3 -5.27104e-16 0)
(3 4.0365e-16 0)
(3 1.77618e-15 0)
(3 2.1808e-15 0)
(3 1.64046e-15 0)
(3 -3.71906e-16 0)
(3 -5.24629e-16 0)
(3 -1.65843e-16 0)
(3 -1.52731e-16 0)
(3 -1.24296e-16 0)
(3 -2.42212e-16 0)
(3 -1.01633e-15 0)
(3 -1.30736e-15 0)
(3 -1.59947e-15 0)
(3 -2.88764e-17 0)
(3 1.19641e-15 0)
(3 1.47526e-15 0)
(3 9.63323e-16 0)
(3 1.32554e-17 0)
(3 4.14837e-16 0)
(3 1.50755e-15 0)
(3 2.6348e-15 0)
(3 3.257e-15 0)
(3 6.45758e-17 0)
(3 -1.68568e-17 0)
(3 4.14557e-17 0)
(3 1.05187e-16 0)
(3 -7.71826e-17 0)
(3 -5.25306e-16 0)
(3 -8.27239e-16 0)
(3 5.40621e-16 0)
(3 1.73812e-15 0)
(3 1.54869e-15 0)
(3 1.0613e-15 0)
(3 1.06793e-15 0)
(3 1.47085e-15 0)
(3 1.8707e-15 0)
(3 1.39651e-15 0)
(3 9.01051e-16 0)
(3 3.13954e-16 0)
(3 4.52719e-16 0)
(3 6.13395e-16 0)
(3 -4.54883e-16 0)
(3 -5.71259e-16 0)
(3 -6.2774e-16 0)
(3 -1.71996e-15 0)
(3 -1.83029e-15 0)
(3 -1.60947e-15 0)
(3 -1.0341e-15 0)
(3 -8.34183e-17 0)
(3 4.73973e-16 0)
(3 -7.36686e-17 0)
(3 -1.35075e-15 0)
(3 -1.70053e-15 0)
(3 -1.10096e-15 0)
(3 -4.21997e-16 0)
(3 1.82412e-16 0)
(3 -3.85693e-16 0)
(3 -1.13667e-15 0)
(3 -1.01677e-15 0)
(3 -1.46696e-15 0)
(3 -1.89914e-15 0)
(3 -9.09298e-16 0)
(3 -3.92033e-16 0)
(3 -1.32115e-16 0)
(3 -1.062e-15 0)
(3 -1.84425e-15 0)
(3 -2.39385e-16 0)
(3 1.74622e-15 0)
(3 2.06779e-15 0)
(3 2.99895e-15 0)
(3 -1.14914e-17 0)
(3 -1.36325e-17 0)
(3 -1.39168e-16 0)
(3 -1.64751e-16 0)
(3 -2.26318e-16 0)
(3 -4.87714e-16 0)
(3 -5.63244e-16 0)
(3 1.02247e-15 0)
(3 8.77964e-16 0)
(3 4.80242e-16 0)
(3 -3.74039e-16 0)
(3 -6.56712e-16 0)
(3 4.52727e-16 0)
(3 1.62951e-15 0)
(3 1.13709e-15 0)
(3 2.26885e-16 0)
(3 -1.56393e-16 0)
(3 1.40238e-17 0)
(3 -9.44016e-17 0)
(3 -6.13374e-16 0)
(3 -1.64386e-15 0)
(3 -1.93541e-15 0)
(3 -1.92146e-15 0)
(3 -9.38002e-16 0)
(3 -5.10077e-16 0)
(3 -6.58896e-16 0)
(3 -8.83106e-16 0)
(3 -1.85457e-15 0)
(3 -2.2153e-15 0)
(3 -2.55357e-15 0)
(3 -1.71008e-15 0)
(3 -1.22938e-15 0)
(3 -4.72519e-16 0)
(3 4.3141e-16 0)
(3 4.66965e-16 0)
(3 5.26883e-16 0)
(3 1.02615e-15 0)
(3 2.06032e-15 0)
(3 2.25706e-15 0)
(3 1.20493e-15 0)
(3 5.62427e-16 0)
(3 -4.41858e-16 0)
(3 -7.76569e-16 0)
(3 -7.58558e-16 0)
(3 7.53048e-16 0)
(3 1.44929e-15 0)
(3 1.21044e-15 0)
(3 1.48766e-15 0)
(3 -9.53115e-19 0)
(3 -6.58015e-17 0)
(3 -1.22707e-16 0)
(3 -4.71748e-16 0)
(3 -6.22485e-16 0)
(3 -3.27511e-16 0)
(3 -3.06889e-16 0)
(3 -2.82409e-16 0)
(3 -4.43338e-16 0)
(3 2.52048e-16 0)
(3 6.64053e-16 0)
(3 3.46182e-16 0)
(3 2.76944e-16 0)
(3 3.61195e-16 0)
(3 6.4893e-16 0)
(3 5.61096e-16 0)
(3 1.01149e-16 0)
(3 -4.2941e-16 0)
(3 -5.80396e-16 0)
(3 -4.90594e-16 0)
(3 -1.2161e-15 0)
(3 -1.5277e-15 0)
(3 -1.43338e-15 0)
(3 -1.06654e-15 0)
(3 -4.61119e-16 0)
(3 2.79398e-16 0)
(3 9.78516e-16 0)
(3 9.54641e-16 0)
(3 -3.05567e-18 0)
(3 8.20823e-17 0)
(3 3.98921e-16 0)
(3 2.53917e-16 0)
(3 3.41693e-16 0)
(3 4.60397e-18 0)
(3 3.89441e-16 0)
(3 1.04374e-15 0)
(3 2.99086e-15 0)
(3 3.70809e-15 0)
(3 2.90789e-15 0)
(3 9.37468e-16 0)
(3 -1.25248e-15 0)
(3 -1.64635e-15 0)
(3 -1.09025e-15 0)
(3 -5.77981e-16 0)
(3 3.57008e-16 0)
(3 2.69381e-16 0)
(3 7.41804e-16 0)
(3 2.31953e-16 0)
(3 -5.65806e-21 0)
(3 2.34291e-17 0)
(3 -1.28786e-16 0)
(3 -7.49849e-17 0)
(3 -1.16018e-17 0)
(3 -2.45442e-16 0)
(3 -7.3477e-16 0)
(3 -2.01874e-15 0)
(3 -1.46466e-15 0)
(3 -7.68788e-16 0)
(3 8.55504e-16 0)
(3 1.21537e-15 0)
(3 7.17933e-16 0)
(3 3.45338e-16 0)
(3 8.60459e-16 0)
(3 9.88925e-16 0)
(3 1.10958e-15 0)
(3 2.76286e-16 0)
(3 -8.53951e-16 0)
(3 -2.10037e-15 0)
(3 -2.40419e-15 0)
(3 -2.77953e-15 0)
(3 -2.49651e-15 0)
(3 -1.61772e-15 0)
(3 -9.52084e-16 0)
(3 4.27323e-17 0)
(3 5.18544e-16 0)
(3 4.3018e-16 0)
(3 -4.01683e-16 0)
(3 -4.24038e-16 0)
(3 -3.75302e-16 0)
(3 9.85459e-17 0)
(3 9.51464e-17 0)
(3 2.49253e-16 0)
(3 3.65828e-16 0)
(3 8.30171e-16 0)
(3 2.4623e-15 0)
(3 3.78446e-15 0)
(3 2.85283e-15 0)
(3 1.86029e-15 0)
(3 1.51375e-15 0)
(3 1.68385e-15 0)
(3 2.15191e-15 0)
(3 1.42424e-15 0)
(3 -2.17023e-16 0)
(3 -9.31075e-16 0)
(3 -4.39185e-16 0)
(3 7.23373e-16 0)
(3 4.26333e-17 0)
(3 2.39727e-16 0)
(3 1.95698e-16 0)
(3 1.88065e-16 0)
(3 -9.66362e-18 0)
(3 -1.63683e-16 0)
(3 -3.80327e-16 0)
(3 -6.98002e-16 0)
(3 -7.75191e-16 0)
(3 -1.80442e-15 0)
(3 -1.19298e-15 0)
(3 -1.52305e-16 0)
(3 5.01362e-16 0)
(3 5.65683e-16 0)
(3 -6.38074e-17 0)
(3 -1.46585e-16 0)
(3 -1.03577e-16 0)
(3 2.85238e-16 0)
(3 1.55408e-16 0)
(3 -4.24599e-16 0)
(3 -8.30662e-16 0)
(3 -1.44128e-15 0)
(3 -1.20996e-15 0)
(3 -6.36774e-16 0)
(3 -3.22448e-16 0)
(3 -3.59104e-16 0)
(3 -7.46952e-16 0)
(3 -1.39355e-15 0)
(3 -1.81922e-15 0)
(3 -1.63563e-15 0)
(3 -8.25792e-16 0)
(3 1.12406e-16 0)
(3 5.25428e-16 0)
(3 1.00584e-15 0)
(3 1.16836e-15 0)
(3 1.40333e-15 0)
(3 1.79713e-15 0)
(3 2.14944e-15 0)
(3 2.61713e-15 0)
(3 3.11654e-15 0)
(3 3.05322e-15 0)
(3 3.2087e-15 0)
(3 2.96061e-15 0)
(3 1.41422e-15 0)
(3 1.16262e-15 0)
(3 7.08459e-16 0)
(3 5.67779e-16 0)
(3 4.32869e-16 0)
(3 3.98347e-17 0)
(3 2.42388e-16 0)
(3 2.5726e-16 0)
(3 -2.9515e-16 0)
(3 -6.0182e-16 0)
(3 -2.20846e-16 0)
(3 -1.9083e-18 0)
(3 -1.16938e-16 0)
(3 -5.89614e-16 0)
(3 -9.64231e-16 0)
(3 -1.35047e-15 0)
(3 -1.13726e-15 0)
(3 -1.20849e-15 0)
(3 -1.96255e-15 0)
(3 -2.26209e-15 0)
(3 -1.65598e-15 0)
(3 -8.95717e-16 0)
(3 -3.40037e-16 0)
(3 7.3396e-16 0)
(3 1.38727e-15 0)
(3 9.52406e-16 0)
(3 8.12837e-16 0)
(3 6.07438e-16 0)
(3 2.23254e-16 0)
(3 -4.47044e-16 0)
(3 -3.98626e-16 0)
(3 -7.20954e-16 0)
(3 -7.55789e-16 0)
(3 -8.24967e-17 0)
(3 -3.05115e-16 0)
(3 6.74757e-16 0)
(3 1.19255e-15 0)
(3 1.08636e-15 0)
(3 1.18805e-15 0)
(3 1.33949e-15 0)
(3 1.16122e-15 0)
(3 4.96234e-16 0)
(3 6.37764e-16 0)
(3 1.62073e-15 0)
(3 1.89085e-15 0)
(3 1.5217e-15 0)
(3 1.38543e-15 0)
(3 1.61126e-15 0)
(3 1.1224e-15 0)
(3 8.1934e-16 0)
(3 3.68545e-16 0)
(3 4.55518e-16 0)
(3 1.02707e-15 0)
(3 1.25429e-16 0)
(3 -8.84454e-17 0)
(3 -3.58138e-16 0)
(3 -4.59837e-16 0)
(3 6.1057e-17 0)
(3 2.21586e-16 0)
(3 5.59914e-16 0)
(3 4.44622e-17 0)
(3 -8.36417e-16 0)
(3 -1.06719e-15 0)
(3 -1.16479e-15 0)
(3 -1.1652e-15 0)
(3 -2.71421e-15 0)
(3 -3.75963e-15 0)
(3 -3.02473e-15 0)
(3 -2.43338e-15 0)
(3 -1.46749e-15 0)
(3 -5.55166e-16 0)
(3 -1.25974e-16 0)
(3 8.16182e-16 0)
(3 1.66316e-15 0)
(3 1.53936e-15 0)
(3 1.26666e-15 0)
(3 -4.08314e-17 0)
(3 -1.6204e-15 0)
(3 -2.03053e-15 0)
(3 -1.8819e-15 0)
(3 -1.77357e-15 0)
(3 -1.4942e-15 0)
(3 -1.15666e-15 0)
(3 -3.95483e-16 0)
(3 4.79539e-16 0)
(3 3.64349e-16 0)
(3 3.487e-16 0)
(3 2.72476e-16 0)
(3 -5.08379e-16 0)
(3 -4.42631e-16 0)
(3 -1.76571e-16 0)
(3 7.58454e-17 0)
(3 6.37123e-16 0)
(3 1.76529e-15 0)
(3 2.02568e-15 0)
(3 1.97708e-15 0)
(3 4.52988e-16 0)
(3 -4.74542e-16 0)
(3 -6.85536e-16 0)
(3 -2.70645e-16 0)
(3 2.49814e-16 0)
(3 -1.65904e-16 0)
(3 -4.61956e-16 0)
(3 -6.32445e-16 0)
(3 -3.21909e-16 0)
(3 1.33922e-16 0)
(3 -5.55675e-16 0)
(3 -8.4748e-16 0)
(3 -9.07028e-16 0)
(3 -8.17021e-16 0)
(3 -1.01117e-15 0)
(3 -1.22297e-15 0)
(3 -9.97887e-16 0)
(3 -1.09874e-15 0)
(3 -1.42478e-15 0)
(3 -1.60324e-15 0)
(3 -1.52815e-15 0)
(3 -1.34699e-15 0)
(3 -1.02939e-15 0)
(3 -8.60444e-16 0)
(3 5.11336e-16 0)
(3 1.65275e-15 0)
(3 7.59402e-16 0)
(3 7.65031e-16 0)
(3 5.08094e-16 0)
(3 -2.46411e-17 0)
(3 -1.02166e-15 0)
(3 -1.62863e-15 0)
(3 -1.97967e-15 0)
(3 -1.80628e-15 0)
(3 -1.18999e-15 0)
(3 -9.90487e-16 0)
(3 -7.01155e-16 0)
(3 -4.68679e-16 0)
(3 -1.16871e-15 0)
(3 -1.45465e-15 0)
(3 -1.20274e-15 0)
(3 -8.21321e-16 0)
(3 -2.9899e-16 0)
(3 2.15645e-16 0)
(3 8.89507e-16 0)
(3 1.59954e-16 0)
(3 2.64923e-16 0)
(3 5.37797e-16 0)
(3 8.63656e-16 0)
(3 8.78261e-16 0)
(3 4.26684e-16 0)
(3 -4.68991e-16 0)
(3 -1.07641e-15 0)
(3 -8.22915e-17 0)
(3 1.22828e-16 0)
(3 4.29874e-16 0)
(3 5.0965e-16 0)
(3 1.76764e-16 0)
(3 -5.11095e-16 0)
(3 -1.1559e-15 0)
(3 -8.48837e-16 0)
(3 -2.76215e-16 0)
(3 -2.16919e-16 0)
(3 -3.10627e-16 0)
(3 -3.04579e-16 0)
(3 -2.67291e-16 0)
(3 -2.17851e-16 0)
(3 -6.88358e-16 0)
(3 -1.49301e-15 0)
(3 -2.23001e-15 0)
(3 -1.84099e-15 0)
(3 -5.69917e-16 0)
(3 1.96875e-16 0)
(3 1.14638e-15 0)
(3 1.56556e-15 0)
(3 1.58863e-15 0)
(3 2.70684e-15 0)
(3 2.92667e-15 0)
(3 1.80512e-15 0)
(3 2.0313e-16 0)
(3 -5.48304e-17 0)
(3 4.75839e-16 0)
(3 1.01693e-15 0)
(3 9.10698e-16 0)
(3 2.1817e-16 0)
(3 1.15401e-16 0)
(3 -4.36409e-16 0)
(3 5.8296e-16 0)
(3 7.77048e-16 0)
(3 1.96597e-16 0)
(3 7.1531e-16 0)
(3 1.21778e-15 0)
(3 1.40977e-15 0)
(3 8.31973e-16 0)
(3 -1.32129e-16 0)
(3 -1.69157e-16 0)
(3 7.00508e-16 0)
(3 1.02952e-15 0)
(3 7.7404e-16 0)
(3 9.37002e-17 0)
(3 -3.6365e-16 0)
(3 2.74362e-16 0)
(3 5.79896e-16 0)
(3 8.44171e-16 0)
(3 8.29512e-16 0)
(3 6.8015e-16 0)
(3 1.15256e-15 0)
(3 1.58374e-15 0)
(3 1.68998e-15 0)
(3 1.72585e-15 0)
(3 1.99183e-15 0)
(3 2.19761e-15 0)
(3 2.37123e-15 0)
(3 1.79208e-15 0)
(3 1.41392e-15 0)
(3 1.01773e-15 0)
(3 5.28159e-16 0)
(3 4.1705e-16 0)
(3 7.69959e-17 0)
(3 6.40052e-16 0)
(3 1.05504e-15 0)
(3 9.73858e-16 0)
(3 1.49685e-15 0)
(3 2.02938e-15 0)
(3 1.80866e-15 0)
(3 1.50755e-15 0)
(3 2.38178e-16 0)
(3 -4.00641e-16 0)
(3 -3.78789e-16 0)
(3 2.67816e-16 0)
(3 1.15654e-15 0)
(3 1.49442e-15 0)
(3 9.17242e-16 0)
(3 2.04927e-16 0)
(3 7.84536e-16 0)
(3 2.30976e-15 0)
(3 3.36599e-15 0)
(3 2.61348e-15 0)
(3 1.73536e-15 0)
(3 1.63201e-15 0)
(3 1.39177e-15 0)
(3 1.38451e-15 0)
(3 1.10479e-15 0)
(3 4.11889e-16 0)
(3 4.81432e-17 0)
(3 1.34684e-17 0)
(3 2.33183e-16 0)
(3 2.44159e-16 0)
(3 5.04894e-16 0)
(3 1.16734e-16 0)
(3 -8.62303e-17 0)
(3 -4.37977e-16 0)
(3 -8.39784e-16 0)
(3 -4.18453e-16 0)
(3 5.24009e-16 0)
(3 1.42088e-15 0)
(3 1.58057e-15 0)
(3 1.51889e-15 0)
(3 1.89995e-15 0)
(3 2.02465e-15 0)
(3 1.54806e-15 0)
(3 2.41459e-15 0)
(3 3.492e-15 0)
(3 3.83965e-15 0)
(3 3.62615e-15 0)
(3 2.92683e-15 0)
(3 1.49154e-15 0)
(3 -2.50172e-16 0)
(3 -9.14362e-16 0)
(3 -1.56531e-15 0)
(3 -1.78472e-15 0)
(3 -1.39205e-15 0)
(3 -1.30635e-15 0)
(3 -1.43289e-15 0)
(3 -1.85957e-15 0)
(3 -4.01164e-16 0)
(3 -2.3769e-16 0)
(3 -1.8495e-16 0)
(3 -1.00381e-16 0)
(3 1.87189e-16 0)
(3 6.26758e-16 0)
(3 9.94837e-16 0)
(3 1.7812e-15 0)
(3 2.7225e-15 0)
(3 3.68821e-15 0)
(3 3.82108e-15 0)
(3 2.45475e-15 0)
(3 2.3972e-15 0)
(3 2.49963e-15 0)
(3 2.36282e-15 0)
(3 2.01586e-15 0)
(3 1.80373e-15 0)
(3 1.35663e-15 0)
(3 1.15981e-15 0)
(3 8.45356e-16 0)
(3 7.86524e-16 0)
(3 1.16755e-15 0)
(3 -1.40732e-16 0)
(3 -3.581e-16 0)
(3 -4.39008e-16 0)
(3 -5.85612e-16 0)
(3 -5.75514e-16 0)
(3 4.10056e-17 0)
(3 1.27744e-16 0)
(3 7.03688e-17 0)
(3 -4.22452e-16 0)
(3 -3.47476e-16 0)
(3 -2.639e-16 0)
(3 -6.03423e-16 0)
(3 -4.37734e-17 0)
(3 9.4651e-16 0)
(3 1.20344e-15 0)
(3 1.48323e-15 0)
(3 1.7484e-15 0)
(3 1.5386e-15 0)
(3 -4.62324e-16 0)
(3 -1.70215e-15 0)
(3 -2.49792e-15 0)
(3 -3.47697e-15 0)
(3 -3.71773e-15 0)
(3 -3.30254e-15 0)
(3 -2.56782e-15 0)
(3 -1.71376e-15 0)
(3 -7.51134e-16 0)
(3 -2.49191e-16 0)
(3 -3.79815e-16 0)
(3 -1.12409e-15 0)
(3 -1.5411e-15 0)
(3 -7.94533e-16 0)
(3 1.1496e-15 0)
(3 1.93246e-15 0)
(3 2.07124e-15 0)
(3 2.37437e-15 0)
(3 2.52554e-15 0)
(3 2.41647e-15 0)
(3 2.51606e-15 0)
(3 2.72615e-15 0)
(3 3.19786e-15 0)
(3 2.2667e-15 0)
(3 1.59616e-15 0)
(3 8.98077e-16 0)
(3 4.70705e-16 0)
(3 4.64548e-16 0)
(3 4.93737e-16 0)
(3 6.03891e-16 0)
(3 -1.02579e-17 0)
(3 1.09067e-16 0)
(3 8.60293e-17 0)
(3 3.28846e-16 0)
(3 -3.47008e-18 0)
(3 -1.20242e-16 0)
(3 -1.02118e-16 0)
(3 -4.08226e-16 0)
(3 -6.78318e-16 0)
(3 -8.63482e-16 0)
(3 -9.65693e-16 0)
(3 -9.03067e-16 0)
(3 -3.2054e-16 0)
(3 -1.58314e-15 0)
(3 -2.82594e-15 0)
(3 -2.30223e-15 0)
(3 -8.34197e-16 0)
(3 -6.57056e-16 0)
(3 -1.74622e-16 0)
(3 1.25873e-16 0)
(3 3.5959e-17 0)
(3 -7.1741e-17 0)
(3 -5.76146e-16 0)
(3 -7.02283e-16 0)
(3 -4.66224e-16 0)
(3 -8.21353e-16 0)
(3 -7.64356e-16 0)
(3 -1.31042e-16 0)
(3 -1.93254e-16 0)
(3 -9.7426e-16 0)
(3 -1.80862e-15 0)
(3 -2.15744e-15 0)
(3 -1.46485e-15 0)
(3 -6.89535e-16 0)
(3 -8.68896e-16 0)
(3 -4.24302e-16 0)
(3 5.21408e-16 0)
(3 1.37635e-15 0)
(3 1.3933e-15 0)
(3 1.34763e-15 0)
(3 1.41375e-15 0)
(3 7.75715e-16 0)
(3 7.74323e-17 0)
(3 2.21631e-16 0)
(3 2.56471e-16 0)
(3 1.26214e-16 0)
(3 2.46575e-16 0)
(3 9.15378e-16 0)
(3 -2.63712e-17 0)
(3 1.27422e-16 0)
(3 7.04847e-17 0)
(3 4.73854e-17 0)
(3 1.37004e-16 0)
(3 8.93612e-17 0)
(3 1.07626e-16 0)
(3 2.69302e-16 0)
(3 4.73701e-16 0)
(3 -1.48993e-16 0)
(3 -2.70542e-16 0)
(3 -5.43243e-16 0)
(3 -7.98287e-16 0)
(3 -1.84681e-15 0)
(3 -1.90607e-15 0)
(3 -2.61796e-15 0)
(3 -3.00503e-15 0)
(3 -2.34513e-15 0)
(3 -9.09606e-16 0)
(3 6.74606e-16 0)
(3 9.95114e-16 0)
(3 1.09719e-15 0)
(3 9.54714e-16 0)
(3 1.03593e-15 0)
(3 9.26588e-16 0)
(3 1.18539e-15 0)
(3 1.3118e-15 0)
(3 1.03342e-15 0)
(3 3.80787e-16 0)
(3 -3.35858e-16 0)
(3 -1.17757e-15 0)
(3 -2.03877e-15 0)
(3 -2.52951e-15 0)
(3 -3.27922e-15 0)
(3 -3.41957e-15 0)
(3 -3.13412e-15 0)
(3 -2.24441e-15 0)
(3 -2.08503e-15 0)
(3 -1.78049e-15 0)
(3 -1.22442e-15 0)
(3 -1.59694e-15 0)
(3 -1.58028e-15 0)
(3 5.63739e-16 0)
(3 1.42106e-15 0)
(3 2.04425e-15 0)
(3 2.11878e-15 0)
(3 1.78349e-15 0)
(3 1.46697e-15 0)
(3 -1.51397e-16 0)
(3 2.95342e-16 0)
(3 7.02096e-16 0)
(3 8.65372e-16 0)
(3 1.14557e-15 0)
(3 1.0986e-15 0)
(3 7.22406e-16 0)
(3 5.47399e-16 0)
(3 1.27295e-16 0)
(3 1.52586e-16 0)
(3 4.59498e-17 0)
(3 -4.44413e-16 0)
(3 -8.99691e-16 0)
(3 -1.52093e-15 0)
(3 -8.81306e-16 0)
(3 6.20418e-17 0)
(3 4.295e-16 0)
(3 3.70674e-16 0)
(3 -3.02751e-16 0)
(3 6.54192e-16 0)
(3 1.40363e-15 0)
(3 1.58156e-15 0)
(3 1.21631e-15 0)
(3 1.46028e-15 0)
(3 1.43022e-15 0)
(3 1.4182e-15 0)
(3 1.33147e-15 0)
(3 6.31568e-16 0)
(3 -2.43421e-16 0)
(3 -8.53137e-16 0)
(3 -1.17941e-15 0)
(3 -1.71765e-15 0)
(3 -1.67236e-15 0)
(3 -1.49942e-15 0)
(3 -1.99215e-15 0)
(3 -2.97492e-15 0)
(3 -3.2596e-15 0)
(3 -3.22651e-15 0)
(3 -3.30705e-15 0)
(3 -3.28662e-15 0)
(3 -2.47729e-15 0)
(3 -1.26613e-15 0)
(3 1.2471e-15 0)
(3 2.18665e-15 0)
(3 2.98798e-15 0)
(3 3.83095e-15 0)
(3 3.56682e-15 0)
(3 2.71587e-15 0)
(3 -6.05179e-17 0)
(3 1.46583e-16 0)
(3 3.76882e-16 0)
(3 1.13563e-15 0)
(3 1.1219e-15 0)
(3 1.03566e-15 0)
(3 1.04472e-15 0)
(3 7.27794e-16 0)
(3 3.64218e-16 0)
(3 2.91841e-16 0)
(3 1.54622e-17 0)
(3 -1.95579e-16 0)
(3 -4.83705e-17 0)
(3 -1.45422e-16 0)
(3 1.81846e-16 0)
(3 1.78506e-15 0)
(3 2.24798e-15 0)
(3 1.03339e-15 0)
(3 5.52932e-17 0)
(3 5.0078e-16 0)
(3 1.41076e-15 0)
(3 2.41249e-15 0)
(3 3.16007e-15 0)
(3 1.61544e-15 0)
(3 1.52783e-15 0)
(3 1.00321e-15 0)
(3 1.47812e-16 0)
(3 -2.72507e-16 0)
(3 -3.73728e-16 0)
(3 7.57079e-17 0)
(3 5.59109e-16 0)
(3 2.0406e-16 0)
(3 3.77828e-16 0)
(3 7.6227e-16 0)
(3 8.69065e-16 0)
(3 -1.65705e-16 0)
(3 -1.42003e-15 0)
(3 -1.25857e-15 0)
(3 -1.11698e-15 0)
(3 -1.1669e-15 0)
(3 -1.23937e-15 0)
(3 9.51453e-17 0)
(3 1.38264e-15 0)
(3 1.63013e-15 0)
(3 1.97985e-15 0)
(3 2.86173e-15 0)
(3 3.02564e-15 0)
(3 2.26265e-15 0)
(3 -6.92098e-17 0)
(3 -2.3435e-16 0)
(3 5.89512e-17 0)
(3 -1.43889e-16 0)
(3 -6.52438e-17 0)
(3 1.88169e-16 0)
(3 5.35412e-18 0)
(3 3.92733e-16 0)
(3 1.25968e-15 0)
(3 9.28281e-16 0)
(3 7.83859e-16 0)
(3 9.2432e-16 0)
(3 6.86493e-16 0)
(3 4.498e-16 0)
(3 7.90217e-16 0)
(3 4.86393e-16 0)
(3 -6.4366e-16 0)
(3 -3.97669e-16 0)
(3 4.65154e-16 0)
(3 4.31465e-16 0)
(3 1.47946e-15 0)
(3 2.31551e-15 0)
(3 2.04924e-15 0)
(3 1.93379e-15 0)
(3 1.90967e-15 0)
(3 1.97058e-15 0)
(3 1.54624e-15 0)
(3 5.99388e-16 0)
(3 5.59185e-16 0)
(3 1.35853e-15 0)
(3 2.77267e-15 0)
(3 3.21143e-15 0)
(3 2.10476e-15 0)
(3 1.09016e-15 0)
(3 1.35976e-15 0)
(3 1.20741e-15 0)
(3 8.42954e-16 0)
(3 -3.61856e-16 0)
(3 -4.11652e-16 0)
(3 -2.42686e-16 0)
(3 3.63733e-16 0)
(3 1.0315e-15 0)
(3 1.17233e-15 0)
(3 -8.86328e-17 0)
(3 -2.18015e-16 0)
(3 1.87147e-16 0)
(3 1.14579e-15 0)
(3 1.68172e-15 0)
(3 -6.2507e-17 0)
(3 -4.00605e-16 0)
(3 -8.36371e-16 0)
(3 -1.00919e-15 0)
(3 -4.56534e-16 0)
(3 -2.28599e-16 0)
(3 -3.07523e-16 0)
(3 -2.80551e-17 0)
(3 1.43846e-16 0)
(3 9.16272e-16 0)
(3 9.7129e-16 0)
(3 3.36759e-16 0)
(3 -7.6768e-16 0)
(3 -1.32269e-15 0)
(3 -1.02783e-15 0)
(3 -1.11793e-15 0)
(3 -1.32105e-15 0)
(3 -3.5455e-16 0)
(3 5.69396e-16 0)
(3 1.66026e-16 0)
(3 4.14627e-16 0)
(3 6.40198e-16 0)
(3 8.84465e-16 0)
(3 8.40943e-16 0)
(3 7.11013e-16 0)
(3 3.50098e-16 0)
(3 -4.82591e-17 0)
(3 2.05468e-16 0)
(3 2.12054e-16 0)
(3 2.71239e-16 0)
(3 7.85464e-16 0)
(3 7.71566e-16 0)
(3 4.01605e-16 0)
(3 -1.93384e-16 0)
(3 -6.14651e-16 0)
(3 2.07422e-16 0)
(3 1.95495e-16 0)
(3 3.12002e-17 0)
(3 1.61289e-16 0)
(3 1.35522e-15 0)
(3 1.61872e-15 0)
(3 1.4166e-15 0)
(3 7.55402e-16 0)
(3 4.84983e-16 0)
(3 -3.17182e-16 0)
(3 -1.19749e-15 0)
(3 -1.61623e-15 0)
(3 -4.91233e-16 0)
(3 2.24052e-16 0)
(3 5.19825e-16 0)
(3 -1.88305e-16 0)
(3 4.61484e-17 0)
(3 -5.23255e-16 0)
(3 -3.75502e-16 0)
(3 -7.7549e-17 0)
(3 8.71106e-18 0)
(3 -3.35618e-16 0)
(3 -3.52821e-16 0)
(3 -8.31186e-16 0)
(3 -1.24631e-15 0)
(3 -1.41523e-15 0)
(3 -1.58611e-15 0)
(3 -2.58146e-15 0)
(3 -2.26645e-15 0)
(3 -1.3517e-15 0)
(3 -5.4653e-16 0)
(3 -4.47002e-16 0)
(3 -1.04851e-15 0)
(3 -1.56108e-15 0)
(3 -1.88646e-15 0)
(3 -1.63807e-15 0)
(3 -1.67789e-15 0)
(3 -1.94847e-15 0)
(3 -2.65138e-15 0)
(3 -2.87762e-15 0)
(3 -1.03366e-15 0)
(3 -1.72801e-16 0)
(3 -6.62875e-16 0)
(3 -6.85759e-16 0)
(3 -5.39962e-16 0)
(3 -1.0688e-15 0)
(3 -1.78615e-15 0)
(3 -2.56341e-15 0)
(3 -2.8231e-15 0)
(3 -2.51007e-15 0)
(3 -8.04306e-16 0)
(3 7.9601e-16 0)
(3 1.20895e-15 0)
(3 1.36127e-15 0)
(3 1.4825e-15 0)
(3 3.53278e-16 0)
(3 8.86913e-17 0)
(3 -4.66828e-16 0)
(3 -8.95414e-16 0)
(3 -8.60959e-16 0)
(3 -8.72042e-16 0)
(3 6.01415e-17 0)
(3 1.63783e-16 0)
(3 7.3851e-16 0)
(3 8.84808e-16 0)
(3 8.01381e-16 0)
(3 3.6033e-16 0)
(3 1.21495e-16 0)
(3 -1.53916e-16 0)
(3 -4.29111e-16 0)
(3 -1.94445e-15 0)
(3 -2.71362e-15 0)
(3 -2.38666e-15 0)
(3 -6.32819e-16 0)
(3 2.85038e-16 0)
(3 4.47037e-16 0)
(3 5.94052e-16 0)
(3 8.45474e-16 0)
(3 -8.76215e-16 0)
(3 -1.55834e-15 0)
(3 -1.26029e-15 0)
(3 -1.38038e-15 0)
(3 -2.76821e-15 0)
(3 -3.59207e-15 0)
(3 -1.95648e-15 0)
(3 -1.80372e-15 0)
(3 -1.21274e-15 0)
(3 -1.41833e-15 0)
(3 -1.09324e-15 0)
(3 -4.35512e-16 0)
(3 3.97847e-16 0)
(3 1.07983e-15 0)
(3 1.42311e-15 0)
(3 1.329e-15 0)
(3 1.20763e-15 0)
(3 1.02474e-15 0)
(3 1.21737e-15 0)
(3 1.81074e-15 0)
(3 1.82419e-15 0)
(3 1.53342e-15 0)
(3 1.21093e-15 0)
(3 1.63002e-15 0)
(3 1.616e-15 0)
(3 7.15177e-16 0)
(3 -1.93177e-16 0)
(3 -3.1953e-16 0)
(3 -4.56789e-16 0)
(3 -4.55053e-16 0)
(3 -6.76638e-16 0)
(3 -4.30775e-17 0)
(3 -2.52698e-16 0)
(3 5.01011e-17 0)
(3 -1.94823e-17 0)
(3 4.07701e-16 0)
(3 2.88788e-16 0)
(3 4.13862e-17 0)
(3 -4.51771e-16 0)
(3 -2.6925e-16 0)
(3 -4.6775e-16 0)
(3 2.30672e-17 0)
(3 9.84623e-17 0)
(3 5.34537e-16 0)
(3 1.98963e-15 0)
(3 3.9983e-15 0)
(3 4.34629e-15 0)
(3 2.58277e-15 0)
(3 2.63617e-16 0)
(3 -5.9733e-16 0)
(3 -5.86583e-16 0)
(3 -2.9514e-16 0)
(3 -1.38203e-15 0)
(3 -2.28246e-15 0)
(3 -3.02267e-15 0)
(3 -2.48612e-15 0)
(3 -8.9645e-16 0)
(3 -1.33133e-16 0)
(3 1.13173e-16 0)
(3 8.00636e-16 0)
(3 1.39779e-15 0)
(3 1.32996e-15 0)
(3 1.89836e-15 0)
(3 2.17981e-15 0)
(3 2.49573e-15 0)
(3 2.62744e-15 0)
(3 2.21542e-15 0)
(3 1.96016e-15 0)
(3 2.07644e-15 0)
(3 2.21189e-15 0)
(3 2.02826e-15 0)
(3 1.4111e-15 0)
(3 8.42695e-16 0)
(3 1.2572e-15 0)
(3 1.54092e-15 0)
(3 1.52632e-15 0)
(3 5.32931e-16 0)
(3 -1.28175e-15 0)
(3 -2.25122e-15 0)
(3 2.16662e-17 0)
(3 2.95485e-16 0)
(3 -1.36846e-16 0)
(3 4.32835e-17 0)
(3 -2.75635e-16 0)
(3 -1.999e-16 0)
(3 -2.0727e-16 0)
(3 -6.73854e-16 0)
(3 -7.07337e-16 0)
(3 4.10235e-16 0)
(3 8.18263e-16 0)
(3 1.00362e-15 0)
(3 1.72778e-15 0)
(3 2.2877e-15 0)
(3 1.42021e-15 0)
(3 2.83837e-16 0)
(3 -4.66169e-16 0)
(3 -3.75588e-16 0)
(3 -5.16574e-17 0)
(3 -4.53463e-17 0)
(3 -6.46588e-16 0)
(3 -5.25524e-16 0)
(3 -6.43829e-16 0)
(3 -1.73492e-15 0)
(3 -1.46688e-15 0)
(3 -6.99371e-16 0)
(3 3.92744e-16 0)
(3 1.83584e-15 0)
(3 2.01232e-15 0)
(3 1.61093e-15 0)
(3 1.38564e-15 0)
(3 1.63977e-15 0)
(3 2.04461e-15 0)
(3 1.94199e-15 0)
(3 2.33061e-15 0)
(3 1.45142e-15 0)
(3 9.06013e-16 0)
(3 1.15031e-15 0)
(3 1.78711e-15 0)
(3 1.93316e-15 0)
(3 9.23258e-16 0)
(3 4.68549e-16 0)
(3 2.2647e-16 0)
(3 4.83033e-17 0)
(3 -1.38768e-16 0)
(3 -1.77854e-16 0)
(3 -4.27372e-16 0)
(3 -9.62192e-16 0)
(3 -8.27647e-17 0)
(3 3.53589e-17 0)
(3 -2.78987e-16 0)
(3 -6.57393e-16 0)
(3 -3.84693e-16 0)
(3 -1.335e-16 0)
(3 -1.85432e-16 0)
(3 -2.15653e-16 0)
(3 2.60527e-16 0)
(3 1.21133e-15 0)
(3 1.16893e-15 0)
(3 1.40722e-15 0)