/*--------------------------------*- C++ -*----------------------------------*\
  =========                 |
  \\      /  F ield         | OpenFOAM: The Open Source CFD Toolbox
   \\    /   O peration     | Website:  https://openfoam.org
    \\  /    A nd           | Version:  7
     \\/     M anipulation  |
\*---------------------------------------------------------------------------*/
FoamFile
{
    version     2.0;
    format      ascii;
    class       volVectorField;
    location    "3";
    object      U;
}
// * * * * * * * * * * * * * * * * * * * * * * * * * * * * * * * * * * * * * //

dimensions      [0 1 -1 0 0 0 0];

internalField   nonuniform List<vector> 
73728
(
(3 2.47705e-17 0)
(3 1.21285e-16 0)
(3 2.71046e-16 0)
(3 6.6855e-16 0)
(3 1.14785e-15 0)
(3 2.92019e-16 0)
(3 -2.23121e-16 0)
(3 -6.86722e-16 0)
(3 -6.94568e-16 0)
(3 -1.16287e-15 0)
(3 -3.0465e-16 0)
(3 5.56543e-16 0)
(3 7.92708e-16 0)
(3 9.86082e-16 0)
(3 1.09036e-15 0)
(3 1.61215e-15 0)
(3 1.84525e-15 0)
(3 6.97132e-16 0)
(3 1.37523e-16 0)
(3 -1.21293e-15 0)
(3 -6.68238e-16 0)
(3 -2.79644e-16 0)
(3 3.27564e-16 0)
(3 3.49702e-16 0)
(3 6.08135e-17 0)
(3 7.94079e-17 0)
(3 -1.96275e-16 0)
(3 -1.05755e-15 0)
(3 -1.0955e-15 0)
(3 -4.64548e-16 0)
(3 3.94388e-17 0)
(3 1.54605e-16 0)
(3 8.85795e-16 0)
(3 8.75615e-16 0)
(3 7.21994e-16 0)
(3 -3.70238e-17 0)
(3 -3.00062e-16 0)
(3 -5.66709e-16 0)
(3 -5.99571e-16 0)
(3 -8.06286e-16 0)
(3 -9.83115e-16 0)
(3 -9.11591e-16 0)
(3 -6.63089e-16 0)
(3 -8.65933e-17 0)
(3 3.15236e-16 0)
(3 1.07412e-16 0)
(3 -4.82809e-19 0)
(3 -1.08018e-16 0)
(3 -2.5518e-16 0)
(3 -8.44292e-17 0)
(3 1.65711e-15 0)
(3 1.40585e-15 0)
(3 -2.77801e-16 0)
(3 -8.10324e-16 0)
(3 -5.86077e-16 0)
(3 -4.83426e-16 0)
(3 -3.51728e-16 0)
(3 -1.60927e-16 0)
(3 7.47484e-16 0)
(3 1.36526e-15 0)
(3 1.01038e-15 0)
(3 -5.45314e-17 0)
(3 -9.51121e-16 0)
(3 -1.49704e-15 0)
(3 8.22287e-16 0)
(3 1.53163e-15 0)
(3 9.97286e-16 0)
(3 -5.30011e-16 0)
(3 -1.01507e-15 0)
(3 -1.89037e-15 0)
(3 -1.76794e-15 0)
(3 -1.96608e-15 0)
(3 -1.57946e-15 0)
(3 -2.40412e-16 0)
(3 -1.38672e-16 0)
(3 -1.13984e-16 0)
(3 -8.82663e-17 0)
(3 -3.37218e-17 0)
(3 -1.622e-17 0)
(3 -2.91311e-16 0)
(3 -8.86248e-17 0)
(3 -1.44982e-16 0)
(3 -3.55485e-16 0)
(3 -5.65503e-16 0)
(3 -1.04362e-15 0)
(3 -1.1971e-15 0)
(3 -1.06797e-15 0)
(3 -9.06509e-16 0)
(3 -1.65939e-15 0)
(3 -1.96029e-15 0)
(3 -1.4707e-15 0)
(3 -6.90293e-16 0)
(3 6.40353e-17 0)
(3 7.16812e-17 0)
(3 -3.39491e-16 0)
(3 -4.90985e-16 0)
(3 -1.35347e-17 0)
(3 1.28424e-16 0)
(3 4.13239e-17 0)
(3 5.45591e-16 0)
(3 1.24175e-15 0)
(3 7.69582e-16 0)
(3 -3.40548e-16 0)
(3 -4.12462e-16 0)
(3 -2.38734e-16 0)
(3 -7.28463e-16 0)
(3 -3.30218e-16 0)
(3 3.89617e-16 0)
(3 7.7628e-16 0)
(3 7.98054e-16 0)
(3 1.05301e-15 0)
(3 1.86421e-15 0)
(3 2.51858e-15 0)
(3 2.36209e-15 0)
(3 9.32916e-17 0)
(3 -1.02029e-15 0)
(3 -2.08824e-16 0)
(3 3.02857e-16 0)
(3 3.22105e-16 0)
(3 1.02115e-17 0)
(3 -8.18655e-16 0)
(3 -8.31289e-16 0)
(3 -6.57059e-16 0)
(3 -1.13343e-15 0)
(3 -1.14819e-15 0)
(3 -7.37167e-16 0)
(3 3.88581e-17 0)
(3 5.56126e-16 0)
(3 1.26276e-15 0)
(3 1.27931e-15 0)
(3 1.43918e-15 0)
(3 8.14338e-16 0)
(3 -3.84e-16 0)
(3 -1.26347e-15 0)
(3 -1.74704e-15 0)
(3 -1.00583e-15 0)
(3 -8.94139e-16 0)
(3 -1.15519e-15 0)
(3 -3.20104e-16 0)
(3 3.92409e-16 0)
(3 4.00597e-16 0)
(3 1.04166e-16 0)
(3 -2.27098e-16 0)
(3 -7.03172e-18 0)
(3 -8.33587e-17 0)
(3 -1.23121e-16 0)
(3 4.82223e-16 0)
(3 5.02281e-16 0)
(3 5.24014e-17 0)
(3 -4.23028e-16 0)
(3 -9.48836e-16 0)
(3 -7.12362e-16 0)
(3 -1.3999e-16 0)
(3 3.94728e-16 0)
(3 1.18861e-15 0)
(3 1.42402e-15 0)
(3 1.05305e-15 0)
(3 -3.0876e-16 0)
(3 -1.27003e-15 0)
(3 -1.63374e-15 0)
(3 -4.94438e-16 0)
(3 6.10339e-16 0)
(3 3.01903e-16 0)
(3 -2.93066e-16 0)
(3 -2.30902e-15 0)
(3 -2.93846e-15 0)
(3 -2.73158e-15 0)
(3 -2.33046e-15 0)
(3 -1.81888e-15 0)
(3 -5.61e-16 0)
(3 5.09475e-17 0)
(3 6.30878e-16 0)
(3 6.75838e-16 0)
(3 -8.16573e-17 0)
(3 -1.2942e-15 0)
(3 -2.01405e-15 0)
(3 -9.09841e-16 0)
(3 -3.57754e-16 0)
(3 -1.2209e-15 0)
(3 -1.54437e-15 0)
(3 -1.9322e-15 0)
(3 -2.01492e-15 0)
(3 -1.77138e-15 0)
(3 -9.54472e-16 0)
(3 -2.08193e-15 0)
(3 -2.65714e-15 0)
(3 -1.95346e-15 0)
(3 -5.84639e-17 0)
(3 9.66302e-16 0)
(3 1.57561e-15 0)
(3 8.35612e-16 0)
(3 -2.87389e-17 0)
(3 -3.35245e-17 0)
(3 -8.91369e-17 0)
(3 -1.01086e-16 0)
(3 1.47576e-16 0)
(3 4.855e-16 0)
(3 2.78792e-16 0)
(3 2.98324e-17 0)
(3 5.05825e-16 0)
(3 3.87118e-17 0)
(3 -4.30162e-16 0)
(3 -3.0913e-16 0)
(3 6.20057e-16 0)
(3 1.26565e-15 0)
(3 5.23135e-16 0)
(3 2.72137e-16 0)
(3 2.42946e-16 0)
(3 4.8782e-16 0)
(3 5.93215e-16 0)
(3 -7.51301e-16 0)
(3 -1.19836e-15 0)
(3 -9.2699e-16 0)
(3 -7.5118e-16 0)
(3 -8.82286e-16 0)
(3 -1.06727e-15 0)
(3 -1.1735e-15 0)
(3 -1.51607e-15 0)
(3 -6.66291e-16 0)
(3 -6.61238e-16 0)
(3 -5.33806e-16 0)
(3 -4.13085e-16 0)
(3 -5.46233e-16 0)
(3 2.54748e-16 0)
(3 1.35026e-15 0)
(3 1.89251e-15 0)
(3 2.52051e-15 0)
(3 2.52318e-15 0)
(3 1.38178e-15 0)
(3 -2.17306e-16 0)
(3 -6.71873e-16 0)
(3 -5.35953e-16 0)
(3 -3.92195e-16 0)
(3 -6.37809e-16 0)
(3 -6.8744e-16 0)
(3 -5.76876e-16 0)
(3 -8.91107e-16 0)
(3 -6.68023e-16 0)
(3 -7.78327e-16 0)
(3 -4.30143e-16 0)
(3 8.19482e-17 0)
(3 5.71092e-16 0)
(3 5.719e-16 0)
(3 7.40046e-16 0)
(3 8.45205e-16 0)
(3 2.63825e-16 0)
(3 -2.9433e-16 0)
(3 -1.74294e-16 0)
(3 1.31022e-16 0)
(3 9.95402e-16 0)
(3 1.20554e-15 0)
(3 6.06522e-16 0)
(3 -1.33713e-15 0)
(3 -3.00791e-15 0)
(3 -3.01207e-15 0)
(3 -2.73105e-15 0)
(3 -1.37642e-15 0)
(3 -1.10031e-15 0)
(3 8.70329e-17 0)
(3 8.81615e-17 0)
(3 -6.42524e-17 0)
(3 -6.48964e-16 0)
(3 -1.66542e-15 0)
(3 -8.69803e-16 0)
(3 -5.5928e-17 0)
(3 1.15339e-16 0)
(3 -3.9453e-17 0)
(3 6.07949e-16 0)
(3 1.16446e-15 0)
(3 3.5242e-16 0)
(3 -1.79325e-15 0)
(3 -1.89145e-15 0)
(3 -1.19364e-15 0)
(3 -1.18449e-15 0)
(3 -1.84176e-15 0)
(3 -1.85559e-15 0)
(3 -1.22937e-15 0)
(3 -5.53955e-16 0)
(3 -2.84711e-16 0)
(3 -6.53055e-16 0)
(3 -3.65196e-15 0)
(3 -3.65243e-15 0)
(3 -2.20375e-15 0)
(3 -1.75693e-15 0)
(3 -2.81805e-16 0)
(3 1.26484e-15 0)
(3 2.15234e-15 0)
(3 9.23316e-16 0)
(3 1.22363e-16 0)
(3 2.71818e-16 0)
(3 7.59945e-16 0)
(3 8.11901e-16 0)
(3 2.91885e-16 0)
(3 2.98232e-16 0)
(3 2.93514e-16 0)
(3 1.74867e-16 0)
(3 -7.52192e-16 0)
(3 -2.94277e-16 0)
(3 -1.07255e-16 0)
(3 7.30055e-16 0)
(3 1.08339e-15 0)
(3 1.17222e-15 0)
(3 8.09927e-16 0)
(3 -6.74824e-16 0)
(3 -5.61913e-16 0)
(3 -4.22235e-17 0)
(3 5.04685e-16 0)
(3 1.12789e-16 0)
(3 -1.57621e-15 0)
(3 -2.92231e-15 0)
(3 -2.33493e-15 0)
(3 -1.6098e-15 0)
(3 -3.64786e-16 0)
(3 -3.01072e-16 0)
(3 -4.59225e-17 0)
(3 6.69679e-17 0)
(3 -5.42376e-17 0)
(3 -3.43407e-17 0)
(3 -1.62908e-15 0)
(3 -1.15659e-15 0)
(3 1.66631e-16 0)
(3 4.0625e-16 0)
(3 8.53424e-17 0)
(3 3.29298e-16 0)
(3 2.30549e-16 0)
(3 -3.03552e-16 0)
(3 -9.62377e-18 0)
(3 6.50569e-16 0)
(3 8.04822e-16 0)
(3 4.46094e-17 0)
(3 -1.12061e-15 0)
(3 -1.06427e-15 0)
(3 -9.51251e-16 0)
(3 -7.37107e-16 0)
(3 -7.31345e-16 0)
(3 -9.23475e-16 0)
(3 -9.60299e-16 0)
(3 3.85512e-16 0)
(3 8.43521e-16 0)
(3 2.4867e-16 0)
(3 -5.36313e-17 0)
(3 -2.2484e-16 0)
(3 3.95601e-16 0)
(3 6.08432e-16 0)
(3 7.72625e-16 0)
(3 9.34049e-16 0)
(3 1.54607e-15 0)
(3 2.48629e-16 0)
(3 -3.04375e-15 0)
(3 -4.94368e-15 0)
(3 -2.85279e-15 0)
(3 -2.03238e-15 0)
(3 8.76442e-16 0)
(3 1.70432e-15 0)
(3 9.26274e-16 0)
(3 2.01683e-16 0)
(3 -3.43779e-16 0)
(3 -6.05142e-16 0)
(3 -3.54746e-16 0)
(3 1.32385e-16 0)
(3 2.18077e-16 0)
(3 4.42939e-16 0)
(3 -3.21488e-17 0)
(3 -5.892e-18 0)
(3 -9.99821e-18 0)
(3 -4.6769e-17 0)
(3 -5.29129e-16 0)
(3 -8.6765e-16 0)
(3 -1.14304e-15 0)
(3 -1.07679e-15 0)
(3 -2.63166e-16 0)
(3 5.98696e-17 0)
(3 1.38723e-16 0)
(3 6.02408e-16 0)
(3 5.8162e-16 0)
(3 -1.79156e-15 0)
(3 -4.64535e-15 0)
(3 -3.95818e-15 0)
(3 -2.06446e-15 0)
(3 -6.33076e-16 0)
(3 3.35135e-16 0)
(3 1.10564e-15 0)
(3 2.39382e-15 0)
(3 1.59876e-15 0)
(3 2.06583e-17 0)
(3 5.00548e-16 0)
(3 1.03561e-15 0)
(3 1.15024e-15 0)
(3 9.74472e-16 0)
(3 1.36707e-15 0)
(3 1.35185e-15 0)
(3 6.07385e-16 0)
(3 1.00147e-16 0)
(3 2.2215e-17 0)
(3 2.14074e-16 0)
(3 1.89727e-17 0)
(3 -4.76644e-16 0)
(3 -1.62235e-16 0)
(3 -3.51885e-16 0)
(3 -3.62772e-16 0)
(3 -2.97776e-16 0)
(3 -3.51257e-16 0)
(3 -2.99647e-16 0)
(3 -2.85573e-16 0)
(3 -5.452e-16 0)
(3 -1.4742e-15 0)
(3 -1.49808e-15 0)
(3 -4.3879e-16 0)
(3 1.16345e-15 0)
(3 1.87218e-15 0)
(3 1.22494e-15 0)
(3 5.17458e-16 0)
(3 -6.62057e-16 0)
(3 -1.22743e-15 0)
(3 -1.48151e-15 0)
(3 -9.3112e-16 0)
(3 -7.10479e-16 0)
(3 -1.0133e-15 0)
(3 -1.29554e-15 0)
(3 -2.99377e-16 0)
(3 -6.63588e-17 0)
(3 -2.85259e-17 0)
(3 7.10094e-17 0)
(3 1.75145e-16 0)
(3 6.04754e-16 0)
(3 8.03789e-17 0)
(3 -2.42568e-16 0)
(3 -3.81188e-16 0)
(3 -4.64263e-18 0)
(3 1.23024e-16 0)
(3 4.45518e-16 0)
(3 2.78117e-16 0)
(3 1.43241e-16 0)
(3 -6.01539e-16 0)
(3 -6.81151e-16 0)
(3 -8.74703e-16 0)
(3 -1.77076e-16 0)
(3 7.37123e-16 0)
(3 8.56754e-16 0)
(3 1.17308e-15 0)
(3 1.01991e-15 0)
(3 8.78041e-16 0)
(3 9.78945e-16 0)
(3 7.11686e-16 0)
(3 -6.56716e-16 0)
(3 -1.64373e-15 0)
(3 -1.22992e-15 0)
(3 -1.45896e-15 0)
(3 -6.74981e-16 0)
(3 6.50696e-16 0)
(3 6.83083e-16 0)
(3 1.52753e-16 0)
(3 -7.41191e-16 0)
(3 -1.89743e-15 0)
(3 -2.61786e-16 0)
(3 8.22734e-16 0)
(3 5.28225e-16 0)
(3 -1.80746e-16 0)
(3 3.18033e-16 0)
(3 2.67568e-16 0)
(3 2.04961e-16 0)
(3 1.67234e-16 0)
(3 5.16105e-16 0)
(3 4.46724e-16 0)
(3 -9.23604e-17 0)
(3 -1.15233e-15 0)
(3 -1.55684e-15 0)
(3 -1.9397e-15 0)
(3 -1.93647e-15 0)
(3 -1.41709e-15 0)
(3 -1.07733e-16 0)
(3 -8.24518e-17 0)
(3 -1.3921e-15 0)
(3 -7.61052e-16 0)
(3 9.54688e-16 0)
(3 1.34018e-15 0)
(3 1.8186e-15 0)
(3 1.60069e-15 0)
(3 1.89506e-15 0)
(3 2.06127e-15 0)
(3 4.53194e-17 0)
(3 -4.12479e-18 0)
(3 2.80977e-16 0)
(3 6.15947e-16 0)
(3 1.33181e-15 0)
(3 1.33162e-15 0)
(3 1.18371e-15 0)
(3 8.6026e-16 0)
(3 -7.30587e-17 0)
(3 -4.82637e-16 0)
(3 -5.44273e-16 0)
(3 -3.83559e-16 0)
(3 -5.41916e-16 0)
(3 -8.29099e-16 0)
(3 -7.2109e-16 0)
(3 -4.4035e-16 0)
(3 -6.81647e-16 0)
(3 -6.99993e-16 0)
(3 -3.09992e-16 0)
(3 2.69162e-16 0)
(3 5.9867e-16 0)
(3 1.15327e-15 0)
(3 -1.46531e-16 0)
(3 -1.77369e-16 0)
(3 6.28237e-16 0)
(3 1.55079e-15 0)
(3 -2.35366e-17 0)
(3 -1.00563e-15 0)
(3 -4.34973e-17 0)
(3 1.15792e-16 0)
(3 4.34411e-16 0)
(3 -3.15597e-16 0)
(3 -1.08691e-15 0)
(3 -1.35778e-15 0)
(3 -8.95781e-16 0)
(3 4.43896e-16 0)
(3 2.2385e-15 0)
(3 2.86001e-15 0)
(3 1.40345e-15 0)
(3 -6.9999e-17 0)
(3 -1.49504e-15 0)
(3 -9.82337e-16 0)
(3 -6.21002e-16 0)
(3 1.31572e-17 0)
(3 4.65445e-16 0)
(3 5.77278e-16 0)
(3 6.6302e-16 0)
(3 6.14283e-16 0)
(3 4.02704e-16 0)
(3 -2.56783e-16 0)
(3 -4.62752e-16 0)
(3 8.13036e-18 0)
(3 4.00239e-17 0)
(3 2.35706e-16 0)
(3 1.6658e-16 0)
(3 1.12571e-15 0)
(3 1.55758e-15 0)
(3 1.88287e-15 0)
(3 1.6953e-15 0)
(3 1.7059e-15 0)
(3 1.62533e-15 0)
(3 1.57411e-15 0)
(3 -5.45992e-16 0)
(3 -2.41429e-15 0)
(3 -1.93472e-15 0)
(3 -1.58157e-15 0)
(3 -3.2203e-16 0)
(3 -1.50062e-15 0)
(3 -1.90125e-15 0)
(3 -2.12628e-15 0)
(3 -1.86883e-15 0)
(3 -1.14942e-15 0)
(3 -7.21996e-16 0)
(3 2.1871e-16 0)
(3 8.44692e-16 0)
(3 2.27552e-16 0)
(3 -3.36348e-16 0)
(3 -8.39875e-16 0)
(3 -1.06079e-15 0)
(3 -9.24321e-16 0)
(3 -1.17783e-15 0)
(3 -1.58205e-15 0)
(3 -1.61205e-15 0)
(3 -1.39385e-15 0)
(3 -1.0621e-15 0)
(3 -5.32615e-16 0)
(3 5.56684e-16 0)
(3 1.37294e-15 0)
(3 1.55798e-15 0)
(3 2.17889e-15 0)
(3 2.49376e-15 0)
(3 1.90318e-15 0)
(3 8.44884e-16 0)
(3 6.61132e-18 0)
(3 2.41e-16 0)
(3 2.53435e-15 0)
(3 1.09462e-16 0)
(3 -1.98318e-16 0)
(3 -9.88242e-16 0)
(3 -1.25018e-15 0)
(3 -9.89767e-16 0)
(3 -1.01458e-15 0)
(3 -7.32799e-16 0)
(3 -5.18518e-16 0)
(3 -3.03181e-16 0)
(3 1.01744e-16 0)
(3 -1.4286e-16 0)
(3 -3.35622e-17 0)
(3 -3.45779e-17 0)
(3 -1.23961e-16 0)
(3 -2.85556e-17 0)
(3 -3.80145e-16 0)
(3 -1.16082e-15 0)
(3 -1.67207e-15 0)
(3 -1.59208e-15 0)
(3 -1.02739e-15 0)
(3 1.91027e-16 0)
(3 1.19237e-15 0)
(3 1.37352e-15 0)
(3 4.39789e-16 0)
(3 -1.03141e-17 0)
(3 -6.19201e-16 0)
(3 -1.45931e-15 0)
(3 -1.03708e-15 0)
(3 1.43006e-15 0)
(3 1.45677e-15 0)
(3 9.04166e-16 0)
(3 -2.84124e-16 0)
(3 -6.19017e-16 0)
(3 -6.23107e-16 0)
(3 -4.75748e-16 0)
(3 -3.50671e-16 0)
(3 7.42599e-16 0)
(3 1.96797e-15 0)
(3 9.91181e-16 0)
(3 -2.88081e-17 0)
(3 -1.02875e-15 0)
(3 -1.58483e-15 0)
(3 -9.87667e-16 0)
(3 -3.2808e-16 0)
(3 8.22514e-17 0)
(3 9.62671e-17 0)
(3 -1.97665e-16 0)
(3 -1.84645e-16 0)
(3 5.71804e-18 0)
(3 1.16184e-16 0)
(3 4.76657e-16 0)
(3 8.61899e-17 0)
(3 -4.17574e-16 0)
(3 -4.52187e-16 0)
(3 -2.18207e-16 0)
(3 1.04279e-15 0)
(3 2.50524e-15 0)
(3 3.0799e-15 0)
(3 3.69491e-15 0)
(3 2.51867e-15 0)
(3 2.11297e-15 0)
(3 8.52756e-16 0)
(3 -9.98206e-16 0)
(3 -2.37729e-15 0)
(3 -3.5192e-15 0)
(3 -3.21269e-15 0)
(3 -2.46643e-15 0)
(3 -2.82064e-15 0)
(3 -2.82405e-15 0)
(3 -2.54276e-15 0)
(3 -2.36129e-15 0)
(3 -2.30822e-15 0)
(3 -1.73958e-15 0)
(3 -9.37201e-16 0)
(3 -6.96774e-17 0)
(3 -3.49694e-17 0)
(3 -1.09498e-15 0)
(3 -1.20767e-15 0)
(3 -1.02108e-15 0)
(3 -6.20069e-16 0)
(3 -5.08182e-16 0)
(3 -6.42029e-16 0)
(3 -5.59963e-16 0)
(3 -2.32044e-16 0)
(3 7.16682e-16 0)
(3 9.05802e-16 0)
(3 8.33739e-16 0)
(3 1.80171e-15 0)
(3 1.93884e-15 0)
(3 1.52937e-15 0)
(3 1.17935e-15 0)
(3 2.11835e-15 0)
(3 2.58532e-15 0)
(3 1.62385e-15 0)
(3 5.48669e-16 0)
(3 1.33261e-15 0)
(3 1.49556e-17 0)
(3 -5.16178e-16 0)
(3 -1.04686e-15 0)
(3 -1.22089e-15 0)
(3 -1.74824e-15 0)
(3 -1.46751e-15 0)
(3 -1.25402e-15 0)
(3 -3.18875e-16 0)
(3 5.54434e-16 0)
(3 8.05976e-16 0)
(3 9.26585e-16 0)
(3 2.77443e-16 0)
(3 -1.76286e-16 0)
(3 -3.88593e-16 0)
(3 -6.52507e-16 0)
(3 -1.14212e-15 0)
(3 -1.34304e-15 0)
(3 -1.89646e-15 0)
(3 -1.90364e-15 0)
(3 -1.17067e-15 0)
(3 -8.10997e-16 0)
(3 -9.29422e-16 0)
(3 1.9298e-16 0)
(3 4.31664e-17 0)
(3 -1.04621e-15 0)
(3 -1.6082e-15 0)
(3 -1.0856e-15 0)
(3 -4.69042e-16 0)
(3 -2.01549e-16 0)
(3 -5.49222e-16 0)
(3 -7.50617e-16 0)
(3 -3.05335e-16 0)
(3 8.30529e-16 0)
(3 1.551e-15 0)
(3 1.6863e-15 0)
(3 1.00564e-15 0)
(3 1.02123e-15 0)
(3 7.8208e-16 0)
(3 1.53398e-16 0)
(3 -7.59007e-16 0)
(3 -1.11419e-15 0)
(3 -1.45463e-15 0)
(3 -1.41059e-15 0)
(3 -1.27892e-15 0)
(3 -7.05367e-16 0)
(3 -8.13089e-16 0)
(3 -7.94107e-16 0)
(3 -4.3556e-16 0)
(3 3.55408e-16 0)
(3 6.75231e-16 0)
(3 8.13718e-16 0)
(3 8.79137e-16 0)
(3 1.39021e-15 0)
(3 2.01686e-15 0)
(3 2.21224e-15 0)
(3 2.752e-15 0)
(3 3.69462e-15 0)
(3 3.73969e-15 0)
(3 2.8985e-15 0)
(3 1.86071e-15 0)
(3 2.3853e-16 0)
(3 -5.46453e-16 0)
(3 -4.99016e-16 0)
(3 -8.15931e-16 0)
(3 -3.00704e-15 0)
(3 -3.14145e-15 0)
(3 -2.88411e-15 0)
(3 -2.32095e-15 0)
(3 -2.12609e-15 0)
(3 -2.14371e-15 0)
(3 -2.05272e-15 0)
(3 -1.63358e-15 0)
(3 -1.4683e-15 0)
(3 -2.27144e-15 0)
(3 -1.35972e-15 0)
(3 -3.35323e-16 0)
(3 1.52316e-16 0)
(3 6.75192e-16 0)
(3 1.27146e-15 0)
(3 3.90187e-16 0)
(3 1.75754e-16 0)
(3 2.62957e-16 0)
(3 -3.51212e-16 0)
(3 -6.71116e-16 0)
(3 -1.2533e-15 0)
(3 -1.2972e-15 0)
(3 -8.83284e-16 0)
(3 3.22657e-16 0)
(3 1.41534e-15 0)
(3 6.36273e-16 0)
(3 -7.97399e-17 0)
(3 4.53008e-16 0)
(3 1.16364e-15 0)
(3 6.80013e-17 0)
(3 -1.87115e-15 0)
(3 -2.86224e-15 0)
(3 -1.83111e-16 0)
(3 -3.86183e-16 0)
(3 2.51649e-16 0)
(3 1.58917e-16 0)
(3 -4.68429e-16 0)
(3 -8.62499e-16 0)
(3 -1.08585e-15 0)
(3 -8.97771e-16 0)
(3 3.90078e-16 0)
(3 8.71092e-16 0)
(3 5.75135e-16 0)
(3 3.36652e-16 0)
(3 3.02185e-16 0)
(3 -6.54806e-17 0)
(3 -5.73943e-17 0)
(3 3.8255e-17 0)
(3 -4.50096e-16 0)
(3 -8.04405e-16 0)
(3 -6.34549e-16 0)
(3 -4.99165e-16 0)
(3 -8.95696e-16 0)
(3 -1.10535e-15 0)
(3 -7.75115e-16 0)
(3 -7.1765e-16 0)
(3 -5.40519e-16 0)
(3 1.83428e-16 0)
(3 8.48261e-16 0)
(3 2.22685e-16 0)
(3 -1.05378e-15 0)
(3 -3.96574e-16 0)
(3 -4.50922e-16 0)
(3 3.55665e-16 0)
(3 9.9375e-16 0)
(3 1.4309e-15 0)
(3 8.30057e-16 0)
(3 -7.09871e-17 0)
(3 -8.33006e-16 0)
(3 -8.69715e-16 0)
(3 -1.62649e-15 0)
(3 -1.53418e-15 0)
(3 -1.35814e-15 0)
(3 -1.33351e-15 0)
(3 -9.11094e-16 0)
(3 -4.77573e-16 0)
(3 -4.16421e-16 0)
(3 -9.6138e-16 0)
(3 -2.22638e-16 0)
(3 3.85366e-16 0)
(3 3.28938e-16 0)
(3 4.66497e-16 0)
(3 2.73676e-16 0)
(3 1.8791e-16 0)
(3 2.97404e-16 0)
(3 4.87445e-16 0)
(3 8.37583e-16 0)
(3 1.49091e-15 0)
(3 2.09897e-15 0)
(3 2.73929e-15 0)
(3 2.8947e-15 0)
(3 2.23671e-15 0)
(3 1.14522e-15 0)
(3 1.16582e-15 0)
(3 2.05304e-15 0)
(3 1.65065e-15 0)
(3 -8.2825e-16 0)
(3 -1.36021e-15 0)
(3 -1.85812e-15 0)
(3 -1.53118e-15 0)
(3 -1.06244e-15 0)
(3 -2.22992e-17 0)
(3 4.1686e-16 0)
(3 3.23261e-16 0)
(3 -2.07852e-16 0)
(3 -5.45352e-16 0)
(3 -9.27143e-16 0)
(3 -1.02422e-15 0)
(3 1.82772e-15 0)
(3 2.23548e-15 0)
(3 1.56072e-15 0)
(3 6.23964e-16 0)
(3 -4.82066e-16 0)
(3 -4.13211e-16 0)
(3 -5.78227e-16 0)
(3 -8.52567e-16 0)
(3 -1.44124e-15 0)
(3 -1.36547e-15 0)
(3 -8.42609e-16 0)
(3 8.54208e-16 0)
(3 2.51102e-15 0)
(3 2.29696e-15 0)
(3 1.85522e-15 0)
(3 4.05687e-16 0)
(3 -7.404e-16 0)
(3 -2.80876e-15 0)
(3 -2.94695e-15 0)
(3 -3.71605e-15 0)
(3 -1.02868e-16 0)
(3 -8.4079e-17 0)
(3 4.4057e-16 0)
(3 2.12752e-16 0)
(3 -1.22411e-16 0)
(3 -2.17885e-16 0)
(3 -2.65645e-16 0)
(3 -3.28097e-16 0)
(3 1.35006e-17 0)
(3 5.2371e-17 0)
(3 -2.15919e-16 0)
(3 1.94899e-17 0)
(3 3.84205e-16 0)
(3 5.13819e-16 0)
(3 5.90724e-16 0)
(3 1.03924e-15 0)
(3 1.14833e-15 0)
(3 4.24559e-16 0)
(3 -4.48412e-16 0)
(3 -3.44827e-16 0)
(3 -8.04996e-17 0)
(3 3.55795e-16 0)
(3 -2.862e-16 0)
(3 -3.27299e-16 0)
(3 2.79383e-17 0)
(3 9.81233e-16 0)
(3 2.1884e-15 0)
(3 2.73034e-15 0)
(3 4.93271e-16 0)
(3 -1.00167e-15 0)
(3 -1.26713e-15 0)
(3 -3.44608e-16 0)
(3 5.64331e-16 0)
(3 9.94312e-16 0)
(3 3.59702e-16 0)
(3 -2.29185e-16 0)
(3 -9.2265e-16 0)
(3 -1.1463e-15 0)
(3 -1.35084e-15 0)
(3 -1.46028e-15 0)
(3 -1.73671e-15 0)
(3 -1.07263e-15 0)
(3 8.55785e-18 0)
(3 7.34874e-16 0)
(3 8.62836e-16 0)
(3 1.1276e-15 0)
(3 1.07627e-15 0)
(3 6.31345e-16 0)
(3 -1.95379e-16 0)
(3 -3.59713e-17 0)
(3 3.0726e-16 0)
(3 9.07734e-16 0)
(3 9.83551e-16 0)
(3 5.96944e-17 0)
(3 -2.49576e-16 0)
(3 8.82668e-16 0)
(3 1.85979e-15 0)
(3 1.75034e-15 0)
(3 4.3636e-16 0)
(3 -2.88913e-16 0)
(3 3.34317e-16 0)
(3 8.70961e-16 0)
(3 2.43546e-15 0)
(3 2.97052e-15 0)
(3 2.64346e-15 0)
(3 4.48597e-16 0)
(3 -9.10329e-16 0)
(3 -2.1724e-15 0)
(3 -2.259e-15 0)
(3 -1.56019e-15 0)
(3 -2.9728e-16 0)
(3 -1.40865e-16 0)
(3 -6.42648e-16 0)
(3 -8.21586e-16 0)
(3 -6.28257e-16 0)
(3 -2.84945e-16 0)
(3 1.88833e-15 0)
(3 1.81508e-15 0)
(3 8.73975e-16 0)
(3 6.03582e-16 0)
(3 4.04785e-16 0)
(3 1.26355e-16 0)
(3 -2.88587e-17 0)
(3 -2.69986e-16 0)
(3 1.10487e-16 0)
(3 9.77061e-16 0)
(3 9.85717e-16 0)
(3 2.18719e-16 0)
(3 5.23939e-16 0)
(3 1.09105e-15 0)
(3 1.16956e-15 0)
(3 5.26675e-16 0)
(3 -5.96375e-16 0)
(3 -9.07334e-16 0)
(3 -1.1218e-15 0)
(3 -1.62067e-15 0)
(3 1.16914e-16 0)
(3 4.13888e-16 0)
(3 -1.45993e-16 0)
(3 -4.04775e-16 0)
(3 -4.18388e-16 0)
(3 -3.68152e-16 0)
(3 -1.64026e-16 0)
(3 -1.49541e-16 0)
(3 -4.34771e-16 0)
(3 -9.70801e-16 0)
(3 -4.21232e-16 0)
(3 7.22236e-16 0)
(3 1.02729e-15 0)
(3 1.33145e-15 0)
(3 1.4526e-15 0)
(3 1.07047e-15 0)
(3 8.79308e-16 0)
(3 1.05632e-15 0)
(3 6.52627e-17 0)
(3 -6.95333e-17 0)
(3 3.81545e-16 0)
(3 8.50006e-16 0)
(3 -1.78e-17 0)
(3 -5.00905e-17 0)
(3 -7.11576e-17 0)
(3 9.87879e-16 0)
(3 2.46058e-15 0)
(3 2.35995e-15 0)
(3 1.57253e-15 0)
(3 2.51191e-16 0)
(3 -8.60267e-16 0)
(3 -1.1761e-15 0)
(3 -7.53816e-16 0)
(3 -1.80638e-16 0)
(3 -5.24237e-16 0)
(3 -1.04604e-15 0)
(3 -1.4041e-15 0)
(3 -1.66285e-15 0)
(3 -1.92334e-15 0)
(3 -7.67091e-16 0)
(3 2.93858e-16 0)
(3 -7.48722e-17 0)
(3 -2.37334e-16 0)
(3 -1.79835e-17 0)
(3 -5.28906e-17 0)
(3 1.0066e-15 0)
(3 1.09877e-15 0)
(3 4.46031e-16 0)
(3 2.67599e-16 0)
(3 -7.32784e-16 0)
(3 -7.65528e-16 0)
(3 -4.52624e-16 0)
(3 9.46671e-16 0)
(3 1.6418e-15 0)
(3 1.45807e-15 0)
(3 1.5497e-15 0)
(3 2.58613e-15 0)
(3 1.4119e-15 0)
(3 1.04982e-16 0)
(3 1.18511e-16 0)
(3 7.66839e-17 0)
(3 8.87825e-16 0)
(3 1.59875e-15 0)
(3 2.06637e-15 0)
(3 1.92877e-15 0)
(3 5.37916e-16 0)
(3 -1.94685e-16 0)
(3 -5.87337e-16 0)
(3 -1.21195e-15 0)
(3 -1.3124e-15 0)
(3 4.46024e-17 0)
(3 8.11761e-16 0)
(3 9.51256e-16 0)
(3 1.36752e-16 0)
(3 3.09416e-16 0)
(3 7.31337e-16 0)
(3 7.44228e-16 0)
(3 5.26267e-16 0)
(3 3.68359e-16 0)
(3 -5.69111e-16 0)
(3 -6.79871e-16 0)
(3 -9.12641e-16 0)
(3 -7.59279e-16 0)
(3 1.56654e-16 0)
(3 1.18858e-15 0)
(3 1.77926e-15 0)
(3 1.33015e-15 0)
(3 -3.84128e-16 0)
(3 -2.9315e-16 0)
(3 -5.03906e-17 0)
(3 -3.48235e-16 0)
(3 -3.43999e-16 0)
(3 -7.02082e-16 0)
(3 -3.56041e-16 0)
(3 -1.13138e-15 0)
(3 -2.07269e-15 0)
(3 -1.64576e-16 0)
(3 2.13038e-16 0)
(3 -5.55999e-16 0)
(3 -5.10822e-16 0)
(3 -2.50363e-16 0)
(3 -2.78458e-16 0)
(3 1.02461e-16 0)
(3 3.25548e-16 0)
(3 -4.35491e-17 0)
(3 -5.90695e-16 0)
(3 1.17476e-16 0)
(3 1.1764e-15 0)
(3 1.67042e-15 0)
(3 1.48932e-15 0)
(3 9.49313e-16 0)
(3 9.34844e-16 0)
(3 1.27573e-15 0)
(3 1.53382e-15 0)
(3 5.10843e-16 0)
(3 7.56163e-17 0)
(3 2.62885e-16 0)
(3 6.94156e-16 0)
(3 1.20759e-15 0)
(3 2.24512e-15 0)
(3 1.784e-15 0)
(3 1.84848e-15 0)
(3 1.1815e-15 0)
(3 5.37113e-16 0)
(3 3.73117e-16 0)
(3 5.84817e-16 0)
(3 5.32425e-16 0)
(3 1.99284e-16 0)
(3 -8.2823e-16 0)
(3 -6.8662e-16 0)
(3 -1.67e-15 0)
(3 -2.44165e-15 0)
(3 -2.7615e-15 0)
(3 -2.50805e-15 0)
(3 -1.92918e-15 0)
(3 2.43451e-16 0)
(3 1.61648e-15 0)
(3 1.24929e-15 0)
(3 3.48151e-16 0)
(3 -6.43774e-16 0)
(3 -1.26297e-15 0)
(3 -9.5041e-16 0)
(3 -1.25693e-16 0)
(3 8.0304e-16 0)
(3 4.14733e-16 0)
(3 6.70745e-17 0)
(3 1.21393e-16 0)
(3 -2.20385e-16 0)
(3 -5.17719e-16 0)
(3 1.60238e-16 0)
(3 5.44042e-16 0)
(3 5.06167e-16 0)
(3 2.1353e-16 0)
(3 6.97267e-18 0)
(3 -2.58669e-16 0)
(3 -5.80764e-16 0)
(3 -1.77153e-16 0)
(3 -4.92452e-16 0)
(3 -1.05661e-15 0)
(3 -7.6996e-16 0)
(3 4.2948e-16 0)
(3 6.40878e-16 0)
(3 1.03918e-15 0)
(3 1.71863e-15 0)
(3 2.10457e-15 0)
(3 2.68456e-15 0)
(3 2.6127e-15 0)
(3 2.31408e-15 0)
(3 2.09447e-15 0)
(3 1.34877e-15 0)
(3 3.5284e-16 0)
(3 -3.67206e-16 0)
(3 -7.37899e-17 0)
(3 -4.51399e-17 0)
(3 2.10652e-16 0)
(3 -5.71717e-17 0)
(3 -6.37398e-17 0)
(3 6.37146e-17 0)
(3 2.4588e-16 0)
(3 4.22068e-16 0)
(3 1.29663e-15 0)
(3 1.13211e-15 0)
(3 1.41195e-15 0)
(3 1.69315e-15 0)
(3 1.62041e-15 0)
(3 6.99331e-16 0)
(3 -5.58263e-19 0)
(3 -1.29572e-16 0)
(3 -4.13401e-16 0)
(3 -8.02962e-16 0)
(3 -2.21724e-15 0)
(3 -3.25078e-15 0)
(3 -2.45251e-17 0)
(3 7.4657e-17 0)
(3 2.0973e-16 0)
(3 4.06392e-16 0)
(3 3.43426e-16 0)
(3 5.9316e-16 0)
(3 8.0238e-16 0)
(3 1.40192e-15 0)
(3 9.03422e-16 0)
(3 8.52252e-17 0)
(3 1.1823e-16 0)
(3 1.47048e-16 0)
(3 4.04117e-16 0)
(3 3.59149e-16 0)
(3 2.00526e-16 0)
(3 6.58185e-16 0)
(3 1.04802e-15 0)
(3 8.77361e-16 0)
(3 3.04967e-16 0)
(3 -1.23945e-16 0)
(3 1.06536e-16 0)
(3 2.21932e-18 0)
(3 3.43274e-16 0)
(3 6.99694e-16 0)
(3 1.06879e-15 0)
(3 9.92052e-16 0)
(3 7.64496e-16 0)
(3 8.264e-16 0)
(3 9.68838e-16 0)
(3 1.25292e-15 0)
(3 1.25489e-15 0)
(3 4.51177e-16 0)
(3 -1.47039e-15 0)
(3 -2.50656e-15 0)
(3 -2.25976e-15 0)
(3 -2.0763e-15 0)
(3 -2.38405e-15 0)
(3 -1.54843e-15 0)
(3 -1.24914e-15 0)
(3 -2.76614e-17 0)
(3 9.4159e-16 0)
(3 1.53677e-15 0)
(3 1.49732e-15 0)
(3 2.06683e-16 0)
(3 -1.75741e-16 0)
(3 2.58074e-16 0)
(3 1.60152e-16 0)
(3 -5.94871e-16 0)
(3 -6.33535e-16 0)
(3 3.74867e-17 0)
(3 4.80485e-16 0)
(3 5.79848e-16 0)
(3 6.26347e-16 0)
(3 5.44338e-16 0)
(3 5.50374e-16 0)
(3 -1.8382e-16 0)
(3 -1.3404e-15 0)
(3 -1.06972e-15 0)
(3 -4.82875e-16 0)
(3 -1.01936e-15 0)
(3 -1.22912e-15 0)
(3 -2.1622e-15 0)
(3 -2.54463e-15 0)
(3 -7.12182e-16 0)
(3 2.28652e-15 0)
(3 4.28822e-15 0)
(3 4.88981e-15 0)
(3 4.51198e-15 0)
(3 4.66432e-15 0)
(3 4.9029e-15 0)
(3 4.3435e-15 0)
(3 2.72748e-15 0)
(3 1.62129e-15 0)
(3 4.15272e-16 0)
(3 -3.97716e-16 0)
(3 -4.17307e-16 0)
(3 -3.31654e-16 0)
(3 -2.83918e-16 0)
(3 3.77806e-16 0)
(3 1.67091e-15 0)
(3 1.55825e-15 0)
(3 1.82321e-15 0)
(3 1.79001e-15 0)
(3 1.43956e-15 0)
(3 1.58341e-15 0)
(3 6.11876e-16 0)
(3 6.65444e-16 0)
(3 1.55664e-15 0)
(3 1.04432e-15 0)
(3 9.35069e-16 0)
(3 1.05646e-15 0)
(3 4.31936e-16 0)
(3 -4.01332e-16 0)
(3 -1.69726e-15 0)
(3 -3.36009e-15 0)
(3 -4.06138e-15 0)
(3 2.80394e-16 0)
(3 -5.66546e-17 0)
(3 5.62487e-16 0)
(3 6.66203e-16 0)
(3 3.43497e-16 0)
(3 6.68582e-16 0)
(3 7.9701e-16 0)
(3 8.44083e-16 0)
(3 6.0919e-16 0)
(3 -1.45489e-16 0)
(3 -4.89397e-16 0)
(3 -1.86459e-16 0)
(3 -1.38825e-16 0)
(3 6.78988e-16 0)
(3 1.53897e-15 0)
(3 2.06513e-15 0)
(3 1.88234e-15 0)
(3 1.95945e-15 0)
(3 2.75167e-15 0)
(3 3.12265e-15 0)
(3 2.22699e-15 0)
(3 1.23733e-15 0)
(3 7.52871e-16 0)
(3 6.69354e-16 0)
(3 7.21998e-16 0)
(3 1.60892e-16 0)
(3 -1.78951e-18 0)
(3 -2.77111e-17 0)
(3 2.85557e-16 0)
(3 6.49426e-16 0)
(3 8.74201e-17 0)
(3 -1.9565e-15 0)
(3 -3.57658e-15 0)
(3 -3.93003e-15 0)
(3 -3.65046e-15 0)
(3 -1.82077e-15 0)
(3 -1.70063e-15 0)
(3 -1.15804e-15 0)
(3 -6.96148e-16 0)
(3 3.92488e-16 0)
(3 8.99902e-16 0)
(3 1.26495e-15 0)
(3 1.57754e-15 0)
(3 1.88262e-15 0)
(3 1.85426e-15 0)
(3 1.79383e-15 0)
(3 8.17446e-16 0)
(3 2.49531e-17 0)
(3 1.09578e-17 0)
(3 -1.77234e-16 0)
(3 -3.28266e-16 0)
(3 2.47773e-16 0)
(3 1.01636e-15 0)
(3 1.16478e-15 0)
(3 1.90706e-16 0)
(3 -1.65908e-16 0)
(3 -7.54664e-16 0)
(3 -8.99855e-16 0)
(3 -2.71276e-16 0)
(3 4.01117e-16 0)
(3 2.64823e-16 0)
(3 1.23595e-16 0)
(3 -7.28731e-16 0)
(3 -9.62152e-17 0)
(3 2.95151e-15 0)
(3 3.99957e-15 0)
(3 3.83728e-15 0)
(3 3.0337e-15 0)
(3 1.86828e-15 0)
(3 1.3606e-15 0)
(3 2.41615e-15 0)
(3 1.05202e-15 0)
(3 -1.34103e-16 0)
(3 -9.38968e-17 0)
(3 -1.65308e-16 0)
(3 -4.56139e-16 0)
(3 -1.02013e-15 0)
(3 -8.90526e-16 0)
(3 1.68063e-16 0)
(3 1.37322e-15 0)
(3 1.68409e-15 0)
(3 1.50997e-15 0)
(3 9.08531e-16 0)
(3 2.35179e-15 0)
(3 2.97557e-15 0)
(3 2.92776e-15 0)
(3 2.19638e-15 0)
(3 1.24769e-15 0)
(3 6.84525e-16 0)
(3 3.51109e-16 0)
(3 -1.52508e-16 0)
(3 -8.67743e-16 0)
(3 -1.43309e-15 0)
(3 -2.06774e-15 0)
(3 -2.42913e-15 0)
(3 -3.09419e-15 0)
(3 1.04783e-17 0)
(3 -2.65364e-16 0)
(3 -3.03489e-16 0)
(3 -5.29603e-16 0)
(3 -4.14073e-17 0)
(3 2.69468e-16 0)
(3 4.70336e-16 0)
(3 -3.04655e-18 0)
(3 -5.19643e-16 0)
(3 -2.4194e-16 0)
(3 -1.81762e-16 0)
(3 2.04503e-16 0)
(3 1.52336e-16 0)
(3 3.255e-16 0)
(3 5.93441e-16 0)
(3 1.18652e-15 0)
(3 1.9212e-15 0)
(3 1.85586e-15 0)
(3 1.6295e-15 0)
(3 2.15066e-15 0)
(3 1.75873e-15 0)
(3 1.64338e-15 0)
(3 1.74309e-15 0)
(3 2.03621e-15 0)
(3 1.02602e-15 0)
(3 1.52464e-16 0)
(3 -3.25796e-16 0)
(3 -3.76995e-16 0)
(3 3.06694e-17 0)
(3 1.23519e-16 0)
(3 -1.33511e-15 0)
(3 -1.73864e-15 0)
(3 -1.89192e-15 0)
(3 -2.39066e-15 0)
(3 -2.20849e-15 0)
(3 -1.57217e-15 0)
(3 -5.93694e-16 0)
(3 -7.83863e-16 0)
(3 -3.37869e-16 0)
(3 5.86591e-16 0)
(3 1.08239e-15 0)
(3 4.74908e-16 0)
(3 -2.6719e-16 0)
(3 -2.43129e-16 0)
(3 -1.66235e-16 0)
(3 -1.08936e-15 0)
(3 -3.05508e-16 0)
(3 6.94128e-17 0)
(3 5.66058e-16 0)
(3 7.88125e-16 0)
(3 7.1111e-17 0)
(3 -4.14707e-16 0)
(3 -6.68946e-16 0)
(3 -8.89187e-16 0)
(3 -9.67625e-16 0)
(3 -9.17877e-16 0)
(3 -9.92563e-16 0)
(3 -7.28024e-16 0)
(3 -6.42189e-16 0)
(3 3.40807e-16 0)
(3 7.75207e-16 0)
(3 1.94417e-15 0)
(3 1.94485e-15 0)
(3 2.28789e-15 0)
(3 3.14368e-15 0)
(3 3.48108e-15 0)
(3 2.17582e-15 0)
(3 1.81896e-15 0)
(3 1.55974e-15 0)
(3 5.29882e-16 0)
(3 1.30482e-16 0)
(3 -2.87388e-16 0)
(3 -4.03516e-16 0)
(3 -4.43356e-16 0)
(3 -6.66497e-16 0)
(3 -2.36168e-15 0)
(3 -2.46833e-15 0)
(3 -2.23934e-15 0)
(3 -7.62819e-16 0)
(3 -1.30466e-16 0)
(3 1.09753e-15 0)
(3 1.77975e-15 0)
(3 2.1359e-15 0)
(3 2.75093e-15 0)
(3 3.92733e-15 0)
(3 5.18188e-15 0)
(3 5.21783e-15 0)
(3 5.10966e-15 0)
(3 3.89767e-15 0)
(3 2.57339e-15 0)
(3 1.19163e-15 0)
(3 -1.1975e-16 0)
(3 -3.31255e-16 0)
(3 -1.00875e-15 0)
(3 -1.20632e-15 0)
(3 -1.54182e-15 0)
(3 -1.20335e-16 0)
(3 1.4698e-16 0)
(3 -8.59047e-16 0)
(3 -9.79461e-16 0)
(3 2.25205e-16 0)
(3 2.77752e-16 0)
(3 -2.76058e-17 0)
(3 -1.14239e-15 0)
(3 -1.10212e-15 0)
(3 -7.44561e-16 0)
(3 -4.72914e-16 0)
(3 -3.14795e-16 0)
(3 -3.03786e-16 0)
(3 -7.29064e-17 0)
(3 -1.36261e-16 0)
(3 -1.12448e-16 0)
(3 4.5355e-16 0)
(3 5.67297e-16 0)
(3 3.07879e-16 0)
(3 4.48658e-16 0)
(3 5.82735e-16 0)
(3 1.0439e-15 0)
(3 7.31487e-16 0)
(3 1.02191e-16 0)
(3 -1.76056e-16 0)
(3 9.6705e-17 0)
(3 1.50527e-17 0)
(3 3.12648e-16 0)
(3 6.35182e-16 0)
(3 3.82994e-16 0)
(3 -1.7692e-16 0)
(3 -2.96413e-17 0)
(3 8.35701e-16 0)
(3 6.59488e-16 0)
(3 8.23133e-16 0)
(3 1.21745e-15 0)
(3 1.62849e-17 0)
(3 -7.40537e-16 0)
(3 -9.90275e-16 0)
(3 -8.76344e-16 0)
(3 -8.94083e-16 0)
(3 -7.98183e-16 0)
(3 -7.54725e-16 0)
(3 -1.00599e-15 0)
(3 -1.25171e-15 0)
(3 -1.27624e-15 0)
(3 -1.04642e-15 0)
(3 -6.17107e-16 0)
(3 2.83487e-16 0)
(3 4.48918e-16 0)
(3 -2.29158e-16 0)
(3 -7.63219e-16 0)
(3 -1.8624e-15 0)
(3 -2.59899e-15 0)
(3 -2.74075e-15 0)
(3 -3.64464e-15 0)
(3 -3.41762e-15 0)
(3 -2.82229e-15 0)
(3 -1.63391e-15 0)
(3 -6.0903e-16 0)
(3 2.88215e-17 0)
(3 2.2668e-15 0)
(3 4.36998e-15 0)
(3 2.94462e-15 0)
(3 6.50159e-16 0)
(3 -2.37561e-16 0)
(3 -6.07938e-16 0)
(3 6.26489e-16 0)
(3 9.73664e-16 0)
(3 8.06555e-16 0)
(3 -4.63389e-16 0)
(3 -9.5353e-16 0)
(3 -5.18514e-16 0)
(3 -5.86808e-16 0)
(3 -8.72171e-16 0)
(3 -8.35097e-16 0)
(3 -1.11416e-15 0)
(3 -8.47302e-16 0)
(3 -9.10289e-16 0)
(3 -1.80717e-16 0)
(3 6.82533e-16 0)
(3 1.47976e-15 0)
(3 2.35635e-15 0)
(3 2.76223e-15 0)
(3 2.16272e-15 0)
(3 2.24485e-15 0)
(3 2.57388e-15 0)
(3 2.62831e-15 0)
(3 2.38526e-15 0)
(3 1.7048e-15 0)
(3 1.22871e-15 0)
(3 2.98125e-16 0)
(3 -8.71812e-16 0)
(3 -1.8207e-15 0)
(3 -1.72729e-15 0)
(3 -9.32501e-16 0)
(3 -3.72979e-17 0)
(3 -1.26484e-17 0)
(3 -3.82147e-16 0)
(3 -2.27602e-16 0)
(3 -3.61227e-16 0)
(3 -2.70547e-16 0)
(3 -4.89193e-16 0)
(3 -1.58906e-16 0)
(3 2.50403e-16 0)
(3 3.55309e-16 0)
(3 3.6141e-16 0)
(3 -3.96304e-17 0)
(3 -1.01353e-16 0)
(3 1.88984e-16 0)
(3 -1.29166e-16 0)
(3 -6.13663e-16 0)
(3 -1.64174e-15 0)
(3 -1.32514e-15 0)
(3 -4.01137e-16 0)
(3 3.6849e-17 0)
(3 -2.81414e-16 0)
(3 1.60996e-16 0)
(3 1.13581e-15 0)
(3 6.10666e-16 0)
(3 1.68532e-16 0)
(3 2.44557e-16 0)
(3 -6.28879e-16 0)
(3 -3.65242e-16 0)
(3 -4.09579e-16 0)
(3 -8.33268e-16 0)
(3 -1.03728e-16 0)
(3 1.36959e-16 0)
(3 3.6619e-16 0)
(3 5.09822e-16 0)
(3 4.87058e-16 0)
(3 -4.89847e-17 0)
(3 4.19523e-17 0)
(3 5.57891e-16 0)
(3 3.64295e-16 0)
(3 -4.92874e-17 0)
(3 -1.23276e-15 0)
(3 -1.56813e-15 0)
(3 -8.6411e-16 0)
(3 -6.8189e-16 0)
(3 -4.58869e-16 0)
(3 -1.52592e-16 0)
(3 9.38243e-16 0)
(3 1.69813e-15 0)
(3 1.6353e-15 0)
(3 1.45528e-15 0)
(3 9.11032e-16 0)
(3 1.16322e-15 0)
(3 8.4583e-16 0)
(3 3.35493e-16 0)
(3 -6.80876e-16 0)
(3 -9.42797e-16 0)
(3 -1.02665e-15 0)
(3 -9.89091e-16 0)