/*--------------------------------*- C++ -*----------------------------------*\
  =========                 |
  \\      /  F ield         | OpenFOAM: The Open Source CFD Toolbox
   \\    /   O peration     | Website:  https://openfoam.org
    \\  /    A nd           | Version:  7
     \\/     M anipulation  |
\*---------------------------------------------------------------------------*/
FoamFile
{
    version     2.0;
    format      ascii;
    class       volScalarField;
    location    "0.9";
    object      p;
}
// * * * * * * * * * * * * * * * * * * * * * * * * * * * * * * * * * * * * * //

dimensions      [1 -1 -2 0 0 0 0];

internalField   nonuniform List<scalar> 
4608
(
1
1
1
1
1
1
1
1
1
1
1
1
1
1
1
1
1
1
1
1
1
1
1
1
1
1
1
1
1
1
1
1
1
1
1
1
1
1
1
1
1
1
1
1
1
1
1
1
1
1
1
1
1
1
1
1
1
1
1
1
1
1
1
1
1
1
1
1
1
1
1
1
1
1
1
1
1
1
1
1
1
1
1
1
1
1
1
1
1
1
1
1
1
1
1
1
1
1
1
1
1
1
1
1
1
1
1
1
1
1
1
1
1
1
1
1
1
1
1
1
1
1
1
1
1
1
1
1
1
1
1
1
1
1
1
1
1
1
1
1
1
1
1
1
1
1
1
1
1
1
1
1
1
1
1
1
1
1
1
1
1
1
1
1
1
1
1
1
1
1
1
1
1
1
1
1
1
1
1
1
1
1
1
1
1
1
1
1
1
1
1
1
1
1
1
1
1
1
1
1
1
1
1
1
1
1
1
1
1
1
1
1
1
1
1
1
1
1
1
1
1
1
1
1
1
1
1
1
1
1
1
1
1
1
1
1
1
1
1
1
1
1
1
1
1
1
1
1
1
1
1
1
1
1
1
1
1
1
1
1
1
1
1
1
1
1
1
1
1
1
1
1
1
1
1
1
1
1
1
1
1
1
1
1
1
1
1
1
1
1
1
1
1
1
1
1
1
1
1
1
1
1
1
1
1
1
1
1
1
1
1
1
1
1
1
1
1
1
1
1
1
1
1
1
1
1
1
1
1
1
1
1
1
1
1
1
1
1
1
1
1
1
1
1
1
1
1
1
1
1
1
1
1
1
1
1
1
1
1
1
1
1
1
1
1
1
1
1
1
1
1
1
1
1
1
1
1
1
1
1
1
1
1
1
1
1
1
1
1
1
1
1
1
1
1
1
1
1
1
1
1
1
1
1
1
1
1
1
1
1
1
1
1
1
1
1
1
1
1
1
1
1
1
1
1
1
1
1
1
1
1
1
1
1
1
1
1
1
1
1
1
1
1
1
1
1
1
1
1
1
1
1
1
1
1
1
1
1
1
1
1
1
1
1
1
1
1
1
1
1
1
1
1
1
1
1
1
1
1
1
1
1
1
1
1
1
1
1
1
1
1
1
1
1
1
1
1
1
1
1
1
1
1
1
1
1
1
1
1
1
1
1
1
1
1
1
1
1
1
1
1
1
1
1
1
1
1
1
1
1
1
1
1
1
1
1
1
1
1
1
1
1
1
1
1
1
1
1
1
1
1
1
1
1
1
1
1
1
1
1
1
1
1
1
1
1
1
1
1
1
1
1
1
1
1
1
1
1
1
1
1
1
1
1
1
1
1
1
1
1
1
1
1
1
1
1
1
1
1
1
1
1
1
1
1
1
1
1
1
1
1
1
1
1
1
1
1
1
1
1
1
1
1
1
1
1
1
1
1
1
1
1
1
1
1
1
1
1
1
1
1
1
1
1
1
1
1
1
1
1
1
1
1
1
1
1
1
1
1
1
1
1
1
1
1
1
1
1
1
1
1
1
1
1
1
1
1
1
1
1
1
1
1
1
1
1
1
1
1
1
1
1
1
1
1
1
1
1
1
1
1
1
1
1
1
1
1
1
1
1
1
1
1
1
1
1
1
1
1
1
1
1
1
1
1
1
1
1
1
1
1
1
1
1
1
1
1
1
1
1
1
1
1
1
1
1
1
1
1
1
1
1
1
1
1
1
1
1
1
1
1
1
1
1
1
1
1
1
1.29081
1.76926
2.33059
2.96293
3.64857
4.27554
4.84713
5.3104
5.36082
5.16216
4.72944
4.21336
3.80822
3.68116
3.57614
3.57695
3.61017
3.65183
3.70054
3.7381
3.74774
3.74998
3.75323
3.77087
1.00279
1.01693
1.08737
1.21757
1.47315
1.85525
2.37848
2.98865
3.54969
3.84653
4.05658
4.03231
3.93767
3.87825
3.77992
3.7188
3.69291
3.67319
3.68403
3.71649
3.7352
3.74242
3.7493
3.76409
1
0.999946
1.00023
1.00027
1.00354
1.02427
1.10711
1.36845
1.97125
3.00908
3.84349
4.31144
4.35162
4.27505
4.11459
3.88516
3.70485
3.64654
3.65508
3.68594
3.71622
3.73115
3.73915
3.74983
1
0.999998
0.999997
0.999999
0.999987
1.00004
0.999901
1.00199
1.03177
1.30108
2.01987
3.21808
3.90838
4.08048
4.06361
4.02077
3.87164
3.72557
3.70853
3.70024
3.7005
3.71262
3.73528
3.75249
1
1
1
1
0.999999
0.999999
0.999987
0.99999
0.999901
1.00142
1.0433
1.34594
2.2515
3.223
4.01709
4.13249
4.07559
3.94486
3.83675
3.75676
3.71182
3.70925
3.72558
3.755
1
1
1
1
1
1
1
0.999999
0.999991
0.999991
0.999916
1.00247
1.08653
1.48781
2.51736
3.4288
3.97259
3.97707
3.93641
3.86148
3.77822
3.72966
3.71496
3.72616
1
1
1
1
1
1
1
1
1
0.999999
0.999993
0.99998
1.00008
1.00835
1.16192
1.79417
2.99407
3.58479
3.80124
3.85591
3.83815
3.75769
3.70341
3.69544
1
1
1
1
1
1
1
1
1
1
1
0.999997
0.999998
0.999972
1.0012
1.03582
1.36077
2.25163
3.32399
3.8133
3.82587
3.7947
3.743
3.72569
1
1
1
1
1
1
1
1
1
1
1
1
1
0.999995
0.999996
0.999995
1.00755
1.141
1.73546
2.7772
3.58214
3.81971
3.81201
3.78191
1
1
1
1
1
1
1
1
1
1
1
1
1
1
0.999999
0.999998
0.999978
1.00136
1.03997
1.41509
2.38768
3.33635
3.57131
3.69156
1
1
1
1
1
1
1
1
1
1
1
1
1
1
1
1
0.999996
0.999991
1.00014
1.017
1.19766
2.00159
3.04182
3.67457
1
1
1
1
1
1
1
1
1
1
1
1
1
1
1
1
1
0.999999
0.999998
1.00003
1.00443
1.12361
1.71598
2.87151
1
1
1
1
1
1
1
1
1
1
1
1
1
1
1
1
1
1
0.999999
0.999999
1
1.00263
1.06674
1.50443
1
1
1
1
1
1
1
1
1
1
1
1
1
1
1
1
1
1
1
1
1
0.999997
1.00116
1.02505
1
1
1
1
1
1
1
1
1
1
1
1
1
1
1
1
1
1
1
1
1
0.999999
1
0.999991
1
1
1
1
1
1
1
1
1
1
1
1
1
1
1
1
1
1
1
1
1
1
1
0.999995
1
1
1
1
1
1
1
1
1
1
1
1
1
1
1
1
1
1
1
1
1
1
1
0.999995
1
1
1
1
1
1
1
1
1
1
1
1
1
1
1
1
1
1
1
1
1
0.999999
1
0.999991
1
1
1
1
1
1
1
1
1
1
1
1
1
1
1
1
1
1
1
1
1
0.999997
1.00116
1.02505
1
1
1
1
1
1
1
1
1
1
1
1
1
1
1
1
1
1
0.999999
0.999999
1
1.00263
1.06674
1.50443
1
1
1
1
1
1
1
1
1
1
1
1
1
1
1
1
1
0.999999
0.999998
1.00003
1.00443
1.12361
1.71598
2.87151
1
1
1
1
1
1
1
1
1
1
1
1
1
1
1
1
0.999996
0.999991
1.00014
1.017
1.19766
2.00159
3.04182
3.67457
1
1
1
1
1
1
1
1
1
1
1
1
1
1
0.999999
0.999998
0.999978
1.00136
1.03997
1.41509
2.38768
3.33635
3.57131
3.69156
1
1
1
1
1
1
1
1
1
1
1
1
1
0.999995
0.999996
0.999995
1.00755
1.141
1.73546
2.7772
3.58214
3.81971
3.81201
3.78191
1
1
1
1
1
1
1
1
1
1
1
0.999997
0.999998
0.999972
1.0012
1.03582
1.36077
2.25163
3.32399
3.8133
3.82587
3.7947
3.743
3.72569
1
1
1
1
1
1
1
1
1
0.999999
0.999993
0.99998
1.00008
1.00835
1.16192
1.79417
2.99407
3.58479
3.80124
3.85591
3.83815
3.75769
3.70341
3.69544
1
1
1
1
1
1
1
0.999999
0.999991
0.999991
0.999916
1.00247
1.08653
1.48781
2.51736
3.4288
3.97259
3.97707
3.93641
3.86148
3.77822
3.72966
3.71496
3.72616
1
1
1
1
0.999999
0.999999
0.999987
0.99999
0.999901
1.00142
1.0433
1.34594
2.2515
3.223
4.01709
4.13249
4.07559
3.94486
3.83675
3.75676
3.71182
3.70925
3.72558
3.755
1
0.999998
0.999997
0.999999
0.999987
1.00004
0.999901
1.00199
1.03177
1.30108
2.01987
3.21808
3.90838
4.08048
4.06361
4.02077
3.87164
3.72557
3.70853
3.70024
3.7005
3.71262
3.73528
3.75249
1
0.999946
1.00023
1.00027
1.00354
1.02427
1.10711
1.36845
1.97125
3.00908
3.84349
4.31144
4.35162
4.27505
4.11459
3.88516
3.70485
3.64654
3.65508
3.68594
3.71622
3.73115
3.73915
3.74983
1.00279
1.01693
1.08737
1.21757
1.47315
1.85525
2.37848
2.98865
3.54969
3.84653
4.05658
4.03231
3.93767
3.87825
3.77992
3.7188
3.69291
3.67319
3.68403
3.71649
3.7352
3.74242
3.7493
3.76409
1.29081
1.76926
2.33059
2.96293
3.64857
4.27554
4.84713
5.3104
5.36082
5.16216
4.72944
4.21336
3.80822
3.68116
3.57614
3.57695
3.61017
3.65183
3.70054
3.7381
3.74774
3.74998
3.75323
3.77087
2.65811
1.73148
1.16918
0.779634
0.654649
0.685562
0.721537
0.726995
0.770397
0.852896
0.906607
0.932667
0.964501
1.01436
1.03607
1.037
1.04617
1.07658
1.08053
1.07744
1.06557
1.05237
1.05342
1.07754
1.25427
1.80623
3.11941
4.61506
5.94466
7.24074
7.86587
7.7036
7.36155
6.79471
6.18932
5.79063
5.4962
5.24693
5.00295
4.80919
4.65326
4.51899
4.37364
4.21332
4.04956
3.88694
3.7325
3.59083
3.4668
3.3671
3.28272
3.1962
3.09347
2.96669
2.81611
2.6755
2.58422
2.52381
2.4764
2.43067
2.37754
2.30801
2.21232
2.09519
2.00334
1.95185
1.9157
1.88367
1.85089
1.81105
1.75017
1.65634
1.57012
1.52206
1.49347
1.47261
1.45476
1.4347
1.40564
1.35493
1.2755
1.20189
1.1709
1.16111
1.1541
1.14478
1.1297
1.10835
1.0787
1.02889
0.958758
0.92437
0.914367
0.903301
0.894992
0.882511
3.37196
2.74311
2.24065
1.81306
1.40815
1.2429
1.15613
1.04203
0.991344
0.966801
0.923432
0.902443
0.907892
0.927419
0.960696
0.986693
1.00216
1.02249
1.02813
1.03034
1.02752
1.03037
1.0707
1.40664
2.0367
2.70616
3.03065
3.4433
3.96659
4.63104
5.30473
5.7616
6.09647
6.25144
6.15371
5.91279
5.65098
5.37858
5.11891
4.89022
4.70784
4.56346
4.4196
4.26534
4.11205
3.9658
3.82177
3.66976
3.53443
3.43115
3.34446
3.24908
3.13548
3.00703
2.86827
2.74489
2.66067
2.59122
2.52926
2.47775
2.42127
2.34587
2.24503
2.13384
2.05338
2.00761
1.96521
1.92533
1.88807
1.84347
1.77939
1.69563
1.62223
1.57402
1.53802
1.50784
1.48417
1.46272
1.43394
1.38701
1.3171
1.25245
1.21344
1.19185
1.18196
1.17049
1.15156
1.1264
1.09786
1.05991
1.0046
0.957844
0.939614
0.926832
0.917934
0.903877
3.64502
3.32845
2.83985
2.41086
2.0027
1.62276
1.4267
1.26633
1.07693
1.00695
0.976354
0.927656
0.920936
0.928026
0.94205
0.955069
0.969123
0.974481
0.982497
0.993006
1.01297
1.0815
1.49277
2.41993
2.89462
3.1358
3.13973
3.14675
3.13738
3.22037
3.5208
4.16268
5.02979
5.6334
5.92803
5.89184
5.79814
5.5914
5.25246
4.8754
4.61849
4.45572
4.33531
4.20488
4.07083
3.92876
3.77776
3.60708
3.44657
3.31565
3.22778
3.15266
3.05556
2.94271
2.84097
2.75677
2.66428
2.55872
2.46248
2.3897
2.33329
2.26971
2.18702
2.10502
2.04802
1.99759
1.93887
1.87471
1.82118
1.77749
1.72609
1.66611
1.60897
1.56207
1.52105
1.47943
1.43587
1.40273
1.37764
1.3428
1.28959
1.23829
1.20335
1.171
1.14375
1.13202
1.1177
1.0943
1.06478
1.03192
0.993381
0.957339
0.930711
0.909495
0.897391
0.88263
3.7215
3.59857
3.29172
2.89428
2.53652
2.09434
1.78711
1.63695
1.41992
1.22961
1.17908
1.11682
1.05222
1.01076
0.978048
0.970228
0.953904
0.937819
0.938907
0.951393
1.06305
1.51086
2.53951
3.01535
3.08841
3.09274
3.09095
3.0078
2.90882
2.82262
2.76515
2.83314
3.14545
3.78606
4.50911
5.18148
5.33379
5.27611
5.1419
4.95929
4.7139
4.50119
4.36654
4.24956
4.10402
3.94439
3.77582
3.59744
3.43521
3.29475
3.18411
3.112
3.04338
2.96039
2.88019
2.80304
2.68826
2.56659
2.45948
2.36878
2.295
2.23827
2.18957
2.13651
2.08132
2.01791
1.94579
1.87233
1.80221
1.74666
1.70814
1.66775
1.61422
1.56654
1.52537
1.48235
1.43376
1.3856
1.34836
1.31582
1.27647
1.23786
1.20851
1.17388
1.13916
1.12151
1.10482
1.08317
1.05528
1.02376
0.992265
0.963897
0.935397
0.9077
0.893889
0.880415
3.75029
3.71463
3.57538
3.28386
2.95797
2.60252
2.17959
1.93436
1.76571
1.55539
1.3854
1.27922
1.1841
1.10152
1.03003
0.987134
0.962245
0.943788
0.958751
1.13357
1.69643
2.61717
3.11795
3.09627
3.03267
2.98068
2.92023
2.84128
2.74796
2.63047
2.56851
2.5613
2.54597
2.61086
2.8497
3.43001
4.0831
4.6023
4.92101
4.89369
4.78409
4.57621
4.32837
4.11309
3.91918
3.76139
3.67802
3.59563
3.46353
3.31727
3.1979
3.0894
2.97237
2.85805
2.74855
2.68469
2.6579
2.60009
2.49578
2.39419
2.30146
2.20581
2.12455
2.07593
2.03344
1.98567
1.93319
1.87398
1.80904
1.72386
1.64688
1.61642
1.60835
1.59278
1.5644
1.52507
1.46958
1.39367
1.32018
1.28328
1.27031
1.25815
1.23792
1.21015
1.17617
1.1415
1.10609
1.0739
1.05233
1.03335
1.01434
0.992554
0.962532
0.924328
0.898928
0.886474
3.7497
3.74355
3.70976
3.56351
3.28709
2.98773
2.62978
2.29077
2.07925
1.87286
1.65635
1.50448
1.39384
1.29245
1.19407
1.09966
1.06685
1.09918
1.33437
2.05669
2.8401
3.24327
3.21226
3.1117
2.97052
2.86032
2.77397
2.68816
2.59006
2.48751
2.45097
2.4329
2.38065
2.2788
2.21311
2.26274
2.49527
2.96248
3.57241
4.15765
4.3886
4.30215
4.24665
4.14944
3.98917
3.79943
3.66249
3.5783
3.49619
3.36982
3.22481
3.08587
2.96364
2.85215
2.73913
2.64457
2.5814
2.5333
2.49654
2.42121
2.3102
2.20321
2.1109
2.04578
2.01892
1.99536
1.95686
1.90435
1.81792
1.70937
1.63983
1.6098
1.57833
1.54587
1.51624
1.4826
1.43563
1.36633
1.30296
1.28098
1.2633
1.23583
1.20917
1.18302
1.15662
1.13092
1.10196
1.0645
1.02851
1.00944
0.996021
0.978758
0.956686
0.934446
0.916935
0.896319
3.71254
3.73158
3.71943
3.68353
3.52961
3.2921
2.98996
2.65785
2.39896
2.17693
1.95075
1.76847
1.61856
1.4873
1.38768
1.27261
1.29779
1.64428
2.51257
3.34521
3.54873
3.46434
3.28737
3.10501
2.94763
2.8247
2.72729
2.63196
2.53609
2.44033
2.37369
2.32077
2.24735
2.13702
2.05448
2.02516
1.97994
2.00791
2.19954
2.61563
3.16318
3.58528
3.95909
4.07011
4.02532
3.88883
3.70578
3.52615
3.37752
3.24158
3.11664
3.05831
3.00113
2.90066
2.77321
2.65809
2.5619
2.48163
2.41573
2.37289
2.32276
2.2433
2.14667
2.05148
1.96893
1.91466
1.8795
1.83901
1.78842
1.7275
1.66965
1.61958
1.57367
1.53721
1.50271
1.46284
1.41456
1.35291
1.30068
1.27768
1.25613
1.22904
1.20287
1.17521
1.1471
1.12379
1.09658
1.06052
1.02785
1.00875
0.99462
0.97964
0.963504
0.951221
0.941661
0.916037
3.71403
3.71383
3.70913
3.69011
3.63562
3.50188
3.27518
2.97828
2.71845
2.47601
2.20694
2.04069
1.8674
1.71377
1.58889
1.68631
2.23735
3.25135
4.00242
3.9951
3.83849
3.60816
3.38369
3.18432
3.00931
2.86523
2.74748
2.63895
2.5332
2.43227
2.34351
2.26171
2.16628
2.06364
2.00393
1.9535
1.88528
1.83219
1.79017
1.79994
1.92125
2.2249
2.74088
3.20892
3.55902
3.66924
3.60576
3.48004
3.39598
3.28388
3.14799
2.99876
2.92157
2.89129
2.81571
2.67907
2.55411
2.45645
2.36595
2.28577
2.21965
2.15992
2.10671
2.04659
1.97046
1.90666
1.86129
1.81
1.74669
1.68728
1.63518
1.59976
1.58131
1.55572
1.51766
1.46578
1.40863
1.35033
1.30195
1.27964
1.25995
1.23508
1.20949
1.18089
1.14841
1.11918
1.08859
1.05832
1.03255
1.0195
1.00903
0.998744
0.989931
0.98099
0.968698
0.97604
3.76693
3.75448
3.74125
3.71982
3.68769
3.62236
3.49305
3.24405
2.98907
2.76214
2.51936
2.25872
2.08458
2.00976
2.24341
3.09326
4.20424
4.65516
4.56804
4.29134
4.00234
3.75757
3.54609
3.35308
3.16403
2.9842
2.82809
2.69387
2.5678
2.44495
2.3398
2.23774
2.1206
2.03007
1.9815
1.91866
1.84473
1.77731
1.71708
1.65103
1.59672
1.60515
1.70723
2.00396
2.42471
2.86656
3.11634
3.28263
3.33913
3.32231
3.24151
3.05886
2.89506
2.80152
2.71223
2.61033
2.51834
2.43813
2.34839
2.25173
2.18256
2.13256
2.0819
2.02304
1.95678
1.88811
1.82975
1.77133
1.71496
1.66873
1.63056
1.5985
1.56296
1.52803
1.49204
1.44676
1.39282
1.34959
1.32234
1.30247
1.28019
1.25371
1.2333
1.20952
1.17212
1.12824
1.09029
1.07255
1.07141
1.07859
1.09109
1.10848
1.13728
1.17474
1.21324
1.30298
3.75543
3.759
3.74778
3.72982
3.708
3.67986
3.61559
3.46286
3.25191
3.00151
2.7759
2.4983
2.53587
3.06211
4.2798
5.38224
5.49346
5.28234
4.89605
4.53654
4.23421
3.96912
3.73048
3.51305
3.30797
3.11446
2.94211
2.78918
2.64188
2.49874
2.36873
2.23962
2.11584
2.04337
1.98519
1.91079
1.83173
1.75413
1.6735
1.5986
1.54624
1.52844
1.50019
1.48935
1.55147
1.73477
2.07176
2.42649
2.73408
3.03055
3.09566
3.05604
2.9027
2.77889
2.69061
2.59726
2.50948
2.42726
2.33312
2.24431
2.17939
2.12459
2.07053
2.01372
1.94672
1.87421
1.80504
1.74578
1.70363
1.66607
1.62884
1.59527
1.55912
1.52042
1.47893
1.43261
1.39126
1.35174
1.32147
1.31096
1.29786
1.28392
1.27383
1.2512
1.20388
1.19446
1.21152
1.26068
1.34449
1.4371
1.50789
1.57085
1.61955
1.65409
1.67568
1.71924
3.75425
3.73334
3.71083
3.70425
3.69745
3.68978
3.66153
3.58154
3.41486
3.24009
3.02672
3.2185
4.25129
5.79342
6.42329
6.29738
5.91009
5.48599
5.09974
4.76238
4.46242
4.18375
3.92556
3.68815
3.46444
3.25308
3.0586
2.87839
2.70637
2.54881
2.40689
2.2704
2.1561
2.06556
1.98212
1.89985
1.82723
1.75064
1.66298
1.57522
1.53068
1.50808
1.47214
1.43532
1.39288
1.34388
1.36304
1.48451
1.76337
2.1673
2.60996
2.77858
2.74721
2.70949
2.67394
2.62458
2.55344
2.4565
2.34689
2.24822
2.18026
2.12413
2.07765
2.02815
1.95603
1.87362
1.79667
1.72244
1.68532
1.6621
1.63594
1.60033
1.56235
1.52355
1.48428
1.44006
1.39964
1.36327
1.35095
1.36303
1.39598
1.45474
1.50911
1.53623
1.57522
1.64347
1.70306
1.77717
1.8849
1.94983
1.97132
1.97177
1.95964
1.911
1.8668
1.8484
3.43977
3.64334
3.7762
3.79056
3.767
3.71944
3.67469
3.63962
3.54345
3.56959
4.22979
5.76002
7.29766
7.64931
7.38093
6.78394
6.20295
5.71859
5.31838
4.9724
4.65734
4.36178
4.08696
3.83506
3.60199
3.38303
3.17614
2.97829
2.78645
2.60185
2.4359
2.30587
2.21041
2.11919
2.01265
1.89814
1.80769
1.74468
1.67638
1.57804
1.53967
1.52347
1.48908
1.42565
1.34906
1.28885
1.24468
1.21932
1.24386
1.36071
1.62999
1.95971
2.27995
2.3888
2.45169
2.49445
2.47378
2.43891
2.38779
2.28765
2.19783
2.12786
2.06195
1.99086
1.9138
1.84454
1.78434
1.7303
1.69548
1.65744
1.63194
1.6125
1.58739
1.55763
1.52533
1.52754
1.55541
1.61355
1.71315
1.8416
1.97643
2.07349
2.10677
2.14065
2.1733
2.17412
2.18091
2.21341
2.22737
2.22215
2.19876
2.16584
2.11692
2.04944
2.00724
1.96571
2.53995
3.40887
3.71828
3.73522
3.70151
3.66961
3.67057
3.70795
3.99907
5.37849
7.73611
8.43764
8.33995
8.06223
7.6213
7.12377
6.57917
6.03435
5.54754
5.13769
4.78953
4.48197
4.20093
3.9382
3.68946
3.45523
3.2383
3.03956
2.85724
2.68115
2.51292
2.36704
2.24117
2.12919
2.023
1.92732
1.83925
1.73942
1.64846
1.59056
1.54618
1.49316
1.43375
1.3684
1.30329
1.24277
1.20961
1.1873
1.16185
1.13067
1.13917
1.21225
1.39395
1.6836
1.94974
2.21054
2.3094
2.33143
2.30443
2.26527
2.21563
2.16086
2.08002
1.99952
1.91754
1.84321
1.79747
1.76541
1.7328
1.69912
1.69887
1.7341
1.80489
1.9003
1.98904
2.09252
2.19679
2.29982
2.41059
2.49941
2.51778
2.49039
2.4131
2.37123
2.32072
2.27116
2.25799
2.25333
2.25546
2.23014
2.19191
2.15088
2.08794
2.02124
1.98951
1.94801
1.39798
2.33363
3.25006
3.54343
3.58203
3.6627
3.91465
4.6803
6.52757
8.92879
9.99683
9.75969
8.97436
8.23409
7.7473
7.2988
6.79704
6.26325
5.7561
5.31058
4.927
4.59132
4.28889
4.01099
3.75393
3.51543
3.29278
3.08566
2.90582
2.75028
2.58603
2.41909
2.28301
2.16815
2.05665
1.94718
1.85146
1.75598
1.67218
1.61024
1.55068
1.49006
1.42517
1.35668
1.29337
1.24313
1.21072
1.17839
1.14147
1.10497
1.08641
1.07013
1.06533
1.10834
1.24822
1.49567
1.77832
2.03614
2.09379
2.12494
2.10028
2.07062
2.05737
2.02704
1.97722
1.92355
1.93392
1.98328
2.06642
2.17
2.31294
2.46518
2.60308
2.71895
2.78749
2.81244
2.83959
2.86193
2.8468
2.82183
2.77734
2.70482
2.61784
2.54227
2.43425
2.35344
2.3146
2.27376
2.22943
2.17415
2.12122
2.07651
2.03681
2.00292
1.97761
1.92576
1.03028
1.2571
2.03649
2.99158
3.45215
4.28608
5.77123
7.69241
9.36104
10.0221
9.97024
9.74767
9.27324
8.60591
7.98229
7.41561
6.87619
6.36814
5.89472
5.45559
5.05307
4.69014
4.36412
4.06912
3.80151
3.55892
3.33967
3.1407
2.9452
2.74988
2.61797
2.52048
2.39902
2.27333
2.14445
1.98945
1.87138
1.8194
1.76658
1.69485
1.61915
1.54664
1.47259
1.39973
1.33671
1.28601
1.24215
1.19926
1.15701
1.11975
1.09162
1.06325
1.03353
0.999839
0.991907
1.02503
1.15073
1.3502
1.55639
1.77449
1.90418
1.97291
2.09243
2.23711
2.34238
2.4935
2.70301
2.86798
2.92848
2.97745
3.06111
3.09922
3.10984
3.0962
3.06249
3.00062
2.93326
2.90682
2.87139
2.8232
2.76638
2.68669
2.58936
2.49985
2.46979
2.42789
2.37611
2.32407
2.2657
2.19651
2.12747
2.07674
2.05377
2.03239
1.998
1.9256
1.00062
1.01396
1.18904
1.91338
3.647
5.99632
8.21279
9.9628
10.9847
10.573
9.88406
9.60598
9.31577
8.82192
8.14702
7.4677
6.87907
6.38284
5.94347
5.52734
5.12379
4.74148
4.39208
4.08058
3.80748
3.56827
3.35301
3.14928
2.95467
2.78571
2.62978
2.46488
2.31381
2.17454
2.06179
1.99
1.92796
1.84006
1.72987
1.63194
1.55299
1.48465
1.41645
1.34843
1.2877
1.23769
1.19649
1.15619
1.11575
1.07946
1.05194
1.02891
1.00057
0.968337
0.94429
0.931377
0.930188
0.94775
1.04353
1.23838
1.40376
1.80504
2.374
2.75911
2.99717
3.26538
3.47688
3.57222
3.55209
3.52707
3.52765
3.50654
3.46199
3.37585
3.29124
3.19253
3.03019
2.88102
2.7925
2.71961
2.64676
2.5728
2.49918
2.44119
2.40218
2.36998
2.33835
2.30517
2.25896
2.20015
2.13949
2.0879
2.05229
2.03186
2.00837
1.93542
1.00062
1.01396
1.18904
1.91338
3.647
5.99631
8.21279
9.9628
10.9847
10.573
9.88407
9.60598
9.31578
8.82192
8.14702
7.4677
6.87907
6.38284
5.94347
5.52734
5.12379
4.74148
4.39208
4.08059
3.80749
3.56827
3.35301
3.14927
2.95466
2.78571
2.62978
2.46488
2.31381
2.17455
2.06179
1.98995
1.92791
1.84003
1.72986
1.63194
1.55299
1.48465
1.41645
1.34843
1.2877
1.23769
1.19649
1.15619
1.11575
1.07945
1.05196
1.02892
1.00052
0.968295
0.944291
0.931709
0.929428
0.95844
1.01753
1.1682
1.55003
1.97129
2.34305
2.73164
3.09183
3.331
3.42465
3.50475
3.56127
3.56409
3.52953
3.50535
3.46228
3.40241
3.29641
3.13301
2.99307
2.88252
2.79504
2.72346
2.65352
2.5798
2.50136
2.43806
2.39778
2.36912
2.34068
2.30511
2.25729
2.19965
2.14167
2.09111
2.05161
2.03095
2.0068
1.93303
1.03028
1.2571
2.03649
2.99159
3.45215
4.28607
5.77123
7.69241
9.36104
10.0221
9.97024
9.74767
9.27324
8.60591
7.98229
7.41561
6.87619
6.36814
5.89472
5.45559
5.05307
4.69014
4.36411
4.06912
3.80151
3.55892
3.33967
3.14071
2.94521
2.74988
2.61795
2.52046
2.39902
2.27333
2.14443
1.98943
1.87141
1.81944
1.7666
1.69485
1.61914
1.54664
1.47259
1.39973
1.33671
1.28601
1.24215
1.19925
1.15703
1.11971
1.09164
1.06364
1.03359
0.999918
0.991578
1.0267
1.14722
1.34112
1.57562
1.74296
1.93042
2.02983
2.05351
2.16981
2.38374
2.56446
2.64623
2.75408
2.92722
3.04882
3.068
3.09637
3.11467
3.10333
3.06287
2.97652
2.93283
2.92071
2.88646
2.83144
2.76298
2.68211
2.5859
2.51208
2.46509
2.4143
2.36541
2.31542
2.25741
2.19234
2.13455
2.08311
2.04126
2.01482
1.98711
1.92094
1.39798
2.33363
3.25006
3.54343
3.58203
3.6627
3.91465
4.6803
6.52757
8.92879
9.99683
9.75969
8.97436
8.23409
7.7473
7.2988
6.79704
6.26325
5.7561
5.31058
4.927
4.59132
4.28889
4.01099
3.75393
3.51543
3.29278
3.08565
2.90581
2.75028
2.58604
2.4191
2.28301
2.16815
2.05665
1.94719
1.85146
1.75597
1.67217
1.61024
1.55068
1.49006
1.42517
1.35668
1.29337
1.24313
1.21072
1.17838
1.14149
1.10492
1.08654
1.06948
1.06598
1.10707
1.24865
1.49462
1.77782
2.0271
2.11173
2.10465
2.10243
2.08461
2.05682
2.01822
1.97443
1.93645
1.92653
1.9595
2.05839
2.2069
2.34258
2.46004
2.588
2.70499
2.77085
2.81125
2.8525
2.87577
2.85503
2.8156
2.76398
2.70534
2.63424
2.53459
2.40754
2.35673
2.3332
2.2957
2.23556
2.173
2.12831
2.08362
2.03139
1.99601
1.97319
1.92321
2.53995
3.40887
3.71828
3.73522
3.70151
3.66961
3.67057
3.70795
3.99907
5.37849
7.73611
8.43764
8.33995
8.06223
7.6213
7.12377
6.57917
6.03435
5.54754
5.13769
4.78953
4.48197
4.20093
3.9382
3.68946
3.45523
3.2383
3.03956
2.85724
2.68115
2.51292
2.36704
2.24117
2.12919
2.023
1.92731
1.83924
1.73941
1.64846
1.59056
1.54618
1.49316
1.43375
1.3684
1.30329
1.24276
1.20962
1.1873
1.16187
1.13063
1.13933
1.21152
1.39541
1.68174
1.95687
2.19754
2.30531
2.33527
2.31121
2.26739
2.21455
2.15593
2.07043
1.98912
1.91543
1.85046
1.80251
1.7646
1.72779
1.70442
1.70339
1.72917
1.78935
1.89344
1.9906
2.09778
2.21025
2.3198
2.40802
2.47811
2.50843
2.49237
2.43927
2.37572
2.30044
2.26914
2.25787
2.25895
2.26059
2.23063
2.19753
2.15648
2.08599
2.01912
1.98931
1.94746
3.43977
3.64334
3.7762
3.79056
3.767
3.71944
3.67469
3.63962
3.54345
3.56959
4.22979
5.76002
7.29766
7.64931
7.38093
6.78394
6.20295
5.71859
5.31838
4.9724
4.65734
4.36178
4.08696
3.83506
3.60199
3.38303
3.17614
2.97828
2.78645
2.60185
2.4359
2.30587
2.21041
2.11919
2.01265
1.89814
1.80769
1.74468
1.67638
1.57803
1.53968
1.52347
1.48908
1.42565
1.34906
1.28885
1.24468
1.21932
1.24387
1.36076
1.62916
1.96241
2.27711
2.38643
2.45602
2.49531
2.47549
2.44555
2.39015
2.28254
2.19218
2.12508
2.06081
1.98935
1.9158
1.84738
1.78447
1.73033
1.69545
1.66077
1.63142
1.61098
1.58579
1.55776
1.52985
1.53156
1.55889
1.61254
1.70851
1.83077
1.97625
2.08523
2.11419
2.13953
2.16873
2.1703
2.17819
2.21466
2.23208
2.22542
2.20186
2.16456
2.11204
2.04736
2.0081
1.96638
3.75425
3.73334
3.71083
3.70425
3.69745
3.68978
3.66153
3.58154
3.41486
3.24009
3.02672
3.2185
4.25129
5.79342
6.42329
6.29738
5.91009
5.48599
5.09974
4.76238
4.46242
4.18375
3.92556
3.68815
3.46444
3.25308
3.0586
2.87839
2.70637
2.54882
2.40689
2.2704
2.1561
2.06556
1.98212
1.89985
1.82722
1.75064
1.66298
1.57522
1.53068
1.50808
1.47214
1.43532
1.39288
1.34388
1.36305
1.48451
1.76331
2.16756
2.60853
2.78137
2.74584
2.70783
2.67487
2.62592
2.55235
2.45402
2.3451
2.24664
2.1803
2.12779
2.08369
2.03068
1.95434
1.87153
1.7942
1.71969
1.68893
1.66689
1.63879
1.60057
1.56231
1.52443
1.48504
1.4401
1.39922
1.36231
1.35002
1.36229
1.39823
1.45961
1.507
1.5332
1.5749
1.64168
1.70504
1.779
1.88186
1.94373
1.97109
1.97164
1.95897
1.91292
1.86749
1.84853
3.75543
3.759
3.74778
3.72982
3.708
3.67986
3.61559
3.46286
3.25191
3.00151
2.7759
2.4983
2.53587
3.06211
4.2798
5.38224
5.49346
5.28234
4.89605
4.53654
4.23421
3.96912
3.73048
3.51305
3.30796
3.11446
2.94211
2.78918
2.64188
2.49874
2.36873
2.23962
2.11584
2.04337
1.98519
1.91079
1.83173
1.75413
1.6735
1.5986
1.54624
1.52844
1.50019
1.48935
1.55147
1.73476
2.07177
2.42651
2.73402
3.0306
3.09559
3.05621
2.90258
2.77885
2.69076
2.59805
2.50997
2.42604
2.33237
2.24424
2.17903
2.1246
2.07105
2.01442
1.94749
1.87424
1.80446
1.74602
1.70442
1.66652
1.62862
1.59469
1.55973
1.52162
1.47901
1.43149
1.39021
1.35168
1.32119
1.31081
1.29831
1.28453
1.27405
1.25109
1.20364
1.19445
1.21222
1.2589
1.33823
1.42946
1.50576
1.5749
1.625
1.65618
1.67512
1.71896
3.76693
3.75448
3.74125
3.71982
3.68769
3.62236
3.49305
3.24405
2.98907
2.76214
2.51936
2.25872
2.08458
2.00976
2.24341
3.09326
4.20424
4.65516
4.56804
4.29134
4.00234
3.75757
3.54609
3.35308
3.16403
2.9842
2.82809
2.69387
2.5678
2.44495
2.3398
2.23774
2.1206
2.03007
1.9815
1.91866
1.84473
1.77731
1.71708
1.65103
1.59671
1.60516
1.70722
2.00398
2.42469
2.86657
3.11636
3.28261
3.3391
3.32229
3.24156
3.05888
2.89509
2.80161
2.71212
2.61018
2.51839
2.43824
2.34862
2.25173
2.18234
2.13237
2.0819
2.02331
1.95712
1.88849
1.83012
1.77151
1.71478
1.66834
1.62995
1.59801
1.56318
1.52821
1.49164
1.44625
1.39293
1.34957
1.32201
1.30234
1.28045
1.25425
1.23387
1.20984
1.17204
1.12813
1.09043
1.07217
1.07038
1.07754
1.09139
1.11079
1.14022
1.17571
1.21259
1.30344
3.71403
3.71383
3.70913
3.69011
3.63562
3.50188
3.27518
2.97828
2.71845
2.47601
2.20694
2.04069
1.8674
1.71377
1.58889
1.68631
2.23735
3.25135
4.00242
3.9951
3.83849
3.60816
3.38369
3.18432
3.00931
2.86523
2.74748
2.63896
2.5332
2.43227
2.34351
2.26171
2.16628
2.06364
2.00393
1.9535
1.88527
1.83219
1.79017
1.79994
1.92125
2.2249
2.74089
3.20892
3.55896
3.66924
3.60578
3.48006
3.39599
3.28389
3.14804
2.99865
2.92163
2.89131
2.81564
2.67909
2.55414
2.45654
2.36606
2.28576
2.21963
2.15989
2.10657
2.04635
1.97048
1.90697
1.86136
1.80986
1.74651
1.68712
1.63519
1.59933
1.58063
1.55552
1.51799
1.46634
1.40913
1.35055
1.30187
1.27956
1.25993
1.23515
1.20966
1.18104
1.14845
1.11923
1.08859
1.05838
1.03244
1.01944
1.00915
0.998906
0.99007
0.981066
0.96866
0.976372
3.71254
3.73158
3.71943
3.68353
3.52961
3.2921
2.98996
2.65785
2.39896
2.17693
1.95075
1.76847
1.61856
1.4873
1.38768
1.27261
1.29779
1.64428
2.51257
3.34521
3.54873
3.46434
3.28737
3.10501
2.94763
2.8247
2.72729
2.63196
2.53609
2.44033
2.37369
2.32077
2.24735
2.13702
2.05448
2.02516
1.97994
2.00791
2.19955
2.61563
3.16319
3.58527
3.95909
4.0701
4.02532
3.88884
3.7058
3.52615
3.37753
3.24159
3.11662
3.05827
3.00112
2.90067
2.77319
2.6581
2.56191
2.48163
2.41574
2.37286
2.32274
2.24328
2.1466
2.05138
1.969
1.91475
1.87942
1.83891
1.78836
1.72757
1.66965
1.61939
1.57357
1.53733
1.50304
1.46315
1.41463
1.35287
1.30075
1.27764
1.25602
1.22894
1.20274
1.17505
1.14707
1.12395
1.09674
1.06059
1.02782
1.00873
0.994656
0.979657
0.963495
0.951247
0.941652
0.916037
3.7497
3.74355
3.70976
3.56351
3.28709
2.98773
2.62978
2.29077
2.07925
1.87286
1.65635
1.50448
1.39384
1.29245
1.19407
1.09966
1.06685
1.09918
1.33437
2.05669
2.8401
3.24327
3.21226
3.1117
2.97052
2.86032
2.77397
2.68816
2.59006
2.48751
2.45097
2.4329
2.38064
2.2788
2.21312
2.26274
2.49527
2.96248
3.57242
4.15763
4.38861
4.30215
4.24665
4.14944
3.98917
3.79943
3.66248
3.57829
3.49619
3.36982
3.22481
3.08588
2.96364
2.85216
2.73913
2.64457
2.5814
2.53333
2.49657
2.42122
2.3102
2.20319
2.11088
2.04585
2.01898
1.99533
1.95682
1.90434
1.81795
1.70941
1.63979
1.60973
1.57833
1.54602
1.51644
1.4827
1.43564
1.36639
1.303
1.28092
1.26317
1.23568
1.20905
1.18296
1.15665
1.13099
1.10203
1.06451
1.0285
1.00945
0.996033
0.978781
0.956701
0.934386
0.916874
0.896355
3.75029
3.71463
3.57538
3.28386
2.95797
2.60252
2.17959
1.93436
1.76571
1.55539
1.3854
1.27922
1.1841
1.10152
1.03003
0.987134
0.962245
0.943788
0.958751
1.13357
1.69643
2.61717
3.11795
3.09627
3.03267
2.98068
2.92023
2.84128
2.74796
2.63047
2.56851
2.56129
2.54597
2.61086
2.8497
3.43001
4.0831
4.60231
4.92101
4.89369
4.78409
4.57622
4.32837
4.11309
3.91918
3.76138
3.67801
3.59563
3.46353
3.31728
3.1979
3.08941
2.97238
2.85806
2.74855
2.6847
2.65792
2.6001
2.49578
2.39418
2.30145
2.20581
2.12459
2.07597
2.03344
1.98566
1.93317
1.87397
1.80905
1.72383
1.64682
1.61648
1.60846
1.59282
1.56439
1.52505
1.46959
1.39363
1.32005
1.28325
1.27035
1.25816
1.23792
1.21015
1.17617
1.14152
1.10613
1.07392
1.05236
1.03336
1.01432
0.992572
0.962532
0.924191
0.898895
0.886572
3.7215
3.59857
3.29172
2.89428
2.53652
2.09434
1.78711
1.63695
1.41992
1.22961
1.17908
1.11682
1.05222
1.01076
0.978048
0.970228
0.953904
0.937819
0.938907
0.951393
1.06305
1.51086
2.53951
3.01535
3.08841
3.09274
3.09095
3.0078
2.90882
2.82262
2.76515
2.83314
3.14545
3.78606
4.50911
5.18148
5.33379
5.27611
5.1419
4.95929
4.7139
4.50119
4.36654
4.24956
4.10402
3.94439
3.77582
3.59744
3.43521
3.29476
3.18411
3.112
3.04338
2.96038
2.88018
2.80302
2.68824
2.56659
2.45948
2.36877
2.295
2.23829
2.18959
2.1365
2.0813
2.01788
1.94577
1.87233
1.8022
1.74665
1.70817
1.66778
1.61422
1.56654
1.52535
1.48234
1.43377
1.38557
1.34832
1.31584
1.27648
1.23786
1.20853
1.17389
1.13917
1.12154
1.10482
1.08314
1.05526
1.02376
0.992239
0.9639
0.935428
0.907702
0.893875
0.880423
3.64502
3.32845
2.83985
2.41086
2.0027
1.62276
1.4267
1.26633
1.07693
1.00695
0.976354
0.927656
0.920936
0.928026
0.94205
0.955069
0.969123
0.974481
0.982497
0.993006
1.01297
1.0815
1.49277
2.41993
2.89462
3.1358
3.13973
3.14675
3.13738
3.22037
3.5208
4.16268
5.02979
5.6334
5.92803
5.89184
5.79814
5.5914
5.25246
4.8754
4.61849
4.45572
4.33531
4.20488
4.07083
3.92876
3.77777
3.60708
3.44657
3.31565
3.22778
3.15266
3.05555
2.94271
2.84097
2.75676
2.66427
2.55872
2.46248
2.3897
2.33329
2.26971
2.18702
2.10502
2.04802
1.99758
1.93887
1.87471
1.82117
1.7775
1.72612
1.66614
1.60897
1.56207
1.52104
1.47943
1.43586
1.40272
1.37765
1.34282
1.2896
1.2383
1.20336
1.17099
1.14376
1.13203
1.11769
1.09428
1.06477
1.03191
0.993374
0.957349
0.930748
0.909495
0.897356
0.882615
3.37196
2.74311
2.24065
1.81306
1.40815
1.2429
1.15613
1.04203
0.991344
0.966801
0.923432
0.902443
0.907892
0.927419
0.960696
0.986693
1.00216
1.02249
1.02813
1.03034
1.02752
1.03037
1.0707
1.40664
2.0367
2.70616
3.03065
3.4433
3.96659
4.63104
5.30473
5.7616
6.09647
6.25144
6.15371
5.91279
5.65098
5.37858
5.11891
4.89022
4.70784
4.56347
4.4196
4.26534
4.11205
3.9658
3.82177
3.66976
3.53443
3.43115
3.34446
3.24908
3.13548
3.00703
2.86827
2.74489
2.66068
2.59122
2.52926
2.47775
2.42127
2.34586
2.24502
2.13384
2.0534
2.00762
1.96522
1.92533
1.88807
1.84347
1.77939
1.69563
1.62223
1.57402
1.53802
1.50784
1.48416
1.46272
1.43395
1.38702
1.3171
1.25246
1.21344
1.19185
1.18195
1.17048
1.15155
1.12639
1.09786
1.05991
1.00462
0.957885
0.939632
0.926804
0.917906
0.903872
2.65811
1.73148
1.16918
0.779634
0.654649
0.685562
0.721537
0.726995
0.770397
0.852896
0.906607
0.932667
0.964501
1.01436
1.03607