/*--------------------------------*- C++ -*----------------------------------*\
  =========                 |
  \\      /  F ield         | OpenFOAM: The Open Source CFD Toolbox
   \\    /   O peration     | Website:  https://openfoam.org
    \\  /    A nd           | Version:  7
     \\/     M anipulation  |
\*---------------------------------------------------------------------------*/
FoamFile
{
    version     2.0;
    format      ascii;
    class       volScalarField;
    location    "0.9";
    object      rho;
}
// * * * * * * * * * * * * * * * * * * * * * * * * * * * * * * * * * * * * * //

dimensions      [1 -3 0 0 0 0 0];

internalField   nonuniform List<scalar> 
4608
(
1.40001
1.40001
1.40001
1.40001
1.40001
1.40001
1.40001
1.40001
1.40001
1.40001
1.40001
1.40001
1.40001
1.40001
1.40001
1.40001
1.40001
1.40001
1.40001
1.40001
1.40001
1.40001
1.40001
1.40001
1.40001
1.40001
1.40001
1.40001
1.40001
1.40001
1.40001
1.40001
1.40001
1.40001
1.40001
1.40001
1.40001
1.40001
1.40001
1.40001
1.40001
1.40001
1.40001
1.40001
1.40001
1.40001
1.40001
1.40001
1.40001
1.40001
1.40001
1.40001
1.40001
1.40001
1.40001
1.40001
1.40001
1.40001
1.40001
1.40001
1.40001
1.40001
1.40001
1.40001
1.40001
1.40001
1.40001
1.40001
1.40001
1.40001
1.40001
1.40001
1.40001
1.40001
1.40001
1.40001
1.40001
1.40001
1.40001
1.40001
1.40001
1.40001
1.40001
1.40001
1.40001
1.40001
1.40001
1.40001
1.40001
1.40001
1.40001
1.40001
1.40001
1.40001
1.40001
1.40001
1.40001
1.40001
1.40001
1.40001
1.40001
1.40001
1.40001
1.40001
1.40001
1.40001
1.40001
1.40001
1.40001
1.40001
1.40001
1.40001
1.40001
1.40001
1.40001
1.40001
1.40001
1.40001
1.40001
1.40001
1.40001
1.40001
1.40001
1.40001
1.40001
1.40001
1.40001
1.40001
1.40001
1.40001
1.40001
1.40001
1.40001
1.40001
1.40001
1.40001
1.40001
1.40001
1.40001
1.40001
1.40001
1.40001
1.40001
1.40001
1.40001
1.40001
1.40001
1.40001
1.40001
1.40001
1.40001
1.40001
1.40001
1.40001
1.40001
1.40001
1.40001
1.40001
1.40001
1.40001
1.40001
1.40001
1.40001
1.40001
1.40001
1.40001
1.40001
1.40001
1.40001
1.40001
1.40001
1.40001
1.40001
1.40001
1.40001
1.40001
1.40001
1.40001
1.40001
1.40001
1.40001
1.40001
1.40001
1.40001
1.40001
1.40001
1.40001
1.40001
1.40001
1.40001
1.40001
1.40001
1.40001
1.40001
1.40001
1.40001
1.40001
1.40001
1.40001
1.40001
1.40001
1.40001
1.40001
1.40001
1.40001
1.40001
1.40001
1.40001
1.40001
1.40001
1.40001
1.40001
1.40001
1.40001
1.40001
1.40001
1.40001
1.40001
1.40001
1.40001
1.40001
1.40001
1.40001
1.40001
1.40001
1.40001
1.40001
1.40001
1.40001
1.40001
1.40001
1.40001
1.40001
1.40001
1.40001
1.40001
1.40001
1.40001
1.40001
1.40001
1.40001
1.40001
1.40001
1.40001
1.40001
1.40001
1.40001
1.40001
1.40001
1.40001
1.40001
1.40001
1.40001
1.40001
1.40001
1.40001
1.40001
1.40001
1.40001
1.40001
1.40001
1.40001
1.40001
1.40001
1.40001
1.40001
1.40001
1.40001
1.40001
1.40001
1.40001
1.40001
1.40001
1.40001
1.40001
1.40001
1.40001
1.40001
1.40001
1.40001
1.40001
1.40001
1.40001
1.40001
1.40001
1.40001
1.40001
1.40001
1.40001
1.40001
1.40001
1.40001
1.40001
1.40001
1.40001
1.40001
1.40001
1.40001
1.40001
1.40001
1.40001
1.40001
1.40001
1.40001
1.40001
1.40001
1.40001
1.40001
1.40001
1.40001
1.40001
1.40001
1.40001
1.40001
1.40001
1.40001
1.40001
1.40001
1.40001
1.40001
1.40001
1.40001
1.40001
1.40001
1.40001
1.40001
1.40001
1.40001
1.40001
1.40001
1.40001
1.40001
1.40001
1.40001
1.40001
1.40001
1.40001
1.40001
1.40001
1.40001
1.40001
1.40001
1.40001
1.40001
1.40001
1.40001
1.40001
1.40001
1.40001
1.40001
1.40001
1.40001
1.40001
1.40001
1.40001
1.40001
1.40001
1.40001
1.40001
1.40001
1.40001
1.40001
1.40001
1.40001
1.40001
1.40001
1.40001
1.40001
1.40001
1.40001
1.40001
1.40001
1.40001
1.40001
1.40001
1.40001
1.40001
1.40001
1.40001
1.40001
1.40001
1.40001
1.40001
1.40001
1.40001
1.40001
1.40001
1.40001
1.40001
1.40001
1.40001
1.40001
1.40001
1.40001
1.40001
1.40001
1.40001
1.40001
1.40001
1.40001
1.40001
1.40001
1.40001
1.40001
1.40001
1.40001
1.40001
1.40001
1.40001
1.40001
1.40001
1.40001
1.40001
1.40001
1.40001
1.40001
1.40001
1.40001
1.40001
1.40001
1.40001
1.40001
1.40001
1.40001
1.40001
1.40001
1.40001
1.40001
1.40001
1.40001
1.40001
1.40001
1.40001
1.40001
1.40001
1.40001
1.40001
1.40001
1.40001
1.40001
1.40001
1.40001
1.40001
1.40001
1.40001
1.40001
1.40001
1.40001
1.40001
1.40001
1.40001
1.40001
1.40001
1.40001
1.40001
1.40001
1.40001
1.40001
1.40001
1.40001
1.40001
1.40001
1.40001
1.40001
1.40001
1.40001
1.40001
1.40001
1.40001
1.40001
1.40001
1.40001
1.40001
1.40001
1.40001
1.40001
1.40001
1.40001
1.40001
1.40001
1.40001
1.40001
1.40001
1.40001
1.40001
1.40001
1.40001
1.40001
1.40001
1.40001
1.40001
1.40001
1.40001
1.40001
1.40001
1.40001
1.40001
1.40001
1.40001
1.40001
1.40001
1.40001
1.40001
1.40001
1.40001
1.40001
1.40001
1.40001
1.40001
1.40001
1.40001
1.40001
1.40001
1.40001
1.40001
1.40001
1.40001
1.40001
1.40001
1.40001
1.40001
1.40001
1.40001
1.40001
1.40001
1.40001
1.40001
1.40001
1.40001
1.40001
1.40001
1.40001
1.40001
1.40001
1.40001
1.40001
1.40001
1.40001
1.40001
1.40001
1.40001
1.40001
1.40001
1.40001
1.40001
1.40001
1.40001
1.40001
1.40001
1.40001
1.40001
1.40001
1.40001
1.40001
1.40001
1.40001
1.40001
1.40001
1.40001
1.40001
1.40001
1.40001
1.40001
1.40001
1.40001
1.40001
1.40001
1.40001
1.40001
1.40001
1.40001
1.40001
1.40001
1.40001
1.40001
1.40001
1.40001
1.40001
1.40001
1.40001
1.40001
1.40001
1.40001
1.40001
1.40001
1.40001
1.40001
1.40001
1.40001
1.40001
1.40001
1.40001
1.40001
1.40001
1.40001
1.40001
1.40001
1.40001
1.40001
1.40001
1.40001
1.40001
1.40001
1.40001
1.40001
1.40001
1.40001
1.40001
1.40001
1.40001
1.40001
1.40001
1.40001
1.40001
1.40001
1.40001
1.40001
1.40001
1.40001
1.40001
1.40001
1.40001
1.40001
1.40001
1.40001
1.40001
1.40001
1.40001
1.40001
1.40001
1.40001
1.40001
1.40001
1.40001
1.40001
1.40001
1.40001
1.40001
1.40001
1.40001
1.40001
1.40001
1.40001
1.40001
1.40001
1.40001
1.40001
1.40001
1.40001
1.40001
1.40001
1.40001
1.40001
1.40001
1.40001
1.40001
1.40001
1.40001
1.40001
1.40001
1.40001
1.40001
1.40001
1.40001
1.40001
1.40001
1.40001
1.40001
1.40001
1.40001
1.40001
1.40001
1.40001
1.40001
1.40001
1.40001
1.40001
1.40001
1.40001
1.40001
1.40001
1.40001
1.40001
1.40001
1.40001
1.40001
1.40001
1.40001
1.40001
1.40001
1.40001
1.40001
1.40001
1.40001
1.40001
1.40001
1.40001
1.40001
1.40001
1.40001
1.40001
1.40001
1.40001
1.40001
1.40001
1.40001
1.40001
1.40001
1.40001
1.40001
1.40001
1.40001
1.40001
1.40001
1.40001
1.40001
1.40001
1.40001
1.40001
1.40001
1.40001
1.40001
1.40001
1.40001
1.40001
1.40001
1.40001
1.40001
1.40001
1.40001
1.40001
1.40001
1.40001
1.40001
1.40001
1.40001
1.40001
1.40001
1.40001
1.40001
1.40001
1.40001
1.40001
1.40001
1.40001
1.40001
1.40001
1.40001
1.40001
1.40001
1.40001
1.40001
1.40001
1.40001
1.40001
1.40001
1.40001
1.40001
1.40001
1.40001
1.40001
1.40001
1.40001
1.40001
1.40001
1.40001
1.40001
1.40001
1.67621
2.09304
2.53429
2.98618
3.43329
3.81347
4.14145
4.41318
4.4204
4.29897
4.04222
3.71985
3.45925
3.3757
3.30471
3.30511
3.32736
3.35487
3.38726
3.4112
3.4157
3.41585
3.41704
3.42819
1.40267
1.41567
1.47789
1.58951
1.80102
2.10831
2.51673
2.97245
3.35884
3.54476
3.66541
3.61316
3.53777
3.49244
3.42598
3.38849
3.37346
3.3609
3.36795
3.3891
3.40057
3.4044
3.40854
3.41874
1.40001
1.39995
1.40022
1.40025
1.40323
1.42207
1.49516
1.71346
2.17939
2.89863
3.43498
3.71945
3.75661
3.71354
3.61607
3.47325
3.35999
3.32472
3.32995
3.34839
3.36762
3.3776
3.38457
3.39291
1.40001
1.4
1.4
1.4
1.39999
1.40004
1.39991
1.40181
1.42761
1.64147
2.16676
2.98379
3.41691
3.55351
3.54414
3.52008
3.432
3.34539
3.33359
3.32574
3.32641
3.33586
3.35456
3.36904
1.40001
1.40001
1.4
1.4
1.4
1.4
1.39999
1.39999
1.39992
1.40128
1.43712
1.67504
2.32679
2.97481
3.45457
3.55117
3.52342
3.44725
3.37944
3.32798
3.30171
3.30464
3.32052
3.34335
1.40001
1.40001
1.40001
1.40001
1.40001
1.4
1.4
1.4
1.4
1.4
1.39994
1.40223
1.47377
1.78483
2.51158
3.10606
3.44447
3.44583
3.42104
3.37556
3.32579
3.29793
3.29598
3.30384
1.40001
1.40001
1.40001
1.40001
1.40001
1.40001
1.40001
1.40001
1.40001
1.4
1.4
1.39999
1.4001
1.40752
1.53694
2.01566
2.83395
3.20696
3.33988
3.37354
3.36179
3.31052
3.27842
3.27653
1.40001
1.40001
1.40001
1.40001
1.40001
1.40001
1.40001
1.40001
1.40001
1.40001
1.40001
1.4
1.4
1.39998
1.40117
1.43188
1.69573
2.34804
3.05177
3.3585
3.35909
3.33851
3.3057
3.29639
1.40001
1.40001
1.40001
1.40001
1.40001
1.40001
1.40001
1.40001
1.40001
1.40001
1.40001
1.40001
1.4
1.4
1.4
1.40001
1.40701
1.52132
1.9876
2.71523
3.22761
3.36558
3.35825
3.33723
1.40001
1.40001
1.40001
1.40001
1.40001
1.40001
1.40001
1.40001
1.40001
1.40001
1.40001
1.40001
1.40001
1.4
1.4
1.4
1.39999
1.40131
1.43637
1.74306
2.46306
3.08284
3.22264
3.29026
1.40001
1.40001
1.40001
1.40001
1.40001
1.40001
1.40001
1.40001
1.40001
1.40001
1.40001
1.40001
1.40001
1.40001
1.40001
1.4
1.4
1.4
1.40015
1.41581
1.57187
2.19098
2.89911
3.30647
1.40001
1.40001
1.40001
1.40001
1.40001
1.40001
1.40001
1.40001
1.40001
1.40001
1.40001
1.40001
1.40001
1.40001
1.40001
1.40001
1.4
1.4
1.4
1.40004
1.40421
1.51053
1.98191
2.80873
1.40001
1.40001
1.40001
1.40001
1.40001
1.40001
1.40001
1.40001
1.40001
1.40001
1.40001
1.40001
1.40001
1.40001
1.40001
1.40001
1.40001
1.40001
1.4
1.4
1.40001
1.40255
1.46104
1.82623
1.40001
1.40001
1.40001
1.40001
1.40001
1.40001
1.40001
1.40001
1.40001
1.40001
1.40001
1.40001
1.40001
1.40001
1.40001
1.40001
1.40001
1.40001
1.4
1.4
1.4
1.4
1.40115
1.4234
1.40001
1.40001
1.40001
1.40001
1.40001
1.40001
1.40001
1.40001
1.40001
1.40001
1.40001
1.40001
1.40001
1.40001
1.40001
1.40001
1.40001
1.40001
1.40001
1.40001
1.4
1.4
1.40001
1.4
1.40001
1.40001
1.40001
1.40001
1.40001
1.40001
1.40001
1.40001
1.40001
1.40001
1.40001
1.40001
1.40001
1.40001
1.40001
1.40001
1.40001
1.40001
1.40001
1.40001
1.40001
1.4
1.4
1.4
1.40001
1.40001
1.40001
1.40001
1.40001
1.40001
1.40001
1.40001
1.40001
1.40001
1.40001
1.40001
1.40001
1.40001
1.40001
1.40001
1.40001
1.40001
1.40001
1.40001
1.40001
1.4
1.4
1.4
1.40001
1.40001
1.40001
1.40001
1.40001
1.40001
1.40001
1.40001
1.40001
1.40001
1.40001
1.40001
1.40001
1.40001
1.40001
1.40001
1.40001
1.40001
1.40001
1.40001
1.4
1.4
1.40001
1.4
1.40001
1.40001
1.40001
1.40001
1.40001
1.40001
1.40001
1.40001
1.40001
1.40001
1.40001
1.40001
1.40001
1.40001
1.40001
1.40001
1.40001
1.40001
1.4
1.4
1.4
1.4
1.40115
1.4234
1.40001
1.40001
1.40001
1.40001
1.40001
1.40001
1.40001
1.40001
1.40001
1.40001
1.40001
1.40001
1.40001
1.40001
1.40001
1.40001
1.40001
1.40001
1.4
1.4
1.40001
1.40255
1.46104
1.82623
1.40001
1.40001
1.40001
1.40001
1.40001
1.40001
1.40001
1.40001
1.40001
1.40001
1.40001
1.40001
1.40001
1.40001
1.40001
1.40001
1.4
1.4
1.4
1.40004
1.40421
1.51053
1.98191
2.80873
1.40001
1.40001
1.40001
1.40001
1.40001
1.40001
1.40001
1.40001
1.40001
1.40001
1.40001
1.40001
1.40001
1.40001
1.40001
1.4
1.4
1.4
1.40015
1.41581
1.57187
2.19098
2.89911
3.30647
1.40001
1.40001
1.40001
1.40001
1.40001
1.40001
1.40001
1.40001
1.40001
1.40001
1.40001
1.40001
1.40001
1.4
1.4
1.4
1.39999
1.40131
1.43637
1.74306
2.46306
3.08284
3.22264
3.29026
1.40001
1.40001
1.40001
1.40001
1.40001
1.40001
1.40001
1.40001
1.40001
1.40001
1.40001
1.40001
1.4
1.4
1.4
1.40001
1.40701
1.52132
1.9876
2.71523
3.22761
3.36558
3.35825
3.33723
1.40001
1.40001
1.40001
1.40001
1.40001
1.40001
1.40001
1.40001
1.40001
1.40001
1.40001
1.4
1.4
1.39998
1.40117
1.43188
1.69573
2.34804
3.05177
3.3585
3.35909
3.33851
3.3057
3.29639
1.40001
1.40001
1.40001
1.40001
1.40001
1.40001
1.40001
1.40001
1.40001
1.4
1.4
1.39999
1.4001
1.40752
1.53694
2.01566
2.83395
3.20696
3.33988
3.37354
3.36179
3.31052
3.27842
3.27653
1.40001
1.40001
1.40001
1.40001
1.40001
1.4
1.4
1.4
1.4
1.4
1.39994
1.40223
1.47377
1.78483
2.51158
3.10606
3.44447
3.44583
3.42104
3.37556
3.32579
3.29793
3.29598
3.30384
1.40001
1.40001
1.4
1.4
1.4
1.4
1.39999
1.39999
1.39992
1.40128
1.43712
1.67504
2.32679
2.97481
3.45457
3.55117
3.52342
3.44725
3.37944
3.32798
3.30171
3.30464
3.32052
3.34335
1.40001
1.4
1.4
1.4
1.39999
1.40004
1.39991
1.40181
1.42761
1.64147
2.16676
2.98379
3.41691
3.55351
3.54414
3.52008
3.432
3.34539
3.33359
3.32574
3.32641
3.33586
3.35456
3.36904
1.40001
1.39995
1.40022
1.40025
1.40323
1.42207
1.49516
1.71346
2.17939
2.89863
3.43498
3.71945
3.75661
3.71354
3.61607
3.47325
3.35999
3.32472
3.32995
3.34839
3.36762
3.3776
3.38457
3.39291
1.40267
1.41567
1.47789
1.58951
1.80102
2.10831
2.51673
2.97245
3.35884
3.54476
3.66541
3.61316
3.53777
3.49244
3.42598
3.38849
3.37346
3.3609
3.36795
3.3891
3.40057
3.4044
3.40854
3.41874
1.67621
2.09304
2.53429
2.98618
3.43329
3.81347
4.14145
4.41318
4.4204
4.29897
4.04222
3.71985
3.45925
3.3757
3.30471
3.30511
3.32736
3.35487
3.38726
3.4112
3.4157
3.41585
3.41704
3.42819
2.6627
1.95876
1.46447
1.08937
0.949868
0.973371
0.996801
0.999039
1.04029
1.12182
1.17958
1.20922
1.24139
1.28584
1.30645
1.30883
1.31881
1.34986
1.35497
1.35225
1.34096
1.3305
1.33159
1.35284
1.496
1.90995
2.79051
3.6784
4.40212
5.06533
5.36647
5.28494
5.11456
4.83231
4.52442
4.31877
4.16242
4.02815
3.89584
3.79034
3.70452
3.62936
3.54662
3.454
3.3577
3.26018
3.16605
3.07865
3.00162
2.93967
2.88718
2.8329
2.76774
2.68642
2.58826
2.49461
2.43232
2.39023
2.35649
2.32387
2.28663
2.23875
2.17288
2.09087
2.02538
1.98828
1.96218
1.93896
1.91496
1.88531
1.83924
1.76725
1.7003
1.66284
1.64086
1.62524
1.612
1.59677
1.57386
1.53282
1.46747
1.40619
1.38028
1.3722
1.36652
1.35906
1.34705
1.33013
1.30628
1.26443
1.20271
1.17104
1.16122
1.15036
1.1422
1.13178
3.1561
2.72113
2.35246
2.02278
1.69856
1.55036
1.46306
1.35311
1.29849
1.27257
1.23242
1.20587
1.20941
1.22557
1.25638
1.28195
1.29711
1.31737
1.32226
1.32244
1.31952
1.32101
1.35548
1.62153
2.08179
2.53799
2.75036
3.00307
3.31195
3.69912
4.08273
4.33464
4.51061
4.57983
4.5248
4.3932
4.24871
4.09965
3.95899
3.83455
3.73389
3.65308
3.57141
3.48273
3.39314
3.30616
3.2194
3.12651
3.04287
2.97889
2.92517
2.86541
2.79308
2.71076
2.62107
2.53963
2.48262
2.43489
2.3917
2.35534
2.31595
2.26405
2.19461
2.11729
2.06052
2.02787
1.99755
1.96896
1.94184
1.90877
1.86045
1.79654
1.74003
1.7027
1.67504
1.65227
1.63468
1.61849
1.59597
1.55827
1.50128
1.4479
1.4154
1.39748
1.38953
1.38041
1.36528
1.34526
1.32248
1.29109
1.24326
1.20125
1.1838
1.17125
1.1626
1.15088
3.33057
3.12416
2.7898
2.48261
2.17843
1.8737
1.70681
1.56748
1.39344
1.32764
1.29948
1.25121
1.24159
1.24739
1.26069
1.27354
1.28757
1.29198
1.29839
1.30699
1.32408
1.38347
1.71144
2.36742
2.68572
2.8372
2.83149
2.83597
2.82705
2.87644
3.05516
3.4274
3.91156
4.24324
4.39686
4.37467
4.32207
4.21063
4.02897
3.82271
3.68054
3.5894
3.52048
3.44489
3.36639
3.28205
3.1911
3.0863
2.98662
2.90471
2.84957
2.80218
2.73987
2.66689
2.60074
2.54554
2.48409
2.41228
2.34533
2.29414
2.25457
2.21033
2.15274
2.09551
2.05556
2.0198
1.97769
1.93111
1.89179
1.85913
1.81988
1.77363
1.72958
1.69332
1.6617
1.62978
1.59622
1.57055
1.55067
1.52236
1.47863
1.43619
1.40702
1.37987
1.35733
1.3481
1.33674
1.31789
1.29386
1.26657
1.23337
1.20124
1.17681
1.15678
1.14504
1.13233
3.35735
3.28613
3.08979
2.82153
2.57016
2.24296
2.00272
1.88252
1.70159
1.53497
1.49144
1.43577
1.37588
1.33626
1.30467
1.29656
1.2808
1.26361
1.26396
1.27478
1.37254
1.72911
2.4542
2.76294
2.81114
2.80551
2.80145
2.74433
2.67579
2.61631
2.57667
2.61874
2.80841
3.19121
3.60736
3.96824
4.05964
4.0311
3.96171
3.86438
3.72916
3.6099
3.53376
3.46578
3.38052
3.28616
3.185
3.07632
2.97627
2.88821
2.81801
2.77233
2.72905
2.67605
2.62409
2.57366
2.49763
2.4152
2.34131
2.27803
2.22636
2.18692
2.15336
2.1167
2.07808
2.03308
1.98138
1.92803
1.87657
1.83509
1.80545
1.77409
1.73259
1.69554
1.66384
1.63102
1.59381
1.55632
1.52637
1.49954
1.46697
1.43502
1.41067
1.38182
1.35325
1.33925
1.32584
1.30822
1.28532
1.2592
1.2326
1.20805
1.18279
1.1571
1.14352
1.13154
3.34964
3.33605
3.2558
3.07087
2.85381
2.60638
2.29699
2.11223
1.98205
1.80902
1.66458
1.57539
1.49359
1.4197
1.35332
1.31224
1.28781
1.26845
1.28125
1.43023
1.86596
2.49829
2.82092
2.80343
2.75788
2.72142
2.67946
2.62546
2.56177
2.48222
2.44112
2.43724
2.42763
2.46931
2.61738
2.96349
3.34511
3.64037
3.82195
3.81113
3.75628
3.64276
3.50279
3.37812
3.2641
3.17003
3.11959
3.07025
2.98985
2.89936
2.82429
2.75525
2.68061
2.60683
2.53502
2.49253
2.47422
2.43512
2.36452
2.2944
2.22967
2.1629
2.1064
2.0727
2.04284
2.00868
1.97098
1.92811
1.88053
1.81708
1.75855
1.73408
1.72669
1.71386
1.69224
1.66314
1.62157
1.56235
1.50287
1.47217
1.4609
1.45039
1.43373
1.41137
1.38415
1.35616
1.32693
1.29993
1.28229
1.2672
1.25216
1.2344
1.20847
1.1736
1.14903
1.13803
3.32716
3.32877
3.31465
3.22924
3.05449
2.85744
2.61197
2.36962
2.21361
2.05644
1.8847
1.76245
1.67078
1.58436
1.49829
1.4132
1.38136
1.40845
1.59729
2.12624
2.64516
2.89003
2.86779
2.80107
2.70748
2.63428
2.57677
2.51933
2.45355
2.38473
2.36044
2.34886
2.31411
2.24454
2.19935
2.23187
2.38132
2.67541
3.0463
3.38532
3.52368
3.47777
3.44932
3.39486
3.30106
3.18815
3.10534
3.05443
3.00469
2.92808
2.83895
2.75103
2.67164
2.59854
2.52432
2.4623
2.42069
2.38864
2.36344
2.31154
2.23447
2.15975
2.0952
2.04935
2.03061
2.01427
1.98691
1.94904
1.88587
1.80491
1.75212
1.72872
1.704
1.67858
1.6558
1.63036
1.59455
1.53996
1.48859
1.47024
1.45536
1.43253
1.41066
1.38944
1.36821
1.3476
1.32385
1.29228
1.26206
1.24702
1.23667
1.22257
1.20377
1.18388
1.16715
1.14751
3.28915
3.30602
3.30045
3.28134
3.18805
3.0386
2.8424
2.61823
2.43705
2.27799
2.10843
1.96865
1.85005
1.74406
1.66089
1.55905
1.57443
1.82544
2.41695
2.94821
3.07021
3.01727
2.90503
2.78849
2.68744
2.60777
2.5443
2.48151
2.4185
2.35494
2.30988
2.27416
2.22441
2.14786
2.09025
2.0705
2.03856
2.05731
2.18662
2.45533
2.79927
3.05727
3.27864
3.34555
3.31931
3.23859
3.12944
3.0207
2.93071
2.84765
2.76989
2.73211
2.69449
2.62909
2.54601
2.47046
2.40676
2.35292
2.30778
2.2774
2.24184
2.18701
2.12037
2.05346
1.99468
1.95594
1.93046
1.90069
1.86314
1.8177
1.77451
1.73703
1.70222
1.6739
1.64678
1.61552
1.57785
1.52928
1.48762
1.46898
1.45145
1.42927
1.40761
1.38465
1.36158
1.34271
1.32051
1.29053
1.26321
1.24777
1.2364
1.22394
1.21037
1.1998
1.191
1.16656
3.28757
3.28765
3.28525
3.27435
3.24153
3.15889
3.01599
2.82276
2.64853
2.4823
2.29171
2.17036
2.0386
1.91897
1.81693
1.88417
2.25713
2.89548
3.33835
3.33501
3.2431
3.104
2.96467
2.83861
2.72714
2.63512
2.55975
2.48992
2.42036
2.35318
2.29403
2.23838
2.17229
2.10072
2.05925
2.02392
1.97493
1.93634
1.90694
1.91281
1.99523
2.19927
2.53778
2.83577
3.04542
3.1093
3.07076
2.99553
2.94585
2.87786
2.79289
2.69621
2.64461
2.62409
2.57443
2.48548
2.40328
2.33728
2.27451
2.21818
2.17188
2.13046
2.09395
2.05236
1.99811
1.95129
1.91748
1.8792
1.83205
1.78812
1.74971
1.72354
1.70939
1.68937
1.65953
1.61883
1.57426
1.52886
1.49082
1.47305
1.45701
1.43643
1.41507
1.39132
1.36477
1.34105
1.3159
1.29034
1.26836
1.25783
1.24966
1.24169
1.23481
1.22731
1.21628
1.21964
3.3244
3.31436
3.30479
3.29092
3.27127
3.23061
3.14889
2.98861
2.82188
2.67179
2.50633
2.32031
2.19556
2.13416
2.28597
2.81201
3.46029
3.71516
3.66709
3.51039
3.34332
3.19823
3.0699
2.9509
2.8331
2.71993
2.62066
2.53431
2.45179
2.3693
2.29774
2.22838
2.146
2.08145
2.0484
2.0046
1.95113
1.9014
1.85674
1.80712
1.76557
1.77098
1.84398
2.05237
2.33548
2.62092
2.7785
2.87988
2.91653
2.90712
2.8568
2.73965
2.63185
2.56881
2.50949
2.44283
2.38205
2.32767
2.26572
2.19844
2.15042
2.11592
2.08079
2.03924
1.99099
1.93981
1.89616
1.85271
1.81121
1.77782
1.75003
1.72565
1.69751
1.66985
1.64167
1.60645
1.56454
1.53126
1.50999
1.49381
1.47552
1.4538
1.43725
1.41807
1.38775
1.35183
1.31971
1.30413
1.30345
1.3097
1.32094
1.33636
1.36112
1.39213
1.42327
1.4893
3.32485
3.32608
3.31729
3.30383
3.2889
3.26929
3.22656
3.12746
2.99085
2.8273
2.67684
2.48378
2.50433
2.81786
3.52298
4.11675
4.18562
4.07276
3.86156
3.66126
3.48914
3.33465
3.19271
3.06142
2.93592
2.81572
2.70692
2.60859
2.51184
2.41574
2.32692
2.23733
2.15014
2.09942
2.05896
2.00516
1.94678
1.88934
1.8285
1.77063
1.72965
1.71518
1.69242
1.68239
1.72854
1.85858
2.09342
2.33652
2.54125
2.72708
2.7683
2.74336
2.64506
2.56238
2.50151
2.43835
2.37926
2.32347
2.2587
2.1972
2.15264
2.1152
2.07746
2.0365
1.98701
1.93304
1.88194
1.83841
1.80751
1.77996
1.75221
1.72629
1.69803
1.6679
1.63594
1.60034
1.56799
1.53622
1.5111
1.50229
1.49158
1.4808
1.47374
1.45668
1.41737
1.4077
1.42103
1.46025
1.52647
1.60012
1.65817
1.70989
1.75017
1.77802
1.79485
1.82418
3.33409
3.31933
3.30364
3.29693
3.28885
3.28015
3.26026
3.20828
3.10044
2.98641
2.84124
2.95061
3.53128
4.35351
4.68712
4.62644
4.42715
4.20233
3.99305
3.80698
3.63835
3.47822
3.3267
3.18485
3.04895
2.9183
2.79577
2.67976
2.56628
2.45996
2.36242
2.26711
2.18698
2.12343
2.06353
2.00344
1.94897
1.89076
1.82348
1.7548
1.71903
1.70039
1.671
1.64139
1.60792
1.56731
1.58041
1.66972
1.87516
2.15794
2.45246
2.56998
2.55162
2.52469
2.49697
2.46108
2.41199
2.34604
2.27151
2.20409
2.15713
2.11796
2.08511
2.04948
1.99682
1.93636
1.87995
1.8251
1.7973
1.77952
1.75937
1.73189
1.70304
1.67397
1.64462
1.61072
1.57885
1.54887
1.53647
1.54549
1.57093
1.61771
1.66116
1.68215
1.7102
1.76098
1.8071
1.86308
1.94247
1.99406
2.01559
2.01795
2.01114
1.97783
1.94637
1.93226
3.15896
3.282
3.3594
3.35952
3.34156
3.30704
3.27558
3.2518
3.18748
3.19941
3.56281
4.38578
5.1452
5.33292
5.20605
4.90864
4.60977
4.35373
4.13798
3.94823
3.77205
3.60308
3.44246
3.29235
3.15094
3.01555
2.88491
2.75725
2.63084
2.50644
2.39195
2.3005
2.23309
2.1685
2.09148
2.0066
1.93803
1.88956
1.83642
1.75905
1.72753
1.71356
1.68529
1.63423
1.57239
1.52312
1.486
1.46359
1.48283
1.57375
1.7734
2.00999
2.23789
2.3156
2.35683
2.37847
2.3626
2.33809
2.30423
2.23571
2.17308
2.12398
2.07712
2.02552
1.96906
1.91839
1.87389
1.8334
1.80749
1.77823
1.75807
1.74324
1.72454
1.70235
1.67877
1.68029
1.70058
1.74281
1.81489
1.90847
2.00719
2.0816
2.1084
2.13294
2.15585
2.15732
2.16221
2.18395
2.19844
2.19612
2.18156
2.15995
2.1264
2.07932
2.04976
2.02032
2.57929
3.15562
3.33577
3.33299
3.30789
3.28319
3.28249
3.30241
3.47124
4.22943
5.41625
5.76568
5.71777
5.58359
5.36977
5.12219
4.84229
4.5545
4.29139
4.06543
3.86965
3.69309
3.52839
3.37136
3.21974
3.07401
2.93609
2.80707
2.68676
2.56865
2.45307
2.35074
2.26134
2.18081
2.10339
2.03232
1.96572
1.8885
1.81682
1.77051
1.73457
1.69148
1.64296
1.5893
1.5353
1.48457
1.45645
1.43738
1.4153
1.38848
1.394
1.44976
1.59022
1.81269
2.00917
2.18812
2.25194
2.26976
2.25122
2.22416
2.1899
2.15114
2.09335
2.0346
1.97476
1.92055
1.8871
1.86387
1.83905
1.8125
1.80948
1.8337
1.88543
1.9564
2.02287
2.09796
2.17121
2.24141
2.31588
2.37891
2.3957
2.37881
2.32878
2.30176
2.26801
2.23324
2.22449
2.22201
2.22393
2.20674
2.17998
2.15009
2.10418
2.05649
2.03462
2.0055
1.73559
2.43824
3.04841
3.23065
3.2479
3.29303
3.44175
3.88392
4.87738
6.05408
6.54571
6.43473
6.06292
5.7064
5.46734
5.24315
4.9854
4.70293
4.42823
4.18205
3.96591
3.77284
3.59512
3.42819
3.27041
3.12106
2.97892
2.84404
2.72472
2.62009
2.50789
2.39145
2.29483
2.21218
2.13112
2.05018
1.97762
1.90334
1.83708
1.78757
1.73949
1.69024
1.63716
1.58045
1.52735
1.48487
1.45739
1.42978
1.39781
1.36575
1.34931
1.33532
1.32939
1.36441
1.47556
1.66668
1.87503
2.05991
2.10374
2.13066
2.11289
2.09026
2.07986
2.05741
2.02115
1.9825
1.98956
2.02397
2.08216
2.15433
2.2487
2.34821
2.44143
2.52457
2.57792
2.59742
2.61245
2.6219
2.61149
2.59641
2.56948
2.52344
2.46669
2.41663
2.34318
2.28792
2.26233
2.23531
2.20507
2.16653
2.12816
2.09388
2.06326
2.03897
2.02208
1.98454
1.42815
1.62422
2.22019
2.87761
3.18356
3.68333
4.50664
5.50422
6.31365
6.61548
6.58355
6.47156
6.24481
5.92282
5.61412
5.32614
5.04515
4.77428
4.51699
4.27424
4.04768
3.83916
3.64755
3.47008
3.30541
3.15308
3.01291
2.88357
2.75407
2.62215
2.53147
2.4632
2.37752
2.28827
2.196
2.0825
1.99345
1.95259
1.91057
1.85372
1.79339
1.7352
1.67532
1.61559
1.56324
1.5208
1.48389
1.44744
1.41098
1.37829
1.35346
1.32838
1.30214
1.27261
1.26419
1.29182
1.39355
1.55008
1.7098
1.8768
1.97337
2.02216
2.10318
2.20048
2.27476
2.37865
2.51536
2.62026
2.65981
2.69172
2.73934
2.76253
2.77523
2.77299
2.75954
2.72524
2.67685
2.6545
2.62877
2.59718
2.56129
2.50992
2.44535
2.38503
2.3653
2.33782
2.30389
2.26923
2.22923
2.1802
2.12916
2.08993
2.07151
2.05563
2.03163
1.97883
1.40061
1.41318
1.56679
2.14106
3.30998
4.65389
5.7822
6.61029
7.0693
6.87711
6.55312
6.42221
6.28278
6.04324
5.70867
5.36212
5.05298
4.78703
4.5477
4.31765
4.09079
3.87141
3.6662
3.47879
3.31064
3.16027
3.02255
2.89008
2.76129
2.64733
2.54014
2.42472
2.31752
2.21756
2.13576
2.08289
2.03618
1.96871
1.88262
1.80492
1.74154
1.6862
1.63038
1.57392
1.52281
1.48041
1.44531
1.41065
1.37533
1.34315
1.31856
1.29797
1.27272
1.24381
1.22198
1.21025
1.2075
1.22166
1.30151
1.46172
1.58593
1.88506
2.27947
2.53595
2.69439
2.87182
3.00505
3.05809
3.04338
3.02106
3.01918
3.00811
2.98662
2.94244
2.89816
2.84004
2.73491
2.6343
2.57453
2.5268
2.47977
2.43151
2.38225
2.34313
2.31762
2.2972
2.27712
2.25546
2.22372
2.18118
2.13538
2.0956
2.06802
2.05255
2.03585
1.98269
1.40061
1.41318
1.56679
2.14106
3.30998
4.65389
5.78221
6.61029
7.0693
6.87711
6.55313
6.42221
6.28278
6.04324
5.70867
5.36212
5.05298
4.78703
4.54769
4.31765
4.09079
3.87142
3.6662
3.47879
3.31064
3.16027
3.02254
2.89008
2.76128
2.64733
2.54014
2.42472
2.31752
2.21756
2.13576
2.08286
2.03614
1.96869
1.88261
1.80492
1.74154
1.6862
1.63038
1.57392
1.52281
1.48041
1.44531
1.41065
1.37533
1.34314
1.31857
1.29798
1.27268
1.24377
1.22198
1.2105
1.2069
1.23155
1.27828
1.39951
1.70081
2.01281
2.26864
2.52098
2.74727
2.90394
2.97089
3.02483
3.05639
3.0414
3.0177
3.0072
2.9889
2.96072
2.90194
2.80195
2.71042
2.63555
2.5763
2.52922
2.4842
2.43627
2.38404
2.34135
2.31466
2.29647
2.27871
2.2557
2.22289
2.18108
2.13728
2.09809
2.06729
2.05152
2.03423
1.98069
1.42815
1.62422
2.22019
2.87761
3.18356
3.68333
4.50664
5.50422
6.31365
6.61549
6.58355
6.47156
6.24481
5.92282
5.61412
5.32614
5.04515
4.77428
4.51699
4.27424
4.04768
3.83916
3.64755
3.47008
3.30541
3.15308
3.01291
2.88357
2.75408
2.62215
2.53145
2.46319
2.37752
2.28827
2.19599
2.08248
1.99347
1.95262
1.91058
1.85371
1.79339
1.7352
1.67531
1.61558
1.56324
1.5208
1.48389
1.44744
1.411
1.37825
1.35347
1.32873
1.3022
1.27269
1.26389
1.29323
1.391
1.54342
1.7234
1.8517
1.99374
2.06526
2.07811
2.15458
2.29653
2.4186
2.47958
2.5567
2.66707
2.73136
2.7416
2.76227
2.78269
2.78063
2.7598
2.70714
2.67555
2.66475
2.63981
2.60271
2.55861
2.50692
2.44384
2.39384
2.36184
2.32823
2.29675
2.26402
2.22438
2.17784
2.13465
2.09502
2.06251
2.04253
2.02288
1.97493
1.73559
2.43824
3.04841
3.23065
3.2479
3.29303
3.44175
3.88392
4.87738
6.05408
6.54571
6.43473
6.06292
5.7064
5.46734
5.24315
4.9854
4.70293
4.42823
4.18205
3.96591
3.77284
3.59512
3.42819
3.27041
3.12106
2.97892
2.84404
2.72471
2.62008
2.50789
2.39145
2.29483
2.21218
2.13112
2.05019
1.97762
1.90333
1.83708
1.78757
1.73948
1.69024
1.63716
1.58045
1.52735
1.48487
1.45739
1.42977
1.39783
1.36571
1.34943
1.33482
1.32989
1.36334
1.47585
1.66617
1.87492
2.05344
2.11675
2.11567
2.11438
2.10078
2.07958
2.05089
2.01869
1.99181
1.98504
2.00885
2.07775
2.17757
2.26735
2.34677
2.43525
2.51706
2.56472
2.59428
2.62154
2.63241
2.61768
2.59178
2.55996
2.52418
2.47889
2.41212
2.32431
2.29015
2.27564
2.25157
2.21056
2.16641
2.13335
2.0995
2.05988
2.03349
2.0177
1.98198
2.57929
3.15562
3.33577
3.33299
3.30789
3.28319
3.28249
3.30241
3.47124
4.22943
5.41625
5.76568
5.71777
5.58359
5.36977
5.12219
4.84229
4.5545
4.29139
4.06543
3.86965
3.69309
3.52839
3.37136
3.21974
3.07401
2.93609
2.80707
2.68676
2.56865
2.45307
2.35074
2.26134
2.18081
2.10339
2.03232
1.96571
1.8885
1.81682
1.77051
1.73457
1.69148
1.64296
1.5893
1.5353
1.48457
1.45645
1.43738
1.41531
1.38844
1.39413
1.44918
1.59146
1.81108
2.01403
2.17976
2.24947
2.27216
2.25577
2.2256
2.18907
2.1476
2.08637
2.02746
1.97343
1.92551
1.89061
1.86313
1.83515
1.81614
1.81242
1.83069
1.87473
1.95128
2.02374
2.1016
2.18131
2.25561
2.31492
2.36211
2.38979
2.38068
2.34708
2.30575
2.25388
2.23174
2.22478
2.22639
2.22809
2.20778
2.18436
2.15449
2.10284
2.05408
2.03319
2.00438
3.15896
3.282
3.3594
3.35952
3.34156
3.30704
3.27558
3.2518
3.18748
3.19941
3.56281
4.38578
5.1452
5.33292
5.20605
4.90864
4.60977
4.35373
4.13798
3.94823
3.77205
3.60308
3.44246
3.29235
3.15094
3.01555
2.88491
2.75725
2.63084
2.50644
2.39195
2.30049
2.23309
2.1685
2.09148
2.0066
1.93803
1.88956
1.83642
1.75905
1.72754
1.71356
1.68529
1.63423
1.57239
1.52312
1.486
1.46359
1.48284
1.5738
1.77277
2.01186
2.23595
2.31403
2.35988
2.37892
2.36365
2.34281
2.30601
2.23207
2.16903
2.12191
2.07617
2.02438
1.97079
1.92064
1.87389
1.83333
1.80742
1.78061
1.75759
1.74211
1.72341
1.70254
1.68271
1.68333
1.7031
1.74203
1.81152
1.9006
2.00692
2.08957
2.11357
2.13243
2.15282
2.15468
2.16005
2.18456
2.20211
2.19883
2.18439
2.15935
2.12254
2.07689
2.04953
2.02045
3.33409
3.31933
3.30364
3.29693
3.28885
3.28015
3.26026
3.20828
3.10044
2.98641
2.84124
2.95061
3.53128
4.35351
4.68712
4.62644
4.42715
4.20233
3.99305
3.80698
3.63835
3.47822
3.3267
3.18485
3.04895
2.91829
2.79577
2.67976
2.56628
2.45996
2.36242
2.26711
2.18698
2.12343
2.06353
2.00344
1.94897
1.89076
1.82348
1.7548
1.71903
1.70039
1.671
1.64139
1.60792
1.56731
1.58041
1.66973
1.87511
2.15812
2.4515
2.57191
2.55077
2.52345
2.49763
2.46204
2.41123
2.34429
2.27027
2.20299
2.15715
2.12052
2.08938
2.05124
1.99567
1.935
1.87815
1.82291
1.79987
1.78306
1.76153
1.73206
1.70303
1.67466
1.64519
1.61073
1.57859
1.54821
1.53575
1.54496
1.57258
1.62129
1.65945
1.67981
1.71001
1.75987
1.80817
1.86381
1.94092
1.99045
2.01532
2.0176
2.01017
1.97886
1.94678
1.93238
3.32485
3.32608
3.31729
3.30383
3.2889
3.26929
3.22656
3.12746
2.99085
2.8273
2.67684
2.48378
2.50433
2.81786
3.52298
4.11675
4.18562
4.07276
3.86156
3.66126
3.48914
3.33465
3.19271
3.06142
2.93592
2.81572
2.70692
2.60859
2.51184
2.41574
2.32692
2.23733
2.15014
2.09942
2.05896
2.00516
1.94678
1.88934
1.8285
1.77063
1.72965
1.71518
1.69242
1.68239
1.72854
1.85858
2.09343
2.33654
2.54121
2.72712
2.76825
2.74347
2.64498
2.56235
2.50162
2.4389
2.3796
2.32256
2.25814
2.19718
2.15242
2.11526
2.07781
2.03698
1.98747
1.93302
1.88152
1.83858
1.80812
1.78033
1.75204
1.72583
1.6985
1.66883
1.63591
1.59938
1.56717
1.53623
1.51093
1.5022
1.49198
1.48132
1.47395
1.45662
1.41718
1.40768
1.42147
1.45865
1.52178