/*--------------------------------*- C++ -*----------------------------------*\
  =========                 |
  \\      /  F ield         | OpenFOAM: The Open Source CFD Toolbox
   \\    /   O peration     | Website:  https://openfoam.org
    \\  /    A nd           | Version:  7
     \\/     M anipulation  |
\*---------------------------------------------------------------------------*/
FoamFile
{
    version     2.0;
    format      ascii;
    class       volScalarField;
    location    "0.9";
    object      T;
}
// * * * * * * * * * * * * * * * * * * * * * * * * * * * * * * * * * * * * * //

dimensions      [0 0 0 1 0 0 0];

internalField   nonuniform List<scalar> 
4608
(
1
1
1
1
1
1
1
1
1
1
1
1
1
1
1
1
1
1
1
1
1
1
1
1
1
1
1
1
1
1
1
1
1
1
1
1
1
1
1
1
1
1
1
1
1
1
1
1
1
1
1
1
1
1
1
1
1
1
1
1
1
1
1
1
1
1
1
1
1
1
1
1
1
1
1
1
1
1
1
1
1
1
1
1
1
1
1
1
1
1
1
1
1
1
1
1
1
1
1
1
1
1
1
1
1
1
1
1
1
1
1
1
1
1
1
1
1
1
1
1
1
1
1
1
1
1
1
1
1
1
1
1
1
1
1
1
1
1
1
1
1
1
1
1
1
1
1
1
1
1
1
1
1
1
1
1
1
1
1
1
1
1
1
1
1
1
1
1
1
1
1
1
1
1
1
1
1
1
1
1
1
1
1
1
1
1
1
1
1
1
1
1
1
1
1
1
1
1
1
1
1
1
1
1
1
1
1
1
1
1
1
1
1
1
1
1
1
1
1
1
1
1
1
1
1
1
1
1
1
1
1
1
1
1
1
1
1
1
1
1
1
1
1
1
1
1
1
1
1
1
1
1
1
1
1
1
1
1
1
1
1
1
1
1
1
1
1
1
1
1
1
1
1
1
1
1
1
1
1
1
1
1
1
1
1
1
1
1
1
1
1
1
1
1
1
1
1
1
1
1
1
1
1
1
1
1
1
1
1
1
1
1
1
1
1
1
1
1
1
1
1
1
1
1
1
1
1
1
1
1
1
1
1
1
1
1
1
1
1
1
1
1
1
1
1
1
1
1
1
1
1
1
1
1
1
1
1
1
1
1
1
1
1
1
1
1
1
1
1
1
1
1
1
1
1
1
1
1
1
1
1
1
1
1
1
1
1
1
1
1
1
1
1
1
1
1
1
1
1
1
1
1
1
1
1
1
1
1
1
1
1
1
1
1
1
1
1
1
1
1
1
1
1
1
1
1
1
1
1
1
1
1
1
1
1
1
1
1
1
1
1
1
1
1
1
1
1
1
1
1
1
1
1
1
1
1
1
1
1
1
1
1
1
1
1
1
1
1
1
1
1
1
1
1
1
1
1
1
1
1
1
1
1
1
1
1
1
1
1
1
1
1
1
1
1
1
1
1
1
1
1
1
1
1
1
1
1
1
1
1
1
1
1
1
1
1
1
1
1
1
1
1
1
1
1
1
1
1
1
1
1
1
1
1
1
1
1
1
1
1
1
1
1
1
1
1
1
1
1
1
1
1
1
1
1
1
1
1
1
1
1
1
1
1
1
1
1
1
1
1
1
1
1
1
1
1
1
1
1
1
1
1
1
1
1
1
1
1
1
1
1
1
1
1
1
1
1
1
1
1
1
1
1
1
1
1
1
1
1
1
1
1
1
1
1
1
1
1
1
1
1
1
1
1
1
1
1
1
1
1
1
1
1
1
1
1
1
1
1
1
1
1
1
1
1
1
1
1
1
1
1
1
1
1
1
1
1
1
1
1
1
1
1
1
1
1
1
1
1
1
1
1
1
1
1
1
1
1
1
1
1
1
1
1
1
1
1
1
1
1
1
1
1
1
1
1
1
1
1
1
1
1
1
1
1
1
1
1
1
1
1
1
1
1
1
1
1
1
1
1
1
1
1
1
1
1
1
1
1
1
1
1
1
1
1
1
1
1
1
1
1
1
1
1
1
1
1
1
1
1
1
1
1
1
1
1
1
1
1
1
1
1
1
1
1
1
1
1
1.07811
1.18343
1.28748
1.3891
1.48779
1.56964
1.63856
1.68463
1.69785
1.68111
1.63802
1.58574
1.54124
1.52669
1.515
1.51515
1.519
1.52393
1.52949
1.53417
1.5361
1.53695
1.53774
1.53995
1.00089
1.00567
1.03007
1.07241
1.14514
1.23196
1.3231
1.40764
1.47955
1.51919
1.54941
1.56242
1.55825
1.55466
1.54464
1.53648
1.53258
1.53009
1.53139
1.53524
1.53777
1.53901
1.53997
1.54143
1
0.999982
1.00008
1.00009
1.00123
1.00837
1.03666
1.11811
1.2663
1.45335
1.5665
1.62283
1.62175
1.61169
1.59301
1.56604
1.5437
1.53552
1.5367
1.54114
1.54493
1.54655
1.54668
1.54728
1
0.999999
0.999999
1
0.999996
1.00001
0.999966
1.0007
1.01182
1.10969
1.30509
1.50994
1.60137
1.60762
1.6052
1.59914
1.57935
1.5591
1.55747
1.55766
1.55745
1.55812
1.55889
1.55935
1
1
1
1
1
1
0.999996
0.999997
0.999963
1.00051
1.01635
1.12494
1.35471
1.51681
1.62797
1.62919
1.61941
1.6021
1.58946
1.58038
1.5739
1.57141
1.57079
1.57238
1
1
1
1
1
1
1
1
0.999997
0.999997
0.999964
1.00088
1.03215
1.16702
1.40322
1.54548
1.61466
1.61584
1.61091
1.60154
1.59046
1.58328
1.57797
1.57896
1
1
1
1
1
1
1
1
1
1
0.999998
0.999993
1.00001
1.00296
1.0584
1.24617
1.4791
1.56495
1.5934
1.60019
1.59839
1.58911
1.5815
1.579
1
1
1
1
1
1
1
1
1
1
1
0.999999
0.999999
0.99999
1.00037
1.01276
1.12346
1.34252
1.52489
1.58959
1.59455
1.59131
1.5852
1.58233
1
1
1
1
1
1
1
1
1
1
1
1
1
0.999998
0.999999
0.999992
1.00253
1.05001
1.22241
1.43196
1.55379
1.58891
1.58917
1.58655
1
1
1
1
1
1
1
1
1
1
1
1
1
1
1
0.999999
0.999992
1.00043
1.01365
1.13658
1.35716
1.51513
1.55148
1.57076
1
1
1
1
1
1
1
1
1
1
1
1
1
1
1
1
0.999999
0.999997
1.00004
1.00565
1.06671
1.27899
1.46892
1.55586
1
1
1
1
1
1
1
1
1
1
1
1
1
1
1
1
1
1
0.999999
1.00001
1.00142
1.0414
1.21216
1.4313
1
1
1
1
1
1
1
1
1
1
1
1
1
1
1
1
1
1
1
1
0.999999
1.00081
1.02218
1.15331
1
1
1
1
1
1
1
1
1
1
1
1
1
1
1
1
1
1
1
1
1
0.999999
1.00034
1.0082
1
1
1
1
1
1
1
1
1
1
1
1
1
1
1
1
1
1
1
1
1
1
1
0.999992
1
1
1
1
1
1
1
1
1
1
1
1
1
1
1
1
1
1
1
1
1
1
1
0.999998
1
1
1
1
1
1
1
1
1
1
1
1
1
1
1
1
1
1
1
1
1
1
1
0.999998
1
1
1
1
1
1
1
1
1
1
1
1
1
1
1
1
1
1
1
1
1
1
1
0.999992
1
1
1
1
1
1
1
1
1
1
1
1
1
1
1
1
1
1
1
1
1
0.999999
1.00034
1.0082
1
1
1
1
1
1
1
1
1
1
1
1
1
1
1
1
1
1
1
1
0.999999
1.00081
1.02218
1.15331
1
1
1
1
1
1
1
1
1
1
1
1
1
1
1
1
1
1
0.999999
1.00001
1.00142
1.0414
1.21216
1.4313
1
1
1
1
1
1
1
1
1
1
1
1
1
1
1
1
0.999999
0.999997
1.00004
1.00565
1.06671
1.27899
1.46892
1.55586
1
1
1
1
1
1
1
1
1
1
1
1
1
1
1
0.999999
0.999992
1.00043
1.01365
1.13658
1.35716
1.51513
1.55148
1.57076
1
1
1
1
1
1
1
1
1
1
1
1
1
0.999998
0.999999
0.999992
1.00253
1.05001
1.22241
1.43196
1.55379
1.58891
1.58917
1.58655
1
1
1
1
1
1
1
1
1
1
1
0.999999
0.999999
0.99999
1.00037
1.01276
1.12346
1.34252
1.52489
1.58959
1.59455
1.59131
1.5852
1.58233
1
1
1
1
1
1
1
1
1
1
0.999998
0.999993
1.00001
1.00296
1.0584
1.24617
1.4791
1.56495
1.5934
1.60019
1.59839
1.58911
1.5815
1.579
1
1
1
1
1
1
1
1
0.999997
0.999997
0.999964
1.00088
1.03215
1.16702
1.40322
1.54548
1.61466
1.61584
1.61091
1.60154
1.59046
1.58328
1.57797
1.57896
1
1
1
1
1
1
0.999996
0.999997
0.999963
1.00051
1.01635
1.12494
1.35471
1.51681
1.62797
1.62919
1.61941
1.6021
1.58946
1.58038
1.5739
1.57141
1.57079
1.57238
1
0.999999
0.999999
1
0.999996
1.00001
0.999966
1.0007
1.01182
1.10969
1.30509
1.50994
1.60137
1.60762
1.6052
1.59914
1.57935
1.5591
1.55747
1.55766
1.55745
1.55812
1.55889
1.55935
1
0.999982
1.00008
1.00009
1.00123
1.00837
1.03666
1.11811
1.2663
1.45335
1.5665
1.62283
1.62175
1.61169
1.59301
1.56604
1.5437
1.53552
1.5367
1.54114
1.54493
1.54655
1.54668
1.54728
1.00089
1.00567
1.03007
1.07241
1.14514
1.23196
1.3231
1.40764
1.47955
1.51919
1.54941
1.56242
1.55825
1.55466
1.54464
1.53648
1.53258
1.53009
1.53139
1.53524
1.53777
1.53901
1.53997
1.54143
1.07811
1.18343
1.28748
1.3891
1.48779
1.56964
1.63856
1.68463
1.69785
1.68111
1.63802
1.58574
1.54124
1.52669
1.515
1.51515
1.519
1.52393
1.52949
1.53417
1.5361
1.53695
1.53774
1.53995
1.39759
1.23756
1.11771
1.00195
0.964883
0.986048
1.0134
1.01878
1.03679
1.06439
1.07603
1.07982
1.08773
1.10442
1.11026
1.10924
1.11058
1.11657
1.11645
1.1155
1.11249
1.10734
1.10754
1.1151
1.17379
1.32398
1.56502
1.7565
1.89058
2.00127
2.05205
2.04072
2.01507
1.96855
1.91518
1.87713
1.84862
1.8236
1.79785
1.77633
1.75855
1.74317
1.72647
1.70778
1.68848
1.66915
1.65048
1.63292
1.61697
1.60356
1.5918
1.57955
1.56477
1.54607
1.52325
1.50152
1.48743
1.47825
1.47124
1.46435
1.45567
1.44332
1.42542
1.4029
1.38478
1.37435
1.36685
1.36008
1.35316
1.34486
1.33221
1.31214
1.29281
1.28148
1.27424
1.26853
1.26344
1.2579
1.25036
1.23753
1.21687
1.19661
1.18762
1.18463
1.18237
1.17926
1.17411
1.16658
1.15609
1.13921
1.11604
1.10511
1.10239
1.09933
1.097
1.09166
1.49576
1.41131
1.33347
1.25485
1.16064
1.12236
1.10631
1.07814
1.06885
1.06362
1.049
1.04773
1.05097
1.05942
1.07052
1.07756
1.08166
1.08662
1.08858
1.09077
1.09019
1.09199
1.10587
1.21448
1.36969
1.49278
1.54268
1.60524
1.67673
1.75271
1.81904
1.86088
1.89222
1.911
1.904
1.88426
1.86207
1.83675
1.81018
1.78543
1.76518
1.7489
1.7325
1.7146
1.69662
1.67934
1.66195
1.64326
1.62617
1.61256
1.60068
1.58746
1.57163
1.55301
1.53204
1.51315
1.50041
1.48989
1.48053
1.47276
1.46367
1.4506
1.43217
1.41095
1.39516
1.38601
1.37734
1.36899
1.36124
1.35211
1.339
1.32136
1.30523
1.29421
1.28548
1.27762
1.2711
1.26526
1.25787
1.24614
1.22825
1.21102
1.20024
1.19401
1.19087
1.18711
1.18084
1.17224
1.16222
1.14932
1.13125
1.11633
1.11122
1.10785
1.10538
1.09954
1.53218
1.49155
1.42512
1.35955
1.28707
1.21251
1.17025
1.13103
1.082
1.06183
1.05188
1.03797
1.03844
1.04156
1.04615
1.04991
1.05375
1.05596
1.05939
1.06368
1.07106
1.09443
1.22112
1.43106
1.5089
1.54735
1.55241
1.55343
1.55369
1.5674
1.61338
1.70035
1.80024
1.85867
1.88755
1.88554
1.87813
1.8591
1.82515
1.78553
1.75678
1.73791
1.72404
1.70886
1.69297
1.67587
1.65739
1.63624
1.61561
1.59806
1.58582
1.57511
1.56131
1.5448
1.52932
1.51618
1.50156
1.48499
1.46994
1.45832
1.44888
1.43761
1.4223
1.40636
1.39487
1.38461
1.37253
1.35912
1.34775
1.33853
1.32785
1.31514
1.30238
1.29149
1.2815
1.27086
1.25936
1.25041
1.24379
1.23488
1.22102
1.20709
1.19735
1.18808
1.17971
1.1756
1.1706
1.16249
1.15213
1.14063
1.1276
1.11574
1.10723
1.10073
1.09721
1.09128
1.55186
1.53312
1.4915
1.4361
1.38168
1.30724
1.24928
1.21738
1.16826
1.1215
1.1068
1.08899
1.07067
1.05898
1.04951
1.04764
1.04269
1.03905
1.03997
1.04485
1.08432
1.2233
1.44867
1.5279
1.53809
1.54334
1.54468
1.53441
1.52193
1.5104
1.50241
1.51463
1.56802
1.66097
1.74997
1.82804
1.83941
1.8324
1.81706
1.79668
1.7697
1.74567
1.72993
1.71661
1.69963
1.68043
1.65971
1.63716
1.61588
1.59707
1.58189
1.57153
1.56126
1.54877
1.53664
1.52479
1.50686
1.48776
1.47067
1.45578
1.44317
1.43288
1.42355
1.41311
1.40219
1.38956
1.37486
1.35956
1.34453
1.33254
1.32455
1.31609
1.30436
1.29349
1.2835
1.27239
1.25942
1.24644
1.23673
1.22848
1.21821
1.20765
1.19938
1.18933
1.17852
1.17238
1.16662
1.15917
1.14943
1.13824
1.12703
1.11706
1.10718
1.09825
1.09439
1.0893
1.56746
1.55888
1.53743
1.49711
1.4511
1.39793
1.32845
1.28211
1.2472
1.20373
1.1652
1.1368
1.10991
1.08624
1.06556
1.05316
1.04608
1.04167
1.04762
1.10961
1.27281
1.46662
1.54742
1.54625
1.5395
1.53338
1.52581
1.51509
1.50176
1.48362
1.47307
1.47126
1.46825
1.48026
1.52427
1.6204
1.70887
1.76995
1.8026
1.79768
1.78308
1.75875
1.72997
1.7046
1.68097
1.66117
1.65062
1.63958
1.62181
1.6018
1.5852
1.56979
1.55238
1.53493
1.51793
1.50793
1.50394
1.49485
1.47773
1.46089
1.44508
1.42778
1.41207
1.40219
1.39356
1.38397
1.37316
1.3607
1.34678
1.32818
1.3111
1.30501
1.30405
1.30109
1.29424
1.28378
1.26878
1.24885
1.22982
1.22037
1.21736
1.21445
1.2088
1.2004
1.18965
1.17841
1.167
1.15657
1.14893
1.14164
1.1341
1.12571
1.11508
1.10265
1.09527
1.09054
1.5778
1.57445
1.56689
1.54493
1.50662
1.46384
1.40955
1.35342
1.31502
1.27503
1.23038
1.19509
1.16795
1.14206
1.11574
1.08939
1.08125
1.09259
1.16956
1.35421
1.50318
1.57112
1.56817
1.55526
1.53602
1.52013
1.50715
1.49383
1.4779
1.46035
1.4537
1.4501
1.44025
1.42137
1.40877
1.41937
1.46699
1.55022
1.64179
1.71941
1.74365
1.73187
1.72362
1.71119
1.69184
1.66844
1.65119
1.64012
1.62901
1.61122
1.59029
1.5704
1.55302
1.53664
1.51914
1.50364
1.49295
1.48479
1.47885
1.46642
1.44745
1.42817
1.41049
1.39756
1.39194
1.38686
1.37883
1.36791
1.34956
1.3259
1.31028
1.3037
1.29676
1.28931
1.28201
1.27312
1.26047
1.24216
1.22542
1.21979
1.21525
1.20777
1.20004
1.19202
1.1835
1.1749
1.16535
1.15323
1.14092
1.13328
1.12758
1.12081
1.11264
1.10504
1.09987
1.09354
1.58022
1.58022
1.57773
1.5716
1.55
1.5168
1.47269
1.42119
1.37812
1.3379
1.29531
1.25765
1.22483
1.1939
1.16971
1.14279
1.15401
1.26107
1.45539
1.58852
1.61821
1.60744
1.58426
1.55892
1.53555
1.51646
1.50069
1.48489
1.46807
1.45077
1.43868
1.42869
1.41445
1.39294
1.37605
1.36935
1.35974
1.36639
1.40828
1.49141
1.58201
1.64179
1.69056
1.70321
1.69779
1.68109
1.65784
1.63427
1.61345
1.59367
1.57527
1.56716
1.55933
1.54462
1.52494
1.50633
1.49025
1.47659
1.46549
1.45871
1.45053
1.43604
1.41737
1.39865
1.38193
1.37046
1.36305
1.35458
1.34386
1.33054
1.31728
1.30534
1.29428
1.28568
1.27752
1.26769
1.25512
1.23854
1.22408
1.21769
1.21161
1.20388
1.19637
1.18824
1.17947
1.17175
1.1626
1.15048
1.13916
1.13182
1.12623
1.12056
1.11446
1.10995
1.10691
1.09935
1.58161
1.58149
1.58064
1.57777
1.57021
1.55202
1.52032
1.47714
1.43696
1.39646
1.34822
1.31636
1.28244
1.2503
1.22429
1.25298
1.38774
1.57207
1.6785
1.6771
1.65703
1.6274
1.59788
1.57051
1.54486
1.52226
1.50268
1.4838
1.46527
1.44706
1.4302
1.4146
1.39613
1.37529
1.36239
1.3513
1.33645
1.3247
1.31428
1.31739
1.3481
1.41632
1.51205
1.58423
1.63611
1.65213
1.64392
1.62645
1.61393
1.59752
1.578
1.5571
1.54662
1.54256
1.53122
1.50905
1.48787
1.47138
1.45628
1.44266
1.4308
1.41937
1.40854
1.39607
1.38063
1.36798
1.35898
1.34845
1.33478
1.32105
1.30837
1.29947
1.2951
1.28925
1.28033
1.26764
1.25271
1.23652
1.22265
1.21618
1.21066
1.20377
1.19662
1.18826
1.17806
1.16839
1.15816
1.14827
1.13972
1.13473
1.13043
1.12608
1.12236
1.11902
1.11502
1.12038
1.58637
1.58591
1.5849
1.58246
1.57822
1.56977
1.55302
1.51967
1.48295
1.44735
1.40728
1.36284
1.32924
1.3184
1.37394
1.54003
1.701
1.75423
1.74397
1.71146
1.67597
1.64485
1.61717
1.59081
1.56353
1.53603
1.51082
1.48815
1.46625
1.44471
1.42563
1.40588
1.38343
1.36544
1.35428
1.33999
1.32366
1.30864
1.29469
1.27908
1.26612
1.26892
1.29618
1.36699
1.45349
1.53121
1.57023
1.5958
1.60286
1.59995
1.58854
1.56313
1.54002
1.52683
1.51311
1.496
1.48011
1.46645
1.45108
1.43394
1.42093
1.41102
1.40075
1.38888
1.37595
1.36269
1.35097
1.33851
1.32561
1.3141
1.30443
1.29685
1.28904
1.2811
1.2724
1.26084
1.24634
1.23391
1.22603
1.22068
1.21467
1.20732
1.20134
1.19411
1.18248
1.16845
1.15662
1.1514
1.15077
1.15295
1.15639
1.16127
1.16977
1.18139
1.19341
1.22485
1.58131
1.58223
1.58168
1.58052
1.5784
1.57582
1.5688
1.55014
1.5222
1.48627
1.45181
1.40819
1.41764
1.52136
1.70076
1.83037
1.83745
1.8158
1.77506
1.7347
1.69896
1.66638
1.63582
1.60654
1.57742
1.54854
1.52164
1.49693
1.47248
1.44811
1.42516
1.40144
1.37767
1.36263
1.34984
1.33412
1.31727
1.29981
1.28132
1.26398
1.25155
1.24757
1.24098
1.23936
1.25659
1.30674
1.38552
1.45391
1.50624
1.5558
1.56556
1.55958
1.53637
1.5183
1.50584
1.49124
1.47663
1.46254
1.44613
1.43002
1.4174
1.40622
1.39534
1.38434
1.37162
1.3574
1.3428
1.32946
1.31954
1.31043
1.30144
1.29375
1.28547
1.27621
1.26564
1.25327
1.24221
1.23189
1.22431
1.22171
1.21818
1.21387
1.2101
1.20252
1.18913
1.18792
1.19359
1.20867
1.2331
1.25737
1.27312
1.28616
1.29552
1.30242
1.30705
1.31946
1.57643
1.57462
1.57256
1.57297
1.57394
1.57484
1.57232
1.56289
1.54198
1.51893
1.4914
1.52711
1.68546
1.86305
1.91859
1.90565
1.86896
1.82766
1.78802
1.75135
1.7171
1.68398
1.65203
1.62125
1.59079
1.56061
1.53162
1.50378
1.47643
1.45057
1.42636
1.40203
1.38024
1.36185
1.34478
1.32762
1.31255
1.29626
1.27678
1.25673
1.24661
1.24167
1.23339
1.22424
1.21277
1.20042
1.20745
1.24471
1.31654
1.40608
1.48992
1.51364
1.50732
1.50248
1.49922
1.49301
1.48211
1.46592
1.44646
1.42804
1.41502
1.40408
1.395
1.38543
1.37141
1.35464
1.33799
1.32126
1.31277
1.30763
1.30179
1.29366
1.28435
1.2742
1.26351
1.25167
1.24109
1.23224
1.23096
1.23472
1.24409
1.25897
1.27185
1.27856
1.2895
1.30658
1.3194
1.33544
1.35851
1.36895
1.36926
1.36797
1.36415
1.3527
1.34278
1.33925
1.52446
1.55414
1.5737
1.57963
1.57825
1.57459
1.57059
1.56697
1.55635
1.56199
1.66209
1.83868
1.98569
2.00811
1.98487
1.93487
1.88386
1.8389
1.79937
1.76317
1.72858
1.6948
1.66211
1.63079
1.60041
1.57061
1.54133
1.51224
1.48282
1.4533
1.42573
1.40327
1.38578
1.36817
1.34724
1.32433
1.30585
1.29267
1.278
1.25594
1.24776
1.2447
1.23701
1.22132
1.20116
1.18467
1.17265
1.16635
1.17438
1.21048
1.28679
1.36498
1.42632
1.44426
1.45636
1.46827
1.46589
1.46037
1.45078
1.43253
1.41595
1.40256
1.38978
1.37605
1.36071
1.34611
1.3331
1.32128
1.31325
1.30491
1.29956
1.29501
1.28867
1.28099
1.27205
1.27274
1.2805
1.29617
1.32152
1.35095
1.37855
1.39455
1.39892
1.40507
1.41134
1.41091
1.41212
1.41889
1.41843
1.4166
1.41104
1.40382
1.39376
1.37989
1.37096
1.36216
1.37865
1.51236
1.56054
1.56896
1.5666
1.56478
1.56552
1.57193
1.61289
1.78036
1.99965
2.0488
2.04205
2.02149
1.98702
1.94708
1.90217
1.8549
1.80981
1.76926
1.73281
1.69906
1.66686
1.63539
1.60425
1.57363
1.5441
1.51596
1.48883
1.46132
1.43417
1.40971
1.38752
1.36687
1.3465
1.32767
1.30993
1.28948
1.27027
1.25772
1.24795
1.23586
1.22173
1.20542
1.18844
1.17197
1.16273
1.15642
1.1493
1.14005
1.14409
1.17065
1.22721
1.3003
1.3586
1.41435
1.43573
1.43804
1.43309
1.42588
1.41645
1.40633
1.39109
1.37587
1.35944
1.34363
1.3335
1.32605
1.31913
1.31243
1.31442
1.32396
1.3402
1.35986
1.3766
1.39637
1.4165
1.43649
1.45726
1.47092
1.47135
1.46567
1.45069
1.44226
1.43254
1.42377
1.42108
1.41974
1.41986
1.41485
1.40767
1.40052
1.3892
1.37601
1.36897
1.35987
1.12767
1.33994
1.49261
1.53555
1.54403
1.55717
1.59237
1.68707
1.87368
2.06478
2.13814
2.12342
2.07229
2.02015
1.98383
1.9489
1.90875
1.86449
1.81982
1.7778
1.73928
1.70372
1.67017
1.63801
1.60699
1.57691
1.54751
1.51894
1.49306
1.46957
1.44363
1.41619
1.39279
1.37214
1.35109
1.32967
1.31069
1.29161
1.27433
1.26112
1.24805
1.2342
1.21872
1.20178
1.18553
1.17208
1.16305
1.15385
1.14326
1.13269
1.12723
1.12196
1.12192
1.13725
1.1843
1.25636
1.3278
1.38385
1.39339
1.39625
1.39166
1.38685
1.38487
1.37934
1.36958
1.35837
1.36085
1.37186
1.38942
1.41019
1.44
1.46974
1.4927
1.5078
1.51382
1.5159
1.52173
1.52817
1.52615
1.52156
1.51326
1.50063
1.48579
1.47279
1.45442
1.44009
1.43235
1.42409
1.41547
1.40493
1.39544
1.38839
1.38206
1.37525
1.36921
1.35853
1.00997
1.08357
1.28417
1.45546
1.51812
1.6291
1.79285
1.95657
2.07574
2.12094
2.12019
2.10873
2.07894
2.03422
1.99056
1.94923
1.90811
1.86739
1.82702
1.78695
1.74775
1.71033
1.67504
1.64169
1.61013
1.58021
1.55184
1.52485
1.49716
1.4682
1.44785
1.43256
1.41267
1.39086
1.36714
1.33745
1.31428
1.30451
1.2945
1.28002
1.26398
1.24787
1.2306
1.21295
1.19713
1.18386
1.17193
1.15995
1.14801
1.13739
1.12916
1.12058
1.11121
1.09993
1.09847
1.11087
1.15606
1.21947
1.27439
1.32369
1.35092
1.36591
1.39285
1.42331
1.44162
1.46761
1.50445
1.53236
1.54142
1.54862
1.56445
1.57064
1.5688
1.56318
1.5537
1.54148
1.53411
1.53308
1.52922
1.52184
1.51211
1.49861
1.48246
1.4674
1.46185
1.45394
1.44389
1.43384
1.42291
1.41048
1.39889
1.39117
1.38802
1.38418
1.37683
1.36234
1.00018
1.0045
1.06247
1.25113
1.54255
1.80384
1.98851
2.11004
2.1754
2.1524
2.11162
2.09405
2.07585
2.04373
1.99799
1.94976
1.90595
1.86671
1.82969
1.79225
1.75353
1.71464
1.6772
1.64219
1.61011
1.58075
1.55307
1.52556
1.49805
1.47319
1.44941
1.4232
1.39777
1.37285
1.35152
1.33757
1.3256
1.30852
1.28641
1.26583
1.24843
1.23266
1.2163
1.19944
1.18385
1.17047
1.15898
1.14747
1.13576
1.12516
1.11692
1.1098
1.10064
1.08994
1.08186
1.07741
1.07848
1.08611
1.1225
1.1861
1.23919
1.34057
1.45806
1.5232
1.55733
1.59186
1.61982
1.63537
1.63402
1.6345
1.63578
1.63198
1.62284
1.60622
1.58989
1.57377
1.55116
1.53112
1.51853
1.50683
1.49428
1.48136
1.46872
1.4586
1.45108
1.44436
1.43765
1.43086
1.42219
1.41218
1.4027
1.39486
1.38936
1.3859
1.38111
1.36663
1.00018
1.0045
1.06247
1.25113
1.54255
1.80384
1.98851
2.11004
2.1754
2.1524
2.11162
2.09405
2.07585
2.04373
1.99799
1.94976
1.90595
1.86671
1.82969
1.79225
1.75353
1.71464
1.6772
1.64219
1.61011
1.58075
1.55307
1.52556
1.49805
1.47319
1.44941
1.4232
1.39776
1.37285
1.35152
1.33756
1.32559
1.30851
1.28641
1.26583
1.24843
1.23266
1.2163
1.19944
1.18385
1.17047
1.15898
1.14747
1.13576
1.12516
1.11693
1.10979
1.10062
1.08992
1.08186
1.07757
1.07814
1.08954
1.11442
1.16861
1.27589
1.37112
1.44592
1.517
1.57559
1.60589
1.61383
1.62213
1.63127
1.64061
1.63746
1.63192
1.62174
1.60886
1.59031
1.56542
1.546
1.53119
1.51887
1.50753
1.49543
1.48249
1.4689
1.45784
1.45028
1.44429
1.43808
1.43067
1.42167
1.41192
1.40288
1.39534
1.38939
1.38597
1.38112
1.36632
1.00997
1.08357
1.28417
1.45546
1.51812
1.6291
1.79285
1.95657
2.07574
2.12094
2.12019
2.10873
2.07894
2.03422
1.99056
1.94923
1.90811
1.86739
1.82702
1.78695
1.74775
1.71033
1.67504
1.64169
1.61013
1.58021
1.55184
1.52485
1.49716
1.4682
1.44784
1.43256
1.41267
1.39086
1.36713
1.33745
1.31429
1.30452
1.2945
1.28002
1.26398
1.24787
1.2306
1.21295
1.19713
1.18386
1.17193
1.15995
1.14801
1.13738
1.12917
1.12069
1.11122
1.09995
1.09837
1.11147
1.15465
1.21651
1.27995
1.31779
1.35554
1.37599
1.38343
1.4099
1.45317
1.48444
1.4941
1.50809
1.53657
1.56273
1.56668
1.56934
1.56703
1.56248
1.55375
1.53931
1.53463
1.53448
1.53081
1.52304
1.51183
1.49784
1.48139
1.46916
1.46121
1.45176
1.44186
1.43179
1.42079
1.40933
1.39994
1.39205
1.38558
1.38102
1.37525
1.36174
1.12767
1.33994
1.49261
1.53555
1.54403
1.55717
1.59237
1.68707
1.87368
2.06478
2.13814
2.12342
2.07229
2.02015
1.98383
1.9489
1.90875
1.86449
1.81982
1.7778
1.73928
1.70372
1.67017
1.63801
1.60699
1.57691
1.54751
1.51894
1.49306
1.46957
1.44363
1.41619
1.39279
1.37214
1.35109
1.32967
1.31069
1.29161
1.27433
1.26112
1.24805
1.2342
1.21872
1.20178
1.18553
1.17208
1.16305
1.15385
1.14327
1.13267
1.12727
1.12171
1.12218
1.13684
1.18448
1.25586
1.3275
1.38204
1.39669
1.39272
1.39209
1.38923
1.38468
1.3777
1.36931
1.36109
1.35874
1.36561
1.38695
1.41886
1.44646
1.46758
1.48782
1.50453
1.51253
1.51709
1.52334
1.52944
1.52694
1.52091
1.51158
1.50048
1.48774
1.47108
1.45013
1.44071
1.43542
1.42744
1.41584
1.40426
1.3967
1.38942
1.38064
1.3742
1.36912
1.35849
1.37865
1.51236
1.56054
1.56896
1.5666
1.56478
1.56552
1.57193
1.61289
1.78036
1.99965
2.0488
2.04205
2.02149
1.98702
1.94708
1.90217
1.8549
1.80981
1.76926
1.73281
1.69906
1.66686
1.63539
1.60425
1.57363
1.5441
1.51596
1.48883
1.46132
1.43417
1.40971
1.38752
1.36687
1.3465
1.32767
1.30993
1.28948
1.27027
1.25772
1.24795
1.23586
1.22173
1.20542
1.18844
1.17197
1.16273
1.15642
1.1493
1.14005
1.14413
1.17041
1.22754
1.30002
1.36027
1.41143
1.43476
1.4389
1.43441
1.42629
1.4163
1.40544
1.38931
1.37353
1.35886
1.34544
1.33477
1.32597
1.3181
1.31389
1.31579
1.32237
1.33625
1.35851
1.37707
1.39746
1.41858
1.43984
1.45631
1.46875
1.46951
1.46569
1.45499
1.44249
1.42893
1.42347
1.42083
1.42048
1.42043
1.4145
1.40845
1.4013
1.38879
1.37618
1.36978
1.36024
1.52446
1.55414
1.5737
1.57963
1.57825
1.57459
1.57059
1.56697
1.55635
1.56199
1.66209
1.83868
1.98569
2.00811
1.98487
1.93487
1.88386
1.8389
1.79937
1.76317
1.72858
1.6948
1.66211
1.63079
1.60041
1.57061
1.54133
1.51224
1.48282
1.4533
1.42573
1.40327
1.38578
1.36817
1.34724
1.32433
1.30585
1.29267
1.278
1.25594
1.24776
1.2447
1.23701
1.22132
1.20116
1.18467
1.17265
1.16635
1.17439
1.21049
1.28659
1.36559
1.42578
1.44381
1.45704
1.4685
1.46625
1.4614
1.45108
1.43166
1.41495
1.4021
1.38964
1.37578
1.36094
1.3466
1.33321
1.32135
1.31327
1.30578
1.29951
1.29463
1.28821
1.28095
1.27283
1.27378
1.28146
1.29594
1.3204
1.34856
1.37861
1.39709
1.40042
1.40467
1.41035
1.41015
1.41177
1.4193
1.41906
1.41693
1.4112
1.40338
1.39307
1.38009
1.37171
1.36254
1.57643
1.57462
1.57256
1.57297
1.57394
1.57484
1.57232
1.56289
1.54198
1.51893
1.4914
1.52711
1.68546
1.86305
1.91859
1.90565
1.86896
1.82766
1.78802
1.75135
1.7171
1.68398
1.65203
1.62125
1.59079
1.56061
1.53162
1.50378
1.47643
1.45057
1.42636
1.40203
1.38024
1.36185
1.34478
1.32762
1.31255
1.29626
1.27678
1.25673
1.24661
1.24167
1.23339
1.22424
1.21277
1.20042
1.20745
1.24471
1.31653
1.40613
1.48968
1.51402
1.50707
1.5023
1.49935
1.49319
1.48194
1.46554
1.44615
1.42775
1.41503
1.40481
1.3962
1.38597
1.37102
1.35408
1.33743
1.32073
1.31371
1.30879
1.30245
1.29372
1.28432
1.27441
1.26373
1.2517
1.24093
1.2319
1.23069
1.23448
1.24479
1.26039
1.27139
1.27782
1.28939
1.30599
1.32016
1.3363
1.3574
1.36714
1.36928
1.36811
1.36435
1.35335
1.34299
1.33926
1.58131
1.58223
1.58168
1.58052
1.5784
1.57582
1.5688
1.55014
1.5222
1.48627
1.45181
1.40819
1.41764
1.52136
1.70076
1.83037
1.83745
1.8158
1.77506
1.7347
1.69896
1.66638
1.63582
1.60654
1.57742
1.54854
1.52164
1.49693
1.47248
1.44811
1.42516
1.40144
1.37767
1.36263
1.34984
1.33412
1.31727
1.29981
1.28132
1.26398
1.25155
1.24757
1.24098
1.23936
1.25659
1.30674
1.38552
1.45391
1.50623
1.5558
1.56555
1.5596
1.53635
1.5183
1.50586
1.49136
1.4767
1.46238
1.44603
1.42999
1.41731
1.40619
1.39545
1.3845
1.37184
1.35743
1.34266
1.32952
1.31971
1.31051
1.30138
1.29362
1.28562
1.27651
1.26573
1.25305
1.24192
1.23182
1.2242
1.22163
1.21827
1.21401
1.21013
1.20247
1.18905
1.18794
1.19391
1.20828
1.23114
1.25505
1.27256
1.28733
1.29695
1.3028
1.3067
1.31922
1.58637
1.58591
1.5849
1.58246
1.57822
1.56977
1.55302
1.51967
1.48295
1.44735
1.40728
1.36284
1.32924
1.3184
1.37394
1.54003
1.701
1.75423
1.74397
1.71146
1.67597
1.64485
1.61717
1.59081
1.56353
1.53603
1.51082
1.48815
1.46625
1.44471
1.42563
1.40588
1.38343
1.36544
1.35428
1.33999
1.32366
1.30864
1.29469
1.27908
1.26612
1.26892
1.29617
1.36699
1.45349
1.53122
1.57024
1.5958
1.60286
1.59995
1.58854
1.56313
1.54003
1.52685
1.5131
1.49598
1.48012
1.46646
1.45112
1.43394
1.42089
1.41096
1.40075
1.38894
1.37606
1.36279
1.35104
1.33854
1.32553
1.31398
1.30428
1.29673
1.28909
1.28115
1.27233
1.26074
1.2464
1.2339
1.22592
1.22062
1.21471
1.20743
1.20147
1.19417
1.18245
1.16843
1.15667
1.15128
1.1504
1.15257
1.15648
1.16206
1.17075
1.18164
1.19313
1.22494
1.58161
1.58149
1.58064
1.57777
1.57021
1.55202
1.52032
1.47714
1.43696
1.39646
1.34822
1.31636
1.28244
1.2503
1.22429
1.25298
1.38774
1.57207
1.6785
1.6771
1.65703
1.6274
1.59788
1.57051
1.54486
1.52226
1.50268
1.4838
1.46527
1.44706
1.4302
1.4146
1.39613
1.37529
1.36239
1.3513
1.33645
1.3247
1.31428
1.31739
1.3481
1.41632
1.51205
1.58423
1.6361
1.65213
1.64392
1.62646
1.61393
1.59752
1.57801
1.55708
1.54663
1.54257
1.53121
1.50906
1.48787
1.4714
1.4563
1.44266
1.43079
1.41936
1.40851
1.39602
1.38063
1.36804
1.35899
1.34842
1.33473
1.321
1.30838
1.29936
1.29495
1.28921
1.28041
1.26778
1.25285
1.23659
1.22261
1.21615
1.21065
1.20379
1.19667
1.1883
1.17806
1.1684
1.15817
1.14829
1.13969
1.13471
1.13047
1.12614
1.12242
1.11905
1.11503
1.12052
1.58022
1.58022
1.57773
1.5716
1.55
1.5168
1.47269
1.42119
1.37812
1.3379
1.29531
1.25765
1.22483
1.1939
1.16971
1.14279
1.15401
1.26107
1.45539
1.58852
1.61821
1.60744
1.58426
1.55892
1.53555
1.51646
1.50069
1.48489
1.46807
1.45077
1.43868
1.42869
1.41445
1.39294
1.37605
1.36935
1.35974
1.36639
1.40828
1.49141
1.58201
1.64179
1.69056
1.70321
1.69778
1.6811
1.65784
1.63427
1.61345
1.59367
1.57526
1.56715
1.55933
1.54462
1.52494
1.50633
1.49025
1.47659
1.46549
1.4587
1.45053
1.43603
1.41736
1.39864
1.38195
1.37047
1.36303
1.35456
1.34384
1.33054
1.31728
1.30531
1.29426
1.28571
1.2776
1.26776
1.25514
1.23853
1.22409
1.21767
1.21159
1.20386
1.19634
1.1882
1.17946
1.17179
1.16265
1.1505
1.13915
1.13182
1.12624
1.12057
1.11446
1.10996
1.10691
1.09936
1.5778
1.57445
1.56689
1.54493
1.50662
1.46384
1.40955
1.35342
1.31502
1.27503
1.23038
1.19509
1.16795
1.14206
1.11574
1.08939
1.08125
1.09259
1.16956
1.35421
1.50318
1.57112
1.56817
1.55526
1.53602
1.52013
1.50715
1.49383
1.4779
1.46035
1.4537
1.4501
1.44025
1.42137
1.40877
1.41937
1.467
1.55022
1.6418
1.7194
1.74365
1.73187
1.72362
1.71119
1.69184
1.66844
1.65119
1.64012
1.62902
1.61122
1.59029
1.57041
1.55302
1.53664
1.51914
1.50364
1.49295
1.4848
1.47885
1.46643
1.44745
1.42817
1.41049
1.39758
1.39195
1.38686
1.37882
1.3679
1.34957
1.3259
1.31027
1.30369
1.29676
1.28935
1.28206
1.27315
1.26048
1.24218
1.22543
1.21977
1.21522
1.20773
1.20001
1.192
1.18351
1.17492
1.16537
1.15324
1.14092
1.13328
1.12758
1.12082
1.11265
1.10502
1.09986
1.09355
1.56746
1.55888
1.53743
1.49711
1.4511
1.39793
1.32845
1.28211
1.2472
1.20373
1.1652
1.1368
1.10991
1.08624
1.06556
1.05316
1.04608
1.04167
1.04762
1.10961
1.27281
1.46662
1.54742
1.54625
1.5395
1.53338
1.52581
1.51509
1.50176
1.48362
1.47307
1.47126
1.46825
1.48026
1.52427
1.6204
1.70887
1.76995
1.8026
1.79768
1.78308
1.75875
1.72997
1.7046
1.68097
1.66117
1.65061
1.63958
1.62181
1.6018
1.5852
1.56979
1.55238
1.53493
1.51793
1.50794
1.50394
1.49485
1.47773
1.46089
1.44508
1.42778
1.41207
1.40219
1.39356
1.38397
1.37316
1.3607
1.34678
1.32817
1.31109
1.30503
1.30408
1.3011
1.29424
1.28377
1.26878
1.24884
1.22978
1.22037
1.21738
1.21445
1.2088
1.2004
1.18965
1.17841
1.16701
1.15658
1.14894
1.14165
1.13409
1.12572
1.11508
1.1026
1.09526
1.09058
1.55186
1.53312
1.4915
1.4361
1.38168
1.30724
1.24928
1.21738
1.16826
1.1215
1.1068
1.08899
1.07067
1.05898
1.04951
1.04764
1.04269
1.03905
1.03997
1.04485
1.08432
1.2233
1.44867
1.5279
1.53809
1.54334
1.54468
1.53441
1.52193
1.5104
1.50241
1.51463
1.56802
1.66097
1.74997
1.82804
1.83941
1.8324
1.81706
1.79668
1.7697
1.74567
1.72993
1.71661
1.69963
1.68043
1.65971
1.63716
1.61588
1.59707
1.58189
1.57153
1.56126
1.54876
1.53664
1.52478
1.50685
1.48776
1.47066
1.45578
1.44317
1.43288
1.42355
1.4131
1.40218
1.38956
1.37485
1.35956
1.34453
1.33254
1.32455
1.3161
1.30436
1.29349
1.28349
1.27239
1.25942
1.24643
1.23672
1.22849
1.21821
1.20765
1.19938
1.18933
1.17852
1.17239
1.16662
1.15916
1.14943
1.13824
1.12702
1.11706
1.10719
1.09825
1.09438
1.0893
1.53218
1.49155
1.42512
1.35955
1.28707
1.21251
1.17025
1.13103
1.082
1.06183
1.05188
1.03797
1.03844
1.04156
1.04615
1.04991
1.05375
1.05596
1.05939
1.06368
1.07106
1.09443
1.22112
1.43106
1.5089
1.54735
1.55241
1.55343
1.55369
1.5674
1.61338
1.70035
1.80024
1.85867
1.88755
1.88554
1.87813
1.8591
1.82515
1.78553
1.75678
1.73791
1.72404
1.70886
1.69297
1.67587
1.65739
1.63624
1.61561
1.59806
1.58582
1.57511
1.56131
1.5448
1.52932
1.51618
1.50156
1.48499
1.46994
1.45832
1.44888
1.43761
1.4223
1.40636
1.39487
1.38461
1.37253
1.35912
1.34775
1.33853
1.32786
1.31514
1.30238
1.29149
1.2815
1.27086
1.25936
1.25041
1.24379
1.23488
1.22102
1.20709
1.19735
1.18808
1.17971
1.1756
1.17059
1.16248
1.15213
1.14063
1.12759
1.11575
1.10724
1.10073
1.0972
1.09127
1.49576
1.41131
1.33347
1.25485
1.16064
1.12236
1.10631
1.07814
1.06885
1.06362
1.049
1.04773
1.05097
1.05942
1.07052
1.07756
1.08166
1.08662
1.08858
1.09077
1.09019
1.09199
1.10587
1.21448
1.36969
1.49278
1.54268
1.60524
1.67673
1.75271
1.81904
1.86088
1.89222
1.911
1.904
1.88426
1.86207
1.83675
1.81018
1.78543
1.76518
1.7489
1.7325
1.7146
1.69662
1.67934
1.66195
1.64326
1.62617
1.61256
1.60068
1.58746
1.57163
1.55301
1.53204
1.51315
1.50041
1.48989
1.48053
1.47276
1.46367
1.4506
1.43217
1.41095
1.39516
1.38602
1.37734
1.36899
1.36124
1.35211
1.339
1.32137
1.30523
1.29421
1.28548
1.27762
1.2711
1.26527
1.25787
1.24614
1.22825
1.21102
1.20024
1.19401
1.19087
1.18711
1.18084
1.17224
1.16222
1.14932
1.13126
1.11634
1.11123
1.10784
1.10537
1.09953
1.39759
1.23756
1.11771
1.00195
0.964883
0.986048
1.0134
1.01878
1.03679
1.06439
1.07603
1.07982
1.08773
1.10442
1.11026
1.10924
1.11058
1.11657
1.11645
1.1155
1.11249
1.10734
1.10754
1.1151
1.17379
1.32398
1.56502
1.7565
1.89058
2.00127
2.05205
2.04072
2.01507
1.96855
1.91518
1.87713
1.84862
1.8236
1.79785
1.77633
1.75855
1.74317
1.72647
1.70778
1.68848
1.66915
1.65048
1.63292
1.61697
1.60356
1.5918
1.57955