/*--------------------------------*- C++ -*----------------------------------*\
  =========                 |
  \\      /  F ield         | OpenFOAM: The Open Source CFD Toolbox
   \\    /   O peration     | Website:  https://openfoam.org
    \\  /    A nd           | Version:  7
     \\/     M anipulation  |
\*---------------------------------------------------------------------------*/
FoamFile
{
    version     2.0;
    format      ascii;
    class       volVectorField;
    location    "0.9";
    object      U;
}
// * * * * * * * * * * * * * * * * * * * * * * * * * * * * * * * * * * * * * //

dimensions      [0 1 -1 0 0 0 0];

internalField   nonuniform List<vector> 
4608
(
(3 9.24697e-17 0)
(3 1.35158e-16 0)
(3 -1.07962e-16 0)
(3 4.75949e-18 0)
(3 7.00962e-17 0)
(3 -4.31643e-16 0)
(3 -3.24926e-16 0)
(3 2.63602e-16 0)
(3 6.40157e-16 0)
(3 7.04677e-16 0)
(3 1.23319e-15 0)
(3 1.63652e-15 0)
(3 1.09265e-15 0)
(3 1.18511e-16 0)
(3 -6.83885e-16 0)
(3 -5.30717e-16 0)
(3 -4.38546e-16 0)
(3 -3.26889e-16 0)
(3 -1.15658e-16 0)
(3 -2.66959e-16 0)
(3 9.94971e-18 0)
(3 1.16877e-15 0)
(3 1.81639e-15 0)
(3 1.42056e-15 0)
(3 7.56775e-17 0)
(3 2.60532e-16 0)
(3 -1.09209e-16 0)
(3 1.51333e-16 0)
(3 3.0995e-16 0)
(3 5.13527e-17 0)
(3 5.2093e-17 0)
(3 7.00159e-16 0)
(3 1.18125e-15 0)
(3 7.0306e-16 0)
(3 6.14118e-16 0)
(3 7.72756e-16 0)
(3 3.46136e-16 0)
(3 -2.77329e-16 0)
(3 -1.3796e-15 0)
(3 -1.61193e-15 0)
(3 -1.6118e-15 0)
(3 -1.30746e-15 0)
(3 -9.59697e-16 0)
(3 -5.22452e-16 0)
(3 -2.59183e-16 0)
(3 8.58354e-16 0)
(3 2.24914e-15 0)
(3 2.92587e-15 0)
(3 -1.14383e-16 0)
(3 -1.30068e-16 0)
(3 7.16297e-17 0)
(3 4.61546e-16 0)
(3 8.66768e-16 0)
(3 1.08952e-15 0)
(3 9.60752e-16 0)
(3 8.81193e-16 0)
(3 1.03237e-15 0)
(3 5.09667e-16 0)
(3 -8.14914e-16 0)
(3 -1.37946e-15 0)
(3 -8.83512e-16 0)
(3 -2.45009e-16 0)
(3 8.40528e-17 0)
(3 -3.04937e-16 0)
(3 -2.4482e-16 0)
(3 -9.96647e-16 0)
(3 -1.8152e-15 0)
(3 -1.64017e-15 0)
(3 5.0381e-16 0)
(3 1.03917e-15 0)
(3 2.3939e-15 0)
(3 3.14229e-15 0)
(3 1.85981e-16 0)
(3 -1.63838e-16 0)
(3 5.42174e-16 0)
(3 9.52714e-16 0)
(3 1.12724e-15 0)
(3 9.45005e-16 0)
(3 1.07511e-15 0)
(3 1.12965e-15 0)
(3 3.60222e-16 0)
(3 -5.08146e-17 0)
(3 -3.7434e-16 0)
(3 -4.61151e-16 0)
(3 -8.54114e-17 0)
(3 9.51305e-16 0)
(3 8.70326e-16 0)
(3 1.59801e-15 0)
(3 1.71983e-15 0)
(3 1.10928e-15 0)
(3 -3.02628e-16 0)
(3 -1.44062e-15 0)
(3 4.21348e-17 0)
(3 1.86185e-15 0)
(3 1.97276e-15 0)
(3 2.15242e-15 0)
(3 3.05257e-18 0)
(3 -1.00507e-18 0)
(3 5.16971e-16 0)
(3 3.79152e-16 0)
(3 -1.38979e-16 0)
(3 -3.33434e-16 0)
(3 4.3046e-16 0)
(3 7.07217e-16 0)
(3 6.01537e-16 0)
(3 7.17181e-16 0)
(3 1.08613e-15 0)
(3 1.08772e-15 0)
(3 6.92665e-16 0)
(3 6.53053e-16 0)
(3 6.41206e-16 0)
(3 9.03558e-16 0)
(3 1.366e-15 0)
(3 1.45123e-15 0)
(3 9.4111e-16 0)
(3 3.41081e-17 0)
(3 -5.72555e-16 0)
(3 -2.60314e-16 0)
(3 1.39089e-15 0)
(3 1.98202e-15 0)
(3 -1.74086e-16 0)
(3 5.52606e-17 0)
(3 -1.33319e-16 0)
(3 -3.33032e-16 0)
(3 -3.47179e-16 0)
(3 -3.27782e-16 0)
(3 -9.82425e-16 0)
(3 -2.75923e-16 0)
(3 2.17408e-16 0)
(3 6.10261e-16 0)
(3 1.16738e-15 0)
(3 1.12293e-15 0)
(3 1.16786e-15 0)
(3 4.24094e-16 0)
(3 2.33787e-17 0)
(3 -2.39345e-16 0)
(3 2.56621e-17 0)
(3 2.0778e-16 0)
(3 5.63215e-16 0)
(3 4.23838e-16 0)
(3 -4.79661e-16 0)
(3 -1.45837e-16 0)
(3 2.26171e-15 0)
(3 6.00674e-16 0)
(3 3.08087e-16 0)
(3 -1.18754e-17 0)
(3 -9.36467e-16 0)
(3 -1.14135e-15 0)
(3 -2.27259e-16 0)
(3 -1.17184e-16 0)
(3 -4.50041e-16 0)
(3 -4.24211e-17 0)
(3 6.78715e-17 0)
(3 3.39143e-17 0)
(3 1.38074e-16 0)
(3 5.78328e-16 0)
(3 1.02395e-15 0)
(3 3.16077e-16 0)
(3 -2.619e-16 0)
(3 -7.12075e-16 0)
(3 -1.1998e-15 0)
(3 -1.00733e-15 0)
(3 5.44153e-17 0)
(3 1.01165e-15 0)
(3 1.07601e-15 0)
(3 8.73681e-16 0)
(3 1.41508e-15 0)
(3 -1.09047e-15 0)
(3 1.6955e-16 0)
(3 8.33346e-17 0)
(3 -5.36935e-16 0)
(3 -1.27688e-15 0)
(3 -1.55844e-15 0)
(3 -7.18954e-16 0)
(3 3.09495e-16 0)
(3 5.18977e-16 0)
(3 4.89589e-16 0)
(3 5.65653e-16 0)
(3 7.16998e-16 0)
(3 7.49591e-16 0)
(3 7.69687e-16 0)
(3 4.4486e-16 0)
(3 4.28695e-16 0)
(3 1.68517e-16 0)
(3 -3.11631e-16 0)
(3 -1.15808e-16 0)
(3 3.25439e-16 0)
(3 1.44129e-15 0)
(3 1.84225e-15 0)
(3 2.16897e-15 0)
(3 2.17853e-15 0)
(3 4.34486e-16 0)
(3 -1.06772e-16 0)
(3 4.58861e-16 0)
(3 4.36364e-16 0)
(3 9.67306e-17 0)
(3 -9.15278e-16 0)
(3 -5.18632e-16 0)
(3 7.21769e-16 0)
(3 1.05139e-15 0)
(3 8.08734e-16 0)
(3 8.68871e-16 0)
(3 1.06066e-15 0)
(3 1.04466e-15 0)
(3 1.33376e-15 0)
(3 1.76899e-15 0)
(3 1.45939e-15 0)
(3 1.30649e-15 0)
(3 1.29775e-15 0)
(3 1.41987e-15 0)
(3 7.38731e-16 0)
(3 6.05833e-16 0)
(3 8.2949e-16 0)
(3 1.46242e-15 0)
(3 1.50331e-15 0)
(3 4.28838e-16 0)
(3 -2.05999e-16 0)
(3 6.02509e-17 0)
(3 -4.31123e-16 0)
(3 -4.63139e-16 0)
(3 -8.3806e-16 0)
(3 -6.90901e-16 0)
(3 3.53428e-16 0)
(3 6.44429e-16 0)
(3 1.00282e-15 0)
(3 1.05014e-15 0)
(3 1.0412e-15 0)
(3 1.36696e-15 0)
(3 1.86755e-15 0)
(3 2.90343e-15 0)
(3 3.01955e-15 0)
(3 2.55026e-15 0)
(3 2.02988e-15 0)
(3 1.29698e-15 0)
(3 1.04072e-15 0)
(3 4.64071e-16 0)
(3 3.87633e-16 0)
(3 9.3123e-16 0)
(3 1.58395e-15 0)
(3 1.48587e-15 0)
(3 4.35405e-17 0)
(3 -2.91601e-16 0)
(3 -3.51355e-16 0)
(3 -5.33761e-16 0)
(3 -5.8744e-16 0)
(3 -4.00564e-16 0)
(3 1.22342e-16 0)
(3 8.61442e-16 0)
(3 1.30628e-15 0)
(3 8.29411e-16 0)
(3 4.49588e-16 0)
(3 6.41876e-16 0)
(3 1.1041e-15 0)
(3 2.81485e-15 0)
(3 3.92305e-15 0)
(3 2.9249e-15 0)
(3 2.3354e-15 0)
(3 1.6492e-15 0)
(3 9.80155e-16 0)
(3 3.551e-16 0)
(3 2.79739e-16 0)
(3 5.78359e-16 0)
(3 1.3978e-15 0)
(3 1.84902e-15 0)
(3 3.0956e-17 0)
(3 1.3668e-16 0)
(3 4.25115e-16 0)
(3 8.37361e-16 0)
(3 1.13461e-15 0)
(3 6.51225e-16 0)
(3 4.06313e-16 0)
(3 9.64266e-16 0)
(3 1.04294e-15 0)
(3 7.41046e-16 0)
(3 1.80234e-16 0)
(3 1.89522e-16 0)
(3 2.34897e-16 0)
(3 6.39726e-16 0)
(3 2.68029e-16 0)
(3 7.9047e-17 0)
(3 2.45737e-16 0)
(3 7.50892e-17 0)
(3 -8.51697e-17 0)
(3 -1.62784e-17 0)
(3 -8.86903e-17 0)
(3 4.82099e-16 0)
(3 8.61055e-16 0)
(3 1.2543e-15 0)
(3 -1.77165e-16 0)
(3 -7.99088e-17 0)
(3 2.36295e-16 0)
(3 4.43228e-16 0)
(3 6.30192e-16 0)
(3 8.80124e-16 0)
(3 6.92196e-16 0)
(3 4.70129e-16 0)
(3 1.99562e-16 0)
(3 3.1393e-16 0)
(3 1.56799e-15 0)
(3 9.75581e-16 0)
(3 -1.51015e-15 0)
(3 -2.38259e-15 0)
(3 -2.03382e-15 0)
(3 -1.04651e-15 0)
(3 -4.76674e-16 0)
(3 -9.30133e-16 0)
(3 -1.14861e-15 0)
(3 -5.60584e-16 0)
(3 9.57573e-17 0)
(3 5.23672e-16 0)
(3 6.17208e-16 0)
(3 3.11589e-16 0)
(3 -3.40174e-17 0)
(3 -5.03165e-17 0)
(3 1.37691e-16 0)
(3 1.6561e-16 0)
(3 1.63939e-16 0)
(3 5.60302e-16 0)
(3 2.31726e-16 0)
(3 4.93841e-17 0)
(3 -4.93449e-16 0)
(3 1.74881e-16 0)
(3 3.62426e-16 0)
(3 -1.29039e-15 0)
(3 -2.42951e-15 0)
(3 -2.15275e-15 0)
(3 -1.09618e-15 0)
(3 5.0215e-16 0)
(3 5.06794e-16 0)
(3 -4.32017e-18 0)
(3 -1.99069e-16 0)
(3 5.82913e-17 0)
(3 8.82546e-16 0)
(3 1.33247e-15 0)
(3 5.0393e-16 0)
(3 2.18405e-16 0)
(3 6.38475e-18 0)
(3 -3.80235e-17 0)
(3 6.99971e-17 0)
(3 2.57756e-16 0)
(3 2.25413e-16 0)
(3 4.19689e-17 0)
(3 -5.11272e-16 0)
(3 -1.46231e-15 0)
(3 -1.19693e-15 0)
(3 -2.86922e-16 0)
(3 -6.44602e-16 0)
(3 -2.07162e-15 0)
(3 -2.46411e-15 0)
(3 -2.7258e-15 0)
(3 -1.21822e-15 0)
(3 2.45804e-16 0)
(3 8.3727e-16 0)
(3 5.27383e-16 0)
(3 -4.04348e-16 0)
(3 -6.37724e-16 0)
(3 3.26378e-16 0)
(3 3.99925e-16 0)
(3 -2.5787e-16 0)
(3 1.17494e-16 0)
(3 1.00369e-16 0)
(3 7.38463e-17 0)
(3 -8.98842e-17 0)
(3 -2.36529e-16 0)
(3 -1.7411e-17 0)
(3 -1.69192e-16 0)
(3 -1.23246e-16 0)
(3 -1.88903e-16 0)
(3 1.52798e-16 0)
(3 2.68941e-17 0)
(3 -1.00927e-15 0)
(3 -1.80451e-15 0)
(3 -1.82216e-15 0)
(3 -1.51277e-15 0)
(3 -4.78375e-17 0)
(3 6.43423e-16 0)
(3 1.06631e-15 0)
(3 6.52844e-16 0)
(3 -3.17707e-16 0)
(3 -1.20265e-15 0)
(3 -1.33664e-15 0)
(3 -1.94909e-15 0)
(3 -1.85165e-15 0)
(3 -9.26838e-16 0)
(3 4.28697e-17 0)
(3 3.83745e-16 0)
(3 7.21894e-16 0)
(3 4.79683e-16 0)
(3 9.11679e-16 0)
(3 7.3146e-16 0)
(3 8.99761e-16 0)
(3 7.04853e-16 0)
(3 6.13607e-17 0)
(3 -1.1e-16 0)
(3 5.35232e-16 0)
(3 6.27766e-16 0)
(3 3.36081e-16 0)
(3 2.74152e-16 0)
(3 8.35175e-16 0)
(3 1.43158e-15 0)
(3 1.92338e-15 0)
(3 2.32449e-15 0)
(3 2.093e-15 0)
(3 1.10945e-15 0)
(3 -2.66479e-16 0)
(3 -1.19802e-15 0)
(3 -2.11591e-15 0)
(3 -2.66873e-15 0)
(3 8.74996e-17 0)
(3 2.6594e-16 0)
(3 5.53548e-16 0)
(3 8.38476e-16 0)
(3 6.53896e-16 0)
(3 7.54176e-16 0)
(3 3.28728e-16 0)
(3 2.13922e-16 0)
(3 -5.91167e-16 0)
(3 -4.83347e-16 0)
(3 4.41022e-16 0)
(3 4.13079e-16 0)
(3 -4.25074e-16 0)
(3 -1.09214e-15 0)
(3 -2.0094e-17 0)
(3 3.8571e-16 0)
(3 1.65275e-15 0)
(3 3.46796e-15 0)
(3 4.54884e-15 0)
(3 4.5642e-15 0)
(3 1.36998e-15 0)
(3 -1.90356e-15 0)
(3 -2.02457e-15 0)
(3 -1.76473e-15 0)
(3 1.67329e-17 0)
(3 3.71748e-16 0)
(3 -2.63782e-16 0)
(3 -7.49989e-16 0)
(3 -8.41428e-16 0)
(3 -5.1402e-16 0)
(3 -3.66292e-16 0)
(3 -4.60905e-18 0)
(3 -3.13255e-16 0)
(3 -6.04255e-16 0)
(3 -6.99472e-16 0)
(3 -1.03654e-15 0)
(3 -1.47608e-15 0)
(3 -1.3177e-15 0)
(3 -5.62965e-16 0)
(3 -7.46042e-16 0)
(3 -2.49954e-16 0)
(3 1.587e-15 0)
(3 3.44236e-15 0)
(3 3.56136e-15 0)
(3 1.08505e-15 0)
(3 -9.72961e-16 0)
(3 -8.60994e-16 0)
(3 -2.73605e-16 0)
(3 -8.99476e-17 0)
(3 -2.53793e-16 0)
(3 -1.92016e-16 0)
(3 -2.56641e-16 0)
(3 2.75711e-16 0)
(3 2.60881e-16 0)
(3 9.2825e-17 0)
(3 -1.77941e-16 0)
(3 -5.14277e-16 0)
(3 -1.35238e-15 0)
(3 -1.49392e-15 0)
(3 -7.02979e-16 0)
(3 -6.17215e-17 0)
(3 3.41394e-16 0)
(3 1.42042e-15 0)
(3 9.44495e-16 0)
(3 5.71121e-16 0)
(3 2.01027e-16 0)
(3 6.48899e-17 0)
(3 1.12331e-15 0)
(3 1.01749e-15 0)
(3 6.75795e-17 0)
(3 -4.95691e-16 0)
(3 -1.35236e-16 0)
(3 -1.14408e-16 0)
(3 -3.62491e-16 0)
(3 3.20154e-16 0)
(3 5.64822e-16 0)
(3 7.1869e-16 0)
(3 3.22423e-16 0)
(3 -1.93799e-16 0)
(3 -3.95945e-16 0)
(3 -9.85095e-16 0)
(3 -1.65637e-15 0)
(3 -2.73176e-15 0)
(3 -2.19972e-15 0)
(3 8.53109e-17 0)
(3 1.18681e-15 0)
(3 1.35249e-15 0)
(3 9.6777e-16 0)
(3 -1.3054e-16 0)
(3 -8.44633e-16 0)
(3 -5.9947e-16 0)
(3 5.26704e-16 0)
(3 1.00373e-15 0)
(3 1.63844e-15 0)
(3 1.48308e-15 0)
(3 4.68522e-16 0)
(3 -8.49796e-17 0)
(3 -1.06973e-16 0)
(3 7.31351e-17 0)
(3 8.28122e-16 0)
(3 8.12231e-16 0)
(3 5.24022e-17 0)
(3 -4.85759e-16 0)
(3 -9.25369e-16 0)
(3 -1.09919e-15 0)
(3 -1.16508e-15 0)
(3 -1.05146e-15 0)
(3 -4.23899e-16 0)
(3 1.05432e-15 0)
(3 1.06477e-15 0)
(3 4.08508e-16 0)
(3 -7.10349e-16 0)
(3 -1.34456e-15 0)
(3 -5.29131e-16 0)
(3 3.96329e-16 0)
(3 6.72621e-16 0)
(3 1.12548e-15 0)
(3 1.55645e-15 0)
(3 1.93668e-15 0)
(3 8.90226e-16 0)
(3 3.69178e-17 0)
(3 2.07387e-16 0)
(3 8.11737e-17 0)
(3 7.94656e-18 0)
(3 -1.17762e-16 0)
(3 -4.59163e-16 0)
(3 -6.96927e-16 0)
(3 -7.09611e-16 0)
(3 -3.09503e-16 0)
(3 6.24427e-16 0)
(3 1.17667e-15 0)
(3 1.52631e-15 0)
(3 1.67816e-15 0)
(3 1.09239e-15 0)
(3 -1.35732e-17 0)
(3 -1.22231e-15 0)
(3 -1.80745e-15 0)
(3 -1.17064e-15 0)
(3 -8.77128e-16 0)
(3 -1.26721e-15 0)
(3 -9.19419e-16 0)
(3 -8.25977e-16 0)
(3 -7.08115e-16 0)
(3 -9.61951e-16 0)
(3 1.44521e-16 0)
(3 7.248e-16 0)
(3 3.02281e-16 0)
(3 2.22082e-17 0)
(3 3.97738e-17 0)
(3 -1.34367e-16 0)
(3 -3.20501e-16 0)
(3 -1.53273e-16 0)
(3 3.6042e-16 0)
(3 9.27603e-16 0)
(3 1.12976e-15 0)
(3 1.20414e-15 0)
(3 1.48184e-15 0)
(3 9.85707e-16 0)
(3 6.81342e-16 0)
(3 1.28555e-16 0)
(3 2.64746e-17 0)
(3 -4.93016e-16 0)
(3 1.32314e-16 0)
(3 -1.46918e-16 0)
(3 -2.15344e-16 0)
(3 -6.09432e-16 0)
(3 -1.0358e-15 0)
(3 -1.45831e-15 0)
(3 7.83352e-17 0)
(3 -1.23147e-16 0)
(3 -1.58257e-16 0)
(3 -1.08592e-18 0)
(3 1.90052e-16 0)
(3 1.33754e-16 0)
(3 6.86382e-16 0)
(3 9.73134e-16 0)
(3 5.30184e-16 0)
(3 2.46451e-16 0)
(3 4.93725e-17 0)
(3 3.32058e-16 0)
(3 8.17332e-16 0)
(3 2.24674e-15 0)
(3 9.71262e-16 0)
(3 9.05744e-17 0)
(3 -2.45808e-16 0)
(3 -1.12753e-15 0)
(3 -1.26134e-15 0)
(3 -1.16322e-15 0)
(3 -1.2486e-15 0)
(3 -1.38443e-15 0)
(3 -2.06186e-15 0)
(3 -1.7254e-15 0)
(3 4.9922e-18 0)
(3 -6.78846e-16 0)
(3 -7.96821e-16 0)
(3 -1.0504e-15 0)
(3 -1.26679e-15 0)
(3 -7.58843e-16 0)
(3 -1.14871e-16 0)
(3 9.86695e-17 0)
(3 9.48735e-18 0)
(3 7.80022e-17 0)
(3 -8.80267e-17 0)
(3 -4.68789e-16 0)
(3 -7.03568e-16 0)
(3 -7.76567e-16 0)
(3 -1.39278e-15 0)
(3 -2.01779e-15 0)
(3 -1.3638e-15 0)
(3 -1.25838e-15 0)
(3 -1.54782e-15 0)
(3 -1.34268e-15 0)
(3 -1.56209e-15 0)
(3 -2.20643e-15 0)
(3 -2.09623e-15 0)
(3 -1.55967e-15 0)
(3 1.26722e-16 0)
(3 -4.17627e-17 0)
(3 -6.1186e-16 0)
(3 -8.9365e-16 0)
(3 -7.74471e-16 0)
(3 -2.61674e-16 0)
(3 8.81913e-17 0)
(3 3.61457e-17 0)
(3 2.66182e-16 0)
(3 2.63136e-16 0)
(3 5.19609e-16 0)
(3 -8.76684e-17 0)
(3 -1.09873e-15 0)
(3 -1.55473e-15 0)
(3 -7.30264e-16 0)
(3 -4.49599e-17 0)
(3 -1.76441e-16 0)
(3 -1.85674e-16 0)
(3 -1.65325e-16 0)
(3 3.69197e-16 0)
(3 -4.48599e-16 0)
(3 -1.02567e-15 0)
(3 -3.94904e-16 0)
(3 -5.10517e-16 0)
(3 1.46776e-16 0)
(3 -4.36278e-17 0)
(3 -5.3969e-16 0)
(3 -8.1439e-16 0)
(3 -9.68238e-16 0)
(3 -6.60574e-16 0)
(3 2.66923e-16 0)
(3 5.19299e-16 0)
(3 1.01917e-15 0)
(3 9.43892e-16 0)
(3 1.13619e-15 0)
(3 6.05084e-16 0)
(3 -6.52428e-17 0)
(3 -3.01372e-16 0)
(3 9.76461e-17 0)
(3 6.87697e-16 0)
(3 2.14385e-16 0)
(3 4.62652e-17 0)
(3 -4.25561e-16 0)
(3 -3.42419e-16 0)
(3 -1.46631e-16 0)
(3 -8.49542e-16 0)
(3 -6.64794e-16 0)
(3 -1.43827e-15 0)
(3 -6.72639e-17 0)
(3 -6.53368e-17 0)
(3 1.22179e-16 0)
(3 5.44694e-16 0)
(3 1.64819e-16 0)
(3 -3.0046e-17 0)
(3 4.70237e-17 0)
(3 8.72079e-16 0)
(3 1.25692e-15 0)
(3 1.26139e-15 0)
(3 1.17168e-15 0)
(3 1.67287e-15 0)
(3 2.06208e-15 0)
(3 1.88964e-15 0)
(3 1.20038e-15 0)
(3 5.28383e-16 0)
(3 5.54294e-16 0)
(3 8.03141e-16 0)
(3 8.09726e-16 0)
(3 3.23506e-16 0)
(3 -3.70545e-16 0)
(3 -8.53777e-16 0)
(3 -7.48278e-16 0)
(3 -2.45272e-15 0)
(3 -3.9498e-16 0)
(3 3.05102e-16 0)
(3 4.75346e-16 0)
(3 7.22853e-16 0)
(3 1.20912e-15 0)
(3 9.38945e-16 0)
(3 -2.26729e-16 0)
(3 -3.85761e-16 0)
(3 5.81738e-16 0)
(3 9.23586e-16 0)
(3 1.41815e-15 0)
(3 2.37788e-15 0)
(3 2.86955e-15 0)
(3 2.3626e-15 0)
(3 8.98991e-16 0)
(3 2.69257e-16 0)
(3 2.27187e-16 0)
(3 9.35355e-16 0)
(3 1.605e-15 0)
(3 4.4563e-16 0)
(3 -4.86263e-16 0)
(3 -3.56031e-16 0)
(3 -1.93508e-16 0)
(3 -8.01718e-16 0)
(3 -2.37878e-16 0)
(3 -3.42013e-16 0)
(3 -4.05368e-16 0)
(3 -1.09538e-15 0)
(3 -6.92502e-16 0)
(3 -3.62559e-16 0)
(3 -2.08371e-17 0)
(3 -3.36595e-16 0)
(3 -1.43598e-16 0)
(3 5.13137e-16 0)
(3 5.58539e-16 0)
(3 3.71419e-16 0)
(3 3.72592e-17 0)
(3 5.93009e-16 0)
(3 5.32027e-16 0)
(3 3.88583e-16 0)
(3 4.03789e-16 0)
(3 7.00802e-16 0)
(3 9.62721e-16 0)
(3 -1.95695e-16 0)
(3 8.62389e-16 0)
(3 6.90292e-16 0)
(3 -3.41327e-16 0)
(3 -4.57524e-16 0)
(3 -2.6422e-17 0)
(3 -3.07735e-16 0)
(3 -2.76545e-16 0)
(3 -6.33963e-16 0)
(3 -9.20258e-16 0)
(3 -2.5989e-16 0)
(3 3.94911e-16 0)
(3 9.26716e-16 0)
(3 4.59149e-16 0)
(3 3.46894e-16 0)
(3 1.61394e-16 0)
(3 9.48402e-17 0)
(3 -1.88442e-16 0)
(3 3.5345e-16 0)
(3 8.82701e-16 0)
(3 8.68431e-16 0)
(3 8.95492e-16 0)
(3 3.24963e-16 0)
(3 1.58962e-16 0)
(3 -1.0762e-16 0)
(3 -1.13863e-16 0)
(3 -3.43259e-16 0)
(3 -1.03011e-15 0)
(3 -1.05924e-15 0)
(2.93133 0.0316468 0)
(2.85698 0.031526 0)
(2.747 0.171377 0)
(2.67682 0.232966 0)
(2.57647 0.347564 0)
(2.4951 0.449731 0)
(2.43047 0.540982 0)
(2.34769 0.62534 0)
(2.31115 0.72573 0)
(2.25848 0.798523 0)
(2.25113 0.855078 0)
(2.28216 0.889031 0)
(2.32175 0.895288 0)
(2.33719 0.884833 0)
(2.34755 0.879186 0)
(2.34928 0.867477 0)
(2.34738 0.859515 0)
(2.34468 0.851606 0)
(2.34403 0.84833 0)
(2.34263 0.848311 0)
(2.33956 0.847664 0)
(2.33749 0.848253 0)
(2.33666 0.848955 0)
(2.33806 0.849552 0)
(2.99862 0.00147439 0)
(2.99144 0.0101563 0)
(2.95872 0.0502679 0)
(2.90234 0.13349 0)
(2.80505 0.273722 0)
(2.6738 0.469194 0)
(2.54684 0.676038 0)
(2.36906 0.908203 0)
(2.22296 1.0688 0)
(2.17599 1.10046 0)
(2.14732 1.04546 0)
(2.17956 1.00264 0)
(2.24949 0.952297 0)
(2.30506 0.896597 0)
(2.32545 0.85785 0)
(2.34865 0.831184 0)
(2.35486 0.837887 0)
(2.35675 0.841418 0)
(2.3548 0.841993 0)
(2.35247 0.842501 0)
(2.34798 0.844235 0)
(2.34423 0.845708 0)
(2.3417 0.847428 0)
(2.34028 0.849048 0)
(3 2.23003e-07 0)
(3.00002 -3.1006e-05 0)
(2.99991 0.000114618 0)
(2.99988 0.000187472 0)
(2.99865 0.00179664 0)
(2.99121 0.013102 0)
(2.96683 0.0511623 0)
(2.89327 0.181051 0)
(2.78199 0.403004 0)
(2.60037 0.695351 0)
(2.43501 0.859798 0)
(2.33581 0.927746 0)
(2.3002 0.917244 0)
(2.30125 0.901592 0)
(2.30848 0.888253 0)
(2.34221 0.864248 0)
(2.35313 0.866485 0)
(2.35615 0.853317 0)
(2.35703 0.848071 0)
(2.35836 0.845067 0)
(2.35792 0.844773 0)
(2.35373 0.846813 0)
(2.34881 0.850098 0)
(2.34548 0.852911 0)
(3 -3.41857e-09 0)
(3 -1.34488e-06 0)
(3 -1.81747e-06 0)
(3 -9.30938e-07 0)
(3 -8.21016e-06 0)
(2.99999 2.27862e-05 0)
(3.00006 -0.000127568 0)
(2.99919 0.00132267 0)
(2.99049 0.0175562 0)
(2.90702 0.150263 0)
(2.69501 0.472356 0)
(2.52471 0.710732 0)
(2.31085 0.924241 0)
(2.26847 0.965238 0)
(2.28099 0.942973 0)
(2.30637 0.908004 0)
(2.32888 0.887715 0)
(2.34132 0.869197 0)
(2.35551 0.852894 0)
(2.36148 0.842143 0)
(2.36193 0.843604 0)
(2.36095 0.845165 0)
(2.35732 0.845351 0)
(2.35049 0.84995 0)
(3 -2.44094e-10 0)
(3 3.15084e-09 0)
(3 -6.63248e-08 0)
(3 -8.84449e-08 0)
(3 -4.76488e-07 0)
(3 -6.71292e-07 0)
(3 -5.94036e-06 0)
(3 -5.59054e-06 0)
(3.00002 -4.3045e-05 0)
(2.99939 0.000556066 0)
(2.98226 0.0249216 0)
(2.89459 0.146325 0)
(2.61166 0.500145 0)
(2.39643 0.775082 0)
(2.3766 0.832632 0)
(2.31004 0.880167 0)
(2.3111 0.88485 0)
(2.32428 0.874923 0)
(2.34405 0.854275 0)
(2.3531 0.852825 0)
(2.3601 0.84632 0)
(2.36065 0.841105 0)
(2.35919 0.839024 0)
(2.35283 0.840789 0)
(3 2.62034e-14 0)
(3 1.49849e-10 0)
(3 2.63456e-10 0)
(3 -5.06433e-10 0)
(3 4.21037e-11 0)
(3 -3.7185e-08 0)
(3 -8.60814e-08 0)
(3 -3.74985e-07 0)
(3 -6.11328e-06 0)
(3 -5.85666e-06 0)
(3.00002 -5.20352e-05 0)
(2.99897 0.00136537 0)
(2.9635 0.0456399 0)
(2.84141 0.201907 0)
(2.57571 0.556058 0)
(2.31343 0.865094 0)
(2.29853 0.85843 0)
(2.30935 0.870731 0)
(2.31168 0.869673 0)
(2.33216 0.862015 0)
(2.34411 0.852298 0)
(2.34676 0.841395 0)
(2.34997 0.837519 0)
(2.34948 0.838172 0)
(3 1.17776e-13 0)
(3 -1.39846e-14 0)
(3 1.58412e-11 0)
(3 1.05715e-11 0)
(3 1.29553e-11 0)
(3 -4.21492e-10 0)
(3 -4.53362e-10 0)
(3 -4.00478e-10 0)
(3 -1.18409e-08 0)
(3 -3.69242e-07 0)
(3 -3.83368e-06 0)
(3.00001 -1.27117e-05 0)
(2.99996 5.17952e-05 0)
(2.99693 0.00471877 0)
(2.93615 0.079042 0)
(2.73179 0.337801 0)
(2.52949 0.612551 0)
(2.29179 0.888675 0)
(2.26211 0.890587 0)
(2.29999 0.863334 0)
(2.3118 0.85562 0)
(2.32579 0.854266 0)
(2.33476 0.84568 0)
(2.33868 0.839649 0)
(3 5.98963e-15 0)
(3 5.99216e-15 0)
(3 5.81746e-16 0)
(3 7.01381e-13 0)
(3 1.41147e-12 0)
(3 3.08187e-12 0)
(3 4.56545e-12 0)
(3 5.85782e-12 0)
(3 8.08662e-11 0)
(3 -1.68114e-10 0)
(3 -1.74246e-08 0)
(3 -1.72629e-06 0)
(3 -1.54903e-06 0)
(3.00001 -1.72678e-05 0)
(2.99951 0.000670134 0)
(2.98649 0.0202155 0)
(2.88613 0.157082 0)
(2.57669 0.54338 0)
(2.46512 0.690657 0)
(2.34519 0.821393 0)
(2.30489 0.86371 0)
(2.30595 0.861546 0)
(2.31795 0.850728 0)
(2.32476 0.838194 0)
(3 -2.53386e-16 0)
(3 8.67946e-16 0)
(3 1.32399e-15 0)
(3 2.69209e-15 0)
(3 3.19007e-14 0)
(3 3.93209e-13 0)
(3 1.4262e-12 0)
(3 2.44079e-12 0)
(3 1.86499e-11 0)
(3 2.04567e-11 0)
(3 1.05492e-10 0)
(3 -1.37785e-08 0)
(3 -1.39617e-07 0)
(3 -3.16292e-06 0)
(3 -1.01578e-06 0)
(3 -9.69479e-06 0)
(2.99714 0.00440699 0)
(2.9461 0.0735198 0)
(2.80813 0.295755 0)
(2.44653 0.722586 0)
(2.37825 0.798197 0)
(2.32859 0.833767 0)
(2.32064 0.837549 0)
(2.31892 0.836632 0)
(3 4.28086e-16 0)
(3 3.35167e-16 0)
(3 7.50125e-16 0)
(3 7.86754e-16 0)
(3 1.05948e-15 0)
(3 5.79274e-15 0)
(3 6.0912e-14 0)
(3 1.86407e-13 0)
(3 7.4829e-13 0)
(3 3.44839e-12 0)
(3 1.82908e-11 0)
(3 9.33021e-11 0)
(3 -8.92381e-10 0)
(3 -4.45028e-08 0)
(3 -4.30887e-07 0)
(3 -9.50904e-07 0)
(3.00001 -1.70319e-05 0)
(2.99951 0.000957481 0)
(2.98807 0.0198497 0)
(2.84034 0.216483 0)
(2.68386 0.478886 0)
(2.39475 0.791008 0)
(2.30705 0.892317 0)
(2.29661 0.854069 0)
(3 1.72841e-15 0)
(3 9.54027e-16 0)
(3 9.6657e-16 0)
(3 1.18192e-15 0)
(3 2.26764e-16 0)
(3 3.73434e-16 0)
(3 -6.69778e-16 0)
(3 3.05591e-15 0)
(3 3.42451e-15 0)
(3 4.03709e-14 0)
(3 8.30427e-13 0)
(3 1.60904e-11 0)
(3 1.25845e-11 0)
(3 2.27916e-10 0)
(3 -7.39326e-09 0)
(3 -1.22272e-07 0)
(3 -2.50056e-06 0)
(3 -4.45769e-06 0)
(2.99995 5.08493e-05 0)
(2.9936 0.0109234 0)
(2.95071 0.0924246 0)
(2.67978 0.44825 0)
(2.48076 0.706853 0)
(2.38193 0.780969 0)
(3 6.19547e-16 0)
(3 1.22706e-15 0)
(3 1.53359e-15 0)
(3 2.27035e-15 0)
(3 1.09557e-15 0)
(3 -4.17076e-16 0)
(3 -6.14291e-16 0)
(3 1.9632e-15 0)
(3 3.9698e-15 0)
(3 6.73452e-16 0)
(3 2.88061e-16 0)
(3 1.9218e-13 0)
(3 2.08513e-12 0)
(3 1.85863e-11 0)
(3 7.65289e-11 0)
(3 -6.28149e-10 0)
(3 -4.15588e-08 0)
(3 -9.32514e-07 0)
(3 -1.43554e-06 0)
(2.99999 8.73762e-06 0)
(2.99851 0.00298161 0)
(2.95975 0.0605221 0)
(2.77154 0.338651 0)
(2.55638 0.634721 0)
(3 -7.28221e-16 0)
(3 -4.79265e-17 0)
(3 1.17613e-16 0)
(3 1.67172e-15 0)
(3 1.87814e-15 0)
(3 3.14332e-16 0)
(3 1.30777e-16 0)
(3 2.92907e-15 0)
(3 5.32117e-15 0)
(3 4.40137e-15 0)
(3 1.28924e-15 0)
(3 1.61568e-15 0)
(3 1.57147e-14 0)
(3 9.32861e-13 0)
(3 1.31949e-11 0)
(3 1.63825e-11 0)
(3 7.27818e-11 0)
(3 -1.58554e-08 0)
(3 -4.95523e-07 0)
(3 -5.0619e-07 0)
(3 6.53021e-07 0)
(2.99925 0.00143156 0)
(2.97588 0.0437816 0)
(2.891 0.205332 0)
(3 1.01013e-16 0)
(3 -5.94244e-16 0)
(3 -4.82258e-16 0)
(3 -8.97117e-17 0)
(3 7.84468e-16 0)
(3 6.9876e-16 0)
(3 6.46556e-17 0)
(3 6.6925e-16 0)
(3 4.8863e-15 0)
(3 5.30736e-15 0)
(3 5.05454e-15 0)
(3 3.64187e-15 0)
(3 3.98382e-15 0)
(3 1.98426e-15 0)
(3 6.19848e-13 0)
(3 3.64468e-12 0)
(3 2.05435e-11 0)
(3 -4.84859e-11 0)
(3 -2.76292e-08 0)
(3 -1.6277e-07 0)
(3 -2.12769e-07 0)
(3 -3.75051e-06 0)
(2.99961 0.000881625 0)
(2.99599 0.011257 0)
(3 5.24609e-16 0)
(3 2.78413e-16 0)
(3 -2.8387e-16 0)
(3 -1.0731e-15 0)
(3 -7.8292e-16 0)
(3 -6.00975e-16 0)
(3 -5.16044e-16 0)
(3 5.0012e-16 0)
(3 2.30252e-15 0)
(3 3.6607e-15 0)
(3 6.27425e-15 0)
(3 7.90107e-15 0)
(3 7.37319e-15 0)
(3 3.47094e-15 0)
(3 2.57522e-15 0)
(3 1.93772e-13 0)
(3 1.87182e-12 0)
(3 2.40921e-12 0)
(3 -1.40633e-10 0)
(3 -7.69351e-09 0)
(3 -4.78917e-08 0)
(3 -8.01705e-07 0)
(3 5.13249e-06 0)
(2.99999 -3.96054e-05 0)
(3 -5.73944e-16 0)
(3 -9.46812e-17 0)
(3 -7.47807e-16 0)
(3 -2.27887e-15 0)
(3 -1.65138e-15 0)
(3 5.6257e-16 0)
(3 1.44888e-15 0)
(3 1.60032e-15 0)
(3 1.24521e-15 0)
(3 2.09544e-15 0)
(3 4.42245e-15 0)
(3 4.05723e-15 0)
(3 2.997e-15 0)
(3 2.32912e-15 0)
(3 4.09562e-16 0)
(3 -9.36675e-16 0)
(3 6.81489e-14 0)
(3 5.30701e-13 0)
(3 1.1269e-12 0)
(3 -5.84879e-11 0)
(3 -2.74e-09 0)
(3 -1.20794e-07 0)
(3 -8.0422e-08 0)
(3 -3.23632e-06 0)
(3 -1.86795e-15 0)
(3 -1.68943e-15 0)
(3 -2.06413e-15 0)
(3 -3.61202e-15 0)
(3 -3.80001e-15 0)
(3 1.22574e-15 0)
(3 4.61851e-15 0)
(3 3.16549e-15 0)
(3 1.44939e-15 0)
(3 9.85849e-16 0)
(3 2.28523e-16 0)
(3 5.38534e-17 0)
(3 -4.30098e-16 0)
(3 2.69414e-16 0)
(3 1.37775e-15 0)
(3 -5.69801e-15 0)
(3 1.27808e-14 0)
(3 -7.07471e-13 0)
(3 -8.68115e-13 0)
(3 4.68305e-11 0)
(3 2.44789e-09 0)
(3 1.11433e-07 0)
(3 5.66381e-08 0)
(3 3.21278e-06 0)
(3 -1.5354e-15 0)
(3 -1.09292e-15 0)
(3 -6.44244e-16 0)
(3 -2.06276e-15 0)
(3 -3.67262e-15 0)
(3 -1.48563e-15 0)
(3 2.67837e-15 0)
(3 3.76714e-15 0)
(3 2.90707e-15 0)
(3 1.07322e-15 0)
(3 1.4264e-15 0)
(3 2.64993e-15 0)
(3 3.37544e-15 0)
(3 3.48067e-15 0)
(3 2.64652e-15 0)
(3 -2.07586e-13 0)
(3 -1.76034e-12 0)
(3 -2.48139e-12 0)
(3 1.37528e-10 0)
(3 7.71641e-09 0)
(3 4.78954e-08 0)
(3 8.07861e-07 0)
(3 -5.11618e-06 0)
(2.99999 3.96225e-05 0)
(3 -2.0308e-17 0)
(3 1.27054e-15 0)
(3 1.75269e-15 0)
(3 4.76578e-16 0)
(3 -1.6081e-16 0)
(3 1.95968e-15 0)
(3 9.75639e-16 0)
(3 3.33195e-15 0)
(3 5.4654e-15 0)
(3 4.24291e-15 0)
(3 3.71147e-15 0)
(3 4.06282e-15 0)
(3 4.55201e-15 0)
(3 5.55877e-15 0)
(3 -6.14602e-13 0)
(3 -3.65457e-12 0)
(3 -2.05358e-11 0)
(3 4.85816e-11 0)
(3 2.75749e-08 0)
(3 1.63089e-07 0)
(3 2.12462e-07 0)
(3 3.75395e-06 0)
(2.99961 -0.000881619 0)
(2.99599 -0.011257 0)
(3 2.86841e-16 0)
(3 1.13885e-15 0)
(3 1.21299e-15 0)
(3 1.31292e-15 0)
(3 2.12607e-15 0)
(3 1.24709e-15 0)
(3 1.75589e-15 0)
(3 1.77634e-15 0)
(3 4.34306e-15 0)
(3 5.5079e-15 0)
(3 6.01276e-15 0)
(3 5.82745e-15 0)
(3 -7.43886e-15 0)
(3 -9.27225e-13 0)
(3 -1.31862e-11 0)
(3 -1.63875e-11 0)
(3 -7.27897e-11 0)
(3 1.58559e-08 0)
(3 4.9553e-07 0)
(3 5.06227e-07 0)
(3 -6.53191e-07 0)
(2.99925 -0.00143156 0)
(2.97588 -0.0437816 0)
(2.891 -0.205332 0)
(3 -4.65096e-16 0)
(3 -4.93211e-16 0)
(3 -5.23117e-16 0)
(3 1.10004e-15 0)
(3 2.64271e-15 0)
(3 -1.30543e-15 0)
(3 7.73324e-16 0)
(3 -3.4246e-16 0)
(3 1.04232e-15 0)
(3 2.0461e-15 0)
(3 2.17732e-15 0)
(3 -1.90172e-13 0)
(3 -2.07797e-12 0)
(3 -1.85753e-11 0)
(3 -7.6519e-11 0)
(3 6.28169e-10 0)
(3 4.15582e-08 0)
(3 9.32523e-07 0)
(3 1.43554e-06 0)
(2.99999 -8.73759e-06 0)
(2.99851 -0.00298161 0)
(2.95975 -0.060522 0)
(2.77154 -0.338651 0)
(2.55638 -0.63472 0)
(3 4.87274e-18 0)
(3 -6.58922e-16 0)
(3 -3.20015e-17 0)
(3 1.90951e-16 0)
(3 1.57192e-15 0)
(3 2.90319e-15 0)
(3 -1.64516e-15 0)
(3 -5.90191e-15 0)
(3 -5.47517e-15 0)
(3 -3.88955e-14 0)
(3 -8.23549e-13 0)
(3 -1.60801e-11 0)
(3 -1.25754e-11 0)
(3 -2.27906e-10 0)
(3 7.39327e-09 0)
(3 1.22272e-07 0)
(3 2.50056e-06 0)
(3 4.45769e-06 0)
(2.99995 -5.08493e-05 0)
(2.9936 -0.0109234 0)
(2.95071 -0.0924246 0)
(2.67978 -0.44825 0)
(2.48076 -0.706853 0)
(2.38193 -0.780969 0)
(3 -1.17238e-15 0)
(3 -1.51415e-15 0)
(3 -4.1922e-16 0)
(3 1.82759e-17 0)
(3 -3.85565e-16 0)
(3 -6.52302e-15 0)
(3 -6.30528e-14 0)
(3 -1.8631e-13 0)
(3 -7.43496e-13 0)
(3 -3.44161e-12 0)
(3 -1.82897e-11 0)
(3 -9.32986e-11 0)
(3 8.92387e-10 0)
(3 4.45028e-08 0)
(3 4.30887e-07 0)
(3 9.50904e-07 0)
(3.00001 1.70319e-05 0)
(2.99951 -0.000957481 0)
(2.98807 -0.0198497 0)
(2.84034 -0.216483 0)
(2.68386 -0.478886 0)
(2.39475 -0.791008 0)
(2.30705 -0.892317 0)
(2.29661 -0.854069 0)
(3 -2.39363e-15 0)
(3 -3.01245e-15 0)
(3 -1.01295e-15 0)
(3 -3.22717e-16 0)
(3 -2.63065e-14 0)
(3 -3.8799e-13 0)
(3 -1.4234e-12 0)
(3 -2.44292e-12 0)
(3 -1.86545e-11 0)
(3 -2.04601e-11 0)
(3 -1.05495e-10 0)
(3 1.37785e-08 0)
(3 1.39617e-07 0)
(3 3.16292e-06 0)
(3 1.01578e-06 0)
(3 9.69479e-06 0)
(2.99714 -0.00440699 0)
(2.9461 -0.0735198 0)
(2.80813 -0.295755 0)
(2.44653 -0.722586 0)
(2.37825 -0.798197 0)
(2.32859 -0.833767 0)
(2.32064 -0.837549 0)
(2.31892 -0.836632 0)
(3 -6.47834e-15 0)
(3 -6.35931e-15 0)
(3 9.23153e-16 0)
(3 -6.97563e-13 0)
(3 -1.4055e-12 0)
(3 -3.07853e-12 0)
(3 -4.56489e-12 0)
(3 -5.86108e-12 0)
(3 -8.08718e-11 0)
(3 1.68108e-10 0)
(3 1.74246e-08 0)
(3 1.72629e-06 0)
(3 1.54903e-06 0)
(3.00001 1.72678e-05 0)
(2.99951 -0.000670134 0)
(2.98649 -0.0202155 0)
(2.88613 -0.157082 0)
(2.57669 -0.54338 0)
(2.46512 -0.690657 0)
(2.34519 -0.821393 0)
(2.30489 -0.86371 0)
(2.30595 -0.861546 0)
(2.31795 -0.850728 0)
(2.32476 -0.838194 0)
(3 -1.19258e-13 0)
(3 1.16356e-14 0)
(3 -1.58432e-11 0)
(3 -1.05723e-11 0)
(3 -1.29542e-11 0)
(3 4.21495e-10 0)
(3 4.53365e-10 0)
(3 4.0048e-10 0)
(3 1.18409e-08 0)
(3 3.69242e-07 0)
(3 3.83368e-06 0)
(3.00001 1.27117e-05 0)
(2.99996 -5.17952e-05 0)
(2.99693 -0.00471877 0)
(2.93615 -0.079042 0)
(2.73179 -0.337801 0)
(2.52949 -0.612551 0)
(2.29179 -0.888675 0)
(2.26211 -0.890587 0)
(2.29999 -0.863334 0)
(2.3118 -0.85562 0)
(2.32579 -0.854266 0)
(2.33476 -0.84568 0)
(2.33868 -0.839649 0)
(3 -2.695e-14 0)
(3 -1.49852e-10 0)
(3 -2.63462e-10 0)
(3 5.06431e-10 0)
(3 -4.2104e-11 0)
(3 3.7185e-08 0)
(3 8.60814e-08 0)
(3 3.74985e-07 0)
(3 6.11328e-06 0)
(3 5.85666e-06 0)
(3.00002 5.20352e-05 0)
(2.99897 -0.00136537 0)
(2.9635 -0.0456399 0)
(2.84141 -0.201907 0)
(2.57571 -0.556058 0)
(2.31343 -0.865094 0)
(2.29853 -0.85843 0)
(2.30935 -0.870731 0)
(2.31168 -0.869673 0)
(2.33216 -0.862015 0)
(2.34411 -0.852298 0)
(2.34676 -0.841395 0)
(2.34997 -0.837519 0)
(2.34948 -0.838172 0)
(3 2.44094e-10 0)
(3 -3.15084e-09 0)
(3 6.63248e-08 0)
(3 8.84449e-08 0)
(3 4.76488e-07 0)
(3 6.71292e-07 0)
(3 5.94036e-06 0)
(3 5.59054e-06 0)
(3.00002 4.3045e-05 0)
(2.99939 -0.000556066 0)
(2.98226 -0.0249216 0)
(2.89459 -0.146325 0)
(2.61166 -0.500145 0)
(2.39643 -0.775082 0)
(2.3766 -0.832632 0)
(2.31004 -0.880167 0)
(2.3111 -0.88485 0)
(2.32428 -0.874923 0)
(2.34405 -0.854275 0)
(2.3531 -0.852825 0)
(2.3601 -0.84632 0)
(2.36065 -0.841105 0)
(2.35919 -0.839024 0)
(2.35283 -0.840789 0)
(3 3.41857e-09 0)
(3 1.34488e-06 0)
(3 1.81747e-06 0)
(3 9.30939e-07 0)
(3 8.21016e-06 0)
(2.99999 -2.27862e-05 0)
(3.00006 0.000127568 0)
(2.99919 -0.00132267 0)
(2.99049 -0.0175562 0)
(2.90702 -0.150263 0)
(2.69501 -0.472356 0)
(2.52471 -0.710732 0)
(2.31085 -0.924241 0)
(2.26847 -0.965238 0)
(2.28099 -0.942973 0)
(2.30637 -0.908004 0)
(2.32888 -0.887715 0)
(2.34132 -0.869197 0)
(2.35551 -0.852894 0)
(2.36148 -0.842143 0)
(2.36193 -0.843604 0)
(2.36095 -0.845165 0)
(2.35732 -0.845351 0)
(2.35049 -0.84995 0)
(3 -2.23003e-07 0)
(3.00002 3.1006e-05 0)
(2.99991 -0.000114619 0)
(2.99988 -0.000187472 0)
(2.99865 -0.00179664 0)
(2.99121 -0.013102 0)
(2.96683 -0.0511623 0)
(2.89327 -0.181051 0)
(2.78199 -0.403004 0)
(2.60037 -0.695351 0)
(2.43501 -0.859798 0)
(2.33581 -0.927746 0)
(2.3002 -0.917244 0)
(2.30125 -0.901592 0)
(2.30848 -0.888253 0)
(2.34221 -0.864248 0)
(2.35313 -0.866485 0)
(2.35615 -0.853317 0)
(2.35703 -0.848071 0)
(2.35836 -0.845067 0)
(2.35792 -0.844773 0)
(2.35373 -0.846813 0)
(2.34881 -0.850098 0)
(2.34548 -0.852911 0)
(2.99862 -0.00147439 0)
(2.99144 -0.0101563 0)
(2.95872 -0.0502679 0)
(2.90234 -0.13349 0)
(2.80505 -0.273722 0)
(2.6738 -0.469194 0)
(2.54684 -0.676038 0)
(2.36906 -0.908203 0)
(2.22296 -1.0688 0)
(2.17599 -1.10046 0)
(2.14732 -1.04546 0)
(2.17956 -1.00264 0)
(2.24949 -0.952297 0)
(2.30506 -0.896597 0)
(2.32545 -0.85785 0)
(2.34865 -0.831184 0)
(2.35486 -0.837887 0)
(2.35675 -0.841418 0)
(2.3548 -0.841993 0)
(2.35247 -0.842501 0)
(2.34798 -0.844235 0)
(2.34423 -0.845708 0)
(2.3417 -0.847428 0)
(2.34028 -0.849048 0)
(2.93133 -0.0316468 0)
(2.85698 -0.031526 0)
(2.747 -0.171377 0)
(2.67682 -0.232966 0)
(2.57647 -0.347564 0)
(2.4951 -0.449731 0)
(2.43047 -0.540982 0)
(2.34769 -0.62534 0)
(2.31115 -0.72573 0)
(2.25848 -0.798523 0)
(2.25113 -0.855078 0)
(2.28216 -0.889031 0)
(2.32175 -0.895288 0)
(2.33719 -0.884833 0)
(2.34755 -0.879186 0)
(2.34928 -0.867477 0)
(2.34738 -0.859515 0)
(2.34468 -0.851606 0)
(2.34403 -0.84833 0)
(2.34263 -0.848311 0)
(2.33956 -0.847664 0)
(2.33749 -0.848253 0)