/*--------------------------------*- C++ -*----------------------------------*\
  =========                 |
  \\      /  F ield         | OpenFOAM: The Open Source CFD Toolbox
   \\    /   O peration     | Website:  https://openfoam.org
    \\  /    A nd           | Version:  7
     \\/     M anipulation  |
\*---------------------------------------------------------------------------*/
FoamFile
{
    version     2.0;
    format      ascii;
    class       volScalarField;
    location    "3.6";
    object      p;
}
// * * * * * * * * * * * * * * * * * * * * * * * * * * * * * * * * * * * * * //

dimensions      [1 -1 -2 0 0 0 0];

internalField   nonuniform List<scalar> 
18432
(
1
1
1
1
1
1
1
1
1
1
1
1
1
1
1
1
1
1
1
1
1
1
1
1
1
1
1
1
1
1
1
1
1
1
1
1
1
1
1
1
1
1
1
1
1
1
1
1
1
1
1
1
1
1
1
1
1
1
1
1
1
1
1
1
1
1
1
1
1
1
1
1
1
1
1
1
1
1
1
1
1
1
1
1
1
1
1
1
1
1
1
1
1
1
1
1
1
1
1
1
1
1
1
1
1
1
1
1
1
1
1
1
1
1
1
1
1
1
1
1
1
1
1
1
1
1
1
1
1
1
1
1
1
1
1
1
1
1
1
1
1
1
1
1
1
1
1
1
1
1
1
1
1
1
1
1
1
1
1
1
1
1
1
1
1
1
1
1
1
1
1
1
1
1
1
1
1
1
1
1
1
1
1
1
1
1
1
1
1
1
1
1
1
1
1
1
1
1
1
1
1
1
1
1
1
1
1
1
1
1
1
1
1
1
1
1
1
1
1
1
1
1
1
1
1
1
1
1
1
1
1
1
1
1
1
1
1
1
1
1
1
1
1
1
1
1
1
1
1
1
1
1
1
1
1
1
1
1
1
1
1
1
1
1
1
1
1
1
1
1
1
1
1
1
1
1
1
1
1
1
1
1
1
1
1
1
1
1
1
1
1
1
1
1
1
1
1
1
1
1
1
1
1
1
1
1
1
1
1
1
1
1
1
1
1
1
1
1
1
1
1
1
1
1
1
1
1
1
1
1
1
1
1
1
1
1
1
1
1
1
1
1
1
1
1
1
1
1
1
1
1
1
1
1
1
1
1
1
1
1
1
1
1
1
1
1
1
1
1
1
1
1
1
1
1
1
1
1
1
1
1
1
1
1
1
1
1
1
1
1
1
1
1
1
1
1
1
1
1
1
1
1
1
1
1
1
1
1
1
1
1
1
1
1
1
1
1
1
1
1
1
1
1
1
1
1
1
1
1
1
1
1
1
1
1
1
1
1
1
1
1
1
1
1
1
1
1
1
1
1
1
1
1
1
1
1
1
1
1
1
1
1
1
1
1
1
1
1
1
1
1
1
1
1
1
1
1
1
1
1
1
1
1
1
1
1
1
1
1
1
1
1
1
1
1
1
1
1
1
1
1
1
1
1
1
1
1
1
1
1
1
1
1
1
1
1
1
1
1
1
1
1
1
1
1
1
1
1
1
1
1
1
1
1
1
1
1
1
1
1
1
1
1
1
1
1
1
1
1
1
1
1
1
1
1
1
1
1
1
1
1
1
1
1
1
1
1
1
1
1
1
1
1
1
1
1
1
1
1
1
1
1
1
1
1
1
1
1
1
1
1
1
1
1
1
1
1
1
1
1
1
1
1
1
1
1
1
1
1
1
1
1
1
1
1
1
1
1
1
1
1
1
1
1
1
1
1
1
1
1
1
1
1
1
1
1
1
1
1
1
1
1
1
1
1
1
1
1
1
1
1
1
1
1
1
1
1
1
1
1
1
1
1
1
1
1
1
1
1
1
1
1
1
1
1
1
1
1
1
1
1
1
1
1
1
1
1
1
1
1
1
1
1
1
1
1
1
1
1
1
1
1
1
1
1
1
1
1
1
1
1
1
1
1
1
1
1
1
1
1
1
1
1
1
1
1
1
1
1
1
1
1
1
1
1
1
1
1
1
1
1
1
1
1
1
1
1
1
1
1
1
1
1
1
1
1
1
1
1
1
1
1
1
1
1
1
1
1
1
1
1
1
1
1
1
1
1
1
1
1
1
1
1
1
1
1
1
1
1
1
1
1
1
1
1
1
1
1
1
1
1
1
1
1
1
1
1
1
1
1
1
1
1
1
1
1
1
1
1
1
1
1
1
1
1
1
1
1
1
1
1
1
1
1
1
1
1
1
1
1
1
1
1
1
1
1
1
1
1
1
1
1
1
1
1
1
1
1
1
1
1
1
1
1
1
1
1
1
1
1
1
1
1
1
1
1
1
1
1
1
1
1
1
1
1
1
1
1
1
1
1
1
1
1
1
1
1
1
1
1
1
1
1
1
1
1
1
1
1
1
1
1
1
1
1
1
1
1
1
1
1
1
1
1
1
1
1
1
1
1
1
1
1
1
1
1
1
1
1
1
1
1
1
1
1
1
1
1
1
1
1
1
1
1
1
1
1
1
1
1
1
1
1
1
1
1
1
1
1
1
1
1
1
1
1
1
1
1
1
1
1
1
1
1
1
1
1
1
1
1
1
1
1
1
1
1
1
1
1
1
1
1
1
1
1
1
1
1
1
1
1
1
1
1
1
1
1
1
1
1
1
1
1
1
1
1
1
1
1
1
1
1
1
1
1
1
1
1
1
1
1
1
1
1
1
1
1
1
1
1
1
1
1
1
1
1
1
1
1
1
1
1
1
1
1
1
1
1
1
1
1
1
1
1
1
1
1
1
1
1
1
1
1
1
1
1
1
1
1
1
1
1
1
1
1
1
1
1
1
1
1
1
1
1
1
1
1
1
1
1
1
1
1
1
1
1
1
1
1
1
1
1
1
1
1
1
1
1
1
1
1
1
1
1
1
1
1
1
1
1
1
1
1
1
1
1
1
1
1
1
1
1
1
1
1
1
1
1
1
1
1
1
1
1
1
1
1
1
1
1
1
1
1
1
1
1
1
1
1
1
1
1
1
1
1
1
1
1
1
1
1
1
1
1
1
1
1
1
1
1
1
1
1
1
1
1
1
1
1
1
1
1
1
1
1
1
1
1
1
1
1
1
1
1
1
1
1
1
1
1
1
1
1
1
1
1
1
1
1
1
1
1
1
1
1
1
1
1
1
1
1
1
1
1
1
1
1
1
1
1
1
1
1
1
1
1
1
1
1
1
1
1
1
1
1
1
1
1
1
1
1
1
1
1
1
1
1
1
1
1
1
1
1
1
1
1
1
1
1
1
1
1
1
1
1
1
1
1
1
1
1
1
1
1
1
1
1
1
1
1
1
1
1
1
1
1
1
1
1
1
1
1
1
1
1
1
1
1
1
1
1
1
1
1
1
1
1
1
1
1
1
1
1
1
1
1
1
1
1
1
1
1
1
1
1
1
1
1
1
1
1
1
1
1
1
1
1
1
1
1
1
1
1
1
1
1
1
1
1
1
1
1
1
1
1
1
1
1
1
1
1
1
1
1
1
1
1
1
1
1
1
1
1
1
1
1
1
1
1
1
1
1
1
1
1
1
1
1
1
1
1
1
1
1
1
1
1
1
1
1
1
1
1
1
1
1
1
1
1
1
1
1
1
1
1
1
1
1
1
1
1
1
1
1
1
1
1
1
1
1
1
1
1
1
1
1
1
1
1
1
1
1
1
1
1
1
1
1
1
1
1
1
1
1
1
1
1
1
1
1
1
1
1
1
1
1
1
1
1
1
1
1
1
1
1
1
1
1
1
1
1
1
1
1
1
1
1
1
1
1
1
1
1
1
1
1
1
1
1
1
1
1
1
1
1
1
1
1
1
1
1
1
1
1
1
1
1
1
1
1
1
1
1
1
1
1
1
1
1
1
1
1
1
1
1
1
1
1
1
1
1
1
1
1
1
1
1
1
1
1
1
1
1
1
1
1
1
1
1
1
1
1
1
1
1
1
1
1
1
1
1
1
1
1
1
1
1
1
1
1
1
1
1
1
1
1
1
1
1
1
1
1
1
1
1
1
1
1
1
1
1
1
1
1
1
1
1
1
1
1
1
1
1
1
1
1
1
1
1
1
1
1
1
1
1
1
1
1
1
1
1
1
1
1
1
1
1
1
1
1
1
1
1
1
1
1
1
1
1
1
1
1
1
1
1
1
1
1
1
1
1
1
1
1
1
1
1
1
1
1
1
1
1
1
1
1
1
1
1
1
1
1
1
1
1
1
1
1
1
1
1
1
1
1
1
1
1
1
1
1
1
1
1
1
1
1
1
1
1
1
1
1
1
1
1
1
1
1
1
1
1
1
1
1
1
1
1
1
1
1
1
1
1
1
1
1
1
1
1
1
1
1
1
1
1
1
1
1
1
1
1
1
1
1
1
1
1
1
1
1
1
1
1
1
1
1
1
1
1
1
1
1
1
1
1
1
1
1
1
1
1
1
1
1
1
1
1
1
1
1
1
1
1
1
1
1
1
1
1
1
1
1
1
1
1
1
1
1
1
1
1
1
1
1
1
1
1
1
1
1
1
1
1
1
1
1
1
1
1
1
1
1
1
1
1
1
1
1
1
1
1
1
1
1
1
1
1
1
1
1
1
1
1
1
1
1
1
1
1
1
1
1
1
1
1
1
1
1
1
1
1
1
1
1
1
1
1
1
1
1
1
1
1
1
1
1
1
1
1
1
1
1
1
1
1
1
1
1
1
1
1
1
1
1
1
1
1
1
1
1
1
1
1
1
1
1
1
1
1
1
1
1
1
1
1
1
1
1
1
1
1
1
1
1
1
1
1
1
1
1
1
1
1
1
1
1
1
1
1
1
1
1
1
1
1
1
1
1
1
1
1
1
1
1
1
1
1
1
1
1
1
1
1
1
1
1
1
1
1
1
1
1
1
1
1
1
1
1
1
1
1
1
1
1
1
1
1
1
1
1
1
1
1
1
1
1
1
1
1
1
1
1
1
1
1
1
1
1
1
1
1
1
1
1
1
1
1
1
1
1
1
1
1
1
1
1
1
1
1
1
1
1
1
1
1
1
1
1
1
1
1
1
1
1
1
1
1
1
1
1
1
1
1
1
1
1
1
1
1
1
1
1
1
1
1
1
1
1
1
1
1
1
1
1
1
1
1
1
1
1
1
1
1
1
1
1
1
1
1
1
1
1
1
1
1
1
1
1
1
1
1
1
1
1
1
1
1
1
1
1
1
1
1
1
1
1
1
1
1
1
1
1
1
1
1
1
1
1
1
1
1
1
1
1
1
1
1
1
1
1
1
1
1
1
1
1
1
1
1
1
1
1
1
1
1
1
1
1
1
1
1
1
1
1
1
1
1
1
1
1
1
1
1
1
1
1
1
1
1
1
1
1
1
1
1
1
1
1
1
1
1
1
1
1
1
1
1
1
1
1
1
1
1
1
1
1
1
1
1
1
1
1
1
1
1
1
1
1
1
1
1
1
1
1
1
1
1
1
1
1
1
1
1
1
1
1
1
1
1
1
1
1
1
1
1
1
1
1
1
1
1
1
1
1
1
1
1
1
1
1
1
1
1
1
1
1
1
1
1
1
1
1
1
1
1
1
1
1
1
1
1
1
1
1
1
1
1
1
1
1
1
1
1
1
1
1
1
1
1
1
1
1
1
1
1
1
1
1
1
1
1
1
1
1
1
1
1
1
1
1
1
1
1
1
1
1
1
1
1
1
1
1
1
1
1
1
1
1
1
1
1
1
1
1
1
1
1
1
1
1
1
1
1
1
1
1
1
1
1
1
1
1
1
1
1
1
1
1
1
1
1
1
1
1
1
1
1
1
1
1
1
1
1
1
1
1
1
1
1
1
1
1
1
1
1
1
1
1
1
1
1
1
1
1
1
1
1
1
1
1
1
1
1
1
1
1
1
1
1
1
1
1
1
1
1
1
1
1
1
1
1
1
1
1
1
1
1
1
1
1
1
1
1
1
1
1
1
1
1
1
1
1
1
1
1
1
1
1
1
1
1
1
1
1
1
1
1
1
1
1
1
1
1
1
1
1
1
1
1
1
1
1
1
1
1
1
1
1
1
1
1
1
1
1
1
1
1
1
1
1
1
1
1
1
1
1
1
1
1
1
1
1
1
1
1
1
1
1
1
1
1
1
1
1
1
1
1
1
1
1
1
1
1
1
1
1
1
1
1
1
1
1
1
1
1
1
1
1
1
1
1
1
1
1
1
1
1
1
1
1
1
1
1
1
1
1
1
1
1
1
1
1
1
1
1
1
1
1
1
1
1
1
1
1
1
1
1
1
1
1
1
1
1
1
1
1
1
1
1
1
1
1
1
1
1
1
1
1
1
1
1
1
1
1
1
1
1
1
1
1
1
1
1
1
1
1
1
1
1
1
1
1
1
1
1
1
1
1
1
1
1
1
1
1
1
1
1
1
1
1
1
1
1
1
1
1
1
1
1
1
1
1
1
1
1
1
1
1
1
1
1
1
1
1
1
1
1
1
1
1
1
1
1
1
1
1
1
1
1
1
1
1
1
1
1
1
1
1
1
1
1
1
1
1
1
1
1
1
1
1
1
1
1
1
1
1
1
1
1
1
1
1
1
1
1
1
1
1
1
1
1
1
1
1
1
1
1
1
1
1
1
1
1
1
1
1
1
1
1
1
1
1
1
1
1
1
1
1
1
1
1
1
1
1
1
1
1
1
1
1
1
1
1
1
1
1
1
1
1
1
1
1
1
1
1
1
1
1
1
1
1
1
1
1
1
1
1
1
1
1
1
1
1
1
1
1
1
1
1
1
1
1
1
1
1
1
1
1
1
1
1
1
1
1
1
1
1
1
1
1
1
1
1
1
1
1
1
1
1
1
1
1
1
1
1
1
1
1
1
1
1
1
1
1
1
1
1
1
1
1
1
1
1
1
1
1
1
1
1
1
1
1
1
1
1
1
1
1
1
1
1
1
1
1
1
1
1
1
1
1
1
1
1
1
1
1
1
1
1
1
1
1
1
1
1
1
1
1
1
1
1
1
1
1
1
1
1
1
1
1
1
1
1
1
1
1
1
1
1
1
1
1
1
1
1
1
1
1
1
1
1
1
1
1
1
1
1
1
1
1
1
1
1
1
1
1
1
1
1
1
1
1
1
1
1
1
1
1
1
1
1
1
1
1
1
1
1
1
1
1
1
1
1
1
1
1
1
1
1
1
1
1
1
1
1
1
1
1
1
1
1
1
1
1
1
1
1
1
1
1
1
1
1
1
1
1
1
1
1
1
1
1
1.29328
1.73908
2.32003
2.95008
3.50724
4.18394
4.69714
5.06986
5.33227
5.24598
4.95305
4.49826
4.07157
3.75419
3.65413
3.58338
3.56222
3.59084
3.63114
3.66898
3.69369
3.71184
3.72688
3.74384
3.76405
3.77175
3.7738
3.7717
3.76572
3.76234
3.758
3.75432
3.75457
3.759
3.77015
3.78626
3.79319
3.79285
3.79067
3.78473
3.77476
3.77045
3.77036
3.77094
3.77337
3.77619
3.77686
3.77524
1.00191
1.02093
1.06447
1.19647
1.42228
1.75103
2.22911
2.74297
3.34482
3.72133
3.91619
4.05256
4.01568
3.9349
3.84001
3.78238
3.7217
3.70424
3.67289
3.66167
3.67219
3.6929
3.71415
3.73463
3.75791
3.77079
3.77539
3.77716
3.77418
3.77007
3.76824
3.76838
3.76982
3.77238
3.77484
3.7773
3.77788
3.77627
3.7728
3.76829
3.76555
3.76561
3.76654
3.76864
3.77339
3.77784
3.77871
3.77904
1
0.999996
1
1
1.00157
1.0123
1.06452
1.2199
1.60811
2.3561
3.3108
3.95239
4.27321
4.31109
4.24825
4.12759
3.97272
3.77992
3.66962
3.6408
3.64822
3.66662
3.68462
3.70663
3.7321
3.75335
3.76646
3.77577
3.78092
3.78181
3.78416
3.78545
3.78617
3.78764
3.78752
3.78498
3.77975
3.77374
3.76789
3.76296
3.76085
3.76074
3.76125
3.76347
3.76913
3.7749
3.7767
3.77944
1
1
1
1
0.999999
0.99998
1.00006
1.00012
1.00535
1.07821
1.39461
2.17429
3.03719
3.9521
4.08473
4.01773
3.99411
3.94426
3.82709
3.74077
3.71136
3.69467
3.67345
3.67833
3.69776
3.71534
3.73281
3.74887
3.7576
3.76419
3.77006
3.77444
3.77783
3.78163
3.78248
3.78129
3.77812
3.77372
3.76958
3.76683
3.76597
3.76627
3.76744
3.7701
3.77471
3.77793
3.77686
3.7784
1
1
1
1
1
0.999999
1
0.999999
1
0.999937
1.0014
1.04884
1.28384
1.98932
2.90267
3.56233
4.05388
4.08871
4.04256
3.93774
3.84395
3.76009
3.71569
3.70085
3.69979
3.71101
3.7236
3.73449
3.74141
3.74778
3.75086
3.75308
3.75507
3.76131
3.76918
3.77044
3.77031
3.76999
3.76891
3.76811
3.76865
3.77073
3.7743
3.77885
3.78317
3.78448
3.78195
3.78231
1
1
1
1
1
1
1
1
1
0.999997
0.999998
0.999952
1.00079
1.02583
1.25381
1.77042
2.74484
3.3541
3.80379
3.91997
3.91381
3.86972
3.80793
3.77506
3.76023
3.73933
3.72005
3.71588
3.72043
3.73329
3.7483
3.75839
3.76594
3.77285
3.77604
3.77622
3.77616
3.77591
3.7743
3.77277
3.77268
3.7739
3.77689
3.781
3.7826
3.78062
3.77579
3.77322
1
1
1
1
1
1
1
1
1
1
1
0.999997
0.999998
0.999961
1.00082
1.01568
1.18211
1.70408
2.54269
3.29393
3.59782
3.79661
3.82951
3.8234
3.78066
3.73281
3.7265
3.72418
3.72152
3.72526
3.73867
3.75914
3.78043
3.78851
3.78701
3.78406
3.7825
3.78136
3.77873
3.77505
3.77332
3.77249
3.77473
3.77803
3.77726
3.77428
3.76801
3.76525
1
1
1
1
1
1
1
1
1
1
1
1
1
0.999997
0.999998
0.999976
1.0005
1.01658
1.13162
1.63025
2.3385
3.2455
3.57464
3.67883
3.73796
3.69568
3.69254
3.70492
3.70162
3.70411
3.71481
3.73543
3.7549
3.76898
3.77671
3.77685
3.77573
3.77216
3.76916
3.76803
3.76726
3.76885
3.77459
3.7775
3.77774
3.7768
3.77345
3.7713
1
1
1
1
1
1
1
1
1
1
1
1
1
1
1
0.999998
0.999998
0.999982
1.00025
1.0149
1.11445
1.51855
2.29843
3.0446
3.5921
3.69766
3.72213
3.72814
3.71349
3.70347
3.70528
3.71309
3.72552
3.73708
3.74928
3.75668
3.76006
3.76129
3.76212
3.76437
3.76579
3.76894
3.77445
3.77728
3.77907
3.77907
3.77689
3.7744
1
1
1
1
1
1
1
1
1
1
1
1
1
1
1
1
1
0.999998
0.999998
0.999984
1.00028
1.00919
1.12916
1.47827
2.25441
2.94265
3.49039
3.71499
3.75256
3.7399
3.74836
3.75005
3.74605
3.74422
3.74815
3.75549
3.75862
3.7599
3.76156
3.76375
3.76761
3.77325
3.77496
3.77556
3.77735
3.77785
3.77558
3.77237
1
1
1
1
1
1
1
1
1
1
1
1
1
1
1
1
1
1
1
0.999998
0.999998
0.999985
1.00053
1.00874
1.11236
1.49972
2.22003
2.95066
3.37603
3.63316
3.7355
3.7584
3.75675
3.75979
3.75563
3.75486
3.7628
3.76951
3.77563
3.78079
3.78679
3.78883
3.78685
3.78436
3.78254
3.77953
3.77512
3.77175
1
1
1
1
1
1
1
1
1
1
1
1
1
1
1
1
1
1
1
1
1
0.999998
0.999998
0.999988
1.00051
1.01219
1.09977
1.52309
2.20755
3.08944
3.41677
3.55895
3.65113
3.71179
3.71989
3.72706
3.74004
3.75495
3.76829
3.77764
3.78083
3.78237
3.78183
3.78081
3.78132
3.78148
3.77944
3.77737
1
1
1
1
1
1
1
1
1
1
1
1
1
1
1
1
1
1
1
1
1
1
1
0.999998
0.999999
0.999992
1.00042
1.01696
1.11623
1.56319
2.3191
3.11893
3.57619
3.6376
3.67758
3.69636
3.70582
3.72336
3.74092
3.75345
3.76202
3.76794
3.77151
3.77086
3.76993
3.77015
3.76922
3.7698
1
1
1
1
1
1
1
1
1
1
1
1
1
1
1
1
1
1
1
1
1
1
1
1
1
0.999999
0.999998
1
1.0007
1.02018
1.16901
1.64372
2.47326
3.18759
3.62105
3.73707
3.74194
3.76718
3.77081
3.76659
3.767
3.76942
3.76941
3.76725
3.76458
3.76212
3.76217
3.76422
1
1
1
1
1
1
1
1
1
1
1
1
1
1
1
1
1
1
1
1
1
1
1
1
1
1
1
1
0.999998
1.00002
1.00169
1.0273
1.25007
1.81258
2.68
3.26917
3.6218
3.76017
3.77934
3.78681
3.78889
3.78512
3.78248
3.77753
3.77527
3.77466
3.77461
3.77607
1
1
1
1
1
1
1
1
1
1
1
1
1
1
1
1
1
1
1
1
1
1
1
1
1
1
1
1
1
1
0.999997
1.00005
1.0045
1.0482
1.36927
2.07796
3.02181
3.40957
3.56962
3.70338
3.75349
3.75501
3.75767
3.76416
3.77255
3.77768
3.78137
3.78335
1
1
1
1
1
1
1
1
1
1
1
1
1
1
1
1
1
1
1
1
1
1
1
1
1
1
1
1
1
1
1
1
0.999997
1.00021
1.01194
1.10388
1.5803
2.40492
3.30015
3.63806
3.68534
3.70658
3.71004
3.72252
3.74356
3.75867
3.76783
3.77361
1
1
1
1
1
1
1
1
1
1
1
1
1
1
1
1
1
1
1
1
1
1
1
1
1
1
1
1
1
1
1
1
1
0.999999
1.00001
1.00097
1.03108
1.22698
1.92713
2.83308
3.48914
3.73374
3.74257
3.77389
3.77979
3.77662
3.77318
3.7748
1
1
1
1
1
1
1
1
1
1
1
1
1
1
1
1
1
1
1
1
1
1
1
1
1
1
1
1
1
1
1
1
1
1
1
0.999998
1.00015
1.00453
1.08972
1.49173
2.39791
3.14691
3.59326
3.77368
3.79386
3.79498
3.79468
3.7935
1
1
1
1
1
1
1
1
1
1
1
1
1
1
1
1
1
1
1
1
1
1
1
1
1
1
1
1
1
1
1
1
1
1
1
1
1
1
1.00114
1.02103
1.24229
1.94786
3.00832
3.47629
3.61458
3.69939
3.75113
3.76126
1
1
1
1
1
1
1
1
1
1
1
1
1
1
1
1
1
1
1
1
1
1
1
1
1
1
1
1
1
1
1
1
1
1
1
1
1
1
0.999999
1.00008
1.00779
1.09876
1.60965
2.56237
3.42187
3.68842
3.73099
3.74062
1
1
1
1
1
1
1
1
1
1
1
1
1
1
1
1
1
1
1
1
1
1
1
1
1
1
1
1
1
1
1
1
1
1
1
1
1
1
1
1
1.00002
1.0014
1.04381
1.33891
2.2335
3.17169
3.67784
3.79594
1
1
1
1
1
1
1
1
1
1
1
1
1
1
1
1
1
1
1
1
1
1
1
1
1
1
1
1
1
1
1
1
1
1
1
1
1
1
1
1
1
1
1.00046
1.01333
1.21807
1.92858
2.96634
3.4053
1
1
1
1
1
1
1
1
1
1
1
1
1
1
1
1
1
1
1
1
1
1
1
1
1
1
1
1
1
1
1
1
1
1
1
1
1
1
1
1
1
1
0.999999
1.00007
1.0077
1.096
1.69661
2.63051
1
1
1
1
1
1
1
1
1
1
1
1
1
1
1
1
1
1
1
1
1
1
1
1
1
1
1
1
1
1
1
1
1
1
1
1
1
1
1
1
1
1
1
1
1.00003
1.00179
1.07269
1.42338
1
1
1
1
1
1
1
1
1
1
1
1
1
1
1
1
1
1
1
1
1
1
1
1
1
1
1
1
1
1
1
1
1
1
1
1
1
1
1
1
1
1
1
1
1
1
1.00169
1.01933
1
1
1
1
1
1
1
1
1
1
1
1
1
1
1
1
1
1
1
1
1
1
1
1
1
1
1
1
1
1
1
1
1
1
1
1
1
1
1
1
1
1
1
1
1
1
1.00002
0.999866
1
1
1
1
1
1
1
1
1
1
1
1
1
1
1
1
1
1
1
1
1
1
1
1
1
1
1
1
1
1
1
1
1
1
1
1
1
1
1
1
1
1
1
1
1
1
1
0.999951
1
1
1
1
1
1
1
1
1
1
1
1
1
1
1
1
1
1
1
1
1
1
1
1
1
1
1
1
1
1
1
1
1
1
1
1
1
1
1
1
1
1
1
1
1
1
1
0.999992
1
1
1
1
1
1
1
1
1
1
1
1
1
1
1
1
1
1
1
1
1
1
1
1
1
1
1
1
1
1
1
1
1
1
1
1
1
1
1
1
1
1
1
1
1
1
1
1
1
1
1
1
1
1
1
1
1
1
1
1
1
1
1
1
1
1
1
1
1
1
1
1
1
1
1
1
1
1
1
1
1
1
1
1
1
1
1
1
1
1
1
1
1
1
1
1
1
1
1
1
1
1
1
1
1
1
1
1
1
1
1
1
1
1
1
1
1
1
1
1
1
1
1
1
1
1
1
1
1
1
1
1
1
1
1
1
1
1
1
1
1
1
1
1
1
1
1
1
1
1
1
1
1
1
1
1
1
1
1
1
1
1
1
1
1
1
1
1
1
1
1
1
1
1
1
1
1
1
1
1
1
1
1
1
1
1
1
1
1
1
1
1
1
1
1
1
1
1
1
1
1
1
1
1
1
1
1
1
1
1
1
1
1
1
1
1
1
1
1
1
1
1
1
1
1
1
1
1
1
1
1
1
1
1
1
1
1
1
1
1
1
1
1
1
1
1
1
1
1
1
1
1
1
1
1
1
1
1
1
1
1
1
1
1
1
1
1
1
1
1
1
1
1
1
1
1
1
1
1
1
1
1
1
1
1
1
1
1
1
1
1
1
1
1
1
1
1
1
1
1
1
1
1
1
1
1
1
1
1
1
1
1
1
1
1
1
1
1
1
1
1
1
1
1
1
1
1
1
1
1
1
1
1
1
1
0.999992
1
1
1
1
1
1
1
1
1
1
1
1
1
1
1
1
1
1
1
1
1
1
1
1
1
1
1
1
1
1
1
1
1
1
1
1
1
1
1
1
1
1
1
1
1
1
1
0.999952
1
1
1
1
1
1
1
1
1
1
1
1
1
1
1
1
1
1
1
1
1
1
1
1
1
1
1
1
1
1
1
1
1
1
1
1
1
1
1
1
1
1
1
1
1
1
1.00002
0.999866
1
1
1
1
1
1
1
1
1
1
1
1
1
1
1
1
1
1
1
1
1
1
1
1
1
1
1
1
1
1
1
1
1
1
1
1
1
1
1
1
1
1
1
1
1
1
1.00171
1.01907
1
1
1
1
1
1
1
1
1
1
1
1
1
1
1
1
1
1
1
1
1
1
1
1
1
1
1
1
1
1
1
1
1
1
1
1
1
1
1
1
1
1
1
1
1.00003
1.00178
1.07276
1.423
1
1
1
1
1
1
1
1
1
1
1
1
1
1
1
1
1
1
1
1
1
1
1
1
1
1
1
1
1
1
1
1
1
1
1
1
1
1
1
1
1
1
0.999999
1.00007
1.0077
1.09596
1.69565
2.63262
1
1
1
1
1
1
1
1
1
1
1
1
1
1
1
1
1
1
1
1
1
1
1
1
1
1
1
1
1
1
1
1
1
1
1
1
1
1
1
1
1
1
1.00046
1.01333
1.21806
1.92824
2.96585
3.40616
1
1
1
1
1
1
1
1
1
1
1
1
1
1
1
1
1
1
1
1
1
1
1
1
1
1
1
1
1
1
1
1
1
1
1
1
1
1
1
1
1.00002
1.0014
1.0438
1.33908
2.23327
3.17118
3.67809
3.79595
1
1
1
1
1
1
1
1
1
1
1
1
1
1
1
1
1
1
1
1
1
1
1
1
1
1
1
1
1
1
1
1
1
1
1
1
1
1
0.999999
1.00008
1.0078
1.09874
1.60965
2.56268
3.42143
3.68835
3.73156
3.74076
1
1
1
1
1
1
1
1
1
1
1
1
1
1
1
1
1
1
1
1
1
1
1
1
1
1
1
1
1
1
1
1
1
1
1
1
1
1
1.00114
1.02103
1.2423
1.94775
3.00855
3.47624
3.61445
3.6993
3.75142
3.76138
1
1
1
1
1
1
1
1
1
1
1
1
1
1
1
1
1
1
1
1
1
1
1
1
1
1
1
1
1
1
1
1
1
1
1
0.999998
1.00015
1.00453
1.08972
1.49175
2.3979
3.14682
3.59343
3.77365
3.79386
3.79494
3.79468
3.7935
1
1
1
1
1
1
1
1
1
1
1
1
1
1
1
1
1
1
1
1
1
1
1
1
1
1
1
1
1
1
1
1
1
0.999999
1.00001
1.00097
1.03108
1.22698
1.92712
2.8331
3.48914
3.73367
3.74262
3.77391
3.77979
3.77662
3.77317
3.77478
1
1
1
1
1
1
1
1
1
1
1
1
1
1
1
1
1
1
1
1
1
1
1
1
1
1
1
1
1
1
1
1
0.999997
1.00021
1.01194
1.10388
1.5803
2.40492
3.30016
3.63806
3.68535
3.70658
3.71005
3.72253
3.74356
3.75867
3.76781
3.77359
1
1
1
1
1
1
1
1
1
1
1
1
1
1
1
1
1
1
1
1
1
1
1
1
1
1
1
1
1
1
0.999997
1.00005
1.0045
1.0482
1.36927
2.07797
3.0218
3.40956
3.56962
3.70338
3.75349
3.75502
3.75767
3.76416
3.77255
3.77768
3.78136
3.78334
1
1
1
1
1
1
1
1
1
1
1
1
1
1
1
1
1
1
1
1
1
1
1
1
1
1
1
1
0.999998
1.00002
1.00169
1.0273
1.25007
1.81259
2.67999
3.26918
3.6218
3.76017
3.77934
3.78681
3.7889
3.78513
3.78248
3.77753
3.77527
3.77466
3.77461
3.77607
1
1
1
1
1
1
1
1
1
1
1
1
1
1
1
1
1
1
1
1
1
1
1
1
1
0.999999
0.999998
1
1.0007
1.02018
1.16901
1.64372
2.47327
3.18759
3.62105
3.73708
3.74194
3.76718
3.77081
3.76659
3.767
3.76943
3.76941
3.76725
3.76458
3.76212
3.76217
3.76422
1
1
1
1
1
1
1
1
1
1
1
1
1
1
1
1
1
1
1
1
1
1
1
0.999998
0.999999
0.999992
1.00042
1.01696
1.11623
1.56319
2.3191
3.11893
3.57619
3.6376
3.67758
3.69636
3.70582
3.72336
3.74092
3.75345
3.76202
3.76794
3.77151
3.77086
3.76993
3.77015
3.76922
3.7698
1
1
1
1
1
1
1
1
1
1
1
1
1
1
1
1
1
1
1
1
1
0.999998
0.999998
0.999988
1.00051
1.01219
1.09977
1.52309
2.20754
3.08944
3.41677
3.55895
3.65113
3.71179
3.71989
3.72706
3.74004
3.75495
3.76829
3.77764
3.78083
3.78237
3.78183
3.78081
3.78132
3.78148
3.77944
3.77737
1
1
1
1
1
1
1
1
1
1
1
1
1
1
1
1
1
1
1
0.999998
0.999998
0.999985
1.00053
1.00874
1.11236
1.49972
2.22003
2.95066
3.37603
3.63316
3.7355
3.7584
3.75675
3.75979
3.75563
3.75486
3.7628
3.76951
3.77563
3.78079
3.78679
3.78883
3.78685
3.78436
3.78254
3.77953
3.77512
3.77175
1
1
1
1
1
1
1
1
1
1
1
1
1
1
1
1
1
0.999998
0.999998
0.999984
1.00028
1.00919
1.12916
1.47827
2.25441
2.94265
3.49039
3.71499
3.75256
3.7399
3.74836
3.75005
3.74605
3.74423
3.74815
3.75549
3.75862
3.7599
3.76156
3.76375
3.76761
3.77325
3.77496
3.77556
3.77735
3.77785
3.77558
3.77237
1
1
1
1
1
1
1
1
1
1
1
1
1
1
1
0.999998
0.999998
0.999982
1.00025
1.0149
1.11445
1.51855
2.29843
3.0446
3.5921
3.69766
3.72213
3.72815
3.71349
3.70347
3.70528
3.71309
3.72552
3.73708
3.74928
3.75668
3.76006
3.76129
3.76212
3.76437
3.76579
3.76894
3.77445
3.77728
3.77907
3.77907
3.77689
3.7744
1
1
1
1
1
1
1
1
1
1
1
1
1
0.999997
0.999998
0.999976
1.0005
1.01658
1.13162
1.63025
2.3385
3.2455
3.57464
3.67883
3.73796
3.69568
3.69254
3.70492
3.70162
3.70411
3.71481
3.73543
3.7549
3.76898
3.77671
3.77685
3.77573
3.77216
3.76916
3.76803
3.76726
3.76885
3.77459
3.7775
3.77775
3.7768
3.77345
3.7713
1
1
1
1
1
1
1
1
1
1
1
0.999997
0.999998
0.999961
1.00082
1.01568
1.18211
1.70408
2.54269
3.29393
3.59782
3.7966
3.82951
3.8234
3.78066
3.73281
3.72649
3.72418
3.72152
3.72526
3.73867
3.75914
3.78043
3.78851
3.78701
3.78406
3.7825
3.78136
3.77873
3.77505
3.77332
3.77249
3.77473
3.77803
3.77726
3.77428
3.76801
3.76525
1
1
1
1
1
1
1
1
1
0.999997
0.999998
0.999952
1.00079
1.02583
1.25382
1.77042
2.74484
3.3541
3.80379
3.91997
3.91381
3.86972
3.80793
3.77506
3.76023
3.73933
3.72005
3.71588
3.72043
3.73329
3.7483
3.75839
3.76594
3.77285
3.77604
3.77622
3.77616
3.77591
3.7743
3.77277
3.77268
3.7739
3.77689
3.781
3.7826
3.78062
3.77579
3.77322
1
1
1
1
1
0.999999
1
0.999999
1
0.999937
1.0014
1.04884
1.28384
1.98932
2.90267
3.56233
4.05388
4.08871
4.04257
3.93774
3.84395
3.76009
3.71569
3.70085
3.69979
3.71101
3.7236
3.73449
3.74141
3.74778
3.75086
3.75308
3.75507
3.76131
3.76918
3.77044
3.77031
3.76999
3.76891
3.76811
3.76865
3.77073
3.7743
3.77885
3.78317
3.78448
3.78195
3.78231
1
1
1
1
0.999999
0.99998
1.00006
1.00012
1.00535
1.07821
1.39461
2.17429
3.03719
3.9521
4.08473
4.01773
3.99411
3.94426
3.82709
3.74077
3.71136
3.69467
3.67345
3.67833
3.69776
3.71534
3.73281
3.74887
3.7576
3.76419
3.77006
3.77444
3.77783
3.78163
3.78248
3.78129
3.77812
3.77372
3.76958
3.76683
3.76597
3.76627
3.76744
3.7701
3.77471
3.77793
3.77686
3.7784
1
0.999996
1
1
1.00157
1.0123
1.06452
1.2199
1.60811
2.3561
3.3108
3.95239
4.27321
4.31109
4.24825
4.12759
3.97272
3.77992
3.66962
3.6408
3.64822
3.66662
3.68462
3.70663
3.7321
3.75335
3.76646
3.77577
3.78092
3.78181
3.78416
3.78545
3.78617
3.78764
3.78752
3.78498
3.77975
3.77374
3.76789
3.76296
3.76085
3.76074
3.76125
3.76347
3.76913
3.7749
3.7767
3.77944
1.00191
1.02093
1.06447
1.19647
1.42228
1.75103
2.22911
2.74297
3.34482
3.72133
3.91619
4.05256
4.01568
3.9349
3.84001
3.78237
3.7217
3.70424
3.67289
3.66167
3.67219
3.6929
3.71415
3.73463
3.75791
3.77079
3.77539
3.77716
3.77418
3.77007
3.76824
3.76838
3.76982
3.77238
3.77484
3.7773
3.77788
3.77627
3.7728
3.76829
3.76555
3.76561
3.76654
3.76864
3.77339
3.77784
3.77871
3.77904
1.29328
1.73908
2.32003
2.95008
3.50724
4.18394
4.69714
5.06986
5.33227
5.24598
4.95305
4.49826
4.07157
3.75419
3.65413
3.58338
3.56222
3.59084
3.63114
3.66898
3.69369
3.71184
3.72688
3.74384
3.76405
3.77175
3.7738
3.7717
3.76572
3.76234
3.758
3.75432
3.75457
3.759
3.77015
3.78626
3.79319
3.79285
3.79067
3.78473
3.77476
3.77045
3.77036
3.77094
3.77337
3.77619
3.77686
3.77524
2.6548
1.74501
1.09257
0.745378
0.73813
0.708681
0.681992
0.710882
0.792466
0.860972
0.887858
0.929176
0.992038
1.03285
1.03945
1.04655
1.06674
1.07099
1.06645
1.06645
1.06684
1.06165
1.05369
1.05632
1.06203
1.06175
1.05429
1.04355
1.04064
1.04136
1.04195
1.04191
1.04151
1.04149
1.04093
1.03931
1.03925
1.0402
1.04378
1.04989
1.05181
1.052
1.05179
1.05048
1.04765
1.04638
1.04555
1.04582
1.05686
1.23101
1.79115
3.18977
5.26276
7.81073
10.4058
10.3039
9.29444
8.20457
7.82801
7.81246
7.72184
7.59921
7.47977
7.37738
7.20734
6.9291
6.67335
6.52342
6.41186
6.31043
6.1994
6.05566
5.86795
5.73161
5.66621
5.61823
5.56108
5.48909
5.38523
5.21036
4.97057
4.78729
4.70732
4.66358
4.65002
4.65471
4.61765
4.56351
4.46061
4.26633
4.09306
4.01734
3.97589
3.9399
3.89997
3.84758
3.76287
3.6319
3.55054
3.52012
3.5
3.49338
3.47296
3.43939
3.37612
3.23038
3.07391
3.02114
3
2.98668
2.99046
2.98371
2.96201
2.93557
2.87496
2.75377
2.65352
2.61882
2.60046
2.5832
2.56395
2.5404
2.51525
2.48202
2.43761
2.39325
2.35518
2.31203
2.25547
2.21528
2.19722
2.18217
2.16732
2.15325
2.13911
2.12152
2.09309
2.03842
1.96759
1.9309
1.91845
1.90843
1.90072
1.89563
1.91978
2.03346
2.32859
2.92672
3.72957
4.40638
5.08775
5.64936
5.72566
5.63633
5.40981
5.15472
5.07132
5.05102
5.02981
4.987
4.95408
4.91839
4.84344
4.74202
4.67293
4.62149
4.56985
4.52637
4.49518
4.47186
4.46363
4.46281
4.44861
4.42696
4.39164
4.30829
4.19072
4.13352
4.10901
4.08746
4.06912
4.04969
4.0279
3.99815
3.94298
3.87537
3.84477
3.82695
3.81021
3.7928
3.77573
3.72346
3.36563
2.76376
2.24815
1.6999
1.43118
1.29489
1.11687
1.03502
1.0161
0.967795
0.914287
0.90945
0.930803
0.95396
0.968804
0.980855
1.00744
1.01562
1.01695
1.02218
1.03516
1.04585
1.05142
1.05912
1.06121
1.05973
1.05139
1.04495
1.04475
1.04535
1.04615
1.04684
1.04683
1.04688
1.04561
1.04417
1.04383
1.04417
1.04648
1.04931
1.04987
1.0501
1.05002
1.04897
1.04661
1.04333
1.04379
1.05651
1.23347
1.94348
2.74411
3.16608
3.9031
4.79462
6.70677
8.1799
8.67416
8.41644
8.09071
7.87721
7.69633
7.58862
7.52362
7.40522
7.22251
6.96394
6.66725
6.53308
6.45224
6.34751
6.23321
6.1052
5.95262
5.79101
5.65213
5.57658
5.51167
5.43388
5.33249
5.19873
5.04238
4.89573
4.77877
4.69998
4.65137
4.61395
4.5729
4.50988
4.41379
4.28412
4.15684
4.06112
3.98567
3.93741
3.90665
3.86574
3.7922
3.68315
3.58588
3.53128
3.49751
3.47168
3.44864
3.41383
3.35667
3.25625
3.12858
3.04877
3.01313
2.99376
2.97551
2.96017
2.94283
2.91475
2.86603
2.779
2.68895
2.63696
2.60438
2.58205
2.56771
2.55844
2.53781
2.50755
2.46474
2.41833
2.37594
2.3327
2.28185
2.24192
2.21946
2.2036
2.18845
2.17341
2.15774
2.13875
2.10969
2.05717
1.98273
1.93636
1.92269
1.91416
1.91804
1.96134
2.13935
2.45002
2.83921
3.14447
3.44094
3.84345
4.29433
4.7525
5.04724
5.25833
5.26701
5.19853
5.13853
5.09969
5.05653
5.01202
4.97613
4.92681
4.83985
4.74334
4.6817
4.63855
4.59924
4.55983
4.51933
4.48348
4.45828
4.44235
4.43197
4.41093
4.37213
4.30365
4.21466
4.15574
4.12821
4.10764
4.0869
4.06547
4.04158
4.00897
3.95622
3.89434
3.86158
3.84219
3.82384
3.80511
3.78631
3.73373
3.66822
3.32795
2.88109
2.38644
1.94919
1.68363
1.43079
1.19989
1.1144
1.0445
0.952546
0.930754
0.940966
0.945292
0.941668
0.947149
0.96304
0.972091
0.977371
0.98798
1.01473
1.03392
1.04129
1.04794
1.05174
1.05155
1.04831
1.04776
1.04937
1.05122
1.05356
1.05386
1.05283
1.05003
1.04519
1.04332
1.04309
1.04387
1.04659
1.04791
1.04831
1.04853
1.04762
1.04606
1.04477
1.04734
1.07146
1.2544
2.14869
2.96155
3.30819
3.34825
3.42235
3.52392
4.11401
5.91624
8.04651
8.67605
8.40794
7.83761
7.56669
7.51961
7.47068
7.32516
7.16381
6.9925
6.7461
6.52933
6.39408
6.27914
6.17124
6.07355
5.97845
5.84906
5.69001
5.54279
5.43253
5.33006
5.22162
5.11997
5.0467
4.98056
4.89616
4.78532
4.6761
4.58482
4.5007
4.40688
4.30919
4.23455
4.18021
4.11615
4.04048
3.95819
3.88003
3.81801
3.75114
3.68031
3.62176
3.56701
3.50881
3.45347
3.40693
3.35863
3.29807
3.22637
3.16791
3.11214
3.04444
2.99127
2.96656
2.94678
2.9171
2.87504
2.81931
2.75774
2.71061
2.66697
2.6254
2.592
2.5635
2.53548
2.50806
2.47365
2.42742
2.38393
2.35033
2.31607
2.28255
2.24448
2.20382
2.17591
2.15832
2.14362
2.12884
2.11175
2.0856
2.04354
1.99249
1.94856
1.94005
1.94907
2.01031
2.23693
2.67531
3.01877
3.25273
3.28737
3.28453
3.34829
3.55549
3.9537
4.44884
4.96102
5.15092
5.22023
5.19088
5.1498
5.08214
5.04043
4.98039
4.89095
4.78403
4.7031
4.66213
4.6374
4.62066
4.59423
4.56024
4.51822
4.46726
4.42834
4.39918
4.36616
4.32073
4.26497
4.2227
4.19146
4.15146
4.10309
4.06524
4.03894
4.01449
3.98464
3.94422
3.8991
3.85247
3.81836
3.79439
3.7739
3.75507
3.70686
3.75619
3.61916
3.32269
2.92101
2.47255
2.13462
1.84858
1.55092
1.41211
1.31075
1.15328
1.0802
1.06233
1.01538
0.964297
0.961846
0.957752
0.941842
0.939808
0.947195
0.971923
0.998433
1.01176
1.01993
1.03237
1.03825
1.03975
1.04228
1.0486
1.05431
1.0555
1.05565
1.05452
1.05131
1.04782
1.04676
1.04731
1.05084
1.05405
1.05374
1.05265
1.05077
1.04529
1.04335
1.04802
1.11102
1.38328
2.1323
3.27025
3.44752
3.41517
3.38842
3.38225
3.33072
3.33095
3.66343
5.11671
7.40445
7.94264
7.74993
7.67242
7.56917
7.42946
7.24612
7.1217
7.02473
6.8301
6.54358
6.35885
6.25342
6.16738
6.08938
6.00829
5.91103
5.75275
5.5178
5.32643
5.22328
5.15862
5.11756
5.10316
5.06742
4.99689
4.88235
4.69764
4.51123
4.38775
4.31153
4.26381
4.23021
4.21147
4.17697
4.11757
4.00983
3.86567
3.78197
3.7464
3.71674
3.67629
3.62073
3.54211
3.44666
3.35897
3.29711
3.26195
3.23973
3.2136
3.17147
3.1072
3.03382
2.96243
2.9133
2.87215
2.83236
2.80009
2.77325
2.74299
2.70656
2.66681
2.6232
2.57557
2.53811
2.50631
2.46726
2.4167
2.3689
2.34245
2.32467
2.29937
2.25956
2.21142
2.17527
2.15179
2.13339
2.11706
2.09898
2.07594
2.04079
1.99782
1.97304
1.98887
2.11665
2.38966
2.88496
3.20382
3.34049
3.40124
3.38169
3.32232
3.27289
3.27932
3.37068
3.6232
4.11121
4.61302
4.99411
5.10419
5.08639
5.08786
5.06446
4.97374
4.85165
4.74297
4.69257
4.67659
4.67111
4.66776
4.64273
4.61323
4.57195
4.50491
4.42225
4.35712
4.31268
4.28654
4.26926
4.25041
4.22362
4.17857
4.119
4.06937
4.0325
4.00301
3.97835
3.95338
3.91632
3.86861
3.82405
3.79
3.76144
3.73699
3.69153
3.77107
3.73594
3.59402
3.31713
2.92136
2.57807
2.25575
1.91685
1.71992
1.5829
1.39002
1.25139
1.1835
1.10826
1.00737
0.979625
0.96987
0.945322
0.942016
0.949704
0.964504
0.971318
0.976701
0.980797
0.991283
1.00625
1.01793
1.02816
1.03925
1.04727
1.05015
1.05126
1.05028
1.0463
1.04536
1.04791
1.05392
1.05951
1.0602
1.05924
1.05655
1.05117
1.04398
1.04588
1.137
1.65668
2.36959
3.21105
3.55802
3.55672
3.4766
3.38667
3.35417
3.32564
3.24296
3.23273
3.3867
4.38891
6.35075
7.48039
7.708
7.55003
7.28943
7.15134
7.08304
6.97937
6.80346
6.54392
6.3378
6.2413
6.16265
6.08455
5.99206
5.89095
5.74506
5.49733
5.27552
5.19307
5.13938
5.10627
5.09469
5.04545
4.98051
4.8812
4.67741
4.44497
4.33695
4.2869
4.25026
4.2312
4.20027
4.15327
4.09999
4.00714
3.86304
3.76658
3.71915
3.681
3.64541
3.60265
3.53825
3.43682
3.33186
3.27278
3.23879
3.21205
3.18719
3.15783
3.12572
3.07505
2.98414
2.8828
2.8316
2.80101
2.77493
2.7502
2.72453
2.69874
2.67657
2.64948
2.61154
2.54918
2.48574
2.43779
2.40217
2.37244
2.3397
2.30423
2.27281
2.24214
2.21308
2.18447
2.1564
2.12816
2.10418
2.08161
2.0628
2.04053
2.02092
2.05772
2.25814
2.6564
3.03488
3.36645
3.446
3.45053
3.44385
3.40713
3.33441
3.2672
3.23256
3.22574
3.25256
3.40256
3.80006
4.31612
4.85656
5.01673
5.07994
5.05731
4.93653
4.81273
4.74428
4.7223
4.70139
4.67742
4.65664
4.63554
4.61306
4.57667
4.50378
4.40165
4.32861
4.29242
4.26891
4.24806
4.22658
4.20416
4.18071
4.14488
4.08955
4.0378
4.00053
3.96819
3.93512
3.90009
3.85988
3.81684
3.7791
3.74924
3.72517
3.67765
3.77142
3.75422
3.71222
3.56809
3.27864
2.95947
2.65229
2.31217
2.05657
1.86991
1.66354
1.49662
1.39744
1.30192
1.16324
1.11267
1.08501
1.03522
0.998972
1.00114
0.994762
0.976272
0.964262
0.962152
0.963258
0.968658
0.981467
1.00088
1.02244
1.03243
1.03816
1.04199
1.04233
1.04087
1.04156
1.04773
1.05741
1.06025
1.06065
1.05991
1.05599
1.04908
1.05165
1.13027
1.75269
2.70507
3.24214
3.5383
3.57987
3.53869
3.47902
3.39583
3.31349
3.27295
3.2224
3.172
3.14984
3.20827
3.80754
5.41305
6.89812
7.16165
7.19374
7.18771
7.11884
6.94498
6.74466
6.54118
6.34409
6.22551
6.14273
6.06104
5.96939
5.87388
5.74286
5.51687
5.28627
5.19058
5.13635
5.092
5.0632
5.01816
4.95386
4.85805
4.67496
4.44973
4.33965
4.29022
4.24908
4.21568
4.18821
4.15082
4.10015
4.0028
3.85618
3.75633
3.70627
3.6688
3.63369
3.59528
3.53945
3.43331
3.31001
3.25283
3.22526
3.20327
3.1923
3.18462
3.15918
3.11252
3.00928
2.86841
2.79585
2.77247
2.75624
2.74846
2.7445
2.72968
2.70903
2.67849
2.61696
2.5326
2.46311
2.42085
2.39307
2.36699
2.33451
2.29838
2.26606
2.23892
2.21363
2.18548
2.15256
2.12415
2.10003
2.07969
2.06235
2.07383
2.16226
2.43271
2.94604
3.22959
3.40913
3.50656
3.53319
3.52488
3.48024
3.40672
3.34476
3.2804
3.23367
3.20587
3.19863
3.2089
3.28696
3.52172
3.99755
4.52109
4.79661
4.91025
4.87816
4.82278
4.78455
4.7731
4.74183
4.6952
4.66853
4.65315
4.62444
4.56416
4.47086
4.38587
4.32487
4.28799
4.26579
4.24507
4.22349
4.20117
4.17225
4.13135
4.08231
4.0357
3.99792
3.96564
3.93469
3.90177
3.86274
3.81892
3.78172
3.74613
3.71151
3.65962
3.76313
3.75745
3.7328
3.67288
3.51534
3.2816
2.9827
2.65592
2.4011
2.17864
1.93881
1.75868
1.62254
1.49727
1.35432
1.27636
1.22105
1.14384
1.0627
1.04564
1.02185
0.986996
0.972766
0.972329
0.967899
0.96815
0.973232
0.985911
0.996795
1.00099
1.0055
1.0125
1.01901
1.02581
1.03403
1.04589
1.05569
1.05776
1.05874
1.05819