/*--------------------------------*- C++ -*----------------------------------*\
  =========                 |
  \\      /  F ield         | OpenFOAM: The Open Source CFD Toolbox
   \\    /   O peration     | Website:  https://openfoam.org
    \\  /    A nd           | Version:  7
     \\/     M anipulation  |
\*---------------------------------------------------------------------------*/
FoamFile
{
    version     2.0;
    format      ascii;
    class       volScalarField;
    location    "3.6";
    object      T;
}
// * * * * * * * * * * * * * * * * * * * * * * * * * * * * * * * * * * * * * //

dimensions      [0 0 0 1 0 0 0];

internalField   nonuniform List<scalar> 
18432
(
1
1
1
1
1
1
1
1
1
1
1
1
1
1
1
1
1
1
1
1
1
1
1
1
1
1
1
1
1
1
1
1
1
1
1
1
1
1
1
1
1
1
1
1
1
1
1
1
1
1
1
1
1
1
1
1
1
1
1
1
1
1
1
1
1
1
1
1
1
1
1
1
1
1
1
1
1
1
1
1
1
1
1
1
1
1
1
1
1
1
1
1
1
1
1
1
1
1
1
1
1
1
1
1
1
1
1
1
1
1
1
1
1
1
1
1
1
1
1
1
1
1
1
1
1
1
1
1
1
1
1
1
1
1
1
1
1
1
1
1
1
1
1
1
1
1
1
1
1
1
1
1
1
1
1
1
1
1
1
1
1
1
1
1
1
1
1
1
1
1
1
1
1
1
1
1
1
1
1
1
1
1
1
1
1
1
1
1
1
1
1
1
1
1
1
1
1
1
1
1
1
1
1
1
1
1
1
1
1
1
1
1
1
1
1
1
1
1
1
1
1
1
1
1
1
1
1
1
1
1
1
1
1
1
1
1
1
1
1
1
1
1
1
1
1
1
1
1
1
1
1
1
1
1
1
1
1
1
1
1
1
1
1
1
1
1
1
1
1
1
1
1
1
1
1
1
1
1
1
1
1
1
1
1
1
1
1
1
1
1
1
1
1
1
1
1
1
1
1
1
1
1
1
1
1
1
1
1
1
1
1
1
1
1
1
1
1
1
1
1
1
1
1
1
1
1
1
1
1
1
1
1
1
1
1
1
1
1
1
1
1
1
1
1
1
1
1
1
1
1
1
1
1
1
1
1
1
1
1
1
1
1
1
1
1
1
1
1
1
1
1
1
1
1
1
1
1
1
1
1
1
1
1
1
1
1
1
1
1
1
1
1
1
1
1
1
1
1
1
1
1
1
1
1
1
1
1
1
1
1
1
1
1
1
1
1
1
1
1
1
1
1
1
1
1
1
1
1
1
1
1
1
1
1
1
1
1
1
1
1
1
1
1
1
1
1
1
1
1
1
1
1
1
1
1
1
1
1
1
1
1
1
1
1
1
1
1
1
1
1
1
1
1
1
1
1
1
1
1
1
1
1
1
1
1
1
1
1
1
1
1
1
1
1
1
1
1
1
1
1
1
1
1
1
1
1
1
1
1
1
1
1
1
1
1
1
1
1
1
1
1
1
1
1
1
1
1
1
1
1
1
1
1
1
1
1
1
1
1
1
1
1
1
1
1
1
1
1
1
1
1
1
1
1
1
1
1
1
1
1
1
1
1
1
1
1
1
1
1
1
1
1
1
1
1
1
1
1
1
1
1
1
1
1
1
1
1
1
1
1
1
1
1
1
1
1
1
1
1
1
1
1
1
1
1
1
1
1
1
1
1
1
1
1
1
1
1
1
1
1
1
1
1
1
1
1
1
1
1
1
1
1
1
1
1
1
1
1
1
1
1
1
1
1
1
1
1
1
1
1
1
1
1
1
1
1
1
1
1
1
1
1
1
1
1
1
1
1
1
1
1
1
1
1
1
1
1
1
1
1
1
1
1
1
1
1
1
1
1
1
1
1
1
1
1
1
1
1
1
1
1
1
1
1
1
1
1
1
1
1
1
1
1
1
1
1
1
1
1
1
1
1
1
1
1
1
1
1
1
1
1
1
1
1
1
1
1
1
1
1
1
1
1
1
1
1
1
1
1
1
1
1
1
1
1
1
1
1
1
1
1
1
1
1
1
1
1
1
1
1
1
1
1
1
1
1
1
1
1
1
1
1
1
1
1
1
1
1
1
1
1
1
1
1
1
1
1
1
1
1
1
1
1
1
1
1
1
1
1
1
1
1
1
1
1
1
1
1
1
1
1
1
1
1
1
1
1
1
1
1
1
1
1
1
1
1
1
1
1
1
1
1
1
1
1
1
1
1
1
1
1
1
1
1
1
1
1
1
1
1
1
1
1
1
1
1
1
1
1
1
1
1
1
1
1
1
1
1
1
1
1
1
1
1
1
1
1
1
1
1
1
1
1
1
1
1
1
1
1
1
1
1
1
1
1
1
1
1
1
1
1
1
1
1
1
1
1
1
1
1
1
1
1
1
1
1
1
1
1
1
1
1
1
1
1
1
1
1
1
1
1
1
1
1
1
1
1
1
1
1
1
1
1
1
1
1
1
1
1
1
1
1
1
1
1
1
1
1
1
1
1
1
1
1
1
1
1
1
1
1
1
1
1
1
1
1
1
1
1
1
1
1
1
1
1
1
1
1
1
1
1
1
1
1
1
1
1
1
1
1
1
1
1
1
1
1
1
1
1
1
1
1
1
1
1
1
1
1
1
1
1
1
1
1
1
1
1
1
1
1
1
1
1
1
1
1
1
1
1
1
1
1
1
1
1
1
1
1
1
1
1
1
1
1
1
1
1
1
1
1
1
1
1
1
1
1
1
1
1
1
1
1
1
1
1
1
1
1
1
1
1
1
1
1
1
1
1
1
1
1
1
1
1
1
1
1
1
1
1
1
1
1
1
1
1
1
1
1
1
1
1
1
1
1
1
1
1
1
1
1
1
1
1
1
1
1
1
1
1
1
1
1
1
1
1
1
1
1
1
1
1
1
1
1
1
1
1
1
1
1
1
1
1
1
1
1
1
1
1
1
1
1
1
1
1
1
1
1
1
1
1
1
1
1
1
1
1
1
1
1
1
1
1
1
1
1
1
1
1
1
1
1
1
1
1
1
1
1
1
1
1
1
1
1
1
1
1
1
1
1
1
1
1
1
1
1
1
1
1
1
1
1
1
1
1
1
1
1
1
1
1
1
1
1
1
1
1
1
1
1
1
1
1
1
1
1
1
1
1
1
1
1
1
1
1
1
1
1
1
1
1
1
1
1
1
1
1
1
1
1
1
1
1
1
1
1
1
1
1
1
1
1
1
1
1
1
1
1
1
1
1
1
1
1
1
1
1
1
1
1
1
1
1
1
1
1
1
1
1
1
1
1
1
1
1
1
1
1
1
1
1
1
1
1
1
1
1
1
1
1
1
1
1
1
1
1
1
1
1
1
1
1
1
1
1
1
1
1
1
1
1
1
1
1
1
1
1
1
1
1
1
1
1
1
1
1
1
1
1
1
1
1
1
1
1
1
1
1
1
1
1
1
1
1
1
1
1
1
1
1
1
1
1
1
1
1
1
1
1
1
1
1
1
1
1
1
1
1
1
1
1
1
1
1
1
1
1
1
1
1
1
1
1
1
1
1
1
1
1
1
1
1
1
1
1
1
1
1
1
1
1
1
1
1
1
1
1
1
1
1
1
1
1
1
1
1
1
1
1
1
1
1
1
1
1
1
1
1
1
1
1
1
1
1
1
1
1
1
1
1
1
1
1
1
1
1
1
1
1
1
1
1
1
1
1
1
1
1
1
1
1
1
1
1
1
1
1
1
1
1
1
1
1
1
1
1
1
1
1
1
1
1
1
1
1
1
1
1
1
1
1
1
1
1
1
1
1
1
1
1
1
1
1
1
1
1
1
1
1
1
1
1
1
1
1
1
1
1
1
1
1
1
1
1
1
1
1
1
1
1
1
1
1
1
1
1
1
1
1
1
1
1
1
1
1
1
1
1
1
1
1
1
1
1
1
1
1
1
1
1
1
1
1
1
1
1
1
1
1
1
1
1
1
1
1
1
1
1
1
1
1
1
1
1
1
1
1
1
1
1
1
1
1
1
1
1
1
1
1
1
1
1
1
1
1
1
1
1
1
1
1
1
1
1
1
1
1
1
1
1
1
1
1
1
1
1
1
1
1
1
1
1
1
1
1
1
1
1
1
1
1
1
1
1
1
1
1
1
1
1
1
1
1
1
1
1
1
1
1
1
1
1
1
1
1
1
1
1
1
1
1
1
1
1
1
1
1
1
1
1
1
1
1
1
1
1
1
1
1
1
1
1
1
1
1
1
1
1
1
1
1
1
1
1
1
1
1
1
1
1
1
1
1
1
1
1
1
1
1
1
1
1
1
1
1
1
1
1
1
1
1
1
1
1
1
1
1
1
1
1
1
1
1
1
1
1
1
1
1
1
1
1
1
1
1
1
1
1
1
1
1
1
1
1
1
1
1
1
1
1
1
1
1
1
1
1
1
1
1
1
1
1
1
1
1
1
1
1
1
1
1
1
1
1
1
1
1
1
1
1
1
1
1
1
1
1
1
1
1
1
1
1
1
1
1
1
1
1
1
1
1
1
1
1
1
1
1
1
1
1
1
1
1
1
1
1
1
1
1
1
1
1
1
1
1
1
1
1
1
1
1
1
1
1
1
1
1
1
1
1
1
1
1
1
1
1
1
1
1
1
1
1
1
1
1
1
1
1
1
1
1
1
1
1
1
1
1
1
1
1
1
1
1
1
1
1
1
1
1
1
1
1
1
1
1
1
1
1
1
1
1
1
1
1
1
1
1
1
1
1
1
1
1
1
1
1
1
1
1
1
1
1
1
1
1
1
1
1
1
1
1
1
1
1
1
1
1
1
1
1
1
1
1
1
1
1
1
1
1
1
1
1
1
1
1
1
1
1
1
1
1
1
1
1
1
1
1
1
1
1
1
1
1
1
1
1
1
1
1
1
1
1
1
1
1
1
1
1
1
1
1
1
1
1
1
1
1
1
1
1
1
1
1
1
1
1
1
1
1
1
1
1
1
1
1
1
1
1
1
1
1
1
1
1
1
1
1
1
1
1
1
1
1
1
1
1
1
1
1
1
1
1
1
1
1
1
1
1
1
1
1
1
1
1
1
1
1
1
1
1
1
1
1
1
1
1
1
1
1
1
1
1
1
1
1
1
1
1
1
1
1
1
1
1
1
1
1
1
1
1
1
1
1
1
1
1
1
1
1
1
1
1
1
1
1
1
1
1
1
1
1
1
1
1
1
1
1
1
1
1
1
1
1
1
1
1
1
1
1
1
1
1
1
1
1
1
1
1
1
1
1
1
1
1
1
1
1
1
1
1
1
1
1
1
1
1
1
1
1
1
1
1
1
1
1
1
1
1
1
1
1
1
1
1
1
1
1
1
1
1
1
1
1
1
1
1
1
1
1
1
1
1
1
1
1
1
1
1
1
1
1
1
1
1
1
1
1
1
1
1
1
1
1
1
1
1
1
1
1
1
1
1
1
1
1
1
1
1
1
1
1
1
1
1
1
1
1
1
1
1
1
1
1
1
1
1
1
1
1
1
1
1
1
1
1
1
1
1
1
1
1
1
1
1
1
1
1
1
1
1
1
1
1
1
1
1
1
1
1
1
1
1
1
1
1
1
1
1
1
1
1
1
1
1
1
1
1
1
1
1
1
1
1
1
1
1
1
1
1
1
1
1
1
1
1
1
1
1
1
1
1
1
1
1
1
1
1
1
1
1
1
1
1
1
1
1
1
1
1
1
1
1
1
1
1
1
1
1
1
1
1
1
1
1
1
1
1
1
1
1
1
1
1
1
1
1
1
1
1
1
1
1
1
1
1
1
1
1
1
1
1
1
1
1
1
1
1
1
1
1
1
1
1
1
1
1
1
1
1
1
1
1
1
1
1
1
1
1
1
1
1
1
1
1
1
1
1
1
1
1
1
1
1
1
1
1
1
1
1
1
1
1
1
1
1
1
1
1
1
1
1
1
1
1
1
1
1
1
1
1
1
1
1
1
1
1
1
1
1
1
1
1
1
1
1
1
1
1
1
1
1
1
1
1
1
1
1
1
1
1
1
1
1
1
1
1
1
1
1
1
1
1
1
1
1
1
1
1
1
1
1
1
1
1
1
1
1
1
1
1
1
1
1
1
1
1
1
1
1
1
1
1
1
1
1
1
1
1
1
1
1
1
1
1
1
1
1
1
1
1
1
1
1
1
1
1
1
1
1
1
1
1
1
1
1
1
1
1
1
1
1
1
1
1
1
1
1
1
1
1
1
1
1
1
1
1
1
1
1
1
1
1
1
1
1
1
1
1
1
1
1
1
1
1
1
1
1
1
1
1
1
1
1
1
1
1
1
1
1
1
1
1
1
1
1
1
1
1
1
1
1
1
1
1
1
1
1
1
1
1
1
1
1
1
1
1
1
1
1
1
1
1
1
1
1
1
1
1
1
1
1
1
1
1
1
1
1
1
1
1
1
1
1
1
1
1
1
1
1
1
1
1
1
1
1
1
1
1
1
1
1
1
1
1
1
1
1
1
1
1
1
1
1
1
1
1
1
1
1
1
1
1
1
1
1
1
1
1
1
1
1
1
1
1
1
1
1
1
1
1
1
1
1
1
1
1
1
1
1
1
1
1
1
1
1
1
1
1
1
1
1
1
1
1
1
1
1
1
1
1
1
1
1
1
1
1
1
1
1
1
1
1
1
1
1
1
1
1
1
1
1
1
1
1
1
1
1
1
1
1
1
1
1
1
1
1
1
1
1
1
1
1
1
1
1
1
1
1
1
1
1
1
1
1
1
1
1
1
1
1
1
1
1
1
1
1
1
1
1
1
1
1
1
1
1
1
1
1
1
1
1
1
1
1
1
1
1
1
1
1
1
1
1
1
1
1
1
1
1
1
1
1
1
1
1
1
1
1
1
1
1
1
1
1
1
1
1
1
1
1
1
1
1
1
1
1
1
1
1
1
1
1
1
1
1
1
1
1
1
1
1
1
1
1
1
1
1
1
1
1
1
1
1
1
1
1
1
1
1
1
1
1
1
1
1
1
1
1
1
1
1
1
1
1
1
1
1
1
1
1
1
1
1
1
1
1
1
1
1
1
1
1
1
1
1
1
1
1
1
1
1
1
1
1
1
1
1
1
1
1
1
1
1
1
1
1
1
1
1
1
1
1
1
1
1
1
1
1
1
1
1
1
1
1
1
1
1
1
1
1
1
1
1
1
1
1
1
1
1
1
1
1
1
1
1
1
1
1
1
1
1
1
1.07871
1.17702
1.28537
1.38802
1.47012
1.55869
1.62204
1.664
1.69432
1.68955
1.66329
1.6162
1.5709
1.53435
1.52386
1.51682
1.5144
1.51747
1.52201
1.52696
1.5309
1.53402
1.53618
1.53803
1.54006
1.54119
1.54199
1.54243
1.54234
1.5421
1.54154
1.54115
1.54132
1.54233
1.54421
1.54638
1.54726
1.54724
1.54702
1.54634
1.54536
1.54519
1.54535
1.54562
1.54604
1.54645
1.5466
1.54658
1.00061
1.00704
1.02215
1.06669
1.13325
1.21096
1.30152
1.37773
1.4556
1.50436
1.53321
1.55649
1.56288
1.55958
1.55289
1.54807
1.54026
1.53687
1.53168
1.53162
1.53342
1.53652
1.53924
1.54143
1.54374
1.54515
1.54606
1.54676
1.54669
1.54636
1.54598
1.54589
1.546
1.54646
1.54703
1.54755
1.54765
1.54746
1.54701
1.54645
1.54626
1.54636
1.54664
1.54704
1.54761
1.54808
1.54813
1.54866
1
1
0.999999
1
1.00055
1.00425
1.02241
1.07421
1.18359
1.34638
1.50194
1.58403
1.62047
1.62004
1.6128
1.59974
1.58202
1.55928
1.54419
1.54132
1.54236
1.54504
1.54753
1.55002
1.55246
1.5542
1.55535
1.55638
1.55706
1.55711
1.55714
1.55683
1.5563
1.55607
1.55589
1.55551
1.55485
1.55395
1.5529
1.55201
1.5516
1.55152
1.55152
1.55169
1.55213
1.55248
1.55235
1.55335
1
1
1
1
1
0.999993
1.00002
1.00004
1.00194
1.02984
1.14392
1.33965
1.48363
1.61246
1.61447
1.60188
1.6008
1.59591
1.58151
1.5705
1.56657
1.56425
1.56102
1.56137
1.5631
1.56442
1.56565
1.5669
1.56772
1.56837
1.5685
1.56823
1.56768
1.56737
1.5671
1.56673
1.56605
1.56498
1.56364
1.56252
1.56195
1.5617
1.56155
1.56148
1.56147
1.56135
1.56039
1.56121
1
1
1
1
1
1
1
1
1
0.999974
1.00053
1.0187
1.10454
1.30191
1.47175
1.56409
1.62671
1.62686
1.62036
1.60698
1.59555
1.5848
1.57849
1.57592
1.57429
1.57503
1.57595
1.57673
1.57732
1.57781
1.5774
1.57659
1.57587
1.57603
1.57666
1.5766
1.57616
1.57536
1.57422
1.57318
1.57273
1.57266
1.57266
1.57266
1.57253
1.57199
1.57045
1.57106
1
1
1
1
1
1
1
1
1
0.999999
0.999999
0.999981
1.00027
1.00969
1.09469
1.24655
1.43924
1.53013
1.59337
1.60776
1.60698
1.60162
1.59337
1.58842
1.58565
1.5826
1.58074
1.57999
1.58028
1.5813
1.58211
1.58244
1.58304
1.58381
1.58401
1.58381
1.5833
1.58256
1.58165
1.58095
1.58071
1.5806
1.58055
1.58055
1.58022
1.57931
1.57758
1.57784
1
1
1
1
1
1
1
1
1
1
1
0.999999
0.999999
0.999985
1.00028
1.00575
1.06666
1.22426
1.39793
1.51949
1.5609
1.5875
1.59179
1.59135
1.58678
1.58207
1.58207
1.58157
1.58006
1.58012
1.5812
1.58336
1.58645
1.58751
1.58722
1.58653
1.58586
1.5853
1.5846
1.58408
1.58387
1.58364
1.58368
1.58369
1.58329
1.58247
1.58114
1.58115
1
1
1
1
1
1
1
1
1
1
1
1
1
0.999999
0.999999
0.999991
1.00016
1.00592
1.04817
1.20256
1.35764
1.50303
1.55174
1.56565
1.57733
1.57356
1.57346
1.57474
1.57419
1.57445
1.57582
1.57864
1.58152
1.58366
1.58461
1.58453
1.58417
1.5835
1.58314
1.58317
1.58321
1.58349
1.58404
1.5841
1.58394
1.58363
1.58307
1.58299
1
1
1
1
1
1
1
1
1
1
1
1
1
1
1
0.999999
0.999999
0.999993
1.00008
1.00522
1.04137
1.16746
1.34528
1.47161
1.54857
1.56344
1.56782
1.57028
1.5693
1.56899
1.5698
1.57153
1.57333
1.575
1.57689
1.57823
1.57887
1.57931
1.57987
1.58067
1.58129
1.58198
1.58263
1.58292
1.58314
1.58317
1.58305
1.58288
1
1
1
1
1
1
1
1
1
1
1
1
1
1
1
1
1
1
1
0.999994
1.00009
1.00316
1.04618
1.15658
1.33151
1.44833
1.52869
1.55862
1.56603
1.56674
1.56936
1.56965
1.56919
1.56932
1.57048
1.5723
1.57342
1.57435
1.57533
1.57629
1.5774
1.57858
1.57919
1.57964
1.58035
1.58082
1.58112
1.58089
1
1
1
1
1
1
1
1
1
1
1
1
1
1
1
1
1
1
1
0.999999
1
0.999995
1.00017
1.00301
1.03932
1.16124
1.32128
1.44474
1.50724
1.54527
1.55997
1.5635
1.56386
1.56535
1.56611
1.56673
1.56842
1.56994
1.57123
1.57233
1.57379
1.57485
1.57542
1.57597
1.57657
1.57691
1.57731
1.57705
1
1
1
1
1
1
1
1
1
1
1
1
1
1
1
1
1
1
1
1
1
0.999999
1
0.999996
1.00016
1.00417
1.03486
1.16544
1.31858
1.46323
1.51067
1.53107
1.54447
1.55364
1.55592
1.55788
1.56071
1.56297
1.56454
1.56581
1.56705
1.56832
1.56939
1.57023
1.57108
1.5718
1.57256
1.57245
1
1
1
1
1
1
1
1
1
1
1
1
1
1
1
1
1
1
1
1
1
1
1
1
1
0.999997
1.00013
1.00574
1.0405
1.1742
1.33951
1.46946
1.53012
1.53754
1.54401
1.54925
1.55223
1.55462
1.5563
1.55766
1.55932
1.56149
1.56325
1.56399
1.56446
1.56492
1.5655
1.56583
1
1
1
1
1
1
1
1
1
1
1
1
1
1
1
1
1
1
1
1
1
1
1
1
1
1
1
1
1.00022
1.0068
1.05875
1.19386
1.36495
1.47631
1.53596
1.55226
1.5537
1.55666
1.55637
1.55552
1.55598
1.55767
1.55906
1.55979
1.55969
1.55938
1.55961
1.56024
1
1
1
1
1
1
1
1
1
1
1
1
1
1
1
1
1
1
1
1
1
1
1
1
1
1
1
1
0.999999
1
1.00055
1.00924
1.08499
1.23313
1.39958
1.48765
1.5369
1.55502
1.5558
1.55629
1.55711
1.55791
1.55901
1.55906
1.55858
1.55797
1.55794
1.55843
1
1
1
1
1
1
1
1
1
1
1
1
1
1
1
1
1
1
1
1
1
1
1
1
1
1
1
1
1
1
0.999999
1.00001
1.00148
1.01645
1.12056
1.29087
1.45238
1.50816
1.52894
1.54529
1.55248
1.55393
1.55525
1.55634
1.55653
1.55646
1.55681
1.55756
1
1
1
1
1
1
1
1
1
1
1
1
1
1
1
1
1
1
1
1
1
1
1
1
1
1
1
1
1
1
1
1
0.999999
1.00006
1.00395
1.03569
1.17811
1.35446
1.49593
1.53764
1.54324
1.54776
1.54919
1.55064
1.55238
1.55348
1.55451
1.5558
1
1
1
1
1
1
1
1
1
1
1
1
1
1
1
1
1
1
1
1
1
1
1
1
1
1
1
1
1
1
1
1
1
1
1
1.00031
1.0104
1.07631
1.26107
1.4257
1.52034
1.55266
1.55344
1.55676
1.55657
1.55547
1.5549
1.55569
1
1
1
1
1
1
1
1
1
1
1
1
1
1
1
1
1
1
1
1
1
1
1
1
1
1
1
1
1
1
1
1
1
1
1
0.999999
1.00004
1.00148
1.03048
1.15475
1.35195
1.47256
1.53516
1.55838
1.55856
1.55774
1.55773
1.55824
1
1
1
1
1
1
1
1
1
1
1
1
1
1
1
1
1
1
1
1
1
1
1
1
1
1
1
1
1
1
1
1
1
1
1
1
1
1
1.00035
1.00705
1.08023
1.26383
1.45297
1.51988
1.53647
1.54649
1.55328
1.55537
1
1
1
1
1
1
1
1
1
1
1
1
1
1
1
1
1
1
1
1
1
1
1
1
1
1
1
1
1
1
1
1
1
1
1
1
1
1
1
1.00002
1.00249
1.03346
1.18451
1.38238
1.51482
1.54682
1.55206
1.5539
1
1
1
1
1
1
1
1
1
1
1
1
1
1
1
1
1
1
1
1
1
1
1
1
1
1
1
1
1
1
1
1
1
1
1
1
1
1
1
1
1
1.00043
1.01456
1.10894
1.32463
1.47924
1.54765
1.56112
1
1
1
1
1
1
1
1
1
1
1
1
1
1
1
1
1
1
1
1
1
1
1
1
1
1
1
1
1
1
1
1
1
1
1
1
1
1
1
1
1
1
1.00014
1.00433
1.073
1.25713
1.4471
1.50919
1
1
1
1
1
1
1
1
1
1
1
1
1
1
1
1
1
1
1
1
1
1
1
1
1
1
1
1
1
1
1
1
1
1
1
1
1
1
1
1
1
1
1
1.00002
1.00246
1.03211
1.20561
1.38988
1
1
1
1
1
1
1
1
1
1
1
1
1
1
1
1
1
1
1
1
1
1
1
1
1
1
1
1
1
1
1
1
1
1
1
1
1
1
1
1
1
1
1
1
1.00001
1.00055
1.02393
1.13146
1
1
1
1
1
1
1
1
1
1
1
1
1
1
1
1
1
1
1
1
1
1
1
1
1
1
1
1
1
1
1
1
1
1
1
1
1
1
1
1
1
1
1
1
1
1
1.0005
1.00621
1
1
1
1
1
1
1
1
1
1
1
1
1
1
1
1
1
1
1
1
1
1
1
1
1
1
1
1
1
1
1
1
1
1
1
1
1
1
1
1
1
1
1
1
1
1
1
0.999952
1
1
1
1
1
1
1
1
1
1
1
1
1
1
1
1
1
1
1
1
1
1
1
1
1
1
1
1
1
1
1
1
1
1
1
1
1
1
1
1
1
1
1
1
1
1
1
0.999985
1
1
1
1
1
1
1
1
1
1
1
1
1
1
1
1
1
1
1
1
1
1
1
1
1
1
1
1
1
1
1
1
1
1
1
1
1
1
1
1
1
1
1
1
1
1
1
0.999998
1
1
1
1
1
1
1
1
1
1
1
1
1
1
1
1
1
1
1
1
1
1
1
1
1
1
1
1
1
1
1
1
1
1
1
1
1
1
1
1
1
1
1
1
1
1
1
1
1
1
1
1
1
1
1
1
1
1
1
1
1
1
1
1
1
1
1
1
1
1
1
1
1
1
1
1
1
1
1
1
1
1
1
1
1
1
1
1
1
1
1
1
1
1
1
1
1
1
1
1
1
1
1
1
1
1
1
1
1
1
1
1
1
1
1
1
1
1
1
1
1
1
1
1
1
1
1
1
1
1
1
1
1
1
1
1
1
1
1
1
1
1
1
1
1
1
1
1
1
1
1
1
1
1
1
1
1
1
1
1
1
1
1
1
1
1
1
1
1
1
1
1
1
1
1
1
1
1
1
1
1
1
1
1
1
1
1
1
1
1
1
1
1
1
1
1
1
1
1
1
1
1
1
1
1
1
1
1
1
1
1
1
1
1
1
1
1
1
1
1
1
1
1
1
1
1
1
1
1
1
1
1
1
1
1
1
1
1
1
1
1
1
1
1
1
1
1
1
1
1
1
1
1
1
1
1
1
1
1
1
1
1
1
1
1
1
1
1
1
1
1
1
1
1
1
1
1
1
1
1
1
1
1
1
1
1
1
1
1
1
1
1
1
1
1
1
1
1
1
1
1
1
1
1
1
1
1
1
1
1
1
1
1
1
1
1
1
1
1
1
1
1
1
1
1
1
1
1
1
1
1
1
1
1
1
0.999998
1
1
1
1
1
1
1
1
1
1
1
1
1
1
1
1
1
1
1
1
1
1
1
1
1
1
1
1
1
1
1
1
1
1
1
1
1
1
1
1
1
1
1
1
1
1
1
0.999985
1
1
1
1
1
1
1
1
1
1
1
1
1
1
1
1
1
1
1
1
1
1
1
1
1
1
1
1
1
1
1
1
1
1
1
1
1
1
1
1
1
1
1
1
1
1
1
0.999952
1
1
1
1
1
1
1
1
1
1
1
1
1
1
1
1
1
1
1
1
1
1
1
1
1
1
1
1
1
1
1
1
1
1
1
1
1
1
1
1
1
1
1
1
1
1
1.00051
1.00614
1
1
1
1
1
1
1
1
1
1
1
1
1
1
1
1
1
1
1
1
1
1
1
1
1
1
1
1
1
1
1
1
1
1
1
1
1
1
1
1
1
1
1
1
1.00001
1.00055
1.02395
1.13138
1
1
1
1
1
1
1
1
1
1
1
1
1
1
1
1
1
1
1
1
1
1
1
1
1
1
1
1
1
1
1
1
1
1
1
1
1
1
1
1
1
1
1
1.00002
1.00246
1.03209
1.20542
1.39028
1
1
1
1
1
1
1
1
1
1
1
1
1
1
1
1
1
1
1
1
1
1
1
1
1
1
1
1
1
1
1
1
1
1
1
1
1
1
1
1
1
1
1.00014
1.00433
1.07299
1.25705
1.44707
1.50934
1
1
1
1
1
1
1
1
1
1
1
1
1
1
1
1
1
1
1
1
1
1
1
1
1
1
1
1
1
1
1
1
1
1
1
1
1
1
1
1
1
1.00043
1.01456
1.10899
1.32456
1.47914
1.54772
1.56113
1
1
1
1
1
1
1
1
1
1
1
1
1
1
1
1
1
1
1
1
1
1
1
1
1
1
1
1
1
1
1
1
1
1
1
1
1
1
1
1.00002
1.0025
1.03346
1.18451
1.38243
1.51474
1.54682
1.55214
1.55392
1
1
1
1
1
1
1
1
1
1
1
1
1
1
1
1
1
1
1
1
1
1
1
1
1
1
1
1
1
1
1
1
1
1
1
1
1
1
1.00035
1.00705
1.08024
1.2638
1.45301
1.51987
1.53645
1.54648
1.55332
1.55538
1
1
1
1
1
1
1
1
1
1
1
1
1
1
1
1
1
1
1
1
1
1
1
1
1
1
1
1
1
1
1
1
1
1
1
0.999999
1.00004
1.00148
1.03048
1.15476
1.35195
1.47255
1.53518
1.55837
1.55856
1.55774
1.55773
1.55824
1
1
1
1
1
1
1
1
1
1
1
1
1
1
1
1
1
1
1
1
1
1
1
1
1
1
1
1
1
1
1
1
1
1
1
1.00031
1.0104
1.07631
1.26107
1.4257
1.52034
1.55266
1.55345
1.55677
1.55657
1.55547
1.55489
1.55569
1
1
1
1
1
1
1
1
1
1
1
1
1
1
1
1
1
1
1
1
1
1
1
1
1
1
1
1
1
1
1
1
0.999999
1.00006
1.00395
1.03569
1.17811
1.35445
1.49593
1.53764
1.54324
1.54776
1.54919
1.55064
1.55238
1.55348
1.5545
1.5558
1
1
1
1
1
1
1
1
1
1
1
1
1
1
1
1
1
1
1
1
1
1
1
1
1
1
1
1
1
1
0.999999
1.00001
1.00148
1.01645
1.12056
1.29087
1.45238
1.50816
1.52894
1.54529
1.55248
1.55393
1.55525
1.55634
1.55653
1.55646
1.55681
1.55756
1
1
1
1
1
1
1
1
1
1
1
1
1
1
1
1
1
1
1
1
1
1
1
1
1
1
1
1
0.999999
1
1.00055
1.00924
1.08499
1.23313
1.39958
1.48765
1.5369
1.55502
1.5558
1.55629
1.55711
1.55791
1.55901
1.55906
1.55858
1.55797
1.55794
1.55843
1
1
1
1
1
1
1
1
1
1
1
1
1
1
1
1
1
1
1
1
1
1
1
1
1
1
1
1
1.00022
1.0068
1.05875
1.19386
1.36495
1.47631
1.53596
1.55226
1.5537
1.55666
1.55637
1.55552
1.55598
1.55767
1.55906
1.55979
1.55969
1.55938
1.55961
1.56024
1
1
1
1
1
1
1
1
1
1
1
1
1
1
1
1
1
1
1
1
1
1
1
1
1
0.999997
1.00013
1.00574
1.0405
1.1742
1.33951
1.46946
1.53012
1.53754
1.54401
1.54925
1.55223
1.55462
1.5563
1.55766
1.55932
1.56149
1.56325
1.56399
1.56446
1.56492
1.5655
1.56583
1
1
1
1
1
1
1
1
1
1
1
1
1
1
1
1
1
1
1
1
1
0.999999
1
0.999996
1.00016
1.00417
1.03486
1.16544
1.31858
1.46323
1.51067
1.53107
1.54447
1.55364
1.55592
1.55788
1.56071
1.56297
1.56454
1.56581
1.56705
1.56832
1.56939
1.57023
1.57108
1.5718
1.57256
1.57245
1
1
1
1
1
1
1
1
1
1
1
1
1
1
1
1
1
1
1
0.999999
1
0.999995
1.00017
1.00301
1.03932
1.16124
1.32128
1.44474
1.50724
1.54527
1.55997
1.5635
1.56386
1.56535
1.56611
1.56673
1.56842
1.56994
1.57123
1.57233
1.57379
1.57485
1.57542
1.57597
1.57657
1.57691
1.57731
1.57705
1
1
1
1
1
1
1
1
1
1
1
1
1
1
1
1
1
1
1
0.999994
1.00009
1.00316
1.04618
1.15658
1.33151
1.44833
1.52869
1.55862
1.56603
1.56674
1.56936
1.56965
1.56919
1.56932
1.57048
1.5723
1.57342
1.57435
1.57533
1.57629
1.5774
1.57858
1.57919
1.57964
1.58035
1.58082
1.58112
1.58089
1
1
1
1
1
1
1
1
1
1
1
1
1
1
1
0.999999
0.999999
0.999993
1.00008
1.00522
1.04137
1.16746
1.34528
1.47161
1.54857
1.56344
1.56782
1.57028
1.5693
1.56899
1.5698
1.57153
1.57333
1.575
1.57689
1.57823
1.57887
1.57931
1.57987
1.58067
1.58129
1.58198
1.58263
1.58292
1.58314
1.58317
1.58305
1.58288
1
1
1
1
1
1
1
1
1
1
1
1
1
0.999999
0.999999
0.999991
1.00016
1.00592
1.04817
1.20256
1.35764
1.50303
1.55174
1.56565
1.57733
1.57356
1.57346
1.57474
1.57419
1.57445
1.57582
1.57864
1.58152
1.58366
1.58461
1.58453
1.58417
1.5835
1.58314
1.58317
1.58321
1.58349
1.58404
1.5841
1.58394
1.58363
1.58307
1.58299
1
1
1
1
1
1
1
1
1
1
1
0.999999
0.999999
0.999985
1.00028
1.00575
1.06666
1.22426
1.39793
1.51949
1.5609
1.5875
1.59179
1.59135
1.58678
1.58207
1.58207
1.58157
1.58006
1.58012
1.5812
1.58336
1.58645
1.58751
1.58722
1.58653
1.58586
1.5853
1.5846
1.58408
1.58387
1.58364
1.58368
1.58369
1.58329
1.58247
1.58114
1.58115
1
1
1
1
1
1
1
1
1
0.999999
0.999999
0.999981
1.00027
1.00969
1.09469
1.24655
1.43924
1.53013
1.59337
1.60776
1.60698
1.60162
1.59337
1.58842
1.58565
1.5826
1.58074
1.57999
1.58028
1.5813
1.58211
1.58244
1.58304
1.58381
1.58401
1.58381
1.5833
1.58256
1.58165
1.58095
1.58071
1.5806
1.58055
1.58055
1.58022
1.57931
1.57758
1.57784
1
1
1
1
1
1
1
1
1
0.999974
1.00053
1.0187
1.10454
1.30191
1.47175
1.56409
1.62671
1.62686
1.62036
1.60698
1.59555
1.5848
1.57849
1.57592
1.57429
1.57503
1.57595
1.57673
1.57732
1.57781
1.5774
1.57659
1.57587
1.57603
1.57666
1.5766
1.57616
1.57536
1.57422
1.57318
1.57273
1.57266
1.57266
1.57266
1.57253
1.57199
1.57045
1.57106
1
1
1
1
1
0.999993
1.00002
1.00004
1.00194
1.02984
1.14392
1.33965
1.48363
1.61246
1.61447
1.60188
1.6008
1.59591
1.58151
1.5705
1.56657
1.56425
1.56102
1.56137
1.5631
1.56442
1.56565
1.5669
1.56772
1.56837
1.5685
1.56823
1.56768
1.56737
1.5671
1.56673
1.56605
1.56498
1.56364
1.56252
1.56195
1.5617
1.56155
1.56148
1.56147
1.56135
1.56039
1.56121
1
1
0.999999
1
1.00055
1.00425
1.02241
1.07421
1.18359
1.34638
1.50194
1.58403
1.62047
1.62004
1.6128
1.59974
1.58202
1.55928
1.54419
1.54132
1.54236
1.54504
1.54753
1.55002
1.55246
1.5542
1.55535
1.55638
1.55706
1.55711
1.55714
1.55683
1.5563
1.55607
1.55589
1.55551
1.55485
1.55395
1.5529
1.55201
1.5516
1.55152
1.55152
1.55169
1.55213
1.55248
1.55235
1.55335
1.00061
1.00704
1.02215
1.06669
1.13325
1.21096
1.30152
1.37773
1.4556
1.50436
1.53321
1.55649
1.56288
1.55958
1.55289
1.54807
1.54026
1.53687
1.53168
1.53162
1.53342
1.53652
1.53924
1.54143
1.54374
1.54515
1.54606
1.54676
1.54669
1.54636
1.54598
1.54589
1.546
1.54646
1.54703
1.54755
1.54765
1.54746
1.54701
1.54645
1.54626
1.54636
1.54664
1.54704
1.54761
1.54808
1.54813
1.54866
1.07871
1.17702
1.28537
1.38802
1.47012
1.55869
1.62204
1.664
1.69432
1.68955
1.66329
1.6162
1.5709
1.53435
1.52386
1.51682
1.5144
1.51747
1.52201
1.52696
1.5309
1.53402
1.53618
1.53803
1.54006
1.54119
1.54199
1.54243
1.54234
1.5421
1.54154
1.54115
1.54132
1.54233
1.54421
1.54638
1.54726
1.54724
1.54702
1.54634
1.54536
1.54519
1.54535
1.54562
1.54604
1.54645
1.5466
1.54658
1.40259
1.24623
1.10253
0.987245
1.00059
1.0068
1.00398
1.01786
1.05298
1.07362
1.07539
1.08255
1.09989
1.11446
1.11682
1.11873
1.12242
1.12084
1.11783
1.11804
1.11864
1.11711
1.11338
1.11336
1.11373
1.11326
1.11059
1.10729
1.10624
1.10612
1.10575
1.10516
1.10451
1.10422
1.1038
1.10306
1.10295
1.10303
1.1037
1.10515
1.10542
1.10534
1.10504
1.10415
1.10303
1.10253
1.10179
1.10188
1.10534
1.16448
1.32053
1.5708
1.81854
2.05174
2.24942
2.24417
2.1742
2.09621
2.07546
2.07618
2.06996
2.06002
2.05018
2.04288
2.03067
2.00909
1.98762
1.97421
1.96468
1.95635
1.94679
1.93361
1.91611
1.90331
1.89703
1.89244
1.88731
1.8805
1.8702
1.85255
1.82803
1.80947
1.80148
1.79707
1.79574
1.79633
1.79242
1.78634
1.77467
1.75224
1.73179
1.72292
1.7181
1.7139
1.70911
1.70244
1.69114
1.67358
1.66278
1.65858
1.65567
1.65462
1.65184
1.64734
1.63881
1.61843
1.59596
1.58841
1.58545
1.58365
1.58436
1.58371
1.58111
1.57781
1.56926
1.55066
1.53455
1.52869
1.52525
1.52168
1.51761
1.51291
1.50827
1.50263
1.49537
1.48817
1.48181
1.47402
1.46324
1.45549
1.45186
1.4489
1.44618
1.44382
1.44152
1.43858
1.4335
1.42306
1.40892
1.40152
1.39902
1.39691
1.39523
1.39376
1.39877
1.4227
1.48111
1.5842
1.70035
1.78481
1.86103
1.91651
1.92625
1.91757
1.89533
1.86926
1.85957
1.85749
1.85594
1.8529
1.8508
1.84748
1.83827
1.82571
1.8175
1.81197
1.80683
1.80234
1.79896
1.79666
1.79624
1.7967
1.796
1.79424
1.7904
1.78033
1.76585
1.75882
1.7558
1.75318
1.75087
1.74846
1.74579
1.74211
1.73513
1.72666
1.72281
1.72046
1.71833
1.71628
1.71437
1.7089
1.50056
1.42081
1.34077
1.23334
1.17352
1.14471
1.0989
1.08135
1.08093
1.06807
1.05433
1.05471
1.06294
1.07176
1.07689
1.08075
1.08872
1.09031
1.09065
1.09287
1.0984
1.10238
1.10373
1.10531
1.10532
1.10471
1.10225
1.10088
1.10098
1.10101
1.10084
1.10068
1.1005
1.1005
1.10019
1.09967
1.09937
1.09937
1.09981
1.10049
1.10059
1.10058
1.1004
1.09969
1.09877
1.09756
1.09799
1.10233
1.15989
1.35795
1.51119
1.5629
1.6629
1.77444
1.96999
2.09493
2.13235
2.11737
2.09845
2.08388
2.07258
2.0648
2.05877
2.04884
2.03447
2.01411
1.98938
1.97762
1.97076
1.96206
1.95226
1.9406
1.9263
1.911
1.89787
1.89086
1.88487
1.87747
1.86763
1.85427
1.83802
1.82303
1.81105
1.8029
1.79779
1.79368
1.78907
1.7818
1.7708
1.75582
1.74065
1.72917
1.72009
1.71435
1.71065
1.70566
1.69639
1.68171
1.66852
1.66104
1.65639
1.65274
1.64959
1.64496
1.63729
1.62327
1.60481
1.59328
1.58828
1.58565
1.58302
1.58101
1.57888
1.57522
1.56845
1.55519
1.54064
1.53193
1.52608
1.52164
1.51848
1.51619
1.51222
1.50706
1.50012
1.49275
1.48595
1.47842
1.46875
1.46096
1.4564
1.45309
1.45017
1.44761
1.4451
1.44199
1.43693
1.42715
1.41245
1.40305
1.40026
1.39833
1.39907
1.40803
1.44471
1.50404
1.56958
1.61662
1.66143
1.71823
1.77518
1.8266
1.85686
1.87931
1.88141
1.8751
1.86898
1.86497
1.86069
1.85717
1.85464
1.84974
1.83932
1.82743
1.81993
1.815
1.81106
1.80717
1.80299
1.79921
1.79678
1.79558
1.79509
1.79327
1.78896
1.78062
1.7693
1.76195
1.75863
1.75614
1.75341
1.75069
1.74785
1.74403
1.7375
1.72964
1.72542
1.72272
1.72028
1.71801
1.7159
1.71049
1.53887
1.49647
1.43625
1.35978
1.28388
1.23237
1.17514
1.11728
1.0956
1.0762
1.04875
1.04517
1.04871
1.05018
1.0497
1.05176
1.057
1.06014
1.06225
1.06608
1.07488
1.08149
1.08418
1.08607
1.0877
1.0883
1.08823
1.08858
1.08958
1.0904
1.09118
1.09126
1.09103
1.09039
1.08928
1.08892
1.08888
1.08913
1.08993
1.0904
1.09064
1.09075
1.09049
1.08987
1.08959
1.09078
1.09914
1.15784
1.38129
1.54018
1.59133
1.59178
1.60024
1.61724
1.7038
1.91766
2.12083
2.15529
2.13293
2.08845
2.07007
2.06843
2.06491
2.05199
2.03772
2.02363
2.00311
1.98471
1.97286
1.96259
1.95302
1.94442
1.93564
1.92311
1.90797
1.89409
1.88332
1.87324
1.86231
1.85208
1.84479
1.83779
1.82897
1.81746
1.80565
1.79526
1.7853
1.77426
1.76252
1.75354
1.74694
1.73893
1.72958
1.71953
1.71
1.7025
1.69446
1.68516
1.6766
1.66875
1.66077
1.65323
1.64682
1.64039
1.63232
1.62239
1.61349
1.60496
1.59517
1.58756
1.5841
1.5812
1.57696
1.57103
1.56293
1.5534
1.54534
1.53757
1.53026
1.52412
1.51863
1.51337
1.50846
1.50262
1.49505
1.48799
1.48246
1.47662
1.47031
1.4625
1.45432
1.44894
1.44555
1.44277
1.4402
1.43736
1.43284
1.4251
1.41508
1.40645
1.40444
1.40631
1.41918
1.46481
1.54601
1.60122
1.6346
1.64063
1.64146
1.65305
1.68422
1.73751
1.79721
1.85463
1.87568
1.88244
1.87897
1.8741
1.8668
1.86347
1.85849
1.84945
1.83725
1.82648
1.82082
1.81802
1.8165
1.81414
1.81109
1.80696
1.80149
1.79725
1.79411
1.79051
1.78518
1.7782
1.77243
1.76799
1.76277
1.75672
1.75204
1.74881
1.74589
1.74244
1.73762
1.73168
1.72539
1.72092
1.71791
1.7155
1.71339
1.70809
1.55636
1.53741
1.49862
1.443
1.37581
1.31975
1.2643
1.2001
1.16979
1.14466
1.10279
1.08182
1.0769
1.06356
1.04977
1.04974
1.04853
1.04387
1.04376
1.04626
1.05394
1.06201
1.06594
1.06839
1.07206
1.07464
1.07601
1.07747
1.07964
1.08137
1.08228
1.08253
1.08235
1.08166
1.0808
1.08063
1.08099
1.08227
1.08327
1.08324
1.08309
1.08272
1.08134
1.08113
1.08284
1.10453
1.18986
1.36359
1.56547
1.6104
1.61138
1.60733
1.60503
1.59783
1.60062
1.6555
1.85788
2.08907
2.11332
2.09513
2.09039
2.0838
2.07381
2.05864
2.04664
2.03764
2.02145
1.99729
1.98082
1.9707
1.96244
1.95522
1.94763
1.93838
1.92323
1.90029
1.88065
1.86974
1.86276
1.85855
1.85746
1.85388
1.84673
1.83488
1.81493
1.79355
1.77835
1.76847
1.76198
1.75744
1.75503
1.75079
1.74361
1.73051
1.71268
1.70208
1.69752
1.69378
1.68817
1.68051
1.6698
1.65678
1.64463
1.63599
1.63115
1.62818
1.62443
1.61787
1.60826
1.59731
1.58665
1.57918
1.57295
1.56705
1.56223
1.55812
1.55288
1.54617
1.53913
1.53151
1.52311
1.51646
1.51091
1.50435
1.49583
1.48753
1.48282
1.47968
1.47505
1.46719
1.45776
1.45085
1.44625
1.44253
1.43934
1.43608
1.43199
1.42535
1.41683
1.4121
1.41556
1.44266
1.49577
1.57935
1.63111
1.65108
1.66104
1.65894
1.65116
1.64677
1.64859
1.66282
1.69873
1.76261
1.82268
1.86558
1.87501
1.87188
1.87238
1.87056
1.86218
1.85044
1.83819
1.83042
1.82753
1.82708
1.82689
1.82458
1.82208
1.8183
1.81095
1.80122
1.79333
1.78775
1.78418
1.78156
1.77889
1.77515
1.76931
1.76177
1.75558
1.75095
1.74722
1.74411
1.74106
1.73632
1.73018
1.7248
1.72074
1.71728
1.71426
1.70844
1.56717
1.56024
1.54006
1.50237
1.44723
1.39611
1.34145
1.27773
1.23993
1.21147
1.16637
1.13082
1.11282
1.09188
1.06283
1.05498
1.05208
1.04432
1.04338
1.04594
1.05099
1.05314
1.05484
1.05599
1.05894
1.06323
1.06668
1.06993
1.07341
1.07562
1.07657
1.07738
1.07732
1.07659
1.07644
1.07733
1.07926
1.08109
1.08135
1.08117
1.08063
1.07934
1.07756
1.07827
1.10878
1.26787
1.42004
1.5505
1.62132
1.62986
1.62679
1.61894
1.61302
1.60636
1.5952
1.59653
1.62472
1.77925
1.9986
2.09439
2.10892
2.09604
2.074
2.06146
2.05425
2.04407
2.02893
2.00704
1.98869
1.97934
1.97145
1.96369
1.95469
1.94506
1.93074
1.90556
1.88245
1.87351
1.86771
1.86398
1.86264
1.8576
1.85112
1.84068
1.81814
1.79108
1.77741
1.7704
1.76519
1.76237
1.7584
1.75298
1.74686
1.73552
1.71715
1.70442
1.69785
1.69288
1.68851
1.68315
1.67445
1.66038
1.64556
1.6367
1.63151
1.62779
1.62477
1.62072
1.61562
1.60755
1.5935
1.57795
1.56965
1.56464
1.56047
1.55665
1.55255
1.54813
1.54389
1.5388
1.53207
1.52139
1.51051
1.50221
1.49603
1.49079
1.48496
1.4785
1.47268
1.46678
1.46086
1.45478
1.44887
1.4431
1.43838
1.43429
1.43085
1.4264
1.42292
1.43087
1.47196
1.54651
1.60702
1.65462
1.66857
1.67182
1.67143
1.66711
1.6578
1.64896
1.64477
1.64484
1.64911
1.67119
1.72646
1.79268
1.85536
1.87155
1.87838
1.87615
1.86379
1.85115
1.84267
1.83951
1.8367
1.83368
1.83136
1.82946
1.82735
1.82348
1.81523
1.80319
1.79401
1.789
1.78546
1.78232
1.77952
1.7768
1.77385
1.76926
1.76222
1.75555
1.7506
1.74627
1.74204
1.73789
1.73315
1.728
1.72343
1.71978
1.71673
1.7104
1.57533
1.57115
1.56348
1.54279
1.5032
1.45793
1.40999
1.3537
1.31029
1.27468
1.23017
1.19299
1.17068
1.1471
1.10986
1.09599
1.08791
1.07285
1.06139
1.06234
1.06091
1.05611
1.05262
1.05153
1.05176
1.05333
1.05735
1.06337
1.06975
1.07248
1.07401
1.07537
1.07583
1.07564
1.07601
1.07782
1.08031
1.0813
1.08162
1.08149
1.08065
1.0788
1.07964
1.10529
1.28576
1.49798
1.57895
1.62102
1.6357
1.63314
1.63163
1.62678
1.61651
1.60872
1.59874
1.59093
1.59114
1.60159
1.69848
1.905
2.04751
2.0698
2.07029
2.06874
2.06205
2.04653
2.02856
2.01079
1.99369
1.98308
1.97501
1.96681
1.95785
1.94865
1.93585
1.91312
1.88894
1.8786
1.87267
1.86793
1.86489
1.8601
1.8531
1.84255
1.82201
1.79553
1.78182
1.77535
1.76981
1.76519
1.76163
1.75722
1.75134
1.73953
1.72099
1.70775
1.70098
1.69598
1.69123
1.68588
1.6781
1.6633
1.64567
1.6372
1.63309
1.62995
1.62852
1.62744
1.62328
1.61591
1.60013
1.57821
1.56654
1.56259
1.55972
1.55829
1.55767
1.55518
1.55124
1.54561
1.53495
1.52076
1.50912
1.5021
1.49749
1.49305
1.4874
1.48077
1.47463
1.46923
1.46378
1.4575
1.45039
1.44455
1.44001
1.43606
1.43268
1.43523
1.45385
1.50686
1.59596
1.64152
1.66632
1.68045
1.68514
1.68438
1.67916
1.67055
1.66322
1.65461
1.64757
1.64324
1.64304
1.64475
1.65644
1.69059
1.75566
1.82062
1.85283
1.8656
1.86211
1.85564
1.85054
1.84866
1.84483
1.83939
1.83669
1.8354
1.83254
1.82579
1.81497
1.80466
1.79681
1.79156
1.78817
1.78524
1.78253
1.77989
1.77634
1.77134
1.7653
1.75935
1.75429
1.74988
1.74583
1.74181
1.73714
1.73183
1.72724
1.72299
1.71893
1.71193
1.57977
1.57774
1.57309
1.56372
1.54165
1.50915
1.46551
1.41555
1.37534
1.33645
1.28988
1.25433
1.22646
1.19781
1.16242
1.1434
1.1293
1.10811
1.08408
1.07938
1.07277
1.063
1.05854
1.05807
1.05629
1.05635
1.05797
1.06186
1.06544
1.06687
1.06831
1.07046
1.07241
1.07459
1.077
1.07996
1.08217
1.08262
1.08305
1.08314
1.08197
1.0848
1.1201
1.28847
1.52564
1.60563
1.6298
1.64241
1.63859
1.62913
1.62881
1.62932
1.62173
1.60399
1.59305
1.58701
1.5828
1.57924
1.58113
1.62828
1.78404
1.96653
2.04029
2.06058
2.05661
2.04011
2.02352
2.01025
1.99577
1.98184
1.97135
1.96295
1.95463
1.94577
1.93538