/*--------------------------------*- C++ -*----------------------------------*\
  =========                 |
  \\      /  F ield         | OpenFOAM: The Open Source CFD Toolbox
   \\    /   O peration     | Website:  https://openfoam.org
    \\  /    A nd           | Version:  7
     \\/     M anipulation  |
\*---------------------------------------------------------------------------*/
FoamFile
{
    version     2.0;
    format      ascii;
    class       volVectorField;
    location    "3.6";
    object      U;
}
// * * * * * * * * * * * * * * * * * * * * * * * * * * * * * * * * * * * * * //

dimensions      [0 1 -1 0 0 0 0];

internalField   nonuniform List<vector> 
18432
(
(3 6.11801e-18 0)
(3 -8.1317e-17 0)
(3 2.07703e-16 0)
(3 5.46902e-16 0)
(3 9.6946e-17 0)
(3 -4.15905e-16 0)
(3 -4.08833e-16 0)
(3 -6.14097e-17 0)
(3 2.27346e-16 0)
(3 5.01514e-16 0)
(3 4.09129e-17 0)
(3 -6.41134e-16 0)
(3 -9.54301e-16 0)
(3 -3.15875e-16 0)
(3 2.87599e-16 0)
(3 3.41438e-16 0)
(3 6.63027e-17 0)
(3 -1.06983e-16 0)
(3 -3.51412e-17 0)
(3 -1.39176e-16 0)
(3 -1.27165e-15 0)
(3 -2.08934e-15 0)
(3 -2.18494e-15 0)
(3 -2.18002e-15 0)
(3 -1.84655e-15 0)
(3 -4.53172e-16 0)
(3 7.66653e-16 0)
(3 9.37707e-16 0)
(3 -1.56859e-16 0)
(3 -9.01806e-17 0)
(3 -2.79556e-16 0)
(3 -5.57848e-16 0)
(3 -1.10453e-15 0)
(3 -1.52803e-15 0)
(3 -1.62122e-15 0)
(3 -1.49863e-15 0)
(3 -1.81571e-15 0)
(3 -1.35399e-15 0)
(3 -3.45868e-16 0)
(3 -3.54042e-16 0)
(3 -3.71847e-16 0)
(3 -1.07242e-16 0)
(3 3.17084e-16 0)
(3 2.54072e-16 0)
(3 -3.57024e-17 0)
(3 6.59716e-17 0)
(3 6.12853e-17 0)
(3 -5.01058e-16 0)
(3 1.94158e-16 0)
(3 6.92168e-17 0)
(3 3.68877e-16 0)
(3 6.91692e-16 0)
(3 5.90957e-16 0)
(3 1.78107e-16 0)
(3 -3.64533e-18 0)
(3 3.70686e-16 0)
(3 1.02632e-15 0)
(3 1.41398e-15 0)
(3 1.09754e-15 0)
(3 5.83415e-16 0)
(3 -3.37045e-16 0)
(3 -6.1254e-17 0)
(3 6.18167e-16 0)
(3 6.23771e-16 0)
(3 2.78784e-16 0)
(3 2.47082e-16 0)
(3 3.81705e-16 0)
(3 5.42315e-16 0)
(3 -4.77115e-16 0)
(3 -2.50822e-15 0)
(3 -2.86092e-15 0)
(3 -2.69305e-15 0)
(3 -1.74806e-15 0)
(3 -1.09242e-16 0)
(3 9.18599e-16 0)
(3 6.93503e-16 0)
(3 -5.65175e-16 0)
(3 -1.00095e-15 0)
(3 -1.0358e-15 0)
(3 -1.06933e-15 0)
(3 -1.31539e-15 0)
(3 -3.07315e-15 0)
(3 -3.62364e-15 0)
(3 -2.43205e-15 0)
(3 -2.00016e-15 0)
(3 -1.70146e-15 0)
(3 -1.7227e-15 0)
(3 -1.45542e-15 0)
(3 -7.83969e-16 0)
(3 -3.45064e-16 0)
(3 -7.57075e-16 0)
(3 -1.02946e-15 0)
(3 -1.11665e-15 0)
(3 -2.70864e-16 0)
(3 -1.48176e-16 0)
(3 -6.79007e-16 0)
(3 -2.23645e-18 0)
(3 1.40679e-16 0)
(3 4.57201e-18 0)
(3 6.51902e-17 0)
(3 2.88202e-16 0)
(3 3.95326e-16 0)
(3 9.85634e-17 0)
(3 -1.5791e-16 0)
(3 3.03471e-16 0)
(3 6.13687e-16 0)
(3 3.47353e-17 0)
(3 1.46237e-16 0)
(3 9.90755e-18 0)
(3 -1.84146e-16 0)
(3 -6.60779e-17 0)
(3 7.7748e-16 0)
(3 1.2408e-15 0)
(3 9.66139e-16 0)
(3 4.83472e-16 0)
(3 -4.90382e-16 0)
(3 -1.31661e-15 0)
(3 -1.45705e-15 0)
(3 -1.82494e-15 0)
(3 -1.90943e-15 0)
(3 -8.83778e-16 0)
(3 1.39167e-15 0)
(3 1.76693e-15 0)
(3 1.11554e-15 0)
(3 3.51128e-17 0)
(3 -8.46996e-16 0)
(3 -5.32636e-16 0)
(3 -5.17223e-16 0)
(3 -1.08148e-15 0)
(3 -1.60571e-15 0)
(3 -2.40399e-15 0)
(3 -1.53068e-15 0)
(3 -9.87211e-16 0)
(3 -1.18148e-15 0)
(3 -1.34484e-15 0)
(3 -1.01924e-15 0)
(3 -8.21382e-16 0)
(3 -1.66633e-15 0)
(3 -3.1707e-15 0)
(3 -3.93289e-15 0)
(3 -3.17759e-15 0)
(3 -2.28456e-15 0)
(3 -1.22489e-15 0)
(3 -5.20428e-16 0)
(3 -1.21925e-16 0)
(3 -7.88121e-17 0)
(3 -5.70298e-16 0)
(3 -7.85462e-16 0)
(3 -3.60916e-16 0)
(3 -4.24369e-16 0)
(3 -2.102e-16 0)
(3 7.53646e-17 0)
(3 6.83047e-16 0)
(3 6.80184e-16 0)
(3 4.41577e-16 0)
(3 -3.71819e-16 0)
(3 -4.63481e-16 0)
(3 -2.29314e-16 0)
(3 2.69366e-16 0)
(3 1.29695e-15 0)
(3 1.46182e-15 0)
(3 9.77389e-16 0)
(3 -1.17203e-16 0)
(3 -9.50896e-16 0)
(3 -1.10323e-15 0)
(3 -4.88083e-16 0)
(3 2.48694e-16 0)
(3 6.0853e-16 0)
(3 7.48278e-16 0)
(3 9.28982e-16 0)
(3 1.26646e-15 0)
(3 8.6382e-16 0)
(3 -2.31137e-16 0)
(3 -1.98152e-16 0)
(3 -1.57315e-16 0)
(3 -3.38621e-16 0)
(3 -9.49472e-16 0)
(3 -7.51869e-16 0)
(3 -5.7518e-16 0)
(3 -1.77302e-15 0)
(3 -1.36069e-15 0)
(3 -1.0897e-15 0)
(3 -8.83045e-16 0)
(3 -1.03224e-15 0)
(3 -1.22864e-15 0)
(3 -2.32365e-15 0)
(3 -2.97753e-15 0)
(3 -3.81088e-15 0)
(3 -4.16364e-15 0)
(3 -4.24813e-15 0)
(3 -3.41732e-15 0)
(3 -1.75942e-15 0)
(3 1.11729e-16 0)
(3 -8.04001e-18 0)
(3 -2.28586e-16 0)
(3 -5.8334e-16 0)
(3 -7.45589e-16 0)
(3 -7.82915e-16 0)
(3 -3.17339e-16 0)
(3 -1.77367e-16 0)
(3 5.5771e-16 0)
(3 7.27926e-16 0)
(3 9.21159e-16 0)
(3 5.16338e-16 0)
(3 1.66412e-16 0)
(3 4.92448e-17 0)
(3 4.84586e-16 0)
(3 1.18067e-15 0)
(3 1.24797e-15 0)
(3 4.25799e-16 0)
(3 -9.00286e-16 0)
(3 -3.06009e-16 0)
(3 -2.39298e-16 0)
(3 -1.61629e-17 0)
(3 7.67237e-16 0)
(3 1.19361e-15 0)
(3 1.25746e-15 0)
(3 2.98164e-16 0)
(3 -1.09605e-16 0)
(3 1.65499e-16 0)
(3 4.49401e-16 0)
(3 3.07309e-16 0)
(3 1.16923e-16 0)
(3 -4.11603e-16 0)
(3 -8.78393e-16 0)
(3 -8.97197e-16 0)
(3 -4.09268e-16 0)
(3 -6.28136e-16 0)
(3 -5.64761e-17 0)
(3 3.47381e-16 0)
(3 5.29526e-16 0)
(3 1.32557e-16 0)
(3 -3.79445e-16 0)
(3 -1.10815e-15 0)
(3 -1.657e-15 0)
(3 -2.19112e-15 0)
(3 -2.57426e-15 0)
(3 -3.44861e-15 0)
(3 -2.93441e-15 0)
(3 -1.95212e-15 0)
(3 2.01285e-17 0)
(3 -6.32138e-17 0)
(3 -9.89686e-19 0)
(3 1.26748e-16 0)
(3 -3.33204e-16 0)
(3 -4.43193e-16 0)
(3 -8.41125e-16 0)
(3 -9.87965e-16 0)
(3 -4.94289e-16 0)
(3 -2.35278e-16 0)
(3 5.41472e-16 0)
(3 6.78128e-16 0)
(3 7.86647e-16 0)
(3 6.79828e-16 0)
(3 4.71636e-16 0)
(3 1.07859e-15 0)
(3 1.69298e-15 0)
(3 1.94524e-15 0)
(3 1.44419e-15 0)
(3 1.16261e-15 0)
(3 9.60761e-16 0)
(3 9.84635e-16 0)
(3 6.42939e-16 0)
(3 3.26245e-16 0)
(3 7.24838e-16 0)
(3 7.14845e-16 0)
(3 -7.72354e-17 0)
(3 -4.3023e-16 0)
(3 1.20397e-15 0)
(3 1.13941e-15 0)
(3 4.54331e-16 0)
(3 -1.0143e-15 0)
(3 -1.0755e-15 0)
(3 -1.15448e-15 0)
(3 -1.1828e-15 0)
(3 -7.00303e-16 0)
(3 1.13923e-16 0)
(3 1.10341e-15 0)
(3 1.82893e-15 0)
(3 1.5145e-15 0)
(3 6.50128e-16 0)
(3 7.21835e-17 0)
(3 -9.35443e-16 0)
(3 -1.177e-15 0)
(3 -1.49609e-15 0)
(3 -1.4783e-15 0)
(3 -1.24123e-15 0)
(3 -7.94563e-16 0)
(3 1.18293e-17 0)
(3 -3.44761e-17 0)
(3 -2.56736e-16 0)
(3 -3.5557e-16 0)
(3 -5.1749e-16 0)
(3 -4.13806e-16 0)
(3 -6.84658e-16 0)
(3 -7.81384e-16 0)
(3 -3.45233e-16 0)
(3 6.05311e-17 0)
(3 4.37649e-16 0)
(3 4.4381e-16 0)
(3 7.42106e-16 0)
(3 1.0432e-15 0)
(3 9.06629e-16 0)
(3 6.38196e-16 0)
(3 1.6591e-16 0)
(3 2.68113e-16 0)
(3 1.78207e-15 0)
(3 1.60666e-15 0)
(3 1.43838e-15 0)
(3 1.33011e-15 0)
(3 8.88719e-16 0)
(3 5.15052e-16 0)
(3 1.56644e-16 0)
(3 5.24183e-17 0)
(3 1.27359e-16 0)
(3 -5.55051e-17 0)
(3 3.93055e-16 0)
(3 5.20965e-16 0)
(3 1.87954e-16 0)
(3 2.8249e-16 0)
(3 -7.76368e-16 0)
(3 -1.7905e-15 0)
(3 -1.90324e-15 0)
(3 -1.96734e-15 0)
(3 -7.11298e-16 0)
(3 1.0571e-15 0)
(3 1.90346e-15 0)
(3 1.67828e-15 0)
(3 1.19375e-15 0)
(3 9.60203e-16 0)
(3 -1.4904e-16 0)
(3 -2.93699e-16 0)
(3 -8.08252e-16 0)
(3 -4.18616e-16 0)
(3 5.50405e-16 0)
(3 1.18538e-15 0)
(3 -9.78436e-18 0)
(3 2.8293e-16 0)
(3 2.66758e-16 0)
(3 1.13588e-16 0)
(3 2.26425e-16 0)
(3 -9.78303e-17 0)
(3 -3.49268e-16 0)
(3 -4.05644e-16 0)
(3 -5.5311e-16 0)
(3 -5.22351e-16 0)
(3 -2.60846e-16 0)
(3 7.13342e-16 0)
(3 1.05125e-15 0)
(3 8.08137e-16 0)
(3 -4.36177e-17 0)
(3 -1.29215e-15 0)
(3 -1.59679e-15 0)
(3 -1.78741e-15 0)
(3 -9.23655e-16 0)
(3 -1.29842e-16 0)
(3 6.76693e-16 0)
(3 5.75561e-16 0)
(3 7.86894e-16 0)
(3 1.30156e-15 0)
(3 1.33605e-15 0)
(3 7.72972e-16 0)
(3 9.61482e-16 0)
(3 1.22068e-15 0)
(3 8.3626e-16 0)
(3 7.18374e-16 0)
(3 1.11796e-15 0)
(3 2.31076e-15 0)
(3 1.88915e-15 0)
(3 1.01461e-15 0)
(3 8.68764e-16 0)
(3 5.71299e-16 0)
(3 9.92074e-16 0)
(3 1.31855e-15 0)
(3 1.74161e-15 0)
(3 2.08564e-15 0)
(3 1.71931e-15 0)
(3 1.17884e-15 0)
(3 4.88368e-16 0)
(3 -7.47848e-17 0)
(3 9.03679e-17 0)
(3 5.55048e-16 0)
(3 1.12238e-15 0)
(3 6.3533e-17 0)
(3 7.56257e-17 0)
(3 1.50574e-16 0)
(3 6.14182e-16 0)
(3 1.25897e-15 0)
(3 1.1324e-15 0)
(3 6.76291e-16 0)
(3 7.28399e-16 0)
(3 7.65637e-16 0)
(3 5.73867e-16 0)
(3 1.27729e-16 0)
(3 -3.56799e-16 0)
(3 -5.39719e-17 0)
(3 7.56973e-17 0)
(3 -1.37651e-16 0)
(3 -8.6703e-16 0)
(3 -1.65909e-15 0)
(3 -2.10635e-15 0)
(3 -2.64809e-15 0)
(3 -3.40895e-15 0)
(3 -2.59949e-15 0)
(3 -1.4537e-16 0)
(3 1.68543e-16 0)
(3 5.4988e-16 0)
(3 5.51131e-16 0)
(3 8.76448e-16 0)
(3 8.91605e-16 0)
(3 9.27418e-16 0)
(3 7.67088e-16 0)
(3 1.02811e-15 0)
(3 1.27317e-15 0)
(3 1.64572e-15 0)
(3 2.39331e-15 0)
(3 2.58861e-15 0)
(3 2.77316e-15 0)
(3 2.56298e-15 0)
(3 2.49268e-15 0)
(3 1.86618e-15 0)
(3 3.78942e-16 0)
(3 -3.98586e-17 0)
(3 -4.1887e-16 0)
(3 -1.34676e-16 0)
(3 4.91641e-16 0)
(3 2.51488e-17 0)
(3 -4.51107e-16 0)
(3 5.22472e-16 0)
(3 1.74066e-15 0)
(3 2.02114e-15 0)
(3 8.70227e-16 0)
(3 -1.00499e-16 0)
(3 -2.78702e-16 0)
(3 -2.94271e-16 0)
(3 1.04771e-16 0)
(3 2.47825e-16 0)
(3 9.92665e-16 0)
(3 1.61859e-15 0)
(3 1.84347e-15 0)
(3 9.29012e-16 0)
(3 4.40628e-17 0)
(3 -8.19613e-16 0)
(3 -1.69463e-15 0)
(3 -2.05104e-15 0)
(3 -1.78719e-15 0)
(3 -1.98757e-15 0)
(3 -2.06243e-15 0)
(3 -2.28772e-15 0)
(3 -2.13863e-15 0)
(3 -1.96714e-15 0)
(3 -1.83013e-15 0)
(3 -1.88771e-15 0)
(3 -3.10391e-16 0)
(3 2.15853e-16 0)
(3 -1.29792e-16 0)
(3 1.24995e-16 0)
(3 7.06252e-16 0)
(3 9.10845e-16 0)
(3 8.60414e-16 0)
(3 3.24352e-16 0)
(3 -3.67414e-16 0)
(3 -1.53041e-16 0)
(3 5.07652e-16 0)
(3 2.07888e-15 0)
(3 2.95446e-15 0)
(3 3.01412e-15 0)
(3 2.05823e-15 0)
(3 3.53711e-16 0)
(3 -8.11711e-16 0)
(3 -1.06437e-15 0)
(3 -9.56575e-16 0)
(3 -4.46025e-16 0)
(3 4.17064e-16 0)
(3 1.43335e-15 0)
(3 1.80383e-15 0)
(3 2.36274e-15 0)
(3 2.64328e-15 0)
(3 2.33739e-15 0)
(3 1.627e-15 0)
(3 -1.82756e-16 0)
(3 -1.23142e-16 0)
(3 -2.60172e-16 0)
(3 -1.81656e-16 0)
(3 -7.98819e-17 0)
(3 -2.02251e-16 0)
(3 -2.44223e-16 0)
(3 -1.88058e-16 0)
(3 -5.14703e-16 0)
(3 -1.38736e-15 0)
(3 -2.15857e-15 0)
(3 -2.14601e-15 0)
(3 -2.09732e-15 0)
(3 -2.62031e-15 0)
(3 -2.20623e-15 0)
(3 -1.66502e-15 0)
(3 -1.44166e-15 0)
(3 -1.21279e-15 0)
(3 -9.30631e-16 0)
(3 -8.1402e-16 0)
(3 -1.19364e-15 0)
(3 -1.14867e-15 0)
(3 -2.94988e-16 0)
(3 3.02979e-16 0)
(3 4.71437e-16 0)
(3 9.17283e-16 0)
(3 9.75546e-16 0)
(3 7.23679e-16 0)
(3 -2.84312e-17 0)
(3 -4.63768e-16 0)
(3 -1.028e-15 0)
(3 -8.58652e-16 0)
(3 1.07217e-15 0)
(3 2.50827e-15 0)
(3 2.79811e-15 0)
(3 1.96633e-15 0)
(3 7.18932e-16 0)
(3 -6.015e-16 0)
(3 -9.06991e-16 0)
(3 -3.17708e-16 0)
(3 2.15811e-16 0)
(3 8.6549e-16 0)
(3 1.82981e-15 0)
(3 2.29657e-15 0)
(3 1.70936e-15 0)
(3 1.56429e-15 0)
(3 1.18032e-15 0)
(3 1.32773e-15 0)
(3 9.67902e-17 0)
(3 2.20072e-16 0)
(3 3.27535e-17 0)
(3 -5.77534e-16 0)
(3 -7.27814e-16 0)
(3 -9.01237e-16 0)
(3 -9.65309e-16 0)
(3 -9.34059e-16 0)
(3 -1.41611e-15 0)
(3 -1.57866e-15 0)
(3 -1.43232e-15 0)
(3 -1.09243e-15 0)
(3 -8.39856e-16 0)
(3 -5.79727e-16 0)
(3 -2.0776e-16 0)
(3 2.47094e-16 0)
(3 3.87714e-16 0)
(3 -9.59635e-17 0)
(3 -4.64079e-16 0)
(3 -4.79522e-16 0)
(3 -5.68865e-16 0)
(3 -9.16889e-16 0)
(3 -5.51657e-16 0)
(3 -1.89328e-16 0)
(3 7.53258e-18 0)
(3 5.98258e-16 0)
(3 1.10174e-15 0)
(3 4.0838e-16 0)
(3 -1.51042e-16 0)
(3 -1.10537e-16 0)
(3 -2.3426e-16 0)
(3 -3.73391e-16 0)
(3 1.76632e-16 0)
(3 6.73639e-16 0)
(3 1.02406e-15 0)
(3 1.14079e-15 0)
(3 6.83848e-16 0)
(3 2.00365e-16 0)
(3 -4.24695e-16 0)
(3 -7.30322e-16 0)
(3 -8.52757e-16 0)
(3 -2.94484e-16 0)
(3 6.48974e-17 0)
(3 8.62507e-16 0)
(3 6.74951e-16 0)
(3 6.62064e-18 0)
(3 -3.97729e-16 0)
(3 6.79921e-17 0)
(3 -4.66988e-17 0)
(3 7.16215e-17 0)
(3 6.16205e-17 0)
(3 -1.95239e-16 0)
(3 -7.84914e-16 0)
(3 -5.6809e-16 0)
(3 -3.83169e-16 0)
(3 -5.05753e-16 0)
(3 -5.23726e-16 0)
(3 3.91905e-17 0)
(3 3.51721e-16 0)
(3 2.25095e-17 0)
(3 -3.26228e-16 0)
(3 -1.74276e-16 0)
(3 -2.99474e-16 0)
(3 -4.06672e-16 0)
(3 -4.36053e-16 0)
(3 -1.86085e-16 0)
(3 -2.10715e-16 0)
(3 9.16154e-17 0)
(3 5.28943e-16 0)
(3 5.34901e-16 0)
(3 6.36478e-16 0)
(3 4.30831e-16 0)
(3 1.42207e-16 0)
(3 8.92684e-17 0)
(3 -2.02444e-17 0)
(3 -4.23011e-16 0)
(3 -7.74438e-16 0)
(3 -6.50267e-16 0)
(3 8.17749e-16 0)
(3 1.1044e-15 0)
(3 9.0245e-16 0)
(3 5.22885e-16 0)
(3 1.14941e-16 0)
(3 2.90422e-16 0)
(3 8.50232e-16 0)
(3 1.00763e-15 0)
(3 8.63358e-16 0)
(3 5.71997e-16 0)
(3 -1.4444e-16 0)
(3 -5.45844e-16 0)
(3 -1.21141e-15 0)
(3 -4.30775e-16 0)
(3 2.35061e-16 0)
(3 -1.13242e-17 0)
(3 -2.79564e-16 0)
(3 -2.18482e-16 0)
(3 1.22128e-18 0)
(3 2.13066e-16 0)
(3 6.34376e-16 0)
(3 4.94767e-16 0)
(3 7.7722e-18 0)
(3 1.49983e-16 0)
(3 3.26941e-16 0)
(3 6.3173e-16 0)
(3 1.14686e-15 0)
(3 1.12987e-15 0)
(3 9.77648e-16 0)
(3 1.08993e-16 0)
(3 -4.7462e-16 0)
(3 -9.62707e-16 0)
(3 -9.12977e-16 0)
(3 -9.799e-16 0)
(3 -1.37353e-15 0)
(3 -1.11665e-15 0)
(3 -2.66998e-16 0)
(3 7.07801e-16 0)
(3 1.02076e-15 0)
(3 1.63755e-15 0)
(3 1.3139e-15 0)
(3 9.09281e-16 0)
(3 -1.26953e-16 0)
(3 -6.55015e-16 0)
(3 -9.0177e-16 0)
(3 -7.58803e-16 0)
(3 -3.8598e-16 0)
(3 -4.42916e-17 0)
(3 4.91648e-16 0)
(3 9.43332e-16 0)
(3 3.00656e-16 0)
(3 2.31102e-16 0)
(3 -3.60358e-16 0)
(3 -1.3986e-16 0)
(3 1.79519e-15 0)
(3 1.41941e-15 0)
(3 1.28774e-15 0)
(3 5.76615e-16 0)
(3 3.17032e-16 0)
(3 -1.08497e-16 0)
(3 -5.07234e-16 0)
(3 -4.27242e-16 0)
(3 5.31653e-16 0)
(3 1.18241e-15 0)
(3 1.06461e-15 0)
(3 7.79285e-16 0)
(3 5.386e-17 0)
(3 -1.64832e-16 0)
(3 -2.00198e-16 0)
(3 -2.64166e-16 0)
(3 -1.03439e-16 0)
(3 2.67747e-16 0)
(3 6.34101e-17 0)
(3 2.52161e-16 0)
(3 4.65712e-16 0)
(3 4.79886e-16 0)
(3 8.72234e-17 0)
(3 1.50888e-16 0)
(3 4.1618e-16 0)
(3 7.09397e-16 0)
(3 7.29446e-16 0)
(3 1.1343e-16 0)
(3 -4.73705e-16 0)
(3 -7.41267e-16 0)
(3 -8.66767e-17 0)
(3 1.42039e-16 0)
(3 4.08097e-17 0)
(3 5.60904e-16 0)
(3 1.26497e-15 0)
(3 1.15892e-15 0)
(3 7.50852e-17 0)
(3 -5.43033e-16 0)
(3 -9.63382e-16 0)
(3 -9.59538e-16 0)
(3 -7.77981e-16 0)
(3 -3.62449e-16 0)
(3 1.10913e-16 0)
(3 1.04026e-16 0)
(3 2.38859e-16 0)
(3 2.84841e-16 0)
(3 3.15364e-17 0)
(3 2.64741e-16 0)
(3 9.05353e-16 0)
(3 1.43729e-15 0)
(3 1.16006e-15 0)
(3 -6.88986e-16 0)
(3 1.45547e-16 0)
(3 5.50279e-16 0)
(3 3.87222e-16 0)
(3 1.55897e-16 0)
(3 -8.26529e-17 0)
(3 -4.54322e-16 0)
(3 3.68508e-17 0)
(3 1.63448e-16 0)
(3 -7.42642e-18 0)
(3 -3.11538e-16 0)
(3 -5.34541e-16 0)
(3 -4.2169e-16 0)
(3 -2.69693e-16 0)
(3 5.88753e-17 0)
(3 2.46635e-16 0)
(3 1.92154e-16 0)
(3 -1.372e-16 0)
(3 7.69928e-17 0)
(3 5.27128e-16 0)
(3 3.89062e-16 0)
(3 1.83073e-15 0)
(3 2.42575e-15 0)
(3 2.08433e-15 0)
(3 1.64482e-15 0)
(3 1.57307e-15 0)
(3 8.76221e-16 0)
(3 1.72092e-16 0)
(3 -1.68425e-16 0)
(3 -8.90706e-17 0)
(3 9.24362e-16 0)
(3 1.79382e-15 0)
(3 1.69601e-15 0)
(3 9.52077e-16 0)
(3 1.55931e-16 0)
(3 3.79646e-16 0)
(3 3.03987e-17 0)
(3 -3.71917e-16 0)
(3 -4.28903e-16 0)
(3 -3.91672e-16 0)
(3 -7.97487e-16 0)
(3 2.79262e-16 0)
(3 1.39557e-15 0)
(3 1.44695e-15 0)
(3 9.77289e-16 0)
(3 -3.1129e-16 0)
(3 -2.70111e-16 0)
(3 -4.7651e-16 0)
(3 -3.52276e-16 0)
(3 -2.23816e-16 0)
(3 4.33411e-16 0)
(3 2.23089e-16 0)
(3 -3.79176e-16 0)
(3 -3.75367e-16 0)
(3 7.9372e-17 0)
(3 9.64301e-17 0)
(3 -6.24733e-16 0)
(3 5.4325e-17 0)
(3 8.93023e-17 0)
(3 -8.41898e-17 0)
(3 -2.69876e-16 0)
(3 -3.84995e-16 0)
(3 4.86609e-16 0)
(3 5.95831e-16 0)
(3 6.8565e-16 0)
(3 6.37953e-16 0)
(3 6.91936e-16 0)
(3 1.51523e-15 0)
(3 1.67823e-15 0)
(3 1.4581e-15 0)
(3 1.4916e-15 0)
(3 1.18237e-15 0)
(3 1.13385e-15 0)
(3 1.33909e-15 0)
(3 1.08814e-15 0)
(3 7.77391e-16 0)
(3 4.83148e-16 0)
(3 8.39877e-17 0)
(3 2.18681e-16 0)
(3 6.42223e-16 0)
(3 7.9344e-16 0)
(3 8.0218e-16 0)
(3 6.59117e-16 0)
(3 7.64141e-16 0)
(3 6.67887e-16 0)
(3 2.62692e-16 0)
(3 -1.89103e-16 0)
(3 -1.06517e-15 0)
(3 -1.08085e-15 0)
(3 -1.06785e-15 0)
(3 -7.56575e-16 0)
(3 -2.25254e-16 0)
(3 -8.2813e-16 0)
(3 -1.28681e-15 0)
(3 -1.65483e-15 0)
(3 -9.33874e-16 0)
(3 -1.05359e-16 0)
(3 -2.04949e-16 0)
(3 -5.38147e-16 0)
(3 -4.13206e-16 0)
(3 -2.4203e-16 0)
(3 -8.61385e-17 0)
(3 5.99401e-16 0)
(3 1.88425e-16 0)
(3 -7.24412e-16 0)
(3 2.37887e-16 0)
(3 5.0891e-16 0)
(3 2.40874e-16 0)
(3 1.24001e-16 0)
(3 1.88253e-16 0)
(3 -4.28999e-18 0)
(3 -7.52661e-16 0)
(3 -9.47873e-16 0)
(3 -3.14367e-16 0)
(3 3.01779e-16 0)
(3 1.05995e-15 0)
(3 1.81471e-15 0)
(3 1.66436e-15 0)
(3 1.12725e-15 0)
(3 1.10139e-15 0)
(3 1.11571e-15 0)
(3 1.47429e-15 0)
(3 1.87684e-15 0)
(3 1.70717e-15 0)
(3 7.7272e-16 0)
(3 1.73163e-16 0)
(3 -5.90469e-16 0)
(3 -9.33739e-16 0)
(3 5.52062e-17 0)
(3 2.05808e-16 0)
(3 4.13003e-16 0)
(3 2.49991e-16 0)
(3 8.33209e-16 0)
(3 5.40482e-16 0)
(3 -5.25651e-17 0)
(3 -1.85576e-16 0)
(3 -1.24602e-15 0)
(3 -2.21112e-15 0)
(3 -3.41989e-15 0)
(3 -3.43425e-15 0)
(3 -2.99224e-15 0)
(3 -2.4404e-15 0)
(3 -2.18795e-15 0)
(3 -1.02144e-15 0)
(3 -6.04165e-16 0)
(3 -7.27626e-16 0)
(3 -1.40068e-15 0)
(3 -1.44315e-15 0)
(3 -6.86786e-16 0)
(3 -6.47551e-16 0)
(3 -8.63374e-16 0)
(3 -9.02708e-16 0)
(3 -1.06769e-15 0)
(3 -8.62004e-17 0)
(3 -5.46873e-17 0)
(3 -3.44164e-17 0)
(3 4.17566e-16 0)
(3 5.73035e-16 0)
(3 -5.59954e-16 0)
(3 -4.3579e-16 0)
(3 -2.3863e-16 0)
(3 2.59917e-16 0)
(3 6.74524e-16 0)
(3 6.39597e-16 0)
(3 1.71911e-15 0)
(3 2.01862e-15 0)
(3 1.69913e-15 0)
(3 1.64997e-15 0)
(3 1.94267e-15 0)
(3 1.53278e-15 0)
(3 1.80236e-15 0)
(3 2.08504e-15 0)
(3 5.26844e-16 0)
(3 8.21536e-16 0)
(3 4.81666e-16 0)
(3 -5.94991e-17 0)
(3 -1.48975e-16 0)
(3 -1.98168e-16 0)
(3 -5.12166e-16 0)
(3 -5.2088e-16 0)
(3 -4.15614e-16 0)
(3 2.56941e-16 0)
(3 9.8851e-16 0)
(3 7.94037e-16 0)
(3 -3.60862e-16 0)
(3 -1.85815e-15 0)
(3 -2.32673e-15 0)
(3 -2.02491e-15 0)
(3 -1.65425e-15 0)
(3 -1.25336e-15 0)
(3 -1.07174e-15 0)
(3 -1.366e-15 0)
(3 -6.79359e-16 0)
(3 -5.21949e-16 0)
(3 -5.33218e-16 0)
(3 -8.93645e-17 0)
(3 -2.21761e-16 0)
(3 -9.23372e-16 0)
(3 -1.39331e-15 0)
(3 -1.16143e-15 0)
(3 -9.16663e-16 0)
(3 -2.2784e-16 0)
(3 -7.45297e-16 0)
(3 -5.13639e-16 0)
(3 -4.2587e-17 0)
(3 6.95284e-17 0)
(3 -3.86728e-16 0)
(3 -1.45838e-16 0)
(3 -2.74127e-17 0)
(3 7.25131e-16 0)
(3 1.19616e-15 0)
(3 1.05812e-15 0)
(3 6.85897e-16 0)
(3 9.09441e-16 0)
(3 1.15737e-15 0)
(3 1.1391e-15 0)
(3 1.2066e-15 0)
(3 7.70848e-16 0)
(3 1.64922e-15 0)
(3 1.86096e-15 0)
(3 1.05843e-15 0)
(3 8.77906e-16 0)
(3 6.73518e-16 0)
(3 5.03911e-17 0)
(3 -1.04486e-15 0)
(3 -1.08972e-15 0)
(3 -2.53684e-16 0)
(3 -8.75245e-17 0)
(3 -5.74213e-16 0)
(3 -7.09244e-16 0)
(3 -1.89643e-17 0)
(3 1.24259e-16 0)
(3 -6.88999e-17 0)
(3 -2.62802e-16 0)
(3 -3.00381e-16 0)
(3 -1.09206e-16 0)
(3 -7.19648e-17 0)
(3 -6.19218e-16 0)
(3 -3.98615e-16 0)
(3 6.85449e-16 0)
(3 9.73747e-16 0)
(3 8.34026e-16 0)
(3 5.76128e-16 0)
(3 5.71793e-17 0)
(3 -2.83733e-16 0)
(3 -1.03613e-15 0)
(3 -1.53493e-15 0)
(3 -6.95779e-16 0)
(3 -5.30152e-16 0)
(3 1.11808e-16 0)
(3 1.23297e-16 0)
(3 1.71604e-16 0)
(3 1.4649e-16 0)
(3 2.8584e-16 0)
(3 1.39017e-16 0)
(3 4.87251e-17 0)
(3 -8.01267e-16 0)
(3 -7.89751e-16 0)
(3 2.26758e-16 0)
(3 6.76076e-16 0)
(3 9.92206e-16 0)
(3 1.08034e-15 0)
(3 1.8977e-15 0)
(3 1.5494e-15 0)
(3 1.28065e-15 0)
(3 1.53731e-15 0)
(3 1.69093e-15 0)
(3 1.48948e-15 0)
(3 1.42647e-15 0)
(3 7.06292e-16 0)
(3 -9.88903e-16 0)
(3 -1.48162e-15 0)
(3 -1.85943e-15 0)
(3 -2.07834e-15 0)
(3 -1.94285e-15 0)
(3 -1.60069e-15 0)
(3 -8.96779e-16 0)
(3 -7.37976e-16 0)
(3 2.27321e-17 0)
(3 4.84975e-16 0)
(3 5.25361e-16 0)
(3 7.35114e-16 0)
(3 1.26432e-15 0)
(3 1.07384e-15 0)
(3 4.70747e-16 0)
(3 3.23087e-16 0)
(3 8.1137e-16 0)
(3 1.477e-15 0)
(3 1.84e-15 0)
(3 1.26555e-15 0)
(3 1.61064e-15 0)
(3 8.31045e-16 0)
(3 4.03098e-16 0)
(3 1.23796e-16 0)
(3 -1.77036e-16 0)
(3 -4.6771e-16 0)
(3 -2.22164e-16 0)
(3 1.20832e-16 0)
(3 3.50727e-16 0)
(3 3.92229e-16 0)
(3 1.821e-16 0)
(3 2.64374e-16 0)
(3 5.31154e-16 0)
(3 2.99788e-16 0)
(3 -1.52805e-16 0)
(3 -4.73283e-17 0)
(3 3.15729e-16 0)
(3 8.02609e-16 0)
(3 1.04329e-15 0)
(3 5.91876e-16 0)
(3 6.58157e-16 0)
(3 7.09975e-16 0)
(3 5.35448e-16 0)
(3 3.92432e-16 0)
(3 1.83127e-17 0)
(3 -6.97814e-17 0)
(3 5.51989e-16 0)
(3 4.78841e-16 0)
(3 -4.59267e-16 0)
(3 -1.12711e-15 0)
(3 -5.38406e-16 0)
(3 5.96725e-17 0)
(3 7.30042e-16 0)
(3 1.24963e-15 0)
(3 2.29128e-15 0)
(3 2.73846e-15 0)
(3 2.57502e-15 0)
(3 2.25962e-15 0)
(3 1.93428e-15 0)
(3 8.77881e-16 0)
(3 5.67745e-16 0)
(3 1.06992e-15 0)
(3 1.46333e-15 0)
(3 2.25683e-15 0)
(3 2.00746e-15 0)
(3 1.72581e-15 0)
(3 1.70362e-15 0)
(3 1.44572e-15 0)
(3 2.44567e-15 0)
(3 2.63134e-15 0)
(3 2.1003e-15 0)
(3 1.89557e-15 0)
(3 1.75492e-15 0)
(3 1.27214e-15 0)
(3 9.02318e-16 0)
(3 1.99033e-17 0)
(3 8.5053e-18 0)
(3 -1.46194e-16 0)
(3 -2.13054e-16 0)
(3 -3.53261e-16 0)
(3 -2.40981e-16 0)
(3 4.72427e-17 0)
(3 5.58956e-16 0)
(3 1.21852e-15 0)
(3 5.79464e-16 0)
(3 4.08522e-16 0)
(3 -1.79038e-16 0)
(3 -9.51359e-16 0)
(3 -1.36282e-15 0)
(3 -1.15565e-15 0)
(3 -7.68903e-16 0)
(3 -1.05606e-15 0)
(3 -8.82069e-16 0)
(3 -5.19715e-16 0)
(3 1.7383e-16 0)
(3 6.42982e-16 0)
(3 1.79622e-15 0)
(3 1.46415e-15 0)
(3 1.90691e-15 0)
(3 2.05843e-15 0)
(3 2.17889e-15 0)
(3 2.32585e-15 0)
(3 2.53196e-15 0)
(3 3.30424e-15 0)
(3 3.42343e-15 0)
(3 2.93487e-15 0)
(3 1.52721e-15 0)
(3 5.26648e-16 0)
(3 -3.27648e-16 0)
(3 1.33928e-16 0)
(3 2.52538e-15 0)
(3 3.14356e-15 0)
(3 3.54944e-15 0)
(3 2.95393e-15 0)
(3 1.77814e-15 0)
(3 1.84552e-15 0)
(3 7.97877e-16 0)
(3 1.12087e-15 0)
(3 7.62119e-16 0)
(3 8.45707e-16 0)
(3 1.20538e-15 0)
(3 1.29857e-15 0)
(3 1.11807e-15 0)
(3 -5.07913e-17 0)
(3 -1.2697e-16 0)
(3 -1.45615e-16 0)
(3 -7.56375e-17 0)
(3 2.29115e-17 0)
(3 -4.58919e-16 0)
(3 -6.6881e-16 0)
(3 1.16906e-16 0)
(3 3.24026e-16 0)
(3 2.77368e-16 0)
(3 1.04119e-16 0)
(3 -7.96563e-16 0)
(3 -2.00976e-15 0)
(3 -2.05597e-15 0)
(3 -1.83933e-15 0)
(3 -1.29205e-15 0)
(3 -9.8307e-16 0)
(3 -8.86397e-16 0)
(3 -1.9949e-16 0)
(3 5.03951e-16 0)
(3 2.44806e-15 0)
(3 2.46162e-15 0)
(3 2.44376e-15 0)
(3 1.95546e-15 0)
(3 1.54241e-15 0)
(3 1.33807e-15 0)
(3 1.55444e-15 0)
(3 1.75361e-15 0)
(3 1.76194e-15 0)
(3 1.79156e-15 0)
(3 1.79206e-15 0)
(3 1.44914e-15 0)
(3 1.1205e-15 0)
(3 2.32016e-16 0)
(3 1.87061e-16 0)
(3 2.06406e-15 0)
(3 2.50218e-15 0)
(3 2.64492e-15 0)
(3 2.45e-15 0)
(3 2.93246e-15 0)
(3 1.61855e-15 0)
(3 3.01197e-16 0)
(3 -2.21178e-16 0)
(3 -1.16436e-16 0)
(3 1.59575e-16 0)
(3 2.84301e-16 0)
(3 6.74305e-16 0)
(3 8.0508e-16 0)
(3 -4.86556e-17 0)
(3 -6.5169e-17 0)
(3 -1.80319e-18 0)
(3 -1.34662e-16 0)
(3 1.57049e-16 0)
(3 -1.64207e-16 0)
(3 -3.35081e-16 0)
(3 -4.29709e-16 0)
(3 -8.05706e-16 0)
(3 -1.102e-15 0)
(3 -1.05466e-15 0)
(3 -1.61667e-15 0)
(3 -1.40776e-15 0)
(3 -1.05828e-15 0)
(3 -1.02355e-15 0)
(3 -8.3055e-16 0)
(3 -1.17892e-15 0)
(3 -1.62119e-15 0)
(3 -1.45846e-15 0)
(3 6.30823e-16 0)
(3 1.32305e-15 0)
(3 1.31698e-15 0)
(3 1.54275e-15 0)
(3 1.27552e-15 0)
(3 1.28021e-15 0)
(3 1.00691e-15 0)
(3 1.21952e-15 0)
(3 1.81336e-15 0)
(3 1.45396e-15 0)
(3 1.05233e-15 0)
(3 1.10446e-15 0)
(3 1.45766e-15 0)
(3 1.98914e-15 0)
(3 2.5096e-15 0)
(3 2.2995e-15 0)
(3 2.08891e-15 0)
(3 2.39908e-15 0)
(3 2.0685e-15 0)
(3 1.64978e-15 0)
(3 9.79253e-16 0)
(3 8.87863e-16 0)
(3 9.75112e-16 0)
(3 4.20566e-16 0)
(3 8.17429e-16 0)
(3 5.65081e-16 0)
(3 2.29602e-16 0)
(3 -3.31255e-17 0)
(3 -8.74716e-17 0)
(3 2.13817e-17 0)
(3 2.11746e-16 0)
(3 4.45469e-16 0)
(3 3.8645e-16 0)
(3 7.96654e-16 0)
(3 1.13313e-15 0)
(3 1.19374e-15 0)
(3 6.33025e-16 0)
(3 -1.659e-16 0)
(3 -1.01064e-15 0)
(3 -2.0859e-15 0)
(3 -1.95099e-15 0)
(3 -1.31802e-15 0)
(3 -5.30106e-16 0)
(3 -1.58887e-16 0)
(3 -2.21162e-16 0)
(3 -4.06718e-16 0)
(3 -7.9252e-16 0)
(3 -1.16166e-15 0)
(3 5.45172e-18 0)
(3 7.02984e-16 0)
(3 1.22838e-15 0)
(3 1.55532e-15 0)
(3 1.90488e-15 0)
(3 2.18871e-15 0)
(3 2.33464e-15 0)
(3 1.65987e-15 0)
(3 1.12582e-15 0)
(3 8.87121e-16 0)
(3 4.13013e-16 0)
(3 -4.87051e-17 0)
(3 6.21152e-16 0)
(3 1.02826e-15 0)
(3 1.66747e-15 0)
(3 1.62959e-15 0)
(3 1.37145e-15 0)
(3 9.31442e-16 0)
(3 6.79099e-16 0)
(3 1.52229e-16 0)
(3 -5.9237e-16 0)
(3 -2.5007e-16 0)
(3 6.887e-18 0)
(3 4.22005e-16 0)
(3 8.9914e-16 0)
(3 1.10687e-15 0)
(3 9.46429e-16 0)
(3 1.21916e-16 0)
(3 -7.74425e-16 0)
(3 8.02971e-17 0)
(3 9.52732e-17 0)
(3 9.68648e-16 0)
(3 1.37272e-15 0)
(3 7.17568e-16 0)
(3 8.68501e-16 0)
(3 7.86035e-16 0)
(3 1.6808e-16 0)
(3 -6.27248e-16 0)
(3 -1.05087e-15 0)
(3 -2.13293e-15 0)
(3 -1.7241e-15 0)
(3 -1.28614e-15 0)
(3 -5.26123e-16 0)
(3 6.86164e-17 0)
(3 2.01349e-16 0)
(3 4.39532e-16 0)
(3 1.22163e-16 0)
(3 -2.20431e-16 0)
(3 -3.10237e-16 0)
(3 2.2846e-16 0)
(3 6.98663e-16 0)
(3 1.0644e-15 0)
(3 1.43933e-15 0)
(3 7.91095e-16 0)
(3 1.53578e-15 0)
(3 1.36241e-15 0)
(3 5.94883e-16 0)
(3 1.78842e-16 0)
(3 -2.28441e-16 0)
(3 -3.90734e-16 0)
(3 -5.97931e-16 0)
(3 -1.77344e-17 0)
(3 2.56241e-16 0)
(3 4.46013e-16 0)
(3 3.64874e-16 0)
(3 -3.16916e-16 0)
(3 -3.46794e-16 0)
(3 -5.68576e-16 0)
(3 -1.05092e-15 0)
(3 -1.29237e-15 0)
(3 -4.26756e-16 0)
(3 -4.86157e-17 0)
(3 5.9969e-16 0)
(3 1.51415e-15 0)
(3 1.74732e-15 0)
(3 9.79786e-16 0)
(3 1.27427e-16 0)
(3 -1.52483e-16 0)
(3 -3.5086e-16 0)
(3 1.94093e-16 0)
(3 3.70725e-16 0)
(3 2.00286e-16 0)
(3 5.04379e-16 0)
(3 2.44082e-16 0)
(3 -2.39735e-16 0)
(3 -5.95754e-16 0)
(3 -3.89351e-16 0)
(3 -1.57572e-16 0)
(3 -2.79868e-16 0)
(3 1.63633e-16 0)
(3 -7.61739e-17 0)
(3 -7.06568e-17 0)
(3 -2.43066e-16 0)
(3 3.88976e-16 0)
(3 8.26577e-16 0)
(3 5.5943e-16 0)
(3 -4.11555e-16 0)
(3 -8.8634e-16 0)
(3 -1.86796e-15 0)
(3 -2.02476e-15 0)
(3 -1.37411e-15 0)
(3 -1.08646e-15 0)
(3 -1.0374e-15 0)
(3 -7.87133e-16 0)
(3 -7.72464e-16 0)
(3 -1.08819e-15 0)
(3 -4.49651e-16 0)
(3 8.51937e-17 0)
(3 1.4658e-16 0)
(3 2.24872e-16 0)
(3 -3.86755e-17 0)
(3 2.9925e-17 0)
(3 -6.43142e-16 0)
(3 -5.40036e-16 0)
(3 -7.50117e-16 0)
(3 -7.30027e-16 0)
(3 -1.0029e-15 0)
(3 -1.31852e-15 0)
(3 -1.20668e-15 0)
(3 -9.21074e-16 0)
(3 -1.4324e-16 0)
(3 -3.20794e-18 0)
(3 -1.12962e-15 0)
(3 -1.03144e-15 0)
(3 -1.1035e-16 0)
(3 -1.33205e-16 0)
(3 -3.54919e-17 0)
(3 -1.2794e-16 0)
(3 -4.56286e-16 0)
(3 -1.10257e-16 0)
(3 8.43566e-17 0)
(3 6.31168e-17 0)
(3 -1.61378e-16 0)
(3 5.98929e-16 0)
(3 9.20246e-16 0)
(3 1.3384e-15 0)
(3 1.05076e-15 0)
(3 3.12485e-16 0)
(3 -6.76693e-16 0)
(3 -3.04794e-16 0)
(3 3.91615e-16 0)
(3 1.05e-15 0)
(3 1.30321e-15 0)
(3 1.67123e-15 0)
(3 1.55787e-15 0)
(3 -3.28606e-16 0)
(3 -1.85253e-15 0)
(3 -2.2698e-15 0)
(3 -2.2884e-15 0)
(3 -1.46186e-15 0)
(3 -1.22284e-15 0)
(3 -1.22971e-15 0)
(3 -1.76618e-15 0)
(3 -2.21753e-15 0)
(3 -1.49022e-15 0)
(3 -1.07589e-15 0)
(3 -7.44229e-16 0)
(3 -8.12514e-16 0)
(3 -7.1712e-16 0)
(3 -6.72708e-16 0)
(3 -1.12382e-15 0)
(3 -1.83687e-15 0)
(3 -1.75882e-15 0)
(3 -1.51519e-15 0)
(3 -1.33306e-15 0)
(3 -2.43651e-15 0)
(3 -2.73998e-15 0)
(3 -2.14668e-15 0)
(3 -1.74199e-15 0)
(3 -1.42234e-15 0)
(3 -1.29962e-15 0)
(3 -1.67027e-15 0)
(3 -4.97959e-16 0)
(3 -5.41031e-17 0)
(3 -4.29083e-17 0)
(3 -7.12112e-16 0)
(3 -1.06143e-15 0)
(3 -1.02327e-15 0)
(3 -1.13131e-15 0)
(3 -7.54451e-16 0)
(3 3.85076e-17 0)
(3 1.31736e-15 0)
(3 1.01338e-15 0)
(3 1.00387e-15 0)
(3 1.23652e-15 0)
(3 8.11924e-16 0)
(3 2.58169e-16 0)
(3 2.78052e-16 0)
(3 3.82656e-16 0)
(3 5.08269e-16 0)
(3 8.53794e-16 0)
(3 8.20501e-16 0)
(3 9.78982e-16 0)
(3 -5.67884e-16 0)
(3 -1.57745e-15 0)
(3 -1.46693e-15 0)
(3 -1.33079e-15 0)
(3 -1.24568e-15 0)
(3 -1.11789e-15 0)
(3 -7.9799e-16 0)
(3 -8.4763e-16 0)
(3 -1.17442e-15 0)
(3 -1.37652e-15 0)
(3 -1.25178e-15 0)
(3 -6.90243e-16 0)
(3 -6.02217e-16 0)
(3 -3.0717e-16 0)
(3 -1.0109e-15 0)
(3 -1.76615e-15 0)
(3 -2.34375e-15 0)
(3 -2.43148e-15 0)
(3 -2.26743e-15 0)
(3 -2.50861e-15 0)
(3 -2.72506e-15 0)
(3 -2.00906e-15 0)
(3 -1.39589e-15 0)
(3 -1.62535e-15 0)
(3 -1.30841e-15 0)
(3 -7.54519e-16 0)
(3 -7.41753e-16 0)
(3 -9.03753e-16 0)
(3 -4.22068e-17 0)
(3 -4.47094e-16 0)
(3 -3.7589e-16 0)
(3 -6.71746e-16 0)
(3 -1.29605e-15 0)
(3 -7.86812e-16 0)
(3 -1.52718e-16 0)
(3 1.49522e-16 0)
(3 1.68675e-16 0)
(3 3.57115e-16 0)
(3 6.50126e-16 0)
(3 8.11826e-16 0)
(3 1.04105e-15 0)
(3 6.185e-16 0)
(3 -2.22237e-16 0)
(3 -7.75068e-16 0)
(3 -5.64971e-16 0)
(3 -1.80829e-16 0)
(3 -2.76683e-16 0)
(3 -3.99642e-16 0)
(3 -4.30656e-16 0)
(3 -6.89135e-16 0)
(3 -1.18797e-15 0)
(3 -1.37007e-15 0)
(3 -1.17565e-15 0)
(3 -1.34149e-15 0)
(3 -1.04219e-15 0)
(3 -6.48136e-16 0)
(3 -7.90289e-16 0)
(3 -1.47022e-15 0)
(3 -1.12086e-15 0)
(3 -2.12855e-16 0)
(3 2.84821e-16 0)
(3 -2.57489e-16 0)
(3 -1.51812e-15 0)
(3 -2.69814e-15 0)
(3 -2.35518e-15 0)
(3 -1.66058e-15 0)
(3 -1.09954e-15 0)
(3 -1.13559e-15 0)
(3 -1.02097e-15 0)
(3 -6.70227e-16 0)
(3 -9.03453e-16 0)
(3 -1.51773e-15 0)
(3 -1.36181e-15 0)
(3 -3.91877e-16 0)
(3 -3.48473e-16 0)
(3 -1.04224e-15 0)
(3 -7.60553e-18 0)
(3 8.95955e-17 0)
(3 -2.58052e-17 0)
(3 -2.90135e-16 0)
(3 -5.79938e-16 0)
(3 -2.3827e-16 0)
(3 1.76296e-16 0)
(3 3.04525e-16 0)
(3 -3.35123e-16 0)
(3 -2.37974e-16 0)
(3 -4.24832e-16 0)
(3 -3.25332e-16 0)
(3 -2.13676e-19 0)
(3 7.79679e-17 0)
(3 -1.18823e-16 0)
(3 -1.67962e-16 0)
(3 -1.40783e-15 0)
(3 -1.77987e-15 0)
(3 -1.61212e-15 0)
(3 -5.24175e-16 0)
(3 8.41816e-16 0)
(3 1.02261e-15 0)
(3 8.05544e-16 0)
(3 -1.22158e-16 0)
(3 -3.21678e-16 0)
(3 -1.92046e-16 0)
(3 -1.11297e-15 0)
(3 -1.04723e-15 0)
(3 -1.14109e-16 0)
(3 -2.55941e-17 0)
(3 1.05331e-16 0)
(3 -1.00568e-17 0)
(3 -5.53701e-16 0)
(3 -1.16046e-15 0)
(3 -1.99478e-15 0)
(3 -2.05274e-15 0)
(3 -5.90645e-16 0)
(3 -3.41388e-17 0)
(3 6.74666e-16 0)
(3 9.13067e-16 0)
(3 9.87176e-16 0)
(3 5.03414e-16 0)
(3 1.20575e-16 0)
(3 -3.62356e-16 0)
(3 -1.04037e-15 0)
(3 -1.48847e-16 0)
(3 1.23007e-15 0)
(3 1.61467e-15 0)
(3 2.81796e-17 0)
(3 5.12133e-17 0)
(3 2.04156e-16 0)
(3 3.48429e-16 0)
(3 4.52631e-16 0)
(3 1.69127e-17 0)
(3 -1.78259e-16 0)
(3 9.44179e-17 0)
(3 2.77995e-18 0)
(3 -2.79683e-16 0)
(3 -4.65303e-16 0)
(3 -2.52114e-16 0)
(3 1.59551e-16 0)
(3 6.54061e-16 0)
(3 5.11648e-16 0)
(3 -5.32573e-16 0)
(3 -1.78579e-15 0)
(3 -2.36843e-15 0)
(3 -1.99892e-15 0)
(3 -1.32138e-15 0)
(3 -3.89801e-17 0)
(3 8.67407e-16 0)
(3 9.35069e-16 0)
(3 6.47342e-16 0)
(3 2.30481e-16 0)
(3 -2.28145e-16 0)
(3 -8.97392e-16 0)
(3 -9.71666e-16 0)
(3 9.71279e-17 0)
(3 9.46538e-16 0)
(3 7.37993e-16 0)
(3 -1.11837e-16 0)
(3 -5.26835e-16 0)
(3 -3.99559e-16 0)
(3 -2.9192e-16 0)
(3 2.14148e-16 0)
(3 8.38508e-16 0)
(3 7.69212e-16 0)
(3 4.1744e-16 0)
(3 2.90776e-16 0)
(3 6.31729e-16 0)
(3 5.25766e-16 0)
(3 3.53685e-16 0)
(3 3.97012e-16 0)
(3 -3.93881e-16 0)
(3 -4.5492e-16 0)
(3 8.89254e-17 0)
(3 4.41826e-16 0)
(3 1.85476e-16 0)
(3 7.41297e-17 0)
(3 2.05412e-16 0)
(3 5.79747e-16 0)
(3 1.05068e-15 0)
(3 4.84047e-16 0)
(3 2.30511e-16 0)
(3 -4.81952e-17 0)
(3 -4.30386e-16 0)
(3 -3.02739e-16 0)
(3 7.68168e-18 0)