/*--------------------------------*- C++ -*----------------------------------*\
  =========                 |
  \\      /  F ield         | OpenFOAM: The Open Source CFD Toolbox
   \\    /   O peration     | Website:  https://openfoam.org
    \\  /    A nd           | Version:  7
     \\/     M anipulation  |
\*---------------------------------------------------------------------------*/
FoamFile
{
    version     2.0;
    format      ascii;
    class       volVectorField;
    location    "0.8";
    object      U;
}
// * * * * * * * * * * * * * * * * * * * * * * * * * * * * * * * * * * * * * //

dimensions      [0 1 -1 0 0 0 0];

internalField   nonuniform List<vector> 
73728
(
(3 7.59075e-18 0)
(3 -3.81415e-17 0)
(3 1.24461e-16 0)
(3 4.64216e-16 0)
(3 5.71416e-16 0)
(3 5.01889e-16 0)
(3 4.49791e-16 0)
(3 3.42379e-16 0)
(3 4.07462e-16 0)
(3 2.37091e-16 0)
(3 -7.47845e-18 0)
(3 5.52979e-16 0)
(3 3.87123e-16 0)
(3 1.14593e-18 0)
(3 -7.59313e-16 0)
(3 -7.86304e-16 0)
(3 -1.22032e-15 0)
(3 -1.27358e-15 0)
(3 -9.21688e-16 0)
(3 -7.33893e-16 0)
(3 -3.49141e-16 0)
(3 -2.40465e-16 0)
(3 -7.43944e-16 0)
(3 -1.10793e-15 0)
(3 -1.65457e-15 0)
(3 -2.66704e-15 0)
(3 -3.19108e-15 0)
(3 -2.53569e-15 0)
(3 -2.45513e-15 0)
(3 -3.00256e-15 0)
(3 -3.27911e-15 0)
(3 -2.9799e-15 0)
(3 -1.72459e-15 0)
(3 -5.65523e-16 0)
(3 4.03174e-17 0)
(3 1.95388e-16 0)
(3 -3.84198e-17 0)
(3 -9.53405e-16 0)
(3 -1.76734e-15 0)
(3 -1.79993e-15 0)
(3 -1.53902e-15 0)
(3 -1.31611e-15 0)
(3 -4.44451e-16 0)
(3 -4.77391e-16 0)
(3 -2.24024e-16 0)
(3 1.55463e-16 0)
(3 3.8052e-16 0)
(3 1.07512e-15 0)
(3 1.38849e-15 0)
(3 1.40525e-15 0)
(3 8.66612e-16 0)
(3 8.73852e-16 0)
(3 9.02416e-16 0)
(3 1.45455e-15 0)
(3 1.60299e-15 0)
(3 4.0522e-16 0)
(3 -3.67577e-16 0)
(3 -7.25117e-16 0)
(3 -9.73241e-16 0)
(3 -1.28936e-15 0)
(3 -2.07231e-15 0)
(3 -1.9622e-15 0)
(3 -1.273e-15 0)
(3 -8.70954e-16 0)
(3 -1.13719e-15 0)
(3 -1.63687e-15 0)
(3 -1.90874e-15 0)
(3 -2.2977e-15 0)
(3 -1.85061e-15 0)
(3 -1.49339e-15 0)
(3 -8.47275e-16 0)
(3 6.81308e-16 0)
(3 1.00537e-15 0)
(3 9.78686e-16 0)
(3 4.69354e-17 0)
(3 -3.12846e-16 0)
(3 -7.25957e-17 0)
(3 2.37618e-16 0)
(3 7.77343e-16 0)
(3 9.98164e-16 0)
(3 7.82376e-16 0)
(3 4.18392e-16 0)
(3 -1.04625e-16 0)
(3 -2.33246e-16 0)
(3 -9.99454e-16 0)
(3 -1.06919e-15 0)
(3 -5.08187e-16 0)
(3 1.99892e-16 0)
(3 4.81897e-16 0)
(3 -2.28292e-16 0)
(3 -1.08123e-15 0)
(3 -1.38711e-15 0)
(3 -1.22258e-15 0)
(3 -1.3871e-15 0)
(3 -2.02177e-15 0)
(3 -2.1739e-15 0)
(3 -3.4794e-17 0)
(3 -3.98204e-16 0)
(3 -2.12343e-16 0)
(3 -8.87413e-17 0)
(3 -1.68511e-16 0)
(3 1.42672e-16 0)
(3 -1.33562e-16 0)
(3 -3.60788e-16 0)
(3 3.73721e-16 0)
(3 1.24331e-16 0)
(3 1.26137e-16 0)
(3 -1.27933e-16 0)
(3 -5.64948e-16 0)
(3 -1.03211e-15 0)
(3 -1.65598e-15 0)
(3 -1.72283e-15 0)
(3 -1.38308e-15 0)
(3 -1.37759e-15 0)
(3 -1.37389e-15 0)
(3 -1.01767e-15 0)
(3 -8.71535e-16 0)
(3 -1.13083e-15 0)
(3 -2.05164e-15 0)
(3 -3.15725e-15 0)
(3 -4.6649e-15 0)
(3 -5.74915e-15 0)
(3 -5.51658e-15 0)
(3 -5.60186e-15 0)
(3 -5.98458e-15 0)
(3 -6.25118e-15 0)
(3 -5.42657e-15 0)
(3 -4.3836e-15 0)
(3 -2.73709e-15 0)
(3 -1.13989e-15 0)
(3 4.26884e-16 0)
(3 7.58616e-16 0)
(3 9.17881e-17 0)
(3 -8.57507e-16 0)
(3 -2.7712e-15 0)
(3 -3.57845e-15 0)
(3 -3.10075e-15 0)
(3 -2.79825e-15 0)
(3 -1.7962e-15 0)
(3 -1.5766e-15 0)
(3 -1.5468e-15 0)
(3 -1.5108e-15 0)
(3 -1.33887e-19 0)
(3 1.27832e-15 0)
(3 2.05588e-15 0)
(3 2.71636e-15 0)
(3 2.76282e-15 0)
(3 2.33036e-15 0)
(3 1.2913e-15 0)
(3 5.84443e-16 0)
(3 4.42876e-16 0)
(3 -1.04589e-15 0)
(3 -2.35769e-15 0)
(3 -2.844e-15 0)
(3 -2.89089e-15 0)
(3 -2.81699e-15 0)
(3 -2.68996e-15 0)
(3 -2.67222e-15 0)
(3 -1.62921e-15 0)
(3 -7.03761e-16 0)
(3 -1.0091e-15 0)
(3 -9.79727e-16 0)
(3 -9.89372e-16 0)
(3 -1.59536e-15 0)
(3 -1.47032e-15 0)
(3 -1.15353e-15 0)
(3 4.67772e-16 0)
(3 1.7843e-15 0)
(3 1.96708e-15 0)
(3 1.68491e-15 0)
(3 7.70874e-16 0)
(3 8.95443e-16 0)
(3 7.59966e-16 0)
(3 1.0935e-15 0)
(3 1.67031e-15 0)
(3 1.53635e-15 0)
(3 1.24539e-16 0)
(3 -1.66046e-16 0)
(3 -9.08096e-16 0)
(3 -7.18839e-16 0)
(3 -6.50338e-16 0)
(3 -8.85409e-16 0)
(3 -4.43394e-16 0)
(3 1.14291e-15 0)
(3 1.34399e-15 0)
(3 2.80187e-16 0)
(3 -9.40144e-16 0)
(3 -1.633e-15 0)
(3 -1.54664e-15 0)
(3 -1.63034e-15 0)
(3 -2.20835e-15 0)
(3 -1.77243e-15 0)
(3 2.7876e-17 0)
(3 -8.15292e-17 0)
(3 -2.52856e-17 0)
(3 -1.18268e-16 0)
(3 4.21394e-17 0)
(3 2.49413e-16 0)
(3 -4.97698e-16 0)
(3 -1.17267e-15 0)
(3 -1.44427e-15 0)
(3 -1.26779e-15 0)
(3 -9.8846e-16 0)
(3 -1.39146e-15 0)
(3 -2.07279e-15 0)
(3 -2.44964e-15 0)
(3 -2.50056e-15 0)
(3 -2.58332e-15 0)
(3 -1.909e-15 0)
(3 -1.80336e-15 0)
(3 -1.14087e-15 0)
(3 -4.97267e-16 0)
(3 -7.56102e-16 0)
(3 -1.39962e-15 0)
(3 -2.47798e-15 0)
(3 -4.10429e-15 0)
(3 -4.9102e-15 0)
(3 -6.13246e-15 0)
(3 -5.72868e-15 0)
(3 -5.34913e-15 0)
(3 -5.80539e-15 0)
(3 -5.64658e-15 0)
(3 -5.15011e-15 0)
(3 -4.78062e-15 0)
(3 -4.24945e-15 0)
(3 -3.63577e-15 0)
(3 -3.10871e-15 0)
(3 -2.53592e-15 0)
(3 -2.09407e-15 0)
(3 -3.04278e-15 0)
(3 -3.76252e-15 0)
(3 -4.48768e-15 0)
(3 -5.7769e-15 0)
(3 -6.26201e-15 0)
(3 -6.74212e-15 0)
(3 -5.81897e-15 0)
(3 -5.24903e-15 0)
(3 -4.52001e-15 0)
(3 -3.91734e-15 0)
(3 -1.71386e-15 0)
(3 -2.69136e-16 0)
(3 1.24432e-15 0)
(3 1.61692e-15 0)
(3 1.64294e-15 0)
(3 9.67594e-16 0)
(3 3.47624e-16 0)
(3 -1.78411e-16 0)
(3 -1.29805e-15 0)
(3 -9.09474e-16 0)
(3 -4.2973e-16 0)
(3 -5.78926e-17 0)
(3 8.13568e-16 0)
(3 1.1586e-15 0)
(3 7.2914e-16 0)
(3 1.36654e-16 0)
(3 -5.61736e-17 0)
(3 -6.4198e-18 0)
(3 3.55586e-16 0)
(3 4.19175e-16 0)
(3 -8.0528e-16 0)
(3 -7.61771e-16 0)
(3 -4.33388e-16 0)
(3 -6.65737e-16 0)
(3 -9.57957e-16 0)
(3 -1.03293e-15 0)
(3 -1.22876e-15 0)
(3 2.93275e-16 0)
(3 1.53578e-15 0)
(3 1.20491e-15 0)
(3 8.53162e-16 0)
(3 9.91617e-16 0)
(3 -2.02104e-16 0)
(3 -2.59183e-15 0)
(3 -3.7523e-15 0)
(3 -3.79099e-15 0)
(3 -4.12833e-15 0)
(3 -3.58883e-15 0)
(3 -2.11841e-15 0)
(3 -2.90708e-16 0)
(3 1.09503e-15 0)
(3 1.09975e-15 0)
(3 9.26127e-16 0)
(3 4.96591e-16 0)
(3 -6.24508e-16 0)
(3 -2.78094e-15 0)
(3 -4.02343e-15 0)
(3 -3.86215e-15 0)
(3 -2.34481e-15 0)
(3 -2.60023e-17 0)
(3 9.63958e-16 0)
(3 1.01649e-15 0)
(3 7.90977e-16 0)
(3 4.09235e-16 0)
(3 1.71268e-16 0)
(3 -4.4076e-16 0)
(3 -8.46202e-16 0)
(3 -8.11686e-16 0)
(3 -5.58378e-16 0)
(3 -4.83694e-16 0)
(3 -6.75543e-16 0)
(3 -8.67016e-16 0)
(3 -9.92472e-16 0)
(3 -1.5754e-15 0)
(3 -1.651e-15 0)
(3 -1.70261e-15 0)
(3 -1.54353e-15 0)
(3 -1.38814e-15 0)
(3 -1.16024e-15 0)
(3 -1.3599e-15 0)
(3 -1.46521e-15 0)
(3 -2.08525e-15 0)
(3 -2.36251e-15 0)
(3 -2.88073e-15 0)
(3 -3.53798e-15 0)
(3 -4.28464e-15 0)
(3 -4.5472e-15 0)
(3 -4.59171e-15 0)
(3 -4.47687e-15 0)
(3 -4.81942e-15 0)
(3 -4.12375e-15 0)
(3 -4.29056e-15 0)
(3 -5.36794e-15 0)
(3 -4.99584e-15 0)
(3 -4.07133e-15 0)
(3 -4.34839e-15 0)
(3 -5.64996e-15 0)
(3 -5.27233e-15 0)
(3 -5.11829e-15 0)
(3 -5.48962e-15 0)
(3 -5.23717e-15 0)
(3 -4.07642e-15 0)
(3 -3.61709e-15 0)
(3 -2.83993e-15 0)
(3 -2.20877e-15 0)
(3 -1.56012e-15 0)
(3 -1.38159e-15 0)
(3 -1.37929e-15 0)
(3 -4.63232e-16 0)
(3 4.58893e-16 0)
(3 1.05012e-15 0)
(3 1.31465e-15 0)
(3 1.02223e-15 0)
(3 2.7751e-16 0)
(3 -8.56091e-16 0)
(3 -5.44303e-16 0)
(3 4.3024e-16 0)
(3 1.50221e-15 0)
(3 2.04185e-15 0)
(3 1.83386e-15 0)
(3 1.64529e-15 0)
(3 1.57243e-15 0)
(3 1.33646e-15 0)
(3 1.11147e-15 0)
(3 1.12474e-15 0)
(3 6.61338e-16 0)
(3 6.35412e-16 0)
(3 1.00179e-15 0)
(3 9.72648e-16 0)
(3 6.83294e-17 0)
(3 -9.72431e-16 0)
(3 -1.40748e-15 0)
(3 -9.89886e-16 0)
(3 -5.89697e-17 0)
(3 2.93508e-16 0)
(3 8.75636e-16 0)
(3 1.36816e-15 0)
(3 2.50747e-16 0)
(3 -1.25692e-15 0)
(3 -1.85938e-15 0)
(3 -2.39811e-15 0)
(3 -2.90922e-15 0)
(3 -3.38851e-15 0)
(3 -3.04937e-15 0)
(3 -1.8099e-15 0)
(3 -1.29255e-15 0)
(3 -1.04407e-15 0)
(3 -7.74481e-16 0)
(3 1.02432e-15 0)
(3 1.11081e-15 0)
(3 1.13895e-15 0)
(3 2.30418e-16 0)
(3 -1.05652e-15 0)
(3 -1.64603e-15 0)
(3 -1.93568e-15 0)
(3 -3.69873e-16 0)
(3 2.54267e-17 0)
(3 -7.61779e-16 0)
(3 -7.72779e-16 0)
(3 -1.09756e-15 0)
(3 -1.43425e-15 0)
(3 -1.30504e-15 0)
(3 -3.86107e-16 0)
(3 3.45126e-16 0)
(3 6.47025e-16 0)
(3 5.38917e-16 0)
(3 3.83101e-16 0)
(3 7.07792e-16 0)
(3 6.1807e-16 0)
(3 8.43361e-16 0)
(3 8.21789e-16 0)
(3 1.16833e-15 0)
(3 1.34964e-15 0)
(3 5.78935e-16 0)
(3 2.1268e-17 0)
(3 -4.35875e-16 0)
(3 -1.62326e-15 0)
(3 -1.90669e-15 0)
(3 -1.78116e-15 0)
(3 -2.99439e-15 0)
(3 -2.88722e-15 0)
(3 -2.98267e-15 0)
(3 -3.17638e-15 0)
(3 -3.04922e-15 0)
(3 -3.30139e-15 0)
(3 -4.23587e-15 0)
(3 -5.70303e-15 0)
(3 -5.77167e-15 0)
(3 -5.64557e-15 0)
(3 -4.98613e-15 0)
(3 -4.3034e-15 0)
(3 -3.37862e-15 0)
(3 -2.85892e-15 0)
(3 -2.93211e-15 0)
(3 -3.06802e-15 0)
(3 -2.83366e-15 0)
(3 -1.9812e-15 0)
(3 -2.05325e-15 0)
(3 -4.12196e-15 0)
(3 -4.96739e-15 0)
(3 -4.80785e-15 0)
(3 -5.83364e-15 0)
(3 -4.26107e-15 0)
(3 -2.37563e-15 0)
(3 -2.01463e-15 0)
(3 -1.22292e-15 0)
(3 -4.82241e-16 0)
(3 8.50409e-17 0)
(3 3.82611e-17 0)
(3 -3.48087e-16 0)
(3 -5.51898e-16 0)
(3 -1.47931e-16 0)
(3 4.65906e-16 0)
(3 1.08814e-15 0)
(3 1.9421e-15 0)
(3 2.46603e-15 0)
(3 3.1289e-15 0)
(3 3.59737e-15 0)
(3 3.80051e-15 0)
(3 3.06686e-15 0)
(3 2.83406e-15 0)
(3 3.14973e-15 0)
(3 4.22304e-15 0)
(3 4.11561e-15 0)
(3 3.17669e-15 0)
(3 2.52537e-15 0)
(3 1.00176e-15 0)
(3 8.25009e-16 0)
(3 7.7851e-16 0)
(3 2.20841e-16 0)
(3 8.07867e-16 0)
(3 9.53406e-16 0)
(3 -3.01405e-16 0)
(3 -1.51175e-15 0)
(3 -1.61848e-15 0)
(3 -1.22258e-15 0)
(3 -5.63581e-16 0)
(3 -4.02942e-16 0)
(3 -9.39483e-16 0)
(3 -1.38209e-15 0)
(3 -2.07379e-15 0)
(3 -2.69939e-15 0)
(3 -3.73004e-15 0)
(3 -3.41868e-15 0)
(3 -2.68156e-15 0)
(3 -1.20643e-15 0)
(3 1.12551e-15 0)
(3 1.25131e-15 0)
(3 3.19255e-16 0)
(3 -3.27249e-16 0)
(3 -1.19658e-15 0)
(3 -7.36509e-17 0)
(3 -8.38532e-16 0)
(3 -7.14075e-16 0)
(3 -2.86931e-16 0)
(3 2.96783e-17 0)
(3 -7.99032e-16 0)
(3 -1.65463e-15 0)
(3 -1.20127e-15 0)
(3 -1.15351e-15 0)
(3 -1.26698e-15 0)
(3 -1.37978e-15 0)
(3 -9.51521e-16 0)
(3 -8.13446e-16 0)
(3 -1.37085e-15 0)
(3 -4.56717e-16 0)
(3 4.95077e-16 0)
(3 7.66905e-16 0)
(3 1.33151e-15 0)
(3 1.50486e-15 0)
(3 1.63841e-15 0)
(3 1.07009e-15 0)
(3 3.97305e-16 0)
(3 -1.63405e-15 0)
(3 -2.40461e-15 0)
(3 -1.8291e-15 0)
(3 -2.40798e-15 0)
(3 -1.54473e-15 0)
(3 -2.30277e-16 0)
(3 2.44621e-16 0)
(3 -8.77742e-16 0)
(3 -9.95614e-16 0)
(3 -2.09451e-15 0)
(3 -2.31072e-15 0)
(3 -2.67512e-15 0)
(3 -3.83085e-15 0)
(3 -4.61047e-15 0)
(3 -4.70485e-15 0)
(3 -4.41839e-15 0)
(3 -4.35075e-15 0)
(3 -4.43044e-15 0)
(3 -3.45282e-15 0)
(3 -2.31715e-15 0)
(3 -1.12693e-15 0)
(3 -1.60885e-15 0)
(3 -2.39871e-15 0)
(3 -3.92327e-15 0)
(3 -4.36022e-15 0)
(3 -4.29256e-15 0)
(3 -4.49274e-15 0)
(3 -4.15141e-15 0)
(3 -2.61474e-15 0)
(3 -2.46378e-15 0)
(3 -2.15044e-15 0)
(3 -1.54467e-15 0)
(3 -7.93721e-16 0)
(3 2.14702e-16 0)
(3 3.41447e-16 0)
(3 2.80676e-16 0)
(3 9.18108e-16 0)
(3 2.13109e-15 0)
(3 3.03367e-15 0)
(3 3.45599e-15 0)
(3 3.19256e-15 0)
(3 2.95424e-15 0)
(3 2.76462e-15 0)
(3 2.58163e-15 0)
(3 3.38869e-15 0)
(3 4.91439e-15 0)
(3 3.99636e-15 0)
(3 2.81537e-15 0)
(3 2.32306e-15 0)
(3 1.86972e-15 0)
(3 1.00302e-15 0)
(3 8.21831e-17 0)
(3 7.76956e-17 0)
(3 2.34913e-16 0)
(3 2.90547e-16 0)
(3 -3.29083e-16 0)
(3 -5.96637e-16 0)
(3 -5.27158e-16 0)
(3 -6.08273e-16 0)
(3 -8.85097e-16 0)
(3 -1.3979e-15 0)
(3 -1.38507e-15 0)
(3 -1.86679e-15 0)
(3 -2.39353e-15 0)
(3 -3.94855e-15 0)
(3 -5.30034e-15 0)
(3 -4.7224e-15 0)
(3 -2.28272e-15 0)
(3 -9.65939e-16 0)
(3 -5.42748e-16 0)
(3 9.63881e-18 0)
(3 -6.51774e-16 0)
(3 -3.648e-16 0)
(3 -1.77118e-16 0)
(3 2.12784e-16 0)
(3 -5.23297e-16 0)
(3 -4.89545e-16 0)
(3 -4.09547e-16 0)
(3 -9.86259e-17 0)
(3 -2.60311e-16 0)
(3 -5.97384e-16 0)
(3 -8.60316e-16 0)
(3 -1.59348e-15 0)
(3 -1.91959e-15 0)
(3 -2.6289e-15 0)
(3 -2.66361e-15 0)
(3 -2.80372e-15 0)
(3 -2.44567e-15 0)
(3 -2.65895e-15 0)
(3 -2.70139e-15 0)
(3 -1.92964e-15 0)
(3 -9.8297e-16 0)
(3 -2.06493e-16 0)
(3 8.03194e-17 0)
(3 2.29981e-17 0)
(3 -2.2185e-16 0)
(3 -9.18055e-16 0)
(3 -8.54844e-16 0)
(3 4.79289e-16 0)
(3 1.60162e-15 0)
(3 1.88735e-15 0)
(3 2.56917e-15 0)
(3 3.16877e-15 0)
(3 3.02207e-15 0)
(3 3.65592e-15 0)
(3 2.75934e-15 0)
(3 2.52079e-15 0)
(3 2.46895e-15 0)
(3 1.76022e-15 0)
(3 3.19046e-16 0)
(3 -1.65195e-15 0)
(3 -2.84557e-15 0)
(3 -3.5145e-15 0)
(3 -3.9822e-15 0)
(3 -3.30549e-15 0)
(3 -2.85528e-15 0)
(3 -1.50154e-15 0)
(3 -1.01276e-15 0)
(3 -2.29058e-15 0)
(3 -3.75785e-15 0)
(3 -4.86763e-15 0)
(3 -6.44148e-15 0)
(3 -7.84665e-15 0)
(3 -6.43071e-15 0)
(3 -4.16675e-15 0)
(3 -2.963e-15 0)
(3 -1.47776e-15 0)
(3 -8.45563e-16 0)
(3 -9.53311e-16 0)
(3 -8.05828e-16 0)
(3 -8.20883e-16 0)
(3 -1.09285e-15 0)
(3 -9.90616e-16 0)
(3 -1.20679e-15 0)
(3 4.67482e-16 0)
(3 8.07504e-16 0)
(3 1.39396e-15 0)
(3 1.36154e-15 0)
(3 1.05176e-15 0)
(3 7.73599e-16 0)
(3 4.58091e-16 0)
(3 3.37496e-16 0)
(3 7.40507e-17 0)
(3 -8.5557e-17 0)
(3 -7.50366e-16 0)
(3 -1.17451e-15 0)
(3 -1.71536e-15 0)
(3 -2.37656e-15 0)
(3 -2.17942e-15 0)
(3 -1.55754e-15 0)
(3 -1.7368e-15 0)
(3 -1.12042e-15 0)
(3 -6.14041e-16 0)
(3 -3.01747e-16 0)
(3 -2.07251e-16 0)
(3 -3.42257e-16 0)
(3 -9.89496e-16 0)
(3 -8.08609e-16 0)
(3 -6.43917e-16 0)
(3 -9.32432e-16 0)
(3 -1.52158e-15 0)
(3 -1.58697e-15 0)
(3 3.96685e-16 0)
(3 9.07071e-16 0)
(3 1.01108e-16 0)
(3 -4.45904e-16 0)
(3 -7.05599e-16 0)
(3 8.10308e-17 0)
(3 9.51956e-16 0)
(3 1.58931e-15 0)
(3 7.27559e-17 0)
(3 4.07531e-17 0)
(3 1.9599e-16 0)
(3 2.81552e-16 0)
(3 2.64955e-16 0)
(3 4.72691e-16 0)
(3 9.59132e-16 0)
(3 5.23085e-16 0)
(3 9.67565e-16 0)
(3 2.32694e-16 0)
(3 -1.49734e-16 0)
(3 -3.66634e-16 0)
(3 -7.32632e-17 0)
(3 6.94676e-16 0)
(3 6.93418e-16 0)
(3 4.54799e-16 0)
(3 -2.47982e-16 0)
(3 -6.25859e-16 0)
(3 -7.97619e-16 0)
(3 -8.89596e-16 0)
(3 -5.05724e-16 0)
(3 8.26648e-17 0)
(3 5.80596e-16 0)
(3 1.08e-15 0)
(3 1.36232e-15 0)
(3 2.00917e-15 0)
(3 2.97395e-15 0)
(3 2.86053e-15 0)
(3 3.52971e-15 0)
(3 3.33873e-15 0)
(3 3.59247e-15 0)
(3 3.20453e-15 0)
(3 2.11494e-15 0)
(3 2.16051e-15 0)
(3 1.41908e-15 0)
(3 9.61542e-16 0)
(3 1.59191e-17 0)
(3 -5.23744e-16 0)
(3 -1.03904e-15 0)
(3 -1.63133e-15 0)
(3 -2.57191e-15 0)
(3 -3.50608e-15 0)
(3 -3.76916e-15 0)
(3 -2.74142e-15 0)
(3 -2.62736e-15 0)
(3 -2.91677e-15 0)
(3 -3.93844e-15 0)
(3 -4.21988e-15 0)
(3 -4.89845e-15 0)
(3 -4.1034e-15 0)
(3 -3.97265e-15 0)
(3 -3.6415e-15 0)
(3 -2.75123e-15 0)
(3 -1.64102e-15 0)
(3 -1.2369e-15 0)
(3 -1.56738e-15 0)
(3 -2.57371e-15 0)
(3 -3.10254e-15 0)
(3 -3.56303e-15 0)
(3 -4.27414e-15 0)
(3 -4.1463e-15 0)
(3 -2.89725e-15 0)
(3 -1.44359e-15 0)
(3 -1.01386e-15 0)
(3 -4.76377e-16 0)
(3 -1.53136e-16 0)
(3 -4.94627e-16 0)
(3 -1.06297e-15 0)
(3 -1.28467e-15 0)
(3 -2.42027e-15 0)
(3 -2.59834e-15 0)
(3 -3.54748e-15 0)
(3 -3.16528e-15 0)
(3 -3.31462e-15 0)
(3 -3.60638e-15 0)
(3 -3.18434e-15 0)
(3 -3.30317e-15 0)
(3 -2.69693e-15 0)
(3 -1.65837e-15 0)
(3 -1.40637e-15 0)
(3 -4.33593e-16 0)
(3 7.65505e-17 0)
(3 3.3416e-17 0)
(3 -5.71919e-16 0)
(3 -1.28558e-15 0)
(3 -9.76939e-16 0)
(3 1.35263e-15 0)
(3 2.26919e-15 0)
(3 2.26418e-15 0)
(3 2.47134e-15 0)
(3 2.53295e-15 0)
(3 2.3712e-15 0)
(3 1.86401e-15 0)
(3 2.19746e-15 0)
(3 1.58362e-15 0)
(3 1.174e-15 0)
(3 3.54239e-16 0)
(3 3.58065e-16 0)
(3 5.25866e-16 0)
(3 2.27796e-16 0)
(3 1.06275e-16 0)
(3 5.18158e-16 0)
(3 1.33814e-15 0)
(3 1.52748e-15 0)
(3 2.23687e-15 0)
(3 2.64019e-15 0)
(3 3.01389e-15 0)
(3 3.54249e-15 0)
(3 4.03803e-15 0)
(3 3.97699e-15 0)
(3 3.74917e-15 0)
(3 3.1688e-15 0)
(3 1.81142e-15 0)
(3 1.10036e-15 0)
(3 1.17852e-15 0)
(3 1.27868e-15 0)
(3 1.30477e-15 0)
(3 1.52836e-15 0)
(3 1.6067e-15 0)
(3 1.97789e-15 0)
(3 1.95882e-15 0)
(3 2.15081e-15 0)
(3 2.55259e-15 0)
(3 2.27346e-15 0)
(3 2.1891e-15 0)
(3 2.38224e-15 0)
(3 3.26864e-15 0)
(3 4.27362e-15 0)
(3 4.47836e-15 0)
(3 4.04452e-15 0)
(3 2.45758e-15 0)
(3 1.33518e-15 0)
(3 1.04378e-15 0)
(3 5.74345e-16 0)
(3 -3.52551e-16 0)
(3 -3.12093e-16 0)
(3 -8.61763e-16 0)
(3 -1.106e-15 0)
(3 -1.99602e-15 0)
(3 -2.63097e-15 0)
(3 -2.76304e-15 0)
(3 -3.9787e-15 0)
(3 -3.57746e-15 0)
(3 -3.36365e-15 0)
(3 -3.72124e-15 0)
(3 -4.16441e-15 0)
(3 -4.90221e-15 0)
(3 -5.17297e-15 0)
(3 -4.63244e-15 0)
(3 -3.79146e-15 0)
(3 -2.52577e-15 0)
(3 -1.38613e-15 0)
(3 -2.29607e-15 0)
(3 -2.88585e-15 0)
(3 -3.60454e-15 0)
(3 -4.03409e-15 0)
(3 -5.28094e-15 0)
(3 -5.24747e-15 0)
(3 -5.68535e-15 0)
(3 -5.08458e-15 0)
(3 -2.8102e-15 0)
(3 -2.37737e-15 0)
(3 -2.30601e-15 0)
(3 -2.48956e-15 0)
(3 -2.76575e-15 0)
(3 -3.31877e-15 0)
(3 -3.89082e-15 0)
(3 -4.01469e-15 0)
(3 -3.82084e-15 0)
(3 -3.4702e-15 0)
(3 -3.406e-15 0)
(3 -4.00642e-15 0)
(3 -4.04432e-15 0)
(3 -2.71072e-15 0)
(3 -8.60011e-16 0)
(3 -2.67091e-16 0)
(3 -6.98553e-16 0)
(3 -1.19503e-15 0)
(3 -1.04151e-15 0)
(3 -1.46894e-15 0)
(3 -2.92026e-15 0)
(3 -1.78202e-15 0)
(3 2.44321e-15 0)
(3 3.57819e-15 0)
(3 3.77011e-15 0)
(3 3.84334e-15 0)
(3 3.28663e-15 0)
(3 3.14589e-15 0)
(3 2.26649e-15 0)
(3 1.32116e-15 0)
(3 5.32375e-16 0)
(3 -1.29542e-16 0)
(3 1.10588e-16 0)
(3 -2.7498e-16 0)
(3 -2.39859e-16 0)
(3 -1.70511e-16 0)
(3 4.44392e-17 0)
(3 8.02001e-16 0)
(3 1.09349e-15 0)
(3 1.07953e-15 0)
(3 1.25049e-15 0)
(3 2.06485e-15 0)
(3 2.1989e-15 0)
(3 2.332e-15 0)
(3 2.58038e-15 0)
(3 2.48037e-15 0)
(3 2.42384e-15 0)
(3 2.2913e-15 0)
(3 2.05009e-15 0)
(3 1.85336e-15 0)
(3 2.16471e-15 0)
(3 2.47164e-15 0)
(3 2.2731e-15 0)
(3 2.01829e-15 0)
(3 1.85755e-15 0)
(3 1.8013e-15 0)
(3 1.41809e-15 0)
(3 9.76088e-16 0)
(3 3.85606e-16 0)
(3 -5.39645e-16 0)
(3 -1.02325e-15 0)
(3 -3.00214e-16 0)
(3 6.30694e-16 0)
(3 1.12134e-15 0)
(3 1.50427e-15 0)
(3 9.51527e-16 0)
(3 3.62553e-16 0)
(3 -2.057e-16 0)
(3 1.98068e-16 0)
(3 8.43817e-16 0)
(3 9.77171e-16 0)
(3 1.9797e-15 0)
(3 2.79452e-15 0)
(3 2.13456e-15 0)
(3 -2.55421e-15 0)
(3 -4.14961e-15 0)
(3 -5.44785e-15 0)
(3 -6.10121e-15 0)
(3 -5.8162e-15 0)
(3 -4.77778e-15 0)
(3 -4.3067e-15 0)
(3 -4.83586e-15 0)
(3 -5.48714e-15 0)
(3 -5.79044e-15 0)
(3 -5.74386e-15 0)
(3 -5.69327e-15 0)
(3 -5.23606e-15 0)
(3 -4.60474e-15 0)
(3 -4.13965e-15 0)
(3 -3.52675e-15 0)
(3 -3.30519e-15 0)
(3 -3.5459e-15 0)
(3 -3.69327e-15 0)
(3 -3.56824e-15 0)
(3 -3.5514e-15 0)
(3 -2.82409e-15 0)
(3 -2.41328e-15 0)
(3 -3.11918e-15 0)
(3 -3.97542e-15 0)
(3 -4.06067e-15 0)
(3 -4.3724e-15 0)
(3 -4.4623e-15 0)
(3 -4.60982e-15 0)
(3 -3.70485e-15 0)
(3 -3.11799e-15 0)
(3 -2.34488e-15 0)
(3 -2.08378e-15 0)
(3 -2.77637e-15 0)
(3 -2.95427e-15 0)
(3 -2.48457e-15 0)
(3 -2.58159e-15 0)
(3 -1.73462e-15 0)
(3 -2.5243e-15 0)
(3 -2.88431e-15 0)
(3 -2.54125e-15 0)
(3 -1.05005e-15 0)
(3 -7.80055e-16 0)
(3 2.75895e-15 0)
(3 4.37925e-15 0)
(3 4.89184e-15 0)
(3 4.76763e-15 0)
(3 4.68784e-15 0)
(3 4.13614e-15 0)
(3 1.35394e-15 0)
(3 6.43038e-16 0)
(3 6.89693e-16 0)
(3 1.88507e-15 0)
(3 1.72206e-15 0)
(3 -2.92369e-16 0)
(3 2.99472e-16 0)
(3 4.05559e-16 0)
(3 3.91204e-16 0)
(3 1.18816e-15 0)
(3 1.23413e-15 0)
(3 7.84e-16 0)
(3 9.77594e-16 0)
(3 1.17126e-15 0)
(3 1.09885e-15 0)
(3 1.38969e-15 0)
(3 9.81244e-16 0)
(3 2.91623e-17 0)
(3 -2.39997e-16 0)
(3 4.99521e-17 0)
(3 1.00937e-16 0)
(3 5.07285e-16 0)
(3 7.58717e-16 0)
(3 6.80716e-16 0)
(3 8.20004e-16 0)
(3 1.09272e-15 0)
(3 1.10007e-15 0)
(3 1.17563e-15 0)
(3 1.42944e-15 0)
(3 1.24492e-15 0)
(3 1.08383e-15 0)
(3 1.41571e-15 0)
(3 1.24799e-15 0)
(3 8.65661e-17 0)
(3 -6.31605e-16 0)
(3 -1.6828e-15 0)
(3 -2.45547e-15 0)
(3 -3.22769e-15 0)
(3 -3.14026e-15 0)
(3 -2.54739e-15 0)
(3 -1.56319e-15 0)
(3 -8.10123e-16 0)
(3 5.84597e-16 0)
(3 1.69252e-15 0)
(3 2.68473e-15 0)
(3 2.89748e-15 0)
(3 1.83554e-15 0)
(3 -6.97698e-16 0)
(3 -3.02486e-15 0)
(3 -5.03389e-15 0)
(3 -5.24092e-15 0)
(3 -5.33231e-15 0)
(3 -4.7682e-15 0)
(3 -3.06519e-15 0)
(3 -2.89568e-15 0)
(3 -4.30322e-15 0)
(3 -4.30857e-15 0)
(3 -4.62473e-15 0)
(3 -4.68027e-15 0)
(3 -5.02304e-15 0)
(3 -4.61402e-15 0)
(3 -3.76176e-15 0)
(3 -3.94327e-15 0)
(3 -3.69854e-15 0)
(3 -2.87909e-15 0)
(3 -1.55193e-15 0)
(3 -9.85486e-16 0)
(3 -1.00019e-15 0)
(3 -1.28711e-15 0)
(3 -1.86598e-15 0)
(3 -2.47101e-15 0)
(3 -2.87267e-15 0)
(3 -2.7053e-15 0)
(3 -2.60816e-15 0)
(3 -1.99466e-15 0)
(3 -1.25011e-15 0)
(3 -1.77374e-15 0)
(3 -1.7668e-15 0)
(3 -2.46671e-15 0)
(3 -2.95266e-15 0)
(3 -3.01559e-15 0)
(3 -2.32583e-15 0)
(3 -2.28991e-15 0)
(3 -2.51478e-15 0)
(3 -2.11005e-15 0)
(3 -1.74043e-15 0)
(3 -1.32745e-15 0)
(3 -1.46522e-15 0)
(3 2.7143e-16 0)
(3 1.41197e-15 0)
(3 3.46818e-15 0)
(3 4.38241e-15 0)
(3 4.88918e-15 0)
(3 3.87644e-15 0)
(3 2.11468e-15 0)
(3 2.89584e-15 0)
(3 1.88969e-15 0)
(3 1.97014e-15 0)
(3 2.25562e-15 0)
(3 2.93412e-15 0)
(3 3.16168e-15 0)
(3 1.24997e-16 0)
(3 3.83326e-16 0)
(3 7.18903e-16 0)
(3 8.85584e-16 0)
(3 6.13094e-16 0)
(3 5.60095e-16 0)
(3 2.19971e-16 0)
(3 4.69524e-16 0)
(3 3.85944e-16 0)
(3 2.59472e-16 0)
(3 3.27002e-16 0)
(3 2.83953e-16 0)
(3 3.70758e-16 0)
(3 2.20563e-16 0)
(3 -1.14571e-16 0)
(3 -2.3522e-16 0)
(3 -2.44384e-16 0)
(3 -2.36782e-16 0)
(3 1.59381e-16 0)
(3 3.35404e-16 0)
(3 7.30873e-16 0)
(3 5.48731e-16 0)
(3 1.14113e-16 0)
(3 1.82914e-16 0)
(3 1.738e-16 0)
(3 3.9234e-16 0)
(3 5.9588e-16 0)
(3 5.0064e-16 0)
(3 3.14096e-16 0)
(3 1.70307e-16 0)
(3 -1.67005e-15 0)
(3 -2.46291e-15 0)
(3 -2.02136e-15 0)
(3 -1.43735e-15 0)
(3 -1.36163e-15 0)
(3 -1.46195e-15 0)
(3 -1.93772e-15 0)
(3 -1.91073e-15 0)
(3 -9.77963e-16 0)
(3 -1.33091e-15 0)
(3 -1.64923e-15 0)
(3 -1.11767e-15 0)
(3 -7.65906e-16 0)
(3 -1.16721e-15 0)
(3 -1.81088e-15 0)
(3 -3.38763e-15 0)
(3 -3.68461e-15 0)
(3 -4.09422e-15 0)
(3 -4.00885e-15 0)
(3 -2.99462e-15 0)
(3 -1.26413e-15 0)
(3 -1.03681e-15 0)
(3 -1.11365e-15 0)
(3 -9.22074e-16 0)
(3 -6.71813e-16 0)
(3 -5.40924e-16 0)
(3 -2.0105e-16 0)
(3 -1.08291e-15 0)
(3 -1.58953e-15 0)
(3 -1.41329e-15 0)
(3 -1.3032e-15 0)
(3 -1.76876e-15 0)
(3 -3.36699e-15 0)
(3 -4.81578e-15 0)
(3 -4.70713e-15 0)
(3 -2.51886e-15 0)
(3 -1.46397e-15 0)
(3 -1.45858e-15 0)
(3 -6.14178e-16 0)
(3 8.02617e-17 0)
(3 9.35125e-16 0)
(3 3.52358e-16 0)
(3 -1.8517e-16 0)
(3 -7.75244e-16 0)
(3 -1.24761e-15 0)
(3 -5.08182e-16 0)
(3 -6.49116e-16 0)
(3 -9.4899e-16 0)
(3 -9.67988e-16 0)
(3 1.66841e-16 0)
(3 7.01134e-16 0)
(3 2.14675e-15 0)
(3 2.39911e-15 0)
(3 1.81286e-15 0)
(3 1.77821e-15 0)
(3 1.74685e-15 0)
(3 1.7149e-15 0)
(3 3.53324e-15 0)
(3 4.14618e-15 0)
(3 3.40486e-15 0)
(3 3.39855e-16 0)
(3 2.24927e-15 0)
(3 3.4135e-15 0)
(3 4.16468e-15 0)
(3 4.47597e-15 0)
(3 4.12915e-15 0)
(3 -1.89068e-17 0)
(3 1.02406e-17 0)
(3 9.75987e-17 0)
(3 2.35192e-16 0)
(3 3.07554e-16 0)
(3 1.03796e-15 0)
(3 1.49744e-15 0)
(3 1.25958e-15 0)
(3 9.6734e-16 0)
(3 8.96755e-16 0)
(3 6.84618e-16 0)
(3 7.17471e-16 0)
(3 1.10644e-15 0)
(3 1.05112e-15 0)
(3 9.65182e-16 0)
(3 7.08679e-16 0)
(3 3.87222e-16 0)
(3 -2.42712e-16 0)
(3 -3.92901e-16 0)
(3 -3.83317e-16 0)
(3 -1.87511e-16 0)
(3 3.21355e-16 0)
(3 5.24934e-16 0)
(3 -6.32285e-16 0)
(3 4.09182e-16 0)
(3 5.67359e-16 0)
(3 2.19997e-16 0)
(3 3.72287e-17 0)
(3 4.22706e-16 0)
(3 5.28027e-16 0)
(3 8.44906e-17 0)
(3 -1.18024e-16 0)
(3 4.3395e-16 0)
(3 1.06833e-15 0)
(3 1.42633e-15 0)
(3 7.82336e-16 0)
(3 1.57267e-16 0)
(3 -7.44895e-16 0)
(3 -1.04621e-15 0)
(3 -1.61799e-15 0)
(3 -1.60563e-15 0)
(3 -1.31818e-15 0)
(3 -1.26018e-16 0)
(3 6.69171e-16 0)
(3 4.68801e-16 0)
(3 -4.12813e-16 0)
(3 -5.50616e-16 0)
(3 -8.33971e-16 0)
(3 -1.317e-15 0)
(3 -1.27243e-15 0)
(3 9.34426e-16 0)
(3 1.45711e-15 0)
(3 1.24896e-15 0)
(3 5.32167e-16 0)
(3 3.6177e-16 0)
(3 5.10434e-16 0)
(3 1.02531e-15 0)
(3 8.18655e-16 0)
(3 -2.17357e-16 0)
(3 -5.27292e-17 0)
(3 -9.62954e-16 0)
(3 -1.73392e-15 0)
(3 -3.21997e-15 0)
(3 -3.98465e-15 0)
(3 -3.50042e-15 0)
(3 -3.03399e-15 0)
(3 -1.99532e-15 0)
(3 4.68846e-16 0)
(3 1.27711e-15 0)
(3 1.53596e-15 0)
(3 1.30606e-15 0)
(3 2.96056e-15 0)
(3 2.69544e-15 0)
(3 3.52861e-15 0)
(3 3.22711e-15 0)
(3 3.73412e-15 0)
(3 3.3031e-15 0)
(3 1.73031e-15 0)
(3 8.75886e-16 0)
(3 3.9644e-16 0)
(3 4.45297e-16 0)
(3 8.22557e-16 0)
(3 1.81996e-15 0)
(3 1.66716e-15 0)
(3 1.12369e-15 0)
(3 7.81251e-17 0)
(3 5.85845e-17 0)
(3 5.36722e-16 0)
(3 1.19e-15 0)
(3 9.29722e-16 0)
(3 1.55302e-15 0)
(3 1.90137e-15 0)
(3 2.38182e-15 0)
(3 2.89445e-15 0)
(3 3.14133e-15 0)
(3 2.6802e-15 0)
(3 -2.12757e-16 0)
(3 -3.22578e-16 0)
(3 -3.10669e-16 0)
(3 -2.60333e-16 0)
(3 -9.30177e-18 0)
(3 3.80973e-17 0)
(3 4.04114e-16 0)
(3 3.87982e-16 0)
(3 5.85099e-16 0)
(3 4.89854e-16 0)
(3 3.97423e-16 0)
(3 3.60555e-16 0)
(3 5.64291e-16 0)
(3 7.90571e-16 0)
(3 8.09642e-16 0)
(3 1.4911e-15 0)
(3 1.82128e-15 0)
(3 1.36629e-15 0)
(3 -3.95781e-16 0)
(3 -8.56902e-16 0)
(3 -1.27763e-15 0)
(3 -1.18315e-15 0)
(3 4.54207e-17 0)
(3 7.48906e-17 0)
(3 1.01682e-15 0)
(3 1.4121e-15 0)
(3 1.30988e-15 0)
(3 7.78765e-16 0)
(3 -3.62877e-16 0)
(3 -1.01501e-15 0)
(3 -7.70403e-16 0)
(3 4.96762e-16 0)
(3 1.16365e-15 0)
(3 1.23878e-15 0)
(3 1.60003e-15 0)
(3 6.47207e-16 0)
(3 5.78489e-16 0)
(3 2.5304e-16 0)
(3 -5.90094e-16 0)
(3 -1.48085e-16 0)
(3 2.70909e-16 0)
(3 1.51448e-15 0)
(3 2.2824e-15 0)
(3 3.8533e-15 0)
(3 4.09226e-15 0)
(3 4.4737e-15 0)
(3 4.59004e-15 0)
(3 3.86039e-15 0)
(3 2.28216e-15 0)
(3 7.67812e-16 0)
(3 7.73364e-17 0)
(3 -1.99938e-16 0)
(3 1.32705e-16 0)
(3 1.777e-16 0)
(3 -5.66982e-16 0)
(3 -1.07157e-15 0)
(3 -1.14869e-15 0)
(3 -6.43049e-16 0)
(3 -1.90642e-16 0)
(3 4.94604e-16 0)
(3 1.09464e-15 0)
(3 1.09656e-15 0)
(3 6.09993e-16 0)
(3 -5.28731e-16 0)
(3 -1.43094e-15 0)
(3 -2.64226e-15 0)
(3 -1.5148e-15 0)
(3 -3.74919e-16 0)
(3 1.77296e-15 0)
(3 2.64888e-15 0)
(3 2.88756e-15 0)
(3 2.90293e-15 0)
(3 3.78464e-15 0)
(3 3.79505e-15 0)
(3 3.51375e-15 0)
(3 3.2069e-15 0)
(3 3.29239e-15 0)
(3 2.95851e-15 0)
(3 1.22055e-15 0)
(3 5.48729e-16 0)
(3 7.5665e-16 0)
(3 6.43337e-16 0)
(3 3.29222e-16 0)
(3 1.01443e-15 0)
(3 6.02803e-16 0)
(3 -2.10996e-15 0)
(3 -4.47425e-15 0)
(3 -5.60474e-15 0)
(3 -4.91135e-15 0)
(3 -3.33575e-15 0)
(3 -6.15012e-16 0)
(3 1.8884e-15 0)
(3 2.19991e-15 0)
(3 1.99019e-15 0)
(3 1.122e-15 0)
(3 7.41395e-16 0)
(3 2.44806e-17 0)
(3 -5.24696e-17 0)
(3 4.00482e-17 0)
(3 1.33425e-16 0)
(3 -6.81998e-17 0)
(3 -7.97335e-16 0)
(3 -1.21971e-15 0)
(3 -1.06738e-15 0)
(3 -7.74534e-16 0)
(3 -7.78134e-16 0)
(3 -5.56065e-16 0)
(3 -6.00877e-16 0)
(3 -9.32952e-16 0)
(3 -3.7093e-16 0)
(3 5.71066e-16 0)
(3 1.42969e-15 0)
(3 1.62419e-15 0)
(3 1.57801e-15 0)
(3 1.68813e-15 0)
(3 6.62589e-16 0)
(3 4.93505e-16 0)
(3 1.8191e-16 0)
(3 -3.16508e-16 0)
(3 -9.81166e-17 0)
(3 3.20054e-16 0)
(3 7.07186e-16 0)
(3 1.4974e-15 0)
(3 2.1535e-15 0)
(3 1.48044e-15 0)
(3 8.83753e-16 0)
(3 1.26512e-15 0)
(3 1.71372e-15 0)
(3 2.37395e-15 0)
(3 2.43068e-15 0)
(3 1.58152e-15 0)
(3 1.12943e-15 0)
(3 -1.70262e-16 0)
(3 -3.06624e-16 0)
(3 -2.19899e-16 0)
(3 9.6239e-16 0)
(3 1.87023e-15 0)
(3 1.67114e-15 0)
(3 2.35629e-15 0)
(3 2.92709e-15 0)
(3 4.36805e-15 0)
(3 5.44349e-15 0)
(3 4.55357e-15 0)
(3 2.93847e-15 0)
(3 2.25215e-15 0)
(3 2.55549e-15 0)
(3 1.78761e-15 0)
(3 1.34479e-15 0)
(3 4.36456e-16 0)
(3 -1.28427e-16 0)
(3 -4.93744e-16 0)
(3 -3.04926e-16 0)
(3 -4.21845e-16 0)
(3 -1.08643e-17 0)
(3 6.75195e-16 0)
(3 1.21066e-15 0)
(3 1.24767e-15 0)
(3 8.00204e-16 0)
(3 -1.55211e-15 0)
(3 -2.08433e-15 0)
(3 -3.21155e-15 0)
(3 -3.34564e-15 0)
(3 -2.89332e-15 0)
(3 -1.88267e-15 0)
(3 -7.66312e-16 0)
(3 1.05409e-15 0)
(3 2.00037e-15 0)
(3 2.76952e-15 0)
(3 2.70763e-15 0)
(3 2.15069e-15 0)
(3 2.04099e-15 0)
(3 2.02002e-15 0)
(3 2.20962e-15 0)
(3 1.84699e-15 0)
(3 1.1398e-15 0)
(3 1.35053e-15 0)
(3 1.48124e-15 0)
(3 1.68878e-15 0)
(3 1.43736e-15 0)
(3 1.85498e-16 0)
(3 -1.52422e-15 0)
(3 -3.92774e-15 0)
(3 -6.50495e-15 0)
(3 -7.50187e-15 0)
(3 -7.30756e-15 0)
(3 -5.25468e-15 0)
(3 -4.05582e-15 0)
(3 -1.74063e-15 0)
(3 1.10619e-16 0)
(3 4.88049e-16 0)
(3 9.63907e-16 0)
(3 1.16577e-15 0)
(3 1.5933e-16 0)
(3 2.83421e-16 0)
(3 2.17513e-16 0)
(3 -1.58551e-16 0)
(3 -3.14329e-16 0)
(3 -8.47767e-16 0)
(3 -7.97934e-16 0)
(3 -9.90774e-16 0)
(3 -7.7318e-16 0)
(3 -6.11605e-16 0)
(3 -5.42383e-16 0)
(3 -1.53269e-15 0)
(3 -2.21227e-15 0)
(3 -1.67359e-15 0)
(3 -9.57634e-16 0)
(3 -5.56241e-16 0)
(3 3.10004e-16 0)
(3 1.09393e-15 0)
(3 2.34706e-15 0)
(3 2.49822e-15 0)
(3 2.27952e-15 0)
(3 1.98336e-15 0)
(3 1.64549e-15 0)
(3 8.59875e-16 0)
(3 1.30896e-16 0)
(3 -3.75397e-16 0)
(3 -2.48092e-16 0)
(3 2.34487e-16 0)
(3 1.69712e-15 0)
(3 2.11007e-15 0)
(3 1.95685e-15 0)
(3 5.92339e-16 0)
(3 7.53395e-17 0)
(3 2.41909e-16 0)
(3 3.83816e-16 0)
(3 9.08119e-16 0)
(3 1.03875e-15 0)
(3 1.30437e-15 0)
(3 1.5949e-15 0)
(3 1.50723e-15 0)
(3 1.91697e-15 0)
(3 1.36811e-15 0)
(3 1.11748e-15 0)
(3 1.0403e-15 0)
(3 1.55326e-15 0)
(3 2.31908e-15 0)
(3 2.22573e-15 0)
(3 1.4078e-15 0)
(3 3.00865e-16 0)
(3 1.12442e-15 0)
(3 1.86637e-15 0)
(3 1.63182e-15 0)
(3 1.13597e-15 0)
(3 6.68057e-16 0)
(3 1.36561e-15 0)
(3 2.03349e-15 0)
(3 2.23467e-15 0)
(3 2.35904e-15 0)
(3 2.574e-15 0)
(3 9.91984e-16 0)
(3 -3.25224e-16 0)
(3 -1.9411e-15 0)
(3 -4.44784e-15 0)
(3 -5.0406e-15 0)
(3 -5.03692e-15 0)
(3 -3.14723e-15 0)
(3 -1.87962e-15 0)
(3 -1.51284e-15 0)
(3 -1.72336e-15 0)
(3 -1.39851e-15 0)
(3 -1.01209e-16 0)
(3 1.355e-15 0)
(3 1.28831e-15 0)
(3 1.3527e-15 0)
(3 2.23617e-15 0)
(3 3.44612e-15 0)
(3 3.93736e-15 0)
(3 3.51836e-15 0)
(3 3.3583e-15 0)
(3 2.86298e-15 0)
(3 1.86014e-15 0)
(3 -2.27863e-16 0)
(3 -1.12825e-15 0)
(3 -3.53519e-15 0)
(3 -4.68078e-15 0)
(3 -4.8927e-15 0)
(3 -4.27139e-15 0)
(3 -4.48705e-15 0)
(3 -5.63616e-15 0)
(3 -5.85474e-15 0)
(3 -5.7105e-15 0)
(3 -5.892e-15 0)
(3 -4.25609e-15 0)
(3 -2.86843e-15 0)
(3 1.92066e-16 0)
(3 3.6369e-15 0)
(3 -2.74497e-18 0)
(3 -1.83474e-16 0)
(3 -3.61476e-16 0)
(3 -1.19694e-15 0)
(3 -1.79157e-15 0)
(3 -2.14546e-15 0)
(3 -1.91731e-15 0)
(3 -1.81457e-15 0)
(3 -2.65694e-15 0)
(3 -2.46067e-15 0)
(3 -3.16096e-15 0)
(3 -3.47746e-15 0)
(3 -2.55647e-15 0)
(3 -1.00594e-15 0)
(3 -7.28782e-16 0)
(3 -8.07827e-16 0)
(3 -7.50855e-17 0)
(3 -1.89226e-16 0)
(3 2.57678e-17 0)
(3 4.90164e-16 0)
(3 1.06173e-15 0)
(3 1.28555e-15 0)
(3 1.29334e-15 0)
(3 1.08739e-15 0)
(3 9.44548e-16 0)
(3 -1.39896e-16 0)
(3 -8.39391e-16 0)
(3 -8.6597e-16 0)
(3 -1.77689e-17 0)
(3 8.80183e-16 0)
(3 1.55804e-15 0)
(3 1.05215e-15 0)
(3 8.27367e-17 0)
(3 -8.7663e-16 0)
(3 -7.79937e-16 0)
(3 3.42428e-16 0)
(3 1.94969e-15 0)
(3 2.90925e-15 0)
(3 2.43663e-15 0)
(3 1.55244e-15 0)
(3 1.17845e-15 0)
(3 6.0744e-16 0)
(3 5.56013e-16 0)
(3 3.9411e-16 0)
(3 6.00053e-16 0)
(3 1.24035e-15 0)
(3 2.49494e-16 0)
(3 -3.19224e-16 0)
(3 -1.03256e-15 0)
(3 -1.86953e-15 0)
(3 -1.03359e-15 0)
(3 1.47322e-16 0)
(3 2.87131e-16 0)
(3 8.45138e-16 0)