/*--------------------------------*- C++ -*----------------------------------*\
  =========                 |
  \\      /  F ield         | OpenFOAM: The Open Source CFD Toolbox
   \\    /   O peration     | Website:  https://openfoam.org
    \\  /    A nd           | Version:  7
     \\/     M anipulation  |
\*---------------------------------------------------------------------------*/
FoamFile
{
    version     2.0;
    format      ascii;
    class       volVectorField;
    location    "1.3";
    object      U;
}
// * * * * * * * * * * * * * * * * * * * * * * * * * * * * * * * * * * * * * //

dimensions      [0 1 -1 0 0 0 0];

internalField   nonuniform List<vector> 
73728
(
(3 6.79503e-17 0)
(3 -8.45255e-17 0)
(3 -2.3115e-16 0)
(3 -1.36775e-16 0)
(3 -4.77487e-16 0)
(3 -6.76579e-16 0)
(3 -3.36142e-16 0)
(3 -3.66727e-16 0)
(3 -6.78244e-16 0)
(3 -3.4802e-16 0)
(3 -4.04356e-16 0)
(3 -1.3741e-16 0)
(3 -1.59847e-16 0)
(3 -3.68499e-16 0)
(3 -3.74145e-16 0)
(3 -3.7559e-16 0)
(3 -4.92009e-16 0)
(3 -4.41013e-16 0)
(3 -3.88577e-16 0)
(3 -2.98189e-16 0)
(3 1.44751e-16 0)
(3 2.75694e-16 0)
(3 1.33834e-15 0)
(3 1.21833e-15 0)
(3 1.04955e-15 0)
(3 6.849e-16 0)
(3 7.0682e-16 0)
(3 7.39341e-16 0)
(3 2.93297e-16 0)
(3 -5.52609e-16 0)
(3 -5.9625e-16 0)
(3 -3.4744e-16 0)
(3 5.67345e-17 0)
(3 4.51364e-16 0)
(3 5.6276e-16 0)
(3 6.03558e-16 0)
(3 4.00509e-16 0)
(3 1.15461e-16 0)
(3 -7.82578e-16 0)
(3 -8.235e-16 0)
(3 -9.40939e-16 0)
(3 -1.23349e-15 0)
(3 -1.37143e-15 0)
(3 -1.2909e-15 0)
(3 -1.05965e-15 0)
(3 -5.64621e-16 0)
(3 2.15524e-17 0)
(3 -1.70417e-16 0)
(3 -2.72203e-16 0)
(3 -3.63472e-16 0)
(3 -1.04539e-15 0)
(3 -1.09104e-15 0)
(3 -8.337e-16 0)
(3 -2.90575e-17 0)
(3 -6.05816e-17 0)
(3 8.96561e-17 0)
(3 -7.05422e-17 0)
(3 2.70441e-16 0)
(3 3.50397e-16 0)
(3 1.86891e-15 0)
(3 2.65841e-15 0)
(3 2.48135e-15 0)
(3 1.27548e-15 0)
(3 9.88462e-16 0)
(3 5.76911e-16 0)
(3 2.14013e-16 0)
(3 -1.46626e-16 0)
(3 -2.1904e-16 0)
(3 2.81606e-17 0)
(3 6.55368e-16 0)
(3 1.00091e-15 0)
(3 1.03788e-15 0)
(3 1.7695e-15 0)
(3 1.82405e-15 0)
(3 1.67118e-15 0)
(3 2.16166e-15 0)
(3 1.44763e-15 0)
(3 1.24503e-15 0)
(3 8.74157e-16 0)
(3 1.72102e-17 0)
(3 -3.95325e-16 0)
(3 -1.08217e-15 0)
(3 -1.0665e-15 0)
(3 -7.09242e-16 0)
(3 -3.49069e-16 0)
(3 5.36993e-17 0)
(3 -2.46059e-16 0)
(3 -3.56368e-16 0)
(3 -2.7334e-16 0)
(3 -2.11347e-16 0)
(3 -3.49144e-16 0)
(3 -6.19876e-16 0)
(3 -5.10813e-16 0)
(3 1.0292e-16 0)
(3 8.14325e-16 0)
(3 9.47769e-16 0)
(3 -3.23043e-17 0)
(3 -4.47585e-16 0)
(3 -6.50633e-16 0)
(3 -5.59472e-16 0)
(3 -1.24575e-15 0)
(3 -1.72806e-15 0)
(3 -6.44649e-16 0)
(3 -3.33344e-16 0)
(3 -2.26223e-16 0)
(3 -2.42706e-16 0)
(3 -4.88182e-16 0)
(3 -1.08506e-15 0)
(3 -1.42914e-15 0)
(3 -1.66396e-15 0)
(3 -1.99688e-15 0)
(3 -2.8698e-15 0)
(3 -3.36167e-15 0)
(3 -2.68719e-15 0)
(3 -7.81381e-16 0)
(3 1.12104e-16 0)
(3 1.12291e-15 0)
(3 1.30417e-15 0)
(3 2.12241e-15 0)
(3 2.61996e-15 0)
(3 2.4648e-15 0)
(3 8.33767e-16 0)
(3 3.23727e-16 0)
(3 7.02576e-17 0)
(3 -5.21503e-16 0)
(3 -8.74759e-16 0)
(3 -3.75539e-16 0)
(3 -3.14788e-16 0)
(3 2.12007e-17 0)
(3 2.21189e-17 0)
(3 -2.22447e-16 0)
(3 1.11141e-16 0)
(3 1.73675e-16 0)
(3 -3.39888e-17 0)
(3 -7.53815e-16 0)
(3 -1.34021e-15 0)
(3 -1.16477e-15 0)
(3 -1.05951e-15 0)
(3 -7.62555e-16 0)
(3 -9.20022e-16 0)
(3 -1.021e-15 0)
(3 1.60191e-16 0)
(3 4.90778e-17 0)
(3 1.27704e-16 0)
(3 -2.29276e-16 0)
(3 -2.46603e-16 0)
(3 -4.10939e-16 0)
(3 -6.03685e-16 0)
(3 -8.74548e-16 0)
(3 -4.89146e-16 0)
(3 -2.91114e-16 0)
(3 5.413e-16 0)
(3 8.89044e-16 0)
(3 1.86586e-15 0)
(3 2.6026e-15 0)
(3 2.4732e-15 0)
(3 2.69222e-15 0)
(3 1.91522e-15 0)
(3 8.17159e-16 0)
(3 6.88866e-16 0)
(3 2.59435e-16 0)
(3 -7.80825e-16 0)
(3 -1.78248e-15 0)
(3 -1.34698e-15 0)
(3 -4.28211e-16 0)
(3 4.07471e-16 0)
(3 7.88111e-16 0)
(3 7.563e-16 0)
(3 6.02693e-16 0)
(3 6.00158e-16 0)
(3 6.77898e-16 0)
(3 1.05626e-15 0)
(3 7.84602e-16 0)
(3 7.60197e-16 0)
(3 1.3709e-16 0)
(3 -8.38815e-16 0)
(3 -1.35855e-15 0)
(3 -1.83144e-15 0)
(3 -1.1097e-15 0)
(3 -9.12013e-16 0)
(3 -8.86687e-16 0)
(3 -1.33534e-15 0)
(3 -1.8515e-15 0)
(3 -2.0712e-15 0)
(3 -1.73049e-15 0)
(3 -1.19886e-15 0)
(3 -1.01146e-15 0)
(3 -1.38333e-15 0)
(3 -1.34871e-15 0)
(3 4.45594e-17 0)
(3 2.17349e-15 0)
(3 1.05523e-15 0)
(3 -2.74446e-16 0)
(3 -1.07326e-16 0)
(3 -1.02027e-16 0)
(3 -5.42282e-16 0)
(3 -9.94494e-16 0)
(3 -6.77963e-16 0)
(3 1.63188e-17 0)
(3 7.24649e-17 0)
(3 3.9424e-17 0)
(3 -2.33946e-16 0)
(3 2.56296e-16 0)
(3 -1.16167e-15 0)
(3 -2.32848e-15 0)
(3 -2.66553e-15 0)
(3 -3.5588e-15 0)
(3 -3.57954e-15 0)
(3 -1.87276e-15 0)
(3 -4.28267e-16 0)
(3 1.2732e-16 0)
(3 5.41178e-16 0)
(3 1.85914e-15 0)
(3 1.92247e-15 0)
(3 2.64046e-15 0)
(3 3.49884e-15 0)
(3 3.01677e-15 0)
(3 2.19767e-15 0)
(3 1.06884e-15 0)
(3 6.01112e-16 0)
(3 9.5511e-16 0)
(3 8.78191e-16 0)
(3 5.13629e-16 0)
(3 -7.99287e-17 0)
(3 -1.07801e-15 0)
(3 -1.18862e-15 0)
(3 -1.16059e-15 0)
(3 -8.47518e-16 0)
(3 -8.97914e-16 0)
(3 -1.33673e-15 0)
(3 -1.45893e-15 0)
(3 -1.38131e-15 0)
(3 -1.54479e-15 0)
(3 -1.22899e-15 0)
(3 -4.90938e-16 0)
(3 -9.03553e-16 0)
(3 -1.65758e-15 0)
(3 -8.66719e-16 0)
(3 9.61933e-16 0)
(3 1.47486e-15 0)
(3 1.86786e-15 0)
(3 1.76416e-15 0)
(3 1.3847e-15 0)
(3 1.08237e-15 0)
(3 1.09326e-15 0)
(3 -1.31581e-16 0)
(3 -1.37851e-15 0)
(3 -7.43217e-16 0)
(3 1.27972e-15 0)
(3 1.29239e-15 0)
(3 1.71244e-15 0)
(3 2.31745e-15 0)
(3 2.46639e-15 0)
(3 2.21976e-15 0)
(3 1.8123e-15 0)
(3 1.5898e-15 0)
(3 1.31508e-15 0)
(3 3.88236e-16 0)
(3 -3.38015e-16 0)
(3 -4.57977e-16 0)
(3 -1.77996e-17 0)
(3 -1.74778e-16 0)
(3 -1.09472e-16 0)
(3 2.19322e-16 0)
(3 1.3048e-16 0)
(3 1.92599e-17 0)
(3 -6.50171e-17 0)
(3 -1.03623e-15 0)
(3 -1.04583e-15 0)
(3 -9.3729e-16 0)
(3 -8.44158e-16 0)
(3 -1.508e-15 0)
(3 -2.89718e-15 0)
(3 -2.33569e-15 0)
(3 -4.98146e-16 0)
(3 4.07511e-16 0)
(3 9.61906e-16 0)
(3 -4.38833e-17 0)
(3 -3.19173e-16 0)
(3 -9.35764e-16 0)
(3 -9.00871e-16 0)
(3 -2.68565e-16 0)
(3 1.1855e-16 0)
(3 7.93958e-17 0)
(3 6.37567e-17 0)
(3 7.01065e-16 0)
(3 1.10401e-15 0)
(3 7.15613e-16 0)
(3 -6.52387e-17 0)
(3 5.3229e-17 0)
(3 3.63505e-17 0)
(3 -2.24101e-16 0)
(3 -4.55827e-16 0)
(3 -7.03129e-16 0)
(3 -1.25022e-15 0)
(3 -1.28252e-15 0)
(3 -1.25178e-15 0)
(3 -1.05618e-15 0)
(3 -4.44605e-16 0)
(3 -1.05676e-15 0)
(3 -1.59932e-15 0)
(3 -2.22375e-15 0)
(3 -2.18294e-15 0)
(3 1.10395e-16 0)
(3 1.60209e-15 0)
(3 1.64566e-15 0)
(3 1.915e-15 0)
(3 1.84041e-15 0)
(3 1.16209e-15 0)
(3 9.36461e-16 0)
(3 2.23626e-15 0)
(3 2.83137e-15 0)
(3 2.71485e-15 0)
(3 2.548e-15 0)
(3 2.14841e-15 0)
(3 1.3014e-15 0)
(3 1.2617e-15 0)
(3 1.62575e-15 0)
(3 7.63877e-16 0)
(3 -1.97634e-16 0)
(3 -5.93984e-16 0)
(3 -1.10585e-15 0)
(3 -1.45941e-15 0)
(3 -1.13714e-15 0)
(3 -2.54378e-15 0)
(3 -3.20557e-15 0)
(3 -3.09846e-15 0)
(3 -2.03916e-15 0)
(3 -1.22942e-15 0)
(3 -6.49706e-16 0)
(3 -6.46557e-16 0)
(3 -2.45907e-16 0)
(3 6.88062e-16 0)
(3 1.72237e-15 0)
(3 2.87441e-15 0)
(3 3.07866e-15 0)
(3 3.66509e-15 0)
(3 3.44567e-15 0)
(3 1.59286e-15 0)
(3 1.2959e-15 0)
(3 1.38411e-15 0)
(3 7.36358e-16 0)
(3 -1.27283e-16 0)
(3 1.7499e-16 0)
(3 9.81217e-16 0)
(3 1.37998e-15 0)
(3 1.53331e-15 0)
(3 1.82785e-15 0)
(3 2.25365e-15 0)
(3 2.45024e-15 0)
(3 2.05224e-15 0)
(3 1.48532e-15 0)
(3 1.63947e-15 0)
(3 2.34313e-15 0)
(3 2.36222e-15 0)
(3 1.79621e-15 0)
(3 1.08187e-15 0)
(3 7.39455e-16 0)
(3 5.35301e-16 0)
(3 6.19143e-16 0)
(3 9.95684e-16 0)
(3 1.15959e-15 0)
(3 1.89825e-16 0)
(3 -7.88596e-16 0)
(3 -1.62844e-15 0)
(3 -1.72377e-15 0)
(3 -1.59154e-15 0)
(3 -1.74943e-15 0)
(3 -2.93466e-15 0)
(3 -2.80982e-15 0)
(3 -7.62744e-16 0)
(3 -1.02996e-17 0)
(3 1.2279e-15 0)
(3 1.40903e-15 0)
(3 1.45448e-15 0)
(3 7.35347e-16 0)
(3 7.78869e-16 0)
(3 1.29233e-15 0)
(3 2.02121e-15 0)
(3 2.49151e-15 0)
(3 1.98006e-15 0)
(3 6.85772e-16 0)
(3 -2.47366e-17 0)
(3 -1.8376e-16 0)
(3 -3.17704e-17 0)
(3 -5.80519e-16 0)
(3 -6.42308e-16 0)
(3 -3.80679e-17 0)
(3 3.55798e-16 0)
(3 6.60321e-17 0)
(3 -4.3408e-17 0)
(3 -7.63522e-16 0)
(3 -7.27775e-16 0)
(3 -7.70721e-16 0)
(3 -5.81429e-16 0)
(3 2.992e-17 0)
(3 -3.47571e-16 0)
(3 -5.24995e-16 0)
(3 -3.82894e-16 0)
(3 5.09384e-16 0)
(3 1.55791e-15 0)
(3 1.32024e-15 0)
(3 1.39516e-15 0)
(3 1.81821e-15 0)
(3 1.39389e-15 0)
(3 7.06072e-16 0)
(3 3.7086e-16 0)
(3 4.93e-17 0)
(3 4.42492e-16 0)
(3 1.30737e-15 0)
(3 1.2698e-15 0)
(3 8.65041e-16 0)
(3 1.4829e-15 0)
(3 1.8485e-15 0)
(3 -6.06404e-17 0)
(3 -2.4055e-16 0)
(3 8.40387e-17 0)
(3 7.44947e-17 0)
(3 -4.89078e-16 0)
(3 -8.92609e-16 0)
(3 -8.26243e-16 0)
(3 -8.16259e-16 0)
(3 -7.08572e-16 0)
(3 -6.76895e-16 0)
(3 -5.53921e-16 0)
(3 2.07747e-16 0)
(3 3.85586e-16 0)
(3 1.22422e-15 0)
(3 3.31781e-15 0)
(3 4.20308e-15 0)
(3 3.56616e-15 0)
(3 3.35533e-15 0)
(3 3.13452e-15 0)
(3 2.51872e-15 0)
(3 2.20549e-15 0)
(3 2.30673e-15 0)
(3 2.00317e-15 0)
(3 1.14154e-15 0)
(3 1.12049e-16 0)
(3 -3.0321e-16 0)
(3 -7.32546e-16 0)
(3 -1.10964e-15 0)
(3 -3.66181e-16 0)
(3 2.67744e-16 0)
(3 2.71079e-16 0)
(3 5.75477e-16 0)
(3 4.1667e-16 0)
(3 4.37143e-16 0)
(3 1.09171e-15 0)
(3 1.70473e-15 0)
(3 1.93059e-15 0)
(3 1.07519e-15 0)
(3 4.17919e-16 0)
(3 1.48268e-16 0)
(3 4.1642e-16 0)
(3 4.80486e-16 0)
(3 5.10129e-16 0)
(3 5.30161e-16 0)
(3 -1.25552e-15 0)
(3 -2.74436e-15 0)
(3 -3.58941e-15 0)
(3 -4.12648e-15 0)
(3 -4.24995e-15 0)
(3 -3.51126e-15 0)
(3 -3.20314e-15 0)
(3 -2.87948e-15 0)
(3 -1.20311e-15 0)
(3 -5.32396e-16 0)
(3 3.61782e-16 0)
(3 7.52417e-16 0)
(3 3.10592e-16 0)
(3 9.33535e-16 0)
(3 1.93665e-15 0)
(3 1.51328e-15 0)
(3 1.44732e-15 0)
(3 1.65264e-15 0)
(3 1.83418e-15 0)
(3 1.761e-16 0)
(3 -4.61462e-16 0)
(3 -1.53143e-16 0)
(3 -4.76782e-17 0)
(3 -1.69263e-16 0)
(3 2.77566e-17 0)
(3 4.78767e-16 0)
(3 8.90932e-16 0)
(3 1.51198e-15 0)
(3 2.37131e-15 0)
(3 1.62088e-15 0)
(3 6.59884e-16 0)
(3 3.38966e-16 0)
(3 3.98486e-16 0)
(3 5.35242e-16 0)
(3 4.62386e-16 0)
(3 5.52164e-16 0)
(3 4.65661e-16 0)
(3 3.55772e-16 0)
(3 6.27618e-16 0)
(3 6.582e-16 0)
(3 2.93804e-16 0)
(3 2.8753e-17 0)
(3 -1.29832e-16 0)
(3 -5.404e-16 0)
(3 -1.79278e-15 0)
(3 -2.42762e-15 0)
(3 -1.154e-15 0)
(3 6.94134e-16 0)
(3 9.20491e-16 0)
(3 1.71272e-15 0)
(3 2.17143e-15 0)
(3 1.70317e-15 0)
(3 8.50098e-16 0)
(3 6.20971e-16 0)
(3 5.43451e-16 0)
(3 3.0905e-16 0)
(3 1.28173e-16 0)
(3 1.01526e-17 0)
(3 2.82997e-17 0)
(3 5.82426e-16 0)
(3 7.6118e-16 0)
(3 2.20322e-16 0)
(3 2.70378e-16 0)
(3 -2.47618e-18 0)
(3 5.96711e-17 0)
(3 8.48332e-16 0)
(3 9.14438e-16 0)
(3 1.10703e-15 0)
(3 1.12879e-15 0)
(3 1.08808e-15 0)
(3 8.94208e-16 0)
(3 1.16371e-15 0)
(3 1.88622e-15 0)
(3 2.71306e-15 0)
(3 2.6094e-15 0)
(3 1.89308e-15 0)
(3 4.38263e-16 0)
(3 1.57805e-16 0)
(3 -1.12371e-15 0)
(3 -1.82594e-15 0)
(3 -1.70133e-15 0)
(3 -1.03206e-15 0)
(3 -8.44959e-16 0)
(3 -1.6715e-15 0)
(3 -1.23113e-15 0)
(3 -1.23163e-15 0)
(3 -1.67313e-16 0)
(3 7.31532e-16 0)
(3 9.41706e-16 0)
(3 -3.62855e-17 0)
(3 -4.85244e-16 0)
(3 -4.34052e-16 0)
(3 4.01082e-17 0)
(3 4.15053e-17 0)
(3 -3.80856e-16 0)
(3 -1.72713e-15 0)
(3 -2.25337e-15 0)
(3 -3.15698e-15 0)
(3 -3.84627e-15 0)
(3 -4.76689e-15 0)
(3 -5.47258e-15 0)
(3 -4.78473e-15 0)
(3 -2.75715e-15 0)
(3 -2.05914e-15 0)
(3 -1.6286e-15 0)
(3 -1.26027e-15 0)
(3 -8.05223e-16 0)
(3 -6.40152e-17 0)
(3 5.29272e-16 0)
(3 9.47734e-16 0)
(3 2.21384e-15 0)
(3 1.15534e-15 0)
(3 1.0547e-15 0)
(3 1.71476e-15 0)
(3 1.51809e-15 0)
(3 9.32422e-16 0)
(3 -1.10284e-16 0)
(3 2.24643e-16 0)
(3 -2.67504e-17 0)
(3 1.789e-16 0)
(3 -1.99317e-17 0)
(3 9.91784e-17 0)
(3 1.37332e-15 0)
(3 1.62876e-15 0)
(3 1.28404e-15 0)
(3 6.51535e-16 0)
(3 4.66464e-16 0)
(3 6.36609e-16 0)
(3 6.30239e-16 0)
(3 4.84019e-16 0)
(3 6.63296e-16 0)
(3 9.38922e-16 0)
(3 1.76565e-15 0)
(3 1.36839e-15 0)
(3 1.20079e-15 0)
(3 1.17158e-15 0)
(3 8.16498e-16 0)
(3 3.97678e-16 0)
(3 -2.3113e-16 0)
(3 -6.81784e-16 0)
(3 -6.98023e-16 0)
(3 -1.88193e-16 0)
(3 3.86561e-16 0)
(3 3.98469e-16 0)
(3 1.09492e-15 0)
(3 1.25002e-15 0)
(3 1.03412e-15 0)
(3 8.81221e-16 0)
(3 1.3126e-15 0)
(3 2.81815e-17 0)
(3 -8.68427e-16 0)
(3 -7.44587e-16 0)
(3 1.34401e-16 0)
(3 3.09444e-16 0)
(3 1.48551e-16 0)
(3 -4.24141e-16 0)
(3 -8.95997e-16 0)
(3 -8.92629e-16 0)
(3 -5.41476e-16 0)
(3 -6.25141e-16 0)
(3 -6.41155e-16 0)
(3 -3.49228e-17 0)
(3 -6.57847e-16 0)
(3 -9.85939e-16 0)
(3 -3.76609e-16 0)
(3 -4.22177e-17 0)
(3 4.43633e-17 0)
(3 8.66609e-16 0)
(3 1.93774e-15 0)
(3 2.23192e-15 0)
(3 2.17872e-15 0)
(3 2.17597e-15 0)
(3 9.83121e-16 0)
(3 -2.93997e-17 0)
(3 -5.16226e-16 0)
(3 -3.42818e-16 0)
(3 -2.25831e-16 0)
(3 -1.57058e-15 0)
(3 -1.40244e-15 0)
(3 -1.11484e-15 0)
(3 -9.87305e-16 0)
(3 -1.13273e-15 0)
(3 -1.26004e-15 0)
(3 -8.29233e-16 0)
(3 -9.97489e-16 0)
(3 -1.45519e-15 0)
(3 -1.03823e-15 0)
(3 3.68535e-16 0)
(3 6.80475e-16 0)
(3 -4.86568e-17 0)
(3 -7.8689e-16 0)
(3 -1.68537e-15 0)
(3 -1.71366e-15 0)
(3 -1.50468e-15 0)
(3 -1.14793e-15 0)
(3 -2.14652e-15 0)
(3 -2.43214e-15 0)
(3 -2.34232e-15 0)
(3 -2.26291e-15 0)
(3 -2.41881e-15 0)
(3 -2.69404e-15 0)
(3 -3.42808e-15 0)
(3 -2.35442e-15 0)
(3 -1.12265e-15 0)
(3 -4.89643e-16 0)
(3 -7.22103e-16 0)
(3 8.29182e-16 0)
(3 1.71852e-15 0)
(3 1.96797e-15 0)
(3 1.67982e-15 0)
(3 1.34867e-15 0)
(3 5.94034e-16 0)
(3 -1.09154e-15 0)
(3 -2.21287e-15 0)
(3 4.96818e-17 0)
(3 7.86217e-17 0)
(3 1.55849e-16 0)
(3 -8.03214e-17 0)
(3 1.90458e-16 0)
(3 3.79468e-16 0)
(3 5.77341e-16 0)
(3 9.19433e-17 0)
(3 2.6148e-16 0)
(3 8.02208e-17 0)
(3 -5.49274e-17 0)
(3 7.18387e-16 0)
(3 1.22136e-15 0)
(3 1.48328e-15 0)
(3 1.97301e-15 0)
(3 2.07545e-15 0)
(3 1.44404e-15 0)
(3 1.31585e-15 0)
(3 1.29693e-15 0)
(3 2.08484e-15 0)
(3 2.27417e-15 0)
(3 1.68222e-15 0)
(3 5.20027e-16 0)
(3 3.67806e-16 0)
(3 -4.52397e-16 0)
(3 -7.15549e-16 0)
(3 -2.56343e-16 0)
(3 6.16523e-17 0)
(3 -3.9052e-17 0)
(3 -6.77623e-16 0)
(3 -7.27483e-16 0)
(3 -1.59542e-16 0)
(3 5.2434e-16 0)
(3 7.08873e-16 0)
(3 4.84815e-16 0)
(3 -2.07559e-16 0)
(3 -6.60566e-17 0)
(3 -7.37085e-16 0)
(3 -9.10386e-16 0)
(3 -9.67191e-16 0)
(3 -1.02544e-15 0)
(3 -9.05293e-16 0)
(3 -3.16492e-16 0)
(3 -8.03353e-17 0)
(3 3.43388e-16 0)
(3 3.80333e-16 0)
(3 4.45387e-16 0)
(3 6.10554e-16 0)
(3 6.1504e-16 0)
(3 9.20027e-16 0)
(3 1.33412e-15 0)
(3 1.18664e-15 0)
(3 5.85281e-16 0)
(3 1.05004e-15 0)
(3 1.79421e-15 0)
(3 1.01165e-15 0)
(3 7.72831e-16 0)
(3 8.68806e-16 0)
(3 5.64456e-16 0)
(3 -5.18784e-16 0)
(3 -3.8532e-16 0)
(3 2.72189e-16 0)
(3 1.49653e-16 0)
(3 -2.00671e-16 0)
(3 -1.63716e-15 0)
(3 -3.22021e-15 0)
(3 -3.95214e-15 0)
(3 -3.66544e-15 0)
(3 -2.51494e-15 0)
(3 -1.72118e-15 0)
(3 -2.12891e-15 0)
(3 -2.0315e-15 0)
(3 -1.51503e-15 0)
(3 -6.90478e-16 0)
(3 -6.29016e-17 0)
(3 6.48373e-16 0)
(3 -6.59123e-17 0)
(3 -3.54711e-16 0)
(3 3.8396e-16 0)
(3 1.00963e-15 0)
(3 -1.97004e-16 0)
(3 -1.16399e-15 0)
(3 -2.02361e-15 0)
(3 -2.12254e-15 0)
(3 -1.13146e-15 0)
(3 4.16254e-16 0)
(3 1.42423e-16 0)
(3 -2.63808e-16 0)
(3 4.57207e-16 0)
(3 1.21863e-15 0)
(3 7.41387e-16 0)
(3 8.67539e-16 0)
(3 3.73467e-16 0)
(3 -2.14274e-16 0)
(3 -8.87025e-16 0)
(3 -1.87296e-15 0)
(3 6.87341e-17 0)
(3 2.17771e-16 0)
(3 6.06314e-16 0)
(3 -3.26763e-16 0)
(3 -1.31822e-15 0)
(3 -1.04643e-15 0)
(3 -3.43909e-16 0)
(3 5.97586e-17 0)
(3 9.13486e-17 0)
(3 -1.328e-16 0)
(3 -2.5516e-16 0)
(3 -1.06873e-16 0)
(3 1.16372e-15 0)
(3 1.86838e-15 0)
(3 1.40151e-15 0)
(3 2.07556e-15 0)
(3 1.60961e-15 0)
(3 2.36175e-16 0)
(3 2.94864e-16 0)
(3 1.6389e-15 0)
(3 2.46153e-15 0)
(3 1.71004e-15 0)
(3 1.1433e-15 0)
(3 1.70615e-17 0)
(3 -1.38475e-15 0)
(3 -1.38017e-15 0)
(3 2.44135e-16 0)
(3 5.26315e-16 0)
(3 -1.89411e-16 0)
(3 -7.24481e-16 0)
(3 -4.98651e-16 0)
(3 3.08534e-16 0)
(3 1.01597e-15 0)
(3 6.64846e-16 0)
(3 1.29558e-16 0)
(3 -5.37003e-16 0)
(3 -1.47394e-16 0)
(3 1.45422e-15 0)
(3 2.40441e-15 0)
(3 1.93014e-15 0)
(3 5.22062e-16 0)
(3 6.28363e-16 0)
(3 8.44931e-16 0)
(3 8.21883e-16 0)
(3 1.58844e-15 0)
(3 1.60791e-15 0)
(3 1.48886e-15 0)
(3 5.34944e-16 0)
(3 3.71079e-16 0)
(3 4.89501e-16 0)
(3 6.35685e-16 0)
(3 6.65723e-16 0)
(3 1.26492e-16 0)
(3 2.64402e-16 0)
(3 1.18626e-15 0)
(3 9.36312e-16 0)
(3 1.78118e-16 0)
(3 2.35761e-16 0)
(3 4.64274e-16 0)
(3 5.39277e-16 0)
(3 6.51147e-16 0)
(3 5.09614e-16 0)
(3 -4.05046e-16 0)
(3 -1.10323e-15 0)
(3 -2.6459e-15 0)
(3 -3.31833e-15 0)
(3 -2.83408e-15 0)
(3 -2.45208e-15 0)
(3 -2.96695e-15 0)
(3 -3.26015e-15 0)
(3 -4.08731e-15 0)
(3 -4.07656e-15 0)
(3 -3.06136e-15 0)
(3 -1.41849e-15 0)
(3 -7.00131e-16 0)
(3 -5.02035e-16 0)
(3 4.87412e-16 0)
(3 6.84732e-16 0)
(3 8.85499e-16 0)
(3 1.23188e-16 0)
(3 -3.22331e-16 0)
(3 2.70626e-16 0)
(3 -7.17943e-16 0)
(3 -1.24104e-15 0)
(3 -1.0981e-15 0)
(3 -9.35003e-16 0)
(3 -7.66837e-16 0)
(3 -3.04278e-16 0)
(3 -3.21402e-16 0)
(3 -2.25859e-16 0)
(3 6.8254e-17 0)
(3 1.36931e-15 0)
(3 1.90561e-15 0)
(3 1.20646e-15 0)
(3 1.15657e-16 0)
(3 -1.49623e-15 0)
(3 -8.29792e-17 0)
(3 1.43037e-17 0)
(3 -1.79446e-17 0)
(3 2.55777e-16 0)
(3 2.62307e-16 0)
(3 7.96571e-17 0)
(3 -5.5007e-16 0)
(3 -4.85077e-16 0)
(3 -1.3635e-16 0)
(3 -1.28704e-16 0)
(3 -1.03285e-15 0)
(3 -1.6556e-15 0)
(3 -1.10012e-15 0)
(3 1.11836e-15 0)
(3 1.3726e-15 0)
(3 1.12268e-15 0)
(3 1.19451e-15 0)
(3 7.76043e-18 0)
(3 -1.95913e-16 0)
(3 3.53756e-16 0)
(3 8.82548e-16 0)
(3 1.47143e-16 0)
(3 -4.72887e-16 0)
(3 -1.21158e-15 0)
(3 -1.18994e-15 0)
(3 -7.09826e-16 0)
(3 -4.02148e-16 0)
(3 -8.25073e-16 0)
(3 -9.60709e-16 0)
(3 -6.1312e-16 0)
(3 -1.41789e-16 0)
(3 3.46436e-16 0)
(3 5.88732e-16 0)
(3 9.0388e-16 0)
(3 1.04904e-15 0)
(3 1.17188e-15 0)
(3 1.56778e-15 0)
(3 2.42419e-15 0)
(3 2.3123e-15 0)
(3 1.62868e-15 0)
(3 1.00991e-15 0)
(3 1.02857e-15 0)
(3 7.04977e-16 0)
(3 8.94694e-16 0)
(3 1.7332e-15 0)
(3 1.38134e-15 0)
(3 3.13321e-16 0)
(3 2.01431e-16 0)
(3 6.01494e-16 0)
(3 5.75444e-16 0)
(3 9.50092e-16 0)
(3 1.36066e-15 0)
(3 1.39508e-15 0)
(3 7.38334e-16 0)
(3 -1.09757e-16 0)
(3 -5.19118e-17 0)
(3 3.94944e-16 0)
(3 7.17805e-16 0)
(3 8.42512e-16 0)
(3 1.01479e-15 0)
(3 8.3239e-16 0)
(3 9.12483e-16 0)
(3 5.95543e-16 0)
(3 4.49756e-16 0)
(3 -6.12425e-16 0)
(3 -9.49894e-16 0)
(3 -2.7134e-16 0)
(3 -3.68864e-16 0)
(3 -1.10653e-15 0)
(3 -2.69515e-15 0)
(3 -3.15739e-15 0)
(3 -3.35029e-15 0)
(3 -2.77223e-15 0)
(3 -1.91421e-15 0)
(3 -1.66351e-15 0)
(3 -8.88097e-16 0)
(3 -2.41246e-16 0)
(3 -1.69979e-16 0)
(3 7.42256e-17 0)
(3 6.97351e-16 0)
(3 -3.54846e-16 0)
(3 -2.14378e-15 0)
(3 -2.72924e-15 0)
(3 -3.03567e-15 0)
(3 -2.99788e-15 0)
(3 -2.31396e-15 0)
(3 -4.46266e-16 0)
(3 1.92409e-16 0)
(3 -4.91857e-16 0)
(3 -2.68477e-17 0)
(3 1.09109e-15 0)
(3 1.5046e-15 0)
(3 2.00954e-15 0)
(3 2.09171e-15 0)
(3 2.31648e-15 0)
(3 1.4015e-15 0)
(3 1.09427e-16 0)
(3 2.15016e-16 0)
(3 5.08444e-16 0)
(3 9.82671e-16 0)
(3 8.28645e-16 0)
(3 7.22257e-16 0)
(3 1.63922e-16 0)
(3 -5.54627e-18 0)
(3 2.37797e-16 0)
(3 2.51015e-17 0)
(3 -1.78505e-16 0)
(3 -3.31418e-16 0)
(3 -4.63845e-16 0)
(3 3.01824e-17 0)
(3 5.87677e-16 0)
(3 2.02556e-16 0)
(3 -3.99128e-16 0)
(3 -8.30263e-16 0)
(3 -1.30774e-15 0)
(3 -1.13026e-15 0)
(3 -7.04812e-16 0)
(3 -1.24834e-15 0)
(3 -1.72821e-15 0)
(3 -2.27852e-15 0)
(3 -1.73075e-15 0)
(3 -1.4087e-15 0)
(3 -1.62649e-15 0)
(3 -1.83681e-15 0)
(3 -2.2921e-15 0)
(3 -1.72437e-15 0)
(3 -8.20275e-16 0)
(3 4.76565e-16 0)
(3 1.10098e-15 0)
(3 1.15944e-15 0)
(3 6.12064e-16 0)
(3 1.06602e-15 0)
(3 1.39293e-15 0)
(3 1.06295e-15 0)
(3 5.20283e-16 0)
(3 -1.61145e-16 0)
(3 -9.28395e-16 0)
(3 -3.44188e-16 0)
(3 4.47397e-17 0)
(3 -2.38343e-17 0)
(3 1.74856e-17 0)
(3 7.59297e-16 0)
(3 6.35511e-16 0)
(3 7.1599e-16 0)
(3 1.50349e-15 0)
(3 1.81278e-15 0)
(3 1.58315e-15 0)
(3 1.6159e-15 0)
(3 1.44195e-15 0)
(3 8.73941e-16 0)
(3 2.04093e-16 0)
(3 2.4905e-16 0)
(3 2.03243e-16 0)
(3 -1.74479e-17 0)
(3 -4.66095e-16 0)
(3 -2.43727e-16 0)
(3 2.49203e-16 0)
(3 4.36392e-16 0)
(3 6.52669e-16 0)
(3 1.23616e-15 0)
(3 6.67296e-16 0)
(3 -3.87523e-16 0)
(3 -8.34454e-16 0)
(3 -1.07024e-15 0)
(3 -1.47297e-15 0)
(3 -1.75732e-15 0)
(3 -1.40264e-15 0)
(3 -9.02653e-16 0)
(3 -8.15498e-16 0)
(3 -4.46358e-16 0)
(3 2.4354e-16 0)
(3 2.64165e-16 0)
(3 9.74009e-17 0)
(3 9.92164e-17 0)
(3 1.4112e-16 0)
(3 7.08156e-16 0)
(3 -7.27356e-17 0)
(3 -1.88536e-15 0)
(3 -3.61762e-15 0)
(3 -2.90551e-15 0)
(3 -2.19289e-15 0)
(3 -1.51038e-15 0)
(3 -2.02204e-16 0)
(3 4.86291e-16 0)
(3 1.66302e-16 0)
(3 5.182e-16 0)
(3 1.16298e-15 0)
(3 1.19419e-15 0)
(3 6.7056e-16 0)
(3 8.98007e-16 0)
(3 1.95777e-15 0)
(3 1.63158e-15 0)
(3 3.07107e-17 0)
(3 1.32773e-16 0)
(3 3.91551e-16 0)
(3 -3.21348e-16 0)
(3 -3.61567e-16 0)
(3 -1.13855e-16 0)
(3 4.76883e-16 0)
(3 -3.99407e-16 0)
(3 -5.2849e-16 0)
(3 -1.73962e-16 0)
(3 5.05765e-16 0)
(3 5.83855e-16 0)
(3 1.25634e-16 0)
(3 -2.89037e-16 0)
(3 -3.50788e-16 0)
(3 -8.70562e-17 0)
(3 -2.68015e-16 0)
(3 -5.04188e-17 0)
(3 -1.54867e-16 0)
(3 -1.89779e-15 0)
(3 -1.70381e-15 0)
(3 -1.79846e-15 0)
(3 -2.15269e-15 0)
(3 -2.78873e-15 0)
(3 -1.64232e-15 0)
(3 -1.19884e-15 0)
(3 -1.27951e-15 0)
(3 -1.20442e-15 0)
(3 -1.12477e-15 0)
(3 -1.14753e-15 0)
(3 -7.50993e-16 0)
(3 -4.78651e-16 0)
(3 -4.28477e-17 0)
(3 -3.38936e-16 0)
(3 -7.94575e-17 0)
(3 1.42474e-16 0)
(3 1.47298e-16 0)
(3 -2.58559e-16 0)
(3 -7.01849e-16 0)
(3 -5.76597e-16 0)
(3 -4.24239e-16 0)
(3 -5.50071e-16 0)
(3 -5.94901e-16 0)
(3 -1.30044e-15 0)
(3 -2.28336e-15 0)
(3 -1.54126e-15 0)
(3 7.92368e-16 0)
(3 1.16933e-15 0)
(3 1.77486e-15 0)
(3 2.38625e-15 0)
(3 2.24881e-15 0)
(3 1.56309e-15 0)
(3 7.44709e-16 0)
(3 1.01096e-15 0)
(3 1.46242e-15 0)
(3 1.27178e-15 0)
(3 -4.58949e-17 0)
(3 -1.23786e-15 0)
(3 -3.61358e-16 0)
(3 1.25462e-16 0)
(3 1.9002e-16 0)
(3 -2.06927e-16 0)
(3 9.90048e-17 0)
(3 1.8856e-16 0)
(3 -2.31639e-16 0)
(3 -8.70899e-16 0)
(3 -1.57533e-15 0)
(3 -1.36217e-15 0)
(3 -5.56706e-16 0)
(3 6.76268e-16 0)
(3 1.53978e-15 0)
(3 1.58482e-15 0)
(3 2.34394e-15 0)
(3 2.17783e-15 0)
(3 3.85822e-16 0)
(3 -3.06598e-16 0)
(3 9.60336e-17 0)
(3 3.01794e-16 0)
(3 7.89809e-16 0)
(3 9.55009e-16 0)
(3 6.33828e-16 0)
(3 5.91929e-16 0)
(3 8.41584e-17 0)
(3 -1.07925e-16 0)
(3 -4.97546e-16 0)
(3 -1.34487e-15 0)
(3 -1.45341e-15 0)
(3 -9.9127e-16 0)
(3 -6.06562e-16 0)
(3 -5.35805e-16 0)
(3 -4.2641e-16 0)
(3 -5.91995e-16 0)
(3 -8.13236e-16 0)
(3 -5.4807e-16 0)
(3 4.50346e-17 0)
(3 6.26758e-16 0)
(3 9.22888e-18 0)
(3 6.0479e-17 0)
(3 1.6888e-18 0)
(3 -3.62645e-16 0)
(3 -3.51756e-16 0)
(3 -7.89336e-16 0)
(3 -5.29093e-16 0)
(3 -6.30359e-16 0)
(3 -5.8241e-16 0)
(3 -2.6374e-17 0)
(3 4.25431e-16 0)
(3 2.24672e-16 0)
(3 -4.8928e-17 0)
(3 -3.04642e-16 0)
(3 -1.03013e-15 0)
(3 -9.25785e-16 0)
(3 -5.84423e-16 0)
(3 -1.29206e-16 0)
(3 5.21813e-16 0)
(3 -2.36994e-17 0)
(3 -3.48427e-16 0)
(3 -5.69615e-16 0)
(3 -1.04769e-15 0)
(3 -1.00527e-15 0)
(3 -1.27262e-15 0)
(3 -1.56138e-15 0)
(3 -1.79208e-15 0)
(3 -1.42619e-15 0)
(3 -8.65579e-16 0)
(3 -5.87934e-16 0)
(3 -1.44529e-15 0)
(3 -2.23538e-15 0)
(3 -2.38811e-15 0)
(3 -2.52885e-15 0)
(3 -1.1673e-15 0)
(3 -2.5751e-16 0)
(3 -9.40178e-16 0)
(3 -1.24268e-15 0)
(3 -1.17424e-15 0)
(3 -4.46659e-16 0)
(3 1.37985e-15 0)
(3 1.1279e-15 0)
(3 -3.55738e-16 0)
(3 -1.74343e-15 0)
(3 -2.23836e-15 0)
(3 -2.04679e-15 0)
(3 -1.65495e-15 0)
(3 -4.50339e-16 0)
(3 1.20429e-15 0)
(3 2.05401e-15 0)
(3 1.07632e-15 0)
(3 -1.82569e-16 0)
(3 -4.99451e-16 0)
(3 -5.03479e-17 0)
(3 1.18012e-15 0)
(3 1.69041e-15 0)
(3 1.19154e-15 0)
(3 8.80771e-16 0)
(3 1.86916e-15 0)
(3 1.27258e-15 0)
(3 -2.87825e-16 0)
(3 -7.26695e-16 0)
(3 -5.36583e-16 0)
(3 -1.49081e-15 0)
(3 -1.86972e-15 0)
(3 -9.79331e-16 0)
(3 6.25405e-17 0)
(3 4.70001e-17 0)
(3 7.41516e-17 0)
(3 4.7131e-16 0)
(3 1.1952e-15 0)
(3 1.63742e-15 0)
(3 2.26308e-15 0)
(3 1.88335e-15 0)
(3 9.68158e-16 0)
(3 5.33086e-16 0)
(3 3.39632e-16 0)
(3 9.76787e-16 0)
(3 1.97495e-15 0)
(3 2.5476e-15 0)
(3 2.26509e-15 0)
(3 2.7171e-15 0)
(3 2.87873e-15 0)
(3 1.5501e-15 0)
(3 -1.4693e-16 0)
(3 -1.53524e-15 0)
(3 -3.02183e-15 0)
(3 -2.92867e-15 0)
(3 -2.41479e-15 0)
(3 -2.23847e-15 0)
(3 -2.19432e-15 0)
(3 -2.14776e-15 0)
(3 -1.91668e-15 0)
(3 -1.06818e-15 0)
(3 -1.07677e-17 0)
(3 2.48807e-16 0)
(3 6.76647e-17 0)
(3 -1.11121e-16 0)
(3 -5.8111e-16 0)
(3 7.42733e-17 0)
(3 2.5553e-16 0)
(3 -1.24325e-16 0)
(3 -1.01786e-16 0)
(3 6.16252e-16 0)
(3 8.82965e-16 0)
(3 7.60605e-16 0)
(3 1.08341e-15 0)
(3 1.28122e-15 0)
(3 1.10648e-15 0)
(3 6.5053e-16 0)
(3 -8.97525e-17 0)
(3 -3.41578e-16 0)
(3 -1.33592e-15 0)
(3 -1.87535e-15 0)
(3 -1.38677e-15 0)
(3 -7.49868e-16 0)
(3 -8.93225e-16 0)
(3 -4.39126e-16 0)
(3 -6.73607e-17 0)
(3 9.10851e-16 0)
(3 -4.30766e-16 0)
(3 -1.1892e-15 0)
(3 -1.28415e-15 0)
(3 -1.05063e-15 0)
(3 -5.12769e-16 0)
(3 7.64734e-17 0)
(3 -8.66921e-16 0)
(3 -1.8168e-15 0)
(3 -1.9748e-15 0)
(3 -1.41745e-15 0)
(3 -7.90542e-16 0)
(3 8.7876e-17 0)
(3 -7.95967e-16 0)
(3 -9.46755e-16 0)
(3 -8.14327e-16 0)
(3 1.79226e-16 0)
(3 5.08368e-16 0)
(3 4.73096e-16 0)
(3 6.36545e-17 0)
(3 4.43194e-16 0)
(3 -3.22844e-18 0)
(3 -1.06692e-15 0)
(3 -1.59452e-15 0)
(3 -1.34626e-15 0)
(3 -6.5785e-16 0)
(3 -1.99851e-16 0)
(3 4.26089e-16 0)
(3 3.34109e-16 0)
(3 4.61565e-16 0)
(3 6.22008e-16 0)
(3 1.07206e-15 0)
(3 1.3901e-15 0)
(3 1.95742e-15 0)
(3 2.40738e-15 0)
(3 2.23537e-15 0)
(3 8.40702e-16 0)
(3 -8.18262e-16 0)
(3 -1.79511e-15 0)
(3 -1.95001e-15 0)
(3 -2.14538e-15 0)
(3 -1.8979e-15 0)
(3 -1.41905e-15 0)
(3 -9.9302e-16 0)
(3 -2.82019e-16 0)
(3 5.16691e-16 0)
(3 3.73126e-16 0)
(3 6.38471e-16 0)
(3 1.3373e-15 0)
(3 1.3586e-15 0)
(3 1.53588e-15 0)
(3 1.6077e-15 0)
(3 1.49207e-15 0)
(3 1.89616e-15 0)
(3 2.80308e-15 0)
(3 2.51683e-15 0)
(3 2.39554e-15 0)
(3 2.87137e-15 0)
(3 2.95007e-15 0)
(3 2.55651e-15 0)
(3 1.20759e-15 0)
(3 6.31945e-16 0)
(3 -4.74724e-17 0)
(3 -1.77472e-15 0)
(3 -2.453e-15 0)
(3 -2.9136e-15 0)
(3 -2.43142e-15 0)
(3 -2.53651e-15 0)
(3 -1.983e-15 0)
(3 -8.20969e-16 0)
(3 7.52166e-18 0)
(3 4.88914e-16 0)
(3 3.99028e-16 0)
(3 -2.73102e-17 0)
(3 -2.5768e-16 0)
(3 -2.42226e-16 0)
(3 -1.63812e-16 0)
(3 -1.25889e-16 0)
(3 -6.24522e-17 0)
(3 5.09815e-16 0)
(3 1.14298e-15 0)
(3 1.32906e-15 0)
(3 1.09351e-15 0)
(3 1.00734e-15 0)
(3 1.2353e-15 0)
(3 1.25663e-15 0)
(3 1.01025e-15 0)
(3 1.97358e-16 0)
(3 -6.63509e-16 0)
(3 -1.12005e-15 0)
(3 -1.22412e-15 0)
(3 -2.02835e-15 0)
(3 -2.37622e-15 0)
(3 -2.33352e-15 0)
(3 1.08475e-15 0)
(3 2.4204e-15 0)
(3 2.95836e-15 0)
(3 2.56875e-15 0)
(3 1.7232e-15 0)
(3 6.481e-16 0)
(3 2.82472e-16 0)
(3 2.12924e-16 0)
(3 4.2907e-16 0)
(3 3.68552e-16 0)
(3 6.51387e-16 0)
(3 9.20558e-16 0)
(3 1.52708e-15 0)
(3 2.034e-15 0)
(3 1.45948e-15 0)
(3 -1.25766e-16 0)
(3 -4.25961e-16 0)
(3 -3.14809e-16 0)
(3 -1.90968e-16 0)
(3 -9.93246e-16 0)
(3 -8.90826e-16 0)
(3 -4.32773e-16 0)
(3 8.51916e-17 0)
(3 -9.26653e-16 0)
(3 -1.16446e-15 0)
(3 -9.27599e-16 0)
(3 -6.39744e-16 0)
(3 -8.47628e-16 0)
(3 -1.08987e-15 0)
(3 7.46569e-16 0)
(3 1.76338e-15 0)
(3 2.16755e-15 0)
(3 1.55793e-15 0)
(3 6.00328e-16 0)
(3 -4.47786e-17 0)
(3 7.19265e-17 0)
(3 1.35465e-15 0)
(3 1.46688e-15 0)
(3 1.24099e-15 0)
(3 3.23451e-16 0)
(3 -4.59303e-16 0)
(3 -1.15434e-15 0)
(3 -6.4073e-16 0)
(3 -5.47292e-18 0)
(3 -1.18399e-16 0)
(3 -1.11162e-15 0)
(3 -2.25327e-15 0)
(3 3.42867e-18 0)
(3 1.13809e-15 0)
(3 1.03997e-15 0)
(3 4.12993e-16 0)
(3 5.07316e-16 0)
(3 6.44575e-16 0)
(3 6.74384e-16 0)
(3 1.26137e-15 0)
(3 2.36974e-15 0)
(3 1.44743e-15 0)
(3 4.19654e-16 0)
(3 1.07284e-15 0)
(3 2.82904e-15 0)
(3 2.90661e-15 0)
(3 2.41597e-15 0)
(3 1.47084e-15 0)
(3 1.77175e-15 0)
(3 -2.9106e-17 0)
(3 -1.6445e-15 0)
(3 -1.86216e-15 0)
(3 -2.16817e-15 0)
(3 -2.28532e-15 0)
(3 -2.72866e-15 0)
(3 -1.70226e-15 0)
(3 -1.16347e-15 0)
(3 -3.54518e-16 0)
(3 3.56028e-16 0)
(3 8.79029e-16 0)
(3 1.72273e-16 0)
(3 4.89011e-16 0)
(3 7.20878e-16 0)
(3 -4.8695e-17 0)
(3 -3.76069e-16 0)
(3 -5.42783e-16 0)
(3 -1.2234e-15 0)
(3 -1.09749e-15 0)
(3 -2.21752e-16 0)
(3 7.7202e-16 0)
(3 1.61845e-15 0)
(3 3.37902e-16 0)
(3 8.3219e-17 0)
(3 1.36662e-16 0)
(3 -4.06801e-16 0)
(3 -1.32528e-15 0)
(3 -8.30653e-16 0)
(3 -1.77022e-16 0)
(3 -1.20988e-16 0)
(3 -1.06602e-15 0)
(3 -1.52088e-15 0)
(3 -7.59126e-16 0)
(3 1.70506e-15 0)
(3 1.37334e-15 0)
(3 1.37905e-15 0)
(3 1.42505e-15 0)
(3 1.39682e-15 0)
(3 1.29997e-15 0)
(3 6.73892e-16 0)
(3 2.32265e-16 0)
(3 6.99538e-16 0)
(3 8.15959e-16 0)
(3 7.8189e-16 0)
(3 1.01534e-15 0)
(3 5.1949e-16 0)
(3 -9.15916e-16 0)
(3 -8.0797e-16 0)
(3 -5.18664e-16 0)
(3 1.71415e-16 0)
(3 -4.4616e-17 0)
(3 2.66396e-17 0)
(3 2.70519e-16 0)
(3 3.44365e-16 0)
(3 -3.22287e-16 0)
(3 -6.95075e-16 0)
(3 -8.75964e-16 0)
(3 -3.02491e-16 0)
(3 2.74213e-16 0)
(3 5.17687e-17 0)
(3 -2.66306e-16 0)
(3 2.96853e-16 0)
(3 7.79911e-16 0)
(3 9.59434e-16 0)
(3 7.00109e-16 0)
(3 -6.45828e-16 0)
(3 -1.66745e-15 0)
(3 -1.57476e-15 0)
(3 -1.76582e-16 0)
(3 9.75144e-16 0)
(3 1.08846e-15 0)
(3 1.48579e-15 0)
(3 2.08272e-15 0)
(3 1.70861e-15 0)
(3 2.03887e-15 0)
(3 2.4406e-15 0)
(3 8.19848e-16 0)
(3 -5.65203e-16 0)
(3 -1.66693e-15 0)
(3 -8.58111e-16 0)
(3 1.21712e-16 0)
(3 -2.75836e-16 0)
(3 -4.61201e-16 0)
(3 7.49229e-17 0)
(3 9.70465e-17 0)
(3 -1.68529e-16 0)
(3 -2.02158e-16 0)
(3 2.89685e-18 0)
(3 4.36939e-16 0)
(3 9.78486e-16 0)
(3 1.21239e-15 0)
(3 1.49392e-15 0)
(3 1.55674e-15 0)
(3 1.85298e-15 0)
(3 2.04442e-15 0)
(3 1.63679e-15 0)
(3 1.33701e-15 0)
(3 8.05057e-16 0)
(3 2.46997e-18 0)
(3 -7.13344e-16 0)
(3 -7.66149e-16 0)
(3 -1.37034e-15 0)
(3 -2.89668e-15 0)
(3 -2.95209e-15 0)
(3 -2.50589e-15 0)
(3 -2.55424e-15 0)
(3 -1.04551e-15 0)
(3 2.6453e-17 0)
(3 1.01216e-18 0)
(3 -7.57406e-17 0)
(3 2.34631e-16 0)
(3 -1.64598e-16 0)
(3 -9.54915e-16 0)
(3 -1.09767e-15 0)
(3 -8.33603e-16 0)
(3 -5.91416e-16 0)
(3 -6.44139e-16 0)
(3 -6.64588e-16 0)
(3 -5.98447e-17 0)
(3 1.83433e-16 0)
(3 1.31755e-16 0)
(3 -5.60425e-16 0)
(3 -5.03106e-16 0)
(3 1.2424e-16 0)
(3 1.14573e-15 0)
(3 7.36575e-18 0)
(3 -3.1852e-16 0)
(3 -3.28589e-16 0)
(3 -1.13846e-15 0)
(3 -6.65354e-16 0)
(3 -7.29645e-16 0)
(3 -1.09895e-15 0)
(3 -1.05407e-15 0)
(3 2.19495e-16 0)
(3 6.93414e-16 0)
(3 1.013e-15 0)
(3 8.69877e-16 0)
(3 2.55727e-16 0)
(3 7.0244e-17 0)
(3 1.90832e-16 0)
(3 -1.77017e-16 0)
(3 -1.57127e-15 0)
(3 -1.92777e-15 0)
(3 -1.46664e-15 0)
(3 -2.40962e-16 0)
(3 8.52964e-16 0)
(3 8.64188e-16 0)
(3 9.73958e-16 0)
(3 1.87731e-16 0)
(3 4.76512e-17 0)
(3 -6.83639e-16 0)
(3 -8.66656e-16 0)
(3 -2.92806e-16 0)
(3 -2.08092e-17 0)
(3 -2.95246e-16 0)
(3 -8.31024e-16 0)
(3 -8.73507e-16 0)
(3 -9.1545e-16 0)
(3 -8.29415e-16 0)
(3 -8.81239e-16 0)
(3 -1.18963e-16 0)
(3 -3.89409e-16 0)
(3 -1.26037e-15 0)
(3 -1.05087e-15 0)
(3 -2.35062e-16 0)
(3 1.02805e-15 0)
(3 1.16381e-15 0)