/*--------------------------------*- C++ -*----------------------------------*\
  =========                 |
  \\      /  F ield         | OpenFOAM: The Open Source CFD Toolbox
   \\    /   O peration     | Website:  https://openfoam.org
    \\  /    A nd           | Version:  7
     \\/     M anipulation  |
\*---------------------------------------------------------------------------*/
FoamFile
{
    version     2.0;
    format      ascii;
    class       volScalarField;
    location    "0.3";
    object      p;
}
// * * * * * * * * * * * * * * * * * * * * * * * * * * * * * * * * * * * * * //

dimensions      [1 -1 -2 0 0 0 0];

internalField   nonuniform List<scalar> 
18432
(
1
1
1
1
1
1
1
1
1
1
1
1
1
1
1
1
1
1
1
1
1
1
1
1
1
1
1
1
1
1
1
1
1
1
1
1
1
1
1
1
1
1
1
1
1
1
1
1
1
1
1
1
1
1
1
1
1
1
1
1
1
1
1
1
1
1
1
1
1
1
1
1
1
1
1
1
1
1
1
1
1
1
1
1
1
1
1
1
1
1
1
1
1
1
1
1
1
1
1
1
1
1
1
1
1
1
1
1
1
1
1
1
1
1
1
1
1
1
1
1
1
1
1
1
1
1
1
1
1
1
1
1
1
1
1
1
1
1
1
1
1
1
1
1
1
1
1
1
1
1
1
1
1
1
1
1
1
1
1
1
1
1
1
1
1
1
1
1
1
1
1
1
1
1
1
1
1
1
1
1
1
1
1
1
1
1
1
1
1
1
1
1
1
1
1
1
1
1
1
1
1
1
1
1
1
1
1
1
1
1
1
1
1
1
1
1
1
1
1
1
1
1
1
1
1
1
1
1
1
1
1
1
1
1
1
1
1
1
1
1
1
1
1
1
1
1
1
1
1
1
1
1
1
1
1
1
1
1
1
1
1
1
1
1
1
1
1
1
1
1
1
1
1
1
1
1
1
1
1
1
1
1
1
1
1
1
1
1
1
1
1
1
1
1
1
1
1
1
1
1
1
1
1
1
1
1
1
1
1
1
1
1
1
1
1
1
1
1
1
1
1
1
1
1
1
1
1
1
1
1
1
1
1
1
1
1
1
1
1
1
1
1
1
1
1
1
1
1
1
1
1
1
1
1
1
1
1
1
1
1
1
1
1
1
1
1
1
1
1
1
1
1
1
1
1
1
1
1
1
1
1
1
1
1
1
1
1
1
1
1
1
1
1
1
1
1
1
1
1
1
1
1
1
1
1
1
1
1
1
1
1
1
1
1
1
1
1
1
1
1
1
1
1
1
1
1
1
1
1
1
1
1
1
1
1
1
1
1
1
1
1
1
1
1
1
1
1
1
1
1
1
1
1
1
1
1
1
1
1
1
1
1
1
1
1
1
1
1
1
1
1
1
1
1
1
1
1
1
1
1
1
1
1
1
1
1
1
1
1
1
1
1
1
1
1
1
1
1
1
1
1
1
1
1
1
1
1
1
1
1
1
1
1
1
1
1
1
1
1
1
1
1
1
1
1
1
1
1
1
1
1
1
1
1
1
1
1
1
1
1
1
1
1
1
1
1
1
1
1
1
1
1
1
1
1
1
1
1
1
1
1
1
1
1
1
1
1
1
1
1
1
1
1
1
1
1
1
1
1
1
1
1
1
1
1
1
1
1
1
1
1
1
1
1
1
1
1
1
1
1
1
1
1
1
1
1
1
1
1
1
1
1
1
1
1
1
1
1
1
1
1
1
1
1
1
1
1
1
1
1
1
1
1
1
1
1
1
1
1
1
1
1
1
1
1
1
1
1
1
1
1
1
1
1
1
1
1
1
1
1
1
1
1
1
1
1
1
1
1
1
1
1
1
1
1
1
1
1
1
1
1
1
1
1
1
1
1
1
1
1
1
1
1
1
1
1
1
1
1
1
1
1
1
1
1
1
1
1
1
1
1
1
1
1
1
1
1
1
1
1
1
1
1
1
1
1
1
1
1
1
1
1
1
1
1
1
1
1
1
1
1
1
1
1
1
1
1
1
1
1
1
1
1
1
1
1
1
1
1
1
1
1
1
1
1
1
1
1
1
1
1
1
1
1
1
1
1
1
1
1
1
1
1
1
1
1
1
1
1
1
1
1
1
1
1
1
1
1
1
1
1
1
1
1
1
1
1
1
1
1
1
1
1
1
1
1
1
1
1
1
1
1
1
1
1
1
1
1
1
1
1
1
1
1
1
1
1
1
1
1
1
1
1
1
1
1
1
1
1
1
1
1
1
1
1
1
1
1
1
1
1
1
1
1
1
1
1
1
1
1
1
1
1
1
1
1
1
1
1
1
1
1
1
1
1
1
1
1
1
1
1
1
1
1
1
1
1
1
1
1
1
1
1
1
1
1
1
1
1
1
1
1
1
1
1
1
1
1
1
1
1
1
1
1
1
1
1
1
1
1
1
1
1
1
1
1
1
1
1
1
1
1
1
1
1
1
1
1
1
1
1
1
1
1
1
1
1
1
1
1
1
1
1
1
1
1
1
1
1
1
1
1
1
1
1
1
1
1
1
1
1
1
1
1
1
1
1
1
1
1
1
1
1
1
1
1
1
1
1
1
1
1
1
1
1
1
1
1
1
1
1
1
1
1
1
1
1
1
1
1
1
1
1
1
1
1
1
1
1
1
1
1
1
1
1
1
1
1
1
1
1
1
1
1
1
1
1
1
1
1
1
1
1
1
1
1
1
1
1
1
1
1
1
1
1
1
1
1
1
1
1
1
1
1
1
1
1
1
1
1
1
1
1
1
1
1
1
1
1
1
1
1
1
1
1
1
1
1
1
1
1
1
1
1
1
1
1
1
1
1
1
1
1
1
1
1
1
1
1
1
1
1
1
1
1
1
1
1
1
1
1
1
1
1
1
1
1
1
1
1
1
1
1
1
1
1
1
1
1
1
1
1
1
1
1
1
1
1
1
1
1
1
1
1
1
1
1
1
1
1
1
1
1
1
1
1
1
1
1
1
1
1
1
1
1
1
1
1
1
1
1
1
1
1
1
1
1
1
1
1
1
1
1
1
1
1
1
1
1
1
1
1
1
1
1
1
1
1
1
1
1
1
1
1
1
1
1
1
1
1
1
1
1
1
1
1
1
1
1
1
1
1
1
1
1
1
1
1
1
1
1
1
1
1
1
1
1
1
1
1
1
1
1
1
1
1
1
1
1
1
1
1
1
1
1
1
1
1
1
1
1
1
1
1
1
1
1
1
1
1
1
1
1
1
1
1
1
1
1
1
1
1
1
1
1
1
1
1
1
1
1
1
1
1
1
1
1
1
1
1
1
1
1
1
1
1
1
1
1
1
1
1
1
1
1
1
1
1
1
1
1
1
1
1
1
1
1
1
1
1
1
1
1
1
1
1
1
1
1
1
1
1
1
1
1
1
1
1
1
1
1
1
1
1
1
1
1
1
1
1
1
1
1
1
1
1
1
1
1
1
1
1
1
1
1
1
1
1
1
1
1
1
1
1
1
1
1
1
1
1
1
1
1
1
1
1
1
1
1
1
1
1
1
1
1
1
1
1
1
1
1
1
1
1
1
1
1
1
1
1
1
1
1
1
1
1
1
1
1
1
1
1
1
1
1
1
1
1
1
1
1
1
1
1
1
1
1
1
1
1
1
1
1
1
1
1
1
1
1
1
1
1
1
1
1
1
1
1
1
1
1
1
1
1
1
1
1
1
1
1
1
1
1
1
1
1
1
1
1
1
1
1
1
1
1
1
1
1
1
1
1
1
1
1
1
1
1
1
1
1
1
1
1
1
1
1
1
1
1
1
1
1
1
1
1
1
1
1
1
1
1
1
1
1
1
1
1
1
1
1
1
1
1
1
1
1
1
1
1
1
1
1
1
1
1
1
1
1
1
1
1
1
1
1
1
1
1
1
1
1
1
1
1
1
1
1
1
1
1
1
1
1
1
1
1
1
1
1
1
1
1
1
1
1
1
1
1
1
1
1
1
1
1
1
1
1
1
1
1
1
1
1
1
1
1
1
1
1
1
1
1
1
1
1
1
1
1
1
1
1
1
1
1
1
1
1
1
1
1
1
1
1
1
1
1
1
1
1
1
1
1
1
1
1
1
1
1
1
1
1
1
1
1
1
1
1
1
1
1
1
1
1
1
1
1
1
1
1
1
1
1
1
1
1
1
1
1
1
1
1
1
1
1
1
1
1
1
1
1
1
1
1
1
1
1
1
1
1
1
1
1
1
1
1
1
1
1
1
1
1
1
1
1
1
1
1
1
1
1
1
1
1
1
1
1
1
1
1
1
1
1
1
1
1
1
1
1
1
1
1
1
1
1
1
1
1
1
1
1
1
1
1
1
1
1
1
1
1
1
1
1
1
1
1
1
1
1
1
1
1
1
1
1
1
1
1
1
1
1
1
1
1
1
1
1
1
1
1
1
1
1
1
1
1
1
1
1
1
1
1
1
1
1
1
1
1
1
1
1
1
1
1
1
1
1
1
1
1
1
1
1
1
1
1
1
1
1
1
1
1
1
1
1
1
1
1
1
1
1
1
1
1
1
1
1
1
1
1
1
1
1
1
1
1
1
1
1
1
1
1
1
1
1
1
1
1
1
1
1
1
1
1
1
1
1
1
1
1
1
1
1
1
1
1
1
1
1
1
1
1
1
1
1
1
1
1
1
1
1
1
1
1
1
1
1
1
1
1
1
1
1
1
1
1
1
1
1
1
1
1
1
1
1
1
1
1
1
1
1
1
1
1
1
1
1
1
1
1
1
1
1
1
1
1
1
1
1
1
1
1
1
1
1
1
1
1
1
1
1
1
1
1
1
1
1
1
1
1
1
1
1
1
1
1
1
1
1
1
1
1
1
1
1
1
1
1
1
1
1
1
1
1
1
1
1
1
1
1
1
1
1
1
1
1
1
1
1
1
1
1
1
1
1
1
1
1
1
1
1
1
1
1
1
1
1
1
1
1
1
1
1
1
1
1
1
1
1
1
1
1
1
1
1
1
1
1
1
1
1
1
1
1
1
1
1
1
1
1
1
1
1
1
1
1
1
1
1
1
1
1
1
1
1
1
1
1
1
1
1
1
1
1
1
1
1
1
1
1
1
1
1
1
1
1
1
1
1
1
1
1
1
1
1
1
1
1
1
1
1
1
1
1
1
1
1
1
1
1
1
1
1
1
1
1
1
1
1
1
1
1
1
1
1
1
1
1
1
1
1
1
1
1
1
1
1
1
1
1
1
1
1
1
1
1
1
1
1
1
1
1
1
1
1
1
1
1
1
1
1
1
1
1
1
1
1
1
1
1
1
1
1
1
1
1
1
1
1
1
1
1
1
1
1
1
1
1
1
1
1
1
1
1
1
1
1
1
1
1
1
1
1
1
1
1
1
1
1
1
1
1
1
1
1
1
1
1
1
1
1
1
1
1
1
1
1
1
1
1
1
1
1
1
1
1
1
1
1
1
1
1
1
1
1
1
1
1
1
1
1
1
1
1
1
1
1
1
1
1
1
1
1
1
1
1
1
1
1
1
1
1
1
1
1
1
1
1
1
1
1
1
1
1
1
1
1
1
1
1
1
1
1
1
1
1
1
1
1
1
1
1
1
1
1
1
1
1
1
1
1
1
1
1
1
1
1
1
1
1
1
1
1
1
1
1
1
1
1
1
1
1
1
1
1
1
1
1
1
1
1
1
1
1
1
1
1
1
1
1
1
1
1
1
1
1
1
1
1
1
1
1
1
1
1
1
1
1
1
1
1
1
1
1
1
1
1
1
1
1
1
1
1
1
1
1
1
1
1
1
1
1
1
1
1
1
1
1
1
1
1
1
1
1
1
1
1
1
1
1
1
1
1
1
1
1
1
1
1
1
1
1
1
1
1
1
1
1
1
1
1
1
1
1
1
1
1
1
1
1
1
1
1
1
1
1
1
1
1
1
1
1
1
1
1
1
1
1
1
1
1
1
1
1
1
1
1
1
1
1
1
1
1
1
1
1
1
1
1
1
1
1
1
1
1
1
1
1
1
1
1
1
1
1
1
1
1
1
1
1
1
1
1
1
1
1
1
1
1
1
1
1
1
1
1
1
1
1
1
1
1
1
1
1
1
1
1
1
1
1
1
1
1
1
1
1
1
1
1
1
1
1
1
1
1
1
1
1
1
1
1
1
1
1
1
1
1
1
1
1
1
1
1
1
1
1
1
1
1
1
1
1
1
1
1
1
1
1
1
1
1
1
1
1
1
1
1
1
1
1
1
1
1
1
1
1
1
1
1
1
1
1
1
1
1
1
1
1
1
1
1
1
1
1
1
1
1
1
1
1
1
1
1
1
1
1
1
1
1
1
1
1
1
1
1
1
1
1
1
1
1
1
1
1
1
1
1
1
1
1
1
1
1
1
1
1
1
1
1
1
1
1
1
1
1
1
1
1
1
1
1
1
1
1
1
1
1
1
1
1
1
1
1
1
1
1
1
1
1
1
1
1
1
1
1
1
1
1
1
1
1
1
1
1
1
1
1
1
1
1
1
1
1
1
1
1
1
1
1
1
1
1
1
1
1
1
1
1
1
1
1
1
1
1
1
1
1
1
1
1
1
1
1
1
1
1
1
1
1
1
1
1
1
1
1
1
1
1
1
1
1
1
1
1
1
1
1
1
1
1
1
1
1
1
1
1
1
1
1
1
1
1
1
1
1
1
1
1
1
1
1
1
1
1
1
1
1
1
1
1
1
1
1
1
1
1
1
1
1
1
1
1
1
1
1
1
1
1
1
1
1
1
1
1
1
1
1
1
1
1
1
1
1
1
1
1
1
1
1
1
1
1
1
1
1
1
1
1
1
1
1
1
1
1
1
1
1
1
1
1
1
1
1
1
1
1
1
1
1
1
1
1
1
1
1
1
1
1
1
1
1
1
1
1
1
1
1
1
1
1
1
1
1
1
1
1
1
1
1
1
1
1
1
1
1
1
1
1
1
1
1
1
1
1
1
1
1
1
1
1
1
1
1
1
1
1
1
1
1
1
1
1
1
1
1
1
1
1
1
1
1
1
1
1
1
1
1
1
1
1
1
1
1
1
1
1
1
1
1
1
1
1
1
1
1
1
1
1
1
1
1
1
1
1
1
1
1
1
1
1
1
1
1
1
1
1
1
1
1
1
1
1
1
1
1
1
1
1
1
1
1
1
1
1
1
1
1
1
1
1
1
1
1
1
1
1
1
1
1
1
1
1
1
1
1
1
1
1
1
1
1
1
1
1
1.29039
1.76217
2.29332
2.89369
3.6072
4.12813
4.6833
5.13339
5.33514
5.22937
4.91324
4.4934
4.10028
3.79214
3.65631
3.57331
3.54965
3.56453
3.60338
3.64841
3.68623
3.70454
3.71956
3.73309
3.74643
3.76077
3.77258
3.77991
3.78769
3.79079
3.78601
3.77364
3.75178
3.71909
3.67845
3.63532
3.59507
3.56164
3.53577
3.51842
3.50451
3.49173
3.4797
3.46632
3.44758
3.42913
3.42202
3.41648
1.00139
1.01574
1.08119
1.19423
1.41314
1.76733
2.21327
2.75325
3.32686
3.71512
3.88413
4.10109
4.04899
3.94818
3.84296
3.79212
3.73339
3.68322
3.67648
3.67466
3.68887
3.70456
3.71951
3.73102
3.73952
3.74929
3.75719
3.76048
3.76435
3.76879
3.76574
3.75392
3.73378
3.70463
3.66634
3.62344
3.58354
3.55111
3.52761
3.51244
3.49934
3.48655
3.47288
3.45654
3.43586
3.42197
3.41577
3.41072
1
0.999975
1.00007
1.00002
1.00132
1.01338
1.06006
1.22569
1.59596
2.37939
3.284
3.96115
4.29932
4.31278
4.24017
4.12128
3.98846
3.79392
3.69114
3.68687
3.69928
3.71389
3.73064
3.73582
3.73431
3.73983
3.74801
3.75056
3.75048
3.74969
3.74569
3.73388
3.71431
3.68692
3.65135
3.61215
3.57571
3.54628
3.52626
3.51191
3.49885
3.48593
3.47209
3.45592
3.43632
3.42311
3.41593
3.41127
1
1
1
1
0.999998
1
0.999968
1.00013
1.00508
1.07526
1.43359
2.12727
3.18909
3.72213
4.06995
4.03451
3.95466
3.92723
3.85379
3.8103
3.77912
3.7483
3.73077
3.71644
3.71753
3.72877
3.74945
3.7615
3.76245
3.75855
3.7497
3.73329
3.70904
3.67704
3.63806
3.59831
3.5635
3.53791
3.52054
3.50713
3.4944
3.48185
3.46715
3.45
3.4358
3.42626
3.4175
3.41231
1
1
1
1
1
1
0.999999
0.999999
1
0.999919
1.00234
1.03675
1.31474
1.94627
2.92023
3.64782
3.87829
4.0307
4.00499
3.93488
3.81136
3.72419
3.70226
3.68882
3.68816
3.69694
3.72057
3.7483
3.76599
3.7682
3.75839
3.73777
3.7093
3.67414
3.63492
3.59801
3.56713
3.54082
3.52001
3.5039
3.48957
3.47496
3.45889
3.4444
3.4336
3.42557
3.41695
3.41481
1
1
1
1
1
1
1
1
1
0.999997
0.999997
0.999951
1.001
1.02811
1.20526
1.85394
2.65478
3.55598
3.82337
3.84378
3.84372
3.77805
3.72933
3.7074
3.695
3.69438
3.70401
3.7192
3.73495
3.74043
3.73314
3.7174
3.692
3.65926
3.62384
3.59139
3.56395
3.53788
3.51536
3.49681
3.4782
3.46021
3.44861
3.43882
3.42942
3.42309
3.41667
3.4159
1
1
1
1
1
1
1
1
1
1
1
0.999997
0.999998
0.999969
1.00039
1.02489
1.17602
1.67577
2.51598
3.26194
3.78715
3.8543
3.82037
3.79774
3.76361
3.7289
3.7188
3.71625
3.71159
3.7032
3.70014
3.68967
3.66817
3.63867
3.60786
3.5808
3.55481
3.53076
3.50945
3.48892
3.46853
3.45593
3.44696
3.43596
3.42482
3.4154
3.40904
3.40405
1
1
1
1
1
1
1
1
1
1
1
1
1
0.999998
0.999998
0.999974
1.00041
1.01259
1.15972
1.5733
2.44294
3.09505
3.5811
3.79039
3.80829
3.78261
3.76718
3.76076
3.74604
3.72052
3.69105
3.66698
3.64588
3.62024
3.59306
3.5689
3.54532
3.52218
3.50208
3.48673
3.47536
3.46323
3.44626
3.43164
3.41887
3.40764
3.40134
3.39408
1
1
1
1
1
1
1
1
1
1
1
1
1
1
1
0.999998
0.999998
0.999979
1.00049
1.01028
1.1291
1.5663
2.29456
3.08561
3.41085
3.65041
3.75568
3.77361
3.76591
3.72546
3.69696
3.67431
3.6467
3.61546
3.59197
3.5698
3.54733
3.52571
3.50587
3.48848
3.47545
3.46386
3.45273
3.44085
3.42836
3.41719
3.40561
3.39081
1
1
1
1
1
1
1
1
1
1
1
1
1
1
1
1
1
0.999998
0.999998
0.999985
1.00037
1.01295
1.10058
1.52029
2.1912
3.058
3.48401
3.61352
3.679
3.67004
3.66477
3.65681
3.62608
3.5871
3.56496
3.543
3.52241
3.50667
3.49348
3.47956
3.4648
3.45243
3.44072
3.42936
3.42021
3.41483
3.41058
3.40389
1
1
1
1
1
1
1
1
1
1
1
1
1
1
1
1
1
1
1
0.999998
0.999998
0.999988
1.00025
1.01211
1.10463
1.46544
2.23504
2.98816
3.52565
3.65511
3.65712
3.64974
3.62009
3.57613
3.54749
3.51994
3.49781
3.48674
3.47572
3.46197
3.44673
3.43288
3.41965
3.40747
3.3977
3.39176
3.38973
3.38667
1
1
1
1
1
1
1
1
1
1
1
1
1
1
1
1
1
1
1
1
1
0.999998
0.999999
0.999989
1.0004
1.00941
1.13189
1.4939
2.27638
2.96658
3.46399
3.63628
3.64389
3.60739
3.56828
3.54112
3.51767
3.49858
3.47854
3.4626
3.45133
3.43871
3.42477
3.41066
3.39552
3.38013
3.3698
3.36181
1
1
1
1
1
1
1
1
1
1
1
1
1
1
1
1
1
1
1
1
1
1
1
0.999998
0.999999
0.999989
1.00085
1.01225
1.13239
1.59
2.35659
3.02476
3.33752
3.50605
3.51501
3.51147
3.492
3.47755
3.46259
3.4501
3.44202
3.43691
3.43213
3.42465
3.41458
3.40075
3.38524
3.37021
1
1
1
1
1
1
1
1
1
1
1
1
1
1
1
1
1
1
1
1
1
1
1
1
1
0.999998
0.999999
0.999994
1.001
1.0231
1.1542
1.66035
2.37135
3.12112
3.29852
3.37347
3.40326
3.40063
3.41684
3.41597
3.40509
3.3987
3.40104
3.40394
3.40104
3.3968
3.39543
3.39215
1
1
1
1
1
1
1
1
1
1
1
1
1
1
1
1
1
1
1
1
1
1
1
1
1
1
1
0.999999
0.999997
1.00002
1.00138
1.03412
1.19855
1.71126
2.40794
3.03215
3.33913
3.34714
3.38041
3.37579
3.35779
3.35533
3.3617
3.36347
3.3613
3.36241
3.3692
3.37953
1
1
1
1
1
1
1
1
1
1
1
1
1
1
1
1
1
1
1
1
1
1
1
1
1
1
1
1
1
1
0.999998
1.00009
1.00273
1.03964
1.255
1.73946
2.39855
2.91348
3.26384
3.35344
3.35825
3.38803
3.37588
3.34242
3.32576
3.3217
3.33032
3.33721
1
1
1
1
1
1
1
1
1
1
1
1
1
1
1
1
1
1
1
1
1
1
1
1
1
1
1
1
1
1
1
1
0.999997
1.00014
1.00495
1.04403
1.27016
1.72953
2.37585
2.82953
3.17174
3.34026
3.36644
3.37062
3.37529
3.35647
3.32897
3.30762
1
1
1
1
1
1
1
1
1
1
1
1
1
1
1
1
1
1
1
1
1
1
1
1
1
1
1
1
1
1
1
1
0.999999
1
0.999998
1.00018
1.00639
1.0478
1.26161
1.73371
2.36974
2.81029
3.08259
3.27621
3.34461
3.35372
3.37421
3.37037
1
1
1
1
1
1
1
1
1
1
1
1
1
1
1
1
1
1
1
1
1
1
1
1
1
1
1
1
1
1
1
1
1
1
0.999999
1
1
1.00024
1.00674
1.05337
1.25021
1.72854
2.33801
2.81157
3.04724
3.18921
3.32133
3.36748
1
1
1
1
1
1
1
1
1
1
1
1
1
1
1
1
1
1
1
1
1
1
1
1
1
1
1
1
1
1
1
1
1
1
1
1
1
0.999999
1
1.00031
1.00642
1.05741
1.2481
1.71447
2.39632
2.77482
3.01882
3.24504
1
1
1
1
1
1
1
1
1
1
1
1
1
1
1
1
1
1
1
1
1
1
1
1
1
1
1
1
1
1
1
1
1
1
1
1
1
1
1
1
1
1.00039
1.00674
1.06106
1.27163
1.75196
2.31822
2.89924
1
1
1
1
1
1
1
1
1
1
1
1
1
1
1
1
1
1
1
1
1
1
1
1
1
1
1
1
1
1
1
1
1
1
1
1
1
1
1
1
1
1
1.00001
1.00052
1.0079
1.07242
1.28055
1.71795
1
1
1
1
1
1
1
1
1
1
1
1
1
1
1
1
1
1
1
1
1
1
1
1
1
1
1
1
1
1
1
1
1
1
1
1
1
1
1
1
1
1
1
0.999999
1.00001
1.00072
1.01022
1.04918
1
1
1
1
1
1
1
1
1
1
1
1
1
1
1
1
1
1
1
1
1
1
1
1
1
1
1
1
1
1
1
1
1
1
1
1
1
1
1
1
1
1
1
1
1
0.999999
1.00007
0.999439
1
1
1
1
1
1
1
1
1
1
1
1
1
1
1
1
1
1
1
1
1
1
1
1
1
1
1
1
1
1
1
1
1
1
1
1
1
1
1
1
1
1
1
1
1
1
1
0.999862
1
1
1
1
1
1
1
1
1
1
1
1
1
1
1
1
1
1
1
1
1
1
1
1
1
1
1
1
1
1
1
1
1
1
1
1
1
1
1
1
1
1
1
1
1
1
1
0.999994
1
1
1
1
1
1
1
1
1
1
1
1
1
1
1
1
1
1
1
1
1
1
1
1
1
1
1
1
1
1
1
1
1
1
1
1
1
1
1
1
1
1
1
1
1
1
1
1
1
1
1
1
1
1
1
1
1
1
1
1
1
1
1
1
1
1
1
1
1
1
1
1
1
1
1
1
1
1
1
1
1
1
1
1
1
1
1
1
1
1
1
1
1
1
1
1
1
1
1
1
1
1
1
1
1
1
1
1
1
1
1
1
1
1
1
1
1
1
1
1
1
1
1
1
1
1
1
1
1
1
1
1
1
1
1
1
1
1
1
1
1
1
1
1
1
1
1
1
1
1
1
1
1
1
1
1
1
1
1
1
1
1
1
1
1
1
1
1
1
1
1
1
1
1
1
1
1
1
1
1
1
1
1
1
1
1
1
1
1
1
1
1
1
1
1
1
1
1
1
1
1
1
1
1
1
1
1
1
1
1
1
1
1
1
1
1
1
1
1
1
1
1
1
1
1
1
1
1
1
1
1
1
1
1
1
1
1
1
1
1
1
1
1
1
1
1
1
1
1
1
1
1
1
1
1
1
1
1
1
1
1
1
1
1
1
1
1
1
1
1
1
1
1
1
1
1
1
1
1
1
1
1
1
1
1
1
1
1
1
1
1
1
1
1
1
1
1
1
1
1
1
1
1
1
1
1
1
1
1
1
1
1
1
1
1
1
1
1
1
1
1
1
1
1
1
1
1
1
1
1
1
1
1
1
1
1
1
1
1
1
1
1
1
1
1
1
1
1
1
1
1
1
1
1
1
1
1
1
1
1
1
1
1
1
1
1
1
1
1
1
1
1
1
1
1
1
1
1
1
1
1
1
1
1
1
1
1
1
1
1
1
1
1
1
1
1
1
1
1
1
1
1
1
1
1
1
1
1
1
1
1
1
1
1
1
1
1
1
1
1
1
1
1
1
1
1
1
1
1
1
1
1
1
1
1
1
1
1
1
1
1
1
1
1
1
1
1
1
1
1
1
1
1
1
1
1
1
1
1
1
1
1
1
1
1
1
1
1
1
1
1
1
1
1
1
1
1
1
1
1
1
1
1
1
1
1
1
1
1
1
1
1
1
1
1
1
1
1
1
1
1
1
1
1
1
1
1
1
1
1
1
1
1
1
1
1
1
1
1
1
1
1
1
1
1
1
1
1
1
1
1
1
1
1
1
1
1
1
1
1
1
1
1
1
1
1
1
1
1
1
1
1
1
1
1
1
1
1
1
1
1
1
1
1
1
1
1
1
1
1
1
1
1
1
1
1
1
1
1
1
1
1
1
1
1
1
1
1
1
1
1
1
1
1
1
1
1
1
1
1
1
1
1
1
1
1
1
1
1
1
1
1
1
1
1
1
1
1
1
1
1
1
1
0.999994
1
1
1
1
1
1
1
1
1
1
1
1
1
1
1
1
1
1
1
1
1
1
1
1
1
1
1
1
1
1
1
1
1
1
1
1
1
1
1
1
1
1
1
1
1
1
1
0.999862
1
1
1
1
1
1
1
1
1
1
1
1
1
1
1
1
1
1
1
1
1
1
1
1
1
1
1
1
1
1
1
1
1
1
1
1
1
1
1
1
1
1
1
1
1
0.999999
1.00007
0.999439
1
1
1
1
1
1
1
1
1
1
1
1
1
1
1
1
1
1
1
1
1
1
1
1
1
1
1
1
1
1
1
1
1
1
1
1
1
1
1
1
1
1
1
0.999999
1.00001
1.00072
1.01022
1.04918
1
1
1
1
1
1
1
1
1
1
1
1
1
1
1
1
1
1
1
1
1
1
1
1
1
1
1
1
1
1
1
1
1
1
1
1
1
1
1
1
1
1
1.00001
1.00052
1.0079
1.07242
1.28055
1.71795
1
1
1
1
1
1
1
1
1
1
1
1
1
1
1
1
1
1
1
1
1
1
1
1
1
1
1
1
1
1
1
1
1
1
1
1
1
1
1
1
1
1.00039
1.00674
1.06106
1.27163
1.75196
2.31822
2.89924
1
1
1
1
1
1
1
1
1
1
1
1
1
1
1
1
1
1
1
1
1
1
1
1
1
1
1
1
1
1
1
1
1
1
1
1
1
0.999999
1
1.00031
1.00642
1.05741
1.2481
1.71447
2.39632
2.77482
3.01882
3.24504
1
1
1
1
1
1
1
1
1
1
1
1
1
1
1
1
1
1
1
1
1
1
1
1
1
1
1
1
1
1
1
1
1
1
0.999999
1
1
1.00024
1.00674
1.05337
1.25021
1.72854
2.33801
2.81157
3.04724
3.18921
3.32133
3.36748
1
1
1
1
1
1
1
1
1
1
1
1
1
1
1
1
1
1
1
1
1
1
1
1
1
1
1
1
1
1
1
1
0.999999
1
0.999998
1.00018
1.00639
1.0478
1.26161
1.73371
2.36974
2.81029
3.08259
3.27621
3.34461
3.35372
3.37421
3.37037
1
1
1
1
1
1
1
1
1
1
1
1
1
1
1
1
1
1
1
1
1
1
1
1
1
1
1
1
1
1
1
1
0.999997
1.00014
1.00495
1.04403
1.27016
1.72953
2.37585
2.82953
3.17174
3.34026
3.36644
3.37062
3.37529
3.35647
3.32897
3.30762
1
1
1
1
1
1
1
1
1
1
1
1
1
1
1
1
1
1
1
1
1
1
1
1
1
1
1
1
1
1
0.999998
1.00009
1.00273
1.03964
1.255
1.73946
2.39855
2.91348
3.26384
3.35344
3.35825
3.38803
3.37588
3.34242
3.32576
3.3217
3.33032
3.33721
1
1
1
1
1
1
1
1
1
1
1
1
1
1
1
1
1
1
1
1
1
1
1
1
1
1
1
0.999999
0.999997
1.00002
1.00138
1.03412
1.19855
1.71126
2.40794
3.03215
3.33913
3.34714
3.38041
3.37579
3.35779
3.35533
3.3617
3.36347
3.3613
3.36241
3.3692
3.37953
1
1
1
1
1
1
1
1
1
1
1
1
1
1
1
1
1
1
1
1
1
1
1
1
1
0.999998
0.999999
0.999994
1.001
1.0231
1.1542
1.66035
2.37135
3.12112
3.29852
3.37347
3.40326
3.40063
3.41684
3.41597
3.40509
3.3987
3.40104
3.40394
3.40104
3.3968
3.39543
3.39215
1
1
1
1
1
1
1
1
1
1
1
1
1
1
1
1
1
1
1
1
1
1
1
0.999998
0.999999
0.999989
1.00085
1.01225
1.13239
1.59
2.35659
3.02476
3.33752
3.50605
3.51501
3.51147
3.492
3.47755
3.46259
3.4501
3.44202
3.43691
3.43213
3.42465
3.41458
3.40075
3.38524
3.37021
1
1
1
1
1
1
1
1
1
1
1
1
1
1
1
1
1
1
1
1
1
0.999998
0.999999
0.999989
1.0004
1.00941
1.13189
1.4939
2.27638
2.96658
3.46399
3.63628
3.64389
3.60739
3.56828
3.54112
3.51767
3.49858
3.47854
3.4626
3.45133
3.43871
3.42477
3.41066
3.39552
3.38013
3.3698
3.36181
1
1
1
1
1
1
1
1
1
1
1
1
1
1
1
1
1
1
1
0.999998
0.999998
0.999988
1.00025
1.01211
1.10463
1.46544
2.23504
2.98816
3.52565
3.65511
3.65712
3.64974
3.62009
3.57613
3.54749
3.51994
3.49781
3.48674
3.47572
3.46197
3.44673
3.43288
3.41965
3.40747
3.3977
3.39176
3.38973
3.38667
1
1
1
1
1
1
1
1
1
1
1
1
1
1
1
1
1
0.999998
0.999998
0.999985
1.00037
1.01295
1.10058
1.52029
2.1912
3.058
3.48401
3.61352
3.679
3.67004
3.66477
3.65681
3.62608
3.5871
3.56496
3.543
3.52241
3.50667
3.49348
3.47956
3.46481
3.45244
3.44072
3.42936
3.42021
3.41483
3.41058
3.40389
1
1
1
1
1
1
1
1
1
1
1
1
1
1
1
0.999998
0.999998
0.999979
1.00049
1.01028
1.1291
1.5663
2.29456
3.08561
3.41085
3.65041
3.75568
3.77361
3.76591
3.72546
3.69696
3.67431
3.6467
3.61546
3.59197
3.5698
3.54733
3.52571
3.50587
3.48848
3.47545
3.46386
3.45272
3.44085
3.42836
3.41719
3.40561
3.39081
1
1
1
1
1
1
1
1
1
1
1
1
1
0.999998
0.999998
0.999974
1.00041
1.01259
1.15972
1.5733
2.44294
3.09505
3.5811
3.79039
3.80829
3.78261
3.76718
3.76076
3.74604
3.72052
3.69105
3.66698
3.64588
3.62024
3.59306
3.5689
3.54532
3.52218
3.50208
3.48673
3.47536
3.46323
3.44626
3.43164
3.41886
3.40764
3.40134
3.39408
1
1
1
1
1
1
1
1
1
1
1
0.999997
0.999998
0.999969
1.00039
1.02489
1.17602
1.67577
2.51598
3.26194
3.78715
3.8543
3.82038
3.79774
3.76361
3.7289
3.7188
3.71625
3.71159
3.7032
3.70014
3.68967
3.66818
3.63867
3.60786
3.5808
3.55481
3.53076
3.50945
3.48892
3.46853
3.45593
3.44696
3.43596
3.42482
3.4154
3.40904
3.40405
1
1
1
1
1
1
1
1
1
0.999997
0.999997
0.999951
1.001
1.02811
1.20526
1.85394
2.65478
3.55598
3.82338
3.84378
3.84372
3.77805
3.72933
3.7074
3.695
3.69438
3.70401
3.7192
3.73494
3.74043
3.73314
3.7174
3.692
3.65926
3.62384
3.59139
3.56395
3.53788
3.51536
3.49681
3.4782
3.46021
3.44861
3.43882
3.42942
3.42309
3.41667
3.4159
1
1
1
1
1
1
0.999999
0.999999
1
0.999919
1.00234
1.03675
1.31474
1.94627
2.92022
3.64782
3.87829
4.03069
4.00499
3.93488
3.81136
3.72419
3.70226
3.68882
3.68816
3.69694
3.72057
3.7483
3.76598
3.7682
3.75839
3.73777
3.7093
3.67414
3.63492
3.59801
3.56713
3.54082
3.52001
3.5039
3.48957
3.47496
3.45889
3.4444
3.4336
3.42557
3.41695
3.41481
1
1
1
1
0.999998
1
0.999968
1.00013
1.00508
1.07526
1.43359
2.12727
3.1891
3.72213
4.06995
4.03451
3.95466
3.92723
3.85379
3.8103
3.77912
3.7483
3.73077
3.71644
3.71753
3.72877
3.74945
3.7615
3.76245
3.75855
3.7497
3.73329
3.70904
3.67704
3.63806
3.59831
3.5635
3.53791
3.52054
3.50713
3.4944
3.48185
3.46715
3.45
3.4358
3.42626
3.4175
3.41231
1
0.999975
1.00007
1.00002
1.00132
1.01338
1.06006
1.22569
1.59596
2.37939
3.284
3.96115
4.29932
4.31278
4.24017
4.12128
3.98846
3.79392
3.69114
3.68687
3.69928
3.71389
3.73065
3.73582
3.73431
3.73983
3.74801
3.75056
3.75048
3.74969
3.74569
3.73388
3.71431
3.68692
3.65135
3.61215
3.57571
3.54628
3.52626
3.51191
3.49885
3.48593
3.47209
3.45592
3.43632
3.42311
3.41593
3.41127
1.00139
1.01574
1.08119
1.19423
1.41314
1.76733
2.21327
2.75325
3.32686
3.71512
3.88413
4.10109
4.04899
3.94818
3.84296
3.79212
3.7334
3.68322
3.67648
3.67466
3.68887
3.70456
3.71951
3.73102
3.73952
3.74929
3.75719
3.76048
3.76435
3.76879
3.76574
3.75392
3.73378
3.70463
3.66634
3.62344
3.58354
3.55111
3.52761
3.51243
3.49934
3.48655
3.47288
3.45654
3.43586
3.42197
3.41577
3.41072
1.29039
1.76217
2.29332
2.89369
3.6072
4.12813
4.6833
5.13339
5.33514
5.22937
4.91324
4.4934
4.10028
3.79214
3.65631
3.57331
3.54965
3.56453
3.60338
3.64841
3.68623
3.70454
3.71956
3.73309
3.74643
3.76077
3.77258
3.77991
3.78769
3.79079
3.78601
3.77364
3.75178
3.7191
3.67845
3.63532
3.59507
3.56164
3.53577
3.51842
3.50451
3.49173
3.4797
3.46632
3.44758
3.42913
3.42202
3.41648
2.4247
1.5519
0.958082
0.736332
0.646302
0.543372
0.518593
0.547987
0.612208
0.660225
0.699737
0.772566
0.850478
0.863144
0.848487
0.835329
0.842153
0.846609
0.84615
0.862236
0.880256
0.88026
0.870694
0.845796
0.826077
0.823013
0.822451
0.824157
0.822891
0.820919
0.817569
0.810467
0.80875
0.808709
0.809891
0.810922
0.810235
0.808592
0.807557
0.807038
0.807318
0.811127
0.814878
0.814613
0.812696
0.80911
0.807454
0.807841
0.809531
0.814435
0.820867
0.822001
0.821252
0.818606
0.817528
0.817339
0.818002
0.821079
0.81988
0.814678
0.810042
0.80939
0.811155
0.817104
0.830939
0.858432
0.907386
0.969854
0.997076
1.00197
1.00508
1.01164
1.01645
1.01795
1.01623
1.02242
1.03139
1.03476
1.03503
1.03719
1.04045
1.04322
1.04514
1.04662
1.04818
1.05102
1.05501
1.05871
1.06051
1.06021
1.05917
1.06035
1.06827
1.07523
1.07365
1.07255
1.07034
1.06632
1.06474
1.06607
1.06814
1.07045
1.07405
1.07519
1.07515
1.07485
1.07312
1.06606
1.05257
1.04501
1.04442
1.04455
1.04513
1.04741
1.05385
1.06108
1.06288
1.06316
1.06341
1.06363
1.06367
1.06244
1.05615
1.03815
1.01213
1.00083
1
1
1
1
1
1
1
1
1
1
1
1
1
1
1
1
1
1
1
1
1
1
1
1
1
1
1
1
1
1
1
1
1
1
1
1
1
1
1
1
1
1
1
1
1
1
1
1
1
1
1
1
1
1
1
1
1
1
1
1
1
1
1
1
1
1
3.06155
2.54638
1.98853
1.52244
1.33816
1.16878
0.954448
0.886676
0.851423
0.802724
0.758906
0.760372
0.773508
0.764794
0.756092
0.758656
0.775709
0.796334
0.807063
0.822033
0.837634
0.838602
0.831979
0.817271
0.813338
0.814665
0.820134
0.827416
0.826484
0.822919
0.817374
0.812484
0.811877
0.81274
0.815875
0.816888
0.815506
0.812199
0.809887
0.808885
0.808326
0.809985
0.813066
0.81301
0.812087
0.810348
0.80759
0.806727
0.807051
0.810123
0.815311
0.817823
0.818182
0.817831
0.815911
0.81466
0.814214
0.815313
0.814522
0.811039
0.809528
0.810027
0.812343
0.817633
0.830301
0.856828
0.904012
0.963661
0.996111
1.00458
1.00908
1.01509
1.01917
1.02094
1.0199
1.02439
1.03282
1.0363
1.0371
1.03912
1.04092
1.04274
1.04452
1.04611
1.04814
1.04952
1.05087
1.05227
1.05362
1.05437
1.05423
1.05534
1.06324
1.07226
1.07234
1.07148
1.06964
1.06599
1.06439
1.06573
1.0678
1.0699
1.07329
1.07476
1.07475
1.07429
1.07227
1.0652
1.05226
1.04536
1.04489
1.04505
1.04573
1.04823
1.05478
1.06177
1.06339
1.06357
1.06373
1.06386
1.06387
1.06267
1.05674
1.03907
1.01237
1.0008
1
1
1
1
1
1
1
1
1
1
1
1
1
1
1
1
1
1
1
1
1
1
1
1
1
1
1
1
1
1
1
1
1
1
1
1
1
1
1
1
1
1
1
1
1
1
1
1
1
1
1
1
1
1
1
1
1
1
1
1
1
1
1
1
1
1
3.32388
3.05003
2.65009
2.18121
1.79822
1.53757
1.27213
1.1012
1.02011
0.913503
0.787699
0.772549
0.779211
0.75911
0.746563
0.756239
0.774127
0.787427
0.788839
0.790919
0.795852
0.801674
0.80047
0.796994
0.797494
0.807593
0.818934
0.821532
0.821817
0.822841
0.8207
0.816604
0.81633
0.818943
0.822932
0.822868
0.819803
0.814606
0.810978
0.809762
0.808818
0.808587
0.809195
0.809742
0.810622
0.81114
0.811139
0.811032
0.810876
0.810755
0.811026
0.81276
0.815336
0.815627
0.815329
0.814832
0.813133
0.809627
0.8074
0.806382
0.806243
0.807463
0.812416
0.819973
0.831172
0.854396
0.896893
0.951302
0.99315
1.00882
1.01365
1.01709
1.02056
1.02262
1.02093
1.0225
1.02769
1.03069
1.03219
1.0343
1.0368
1.03972
1.04264
1.04487
1.04784
1.05152
1.05439
1.05657
1.05871
1.0602
1.0601
1.05983
1.0656
1.0736
1.07397
1.07305
1.07103
1.06749
1.06572
1.06703
1.06912
1.07106
1.07381
1.07473
1.07473
1.07426
1.07161
1.06356
1.05102
1.04555
1.0453
1.04549
1.04624
1.0489
1.05566
1.06227
1.06361
1.06379
1.06396
1.06408
1.06393
1.06216
1.05537
1.03688
1.0109
1.00063
1
1
1
1
1
1
1
1
1
1
1
1
1
1
1
1
1
1
1
1
1
1
1
1
1
1
1
1
1
1
1
1
1
1
1
1
1
1
1
1
1
1
1
1
1
1
1
1
1
1
1
1
1
1
1
1
1
1
1
1
1
1
1
1
1
1
3.39135
3.28847
3.05532
2.68999
2.29207
1.99686
1.6863
1.40608
1.30116
1.19701
1.00506
0.931788
0.9103
0.858447
0.800738
0.798314
0.800414
0.78624
0.761809
0.750679
0.751686
0.753495
0.752611
0.757977
0.77039
0.795485
0.80892
0.808954
0.810808
0.814643
0.813952
0.810678
0.812566
0.817618
0.821687
0.821123
0.819237
0.818164
0.817752
0.818436
0.818978
0.817155
0.814201
0.812305
0.811505
0.811819
0.813335
0.814323
0.813992
0.813187
0.81282
0.812647
0.812557
0.812713
0.814165
0.815037
0.814396
0.81101
0.808421
0.807818
0.807747
0.808247
0.811991
0.82148
0.83558
0.859172
0.89604
0.947286
0.998774
1.01169
1.01501
1.01878
1.02233
1.02107
1.02054
1.02361
1.02775
1.03233
1.03573
1.03691
1.03883
1.04188
1.04345
1.04572
1.04837
1.05135
1.05371
1.05583
1.05776
1.05858
1.05805
1.05914
1.0678
1.0745
1.07393
1.07268
1.07029
1.06721
1.06594
1.06749
1.06974
1.0722
1.07482
1.07528
1.07531
1.0747
1.07134
1.06189
1.04962
1.04542
1.0453
1.04551
1.04644
1.04971
1.05718
1.06317
1.06413
1.06433
1.06452
1.06463
1.06446
1.06261
1.05489
1.03432
1.00877
1.0004
1
1
1
1
1
1
1
1
1
1
1
1
1
1
1
1
1
1
1
1
1
1
1
1
1
1
1
1
1
1
1
1
1
1
1
1
1
1
1
1
1
1
1
1
1
1
1
1
1
1
1
1
1
1
1
1
1
1
1
1
1
1
1
1
1
1
3.40273
3.37263
3.271
3.04939
2.69804
2.40052
2.11403
1.79948
1.59996
1.43911
1.22579
1.10822
1.06424
1.00021
0.872875
0.834324
0.833418
0.810515
0.770238
0.752877
0.754304
0.754112
0.748508
0.74625
0.752001
0.775106
0.780108
0.778769
0.780775
0.793105
0.80147
0.80176
0.804327
0.811541
0.816183
0.815578
0.814028
0.814158
0.817862
0.822309
0.821941
0.819012
0.815691
0.813902
0.813448
0.814303
0.818189
0.820417
0.819626
0.817516
0.81491
0.813244
0.812376
0.812023
0.812913
0.814162
0.813868
0.812194
0.809465
0.808616
0.808731
0.808862
0.811252
0.820769
0.83696
0.860742
0.892774
0.941265
0.997821
1.01317
1.01833
1.02128
1.01939
1.01724
1.01964
1.02393
1.02752
1.0305
1.03322
1.03497
1.03802
1.0441
1.04798
1.0468
1.04787
1.05132
1.0548
1.05747
1.05896
1.05799
1.05582
1.06027
1.0712
1.07414
1.07331
1.0715
1.06873
1.06629
1.06612
1.06815
1.07055
1.07371
1.07575
1.07605
1.07614
1.07536
1.07085
1.05974
1.04821
1.04532
1.04527
1.04546
1.04649
1.05039
1.05863
1.06412
1.06487
1.06511
1.06534
1.06549
1.0653
1.06298
1.05362
1.0307
1.00642
1.00021
1
1
1
1
1
1
1
1
1
1
1
1
1
1
1
1
1
1
1
1
1
1
1
1
1
1
1
1
1
1
1
1
1
1
1
1
1
1
1
1
1
1
1
1
1
1
1
1
1
1
1
1
1
1
1
1
1
1
1
1
1
1
1
1
1
1
3.41172
3.39238
3.35425
3.24496
3.01815
2.76324
2.47557
2.1438
1.92854
1.76301
1.52116
1.3195
1.25959
1.19108
1.06587
0.987776
0.966731
0.926349
0.84672
0.804251
0.807024
0.7977
0.768611
0.755198
0.757461
0.755989
0.743972
0.740972
0.742797
0.753807
0.771519
0.784231
0.793201
0.801637
0.807764
0.807804
0.806938
0.807897
0.81375
0.819038
0.818839
0.816529
0.813148
0.812324
0.813076
0.817514
0.823728
0.824746
0.823324
0.819624
0.817016
0.81611
0.815154
0.815511
0.816217
0.815186
0.814728
0.813719
0.810888
0.80914
0.808942
0.809
0.810896
0.819935
0.837
0.858585
0.884949
0.929959
0.994271
1.01467
1.01964
1.01816
1.01478
1.01562
1.01859
1.023
1.02743
1.0316
1.03434
1.03675
1.04107
1.04698
1.0477
1.04581
1.04867
1.05377
1.05783
1.06042
1.0613
1.05916
1.05771
1.06478
1.07161
1.07223
1.07143
1.07009
1.06823
1.06643
1.06687
1.06924
1.07225
1.07564
1.07656
1.07666
1.07642
1.07471
1.06884
1.05656
1.04711
1.04566
1.04569
1.04604
1.04745
1.05212
1.06069
1.06533
1.06592
1.0662
1.06644
1.06657
1.06622
1.06309
1.05154
1.0261
1.00419
1.00009
1
1
1
1
1
1
1
1
1
1
1
1
1
1
1
1
1
1
1
1
1
1
1
1
1
1
1
1
1
1
1
1
1
1
1
1
1
1
1
1
1
1
1
1
1
1
1
1
1
1
1
1
1
1
1
1
1
1
1
1
1
1
1
1
1
1
3.40548
3.40302
3.38515
3.33872
3.21912
3.03095
2.79778
2.48468
2.22704
2.0441
1.81731
1.61631
1.50153
1.39072
1.21691
1.13547
1.10829
1.06275
0.952989
0.871353
0.861087
0.84013
0.790802
0.764168
0.767448
0.763446
0.745786
0.741536
0.74321
0.74778
0.755062
0.761375
0.766097
0.770923
0.777991
0.785846
0.792107
0.799152
0.807054
0.808823
0.808942
0.809562
0.809353
0.808942
0.811823
0.819595
0.823548
0.823779
0.822395
0.81873
0.81727
0.816715
0.816863
0.819357
0.81854
0.815857
0.814583
0.813386
0.810946
0.809097
0.808778
0.809352
0.812137
0.821136
0.836905
0.855537
0.876468
0.914349
0.986263
1.01598
1.01811
1.0142
1.01297
1.01393
1.01724
1.02456
1.03186
1.03449
1.03622
1.03966
1.04282
1.04352
1.04345
1.04601
1.05132
1.05553
1.05752
1.05937
1.06168
1.06326
1.06631
1.06949
1.06965
1.06927
1.06895
1.0684
1.06714
1.06651
1.0681
1.07107
1.07531
1.07789
1.07822
1.07815
1.07723
1.07405
1.06564
1.05259
1.04636
1.04596
1.04608
1.04664
1.04865
1.05461
1.06345
1.06687
1.06725
1.0675
1.0677
1.06776
1.06699
1.06259
1.04819
1.02063
1.00236
1.00003
1
1
1
1
1
1
1
1
1
1
1
1
1
1
1
1
1
1
1
1
1
1
1
1
1
1
1
1
1
1
1
1
1
1
1
1
1
1
1
1
1
1
1
1
1
1
1
1
1
1
1
1
1
1
1
1
1
1
1
1
1
1
1
1
1
1
3.39285
3.3929
3.38892
3.37465
3.32524
3.21584
3.04154
2.77215
2.53354
2.34769
2.08066
1.85564
1.74374
1.63613
1.45454
1.31089
1.25915
1.19848
1.09686
1.02073
0.992057
0.955264
0.878862
0.829619
0.832162
0.822434
0.788115
0.768092
0.76923
0.767592
0.762022
0.753053
0.749229
0.749935
0.751306
0.754719
0.764833
0.78449
0.795309
0.795035
0.79479
0.796237
0.798342
0.800242
0.807435
0.818027
0.820673
0.820987
0.81916
0.815717
0.815157
0.815644
0.81888
0.821109
0.818534
0.815997
0.814459
0.81241
0.810627
0.809331
0.809053
0.811271
0.81657
0.824599
0.836389
0.851913
0.869839
0.899044
0.967613
1.0129
1.01537
1.01318
1.01245
1.01409
1.02121
1.03148
1.03508
1.03655
1.03842
1.04043
1.0413
1.04017
1.04287
1.04857
1.05163
1.05221
1.05272
1.05414
1.05884
1.06953
1.07094
1.06812
1.06789
1.068
1.06815
1.06798
1.06663
1.06695
1.06936
1.07327
1.07787
1.07956
1.07983
1.07978
1.07847
1.07344
1.06167
1.04914
1.04594
1.04591
1.04614
1.04704
1.05016
1.05823
1.06683
1.06887
1.06914
1.06937
1.06952
1.06937
1.06775
1.0614
1.04323
1.01465
1.00108
1.00001
1
1
1
1
1
1
1
1
1
1
1
1
1
1
1
1
1
1
1
1
1
1
1
1
1
1
1
1
1
1
1
1
1
1
1
1
1
1
1
1
1
1
1
1
1
1
1
1
1
1
1
1
1
1
1
1
1
1
1
1
1
1
1
1
1
1
3.378
3.37377
3.37043
3.37048
3.35928
3.31446
3.21383
3.02594
2.79198
2.60567
2.37398
2.13149
1.97745
1.84384
1.65851
1.53928
1.46213
1.37707
1.22266
1.1437
1.11772
1.07883
1.00346