/*--------------------------------*- C++ -*----------------------------------*\
  =========                 |
  \\      /  F ield         | OpenFOAM: The Open Source CFD Toolbox
   \\    /   O peration     | Website:  https://openfoam.org
    \\  /    A nd           | Version:  7
     \\/     M anipulation  |
\*---------------------------------------------------------------------------*/
FoamFile
{
    version     2.0;
    format      ascii;
    class       volScalarField;
    location    "0.3";
    object      T;
}
// * * * * * * * * * * * * * * * * * * * * * * * * * * * * * * * * * * * * * //

dimensions      [0 0 0 1 0 0 0];

internalField   nonuniform List<scalar> 
18432
(
1
1
1
1
1
1
1
1
1
1
1
1
1
1
1
1
1
1
1
1
1
1
1
1
1
1
1
1
1
1
1
1
1
1
1
1
1
1
1
1
1
1
1
1
1
1
1
1
1
1
1
1
1
1
1
1
1
1
1
1
1
1
1
1
1
1
1
1
1
1
1
1
1
1
1
1
1
1
1
1
1
1
1
1
1
1
1
1
1
1
1
1
1
1
1
1
1
1
1
1
1
1
1
1
1
1
1
1
1
1
1
1
1
1
1
1
1
1
1
1
1
1
1
1
1
1
1
1
1
1
1
1
1
1
1
1
1
1
1
1
1
1
1
1
1
1
1
1
1
1
1
1
1
1
1
1
1
1
1
1
1
1
1
1
1
1
1
1
1
1
1
1
1
1
1
1
1
1
1
1
1
1
1
1
1
1
1
1
1
1
1
1
1
1
1
1
1
1
1
1
1
1
1
1
1
1
1
1
1
1
1
1
1
1
1
1
1
1
1
1
1
1
1
1
1
1
1
1
1
1
1
1
1
1
1
1
1
1
1
1
1
1
1
1
1
1
1
1
1
1
1
1
1
1
1
1
1
1
1
1
1
1
1
1
1
1
1
1
1
1
1
1
1
1
1
1
1
1
1
1
1
1
1
1
1
1
1
1
1
1
1
1
1
1
1
1
1
1
1
1
1
1
1
1
1
1
1
1
1
1
1
1
1
1
1
1
1
1
1
1
1
1
1
1
1
1
1
1
1
1
1
1
1
1
1
1
1
1
1
1
1
1
1
1
1
1
1
1
1
1
1
1
1
1
1
1
1
1
1
1
1
1
1
1
1
1
1
1
1
1
1
1
1
1
1
1
1
1
1
1
1
1
1
1
1
1
1
1
1
1
1
1
1
1
1
1
1
1
1
1
1
1
1
1
1
1
1
1
1
1
1
1
1
1
1
1
1
1
1
1
1
1
1
1
1
1
1
1
1
1
1
1
1
1
1
1
1
1
1
1
1
1
1
1
1
1
1
1
1
1
1
1
1
1
1
1
1
1
1
1
1
1
1
1
1
1
1
1
1
1
1
1
1
1
1
1
1
1
1
1
1
1
1
1
1
1
1
1
1
1
1
1
1
1
1
1
1
1
1
1
1
1
1
1
1
1
1
1
1
1
1
1
1
1
1
1
1
1
1
1
1
1
1
1
1
1
1
1
1
1
1
1
1
1
1
1
1
1
1
1
1
1
1
1
1
1
1
1
1
1
1
1
1
1
1
1
1
1
1
1
1
1
1
1
1
1
1
1
1
1
1
1
1
1
1
1
1
1
1
1
1
1
1
1
1
1
1
1
1
1
1
1
1
1
1
1
1
1
1
1
1
1
1
1
1
1
1
1
1
1
1
1
1
1
1
1
1
1
1
1
1
1
1
1
1
1
1
1
1
1
1
1
1
1
1
1
1
1
1
1
1
1
1
1
1
1
1
1
1
1
1
1
1
1
1
1
1
1
1
1
1
1
1
1
1
1
1
1
1
1
1
1
1
1
1
1
1
1
1
1
1
1
1
1
1
1
1
1
1
1
1
1
1
1
1
1
1
1
1
1
1
1
1
1
1
1
1
1
1
1
1
1
1
1
1
1
1
1
1
1
1
1
1
1
1
1
1
1
1
1
1
1
1
1
1
1
1
1
1
1
1
1
1
1
1
1
1
1
1
1
1
1
1
1
1
1
1
1
1
1
1
1
1
1
1
1
1
1
1
1
1
1
1
1
1
1
1
1
1
1
1
1
1
1
1
1
1
1
1
1
1
1
1
1
1
1
1
1
1
1
1
1
1
1
1
1
1
1
1
1
1
1
1
1
1
1
1
1
1
1
1
1
1
1
1
1
1
1
1
1
1
1
1
1
1
1
1
1
1
1
1
1
1
1
1
1
1
1
1
1
1
1
1
1
1
1
1
1
1
1
1
1
1
1
1
1
1
1
1
1
1
1
1
1
1
1
1
1
1
1
1
1
1
1
1
1
1
1
1
1
1
1
1
1
1
1
1
1
1
1
1
1
1
1
1
1
1
1
1
1
1
1
1
1
1
1
1
1
1
1
1
1
1
1
1
1
1
1
1
1
1
1
1
1
1
1
1
1
1
1
1
1
1
1
1
1
1
1
1
1
1
1
1
1
1
1
1
1
1
1
1
1
1
1
1
1
1
1
1
1
1
1
1
1
1
1
1
1
1
1
1
1
1
1
1
1
1
1
1
1
1
1
1
1
1
1
1
1
1
1
1
1
1
1
1
1
1
1
1
1
1
1
1
1
1
1
1
1
1
1
1
1
1
1
1
1
1
1
1
1
1
1
1
1
1
1
1
1
1
1
1
1
1
1
1
1
1
1
1
1
1
1
1
1
1
1
1
1
1
1
1
1
1
1
1
1
1
1
1
1
1
1
1
1
1
1
1
1
1
1
1
1
1
1
1
1
1
1
1
1
1
1
1
1
1
1
1
1
1
1
1
1
1
1
1
1
1
1
1
1
1
1
1
1
1
1
1
1
1
1
1
1
1
1
1
1
1
1
1
1
1
1
1
1
1
1
1
1
1
1
1
1
1
1
1
1
1
1
1
1
1
1
1
1
1
1
1
1
1
1
1
1
1
1
1
1
1
1
1
1
1
1
1
1
1
1
1
1
1
1
1
1
1
1
1
1
1
1
1
1
1
1
1
1
1
1
1
1
1
1
1
1
1
1
1
1
1
1
1
1
1
1
1
1
1
1
1
1
1
1
1
1
1
1
1
1
1
1
1
1
1
1
1
1
1
1
1
1
1
1
1
1
1
1
1
1
1
1
1
1
1
1
1
1
1
1
1
1
1
1
1
1
1
1
1
1
1
1
1
1
1
1
1
1
1
1
1
1
1
1
1
1
1
1
1
1
1
1
1
1
1
1
1
1
1
1
1
1
1
1
1
1
1
1
1
1
1
1
1
1
1
1
1
1
1
1
1
1
1
1
1
1
1
1
1
1
1
1
1
1
1
1
1
1
1
1
1
1
1
1
1
1
1
1
1
1
1
1
1
1
1
1
1
1
1
1
1
1
1
1
1
1
1
1
1
1
1
1
1
1
1
1
1
1
1
1
1
1
1
1
1
1
1
1
1
1
1
1
1
1
1
1
1
1
1
1
1
1
1
1
1
1
1
1
1
1
1
1
1
1
1
1
1
1
1
1
1
1
1
1
1
1
1
1
1
1
1
1
1
1
1
1
1
1
1
1
1
1
1
1
1
1
1
1
1
1
1
1
1
1
1
1
1
1
1
1
1
1
1
1
1
1
1
1
1
1
1
1
1
1
1
1
1
1
1
1
1
1
1
1
1
1
1
1
1
1
1
1
1
1
1
1
1
1
1
1
1
1
1
1
1
1
1
1
1
1
1
1
1
1
1
1
1
1
1
1
1
1
1
1
1
1
1
1
1
1
1
1
1
1
1
1
1
1
1
1
1
1
1
1
1
1
1
1
1
1
1
1
1
1
1
1
1
1
1
1
1
1
1
1
1
1
1
1
1
1
1
1
1
1
1
1
1
1
1
1
1
1
1
1
1
1
1
1
1
1
1
1
1
1
1
1
1
1
1
1
1
1
1
1
1
1
1
1
1
1
1
1
1
1
1
1
1
1
1
1
1
1
1
1
1
1
1
1
1
1
1
1
1
1
1
1
1
1
1
1
1
1
1
1
1
1
1
1
1
1
1
1
1
1
1
1
1
1
1
1
1
1
1
1
1
1
1
1
1
1
1
1
1
1
1
1
1
1
1
1
1
1
1
1
1
1
1
1
1
1
1
1
1
1
1
1
1
1
1
1
1
1
1
1
1
1
1
1
1
1
1
1
1
1
1
1
1
1
1
1
1
1
1
1
1
1
1
1
1
1
1
1
1
1
1
1
1
1
1
1
1
1
1
1
1
1
1
1
1
1
1
1
1
1
1
1
1
1
1
1
1
1
1
1
1
1
1
1
1
1
1
1
1
1
1
1
1
1
1
1
1
1
1
1
1
1
1
1
1
1
1
1
1
1
1
1
1
1
1
1
1
1
1
1
1
1
1
1
1
1
1
1
1
1
1
1
1
1
1
1
1
1
1
1
1
1
1
1
1
1
1
1
1
1
1
1
1
1
1
1
1
1
1
1
1
1
1
1
1
1
1
1
1
1
1
1
1
1
1
1
1
1
1
1
1
1
1
1
1
1
1
1
1
1
1
1
1
1
1
1
1
1
1
1
1
1
1
1
1
1
1
1
1
1
1
1
1
1
1
1
1
1
1
1
1
1
1
1
1
1
1
1
1
1
1
1
1
1
1
1
1
1
1
1
1
1
1
1
1
1
1
1
1
1
1
1
1
1
1
1
1
1
1
1
1
1
1
1
1
1
1
1
1
1
1
1
1
1
1
1
1
1
1
1
1
1
1
1
1
1
1
1
1
1
1
1
1
1
1
1
1
1
1
1
1
1
1
1
1
1
1
1
1
1
1
1
1
1
1
1
1
1
1
1
1
1
1
1
1
1
1
1
1
1
1
1
1
1
1
1
1
1
1
1
1
1
1
1
1
1
1
1
1
1
1
1
1
1
1
1
1
1
1
1
1
1
1
1
1
1
1
1
1
1
1
1
1
1
1
1
1
1
1
1
1
1
1
1
1
1
1
1
1
1
1
1
1
1
1
1
1
1
1
1
1
1
1
1
1
1
1
1
1
1
1
1
1
1
1
1
1
1
1
1
1
1
1
1
1
1
1
1
1
1
1
1
1
1
1
1
1
1
1
1
1
1
1
1
1
1
1
1
1
1
1
1
1
1
1
1
1
1
1
1
1
1
1
1
1
1
1
1
1
1
1
1
1
1
1
1
1
1
1
1
1
1
1
1
1
1
1
1
1
1
1
1
1
1
1
1
1
1
1
1
1
1
1
1
1
1
1
1
1
1
1
1
1
1
1
1
1
1
1
1
1
1
1
1
1
1
1
1
1
1
1
1
1
1
1
1
1
1
1
1
1
1
1
1
1
1
1
1
1
1
1
1
1
1
1
1
1
1
1
1
1
1
1
1
1
1
1
1
1
1
1
1
1
1
1
1
1
1
1
1
1
1
1
1
1
1
1
1
1
1
1
1
1
1
1
1
1
1
1
1
1
1
1
1
1
1
1
1
1
1
1
1
1
1
1
1
1
1
1
1
1
1
1
1
1
1
1
1
1
1
1
1
1
1
1
1
1
1
1
1
1
1
1
1
1
1
1
1
1
1
1
1
1
1
1
1
1
1
1
1
1
1
1
1
1
1
1
1
1
1
1
1
1
1
1
1
1
1
1
1
1
1
1
1
1
1
1
1
1
1
1
1
1
1
1
1
1
1
1
1
1
1
1
1
1
1
1
1
1
1
1
1
1
1
1
1
1
1
1
1
1
1
1
1
1
1
1
1
1
1
1
1
1
1
1
1
1
1
1
1
1
1
1
1
1
1
1
1
1
1
1
1
1
1
1
1
1
1
1
1
1
1
1
1
1
1
1
1
1
1
1
1
1
1
1
1
1
1
1
1
1
1
1
1
1
1
1
1
1
1
1
1
1
1
1
1
1
1
1
1
1
1
1
1
1
1
1
1
1
1
1
1
1
1
1
1
1
1
1
1
1
1
1
1
1
1
1
1
1
1
1
1
1
1
1
1
1
1
1
1
1
1
1
1
1
1
1
1
1
1
1
1
1
1
1
1
1
1
1
1
1
1
1
1
1
1
1
1
1
1
1
1
1
1
1
1
1
1
1
1
1
1
1
1
1
1
1
1
1
1
1
1
1
1
1
1
1
1
1
1
1
1
1
1
1
1
1
1
1
1
1
1
1
1
1
1
1
1
1
1
1
1
1
1
1
1
1
1
1
1
1
1
1
1
1
1
1
1
1
1
1
1
1
1
1
1
1
1
1
1
1
1
1
1
1
1
1
1
1
1
1
1
1
1
1
1
1
1
1
1
1
1
1
1
1
1
1
1
1
1
1
1
1
1
1
1
1
1
1
1
1
1
1
1
1
1
1
1
1
1
1
1
1
1
1
1
1
1
1
1
1
1
1
1
1
1
1
1
1
1
1
1
1
1
1
1
1
1
1
1
1
1
1
1
1
1
1
1
1
1
1
1
1
1
1
1
1
1
1
1
1
1
1
1
1
1
1
1
1
1
1
1
1
1
1
1
1
1
1
1
1
1
1
1
1
1
1
1
1
1
1
1
1
1
1
1
1
1
1
1
1
1
1
1
1
1
1
1
1
1
1
1
1
1
1
1
1
1
1
1
1
1
1
1
1
1
1
1
1
1
1
1
1
1
1
1
1
1
1
1
1
1
1
1
1
1
1
1
1
1
1
1
1
1
1
1
1
1
1
1
1
1
1
1
1
1
1
1
1
1
1
1
1
1
1
1
1
1
1
1
1
1
1
1
1
1
1
1
1
1
1
1
1
1
1
1
1
1
1
1
1
1
1
1
1
1
1
1
1
1
1
1
1
1
1
1
1
1
1
1
1
1
1
1
1
1
1
1
1
1
1
1
1
1
1
1
1
1
1
1
1
1
1
1
1
1
1
1
1
1
1
1
1
1
1
1
1
1
1
1
1
1
1
1
1
1
1
1
1
1
1
1
1
1
1
1
1
1
1
1
1
1
1
1
1
1
1
1
1
1
1
1
1
1
1
1
1
1
1
1
1
1
1
1
1
1
1
1
1
1
1
1
1
1
1
1
1
1
1
1
1
1
1
1
1
1
1
1
1
1
1
1
1
1
1
1
1
1
1
1
1
1
1
1
1
1
1
1
1
1
1
1
1
1
1
1
1
1
1
1
1
1
1
1
1
1
1
1
1
1
1
1
1
1
1
1
1
1
1
1
1
1
1
1
1
1
1
1
1
1
1
1
1
1
1
1
1
1
1
1
1
1
1.0781
1.18199
1.28061
1.37856
1.48205
1.55366
1.62166
1.6715
1.69427
1.68693
1.65823
1.61577
1.57499
1.54052
1.52415
1.51258
1.51256
1.51505
1.52016
1.52556
1.52976
1.53202
1.53433
1.53671
1.53889
1.54078
1.54185
1.54268
1.54424
1.54504
1.54471
1.54366
1.54143
1.53774
1.53303
1.52804
1.52344
1.51971
1.51693
1.51512
1.51352
1.5119
1.51038
1.5089
1.50704
1.50556
1.50528
1.50492
1.00045
1.00526
1.02797
1.06533
1.13005
1.21647
1.29874
1.37917
1.45306
1.50404
1.52737
1.56617
1.56726
1.56171
1.55197
1.54598
1.53939
1.53463
1.53431
1.53367
1.53516
1.53686
1.53882
1.54072
1.54213
1.54338
1.54399
1.54427
1.54499
1.54582
1.54554
1.54433
1.54213
1.53875
1.53418
1.52903
1.52426
1.52045
1.51781
1.51613
1.51456
1.51289
1.51108
1.50908
1.50686
1.50589
1.5054
1.50552
1
0.999992
1.00002
1.00001
1.00046
1.00465
1.02088
1.07583
1.18117
1.35086
1.49583
1.58723
1.62453
1.622
1.61119
1.59726
1.5824
1.56028
1.54945
1.54822
1.54926
1.55047
1.55205
1.55247
1.5523
1.55291
1.55372
1.55353
1.55314
1.55278
1.55213
1.5506
1.54814
1.5447
1.54015
1.53506
1.53025
1.52637
1.52377
1.52193
1.52021
1.51841
1.5164
1.51415
1.51169
1.51041
1.50933
1.50994
1
1
1
1
0.999999
1
0.999989
1.00005
1.00185
1.02878
1.15534
1.33146
1.50972
1.57447
1.61241
1.60733
1.59656
1.59341
1.5853
1.58047
1.57628
1.57186
1.56881
1.56552
1.5651
1.56606
1.56852
1.56907
1.56835
1.56725
1.56565
1.5632
1.55985
1.55557
1.55033
1.54478
1.53972
1.53588
1.53325
1.53129
1.5295
1.52767
1.5254
1.52273
1.52046
1.51908
1.51727
1.51786
1
1
1
1
1
1
1
1
1
0.999969
1.00086
1.01422
1.11597
1.28897
1.47202
1.57666
1.6045
1.61995
1.61593
1.60687
1.59165
1.58046
1.5769
1.57421
1.57327
1.57415
1.57662
1.57895
1.57941
1.57927
1.5777
1.5748
1.57096
1.56623
1.56086
1.55554
1.55088
1.54684
1.54367
1.54132
1.53933
1.53725
1.53472
1.53219
1.53005
1.52849
1.52636
1.52693
1
1
1
1
1
1
1
1
1
0.999999
0.999999
0.99998
1.00035
1.0105
1.07701
1.26676
1.42926
1.56366
1.59427
1.59559
1.5962
1.58843
1.58253
1.58087
1.57962
1.57876
1.57908
1.57973
1.58076
1.58147
1.5806
1.57845
1.57495
1.57037
1.56536
1.56088
1.55711
1.55339
1.55008
1.54744
1.54491
1.54255
1.54075
1.53886
1.53681
1.53518
1.53333
1.53311
1
1
1
1
1
1
1
1
1
1
1
0.999999
0.999999
0.999988
1.00013
1.00907
1.06545
1.21637
1.39456
1.51441
1.58618
1.59503
1.59169
1.59027
1.5862
1.58073
1.57922
1.57914
1.57891
1.5782
1.57762
1.57604
1.57316
1.56922
1.56509
1.5617
1.5585
1.55528
1.55214
1.54907
1.54637
1.54478
1.5435
1.54167
1.53948
1.53737
1.53554
1.53407
1
1
1
1
1
1
1
1
1
1
1
1
1
0.999999
0.999999
0.99999
1.00013
1.00446
1.05824
1.18698
1.37541
1.48284
1.55497
1.58236
1.5843
1.58179
1.58116
1.5809
1.57928
1.57621
1.57276
1.57031
1.56801
1.56513
1.56215
1.55953
1.55682
1.55387
1.55098
1.54864
1.54719
1.54566
1.54337
1.54115
1.53887
1.53662
1.53484
1.53277
1
1
1
1
1
1
1
1
1
1
1
1
1
1
1
0.999999
0.999999
0.999992
1.00016
1.0036
1.04636
1.18299
1.34372
1.4743
1.522
1.55672
1.57257
1.57633
1.57564
1.57161
1.56914
1.56684
1.56351
1.56007
1.55809
1.55615
1.55386
1.55124
1.54859
1.54639
1.54489
1.54358
1.54214
1.54027
1.538
1.53566
1.53337
1.53002
1
1
1
1
1
1
1
1
1
1
1
1
1
1
1
1
1
0.999999
0.999999
0.999994
1.00012
1.00449
1.03601
1.16709
1.32023
1.46469
1.5279
1.54598
1.55762
1.55934
1.55959
1.5585
1.55468
1.5508
1.54932
1.54742
1.54515
1.54315
1.5415
1.54003
1.53857
1.5373
1.53589
1.53413
1.53233
1.53077
1.52955
1.52713
1
1
1
1
1
1
1
1
1
1
1
1
1
1
1
1
1
1
1
1
1
0.999995
1.00008
1.00413
1.03696
1.14944
1.32713
1.45402
1.5302
1.54724
1.55048
1.5502
1.54742
1.54328
1.54068
1.53772
1.53477
1.53335
1.5323
1.53108
1.52954
1.52792
1.52616
1.52425
1.52247
1.52092
1.51996
1.51791
1
1
1
1
1
1
1
1
1
1
1
1
1
1
1
1
1
1
1
1
1
1
1
0.999996
1.00012
1.00319
1.04631
1.15834
1.33067
1.44522
1.51826
1.54301
1.54486
1.541
1.53703
1.53408
1.53083
1.5281
1.52567
1.52391
1.52246
1.52058
1.51844
1.51618
1.51361
1.51079
1.50882
1.50619
1
1
1
1
1
1
1
1
1
1
1
1
1
1
1
1
1
1
1
1
1
1
1
0.999999
1
0.999996
1.00027
1.00418
1.04564
1.18291
1.34483
1.45372
1.49753
1.52179
1.52458
1.52412
1.5213
1.5192
1.51734
1.51566
1.51407
1.51272
1.51144
1.5097
1.50746
1.5047
1.5021
1.49854
1
1
1
1
1
1
1
1
1
1
1
1
1
1
1
1
1
1
1
1
1
1
1
1
1
0.999999
1
0.999997
1.00032
1.00789
1.05326
1.19911
1.34619
1.46559
1.4899
1.49874
1.50364
1.50369
1.50547
1.50501
1.50313
1.5016
1.50127
1.50054
1.49885
1.49712
1.49624
1.49459
1
1
1
1
1
1
1
1
1
1
1
1
1
1
1
1
1
1
1
1
1
1
1
1
1
1
1
1
0.999999
1
1.00045
1.01158
1.0675
1.20897
1.35044
1.45093
1.49259
1.49168
1.49451
1.49387
1.49162
1.49062
1.49044
1.48978
1.48852
1.48817
1.48854
1.48871
1
1
1
1
1
1
1
1
1
1
1
1
1
1
1
1
1
1
1
1
1
1
1
1
1
1
1
1
1
1
0.999999
1.00003
1.00089
1.01341
1.0857
1.21534
1.3461
1.42699
1.4781
1.48909
1.48812
1.49049
1.48835
1.48329
1.48049
1.47969
1.48046
1.48066
1
1
1
1
1
1
1
1
1
1
1
1
1
1
1
1
1
1
1
1
1
1
1
1
1
1
1
1
1
1
1
1
0.999999
1.00004
1.00162
1.01499
1.08948
1.21059
1.3394
1.41158
1.46159
1.4837
1.48597
1.48564
1.48578
1.4828
1.47866
1.4754
1
1
1
1
1
1
1
1
1
1
1
1
1
1
1
1
1
1
1
1
1
1
1
1
1
1
1
1
1
1
1
1
1
1
0.999999
1.00005
1.00209
1.01617
1.08576
1.21187
1.33626
1.40677
1.44602
1.47398
1.48237
1.48231
1.48408
1.48337
1
1
1
1
1
1
1
1
1
1
1
1
1
1
1
1
1
1
1
1
1
1
1
1
1
1
1
1
1
1
1
1
1
1
1
1
1
1.00007
1.00219
1.01815
1.08194
1.21032
1.32926
1.40686
1.44077
1.4611
1.47855
1.48328
1
1
1
1
1
1
1
1
1
1
1
1
1
1
1
1
1
1
1
1
1
1
1
1
1
1
1
1
1
1
1
1
1
1
1
1
1
1
1
1.00009
1.00208
1.01952
1.08086
1.20614
1.34108
1.40085
1.43507
1.4693
1
1
1
1
1
1
1
1
1
1
1
1
1
1
1
1
1
1
1
1
1
1
1
1
1
1
1
1
1
1
1
1
1
1
1
1
1
1
1
1
1
1.00012
1.00217
1.02062
1.08892
1.2139
1.32541
1.4182
1
1
1
1
1
1
1
1
1
1
1
1
1
1
1
1
1
1
1
1
1
1
1
1
1
1
1
1
1
1
1
1
1
1
1
1
1
1
1
1
1
1
1
1.00016
1.00258
1.02436
1.09063
1.20294
1
1
1
1
1
1
1
1
1
1
1
1
1
1
1
1
1
1
1
1
1
1
1
1
1
1
1
1
1
1
1
1
1
1
1
1
1
1
1
1
1
1
1
1
1
1.00022
1.0033
1.01638
1
1
1
1
1
1
1
1
1
1
1
1
1
1
1
1
1
1
1
1
1
1
1
1
1
1
1
1
1
1
1
1
1
1
1
1
1
1
1
1
1
1
1
1
1
1
1.00002
0.999798
1
1
1
1
1
1
1
1
1
1
1
1
1
1
1
1
1
1
1
1
1
1
1
1
1
1
1
1
1
1
1
1
1
1
1
1
1
1
1
1
1
1
1
1
1
1
1
0.999957
1
1
1
1
1
1
1
1
1
1
1
1
1
1
1
1
1
1
1
1
1
1
1
1
1
1
1
1
1
1
1
1
1
1
1
1
1
1
1
1
1
1
1
1
1
1
1
0.999998
1
1
1
1
1
1
1
1
1
1
1
1
1
1
1
1
1
1
1
1
1
1
1
1
1
1
1
1
1
1
1
1
1
1
1
1
1
1
1
1
1
1
1
1
1
1
1
1
1
1
1
1
1
1
1
1
1
1
1
1
1
1
1
1
1
1
1
1
1
1
1
1
1
1
1
1
1
1
1
1
1
1
1
1
1
1
1
1
1
1
1
1
1
1
1
1
1
1
1
1
1
1
1
1
1
1
1
1
1
1
1
1
1
1
1
1
1
1
1
1
1
1
1
1
1
1
1
1
1
1
1
1
1
1
1
1
1
1
1
1
1
1
1
1
1
1
1
1
1
1
1
1
1
1
1
1
1
1
1
1
1
1
1
1
1
1
1
1
1
1
1
1
1
1
1
1
1
1
1
1
1
1
1
1
1
1
1
1
1
1
1
1
1
1
1
1
1
1
1
1
1
1
1
1
1
1
1
1
1
1
1
1
1
1
1
1
1
1
1
1
1
1
1
1
1
1
1
1
1
1
1
1
1
1
1
1
1
1
1
1
1
1
1
1
1
1
1
1
1
1
1
1
1
1
1
1
1
1
1
1
1
1
1
1
1
1
1
1
1
1
1
1
1
1
1
1
1
1
1
1
1
1
1
1
1
1
1
1
1
1
1
1
1
1
1
1
1
1
1
1
1
1
1
1
1
1
1
1
1
1
1
1
1
1
1
1
1
1
1
1
1
1
1
1
1
1
1
1
1
1
1
1
1
1
1
1
1
1
1
1
1
1
1
1
1
1
1
1
1
1
1
1
1
1
1
1
1
1
1
1
1
1
1
1
1
1
1
1
1
1
1
1
1
1
1
1
1
1
1
1
1
1
1
1
1
1
1
1
1
1
1
1
1
1
1
1
1
1
1
1
1
1
1
1
1
1
1
1
1
1
1
1
1
1
1
1
1
1
1
1
1
1
1
1
1
1
1
1
1
1
1
1
1
1
1
1
1
1
1
1
1
1
1
1
1
1
1
1
1
1
1
1
1
1
1
1
1
1
1
1
1
1
1
1
1
1
1
1
1
1
1
1
1
1
1
1
1
1
1
1
1
1
1
1
1
1
1
1
1
1
1
1
1
1
1
1
1
1
1
1
1
1
1
1
1
1
1
1
1
1
1
1
1
1
1
1
1
1
1
1
1
1
1
1
1
1
1
1
1
1
1
1
1
1
1
1
1
1
1
1
1
1
1
1
1
1
1
1
1
1
1
1
1
1
1
1
1
1
1
1
1
1
1
1
1
1
1
1
1
1
1
1
1
1
1
1
1
1
1
1
1
1
1
1
1
1
1
1
1
1
1
1
1
1
1
1
1
1
1
1
1
1
1
1
1
1
1
1
1
1
1
1
1
1
1
1
1
1
1
1
1
1
1
0.999998
1
1
1
1
1
1
1
1
1
1
1
1
1
1
1
1
1
1
1
1
1
1
1
1
1
1
1
1
1
1
1
1
1
1
1
1
1
1
1
1
1
1
1
1
1
1
1
0.999957
1
1
1
1
1
1
1
1
1
1
1
1
1
1
1
1
1
1
1
1
1
1
1
1
1
1
1
1
1
1
1
1
1
1
1
1
1
1
1
1
1
1
1
1
1
1
1.00002
0.999798
1
1
1
1
1
1
1
1
1
1
1
1
1
1
1
1
1
1
1
1
1
1
1
1
1
1
1
1
1
1
1
1
1
1
1
1
1
1
1
1
1
1
1
1
1
1.00022
1.0033
1.01638
1
1
1
1
1
1
1
1
1
1
1
1
1
1
1
1
1
1
1
1
1
1
1
1
1
1
1
1
1
1
1
1
1
1
1
1
1
1
1
1
1
1
1
1.00016
1.00258
1.02436
1.09063
1.20294
1
1
1
1
1
1
1
1
1
1
1
1
1
1
1
1
1
1
1
1
1
1
1
1
1
1
1
1
1
1
1
1
1
1
1
1
1
1
1
1
1
1.00012
1.00217
1.02062
1.08892
1.2139
1.32541
1.4182
1
1
1
1
1
1
1
1
1
1
1
1
1
1
1
1
1
1
1
1
1
1
1
1
1
1
1
1
1
1
1
1
1
1
1
1
1
1
1
1.00009
1.00208
1.01952
1.08086
1.20614
1.34108
1.40085
1.43507
1.4693
1
1
1
1
1
1
1
1
1
1
1
1
1
1
1
1
1
1
1
1
1
1
1
1
1
1
1
1
1
1
1
1
1
1
1
1
1
1.00007
1.00219
1.01815
1.08194
1.21032
1.32926
1.40686
1.44077
1.4611
1.47855
1.48328
1
1
1
1
1
1
1
1
1
1
1
1
1
1
1
1
1
1
1
1
1
1
1
1
1
1
1
1
1
1
1
1
1
1
0.999999
1.00005
1.00209
1.01617
1.08576
1.21187
1.33626
1.40677
1.44602
1.47398
1.48237
1.48231
1.48408
1.48337
1
1
1
1
1
1
1
1
1
1
1
1
1
1
1
1
1
1
1
1
1
1
1
1
1
1
1
1
1
1
1
1
0.999999
1.00004
1.00162
1.01499
1.08948
1.21059
1.3394
1.41158
1.46159
1.4837
1.48597
1.48564
1.48578
1.4828
1.47866
1.4754
1
1
1
1
1
1
1
1
1
1
1
1
1
1
1
1
1
1
1
1
1
1
1
1
1
1
1
1
1
1
0.999999
1.00003
1.00089
1.01341
1.0857
1.21534
1.3461
1.42699
1.4781
1.48909
1.48812
1.49049
1.48835
1.48329
1.48049
1.47969
1.48046
1.48066
1
1
1
1
1
1
1
1
1
1
1
1
1
1
1
1
1
1
1
1
1
1
1
1
1
1
1
1
0.999999
1
1.00045
1.01158
1.0675
1.20897
1.35044
1.45093
1.49259
1.49168
1.49451
1.49387
1.49162
1.49062
1.49044
1.48978
1.48852
1.48817
1.48854
1.48871
1
1
1
1
1
1
1
1
1
1
1
1
1
1
1
1
1
1
1
1
1
1
1
1
1
0.999999
1
0.999997
1.00032
1.00789
1.05326
1.19911
1.34619
1.46559
1.4899
1.49874
1.50364
1.50369
1.50547
1.50501
1.50313
1.5016
1.50127
1.50054
1.49885
1.49712
1.49624
1.49459
1
1
1
1
1
1
1
1
1
1
1
1
1
1
1
1
1
1
1
1
1
1
1
0.999999
1
0.999996
1.00027
1.00418
1.04564
1.18291
1.34483
1.45372
1.49753
1.52179
1.52458
1.52412
1.5213
1.5192
1.51734
1.51566
1.51407
1.51272
1.51144
1.5097
1.50746
1.5047
1.5021
1.49854
1
1
1
1
1
1
1
1
1
1
1
1
1
1
1
1
1
1
1
1
1
1
1
0.999996
1.00012
1.00319
1.04631
1.15834
1.33067
1.44522
1.51826
1.54301
1.54486
1.541
1.53703
1.53408
1.53083
1.5281
1.52567
1.52391
1.52246
1.52058
1.51844
1.51618
1.51361
1.51079
1.50882
1.50619
1
1
1
1
1
1
1
1
1
1
1
1
1
1
1
1
1
1
1
1
1
0.999995
1.00008
1.00413
1.03696
1.14944
1.32713
1.45402
1.5302
1.54724
1.55048
1.5502
1.54742
1.54328
1.54068
1.53772
1.53477
1.53335
1.5323
1.53108
1.52954
1.52792
1.52616
1.52425
1.52247
1.52092
1.51996
1.51791
1
1
1
1
1
1
1
1
1
1
1
1
1
1
1
1
1
0.999999
0.999999
0.999994
1.00012
1.00449
1.03601
1.16709
1.32023
1.46469
1.5279
1.54598
1.55762
1.55934
1.55959
1.5585
1.55468
1.5508
1.54932
1.54742
1.54515
1.54315
1.5415
1.54003
1.53857
1.5373
1.53589
1.53413
1.53233
1.53077
1.52955
1.52713
1
1
1
1
1
1
1
1
1
1
1
1
1
1
1
0.999999
0.999999
0.999992
1.00016
1.0036
1.04636
1.18299
1.34372
1.4743
1.522
1.55672
1.57257
1.57633
1.57564
1.57161
1.56914
1.56684
1.56351
1.56007
1.55809
1.55615
1.55386
1.55124
1.54859
1.54639
1.54489
1.54358
1.54214
1.54027
1.538
1.53566
1.53337
1.53002
1
1
1
1
1
1
1
1
1
1
1
1
1
0.999999
0.999999
0.99999
1.00013
1.00446
1.05824
1.18698
1.37541
1.48284
1.55497
1.58236
1.5843
1.58179
1.58116
1.5809
1.57928
1.57621
1.57276
1.57031
1.56801
1.56513
1.56215
1.55953
1.55682
1.55387
1.55098
1.54864
1.54719
1.54566
1.54337
1.54115
1.53887
1.53662
1.53484
1.53277
1
1
1
1
1
1
1
1
1
1
1
0.999999
0.999999
0.999988
1.00013
1.00907
1.06545
1.21637
1.39456
1.51441
1.58618
1.59503
1.5917
1.59027
1.5862
1.58074
1.57922
1.57914
1.57891
1.5782
1.57762
1.57604
1.57316
1.56922
1.56509
1.5617
1.5585
1.55528
1.55214
1.54907
1.54637
1.54478
1.5435
1.54167
1.53948
1.53737
1.53554
1.53407
1
1
1
1
1
1
1
1
1
0.999999
0.999999
0.99998
1.00035
1.0105
1.07701
1.26676
1.42926
1.56366
1.59427
1.59559
1.5962
1.58843
1.58253
1.58087
1.57962
1.57876
1.57908
1.57973
1.58076
1.58147
1.5806
1.57845
1.57495
1.57037
1.56536
1.56088
1.55711
1.55339
1.55008
1.54744
1.54491
1.54255
1.54075
1.53886
1.53681
1.53518
1.53333
1.53311
1
1
1
1
1
1
1
1
1
0.999969
1.00086
1.01422
1.11596
1.28897
1.47202
1.57666
1.6045
1.61995
1.61593
1.60687
1.59165
1.58046
1.5769
1.57421
1.57327
1.57415
1.57662
1.57895
1.57941
1.57927
1.5777
1.5748
1.57096
1.56623
1.56086
1.55554
1.55088
1.54684
1.54367
1.54132
1.53933
1.53725
1.53472
1.53219
1.53005
1.52849
1.52636
1.52693
1
1
1
1
0.999999
1
0.999989
1.00005
1.00185
1.02878
1.15534
1.33146
1.50972
1.57447
1.61241
1.60733
1.59656
1.59341
1.5853
1.58047
1.57628
1.57186
1.56881
1.56552
1.5651
1.56606
1.56852
1.56907
1.56835
1.56725
1.56565
1.5632
1.55985
1.55557
1.55033
1.54478
1.53972
1.53588
1.53325
1.53129
1.5295
1.52767
1.5254
1.52273
1.52046
1.51908
1.51727
1.51786
1
0.999992
1.00002
1.00001
1.00046
1.00465
1.02088
1.07583
1.18117
1.35086
1.49583
1.58723
1.62453
1.622
1.61119
1.59726
1.5824
1.56028
1.54945
1.54822
1.54926
1.55047
1.55205
1.55247
1.5523
1.55291
1.55372
1.55353
1.55314
1.55278
1.55213
1.5506
1.54814
1.5447
1.54015
1.53506
1.53025
1.52637
1.52377
1.52193
1.52021
1.51841
1.5164
1.51415
1.51169
1.51041
1.50933
1.50994
1.00045
1.00526
1.02797
1.06533
1.13005
1.21647
1.29874
1.37917
1.45306
1.50404
1.52737
1.56617
1.56726
1.56171
1.55197
1.54598
1.53939
1.53463
1.53431
1.53367
1.53516
1.53686
1.53882
1.54072
1.54213
1.54338
1.54399
1.54427
1.54499
1.54582
1.54554
1.54433
1.54213
1.53875
1.53418
1.52903
1.52426
1.52045
1.51781
1.51613
1.51456
1.51289
1.51108
1.50908
1.50686
1.50589
1.5054
1.50552
1.0781
1.18199
1.28061
1.37856
1.48205
1.55366
1.62166
1.6715
1.69427
1.68693
1.65823
1.61577
1.57499
1.54052
1.52415
1.51258
1.51256
1.51505
1.52016
1.52556
1.52976
1.53202
1.53433
1.53671
1.53889
1.54078
1.54185
1.54268
1.54424
1.54504
1.54471
1.54366
1.54143
1.53774
1.53303
1.52804
1.52344
1.51971
1.51693
1.51512
1.51352
1.5119
1.51038
1.5089
1.50704
1.50556
1.50528
1.50492
1.3677
1.20774
1.05548
0.984542
0.970963
0.945477
0.934593
0.951763
0.982123
0.998256
1.01221
1.04271
1.06595
1.06693
1.05964
1.0537
1.05611
1.0555
1.05262
1.05541
1.0599
1.05962
1.05551
1.04543
1.03675
1.03513
1.03496
1.03575
1.03552
1.03507
1.03377
1.03105
1.03065
1.0307
1.03118
1.03139
1.03085
1.02952
1.02855
1.02813
1.0281
1.02898
1.02983
1.02951
1.02841
1.02705
1.02648
1.02653
1.02682
1.02818
1.03036
1.03074
1.03041
1.02937
1.02875
1.02826
1.02792
1.02848
1.02779
1.0251
1.02282
1.02253
1.02315
1.02517
1.02979
1.03893
1.05574
1.07656
1.0803
1.07965
1.08031
1.08429
1.08798
1.08891
1.08854
1.09069
1.09174
1.09094
1.08965
1.08971
1.09042
1.0914
1.09183
1.09184
1.09169
1.09149
1.09096
1.08964
1.08681
1.08128
1.07095
1.05377
1.0331
1.01927
1.01477
1.01396
1.01371
1.01362
1.01408
1.01591
1.01827
1.02021
1.02148
1.02169
1.02169
1.02164
1.02114
1.01896
1.01494
1.01272
1.01252
1.01252
1.01258
1.01315
1.01501
1.01708
1.01759
1.01766
1.01773
1.01779
1.0178
1.01747
1.01575
1.0108
1.0035
1.00024
1
1
1
1
1
1
1
1
1
1
1
1
1
1
1
1
1
1
1
1
1
1
1
1
1
1
1
1
1
1
1
1
1
1
1
1
1
1
1
1
1
1
1
1
1
1
1
1
1
1
1
1
1
1
1
1
1
1
1
1
1
1
1
1
1
1
1.46221
1.38955
1.29431
1.19367
1.15408
1.11663
1.05281
1.03283
1.02344
1.01023
1.00417
1.00702
1.01228
1.00865
1.0062
1.00762
1.01453
1.02085
1.02287
1.02649
1.0309
1.03118
1.02902
1.0239
1.02192
1.02218
1.02431
1.02777
1.02778
1.02704
1.02542
1.02418
1.02435
1.02527
1.02675
1.02697
1.02628
1.02476
1.0237
1.02313
1.02275
1.02307
1.02382
1.02367
1.02325
1.02275
1.02186
1.02141
1.02139
1.02213
1.02381
1.02493
1.02518
1.02507
1.02431
1.02336
1.02268
1.02263
1.02207
1.02028
1.01946
1.01962
1.02045
1.02229
1.02658
1.03549
1.05175
1.07152
1.07748
1.07773
1.07917
1.08334
1.08699
1.08816
1.08797
1.08958
1.09081
1.09011
1.08904
1.08907
1.08956
1.09061
1.09159
1.09188
1.09185
1.09127
1.08995
1.08772
1.08427
1.07839
1.06758
1.04977
1.02957
1.01766
1.01426
1.01367
1.01357
1.01354
1.01399
1.01582
1.01819
1.02006
1.0213
1.02159
1.02159
1.02149
1.02089
1.01869
1.01483
1.0128
1.01264
1.01265
1.01275
1.01338
1.01527
1.01727
1.01772
1.01777
1.01782
1.01786
1.01786
1.01753
1.01592
1.01106
1.00357
1.00023
1
1
1
1
1
1
1
1
1
1
1
1
1
1
1
1
1
1
1
1
1
1
1
1
1
1
1
1
1
1
1
1
1
1
1
1
1
1
1
1
1
1
1
1
1
1
1
1
1
1
1
1
1
1
1
1
1
1
1
1
1
1
1
1
1
1
1.49742
1.46072
1.4034
1.32713
1.25706
1.20175
1.13509
1.08982
1.06807
1.03829
0.998739
0.992412
0.993834
0.985378
0.982571
0.987085
0.995082
0.997752
0.99677
0.996574
0.997294
0.998625
0.998182
0.997283
0.997781
1.0022
1.00763
1.0095
1.01026
1.01159
1.01157
1.01133
1.01231
1.01504
1.01699
1.01683
1.01554
1.01362
1.0125
1.01209
1.0116
1.01133
1.01141
1.01163
1.01218
1.01269
1.01288
1.01291
1.01287
1.01281
1.01292
1.01372
1.01508
1.01535
1.01522
1.01485
1.01391
1.01232
1.01141
1.01103
1.01099
1.01144
1.01325
1.01601
1.02005
1.0282
1.04303
1.06072
1.07016
1.07314
1.07601
1.07962
1.08279
1.08405
1.08368
1.08431
1.08517
1.08465
1.08409
1.08439
1.08591
1.08856
1.09087
1.09197
1.09233
1.09222
1.09122
1.08877
1.08451
1.07698
1.0637
1.04372
1.02469
1.01639
1.01448
1.01403
1.01402
1.01404
1.01449
1.01634
1.01872
1.02045
1.02143
1.02159
1.02159
1.02148
1.02068
1.01818
1.01444
1.01284
1.01275
1.01276
1.01289
1.01359
1.01552
1.0174
1.01778
1.01783
1.01788
1.01791
1.01787
1.0174
1.01554
1.01045
1.00315
1.00018
1
1
1
1
1
1
1
1
1
1
1
1
1
1
1
1
1
1
1
1
1
1
1
1
1
1
1
1
1
1
1
1
1
1
1
1
1
1
1
1
1
1
1
1
1
1
1
1
1
1
1
1
1
1
1
1
1
1
1
1
1
1
1
1
1
1
1.51302
1.49735
1.46455
1.41093
1.34831
1.2961
1.23231
1.16889
1.14469
1.11767
1.06289
1.03885
1.031
1.01316
0.994896
0.994582
0.995363
0.989678
0.979744
0.973764
0.973666
0.97353
0.972437
0.974019
0.978409
0.987956
0.993805
0.994252
0.995263
0.99749
0.99847
0.998911
1.00101
1.00458
1.00664
1.00646
1.00589
1.00575
1.00565
1.00585
1.00593
1.00506
1.00376
1.00334
1.00334
1.00369
1.00466
1.00521
1.00515
1.00515
1.00534
1.00551
1.0057
1.00593
1.00645
1.00666
1.00645
1.00534
1.00465
1.00454
1.00453
1.00473
1.00616
1.00967
1.01484
1.02334
1.03631
1.05257
1.06517
1.06932
1.07254
1.07604
1.07814
1.0779
1.0778
1.07874
1.07937
1.0795
1.07982
1.08099
1.08394
1.08827
1.09098
1.09268
1.09315
1.09286
1.09128
1.08771
1.08131
1.0704
1.05329
1.03251
1.0189
1.01522
1.01419
1.01397
1.01402
1.01414
1.01481
1.01683
1.01921
1.02092
1.02168
1.02176
1.02178
1.0216
1.02055
1.01764
1.01401
1.01278
1.01273
1.01275
1.01293
1.01382
1.01596
1.01765
1.01792
1.01798
1.01803
1.01806
1.01802
1.01752
1.01541
1.00974
1.00254
1.00012
1
1
1
1
1
1
1
1
1
1
1
1
1
1
1
1
1
1
1
1
1
1
1
1
1
1
1
1
1
1
1
1
1
1
1
1
1
1
1
1
1
1
1
1
1
1
1
1
1
1
1
1
1
1
1
1
1
1
1
1
1
1
1
1
1
1
1.5228
1.51626
1.50034
1.46815
1.41645
1.3689
1.31757
1.25806
1.21867
1.18118
1.12426
1.09151
1.07987
1.06192
1.02347
1.00808
1.00582
0.996266
0.981933
0.974748
0.974842
0.974222
0.970686
0.96908
0.971099
0.979629
0.981837
0.98144
0.982204
0.986347
0.99059
0.992397
0.994696
0.998094
1.00059
1.00074
1.00078
1.00126
1.00292
1.00404
1.00372
1.00229
1.00087
1.00041
1.00039
1.0009
1.00271
1.00368
1.00354
1.0032
1.00268
1.00225
1.00195
1.00178
1.00207
1.00281
1.00289
1.00265
1.00203
1.00191
1.00197
1.00204
1.00298
1.00651
1.01239
1.02071
1.03163
1.04665
1.06158
1.06801
1.07239
1.07455
1.0742
1.07349
1.07395
1.07474
1.07503
1.07505
1.07577
1.07782
1.08223
1.08907
1.09316
1.09352
1.09386
1.09371
1.09173
1.0865
1.07683
1.06114
1.04009
1.02235
1.01591
1.01457
1.01398
1.01384
1.01386
1.01404
1.01511
1.01746
1.01983
1.02145
1.02195
1.02203
1.02205
1.0218
1.02034
1.01694
1.01357
1.01272
1.0127
1.01271
1.01293
1.01402
1.01638
1.01791
1.01812
1.01819
1.01825
1.0183
1.01825
1.01762
1.01506
1.00874
1.00186
1.00006
1
1
1
1
1
1
1
1
1
1
1
1
1
1
1
1
1
1
1
1
1
1
1
1
1
1
1
1
1
1
1
1
1
1
1
1
1
1
1
1
1
1
1
1
1
1
1
1
1
1
1
1
1
1
1
1
1
1
1
1
1
1
1
1
1
1
1.53063
1.52585
1.51851
1.50154
1.46848
1.43025
1.38346
1.32611
1.28752
1.25427
1.19947
1.15033
1.13619
1.11792
1.08303
1.05865
1.05065
1.03624
1.00986
0.994114
0.994344
0.990061
0.977567
0.972916
0.974041
0.973736
0.969654
0.968642
0.969376
0.973826
0.981401
0.987405
0.991757
0.995571
0.998526
0.999247
0.999566
1.0005
1.00278
1.00398
1.00367
1.00232
1.00067
1.00032
1.00057
1.00219
1.00474
1.0053
1.00499
1.00413
1.00359
1.00339
1.00301
1.00307
1.00325
1.00301
1.00319
1.00317
1.00246
1.00196
1.00195
1.002
1.00278
1.00619
1.01239
1.01987
1.02871
1.04263
1.0608
1.06977
1.0735
1.07337
1.07237
1.0724
1.07256
1.07288
1.07332
1.07401
1.07549
1.07819
1.08346
1.09111
1.09494
1.09532
1.09589
1.09534
1.09215
1.08458
1.07111
1.05069
1.0285
1.01678
1.0146
1.01417
1.01391
1.0139
1.01398
1.01433
1.01574
1.01828
1.02069
1.02199
1.02223
1.02227
1.02219
1.02163
1.01969
1.01594
1.0132
1.01278
1.01278
1.01283
1.01318
1.01452
1.01696
1.01825
1.01841
1.01848
1.01855
1.01859
1.0185
1.01765
1.0145
1.00745
1.00122
1.00003
1
1
1
1
1
1
1
1
1
1
1
1
1
1
1
1
1
1
1
1
1
1
1
1
1
1
1
1
1
1
1
1
1
1
1
1
1
1
1
1
1
1
1
1
1
1
1
1
1
1
1
1
1
1
1
1
1
1
1
1
1
1
1
1
1
1
1.53285
1.53133
1.52705
1.51881
1.50093
1.47347
1.43782
1.38795
1.34501
1.31054
1.26387
1.22212
1.19801
1.17168
1.12483
1.10131
1.09333
1.07999
1.04775
1.01999
1.01461
1.00588
0.986758
0.978464
0.980317
0.978994
0.972293
0.970844
0.971627
0.973981
0.977856
0.981833
0.984829
0.987579
0.991142
0.994811
0.99791
1.00106
1.00342
1.00356
1.00327
1.0029
1.00222
1.00172
1.00242
1.00492
1.00684
1.00709
1.00679
1.00594
1.00581
1.00572
1.00572
1.00645
1.00605
1.00505
1.00489
1.00469
1.00395
1.00345
1.00343
1.00368
1.00489
1.0084
1.01408
1.02062
1.02786
1.03993
1.06161
1.07346
1.07494
1.07386
1.07292
1.07251
1.07259
1.07366
1.07509
1.07611
1.07762
1.08106
1.08648
1.09277
1.09663
1.0982
1.09821
1.09621
1.09046
1.07977
1.06277
1.04026
1.02178
1.01509
1.014
1.01382
1.01382
1.01387
1.01403
1.01477
1.0167
1.01944
1.02177
1.0226
1.02271
1.02271
1.02246
1.02143
1.0187
1.01475
1.01295
1.01282
1.01284
1.01295
1.0135
1.01524
1.01773
1.01866
1.01877
1.01884
1.0189
1.01891
1.01871
1.01751
1.01358
1.00592
1.00069
1.00001
1
1
1
1
1
1
1
1
1
1
1
1
1
1
1
1
1
1
1
1
1
1
1
1
1
1
1
1
1
1
1
1
1
1
1
1
1
1
1
1
1
1
1
1
1
1
1
1
1
1
1
1
1
1
1
1
1
1
1
1
1
1
1
1
1
1
1.53177
1.53051
1.52897
1.52585
1.51783
1.50171
1.47614
1.43572
1.39827
1.36646
1.31681
1.27383
1.2519
1.22855
1.18567
1.14923
1.13578
1.1188
1.08979
1.06663
1.05706
1.0447
1.01882
1.00292
1.00442
1.0012
0.988496
0.982296
0.983322
0.983125
0.98178
0.980494
0.980823
0.981703
0.983102
0.985614
0.990992
0.999035
1.00222
1.00186
1.00155
1.00175
1.002
1.00215
1.00394
1.00721
1.00855
1.00883
1.00841
1.00777
1.00779
1.00807
1.0092
1.00982
1.00882
1.00817
1.00788
1.00728
1.00675
1.00653
1.00652
1.0075
1.00967
1.01272
1.01696
1.02233
1.02851
1.03816
1.06008
1.07598
1.07707
1.07601
1.07474
1.07442
1.07542
1.07772
1.07911
1.08042
1.08259
1.08634
1.0914
1.09586
1.09913
1.10013
1.0987
1.09417
1.08545
1.07105
1.05111
1.03116
1.01814
1.01423
1.01389
1.01389
1.01394
1.01408
1.01431
1.01544
1.01778
1.02063
1.02256
1.0231
1.0232
1.0232
1.0228
1.02116
1.01746
1.01376
1.01283
1.0128
1.01283
1.01303
1.01393
1.01626
1.01866
1.01921
1.01928
1.01935
1.01939
1.01935
1.01892
1.0172
1.01222
1.00422
1.00031
1
1
1
1
1
1
1
1
1
1
1
1
1
1
1
1
1
1
1
1
1
1
1
1
1
1
1
1
1
1
1
1
1
1
1
1
1
1
1
1
1
1
1
1
1
1
1
1
1
1
1
1
1
1
1
1
1
1
1
1
1
1
1
1
1
1
1
1.52835
1.5275
1.52635
1.52511
1.52247
1.51555
1.50114
1.47424
1.43953
1.40951
1.37004
1.32797
1.29986
1.27236
1.23104
1.20427
1.18665
1.16596
1.12452
1.10165
1.09396
1.08249
1.06018
1.03668
1.02963
1.02114
1.00204
0.992267
0.994338
0.994252
0.98967
0.985462
0.985643
0.986238
0.986427
0.987118
0.989604
0.994883
0.996033
0.995192
0.995157
0.995704
0.997252
0.999677
1.00352
1.00766
1.00879
1.0094
1.00918
1.00902
1.00911
1.01011
1.01277
1.01328
1.01222
1.01119
1.01043
1.01011
1.01013
1.01004
1.0103
1.01282
1.01521
1.01726
1.02063
1.02567
1.03173
1.03917
1.05508
1.07609
1.07933
1.07853
1.07779
1.07824
1.08014
1.08156
1.08332
1.08565
1.08885
1.09292
1.09635
1.09863
1.10086
1.10049
1.09742
1.09046
1.07847
1.06001
1.03961
1.02457