/*--------------------------------*- C++ -*----------------------------------*\
  =========                 |
  \\      /  F ield         | OpenFOAM: The Open Source CFD Toolbox
   \\    /   O peration     | Website:  https://openfoam.org
    \\  /    A nd           | Version:  7
     \\/     M anipulation  |
\*---------------------------------------------------------------------------*/
FoamFile
{
    version     2.0;
    format      ascii;
    class       volVectorField;
    location    "0.3";
    object      U;
}
// * * * * * * * * * * * * * * * * * * * * * * * * * * * * * * * * * * * * * //

dimensions      [0 1 -1 0 0 0 0];

internalField   nonuniform List<vector> 
18432
(
(3 -1.4341e-17 0)
(3 -2.05536e-17 0)
(3 -1.36532e-16 0)
(3 1.3154e-16 0)
(3 7.02642e-17 0)
(3 -3.88131e-16 0)
(3 -8.36259e-16 0)
(3 -2.30336e-16 0)
(3 -1.83123e-16 0)
(3 3.17715e-17 0)
(3 -3.16617e-17 0)
(3 -5.03224e-16 0)
(3 -4.32633e-16 0)
(3 -3.55957e-16 0)
(3 -6.15253e-16 0)
(3 -8.9738e-17 0)
(3 -3.24139e-16 0)
(3 -9.45092e-16 0)
(3 -7.72976e-16 0)
(3 -5.06846e-16 0)
(3 5.08006e-16 0)
(3 1.39857e-15 0)
(3 9.58103e-16 0)
(3 4.76947e-17 0)
(3 5.1633e-16 0)
(3 7.34279e-16 0)
(3 3.72544e-16 0)
(3 2.94167e-16 0)
(3 -6.81483e-16 0)
(3 -1.32519e-15 0)
(3 -9.40959e-16 0)
(3 -1.51919e-15 0)
(3 -2.10815e-15 0)
(3 -1.81705e-15 0)
(3 -1.552e-15 0)
(3 -9.8786e-16 0)
(3 -5.98713e-16 0)
(3 2.29529e-16 0)
(3 1.30295e-15 0)
(3 1.62245e-15 0)
(3 1.0292e-15 0)
(3 4.55269e-16 0)
(3 -8.35364e-16 0)
(3 -1.45098e-15 0)
(3 3.1662e-16 0)
(3 9.71626e-16 0)
(3 1.08064e-15 0)
(3 -1.3521e-15 0)
(3 -2.10397e-17 0)
(3 -1.67351e-16 0)
(3 -2.73227e-16 0)
(3 -2.83054e-16 0)
(3 1.94321e-17 0)
(3 -5.2989e-16 0)
(3 -1.29124e-15 0)
(3 -7.93399e-17 0)
(3 -1.68399e-16 0)
(3 -1.58255e-16 0)
(3 -3.34016e-16 0)
(3 -2.13781e-16 0)
(3 -1.3072e-15 0)
(3 -1.54386e-15 0)
(3 -1.47093e-15 0)
(3 -1.29422e-15 0)
(3 -1.6955e-15 0)
(3 -3.0152e-15 0)
(3 -9.3408e-16 0)
(3 8.95668e-16 0)
(3 2.42537e-15 0)
(3 2.42379e-15 0)
(3 1.3032e-15 0)
(3 4.26977e-16 0)
(3 6.39285e-16 0)
(3 1.27278e-15 0)
(3 9.60735e-16 0)
(3 3.23118e-17 0)
(3 -1.96911e-15 0)
(3 -2.21732e-15 0)
(3 -2.69924e-15 0)
(3 -2.80344e-15 0)
(3 -2.10336e-15 0)
(3 -8.69528e-16 0)
(3 -5.13418e-16 0)
(3 1.02772e-15 0)
(3 9.80321e-16 0)
(3 2.61421e-15 0)
(3 4.00696e-15 0)
(3 2.29227e-15 0)
(3 -2.34126e-15 0)
(3 -3.80246e-15 0)
(3 -4.55055e-15 0)
(3 -3.63616e-15 0)
(3 -1.52452e-15 0)
(3 4.81478e-16 0)
(3 8.15655e-16 0)
(3 -9.03459e-16 0)
(3 -1.36896e-16 0)
(3 -2.26536e-16 0)
(3 -1.58343e-16 0)
(3 -2.19885e-16 0)
(3 1.58763e-16 0)
(3 5.44933e-17 0)
(3 -1.19698e-16 0)
(3 3.07243e-16 0)
(3 -7.51725e-16 0)
(3 -1.42781e-15 0)
(3 -5.751e-16 0)
(3 -1.11898e-16 0)
(3 -3.75622e-16 0)
(3 -6.57128e-16 0)
(3 -7.44239e-16 0)
(3 -9.08173e-16 0)
(3 -1.34175e-15 0)
(3 -2.07316e-15 0)
(3 -1.20104e-15 0)
(3 -4.86139e-17 0)
(3 8.5143e-16 0)
(3 5.36742e-16 0)
(3 -6.25344e-16 0)
(3 2.53254e-16 0)
(3 3.066e-16 0)
(3 2.75974e-16 0)
(3 8.4551e-16 0)
(3 1.04289e-15 0)
(3 4.98383e-16 0)
(3 1.18927e-16 0)
(3 -5.83737e-16 0)
(3 -1.6567e-15 0)
(3 -1.72079e-15 0)
(3 -9.78107e-16 0)
(3 3.75064e-17 0)
(3 1.68747e-15 0)
(3 2.66566e-15 0)
(3 3.66254e-15 0)
(3 3.80194e-15 0)
(3 2.43945e-15 0)
(3 -6.14749e-16 0)
(3 -5.54463e-15 0)
(3 -7.70257e-15 0)
(3 -5.75468e-15 0)
(3 -3.64232e-15 0)
(3 -2.97798e-16 0)
(3 2.14901e-15 0)
(3 1.57626e-15 0)
(3 9.93176e-17 0)
(3 3.32835e-16 0)
(3 4.65037e-16 0)
(3 8.82434e-16 0)
(3 7.6835e-16 0)
(3 1.05822e-15 0)
(3 4.28015e-16 0)
(3 -2.28712e-18 0)
(3 -3.28097e-16 0)
(3 -2.3219e-16 0)
(3 7.51078e-16 0)
(3 1.96022e-16 0)
(3 -1.38556e-16 0)
(3 9.1609e-20 0)
(3 4.61052e-16 0)
(3 1.853e-16 0)
(3 -3.92802e-16 0)
(3 -2.29557e-16 0)
(3 -1.53172e-15 0)
(3 -2.08785e-15 0)
(3 -2.15795e-15 0)
(3 -9.9064e-16 0)
(3 2.41529e-16 0)
(3 7.13601e-17 0)
(3 -1.07371e-16 0)
(3 -5.62799e-16 0)
(3 1.25538e-16 0)
(3 1.20642e-15 0)
(3 1.50317e-15 0)
(3 1.62203e-15 0)
(3 1.89032e-15 0)
(3 3.27967e-16 0)
(3 -1.45128e-15 0)
(3 -1.24837e-15 0)
(3 -7.1074e-16 0)
(3 3.00727e-17 0)
(3 1.11378e-15 0)
(3 2.24629e-15 0)
(3 2.13249e-15 0)
(3 1.22442e-15 0)
(3 -4.29428e-16 0)
(3 -3.36682e-15 0)
(3 -5.06009e-15 0)
(3 -2.85747e-15 0)
(3 -2.07304e-15 0)
(3 -2.83659e-16 0)
(3 2.37421e-15 0)
(3 2.04398e-15 0)
(3 1.54939e-16 0)
(3 4.92271e-16 0)
(3 5.36692e-16 0)
(3 2.17523e-16 0)
(3 -2.88875e-16 0)
(3 -5.51892e-16 0)
(3 -2.99e-16 0)
(3 -4.94172e-16 0)
(3 -9.2934e-16 0)
(3 -2.84503e-16 0)
(3 -1.61441e-18 0)
(3 1.91929e-16 0)
(3 -3.69996e-16 0)
(3 -2.42574e-16 0)
(3 3.75412e-16 0)
(3 8.45908e-16 0)
(3 1.32515e-15 0)
(3 3.994e-16 0)
(3 -1.81152e-15 0)
(3 -3.16933e-15 0)
(3 -3.17438e-15 0)
(3 -6.86784e-16 0)
(3 9.77889e-16 0)
(3 -6.50403e-17 0)
(3 -4.96444e-16 0)
(3 -4.63922e-16 0)
(3 -1.19717e-16 0)
(3 -1.57779e-16 0)
(3 8.2283e-16 0)
(3 8.44722e-16 0)
(3 4.14319e-16 0)
(3 2.12279e-16 0)
(3 -1.10872e-15 0)
(3 -1.16643e-15 0)
(3 -9.38474e-16 0)
(3 -8.0211e-16 0)
(3 -6.74447e-17 0)
(3 6.76619e-16 0)
(3 9.33937e-16 0)
(3 1.22377e-16 0)
(3 -1.00019e-16 0)
(3 -1.53833e-15 0)
(3 -1.60052e-15 0)
(3 -1.07961e-15 0)
(3 -1.20093e-15 0)
(3 -3.31089e-16 0)
(3 2.86118e-16 0)
(3 4.39919e-16 0)
(3 1.44987e-17 0)
(3 -2.45634e-16 0)
(3 -4.93977e-16 0)
(3 -6.83292e-16 0)
(3 -1.19506e-15 0)
(3 -9.79735e-16 0)
(3 -4.25288e-16 0)
(3 -2.91999e-16 0)
(3 -1.44339e-16 0)
(3 6.18746e-18 0)
(3 -4.57632e-16 0)
(3 -1.57383e-16 0)
(3 4.50652e-16 0)
(3 4.02674e-16 0)
(3 -3.19129e-19 0)
(3 2.91557e-16 0)
(3 6.752e-16 0)
(3 -3.20984e-16 0)
(3 -2.70856e-15 0)
(3 -4.1461e-15 0)
(3 -2.14394e-15 0)
(3 -1.28051e-15 0)
(3 -7.05695e-16 0)
(3 -9.175e-16 0)
(3 -9.22448e-16 0)
(3 -6.75535e-16 0)
(3 -1.08864e-15 0)
(3 -1.27565e-15 0)
(3 -1.90932e-16 0)
(3 2.06517e-16 0)
(3 1.6217e-16 0)
(3 -4.26125e-16 0)
(3 -8.08019e-17 0)
(3 1.36058e-17 0)
(3 -4.64836e-17 0)
(3 -2.35508e-16 0)
(3 -8.37637e-16 0)
(3 -5.19471e-16 0)
(3 -4.2256e-16 0)
(3 -1.48513e-16 0)
(3 -3.83804e-16 0)
(3 3.69834e-16 0)
(3 3.53242e-16 0)
(3 -1.77909e-15 0)
(3 -2.21e-15 0)
(3 -1.80544e-15 0)
(3 -1.23193e-15 0)
(3 -3.73636e-15 0)
(3 6.47786e-17 0)
(3 -6.39101e-16 0)
(3 -1.21648e-15 0)
(3 -1.38366e-15 0)
(3 -1.42363e-15 0)
(3 -1.36907e-15 0)
(3 -9.72449e-16 0)
(3 -8.05377e-17 0)
(3 7.26852e-16 0)
(3 1.49308e-15 0)
(3 1.07406e-15 0)
(3 7.18849e-16 0)
(3 1.03091e-15 0)
(3 9.89222e-16 0)
(3 6.22831e-16 0)
(3 7.0943e-16 0)
(3 8.80459e-16 0)
(3 7.32441e-16 0)
(3 2.02325e-16 0)
(3 2.80864e-16 0)
(3 -8.08544e-16 0)
(3 -1.8986e-15 0)
(3 -1.84748e-15 0)
(3 -1.34901e-15 0)
(3 -7.11541e-16 0)
(3 -5.98483e-16 0)
(3 -9.0646e-16 0)
(3 -1.49791e-15 0)
(3 -1.33542e-15 0)
(3 -1.26014e-16 0)
(3 2.03213e-16 0)
(3 5.1504e-16 0)
(3 6.6737e-16 0)
(3 7.17999e-16 0)
(3 8.64956e-16 0)
(3 4.62006e-16 0)
(3 1.25253e-16 0)
(3 1.14996e-15 0)
(3 1.43444e-15 0)
(3 5.1785e-16 0)
(3 8.16388e-16 0)
(3 2.39214e-15 0)
(3 7.58154e-16 0)
(3 9.9538e-16 0)
(3 5.18688e-16 0)
(3 6.59283e-16 0)
(3 1.10396e-15 0)
(3 -1.0949e-15 0)
(3 -3.7495e-17 0)
(3 -1.62213e-16 0)
(3 -2.41479e-16 0)
(3 -4.57456e-16 0)
(3 -2.47472e-16 0)
(3 -8.89369e-16 0)
(3 -1.46999e-15 0)
(3 1.91772e-18 0)
(3 4.70019e-16 0)
(3 8.18292e-16 0)
(3 2.08915e-15 0)
(3 2.70531e-15 0)
(3 2.50148e-15 0)
(3 1.65251e-15 0)
(3 1.86247e-15 0)
(3 1.24465e-15 0)
(3 1.43673e-15 0)
(3 1.65814e-15 0)
(3 1.71835e-15 0)
(3 1.79525e-15 0)
(3 -1.51405e-16 0)
(3 -1.72296e-15 0)
(3 -1.51062e-15 0)
(3 1.89049e-16 0)
(3 1.25225e-15 0)
(3 1.98433e-16 0)
(3 -5.13051e-16 0)
(3 -7.69168e-16 0)
(3 -7.20476e-16 0)
(3 -4.27667e-16 0)
(3 -3.51564e-17 0)
(3 1.36239e-16 0)
(3 4.52324e-17 0)
(3 1.66906e-16 0)
(3 4.37694e-16 0)
(3 7.21596e-17 0)
(3 -3.60246e-16 0)
(3 7.07263e-16 0)
(3 4.81498e-16 0)
(3 2.5836e-16 0)
(3 1.84195e-15 0)
(3 2.80495e-15 0)
(3 1.9634e-15 0)
(3 2.34494e-15 0)
(3 2.66019e-15 0)
(3 2.44193e-15 0)
(3 6.28027e-16 0)
(3 -7.73264e-16 0)
(3 -2.02541e-17 0)
(3 5.80362e-17 0)
(3 3.46995e-16 0)
(3 8.22361e-16 0)
(3 2.06504e-15 0)
(3 1.58428e-15 0)
(3 3.4747e-16 0)
(3 6.62641e-16 0)
(3 1.02315e-15 0)
(3 6.40999e-16 0)
(3 1.05987e-15 0)
(3 1.44879e-15 0)
(3 1.93453e-15 0)
(3 1.69384e-15 0)
(3 1.20371e-15 0)
(3 4.22767e-16 0)
(3 1.71851e-17 0)
(3 1.00807e-15 0)
(3 2.49699e-15 0)
(3 2.69798e-15 0)
(3 1.45603e-15 0)
(3 4.68835e-16 0)
(3 3.96428e-16 0)
(3 9.40978e-16 0)
(3 1.38804e-15 0)
(3 -5.54391e-17 0)
(3 -2.70196e-16 0)
(3 -3.37178e-16 0)
(3 -1.41352e-16 0)
(3 -1.2582e-16 0)
(3 -3.67872e-16 0)
(3 -5.05976e-16 0)
(3 -4.03899e-16 0)
(3 -1.43552e-16 0)
(3 2.61716e-16 0)
(3 2.83081e-16 0)
(3 -3.72847e-16 0)
(3 6.52506e-16 0)
(3 5.18632e-16 0)
(3 9.8209e-16 0)
(3 3.23621e-15 0)
(3 5.05833e-15 0)
(3 5.23362e-15 0)
(3 3.22366e-15 0)
(3 2.70926e-15 0)
(3 2.927e-15 0)
(3 2.61568e-15 0)
(3 1.66573e-15 0)
(3 6.73739e-17 0)
(3 2.53771e-16 0)
(3 5.40237e-16 0)
(3 7.97045e-16 0)
(3 6.59376e-16 0)
(3 4.48595e-16 0)
(3 5.9198e-16 0)
(3 1.45922e-16 0)
(3 -2.93109e-16 0)
(3 -3.63817e-16 0)
(3 -1.08054e-15 0)
(3 -1.94942e-15 0)
(3 -1.71953e-15 0)
(3 -1.16977e-15 0)
(3 -9.76656e-16 0)
(3 -5.74368e-16 0)
(3 -3.48193e-16 0)
(3 1.23274e-15 0)
(3 3.55328e-15 0)
(3 4.48438e-15 0)
(3 3.71493e-15 0)
(3 1.7734e-15 0)
(3 1.28883e-15 0)
(3 9.1565e-16 0)
(3 9.16138e-16 0)
(3 3.91188e-16 0)
(3 -4.4468e-16 0)
(3 -1.71084e-16 0)
(3 4.66186e-16 0)
(3 4.62387e-16 0)
(3 3.35266e-16 0)
(3 5.61913e-16 0)
(3 -7.53182e-17 0)
(3 -3.92687e-16 0)
(3 7.30577e-16 0)
(3 9.58082e-16 0)
(3 5.02223e-16 0)
(3 -4.94882e-16 0)
(3 1.12652e-15 0)
(3 2.86362e-15 0)
(3 2.97505e-15 0)
(3 4.41522e-15 0)
(3 4.64219e-15 0)
(3 3.87582e-15 0)
(3 3.13864e-15 0)
(3 4.46825e-15 0)
(3 5.45048e-15 0)
(3 4.90086e-15 0)
(3 -9.54282e-17 0)
(3 1.37262e-16 0)
(3 3.49349e-16 0)
(3 -4.00554e-17 0)
(3 -1.27742e-15 0)
(3 -9.19769e-16 0)
(3 -2.19344e-16 0)
(3 -4.49253e-16 0)
(3 -1.19025e-15 0)
(3 -1.48431e-15 0)
(3 -1.57204e-15 0)
(3 -2.01768e-15 0)
(3 -2.60063e-15 0)
(3 -2.69042e-15 0)
(3 -1.59124e-15 0)
(3 2.54773e-16 0)
(3 4.53096e-16 0)
(3 7.03604e-16 0)
(3 2.24008e-15 0)
(3 3.91951e-15 0)
(3 3.11956e-15 0)
(3 1.83607e-15 0)
(3 1.30598e-15 0)
(3 1.44507e-15 0)
(3 1.4841e-15 0)
(3 1.726e-15 0)
(3 -3.97202e-16 0)
(3 -6.81666e-16 0)
(3 3.32511e-16 0)
(3 1.42354e-15 0)
(3 8.70697e-16 0)
(3 2.13773e-16 0)
(3 3.94651e-17 0)
(3 -1.74821e-16 0)
(3 3.38117e-16 0)
(3 7.15922e-16 0)
(3 -1.25943e-16 0)
(3 -2.03207e-15 0)
(3 -7.70025e-16 0)
(3 4.13797e-16 0)
(3 1.43767e-15 0)
(3 3.23419e-15 0)
(3 3.29954e-15 0)
(3 3.03991e-15 0)
(3 3.44485e-15 0)
(3 5.1463e-15 0)
(3 6.17489e-15 0)
(3 5.96852e-15 0)
(3 -1.58739e-17 0)
(3 -7.87709e-17 0)
(3 1.6561e-17 0)
(3 -7.25246e-16 0)
(3 -1.67623e-15 0)
(3 -1.3732e-15 0)
(3 -9.45624e-16 0)
(3 -4.76351e-16 0)
(3 -3.37864e-16 0)
(3 2.28454e-16 0)
(3 9.68791e-16 0)
(3 4.62626e-16 0)
(3 -4.39568e-16 0)
(3 -5.5669e-16 0)
(3 -9.1804e-16 0)
(3 -8.85496e-16 0)
(3 -1.32278e-15 0)
(3 -1.06259e-15 0)
(3 9.656e-16 0)
(3 1.51058e-15 0)
(3 5.84736e-16 0)
(3 1.56682e-16 0)
(3 4.0747e-16 0)
(3 6.98835e-16 0)
(3 5.16214e-16 0)
(3 5.80732e-17 0)
(3 -1.03351e-15 0)
(3 -1.65966e-15 0)
(3 -1.85681e-15 0)
(3 -9.30133e-16 0)
(3 3.93081e-16 0)
(3 1.68392e-16 0)
(3 5.06467e-16 0)
(3 -4.44242e-16 0)
(3 -1.49698e-15 0)
(3 -4.82674e-16 0)
(3 -6.81972e-16 0)
(3 -6.96878e-16 0)
(3 -8.15064e-16 0)
(3 -3.58232e-16 0)
(3 2.72429e-15 0)
(3 3.29702e-15 0)
(3 4.12976e-15 0)
(3 4.544e-15 0)
(3 4.1252e-15 0)
(3 2.33941e-15 0)
(3 2.13882e-15 0)
(3 3.94892e-15 0)
(3 1.87656e-16 0)
(3 2.0631e-16 0)
(3 -2.20687e-18 0)
(3 -5.38245e-16 0)
(3 -7.28598e-16 0)
(3 -4.56424e-16 0)
(3 -1.24201e-16 0)
(3 2.51416e-16 0)
(3 1.45519e-15 0)
(3 1.97845e-15 0)
(3 1.56948e-15 0)
(3 4.50291e-16 0)
(3 1.4208e-16 0)
(3 6.36386e-16 0)
(3 9.48018e-16 0)
(3 4.16655e-16 0)
(3 3.10687e-16 0)
(3 8.34773e-16 0)
(3 4.78562e-16 0)
(3 -6.06018e-16 0)
(3 -2.22272e-15 0)
(3 -2.27012e-15 0)
(3 -2.0928e-15 0)
(3 -2.47255e-15 0)
(3 -1.39876e-15 0)
(3 -9.0291e-16 0)
(3 -6.85346e-16 0)
(3 -7.57768e-16 0)
(3 -1.60219e-15 0)
(3 -2.33952e-15 0)
(3 -1.93012e-15 0)
(3 5.82316e-16 0)
(3 5.85965e-16 0)
(3 -7.72074e-16 0)
(3 -3.55044e-15 0)
(3 -2.34824e-15 0)
(3 4.59605e-16 0)
(3 8.97263e-16 0)
(3 -9.97104e-16 0)
(3 9.94825e-16 0)
(3 2.18848e-15 0)
(3 1.96204e-15 0)
(3 3.49491e-15 0)
(3 3.99768e-15 0)
(3 3.6223e-15 0)
(3 1.22751e-15 0)
(3 -1.19918e-15 0)
(3 -2.29146e-15 0)
(3 -1.97049e-16 0)
(3 -2.91444e-16 0)
(3 -1.78843e-16 0)
(3 -1.89725e-16 0)
(3 3.77264e-16 0)
(3 8.84814e-16 0)
(3 1.20914e-15 0)
(3 -2.13888e-16 0)
(3 2.14531e-16 0)
(3 1.13456e-16 0)
(3 -5.41248e-16 0)
(3 -3.91222e-16 0)
(3 -2.87954e-16 0)
(3 6.55142e-16 0)
(3 1.33339e-15 0)
(3 9.28388e-16 0)
(3 8.91846e-16 0)
(3 2.74109e-16 0)
(3 -2.69389e-16 0)
(3 -5.3068e-16 0)
(3 -5.0869e-16 0)
(3 -1.14367e-15 0)
(3 -1.67116e-15 0)
(3 -2.71215e-15 0)
(3 -2.09705e-15 0)
(3 -1.47936e-15 0)
(3 2.00043e-16 0)
(3 -1.5579e-16 0)
(3 -4.18065e-16 0)
(3 -2.09187e-15 0)
(3 -2.86251e-15 0)
(3 -2.55717e-15 0)
(3 -6.77048e-16 0)
(3 -9.51484e-16 0)
(3 -1.81474e-15 0)
(3 -2.02588e-15 0)
(3 8.53448e-16 0)
(3 1.58937e-15 0)
(3 6.69759e-16 0)
(3 -9.02529e-17 0)
(3 2.73492e-16 0)
(3 1.77209e-16 0)
(3 6.70133e-16 0)
(3 -2.09075e-16 0)
(3 -5.0894e-16 0)
(3 -1.38417e-15 0)
(3 -4.21e-15 0)
(3 -4.8441e-15 0)
(3 -1.37532e-16 0)
(3 -4.72664e-16 0)
(3 -3.68488e-16 0)
(3 -2.09613e-16 0)
(3 -3.82037e-17 0)
(3 -8.83703e-16 0)
(3 -1.45116e-15 0)
(3 -1.25376e-15 0)
(3 -7.14946e-16 0)
(3 -7.18763e-16 0)
(3 -6.60716e-16 0)
(3 2.15988e-16 0)
(3 1.19254e-15 0)
(3 9.54405e-16 0)
(3 -2.51226e-16 0)
(3 -8.69916e-16 0)
(3 -1.21281e-15 0)
(3 -2.48967e-15 0)
(3 -2.48241e-15 0)
(3 -1.43394e-15 0)
(3 -2.39177e-17 0)
(3 1.43716e-15 0)
(3 9.6443e-16 0)
(3 -1.12045e-15 0)
(3 -1.74549e-15 0)
(3 -2.36761e-15 0)
(3 -1.99254e-15 0)
(3 -2.034e-15 0)
(3 -2.7392e-15 0)
(3 -2.95294e-15 0)
(3 -1.90315e-15 0)
(3 -1.32005e-15 0)
(3 -6.40793e-16 0)
(3 6.37436e-16 0)
(3 5.8784e-16 0)
(3 4.64826e-17 0)
(3 1.02092e-15 0)
(3 1.23478e-15 0)
(3 8.59744e-16 0)
(3 3.85151e-17 0)
(3 -1.11948e-16 0)
(3 -1.13699e-16 0)
(3 -6.4e-16 0)
(3 -5.55073e-16 0)
(3 -1.87958e-15 0)
(3 -3.04958e-15 0)
(3 -3.30046e-15 0)
(3 -3.8047e-15 0)
(3 5.91783e-17 0)
(3 -3.18536e-18 0)
(3 8.69307e-17 0)
(3 7.61336e-16 0)
(3 4.05204e-16 0)
(3 -1.61453e-15 0)
(3 -2.14904e-15 0)
(3 -1.67796e-15 0)
(3 -4.60192e-16 0)
(3 -2.38953e-17 0)
(3 3.07689e-16 0)
(3 1.00504e-15 0)
(3 2.04162e-15 0)
(3 1.50738e-15 0)
(3 3.48981e-16 0)
(3 -8.50926e-16 0)
(3 -1.17757e-15 0)
(3 -1.77235e-15 0)
(3 -2.52628e-15 0)
(3 -2.08923e-15 0)
(3 -5.92314e-17 0)
(3 1.9074e-15 0)
(3 1.95413e-15 0)
(3 -1.25872e-15 0)
(3 -1.88299e-15 0)
(3 -2.40862e-15 0)
(3 -2.62169e-15 0)
(3 -2.70647e-15 0)
(3 -3.66212e-15 0)
(3 -3.20654e-15 0)
(3 4.77185e-16 0)
(3 3.33312e-15 0)
(3 2.92564e-15 0)
(3 3.18447e-15 0)
(3 2.77069e-15 0)
(3 1.73146e-15 0)
(3 4.76184e-16 0)
(3 -3.09946e-16 0)
(3 -1.67034e-16 0)
(3 8.52326e-16 0)
(3 -1.16406e-15 0)
(3 -1.65849e-15 0)
(3 -2.68738e-15 0)
(3 -3.75697e-15 0)
(3 -2.76622e-15 0)
(3 -1.44992e-15 0)
(3 -1.83605e-15 0)
(3 -2.21241e-15 0)
(3 1.01128e-16 0)
(3 6.8387e-17 0)
(3 2.07315e-16 0)
(3 8.25355e-16 0)
(3 2.60371e-16 0)
(3 -3.85063e-16 0)
(3 -2.12549e-16 0)
(3 4.37808e-16 0)
(3 3.80488e-16 0)
(3 5.31784e-16 0)
(3 6.16081e-16 0)
(3 3.03491e-16 0)
(3 3.22605e-16 0)
(3 2.91524e-16 0)
(3 -2.49936e-16 0)
(3 -1.61343e-15 0)
(3 -1.41282e-15 0)
(3 -4.74858e-16 0)
(3 -1.08196e-15 0)
(3 -1.1704e-15 0)
(3 -7.00306e-16 0)
(3 -1.17226e-15 0)
(3 -1.17873e-15 0)
(3 -9.41636e-16 0)
(3 -7.83279e-16 0)
(3 -9.01646e-16 0)
(3 -1.70949e-15 0)
(3 -2.50768e-15 0)
(3 -2.7818e-15 0)
(3 -1.21586e-15 0)
(3 3.49992e-15 0)
(3 6.74781e-15 0)
(3 7.78876e-15 0)
(3 6.35529e-15 0)
(3 4.75134e-15 0)
(3 1.93652e-15 0)
(3 -1.99073e-15 0)
(3 -3.0995e-15 0)
(3 -2.32124e-15 0)
(3 3.21212e-17 0)
(3 -9.00848e-16 0)
(3 -2.76955e-15 0)
(3 -4.44384e-15 0)
(3 -4.91108e-15 0)
(3 -3.58544e-15 0)
(3 -2.25292e-15 0)
(3 -2.08524e-15 0)
(3 -1.62464e-15 0)
(3 2.91724e-17 0)
(3 3.09639e-16 0)
(3 2.01823e-16 0)
(3 -2.75869e-16 0)
(3 2.46339e-16 0)
(3 5.86183e-16 0)
(3 5.75335e-16 0)
(3 1.00284e-15 0)
(3 1.13145e-15 0)
(3 7.35316e-16 0)
(3 -2.8347e-17 0)
(3 -1.6815e-16 0)
(3 -1.17532e-16 0)
(3 -2.3377e-16 0)
(3 -1.62849e-15 0)
(3 -2.3894e-15 0)
(3 -2.33283e-15 0)
(3 9.69847e-16 0)
(3 2.37369e-15 0)
(3 1.83002e-15 0)
(3 -1.41835e-16 0)
(3 -2.06716e-15 0)
(3 -2.07501e-15 0)
(3 -2.11631e-16 0)
(3 9.44288e-16 0)
(3 7.19108e-16 0)
(3 6.28725e-17 0)
(3 -2.4624e-16 0)
(3 -1.32015e-15 0)
(3 -7.72681e-16 0)
(3 1.28465e-15 0)
(3 2.27663e-15 0)
(3 4.67883e-15 0)
(3 4.30982e-15 0)
(3 2.13824e-15 0)
(3 1.01064e-15 0)
(3 -1.43494e-15 0)
(3 -3.80637e-15 0)
(3 -3.69071e-15 0)
(3 -3.37575e-15 0)
(3 -4.03329e-15 0)
(3 -4.43273e-15 0)
(3 -4.91407e-15 0)
(3 -4.01947e-15 0)
(3 -2.97718e-15 0)
(3 -2.67885e-15 0)
(3 -2.01662e-15 0)
(3 -4.20124e-16 0)
(3 -7.68327e-17 0)
(3 -6.21804e-17 0)
(3 -4.72199e-17 0)
(3 -1.3505e-16 0)
(3 8.96247e-16 0)
(3 1.3623e-15 0)
(3 1.74189e-15 0)
(3 1.81543e-15 0)
(3 1.46948e-15 0)
(3 -2.4874e-16 0)
(3 -5.23732e-16 0)
(3 3.71118e-16 0)
(3 5.27801e-16 0)
(3 -1.14188e-16 0)
(3 -1.12603e-15 0)
(3 -1.5394e-15 0)
(3 -3.97309e-16 0)
(3 2.83895e-15 0)
(3 3.40667e-15 0)
(3 3.12711e-15 0)
(3 6.45777e-16 0)
(3 -1.12787e-15 0)
(3 -1.56042e-15 0)
(3 -5.23997e-16 0)
(3 9.23597e-16 0)
(3 8.20129e-16 0)
(3 8.51943e-16 0)
(3 6.89456e-16 0)
(3 3.89075e-16 0)
(3 4.31449e-16 0)
(3 -4.47631e-16 0)
(3 -1.19062e-15 0)
(3 -9.21178e-16 0)
(3 -4.3401e-17 0)
(3 1.16431e-15 0)
(3 1.5947e-15 0)
(3 9.84782e-16 0)
(3 2.68731e-16 0)
(3 3.95384e-16 0)
(3 -3.01543e-15 0)
(3 -5.5106e-15 0)
(3 -6.982e-15 0)
(3 -7.04048e-15 0)
(3 -6.70632e-15 0)
(3 -6.20697e-15 0)
(3 -5.26215e-15 0)
(3 -4.20162e-15 0)
(3 -2.41319e-15 0)
(3 3.32347e-17 0)
(3 -7.02007e-17 0)
(3 -3.93266e-16 0)
(3 -6.02062e-16 0)
(3 2.67988e-16 0)
(3 1.56185e-15 0)
(3 2.24601e-15 0)
(3 2.17937e-15 0)
(3 8.47211e-16 0)
(3 -3.22145e-16 0)
(3 -7.9822e-16 0)
(3 -2.1378e-16 0)
(3 -1.72507e-16 0)
(3 -2.97511e-16 0)
(3 -8.10809e-16 0)
(3 -1.12303e-15 0)
(3 -9.0693e-16 0)
(3 7.51215e-16 0)
(3 9.73217e-16 0)
(3 5.96199e-16 0)
(3 -1.3344e-16 0)
(3 -1.07856e-15 0)
(3 -2.83519e-16 0)
(3 6.54124e-16 0)
(3 1.40949e-15 0)
(3 1.52462e-15 0)
(3 1.85841e-15 0)
(3 1.14469e-15 0)
(3 1.95175e-15 0)
(3 1.1322e-15 0)
(3 -2.92566e-15 0)
(3 -5.04908e-15 0)
(3 -4.74239e-15 0)
(3 -2.54315e-15 0)
(3 -1.63567e-15 0)
(3 -4.03091e-16 0)
(3 1.40466e-15 0)
(3 2.13098e-15 0)
(3 2.29997e-15 0)
(3 3.71412e-16 0)
(3 -6.20125e-15 0)
(3 -9.12758e-15 0)
(3 -7.82385e-15 0)
(3 -6.92677e-15 0)
(3 -7.87262e-15 0)
(3 -5.72335e-15 0)
(3 -5.02491e-15 0)
(3 -5.17243e-15 0)
(3 2.80149e-16 0)
(3 1.7607e-16 0)
(3 -3.78256e-17 0)
(3 5.70715e-16 0)
(3 8.04731e-16 0)
(3 1.33461e-15 0)
(3 -4.57768e-17 0)
(3 -1.28056e-15 0)
(3 -1.66074e-15 0)
(3 -1.31469e-15 0)
(3 -5.93005e-16 0)
(3 -6.70523e-16 0)
(3 -4.93738e-16 0)
(3 -6.45648e-16 0)
(3 -7.88678e-16 0)
(3 -1.69586e-15 0)
(3 -3.04175e-15 0)
(3 -2.96512e-15 0)
(3 -2.79545e-15 0)
(3 -1.88346e-15 0)
(3 9.15032e-16 0)
(3 1.69937e-15 0)
(3 1.83532e-15 0)
(3 1.86851e-15 0)
(3 1.45673e-15 0)
(3 1.12715e-15 0)
(3 1.00934e-15 0)
(3 1.63245e-15 0)
(3 1.61586e-15 0)
(3 9.54794e-16 0)
(3 -8.56025e-16 0)
(3 -4.47527e-15 0)
(3 -5.08563e-15 0)
(3 -4.34785e-15 0)
(3 -3.84216e-15 0)
(3 -2.89344e-15 0)
(3 -1.45633e-15 0)
(3 5.06122e-16 0)
(3 8.15653e-17 0)
(3 -1.54983e-15 0)
(3 -2.10459e-15 0)
(3 -3.64207e-15 0)
(3 -7.60612e-15 0)
(3 -4.97087e-15 0)
(3 -2.11173e-15 0)
(3 -1.24169e-15 0)
(3 -1.35855e-15 0)
(3 -1.78645e-15 0)
(3 2.14192e-16 0)
(3 3.18953e-16 0)
(3 7.51481e-16 0)
(3 1.50757e-15 0)
(3 2.44592e-15 0)
(3 7.92199e-16 0)
(3 -1.87397e-15 0)
(3 -2.88449e-15 0)
(3 -3.45604e-15 0)
(3 -1.6137e-15 0)
(3 -8.65366e-16 0)
(3 -1.86216e-15 0)
(3 -1.84638e-15 0)
(3 -6.04261e-16 0)
(3 -2.71813e-16 0)
(3 -7.74021e-16 0)
(3 -1.94686e-15 0)
(3 -2.7319e-15 0)
(3 -2.16967e-15 0)
(3 -1.30197e-15 0)
(3 8.10114e-16 0)
(3 2.63836e-15 0)
(3 2.31104e-15 0)
(3 8.67362e-16 0)
(3 2.83808e-16 0)
(3 3.95688e-16 0)
(3 4.24864e-16 0)
(3 7.98298e-16 0)
(3 1.87552e-15 0)
(3 3.21179e-15 0)
(3 3.09024e-15 0)
(3 4.81845e-16 0)
(3 -1.78541e-15 0)
(3 -3.01872e-15 0)
(3 -3.09805e-15 0)
(3 -2.99521e-15 0)
(3 -3.62186e-15 0)
(3 -2.84826e-15 0)
(3 -3.55888e-15 0)
(3 -4.92969e-15 0)
(3 -4.6744e-15 0)
(3 -4.51486e-15 0)
(3 -4.55744e-15 0)
(3 -3.91582e-15 0)
(3 -8.10905e-16 0)
(3 -3.30512e-16 0)
(3 -2.72512e-16 0)
(3 3.26594e-16 0)
(3 4.10048e-17 0)
(3 3.59735e-16 0)
(3 1.72024e-16 0)
(3 -2.32897e-16 0)
(3 -1.3036e-16 0)
(3 -8.98908e-16 0)
(3 -1.16199e-15 0)
(3 -5.86778e-16 0)
(3 -1.39139e-16 0)
(3 -8.00035e-16 0)
(3 -1.20368e-15 0)
(3 -1.0644e-15 0)
(3 -1.16153e-15 0)
(3 -8.28206e-16 0)
(3 -7.06088e-16 0)
(3 -3.45798e-16 0)
(3 -1.78647e-18 0)
(3 -9.28361e-16 0)
(3 -9.30784e-16 0)
(3 -4.57565e-16 0)
(3 -6.7926e-16 0)
(3 1.84738e-16 0)
(3 1.36124e-15 0)
(3 1.34752e-15 0)
(3 1.61616e-15 0)
(3 1.70226e-15 0)
(3 1.65664e-15 0)
(3 1.50394e-15 0)
(3 3.39423e-15 0)
(3 4.9128e-15 0)
(3 3.99487e-15 0)
(3 7.65418e-16 0)
(3 -5.82951e-16 0)
(3 -1.76429e-15 0)
(3 -1.80156e-15 0)
(3 -1.60999e-15 0)
(3 -2.11064e-15 0)
(3 -2.71237e-15 0)
(3 -2.84503e-15 0)
(3 -2.61816e-15 0)
(3 -2.9458e-15 0)
(3 -2.07204e-15 0)
(3 2.18252e-16 0)
(3 -4.99247e-17 0)
(3 -2.96224e-15 0)
(3 -2.33399e-15 0)
(3 -1.02451e-15 0)
(3 5.56176e-16 0)
(3 -2.34371e-16 0)
(3 -2.09833e-16 0)
(3 -3.97591e-16 0)
(3 -8.29845e-16 0)
(3 -8.91872e-16 0)
(3 -6.30642e-16 0)
(3 -3.55287e-16 0)
(3 -6.37344e-16 0)
(3 -3.54841e-16 0)
(3 -3.79999e-16 0)
(3 -4.49772e-16 0)
(3 -1.82838e-16 0)
(3 -7.48531e-16 0)
(3 -6.13256e-16 0)
(3 7.75664e-16 0)
(3 6.78693e-16 0)
(3 2.89697e-16 0)
(3 -3.41225e-17 0)
(3 6.69153e-16 0)
(3 1.01593e-15 0)
(3 8.0125e-16 0)
(3 7.54951e-16 0)
(3 1.15254e-15 0)
(3 1.67135e-15 0)
(3 1.7121e-15 0)
(3 1.01155e-15 0)
(3 8.99435e-16 0)
(3 1.59979e-15 0)
(3 3.73707e-15 0)
(3 3.76459e-15 0)
(3 2.61389e-15 0)
(3 1.03661e-16 0)
(3 -4.66525e-16 0)
(3 -4.55709e-16 0)
(3 -1.24664e-16 0)
(3 -4.32546e-16 0)
(3 -1.00983e-15 0)
(3 -1.28579e-15 0)
(3 -1.60995e-15 0)
(3 -2.56318e-15 0)
(3 -3.12399e-15 0)
(3 9.03693e-16 0)
(3 4.08954e-15 0)
(3 2.55628e-15 0)
(3 -2.63567e-15 0)
(3 -4.43315e-15 0)
(3 -3.47034e-15 0)
(3 -1.1393e-15 0)
(3 -1.88887e-16 0)
(3 -4.40605e-16 0)
(3 1.93909e-16 0)
(3 2.37238e-16 0)
(3 -2.72148e-16 0)
(3 -2.37112e-16 0)
(3 -2.8361e-16 0)
(3 -1.49458e-15 0)
(3 -2.33099e-15 0)
(3 -1.43793e-15 0)
(3 -5.35321e-16 0)
(3 -3.60178e-16 0)
(3 -5.4515e-16 0)
(3 -1.7295e-16 0)
(3 6.20791e-16 0)
(3 6.01336e-16 0)
(3 -4.77624e-16 0)
(3 2.38658e-16 0)
(3 9.95677e-16 0)
(3 9.84144e-16 0)
(3 1.78919e-15 0)
(3 1.84953e-15 0)
(3 2.13973e-15 0)
(3 1.71303e-15 0)
(3 1.56967e-15 0)
(3 1.2385e-15 0)
(3 1.26846e-15 0)
(3 1.53148e-15 0)
(3 1.8319e-15 0)
(3 1.6304e-15 0)
(3 1.36218e-15 0)
(3 2.50011e-16 0)
(3 4.00764e-16 0)
(3 1.04285e-15 0)
(3 1.47124e-15 0)
(3 1.63431e-15 0)
(3 1.05375e-15 0)
(3 -3.87332e-17 0)
(3 -3.89217e-16 0)
(3 -1.30789e-15 0)
(3 -2.36853e-16 0)
(3 3.29963e-15 0)
(3 4.67302e-15 0)
(3 4.82566e-15 0)
(3 1.33969e-15 0)
(3 -5.7031e-15 0)
(3 -4.38758e-15 0)
(3 -1.48918e-15 0)
(3 -1.21158e-16 0)
(3 2.93335e-16 0)
(3 5.45338e-16 0)
(3 6.40517e-16 0)
(3 2.11203e-16 0)
(3 -3.99359e-17 0)
(3 4.55899e-16 0)
(3 3.83238e-16 0)
(3 -7.00331e-16 0)
(3 -2.84286e-16 0)
(3 -1.2748e-16 0)
(3 -4.08677e-17 0)
(3 -7.45199e-17 0)
(3 4.39194e-16 0)
(3 4.32489e-16 0)
(3 5.31639e-16 0)
(3 2.9143e-16 0)
(3 1.83551e-16 0)
(3 3.44811e-16 0)
(3 6.49533e-16 0)
(3 1.55593e-15 0)
(3 1.43769e-15 0)
(3 1.12829e-15 0)
(3 1.31595e-15 0)
(3 1.5626e-15 0)
(3 2.61816e-15 0)
(3 3.04603e-15 0)
(3 2.61865e-15 0)
(3 5.64324e-16 0)
(3 -1.35807e-16 0)
(3 -2.88621e-16 0)
(3 -4.65967e-17 0)
(3 4.80129e-16 0)
(3 1.11425e-15 0)
(3 1.49447e-15 0)
(3 2.17919e-15 0)
(3 3.92112e-15 0)
(3 3.44168e-15 0)
(3 1.43088e-15 0)
(3 1.17293e-15 0)
(3 3.09435e-15 0)
(3 2.81447e-15 0)
(3 1.98094e-15 0)
(3 1.52104e-15 0)
(3 -5.21411e-17 0)
(3 -2.48163e-15 0)
(3 -2.72926e-15 0)
(3 -1.81445e-15 0)
(3 -5.62056e-17 0)
(3 3.71875e-16 0)
(3 1.11529e-16 0)
(3 -5.20735e-16 0)
(3 -2.0934e-16 0)
(3 -6.89209e-16 0)
(3 5.61138e-16 0)
(3 9.82409e-16 0)
(3 9.80323e-16 0)
(3 6.47852e-16 0)
(3 5.67725e-16 0)
(3 8.94052e-16 0)
(3 1.17528e-15 0)
(3 1.39782e-15 0)
(3 1.74656e-15 0)
(3 1.70663e-15 0)
(3 1.74091e-15 0)
(3 1.22342e-15 0)
(3 1.02369e-15 0)
(3 7.8321e-16 0)
(3 2.03508e-16 0)
(3 4.94032e-16 0)
(3 -4.0439e-17 0)
(3 7.90419e-16 0)
(3 1.89183e-15 0)
(3 2.55898e-15 0)
(3 3.47945e-15 0)
(3 3.35103e-15 0)
(3 1.81256e-15 0)
(3 3.5795e-16 0)
(3 2.15654e-16 0)
(3 1.01963e-15 0)
(3 5.53329e-16 0)
(3 -1.9698e-17 0)
(3 -6.01541e-17 0)
(3 4.36552e-16 0)
(3 1.57327e-16 0)
(3 -1.34157e-15 0)
(3 -1.3244e-15 0)
(3 7.2709e-16 0)
(3 4.0965e-15 0)
(3 -3.43303e-16 0)
(3 -1.46977e-15 0)
(3 -1.99084e-15 0)
(3 -1.91217e-15 0)
(3 -1.3405e-15 0)
(3 -5.78574e-16 0)
(3 -1.1004e-15 0)
(3 -2.08654e-17 0)
(3 -2.775e-16 0)
(3 -5.90942e-16 0)
(3 -7.57347e-16 0)
(3 -8.79155e-16 0)
(3 -5.32268e-16 0)
(3 -6.58724e-16 0)
(3 -1.25859e-16 0)
(3 8.64797e-16 0)
(3 1.50234e-15 0)
(3 3.57481e-15 0)
(3 3.40141e-15 0)
(3 3.36409e-15 0)
(3 2.60843e-15 0)
(3 1.76685e-15 0)
(3 1.57454e-15 0)
(3 8.29902e-16 0)
(3 1.60007e-16 0)
(3 -2.21858e-17 0)
(3 1.34459e-16 0)
(3 -4.6815e-16 0)
(3 -8.38442e-16 0)
(3 1.71541e-16 0)
(3 1.29046e-15 0)
(3 6.70611e-16 0)
(3 1.61338e-15 0)
(3 3.23211e-15 0)
(3 4.55593e-15 0)
(3 3.99188e-15 0)
(3 2.75441e-15 0)
(3 8.38804e-16 0)
(3 6.94334e-16 0)
(3 6.89016e-16 0)
(3 -5.88672e-16 0)
(3 -1.00339e-15 0)
(3 -1.47727e-15 0)
(3 -4.07714e-15 0)
(3 -3.59934e-15 0)
(3 -1.68855e-15 0)
(3 1.51439e-15 0)
(3 3.26038e-15 0)
(3 -7.23342e-16 0)
(3 -2.0699e-15 0)
(3 -3.23273e-15 0)
(3 -3.33896e-15 0)
(3 -2.52016e-15 0)
(3 -5.4094e-16 0)
(3 8.51773e-16 0)
(3 1.03492e-16 0)
(3 -4.32975e-16 0)
(3 -8.93363e-16 0)
(3 -7.04976e-16 0)
(3 -9.24795e-16 0)
(3 -1.1019e-16 0)
(3 6.9547e-16 0)
(3 4.44579e-16 0)
(3 4.02552e-16 0)
(3 1.49144e-15 0)
(3 1.98759e-15 0)
(3 2.58068e-15 0)
(3 3.1826e-15 0)
(3 2.70063e-15 0)
(3 2.20535e-15 0)
(3 1.36649e-15 0)
(3 3.49359e-16 0)
(3 -2.55095e-16 0)
(3 -3.16791e-16 0)
(3 1.64547e-16 0)
(3 4.50279e-16 0)
(3 4.65014e-17 0)
(3 1.36595e-16 0)
(3 2.50455e-16 0)
(3 1.27705e-16 0)
(3 4.27928e-16 0)
(3 -9.14508e-17 0)
(3 -5.74636e-16 0)
(3 -5.13279e-16 0)
(3 -8.00868e-16 0)
(3 -1.93451e-15 0)
(3 -1.76596e-15 0)
(3 -3.41944e-16 0)
(3 -3.55304e-16 0)
(3 -7.10158e-16 0)
(3 -1.89566e-15 0)
(3 -2.74423e-15 0)
(3 -2.44723e-15 0)
(3 -1.24426e-15 0)
(3 1.46622e-15 0)
(3 4.2797e-16 0)
(3 -2.50494e-15 0)
(3 -4.24649e-15 0)
(3 -4.61122e-15 0)
(3 -4.05783e-15 0)
(3 -2.35966e-15 0)
(3 -4.09762e-16 0)
(3 4.70393e-16 0)
(3 9.07517e-17 0)
(3 5.88135e-17 0)
(3 -1.32418e-16 0)
(3 -3.24485e-16 0)
(3 -3.149e-16 0)
(3 5.60623e-16 0)
(3 1.45657e-15 0)
(3 1.24241e-15 0)
(3 1.04463e-15 0)
(3 -6.07212e-17 0)
(3 -3.23175e-16 0)
(3 -1.63179e-16 0)
(3 2.55469e-16 0)
(3 6.05665e-16 0)
(3 9.09072e-16 0)
(3 6.2715e-16 0)
(3 -3.8439e-16 0)
(3 -2.55601e-17 0)
(3 9.79636e-16 0)
(3 1.23256e-15 0)
(3 1.0396e-15 0)
(3 7.30373e-16 0)
(3 -1.84202e-16 0)
(3 -1.52787e-15 0)
(3 -1.14543e-15 0)
(3 -5.3336e-16 0)
(3 -3.18046e-15 0)
(3 -5.57345e-15 0)
(3 -5.88683e-15 0)
(3 -4.3369e-15 0)
(3 -3.01008e-15 0)
(3 -2.03223e-15 0)
(3 -6.39613e-16 0)
(3 -4.16496e-16 0)
(3 -3.94633e-16 0)
(3 -8.9393e-16 0)
(3 -8.78563e-16 0)
(3 2.36723e-16 0)
(3 1.14955e-15 0)
(3 1.10676e-15 0)
(3 -1.88407e-15 0)
(3 -5.17406e-15 0)
(3 -6.04925e-15 0)
(3 -5.06738e-15 0)
(3 -3.10646e-15 0)
(3 -1.11966e-17 0)
(3 1.07612e-15 0)
(3 1.18415e-15 0)
(3 5.52824e-18 0)
(3 -6.74606e-17 0)
(3 -1.64189e-16 0)
(3 -4.64877e-16 0)
(3 -1.34859e-16 0)
(3 7.91145e-16 0)
(3 1.32169e-15 0)
(3 1.80815e-15 0)
(3 1.45138e-15 0)
(3 5.79008e-16 0)
(3 -5.68831e-16 0)
(3 -1.36961e-15 0)
(3 -1.89348e-15 0)
(3 -1.85866e-15 0)
(3 -6.36589e-16 0)
(3 -2.99052e-17 0)
(3 -5.60793e-16 0)
(3 -1.04336e-15 0)
(3 8.27018e-16 0)
(3 1.12261e-15 0)
(3 9.20611e-16 0)
(3 8.12791e-17 0)
(3 -7.79742e-16 0)
(3 -5.24048e-16 0)
(3 -4.29499e-16 0)
(3 -3.34149e-16 0)
(3 -8.20798e-16 0)
(3 -1.48417e-15 0)
(3 -1.49875e-15 0)
(3 -1.40912e-15 0)
(3 -1.33976e-15 0)
(3 -1.4373e-15 0)
(3 -1.3952e-15 0)
(3 -1.18183e-15 0)
(3 -7.69596e-16 0)
(3 -7.91727e-16 0)
(3 -8.2105e-16 0)
(3 -5.50732e-17 0)
(3 4.7556e-16 0)
(3 1.91523e-16 0)
(3 -1.51975e-15 0)
(3 -2.94113e-15 0)
(3 -2.93581e-15 0)
(3 -2.5429e-15 0)
(3 -1.07494e-15 0)
(3 1.99065e-15 0)
(3 3.51387e-15 0)
(3 2.67286e-15 0)
(3 -8.57507e-17 0)
(3 9.39474e-17 0)
(3 -1.10729e-16 0)
(3 -3.63756e-16 0)
(3 -4.68892e-16 0)
(3 -3.13301e-16 0)
(3 3.52344e-16 0)
(3 7.5141e-16 0)
(3 8.29787e-16 0)
(3 5.18286e-16 0)
(3 -3.55987e-16 0)
(3 -7.76706e-16 0)
(3 -1.97087e-15 0)
(3 -2.11606e-15 0)
(3 -1.35177e-15 0)
(3 -4.26751e-16 0)
(3 1.18547e-16 0)
(3 -7.47212e-16 0)
(3 1.13378e-15 0)
(3 2.56042e-15 0)
(3 2.9022e-15 0)
(3 1.65057e-15 0)
(3 8.75134e-16 0)
(3 9.54267e-16 0)
(3 5.99122e-16 0)
(3 3.36548e-16 0)
(3 4.21356e-16 0)
(3 -2.68933e-16 0)
(3 -1.90742e-16 0)
(3 -1.97751e-16 0)
(3 -4.15274e-16 0)
(3 -1.01112e-15 0)
(3 -1.42917e-15 0)
(3 -1.62324e-15 0)
(3 -1.33409e-15 0)
(3 -1.06968e-15 0)
(3 -1.50692e-15 0)
(3 -1.71937e-15 0)
(3 -6.05919e-16 0)
(3 -1.38745e-16 0)
(3 -2.90751e-17 0)
(3 -1.08247e-16 0)
(3 1.23767e-15 0)
(3 2.32335e-15 0)
(3 2.64496e-15 0)
(3 3.24937e-15 0)
(3 4.92772e-15 0)
(3 2.8923e-15 0)
(3 1.1133e-16 0)
(3 7.51e-17 0)
(3 -8.27822e-17 0)
(3 3.64903e-16 0)
(3 -2.71877e-16 0)
(3 -1.48342e-15 0)
(3 -1.55824e-15 0)
(3 -1.3583e-15 0)
(3 -1.50395e-15 0)
(3 -1.10382e-15 0)
(3 -1.30675e-15 0)
(3 -9.26951e-16 0)
(3 -8.03108e-16 0)
(3 -5.91745e-16 0)
(3 -4.00292e-16 0)
(3 -1.51564e-16 0)
(3 -6.75001e-18 0)
(3 -9.5401e-17 0)
(3 4.69583e-16 0)
(3 5.92284e-16 0)
(3 1.49217e-15 0)
(3 1.9179e-15 0)
(3 2.01685e-15 0)
(3 2.22893e-15 0)
(3 6.26726e-16 0)
(3 -8.03367e-16 0)
(3 -1.42476e-15 0)
(3 -1.85974e-15 0)
(3 -1.90811e-15 0)
(3 -1.22073e-15 0)
(3 -1.94567e-16 0)
(3 -2.70755e-16 0)
(3 -7.90754e-16 0)
(3 -9.37895e-16 0)
(3 -7.48326e-16 0)
(3 -3.30661e-16 0)
(3 -3.19089e-16 0)
(3 -3.79061e-16 0)
(3 1.0313e-15 0)
(3 1.84018e-15 0)
(3 2.93545e-15 0)
(3 3.24242e-15 0)
(3 3.86233e-15 0)
(3 3.69053e-15 0)
(3 1.52118e-15 0)
(3 1.54078e-15 0)
(3 6.98952e-16 0)
(3 -5.51117e-16 0)
(3 2.05627e-16 0)
(3 -3.72676e-17 0)
(3 -2.71131e-16 0)
(3 4.06401e-16 0)
(3 3.62557e-16 0)
(3 -2.49349e-16 0)
(3 -1.11529e-15 0)
(3 -1.34283e-15 0)