/*--------------------------------*- C++ -*----------------------------------*\
  =========                 |
  \\      /  F ield         | OpenFOAM: The Open Source CFD Toolbox
   \\    /   O peration     | Website:  https://openfoam.org
    \\  /    A nd           | Version:  7
     \\/     M anipulation  |
\*---------------------------------------------------------------------------*/
FoamFile
{
    version     2.0;
    format      ascii;
    class       volVectorField;
    location    "3";
    object      U;
}
// * * * * * * * * * * * * * * * * * * * * * * * * * * * * * * * * * * * * * //

dimensions      [0 1 -1 0 0 0 0];

internalField   nonuniform List<vector> 
73728
(
(3 -1.74266e-17 0)
(3 6.94438e-17 0)
(3 4.49698e-18 0)
(3 -3.54848e-16 0)
(3 -7.05959e-16 0)
(3 -4.98434e-16 0)
(3 -3.72953e-16 0)
(3 -4.54498e-16 0)
(3 -6.76276e-16 0)
(3 -7.48995e-16 0)
(3 -7.46889e-16 0)
(3 -2.29577e-16 0)
(3 1.91839e-16 0)
(3 4.95897e-16 0)
(3 1.15437e-16 0)
(3 -8.15574e-16 0)
(3 -9.12725e-16 0)
(3 -7.55783e-16 0)
(3 -3.15321e-17 0)
(3 3.81635e-16 0)
(3 8.81669e-16 0)
(3 9.25512e-16 0)
(3 7.22746e-16 0)
(3 7.9887e-16 0)
(3 2.58403e-15 0)
(3 2.81639e-15 0)
(3 2.42789e-15 0)
(3 2.50989e-15 0)
(3 2.53971e-15 0)
(3 2.19529e-15 0)
(3 1.75502e-15 0)
(3 4.52172e-16 0)
(3 3.14054e-16 0)
(3 1.91571e-16 0)
(3 1.17142e-15 0)
(3 1.27578e-15 0)
(3 4.30056e-16 0)
(3 -3.21013e-16 0)
(3 -4.84913e-16 0)
(3 3.20632e-16 0)
(3 1.71478e-15 0)
(3 1.67382e-15 0)
(3 1.13215e-15 0)
(3 2.47392e-16 0)
(3 3.58205e-16 0)
(3 4.91497e-17 0)
(3 -2.52345e-16 0)
(3 -1.40148e-16 0)
(3 1.53152e-16 0)
(3 6.48031e-16 0)
(3 1.13104e-15 0)
(3 1.12287e-15 0)
(3 1.28162e-15 0)
(3 8.52553e-16 0)
(3 -1.37392e-16 0)
(3 -8.93721e-16 0)
(3 -3.10929e-16 0)
(3 -2.41125e-16 0)
(3 -4.06363e-16 0)
(3 9.6841e-19 0)
(3 1.18873e-15 0)
(3 1.39068e-15 0)
(3 5.96536e-16 0)
(3 1.72312e-16 0)
(3 9.34391e-17 0)
(3 9.7569e-17 0)
(3 4.20377e-17 0)
(3 7.60862e-16 0)
(3 1.2287e-15 0)
(3 1.35484e-15 0)
(3 9.30671e-16 0)
(3 7.84228e-16 0)
(3 6.9713e-16 0)
(3 4.62523e-16 0)
(3 1.06249e-16 0)
(3 3.04066e-16 0)
(3 -4.94249e-16 0)
(3 -8.48914e-16 0)
(3 -1.3848e-15 0)
(3 -2.42072e-15 0)
(3 -1.52244e-15 0)
(3 -1.39509e-15 0)
(3 -1.81683e-15 0)
(3 -1.59764e-15 0)
(3 -1.46566e-15 0)
(3 -1.12596e-15 0)
(3 -1.14308e-15 0)
(3 -1.2633e-15 0)
(3 -7.5328e-16 0)
(3 -6.16286e-16 0)
(3 2.58262e-16 0)
(3 -8.52442e-16 0)
(3 -1.27963e-15 0)
(3 -1.34648e-15 0)
(3 -7.9104e-16 0)
(3 -1.60964e-16 0)
(3 -8.6142e-17 0)
(3 2.85054e-17 0)
(3 -4.30529e-16 0)
(3 -8.32172e-16 0)
(3 -8.44917e-16 0)
(3 -9.36817e-16 0)
(3 -7.88252e-16 0)
(3 -1.12844e-15 0)
(3 -1.08304e-15 0)
(3 -9.50313e-16 0)
(3 -4.59768e-16 0)
(3 -7.86694e-16 0)
(3 -7.77273e-16 0)
(3 -4.46342e-16 0)
(3 -5.17595e-16 0)
(3 -5.72762e-16 0)
(3 -6.8025e-16 0)
(3 -6.94569e-16 0)
(3 7.92624e-17 0)
(3 1.3723e-15 0)
(3 1.82924e-15 0)
(3 2.67903e-15 0)
(3 3.05108e-15 0)
(3 2.53697e-15 0)
(3 1.64174e-15 0)
(3 1.29295e-15 0)
(3 1.72019e-15 0)
(3 2.65263e-15 0)
(3 2.21154e-15 0)
(3 1.37941e-15 0)
(3 6.92636e-16 0)
(3 -2.02438e-15 0)
(3 -2.05645e-15 0)
(3 -2.93248e-16 0)
(3 1.64345e-15 0)
(3 1.9419e-15 0)
(3 7.27163e-16 0)
(3 6.59879e-16 0)
(3 1.38344e-16 0)
(3 5.41801e-16 0)
(3 1.80157e-15 0)
(3 1.95765e-15 0)
(3 1.10929e-15 0)
(3 3.20079e-16 0)
(3 1.50418e-16 0)
(3 7.81514e-17 0)
(3 -3.68038e-16 0)
(3 -4.2916e-16 0)
(3 2.78251e-16 0)
(3 1.3772e-15 0)
(3 2.29148e-15 0)
(3 3.05243e-15 0)
(3 3.06665e-15 0)
(3 2.56191e-15 0)
(3 6.66407e-16 0)
(3 -4.68146e-16 0)
(3 1.65332e-16 0)
(3 6.77988e-16 0)
(3 5.2328e-16 0)
(3 8.24613e-16 0)
(3 1.13045e-15 0)
(3 1.09786e-15 0)
(3 3.6006e-16 0)
(3 -1.42688e-16 0)
(3 -4.80445e-16 0)
(3 -8.29076e-16 0)
(3 -5.27291e-16 0)
(3 7.26782e-16 0)
(3 2.08273e-15 0)
(3 1.69478e-15 0)
(3 8.48119e-16 0)
(3 6.39035e-16 0)
(3 7.14556e-16 0)
(3 6.40323e-16 0)
(3 2.19535e-16 0)
(3 3.4592e-16 0)
(3 3.30947e-16 0)
(3 -6.04853e-17 0)
(3 -9.01856e-16 0)
(3 -1.5111e-15 0)
(3 -1.21676e-15 0)
(3 -2.23327e-15 0)
(3 -3.27484e-15 0)
(3 -3.04974e-15 0)
(3 -3.04597e-15 0)
(3 -3.03822e-15 0)
(3 -2.4327e-15 0)
(3 -1.65871e-15 0)
(3 -1.14147e-15 0)
(3 -8.18258e-16 0)
(3 -6.83526e-16 0)
(3 -2.66814e-15 0)
(3 -2.94365e-15 0)
(3 -3.11729e-15 0)
(3 -2.62613e-15 0)
(3 -9.41241e-16 0)
(3 2.13326e-17 0)
(3 4.18944e-17 0)
(3 5.38556e-17 0)
(3 1.45408e-16 0)
(3 3.31488e-16 0)
(3 -4.15834e-16 0)
(3 -6.63167e-16 0)
(3 -3.50609e-16 0)
(3 4.42502e-16 0)
(3 6.11977e-16 0)
(3 8.09135e-16 0)
(3 -1.86173e-16 0)
(3 -9.22643e-16 0)
(3 -1.1241e-15 0)
(3 -5.7684e-16 0)
(3 2.39535e-16 0)
(3 -1.05325e-16 0)
(3 -4.8498e-16 0)
(3 3.39337e-16 0)
(3 5.86904e-16 0)
(3 1.5003e-15 0)
(3 2.41488e-15 0)
(3 2.84273e-15 0)
(3 2.30961e-15 0)
(3 1.12813e-15 0)
(3 1.34243e-15 0)
(3 2.22739e-15 0)
(3 2.13753e-15 0)
(3 2.70182e-15 0)
(3 4.2386e-15 0)
(3 4.58235e-15 0)
(3 3.22284e-15 0)
(3 1.72176e-15 0)
(3 1.24177e-15 0)
(3 1.26998e-15 0)
(3 7.79423e-16 0)
(3 1.06544e-15 0)
(3 1.15979e-15 0)
(3 5.32791e-16 0)
(3 -7.29289e-16 0)
(3 -7.71875e-16 0)
(3 -1.11575e-16 0)
(3 1.27764e-15 0)
(3 1.52886e-15 0)
(3 8.67409e-17 0)
(3 -8.50356e-16 0)
(3 -7.98704e-16 0)
(3 -3.6657e-16 0)
(3 1.11324e-15 0)
(3 1.66782e-15 0)
(3 1.06046e-15 0)
(3 2.65616e-15 0)
(3 2.80727e-15 0)
(3 1.37172e-15 0)
(3 1.10235e-15 0)
(3 2.08124e-16 0)
(3 -2.78112e-16 0)
(3 -1.32605e-15 0)
(3 -2.04204e-15 0)
(3 -1.45225e-15 0)
(3 -1.89347e-16 0)
(3 5.7512e-16 0)
(3 5.13069e-16 0)
(3 2.29879e-16 0)
(3 -1.32312e-15 0)
(3 -2.36947e-15 0)
(3 -1.93003e-15 0)
(3 -6.5089e-16 0)
(3 2.24446e-16 0)
(3 1.1389e-16 0)
(3 2.06526e-16 0)
(3 3.52589e-16 0)
(3 6.4274e-16 0)
(3 7.39439e-16 0)
(3 2.48975e-16 0)
(3 5.12477e-16 0)
(3 9.80494e-16 0)
(3 1.17553e-15 0)
(3 3.11419e-16 0)
(3 -2.98886e-16 0)
(3 -1.79293e-15 0)
(3 -2.70548e-15 0)
(3 -3.15978e-15 0)
(3 -3.62986e-15 0)
(3 -3.68845e-15 0)
(3 -3.78382e-15 0)
(3 -2.96936e-15 0)
(3 -8.64692e-16 0)
(3 -1.34237e-16 0)
(3 -6.35531e-16 0)
(3 -9.8742e-16 0)
(3 -1.12349e-15 0)
(3 -8.44987e-16 0)
(3 -1.69111e-15 0)
(3 -1.57671e-15 0)
(3 -8.98887e-16 0)
(3 2.45382e-16 0)
(3 -4.598e-17 0)
(3 -7.64228e-17 0)
(3 1.65587e-16 0)
(3 5.90135e-16 0)
(3 9.22389e-16 0)
(3 5.97353e-16 0)
(3 4.81047e-16 0)
(3 2.58088e-16 0)
(3 7.3703e-16 0)
(3 5.19043e-16 0)
(3 3.93137e-16 0)
(3 5.07756e-16 0)
(3 1.61698e-16 0)
(3 4.132e-16 0)
(3 3.43559e-16 0)
(3 -3.79029e-16 0)
(3 -7.49245e-16 0)
(3 -6.66511e-16 0)
(3 -2.60194e-16 0)
(3 6.025e-17 0)
(3 9.57308e-16 0)
(3 1.31197e-15 0)
(3 1.83353e-15 0)
(3 1.91451e-15 0)
(3 1.99512e-15 0)
(3 1.95819e-15 0)
(3 1.85405e-15 0)
(3 2.04394e-15 0)
(3 2.83599e-15 0)
(3 3.28267e-15 0)
(3 3.23211e-15 0)
(3 2.83524e-15 0)
(3 1.28872e-15 0)
(3 8.2276e-16 0)
(3 1.24139e-15 0)
(3 1.47957e-15 0)
(3 1.34078e-15 0)
(3 1.23756e-15 0)
(3 1.32147e-15 0)
(3 1.156e-15 0)
(3 8.60846e-16 0)
(3 1.27782e-15 0)
(3 1.71052e-15 0)
(3 1.06749e-15 0)
(3 -6.00369e-16 0)
(3 6.06914e-16 0)
(3 1.25969e-15 0)
(3 1.74504e-15 0)
(3 1.3932e-15 0)
(3 2.5477e-16 0)
(3 2.89602e-16 0)
(3 5.90626e-16 0)
(3 -1.18807e-16 0)
(3 -2.72888e-16 0)
(3 -8.32217e-16 0)
(3 -1.26853e-15 0)
(3 -1.78926e-15 0)
(3 -1.66356e-15 0)
(3 -1.51128e-15 0)
(3 -1.08909e-15 0)
(3 -2.89975e-16 0)
(3 1.77861e-16 0)
(3 6.21496e-17 0)
(3 -4.61197e-16 0)
(3 -1.05143e-15 0)
(3 -2.42159e-15 0)
(3 -2.21021e-15 0)
(3 -1.6377e-15 0)
(3 -4.29913e-16 0)
(3 3.93257e-16 0)
(3 1.03883e-15 0)
(3 1.49049e-15 0)
(3 1.86682e-15 0)
(3 2.04638e-15 0)
(3 1.63278e-15 0)
(3 1.41288e-15 0)
(3 1.36959e-15 0)
(3 1.46472e-15 0)
(3 5.15099e-18 0)
(3 -1.29623e-15 0)
(3 -1.32103e-15 0)
(3 -1.10828e-15 0)
(3 -7.03442e-16 0)
(3 -3.71051e-16 0)
(3 -5.91453e-16 0)
(3 -8.94946e-17 0)
(3 -4.71944e-16 0)
(3 -3.65765e-16 0)
(3 -2.48099e-16 0)
(3 -2.25696e-16 0)
(3 -7.49899e-17 0)
(3 1.31118e-16 0)
(3 6.7121e-16 0)
(3 1.48191e-15 0)
(3 1.87403e-15 0)
(3 3.01091e-18 0)
(3 -4.49208e-16 0)
(3 -7.35204e-16 0)
(3 -2.97543e-16 0)
(3 1.93508e-16 0)
(3 1.02123e-15 0)
(3 8.69683e-16 0)
(3 2.92393e-16 0)
(3 3.71014e-18 0)
(3 -2.44866e-16 0)
(3 -2.89427e-16 0)
(3 2.2374e-16 0)
(3 7.81466e-16 0)
(3 7.97978e-16 0)
(3 9.71194e-17 0)
(3 -2.77271e-16 0)
(3 -3.67072e-16 0)
(3 -1.29595e-16 0)
(3 -2.68212e-16 0)
(3 -7.61211e-16 0)
(3 -1.4543e-15 0)
(3 -6.94117e-16 0)
(3 1.55018e-15 0)
(3 2.60445e-15 0)
(3 2.38879e-15 0)
(3 2.24781e-15 0)
(3 1.83495e-15 0)
(3 1.49317e-15 0)
(3 6.77228e-16 0)
(3 9.9526e-16 0)
(3 1.53676e-15 0)
(3 1.82712e-15 0)
(3 1.50866e-15 0)
(3 8.20689e-16 0)
(3 3.83803e-16 0)
(3 1.03551e-15 0)
(3 1.31662e-15 0)
(3 1.49426e-15 0)
(3 1.61788e-15 0)
(3 1.47266e-15 0)
(3 5.65611e-16 0)
(3 -7.59892e-17 0)
(3 -5.07477e-16 0)
(3 -2.44212e-16 0)
(3 3.04781e-16 0)
(3 4.66584e-16 0)
(3 1.04811e-15 0)
(3 7.77416e-16 0)
(3 -1.11634e-17 0)
(3 -1.58613e-15 0)
(3 -1.47533e-15 0)
(3 -9.35836e-16 0)
(3 -1.03049e-15 0)
(3 9.43149e-17 0)
(3 1.13413e-16 0)
(3 1.16941e-16 0)
(3 1.48393e-16 0)
(3 -1.91672e-16 0)
(3 -2.80906e-16 0)
(3 -4.60893e-16 0)
(3 -1.6636e-15 0)
(3 -1.82084e-15 0)
(3 -1.51055e-15 0)
(3 -9.83643e-16 0)
(3 -2.34112e-16 0)
(3 6.47559e-17 0)
(3 -7.75768e-16 0)
(3 -1.52833e-15 0)
(3 -1.16777e-15 0)
(3 -3.27095e-16 0)
(3 8.50639e-16 0)
(3 2.02858e-15 0)
(3 2.18413e-15 0)
(3 2.6349e-15 0)
(3 3.13988e-15 0)
(3 1.98567e-15 0)
(3 1.10533e-15 0)
(3 7.02636e-16 0)
(3 4.14527e-16 0)
(3 7.86949e-16 0)
(3 1.42693e-15 0)
(3 2.09426e-15 0)
(3 2.75716e-15 0)
(3 3.67907e-15 0)
(3 3.89995e-15 0)
(3 4.04446e-15 0)
(3 2.88509e-15 0)
(3 3.89678e-16 0)
(3 -1.22526e-15 0)
(3 -9.58587e-16 0)
(3 -8.70319e-16 0)
(3 -8.59879e-16 0)
(3 -3.482e-16 0)
(3 1.5791e-15 0)
(3 2.16421e-15 0)
(3 2.19294e-15 0)
(3 -1.21485e-16 0)
(3 -5.2701e-16 0)
(3 -3.48994e-16 0)
(3 2.41898e-16 0)
(3 -1.45185e-16 0)
(3 -9.28577e-16 0)
(3 -8.54039e-16 0)
(3 -3.99747e-16 0)
(3 -5.07411e-16 0)
(3 -5.61523e-16 0)
(3 -3.45208e-16 0)
(3 -1.10295e-16 0)
(3 -2.64824e-16 0)
(3 5.45293e-17 0)
(3 -3.71512e-16 0)
(3 -7.28269e-16 0)
(3 -5.22076e-16 0)
(3 -6.73884e-16 0)
(3 -9.17392e-16 0)
(3 -1.23447e-15 0)
(3 -1.18116e-15 0)
(3 -6.47642e-16 0)
(3 6.57393e-16 0)
(3 1.18461e-15 0)
(3 1.2947e-15 0)
(3 1.20188e-15 0)
(3 6.03325e-16 0)
(3 7.29215e-16 0)
(3 4.86574e-16 0)
(3 7.67534e-16 0)
(3 6.62629e-16 0)
(3 4.40828e-16 0)
(3 1.28492e-15 0)
(3 1.74572e-15 0)
(3 1.64888e-15 0)
(3 2.04769e-15 0)
(3 2.5246e-15 0)
(3 2.51756e-15 0)
(3 2.00639e-15 0)
(3 1.35425e-15 0)
(3 3.31568e-16 0)
(3 2.22124e-17 0)
(3 -8.12551e-16 0)
(3 -1.03325e-15 0)
(3 -5.00378e-16 0)
(3 8.66057e-16 0)
(3 1.19372e-15 0)
(3 1.19855e-15 0)
(3 8.2837e-16 0)
(3 -1.58745e-16 0)
(3 -5.79302e-16 0)
(3 -1.33702e-15 0)
(3 -1.38185e-15 0)
(3 -5.44533e-16 0)
(3 9.08e-16 0)
(3 1.52909e-15 0)
(3 1.26417e-15 0)
(3 9.8781e-16 0)
(3 6.97247e-16 0)
(3 -2.39371e-17 0)
(3 -2.57249e-16 0)
(3 -1.51493e-15 0)
(3 -2.39912e-15 0)
(3 -2.08908e-15 0)
(3 -6.02162e-16 0)
(3 2.56434e-16 0)
(3 5.07923e-16 0)
(3 7.05982e-16 0)
(3 5.04991e-16 0)
(3 6.58806e-16 0)
(3 1.03384e-15 0)
(3 1.69556e-15 0)
(3 2.92104e-15 0)
(3 3.42056e-15 0)
(3 2.53031e-15 0)
(3 1.51802e-15 0)
(3 8.85812e-16 0)
(3 1.65604e-16 0)
(3 2.38248e-16 0)
(3 7.09332e-16 0)
(3 1.86193e-15 0)
(3 2.14747e-15 0)
(3 2.0255e-15 0)
(3 2.5493e-15 0)
(3 3.52102e-15 0)
(3 3.99217e-15 0)
(3 1.80968e-15 0)
(3 1.86342e-16 0)
(3 -1.51836e-15 0)
(3 -1.76934e-15 0)
(3 -1.57673e-15 0)
(3 -5.99735e-16 0)
(3 -2.58354e-16 0)
(3 8.23891e-16 0)
(3 1.07722e-15 0)
(3 1.27014e-15 0)
(3 -1.62668e-16 0)
(3 -4.61644e-16 0)
(3 -4.37962e-16 0)
(3 2.03797e-17 0)
(3 -6.51431e-16 0)
(3 -8.2891e-16 0)
(3 -3.96293e-16 0)
(3 -3.13819e-16 0)
(3 -3.98869e-16 0)
(3 -5.02638e-16 0)
(3 2.49665e-16 0)
(3 6.41968e-16 0)
(3 8.33461e-16 0)
(3 6.79834e-16 0)
(3 8.65766e-16 0)
(3 4.81473e-16 0)
(3 5.50506e-16 0)
(3 -1.01251e-15 0)
(3 -1.75428e-15 0)
(3 -1.4487e-15 0)
(3 -7.54293e-16 0)
(3 -3.1649e-16 0)
(3 -6.55586e-16 0)
(3 -5.77358e-16 0)
(3 1.2706e-16 0)
(3 -2.92667e-16 0)
(3 -1.14121e-15 0)
(3 -8.07882e-16 0)
(3 3.79836e-16 0)
(3 1.17662e-15 0)
(3 1.13073e-15 0)
(3 -7.24032e-17 0)
(3 1.22049e-16 0)
(3 7.06745e-16 0)
(3 1.27398e-15 0)
(3 1.60781e-15 0)
(3 2.95666e-15 0)
(3 3.2348e-15 0)
(3 2.55046e-15 0)
(3 1.10467e-15 0)
(3 7.48054e-16 0)
(3 9.91496e-16 0)
(3 9.2326e-16 0)
(3 1.30695e-15 0)
(3 1.58754e-15 0)
(3 1.45279e-15 0)
(3 9.53513e-16 0)
(3 8.34185e-16 0)
(3 1.44767e-15 0)
(3 1.49159e-15 0)
(3 6.55856e-16 0)
(3 -4.8519e-16 0)
(3 -9.12273e-16 0)
(3 -2.1037e-15 0)
(3 -1.1289e-15 0)
(3 -9.11534e-16 0)
(3 2.7361e-16 0)
(3 7.92616e-16 0)
(3 1.18428e-15 0)
(3 1.41349e-16 0)
(3 -1.11193e-15 0)
(3 -2.98968e-15 0)
(3 -4.40888e-15 0)
(3 -4.06313e-15 0)
(3 -1.89469e-15 0)
(3 -6.71181e-16 0)
(3 -1.02383e-16 0)
(3 1.71587e-16 0)
(3 2.47647e-16 0)
(3 -8.65587e-16 0)
(3 -9.87501e-16 0)
(3 2.78932e-16 0)
(3 1.03405e-15 0)
(3 1.94073e-15 0)
(3 1.75695e-15 0)
(3 2.8407e-16 0)
(3 2.34579e-18 0)
(3 3.1096e-16 0)
(3 2.72524e-16 0)
(3 8.65285e-16 0)
(3 1.51933e-15 0)
(3 1.4634e-15 0)
(3 1.30939e-15 0)
(3 1.93945e-15 0)
(3 2.94092e-15 0)
(3 2.94852e-15 0)
(3 1.21066e-15 0)
(3 1.26805e-15 0)
(3 1.20674e-15 0)
(3 6.73805e-16 0)
(3 5.97932e-16 0)
(3 3.24459e-16 0)
(3 -1.18347e-17 0)
(3 1.75931e-16 0)
(3 9.81616e-16 0)
(3 1.17654e-15 0)
(3 6.81645e-17 0)
(3 2.15496e-16 0)
(3 -1.54581e-16 0)
(3 -5.62737e-16 0)
(3 2.73417e-17 0)
(3 5.02055e-16 0)
(3 3.67237e-16 0)
(3 -3.18497e-16 0)
(3 -4.04203e-16 0)
(3 -1.39409e-16 0)
(3 1.94963e-16 0)
(3 1.07953e-15 0)
(3 1.61259e-15 0)
(3 1.6621e-15 0)
(3 1.65113e-15 0)
(3 1.51635e-15 0)
(3 1.16115e-15 0)
(3 6.49006e-16 0)
(3 -8.91958e-17 0)
(3 -3.25205e-16 0)
(3 -5.19974e-16 0)
(3 -9.34132e-16 0)
(3 -9.55019e-16 0)
(3 -1.41966e-15 0)
(3 -2.20739e-15 0)
(3 -2.43624e-15 0)
(3 -1.7832e-15 0)
(3 7.52946e-16 0)
(3 2.04851e-15 0)
(3 2.1289e-15 0)
(3 1.23165e-15 0)
(3 9.19307e-16 0)
(3 -5.92584e-17 0)
(3 -9.21398e-16 0)
(3 -7.22802e-16 0)
(3 2.43449e-16 0)
(3 1.46336e-15 0)
(3 1.53727e-15 0)
(3 1.48954e-15 0)
(3 1.27313e-15 0)
(3 9.47411e-16 0)
(3 6.47863e-16 0)
(3 1.19208e-15 0)
(3 1.42577e-15 0)
(3 2.20687e-15 0)
(3 2.25396e-15 0)
(3 1.58126e-15 0)
(3 5.89494e-16 0)
(3 5.95046e-16 0)
(3 1.15281e-15 0)
(3 5.46633e-16 0)
(3 4.70848e-16 0)
(3 -9.57918e-16 0)
(3 -2.75275e-15 0)
(3 -2.87326e-15 0)
(3 -1.28148e-15 0)
(3 -2.92942e-16 0)
(3 -2.80337e-17 0)
(3 2.08008e-16 0)
(3 -1.2892e-15 0)
(3 -2.06248e-15 0)
(3 -3.39751e-15 0)
(3 -4.68968e-15 0)
(3 -4.25028e-15 0)
(3 -3.12254e-15 0)
(3 -2.38383e-15 0)
(3 -1.99703e-15 0)
(3 -1.23767e-15 0)
(3 -1.20487e-15 0)
(3 -1.2151e-15 0)
(3 -3.99118e-16 0)
(3 -3.39794e-16 0)
(3 -4.97412e-16 0)
(3 -5.6466e-16 0)
(3 -4.89096e-16 0)
(3 3.548e-16 0)
(3 1.10896e-15 0)
(3 1.34116e-15 0)
(3 1.23411e-15 0)
(3 8.35964e-16 0)
(3 7.6394e-16 0)
(3 9.39896e-16 0)
(3 1.35936e-15 0)
(3 1.99909e-15 0)
(3 1.68809e-15 0)
(3 1.47799e-15 0)
(3 1.91321e-15 0)
(3 2.32892e-15 0)
(3 2.72973e-15 0)
(3 2.87253e-15 0)
(3 1.70707e-15 0)
(3 3.60504e-16 0)
(3 -2.27786e-17 0)
(3 2.56092e-16 0)
(3 5.85371e-16 0)
(3 8.9281e-16 0)
(3 1.51368e-16 0)
(3 3.17016e-16 0)
(3 2.2709e-17 0)
(3 1.54021e-16 0)
(3 4.14726e-16 0)
(3 -5.80738e-17 0)
(3 -1.03231e-15 0)
(3 -1.2483e-15 0)
(3 -1.02721e-15 0)
(3 -4.28118e-16 0)
(3 -2.65724e-16 0)
(3 6.44091e-16 0)
(3 1.19976e-15 0)
(3 1.64147e-15 0)
(3 1.70385e-15 0)
(3 1.41318e-15 0)
(3 5.76555e-16 0)
(3 8.18395e-16 0)
(3 1.37761e-15 0)
(3 1.48059e-15 0)
(3 8.57913e-16 0)
(3 -7.05415e-17 0)
(3 -3.21992e-16 0)
(3 -5.8053e-16 0)
(3 -1.1213e-15 0)
(3 -1.24216e-15 0)
(3 -4.31139e-16 0)
(3 1.56343e-15 0)
(3 2.22431e-15 0)
(3 1.16111e-15 0)
(3 8.21558e-16 0)
(3 1.3036e-15 0)
(3 1.02951e-15 0)
(3 3.78127e-16 0)
(3 -1.45076e-15 0)
(3 -1.45776e-15 0)
(3 -1.59448e-15 0)
(3 -7.1965e-16 0)
(3 8.70062e-16 0)
(3 9.98683e-16 0)
(3 5.55521e-16 0)
(3 7.53399e-16 0)
(3 1.308e-15 0)
(3 2.04083e-15 0)
(3 2.76441e-15 0)
(3 2.86634e-15 0)
(3 2.29725e-15 0)
(3 1.84333e-15 0)
(3 1.3953e-15 0)
(3 1.18654e-15 0)
(3 5.90438e-16 0)
(3 -3.45701e-17 0)
(3 -1.02091e-15 0)
(3 -1.21194e-15 0)
(3 -7.80532e-16 0)
(3 1.1705e-16 0)
(3 2.01532e-16 0)
(3 -3.8844e-16 0)
(3 -1.26185e-15 0)
(3 -2.1414e-15 0)
(3 -1.91568e-15 0)
(3 -1.71521e-15 0)
(3 -1.76911e-15 0)
(3 -1.12879e-15 0)
(3 9.17285e-17 0)
(3 5.79822e-16 0)
(3 2.95379e-16 0)
(3 1.28487e-15 0)
(3 2.25825e-15 0)
(3 1.20248e-15 0)
(3 8.06946e-16 0)
(3 4.72583e-16 0)
(3 -4.11091e-16 0)
(3 -7.36735e-16 0)
(3 -8.35396e-16 0)
(3 -4.756e-17 0)
(3 8.1546e-16 0)
(3 8.82005e-16 0)
(3 1.32805e-15 0)
(3 6.9407e-16 0)
(3 1.65752e-16 0)
(3 1.16931e-16 0)
(3 3.01337e-16 0)
(3 5.70685e-16 0)
(3 -3.00924e-16 0)
(3 -8.89148e-16 0)
(3 1.25721e-15 0)
(3 2.09951e-15 0)
(3 2.43057e-15 0)
(3 2.43756e-15 0)
(3 1.98649e-15 0)
(3 2.81272e-16 0)
(3 -6.06945e-16 0)
(3 4.81003e-16 0)
(3 1.04371e-16 0)
(3 9.68361e-17 0)
(3 -2.97511e-17 0)
(3 1.67967e-16 0)
(3 8.6507e-16 0)
(3 4.57399e-16 0)
(3 1.29194e-16 0)
(3 -2.14913e-16 0)
(3 -2.09348e-16 0)
(3 -1.99881e-16 0)
(3 -5.11328e-16 0)
(3 -1.0209e-15 0)
(3 -9.1196e-16 0)
(3 -1.26245e-15 0)
(3 -3.7691e-16 0)
(3 3.75521e-16 0)
(3 6.13416e-16 0)
(3 4.42201e-16 0)
(3 8.16537e-16 0)
(3 9.88519e-16 0)
(3 9.3513e-16 0)
(3 8.45824e-16 0)
(3 6.45887e-16 0)
(3 8.82474e-16 0)
(3 1.13121e-15 0)
(3 1.48476e-15 0)
(3 1.08822e-15 0)
(3 1.14067e-15 0)
(3 3.24866e-16 0)
(3 -2.7791e-16 0)
(3 -2.86898e-16 0)
(3 -6.99901e-16 0)
(3 -5.03169e-16 0)
(3 2.39244e-16 0)
(3 1.24141e-15 0)
(3 1.26421e-15 0)
(3 5.06135e-16 0)
(3 -9.55058e-16 0)
(3 -1.85292e-15 0)
(3 -1.7711e-15 0)
(3 -8.53894e-16 0)
(3 -4.37083e-16 0)
(3 -7.56586e-16 0)
(3 -1.72585e-16 0)
(3 1.11165e-15 0)
(3 2.82976e-15 0)
(3 3.02879e-15 0)
(3 3.15456e-15 0)
(3 3.13049e-15 0)
(3 3.52893e-15 0)
(3 2.85974e-15 0)
(3 2.06623e-15 0)
(3 1.20567e-15 0)
(3 4.30552e-16 0)
(3 -3.86253e-17 0)
(3 1.0306e-16 0)
(3 -5.44629e-16 0)
(3 -1.69726e-15 0)
(3 -1.50703e-15 0)
(3 -9.30863e-16 0)
(3 -1.66287e-15 0)
(3 -2.33482e-15 0)
(3 -1.87974e-15 0)
(3 -3.01602e-17 0)
(3 1.92877e-15 0)
(3 2.89229e-15 0)
(3 2.53101e-15 0)
(3 2.04059e-15 0)
(3 1.68575e-15 0)
(3 2.05691e-15 0)
(3 4.32981e-15 0)
(3 3.45634e-15 0)
(3 2.27735e-15 0)
(3 1.67946e-15 0)
(3 8.27112e-16 0)
(3 -3.9748e-16 0)
(3 -7.78564e-16 0)
(3 -2.28339e-16 0)
(3 -4.66796e-16 0)
(3 -1.04622e-15 0)
(3 -1.39525e-15 0)
(3 -1.33636e-15 0)
(3 -1.05561e-15 0)
(3 -7.3373e-16 0)
(3 -1.44732e-15 0)
(3 -1.6693e-15 0)
(3 -2.88515e-15 0)
(3 -2.55511e-15 0)
(3 -6.78561e-16 0)
(3 1.27787e-15 0)
(3 1.99458e-15 0)
(3 1.67668e-15 0)
(3 1.20763e-15 0)
(3 7.46733e-16 0)
(3 3.31956e-16 0)
(3 -1.08237e-15 0)
(3 -1.36229e-15 0)
(3 -1.65321e-15 0)
(3 4.29501e-17 0)
(3 4.91783e-16 0)
(3 8.23051e-16 0)
(3 4.46499e-16 0)
(3 -2.57907e-16 0)
(3 8.67663e-17 0)
(3 4.67109e-16 0)
(3 5.96924e-16 0)
(3 9.42866e-16 0)
(3 -2.66623e-16 0)
(3 -7.66527e-16 0)
(3 -1.24319e-15 0)
(3 -1.19542e-15 0)
(3 -1.12156e-15 0)
(3 -5.1371e-16 0)
(3 8.56429e-16 0)
(3 1.58684e-15 0)
(3 1.39092e-15 0)
(3 1.61605e-15 0)
(3 1.28103e-15 0)
(3 6.4292e-16 0)
(3 3.38895e-16 0)
(3 -1.8839e-16 0)
(3 2.48422e-16 0)
(3 2.26027e-16 0)
(3 7.77239e-16 0)
(3 1.48359e-15 0)
(3 -3.84586e-16 0)
(3 -2.3664e-15 0)
(3 -2.68843e-15 0)
(3 -2.10363e-15 0)
(3 -1.00273e-15 0)
(3 -7.78961e-16 0)
(3 -2.41822e-16 0)
(3 3.1975e-16 0)
(3 -4.35182e-16 0)
(3 -1.72707e-15 0)
(3 -2.01462e-15 0)
(3 -1.63956e-15 0)
(3 -9.67131e-16 0)
(3 -3.86727e-16 0)
(3 -9.10813e-16 0)
(3 -9.33238e-16 0)
(3 -1.0774e-16 0)
(3 4.99688e-16 0)
(3 1.67642e-15 0)
(3 2.80735e-15 0)
(3 3.1493e-15 0)
(3 2.66994e-15 0)
(3 2.08085e-15 0)
(3 1.21945e-15 0)
(3 9.42255e-16 0)
(3 7.33357e-16 0)
(3 2.08352e-16 0)
(3 -6.31634e-17 0)
(3 -1.15049e-15 0)
(3 -1.05346e-15 0)
(3 -1.24394e-15 0)
(3 -1.74092e-15 0)
(3 -1.67079e-15 0)
(3 -1.64306e-15 0)
(3 1.23006e-16 0)
(3 1.92931e-15 0)
(3 2.67373e-15 0)
(3 2.50634e-15 0)
(3 2.27371e-15 0)
(3 2.68264e-15 0)
(3 2.1755e-15 0)
(3 1.73949e-15 0)
(3 3.0017e-15 0)
(3 2.94352e-15 0)
(3 2.22017e-15 0)
(3 1.75977e-15 0)
(3 2.79628e-16 0)
(3 -6.06568e-16 0)
(3 9.75753e-16 0)
(3 1.18447e-15 0)
(3 -7.54255e-16 0)
(3 -1.65429e-15 0)
(3 -1.86637e-15 0)
(3 -1.59333e-15 0)
(3 -1.21219e-15 0)
(3 -1.63262e-15 0)
(3 -2.20226e-15 0)
(3 -2.00033e-15 0)
(3 -1.38195e-15 0)
(3 -8.73644e-16 0)
(3 -7.86207e-16 0)
(3 1.7964e-16 0)
(3 -1.56958e-16 0)
(3 1.57657e-17 0)
(3 5.81842e-16 0)
(3 5.1447e-16 0)
(3 -1.40802e-15 0)
(3 -1.9973e-15 0)
(3 -1.97139e-15 0)
(3 -4.92962e-17 0)
(3 -3.49634e-16 0)
(3 -3.59699e-16 0)
(3 -8.23014e-16 0)
(3 -6.56207e-16 0)
(3 -5.07632e-16 0)
(3 -3.33901e-16 0)
(3 6.31618e-16 0)
(3 1.35312e-15 0)
(3 1.63221e-15 0)
(3 -1.01527e-16 0)
(3 -2.06899e-16 0)
(3 -1.6362e-16 0)
(3 4.17302e-16 0)
(3 7.9451e-16 0)
(3 1.30254e-15 0)
(3 2.9398e-16 0)
(3 1.70801e-16 0)
(3 3.95375e-16 0)
(3 9.16628e-16 0)
(3 1.52163e-17 0)
(3 -8.04181e-16 0)
(3 -2.17991e-15 0)
(3 -2.06245e-15 0)
(3 -1.82152e-15 0)
(3 -1.30213e-15 0)
(3 -6.54346e-16 0)
(3 -7.87152e-16 0)
(3 -1.38079e-15 0)
(3 -1.91555e-15 0)
(3 -1.59972e-15 0)
(3 -1.25509e-15 0)
(3 -1.11165e-15 0)
(3 -9.12575e-16 0)
(3 -6.96073e-16 0)
(3 -5.94891e-16 0)
(3 -8.89992e-16 0)
(3 -1.01836e-15 0)
(3 -6.51202e-16 0)
(3 1.59448e-16 0)
(3 2.96461e-16 0)
(3 5.1251e-16 0)
(3 4.28905e-16 0)
(3 -4.03722e-16 0)
(3 -1.36016e-15 0)
(3 -1.18786e-15 0)
(3 4.39707e-16 0)
(3 2.1032e-15 0)
(3 2.71822e-15 0)
(3 1.99157e-15 0)
(3 -2.37115e-16 0)
(3 -1.8602e-15 0)
(3 -1.04589e-15 0)
(3 -1.04324e-16 0)
(3 -5.20729e-17 0)
(3 1.8648e-16 0)
(3 -6.32847e-16 0)
(3 -1.2892e-15 0)
(3 -1.04552e-15 0)
(3 -9.35492e-16 0)
(3 -8.94105e-16 0)
(3 -5.03213e-16 0)
(3 8.72682e-16 0)
(3 1.56214e-15 0)
(3 1.19828e-15 0)
(3 2.88811e-16 0)
(3 3.53181e-16 0)
(3 2.23614e-16 0)
(3 -5.54276e-16 0)
(3 -5.32314e-16 0)
(3 -8.01759e-17 0)
(3 -4.64657e-16 0)
(3 -8.86876e-16 0)
(3 -1.30006e-15 0)
(3 -1.60036e-15 0)
(3 -8.64654e-16 0)
(3 -3.02793e-16 0)
(3 -5.25208e-16 0)
(3 -5.77468e-16 0)
(3 -1.88988e-16 0)
(3 -9.63944e-16 0)
(3 -1.53528e-15 0)
(3 -1.58487e-15 0)
(3 -1.65465e-15 0)
(3 -2.53117e-15 0)
(3 -2.99709e-15 0)
(3 -2.80995e-15 0)
(3 -2.68616e-15 0)
(3 -2.85335e-15 0)
(3 5.98336e-17 0)
(3 1.28864e-15 0)
(3 8.45768e-16 0)
(3 7.83403e-16 0)
(3 3.23371e-16 0)
(3 -9.38488e-16 0)
(3 -3.86257e-16 0)
(3 -7.5201e-18 0)
(3 4.59751e-17 0)
(3 -2.0209e-16 0)
(3 -2.9169e-16 0)
(3 2.76256e-17 0)
(3 -4.23977e-16 0)
(3 -8.47264e-16 0)
(3 -6.78523e-18 0)
(3 3.45954e-16 0)
(3 9.94364e-16 0)
(3 1.1545e-15 0)
(3 1.37309e-15 0)
(3 9.50982e-16 0)
(3 1.06466e-15 0)
(3 -2.13091e-16 0)
(3 -1.94606e-15 0)
(3 -2.01544e-15 0)
(3 -1.58383e-15 0)
(3 -1.781e-15 0)
(3 -8.20153e-16 0)
(3 -8.92481e-16 0)
(3 -1.43536e-15 0)
(3 -2.24708e-15 0)
(3 -2.52782e-15 0)
(3 -1.92511e-15 0)
(3 -1.43403e-15 0)
(3 -1.57502e-15 0)
(3 -1.7908e-15 0)
(3 -1.93847e-15 0)
(3 -1.37386e-15 0)
(3 -4.76057e-16 0)
(3 4.0833e-16 0)
(3 9.44238e-16 0)
(3 7.67641e-16 0)
(3 7.22411e-16 0)
(3 7.77231e-16 0)
(3 5.35083e-16 0)
(3 -2.35942e-17 0)
(3 -2.64641e-16 0)
(3 -5.43498e-17 0)
(3 1.03482e-15 0)
(3 2.21973e-15 0)
(3 1.96611e-15 0)
(3 1.11733e-15 0)
(3 -4.83061e-16 0)
(3 -5.05808e-16 0)
(3 8.26479e-16 0)
(3 1.92391e-15 0)
(3 2.1443e-15 0)
(3 9.17423e-16 0)
(3 2.70948e-16 0)
(3 8.83789e-16 0)
(3 3.22161e-16 0)
(3 1.54073e-17 0)
(3 -3.23333e-16 0)
(3 -2.71436e-16 0)
(3 -7.04978e-16 0)
(3 -6.53348e-16 0)
(3 -5.60763e-16 0)
(3 -8.09472e-16 0)
(3 -8.17426e-16 0)
(3 -7.55097e-16 0)
(3 -3.75543e-19 0)
(3 5.16792e-16 0)
(3 -6.259e-16 0)
(3 -1.29104e-15 0)
(3 -1.24459e-15 0)
(3 -1.37191e-15 0)
(3 -1.73121e-15 0)
(3 -1.4638e-15 0)
(3 -1.21735e-15 0)
(3 -1.88128e-16 0)
(3 1.01277e-15 0)
(3 1.26014e-15 0)
(3 1.05236e-15 0)
(3 4.39268e-17 0)
(3 -8.62386e-16 0)
(3 -1.03837e-15 0)
(3 -1.22591e-15 0)
(3 -8.23048e-16 0)
(3 -5.66463e-16 0)
(3 -1.57215e-15 0)
(3 -1.54999e-15 0)
(3 -1.84491e-15 0)
(3 -2.7894e-15 0)
(3 -3.16805e-15 0)
(3 -2.07691e-15 0)
(3 -1.29608e-15 0)
(3 -1.8207e-15 0)
(3 -1.18469e-15 0)
(3 -8.99564e-16 0)
(3 -7.34807e-16 0)
(3 -4.13979e-16 0)
(3 -3.71961e-16 0)
(3 3.12307e-16 0)
(3 2.90966e-16 0)
(3 -2.24995e-17 0)
(3 7.16649e-16 0)
(3 5.69948e-16 0)
(3 4.79586e-16 0)
(3 2.51062e-16 0)
(3 2.21892e-16 0)
(3 1.65147e-16 0)
(3 1.11774e-16 0)
(3 4.59539e-16 0)
(3 9.60192e-16 0)
(3 1.61357e-15 0)
(3 1.44408e-15 0)
(3 8.90817e-17 0)
(3 -5.07649e-16 0)
(3 -1.37803e-15 0)
(3 -3.02381e-15 0)
(3 -3.18442e-15 0)
(3 -2.06804e-15 0)
(3 -1.08367e-15 0)
(3 -1.26974e-15 0)
(3 -9.91502e-16 0)
(3 -7.50893e-16 0)
(3 -1.0514e-15 0)
(3 -1.31125e-15 0)
(3 -8.81426e-16 0)
(3 -2.50757e-16 0)
(3 -3.19392e-16 0)
(3 -2.66889e-16 0)
(3 -3.13858e-16 0)
(3 -3.88729e-16 0)
(3 -2.73897e-16 0)
(3 7.38577e-16 0)
(3 1.40386e-15 0)
(3 1.11812e-15 0)
(3 7.49366e-16 0)
(3 -7.11681e-17 0)
(3 -9.32648e-17 0)
(3 -2.23593e-16 0)
(3 -1.39882e-16 0)
(3 6.08053e-16 0)
(3 1.4839e-15 0)
(3 2.00506e-15 0)
(3 2.36784e-15 0)
(3 2.36009e-15 0)
(3 1.96247e-15 0)
(3 1.49534e-15 0)
(3 1.36039e-15 0)
(3 2.18835e-15 0)
(3 2.3215e-15 0)
(3 8.33284e-16 0)
(3 1.23888e-15 0)
(3 2.03978e-15 0)
(3 1.53894e-15 0)
(3 1.3987e-16 0)
(3 1.04167e-15 0)
(3 2.81339e-16 0)
(3 -5.82418e-16 0)
(3 -2.88906e-16 0)
(3 -4.00353e-16 0)
(3 -2.94389e-16 0)
(3 -3.84157e-16 0)
(3 -5.21436e-16 0)
(3 -1.32671e-15 0)
(3 -1.78337e-15 0)
(3 -5.6636e-16 0)
(3 6.40733e-16 0)
(3 -2.81399e-16 0)
(3 -1.27901e-15 0)
(3 -1.40398e-15 0)
(3 -1.7625e-15 0)
(3 -1.8434e-15 0)
(3 -9.09354e-16 0)
(3 7.16159e-16 0)
(3 2.00631e-15 0)
(3 1.78749e-15 0)
(3 1.40125e-15 0)
(3 6.88858e-16 0)
(3 -1.88621e-16 0)
(3 -6.51933e-16 0)
(3 -9.11338e-16 0)
(3 -5.81154e-16 0)
(3 -4.09903e-16 0)
(3 -1.36018e-15 0)
(3 -2.35236e-15 0)
(3 -2.24273e-15 0)
(3 -2.58748e-15 0)
(3 -1.5051e-15 0)
(3 -1.25922e-15 0)
(3 -1.59731e-15 0)
(3 -1.9057e-15 0)
(3 -2.12299e-15 0)
(3 -1.20964e-15 0)
(3 -5.93875e-16 0)
(3 -1.63134e-16 0)
(3 6.88031e-16 0)
(3 7.44035e-16 0)
(3 4.16182e-17 0)
(3 2.50195e-17 0)
(3 1.95033e-16 0)
(3 1.18774e-16 0)
(3 3.58337e-17 0)
(3 3.18069e-16 0)
(3 6.83552e-16 0)
(3 4.39406e-16 0)
(3 1.04344e-15 0)
(3 1.6402e-15 0)
(3 7.70611e-16 0)
(3 3.59726e-16 0)
(3 -1.21413e-16 0)
(3 -1.85924e-15 0)
(3 -1.76283e-15 0)
(3 -1.02523e-15 0)
(3 -4.43006e-16 0)
(3 7.42944e-17 0)
(3 2.46876e-16 0)
(3 -1.21013e-16 0)
(3 -6.85657e-17 0)
(3 -1.25426e-16 0)
(3 -1.6084e-16 0)
(3 -7.95178e-16 0)
(3 -3.25763e-16 0)
(3 8.84569e-16 0)
(3 1.46266e-15 0)
(3 1.02843e-15 0)
(3 1.77946e-16 0)
(3 5.74186e-17 0)
(3 1.81715e-16 0)
(3 -2.31335e-16 0)
(3 -6.45348e-16 0)
(3 -5.08838e-16 0)
(3 -7.33818e-16 0)
(3 -1.09549e-15 0)
(3 -1.35322e-15 0)
(3 -1.10842e-15 0)
(3 -7.21233e-16 0)
(3 7.49664e-17 0)
(3 9.84e-16 0)
(3 9.07689e-16 0)
(3 1.13673e-15 0)
(3 2.06466e-15 0)
(3 2.87929e-15 0)
(3 2.82749e-15 0)
(3 1.62754e-15 0)
(3 1.16949e-15 0)
(3 2.04615e-15 0)
(3 2.85977e-15 0)
(3 2.30889e-15 0)
(3 1.74249e-15 0)
(3 2.13018e-15 0)
(3 2.75372e-15 0)
(3 2.12211e-15 0)
(3 1.55896e-15 0)
(3 1.05199e-15 0)
(3 3.45532e-16 0)
(3 -2.4575e-16 0)
(3 -1.62301e-16 0)
(3 6.32665e-16 0)
(3 9.75432e-16 0)
(3 3.62026e-16 0)
(3 2.81044e-16 0)
(3 1.16589e-15 0)
(3 1.41098e-15 0)
(3 -6.96874e-18 0)
(3 -6.06016e-16 0)
(3 5.55787e-17 0)
(3 1.43303e-16 0)
(3 -3.51545e-16 0)
(3 -3.23915e-16 0)
(3 -4.82776e-16 0)
(3 -3.13e-16 0)
(3 -3.27578e-18 0)
(3 4.54336e-16 0)
(3 6.12461e-16 0)
(3 3.5121e-16 0)
(3 3.34569e-16 0)
(3 -6.50528e-16 0)
(3 -1.19915e-15 0)
(3 -1.35788e-15 0)
(3 -1.01007e-15 0)
(3 -6.95539e-16 0)
(3 2.52224e-17 0)
(3 8.0372e-16 0)
(3 6.67387e-16 0)
(3 -3.37574e-16 0)
(3 -9.9921e-16 0)
(3 -2.26979e-15 0)
(3 -2.94947e-15 0)
(3 -1.16233e-15 0)
(3 1.82433e-17 0)
(3 7.91877e-16 0)
(3 7.15313e-16 0)
(3 8.54245e-16 0)
(3 -1.02302e-16 0)
(3 -1.82021e-16 0)
(3 3.14578e-16 0)
(3 8.33458e-16 0)
(3 7.18295e-16 0)
(3 1.83011e-16 0)
(3 5.12468e-16 0)
(3 6.08672e-16 0)
(3 1.47574e-16 0)
(3 -9.59449e-18 0)
(3 2.18571e-17 0)
(3 -4.39274e-17 0)
(3 -8.62398e-17 0)
(3 3.32083e-16 0)
(3 1.59999e-16 0)
(3 6.76365e-16 0)
(3 1.17206e-15 0)
(3 1.17739e-15 0)
(3 1.10547e-15 0)
(3 3.36616e-16 0)
(3 -7.95153e-17 0)
(3 -4.22623e-16 0)
(3 -5.75792e-16 0)
(3 -1.08154e-16 0)
(3 -3.05557e-16 0)
(3 6.77003e-16 0)
(3 6.32434e-16 0)
(3 6.20763e-16 0)
(3 8.32266e-16 0)
(3 1.22704e-15 0)
(3 8.17424e-16 0)
(3 -2.12901e-15 0)
(3 -2.99304e-15 0)
(3 -2.49546e-15 0)
(3 -2.22933e-15 0)
(3 -1.9737e-15 0)
(3 -4.3329e-16 0)
(3 2.29123e-16 0)
(3 -1.87628e-16 0)
(3 -3.94145e-16 0)
(3 -8.13238e-16 0)
(3 -1.12149e-15 0)
(3 -1.27016e-15 0)
(3 -1.19484e-15 0)
(3 -1.96959e-16 0)
(3 1.57293e-16 0)
(3 7.52758e-17 0)
(3 -3.57351e-16 0)
(3 -6.97598e-16 0)
(3 1.3656e-15 0)
(3 1.92956e-15 0)
(3 2.15239e-15 0)
(3 1.99914e-15 0)
(3 2.60979e-15 0)
(3 2.78021e-15 0)
(3 2.58434e-15 0)
(3 1.62079e-15 0)
(3 8.71836e-16 0)
(3 6.82312e-17 0)
(3 1.39477e-16 0)
(3 3.19764e-16 0)
(3 1.13529e-15 0)
(3 1.74163e-15 0)
(3 1.79122e-15 0)
(3 1.50488e-15 0)
(3 1.14924e-15 0)
(3 1.40068e-15 0)
(3 1.69146e-15 0)
(3 1.03324e-15 0)
(3 1.16202e-15 0)
(3 1.39789e-15 0)
(3 1.38348e-15 0)
(3 9.0787e-16 0)
(3 2.17255e-16 0)
(3 1.24715e-16 0)
(3 3.95785e-16 0)
(3 7.44256e-16 0)
(3 9.42449e-16 0)
(3 1.12544e-15 0)
(3 5.26675e-16 0)
(3 -7.30747e-16 0)
(3 -1.05005e-15 0)
(3 -7.82926e-17 0)
(3 -3.62896e-17 0)
(3 -3.10831e-16 0)
(3 6.00005e-16 0)
(3 1.06659e-15 0)
(3 -2.87985e-17 0)
(3 -1.81514e-15 0)
(3 -2.46448e-15 0)
(3 -1.80884e-15 0)
(3 -1.55608e-15 0)
(3 -1.0405e-15 0)
(3 1.48487e-16 0)
(3 7.44995e-16 0)
(3 1.14579e-15 0)
(3 -1.21403e-17 0)
(3 -3.03633e-16 0)
(3 7.27914e-17 0)
(3 5.16152e-16 0)
(3 4.04127e-16 0)
(3 1.35893e-16 0)
(3 -2.00917e-16 0)
(3 -7.63444e-16 0)
(3 -1.1115e-15 0)
(3 -1.14663e-15 0)
(3 -4.77123e-16 0)
(3 -3.95765e-16 0)
(3 1.07933e-16 0)
(3 2.08826e-15 0)
(3 2.49156e-15 0)
(3 2.33783e-15 0)
(3 1.97201e-15 0)
(3 7.44361e-16 0)
(3 4.18315e-16 0)
(3 -7.55721e-16 0)
(3 -1.46611e-15 0)
(3 -2.01621e-15 0)
(3 -9.9455e-16 0)
(3 9.45812e-17 0)
(3 7.03588e-16 0)
(3 -9.25048e-16 0)
(3 -1.40617e-15 0)
(3 -6.98342e-16 0)
(3 2.8288e-16 0)
(3 6.23063e-16 0)
(3 -7.1701e-16 0)
(3 -2.39145e-15 0)
(3 -3.13478e-15 0)
(3 -3.02209e-15 0)
(3 -2.50569e-15 0)
(3 -1.74683e-16 0)
(3 2.08742e-16 0)
(3 6.33981e-16 0)
(3 -8.80244e-17 0)
(3 -1.25272e-15 0)
(3 -1.44581e-15 0)
(3 -1.72511e-15 0)
(3 -1.85797e-15 0)
(3 -2.33727e-15 0)
(3 -2.32368e-15 0)
(3 -2.50223e-15 0)
(3 -2.08852e-15 0)
(3 -1.2655e-15 0)
(3 -1.26921e-15 0)
(3 -9.76388e-16 0)
(3 -2.43426e-17 0)
(3 7.13516e-16 0)
(3 1.29863e-15 0)
(3 2.0011e-15 0)
(3 2.35385e-15 0)
(3 2.12559e-15 0)
(3 7.59445e-16 0)
(3 -9.54201e-16 0)
(3 -6.20075e-16 0)
(3 -2.3793e-16 0)
(3 -2.62702e-16 0)